default_name
407136
  68.1979992  80.7669978  22.0660014  67.5671032  80.7995097  22.8540460
  68.8598001  81.5254924  22.1485002  68.5278060  79.8190615  21.9531131
  67.4319992  81.0539978  20.8610014  67.8351424  81.9428259  20.3756567
  67.5009992  79.8829978  19.8740014  67.1123074  79.0095626  20.3975746
  66.8390193  80.1334566  19.0450545  68.8919992  79.5749978  19.3370014
  68.7776887  79.1547834  18.3377748  69.4422724  80.5138557  19.2749975
  69.6559992  78.5979978  20.2120014  69.0709992  78.0889978  21.1900014
  70.8429992  78.3389978  19.9230014  65.9819992  81.3349978  21.2210014
  65.4549992  80.7449978  22.1610014  65.3709992  82.2949978  20.5160014
  65.9161018  82.9403547  19.9623978  63.9209992  82.4859978  20.5770014
  63.6576251  82.7679435  21.5964326  63.5029992  83.6139978  19.6350014
  63.7520040  83.3424287  18.6091618  62.4283035  83.7767112  19.7165711
  64.0300659  84.5287114  19.9062931  63.1579992  81.2059978  20.2450014
  62.0709992  80.9629978  20.7900014  63.6889992  80.4169978  19.2950014
  64.5054138  80.7315771  18.7904159  63.0979992  79.1319978  18.9250014
  62.0897415  79.2777636  18.5373575  63.9459992  78.4729978  17.8420014
  64.9780224  78.4063119  18.1863564  63.5575515  77.4703169  17.6635654
  63.9199992  79.2379978  16.5430014  62.8719992  79.7109978  16.1090014
  65.0819992  79.3729978  15.9170014  65.1254343  79.8760253  15.0422577
  65.9177752  78.9721170  16.3180923  62.9679992  78.2049978  20.1230014
  62.0059992  77.4339978  20.2160014  63.9449992  78.2549978  21.0360014
  64.7780794  78.7971328  20.8566511  63.8819992  77.4699978  22.2630014
  63.7367301  76.4163490  22.0246315  65.1849992  77.6179978  23.0480014
  65.9935912  77.1864597  22.4580412  65.3549339  78.6878888  23.1686482
  65.1459992  76.9619978  24.3990014  65.0729992  75.5819978  24.5190014
  65.0433091  74.9741874  23.6146871  65.0379992  74.9779978  25.7560014
  64.9675145  73.8936706  25.8418395  65.0919992  75.7559978  26.8900014
  65.0569992  75.1659978  28.1280014  64.9944109  74.2089707  28.0857937
  65.1819992  77.1259978  26.7940014  65.2333339  77.7381994  27.6943760
  65.2069992  77.7209978  25.5570014  65.2757040  78.8057573  25.4752911
  62.6719992  77.8689978  23.1000014  61.9559992  77.0079978  23.6210014
  62.4519992  79.1789978  23.2520014  63.0892611  79.8584298  22.8616568
  61.2899992  79.6629978  23.9830014  61.3205649  79.2448685  24.9891489
  61.3501950  80.7498515  24.0397907  59.9789992  79.2749978  23.3270014
  58.9969992  78.9719978  24.0110014  59.9539992  79.2779978  21.9880014
  60.7247563  79.6720011  21.4676224  58.7989992  78.7779978  21.2440014
  57.9143374  79.3409784  21.5415338  59.0189992  78.9709978  19.7450014
  59.8962791  78.4058233  19.4302669  58.1441457  78.6161464  19.2001969
  59.1738060  80.0289588  19.5332167  58.5319992  77.3129978  21.5640014
  57.3789992  76.9129978  21.7710014  59.5879992  76.4909978  21.5180014
  60.4746557  76.8382842  21.1813535  59.4889992  75.0789978  21.8780014
  58.7783744  74.5765720  21.2217395  60.8499992  74.4019978  21.7330014
  61.5356819  75.0576884  22.2696655  60.8188417  73.4294361  22.2241765
  61.3319992  74.2299978  20.2940014  61.2791917  75.1946780  19.7893191
  62.7559992  73.7189978  20.2570014  62.8095161  72.7540650  20.7611238
  63.0749423  73.6052432  19.2209339  63.4106354  74.4291140  20.7622607
  60.4079992  73.2969978  19.5360014  59.4002339  73.7122090  19.5256020
  60.7645864  73.1843765  18.5121541  60.3939613  72.3227132  20.0245414
  58.9519992  74.8999978  23.2920014  58.1059992  74.0309978  23.5340014
  59.4669992  75.6969978  24.2400014  60.2054923  76.3462126  24.0092471
  59.0039992  75.6379978  25.6250014  59.1423174  74.6304724  26.0172511
  59.7919992  76.6129978  26.4960014  59.6261538  77.5471271  25.9593479
  59.2490103  76.6360508  27.4408462  61.2789992  76.4429978  26.7700014
  61.8331755  76.4101133  25.8319672  61.7449992  77.6309978  27.5910014
  61.1915610  77.6642813  28.5294561  62.8100245  77.5327391  27.8011615
  61.5686283  78.5505617  27.0329728  61.5579992  75.1369978  27.4790014
  61.2218661  74.3067491  26.8578727  62.6285565  75.0434640  27.6613742
  61.0249910  75.1179492  28.4296004  57.5259992  75.9699978  25.7380014
  56.7779992  75.2439978  26.4020014  57.0699992  76.9699978  24.9760014
  57.6906687  77.4863196  24.3691401  55.6739992  77.3849978  25.0520014
  55.3714867  77.4759911  26.0952203  55.4819992  78.7359978  24.3690014
  55.9637550  78.6809838  23.3927924  54.4106236  78.8869866  24.2368778
  56.0609992  79.8929978  25.1520014  55.6704745  79.8496602  26.1687183
  57.1453132  79.7841793  25.1748875  55.7009992  81.2249978  24.5300014
  54.6170711  81.2880419  24.4339590  56.0547674  82.0250924  25.1802292
  56.2979992  81.3969978  23.2100014  55.7402530  81.1318730  22.4107973
  57.5179992  81.8769978  23.0000014  58.2809992  82.2249978  24.0270014
  57.9313098  82.1238123  24.9691155  59.2083845  82.5896694  23.8624695
  57.9789992  82.0099978  21.7660014  57.3994931  81.7449843  20.9823941
  58.9080476  82.3758535  21.6139571  54.7689992  76.3359978  24.4330014
  53.6709992  76.0779978  24.9390014  55.1939992  75.7559978  23.3140014
  56.0665607  76.0127145  22.8748746  54.3559992  74.7659978  22.6560014
  53.3309559  75.1300526  22.5863640  54.8759992  74.4989978  21.2450014
  54.8911014  75.4547202  20.7211064  55.8943166  74.1227636  21.3428666
  54.0419992  73.5029978  20.4570014  54.5721984  73.2933247  19.5280090
  53.9680338  72.5892830  21.0467077  52.6459992  74.0149978  20.1390014
  52.4609992  75.2459978  20.0150014  51.7269992  73.1789978  20.0160014
  54.2919992  73.4709978  23.4590014  53.2119992  72.8899978  23.6220014
  55.4249992  73.0119978  23.9920014  56.2744513  73.5562971  23.9443696
  55.4889992  71.6819978  24.5840014  54.6702965  71.0620866  24.2185770
  56.8149992  71.0219978  24.1930014  57.5837038  71.7289695  24.5050647
  56.9469158  70.0823747  24.7294773  56.9339992  70.7709978  22.6890014
  56.7401822  71.7091377  22.1689732  58.3129992  70.2569978  22.3090014
  58.5073606  69.3185778  22.8283185  58.3557136  70.0915252  21.2324815
  59.0662540  70.9917613  22.5933080  55.8549992  69.8019978  22.2340014
  54.8731283  70.2234794  22.4493669  55.9488546  69.6302634  21.1617143
  55.9681282  68.8563615  22.7641644  55.3219992  71.6559978  26.1000014
  54.4599992  70.9359978  26.6110014  56.1239992  72.4289978  26.8380014
  56.8121820  73.0339151  26.4130556  56.0679992  72.3609978  28.2930014
  55.9093144  71.3310166  28.6124650  57.3809992  72.8609978  28.8920014
  57.5717000  73.8789214  28.5520543  57.3127250  72.8485635  29.9797900
  58.8169992  71.8419978  28.4920014  54.8959992  73.1499978  28.8530014
  54.2359992  72.6969978  29.7950014  54.6329992  74.3309978  28.2850014
  55.1596398  74.6373850  27.4794731  53.6359992  75.2369978  28.8450014
  53.7966848  75.3583930  29.9162356  53.7519992  76.6049978  28.1760014
  54.7797864  76.8943493  28.3951556  53.6409896  76.4448322  27.1035632
  52.8049992  77.7139978  28.6250014  51.7769446  77.3959580  28.4516371
  52.9999992  78.0089978  30.0960014  54.0277674  78.3275667  30.2700859
  52.3176099  78.8021193  30.4016220  52.7953120  77.1101465  30.6776111
  53.0219992  78.9639978  27.7910014  52.8324774  78.7386301  26.7415300
  52.3392778  79.7460814  28.1231730  54.0502535  79.3059609  27.9087020
  52.2259992  74.6849978  28.6990014  51.4029992  74.8779978  29.5990014
  51.9039992  74.1389978  27.5180014  52.6073980  74.1168656  26.7935433
  50.5669992  73.6279978  27.2040014  49.8399041  74.4398517  27.1859710
  50.5939992  72.9659978  25.8270014  51.2816542  72.1207003  25.8535150
  49.2089992  72.4789978  25.4440014  48.5208423  73.3238654  25.4168250
  49.2471284  72.0103381  24.4606381  48.8626273  71.7524325  26.1790048
  51.0449992  73.9129978  24.8520014  51.0622012  73.4977357  23.9866334
  50.0519992  72.6449978  28.2560014  48.9219992  72.7719978  28.7510014
  50.9029992  71.6849978  28.6400014  51.8070364  71.6095940  28.1960078
  50.5399992  70.6899978  29.6430014  49.5901588  70.2231692  29.3822843
  51.6149992  69.6059978  29.7090014  51.6950533  69.1749394  28.7110639
  52.5514603  70.1006873  29.9667281  51.3319992  68.5059978  30.7130014
  52.1743952  67.8143295  30.7210544  51.2167426  68.9489004  31.7022715
  50.0749992  67.7329978  30.3800014  49.8089992  67.4289978  29.2200014
  49.2909992  67.4139978  31.4030014  48.4382354  66.8979245  31.2400180
  49.5509983  67.6888803  32.3394530  50.3319992  71.3309978  31.0080014
  49.4079992  70.9509978  31.7420014  51.2009992  72.2819978  31.3640014
  52.0017990  72.4840623  30.7826331  51.0579992  73.0079978  32.6200014
  51.0367084  72.3089028  33.4560110  52.2379992  73.9589978  32.8090014
  53.1808704  73.4137376  32.7667580  52.2218351  74.7170001  32.0258850
  52.2249992  74.6929978  34.1170014  52.5719992  74.0479978  35.2930014
  52.8500943  72.9945247  35.2620581  52.5679992  74.7259978  36.4960014
  52.8423776  74.2083425  37.4151587  52.2159992  76.0609978  36.5340014
  52.2084392  76.5967368  37.4832256  51.8739992  76.7159978  35.3700014
  51.5991176  77.7704230  35.3969801  51.8799992  76.0339978  34.1680014
  51.6114256  76.5509418  33.2467322  49.7399992  73.7649978  32.6530014
  49.0649992  73.7969978  33.6850014  49.3849992  74.4019978  31.5340014
  50.0086452  74.3914209  30.7396129  48.1479992  75.1719978  31.4330014
  48.1113829  75.9199224  32.2250666  48.0749992  75.8849978  30.0850014
  48.3245265  75.1495359  29.3201935  47.0437502  76.2117634  29.9513983
  48.9999992  77.0739978  29.9610014  48.7300001  77.8286552  30.6997122
  50.0185807  76.7330217  30.1462828  48.9429992  77.7009978  28.5870014
  48.3069992  77.1669978  27.6790014  49.5899992  78.8479978  28.4290014
  49.5832321  79.3084145  27.5300731  50.0864703  79.2557313  29.2083417
  46.9409992  74.2719978  31.6320014  45.9859992  74.6409978  32.3270014
  46.9579992  73.1059978  30.9710014  47.6765599  72.9366837  30.2817245
  45.9149992  72.0919978  31.1510014  44.9339431  72.4905471  30.8925704
  46.1989992  70.8689978  30.2610014  47.2323853  70.5560226  30.4101956
  45.2669992  69.7219978  30.6130014  44.2333743  70.0340888  30.4636040
  45.4840601  68.8671353  29.9725367  45.4139409  69.4406754  31.6557706
  46.0269992  71.2339978  28.8000014  46.7215213  72.0329541  28.5403672
  46.2306030  70.3606656  28.1803758  45.0050038  71.5712381  28.6270992
  45.7939992  71.6999978  32.6200014  44.6919992  71.6849978  33.1810014
  46.9199992  71.3079978  33.2330014  47.7709559  71.2423358  32.6929454
  46.9559992  70.8969978  34.6380014  46.3159065  70.0280935  34.7909254
  48.3839992  70.5269978  35.0340014  49.0385851  71.3414149  34.7236123
  48.4196793  70.4261497  36.1187395  48.8459992  69.2359978  34.3920014
  47.9869992  68.3749978  34.1150014  50.0629992  69.0809978  34.1680014
  46.4009992  71.9719978  35.5710014  45.6289992  71.6769978  36.4890014
  46.8209992  73.2239978  35.3680014  47.5038738  73.4196635  34.6500205
  46.3749992  74.3249978  36.2180014  46.4812159  74.0485021  37.2669854
  47.2109992  75.5729978  35.9560014  47.1908534  75.7595693  34.8822768
  46.7320088  76.4017926  36.4773146  48.6489992  75.4479978  36.4200014
  49.1063003  74.6198695  35.8785404  49.1651190  76.3746673  36.1689912
  48.7939992  75.1509978  38.1850014  48.3259992  76.7589978  38.8050014
  47.3139546  76.9952672  38.4763048  48.3616371  76.7534088  39.8944047
  49.0163485  77.5111904  38.4232614  44.8939992  74.6209978  36.0270014
  44.2019992  74.9759978  36.9880014  44.4119992  74.5979978  34.7820014
  45.0186619  74.5361999  33.9768674  42.9779992  74.7339978  34.5580014
  42.6070886  75.6462105  35.0253263  42.7009992  74.8069978  33.0560014
  43.3473905  75.5873470  32.6543389  42.9904631  73.8439652  32.6354317
  41.2599992  75.1059978  32.6890014  40.6389043  74.2938146  33.0667583
  40.9743910  76.0380987  33.1765619  41.0629992  75.2379978  31.1940014
  42.0519992  75.0709978  30.4490014  39.9229992  75.5069978  30.7630014
  42.1979992  73.5899978  35.1990014  41.0849992  73.7949978  35.6960014
  42.7819992  72.3879978  35.2190014  43.6659670  72.2433268  34.7523425
  42.1379992  71.2419978  35.8510014  41.1111946  71.1837423  35.4899229
  42.8669992  69.9589978  35.4580014  43.8941497  69.9984736  35.8206358
  42.3589103  69.1018712  35.8999063  42.8690243  69.8595669  34.3725482
  42.0829992  71.3739978  37.3680014  41.0689992  71.0359978  37.9890014
  43.1749992  71.8349978  37.9840014  44.0446070  71.9141769  37.4764461
  43.1919992  72.0629978  39.4270014  42.7049960  71.2796215  40.0077324
  44.6329992  72.2419978  39.9510014  45.2493732  71.4973344  39.4473559
  45.2189992  73.6249978  39.7190014  44.6033805  74.3702046  40.2227686
  46.2327518  73.6622011  40.1177773  45.2417307  73.8358629  38.6498331
  44.6909992  71.8589978  41.3900014  44.3915040  70.8168992  41.5015144
  45.7086282  71.9855666  41.7594757  44.0153452  72.4939893  41.9630445
  42.2459992  73.1989978  39.8210014  41.6689992  73.1789978  40.9140014
  42.0779992  74.2049978  38.9640014  42.5892471  74.2383428  38.0935917
  41.1559992  75.2789978  39.2590014  40.7116075  75.5627354  38.3050055
  40.3892627  74.8472767  39.9022987  41.7199992  76.5139978  39.9260014
  42.5849992  76.4459978  40.8030014  41.1879992  77.6539978  39.4700014
  40.4435610  77.5739748  38.7921318  41.6579992  78.9899978  39.8280014
  42.7095144  79.1069949  39.5658434  40.8439992  80.0309978  39.0590014
  40.8548003  79.7257483  38.0126720  39.8250642  79.9766398  39.4422984
  41.3519992  81.4549978  39.1750014  41.3192888  81.7431726  40.2257089
  42.3846136  81.4710535  38.8263628  40.5299992  82.4279978  38.3600014
  39.5509992  81.9889978  37.7190014  40.8599992  83.6319978  38.3630014
  41.5999992  79.2649978  41.3260014  42.4449992  80.0029978  41.8490014
  40.6229992  78.6879978  42.0300014  39.9476591  78.0961623  41.5676751
  40.4669992  78.9289978  43.4630014  40.4195382  80.0000014  43.6599733
  39.1759992  78.2849978  43.9570014  39.0547755  78.5005256  45.0185818
  37.9869992  78.8309978  43.1920014  38.1072928  78.6154282  42.1303241
  37.0732285  78.3615123  43.5562891  37.9241512  79.9092877  43.3384312
  39.2499992  76.8679978  43.7590014  38.4387495  76.4588063  44.0688988
  41.6319992  78.4109978  44.3000014  41.7789992  78.8309978  45.4520014
  42.4619992  77.5209978  43.7610014  42.3258241  77.2239015  42.8053396
  43.5329992  76.9059978  44.5280014  43.4571923  77.2050534  45.5734287
  43.4419992  75.3819978  44.4480014  43.3692297  75.1652005  43.3822610
  44.3689201  74.9641070  44.8407928  42.2559992  74.7589978  45.1750014
  41.3358485  75.2216822  44.8181449  42.2049992  73.2669978  44.9140014
  43.1246810  72.8035201  45.2710345  41.3532632  72.8346682  45.4391086
  42.1003216  73.0881912  43.8438747  42.3599992  75.0419978  46.6610014
  42.3594493  76.1192607  46.8271457  41.5102557  74.5948938  47.1768843
  43.2851614  74.6155678  47.0487274  44.9099992  77.3629978  44.0710014
  45.9129992  76.8119978  44.5390014  44.9779992  78.3199978  43.1320014
  44.1263559  78.7349143  42.7817911  46.2489992  78.7409978  42.5410014
  46.7603220  77.8791782  42.1121482  46.0099992  79.7689978  41.4330014
  45.2830571  80.4971064  41.7928796  46.9312712  80.2820400  41.1570563
  45.4479992  79.1899978  40.1720014  45.1949992  77.8759978  39.9150014
  45.4111521  77.1685440  40.7155555  44.6999992  77.7279978  38.6430014
  44.4103404  76.8567209  38.2222000  44.6429992  78.9579978  38.0440014
  44.2089992  79.3179978  36.7730014  43.8557232  78.5352416  36.1017434
  44.2539992  80.6449978  36.4440014  43.9201256  80.9641292  35.4566902
  44.7199992  81.6079978  37.3470014  44.7574140  82.6618829  37.0712735
  45.1459992  81.2529978  38.6130014  45.4939698  82.0398627  39.2822255
  45.1069992  79.9039978  38.9790014  47.2459992  79.3169978  43.5430014
  48.4479992  79.3079978  43.2650014  46.8039992  79.7959978  44.7020014
  45.8156184  79.8932900  44.8856775  47.7429992  80.2929978  45.6970014
  48.7151982  80.4649480  45.2350908  47.2439992  81.6099978  46.2890014
  46.2101265  81.4941418  46.6142455  47.8643660  81.8834654  47.1425005
  47.4299992  82.9619978  45.1180014  48.0369992  79.2849978  46.7950014
  48.6139992  79.6529978  47.8210014  47.6569992  78.0269978  46.6050014
  47.0777661  77.8009404  45.8090829  48.0059992  76.9579978  47.5310014
  48.2139348  77.3823609  48.5132326  46.8679992  75.9509978  47.6660014
  45.9402014  76.5081772  47.7957762  46.8203209  75.3774383  46.7403361
  47.0579992  75.0039978  48.8390014  48.0689992  75.1249978  49.5630014
  46.1879992  74.1329978  49.0400014  49.2739992  76.3019978  47.0020014
  49.2279992  75.5899978  45.9940014  50.4029992  76.5619978  47.6660014
  50.3981288  77.1694336  48.4729075  51.6849992  76.0399978  47.2000014
  51.8347299  76.3002181  46.1521630  52.8229992  76.6389978  48.0180014
  52.9295864  77.7170592  47.8974934  52.6300589  76.4083558  49.0657029
  54.1399992  76.0429978  47.6880014  54.8989992  75.2639978  48.4990014
  54.5119006  75.0742212  49.5001204  56.0389992  74.8699978  47.8470014
  56.7777793  74.3063599  48.2427486  56.0169992  75.3719978  46.5720014
  56.9409992  75.2449978  45.5410014  57.8449229  74.6629102  45.7204303
  56.6539992  75.8629978  44.3600014  57.3552789  75.7842986  43.5292709
  55.4799992  76.5969978  44.1870014  55.2590406  77.0784994  43.2344086
  54.5679992  76.7359978  45.2080014  53.6850876  77.3507133  45.0328080
  54.8289992  76.1079978  46.4310014  51.7289992  74.5199978  47.2500014
  52.3249992  73.8869978  46.3700014  51.1619992  73.9349978  48.3100014
  50.8311496  74.5004652  49.0786916  51.0019992  72.4889978  48.3970014
  51.9924353  72.0428239  48.4868032  50.4207669  72.2651450  49.2915171
  50.3009992  71.8949978  47.1920014  50.6839992  70.8379978  46.6870014
  49.2519992  72.5659978  46.7270014  48.9540655  73.3987004  47.2147937
  48.4579992  72.1069978  45.5970014  48.3087532  71.0276895  45.6273068
  47.0939992  72.7919978  45.6960014  46.7310252  72.5684342  46.6991806
  47.3004764  73.8591409  45.6143136  46.0519992  72.4069978  44.6910014
  45.2043698  73.0813780  44.8128073  46.4805853  72.5387201  43.6974898
  45.5829992  70.9689978  44.8540014  45.7131975  70.6663818  45.8930255
  44.5281911  70.9048129  44.5868692  46.3379992  70.0539978  44.0020014
  46.9951942  70.4640639  43.3538965  46.2199992  68.7329978  44.0330014
  45.3679992  68.1609978  44.8700014  44.8078122  68.7335513  45.4852031
  45.2823064  67.1548251  44.8893113  46.9499992  67.9819978  43.2190014
  47.5951174  68.4190196  42.5764015  46.8573573  66.9766067  43.2455500
  49.1369992  72.3589978  44.2470014  48.8749992  71.6289978  43.2840014
  50.0279992  73.3449978  44.1580014  50.2858736  73.8393626  45.0001437
  50.5969992  73.7949978  42.8880014  50.0385134  73.3934253  42.0424647
  50.5889992  75.3249978  42.7980014  51.1262212  75.6279009  41.8992564
  49.1659992  75.8529978  42.7390014  48.6282511  75.5508671  43.6376913
  49.1839491  76.9409960  42.6754649  48.6631944  75.4465618  41.8614494
  51.2759992  75.8789978  43.9250014  51.2687469  76.8370858  43.8648744
  52.0119992  73.2859978  42.6360014  52.4839992  73.3569978  41.4880014
  52.6909992  72.8209978  43.6930014  52.2219085  72.7986577  44.5871794
  54.1109992  72.4669978  43.6450014  54.7529653  73.2321978  43.2085983
  54.6229992  72.1109978  45.0620014  54.5668706  73.0151669  45.6681600
  53.8189992  70.9949978  45.7350014  53.8750425  70.0903046  45.1296173
  54.2308578  70.7956379  46.7243087  52.7779750  71.3035218  45.8308176
  56.1199992  71.7949978  45.0650014  56.2520906  70.8314709  44.5727937
  56.6193689  72.5705529  44.4842744  56.7179992  71.7389978  46.4460014
  56.2194170  70.9633004  47.0272149  57.7813293  71.5107218  46.3730743
  56.5866930  72.7023824  46.9386967  54.3809992  71.3639978  42.6260014
  55.4099992  71.3959978  41.9410014  53.5129992  70.3429978  42.5640014
  52.7413249  70.2995736  43.2141802  53.6849992  69.2409978  41.6170014
  54.6291619  68.7269316  41.7969793  52.5399992  68.2399978  41.8000014
  52.4834871  68.0483270  42.8715274  51.6383440  68.7599939  41.4763937
  52.6589992  66.9129978  41.0510014  53.7142502  66.7365974  40.8426051
  52.2805919  66.1237468  41.7006111  51.8749992  66.9129978  39.7410014
  52.2999591  67.6590254  39.0694726  51.9469846  65.9275758  39.2807180
  50.4639992  67.2269978  39.9570014  50.1095839  67.1407116  40.8988315
  49.6289992  67.6159978  38.9980014  50.0589992  67.7369978  37.7500014
  51.0232050  67.5328034  37.5292936  49.4204530  68.0328328  37.0255430
  48.3639992  67.8829978  39.2870014  48.0359448  67.7901810  40.2377198
  47.7334626  68.1781398  38.5552819  53.7479992  69.7509978  40.1800014
  54.6889992  69.4379978  39.4420014  52.7469992  70.5379978  39.7770014
  51.9664740  70.7222766  40.3909405  52.7129992  71.0949978  38.4280014
  52.7830440  70.2977874  37.6879687  51.3989992  71.8409978  38.2180014
  51.3117045  72.6221521  38.9731682  51.4044486  72.2938315  37.2265318
  50.2999992  70.9559978  38.3260014  49.4832373  71.4421472  38.1912478
  53.9049992  72.0089978  38.1710014  54.4869992  71.9929978  37.0760014
  54.3279992  72.7569978  39.1980014  53.8798331  72.7146600  40.1021330
  55.4179992  73.7089978  39.0100014  55.2614710  74.2838599  38.0972409
  55.4699992  74.6729978  40.1900014  54.4684624  75.0855804  40.3116519
  55.7341702  74.0946975  41.0753728  56.4549992  75.7939978  40.0120014
  56.1549992  76.8759978  39.2030014  55.1896413  76.9054106  38.6977110
  57.0499992  77.9009978  39.0320014  56.8005285  78.7481327  38.3930736
  58.2629992  77.8599978  39.6760014  59.1609992  78.8859978  39.5090014
  58.8382738  79.5754721  38.9241311  58.5879992  76.7949978  40.4820014
  59.5521042  76.7583376  40.9892075  57.6849992  75.7699978  40.6460014
  57.9335460  74.9214817  41.2834534  56.7559992  72.9989978  38.8370014
  57.5679992  73.3899978  37.9830014  56.9859992  71.9319978  39.6100014
  56.3552242  71.6835820  40.3586748  58.2309992  71.1839978  39.4780014
  59.0617241  71.8854234  39.4005581  58.4769992  70.2629978  40.6820014
  59.4900770  69.8870981  40.5389210  58.4551036  70.9271777  41.5459955
  57.5389992  69.1039978  40.9150014  56.5239003  69.4854006  41.0254862
  57.5832045  68.4333591  40.0568688  57.9329992  68.3479978  42.1670014
  58.9430164  67.9577353  42.0418640  57.9108634  69.0320183  43.0153678
  57.0329992  67.2349978  42.4410014  56.2625673  67.0892251  41.8043819
  57.1699992  66.4069978  43.4700014  56.3029992  65.4199978  43.6460014
  55.5395037  65.3006345  42.9956730  56.4098355  64.7918179  44.4296312
  58.1739992  66.5619978  44.3210014  58.8359469  67.3126146  44.1849873
  58.2726019  65.9287962  45.1016626  58.2589992  70.4389978  38.1520014
  59.3289992  70.3209978  37.5420014  57.1209992  69.8439978  37.7470014
  56.3247971  69.7811106  38.3652302  57.0299992  69.2089978  36.4320014
  57.7564339  68.3989694  36.3668416  55.6339992  68.6329978  36.1980014
  54.9196750  69.4258019  36.4200416  55.5689839  68.3713897  35.1418602
  55.3129992  67.4109978  37.0430014  55.4385310  67.6884910  38.0895864
  54.2705680  67.1509524  36.8591191  56.1929992  66.2199978  36.7280014
  56.5789992  66.0469978  35.5530014  56.5029992  65.4539978  37.6640014
  57.3959992  70.1939978  35.3270014  58.1309992  69.8429978  34.3960014
  56.8999992  71.4349978  35.4280014  56.3030823  71.6846779  36.2035331
  57.1589992  72.4409978  34.4020014  56.8961232  72.0523600  33.4181539
  56.3159992  73.6819978  34.6770014  55.2873587  73.3263309  34.6178494
  56.5276814  74.0125692  35.6938659  56.5059992  74.8469978  33.7150014
  57.5481455  75.1653841  33.7407344  56.1419992  74.4269978  32.3080014
  55.0997898  74.1088950  32.2813761  56.2819655  75.2684365  31.6294065
  56.7815996  73.6006112  31.9980063  55.6659992  76.0279978  34.1560014
  55.9694803  76.3370632  35.1562400  55.8090233  76.8557917  33.4614493
  54.6142275  75.7421144  34.1680805  58.6419992  72.7999978  34.3500014
  59.2379992  72.8749978  33.2630014  59.2359992  73.0499978  35.5240014
  58.6825070  73.0750912  36.3684634  60.6629992  73.3619978  35.6200014
  60.8630527  74.2558003  35.0290743  61.0409992  73.6419978  37.0700014
  60.8548255  72.7530750  37.6727083  62.0975531  73.9039157  37.1265093
  60.4412873  74.4694971  37.4490659  61.5189992  72.2399978  35.0460014
  62.4629992  72.4939978  34.2810014  61.2319992  70.9939978  35.4600014
  60.5522737  70.8550184  36.1940023  61.9229992  69.8229978  34.9250014
  62.9881610  69.8871384  35.1472978  61.3689992  68.5469978  35.5550014
  60.2811278  68.5963556  35.5081096  61.7194415  67.6992862  34.9662101
  61.8029992  68.3759978  36.9900014  62.9059992  68.8459978  37.3350014
  61.0429992  67.7689978  37.7740014  61.8069992  69.7669978  33.4110014
  62.7799992  69.4199978  32.7310014  60.5979992  70.0229978  32.8810014
  59.8119535  70.2357361  33.4784743  60.3739992  69.9559978  31.4410014
  60.6308623  68.9631866  31.0716148  58.9069992  70.2319978  31.1190014
  58.2754689  69.5436115  31.6806000  58.6606544  71.2573839  31.3946784
  58.4489992  70.0429978  29.3680014  61.2709992  70.9539978  30.7250014
  61.8649992  70.6359978  29.6870014  61.3909992  72.1669978  31.2870014
  60.9070373  72.4163663  32.1377044  62.2109992  73.1829978  30.6340014
  61.9691564  73.2384452  29.5726171  61.9669992  74.5499978  31.2610014
  62.6254491  75.2777829  30.7867938  60.5269992  74.9759978  31.0740014
  59.8679250  74.2488893  31.5483789  60.3750298  75.9546493  31.5292439
  60.2993562  75.0317308  30.0094954  62.2679992  74.4859978  32.6600014
  62.1157129  75.3454383  33.0597153  63.6889992  72.8309978  30.7270014
  64.4589992  73.1289978  29.8020014  64.0719992  72.1079978  31.7850014
  63.4273668  71.8873076  32.5305511  65.4579992  71.6669978  31.9150014
  66.1293849  72.5055435  31.7301189  65.7229992  71.1309978  33.3160014
  65.5631850  71.9143068  34.0569371  65.0839466  70.2784041  33.5457744
  67.1229992  70.6689978  33.4820014  68.2479992  71.4289978  33.4060014
  68.1106850  72.4914996  33.2051669  69.3599992  70.6509978  33.6090014
  70.3157775  70.9774715  33.6074816  68.9619992  69.3569978  33.8150014
  69.7179992  68.2139978  34.0610014  70.8032860  68.3042778  34.1068353
  69.0409992  67.0389978  34.2310014  69.5975190  66.1222258  34.4257187
  67.6439992  66.9829978  34.1610014  67.1162057  66.0392579  34.2984370
  66.8939992  68.1149978  33.9170014  65.8089115  68.0196970  33.8769626
  67.5579992  69.3309978  33.7390014  65.7709992  70.6089978  30.8700014
  66.8249992  70.6519978  30.2200014  64.8839992  69.6149978  30.7510014
  64.0936199  69.5693265  31.3781490  65.0629992  68.5369978  29.7840014
  66.0336916  68.0658024  29.9383725  63.9739992  67.4749978  29.9400014
  62.9800334  67.9166837  30.0110284  64.0169025  66.8155850  29.0731485
  64.1439992  66.6069978  31.1470014  65.1609992  65.6839978  31.2560014
  65.8680888  65.5248548  30.5525829  65.0599992  65.0529978  32.4120014
  65.7838890  64.2880824  32.6930477  64.0039992  65.5219978  33.0500014
  63.4079992  66.4869978  32.2770014  62.5068952  66.9884596  32.6300579
  65.0859992  69.0939978  28.3690014  65.8459992  68.6189978  27.5240014
  64.2589992  70.1099978  28.1070014  63.6051115  70.4154378  28.8135682
  64.2239992  70.7639978  26.8030014  64.0678339  70.0271557  26.0151085
  63.0759992  71.7679978  26.7660014  62.2048666  71.2743384  27.1967305
  63.3653736  72.6086589  27.3965975  62.7369992  72.2699978  25.3830014
  61.9709324  73.0422074  25.4532506  63.6302543  72.6863835  24.9173615
  62.1209992  70.9169978  24.3740014  60.5829992  70.5809978  25.2270014
  59.9548435  71.4716125  25.2089761  60.0637582  69.7607013  24.7314180
  60.7927879  70.3058438  26.2606262  65.5529992  71.4479978  26.4970014
  66.0699992  71.3429978  25.3740014  66.0819992  72.2019978  27.4760014
  65.5337808  72.4021166  28.3003244  67.4199992  72.7899978  27.3720014
  67.4228194  73.5281819  26.5700192  67.7939992  73.4869978  28.6780014
  67.8043175  72.7588428  29.4890402  68.7825381  73.9358145  28.5807662
  67.0625131  74.2646177  28.8978526  68.4619992  71.7349978  27.0320014
  69.3309992  71.9589978  26.1810014  68.4329992  70.6109978  27.7540014
  67.8035295  70.5229671  28.5389331  69.3539992  69.5109978  27.4780014
  70.3834741  69.8636234  27.5407388  69.1589992  68.3909978  28.4970014
  68.0972181  68.1449784  28.5109511  69.7265315  67.5291754  28.1459043
  69.6109992  68.7569978  29.8970014  69.1103434  69.6817950  30.1836976
  69.3014738  67.9543096  30.5663181  71.1159992  68.9449978  29.9940014
  71.8579992  68.2509978  29.2680014  71.5579992  69.7929978  30.7960014
  69.1819992  68.9809978  26.0570014  70.1659992  68.6499978  25.3870014
  67.9299992  68.8749978  25.5940014  67.1480610  69.0954665  26.1940561
  67.6519992  68.3789978  24.2480014  68.1702661  67.4329415  24.0915531
  66.1529992  68.1529978  24.0520014  65.6445961  69.0493718  24.4071622
  65.9832501  68.0397787  22.9812696  65.6079992  66.9419978  24.7800014
  66.1528724  66.0608964  24.4410704  65.7698779  67.0796948  25.8490837
  64.1299992  66.7539978  24.5140014  63.6065025  67.6791127  24.7552743
  63.9871506  66.5208713  23.4588494  63.5759992  65.6249978  25.3600014
  63.8057104  65.8329026  26.4050416  62.4947932  65.5924557  25.2257121
  64.1629992  64.3129978  24.9750014  65.1648194  64.3428000  25.0997729
  63.7726979  63.5857453  25.5571256  63.9498933  64.1199602  24.0067962
  68.1749992  69.3129978  23.1700014  68.5249992  68.8549978  22.0780014
  68.2499992  70.6119978  23.4460014  67.9255268  70.9904805  24.3243908
  68.7459992  71.5369978  22.4370014  68.6492669  71.0851527  21.4497942
  67.9539992  72.8479978  22.4550014  67.6936914  72.9286016  23.5103886
  68.6190267  73.6672474  22.1817458  66.6809992  72.9209978  21.6090014
  66.9093808  72.5083149  20.6263339  65.5199992  72.1529978  22.2240014
  65.2907183  72.5654355  23.2065615  64.6445035  72.2402724  21.5805800
  65.7920361  71.1024281  22.3259795  66.3069992  74.3729978  21.3480014
  67.1187562  74.8675793  20.8145793  65.3997265  74.4123214  20.7451656
  66.1342791  74.8804819  22.2970677  70.2269992  71.8429978  22.5900014
  70.7879992  72.5539978  21.7520014  70.8699992  71.3319978  23.6340014
  70.3718689  70.8079104  24.3391949  72.2979992  71.5099978  23.7920014
  72.6659566  70.6991992  24.4207399  72.7527490  71.4379836  22.8040156
  72.6839992  72.8279978  24.4150014  73.7899992  73.3219978  24.1760014
  71.7989992  73.4129978  25.2060014  70.9042793  72.9623548  25.3344402
  72.0289992  74.6859978  25.8640014  72.8382613  75.2175733  25.3633803
  70.7709992  75.5539978  25.8160014  69.9223960  75.0183712  26.2415316
  70.9273690  76.4817889  26.3663216  70.2719992  76.0389978  24.1470014
  69.2048433  76.7401123  24.5191773  72.4539992  74.4539978  27.3060014
  72.1949992  73.4009978  27.8920014  73.1109992  75.4539978  27.8800014
  73.5660809  76.1795775  27.3447126  73.2509992  75.4739978  29.3240014
  73.4098143  74.4572783  29.6833874  74.4359992  76.3399978  29.7650014
  74.4795012  76.3072226  30.8536394  75.3778253  75.9774125  29.3531815
  74.3289992  77.7909978  29.3820014  74.7959992  78.2299978  28.1540014
  75.2329759  77.5094644  27.4626384  74.7129992  79.5639978  27.8010014
  75.0685551  79.8946828  26.8251284  74.1779992  80.4789978  28.6880014
  74.1137618  81.5316000  28.4123164  73.7249992  80.0599978  29.9230014
  73.2988171  80.7787160  30.6229395  73.8129992  78.7249978  30.2710014
  73.4752358  78.3944117  31.2532074  71.9409992  75.9629978  29.9260014
  71.1779992  76.6949978  29.2910014  71.6889992  75.5599978  31.1630014
  72.3370887  74.9535888  31.6450257  70.4789992  75.9609978  31.8540014
  69.9928107  76.7690734  31.3074360  69.5019992  74.7819978  31.9580014
  69.3266412  74.4259001  30.9428447  69.8658893  73.9591707  32.5733384
  68.1799992  75.1689978  32.5060014  67.1869992  75.8349978  31.8520014
  67.3702840  76.0888936  30.8079500  66.1269992  76.0479978  32.6930014
  65.2602605  76.5039742  32.4461230  66.4359992  75.5429978  33.9270014
  65.6909992  75.5249978  35.0990014  64.6953256  75.9684646  35.0906395
  66.2599992  74.9469978  36.1970014  65.7052249  74.9150206  37.1347129
  67.5409992  74.3929978  36.1490014  67.9822262  73.9299508  37.0316144
  68.2849992  74.4139978  34.9890014  69.2760059  73.9602862  35.0013468
  67.7289992  74.9949978  33.8480014  70.8149992  76.4539978  33.2520014
  71.6629992  75.8609978  33.9280014  70.1689992  77.5299978  33.7220014
  70.2559992  77.7899978  35.1660014  71.3004305  77.9239138  35.4476573
  69.8385285  76.9441116  35.7121642  69.4509992  79.0339978  35.3420014
  70.1107070  79.9004102  35.2949444  68.9544183  79.0083433  36.3119759
  68.4709992  79.0479978  34.2530014  68.1453046  80.0577539  34.0031723
  67.6029139  78.4384248  34.5038963  69.2139992  78.4339978  33.0680014
  68.5776940  77.8022960  32.4481895  69.8129992  79.5429978  32.2140014
  71.0289992  79.6209978  32.0450014  68.9319992  80.3939978  31.6880014
  67.9509639  80.2384044  31.8709214  69.3039992  81.4869978  30.8000014
  70.1735210  82.0028619  31.2073285  69.6509992  80.9749978  29.3950014
  69.8441030  81.8356016  28.7545553  70.5514613  80.3646443  29.4638248
  68.5389992  80.1359978  28.7640014  67.4619992  79.9519978  29.3290014
  68.8109992  79.6209978  27.5730014  68.1195789  79.0564053  27.1004838
  69.7083798  79.7956302  27.1436852  68.1649992  82.5019978  30.7720014
  67.1589992  82.3489978  31.4660014  68.3929992  83.5909978  30.0320014
  69.2625427  83.6668317  29.5238256  67.4609992  84.7189978  29.9850014
  67.3628165  85.1105911  30.9974806  68.0259992  85.8189978  29.0890014
  68.1215657  85.4447861  28.0697210  67.3541544  86.6772675  29.0988998
  69.0061315  86.1212035  29.4579347  66.0649992  84.3149978  29.5120014
  65.0559992  84.8179978  30.0230014  65.9959992  83.4139978  28.5260014
  66.8426412  83.0602692  28.1038963  64.7129992  82.9799978  27.9750014
  64.0983347  83.8436360  27.7211990  64.9549992  82.1619978  26.7050014
  65.5506801  82.7846265  26.0374709  65.5349527  81.2871659  26.9989796
  63.6879992  81.7129978  25.9850014  63.9905111  81.0416206  25.1813597
  63.0749688  81.1672552  26.7022586  62.8829992  82.8679978  25.4050014
  63.4789992  83.9099978  25.0580014  61.6469992  82.7319978  25.3000014
  63.8599992  82.1879978  28.9620014  62.6389992  82.3799978  29.0070014
  64.4629992  81.3269978  29.7880014  65.4383149  81.0722619  29.7250064
  63.6199992  80.6119978  30.7460014  62.6489365  80.3576535  30.3212128
  64.2849992  79.3179978  31.2680014  63.6238159  78.8464777  31.9950534
  64.5419992  78.3609978  30.1260014  65.2035266  78.8316768  29.3987162
  65.0105408  77.4545554  30.5093178  63.5974667  78.1058666  29.6455142
  65.5599992  79.5799978  32.0260014  65.3479091  80.2146924  32.8863982
  65.9810259  78.6344302  32.3676709  66.2750229  80.0807395  31.3732382
  63.1939992  81.5349978  31.8780014  62.1149992  81.3499978  32.4530014
  64.0399992  82.5049978  32.2420014  64.9943702  82.4979542  31.9115081
  63.6349992  83.5609978  33.1650014  63.3405477  83.1328575  34.1231733
  64.8029992  84.5119978  33.3950014  65.1349562  84.8953649  32.4301525
  64.4364297  85.3365763  34.0063910  65.9599992  83.8429978  34.0950014
  65.7119992  82.9069978  34.8830014  67.1169992  84.2399978  33.8490014
  62.4219992  84.3159978  32.6400014  61.4549992  84.5459978  33.3750014
  62.4669992  84.7049978  31.3610014  63.3105875  84.5542715  30.8264552
  61.3509992  85.3929978  30.7150014  61.1003433  86.3026826  31.2606610
  61.7439992  85.7719978  29.2890014  62.7066278  86.2793957  29.3521899
  61.8608493  84.8397183  28.7364609  60.7519992  86.6609978  28.5730014
  59.7753780  86.1769473  28.5756171  60.6860394  87.6139110  29.0980804
  61.1939992  86.9029978  27.1370014  61.2839303  85.9414599  26.6315747
  60.4383436  87.5073793  26.6351976  62.4769992  87.5959978  27.0560014
  63.3055023  87.0239920  26.9754323  62.6189992  88.9169978  27.0870014
  61.5549992  89.7009978  27.1940014  60.6335707  89.2914921  27.2520920
  61.6708769  90.7040665  27.2169183  63.8279992  89.4549978  27.0050014
  64.6382304  88.8581310  26.9191208  63.9331902  90.4592226  27.0287957
  60.0959992  84.5279978  30.7110014  58.9899992  85.0079978  31.0080014
  60.2689992  83.2379978  30.4160014  61.1947911  82.8996321  30.1957347
  59.1559992  82.3009978  30.3440014  58.3843935  82.6782682  29.6728898
  59.6569992  80.9649978  29.8080014  60.0020556  81.0700934  28.7794149
  60.4760690  80.6047235  30.4304379  58.6199992  79.8909978  29.8030014
  57.5919992  79.9069978  28.8790014  57.5422298  80.7158676  28.1500621
  56.6339992  78.9119978  28.8730014  55.8235183  78.9341929  28.1444902
  56.7059992  77.8849978  29.7960014  55.9529794  77.0969311  29.7925430
  57.7309992  77.8569978  30.7220014  57.7882297  77.0495519  31.4519712
  58.6819992  78.8529978  30.7210014  59.4948191  78.8311674  31.4469127
  58.4929992  82.1209978  31.7020014  57.2659992  82.2349978  31.8180014
  59.2849992  81.8229978  32.7360014  60.2700516  81.6425785  32.6047764
  58.7239992  81.6559978  34.0700014  57.8777693  80.9699158  34.0341475
  59.7759992  81.0839978  35.0170014  60.7604203  81.5026138  34.8077763
  59.4980796  81.3076365  36.0469754  59.9149992  79.5929978  34.9240014
  58.8849992  78.8239978  34.4170014  57.9691050  79.3116533  34.0831905
  59.0069992  77.4529978  34.3310014  58.1831839  76.8563160  33.9393386
  60.1669992  76.8389978  34.7390014  60.2659526  75.7557946  34.6684397
  61.2019992  77.5919978  35.2360014  62.1220690  77.1071697  35.5623655
  61.0769992  78.9609978  35.3220014  61.9014772  79.5603593  35.7081385
  58.1479992  82.9569978  34.6030014  57.1769992  82.9219978  35.3630014
  58.7219992  84.1029978  34.2170014  59.5730840  84.1003809  33.6731749
  58.1649992  85.3869978  34.6220014  58.0710873  85.4280129  35.7071731
  59.0809992  86.5189978  34.1690014  60.0381454  86.2987601  34.6417232
  59.1875191  86.4534322  33.0862020  58.6369992  87.9289978  34.5520014
  57.6569667  88.1243547  34.1167168  58.5559992  88.0639978  36.0580014
  59.5358323  87.8692242  36.4939937  58.2383144  89.0742031  36.3161921
  57.8354603  87.3458828  36.4494536  59.5949992  88.9519978  33.9760014
  59.6100828  88.8650998  32.8895758  59.2686994  89.9537924  34.2553529
  60.5963232  88.7740320  34.3681461  56.7669992  85.5629978  34.0530014
  55.8449992  85.9839978  34.7620014  56.5909992  85.1979978  32.7790014
  57.3866560  84.9405371  32.2126591  55.2729992  85.2249978  32.1500014
  54.8561877  86.2257971  32.2629975  55.4009992  84.9149978  30.6600014
  55.8086043  83.9123868  30.5306597  54.4185807  84.9705324  30.1910985
  56.0672950  85.6405156  30.1933397  54.3059992  84.2509978  32.8190014
  53.1239992  84.5719978  33.0090014  54.7919992  83.0509978  33.1620014
  55.7335479  82.7985317  32.8977170  53.9649992  82.0439978  33.8340014
  53.0609047  81.8460208  33.2582260  54.7449992  80.7269978  33.9930014
  55.7181137  80.9448796  34.4330868  53.9909992  79.7599978  34.8870014
  53.0178984  79.5412633  34.4473073  54.5606171  78.8359112  34.9854897
  53.8521255  80.2072538  35.8712666  54.9639992  80.0859978  32.6430014
  55.5332615  80.7634976  32.0065766  55.5168244  79.1549040  32.7676943
  54.0001780  79.8763533  32.1791063  53.4539992  82.5569978  35.1780014
  52.2519992  82.4719978  35.4690014  54.3649992  83.0339978  36.0390014
  55.3522193  82.9629290  35.8378917  53.9579992  83.5999978  37.3260014
  53.3783112  82.8648139  37.8841820  55.1779992  83.9879978  38.1530014
  55.8740258  84.5653713  37.5444900  54.8806909  84.5763498  39.0210739
  55.9379992  82.8139978  38.6730014  55.4629992  82.0239978  39.6930014
  56.3319992  81.0619978  39.9390014  56.1337593  80.3215885  40.7139814
  57.3569992  81.2059978  39.1220014  58.1784968  80.6194656  39.0870501
  57.1309992  82.2909978  38.3160014  57.8658689  82.5720145  37.5616160
  53.0349992  84.7969978  37.1500014  52.1289992  85.0099978  37.9660014
  53.2929992  85.6209978  36.1260014  54.0873476  85.4650410  35.5220250
  52.4359992  86.7629978  35.8560014  52.4245130  87.4066241  36.7356107
  52.8447239  87.3136984  35.0087869  51.0159992  86.3439978  35.5330014
  50.0519992  86.9949978  35.9410014  50.8769992  85.2449978  34.7950014
  51.6914498  84.7637762  34.4411719  49.5619992  84.7389978  34.4270014
  48.9067857  85.5566681  34.1266520  49.7139992  83.7769978  33.2490014
  50.0782313  84.3681547  32.4087825  50.4728613  83.0493535  33.5366855
  48.4529992  83.0549978  32.8460014  48.7236174  82.2854408  32.1230570
  48.0361363  82.5853355  33.7369249  47.4259992  83.9779978  32.2370014
  47.1578625  84.7527775  32.9552759  47.8360490  84.4413851  31.3396548
  46.2199992  83.2399978  31.8730014  45.4770657  83.2006338  32.5560824
  46.0419992  82.6289978  30.7070014  46.9929992  82.6639978  29.7840014
  47.8546913  83.1570986  29.9695776  46.8514375  82.1974024  28.8994967
  44.9139992  81.9769978  30.4660014  44.1914208  81.9464670  31.1710180
  44.7819330  81.5135304  29.5783894  48.8589992  84.0489978  35.5920014
  47.7249992  84.3989978  35.9380014  49.5089992  83.0679978  36.2100014
  50.4810787  82.8899428  36.0015375  48.8349992  82.1939978  37.1630014
  47.7547798  82.2574393  37.0318512  49.2709992  80.7449978  36.9350014
  50.3531973  80.7640166  36.8062193  49.0229409  80.1891748  37.8392292
  48.6359992  80.0759978  35.7450014  47.4749992  80.5769978  35.1820014
  47.0256650  81.4717768  35.6127785  46.8849992  79.9629978  34.0920014
  45.9697602  80.3654936  33.6579086  47.4619992  78.8279978  33.5570014
  46.8859992  78.2089978  32.4730014  46.0884008  78.6489424  32.1698757
  48.6179992  78.3129978  34.1010014  49.0774545  77.4195657  33.6781771
  49.1949992  78.9369978  35.1900014  50.1076887  78.5337981  35.6287817
  49.0629992  82.5249978  38.6310014  48.1649992  82.2929978  39.4470014
  50.2219992  83.0679978  38.9970014  50.9009566  83.3279067  38.2958855
  50.5789992  83.2359978  40.4010014  49.8028668  82.8257665  41.0470880
  51.8849992  82.4859978  40.6690014  52.6715617  82.7502212  39.9621742
  52.2076567  82.7338730  41.6802136  51.7449992  80.9939978  40.6170014
  50.5349992  80.3849978  40.8950014  49.6759854  80.9999020  41.1634935
  50.4089992  79.0119978  40.8350014  49.4561548  78.5412607  41.0770649
  51.4849992  78.2379978  40.4700014  51.3855796  77.1536503  40.4209486
  52.6899992  78.8339978  40.1660014  53.5462847  78.2244684  39.8772988
  52.8099992  80.2049978  40.2280014  53.7551634  80.6816630  39.9680879
  50.7109992  84.6829978  40.8490014  51.2759992  84.9229978  41.9240014
  50.2879992  85.6409978  40.0090014  49.9491036  85.3383903  39.1069605
  50.3619992  87.0829978  40.2770014  51.3969606  87.4238663  40.2493830
  49.5719992  87.8319978  39.2030014  49.9068069  87.4530621  38.2373873
  48.5209049  87.5815229  39.3463994  49.7419992  89.3379978  39.2410014
  49.3276601  89.7081915  40.1787544  50.8071203  89.5658858  39.1999371
  49.0369992  90.0079978  38.0780014  47.9867666  89.7162897  38.0820955
  49.1135935  91.0895062  38.1901278  49.6229992  89.6279978  36.7960014
  49.1736636  88.8805718  36.2865397  50.7009992  90.1999978  36.2650014
  51.3219992  91.1809978  36.9040014  50.9750202  91.4959396  37.7987177
  52.1393847  91.6091657  36.4933278  51.1589992  89.7899978  35.0910014
  50.6875883  89.0428777  34.6014268  51.9773642  90.2265243  34.6912239
  49.8839992  87.5039978  41.6690014  50.4559992  88.4209978  42.2690014
  48.8769992  86.8279978  42.2170014  48.5114355  86.0132981  41.7450620
  48.2419992  87.2499978  43.4590014  48.5111487  88.2814335  43.6865938
  46.7219992  87.1609978  43.3200014  46.2584022  87.6005490  44.2031616
  46.4134269  87.7159368  42.4340410  46.3139992  85.8079978  43.1960014
  45.3587023  85.7684807  43.1097115  48.6779992  86.4379978  44.6710014
  48.2139992  86.7109978  45.7810014  49.5379992  85.4669978  44.4910014
  49.8914867  85.2852282  43.5625049  49.9659992  84.5979978  45.5730014
  49.1405113  84.3998099  46.2566610  50.4369992  83.2739978  44.9810014
  51.2698921  83.4550258  44.3015770  50.7608786  82.6113207  45.7835357
  49.1069992  82.4349978  44.0960014  51.0759992  85.2389978  46.4190014
  51.7689992  86.1419978  45.9420014  51.1699992  84.8559978  47.7040014
  50.1699992  84.0669978  48.4550014  50.2035752  83.0302584  48.1201221
  49.1764142  84.4757009  48.2710187  50.5979992  84.2249978  49.8850014
  50.3890570  83.3017764  50.4254683  50.0398229  85.0446028  50.3375368
  52.0379992  84.5199978  49.8630014  52.6512421  83.6231666  49.7751047
  52.3394400  85.0803451  50.7480122  52.2039992  85.3879978  48.6140014
  51.9335863  86.4241169  48.8175508  53.6329992  85.3309978  48.0840014
  54.0959992  84.2969978  47.5990014  54.3129992  86.4799978  48.1540014
  53.8492366  87.3060815  48.5041577  55.6949992  86.6039978  47.6920014
  55.8099629  86.2442283  46.6695297  56.1269992  88.0809978  47.7680014
  56.0905042  88.4017392  48.8091035  57.5369992  88.2689978  47.2290014
  57.5741742  87.9488819  46.1877308  57.8146215  89.3209629  47.2953043
  58.2339795  87.6720516  47.8171960  55.1549992  88.9689978  46.9990014
  55.3423515  88.8222975  45.9352915  54.1440729  88.6390077  47.2382375
  55.2999992  90.4379978  47.3390014  56.3106024  90.7688487  47.0995881
  54.5815576  91.0181409  46.7598858  55.1123259  90.5855586  48.4025354
  56.6359992  85.7269978  48.5130014  57.5429992  85.0859978  47.9700014
  56.4159992  85.6559978  49.8210014  55.6418842  86.1656653  50.2223546
  57.2849992  84.9039978  50.7150014  57.7916426  84.1221116  50.1492580
  58.3419992  85.8019978  51.3630014  59.0517309  85.1768509  51.9048238
  58.8658166  86.3512140  50.5806479  57.7399992  86.7169978  52.2590014
  58.4175132  87.2702719  52.6545547  56.4409992  84.2279978  51.7820014
  55.2309992  84.4429978  51.8770014  57.0929992  83.3929978  52.5910014
  58.0840980  83.2380726  52.4734400  56.4089992  82.6869978  53.6550014
  56.9660038  82.8828781  54.5712307  55.4141671  83.1252829  53.7344658
  56.2749992  81.1939978  53.4710014  55.6929992  80.5359978  54.3400014
  56.7849992  80.6309978  52.3800014  57.1746974  81.1946308  51.6380091
  56.7179992  79.1879978  52.1890014  55.8554532  78.7725981  52.7101124
  56.5769992  78.8909978  50.6990014  57.3660127  79.4055727  50.1505767
  56.6615345  77.8168940  50.5339111  55.2429992  79.3659978  50.2160014
  54.4895954  78.6882417  50.6174116  55.0851600  80.3652690  50.6217674
  55.1299992  79.4099978  48.7260014  55.8674124  80.0962452  48.3096057
  55.2805948  78.4161403  48.3044951  53.7989992  79.8759978  48.3590014
  53.0993246  79.1731894  48.1676507  53.4529992  81.1539978  48.2720014
  54.3389992  82.1089978  48.5160014  55.2850265  81.8629790  48.7701807
  54.0640729  83.0783814  48.4466421  52.2169992  81.4769978  47.9290014
  51.5435250  80.7496796  47.7352472  51.9524247  82.4494526  47.8624377
  57.9389992  78.5139978  52.8000014  57.7889992  77.5849978  53.6010014
  59.1349992  78.8959978  52.3450014  59.1912539  79.5950588  51.6181944
  60.3769992  78.3099978  52.8390014  60.3756807  77.2304987  52.6880741
  61.5799992  78.9029978  52.1100014  61.6001032  79.9825232  52.2594031
  62.4967756  78.4649696  52.5046564  61.5033270  78.6855280  51.0446717
  60.4899992  78.5619978  54.3370014  60.0519992  79.6099978  54.8230014
  60.9979992  77.5659978  55.0750014  61.2465646  76.6855124  54.6471463
  61.1429992  77.6979978  56.5240014  60.1935609  77.9366659  57.0032756
  61.6769992  76.3889978  57.1190014  62.6030970  76.1200562  56.6109537
  61.9419992  76.5499978  58.5940014  61.0162019  76.8185078  59.1028261
  62.3203642  75.6119528  59.0002181  62.6813466  77.3361329  58.7471642
  60.6859992  75.2689978  56.8840014  60.5318794  75.1383117  55.8128944
  61.0744894  74.3440373  57.3101740  59.7370665  75.5170715  57.3594875
  62.0539992  78.8669978  56.8620014  63.1899992  78.9559978  56.3840014
  61.5539992  79.7729978  57.6950014  60.6298186  79.6548484  58.0849119
  62.2919992  80.9759978  58.0280014  63.3592861  80.7546564  58.0255899
  62.0229992  82.0999978  57.0230014  60.9390900  82.1912237  56.9528734
  62.4356132  83.0070413  57.4647275  62.6159992  81.8999978  55.6080014
  63.6942586  81.7902567  55.7238227  62.1976136  80.9747192  55.2118765
  62.3199992  83.0539978  54.6350014  61.2483330  83.1771029  54.4785546
  62.7449440  83.9926716  54.9905474  62.9609992  82.7019978  53.3220014
  63.4438311  81.8182658  53.2446032  62.8989992  83.4929978  52.2430014
  63.5029992  83.0829978  51.1300014  63.9889530  82.1976503  51.1195774
  63.4725900  83.6591198  50.3009910  62.2369992  84.6459978  52.2480014
  61.7606707  84.9476769  53.0859758  62.2134733  85.2149072  51.4138028
  61.9199992  81.4229978  59.4290014  60.9089992  80.9989978  59.9930014
  62.7699992  82.2749978  59.9850014  63.6025890  82.5521814  59.4849385
  62.5589992  82.8069978  61.3150014  62.3581649  81.9925590  62.0110288
  63.7969992  83.5609978  61.7910014  64.1290139  84.2053746  60.9769719
  63.5121609  84.1741424  62.6459990  64.9179992  82.6359978  62.1880014
  64.6129992  81.5189978  62.6460014  66.0969992  83.0219978  62.0470014
  61.3499992  83.7429978  61.3220014  60.9809992  84.2959978  60.2840014
  60.7049992  83.9159978  62.4760014  60.7329992  83.0549978  63.6680014
  61.7647114  82.8181281  63.9279303  60.1878415  82.1322311  63.4694981
  60.0629992  83.9009978  64.6970014  60.8000284  84.5398237  65.1836107
  59.5864673  83.2640764  65.4422194  59.0669992  84.6909978  63.9710014
  58.9622155  85.6320408  64.5109621  58.0877263  84.2253591  63.8600748
  59.6859992  84.9489978  62.5850014  58.9672645  84.8362195  61.7733366
  60.3359992  86.3189978  62.4980014  61.5209992  86.4779978  62.8330014
  59.6019992  87.3399978  62.0390014  58.1689992  87.3489978  61.6950014
  57.5921200  86.9531223  62.5308203  58.0029057  86.7293971  60.8137484
  57.8879992  88.7929978  61.4370014  57.5552841  89.2691386  62.3593299
  57.1080449  88.8822097  60.6808177  59.1639992  89.3789978  60.9540014
  59.2289692  90.4482629  61.1553721  59.2945441  89.2022756  59.8863747
  60.2449992  88.6339978  61.7430014  61.1171333  88.4096050  61.1288937
  60.6729992  89.4459978  62.9500014  61.2959992  90.4979978  62.7660014
  60.3679992  89.0189978  64.1630014  59.8177858  88.1785708  64.2681058
  60.7929992  89.7109978  65.3540014  61.2029965  88.9721039  66.0425050
  61.5745344  90.4161014  65.0709272  59.6849992  90.4589978  66.0420014
  59.8269992  90.8039978  67.2190014  58.5869992  90.7339978  65.3360014
  58.5286157  90.5508540  64.3444627  57.4519992  91.3649978  65.9880014
  57.7955407  92.2021440  66.5956730  56.4599992  91.8879978  64.9540014
  56.9563754  92.6347759  64.3342979  56.1310649  91.0580817  64.3285884
  55.3379992  92.4729978  65.5900014  54.7255688  92.7959769  64.9250102
  56.7709992  90.3859978  66.9240014  56.1179992  90.8039978  67.8850014
  56.9189992  89.0939978  66.6550014  57.3362828  88.8211146  65.7766459
  56.4139992  88.0519978  67.5300014  55.8813160  88.4683545  68.3849838
  55.4819992  87.0869978  66.7630014  54.8601530  87.6752129  66.0881602
  56.2639992  86.0649978  65.9660014  56.8857782  85.4760471  66.6402629
  55.5722595  85.4057820  65.4415671  56.8978816  86.5761730  65.2414380
  54.5109992  86.3869978  67.7150014  53.9678899  85.6388596  67.1375742
  55.1048856  85.8916230  68.4831175  53.5259992  87.3309978  68.3700014
  52.9313931  87.8264331  67.6024812  52.8677794  86.7682305  69.0319220
  54.0683894  88.0791983  68.9480230  57.5559992  87.2989978  68.2130014
  57.3219992  86.6599978  69.2500014  58.7819992  87.3819978  67.6930014
  58.9554553  87.9272350  66.8606982  59.8939992  86.6479978  68.2820014
  59.5687090  85.6562715  68.5962693  61.0029992  86.4919978  67.2490014
  60.5174391  85.9742746  66.4217813  61.2880175  87.4951589  66.9319327
  62.2459992  85.7209978  67.6700014  62.6816396  86.1896189  68.5524484
  61.8739992  84.2979978  67.9900014  61.4386863  83.8285439  67.1078368
  62.7654472  83.7478106  68.2911914  61.1480986  84.2857183  68.8030315
  63.2849992  85.7719978  66.5700014  63.5563877  86.8092506  66.3736487
  64.1707908  85.2176898  66.8801902  62.8769201  85.3258238  65.6630841
  60.4199992  87.3509978  69.5240014  60.7609992  86.6999978  70.5190014
  60.4799992  88.6799978  69.4790014  60.2666037  89.1762676  68.6256094
  60.9739992  89.4449978  70.6190014  61.9232030  89.0316198  70.9599267
  61.1919992  90.9109978  70.2220014  60.2951487  91.2258724  69.6885107
  61.2855970  91.4843053  71.1443127  62.4019992  91.1519978  69.3560014
  63.4069992  90.2009978  69.2500014  63.3078548  89.2666727  69.8025469
  64.5179992  90.4219978  68.4620014  65.3017953  89.6683795  68.3856797
  64.6319992  91.6079978  67.7680014  65.7359992  91.8319978  66.9810014
  66.3575962  91.1004655  66.9897984  63.6489992  92.5689978  67.8570014
  63.7399502  93.5062628  67.3080363  62.5439992  92.3379978  68.6480014
  61.7620313  93.0933457  68.7259489  60.1019992  89.3459978  71.8690014
  60.6839992  89.2799978  72.9650014  58.7519992  89.3329978  71.8140014
  57.8079992  89.8589978  70.8050014  57.6215339  89.0933064  70.0519759
  58.2421341  90.7381076  70.3287748  56.5939992  90.1859978  71.6000014
  55.7099271  90.1223164  70.9656040  56.6788457  91.1948544  72.0038712
  56.5529992  89.2079978  72.6610014  56.1149069  88.2738154  72.3096080
  55.9946804  89.5681223  73.5251137  58.0209992  88.9839978  73.0430014
  58.3391260  89.6801584  73.8190517  58.2589992  87.5649978  73.5110014
  58.3549992  87.3379978  74.7230014  58.4139992  86.6089978  72.5910014
  58.2651038  86.7897346  71.6085231  58.7359992  85.2489978  73.0020014
  58.0448289  84.9276900  73.7811959  58.6229992  84.2869978  71.8230014
  59.0499126  84.7661725  70.9419590  59.1491679  83.3526743  72.0186695
  57.2149992  83.9199978  71.4710014  56.1699992  84.2109978  72.3320014
  56.3811361  84.7236569  73.2704586  54.8739992  83.8599978  72.0140014
  54.0569849  84.1026512  72.6934921  54.6139992  83.1989978  70.8300014
  53.5917876  82.9191244  70.5753367  55.6469992  82.8929978  69.9700014
  55.4437874  82.3705233  69.0352151  56.9389992  83.2489978  70.2940014
  57.7580879  83.0016942  69.6186981  60.1179992  85.1289978  73.6240014
  60.3639992  84.1669978  74.3540014  61.0029992  86.0909978  73.3940014
  60.8422583  86.7866653  72.6796427  62.2739992  86.1149978  74.1090014
  62.5819340  85.1102780  74.3985067  63.3639992  86.7509978  73.2230014
  63.0097654  87.7207433  72.8734124  64.6539992  86.9339978  73.9980014
  65.0091192  85.9645595  74.3475436  65.4065962  87.3842339  73.3507102
  64.4751179  87.5849637  74.8537725  63.6139992  85.8949978  71.9860014
  64.0869627  84.9715472  72.3201351  62.6427114  85.6669505  71.5470325
  64.4839992  86.5589978  70.9580014  65.4556896  86.7869457  71.3961308
  64.6173249  85.8904018  70.1075293  64.0114390  87.4823507  70.6230297
  62.1449992  86.8419978  75.4430014  62.5839992  86.3409978  76.4810014
  61.5129992  88.0159978  75.4500014  61.0362973  88.3650967  74.6308650
  61.5649992  88.8659978  76.6350014  62.4823836  88.7463764  77.2113658
  61.3779992  90.3579978  76.3130014  61.4596244  90.9311676  77.2365343
  62.4379992  90.8329978  75.3250014  62.3566953  90.2605639  74.4009830
  62.2875755  91.8910915  75.1107330  63.4284888  90.6873466  75.7560673
  59.9599992  90.6489978  75.8370014  59.2504003  90.3715327  76.6164785
  59.8607703  91.7120955  75.6177374  59.7530655  90.0718146  74.9358140
  60.5499992  88.4819978  77.7000014  60.6779992  88.9379978  78.8410014
  59.5429992  87.6729978  77.3870014  59.3263241  87.4197042  76.4335899
  58.6219992  87.2549978  78.4410014  58.4169745  88.0943618  79.1054802
  57.2889992  86.7579978  77.8500014  57.5049375  86.0948582  77.0123167
  56.4759992  86.0129978  78.8860014  56.2592600  86.6756757  79.7238458
  55.5408811  85.6742853  78.4399876  57.0413363  85.1515665  79.2415739
  56.4839992  87.9369978  77.3530014  57.0475143  88.4635750  76.5827616
  55.5412722  87.5837104  76.9352056  56.2819276  88.6150604  78.1821571
  59.2509992  86.2349978  79.3950014  59.2029992  86.4949978  80.6090014
  59.8619992  85.1079978  78.9730014  60.0689992  84.5159978  77.6350014
  60.4742787  85.2760425  76.9670337  59.1123523  84.1654027  77.2476920
  61.0219992  83.4049978  77.8790014  62.0427570  83.7759189  77.7864257
  60.8547331  82.6160984  77.1456794  60.7549992  82.9359978  79.2030014
  61.6333482  82.4584979  79.6372777  59.9168875  82.2393442  79.2214975
  60.4029992  84.1979978  79.9960014  59.6027396  84.0078876  80.7112223
  61.6199992  84.7379978  80.7300014  61.8839992  84.2709978  81.8390014
  62.3129992  85.7479978  80.1930014  62.1537182  86.0255916  79.2350502
  63.3509992  86.4449978  80.9540014  64.0900035  85.7580616  81.3664217
  64.0549992  87.4769978  80.0580014  63.3005908  88.1010967  79.5789723
  64.9889992  88.3509978  80.8770014  65.7440183  87.7276115  81.3559966
  65.4769052  89.0742319  80.2235636  64.4172999  88.8792544  81.6400244
  64.8029992  86.7919978  78.9280014  64.0994144  86.1527805  78.3946438
  65.1767168  87.5622452  78.2533507  65.9239992  85.9839978  79.4150014
  65.5509845  85.2131866  80.0893974  66.4278806  85.5141901  78.5703219
  66.6282862  86.6226516  79.9481066  62.7639992  87.1269978  82.1800014
  63.2429992  86.9449978  83.3100014  61.6859992  87.8829978  81.9760014
  61.3395404  88.0472853  81.0416165  61.0109992  88.5369978  83.0870014
  61.7279201  89.0844989  83.6988561  59.9759992  89.5189978  82.5540014
  59.4538419  89.9786706  83.3931396  60.6519992  90.5939978  81.7310014
  61.1740166  90.1350978  80.8913538  59.9020937  91.2901280  81.3553106
  61.3675072  91.1321943  82.3526874  59.0339992  88.8149978  81.7390014
  58.3798374  89.4310711  81.4011756  60.3469992  87.5419978  84.0190014
  60.2969992  87.7809978  85.2310014  59.8809992  86.4119978  83.4850014
  59.8476571  86.2805559  82.4841465  59.3059992  85.3789978  84.3370014
  58.5688934  85.8208435  85.0074837  58.6119992  84.3049978  83.4830014
  59.3065278  83.9618312  82.7162120  58.1879992  83.1379978  84.3340014
  57.4930517  83.4803250  85.1007876  57.6993151  82.3905093  83.7090621
  59.0641694  82.6969105  84.8092587  57.3919992  84.8939978  82.8270014
  57.6879470  85.7278253  82.1904100  56.9006454  84.1321090  82.2218598
  56.7026831  85.2491952  83.5930164  60.3629992  84.7819978  85.2600014
  60.1359992  84.6449978  86.4670014  61.5439992  84.4629978  84.7190014
  61.7018317  84.5376455  83.7242070  62.6269992  83.9489978  85.5560014
  62.2795233  83.0889279  86.1283994  63.8039992  83.5199978  84.7040014
  64.6416665  83.2497223  85.3469361  63.4199992  82.3699978  83.8990014
  62.5826259  82.6396574  83.2554261  64.2642741  82.0579636  83.2842384
  63.1250811  81.5498296  84.5535608  64.1869992  84.6079978  83.8560014
  64.9329066  84.3430985  83.3128156  63.1069992  84.9579978  86.5800014
  63.3939992  84.5879978  87.7230014  63.1859992  86.2339978  86.2020014
  63.0267795  86.5252543  85.2481052  63.6189992  87.2369978  87.1680014
  64.5231506  86.8987353  87.6741517  63.9189992  88.5529978  86.4640014
  63.0546138  88.7546069  85.8313159  64.0457734  89.3687067  87.1757931
  65.1709992  88.4369978  85.5940014  65.0337127  87.6139060  84.8927361
  65.4219992  89.7189978  84.8250014  65.5598525  90.5425166  85.5256527
  66.3184045  89.6077735  84.2149297  64.5684791  89.9298442  84.1806819
  66.3789992  88.0679978  86.4360014  66.2019699  87.1108209  86.9264833
  67.2583621  87.9908626  85.7965702  66.5452913  88.8369761  87.1904008
  62.6049992  87.4239978  88.2910014  62.9909992  87.4989978  89.4650014
  61.3059992  87.4429978  87.9720014  60.9775941  87.3969877  87.0179928
  60.3249992  87.6489978  89.0320014  60.6795987  88.4257797  89.7094734
  58.9729992  88.0809978  88.4570014  58.4670290  88.3286676  89.3901429
  59.2317863  88.9992510  87.9298009  58.0449992  87.2359978  87.5830014
  58.6675640  86.5834665  86.9708603  57.0699992  86.3909978  88.3970014
  56.4467350  87.0429054  89.0090938  56.4379515  85.8135165  87.7223669
  57.6276782  85.7119558  89.0419794  57.2819992  88.1559978  86.6480014
  57.9860532  88.7011056  86.0193004  56.6163311  87.5648826  86.0190579
  56.6947802  88.8637712  87.2330909  60.1859992  86.4109978  89.9130014
  60.0419992  86.5349978  91.1330014  60.2719992  85.2129978  89.3300014
  60.3172767  85.1202541  88.3252886  60.1809992  83.9989978  90.1330014
  59.3663935  84.0913594  90.8513231  59.8999992  82.7879978  89.2230014
  60.6248757  82.7981160  88.4090291  60.0029992  81.4809978  89.9720014
  59.2780541  81.4699467  90.7859015  59.7973203  80.6545800  89.2916852
  61.0080858  81.3736107  90.3798870  58.5019992  82.8979978  88.6660014
  58.4119721  83.8176859  88.0879261  58.2988636  82.0428864  88.0213155
  57.7838295  82.9130000  89.4858234  61.4329992  83.8239978  90.9850014
  61.3519992  83.3989978  92.1450014  62.5989992  84.2089978  90.4590014
  62.6593225  84.5038977  89.4948985  63.8249992  84.1619978  91.2450014
  63.9666453  83.1730446  91.6808994  65.0099992  84.4679978  90.3360014
  64.8857268  85.4688877  89.9226297  66.3089992  84.3979978  91.1020014
  66.4342013  83.3971980  91.5153097  67.1391935  84.6201185  90.4315247
  66.2928394  85.1260632  91.9130256  65.0449992  83.5159978  89.2690014
  65.7904226  83.7062353  88.6947593  63.7799992  85.1379978  92.4140014
  64.1409992  84.7769978  93.5420014  63.2889992  86.3589978  92.1760014
  63.0557927  86.6521622  91.2380416  63.1359992  87.3229978  93.2600014
  64.0889807  87.4089568  93.7820519  62.7629992  88.6919978  92.6970014
  61.8063236  88.6240563  92.1790673  62.6840183  89.4113895  93.5120707
  63.5319379  89.0194629  91.9972877  62.0949992  86.8729978  94.2760014
  62.2629992  87.1079978  95.4790014  61.0529992  86.1819978  93.8180014
  60.9263247  86.0402072  92.8260597  60.0419992  85.6549978  94.7260014
  59.6914097  86.4397434  95.3963450  58.8559992  85.1339978  93.9240014
  58.4962367  86.0108387  93.3856519  59.2207159  84.3947626  93.2108303
  57.7179992  84.5359978  94.7360014  58.1011366  83.7195296  95.3481177
  57.1159992  85.5959978  95.6300014  56.7322045  86.4126404  95.0185317
  56.3009884  85.1629289  96.2099233  57.8801210  85.9778170  96.3070779
  56.6759992  83.9379978  93.8150014  57.1319873  83.1544804  93.2097951
  55.8665478  83.5131324  94.4086165  56.2781149  84.7151846  93.1624927
  60.6039992  84.5509978  95.6070014  60.2989992  84.4929978  96.8010014
  61.4469992  83.6879978  95.0470014  61.6151731  83.6942458  94.0511210
  62.0469992  82.6229978  95.8430014  61.2881703  82.1653775  96.4777150
  62.6279992  81.5429978  94.9150014  63.2622381  82.0352545  94.1777608
  63.4409992  80.5129978  95.6730014  62.8072742  80.0199601  96.4101631
  63.8303306  79.7715424  94.9753157  64.2710031  81.0055764  96.1795204
  61.4839992  80.8419978  94.2410014  60.9059110  81.5624575  93.6623357
  61.8712552  80.0698633  93.5762153  60.8431537  80.3840558  94.9944647
  63.0699992  83.1859978  96.8290014  63.1669992  82.7129978  97.9680014
  63.8029992  84.2329978  96.4370014  63.7867753  84.5651647  95.4833236
  64.7309992  84.8669978  97.3780014  65.3534522  84.1213710  97.8726651
  65.6449992  85.8559978  96.6360014  65.0241644  86.5221318  96.0368947
  66.4699992  86.6739978  97.6090014  67.0914820  86.0085378  98.2081868
  67.1065086  87.3644087  97.0555675  65.8062528  87.2382521  98.2641041
  66.5669992  85.1099978  95.7080014  65.9775518  84.5522807  94.9802615
  67.2104447  85.8189292  95.1869507  67.1813045  84.4180477  96.2841394
  63.9759992  85.5439978  98.5220014  64.3479992  85.4019978  99.6990014
  62.8579992  86.2089978  98.2130014  62.5541231  86.3221192  97.2564649
  62.0669992  86.8319978  99.2680014  62.7123544  87.4242064  99.9167733
  61.0119992  87.7499978  98.6610014  61.5162806  88.5582480  98.1313494
  60.3505488  87.2228539  97.9734677  60.1429992  88.3879978  99.6810014
  60.5029992  89.3399978 100.5840014  61.5366922  89.6842458 100.5512616
  59.4309992  89.6709978 101.3740014  59.4334966  90.3599984 102.1124941
  58.3549992  88.9139978 100.9970014  57.0569992  88.8869978 101.4970014
  56.8025966  89.5526646 102.3217837  56.1759992  88.0189978 100.9160014
  55.1497498  87.9718952 101.2802726  56.5599992  87.1849978  99.8600014
  55.8499912  86.4948361  99.4042989  57.8479992  87.2109978  99.3640014
  58.0937075  86.5521989  98.5311076  58.7699992  88.0879978  99.9370014
  61.3929992  85.7909978 100.1500014  61.2099992  86.0229978 101.3500014
  61.0169992  84.6519978  99.5750014  61.0832895  84.5302961  98.5745547
  60.4429992  83.5739978 100.3640014  59.6406308  83.9585170 100.9936434
  59.8709992  82.5049978  99.4470014  59.2351477  83.0023767  98.7146038
  60.7059221  82.0252313  98.9362884  59.0759992  81.4739978 100.1770014
  58.7566936  80.6983345  99.4809475  59.7038088  81.0314170 100.9503573
  57.8539992  82.0679978 100.8300014  57.8099992  82.2509978 102.0450014
  56.8529992  82.3849978 100.0230014  56.0085213  82.7866851 100.4045847
  56.9386592  82.2236177  99.0296635  61.4869992  82.9839978 101.2990014
  61.1929992  82.6679978 102.4550014  62.7139992  82.8249978 100.8040014
  62.9045537  83.0894511  99.8480449  63.7829992  82.2139978 101.5760014
  63.4099477  81.3277271 102.0892810  64.9279992  81.7999978 100.6590014
  65.2512175  82.6658311 100.0811070  65.7576290  81.4394289 101.2671169
  64.5089992  80.7749978  99.7780014  65.2395102  80.5249610  99.2075323
  64.2939992  83.1349978 102.6730014  64.8749992  82.6489978 103.6460014
  64.0879992  84.4489978 102.5430014  63.6836459  84.8556752 101.7116103
  64.4789992  85.3419978 103.6310014  65.4858359  85.0875265 103.9620958
  64.4659992  86.8029978 103.1870014  63.4939221  86.9649391 102.7212329
  64.5333634  87.3934287 104.1007594  65.5599992  87.2269978 102.2310014
  66.5328160  87.0012641 102.6677767  65.4506686  86.6874497 101.2902376
  65.4549992  88.7259978 101.9720014  64.4572126  88.9329790 101.5851170
  65.5903695  89.2433117 102.9218228  66.4929992  89.2129978 100.9790014
  67.4815785  88.9770168 101.3728601  66.3417402  88.6843724 100.0378452
  66.3889992  90.6809978 100.7460014  66.5295569  91.1710375 101.6178984
  67.0937689  90.9671585 100.0815379  65.4731796  90.8998219 100.3806392
  63.5539992  85.2069978 104.8310014  63.9509992  85.5649978 105.9440014
  62.3389992  84.7099978 104.6310014  62.0573326  84.4615775 103.6934244
  61.3749992  84.5389978 105.7100014  61.3466685  85.4360416 106.3285555
  59.9789992  84.2959978 105.1380014  59.7242235  85.1649172 104.5312332
  60.0415754  83.4140662 104.5005213  58.9109992  84.0839978 106.1880014
  59.2059199  83.2452678 106.8186001  58.8373880  84.9861801 106.7952498
  57.5669992  83.7909978 105.5550014  57.6807835  82.9658736 104.8519210
  56.8632956  83.5066273 106.3373275  57.0309992  84.9419978 104.8410014
  57.5241240  85.8188404 104.9308594  55.9429992  84.9019978 104.0810014
  55.2739992  83.7659978 103.9390014  55.5946665  82.9323348 104.4104656
  54.4468390  83.7396038 103.3600291  55.5209992  85.9979978 103.4680014
  56.0293232  86.8634548 103.5806560  54.6928952  85.9630599 102.8908344
  61.7629992  83.3769978 106.6160014  62.8129992  82.7359978 106.3400014
  61.0149992  83.1139978 107.5950014  64.6179992  60.6819978  49.3030014
  65.0294752  60.8535908  48.3967209  63.6274407  60.5239134  49.1850882
  65.1829844  60.0029737  49.7927131  64.7219992  61.9069978  50.0870014
  63.7285104  62.2489535  50.3770798  65.5429992  61.6529978  51.3570014
  65.5933503  62.6023782  51.8901440  64.9816040  60.9323110  51.9515987
  66.9579992  61.1259978  51.1210014  67.2329457  60.5200151  51.9843034
  66.9591866  60.5039704  50.2259134  67.9919992  62.2239978  50.9500014
  67.8549992  63.3139978  51.5070014  69.0239992  61.9469978  50.1640014
  69.7419785  62.6415162  50.0148326  69.0870468  61.0428434  49.7183209
  65.3319992  63.0349978  49.2690014  65.4979992  64.1509978  49.7560014
  65.6949992  62.7159978  48.0250014  65.7141747  61.7518210  47.7248437
  66.1339992  63.7409978  47.0860014  66.9299810  64.3404568  47.5277719
  66.6679992  63.0799978  45.8160014  67.4723855  62.4526147  46.1999968
  65.8706540  62.4483511  45.4243857  67.2069992  63.9709978  44.6980014
  66.4189235  64.6515478  44.3756830  68.3959992  64.7709978  45.1850014
  69.1847212  64.0910842  45.5070789  68.7672623  65.4000887  44.3759841
  68.0934933  65.3987620  46.0231558  67.5739992  63.1389978  43.4850014
  66.6901485  62.6136402  43.1231911  67.9559744  63.7904515  42.6989961
  68.3401202  62.4138480  43.7594378  65.0079992  64.7109978  46.7540014
  65.2639992  65.8919978  46.4830014  63.7619992  64.2249978  46.7550014
  63.5975673  63.2367506  46.8831770  62.6129992  65.0969978  46.5730014
  62.6980533  65.5385829  45.5800928  61.7226994  64.4696093  46.6160045
  62.4839992  66.2079978  47.5980014  61.8939992  67.2449978  47.3020014
  63.0249992  66.0109978  48.8050014  63.3338378  65.0905372  49.0833364
  63.1139992  67.0979978  49.7820014  62.1508912  67.5715176  49.9725299
  63.6759992  66.5739978  51.1140014  64.6610701  66.1413864  50.9391240
  63.7919992  67.7069978  52.1210014  62.8071825  68.1398352  52.2967533
  64.1911929  67.3207817  53.0588618  64.4609108  68.4738761  51.7304165
  62.8089992  65.4509978  51.6450014  62.7876737  64.6350606  50.9225793
  63.2187864  65.0898239  52.5882551  61.7958041  65.8189132  51.8067877
  63.9609992  68.2379978  49.2330014  63.5529992  69.4099978  49.2590014
  65.1839992  67.9089978  48.8060014  65.5147237  66.9703323  48.9781283
  66.0869992  68.8519978  48.1550014  66.3744831  69.6568046  48.8315650
  67.3499992  68.1129978  47.7100014  67.0645563  67.3162308  47.0231354
  68.3139992  69.0499978  47.0210014  68.6002757  69.8468285  47.7074461
  69.2026298  68.4976699  46.7154385  67.8356603  69.4825566  46.1422607
  67.9869992  67.5259978  48.8500014  68.7796455  67.0622914  48.5702006
  65.4229992  69.5419978  46.9700014  65.5079992  70.7679978  46.8230014
  64.7919992  68.7459978  46.0990014  64.8889134  67.7452962  46.1954548
  64.0139992  69.2619978  44.9730014  64.6653062  69.7968035  44.2817118
  63.3529992  68.1079978  44.2260014  62.7423973  67.5666471  44.9486382
  62.7093368  68.5468487  43.4636310  64.3239992  67.1559978  43.5760014
  65.0415814  66.8209853  44.3249629  63.7713334  66.2978284  43.1936302
  65.0589992  67.8279978  42.4400014  64.3351540  68.2388468  41.7361902
  65.6762136  68.6337157  42.8374492  65.9179992  66.8879978  41.7310014
  65.8713281  65.9176671  42.0073698  66.7489992  67.2289978  40.7530014
  66.8349992  68.4939978  40.3690014  66.2673349  69.1958079  40.8221238
  67.4678299  68.7507663  39.6248946  67.4939992  66.3049978  40.1600014
  67.4272099  65.3412560  40.4546893  68.1244662  66.5696289  39.4166438
  62.9579992  70.2709978  45.4030014  62.8359992  71.3419978  44.8040014
  62.1579992  69.9259978  46.4150014  62.2378548  69.0225443  46.8594045
  61.1099992  70.8289978  46.8700014  60.5153013  71.1686412  46.0220180
  60.1909992  70.1089978  47.8530014  60.7949983  69.6518450  48.6367716
  59.5164691  70.8418780  48.2957156  59.3669992  69.0339978  47.1910014
  58.8609992  69.2139978  46.0860014  59.2319992  67.8979978  47.8620014
  58.6904544  67.1427390  47.4665105  59.6713595  67.7933805  48.7653942
  61.6709992  72.0819978  47.5200014  61.0739992  73.1539978  47.3890014
  62.8779992  72.0059978  48.0800014  63.3710765  71.1302349  48.1800684
  63.4989992  73.2139978  48.6120014  62.7662569  73.7836761  49.1835385
  64.6639992  72.8589978  49.5300014  65.2815810  72.1447799  48.9854055
  65.2265829  73.7792513  49.6872694  64.2769992  72.2739978  50.8620014
  63.6040377  72.9573464  51.3799381  63.7765482  71.3176882  50.7099398
  65.5239992  72.0639978  51.6970014  66.1866416  71.3925873  51.1509135
  66.0115119  73.0305390  51.8243951  65.2149992  71.4729978  53.0540014
  64.5544324  72.1527878  53.5921814  64.7144459  70.5147272  52.9152102
  66.4639992  71.2709978  53.8380014  66.9277552  72.1588978  53.9670897
  66.2356649  70.8762525  54.7391893  67.0760534  70.6407822  53.3396872
  63.9839992  74.1129978  47.4910014  63.7939992  75.3359978  47.5400014
  64.5829992  73.5169978  46.4610014  64.7606491  72.5228807  46.4774625
  65.0859992  74.2899978  45.3330014  65.6810249  75.1245545  45.7038906
  65.9549992  73.4049978  44.4260014  65.3842590  72.5179650  44.1511766
  66.3619992  74.1469978  43.1780014  66.9332181  75.0339720  43.4520205
  66.9762292  73.4985935  42.5531862  65.4711766  74.4455602  42.6253762
  67.2079992  72.9779978  45.1740014  67.8427160  73.8579855  45.2781989
  66.8987200  72.6347762  46.1612424  67.9719992  71.8909978  44.4850014
  68.2820353  72.2336700  43.4978068  68.8531266  71.6360854  45.0738422
  67.3380380  71.0104610  44.3808482  63.9329992  74.9309978  44.5780014
  63.9899992  76.1119978  44.2210014  62.8749992  74.1589978  44.3160014
  62.8840120  73.1745681  44.5416477  61.7019992  74.7029978  43.6410014
  62.0021389  75.2015795  42.7193552  60.7249992  73.5839978  43.2940014
  60.5129660  73.0544364  44.2228211  59.8148456  74.0636497  42.9339257
  61.2229992  72.5989978  42.2530014  62.1001430  72.1012030  42.6664262
  60.4325496  71.8661439  42.0910861  61.6589992  73.3559978  40.6800014
  63.4439992  73.2159978  40.7060014  63.7256097  72.1651404  40.7730319
  63.8559171  73.6444333  39.7922906  63.8385654  73.7530806  41.5685331
  60.9979992  75.7629978  44.4770014  60.4969992  76.7479978  43.9270014
  60.9289992  75.5749978  45.8000014  61.2220113  74.7016977  46.2142358
  60.3729992  76.6019978  46.6730014  59.3684369  76.8600713  46.3378123
  60.2879992  76.0619978  48.0970014  61.2974223  75.9115844  48.4798083
  59.5509992  77.0339978  48.9890014  58.5412699  77.1845671  48.6070653
  59.4999650  76.6322824  50.0009892  60.0794094  77.9872449  49.0032613
  59.5669992  74.8269978  48.0880014  59.5106956  74.4828217  48.9824135
  61.1909992  77.8839978  46.6400014  60.6239992  78.9869978  46.5870014
  62.5089992  77.7609978  46.4960014  62.9729343  76.8646752  46.4576685
  63.3249992  78.9619978  46.4400014  62.9490985  79.6867262  47.1621971
  64.7719992  78.6319978  46.7890014  65.1652787  77.9141680  46.0691740
  65.3705756  79.5423923  46.7575620  64.8161124  78.2031715  47.7901314
  63.2539992  79.6019978  45.0720014  63.2999992  80.8319978  44.9700014
  63.0739992  78.7869978  44.0330014  63.1112266  77.7852080  44.1560080
  62.8789992  79.3099978  42.6900014  63.6875519  79.9951792  42.4353090
  62.8719992  78.1699978  41.6820014  63.7865928  77.5957176  41.8297179
  62.0092921  77.5416026  41.9032611  62.7989992  78.6349978  40.2600014
  61.8293993  79.1069585  40.1011619  63.5906494  79.3606654  40.0734576
  62.9469992  77.5009978  39.2840014  63.0609992  76.3429978  39.6740014
  62.9599992  77.8279978  38.0050014  63.0569119  77.1076579  37.3037028
  62.8729699  78.7969897  37.7337413  61.5839992  80.0989978  42.6470014
  61.5309992  81.1919978  42.0700014  60.5099992  79.4829978  43.1510014
  60.6226662  78.5491743  43.5189405  59.1809992  80.0729978  43.1630014
  58.8271573  80.2268670  42.1435804  58.2139992  79.1379978  43.8780014
  58.1651875  78.2147478  43.3006575  58.6301537  78.9281701  44.8633378
  56.8349992  79.7059978  44.0290014  55.9769992  79.7519978  42.9570014
  56.3168624  79.3656598  41.9960980  54.7149992  80.2709978  43.0790014
  54.0476669  80.2992877  42.2176251  54.2939992  80.7519978  44.2840014
  53.0249992  81.2669978  44.3900014  52.5370574  81.2351894  43.5638655
  55.1289992  80.7219978  45.3730014  54.7957751  81.1115842  46.3349186
  56.3909992  80.1969978  45.2450014  57.0571687  80.1630332  46.1070715
  59.2159992  81.4269978  43.8480014  58.7319992  82.4239978  43.3030014
  59.7439992  81.4459978  45.0800014  59.9922231  80.5729870  45.5231001
  59.8769992  82.6779978  45.8540014  58.8986586  83.1382593  45.9922337
  60.4719992  82.3749978  47.2270014  61.3490995  81.7424298  47.0904292
  60.7716731  83.3161728  47.6879627  59.4709992  81.6659978  48.1270014
  58.5792682  82.2892698  48.1936988  59.2183188  80.7215535  47.6450505
  60.0019992  81.3959978  49.5170014  61.2059992  81.6319978  49.7500014
  59.2129992  80.9559978  50.3820014  60.6869992  83.7259978  45.0980014
  60.3209992  84.9109978  45.0890014  61.8299992  83.3119978  44.5260014
  62.1355741  82.3601260  44.6697490  62.6789992  84.1999978  43.7360014
  63.0654410  85.0017893  44.3652013  63.8579992  83.4239978  43.1560014
  64.4477405  82.9978835  43.9676239  63.4871089  82.6223306  42.5173544
  64.9339992  84.4489978  42.1410014  61.8949992  84.8599978  42.6150014
  61.9709992  86.0759978  42.4260014  61.1889992  84.0549978  41.8230014
  61.2009405  83.0553327  41.9666204  60.4659992  84.5789978  40.6710014
  61.1121721  85.2370407  40.0900200  60.0149992  83.4349978  39.7830014
  59.6187362  82.6225996  40.3921680  59.2224520  83.8333859  39.1495539
  61.1289992  82.9169978  38.9230014  62.1939992  83.7369978  38.5770014
  62.2015923  84.7676692  38.9316257  63.2289992  83.2689978  37.8000014
  64.0513851  83.9250976  37.5148413  63.2149992  81.9629978  37.3780014
  64.2449992  81.4879978  36.6060014  64.9146306  82.1515157  36.4245146
  62.1819992  81.1269978  37.7280014  62.1826052  80.0882652  37.3976461
  61.1469992  81.6029978  38.4960014  60.3268646  80.9417016  38.7755843
  59.3019992  85.4599978  41.0940014  58.9589992  86.4079978  40.3780014
  58.6779992  85.1449978  42.2370014  58.8573104  84.2617944  42.6929605
  57.6789992  86.0329978  42.8190014  56.8758009  86.2012595  42.1016036
  57.0819992  85.4219978  44.0860014  57.9180865  85.0900695  44.7015345
  56.5470920  86.2202518  44.6005546  56.1419992  84.2599978  43.8430014
  56.6905284  83.4820578  43.3119404  55.7910607  83.8689651  44.7980080
  54.9459992  84.6559978  43.0160014  54.8069992  84.2399978  41.8680014
  54.0789992  85.4789978  43.5890014  53.2588472  85.7774210  43.0806750
  54.2425866  85.8038161  44.5312507  58.2859992  87.3939978  43.1160014
  57.7079992  88.4309978  42.7730014  59.4539992  87.4059978  43.7580014
  59.9326761  86.5498900  43.9989312  60.0459992  88.6699978  44.1770014
  59.2992886  89.2929476  44.6693996  61.1809992  88.3979978  45.1620014
  60.7579963  87.8143152  45.9796091  61.9222081  87.7983315  44.6336931
  61.8419992  89.6409978  45.7190014  62.2569317  90.2143123  44.8900006
  61.0855299  90.2369658  46.2295681  62.9489992  89.2879978  46.6930014
  62.5342021  88.6730761  47.4916964  63.7186582  88.7254936  46.1645003
  63.5589992  90.5439978  47.2870014  62.7606454  91.1497259  47.7157499
  64.2565917  90.2543117  48.0728423  64.2799992  91.3349978  46.2500014
  63.6336796  91.6038936  45.5219453  64.6748470  92.1631119  46.6724021
  65.0200873  90.7740432  45.8528885  60.5569992  89.4629978  42.9770014
  60.4499992  90.6969978  42.9560014  61.1469992  88.7709978  41.9950014
  61.4389736  87.8225746  42.1830008  61.4769992  89.3539978  40.6920014
  62.1513071  90.2062940  40.7756632  62.1099992  88.2859978  39.7770014
  61.5454622  87.3608375  39.8930906  62.0989992  88.7059978  38.3160014
  62.6637717  89.6309046  38.1990393  62.5544737  87.9235400  37.7090388
  61.0708547  88.8651214  37.9908897  63.5289992  87.9609978  40.2380014
  64.1270271  88.8642026  40.1168215  63.4774693  87.6990551  41.2948033
  64.1649992  86.8319978  39.4720014  64.2173014  87.0934189  38.4151082
  65.1711434  86.6556149  39.8523463  63.5677418  85.9282714  39.5930883
  60.2569992  89.9979978  40.0470014  60.3279992  91.1209978  39.5280014
  59.1179992  89.2969978  40.0790014  59.1037352  88.3659628  40.4702426
  57.8869992  89.8209978  39.4940014  58.0601461  90.1308541  38.4634150
  56.8149992  88.7329978  39.5030014  57.2210668  87.8892747  38.9450232
  56.6714188  88.4440671  40.5441564  55.4859992  89.1399978  38.9050014
  55.0639923  89.9509665  39.4985845  55.6477733  89.4842090  37.8835075
  54.3339992  87.7579978  38.8880014  54.0449992  87.5619978  40.6400014
  53.6231844  88.4821389  41.0443672  53.3477010  86.7404413  40.8040766
  54.9875323  87.3436543  41.1420561  57.4079992  91.0649978  40.2320014
  56.9309992  92.0209978  39.6120014  57.5409992  91.0759978  41.5510014
  57.9525958  90.2866401  42.0280780  57.0419992  92.1799978  42.3510014
  56.1786834  92.6328884  41.8634821  56.6179992  91.6809978  43.7270014
  57.4884308  91.2239983  44.1977450  56.3014696  92.5451373  44.3111008
  55.4879992  90.6709978  43.6660014  55.7892747  89.8468539  43.0193789
  55.3035923  90.2941213  44.6720135  54.2049992  91.2619978  43.1290014
  53.8569992  92.4019978  43.4350014  53.4919992  90.4899978  42.3210014
  52.6254683  90.8345043  41.9330054  53.8185689  89.5608493  42.0970895
  58.0849992  93.2869978  42.4750014  59.1539992  93.2149978  41.8720014
  73.3039992  98.4779978  34.7550014  74.1700437  98.7087647  34.2893696
  73.3319992  97.4679978  35.8050014  74.3431677  97.3747185  36.2011537
  72.3899992  97.8599978  36.9520014  72.5366069  97.0671553  37.6854905
  72.7459908  98.8047448  37.3628825  70.9219992  97.9759978  36.6240014
  70.3839992  99.1799978  36.1910014  71.0425133 100.0407100  36.0742395
  69.0349992  99.2979978  35.9090014  68.6248209 100.2450945  35.5584826
  68.2059992  98.2059978  36.0760014  66.8629992  98.3159978  35.7970014
  66.6132095  99.1922902  35.4948152  68.7139992  97.0039978  36.5190014
  68.0603427  96.1413924  36.6484053  70.0639992  96.8969978  36.8000014
  70.4714524  95.9546507  37.1661488  72.9879992  96.0869978  35.2440014
  72.3089992  95.9819978  34.2240014  73.4629992  95.0309978  35.9050014
  74.1869195  95.1422224  36.6004638  72.9809992  93.6849978  35.6180014
  72.9079113  93.5464593  34.5393150  73.9319992  92.6289978  36.1830014
  74.2772237  92.9404404  37.1688629  73.4095861  91.6759416  36.2658776
  75.3969992  92.2539978  35.2050014  71.5909992  93.4429978  36.1870014
  71.2489992  93.9159978  37.2740014  70.7989992  92.6859978  35.4330014
  71.1659831  92.2972723  34.5760798  69.4099992  92.4189978  35.7720014
  68.9778470  93.2904285  36.2638879  68.5959992  92.1139978  34.5150014
  69.0635137  91.2820031  33.9883952  67.5859154  91.8330299  34.8131420
  68.5109992  93.2989978  33.5710014  69.0259992  93.2569978  32.4540014
  67.8569992  94.3639978  34.0180014  67.7692670  95.1817526  33.4317592
  67.4500880  94.3517378  34.9423248  69.3359992  91.2469978  36.7380014
  70.1509992  90.3219978  36.6530014  68.4349992  91.3589978  37.7300014
  68.0262554  92.2735607  37.8588526  68.0729992  90.2969978  38.6730014
  68.8737791  90.1482541  39.3973812  66.7949992  90.6879978  39.4280014
  66.5878445  89.8854331  40.1358687  67.0181639  91.6046579  39.9739244
  65.5789992  90.9089978  38.5430014  65.8562391  91.6182865  37.7631627
  65.3171907  89.9536677  38.0881358  64.3879992  91.4449978  39.3130014
  63.5147173  91.4327116  38.6608306  64.2076563  90.8000659  40.1730239
  64.5979992  92.8079978  39.7870014  65.4556411  93.2690225  39.5186619
  63.7249992  93.4769978  40.5330014  63.9949992  94.7139978  40.9260014
  64.8667519  95.1471978  40.6567708  63.3277037  95.2175071  41.4928300
  62.5739992  92.9139978  40.8730014  62.3632517  91.9759976  40.5634193
  61.9131219  93.4256517  41.4400553  67.9139992  88.9399978  37.9900014
  67.4259992  88.8749978  36.8550014  68.2519992  87.8519978  38.6820014
  68.6056466  87.9110288  39.6262197  68.1399992  86.5349978  38.0670014
  67.1939525  86.4529471  37.5318730  69.2859992  86.2739978  37.0800014
  69.2537817  87.0324505  36.2978174  70.6339992  86.3279978  37.7830014
  70.6671423  85.5694657  38.5650693  71.4286539  86.1397494  37.0610696
  70.7734324  87.3135256  38.2272919  69.1099992  84.9849978  36.4810014
  69.8255843  84.8189544  35.8629659  68.1479992  85.4219978  39.0990014
  68.5809992  85.5939978  40.2410014  67.6259992  84.2819978  38.6650014
  67.0880054  84.3121774  37.8107467  67.7689992  83.0059978  39.3440014
  68.0277409  83.1643957  40.3909313  66.4529992  82.2359978  39.2780014
  65.7224789  82.7611271  39.8933701  66.0924535  82.1852893  38.2506089
  66.5049992  80.8429978  39.7780014  66.5209992  79.7139978  39.0250014
  66.5105063  79.8471452  37.9432152  66.5479992  78.6079978  39.8280014
  66.5556612  77.6490324  39.5111007  66.5529992  79.0129978  41.1350014
  66.5769992  78.2649978  42.3030014  66.6009310  77.1779865  42.2259802
  66.5689992  78.9459978  43.4850014  66.5863054  78.3914471  44.4232306
  66.5389992  80.3449978  43.5240014  66.5386857  80.8792902  44.4740704
  66.5089992  81.0879978  42.3640014  66.4847575  82.1746548  42.4457919
  66.5179992  80.4179978  41.1400014  68.8789992  82.2349978  38.6480014
  68.8379992  82.0579978  37.4280014  69.8609992  81.7739978  39.4110014
  69.8633823  81.9430939  40.4067425  71.0139992  81.1079978  38.8210014
  71.0497801  81.3181956  37.7520600  72.3239992  81.6019978  39.4640014
  73.1426810  81.1387862  38.9132797  72.3618004  82.6829560  39.3290920
  72.4579992  81.2679978  40.9560014  71.5509992  80.6799978  41.5800014
  73.5169992  81.6139978  41.5230014  70.9259992  79.5929978  38.8860014
  71.8289992  78.9129978  38.3950014  69.8869992  79.0519978  39.5210014
  69.1825174  79.6626814  39.9094216  69.7199992  77.6209978  39.6810014
  68.7865188  77.3248576  39.2024469  70.5540041  77.1174389  39.1921624
  69.6799992  77.2079978  41.1360014  68.9789992  76.2559978  41.4890014
  70.4089992  77.9189978  41.9800014  70.9931455  78.6439182  41.5883857
  70.4669992  77.6869978  43.4110014  69.7447818  76.9215381  43.6948545
  71.8619992  77.2119978  43.8070014  72.6350175  77.7829660  43.2926695
  71.9896539  77.3170619  44.8843899  72.1029992  75.8019978  43.4920014
  71.1709992  74.8639978  43.2020014  70.1299683  75.1870307  43.2040449
  71.7739992  73.6599978  42.9590014  71.3009473  72.7979148  42.7284930
  73.1279992  73.8159978  43.0780014  74.1529992  72.8969978  42.9210014
  73.8968064  71.8689665  42.6648462  75.4289992  73.3429978  43.0990014
  76.2616913  72.6497025  42.9804031  75.6969992  74.6719978  43.4310014
  76.7210064  75.0166039  43.5750687  74.6819992  75.5839978  43.5860014
  74.9432856  76.6107138  43.8422911  73.3679992  75.1569978  43.4100014
  70.1029992  78.8869978  44.2620014  69.5259992  78.7019978  45.3280014
  70.3909992  80.1089978  43.8370014  70.8637521  80.2915341  42.9633398
  70.0229992  81.2399978  44.6700014  69.2870949  80.9252092  45.4099015
  71.2439992  81.7979978  45.4020014  71.9214416  82.0403402  44.5831967
  70.9149945  82.7180441  45.8850861  71.9689992  80.9209978  46.4190014
  72.1924884  79.9550230  45.9661813  73.2589992  81.5869978  46.8490014
  73.0362700  82.5528917  47.3023662  73.7704974  80.9548262  47.5748316
  73.9002105  81.7334057  45.9797988  71.0789992  80.6529978  47.6160014
  70.1734599  80.1419778  47.2889596  71.6108889  80.0262559  48.3318150
  70.8116181  81.5977306  48.0893790  69.4129992  82.3519978  43.8400014
  69.7029992  82.5079978  42.6550014  68.5889992  83.1499978  44.4970014
  68.3126509  82.9447903  45.4465386  68.0279992  84.3199978  43.8570014
  67.8639360  84.1195365  42.7982297  66.6949992  84.6869978  44.4950014
  66.1094383  83.7826043  44.6601981  66.8726454  85.1835017  45.4489542
  65.7229992  85.7699978  43.4640014  69.0069992  85.4749978  43.9690014
  69.6169992  85.6929978  45.0180014  69.1589992  86.2119978  42.8800014
  68.7112512  85.9224213  42.0222331  69.9859992  87.4049978  42.8560014
  70.3361114  87.6329926  43.8627482  71.1949992  87.1939978  41.9570014
  70.8781946  86.9115058  40.9530431  71.8104293  88.0920723  41.9040089
  72.0739992  86.1059978  42.4460014  72.0589992  84.8049978  42.0500014
  71.3267816  84.5318492  41.2901680  73.0139992  84.0919978  42.7270014
  73.2022216  83.1058546  42.6165777  73.6689992  84.9349978  43.5830014
  74.7059992  84.6809978  44.4730014  75.0997496  83.6667204  44.5385810
  75.1689992  85.7289978  45.2150014  75.9815467  85.5682788  45.9235464
  74.6239992  87.0099978  45.0880014  75.0036663  87.8390599  45.6851685
  73.5929992  87.2649978  44.2070014  73.2042373  88.2813446  44.1437235
  73.0989992  86.2129978  43.4350014  69.1699992  88.5929978  42.3770014
  68.3839992  88.4799978  41.4320014  69.3559992  89.7229978  43.0440014
  69.9777411  89.7015117  43.8396614  68.6839992  90.9709978  42.7290014
  67.6944218  90.7602671  42.3235038  68.5259992  91.8359978  43.9750014
  69.4758423  91.8564777  44.5093029  68.2590796  92.8480113  43.6705632
  67.4619992  91.3169978  44.9050014  66.3949992  90.8889978  44.4650014
  67.7409992  91.3519978  46.1990014  67.0628769  91.0162089  46.8679526
  68.6306354  91.7143197  46.5110451  69.4619992  91.7219978  41.6580014
  70.5149992  91.2709978  41.1980014  68.8749992  92.8289978  41.1950014
  67.9128380  93.0344107  41.4233667  69.5949992  93.7599978  40.3360014
  69.8744507  93.2671718  39.4048040  68.7119992  94.9629978  40.0060014
  68.3674888  95.4028171  40.9419346  69.3306588  95.6843875  39.4721876
  67.5209992  94.5949978  39.1550014  67.6369992  93.6579978  38.3410014
  66.4609992  95.2389978  39.3100014  70.8599992  94.2269978  41.0430014
  70.8509992  94.5069978  42.2440014  71.9429992  94.3479978  40.2800014
  71.8710398  94.0991273  39.3037921  73.2359992  94.8049978  40.7850014
  73.1258901  95.4421473  41.6625068  74.1489992  93.5909978  41.1600014
  74.1819983  92.9251815  40.2976216  75.5579992  93.9969978  41.5380014
  75.5258411  94.6625012  42.4006555  76.1383498  93.1084799  41.7866573
  76.0254787  94.5126782  40.6991699  73.6039992  92.7309978  42.3100014
  72.6303654  92.3271016  42.0325002  74.2936113  91.9107661  42.5093876
  73.5007019  93.3439505  43.2053894  73.8739992  95.6399978  39.6820014
  73.7189992  95.3299978  38.4970014  74.5769992  96.7069978  40.0830014
  74.5842322  96.9311274  41.0677923  75.2919992  97.5889978  39.1680014
  74.5798252  98.0269841  38.4686622  75.9739992  98.7169978  39.9410014
  76.6967527  98.2945560  40.6390489  76.4875251  99.3779231  39.2427399
  75.2248914  99.2842745  40.4933908  76.3249992  96.8179978  38.3530014
  76.8549992  95.7979978  38.8030014  76.5029992  97.2529978  37.0990014
  75.8556219  97.9277174  36.7172221  77.5689992  96.7509978  36.2360014
  77.3565188  95.7125571  35.9818519  77.6249992  97.5689978  34.9440014
  77.8460058  98.6096029  35.1814824  78.4053156  97.1713200  34.2951108
  76.6636234  97.5095809  34.4337806  78.9229992  96.7859978  36.9360014
  79.2409992  97.7299978  37.6620014  79.7199992  95.7489978  36.7030014
  79.3828412  94.9537164  36.1795980  81.0889992  95.7239978  37.1880014
  81.6058526  94.9061850  36.6858621  81.5566076  96.6702252  36.9157964
  81.2009992  95.5319978  38.6850014  81.9989992  96.2179978  39.3340014
  80.4239992  94.6129978  39.2550014  79.8565020  94.0086436  38.6781113
  80.3239992  94.4799978  40.7000014  81.1809515  94.9612179  41.1713391
  79.0359992  95.1559978  41.2120014  78.1864305  94.5633814  40.8726801
  79.0029992  95.2669978  42.7330014  79.8520673  95.8599109  43.0730561
  78.0760920  95.7498188  43.0425591  79.0572263  94.2706924  43.1717900
  78.9469992  96.4819978  40.6770014  78.1451069  96.9025565  40.9959049
  80.3539992  92.9959978  41.0430014  79.8419992  92.1639978  40.2940014
  80.9299992  92.6699978  42.1950014  81.4499896  93.3722447  42.7015176
  80.8849992  91.3199978  42.7370014  80.5037515  90.6338377  41.9807385
  82.2779992  90.8579978  43.1570014  82.9374661  91.0049107  42.3016540
  82.5974496  91.5020864  43.9762702  82.3399992  89.4149978  43.5980014
  81.7527845  89.3209007  44.5114703  81.9016930  88.7911272  42.8190455
  83.7579992  88.9669978  43.8630014  84.6719992  89.8069978  43.7410014
  83.9629992  87.7799978  44.1800014  79.9259992  91.2809978  43.9170014
  80.0209992  92.1039978  44.8330014  79.0099992  90.3199978  43.8910014
  78.9849818  89.7197193  43.0791276  78.0229992  90.1089978  44.9330014
  78.0571708  90.9356502  45.6426333  76.6129992  90.0309978  44.3400014
  76.5870324  89.2334948  43.5974290  75.9069384  89.8056682  45.1392540
  76.2569992  91.2569978  43.7280014  75.3716924  91.1873931  43.3633278
  78.3349992  88.8339978  45.7030014  78.9749992  87.9099978  45.1920014
  77.8239992  88.7829978  46.9290014  77.2402947  89.5492206  47.2327958
  78.1009992  87.7129978  47.8710014  78.4150216  86.8166795  47.3361159
  79.2319992  88.1349978  48.8330014  80.1366430  88.1453633  48.2250447
  78.9863785  89.1530107  49.1353595  79.4639992  87.2759978  50.0770014
  79.1128339  86.2630722  49.8801122  80.5308187  87.2533295  50.2994526
  78.5719992  87.9489978  51.5040014  78.8389992  86.7009978  52.7590014
  79.9078941  86.5929581  52.9430942  78.3404052  86.9997462  53.6810937
  78.4315222  85.7492171  52.4181538  76.8129992  87.3959978  48.6120014
  76.0219992  88.2929978  48.9160014  76.6169992  86.1129978  48.8970014
  77.2320788  85.4272362  48.4828668  75.5119992  85.6419978  49.7180014
  75.2085668  86.4151925  50.4238328  74.3119992  85.3009978  48.8160014
  74.2687462  86.1045511  48.0807936  74.5824866  84.3691171  48.3194785
  72.9509992  85.1459978  49.4780014  72.9769669  84.2892181  50.1513178
  72.7284373  86.0483620  50.0474811  71.8519992  84.9309978  48.4660014
  72.1059992  84.8789978  47.2640014  70.6219992  84.8029978  48.9450014
  69.8491821  84.6572528  48.3112716  70.4637247  84.8518468  49.9413268
  76.0099992  84.4529978  50.5310014  77.1159992  83.9619978  50.3190014
  75.2159992  84.0119978  51.5020014  74.3840869  84.5184840  51.7693830
  75.5459992  82.7959978  52.2280014  76.6075872  82.7902762  52.4751802
  74.7439992  82.7119978  53.5220014  73.7024505  82.8148821  53.2175506
  74.8932361  81.7341996  53.9799741  75.0889992  83.8039978  54.5310014
  74.9835427  84.7763057  54.0497560  74.1669992  83.7319978  55.7300014
  74.2722429  82.7600779  56.2120743  74.4286922  84.5183828  56.4379677
  73.1354236  83.8656297  55.4042796  76.5389992  83.6819978  54.9590014
  77.1854956  83.7846089  54.0874437  76.7731386  84.4663490  55.6787744
  76.7018680  82.7072370  55.4187993  75.2479992  81.5979978  51.3440014
  74.2959992  81.6229978  50.5590014  76.1099992  80.5799978  51.4220014
  77.0055327  80.7172970  51.8683959  75.8159992  79.2709978  50.8500014
  75.7609729  79.3504155  49.7642924  76.9069992  78.2589978  51.2120014
  76.9959526  78.1921324  52.2963056  76.6444995  77.2810470  50.8085090
  78.5919992  78.5609978  50.6040014  74.4669992  78.7489978  51.3380014
  74.1369992  78.8899978  52.5210014  73.6739992  78.1389978  50.4650014
  73.8039992  78.1429978  49.0010014  74.7587620  77.6987740  48.7195878
  73.7590833  79.1686695  48.6348332  72.6319992  77.3229978  48.5500014
  72.9454826  76.2871684  48.4200607  72.2634953  77.7123215  47.6009317
  71.6029992  77.4479978  49.6080014  71.0060876  76.5359703  49.6068808
  70.9445900  78.3126383  49.5243731  72.4169992  77.5349978  50.9000014
  71.9597909  78.1764647  51.6533799  72.6579992  76.1559978  51.4890014
  73.7119992  75.5459978  51.3080014  71.6559992  75.6719978  52.2140014
  70.8169078  76.2256536  52.3114193  71.7339992  74.4049978  52.9280014
  72.7726675  74.0972442  53.0486456  71.1129992  74.5749978  54.3090014
  71.0607436  73.5925985  54.7783202  71.7645571  75.2229680  54.8952668
  69.7219992  75.1799978  54.2460014  69.2849992  75.5789978  53.1440014
  69.0609992  75.2589978  55.3000014  71.0569992  73.2659978  52.1770014
  70.5789992  72.3139978  52.8030014  70.9629992  73.3819978  50.8510014
  71.3297768  74.2100266  50.4038528  70.3159992  72.3699978  50.0140014
  69.2778272  72.2372429  50.3184258  70.3429992  72.8149978  48.5590014
  71.3812703  72.8817244  48.2339784  69.8443918  72.0108422  48.0178689
  69.6459992  74.1149978  48.2770014  68.6449992  74.6059978  49.1070014
  68.3417291  74.0204813  49.9749283  68.0419992  75.8069978  48.8470014
  67.2485107  76.1857581  49.4912207  68.4449992  76.5329978  47.7580014
  67.8589992  77.7379978  47.4770014  67.1767583  77.9794830  48.1077406
  69.4399992  76.0679978  46.9390014  69.7532855  76.6553587  46.0758911
  70.0339992  74.8799978  47.2010014  70.8328673  74.5158893  46.5549868
  70.9739992  71.0019978  50.1230014  70.2879992  69.9809978  50.2320014
  72.2949992  70.9639978  50.0920014  72.7956004  71.8387982  50.0270239
  73.0599992  69.7309978  50.0790014  72.4013701  68.8839435  49.8871530
  74.1179992  69.7859978  48.9780014  74.7698787  70.6525807  49.0883942
  74.7158364  68.8752996  49.0143260  73.5359992  69.8609978  47.6030014
  73.1429992  68.7129978  46.9410014  73.2663311  67.7459130  47.4284807
  72.5989992  68.7829978  45.6750014  72.3038597  67.8724268  45.1536054
  72.4289992  70.0109978  45.0690014  71.9972465  70.0676917  44.0697641
  72.8029992  71.1619978  45.7230014  72.6686979  72.1333963  45.2471355
  73.3489992  71.0829978  46.9840014  73.6410104  71.9922728  47.5094046
  73.6949992  69.4749978  51.4350014  73.6369992  70.3009978  52.3470014
  74.3219992  68.3129978  51.5530014  74.3416472  67.6573753  50.7849699
  74.9489992  67.9269978  52.8030014  74.4252743  68.3911281  53.6387014
  74.8989992  66.4129978  52.9770014  75.3377261  65.9667018  52.0845677
  75.5092418  66.1633563  53.8449779  73.5029992  65.8759978  53.1730014
  73.0668328  66.3397404  54.0577627  72.9023037  66.1264532  52.2986222
  73.4869992  64.3789978  53.3560014  74.5229992  63.7239978  53.2660014
  72.3089992  63.8259978  53.6150014  72.2415519  62.8268565  53.7464127
  71.4851870  64.4067461  53.6795483  76.3869992  68.3949978  52.9060014
  76.9129992  68.4879978  54.0180014  77.0289992  68.7059978  51.7880014
  76.5846994  68.5539199  50.8938150  78.4009992  69.1769978  51.8030014
  78.8718561  68.9088673  52.7487810  79.1999992  68.5449978  50.6630014
  80.1911766  68.9984026  50.6725364  79.2876525  67.4769712  50.8623406
  78.5629992  68.7539978  49.3060014  77.4509992  69.3129978  49.2270014
  79.1829992  68.3419978  48.3030014  78.4839992  70.6939978  51.7480014
  79.5779992  71.2419978  51.6070014  77.3539992  71.3819978  51.8470014
  76.4784733  70.8857601  51.9324519  77.3209992  72.8339978  51.7980014
  78.2400477  73.1930174  51.3348017  76.1339992  73.3579978  50.9960014
  75.2939326  72.6979670  51.2122111  75.8662384  74.3825542  51.2542424
  76.3309992  73.3279978  49.5160014  77.5399992  72.9439978  48.9650014
  78.3553412  72.6411063  49.6219444  77.7189992  72.9419978  47.5990014
  78.6662426  72.6125704  47.1720258  76.6989992  73.3569978  46.7730014
  76.8401406  73.3564169  45.6921783  75.5029992  73.7719978  47.3100014
  74.6964679  74.1067204  46.6576456  75.3259992  73.7639978  48.6730014
  74.3836583  74.1043970  49.1022123  77.2619992  73.3919978  53.2100014
  76.3409992  73.0799978  53.9690014  78.2399992  74.2119978  53.5460014
  78.9716906  74.3341871  52.8605842  78.3659992  74.9029978  54.8200014
  77.9879782  74.2676515  55.6209598  79.8289992  75.2389978  55.1120014
  80.4232026  74.3545874  54.8821325  80.1232983  76.0553241  54.4523807
  80.0649992  75.6459978  56.5580014  79.1039992  75.6589978  57.3550014
  81.2239992  75.9589978  56.8990014  77.5119992  76.1629978  54.7750014
  77.8719992  77.1209978  54.0840014  76.3909992  76.2139978  55.5070014
  75.9379992  75.2089978  56.4810014  76.7780343  74.9001451  57.1031360
  75.5402793  74.3427378  55.9523131  74.8849992  75.9369978  57.2570014
  75.3385453  76.4133132  58.1262072  74.1231944  75.2305413  57.5866585
  74.3119992  76.9369978  56.3310014  73.8811789  77.7974969  56.8428942
  73.5512705  76.4675982  55.7072583  75.4939992  77.3839978  55.4660014
  75.2005474  77.4969610  54.4223427  76.0659992  78.7039978  55.9790014
  75.3749992  79.7249978  55.9380014  77.3069992  78.7089978  56.4630014
  77.8117798  77.8354268  56.5095802  77.9509992  79.9069978  56.9830014
  77.2217921  80.7122485  57.0720384  78.5449992  79.6299978  58.3660014
  78.9200708  80.5647739  58.7826719  77.7629095  79.2324285  59.0128200
  79.6049992  78.6939978  58.2770014  79.9642650  78.5332187  59.1526029
  79.0369992  80.4379978  56.0590014  79.6829992  81.4359978  56.3920014
  79.2559992  79.8009978  54.9130014  78.6724038  79.0056065  54.6965104
  80.3259992  80.1399978  53.9930014  81.1022474  80.7115411  54.5018002
  80.9459992  78.8439978  53.4520014  81.0913418  78.2108490  54.3272713
  80.1796104  78.4073795  52.8116011  82.2569992  78.9489978  52.6770014
  82.4727950  77.9620862  52.2676869  82.1084667  79.6558132  51.8606380
  83.4169992  79.4039978  53.5320014  83.3979992  79.1409978  54.7540014
  84.3469992  80.0319978  52.9830014  79.6999992  81.0309978  52.9150014
  78.4909992  81.2589978  52.9170014  80.5029992  81.5659978  51.9960014
  81.4849989  81.3377703  51.9352711  79.9659992  82.5519978  51.0720014
  78.8982125  82.6802535  51.2494305  80.6589992  83.9019978  51.2640014
  80.1375061  84.6203645  50.6314720  80.5308715  84.1796821  52.3102207
  82.1409992  83.9029978  50.9170014  82.6572281  83.2068844  51.5780874
  82.2601898  83.5779463  49.8834458  82.7329992  85.2899978  51.0820014
  83.7214582  85.3064296  50.6228959  82.0870941  86.0092924  50.5784923
  82.8509992  85.6569978  52.5480014  81.8471491  85.7064834  52.9698268
  83.4180379  84.8741766  53.0517447  83.5329992  86.9629978  52.7390014
  83.0074974  87.6885826  52.2726600  83.5917528  87.1709906  53.7256052
  84.4633608  86.9172205  52.3485774  80.0929992  82.1499978  49.6080014
  80.9589992  81.3629978  49.2130014  79.1679992  82.7009978  48.8270014
  78.5127171  83.3133823  49.2914258  79.0129992  82.4819978  47.3970014
  79.7845794  81.8125834  47.0166758  77.6379992  81.8829978  47.0680014
  76.8644086  82.5530715  47.4430456  77.4709992  81.7059978  45.5820014
  78.2440096  81.0356329  45.2062799  76.4892902  81.2802947  45.3743366
  77.5586411  82.6737602  45.0881832  77.4689992  80.5739978  47.7640014
  77.5458567  80.7220508  48.8411622  76.4905922  80.1578803  47.5238649
  78.2469223  79.8844787  47.4361296  79.1869992  83.8319978  46.7240014
  78.5909992  84.8189978  47.1700014  79.9769992  83.8869978  45.6570014
  80.5007446  83.0824518  45.3431610  80.1269992  85.1339978  44.9270014
  79.5122879  85.9093839  45.3841728  81.5799992  85.6029978  44.9220014
  81.6497260  86.5258773  44.3462134  82.0729992  85.8519978  46.3410014
  82.0040046  84.9293869  46.9173073  83.1104057  86.1852793  46.3125351
  81.4579936  86.6198230  46.8103768  82.3979992  84.6029978  44.3000014
  83.3124669  84.8951067  44.2953544  79.6529992  84.9679978  43.4920014
  79.7379992  83.8839978  42.9080014  79.1529992  86.0679978  42.9380014
  79.0111889  86.8803891  43.5211048  78.7569992  86.1449978  41.5380014
  79.2627371  85.3630349  40.9715542  77.2479992  85.9589978  41.3870014
  76.9731300  85.0930454  41.9892245  76.7755671  86.8512948  41.7977495
  76.7819992  85.7519978  39.9670014  76.9793549  86.6575804  39.3933536
  77.3330494  84.9188565  39.5307433  75.2999992  85.4479978  39.9350014
  75.1210943  84.5208994  40.4795935  74.7648813  86.2635590  40.4214254
  74.8079992  85.2999978  38.5140014  73.7237651  85.1883823  38.5228780
  75.0761624  86.1933335  37.9499631  75.4219992  84.1099978  37.8760014
  75.1732807  83.2820530  38.3982525  75.0841260  84.0242733  36.9280600
  76.4266522  84.2134176  37.8672901  79.1999992  87.4939978  40.9910014
  79.0069992  88.5209978  41.6460014  79.7819992  87.5069978  39.7940014
  79.8219706  86.6573517  39.2493886  80.4309992  88.7009978  39.2620014
  80.3771917  89.5272366  39.9708974  81.9039992  88.4039978  38.9320014
  81.9367723  87.5760311  38.2238366  82.5999992  89.6109978  38.3310014
  82.5680370  90.4392903  39.0388225  83.6380335  89.3607817  38.1119638
  82.0946030  89.9011930  37.4098823  82.6389992  87.9479978  40.1910014
  82.7393419  88.8166283  40.8417803  82.0149233  87.1992776  40.6789017
  84.0019992  87.3649978  39.9180014  84.6268364  88.1133386  39.4304929
  84.4637445  87.0634931  40.8582064  83.9024177  86.4959887  39.2676120
  79.6789992  89.2019978  38.0340014  79.3209992  88.4129978  37.1510014
  79.4339992  90.5119978  37.9850014  79.6963272  91.0506958  38.7980745
  78.7969992  91.2059978  36.8720014  78.4453655  90.4768920  36.1420305
  77.6029992  92.0339978  37.3500014  76.7692559  91.3707991  37.5805198
  77.8813901  92.5912289  38.2444801  76.9399992  93.1909978  36.1270014
  79.8539992  92.0929978  36.2290014  80.4509992  92.9319978  36.9120014
  80.0879992  91.9209978  34.9320014  79.5019054  91.3381428  34.3515935
  81.2969992  92.4979978  34.3400014  82.1065619  92.4870230  35.0697870
  81.7359992  91.6839978  33.1040014  82.6769698  92.1195340  32.7678736
  81.9059651  90.6561439  33.4245135  80.7229992  91.6989978  31.9480014
  79.6539992  92.3439978  32.0100014  81.0079992  91.0189978  30.9430014
  81.1459992  93.9839978  33.9950014  80.0439992  94.5309978  34.0410014
  76.8859992  92.3199978  32.2660014  76.1213281  92.9510228  32.0731678
  76.6699992  90.8919978  32.0690014  75.6031525  90.6726049  32.1114740
  77.2059992  90.4469978  30.7100014  78.2316672  90.8005556  30.6046379
  77.1911327  89.3580468  30.6645630  76.3869992  90.9899978  29.5600014
  75.1589992  91.0269978  29.6210014  77.0659992  91.4139978  28.5020014
  76.5711194  91.7867667  27.7043567  78.0746590  91.3620584  28.4990892
  77.3269992  90.0859978  33.1800014  78.4099992  90.4199978  33.6480014
  76.6299992  89.0529978  33.6370014  75.6807668  88.8994619  33.3279968
  77.1789992  88.1619978  34.6470014  77.5531079  88.7422416  35.4904818
  76.1019992  87.2089978  35.1510014  75.6633313  86.6902188  34.2986294
  76.4637855  86.4777479  35.8738322  74.9859992  87.9569978  35.8190014
  73.7539992  88.2209978  35.3000014  73.5497751  87.8351430  34.3012480
  73.0069992  88.9499978  36.1940014  72.0531847  89.2525638  36.0569205
  73.7669992  89.1939978  37.3080014  73.4529992  89.8879978  38.4720014
  72.4604598  90.3286008  38.5659861  74.4209992  89.9729978  39.4330014
  74.2148969  90.5131990  40.3570168  75.6779992  89.3799978  39.2590014
  76.4392662  89.4474599  40.0361893  75.9909992  88.6949978  38.1040014
  76.9850684  88.2564605  38.0167535  75.0219992  88.5879978  37.1040014
  78.3779992  87.4029978  34.0890014  78.4039992  87.0539978  32.9050014
  79.3969992  87.2319978  34.9380014  79.3028001  87.5964007  35.8752508
  80.6529992  86.5789978  34.5710014  81.1653958  87.1572576  33.8021291
  81.5619992  86.4789978  35.7930014  81.8333183  87.4705274  36.1554299
  81.0424480  85.9341919  36.5812610  82.8429992  85.7499978  35.5420014
  83.8619992  86.3419978  34.8230014  83.7223591  87.3498532  34.4320690
  85.0479992  85.6719978  34.5970014  85.8435898  86.1452791  34.0215528
  85.2249992  84.3969978  35.1030014  86.1621989  83.8673261  34.9321078
  84.2149992  83.7959978  35.8240014  84.3474310  82.7880360  36.2171616
  83.0359992  84.4729978  36.0470014  82.2402707  84.0053305  36.6268318
  80.4279992  85.1889978  33.9960014  79.5889992  84.4249978  34.4790014
  81.1779992  84.8699978  32.9500014  81.7116886  85.5880089  32.4812423
  81.2139992  83.5219978  32.4100014  80.4465859  82.9129060  32.8876867
  80.9559992  83.5399978  30.9050014  81.6674762  84.2286077  30.4492425
  81.1278768  82.5342793  30.5214804  79.5479992  83.9739978  30.5670014
  78.8533693  83.2966845  31.0638281  79.4021862  84.9854939  30.9461009
  79.2929992  83.9529978  29.0770014  80.0266084  84.5834854  28.5746051
  79.3800578  82.9308617  28.7085481  77.9579992  84.4499978  28.7650014
  77.8618670  85.4345694  28.5613429  76.8709992  83.6869978  28.7330014
  76.9629992  82.3909978  28.9940014  77.8611615  81.9863930  29.2169353
  76.1345304  81.8138471  28.9687803  75.6919992  84.2199978  28.4410014
  75.6229849  85.2079872  28.2429759  74.8686993  83.6354054  28.4180314
  82.5379992  82.8349978  32.7020014  83.6059992  83.4349978  32.5600014
  82.4509992  81.5709978  33.1000014  81.5468304  81.1539193  33.2691861
  83.6409992  80.7679978  33.3540014  84.3372250  81.3331696  33.9736382
  83.2839992  79.4799978  34.0760014  82.5411075  79.6798832  34.8481782
  82.8906164  78.7426220  33.3762680  84.4509992  78.8409978  34.7600014
  85.3469992  78.0259978  34.1060014  86.2689992  77.6149978  34.9590014
  87.0737955  76.9565568  34.6321110  86.0019992  78.1339978  36.1420014
  86.5354833  77.9926730  36.9878867  84.8719992  78.9059978  36.0440014
  84.4889269  79.4253930  36.9224008  84.3539992  80.4579978  32.0440014
  83.7429992  79.8759978  31.1380014  85.6219992  80.8489978  31.8960014
  86.4859992  81.4199978  32.9420014  86.3516709  80.8644759  33.8701455
  86.2221319  82.4652017  33.1033144  87.8599992  81.2599978  32.3700014
  88.2782907  80.3048639  32.6875710  88.4981827  82.0705388  32.7219198
  87.6949992  81.3169978  30.8860014  88.4848220  80.7905403  30.3501642
  87.6588598  82.3539312  30.5519914  86.3449992  80.6359978  30.6260014
  85.7729693  81.1637996  29.8629121  86.5469992  79.1859978  30.1970014
  86.7489992  78.9469978  29.0000014  86.5129992  78.2139978  31.1130014
  86.4955343  78.4192421  32.1017730  86.5859992  76.8149978  30.6970014
  87.4424432  76.7241368  30.0289093  86.8149992  75.9149978  31.9090014
  85.9615059  75.9882096  32.5830112  86.9292141  74.8824352  31.5790474
  87.7179857  76.2309514  32.4313882  85.3529992  76.3559978  29.9280014
  85.4399992  75.4109978  29.1360014  84.2059992  76.9899978  30.1370014
  84.1628943  77.7895774  30.7525612  82.9699992  76.5139978  29.5380014
  83.1875306  75.7505281  28.7910789  82.0659992  75.9039978  30.6120014
  81.1438955  75.5511195  30.1501564  82.5796484  75.0659339  31.0830783
  81.7599992  76.8789978  31.5900014  81.1931095  76.4920368  32.2611922
  82.1939992  77.5799978  28.7870014  81.2659992  77.2259978  28.0490014
  82.5219992  78.8629978  28.9830014  83.2780812  79.0245524  29.6328780
  81.8169992  80.0279978  28.4310014  82.2071132  80.9409423  28.8809379
  82.0119992  80.1089978  26.9050014  83.0255391  79.7861482  26.6670850
  81.2965389  79.4347400  26.4342649  81.8029992  81.5089978  26.3440014
  81.4989992  82.4459978  27.0780014  81.9719992  81.6519978  25.0340014
  81.8461613  82.5589368  24.6077077  82.2255372  80.8531114  24.4704415
  80.3299992  80.0479978  28.8100014  79.4959992  80.5849978  28.0780014
  79.9629992  79.4589978  29.9450014  80.6228339  78.9179652  30.4853728
  78.5919992  79.5519978  30.4230014  77.9654652  79.9404303  29.6200852
  78.0329992  78.1949978  30.8680014  76.9621001  78.3238950  31.0250357
  78.1979227  77.4947761  30.0491059  78.6669992  77.6509978  32.1330014
  79.7153341  77.4390603  31.9228176  78.5995163  78.4190499  32.9034845
  77.9839992  76.3879978  32.6180014  77.8929934  75.6841534  31.7907047
  78.5770101  75.9376008  33.4139789  76.6499992  76.6769978  33.1350014
  76.4250381  77.6448056  33.3162196  75.7259992  75.7549978  33.3800014
  74.5389992  76.1149978  33.8480014  74.3409720  77.0908756  34.0169625
  73.8381987  75.4117223  34.0334245  75.9859992  74.4739978  33.1600014
  76.8906296  74.1992488  32.8046749  75.2782837  73.7785641  33.3487060
  78.5549992  80.5269978  31.5880014  79.5729992  80.7969978  32.2220014
  77.3549992  81.0019978  31.9050014  76.5551242  80.8175519  31.3165467
  77.1679992  81.8399978  33.0820014  77.9120397  82.6365234  33.0890673
  75.7779992  82.4709978  33.0640014  75.0308858  81.6773666  33.0724411
  75.5779992  83.3659978  34.2720014  76.3245119  84.1601983  34.2639992
  74.5808651  83.8049742  34.2385003  75.6846825  82.7769537  35.1829055
  75.6319992  83.2599978  31.8790014  74.7585157  83.6580387  31.8652074
  77.3649992  81.0089978  34.3410014  76.7839992  79.9289978  34.4770014
  78.1989992  81.4979978  35.2580014  78.4971442  82.4620200  35.2147563
  78.7329992  80.6559978  36.3230014  78.0467400  79.8307093  36.5128601
  80.0899992  80.0819978  35.9400014  79.9764933  79.4949939  35.0286058
  80.8426721  80.8545334  35.7826092  80.6319992  79.1659978  36.9690014
  80.1859992  77.9179978  37.2610014  79.3505831  77.5437832  36.6692725
  80.9199992  77.3809978  38.2830014  80.7923073  76.4601784  38.6778252
  81.8549992  78.2949978  38.6850014  82.8179992  78.2109978  39.6800014
  82.8834072  77.2953547  40.2677243  83.6299992  79.2929978  39.8600014
  84.4036061  79.2617736  40.6272416  83.4939992  80.4449978  39.0820014
  84.1440789  81.3054772  39.2403402  82.5369992  80.5299978  38.0930014
  82.4818582  81.4440776  37.5018006  81.6949992  79.4369978  37.8830014
  78.8559992  81.4699978  37.6000014  79.6699992  82.3929978  37.6840014
  78.0529992  81.1049978  38.5890014  77.2708423  80.5058906  38.3667393
  78.1969992  81.5699978  39.9570014  78.5467425  82.6020698  39.9323784
  76.8419992  81.5309978  40.6570014  76.5805154  80.4909995  40.8522703
  76.8789992  82.2929978  41.9590014  77.1399807  83.3332614  41.7644766
  75.8995349  82.2475946  42.4351184  77.6242479  81.8493221  42.6191960
  75.8729992  82.1729978  39.8230014  75.0159363  82.1537050  40.2550562
  79.2409992  80.6959978  40.6480014  79.3579992  79.5029978  40.3640014
  79.9999992  81.2929978  41.5660014  79.8338334  82.2639100  41.7892003
  81.1079992  80.6079978  42.2320014  81.4523352  79.7629401  41.6358393
  82.2659992  81.5939978  42.3970014  82.4364972  82.0876798  41.4402842
  81.9770543  82.3357289  43.1416127  83.5659992  80.9359978  42.8440014
  83.6409992  79.7279978  43.0320014  84.6029992  81.7469978  43.0120014
  85.4922614  81.3701246  43.3074319  84.4981523  82.7373339  42.8436494
  80.6769992  80.0419978  43.5820014  80.5919992  80.7619978  44.5790014
  80.4049992  78.7349978  43.5990014  80.4806744  78.2232872  42.7315195
  79.9779992  78.0149978  44.7900014  79.6577301  78.7217325  45.5555424
  78.8049992  77.0869978  44.4590014  79.1020928  76.5035304  43.5875656
  78.6818318  76.4235587  45.3150261  77.5049992  77.7839978  44.1750014
  76.6599992  78.1569978  45.2070014  76.9535841  77.9346467  46.2328998
  75.4689992  78.7969978  44.9560014  74.8111836  79.0863730  45.7755394
  75.1129992  79.0729978  43.6610014  73.9289992  79.7159978  43.4010014
  73.4327198  79.9241038  44.1959846  75.9319992  78.7079978  42.6220014
  75.6409355  78.9216256  41.5935339  77.1209992  78.0719978  42.8810014
  77.7770539  77.7869528  42.0585407  81.0969992  77.1839978  45.3990014
  80.8379992  76.4339978  46.3440014  82.3009992  77.2479978  44.8110014
  82.3884946  77.8576340  44.0105093  83.4639992  76.4429978  45.2030014
  83.3013039  75.3829887  45.0080398  84.7009992  76.8949978  44.4360014
  85.5718743  76.3692117  44.8274421  84.5509992  76.5929978  42.9570014
  83.6805380  77.1188445  42.5647232  85.4438983  76.9228074  42.4259119
  84.4206240  75.5200311  42.8161282  84.9059992  78.2969978  44.6440014
  85.6851970  78.5815978  44.1608305  83.7709992  76.4519978  46.6940014
  84.0749992  75.4059978  47.2710014  83.6519992  77.6159978  47.3360014
  83.3656108  78.4399355  46.8268770  83.9929992  77.7589978  48.7520014
  85.0080401  77.4054906  48.9331749  83.9099992  79.2279978  49.1520014
  82.9290380  79.5997136  48.8559581  84.0074961  79.2848317  50.2361436
  84.9759992  80.0649978  48.5100014  84.8581679  80.0029527  47.4281664
  84.8801465  81.1036462  48.8264251  86.3579992  79.5749978  48.8740014
  87.0829992  79.0439978  48.0320014  86.7239992  79.7299978  50.1390014
  87.6374949  79.4205271  50.4387596  86.0876022  80.1568201  50.7969702
  83.1269992  76.9259978  49.6870014  83.5879992  76.5739978  50.7780014
  81.8739992  76.6599978  49.3040014  81.5568131  76.9653760  48.3950259
  80.9159992  75.9899978  50.1840014  80.7754936  76.5685892  51.0970126
  79.5709992  75.8609978  49.4770014  79.6811988  75.2251427  48.5985690
  78.8435862  75.4175422  50.1569406  78.7839992  77.3989978  48.9480014
  81.3959992  74.6129978  50.6430014  81.2979992  74.2789978  51.8270014
  81.9219992  73.7989978  49.7300014  81.9745532  74.0708367  48.7586925
  82.3379992  72.4479978  50.0940014  81.9432079  72.1846316  51.0752645
  81.8019992  71.4469978  49.0660014  82.1936146  70.4601502  49.3127166
  80.7138300  71.4311983  49.1271422  82.2019992  71.7849978  47.6450014
  82.9479992  72.7289978  47.3940014  81.6959992  71.0079978  46.6980014
  81.9253596  71.1822937  45.7299547  81.0833713  70.2451643  46.9487461
  83.8419992  72.2489978  50.2770014  84.2549992  71.1149978  50.5410014
  84.6659992  73.2879978  50.1040014  84.2997436  74.1825006  49.8110494
  86.1209992  73.1379978  50.2260014  86.4321951  72.3144542  49.5833256
  86.8389992  74.4219978  49.7640014  86.2728165  75.2834992  50.1180519
  88.2549992  74.4879978  50.3100014  88.8219709  73.6270035  49.9559776
  88.7349516  75.4044886  49.9667948  88.2255745  74.4799255  51.3995750
  86.9489992  74.4289978  48.2660014  85.9515435  74.3953363  47.8277652
  87.4568555  75.3376570  47.9427055  87.5185349  73.5590838  47.9389242
  86.5269992  72.7449978  51.6430014  87.3039992  71.8039978  51.8470014
  85.9489992  73.3989978  52.6390014  85.2722172  74.1167040  52.4222913
  86.2989992  73.1799978  54.0330014  87.2354299  72.6272988  54.1086353
  86.4729992  74.5349978  54.7260014  86.6271838  74.3580722  55.7904373
  87.3490429  75.0328579  54.3103297  85.2649992  75.4499978  54.5540014
  84.2449992  75.0689978  53.9760014  85.3829992  76.6719978  55.0550014
  84.6165131  77.3245169  54.9724319  86.2388225  76.9446484  55.5168769
  85.2939992  72.3299978  54.7950014  85.4349992  72.1749978  56.0100014
  84.2549992  71.8369978  54.1230014  84.1354569  72.0447232  53.1418495
  83.2269992  71.0509978  54.7930014  82.8269901  71.5950132  55.6486527
  82.0879992  70.7769978  53.8130014  82.4881363  70.2259281  52.9619358
  80.9819992  69.9689978  54.4630014  80.5810258  70.5196698  55.3139305
  80.1871479  69.7915030  53.7385665  81.3815425  69.0140878  54.8044875
  81.5469992  72.0249978  53.3670014  80.8299586  71.8607517  52.7501739
  83.7739992  69.7459978  55.3680014  83.4299992  69.3779978  56.4960014
  84.6489992  69.0569978  54.6230014  84.9375314  69.4075596  53.7208069
  85.1599992  67.7539978  55.0580014  84.3335043  67.0745375  55.2661816
  86.0209992  67.1499978  53.9550014  85.4727506  67.1509664  53.0129177
  86.9429093  67.7198160  53.8388585  86.4229992  65.7349978  54.2140014
  87.5379992  65.3999978  54.9500014  88.1704333  66.0664695  55.3694563
  87.6409992  64.0849978  55.0150014  88.4644207  63.6193788  55.5565502
  86.6319992  63.5539978  54.3490014  85.8549992  64.5639978  53.8380014
  84.9671792  64.3255212  53.2523346  85.9539992  67.8389978  56.3580014
  85.7519992  67.0289978  57.2740014  86.7839992  68.8669978  56.4990014
  86.9185869  69.5391076  55.7572104  87.5899992  68.9979978  57.7030014
  87.9482189  68.0185833  58.0200582  88.7979992  69.8959978  57.4320014
  89.3135448  70.0196029  58.3843847  89.4405834  69.3523075  56.7394796
  88.4709992  71.2609978  56.8530014  89.3217094  71.5730350  56.2471748
  87.5929276  71.1517189  56.2164894  88.1979992  72.3039978  57.9130014
  88.5919992  72.0809978  59.0750014  87.5889992  73.3419978  57.5890014
  86.7659992  69.5189978  58.8680014  87.0819992  69.2249978  60.0260014
  85.6269992  70.1349978  58.5760014  85.3503746  70.2803538  57.6155589
  84.7749992  70.6659978  59.6260014  85.3825632  71.0637394  60.4388771
  83.9129992  71.7909978  59.0670014  84.5851855  72.4665988  58.5380136
  83.2247351  71.3338058  58.3561091  83.1329992  72.5629978  60.0930014
  82.3845546  71.9155587  60.5498975  83.8076367  72.9372994  60.8629785
  82.4449992  73.7289978  59.4150014  83.2091023  74.3500612  58.9475339
  81.7802002  73.3325168  58.6475742  81.6459992  74.5629978  60.3920014
  80.9002447  73.9235202  60.8642503  82.3244337  74.9512430  61.1516669
  80.9649992  75.6979978  59.7080014  80.3359787  75.3384406  59.0043315
  80.4415163  76.2340062  60.3853201  81.6558845  76.2909097  59.2707004
  83.9299992  69.5419978  60.1920014  83.6979992  69.4819978  61.4020014
  83.4949992  68.6269978  59.3270014  83.6035918  68.7589213  58.3315602
  82.7829992  67.4459978  59.7930014  82.0037743  67.7127658  60.5069640
  82.1329992  66.7129978  58.6070014  82.9103929  66.4773756  57.8801999
  81.4479992  65.4319978  59.0480014  80.6701108  65.6668766  59.7745153
  81.0006832  64.9422263  58.1830548  82.1806772  64.7658267  59.5035239
  81.1399992  67.6069978  57.9500014  81.6415786  68.5049750  57.5892283
  80.6807736  67.0856655  57.1101062  80.3696698  67.8857545  58.6690202
  83.7439992  66.5469978  60.5570014  83.3799992  65.9469978  61.5740014
  84.9999992  66.4749978  60.1000014  85.2603867  66.9192154  59.2311122
  86.0109992  65.6979978  60.8100014  85.6511859  64.6849120  60.9896975
  87.2829992  65.6219978  59.9670014  86.9847913  65.2934321  58.9714032
  87.6866652  66.6328739  59.9097013  88.3419992  64.6859978  60.5110014
  88.6775085  65.0668465  61.4756198  87.8963276  63.7003644  60.6451864
  89.5259992  64.5809978  59.5700014  89.1757182  64.2111670  58.6063483
  89.9605432  65.5723980  59.4419519  90.5779992  63.6349978  60.1230014
  90.9037802  64.0141805  61.0916024  90.1215072  62.6536884  60.2524080
  91.7509992  63.5199978  59.2160014  92.1743983  64.4291208  59.0963004
  92.4257597  62.8845289  59.6172214  91.4494053  63.1682500  58.3185531
  86.3099992  66.2869978  62.1850014  86.5909992  65.5429978  63.1310014
  86.2309992  67.6089978  62.3230014  86.0977405  68.2128272  61.5244204
  86.3859992  68.2239978  63.6370014  87.2371563  67.7967509  64.1671815
  86.6159992  69.7249978  63.4740014  85.7682133  70.1515305  62.9378773
  86.7559992  70.4059978  64.8210014  87.6039244  69.9802848  65.3575561
  86.9188119  71.4736639  64.6737592  85.8460745  70.2544284  65.4016600
  87.8059992  69.9419978  62.7100014  87.9522527  70.8851266  62.6064718
  85.1649992  67.9679978  64.5170014  85.3019992  67.6169978  65.7010014
  83.9659992  68.1139978  63.9400014  83.9020965  68.4051452  62.9749890
  82.7289992  67.9269978  64.6890014  82.7694129  68.5549878  65.5789984
  81.5319992  68.3539978  63.8450014  81.4728662  67.7281501  62.9545421
  80.6176612  68.2429515  64.4278864  81.6490332  69.3964039  63.5487045
  82.5609992  66.4899978  65.1520014  81.9449992  66.2529978  66.1950014
  83.1249992  65.5259978  64.4220014  83.5805990  65.7182086  63.5413294
  83.0209992  64.1389978  64.8580014  81.9897431  63.9206345  65.1353593
  83.4389992  63.1839978  63.7480014  84.3400289  63.6283612  63.3251706
  83.6800927  62.2097164  64.1731480  82.3939992  63.0149978  62.6520014
  82.1381402  63.9962598  62.2522991  82.9299992  62.1389978  61.5360014
  83.1856614  61.1573474  61.9348726  82.1699631  62.0295771  60.7623911
  83.8201483  62.5995880  61.1075254  81.1189992  62.4399978  63.2360014
  80.7318062  63.1148174  63.9994146  80.3774998  62.3224879  62.4457665
  81.3294764  61.4685913  63.6834025  83.8489992  63.9069978  66.1090014
  83.3969992  63.2249978  67.0320014  85.0659992  64.4509978  66.1540014
  85.4552505  64.9539647  65.3693951  85.8909992  64.2799978  67.3430014
  85.9252755  63.2264328  67.6203550  87.3139992  64.7609978  67.0790014
  87.2654219  65.7569493  66.6387512  87.8536367  64.8083506  68.0248604
  88.0679992  63.8549978  66.1390014  87.9779992  62.6319978  66.2310014
  88.8259992  64.4499978  65.2280014  89.3536159  63.8920482  64.5719431
  88.8722103  65.4583810  65.1944046  85.3009992  65.0269978  68.5280014
  85.3809992  64.5419978  69.6660014  84.6659992  66.1769978  68.2710014
  84.7102716  66.6170764  67.3629981  83.9319992  66.8569978  69.3350014
  84.5775475  66.9946239  70.2024262  83.4589992  68.2249978  68.8580014
  82.9064232  68.0164495  67.9418865  82.7862483  68.6618431  69.5960207
  84.5849992  69.2009978  68.5590014  85.2522406  68.7476725  67.8259353
  84.0489992  70.5079978  68.0130014  83.3819919  70.9621752  68.7457517
  84.8787904  71.1847536  67.8091657  83.4998970  70.3190729  67.0905620
  85.4009992  69.4209978  69.8040014  85.8215408  68.4717324  70.1358740
  86.2088907  70.1208997  69.5905770  84.7644939  69.8299492  70.5886789
  82.7439992  66.0349978  69.8150014  82.4389992  66.0239978  71.0110014
  82.1129992  65.2899978  68.9110014  82.3668821  65.3418486  67.9348076
  81.0089992  64.4199978  69.2920014  80.2718953  64.9565262  69.8894244
  80.3389992  63.9369978  68.0100014  79.8017803  64.7409475  67.5068514
  81.1265293  63.5621813  67.3562361  79.3689992  62.8239978  68.1890014
  78.1229992  63.0499978  68.7270014  77.8506303  64.0560674  69.0459671
  77.2219992  62.0159978  68.8640014  76.2417695  62.1960005  69.3054190
  77.5649992  60.7499978  68.4400014  76.8517094  59.9326188  68.5458747
  78.8019992  60.5159978  67.8850014  79.0765042  59.5163543  67.5481631
  79.6919992  61.5509978  67.7570014  80.6703608  61.3762820  67.3093599
  81.4889992  63.2509978  70.1400014  80.8439992  62.8869978  71.1340014
  82.6069992  62.6429978  69.7460014  83.0321981  62.8702774  68.8585054
  83.1699992  61.5429978  70.5210014  82.3931769  60.8037844  70.7164744
  84.3129992  60.8629978  69.7720014  84.9199940  61.6626613  69.3475077
  84.9193082  60.2731460  70.4594346  83.8009992  59.9709978  68.6570014
  83.0849992  58.8169978  68.9490014  82.8985026  58.5640068  69.9927035
  82.6109992  57.9939978  67.9420014  82.0283705  57.1051913  68.1842173
  82.8799992  58.3039978  66.6270014  82.4219992  57.4859978  65.6210014
  81.9282062  56.7302744  65.9475748  83.6069992  59.4319978  66.3120014
  83.8151938  59.6823952  65.2717819  84.0729992  60.2479978  67.3260014
  84.6672752  61.1297597  67.0863512  83.5899992  61.9939978  71.9160014
  83.3229992  61.2979978  72.9030014  84.2269992  63.1639978  72.0290014
  84.5300138  63.7055082  71.2321024  84.5859992  63.6349978  73.3620014
  84.9859304  62.8057157  73.9454785  85.6449992  64.7379978  73.2900014
  85.8964623  64.8193555  74.3474732  86.4698909  64.2661034  72.7561761
  85.3989992  66.1339978  72.7160014  84.6207301  66.0504780  71.9574354
  84.9689992  67.1389978  73.7750014  85.7470203  67.2234094  74.5337219
  84.8088074  68.1116479  73.3098227  84.0427764  66.8027152  74.2409689
  86.6509992  66.6219978  72.0170014  86.9065221  65.9373485  71.2082599
  86.4750863  67.6169682  71.6081128  87.4736415  66.6633527  72.7308981
  83.3759992  64.1119978  74.1570014  83.4319992  64.1069978  75.3850014
  82.2879992  64.5079978  73.4900014  82.3275669  64.7066100  72.5005132
  81.0249992  64.7289978  74.1910014  81.1052654  65.3954775  75.0497572
  79.9969992  65.3089978  73.2160014  80.1283086  64.8085134  72.2566405
  78.5619992  65.1249978  73.6920014  78.4297906  65.6256406  74.6511559
  77.8780214  65.5555911  72.9606583  78.3497347  64.0618895  73.8053371
  80.2869992  66.6909978  72.9720014  79.6402511  67.0505270  72.3604003
  80.5119992  63.4449978  74.8230014  80.0819992  63.4429978  75.9860014
  80.5799992  62.3399978  74.0760014  80.8383631  62.3971210  73.1012787
  80.2089992  61.0329978  74.6200014  79.2040911  61.0792745  75.0396648
  80.2539992  59.9649978  73.5160014  81.2553419  59.9504060  73.0856524
  79.9219992  58.5939978  74.0680014  78.9205518  58.6076814  74.4981368
  79.9616357  57.8587851  73.2642652  80.6445699  58.3275860  74.8393739
  79.2689992  60.2919978  72.4070014  78.2598411  60.1861050  72.8051062
  79.4314869  61.3252787  72.1003619  79.4359992  59.3889978  71.2250014
  79.2731933  58.3555130  71.5307842  78.7117520  59.6582776  70.4562013
  80.4448405  59.4946852  70.8260412  81.1129992  60.6569978  75.7890014
  80.6429992  60.1529978  76.8150014  82.4149992  60.9219978  75.6630014
  82.7745368  61.2934812  74.7953424  83.3669992  60.5969978  76.7260014
  83.2254329  59.5725927  77.0704609  84.8079992  60.7709978  76.2130014
  84.8889973  61.7506169  75.7419535  85.8189992  60.6659978  77.3360014
  85.7389148  59.6864069  77.8072643  86.8240097  60.7941297  76.9339604
  85.6226451  61.4417878  78.0760651  85.1239992  59.7219978  75.1500014
  85.1717762  58.7544612  75.6496923  84.3001377  59.7214627  74.4363128
  86.4219992  59.9759978  74.4200014  87.2464375  59.9762158  75.1330241
  86.5826247  59.1920881  73.6798770  86.3747997  60.9432190  73.9196462
  83.1039992  61.4339978  77.9760014  83.1119992  60.9139978  79.1010014
  82.8309992  62.7289978  77.7980014  82.8257537  63.1325940  76.8721602
  82.5339992  63.5939978  78.9290014  83.3676218  63.5319628  79.6285186
  82.4467661  64.6152637  78.5581837  81.2559992  63.2209978  79.6510014
  81.2269992  63.1289978  80.8780014  80.1849992  62.9849978  78.9010014
  80.1744090  63.1570070  77.9058130  78.9459992  62.5719978  79.5430014
  78.7959383  63.1381384  80.4622760  77.7679992  62.8269978  78.6180014
  78.0278093  62.5065895  77.6090731  76.8720073  62.3003221  78.9464997
  77.4049992  64.2709978  78.5270014  76.7579992  64.9319978  79.5450014
  76.4720212  64.5047822  80.4143708  76.5759992  66.1939978  79.2040014
  76.0690561  66.8853977  79.8771091  77.0939992  66.3769978  78.0050014
  77.6199992  65.1899978  77.5590014  78.0972309  65.1388811  76.5803604
  78.9649992  61.1279978  80.0180014  78.0979992  60.7499978  80.8060014
  79.9229992  60.3129978  79.5770014  80.5566267  60.5765160  78.8359388
  80.0709992  59.0009978  80.1730014  79.0775928  58.6079300  80.3891972
  80.5696319  58.3512885  79.4537361  80.8759992  59.0299978  81.4490014
  80.6099992  58.2499978  82.3680014  81.8509992  59.9299978  81.5390014
  82.1319281  60.4871505  80.7447980  82.5849992  60.0859978  82.7850014
  82.7143067  59.1145981  83.2622449  83.9619992  60.6859978  82.5200014
  83.7759195  61.5745627  81.9167386  84.4226830  60.9780966  83.4636904
  84.8979992  59.7479978  81.7670014  84.4173368  59.4374322  80.8393089
  86.2029992  60.4429978  81.4500014  86.6845026  60.7534672  82.3772889
  86.8587262  59.7581399  80.9123281  86.0077994  61.3190822  80.8315569
  85.1369992  58.4919978  82.5810014  84.1876013  57.9861869  82.7567807
  85.8068666  57.8270582  82.0358096  85.5886515  58.7582059  83.5366386
  81.8389992  60.9419978  83.7940014  82.1639992  60.8979978  84.9830014
  80.8469992  61.7159978  83.3540014  80.6399633  61.8144129  82.3703603
  80.0619992  62.4869978  84.3040014  80.7059108  62.8792028  85.0911814
  79.3919992  63.6589978  83.5930014  80.1649066  64.3372073  83.2314141
  78.8212875  63.2753976  82.7472834  78.5289992  64.3529978  84.4660014
  78.1200323  65.0842067  83.9973017  79.0139992  61.6269978  84.9890014
  78.7779992  61.7879978  86.1920014  78.4639992  60.6439978  84.2780014
  78.7019092  60.5089231  83.3057602  77.4319992  59.7979978  84.8600014
  76.7319478  60.3845830  85.4549343  76.6659992  59.0579978  83.7490014
  77.3941760  58.6608307  83.0418117  75.8239992  57.9279978  84.2920014
  75.0952272  58.3244748  84.9989654  75.3025253  57.4358121  83.4710758
  76.4656597  57.2069606  84.7984364  75.7849992  60.0409978  82.9890014
  75.0008228  60.3698839  83.6709120  76.4082119  60.8922985  82.7151536
  75.1599992  59.4579978  81.7500014  74.5362252  58.6068741  82.0231209
  74.5469185  60.2150475  81.2610158  75.9436150  59.1292864  81.0673632
  78.0559992  58.8499978  85.8660014  77.5109992  58.6259978  86.9540014
  79.2319992  58.3129978  85.5340014  79.6799567  58.5546685  84.6616319
  79.8749992  57.3259978  86.3900014  79.1526937  56.5515517  86.6480851
  81.0469992  56.6759978  85.6600014  81.7831288  57.4376778  85.4029861
  81.5084075  55.9286891  86.3055495  80.6877403  56.1967121  84.7493328
  80.3489992  57.9589978  87.6880014  80.4369992  57.2779978  88.7130014
  80.6419992  59.2579978  87.6700014  80.6539012  59.7848237  86.8083680
  81.0079992  59.9409978  88.9010014  81.5739653  59.2710839  89.5483012
  81.8729992  61.1539978  88.5800014  82.7999585  60.8149203  88.1175382
  81.3349004  61.7979722  87.8844105  82.1709992  61.8769978  89.7560014
  82.7155383  62.6362452  89.5355010  79.7839992  60.3709978  89.6980014
  79.7599992  60.2309978  90.9280014  78.7549992  60.8839978  89.0220014
  78.7809304  60.9956948  88.0185321  77.5979992  61.3979978  89.7450014
  77.9183380  61.9720824  90.6144318  76.7979992  62.3069978  88.8320014
  76.6479947  61.8163357  87.8703110  75.8299617  62.5472894  89.2716188
  77.5939992  63.5869978  88.6290014  78.6363133  63.3325072  88.4368642
  77.0499992  64.3539978  87.4750014  76.0077809  64.6092655  87.6666213
  77.6285409  65.2679248  87.3403617  77.1147755  63.7472215  86.5718254
  77.5149992  64.4109978  89.8780014  77.9311788  63.8471260  90.7128323
  78.0827637  65.3316150  89.7430612  76.4735056  64.6545152  90.0879762
  76.7399992  60.2839978  90.3280014  76.0769992  60.4919978  91.3470014
  76.7899992  59.0869978  89.7430014  77.2790184  58.9490620  88.8701135
  76.0739992  57.9549978  90.3210014  75.0624315  58.2605045  90.5883882
  75.9879992  56.7999978  89.3280014  76.8172824  56.9882277  88.6461231
  76.1698757  55.8740444  89.8735572  74.6899992  56.6739978  88.5290014
  74.7891981  55.8707304  87.7989180  73.5409992  56.3609978  89.4730014
  73.4408787  57.1640982  90.2031415  72.6161119  56.2712682  88.9032359
  73.7406862  55.4228002  89.9906990  74.3809992  57.9109978  87.7280014
  75.1906534  58.0996602  87.0230432  73.4495360  57.7667441  87.1805818
  74.2788067  58.7633235  88.3997131  76.7389992  57.5029978  91.6110014
  76.0539992  57.1919978  92.5900014  78.0729992  57.5269978  91.6440014
  78.5953963  57.7013178  90.7973532  78.8139992  57.2229978  92.8640014
  78.4566009  56.3036322  93.3278252  80.3169992  57.0889978  92.5500014
  80.6174769  57.9456543  91.9467160  81.1579992  57.0399978  93.8130014
  80.8583950  56.1832734  94.4166248  82.2105042  56.9453090  93.5458534
  81.0097683  57.9561795  94.3846114  80.5759992  55.8449978  91.7070014
  80.3317815  54.9776806  92.3203686  79.9031725  55.8846001  90.8503596
  81.9989992  55.7329978  91.2230014  82.6724258  55.6928744  92.0791479
  82.1113087  54.8252146  90.6301984  82.2438174  56.5997956  90.6091403
  78.5489992  58.2849978  93.9210014  78.3449992  57.9589978  95.1010014
  78.4969992  59.5569978  93.5150014  78.6661355  59.8021551  92.5499159
  78.2509992  60.6339978  94.4700014  78.9531711  60.5645931  95.3008063
  78.4339992  61.9859978  93.7890014  77.7731634  62.0374052  92.9236966
  78.1706919  62.7745391  94.4939639  79.7719992  62.1569978  93.3700014
  79.8672161  63.0122281  92.9444257  76.8539992  60.5269978  95.0740014
  76.6979992  60.5809978  96.3010014  75.8379992  60.3129978  94.2320014
  75.9985332  60.2755656  93.2355442  74.4679992  60.1869978  94.7170014
  74.2167134  61.0490639  95.3348984  73.4889992  60.1199978  93.5550014
  73.9143328  59.4387533  92.8180506  72.5437339  59.7170258  93.9185767
  73.2479992  61.4719978  92.9130014  74.2072813  61.9141800  92.6440151
  72.4019992  61.3219978  91.6790014  71.4423084  60.8802742  91.9472783
  72.2376573  62.3012044  91.2292827  72.9118932  60.6756237  90.9646422
  72.5599992  62.3449978  93.9290014  73.1959202  62.4509088  94.8079137
  72.3720671  63.3277540  93.4965976  71.6133138  61.8891245  94.2189412
  74.3189992  58.9639978  95.5990014  73.6259992  59.0099978  96.6290014
  74.9549992  57.8579978  95.1990014  75.4964050  57.8447733  94.3464733
  74.8819992  56.6449978  95.9840014  73.8358673  56.3541331  96.0794209
  75.4308924  55.8598729  95.4640067  75.4709992  56.8249978  97.3660014
  74.8719992  56.3899978  98.3470014  76.6699992  57.4239978  97.4620014
  77.2295204  57.6587858  96.6545920  77.2639992  57.5879978  98.7890014
  77.1423505  56.6963872  99.4040878  78.7619992  57.9679978  98.7230014
  79.1505771  58.0644503  99.7368084  79.5429992  56.8989978  97.9820014
  79.1552724  56.8022872  96.9678932  80.5957199  57.1788945  97.9427871
  79.4399073  55.9467025  98.5021984  79.0519992  59.3459978  98.1200014
  79.9580528  59.2501414  97.5216878  78.2128871  59.5949594  97.4703796
  79.2409992  60.4569978  99.1580014  80.0802888  60.2089478  99.8077430
  79.4422340  61.3997898  98.6493295  78.3351232  60.5537642  99.7564367
  76.4329992  58.5559978  99.6350014  76.2779992  58.3399978 100.8440014
  75.8779992  59.6239978  99.0170014  76.0277013  59.8039203  98.0344962
  75.0919992  60.5929978  99.7900014  75.6954289  60.9475925 100.6256057
  74.6589992  61.8019978  98.9500014  74.4866846  61.3852897  97.9576501
  73.7563771  62.3077850  99.2928609  75.7139992  62.8629978  98.7940014
  76.2109992  63.5119978  99.9060014  75.8466080  63.2301289 100.8938622
  77.1589992  64.5079978  99.7780014  77.5803605  64.9767437 100.6672892
  77.5719992  64.9089978  98.5270014  78.3134712  65.7012742  98.4239608
  77.0489992  64.3099978  97.4100014  77.3789124  64.6173659  96.4176394
  76.1019992  63.3149978  97.5450014  75.6468016  62.8720385  96.6591786
  73.8639992  59.9319978 100.4010014  73.5619992  60.1329978 101.5830014
  73.1189992  59.1719978  99.5970014  73.2996505  59.0990423  98.6059707
  71.9519992  58.4869978 100.1390014  71.3637669  59.1820241 100.7381845
  71.0729992  57.9469978  99.0160014  71.7026086  57.5271075  98.2315377
  70.3983861  57.1772041  99.3907209  70.2159992  58.9879978  98.3660014
  69.0449992  59.4039978  98.9720014  68.7574644  58.9678035  99.9286404
  68.2429992  60.3599978  98.3800014  67.3252223  60.6842406  98.8705652
  68.6049992  60.9039978  97.1670014  67.9744665  61.6572840  96.6946791
  69.7689992  60.4929978  96.5500014  70.0596801  60.9206924  95.5904796
  70.5669992  59.5369978  97.1510014  71.4854118  59.2091957  96.6640065
  72.3459992  57.3669978 101.0990014  71.7189992  57.1959978 102.1500014
  73.3769992  56.5929978 100.7370014  73.8665487  56.8088902  99.8803620
  73.7909992  55.4129978 101.4930014  72.9488575  54.7359940 101.6363971
  74.8799992  54.6789978 100.7130014  74.4756198  54.4421870  99.7288789
  75.6956729  55.3943013 100.6075618  75.3989992  53.4149978 101.3620014
  74.6589992  52.2389978 101.3280014  73.6875059  52.2427944 100.8337488
  75.1359992  51.0759978 101.9080014  74.5451643  50.1604833 101.8788634
  76.3699992  51.0819978 102.5280014  76.8509992  49.9299978 103.1080014
  76.2488712  49.1872331 103.0223154  77.1269992  52.2349978 102.5700014
  78.1010707  52.2387805 103.0591547  76.6419992  53.3909978 101.9860014
  77.2363833  54.3043678 102.0097288  74.2899992  55.7109978 102.8980014
  74.0129992  54.9289978 103.8150014  75.1039992  56.7609978 103.0800014
  75.4252154  57.3347970 102.3134025  75.6669992  57.0019978 104.4120014
  76.1076281  56.0794357 104.7899229  76.7459992  58.0769978 104.3740014
  76.4976896  58.8426706 103.6390275  76.8633286  58.5393428 105.3540887
  78.0889992  57.5359978 103.9920014  78.7909992  56.7569978 104.8900014
  78.3586620  56.5589195 105.8707916  80.0179992  56.2339978 104.5620014
  80.5550416  55.6081219 105.2747184  80.5689992  56.5019978 103.3300014
  81.5476102  56.0955995 103.0745392  79.8889992  57.2799978 102.4220014
  80.3194239  57.4900970 101.4428727  78.6529992  57.7959978 102.7580014
  78.1097598  58.4170368 102.0457505  74.6029992  57.3109978 105.4600014
  74.6379992  56.7349978 106.5550014  73.6389992  58.1799978 105.1240014
  73.7301657  58.6409677 104.2299686  72.5289992  58.5809978 106.0070014
  72.0117209  59.4346291 105.5690106  71.5209992  57.4429978 106.1980014
  72.0087515  56.7073781 106.8375798  70.6698921  57.8743802 106.7249036
  71.0309992  56.7559978 104.9050014  70.5665750  57.5204974 104.2821440
  71.9060637  56.3541597 104.3942273  70.0219992  55.6219978 105.1630014
  70.5040376  54.8789614 105.7983241  69.1645442  56.0452850 105.6861632
  69.5499992  54.9549978 103.8640014  69.0738536  55.7049433 103.2323625
  70.4130678  54.5383221 103.3447778  68.5959992  53.8879978 104.1560014
  67.7959873  54.2739597 104.6367446  68.2952998  53.4595758 103.2922107
  69.0371397  53.1927627 104.7409307  73.0389992  59.0999978 107.3500014
  72.4899992  58.8029978 108.4130014  74.1019992  59.8879978 107.2860014
  74.5133382  60.0521124 106.3782757  74.7239992  60.5029978 108.4450014
  74.0055283  60.5437815 109.2636805  75.9459992  59.7049978 108.9060014
  76.3121897  60.1253569 109.8426455  75.6535344  58.6669232 109.0640062
  76.9689992  59.7629978 107.9320014  77.7278285  59.2587704 108.2345451
  75.1349992  61.9149978 108.1010014  75.6209992  62.6439978 108.9690014
  74.9579992  62.3009978 106.8480014  74.6082513  61.5944660 106.2166627
  75.2489992  63.6159978 106.3140014  75.7191610  64.2268837 107.0846282
  76.1949992  63.5239978 105.1200014  75.6995907  62.8366241 104.4342996
  76.2579144  64.5110296 104.6618421  77.5979992  63.0149978 105.4230014
  77.5217106  62.0694054 105.9597843  78.3799992  62.8069978 104.1440014
  78.4571109  63.7523182 103.6068590  79.3792055  62.4432485 104.3835303
  77.8676728  62.0754135 103.5191764  78.3059992  63.9969978 106.3310014
  77.7480876  64.0992954 107.2617910  79.3102260  63.6329726 106.5480626
  78.3703700  64.9670508 105.8380991  73.9399992  64.2649978 105.9090014
  73.8889992  65.0609978 104.9790014  72.8769992  63.9329978 106.6280014
  72.9700287  63.2647159 107.3795625  71.5569992  64.4659978 106.3400014
  71.3667622  64.4342680 105.2672003  70.4939992  63.6339978 107.0480014
  69.5096691  63.9890192 106.7427913  70.6109350  62.5910800 106.7534705
  70.6199992  63.7439978 108.4540014  69.9420578  63.2131713 108.8785229
  71.4929992  65.9179978 106.7760014  71.4529992  66.2299978 107.9690014
  71.5019992  66.7989978 105.7850014  71.5848214  66.4488884 104.8412519
  71.4319992  68.2319978 105.9820014  70.9204954  68.4409001 106.9215880
  72.8239992  68.8619978 106.0330014  73.3946152  68.4635099 106.8718721
  73.3640219  68.6741398 105.1050010  72.8049992  70.6459978 106.2460014
  74.1259731  70.8006156 106.2415585  70.6229992  68.7979978 104.8320014
  70.2539992  68.0859978 103.8970014  70.3529992  70.0939978 104.9040014
  70.6116374  70.6415714 105.7123138  69.5849992  70.7399978 103.8500014
  68.7626582  70.0962026 103.5379403  69.0089992  72.0519978 104.3580014
  68.6338202  71.8825109 105.3672656  69.8185478  72.7811997 104.3895572
  67.9039992  72.5719978 103.4970014  68.3564403  72.9836159 102.5947994
  67.2138982  71.7733615 103.2248936  67.1319992  73.6589978 104.1850014
  67.4909992  74.0889978 105.2770014  66.0399992  74.0839978 103.5740014
  65.4823726  74.8144443 103.9930503  65.7680897  73.6764041 102.6908062
  70.4509992  70.9269978 102.6140014  69.9969992  70.6939978 101.4830014
  71.6999992  71.3499978 102.8380014  71.9748780  71.5635479 103.7861245
  72.6729992  71.5579978 101.7730014  72.3192368  72.2965593 101.0536418
  73.9629992  72.0819978 102.4200014  73.6768751  73.0393921 102.8554650
  74.1737951  71.3692800 103.2173084  75.2039992  72.2659978 101.5650014
  74.8837725  72.4087225 100.5329233  75.7218831  73.1604562 101.9111844
  76.1539992  71.0619978 101.6440014  75.6419345  70.1951399 101.2263341
  77.0375761  71.2845040 101.0457687  76.5769992  70.7449978 103.0010014
  76.0021621  70.1068716 103.5324678  77.6549992  71.2549978 103.5780014
  78.4299992  72.0869978 102.9030014  78.1964966  72.3297385 101.9508179
  79.2518820  72.4759093 103.3427244  77.9679992  70.9209978 104.8220014
  77.3816103  70.2750861 105.3309672  78.7914346  71.3139580 105.2551702
  72.9159992  70.2629978 101.0120014  73.0549992  70.2589978  99.7830014
  72.9259992  69.1489978 101.7330014  72.8037212  69.2013585 102.7342036
  73.2259992  67.8549978 101.1420014  74.0528030  67.9376920 100.4365538
  73.5949992  66.8599978 102.2460014  72.8003614  66.8583789 102.9920902
  73.7669992  65.4709978 101.6940014  74.5618403  65.4717256 100.9481276
  74.0285487  64.7880611 102.5022651  72.8353975  65.1454733 101.2311287
  74.8879992  67.3259978 102.9100014  74.7105504  68.3271068 103.3029308
  75.0954202  66.6440649 103.7346490  76.0679992  67.3559978 101.9750014
  75.8614921  68.0381223 101.1502828  76.9515055  67.6965360 102.5149548
  76.2463605  66.3550802 101.5819990  72.0779992  67.3699978 100.2680014
  72.3069992  66.8529978  99.1740014  70.8279992  67.5349978 100.7160014
  70.6318201  67.8931990 101.6397465  69.6979992  67.1569978  99.8630014
  69.8398444  66.1497380  99.4713296  68.3859992  67.1979978 100.6380014
  67.5757659  66.8950719  99.9747835  68.4369992  66.2669978 101.8290014
  69.2467531  66.5695963 102.4929536  67.4902597  66.3125609 102.3672461
  68.6107917  65.2469730 101.4862974  68.1389992  68.5349978 101.0810014
  67.3129775  68.5628118 101.5693811  69.5849992  68.0749978  98.6580014
  69.1559992  67.6389978  97.5760014  69.9869992  69.3329978  98.8290014
  70.1926139  69.6857672  99.7527848  70.0829992  70.2509978  97.7020014
  69.1219340  70.3303585  97.1939121  70.4799992  71.6279978  98.2080014
  69.9416517  71.7764219  99.1440845  71.5511914  71.5947480  98.4068525
  70.1779992  72.7709978  97.2670014  70.5740863  72.5664737  96.2723227
  68.6809992  72.8969978  97.1940014  68.2842010  73.1019997  98.1882973
  68.4169393  73.7139366  96.5224479  68.2554343  71.9664984  96.8182811
  70.7989992  74.0259978  97.7980014  71.8780560  73.8931874  97.8760870
  70.5832467  74.8530963  97.1216434  70.3883396  74.2464733  98.7833177
  71.0839992  69.7289978  96.6710014  70.8039992  69.7029978  95.4660014
  72.2379992  69.2509978  97.1400014  72.4554625  69.2658065  98.1262011
  73.2219992  68.6849978  96.2230014  73.3705616  69.3616118  95.3814422
  74.5589992  68.4789978  96.9240014  74.3670684  68.0347424  97.9006789
  75.2128359  67.8230792  96.3492246  75.3219992  69.7319978  97.1690014
  75.1439992  70.5079978  98.2910014  74.4845007  70.3088769  99.0295895
  75.9659992  71.5399978  98.2420014  75.9755759  72.2799571  99.0422936
  76.6729992  71.4569978  97.1320014  77.3781918  72.1122561  96.8263220
  76.2979992  70.3289978  96.4480014  76.7823230  70.0775157  95.5044505
  72.7969992  67.3339978  95.6700014  73.2219992  66.9619978  94.5690014
  71.9539992  66.6029978  96.3980014  71.7235132  66.8734500  97.3434279
  71.3729992  65.3729978  95.8690014  72.1641165  64.6945851  95.5496446
  70.5409992  64.6799978  96.9450014  69.9138579  65.4480854  97.3975878
  69.9111612  63.9528518  96.4324951  71.3369992  63.9859978  98.0180014
  71.9332725  63.1963749  97.5607765  71.9980343  64.7112329  98.4925210
  70.4179992  63.3849978  99.0590014  69.8091378  64.1820908  99.4856506
  69.7711258  62.6559473  98.5710062  71.2029992  62.7049978 100.1610014
  71.7749710  61.8871263  99.7227834  71.8868987  63.4331721 100.5970554
  70.3089992  62.1719978 101.2180014  69.6754872  61.4969177 100.8142330
  70.8636447  61.7264440 101.9349047  69.7792172  62.9297574 101.6244869
  70.5079992  65.6479978  94.6540014  70.6519992  64.9969978  93.6110014
  69.6239992  66.6319978  94.7630014  69.4578644  67.1078465  95.6382537
  68.8019992  66.9889978  93.6170014  68.3522312  66.0960315  93.1829288
  67.6989992  67.9199978  94.0550014  68.1224796  68.8209782  94.4988460
  67.1210820  68.1883585  93.1706405  66.7809992  67.2819978  95.0510014
  66.3819992  66.1309978  94.8960014  66.4599992  68.0139978  96.1040014
  65.8438976  67.6357478  96.8092996  66.8323433  68.9481092  96.1983240
  69.6239992  67.6039978  92.4910014  69.3039992  67.3869978  91.3160014
  70.6869992  68.3439978  92.8300014  70.8582392  68.5744801  93.7983269
  71.6049992  68.8679978  91.8200014  71.0584002  69.5026857  91.1225060
  72.7099992  69.6949978  92.4680014  72.1812037  70.5145052  92.9547069
  73.2964818  69.1510944  93.2084792  73.6449992  70.2589978  91.3890014
  73.9430538  69.4463840  90.7264887  72.9579992  71.3419978  90.5820014
  72.6600452  72.1552220  91.2438085  73.6442414  71.7227309  89.8255526
  72.0748245  70.9281870  90.0953153  74.9619992  70.7379978  91.9490014
  75.4753749  69.9071054  92.4329051  75.5816222  71.1259337  91.1405001
  74.7815720  71.5274093  92.6786414  72.2399992  67.7589978  91.0030014
  72.1929992  67.7799978  89.7670014  72.8309992  66.7779978  91.6800014
  72.8408663  66.7530564  92.6896449  73.5219992  65.7229978  90.9580014
  74.1760835  66.1574687  90.2020200  74.3709992  64.8919978  91.9190014
  73.7349942  64.5605621  92.7398225  74.7882088  64.0232899  91.4097051
  75.5339992  65.6269978  92.5430014  75.9649992  66.8549978  92.0740014
  75.4480451  67.3112163  91.2297722  77.0339992  67.5019978  92.6600014
  77.3559053  68.4755561  92.2903239  77.6949992  66.9129978  93.7160014
  78.5409409  67.4197176  94.1804556  77.2879992  65.6879978  94.1830014
  77.8129964  65.2201622  95.0158327  76.2159992  65.0499978  93.5990014
  75.8940636  64.0762903  93.9682589  72.5439992  64.8129978  90.2300014
  72.8759992  64.2919978  89.1620014  71.3219992  64.6649978  90.7480014
  71.0918517  65.0063511  91.6702863  70.3029992  63.9229978  90.0100014
  70.7036843  62.9661303  89.6754044  69.1029992  63.6599978  90.9110014
  69.4096653  63.1623455  91.8310000  68.6209383  64.6069127  91.1540436
  68.0569992  62.7959978  90.2860014  68.2869992  61.4469978  90.0890014
  69.2422903  61.0189432  90.3927910  67.3199992  60.6419978  89.5130014
  67.5160816  59.5817462  89.3532551  66.1039992  61.1839978  89.1400014
  65.3394322  60.5526644  88.6872817  65.8589992  62.5279978  89.3420014
  64.9011714  62.9607587  89.0532384  66.8359992  63.3269978  89.9140014
  66.6465042  64.3881570  90.0756581  69.8819992  64.6509978  88.7380014
  69.6659992  64.0179978  87.6970014  69.7909992  65.9829978  88.7960014
  69.8884146  66.4751883  89.6725618  69.4829992  66.7569978  87.5990014
  68.6076045  66.3421178  87.0993437  69.1879992  68.1989978  87.9780014
  68.3590356  68.2251575  88.6852738  70.0718601  68.6404310  88.4384650
  68.8439992  68.9319978  86.8240014  68.6582969  69.8420997  87.0665483
  70.6119992  66.6979978  86.5800014  70.3609992  66.6549978  85.3680014
  71.8579992  66.6929978  87.0580014  72.0370862  66.8747107  88.0352464
  72.9999992  66.4959978  86.1700014  72.9613053  67.2263135  85.3617682
  74.3159992  66.6669978  86.9180014  74.1525504  66.3768560  87.9558846
  75.1090416  66.0535528  86.4903695  74.8269992  68.0699978  86.9420014
  75.4459992  68.5909978  85.8270014  75.5461434  67.9653332  84.9400883
  75.9339992  69.8779978  85.8200014  76.4010532  70.2900092  84.9254580
  75.8279992  70.6449978  86.9550014  76.2194158  71.6622922  86.9527218
  75.2349992  70.1399978  88.0860014  75.1528932  70.7488836  88.9863441
  74.7389992  68.8459978  88.0770014  74.2744499  68.4341537  88.9729246
  72.9549992  65.1329978  85.5000014  73.2539992  65.0179978  84.3070014
  72.5919992  64.0929978  86.2560014  72.4322465  64.2118263  87.2461823
  72.4899992  62.7469978  85.6940014  73.4241816  62.4805829  85.1996073
  72.2179992  61.7269978  86.8140014  71.4395538  62.1263687  87.4640975
  71.7709992  60.3939978  86.2520014  72.5491780  59.9937539  85.6021218
  71.5876160  59.6973310  87.0700029  70.8539523  60.5299259  85.6787213
  73.4599992  61.5069978  87.6010014  73.7835932  62.4501355  88.0413200
  73.2653495  60.7844530  88.3935543  74.2429360  61.1248830  86.9459449
  71.4129992  62.6889978  84.6230014  71.6269992  62.1219978  83.5420014
  70.2659992  63.3259978  84.8780014  70.1069007  63.7855972  85.7631881
  69.1799992  63.3109978  83.9000014  68.9747421  62.2873115  83.5868962
  67.9129992  63.8959978  84.5140014  68.1192366  64.8675401  84.9630794
  67.1360008  64.0037112  83.7571848  67.1999992  62.8829978  85.8210014
  66.1747754  63.6900671  86.0787875  69.5469992  64.0629978  82.6270014
  69.3179992  63.5539978  81.5200014  70.1439992  65.2549978  82.7600014
  70.2947466  65.6692467  83.6687217  70.5459992  66.0139978  81.5770014
  69.6974103  66.1182881  80.9008953  71.0299992  67.4059978  81.9700014
  70.3047382  67.8223016  82.6691343  72.0027071  67.3335989  82.4565175
  71.1509992  68.3449978  80.7780014  70.7649992  68.0129978  79.6640014
  71.7169992  69.5169978  81.0110014  71.8242744  70.1812182  80.2577397
  72.0394602  69.7426224  81.9411699  71.6339992  65.2929978  80.7970014
  71.6009992  65.2669978  79.5610014  72.5649992  64.6439978  81.4990014
  72.5667726  64.6595673  82.5088795  73.6429992  63.9429978  80.8180014
  74.0976548  64.5868302  80.0650955  74.7109992  63.5499978  81.8320014
  75.1125189  64.4544975  82.2889058  74.2541403  62.9271129  82.6010231
  75.7559992  62.8349978  81.2070014  76.4170128  62.5972179  81.8613114
  73.1389992  62.7149978  80.0730014  73.5419992  62.4769978  78.9270014
  72.2219992  61.9529978  80.6740014  71.9069705  62.1153450  81.6197813
  71.7599992  60.7519978  79.9880014  72.5441314  60.2407625  79.4295443
  71.1309992  59.7519978  80.9840014  71.8519862  59.5888770  81.7850436
  69.8129992  60.2389978  81.5780014  69.0913115  60.4019084  80.7775466
  69.4260640  59.4894888  82.2683766  69.9785401  61.1740672  82.1131118
  70.9569992  58.3909978  80.3380014  71.9288260  58.0106638  80.0233574
  70.5127018  57.7015978  81.0559339  70.3042328  58.4811374  79.4697436
  70.8259992  61.1029978  78.8340014  70.8919992  60.4719978  77.7690014
  70.0269992  62.1669978  78.9640014  69.9314164  62.6655644  79.8371536
  69.1549992  62.5379978  77.8580014  68.7186807  61.6413003  77.4179346
  68.0189992  63.4309978  78.3810014  68.4602049  64.2434983  78.9583053
  67.1939992  64.0039978  77.2570014  66.7520620  63.1920451  76.6794850
  66.4018420  64.6290899  77.6691269  67.8306990  64.6057774  76.6084828
  67.1199992  62.5879978  79.2460014  67.6929099  62.1832049  80.0802785
  66.3045539  63.2012481  79.6295019  66.7108009  61.7683996  78.6553100
  69.9479992  63.1599978  76.7150014  69.6519992  62.9029978  75.5410014
  71.0079992  63.9119978  77.0230014  71.2016827  64.1909201  77.9742051
  71.8659992  64.4279978  75.9630014  71.2426754  64.8990614  75.2029582
  72.8259992  65.4699978  76.5190014  73.4757255  64.9976445  77.2557771
  73.6659992  66.0559978  75.4100014  73.0169499  66.5289654  74.6730237
  74.3473686  66.7994506  75.8236593  74.2410613  65.2632981  74.9314293
  72.0669992  66.5269978  77.1150014  72.6645312  67.1897999  77.4689072
  72.6149992  63.3009978  75.2610014  72.6639992  63.2669978  74.0280014
  73.1279992  62.3259978  76.0170014  73.0678921  62.3395131  77.0251204
  73.9049992  61.2639978  75.3840014  74.5319927  61.6782701  74.5944719
  74.7929992  60.5499978  76.4240014  75.2120907  61.2991532  77.0957372
  74.0019992  59.5469978  77.2220014  73.5829500  58.7972034  76.5509524
  74.6559373  59.0609599  77.9460407  73.1938492  60.0559265  77.7473435
  75.9669992  59.8269978  75.7560014  75.5560259  58.9752685  75.2140062
  76.4161973  60.5244655  75.0489940  77.0169992  59.3469978  76.7230014
  76.5686201  58.6490830  77.4300876  77.8146356  58.8457236  76.1747319
  77.4287901  60.1982804  77.2650773  73.0009992  60.2889978  74.6300014
  73.4849992  59.5399978  73.7750014  71.6939992  60.2879978  74.8800014
  71.2987554  60.7550880  75.6835613  70.8189992  59.4399978  74.0710014
  71.3702610  58.6731485  73.5268032  69.6649992  58.7769978  74.8730014
  69.0187600  58.2360091  74.1817660  70.2209992  57.8099978  75.9100014
  70.8670149  58.3503813  76.6019191  69.3981336  57.3554588  76.4617144
  70.7963363  57.0311039  75.4095909  68.6759992  59.7519978  75.5050014
  69.1902417  60.2659970  76.3170731  68.3897355  60.4753081  74.7414735
  67.4439992  59.0749978  76.0410014  67.7294447  58.3518229  76.8049640
  66.7797547  59.8208488  76.4775617  66.9289395  58.5611318  75.2293642
  70.3219992  60.2039978  72.8480014  70.3529992  59.6779978  71.7320014
  69.8729992  61.4499978  73.0350014  69.8924904  61.8567795  73.9592568
  69.3259992  62.2439978  71.9420014  68.5296559  61.7049878  71.4287718
  68.7439992  63.5299978  72.5330014  67.8976116  63.3496741  73.1957311
  69.5524345  63.9967433  73.0957456  68.2899992  64.5349978  71.5230014
  69.1409992  65.4539978  70.9490014  70.1311597  65.5137926  71.1390186
  68.4609992  66.2289978  70.1250014  68.9626923  67.0114458  69.5556349
  67.1929992  65.8629978  70.1630014  67.0569992  64.8159978  71.0420014
  66.0736737  64.3833110  71.2262683  70.3839992  62.5829978  70.9050014
  70.1309992  62.4709978  69.7010014  71.5589992  63.0329978  71.3440014
  71.7396614  63.1591757  72.3296686  72.5959992  63.4189978  70.3970014
  72.1932767  64.1081465  69.6547159  73.7259992  64.1109978  71.1390014
  73.2745915  64.9410213  71.6825007  74.1460875  63.3982946  71.8487057
  74.8269992  64.6359978  70.2390014  75.2468448  63.8133623  69.6601221
  74.2589992  65.6719978  69.3010014  73.8393541  66.4952261  69.8791814
  75.0504869  66.0496920  68.6537031  73.4761679  65.2206932  68.6914117
  75.8879992  65.2249978  71.1130014  76.2785377  64.4561226  71.7796423
  76.6964620  65.6124572  70.4930300  75.4634115  66.0363187  71.7042566
  73.1249992  62.2249978  69.6100014  73.2999992  62.3049978  68.3900014
  73.3529992  61.1029978  70.2850014  73.1743381  61.0706938  71.2785486
  73.9009992  59.9159978  69.6430014  74.6386866  60.2001604  68.8925562
  74.5729992  59.0039978  70.6670014  74.9634763  58.1248010  70.1545165
  75.7049992  59.7259978  71.3620014  75.3151954  60.6051164  71.8751321
  76.1707808  59.0591622  72.0875888  76.4463138  60.0349935  70.6250652
  73.6069992  58.5829978  71.6370014  74.0290880  58.0096171  72.2809548
  72.8669992  59.1029978  68.8910014  73.2479992  58.2439978  68.0910014
  71.5799992  59.3449978  69.1050014  71.2745665  60.0376715  69.7735920
  70.5709992  58.5649978  68.4130014  71.0678663  57.7299270  67.9191603
  69.5559992  58.0069978  69.4160014  69.0437708  58.8313837  69.9120962
  68.8267399  57.3902599  68.8907249  70.0743871  57.4018242  70.1597340
  69.8489992  59.3679978  67.3490014  69.8209992  58.9529978  66.1880014
  69.2689992  60.5109978  67.6910014  69.3581161  60.9228908  68.6088803
  68.3859992  61.1489978  66.7340014  68.0756868  60.5131922  65.9048111
  67.1249992  61.6979978  67.4330014  66.8433638  61.0037916  68.2247453
  67.3609992  63.0699978  68.0260014  67.6422446  63.7649099  67.2347371
  66.4483365  63.4197195  68.5085385  68.1626604  63.0150707  68.7624958
  65.9469992  61.6689978  66.5080014  65.7554239  60.6426631  66.1948912
  65.0700357  62.0608156  67.0232814  66.1571914  62.2823825  65.6318283
  69.1029992  62.2459978  65.9510014  68.6099992  62.6569978  64.8900014
  70.2529992  62.7209978  66.4250014  70.6170520  62.4040331  67.3121870
  70.9879992  63.7469978  65.7060014  70.2912217  64.2738081  65.0540266
  71.6019992  64.7539978  66.6810014  72.3088933  64.2429993  67.3346690
  72.1220267  65.5315670  66.1214858  70.8130534  65.2057341  67.2823316
  72.0779992  63.1519978  64.8350014  72.6479992  63.8589978  63.9990014
  72.3699992  61.8659978  65.0130014  71.8543183  61.3225958  65.6904132
  73.4609992  61.2219978  64.2990014  74.2945829  61.9157032  64.1894096
  73.9449992  59.9949978  65.0710014  74.0299970  60.2535610  66.1264728
  73.2100372  59.1991314  64.9504715  75.2899992  59.4899978  64.5860014
  75.8919992  60.0539978  63.6730014  75.7719992  58.4189978  65.2040014
  76.6641154  58.0370183  64.9241442  75.2444838  57.9908386  65.9513353
  73.0109992  60.8449978  62.8970014  73.6949992  61.1439978  61.9120014
  71.8629992  60.1889978  62.7940014  71.3208321  60.0086562  63.6268466
  71.3809992  59.6609978  61.5320014  72.2274406  59.4207546  60.8886357
  70.5569992  58.3889978  61.7520014  70.1228582  58.0871449  60.7988458
  71.2253144  57.6060721  62.1104457  69.4319992  58.5699978  62.7640014
  69.2249992  59.6489978  63.3140014  68.6929992  57.4969978  63.0090014
  67.9315660  57.5522463  63.6702630  68.8948219  56.6292169  62.5332656
  70.5619992  60.7159978  60.8030014  70.0239992  61.6469978  61.4020014
  70.4779992  60.5629978  59.4880014  70.9573572  59.8014004  59.0294334
  69.7519992  61.5149978  58.6650014  69.4414354  62.3730901  59.2610945
  70.6669992  62.0089978  57.5320014  71.5403057  62.4385764  58.0228143
  70.9630963  61.1167571  56.9803376  70.0749992  63.0269978  56.5690014
  70.8464007  63.3193888  55.8565773  69.2440621  62.5658854  56.0351279
  69.5699992  64.2669978  57.2700014  68.3649992  64.4529978  57.4370014
  70.4879992  65.1259978  57.6810014  70.2070094  65.9721141  58.1555891
  71.4657257  64.9318384  57.5183534  68.4709992  60.9439978  58.0860014
  67.5089992  61.6909978  57.8860014  68.4109992  59.6259978  57.8870014
  69.2047741  59.0292981  58.0713116  67.2049992  59.0209978  57.3340014
  66.9202014  59.5759738  56.4401384  67.4829992  57.5729978  56.9410014
  67.7606558  57.0023490  57.8272106  66.5880344  57.1386645  56.4954762
  68.2991719  57.5421695  56.2191905  66.0359992  59.0839978  58.3050014
  64.8799992  59.1199978  57.8720014  66.3049992  59.1259978  59.6090014
  67.2412921  59.0004105  59.9663287  65.2189992  59.2909978  60.5630014
  64.3573741  58.6942072  60.2637652  65.6829992  58.8219978  61.9480014
  66.2788921  57.9457461  61.6926704  66.3400056  59.6179702  62.2985306
  64.6859992  58.4569978  63.0560014  63.7678292  58.0669870  62.6167338
  65.3149992  57.3939978  63.9410014  66.2330398  57.7834627  64.3810212
  64.6188706  57.1227683  64.7346892  65.5449422  56.5121361  63.3430495
  64.2589992  59.6319978  63.9110014  63.7810898  60.3841023  63.2832746
  63.5546581  59.2924487  64.6704165  65.1335149  60.0662549  64.3955035
  64.7249992  60.7299978  60.6220014  63.5739992  60.9629978  61.0040014
  65.5479992  61.6879978  60.2010014  66.4826431  61.4633712  59.8910287
  65.1599992  63.0919978  60.2660014  64.5764597  63.3209796  61.1577122
  66.4189992  63.9759978  60.2620014  66.9691045  63.7931112  59.3389435
  66.0579992  65.4509978  60.3530014  65.5082364  65.6347575  61.2760909
  66.9689561  66.0495233  60.3479691  65.4377734  65.7270728  59.5002387
  67.3299992  63.5839978  61.4060014  67.6244029  62.5403432  61.2954866
  68.2188991  64.2147538  61.3958213  66.8034812  63.7142804  62.3514675
  64.2069992  63.4439978  59.1320014  63.2509992  64.2039978  59.3190014
  64.4169992  62.8629978  57.9510014  65.1735497  62.2061547  57.8233777
  63.5999992  63.2069978  56.7970014  63.4657685  64.2887004  56.7979089
  64.3189992  62.8049978  55.5090014  64.4525938  61.7233959  55.4892577
  63.7242523  63.1128691  54.6490063  65.2934810  63.2917199  55.4691741
  62.2209992  62.5669978  56.8310014  61.3559992  62.9569978  56.0400014
  61.9889992  61.6129978  57.7270014  62.7392943  61.2704309  58.3099290
  60.6759992  61.0099978  57.8700014  60.1755755  60.9720620  56.9024085
  60.8009992  59.5869978  58.4110014  59.8045493  59.1592361  58.5214898
  61.6119992  58.7349978  57.4640014  62.6087992  59.1619040  57.3533649
  61.6926121  57.7237244  57.8626576  61.1208004  58.7035172  56.4914619
  61.4489992  59.6229978  59.6890014  61.5293584  58.7300823  60.0322865
  59.7729992  61.8109978  58.7900014  58.5529992  61.6159978  58.7620014
  60.3549992  62.7089978  59.5780014  61.3620092  62.7064535  59.5003880
  59.7369992  63.6159978  60.5420014  60.5030233  64.0831851  61.1609055
  58.9669992  64.7139978  59.8050014  59.4992491  64.9156110  58.8753986
  57.9593246  64.3659289  59.5779774  58.8669992  66.0089978  60.5990014
  58.4889992  67.0429978  60.0520014  59.2299992  65.9709978  61.8750014
  59.1785836  66.8088533  62.4366547  59.5559911  65.1043979  62.2785292
  58.8079992  62.9039978  61.5230014  57.5889992  63.0979978  61.4650014
  59.3279992  62.0899978  62.4370014  60.7319992  61.6709978  62.6100014
  61.3520516  62.5517725  62.7769487  61.0672837  61.1566765  61.7093590
  60.6869992  60.7639978  63.8030014  60.9800456  61.3337466  64.6848230
  61.3927044  59.9480243  63.6472168  59.3409992  60.2639978  63.9230014
  59.1379267  60.0971490  64.9808398  59.1335106  59.3507636  63.3652816
  58.4679992  61.4039978  63.4000014  57.5787071  61.0383374  62.8866300
  58.0549992  62.3569978  64.5120014  58.5149992  63.4939978  64.6070014
  57.1669992  61.8639978  65.3630014  56.7872727  60.9414180  65.2056688
  56.6499992  62.6429978  66.4830014  56.7081704  63.7166369  66.3040754
  55.1799992  62.2669978  66.7470014  55.1326331  61.2062178  66.9931750
  54.5969992  63.0789978  67.8920014  54.6435985  64.1399327  67.6463459
  53.5585654  62.7888977  68.0519939  55.1701556  62.8913003  68.7999459
  54.3639992  62.4659978  65.4830014  54.7611403  61.8323322  64.6900015
  53.3248571  62.1986806  65.6748990  54.4190911  63.5101138  65.1749631
  57.5279992  62.4289978  67.7050014  57.7599992  63.3619978  68.4850014
  58.0739992  61.2149978  67.8380014  57.8595803  60.4962226  67.1616243
  58.9489992  60.8759978  68.9520014  58.4528613  61.0989748  69.8965795
  59.2889992  59.3889978  68.9190014  59.8388047  59.1283874  69.8233771
  58.3649419  58.8123857  68.8773296  60.0809992  59.0929978  67.7840014
  60.2883136  58.1557025  67.7740981  60.2329992  61.6939978  68.9090014
  60.8369992  61.9349978  69.9560014  60.6129992  62.1679978  67.7210014
  60.0915036  61.9045156  66.8971576  61.7809992  63.0219978  67.5550014
  62.6543072  62.5595388  68.0149623  62.0609992  63.2229978  66.0740014
  62.2042386  62.2539340  65.5959878  61.2177674  63.7350817  65.6105037
  63.5119992  64.1769978  65.7260014  61.5489992  64.3589978  68.2460014
  62.3879992  64.8179978  69.0320014  60.4189992  65.0019978  67.9310014
  59.8088181  64.6209626  67.2220653  60.0579992  66.2769978  68.5420014
  60.8553846  67.0043146  68.3894038  58.7809992  66.8139978  67.9070014
  58.0079941  66.0550264  68.0275197  58.4943909  67.7134836  68.4518694
  58.9389992  67.1419978  66.4440014  59.7115169  67.9040926  66.3413911
  59.2482408  66.2387840  65.9180010  57.6449992  67.6529978  65.8500014
  56.8697722  66.9018669  66.0014089  57.3638828  68.5729537  66.3625969
  57.7989992  67.9279978  64.3670014  58.5811310  68.6764744  64.2399060
  58.1011102  67.0011394  63.8793934  56.5379992  68.4209978  63.7550014
  56.2581129  69.2800694  64.2063987  56.6855273  68.5906150  62.7703363
  55.8132396  67.7274079  63.8722859  59.8889992  66.1109978  70.0440014
  60.2459992  67.0129978  70.8130014  59.2829992  64.9919978  70.4650014
  58.8740577  64.3627128  69.7890824  59.1119992  64.6889978  71.8890014
  58.5457335  65.4869158  72.3693859  58.3539992  63.3679978  72.0770014
  58.8186443  62.5993282  71.4594650  58.3949992  62.9419978  73.5270014
  57.9300852  63.7100116  74.1451525  57.8535007  62.0035270  73.6459651
  59.4310162  62.8048830  73.8367917  56.9189992  63.5489978  71.6560014
  56.8818726  63.8430982  70.6070836  56.3796878  62.6111761  71.7891673
  56.4556198  64.3238776  72.2666909  60.4719992  64.6689978  72.5810014
  60.6619992  65.3329978  73.6110014  61.3819992  63.8059978  72.0910014
  61.0845670  63.1673937  71.3672486  62.7589992  63.7009978  72.5890014
  62.7579774  63.2951344  73.6006204  63.5759992  62.7749978  71.6930014
  63.1377805  61.7774092  71.7226733  63.5457082  63.1543473  70.6715924
  64.9189992  62.7129978  72.1330014  65.4171758  62.1269353  71.5585882
  63.4199992  65.0699978  72.6800014  64.1189992  65.3699978  73.6580014
  63.2359992  65.8879978  71.6370014  62.7213349  65.5515089  70.8357554
  63.7869992  67.2379978  71.5880014  64.8731304  67.2015427  71.6721997
  63.4229992  67.9019978  70.2650014  63.8435884  67.2853305  69.4706933
  62.3354687  67.8956632  70.1919448  63.9269992  69.3139978  70.1240014
  63.5814186  69.7209954  69.1737237  63.5240479  69.9107673  70.9422914
  65.4279992  69.3949978  70.1640014  66.0069992  69.8199978  71.1580014
  66.0729992  68.9829978  69.0840014  67.0821381  69.0162375  69.0587958
  65.5530289  68.6372957  68.2901361  63.2669992  68.0599978  72.7570014
  64.0359992  68.7459978  73.4420014  61.9499992  68.0109978  72.9760014
  61.3680668  67.4515445  72.3689875  61.3079992  68.7669978  74.0450014
  61.5134367  69.8321393  73.9383795  59.7999992  68.5509978  73.9650014
  59.3903570  68.9798373  73.0504582  59.6017172  67.4793479  73.9837284
  59.0309992  69.1479978  75.0990014  58.7749992  70.5029978  75.1420014
  59.1526136  71.1450878  74.3462453  58.0489992  71.0459978  76.1790014
  57.8498564  72.1174035  76.2020811  57.5749992  70.2359978  77.1860014
  57.0088127  70.6677858  78.0112843  57.8159992  68.8799978  77.1510014
  57.4397483  68.2344489  77.9446021  58.5339992  68.3419978  76.1100014
  58.7186738  67.2684027  76.0727361  61.8299992  68.3389978  75.4070014
  62.0809992  69.1839978  76.2770014  61.9819992  67.0279978  75.6100014
  61.6830254  66.3657534  74.9084700  62.4879992  66.5109978  76.8800014
  61.9128655  66.9387556  77.7011857  62.3729992  64.9789978  76.9180014
  62.9296464  64.5689586  76.0753199  62.9249992  64.4159978  78.2080014
  62.3685116  64.8252506  79.0511706  62.8281839  63.3303220  78.2020356
  63.9768368  64.6859447  78.3021589  60.9089992  64.5769978  76.7900014
  60.5514252  64.9425015  75.8273755  60.8654882  63.4879503  76.8034802
  60.0389992  65.1279978  77.8910014  60.0816376  66.2170842  77.8778598
  59.0097308  64.8033311  77.7383675  60.3957023  64.7625344  78.8539652
  63.9159992  66.9869978  77.1090014  64.2879992  67.3669978  78.2280014
  64.7359992  66.9629978  76.0510014  64.4079228  66.6010308  75.1670076
  66.1279992  67.3939978  76.1490014  66.6371925  66.8421289  76.9391040
  66.8439992  67.1289978  74.8310014  66.8166265  66.0630238  74.6050602
  66.3681754  67.6836288  74.0222517  68.2819992  67.5279978  74.8340014
  68.7089992  68.7729978  74.4280014  68.1010623  69.5116352  74.1040767
  70.0229992  68.8389978  74.5310014  70.5559648  69.7459699  74.2456099
  70.4639992  67.6869978  75.0020014  69.3939992  66.8509978  75.2000014
  69.5528937  65.8450887  75.5885893  66.2289992  68.8639978  76.5240014
  67.0459992  69.2399978  77.3740014  65.3939992  69.7019978  75.9050014
  64.7805505  69.3680150  75.1754568  65.3859992  71.1279978  76.2170014
  66.3912750  71.5402034  76.1297872  64.4749992  71.8559978  75.2380014
  63.5256913  71.3205619  75.2529010  64.3085699  72.8973335  75.5137211
  65.0719992  71.7909978  73.8390014  65.4003760  70.7672697  73.6594177
  64.0779992  72.1979978  72.7680014  63.7494953  73.2218455  72.9466632
  64.5521802  72.1347895  71.7885843  63.2170053  71.5302493  72.7980299
  66.3129992  72.6419978  73.7760014  67.0430445  72.2747106  74.4972735
  66.7373391  72.5928809  72.7731931  66.0580497  73.6751784  74.0118780
  64.9449992  71.3609978  77.6540014  65.5429992  72.1729978  78.3750014
  63.9099992  70.6349978  78.0880014  63.4416709  69.9901196  77.4675983
  63.3949992  70.7879978  79.4420014  63.1570594  71.8346844  79.6315566
  62.1289992  69.9599978  79.6250014  61.3147750  70.4514987  79.0924932
  62.3071295  68.9773239  79.1882845  61.7569992  69.8039978  81.0780014
  61.3059992  70.8849978  81.8110014  61.2140860  71.8551055  81.3225933
  60.9759992  70.7499978  83.1350014  60.6272011  71.6073796  83.7106213
  61.0809992  69.5139978  83.7350014  60.7469992  69.3739978  85.0580014
  60.4563448  70.1956639  85.4604745  61.5219992  68.4289978  83.0270014
  61.6112927  67.4556973  83.5095086  61.8519992  68.5709978  81.7050014
  62.1941343  67.7085268  81.1329985  64.4289992  70.3859978  80.4810014
  64.6209992  71.0879978  81.4770014  65.1219992  69.2769978  80.2580014
  64.9453642  68.6826998  79.4606876  66.1029992  68.8409978  81.2390014
  65.7213618  68.9995872  82.2476151  66.3909992  67.3599978  81.0560014
  66.6057714  67.1802131  80.0026024  67.2320643  67.0209348  81.6607707
  65.1339992  66.5919978  81.4570014  64.2931244  66.9750813  80.8788342
  65.2889992  65.1269978  81.2000014  66.1294529  64.7430777  81.7782244
  64.3776336  64.6072967  81.4956771  65.4730508  64.9612772  80.1385109
  64.8049992  66.8279978  82.9190014  64.6361459  67.8916781  83.0868473
  63.9059172  66.2716586  83.1840286  65.6362092  66.4904667  83.5380828
  67.3859992  69.6539978  81.1970014  68.0599992  69.7719978  82.2280014
  67.7229992  70.2569978  80.0550014  67.2634589  70.0543624  79.1787247
  68.8289992  71.2069978  80.0520014  69.7094627  70.7543055  80.5080200
  69.1729992  71.6089978  78.6230014  69.4454264  70.7006877  78.0855488
  68.2740491  72.0371666  78.1795376  70.3019992  72.6049978  78.5310014
  70.0036034  73.5118316  79.0570369  71.1787517  72.1759835  79.0161342
  70.7089992  73.0149978  76.8340014  71.5069992  71.4949978  76.3520014
  70.8060153  70.6669071  76.4568174  71.8305116  71.5672796  75.3136297
  72.3729739  71.3203287  76.9904996  68.4869992  72.4369978  80.8780014
  69.3129992  72.9089978  81.6750014  67.2509992  72.9249978  80.7510014
  66.5981752  72.5545756  80.0752001  66.8159992  74.0189978  81.6000014
  67.5211412  74.8411331  81.4776596  65.8286287  74.3346959  81.2630542
  66.7409992  73.6479978  83.0670014  67.0839992  74.4609978  83.9280014
  66.3649992  72.4039978  83.3670014  66.0371640  71.7815704  82.6422894
  66.3479992  71.9289978  84.7470014  65.7662883  72.6076991  85.3707612
  65.7139992  70.5499978  84.8080014  64.6851673  70.5725941  84.4487056
  66.2856699  69.8269163  84.2262405  65.6439992  69.9059978  86.4630014
  65.0625160  68.7543997  86.1395864  67.7459992  71.9059978  85.3530014
  67.9419992  72.3259978  86.5040014  68.7249992  71.3979978  84.5970014
  68.5241242  71.0016469  83.6899984  70.1029992  71.3589978  85.0800014
  70.1494790  70.8336997  86.0339410  70.9849992  70.6289978  84.0800014
  70.3874751  69.8394900  83.6242147  71.3131942  71.3264378  83.3093098
  72.2039992  70.0049978  84.7170014  72.8649992  69.1779978  84.0970014
  72.5009992  70.3709978  85.9540014  73.3085992  69.9758578  86.4141605
  71.9186334  71.0437001  86.4319371  70.6219992  72.7659978  85.3150014
  71.3159992  73.0269978  86.3010014  70.3019992  73.6789978  84.4160014
  69.7338313  73.4448528  83.6144650  70.8759992  75.0089978  84.4870014
  71.8778311  74.9618587  84.9138622  70.9699992  75.6109978  83.0870014
  70.0406699  75.4436129  82.5425489  71.1261180  76.6818165  83.2176703
  72.1289992  75.0229978  82.3020014  73.1819992  74.4109978  82.9590014
  73.1606213  74.3660186  84.0478629  74.2349992  73.8689978  82.2720014
  75.0635854  73.4053315  82.8073147  74.2409992  73.9089978  80.9040014
  75.2919992  73.3629978  80.2100014  75.9623130  72.9826811  80.7823984
  73.2039992  74.4949978  80.2200014  73.2107150  74.5323804  79.1306631
  72.1519992  75.0369978  80.9200014  71.3162695  75.4882058  80.3851489
  70.1259992  75.9039978  85.4650014  70.6489992  76.9589978  85.8270014
  68.9349992  75.4999978  85.9170014  68.4715790  74.6926944  85.5250803
  68.2689992  76.2249978  86.9920014  68.6725481  77.2361474  87.0451429
  66.7539992  76.3129978  86.7660014  66.4671675  75.3876842  86.2663801
  66.1896760  76.4148000  87.6929727  66.3209992  77.4279978  85.8790014
  66.3059992  78.7219978  86.3510014  66.6330990  78.9257780  87.3705990
  65.8839992  79.7489978  85.5490014  65.8975623  80.7743005  85.9186922
  65.4429992  79.4839978  84.2760014  65.1102170  80.3032763  83.6387113
  65.4199992  78.2009978  83.8070014  65.0645402  77.9882317  82.7987953
  65.8459992  77.1819978  84.6100014  65.8133518  76.1538802  84.2494349
  68.4479992  75.6079978  88.3680014  68.1899992  76.3009978  89.3610014
  68.8909992  74.3489978  88.4840014  69.0024320  73.6889467  87.7276850
  69.1489992  73.8909978  89.8460014  68.3265238  74.2208226  90.4807052
  69.2759992  72.3699978  89.9610014  68.5510029  71.7854290  89.3946457
  70.2844977  72.0525573  89.6959309  69.0789992  72.0129978  91.4110014
  70.0339992  71.8889978  92.3700014  71.0668038  72.0257995  92.0495333
  69.4619992  71.6069978  93.5810014  69.9542633  71.4828307  94.4541327
  68.1079992  71.5419978  93.4180014  67.1069992  71.2959978  94.3450014
  67.3816704  71.1309250  95.3868293  65.8289992  71.2769978  93.8840014
  65.0140385  71.0525071  94.5721459  65.5349992  71.5359978  92.5600014
  64.5019034  71.5561866  92.2130072  66.5229992  71.7739978  91.6470014
  66.2332472  71.9065154  90.6046082  67.8349992  71.7999978  92.0710014
  70.3999992  74.5489978  90.4190014  70.4839992  74.7699978  91.6310014
  71.3349992  74.9529978  89.5640014  71.3252227  74.6777175  88.5922893
  72.4559992  75.7469978  90.0450014  72.8825552  75.2887807  90.9372941
  73.5369992  75.8259978  88.9740014  73.1039812  76.3043508  88.0954953
  74.3475341  76.4435900  89.3609293  74.0779992  74.4659978  88.5920014
  74.3673854  73.9574562  89.5116437  73.2701751  73.9143685  88.1111403
  75.4909992  74.5309978  87.4830014  74.7279992  75.1979978  86.0310014
  74.3033236  76.1755168  86.2594884  75.4738883  75.3016748  85.2429651
  73.9364301  74.5279741  85.6954605  72.0119992  77.1339978  90.4770014
  72.5839992  77.6919978  91.4170014  70.9879992  77.6939978  89.8310014
  70.6166135  77.2955333  88.9804734  70.4019992  78.9329978  90.3270014
  71.1788143  79.6877427  90.4495482  69.3619992  79.4589978  89.3410014
  69.9411651  79.6575770  88.4392074  68.6001502  78.7098947  89.1252920
  68.6899992  80.7479978  89.8080014  68.2654589  80.6022656  90.8012932
  69.7159992  81.8459978  89.8580014  70.1406832  81.9926365  88.8649055
  69.2438023  82.7703304  90.1907778  70.5083518  81.5721337  90.5546192
  67.4939992  81.1349978  88.9640014  66.7480462  80.3412575  89.0043733
  67.0616292  82.0590886  89.3476858  67.8101017  81.2836428  87.9314885
  69.7519992  78.7409978  91.6900014  69.9049992  79.5899978  92.5770014
  69.0599992  77.6129978  91.8860014  68.9061586  76.9635910  91.1279096
  68.4779992  77.3029978  93.1960014  67.8015932  78.1021014  93.4993289
  67.6919992  75.9969978  93.1320014  68.3180523  75.2157875  92.7008782
  67.3882201  75.7050054  94.1372669  66.1959992  76.0309978  92.1520014
  65.8602221  74.7621352  92.3668027  69.5389992  77.1849978  94.2790014
  69.3839992  77.7259978  95.3820014  70.6309992  76.4989978  93.9690014
  70.7052186  76.0244318  93.0805320  71.7149992  76.3419978  94.9280014
  71.3237780  76.0160411  95.8917428  72.6859992  75.2989978  94.4230014
  72.1083624  74.4328452  94.1001788  73.2154853  75.7208577  93.5687305
  73.6669992  74.8819978  95.4560014  74.3222041  75.7308187  95.6517324
  73.1367161  74.6146564  96.3700187  74.4819992  73.7209978  94.9970014
  74.3079992  73.3169978  93.8340014  75.2769992  73.2009978  95.7950014
  72.4229992  77.6589978  95.2110014  72.8379992  77.9109978  96.3470014
  72.5519992  78.5179978  94.2030014  72.2525025  78.2864290  93.2666378
  73.1359992  79.8269978  94.4350014  74.0995763  79.6932283  94.9266560
  73.2848519  80.3146017  93.4715780  72.2599992  80.7039978  95.3000014
  72.7619992  81.4569978  96.1380014  70.9409992  80.6029978  95.1210014
  70.5694218  80.0683321  94.3488861  70.0039992  81.3179978  95.9820014
  70.2530332  82.3775100  96.0412914  68.5669992  81.1579978  95.4570014
  68.4049165  80.1091683  95.2084332  67.5509992  81.5939978  96.4840014
  67.7121654  82.6429264  96.7327481  66.5469498  81.4672593  96.0791275
  67.6589483  80.9871946  97.3830209  68.3699992  81.9449978  94.1720014
  68.3605354  83.0038906  94.4303758  69.2207194  81.7375103  93.5229069
  67.0999992  81.5939978  93.4580014  66.2487501  81.8016656  94.1063446
  67.0172905  82.1893854  92.5487313  67.1089332  80.5352840  93.1988776
  70.1199992  80.8359978  97.4170014  70.1919992  81.6439978  98.3490014
  70.1979992  79.5169978  97.6150014  70.1281851  78.8598670  96.8511923
  70.3299992  78.9909978  98.9710014  69.5571126  79.4177492  99.6102421
  70.1789992  77.4779978  98.9700014  69.1719941  77.2444280  98.6243354
  70.9071106  77.0663465  98.2710758  70.3939992  76.8749978 100.3300014
  69.4409992  77.0159978 101.3250014  68.5276409  77.5695297 101.1071060
  69.6329992  76.4709978 102.5710014  68.8787033  76.5886751 103.3490063
  70.7899992  75.7729978 102.8340014  70.9899992  75.2219978 104.0760014
  70.2618278  75.3844835 104.6801243  71.7499992  75.6199978 101.8620014
  72.6655526  75.0671559 102.0723064  71.5499992  76.1679978 100.6220014
  72.3066166  76.0513225  99.8461038  71.6579992  79.3679978  99.6160014
  71.6979992  79.6899978 100.8060014  72.7389992  79.3829978  98.8450014
  72.7024806  79.1123151  97.8726349  74.0369992  79.6969978  99.4260014
  74.1539558  79.1897132 100.3836458  75.1449992  79.2289978  98.4880014
  74.8388977  78.2548367  98.1066732  75.1052504  79.9626256  97.6828242
  76.5669992  79.1399978  99.0230014  76.5489633  79.0273705 100.1070174
  77.2359992  77.9519978  98.4100014  77.2548298  78.0641274  97.3259483
  78.2567424  77.8756575  98.7846431  76.6849227  77.0487404  98.6718050
  77.3309992  80.3479978  98.6150014  76.8478418  81.2376865  99.0188732
  78.3488419  80.2817794  98.9993356  77.3573584  80.4116252  97.5271799
  74.1449992  81.1789978  99.7520014  74.6699992  81.5509978 100.8090014
  73.6339992  82.0379978  98.8670014  73.2857010  81.7134159  97.9762522
  73.6139992  83.4679978  99.1360014  74.6086247  83.8123611  99.4192565
  73.1779992  84.2169978  97.8850014  73.8705121  84.0140772  97.0680875
  72.1741938  83.9062282  97.5953517  73.1349992  85.6999978  98.0500014
  72.0109992  86.3639978  98.4860014  71.1379724  85.9180196  98.7289567
  72.2599992  87.6599978  98.5330014  71.4903777  88.3617628  98.8544164
  73.5059992  87.8589978  98.1450014  74.0749992  86.6479978  97.8380014
  75.1089330  86.6027174  97.4959022  72.6959992  83.7929978 100.2970014
  72.9599992  84.7349978 101.0480014  71.6059992  83.0429978 100.4440014
  71.3624493  82.3457371  99.7550818  70.7069992  83.2439978 101.5690014
  70.4539807  84.3002022 101.6612688  69.4239992  82.4539978 101.3420014
  69.6725791  81.3952167 101.2692635  68.4539992  82.6649978 102.4750014
  68.2045727  83.7235567 102.5480711  67.5466100  82.0904442 102.2889043
  68.9079257  82.3338909 103.4090355  68.8129992  82.8959978 100.1260014
  68.0034859  82.4020403  99.9766884  71.3769992  82.8299978 102.8680014
  71.2779992  83.5279978 103.8820014  72.1059992  81.7189978 102.8370014
  72.2687189  81.2434585 101.9609398  72.6569992  81.1389978 104.0470014
  71.9416421  81.2008414 104.8670861  72.9659992  79.6679978 103.7790014
  72.0414758  79.3146626 103.3223727  73.7583092  79.6813533 103.0305587
  73.3569992  78.7389978 104.9120014  74.2011298  79.1529922 105.4635022
  72.1739992  78.6019978 105.8340014  71.3295529  78.1876020 105.2832879
  72.4306114  77.9372422 106.6588353  71.9044507  79.5818593 106.2281024
  73.7809992  77.3949978 104.3670014  74.6357113  77.5247800 103.7031314
  74.0587146  76.7390013 105.1920129  72.9548697  76.9503067 103.8121513
  73.9159992  81.8439978 104.5220014  74.2159992  81.7959978 105.7170014
  74.6579992  82.4969978 103.6360014  74.4103370  82.4787545 102.6570071
  75.9029992  83.1459978 104.0210014  76.1888948  82.7968117 105.0131869
  77.0239992  82.8099978 103.0150014  76.6550380  83.0262682 102.0124072
  78.2829992  83.6089978 103.2720014  78.6528393  83.3928886 104.2743067
  79.0423407  83.3374067 102.5386942  78.0620499  84.6730898 103.1884027
  77.3669992  81.3319978 103.1320014  77.7516022  81.1677740 104.1385857
  76.4400386  80.7734392 103.0021719  78.3729992  80.8649978 102.1330014
  79.3004476  81.4228176 102.2625258  78.5653167  79.8021932 102.2798331
  77.9888845  81.0284851 101.1261113  75.7299992  84.6479978 104.2020014
  76.2699992  85.2289978 105.1430014  74.9579992  85.2999978 103.3440014
  74.4305102  84.8221610 102.6273937  74.9219992  86.7549978 103.3730014
  75.7867255  87.1594529 103.8990849  74.9019992  87.3279978 101.9490014
  74.0613881  86.9002486 101.4026473  74.7589992  88.8319978 101.9960014
  75.5995488  89.2605282 102.5418395  74.7459083  89.2281527 100.9806244
  73.8282709  89.0934388 102.4994843  76.1649992  86.9409978 101.2260014
  76.2373796  85.8545458 101.1761514  76.1459138  87.3500773 100.2158582
  77.0272053  87.3378473 101.7619232  73.7369992  87.2799978 104.1700014
  73.9139992  88.0019978 105.1560014  72.5249992  86.9349978 103.7580014
  72.3926728  86.1959893 103.0823866  71.3529992  87.6789978 104.2080014
  71.6048264  88.6819920 104.5525083  70.3449992  87.7949978 103.0520014
  70.0849970  86.7959705 102.7020836  69.0979992  88.5039978 103.5200014
  69.3571539  89.5033358 103.8696634  68.3912254  88.5806512 102.6937475
  68.6435144  87.9409105 104.3351565  70.9739992  88.5229978 101.8880014
  71.8500902  87.9725523 101.5451073  70.2526899  88.6002032 101.0744587
  71.2738719  89.5224481 102.2030830  70.7119992  87.0519978 105.4370014
  70.5049992  87.7199978 106.4520014  70.3969992  85.7619978 105.3810014
  70.7513957  85.1849712 104.6316399  69.4889992  85.1579978 106.3480014
  69.1761825  85.9292460 107.0518631  68.2509992  84.6039978 105.6500014
  68.5472154  83.8241316 104.9484569  67.5715445  84.1852296 106.3923455
  67.7483309  85.4061916 105.1097155  70.1749992  84.0629978 107.1450014
  69.6659992  82.9409978 107.2360014  71.3349992  84.3859978 107.7170014
  71.6943118  85.3249083 107.6198365  72.1519992  83.4029978 108.4140014
  72.3299711  82.5309257 107.7847834  73.5009992  84.0609978 108.7330014
  74.1801819  83.3286144 109.1693781  74.0799992  84.5799978 107.4660014
  73.4015461  85.3128304 107.0292422  75.0406564  85.0522198 107.6715368
  74.2229395  83.7560306 106.7668965  73.3289992  85.2069978 109.6970014
  72.8918722  84.8391267 110.6252756  74.3002066  85.6554975 109.9060562
  72.6703633  85.9562313 109.2577421  71.5029992  82.8379978 109.6710014
  71.9069992  81.7689978 110.1370014  70.5029992  83.5109978 110.2260014
  70.2450752  84.4126290 109.8509871  69.8229992  83.0419978 111.4220014
  70.4786053  82.3810730 111.9889744  69.4419992  84.2249978 112.3050014
  68.9265108  84.9998835 111.7376188  68.7987664  83.8792429 113.1142017
  70.6189992  84.8769978 112.9450014  71.2219992  84.3009978 114.0470014
  70.8211584  83.3694064 114.4464560  72.3149992  84.8889978 114.6390014
  72.7725797  84.4325732 115.5167243  72.8309992  86.0549978 114.1220014
  73.7037240  86.5169096 114.5836169  72.2439992  86.6389978 113.0200014
  72.6461003  87.5658778 112.6109680  71.1429992  86.0459978 112.4340014
  70.6795885  86.5018024 111.5590199  68.6069992  82.1799978 111.1270014
  67.9449992  81.7319978 112.0680014  68.2939992  81.9339978 109.8590014
  68.8392412  82.3282377 109.1057515  67.1329992  81.1239978 109.5200014
  66.2909935  81.3822669 110.1622028  66.7259992  81.3519978 108.0670014
  67.5559204  81.0890259 107.4111228  65.8637784  80.7292107 107.8286492
  66.4671824  82.4008395 107.9219353  67.4529992  79.6559978 109.7580014
  68.4749992  79.1459978 109.2900014  66.5689992  78.9789978 110.4890014
  65.7551018  79.4411631 110.8685717  66.7749992  77.5719978 110.8060014
  67.8215970  77.3878795 111.0485561  65.9189992  77.1919978 112.0150014
  66.3597784  77.6987084 112.8735219  64.9249275  77.5970570 111.8256648
  65.8099992  75.6689978 112.3120014  65.3845578  75.2250149 111.4120128
  66.8251751  75.2984995 112.4542973  64.9539992  75.2879978 113.5220014
  64.8759992  74.0519978 113.7500014  64.3799992  76.1789978 114.1910014
  66.4439992  76.6729978 109.6230014  67.3099992  75.9559978 109.1120014
  65.1979992  76.7039978 109.1710014  64.5161422  77.2805911 109.6429237
  64.7609992  75.9099978 108.0360014  65.5803818  75.2722465 107.7043622
  63.5689992  75.0239978 108.4010014  62.6812309  75.6474498 108.2948215
  63.5429209  74.2261419 107.6588116  63.5989992  74.4089978 109.8160014
  64.5057808  73.8093003 109.8948107  63.6441368  75.2306320 110.5308314
  62.3739992  73.5289978 110.1230014  61.4811928  74.1463215 110.0234665
  62.3429528  72.7249297 109.3877395  62.4259992  72.9289978 111.5350014
  63.3236601  72.3177032 111.6278696  62.4616479  73.7389640 112.2635501
  61.2469992  72.1029978 111.7830014  61.2140114  71.3521521 111.1082851
  61.2967297  71.7164164 112.7147641  60.4151177  72.6693436 111.6974170
  64.3919992  76.8539978 106.9070014  63.5919992  77.7749978 107.0970014
  64.9729992  76.6219978 105.7400014  65.6231493  75.8548684 105.6455731
  64.7669992  77.4949978 104.5970014  64.6730594  78.5276045 104.9331530
  65.9489992  77.4009978 103.6320014  65.5991845  77.7947047 102.6776829
  66.7249772  78.0540385 104.0313710  66.5299992  75.9749978 103.4220014
  66.8683425  75.5828242 104.3810763  65.7414586  75.3349981 103.0261403
  67.7089992  75.9609978 102.4440014  68.2939992  74.9179978 102.1580014
  68.0699992  77.1479978 101.9050014  68.8416035  77.1900306 101.2546465
  67.5663050  77.9868794 102.1553436  63.4679992  77.2189978 103.8530014
  63.2799992  77.8449978 102.8020014  62.5729992  76.3779978 104.3960014
  62.8290469  75.9247824 105.2615271  61.3009992  76.0029978 103.7630014
  60.8661825  75.1582840 104.2973161  60.3019992  77.1649978 103.7880014
  60.2622555  77.6094263 104.7824877  60.5961829  77.9238650 103.0629659
  58.9039992  76.7629978 103.4430014  58.4499992  76.6889978 102.1440014
  59.0082410  76.8943583 101.3277337  57.1839992  76.3109978 102.1440014
  56.6407714  76.1909845 101.2066651  56.7999992  76.1399978 103.3960014
  57.8569992  76.4169978 104.2280014  57.7368871  76.3332361 105.3081210
  61.5419992  75.4909978 102.3430014  61.0959992  76.0689978 101.3500014
  62.2869992  74.3849978 102.2610014  62.5568098  73.9081028 103.1094546
  62.7689992  73.8569978 100.9860014  63.1292569  74.6604690 100.3435470
  63.9249992  72.9049978 101.2700014  64.5248699  73.5933507 101.8653372
  63.4650534  72.1649322 101.9248699  64.8219992  72.1969978 100.2510014
  64.1813139  71.7327275  99.5012840  65.7769992  73.1439978  99.5770014
  66.4183722  73.6083407 100.3260844  66.3913226  72.5947134  98.8635631
  65.2142405  73.9160739  99.0523097  65.5679992  71.0599978 100.9210014
  64.8526533  70.3449710 101.3273465  66.2039870  70.5612068 100.1896819
  66.1845002  71.4551402 101.7283973  61.6599992  73.1419978 100.2120014
  61.6209992  71.9199978 100.0600014  60.7039992  73.9399978  99.7700014
  60.6993467  74.8972131 100.0922074  59.6389992  73.5069978  98.8840014
  59.7927947  72.4632318  98.6101427  58.2739992  73.6379978  99.5660014
  58.3489522  73.1655899 100.5454462  58.0693051  74.7013116  99.6907584
  57.1499992  72.9969978  98.7820014  56.2053009  73.2032266  99.2851074
  57.1284774  73.4253798  97.7799397  57.3789992  71.2119978  98.6590014
  56.4829992  70.8499978  97.1500014  56.9271800  71.4020873  96.3217504
  56.5355479  69.7810942  96.9431577  55.4404646  71.1462989  97.2658823
  59.6579992  74.3159978  97.6070014  59.4339992  73.7799978  96.5220014
  59.9449992  75.6089978  97.7470014  60.0480445  75.9792184  98.6810345
  60.0399992  76.5309978  96.6250014  59.1494358  76.4674885  95.9997314
  60.1559992  77.9449978  97.1610014  60.9606778  78.0184993  97.8925676
  60.3095151  78.6865938  96.3770573  58.9099992  78.3229978  97.8630014
  58.6449992  78.1829978  99.1880014  59.4349511  77.7552718  99.8053557
  57.3809992  78.6329978  99.4670014  56.9441641  78.6364534 100.3776400
  56.8029992  79.0729978  98.3060014  55.5439992  79.6119978  98.0800014
  54.8670079  79.7276579  98.9264081  55.2319992  79.9659978  96.7990014
  54.2531662  80.3943195  96.5833017  56.1409992  79.7919978  95.7520014
  55.8810987  80.0769385  94.7325113  57.3889992  79.2569978  95.9750014
  58.0650291  79.1526891  95.1263531  57.7369992  78.8849978  97.2740014
  61.2019992  76.1699978  95.7200014  61.1389992  76.3839978  94.5000014
  62.3009992  75.7009978  96.3190014  62.3518505  75.6448730  97.3261576
  63.4759992  75.3259978  95.5470014  63.8074478  76.1673244  94.9383877
  64.6079992  74.9269978  96.4830014  64.2328216  74.1739561  97.1760159
  65.3877631  74.4897633  95.8593874  65.1779992  76.0859978  97.2610014
  66.1329992  76.9129978  96.7020014  66.4714938  76.7168289  95.6846329
  66.6559992  77.9709978  97.4090014  67.4174222  78.6096908  96.9613317
  66.2159992  78.2189978  98.6840014  66.7279992  79.2729978  99.3930014
  67.3867156  79.7702587  98.9026708  65.2629992  77.4199978  99.2580014
  64.9159500  77.6140443 100.2728922  64.7439992  76.3669978  98.5440014
  63.9750385  75.7342871  98.9872583  63.1409992  74.2049978  94.5800014
  63.5979992  74.2259978  93.4320014  62.3729992  73.2049978  95.0380014
  62.0905126  73.1702105  96.0070682  61.9519992  72.1229978  94.1560014
  62.8272907  71.6208159  93.7439610  61.1209992  71.1019978  94.9230014
  60.3950272  71.6729527  95.5018575  60.5988423  70.4965514  94.1821325
  61.8999992  70.2059978  95.8420014  62.5179992  69.0639978  95.3590014
  62.4388588  68.8318062  94.2969641  63.2199992  68.2319978  96.1920014
  63.6962444  67.3335719  95.7994161  63.3229992  68.5359978  97.5260014
  64.0319992  67.7039978  98.3560014  64.4078101  66.9485947  97.8980364
  62.7209992  69.6639978  98.0350014  62.8007189  69.9053270  99.0949569
  62.0129992  70.4909978  97.1920014  61.5307695  71.3860749  97.5849284
  61.1419992  72.6699978  92.9940014  61.2939992  72.2179978  91.8530014
  60.2139992  73.5839978  93.3000014  60.0634602  73.8141591  94.2718364
  59.3649992  74.2219978  92.2980014  58.7507599  73.4730992  91.7980414
  58.4459992  75.2409978  92.9630014  57.7526656  74.7398974  93.6384910
  59.0347409  75.9686194  93.5216159  57.6129992  76.0179978  91.9940014
  56.5379992  75.4219978  91.3630014  56.3021555  74.3800998  91.5796257
  55.7639992  76.1339978  90.4640014  54.9195976  75.6537690  89.9695656
  56.0629992  77.4569978  90.1930014  55.4543530  78.0210742  89.4862712
  57.1339992  78.0629978  90.8190014  57.3739515  79.1051963  90.6084181
  57.9019992  77.3449978  91.7140014  58.7477459  77.8206135  92.2105920
  60.1769992  74.8919978  91.2000014  59.9729992  74.6279978  90.0120014
  61.0889992  75.7939978  91.5850014  61.2171112  76.0385575  92.5565349
  61.8929992  76.4899978  90.5840014  61.2489974  76.8772727  89.7944579
  62.6409992  77.6639978  91.2260014  61.8860919  78.1090228  91.8742042
  63.4060851  77.1841866  91.8363495  63.2869992  78.7609978  90.3640014
  62.7368432  78.8680926  89.4291432  63.2469992  80.0539978  91.1170014
  63.7973789  79.9478140  92.0518309  63.7028326  80.8399679  90.5148655
  62.2116155  80.3171294  91.3334329  64.7239992  78.5029978  89.9780014
  64.7863578  77.5778389  89.4050340  65.0921417  79.3307032  89.3718033
  65.3321805  78.4139650  90.8781613  62.8909992  75.5749978  89.8990014
  63.2619992  75.8279978  88.7510014  63.3059992  74.4999978  90.5560014
  63.0101084  74.3062579  91.5020526  64.2079992  73.5679978  89.9150014
  65.0056482  74.1539521  89.4583693  64.6256505  72.9341350  90.6972320
  63.5739992  72.6919978  88.8580014  64.1039992  72.5519978  87.7550014
  62.4339992  72.0929978  89.1710014  61.9561376  72.3099491  90.0339497
  61.8749992  71.0619978  88.3150014  62.5849205  70.7858212  87.5353621
  61.5709992  69.8239978  89.1600014  60.9065592  70.0551229  89.9925877
  61.1220607  69.0458113  88.5427657  62.7989992  69.2429978  89.7470014
  63.3369992  69.5439978  90.9500014  62.8129477  70.2902954  91.5470857
  64.4719992  68.8109978  91.1600014  65.0627017  68.8600520  91.9777813
  64.6779992  67.9999978  90.0800014  65.6829992  67.0809978  89.8310014
  66.4613564  66.9425379  90.5813931  65.6329992  66.4019978  88.6510014
  66.4052618  65.6684815  88.4193459  64.6109992  66.6239978  87.7260014
  64.5863476  66.0799685  86.7817960  63.6069992  67.5319978  87.9750014
  62.8200859  67.6541293  87.2307219  63.6379992  68.2459978  89.1700014
  60.6299992  71.5209978  87.5820014  60.5529992  71.3929978  86.3580014
  59.6489992  72.0629978  88.2940014  59.7540803  72.2726102  89.2764066
  58.3879992  72.3679978  87.6600014  58.1334771  71.5410771  86.9970386
  57.6299867  72.4555139  88.4383698  58.4199992  73.6449978  86.8610014
  57.5869992  73.8319978  85.9730014  59.3569992  74.5249978  87.1610014
  59.9566982  74.3690846  87.9585925  59.4869992  75.7789978  86.4350014
  58.5010984  76.1911008  86.2198974  60.2629992  76.7859978  87.2740014
  59.7230537  76.9916738  88.1982608  61.2613406  76.4183450  87.5111639
  60.4419992  78.0859978  86.5900014  59.3649992  78.9179978  86.4030014
  58.3851925  78.6159391  86.7729192  59.5129992  80.1109978  85.7620014
  58.6554442  80.7680524  85.6171590  60.7459992  80.4829978  85.2990014
  60.8675027  81.4384086  84.7885830  61.8289992  79.6559978  85.4760014
  62.8088992  79.9520659  85.1015152  61.6779992  78.4709978  86.1170014
  62.5372099  77.8159414  86.2610776  60.1039992  75.7469978  85.0350014
  59.5649992  76.4299978  84.1500014  61.1599992  74.9299978  84.7060014
  62.1269992  74.2049978  85.5480014  61.5901718  73.5648278  86.2480721
  62.7334105  74.9209374  86.1027941  62.9239992  73.4309978  84.5640014
  62.4452471  72.4682710  84.3849696  63.9282234  73.2695177  84.9558680
  62.9619992  74.2339978  83.3610014  63.1133971  73.6271263  82.4683175
  63.7502963  74.9837994  83.4279718  61.5929992  74.9189978  83.2990014
  61.6873914  75.9619631  82.9966574  60.6639992  74.1939978  82.3350014
  60.9889992  74.0119978  81.1590014  59.4989992  73.7889978  82.8320014
  59.3689912  73.7328136  83.8320217  58.4069992  73.3769978  81.9730014
  58.7584383  72.6184647  81.2735608  57.2619992  72.7919978  82.7910014
  57.1179811  73.4995544  83.6075317  56.3833760  72.7986259  82.1459609
  57.4619992  71.3979978  83.3590014  58.4183900  71.3615311  83.8806217
  56.3479992  71.0539978  84.3240014  55.3912702  71.0898062  83.8029581
  56.5074300  70.0516088  84.7213664  56.3418475  71.7724768  85.1436664
  57.4939992  70.4099978  82.2180014  58.3158088  70.6568853  81.5458592
  57.6372150  69.4037950  82.6118878  56.5521117  70.4549425  81.6712594
  57.9299992  74.5679978  81.1670014  57.6889992  74.4639978  79.9630014
  57.8049992  75.7199978  81.8390014  58.0045867  75.7605356  82.8282541
  57.1989992  76.8949978  81.2030014  56.2832691  76.6479408  80.6658791
  56.8969992  77.9609978  82.2650014  57.8231693  78.1863277  82.7937128
  56.3409992  79.2349978  81.6530014  55.4145141  79.0105333  81.1244736
  56.1421718  79.9607875  82.4415430  57.0667173  79.6492871  80.9531465
  55.9349992  77.3999978  83.3100014  54.9544880  77.3167121  82.8412136
  56.2917077  76.4071065  83.5839090  55.8289992  78.2549978  84.5480014
  55.4718813  79.2479730  84.2749319  55.1293038  77.7974218  85.2473938
  56.8091022  78.3383692  85.0176261  57.9799992  77.4389978  80.0100014
  57.3479992  77.7219978  78.9800014  59.3159992  77.6019978  80.0360014
  60.2899992  77.6859978  81.1420014  60.6742909  76.6908936  81.3660277
  59.8024518  78.0944139  82.0272092  61.3329992  78.5909978  80.6030014
  62.2807716  78.4122256  81.1108075  61.0352952  79.6298180  80.7455716
  61.4179992  78.2679978  79.2010014  62.0514599  77.3960038  79.0383573
  61.8036570  79.1091322  78.6249279  59.9799992  77.9549978  78.7710014
  59.4759767  78.8403426  78.3834138  59.9549992  76.8579978  77.7200014
  59.6489992  77.1589978  76.5590014  60.0559992  75.5889978  78.1230014
  60.2300117  75.3662515  79.0926421  59.9979992  74.4919978  77.1600014
  60.7097215  74.6924173  76.3591377  60.3889992  73.1859978  77.8440014
  59.6801612  72.9670937  78.6425812  60.3761666  72.3755437  77.1152356
  61.3904905  73.2807097  78.2636968  58.6249992  74.3869978  76.5190014
  58.5239992  74.2609978  75.2910014  57.5749992  74.6039978  77.3080014
  57.6987657  74.7508196  78.2995782  56.2199992  74.5679978  76.7800014
  56.0967788  73.6714254  76.1724870  55.1779992  74.5489978  77.8940014
  55.4134381  75.3031871  78.6449117  54.1852788  74.7402388  77.4865299
  55.0619992  72.9809978  78.7790014  54.0995970  73.3632800  79.6135915
  55.9999992  75.7519978  75.8630014  55.2979992  75.6339978  74.8540014
  56.5639992  76.9099978  76.2130014  57.0091263  77.0636473  77.1065075
  56.3909992  78.0469978  75.3250014  55.3416245  77.9962730  75.0345900
  56.6639992  79.3909978  76.0340014  56.4315863  79.2549238  77.0902062
  58.0809992  79.8709978  75.8910014  58.3140166  80.0077555  74.8350181
  58.1982617  80.8199612  76.4142783  58.7598757  79.1338969  76.3198465
  55.8559992  80.4919978  75.3690014  56.3166269  80.6964592  74.4025034
  54.8468631  80.1093494  75.2162796  55.7939992  81.7629978  76.1740014
  56.8028002  82.1465203  76.3267466  55.2012157  82.5044320  75.6382942
  55.3330381  81.5594097  77.1405244  57.2349992  77.8299978  74.0720014
  56.9039992  78.3469978  73.0010014  58.3419992  77.0829978  74.1820014
  58.6326257  76.6978936  75.0693178  59.1899992  76.8529978  73.0170014
  59.3815113  77.7963050  72.5055389  60.5169992  76.2539978  73.4420014
  61.1240406  76.9856446  73.9751927  60.3491222  75.3870719  74.0810294
  61.3349992  75.7809978  72.2870014  61.9799992  76.6429978  71.4280014
  61.9607855  77.6500986  71.5020186  62.6169992  75.9449978  70.5070014
  63.1946515  76.4479419  69.7314603  62.4049992  74.6629978  70.7340014
  61.6049992  74.5339978  71.8420014  61.3146223  73.5434786  72.1922216
  58.5629992  75.9489978  71.9680014  58.4269992  76.3589978  70.8060014
  58.0549992  74.7819978  72.3930014  58.1090811  74.5423591  73.3726686
  57.4759992  73.8049978  71.4710014  58.2334894  73.5318319  70.7363667
  57.0599992  72.5499978  72.2320014  56.2951574  72.8058651  72.9652469
  56.6606476  71.8158110  71.5322956  57.9265322  72.1303298  72.7429795
  56.2969992  74.3759978  70.7160014  56.2679992  74.2929978  69.4790014
  55.4399992  75.1189978  71.4230014  55.5720593  75.2228509  72.4189302
  54.2709992  75.7409978  70.8120014  53.6608267  75.0277672  70.2578438
  53.4089992  76.4299978  71.8810014  54.0602043  77.0036491  72.5405139
  52.3959992  77.3549978  71.2440014  51.7440941  76.7819495  70.5846563
  51.7981765  77.8306427  72.0214786  52.9146426  78.1199745  70.6661442
  52.7429992  75.3869978  72.7720014  51.9974004  74.8695815  72.1682933
  53.5137124  74.6806792  73.0805701  52.0819992  75.9729978  73.9920014
  51.3107956  76.6791185  73.6842054  51.6290740  75.1743292  74.5794419
  52.8271078  76.4902184  74.5964814  54.7319992  76.7189978  69.7510014
  54.3349992  76.6049978  68.5810014  55.7079992  77.5639978  70.1120014
  56.0678633  77.5424365  71.0554697  56.2369992  78.5629978  69.1940014
  55.4259252  79.1762546  68.8013512  57.2369992  79.4719978  69.9010014
  58.0598188  78.8733605  70.2917715  57.6254564  80.2050326  69.1939928
  56.7414163  79.9881646  70.7232353  56.8789992  77.8629978  68.0130014
  56.5479992  78.1589978  66.8540014  57.6839992  76.8279978  68.3150014
  57.8533876  76.5928479  69.2825299  58.3849992  76.0699978  67.2870014
  58.9917741  76.7431505  66.6813704  59.2999992  75.0269978  67.9220014
  59.9992868  75.5578733  68.5679638  58.6743836  74.3704141  68.5266524
  60.0679992  74.2049978  66.9190014  60.6064301  73.4299372  67.4644132
  59.3474433  73.7408149  66.2456253  61.0429992  75.0249978  66.1210014
  61.4262997  74.4135359  65.3041207  60.5193655  75.8892928  65.7124657
  62.1649992  75.4939978  66.9180014  62.0731285  76.3886679  67.3775932
  63.3009992  74.8259978  67.0560014  64.2769992  75.3199978  67.7990014
  64.1545363  76.2092416  68.2619792  65.1404014  74.8057799  67.9000771
  63.4699992  73.6729978  66.4330014  62.7310999  73.3033296  65.8520770
  64.3372890  73.1667128  66.5406240  57.3749992  75.4339978  66.3540014
  57.5829992  75.3999978  65.1350014  56.2979992  74.8839978  66.9200014
  56.1964246  74.8336850  67.9236202  55.2579992  74.2969978  66.0920014
  55.6974835  73.5686976  65.4104359  54.2199992  73.5919978  66.9540014
  53.5393847  73.0338420  66.3110977  54.7247069  72.9039289  67.6321838
  53.4879992  74.5399978  67.7040014  52.8364624  74.0866824  68.2440058
  54.6009992  75.3779978  65.2480014  54.4329992  75.2169978  64.0330014
  54.1419992  76.4499978  65.9100014  54.1959234  76.4666995  66.9184223
  53.4769992  77.5619978  65.2330014  52.5875516  77.2019685  64.7159319
  53.0569992  78.6239978  66.2430014  53.9245579  78.7669753  66.8872053
  52.8311018  79.5567881  65.7263074  51.8579992  78.2089978  67.0900014
  52.0934396  77.2778585  67.6054121  51.5319992  79.2789978  68.1070014
  51.2959838  80.2103784  67.5922920  50.6742086  78.9659716  68.7022414
  52.3904239  79.4332188  68.7607777  50.6609992  77.9249978  66.2080014
  50.9022655  77.1182373  65.5158834  49.8141496  77.6302638  66.8277423
  50.4034286  78.8217004  65.6443695  54.3049992  78.1949978  64.1260014
  53.7919992  78.4559978  63.0350014  55.5849992  78.4459978  64.3760014
  56.0533840  78.2036567  65.2373874  56.3209992  79.2099978  63.3830014
  55.6526544  79.5848373  62.6078178  56.9729992  80.3969978  64.0790014
  57.5926598  80.0576395  64.9090351  57.5990930  80.8953350  63.3388888
  55.9379992  81.3589978  64.5880014  55.3719992  82.2979978  63.7470014
  55.6979514  82.3405837  62.7077512  54.4109992  83.1709978  64.2030014
  53.9794841  83.9172679  63.5359351  53.9959992  83.0969978  65.5130014
  53.0379992  83.9629978  65.9740014  52.7296085  84.5740909  65.3009041
  54.5319992  82.1629978  66.3630014  54.1992982  82.1031233  67.3992570
  55.4939992  81.2999978  65.9000014  55.9221395  80.5521830  66.5675110
  57.3589992  78.4599978  62.5650014  57.1469992  78.2589978  61.3640014
  58.5009992  78.1239978  63.1750014  58.6426085  78.3414591  64.1510940
  59.6099992  77.5279978  62.4290014  59.8770349  78.1601218  61.5821187
  60.8239992  77.3929978  63.3370014  60.8069673  78.2428851  64.0192776
  60.7277729  76.4685856  63.9064771  62.1219992  77.3829978  62.5830014
  62.6999992  78.5679978  62.1530014  62.1988600  79.5106435  62.3729519
  63.8919992  78.5659978  61.4560014  64.3474855  79.5026402  61.1345437
  64.5089992  77.3709978  61.1770014  65.6939992  77.3449978  60.4800014
  66.0042759  78.2197823  60.2348887  63.9439992  76.1849978  61.5830014
  64.4291152  75.2364216  61.3528578  62.7569992  76.1999978  62.2850014
  62.3063450  75.2635327  62.6137020  59.2119992  76.1899978  61.8050014
  59.3359992  76.0059978  60.5890014  58.6669992  75.2759978  62.6210014
  58.6688017  75.4984930  63.6061877  58.1839992  73.9439978  62.2050014
  58.0250766  73.3155180  63.0812753  56.8569992  74.0749978  61.4490014
  56.2580776  74.8642794  61.9033435  57.0799922  74.3383371  60.4150640
  56.0489992  72.7839978  61.4590014  56.4749992  71.7669978  62.0030014
  54.8609992  72.8289978  60.8640014  54.2803799  72.0029405  60.8392979
  54.5445294  73.6890367  60.4394065  59.2039992  73.1359978  61.3960014
  58.8899992  72.5669978  60.3520014  60.4469992  73.1119978  61.8590014
  60.7081509  73.6301453  62.6856950  61.4779992  72.3479978  61.1680014
  61.4157359  72.5325421  60.0955436  62.8689992  72.7559978  61.6540014
  62.8883412  73.8435365  61.7246037  63.0144886  72.3254566  62.6447421
  63.9789992  72.2899978  60.7330014  63.6799992  71.6659978  59.6940014
  65.1569992  72.5469978  61.0490014  61.2799992  70.8559978  61.4090014
  60.6419992  70.4349978  62.3740014  61.8019992  70.0469978  60.4910014
  62.2825654  70.4031883  59.6771932  61.6769992  68.6069978  60.6420014
  60.6574638  68.3520951  60.9312613  62.0009992  67.9039978  59.3250014
  63.0364270  68.1190366  59.0609049  61.8755743  66.8291294  59.4554870
  61.1119992  68.3589978  58.1970014  61.5799992  68.9659978  57.2330014
  59.8219992  68.0759978  58.3070014  59.1822175  68.3585570  57.5783456
  59.4845950  67.5790623  59.1189831  62.6489992  68.1769978  61.7260014
  63.8359992  68.5099978  61.6600014  62.1129992  67.5259978  62.7590014
  61.1049258  67.4957411  62.7044869  62.7599992  66.9659978  63.9440014
  62.0155318  66.3764599  64.4790832  63.9739992  66.0749978  63.6530014
  64.4168452  66.3634120  62.6996893  64.7115787  66.1944479  64.4466060
  63.5539992  64.3699978  63.7060014  63.1689992  68.0309978  64.9420014
  63.7019992  67.6669978  65.9960014  62.8509992  69.3029978  64.6880014
  62.4105768  69.4868710  63.7978789  63.1759992  70.4389978  65.5480014
  63.0069781  71.3667216  65.0013208  62.3089992  70.4489978  66.8070014
  62.3417413  69.4667823  67.2784670  62.6601723  71.2019906  67.5125363
  60.8729992  70.7479978  66.5440014  60.3189992  71.1009978  65.3580014
  60.9926496  71.1684501  64.5037502  58.9719992  71.3039978  65.5040014
  58.3339041  71.5868142  64.7739679  58.6349992  71.0799978  66.8110014
  57.4059992  71.1689978  67.4420014  56.5336891  71.4534996  66.8535862
  57.3679992  70.8909978  68.7760014  56.4173555  70.9439049  69.3066400
  58.5189992  70.5389978  69.4830014  58.4739810  70.3199539  70.5498157
  59.7379992  70.4579978  68.8600014  60.6058057  70.1719972  69.4543215
  59.8099992  70.7349978  67.4970014  64.6609992  70.4679978  65.9050014
  65.0439992  70.6499978  67.0620014  65.5099992  70.2759978  64.8970014
  65.1742328  70.0690187  63.9672058  66.9509992  70.2809978  65.1270014
  67.0466542  70.5788234  66.1711515  67.6049992  68.8989978  64.9250014
  67.5422575  68.6328551  63.8698560  69.0669992  68.9179978  65.3580014
  69.1305234  69.1836279  66.4132294  69.5045686  67.9314405  65.2052322
  69.6124381  69.6525264  64.7654954  66.9619992  67.8589978  65.8290014
  67.1964265  68.1352263  66.8570299  65.8846746  67.9180243  65.6741244
  67.4309992  66.4479978  65.5680014  68.5082370  66.3880765  65.7231404
  66.9273881  65.7648115  66.2519104  67.1964869  66.1708753  64.5402335
  67.5359992  71.3299978  64.1930014  68.1239992  71.0139978  63.1540014
  67.2749992  72.5889978  64.5030014  66.6761417  72.7867677  65.2918969
  67.7909992  73.7059978  63.7340014  68.3973742  73.3255581  62.9120074
  66.6709992  74.5569978  63.1580014  66.0497137  73.9343601  62.5142423
  66.0672642  74.9476313  63.9771531  67.1989992  75.6349978  62.4050014
  66.4783562  76.1604072  62.0497291  68.6639992  74.5279978  64.6610014
  68.2309992  74.9039978  65.7530014  69.8839992  74.8099978  64.2330014
  70.2088663  74.4677307  63.3400210  70.8059992  75.5679978  65.0550014
  70.4206742  75.6496147  66.0713491  72.1659992  74.8629978  65.1020014
  72.5553735  74.7716214  64.0880304  72.8547303  75.4567671  65.7029903
  72.0319992  73.5779978  65.6720014  72.8896984  73.1474271  65.6956853
  70.9949992  76.9929978  64.5760014  71.5419992  77.8109978  65.3220014
  70.5429992  77.3159978  63.3730014  70.1246426  76.6050487  62.7902250
  70.6989992  78.6509978  62.8250014  71.5517647  79.1504574  63.2848170
  70.9399992  78.5609978  61.3170014  70.9246585  79.5758733  60.9196456
  71.9247400  78.1227191  61.1548364  69.8919992  77.7249978  60.6080014
  69.0339992  77.1259978  61.2920014  69.9299992  77.6599978  59.3620014
  69.5199992  79.5639978  63.1160014  69.4769992  80.6809978  62.5940014
  68.5699992  79.1279978  63.9290014  68.5968697  78.2088079  64.3466942
  67.4299992  79.9779978  64.2110014  67.2916235  80.7017521  63.4078009
  66.1579992  79.1459978  64.3420014  65.9957960  78.6020162  63.4114777
  66.2749992  78.1619978  65.4880014  66.4367623  78.7053015  66.4189974
  65.3566860  77.5795679  65.5626694  67.1158489  77.4921628  65.3080194
  65.0449992  80.0149978  64.5740014  64.2434423  79.4932107  64.6567360
  67.6429992  80.7719978  65.4900014  68.4739992  80.4349978  66.3350014
  66.8879992  81.8589978  65.6140014  66.3158363  82.1664777  64.8405772
  66.9119992  82.6699978  66.8170014  67.8398371  82.4923221  67.3607361
  66.8259992  84.1539978  66.4710014  66.0194827  84.3401770  65.7617993
  66.6522874  84.7328301  67.3781274  68.0719992  84.6939978  65.8520014
  68.3159992  84.6349978  64.4990014  67.6859191  84.2353871  63.8182592
  69.4919992  85.1789978  64.2430014  69.8690084  85.2311112  63.2216067
  70.0189992  85.5859978  65.3820014  69.1509992  85.2929978  66.4050014
  69.4108880  85.5521934  67.4313429  65.7989992  82.2839978  67.7620014
  65.3779992  83.1009978  68.5850014  65.3149992  81.0529978  67.6590014
  65.6831106  80.4214721  66.9620304  64.1969992  80.6089978  68.4660014
  63.6282582  81.4661145  68.8265341  63.2729992  79.7289978  67.6230014
  63.1789947  80.2388976  66.6642186  63.8386320  78.8068471  67.4895939
  61.8889992  79.4009978  68.1600014  61.9787346  78.7814658  69.0523178
  61.1799992  80.6809978  68.5080014  61.0894699  81.3008989  67.6160228
  60.1863744  80.4532405  68.8939250  61.7496063  81.2177996  69.2666134
  61.1189992  78.6819978  67.0810014  61.6415265  77.7642632  66.8111352
  60.1218137  78.4375287  67.4470030  61.0363061  79.3237649  66.2038493
  64.6759992  79.8959978  69.7130014  63.9409992  79.8349978  70.7000014
  65.8959992  79.3549978  69.6830014  66.4423938  79.3982710  68.8346620
  66.4549992  78.6519978  70.8290014  65.7219902  77.9466307  71.2204785
  67.7049992  77.8829978  70.4310014  68.3463134  78.5835731  69.8962027
  68.2059374  77.5553184  71.3419280  67.4229992  76.6799978  69.5480014
  66.8490715  77.0022007  68.6791556  68.7139992  76.0529978  69.0920014
  69.2883053  75.7301028  69.9603391  68.4969547  75.1919139  68.4599200
  69.2925168  76.7824983  68.5252150  66.6109992  75.6889978  70.3370014
  65.6735458  76.1510717  70.6464657  66.3988376  74.8174084  69.7177918
  67.1715442  75.3795875  71.2191315  66.7809992  79.6129978  71.9570014
  66.9799992  79.1709978  73.0930014  66.8759992  80.9089978  71.6390014
  66.7581346  81.1808205  70.6734344  67.2139992  81.9409978  72.6110014
  68.1625278  81.6954219  73.0885842  67.3449992  83.3009978  71.9400014
  66.5424962  83.3798005  71.2065996  67.2125171  84.0648024  72.7062592
  68.6669992  83.5009978  71.2580014  69.7889992  83.8379978  71.9930014
  69.6933625  83.9533947  73.0726480  71.0019992  84.0259978  71.3900014
  71.8795460  84.2814967  71.9839155  71.1119992  83.8839978  70.0270014
  72.3309992  84.0829978  69.4220014  73.0249711  84.3143942  70.0436592
  70.0119992  83.5519978  69.2670014  70.0954348  83.4400158  68.1859839
  68.7959992  83.3609978  69.8880014  67.9185787  83.0956370  69.2982413
  66.1919992  81.9969978  73.7270014  66.5199992  82.4249978  74.8330014
  64.9239992  81.7359978  73.4110014  64.6546918  81.6356804  72.4427508
  63.8719992  81.7679978  74.4220014  63.9329151  82.7311909  74.9286054
  62.4749992  81.6079978  73.7890014  61.7100141  81.9456746  74.4881957
  62.4139992  82.4479978  72.5300014  63.1784429  82.1105861  71.8300872
  61.4307840  82.3446975  72.0709617  62.5888141  83.4940347  72.7816873
  62.1149992  80.1969978  73.3700014  62.7648956  79.8925700  72.5495996
  62.2609482  79.5261261  74.2166002  60.6979992  80.1349978  72.9280014
  60.5513761  80.8053086  72.0810746  60.4540671  79.1152667  72.6301008
  60.0474285  80.4388672  73.7480752  64.1799992  80.7659978  75.5380014
  63.7659992  80.9699978  76.6790014  64.7039992  79.5869978  75.1990014
  64.7928933  79.3058695  74.2329973  65.0939992  78.6349978  76.2360014
  64.3461485  78.6191066  77.0288229  65.2439992  77.2289978  75.6480014
  65.9303434  77.2711830  74.8022754  65.7819992  76.2729978  76.6850014
  65.0959129  76.2299249  77.5308920  65.8812485  75.2796421  76.2474003
  66.7578611  76.6181469  77.0265640  63.9029992  76.7409978  75.1450014
  63.2411910  76.6043640  76.0002452  63.4859381  77.4979618  74.4807988
  64.0319992  75.4779978  74.4230014  64.4485937  74.7203688  75.0867386
  63.0504755  75.1557234  74.0753673  64.6933430  75.6139662  73.5672930
  66.3859992  79.0719978  76.9310014  66.4629992  79.1289978  78.1640014
  67.4079992  79.4219978  76.1430014  67.2366602  79.4864292  75.1497286
  68.7709992  79.6509978  76.6290014  69.0224567  78.9131240  77.3908482
  69.7659992  79.5269978  75.4850014  69.4185196  80.1015725  74.6263856
  70.7474028  79.8894159  75.7909429  69.9569992  78.1269978  75.0120014
  70.7039992  77.2059978  75.7090014  70.6969992  76.0549978  75.0610014
  71.2353732  75.1922704  75.4533709  69.9709992  76.1989978  73.9680014
  69.7900134  75.4850457  73.2769035  69.4939992  77.4849978  73.9150014
  68.8654943  77.7992503  73.0817379  68.9809992  80.9889978  77.3180014
  69.9179992  81.1279978  78.1080014  68.1709992  81.9769978  77.0050014
  67.5126199  81.8394605  76.2515299  68.1759992  83.2469978  77.6840014
  69.1612084  83.6907876  77.5407786  67.4225571  83.8751456  77.2087598
  67.8839992  83.1639978  79.1670014  68.5979992  83.7669978  79.9680014
  66.8079992  82.4829978  79.5680014  65.5439992  82.3549978  78.8370014
  65.6347522  81.5538948  78.1034498  65.3304332  83.2932718  78.3250147
  64.5469992  82.0479978  79.8980014  63.7979952  81.3636762  79.4995093
  64.0627353  82.9720489  80.2137853  65.2799992  81.4499978  80.9910014
  65.4781074  80.3938432  80.8082733  64.7745680  81.5637134  81.9500153
  66.5929992  82.2309978  80.9980014  66.5074047  83.2044210  81.4809290
  67.6849992  81.4309978  81.6690014  67.9469992  81.6509978  82.8610014
  68.4329992  80.6359978  80.9120014  68.1756591  80.4230314  79.9588379
  69.5989992  79.9789978  81.4730014  69.4505618  79.5672825  82.4712780
  70.0609992  78.8659978  80.5250014  69.9606438  79.2198183  79.4989214
  71.4869992  78.4869978  80.7850014  71.5880593  78.1326151  81.8108184
  71.7844610  77.6957659  80.0968378  72.1273996  79.3564892  80.6367746
  69.0889992  77.6959978  80.6200014  69.2472350  77.2288519  81.5920287
  68.0830750  78.1136336  80.5776184  69.2479992  76.6749978  79.5470014
  70.2536002  76.2565500  79.5890486  68.5174655  75.8789673  79.6910677
  69.0894423  77.1413326  78.5746376  70.6869992  81.0029978  81.7450014
  71.3059992  80.9979978  82.8160014  70.9199992  81.9079978  80.7980014
  70.4244986  81.9049745  79.9179053  71.9609992  82.9039978  81.0000014
  72.8735919  82.4249580  81.3546770  72.2619992  83.6119978  79.6890014
  71.3624990  84.0478392  79.2542132  73.0157214  84.3887771  79.8179076
  72.9109992  82.4919978  78.4630014  73.0505484  83.4021243  77.5032649
  71.5659992  83.9109978  82.0660014  72.4329992  84.4189978  82.7750014
  70.2679992  84.1719978  82.2260014  69.5837637  83.8360117  81.5634048
  69.8099992  85.0079978  83.3280014  70.3775886  85.9385279  83.3205672
  68.3309992  85.3379978  83.1580014  67.7486307  84.4167300  83.1725776
  68.0066124  85.9852143  83.9728537  68.1790417  85.8482721  82.2068819
  70.0569992  84.3369978  84.6710014  70.4999992  84.9929978  85.6240014
  69.8339992  83.0219978  84.7480014  69.4331897  82.5061127  83.9777329
  70.1219992  82.3049978  85.9850014  69.6309783  82.8128723  86.8150985
  69.5779992  80.8839978  85.8930014  70.0668565  80.3596969  85.0718881
  69.7742870  80.3580502  86.8273196  68.5033093  80.9167016  85.7139167
  71.6149992  82.2759978  86.2830014  72.0299992  82.4289978  87.4370014
  72.4339992  82.1309978  85.2480014  72.0750649  81.9184190  84.3281777
  73.8809992  82.1659978  85.4350014  74.1656698  81.5464073  86.2853951
  74.5719992  81.6299978  84.1900014  73.8948792  81.8543704  83.3658263
  75.4945749  82.1971350  84.0662694  74.8909992  80.1309978  84.1950014
  75.5542448  79.9537745  85.0416407  73.6819992  79.2229978  84.3020014
  73.0184666  79.3993287  83.4554019  74.0068666  78.1825439  84.2978036
  73.1500337  79.4332492  85.2298524  75.6149992  79.8279978  82.9190014
  76.5323771  80.4148545  82.8729960  75.8610370  78.7667239  82.8834457
  74.9791237  80.0816359  82.0708098  74.3939992  83.5529978  85.8070014
  75.3599992  83.6639978  86.5680014  73.7649992  84.6179978  85.3130014
  73.0481955  84.5407859  84.6056613  74.1689992  85.9519978  85.7460014
  75.2555494  86.0350220  85.7212030  73.5779992  87.0139978  84.8250014
  72.5259618  86.7361736  84.7607360  73.6668750  87.9910213  85.3000028
  74.1749992  87.0749978  83.4200014  74.0938927  86.0910354  82.9581135
  73.4389992  88.0929978  82.5720014  73.5200575  89.0773606  83.0330420
  73.8785846  88.1220100  81.5749940  72.3882891  87.8127843  82.4972414
  75.6569992  87.3789978  83.4690014  76.1700547  86.5988606  84.0313709
  76.0545190  87.4162214  82.4547561  75.8151493  88.3411370  83.9562137
  73.7709992  86.2199978  87.1920014  74.5119992  86.8869978  87.9290014
  72.6239992  85.6949978  87.6250014  71.9521604  85.2846069  86.9922999
  72.2649992  85.8119978  89.0350014  72.3927633  86.8424723  89.3665101
  70.7939992  85.4089978  89.2380014  70.6494115  84.4080095  88.8315338
  70.4209992  85.4169978  90.6910014  70.5648942  86.4178370  91.0980840
  69.3757095  85.1278465  90.7999111  71.0509882  84.7111308  91.2322660
  69.9029992  86.3799978  88.5150014  70.1389579  86.3674644  87.4509204
  68.8610050  86.0942996  88.6589605  70.0620133  87.3833502  88.9100956
  73.2249992  84.9999978  89.9050014  73.6189992  85.4409978  90.9960014
  73.6809992  83.8459978  89.4070014  73.3116599  83.4596005  88.5500388
  74.6839992  83.0759978  90.1380014  74.3622482  82.9561031  91.1725065
  74.8829992  81.6949978  89.5270014  74.8726331  81.8117956  88.4433271
  75.8429195  81.2830327  89.8383500  73.8019992  80.7349978  89.9150014
  73.3119992  80.7659978  91.0370014  73.4399992  79.8479978  89.0020014
  72.7148456  79.1774916  89.2133623  73.8905503  79.8456542  88.0980661
  76.0189992  83.8059978  90.2030014  76.7179992  83.7229978  91.2150014
  76.3859992  84.5339978  89.1490014  75.8643947  84.5282244  88.2841346
  77.6259992  85.3049978  89.2050014  78.4350512  84.6845668  89.5904873
  78.0039992  85.7859978  87.8070014  77.9762577  84.8982791  87.1751113
  77.1943298  86.4584875  87.5236412  79.3439992  86.4979978  87.6260014
  80.0092964  86.2459891  88.4518175  79.9619992  86.0539978  86.3330014
  79.2974438  86.3061006  85.5066183  80.9190473  86.5572248  86.1954427
  80.1191340  84.9756333  86.3562164  79.1719992  88.0029978  87.5720014
  78.7199790  88.3511140  88.5007599  80.1454383  88.4760580  87.4426501
  78.5267167  88.2656240  86.7337074  77.5199992  86.4749978  90.1750014
  78.4919992  86.7929978  90.8720014  76.3539992  87.1199978  90.2470014
  75.5951902  86.9212164  89.6107671  76.1739992  88.1889978  91.2280014
  76.9947835  88.9030916  91.1610498  74.8679992  88.9219978  90.9550014
  74.9205600  89.4914659  90.0270776  74.0607569  88.1926476  90.8878588
  74.4839992  89.8859978  92.0260014  75.2039992  91.0459978  92.2180014
  76.0638511  91.2521221  91.5806103  74.8459992  91.9419978  93.2050014
  75.4283095  92.8507660  93.3571723  73.7479992  91.6849978  94.0000014
  73.4612687  92.3914857  94.7789497  73.0139992  90.5349978  93.8090014
  72.1458803  90.3287422  94.4350432  73.3799992  89.6439978  92.8230014
  72.7970381  88.7367190  92.6645673  76.1939992  87.6589978  92.6550014
  76.7819992  88.2869978  93.5570014  75.6969992  86.4389978  92.8390014
  75.1988424  85.9497264  92.1092394  75.8079992  85.8039978  94.1440014
  75.4999893  86.4997469  94.9244899  74.9109992  84.5749978  94.2060014
  75.0692962  83.9541295  93.3242056  75.1292728  83.9945144  95.1023806
  73.4509992  84.8939978  94.2480014  73.0079992  86.1659978  94.5750014
  73.7403800  86.9401928  94.8037817  71.6669992  86.4569978  94.6130014
  71.3288276  87.4602328  94.8723471  70.7489992  85.4759978  94.3220014
  69.6834059  85.7040386  94.3466625  71.1749992  84.2039978  93.9990014
  70.4464097  83.4255696  93.7724912  72.5179992  83.9189978  93.9630014
  72.8553131  82.9145133  93.7074040  77.2469992  85.4359978  94.4460014
  77.6859992  85.5479978  95.5940014  77.9949992  84.9999978  93.4330014
  77.6113658  84.8841759  92.5059038  79.3779992  84.6129978  93.6600014
  79.4456539  83.9284834  94.5055557  79.9199992  83.9079978  92.4160014
  79.1215926  83.1869986  92.2404846  79.9002662  84.6684000  91.6352971
  81.2699992  83.1889978  92.3930014  81.1995066  82.4048848  91.6391457
  82.4619992  84.0909978  92.0790014  82.5334226  84.8751381  92.8327399
  83.3772819  83.4991031  92.0833605  82.3271303  84.5433487  91.0965100
  81.4649992  82.5159978  93.7210014  80.6613008  81.7985960  93.8868413
  82.4228490  81.9958303  93.7281338  81.4526060  83.2643180  94.5134422
  80.2229992  85.8239978  94.0210014  81.1419992  85.7129978  94.8370014
  79.9139992  86.9799978  93.4320014  79.2377682  87.0202030  92.6828723
  80.5989992  88.2089978  93.8110014  81.6774419  88.0619946  93.7522588
  80.2109992  89.3519978  92.8770014  79.1211890  89.3361471  92.8897126
  80.5650652  90.2938787  93.2960453  80.7039992  89.2179978  91.4410014
  80.3277415  88.2856201  91.0200470  80.2119992  90.3829978  90.6070014
  80.5882584  91.3157600  91.0270998  80.5711260  90.2751058  89.5835328
  79.1220992  90.3975749  90.6094295  82.2149992  89.1109978  91.3990014
  82.5334907  88.2342651  91.9629184  82.5444287  89.0162236  90.3643057
  82.6554839  90.0054302  91.8395273  80.3069992  88.5869978  95.2550014
  81.2149992  88.9999978  95.9890014  79.0589992  88.3919978  95.7040014
  78.2987103  88.0923279  95.1104881  78.7669992  88.6949978  97.1060014
  79.1688612  89.6742385  97.3661817  77.2619992  88.7089978  97.3390014
  76.8163824  87.8631294  96.8155213  77.0693735  88.6165274  98.4078534
  76.6219992  89.9679978  96.8450014  77.1529992  91.0559978  97.0420014
  75.4749992  89.8409978  96.1980014  75.0041904  90.6619196  95.8451186
  75.0754727  88.9237087  96.0599438  79.4329992  87.7169978  98.0700014
  79.9119992  88.1229978  99.1370014  79.5189992  86.4389978  97.6980014
  79.0639257  86.1120837  96.8576833  80.1839992  85.4569978  98.5530014
  79.8480909  85.5718997  99.5835655  79.8649992  84.0339978  98.0660014
  80.1690938  83.9526773  97.0224432  80.5849992  82.9869978  98.8830014
  80.2810465  83.0673970  99.9266725  80.3330113  81.9953898  98.5070809
  81.6611867  83.1416812  98.8055884  78.3719992  83.7969978  98.1590014
  77.8891171  84.4973386  97.4774969  78.1838279  82.7768697  97.8242931
  77.8199992  83.9789978  99.5310014  78.0073927  84.9990984  99.8662302
  76.7461260  83.7925916  99.5188286  78.3021055  83.2786306 100.2130272
  81.6849992  85.7089978  98.6310014  82.2869992  85.6079978  99.7090014
  82.3059992  86.0769978  97.5100014  81.8304774  86.0491624  96.6193817
  83.7249992  86.4139978  97.5260014  84.2865038  85.6394986  98.0484599
  84.2549992  86.5179978  96.0840014  83.5719142  87.1481423  95.5144297
  85.6469992  87.1089978  96.0330014  86.3307896  86.4791073  96.6020089
  85.9812740  87.1638275  94.9969732  85.6331082  88.1104013  96.4632337
  84.3039992  85.1379978  95.4730014  83.3023963  84.7080904  95.4644519
  84.6786299  85.2053894  94.4516250  84.9663913  84.5029395  96.0612518
  83.9829992  87.6769978  98.3380014  84.9619992  87.7469978  99.0880014
  83.0749992  88.6579978  98.2750014  82.2729002  88.6087667  97.6631904
  83.2599992  89.8639978  99.0790014  84.2563516  90.2753753  98.9172924
  82.2289992  90.9119978  98.6760014  82.3258084  91.0651630  97.6011677
  81.2444658  90.4994611  98.8964723  82.3919992  92.2329978  99.3890014
  82.3541672  92.0517871 100.4631673  83.3642638  92.6492521  99.1253044
  81.3029992  93.2119978  99.0040014  81.5664823  94.1990189  99.3840871
  81.2311708  93.2490896  97.9170036  80.0039992  92.8349978  99.5450014
  79.9816994  92.0741505 100.2088639  78.8589992  93.4249978  99.2180014
  77.7199992  93.0189978  99.7620014  77.7242370  92.2587403 100.4269003
  76.8534025  93.4718632  99.5089744  78.8489992  94.4219978  98.3430014
  79.7147801  94.7320165  97.9253749  77.9756518  94.8664769  98.0984582
  83.1449992  89.5829978 100.5730014  83.9639992  90.0739978 101.3660014
  82.1759992  88.7549978 100.9650014  81.4683956  88.4383088 100.3176186
  82.0459992  88.3809978 102.3690014  82.0706996  89.2676885 103.0024592
  80.7089992  87.6529978 102.5940014  80.6305243  86.8424634 101.8694499
  80.6149992  87.0889978 103.9920014  80.6929353  87.8990503 104.7171510
  79.6582498  86.5817272 104.1161282  81.4258828  86.3786207 104.1530412
  79.5749992  88.6259978 102.3810014  79.6144376  89.0135124 101.3629744
  78.6242265  88.1168611 102.5388324  79.6662197  89.4513030 103.0871538
  83.2429992  87.5609978 102.8440014  83.7589992  87.7829978 103.9440014
  83.7539992  86.6629978 102.0010014  83.3151110  86.4627994 101.1136475
  84.9219992  85.8729978 102.3910014  84.7839602  85.4640922 103.3919213
  85.1059992  84.7199978 101.4160014  84.1557984  84.1891890 101.3571829
  85.3206548  85.1872684 100.4549181  86.2129992  83.7389978 101.7600014
  87.1760765  84.2487636 101.7331338  85.9769992  83.1949978 103.1280014
  85.0142490  82.6846518 103.1555301  86.7688037  82.4898254 103.3807430
  85.9751692  84.0122563 103.8492404  86.1699992  82.6289978 100.7840014
  86.3190251  83.0226062  99.7785348  86.9582560  81.9119920 101.0134685
  85.2009743  82.1330077 100.8395297  86.1939992  86.7119978 102.4950014
  87.0419992  86.4439978 103.3570014  86.3299992  87.7379978 101.6540014
  85.7031722  87.8530883 100.8704573  87.4529992  88.6609978 101.7830014
  88.3878853  88.1085433 101.8772416  87.5259992  89.5869978 100.5550014
  86.5235190  89.9612061 100.3473914  88.4609992  90.7529978 100.7870014
  89.4638475  90.3795653 100.9942312  88.4849279  91.3827368  99.8976438
  88.1090086  91.3381872 101.6365632  87.9969992  88.8029978  99.3330014
  89.0523034  88.5717545  99.4777789  87.4242226  87.8763436  99.2964172
  87.8209992  89.5519978  98.0410014  88.3938964  90.4786139  98.0766578
  88.1755278  88.9378679  97.2132013  86.7658152  89.7832051  97.8952973
  87.3499992  89.4329978 103.0890014  88.3429992  89.5909978 103.8100014
  86.1419992  89.8809978 103.4430014  85.3412332  89.8102583 102.8315532
  85.9759992  90.5599978 104.7260014  86.7492097  91.3166658 104.8590367
  84.6119992  91.2349978 104.8220014  84.5065417  91.6768849 105.8128167
  84.4729992  92.3159978 103.7700014  84.5778873  91.8747653 102.7788345
  83.4925351  92.7842463 103.8567925  85.2484146  93.0679456 103.9163097
  83.5809992  90.2579978 104.6520014  82.7230059  90.6843389 104.7126727
  86.1589992  89.6229978 105.9170014  86.4749992  90.0969978 107.0100014
  85.9699992  88.3179978 105.7410014  85.6435224  87.9514816 104.8582908
  86.1839992  87.3839978 106.8410014  86.0161305  87.8939563 107.7896118
  85.2229992  86.1939978 106.7480014  85.3726949  85.7515215 105.7631638
  85.5333770  85.4848237 107.5153590  83.7599992  86.5279978 106.9330014
  83.4971508  87.3191149 106.2307584  83.1737052  85.6363115 106.7110627
  83.4649992  86.9859978 108.3390014  83.8591443  86.2499953 109.0397503
  83.9540174  87.9454860 108.5073558  81.9739992  87.1359978 108.5510014
  81.4884665  86.2131775 108.2335724  81.7934992  87.2937547 109.6143131
  81.4199992  88.2749978 107.7820014  81.5867695  88.1288045 106.7966513
  80.4261617  88.3422558 107.9489246  81.8694686  89.1302589 108.0762886
  87.6019992  86.8349978 106.9240014  87.9499992  86.2519978 107.9550014
  88.4269992  86.9849978 105.8930014  88.1204832  87.4009790 105.0251841
  89.7939992  86.4819978 105.9740014  89.8796808  85.7895360 106.8114108
  90.1809992  85.7489978 104.6940014  89.7354320  86.3283461 103.8853453
  91.2668285  85.8287409 104.6418863  89.7739992  84.2939978 104.5570014
  88.7008708  84.2027946 104.7248648  90.1099992  83.7959978 103.1750014
  91.1830992  83.8864607 103.0065623  89.8151956  82.7506373 103.0832790
  89.5750867  84.3901673 102.4341022  90.5459992  83.5159978 105.5940014
  90.3003665  83.8909422 106.5875711  90.2812216  82.4606597 105.5287666
  91.6148980  83.6335631 105.4158645  90.8339992  87.5519978 106.2520014
  92.0139992  87.2179978 106.3930014  90.4429992  88.8199978 106.3440014
  89.4931385  89.0768278 106.1161807  91.3809992  89.8789978 106.6860014
  92.4030763  89.5308983 106.5367217  91.1479992  91.1009978 105.8020014
  90.0842691  91.3358187 105.8399039  91.7173703  91.9274545 106.2273084
  91.5669992  90.8879978 104.3610014  92.6169696  90.5957380 104.3452771
  90.9608886  90.0863267 103.9390354  91.3809992  92.1489978 103.5380014
  90.3287452  92.4321968 103.5636670  91.9819198  92.9455929 103.9766701
  91.8099992  91.9259978 102.0980014  92.8639967  91.6481781 102.0955212
  91.2180221  91.1072684 101.6889240  91.6159992  93.1439978 101.2630014
  92.1647909  93.9026533 101.6416428  91.9123210  92.9538850 100.3163492
  90.6393393  93.4013521 101.2648196  91.3079992  90.2569978 108.1580014
  91.5219992  91.4209978 108.5100014  91.0009992  89.2989978 109.0280014
  90.7335155  88.3822144 108.6992767  90.9669992  89.5559978 110.4630014
  91.2714712  90.5793711 110.6823257  89.5599992  89.3289978 111.0360014
  89.2200165  88.3287059 110.7678093  89.5869992  89.4649978 112.5420014
  89.9264656  90.4652559 112.8109762  88.5853569  89.3025359 112.9400205
  90.2686652  88.7253592 112.9619631  88.5829992  90.3199978 110.4360014
  88.5519285  90.1907594 109.3541354  87.5896858  90.1481456 110.8506035
  88.9036735  91.3348868 110.6710958  91.9909992  88.6839978 111.1720014
  92.9139992  89.1979978 111.8130014  91.8349992  87.3639978 111.0370014
  91.0296042  87.0744015 110.5007439  92.6839992  86.3219978 111.6400014
  92.2034586  85.3509317 111.5207934  94.0819992  86.2649978 110.9840014
  94.6264381  85.4068007 111.3779357  93.9499992  86.1319978 109.4770014
  93.4060335  86.9901249 109.0822624  94.9419620  86.0929078 109.0269115
  93.4071202  85.2173624 109.2386215  94.8119992  87.4589978 111.2880014
  95.6789360  87.4171991 110.8777895  92.8749992  86.4759978 113.1500014
  93.8699992  87.0369978 113.6080014  99.4429992  84.6399978  99.9860014
  99.7793012  84.2920195  99.0994850  98.7189992  83.7239978 100.8580014
  98.8456069  82.7013455 100.5026819  99.2449992  83.8119978 102.2910014
  99.2855102  84.8687764 102.5549659  98.5438317  83.3000355 102.9500603
 100.6369992  83.2039978 102.4900014 101.2059992  83.1929978 103.5830014
 101.2259992  82.6889978 101.3870014 102.1443620  82.2742716 101.4556441
 100.7448789  82.7214135 100.4995482  97.2269992  84.0159978 100.8330014
  96.4139992  83.1239978 100.6080014  96.8799992  85.2799978 101.0780014
  97.5818470  85.9796596 101.2728924  95.4779992  85.6739978 101.1320014
  94.9022485  84.9573838 101.7177271  95.3699992  87.0499978 101.7980014
  95.9371391  86.8416629 102.7052214  95.9503060  87.7070338 101.1501991
  94.0469992  87.7349978 102.1680014  94.2649497  88.4061975 102.9987177
  93.3839992  88.5259978 101.0320014  93.1653127  87.8553305 100.2010500
  92.4568344  88.9719247 101.3920228  94.0583392  89.3132820 100.6950300
  93.1029992  86.6899978 102.6940014  93.5373951  86.2176633 103.5750802
  92.1557793  87.1575614 102.9628134  92.9303715  85.9359786 101.9260472
  94.8519992  85.6909978  99.7450014  93.7419992  85.1789978  99.5480014
  95.5609992  86.2609978  98.7720014  96.4388453  86.7163620  98.9772552
  95.0659992  86.3009978  97.4030014  94.0491669  86.6926534  97.3754869
  95.9649992  87.2179978  96.5750014  96.0062209  88.1810487  97.0838561
  96.9495527  86.7510543  96.6018024  95.5459992  87.4249978  95.1410014
  94.4849992  88.2609978  94.8200014  93.9463674  88.7626705  95.6239291
  94.1079992  88.4619978  93.5040014  93.2702001  89.1160367  93.2622835
  94.8019992  87.8279978  92.4940014  94.4329992  88.0199978  91.1820014
  93.6832242  88.6117885  91.0859762  95.8649992  86.9999978  92.7870014
  96.4127540  86.5002514  91.9880529  96.2339992  86.8059978  94.1030014
  97.0774699  86.1585572  94.3427469  94.9989992  84.9089978  96.7940014
  94.0439992  84.5869978  96.0800014  95.9729992  84.0549978  97.1100014
  96.7815220  84.3488635  97.6391831  95.9259992  82.6809978  96.6260014
  95.7007669  82.6700034  95.5595828  97.2719992  81.9979978  96.8470014
  97.5041764  82.0647123  97.9098947  97.1598718  80.9510586  96.5651404
  98.4009992  82.6209978  96.0420014  98.5383647  83.6469910  96.3834244
  99.3105408  82.0508453  96.2311105  98.0619992  82.6259978  94.2710014
  98.1269992  80.8749978  93.9080014  97.3706760  80.3534816  94.4945975
  97.9362647  80.7161153  92.8466451  99.1137100  80.4872770  94.1613306
  94.8079992  81.8849978  97.2850014  94.1999992  81.0259978  96.6370014
  94.4979992  82.1799978  98.5480014  95.0698889  82.8104074  99.0917158
  93.3689992  81.5289978  99.2050014  93.4137830  80.4513106  99.0478902
  93.4139992  81.8049978 100.7030014  94.4425340  81.6464165 101.0271425
  93.1465637  82.8522439 100.8439055  92.4909992  80.9369978 101.5190014
  91.4583270  81.2148355 101.3080627  92.6484008  79.8929933 101.2481116
  92.7719992  81.1229978 102.9960014  93.7995748  80.8184947 103.1946599
  92.6523286  82.1781811 103.2416979  91.8289992  80.2979978 103.8440014
  91.9822461  80.5563782 104.8917875  90.8036568  80.5331345 103.5585493
  92.0759992  78.8439978 103.6510014  93.0259214  78.6258285 103.9158594
  91.4361552  78.3146174 104.2258545  91.9336340  78.6042870 102.6802440
  92.0389992  81.9679978  98.6000014  91.1239992  81.1489978  98.4390014
  91.9179992  83.2519978  98.2460014  92.6352827  83.9247295  98.4762968
  90.7049992  83.7309978  97.5820014  89.8445909  83.4108004  98.1695985
  90.7089992  85.2559978  97.5140014  91.5598511  85.5915410  96.9210749
  89.7849694  85.6019791  97.0507886  90.7850383  85.6649368  98.5215163
  90.5509992  83.1289978  96.1880014  89.4349992  82.7879978  95.7720014
  91.6659992  82.9749978  95.4660014  92.5398472  83.3666788  95.7870546
  91.6359992  82.3299978  94.1550014  90.8634219  82.7755683  93.5283513
  92.9969992  82.4949978  93.4510014  93.7850781  82.2556339  94.1649593
  93.1159992  81.5839978  92.2420014  92.3284771  81.8230922  91.5273381
  94.0887091  81.7285326  91.7718465  93.0163526  80.5454962  92.5577331
  93.1689992  83.9289978  92.9970014  93.1279896  84.5917254  93.8614159
  94.1326890  84.0401885  92.4999719  92.3703267  84.1889864  92.3022864
  91.2299992  80.8679978  94.2910014  90.4239992  80.3619978  93.5000014
  91.7439992  80.1829978  95.3170014  92.4416449  80.6006544  95.9161282
  91.3669992  78.7939978  95.5580014  91.5322337  78.1924364  94.6641779
  92.2269992  78.2339978  96.6890014  93.2610592  78.3954103  96.3844277
  92.0060872  78.8474237  97.5625039  92.0249992  76.7739978  97.0340014
  91.5020256  76.2964482  96.2054209  93.0051708  76.3135728  97.1579951
  91.2189992  76.5989978  98.3090014  91.6389145  77.2279050  99.0940147
  90.1837896  76.8879495  98.1274874  91.2449992  75.2139978  98.7570014
  91.8526865  74.5784842  98.2600729  90.5269992  74.7429978  99.7670014
  89.7239992  75.5559978 100.4360014  89.6630193  76.5293591 100.1734195
  89.1761903  75.1990095 101.2057834  90.6099992  73.4669978 100.1070014
  91.2233564  72.8497800  99.5942293  90.0596155  73.1160826 100.8777381
  89.8819992  78.6789978  95.8760014  89.1999992  77.7759978  95.3740014
  89.3649992  79.5979978  96.6950014  89.9575396  80.3031147  97.1094958
  87.9539992  79.5739978  97.0670014  87.7165664  78.5884371  97.4674947
  87.6919992  80.6129978  98.1460014  87.9165441  81.6061448  97.7569786
  86.6452150  80.5692641  98.4467180  88.3261716  80.4093940  99.0088283
  87.0419992  79.8099978  95.8660014  86.0419992  79.0989978  95.6810014
  87.3959992  80.7649978  95.0030014  88.1953759  81.3683076  95.1338205
  86.5179992  81.0179978  93.8680014  85.4744392  80.9259928  94.1690275
  86.7409992  82.4219978  93.2980014  86.5956267  83.1406669  94.1045260
  88.1269992  82.5929978  92.7140014  88.2729520  81.8749265  91.9070498
  88.2348859  83.6048064  92.3232291  88.8726236  82.4225687  93.4905958
  85.7699992  82.6749978  92.2760014  85.9062223  83.5543898  91.9158441
  86.6699992  79.9569978  92.7870014  85.7089992  79.6809978  92.0670014
  87.8239992  79.2969978  92.6980014  88.6488978  79.5742875  93.2105949
  87.9289992  78.1779978  91.7770014  87.4307360  78.4297742  90.8408168
  89.3869992  77.8459978  91.4790014  89.8670313  77.8234773  92.4573477
  89.4522018  76.8594687  91.0200799  90.0909992  78.8669978  90.5910014
  90.0082376  79.8518174  91.0507642  91.5529992  78.5099978  90.4230014
  91.6365713  77.5254337  89.9628406  92.0374920  79.2503301  89.7863888
  92.0387830  78.4968938  91.3986770  89.3969992  78.9649978  89.2490014
  88.3626155  79.2756508  89.3961221  89.9107317  79.6974347  88.6263326
  89.4172967  77.9925629  88.7570082  87.2159992  76.9469978  92.3020014
  86.8689992  76.0679978  91.5110014  87.0019992  76.8509978  93.6140014
  87.4986565  77.4111647  94.2919720  86.0799992  75.8339978  94.1010014
  86.2627425  74.8877955  93.5916830  86.2519992  75.6409978  95.6190014
  86.2400796  76.6227064  96.0925060  85.1519992  74.7859978  96.2050014
  85.1635833  73.8039052  95.7322852  85.3103384  74.6742494  97.2776345
  84.1876583  75.2623584  96.0282915  87.5949992  74.9879978  95.9220014
  87.5571777  73.9686053  95.5379323  88.3601450  75.5495167  95.3859529
  87.9289992  74.9589978  97.3850014  87.1644910  74.3972151  97.9216831
  88.8979511  74.4805628  97.5275897  87.9674560  75.9781272  97.7697043
  84.6469992  76.1989978  93.7340014  83.8699992  75.3469978  93.2890014
  84.2819992  77.4739978  93.8650014  84.9233327  78.2024147  94.1446435
  82.8729992  77.8219978  93.6860014  82.2536719  77.0059982  94.0583956
  82.5039992  79.0929978  94.4350014  83.3437933  79.7703134  94.2797956
  81.6027765  79.5273914  94.0023355  82.2969992  78.8769978  95.9230014
  83.2160205  78.4812396  96.3552933  81.9419992  80.1779978  96.6010014
  81.0227679  80.5741605  96.1695299  81.7970726  80.0048680  97.6673612
  82.7494339  80.8958037  96.4564183  81.2239992  77.8369978  96.1580014
  81.5243341  76.8944790  95.7002279  81.0860628  77.6922144  97.2295016
  80.2873158  78.1738278  95.7138520  82.4339992  77.9709978  92.2340014
  81.2259992  78.0059978  91.9870014  83.3559992  78.1069978  91.2860014
  84.3293637  78.2192140  91.5310900  82.9689992  78.2709978  89.8790014
  82.1952972  79.0367869  89.8237611  84.1699992  78.7209978  89.0220014
  85.0545715  78.1803267  89.3586110  83.9409992  78.4469978  87.5530014
  83.0567961  78.9877382  87.2155320  84.8084415  78.7775109  86.9816823
  83.7924132  77.3779058  87.4011264  84.3639992  80.2059978  89.1730014
  84.5548737  80.4434473  90.2195609  85.2124503  80.5254890  88.5678933
  83.4653560  80.7259524  88.8410549  82.2609992  77.0469978  89.2900014
  81.1859992  77.2469978  88.7030014  82.7409992  75.7929978  89.3990014
  84.0069992  75.2629978  89.9350014  83.8846525  75.0191845  90.9903149
  84.7931648  76.0097967  89.8239417  84.2439992  74.0669978  89.1000014
  84.8982308  73.3697043  89.6233195  84.7038594  74.3564599  88.1550984
  82.9329992  73.4989978  88.8830014  82.6360972  72.8845236  89.7329247
  82.8982185  72.9003741  87.9727599  81.9929992  74.6979978  88.7550014
  81.8337189  74.9856250  87.7157716  80.6589992  74.3939978  89.4040014
  79.8389992  73.7119978  88.7790014  80.4069992  74.8899978  90.6140014
  81.1223374  75.3752106  91.1364565  79.1149992  74.6709978  91.2510014
  78.8102079  73.6342505  91.1083254  79.1849992  74.9579978  92.7530014
  80.0185068  74.3724442  93.1409337  79.4238671  76.0192475  92.8222214
  77.9219992  74.6619978  93.5800014  77.3038895  73.9441768  93.0407666
  78.2919992  74.0989978  94.9080014  78.9097752  74.8164927  95.4480503
  77.3877532  73.8948207  95.4813701  78.8496884  73.1729887  94.7680361
  77.1019992  75.9069978  93.8520014  76.7878630  76.3494947  92.9066896
  76.2223664  75.6423200  94.4387663  77.7051147  76.6259646  94.4064720
  78.0469992  75.5159978  90.5790014  76.9639992  75.0219978  90.2580014
  78.3049992  76.8099978  90.4240014  79.1906597  77.2045010  90.7069716
  77.2979992  77.7019978  89.8710014  76.2985266  77.3760191  90.1589103
  77.5279992  79.1089978  90.4160014  78.5350225  79.4172676  90.1349797
  76.8013088  79.7720272  89.9465197  77.3789992  79.1829978  91.9260014
  77.9619811  78.3790365  92.3753112  77.8639992  80.5079978  92.4510014
  77.2811419  81.3124787  92.0024631  77.7464185  80.5352173  93.5342995
  78.9160876  80.6369902  92.1968923  75.9329992  79.0159978  92.2280014
  75.5923771  78.0504161  91.8541994  75.7786849  79.0626746  93.3060133
  75.3662032  79.8122819  91.7455359  77.2999992  77.7579978  88.3520014
  76.2409992  77.9669978  87.7530014  78.4449992  77.5789978  87.7060014
  79.3076992  77.3873263  88.1949904  78.4779992  77.6569978  86.2590014
  79.1609978  76.8877796  85.8985635  77.4730002  77.4514562  85.8904516
  78.9299992  79.0029978  85.7330014  78.3439992  79.5259978  84.7850014
  79.9689992  79.5749978  86.3330014  80.3245025  79.2071924  87.2038837
  80.5359992  80.8199978  85.8250014  79.7265869  81.4977651  85.5537408
  81.4159992  81.4779978  86.9130014  82.1208375  80.7261357  87.2679759
  82.1799992  82.6889978  86.4080014  81.4757663  83.4415381  86.0532624
  82.7784806  83.1054793  87.2182261  82.8350114  82.3906000  85.5894558
  80.5569992  81.9529978  88.0880014  80.9628221  82.9157322  88.3987281
  79.5489795  82.0931173  87.6976653  80.5119992  81.0229978  89.2700014
  81.5196684  80.8827507  89.6611964  79.8778582  81.4514476  90.0461427
  80.1058276  80.0601344  88.9601328  81.2749992  80.5779978  84.5070014
  81.2939992  81.4469978  83.6240014  81.7999992  79.3649978  84.3080014
  81.6809397  78.6548213  85.0162199  82.5929992  79.0379978  83.1260014
  83.3897373  79.7691477  82.9891526  83.2229992  77.6569978  83.3060014
  83.9774481  77.5486811  82.5267879  83.7070788  77.6541947  84.2826074
  82.2369992  76.4949978  83.2240014  81.4797491  76.7582791  82.4855192
  82.7928231  75.6232339  82.8787674  81.5629992  76.1739978  84.5480014
  81.6159992  77.0079978  85.4740014  80.9729992  75.0809978  84.6620014
  81.7929992  79.0689978  81.8280014  82.3919992  79.1259978  80.7520014
  80.4669992  79.0299978  81.8990014  80.0023619  78.8207575  82.7710278
  79.6519992  79.1989978  80.7070014  80.1664796  78.7793997  79.8425093
  78.3249992  78.4859978  80.8740014  77.7795331  78.8249695  81.7547194
  77.7211168  78.6609991  79.9836079  78.4709992  77.0189978  81.0050014
  78.6379992  76.2309978  79.8850014  78.6483676  76.6961484  78.8992899
  78.7899992  74.8749978  80.0040014  78.9075644  74.2562271  79.1143937
  78.7939992  74.2939978  81.2520014  78.9158364  73.2153454  81.3508168
  78.6439992  75.0759978  82.3760014  78.6480278  74.6177568  83.3649903
  78.4899992  76.4279978  82.2500014  78.3807851  77.0492725  83.1389277
  79.4469992  80.6639978  80.3720014  79.1829992  80.9939978  79.2120014
  79.5569992  81.5419978  81.3600014  79.6523888  81.2019912  82.3062549
  79.4459992  82.9759978  81.1510014  79.2687166  83.1996819  80.0990340
  78.3019992  83.5819978  81.9820014  78.3182251  84.6672745  81.8819486
  76.9789992  83.0519978  81.4900014  76.9618436  81.9667460  81.5901772
  76.1714895  83.4837472  82.0812891  76.8458614  83.3217989  80.4423453
  78.4839992  83.2579978  83.4500014  79.4311818  83.6695076  83.7987233
  77.6659068  83.6943704  84.0230664  78.4861027  82.1765657  83.5863871
  80.7759992  83.6569978  81.4450014  80.8259992  84.8459978  81.7370014
  81.8549992  82.8769978  81.3690014  81.7521556  81.8897100  81.1824935
  83.1929992  83.3979978  81.6120014  83.2033525  83.9996001  82.5208835
  84.1759992  82.2359978  81.7830014  83.5893559  81.5316027  82.3727270
  84.3126901  81.8408420  80.7763895  85.5439992  82.4379978  82.4420014
  85.4883770  83.2508301  83.1660944  85.9419992  81.1569978  83.1500014
  85.9982844  80.3437506  82.4264271  86.9150389  81.2898667  83.6229077
  85.1990934  80.9155054  83.9101809  86.6279992  82.8279978  81.4570014
  86.3562692  83.7637943  80.9685884  87.5720176  82.9559616  81.9866766
  86.7363608  82.0450992  80.7063840  83.5929992  84.3119978  80.4650014
  83.9859992  85.4629978  80.6820014  83.4799992  83.8169978  79.2360014
  83.2885079  82.8315783  79.1247414  83.7649992  84.6059978  78.0410014
  83.3430288  85.6086546  77.9723025  85.2839992  84.6649978  77.7510014
  85.7252817  85.3483247  78.4765595  85.9939992  83.2889978  77.8390014
  85.5535395  82.6052257  77.1133628  87.0552497  83.4127003  77.6232564
  85.8729258  82.8805985  78.8423211  85.5789992  85.4799978  76.4840014
  86.6433079  85.3780689  76.2719676  85.0031178  85.0376594  75.6711074
  85.2289992  86.9439978  76.6100014  85.8048729  87.3871609  77.4224519
  85.4645195  87.4560144  75.6770125  84.1646825  87.0467512  76.8215942
  82.9319992  84.0799978  76.8690014  83.3229992  83.1319978  76.1720014
  81.7349992  84.6319978  76.6470014  80.9099992  85.2919978  77.6760014
  81.2319751  86.3272511  77.7886179  81.0293163  84.7696321  78.6252098
  79.5049992  85.1769978  77.1270014  79.2299044  86.1189758  76.6525551
  78.8178810  84.9696956  77.9473646  79.5149992  84.0599978  76.1490014
  78.7607597  84.2749588  75.3920249  79.3510685  83.0601197  76.5508347
  80.9119992  84.1519978  75.5320014  81.2956575  83.1903636  75.1911727
  80.9539992  85.1479978  74.3860014  81.3339992  86.3049978  74.6000014
  80.6479992  84.7049978  73.1630014  80.4548134  83.7286883  72.9909600
  80.6659992  85.6189978  72.0230014  81.6260618  86.1333325  71.9801176
  80.4619992  84.8579978  70.7170014  79.5976545  84.2039061  70.8317682
  80.2969418  85.5334311  69.8775695  81.6119992  83.9839978  70.3420014
  81.6549992  82.6249978  70.3870014  80.7544891  82.1150439  70.7292416
  82.8829992  82.1769978  69.9710014  83.1576907  81.2083540  69.8911690
  83.6739992  83.2539978  69.6770014  84.9929992  83.3059978  69.2300014
  85.5278993  82.3686492  69.0771676  85.5359992  84.5399978  69.0100014
  86.5654922  84.6196962  68.6608705  84.7989992  85.7109978  69.2230014
  85.2420954  86.6905174  69.0432607  83.4889992  85.6619978  69.6670014
  82.9550051  86.6017320  69.8078940  82.9069992  84.4129978  69.9020014
  79.6229992  86.7219978  72.1660014  79.9159992  87.8939978  71.9040014
  78.4209992  86.3709978  72.6170014  78.2413615  85.3992055  72.8254462
  77.3319992  87.3299978  72.7920014  77.7119145  88.2253610  73.2840261
  76.7269992  87.7319978  71.4430014  75.9536809  86.9953068  71.2253678
  76.2658617  88.7077762  71.5956737  77.7149992  87.8089978  70.2540014
  78.4825120  88.5360645  70.5193299  78.1694553  86.8239080  70.1483148
  77.0609992  88.2169978  68.9230014  76.3023130  87.4974445  68.6152074
  76.6151354  89.2096170  68.9863419  78.1489992  88.2429978  67.8860014
  79.0863907  87.9917479  68.1657695  77.9279992  88.5599978  66.6030014
  78.9649992  88.5519978  65.7680014  79.8838894  88.3111746  66.1111413
  78.8280105  88.7867908  64.7952702  76.7149992  88.8529978  66.1450014
  75.9245222  88.8402124  66.7735574  76.5894020  89.0870589  65.1705583
  76.2379992  86.7529978  73.6780014  75.0889992  87.1879978  73.6150014
  90.5839992  76.2969978  66.2060014  91.5065057  75.9152186  66.3587292
  89.9959992  77.1229978  67.2530014  90.5906831  78.0263332  67.3887794
  88.5719992  77.5279978  66.8770014  88.6189223  77.9775283  65.8851245
  87.9806128  76.6134233  66.8332348  87.9259992  78.5009978  67.8420014
  87.8376948  78.0071489  68.8096875  88.5778383  79.3695357  67.9360600
  86.5549992  78.9469978  67.3760014  86.1039992  78.4729978  66.3140014
  85.9289992  79.7739978  68.0720014  90.0099992  76.3769978  68.5820014
  89.3619992  75.3459978  68.7310014  90.7429992  76.9259978  69.5500014
  91.2925605  77.7503685  69.3538003  90.8589992  76.3149978  70.8710014
  90.7791320  75.2283420  70.9009946  92.2009992  76.7279978  71.5070014
  92.9907703  76.5979101  70.7671109  92.1709992  78.1819978  71.9680014
  91.3817221  78.3127714  72.7082993  93.1317009  78.4428274  72.4119843
  91.9781084  78.8307004  71.1135544  92.6259992  75.7689978  72.6250014
  92.7372449  74.7635081  72.2191482  93.5765772  76.0980295  73.0448100
  91.8667789  75.7626311  73.4070786  89.6699992  76.6659978  71.7600014
  89.4049992  75.9569978  72.7440014  88.8899992  77.6839978  71.3800014
  89.1025117  78.2035355  70.5403477  87.7419992  78.0999978  72.1790014
  88.0362159  78.2278513  73.2207256  87.2029992  79.4309978  71.6570014
  88.0092063  80.1585350  71.7509114  86.9718198  79.2797063  70.6025978
  85.9749992  79.9449978  72.3730014  86.0799992  80.5829978  73.6010014
  87.0662799  80.7066029  74.0482952  84.9579992  81.0589978  74.2570014
  85.0515070  81.5641961  75.2183197  83.7139992  80.8959978  73.6810014
  82.5909992  81.3639978  74.3220014  82.7869032  81.7864228  75.1615123
  83.5849992  80.2599978  72.4680014  82.6007663  80.1213459  72.0206071
  84.7089992  79.7969978  71.8180014  84.6148051  79.3041497  70.8503609
  86.6519992  77.0469978  72.1450014  85.9759992  76.8119978  73.1550014
  86.4909992  76.3809978  71.0020014  87.0709651  76.5617318  70.1951098
  85.4279992  75.3979978  70.8800014  84.4916387  75.8096897  71.2566153
  85.2389992  75.0179978  69.4140014  85.3537646  75.9251948  68.8207714
  86.0202397  74.3071765  69.1447501  83.8839992  74.4049978  69.1400014
  83.0569992  74.3489978  70.0720014  83.6479992  73.9729978  67.9920014
  85.7619992  74.1729978  71.7180014  84.8939992  73.6389978  72.4130014
  87.0349992  73.7699978  71.7230014  87.7212510  74.2304885  71.1423930
  87.4609992  72.6269978  72.5230014  86.8061031  71.7763295  72.3343915
  88.8879992  72.2329978  72.1600014  89.4889884  73.1420268  72.1840369
  89.2327867  71.5494876  72.9359108  89.0279992  71.5749978  70.8140014
  88.8439992  70.2069978  70.6680014  88.5906228  69.6129943  71.5461015
  88.9769992  69.5959978  69.4350014  88.8363136  68.5199769  69.3325884
  89.2839992  70.3599978  68.3280014  89.4129992  69.7569978  67.0990014
  89.2691042  68.8083395  67.1296801  89.4679992  71.7219978  68.4490014
  89.7138539  72.3251913  67.5750372  89.3389992  72.3199978  69.6860014
  89.4820100  73.3956635  69.7889156  87.3679992  72.9259978  74.0120014
  86.9629992  72.0579978  74.7940014  87.7099992  74.1559978  74.4130014
  88.1328330  74.8127917  73.7727415  87.5809992  74.5419978  75.8170014
  88.0230466  73.7838653  76.4634752  88.2799992  75.8939978  76.0590014
  87.9600665  76.5861407  75.2801037  87.9439992  76.4759978  77.4230014
  88.2640758  75.7845773  78.2024816  88.4588712  77.4284248  77.5490593
  86.8678502  76.6327844  77.4966249  89.7939992  75.7259978  75.9460014
  90.1227530  75.1504419  76.8113090  89.9911784  75.1584390  75.0365528
  90.5479992  77.0349978  75.8960014  90.3516687  77.6029478  76.8053897
  91.6167620  76.8364418  75.8158707  90.2200921  77.6109461  75.0306342
  86.1169992  74.5619978  76.2480014  85.7789992  74.0929978  77.3410014
  85.2169992  75.0419978  75.3820014  85.4940770  75.4791992  74.5147170
  83.7969992  75.0309978  75.7300014  83.6629935  75.4077115  76.7440174
  83.0049992  75.9139978  74.7740014  83.3419221  75.7053171  73.7586027
  81.9499663  75.6561782  74.8663838  83.1919992  77.3799978  75.0740014
  84.2493710  77.6394343  75.0214806  82.6347155  77.9815934  74.3559348
  82.5789992  77.7219978  76.7370014  83.1309992  79.4059978  76.9900014
  82.6909974  80.0512440  76.2296366  82.8208648  79.7459901  77.9780918
  84.2177260  79.4475951  76.9165450  83.2209992  73.6189978  75.7710014
  82.3949992  73.3159978  76.6380014  83.6649992  72.7359978  74.8700014
  84.2741497  73.0160894  74.1146315  83.2119992  71.3479978  74.9160014
  82.1238792  71.3189733  74.9730238  83.6559992  70.5909978  73.6640014
  84.6851871  70.8209780  73.3883556  83.5666861  69.5256183  73.8763446
  82.8179992  70.8579978  72.4520014  81.5479992  70.3509978  72.3050014
  81.0783506  69.7809443  72.9938910  81.0539992  70.7239978  71.1400014
  80.0492828  70.4268140  70.8394591  81.9639992  71.4489978  70.5190014
  83.0809992  71.5319978  71.3100014  83.9580036  72.0759975  70.9592467
  83.7059992  70.6339978  76.1690014  82.9619992  69.8509978  76.7740014
  84.9489992  70.8979978  76.5830014  85.5718609  71.4722714  76.0331355
  85.4689992  70.2829978  77.8020014  85.2329785  69.2196234  77.8423525
  86.9949992  70.4729978  77.8800014  87.2249381  71.5153585  77.6592918
  87.5309992  70.1169978  79.2560014  87.3018325  69.0745796  79.4772423
  88.6110270  70.2629110  79.2747114  87.0653025  70.7576829  80.0048328
  87.6919992  69.6339978  76.8150014  87.5965472  68.5875613  77.1047603
  87.1705171  69.7983835  75.8720628  89.1499992  69.9779978  76.6490014
  89.6722657  69.8134090  77.5914706  89.5874141  69.3454873  75.8765392
  89.2462356  71.0242326  76.3587751  84.7669992  70.8409978  79.0360014
  84.3469992  70.0869978  79.9210014  84.5569992  72.1559978  79.0820014
  84.8892902  72.7608128  78.3445186  83.9149992  72.7659978  80.2390014
  84.3096501  72.3226297  81.1532085  84.1759992  74.2699978  80.2740014
  84.3270917  74.5074951  79.2209747  83.2827226  74.7789138  80.6361636
  85.3919992  74.7359978  81.0820014  85.4679039  75.8223510  81.0353521
  85.2279992  74.3019978  82.5280014  85.1524866  73.2156552  82.5755033
  86.0908775  74.6313674  83.1068429  84.3227517  74.7470183  82.9410198
  86.7239992  74.2579978  80.5260014  86.8500515  74.6332008  79.5104065
  87.5344194  74.6294053  81.1531991  86.7437707  73.1682307  80.5152451
  82.4219992  72.4979978  80.2920014  81.8129992  72.6809978  81.3490014
  81.8169992  72.0639978  79.1950014  82.2851808  72.0070561  78.3018816
  80.4109992  71.7079978  79.2590014  79.9312189  72.2496049  80.0742142
  79.7039992  72.0659978  77.9520014  79.8784967  73.1241693  77.7572630
  80.1530157  71.4717637  77.1561560  78.2139992  71.8009978  78.0000014
  78.0693054  70.7351134  78.1762255  77.8004328  72.3662464  78.8352013
  77.3619992  72.2709978  76.4890014  77.4269992  74.0529978  76.6210014
  78.4669441  74.3774161  76.6579669  76.9380282  74.5000361  75.7554584
  76.9157042  74.3693903  77.5301628  80.2309992  70.2309978  79.5580014
  79.4449992  69.8659978  80.4360014  80.9509992  69.3699978  78.8520014
  81.6721148  69.6691724  78.2112314  80.6509992  67.9529978  78.9370014
  79.5837486  67.7974431  79.0947294  81.0519992  67.2819978  77.6350014
  82.1211807  67.3005405  77.4237991  80.7127126  66.2481333  77.6991012
  80.3729992  67.8809978  76.4510014  80.9289992  68.9039978  75.7190014
  81.8368591  69.3108866  75.8931616  80.0889992  69.2599978  74.7640014
  80.3497423  70.0562963  74.0668495  79.0069992  68.5109978  74.8570014
  79.1479992  67.6619978  75.9250014  78.3380216  66.9833687  76.1923962
  81.3269992  67.2859978  80.1190014  80.8499992  66.2419978  80.5750014
  82.4189992  67.8529978  80.6260014  82.8482092  68.6399803  80.1606664
  83.0499992  67.3359978  81.8310014  82.7265691  66.3101059  82.0071771
  84.5679992  67.3499978  81.6840014  84.9102602  68.3422554  81.3900938
  85.0294479  67.0730361  82.6318714  85.0889992  66.3999978  80.6630014
  85.3559992  65.0869978  80.9990014  85.1756041  64.7501004  82.0198137
  85.8449992  64.2069978  80.0600014  86.0666239  63.1764767  80.3375073
  86.0539992  64.6319978  78.7670014  86.4315106  63.9346539  78.0191401
  85.7859992  65.9389978  78.4180014  85.9548676  66.2789740  77.3962383
  85.3039992  66.8149978  79.3640014  85.0881118  67.8478274  79.0905867
  82.6589992  68.1309978  83.0640014  83.4289992  68.1799978  84.0260014
  81.4899992  68.7779978  83.0490014  80.8506180  68.7241376  82.2690078
  81.1409992  69.6409978  84.1700014  82.0065755  70.2419705  84.4487644
  79.9969992  70.5749978  83.8090014  80.2398905  71.0670215  82.8671863
  79.0933198  69.9784366  83.6841889  79.7679992  71.6169978  84.8760014
  79.5943637  71.1036005  85.8217153  80.6556299  72.2438708  84.9611141
  78.5899992  72.4929978  84.5840014  77.8579992  72.2629978  83.6250014
  78.3999992  73.5179978  85.4020014  77.6201855  74.1420816  85.2519633
  79.0358665  73.6704580  86.1717612  80.7709992  68.8169978  85.3900014
  81.1219992  69.1769978  86.5220014  80.0889992  67.6909978  85.1630014
  79.8594936  67.4138929  84.2192645  79.6599992  66.8379978  86.2530014
  79.0633213  67.4336390  86.9438605  79.0469490  66.0353255  85.8431408
  80.8229992  66.2339978  87.0030014  80.7429992  66.0239978  88.2160014
  81.9129992  65.9579978  86.2930014  81.9327026  66.1371288  85.2992091
  83.0819992  65.3499978  86.9070014  82.7931219  64.4548404  87.4577666
  84.0859992  64.9569978  85.8320014  83.5452271  64.2792995  85.1714034
  84.3810579  65.8469592  85.2761155  85.3279992  64.2589978  86.3680014
  85.8005854  64.8880011  87.1224005  84.9379992  62.9349978  86.9880014
  84.4657339  62.3052296  86.2340411  85.8282833  62.4364319  87.3713121
  84.2386334  63.1081992  87.8059190  86.3359992  64.0649978  85.2600014
  86.6200631  65.0352496  84.8525477  87.2199140  63.5647973  85.6557227
  85.8964826  63.4547470  84.4710033  83.7329992  66.2889978  87.9110014
  83.9719992  65.9059978  89.0600014  84.0049992  67.5279978  87.5170014
  83.8358275  67.8643382  86.5797953  84.6659992  68.4149978  88.4580014
  85.2869326  67.8253474  89.1324296  85.5549992  69.4359978  87.7410014
  86.3301220  69.5950356  88.4906619  85.9745104  68.8910948  86.8953117
  85.0259992  70.7819978  87.2650014  84.4161858  71.2364374  88.0458427
  86.2029992  71.6879978  86.9510014  86.8130649  71.2344117  86.1698624
  85.8361383  72.6556967  86.6088425  86.8060624  71.8253016  87.8485330
  84.1339992  70.6429978  86.0740014  83.2815971  70.0134558  86.3293184
  83.7793943  71.6272789  85.7681462  84.6894993  70.1867342  85.2546467
  83.7009992  69.1399978  89.3800014  84.1539992  69.7809978  90.3300014
  82.3919992  69.0439978  89.1550014  82.0172269  68.7144401  88.2769145
  81.4589992  69.4979978  90.1770014  81.8937829  70.2735157  90.8075841
  80.1319992  70.0229978  89.5950014  80.3547794  70.6178769  88.7092322
  79.2059992  68.8919978  89.2210014  78.9823790  68.2969013  90.1064138
  78.2803210  69.2990379  88.8141369  79.6853835  68.2618287  88.4718824
  79.4469992  70.9869978  90.5550014  80.1015128  71.8376151  90.7451707
  78.5142489  71.3384068  90.1138800  79.2343539  70.4757933  91.4939118
  81.2029992  68.3589978  91.1490014  80.7319992  68.5939978  92.2690014
  81.5469992  67.1329978  90.7740014  81.8796174  66.9392854  89.8402242
  81.4049992  66.0249978  91.6960014  80.6239388  66.2458285  92.4235161
  81.0239992  64.7529978  90.9420014  80.0586262  64.9067734  90.4598115
  81.7810549  64.5547831  90.1832672  80.9399992  63.6489978  91.8240014
  80.6997798  62.8619703  91.3295501  82.6779992  65.7879978  92.4840014
  82.6069992  65.4759978  93.6700014  83.8499992  65.9589978  91.8820014
  83.9399158  66.3200795  90.9430475  85.0539992  65.5189978  92.5700014
  84.8583583  64.5802522  93.0882489  86.1999992  65.3009978  91.5790014
  85.8453089  64.6494054  90.7804263  86.6789992  66.6009978  90.9900014
  87.0343008  67.2529813  91.7879851  87.4926780  66.4060295  90.2914219
  85.8573254  67.0865734  90.4635330  87.2969992  64.6759978  92.2510014
  88.0163208  64.5388420  91.6302236  85.4739992  66.4849978  93.6710014
  86.2179992  66.0849978  94.5710014  85.0039992  67.7289978  93.6390014
  84.4064514  68.0354960  92.8846177  85.4259992  68.7109978  94.6280014
  86.2860108  68.3229713  95.1738171  85.7949992  70.0579978  93.9800014
  86.2269431  70.7121753  94.7373499  86.7949992  69.8459978  92.8690014
  86.3635700  69.1922455  92.1109926  87.0477631  70.8060045  92.4188921
  87.6966782  69.3864633  93.2738498  84.5689992  70.7519978  93.4190014
  84.2163509  70.1700332  92.5674986  83.8043333  70.7583874  94.1957541
  84.8489992  72.1629978  92.9800014  85.6132907  72.1573805  92.2028741
  83.9356474  72.6099274  92.5873927  85.2012755  72.7457343  93.8311298
  84.3919992  68.9199978  95.7280014  84.7219992  69.5239978  96.7580014
  83.1539992  68.4619978  95.5410014  82.8568431  68.1250374  94.6364268
  82.1709992  68.5229978  96.6110014  82.5882403  69.0543863  97.4663583
  80.9149992  69.2609978  96.1420014  80.5154874  68.8276565  95.2251019
  80.1541948  69.2251728  96.9217406  81.1659992  70.6969978  95.8590014
  81.3619992  71.5819978  96.9000014  81.3111618  71.2159335  97.9254342
  81.6189992  72.9119978  96.6560014  81.7659645  73.6042421  97.4850369
  81.6899992  73.3659978  95.3610014  81.9075790  74.4154227  95.1623400
  81.4859992  72.4939978  94.3130014  81.5269733  72.8552410  93.2854195
  81.2299992  71.1639978  94.5660014  81.0760959  70.4715806  93.7383711
  81.7969992  67.1639978  97.1710014  81.0479992  67.1009978  98.1490014
  82.2769992  66.0809978  96.5760014  82.8090116  66.1859263  95.7239145
  81.9989992  64.7359978  97.0540014  81.4149443  64.7959197  97.9723632
  81.2099992  63.9189978  96.0240014  80.2189045  64.3492437  95.8800609
  81.7393379  63.9004757  95.0713433  80.9469992  62.2079978  96.4790014
  80.2672022  61.8761553  95.3850843  83.2739992  64.0079978  97.4380014
  83.3769992  63.4989978  98.5550014  84.2649992  63.9599978  96.5550014
  84.2122798  64.4327405  95.6640276  85.4449992  63.1589978  96.8420014
  85.1772712  62.3044056  97.4633653  86.0479992  62.6439978  95.5380014
  86.2516992  63.4672953  94.8533214  86.9743743  62.1096164  95.7486332
  85.1619992  61.6909978  94.8080014  85.1189992  60.3559978  95.1670014
  85.7431565  60.0026039  95.9877574  84.2949992  59.4729978  94.4960014
  84.2706363  58.4214665  94.7819893  83.5019992  59.9249978  93.4620014
  82.8499154  59.2307089  92.9320491  83.5339992  61.2569978  93.0980014
  82.9087727  61.6160790  92.2805342  84.3589992  62.1329978  93.7710014
  84.3832997  63.1853311  93.4879749  86.4979992  63.9259978  97.6270014
  86.9799992  63.4409978  98.6530014  86.8739992  65.1139978  97.1740014
  86.5442637  65.4563653  96.2828458  87.8559992  65.9049978  97.8950014
  88.5100223  65.2511221  98.4718892  88.7069992  66.7039978  96.9160014
  88.0920148  67.2396349  96.1928235  89.3202399  67.4158210  97.4685806
  89.6479992  65.8499978  96.1280014  90.8349992  65.4139978  96.6910014
  91.0805431  65.7099785  97.7109051  91.7029992  64.6139978  95.9770014
  92.6384873  64.2810972  96.4266012  91.3829992  64.2349978  94.6880014
  92.0644864  63.6016260  94.1200971  90.1989992  64.6589978  94.1190014
  89.9450839  64.3630209  93.1011484  89.3369992  65.4579978  94.8400014
  88.3982192  65.7874909  94.3947753  87.2449992  66.8129978  98.9500014
  87.9499992  67.6719978  99.4870014  85.9619992  66.6559978  99.2570014
  85.3541347  66.0672203  98.7056929  85.3939992  67.3569978 100.3980014
  85.7101389  68.3999790 100.3794235  83.8679992  67.3089978 100.3660014
  83.5610754  67.3821848  99.3226699  83.5226513  66.3617481 100.7801909
  83.2179992  68.4489978 101.1470014  82.0179992  68.6809978 101.0250014
  84.0089992  69.1759978 101.9240014  83.6222628  69.9403784 102.4590315
  84.9946440  68.9620666 101.9772803  85.9169992  66.6919978 101.6600014
  85.8369992  65.4679978 101.7980014  86.4439992  67.4999978 102.5830014
  86.3890416  68.5045620 102.4939523  87.1139992  66.9479978 103.7460014
  87.8666328  66.2408707 103.3972706  87.6026115  67.7670463 104.2737486
  86.1759992  66.2389978 104.6980014  86.5719992  65.2709978 105.3530014
  84.9259992  66.6949978 104.7760014  84.6374195  67.5246570 104.2775170
  83.9529992  66.0309978 105.6340014  84.3721263  65.8751652 106.6280577
  82.7029992  66.8989978 105.7620014  83.0295768  67.8769483 106.1156386
  82.2801919  66.9973553 104.7621716  81.6519992  66.3479978 106.7020014
  81.3431595  65.3738471 106.3228588  82.1077997  66.2269843 107.6847022
  80.4409992  67.2529978 106.8150014  80.4059992  68.2909978 106.1210014
  79.5249992  66.9279978 107.6000014  83.5929992  64.6559978 105.0930014
  83.4159992  63.7069978 105.8600014  83.5279992  64.5149978 103.7710014
  83.6087190  65.3106801 103.1541762  83.2489992  63.2119978 103.1840014
  82.5568757  62.6196579 103.7824975  82.6599992  63.3809978 101.7770014
  83.4229361  63.8031583 101.1229317  82.2029992  62.0409978 101.2230014
  81.4396716  61.6184042 101.8763364  81.7885487  62.1822166 100.2248088
  83.0526638  61.3602825 101.1701017  81.5259992  64.3759978 101.7960014
  81.8944707  65.3410207 102.1439405  81.1197436  64.4839135 100.7903125
  80.7433590  64.0229210 102.4675011  84.5049992  62.3569978 103.1710014
  84.4469992  61.1379978 103.3870014  85.6599992  62.9799978 102.9270014
  85.6959264  63.9744550 102.7541906  86.8959992  62.2179978 102.8310014
  86.7459696  61.3455825 102.1950127  88.0009992  63.0779978 102.2260014
  87.5830290  63.5560357 101.3400670  88.2521203  63.8392064 102.9646487
  89.2489992  62.3149978 101.8450014  89.7253103  61.9583348 102.7582484
  88.9775132  61.4635041 101.2210176  90.2359992  63.1719978 101.0890014
  90.0189992  64.3689978 100.9050014  91.3229992  62.5639978 100.6320014
  92.0152529  63.0915349 100.1195652  91.4532722  61.5763921 100.7986303
  87.3069992  61.6809978 104.1910014  87.8609992  60.5809978 104.2720014
  86.9959992  62.4099978 105.2670014  86.5881776  63.3292434 105.1733616
  87.2919992  61.9189978 106.6060014  88.3310732  61.5916028 106.6411730
  87.0969992  63.0339978 107.6300014  86.0589707  63.3661262 107.6130432
  87.3425974  62.6616547 108.6245578  87.7499791  63.8715774 107.3846914
  86.4239992  60.7219978 106.9590014  86.8249992  59.8949978 107.7820014
  85.2549992  60.6029978 106.3310014  84.9290998  61.3359027 105.7172105
  84.3869992  59.4569978 106.5590014  84.4568705  59.1411957 107.5999079
  82.9299992  59.8249978 106.2320014  82.8926501  60.2168107 105.2155428
  82.0179992  58.6269978 106.3430014  82.0544626  58.2348848 107.3593766
  80.9965768  58.9240092 106.1051335  82.3435704  57.8559286 105.6447502
  82.4279992  60.9039978 107.1790014  82.3244865  60.4556566 108.1671188
  83.1818131  61.6905066 107.2146108  81.1099992  61.4919978 106.7550014
  80.3555228  60.7061145 106.7196082  80.8052002  62.2556055 107.4706131
  81.2128492  61.9409628 105.7670985  84.8689992  58.2849978 105.7260014
  84.8699992  57.1349978 106.1810014  85.3379992  58.5679978 104.5110014
  85.3502111  59.5097160 104.1461493  85.7869992  57.4869978 103.6460014
  85.0758032  56.6615768 103.6773001  85.8929992  57.9839978 102.2100014
  86.5213295  58.8726120 102.2705422  86.3883604  57.2304045 101.5977806
  84.5529992  58.3509978 101.5790014  84.0443171  59.0658675 102.2257661
  84.7519992  58.9639978 100.2070014  85.2602462  58.2494953  99.5594908
  83.7826920  59.2171882  99.7775379  85.3563605  59.8667310 100.2960000
  83.6619992  57.1269978 101.5020014  83.4903079  56.7382113 102.5057278
  82.7080890  57.3991824 101.0502581  84.1460255  56.3622432 100.8945742
  87.1149992  56.9079978 104.1100014  87.3819992  55.7259978 103.8640014
  87.9729992  57.7249978 104.7350014  87.7741528  58.7113242 104.8228631
  89.2549992  57.2299978 105.2310014  89.7887940  56.7302543 104.4226582
  90.1219992  58.3729978 105.7550014  89.4853071  59.0012524 106.3779128
  90.9051288  57.9283299 106.3690686  90.7529992  59.2169978 104.6650014
  91.3331867  58.5618249 104.0152078  89.9557939  59.6863446 104.0885646
  91.6579992  60.2879978 105.2400014  91.1007079  60.8722954 105.9722048
  92.5097723  59.8132565 105.7270361  92.1539992  61.1879978 104.2030014
  91.6239004  62.0306863 104.0327934  93.2459992  60.9689978 103.4790014
  93.9659992  59.8709978 103.6730014  93.6813126  59.2013191 104.3734184
  94.7952635  59.7101975 103.1193195  93.6199992  61.8469978 102.5600014
  93.0724446  62.6826764 102.4119293  94.4509385  61.6765950 102.0117300
  89.0689992  56.1679978 106.3060014  89.8859992  55.2469978 106.4220014
  88.0029992  56.2749978 107.0960014  87.3754711  57.0624791 107.0173816
  87.7369992  55.2819978 108.1230014  88.6744415  54.9489531 108.5684029
  86.8579992  55.8779978 109.2230014  85.9738205  56.2908144 108.7372961
  86.5629694  55.0570635 109.8765489  87.5339992  56.9579978 110.0430014
  88.5076023  56.5930396 110.3701152  87.6687075  57.8409072 109.4181600
  86.6959992  57.3199978 111.2560014  86.5191080  56.4210049 111.8464420
  87.2390219  58.0484942 111.8580968  85.4089992  57.8919978 110.8790014
  84.6326067  57.2556813 110.7675778  85.1999992  59.1869978 110.6790014
  83.9979992  59.6229978 110.3370014  83.2381336  58.9665882 110.2282331
  83.8461911  60.6100971 110.1863731  86.1959992  60.0479978 110.8250014
  87.1125230  59.7153250 111.0884649  86.0343060  61.0331892 110.6721878
  87.0619992  54.0459978 107.5580014  87.0509992  53.0029978 108.2170014
  86.4989992  54.1389978 106.3600014  86.5045845  55.0199588 105.8660623
  85.7899992  53.0209978 105.7650014  85.4737425  52.3205686 106.5379696
  84.5519992  53.5309978 105.0330014  84.8300192  54.3064743 104.3192505
  84.1073011  52.6903139 104.5004658  83.5249992  54.0969978 105.9850014
  83.2689992  53.5279978 107.0450014  82.9509992  55.2359978 105.6280014
  82.2570878  55.6581427 106.2283183  83.2098488  55.6771584 104.7570967
  86.6629992  52.1939978 104.8360014  86.2879992  51.0639978 104.5030014
  87.8029992  52.7369978 104.3940014  88.0408300  53.6914858 104.6231053
  88.7029992  51.9899978 103.5190014  88.1384185  51.5545089 102.6945639
  89.7799992  52.9129978 102.9410014  90.2087032  53.5442854 103.7193253
  90.5654023  52.3024403 102.4955112  89.2879992  53.8359978 101.8610014
  88.0969992  53.7629978 101.2030014  87.4319222  52.9461009 101.4830939
  87.9939992  54.7839978 100.2890014  87.2111063  54.9455005  99.6716725
  89.1279992  55.5489978 100.3520014  89.4829992  56.6869978  99.6290014
  88.7862062  57.0707588  98.8838131  90.6959992  57.2539978  99.9050014
  91.0076102  58.1450806  99.3600519  91.5519992  56.7169978 100.8740014
  92.5173785  57.1773036 101.0843846  91.1999992  55.5879978 101.5930014
  91.9016591  55.2080885 102.3355936  89.9659992  54.9849978 101.3330014
  89.3469992  50.8259978 104.2570014  89.7119992  49.8219978 103.6350014
  89.4879992  50.9409978 105.5770014  89.2398946  51.8029192 106.0413666
  90.0259992  49.8559978 106.3800014  90.8451852  49.3681866 105.8517271
  90.5569992  50.4059978 107.7030014  89.7561670  50.9343481 108.2203146
  90.8919235  49.5674140 108.3134954  91.7149992  51.3549978 107.5100014
  92.6049992  51.1109978 106.6980014  91.7039992  52.4549978 108.2510014
  92.4535970  53.1262971 108.1640512  90.9460747  52.6162685 108.8988000
  88.9859992  48.7839978 106.6700014  89.3539992  47.6619978 107.0330014
  87.7039992  49.1079978 106.5170014  87.4651592  50.0505879 106.2439104
  86.6209992  48.1699978 106.7810014  86.7769324  47.6780603 107.7410959
  85.2879992  48.9149978 106.8250014  85.3810585  49.6945870 107.5810966
  85.1444605  49.3736873 105.8466862  84.1009992  48.0389978 107.1490014
  83.1893489  48.6299614 107.0609304  84.0672197  47.2119989 106.4397527
  84.1759992  47.4729978 108.5470014  84.5779992  48.1579978 109.4860014
  83.7869992  46.2129978 108.6940014  83.8157187  45.7820730 109.6070077
  83.4639619  45.6906111 107.8922157  86.5509992  47.0529978 105.7480014
  86.8099992  45.8889978 106.0660014  86.2079992  47.3959978 104.5130014
  85.9715135  48.3534250 104.2950401  86.0989992  46.4009978 103.4570014
  86.1432729  45.3988539 103.8834362  84.7679992  46.5599978 102.7190014
  83.9733825  46.5547862 103.4650955  84.8004632  47.5337763 102.2303281
  84.4979992  45.4889978 101.6890014  84.1349992  44.2039978 102.0770014
  84.0508702  43.9781036 103.1400130  83.8819992  43.2189978 101.1380014
  83.6025695  42.2131093 101.4513847  83.9839992  43.5199978  99.7950014
  83.7329992  42.5459978  98.8550014  83.4971660  41.7007975  99.2443840
  84.3379992  44.7899978  99.3850014  84.4193283  45.0255830  98.3238767
  84.5899992  45.7659978 100.3310014  84.8660529  46.7722287 100.0157333
  87.2669992  46.5009978 102.4840014  88.1399992  47.3839978 102.6970014
  87.3009992  45.6949978 101.5160014  71.9969992  82.2799978  64.1640014
  71.9336479  83.0830480  64.7732617  71.0682036  82.0356413  63.8513852
  72.7307837  82.4416758  63.4890792  72.4469992  81.1449978  64.9570014
  71.6989415  80.3532555  64.9163458  73.7549992  80.6039978  64.4140014
  74.5165137  81.3826987  64.4566706  74.0734741  79.7517969  65.0143577
  73.6167685  80.2879795  63.3800169  72.6049992  81.5459978  66.4090014
  72.8609992  82.7109978  66.7040014  72.4419992  80.5919978  67.3220014
  72.1131178  79.6711835  67.0689456  72.6299992  80.8939978  68.7340014
  72.2346845  81.8875692  68.9452867  71.9089992  79.8809978  69.6260014
  71.9880362  80.1922960  70.6676088  70.8580358  79.8289724  69.3416262
  72.4429992  78.1549978  69.6520014  74.1319992  80.9709978  68.9940014
  74.8589992  79.9809978  68.8660014  74.6119992  82.1739978  69.2770014
  73.9845111  82.9642597  69.3199448  76.0309992  82.4109978  69.4680014
  76.6160249  81.6965895  68.8888081  76.3779992  83.8249978  68.9950014
  75.7334746  84.0596353  68.1478695  76.1646521  84.5115257  69.8143076
  77.8309992  83.9689978  68.5800014  78.5729992  82.9629978  68.5930014
  78.2359992  85.1009978  68.2370014  76.4779992  82.2199978  70.9100014
  77.6849992  82.1659978  71.1660014  75.5449992  82.1259978  71.8530014
  74.5660781  82.2080048  71.6182938  75.9059992  81.9359978  73.2500014
  76.6461491  82.6911040  73.5147504  74.6669992  82.1389978  74.1230014
  74.0359256  81.2537299  74.0445984  75.0479992  82.3569978  75.5620014
  75.6787430  83.2424237  75.6412662  74.1473542  82.4984562  76.1594352
  75.5943344  81.4882816  75.9293576  73.9859992  83.3219978  73.6950014
  73.2062378  83.4567065  74.2385325  76.4819992  80.5389978  73.4590014
  76.1119992  79.5859978  72.7730014  77.4029992  80.4189978  74.4180014
  77.6499893  81.2134381  74.9906792  78.1219992  79.1739978  74.6210014
  78.2375103  78.7009968  73.6457956  79.5099992  79.4629978  75.1910014
  79.4109410  79.9285452  76.1715896  80.0654959  78.5300681  75.2867398
  80.0450614  80.1368242  74.5218485  77.3879992  78.1959978  75.5260014
  78.0279992  77.3229978  76.1200014  76.0729992  78.3239978  75.6650014
  75.6035872  79.1515369  75.3259869  75.2829992  77.3159978  76.3490014
  75.9339563  76.6979844  76.9673973  74.2319992  77.9709978  77.2480014
  73.6866156  77.1936042  77.7830866  74.8939992  78.8949978  78.2410014
  75.4392331  79.6729837  77.7066255  74.1341807  79.3537593  78.8737042
  75.5873467  78.3264899  78.8608147  73.3219992  78.7269978  76.4440014
  72.6625149  79.1380526  77.0076633  74.5979992  76.3709978  75.3800014
  74.1229992  75.3119978  75.8020014  74.5539992  76.7189978  74.0970014
  74.9012174  77.6318457  73.8396153  73.9579992  75.8889978  73.0590014
  73.4488041  75.0399563  73.5150145  72.9429992  76.6869978  72.2460014
  72.4353318  76.0236022  71.5458020  72.2104859  77.1350160  72.9174208
  73.6049992  78.0759978  71.3160014  75.0189992  75.2799978  72.1530014
  74.8279992  75.1479978  70.9430014  76.1479992  74.8989978  72.7450014
  76.2871440  75.0563932  73.7329107  77.2459992  74.3329978  71.9750014
  77.4456408  74.9183319  71.0774344  78.5209992  74.2929978  72.8280014
  78.3554580  73.6409088  73.6856000  79.6719992  73.7729978  72.0200014
  79.8384544  74.4248750  71.1624177  80.5695511  73.7502244  72.6380488
  79.4459355  72.7653251  71.6713002  78.8329992  75.6729978  73.3500014
  78.0028772  76.0270797  73.9612505  79.7392411  75.6370286  73.9545935
  78.9827066  76.3537511  72.5119898  76.8559992  72.9579978  71.4520014
  77.1299992  72.6079978  70.2940014  76.1309992  72.1929978  72.2660014
  75.9506760  72.4734600  73.2193764  75.6309992  70.9029978  71.8210014
  76.4079401  70.3623410  71.2804903  75.2019992  70.0689978  73.0190014
  76.0510423  69.9490297  73.6919307  74.0749992  70.7459978  73.7500014
  73.2253711  70.8659026  73.0778002  73.7784608  70.1379686  74.6046736
  74.4033737  71.7253799  74.0979691  74.7709992  68.7819978  72.5670014
  74.4994144  68.2526711  73.3204304  74.4749992  71.0339978  70.8440014
  74.2379992  70.0999978  70.0780014  73.8879992  72.2149978  70.7080014
  74.1160109  72.9931591  71.3101435  72.8509992  72.3989978  69.7080014
  72.3110200  71.4625550  69.5680140  71.8579992  73.4749978  70.1360014
  72.3912868  74.3818744  70.4210953  71.1642913  73.7013993  69.3263029
  71.0289992  73.0809978  71.3100014  70.0199992  72.1489978  71.2240014
  69.7531128  71.6666960  70.3776822  69.4679992  71.9929978  72.4130014
  68.6487396  71.2885031  72.5565276  70.0779992  72.7969978  73.2640014
  71.0619992  73.4859978  72.6000014  71.6846775  74.2008296  73.1379499
  73.4579992  72.7609978  68.3730014  72.9639992  72.3009978  67.3380014
  74.5639992  73.5049978  68.3810014  74.9200831  73.9233359  69.2285254
  75.2619992  73.7729978  67.1340014  74.5506289  74.0990057  66.3752061
  76.3019992  74.8699978  67.3300014  76.9214206  74.5837765  68.1799978
  76.9148422  74.9028274  66.4291986  75.7019992  76.2349978  67.5810014
  74.9296167  76.4150951  66.8332775  75.2529886  76.2371075  68.5742220
  76.7509992  77.3289978  67.4980014  77.2712862  77.2387403  66.5444533
  76.2488642  78.2951912  67.5472983  77.7319992  77.2569978  68.5740014
  78.5478577  76.6810596  68.4231059  77.6099992  77.8919978  69.7350014
  76.5509992  78.6529978  69.9680014  75.8365602  78.7491507  69.2605896
  76.4629184  79.1335397  70.8519816  78.5519992  77.7749978  70.6600014
  79.3636369  77.2014256  70.4801149  78.4538554  78.2599494  71.5405061
  75.9109992  72.4939978  66.6390014  75.9039992  72.2139978  65.4330014
  76.4149992  71.6789978  67.5700014  76.4584644  71.9568548  68.5400559
  76.9969992  70.3999978  67.1920014  77.7042916  70.5420119  66.3748915
  77.7369992  69.7819978  68.3760014  78.4529403  70.5256268  68.7260637
  76.9694225  69.6318003  69.1351897  78.4599992  68.4629978  68.1160014
  78.6082839  68.3400267  67.0431591  79.7859992  68.4629978  68.8050014
  79.6384934  68.5854717  69.8780070  80.2951470  67.5182822  68.6142614
  80.3929549  69.2852408  68.4260270  77.6599992  67.3129978  68.6660014
  76.6834584  67.2849694  68.1825949  78.1869212  66.3783714  68.4738352
  77.5293882  67.4415733  69.7404818  75.9189992  69.4689978  66.6510014
  76.1529992  68.7649978  65.6630014  74.7429992  69.4429978  67.2960014
  74.6066394  70.0061425  68.1232701  73.6529992  68.5739978  66.8630014
  74.0006589  67.5423360  66.8090958  72.4989992  68.6479978  67.8570014
  72.1340613  69.6734434  67.9151541  71.6919861  67.9938564  67.5269576
  72.8448801  68.3296664  68.8404295  73.1879992  68.9669978  65.4710014
  72.9809992  68.1059978  64.6080014  72.9879992  70.2719978  65.2590014
  73.1337652  70.9347817  66.0070450  72.5599992  70.7769978  63.9640014
  71.5895625  70.3412037  63.7264406  72.4646904  71.8608270  64.0298031
  73.5389992  70.4339978  62.8580014  73.1459992  69.9159978  61.8060014
  74.8269992  70.7449978  63.0780014  75.1099247  71.2087552  63.9294600
  75.8429992  70.4699978  62.0710014  75.5727350  70.9401936  61.1255003
  77.1839992  71.0309978  62.5280014  76.9869701  72.0953102  62.6565238
  77.4176005  70.5858810  63.4951630  78.3649992  70.8439978  61.5850014
  78.4883798  69.7821272  61.3721429  78.1229992  71.5919978  60.2930014
  77.9999743  72.6540774  60.5050171  78.9737440  71.4512837  59.6262679
  77.2206176  71.2104923  59.8152345  79.6439992  71.3109978  62.2490014
  79.8162987  70.7306161  63.1554061  80.4809470  71.1720960  61.5646580
  79.5563454  72.3667819  62.5053913  75.9629992  68.9789978  61.7930014
  76.1139992  68.5789978  60.6330014  75.9419992  68.1459978  62.8410014
  75.9152156  68.4959747  63.7880485  76.0479992  66.7059978  62.6390014
  76.9210902  66.4984938  62.0203307  76.1919992  65.9509978  63.9520014
  75.5357860  66.4579553  64.6594458  75.8410584  64.9304773  63.7987751
  77.6059992  65.9219978  64.5050014  77.9339062  66.9339491  64.7427672
  77.6119992  65.0869978  65.7550014  77.2846259  64.0747117  65.5179311
  78.6208812  65.0550525  66.1663863  76.9348461  65.5249131  66.4883460
  78.5559992  65.3529978  63.4640014  78.5321697  65.9764830  62.5702465
  79.5686670  65.3348698  63.8668371  78.2494473  64.3389871  63.2072777
  74.8669992  66.1659978  61.8540014  75.0379992  65.2839978  61.0150014
  73.6519992  66.6059978  62.1850014  73.5034037  67.2452334  62.9527232
  72.4879992  66.1139978  61.4610014  72.4763684  65.0241044  61.4708156
  71.2109992  66.6199978  62.1170014  71.1488111  66.2220229  63.1298429
  71.2377734  67.7089680  62.1560798  70.0809992  66.2029978  61.3770014
  69.2832647  66.5281684  61.8006563  72.5259992  66.5299978  59.9990014
  72.2539992  65.7159978  59.1110014  72.8589992  67.7949978  59.7340014
  73.0547427  68.4460429  60.4809446  72.8959992  68.2869978  58.3590014
  71.9661479  68.0445503  57.8445165  73.0669992  69.8009978  58.3680014
  72.3693116  70.1954162  59.1067607  74.0886487  70.0037062  58.6893140
  72.8189992  70.4619978  57.0430014  73.4788755  70.0283217  56.2916099
  71.7813240  70.3061799  56.7479542  73.0919992  71.9409978  57.1580014
  74.1546886  72.0964151  57.3441082  72.8114023  72.4313172  56.2258257
  72.3329992  72.5429978  58.2500014  72.8252873  72.6736800  59.1221677
  71.0629992  72.9269978  58.1750014  70.3749992  72.7759978  57.0530014
  70.8181541  72.3647064  56.2439568  69.4104928  73.0728660  57.0118159
  70.4749992  73.4639978  59.2350014  70.9949476  73.5783425  60.0933015
  69.5098165  73.7562688  59.1793363  74.0079992  67.6479978  57.5270014
  73.7869992  67.2669978  56.3730014  75.2009992  67.5219978  58.0990014
  75.2948118  67.8377676  59.0537726  76.3939992  67.0489978  57.4070014
  76.2352518  67.0325455  56.3287493  77.5379992  68.0009978  57.7150014
  77.6967014  68.0348877  58.7928532  78.4441798  67.6436104  57.2259094
  77.2279992  69.2989978  57.2430014  77.9550443  69.8937039  57.4413191
  76.8089992  65.6089978  57.7030014  77.9409992  65.2459978  57.3700014
  75.9829992  64.8399978  58.4210014  75.1031912  65.2218716  58.7375605
  76.3049992  63.4519978  58.7710014  77.0996397  63.4896906  59.5161356
  75.4085757  63.0222022  59.2179914  76.7509992  62.5739978  57.6180014
  77.7359992  61.8399978  57.7240014  76.0469992  62.6509978  56.4950014
  75.2867024  63.3137737  56.4423114  76.3199992  61.8239978  55.3350014
  76.4229885  60.8016407  55.6987023  75.4439599  61.8931523  54.6901199
  77.5509992  62.1879978  54.5340014  77.7839992  61.5759978  53.4890014
  78.3519992  63.1469978  54.9890014  78.1179987  63.6678565  55.8220977
  79.5549992  63.5219978  54.2540014  79.3742124  63.5372685  53.1792075
  80.0319992  64.9169978  54.6920014  80.1053144  64.9428457  55.7792254
  81.3829992  65.2239978  54.0890014  81.3103695  65.1987877  53.0017157
  81.7072756  66.2145147  54.4080965  82.1073342  64.4804695  54.4215763
  79.0269992  65.9579978  54.2720014  78.0652954  65.7443695  54.7384676
  79.3713440  66.9435246  54.5854714  78.9162621  65.9402718  53.1877856
  80.6439992  62.4799978  54.4520014  81.1799992  61.9249978  53.4860014
  80.9859992  62.1919978  55.6970014  80.5847289  62.6867216  56.4807934
  82.0109992  61.1979978  55.9620014  82.7008188  61.1095348  55.1227026
  82.8089992  61.5499978  57.2140014  82.1233989  61.6745566  58.0521760
  83.7969992  60.4459978  57.5300014  84.4832715  60.3211571  56.6924179
  84.3610044  60.7077318  58.4252634  83.2586345  59.5136035  57.7000189
  83.5259992  62.8669978  57.0140014  82.7960117  63.6529656  56.8204171
  84.0937048  63.1121849  57.9116057  84.2056254  62.7861141  56.1656696
  81.3749992  59.8209978  56.0880014  80.6279992  59.5559978  57.0290014
  81.5699992  58.9539978  55.0840014  82.2173897  59.1643573  54.3378554
  80.9949992  57.6389978  55.1360014  81.0150289  57.3375282  56.1832903
  79.5469992  57.4719978  54.5990014  79.5629076  57.9924228  53.6413982
  79.4550607  56.3994949  54.4275815  78.3529992  57.9609978  55.4260014
  78.3660983  57.4383499  56.3824367  78.4733488  59.0309813  55.5955700
  77.0119992  57.7019978  54.7190014  76.7525149  56.6592458  54.9018540
  76.2729843  58.3482128  55.1926707  77.0289992  57.9669978  53.2080014
  76.1117508  58.4899135  52.9372339  77.8877530  58.5969255  52.9759833
  77.1219992  56.7019978  52.4390014  76.3261281  56.1183297  52.6535247
  77.1311043  56.9088623  51.4504549  77.9720854  56.2175045  52.6894385
  81.7849992  56.8569978  54.1570014  82.8589992  57.2769978  53.7250014
  81.2369992  55.6739978  53.8160014  80.4213578  55.4057997  54.3478831
  81.7039992  54.7849978  52.7940014  82.7547606  54.5546601  52.9699111
  80.9049992  53.4649978  52.7830014  81.2861549  52.7736147  52.0314637
  80.9833296  53.0079202  53.7694316  79.4319992  53.7419978  52.4890014
  78.8019992  54.6199978  53.0770014  78.8759992  52.9809978  51.5060014
  77.9052742  53.1108462  51.2591571  79.4368593  52.2901648  51.0282080
  81.5529992  55.4629978  51.4510014  82.5119992  55.5059978  50.6870014
  80.3619992  56.0359978  51.1290014  79.5258779  55.9855999  51.6933245
  80.2949992  56.7309978  49.8710014  81.3066525  56.9995342  49.5667890
  79.6519992  55.8819978  48.7520014  79.7042927  56.3652770  47.7763960
  80.1748741  54.9264329  48.7120324  78.1849992  55.6219978  49.0900014
  77.8399992  55.1769978  50.1840014  77.2879992  55.9679978  48.1330014
  76.3015355  55.8221895  48.2934043  77.6106458  56.3698620  47.2643789
  79.5119992  58.0239978  49.9650014  78.3379992  58.0489978  50.3360014
  80.1619992  59.1549978  49.6310014  81.1708169  59.1606015  49.5824737
  79.4509992  60.4049978  49.3870014  78.3806682  60.2119440  49.3147462
  79.6929992  61.3919978  50.5270014  79.2834030  60.9998309  51.4578802
  80.7608595  61.5736478  50.6485650  79.0539992  62.7269978  50.3070014
  77.6819992  62.8729978  50.3930014  77.0686893  62.0036123  50.6298972
  77.0869992  64.1009978  50.1830014  76.0037058  64.2038140  50.2462847
  77.8689992  65.2009978  49.8920014  77.4050714  66.1742398  49.7317797
  79.2409992  65.0669978  49.8040014  79.8598817  65.9330341  49.5693404
  79.8269992  63.8379978  50.0130014  80.9099018  63.7323753  49.9476873
  79.8539992  61.0419978  48.0680014  81.0339992  61.0859978  47.7260014
  78.8679992  61.5489978  47.3380014  77.9165859  61.4564821  47.6641193
  79.0989992  62.2079978  46.0580014  80.0311191  61.8877495  45.5924988
  77.9479992  61.9429978  45.0820014  77.0135692  62.2739034  45.5352577
  78.1739992  62.6949978  43.7830014  79.1080807  62.3642735  43.3288932
  77.3482706  62.4970223  43.0995701  78.2281706  63.7644824  43.9863972
  77.7949992  60.4539978  44.8370014  77.5836368  59.9499142  45.7800431
  76.9733616  60.2822013  44.1416619  78.7178942  60.0583015  44.4129846
  79.2519992  63.7039978  46.3160014  78.3059992  64.3279978  46.8200014
  80.3969992  64.3029978  45.9990014  81.6819992  63.6559978  45.7050014
  81.7642363  63.4689976  44.6343156  81.7512276  62.7114893  46.2446402
  82.6749992  64.6639978  46.1900014  83.6090731  64.5601035  45.6379044
  82.8637791  64.5168182  47.2533930  82.0429992  65.9829978  45.9420014
  82.2118753  66.2521760  44.8993495  82.4035503  66.7845893  46.5866360
  80.5489992  65.7499978  46.1840014  80.2407559  66.0044563  47.1980701
  79.7059992  66.5249978  45.1910014  79.5369992  66.1179978  44.0410014
  79.1729992  67.6499978  45.6480014  79.3109923  67.9377568  46.6062561
  78.3479992  68.4829978  44.7910014  77.6353300  67.8589476  44.2517770
  77.5739992  69.4959978  45.6260014  78.2820444  70.1546943  46.1288844
  76.6579992  70.3169978  44.7500014  75.9493201  69.6589901  44.2471105
  76.1139501  71.0345661  45.3641719  77.2486232  70.8508731  44.0055277
  76.7829992  68.7979978  46.5930014  76.2927069  69.4311251  47.1224952
  79.2369992  69.1939978  43.7820014  80.2459992  69.7979978  44.1530014
  78.8739992  69.1039978  42.5040014  78.0670582  68.5599565  42.2338819
  79.6529992  69.7499978  41.4570014  80.7104400  69.5234257  41.5933219
  79.2219992  69.2549978  40.0800014  79.1749602  68.1662807  40.1041151
  78.2337351  69.6559529  39.8549034  80.1829992  69.6769978  38.9730014
  81.2049992  70.3189978  39.2210014  79.8499992  69.3179978  37.7400014
  80.4475834  69.5690653  36.9654318  79.0004352  68.7952748  37.5815640
  79.4809992  71.2579978  41.5580014  78.3619992  71.7739978  41.4810014
  80.5939992  71.9559978  41.7550014  81.4636128  71.4581407  41.8815319
  80.6119992  73.4089978  41.8400014  79.6435697  73.8175182  41.5512895
  80.9349992  73.8739978  43.2700014  81.0701871  74.9555719  43.2654124
  79.8159992  73.5099978  44.2210014  79.6805179  72.4284639  44.2264807
  80.0676756  73.8492188  45.2258341  78.8924814  73.9896969  43.8968022
  82.2229992  73.2299978  43.7370014  83.0363122  73.5184291  43.0710949
  82.4489623  73.5615381  44.7504714  82.1124225  72.1456750  43.7261601
  81.6419992  73.9379978  40.8540014  82.0719992  75.0939978  40.9470014
  82.0349992  73.1049978  39.8950014  81.5982293  72.2011236  39.7839036
  83.0999992  73.4699978  38.9830014  83.8600289  73.9962816  39.5604782
  83.5213396  72.5469112  38.5849026  82.6609992  74.3479978  37.8310014
  81.8529992  75.2609978  38.0100014  83.1769992  74.0719978  36.6360014
  83.7973943  73.2844261  36.5137716  82.9089992  74.9249978  35.4860014
  82.7540613  75.9534122  35.8122792  84.0919992  74.8919978  34.5230014
  84.9834745  75.2428890  35.0428538  84.2480262  73.8670356  34.1865373
  83.8409992  75.7219978  33.4050014  84.5926418  75.6914083  32.8085976
  81.6409992  74.5249978  34.7510014  80.9179992  75.3919978  34.2460014
  81.3629992  73.2259978  34.6740014  81.9946590  72.5362262  35.0552106
  80.1769992  72.7609978  33.9690014  80.0661741  73.2972642  33.0265391
  80.3049992  71.2669978  33.6690014  81.2847039  71.1139982  33.2163766
  80.2608570  70.7436035  34.6240982  79.2309992  70.7239978  32.7450014
  78.2666662  70.8361572  33.2405646  79.2390878  71.3147702  31.8290185
  79.4579992  69.2629978  32.4060014  80.4258886  69.1615294  31.9150908
  79.4566472  68.6829041  33.3288172  78.3669992  68.7489978  31.4840014
  77.4093839  68.8838869  31.9868716  78.3858818  69.3472663  30.5730582
  78.5469992  67.3139978  31.1380014  78.5291015  66.7594093  31.9819274
  77.8000457  67.0191384  30.5254508  79.4340987  67.1888581  30.6716393
  78.9069992  73.0519978  34.7570014  77.8539992  73.3069978  34.1620014
  78.9899992  73.0569978  36.0830014  79.8773753  72.8754330  36.5298765
  77.8149992  73.2359978  36.9270014  76.9684616  72.7318186  36.4608721
  78.0589992  72.6129978  38.2970014  78.8981580  73.1135380  38.7800874
  77.1663014  72.7257780  38.9122017  78.2872271  71.5536512  38.1795451
  77.4429992  74.7149978  37.0420014  77.9399992  75.5729978  36.3060014
  76.5559992  75.0209978  37.9830014  76.2067974  74.2829297  38.5774868
  76.0309992  76.3689978  38.1730014  75.7023799  76.7817866  37.2192122
  74.8399992  76.3299978  39.1230014  75.1487877  75.9311639  40.0892728
  74.4349032  77.3329906  39.2571758  73.7099992  75.4719978  38.6470014
  72.7949992  75.9539978  37.7310014  72.9037277  76.9706858  37.3533461
  71.7499992  75.1619978  37.2930014  71.0334054  75.5517699  36.5700411
  71.6149992  73.8729978  37.7740014  70.7925801  73.2457740  37.4300292
  72.5209992  73.3809978  38.6890014  72.4172402  72.3656636  39.0716640
  73.5629992  74.1789978  39.1210014  74.2818999  73.7927802  39.8435785
  77.0649992  77.3379978  38.7180014  76.7109992  78.5299978  38.9190014
  78.2249992  76.8999978  38.9420014  78.4430116  75.9309631  38.7588501
  78.9368242  77.5179382  39.3047061  60.3999992  61.5569978  84.8450014
  60.1849992  61.8359978  83.7910014  59.8099992  62.1659978  85.5630014
  59.9049992  60.5659978  84.9280014  61.8609992  61.5389978  85.1210014
  62.2039992  60.4919978  84.9810014  62.3569992  62.2369978  84.4130014
  62.2509992  61.9539978  86.5760014  63.3619992  61.9759978  86.5760014
  62.0079992  62.9999978  86.8590014  61.7739992  60.9919978  87.6760014
  60.6699992  60.9029978  87.5870014  62.2529992  60.0009978  87.5260014
  62.1349992  61.4929978  89.0720014  62.1639992  62.5989978  89.1800014
  61.3729992  61.2009978  89.8250014  63.5939992  61.1309978  89.5140014
  63.8049992  60.0659978  89.2770014  64.2829992  61.6889978  88.8450014
  63.8789992  61.1579978  91.0360014  63.3409992  60.4019978  91.6480014
  64.9419992  60.8519978  91.1420014  63.5619992  62.5829978  91.5950014
  64.0789992  63.3919978  91.0360014  62.4559992  62.6699978  91.5290014
  63.9789992  62.6719978  93.1100014  63.1549992  62.1679978  93.6580014
  64.9799992  62.1919978  93.1540014  64.4179992  64.1139978  93.5770014
  65.4089992  64.3239978  93.1200014  63.6259992  64.8279978  93.2670014
  64.5929992  64.3089978  95.0740014  65.4019992  63.6349978  95.4260014
  65.0109992  65.3219978  95.2590014  63.3729992  64.0859978  96.0220014
  62.9049992  63.0789978  96.0500014  63.6789992  64.3069978  97.0670014
  62.2409992  65.1209978  95.7330014  62.5629992  66.1109978  95.3440014
  61.7789992  64.7619978  94.7890014  61.2249992  65.0099978  96.8150014
  60.6149992  64.0909978  96.6820014  61.7609992  65.1779978  97.7740014
  60.1599992  66.1319978  96.5000014  60.5789992  67.1209978  96.7840014
  59.9259992  66.1079978  95.4140014  58.8849992  65.8989978  97.2250014
  57.7969992  65.7759978  96.6670014  59.0639992  65.8409978  98.6070014
  57.9579992  65.5669978  99.4600014  58.0399992  66.1889978 100.3770014
  56.9709992  65.7829978  99.0000014  57.9119992  64.0799978  99.8220014
  57.0639992  63.9769978 100.5330014  59.1209992  63.4579978 100.6450014
  59.3369992  64.1709978 101.4690014  58.7119992  62.5769978 101.1850014
  60.1579992  63.0889978  99.7160014  61.3009992  62.1349978 100.1240014
  61.6079992  62.4509978 101.6720014  61.9219992  61.2939978 102.4810014
  60.9919992  60.6949978 102.5730014  62.6779992  60.6449978 101.9880014
  62.5519992  61.5959978 103.8460014  61.8249992  62.1229978 104.4450014
  62.5529992  60.6589978 104.3830014  63.9579992  62.2279978 103.8850014
  64.9259992  61.3029978 103.0960014  65.0309992  60.4859978 103.7940014
  64.4069992  60.9099978 102.2350014  65.8399992  61.8179978 102.8390014
  63.9639992  63.6039978 103.2640014  63.3869992  64.2819978 103.8750014
  64.9879992  63.8599978 103.0320014  63.3549992  63.5919978 102.3730014
  64.6319992  62.3169978 105.1990014  64.1399992  63.1799978 105.6220014
  65.6889992  62.4729978 105.0380014  64.3219992  61.3799978 105.6360014
  60.7649992  60.8109978  99.8400014  62.5309992  62.5889978  99.3830014
  57.5719992  63.4099978  98.5900014  57.2139992  62.1479978  98.5810014
  57.2439992  61.3699978  99.5150014  57.0879992  61.8339978  97.1090014
  56.7519992  62.8129978  96.7060014  56.2179992  61.1809978  96.8830014
  58.4109992  61.2959978  96.3670014  58.6519992  60.3679978  96.9290014
  59.0629992  62.1789978  96.5360014  58.1069992  61.1909978  94.8580014
  57.1789992  61.7419978  94.5970014  57.9669992  60.1479978  94.5010014
  59.1249992  61.8169978  93.8720014  58.7669992  61.4249978  92.8970014
  60.1369992  61.3649978  93.9490014  59.2849992  63.3289978  93.7880014
  59.6169992  63.5469978  94.8250014  58.3099992  63.7729978  93.4970014
  60.3209992  63.5699978  92.7630014  60.0159992  62.9319978  91.9060014
  61.2779992  63.2329978  93.2140014  60.4439992  65.0739978  92.3610014
  61.4699992  65.2159978  91.9610014  60.3739992  65.7059978  93.2720014
  59.3339992  65.4649978  91.4500014  58.3619992  65.6189978  91.9420014
  59.3709992  65.5439978  90.1240014  58.3719992  65.6929978  89.6870014
  60.5079992  65.2849978  89.1720014  60.0399992  65.2169978  88.1670014
  61.1319992  64.4259978  89.5000014  61.4939992  66.4189978  89.1560014
  61.8429992  66.4199978  90.2110014  60.9809992  67.3789978  88.9320014
  62.7219992  66.2569978  88.2440014  63.0189992  65.1899978  88.3290014
  63.5349992  66.8109978  88.7600014  62.6979992  66.7819978  86.8820014
  63.6319992  66.4269978  86.3950014  62.8529992  67.8789978  86.9650014
  61.5279992  66.3739978  86.0070014  60.6469992  66.9159978  86.4140014
  61.4009992  65.2709978  86.0250014  61.7459992  66.9039978  84.6140014
  62.3919992  67.7939978  84.7710014  60.8259992  67.2959978  84.1300014
  62.5719992  66.0269978  83.6570014  63.3529992  65.4489978  84.1970014
  63.0009992  66.6419978  82.8370014  61.5899992  64.9839978  82.9400014
  60.9819992  64.4099978  83.6720014  62.2299992  64.3139978  82.3260014
  60.9409992  65.5189978  82.2150014  75.5219992  42.2679978  82.2030014
  74.4999992  42.1209978  81.7920014  75.5709992  41.2909978  82.7300014
  76.2279992  42.3229978  81.3470014  75.5999992  43.4169978  83.0440014
  75.4709992  44.2799978  82.3570014  74.9399992  43.3969978  83.9370014
  77.0329992  43.5469978  83.5520014  77.0179992  42.8979978  84.4540014
  77.6339992  43.1119978  82.7260014  77.4849992  44.9439978  84.0490014
  77.3839992  45.6899978  83.2330014  76.8299992  45.3489978  84.8490014
  78.8879992  45.0389978  84.5130014  79.4489992  44.6519978  83.6360014
  79.1559992  46.1009978  84.6990014  79.1889992  44.1009978  85.7780014
  78.3939992  44.3229978  86.5220014  79.0459992  43.0409978  85.4780014
  80.5559992  44.2219978  86.4750014  80.6059992  43.2819978  87.0640014
  81.2659992  44.1559978  85.6230014  80.7449992  45.3669978  87.4370014
  81.7649992  45.3599978  87.8780014  80.7539992  46.3419978  86.9040014
  79.7909992  45.5779978  88.6430014  80.0789992  46.5839978  89.0160014
  78.7669992  45.7129978  88.2320014  79.5739992  44.4669978  89.7120014
  79.1149992  43.5569978  89.2700014  80.4699992  44.1909978  90.3070014
  78.5269992  44.9069978  90.7330014  78.6739992  45.9329978  91.1340014
  77.5159992  44.9339978  90.2730014  78.5759992  43.9319978  91.9220014
  78.7699992  42.9479978  91.4440014  79.4209992  44.3399978  92.5170014
  77.2829992  43.7199978  92.6140014  76.7499992  44.6749978  92.8120014
  76.6289992  43.0389978  92.0290014  77.5339992  43.1709978  94.0410014
  78.5029992  43.5349978  94.4450014  76.7269992  43.4779978  94.7400014
  77.5749992  41.5919978  94.1160014  76.5369992  41.2549978  93.9060014
  78.2429992  41.1359978  93.3550014  77.7859992  41.1059978  95.5730014
  76.7949992  40.6909978  96.1710014  79.0429992  41.1199978  96.0150014
  79.0489992  40.7339978  97.4090014  78.2299992  41.2559978  97.9490014
  78.6829992  39.6849978  97.4510014  80.3779992  40.9879978  98.0970014
  80.9919992  40.1039978  97.8190014  80.1839992  40.8579978  99.6550014
  79.1879992  41.3089978  99.8520014  79.9449992  39.8109978  99.9420014
  81.2789992  41.3759978 100.3800014  81.4469992  42.6329978 101.2330014
  80.1439992  43.4679978 100.9740014  80.0629992  44.7439978 101.6120014
  81.0329992  45.2689978 101.7430014  79.6399992  45.4309978 100.8490014
  79.4109992  44.5129978 102.9500014  80.1069992  43.9479978 103.5520014
  79.2829992  45.4419978 103.4850014  78.0639992  43.9239978 103.0080014
  78.1019992  42.4899978 102.5330014  77.1859992  42.0159978 102.8540014
  78.1889992  42.3749978 101.4630014  78.9029992  41.9709978 103.0390014
  77.5719992  43.9379978 104.4410014  77.6639992  44.9329978 104.8500014
  76.4989992  43.8229978 104.4970014  78.1359992  43.2719978 105.0780014
  77.1309992  44.6729978 102.0650014  77.5389992  44.5489978 101.0720014
  77.0609992  45.7139978 102.3440014  76.1419992  44.2449978 102.1250014
  81.4929992  42.2169978 102.6440014  82.5939992  43.3679978 100.6670014
  80.8309992  42.2989978  97.8370014  82.1509992  42.2959978  97.7610014
  82.8669992  41.3689978  98.1220014  82.5599992  43.6649978  97.2020014
  83.6319992  43.6409978  96.9120014  82.4699992  44.4229978  98.0090014
  81.6879992  44.0179978  95.9650014  81.5939992  45.1209978  95.8780014
  80.6359992  43.7849978  96.2370014  82.2079992  43.3769978  94.6800014
  83.3089992  43.2279978  94.6670014  82.1029992  44.0649978  93.8140014
  81.3679992  42.0959978  94.2360014  80.2799992  42.2439978  94.4070014
  81.6739992  41.3439978  94.9940014  81.5599992  41.6999978  92.7930014
  82.6089992  41.3659978  92.6420014  81.4509992  42.6379978  92.2080014
  80.7709992  40.5469978  92.2030014  79.7819992  40.8609978  91.8080014
  80.5979992  39.6969978  92.8980014  81.4969992  39.9689978  90.9420014
  81.0129992  38.9999978  90.6960014  82.5059992  39.5709978  91.1840014
  81.4849992  40.8349978  89.7060014  80.5649992  41.4349978  89.6470014
  82.5079992  41.0219978  88.8530014  82.1879992  41.5549978  87.9450014
  83.9719992  40.4219978  88.8870014  84.5139992  40.3549978  89.8550014
  84.5949992  41.0359978  88.2020014  83.9459992  38.9929978  88.2610014
  83.9609992  38.1829978  89.0210014  84.9299992  38.9749978  87.7460014
  82.9979992  38.6799978  87.0710014  81.9699992  38.7349978  87.4880014
  83.2549992  37.6489978  86.7470014  83.3019992  39.6449978  85.9160014
  84.3089992  39.3899978  85.5230014  83.4549992  40.6549978  86.3530014
  82.2969992  39.7089978  84.7330014  81.4949992  40.2939978  85.2300014
  82.0219992  38.6889978  84.3890014  82.7839992  40.6519978  83.5380014
  83.7649992  40.3139978  83.1420014  82.8879992  41.6709978  83.9690014
  81.7419992  40.8879978  82.4550014  81.4719992  39.8809978  82.0700014
  82.2269992  41.3139978  81.5500014  80.5369992  41.6469978  82.8950014
  79.7869992  41.5459978  82.0810014  80.9449992  42.6789978  82.8430014
  80.2099992  41.3529978  83.9150014  87.7809992  72.2309978  85.6580014
  87.9909992  73.3179978  85.7420014  86.6939992  72.1529978  85.4420014
  88.3749992  72.0769978  84.7320014  88.2339992  71.5239978  86.8940014
  87.6339992  71.7579978  87.7990014  88.2139992  70.4409978  86.6500014
  89.6459992  71.7559978  87.3790014  90.3549992  71.3899978  86.6060014
  89.8699992  72.8379978  87.4950014  89.8989992  71.2129978  88.7550014
  89.3689992  71.8259978  89.5160014  89.5009992  70.1759978  88.7750014
  91.3709992  71.1219978  89.0060014  91.5599992  70.6979978  90.0150014
  91.6419992  70.3729978  88.2310014  92.1339992  72.4789978  88.9440014
  92.1639992  72.7439978  87.8650014  91.4819992  73.2419978  89.4210014
  93.5609992  72.6939978  89.5730014  94.2889992  72.0839978  88.9960014
  93.8889992  73.7439978  89.4200014  93.6859992  72.4419978  91.1480014
  93.3659992  71.3839978  91.2630014  94.7809992  72.4029978  91.3290014
  92.9329992  73.3569978  92.0750014  93.4469992  74.3279978  91.9120014
  91.8569992  73.5349978  91.8640014  93.0299992  72.9769978  93.5720014
  93.9899992  73.1719978  94.0950014  92.3519992  73.6069978  94.1870014
  92.4709992  71.6209978  93.9270014  93.1019992  70.8449978  93.4430014
  92.3689992  71.5299978  95.0300014  91.0319992  71.3619978  93.5020014
  90.4569992  72.2339978  93.8800014  91.0779992  71.2939978  92.3940014
  90.4379992  70.1119978  94.1970014  90.8479992  69.1859978  93.7410014
  90.6429992  70.0729978  95.2890014  88.9019992  69.9719978  94.0960014
  88.6899992  70.1179978  93.0150014  88.8109992  68.8839978  94.3030014
  88.1739992  71.0699978  94.8280014  88.6279992  72.0759978  94.7000014
  87.0819992  71.0969978  94.6250014  88.0859992  70.6499978  96.2830014
  87.3049992  69.8009978  96.7340014  88.8869992  71.3409978  97.0600014
  88.8039992  71.1109978  98.4710014  89.0189992  72.0839978  98.9620014
  87.8009992  70.7619978  98.7980014  89.8519992  69.9399978  98.9490014
  89.3529992  69.0619978  98.4870014  89.8759992  70.0379978 100.5320014
  90.1989992  71.0619978 100.8150014  88.8509992  69.7949978 100.8840014
  90.8169992  69.1449978 101.0720014  90.9919992  68.9929978 102.6300014
  91.9869992  70.1659978 103.0510014  93.2529992  70.2389978 102.4840014
  93.9729992  70.5129978 103.2850014  93.6859992  69.2409978 102.2550014
  93.1699992  71.1199978 101.1610014  93.9949992  70.7999978 100.5430014
  92.2539992  71.0219978 100.5970014  93.4829992  72.5889978 101.3990014
  93.4339992  73.3059978 100.0530014  92.4309992  73.3479978  99.6560014
  93.5599992  74.3779978 100.0940014  94.1009992  72.9789978  99.2680014
  92.4899992  73.1869978 102.3620014  92.4139992  72.6909978 103.3180014
  92.6539992  74.2529978 102.4220014  91.5379992  73.0169978 101.8810014
  94.8509992  72.7859978 102.0760014  95.4579992  73.0269978 101.2160014
  95.1769992  72.0169978 102.7600014  94.6319992  73.6579978 102.6740014
  89.6859992  69.2599978 103.2520014  91.5059992  67.5909978 102.9670014
  91.1979992  70.1739978  98.4500014  91.8559992  69.0999978  98.1950014
  91.3589992  68.0079978  98.3870014  93.1729992  69.3069978  97.4700014
  93.7949992  69.9949978  98.0820014  92.8179992  69.6909978  96.4900014
  93.9449992  67.9519978  97.3560014  93.2689992  67.1079978  97.6070014
  94.7389992  67.8109978  98.1200014  94.6329992  67.7579978  95.9970014
  95.1979992  66.8029978  96.0630014  95.3429992  68.6089978  95.9170014
  93.6509992  67.6359978  94.8750014  92.6839992  68.1699978  94.9930014
  93.4889992  66.5459978  95.0190014  94.3499992  67.9449978  93.5310014
  95.4109992  67.6159978  93.5460014  94.4189992  69.0439978  93.3820014
  93.6399992  67.3149978  92.3200014  93.5229992  66.2199978  92.4650014
  94.2809992  67.5259978  91.4370014  92.2069992  67.7539978  91.9410014
  92.1809992  67.7139978  90.8310014  92.1389992  68.8029978  92.3010014
  91.0419992  66.9259978  92.4900014  91.1189992  66.4929978  93.4980014
  89.8399992  66.7389978  91.8930014  89.0849992  66.0919978  92.3630014
  89.5079992  67.3379978  90.5200014  89.7819992  68.4099978  90.4190014
  88.3979992  67.3899978  90.5380014  90.0339992  66.5759978  89.2430014
  89.2899992  65.7989978  88.9670014  91.0549992  66.1419978  89.1930014
  90.1089992  67.5229978  87.9790014  90.6599992  68.4469978  88.2550014
  89.0939992  67.8459978  87.6620014  90.9219992  66.9619978  86.8080014
  90.0849992  66.4899978  86.2500014  91.5869992  66.1309978  87.1280014
  91.6159992  67.9719978  85.9370014  91.2179992  69.0059978  85.8570014
  91.5849992  67.6819978  84.8650014  93.1169992  67.9379978  86.3550014
  93.4969992  66.9009978  86.2380014  93.1699992  68.2299978  87.4250014
  93.9509992  68.9659978  85.5810014  93.8189992  68.7109978  84.5080014
  95.0119992  68.7289978  85.8110014  93.6109992  70.4489978  85.8820014
  94.3969992  71.0299978  85.3550014  93.6879992  70.5519978  86.9860014
  92.6649992  70.8239978  85.4370014  69.1219992  93.2129978  84.5350014
  69.4439992  92.1509978  84.5010014  69.9939992  93.7359978  84.9830014
  68.9349992  93.6249978  83.5210014  68.0759992  93.4119978  85.5080014
  67.8039992  94.4849978  85.4110014  67.1269992  92.9299978  85.1900014
  68.3539992  93.2129978  87.0810014  68.7889992  92.1989978  87.2090014
  69.2299992  93.7619978  87.4880014  67.0679992  93.2439978  87.9320014
  66.8239992  94.3269978  87.9010014  66.1509992  92.7559978  87.5390014
  67.2089992  92.7919978  89.3400014  68.0669992  93.2069978  89.9120014
  66.2999992  93.1159978  89.8910014  67.2349992  91.2029978  89.4630014
  67.9179992  90.7439978  88.7160014  67.6739992  90.8879978  90.4340014
  65.9139992  90.4239978  89.2640014  65.5679992  90.4189978  88.2080014
  66.0479992  89.3339978  89.4300014  64.7609992  90.8409978  90.2170014
  64.4179992  91.8259978  89.8330014  63.8279992  90.2469978  90.1170014
  65.0509992  90.8809978  91.6790014  65.9449992  91.4879978  91.9350014
  64.0949992  91.2709978  92.0900014  65.3829992  89.5439978  92.2960014
  64.6199992  88.7929978  91.9990014  66.2999992  89.1219978  91.8310014
  65.5569992  89.6089978  93.8400014  64.7429992  90.2709978  94.2030014
  65.4449992  88.6809978  94.4400014  66.8579992  90.2859978  94.3130014
  66.8949992  91.3559978  94.0170014  66.8319992  90.2269978  95.4220014
  68.0909992  89.6819978  93.7800014  67.9679992  89.5329978  92.6860014
  68.9469992  90.3109978  94.1060014  68.3779992  88.2349978  94.3470014
  68.0689992  88.1879978  95.4140014  67.8059992  87.4529978  93.8040014
  69.8449992  87.7429978  94.1590014  70.0789992  86.6919978  94.4350014
  70.0659992  87.9179978  93.0840014  70.8649992  88.6599978  94.9300014
  71.9599992  88.9999978  94.4080014  70.4139992  88.8799978  96.1310014
  71.3359992  89.4579978  97.0560014  71.7759992  88.6109978  97.6240014
  72.1699992  90.0149978  96.5780014  70.6059992  90.5189978  97.9710014
  71.2739992  90.8449978  98.7960014  69.3449992  89.9969978  98.7890014
  68.7339992  89.4379978  98.0490014  69.5149992  89.2249978  99.5690014
  68.6109992  91.1259978  99.1900014  68.9669992  91.6459978 100.6770014
  68.0379992  90.7209978 101.5550014  66.6749992  90.6719978 101.3240014
  66.4439992  90.5929978 100.2400014  66.2989992  89.7299978 101.7790014
  65.9819992  91.8099978 102.0900014  66.2159992  92.7949978 101.7130014
  64.9419992  91.7199978 101.8110014  65.9929992  91.9589978 103.5690014
  65.7209992  90.5769978 104.1110014  65.4729992  90.5819978 105.1620014
  64.8789992  90.2169978 103.5390014  66.5739992  89.9359978 103.9420014
  67.3559992  92.4299978 104.0020014  68.1639992  91.7459978 103.7910014
  67.6709992  93.2799978 103.4150014  67.4029992  92.5879978 105.0700014
  64.9669992  92.9249978 103.9930014  64.9679992  93.8659978 103.4620014
  65.0589992  93.0799978 105.0580014  63.9459992  92.6359978 103.7920014
  70.3709992  91.4219978 101.1100014  68.5109992  93.0439978 100.8850014
  70.2169992  91.6099978  97.2020014  71.1489992  92.4699978  96.8720014
  72.3499992  92.3689978  97.2060014  70.5359992  93.6809978  96.2650014
  71.2559992  94.4949978  96.0350014  69.9699992  94.1089978  97.1200014
  69.5899992  93.3359978  95.0650014  69.0049992  94.2779978  95.1340014
  68.9929992  92.4199978  95.2660014  70.2329992  93.2579978  93.7120014
  70.7969992  94.2049978  93.5760014  69.5359992  93.0949978  92.8630014
  71.3279992  92.1769978  93.6900014  70.8429992  91.1919978  93.8620014
  72.0949992  92.3219978  94.4810014  72.1869992  92.1259978  92.3880014
  72.4159992  91.0589978  92.1810014  73.1289992  92.6949978  92.5370014
  71.5889992  92.7029978  91.1250014  71.3529992  93.7729978  91.3080014
  70.5949992  92.2459978  90.9310014  72.4069992  92.7599978  89.7910014
  73.2879992  93.4059978  89.9920014  71.7989992  93.1509978  88.9480014
  73.0149992  91.2869978  89.5640014  73.9349992  91.0369978  90.1130014
  72.4439992  90.3769978  88.7500014  72.9349992  89.4039978  88.5990014
  71.1529992  90.6999978  88.0350014  71.2409992  91.7089978  87.5780014
  70.3739992  90.6889978  88.8270014  71.0059992  89.7219978  86.9350014
  70.1489992  89.9539978  86.2670014  70.8829992  88.6809978  87.3050014
  72.2279992  89.6989978  85.9370014  73.1899992  89.6929978  86.4930014
  72.1819992  90.7259978  85.5150014  72.2199992  88.5599978  84.8780014
  72.6289992  87.6769978  85.4140014  73.0829992  88.6799978  84.1890014
  70.9279992  88.3179978  84.1680014  70.7329992  89.2309978  83.5670014
  70.0519992  88.2799978  84.8500014  70.9329992  87.0929978  83.2680014
  71.6269992  87.3229978  82.4310014  69.9439992  86.9659978  82.7770014
  71.2599992  85.7879978  83.9610014  70.6479992  85.0389978  83.4150014
  71.0979992  85.8209978  85.0600014  72.7389992  85.3299978  83.6970014
  73.4499992  86.1189978  84.0230014  72.9509992  85.0729978  82.6360014
  72.9119992  84.5139978  84.4300014  98.0329992  76.6609978  84.2160014
  98.7229992  76.6879978  85.0860014  97.1459992  77.2759978  84.4820014
  98.5479992  77.0759978  83.3230014  97.3989992  75.3519978  83.7310014
  96.5819992  75.5299978  82.9990014  98.0739992  74.7809978  83.0570014
  96.9669992  74.3669978  84.8430014  96.4059992  74.7969978  85.7010014
  96.2319992  73.6439978  84.4280014  98.1779992  73.5689978  85.3860014
  98.6749992  73.1759978  84.4740014  98.9459992  74.2109978  85.8680014
  97.7639992  72.2749978  86.2180014  97.1279992  72.6039978  87.0670014
  97.1699992  71.5789978  85.5880014  98.8619992  71.4069978  86.9120014
  98.4349992  70.5459978  87.4690014  99.5509992  71.0139978  86.1350014
  99.6679992  72.4159978  87.7740014 100.0239992  73.2869978  87.1820014
  99.0849992  72.8659978  88.6060014 100.9159992  71.7699978  88.4140014
 100.5879992  70.9139978  89.0410014 101.4439992  71.1969978  87.6230014
 101.8539992  72.7239978  89.1210014 102.7179992  72.8749978  88.4390014
 101.3079992  73.6839978  89.2490014 102.4229992  72.2389978  90.4990014
 101.5439992  72.3029978  91.1750014 102.6959992  71.1629978  90.4520014
 103.6479992  72.9619978  91.0960014 103.9649992  72.3009978  91.9300014
 104.5429992  73.0869978  90.4490014 103.3089992  74.3369978  91.7620014
 103.3529992  75.1739978  91.0330014 102.2689992  74.3319978  92.1520014
 104.3349992  74.8159978  92.8570014 104.8409992  73.9729978  93.3750014
 105.1819992  75.4409978  92.5020014 103.5939992  75.4629978  94.0110014
 103.2729992  76.4379978  93.5860014 102.8099992  74.7109978  94.2450014
 104.3929992  75.8369978  95.2910014 104.6909992  74.9469978  95.8860014
 105.2939992  76.3959978  94.9610014 103.5649992  76.8889978  96.1460014
 103.9419992  77.8619978  96.7170014 102.4209992  76.2549978  96.3570014
 101.3759992  76.9529978  97.1960014 101.7809992  77.7919978  97.8010014
 100.6489992  77.3979978  96.4830014 100.6039992  75.8439978  98.0040014
  99.6489992  76.2089978  98.4390014 101.4649992  75.4669978  99.2160014
 102.4689992  75.1129978  98.8970014 101.6299992  76.3369978  99.8880014
 100.6549992  74.5199978  99.8740014 100.7459992  74.1859978 101.3610014
  99.8869992  75.3169978 102.1170014  99.2469992  76.4379978 101.4000014
  99.9379992  77.2969978 101.2610014  99.0069992  76.1749978 100.3480014
  98.0519992  76.9979978 102.3030014  98.3659992  77.5379978 103.1850014
  97.5969992  77.7759978 101.7070014  96.9889992  76.0059978 102.8690014
  97.5509992  75.0639978 103.9130014  97.9119992  75.6889978 104.7170014
  96.7579992  74.4449978 104.3080014  98.2769992  74.4039978 103.4620014
  96.0209992  76.9049978 103.5080014  95.0899992  76.4269978 103.7740014
  96.4229992  77.2749978 104.4400014  95.6179992  77.6879978 102.8820014
  96.4079992  75.1819978 101.6810014  97.1359992  74.4379978 101.3940014
  96.2069992  75.8119978 100.8270014  95.4469992  74.8349978 102.0310014
 100.1129992  72.7989978 101.5640014 102.1109992  74.4359978 101.9160014
 100.3199992  74.6549978  97.1610014  99.2739992  74.9039978  96.4320014
  98.8109992  76.0049978  96.2120014  98.8659992  73.5429978  95.7260014
  98.0109992  73.2719978  96.3820014  99.5769992  72.6909978  95.7860014
  98.4329992  73.8059978  94.3280014  97.7529992  74.6159978  93.9890014
  97.9139992  72.8719978  94.0220014  99.7469992  74.0239978  93.4580014
 100.3629992  73.0989978  93.4780014 100.2929992  74.9109978  93.8440014
  99.4549992  74.2509978  91.9780014  98.7939992  73.5059978  91.4850014
 100.4019992  74.2649978  91.3970014  98.6869992  75.5509978  91.5760014
  99.1609992  76.4689978  91.9860014  97.6629992  75.5429978  92.0060014
  98.3639992  75.6969978  90.0710014  97.6829992  74.9209978  89.6600014
  99.3519992  75.6509978  89.5660014  97.9819992  77.1539978  89.7660014
  97.1559992  77.4439978  90.4510014  97.6869992  77.0929978  88.6970014
  98.9149992  78.3059978  90.0510014  98.6969992  78.9089978  90.9450014
  99.9549992  78.7939978  89.3140014 100.5699992  79.5859978  89.7660014
 100.4149992  78.2619978  87.9760014 100.3829992  79.0609978  87.2040014
  99.6649992  77.5189978  87.6270014 101.8469992  77.6929978  88.0330014
 101.9569992  76.9889978  88.8860014 102.5299992  78.5049978  88.3650014
 102.2269992  77.1769978  86.7430014 103.3369992  77.1439978  86.7810014
 102.0399992  77.9299978  85.9470014 101.6469992  75.8209978  86.3590014
 100.5389992  75.8249978  86.4300014 102.0989992  75.0999978  87.0740014
 102.0879992  75.2229978  84.9750014 101.6869992  74.1959978  84.8370014
 103.1949992  75.2059978  84.8850014 101.6499992  76.1189978  83.7960014
 102.2379992  77.0589978  83.7270014 100.5919992  76.4289978  83.9330014
 101.8329992  75.4969978  82.3980014 102.9059992  75.3599978  82.1450014
 101.3989992  76.2489978  81.7050014 101.1829992  74.1849978  82.3040014
 100.1749992  74.3249978  82.7500014 101.6819992  73.3349978  82.8170014
 101.0809992  73.8379978  81.2540014  95.5669992  57.8579978  82.3680014
  94.6919992  58.5369978  82.2860014  95.3529992  57.0779978  81.6060014
  96.4729992  58.4399978  82.0920014  95.7149992  57.1529978  83.6970014
  94.8649992  56.5159978  84.0220014  96.6799992  56.6069978  83.7710014
  95.7369992  58.1979978  84.9080014  96.7529992  58.6309978  85.0260014
  95.0419992  59.0199978  84.6340014  95.2329992  57.7189978  86.2980014
  94.2889992  57.1459978  86.1850014  95.8739992  56.9179978  86.7260014
  95.0219992  58.8619978  87.1600014  94.5519992  59.7129978  86.6220014
  94.3869992  58.5119978  88.0010014  96.3729992  59.2769978  87.7580014
  96.9289992  58.4069978  88.1670014  96.9989992  59.6159978  86.9050014
  96.2759992  60.4739978  88.7370014  97.3659992  60.6549978  88.8550014
  95.8289992  61.3069978  88.1540014  95.5549992  60.3549978  90.0600014
  95.4159992  61.3799978  90.4670014  94.5559992  59.8919978  89.9100014
  96.1589992  59.4499978  91.0990014  96.6009992  58.6359978  90.4850014
  96.9279992  60.0729978  91.6040014  95.1629992  58.9199978  92.0730014
  94.7299992  59.8059978  92.5850014  94.2429992  58.5009978  91.6120014
  95.6419992  57.8029978  93.0300014  94.8109992  57.4019978  93.6470014
  95.9169992  56.9239978  92.4090014  96.8719992  58.2019978  93.9220014
  97.1959992  57.2559978  94.4070014  97.7139992  58.6839978  93.3800014
  96.4679992  59.1479978  95.0600014  95.8089992  59.9209978  94.6120014
  95.8019992  58.5649978  95.7310014  97.5019992  59.8029978  96.0240014
  98.4929992  59.8219978  95.5220014  97.2279992  60.8719978  96.1480014
  97.6279992  59.1529978  97.4210014  96.6469992  59.1379978  97.9410014
  97.9899992  58.1069978  97.3270014  98.4619992  60.0249978  98.4100014
  98.8039992  61.1329978  98.1500014  98.6369992  59.4679978  99.6250014
  99.0289992  60.3709978 100.6580014  99.5709992  59.7679978 101.4190014
  99.6359992  61.2259978 100.2920014  97.7119992  60.8439978 101.3670014
  97.9419992  61.4509978 102.2690014  96.6859992  59.6829978 101.7010014
  97.3509992  58.9179978 102.1550014  96.0299992  60.0849978 102.5020014
  95.9719992  59.0989978 100.5590014  95.1079992  57.9059978 100.9380014
  94.1989992  58.4749978 102.1310014  93.3419992  57.6179978 102.7950014
  92.7709992  57.0139978 102.0590014  93.8599992  56.9269978 103.4950014
  92.2799992  58.3649978 103.6520014  91.4889992  57.7079978 103.9830014
  92.8029992  58.6739978 104.5450014  91.5869992  59.5529978 102.9230014
  90.8489992  59.2409978 101.5860014  91.5429992  58.6789978 100.9780014
  90.0229992  58.6209978 101.9030014  90.5299992  60.2249978 101.2750014
  90.5179992  60.1019978 103.8100014  89.5469992  59.6559978 103.6560014
  90.8799992  60.0049978 104.8220014  90.3539992  61.1359978 103.5440014
  92.5749992  60.6739978 102.8240014  92.9329992  60.8659978 103.8250014
  92.0739992  61.5559978 102.4530014  93.3239992  60.3609978 102.1120014
  94.1799992  57.6709978  99.7950014  95.9439992  56.8379978 101.4930014
  96.9679992  61.6839978 100.4290014  96.1589992  62.5719978 100.8920014
  96.0389992  62.9479978 102.0060014  95.4059992  63.1229978  99.6090014
  96.1609992  63.7679978  99.1100014  94.5379992  63.7589978  99.8870014
  94.9269992  62.0429978  98.6720014  93.9709992  61.5739978  98.9890014
  95.6409992  61.1949978  98.5840014  94.6579992  62.5609978  97.2230014
  95.5819992  62.8699978  96.6880014  93.9819992  63.4399978  97.2890014
  93.8389992  61.5009978  96.4470014  92.9599992  61.1839978  97.0480014
  94.4579992  60.6239978  96.1610014  93.1379992  62.1679978  95.1860014
  93.9179992  62.2939978  94.4050014  92.6319992  63.1039978  95.5070014
  92.0259992  61.1479978  94.7360014  91.3419992  61.1419978  95.6110014
  92.4299992  60.1499978  94.4630014  91.1109992  61.5099978  93.5210014
  91.7229992  61.9959978  92.7320014  90.4489992  62.3049978  93.9270014
  90.4379992  60.2569978  93.0980014  89.6109992  59.8849978  93.7210014
  90.7339992  59.7089978  91.8780014  90.2199992  58.7909978  91.5600014
  91.6809992  60.2609978  90.8190014  91.9869992  59.4019978  90.1850014
  92.5659992  60.7089978  91.3210014  91.0389992  61.2049978  89.8310014
  90.2229992  61.7459978  90.3550014  90.5129992  60.5529978  89.1020014
  92.0149992  62.0579978  89.1020014  92.7869992  61.4379978  88.5980014
  92.5729992  62.6939978  89.8210014  91.3579992  63.0579978  88.1480014
  91.9719992  63.9829978  88.1820014  90.3879992  63.3069978  88.6270014
  91.2659992  62.5079978  86.6920014  90.6179992  63.0109978  85.9430014
  90.8489992  61.4779978  86.6800014  92.7579992  62.4699978  86.0660014
  93.4389992  61.6939978  86.4770014  93.0299992  63.5409978  86.1900014
  92.7719992  62.1879978  84.5840014  93.8139992  62.4249978  84.2810014
  92.1869992  62.7759978  83.8450014  92.4849992  60.7149978  84.1800014
  93.0479992  60.3979978  83.2770014  91.3999992  60.6639978  83.9460014
  92.6999992  59.9089978  84.9140014  67.7859992  56.4459978  84.6100014
  67.6319992  55.3529978  84.7410014  68.7809992  56.6429978  84.1560014
  66.9829992  56.7269978  83.8960014  67.6399992  57.1909978  85.9870014
  67.2369992  58.1989978  85.7500014  66.8009992  56.6669978  86.4920014
  68.9969992  57.2609978  86.7070014  69.3559992  56.2089978  86.6990014
  69.6039992  57.9939978  86.1340014  68.8969992  57.7079978  88.1730014
  69.9179992  57.7719978  88.6070014  68.3469992  58.6679978  88.2760014
  68.2259992  56.5979978  89.0760014  67.1609992  56.5939978  88.7620014
  68.5529992  55.5519978  88.8960014  68.3329992  56.9809978  90.5550014
  69.2649992  57.5129978  90.8420014  67.4779992  57.6579978  90.7630014
  68.0539992  55.8769978  91.5710014  68.3799992  54.9249978  91.1000014
  68.6219992  55.9659978  92.5220014  66.4989992  55.7159978  91.7700014
  66.0069992  56.6109978  92.2090014  66.0409992  55.6199978  90.7630014
  66.0739992  54.5729978  92.6920014  65.0279992  54.3249978  92.4140014
  66.6429992  53.6799978  92.3570014  66.2559992  54.7309978  94.1160014
  67.3169992  55.0399978  94.2310014  65.6909992  55.6299978  94.4430014
  65.9469992  53.4809978  94.9770014  64.9589992  53.0459978  94.7180014
  66.5589992  52.6049978  94.6730014  65.8259992  53.6829978  96.4410014
  66.7569992  54.1539978  96.8250014  65.0229992  54.4149978  96.6720014
  65.3979992  52.3329978  97.1790014  65.2829992  52.5629978  98.2600014
  64.4249992  52.0139978  96.7480014  66.2159992  51.0529978  96.9490014
  65.5749992  50.1499978  97.0330014  66.7949992  51.1539978  96.0060014
  67.3329992  50.8089978  98.0200014  67.0559992  51.2039978  99.0200014
  67.3479992  49.7089978  98.1700014  68.7589992  51.1939978  97.6940014
  69.2499992  51.0029978  96.5870014  69.3469992  51.8679978  98.6410014
  70.6329992  52.4059978  98.6210014  71.2459992  52.2949978  99.5410014
  71.1819992  51.8879978  97.8060014  70.7679992  53.9369978  98.2250014
  71.8349992  54.2049978  98.3820014  69.9129992  54.6579978  99.2490014
  70.1539992  54.0589978 100.1540014  70.2679992  55.7099978  99.2050014
  68.5339992  54.5709978  98.8840014  67.4009992  54.7219978  99.9870014
  68.2989992  55.2609978 101.2650014  67.7719992  56.2329978 102.0680014
  68.2209992  57.1629978 101.6580014  66.6629992  56.2479978 102.0170014
  68.2509992  55.9999978 103.5600014  69.2739992  56.2919978 103.7460014
  67.5089992  56.4869978 104.1750014  68.3249992  54.5959978 104.1020014
  67.0799992  53.8089978 103.7570014  67.0579992  52.9789978 104.4480014
  66.2669992  54.4709978 104.0140014  67.0419992  53.5059978 102.7220014
  69.5679992  53.8369978 103.6640014  70.4439992  54.3769978 103.9910014
  69.5139992  52.8619978 104.1250014  69.4659992  53.5759978 102.6210014
  68.2989992  54.7479978 105.5690014  69.2329992  55.1949978 105.8770014
  67.9889992  53.8099978 106.0070014  67.5079992  55.4499978 105.7890014
  66.5089992  55.8109978  99.5020014  66.8559992  53.3499978 100.1480014
  70.3339992  54.2089978  96.8730014  71.2259992  54.4489978  95.9120014
  72.4439992  54.5329978  96.0740014  70.4909992  54.5879978  94.5400014
  71.2059992  54.9019978  93.7500014  69.6209992  55.2749978  94.6170014
  69.8349992  53.2439978  94.0950014  69.2669992  53.5329978  93.1850014
  69.0189992  52.8469978  94.7360014  70.9069992  52.1479978  93.6630014
  71.2479992  51.7599978  94.6470014  71.6369992  52.7329978  93.0640014
  70.2309992  51.0099978  92.8810014  69.3689992  50.7719978  93.5410014
  70.9959992  50.2059978  92.8420014  69.7989992  51.4239978  91.5430014
  70.5759992  51.6679978  90.7870014  69.1899992  52.3509978  91.4780014
  69.0989992  50.2159978  90.7650014  69.9069992  49.4599978  90.6640014
  68.8129992  50.5349978  89.7390014  67.9269992  49.5779978  91.4680014
  68.3019992  48.9599978  92.3130014  67.5949992  48.7899978  90.7590014
  66.8169992  50.5569978  91.7360014  66.8649992  50.8499978  92.7960014
  65.7219992  50.9559978  91.0200014  65.1009992  51.7659978  91.4300014
  65.3039992  50.4449978  89.6780014  64.2149992  50.2739978  89.5400014
  65.8569992  49.5219978  89.4020014  65.7839992  51.4539978  88.5760014
  66.8829992  51.5999978  88.6460014  65.2229992  52.4109978  88.6400014
  65.6159992  50.7829978  87.2460014  64.5149992  50.6379978  87.2370014
  66.0989992  49.7919978  87.1110014  65.9959992  51.7049978  86.0620014
  67.0929992  51.7799978  85.9030014  65.6539992  52.7499978  86.2190014
  65.4839992  51.1439978  84.7540014  64.3789992  51.0449978  84.8160014
  65.8789992  50.1189978  84.5890014  65.7229992  52.1129978  83.5550014
  66.7439992  52.5339978  83.6770014  64.9939992  52.9319978  83.7340014
  65.6359992  51.5869978  82.1150014  64.5519992  51.5689978  81.8700014
  66.0809992  50.5719978  82.0360014  66.3119992  52.5229978  81.1490014
  66.4479992  52.0749978  80.1420014  67.3769992  52.6369978  81.4420014
  65.8799992  53.5469978  81.1470014  83.9739992  55.3009978  84.9910014
  83.7309992  55.3449978  83.9070014  85.0599992  55.3839978  85.2090014
  83.5299992  56.2399978  85.3850014  83.3849992  53.9939978  85.5610014
  83.2309992  54.1699978  86.6470014  82.3169992  53.8969978  85.2710014
  84.2759992  52.7189978  85.3900014  83.7929992  51.9869978  86.0720014
  84.3629992  52.3839978  84.3340014  85.7519992  52.8579978  86.0320014
  86.1439992  51.8249978  86.1530014  86.3689992  53.4159978  85.2960014
  85.8189992  53.5259978  87.4230014  85.3799992  54.5459978  87.4120014
  85.2479992  52.9549978  88.1870014  87.2459992  53.5799978  87.9090014
  87.7219992  52.6219978  87.6080014  87.8129992  54.3689978  87.3700014
  87.3469992  53.9169978  89.4030014  88.3269992  54.3549978  89.6900014
  86.7099992  54.8149978  89.5580014  86.8919992  52.8669978  90.3130014
  85.8529992  52.6039978  90.0190014  87.4559992  51.9129978  90.2430014
  86.9819992  53.2889978  91.7530014  86.5799992  54.3119978  91.9130014
  86.3999992  52.5509978  92.3460014  88.3069992  53.0149978  92.4470014
  88.5219992  51.9319978  92.3220014  89.1109992  53.5389978  91.8870014
  88.2919992  53.3869978  93.9250014  88.2099992  54.4939978  93.8720014
  87.4089992  52.9129978  94.4050014  89.5799992  53.0439978  94.7200014
  90.3919992  53.5449978  94.1490014  89.4149992  53.3529978  95.7740014
  89.9349992  51.4819978  94.6430014  88.9419992  50.9849978  94.6170014
  90.4579992  51.2229978  93.6970014  91.0179992  51.0149978  95.6800014
  91.9339992  51.6389978  95.6010014  90.6089992  51.2869978  96.6770014
  91.3019992  49.5029978  95.5700014  91.4049992  49.1089978  94.5360014
  92.2069992  49.2309978  96.1550014  90.2639992  48.7289978  96.3960014
  89.5809992  47.8169978  95.9850014  90.2299992  49.1349978  97.6560014
  89.4439992  48.3789978  98.5910014  88.7519992  47.5979978  98.2090014
  90.1969992  47.9299978  99.2740014  88.4909992  49.4459978  99.3380014
  89.0209992  50.4009978  99.5390014  88.0809992  48.7159978 100.6600014
  87.5169992  47.8269978 100.3080014  88.8969992  48.4339978 101.3600014
  87.1359992  49.4899978 101.4140014  87.7259992  50.6129978 102.3170014
  86.7029992  51.8529978 102.1430014  85.3199992  51.7179978 101.8940014
  85.2699992  51.6169978 100.7880014  84.9879992  50.7689978 102.3670014
  84.5999992  52.9699978 102.4390014  83.5269992  52.9489978 102.3240014
  84.7879992  53.1069978 103.4940014  85.0649992  54.3149978 101.8250014
  84.9969992  54.3479978 100.3280014  85.2099992  55.3289978  99.9300014
  85.7199992  53.6709978  99.8970014  83.9739992  54.1239978 100.0660014
  84.1619992  55.3079978 102.4230014  84.0739992  55.1209978 103.4830014
  84.4129992  56.3249978 102.1590014  83.2179992  55.1429978 101.9250014
  86.4729992  54.6899978 102.1470014  86.5209992  54.7119978 103.2260014
  86.6789992  55.6999978 101.8250014  87.0569992  53.9469978 101.6230014
  87.5869992  50.2129978 103.6840014  89.0839992  51.0109978 101.8920014
  87.2709992  49.7769978  98.6280014  87.3389992  50.8259978  97.7930014
  88.2749992  51.5129978  97.5870014  85.9689992  50.8809978  96.9960014
  86.0039992  51.7329978  96.2830014  85.0779992  50.9279978  97.6570014
  86.0119992  49.5999978  96.1690014  85.8079992  48.7049978  96.7950014
  87.0319992  49.6339978  95.7320014  85.0749992  49.3239978  94.9640014
  84.1489992  49.6549978  95.4820014  84.9389992  48.2349978  94.7900014
  85.4429992  50.0459978  93.6230014  85.6059992  51.1369978  93.7560014
  84.6799992  49.8689978  92.8350014  86.8139992  49.5889978  92.9700014
  87.5999992  49.8279978  93.7180014  86.8819992  50.2959978  92.1170014
  86.7829992  48.0749978  92.5870014  85.9119992  47.8569978  91.9320014
  86.6099992  47.6069978  93.5800014  88.0339992  47.5629978  91.9500014
  88.0129992  48.0449978  90.9500014  88.1299992  46.4589978  91.8760014
  89.2759992  48.0889978  92.6270014  89.5329992  47.8109978  93.6600014
  90.1889992  48.8509978  91.9630014  91.0649992  49.1669978  92.5480014
  90.1279992  49.3219978  90.5280014  90.7249992  50.2569978  90.4710014
  89.1249992  49.6849978  90.2190014  90.5749992  48.3959978  89.4520014
  90.0969992  47.3989978  89.3480014  91.6459992  48.1569978  89.6260014
  90.5009992  49.0699978  88.0560014  91.0849992  48.4189978  87.3710014
  91.0449992  50.0369978  87.9950014  89.0929992  49.3359978  87.5300014
  89.1039992  49.5079978  86.4320014  88.6919992  50.2959978  87.9220014
  87.9639992  48.2929978  87.7920014  87.7839992  48.2619978  88.8880014
  88.4119992  47.3309978  87.4620014  86.7589992  48.6669978  86.9310014
  87.0729992  48.7709978  85.8710014  86.3699992  49.6549978  87.2570014
  85.5879992  47.7049978  86.9600014  85.3059992  47.6289978  88.0320014
  85.9439992  46.7029978  86.6360014  84.4619992  48.0649978  86.0990014
  84.0539992  49.0199978  86.4940014  83.6169992  47.3749978  86.3070014
  84.6669992  48.0009978  85.0080014  81.1119992  98.4519978  86.7830014
  81.4779992  98.3229978  85.7430014  81.1699992  99.5239978  87.0710014
  80.0519992  98.1239978  86.8490014  82.0809992  97.6969978  87.7790014
  83.0369992  98.2599978  87.8290014  81.6199992  98.0669978  88.7190014
  82.3269992  96.2229978  87.7830014  81.3309992  95.7849978  88.0100014
  82.5769992  95.9789978  86.7280014  83.4329992  95.6149978  88.6910014
  83.2619992  95.7599978  89.7800014  83.2629992  94.5319978  88.5090014
  84.8529992  95.9639978  88.4790014  85.1579992  95.5519978  87.4940014
  84.9329992  97.0539978  88.2780014  85.8819992  95.6399978  89.6670014
  85.9529992  94.5699978  89.9570014  86.8779992  95.9919978  89.3240014
  85.6109992  96.3799978  91.0010014  85.3059992  97.4249978  90.7800014
  84.7209992  95.9109978  91.4730014  86.7739992  96.1919978  92.0570014
  86.8589992  95.1329978  92.3800014  87.6949992  96.4179978  91.4780014
  86.5659992  97.0909978  93.2490014  86.5689992  98.1239978  92.8400014
  85.5419992  96.8289978  93.5890014  87.4449992  96.8219978  94.4900014
  87.4289992  95.7769978  94.8670014  88.5329992  96.8799978  94.2760014
  87.2379992  97.7959978  95.6140014  87.9609992  97.6089978  96.4370014
  87.3429992  98.8299978  95.2220014  85.7609992  97.7909978  96.1860014
  85.0589992  98.2759978  95.4750014  85.4409992  96.7439978  96.3710014
  85.7569992  98.5419978  97.5490014  86.5869992  98.1479978  98.1740014
  85.9219992  99.6099978  97.2900014  84.3139992  98.4369978  98.0830014
  83.6249992  99.0779978  97.4920014  83.9319992  97.4109978  97.8940014
  84.3549992  98.9149978  99.5680014  85.2019992  98.3869978 100.0550014
  84.5669992 100.0049978  99.5890014  83.1179992  98.5239978 100.3790014
  82.0329992  98.2419978  99.8960014  83.4269992  98.6419978 101.6860014
  82.4679992  98.3459978 102.6650014  82.4499992  99.0959978 103.4850014
  81.4249992  98.5499978 102.3420014  82.5699992  96.9589978 103.3590014
  81.8379992  97.0259978 104.1930014  83.9419992  96.6419978 104.0350014
  83.9689992  97.2949978 104.9330014  83.8909992  95.5959978 104.4070014
  85.0599992  97.0419978 103.3460014  86.3669992  96.0919978 103.3300014
  85.6899992  94.8709978 102.5540014  85.4259992  94.7949978 101.1800014
  84.3159992  94.7659978 101.1330014  85.6809992  95.7649978 100.7020014
  86.1159992  93.4889978 100.5290014  85.8809992  93.5269978  99.4760014
  87.1829992  93.6349978 100.6090014  85.7469992  92.1049978 101.0240014
  86.4809992  91.8169978 102.2750014  87.5189992  91.7009978 102.0010014
  86.4389992  92.6749978 102.9300014  86.0799992  90.9479978 102.7730014
  84.2359992  92.0769978 101.1160014  83.9369992  91.0629978 101.3380014
  83.8589992  92.7139978 101.9030014  83.6759992  92.2969978 100.2190014
  86.2079992  91.1519978  99.9320014  85.7929992  90.1889978 100.1880014
  87.2689992  91.1129978 100.1320014  86.0279992  91.5049978  98.9270014
  87.4429992  96.6349978 102.5030014  86.7419992  95.7029978 104.7170014
  82.2749992  95.9379978 102.4160014  81.6759992  94.8639978 102.9660014
  81.4529992  94.7269978 104.1470014  81.2309992  93.8889978 101.8390014
  80.3319992  93.3869978 102.2560014  82.0329992  93.1319978 101.7050014
  80.7919992  94.4009978 100.4370014  80.1999992  95.3179978 100.6470014
  80.1009992  93.6319978 100.0300014  81.8629992  94.6199978  99.4140014
  82.6529992  93.8409978  99.4730014  82.1939992  95.5539978  99.9150014
  81.3549992  94.8019978  97.9630014  80.5629992  95.5809978  97.9720014
  80.8749992  93.8279978  97.7250014  82.4589992  95.0959978  96.8700014
  83.4219992  94.7759978  97.3240014  82.5179992  96.1269978  96.4620014
  82.1929992  94.2299978  95.5830014  81.1639992  94.4889978  95.2540014
  82.1599992  93.2129978  96.0290014  83.1719992  94.4209978  94.4060014
  83.2149992  95.4769978  94.0640014  82.6209992  93.9829978  93.5460014
  84.5139992  93.7999978  94.6250014  85.0059992  94.1739978  95.5350014
  85.1189992  92.9519978  93.8710014  86.1479992  92.7469978  94.2030014
  84.7799992  92.3359978  92.5290014  84.1049992  93.0349978  91.9900014
  84.2119992  91.4119978  92.7680014  86.0659992  91.8149978  91.8170014
  86.6939992  91.2289978  92.5220014  86.6719992  92.6769978  91.4620014
  85.8529992  90.8149978  90.7380014  85.1159992  90.0629978  91.0920014
  86.8459992  90.3179978  90.6860014  85.2639992  91.2019978  89.3750014
  85.7989992  91.9949978  88.8110014  84.2189992  91.5699978  89.4610014
  85.0899992  89.9369978  88.4850014  84.8149992  89.0939978  89.1540014
  86.0919992  89.5699978  88.1730014  83.8829992  89.9729978  87.4920014
  82.9199992  89.8489978  88.0320014  83.9849992  89.0199978  86.9310014
  84.0559992  91.1299978  86.4730014  83.8929992  92.1659978  86.8410014
  83.0899992  91.0649978  85.9270014  85.1929992  91.0069978  85.5410014
  84.9549992  91.7049978  84.7100014  85.1809992  90.0359978  85.0020014
  86.0559992  91.2129978  86.2090014  51.2329992  71.2679978  80.4910014
  50.6889992  70.5079978  81.0920014  52.2989992  71.0619978  80.7240014
  51.0289992  71.2279978  79.4000014  50.8539992  72.7209978  80.9390014
  51.6939992  73.4289978  80.7720014  49.9179992  72.9949978  80.4080014
  50.5519992  72.7589978  82.4250014  49.6749992  72.0909978  82.5630014
  51.4139992  72.3359978  82.9820014  50.0799992  74.1279978  82.9150014
  50.8569992  74.8649978  82.6190014  49.1439992  74.3369978  82.3540014
  49.9589992  74.0969978  84.4390014  49.3199992  73.2559978  84.7830014
  50.9019992  73.9879978  85.0160014  49.1749992  75.3709978  84.9920014
  48.7679992  75.8899978  84.0990014  48.3019992  74.9889978  85.5640014
  49.9999992  76.1689978  86.0290014  50.8789992  76.5909978  85.4960014
  49.2409992  76.8889978  86.4020014  50.5539992  75.2859978  87.2410014
  49.8219992  74.6219978  87.7490014  51.4539992  74.7639978  86.8520014
  51.2559992  76.2739978  88.2800014  51.9429992  76.9619978  87.7440014
  50.4929992  76.8709978  88.8240014  51.9859992  75.6359978  89.3840014
  52.6069992  74.7729978  89.0620014  52.6029992  76.4799978  89.7610014
  51.1249992  75.1699978  90.5340014  50.2499992  75.8399978  90.6680014
  50.6029992  74.2219978  90.2790014  51.7249992  74.9869978  91.8900014
  52.6399992  74.3589978  91.8250014  51.9809992  76.0009978  92.2650014
  50.8579992  74.2829978  92.9460014  50.8339992  73.1969978  92.7120014
  51.4449992  74.5789978  93.8410014  49.4299992  74.7699978  93.0150014
  49.4459992  75.8629978  92.8200014  48.6889992  74.4559978  92.2490014
  48.8649992  74.3139978  94.4560014  47.7939992  74.6069978  94.4890014
  48.8879992  73.2059978  94.5400014  49.5939992  74.9959978  95.5950014
  49.8469992  76.1759978  95.6290014  49.7709992  74.0649978  96.5070014
  50.5439992  74.4679978  97.7060014  50.4739992  75.5549978  97.9230014
  50.0939992  73.9759978  98.5950014  52.0579992  74.0949978  97.6500014
  52.0959992  73.0479978  97.2820014  52.7509992  74.2219978  99.0340014
  52.0329992  73.9079978  99.8210014  53.5609992  73.4629978  99.0800014
  53.3249992  75.5119978  99.2900014  53.9449992  75.5349978 100.7980014
  52.5949992  75.2049978 101.6730014  51.5619992  76.1689978 101.8040014
  51.8349992  76.7829978 102.6890014  51.2849992  76.8349978 100.9600014
  50.2429992  75.5419978 102.1890014  49.6049992  76.3699978 102.4620014
  49.8109992  75.0359978 101.3380014  50.1909992  74.6149978 103.3390014
  51.0199992  75.0079978 104.5060014  50.9019992  76.0729978 104.6380014
  50.7149992  74.4739978 105.3930014  52.0819992  74.8309978 104.4250014
  48.7839992  74.6099978 103.8710014  48.1979992  74.1269978 103.1030014
  48.7949992  74.0609978 104.8010014  48.5409992  75.6459978 104.0530014
  50.6089992  73.2039978 102.9520014  49.9619992  72.7459978 102.2180014
  50.5719992  72.6329978 103.8680014  51.6169992  73.2609978 102.5670014
  54.8849992  74.4049978 100.9470014  54.4879992  76.9179978 101.1380014
  52.6369992  74.9779978  96.6360014  53.8319992  74.5229978  96.2140014
  54.2949992  73.3829978  96.3500014  54.6059992  75.6099978  95.4450014
  55.0079992  76.3869978  96.1290014  53.9119992  76.0959978  94.7260014
  55.6549992  75.0019978  94.4780014  56.3419992  74.5449978  95.2220014
  56.3519992  75.7549978  94.0530014  55.2159992  74.2709978  93.2350014
  54.5969992  74.9579978  92.6190014  54.5879992  73.4299978  93.5990014
  56.3489992  73.7319978  92.3700014  56.9589992  72.9569978  92.8820014
  57.1129992  74.5379978  92.3430014  55.9419992  73.3209978  90.9490014
  56.8289992  72.7759978  90.5620014  55.3859992  74.1019978  90.3870014
  54.8189992  72.2349978  90.8240014  53.9789992  72.7029978  91.3800014
  55.1469992  71.2469978  91.2120014  54.2769992  71.9209978  89.3610014
  53.6729992  72.8079978  89.0720014  53.5589992  71.0759978  89.4390014
  55.2609992  71.7269978  88.2790014  55.9179992  70.8609978  88.4510014
  55.5539992  72.4449978  87.0840014  56.5529992  72.1929978  86.6990014
  55.0009992  73.7009978  86.4110014  54.1169992  74.1369978  86.9220014
  54.6639992  73.4519978  85.3820014  56.0889992  74.8249978  86.3410014
  57.0499992  74.4559978  85.9230014  56.4159992  75.2459978  87.3160014
  55.6199992  75.9879978  85.4300014  56.4059992  76.7399978  85.6530014
  54.6629992  76.3329978  85.8780014  55.5739992  75.7429978  83.8280014
  54.6449992  75.3019978  83.4070014  56.4029992  75.0679978  83.5240014
  55.7249992  77.1169978  83.0880014  56.3959992  77.0149978  82.2090014
  56.3309992  77.7579978  83.7630014  54.3629992  77.8439978  83.0240014
  53.9939992  78.3209978  83.9570014  53.5499992  77.2159978  82.6010014
  54.3939992  79.0379978  82.0370014  53.3679992  79.4629978  82.0180014
  54.6949992  78.7199978  81.0160014  55.2559992  80.1739978  82.5100014
  56.3019992  79.8039978  82.4540014  55.0099992  80.5599978  83.5220014
  55.0319992  81.0329978  81.8410014  52.7719992  84.1899978  81.4420014
  52.2229992  84.8549978  80.7410014  52.6479992  83.1379978  81.1060014
  53.8489992  84.3989978  81.2680014  52.3259992  84.3389978  82.9070014
  51.2659992  84.0109978  82.8470014  52.8829992  83.5279978  83.4220014
  52.5009992  85.7059978  83.5680014  53.5849992  85.9379978  83.4980014
  51.9609992  86.4269978  82.9170014  52.0559992  85.7999978  85.0140014
  52.1209992  86.8439978  85.3890014  50.9889992  85.5219978  85.1470014
  52.8159992  84.7729978  85.9110014  52.4899992  83.7259978  85.7340014
  53.9139992  84.8899978  85.7880014  52.5659992  84.9559978  87.3920014
  53.3949992  85.6409978  87.6690014  51.6479992  85.5669978  87.5310014
  52.3719992  83.6889978  88.2350014  51.4269992  83.1879978  87.9340014
  53.1229992  82.9349978  87.9150014  52.6329992  83.8759978  89.7850014
  51.6449992  84.2169978  90.1630014  52.9259992  82.8819978  90.1870014
  53.6249992  84.9409978  90.1900014  54.3289992  85.0939978  89.3450014
  53.1149992  85.9229978  90.2860014  54.3869992  84.6249978  91.4200014
  55.0619992  83.7429978  91.4670014  55.0149992  85.4929978  91.7130014
  53.5099992  84.4489978  92.7200014  53.3639992  85.4239978  93.2330014
  52.4839992  84.1199978  92.4520014  54.1829992  83.4639978  93.6390014
  54.3269992  82.5339978  93.0480014  55.2209992  83.8259978  93.8010014
  53.5259992  83.4189978  95.0500014  52.7029992  84.1649978  95.0130014
  53.0379992  82.4229978  95.1130014  54.4919992  83.6959978  96.1600014
  53.8999992  83.6979978  97.1010014  55.2249992  82.8619978  96.1310014
  55.2389992  85.1339978  96.1680014  56.1899992  85.2329978  95.6010014
  54.5289992  85.9329978  95.8630014  55.5839992  85.5049978  97.7120014
  56.0099992  84.7549978  98.5570014  55.4539992  86.8659978  97.7490014
  56.1359992  87.5379978  98.8410014  56.8039992  86.8959978  99.4540014
  56.8139992  88.3369978  98.4730014  55.1209992  88.1849978  99.7950014
  55.6579992  88.7089978 100.6140014  54.2509992  87.1369978 100.5590014
  55.0149992  86.3579978 100.7720014  53.8259992  87.5549978 101.4960014
  53.1999992  86.6549978  99.7140014  52.1709992  85.5959978 100.2550014
  51.9609992  86.0779978 101.7660014  52.0399992  85.2489978 102.8730014
  52.9149992  84.5689978 102.7920014  52.3039992  85.9219978 103.7160014
  50.8589992  84.4749978 103.3120014  50.6559992  83.6979978 102.5910014
  51.2289992  83.9299978 104.1680014  49.6499992  85.1889978 103.5990014
  49.2389992  86.1419978 102.4620014  48.1739992  86.3179978 102.4210014
  49.9159992  86.9769978 102.3520014  49.3759992  85.5669978 101.5580014
  48.4829992  84.2249978 103.9520014  48.7529992  83.5359978 104.7390014
  47.7369992  84.9219978 104.3040014  48.1979992  83.6039978 103.1160014
  49.8889992  86.0299978 104.7940014  50.6489992  86.7679978 104.5840014
  50.2529992  85.4259978 105.6110014  48.9699992  86.5859978 104.9090014
  50.9319992  85.5249978  99.4790014  52.9049992  84.2809978 100.3010014
  54.3809992  89.2249978  99.0880014  53.4819992  89.8629978  99.8400014
  53.6539992  90.0409978 101.0720014  52.3869992  90.4279978  98.8440014
  52.2479992  89.6649978  98.0490014  52.9059992  91.3209978  98.4330014
  51.1149992  90.6849978  99.5830014  51.2719992  91.5289978 100.2880014
  50.6309992  89.8049978 100.0590014  49.9219992  91.2659978  98.6660014
  50.2719992  92.2669978  98.3370014  49.0399992  91.4369978  99.3190014
  49.6269992  90.4549978  97.3970014  50.4219992  90.4679978  96.6210014
  48.6969992  90.9549978  97.0490014  49.3169992  88.9799978  97.6050014
  48.4129992  88.7749978  98.2160014  50.1679992  88.5849978  98.1990014
  49.1849992  88.0969978  96.3080014  48.4129992  88.5659978  95.6610014
  48.9239992  87.0679978  96.6360014  50.5519992  87.8209978  95.5460014
  51.2389992  87.3239978  96.2650014  50.8779992  88.8379978  95.2400014
  50.3649992  86.8869978  94.3700014  49.8859992  85.9449978  94.6740014
  50.6849992  87.0499978  93.1080014  50.6189992  86.2359978  92.3700014
  51.4009992  88.3279978  92.5450014  52.2569992  87.9379978  91.9540014
  51.7609992  89.0179978  93.3380014  50.6009992  89.2329978  91.6470014
  51.1059992  90.1799978  91.3590014  49.7969992  89.5759978  92.3320014
  50.0319992  88.5909978  90.3190014  49.5659992  89.4549978  89.7990014
  49.2419992  87.9249978  90.7280014  50.9899992  87.9259978  89.3570014
  50.5009992  87.1899978  88.6830014  51.5049992  87.2939978  90.1120014
  51.8969992  88.8709978  88.6080014  52.5699992  88.2759978  87.9540014
  52.5379992  89.5479978  89.2130014  51.1889992  89.7429978  87.4980014
  50.4729992  90.4309978  87.9980014  50.6849992  89.0249978  86.8150014
  52.2189992  90.5979978  86.5960014  52.7389992  91.3709978  87.2010014
  51.5539992  91.1529978  85.9000014  53.1039992  89.6839978  85.6760014
  53.3579992  88.7169978  86.1610014  53.9789992  90.3119978  85.4040014
  52.5619992  89.4969978  84.7240014  77.6569992  53.3819978  85.5560014
  77.0939992  53.3669978  84.5980014  78.7269992  53.4279978  85.2610014
  77.3499992  54.2329978  86.2000014  77.4199992  52.0839978  86.3800014
  77.6299992  51.2399978  85.6890014  77.9669992  52.1579978  87.3440014
  76.0709992  51.7919978  86.9980014  75.9899992  52.3779978  87.9390014
  75.2699992  52.0279978  86.2650014  75.9659992  50.3839978  87.4860014
  75.6299992  49.7349978  86.6490014  76.9939992  50.0539978  87.7460014
  75.3399992  50.1489978  88.8900014  74.4479992  50.8079978  88.9570014
  74.8939992  49.1319978  88.8580014  76.2619992  50.3829978  90.0730014
  76.7179992  51.3809978  89.9010014  75.6619992  50.4289978  91.0070014
  77.3319992  49.2619978  90.2890014  76.8879992  48.2819978  90.0110014
  78.1809992  49.4379978  89.5940014  77.9969992  49.1439978  91.6960014
  78.8979992  48.5159978  91.5270014  78.3609992  50.1419978  92.0200014
  76.9769992  48.8319978  92.8330014  76.1839992  49.6099978  92.8270014
  76.3659992  47.9759978  92.4740014  77.5219992  48.7529978  94.2940014
  78.0439992  49.6409978  94.7100014  76.8119992  48.4419978  95.0900014
  78.5489992  47.5969978  94.2090014  78.1729992  46.6509978  93.7640014
  79.2839992  47.9399978  93.4500014  79.2239992  47.2199978  95.5610014
  78.4879992  46.8249978  96.2940014  79.9249992  46.4079978  95.2720014
  80.1029992  48.2839978  96.2250014  79.5719992  49.1339978  96.7040014
  80.7299992  47.8759978  97.0470014  81.0479992  48.9509978  95.2450014
  81.7479992  48.1719978  94.8740014  80.5239992  49.2559978  94.3150014
  81.8729992  50.0309978  95.9720014  81.9109992  49.6299978  97.0070014
  82.8899992  50.1299978  95.5360014  81.1169992  51.3379978  95.9360014
  80.8609992  51.9609978  94.9440014  80.8579992  51.8059978  97.1890014
  80.1389992  53.0139978  97.3580014  80.5979992  53.4299978  98.2810014
  80.3899992  53.6829978  96.5080014  78.6309992  52.9629978  97.6090014
  78.3129992  54.0239978  97.6870014  78.3919992  52.1629978  98.9700014
  79.2029992  52.5309978  99.6340014  77.3559992  52.4859978  99.2110014
  78.4579992  50.7549978  98.8780014  78.4139992  49.9319978 100.2560014
  78.5639992  51.0009978 101.3710014  78.7449992  50.6379978 102.7250014
  78.3799992  49.6019978 102.8890014  79.8289992  50.6669978 102.9680014
  77.9139992  51.4519978 103.6810014  76.9189992  51.4669978 103.2600014
  78.0249992  51.0029978 104.6570014  78.3149992  52.9799978 103.7560014
  78.1799992  53.6109978 102.3680014  77.1779992  53.4919978 101.9830014
  78.4479992  54.6489978 102.4970014  78.8659992  53.1129978 101.6980014
  77.3239992  53.6579978 104.6840014  77.4439992  53.1839978 105.6470014
  77.6529992  54.6829978 104.7740014  76.2919992  53.7329978 104.3750014
  79.7539992  53.1949978 104.2050014  80.4399992  52.4729978 103.7870014
  79.7219992  52.9859978 105.2640014  80.0759992  54.1549978 103.8290014
  77.1309992  49.2089978 100.3150014  79.6979992  49.2369978 100.2670014
  78.0349992  52.3099978  96.5010014  76.7509992  52.5359978  96.4100014
  76.0679992  53.3129978  97.0640014  76.1489992  51.7699978  95.2380014
  75.7849992  50.7929978  95.6210014  76.8509992  51.4729978  94.4300014
  74.9689992  52.4899978  94.6510014  74.2209992  52.6809978  95.4500014
  74.4379992  51.8679978  93.8990014  75.3269992  53.8359978  94.0100014
  75.4089992  54.5359978  94.8680014  74.3509992  54.1519978  93.5840014
  76.5659992  53.7329978  93.0940014  76.4229992  52.8259978  92.4700014
  77.5239992  53.6249978  93.6450014  76.5749992  54.7929978  91.9780014
  76.7339992  55.7409978  92.5370014  75.7039992  54.6959978  91.2950014
  77.7989992  54.8009978  91.0690014  77.8589992  55.8589978  90.7330014
  77.5889992  54.0669978  90.2630014  79.1199992  54.6289978  91.7960014
  79.1659992  53.5419978  92.0220014  79.2179992  55.1999978  92.7440014
  80.2479992  55.0719978  90.8680014  80.2399992  56.1359978  90.5870014
  81.2069992  54.2789978  90.3520014  81.9489992  54.7329978  89.6790014
  81.2949992  52.7379978  90.5760014  80.8289992  52.5579978  91.5680014
  82.3549992  52.4939978  90.8000014  80.7119992  51.7159978  89.6160014
  79.6469992  52.0309978  89.5780014  80.6319992  50.6599978  89.9510014
  81.4569992  51.7469978  88.2610014  82.5419992  51.9079978  88.4420014
  81.1439992  52.6079978  87.6320014  81.3009992  50.3639978  87.5220014
  80.1999992  50.2639978  87.4130014  81.7259992  49.5819978  88.1870014
  81.9879992  50.2419978  86.1420014  83.0859992  50.2459978  86.3120014
  81.5869992  51.0559978  85.5010014  81.6309992  48.8929978  85.4350014
  80.5489992  48.9509978  85.1930014  81.7149992  48.0009978  86.0930014
  82.4299992  48.6149978  84.1180014  83.4869992  48.3249978  84.2940014
  82.5449992  49.5379978  83.5090014  81.8149992  47.5779978  83.1400014
  81.6149992  46.6519978  83.7200014  82.4719992  47.1959978  82.3290014
  80.8459992  47.8769978  82.6870014  52.8609992  69.1069978  82.9370014
  52.4509992  70.1049978  82.6690014  52.0749992  68.4969978  83.4320014
  53.1069992  68.5469978  82.0090014  54.0519992  69.1759978  83.8380014
  54.2849992  68.2049978  84.3270014  54.8829992  69.6089978  83.2410014
  53.7539992  70.1669978  84.9460014  54.0149992  71.1769978  84.5630014
  52.6599992  70.1539978  85.1370014  54.5209992  69.7799978  86.2150014
  55.6169992  69.6819978  86.0590014  54.4169992  70.6029978  86.9540014
  54.1179992  68.4709978  86.8660014  54.4789992  67.6909978  86.1620014
  54.7499992  68.3959978  87.7770014  52.7139992  68.1559978  87.2840014
  52.2889992  69.0769978  87.7370014  51.9309992  67.8979978  86.5390014
  52.5669992  66.9939978  88.3480014  51.4969992  66.8529978  88.6150014
  52.9679992  66.1319978  87.7720014  53.3609992  67.1309978  89.6670014
  53.1709992  66.2229978  90.2790014  54.4419992  66.9969978  89.4500014
  53.0989992  68.4109978  90.4210014  53.6159992  69.2089978  89.8450014
  52.0009992  68.5329978  90.3100014  53.6629992  68.4349978  91.9300014
  54.6519992  67.9429978  91.8050014  53.6199992  69.5059978  92.2210014
  52.8829992  67.5429978  92.8540014  51.9509992  68.0909978  93.1120014
  52.6129992  66.5959978  92.3390014  53.6419992  67.3119978  94.1990014
  54.5719992  66.7259978  94.0360014  53.8969992  68.3059978  94.6240014
  52.8679992  66.6159978  95.3870014  52.4439992  65.6439978  95.0560014
  53.5329992  66.3919978  96.2480014  51.7619992  67.4569978  96.0650014
  50.8719992  67.6639978  95.4330014  51.4099992  66.7449978  96.8410014
  52.1839992  68.7639978  96.8000014  52.8439992  68.5069978  97.6560014
  52.7069992  69.4759978  96.1260014  51.0939992  69.5369978  97.4720014
  51.1109992  70.6579978  97.8710014  50.0889992  68.6459978  97.6880014
  49.0879992  69.1089978  98.5400014  49.0619992  70.2179978  98.6000014
  48.1339992  68.8399978  98.0370014  49.1839992  68.3829978  99.9870014
  48.1989992  68.6079978 100.4480014  50.3019992  68.9639978 100.8770014
  50.3639992  70.0729978 100.8870014  50.2629992  68.5369978 101.9020014
  51.5019992  68.6359978 100.2620014  52.7539992  67.9699978 101.0050014
  52.0629992  66.8459978 101.8660014  51.9899992  65.5099978 101.3810014
  51.1479992  65.0279978 101.9230014  51.6819992  65.5269978 100.3130014
  53.4229992  64.8049978 101.6890014  53.3129992  63.8689978 101.1610014
  54.1879992  65.4219978 101.2430014  53.7009992  64.5359978 103.1790014
  55.0519992  63.8529978 103.3660014  55.2329992  62.9589978 102.7870014
  55.7039992  64.6119978 102.9590014  55.3479992  63.7189978 104.3960014
  53.7759992  65.7749978 103.9520014  52.8539992  66.3169978 103.8050014
  53.8799992  65.5229978 104.9970014  54.5899992  66.3609978 103.5490014
  52.6349992  63.6369978 103.8390014  52.7159992  62.6409978 103.4300014
  51.6999992  64.1759978 103.7990014  52.9829992  63.4749978 104.8490014
  53.7559992  67.3709978 100.0890014  53.2279992  69.0809978 101.8790014
  49.4309992  66.9529978  99.8940014  48.4839992  66.2639978  99.1510014
  47.5009992  66.7619978  98.5880014  48.8859992  64.8039978  99.1370014
  48.0279992  64.2359978  99.5580014  49.7539992  64.7399978  99.8280014
  49.4779992  64.3279978  97.7960014  50.1219992  63.5089978  98.1820014
  50.1529992  65.0469978  97.2830014  48.3309992  63.9559978  96.9090014
  47.9059992  64.9409978  96.6180014  47.5679992  63.3929978  97.4880014
  48.6589992  63.1799978  95.6220014  47.7439992  63.0269978  95.0110014
  49.0799992  62.1779978  95.8510014  49.6519992  63.9869978  94.8110014
  50.6749992  64.0319978  95.2430014  49.2989992  65.0239978  94.6230014
  49.8669992  63.4649978  93.3160014  48.9159992  63.5679978  92.7510014
  50.1079992  62.3799978  93.3400014  50.8829992  64.3109978  92.5150014
  51.8829992  63.9759978  92.8660014  50.7749992  65.3809978  92.7930014
  50.7799992  64.0649978  91.0140014  51.3639992  63.1909978  90.6880014
  49.9919992  64.7179978  90.2050014  49.9799992  64.4869978  89.1300014
  49.0539992  65.8419978  90.5170014  49.6219992  66.6869978  90.0730014
  48.7389992  65.9679978  91.5750014  47.7559992  65.8519978  89.7560014
  47.1199992  66.7219978  90.0250014  47.0559992  65.0779978  90.1350014
  47.7519992  65.6959978  88.2110014  46.7079992  65.4869978  87.8930014
  48.2479992  64.7159978  88.0410014  48.2409992  66.8199978  87.4170014
  49.1919992  67.2379978  87.8110014  47.5479992  67.6839978  87.5060014
  48.4589992  66.4129978  85.9360014  48.8199992  67.2949978  85.3650014
  47.4649992  66.1479978  85.5150014  49.4709992  65.3249978  85.5650014
  49.3159992  64.3339978  86.0420014  50.4519992  65.6609978  85.9640014
  49.4029992  65.0319978  84.0530014  49.7839992  65.9169978  83.4980014
  48.3539992  65.0189978  83.6850014  49.9969992  63.7239978  83.5230014
  49.7719992  63.4019978  82.4840014  49.7659992  62.8799978  84.2070014
  51.1029992  63.7269978  83.6270014 103.6479992  90.7439978  85.6300014
 104.6849992  90.5309978  85.2940014 103.5849992  91.3839978  86.5360014
 103.1599992  91.4049978  84.8820014 102.7399992  89.5519978  85.9300014
 102.7219992  88.8879978  85.0390014 103.1409992  88.9179978  86.7500014
 101.2379992  89.8299978  86.3550014 100.8029992  90.5549978  85.6330014
 100.6379992  88.9009978  86.2510014 101.0799992  90.3059978  87.8240014
 102.0319992  90.1049978  88.3610014 100.9749992  91.4089978  87.7410014
  99.8299992  89.7669978  88.5870014  99.7769992  90.4449978  89.4650014
  98.8639992  90.1109978  88.1590014  99.8999992  88.3689978  89.0160014
  99.7389992  87.7429978  88.1130014 100.8679992  88.0779978  89.4760014
  98.9079992  88.0019978  90.0310014  98.5999992  88.8359978  90.6970014
  97.9859992  87.6819978  89.5020014  99.3329992  86.8369978  90.9570014
  98.3049992  86.5339978  91.2490014  99.8019992  86.0879978  90.2850014
 100.1989992  87.2999978  92.1790014 101.1509992  87.6679978  91.7400014
  99.6699992  88.1169978  92.7150014 100.5769992  86.1899978  93.1400014
  99.6279992  85.8809978  93.6280014 101.0749992  85.4009978  92.5380014
 101.7009992  86.5669978  94.0930014 101.7839992  85.7749978  94.8680014
 102.6569992  86.4309978  93.5430014 101.4199992  87.7849978  94.9330014
 101.4539992  88.5329978  94.1120014 100.3509992  87.7219978  95.2280014
 102.3129992  88.1749978  96.0590014 101.9369992  89.1179978  96.5090014
 102.3479992  87.4039978  96.8590014 103.7219992  88.4469978  95.5250014
 104.2129992  87.4569978  95.4130014 103.5419992  88.9769978  94.5650014
 104.5839992  89.3419978  96.4520014 105.4489992  89.8349978  95.9600014
 103.9269992  90.1719978  96.7900014 104.9949992  88.5699978  97.7090014
 104.8679992  87.3579978  97.8830014 105.3909992  89.4729978  98.5960014
 105.7339992  89.1129978  99.9170014 105.0909992  88.2959978 100.3100014
 106.7949992  88.7839978  99.9650014 105.4219992  90.4199978 100.7590014
 106.3649992  90.9939978 100.6280014 105.2029992  90.0699978 102.2120014
 106.0219992  89.3549978 102.4410014 105.3519992  90.9769978 102.8360014
 103.9219992  89.4579978 102.3150014 103.0999992  89.8139978 103.6370014
 101.6989992  89.1819978 103.1570014 101.5959992  87.7439978 103.0130014
 102.2419992  87.1809978 103.7200014 100.5659992  87.4829978 103.3370014
 101.6969992  87.2379978 101.5320014 102.7099992  87.2939978 101.1610014
 101.3479992  86.2179978 101.5950014 100.9009992  87.8599978 100.3570014
 101.4049992  89.2199978 100.0300014 102.4449992  89.1089978  99.7650014
 100.7589992  89.6999978  99.3100014 101.3959992  89.7589978 100.9660014
 101.0819992  87.0369978  99.1370014 100.6479992  87.6079978  98.3300014
 102.1499992  87.0039978  98.9820014 100.5699992  86.1139978  99.3650014
  99.4049992  87.8609978 100.6270014  99.0699992  86.8729978 100.9060014
  98.9389992  88.3459978  99.7820014  99.2259992  88.4539978 101.5120014
 103.6769992  89.1549978 104.8080014 102.8089992  91.2609978 103.8940014
 104.2979992  91.0659978 100.0640014 104.2749992  92.3929978 100.2570014
 104.9019992  92.9879978 101.1150014 103.3939992  93.0309978  99.1410014
 103.8809992  93.1389978  98.1480014 103.0219992  94.0399978  99.4190014
 102.1399992  92.1939978  98.8360014 101.5299992  92.2919978  99.7600014
 102.5029992  91.1509978  98.7120014 101.2799992  92.7129978  97.6570014
 101.6989992  93.7129978  97.4150014 100.2179992  92.9279978  97.9060014
 101.3429992  91.7949978  96.3000014 100.6439992  90.9439978  96.4430014
 102.3479992  91.3269978  96.2160014 101.0949992  92.6069978  95.0230014
 101.7369992  93.5099978  95.1010014 100.1199992  93.1389978  94.9840014
 101.3579992  91.6919978  93.8050014 100.3189992  91.4069978  93.5360014
 101.8929992  90.7559978  94.0740014 101.9779992  92.4399978  92.5620014
 101.4099992  93.3869978  92.4410014 101.7919992  91.7239978  91.7330014
 103.4709992  92.6689978  92.8000014 103.7809992  93.2419978  93.6870014
 104.4399992  92.4819978  91.9140014 105.4779992  92.7609978  92.1480014
 104.3629992  91.8929978  90.5380014 105.0729992  92.3769978  89.8340014
 103.3669992  92.0239978  90.0630014 104.8359992  90.4189978  90.3440014
 105.8549992  90.2949978  90.7690014 104.8559992  90.2159978  89.2520014
 103.8309992  89.3699978  90.9500014 102.8969992  89.4909978  90.3600014
 103.6729992  89.5339978  92.0380014 104.2829992  87.9149978  90.7780014
 103.4999992  87.3519978  91.3310014 105.0779992  87.7939978  91.5450014
 104.4229992  87.2289978  89.4010014 103.4859992  87.4019978  88.8310014
 104.3899992  86.1359978  89.5960014 105.6859992  87.5129978  88.6230014
 106.6209992  87.4949978  89.2220014 105.6399992  88.5029978  88.1220014
 105.9689992  86.4859978  87.4550014 105.8269992  85.4709978  87.8850014
 107.0509992  86.6659978  87.2830014 105.1269992  86.6609978  86.1230014
 105.3919992  87.6689978  85.7370014 104.0639992  86.6549978  86.4470014
 105.3339992  85.8719978  85.3680014  75.9859992  98.3779978  83.0890014
  75.5829992  99.3359978  83.4820014  75.7449992  98.3949978  82.0040014
  77.0849992  98.3709978  83.2500014  75.3589992  97.0779978  83.6380014
  74.2539992  97.1869978  83.6350014  75.6499992  96.2709978  82.9320014
  75.7069992  96.8199978  85.1610014  74.9749992  96.0149978  85.3880014
  76.6759992  96.3979978  85.5050014  75.4079992  98.0049978  86.0940014
  75.7779992  99.0089978  85.7930014  74.3109992  98.1779978  86.1220014
  75.7149992  97.8939978  87.5760014  76.8159992  98.0079978  87.6740014
  75.1839992  98.7819978  87.9810014  75.2619992  96.6269978  88.2410014
  74.1639992  96.5719978  88.0800014  75.7639992  95.7229978  87.8330014
  75.6379992  96.6309978  89.7540014  75.3969992  95.6349978  90.1820014
  76.6939992  96.8739978  89.9990014  74.7959992  97.6789978  90.4900014
  75.0979992  98.6769978  90.1080014  73.7599992  97.4999978  90.1330014
  74.8189992  97.7029978  92.0310014  75.8569992  98.0129978  92.2780014
  74.2049992  98.5379978  92.4320014  74.5069992  96.4009978  92.8380014
  73.4889992  95.9779978  92.7020014  75.1539992  95.5779978  92.4670014
  74.7839992  96.5949978  94.4160014  74.0529992  97.3559978  94.7640014
  74.5069992  95.6339978  94.8990014  76.1509992  96.9709978  94.7950014
  76.7069992  96.0459978  94.5340014  76.3999992  97.8489978  94.1620014
  76.3099992  97.1879978  96.3020014  75.9189992  96.2779978  96.8060014
  77.4009992  97.1959978  96.5120014  75.8239992  98.5529978  96.7450014
  74.7999992  98.6829978  96.3350014  75.7549992  98.5989978  97.8530014
  76.6769992  99.7619978  96.3510014  77.6409992  99.8389978  96.8990014
  76.9099992  99.7599978  95.2650014  75.8379992 101.0589978  96.5450014
  75.2749992 101.6559978  95.6120014  75.6959992 101.3079978  97.8300014
  74.6729992 102.2809978  98.1970014  74.9409992 102.7319978  99.1760014
  74.5789992 103.1009978  97.4540014  73.2839992 101.6049978  98.4260014
  72.5839992 102.4599978  98.5490014  73.3579992 100.7589978  99.7530014
  73.8619992 101.3349978 100.5580014  72.3879992 100.5029978 100.2320014
  74.1309992  99.6229978  99.3610014  73.6599992  98.2209978  99.8770014
  73.9399992  98.2409978 101.4170014  73.6109992  97.1119978 102.1930014
  72.7519992  97.4409978 102.8160014  73.3069992  96.2109978 101.6190014
  74.8939992  96.5919978 102.9920014  74.6439992  95.5789978 103.2720014
  75.7589992  96.4189978 102.3690014  75.3049992  97.3699978 104.1460014
  76.2609992  96.5519978 105.0380014  75.7599992  95.6869978 105.4460014
  77.0599992  96.2399978 104.3810014  76.6749992  97.1379978 105.8450014
  76.1959992  98.5259978 103.6050014  75.6719992  99.1039978 102.8580014
  76.5899992  99.0489978 104.4640014  77.0369992  98.1249978 103.0580014
  74.2209992  98.0179978 104.9900014  73.8199992  97.1749978 105.5330014
  73.5679992  98.5929978 104.3510014  74.4889992  98.7249978 105.7610014
  72.2329992  98.1519978  99.5090014  74.5159992  97.1099978  99.3780014
  72.9759992 100.8969978  97.2250014  71.7809992 100.2689978  97.2090014
  70.9119992 100.3619978  98.0430014  71.6829992  99.3269978  95.9540014
  70.6199992  99.2539978  95.6410014  72.0419992  98.2979978  96.1690014
  72.5159992  99.8459978  94.7680014  72.2819992  99.1439978  93.9390014
  73.5999992  99.7809978  95.0030014  72.0649992 101.2529978  94.4010014
  72.3939992 102.0039978  95.1510014  70.9539992 101.2549978  94.3770014
  72.7309992 101.6159978  93.0670014  72.0179992 101.2789978  92.2840014
  73.6729992 101.0309978  93.0000014  72.9819992 103.0759978  92.8450014
  73.4999992 103.5169978  93.7230014  71.9739992 103.5429978  92.8130014
  73.7149992 103.3909978  91.5590014  73.1249992 102.9089978  90.7500014
  74.7379992 103.0009978  91.7480014  73.8279992 104.8769978  91.0970014
  74.2229992 105.4939978  91.9320014  72.8489992 105.3969978  91.0320014
  74.8079992 105.2059978  89.9480014  75.8249992 105.5279978  90.2170014
  74.4269992 105.0959978  88.6760014  75.0449992 105.3479978  87.8020014
  73.1079992 104.6459978  88.1000014  72.6129992 105.4879978  87.5700014
  72.3449992 104.5439978  88.9010014  72.9659992 103.4169978  87.1730014
  71.8969992 103.1259978  87.0810014  73.5189992 102.6099978  87.7000014
  73.5819992 103.5509978  85.7550014  74.6909992 103.4779978  85.7660014
  73.3359992 104.5409978  85.3150014  73.0439992 102.5219978  84.8460014
  71.9379992 102.5889978  84.7690014  73.1729992 101.5029978  85.2710014
  73.5699992 102.5879978  83.3700014  73.8109992 101.5949978  82.9360014
  74.5379992 103.1289978  83.3120014  72.7199992 103.4559978  82.4280014
  72.5739992 104.4469978  82.9100014  71.6989992 103.0289978  82.3340014
  73.3309992 103.7789978  81.0230014  72.5669992 104.1769978  80.3220014
  73.5109992 102.7629978  80.6100014  74.5549992 104.7049978  80.9740014
  75.0259992 104.6659978  79.9690014  75.4199992 104.3819978  81.5920014
  74.1669992 105.7349978  81.1200014  60.3739992  89.8519978  85.2150014
  61.1909992  89.9859978  85.9560014  60.7739992  89.2819978  84.3500014
  59.7959992  89.0669978  85.7480014  59.3869992  90.9669978  84.9500014
  59.8839992  91.7449978  84.3320014  58.5599992  90.5239978  84.3550014
  58.7709992  91.5499978  86.2440014  57.9739992  92.2979978  86.0450014
  58.1879992  90.6909978  86.6410014  59.7089992  92.2669978  87.2100014
  60.4729992  91.5249978  87.5300014  60.1639992  93.0519978  86.5690014
  59.1399992  92.8389978  88.5100014  58.4479992  93.6579978  88.2200014
  58.5239992  92.1189978  89.0910014  60.3039992  93.2829978  89.4980014
  60.9849992  92.4159978  89.6310014  60.8949992  93.9909978  88.8790014
  59.7649992  93.9329978  90.7980014  59.4989992  94.9989978  90.6320014
  58.8579992  93.3239978  91.0000014  60.7629992  93.8449978  91.9720014
  61.1689992  92.8149978  92.0620014  61.5849992  94.4359978  91.5160014
  60.1539992  94.3559978  93.3100014  59.9789992  95.4419978  93.1520014
  59.1589992  93.8859978  93.4630014  61.0619992  94.1839978  94.4860014
  61.4279992  93.1359978  94.5110014  61.9269992  94.8809978  94.5320014
  60.3049992  94.3709978  95.8430014  59.5549992  93.5529978  95.8030014
  61.0019992  94.0289978  96.6390014  59.8079992  95.7479978  96.1480014
  60.6749992  96.4429978  96.1660014  59.1039992  95.9889978  95.3240014
  58.9979992  95.9979978  97.5180014  59.7129992  96.1319978  98.3580014
  58.3999992  96.9079978  97.2980014  57.9949992  94.8989978  97.7870014
  58.6669992  94.0269978  97.9390014  57.4459992  95.0089978  98.7470014
  57.0159992  94.7209978  96.5760014  56.3119992  95.5799978  96.5660014
  57.4879992  94.7159978  95.5700014  56.2069992  93.4029978  96.6580014
  55.1059992  93.1829978  96.2020014  56.8849992  92.4559978  97.3370014
  56.1759992  91.2099978  97.6530014  55.2929992  91.4379978  98.2870014
  55.8589992  90.6809978  96.7290014  57.1229992  90.1469978  98.3680014
  56.6059992  89.1659978  98.4220014  57.5809992  90.7299978  99.7790014
  56.6899992  91.1809978 100.2650014  57.9389992  89.9059978 100.4320014
  58.5269992  91.7609978  99.5780014  59.7539992  92.0079978 100.4950014
  59.3509992  92.6319978 101.9330014  58.2879992  93.5879978 101.8680014
  58.5419992  94.3589978 102.6260014  58.3069992  94.1999978 100.9410014
  56.8929992  93.0249978 102.2780014  56.2359992  93.8689978 102.4250014
  56.5819992  92.3899978 101.4620014  56.8209992  92.2359978 103.6070014
  57.4589992  93.0709978 104.6140014  57.3439992  92.5939978 105.5770014
  58.4869992  93.2739978 104.3500014  56.9659992  94.0319978 104.5870014
  55.3889992  91.9709978 103.9620014  55.2809992  91.4289978 104.8890014
  54.8549992  92.9059978 104.0400014  54.8989992  91.4319978 103.1640014
  57.5179992  90.9239978 103.5860014  57.4749992  90.5609978 104.6030014
  58.5199992  91.1909978 103.2840014  57.0179992  90.2089978 102.9490014
  60.3269992  90.6819978 100.7520014  60.6569992  92.9719978  99.8320014
  58.2139992  89.8489978  97.4090014  59.1849992  89.1139978  97.8720014
  59.0659992  88.4149978  98.8540014  60.5039992  89.4689978  97.1750014
  61.0839992  88.5479978  96.9530014  61.1479992  89.9909978  97.9150014
  60.3529992  90.3959978  95.9860014  61.3819992  90.7089978  95.7070014
  59.8569992  91.3729978  96.1680014  59.6119992  89.7959978  94.6810014
  58.7279992  89.1659978  94.9170014  60.4129992  89.1139978  94.3220014
  59.2259992  90.8659978  93.6430014  60.0959992  91.5169978  93.4110014
  58.4929992  91.5019978  94.1850014  58.6499992  90.3959978  92.2410014
  59.2529992  89.5659978  91.8150014  58.7599992  91.2599978  91.5510014
  57.1239992  90.1189978  92.3110014  57.0039992  89.1749978  92.8840014
  56.8159992  90.0639978  91.2450014  56.3129992  91.2609978  92.9470014
  56.4019992  92.2159978  92.3870014  56.6019992  91.2489978  94.0190014
  54.8759992  90.8169978  92.9250014  54.6799992  90.0689978  93.7070014
  53.9749992  91.2099978  91.9650014  52.9299992  91.1399978  92.3030014
  54.1889992  92.1679978  90.7640014  54.6459992  91.5039978  89.9990014
  54.9839992  92.8929978  91.0360014  52.8509992  92.8119978  90.2390014
  52.2439992  93.2369978  91.0680014  52.1539992  92.1059978  89.7380014
  53.1879992  93.9059978  89.1610014  53.9679992  94.5489978  89.6210014
  52.4039992  94.6879978  89.0670014  53.5639992  93.2639978  87.8960014
  52.6359992  92.9369978  87.3790014  54.3559992  92.4919978  88.0020014
  54.2219992  94.2709978  86.9230014  53.8219992  95.2899978  87.1130014
  53.8829992  93.8929978  85.9350014  55.7519992  94.1899978  87.0070014
  56.2099992  93.1779978  87.0210014  56.1109992  94.6169978  87.9680014
  56.4949992  95.0029978  85.9390014  57.5459992  94.7099978  86.1500014
  56.3409992  96.0959978  86.0650014  56.3769992  94.5779978  84.5490014
  55.3129992  94.4819978  84.2470014  56.9689992  93.6549978  84.3670014
  56.7459992  95.4249978  83.9330014  93.7309992  43.7449978  81.8800014
  94.5039992  43.3359978  82.5650014  93.5219992  44.8189978  82.0720014
  94.2819992  43.6059978  80.9250014  92.5069992  42.8269978  82.0090014
  91.8029992  43.1619978  81.2170014  92.7109992  41.7489978  81.8350014
  91.6629992  42.9209978  83.3340014  91.3629992  43.9739978  83.5210014
  90.6969992  42.4229978  83.1010014  92.2759992  42.3219978  84.6310014
  92.5749992  41.2849978  84.3690014  93.2549992  42.8029978  84.8420014
  91.4399992  42.3079978  85.9200014  91.4389992  43.3269978  86.3620014
  90.3859992  42.0079978  85.7420014  91.9799992  41.4089978  86.9880014
  91.7839992  40.3519978  86.7100014  93.0739992  41.5689978  86.8810014
  91.4039992  41.6059978  88.4090014  91.4979992  42.6489978  88.7790014
  90.3159992  41.3999978  88.3140014  92.0409992  40.6709978  89.5230014
  91.1389992  40.5629978  90.1620014  92.2109992  39.6649978  89.0850014
  93.3739992  41.1669978  90.0490014  93.7949992  40.4269978  90.7620014
  94.0529992  41.2699978  89.1760014  93.2519992  42.4409978  90.9030014
  92.4569992  43.1159978  90.5230014  92.9509992  42.3129978  91.9650014
  94.4709992  43.2649978  91.0010014  94.8179992  43.4909978  89.9700014
  94.1619992  44.2299978  91.4580014  95.5809992  42.4989978  91.6970014
  95.6699992  41.4629978  91.3050014  96.5249992  43.0329978  91.4520014
  95.4509992  42.3249978  93.1990014  94.5499992  41.6789978  93.2690014
  96.3529992  41.7889978  93.5650014  95.3689992  43.6409978  93.9660014
  96.3179992  44.1609978  93.7140014  94.5929992  44.3349978  93.5760014
  95.1569992  43.3859978  95.4800014  94.2459992  42.8069978  95.7420014
  96.0889992  42.8629978  95.7830014  95.1369992  44.7669978  96.2510014
  95.4849992  45.8079978  95.7510014  94.5059992  44.5409978  97.3960014
  93.9209992  45.7749978  97.8770014  94.6959992  46.4769978  98.2500014
  93.5879992  46.4079978  97.0270014  92.7049992  45.4709978  98.7440014
  92.2219992  46.4689978  98.8130014  93.0499992  44.8389978 100.0800014
  93.3879992  43.7939978  99.9120014  93.6949992  45.5749978 100.6050014
  91.7569992  44.8289978 100.7150014  91.7249992  44.3889978 102.2720014
  91.3359992  42.8979978 102.0850014  90.5819992  42.2889978 103.0420014
  90.5419992  41.1839978 102.9270014  90.9789992  42.3829978 104.0760014
  89.0549992  42.6449978 102.9510014  88.5239992  42.1909978 103.7740014
  88.9599992  43.7159978 103.0530014  88.2569992  42.3929978 101.6480014
  86.9639992  42.8819978 102.0930014  86.7429992  42.5219978 103.0870014
  86.8729992  43.9579978 102.0870014  86.3119992  42.5449978 101.3010014
  88.8159992  43.1419978 100.4400014  88.2659992  42.9819978  99.5240014
  88.8159992  44.1849978 100.7210014  89.8529992  42.8689978 100.3120014
  88.1219992  40.8879978 101.4190014  87.5809992  40.6899978 100.5050014
  87.7909992  40.3389978 102.2880014  89.1179992  40.5139978 101.2330014
  93.0609992  44.4609978 102.8740014  90.6159992  45.0619978 102.9680014
  91.8489992  44.5329978  98.0220014  91.1979992  45.0629978  96.9630014
  91.1839992  46.2119978  96.6430014  90.6019992  43.9379978  96.2540014
  89.6469992  43.7279978  96.7820014  91.2759992  43.0559978  96.2980014
  90.4019992  44.4269978  94.7800014  91.2619992  44.7519978  94.1550014
  89.6949992  45.2839978  94.8000014  89.7889992  43.2709978  93.8920014
  88.7889992  43.1049978  94.3470014  90.3979992  42.3419978  93.8910014
  89.5329992  43.5809978  92.4180014  89.1549992  42.6529978  91.9360014
  90.5279992  43.6609978  91.9310014  88.5289992  44.6969978  92.1150014
  88.7609992  45.7239978  92.4700014  87.6189992  44.5659978  92.7380014
  88.0509992  44.9379978  90.6990014  87.4429992  45.8679978  90.6700014
  87.4559992  44.0619978  90.3630014  89.2959992  45.0859978  89.7350014
  88.9589992  45.0939978  88.6760014  89.9699992  44.2089978  89.8360014
  90.0929992  46.2959978  90.0610014  90.8749992  46.0769978  90.8030014
  90.1529992  47.5249978  89.5140014  90.8109992  48.3569978  89.8050014
  89.3899992  47.9829978  88.3340014  88.4999992  48.5479978  88.6830014
  88.9929992  47.0959978  87.7960014  90.0759992  48.7349978  87.2060014
  90.4729992  49.7139978  87.5500014  89.3729992  49.1249978  86.4390014
  91.1729992  48.0589978  86.4660014  91.9509992  47.6569978  87.1500014
  91.5659992  48.8879978  85.8390014  90.7059992  46.9539978  85.5100014
  90.1019992  46.1739978  86.0200014  91.6249992  46.4939978  85.0870014
  89.8949992  47.3459978  84.3090014  90.3149992  48.1359978  83.6490014
  88.9949992  47.8749978  84.6880014  89.4559992  46.2359978  83.4340014
  90.3189992  45.7809978  82.9020014  88.7769992  46.5799978  82.6250014
  88.6669992  45.1009978  84.1130014  89.2199992  44.7989978  85.0280014
  88.6679992  44.2839978  83.3600014  87.1829992  45.3709978  84.5090014
  86.6539992  44.4009978  84.3870014  86.6499992  46.1789978  83.9640014
  87.1449992  45.6169978  85.5920014 105.7699992  77.5409978  83.3180014
 104.7519992  77.8339978  83.6520014 106.0659992  76.6239978  83.8710014
 105.8389992  77.4829978  82.2110014 106.7889992  78.5689978  83.6430014
 106.7959992  78.7989978  84.7300014 107.7509992  78.1039978  83.3370014
 106.4079992  79.8019978  82.7830014 106.4079992  79.3789978  81.7560014
 105.3999992  79.9999978  83.2060014 107.3299992  80.9769978  82.8250014
 108.2609992  80.6139978  82.3390014 107.0079992  81.8059978  82.1600014
 107.7459992  81.4059978  84.2820014 108.2659992  80.5759978  84.8060014
 108.4569992  82.2509978  84.1650014 106.6409992  81.7849978  85.2650014
 105.8239992  82.2249978  84.6550014 106.2929992  80.8209978  85.6930014
 106.9649992  82.6739978  86.4970014 107.4789992  82.0289978  87.2410014
 107.6389992  83.4989978  86.1800014 105.6499992  83.1709978  87.1330014
 105.3879992  83.9549978  86.3910014 104.8199992  82.4339978  87.0790014
 105.6939992  83.6879978  88.5970014 105.7039992  82.8079978  89.2750014
 106.5369992  84.4089978  88.6640014 104.4039992  84.4999978  88.8390014
 104.1329992  85.2719978  88.0880014 103.5929992  83.7549978  88.6900014
 104.3729992  85.1749978  90.2610014 105.0979992  86.0129978  90.1750014
 103.4799992  85.8259978  90.3760014 104.5029992  84.2349978  91.5080014
 103.5609992  83.6519978  91.5880014 105.3569992  83.5329978  91.3990014
 104.6129992  85.0589978  92.7380014 105.5319992  85.6169978  92.4580014
 103.7859992  85.8009978  92.7380014 104.7689992  84.2719978  93.9990014
 104.7909992  85.0179978  94.8220014 103.8939992  83.6079978  94.1660014
 106.0719992  83.4299978  94.2000014 106.1909992  82.6809978  93.3880014
 106.9319992  84.1259978  94.1040014 106.1519992  82.6989978  95.5640014
 106.5459992  81.5369978  95.7380014 105.7519992  83.5509978  96.4850014
 105.8799992  83.3109978  97.8660014 106.6519992  82.5399978  98.0770014
 106.1619992  84.2389978  98.4080014 104.4759992  82.8089978  98.4230014
 103.8069992  83.6849978  98.2840014 104.6139992  82.5539978 100.0100014
 105.2169992  81.6209978 100.0260014 105.0639992  83.4239978 100.5340014
 103.2899992  82.2699978 100.3890014 102.7009992  80.9189978 100.9790014
 103.7689992  80.5729978 102.1420014 104.8719992  79.6549978 101.9060014
 104.3689992  78.6649978 101.9030014 105.4609992  79.8809978 100.9920014
 105.8529992  79.8179978 103.0200014 105.3889992  79.5909978 103.9680014
 106.5119992  78.9619978 103.0080014 106.6899992  81.0619978 103.1420014
 105.8739992  82.3139978 103.3790014 106.5029992  83.1809978 103.5190014
 105.4009992  82.5229978 102.4310014 105.0659992  82.1099978 104.0660014
 107.6789992  80.7229978 104.2780014 107.2129992  80.2889978 105.1500014
 108.2759992  79.9289978 103.8530014 108.3249992  81.5779978 104.4110014
 107.4299992  81.2199978 101.8490014 107.8799992  80.2759978 101.5780014
 108.2409992  81.9059978 102.0440014 106.6339992  81.5179978 101.1810014
 101.3709992  81.2309978 101.4790014 102.8789992  79.8819978  99.9440014
 104.0799992  81.6009978  97.7980014 103.0449992  81.8119978  96.9760014
 102.5099992  82.8739978  96.7230014 102.7239992  80.4109978  96.4770014
 102.1699992  79.8929978  97.2880014 103.5629992  79.7409978  96.1920014
 101.7239992  80.4759978  95.3220014 100.8319992  81.0819978  95.5890014
 101.3809992  79.4229978  95.2330014 102.2549992  80.8929978  93.9850014
 102.1809992  82.0009978  93.9690014 101.5929992  80.4369978  93.2190014
 103.7449992  80.5619978  93.6000014 103.9309992  79.4939978  93.8440014
 104.4689992  81.0479978  94.2890014 104.0789992  80.7329978  92.0660014
 105.1839992  80.7159978  91.9460014 103.6199992  81.6689978  91.6810014
 103.6969992  79.4419978  91.2240014 102.6039992  79.4049978  91.0300014
 103.9999992  78.5249978  91.7740014 104.5219992  79.3189978  89.9590014
 105.6089992  79.5119978  90.0850014 104.1509992  80.1979978  89.3900014
 104.1549992  78.0059978  89.1120014 104.7989992  77.1379978  89.3160014
 103.2709992  77.7039978  88.1940014 103.1799992  76.6929978  87.7720014
 102.2249992  78.5949978  87.5740014 101.5749992  78.9019978  88.4210014
 101.6619992  77.9869978  86.8340014 102.9379992  79.8519978  86.9520014
 103.8149992  79.4849978  86.3770014 103.1899992  80.5549978  87.7750014
 101.9059992  80.6279978  86.0960014 100.9939992  80.7609978  86.7170014
 101.6589992  80.0369978  85.1880014 102.4029992  82.0509978  85.6580014
 103.2539992  81.9919978  84.9460014 102.7199992  82.6339978  86.5480014
 101.3609992  82.9109978  85.0000014 101.7929992  83.9339978  85.0310014
 100.4469992  82.8699978  85.6310014 101.0949992  82.5529978  83.5310014
 100.8549992  81.4749978  83.4060014 101.9899992  82.8099978  82.9260014
  99.7759992  83.1439978  82.8630014  99.6469992  84.1909978  83.2140014
  98.9239992  82.6569978  83.3830014  99.5489992  83.1069978  81.3760014
  99.5549992  82.0849978  80.9420014 100.0839992  83.8069978  80.7000014
  98.4929992  83.3429978  81.1240014  99.1939992  62.3509978  82.2890014
 100.1619992  61.8089978  82.2280014  98.4589992  61.7899978  81.6720014
  98.7939992  62.4219978  83.3230014  99.3949992  63.7559978  81.7640014
  99.7319992  63.7549978  80.7060014  98.4169992  64.2819978  81.8140014
 100.4869992  64.5439978  82.4640014 100.4859992  64.1969978  83.5190014
 101.5059992  64.2709978  82.1170014 100.3959992  66.0099978  82.2840014
 100.2419992  66.2709978  81.2150014  99.5029992  66.3559978  82.8480014
 101.6259992  66.8999978  82.6770014 102.2329992  66.7309978  81.7620014
 101.2979992  67.9609978  82.6450014 102.1269992  66.7219978  84.0920014
 101.3299992  67.0679978  84.7850014 102.2769992  65.6359978  84.2730014
 103.4709992  67.4569978  84.2880014 104.3119992  66.7929978  83.9950014
 103.5179992  68.3509978  83.6300014 103.8089992  67.9059978  85.7550014
 104.7709992  68.4329978  85.5820014 103.0299992  68.6389978  86.0530014
 103.7939992  66.7069978  86.8370014 102.8499992  66.1289978  86.7440014
 104.6429992  66.0029978  86.6990014 103.7999992  67.2099978  88.2550014
 103.7699992  66.2989978  88.8900014 104.7259992  67.7179978  88.5990014
 102.5259992  67.9829978  88.7190014 102.3669992  68.9089978  88.1260014
 101.6219992  67.3519978  88.5810014 102.5009992  68.4979978  90.1650014
 103.3499992  69.1409978  90.4800014 101.5039992  68.9269978  90.4020014
 102.6339992  67.2869978  91.1020014 101.9219992  66.5149978  90.7400014
 103.6589992  66.8759978  90.9740014 102.5469992  67.6639978  92.5830014
 103.4979992  68.1519978  92.8860014 101.7389992  68.4099978  92.7370014
 102.5659992  66.3929978  93.4500014 101.7849992  65.7789978  92.9530014
 103.5759992  65.9399978  93.3540014 102.1719992  66.8799978  94.8830014
 102.4699992  67.9539978  95.2920014 101.3499992  65.9949978  95.4040014
 101.1949992  66.2519978  96.7950014 102.1339992  65.9519978  97.3070014
 100.8399992  67.2649978  97.0800014 100.1029992  65.2569978  97.3650014
  99.1569992  65.4069978  96.8020014  99.7699992  65.6309978  98.8010014
  99.6469992  66.7339978  98.8410014  98.8079992  65.1719978  99.1130014
 100.8849992  65.1539978  99.6110014 101.4589992  65.8729978 100.8900014
 100.2049992  66.0359978 101.8250014 100.2229992  65.6309978 103.1740014
 101.0969992  65.0209978 103.4870014 100.2179992  66.5499978 103.7980014
  99.0609992  64.6809978 103.4200014  99.3449992  63.7239978 103.0090014
  98.8979992  64.5859978 104.4830014  97.6489992  65.1089978 102.9530014
  96.6649992  64.8089978 103.9720014  96.7209992  65.6069978 104.6980014
  95.7029992  64.8469978 103.4820014  96.7969992  63.8389978 104.4280014
  97.6279992  66.5919978 102.8430014  98.0209992  66.9769978 103.7730014
  98.2469992  66.9589978 102.0370014  96.6249992  66.9799978 102.7430014
  97.3509992  64.4909978 101.6000014  97.2589992  63.4179978 101.6790014
  98.0619992  64.7729978 100.8370014  96.4189992  64.9179978 101.2590014
 102.3529992  64.9209978 101.5000014 102.0419992  67.2249978 100.7190014
 100.5559992  63.9109978  97.2490014 100.3989992  63.3499978  96.0040014
  99.7629992  63.8439978  95.1070014 100.9489992  62.0339978  95.9690014
 100.1409992  61.3269978  96.2550014 101.7599992  61.7779978  96.6850014
 101.1629992  61.5029978  94.5300014 100.1869992  61.5629978  94.0020014
 101.4179992  60.4319978  94.3800014 102.2369992  62.3079978  93.7190014
 103.2139992  62.4059978  94.2400014 101.7049992  63.2679978  93.5500014
 102.4299992  61.7979978  92.3370014 101.4839992  61.6579978  91.7710014
 102.8619992  60.7809978  92.4560014 103.4239992  62.6729978  91.4610014
 104.4189992  62.5129978  91.9280014 102.9769992  63.6669978  91.6760014
 103.4879992  62.2549978  89.9960014 103.6719992  61.1599978  89.9970014
 104.2879992  62.9009978  89.5740014 102.2069992  62.3729978  89.1780014
 101.4569992  61.6239978  89.5110014 102.5349992  62.1839978  88.1330014
 101.7029992  63.7699978  88.9870014 102.4649992  64.4419978  88.5660014
 100.4459992  64.1789978  89.3060014 100.1689992  65.2369978  89.1890014
  99.3009992  63.3749978  89.9120014  99.6129992  63.1429978  90.9530014
  98.9669992  62.5289978  89.2740014  97.9929992  64.1829978  89.9250014
  98.0629992  65.2449978  90.2450014  97.3229992  63.6969978  90.6660014
  97.0599992  64.1059978  88.6640014  96.0229992  64.3089978  89.0070014
  97.0139992  63.0519978  88.3160014  97.4989992  65.0229978  87.4430014
  96.7509992  64.8419978  86.6420014  98.5069992  64.9499978  86.9810014
  97.5629992  66.5069978  87.7940014  98.4999992  66.6689978  88.3700014
  96.6319992  66.8429978  88.2990014  97.5339992  67.3479978  86.5330014
  98.4829992  67.2289978  85.9680014  97.5209992  68.3739978  86.9590014
  96.2659992  67.2259978  85.7530014  95.8669992  68.2559978  85.6320014
  95.5249992  66.6729978  86.3700014  96.5249992  66.5109978  84.4040014
  97.4609992  65.9199978  84.4910014  96.7289992  67.2369978  83.5880014
  95.7009992  65.8579978  84.0460014  83.1479992  34.3429978  83.0880014
  82.4759992  34.6769978  82.2690014  83.9479992  33.6969978  82.6660014
  83.7339992  35.1559978  83.5670014  82.4629992  33.6029978  84.2520014
  81.7209992  34.3039978  84.6910014  81.9349992  32.7779978  83.7270014
  83.5039992  33.1809978  85.3300014  84.0889992  32.4559978  84.7240014
  84.1179992  34.0819978  85.5440014  82.7789992  32.6789978  86.6010014
  82.2089992  33.5319978  87.0270014  82.0929992  31.8929978  86.2190014
  83.6609992  31.9119978  87.5970014  84.2339992  31.2439978  86.9180014
  84.2019992  32.7919978  88.0080014  82.8519992  31.1369978  88.5940014
  82.5289992  30.1389978  88.2260014  83.5199992  30.9209978  89.4540014
  81.5749992  31.9589978  89.0260014  81.8459992  33.0079978  89.2730014
  80.8189992  31.9889978  88.2120014  80.7049992  31.3249978  90.2230014
  80.3469992  30.3329978  89.8760014  81.3409992  31.2349978  91.1300014
  79.4329992  31.9929978  90.7410014  78.8109992  32.0499978  89.8220014
  78.8599992  31.3659978  91.4570014  79.6079992  33.3789978  91.3720014
  80.4799992  33.8519978  90.8710014  78.6299992  33.8219978  91.0840014
  79.8569992  33.5759978  92.8370014  78.9769992  33.2519978  93.4330014
  80.7739992  33.0749978  93.2140014  80.0319992  35.0239978  93.4040014
  80.8169992  35.5959978  92.8650014  79.0549992  35.5529978  93.3820014
  80.5999992  35.0939978  94.7940014  80.1899992  34.1959978  95.3030014
  81.7079992  35.0509978  94.8600014  80.1569992  36.3629978  95.6050014
  80.6139992  37.2009978  95.0370014  79.0499992  36.4379978  95.6530014
  80.6589992  36.4409978  97.0940014  81.7159992  36.1159978  97.2000014
  80.5699992  37.4909978  97.4450014  79.7889992  35.6839978  98.0700014
  79.0779992  36.2149978  98.9110014  79.9379992  34.3819978  97.7950014
  79.0939992  33.4769978  98.4970014  78.2429992  33.9439978  99.0370014
  78.7209992  32.7299978  97.7640014  79.8859992  32.7459978  99.5760014
  79.2579992  32.0229978 100.1410014  80.3499992  33.7949978 100.7360014
  81.1819992  34.3939978 100.3090014  79.4399992  34.3239978 101.0920014
  80.7159992  33.0829978 101.9730014  81.0979992  34.1239978 103.1280014
  82.6589992  34.3759978 102.9360014  83.4359992  33.8019978 101.9020014
  84.4099992  33.5479978 102.3730014  82.9539992  32.9699978 101.3460014
  83.8329992  34.8119978 100.8290014  84.8319992  34.5299978 100.5330014
  83.2539992  34.6569978  99.9310014  83.8699992  36.3149978 101.0290014
  84.4569992  36.6729978 102.3970014  84.7599992  37.7049978 102.4910014
  83.7329992  36.5709978 103.1920014  85.2719992  35.9979978 102.6140014
  84.5629992  37.0169978  99.8650014  84.2329992  38.0449978  99.8210014
  85.6069992  37.0509978 100.1400014  84.4789992  36.4849978  98.9290014
  82.4729992  36.8119978 101.0700014  82.5349992  37.8419978 101.3900014
  81.9319992  36.3079978 101.8560014  82.0239992  36.7289978 100.0910014
  80.4059992  35.4159978 103.0380014  80.9479992  33.3259978 104.3370014
  81.0569992  32.1519978  98.9260014  80.8979992  30.8689978  98.5150014
  79.9999992  30.1729978  98.9680014  82.0459992  30.4349978  97.5790014
  81.7689992  30.6269978  96.5200014  82.2919992  29.3779978  97.8180014
  83.3659992  31.2249978  97.7070014  84.1709992  30.4719978  97.8400014
  83.3949992  31.7119978  98.7060014  83.7669992  32.0269978  96.4760014
  84.6659992  32.5489978  96.8670014  82.8799992  32.6729978  96.3070014
  84.1599992  31.2709978  95.2540014  83.3429992  30.5739978  94.9690014
  85.0829992  30.7149978  95.5230014  84.5139992  32.2019978  94.0460014
  85.0429992  31.4839978  93.3830014  85.1409992  33.0359978  94.4270014
  83.3819992  32.7259978  93.1950014  82.8679992  33.5969978  93.6560014
  82.6209992  31.9369978  93.0140014  83.8699992  33.0509978  91.7300014
  82.9309992  33.3369978  91.2090014  84.1819992  32.1369978  91.1800014
  85.1289992  33.8729978  91.6070014  86.0389992  33.2919978  91.8180014
  85.3379992  35.1729978  91.4440014  86.3519992  35.5509978  91.6420014
  84.1859992  36.1069978  91.3520014  84.6869992  37.0839978  91.1810014
  83.6689992  36.1689978  92.3340014  83.2569992  36.1929978  90.1500014
  82.7919992  37.2009978  90.1970014  82.4259992  35.4599978  90.2250014
  84.0519992  36.0939978  88.7980014  84.1989992  35.0219978  88.5440014
  84.9809992  36.7019978  88.8320014  83.1069992  36.6419978  87.7170014
  82.2699992  35.9179978  87.6180014  83.7219992  36.5509978  86.7960014
  82.6979992  38.1199978  87.8220014  83.3489992  38.8769978  88.3090014
  81.8389992  38.2039978  88.5210014  82.1879992  38.7139978  86.4100014
  83.0629992  38.9379978  85.7630014  81.5289992  39.6079978  86.4250014
  81.4789992  37.7249978  85.4020014  82.0719992  36.7999978  85.2350014
  81.3259992  38.0929978  84.3650014  80.0639992  37.4199978  85.8780014
  80.0629992  36.9429978  86.8820014  79.5689992  36.7199978  85.1720014
  79.4419992  38.3399978  85.9010014  86.1739992 102.3129978  83.7400014
  86.5089992 103.1269978  83.0630014  86.3109992 101.3189978  83.2630014
  86.9499992 102.4349978  84.5250014  84.7109992 102.5069978  84.1320014
  84.0659992 102.7649978  83.2660014  84.3289992 101.5599978  84.5690014
  84.6069992 103.6119978  85.2310014  84.8229992 104.6309978  84.8450014
  83.5669992 103.8099978  85.5690014  85.4839992 103.2819978  86.4560014
  85.3959992 102.1939978  86.6650014  86.5299992 103.5899978  86.2400014
  85.0549992 103.9889978  87.8290014  85.6159992 104.9479978  87.8650014
  83.9939992 104.2579978  87.6370014  85.0959992 103.0989978  89.0950014
  85.9669992 102.4099978  89.0890014  85.1479992 103.8079978  89.9490014
  83.8789992 102.2059978  89.1960014  83.0279992 102.6819978  88.6640014
  83.9579992 101.2249978  88.6810014  83.3099992 102.0979978  90.6140014
  83.9719992 101.5009978  91.2780014  83.0109992 103.0509978  91.1020014
  81.9259992 101.3109978  90.6420014  81.1349992 101.7279978  89.9820014
  82.0369992 100.2909978  90.2150014  81.2809992 101.1609978  92.0260014
  81.0439992 102.1609978  92.4470014  80.2399992 100.7729978  92.0080014
  81.9359992 100.2919978  93.0680014  81.4059992 100.0949978  94.0240014
  81.9619992  99.2729978  92.6280014  83.3509992 100.6799978  93.5650014
  84.1129992 100.1959978  92.9180014  83.5289992 101.7709978  93.6700014
  83.5129992 100.1299978  95.0310014  82.7649992 100.5919978  95.7090014
  83.4149992  99.0239978  95.0880014  84.7709992 100.5319978  95.8010014
  85.6099992  99.8339978  95.5940014  85.1409992 101.4239978  95.2530014
  84.6809992 100.8579978  97.3460014  83.7749992 101.4489978  97.5960014
  84.5889992  99.9129978  97.9240014  85.8549992 101.6459978  97.7510014
  86.8039992 101.9979978  97.0810014  85.6999992 102.0129978  99.0320014
  86.7399992 102.8409978  99.6050014  87.0539992 102.4529978 100.5980014
  87.6469992 102.9469978  98.9740014  86.1879992 104.2599978  99.8730014
  86.9159992 104.8169978 100.5020014  84.8929992 104.1579978 100.7680014
  84.9759992 103.4689978 101.6350014  84.6619992 105.1969978 101.0900014
  83.8129992 103.7549978  99.9360014  82.3119992 103.6739978 100.3970014
  82.3409992 102.1129978 100.7610014  81.1349992 101.4749978 101.2610014
  80.2369992 101.8169978 100.7030014  81.2159992 100.3719978 101.1520014
  80.8559992 101.7429978 102.7520014  80.9229992 102.7989978 102.9660014
  79.8419992 101.4889978 103.0260014  81.8389992 101.1709978 103.8120014
  83.2039992 101.6759978 103.7480014  83.8079992 101.0249978 104.3630014
  83.4629992 101.7779978 102.7040014  83.1819992 102.6499978 104.2130014
  81.1999992 101.5669978 105.1390014  81.7899992 101.0299978 105.8670014
  81.3419992 102.6189978 105.3380014  80.1259992 101.5239978 105.2460014
  81.7929992  99.6999978 103.7660014  82.5229992  99.3159978 104.4630014
  82.0579992  99.5009978 102.7390014  80.8249992  99.2729978 103.9830014
  82.0929992 104.5039978 101.6240014  81.4119992 104.0879978  99.3110014
  85.8189992 104.8949978  98.6240014  85.8149992 106.1969978  98.6370014
  85.9029992 106.9569978  99.6150014  85.7439992 106.7139978  97.1220014
  86.7759992 106.6489978  96.7160014  85.4649992 107.7859978  97.2110014
  84.6609992 106.0369978  96.2800014  84.7579992 104.9309978  96.3230014
  84.9189992 106.3319978  95.2410014  83.1539992 106.5929978  96.5040014
  83.1089992 107.6659978  96.2200014  82.9399992 106.7139978  97.5870014
  82.0339992 105.7969978  95.8530014  81.0899992 106.0029978  96.4010014
  82.1499992 104.6929978  95.8040014  81.8379992 106.2549978  94.3920014
  82.8659992 106.5169978  94.0640014  81.2239992 107.1809978  94.3790014
  81.2129992 105.1829978  93.5070014  80.2519992 105.1989978  94.0650014
  81.8409992 104.2729978  93.6210014  80.9819992 105.6209978  92.0940014
  80.2249992 106.4339978  92.0840014  80.5569992 104.7169978  91.6080014
  82.1339992 105.8959978  91.1780014  83.1599992 105.6789978  91.5090014
  81.9649992 106.2499978  89.8680014  82.8789992 106.3779978  89.2700014
  80.6189992 106.4209978  89.1290014  80.6989992 107.2359978  88.3780014
  79.7889992 106.5789978  89.8500014  80.2399992 105.1619978  88.3800014
  80.2399992 104.2059978  88.9460014  80.9939992 105.1129978  87.5660014
  78.9859992 105.4029978  87.5440014  78.8069992 106.4789978  87.3310014
  78.0949992 104.9929978  88.0660014  78.9419992 104.7079978  86.1620014
  78.0499992 105.0399978  85.5890014  78.8179992 103.6159978  86.3230014
  80.1899992 104.8819978  85.2640014  81.0649992 104.3449978  85.6880014
  80.4869992 105.9519978  85.3020014  79.9609992 104.3519978  83.8270014
  79.0619992 104.9119978  83.4930014  79.7219992 103.2669978  83.8190014
  81.1329992 104.5449978  82.8540014  81.7759992 103.6549978  82.6880014
  81.7379992 105.2799978  83.4270014  80.7659992 105.1189978  81.4950014
  80.2889992 104.2739978  80.9540014  81.6089992 105.4239978  80.8390014
  80.0119992 105.9349978  81.4940014  96.3129992  47.0159978  83.2390014
  96.9779992  46.3859978  82.6110014  96.5629992  48.0589978  82.9470014
  95.3019992  46.6659978  82.9410014  96.5579992  46.7199978  84.7460014
  96.5939992  45.6289978  84.9520014  97.5839992  47.1429978  84.7930014
  95.7339992  47.4689978  85.8720014  95.8469992  48.5609978  85.7000014
  94.7019992  47.1009978  85.6870014  96.2399992  46.9519978  87.2830014
  96.0179992  45.8729978  87.4240014  97.3489992  47.0099978  87.3070014
  95.5289992  47.6409978  88.4190014  94.4589992  47.3909978  88.2500014
  95.7469992  47.1159978  89.3740014  95.9189992  49.1589978  88.3890014
  97.0289992  49.2229978  88.3920014  95.2479992  49.6049978  87.6240014
  95.4649992  49.7659978  89.7100014  95.8969992  49.2489978  90.5930014
  95.9099992  50.7819978  89.6350014  93.9069992  49.8339978  89.8710014
  93.5909992  50.5199978  89.0570014  93.2909992  48.9089978  89.8750014
  93.5399992  50.5829978  91.1600014  94.0979992  51.5359978  91.0410014
  92.4469992  50.7679978  91.0840014  94.0909992  49.9639978  92.4230014
  95.1989992  49.9739978  92.3410014  93.8559992  50.4219978  93.4070014
  93.6969992  48.4589978  92.7470014  92.6209992  48.2859978  92.5310014
  94.2829992  47.8689978  92.0100014  94.0159992  47.9809978  94.1650014
  93.7329992  48.6699978  94.9890014  93.4049992  47.0869978  94.4150014
  95.4669992  47.5279978  94.3550014  96.0219992  48.2309978  93.6970014
  95.7249992  47.5629978  95.4350014  95.8699992  46.1649978  93.7020014
  95.3039992  45.2679978  94.0350014  95.4909992  46.2989978  92.6660014
  97.3789992  45.7499978  93.7070014  97.4989992  44.7389978  93.2620014
  97.8799992  46.4399978  92.9940014  98.0789992  45.8449978  95.0210014
  99.2989992  45.9189978  95.0940014  97.2429992  45.7089978  95.9760014
  97.8979992  45.8399978  97.3680014  97.5509992  44.9789978  97.9780014
  99.0089992  45.7989978  97.3720014  97.4909992  47.1289978  98.1300014
  98.2649992  47.4179978  98.8720014  96.1479992  46.9309978  98.7720014
  95.4629992  46.4209978  98.0610014  96.2969992  46.2449978  99.6330014
  95.5219992  48.1039978  99.1640014  96.1149992  48.9829978 100.4300014
  94.8059992  49.8099978 100.8100014  93.9879992  49.3789978 101.8670014
  92.9819992  49.7609978 101.5880014  93.7809992  48.2909978 101.7780014
  94.4129992  49.7789978 103.3810014  93.8169992  49.2279978 104.0940014
  95.4199992  49.4019978 103.2890014  94.4829992  51.2169978 103.7430014
  95.3099992  51.9349978 102.6670014  94.8419992  51.7969978 101.7040014
  95.3639992  52.9809978 102.9280014  96.3319992  51.5889978 102.6250014
  93.1339992  51.7729978 103.8480014  93.1849992  52.8509978 103.8010014
  92.5469992  51.6199978 102.9550014  92.7089992  51.4859978 104.7990014
  95.1809992  51.3979978 105.0780014  95.0189992  52.4059978 105.4300014
  96.2289992  51.1879978 104.9200014  94.7649992  50.6899978 105.7810014
  96.4919992  47.9819978 101.5100014  97.1419992  49.9269978 100.0070014
  97.3649992  48.2429978  97.2450014  98.4749992  48.7429978  96.6590014
  99.6319992  48.3919978  96.7240014  98.0499992  49.8449978  95.7590014
  97.0589992  50.1659978  96.1450014  97.8919992  49.3209978  94.7920014
  99.0619992  51.0059978  95.4760014 100.1299992  50.7089978  95.4000014
  98.9189992  51.8009978  96.2390014  98.6629992  51.7199978  94.1390014
  99.0749992  52.7519978  94.1610014  97.5579992  51.7589978  94.0410014
  99.2369992  50.9289978  92.8990014  99.1169992  49.8329978  93.0350014
 100.3269992  51.1439978  92.9100014  98.6659992  51.4089978  91.6180014
  99.1099992  52.4089978  91.4230014  97.5779992  51.5669978  91.7790014
  98.8359992  50.4739978  90.3920014  98.1579992  50.9479978  89.6500014
  98.3579992  49.5049978  90.6480014 100.2879992  50.3809978  89.9020014
 100.2069992  49.6739978  89.0490014 101.0189992  49.9659978  90.6280014
 100.8969992  51.7649978  89.4650014 101.6899992  52.1779978  90.1060014
 100.4359992  52.5819978  88.5020014 101.0589992  53.4799978  88.3770014
  99.2359992  52.3839978  87.5460014  98.3569992  53.0229978  87.7760014
  98.8649992  51.3369978  87.5500014  99.5459992  52.7029978  86.0290014
  99.8729992  53.7449978  85.8240014  98.5849992  52.5059978  85.5080014
 100.6089992  51.7719978  85.2680014 100.3029992  50.7079978  85.3630014
 101.6259992  51.8819978  85.7000014 100.6099992  52.2649978  83.7690014
 101.2559992  51.5799978  83.1790014 100.9729992  53.3139978  83.7310014
  99.2439992  52.1969978  83.0320014  99.4159992  52.4909978  81.9750014
  98.5409992  52.9129978  83.5080014  98.4439992  50.8459978  83.0540014
  97.5649992  50.9309978  82.3790014  98.0749992  50.6739978  84.0870014
  99.3749992  49.6709978  82.6030014  98.7259992  48.8319978  82.9340014
 100.3109992  49.7729978  83.1930014  99.7439992  49.6009978  81.1110014
  99.7709992  50.6029978  80.6320014  98.9649992  49.0639978  80.5290014
 100.6989992  49.0579978  80.9440014  99.6369992  98.9869978  83.0250014
  99.9109992 100.0529978  83.1810014  98.6329992  98.7149978  83.4150014
  99.5619992  98.7699978  81.9380014 100.7489992  98.0279978  83.4720014
 100.5179992  96.9629978  83.2540014 101.6999992  98.3949978  83.0310014
 100.9359992  98.0939978  85.0460014 101.1359992  99.1579978  85.2970014
  99.9079992  97.9069978  85.4230014 101.8779992  97.0609978  85.7000014
 102.1729992  96.3399978  84.9080014 102.7919992  97.6669978  85.8770014
 101.3439992  96.1959978  86.8300014 100.4629992  95.6209978  86.4710014
 102.2239992  95.5649978  87.0770014 101.1369992  96.9329978  88.2110014
 102.1019992  97.1389978  88.7220014 100.8109992  97.9359978  87.8600014
 100.1059992  96.3189978  89.1870014  99.1469992  96.0309978  88.7060014
 100.5579992  95.4169978  89.6520014  99.8079992  97.2659978  90.3680014
 100.7939992  97.5449978  90.7980014  99.4249992  98.2189978  89.9460014
  98.7559992  96.7459978  91.3490014  97.8679992  96.9169978  90.7030014
  98.9149992  95.6669978  91.5630014  98.6899992  97.6179978  92.6010014
  99.6679992  97.5729978  93.1250014  98.5199992  98.6629978  92.2650014
  97.4659992  97.2739978  93.4600014  96.5239992  97.7789978  93.1590014
  97.2779992  96.1799978  93.4060014  97.7729992  97.6969978  94.9530014
  98.0729992  98.7609978  95.0620014  96.8119992  97.6189978  95.5060014
  98.7799992  96.8579978  95.7140014  99.7769992  96.9679978  95.2350014
  98.8749992  97.2279978  96.7570014  98.4299992  95.3759978  95.9840014
  97.6489992  95.4389978  96.7720014  97.9479992  94.9889978  95.0600014
  99.5329992  94.4679978  96.4560014  99.2789992  93.3929978  96.3350014
 100.3509992  94.5959978  95.7140014  99.7909992  94.6809978  97.9180014
  99.6299992  93.9119978  98.8270014 100.4329992  95.8859978  98.0670014
 100.7219992  96.1039978  99.4730014  99.9199992  95.8349978 100.1930014
 101.6269992  95.5039978  99.7060014 101.1359992  97.6229978  99.5790014
 102.0519992  97.8059978  98.9780014 101.5159992  98.0219978 101.0430014
 102.2589992  97.3429978 101.5140014 102.0589992  98.9919978 101.0620014
 100.3119992  98.0729978 101.7870014 100.2149992  97.1679978 103.1750014
  98.6939992  96.7709978 103.3120014  98.1099992  95.6379978 102.6460014
  98.7659992  95.2619978 101.8320014  97.9639992  94.8159978 103.3800014
  96.7319992  96.0879978 102.1350014  96.0439992  95.2549978 102.1180014
  96.3229992  96.6229978 102.9790014  96.4929992  96.8899978 100.8850014
  97.1239992  96.2329978  99.6010014  96.5009992  95.3739978  99.4000014
  97.1809992  96.7929978  98.6790014  98.1249992  95.8519978  99.7450014
  94.9929992  96.9799978 100.6180014  94.6029992  97.6779978 101.3440014
  94.8369992  97.2619978  99.5870014  94.6059992  95.9969978 100.8410014
  97.1069992  98.3209978 101.0390014  96.5629992  98.7499978 101.8680014
  96.9959992  98.7979978 100.0760014  98.1519992  98.2929978 101.3110014
 100.9639992  95.8659978 103.1190014 100.5599992  98.1399978 104.1890014
 100.0529992  98.4129978  99.1350014 100.2409992  99.7189978  98.9000014
 101.3349992 100.2639978  98.9210014  98.9429992 100.2989978  98.4540014
  98.4739992 101.0049978  99.1730014  98.1769992  99.5399978  98.1880014
  99.2229992 101.1419978  97.1430014  99.6979992 100.4449978  96.4200014
  99.8049992 102.0699978  97.3270014  97.9799992 101.6289978  96.4690014
  97.3329992 102.2209978  97.1520014  97.4579992 100.6689978  96.2680014
  98.2229992 102.2879978  95.1860014  98.9799992 101.7239978  94.6000014
  98.6189992 103.2939978  95.4430014  96.9569992 102.3459978  94.2620014
  96.9479992 103.1009978  93.4460014  96.1029992 102.7569978  94.8410014
  96.4949992 101.0459978  93.5730014  96.4649992 100.2039978  94.2970014
  97.2279992 100.7859978  92.7790014  95.0339992 101.1189978  92.9350014
  94.4809992 101.2059978  93.8940014  94.6679992 100.1509978  92.5300014
  94.7709992 102.1949978  91.9440014  94.0079992 102.9529978  92.1780014
  95.3179992 102.1769978  90.7000014  95.1739992 103.0499978  90.0470014
  96.2789992 101.1259978  90.0780014  96.4989992 100.3319978  90.8240014
  97.2219992 101.6379978  89.7910014  95.7879992 100.4259978  88.8410014
  95.4689992 101.2289978  88.1440014  94.9079992  99.8039978  89.1150014
  96.7479992  99.5449978  87.9880014  97.5599992  99.0829978  88.5890014
  97.2309992 100.1509978  87.1910014  96.0169992  98.2779978  87.2830014
  95.3249992  98.6989978  86.5240014  95.3539992  97.9859978  88.1260014
  96.9969992  97.3439978  86.6530014  97.2419992  96.5719978  87.4130014
  97.9399992  97.8509978  86.3560014  96.6479992  96.6709978  85.2990014
  96.1529992  97.4159978  84.6410014  95.8169992  95.9599978  85.4930014
  97.8319992  96.1059978  84.5170014  98.3599992  95.3729978  85.1640014
  98.4559992  96.9809978  84.2330014  97.3479992  95.3759978  83.3100014
  96.7929992  94.4419978  83.5440014  98.2669992  95.2129978  82.7070014
  96.5789992  95.9449978  82.7460014  74.0879992  43.1999978  84.3310014
  75.1339992  42.8539978  84.4750014  74.1649992  44.0739978  83.6500014
  73.5709992  42.3099978  83.9120014  73.5249992  43.5919978  85.6840014
  73.6719992  42.6789978  86.3000014  73.9519992  44.5009978  86.1600014
  72.0419992  43.9499978  85.5590014  71.9149992  44.9339978  85.0580014
  71.4639992  43.2389978  84.9300014  71.3249992  43.9699978  86.9520014
  71.4049992  42.9989978  87.4860014  71.7909992  44.6909978  87.6570014
  69.8449992  44.1609978  86.8250014  69.5639992  45.1569978  86.4210014
  69.3239992  43.3549978  86.2660014  69.0269992  44.0969978  88.1920014
  68.0099992  44.2059978  87.7590014  69.2759992  43.0849978  88.5770014
  69.3679992  45.2839978  89.0630014  70.4279992  45.2919978  89.3960014
  69.2129992  46.2079978  88.4660014  68.3949992  45.4779978  90.3150014
  67.3969992  45.7999978  89.9480014  68.3369992  44.5089978  90.8550014
  68.9089992  46.6429978  91.2260014  69.1189992  47.5209978  90.5780014
  68.0739992  46.9289978  91.9010014  70.1759992  46.4079978  92.0670014
  69.8799992  45.8689978  92.9920014  70.8859992  45.7879978  91.4780014
  70.9329992  47.6699978  92.4740014  71.4309992  48.1899978  91.6280014
  70.1479992  48.3999978  92.7640014  71.9179992  47.5269978  93.6000014
  71.3629992  47.1579978  94.4890014  72.6499992  46.7489978  93.2930014
  72.6399992  48.8029978  93.9680014  73.3719992  48.6689978  94.7940014
  73.2489992  49.0919978  93.0850014  71.6339992  49.9609978  94.3970014
  72.2789992  50.8649978  94.4170014  70.7939992  49.9999978  93.6700014
  71.1179992  49.8789978  95.8290014  71.9629992  49.4859978  96.4330014
  70.8519992  50.9179978  96.1190014  69.8659992  48.9669978  96.0540014
  68.7789992  49.1449978  95.5390014  70.0659992  48.1059978  97.0480014
  68.9049992  47.3599978  97.5140014  68.3789992  47.9669978  98.2810014
  68.3509992  47.1179978  96.5820014  69.5179992  45.9739978  97.9750014
  68.6259992  45.3189978  98.0800014  70.1879992  46.0349978  99.3390014
  69.5029992  46.5869978 100.0180014  70.4169992  45.0429978  99.7850014
  71.4289992  46.6929978  99.1560014  72.5489992  46.7059978 100.3250014
  71.7049992  46.1019978 101.5320014  72.5159992  45.7129978 102.6030014
  73.1449992  44.9069978 102.1680014  73.2199992  46.5369978 102.8470014
  71.6369992  45.3019978 103.7980014  72.1129992  44.9939978 104.7170014
  71.1869992  46.2219978 104.1420014  70.5529992  44.2829978 103.6690014
  69.9659992  44.0999978 105.0010014  70.7769992  43.9259978 105.6930014
  69.5079992  45.0029978 105.3760014  69.1659992  43.3759978 104.9370014
  69.4839992  44.7149978 102.7200014  68.9639992  45.4079978 103.3650014
  69.9119992  45.1969978 101.8530014  68.8099992  43.8949978 102.5220014
  71.3159992  43.0459978 103.2070014  71.5209992  43.1489978 102.1520014
  70.7549992  42.1309978 103.3270014  72.2129992  42.9219978 103.7960014
  73.5659992  45.6729978  99.9410014  72.9939992  48.1389978 100.5540014
  70.4369992  45.4819978  96.9350014  70.6929992  44.1229978  96.8990014
  70.1829992  43.2719978  97.6010014  71.7929992  43.8079978  95.8870014
  71.3899992  44.2219978  94.9380014  71.8079992  42.7119978  95.7050014
  73.2029992  44.3699978  96.1900014  73.4699992  44.1649978  97.2480014
  73.2239992  45.4799978  96.1530014  74.3189992  43.8129978  95.2140014
  74.4619992  42.7299978  95.4140014  75.3109992  44.3109978  95.2660014
  73.8589992  43.8089978  93.6830014  73.1079992  44.5969978  93.4600014
  73.3449992  42.8689978  93.3890014  75.0649992  44.0989978  92.7780014
  74.8549992  43.8659978  91.7130014  75.9339992  43.5529978  93.2040014
  75.4949992  45.5749978  92.7370014  75.7519992  45.9029978  93.7670014
  74.6109992  46.1599978  92.4060014  76.6859992  45.8879978  91.8110014
  77.6689992  45.4659978  92.1140014  76.8989992  46.9689978  91.9600014
  76.4319992  45.5159978  90.3390014  76.4229992  44.4359978  90.1350014
  76.1149992  46.2109978  89.2290014  75.9469992  45.6539978  88.2950014
  75.9199992  47.6899978  89.1980014  76.2369992  48.2089978  88.2680014
  76.5109992  48.2099978  89.9810014  74.4579992  48.1009978  89.4390014
  74.2009992  49.1669978  89.2560014  74.1049992  47.8629978  90.4650014
  73.5369992  47.4049978  88.4640014  73.3239992  46.3509978  88.7450014
  73.9539992  47.5969978  87.4520014  72.1799992  48.1699978  88.4500014
  72.2669992  49.2719978  88.5590014  71.6719992  47.7199978  89.3300014
  71.2769992  47.9949978  87.2290014  70.4789992  48.7519978  87.3800014
  70.8489992  46.9839978  87.4010014  71.8629992  48.2049978  85.7740014
  72.6299992  47.4099978  85.6560014  72.3219992  49.2139978  85.7010014
  70.7589992  48.1729978  84.6780014  70.4679992  47.1259978  84.4500014
  71.1489992  48.5289978  83.7000014  69.4919992  49.0449978  84.9400014
  68.8989992  49.1219978  84.0030014  69.8299992  50.0629978  85.2310014
  68.9979992  48.5069978  85.7770014  88.4099992 100.1269978  84.1010014
  89.4299992  99.6909978  84.1660014  88.4119992 100.7569978  83.1860014
  87.7459992  99.2389978  84.0300014  88.0819992 100.9269978  85.4120014
  89.0399992 101.3919978  85.7300014  87.2739992 101.6819978  85.3020014
  87.5629992  99.9209978  86.5390014  86.5109992  99.6059978  86.3750014
  88.1809992  99.0019978  86.6270014  87.6109992 100.6089978  87.8770014
  88.6189992 100.9989978  88.1340014  86.8639992 101.4289978  87.8170014
  87.3769992  99.6249978  89.0340014  86.9949992 100.2399978  89.8770014
  86.5519992  98.9619978  88.6960014  88.5699992  98.8069978  89.3490014
  88.3169992  98.2719978  90.2890014  88.8769992  98.0689978  88.5770014
  89.9489992  99.5069978  89.6810014  90.3809992  99.6529978  88.6680014
  89.7149992 100.4719978  90.1790014  90.9669992  98.6919978  90.5870014
  91.0519992  97.6949978  90.1060014  91.9929992  99.1179978  90.6020014
  90.4949992  98.4539978  92.0500014  89.7449992  97.6349978  92.0620014
  91.2559992  98.0509978  92.7520014  89.8209992  99.7349978  92.6420014
  90.5909992 100.5229978  92.4990014  88.9259992  99.9959978  92.0370014
  89.5739992  99.6869978  94.1820014  90.4589992  99.4469978  94.8080014
  89.2259992 100.7079978  94.4480014  88.4359992  98.6159978  94.4740014
  87.5809992  98.9539978  93.8490014  88.5889992  97.6049978  94.0410014
  88.0189992  98.5099978  95.9350014  88.8849992  98.0729978  96.4750014
  87.8559992  99.5169978  96.3740014  86.8689992  97.5479978  96.0330014
  86.1569992  97.8659978  95.2420014  87.1749992  96.5039978  95.8080014
  86.0119992  97.7069978  97.3630014  85.8359992  98.7899978  97.5400014
  85.0269992  97.2189978  97.2020014  86.5739992  97.2019978  98.6850014
  86.3239992  97.5269978  99.8390014  87.6189992  96.3509978  98.4040014
  88.6009992  95.9849978  99.3730014  88.3459992  96.0789978 100.4510014
  88.9109992  94.9299978  99.2140014  89.8079992  96.9749978  99.2970014
  90.6139992  96.6289978  99.9780014  89.3769992  98.3649978  99.7610014
  88.4419992  98.7749978  99.3240014  89.0649992  98.0789978 100.7880014
  90.4069992  99.3479978  99.6670014  91.8239992  99.4379978 100.4540014
  91.7209992 100.6749978 101.5220014  90.9809992 101.8029978 101.3020014
  91.7759992 102.5629978 101.4610014  90.6199992 101.8459978 100.2530014
  89.8779992 102.0979978 102.2890014  89.7119992 103.1559978 102.1530014
  88.9779992 101.6589978 101.8840014  89.9609992 101.7119978 103.7260014
  91.2619992 102.2619978 104.3410014  91.9919992 102.0889978 103.5640014
  91.2859992 103.3279978 104.5110014  91.4419992 101.6439978 105.2080014
  88.7509992 102.2629978 104.4350014  87.9049992 101.7759978 103.9730014
  88.7919992 101.8949978 105.4490014  88.6759992 103.3399978 104.4060014
  90.0519992 100.2479978 103.8640014  89.1559992  99.7139978 103.5840014
  90.2879992 100.0289978 104.8950014  90.9109992  99.9449978 103.2840014
  92.0099992  98.2099978 101.3340014  92.9189992  99.7259978  99.5710014
  90.3069992  97.1479978  98.0000014  90.9489992  96.0659978  97.5760014
  90.9209992  94.9679978  98.1150014  91.4079992  96.3499978  96.1550014
  92.1849992  97.1349978  96.0420014  90.4929992  96.7159978  95.6420014
  91.9099992  95.1029978  95.5210014  91.1509992  94.3189978  95.7300014
  92.7759992  94.5889978  95.9890014  92.1219992  95.1859978  93.9810014
  93.1409992  94.9269978  93.6220014  91.8859992  96.2369978  93.7080014
  90.9989992  94.4679978  93.2300014  90.0899992  94.7199978  93.8180014
  91.2419992  93.3889978  93.3400014  90.8849992  94.7539978  91.7330014
  90.7409992  95.8559978  91.7340014  89.9349992  94.3279978  91.3460014
  92.1579992  94.4879978  90.9290014  92.4039992  93.4049978  90.9760014
  93.0089992  95.0559978  91.3610014  91.9759992  94.8029978  89.4620014
  92.9709992  95.1089978  89.0750014  91.3439992  95.7139978  89.4040014
  91.6499992  93.5699978  88.6210014  92.4109992  92.7759978  88.6320014
  90.6149992  93.3439978  87.8490014  90.6449992  92.3699978  87.3390014
  89.3909992  94.2849978  87.5570014  89.4989992  95.3099978  87.9710014
  88.4809992  93.8169978  87.9880014  88.9009992  94.4329978  86.0490014
  88.1259992  95.2289978  86.0330014  88.4279992  93.4799978  85.7300014
  90.0739992  94.6999978  85.0840014  89.6309992  94.9749978  84.1020014
  90.5319992  93.7129978  84.8590014  91.0799992  95.8199978  85.5030014
  92.0499992  95.6749978  84.9820014  91.3289992  95.7369978  86.5830014
  90.6869992  97.2769978  85.3280014  89.6719992  97.4119978  85.7610014
  90.4689992  97.4909978  84.2600014  91.8199992  98.2859978  85.6750014
  91.9259992  98.3289978  86.7800014  91.5039992  99.3139978  85.3990014
  93.2749992  98.0889978  85.0690014  93.7249992  97.1729978  85.5090014
  93.8029992  98.9509978  85.5300014  93.3079992  98.0679978  83.5380014
  92.8279992  98.9819978  83.1280014  92.6529992  97.2229978  83.2370014
  94.3089992  97.8129978  83.1280014  64.6449992 102.0069978  81.3370014
  64.5389992 102.6969978  80.4730014  64.3809992 100.9369978  81.1940014
  65.7229992 101.9859978  81.6060014  63.8209992 102.5779978  82.4450014
  62.7489992 102.5349978  82.1550014  64.0009992 101.8779978  83.2880014
  64.0929992 104.0869978  82.7490014  63.6929992 104.7059978  81.9170014
  63.5079992 104.2469978  83.6800014  65.5399992 104.5369978  83.0640014
  66.1389992 104.3359978  82.1500014  65.5699992 105.5929978  83.4080014
  66.0819992 103.7439978  84.2420014  65.4319992 103.9809978  85.1110014
  66.1269992 102.6499978  84.0580014  67.4019992 104.2659978  84.7290014
  68.1999992 104.4039978  83.9690014  67.0869992 105.2259978  85.1920014
  68.1149992 103.3789978  85.7320014  68.6039992 102.4609978  85.3400014
  69.0819992 103.8659978  85.9850014  67.2499992 103.1659978  86.9860014
  67.2629992 104.1659978  87.4690014  66.2309992 102.7849978  86.7600014
  67.8729992 102.0579978  87.8520014  68.1779992 101.2659978  87.1350014
  68.8049992 102.4389978  88.3230014  66.9809992 101.4739978  88.9990014
  66.1279992 100.9119978  88.5610014  67.5369992 100.7559978  89.6390014
  66.4859992 102.5949978  89.9980014  67.3579992 103.1989978  90.3280014
  65.9509992 103.3059978  89.3320014  65.5979992 102.1049978  91.1710014
  65.0579992 102.9549978  91.6420014  64.8039992 101.5139978  90.6660014
  66.2119992 101.2499978  92.3280014  65.3519992 100.9169978  92.9470014
  66.8339992 100.4219978  91.9270014  67.1769992 102.1059978  93.2170014
  68.1329992 102.3879978  92.7250014  66.5499992 102.9979978  93.4300014
  67.4509992 101.4449978  94.5330014  66.7789992 100.6379978  94.8960014
  68.4509992 100.9679978  94.4480014  67.8599992 102.5299978  95.6830014
  68.6219992 103.4519978  95.4840014  67.3379992 102.1659978  96.8020014
  67.6729992 103.0299978  97.9050014  68.7729992 102.9359978  98.0270014
  67.5379992 104.1009978  97.6420014  66.9969992 102.5029978  99.1670014
  67.1429992 103.2629978  99.9640014  67.6229992 101.1609978  99.6070014
  67.6219992 100.4859978  98.7250014  68.6979992 101.2079978  99.8830014
  66.8739992 100.5689978 100.6600014  67.2879992  99.4089978 101.7510014
  66.0339992  98.4709978 101.7390014  65.2919992  98.3329978 102.9190014
  64.6319992  97.4479978 102.7950014  65.9449992  98.0319978 103.7660014
  64.3049992  99.4559978 103.2150014  63.7759992  99.2539978 104.1350014
  64.8129992 100.3929978 103.3920014  63.2609992  99.6829978 102.1940014
  62.2709992  98.5509978 102.2620014  61.9649992  98.3429978 103.2770014
  61.4319992  98.8819978 101.6690014  62.7119992  97.6759978 101.8080014
  62.5809992 100.9959978 102.5830014  62.5049992 101.1519978 103.6490014
  63.1369992 101.8299978 102.1800014  61.5849992 100.9769978 102.1670014
  63.7449992  99.8339978 100.7560014  64.5929992 100.4489978 100.4940014
  62.9179992 100.2159978 100.1750014  63.9519992  98.8129978 100.4710014
  68.5719992  98.8299978 101.3390014  67.3229992 100.0839978 103.0860014
  65.5759992 102.4379978  98.9500014  64.9959992 103.5219978  98.5120014
  65.5429992 104.6259978  98.4790014  63.5719992 103.1959978  98.0390014
  62.8329992 103.9849978  98.2960014  63.2449992 102.2659978  98.5510014
  63.6139992 103.0989978  96.4820014  64.2969992 103.8509978  96.0320014
  62.6039992 103.3069978  96.0680014  63.9049992 101.6459978  96.0390014
  64.9899992 101.5009978  96.2280014  63.7789992 101.6629978  94.9350014
  63.1519992 100.4849978  96.7630014  62.0759992 100.4309978  96.4920014
  63.3169992 100.5229978  97.8610014  63.7589992  99.0899978  96.3160014
  63.5669992  98.3489978  97.1210014  64.8649992  99.1149978  96.2130014
  63.1579992  98.5899978  95.0230014  63.3449992  99.4069978  94.2940014
  62.0639992  98.4929978  95.1920014  63.6089992  97.2169978  94.4730014
  62.9039992  96.7909978  93.7280014  63.6959992  96.4989978  95.3160014
  64.9569992  97.3419978  93.7450014  65.8009992  97.9249978  94.1430014
  65.3549992  96.9269978  92.4970014  66.3839992  97.1129978  92.1550014
  64.4599992  96.1619978  91.5170014  63.5339992  95.7059978  91.9300014
  64.9949992  95.2739978  91.1190014  63.9959992  97.0239978  90.3690014
  63.4179992  97.8799978  90.7790014  63.3079992  96.4859978  89.6820014
  65.0869992  97.7069978  89.5790014  66.0389992  97.2109978  89.8660014
  65.0829992  98.7929978  89.8140014  64.8349992  97.6019978  88.0030014
  63.8899992  98.0419978  87.6170014  64.8089992  96.4999978  87.8620014
  65.8969992  98.3009978  87.2670014  66.8779992  97.8319978  87.4970014
  65.9949992  99.3919978  87.4520014  65.8149992  98.1589978  85.7120014
  65.7729992  97.0669978  85.5090014  66.7079992  98.5459978  85.1770014
  64.6519992  98.8909978  84.9420014  64.9189992  99.9539978  84.7600014
  63.7989992  98.9169978  85.6540014  64.0999992  98.2719978  83.6700014
  63.1749992  98.7729978  83.3100014  63.7899992  97.2159978  83.8200014
  64.8279992  98.2909978  82.8310014  48.5089992  92.2149978  83.0960014
  47.5629992  92.5349978  83.5830014  48.2159992  91.5129978  82.2860014
  49.0149992  93.0859978  82.6290014  49.5629992  91.7519978  84.0050014
  49.1289992  91.1149978  84.8060014  50.2229992  91.0549978  83.4450014
  50.4499992  92.9009978  84.5370014  51.3629992  92.4149978  84.9440014
  50.8039992  93.6299978  83.7770014  49.8069992  93.7159978  85.7530014
  50.0139992  94.7819978  85.5200014  48.7159992  93.5099978  85.6990014
  50.3709992  93.3909978  87.1560014  49.7559992  92.5739978  87.5910014
  51.3939992  92.9609978  87.1020014  50.3369992  94.5459978  88.1690014
  49.3749992  95.0939978  88.0800014  50.2669992  94.0459978  89.1580014
  51.5249992  95.4799978  88.1100014  52.4609992  94.9879978  88.4510014
  51.7399992  95.7969978  87.0670014  51.2589992  96.8829978  88.6510014
  52.0829992  97.5489978  88.3170014  50.3169992  97.2379978  88.1810014
  51.1119992  96.9089978  90.1560014  50.6839992  97.8939978  90.4370014
  50.5019992  96.0389978  90.4820014  52.4339992  96.7749978  90.9470014
  53.1139992  96.0509978  90.4500014  52.8899992  97.7829978  90.8390014
  52.2839992  96.3469978  92.4020014  53.3179992  96.3679978  92.8070014
  51.8169992  97.1559978  93.0040014  51.7939992  94.9259978  92.5390014
  50.9289992  94.6249978  91.9100014  52.6399992  94.2249978  92.3760014
  51.4669992  94.6449978  94.0410014  51.4469992  93.5559978  94.2610014
  52.3719992  95.0209978  94.5650014  50.2499992  95.3459978  94.5400014
  50.2759992  96.4369978  94.3350014  49.4199992  94.9729978  93.9020014
  50.0109992  94.9289978  95.9400014  49.8549992  93.8289978  95.9600014
  50.8219992  95.0609978  96.6880014  48.8589992  95.6909978  96.4630014
  47.9179992  96.0209978  95.7700014  48.9229992  96.0309978  97.7800014
  47.8419992  96.7819978  98.3610014  48.3019992  97.4559978  99.1140014
  47.3189992  97.4359978  97.6310014  46.8819992  95.8199978  99.0830014
  46.0489992  96.3349978  99.6070014  47.6679992  95.0069978 100.1200014
  48.3349992  95.6919978 100.6860014  47.0179992  94.6719978 100.9550014
  48.4139992  93.8949978  99.5210014  49.1799992  92.9289978 100.6140014
  49.6399992  94.0149978 101.6700014  50.7399992  94.9479978 101.2800014
  51.5239992  94.5099978 100.6260014  50.3179992  95.8679978 100.8240014
  51.5509992  95.5409978 102.4300014  52.2059992  94.7989978 102.8620014
  52.2239992  96.2379978 101.9540014  50.8069992  96.1269978 103.6180014
  49.7329992  97.1549978 103.3260014  49.3559992  97.6929978 104.1830014
  50.0819992  97.8639978 102.5900014  48.9409992  96.7139978 102.7380014
  50.2399992  94.8519978 104.3200014  49.6839992  94.3699978 103.5300014
  50.9709992  94.1599978 104.7110014  49.7079992  95.2779978 105.1580014
  51.9179992  96.7269978 104.5090014  51.3569992  96.9879978 105.3950014
  52.4149992  97.5919978 104.0970014  52.5909992  95.9519978 104.8450014
  48.2089992  92.0529978 101.2660014  50.3139992  92.3539978  99.9520014
  46.3209992  94.9109978  98.1270014  45.4059992  94.1189978  98.4520014
  44.8079992  94.1319978  99.5200014  45.3219992  93.0129978  97.3990014
  44.7679992  93.3139978  96.4840014  44.6019992  92.2659978  97.7960014
  46.7069992  92.4179978  96.9490014  47.2529992  92.0599978  97.8480014
  47.3589992  93.1989978  96.5020014  46.6459992  91.2339978  96.0200014
  45.9779992  90.4489978  96.4360014  47.6829992  90.8699978  95.8530014
  46.1869992  91.6139978  94.6090014  45.1119992  91.8929978  94.5660014
  46.3629992  90.6409978  94.1030014  47.0269992  92.6399978  93.8800014
  48.0589992  92.2289978  93.8830014  47.0019992  93.6149978  94.4110014
  46.4909992  92.9119978  92.4180014  45.3959992  93.0919978  92.3570014
  46.7279992  91.9379978  91.9400014  47.2889992  94.1169978  91.6930014
  47.3089992  94.0089978  90.5870014  48.3629992  93.8639978  91.8230014
  47.0209992  95.4769978  92.2620014  46.9959992  95.4669978  93.3620014
  47.0859992  96.5969978  91.5820014  46.8599992  97.5109978  92.1500014
  47.4929992  96.7349978  90.1280014  48.0899992  95.8879978  89.7260014
  48.0429992  97.6849978  89.9600014  46.2739992  96.9089978  89.2400014
  45.8319992  97.9059978  89.4520014  45.5419992  96.0739978  89.2040014
  46.7609992  96.9729978  87.7540014  47.1299992  95.9569978  87.4980014
  47.7329992  97.4869978  87.5940014  45.5969992  97.1399978  86.8170014
  45.1689992  98.1609978  86.9180014  44.8219992  96.3839978  87.0660014
  45.8359992  96.9219978  85.3720014  44.8529992  96.9389978  84.8530014
  46.3669992  95.9689978  85.1640014  46.7699992  97.9149978  84.5870014
  47.8289992  97.6189978  84.7500014  46.6719992  98.9169978  85.0570014
  46.4209992  98.1409978  83.0720014  47.1359992  98.8119978  82.5490014
  45.5689992  98.8509978  83.1410014  46.1199992  96.8969978  82.1870014
  46.6049992  95.9439978  82.4860014  46.5079992  97.1519978  81.1780014
  45.0219992  96.7459978  82.1110014  43.8149992  78.0629978  83.3570014
  43.7599992  79.0759978  83.8110014  42.8119992  77.7209978  83.0220014
  44.4489992  78.0649978  82.4440014  44.6239992  77.2529978  84.4350014
  44.7649992  76.2269978  84.0330014  45.6169992  77.7349978  84.5670014
  43.9009992  77.0889978  85.7710014  43.5069992  78.0919978  86.0420014
  43.0209992  76.4169978  85.6910014  44.8489992  76.5489978  86.8590014
  45.5199992  75.7609978  86.4530014  45.4009992  77.4939978  87.0480014
  44.0969992  76.1489978  88.1520014  43.6319992  75.1589978  87.9580014
  44.9069992  75.9839978  88.8940014  43.0219992  77.1279978  88.5530014
  43.5259992  78.1149978  88.4710014  42.1639992  77.2739978  87.8620014
  42.6529992  76.8499978  90.0520014  42.2839992  75.8019978  90.0580014
  43.5669992  76.8949978  90.6830014  41.5939992  77.7219978  90.6830014
  40.6729992  77.6139978  90.0720014  41.4849992  77.3629978  91.7290014
  42.0259992  79.2739978  90.7080014  43.0629992  79.1939978  91.1000014
  41.9779992  79.7049978  89.6850014  41.1659992  80.0999978  91.6720014
  41.1289992  81.1569978  91.3330014  40.1209992  79.7229978  91.6900014
  41.5369992  79.9999978  93.1440014  40.8579992  80.6729978  93.7110014
  41.3509992  78.9499978  93.4560014  42.8669992  80.5379978  93.4880014
  43.7089992  79.9509978  93.0620014  42.8919992  81.5789978  93.1020014
  43.1469992  80.6089978  95.0360014  44.2229992  80.8599978  95.1520014
  42.5459992  81.3839978  95.5570014  42.9109992  79.3309978  95.7440014
  43.0589992  79.4799978  96.8350014  41.8139992  79.1839978  95.6510014
  43.8169992  78.1019978  95.3480014  43.6719992  77.7409978  94.3070014
  44.8669992  78.3449978  95.6180014  43.3849992  76.9079978  96.2360014
  42.1829992  76.6909978  96.3530014  44.4379992  76.1659978  96.6560014
  43.9939992  75.1769978  97.5840014  42.9129992  74.9239978  97.5420014
  44.6639992  74.3269978  97.3310014  44.3809992  75.6929978  98.9940014
  43.8959992  74.9729978  99.6870014  43.8119992  77.0929978  99.5120014
  42.7299992  77.1599978  99.2650014  43.8929992  76.9949978 100.6160014
  44.5999992  78.2069978  99.0140014  44.2969992  79.6469978  99.6440014
  44.7759992  79.5229978 101.1260014  44.7579992  80.6549978 101.9640014
  45.4279992  81.4159978 101.5110014  43.7479992  81.1019978 102.0870014
  45.3879992  80.4339978 103.4770014  46.4279992  80.2309978 103.2680014
  45.3939992  81.3749978 104.0080014  44.8809992  79.3199978 104.4300014
  45.2979992  77.9519978 103.9300014  46.3599992  77.8439978 103.7720014
  45.0669992  77.1789978 104.6490014  44.7059992  77.6579978 103.0760014
  45.2719992  79.5429978 105.8860014  44.9349992  78.7609978 106.5490014
  46.3229992  79.6449978 106.1120014  44.8439992  80.4579978 106.2690014
  43.3129992  79.3039978 104.5290014  43.0899992  78.4509978 105.1530014
  42.9849992  79.3369978 103.5000014  43.0589992  80.2049978 105.0680014
  45.1269992  80.6589978  98.8780014  42.8759992  79.8819978  99.6280014
  45.8309992  75.6969978  99.0980014  46.3569992  75.7189978 100.2330014
  45.7609992  75.5399978 101.2950014  47.8509992  76.1269978 100.0740014
  48.2449992  75.5169978  99.2330014  48.3829992  75.8319978 101.0030014
  47.9909992  77.5599978  99.8090014  47.6139992  78.2529978 100.5920014
  47.3399992  77.7609978  98.9320014  49.3979992  77.8149978  99.2120014
  49.5379992  77.0359978  98.4320014  50.2109992  77.6419978  99.9490014
  49.6359992  79.2409978  98.6620014  50.6299992  79.0509978  98.2040014
  49.7989992  79.9379978  99.5120014  48.6189992  79.8929978  97.6680014
  49.2209992  80.7419978  97.2780014  47.7769992  80.3269978  98.2490014
  48.1079992  79.0309978  96.4230014  47.3929992  78.2509978  96.7600014
  48.9709992  78.4489978  96.0350014  47.6079992  79.9049978  95.2310014
  46.8309992  80.6199978  95.5780014  47.0709992  79.1959978  94.5650014
  48.5509992  80.8159978  94.4730014  48.7819992  81.7189978  95.0560014
  49.2409992  80.6129978  93.3220014  50.0189992  81.3299978  93.0230014
  49.3049992  79.4189978  92.3920014  49.5559992  78.6279978  93.1320014
  50.1729992  79.5139978  91.7050014  47.9779992  79.0509978  91.6630014
  47.1309992  78.8979978  92.3660014  48.2309992  78.1539978  91.0590014
  47.5799992  80.1879978  90.7090014  48.4059992  80.6079978  90.0960014
  47.4299992  81.1459978  91.2500014  46.4139992  79.8159978  89.7310014
  45.6059992  79.2859978  90.2790014  46.6709992  78.9499978  89.0840014
  45.8309992  81.0079978  88.9270014  45.7829992  81.9239978  89.5530014
  44.7519992  80.7439978  88.9250014  46.4879992  81.2919978  87.5950014
  47.5379992  81.6329978  87.7170014  45.9539992  82.1509978  87.1350014
  46.4089992  80.1849978  86.5240014  45.4399992  79.6429978  86.4880014
  47.1569992  79.4389978  86.8690014  46.7199992  80.5699978  85.0860014
  46.0709992  81.3869978  84.7050014  46.6449992  79.7899978  84.2980014
  47.7839992  80.8849978  85.0360014  46.2159992  71.5609978  84.8450014
  46.5639992  71.6109978  83.7910014  47.0359992  71.7759978  85.5630014
  45.5959992  72.4789978  84.9280014  45.4839992  70.2979978  85.1210014
  44.4029992  70.5129978  84.9810014  45.8479992  69.5219978  84.4130014
  45.6529992  69.7539978  86.5760014  45.1269992  68.7759978  86.5760014
  46.6839992  69.4519978  86.8590014  45.0489992  70.6419978  87.6760014
  45.5139992  71.6469978  87.5870014  43.9509992  70.7109978  87.5260014
  45.3089992  70.0809978  89.0720014  46.2579992  69.5129978  89.1800014
  45.4289992  70.8889978  89.8250014  44.2769992  68.9879978  89.5140014
  43.2459992  69.3269978  89.2770014  44.4249992  68.1129978  88.8450014
  44.1599992  68.7259978  91.0360014  43.7659992  69.5659978  91.6480014
  43.3719992  67.9499978  91.1420014  45.5579992  68.3029978  91.5950014
  46.0079992  67.4559978  91.0360014  46.1769992  69.2229978  91.5290014
  45.4309992  67.8959978  93.1100014  45.3959992  68.8619978  93.6580014
  44.5209992  67.2599978  93.1540014  46.4709992  66.8059978  93.5770014
  46.1679992  65.8389978  93.1200014  47.4819992  67.1449978  93.2670014
  46.5559992  66.5569978  95.0740014  45.5709992  66.1829978  95.4260014
  47.2319992  65.6959978  95.2590014  46.9599992  67.7299978  96.0220014
  46.3119992  68.6319978  96.0500014  47.0019992  67.3549978  97.0670014
  48.4169992  68.2079978  95.7330014  49.1209992  67.4409978  95.3440014
  48.3309992  68.7869978  94.7890014  48.8199992  69.1469978  96.8150014
  48.3189992  70.1299978  96.6820014  48.7019992  68.5979978  97.7740014
  50.3199992  69.5249978  96.5000014  50.9749992  68.6739978  96.7840014
  50.4139992  69.7399978  95.4140014  50.7419992  70.7489978  97.2250014
  51.1699992  71.7579978  96.6670014  50.6039992  70.6219978  98.6070014
  50.9089992  71.7199978  99.4600014  51.4099992  71.3429978 100.3770014
  51.5819992  72.4739978  99.0000014  49.6359992  72.4909978  99.8220014
  49.9619992  73.2799978 100.5330014  48.4999992  71.7429978 100.6450014
  49.0159992  71.2039978 101.4690014  47.9339992  72.5309978 101.1850014
  47.6699992  71.0199978  99.7160014  46.2779992  70.4929978 100.1240014
  46.4019992  70.0699978 101.6720014  45.2399992  70.3639978 102.4810014
  45.1739992  71.4689978 102.5730014  44.3039992  70.0239978 101.9880014
  45.1939992  69.6669978 103.8460014  46.0099992  70.0419978 104.4450014
  44.3769992  70.1269978 104.3830014  45.0539992  68.1329978 103.8850014
  43.7729992  67.7429978 103.0960014  43.0089992  68.0529978 103.7940014
  43.6859992  68.3879978 102.2350014  43.7729992  66.6939978 102.8390014
  46.2499992  67.4509978 103.2640014  47.1239992  67.6219978 103.8750014
  45.9709992  66.4339978 103.0320014  46.5379992  67.9879978 102.3730014
  44.8009992  67.5009978 105.1990014  45.7939992  67.5059978 105.6220014
  44.4169992  66.5039978 105.0380014  44.1359992  68.2319978 105.6360014
  45.3869992  71.6089978  99.8400014  46.0689992  69.1979978  99.3830014
  49.2179992  73.1149978  98.5900014  48.2949992  74.0469978  98.5810014
  47.6029992  74.4019978  99.5150014  48.0839992  74.3109978  97.1090014
  49.1019992  74.1219978  96.7060014  47.9419992  75.3889978  96.8830014
  46.9649992  73.4219978  96.3670014  46.0389992  73.6679978  96.9290014
  47.4149992  72.4209978  96.5360014  47.0229992  73.7379978  94.8580014
  47.9589992  74.2759978  94.5970014  46.1829992  74.3719978  94.5010014
  47.0689992  72.5439978  93.8720014  46.9029992  73.0489978  92.8970014
  46.1779992  71.8849978  93.9490014  48.3069992  71.6629978  93.7880014
  48.3349992  71.2659978  94.8250014  49.1739992  72.2939978  93.4970014
  48.0089992  70.6419978  92.7630014  47.6019992  71.2209978  91.9060014
  47.2449992  69.9729978  93.2140014  49.2589992  69.7969978  92.3610014
  48.8779992  68.8319978  91.9610014  49.8429992  69.5469978  93.2720014
  50.1439992  70.5719978  91.4500014  50.7559992  71.3429978  91.9420014
  50.1949992  70.4999978  90.1240014  50.8149992  71.2969978  89.6870014
  49.4099992  69.6369978  89.1720014  49.5819992  70.0779978  88.1670014
  48.3559992  69.5149978  89.5000014  49.9149992  68.2209978  89.1560014
  49.7439992  67.9169978  90.2110014  51.0029992  68.1969978  88.9320014
  49.1709992  67.2309978  88.2440014  48.0959992  67.4959978  88.3290014
  49.2539992  66.2509978  88.7600014  49.6399992  66.9939978  86.8820014
  48.8729992  66.3549978  86.3950014  50.5199992  66.3199978  86.9650014
  49.8589992  68.2139978  86.0070014  50.7629992  68.7149978  86.4140014
  48.9599992  68.8659978  86.0250014  50.2129992  67.7639978  84.6140014
  50.6719992  66.7639978  84.7710014  51.0069992  68.3729978  84.1300014
  49.0439992  67.4749978  83.6570014  48.1569992  67.0779978  84.1970014
  49.3699992  66.7989978  82.8370014  48.6169992  68.8419978  82.9400014
  48.4159992  69.6529978  83.6720014  47.7199992  68.6139978  82.3260014
  49.4029992  69.1439978  82.2150014 110.1359992  83.6339978  83.2260014
 109.9119992  84.5519978  82.6410014 109.9489992  82.7239978  82.6180014
 111.1899992  83.6689978  83.5770014 109.3659992  83.5879978  84.5170014
 108.3789992  84.0579978  84.3180014 109.1789992  82.5059978  84.6850014
 110.1149992  84.2309978  85.7000014 111.0439992  83.6419978  85.8540014
 110.4429992  85.2409978  85.3730014 109.2759992  84.2309978  87.0450014
 108.4259992  84.9419978  86.9780014 108.8619992  83.1999978  87.0240014
 110.1899992  84.4829978  88.3030014 111.1639992  83.9549978  88.2140014
 110.3119992  85.5869978  88.3110014 109.5679992  83.8399978  89.5760014
 108.4649992  83.9479978  89.6630014 109.6429992  82.7749978  89.2710014
 110.2609992  84.0179978  90.9250014 110.1869992  83.0789978  91.5140014
 111.3589992  84.1689978  90.8490014 109.5919992  85.1349978  91.6960014
 109.6729992  86.0829978  91.1230014 108.5459992  84.8269978  91.9110014
 110.2889992  85.2459978  93.1050014 110.0379992  84.4269978  93.8120014
 111.3979992  85.2219978  93.0470014 109.9599992  86.5459978  93.9210014
 110.8589992  86.6069978  94.5700014 110.0739992  87.4109978  93.2340014
 108.5699992  86.7369978  94.4800014 107.7899992  86.7739978  93.6900014
 108.2799992  85.8379978  95.0650014 108.5099992  88.0359978  95.3540014
 109.0379992  88.8339978  94.7890014 107.4329992  88.2499978  95.5190014
 109.2209992  87.9269978  96.7060014 110.3019992  87.7559978  96.5180014
 108.8549992  88.7639978  97.3380014 108.8469992  86.6699978  97.6130014
 109.0529992  85.7439978  97.0360014 109.4799992  86.6869978  98.5260014
 107.4189992  86.4699978  98.1650014 107.2239992  87.2389978  98.9430014
 106.7689992  86.7239978  97.3000014 107.2199992  85.1109978  98.7140014
 106.1769992  84.4619978  98.6850014 108.3549992  84.7119978  99.3150014
 108.2849992  83.3969978 100.0420014 107.3359992  83.4739978 100.6150014
 108.2589992  82.5459978  99.3290014 109.4489992  83.2079978 101.0750014
 109.2579992  82.1689978 101.4160014 109.3669992  84.0589978 102.3040014
 108.4679992  83.7459978 102.8760014 110.2359992  83.9289978 102.9840014
 109.2529992  85.3999978 101.9020014 108.3419992  86.4419978 102.7390014
 109.3059992  87.7119978 102.7540014 109.6219992  88.3499978 101.5370014
 108.7659992  88.4109978 100.8320014 109.8269992  89.4309978 101.6910014
 110.7539992  87.6919978 100.7810014 110.5049992  86.6529978 100.6240014
 111.0239992  88.2219978  99.8800014 112.1089992  87.6299978 101.5600014
 112.1519992  86.7399978 102.7500014 113.1769992  86.8539978 103.0690014
 111.4839992  87.1709978 103.4810014 111.9199992  85.7079978 102.5340014
 113.0309992  87.0939978 100.4650014 114.0009992  86.8179978 100.8500014
 112.5069992  86.2529978 100.0340014 113.0459992  87.7989978  99.6470014
 112.6099992  89.0319978 101.8810014 112.7449992  89.6219978 100.9870014
 113.6119992  88.8939978 102.2600014 112.0059992  89.4549978 102.6700014
 107.1329992  86.7669978 101.9730014 108.1029992  85.9439978 104.1650014
 110.7049992  83.4429978 100.4920014 111.0539992  82.7319978  99.3770014
 110.5439992  81.7559978  98.9900014 112.3339992  83.3059978  98.7270014
 112.7679992  82.5349978  98.0560014 113.0849992  83.4969978  99.5240014
 111.9509992  84.5739978  98.0020014 111.4329992  85.3169978  98.6450014
 111.2529992  84.3599978  97.1640014 113.2719992  85.1069978  97.3340014
 113.5349992  84.3809978  96.5350014 114.0629992  85.0089978  98.1080014
 113.1879992  86.4919978  96.7760014 113.1879992  87.3249978  97.5120014
 112.2389992  86.6939978  96.2340014 114.2489992  86.7279978  95.6970014
 114.2809992  85.8929978  94.9650014 115.2499992  86.8249978  96.1690014
 114.0419992  88.0559978  94.8620014 114.1809992  88.9069978  95.5630014
 113.0009992  87.8689978  94.5220014 114.7549992  88.2229978  93.6130014
 114.5609992  87.3239978  92.9890014 115.8429992  88.2129978  93.8400014
 114.2829992  89.3779978  92.8620014 114.9809992  90.2139978  93.0120014
 113.2589992  89.4629978  92.0510014 113.0089992  90.4369978  91.6050014
 112.3059992  88.2809978  91.6460014 111.2929992  88.3949978  92.0870014
 112.6309992  87.2739978  91.9840014 112.0599992  88.0979978  90.1240014
 111.2279992  87.3989978  89.8930014 113.0349992  87.7589978  89.7130014
 111.6409992  89.4029978  89.4390014 112.3689992  90.2379978  89.3570014
 110.8039992  89.7329978  90.0910014 111.1079992  89.1729978  87.9960014
 110.4529992  90.0659978  87.9080014 110.3409992  88.3699978  87.9410014
 112.1369992  88.9789978  86.9280014 112.5799992  87.9629978  87.0000014
 112.8759992  89.8009978  87.0310014 111.5849992  89.1109978  85.5020014
 111.2839992  90.1759978  85.4020014 110.8119992  88.3779978  85.1890014
 112.6799992  88.9449978  84.5340014 113.3289992  88.1399978  84.9410014
 113.2609992  89.8669978  84.3190014 112.1429992  88.4139978  83.2680014
 112.8049992  87.8249978  82.5970014 111.7919992  89.2119978  82.5790014
 111.3019992  87.7019978  83.4060014  93.4409992  31.0829978  84.4720014
  93.3839992  31.9969978  85.1010014  94.2059992  31.3349978  83.7070014
  93.6929992  30.1209978  84.9670014  92.0799992  30.8849978  83.7340014
  91.6449992  31.7979978  83.2740014  92.2299992  29.9949978  83.0870014
  90.9219992  30.5259978  84.7350014  90.0569992  30.1669978  84.1370014
  91.1689992  29.6029978  85.3020014  90.3979992  31.7149978  85.6230014
  91.1699992  31.8999978  86.4000014  90.3449992  32.6019978  84.9570014
  88.9299992  31.5619978  86.2080014  88.2179992  31.4329978  85.3640014
  88.7319992  30.5669978  86.6620014  88.5129992  32.6729978  87.1760014
  89.3079992  32.8569978  87.9310014  88.4099992  33.4749978  86.4140014
  87.1349992  32.4019978  87.8590014  86.3699992  32.3079978  87.0580014
  87.2819992  31.4529978  88.4190014  86.7449992  33.5949978  88.7980014
  86.5799992  34.4569978  88.1160014  85.7179992  33.4909978  89.2100014
  87.7599992  33.9849978  89.9150014  88.7209992  34.1649978  89.3880014
  87.2939992  34.9099978  90.3160014  88.2059992  32.9439978  91.0180014
  88.3959992  31.9289978  90.6080014  89.2249992  33.3139978  91.2590014
  87.3899992  32.8889978  92.3170014  87.2029992  33.8929978  92.7550014
  86.3489992  32.5819978  92.0810014  88.1739992  32.1199978  93.4700014
  88.9419992  32.7139978  94.0090014  87.3479992  31.8759978  94.1720014
  88.7199992  30.6979978  93.1000014  87.8349992  30.0839978  92.8230014
  89.3889992  30.7049978  92.2130014  89.6609992  30.0629978  94.1280014
  89.8369992  29.0419978  93.7280014  90.5499992  30.7109978  94.2850014
  89.0419992  30.1119978  95.5380014  88.7099992  31.1459978  95.7740014
  88.1379992  29.4709978  95.6120014  90.0779992  29.6519978  96.5170014
  91.0209992  28.9219978  96.2220014  89.6959992  30.0629978  97.7440014
  90.5189992  29.8039978  98.8510014  89.9339992  29.1619978  99.5440014
  91.4539992  29.3739978  98.4320014  90.8599992  31.1419978  99.5100014
  91.5289992  30.9269978 100.3700014  89.6429992  31.9009978 100.0110014
  88.8039992  31.8299978  99.2860014  89.4089992  31.2659978 100.8920014
  90.0059992  33.2789978 100.1890014  88.9589992  34.0279978 101.2000014
  89.9969992  34.6629978 102.1930014  91.1519992  35.2589978 101.7160014
  90.9349992  35.7769978 100.7570014  91.3859992  36.1369978 102.3560014
  92.4019992  34.3489978 101.5630014  92.0489992  33.5089978 100.9820014
  93.1619992  34.9449978 101.0800014  93.0149992  33.7709978 102.9010014
  92.0619992  32.8489978 103.6450014  92.5209992  32.4999978 104.5590014
  91.0939992  33.2659978 103.8830014  91.8569992  31.9829978 103.0330014
  94.2969992  33.0389978 102.7270014  94.5509992  32.5429978 103.6520014
  94.2019992  32.3459978 101.9050014  95.0059992  33.8259978 102.5180014
  93.3969992  35.0209978 103.7110014  92.6589992  35.8049978 103.6290014
  94.3399992  35.4509978 103.4080014  93.5399992  34.7989978 104.7590014
  88.1759992  35.0659978 100.5090014  88.2129992  33.1299978 102.1520014
  91.5809992  31.8979978  98.4690014  92.9239992  32.0219978  98.4980014
  93.7189992  31.5369978  99.2680014  93.3079992  32.8259978  97.3040014
  94.4139992  32.9279978  97.3270014  92.8759992  33.8489978  97.3260014
  92.8709992  32.2849978  95.9150014  93.1729992  33.0429978  95.1610014
  91.7919992  32.0229978  95.8850014  93.6359992  30.8689978  95.5900014
  93.0339992  30.1139978  96.1380014  94.6879992  30.8559978  95.9470014
  93.5879992  30.4959978  94.1040014  92.6869992  30.9039978  93.5990014
  93.5359992  29.3869978  94.0720014  94.6549992  31.1369978  93.2080014
  95.7049992  30.8579978  93.4400014  94.6179992  32.2439978  93.2890014
  94.4789992  30.8779978  91.7130014  93.3989992  31.1019978  91.5770014
  94.6379992  29.7799978  91.6640014  95.4449992  31.6749978  90.7730014
  96.4689992  31.2439978  90.7510014  95.6789992  32.6809978  91.1810014
  94.7849992  31.6259978  89.3680014  94.7989992  30.6339978  88.8930014
  94.2429992  32.7419978  88.6820014  93.9249992  32.6169978  87.6370014
  94.1999992  34.1139978  89.2370014  95.0939992  34.6889978  88.9160014
  94.0859992  34.0899978  90.3420014  92.9289992  34.9599978  88.8880014
  92.8079992  35.9489978  89.3800014  91.9819992  34.4349978  89.1380014
  92.8309992  35.4009978  87.3720014  91.8409992  35.8599978  87.1620014
  93.0559992  34.4959978  86.7690014  93.8519992  36.5269978  87.1380014
  94.8599992  36.0619978  87.0790014  93.7829992  37.1869978  88.0290014
  93.6879992  37.2819978  85.8420014  94.2569992  38.2269978  85.9780014
  92.6339992  37.6279978  85.7910014  94.0379992  36.4889978  84.6420014
  93.4939992  35.5199978  84.6480014  95.1339992  36.3549978  84.7660014
  93.7979992  37.3039978  83.2910014  94.2649992  38.2839978  83.5240014
  92.7229992  37.5179978  83.1080014  94.3949992  36.5699978  82.1980014
  94.4829992  37.2429978  81.3180014  93.7319992  35.7279978  81.9050014
  95.4079992  36.1539978  82.3840014  63.8869992  47.9729978  84.8280014
  63.7579992  48.5569978  85.7650014  64.8129992  48.3729978  84.3630014
  63.9779992  46.9169978  85.1610014  62.7299992  48.1789978  83.8930014
  62.5479992  49.2719978  83.8100014  63.0719992  47.8429978  82.8910014
  61.4249992  47.4969978  84.2250014  60.5689992  47.7389978  83.5590014
  61.5979992  46.3989978  84.2210014  60.7809992  47.8349978  85.6710014
  61.5169992  47.8689978  86.5020014  60.5659992  48.8969978  85.4280014
  59.6079992  46.9589978  86.1750014  59.1159992  47.5569978  86.9720014
  58.8169992  46.6899978  85.4430014  60.1109992  45.6229978  86.6500014
  60.5309992  45.0479978  85.7970014  61.0489992  45.9239978  87.1650014
  59.1999992  44.7449978  87.4920014  58.3569992  44.5719978  86.7890014
  59.6859992  43.7769978  87.7390014  58.7139992  45.4679978  88.7300014
  57.9199992  46.1449978  88.3480014  58.2349992  44.6799978  89.3500014
  59.6939992  46.1319978  89.6670014  60.6509992  45.5999978  89.8540014
  59.9489992  47.1569978  89.3230014  59.2439992  46.2509978  91.1570014
  59.9309992  46.9649978  91.6600014  58.1979992  46.5849978  91.3240014
  59.3639992  44.9109978  91.8990014  58.6129992  44.2519978  91.4140014
  60.3849992  44.5089978  91.7210014  59.0679992  45.0729978  93.3390014
  59.7789992  45.8499978  93.6940014  58.0449992  45.4749978  93.5050014
  59.2269992  43.7059978  94.0120014  58.5369992  43.0159978  93.4820014
  60.1879992  43.1779978  93.8340014  58.9899992  43.5619978  95.5200014
  57.9309992  43.7489978  95.7980014  59.1959992  42.5149978  95.8280014
  59.9579992  44.4959978  96.2140014  60.9019992  44.2489978  95.6840014
  59.5809992  45.4729978  95.8430014  60.0399992  44.3369978  97.6600014
  59.1639992  43.9269978  98.3390014  61.1709992  44.8889978  98.0440014
  61.3029992  45.1599978  99.4520014  61.8969992  46.0929978  99.5550014
  60.2959992  45.4189978  99.8440014  61.9329992  43.9949978 100.2800014
  61.3799992  43.0519978 100.0790014  62.0739992  44.2429978 101.7690014
  61.1199992  44.4029978 102.3140014  62.5569992  43.4079978 102.3210014
  62.8179992  45.4439978 101.9200014  63.2889992  45.9509978 103.3810014
  64.1639992  47.2169978 103.0300014  63.7039992  48.5469978 103.1880014
  63.1389992  48.6029978 104.1430014  64.6169992  49.1609978 103.3470014
  62.8059992  49.1939978 101.9630014  61.9659992  48.5249978 101.8490014
  62.4799992  50.1719978 102.2850014  63.3949992  49.3249978 100.5820014
  64.5169992  50.3349978 100.5700014  64.1369992  51.3309978 100.7380014
  65.2129992  50.2429978 101.3910014  65.0009992  50.3709978  99.6050014
  63.9599992  47.9679978 100.1330014  63.1299992  47.2859978 100.0190014
  64.3709992  48.0969978  99.1430014  64.6539992  47.6619978 100.9020014
  62.2929992  49.7169978  99.6510014  62.6439992  49.7289978  98.6290014
  61.9879992  50.6949978  99.9930014  61.4829992  49.0309978  99.8460014
  62.0739992  46.2699978 104.2030014  64.2609992  44.9719978 103.8870014
  63.3129992  43.8499978  99.8180014  63.6769992  42.6259978  99.3710014
  63.0009992  41.6689978  99.2500014  65.1349992  42.6439978  99.0160014
  65.2969992  41.8999978  98.2070014  65.8859992  42.3559978  99.7830014
  65.6289992  44.0829978  98.7020014  65.5579992  44.7229978  99.6070014
  64.9989992  44.5059978  97.8910014  67.0739992  44.2569978  98.0760014
  67.8059992  43.9009978  98.8310014  67.1869992  45.3579978  97.9700014
  67.3429992  43.5619978  96.7110014  67.0829992  42.4879978  96.8270014
  68.4279992  43.7209978  96.5320014  66.5439992  44.1579978  95.5220014
  65.4709992  44.2749978  95.7830014  66.7149992  43.4329978  94.6990014
  67.0959992  45.4889978  94.8680014  68.1799992  45.2809978  94.7450014
  66.9309992  46.2989978  95.6110014  66.4519992  46.0299978  93.5840014
  66.7709992  45.3899978  92.7340014  66.9889992  46.9969978  93.4750014
  65.0079992  46.2569978  93.5750014  64.6869992  46.4929978  94.6000014
  64.0149992  46.2549978  92.6220014  62.9689992  46.4089978  92.9260014
  64.1459992  45.9509978  91.0850014  63.6099992  46.7559978  90.5380014
  63.5249992  45.0509978  90.8880014  65.4879992  45.6119978  90.2690014
  65.5989992  44.5159978  90.4120014  66.2639992  46.2359978  90.7610014
  65.2639992  45.8489978  88.7430014  64.9409992  46.8899978  88.5300014
  64.5019992  45.1819978  88.2870014  66.5849992  45.7219978  87.9390014
  66.8799992  44.6529978  88.0070014  67.2929992  46.3269978  88.5430014
  66.4699992  46.1789978  86.4570014  67.5389992  46.3249978  86.1960014
  65.9429992  47.1559978  86.4250014  65.7789992  45.1869978  85.4750014
  64.6979992  45.2329978  85.7260014  66.0299992  44.1229978  85.6680014
  66.1349992  45.4369978  83.9230014  65.7909992  46.4689978  83.6980014
  65.5049992  44.7409978  83.3290014  67.6769992  45.3659978  83.6310014
  68.1819992  46.2579978  84.0590014  67.6949992  45.5449978  82.5340014
  68.1329992  44.3869978  83.8920014 102.2039992  54.9559978  84.9540014
 101.8969992  55.4209978  83.9930014 101.3039992  54.7429978  85.5690014
 102.7639992  54.0219978  84.7350014 103.1569992  55.9179978  85.6160014
 104.0479992  56.0319978  84.9620014 102.7009992  56.9049978  85.8480014
 103.6879992  55.4509978  86.9980014 104.4089992  54.6239978  86.8230014
 104.2059992  56.3489978  87.4000014 102.5519992  55.0439978  87.9650014
 101.8119992  55.8679978  88.0540014 102.0389992  54.1509978  87.5500014
 102.9209992  54.8169978  89.4690014 102.0579992  54.5269978  90.1070014
 103.5159992  53.8809978  89.3960014 103.7979992  55.9709978  89.9360014
 104.7439992  55.8949978  89.3580014 103.3749992  56.9679978  89.6880014
 104.1849992  56.1009978  91.4100014 103.5619992  55.4869978  92.0960014
 105.2059992  55.6689978  91.4820014 104.0539992  57.5759978  91.8480014
 104.7279992  58.1939978  91.2180014 103.0029992  57.8729978  91.6450014
 104.2939992  57.7249978  93.3250014 104.0849992  56.7239978  93.7600014
 105.3819992  57.9199978  93.4440014 103.4799992  58.8269978  94.0140014
 103.9259992  59.8179978  93.7800014 102.4449992  58.7919978  93.6130014
 103.5209992  58.6049978  95.5420014 102.8499992  57.7819978  95.8680014
 104.4829992  58.1729978  95.8920014 103.1289992  59.8359978  96.3430014
 103.4029992  59.6499978  97.4040014 103.8369992  60.6439978  96.0590014
 101.7579992  60.4809978  96.1880014 101.8019992  61.3069978  96.9300014
 101.6939992  60.9259978  95.1720014 100.4889992  59.6449978  96.4400014
  99.6099992  60.3239978  96.4610014 100.2759992  58.8879978  95.6540014
 100.6139992  59.0779978  97.8270014 101.2869992  58.1999978  97.9320014
 101.0139992  59.8889978  98.4720014  99.2779992  58.5789978  98.1680014
  98.5849992  57.9029978  97.4140014  98.8839992  59.1199978  99.3320014
  97.6419992  58.6629978  99.8700014  97.2669992  59.5599978 100.4090014
  96.8899992  58.4849978  99.0720014  97.7629992  57.3739978 100.6890014
  96.7609992  57.2739978 101.1570014  98.8929992  57.4749978 101.8000014
  98.7959992  58.4769978 102.2720014  98.6789992  56.7059978 102.5720014
 100.1869992  57.2809978 101.3200014 101.3659992  58.1249978 102.0340014
 102.3819992  57.0489978 102.5230014 102.0919992  55.9829978 103.4400014
 102.9489992  55.8589978 104.1370014 101.2979992  56.2079978 104.1840014
 101.8649992  54.6659978 102.6080014 101.6779992  53.9049978 103.3510014
 100.9779992  54.8109978 102.0100014 103.0579992  54.1099978 101.7920014
 104.2769992  53.9209978 102.7370014 105.1319992  53.5509978 102.1900014
 104.4389992  54.8369978 103.2850014 104.0239992  53.2609978 103.5540014
 102.8559992  52.7209978 101.2550014 102.3569992  52.1819978 102.0460014
 102.3099992  52.6869978 100.3240014 103.8029992  52.2779978 100.9840014
 103.4139992  54.9369978 100.5950014 104.1459992  54.4449978  99.9700014
 103.7909992  55.8939978 100.9250014 102.5429992  55.1759978 100.0030014
 102.0359992  58.9079978 100.9620014 100.8699992  58.8689978 103.2390014
  98.0699992  56.3569978  99.7490014  97.9599992  55.1099978 100.2160014
  97.3239992  54.7759978 101.1770014  98.7819992  54.1359978  99.2640014
  97.9969992  53.6739978  98.6270014  99.2579992  53.3379978  99.8730014
  99.8049992  54.9119978  98.3820014 100.4639992  55.5789978  98.9770014
  99.2299992  55.5629978  97.6890014 100.7229992  54.0349978  97.4450014
 100.0909992  53.3859978  96.8020014 101.4239992  53.4139978  98.0440014
 101.5499992  54.9999978  96.6160014 102.6139992  54.7839978  96.8530014
 101.3409992  56.0649978  96.8530014 101.1989992  54.9459978  95.0580014
 101.5929992  53.9599978  94.7290014 101.7539992  55.7599978  94.5450014
  99.7269992  55.1029978  94.5950014  99.3379992  55.9079978  95.2550014
  99.1559992  54.1529978  94.6740014  99.7859992  55.5969978  93.1280014
 100.1699992  54.7599978  92.5070014 100.5189992  56.4269978  93.0400014
  98.4209992  56.0079978  92.5180014  97.7359992  55.1549978  92.4060014
  97.9679992  57.1499978  91.9870014  97.0399992  57.1789978  91.3970014
  98.8399992  58.3599978  91.9370014  99.5739992  58.2519978  92.7640014
  98.1889992  59.1709978  92.3290014  99.4989992  58.6919978  90.5430014
  99.5899992  57.7849978  89.9070014 100.4429992  59.1269978  90.9340014
  98.6459992  59.6289978  89.6650014  98.1769992  60.4429978  90.2580014
  97.7049992  59.1469978  89.3260014  99.3989992  60.0869978  88.4270014
 100.3289992  60.5989978  88.7560014  98.7209992  60.7419978  87.8400014
  99.9729992  59.1799978  87.2740014 100.6739992  58.5019978  87.8050014
 100.5179992  59.7339978  86.4800014  98.9859992  58.3409978  86.5150014
  98.3289992  59.0619978  85.9850014  98.2859992  57.8169978  87.2010014
  99.5699992  57.4879978  85.3710014  99.4599992  56.4129978  85.6270014
 100.6479992  57.7509978  85.3010014  99.0859992  57.8099978  83.9420014
  99.7769992  57.3709978  83.1910014  98.9169992  58.8829978  83.7100014
  98.1169992  57.2939978  83.7670014  71.4919992  36.5249978  84.1570014
  71.3829992  37.4449978  83.5430014  70.5389992  36.4319978  84.7200014
  71.5909992  35.6399978  83.4930014  72.7419992  36.7399978  85.0990014
  73.6749992  36.3809978  84.6150014  72.9449992  37.7949978  85.3810014
  72.5399992  35.9629978  86.3510014  71.6499992  36.3949978  86.8550014
  72.4389992  34.8709978  86.1740014  73.7839992  36.2559978  87.1800014
  74.6459992  36.1979978  86.4810014  73.6859992  37.1969978  87.7610014
  73.7609992  35.1839978  88.3250014  72.7509992  35.1739978  88.7870014
  73.9389992  34.1919978  87.8570014  74.8699992  35.5039978  89.2820014
  74.6399992  36.4329978  89.8460014  74.8949992  34.7629978  90.1090014
  76.2799992  35.7149978  88.6770014  76.5059992  34.9859978  87.8690014
  76.4189992  36.6869978  88.1560014  77.3639992  35.6619978  89.7760014
  77.2369992  34.6219978  90.1470014  78.2709992  35.5239978  89.1490014
  77.2479992  36.8039978  90.7850014  76.4289992  36.5679978  91.4980014
  78.1709992  36.8389978  91.4030014  77.0829992  38.2329978  90.1970014
  77.7269992  38.3539978  89.3000014  76.0389992  38.4479978  89.8820014
  77.6309992  39.3379978  91.1110014  78.6139992  38.9519978  91.4570014
  77.7499992  40.2019978  90.4230014  76.7139992  39.6579978  92.3710014
  75.7269992  39.9659978  91.9640014  76.6679992  38.6339978  92.8000014
  77.3279992  40.8159978  93.2360014  78.3589992  40.5949978  93.5870014
  77.4179992  41.7019978  92.5720014  76.4169992  41.0249978  94.3940014
  75.5249992  41.5959978  94.0570014  76.1209992  40.0749978  94.8870014
  77.1159992  41.8949978  95.4600014  77.8349992  41.2849978  96.0490014
  77.8119992  42.6969978  95.1340014  75.9809992  42.5189978  96.2760014
  75.5479992  43.6269978  95.9340014  75.4679992  41.7869978  97.2010014
  74.2829992  42.2949978  97.8060014  74.3769992  43.2749978  98.3220014
  73.5599992  42.4709978  96.9810014  73.7109992  41.2209978  98.7830014
  72.8389992  41.5849978  99.3670014  74.7179992  40.6649978  99.8230014
  75.6869992  40.5269978  99.2980014  74.8029992  41.3389978 100.7010014
  74.1469992  39.5119978 100.4050014  75.0759992  38.1289978 100.5680014
  74.0039992  37.2019978 101.3020014  73.2779992  37.8869978 102.4230014
  73.7209992  38.8279978 102.8160014  72.3239992  38.1959978 101.9450014
  72.9939992  36.8919978 103.6120014  73.8999992  36.4399978 103.9890014
  72.6659992  37.5089978 104.4360014  71.9879992  35.7309978 103.3990014
  72.5659992  34.7149978 102.4750014  71.9949992  33.8009978 102.4080014
  72.6299992  35.0669978 101.4560014  73.5759992  34.5039978 102.7950014
  71.7949992  35.1049978 104.7400014  71.1599992  34.2379978 104.6310014
  72.6889992  34.7199978 105.2080014  71.2259992  35.8079978 105.3300014
  70.6399992  36.2259978 102.8410014  69.8659992  35.5229978 102.5680014
  70.7669992  36.8729978 101.9860014  70.2729992  36.8369978 103.6530014
  75.4209992  37.6169978  99.1560014  76.1269992  38.3799978 101.5840014
  73.3549992  40.0679978  97.9550014  72.0919992  40.0779978  97.4670014
  71.3339992  41.0069978  97.4940014  71.8019992  38.8309978  96.7000014
  70.6919992  38.8209978  96.6380014  72.1459992  37.8769978  97.1530014
  72.3469992  39.1149978  95.2410014  73.4469992  39.0499978  95.3820014
  72.0429992  40.1519978  94.9830014  72.0519992  38.0069978  94.1110014
  70.9539992  38.0339978  93.9470014  72.3129992  36.9819978  94.4520014
  72.7159992  38.2609978  92.8520014  73.8089992  38.1489978  93.0180014
  72.4529992  39.2379978  92.3940014  72.4099992  37.3389978  91.6430014
  72.7109992  36.2769978  91.7670014  73.0589992  37.6809978  90.8090014
  70.9809992  37.5109978  91.1430014  70.8609992  38.6149978  91.1840014
  70.2079992  37.0169978  91.7690014  70.7439992  37.0319978  89.6930014
  70.5529992  35.9379978  89.7450014  71.7629992  37.0799978  89.2530014
  69.6929992  37.6139978  88.7830014  68.7089992  37.1239978  88.7330014
  69.9289992  38.6849978  87.9840014  69.0719992  38.9879978  87.3630014
  71.1379992  39.4979978  87.7500014  71.0399992  40.1559978  86.8610014
  71.8869992  38.7159978  87.5020014  71.5279992  40.4609978  88.8860014
  71.3289992  40.0339978  89.8920014  70.9529992  41.3949978  88.7090014
  73.0729992  40.7739978  88.9930014  73.5539992  39.8279978  89.3220014
  73.1839992  41.5679978  89.7610014  73.6819992  41.1859978  87.6890014
  73.0819992  42.0199978  87.2650014  73.5019992  40.3959978  86.9290014
  75.1869992  41.4659978  87.8060014  75.6149992  40.7359978  88.5260014
  75.2429992  42.3869978  88.4250014  75.9859992  41.6089978  86.5050014
  76.0949992  40.6289978  85.9920014  77.0689992  41.8259978  86.6190014
  75.5299992  42.7369978  85.4890014  75.8239992  43.6649978  86.0240014
  74.4329992  42.6649978  85.3320014  76.3589992  42.6759978  84.2530014
  76.3399992  43.6359978  83.6940014  76.0139992  41.8739978  83.5660014
  77.4139992  42.4569978  84.5270014  59.4809992  57.8069978  82.5880014
  60.3129992  58.2959978  82.0390014  59.3579992  58.3579978  83.5450014
  58.5139992  57.7199978  82.0470014  59.8919992  56.3329978  82.9040014
  60.7849992  56.1089978  82.2820014  60.2409992  56.1979978  83.9500014
  58.8379992  55.3299978  82.4170014  58.7459992  55.6209978  81.3490014
  59.2469992  54.2969978  82.4050014  57.3559992  55.2699978  83.0800014
  56.7259992  56.1119978  82.7200014  56.8459992  54.3289978  82.7810014
  57.3129992  55.1879978  84.6450014  57.6829992  54.1749978  84.9110014
  58.0549992  55.8839978  85.0910014  55.9539992  55.6159978  85.2170014
  55.8159992  56.7179978  85.1810014  55.2999992  55.1139978  84.4730014
  55.4719992  55.1549978  86.5600014  55.1549992  54.0979978  86.4240014
  56.2799992  55.1439978  87.3230014  54.1269992  55.7949978  87.0410014
  54.2699992  56.8849978  86.8810014  53.3579992  55.3539978  86.3710014
  53.7209992  55.5339978  88.4930014  52.6259992  55.7089978  88.5480014
  53.9949992  54.4939978  88.7730014  54.4539992  56.3799978  89.5330014
  54.9979992  55.6209978  90.1350014  55.1529992  57.1589978  89.1580014
  53.4909992  56.9799978  90.6400014  53.1839992  57.9479978  90.1900014
  52.5259992  56.4319978  90.5860014  54.2619992  57.1379978  92.0150014
  54.4709992  56.0879978  92.3110014  55.2519992  57.5469978  91.7190014
  53.7549992  58.0989978  93.0950014  53.6499992  59.1309978  92.6960014
  52.7229992  57.7789978  93.3530014  54.4339992  58.0569978  94.4440014
  55.3749992  58.6229978  94.2770014  53.8249992  58.7819978  95.0240014
  54.5169992  56.6849978  95.1060014  53.5199992  56.2319978  94.9190014
  55.3729992  56.0559978  94.7810014  54.6179992  56.8039978  96.6200014
  53.8289992  56.6409978  97.5150014  55.9359992  57.1769978  96.8720014
  56.3209992  57.0819978  98.2340014  56.9559992  57.9609978  98.4790014
  55.4599992  56.9949978  98.9310014  57.1589992  55.8019978  98.3150014
  56.6279992  54.9939978  97.7660014  57.3359992  55.2829978  99.6990014
  56.3259992  54.9359978 100.0080014  57.9269992  54.3429978  99.7450014
  57.7899992  56.3019978 100.5650014  57.7279992  56.1139978 102.1360014
  56.3899992  56.9539978 102.2570014  56.3749992  58.3959978 102.3470014
  56.3459992  58.7029978 103.4140014  57.3239992  58.8139978 101.9490014
  55.1789992  59.0299978 101.5850014  55.1949992  60.1069978 101.6540014
  55.3289992  58.8939978 100.5240014  53.7689992  58.6389978 101.9610014
  53.6669992  58.5459978 103.4350014  53.9879992  59.5259978 103.7560014
  52.6529992  58.4809978 103.8000014  54.3089992  57.7469978 103.7770014
  52.9239992  59.7549978 101.4640014  52.6979992  59.7429978 100.4080014
  51.9139992  59.6249978 101.8240014  53.3529992  60.7199978 101.6910014
  53.4569992  57.2699978 101.4580014  53.4719992  57.1139978 100.3900014
  52.4069992  57.1109978 101.6550014  54.2039992  56.6239978 101.8940014
  57.4709992  54.7299978 102.4560014  58.8369992  56.7819978 102.8410014
  58.4579992  56.1369978  97.6650014  59.0709992  55.0989978  97.0840014
  58.7219992  53.9539978  97.1620014  60.3489992  55.6199978  96.4710014
  61.2139992  55.0549978  96.8800014  60.5349992  56.6609978  96.8130014
  60.2469992  55.4559978  94.9340014  59.8479992  54.4619978  94.6390014
  61.2339992  55.5259978  94.4280014  59.5019992  56.5679978  94.2180014
  60.0459992  57.5279978  94.3490014  58.5259992  56.7159978  94.7290014
  59.3169992  56.2519978  92.7020014  58.7659992  55.2909978  92.6170014
  60.2679992  56.2369978  92.1260014  58.5779992  57.2729978  91.9080014
  58.6439992  58.3219978  92.2670014  57.4859992  57.1059978  92.0250014
  59.0049992  57.2179978  90.4310014  59.0489992  56.1619978  90.0910014
  60.0719992  57.5249978  90.3940014  58.2209992  58.0499978  89.4520014
  57.1719992  57.7079978  89.5820014  58.3529992  57.5919978  88.4480014
  58.0429992  59.5749978  89.5000014  57.9939992  59.9669978  90.5270014
  57.6109992  60.3329978  88.4870014  57.5789992  61.4099978  88.7100014
  57.1919992  60.0659978  87.0860014  57.3569992  59.0159978  86.7610014
  57.8629992  60.7509978  86.5250014  55.7329992  60.4469978  86.8610014
  55.5619992  61.5269978  87.0560014  55.0219992  59.8429978  87.4660014
  55.3729992  60.1179978  85.3710014  54.2999992  60.3969978  85.3080014
  55.4029992  59.0119978  85.2710014  56.2439992  60.7269978  84.3590014
  57.2459992  60.2569978  84.4500014  56.3229992  61.8309978  84.4450014
  55.6449992  60.4569978  82.8980014  56.2139992  61.0749978  82.1700014
  54.6639992  60.9769978  82.9120014  55.7849992  59.0709978  82.3600014
  55.0579992  58.3969978  82.8620014  56.8449992  58.7539978  82.4570014
  55.6639992  59.0559978  80.8220014  56.4099992  59.7779978  80.4270014
  54.5939992  59.3269978  80.6900014  55.8699992  57.6989978  80.1210014
  56.9499992  57.5369978  80.3250014  55.7069992  57.7069978  79.0220014
  55.2099992  56.9819978  80.6560014 106.2529992  72.4299978  82.0500014
 107.0619992  73.1449978  82.3140014 106.1749992  72.1569978  80.9760014
 106.3959992  71.4419978  82.5370014 104.7999992  72.9119978  82.4330014
 104.6269992  73.7749978  81.7560014 104.0889992  72.0829978  82.2300014
 104.6869992  73.5529978  83.8500014 105.5329992  74.2309978  84.0920014
 103.7599992  74.1649978  83.8290014 104.5049992  72.5169978  84.9140014
 103.5499992  71.9759978  84.7390014 105.4209992  71.8949978  85.0000014
 104.3149992  73.0449978  86.3130014 105.2429992  73.5619978  86.6390014
 103.4739992  73.7649978  86.4000014 104.2359992  71.9159978  87.3540014
 103.3449992  71.3579978  86.9970014 105.0239992  71.1609978  87.1460014
 104.1159992  72.3569978  88.7820014 103.1709992  72.9309978  88.8910014
 103.9379992  71.3859978  89.2910014 105.2369992  73.1829978  89.3570014
 105.4279992  73.9759978  88.6030014 105.0709992  73.8039978  90.2630014
 106.4799992  72.3249978  89.4180014 106.0639992  71.5619978  90.1100014
 106.6479992  71.8499978  88.4270014 107.7399992  72.9509978  89.8810014
 107.9159992  73.9419978  89.4100014 107.7199992  73.1029978  90.9820014
 108.9699992  72.1229978  89.4990014 108.6269992  71.1199978  89.1660014
 109.3289992  72.6759978  88.6050014 110.0029992  71.8829978  90.5480014
 110.8589992  71.3639978  90.0650014 110.2159992  72.9569978  90.7380014
 109.4929992  71.0249978  91.7300014 108.3939992  70.8659978  91.7050014
 109.9709992  70.0309978  91.5930014 109.9969992  71.6319978  93.0790014
 111.0969992  71.7859978  93.0350014 109.5309992  72.6289978  93.2310014
 109.6739992  70.8739978  94.3690014 108.6129992  70.5559978  94.4450014
 110.0489992  69.8329978  94.2670014 110.2929992  71.4199978  95.6380014
 111.1069992  72.3469978  95.7310014 109.7329992  70.7689978  96.6460014
 109.8419992  71.5339978  97.8680014 109.7859992  70.7289978  98.6310014
 110.8419992  71.9949978  98.0170014 108.6519992  72.4639978  98.0140014
 108.6489992  73.1939978  97.1760014 108.7359992  73.3229978  99.3760014
 109.6709992  73.8959978  99.5490014 107.9439992  74.0949978  99.2720014
 108.4859992  72.4219978 100.4580014 107.9699992  72.8869978 101.8780014
 106.4089992  72.7329978 101.7040014 105.4849992  72.4709978 102.8630014
 105.6639992  73.0739978 103.7790014 104.4589992  72.7229978 102.5190014
 105.4099992  70.9519978 103.1890014 106.3199992  70.5879978 103.6420014
 104.6439992  70.8029978 103.9350014 105.0629992  69.8559978 102.0940014
 106.2139992  69.8139978 101.1330014 106.3249992  70.6859978 100.5060014
 107.1689992  69.6219978 101.6000014 106.0699992  68.9549978 100.4940014
 104.9649992  68.5359978 102.8040014 104.0689992  68.5479978 103.4060014
 104.9829992  67.7549978 102.0580014 105.7249992  68.3989978 103.5600014
 103.7569992  70.1749978 101.3400014 103.0449992  70.3899978 102.1230014
 103.4979992  69.3209978 100.7320014 103.8699992  71.0919978 100.7820014
 108.4799992  71.9689978 102.9690014 108.1839992  74.2769978 102.0720014
 107.4609992  71.7019978  97.8150014 106.4019992  72.4299978  97.5870014
 106.3229992  73.6009978  97.4300014 105.2129992  71.4969978  97.4430014
 104.2349992  71.9909978  97.6270014 105.2559992  70.6449978  98.1540014
 105.2359992  70.9929978  95.9620014 106.1959992  70.4429978  95.8560014
 105.1819992  71.8429978  95.2480014 104.0799992  70.0149978  95.8070014
 103.2199992  70.6969978  95.9820014 104.1469992  69.2359978  96.5960014
 103.9419992  69.4399978  94.4090014 104.0569992  70.2739978  93.6840014
 102.9119992  69.0759978  94.2080014 104.8449992  68.3149978  94.0290014
 104.6489992  67.3859978  94.6060014 105.9259992  68.5549978  94.1080014
 104.6729992  67.9159978  92.5570014 103.5959992  67.8189978  92.2980014
 105.1149992  66.9159978  92.3610014 105.2819992  68.8639978  91.5280014
 105.0259992  69.8909978  91.8660014 104.8739992  68.8659978  90.4950014
 106.7829992  68.6239978  91.4840014 107.3249992  69.1129978  92.3070014
 107.4099992  67.8719978  90.5980014 108.4899992  67.6839978  90.6850014
 106.8069992  67.1239978  89.5000014 105.7519992  66.8259978  89.6790014
 107.3309992  66.1539978  89.3620014 106.9559992  67.8709978  88.1650014
 106.3269992  68.7779978  88.0410014 106.7039992  67.1429978  87.3650014
 108.4359992  68.3979978  87.8040014 108.9899992  67.4519978  87.6240014
 108.8279992  68.9279978  88.6980014 108.4749992  69.2799978  86.5420014
 107.5769992  69.9299978  86.6210014 108.3169992  68.6109978  85.6690014
 109.8529992  69.9149978  86.5210014 110.6749992  69.1669978  86.5270014
 110.0499992  70.6519978  87.3280014 110.0919992  70.5159978  85.0830014
 109.2429992  71.1969978  84.8640014 110.0139992  69.6829978  84.3520014
 111.4999992  71.1629978  85.0100014 111.9559992  71.2699978  84.0030014
 112.2379992  70.5569978  85.5780014 111.5339992  72.5299978  85.7300014
 110.7019992  73.1309978  85.3040014 112.4479992  73.1259978  85.5240014
 111.3929992  72.4849978  86.8310014  97.8429992  41.5269978  82.5660014
  97.2849992  42.0959978  81.7910014  98.2439992  40.5459978  82.2330014
  98.7339992  42.1159978  82.8710014  96.8949992  41.3819978  83.8060014
  96.3709992  42.3309978  84.0480014  96.0759992  40.6549978  83.6150014
  97.6169992  41.0429978  85.1290014  96.7999992  41.2549978  85.8510014
  97.8489992  39.9569978  85.1130014  98.9419992  41.6929978  85.5080014
  99.6909992  41.0029978  85.0620014  99.0379992  42.7139978  85.0810014
  99.3249992  41.6539978  86.9290014 100.2659992  42.2439978  86.8930014
  98.6289992  42.2479978  87.5580014  99.4759992  40.2269978  87.3780014
  98.4389992  39.8989978  87.6040014  99.9599992  39.5749978  86.6190014
 100.2419992  40.1009978  88.6830014 101.2969992  40.3149978  88.4080014
  99.9919992  40.8259978  89.4870014 100.2359992  38.7359978  89.3460014
  99.4419992  38.1489978  88.8380014 101.1339992  38.0969978  89.2080014
  99.7189992  38.5859978  90.8220014 100.4779992  39.0919978  91.4570014
  98.7139992  39.0559978  90.8760014  99.3599992  37.2319978  91.3270014
  98.8909992  36.6379978  90.5140014 100.3429992  36.7529978  91.5270014
  98.4589992  37.1729978  92.5570014  98.7739992  36.3319978  93.2110014
  98.6479992  38.0749978  93.1780014  97.0049992  37.0959978  92.1720014
  96.7979992  37.7759978  91.3180014  96.8119992  36.0659978  91.8030014
  95.9909992  37.2519978  93.3430014  94.9709992  36.9649978  93.0100014
  96.3449992  36.5349978  94.1140014  95.9349992  38.7319978  93.8540014
  96.8969992  38.8749978  94.3920014  95.8979992  39.4499978  93.0070014
  94.6449992  39.0299978  94.6970014  94.5709992  40.1269978  94.8530014
  93.8099992  38.6409978  94.0750014  94.7129992  38.2939978  96.1440014
  93.9009992  38.4489978  97.0520014  95.8729992  37.7019978  96.2630014
  96.1609992  37.0579978  97.5230014  95.4549992  37.2249978  98.3640014
  96.3279992  35.9649978  97.4120014  97.4789992  37.6479978  98.0180014
  97.7799992  37.0519978  98.9070014  97.2649992  39.0769978  98.5350014
  96.8029992  39.6709978  97.7180014  96.3899992  38.9959978  99.2150014
  98.4189992  39.7589978  99.1080014  98.1569992  40.8789978 100.1450014
  98.3019992  40.2029978 101.5910014  98.6339992  40.9879978 102.6730014
  99.2089992  40.2599978 103.2850014  99.2999992  41.8299978 102.3900014
  97.4289992  41.4649978 103.5020014  97.8179992  41.7429978 104.4710014
  96.9099992  42.3239978 103.1040014  96.2339992  40.4609978 103.8250014
  95.5109992  40.9319978 105.0530014  96.1489992  40.8759978 105.9220014
  95.0869992  41.9129978 104.8970014  94.7229992  40.1979978 105.1410014
  95.3149992  40.4609978 102.6790014  94.7919992  41.4009978 102.7690014
  95.8629992  40.4719978 101.7490014  94.5899992  39.6599978 102.6940014
  96.8449992  39.1319978 104.0530014  97.3799992  38.9289978 103.1370014
  96.1269992  38.3539978 104.2690014  97.5299992  39.2479978 104.8800014
  99.0509992  42.0709978  99.8880014  96.7049992  41.1569978  99.9880014
  98.4449992  37.5799978  96.8710014  99.7419992  37.7049978  97.1840014
 100.2349992  37.9769978  98.2270014 100.5559992  37.3139978  95.9230014
 100.0099992  36.9409978  95.0300014 101.2879992  36.5179978  96.1790014
 101.2919992  38.6499978  95.6410014 102.2019992  38.4599978  95.0310014
 101.6169992  39.1529978  96.5770014 100.4809992  39.7219978  94.9690014
  99.8459992  39.2449978  94.1920014 101.1779992  40.3029978  94.3270014
  99.8519992  40.7199978  95.9080014 100.5499992  41.0359978  96.7120014
  98.9649992  40.2529978  96.3870014  99.3319992  41.9589978  95.1490014
 100.1719992  42.1069978  94.4370014  99.2249992  42.8989978  95.7310014
  97.9989992  41.7749978  94.4630014  97.1729992  41.6329978  95.1930014
  98.0639992  40.8749978  93.8150014  97.7479992  42.9639978  93.4700014
  98.0599992  43.8729978  94.0290014  96.6569992  43.0109978  93.2670014
  98.5499992  42.9449978  92.2130014  99.6169992  43.1569978  92.3740014
  98.1489992  42.6729978  90.9790014  98.9469992  42.5169978  90.2380014
  96.7639992  42.3469978  90.5190014  96.4689992  43.2489978  89.9430014
  96.0589992  42.2649978  91.3730014  96.4439992  41.0879978  89.7090014
  96.6489992  40.2539978  90.4140014  97.1939992  41.1199978  88.8910014
  94.9899992  40.9859978  89.2380014  94.7049992  41.9709978  88.8100014
  94.2619992  40.8399978  90.0650014  94.9309992  39.8209978  88.2920014
  95.4059992  38.8689978  88.6150014  95.5269992  39.9839978  87.3690014
  93.4739992  39.5129978  88.0160014  92.9179992  40.3899978  87.6200014
  92.9749992  39.1519978  88.9410014  93.3469992  38.2709978  86.9890014
  92.2999992  37.8999978  86.9880014  94.0109992  37.4819978  87.4020014
  93.6859992  38.6379978  85.5360014  94.6869992  39.0999978  85.6690014
  92.9979992  39.3979978  85.1080014  93.8389992  37.5499978  84.4360014
  94.3769992  37.8639978  83.5160014  92.8189992  37.2719978  84.0950014
  94.4249992  36.7289978  84.9010014  58.2919992  97.1699978  85.4410014
  58.3219992  98.2799978  85.4960014  59.2719992  96.9219978  84.9800014
  58.1979992  96.6109978  86.3960014  57.1279992  96.7789978  84.5120014
  57.3609992  97.2559978  83.5360014  57.0899992  95.6729978  84.4170014
  55.7629992  97.1329978  84.9180014  55.1039992  96.4269978  84.3700014
  55.6739992  96.8589978  85.9910014  55.2379992  98.5369978  84.5370014
  55.3729992  98.9349978  83.5090014  54.1439992  98.4129978  84.6870014
  55.6849992  99.7109978  85.5020014  56.7849992  99.8329978  85.4070014
  55.1729992 100.6479978  85.1940014  55.3659992  99.6599978  86.9880014
  55.6269992  98.6829978  87.4480014  55.9569992 100.4439978  87.5080014
  53.9499992  99.9649978  87.2400014  53.6729992 100.9919978  86.9200014
  53.2679992  99.2909978  86.6790014  53.5059992  99.6699978  88.7490014
  52.4089992  99.8369978  88.8120014  53.8769992  98.6819978  89.0970014
  54.1499992 100.6389978  89.7820014  55.2549992 100.5539978  89.7030014
  53.9389992 101.6639978  89.4100014  53.6729992 100.3709978  91.2450014
  53.8389992 101.3529978  91.7390014  52.5819992 100.1709978  91.2990014
  54.2849992  99.0609978  91.8080014  53.5199992  98.2869978  91.5830014
  55.2169992  98.7029978  91.3210014  54.6189992  99.0449978  93.2430014
  55.5769992  99.5279978  93.5310014  53.8909992  99.6279978  93.8460014
  54.5649992  97.6599978  93.8450014  53.5689992  97.1749978  93.7670014
  55.2619992  97.1459978  93.1490014  54.9899992  97.7229978  95.2840014
  56.0089992  98.1639978  95.2690014  54.2479992  98.2939978  95.8820014
  55.1919992  96.4009978  96.0220014  54.2969992  95.7779978  95.8110014
  56.0529992  95.8499978  95.5890014  55.3529992  96.6479978  97.5270014
  54.7669992  96.0369978  98.3690014  56.3659992  97.4019978  97.8100014
  56.7859992  97.4179978  99.2160014  56.0329992  97.8739978  99.8930014
  57.1409992  96.4499978  99.6290014  58.0489992  98.3589978  99.2930014
  58.9219992  98.0489978  98.6800014  58.5499992  98.6099978 100.7750014
  58.6939992  97.6479978 101.3120014  59.5379992  99.1099978 100.6850014
  57.6659992  99.5279978 101.3890014  58.1719992 100.2259978 102.7320014
  57.1259992 101.4059978 102.8800014  56.7579992 102.3849978 101.9710014
  56.3579992 103.2649978 102.5180014  57.6659992 102.8029978 101.4850014
  55.8019992 101.7689978 100.9280014  55.6279992 102.4469978 100.1050014
  56.1319992 100.7689978 100.6870014  54.3599992 101.4979978 101.4120014
  54.2649992 100.4259978 102.4870014  54.6009992 100.7169978 103.4710014
  53.2009992 100.2689978 102.5820014  54.7799992  99.5389978 102.1470014
  53.7069992 102.7499978 101.9880014  52.6509992 102.5389978 102.0700014
  54.1269992 103.0499978 102.9360014  53.8679992 103.6069978 101.3500014
  53.6199992 101.0289978 100.2090014  53.9419992 101.7209978  99.4450014
  52.5569992 101.0319978 100.4000014  53.8639992 100.0269978  99.8860014
  57.9639992  99.2949978 103.8540014  59.5219992 100.8099978 102.6580014
  57.6659992  99.6399978  98.7160014  58.5579992 100.4719978  98.2460014
  59.7719992 100.2649978  98.3120014  57.6849992 101.5689978  97.6490014
  57.2769992 102.2299978  98.4440014  56.8209992 101.1839978  97.0680014
  58.4649992 102.2879978  96.6100014  59.4139992 102.6159978  97.0840014
  57.8649992 103.1419978  96.2300014  58.9019992 101.3279978  95.4670014
  57.9239992 100.8839978  95.1810014  59.6279992 100.6469978  95.9610014
  59.5229992 101.9699978  94.2000014  60.2699992 102.7219978  94.5320014
  58.7229992 102.5839978  93.7340014  60.0369992 100.7889978  93.2790014
  59.2329992 100.1729978  92.8230014  60.5709992 100.0929978  93.9600014
  61.0919992 101.1719978  92.2210014  61.5519992 100.1989978  91.9430014
  61.9369992 101.6829978  92.7280014  60.6159992 101.8869978  90.8940014
  59.6609992 101.4419978  90.5400014  61.3849992 101.7289978  90.1070014
  60.3919992 103.3559978  91.1260014  61.2979992 103.8939978  91.4400014
  59.1779992 103.9629978  91.0350014  59.1449992 105.0399978  91.2560014
  57.8559992 103.4089978  90.6610014  57.0449992 103.7349978  91.3470014
  57.7989992 102.2999978  90.6100014  57.4569992 103.8449978  89.2760014
  57.5409992 104.9529978  89.2680014  56.3559992 103.6979978  89.2600014
  58.2019992 103.1019978  88.1740014  58.1789992 101.9979978  88.2970014
  59.2599992 103.4309978  88.2490014  57.8829992 103.4939978  86.7300014
  58.0779992 104.5789978  86.5860014  56.8009992 103.2889978  86.5900014
  58.4719992 102.5789978  85.6050014  58.4949992 101.5099978  85.9080014
  59.5339992 102.8959978  85.6750014  57.9389992 102.8139978  84.2310014
  58.1719992 103.8439978  83.8870014  56.8319992 102.7139978  84.2360014
  58.5079992 101.8579978  83.2140014  58.2359992 102.2209978  82.2000014
  57.8979992 100.9309978  83.2870014  59.9659992 101.2959978  83.3020014
  60.4279992 100.9539978  82.3510014  60.0889992 100.5189978  84.0870014
  60.6579992 102.0699978  83.6990014  72.0299992 106.7389978  84.3240014
  72.3899992 107.7489978  84.0340014  70.9729992 106.6789978  83.9860014
  72.6049992 105.9529978  83.7900014  72.1219992 106.5909978  85.8100014
  73.1669992 106.6589978  86.1810014  71.6329992 107.4319978  86.3470014
  71.4969992 105.2039978  86.2950014  70.4409992 105.3149978  85.9680014
  71.8119992 104.2599978  85.8010014  71.4359992 104.9189978  87.7270014
  72.4829992 104.8319978  88.0900014  71.1049992 105.8309978  88.2680014
  70.6099992 103.7049978  88.1810014  69.6209992 103.8139978  87.6860014
  71.0189992 102.7479978  87.7900014  70.4979992 103.6919978  89.7180014
  70.2099992 104.6619978  90.1760014  69.7259992 102.9229978  89.9370014
  71.7499992 103.0879978  90.5040014  71.7989992 102.0149978  90.2210014
  72.6189992 103.6969978  90.1750014  71.5149992 103.4499978  91.9570014
  72.4129992 103.3499978  92.6030014  71.2389992 104.5249978  91.9970014
  70.4439992 102.6559978  92.6970014  69.6059992 102.3249978  92.0470014
  70.8509992 101.7069978  93.1070014  69.8549992 103.3109978  93.9610014
  69.5479992 104.3729978  93.8490014  68.9759992 102.6889978  94.2350014
  70.8279992 103.2509978  95.1330014  71.6679992 103.9149978  94.8370014
  70.3679992 103.7369978  96.0200014  71.2359992 101.9289978  95.6960014
  70.3679992 101.2579978  95.8690014  71.9249992 101.3339978  95.0590014
  72.0729992 102.0389978  97.0770014  71.6329992 102.6229978  97.9130014
  72.1989992 101.0129978  97.4830014  73.3509992 102.8289978  96.9760014
  73.9249992 102.5469978  96.0680014  73.0659992 103.8969978  96.8640014
  74.3779992 102.7139978  98.0860014  73.8359992 102.8589978  99.0450014
  74.7589992 101.6739978  97.9980014  75.4479992 103.7949978  97.9730014
  76.3529992 103.8629978  97.1600014  75.1449992 104.7489978  98.7960014
  76.2219992 105.6599978  98.9840014  77.0309992 105.1559978  99.5560014
  76.6519992 106.1599978  98.0900014  75.6509992 106.8179978  99.9020014
  76.4259992 107.6139978  99.9050014  75.4099992 106.3909978 101.3890014
  76.1929992 105.6819978 101.7340014  75.5499992 107.1819978 102.1570014
  74.1099992 105.8869978 101.6400014  73.8019992 104.6469978 102.5510014
  72.2419992 104.6979978 102.6760014  71.5369992 105.9709978 102.7860014
  71.2169992 106.1089978 103.8410014  72.2189992 106.8469978 102.7720014
  70.4129992 106.1719978 101.7610014  69.8229992 107.0229978 102.0680014
  70.9729992 106.4049978 100.8680014  69.5369992 105.0939978 101.4130014
  70.3059992 103.9949978 100.6830014  71.0579992 103.4579978 101.2420014
  69.6449992 103.1949978 100.3850014  70.6389992 104.5079978  99.7930014
  69.0119992 104.4949978 102.6900014  69.8209992 103.9849978 103.1940014
  68.6439992 105.2989978 103.3090014  68.2909992 103.7289978 102.4430014
  68.4179992 105.5379978 100.5030014  68.8249992 105.8439978  99.5500014
  67.8009992 106.3039978 100.9490014  67.7269992 104.7719978 100.1850014
  74.2619992 103.3429978 101.9790014  74.4249992 104.8829978 103.8230014
  74.4079992 107.2739978  99.3360014  73.9259992 108.3229978  99.9150014
  74.3609992 108.9849978 100.8430014  72.6139992 108.7959978  99.3040014
  72.4729992 109.8789978  99.5050014  71.7059992 108.3799978  99.7890014
  72.4649992 108.5599978  97.7770014  73.5099992 108.6699978  97.4170014
  71.7929992 109.3849978  97.4590014  71.8739992 107.2289978  97.4550014
  70.7789992 107.2059978  97.6390014  72.3439992 106.4339978  98.0740014
  72.0859992 106.8839978  95.9730014  71.5529992 107.6739978  95.4010014
  71.6969992 105.8669978  95.7510014  73.5709992 106.6019978  95.6920014
  73.9939992 106.0509978  96.5590014  74.0949992 107.5749978  95.5820014
  73.9259992 105.7999978  94.4180014  73.8939992 104.7159978  94.6610014
  75.0149992 105.9739978  94.2890014  73.0619992 106.1949978  93.1300014
  71.9779992 106.1459978  93.3670014  73.4359992 105.4049978  92.4450014
  73.3839992 107.5719978  92.6620014  73.2329992 108.3779978  93.3960014
  73.8239992 107.8899978  91.4290014  74.0059992 108.9109978  91.0620014
  74.1239992 107.0179978  90.2290014  73.2149992 107.1049978  89.5950014
  74.2699992 105.9849978  90.6110014  75.2759992 107.4299978  89.2970014
  76.2429992 107.5209978  89.8370014  75.1069992 108.4609978  88.9180014
  75.4509992 106.5729978  88.0700014  75.8329992 107.1739978  87.2170014
  74.5329992 105.9899978  87.8380014  76.3929992 105.3109978  88.1700014
  75.9269992 104.6799978  88.9570014  77.4279992 105.5859978  88.4660014
  76.4429992 104.6229978  86.8510014  77.1119992 103.7579978  87.0450014
  76.9049992 105.2379978  86.0500014  75.0959992 103.9329978  86.4740014
  74.4289992 104.7779978  86.2010014  74.8539992 103.4939978  87.4660014
  75.1139992 102.7629978  85.6230014  74.1929992 102.1999978  85.8840014
  75.9589992 102.0759978  85.8440014  75.2189992 102.9609978  84.1320014
  74.8669992 102.0589978  83.5860014  76.3079992 103.1639978  84.0450014
  74.7219992 103.8539978  83.6980014  45.4859992  62.7569978  85.9250014
  46.0479992  63.1149978  85.0360014  44.6529992  63.4759978  86.0810014
  45.1769992  61.7419978  85.5960014  46.4909992  62.7409978  87.1750014
  45.8219992  62.3099978  87.9510014  47.1819992  61.8799978  87.0470014
  47.2999992  63.9049978  87.4630014  48.2239992  63.9899978  86.8520014
  46.5999992  64.7589978  87.3370014  47.7809992  64.0339978  88.9770014
  48.2489992  65.0149978  89.2110014  46.8029992  63.9629978  89.4990014
  48.8139992  62.9999978  89.2160014  48.4879992  62.0089978  88.8330014
  49.7559992  63.3109978  88.7150014  49.0799992  62.6999978  90.7040014
  49.4179992  63.5979978  91.2630014  48.0699992  62.6389978  91.1620014
  50.0419992  61.5899978  91.0300014  49.6499992  60.7129978  90.4720014
  51.0669992  61.8669978  90.7040014  50.0759992  61.1999978  92.5270014
  50.8349992  60.4029978  92.6720014  50.4839992  62.1039978  93.0290014
  48.7539992  60.8369978  93.1170014  47.8889992  61.5339978  93.0900014
  48.3659992  59.9719978  92.5390014  48.8849992  60.3389978  94.5720014
  47.9669992  59.8059978  94.9000014  49.6969992  59.5809978  94.6020014
  49.1019992  61.3799978  95.6440014  48.6809992  62.3339978  95.2620014
  48.5759992  60.9979978  96.5460014  50.5689992  61.5609978  96.1180014
  50.9419992  60.6989978  96.7110014  51.2149992  61.7739978  95.2390014
  50.6769992  62.7209978  97.0870014  51.7239992  63.0829978  97.1700014
  50.0799992  63.6219978  96.8310014  50.2789992  62.3329978  98.5240014
  49.6019992  61.4529978  98.4970014  51.2429992  62.0549978  99.0000014
  49.8019992  63.6269978  99.2550014  49.6609992  63.3329978 100.3170014
  50.5949992  64.3969978  99.3620014  48.5339992  64.1819978  98.6040014
  48.5439992  65.1799978  97.9850014  47.4239992  63.4569978  98.9030014
  46.1259992  63.9499978  98.4760014  45.9019992  64.8899978  99.0240014
  46.0449992  64.1689978  97.3890014  45.0009992  62.9969978  98.9830014
  44.0309992  63.2879978  98.5270014  44.7599992  63.0429978 100.5150014
  44.5469992  64.0869978 100.8320014  43.8209992  62.5259978 100.8070014
  45.9699992  62.6619978 101.1460014  45.9329992  62.8479978 102.7180014
  46.8329992  61.5529978 103.1600014  48.1679992  61.3649978 102.7060014
  48.7179992  62.3289978 102.7510014  48.6299992  60.7559978 103.5120014
  48.2349992  60.6329978 101.3730014  47.6239992  61.1449978 100.6440014
  49.1949992  60.5769978 100.8820014  47.7489992  59.1279978 101.2880014
  46.2679992  59.0879978 101.6240014  45.7299992  59.6639978 100.8870014
  45.8669992  58.1439978 101.9620014  46.1179992  59.7559978 102.4590014
  47.7689992  58.4799978  99.9430014  48.7919992  58.3649978  99.6150014
  47.1809992  57.5829978  99.8180014  47.3429992  59.2099978  99.2710014
  48.5299992  58.2479978 102.2440014  49.5839992  58.3239978 102.0190014
  48.1469992  57.2429978 102.1400014  48.3769992  58.7149978 103.2060014
  46.7679992  64.0479978 103.0390014  44.5529992  62.7349978 103.2640014
  45.3069992  61.6869978  98.5840014  45.1209992  61.3599978  97.2840014
  44.6039992  62.0509978  96.4380014  45.7449992  59.9119978  97.0680014
  45.3929992  59.2769978  97.9090014  46.8279992  60.1399978  97.1670014
  45.3169992  59.4269978  95.7370014  45.8379992  60.0689978  94.9950014
  44.2139992  59.3979978  95.6060014  45.7609992  57.9419978  95.4030014
  45.5029992  57.2119978  96.2000014  46.8579992  57.7969978  95.3000014
  45.2449992  57.4189978  94.0430014  44.1589992  57.5889978  93.8820014
  45.3959992  56.3239978  93.9310014  45.8089992  57.9899978  92.7710014
  46.9179992  57.9619978  92.8360014  45.6739992  59.0909978  92.8280014
  45.4009992  57.4259978  91.4450014  44.4259992  57.9159978  91.2340014
  45.2539992  56.3329978  91.5790014  46.5129992  57.4269978  90.4040014
  46.1229992  56.7969978  89.5760014  47.3859992  56.9479978  90.8950014
  46.8169992  58.8309978  89.9190014  47.5929992  59.3759978  90.4770014
  46.1039992  59.4859978  89.0020014  46.3969992  60.5409978  88.8980014
  44.9259992  59.0539978  88.2600014  44.4969992  58.0729978  88.5550014
  45.1979992  58.8939978  87.1950014  43.7149992  59.9899978  88.2160014
  43.8939992  60.9159978  87.6290014  43.5459992  60.2729978  89.2770014
  42.4729992  59.2749978  87.6350014  42.3679992  58.3989978  88.3100014
  42.6759992  59.0799978  86.5600014  41.2839992  60.2949978  87.7160014
  41.0339992  60.7939978  88.6770014  40.4019992  59.7499978  87.3180014
  41.4149992  61.5169978  86.8760014  42.2119992  62.1899978  87.2570014
  40.4679992  62.0809978  87.0110014  41.6769992  61.1019978  85.4220014
  40.9589992  60.2809978  85.2100014  42.7119992  60.7399978  85.2440014
  41.5239992  62.1919978  84.3840014  42.1179992  63.0409978  84.7840014
  40.4559992  62.4979978  84.3780014  41.9839992  61.7439978  83.0160014
  43.0299992  62.0189978  82.7610014  41.3979992  62.2959978  82.2500014
  41.7509992  60.6799978  82.7950014 115.5409992  80.0879978  85.3500014
 115.8559992  81.0969978  85.6930014 116.1339992  79.7279978  84.4820014
 115.9479992  79.4489978  86.1630014 113.9999992  80.0309978  85.2420014
 113.4719992  80.5329978  86.0810014 113.6689992  80.4639978  84.2730014
 113.4649992  78.5479978  85.3200014 113.8709992  77.9489978  84.4780014
 113.7169992  78.0909978  86.3010014 111.9429992  78.7579978  85.1480014
 111.4079992  79.3849978  85.8940014 111.9649992  79.2949978  84.1760014
 111.1879992  77.4129978  85.1950014 110.1849992  77.4479978  84.7200014
 111.8659992  76.7859978  84.5780014 111.0789992  76.8269978  86.6440014
 110.7559992  75.7949978  86.3860014 112.0599992  76.7649978  87.1610014
 110.1989992  77.5059978  87.6520014 110.5639992  78.5359978  87.8550014
 109.1909992  77.7409978  87.2490014 109.9539992  76.8079978  89.0480014
 109.3399992  75.8829978  89.0000014 110.9569992  76.4459978  89.3610014
 109.5319992  77.8709978  90.1100014 110.5249992  78.1269978  90.5370014
 109.0069992  78.7739978  89.7310014 108.7609992  77.1549978  91.2220014
 107.7489992  76.8659978  90.8680014 109.2829992  76.1829978  91.3540014
 108.6979992  77.9929978  92.5040014 108.6679992  79.0509978  92.1660014
 107.7269992  77.7139978  92.9660014 109.8669992  77.7549978  93.4830014
 109.4599992  77.3249978  94.4230014 110.6729992  77.1379978  93.0310014
 110.5779992  79.0449978  93.8780014 111.3049992  79.2569978  93.0660014
 109.8279992  79.8419978  94.0730014 111.4349992  78.9309978  95.1550014
 112.0449992  79.8579978  95.1910014 110.7849992  78.9219978  96.0570014
 112.3659992  77.7209978  95.2310014 111.7999992  76.7869978  95.4360014
 112.9129992  77.5819978  94.2750014 113.4149992  77.8939978  96.3950014
 113.3269992  78.7529978  97.2710014 114.2839992  76.9059978  96.3740014
 115.0479992  76.6879978  97.6080014 115.7039992  75.8029978  97.4630014
 115.6529992  77.5829978  97.8640014 114.0699992  76.2449978  98.7840014
 113.1559992  76.8739978  98.7260014 114.7759992  76.4669978 100.1880014
 115.7769992  75.9849978 100.1720014 115.0469992  77.5419978 100.2570014
 113.9759992  75.9359978 101.2450014 114.1029992  76.1529978 102.8000014
 113.4309992  77.6079978 103.1100014 113.8869992  78.7249978 102.4060014
 113.9719992  79.6049978 103.0790014 114.9739992  78.7369978 102.1770014
 113.0219992  79.0069978 101.1500014 113.2119992  80.0369978 100.8880014
 113.4159992  78.3509978 100.3890014 111.5259992  78.8539978 101.2860014
 111.0159992  80.0169978 102.1690014 111.4949992  80.9319978 101.8540014
 109.9459992  80.1029978 102.0520014 111.3159992  79.7549978 103.1730014
 110.9899992  79.1629978  99.9350014 111.1379992  80.1799978  99.6020014
 111.4689992  78.5609978  99.1780014 109.9279992  78.9659978  99.9420014
 110.9839992  77.6009978 101.7200014 111.2379992  76.8269978 101.0120014
 109.9169992  77.7569978 101.7780014 111.4079992  77.3379978 102.6780014
 113.2659992  75.2079978 103.4760014 115.5229992  76.2069978 103.2080014
 113.7809992  74.8049978  98.6940014 112.6049992  74.4289978  98.3150014
 111.6569992  75.1779978  98.2050014 112.5799992  72.9609978  98.1880014
 111.5739992  72.7129978  97.7860014 112.7269992  72.5079978  99.1920014
 113.8189992  72.4909978  97.4070014 113.5919992  71.4269978  97.1840014
 114.7629992  72.4669978  97.9920014 114.0109992  73.1039978  95.9830014
 114.9409992  72.6549978  95.5710014 114.0689992  74.2129978  95.9890014
 112.8689992  72.7949978  95.0490014 112.0409992  73.3859978  95.4960014
 112.7429992  71.6999978  95.1910014 113.1469992  73.2719978  93.5830014
 113.8669992  72.4959978  93.2490014 113.5919992  74.2899978  93.5870014
 111.8129992  73.5119978  92.8250014 111.2889992  74.2719978  93.4430014
 111.2359992  72.5689978  92.7190014 111.9479992  73.9879978  91.3750014
 110.9349992  74.2529978  91.0030014 112.3939992  73.1399978  90.8120014
 112.6669992  75.2989978  91.3160014 111.9309992  76.0849978  91.5380014
 113.9329992  75.4569978  90.9790014 114.2009992  76.5219978  90.9250014
 114.8989992  74.4249978  90.6060014 114.7689992  73.5179978  91.2340014
 115.9669992  74.5529978  90.8870014 114.8229992  73.9709978  89.1390014
 113.9159992  73.3659978  88.9250014 115.6289992  73.2099978  89.0570014
 115.0579992  74.9669978  87.9710014 116.0339992  75.3649978  88.3240014
 114.2599992  75.7329978  87.8680014 115.3419992  74.2619978  86.6420014
 114.5079992  73.5559978  86.4410014 116.3159992  73.7369978  86.7420014
 115.4349992  75.1299978  85.4050014 116.4709992  75.5059978  85.2640014
 114.8039992  76.0439978  85.4560014 115.0219992  74.3799978  84.1120014
 113.9269992  74.1949978  84.0630014 115.6829992  73.4899978  84.0350014
 115.3839992  75.2359978  82.8640014 116.4269992  75.5579978  83.0730014
 114.7659992  76.1449978  82.7000014 115.3799992  74.4039978  81.5900014
 115.5639992  75.0919978  80.7380014 114.3969992  73.9299978  81.3800014
 116.2309992  73.6899978  81.5920014 109.2309992  97.0699978  85.7720014
 108.1819992  97.3529978  85.5420014 109.9179992  96.8819978  84.9200014
 109.5739992  97.7959978  86.5400014 109.1069992  95.6529978  86.3740014
 108.7749992  94.9869978  85.5480014 110.1299992  95.3069978  86.6350014
 108.1369992  95.5849978  87.5690014 107.4659992  96.4669978  87.6480014
 107.4459992  94.7169978  87.6310014 108.9549992  95.4799978  88.8980014
 109.7509992  94.7049978  88.8820014 109.4649992  96.4669978  88.9250014
 108.1179992  95.1159978  90.1350014 107.3389992  95.8319978  90.4730014
 107.4769992  94.2869978  89.7650014 108.9889992  94.7019978  91.3130014
 109.7469992  93.9719978  90.9590014 109.4649992  95.6619978  91.6060014
 108.1639992  94.2959978  92.5250014 107.7459992  93.2799978  92.3560014
 108.8429992  94.0269978  93.3620014 107.1449992  95.4069978  92.9850014
 107.8389992  96.2639978  93.1260014 106.4519992  95.6349978  92.1470014
 106.1899992  95.1009978  94.1730014 105.6129992  96.0359978  94.3370014
 105.4559992  94.4189978  93.6940014 106.8669992  94.6779978  95.4820014
 106.1189992  94.2879978  96.2050014 107.5229992  93.8209978  95.2160014
 107.6919992  95.8369978  96.2770014 108.4779992  96.2769978  95.6270014
 106.8969992  96.5629978  96.5550014 108.6099992  95.3829978  97.4100014
 107.9469992  95.1929978  98.2810014 108.9449992  94.3749978  97.0850014
 109.8789992  96.2499978  97.6050014 110.4419992  95.6269978  98.3330014
 110.4859992  96.2589978  96.6750014 109.6979992  97.5999978  98.2700014
 108.8209992  97.5429978  98.9500014 110.5599992  97.9599978  98.8710014
 109.5219992  98.7319978  97.2390014 110.4759992  98.8139978  96.6760014
 108.6719992  98.4299978  96.5890014 109.1999992 100.1079978  97.8540014
 109.6829992 101.1849978  97.5420014 108.4299992  99.8739978  98.8960014
 108.0889992 100.9339978  99.7560014 108.9629992 101.0849978 100.4250014
 107.8419992 101.8159978  99.1270014 106.6499992 100.5189978 100.3890014
 106.1509992 101.3919978 100.8600014 106.6639992  99.4309978 101.4450014
 107.4729992  99.6519978 102.1740014 105.7609992  99.5569978 102.0810014
 106.8799992  98.1619978 100.9200014 105.6869992  97.0439978 101.0670014
 106.4919992  95.9459978 101.8750014 107.0589992  96.3129978 103.1320014
 107.8719992  97.0379978 102.9130014 106.2279992  96.6319978 103.7970014
 107.8639992  95.1569978 103.7230014 108.4039992  95.3899978 104.6280014
 107.1909992  94.3789978 104.0500014 108.9529992  94.5579978 102.7450014
 109.8659992  95.6499978 102.3540014 110.2679992  96.2089978 103.1860014
 110.7059992  95.2099978 101.8380014 109.4339992  96.3539978 101.6580014
 109.7989992  93.4889978 103.4980014 109.0239992  92.7839978 103.7610014
 110.6129992  93.0729978 102.9230014 110.1989992  94.0199978 104.3490014
 108.3569992  93.8559978 101.5370014 108.1129992  94.6399978 100.8350014
 107.5689992  93.2699978 101.9850014 109.2129992  93.3019978 101.1790014
 104.5559992  97.5389978 101.9170014 105.3469992  96.5459978  99.7380014
 105.8009992 100.1059978  99.3190014 105.3109992 100.9989978  98.4590014
 105.5979992 102.1789978  98.5050014 104.5839992 100.1999978  97.3500014
 103.5659992 100.6209978  97.2040014 104.4419992  99.1459978  97.6730014
 105.4369992 100.2939978  95.9970014 106.4959992 100.1219978  96.2860014
 105.2769992 101.2659978  95.4830014 105.1249992  99.0919978  95.1050014
 104.1619992  99.2839978  94.5860014 105.0689992  98.1389978  95.6730014
 106.1399992  98.8719978  93.9530014 105.7839992  98.0329978  93.3180014
 106.9569992  98.4439978  94.5730014 106.4769992 100.1229978  93.0630014
 107.1759992  99.8469978  92.2450014 106.9289992 100.8199978  93.8020014
 105.2969992 100.6079978  92.2070014 105.6029992 101.5709978  91.7440014
 104.3449992 100.8029978  92.7450014 104.8329992  99.5929978  91.0410014
 103.8649992  99.9869978  90.6640014 104.5039992  98.6219978  91.4690014
 105.9139992  99.4689978  89.8770014 106.6629992  98.6769978  90.0250014
 106.0439992 100.2119978  88.7970014 106.8749992  99.9359978  88.1300014
 105.2479992 101.4279978  88.4960014 104.5369992 101.4929978  89.3480014
 104.6399992 101.3069978  87.5740014 105.9139992 102.7909978  88.4880014
 106.4069992 102.9729978  89.4670014 105.1809992 103.5949978  88.2630014
 107.0659992 102.9579978  87.4860014 107.7519992 102.1199978  87.7370014
 107.4749992 103.9049978  87.8980014 106.6529992 103.0199978  86.0010014
 105.8769992 103.8039978  85.8690014 106.2399992 102.0789978  85.5790014
 107.8779992 103.4469978  85.2670014 108.7599992 103.4979978  85.9400014
 107.7709992 104.4579978  84.8180014 108.1629992 102.7459978  83.9140014
 107.1919992 102.6989978  83.3760014 108.5089992 101.7339978  84.2150014
 109.1609992 103.4739978  83.0290014 110.1379992 103.6539978  83.5270014
 108.8699992 104.5199978  82.7970014 109.3729992 102.6949978  81.7260014
 109.5059992 101.6069978  81.9060014 110.2969992 103.0229978  81.2040014
 108.5069992 102.9549978  81.0800014  45.6349992  88.1879978  82.6410014
  45.3569992  89.1909978  83.0270014  44.9209992  87.8159978  81.8750014
  46.6539992  88.3249978  82.2200014  45.8299992  87.3549978  83.9300014
  46.2049992  86.3239978  83.7590014  46.5639992  87.8789978  84.5790014
  44.5379992  87.3069978  84.7780014  43.7789992  86.8819978  84.0870014
  44.7309992  86.5729978  85.5890014  43.8639992  88.5869978  85.4430014
  43.4439992  89.0829978  84.5420014  42.9929992  88.2299978  86.0330014
  44.8619992  89.3099978  86.4100014  45.3109992  88.5129978  87.0410014
  45.6679992  89.8009978  85.8250014  44.2119992  90.4369978  87.2860014
  44.0069992  91.1309978  86.4430014  43.1949992  90.1359978  87.6190014
  45.1999992  91.2109978  88.2040014  46.0399992  91.7049978  87.6700014
  44.6729992  92.0499978  88.7080014  45.7069992  90.2969978  89.3740014
  46.2649992  89.4499978  88.9220014  46.4839992  90.7849978  90.0020014
  44.5919992  89.7899978  90.3970014  43.9519992  90.6649978  90.6370014
  43.9079992  89.0239978  89.9730014  45.1899992  89.1529978  91.6630014
  45.8369992  89.9059978  92.1620014  44.3479992  89.0179978  92.3750014
  45.8899992  87.7799978  91.4420014  45.0699992  87.0899978  91.1510014
  46.5829992  87.8349978  90.5750014  46.6479992  87.1759978  92.6810014
  47.1839992  86.2449978  92.3980014  47.3979992  87.9479978  92.9570014
  45.7009992  86.7739978  93.8220014  45.3699992  87.7319978  94.2770014
  44.8779992  86.1309978  93.4420014  46.4089992  85.9289978  94.8160014
  45.6279992  85.4259978  95.4270014  46.6799992  85.0979978  94.1310014
  47.5789992  86.6039978  95.6220014  48.4399992  85.9359978  95.8380014
  47.9469992  87.5529978  95.1780014  47.0369992  87.2119978  96.9280014
  46.9619992  86.6109978  97.9460014  46.7899992  88.5379978  96.7310014
  46.3179992  89.3279978  97.8130014  46.0569992  88.6979978  98.6910014
  47.1059992  90.0389978  98.1400014  45.0269992  90.1159978  97.3980014
  45.2979992  91.0229978  96.8170014  44.3819992  90.7699978  98.6960014
  45.1969992  91.1829978  99.3270014  43.7729992  91.6149978  98.3090014
  43.6379992  89.8009978  99.5300014  43.0279992  90.4909978 100.8180014
  43.6609992  89.6909978 102.0380014  44.0429992  88.3539978 101.7580014
  43.4549992  87.8529978 100.9600014  45.0889992  88.4599978 101.3980014
  43.9229992  87.3359978 102.9190014  44.3629992  86.4279978 102.5340014
  44.4189992  87.6199978 103.8350014  42.5009992  86.9809978 103.2560014
  41.6839992  88.2439978 103.7040014  42.2979992  88.6299978 104.5040014
  41.6899992  88.8879978 102.8370014  40.7459992  87.7559978 103.9250014
  41.6959992  86.3939978 102.0920014  42.1789992  85.5129978 101.6970014
  40.7009992  86.1329978 102.4210014  41.5759992  87.0749978 101.2620014
  42.5309992  85.9749978 104.3800014  41.5929992  85.4409978 104.3390014
  42.7229992  86.4129978 105.3490014  43.3839992  85.3539978 104.1490014
  43.5439992  91.8719978 101.1260014  41.5139992  90.1869978 100.8860014
  44.1009992  89.2239978  96.8130014  43.0449992  89.8059978  96.2040014
  42.9719992  90.9959978  96.0450014  41.9219992  88.8109978  95.8290014
  41.1229992  89.4109978  95.3430014  41.5089992  88.3939978  96.7720014
  42.6059992  87.7079978  95.0430014  43.5559992  87.3269978  95.4750014
  42.9399992  88.1329978  94.0720014  41.6159992  86.5089978  94.7440014
  41.2179992  86.0799978  95.6880014  42.1399992  85.6359978  94.2990014
  40.3949992  86.8509978  93.8690014  39.8669992  87.6989978  94.3560014
  39.6399992  86.0359978  93.8810014  40.7199992  87.3179978  92.3880014
  41.5769992  88.0129978  92.5120014  39.8129992  87.8349978  92.0070014
  41.2629992  86.2479978  91.4860014  40.8309992  85.2889978  91.8430014
  42.3719992  86.2309978  91.5490014  40.7889992  86.3749978  90.0660014
  39.6799992  86.3039978  90.0890014  41.0979992  85.4649978  89.5100014
  41.3499992  87.5749978  89.4160014  42.4309992  87.5949978  89.2170014
  40.7269992  88.6669978  88.9520014  41.2279992  89.5299978  88.4890014
  39.2629992  88.8239978  89.0530014  38.9799992  88.5929978  90.1020014
  38.8209992  88.0679978  88.3680014  38.7829992  90.2519978  88.5660014
  39.1099992  91.0429978  89.2740014  37.6849992  90.3439978  88.4260014
  39.2719992  90.6869978  87.1380014  40.3769992  90.6859978  87.0200014
  38.8629992  91.7119978  87.0090014  38.7029992  89.7119978  86.0150014
  37.5919992  89.6959978  86.0310014  38.9729992  88.6529978  86.2150014
  39.0779992  90.1979978  84.6410014  40.1809992  90.2799978  84.5370014
  38.6239992  91.2029978  84.4990014  38.4889992  89.4049978  83.4750014
  38.2559992  90.1089978  82.6480014  37.5079992  88.9399978  83.7120014
  39.3339992  88.3299978  82.7640014  38.5589992  87.9299978  82.0750014
  39.7309992  87.5589978  83.4580014  40.4419992  88.8609978  81.9210014
  40.8749992  89.6539978  82.5680014  39.8749992  89.1929978  81.0250014
  41.2059992  88.1029978  81.6440014  99.4969992 109.4259978  83.0570014
  99.2969992 108.5379978  82.4200014 100.6019992 109.4549978  83.1650014
  99.2539992 110.3649978  82.5160014  98.8079992 109.3199978  84.4280014
  99.3169992 109.9749978  85.1680014  97.7169992 109.4729978  84.2850014
  98.8319992 107.9619978  84.9940014  98.0459992 107.8059978  85.7640014
  98.7319992 107.2019978  84.1910014 100.1729992 107.6569978  85.7040014
 101.0429992 107.6909978  85.0130014 100.4849992 108.3279978  86.5320014
 100.1179992 106.1899978  86.2040014  99.2829992 105.6879978  85.6710014
 101.0639992 105.6209978  86.0790014  99.7259992 105.9859978  87.6740014
 100.4049992 106.6499978  88.2520014  98.6699992 106.3149978  87.7810014
  99.8869992 104.5279978  88.0300014  99.3739992 103.7819978  87.3860014
 100.9749992 104.3009978  88.0210014  99.3959992 104.1709978  89.4260014
  99.6559992 104.9689978  90.1540014  98.3199992 103.9009978  89.3580014
 100.1059992 102.8989978  89.9570014  99.6719992 102.1139978  89.3010014
 101.2159992 102.9219978  89.9080014  99.7279992 102.4979978  91.3470014
 100.1949992 101.5519978  91.6960014 100.1639992 103.3299978  91.9390014
  98.2109992 102.3259978  91.5040014  97.7469992 103.3359978  91.5160014
  97.8969992 101.6829978  90.6550014  97.8339992 101.7459978  92.8400014
  96.7469992 101.5309978  92.7640014  98.4219992 100.8209978  93.0250014
  97.8119992 102.7729978  94.0210014  98.8749992 103.0939978  94.0730014
  97.1109992 103.5649978  93.6830014  97.2399992 102.2959978  95.3630014
  96.1319992 102.2399978  95.4310014  97.5869992 101.2499978  95.5040014
  97.7789992 103.1679978  96.5390014  97.8559992 104.2209978  96.1940014
  97.1799992 103.1599978  97.4750014  99.2549992 102.7549978  96.8600014
  99.7929992 101.7839978  96.4050014  99.7339992 103.5819978  97.8000014
 100.9329992 103.2249978  98.5160014 101.0759992 102.1559978  98.7850014
 101.8279992 103.4109978  97.8840014 101.0719992 104.0959978  99.7760014
 101.9399992 103.8509978 100.4250014  99.7889992 103.9849978 100.6550014
  99.4729992 102.9239978 100.7440014 100.1729992 104.4079978 101.6080014
  98.7099992 104.8209978 100.1760014  97.3639992 104.5809978 100.9270014
  97.5149992 105.6879978 102.0550014  96.7209992 105.6319978 103.1670014
  96.2679992 104.6429978 103.3920014  97.3609992 105.8889978 104.0370014
  95.6009992 106.6959978 103.0160014  95.1009992 106.4789978 102.0830014
  94.7499992 106.6279978 103.6770014  95.9369992 108.1349978 102.9830014
  94.6169992 108.8229978 102.8230014  94.8369992 109.8479978 102.5640014
  94.1739992 108.3359978 101.9680014  94.1289992 108.7749978 103.7860014
  96.7419992 108.6559978 104.1630014  96.9409992 109.7159978 104.1090014
  96.2109992 108.4359978 105.0770014  97.6869992 108.1339978 104.1410014
  96.6499992 108.4479978 101.7260014  97.6149992 107.9789978 101.8530014
  96.6359992 109.5129978 101.5500014  96.2139992 107.9189978 100.8910014
  96.3689992 104.8899978  99.9330014  97.3269992 103.2309978 101.5370014
 101.1429992 105.4989978  99.3990014 101.5899992 106.3029978 100.3700014
 101.9159992 106.0409978 101.5240014 101.6919992 107.7939978  99.7990014
 102.7769992 108.0299978  99.8220014 101.2609992 108.4309978 100.6020014
 101.1869992 108.0839978  98.3970014 101.7479992 107.4849978  97.6480014
 101.4569992 109.0839978  97.9970014  99.6189992 107.9559978  98.3830014
  99.2149992 108.3129978  99.3540014  99.5449992 106.8759978  98.1340014
  98.8899992 108.5879978  97.1950014  99.4329992 108.2459978  96.2880014
  99.0319992 109.6869978  97.2670014  97.4129992 108.2309978  97.1190014
  96.9249992 108.7589978  97.9670014  97.2729992 107.1309978  97.1840014
  96.7959992 108.6219978  95.8210014  97.5679992 108.6819978  95.0240014
  96.3189992 109.6159978  95.9560014  95.6589992 107.6959978  95.3160014
  95.0139992 108.2829978  94.6280014  94.9709992 107.3719978  96.1260014
  96.2069992 106.4669978  94.6260014  96.6189992 105.6079978  95.1750014
  96.0699992 106.2769978  93.3090014  96.3159992 105.2969978  92.8740014
  95.3949992 107.2199978  92.3850014  95.7429992 108.2659978  92.5210014
  94.3279992 107.0619978  92.6500014  95.6729992 107.0239978  90.8520014
  96.7639992 106.8729978  90.7020014  95.3839992 107.9619978  90.3310014
  94.9829992 105.8279978  90.1680014  93.8739992 105.8899978  90.1880014
  95.3389992 104.8649978  90.5930014  95.3489992 105.7469978  88.6580014
  96.4219992 105.7249978  88.3670014  94.8929992 106.6989978  88.3120014
  94.6209992 104.6309978  87.8910014  93.5719992 104.6179978  88.2570014
  95.1629992 103.6869978  88.1100014  94.5779992 104.7459978  86.3540014
  94.2239992 105.7649978  86.0840014  93.8379992 104.0039978  85.9840014
  95.9669992 104.4689978  85.6960014  96.6669992 104.3549978  86.5520014
  96.1909992 105.4149978  85.1590014  95.8569992 103.1679978  84.8940014
  96.8279992 102.9729978  84.3900014  95.0099992 103.1949978  84.1750014
  95.7099992 102.2819978  85.5470014  84.4399992  29.2959978  84.8870014
  83.6829992  28.8169978  85.5440014  84.9849992  28.4929978  84.3470014
  83.9289992  29.8929978  84.1020014  85.4359992  30.0349978  85.6930014
  84.8389992  30.9369978  85.9480014  85.7169992  29.5119978  86.6320014
  86.7949992  30.3479978  84.9520014  86.6199992  30.9739978  84.0510014
  87.3729992  31.0829978  85.5520014  87.6559992  29.0289978  84.6090014
  86.9509992  28.1919978  84.4160014  88.3779992  29.1779978  83.7780014
  88.3799992  28.6069978  85.9220014  87.6409992  28.7539978  86.7380014
  88.3919992  27.4969978  85.9710014  89.6939992  29.2509978  86.2310014
  90.3729992  29.2289978  85.3510014  89.5309992  30.3059978  86.5400014
  90.3949992  28.5859978  87.4670014  90.4669992  27.4959978  87.2630014
  91.4139992  29.0229978  87.5360014  89.6179992  28.8689978  88.8320014
  89.2539992  29.9179978  88.8710014  88.6639992  28.3189978  88.6840014
  90.3379992  28.5439978  90.0980014  91.2659992  29.1459978  90.1890014
  89.6319992  28.6469978  90.9490014  90.6539992  26.9659978  90.0470014
  89.7399992  26.3409978  89.9620014  91.0619992  26.6959978  89.0490014
  91.6169992  26.4669978  91.2060014  92.3119992  25.8919978  90.5580014
  92.2039992  27.3679978  91.4840014  91.0699992  25.5989978  92.3430014
  90.2689992  24.9379978  91.9460014  91.9079992  24.9969978  92.7540014
  90.5689992  26.3959978  93.5630014  91.3549992  27.1089978  93.8910014
  89.7179992  27.0029978  93.1890014  90.1859992  25.4879978  94.7110014
  89.2329992  24.9269978  94.6030014  90.9459992  24.6779978  94.7210014
  90.2609992  26.2619978  95.9870014  91.2059992  26.8459978  96.0140014
  89.4759992  27.0449978  95.9160014  89.9749992  25.4069978  97.1850014
  89.4749992  24.2819978  97.1380014  90.3149992  26.0599978  98.3110014
  89.9819992  25.5269978  99.5710014  89.1219992  24.8329978  99.4530014
  90.8689992  24.9309978  99.8760014  89.7499992  26.6429978 100.6010014
  90.6949992  27.0909978 100.9740014  89.0769992  26.1009978 101.9050014
  88.1789992  25.4639978 101.7610014  89.8179992  25.4489978 102.4150014
  88.9229992  27.2349978 102.7310014  87.5599992  27.6209978 103.5370014
  86.4349992  27.3849978 102.4460014  85.0329992  27.4599978 102.9190014
  85.0549992  27.0469978 103.9500014  84.6699992  28.5099978 102.9330014
  84.0599992  26.7139978 101.9910014  84.1649992  25.6429978 102.0850014
  83.0529992  26.8689978 102.3490014  84.1499992  26.9729978 100.4800014
  84.1149992  28.4939978 100.1630014  83.2219992  28.9709978 100.5370014
  84.9309992  29.0189978 100.6390014  84.2169992  28.6389978  99.0980014
  85.3329992  26.4459978  99.9420014  85.3049992  26.5179978  98.8650014
  86.1869992  26.8529978 100.4630014  85.3449992  25.3679978 100.0130014
  82.9569992  26.3019978  99.7760014  82.0959992  26.6809978 100.3080014
  82.9479992  25.2229978  99.8140014  83.0269992  26.5129978  98.7200014
  87.3579992  26.6259978 104.6830014  87.6519992  29.0589978 103.8380014
  88.8969992  27.6499978 100.0760014  89.4529992  28.7689978  99.7020014
  90.6389992  28.9429978  99.4790014  88.3669992  29.7589978  99.5050014
  88.5069992  30.4879978 100.3330014  87.3389992  29.3469978  99.4190014
  88.5079992  30.6229978  98.2710014  89.5269992  31.0499978  98.3860014
  87.9359992  31.5739978  98.3380014  88.4639992  29.9219978  96.8630014
  89.4009992  29.3289978  96.7890014  88.4769992  30.7359978  96.1070014
  87.3809992  28.8829978  96.5610014  87.4199992  27.9889978  97.2190014
  87.5369992  28.4389978  95.5550014  85.9809992  29.5019978  96.6750014
  85.7939992  30.3689978  96.0050014  85.9239992  30.0199978  97.6570014
  84.8479992  28.4689978  96.5730014  83.9049992  29.0339978  96.7330014
  84.8479992  27.7229978  97.3960014  84.5229992  27.8379978  95.1680014
  84.6999992  28.6439978  94.4230014  83.4519992  27.5439978  95.1510014
  85.4269992  26.6569978  94.8770014  85.4339992  25.8739978  95.6510014
  86.2749992  26.4429978  93.8000014  86.9409992  25.5709978  93.8800014
  86.5099992  27.4269978  92.6690014  87.5779992  27.7249978  92.6000014
  86.0449992  28.4229978  92.8320014  86.0539992  26.9789978  91.2870014
  86.3689992  27.8299978  90.6460014  84.9549992  26.8339978  91.2160014
  86.8259992  25.6849978  90.9480014  86.5519992  24.9259978  91.7120014
  87.9299992  25.7919978  90.8960014  85.9829992  25.1139978  89.7500014
  84.9809992  24.8259978  90.1340014  86.3469992  24.0759978  89.5930014
  85.9279992  25.8549978  88.4150014  86.9489992  26.0839978  88.0420014
  85.3349992  26.7919978  88.4750014  85.1509992  25.0949978  87.2640014
  84.1169992  25.0199978  87.6620014  85.6539992  24.1159978  87.1160014
  85.1959992  25.8099978  85.9500014  85.2779992  26.8879978  86.2070014
  84.2689992  25.7009978  85.3480014  86.4299992  25.4469978  85.1280014
  86.4939992  26.1089978  84.2380014  86.5969992  24.3599978  84.9740014
  87.3399992  25.7669978  85.6800014  78.1839992  29.0009978  84.4530014
  78.1319992  27.9799978  84.8880014  79.2619992  29.1869978  84.2590014
  77.5519992  29.0029978  83.5390014  77.5909992  30.1369978  85.3560014
  77.9419992  29.7659978  86.3430014  78.0109992  31.1369978  85.1160014
  76.0839992  30.4509978  85.2670014  75.6759992  30.7039978  84.2650014
  75.6109992  29.5139978  85.6310014  75.7559992  31.5289978  86.2690014
  76.1829992  32.5259978  86.0260014  74.6519992  31.6519978  86.2950014
  76.1099992  31.1729978  87.7300014  76.3889992  30.0999978  87.8060014
  77.0289992  31.7279978  88.0160014  75.0969992  31.5509978  88.8390014
  75.5829992  31.3689978  89.8210014  74.8369992  32.6299978  88.7940014
  73.7939992  30.6869978  88.7260014  72.9679992  31.1269978  88.1270014
  73.9449992  29.7639978  88.1270014  73.0609992  30.3589978  90.0180014
  72.8459992  31.3289978  90.5140014  72.1359992  29.8059978  89.7480014
  73.7769992  29.4959978  91.0550014  74.2049992  28.5579978  90.6410014
  74.5969992  30.1189978  91.4720014  72.9109992  29.1179978  92.2710014
  72.2889992  29.9759978  92.6020014  72.1909992  28.3609978  91.8950014
  73.6679992  28.6889978  93.5280014  74.5389992  28.0509978  93.2660014
  74.1189992  29.5979978  93.9800014  72.7729992  28.1369978  94.6240014
  71.8959992  28.8189978  94.6160014  72.3789992  27.1289978  94.3720014
  73.2659992  28.2659978  96.1060014  72.4599992  27.8819978  96.7680014
  74.2679992  27.8189978  96.2750014  73.4609992  29.6999978  96.5640014
  74.3439992  30.2279978  96.1450014  72.5459992  30.3089978  96.4030014
  73.8989992  29.7319978  98.0870014  74.7689992  29.0939978  98.3510014
  74.3439992  30.7269978  98.3060014  72.7129992  29.3989978  98.9470014
  71.6429992  29.9689978  98.9620014  73.0139992  28.3809978  99.8110014
  71.8629992  27.9329978 100.5440014  71.2629992  28.7189978 101.0500014
  71.1639992  27.5829978  99.7550014  72.4559992  26.9179978 101.4680014
  71.6459992  26.2209978 101.7720014  73.0669992  27.6359978 102.6890014
  72.3159992  28.2939978 103.1750014  73.4759992  26.8249978 103.3300014
  74.1439992  28.5099978 102.1970014  74.7299992  29.3389978 103.3390014
  76.1409992  29.7799978 102.7570014  76.4209992  30.0379978 101.3540014
  75.5589992  30.5969978 100.9320014  77.3729992  30.6079978 101.4210014
  76.7129992  28.8029978 100.5290014  75.8189992  28.1999978 100.4810014
  76.9179992  29.1679978  99.5340014  77.8089992  27.8359978 100.9720014
  79.1289992  28.5739978 101.1620014  79.1009992  29.3259978 101.9370014
  79.7819992  27.7509978 101.4120014  79.3189992  29.1049978 100.2410014
  77.3499992  27.1359978 102.1970014  77.0739992  27.8079978 102.9960014
  76.5269992  26.4469978 102.0840014  78.2489992  26.5889978 102.4450014
  77.9039992  26.8589978  99.8440014  78.8169992  26.2939978  99.9590014
  78.0229992  27.3659978  98.8970014  77.0499992  26.2139978  99.7000014
  73.8549992  30.4999978 103.6150014  74.9699992  28.4919978 104.5400014
  73.5179992  26.2129978 100.7670014  73.1019992  25.3949978  99.7520014
  71.9769992  24.9549978  99.6200014  74.2589992  25.0299978  98.8600014
  74.9459992  24.3969978  99.4630014  74.7779992  25.9119978  98.4290014
  73.9309992  24.0369978  97.7630014  73.0509992  24.3869978  97.1820014
  73.7689992  23.0459978  98.2380014  75.0369992  23.6579978  96.7400014
  74.5519992  23.1219978  95.8960014  75.6969992  23.0369978  97.3830014
  75.7459992  24.9279978  96.1340014  76.3769992  25.4069978  96.9140014
  74.9509992  25.5959978  95.7400014  76.5729992  24.5599978  94.8600014
  75.9869992  23.7199978  94.4290014  77.4799992  24.0489978  95.2500014
  76.7589992  25.7299978  93.8830014  77.0379992  26.6339978  94.4660014
  75.8249992  25.9009978  93.3060014  77.8259992  25.4849978  92.7560014
  78.8229992  25.2849978  93.2040014  77.8839992  26.4379978  92.1880014
  77.5669992  24.2769978  91.8850014  77.4619992  23.2999978  92.3800014
  77.5429992  24.3099978  90.5320014  77.3199992  23.3329978  90.0770014
  77.7519992  25.5169978  89.6760014  78.6979992  25.3359978  89.1240014
  77.8219992  26.4679978  90.2460014  76.6069992  25.7289978  88.6510014
  76.4369992  24.7359978  88.1830014  77.0609992  26.4549978  87.9430014
  75.4199992  26.3669978  89.2950014  75.5639992  27.4609978  89.4270014
  75.4159992  25.9249978  90.3150014  74.0549992  26.1649978  88.6240014
  73.1429992  26.3969978  89.2140014  73.9849992  25.0729978  88.4320014
  73.9529992  26.8909978  87.3130014  74.3599992  26.1059978  86.6410014
  74.6409992  27.7629978  87.3290014  72.5739992  27.5589978  87.0230014
  72.3199992  28.2419978  87.8620014  71.7179992  26.8639978  86.8840014
  72.6379992  28.4349978  85.8210014  73.6609992  28.6999978  85.4760014
  72.0649992  29.3159978  86.1820014  71.8179992  27.7819978  84.6550014
  70.9469992  27.1799978  84.9920014  72.4969992  27.1279978  84.0670014
  71.3579992  28.4879978  83.9310014 103.8309992  58.8039978  83.0500014
 103.9189992  59.0569978  81.9710014 102.8509992  58.3099978  83.2220014
 104.6469992  58.0499978  83.0470014 103.9699992  60.1379978  83.8060014
 103.1949992  60.7779978  83.3330014 103.6629992  59.9479978  84.8570014
 105.3499992  60.7429978  83.5860014 105.9969992  60.1909978  84.3000014
 105.8429992  60.5479978  82.6090014 105.5739992  62.1619978  84.2070014
 106.6439992  62.4479978  84.2840014 105.0559992  62.7469978  83.4170014
 104.8519992  62.5039978  85.4370014 103.7719992  62.4209978  85.1920014
 105.1599992  61.7859978  86.2270014 105.1539992  63.9439978  85.9830014
 104.5829992  64.6369978  85.3290014 104.6979992  63.8929978  86.9950014
 106.6009992  64.2459978  86.2190014 107.2269992  63.3609978  86.4620014
 106.9339992  64.5899978  85.2160014 106.8369992  65.3729978  87.2850014
 107.8969992  65.6549978  87.1070014 106.1239992  66.2019978  87.0880014
 106.6969992  64.7409978  88.6450014 105.7269992  64.2769978  88.9240014
 107.3849992  63.8699978  88.7040014 107.2139992  65.8009978  89.7210014
 108.2049992  66.1229978  89.3350014 106.6189992  66.7379978  89.7540014
 107.4869992  65.3519978  91.1330014 108.2139992  64.5119978  91.1310014
 107.8009992  66.1889978  91.7930014 106.2329992  64.7489978  91.8290014
 105.3419992  65.4059978  91.9250014 105.7809992  63.9569978  91.1950014
 106.5409992  64.0939978  93.2070014 107.3419992  63.3239978  93.1800014
 106.9979992  64.8379978  93.8940014 105.3039992  63.5609978  93.8810014
 104.5349992  64.3599978  93.8200014 105.0309992  62.5729978  93.4510014
 105.5619992  63.4089978  95.3570014 106.3729992  62.6729978  95.5420014
 106.0369992  64.3279978  95.7620014 104.2659992  62.9679978  96.0820014
 103.1489992  63.1479978  95.6430014 104.5409992  62.3129978  97.2510014
 103.4449992  61.7579978  97.9160014 102.8789992  62.5679978  98.4230014
 102.7259992  61.3009978  97.2030014 103.9359992  60.6859978  98.9490014
 103.1009992  60.0269978  99.2690014 104.5479992  61.3749978 100.0920014
 103.8719992  62.2099978 100.3720014 104.5169992  60.7179978 100.9870014
 105.7679992  61.8979978  99.7810014 106.6119992  62.7099978 100.8160014
 107.2999992  61.5639978 101.6650014 107.3419992  61.5859978 103.1390014
 106.8589992  62.4919978 103.5630014 106.7889992  60.6959978 103.5080014
 108.8009992  61.4809978 103.6670014 108.7679992  61.6719978 104.7290014
 109.1129992  60.4989978 103.3420014 109.8919992  62.4079978 103.1100014
 109.4839992  63.8679978 103.1950014 109.4409992  64.1419978 104.2380014
 110.1689992  64.5589978 102.7240014 108.4789992  63.9949978 102.8200014
 111.1999992  62.2659978 103.8390014 111.5539992  61.2459978 103.8530014
 112.0379992  62.8979978 103.5860014 111.0139992  62.4879978 104.8800014
 110.1619992  61.9749978 101.6640014 109.2009992  62.0269978 101.1750014
 110.4979992  60.9489978 101.6650014 110.8579992  62.6229978 101.1500014
 107.5719992  63.4539978  99.9690014 105.6769992  63.4349978 101.6600014
 104.9289992  59.8739978  98.2720014 105.3209992  58.7409978  98.7810014
 104.8709992  58.1349978  99.6780014 106.5749992  58.1539978  98.0830014
 106.3209992  57.3869978  97.3200014 107.2489992  57.7059978  98.8440014
 107.3219992  59.1819978  97.2580014 107.8709992  59.8609978  97.9440014
 106.5599992  59.7779978  96.7120014 108.3769992  58.5829978  96.2790014
 107.9839992  57.8269978  95.5670014 109.0729992  57.8839978  96.7910014
 109.3259992  59.6059978  95.6360014 110.2139992  59.0789978  95.2260014
 109.7199992  60.2619978  96.4420014 108.6849992  60.5159978  94.4940014
 109.4609992  61.2729978  94.2510014 107.7839992  61.0199978  94.9040014
 108.3749992  59.7259978  93.1930014 107.5759992  58.9639978  93.3130014
 109.3099992  59.2389978  92.8420014 107.8099992  60.5369978  92.0470014
 108.5189992  61.3739978  91.8680014 106.9169992  61.0409978  92.4770014
 107.6089992  59.8259978  90.7500014 106.6279992  59.3759978  90.5410014
 108.5849992  59.7809978  89.8150014 108.3759992  59.2329978  88.8840014
 109.9389992  60.3939978  89.9630014 110.2619992  60.2119978  91.0110014
 109.9489992  61.4909978  89.7890014 110.9579992  59.9309978  88.8770014
 110.6389992  59.0599978  88.2640014 111.8789992  59.5669978  89.3810014
 111.5149992  61.0069978  87.9190014 112.0439992  60.5149978  87.0750014
 112.2389992  61.5189978  88.5890014 110.5609992  62.0419978  87.3790014
 110.8809992  63.0389978  87.7520014 109.5389992  61.7109978  87.6610014
 110.5729992  62.2209978  85.8480014 111.5719992  62.4459978  85.4170014
 109.9789992  63.1059978  85.5350014 110.0629992  60.9369978  85.1070014
 109.0109992  60.9379978  85.4640014 110.5299992  59.9629978  85.3630014
 109.9879992  61.1289978  83.6200014 109.3019992  61.9749978  83.3980014
 109.5209992  60.2489978  83.1290014 111.3429992  61.2399978  82.9850014
 111.6779992  62.2889978  83.1290014 111.2219992  61.0169978  81.9030014
 111.9839992  60.4999978  83.5110014 108.1799992  45.1349978  80.8440014
 108.5859992  45.8729978  80.1200014 107.0849992  45.1949978  80.6690014
 108.5609992  44.1499978  80.5020014 108.3949992  45.3389978  82.3500014
 109.4439992  45.0449978  82.5680014 108.3429992  46.4109978  82.6370014
 107.3909992  44.6439978  83.2260014 106.3919992  45.1289978  83.1900014
 107.3639992  43.5869978  82.8840014 107.8559992  44.6579978  84.7210014
 107.0349992  44.1739978  85.2930014 108.7209992  43.9789978  84.8740014
 108.2519992  45.9429978  85.3930014 108.7759992  45.6859978  86.3390014
 109.0539992  46.4339978  84.8010014 107.0329992  46.8869978  85.5790014
 106.8719992  47.2389978  84.5370014 106.2019992  46.2509978  85.9510014
 107.2789992  48.1329978  86.4950014 107.8979992  48.8959978  85.9760014
 106.2679992  48.5729978  86.6300014 107.8819992  47.8749978  87.9250014
 108.8979992  47.4689978  87.7360014 107.9379992  48.8679978  88.4210014
 107.1169992  46.9919978  88.8280014 106.0879992  47.3639978  89.0230014
 107.0369992  45.9979978  88.3370014 107.9229992  46.6669978  90.1410014
 107.6779992  45.6579978  90.5370014 108.9129992  46.3119978  89.7830014
 107.8739992  47.8149978  91.1170014 108.1179992  48.7739978  90.6110014
 106.8429992  47.8989978  91.5220014 108.7769992  47.6079978  92.3150014
 108.7979992  46.5289978  92.5780014 109.8109992  47.9159978  92.0490014
 108.3529992  48.2629978  93.6580014 108.1989992  49.3589978  93.5600014
 107.4539992  47.7919978  94.1090014 109.3579992  48.1459978  94.7940014
 110.3789992  48.5769978  94.7130014 108.9009992  48.7099978  95.6350014
 109.5059992  46.5829978  95.1930014 109.6679992  45.9659978  94.2840014
 110.3069992  46.4549978  95.9530014 108.1999992  45.9409978  95.8030014
 107.3979992  45.2579978  95.1770014 108.2309992  46.3179978  96.9890014
 107.2649992  45.6589978  97.7480014 106.1769992  45.7749978  97.5520014
 107.4029992  44.5599978  97.6670014 107.4159992  45.9909978  99.2900014
 108.4119992  45.8119978  99.7490014 106.4999992  45.1089978 100.1910014
 105.4689992  45.2319978  99.7950014 106.7209992  44.0329978 100.0260014
 106.6179992  45.3609978 101.5580014 105.6899992  46.3719978 102.2880014
 104.5489992  46.6829978 101.2230014 103.1979992  46.3159978 101.5830014
 102.5569992  46.1659978 100.6880014 103.1169992  45.2949978 102.0140014
 102.6639992  47.3489978 102.5470014 101.7849992  46.8699978 102.9520014
 103.2949992  47.4339978 103.4190014 102.4379992  48.8119978 101.9630014
 103.7709992  49.4299978 101.6260014 104.3469992  49.5659978 102.5290014
 104.2889992  48.7849978 100.9320014 103.6099992  50.4349978 101.2630014
 101.4999992  48.7319978 100.7690014 101.1359992  49.6479978 100.3280014
 101.8779992  48.0309978 100.0410014 100.5929992  48.2329978 101.0760014
 101.7179992  49.7399978 102.9780014 102.4119992  50.0199978 103.7560014
 100.8079992  49.2309978 103.2590014 101.4569992  50.6789978 102.5120014
 105.1769992  45.6479978 103.4450014 106.4729992  47.6079978 102.5270014
 107.0259992  47.4329978  99.5140014 107.8169992  48.3759978  99.2020014
 108.9259992  48.2659978  98.7380014 107.1359992  49.6419978  99.6170014
 107.7029992  50.1149978 100.4470014 106.1159992  49.4379978 100.0080014
 106.8859992  50.6869978  98.4810014 107.8559992  51.0269978  98.0590014
 106.3309992  51.5149978  98.9710014 105.9209992  50.1889978  97.4180014
 104.9439992  49.9099978  97.8680014 106.3359992  49.2789978  96.9350014
 105.7259992  51.1559978  96.2500014 106.6809992  51.5519978  95.8410014
 105.2039992  52.0419978  96.6700014 104.7889992  50.4699978  95.2630014
 103.8609992  50.3109978  95.8520014 105.2529992  49.5219978  94.9180014
 104.5049992  51.3559978  94.0530014 105.5029992  51.4659978  93.5770014
 104.0869992  52.3269978  94.3950014 103.4529992  50.7789978  93.0070014
 103.6279992  51.1809978  91.9860014 102.5479992  51.1799978  93.5110014
 103.2809992  49.2699978  92.8790014 102.9389992  48.8469978  93.8350014
 103.4429992  48.4389978  91.8480014 103.4619992  47.3529978  92.0190014
 103.8379992  48.8179978  90.4870014 104.1209992  47.9659978  89.8320014
 104.7519992  49.4499978  90.5070014 102.7759992  49.6459978  89.7520014
 103.2839992  50.5429978  89.3390014 102.0409992  50.0199978  90.4960014
 101.9959992  48.8019978  88.7240014 101.4509992  48.0679978  89.3550014
 102.7179992  48.2559978  88.0790014 100.8679992  49.6219978  88.0870014
 101.2149992  50.6479978  87.8400014 100.1649992  49.8229978  88.9230014
  99.9279992  48.8899978  87.0250014  98.9699992  49.4409978  86.9120014
  99.7139992  47.8439978  87.3330014 100.4699992  48.8129978  85.6000014
  99.5829992  48.7449978  84.9330014 101.1459992  47.9599978  85.3790014
 101.1379992  50.1429978  85.1750014 102.1759992  50.0999978  85.5700014
 100.6809992  51.0369978  85.6510014 101.0509992  50.4799978  83.6250014
 101.7159992  51.3489978  83.4340014  99.9929992  50.7509978  83.4200014
 101.5289992  49.6499978  83.0630014  78.0079992 114.6379978  84.3390014
  76.9569992 114.7139978  84.6910014  77.9519992 114.9489978  83.2740014
  78.6569992 115.3209978  84.9280014  78.5519992 113.1969978  84.4910014
  79.5519992 113.0499978  84.0290014  78.9539992 113.1899978  85.5270014
  77.6929992 111.9219978  84.1230014  77.7389992 111.6699978  83.0420014
  78.0349992 111.1569978  84.8530014  76.0969992 111.9409978  84.3400014
  75.7669992 112.7759978  83.6850014  75.6809992 111.0729978  83.7860014
  75.8349992 112.1699978  85.8980014  75.8809992 111.1979978  86.4350014
  76.5849992 112.8899978  86.2900014  74.3689992 112.5889978  85.9810014
  74.1549992 113.4799978  85.3520014  73.6369992 111.8069978  85.6860014
  73.8399992 113.0229978  87.3910014  74.4979992 113.7999978  87.8330014
  72.8289992 113.4529978  87.2240014  73.6299992 111.7939978  88.3090014
  73.4009992 110.8469978  87.7750014  74.6199992 111.7079978  88.8060014
  72.4769992 112.1759978  89.2210014  72.7129992 113.1259978  89.7470014
  71.6209992 112.4629978  88.5730014  72.0819992 111.0799978  90.1560014
  71.1089992 111.2819978  90.6550014  72.0679992 110.1429978  89.5590014
  73.1719992 110.9029978  91.2320014  73.2569992 109.8619978  91.6120014
  74.1539992 111.1969978  90.8040014  72.9819992 111.7849978  92.4460014
  72.5049992 112.7419978  92.1450014  72.1319992 111.3039978  92.9770014
  74.2349992 111.8799978  93.3970014  74.4329992 111.0019978  94.0480014
  75.0879992 112.0069978  92.6960014  74.1979992 113.0179978  94.3780014
  75.1139992 113.0849978  95.0030014  74.1199992 113.9629978  93.7990014
  72.9569992 113.0509978  95.3080014  72.7659992 113.9189978  95.9740014
  72.1089992 113.0679978  94.5900014  72.9399992 111.8209978  96.1240014
  72.0279992 110.9299978  96.0860014  73.8029992 111.9439978  97.1040014
  73.9379992 110.8229978  98.0120014  73.1049992 110.8869978  98.7440014
  73.8529992 109.8549978  97.4740014  75.1879992 110.7599978  98.8250014
  75.3099992 109.7019978  99.1380014  75.1689992 111.6829978 100.0620014
  75.1869992 112.7479978  99.7460014  74.2279992 111.5169978 100.6290014
  76.2319992 111.4529978 100.9170014  76.4919992 112.1909978 102.2680014
  77.7449992 111.4959978 102.7000014  78.8729992 111.4259978 101.8300014
  78.9679992 112.3129978 101.1670014  79.7179992 111.4499978 102.5510014
  79.0199992 110.1439978 101.0480014  78.2519992 110.1009978 100.2900014
  80.0119992 110.1509978 100.6230014  78.8689992 108.8419978 101.8620014
  79.7649992 108.8569978 103.0760014  79.7429992 107.8759978 103.5270014
  80.8119992 108.9789978 102.8440014  79.3779992 109.5199978 103.8360014
  77.4369992 108.7019978 102.3750014  77.2119992 109.4959978 103.0720014
  76.7999992 108.6679978 101.5040014  77.4259992 107.7819978 102.9390014
  79.3429992 107.6969978 101.1160014  80.3509992 107.8429978 100.7560014
  78.6709992 107.4909978 100.2950014  79.3199992 106.7939978 101.7080014
  76.7379992 113.6069978 102.0990014  75.3919992 111.7959978 103.2160014
  76.4189992 111.1509978  98.1650014  76.8579992 110.6999978  97.0350014
  76.6339992 109.6699978  96.4400014  77.8249992 111.7879978  96.5370014
  78.1679992 112.5099978  97.3080014  77.2219992 112.3779978  95.8150014
  79.0339992 111.1089978  95.8920014  78.6999992 110.4799978  95.0390014
  79.6229992 110.5789978  96.6710014  80.0309992 112.1259978  95.3100014
  80.7639992 111.5809978  94.6770014  80.4719992 112.7019978  96.1520014
  79.4589992 113.1429978  94.3110014  80.0929992 114.0459978  94.1800014
  78.5199992 113.5659978  94.7270014  79.0739992 112.4999978  92.9270014
  78.2389992 111.8289978  93.2210014  79.9359992 111.8869978  92.5860014
  78.6069992 113.4999978  91.9340014  79.4849992 114.0709978  91.5650014
  77.9229992 114.2749978  92.3410014  78.0009992 112.7699978  90.7570014
  77.6169992 113.5749978  90.0940014  77.0309992 112.3209978  91.0580014
  79.0119992 111.8589978  90.0620014  80.0449992 112.2179978  89.9430014
  78.7629992 110.6679978  89.5010014  79.6129992 110.1819978  89.0000014
  77.3759992 110.0959978  89.5050014  76.7199992 110.8489978  89.0170014
  77.1039992 109.8739978  90.5590014  77.3119992 108.7759978  88.7220014
  77.5889992 109.0609978  87.6850014  76.2719992 108.3979978  88.8230014
  78.3539992 107.7419978  89.2670014  78.2849992 107.5009978  90.3490014
  79.4159992 108.0669978  89.2630014  78.1999992 106.3849978  88.4140014
  77.1819992 105.9429978  88.4740014  78.9059992 105.6849978  88.9100014
  78.5109992 106.4879978  86.9020014  77.6779992 107.0269978  86.4010014
  78.5449992 105.4249978  86.5790014  79.8199992 107.1859978  86.4220014
  80.6959992 106.6069978  86.7830014  79.8579992 108.2039978  86.8650014
  79.8989992 107.2489978  84.9090014  78.8979992 107.4869978  84.4900014
  80.1489992 106.2149978  84.5910014  80.9999992 108.0959978  84.4220014
  81.0349992 108.1499978  83.3130014  81.9419992 107.6509978  84.8090014
  80.9029992 109.1179978  84.8470014  55.3829992  49.1679978  82.1420014
  56.0199992  49.9629978  81.6990014  54.3829992  49.1599978  81.6590014
  55.9339992  48.2139978  81.9980014  55.1339992  49.5059978  83.6010014
  54.5899992  50.4619978  83.7610014  54.3989992  48.7529978  83.9570014
  56.3229992  49.3999978  84.5080014  56.6439992  48.3379978  84.5650014
  57.2619992  49.8719978  84.1480014  56.0999992  50.1109978  85.8820014
  56.3089992  51.2009978  85.8310014  55.0159992  49.9369978  86.0510014
  56.9719992  49.5339978  87.0610014  58.0359992  49.6189978  86.7530014
  56.8509992  50.1819978  87.9560014  56.7069992  48.0399978  87.5620014
  55.6229992  47.8839978  87.7530014  57.1659992  47.4849978  86.7160014
  57.3719992  47.5829978  88.8900014  56.9339992  48.1049978  89.7670014
  57.0509992  46.5209978  88.9420014  58.8619992  47.5889978  89.0900014
  59.1779992  46.8989978  89.9010014  59.3579992  47.2239978  88.1650014
  59.3509992  48.9939978  89.4460014  60.4349992  48.9659978  89.6870014
  59.1389992  49.7229978  88.6350014  58.6959992  49.6619978  90.7060014
  59.0699992  50.6929978  90.5240014  57.5859992  49.6529978  90.7680014
  59.1949992  49.0859978  92.0670014  58.8059992  48.0449978  92.0710014
  60.2979992  49.1309978  92.1950014  58.5929992  49.7449978  93.3160014
  57.4869992  49.7019978  93.2130014  58.7879992  49.1429978  94.2300014
  58.9969992  51.2449978  93.5570014  60.0969992  51.2969978  93.7030014
  58.7059992  51.8709978  92.6860014  58.3609992  51.9349978  94.7550014
  58.4709992  51.2139978  95.5930014  58.8899992  52.8949978  94.9390014
  56.9539992  52.2089978  94.6220014  56.7859992  52.8699978  93.7450014
  56.3449992  51.3009978  94.4220014  56.5209992  53.0079978  95.8640014
  56.5789992  54.1639978  96.0710014  56.0149992  52.0959978  96.7450014
  55.5359992  52.5949978  98.0080014  56.2919992  52.3759978  98.7930014
  55.2179992  53.6569978  97.9370014  54.2309992  51.8259978  98.4940014
  53.3799992  52.2869978  97.9480014  53.9869992  51.8779978 100.0460014
  54.9359992  51.7769978 100.6160014  53.5959992  52.8669978 100.3670014
  53.0059992  50.9379978 100.4060014  53.3089992  49.6429978 101.2900014
  54.8019992  49.4369978 100.9670014  55.4829992  48.1989978 101.2420014
  54.7449992  47.3899978 101.0560014  56.2729992  48.0999978 100.4670014
  56.0599992  47.9339978 102.5670014  55.3329992  48.1269978 103.3430014
  56.3789992  46.9179978 102.7450014  57.2739992  48.7659978 103.0350014
  57.0339992  50.2319978 103.0530014  57.8959992  50.8269978 103.3170014
  56.7339992  50.4659978 102.0430014  56.2309992  50.4599978 103.7390014
  57.6709992  48.3569978 104.4170014  58.0419992  47.3429978 104.4230014
  58.4789992  49.0259978 104.6750014  56.8299992  48.5189978 105.0740014
  58.4069992  48.5189978 102.0690014  58.0619992  49.1029978 101.2280014
  58.4939992  47.4519978 101.9260014  59.3399992  48.8909978 102.4640014
  53.2639992  49.8609978 102.7340014  52.5299992  48.4979978 100.7270014
  54.3789992  50.3999978  98.2020014  53.4219992  49.7279978  97.7210014
  52.2759992  50.1509978  97.4880014  53.7959992  48.2669978  97.3750014
  52.8489992  47.6859978  97.3880014  54.5499992  47.8259978  98.0620014
  54.5779992  48.2429978  96.0520014  54.9109992  47.2089978  95.8210014
  55.4189992  48.9529978  96.2000014  53.8539992  48.7579978  94.8130014
  53.8189992  49.8679978  94.8160014  52.8359992  48.3239978  94.9080014
  54.3129992  48.3509978  93.4760014  54.3039992  47.2479978  93.3420014
  55.3719992  48.4889978  93.1700014  53.4849992  49.0459978  92.3650014
  52.4109992  48.9509978  92.6340014  53.6059992  48.3719978  91.4890014
  53.9569992  50.4999978  92.0830014  55.0659992  50.5199978  92.1390014
  53.5159992  51.1869978  92.8360014  53.5349992  51.0949978  90.7260014
  53.8989992  52.1389978  90.6230014  52.4249992  51.0469978  90.7460014
  54.0919992  50.2099978  89.5860014  55.1749992  50.0209978  89.6080014
  53.3599992  49.6149978  88.6310014  53.8879992  48.9239978  87.9570014
  51.8289992  49.7079978  88.4220014  51.2989992  49.8899978  89.3810014
  51.4019992  48.7369978  88.0910014  51.4069992  50.9129978  87.6900014
  51.8819992  51.7289978  88.2760014  50.3129992  51.0339978  87.8420014
  51.7459992  51.0629978  86.1480014  51.3659992  50.2069978  85.5500014
  52.8269992  51.0099978  85.8960014  51.1079992  52.4379978  85.8260014
  51.5579992  53.1789978  86.5200014  50.0269992  52.2789978  86.0240014
  51.2659992  53.0189978  84.4340014  52.1969992  53.6199978  84.3580014
  50.4039992  53.6899978  84.2290014  51.3659992  51.9689978  83.3530014
  50.4089992  51.4089978  83.4350014  52.2459992  51.2949978  83.4300014
  51.4219992  52.3339978  81.8330014  50.5689992  53.0159978  81.6310014
  51.2609992  51.3279978  81.3900014  52.8119992  52.9229978  81.3420014
  52.9549992  52.8479978  80.2430014  53.5099992  52.1809978  81.7860014
  53.2839992  53.8779978  81.6580014  62.2029992  36.7269978  85.1760014
  61.5539992  36.0199978  84.6150014  62.6169992  36.2439978  86.0870014
  63.1079992  36.9199978  84.5610014  61.5589992  38.0429978  85.5330014
  60.7379992  38.4339978  84.8940014  61.0189992  37.7829978  86.4690014
  62.5659992  39.2579978  85.7900014  63.1249992  39.5699978  84.8820014
  61.8779992  40.0969978  86.0300014  63.4629992  38.8499978  86.9070014
  62.8849992  38.6999978  87.8440014  63.9979992  37.9409978  86.5580014
  64.4869992  39.9879978  87.1380014  64.8659992  40.0239978  86.0940014
  64.0319992  40.9779978  87.3580014  65.6629992  39.5869978  88.1600014
  65.8779992  38.5229978  87.9230014  66.5829992  40.1649978  87.9270014
  65.2049992  39.7129978  89.6260014  64.1229992  39.4619978  89.6470014
  65.7299992  38.9179978  90.1980014  65.4769992  41.1099978  90.2700014
  66.5159992  41.5009978  90.2180014  64.8919992  41.9369978  89.8160014
  65.0179992  41.1219978  91.7260014  65.0249992  42.1269978  92.1990014
  63.9789992  40.7579978  91.5790014  65.6309992  39.9669978  92.4980014
  65.4069992  38.9479978  92.1140014  66.7289992  40.1399978  92.4940014
  65.1559992  39.8689978  93.9830014  65.7379992  39.0359978  94.4320014
  65.3859992  40.7399978  94.6320014  63.6649992  39.4209978  94.1670014
  63.0049992  40.3139978  94.1210014  63.4669992  38.6449978  93.3980014
  63.3389992  38.8319978  95.5110014  64.0069992  38.0699978  95.9650014
  63.3549992  39.6749978  96.2340014  61.8969992  38.2029978  95.6420014
  61.2709992  38.9139978  95.0620014  61.7709992  37.2159978  95.1480014
  61.5109992  38.2509978  97.0970014  62.1169992  38.9309978  97.7320014
  60.4329992  38.5189978  97.0980014  61.6749992  36.8409978  97.7310014
  60.8939992  35.9319978  97.5410014  62.7559992  36.7409978  98.4980014
  63.2869992  35.5159978  99.0320014  62.8019992  35.4449978 100.0290014
  63.0549992  34.6399978  98.3890014  64.7689992  35.6739978  99.2910014
  65.0799992  34.6569978  99.6130014  65.0109992  36.7079978 100.4180014
  64.5509992  37.6999978 100.2180014  64.5749992  36.3209978 101.3640014
  66.4309992  36.9259978 100.5960014  67.0269992  37.9339978 101.6960014
  65.7899992  38.9089978 101.9370014  65.5859992  39.6889978 103.1110014
  65.0129992  39.1499978 103.8960014  66.5609992  39.8689978 103.6110014
  64.7989992  40.9229978 102.7460014  64.7969992  41.5329978 103.6380014
  65.2709992  41.4729978 101.9460014  63.4599992  40.5979978 102.2130014
  63.5199992  40.2549978 100.6980014  62.5119992  40.1729978 100.3180014
  64.1049992  40.9099978 100.0690014  63.9409992  39.2609978 100.7340014
  62.8249992  39.5349978 102.9760014  63.3869992  38.6679978 102.6620014
  63.0489992  39.7359978 104.0140014  61.7749992  39.4759978 102.7280014
  62.6369992  41.8759978 102.4770014  62.6279992  42.0889978 103.5360014
  61.6319992  41.5749978 102.2220014  63.0069992  42.7479978 101.9600014
  67.2259992  37.1289978 102.9150014  68.1249992  38.7259978 101.1400014
  65.5359992  36.1799978  98.1710014  65.6919992  35.3909978  97.1560014
  65.0379992  34.3719978  97.0030014  66.8259992  35.9439978  96.2550014
  66.5129992  37.0049978  96.1440014  66.6799992  35.4399978  95.2750014
  68.0919992  35.6639978  96.9700014  68.2489992  34.5659978  96.9210014
  68.1709992  36.0619978  98.0050014  69.3019992  36.3339978  96.2270014
  70.0929992  36.6789978  96.9270014  68.8669992  37.1829978  95.6570014
  70.1749992  35.3949978  95.3260014  70.6939992  34.5759978  95.8680014
  70.9599992  36.1009978  94.9810014  69.5039992  34.8059978  94.0980014
  68.6899992  34.1299978  94.4370014  70.1859992  34.1639978  93.5000014
  69.0389992  35.7649978  92.9750014  69.8419992  36.5309978  93.0200014
  68.0879992  36.2899978  93.2040014  68.9529992  35.1319978  91.5320014
  68.0369992  34.5099978  91.6230014  69.6939992  34.3229978  91.3590014
  68.7369992  36.1639978  90.3810014  69.5859992  36.7909978  90.0700014
  67.5819992  36.2819978  89.7110014  67.4729992  36.9699978  88.8600014
  66.2799992  35.4759978  89.9410014  65.3979992  36.1459978  89.8520014
  66.1269992  35.2139978  91.0100014  66.0879992  34.2169978  89.0570014
  65.3969992  33.5469978  89.6130014  67.0769992  33.7409978  88.8860014
  65.4979992  34.5829978  87.7300014  64.6379992  35.2769978  87.8420014
  65.2229992  33.5919978  87.3080014  66.5949992  35.1399978  86.8030014
  67.3749992  34.3849978  86.5640014  67.0239992  36.0709978  87.2310014
  66.0279992  35.5579978  85.4140014  65.6389992  36.5869978  85.5690014
  65.3879992  34.7299978  85.0420014  67.1759992  35.5019978  84.3760014
  67.5439992  34.4649978  84.2260014  67.9499992  36.1609978  84.8240014
  66.7209992  36.0439978  82.9660014  67.6039992  35.9339978  82.3000014
  66.6399992  37.1399978  83.1240014  65.4839992  35.3909978  82.4630014
  64.5559992  35.6679978  83.0080014  65.5369992  34.2819978  82.4200014
  65.3579992  35.6059978  81.3810014  86.3789992 108.0399978  80.4160014
  86.6249992 107.0419978  80.8360014  87.2789992 108.6529978  80.1960014
  86.0389992 107.8449978  79.3760014  85.3809992 108.8109978  81.1690014
  85.0959992 109.7829978  80.7110014  84.5979992 108.0419978  81.3420014
  85.8229992 109.1809978  82.5860014  85.0619992 109.8109978  83.0940014
  85.9599992 108.2059978  83.0990014  87.2389992 109.9159978  82.6270014
  88.0599992 109.1739978  82.5370014  87.3759992 110.6119978  81.7710014
  87.4399992 110.6439978  83.9450014  86.7609992 111.5179978  83.8540014
  87.1769992 110.0139978  84.8220014  88.8009992 111.2889978  84.1630014
  89.5529992 110.5059978  83.9310014  88.8469992 112.2409978  83.5920014
  88.8229992 111.7549978  85.6760014  88.0449992 112.5359978  85.8100014
  88.5319992 110.9659978  86.4020014  90.1409992 112.3729978  86.1850014
  90.9469992 111.8659978  85.6120014  90.1059992 113.4559978  85.9400014
  90.4639992 112.3169978  87.6650014  91.2629992 113.0549978  87.8910014
  89.5099992 112.6259978  88.1440014  90.9349992 110.9829978  88.0760014
  90.1789992 110.1689978  88.1010014  91.6529992 110.7589978  87.2590014
  91.7639992 110.8659978  89.3710014  92.7819992 111.2039978  89.0810014
  91.3279992 111.4389978  90.2170014  91.8619992 109.3869978  89.9190014
  92.0689992 108.7199978  89.0550014  92.7729992 109.4779978  90.5500014
  90.7169992 109.0779978  90.8550014  89.7589992 109.1359978  90.2960014
  90.7469992 108.0169978  91.1830014  90.7059992 109.8699978  92.1990014
  91.7319992 110.2009978  92.4680014  90.0099992 110.7079978  91.9840014
  90.1849992 109.0679978  93.4250014  89.1459992 108.6819978  93.3460014
  90.7379992 108.1049978  93.3930014  90.4839992 109.9109978  94.6650014
  90.5599992 111.1469978  94.6530014  90.7559992 109.1019978  95.7030014
  91.0309992 109.8539978  96.8840014  91.3179992 109.1099978  97.6580014
  91.8249992 110.6109978  96.7070014  89.7389992 110.5179978  97.5400014
  89.5939992 111.5299978  97.1050014  89.8549992 110.7659978  99.0840014
  90.7829992 111.3449978  99.2760014  88.9679992 111.3489978  99.4140014
  89.8639992 109.5209978  99.6970014  89.4879992 109.2269978 101.2450014
  87.9139992 109.5039978 101.4230014  86.9289992 108.6729978 100.8170014
  86.8089992 108.9859978  99.7580014  87.1699992 107.5989978 100.9620014
  85.5719992 108.7399978 101.6520014  85.2319992 109.7549978 101.5050014
  84.9209992 108.0579978 101.1260014  85.6349992 108.3789978 103.1620014
  86.3839992 109.4529978 103.9190014  85.8479992 110.3819978 104.0490014
  86.6199992 109.1449978 104.9270014  87.3169992 109.6389978 103.4070014
  84.1609992 108.3769978 103.6560014  84.0529992 108.2279978 104.7200014
  83.6279992 109.2689978 103.3610014  83.6619992 107.5729978 103.1370014
  86.2069992 106.9659978 103.3230014  85.9229992 106.3559978 102.4790014
  85.7129992 106.5499978 104.1890014  87.2749992 106.9959978 103.4830014
  89.6879992 107.7749978 101.4990014  90.2429992 110.1039978 102.1130014
  88.5709992 109.7659978  97.1380014  87.3369992 110.4159978  97.1150014
  87.2499992 111.6069978  97.3560014  86.2099992 109.4309978  96.8740014
  85.3379992 109.5299978  97.5550014  86.5109992 108.3609978  96.8670014
  85.5739992 109.5469978  95.4280014  84.9369992 108.6379978  95.3880014
  86.2699992 109.2469978  94.6160014  84.9219992 110.8989978  95.2390014
  85.7939992 111.5799978  95.1340014  84.4129992 111.1469978  96.1950014
  84.0179992 111.0599978  93.9580014  83.5089992 112.0429978  93.8580014
  83.2519992 110.2639978  94.0770014  84.9669992 110.7879978  92.7660014
  84.4369992 110.9429978  91.8020014  85.1809992 109.6979978  92.7540014
  86.1519992 111.7419978  92.4750014  86.8739992 111.4479978  93.2660014
  85.9309992 112.8089978  92.6940014  86.7569992 111.5469978  91.0760014
  86.8299992 110.4879978  90.7490014  87.7899992 111.9329978  91.2050014
  86.0549992 112.3209978  90.0090014  85.6399992 113.2169978  90.4950014
  85.9139992 112.0349978  88.7200014  85.3049992 112.7369978  88.1310014
  86.4149992 110.7379978  88.0860014  87.5149992 110.5889978  88.1370014
  86.0389992 110.9819978  87.0690014  85.6859992 109.4379978  88.4880014
  84.6509992 109.6229978  88.1300014  85.6579992 109.3089978  89.5910014
  86.2209992 108.1279978  87.8930014  86.3329992 108.4589978  86.8380014
  85.5269992 107.2679978  88.0060014  87.5899992 107.6639978  88.5170014
  87.3379992 107.3159978  89.5420014  88.2909992 108.5239978  88.5830014
  88.1659992 106.4919978  87.7000014  87.4919992 105.6099978  87.6800014
  89.1299992 106.2729978  88.2080014  88.6769992 106.7429978  86.2750014
  87.8699992 107.0999978  85.6010014  89.1449992 105.8389978  85.8300014
  89.6719992 107.8819978  86.3040014  90.4419992 107.7689978  87.0970014
  89.0639992 108.8079978  86.3870014  90.5899992 108.0509978  85.0430014
  91.2639992 108.9339978  85.0760014  89.8929992 108.0399978  84.1780014
  91.2199992 107.1489978  84.8860014  62.7059992 106.8219978  81.8160014
  61.9229992 106.5139978  81.0910014  63.7299992 106.8659978  81.3870014
  62.4289992 107.8379978  82.1710014  62.5279992 105.8759978  83.0460014
  62.9439992 106.3019978  83.9840014  61.4459992 105.7339978  83.2540014
  63.1869992 104.5499978  83.0510014  62.7369992 103.7889978  82.3770014
  64.1099992 104.7079978  82.4530014  63.2479992 103.9479978  84.4450014
  63.7089992 102.9519978  84.2710014  63.9479992 104.4969978  85.1110014
  61.9679992 103.8229978  85.2030014  61.6049992 104.7489978  85.6970014
  61.1759992 103.3899978  84.5560014  62.2089992 102.8119978  86.3440014
  62.5999992 101.9609978  85.7450014  63.0429992 103.1929978  86.9700014
  61.0009992 102.1979978  87.0800014  60.1419992 102.1569978  86.3770014
  61.1279992 101.1379978  87.3870014  60.4839992 103.0179978  88.3090014
  60.2119992 104.0369978  87.9600014  59.5769992 102.4809978  88.6590014
  61.4699992 103.1689978  89.4440014  61.8379992 102.1909978  89.8210014
  62.4119992 103.6029978  89.0470014  60.9839992 103.9059978  90.6850014
  60.7179992 104.9759978  90.5440014  60.0439992 103.4179978  91.0200014
  61.9459992 103.9919978  91.8260014  62.1479992 102.9299978  92.0830014
  62.8459992 104.5099978  91.4300014  61.4119992 104.8479978  92.9680014
  62.2189992 105.3869978  93.5090014  61.0649992 105.6999978  92.3450014
  60.3449992 104.2359978  93.7760014  59.8629992 105.0599978  94.3440014
  59.5919992 103.8589978  93.0510014  60.9239992 103.1519978  94.7090014
  59.9949992 102.7359978  95.1530014  61.3769992 102.2839978  94.1850014
  61.8649992 103.6769978  95.8390014  62.9489992 103.5959978  95.6050014
  61.5869992 104.7109978  96.1350014  61.7089992 102.7559978  97.0510014
  61.5459992 101.5739978  97.0460014  61.8889992 103.5199978  98.1910014
  61.9139992 102.9069978  99.4520014  60.8589992 102.6969978  99.7310014
  62.4839992 101.9549978  99.4140014  62.5689992 103.8079978 100.5500014
  62.5739992 103.2789978 101.5270014  61.7649992 105.0449978 100.7860014
  61.7909992 105.6839978  99.8780014  60.7109992 104.7149978 100.9090014
  62.3759992 105.7959978 101.8310014  61.7519992 106.2939978 103.1830014
  62.3129992 107.7779978 103.2560014  63.6659992 107.8869978 103.2710014
  63.9049992 108.8849978 103.6970014  64.1989992 107.2509978 104.0100014
  64.2169992 107.8869978 101.7920014  65.2339992 108.2269978 101.9200014
  64.1889992 106.8989978 101.3560014  63.6079992 108.8169978 100.7590014
  63.1239992 110.0929978 101.3510014  63.8539992 110.5259978 102.0200014
  62.8459992 110.7849978 100.5700014  62.2239992 109.9189978 101.9210014
  64.7199992 109.0929978  99.7440014  65.5339992 109.5709978 100.2700014
  64.9989992 108.1629978  99.2720014  64.4139992 109.8269978  99.0130014
  62.4369992 108.1479978  99.9570014  62.8209992 107.2539978  99.4880014
  62.2299992 108.7589978  99.0900014  61.6129992 107.9359978 100.6220014
  60.2709992 106.5329978 103.0270014  62.2529992 105.4909978 104.3340014
  63.8759992 104.1629978 100.1790014  64.8079992 103.3649978 100.6360014
  64.7079992 102.4079978 101.3900014  66.1089992 103.8629978 100.0040014
  66.9719992 103.4039978 100.5330014  66.1749992 104.9679978 100.1010014
  66.4039992 103.3769978  98.5610014  66.2789992 102.2759978  98.4860014
  67.5079992 103.4969978  98.5330014  65.7719992 104.0469978  97.3430014
  64.7369992 103.6539978  97.2550014  66.3319992 103.8449978  96.4050014
  65.8189992 105.5779978  97.4440014  66.8019992 105.9799978  97.7700014
  65.0319992 105.7909978  98.1990014  65.3299992 106.4339978  96.2500014
  64.6749992 107.2389978  96.6460014  64.6009992 105.7859978  95.7180014
  66.4149992 106.7909978  95.2700014  66.7689992 105.8559978  94.7870014
  67.3679992 107.2269978  95.6380014  65.9319992 107.7339978  94.1370014
  66.7779992 108.0639978  93.4970014  65.7119992 108.7209978  94.5960014
  64.7999992 107.2289978  93.2650014  63.9019992 107.0359978  93.8700014
  64.8679992 106.9489978  91.9420014  63.8879992 106.6619978  91.5340014
  66.1319992 107.1009978  91.0220014  66.8989992 106.3449978  91.2950014
  66.5149992 108.1259978  91.2150014  65.7759992 106.9979978  89.5490014
  65.4459992 105.9439978  89.4300014  66.7359992 107.0549978  88.9940014
  64.7339992 107.9299978  89.0470014  65.1439992 108.9609978  88.9870014
  63.8259992 107.9249978  89.6860014  64.1359992 107.6019978  87.6190014
  63.6629992 106.6069978  87.7590014  64.9259992 107.4789978  86.8470014
  63.0769992 108.5549978  87.0420014  62.1889992 108.4579978  87.7030014
  62.7609992 108.0729978  86.0920014  63.4909992 110.0099978  86.7030014
  63.6639992 110.4709978  87.6990014  62.5739992 110.4169978  86.2260014
  64.6739992 110.1879978  85.8060014  65.5799992 109.6149978  86.0970014
  64.9899992 111.2489978  85.7160014  64.4289992 109.8029978  84.3440014
  64.1209992 108.7359978  84.3240014  65.4029992 109.8649978  83.8130014
  63.6789992 110.4919978  83.9010014 116.4029992  84.5979978  85.1980014
 115.5569992  83.9069978  84.9960014 116.1759992  85.6859978  85.1990014
 116.6389992  84.4009978  86.2660014 117.6649992  84.3319978  84.3340014
 117.6519992  83.3069978  83.9060014 117.6359992  85.0939978  83.5260014
 118.9809992  84.4179978  85.0770014 119.8629992  84.3919978  84.4020014
 118.9959992  85.4249978  85.5460014 119.2909992  83.3449978  86.1460014
 118.6489992  83.4859978  87.0420014 118.9979992  82.3889978  85.6620014
 120.7559992  83.3349978  86.6390014 120.9979992  82.4909978  87.3190014
 121.3679992  83.3489978  85.7130014 121.1229992  84.6669978  87.4120014
 122.1889992  84.9279978  87.2430014 120.4779992  85.5369978  87.1640014
 120.9499992  84.4469978  88.9210014 119.9029992  84.4249978  89.2920014
 121.4789992  83.5089978  89.1950014 121.5869992  85.5539978  89.7550014
 122.6699992  85.5679978  89.5080014 121.0919992  86.4909978  89.4210014
 121.3749992  85.5839978  91.3170014 122.1809992  86.2149978  91.7500014
 120.4139992  86.0569978  91.6130014 121.7329992  84.3819978  92.2430014
 121.0019992  83.5459978  92.2030014 122.7169992  83.9989978  91.8980014
 121.7679992  84.8619978  93.7630014 121.8959992  83.9089978  94.3190014
 122.7089992  85.4199978  93.9590014 120.5229992  85.6179978  94.2520014
 120.4429992  86.6199978  93.7780014 119.6749992  84.9489978  93.9920014
 120.5029992  85.8819978  95.8250014 120.6019992  84.8639978  96.2590014
 121.4229992  86.3609978  96.2220014 119.3139992  86.7429978  96.2770014
 119.1309992  87.6779978  95.7050014 118.4189992  86.0909978  96.1870014
 119.3369992  87.1019978  97.7890014 119.4249992  86.1909978  98.4180014
 120.2119992  87.7839978  97.8570014 118.0219992  87.8039978  98.1570014
 117.0569992  87.9449978  97.4280014 118.1929992  88.2399978  99.4310014
 116.9509992  88.9279978  99.8940014 117.3209992  89.7529978 100.5390014
 116.2999992  89.3229978  99.0860014 116.0149992  88.0939978 100.7890014
 115.1029992  88.6959978 100.9850014 116.7129992  87.8849978 102.2040014
 117.3119992  88.7499978 102.5610014 115.8639992  87.8989978 102.9200014
 117.5029992  86.6949978 102.1970014 117.7039992  85.9879978 103.5190014
 118.8219992  84.9569978 103.3520014 119.7229992  85.0079978 102.2600014
 120.1669992  86.0259978 102.2260014 120.6189992  84.3569978 102.3510014
 119.0709992  84.6019978 100.8720014 118.1749992  85.1999978 100.8040014
 119.7149992  84.8249978 100.0350014 118.7319992  83.1259978 100.5730014
 117.3279992  82.7269978 101.1000014 116.5979992  83.5179978 101.0030014
 116.9189992  81.8539978 100.6120014 117.4599992  82.4199978 102.1270014
 118.5719992  83.0969978  99.0970014 119.5359992  83.1729978  98.6160014
 118.2199992  82.1579978  98.6970014 117.8959992  83.8469978  98.7150014
 119.7579992  82.0309978 101.0910014 119.7899992  82.2049978 102.1560014
 120.7419992  82.1749978 100.6690014 119.2789992  81.0929978 100.8540014
 118.0589992  86.9379978 104.5950014 116.5299992  85.2779978 103.8510014
 115.6209992  86.8989978 100.0860014 114.7659992  86.1889978 100.6560014
 114.1649992  86.4959978 101.6900014 114.4259992  84.9279978  99.7760014
 113.3389992  84.8469978  99.5610014 114.6969992  84.0269978 100.3680014
 115.1869992  84.9399978  98.3840014 116.2839992  84.9679978  98.5590014
 114.8969992  85.8499978  97.8170014 115.0359992  83.6449978  97.6090014
 114.0639992  83.6099978  97.0720014 115.1629992  82.7589978  98.2670014
 116.0239992  83.5089978  96.3590014 115.7979992  82.4859978  95.9900014
 117.0579992  83.5659978  96.7620014 115.8249992  84.6459978  95.3700014
 116.5679992  84.5249978  94.5530014 115.9859992  85.6379978  95.8430014
 114.5289992  84.7169978  94.5080014 114.5249992  85.6979978  93.9860014
 113.6749992  84.6659978  95.2170014 114.3129992  83.5529978  93.5430014
 113.3369992  83.5739978  93.0130014 114.2029992  82.6489978  94.1800014
 115.4339992  83.2919978  92.5620014 116.1459992  82.5289978  92.9100014
 115.6939992  83.8629978  91.3640014 116.6049992  83.5099978  90.8590014
 114.8609992  84.9639978  90.6670014 113.8309992  85.0009978  91.0820014
 114.6329992  84.5579978  89.6580014 115.5699992  86.2629978  90.3250014
 115.7859992  86.8219978  91.2600014 114.8939992  86.9389978  89.7590014
 116.8469992  85.9419978  89.3500014 116.4519992  85.3629978  88.4880014
 117.5849992  85.3279978  89.9080014 117.6199992  87.2049978  88.8320014
 118.3549992  86.8259978  88.0900014 118.1179992  87.6609978  89.7140014
 116.8139992  88.3319978  88.2250014 117.4109992  89.2689978  88.2110014
 116.0019992  88.6389978  88.9180014 116.3189992  88.2649978  86.7150014
 115.6319992  87.3939978  86.6550014 117.1719992  88.0189978  86.0460014
 115.7289992  89.5759978  86.1970014 116.3639992  90.4209978  86.5410014
 114.7479992  89.7979978  86.6680014 115.4789992  89.5459978  84.7000014
 115.1319992  90.5429978  84.3560014 114.6279992  88.8499978  84.5390014
 116.3869992  89.2669978  84.1230014  38.5569992  72.9539978  80.2760014
  37.4779992  73.1919978  80.1590014  38.8229992  72.0679978  79.6620014
  39.2809992  73.6749978  79.8400014  38.9199992  72.6959978  81.7300014
  38.2669992  71.8769978  82.1000014  40.0039992  72.4529978  81.7190014
  38.8439992  73.9429978  82.6560014  37.8049992  74.3379978  82.6560014
  39.1639992  73.6229978  83.6700014  39.6369992  75.0829978  82.0600014
  40.6969992  74.8139978  81.8660014  39.1889992  75.3869978  81.0890014
  39.7689992  76.4549978  82.9100014  40.3129992  77.2169978  82.3110014
  38.7669992  76.9029978  83.0820014  40.3849992  76.2249978  84.2190014
  39.7479992  75.5319978  84.8090014  41.3899992  75.7519978  84.2290014
  40.5339992  77.4629978  85.1360014  41.4399992  78.0579978  84.8930014
  39.7639992  78.2529978  85.0050014  40.6109992  77.1309978  86.6100014
  41.0559992  76.1179978  86.7090014  41.2619992  77.8889978  87.0950014
  39.2189992  77.1019978  87.3210014  38.8449992  78.1389978  87.1830014
  38.5749992  76.3319978  86.8440014  39.2179992  76.8409978  88.8070014
  39.6969992  75.8489978  88.9440014  39.8499992  77.6949978  89.1340014
  37.8119992  76.7379978  89.5160014  37.5889992  77.7809978  89.8280014
  37.0169992  76.5339978  88.7680014  37.9919992  75.8199978  90.7320014
  38.0469992  74.7799978  90.3440014  38.7419992  75.9859978  91.5340014
  36.6149992  75.9489978  91.4090014  36.4179992  77.0369978  91.3010014
  35.8839992  75.3079978  90.8710014  36.6999992  75.7029978  92.9500014
  37.3069992  76.4599978  93.4910014  35.6729992  75.9369978  93.3030014
  37.0429992  74.2999978  93.5300014  36.4329992  73.5079978  93.0460014
  38.1199992  74.1219978  93.3200014  36.8479992  74.2979978  95.0420014
  36.4619992  75.2719978  95.7170014  37.2299992  73.0459978  95.5430014
  37.3649992  73.0779978  97.0120014  37.1589992  74.1099978  97.3670014
  36.5929992  72.4229978  97.4700014  38.8709992  72.8579978  97.5280014
  39.1439992  71.7979978  97.3380014  38.9229992  73.1059978  98.9460014
  38.1469992  72.4809978  99.4380014  39.9149992  72.7529978  99.2990014
  38.6579992  74.5369978  99.1180014  39.0839992  75.1609978 100.5110014
  38.8259992  74.0839978 101.6480014  38.1749992  74.3469978 102.9290014
  38.8459992  74.9949978 103.5320014  37.3199992  75.0259978 102.7230014
  37.9529992  73.1239978 103.7640014  38.8939992  72.5939978 103.7340014
  37.7469992  73.4189978 104.7830014  36.9119992  72.1799978 103.3930014
  36.9569992  70.9869978 104.3930014  36.8239992  71.3239978 105.4100014
  36.1689992  70.2789978 104.1810014  37.9449992  70.5569978 104.3170014
  35.5839992  72.8519978 103.5140014  34.7289992  72.1949978 103.4450014
  35.6919992  73.4469978 104.4100014  35.5549992  73.5269978 102.6720014
  37.0669992  71.6349978 101.9860014  37.3019992  72.3369978 101.2000014
  36.0729992  71.2879978 101.7440014  37.7789992  70.8229978 101.9640014
  40.6059992  75.2379978 100.5830014  38.2189992  76.3719978 100.6660014
  39.7099992  73.7179978  96.8080014  40.4299992  73.3129978  95.7620014
  40.6379992  72.1869978  95.3090014  40.8659992  74.6029978  95.0590014
  41.3879992  75.1559978  95.8690014  39.9549992  75.2109978  94.8730014
  41.8609992  74.4069978  93.9020014  42.7739992  73.9069978  94.2890014
  42.2319992  75.3679978  93.4850014  41.1599992  73.6179978  92.7850014
  40.3089992  74.2159978  92.3970014  40.5929992  72.7549978  93.1960014
  42.1199992  72.9759978  91.7530014  42.8759992  72.4479978  92.3720014
  42.5999992  73.8129978  91.2010014  41.4219992  71.9839978  90.7290014
  40.9539992  71.1099978  91.2290014  42.2439992  71.5099978  90.1510014
  40.3739992  72.7439978  89.8870014  40.8909992  73.1219978  88.9790014
  40.0039992  73.6449978  90.4210014  39.3409992  71.9409978  89.0510014
  40.0259992  71.2999978  88.4560014  38.7329992  72.6799978  88.4860014
  38.3789992  71.0759978  89.8110014  37.8939992  71.6009978  90.6470014
  37.9229992  69.8659978  89.4190014  37.1079992  69.5079978  90.0660014
  38.2539992  69.1109978  88.1450014  38.4749992  68.0359978  88.3220014
  39.1939992  69.5099978  87.7070014  37.0519992  69.0379978  87.0990014
  36.2369992  68.4399978  87.5610014  37.4539992  68.4179978  86.2700014
  36.5299992  70.4209978  86.6680014  37.3419992  71.1289978  86.3930014
  36.0889992  70.7609978  87.6290014  35.5379992  70.3749978  85.5430014
  34.8299992  69.5319978  85.6960014  36.1149992  70.1479978  84.6220014
  34.5959992  71.6189978  85.4060014  34.2169992  71.8489978  86.4250014
  33.7809992  71.3009978  84.7220014  35.4099992  72.7659978  84.9160014
  35.8629992  72.5359978  83.9280014  36.2509992  72.9459978  85.6180014
  34.5719992  73.9819978  84.6690014  33.9629992  74.0579978  85.5950014
  33.8669992  73.6769978  83.8660014  35.2659992  75.3029978  84.3940014
  34.6029992  76.1589978  84.6430014  35.7259992  75.2849978  83.3830014
  36.1189992  75.2479978  85.1040014  42.6629992 102.2629978  83.7620014
  43.6709992 101.9059978  83.4630014  41.8769992 101.5429978  83.4470014
  42.7749992 102.3909978  84.8600014  42.5039992 103.6159978  83.0290014
  42.3879992 103.4529978  81.9360014  41.6369992 104.1339978  83.4910014
  43.6649992 104.6339978  83.3370014  44.5649992 104.5059978  82.6990014
  43.2559992 105.6529978  83.1680014  44.0729992 104.7659978  84.8440014
  43.1779992 105.0389978  85.4440014  44.5139992 103.8159978  85.2140014
  45.2119992 105.8169978  84.9450014  46.0999992 105.6179978  84.3070014
  44.7919992 106.8319978  84.7780014  45.6989992 105.8809978  86.4020014
  44.9249992 105.9509978  87.1960014  46.2699992 104.9899978  86.7400014
  46.4249992 107.2609978  86.5920014  47.0789992 107.3229978  85.6960014
  45.7539992 108.1459978  86.5930014  47.3639992 107.3819978  87.8230014
  46.8209992 107.3559978  88.7920014  47.9109992 106.4149978  87.8040014
  48.4069992 108.5009978  87.7580014  49.2399992 108.1709978  87.1010014
  47.8839992 109.3839978  87.3310014  48.9509992 108.9579978  89.1130014
  49.5839992 109.8659978  89.0130014  48.0429992 109.1189978  89.7330014
  49.8069992 107.8879978  89.8680014  49.1859992 106.9959978  90.0980014
  50.6099992 107.4829978  89.2160014  50.3719992 108.3979978  91.1840014
  51.1549992 107.6739978  91.4970014  50.9109992 109.3569978  91.0280014
  49.2529992 108.5199978  92.2380014  48.6269992 109.4309978  92.1330014
  48.5409992 107.6789978  92.0910014  49.9469992 108.2619978  93.5990014
  50.4539992 107.2729978  93.6280014  50.6699992 109.0949978  93.7320014
  48.8449992 108.1859978  94.7330014  48.5739992 109.2189978  95.0400014
  47.9089992 107.8299978  94.2520014  49.2779992 107.2979978  95.9750014
  50.3069992 106.6909978  96.0770014  48.2019992 107.2529978  96.7850014
  48.3979992 106.3629978  97.9070014  48.2719992 105.3219978  97.5410014
  49.4099992 106.4439978  98.3580014  47.3829992 106.7039978  99.0710014
  47.1169992 107.7809978  99.0020014  48.0259992 106.5779978 100.4910014
  48.8729992 107.2839978 100.6200014  47.2579992 106.9199978 101.2180014
  48.3629992 105.1899978 100.6980014  49.3079992 104.8109978 101.9040014
  49.2319992 103.2309978 101.9790014  48.4609992 102.4199978 101.1160014
  48.7259992 102.6059978 100.0530014  48.7159992 101.3849978 101.4280014
  46.9749992 102.6119978 101.1990014  46.7089992 103.6269978 100.9410014
  46.4239992 102.0499978 100.4590014  46.1859992 102.2019978 102.3950014
  46.6979992 102.8929978 103.6950014  47.6569992 102.4389978 103.8960014
  46.7799992 103.9669978 103.6070014  46.0799992 102.6139978 104.5350014
  44.7359992 102.5869978 102.1730014  44.1109992 102.0789978 102.8930014
  44.5119992 103.6429978 102.1750014  44.4509992 102.1859978 101.2110014
  46.2719992 100.6969978 102.5890014  47.3349992 100.6509978 102.7730014
  45.9769992 100.1269978 101.7200014  45.7809992 100.3709978 103.4940014
  50.7179992 105.1559978 101.6690014  48.7169992 105.3839978 103.0890014
  46.2029992 105.8629978  98.8930014  45.1959992 106.3429978  98.1950014
  45.1449992 107.4859978  97.7060014  44.1489992 105.2279978  98.0180014
  43.3259992 105.5989978  97.3710014  43.6449992 104.8899978  98.9490014
  44.9309992 103.9989978  97.2960014  45.4109992 104.4489978  96.4010014
  44.2219992 103.2509978  96.8810014  45.8789992 103.0689978  98.1160014
  45.2309992 102.6039978  98.8900014  46.6229992 103.6689978  98.6830014
  46.7419992 102.0379978  97.3080014  46.2149992 101.6369978  96.4160014
  47.1469992 101.1989978  97.9130014  48.0009992 102.6839978  96.7170014
  48.6889992 102.8849978  97.5660014  47.9009992 103.6789978  96.2330014
  48.8949992 101.8469978  95.8340014  49.3199992 100.9569978  96.3470014
  49.8079992 102.3659978  95.4700014  48.2119992 101.2109978  94.6010014
  47.5739992 100.3349978  94.8430014  49.0709992 100.6589978  94.1630014
  47.6519992 102.1599978  93.6330014  46.6589992 102.5359978  93.9180014
  48.1959992 102.7709978  92.4930014  47.4669992 103.3849978  91.9440014
  49.5599992 102.6619978  92.0110014  49.4679992 101.7529978  91.3800014
  50.2859992 102.3869978  92.8060014  50.1229992 103.8859978  91.2370014
  51.1699992 103.5359978  91.1090014  50.1159992 104.8189978  91.8390014
  49.3439992 104.1589978  89.9420014  49.7739992 105.0459978  89.4290014
  48.3509992 104.4909978  90.3140014  49.1119992 103.1129978  88.8950014
  48.3969992 103.5459978  88.1630014  48.6029992 102.2279978  89.3350014
  50.3549992 102.4129978  88.3010014  49.9479992 101.6539978  87.5980014
  50.9139992 101.8209978  89.0570014  51.2349992 103.2859978  87.3450014
  51.8729992 102.5449978  86.8170014  51.7689992 103.9839978  88.0250014
  50.3479992 103.9969978  86.3570014  49.7749992 104.8699978  86.7350014
  49.5879992 103.3149978  85.9190014  51.1889992 104.7019978  85.2870014
  50.3979992 105.2709978  84.7530014  51.5429992 104.0339978  84.4730014
  51.9309992 105.4509978  85.6380014  39.0699992 100.3049978  79.9810014
  39.8229992 100.9869978  80.4310014  38.1529992 100.5059978  80.5740014
  38.8939992 100.6969978  78.9570014  39.5389992  98.7829978  79.8180014
  38.8939992  98.1099978  79.2140014  40.5029992  98.8629978  79.2710014
  39.6449992  97.9969978  81.1660014  38.8019992  98.3289978  81.8090014
  39.5669992  96.8929978  81.0720014  40.8029992  98.4699978  81.9760014
  41.7209992  98.1209978  81.4560014  40.7709992  99.5739978  81.8540014
  40.8179992  98.2119978  83.4570014  40.0109992  98.8899978  83.8080014
  40.4459992  97.1929978  83.7000014  42.2239992  98.4159978  84.0160014
  42.9139992  97.6719978  83.5640014  42.4669992  99.4609978  83.7270014
  42.3109992  98.4159978  85.5470014  42.0549992  97.4319978  85.9940014
  43.3349992  98.6819978  85.8860014  41.4029992  99.5019978  86.0880014
  41.7409992 100.4549978  85.6280014  40.3999992  99.1779978  85.7370014
  41.4649992  99.6879978  87.6140014  42.4769992  99.6719978  88.0730014
  41.1119992 100.6969978  87.9170014  40.6229992  98.6589978  88.3770014
  40.7539992  97.6749978  87.8790014  41.1339992  98.5799978  89.3610014
  39.0999992  99.0759978  88.6190014  39.0579992 100.0869978  89.0770014
  38.5629992  99.1549978  87.6490014  38.3519992  98.1189978  89.5820014
  37.4939992  98.7729978  89.8490014  37.9559992  97.1799978  89.1390014
  38.9949992  97.8199978  90.9490014  38.3199992  97.2359978  91.6110014
  39.9039992  97.2129978  90.7500014  39.3889992  99.0909978  91.7330014
  40.1499992  99.5819978  91.0890014  38.4959992  99.7499978  91.7650014
  39.9019992  98.8459978  93.1420014  40.5979992  97.9799978  93.0950014
  40.5669992  99.6859978  93.4360014  38.6769992  98.6899978  94.0420014
  37.5989992  98.5589978  93.6610014  39.1359992  98.7449978  95.2590014
  38.2739992  98.2269978  96.2560014  37.6809992  99.0689978  96.6720014
  37.6559992  97.4289978  95.7920014  39.1079992  97.6929978  97.4770014
  38.1959992  97.3349978  98.0020014  39.7999992  98.8579978  98.1610014
  40.4579992  99.4399978  97.4810014  39.0069992  99.5949978  98.4110014
  40.6039992  98.4919978  99.2280014  39.8219992  98.1629978 100.5630014
  40.9889992  97.8029978 101.5740014  40.6999992  97.7499978 102.9970014
  40.5009992  98.7509978 103.4370014  39.7419992  97.2229978 103.1990014
  41.8999992  97.0459978 103.8010014  42.7629992  97.6949978 103.7910014
  41.5259992  96.8659978 104.7980014  42.6589992  95.7919978 103.3580014
  43.1129992  95.8949978 101.8890014  43.4629992  96.8889978 101.6510014
  43.7669992  95.0659978 101.6630014  42.2509992  95.6249978 101.2970014
  43.9189992  95.6859978 104.2820014  44.6889992  96.4089978 104.0570014
  43.7349992  95.5709978 105.3400014  44.4009992  94.7779978 103.9530014
  41.7129992  94.6599978 103.5380014  41.5229992  94.3799978 104.5640014
  42.1129992  93.7759978 103.0650014  40.7469992  94.9809978 103.1760014
  39.1159992  99.3979978 100.9820014  38.9949992  96.9219978 100.2930014
  40.0309992  96.6399978  97.0600014  39.4199992  95.4489978  96.8960014
  38.2419992  95.1789978  97.2200014  40.4509992  94.4699978  96.3620014
  40.1689992  93.4579978  96.7230014  41.4629992  94.7039978  96.7550014
  40.5649992  94.3519978  94.8730014  39.5869992  94.2989978  94.3500014
  40.8829992  93.3149978  94.6320014  41.6329992  95.2789978  94.3060014
  42.6299992  94.9969978  94.7080014  41.4119992  96.3519978  94.4950014
  41.7199992  95.1539978  92.7790014  40.8539992  95.6579978  92.2990014
  41.5739992  94.0899978  92.4930014  43.0519992  95.7089978  92.2910014
  43.8679992  95.0659978  92.6850014  43.1489992  96.7859978  92.5460014
  43.1039992  95.5459978  90.7400014  42.2219992  96.0129978  90.2500014
  42.9969992  94.4829978  90.4360014  44.3379992  96.2329978  90.2360014
  45.1559992  95.5149978  90.4620014  44.5149992  97.1819978  90.7870014
  44.3269992  96.5899978  88.8040014  44.3189992  97.6789978  88.6490014
  44.3939992  95.7549978  87.7940014  44.5019992  96.2919978  86.8400014
  44.4249992  94.2579978  87.8300014  44.6769992  93.7369978  88.7780014
  45.1819992  94.0189978  87.0530014  43.1289992  93.6209978  87.2420014
  42.2389992  93.8409978  87.8700014  43.3169992  92.5339978  87.1090014
  42.8599992  94.0269978  85.7230014  43.7819992  94.0269978  85.1040014
  42.4929992  95.0659978  85.8660014  41.7829992  93.2629978  85.0100014
  42.1299992  92.2459978  84.7280014  41.5769992  93.7319978  84.0240014
  40.4749992  92.9939978  85.8230014  40.6279992  92.4379978  86.7730014
  40.0159992  92.1989978  85.1970014  39.4849992  94.1659978  85.9460014
  39.9839992  95.0039978  86.4790014  38.6269992  93.8239978  86.5640014
  39.0399992  94.6609978  84.5990014  38.7219992  93.9109978  83.8440014
  39.8989992  95.1639978  84.1040014  37.9099992  95.7099978  84.5610014
  37.5579992  95.8239978  83.5130014  38.3419992  96.6849978  84.8730014
  37.1299992  95.4449978  85.3070014 101.2529992 103.9769978  85.2820014
 100.2679992 103.9049978  84.7740014 102.0759992 103.4549978  84.7490014
 101.5239992 105.0489978  85.1770014 100.9759992 103.5499978  86.7280014
 100.0539992 103.9939978  87.1600014 100.7939992 102.4559978  86.7940014
 102.1159992 103.8899978  87.7830014 101.8609992 103.5399978  88.8070014
 103.0719992 103.4679978  87.4070014 102.4339992 105.3929978  87.9230014
 102.8399992 105.6999978  86.9360014 101.5059992 105.9509978  88.1700014
 103.4679992 105.7349978  88.9920014 103.7409992 106.7939978  88.7970014
 103.0139992 105.6319978  90.0010014 104.7519992 104.9439978  88.9310014
 104.5129992 103.8609978  89.0090014 105.3039992 105.0309978  87.9710014
 105.8149992 105.3409978  89.9970014 106.6839992 104.6489978  90.0170014
 106.2109992 106.3629978  89.8190014 105.3129992 105.2869978  91.4370014
 104.2809992 105.6849978  91.5410014 105.1709992 104.2099978  91.6720014
 106.2399992 105.7709978  92.5600014 106.1269992 106.8359978  92.8530014
 105.8409992 105.2599978  93.4630014 107.6309992 105.3629978  92.4340014
 107.6759992 104.3269978  92.0340014 108.2129992 106.0849978  91.8220014
 108.4759992 105.3529978  93.7880014 108.0109992 104.6509978  94.5140014
 109.5169992 105.1459978  93.4600014 108.4999992 106.6239978  94.6100014
 109.4369992 106.7359978  95.1950014 108.4629992 107.5129978  93.9450014
 107.2829992 106.6989978  95.5240014 107.4259992 107.6559978  96.0710014
 106.3039992 106.7289978  95.0010014 107.1169992 105.5679978  96.6290014
 106.8339992 104.5759978  96.2150014 108.1219992 105.4279978  97.0810014
 106.1579992 105.9309978  97.7860014 106.3669992 105.2239978  98.6180014
 106.3599992 106.9839978  98.0760014 104.6799992 105.7709978  97.4080014
 104.2349992 106.1679978  96.3600014 104.0649992 105.0129978  98.3200014
 102.8129992 104.5189978  98.1860014 102.2559992 104.6219978  99.1420014
 102.2189992 105.0529978  97.4140014 102.8989992 102.9509978  98.0400014
 101.8809992 102.5799978  97.7920014 103.3609992 102.2629978  99.4100014
 102.6729992 102.5469978 100.2340014 103.3809992 101.1699978  99.2140014
 104.6309992 102.7529978  99.7880014 105.0869992 102.4909978 101.2790014
 104.3349992 103.6889978 101.9980014 104.6149992 104.0959978 103.3090014
 103.7979992 103.7739978 103.9900014 105.5739992 103.6949978 103.7020014
 104.6199992 105.6099978 103.5300014 103.6619992 106.0639978 103.7390014
 105.1489992 105.7649978 104.4580014 105.2959992 106.5919978 102.5860014
 104.4839992 106.7539978 101.3620014 104.9529992 107.1659978 100.4810014
 104.0839992 105.8109978 101.0190014 103.6309992 107.3869978 101.5570014
 105.3869992 107.9779978 103.2840014 106.0289992 107.7949978 104.1330014
 105.9709992 108.7019978 102.7360014 104.3769992 108.2269978 103.5720014
 106.6109992 106.0789978 102.1230014 107.2929992 106.1589978 102.9560014
 106.9439992 106.6089978 101.2420014 106.5449992 105.0609978 101.7690014
 104.4709992 101.2039978 101.7790014 106.5639992 102.6899978 101.4680014
 103.8479992 102.5959978  96.9740014 103.3119992 102.6619978  95.7170014
 102.0829992 102.7499978  95.4620014 104.3889992 102.6489978  94.5200014
 104.5049992 103.6749978  94.1120014 103.8649992 102.0049978  93.7820014
 105.6739992 101.9509978  94.8520014 105.3789992 101.0279978  95.3970014
 106.2519992 102.5929978  95.5510014 106.5979992 101.5769978  93.6890014
 107.0429992 102.4779978  93.2160014 105.9849992 101.0869978  92.9030014
 107.6979992 100.5179978  94.0530014 107.3009992  99.5119978  94.3070014
 108.1279992 100.9499978  94.9820014 108.8789992 100.4399978  93.0940014
 109.5659992 100.0389978  93.8710014 109.2299992 101.4349978  92.7470014
 108.5039992  99.4089978  92.0350014 107.8499992  98.6079978  92.4430014
 109.4159992  98.8039978  91.8440014 108.0949992 100.0649978  90.6860014
 108.8339992 100.8909978  90.6020014 107.0999992 100.5569978  90.7230014
 108.2979992  99.0759978  89.5740014 109.3319992  98.7589978  89.3710014
 107.3289992  98.5669978  88.7830014 107.6339992  97.8789978  87.9810014
 105.8659992  98.8549978  88.8970014 105.5709992  99.0809978  89.9440014
 105.1589992  98.0569978  88.5860014 105.5679992 100.0379978  87.9860014
 106.2879992 100.8499978  88.2230014 104.5939992 100.4649978  88.3080014
 105.3189992  99.7349978  86.5190014 104.5379992  98.9909978  86.2550014
 106.1469992  99.2169978  85.9890014 104.7589992 100.9469978  85.7190014
 103.7999992 101.1649978  86.2340014 104.5439992 100.6459978  84.6710014
 105.6799992 102.1969978  85.6950014 106.5429992 101.9659978  85.0340014
 106.1119992 102.3879978  86.7000014 105.0059992 103.5009978  85.0340014
 105.8799992 104.1839978  85.0870014 104.2469992 103.8829978  85.7510014
 104.4119992 103.2369978  83.6090014 103.9849992 104.2049978  83.2690014
 103.6999992 102.3849978  83.6140014 105.3569992 102.7429978  82.4620014
 106.1949992 102.1359978  82.8670014 105.7499992 103.6269978  81.9170014
 104.6859992 102.1529978  81.8020014  36.0369992  65.4249978  84.6770014
  35.2579992  66.2159978  84.6220014  36.0129992  64.5919978  83.9430014
  36.9699992  65.9909978  84.4690014  36.0679992  64.8889978  86.1480014
  36.1479992  65.7609978  86.8310014  35.2179992  64.2269978  86.4200014
  37.3749992  64.1329978  86.4750014  37.4609992  63.3249978  85.7170014
  38.2689992  64.7739978  86.3170014  37.3849992  63.5019978  87.8390014
  37.6269992  64.2159978  88.6550014  36.3549992  63.1019978  87.9580014
  38.5269992  62.4939978  87.9140014  38.6319992  61.8889978  86.9890014
  39.4129992  63.1479978  88.0650014  38.2659992  61.4659978  89.0690014
  37.3589992  60.8499978  88.8890014  38.9549992  60.6089978  88.9100014
  38.3989992  61.9779978  90.5070014  37.5779992  62.6819978  90.7630014
  38.2529992  61.0859978  91.1530014  39.7559992  62.7519978  90.7520014
  40.5129992  62.2999978  90.0760014  39.5099992  63.8019978  90.4840014
  40.2759992  62.6369978  92.2460014  39.3869992  62.7719978  92.8990014
  40.7959992  61.6719978  92.4260014  41.2179992  63.8179978  92.5050014
  41.9689992  63.6359978  91.7070014  40.8659992  64.8379978  92.2410014
  41.7699992  63.8049978  93.8920014  42.3499992  62.8719978  94.0570014
  42.4949992  64.6439978  93.9650014  40.6969992  63.9339978  95.0300014
  40.1569992  62.9629978  95.0260014  41.3219992  63.9299978  95.9490014
  39.7839992  65.2129978  95.0720014  40.4849992  66.0739978  95.0860014
  39.2149992  65.2599978  94.1190014  38.7489992  65.2779978  96.1670014
  38.2399992  64.2929978  96.2370014  39.1409992  65.4869978  97.1850014
  37.6689992  66.3779978  95.9480014  38.1979992  67.3019978  95.6310014
  36.9639992  66.0899978  95.1390014  36.7689992  66.6979978  97.1240014
  37.0949992  67.5529978  97.9160014  35.6339992  65.9989978  97.0930014
  34.5369992  66.3249978  97.9590014  34.6599992  67.3369978  98.4010014
  33.6089992  66.1339978  97.3790014  34.4699992  65.3229978  99.1460014
  33.5629992  65.5319978  99.7530014  35.7019992  65.4789978 100.0260014
  36.6299992  65.4719978  99.4140014  35.5889992  66.4939978 100.4640014
  35.7889992  64.6599978 101.1380014  36.8999992  63.5289978 101.3160014
  37.5989992  63.8119978 102.7470014  38.0319992  65.1629978 102.9600014
  37.2389992  65.8969978 102.7000014  37.9979992  65.3849978 104.0480014
  39.3439992  65.5209978 102.1920014  39.2109992  65.3929978 101.1280014
  39.4679992  66.5749978 102.3970014  40.6079992  64.7779978 102.5100014
  40.6379992  64.6949978 104.0930014  40.4529992  65.6839978 104.4860014
  39.7799992  64.2339978 104.5590014  41.5879992  64.2659978 104.3750014
  40.5569992  63.3329978 102.0100014  39.6439992  62.8439978 102.3170014
  40.5979992  63.3579978 100.9310014  41.3179992  62.6989978 102.4410014
  41.7699992  65.5299978 101.9080014  41.9089992  65.2469978 100.8750014
  42.6839992  65.2869978 102.4300014  41.4669992  66.5409978 102.1410014
  36.3029992  62.1889978 101.3650014  37.9359992  63.7509978 100.2670014
  34.5079992  63.9639978  98.6210014  33.2269992  63.5169978  98.1890014
  32.2229992  64.1179978  98.3090014  33.3969992  62.0429978  97.6460014
  32.4629992  61.4479978  97.7360014  34.1539992  61.5059978  98.2560014
  33.9529992  62.1309978  96.1660014  34.2079992  61.0629978  95.9970014
  34.8449992  62.7939978  96.1790014  33.0409992  62.7099978  95.1540014
  32.8469992  63.7599978  95.4640014  32.0759992  62.1599978  95.1840014
  33.6179992  62.7689978  93.7600014  33.8819992  61.7339978  93.4550014
  34.5899992  63.3029978  93.8160014  32.6659992  63.4849978  92.7370014
  32.5609992  64.5539978  93.0210014  31.6879992  62.9639978  92.8100014
  33.2459992  63.4509978  91.2950014  32.4379992  63.8229978  90.6290014
  33.3739992  62.3729978  91.0610014  34.6079992  64.1309978  91.1760014
  34.8289992  64.0099978  90.0940014  35.4149992  63.6919978  91.8000014
  34.5639992  65.5929978  91.5870014  33.6079992  65.9979978  91.9510014
  35.5839992  66.4689978  91.5460014  35.3269992  67.4689978  91.9270014
  37.0169992  66.1219978  91.0540014  36.9579992  65.2189978  90.4090014
  37.7179992  66.1439978  91.9150014  37.5859992  67.2079978  90.0780014
  37.6879992  68.0619978  90.7820014  36.9479992  67.2829978  89.1720014
  38.9869992  66.8539978  89.5090014  39.0679992  65.7659978  89.3010014
  39.7629992  67.1019978  90.2640014  39.2849992  67.5629978  88.1600014
  39.4589992  68.6409978  88.3680014  38.3429992  67.4469978  87.5830014
  40.3779992  66.8319978  87.4090014  40.0689992  65.8079978  87.1070014
  41.4039992  66.7309978  87.8220014  40.5389992  67.4589978  86.0330014
  41.4839992  67.0059978  85.6640014  40.8119992  68.5239978  86.1930014
  39.4249992  67.0869978  85.0700014  38.4019992  67.4319978  85.3330014
  39.4569992  65.9909978  85.2490014  39.7929992  67.3449978  83.6240014
  39.6889992  68.4039978  83.3050014  39.0529992  66.7699978  83.0270014
  40.8279992  67.0019978  83.4130014  35.5409992  77.8359978  86.2320014
  35.9079992  78.0989978  85.2170014  34.6739992  77.1689978  86.0350014
  36.3989992  77.4089978  86.7940014  35.0809992  79.0039978  87.1180014
  34.9139992  78.5069978  88.0980014  35.8629992  79.7919978  87.1580014
  33.7449992  79.7019978  86.6990014  33.7549992  79.8199978  85.5940014
  32.9089992  79.0559978  87.0420014  33.6769992  81.1429978  87.3210014
  34.4429992  81.7589978  86.8030014  32.6569992  81.4639978  87.0200014
  33.7599992  81.1719978  88.8050014  32.9789992  80.4809978  89.1880014
  34.6979992  80.8099978  89.2780014  33.3629992  82.4779978  89.4550014
  33.5009992  83.2389978  88.6580014  32.2849992  82.3489978  89.6950014
  34.1299992  82.8109978  90.7670014  35.2399992  82.7839978  90.7430014
  33.8169992  83.7899978  91.1880014  33.7899992  81.7839978  91.8790014
  32.7179992  81.5169978  91.9940014  34.3079992  80.8519978  91.5670014
  34.3239992  82.1969978  93.2220014  33.6479992  83.0219978  93.5330014
  34.0599992  81.3779978  93.9250014  35.7419992  82.7959978  93.2950014
  36.4479992  81.9389978  93.3130014  35.8919992  83.5829978  92.5250014
  35.9679992  83.4349978  94.6930014  36.9589992  83.9199978  94.8240014
  35.2439992  84.2749978  94.7640014  35.7809992  82.4709978  95.9340014
  35.6709992  81.4039978  95.6450014  36.7199992  82.4169978  96.5240014
  34.6359992  82.9759978  96.8070014  34.9669992  83.6829978  97.5970014
  33.8459992  83.4929978  96.2220014  33.9469992  81.8029978  97.5800014
  33.3769992  81.1809978  96.8580014  34.7319992  81.0469978  97.7910014
  33.1809992  82.2899978  98.8250014  33.7959992  82.6879978  99.6600014
  32.5739992  83.1079978  98.3810014  32.3019992  81.0519978  99.4000014
  31.5659992  80.3739978  98.6760014  32.4749992  80.8039978 100.7040014
  31.9279992  79.5419978 101.1870014  31.6119992  79.6579978 102.2460014
  31.0479992  79.1909978 100.6060014  33.0139992  78.4379978 100.9960014
  32.5789992  77.4589978 101.2920014  34.2089992  78.7699978 101.9230014
  33.8229992  78.5289978 102.9370014  34.9839992  78.0629978 101.5580014
  34.5129992  80.1119978 101.9250014  35.8019992  80.6679978 102.7750014
  35.5619992  82.2279978 102.6260014  36.3629992  83.1779978 103.3430014
  35.6949992  83.9849978 103.7120014  36.8359992  82.6589978 104.2040014
  37.4549992  83.5549978 102.4000014  38.2759992  84.0859978 102.8590014
  37.9549992  82.6519978 102.0810014  36.9309992  84.3369978 101.1840014
  35.9789992  85.4089978 101.4230014  35.7479992  86.0679978 100.6000014
  35.0489992  85.0279978 101.8190014  36.3699992  85.9469978 102.2740014
  38.1269992  84.8229978 100.3500014  38.8479992  84.0289978 100.2220014
  37.7599992  85.1939978  99.4040014  38.6279992  85.6799978 100.7740014
  36.1699992  83.4329978 100.2170014  35.2769992  83.0559978 100.6930014
  36.8719992  82.6509978  99.9670014  35.8759992  84.0379978  99.3720014
  35.6909992  80.1849978 104.1660014  37.0759992  80.3179978 102.0960014
  33.3529992  78.5119978  99.6290014  34.0269992  77.5459978  99.0030014
  34.4059992  76.4549978  99.4600014  34.2189992  77.8499978  97.4880014
  33.5479992  78.6399978  97.0880014  33.9239992  76.9279978  96.9450014
  35.6849992  78.1879978  97.2560014  36.3159992  77.3129978  97.5210014
  35.9889992  79.0709978  97.8580014  36.1229992  78.3469978  95.7650014
  35.2729992  78.8819978  95.2900014  36.1549992  77.3219978  95.3380014
  37.4359992  78.9659978  95.4650014  38.2349992  78.3799978  95.9680014
  37.4579992  80.0559978  95.6770014  37.7099992  78.9319978  94.0070014
  37.0129992  79.6339978  93.5020014  37.4739992  77.9159978  93.6250014
  39.1489992  79.3899978  93.6470014  39.8869992  78.6889978  94.0940014
  39.3079992  80.3859978  94.1130014  39.3809992  79.5019978  92.0940014
  40.4709992  79.7159978  92.0590014  38.7339992  80.3569978  91.8040014
  39.0129992  78.2389978  91.3790014  39.1789992  77.2389978  91.8040014
  38.4499992  78.1799978  90.1980014  38.3079992  77.1479978  89.8460014
  37.9889992  79.2499978  89.2990014  37.1409992  79.7189978  89.8420014
  37.4779992  78.7459978  88.4510014  39.0999992  80.1729978  88.6960014
  39.8729992  79.5189978  88.2380014  39.5409992  80.8599978  89.4500014
  38.5069992  81.0209978  87.5530014  38.9419992  82.0289978  87.7190014
  37.4069992  81.1799978  87.5290014  38.9689992  80.5049978  86.2170014
  38.7109992  79.4279978  86.1240014  40.0499992  80.6249978  85.9930014
  38.3359992  81.2079978  85.0550014  38.2879992  82.2719978  85.3700014
  37.2889992  80.8559978  84.9300014  39.0309992  81.1169978  83.7230014
  39.5769992  80.1539978  83.6260014  39.8149992  81.8899978  83.5730014
  38.1139992  81.1029978  82.4520014  37.4479992  80.2149978  82.4190014
  38.7919992  80.9589978  81.5830014  37.2129992  82.3239978  82.1830014
  37.7079992  83.3059978  82.3410014  36.3679992  82.3259978  82.9040014
  36.8409992  82.4559978  81.1450014 114.6759992  93.8759978  81.6440014
 114.3229992  94.9109978  81.4470014 113.9109992  93.4819978  82.3470014
 114.6369992  93.3879978  80.6470014 115.9769992  93.7089978  82.3120014
 116.4019992  92.6829978  82.2670014 116.7269992  94.3179978  81.7620014
 115.8849992  94.1319978  83.8280014 115.7089992  95.2289978  83.8390014
 115.1249992  93.5389978  84.3820014 117.1969992  93.6709978  84.4610014
 117.5499992  92.6259978  84.3320014 117.8369992  94.2799978  83.7880014
 117.4199992  94.1799978  85.8570014 118.5039992  94.3939978  85.9690014
 116.9309992  95.1669978  86.0020014 116.8969992  93.2439978  86.9170014
 115.8009992  93.1289978  86.7700014 117.2549992  92.1929978  86.8810014
 117.0509992  93.7339978  88.3770014 118.1349992  93.8909978  88.5600014
 116.6429992  94.7629978  88.4790014 116.4249992  92.8299978  89.4260014
 115.3869992  92.4779978  89.2440014 117.1029992  91.9509978  89.4760014
 116.3299992  93.3399978  90.8340014 117.2579992  93.9049978  91.0640014
 115.5199992  94.0909978  90.9490014 116.1479992  92.1529978  91.8260014
 115.2019992  91.6179978  91.5980014 116.9629992  91.4429978  91.5670014
 116.3109992  92.5629978  93.3350014 117.1899992  93.2329978  93.4530014
 115.3719992  93.1309978  93.5110014 116.4529992  91.5009978  94.4420014
 115.6199992  90.7649978  94.4410014 117.3249992  90.8139978  94.4070014
 116.3879992  92.1999978  95.8550014 115.3919992  92.6759978  95.9760014
 116.4319992  91.3519978  96.5710014 117.4549992  93.2059978  96.2880014
 118.4579992  92.7869978  96.0560014 117.2899992  94.0869978  95.6320014
 117.4379992  93.5449978  97.8080014 116.8639992  92.8369978  98.4430014
 118.5039992  93.6359978  98.1070014 116.9049992  95.0059978  97.9350014
 116.7529992  95.8349978  97.0680014 116.7389992  95.2659978  99.2540014
 116.2389992  96.5959978  99.6790014 116.6259992  96.7409978 100.7100014
 116.6769992  97.3129978  98.9530014 114.6519992  96.7579978  99.7010014
 114.5679992  97.7439978 100.2070014 113.9699992  95.5679978 100.5230014
 114.4649992  95.4409978 101.5090014 112.9039992  95.7619978 100.7660014
 114.1029992  94.3789978  99.7570014 114.5379992  92.9949978 100.4300014
 115.9879992  93.2319978 101.0220014 116.4929992  92.3249978 102.0180014
 115.7489992  91.7459978 102.6050014 117.1319992  91.6109978 101.4560014
 117.5859992  92.8729978 103.0370014 117.6449992  92.0919978 103.7800014
 118.4679992  93.0039978 102.4270014 117.3709992  94.2919978 103.6550014
 117.5159992  95.3419978 102.5440014 117.4579992  96.3259978 102.9840014
 118.5369992  95.2229978 102.2100014 116.8149992  95.0339978 101.7830014
 115.9529992  94.5099978 104.1930014 115.2119992  94.2889978 103.4380014
 115.7649992  93.8309978 105.0110014 115.8659992  95.5749978 104.3440014
 118.2999992  94.5219978 104.7660014 118.2999992  95.5629978 105.0520014
 119.3279992  94.4589978 104.4400014 118.1509992  93.7709978 105.5280014
 113.6649992  92.8369978 101.5810014 114.6509992  91.8489978  99.5040014
 114.2249992  96.8479978  98.3540014 112.9949992  97.2499978  98.2280014
 112.2529992  97.8839978  98.9550014 112.6429992  96.8349978  96.8160014
 113.5379992  96.8089978  96.1590014 112.0019992  97.5509978  96.2570014
 112.1349992  95.4449978  96.6760014 111.0869992  95.3499978  97.0310014
 112.7529992  94.7359978  97.2680014 112.1849992  94.9399978  95.1750014
 111.5899992  94.0009978  95.1600014 113.2039992  94.5799978  94.9170014
 111.5909992  95.9629978  94.1200014 112.0959992  96.9409978  94.2710014
 110.5349992  96.2169978  94.3570014 111.7349992  95.6379978  92.6260014
 111.4119992  96.5579978  92.0950014 111.1019992  94.7559978  92.3900014
 113.1799992  95.3859978  92.1210014 113.6629992  94.4219978  92.3900014
 113.8479992  96.0869978  92.6660014 113.1559992  95.5659978  90.6000014
 114.2489992  95.6419978  90.4150014 112.6289992  96.5149978  90.3620014
 112.5719992  94.4469978  89.7220014 111.8229992  93.8309978  90.2420014
 112.7869992  94.2249978  88.4480014 112.1779992  93.4639978  87.9390014
 113.6069992  94.9709978  87.5060014 114.1669992  94.3949978  86.7390014
 114.3829992  95.5119978  88.0890014 112.7509992  95.9609978  86.7470014
 112.2019992  96.6799978  87.3930014 111.9619992  95.4299978  86.1730014
 113.6179992  96.8629978  85.8110014 114.4189992  96.2669978  85.3260014
 114.1479992  97.6959978  86.3210014 112.7859992  97.5879978  84.7340014
 111.8939992  97.9199978  85.3070014 112.4449992  96.9259978  83.9100014
 113.5219992  98.8379978  84.1410014 113.5469992  99.6079978  84.9420014
 112.7819992  99.1199978  83.3610014 114.9249992  98.5069978  83.4440014
 114.8629992  98.2589978  82.3620014 115.3749992  97.6159978  83.9320014
 115.9969992  99.5469978  83.6400014 116.8279992  99.2079978  82.9850014
 116.2999992  99.5719978  84.7080014 115.7129992 101.0329978  83.2440014
 115.0969992 101.4659978  84.0610014 115.1299992 101.2129978  82.3160014
 116.5729992 101.7369978  83.2450014  53.9249992  42.1799978  82.0340014
  54.6449992  41.5799978  81.4380014  54.4959992  42.9689978  82.5700014
  53.2089992  42.7079978  81.3690014  53.2409992  41.2119978  82.9880014
  52.4529992  41.7399978  83.5670014  52.8099992  40.4629978  82.2900014
  54.1089992  40.7019978  84.1630014  54.7469992  39.8989978  83.7350014
  54.7379992  41.4539978  84.6850014  53.2279992  40.0689978  85.2820014
  52.7579992  41.0139978  85.6280014  52.5529992  39.3129978  84.8280014
  54.0049992  39.3719978  86.4160014  53.3239992  38.8589978  87.1270014
  54.6389992  38.5369978  86.0490014  54.9879992  40.3529978  87.2080014
  55.5839992  39.7069978  87.8870014  55.6469992  40.8619978  86.4720014
  54.1919992  41.3629978  88.0510014  53.8939992  42.2149978  87.4040014
  53.3139992  40.9509978  88.5940014  54.9729992  41.9329978  89.2490014
  55.3139992  41.0659978  89.8540014  55.9509992  42.2229978  88.8090014
  54.2329992  43.1179978  90.0020014  54.2179992  44.0489978  89.3960014
  53.1889992  42.8099978  90.2240014  54.8889992  43.7079978  91.3600014
  54.2269992  44.5019978  91.7660014  55.0009992  42.8429978  92.0470014
  56.2759992  44.3849978  91.1210014  57.0189992  43.6479978  90.7470014
  56.0929992  45.1329978  90.3200014  56.8509992  45.1059978  92.3680014
  57.7559992  45.6629978  92.0440014  55.9929992  45.7899978  92.5380014
  57.0589992  44.1729978  93.5210014  56.0299992  43.9049978  93.8420014
  57.6009992  43.2699978  93.1660014  57.7089992  45.0059978  94.6580014
  58.7399992  45.2899978  94.3550014  57.2059992  45.9959978  94.6940014
  57.7569992  44.3529978  96.0490014  58.2699992  43.3729978  96.1530014
  58.2889992  45.0919978  96.6860014  56.3519992  44.2629978  96.7030014
  55.7899992  45.0779978  97.4240014  55.9229992  43.0669978  96.4100014
  54.6429992  42.6849978  96.7290014  54.2379992  43.3389978  97.5310014
  53.9889992  42.7819978  95.8360014  54.5249992  41.2499978  97.3150014
  53.4609992  40.9579978  97.1820014  54.9629992  41.1869978  98.7480014
  54.8469992  42.1939978  99.2020014  54.2919992  40.5139978  99.3230014
  56.2889992  40.7369978  98.9430014  57.4029992  41.4559978  99.8540014
  56.9849992  40.9839978 101.3000014  58.0039992  40.9429978 102.2180014
  58.7979992  40.2449978 101.8760014  58.4329992  41.9579978 102.3590014
  57.5469992  40.5129978 103.6450014  57.7169992  39.4489978 103.7270014
  58.2279992  40.9949978 104.3320014  56.1379992  40.8729978 104.2100014
  55.0539992  40.0609978 103.4840014  55.1629992  39.0059978 103.6870014
  54.0649992  40.3619978 103.7960014  55.1759992  40.1989978 102.4200014
  56.2009992  40.5069978 105.6330014  56.9239992  41.1229978 106.1470014
  55.2649992  40.6729978 106.1450014  56.5279992  39.4779978 105.6350014
  55.7869992  42.3349978 104.1240014  56.5299992  42.8219978 104.7390014
  54.8819992  42.5129978 104.6870014  55.7569992  42.6079978 103.0800014
  58.6699992  40.8029978  99.3850014  57.3349992  42.8839978  99.7090014
  55.1749992  40.3089978  96.4650014  55.0829992  39.0159978  96.7080014
  54.4259992  38.4219978  97.5480014  56.0049992  38.3969978  95.5790014
  56.5859992  39.2179978  95.1080014  55.2329992  38.1229978  94.8290014
  56.8019992  37.2489978  96.2480014  57.1399992  36.6149978  95.4000014
  56.1019992  36.6429978  96.8620014  57.9549992  37.7379978  97.1280014
  58.6589992  36.9719978  97.5160014  57.3609992  38.0779978  98.0030014
  58.7969992  38.9869978  96.6740014  59.5709992  39.2809978  97.4150014
  58.1069992  39.8289978  96.4530014  59.6279992  38.7829978  95.4020014
  59.0639992  38.1449978  94.6880014  60.5459992  38.1779978  95.5630014
  60.0629992  40.1219978  94.7940014  60.3469992  40.7519978  95.6640014
  59.1499992  40.6179978  94.3990014  61.2009992  40.1829978  93.7780014
  62.1409992  39.9709978  94.3300014  61.2849992  41.1979978  93.3330014
  61.0989992  39.1779978  92.6350014  61.6159992  38.2349978  92.8690014
  60.3979992  39.2279978  91.4620014  60.5179992  38.4859978  90.6590014
  59.4689992  40.3329978  90.9910014  59.9849992  41.2879978  91.2280014
  58.5659992  40.2439978  91.6320014  59.1519992  40.4259978  89.4830014
  58.3149992  41.1559978  89.4980014  58.8569992  39.4239978  89.1040014
  60.3429992  41.0199978  88.6650014  61.2679992  40.4359978  88.8590014
  60.4429992  42.1129978  88.8390014  60.1219992  40.8659978  87.1580014
  60.9499992  41.4769978  86.7410014  59.0949992  41.1789978  86.8700014
  60.2509992  39.4399978  86.5060014  59.5549992  38.7539978  87.0330014
  61.2639992  39.0519978  86.7480014  59.8879992  39.4299978  84.9910014
  58.8299992  39.7359978  84.8460014  59.8769992  38.3459978  84.7480014
  60.8519992  40.1659978  84.1360014  61.9169992  39.9369978  84.3560014
  60.8569992  41.2629978  84.3160014  60.6009992  39.8919978  82.5970014
  59.5549992  40.1529978  82.3290014  60.7609992  38.8379978  82.2830014
  61.2969992  40.4499978  81.9350014 100.1789992  32.2859978  81.5710014
 100.6589992  31.4459978  81.0260014 100.0919992  33.2049978  80.9530014
  99.1389992  31.9839978  81.8230014 101.0409992  32.4619978  82.8330014
 102.0979992  32.5369978  82.4980014 100.8959992  33.4259978  83.3660014
 100.9249992  31.3769978  83.9080014 101.2859992  30.4919978  83.3410014
 101.5979992  31.5939978  84.7650014  99.4829992  31.0929978  84.2900014
  99.0509992  32.0219978  84.7190014  98.8499992  31.0809978  83.3760014
  99.1999992  29.9989978  85.3340014  99.8049992  29.1019978  85.0830014
  99.5709992  30.2199978  86.3570014  97.7719992  29.4469978  85.4620014
  97.3369992  29.1039978  84.4990014  97.9719992  28.5329978  86.0620014
  96.8299992  30.4209978  86.1600014  96.8469992  31.3409978  85.5360014
  95.8259992  29.9469978  86.1500014  97.1719992  30.7099978  87.6450014
  97.0829992  29.7079978  88.1140014  98.2109992  31.0909978  87.7360014
  96.1229992  31.7729978  88.1650014  96.3489992  32.7049978  87.6040014
  95.1329992  31.3249978  87.9320014  96.1719992  32.2719978  89.5930014
  95.6869992  33.2719978  89.5960014  95.5209992  31.5699978  90.1570014
  97.5599992  32.0809978  90.3570014  97.8609992  31.0349978  90.1330014
  98.2789992  32.7059978  89.7860014  97.4779992  32.3049978  91.8680014
  96.6969992  33.0809978  92.0250014  97.1419992  31.3899978  92.4010014
  98.7849992  32.7129978  92.5040014  98.6249992  32.6919978  93.6030014
  99.5409992  31.9189978  92.3230014  99.3359992  34.0789978  92.2040014
  99.3109992  34.1139978  91.0940014  98.5759992  34.8199978  92.5330014
 100.8029992  34.2619978  92.7410014 101.5499992  33.4419978  92.6850014
 101.1119992  35.0469978  92.0180014 100.9589992  34.8749978  94.0990014
 100.2959992  35.8789978  94.4460014 101.8059992  34.2719978  94.9790014
 101.6329992  34.7209978  96.3150014 102.5509992  34.4599978  96.8850014
 101.5129992  35.8229978  96.2460014 100.4549992  34.0239978  97.0210014
  99.5509992  34.3809978  96.4830014 100.2119992  34.2929978  98.4880014
 100.1099992  35.3959978  98.5680014  99.2639992  33.7549978  98.7050014
 101.2509992  33.7499978  99.3590014 100.9099992  33.7799978 100.8790014
 100.7199992  32.2089978 101.2400014  99.5159992  31.5409978 100.9340014
  98.9129992  32.0629978 100.1600014  99.7679992  30.5339978 100.5400014
  98.6789992  31.4239978 102.1810014  98.1549992  32.3299978 102.4500014
  97.8909992  30.7379978 101.9090014  99.2629992  30.8069978 103.4620014
 100.3769992  31.7029978 104.0940014 100.7789992  31.1309978 104.9160014
 101.1829992  31.8559978 103.3910014 100.0029992  32.6629978 104.4180014
  98.1489992  30.6819978 104.4450014  97.7199992  31.6429978 104.6890014
  97.3499992  30.0989978 104.0100014  98.5419992  30.2149978 105.3360014
  99.8869992  29.4979978 103.1850014 100.0979992  29.5189978 102.1260014
  99.2299992  28.6699978 103.4060014 100.8619992  29.4999978 103.6480014
 102.1309992  34.1269978 101.6100014  99.5989992  34.4719978 101.1180014
 100.6209992  32.6269978  96.8260014  99.4879992  31.9469978  96.7230014
  98.3699992  32.4029978  96.7580014  99.7749992  30.4469978  96.5230014
 100.1209992  29.9469978  97.4530014 100.6249992  30.3689978  95.8120014
  98.5099992  29.6759978  95.9860014  97.9359992  30.3759978  95.3430014
  97.9419992  29.2589978  96.8450014  98.8359992  28.4779978  95.0690014
  97.8479992  28.0739978  94.7580014  99.4429992  27.7209978  95.6100014
  99.7129992  28.8519978  93.8040014 100.6439992  29.3529978  94.1470014
  99.0479992  29.5489978  93.2510014 100.2789992  27.7019978  92.9440014
  99.4889992  27.0219978  92.5600014 100.9839992  27.2349978  93.6640014
 101.1309992  28.3169978  91.7360014 101.6129992  27.4399978  91.2520014
 101.9879992  28.8659978  92.1810014 100.5189992  29.1269978  90.6140014
 100.1959992  30.1169978  91.0040014  99.6769992  28.6379978  90.0800014
 101.6319992  29.2699978  89.6010014 102.0989992  28.3189978  89.3070014
 102.1959992  30.3519978  89.0820014 102.9969992  30.2529978  88.3340014
 101.7839992  31.7719978  89.4550014 102.1789992  32.0629978  90.4520014
 100.6969992  31.9049978  89.6440014 102.0879992  32.8909978  88.4090014
 103.0869992  32.6379978  87.9950014 102.0779992  33.8239978  89.0130014
 101.0899992  32.9839978  87.3170014 100.0519992  33.0229978  87.7130014
 101.0759992  32.0089978  86.7840014 101.2239992  34.0629978  86.2550014
 100.2969992  34.1259978  85.6460014 102.0439992  33.8359978  85.5410014
 101.2479992  35.4259978  86.9490014 102.1959992  35.4789978  87.5250014
 100.3539992  35.6749978  87.5600014 101.3849992  36.6189978  86.0230014
 101.3459992  37.5259978  86.6630014 100.5859992  36.6609978  85.2520014
 102.6449992  36.7819978  85.1390014 102.6709992  36.0389978  84.3130014
 103.5069992  36.5039978  85.7820014 102.8749992  38.2099978  84.6300014
 102.2609992  38.4149978  83.7260014 103.9199992  38.1859978  84.2530014
 102.6999992  38.9679978  85.4220014 111.5289992  50.9939978  84.7640014
 112.0619992  50.8089978  85.7210014 112.1549992  51.5579978  84.0400014
 111.4609992  50.0009978  84.2710014 110.1019992  51.5659978  85.1580014
 109.3599992  51.4239978  84.3440014 109.7509992  50.8839978  85.9620014
 110.2219992  52.9959978  85.6560014 110.8179992  53.6299978  84.9660014
 109.2249992  53.4289978  85.8850014 110.8839992  52.9109978  87.1210014
 110.2869992  52.1429978  87.6580014 111.9139992  52.4969978  87.0770014
 110.8909992  54.3319978  87.5870014 111.4959992  54.8979978  86.8470014
 109.8589992  54.7379978  87.5200014 111.3009992  54.4739978  88.9980014
 110.4009992  54.3069978  89.6290014 112.0939992  53.7289978  89.2240014
 111.8169992  55.8899978  89.2530014 112.2279992  55.7329978  90.2740014
 112.5939992  56.2669978  88.5530014 110.7169992  56.8829978  89.3700014
 110.3439992  56.9129978  88.3230014 109.9269992  56.4839978  90.0410014
 111.2209992  58.3339978  89.7060014 112.0749992  58.5869978  89.0410014
 110.3719992  59.0419978  89.5930014 111.8549992  58.4959978  91.0680014
 112.8389992  57.9829978  91.1320014 112.0469992  59.5879978  91.1400014
 111.0199992  57.8559978  92.1620014 110.0439992  58.3859978  92.1410014
 110.8579992  56.7569978  92.1540014 111.5949992  58.2879978  93.5230014
 112.3409992  57.5329978  93.8500014 111.9739992  59.3279978  93.6140014
 110.5829992  58.2299978  94.7490014 111.2359992  58.4189978  95.6280014
 109.8459992  59.0619978  94.7650014 109.7679992  56.9459978  94.9320014
 109.1789992  56.8369978  93.9960014 110.3669992  56.0269978  95.1110014
 108.9499992  57.0699978  96.2180014 109.5639992  57.2969978  97.1150014
 108.2899992  57.9409978  96.0180014 107.9839992  55.8409978  96.3810014
 107.7529992  55.0359978  95.4880014 107.3539992  55.8049978  97.5600014
 106.2399992  54.8279978  97.7630014 105.4189992  55.2989978  98.3450014
 105.8269992  54.3849978  96.8310014 106.6779992  53.5459978  98.5430014
 105.7419992  52.9659978  98.6890014 107.3619992  53.8569978  99.8710014
 106.7309992  54.5239978 100.4970014 107.4799992  52.8449978 100.3150014
 108.6629992  54.3729978  99.5760014 109.9789992  53.7289978 100.0500014
 109.7849992  53.6129978 101.6590014 109.9529992  54.7939978 102.4180014
 109.8899992  55.7429978 101.8440014 109.0829992  54.9419978 103.0930014
 111.3369992  54.8669978 103.0800014 112.0919992  54.8219978 102.3090014
 111.3739992  55.7959978 103.6280014 111.7889992  53.6559978 103.9420014
 112.1319992  52.4489978 102.9890014 112.7179992  52.7999978 102.1520014
 112.6749992  51.7799978 103.6400014 111.1319992  52.1389978 102.7240014
 113.1329992  54.1619978 104.5640014 112.9609992  55.0939978 105.0840014
 113.4469992  53.4269978 105.2900014 113.8959992  54.3669978 103.8280014
 110.8689992  53.2549978 104.9890014 109.8289992  53.1919978 104.7030014
 110.8189992  53.9679978 105.7990014 111.2479992  52.3139978 105.3600014
 110.0919992  52.3759978  99.4930014 111.1269992  54.6569978  99.7450014
 107.6089992  52.8839978  97.7040014 107.1459992  52.0989978  96.7860014
 105.9579992  51.8549978  96.5230014 108.3719992  51.5739978  96.0960014
 108.8889992  50.8629978  96.7750014 109.0669992  52.4359978  95.9990014
 107.9839992  50.9719978  94.6970014 107.1679992  50.2209978  94.6260014
 108.9339992  50.4359978  94.4860014 107.8379992  51.9339978  93.5570014
 108.5379992  52.7849978  93.6990014 106.8809992  52.4989978  93.5460014
 107.9249992  51.2749978  92.1760014 107.1259992  50.5119978  92.0580014
 108.8619992  50.6809978  92.1200014 107.7769992  52.2819978  91.0250014
 108.4449992  53.1599978  91.1570014 106.7229992  52.6259978  91.0910014
 107.7949992  51.6849978  89.6030014 107.0399992  50.8709978  89.5580014
 108.8219992  51.3279978  89.3740014 107.4519992  52.6879978  88.3950014
 107.8689992  52.0949978  87.5530014 108.1599992  53.5239978  88.5780014
 106.0659992  53.1629978  88.1370014 105.5209992  53.5059978  89.0290014
 105.3729992  53.2589978  86.8910014 104.4979992  53.9249978  86.8570014
 105.8959992  52.8709978  85.5780014 105.1309992  52.2329978  85.0860014
 106.6069992  52.0269978  85.7110014 106.5409992  53.9519978  84.6880014
 105.6179992  54.3579978  84.2220014 107.1909992  53.4889978  83.9150014
 107.2499992  55.0749978  85.4050014 107.6099992  54.7569978  86.4060014
 106.5019992  55.8659978  85.6280014 108.4549992  55.7809978  84.6800014
 108.0829992  56.1549978  83.7020014 109.2409992  55.0319978  84.4430014
 108.9439992  57.0259978  85.3960014 109.2239992  56.8039978  86.4480014
 108.1649992  57.7909978  85.6020014 109.9889992  57.9439978  84.6780014
 109.9789992  58.9599978  85.1280014 109.9339992  57.9549978  83.5690014
 111.4749992  57.4669978  84.8810014 111.6059992  56.4079978  84.5710014
 111.8309992  57.5649978  85.9290014 112.4579992  58.3059978  84.0630014
 112.3829992  59.3409978  84.4600014 112.3819992  58.1619978  82.9640014
 113.4739992  57.9639978  84.3540014  91.4449992  26.6199978  82.6420014
  90.8229992  26.7629978  81.7330014  90.9649992  26.1789978  83.5410014
  92.3349992  25.9949978  82.4160014  91.9639992  28.0039978  83.0430014
  92.4759992  28.5739978  82.2380014  91.0779992  28.6379978  83.2580014
  92.9129992  27.9679978  84.2440014  92.3669992  27.8539978  85.2050014
  93.6049992  27.0979978  84.2650014  93.8129992  29.2099978  84.2030014
  94.3109992  29.4169978  83.2310014  93.1139992  30.0659978  84.3190014
  94.8089992  29.3969978  85.3460014  95.7259992  28.8259978  85.0880014
  95.1309992  30.4579978  85.2660014  94.2929992  29.2079978  86.7730014
  94.8359992  29.8369978  87.5110014  93.2229992  29.4989978  86.8370014
  94.3949992  27.6959978  87.2920014  93.6739992  27.6689978  88.1370014
  94.0319992  26.9229978  86.5810014  95.7979992  27.1239978  87.6630014
  95.5089992  26.2519978  88.2870014  96.1899992  26.7309978  86.7010014
  96.7109992  28.1739978  88.2740014  97.3099992  28.7419978  87.5310014
  96.1679992  28.9499978  88.8550014  97.7979992  27.5789978  89.1240014
  98.4239992  26.8139978  88.6190014  98.5539992  28.3529978  89.3760014
  97.3809992  27.1049978  90.4930014  96.6209992  27.8219978  90.8720014
  96.8719992  26.1189978  90.5260014  98.6669992  26.9289978  91.3500014
  99.3669992  26.4239978  90.6520014  99.2169992  27.8859978  91.4710014
  98.5459992  26.4769978  92.7980014  97.9869992  25.5189978  92.8700014
  99.5339992  26.0669978  93.0970014  98.1209992  27.5659978  93.7080014
  98.8769992  28.3719978  93.5930014  97.0789992  27.8539978  93.4510014
  98.0699992  26.9869978  95.2070014  97.3479992  26.1819978  95.4600014
  99.1059992  26.6529978  95.4310014  97.7199992  28.1869978  96.0350014
  97.9389992  29.3769978  95.7060014  97.3189992  27.7929978  97.2440014
  97.1769992  28.6959978  98.3180014  98.1479992  28.7689978  98.8530014
  96.8419992  29.6779978  97.9210014  96.2219992  28.0329978  99.3560014
  96.1229992  28.6489978 100.2750014  96.5459992  26.6569978 100.0020014
  96.9079992  26.0259978  99.1620014  97.4499992  26.6799978 100.6470014
  95.4089992  26.0709978 100.6540014  95.6679992  24.7369978 101.4150014
  94.2439992  24.2229978 101.9200014  93.0469992  24.6109978 101.2940014
  93.0829992  24.3679978 100.2110014  92.2699992  23.9529978 101.7390014
  92.6519992  26.1069978 101.4860014  93.4689992  26.7029978 101.1060014
  91.8199992  26.2429978 100.8110014  92.2259992  26.5949978 102.8610014
  93.3739992  26.5079978 103.8420014  94.2489992  27.0059978 103.4520014
  93.1389992  26.8309978 104.8450014  93.5459992  25.4419978 103.8680014
  91.9709992  28.0389978 102.6390014  91.4879992  28.4569978 103.5100014
  92.9389992  28.4959978 102.4950014  91.3919992  28.1659978 101.7360014
  90.9249992  25.9329978 103.3150014  90.2599992  26.0469978 102.4710014
  90.4279992  26.4129978 104.1450014  91.0369992  24.8649978 103.4280014
  96.1259992  23.7189978 100.5120014  96.5169992  25.1549978 102.5670014
  94.9269992  27.9539978  98.7310014  94.3579992  29.0799978  98.4370014
  94.6539992  30.1769978  98.9780014  93.1629992  28.8699978  97.6070014
  92.3299992  29.4289978  98.0850014  92.9219992  27.7859978  97.6440014
  93.2689992  29.3479978  96.1600014  93.7659992  30.3279978  95.9910014
  92.2579992  29.5009978  95.7260014  93.8559992  28.3039978  95.2250014
  93.5749992  27.3189978  95.6550014  94.9629992  28.3869978  95.1900014
  93.3719992  28.4669978  93.7810014  93.7209992  29.5009978  93.5770014
  92.2659992  28.4669978  93.6810014  93.9109992  27.5409978  92.7030014
  94.9959992  27.3339978  92.8180014  93.8499992  28.1249978  91.7600014
  93.1449992  26.2639978  92.4380014  92.0449992  26.4169978  92.4670014
  93.3849992  25.5539978  93.2580014  93.2359992  25.7699978  90.9460014
  94.2279992  26.0619978  90.5390014  92.6659992  26.4119978  90.2410014
  93.1529992  24.2819978  90.9610014  93.7279992  23.6829978  91.6820014
  92.5379992  23.5129978  90.0560014  92.5759992  22.4279978  90.2330014
  91.7459992  23.9939978  88.8350014  91.8979992  25.0759978  88.6360014
  90.6699992  23.7869978  89.0170014  92.2289992  23.2499978  87.5640014
  91.6579992  23.5679978  86.6660014  91.9519992  22.1849978  87.7190014
  93.7319992  23.3649978  87.2060014  94.3659992  23.0049978  88.0440014
  93.9149992  24.4499978  87.0570014  93.9899992  22.6649978  85.9120014
  93.4189992  23.0669978  85.0470014  93.6649992  21.6109978  86.0480014
  95.5429992  22.6289978  85.6460014  95.8769992  21.7819978  85.0100014
  96.0209992  22.4589978  86.6350014  96.2749992  23.9189978  85.0580014
  97.3449992  23.6669978  84.8950014  96.2389992  24.8629978  85.6420014
  95.5739992  24.2809978  83.7080014  94.5589992  24.6889978  83.8990014
  95.4639992  23.4589978  82.9690014  96.3009992  25.2879978  82.8680014
  97.1589992  24.8599978  82.3060014  96.5529992  26.1279978  83.5500014
  95.6749992  25.5229978  81.9810014 114.3479992  69.7779978  85.1500014
 113.9479992  70.1789978  84.1940014 114.9329992  68.8689978  84.8970014
 115.1569992  70.4499978  85.5090014 113.4469992  69.6949978  86.3060014
 113.0949992  70.6989978  86.6230014 112.5409992  69.1659978  85.9390014
 114.0749992  68.9489978  87.5280014 115.0019992  69.5029978  87.7870014
 113.4239992  69.0719978  88.4200014 114.3279992  67.4479978  87.2830014
 113.3469992  66.9339978  87.1850014 115.0539992  67.2989978  86.4560014
 114.9169992  66.7219978  88.4930014 115.3179992  65.8099978  88.0000014
 115.6089992  67.3509978  89.0930014 113.8519992  66.1149978  89.4760014
 113.1719992  65.3849978  88.9870014 114.3119992  65.4819978  90.2650014
 113.0469992  67.1589978  90.2140014 113.4749992  68.1099978  90.5970014
 112.2479992  67.3689978  89.4720014 112.3319992  66.5339978  91.4450014
 111.7669992  65.6019978  91.2280014 113.0949992  66.2699978  92.2080014
 111.3239992  67.5049978  92.0630014 111.6489992  68.5669978  92.0410014
 110.4399992  67.4789978  91.3920014 110.8909992  67.2279978  93.5200014
 109.9169992  67.7469978  93.6490014 110.7719992  66.1869978  93.8880014
 111.8919992  67.8839978  94.5740014 112.7109992  67.2269978  94.9380014
 112.5059992  68.6229978  94.0160014 111.1319992  68.6459978  95.7500014
 111.9329992  69.1369978  96.3430014 110.4679992  69.3949978  95.2680014
 110.1729992  67.8179978  96.5970014 109.8159992  68.4229978  97.4580014
 109.2789992  67.4539978  96.0470014 110.8699992  66.5169978  97.0620014
 110.0969992  66.1429978  97.7680014 110.9619992  65.7819978  96.2350014
 112.2329992  66.5999978  97.8350014 112.9569992  67.1739978  97.2180014
 112.1489992  67.2039978  98.7630014 112.9089992  65.2829978  98.1410014
 112.4789992  64.1759978  97.7950014 113.9759992  65.5029978  98.8940014
 114.6689992  64.4509978  99.5450014 113.8779992  63.7169978  99.8100014
 115.3349992  63.9369978  98.8190014 115.4889992  65.0249978 100.6840014
 116.0579992  64.2619978 101.2550014 114.5689992  65.7459978 101.7210014
 113.7949992  65.0619978 102.1310014 115.2039992  65.9049978 102.6180014
 114.1029992  66.9759978 101.2360014 112.9049992  67.7749978 101.9460014
 113.6489992  69.1419978 102.3910014 114.6169992  69.2099978 103.4450014
 114.7949992  70.2229978 103.8640014 114.1849992  68.6059978 104.2720014
 115.9339992  68.6979978 102.9620014 116.4969992  68.5499978 103.8720014
 115.9519992  67.7309978 102.4810014 116.6769992  69.5409978 101.9110014
 116.8279992  70.9929978 102.3810014 117.2849992  71.4989978 101.5430014
 115.8719992  71.4399978 102.6070014 117.4369992  70.9759978 103.2730014
 117.9979992  68.9709978 101.5140014 118.5049992  68.5579978 102.3740014
 117.9639992  68.2149978 100.7430014 118.5359992  69.8029978 101.0840014
 115.8539992  69.5439978 100.5810014 116.4179992  70.0479978  99.8100014
 114.8789992  69.9989978 100.6830014 115.7849992  68.4929978 100.3450014
 111.8959992  68.0619978 100.9220014 112.5489992  67.0569978 103.2160014
 116.3779992  66.0039978 100.2520014 117.3169992  65.5149978  99.4910014
 117.7079992  64.3679978  99.4120014 117.8649992  66.6349978  98.5440014
 118.8909992  66.2999978  98.2840014 117.8159992  67.6289978  99.0390014
 117.0389992  66.7889978  97.2980014 116.1469992  67.3989978  97.5570014
 116.7119992  65.8009978  96.9090014 117.5389992  67.5899978  96.0790014
 118.4469992  67.0899978  95.6790014 117.7689992  68.5899978  96.5050014
 116.4729992  67.9789978  95.0230014 116.7909992  68.9249978  94.5330014
 115.4829992  68.1829978  95.4840014 116.3099992  67.0199978  93.8760014
 115.5769992  67.3279978  93.1010014 116.0369992  66.0499978  94.3450014
 117.5549992  66.7789978  93.1090014 118.2529992  66.3249978  93.8440014
 117.9749992  67.7249978  92.7050014 117.3399992  65.8089978  91.9280014
 116.6399992  66.1949978  91.1550014 116.8839992  64.8939978  92.3620014
 118.5389992  65.1379978  91.1630014 118.6149992  64.0549978  91.3430014
 119.5189992  65.7589978  90.4100014 120.2609992  65.1909978  89.8300014
 119.5659992  67.2489978  90.1850014 120.0789992  67.7589978  91.0290014
 118.5469992  67.6909978  90.1630014 120.2649992  67.5449978  88.8460014
 121.3019992  67.1489978  88.7890014 120.2819992  68.6549978  88.8780014
 119.4119992  67.4559978  87.6690014 119.7139992  68.1689978  86.8720014
 118.3119992  67.5319978  87.8030014 119.4139992  66.0739978  86.8840014
 119.1109992  65.2889978  87.6090014 120.4759992  65.9059978  86.6040014
 118.5749992  65.9249978  85.6330014 118.7779992  66.6689978  84.8340014
 117.5339992  66.0869978  85.9850014 118.5849992  64.5449978  85.0500014
 118.2519992  63.8759978  85.8730014 119.6309992  64.2989978  84.7670014
 117.7749992  64.4139978  83.8320014 117.4949992  63.3399978  83.8010014
 118.2889992  64.7639978  82.9120014 116.4059992  65.0179978  83.8760014
 115.7599992  64.5679978  83.0920014 116.3709992  66.1249978  83.7910014
 115.9329992  64.7549978  84.8470014  44.9309992  51.7799978  82.5710014
  44.7639992  52.4899978  83.4090014  44.1669992  51.8679978  81.7690014
  45.9409992  52.1069978  82.2430014  45.0489992  50.3849978  83.0300014
  44.0929992  49.8209978  83.0850014  45.7819992  49.8299978  82.4070014
  45.7039992  50.2849978  84.4660014  45.7009992  49.2069978  84.7370014
  46.7339992  50.6869978  84.3570014  45.0209992  51.0939978  85.5750014
  45.5229992  52.0839978  85.6220014  43.9589992  51.2419978  85.2860014
  45.0519992  50.5579978  86.9780014  44.7649992  51.3719978  87.6780014
  44.3249992  49.7399978  87.1680014  46.4359992  50.1919978  87.4010014
  46.6149992  49.1779978  86.9850014  47.1939992  50.8489978  86.9230014
  46.6829992  50.2549978  88.8960014  46.5239992  51.2949978  89.2520014
  45.9169992  49.6419978  89.4170014  48.1009992  49.8689978  89.1100014
  48.2799992  49.0409978  88.3910014  48.7579992  50.6759978  88.7220014
  48.5699992  49.5049978  90.6400014  49.6649992  49.6509978  90.5240014
  48.0709992  50.2109978  91.3380014  48.3399992  48.0559978  91.0100014
  47.2559992  47.9299978  90.7990014  48.8779992  47.3789978  90.3120014
  48.9269992  47.6669978  92.4200014  49.9909992  47.9769978  92.3460014
  48.4419992  48.3429978  93.1570014  48.8799992  46.1869978  92.7630014
  47.9059992  45.8509978  93.1790014  49.0849992  45.6629978  91.8050014
  50.0339992  45.8109978  93.7300014  50.0589992  44.7629978  94.0980014
  51.0159992  45.8599978  93.2120014  50.0109992  46.7509978  94.9670014
  50.4989992  47.7259978  94.7490014  48.9129992  46.8289978  95.1150014
  50.7079992  46.0909978  96.2380014  50.2629992  45.0819978  96.3720014
  51.8119992  45.9999978  96.1440014  50.2539992  46.9229978  97.4210014
  49.2049992  46.8049978  98.0270014  51.2319992  47.7809978  97.8080014
  50.8759992  48.7369978  98.7760014  49.9689992  48.4879978  99.3660014
  51.7009992  48.9959978  99.4740014  50.5219992  50.1049978  98.0900014
  51.4499992  50.4029978  97.5560014  50.0779992  51.1779978  99.1340014
  50.7219992  51.2119978 100.0380014  49.9469992  52.1699978  98.6500014
  48.7739992  50.8099978  99.5170014  48.3979992  50.8459978 101.0890014
  48.8249992  52.3129978 101.6430014  48.2089992  53.4629978 100.9580014
  49.0469992  53.8359978 100.3320014  47.3769992  53.1819978 100.2780014
  47.9089992  54.5399978 102.0310014  48.8569992  54.8519978 102.4420014
  47.3809992  55.4039978 101.6560014  47.0599992  54.1479978 103.2210014
  47.6689992  53.0859978 104.0690014  47.8699992  52.2429978 103.4240014
  48.6109992  53.4729978 104.4290014  47.0739992  52.9099978 104.9520014
  46.8259992  55.3209978 104.1380014  47.7619992  55.6789978 104.5420014
  46.3079992  56.0419978 103.5230014  46.3589992  54.9799978 105.0510014
  45.6899992  53.6579978 102.7970014  45.6669992  52.6209978 102.4950014
  45.3539992  54.2669978 101.9710014  44.9569992  53.7289978 103.5870014
  46.9469992  50.7419978 101.2110014  49.2219992  49.8389978 101.8330014
  49.4079992  49.8799978  97.1580014  49.2709992  50.7959978  96.1620014
  50.0629992  51.6899978  95.8940014  47.9709992  50.5699978  95.3540014
  47.1929992  50.3899978  96.1270014  48.0599992  49.7069978  94.6590014
  47.7289992  51.9119978  94.4050014  48.5329992  51.8519978  93.6410014
  47.7889992  52.8819978  94.9430014  46.3949992  51.8799978  93.6870014
  45.5579992  51.7479978  94.4050014  46.3619992  51.0539978  92.9460014
  46.1499992  53.2109978  92.9130014  45.9929992  54.0619978  93.6090014
  45.1949992  53.0669978  92.3630014  47.2529992  53.5269978  91.8760014
  47.2739992  52.6299978  91.2200014  48.2399992  53.7649978  92.3290014
  46.9489992  54.7829978  91.1300014  47.1089992  55.5879978  91.8790014
  45.8849992  54.6499978  90.8410014  47.8219992  55.0619978  89.8730014
  47.2889992  55.9379978  89.4460014  47.5829992  54.1829978  89.2370014
  49.3159992  55.4149978  90.0740014  49.5149992  56.2749978  90.7300014
  50.2969992  54.6949978  89.5790014  51.2829992  54.9729978  89.9780014
  50.2329992  53.3659978  88.8130014  49.3819992  52.7159978  89.1090014
  51.1939992  52.8709978  89.0680014  50.0769992  53.6029978  87.3090014
  50.9489992  54.1629978  86.9080014  49.1449992  54.1679978  87.0960014
  50.1619992  52.2349978  86.6160014  49.4489992  51.5889978  87.1700014
  51.2199992  51.8999978  86.6730014  49.8709992  52.2289978  85.0860014
  50.5339992  52.9339978  84.5410014  48.8129992  52.4819978  84.8590014
  49.9119992  50.7719978  84.5250014  49.1059992  50.2019978  85.0350014
  50.9139992  50.3939978  84.8200014  49.7499992  50.6499978  82.9910014
  50.4439992  51.2269978  82.3420014  48.7359992  51.0639978  82.8030014
  49.7739992  49.1649978  82.5250014  49.3079992  49.1779978  81.5160014
  49.1279992  48.5269978  83.1660014  51.1429992  48.6279978  82.5770014
  51.7969992  49.3769978  82.0800014  51.3369992  47.6379978  82.1120014
  51.4259992  48.4369978  83.6340014  69.8009992  31.8269978  81.8870014
  69.1329992  31.0449978  82.3070014  70.6449992  31.2239978  81.4890014
  69.3779992  32.4719978  81.0870014  70.1789992  32.7629978  83.0660014
  71.1239992  33.2939978  82.8240014  69.3339992  33.4839978  83.0590014
  70.2839992  32.2359978  84.4770014  70.7219992  33.0509978  85.0920014
  69.2519992  32.0909978  84.8620014  71.0279992  30.9139978  84.6350014
  70.5379992  30.0359978  84.1620014  72.0359992  30.8979978  84.1670014
  71.3519992  30.6129978  86.1220014  71.8929992  29.6459978  86.0440014
  71.9909992  31.3899978  86.5940014  70.1279992  30.2999978  87.0430014
  69.8539992  31.1719978  87.6760014  69.2379992  29.9549978  86.4750014
  70.4779992  29.1089978  88.0480014  70.8179992  28.2759978  87.3960014
  71.3169992  29.3439978  88.7370014  69.2519992  28.6839978  88.7920014
  69.1309992  29.4199978  89.6160014  68.3249992  28.7449978  88.1820014
  69.3779992  27.3639978  89.4900014  69.5069992  26.5969978  88.6960014
  70.2549992  27.3269978  90.1720014  68.1049992  26.8989978  90.2560014
  67.4109992  26.6759978  89.4170014  68.2699992  25.9649978  90.8360014
  67.4309992  28.0309978  91.1680014  67.1489992  28.8759978  90.5040014
  66.4229992  27.6819978  91.4770014  68.3269992  28.4999978  92.3230014
  69.1489992  29.1399978  91.9350014  67.7239992  29.1979978  92.9430014
  68.9729992  27.3929978  93.1640014  68.1819992  26.6169978  93.2410014
  69.8349992  27.0249978  92.5670014  69.5669992  27.7939978  94.5370014
  68.7829992  28.1539978  95.2370014  69.8749992  26.8319978  95.0000014
  70.7649992  28.7709978  94.4140014  71.4979992  28.2139978  93.7910014
  70.2849992  29.6109978  93.8670014  71.2839992  29.1159978  95.7830014
  72.2699992  28.5589978  96.2760014  70.6489992  30.1109978  96.3580014
  70.7339992  30.2259978  97.8070014  70.9769992  29.2989978  98.3690014
  71.4959992  31.0299978  97.8890014  69.4169992  30.8959978  98.2960014
  69.1899992  31.6929978  97.5560014  69.4999992  31.4279978  99.7440014
  70.3149992  32.1819978  99.7530014  68.5559992  31.8859978 100.1080014
  70.0279992  30.3499978 100.5520014  69.0539992  29.5769978 101.5920014
  67.5579992  29.9249978 101.0330014  66.4989992  29.7149978 101.8690014
  65.5889992  29.6229978 101.2380014  66.6959992  28.7929978 102.4570014
  66.3119992  30.8399978 102.9930014  65.5389992  30.5019978 103.6670014
  67.2259992  30.8369978 103.5690014  65.8629992  32.2219978 102.5970014
  66.9019992  33.0239978 101.8240014  67.7379992  33.0349978 102.5080014
  67.0559992  32.4799978 100.9030014  66.4379992  33.9899978 101.6900014
  64.6359992  32.1609978 101.7220014  64.1759992  33.1339978 101.6340014
  65.0109992  31.7169978 100.8120014  64.0289992  31.4679978 102.2870014
  65.4959992  32.9019978 103.8580014  66.2789992  32.9929978 104.5970014
  64.7399992  32.3189978 104.3620014  65.0179992  33.8499978 103.6590014
  69.3609992  28.1519978 101.5430014  69.1709992  30.2509978 102.9230014
  68.2969992  29.9599978  98.1520014  67.1309992  30.5679978  97.9340014
  66.9089992  31.7479978  97.8820014  66.1369992  29.5559978  97.9860014
  66.1319992  28.9499978  98.9170014  66.3389992  28.8339978  97.1660014
  64.7169992  30.1619978  97.7590014  64.7599992  31.0039978  97.0350014
  64.4449992  30.5649978  98.7580014  63.5989992  29.2219978  97.2850014
  62.7939992  29.1769978  98.0490014  64.0059992  28.1889978  97.2460014
  63.0349992  29.6949978  96.0010014  62.7179992  30.7459978  96.1730014
  62.1799992  29.0909978  95.6280014  64.0149992  29.6149978  94.8130014
  64.8389992  28.9019978  95.0290014  64.3919992  30.6579978  94.7510014
  63.3429992  29.3149978  93.4440014  62.7939992  28.3659978  93.6250014
  64.0979992  29.2179978  92.6350014  62.1929992  30.3629978  93.1320014
  61.5119992  30.4739978  94.0030014  61.5589992  29.8849978  92.3550014
  62.8149992  31.6719978  92.7430014  63.0759992  32.3709978  93.5510014
  63.1589992  32.0519978  91.5030014  63.5369992  33.0719978  91.3410014
  62.9949992  31.1269978  90.2730014  62.3679992  31.4529978  89.4150014
  62.5749992  30.1789978  90.6730014  64.4319992  30.7569978  89.7300014
  64.3729992  29.9209978  89.0000014  65.1189992  30.4149978  90.5330014
  65.1039992  32.0159978  89.1330014  65.5069992  32.6909978  89.9180014
  64.4599992  32.6329978  88.4700014  66.3239992  31.6539978  88.2850014
  66.9599992  30.8749978  88.7580014  66.9909992  32.4889978  87.9820014
  65.9029992  30.9209978  87.0130014  65.0429992  30.2749978  87.2910014
  66.7239992  30.3419978  86.5380014  65.4289992  31.8819978  85.9390014
  66.3119992  31.9099978  85.2650014  65.3669992  32.9389978  86.2730014
  64.0739992  31.4799978  85.2450014  63.7799992  32.1569978  84.4150014
  63.2589992  31.5159978  86.0000014  64.1229992  30.0999978  84.4850014
  64.8409992  30.1099978  83.6370014  63.1319992  29.8789978  84.0330014
  64.4349992  29.2789978  85.1650014  49.9459992 109.1819978  82.7140014
  49.1629992 109.2219978  81.9270014  49.9099992 110.2109978  83.1320014
  49.6259992 108.5199978  83.5480014  51.3079992 108.7839978  82.1810014
  51.2189992 107.7719978  81.7320014  51.7449992 109.3989978  81.3660014
  52.3439992 108.5679978  83.2830014  52.8529992 109.5289978  83.5090014
  51.9549992 108.1929978  84.2540014  53.4359992 107.5329978  82.6390014
  52.9479992 106.5659978  82.3940014  53.8389992 107.8999978  81.6700014
  54.7189992 107.3999978  83.4360014  55.4069992 106.7339978  82.8720014
  55.1489992 108.4229978  83.4760014  54.5059992 106.7579978  84.7790014
  53.6799992 107.2829978  85.3060014  54.3309992 105.6619978  84.7300014
  55.6169992 107.0849978  85.7230014  56.4209992 106.4019978  85.3750014
  55.9229992 108.1379978  85.5450014  55.5419992 106.6739978  87.1570014
  54.9399992 105.7419978  87.2120014  56.5639992 106.4199978  87.5120014
  54.9549992 107.7509978  88.0630014  55.6869992 108.5399978  88.3410014
  54.1449992 108.3349978  87.5760014  54.4489992 107.0759978  89.4530014
  53.8119992 106.1949978  89.2230014  55.3319992 106.7869978  90.0620014
  53.6849992 108.0619978  90.2520014  54.2429992 109.0219978  90.2450014
  52.6849992 108.1389978  89.7750014  53.4079992 107.5709978  91.7050014
  53.8679992 106.5609978  91.7610014  54.0119992 108.1559978  92.4310014
  51.9099992 107.6939978  92.1840014  51.5909992 108.7019978  91.8420014
  51.2679992 106.9749978  91.6310014  51.6709992 107.5989978  93.6660014
  50.6079992 107.3989978  93.9210014  52.1869992 106.7279978  94.1240014
  52.2139992 108.7569978  94.5190014  53.3159992 108.6269978  94.4710014
  51.8329992 109.6389978  93.9610014  51.6749992 108.6539978  95.9310014
  51.4629992 107.6549978  96.5690014  51.7669992 109.9019978  96.4060014
  51.4169992 110.1619978  97.7770014  50.8099992 111.0909978  97.8270014
  50.8579992 109.3069978  98.2160014  52.6529992 110.3789978  98.6400014
  53.0649992 109.4249978  99.0320014  52.3469992 111.3389978  99.7980014
  51.7699992 112.2369978  99.4890014  51.7559992 110.7489978 100.5310014
  53.5359992 111.8609978 100.3290014  54.3369992 111.4719978 101.6060014
  54.3159992 109.8819978 101.4430014  55.3859992 109.0979978 102.0480014
  55.9709992 108.6709978 101.2050014  56.1429992 109.7189978 102.5720014
  54.9319992 107.9159978 103.0270014  55.7729992 107.3099978 103.3300014
  54.5669992 108.4999978 103.8590014  53.7989992 107.0169978 102.5780014
  54.1479992 106.5109978 101.1950014  55.2249992 106.4709978 101.2560014
  53.6019992 105.6369978 100.8690014  53.8449992 107.2159978 100.4340014
  53.7369992 105.8009978 103.5300014  54.6369992 105.2069978 103.4780014
  53.4769992 106.1699978 104.5120014  52.9189992 105.1659978 103.2260014
  52.4479992 107.7449978 102.5910014  52.0819992 107.7449978 103.6060014
  51.6769992 107.2329978 102.0350014  52.5739992 108.6969978 102.0980014
  55.7219992 111.9689978 101.3730014  53.5259992 111.9379978 102.7860014
  53.6359992 110.9459978  97.7620014  54.8779992 110.5429978  97.6780014
  55.3629992 109.6639978  98.4030014  55.6879992 111.4049978  96.6170014
  55.8839992 110.7239978  95.7600014  56.6649992 111.7009978  97.0560014
  54.8839992 112.6279978  96.1140014  54.7829992 113.3249978  96.9730014
  53.8609992 112.3949978  95.7480014  55.5469992 113.3329978  94.9430014
  55.8739992 112.5549978  94.2210014  56.3919992 113.9389978  95.3330014
  54.7859992 114.4429978  94.2900014  55.4379992 115.2589978  93.9120014
  54.1179992 114.8369978  95.0860014  53.8789992 113.9569978  93.1600014
  53.0179992 114.6439978  93.0130014  53.2469992 113.1069978  93.4960014
  54.6119992 113.5619978  91.9250014  55.3039992 112.7049978  92.0710014
  55.2449992 114.4009978  91.5660014  53.6259992 113.1789978  90.7370014
  54.3389992 112.9889978  89.9060014  53.0219992 114.0399978  90.3790014
  52.8939992 111.8949978  90.8610014  53.2729992 111.3429978  91.7340014
  51.9829992 111.4019978  90.0950014  51.6489992 110.3889978  90.3630014
  51.3549992 111.9619978  88.8380014  50.8789992 112.9509978  89.0100014
  50.4889992 111.2849978  88.6770014  52.1609992 112.0089978  87.5680014
  52.9969992 112.7219978  87.7370014  51.5509992 112.3289978  86.6970014
  52.8199992 110.6729978  87.1220014  52.0539992 109.9279978  86.8170014
  53.2739992 110.3029978  88.0650014  53.8409992 110.7149978  85.9740014
  53.3189992 111.0229978  85.0430014  54.0049992 109.6569978  85.6770014
  55.0909992 111.4569978  86.2840014  55.7249992 110.9279978  87.0270014
  54.9179992 112.4759978  86.6910014  56.0299992 111.6679978  85.0900014
  55.7289992 112.7069978  84.8390014  55.5939992 111.0619978  84.2670014
  57.5819992 111.6179978  85.1540014  57.9409992 112.3619978  85.8960014
  57.9209992 112.1899978  84.2640014  58.2649992 110.2709978  85.3140014
  57.9299992 109.4969978  84.5900014  57.9539992 109.6569978  86.1860014
  59.3759992 110.2649978  85.3270014 105.1919992  40.1519978  83.7210014
 104.3829992  40.6589978  84.2890014 105.3559992  39.1069978  84.0600014
 104.7709992  40.1009978  82.6940014 106.5019992  40.9709978  83.6710014
 107.2199992  40.4419978  83.0090014 106.3899992  42.0379978  83.3850014
 107.2129992  41.0519978  85.0580014 108.1419992  41.6359978  84.8890014
 106.6249992  41.6029978  85.8230014 107.6339992  39.6819978  85.6810014
 106.8499992  38.8949978  85.6840014 108.3729992  39.4049978  84.8990014
 108.2509992  39.7049978  87.1050014 108.8739992  38.8069978  87.3020014
 108.9249992  40.5739978  87.2640014 107.0689992  39.8549978  88.1310014
 106.5539992  40.8049978  87.8720014 106.3729992  38.9929978  88.0510014
 107.5719992  39.8459978  89.5810014 107.9689992  38.8349978  89.8160014
 108.3709992  40.6139978  89.6490014 106.5289992  40.0159978  90.7350014
 105.9119992  40.9339978  90.6290014 105.8549992  39.1339978  90.7870014
 107.2209992  40.1309978  92.1320014 108.0409992  39.3879978  92.2300014
 107.7749992  41.0919978  92.0610014 106.3639992  39.9339978  93.3390014
 105.8629992  38.9559978  93.1750014 106.9329992  39.9579978  94.2920014
 105.1949992  41.0669978  93.4980014 105.5269992  42.1249978  93.5680014
 104.5669992  41.1909978  92.5900014 104.1149992  40.8309978  94.5970014
 104.3529992  41.1969978  95.6190014 103.1969992  41.4039978  94.3450014
 103.6659992  39.3409978  94.8000014 103.4809992  38.9149978  93.7910014
 104.4969992  38.7679978  95.2630014 102.4509992  39.1379978  95.7070014
 102.7419992  39.3359978  96.7600014 101.6479992  39.8879978  95.5430014
 101.8369992  37.8059978  95.4800014 100.7839992  37.9039978  95.8200014
 101.6939992  37.3969978  94.4570014 102.5139992  36.6799978  96.2630014
 103.0019992  35.6829978  95.7560014 102.6139992  37.0109978  97.6000014
 103.6539992  36.3919978  98.3650014 103.3099992  36.3809978  99.4210014
 103.7309992  35.3239978  98.0710014 104.9869992  37.1329978  98.3960014
 105.6979992  36.6479978  99.0990014 104.7829992  38.5529978  98.8890014
 104.2129992  39.1099978  98.1150014 104.2889992  38.4499978  99.8790014
 106.1089992  39.0849978  99.0270014 106.2809992  40.1399978 100.2320014
 106.8589992  39.3429978 101.4750014 107.1439992  37.9169978 101.4700014
 106.4259992  37.4199978 100.7830014 108.1419992  37.7159978 101.0240014
 107.0999992  37.2509978 102.9190014 106.9869992  36.2039978 102.6820014
 108.0819992  37.3199978 103.3640014 106.0369992  37.6429978 103.9760014
 106.1639992  39.1029978 104.3150014 105.4879992  39.4019978 105.1020014
 107.1559992  39.4289978 104.5890014 105.9449992  39.6129978 103.3880014
 104.6279992  37.2569978 103.4460014 104.3779992  37.8539978 102.5820014
 104.6679992  36.2259978 103.1260014 104.0269992  37.5169978 104.3050014
 106.4099992  36.8979978 105.2310014 107.2269992  37.4289978 105.6980014
 106.7669992  35.9169978 104.9540014 105.4969992  36.7889978 105.7970014
 107.3169992  41.1499978  99.8350014 104.9369992  40.5269978 100.5800014
 105.5259992  37.2019978  97.0090014 106.8299992  37.0999978  96.8430014
 107.6699992  36.8889978  97.6800014 107.1909992  37.4199978  95.4300014
 107.5749992  38.4569978  95.5330014 106.2209992  37.4419978  94.8900014
 108.2529992  36.5479978  94.7120014 109.2749992  36.6479978  95.1380014
 108.4739992  36.9919978  93.7170014 107.8479992  35.0209978  94.5430014
 107.7869992  34.5899978  95.5650014 108.6679992  34.4939978  94.0090014
 106.5839992  34.7069978  93.7440014 105.6959992  35.0079978  94.3410014
 106.5169992  33.5979978  93.7320014 106.5969992  35.3469978  92.3970014
 107.6199992  35.3179978  91.9640014 106.4209992  36.4439978  92.4100014
 105.7499992  34.7469978  91.3030014 104.7819992  34.3699978  91.6990014
 106.3569992  33.9709978  90.7900014 105.3119992  35.7629978  90.2220014
 104.7689992  35.1669978  89.4580014 106.2139992  36.2049978  89.7470014
 104.3239992  36.8409978  90.6380014 104.5909992  37.2879978  91.6070014
 103.2729992  37.3979978  90.0360014 102.7759992  38.3199978  90.3720014
 102.7999992  37.0299978  88.6590014 102.0079992  37.7389978  88.3350014
 102.5309992  35.9519978  88.6600014 103.9109992  37.1789978  87.6370014
 104.7359992  36.5149978  87.9740014 104.2529992  38.2339978  87.5770014
 103.4829992  36.7819978  86.2100014 103.3669992  35.6769978  86.2140014
 104.3299992  36.8459978  85.4940014 102.1519992  37.2989978  85.6120014
 102.0459992  38.3489978  85.9590014 101.2619992  36.8079978  86.0600014
 102.0269992  37.0359978  84.1230014 102.0779992  35.9519978  83.8840014
 102.8179992  37.6139978  83.6000014 100.6579992  37.4059978  83.5390014
 100.4549992  38.4579978  83.8320014  99.8799992  36.7159978  83.9290014
 100.6249992  37.3599978  82.0590014 100.9299992  36.3779978  81.6390014
 101.2699992  38.1809978  81.6770014  99.2009992  37.6749978  81.5540014
  98.9659992  38.7219978  81.8420014  98.4949992  36.9169978  81.9550014
  99.3219992  37.6249978  80.4510014  69.1369992 114.3239978  84.8280014
  68.5399992 114.2979978  85.7650014  68.9029992 115.3049978  84.3630014
  70.1929992 114.2329978  85.1610014  68.7359992 113.2199978  83.8930014
  67.6279992 113.2279978  83.8100014  69.1249992 113.4989978  82.8910014
  69.1839992 111.8169978  84.2250014  68.7969992 111.0149978  83.5590014
  70.2939992 111.7989978  84.2210014  68.7399992 111.2399978  85.6710014
  68.8319992 111.9719978  86.5020014  67.6559992 111.2109978  85.4280014
  69.3999992 109.9349978  86.1750014  68.7269992 109.5529978  86.9720014
  69.5289992 109.1089978  85.4430014  70.8029992 110.2009978  86.6500014
  71.4419992 110.5149978  85.7970014  70.6679992 111.1759978  87.1650014
  71.5119992 109.1519978  87.4920014  71.5369992 108.2919978  86.7890014
  72.5489992 109.4649978  87.7390014  70.7149992 108.7979978  88.7300014
  69.9119992 108.1319978  88.3480014  71.4099992 108.1899978  89.3500014
  70.2299992 109.8769978  89.6670014  70.9189992 110.7289978  89.8540014
  69.2639992 110.3049978  89.3230014  70.0359992 109.4549978  91.1570014
  69.4509992 110.2539978  91.6600014  69.5269992 108.4809978  91.3240014
  71.3759992 109.3419978  91.8990014  71.8969992 108.4889978  91.4140014
  71.9479992 110.2779978  91.7210014  71.1649992 109.0789978  93.3390014
  70.5219992 109.9119978  93.6940014  70.5939992 108.1399978  93.5050014
  72.5399992 108.9999978  94.0120014  73.1009992 108.2019978  93.4820014
  73.2249992 109.8559978  93.8340014  72.6409992 108.7419978  95.5200014
  72.2739992 107.7299978  95.7980014  73.7079992 108.7649978  95.8280014
  71.8869992 109.8559978  96.2140014  72.2929992 110.7439978  95.6840014
  70.8599992 109.6519978  95.8430014  72.0579992 109.9099978  97.6600014
  72.3109992 108.9759978  98.3390014  71.7079992 111.1179978  98.0440014
  71.4649992 111.2949978  99.4520014  70.6469992 112.0409978  99.5550014
  71.0359992 110.3479978  99.8440014  72.7209992 111.7159978 100.2800014
  73.5539992 111.0089978 100.0790014  72.4999992 111.8969978 101.7690014
  72.1789992 110.9839978 102.3140014  73.4049992 112.2289978 102.3210014
  71.4449992 112.8359978 101.9200014  71.0259992 113.3879978 103.3810014
  69.9299992 114.4669978 103.0300014  68.5399992 114.2429978 103.1880014
  68.3879992 113.6959978 104.1430014  68.0929992 115.2479978 103.3470014
  67.7489992 113.4689978 101.9630014  68.2629992 112.5269978 101.8490014
  66.7289992 113.3159978 102.2850014  67.7209992 114.0719978 100.5820014
  66.9189992 115.3509978 100.5700014  65.8719992 115.1479978 100.7380014
  67.1289992 116.0209978 101.3910014  66.9659992 115.8339978  99.6050014
  69.1549992 114.3959978 100.1330014  69.6839992 113.4609978 100.0190014
  69.0989992 114.8219978  99.1430014  69.5759992 115.0269978 100.9020014
  67.1449992 113.0539978  99.6510014  67.1939992 113.4009978  98.6290014
  66.1299992 112.9219978  99.9930014  67.6819992 112.1379978  99.8460014
  70.5029992 112.2449978 104.2030014  72.1579992 114.1769978 103.8870014
  73.0999992 113.0499978  99.8180014  74.3689992 113.1979978  99.3710014
  75.1949992 112.3669978  99.2500014  74.6019992 114.6369978  99.0160014
  75.3619992 114.6689978  98.2070014  75.0139992 115.3269978  99.7830014
  73.2689992 115.3719978  98.7020014  72.6259992 115.4109978  99.6070014
  72.7439992 114.8239978  97.8910014  73.3459992 116.8249978  98.0760014
  73.8229992 117.4849978  98.8310014  72.2809992 117.1249978  97.9700014
  74.0769992 116.9709978  96.7110014  75.0909992 116.5299978  96.8270014
  74.1069992 118.0669978  96.5320014  73.3519992 116.2859978  95.5220014
  73.0519992 115.2479978  95.7830014  74.0959992 116.3299978  94.6990014
  72.1369992 117.0579978  94.8680014  72.5279992 118.0909978  94.7450014
  71.3099992 117.0359978  95.6110014  71.4919992 116.5169978  93.5840014
  72.1779992 116.7209978  92.7340014  70.6319992 117.2119978  93.4750014
  71.0199992 115.1339978  93.5750014  70.7329992 114.8579978  94.6000014
  70.8519992 114.1549978  92.6220014  70.5199992 113.1509978  92.9260014
  71.1739992 114.2319978  91.0850014  70.2889992 113.8419978  90.5380014
  71.9539992 113.4659978  90.8880014  71.7389992 115.4959978  90.2690014
  72.8379992 115.4159978  90.4120014  71.2569992 116.3669978  90.7610014
  71.4669992 115.3149978  88.7430014  70.3849992 115.1769978  88.5300014
  71.9929992 114.4499978  88.2870014  71.8189992 116.5949978  87.9390014
  72.9229992 116.7019978  88.0070014  71.3439992 117.3969978  88.5430014
  71.3489992 116.5599978  86.4570014  71.3889992 117.6389978  86.1960014
  70.2959992 116.2089978  86.4250014  72.2069992 115.7089978  85.4750014
  71.9759992 114.6519978  85.7260014  73.2989992 115.7739978  85.6680014
  72.0219992 116.1029978  83.9230014  70.9459992 115.9409978  83.6980014
  72.5989992 115.3619978  83.3290014  72.3569992 117.6099978  83.6310014
  71.5649992 118.2609978  84.0590014  72.1849992 117.6579978  82.5340014
  73.3999992 117.8909978  83.8920014 121.6009992  74.0529978  84.5990014
 120.7429992  73.5229978  84.1330014 122.4849992  73.4279978  84.8510014
 122.0479992  74.7589978  83.8670014 121.0609992  74.6569978  85.8990014
 120.0509992  75.0879978  85.7300014 120.9109992  73.9389978  86.7340014
 121.7769992  75.8919978  86.5090014 121.9119992  76.5579978  85.6300014
 121.2709992  76.4749978  87.3070014 123.1089992  75.4469978  87.2430014
 123.7009992  74.7709978  86.5900014 123.6969992  76.3649978  87.4560014
 122.9429992  74.9549978  88.6690014 122.2239992  75.4179978  89.3790014
 122.2849992  74.0609978  88.6180014 124.2099992  74.6849978  89.4780014
 124.8849992  74.1369978  88.7870014 124.7179992  75.6579978  89.6490014
 124.1059992  73.9079978  90.8010014 123.6779992  72.9289978  90.4950014
 125.1019992  73.6779978  91.2370014 123.2069992  74.4969978  91.8890014
 123.2629992  75.5759978  91.6300014 122.1559992  74.1929978  91.6960014
 123.6669992  73.9639978  93.2410014 122.9109992  74.1279978  94.0390014
 123.9669992  72.9029978  93.1030014 124.9859992  74.6279978  93.7580014
 125.3749992  74.0039978  94.5910014 125.8419992  74.7549978  93.0610014
 124.5939992  76.0749978  94.1970014 125.6329992  76.4539978  94.3010014
 124.1169992  76.7069978  93.4170014 123.8419992  76.3009978  95.5480014
 122.7669992  76.1689978  95.3000014 124.2179992  75.4899978  96.2080014
 123.7919992  77.6489978  96.1790014 124.8499992  77.9769978  96.2650014
 123.2929992  78.4159978  95.5490014 123.0529992  77.6339978  97.5170014
 121.9829992  77.4309978  97.2970014 123.4709992  76.8019978  98.1240014
 123.2889992  78.9959978  98.2410014 123.8999992  78.7169978  99.1260014
 123.8059992  79.6179978  97.4790014 121.9859992  79.6999978  98.6560014
 121.1479992  80.0569978  97.8270014 121.9959992  79.8199978  99.9630014
 120.8159992  80.4909978 100.4530014 120.9729992  81.0009978 101.4270014
 120.5189992  81.3109978  99.7660014 119.6319992  79.5739978 100.6830014
 119.0449992  80.0029978 101.5230014 120.0679992  78.1749978 101.1990014
 120.8559992  78.2909978 101.9740014 119.1709992  77.6579978 101.6030014
 120.5809992  77.4579978 100.0470014 120.5169992  75.9129978  99.8810014
 120.8519992  75.5339978 101.3470014 120.4819992  74.1899978 101.7970014
 119.3849992  74.0919978 101.9470014 120.8629992  73.4429978 101.0680014
 121.1499992  73.9239978 103.1310014 120.5329992  73.1559978 103.5740014
 122.1359992  73.5259978 102.9470014 121.3799992  75.0959978 104.1120014
 122.3619992  76.0989978 103.6510014 122.0279992  76.5999978 102.7550014
 122.3969992  76.8779978 104.3980014 123.2929992  75.5639978 103.5330014
 120.0889992  75.7349978 104.5780014 119.5819992  76.1559978 103.7220014
 119.4299992  75.0069978 105.0260014 120.3709992  76.4079978 105.3750014
 121.9759992  74.2669978 105.3150014 122.2929992  74.9039978 106.1270014
 122.8699992  73.7629978 104.9790014 121.2669992  73.5039978 105.6010014
 119.1529992  75.3879978  99.6510014 121.6059992  75.4079978  98.9970014
 118.9399992  79.3859978  99.4460014 117.8839992  78.5769978  99.3370014
 117.1609992  78.1419978 100.2210014 117.5159992  78.5699978  97.8380014
 118.4169992  78.7939978  97.2280014 116.7749992  79.3649978  97.6110014
 117.0089992  77.2009978  97.4050014 116.1199992  77.0159978  98.0450014
 117.7259992  76.3559978  97.4950014 116.5869992  77.1759978  95.8780014
 115.8699992  77.9969978  95.6580014 116.1189992  76.1849978  95.6990014
 117.8259992  77.3979978  95.0400014 118.7199992  76.9319978  95.5060014
 118.0239992  78.4879978  94.9600014 117.5999992  76.6969978  93.6840014
 116.9479992  77.2909978  93.0090014 117.0589992  75.7299978  93.7750014
 118.8349992  76.5159978  92.8070014 118.6499992  75.6559978  92.1290014
 119.6459992  76.0469978  93.4040014 119.3829992  77.8129978  92.2260014
 118.9249992  78.6589978  92.7810014 119.0689992  77.8239978  91.1600014
 120.8769992  77.9129978  92.1870014 121.4559992  77.0289978  91.8840014
 121.5409992  79.1209978  92.3970014 122.6319992  79.0149978  92.3040014
 121.1089992  80.5719978  92.7080014 121.8739992  81.1019978  93.3150014
 120.1559992  80.6729978  93.2700014 120.9459992  81.4269978  91.4380014
 121.8469992  81.2929978  90.8010014 120.8749992  82.4869978  91.7630014
 119.7139992  81.0409978  90.5900014 118.9179992  80.8589978  91.3430014
 119.9199992  80.1449978  89.9660014 119.3569992  82.1689978  89.6850014
 120.1589992  82.9339978  89.6080014 118.4999992  82.7929978  90.0170014
 119.0969992  81.7359978  88.1860014 120.0749992  81.3849978  87.7930014
 118.9469992  82.6139978  87.5220014 117.9719992  80.7469978  87.8750014
 116.9819992  81.2489978  87.9080014 118.0809992  80.1199978  88.7860014
 118.0429992  79.9359978  86.5690014 118.9109992  79.2439978  86.5190014
 118.2399992  80.6789978  85.7660014 116.7459992  79.2169978  86.3130014
 116.8189992  78.6649978  85.3510014 115.8819992  79.9149978  86.3340014
 116.5979992  78.3669978  87.0110014  40.1419992  57.1339978  80.8420014
  39.8879992  56.4799978  79.9800014  41.1949992  56.8869978  81.0960014
  40.2209992  58.2209978  80.6290014  39.0959992  56.7619978  81.9300014
  38.0839992  56.9249978  81.5020014  39.2549992  55.6639978  81.9920014
  39.1919992  57.5899978  83.2670014  40.2529992  57.5949978  83.5970014
  39.0339992  58.6739978  83.0810014  38.2819992  57.1889978  84.4740014
  38.0979992  57.9879978  85.2240014  37.3449992  57.2489978  83.8800014
  38.4379992  55.8079978  85.0670014  38.2259992  55.1149978  84.2250014
  39.4459992  55.5609978  85.4640014  37.3419992  55.4449978  86.0570014
  37.4679992  56.1399978  86.9140014  36.3499992  55.6999978  85.6250014
  37.4239992  54.0229978  86.5750014  37.1669992  53.3489978  85.7300014
  38.4959992  53.8079978  86.7720014  36.5229992  53.7419978  87.7800014
  35.5159992  54.1939978  87.6510014  36.4149992  52.6559978  87.9890014
  36.8759992  54.5409978  89.0780014  37.0129992  55.6169978  88.8380014
  36.0239992  54.3239978  89.7580014  38.1409992  53.9819978  89.7840014
  39.0279992  54.2079978  89.1530014  38.3229992  54.5769978  90.7040014
  37.9559992  52.5409978  90.1430014  36.9099992  52.4579978  90.5080014
  38.1399992  51.8779978  89.2710014  38.9759992  52.1139978  91.2440014
  38.8809992  51.0139978  91.3650014  39.9859992  52.3049978  90.8230014
  38.8239992  52.8989978  92.5620014  38.9909992  53.9929978  92.4610014
  37.8569992  52.6439978  93.0460014  39.8799992  52.4529978  93.5880014
  39.9119992  51.3429978  93.6230014  40.9199992  52.7009978  93.2860014
  39.4289992  52.8239978  94.9990014  39.4069992  53.9249978  95.1510014
  38.3989992  52.4339978  95.1460014  40.1859992  52.1549978  96.1750014
  40.2479992  50.9439978  96.2730014  40.7579992  52.9959978  97.0380014
  41.4619992  52.2079978  98.0290014  40.7699992  51.4769978  98.5000014
  42.3169992  51.6039978  97.6570014  42.1149992  53.0659978  99.2070014
  42.6549992  52.3099978  99.8170014  41.0129992  53.7159978 100.0420014
  40.2089992  53.0039978 100.3270014  41.4669992  54.0899978 100.9840014
  40.4399992  54.7329978  99.2640014  39.2709992  55.5799978  99.7690014
  39.2009992  55.6089978 101.3550014  39.6559992  56.7809978 102.0090014
  40.6059992  57.2129978 101.6310014  38.9919992  57.5939978 101.6430014
  39.7999992  56.8929978 103.5880014  40.3459992  57.7999978 103.8040014
  38.8449992  56.9179978 104.0910014  40.5369992  55.7759978 104.3220014
  41.9899992  55.8689978 103.9440014  42.4159992  55.0099978 104.4410014
  42.0559992  55.8359978 102.8660014  42.3319992  56.7879978 104.3960014
  40.3199992  55.8459978 105.8150014  39.2589992  55.7059978 105.9590014
  40.8579992  55.0819978 106.3560014  40.6459992  56.8549978 106.0210014
  39.9689992  54.4489978 103.8730014  40.0939992  54.4339978 102.8000014
  38.9119992  54.3919978 104.0880014  40.3629992  53.6239978 104.4480014
  39.4009992  56.9809978  99.3030014  38.1109992  54.8449978  99.2650014
  42.8879992  54.0899978  98.7140014  43.6799992  54.8409978  99.5850014
  43.8429992  54.6629978 100.7540014  44.3669992  55.9669978  98.8110014
  45.4309992  55.6519978  98.7570014  44.3039992  56.7899978  99.5550014
  43.6839992  56.2369978  97.4430014  44.0929992  57.2349978  97.1760014
  42.5989992  56.3899978  97.6250014  44.1749992  55.2629978  96.3070014
  43.3989992  54.4979978  96.0900014  45.0939992  54.6989978  96.5730014
  44.7159992  56.0339978  95.0740014  44.8289992  55.2519978  94.2930014
  45.7239992  56.4729978  95.2330014  43.7979992  57.1559978  94.5350014
  44.2129992  58.0889978  94.9730014  42.7659992  56.8859978  94.8500014
  43.7279992  57.3109978  92.9520014  44.7499992  57.6029978  92.6320014
  43.0599992  58.1889978  92.8220014  43.1889992  56.0679978  92.1500014
  42.2089992  56.0139978  92.6710014  43.8229992  55.1909978  92.4020014
  43.1159992  56.3759978  90.6890014  43.0589992  57.4699978  90.5900014
  43.0829992  55.5089978  89.6250014  42.7749992  55.9649978  88.6730014
  43.0689992  54.0479978  89.7390014  42.9279992  53.8709978  90.8270014
  44.0569992  53.6809978  89.3890014  42.0659992  53.3079978  88.8260014
  41.0649992  53.7089978  89.0920014  42.0559992  52.2199978  89.0520014
  42.1999992  53.4999978  87.2800014  43.2669992  53.3089978  87.0370014
  41.9029992  54.5489978  87.0660014  41.3499992  52.5809978  86.3750014
  40.2529992  52.7399978  86.4470014  41.5499992  51.5319978  86.6840014
  41.7669992  52.6629978  84.9260014  42.8509992  52.6669978  84.6820014
  41.4689992  53.6749978  84.5800014  41.1699992  51.6209978  83.9440014
  40.0649992  51.7179978  84.0010014  41.3999992  50.5689978  84.2210014
  41.7059992  51.8699978  82.5010014  41.6859992  50.9519978  81.8740014
  42.7879992  52.0509978  82.6770014  41.1009992  53.0889978  81.6260014
  40.0309992  52.8209978  81.4960014  41.3709992  53.0699978  80.5480014
  41.1819992  54.0819978  82.1170014  96.7919992 115.2349978  84.6190014
  96.3459992 114.2269978  84.7580014  97.0899992 115.6269978  85.6150014
  97.5229992 115.1619978  83.7860014  95.6079992 115.9949978  84.0380014
  95.9279992 117.0559978  83.9640014  95.4349992 115.6249978  83.0050014
  94.3399992 115.7759978  84.9320014  94.0409992 114.7279978  84.7130014
  94.5479992 115.8289978  86.0220014  93.2669992 116.8739978  84.7800014
  93.5329992 117.8039978  85.3260014  93.2949992 117.0969978  83.6920014
  91.8189992 116.4699978  85.1520014  91.2029992 117.3299978  84.8120014
  91.5259992 115.5459978  84.6090014  91.6969992 116.4159978  86.6890014
  92.4869992 115.8309978  87.2060014  91.8499992 117.4429978  87.0840014
  90.3259992 115.8439978  87.2680014  89.4949992 116.4519978  86.8510014
  90.0629992 114.8719978  86.7970014  90.2489992 115.7409978  88.7780014
  90.5689992 116.7809978  89.0010014  89.1799992 115.5459978  89.0090014
  91.2189992 114.8489978  89.4670014  91.5949992 114.0929978  88.7450014
  92.0549992 115.4229978  89.9210014  90.5249992 113.9779978  90.5400014
  89.9479992 114.7209978  91.1300014  89.8199992 113.3569978  89.9460014
  91.5229992 113.0809978  91.2960014  91.7849992 112.3609978  90.4920014
  92.3699992 113.7019978  91.6600014  91.0359992 112.2739978  92.4910014
  89.9359992 112.1549978  92.3890014  91.4489992 111.2429978  92.5000014
  91.3909992 112.9399978  93.7990014  92.4679992 113.1619978  93.6370014
  90.8819992 113.9269978  93.7940014  90.9559992 112.1419978  94.9970014
  89.8619992 111.9879978  95.1110014  91.3889992 111.1209978  94.9270014
  91.3129992 112.8229978  96.3450014  90.9099992 113.8569978  96.2820014
  90.7949992 112.2909978  97.1710014  92.8209992 112.8829978  96.5700014
  93.5889992 113.6639978  95.9900014  93.2299992 111.9249978  97.3830014
  94.5869992 112.0149978  97.8180014  94.8689992 111.0149978  98.2120014
  95.2379992 112.3419978  96.9790014  94.7469992 112.8039978  99.1310014
  95.7439992 112.6319978  99.5890014  93.7049992 112.4319978 100.2110014
  93.5599992 111.3309978 100.2450014  94.0739992 112.6529978 101.2360014
  92.3779992 112.9199978  99.9030014  91.7549992 114.1209978 100.8130014
  92.8799992 114.4769978 101.8400014  93.0969992 115.8449978 102.1730014
  93.4109992 116.3429978 101.2310014  92.1809992 116.4189978 102.4300014
  94.0399992 116.0439978 103.3580014  94.2029992 117.1079978 103.4480014
  93.5809992 115.7529978 104.2910014  95.4119992 115.4709978 103.1960014
  96.3129992 116.0639978 104.2360014  96.1939992 115.8499978 105.2870014
  97.3589992 115.8479978 104.0760014  96.3959992 117.1369978 104.1420014
  95.4529992 113.9929978 103.4620014  96.4159992 113.6979978 103.0720014
  95.2759992 113.7819978 104.5060014  94.6519992 113.5279978 102.9060014
  95.9529992 115.7809978 101.8920014  95.9879992 116.8599978 101.8670014
  95.4569992 115.3099978 101.0550014  97.0209992 115.6169978 101.8950014
  91.4619992 115.3359978 100.0010014  90.6759992 113.6349978 101.6330014
  94.5159992 114.1939978  98.9410014  95.5449992 114.9289978  98.4570014
  96.4749992 114.4369978  97.8600014  95.1209992 116.3879978  98.4390014
  95.5079992 116.8939978  99.3490014  94.0109992 116.3869978  98.3990014
  95.6539992 117.2099978  97.2480014  96.7579992 117.1049978  97.1860014
  95.4389992 118.2959978  97.3370014  95.2319992 116.7159978  95.9320014
  94.1449992 116.4999978  95.8500014  95.7359992 115.8069978  95.5380014
  95.5269992 117.8299978  94.8740014  96.6369992 117.8449978  94.8930014
  95.1059992 118.7989978  95.2180014  94.9619992 117.6269978  93.4580014
  95.6159992 118.2659978  92.8260014  93.9039992 117.9169978  93.2860014
  94.9799992 116.1609978  93.0000014  94.3099992 115.6199978  93.7030014
  96.0139992 115.7569978  93.0220014  94.5619992 116.1719978  91.5440014
  93.7279992 116.8889978  91.3900014  94.0809992 115.2159978  91.2460014
  95.6829992 116.4489978  90.4670014  96.1949992 117.4169978  90.5730014
  96.1769992 115.5099978  89.5960014  97.0659992 115.7999978  89.0180014
  95.8209992 114.0719978  89.4170014  94.9409992 113.8389978  90.0540014
  96.6199992 113.3599978  89.7130014  95.3739992 113.8039978  87.9980014
  96.1859992 114.0409978  87.2770014  94.5429992 114.5149978  87.8060014
  94.8359992 112.4069978  87.7670014  94.2139992 112.2709978  88.6770014
  95.6439992 111.6469978  87.8300014  93.9979992 112.3119978  86.4360014
  94.6419992 112.3289978  85.5310014  93.3039992 113.1779978  86.3870014
  93.0989992 111.1359978  86.4890014  92.2049992 111.2959978  87.1290014
  93.5689992 110.1869978  86.8250014  92.6159992 110.9379978  85.0670014
  91.8049992 110.1779978  85.0520014  93.5209992 110.6499978  84.4890014
  91.9639992 112.1319978  84.3820014  92.7729992 112.8249978  84.0680014
  91.3539992 112.6729978  85.1370014  91.1059992 111.8379978  83.1870014
  91.6699992 111.2889978  82.4020014  90.7199992 112.7569978  82.6970014
  90.1809992 111.3019978  83.4890014  37.9649992  93.7599978  84.7520014
  38.7509992  93.4839978  84.0170014  38.2019992  94.6529978  85.3690014
  37.1019992  94.0019978  84.0960014  37.6319992  92.5009978  85.6330014
  36.7629992  91.9979978  85.1570014  38.5099992  91.8589978  85.8570014
  37.0969992  92.8789978  86.9810014  37.7349992  93.6319978  87.4920014
  36.1499992  93.4499978  86.8770014  36.9169992  91.7629978  87.9550014
  37.9729992  91.4479978  88.0990014  36.5709992  92.0299978  88.9770014
  36.0189992  90.6339978  87.4740014  36.4569992  90.0569978  86.6310014
  35.7939992  90.0579978  88.3970014  34.6309992  91.1099978  86.8660014
  34.8599992  91.7009978  85.9530014  34.1799992  90.1879978  86.4400014
  33.7289992  91.7419978  87.9230014  34.0589992  91.5619978  88.9690014
  33.6439992  92.8229978  87.6790014  32.2899992  91.2039978  87.9110014
  31.9059992  91.1039978  86.8730014  32.1679992  90.2079978  88.3870014
  31.3239992  92.1879978  88.6460014  31.3529992  93.1779978  88.1440014
  30.3269992  91.7139978  88.5190014  31.5109992  92.4179978  90.1410014
  31.4569992  91.3819978  90.5410014  32.4389992  92.9959978  90.3400014
  30.4479992  93.4049978  90.6990014  30.5819992  94.4349978  90.3040014
  29.4549992  93.0149978  90.3900014  30.2269992  93.4329978  92.2290014
  29.3229992  93.9989978  92.5420014  29.9299992  92.3899978  92.4720014
  31.4589992  93.7599978  93.0080014  32.3609992  93.2059978  92.6700014
  31.6559992  94.8099978  92.7040014  31.2549992  93.6559978  94.5340014
  31.7009992  94.4999978  95.1030014  30.1559992  93.7449978  94.6700014
  31.8039992  92.2709978  95.0070014  31.2519992  92.0039978  95.9340014
  31.6149992  91.5079978  94.2210014  33.3119992  92.2439978  95.4060014
  34.1439992  92.9599978  94.8750014  33.5389992  91.2039978  96.1040014
  34.8939992  90.7529978  96.2040014  34.7509992  89.7129978  96.5680014
  35.5069992  90.7739978  95.2780014  35.7279992  91.3819978  97.3510014
  36.7499992  90.9479978  97.3700014  34.9389992  91.0679978  98.6850014
  34.2059992  90.2359978  98.6150014  35.6929992  90.8619978  99.4750014
  34.0449992  92.1829978  99.0240014  34.5449992  93.0469978 100.3010014
  34.4489992  91.8489978 101.3220014  33.1999992  91.3069978 101.9160014
  32.3809992  92.0569978 101.9340014  32.8949992  90.4919978 101.2240014
  33.3059992  90.8409978 103.4170014  33.4539992  91.7989978 103.8920014
  32.3889992  90.2849978 103.5470014  34.4159992  89.9189978 103.8550014
  34.4049992  88.7409978 102.8650014  35.1249992  87.9619978 103.0720014
  33.4189992  88.3089978 102.9430014  34.5799992  89.1009978 101.8620014
  35.7319992  90.5929978 103.7700014  35.8419992  91.2719978 104.6030014
  36.4849992  89.8469978 103.9740014  35.9489992  91.1649978 102.8800014
  34.2159992  89.3699978 105.2150014  33.3639992  88.7159978 105.3260014
  34.0649992  90.1779978 105.9150014  35.0009992  88.7339978 105.5970014
  35.9119992  93.4789978 100.1940014  33.5459992  94.0259978 100.6270014
  35.8339992  92.7969978  97.1900014  36.6889992  93.2199978  96.3680014
  37.4349992  92.5569978  95.6230014  36.6789992  94.7339978  96.3690014
  37.3679992  95.0349978  97.1870014  35.6669992  95.1509978  96.5580014
  37.3529992  95.2809978  95.0700014  38.2999992  94.7249978  94.8990014
  37.7369992  96.3209978  95.1540014  36.3769992  95.0689978  93.9430014
  35.3209992  95.1609978  94.2760014  36.4169992  94.0589978  93.4820014
  36.5139992  96.2189978  92.9140014  37.5419992  96.1469978  92.4990014
  36.4229992  97.1609978  93.4950014  35.4919992  96.1239978  91.7940014
  35.4359992  97.0859978  91.2420014  34.5009992  95.8419978  92.2110014
  35.7879992  95.0239978  90.7080014  35.5609992  93.9999978  91.0720014
  36.8899992  95.1139978  90.5980014  35.1069992  95.2739978  89.4430014
  35.2559992  94.4309978  88.7350014  35.6129992  96.1219978  88.9350014
  33.6359992  95.5399978  89.6710014  33.1839992  95.2599978  90.6340014
  32.8809992  96.0549978  88.7400014  31.8389992  96.3479978  88.9370014
  33.3019992  96.5119978  87.3480014  34.3399992  96.9079978  87.3530014
  32.6899992  97.3669978  86.9910014  33.4339992  95.5969978  86.1160014
  34.1439992  94.8829978  86.5860014  33.9129992  96.1489978  85.2780014
  32.1269992  94.9029978  85.5820014  31.7689992  95.5569978  84.7580014
  31.3379992  94.6469978  86.3200014  32.5169992  93.4899978  84.9250014
  31.6369992  92.9559978  84.5070014  32.9029992  92.7819978  85.6890014
  33.4989992  93.4689978  83.7370014  34.4739992  93.6119978  84.2520014
  33.3129992  94.3349978  83.0670014  33.6039992  92.1979978  82.9400014
  32.7749992  92.2139978  82.2000014  33.4879992  91.4649978  83.7670014
  34.9459992  91.9639978  82.2250014  35.7619992  91.9979978  82.9770014
  35.1389992  92.6219978  81.3510014  34.9989992  90.5479978  81.6160014
  35.7329992  90.4509978  80.7880014  34.0499992  90.3469978  81.0730014
  35.2959992  89.8249978  82.4060014 101.5929992 109.8339978  81.7040014
 102.4099992 109.0959978  81.5610014 101.7499992 110.7219978  81.0550014
 100.6619992 109.3589978  81.3280014 101.5569992 110.2669978  83.1220014
 100.6869992 110.9459978  83.2530014 101.4199992 109.3729978  83.7680014
 102.7809992 111.1359978  83.6510014 103.7169992 110.5389978  83.6790014
 102.8969992 111.9459978  82.9000014 102.5699992 111.8319978  85.0350014
 101.8579992 112.6709978  84.8820014 102.3839992 111.1229978  85.8690014
 103.8329992 112.6579978  85.5070014 104.6379992 111.9049978  85.6460014
 103.9999992 113.2699978  84.5940014 103.4349992 113.4809978  86.7340014
 102.4499992 113.9709978  86.5810014 103.2189992 112.6949978  87.4880014
 104.5559992 114.3789978  87.2100014 105.5229992 113.8359978  87.2730014
 104.6479992 115.1369978  86.4030014 104.4039992 115.0569978  88.5730014
 104.2109992 114.2189978  89.2770014 105.3239992 115.6589978  88.7340014
 103.2509992 116.0909978  88.6580014 103.2539992 116.6279978  87.6850014
 102.2439992 115.6259978  88.7240014 103.3789992 117.1279978  89.7870014
 104.2699992 117.7629978  89.5910014 102.5169992 117.8139978  89.6420014
 103.2179992 116.4629978  91.1650014 102.4199992 115.6899978  91.1310014
 104.2029992 116.1149978  91.5430014 102.8339992 117.4809978  92.2470014
 103.8689992 117.8009978  92.4970014 102.3769992 118.3999978  91.8230014
 102.0499992 116.8939978  93.5020014 100.9599992 116.9219978  93.2870014
 102.2759992 115.8069978  93.4620014 102.3639992 117.4149978  94.9000014
 103.4609992 117.5939978  94.8890014 101.7569992 118.3209978  95.1150014
 101.9319992 116.4089978  96.1270014 102.1219992 115.3549978  95.8320014
 102.6459992 116.7569978  96.9040014 100.4959992 116.5919978  96.6370014
  99.7859992 117.5439978  96.3320014 100.1769992 115.5969978  97.4960014
  98.9419992 115.7669978  98.1960014  98.8439992 116.7989978  98.5950014
  98.1179992 115.6319978  97.4630014  98.9069992 114.7789978  99.4330014
  98.0329992 115.0679978 100.0550014 100.1749992 114.6919978 100.3440014
 100.5059992 115.7179978 100.6090014  99.8799992 114.1709978 101.2800014
 101.1939992 114.0029978  99.6900014 102.6769992 113.7509978 100.1770014
 102.4149992 113.8569978 101.7740014 103.3329992 113.0069978 102.5240014
 104.3359992 113.0989978 102.0560014 103.4279992 113.4239978 103.5500014
 102.8549992 111.5609978 102.7990014 102.7179992 111.0699978 101.8470014
 103.7469992 111.1309978 103.2310014 101.6249992 111.2919978 103.7540014
 100.3849992 111.9759978 103.2550014 100.1559992 111.5199978 102.3030014
  99.6589992 111.7409978 104.0190014 100.5109992 113.0469978 103.1950014
 101.3989992 109.8259978 103.8740014 100.5769992 109.5509978 104.5180014
 101.3159992 109.3439978 102.9110014 102.2319992 109.3099978 104.3290014
 102.0209992 111.8259978 105.1410014 101.4869992 111.5129978 106.0260014
 102.1259992 112.8979978 105.2200014 102.9869992 111.4229978 105.4060014
 103.1359992 112.3769978  99.8580014 103.4559992 114.9389978  99.6600014
  98.6789992 113.4479978  98.8620014  98.2729992 112.5289978  99.7320014
  97.9249992 112.7159978 100.8620014  98.4979992 111.1549978  99.1300014
  97.9769992 111.3219978  98.1630014  97.9479992 110.3589978  99.6770014
 100.0739992 111.0009978  98.9850014 100.5739992 110.8839978  99.9700014
 100.5309992 111.9269978  98.5750014 100.3899992 109.8489978  98.0290014
  99.8479992 110.1339978  97.1010014 100.0149992 108.8559978  98.3570014
 101.8199992 109.9349978  97.4720014 102.5699992 110.1209978  98.2700014
 101.8629992 110.7779978  96.7490014 102.3599992 108.6799978  96.7740014
 102.4249992 107.9379978  97.5980014 103.2919992 108.9579978  96.2380014
 101.4549992 108.0559978  95.6360014 100.5309992 107.8519978  96.2170014
 101.7719992 107.1039978  95.1580014 101.1139992 109.0509978  94.4520014
 100.5109992 109.8989978  94.8420014 100.5469992 108.3689978  93.7830014
 102.3909992 109.6109978  93.7380014 103.2749992 108.9709978  93.5990014
 102.3589992 110.6939978  92.9820014 103.2899992 110.9569978  92.4580014
 101.2069992 111.6639978  92.5450014 101.4099992 112.6669978  92.9780014
 100.2039992 111.3829978  92.9310014 100.9709992 111.9999978  91.0510014
 100.5429992 111.0699978  90.6200014 101.9589992 112.2839978  90.6300014
 100.1349992 113.2629978  90.8060014 100.5089992 114.1799978  91.3100014
  99.0779992 113.0419978  91.0680014  99.9339992 113.4729978  89.2290014
  99.3489992 112.6419978  88.7810014 100.9159992 113.5169978  88.7100014
  99.1029992 114.6809978  88.8950014  99.7049992 115.4789978  89.3800014
  98.1259992 114.6269978  89.4210014  98.9019992 114.9769978  87.4520014
  99.8459992 114.9979978  86.8680014  98.4819992 116.0029978  87.3890014
  97.9239992 114.0349978  86.7480014  97.2929992 113.4969978  87.4870014
  98.4579992 113.2329978  86.1960014  96.9229992 114.7009978  85.7690014
  96.2739992 115.4329978  86.2940014  96.2889992 113.8629978  85.4070014
  97.5019992 115.1609978  84.9390014  78.5379992  23.4159978  82.4430014
  79.4939992  23.6519978  82.9580014  77.7739992  24.1849978  82.6890014
  78.7859992  23.5289978  81.3670014  77.9379992  22.0149978  82.7390014
  76.9419992  22.0829978  82.2520014  78.4779992  21.2059978  82.2020014
  77.8039992  21.5919978  84.2300014  77.1139992  20.7319978  84.3590014
  78.7709992  21.4049978  84.7440014  77.0229992  22.6819978  85.0940014
  77.5779992  23.6439978  85.0980014  76.0369992  22.8199978  84.6010014
  76.7019992  22.1369978  86.5160014  76.3559992  23.0059978  87.1170014
  75.8059992  21.4849978  86.5970014  77.8599992  21.4759978  87.2150014
  78.2849992  20.5439978  86.7860014  78.7029992  22.1959978  87.2840014
  77.5489992  21.2029978  88.7780014  77.5469992  22.1819978  89.3050014
  76.4869992  20.8779978  88.7640014  78.5249992  20.2059978  89.3970014
  78.0809992  19.9799978  90.3900014  78.8229992  19.2819978  88.8560014
  79.9759992  20.7939978  89.7570014  80.4689992  19.9329978  90.2580014
  80.5339992  21.0379978  88.8270014  79.9609992  22.0689978  90.5390014
  79.2509992  22.8009978  90.0980014  79.5799992  21.9699978  91.5780014
  81.3619992  22.7579978  90.5590014  81.7319992  22.5759978  89.5270014
  81.2739992  23.8399978  90.7960014  82.3719992  22.0709978  91.5320014
  82.4899992  21.0349978  91.1480014  83.3539992  22.5479978  91.3280014
  82.1869992  22.2449978  93.0180014  81.3379992  21.5809978  93.2880014
  83.0569992  21.8629978  93.5930014  81.9009992  23.7519978  93.4720014
  82.9129992  24.2109978  93.4460014  81.2269992  24.3389978  92.8120014
  81.4249992  24.0379978  94.8880014  82.2509992  23.8329978  95.6020014
  81.2209992  25.1289978  94.8350014  80.1509992  23.1879978  95.1750014
  79.0519992  23.5589978  94.7590014  80.3919992  22.1689978  95.8100014
  79.3309992  21.1999978  95.9830014  78.3939992  21.6469978  96.3810014
  79.0809992  20.6589978  95.0450014  79.7969992  20.0579978  96.9860014
  78.9089992  19.3899978  97.0060014  80.1949992  20.7469978  98.3470014
  81.0819992  21.3639978  98.0860014  79.3949992  21.4289978  98.7060014
  80.6679992  19.7119978  99.3060014  79.4099992  19.2389978 100.2660014
  79.3959992  20.3959978 101.2490014  80.0969992  20.3439978 102.4990014
  80.0529992  19.3119978 102.9070014  81.1419992  20.6259978 102.2470014
  79.6679992  21.3529978 103.5870014  80.0169992  20.9579978 104.5300014
  80.1419992  22.3039978 103.3910014  78.1449992  21.4749978 103.7470014
  77.6139992  22.2059978 104.9310014  78.2899992  22.0269978 105.7530014
  77.7689992  23.2709978 104.8360014  76.5459992  22.1199978 105.0700014
  77.5229992  22.1739978 102.6300014  76.4569992  22.1939978 102.8010014
  77.8879992  23.1859978 102.5340014  77.6199992  21.6629978 101.6830014
  77.6269992  20.0329978 103.8420014  76.5599992  19.9339978 103.7130014
  78.1229992  19.6189978 104.7080014  78.1279992  19.5929978 102.9930014
  78.0779992  19.3639978  99.5460014  79.6879992  17.9319978 100.9020014
  81.0199992  19.4349978  96.5630014  81.0299992  18.7569978  95.4180014
  80.0489992  18.3399978  94.8570014  82.5489992  18.8549978  94.8320014
  83.1529992  18.1549978  95.4480014  83.0129992  19.8399978  95.0530014
  82.5329992  18.6259978  93.3340014  82.0069992  19.4729978  92.8450014
  81.9989992  17.6899978  93.0650014  83.9039992  18.2979978  92.7810014
  84.3539992  17.4339978  93.3160014  84.5889992  19.1529978  92.9640014
  83.8689992  17.9489978  91.2840014  84.9549992  18.0229978  91.0610014
  83.4089992  18.7189978  90.6280014  83.4119992  16.5869978  90.9250014
  82.3929992  16.3839978  91.3190014  84.0449992  15.7919978  91.3740014
  83.4559992  16.0699978  89.4390014  83.0939992  15.0269978  89.3190014
  84.4729992  16.1299978  88.9970014  82.5449992  16.7989978  88.3760014
  82.6129992  16.3129978  87.3790014  82.8549992  17.8609978  88.2730014
  81.0729992  16.7949978  88.6010014  80.6819992  17.6299978  89.2020014
  80.1589992  15.8459978  88.2400014  79.1099992  15.9309978  88.5610014
  80.5689992  14.5809978  87.5510014  80.3909992  13.7129978  88.2210014
  81.5849992  14.6069978  87.1040014  79.6909992  14.2499978  86.3180014
  78.6199992  14.0099978  86.4920014  80.1069992  13.3629978  85.7950014
  79.8189992  15.2009978  85.1510014  79.3449992  16.1599978  85.4520014
  79.1359992  14.9009978  84.3270014  81.2069992  15.4189978  84.5380014
  81.5389992  14.4189978  84.1860014  81.8629992  15.7309978  85.3780014
  81.3539992  16.5209978  83.4590014  80.6669992  16.2689978  82.6240014
  82.3389992  16.5049978  82.9450014  81.1119992  17.9189978  84.0300014
  80.2149992  18.0929978  84.6630014  81.0419992  18.6219978  83.1720014
  82.3399992  18.6289978  84.6340014  83.1209992  18.8669978  83.8800014
  82.6779992  17.8279978  85.3260014  82.0639992  19.8289978  85.5150014
  81.7529992  20.7209978  84.9300014  82.9949992  20.2299978  85.9690014
  81.3309992  19.6589978  86.3320014 115.5989992 100.7079978  80.3180014
 116.1059992 100.1449978  81.1310014 116.0019992 101.7349978  80.4550014
 115.8519992 100.1469978  79.3930014 114.0779992 100.4109978  80.5840014
 113.4579992 100.6919978  79.7050014 113.9669992  99.3089978  80.6760014
 113.3389992 101.1549978  81.7600014 113.9169992 100.7809978  82.6310014
 113.4159992 102.2609978  81.8350014 111.9499992 100.5979978  81.9250014
 111.4269992 100.9419978  81.0070014 112.1089992  99.5049978  82.0390014
 111.1639992 101.1309978  83.1370014 111.1629992 102.2309978  82.9830014
 110.2089992 100.5949978  82.9490014 111.8109992 100.9199978  84.5000014
 112.0399992  99.8329978  84.5210014 112.7349992 101.5119978  84.6740014
 110.7059992 101.1529978  85.5930014 110.7589992 102.2459978  85.7830014
 109.7399992 100.9739978  85.0750014 110.9249992 100.3449978  86.9590014
 111.8919992 100.7169978  87.3590014 110.1929992 100.7099978  87.7100014
 110.9509992  98.8329978  86.8290014 109.9379992  98.6509978  86.4110014
 111.6829992  98.4289978  86.0970014 110.9699992  98.0979978  88.1940014
 110.4589992  98.7589978  88.9270014 110.3699992  97.1919978  87.9620014
 112.4349992  98.0029978  88.7560014 112.9249992  97.1469978  88.2440014
 112.9809992  98.8819978  88.3500014 112.6019992  98.0489978  90.3520014
 111.8079992  97.3659978  90.7240014 113.6409992  97.7479978  90.6060014
 112.2629992  99.4659978  90.9400014 112.7819992 100.2439978  90.3390014
 111.1619992  99.6129978  90.9350014 112.7629992  99.5789978  92.3660014
 112.1299992 100.3159978  92.9050014 112.5509992  98.6039978  92.8530014
 114.1999992  99.9539978  92.5630014 114.8059992  99.1989978  92.0180014
 114.3909992 100.9529978  92.1150014 114.7069992  99.9949978  94.0000014
 115.5519992  99.2769978  94.5100014 114.0189992 100.9479978  94.6370014
 114.1619992 100.8999978  96.0370014 113.5429992 100.1029978  96.5020014
 115.1949992 100.5799978  96.2910014 113.9219992 102.2489978  96.6960014
 114.4569992 103.1409978  96.3070014 114.4369992 102.2529978  98.1840014
 115.5459992 102.1869978  98.2070014 114.2249992 103.1979978  98.7270014
 113.9169992 101.0699978  98.8880014 113.0699992 101.2539978 100.1990014
 113.7799992 102.4499978 100.9140014 114.9929992 102.2559978 101.6340014
 115.5899992 101.4919978 101.0920014 115.5469992 103.2119978 101.5130014
 114.8159992 101.9819978 103.1740014 114.4269992 100.9749978 103.1980014
 115.7979992 101.9349978 103.6220014 113.8989992 102.9079978 104.0120014
 112.5419992 102.8019978 103.5790014 111.9779992 103.6079978 104.0260014
 112.5999992 102.9339978 102.5090014 111.9859992 101.9159978 103.8460014
 114.0769992 102.5639978 105.4640014 114.2689992 101.5009978 105.4700014
 114.9089992 103.1729978 105.7870014 113.1429992 102.9469978 105.8480014
 114.3599992 104.3169978 103.7910014 113.9259992 104.9899978 104.5160014
 114.2669992 104.5989978 102.7530014 115.4049992 104.1929978 104.0350014
 111.7099992 101.7209978  99.7710014 113.1379992 100.0029978 101.0800014
 112.4569992 102.5689978  96.5860014 112.0399992 103.7989978  96.7600014
 112.6359992 104.7929978  97.0580014 110.4609992 103.7549978  96.6120014
 109.9799992 104.7369978  96.4160014 109.9479992 103.6049978  97.5860014
 110.0679992 102.8189978  95.4710014 109.0559992 102.4859978  95.7860014
 110.6599992 101.8909978  95.3230014 109.7829992 103.4999978  94.0910014
 108.9699992 104.2239978  94.3100014 109.3919992 102.7009978  93.4260014
 110.7599992 104.4069978  93.4000014 111.1299992 105.0209978  94.2490014
 110.3009992 105.1609978  92.7260014 112.0029992 103.9519978  92.4970014
 111.5359992 103.4169978  91.6420014 112.5149992 103.1819978  93.1140014
 112.9549992 105.0949978  92.1250014 113.5589992 105.5819978  92.9200014
 112.3289992 105.9119978  91.7080014 113.9809992 104.7279978  90.9890014
 114.8669992 104.2269978  91.4340014 114.4469992 105.6839978  90.6660014
 113.6719992 103.8419978  89.8260014 113.7619992 102.7739978  90.0760014
 113.4649992 104.2259978  88.5380014 113.3969992 103.4589978  87.7520014
 113.5519992 105.6669978  88.0550014 113.5099992 106.4039978  88.8850014
 112.6049992 105.9519978  87.5470014 114.6859992 106.2199978  87.0310014
 115.6189992 106.3459978  87.6210014 114.3189992 107.2339978  86.7610014
 114.8779992 105.4199978  85.7380014 113.9279992 105.6359978  85.2050014
 114.8799992 104.3889978  86.1540014 116.2309992 105.6669978  85.0910014
 116.7649992 104.7079978  85.2660014 116.7899992 106.5719978  85.4100014
 116.0029992 105.9609978  83.6240014 116.9999992 105.7829978  83.1670014
 115.7909992 107.0349978  83.4310014 115.0149992 105.0369978  82.8830014
 113.9509992 105.0759978  83.2020014 115.3719992 103.9849978  82.9100014
 114.9549992 105.2189978  81.3890014 114.3579992 106.1139978  81.1100014
 114.3269992 104.3839978  81.0110014 116.3719992 105.3099978  80.7170014
 116.3889992 105.1839978  79.6130014 117.1309992 104.6609978  81.2030014
 116.6589992 106.3449978  81.0000014  83.0079992 114.0789978  82.1910014
  82.1569992 114.0379978  82.9040014  83.7509992 113.2649978  82.3320014
  82.6409992 113.9459978  81.1500014  83.8319992 115.4019978  82.2070014
  84.4379992 115.6129978  81.3000014  83.1309992 116.2049978  82.5220014
  84.8949992 115.4269978  83.3650014  85.6229992 114.6619978  83.0190014
  85.4679992 116.3769978  83.4360014  84.4339992 114.9809978  84.7590014
  84.0889992 113.9249978  84.7170014  85.2599992 115.1109978  85.4890014
  83.3969992 115.9249978  85.3610014  83.8539992 116.9319978  85.2470014
  82.5779992 115.9479978  84.6110014  82.9379992 115.5119978  86.7810014
  82.1619992 114.7199978  86.7260014  83.7969992 115.1169978  87.3650014
  82.4059992 116.5689978  87.7520014  82.2779992 115.9889978  88.6910014
  83.1029992 117.4099978  87.9560014  81.0609992 117.1959978  87.4940014
  81.2009992 117.8089978  86.5780014  80.2279992 116.4789978  87.3300014
  80.6769992 118.0719978  88.7100014  81.5339992 118.7029978  89.0270014
  79.9499992 118.8819978  88.4860014  80.1849992 117.3169978  89.9860014
  79.2609992 116.7089978  89.8860014  80.9569992 116.5969978  90.3330014
  79.9079992 118.3439978  91.1040014  79.5789992 119.3269978  90.7050014
  79.1459992 118.0289978  91.8480014  81.1609992 118.5739978  91.9770014
  81.3029992 117.6749978  92.6150014  82.1119992 118.7119978  91.4190014
  80.9719992 119.6909978  93.0520014  81.2779992 120.6609978  92.6030014
  79.9139992 119.9129978  93.3100014  81.9319992 119.6299978  94.2910014
  81.7729992 118.6029978  94.6840014  83.0049992 119.6499978  94.0060014
  81.5889992 120.7219978  95.2900014  81.6229992 121.6819978  94.7320014
  80.6049992 120.4939978  95.7530014  82.5569992 120.8409978  96.4340014
  82.1069992 121.1789978  97.5130014  83.8449992 120.6989978  96.0940014
  84.7119992 120.9169978  97.2060014  85.7689992 120.9539978  96.8660014
  84.4479992 121.8479978  97.7510014  84.7559992 119.6759978  98.0730014
  83.7609992 119.6419978  98.5660014  85.7679992 119.7759978  99.1980014
  86.7209992 120.0399978  98.6920014  85.5719992 120.6229978  99.8900014
  86.0089992 118.5099978  99.8280014  85.8529992 118.3039978 101.3790014
  84.2729992 118.0949978 101.4130014  83.6919992 116.9499978 100.8160014
  82.6989992 117.2329978 100.4070014  84.2309992 116.6749978  99.8840014
  83.4539992 115.7209978 101.6030014  82.6029992 115.2359978 101.1480014
  84.2629992 115.0099978 101.5160014  83.0809992 115.8499978 103.1230014
  82.4559992 114.5599978 103.5910014  81.8379992 114.6589978 104.4710014
  81.8639992 114.1889978 102.7670014  83.2369992 113.8159978 103.6350014
  84.3139992 116.3219978 103.8800014  84.9249992 115.4659978 104.1250014
  84.9039992 116.9649978 103.2440014  84.0749992 116.7489978 104.8420014
  82.0219992 116.9629978 103.1640014  81.0399992 116.5709978 102.9460014
  82.3229992 117.7579978 102.4970014  81.9879992 117.3119978 104.1850014
  86.4609992 117.0109978 101.7440014  86.3119992 119.5559978 101.9650014
  85.1429992 118.5819978  97.2660014  84.1439992 117.6439978  97.0460014
  82.9489992 117.8429978  97.2010014  84.8319992 116.3139978  96.6520014
  85.0059992 115.8109978  97.6270014  85.7549992 116.5289978  96.0730014
  83.9069992 115.4929978  95.7400014  82.9219992 115.4659978  96.2540014
  84.3949992 114.5099978  95.5690014  83.7889992 116.0429978  94.3030014
  83.1659992 116.9439978  94.4890014  83.1239992 115.3229978  93.7810014
  85.0329992 116.2329978  93.4350014  85.6689992 115.3219978  93.4480014
  85.6079992 117.1349978  93.7360014  84.4699992 116.3079978  91.9700014
  83.5759992 116.9689978  91.9570014  84.2879992 115.2929978  91.5570014
  85.4009992 116.9089978  90.8580014  84.7719992 116.8819978  89.9430014
  86.3639992 116.3759978  90.7050014  85.9049992 118.3689978  90.9930014
  86.4379992 118.4949978  90.0260014  86.6049992 118.4959978  91.8460014
  84.8679992 119.3959978  91.3340014  84.5859992 119.3349978  92.3950014
  84.3289992 120.2809978  90.5490014  83.6249992 120.9819978  91.0200014
  84.5779992 120.4099978  89.0660014  83.6259992 120.5989978  88.5260014
  85.0229992 119.4739978  88.6650014  85.5439992 121.6189978  88.8440014
  86.5039992 121.3159978  89.3140014  85.1529992 122.6069978  89.1690014
  85.7879992 121.9079978  87.3790014  86.0619992 122.9779978  87.2580014
  84.8829992 121.8399978  86.7390014  86.7799992 121.0599978  86.6310014
  86.6929992 119.9829978  86.8900014  87.7969992 121.4839978  86.7740014
  86.5559992 121.0069978  85.1230014  86.6029992 122.0119978  84.6530014
  85.5659992 120.5089978  85.0470014  87.6899992 120.1059978  84.4620014
  88.6949992 120.5019978  84.7210014  87.4719992 120.2319978  83.3800014
  87.6859992 118.6189978  84.8750014  86.6199992 118.3549978  85.0470014
  88.2129992 118.6599978  85.8520014  88.5019992 117.6259978  83.9760014
  88.4979992 116.5429978  84.2220014  89.5589992 117.9559978  84.0700014
  88.2359992 117.8139978  82.9140014 109.6649992  46.5399978  80.5810014
 109.3999992  47.3189978  79.8340014 108.7099992  46.4669978  81.1440014
 109.8799992  45.6139978  80.0060014 110.8439992  46.9449978  81.4850014
 111.7409992  47.3829978  80.9980014 110.5179992  47.7889978  82.1290014
 111.2599992  45.8099978  82.3560014 111.7429992  45.0689978  81.6830014
 111.9239992  46.1559978  83.1770014 110.1539992  45.0949978  83.1050014
 109.6079992  45.7929978  83.7750014 109.4099992  44.5529978  82.4830014
 110.6659992  43.9729978  84.0500014 110.9109992  43.0629978  83.4620014
 111.6159992  44.4059978  84.4280014 109.8869992  43.6549978  85.3900014
 109.8819992  44.4509978  86.1650014 108.8389992  43.3209978  85.2320014
 110.5909992  42.4469978  86.0450014 110.7459992  41.6169978  85.3240014
 111.6079992  42.8079978  86.3120014 110.1149992  41.9979978  87.4610014
 109.0819992  41.6469978  87.2480014 110.7129992  41.1259978  87.8020014
 110.3589992  43.0779978  88.5740014 111.3949992  43.4799978  88.5720014
 109.7179992  43.9559978  88.3440014 110.2699992  42.5479978  90.0020014
 109.3729992  41.8949978  89.9410014 111.0849992  41.8559978  90.3010014
 110.0049992  43.6389978  91.1340014 110.9889992  44.0629978  91.4300014
 109.4009992  44.4069978  90.6050014 109.2509992  42.9669978  92.2320014
 108.3909992  42.4399978  91.7660014 109.9389992  42.2149978  92.6740014
 108.6529992  43.9669978  93.2260014 107.7829992  44.4159978  92.7000014
 108.2659992  43.3759978  94.0840014 109.5709992  45.1359978  93.8590014
 110.5959992  44.7089978  93.9000014 109.5429992  45.9189978  93.0720014
 109.0769992  45.8009978  95.1670014 109.5969992  46.7719978  95.3160014
 108.0129992  46.0809978  95.0110014 109.2969992  44.9319978  96.3700014
 109.7079992  43.8129978  96.4050014 108.9999992  45.6529978  97.5030014
 109.1119992  44.9509978  98.7730014 108.4019992  45.4179978  99.4880014
 108.7919992  43.8899978  98.7000014 110.4979992  45.2009978  99.4000014
 110.4809992  44.9249978 100.4760014 110.7359992  46.7299978  99.4490014
 110.6579992  47.1529978  98.4240014 109.9539992  47.1089978 100.1410014
 111.9839992  47.0439978  99.9710014 112.3849992  47.6969978 101.3310014
 113.2379992  46.5899978 102.1300014 113.9519992  45.5599978 101.3630014
 114.0039992  45.7189978 100.2650014 114.9829992  45.5199978 101.7760014
 113.3729992  44.0929978 101.5550014 112.5339992  44.0329978 100.8780014
 114.2169992  43.5279978 101.1870014 112.7919992  43.4919978 102.8640014
 112.0869992  42.1549978 102.6420014 111.9169992  41.7729978 103.6370014
 111.1199992  42.3129978 102.1870014 112.7179992  41.3629978 102.2670014
 113.7499992  43.3479978 104.0450014 113.1719992  42.9809978 104.8810014
 114.4679992  42.6379978 103.6640014 114.2439992  44.2639978 104.3350014
 111.6619992  44.5049978 103.2860014 111.2239992  44.0519978 104.1620014
 110.9029992  44.6399978 102.5300014 112.0989992  45.4789978 103.4520014
 113.2199992  48.9139978 101.2070014 111.1549992  47.8799978 102.1120014
 111.5399992  44.4829978  98.6710014 111.5159992  43.1799978  98.6100014
 110.6409992  42.4679978  99.0950014 112.7929992  42.6499978  97.9640014
 112.8659992  41.5759978  98.2390014 113.6369992  43.2639978  98.3460014
 112.6349992  42.7529978  96.4820014 112.2999992  43.7709978  96.1870014
 111.8279992  42.1029978  96.0810014 113.9779992  42.4569978  95.8220014
 114.4159992  41.5339978  96.2580014 114.6029992  43.2519978  96.2830014
 114.0229992  42.5399978  94.3340014 113.4889992  41.7299978  93.7910014
 115.0459992  42.3909978  93.9260014 113.5839992  43.9619978  93.7310014
 113.8689992  44.7479978  94.4620014 112.4779992  43.8589978  93.7190014
 114.1849992  44.3679978  92.3760014 113.6669992  43.9419978  91.4900014
 115.2599992  44.1029978  92.2920014 114.2539992  45.8489978  92.3120014
 114.8469992  46.1329978  91.4170014 114.7839992  46.2779978  93.1890014
 112.8859992  46.4729978  92.1540014 112.1779992  46.1879978  92.9460014
 112.4509992  47.0039978  91.0400014 111.3829992  47.2669978  91.0330014
 113.1679992  47.1649978  89.7480014 114.2079992  47.4209978  90.0440014
 112.7029992  48.0659978  89.2940014 113.0459992  45.9399978  88.8730014
 111.9949992  45.7789978  88.5510014 113.4079992  45.1609978  89.5780014
 113.9919992  45.9669978  87.6260014 114.9659992  45.5369978  87.9440014
 114.2689992  46.9919978  87.2990014 113.4129992  45.2189978  86.3910014
 112.4229992  45.6879978  86.2060014 113.3379992  44.1389978  86.6420014
 114.1749992  45.3569978  85.1280014 114.3149992  46.4189978  84.8350014
 113.7039992  44.6899978  84.3740014 115.5569992  44.7639978  85.3110014
 115.5709992  43.7359978  85.7310014 116.0069992  45.3529978  86.1390014
 116.5399992  44.9779978  84.0960014 116.2729992  45.9429978  83.6160014
 116.2849992  44.0419978  83.5540014 118.0039992  45.0649978  84.4700014
 118.3919992  44.0939978  84.8440014 118.0449992  45.7639978  85.3320014
 118.5589992  45.4149978  83.5730014  49.0139992  41.4329978  83.5370014
  48.4449992  41.6099978  82.6000014  48.3659992  40.9519978  84.3010014
  49.8539992  40.7909978  83.1960014  49.5449992  42.8109978  84.0030014
  50.1909992  42.7319978  84.9030014  50.1829992  43.3529978  83.2720014
  48.4399992  43.7559978  84.5010014  48.9759992  44.6369978  84.9150014
  47.9109992  44.0579978  83.5720014  47.4169992  43.1439978  85.5480014
  46.8539992  44.0569978  85.8360014  46.8219992  42.3169978  85.1050014
  48.2209992  42.7629978  86.8420014  49.0139992  42.0289978  86.5820014
  48.7319992  43.7039978  87.1400014  47.2679992  42.3089978  87.9930014
  46.5219992  43.1129978  88.1680014  46.6879992  41.4899978  87.5160014
  47.9839992  41.9039978  89.3240014  48.6829992  41.0829978  89.0560014
  48.6109992  42.7349978  89.7130014  46.8799992  41.5789978  90.3900014
  46.7599992  42.4989978  91.0010014  45.9219992  41.4269978  89.8470014
  47.1519992  40.3419978  91.3350014  46.3699992  40.2339978  92.1160014
  47.0079992  39.4509978  90.6870014  48.5229992  40.1909978  91.9490014
  49.1629992  39.9079978  91.0850014  48.7319992  41.1719978  92.4260014
  48.7119992  39.0209978  93.0120014  47.9769992  39.1499978  93.8350014
  48.3969992  38.0449978  92.5860014  50.1449992  38.8329978  93.4910014
  50.7789992  38.3049978  92.7470014  50.5819992  39.8539978  93.5180014
  50.1689992  38.0159978  94.7920014  49.7559992  36.9849978  94.7840014
  51.2759992  37.9849978  94.8780014  49.6029992  38.7579978  95.9710014
  49.9419992  39.8089978  96.0910014  48.4929992  38.7539978  95.9530014
  50.0459992  37.9629978  97.2510014  49.5649992  36.9619978  97.2790014
  51.1229992  37.7059978  97.3440014  49.3369992  38.6569978  98.4210014
  48.1729992  38.8629978  98.5430014  50.2869992  38.9479978  99.3100014
  49.8849992  39.5199978 100.4810014  49.5169992  40.5469978 100.2700014
  49.0939992  38.9089978 100.9670014  50.9849992  39.6469978 101.5420014
  51.4939992  38.7259978 101.8990014  50.3989992  40.3299978 102.8300014
  49.4789992  39.7769978 103.1150014  51.1689992  40.1209978 103.6040014
  50.2969992  41.7229978 102.5830014  49.8429992  42.5239978 103.8610014
  49.3859992  43.9089978 103.2410014  48.2169992  44.0869978 102.5410014
  47.3669992  43.5089978 102.9630014  48.0019992  45.1679978 102.6830014
  48.2539992  43.6079978 101.0350014  48.4309992  42.5599978 100.8410014
  47.2989992  43.8619978 100.6000014  49.2399992  44.3419978 100.2140014
  50.6359992  44.0189978 100.6900014  51.3069992  44.6049978 100.0790014
  50.7509992  44.4459978 101.6750014  50.8679992  42.9639978 100.6960014
  49.0989992  43.9169978  98.7740014  49.7219992  44.6559978  98.2920014
  49.3599992  42.9029978  98.5090014  48.0769992  44.0719978  98.4620014
  49.0379992  45.8629978 100.3720014  48.0309992  46.0569978 100.0350014
  49.8289992  46.2869978  99.7720014  49.2319992  46.1649978 101.3910014
  48.6699992  41.9649978 104.5760014  51.0979992  42.7179978 104.6200014
  52.0389992  40.5299978 101.0810014  52.9119992  39.9569978 100.2510014
  53.0039992  38.8439978  99.7730014  53.8839992  41.0219978  99.9920014
  54.7579992  40.7629978 100.6270014  53.6869992  42.0569978 100.3430014
  54.4389992  40.9919978  98.5480014  54.7489992  39.9309978  98.4350014
  55.3119992  41.6729978  98.4620014  53.4319992  41.3259978  97.4100014
  53.3409992  42.4329978  97.3900014  52.4259992  40.9149978  97.6380014
  53.9539992  40.7389978  96.1230014  54.3569992  39.7039978  96.0970014
  54.7619992  41.4169978  95.7740014  52.9359992  40.9279978  95.0020014
  51.9969992  40.4669978  95.3780014  53.3959992  40.4929978  94.0900014
  52.6879992  42.4459978  94.5790014  53.6019992  42.6789978  93.9930014
  52.6769992  43.1009978  95.4770014  51.4849992  42.6659978  93.7060014
  50.5619992  42.3289978  94.2250014  51.6839992  42.0249978  92.8210014
  51.2639992  44.0849978  93.3020014  50.7139992  44.5599978  94.1280014
  51.6889992  44.8509978  92.3080014  51.2929992  45.8769978  92.2640014
  52.5629992  44.4089978  91.1730014  53.0889992  43.4679978  91.4430014
  53.2929992  45.2329978  91.0250014  51.6409992  44.1849978  89.9400014
  51.1629992  45.1369978  89.6260014  50.8019992  43.5059978  90.2040014
  52.5059992  43.7109978  88.7970014  53.3259992  44.4599978  88.7630014
  51.8829992  43.8939978  87.8950014  53.0709992  42.2629978  88.8700014
  53.7279992  42.1049978  89.7520014  53.7969992  42.0989978  88.0460014
  51.9679992  41.2039978  88.8440014  51.3559992  41.4229978  87.9430014
  51.3389992  41.3169978  89.7530014  52.6169992  39.8739978  88.5370014
  53.2879992  39.6869978  89.4030014  53.3559992  39.9679978  87.7130014
  51.5419992  38.8499978  88.0280014  50.7259992  38.7409978  88.7740014
  52.0219992  37.8539978  87.9220014  50.8849992  39.2359978  86.6640014
  51.5669992  39.3409978  85.7940014  50.1749992  40.0719978  86.8410014
  50.2409992  38.3709978  86.3960014 117.5279992  58.5759978  84.6530014
 116.5129992  58.1949978  84.4120014 118.3329992  57.8879978  84.3150014
 117.6459992  59.4629978  83.9960014 117.7599992  58.8919978  86.1330014
 117.4379992  58.0279978  86.7530014 118.8439992  58.9819978  86.3580014
 117.1349992  60.2259978  86.6550014 117.8049992  61.1029978  86.5340014
 116.2529992  60.4439978  86.0160014 116.8529992  60.1559978  88.1720014
 116.2629992  61.0729978  88.3840014 116.2169992  59.2869978  88.4470014
 118.0859992  60.1459978  89.0530014 118.7569992  59.3059978  88.7720014
 118.7969992  60.9279978  88.7100014 117.8469992  60.2569978  90.5860014
 116.8439992  59.8299978  90.7990014 118.6659992  59.6789978  91.0660014
 117.8419992  61.7259978  91.2150014 118.8559992  62.1759978  91.2740014
 117.3299992  62.3759978  90.4730014 117.1099992  61.8809978  92.5000014
 117.4529992  60.9929978  93.0720014 117.4809992  62.8199978  92.9650014
 115.5509992  61.8329978  92.2900014 115.1409992  60.9549978  91.7470014
 115.0479992  61.7189978  93.2740014 114.8699992  63.1289978  91.8210014
 115.3869992  63.9649978  92.3390014 114.8369992  63.2969978  90.7230014
 113.3709992  63.1679978  92.1980014 113.2979992  63.2319978  93.3050014
 112.9429992  64.1299978  91.8430014 112.5819992  61.9429978  91.6420014
 112.7059992  62.0779978  90.5470014 112.8679992  60.9109978  91.9360014
 111.1149992  62.0869978  92.0720014 110.9209992  63.1809978  92.0640014
 110.3919992  61.7869978  91.2840014 110.7829992  61.4329978  93.4230014
 109.7709992  61.7919978  93.7090014 110.6599992  60.3439978  93.2360014
 111.7299992  61.7129978  94.6100014 112.7769992  61.3649978  94.4800014
 111.9559992  62.7629978  94.8940014 111.1779992  61.1039978  95.9170014
 110.1969992  60.4079978  95.9590014 112.0169992  61.4069978  96.9150014
 111.7879992  60.7969978  98.1320014 111.3019992  61.4889978  98.8530014
 111.1899992  59.8629978  98.0740014 113.0759992  60.4709978  98.9450014
 112.6709992  59.8239978  99.7530014 113.8359992  61.6569978  99.5330014
 114.3839992  62.2899978  98.8020014 113.0739992  62.2929978 100.0310014
 114.6959992  61.2319978 100.6090014 116.3039992  61.0169978 100.4560014
 116.7369992  59.8319978 101.3790014 115.6949992  59.3519978 102.2940014
 115.5509992  60.1049978 103.0980014 114.6839992  59.2709978 101.8390014
 116.0049992  57.9259978 102.9550014 115.2199992  57.8209978 103.6890014
 115.8469992  57.1829978 102.1870014 117.4489992  57.8409978 103.5500014
 117.8179992  59.1889978 104.0050014 118.8649992  59.4089978 104.1550014
 117.6689992  59.8439978 103.1590014 117.2389992  59.4729978 104.8710014
 117.4819992  56.8929978 104.7360014 118.3329992  57.0889978 105.3720014
 116.5969992  57.0089978 105.3440014 117.4499992  55.8889978 104.3400014
 118.4939992  57.3519978 102.5210014 119.5039992  57.2469978 102.8890014
 118.4969992  58.1639978 101.8090014 118.0839992  56.4429978 102.1070014
 116.5629992  60.5329978  99.0960014 117.0839992  62.1899978 100.9050014
 113.9339992  59.7769978  98.0150014 113.8189992  58.4499978  97.8720014
 113.4289992  57.7249978  98.7860014 114.4969992  57.9699978  96.5580014
 115.3799992  57.3619978  96.8490014 114.8949992  58.8809978  96.0630014
 113.4429992  57.3129978  95.6920014 112.4919992  57.8869978  95.7120014
 113.3399992  56.3919978  96.3050014 113.9119992  56.9549978  94.2450014
 112.9639992  56.4569978  93.9480014 114.6999992  56.1749978  94.1790014
 114.1399992  58.1029978  93.2380014 114.8079992  58.8669978  93.6900014
 113.1859992  58.6659978  93.1510014 114.5689992  57.6069978  91.8510014
 115.3199992  56.7979978  91.9720014 115.1009992  58.3769978  91.2520014
 113.3229992  56.9899978  91.1470014 112.4219992  57.6339978  91.2340014
 112.9299992  56.1159978  91.7100014 113.5429992  56.3529978  89.8250014
 114.1999992  55.4609978  89.8950014 114.0129992  57.1349978  89.1900014
 112.3599992  55.8069978  89.1740014 112.1649992  54.7269978  89.2500014
 111.5099992  56.6709978  88.4400014 110.6139992  56.2239978  87.9860014
 111.6789992  58.1639978  88.2510014 112.7279992  58.5069978  88.1260014
 111.1979992  58.6629978  89.1190014 111.0689992  58.6519978  86.9180014
 109.9939992  58.4319978  87.0900014 111.1799992  58.0239978  86.0080014
 111.3449992  60.0809978  86.4070014 110.9669992  60.8929978  87.0650014
 110.8709992  60.2499978  85.4170014 112.7989992  60.3759978  85.9090014
 113.0609992  59.4939978  85.2870014 113.4829992  60.3639978  86.7850014
 112.8029992  61.6889978  85.1670014 112.2279992  62.4299978  85.7620014
 112.2339992  61.5769978  84.2190014 114.1729992  62.3209978  84.7980014
 114.7229992  61.7389978  84.0280014 114.7739992  62.3159978  85.7330014
 114.1599992  63.7759978  84.2870014 115.1899992  64.0539978  83.9790014
 113.7899992  64.4369978  85.1000014 113.3479992  63.9679978  83.0930014
 113.1279992  65.0409978  82.9100014 112.3709992  63.4789978  83.2950014
 113.6949992  63.4749978  82.1600014  86.9109992  22.5219978  82.9380014
  87.0659992  23.2239978  83.7860014  86.1959992  22.8499978  82.1530014
  87.8749992  22.3439978  82.4150014  86.2929992  21.1979978  83.5180014
  87.1429992  20.9129978  84.1740014  85.4319992  21.5589978  84.1200014
  85.9249992  20.0999978  82.4860014  85.1919992  20.6979978  81.9030014
  86.7949992  19.7329978  81.9010014  85.3169992  18.7739978  83.0350014
  84.5889992  18.9289978  83.8600014  84.7419992  18.0669978  82.4010014
  86.4489992  17.8559978  83.5120014  86.8999992  17.4619978  82.5760014
  87.2039992  18.5769978  83.8900014  86.1039992  16.8289978  84.6540014
  85.2959992  16.1409978  84.3260014  86.9919992  16.1629978  84.6970014
  85.9249992  17.5669978  86.0350014  86.9529992  17.5939978  86.4570014
  85.5649992  18.6009978  85.8480014  84.9019992  16.8509978  87.0050014
  84.8059992  17.5139978  87.8920014  83.9269992  16.6789978  86.5020014
  85.5479992  15.4889978  87.4710014  85.5239992  14.6929978  86.6960014
  86.6029992  15.6069978  87.7990014  84.8069992  14.9089978  88.6340014
  84.5909992  15.7719978  89.2990014  83.7919992  14.5479978  88.3650014
  85.5809992  13.7649978  89.3610014  84.8529992  12.9909978  89.6870014
  86.2419992  13.4429978  88.5280014  86.4119992  14.2159978  90.6290014
  85.7639992  14.3859978  91.5160014  87.1079992  13.3609978  90.7660014
  87.2159992  15.5569978  90.3760014  87.8099992  15.3879978  89.4520014
  86.5669992  16.4559978  90.3080014  88.2749992  15.9379978  91.4620014
  88.9629992  15.0659978  91.4350014  88.7729992  16.9179978  91.3000014
  87.5509992  16.0419978  92.8320014  86.8249992  16.8469978  92.5890014
  86.9539992  15.1519978  93.1270014  88.4359992  16.4469978  93.9710014
  89.6029992  16.0719978  94.0950014  87.8099992  17.2069978  94.9270014
  88.6259992  17.6579978  95.9540014  89.3249992  16.8419978  96.2370014
  89.1989992  18.5189978  95.5500014  87.9839992  18.0429978  97.2500014
  88.7129992  18.6719978  97.8040014  87.6099992  16.7789978  98.0160014
  86.8989992  16.1679978  97.4200014  88.4499992  16.0559978  98.1000014
  87.0539992  17.0569978  99.2990014  87.9849992  17.2839978 100.5630014
  86.9109992  17.7539978 101.6570014  86.3919992  19.0229978 101.5610014
  86.2339992  19.3869978 100.5240014  85.3759992  18.8909978 101.9900014
  87.1519992  20.2159978 102.2110014  88.0459992  20.4239978 101.6420014
  86.6099992  21.1479978 102.1510014  87.6849992  20.1919978 103.5990014
  86.6039992  19.6219978 104.5880014  87.0209992  19.5589978 105.5820014
  85.7959992  20.3359978 104.6590014  86.2529992  18.6789978 104.1970014
  88.8619992  19.2149978 103.7410014  88.4389992  18.2569978 103.4780014
  89.5559992  19.5219978 102.9720014  89.2209992  19.3009978 104.7560014
  88.2409992  21.4879978 104.0610014  87.4569992  22.2219978 104.1820014
  88.9039992  21.7819978 103.2610014  88.6389992  21.4039978 105.0620014
  88.5129992  15.9739978 101.1000014  88.9789992  18.3029978 100.1260014
  86.8139992  18.8709978  96.9770014  87.0359992  20.1429978  96.6850014
  88.0719992  20.6829978  96.7790014  85.8249992  20.7439978  96.0960014
  85.4519992  21.6649978  96.5930014  84.9939992  20.0289978  95.9130014
  86.2269992  21.3549978  94.6680014  87.2159992  21.8409978  94.5240014
  85.3849992  22.0329978  94.4090014  86.2689992  20.3259978  93.5290014
  85.3019992  19.7809978  93.4750014  87.1139992  19.6079978  93.5960014
  86.4619992  21.0379978  92.2090014  87.4739992  21.4779978  92.0740014
  85.7319992  21.8759978  92.2210014  86.2339992  20.0509978  91.0050014
  85.7959992  20.5619978  90.1210014  85.5419992  19.1929978  91.1400014
  87.4769992  19.2799978  90.5520014  87.2869992  18.3179978  90.0290014
  87.8929992  18.9209978  91.5170014  88.6069992  20.1049978  89.9430014
  89.4009992  19.3349978  89.8350014  88.9289992  20.9389978  90.6030014
  88.0699992  20.6349978  88.6430014  87.2399992  21.3459978  88.7690014
  88.4629992  20.3039978  87.4100014  88.0819992  20.9299978  86.5890014
  89.5439992  19.3269978  87.1490014  89.3179992  18.3749978  87.6760014
  90.5919992  19.5719978  87.4240014  89.4389992  18.8409978  85.7220014
  88.4369992  19.0269978  85.2800014  89.4119992  17.7309978  85.6810014
  90.3759992  19.4229978  84.6190014  90.0249992  20.4729978  84.5250014
  90.2719992  18.7759978  83.7210014  91.8859992  19.5509978  84.8880014
  92.0519992  20.3349978  85.6580014  92.4009992  19.8339978  83.9450014
  92.5409992  18.2089978  85.3200014  92.1499992  17.7529978  86.2550014
  93.6079992  18.3229978  85.6090014  92.2619992  17.0499978  84.2740014
  91.1949992  16.7419978  84.3090014  92.8879992  16.1749978  84.5490014
  92.6089992  17.5179978  82.8490014  93.4899992  18.1769978  83.0070014
  91.9649992  18.2189978  82.2760014  93.0039992  16.3799978  81.8850014
  93.6919992  15.6459978  82.3550014  93.5129992  16.8459978  81.0140014
  92.1479992  15.7719978  81.5240014  72.4089992  21.7859978  84.4600014
  71.5349992  22.4069978  84.1670014  72.7249992  20.9839978  83.7600014
  73.2749992  22.4239978  84.7360014  71.8049992  20.9119978  85.6470014
  70.8859992  20.4959978  85.1820014  72.4239992  20.0049978  85.8170014
  71.4009992  21.6009978  86.9610014  72.2879992  22.1569978  87.3340014
  70.6209992  22.3739978  86.7950014  71.0829992  20.6579978  88.1080014
  71.9739992  20.0069978  88.2380014  71.0389992  21.1069978  89.1230014
  69.8669992  19.6629978  88.0490014  69.7079992  19.3219978  87.0040014
  70.1759992  18.7949978  88.6700014  68.5339992  20.1619978  88.6410014
  67.8679992  19.2799978  88.7480014  68.7809992  20.8199978  89.5010014
  67.8019992  21.1229978  87.6920014  68.4239992  22.0099978  87.4490014
  67.6459992  20.6059978  86.7210014  66.5549992  21.6739978  88.3230014
  65.8729992  22.1679978  87.5980014  66.0119992  20.8549978  88.8420014
  66.9169992  22.8819978  89.2880014  67.5269992  22.5609978  90.1600014
  67.5229992  23.5449978  88.6350014  65.6539992  23.5639978  89.6910014
  65.1249992  23.9869978  88.8110014  64.9689992  22.7529978  90.0170014
  65.8729992  24.6129978  90.7350014  66.6349992  24.1859978  91.4220014
  66.3899992  25.5139978  90.3420014  64.5739992  25.0539978  91.3950014
  64.8299992  25.9669978  91.9740014  63.7569992  25.1859978  90.6540014
  63.9669992  24.0159978  92.3700014  62.9929992  24.4739978  92.6460014
  63.7689992  23.0679978  91.8270014  64.8109992  23.6929978  93.6460014
  64.3689992  22.7219978  93.9540014  65.8409992  23.5229978  93.2660014
  64.6829992  24.8649978  94.6350014  65.1219992  25.7759978  94.1730014
  63.6169992  25.0659978  94.8740014  65.5359992  24.6459978  95.9010014
  66.5079992  25.3559978  96.2380014  65.1259992  23.5729978  96.4600014
  65.6349992  23.2709978  97.7760014  66.1669992  24.1249978  98.2470014
  64.8659992  22.8949978  98.4850014  66.7519992  22.1809978  97.6110014
  66.3139992  21.2249978  97.2510014  67.5419992  21.7739978  98.9070014
  66.9399992  21.9439978  99.8250014  67.7379992  20.6809978  98.9290014
  68.8319992  22.3939978  98.9810014  69.2119992  23.4749978 100.0560014
  69.0579992  22.6329978 101.3640014  69.9989992  21.5089978 101.6550014
  69.3549992  20.7329978 102.1210014  70.4359992  21.0159978 100.7600014
  71.0509992  21.8969978 102.6790014  71.6939992  21.0299978 102.7230014
  71.6379992  22.7319978 102.3230014  70.6279992  22.3159978 104.0830014
  69.6819992  23.5729978 104.1620014  70.1809992  24.5079978 103.9560014
  68.8509992  23.3859978 103.4980014  69.3139992  23.5709978 105.1780014
  69.9369992  21.1509978 104.7460014  69.0439992  20.9259978 104.1810014
  70.6229992  20.3189978 104.8130014  69.6109992  21.2929978 105.7650014
  71.7629992  22.6069978 104.9430014  71.4839992  22.7459978 105.9770014
  72.1269992  23.6089978 104.7770014  72.5319992  21.8509978 104.8810014
  70.6179992  23.8749978  99.8120014  68.1439992  24.5229978 100.0240014
  67.6669992  22.7089978  96.6320014  68.2649992  21.8439978  95.8630014
  68.0229992  20.6839978  95.8410014  69.2489992  22.4949978  94.9490014
  70.1649992  21.8719978  95.0240014  69.5299992  23.4729978  95.3960014
  68.8519992  22.4659978  93.5030014  67.8639992  22.9569978  93.3770014
  68.7629992  21.4429978  93.0770014  69.8159992  23.2699978  92.6420014
  69.6999992  23.0449978  91.5600014  70.8659992  23.0019978  92.8840014
  69.5409992  24.7339978  92.7980014  69.4139992  25.1259978  93.8300014
  68.4849992  24.8779978  92.4830014  70.5259992  25.7029978  92.1290014
  71.5029992  25.4919978  92.6130014  70.2259992  26.7149978  92.4760014
  70.4709992  25.5829978  90.5680014  69.4029992  25.5839978  90.2620014
  71.0209992  24.6449978  90.3420014  71.1559992  26.6299978  89.7060014
  71.1219992  26.4039978  88.6180014  72.2029992  26.6279978  90.0760014
  70.8179992  28.0759978  89.8250014  71.2889992  28.6719978  90.6200014
  69.8269992  28.7489978  89.2370014  69.8249992  29.8479978  89.2150014
  68.7429992  28.3519978  88.2220014  67.8249992  28.7739978  88.6840014
  68.5869992  27.2599978  88.0880014  69.0739992  28.9789978  86.8220014
  69.9009992  28.4039978  86.3540014  69.4099992  30.0079978  87.0720014
  67.7999992  28.9359978  85.8920014  68.1179992  29.5229978  85.0050014
  66.9389992  29.4849978  86.3300014  67.3029992  27.5309978  85.5310014
  66.4769992  27.5709978  84.7900014  66.9199992  26.9999978  86.4290014
  68.3369992  26.7169978  84.7200014  69.3559992  26.7369978  85.1640014
  68.3409992  27.1069978  83.6800014  67.8469992  25.3209978  84.6550014
  66.8989992  25.1189978  84.1130014  67.7599992  25.0239978  85.7220014
  68.8809992  24.4019978  83.9490014  69.8809992  24.6139978  84.3850014
  68.9799992  24.8299978  82.9290014  68.5359992  22.9049978  83.9570014
  68.4179992  22.4989978  84.9850014  69.2849992  22.2499978  83.4640014
  67.5309992  22.7129978  83.5240014  57.4259992  34.8259978  81.0140014
  57.6029992  35.1129978  79.9560014  58.2539992  35.3079978  81.5790014
  56.3939992  35.1379978  81.2800014  57.4779992  33.2939978  81.2780014
  56.6709992  32.7649978  80.7280014  58.4259992  32.9209978  80.8360014
  57.3369992  32.9489978  82.7500014  57.8609992  31.9749978  82.8650014
  57.7509992  33.7619978  83.3840014  55.9059992  32.8239978  83.2630014
  55.4539992  33.8039978  83.5280014  55.2369992  32.3279978  82.5280014
  55.9149992  32.0089978  84.6220014  54.8429992  31.8349978  84.8560014
  56.4569992  31.0419978  84.5460014  56.4709992  32.7869978  85.8290014
  57.5719992  32.7259978  85.6870014  56.1239992  33.8389978  85.7520014
  56.1669992  32.1479978  87.1740014  55.0669992  32.1809978  87.3260014
  56.4249992  31.0849978  86.9820014  56.9759992  32.7349978  88.3380014
  58.0539992  32.8109978  88.0820014  56.5749992  33.6889978  88.7430014
  57.0939992  31.7059978  89.5510014  56.0249992  31.4769978  89.7520014
  57.6369992  30.7959978  89.2180014  57.5259992  32.3019978  90.9710014
  58.4869992  32.8269978  90.7790014  56.7709992  33.0459978  91.3040014
  57.6929992  31.1499978  91.9200014  56.7919992  30.4999978  91.8980014
  58.6489992  30.6919978  91.5890014  57.7809992  31.6099978  93.3830014
  58.5269992  32.4319978  93.3290014  56.8389992  32.1049978  93.7030014
  58.3349992  30.4629978  94.3290014  57.7979992  29.5299978  94.0550014
  59.3679992  30.3699978  93.9310014  58.0599992  30.8949978  95.7580014
  57.0119992  31.2609978  95.7830014  58.1269992  29.9559978  96.3490014
  59.0199992  31.9169978  96.2930014  59.1729992  32.8409978  95.6950014
  58.5439992  32.3379978  97.2040014  60.4189992  31.3399978  96.9070014
  60.9709992  30.3749978  96.4680014  60.8639992  32.0779978  97.9110014
  62.0589992  31.5399978  98.5560014  62.1579992  30.4399978  98.4370014
  62.9499992  32.0039978  98.0820014  61.9589992  31.8369978 100.0440014
  62.8589992  31.3629978 100.4910014  60.6749992  31.2499978 100.7140014
  59.8229992  31.9269978 100.4910014  60.5179992  30.2929978 100.1720014
  60.7559992  31.0659978 102.0730014  59.5309992  30.9809978 102.9690014
  58.9599992  32.4219978 102.9300014  59.5449992  33.7149978 102.7340014
  59.2419992  34.3589978 103.5870014  60.6519992  33.6739978 102.6510014
  59.2159992  34.2429978 101.3330014  59.7999992  35.1329978 101.1510014
  59.4779992  33.5149978 100.5790014  57.7659992  34.6519978 101.0060014
  56.8379992  33.5009978 101.0960014  56.9519992  33.1429978 102.1090014
  55.8439992  33.7869978 100.7850014  57.2909992  32.7119978 100.5140014
  57.4309992  35.7279978 102.0060014  56.4849992  36.1969978 101.7780014
  57.3019992  35.2509978 102.9670014  58.1419992  36.5339978 101.8940014
  57.7479992  35.1109978  99.5600014  58.2139992  36.0849978  99.5660014
  56.7039992  35.1409978  99.2840014  58.3409992  34.3699978  99.0450014
  58.5549992  30.0919978 102.4610014  59.9939992  30.5639978 104.3370014
  61.9919992  33.2289978 100.2440014  63.2559992  33.6919978 100.2410014
  64.2749992  33.0659978 100.1210014  63.2469992  35.2349978 100.4580014
  64.3019992  35.5279978 100.6480014  62.5759992  35.3759978 101.3310014
  62.9459992  35.8299978  99.1300014  63.4239992  35.3359978  98.2570014
  63.1749992  36.9109978  99.2500014  61.3719992  35.8739978  98.8540014
  60.7929992  36.3849978  99.6520014  61.0289992  34.8449978  98.6110014
  61.0279992  36.9159978  97.7080014  61.4069992  37.9589978  97.7740014
  59.9319992  37.0929978  97.7660014  61.3469992  36.4619978  96.2960014
  62.4469992  36.3129978  96.3140014  61.3239992  37.3489978  95.6260014
  60.5899992  35.3489978  95.6020014  59.6049992  35.7479978  95.2780014
  60.4059992  34.5929978  96.3950014  61.3819992  34.6009978  94.4860014
  60.7599992  33.8399978  93.9680014  62.0289992  33.9039978  95.0610014
  62.1649992  35.3649978  93.4400014  62.6419992  36.3029978  93.7580014
  62.4419992  34.8509978  92.2150014  62.8299992  35.5969978  91.5050014
  62.0719992  33.5079978  91.6020014  61.4509992  32.9339978  92.3230014
  62.9689992  32.8989978  91.3580014  61.2439992  33.7439978  90.2470014
  61.7789992  34.4369978  89.5640014  60.2569992  34.2219978  90.4230014
  61.1489992  32.3579978  89.5780014  60.4629992  32.5209978  88.7190014
  60.5649992  31.7109978  90.2670014  62.4959992  31.8659978  89.0410014
  63.1319992  31.3939978  89.8200014  63.0509992  32.6889978  88.5430014
  62.2989992  30.7459978  87.9900014  61.8459992  29.8519978  88.4700014
  63.3439992  30.5379978  87.6760014  61.4069992  31.0519978  86.7510014
  60.3269992  30.9979978  87.0060014  61.5859992  30.1899978  86.0730014
  61.6459992  32.3629978  86.1540014  61.4659992  33.0999978  86.9660014
  60.9809992  32.5169978  85.2780014  63.1179992  32.6539978  85.6320014
  63.2059992  33.7429978  85.4330014  63.2239992  32.0949978  84.6780014
  63.8179992  32.2979978  86.4190014 129.3939992  92.2019978  85.0750014
 130.3359992  91.6219978  85.1800014 129.2059992  92.5959978  86.0960014
 129.7059992  93.0089978  84.3780014 128.2809992  91.2819978  84.5220014
 128.5939992  90.7229978  83.6140014 127.9289992  90.5109978  85.2400014
 127.0339992  92.0359978  84.1460014 127.3649992  92.9169978  83.5560014
 126.4199992  91.2719978  83.6210014 126.2559992  92.6519978  85.3820014
 126.4539992  92.0819978  86.3150014 126.7079992  93.6029978  85.7360014
 124.7719992  92.8629978  85.1330014 124.4519992  93.4849978  84.2700014
 124.3119992  91.8529978  85.0940014 124.1099992  93.5139978  86.3250014
 124.4919992  93.1079978  87.2860014 124.2289992  94.6129978  86.2110014
 122.5849992  93.2919978  86.4190014 122.0539992  93.6769978  85.5220014
 122.3649992  92.2159978  86.5860014 121.8569992  94.0179978  87.5320014
 121.8699992  95.0999978  87.2800014 120.7839992  93.7299978  87.4940014
 122.3549992  93.9029978  88.9370014 121.4679992  94.2389978  89.5150014
 122.8079992  92.9029978  89.1040014 123.4109992  94.9479978  89.2820014
 124.1609992  94.9589978  88.4630014 122.9679992  95.9629978  89.3670014
 124.1319992  94.5179978  90.6180014 123.3099992  94.4099978  91.3570014
 124.5609992  93.4929978  90.6040014 125.3729992  95.2939978  91.0260014
 126.0309992  95.1059978  90.1510014 125.0029992  96.3409978  91.0110014
 126.0609992  94.8629978  92.3710014 126.3149992  93.7819978  92.3440014
 127.0489992  95.3629978  92.2800014 125.2339992  95.2389978  93.6030014
 124.9349992  96.2459978  93.2390014 124.2649992  94.6959978  93.5740014
 125.9859992  95.3639978  94.9640014 126.4109992  94.3629978  95.1930014
 126.7399992  96.1809978  94.9500014 125.0289992  95.7539978  96.0950014
 123.9139992  96.1029978  95.8410014 125.6329992  95.6119978  97.2380014
 124.8709992  95.9409978  98.3510014 125.5489992  96.2339978  99.1800014
 124.1819992  96.7949978  98.1750014 124.1379992  94.5979978  98.8230014
 123.7779992  94.7019978  99.8690014 125.0709992  93.3829978  98.8630014
 124.9279992  92.9049978  97.8700014 126.1049992  93.7629978  99.0080014
 124.7809992  92.4489978  99.9670014 125.9069992  91.5059978 100.5340014
 125.1229992  90.5199978 101.4850014 123.8099992  90.1179978 101.1780014
 123.4769992  90.5179978 100.1970014 123.7719992  89.0089978 101.1230014
 122.7199992  90.3339978 102.1740014 122.2939992  91.2669978 101.8360014
 122.0019992  89.5419978 102.0200014 123.0189992  90.3259978 103.6720014
 123.8759992  91.4829978 104.0190014 124.1009992  91.4339978 105.0740014
 124.7369992  91.4139978 103.3710014 123.2329992  92.2809978 103.6770014
 121.7219992  90.5019978 104.5020014 121.9759992  90.8469978 105.4940014
 121.1349992  91.2249978 103.9560014 121.2609992  89.5399978 104.6730014
 123.6719992  89.0509978 104.1650014 123.9509992  89.2239978 105.1940014
 124.6349992  88.8699978 103.7110014 123.0499992  88.1859978 103.9920014
 126.5619992  90.8329978  99.4190014 126.8269992  92.3089978 101.3900014
 123.0169992  94.4919978  97.8900014 122.1059992  93.6119978  98.0960014
 121.9249992  92.8999978  99.0530014 121.2149992  93.5759978  96.8120014
 120.8569992  94.6179978  96.6650014 120.3739992  92.8669978  96.9650014
 122.0239992  92.9029978  95.6820014 122.1209992  91.8379978  95.9830014
 122.9789992  93.4499978  95.5250014 121.3289992  93.0269978  94.2990014
 121.3809992  94.1109978  94.0610014 120.2499992  92.7699978  94.2230014
 122.1009992  92.2219978  93.1780014 123.1479992  92.0839978  93.5210014
 122.0709992  92.6709978  92.1620014 121.6789992  90.8049978  92.8400014
 120.9979992  90.8209978  91.9630014 121.2049992  90.2879978  93.7010014
 122.8889992  89.9559978  92.2660014 123.6159992  89.7629978  93.0840014
 123.3349992  90.4569978  91.3800014 122.3589992  88.6329978  91.6900014
 121.6189992  88.9359978  90.9190014 121.7059992  88.1339978  92.4380014
 123.3119992  87.6469978  91.1450014 124.1639992  87.4679978  91.8180014
 123.3209992  86.9789978  90.0070014 124.0659992  86.2009978  89.7830014
 122.2609992  87.0269978  88.8640014 121.2559992  87.4099978  89.1450014
 122.0569992  86.0439978  88.3880014 122.8079992  87.8509978  87.6950014
 123.7159992  87.2909978  87.3840014 123.2419992  88.7999978  88.0770014
 122.0329992  88.0159978  86.4130014 121.3759992  88.8629978  86.7040014
 121.2659992  87.2219978  86.2850014 122.8179992  88.5009978  85.1640014
 123.1989992  87.6219978  84.6010014 123.5949992  89.1699978  85.5900014
 121.8839992  89.3989978  84.3530014 121.7359992  90.2599978  85.0390014
 120.9959992  88.8329978  83.9990014 122.5599992  89.9529978  83.0770014
 122.9869992  89.1649978  82.4200014 123.2669992  90.7749978  83.3190014
 121.4599992  90.5679978  82.1700014 120.8219992  91.1709978  82.8500014
 120.9619992  89.6669978  81.7530014 121.9779992  91.4019978  81.0460014
 122.7019992  92.0699978  81.5590014 121.3499992  91.9819978  80.3360014
 122.5709992  90.6459978  80.4870014  79.7449992 119.7379978  82.9880014
  78.8769992 120.1809978  82.4540014  80.2209992 119.0299978  82.2770014
  80.4199992 120.5459978  83.3430014  79.1129992 119.1279978  84.2210014
  79.9689992 118.9649978  84.9110014  78.5059992 119.8639978  84.7900014
  78.2339992 117.9569978  83.8270014  77.3619992 118.3619978  83.2710014
  78.9299992 117.3659978  83.1950014  77.7609992 117.1189978  85.0970014
  77.8209992 116.0829978  84.7000014  78.5619992 117.2989978  85.8450014
  76.3379992 117.3869978  85.7320014  76.3399992 118.1769978  86.5130014
  75.5789992 117.5359978  84.9350014  75.7469992 116.1329978  86.4280014
  75.6089992 115.3049978  85.7000014  76.3679992 115.7029978  87.2430014
  74.3629992 116.5079978  87.0670014  73.6079992 116.7149978  86.2790014
  73.9859992 115.5599978  87.5070014  74.4019992 117.6539978  88.0610014
  75.1979992 117.4819978  88.8170014  74.5729992 118.6369978  87.5730014
  73.1839992 117.5389978  88.9300014  72.3049992 117.3069978  88.2910014
  73.3689992 116.6689978  89.5960014  72.8759992 118.8389978  89.7870014
  72.8449992 119.7379978  89.1340014  71.8749992 118.7779978  90.2650014
  73.7699992 119.0969978  90.9890014  74.8529992 118.9559978  90.7890014
  73.6439992 120.1409978  91.3490014  73.2499992 118.2519978  92.2020014
  72.2029992 118.4199978  92.5330014  73.3409992 117.1729978  91.9510014
  74.0169992 118.3469978  93.5150014  74.9919992 118.1289978  93.0280014
  73.8289992 119.3229978  94.0130014  73.6959992 117.2189978  94.4640014
  72.6039992 117.2439978  94.6660014  73.9869992 116.2339978  94.0410014
  74.4019992 117.4519978  95.8850014  74.2589992 118.4909978  96.2490014
  73.9739992 116.7539978  96.6360014  75.8759992 117.1889978  95.7140014
  76.2999992 116.1189978  95.2880014  76.5969992 118.1329978  96.2150014
  77.9819992 117.8309978  96.4250014  78.2619992 116.7559978  96.4670014
  78.4469992 118.1869978  95.4810014  78.6659992 118.5469978  97.6890014
  79.5139992 117.8969978  97.9950014  77.7359992 118.5659978  98.9080014
  77.4139992 117.5019978  98.9110014  78.4059992 118.8439978  99.7490014
  76.7749992 119.6179978  98.9230014  75.3869992 119.3479978  99.7060014
  75.8469992 119.4679978 101.1900014  76.4809992 118.5249978 101.9440014
  75.7609992 117.7219978 102.2090014  77.3999992 118.2269978 101.3960014
  76.8779992 119.1549978 103.3510014  77.5149992 118.4259978 103.8300014
  77.5489992 119.9839978 103.1800014  75.7589992 119.5619978 104.3630014
  74.9019992 118.3919978 104.7500014  75.5799992 117.5659978 104.9100014
  74.3669992 118.6149978 105.6610014  74.1579992 118.1129978 104.0190014
  76.5069992 119.9759978 105.6190014  77.2629992 120.7169978 105.4010014
  75.8299992 120.3199978 106.3860014  77.0829992 119.1239978 105.9490014
  74.9789992 120.6889978 103.7960014  74.6189992 120.4879978 102.7980014
  75.4959992 121.6179978 103.6090014  74.1189992 120.9439978 104.3970014
  74.4709992 120.4669978  99.3660014  74.9619992 117.9849978  99.4960014
  79.1009992 119.8209978  97.2430014  79.9469992 120.4659978  98.0650014
  80.5319992 119.9449978  98.9750014  80.0909992 121.8869978  97.5590014
  80.6039992 121.9049978  96.5730014  80.7789992 122.4199978  98.2500014
  78.7139992 122.5789978  97.5970014  78.8579992 123.5919978  98.0290014
  78.0819992 122.1199978  98.3870014  77.9379992 122.5559978  96.2260014
  77.9249992 121.5069978  95.8600014  78.4869992 123.2509978  95.5540014
  76.4819992 123.0459978  96.4360014  76.5159992 124.1509978  96.5470014
  76.2149992 122.4949978  97.3630014  75.5349992 122.6689978  95.3150014
  74.4479992 122.7009978  95.5390014  75.7109992 121.5889978  95.1230014
  75.7119992 123.4319978  94.0200014  75.8359992 124.5069978  94.2720014
  74.8319992 123.3739978  93.3440014  77.0029992 122.9649978  93.1260014
  77.8759992 123.2629978  93.7460014  76.9919992 123.5949978  92.2110014
  77.0309992 121.4839978  92.7450014  77.4609992 120.8429978  93.5280014
  76.7859992 120.9029978  91.6250014  76.9219992 119.8119978  91.6360014
  76.3979992 121.5169978  90.2740014  76.1159992 122.5869978  90.3750014
  75.5919992 120.9819978  89.7270014  77.5629992 121.6329978  89.3010014
  77.7179992 120.6969978  88.7230014  78.5399992 121.7889978  89.8060014
  77.4539992 122.7579978  88.2490014  78.3969992 122.8319978  87.6660014
  77.4349992 123.6079978  88.9630014  76.2769992 122.6999978  87.3320014
  75.9089992 123.7439978  87.2440014  75.4229992 122.2289978  87.8630014
  76.4689992 122.1639978  85.8680014  76.9519992 121.1889978  86.0940014
  77.2169992 122.7119978  85.2560014  75.1719992 122.2169978  85.0470014
  74.6659992 123.1999978  85.1470014  74.4359992 121.4649978  85.4020014
  75.4529992 122.0609978  83.5830014  75.9299992 121.0609978  83.5010014
  76.1649992 122.8829978  83.3530014  74.2059992 122.1279978  82.7940014
  74.2239992 121.5659978  81.8360014  73.9759992 123.1649978  82.4680014
  73.3769992 121.6249978  83.3360014  34.2899992 106.3479978  82.5180014
  34.2309992 105.4969978  81.8050014  33.5499992 107.1649978  82.3790014
  33.9859992 105.9349978  83.5030014  35.6899992 106.8989978  82.7070014
  35.9749992 107.3719978  81.7430014  35.6939992 107.7229978  83.4520014
  36.8099992 105.8669978  83.0620014  36.8599992 105.2189978  82.1610014
  37.7399992 106.4469978  83.2480014  36.4659992 104.9019978  84.2400014
  35.6999992 104.1409978  83.9770014  37.3769992 104.2759978  84.3550014
  36.2049992 105.6759978  85.5170014  37.1499992 106.1729978  85.8260014
  35.6759992 106.6349978  85.3350014  35.6399992 104.8729978  86.6660014
  34.5289992 104.8769978  86.6680014  36.0959992 103.8669978  86.5540014
  36.0349992 105.3659978  88.1480014  35.7299992 104.5549978  88.8430014
  37.1389992 105.4719978  88.0940014  35.5359992 106.7429978  88.4900014
  35.7709992 107.5679978  87.7830014  34.4369992 106.6569978  88.3520014
  35.8499992 107.3289978  89.9220014  34.9389992 107.9169978  90.1670014
  35.8889992 106.3989978  90.5280014  37.1209992 108.1399978  90.0840014
  37.9849992 107.7309978  89.5180014  36.9589992 109.1049978  89.5560014
  37.5009992 108.3859978  91.5080014  37.4439992 107.4819978  92.1500014
  38.5929992 108.5889978  91.5440014  36.8639992 109.6779978  92.0830014
  36.9339992 110.4669978  91.3040014  35.7669992 109.5719978  92.2310014
  37.5109992 110.2679978  93.3780014  38.5289992 110.6179978  93.1040014
  37.0269992 111.2229978  93.6730014  37.3939992 109.3499978  94.6390014
  37.8559992 108.3919978  94.3190014  37.9549992 109.8659978  95.4480014
  35.9879992 108.9469978  95.2440014  35.5749992 109.9609978  95.4300014
  35.4499992 108.2839978  94.5330014  36.1839992 108.1199978  96.5970014
  37.2479992 107.9739978  97.1290014  34.9839992 107.7149978  97.0100014
  35.0089992 107.1729978  98.3010014  35.9329992 107.3649978  98.8870014
  34.2669992 107.7139978  98.9250014  34.6339992 105.6389978  98.2370014
  33.5549992 105.6839978  97.9760014  34.9449992 105.0619978  99.6390014
  34.1239992 105.4449978 100.2830014  34.7309992 103.9739978  99.5730014
  36.3309992 105.2709978  99.9860014  36.6139992 105.6599978 101.4800014
  38.0599992 106.2369978 101.3680014  39.1939992 105.6509978 100.8340014
  38.8129992 104.9629978 100.0490014  39.8169992 106.4179978 100.3260014
  40.1239992 104.9629978 101.9330014  39.5049992 104.2579978 102.4680014
  40.7929992 104.3199978 101.3800014  40.8909992 105.7929978 102.9160014
  41.7829992 106.8869978 102.2490014  42.5959992 106.3939978 101.7390014
  41.1859992 107.4809978 101.5730014  42.1649992 107.4929978 103.0570014
  39.8919992 106.3479978 103.9710014  39.3499992 105.5219978 104.4080014
  40.4659992 106.8549978 104.7330014  39.2109992 107.0519978 103.5150014
  41.8119992 104.8699978 103.6210014  42.5699992 105.4929978 104.0720014
  42.2739992 104.2379978 102.8770014  41.1619992 104.2889978 104.2580014
  35.6629992 106.7039978 101.9240014  36.6889992 104.3889978 102.2250014
  35.4639992 105.0239978  97.2440014  35.2099992 103.7399978  97.0950014
  34.2719992 103.0509978  97.3690014  36.5439992 103.2009978  96.5070014
  36.7719992 103.8099978  95.6060014  36.5039992 102.2169978  95.9930014
  37.6599992 103.1449978  97.6300014  37.2269992 102.4859978  98.4120014
  37.7729992 104.1349978  98.1230014  39.0749992 102.5679978  97.3490014
  38.8199992 101.5099978  97.1280014  39.7689992 102.6159978  98.2160014
  39.8569992 103.2569978  96.2440014  39.4979992 102.9489978  95.2390014
  40.9289992 102.9819978  96.3360014  39.9499992 104.8189978  96.1370014
  40.1529992 105.2129978  97.1550014  38.9769992 105.2379978  95.8040014
  41.0189992 105.2989978  95.1990014  41.9489992 105.0059978  95.7310014
  41.1139992 106.4039978  95.2690014  41.0459992 104.7859978  93.7730014
  41.0289992 103.6759978  93.7360014  42.0049992 105.1109978  93.3170014
  39.9569992 105.5549978  93.0350014  39.9449992 106.6329978  93.2520014
  39.0619992 105.1199978  92.1350014  38.5799992 105.8399978  91.4580014
  38.8769992 103.7159978  91.6410014  38.0559992 103.1709978  92.1540014
  39.7529992 103.0899978  91.9120014  38.5689992 103.5609978  90.1030014
  37.5669992 104.0179978  89.9560014  38.5679992 102.4779978  89.8540014
  39.6759992 104.1989978  89.2390014  40.6809992 104.0259978  89.6790014
  39.5949992 105.3029978  89.3300014  39.7079992 103.7639978  87.7580014
  38.6909992 103.8409978  87.3170014  40.0199992 102.7009978  87.8440014
  40.7909992 104.5379978  87.0190014  41.7639992 104.4119978  87.5400014
  40.5309992 105.6129978  86.9100014  41.0199992 103.9949978  85.5990014
  40.1129992 103.9749978  84.9580014  41.4009992 102.9519978  85.6250014
  41.9809992 104.8509978  84.7810014  42.9429992 105.1099978  85.2740014
  41.5939992 105.8609978  84.5290014  42.3649992 104.2289978  83.3880014
  42.7589992 103.1929978  83.4730014  43.0259992 104.9199978  82.8220014
  41.4039992 104.1859978  82.8320014  27.2269992  73.6979978  85.5570014
  27.3729992  73.2379978  86.5570014  28.1949992  73.9229978  85.0610014
  26.5829992  73.1269978  84.8540014  26.4819992  75.0149978  85.8920014
  25.4409992  74.7979978  86.2120014  27.0239992  75.3509978  86.8010014
  26.4569992  76.0729978  84.8070014  27.5019992  76.3649978  84.5670014
  26.0029992  75.7619978  83.8420014  25.8089992  77.4059978  85.2440014
  25.9539992  78.1699978  84.4500014  24.7189992  77.2099978  85.3290014
  26.2959992  77.9379978  86.6080014  25.7599992  78.8589978  86.9210014
  26.1279992  77.2389978  87.4550014  27.8829992  78.2559978  86.6040014
  28.4699992  77.3179978  86.5090014  28.0249992  78.8769978  85.6940014
  28.3649992  78.9399978  87.9030014  29.4759992  78.9209978  87.8850014
  27.9809992  79.9819978  87.8820014  27.9589992  78.1569978  89.1350014
  26.8979992  78.2869978  89.4400014  28.1009992  77.1379978  88.7150014
  28.9589992  78.4469978  90.2870014  29.9809992  78.1519978  89.9680014
  29.1289992  79.5099978  90.5590014  28.8309992  77.5509978  91.5560014
  27.7529992  77.5059978  91.8190014  29.0649992  76.5029978  91.2710014
  29.7309992  77.9099978  92.7370014  30.4189992  77.1009978  93.0660014
  30.3589992  78.8049978  92.5410014  28.9639992  78.1009978  94.0670014
  28.1849992  78.8889978  93.9880014  28.5109992  77.1869978  94.5070014
  30.0019992  78.6479978  95.1430014  30.7579992  77.9079978  95.4840014
  30.6719992  79.3829978  94.6480014  29.3299992  79.3289978  96.4480014
  29.8049992  80.0559978  97.1420014  28.6099992  80.0119978  95.9480014
  28.4139992  78.3159978  97.1650014  27.8619992  77.6259978  96.4900014
  29.0899992  77.7159978  97.8100014  27.2769992  78.9579978  98.0250014
  27.0439992  80.1259978  98.2350014  26.5259992  77.9009978  98.4030014
  25.6889992  78.1889978  99.4820014  25.4879992  79.2529978  99.7320014
  24.7119992  77.7249978  99.2270014  26.3299992  77.5309978 100.7520014
  25.6349992  77.6659978 101.6080014  27.5379992  78.2349978 101.3140014
  27.2519992  79.3059978 101.3810014  27.7129992  77.8639978 102.3470014
  28.6319992  78.0019978 100.4990014  30.1109992  78.3679978 100.9050014
  30.4249992  77.1409978 101.7970014  30.8659992  75.8499978 101.4440014
  30.2599992  75.4849978 100.5870014  31.9049992  75.9989978 101.0810014
  30.7819992  74.8529978 102.5690014  31.0199992  73.8799978 102.1640014
  31.5499992  74.9269978 103.3250014  29.4439992  74.7279978 103.2520014
  28.3729992  74.4419978 102.2790014  28.5499992  73.5169978 101.7510014
  27.4119992  74.4449978 102.7720014  28.3749992  75.3269978 101.6610014
  29.5149992  73.5719978 104.2110014  30.4819992  73.5759978 104.6920014
  28.7499992  73.7689978 104.9470014  29.2899992  72.6459978 103.7030014
  29.1339992  75.9399978 104.0860014  28.7509992  76.8129978 103.5780014
  30.0989992  76.1789978 104.5080014  28.5259992  75.7169978 104.9510014
  30.9929992  78.4479978  99.7330014  30.0029992  79.5929978 101.7290014
  26.7779992  76.2389978 100.3870014  25.8649992  75.2759978  99.9630014
  24.6699992  75.4689978  99.9700014  26.5399992  74.1399978  99.2860014
  26.5549992  73.2749978  99.9830014  27.6089992  74.3139978  99.0400014
  25.9179992  73.8139978  97.9630014  25.8859992  74.7559978  97.3740014
  24.8899992  73.3919978  97.9840014  26.8889992  72.8319978  97.2200014
  26.9769992  71.8319978  97.6960014  27.9069992  73.2139978  97.4480014
  26.4989992  72.4969978  95.8150014  25.9019992  73.3079978  95.3450014
  25.7539992  71.6759978  95.8840014  27.6529992  72.1749978  94.8560014
  28.1319992  71.1859978  95.0150014  28.3989992  72.9639978  95.0920014
  27.2599992  72.3329978  93.4160014  26.6599992  73.2559978  93.2650014
  26.7679992  71.3809978  93.1220014  28.5519992  72.3679978  92.5690014
  28.1619992  72.3659978  91.5290014  29.2129992  71.4759978  92.6210014
  29.3609992  73.6199978  92.7200014  29.0779992  74.2139978  93.6010014
  30.4539992  73.9129978  91.9900014  30.9759992  74.8719978  92.1220014
  30.9599992  73.0819978  90.8910014  30.3139992  72.2299978  90.5880014
  31.9169992  72.6199978  91.2140014  31.3239992  74.0519978  89.6450014
  30.3519992  74.3789978  89.2190014  31.6989992  73.3499978  88.8690014
  32.1469992  75.2179978  89.8570014  33.1249992  74.7399978  90.0780014
  31.8689992  75.7819978  90.7720014  32.4059992  76.1499978  88.6250014
  33.5099992  76.2159978  88.5220014  32.0089992  77.1469978  88.9170014
  31.5899992  75.6219978  87.4200014  30.5149992  75.8909978  87.4950014
  31.7799992  74.5449978  87.2240014  32.0189992  76.1659978  86.0960014
  33.0549992  75.7929978  85.9480014  31.9339992  77.2729978  86.1430014
  31.2279992  75.5559978  84.9220014  30.1309992  75.6139978  85.0890014
  31.4599992  74.4689978  84.9380014  31.6159992  76.0919978  83.5250014
  32.6929992  75.8229978  83.4820014  31.5229992  77.1549978  83.2160014
  31.0469992  75.5219978  82.7590014  31.3989992  67.2559978  84.2860014
  30.7939992  66.3409978  84.4630014  30.9349992  67.5589978  83.3230014
  31.1699992  68.0059978  85.0730014  32.8579992  66.8849978  84.1700014
  33.0849992  66.1749978  83.3460014  33.4979992  67.7699978  83.9670014
  33.5029992  66.1949978  85.3810014  32.8459992  65.3179978  85.5650014
  34.5559992  65.9959978  85.0880014  33.3509992  66.9699978  86.6630014
  34.0039992  67.8559978  86.5100014  32.3049992  67.2959978  86.8490014
  33.7949992  66.2249978  87.9110014  33.2999992  65.2309978  87.9360014
  34.8859992  66.0169978  87.8970014  33.5969992  67.0299978  89.1740014
  34.1589992  67.9789978  89.0420014  32.5129992  67.2539978  89.2690014
  34.0379992  66.2829978  90.4420014  35.0559992  65.8409978  90.4010014
  34.0239992  67.0319978  91.2620014  33.2429992  65.0489978  90.7630014
  33.3649992  64.2799978  89.9710014  33.7139992  64.5159978  91.6160014
  31.7769992  65.2859978  90.9100014  31.5619992  66.0449978  91.6920014
  31.4559992  65.7039978  89.9320014  30.9939992  63.9969978  91.3450014
  31.0109992  63.3599978  90.4350014  31.4919992  63.4769978  92.1910014
  29.5279992  64.2809978  91.7030014  29.0019992  64.9279978  90.9680014
  28.8489992  63.4019978  91.7470014  29.3579992  65.1089978  93.0100014
  29.8729992  66.0829978  92.8660014  28.2879992  65.0549978  93.3050014
  30.1639992  64.5859978  94.2300014  29.4029992  64.7559978  95.0210014
  30.2549992  63.4809978  94.1570014  31.5369992  65.2069978  94.6610014
  32.2609992  65.0329978  93.8370014  31.3169992  66.2959978  94.6390014
  32.0149992  64.7109978  95.9410014  31.2199992  64.7129978  96.7170014
  32.4969992  63.7339978  95.7230014  33.1499992  65.6319978  96.4930014
  33.8019992  66.4199978  95.7970014  33.2699992  65.4289978  97.8380014
  34.3129992  66.1669978  98.5100014  34.7139992  65.5529978  99.3440014
  35.2029992  66.4079978  97.8900014  33.8059992  67.5359978  99.0460014
  34.5659992  68.0389978  99.6810014  32.6789992  67.4189978 100.1540014
  33.1569992  66.7499978 100.9010014  32.3739992  68.3769978 100.6270014
  31.4519992  66.9659978  99.5220014  30.4449992  66.2519978 100.4000014
  30.4159992  67.1069978 101.6850014  29.8349992  68.3919978 101.8410014
  30.1219992  69.1949978 101.1280014  28.7269992  68.3219978 101.8060014
  30.0499992  68.9429978 103.3200014  29.3959992  69.7509978 103.6110014
  29.7069992  68.1729978 103.9960014  31.5009992  69.2199978 103.7230014
  32.3339992  67.9439978 103.7410014  33.3679992  68.2479978 103.8170014
  32.0029992  67.3369978 104.5700014  32.1909992  67.4329978 102.8000014
  31.9409992  70.2839978 102.6660014  31.3049992  71.1349978 102.8570014
  32.9719992  70.5249978 102.8780014  31.7959992  69.9199978 101.6600014
  31.4919992  69.8809978 105.0340014  31.0489992  69.2019978 105.7470014
  31.0479992  70.8589978 104.9200014  32.5049992  70.0719978 105.3560014
  29.0969992  66.4279978  99.8210014  30.8139992  64.8409978 100.7550014
  33.2749992  68.2729978  97.9600014  32.8129992  69.5579978  98.1250014
  33.0179992  70.3219978  99.0040014  31.8749992  69.8999978  96.9830014
  32.4129992  69.6899978  96.0330014  31.7219992  70.9999978  96.9560014
  30.5919992  69.1679978  97.1400014  30.2379992  69.2879978  98.1860014
  30.8709992  68.1049978  96.9760014  29.5299992  69.4849978  96.0800014
  30.0159992  69.2259978  95.1150014  29.4219992  70.5889978  96.0280014
  28.2759992  68.7209978  96.2450014  27.6039992  69.2209978  96.9750014
  28.6119992  67.7849978  96.7390014  27.4959992  68.3809978  94.9870014
  26.4589992  67.9849978  94.9410014  28.0869992  67.5319978  94.5830014
  27.4609992  69.6719978  94.1710014  28.4889992  70.0719978  94.0320014
  26.7499992  70.4159978  94.5870014  26.9149992  69.4199978  92.7040014
  26.6999992  70.4299978  92.2950014  25.9039992  68.9609978  92.7350014
  27.8759992  68.6449978  91.8400014  27.6479992  67.5689978  91.8300014
  28.9979992  69.1689978  91.1760014  29.7269992  68.4369978  90.7980014
  29.4059992  70.5749978  91.1530014  30.4759992  70.7769978  91.3710014
  28.8179992  71.0979978  91.9370014  29.1019992  71.3429978  89.8160014
  29.4379992  72.3609978  90.1080014  28.0059992  71.3129978  89.6320014
  29.6909992  70.8499978  88.4900014  29.5629992  69.7549978  88.3530014
  30.7999992  70.8739978  88.5420014  29.0509992  71.6909978  87.4220014
  28.9189992  72.7209978  87.8170014  28.0179992  71.3219978  87.2430014
  29.9309992  71.8229978  86.1150014  30.2499992  70.7899978  85.8580014
  30.8909992  72.3589978  86.2760014  29.1719992  72.5439978  84.9830014
  29.8509992  73.3639978  84.6660014  28.2489992  73.0489978  85.3380014
  28.7029992  71.7179978  83.7850014  28.2889992  72.4449978  83.0530014
  27.8829992  71.0549978  84.1340014  29.7369992  70.9589978  83.0110014
  30.4019992  71.5609978  82.3540014  29.2849992  70.2099978  82.3260014
  30.3089992  70.2849978  83.6840014  44.5189992 113.0559978  81.6790014
  43.9989992 113.6109978  80.8700014  45.1969992 112.2679978  81.2870014
  44.9759992 113.7479978  82.4190014  43.3669992 112.2499978  82.3730014
  42.5699992 112.9859978  82.6110014  42.9829992 111.5309978  81.6170014
  43.7419992 111.3979978  83.6810014  44.4279992 110.6489978  83.2320014
  44.2889992 112.0889978  84.3580014  42.5289992 110.8879978  84.4800014
  41.9249992 111.7459978  84.8480014  41.9099992 110.2799978  83.7860014
  43.0119992 110.0629978  85.6680014  43.4199992 110.7719978  86.4200014
  42.1589992 109.6289978  86.2300014  43.9309992 108.8749978  85.4740014
  43.5209992 108.0999978  84.7910014  44.9179992 109.1559978  85.0510014
  44.1609992 108.0639978  86.7680014  43.1969992 107.8879978  87.2920014
  44.5479992 107.1249978  86.3180014  45.2979992 108.5579978  87.8370014
  46.1649992 108.9109978  87.2390014  44.9079992 109.4219978  88.4170014
  45.6929992 107.3989978  88.8370014  44.7179992 107.0369978  89.2290014
  46.0689992 106.5769978  88.1900014  46.7409992 107.7159978  89.8410014
  47.1609992 106.7569978  90.2130014  47.5489992 108.3029978  89.3540014
  46.2399992 108.5809978  90.9980014  47.0669992 109.0879978  91.5410014
  45.6309992 109.4169978  90.5910014  45.4429992 107.7429978  92.0370014
  44.4619992 107.4389978  91.6130014  45.9979992 106.8469978  92.3870014
  45.1559992 108.4359978  93.4130014  44.5949992 109.3749978  93.2190014
  44.4769992 107.7719978  93.9910014  46.4159992 108.6929978  94.2290014
  47.3279992 108.1709978  93.8670014  46.6539992 109.7669978  94.0750014
  46.2319992 108.3129978  95.7550014  45.3729992 108.8949978  96.1520014
  45.8289992 107.3079978  96.0040014  47.4389992 108.5039978  96.6940014
  48.6249992 108.5149978  96.4500014  46.8609992 108.8549978  97.9480014
  47.8439992 109.0579978  99.0400014  47.4759992 108.5249978  99.9430014
  48.8729992 108.7619978  98.7440014  47.7699992 110.6099978  99.2060014
  48.3909992 110.9969978 100.0420014  46.2679992 110.9989978  99.4970014
  45.5379992 110.6129978  98.7530014  45.9299992 110.3389978 100.3250014
  46.0519992 112.3319978  99.7790014  44.6289992 112.7819978 100.4440014
  44.8269992 112.4999978 101.9190014  46.0959992 112.9099978 102.5320014
  46.9399992 113.0829978 101.8310014  45.8909992 113.8949978 103.0020014
  46.5159992 111.9839978 103.6780014  47.5149992 112.3439978 103.8770014
  45.9019992 112.1869978 104.5420014  46.5829992 110.4429978 103.5160014
  45.2959992 109.9619978 102.9500014  45.5279992 109.0189978 102.4770014
  44.5539992 109.8669978 103.7280014  44.9909992 110.6489978 102.1750014
  47.7239992 110.0129978 102.6840014  47.7469992 108.9399978 102.8020014
  47.5829992 110.1599978 101.6230014  48.6139992 110.4389978 103.1220014
  46.7689992 109.8649978 104.9180014  46.8149992 108.7939978 104.7880014
  45.9089992 110.1269978 105.5160014  47.6039992 110.3729978 105.3760014
  44.4409992 114.2219978 100.1440014  43.6099992 111.8309978  99.9420014
  48.2419992 111.1359978  97.9480014  48.4899992 112.4669978  97.9240014
  48.5639992 113.2049978  98.8980014  48.7559992 112.9379978  96.4250014
  49.7479992 112.5689978  96.0890014  48.7079992 114.0469978  96.3730014
  47.8049992 112.2799978  95.4650014  46.8159992 112.3729978  95.9620014
  47.9949992 111.1889978  95.3770014  47.8579992 113.1589978  94.2010014
  47.7529992 114.2439978  94.4190014  46.9009992 112.7939978  93.7700014
  48.9769992 112.7349978  93.1550014  48.8859992 111.6279978  93.1740014
  50.0019992 112.8469978  93.5690014  48.7999992 113.2049978  91.7350014
  48.9709992 114.2979978  91.6370014  47.8079992 112.9889978  91.2830014
  49.8629992 112.6299978  90.8230014  49.7159992 111.5289978  90.7870014
  50.8559992 112.6689978  91.3200014  50.0279992 113.1979978  89.3470014
  50.8969992 112.7389978  88.8300014  50.3749992 114.2369978  89.5320014
  48.8099992 113.4389978  88.4800014  48.3429992 114.4209978  88.3160014
  48.3089992 112.5649978  87.5910014  47.4639992 113.0109978  87.0460014
  48.7599992 111.1679978  87.2010014  48.0029992 110.4679978  87.6150014
  49.8199992 110.9719978  87.4710014  48.6619992 111.0499978  85.7010014
  47.7329992 111.4529978  85.2440014  48.6969992 109.9549978  85.5150014
  49.8279992 111.6159978  84.9100014  49.6359992 111.3219978  83.8560014
  50.7599992 111.1049978  85.2330014  49.9689992 113.2019978  84.9100014
  50.6919992 113.4549978  85.7150014  49.0369992 113.7279978  85.2060014
  50.6179992 113.7369978  83.6470014  49.9409992 113.8159978  82.7690014
  51.4609992 113.1069978  83.2920014  51.2869992 115.1149978  83.7850014
  51.5599992 115.5689978  82.8090014  52.2629992 114.9879978  84.3000014
  50.5849992 116.1149978  84.6720014  51.1649992 117.0619978  84.6480014
  50.5729992 115.6749978  85.6920014  49.1789992 116.4149978  84.2680014
  49.1219992 117.0589978  83.3640014  48.5259992 116.9169978  85.0140014
  48.6329992 115.5319978  83.8740014 129.7299992  78.8289978  85.0750014
 128.9839992  78.1439978  84.6170014 130.5869992  78.1719978  85.3330014
 130.0649992  79.5299978  84.2810014 129.2819992  79.6159978  86.2770014
 128.9879992  78.9929978  87.1500014 130.0939992  80.3029978  86.5980014
 128.0099992  80.3969978  86.0270014 128.0299992  80.8509978  85.0140014
 127.2389992  79.6149978  85.8550014 127.5039992  81.3529978  87.1930014
 126.4159992  81.5729978  87.2450014 127.8599992  80.8099978  88.0940014
 128.1889992  82.7509978  87.1140014 129.2839992  82.5969978  87.0130014
 127.9039992  83.3149978  86.2000014 127.9439992  83.6569978  88.2930014
 128.0189992  84.7309978  88.0190014 126.8579992  83.5039978  88.4680014
 128.7539992  83.3029978  89.4600014 128.6389992  82.2669978  89.8440014
 129.7919992  83.5089978  89.1200014 128.4219992  84.1269978  90.7580014
 129.1349992  83.8489978  91.5640014 128.5319992  85.2139978  90.5580014
 126.9589992  83.8509978  91.1610014 126.3009992  84.2309978  90.3500014
 126.8939992  82.7419978  91.1680014 126.4219992  84.4929978  92.4200014
 126.7059992  85.5489978  92.6120014 125.3129992  84.4669978  92.3550014
 126.8379992  83.6049978  93.7160014 126.5149992  82.5609978  93.5190014
 127.9409992  83.7329978  93.7510014 126.1829992  84.1149978  94.9480014
 126.8289992  83.9179978  95.8300014 126.2249992  85.2069978  94.7460014
 124.6769992  83.6909978  95.1750014 124.1929992  84.2879978  95.9770014
 124.1899992  83.9519978  94.2110014 124.4069992  82.1889978  95.6120014
 123.3169992  82.0749978  95.4320014 125.0449992  81.4919978  95.0270014
 124.5549992  81.8939978  97.0950014 125.6189992  81.7849978  97.3970014
 124.1229992  82.6209978  97.8160014 123.9359992  80.4709978  97.3440014
 122.8509992  80.1009978  96.8160014 124.7039992  79.9199978  98.2710014
 124.3709992  78.5569978  98.6640014 123.6309992  78.6589978  99.4870014
 123.9569992  78.0639978  97.7590014 125.6189992  77.8049978  99.0830014
 125.3289992  76.7669978  99.3500014 126.2139992  78.4939978 100.3180014
 125.3389992  78.8949978 100.8740014 126.7969992  77.8599978 101.0200014
 127.0919992  79.4649978  99.7870014 127.4279992  80.9369978 100.3520014
 126.2169992  81.0939978 101.3200014 126.5099992  80.9449978 102.6660014
 125.5159992  80.7979978 103.1400014 127.1199992  80.0479978 102.9060014
 127.2109992  82.1369978 103.4510014 127.3909992  81.7759978 104.4530014
 128.0889992  82.3279978 102.8520014 126.3319992  83.3929978 103.6270014
 124.8739992  83.1369978 104.0050014 124.5049992  82.3299978 103.3890014
 124.8129992  82.9339978 105.0640014 124.3229992  84.0499978 103.8320014
 126.9709992  84.3579978 104.5700014 126.5599992  85.3469978 104.4350014
 126.8389992  83.9229978 105.5500014 128.0359992  84.3589978 104.3900014
 126.2759992  84.1239978 102.3420014 127.3259992  84.3089978 102.1670014
 125.6839992  85.0269978 102.3570014 125.9599992  83.4729978 101.5400014
 128.6609992  80.8759978 101.1810014 127.3879992  81.8699978  99.2050014
 126.4709992  77.6749978  97.9300014 127.5429992  76.9919978  98.0420014
 128.0699992  76.5999978  99.0800014 128.2499992  76.7999978  96.6810014
 128.3899992  75.7009978  96.5960014 129.2899992  77.1899978  96.7170014
 127.5589992  77.5169978  95.5050014 128.0079992  78.5319978  95.5500014
 126.4869992  77.7319978  95.7060014 127.6539992  76.6659978  94.2040014
 126.9339992  75.8199978  94.2090014 128.6869992  76.2569978  94.1730014
 127.2829992  77.5829978  93.0660014 128.1299992  77.4379978  92.3620014
 127.4579992  78.6329978  93.3820014 125.9619992  77.4039978  92.3440014
 125.0789992  77.5619978  92.9990014 125.8079992  76.3229978  92.1370014
 125.6839992  78.2099978  91.0560014 126.3439992  77.7969978  90.2630014
 125.7749992  79.2719978  91.3690014 124.2329992  78.1009978  90.4910014
 124.1849992  77.0089978  90.2910014 124.2789992  78.7349978  89.5790014
 123.2859992  78.6299978  91.5290014 122.8309992  77.8979978  92.2120014
 122.8739992  79.8829978  91.6100014 122.2429992  80.1699978  92.4630014
 123.2419992  81.0499978  90.7100014 124.1469992  80.8409978  90.1000014
 123.4429992  81.9789978  91.2840014 122.1249992  81.5149978  89.7920014
 121.1629992  81.6999978  90.3170014 121.8849992  80.6899978  89.0870014
 122.5109992  82.7209978  88.9700014 123.3549992  83.2419978  89.4700014
 121.6269992  83.3939978  88.9910014 123.0179992  82.5029978  87.5300014
 122.2079992  81.9099978  87.0550014 123.9599992  81.9139978  87.5540014
 123.2749992  83.8349978  86.7900014 124.2119992  84.2919978  87.1730014
 122.4139992  84.5049978  87.0010014 123.3019992  83.7409978  85.2310014
 123.2909992  84.7779978  84.8340014 122.4179992  83.1719978  84.8710014
 124.4439992  82.7859978  84.7260014 124.0549992  81.7799978  84.9930014
 125.3299992  83.0919978  85.3240014 124.7799992  82.8049978  83.2250014
 123.9299992  82.9739978  82.5310014 125.3529992  81.8939978  82.9510014
 125.5329992  83.6149978  83.1140014  63.0649992 120.1949978  85.5060014
  64.0409992 120.2199978  86.0360014  62.3059992 120.4209978  86.2850014
  63.0269992 121.0799978  84.8360014  62.9259992 118.8089978  84.8120014
  62.0399992 118.8179978  84.1420014  63.8439992 118.6679978  84.2020014
  62.9659992 117.6289978  85.8120014  63.9249992 117.6339978  86.3720014
  62.2379992 117.9509978  86.5870014  62.7739992 116.3649978  85.0690014
  61.7119992 116.3149978  84.7450014  63.4799992 116.4409978  84.2150014
  63.2209992 115.0559978  85.7870014  63.2969992 114.2299978  85.0480014
  64.2019992 115.1929978  86.2910014  62.1999992 114.5439978  86.8010014
  62.1159992 115.3159978  87.5960014  61.2239992 114.5759978  86.2710014
  62.6709992 113.1849978  87.5010014  63.0419992 112.5149978  86.6950014
  63.5509992 113.4869978  88.1080014  61.6329992 112.7219978  88.4750014
  60.8899992 112.0619978  87.9780014  62.2039992 111.9689978  89.0580014
  61.1039992 113.7629978  89.4810014  61.8889992 114.5399978  89.5970014
  60.1559992 114.2509978  89.1680014  60.7809992 113.0389978  90.7880014
  60.2679992 112.0619978  90.6540014  61.8099992 112.8249978  91.1490014
  59.9769992 113.8929978  91.7600014  60.5009992 114.8309978  92.0430014
  58.9929992 114.1109978  91.2940014  59.4699992 113.2409978  93.1000014
  59.0149992 114.1019978  93.6340014  58.6449992 112.5439978  92.8390014
  60.4299992 112.4479978  94.0420014  59.8929992 111.8379978  94.7980014
  60.8849992 111.6089978  93.4730014  61.5189992 113.4349978  94.7120014
  62.4779992 113.0119978  95.0810014  61.7429992 114.0839978  93.8380014
  60.9599992 114.3129978  95.8050014  60.0029992 114.7959978  95.5100014
  60.6349992 113.7249978  96.6900014  61.9689992 115.3029978  96.1280014
  63.1159992 115.3179978  95.6630014  61.4149992 116.3419978  96.8500014
  62.2599992 117.4189978  97.1890014  63.3019992 117.0559978  97.3160014
  62.1599992 118.1289978  96.3410014  61.8809992 118.1059978  98.5260014
  62.4429992 119.0589978  98.6300014  62.3519992 117.2679978  99.7670014
  63.4559992 117.2409978  99.6460014  62.0789992 117.8089978 100.6990014
  61.8739992 115.9839978  99.8430014  62.3059992 115.0909978 101.0660014
  61.0899992 115.3279978 102.1270014  59.7339992 115.1479978 101.6520014
  59.6709992 114.7219978 100.6280014  59.2319992 114.3299978 102.2120014
  59.0329992 116.5179978 101.8410014  59.5679992 117.1789978 101.1760014
  58.0399992 116.4019978 101.4330014  58.8519992 117.2629978 103.1060014
  60.1399992 117.7619978 103.6770014  59.9849992 118.4529978 104.4930014
  60.6599992 116.8859978 104.0340014  60.7969992 118.1999978 102.9400014
  58.0079992 118.4609978 102.8380014  58.3499992 118.9349978 101.9290014
  56.9819992 118.1719978 102.6630014  58.0819992 119.1939978 103.6270014
  58.1089992 116.2979978 104.1180014  58.5439992 116.4029978 105.1010014
  58.3119992 115.2589978 103.9010014  57.0559992 116.5259978 104.1860014
  62.0969992 113.7019978 100.5980014  63.5939992 115.5269978 101.6390014
  60.4959992 118.3979978  98.4400014  60.0389992 119.2839978  99.2220014
  60.7289992 120.0919978  99.8450014  58.5039992 119.2329978  99.1740014
  58.2369992 120.3019978  99.3150014  58.1339992 118.5289978  99.9500014
  58.0029992 118.8019978  97.7840014  58.2039992 117.7439978  97.5110014
  58.3969992 119.4859978  97.0020014  56.4579992 118.9849978  97.5920014
  56.1889992 120.0539978  97.4540014  55.8349992 118.5479978  98.4020014
  55.8669992 118.2629978  96.3010014  54.7629992 118.2239978  96.1820014
  56.2179992 117.2099978  96.3450014  56.5189992 118.7299978  94.9910014
  57.5479992 118.3529978  95.1770014  56.5449992 119.8369978  94.9020014
  55.8439992 118.0619978  93.7940014  54.8459992 118.5439978  93.7210014
  55.5869992 117.0239978  94.0940014  56.5909992 118.2749978  92.4870014
  55.8939992 117.7539978  91.7960014  57.5959992 117.8029978  92.4770014
  56.8579992 119.6909978  92.0910014  57.4639992 120.1739978  92.8720014
  56.3829992 120.3769978  91.0310014  56.7759992 121.3679978  90.7600014
  55.4239992 119.9149978  89.9130014  54.7539992 120.7719978  89.6870014
  54.7339992 119.1459978  90.3210014  56.1139992 119.5539978  88.5570014
  56.6009992 120.4649978  88.1470014  55.3189992 119.0959978  87.9290014
  57.2499992 118.4439978  88.7480014  56.6769992 117.5119978  88.9420014
  57.8949992 118.5719978  89.6430014  58.0809992 118.0649978  87.3880014
  58.5869992 117.0839978  87.5090014  58.7659992 118.8649978  87.0320014
  57.2369992 117.7519978  86.1550014  56.5499992 118.5949978  85.9250014
  56.4899992 116.9509978  86.3410014  57.9939992 117.3849978  84.8630014
  58.6829992 116.5839978  85.2060014  58.5589992 118.2739978  84.5090014
  56.9569992 116.9169978  83.8370014  56.2019992 117.7229978  83.7160014
  56.3439992 116.1359978  84.3350014  57.4459992 116.4879978  82.4570014
  56.5669992 116.1799978  81.8510014  58.0839992 115.5979978  82.6430014
  57.8759992 117.3999978  81.9890014 110.5229992 110.0029978  84.1470014
 109.8889992 110.3699978  83.3120014 110.1779992 109.1019978  84.6970014
 111.3689992 109.6489978  83.5200014 110.8589992 111.1759978  85.0520014
 111.1349992 112.0179978  84.3820014 109.8799992 111.5419978  85.4300014
 111.7949992 110.8739978  86.1790014 111.3689992 110.0499978  86.7900014
 112.7569992 110.5939978  85.6990014 112.2299992 112.1659978  86.9340014
 112.4249992 112.8469978  86.0780014 111.4159992 112.7329978  87.4340014
 113.3779992 111.9829978  88.0020014 114.3599992 111.7719978  87.5260014
 113.5199992 112.9829978  88.4650014 112.8429992 111.0149978  89.1630014
 112.8339992 111.6209978  90.0940014 111.8169992 110.6439978  88.9530014
 113.7599992 109.9659978  89.5100014 113.9109992 109.2959978  88.6370014
 114.7859992 110.3339978  89.7230014 113.3719992 108.9179978  90.6630014
 112.5389992 108.2969978  90.2700014 114.2969992 108.3239978  90.8250014
 112.8789992 109.4849978  92.0500014 111.8589992 109.8489978  91.8020014
 112.5539992 108.6559978  92.7150014 113.8629992 110.4639978  92.6510014
 114.7879992 110.0089978  93.0640014 114.0789992 111.2809978  91.9300014
 113.1799992 111.1189978  93.9020014 113.9219992 111.8189978  94.3420014
 112.3309992 111.7339978  93.5340014 112.6489992 110.1239978  94.9260014
 111.7479992 109.7229978  94.4140014 113.3289992 109.2689978  95.1260014
 112.1539992 110.5569978  96.3430014 111.6939992 109.6669978  96.8240014
 113.0639992 110.8159978  96.9250014 111.2729992 111.8169978  96.3880014
 111.7749992 112.6609978  95.8680014 110.3159992 111.6509978  95.8500014
 111.0429992 112.2089978  97.8440014 110.6309992 111.3739978  98.4500014
 111.9209992 112.7089978  98.3040014 109.9079992 113.2659978  98.0750014
 109.6479992 113.9919978  97.1110014 109.3099992 113.1409978  99.2010014
 108.1329992 113.8939978  99.3100014 108.3119992 114.8599978  99.8280014
 107.6429992 113.9189978  98.3130014 107.0129992 113.1959978 100.2470014
 106.0629992 113.7719978 100.2310014 107.4929992 113.0569978 101.7460014
 107.8209992 114.0839978 102.0170014 106.6679992 112.8099978 102.4470014
 108.5609992 112.0989978 101.8710014 109.7959992 112.3559978 102.8440014
 110.8539992 111.1319978 102.6710014 110.2849992 109.8899978 102.3650014
 109.5069992 109.5479978 103.0810014 109.8299992 109.8549978 101.3520014
 111.4429992 108.7819978 102.3090014 111.9349992 108.7939978 103.2710014
 110.8779992 107.8659978 102.2250014 112.4779992 108.8889978 101.1570014
 111.7569992 109.1509978  99.8670014 110.9669992 108.4199978  99.9570014
 111.3339992 110.1429978  99.9130014 112.4529992 109.0649978  99.0450014
 113.3929992 110.0729978 101.5720014 112.8159992 110.9759978 101.7030014
 113.9329992 109.8509978 102.4800014 114.0949992 110.1739978 100.7570014
 113.2759992 107.6299978 101.1510014 113.9959992 107.6049978 100.3470014
 112.6829992 106.7329978 101.0620014 113.8169992 107.7189978 102.0820014
 110.5079992 113.5659978 102.4610014 109.2809992 112.2469978 104.2380014
 106.7799992 111.8859978  99.7300014 106.1389992 111.7599978  98.6180014
 105.7369992 112.6549978  97.8940014 106.0719992 110.3049978  98.2960014
 105.8009992 110.2259978  97.2210014 105.3189992 109.7969978  98.9360014
 107.3989992 109.5739978  98.6770014 107.6209992 109.5779978  99.7660014
 108.2339992 110.1549978  98.2310014 107.5239992 108.0649978  98.1020014
 106.5269992 107.7149978  97.7610014 107.8499992 107.3809978  98.9150014
 108.4189992 107.9309978  96.8460014 108.6559992 106.8669978  96.6310014
 109.3859992 108.4129978  97.1040014 107.8139992 108.5629978  95.6020014
 107.7669992 109.6649978  95.7280014 106.7349992 108.2949978  95.5940014
 108.6889992 108.5019978  94.3460014 108.7689992 107.4219978  94.1000014
 109.6719992 108.9979978  94.4910014 108.1989992 109.2519978  93.0700014
 107.3999992 108.5659978  92.7190014 109.0179992 109.3149978  92.3220014
 107.5519992 110.5629978  93.3150014 106.4949992 110.5769978  93.6180014
 108.1449992 111.7259978  93.2360014 107.6459992 112.6949978  93.3860014
 109.6219992 111.9679978  92.8330014 110.2289992 111.1369978  93.2520014
 110.0439992 112.8099978  93.4220014 109.8779992 112.2829978  91.3270014
 109.7069992 111.3549978  90.7400014 110.9529992 112.5369978  91.2150014
 108.9779992 113.4799978  90.9690014 109.1599992 114.2859978  91.7130014
 107.8889992 113.3259978  91.1220014 109.0619992 113.9099978  89.4760014
 110.1119992 114.1539978  89.2090014 108.4689992 114.8429978  89.3680014
 108.4169992 112.8469978  88.5410014 107.6189992 112.2839978  89.0710014
 109.1959992 112.1259978  88.2110014 107.8289992 113.4159978  87.3850014
 108.5929992 113.8309978  86.6930014 107.0429992 114.1619978  87.6310014
 107.1439992 112.2939978  86.5350014 106.2099992 111.9569978  87.0320014
 107.7819992 111.3969978  86.3840014 106.8879992 112.7599978  85.0910014
 106.3249992 111.9469978  84.5830014 107.8769992 113.0799978  84.6990014
 106.2009992 113.6329978  85.1180014 101.3759992  22.5089978  83.2510014
 100.8029992  22.3069978  82.3210014 100.6319992  22.4239978  84.0720014
 102.0719992  21.6699978  83.4650014 102.0319992  23.8589978  83.1220014
 102.7199992  23.9049978  82.2500014 101.3419992  24.6979978  82.8910014
 102.8579992  24.1619978  84.3410014 103.6519992  23.4129978  84.5490014
 103.4069992  25.0999978  84.1120014 101.9199992  24.4709978  85.5360014
 101.2349992  25.3039978  85.2700014 101.4489992  23.5529978  85.9480014
 102.8489992  24.8949978  86.7220014 103.5009992  24.0099978  86.8880014
 103.3829992  25.8469978  86.5130014 101.9389992  25.0819978  87.9910014
 101.1389992  25.8009978  87.7130014 101.6279992  24.0329978  88.1820014
 102.6579992  25.7139978  89.1710014 103.5629992  25.0839978  89.3020014
 103.0319992  26.7259978  88.9050014 101.8519992  25.6719978  90.4340014
 101.3639992  24.6749978  90.4670014 102.6419992  25.6719978  91.2150014
 100.9509992  26.8809978  90.7540014 101.5639992  27.8069978  90.7850014
 100.2359992  26.9099978  89.9040014 100.1469992  26.8919978  92.0730014
  99.5799992  27.8369978  92.2120014  99.4379992  26.0379978  92.1210014
 101.0769992  26.8819978  93.3740014 101.6349992  25.9249978  93.4590014
 101.8599992  27.6409978  93.1610014 100.2889992  26.9689978  94.6700014
 101.0289992  26.8909978  95.4960014  99.8839992  27.9959978  94.7970014
  99.1729992  25.9409978  94.7640014  98.2729992  26.1029978  94.1330014
  99.6469992  24.9499978  94.6000014  98.7909992  25.8659978  96.2580014
  99.6749992  25.8449978  96.9320014  98.1759992  26.7749978  96.4290014
  97.9139992  24.7589978  96.7060014  96.9109992  24.8459978  96.2360014
  98.5639992  23.8999978  96.4310014  97.7599992  24.7669978  98.2850014
  97.6339992  25.7519978  99.0020014  97.5089992  23.5359978  98.6170014
  96.6699992  23.2589978  99.7150014  96.5749992  24.0109978 100.5270014
  95.6439992  23.0089978  99.3720014  97.2749992  22.1059978 100.5060014
  96.6059992  21.5599978 101.2050014  98.4289992  22.6029978 101.4300014
  98.7819992  23.5729978 101.0200014  98.0509992  22.8889978 102.4340014
  99.5529992  21.8099978 101.4690014 100.8159992  22.0169978 102.4080014
 101.2339992  23.4579978 102.2620014 101.8719992  23.8979978 101.0290014
 101.4199992  23.4439978 100.1210014 101.7529992  25.0029978 101.0160014
 103.3669992  23.6799978 101.0510014 103.5549992  22.6459978 101.2960014
 103.6999992  23.8659978 100.0410014 104.1319992  24.6899978 101.9260014
 105.6139992  24.5079978 101.8670014 106.2409992  25.1479978 102.4710014
 105.8219992  23.5379978 102.2950014 105.8939992  24.6529978 100.8340014
 103.9439992  26.0579978 101.3180014 104.7909992  26.5479978 101.7740014
 104.1029992  25.9309978 100.2570014 103.0769992  26.6309978 101.6110014
 103.6439992  24.5039978 103.3850014 102.5699992  24.6169978 103.3500014
 104.0759992  25.1899978 104.0990014 103.8119992  23.4789978 103.6820014
 100.2549992  22.0009978 103.7490014 101.8919992  21.0729978 102.0410014
  97.7399992  21.1699978  99.5640014  98.1619992  19.9319978  99.8520014
  97.8109992  19.3209978 100.8470014  99.1729992  19.3289978  98.7470014
  98.6739992  19.5859978  97.7880014  99.1679992  18.2199978  98.8010014
 100.4519992  20.0559978  98.7890014 101.1199992  19.5179978  99.4940014
 100.3459992  21.0969978  99.1630014 101.0059992  20.2469978  97.4340014
 101.1409992  19.3389978  96.8080014 102.0499992  20.5789978  97.6190014
 100.3289992  21.3539978  96.6010014 100.2039992  22.2989978  97.1710014
  99.3189992  20.9619978  96.3530014 100.9739992  21.6379978  95.2630014
 100.2839992  22.2579978  94.6520014 100.8779992  20.6209978  94.8260014
 102.3649992  22.3559978  95.3780014 102.9159992  21.7919978  96.1600014
 102.3479992  23.4269978  95.6710014 103.1639992  22.1529978  94.0380014
 103.9519992  22.9319978  94.1190014 102.5639992  22.6799978  93.2650014
 103.5959992  20.8349978  93.6270014 104.0849992  20.3349978  94.4770014
 103.4259992  20.0719978  92.5120014 103.9619992  19.1109978  92.5330014
 102.6409992  20.5079978  91.2640014 103.1389992  20.0349978  90.3910014
 102.5429992  21.5799978  90.9880014 101.1539992  19.9599978  91.3550014
 100.8369992  20.4349978  92.3080014 101.2899992  18.8579978  91.3950014
 100.1509992  20.2339978  90.3450014  99.2019992  19.8839978  90.8040014
 100.2869992  19.5049978  89.5180014  99.9539992  21.7129978  89.8900014
 100.8449992  22.1239978  89.3690014  99.8809992  22.1899978  90.8910014
  98.7739992  21.9899978  88.9010014  97.9659992  21.2399978  89.0400014
  99.0519992  21.7359978  87.8560014  98.2079992  23.4129978  89.0460014
  99.0779992  24.0759978  88.8530014  97.9229992  23.5429978  90.1120014
  97.0749992  23.7479978  88.0380014  96.6899992  24.7029978  88.4560014
  96.1949992  23.0729978  88.1030014  97.2789992  24.1439978  86.5200014
  98.1779992  24.7739978  86.3480014  96.3959992  24.7499978  86.2260014
  97.2919992  23.2059978  85.9250014  30.5389992  97.9219978  83.9970014
  31.4929992  98.4509978  83.7840014  29.6789992  98.5549978  83.6900014
  30.6139992  97.0829978  83.2730014  30.5489992  97.0799978  85.3030014
  29.5999992  96.5069978  85.3610014  31.4019992  96.3689978  85.2670014
  30.6979992  97.9349978  86.5670014  30.7089992  97.2609978  87.4510014
  31.6679992  98.4759978  86.5720014  29.4459992  98.9269978  86.8070014
  29.4089992  99.7279978  86.0380014  28.4279992  98.4919978  86.7090014
  29.4739992  99.5619978  88.1400014  30.4089992 100.1209978  88.3590014
  28.6539992 100.2949978  88.2940014  29.2049992  98.5309978  89.2990014
  28.4209992  97.8209978  88.9600014  30.1309992  97.9429978  89.4790014
  28.5539992  99.1029978  90.5450014  27.5429992  99.4359978  90.2290014
  28.3269992  98.3089978  91.2890014  29.3359992 100.1209978  91.3670014
  30.1149992  99.7309978  92.0570014  29.7509992 100.8069978  90.5980014
  28.2879992 100.8789978  92.3050014  27.7759992 101.7149978  91.7820014
  27.4429992 100.2619978  92.6800014  28.9269992 101.4809978  93.5460014
  29.3299992 100.6579978  94.1740014  29.7999992 102.0149978  93.1130014
  28.0129992 102.4199978  94.3340014  27.5709992 103.1199978  93.5930014
  27.2519992 101.8019978  94.8570014  28.7589992 103.0859978  95.4970014
  28.0209992 103.7659978  95.9730014  28.9989992 102.2819978  96.2250014
  30.0479992 103.8209978  95.1380014  30.6409992 102.9439978  94.8010014
  29.8889992 104.3699978  94.1850014  30.6479992 104.7969978  96.1070014
  31.4429992 105.4079978  95.6280014  29.7749992 105.4449978  96.3370014
  31.1089992 104.1349978  97.4040014  31.4869992 103.0919978  97.3350014
  32.0219992 104.6739978  97.7340014  29.9979992 104.2129978  98.5200014
  29.6499992 105.2189978  99.1350014  29.4479992 103.0239978  98.6330014
  28.3339992 102.8249978  99.5090014  27.9549992 103.7809978  99.9290014
  27.4719992 102.4189978  98.9380014  28.6219992 101.6719978 100.4560014
  27.6829992 101.5319978 101.0330014  29.7269992 102.1049978 101.4130014
  29.4589992 103.0159978 101.9890014  29.7699992 101.3389978 102.2170014
  30.9759992 102.2599978 100.7130014  32.3969992 102.0659978 101.4430014
  32.3599992 100.5779978 101.8860014  33.3069992 100.0869978 102.7090014
  34.2999992 100.5429978 102.5060014  32.9199992 100.2629978 103.7360014
  33.5649992  98.6539978 102.3570014  33.6329992  98.7459978 101.2830014
  34.4379992  98.1599978 102.7560014  32.4729992  97.6279978 102.5350014
  32.6259992  96.7249978 101.3280014  31.8029992  96.0259978 101.3130014
  32.7439992  97.1919978 100.3610014  33.5559992  96.1759978 101.3670014
  32.6069992  96.8489978 103.8380014  31.9409992  96.0069978 103.9530014
  33.5949992  96.4139978 103.8760014  32.5159992  97.5059978 104.6900014
  31.0579992  98.1029978 102.5450014  30.8369992  98.4849978 103.5310014
  30.4849992  97.2029978 102.3740014  30.8819992  98.8579978 101.7940014
  33.5239992 102.2039978 100.4960014  32.4119992 102.8809978 102.6560014
  28.9319992 100.5899978  99.7220014  28.6489992  99.4659978 100.2810014
  28.3209992  99.1759978 101.4260014  28.6709992  98.3279978  99.3360014
  27.5929992  98.1739978  99.1120014  28.9109992  97.4699978 100.0000014
  29.6369992  98.4129978  98.1510014  29.3499992  99.2859978  97.5270014
  29.3489992  97.5709978  97.4850014  31.1449992  98.4279978  98.3750014
  31.4939992  97.3869978  98.5440014  31.2819992  99.0459978  99.2880014
  31.9999992  98.9299978  97.2360014  31.7879992 100.0049978  97.0520014
  31.7259992  98.3699978  96.3170014  33.5229992  98.7539978  97.4120014
  33.6219992  97.7319978  97.8360014  33.8489992  99.4789978  98.1870014
  34.4329992  98.8809978  96.1780014  34.0149992  98.4439978  95.2450014
  35.2589992  98.1789978  96.4220014  35.0309992 100.2219978  95.9090014
  35.8829992 100.0359978  95.2210014  35.5329992 100.6739978  96.7920014
  34.0599992 101.2039978  95.3640014  34.0809992 102.2219978  95.7790014
  33.2349992 101.0019978  94.3210014  32.6079992 101.8359978  93.9740014
  32.9689992  99.8659978  93.3880014  31.9709992  99.4799978  93.6880014
  33.7979992  99.1289978  93.4590014  33.0149992 100.2329978  91.9620014
  32.4629992 101.1859978  91.8210014  32.4009992  99.4899978  91.4100014
  34.4069992 100.3909978  91.2520014  34.8359992  99.3689978  91.1890014
  35.1109992 101.0029978  91.8560014  34.3059992 100.9109978  89.8010014
  33.6079992 101.7759978  89.7850014  33.7139992 100.0969978  89.3310014
  35.5849992 101.1939978  89.1000014  36.3349992 100.5279978  89.5780014
  35.8289992 102.1969978  89.5090014  35.5269992 101.1719978  87.5790014
  35.3649992 100.1439978  87.1900014  36.5489992 101.5479978  87.3590014
  34.4339992 102.1089978  86.9970014  34.5569992 103.1249978  87.4300014
  33.4309992 101.8889978  87.4210014  34.4059992 102.1699978  85.4810014
  33.8629992 103.0769978  85.1390014  33.7439992 101.3749978  85.0770014
  35.4329992 102.0709978  85.0700014  35.5309992  56.9869978  81.0970014
  34.5789992  56.4559978  80.8840014  35.9509992  56.4929978  82.0000014
  36.0809992  56.6259978  80.2020014  35.3969992  58.4819978  81.0360014
  36.3099992  59.0809978  80.8330014  34.7539992  58.6229978  80.1410014
  34.6369992  59.0929978  82.1480014  33.5719992  59.2789978  81.8910014
  34.7039992  58.3539978  82.9750014  35.3519992  60.3819978  82.6100014
  36.4449992  60.3279978  82.8030014  35.0709992  61.1209978  81.8300014
  34.9339992  61.0399978  83.9320014  35.4859992  62.0029978  83.9740014
  33.8419992  61.1569978  83.7640014  35.1819992  60.2259978  85.1800014
  34.5699992  59.2999978  85.1610014  36.2479992  59.9659978  85.3540014
  34.8679992  60.8519978  86.5420014  34.9629992  60.0129978  87.2640014
  35.6329992  61.4939978  87.0280014  33.6079992  61.6209978  86.5750014
  34.1119992  62.6029978  86.7030014  32.9759992  61.4009978  85.6870014
  32.6949992  61.1609978  87.7730014  32.1999992  60.1769978  87.6320014
  33.4549992  60.8399978  88.5180014  31.7859992  62.1699978  88.4540014
  32.3729992  63.0239978  88.8540014  31.0889992  62.5809978  87.6930014
  30.8599992  61.6019978  89.5150014  29.9089992  62.1499978  89.3410014
  30.6449992  60.5229978  89.3580014  31.2949992  61.8649978  91.0150014
  32.1479992  61.1669978  91.1590014  31.6109992  62.9139978  91.1960014
  30.1049992  61.6709978  91.9890014  29.4099992  62.4959978  91.7250014
  29.5879992  60.7129978  91.7630014  30.4589992  61.7369978  93.4660014
  31.0599992  60.8099978  93.5830014  31.1399992  62.5799978  93.7140014
  29.2889992  61.7669978  94.4220014  28.8609992  62.7829978  94.2810014
  28.6219992  60.8899978  94.2760014  29.8469992  61.9099978  95.8380014
  29.1589992  62.1229978  96.8080014  31.1519992  61.5989978  95.8120014
  31.8749992  61.5819978  97.0450014  32.9039992  61.9469978  96.8400014
  31.5269992  62.3069978  97.8120014  31.8079992  60.1569978  97.6390014
  30.7729992  59.8389978  97.8900014  32.6449992  60.1769978  98.9920014
  33.6079992  60.4929978  98.5350014  32.2429992  60.9269978  99.7060014
  32.5869992  58.8639978  99.5870014  33.7799992  58.5739978 100.6800014
  32.9619992  58.6639978 102.0760014  32.1479992  57.5699978 102.5140014
  31.7569992  57.0609978 101.6070014  32.7159992  56.7269978 102.9630014
  31.0259992  58.0379978 103.4510014  30.3019992  57.2419978 103.3520014
  31.4129992  58.0539978 104.4590014  30.2899992  59.3679978 103.2880014
  29.7079992  59.6069978 101.9100014  30.5389992  59.5439978 101.2230014
  29.0099992  58.8949978 101.4950014  29.3089992  60.6109978 101.9330014
  29.1619992  59.2919978 104.2830014  28.8769992  58.2559978 104.3850014
  29.5329992  59.5639978 105.2600014  28.3509992  59.9769978 104.0830014
  31.1969992  60.4829978 103.7810014  32.1679992  60.4899978 103.3070014
  31.3759992  60.3319978 104.8350014  30.7819992  61.4779978 103.7060014
  34.0819992  57.2079978 100.3300014  34.8369992  59.6209978 100.6070014
  32.3019992  59.1539978  96.6660014  31.3689992  58.6959978  95.8870014
  30.1839992  58.9249978  95.8670014  32.0409992  57.5859978  95.0710014
  32.0059992  56.6359978  95.6460014  33.0539992  57.8929978  94.7330014
  31.3209992  57.3259978  93.7550014  31.0569992  58.2659978  93.2260014
  30.3819992  56.7809978  93.9900014  32.1259992  56.4839978  92.7770014
  32.2299992  55.5269978  93.3330014  33.0649992  57.0189978  92.5180014
  31.2829992  56.0259978  91.5540014  30.2229992  55.7839978  91.7820014
  31.8019992  55.0939978  91.2420014  31.3669992  57.1029978  90.4170014
  32.3669992  57.5799978  90.4930014  30.5169992  57.7909978  90.6110014
  31.3919992  56.6419978  88.9910014  31.1619992  57.5069978  88.3340014
  30.6369992  55.8359978  88.8760014  32.7669992  56.0569978  88.5510014
  33.2049992  55.2899978  89.2250014  33.4289992  56.9219978  88.3330014
  32.6069992  55.2699978  87.3320014  32.7159992  54.1759978  87.3630014
  32.5209992  55.8349978  86.0770014  32.3339992  55.1559978  85.2320014
  32.5709992  57.3199978  85.6080014  33.1709992  57.3329978  84.6730014
  33.1319992  57.8899978  86.3790014  31.2119992  57.9639978  85.1830014
  30.6429992  58.4409978  86.0090014  30.5229992  57.1969978  84.7710014
  31.4579992  59.0089978  84.0200014  31.9349992  58.3849978  83.2340014
  32.1909992  59.8159978  84.2300014  30.1889992  59.5849978  83.4950014
  29.9779992  60.3549978  84.2670014  29.3709992  58.8459978  83.3610014
  30.2459992  60.3769978  82.1960014  30.3209992  59.7639978  81.2720014
  31.2299992  60.8909978  82.1570014  29.0749992  61.3639978  82.0850014
  29.3429992  62.1199978  81.3160014  29.0109992  61.8369978  83.0880014
  27.6989992  60.7389978  82.0150014  26.9309992  61.5339978  81.9070014
  27.4389992  60.3089978  83.0060014  27.5449992  59.7449978  80.8870014
  26.4779992  59.5809978  80.6280014  27.8979992  58.7219978  81.1370014
  28.2169992  60.0729978  80.0650014 121.0469992  98.9829978  85.1500014
 120.6979992  98.5379978  84.1940014 121.8789992  99.6739978  84.8970014
 120.2819992  99.7049978  85.5090014 121.2389992  98.0989978  86.3060014
 120.2839992  97.6279978  86.6230014 121.8719992  97.2629978  85.9390014
 121.9029992  98.8119978  87.5280014 121.2409992  99.6659978  87.7870014
 121.8599992  98.1509978  88.4200014 123.3629992  99.2439978  87.2830014
 123.9909992  98.3329978  87.1850014 123.4229992  99.9829978  86.4560014
 124.0119992  99.9169978  88.4930014 124.8689992 100.4249978  88.0000014
 123.3049992 100.5279978  89.0930014 124.7439992  98.9319978  89.4760014
 125.5499992  98.3449978  88.9870014 125.3169992  99.4649978  90.2650014
 123.8039992  98.0079978  90.2140014 122.8079992  98.3179978  90.5970014
 123.6919992  97.1879978  89.4720014 124.5109992  97.3729978  91.4450014
 125.5039992  96.9239978  91.2280014 124.6809992  98.1619978  92.2080014
 123.6679992  96.2559978  92.0630014 122.5739992  96.4489978  92.0410014
 123.8009992  95.3809978  91.3920014 123.9949992  95.8589978  93.5200014
 123.5979992  94.8289978  93.6490014 125.0429992  95.8659978  93.8880014
 123.2229992  96.7729978  94.5740014 123.7769992  97.6649978  94.9380014
 122.4159992  97.2939978  94.0160014 122.5589992  95.9269978  95.7500014
 121.9749992  96.6629978  96.3430014 121.8949992  95.1779978  95.2680014
 123.4969992  95.0749978  96.5970014 122.9389992  94.6479978  97.4580014
 123.9659992  94.2319978  96.0470014 124.7039992  95.9229978  97.0620014
 125.1689992  95.2019978  97.7680014 125.4229992  96.1039978  96.2350014
 124.4569992  97.2669978  97.8350014 123.7999992  97.9159978  97.2180014
 123.8669992  97.1109978  98.7630014 125.6829992  98.0969978  98.1410014
 126.8339992  97.8039978  97.7950014 125.3359992  99.1289978  98.8940014
 126.2969992  99.9439978  99.5450014 127.1209992  99.2469978  99.8100014
 126.7269992 100.6669978  98.8190014 125.6279992 100.6889978 100.6840014
 126.3169992 101.3459978 101.2550014 125.0239992  99.6889978 101.7210014
 125.7949992  99.0029978 102.1310014 124.7889992 100.2999978 102.6180014
 123.8579992  99.0779978 101.2360014 123.2089992  97.7919978 101.9460014
 121.7629992  98.3659978 102.3910014 121.5789992  99.3189978 103.4450014
 120.5509992  99.3729978 103.8640014 122.2299992  98.9619978 104.2720014
 121.9279992 100.6869978 102.9620014 122.0069992 101.2639978 103.8720014
 122.8859992 100.8229978 102.4810014 121.0009992 101.3239978 101.9110014
 119.5419992 101.2989978 102.3810014 118.9839992 101.6909978 101.5430014
 119.2129992 100.2949978 102.6070014 119.4849992 101.9049978 103.2730014
 121.4089992 102.7039978 101.5140014 121.7569992 103.2569978 102.3740014
 122.1619992 102.7609978 100.7430014 120.5179992 103.1369978 101.0840014
 121.0969992 100.5059978 100.5810014 120.5289992 101.0059978  99.8100014
 120.7639992  99.4839978 100.6830014 122.1499992 100.5639978 100.3450014
 123.0459992  96.7559978 100.9220014 123.9659992  97.5259978 103.2160014
 124.5489992 101.4529978 100.2520014 124.9209992 102.4449978  99.4910014
 126.0129992 102.9709978  99.4120014 123.7429992 102.8529978  98.5440014
 123.9519992 103.9129978  98.2840014 122.7619992 102.6849978  99.0390014
 123.6889992 102.0149978  97.2980014 123.1919992 101.0559978  97.5570014
 124.7099992 101.8089978  96.9090014 122.8349992 102.4149978  96.0790014
 123.2209992 103.3759978  95.6790014 121.8139992 102.5219978  96.5050014
 122.5759992 101.3099978  95.0230014 121.5999992 101.5109978  94.5330014
 122.4929992 100.3019978  95.4840014 123.5489992 101.2629978  93.8760014
 123.3309992 100.4979978  93.1010014 124.5449992 101.1099978  94.3450014
 123.6369992 102.5279978  93.1090014 124.0039992 103.2759978  93.8440014
 122.6469992 102.8309978  92.7050014 124.6259992 102.4319978  91.9280014
 124.3279992 101.6909978  91.1550014 125.5899992 102.0889978  92.3620014
 125.1479992 103.7039978  91.1630014 126.2129992 103.9099978  91.3430014
 124.4129992 104.6009978  90.4100014 124.8879992 105.4059978  89.8300014
 122.9279992 104.4679978  90.1850014 122.3599992 104.9159978  91.0290014
 122.6119992 103.4029978  90.1630014 122.5509992 105.1269978  88.8460014
 122.8179992 106.2029978  88.7890014 121.4459992 105.0089978  88.8780014
 122.7409992 104.2899978  87.6690014 121.9969992 104.5039978  86.8720014
 122.7989992 103.1889978  87.8030014 124.1129992 104.4579978  86.8840014
 124.9289992 104.2529978  87.6090014 124.1519992 105.5329978  86.6040014
 124.3619992 103.6439978  85.6330014 123.5989992 103.7549978  84.8340014
 124.3269992 102.5909978  85.9850014 125.7309992 103.8199978  85.0500014
 126.4349992 103.5699978  85.8730014 125.8499992 104.8879978  84.7670014
 125.9579992 103.0319978  83.8320014 127.0589992 102.8829978  83.8010014
 125.5489992 103.4999978  82.9120014 125.5239992 101.5999978  83.8760014
 126.0489992 101.0139978  83.0920014 124.4289992 101.4319978  83.7910014
 125.8419992 101.1629978  84.8470014  29.7989992  90.6419978  85.1540014
  30.6499992  91.3559978  85.1180014  28.8629992  91.1129978  84.7860014
  30.0409992  89.9139978  84.3500014  29.7939992  89.9709978  86.5140014
  30.6989992  89.3289978  86.5600014  29.7689992  90.7129978  87.3400014
  28.4929992  89.1619978  86.7140014  28.4359992  89.1139978  87.8220014
  27.6439992  89.7909978  86.3710014  28.4199992  87.7189978  86.1050014
  27.4929992  87.2229978  86.4640014  28.3309992  87.8969978  85.0120014
  29.4669992  86.7519978  86.5120014  29.2699992  85.8089978  85.9580014
  30.5289992  87.0299978  86.3430014  29.3549992  86.3729978  87.9580014
  29.8129992  87.2389978  88.4830014  28.2919992  86.2329978  88.2490014
  30.1539992  85.1109978  88.4260014  29.8959992  84.2719978  87.7450014
  31.2569992  85.2289978  88.4870014  29.8629992  84.5369978  89.8880014
  29.2089992  85.3379978  90.2960014  29.3469992  83.5529978  89.9030014
  31.0039992  84.5539978  90.8960014  31.8789992  83.9409978  90.5920014
  31.3429992  85.6109978  90.9240014  30.5769992  84.1209978  92.3010014
  29.9089992  84.9019978  92.7220014  29.9949992  83.1799978  92.4030014
  31.7139992  84.0989978  93.3730014  31.2099992  83.7369978  94.2940014
  32.5389992  83.4109978  93.0880014  32.3159992  85.5319978  93.5380014
  32.8499992  85.7739978  92.5950014  31.6269992  86.4009978  93.5980014
  33.2969992  85.7239978  94.8150014  34.2399992  85.1829978  94.5830014
  33.5909992  86.7929978  94.8780014  32.6559992  85.2839978  96.1610014
  31.6979992  85.8449978  96.1890014  32.6319992  84.1749978  96.0890014
  33.3029992  85.5559978  97.5300014  32.8349992  84.8499978  98.2490014
  34.4079992  85.4649978  97.5920014  32.9659992  87.0459978  97.8980014
  32.8719992  87.9459978  97.0910014  32.6719992  87.0339978  99.2150014
  32.2909992  88.2789978  99.8060014  32.9239992  88.5899978 100.6640014
  32.2189992  89.1299978  99.0950014  30.7499992  88.1879978 100.2950014
  30.2679992  89.1399978 100.6060014  30.5039992  87.2509978 101.5060014
  31.1469992  87.7309978 102.2740014  29.4369992  87.3179978 101.8080014
  31.0069992  85.9669978 101.3960014  30.2099992  84.7399978 100.8660014
  28.8209992  84.9639978 101.5350014  28.7519992  85.1759978 102.9900014
  28.5989992  84.1989978 103.4970014  29.6419992  85.7039978 103.3940014
  27.6789992  86.2059978 103.3750014  27.7419992  86.2529978 104.4520014
  27.9319992  87.1969978 103.0260014  26.1889992  86.0549978 103.0240014
  25.3809992  86.9169978 103.9250014  24.3479992  86.8649978 103.6140014
  25.3729992  86.5079978 104.9250014  25.7479992  87.9319978 103.8770014
  25.9369992  86.5399978 101.6120014  24.8949992  86.4209978 101.3530014
  26.1869992  87.5769978 101.4420014  26.6389992  86.0469978 100.9560014
  25.7849992  84.6029978 103.1040014  26.1939992  84.0509978 103.9370014
  26.2799992  84.1139978 102.2790014  24.7099992  84.5619978 103.0000014
  30.0219992  84.8179978  99.3770014  30.8159992  83.4849978 101.3020014
  29.9569992  87.7609978  99.1660014  29.7429992  88.6739978  98.2660014
  29.9689992  89.8739978  98.4770014  29.2729992  88.0429978  96.9060014
  28.1909992  87.7909978  96.9360014  29.9009992  87.1359978  96.7770014
  29.6029992  89.0119978  95.7150014  30.6849992  89.2469978  95.8050014
  28.9299992  89.8899978  95.8110014  29.5079992  88.3799978  94.2670014
  30.0699992  87.4219978  94.2530014  29.9779992  89.1629978  93.6340014
  28.1069992  88.0979978  93.7500014  27.5149992  89.0369978  93.7400014
  27.6759992  87.3489978  94.4480014  28.1429992  87.5219978  92.3400014
  28.7229992  86.5749978  92.3600014  28.7439992  88.2609978  91.7670014
  26.7559992  87.2319978  91.7720014  26.9209992  86.8399978  90.7460014
  26.2279992  88.2029978  91.6650014  25.9049992  86.2019978  92.5400014
  25.0169992  86.0329978  91.8940014  25.6719992  86.7069978  93.5010014
  26.5199992  84.8489978  92.8220014  27.1299992  84.8059978  93.7370014
  26.3359992  83.7379978  92.1120014  26.8119992  82.8299978  92.5120014
  25.5559992  83.4689978  90.8410014  24.7179992  84.1899978  90.7310014
  25.1159992  82.4499978  90.9000014  26.4249992  83.5959978  89.5360014
  27.3439992  82.9709978  89.5310014  26.7489992  84.6559978  89.4660014
  25.6529992  83.3139978  88.2310014  24.6499992  83.7899978  88.2860014
  25.3799992  82.2409978  88.3130014  26.2269992  83.9579978  86.9770014
  27.2779992  83.6119978  86.8740014  26.1549992  85.0639978  87.0430014
  25.5079992  83.4419978  85.6980014  24.5239992  83.9539978  85.6300014
  25.3889992  82.3379978  85.7290014  26.2719992  83.8089978  84.3570014
  25.5859992  83.4689978  83.5520014  27.0829992  83.0499978  84.3960014
  26.6699992  85.2649978  84.3250014  27.3309992  85.4399978  85.2010014
  25.8009992  85.9409978  84.4770014  27.3839992  85.6529978  83.0120014
  26.8629992  85.2009978  82.1410014  28.4279992  85.2829978  82.9260014
  27.4529992  86.7579978  82.9270014  53.6359992  35.9869978  82.7210014
  53.2009992  36.9159978  82.2950014  54.3749992  35.7419978  81.9270014
  54.0299992  36.1279978  83.7500014  52.5729992  34.8999978  82.8720014
  52.1229992  34.6259978  81.8940014  53.2369992  34.0759978  83.2100014
  51.3979992  35.3159978  83.7700014  51.7909992  35.5159978  84.7900014
  50.8949992  36.2239978  83.3730014  50.3089992  34.2829978  83.8920014
  49.3999992  34.5449978  84.4750014  49.9779992  34.0409978  82.8590014
  50.7589992  32.9329978  84.4600014  49.8109992  32.4089978  84.7040014
  51.2309992  32.2739978  83.7000014  51.7459992  32.9959978  85.6410014
  52.1369992  31.9949978  85.9210014  52.7149992  33.4489978  85.3380014
  51.2509992  33.7709978  86.8510014  52.0519992  33.8919978  87.6110014
  50.9149992  34.7909978  86.5660014  50.1049992  33.1359978  87.5760014
  49.0799992  33.3049978  87.1820014  50.4319992  32.0749978  87.5810014
  50.0769992  33.6099978  89.0500014  51.1009992  33.8109978  89.4320014
  49.5519992  34.5849978  89.1460014  49.2879992  32.7629978  90.0850014
  48.2519992  32.8469978  89.6930014  49.6679992  31.7209978  90.0210014
  49.1989992  33.0969978  91.6230014  48.7779992  32.2159978  92.1520014
  50.2079992  33.3149978  92.0350014  48.2459992  34.2949978  92.0300014
  48.5949992  35.1609978  91.4280014  47.1699992  34.0539978  91.8940014
  48.3029992  34.6269978  93.4900014  47.4689992  35.3019978  93.7770014
  48.1229992  33.6749978  94.0320014  49.5319992  35.2449978  94.0940014
  50.4219992  34.8609978  93.5510014  49.5029992  36.3219978  93.8210014
  49.4679992  35.2029978  95.5870014  49.7239992  36.2079978  95.9840014
  48.4939992  34.9989978  96.0800014  50.5999992  34.2659978  96.0620014
  50.7049992  33.0599978  95.8010014  51.3069992  34.9429978  96.9040014
  52.4059992  34.3339978  97.4940014  52.2349992  33.2369978  97.5390014
  53.2919992  34.5459978  96.8590014  52.6919992  34.9449978  98.9470014
  53.7689992  34.8749978  99.2130014  51.9869992  34.0329978 100.0370014
  52.5779992  33.1379978 100.3260014  51.9909992  34.5929978 100.9970014
  50.6819992  33.6699978  99.6110014  49.4439992  34.5569978  99.9990014
  49.8039992  35.1849978 101.3860014  49.8699992  34.3419978 102.5210014
  48.8679992  34.2569978 102.9930014  50.2509992  33.3309978 102.2640014
  50.9049992  34.7269978 103.6030014  50.6619992  34.1869978 104.5070014
  51.7739992  34.2279978 103.2000014  51.0659992  36.1649978 103.9640014
  49.6939992  36.7159978 104.2560014  49.3019992  36.2099978 105.1260014
  49.6819992  37.7909978 104.3540014  49.1219992  36.5569978 103.3540014
  52.0409992  36.1469978 105.1550014  52.9729992  35.6379978 104.9590014
  52.2759992  37.1649978 105.4310014  51.6359992  35.5299978 105.9420014
  51.7149992  36.9089978 102.8000014  51.0729992  36.8779978 101.9320014
  52.7169992  36.5749978 102.5740014  51.7809992  37.9359978 103.1300014
  49.2879992  35.6909978  99.0470014  48.2239992  33.7509978 100.1630014
  52.1719992  36.2489978  98.8870014  52.9309992  37.2389978  98.7950014
  54.1669992  37.1879978  98.7620014  52.1429992  38.4299978  98.8880014
  52.4639992  39.0449978  99.7560014  51.0529992  38.2169978  98.8610014
  52.5229992  39.1769978  97.5460014  53.6109992  39.4009978  97.5240014
  51.7899992  40.0069978  97.4590014  52.2869992  38.3199978  96.1680014
  51.3879992  37.7089978  96.3960014  53.0159992  37.4809978  96.1340014
  52.2799992  39.0959978  94.8090014  53.2489992  38.9719978  94.2800014
  52.2919992  40.1899978  94.9990014  51.2619992  38.5469978  93.9240014
  50.2339992  38.7779978  94.2750014  51.5099992  37.4819978  93.7240014
  51.3379992  39.1579978  92.5230014  52.4239992  39.2449978  92.3050014
  51.0249992  40.2189978  92.6300014  50.4689992  38.4209978  91.5610014
  50.1549992  39.1779978  90.8120014  49.5159992  38.0869978  92.0230014
  51.1939992  37.2569978  90.9990014  51.3449992  36.4569978  91.7380014
  51.8539992  37.1789978  89.8600014  52.3169992  36.1969978  89.6860014
  51.9119992  38.3699978  88.8990014  52.9189992  38.8359978  88.8470014
  51.2139992  39.1509978  89.2710014  51.3389992  38.2019978  87.4920014
  51.9329992  37.5859978  86.7830014  51.4259992  39.2239978  87.0680014
  49.9029992  37.7229978  87.4130014  49.1499992  38.4379978  87.8090014
  49.7449992  36.8569978  88.0900014  49.3749992  37.5899978  85.9720014
  48.5339992  36.8659978  85.9190014  50.1619992  37.1979978  85.2930014
  48.8329992  38.9139978  85.4200014  49.6799992  39.6329978  85.4260014
  48.0099992  39.3009978  86.0580014  48.0289992  38.6119978  84.1220014
  47.5229992  39.5449978  83.7930014  47.2209992  37.8629978  84.2580014
  48.8749992  38.2959978  82.9000014  48.1769992  38.5009978  82.0600014
  49.2179992  37.2419978  82.8230014  50.1749992  39.1589978  82.7870014
  50.7089992  38.9359978  81.8380014  50.8579992  38.9469978  83.6370014
  49.9679992  40.2419978  82.6500014 111.5969992  27.5169978  82.1910014
 111.3629992  26.6979978  82.9040014 112.6059992  27.9599978  82.3320014
 111.6049992  27.1279978  81.1500014 110.6079992  28.7219978  82.2070014
 110.6029992  29.3629978  81.3000014 109.6229992  28.3159978  82.5220014
 110.9249992  29.7369978  83.3650014 111.8829992  30.1809978  83.0190014
 110.2089992  30.5839978  83.4360014 111.1999992  29.1569978  84.7590014
 112.0889992  28.4919978  84.7170014 111.3409992  29.9819978  85.4890014
 109.9729992  28.4779978  85.3610014 109.1659992  29.2329978  85.2470014
 109.6889992  27.7089978  84.6110014 110.2169992  27.9109978  86.7810014
 110.7189992  26.9209978  86.7260014 110.8669992  28.5969978  87.3650014
 109.0449992  27.7459978  87.7520014 109.5539992  27.4379978  88.6910014
 108.4719992  28.6749978  87.9560014 108.0199992  26.6719978  87.4940014
 107.4849992  27.0019978  86.5780014 108.4319992  25.6539978  87.3300014
 107.0669992  26.5899978  88.7100014 106.7449992  27.6039978  89.0270014
 106.0669992  26.1609978  88.4860014 107.6249992  25.8819978  89.9860014
 107.9039992  24.8109978  89.8860014 108.5539992  26.3819978  90.3330014
 106.5639992  25.9489978  91.1040014 105.5269992  25.9519978  90.7050014
 106.6169992  25.1259978  91.8480014 106.7469992  27.2089978  91.9770014
 107.6439992  27.0549978  92.6150014 106.9209992  28.1539978  91.4190014
 105.6279992  27.3879978  93.0520014 104.8079992  27.9889978  92.6030014
 105.0789992  26.4579978  93.3100014 105.9939992  28.2779978  94.2910014
 106.9159992  27.7979978  94.6840014 106.3189992  29.3009978  94.0060014
 104.8499992  28.3029978  95.2900014 103.9519992  28.6439978  94.7320014
 104.7499992  27.2979978  95.7530014 105.0469992  29.2589978  96.4340014
 104.5829992  28.9409978  97.5130014 105.5949992  30.4339978  96.0940014
 105.6669992  31.3239978  97.2060014 105.9709992  32.3369978  96.8660014
 104.6999992  31.3729978  97.7510014 106.8569992  30.9679978  98.0730014
 106.5689992  30.0149978  98.5660014 107.0859992  31.9579978  99.1980014
 107.1419992  32.9459978  98.6920014 106.2209992  32.0449978  99.8900014
 108.3629992  31.7809978  99.8280014 108.5069992  31.5669978 101.3790014
 108.1989992  30.0029978 101.4130014 109.0969992  29.0859978 100.8160014
 108.5109992  28.2359978 100.4070014 109.5299992  29.5079978  99.8840014
 110.1849992  28.4669978 101.6030014 110.3709992  27.5049978 101.1480014
 111.1179992  29.0039978 101.5160014 109.9429992  28.1549978 103.1230014
 110.9639992  27.1489978 103.5910014 110.6719992  26.5949978 104.4710014
 111.1259992  26.4689978 102.7670014 111.9199992  27.6499978 103.6350014
 109.8919992  29.4739978 103.8800014 110.8979992  29.7779978 104.1250014
 109.4719992  30.2389978 103.2440014 109.4099992  29.3839978 104.8420014
 108.5489992  27.5079978 103.1640014 108.6049992  26.4519978 102.9460014
 107.8929992  28.0479978 102.4970014 108.2069992  27.5879978 104.1850014
 109.9269992  31.7289978 101.7440014 107.4689992  32.4029978 101.9650014
 108.0169992  30.9829978  97.2660014 108.5839992  29.7369978  97.0460014
 108.0129992  28.6679978  97.2010014 110.0649992  29.9619978  96.6520014
 110.5969992  29.9649978  97.6270014 110.1569992  30.9049978  96.0730014
 110.5459992  28.8219978  95.7400014 110.2559992  27.8809978  96.2540014
 111.6329992  28.9699978  95.5690014 109.9869992  28.8869978  94.3030014
 108.9339992  28.5859978  94.4890014 110.4559992  28.0259978  93.7810014
 110.2059992  30.1269978  93.4350014 111.2729992  30.4359978  93.4480014
 109.5359992  30.9599978  93.7360014 109.9539992  29.6169978  91.9700014
 109.0419992  28.9819978  91.9570014 110.8569992  29.1189978  91.5570014
 109.6839992  30.6919978  90.8580014 109.5079992  30.0869978  89.9430014
 110.4979992  31.4329978  90.7050014 108.4629992  31.6369978  90.9930014
 108.5139992  32.1829978  90.0260014 108.5669992  32.3409978  91.8460014
 107.1569992  30.9839978  91.3340014 107.1249992  30.6979978  92.3950014
 106.1469992  30.7569978  90.5490014 105.2559992  30.3159978  91.0200014
 106.1039992  31.0349978  89.0660014 105.6199992  30.1929978  88.5260014
 107.1329992  31.1559978  88.6650014 105.2679992  32.3369978  88.8440014
 105.8629992  33.1499978  89.3140014 104.2069992  32.2839978  89.1690014
 105.0729992  32.6609978  87.3790014 104.1479992  33.2639978  87.2580014
 104.8469992  31.7819978  86.7390014 106.1939992  33.3289978  86.6310014
 107.1859992  32.9009978  86.8900014 106.1189992  34.4279978  86.7740014
 106.1729992  33.0999978  85.1230014 105.2359992  33.4659978  84.6530014
 106.3269992  32.0019978  85.0470014 107.3899992  33.8839978  84.4620014
 107.3369992  34.9639978  84.7210014 107.1999992  33.7189978  83.3800014
 108.7969992  33.4039978  84.8750014 108.7049992  32.3099978  85.0470014
 108.9269992  33.9169978  85.8520014 109.9989992  33.8589978  83.9760014
 111.0239992  33.5069978  84.2220014 110.0259992  34.9659978  84.0700014
 109.7359992  33.6669978  82.9140014 118.1299992  53.9239978  82.3650014
 117.3889992  54.6769978  82.0210014 117.9799992  53.0269978  81.7260014
 119.1589992  54.2709978  82.1310014 117.7789992  53.7509978  83.8530014
 117.8539992  54.6799978  84.4570014 116.6959992  53.5259978  83.9550014
 118.6439992  52.7029978  84.4650014 118.1499992  52.4629978  85.4300014
 118.5149992  51.8599978  83.7530014 120.1169992  52.9529978  84.2890014
 120.5349992  52.6009978  83.3220014 120.3839992  54.0299978  84.3260014
 121.0399992  52.3059978  85.4180014 121.0029992  51.1959978  85.3760014
 122.0559992  52.7049978  85.2130014 120.6159992  52.6959978  86.8790014
 120.1239992  53.6909978  86.8800014 119.7649992  52.0999978  87.2740014
 121.8119992  52.8069978  87.9060014 122.5039992  53.6159978  87.5890014
 121.4309992  53.1489978  88.8930014 122.7019992  51.5119978  88.0340014
 123.1859992  51.3339978  87.0500014 123.5429992  51.6939978  88.7360014
 121.9779992  50.1939978  88.3580014 121.0769992  50.1459978  87.7110014
 122.6269992  49.3289978  88.1030014 121.4779992  50.0169978  89.7990014
 120.5689992  50.6489978  89.8920014 121.2199992  48.9449978  89.9360014
 122.4699992  50.4509978  90.9490014 123.4049992  49.8659978  90.8200014
 122.8979992  51.4719978  90.8580014 121.8239992  50.2269978  92.3210014
 122.4859992  50.7329978  93.0550014 120.8209992  50.7049978  92.3320014
 121.5569992  48.7489978  92.7190014 120.8259992  48.2369978  92.0560014
 122.5419992  48.2489978  92.5980014 121.0439992  48.6169978  94.1160014
 120.2309992  49.3329978  94.3630014 120.5989992  47.5999978  94.1510014
 122.1559992  48.6229978  95.1800014 122.7589992  47.6979978  95.3000014
 122.9219992  49.3909978  94.9400014 121.4869992  48.9539978  96.4900014
 120.6939992  48.3259978  97.1160014 121.9739992  50.1159978  96.7650014
 121.7289992  50.7269978  98.0820014 121.5659992  49.9489978  98.8570014
 122.6679992  51.2279978  98.4010014 120.5379992  51.6399978  98.1220014
 120.3749992  52.2539978  97.2110014 120.6179992  52.6329978  99.2810014
 121.5119992  53.2519978  99.0550014 119.6779992  53.2239978  99.3180014
 120.7749992  51.9879978 100.5290014 121.1119992  52.9569978 101.7370014
 119.6819992  52.6439978 102.4590014 119.5889992  51.5479978 103.3620014
 120.2809992  50.7259978 103.0820014 119.8939992  51.7529978 104.4110014
 118.1519992  50.9769978 103.4020014 118.1929992  50.1589978 104.1070014
 117.4509992  51.7439978 103.6950014 117.6089992  50.3959978 102.0850014
 117.2789992  51.5269978 101.1070014 116.7439992  52.3669978 101.5240014
 118.2049992  51.8509978 100.6540014 116.7069992  51.1469978 100.2730014
 118.3819992  49.2219978 101.5100014 117.8409992  48.8029978 100.6740014
 119.3419992  49.6299978 101.2280014 118.4779992  48.4039978 102.2090014
 116.1269992  49.9499978 102.4780014 115.5869992  50.8179978 102.8290014
 116.1019992  49.1179978 103.1670014 115.6349992  49.5669978 101.5960014
 122.2789992  52.4769978 102.4980014 121.1609992  54.4019978 101.3390014
 119.3659992  50.8819978  98.1350014 118.1339992  51.3989978  98.0220014
 117.8529992  52.5739978  97.9070014 117.0749992  50.3239978  97.8050014
 116.1989992  50.4019978  98.4850014 117.6179992  49.3659978  97.9510014
 116.5459992  50.2359978  96.3960014 116.3059992  51.1929978  95.8850014
 115.6619992  49.5629978  96.4240014 117.5559992  49.6139978  95.3970014
 117.7669992  48.5749978  95.7290014 118.4889992  50.2159978  95.4180014
 117.0609992  49.4809978  93.9510014 116.2299992  48.7449978  93.9750014
 117.8159992  48.9369978  93.3440014 116.7109992  50.7319978  93.1660014
 117.6249992  51.3279978  92.9600014 115.9019992  51.3509978  93.6090014
 116.1019992  50.4009978  91.7780014 115.1779992  49.8399978  92.0320014
 116.8099992  49.7479978  91.2250014 115.7899992  51.6409978  90.8580014
 115.3319992  52.4319978  91.4900014 114.9939992  51.4839978  90.0990014
 117.1059992  52.1659978  90.3180014 117.7779992  52.3919978  91.1590014
 117.4159992  52.3139978  88.9680014 118.3939992  52.7479978  88.7100014
 116.4179992  52.0069978  87.8520014 116.8689992  52.4599978  86.9430014
 115.3819992  52.3489978  88.0650014 116.3679992  50.5059978  87.4830014
 115.8519992  50.5079978  86.4990014 115.7939992  49.8399978  88.1620014
 117.7159992  49.7779978  87.2520014 118.0469992  49.3699978  88.2310014
 118.4549992  50.5099978  86.8600014 117.7829992  48.5229978  86.2890014
 117.3549992  47.6449978  86.8180014 118.8629992  48.3339978  86.1070014
 117.1289992  48.5649978  84.8830014 117.0849992  49.6359978  84.5920014
 116.1479992  48.0459978  84.9410014 118.0169992  47.8839978  83.7390014
 118.4149992  46.9129978  84.1030014 118.9969992  48.3899978  83.6000014
 117.2729992  47.7139978  82.3680014 117.0799992  48.7509978  82.0170014
 116.3269992  47.1939978  82.6280014 118.1439992  46.9519978  81.3550014
 119.0349992  47.5119978  80.9970014 117.5299992  46.6679978  80.4740014
 118.4099992  46.0019978  81.8660014 122.3939992  67.6809978  81.5570014
 122.7629992  67.1879978  80.6330014 123.1659992  68.4379978  81.8120014
 121.4629992  68.2439978  81.3360014 122.1389992  66.7219978  82.6860014
 121.2459992  66.1539978  82.3480014 122.9979992  66.0359978  82.8460014
 121.6499992  67.4539978  83.9430014 122.4529992  68.1929978  84.1500014
 120.7319992  68.0729978  83.8490014 121.4149992  66.4459978  85.0710014
 120.4289992  65.9439978  84.9700014 122.2609992  65.7289978  85.1420014
 121.4569992  67.1909978  86.4990014 122.4739992  67.6389978  86.5370014
 120.7019992  68.0029978  86.4240014 121.0379992  66.3289978  87.7310014
 120.0229992  65.9139978  87.5520014 121.6969992  65.4629978  87.9550014
 120.9399992  67.1179978  89.0540014 120.2939992  68.0029978  88.8670014
 120.3819992  66.5709978  89.8440014 122.2589992  67.6469978  89.5450014
 122.6799992  68.4669978  88.9260014 122.1609992  68.0669978  90.5690014
 123.3509992  66.5289978  89.7210014 122.9509992  65.5289978  89.9960014
 123.9579992  66.4399978  88.7950014 124.3289992  66.9239978  90.8640014
 124.9579992  67.7669978  90.5090014 123.7799992  67.1879978  91.7930014
 125.2639992  65.7319978  91.2250014 124.5369992  64.9139978  91.4120014
 125.8479992  65.5199978  90.3040014 126.1869992  66.2589978  92.3650014
 126.7099992  67.1219978  91.9010014 125.5969992  66.5619978  93.2560014
 127.1979992  65.1919978  92.7570014 127.8859992  65.1929978  91.8850014
 127.8299992  65.6129978  93.5690014 126.5399992  63.7759978  93.0210014
 125.9109992  63.5429978  92.1350014 127.2959992  62.9669978  93.1100014
 125.7659992  63.7209978  94.2530014 124.9999992  64.5249978  94.2230014
 125.2319992  62.7559978  94.3880014 126.6319992  63.8239978  95.4990014
 127.8509992  63.9549978  95.5750014 125.8569992  63.7639978  96.5510014
 126.3869992  64.0979978  97.8820014 126.0759992  63.2209978  98.4900014
 127.4929992  64.1519978  97.9630014 125.8099992  65.3269978  98.5840014
 126.3939992  66.1999978  98.2210014 126.0859992  65.2169978 100.0800014
 125.6139992  64.2979978 100.4880014 127.1729992  65.0679978 100.2560014
 125.7149992  66.3819978 100.7750014 125.2469992  66.2519978 102.2510014
 123.8669992  65.5349978 102.0320014 122.9559992  65.3799978 103.1180014
 122.4879992  64.3869978 102.9490014 123.4889992  65.4179978 104.0920014
 121.8699992  66.4799978 103.0060014 121.1199992  66.0899978 103.6790014
 122.3429992  67.2979978 103.5290014 121.0449992  66.8289978 101.7100014
 120.9949992  65.6879978 100.7150014 121.9739992  65.3729978 100.3830014
 120.5069992  64.8209978 101.1340014 120.5389992  66.0699978  99.8130014
 119.5639992  67.1399978 102.1250014 119.5719992  68.1289978 102.5600014
 118.9419992  67.1139978 101.2430014 119.3349992  66.4159978 102.8930014
 121.4759992  68.0599978 101.0290014 121.2029992  68.8539978 101.7090014
 121.0419992  68.2109978 100.0520014 122.5459992  68.0839978 100.8870014
 126.1839992  65.4229978 103.0180014 125.1249992  67.6299978 102.7270014
 124.3939992  65.4759978  98.3180014 124.0739992  66.1509978  97.2180014
 124.8019992  66.7859978  96.4580014 122.5779992  66.1779978  97.1860014
 122.2459992  66.9499978  97.9120014 122.1969992  65.1789978  97.4900014
 121.9529992  66.2909978  95.8230014 122.4759992  67.1279978  95.3130014
 120.9169992  66.6639978  95.9680014 121.8539992  64.9589978  94.9570014
 121.0559992  64.2399978  95.2380014 122.8279992  64.4239978  94.9400014
 121.4729992  65.2179978  93.4830014 122.0789992  66.1219978  93.2570014
 120.4779992  65.6829978  93.3200014 121.6749992  64.0899978  92.4580014
 122.7659992  63.8809978  92.4140014 121.4329992  64.5019978  91.4550014
 120.9609992  62.7649978  92.6880014 119.8669992  62.9229978  92.8000014
 121.2689992  62.2289978  93.6110014 121.2479992  61.7609978  91.5220014
 120.9709992  62.1629978  90.5240014 120.4859992  60.9899978  91.7640014
 122.7069992  61.2819978  91.5300014 122.9769992  60.5049978  92.2600014
 123.6969992  61.5509978  90.6250014 124.6999992  61.1409978  90.8160014
 123.6159992  62.4439978  89.4200014 124.4089992  63.2169978  89.5090014
 122.7139992  63.0929978  89.4320014 123.8679992  61.7659978  88.0140014
 123.1449992  60.9319978  87.8880014 124.8379992  61.2529978  88.1910014
 123.7839992  62.7889978  86.7930014 122.8499992  63.3909978  86.7830014
 123.9729992  62.1879978  85.8790014 124.9269992  63.8539978  86.8410014
 125.8539992  63.3219978  87.1450014 124.8329992  64.6199978  87.6400014
 125.2299992  64.4839978  85.5120014 124.3309992  65.0369978  85.1650014
 125.5319992  63.6769978  84.8100014 126.4239992  65.4159978  85.4450014
 127.0369992  65.1249978  86.3240014 125.9499992  66.4199978  85.4720014
 127.3969992  65.3809978  84.1980014 126.7109992  65.2769978  83.3300014
 127.9529992  64.4189978  84.1910014 128.3689992  66.5539978  84.1510014
 129.2449992  66.3849978  83.4900014 128.7449992  66.6309978  85.1930014
 127.7979992  67.4599978  83.8540014  97.6169992  19.6479978  83.8430014
  98.6189992  19.4039978  83.4300014  97.5649992  20.7439978  84.0210014
  96.8299992  19.4539978  83.0840014  97.3669992  18.8639978  85.2150014
  96.4249992  18.2839978  85.1100014  98.0919992  18.0229978  85.2470014
  97.3589992  19.7709978  86.4340014  98.1239992  20.5629978  86.5800014
  96.4439992  20.3739978  86.2510014  97.1299992  18.9509978  87.7480014
  96.3559992  19.4359978  88.3810014  96.7099992  17.9739978  87.4290014
  98.3699992  18.7899978  88.5550014  99.1249992  18.6669978  87.7490014
  98.6499992  19.6989978  89.1300014  98.4459992  17.5129978  89.5230014
  98.1639992  16.6259978  88.9170014  99.4679992  17.3139978  89.9110014
  97.5639992  17.7009978  90.7040014  96.7379992  18.2529978  90.2070014
  97.3389992  16.6839978  91.0910014  98.2529992  18.4279978  91.8560014
  98.6719992  17.6749978  92.5570014  99.0509992  19.0729978  91.4300014
  97.2599992  19.3679978  92.6380014  96.4329992  18.6579978  92.8550014
  97.8179992  19.7409978  93.5230014  96.6549992  20.5289978  91.7690014
  97.5039992  21.2279978  91.6120014  96.5189992  20.1479978  90.7340014
  95.5149992  21.2019978  92.4520014  94.5379992  20.7139978  92.2510014
  95.7489992  21.1549978  93.5370014  95.2689992  22.6819978  92.0310014
  96.2699992  23.1099978  91.8090014  94.7279992  22.6509978  91.0620014
  94.5369992  23.6229978  92.9650014  94.5569992  24.6549978  92.5540014
  93.4559992  23.3649978  92.9640014  95.1019992  23.5939978  94.3930014
  96.2049992  23.4719978  94.3430014  95.0179992  24.6309978  94.7830014
  94.3549992  22.6149978  95.3620014  93.3039992  22.9689978  95.3130014
  94.5069992  21.5679978  95.0230014  94.8269992  22.9049978  96.7710014
  95.5109992  23.8439978  97.1760014  94.4359992  21.8979978  97.5590014
  94.7219992  21.9489978  98.9700014  95.7899992  22.0639978  99.2540014
  94.1449992  22.8039978  99.3830014  94.1549992  20.8249978  99.7520014
  93.0649992  20.9799978  99.9020014  94.7939992  20.7899978 101.1390014
  95.8859992  20.6969978 100.9590014  94.6219992  21.8249978 101.5060014
  94.3029992  19.7939978 101.9920014  95.0849992  18.8289978 102.9480014
  95.4679992  17.5789978 102.0210014  95.7139992  16.3789978 102.7160014
  96.5449992  16.5049978 103.4430014  94.8259992  16.1019978 103.3230014
  96.1069992  15.2399978 101.8430014  96.0219992  14.2919978 102.3540014
  95.3789992  15.1859978 101.0460014  97.4199992  15.2019978 101.0680014
  97.4579992  16.2819978 100.0180014  96.7889992  15.9289978  99.2470014
  97.2069992  17.2629978 100.3930014  98.5159992  16.2489978  99.8050014
  98.5589992  15.3859978 102.1170014  98.2359992  16.2199978 102.7220014
  98.6419992  14.4659978 102.6770014  99.5459992  15.5759978 101.7210014
  97.5529992  13.8869978 100.4540014  96.7439992  13.6569978  99.7760014
  97.5319992  13.2019978 101.2890014  98.4859992  13.8679978  99.9110014
  96.3539992  19.5319978 103.3010014  94.1469992  18.4379978 104.0290014
  94.3969992  19.5059978  99.1770014  93.3639992  18.9669978  98.4210014
  92.2859992  19.4609978  98.3040014  93.8899992  17.6769978  97.8070014
  93.7949992  16.9219978  98.6160014  94.9929992  17.7289978  97.6850014
  93.2769992  17.3759978  96.4660014  92.1889992  17.2369978  96.6440014
  93.7039992  16.3899978  96.1830014  93.5299992  18.3009978  95.2900014
  94.6179992  18.4969978  95.1870014  93.0849992  19.3129978  95.3950014
  93.0079992  17.8639978  93.9040014  92.6939992  18.7189978  93.2680014
  92.0929992  17.2729978  94.1260014  94.0049992  16.9159978  93.1040014
  94.1249992  15.9739978  93.6820014  95.0089992  17.3799978  92.9950014
  93.5139992  16.4899978  91.6660014  92.4579992  16.1439978  91.6880014
  94.0779992  15.5669978  91.4140014  93.7909992  17.5049978  90.5000014
  94.4529992  17.0039978  89.7610014  94.2649992  18.4289978  90.8930014
  92.5089992  18.1699978  89.8220014  92.2179992  19.1009978  90.3310014
  91.8899992  17.7729978  88.7640014  90.9879992  18.3439978  88.5010014
  92.3369992  16.5209978  87.9530014  91.6519992  15.6649978  88.1310014
  93.3599992  16.1339978  88.1460014  92.2849992  16.7849978  86.4740014
  91.3459992  17.2929978  86.1640014  92.1619992  15.8319978  85.9160014
  93.4599992  17.6179978  85.9000014  94.4189992  17.1589978  86.2210014
  93.3509992  18.6199978  86.3680014  93.3819992  17.7379978  84.3730014
  93.0039992  16.7849978  83.9460014  94.3739992  17.9289978  83.9100014
  92.5049992  18.9019978  83.8330014  93.2229992  19.7329978  84.0010014
  91.6609992  18.9849978  84.5500014  91.9579992  18.8159978  82.4500014
  91.2669992  17.9489978  82.3680014  92.8029992  18.7209978  81.7360014
  91.0679992  20.0069978  81.9800014  90.6459992  19.7059978  80.9970014
  91.7239992  20.8889978  81.8170014  89.8949992  20.3589978  82.8330014
  89.1939992  19.4979978  82.8510014  89.3189992  21.2049978  82.4000014
  90.1989992  20.6639978  83.8570014  38.2449992  48.4589978  81.9660014
  37.4609992  49.2379978  82.0820014  38.0999992  47.6739978  82.7390014
  38.1409992  47.8979978  81.0130014  39.6619992  49.0289978  82.0060014
  39.9939992  49.2249978  80.9650014  39.7799992  49.9539978  82.6100014
  40.7849992  48.1009978  82.6070014  40.3089992  47.5909978  83.4720014
  41.1289992  47.2439978  81.9880014  42.0519992  48.9099978  83.0300014
  42.7829992  48.1659978  83.4130014  42.5379992  49.4409978  82.1840014
  41.8469992  50.0269978  84.0610014  41.2829992  50.9149978  83.7050014
  41.1469992  49.6529978  84.8390014  43.1849992  50.4019978  84.8760014
  43.6999992  49.4489978  85.1220014  43.8029992  50.8559978  84.0730014
  43.0059992  51.3249978  86.0520014  44.0389992  51.5199978  86.4100014
  42.5679992  52.3149978  85.8020014  42.0889992  50.7119978  87.1090014
  41.0029992  50.9209978  86.9950014  42.3329992  49.6299978  87.1600014
  42.4669992  51.1669978  88.5080014  43.5309992  51.1009978  88.8190014
  42.3939992  52.2729978  88.4250014  41.6179992  50.6869978  89.6370014
  40.6419992  51.0789978  89.2780014  41.5879992  49.5819978  89.7480014
  41.8389992  51.2199978  91.0680014  42.0399992  52.3129978  91.0870014
  40.9419992  51.1049978  91.7140014  43.0029992  50.4839978  91.8140014
  42.9949992  49.3799978  91.6840014  43.9639992  50.8119978  91.3640014
  43.0969992  50.8669978  93.2570014  43.2279992  51.9689978  93.2010014
  42.2639992  50.5869978  93.9360014  44.3699992  50.2179978  93.8770014
  44.3129992  49.1099978  93.9390014  45.2399992  50.6149978  93.3110014
  44.7859992  50.6099978  95.2980014  45.7589992  50.1619978  95.5910014
  44.8769992  51.7079978  95.4380014  43.6649992  50.1189978  96.3070014
  43.1899992  49.0099978  96.3660014  43.3509992  51.1529978  97.0220014
  42.7859992  51.0509978  98.3040014  43.1479992  50.1759978  98.8870014
  42.9649992  51.9489978  98.9340014  41.2189992  50.9699978  98.1860014
  40.7979992  51.8379978  97.6350014  40.6249992  50.9389978  99.6000014
  40.7979992  51.9599978 100.0030014  39.5199992  50.8519978  99.6770014
  41.2399992  49.9159978 100.3760014  40.8339992  49.5839978 101.8450014
  40.0029992  48.3039978 101.6100014  40.6149992  47.2269978 100.8920014
  40.6649992  47.3909978  99.7940014  41.6099992  46.9779978 101.3190014
  39.7769992  45.9639978 101.1460014  38.8369992  46.0809978 100.6270014
  40.3279992  45.1039978 100.7950014  39.4529992  45.5529978 102.5480014
  38.2299992  46.2379978 103.1210014  37.3199992  45.9449978 102.6180014
  38.1329992  45.9669978 104.1630014  38.4469992  47.2939978 103.0680014
  39.0969992  44.1229978 102.3940014  39.2259992  43.5249978 103.2850014
  38.0429992  44.0719978 102.1650014  39.6609992  43.6769978 101.5880014
  40.6659992  45.6359978 103.4600014  41.5709992  45.8489978 102.9110014
  40.8989992  44.8399978 104.1510014  40.4569992  46.4849978 104.0950014
  42.0089992  49.3049978 102.6610014  39.9539992  50.5919978 102.4510014
  40.9249992  49.7869978  97.4700014  39.6749992  49.4809978  97.0250014
  38.6039992  50.1179978  97.1040014  39.7039992  48.1719978  96.2370014
  39.2219992  47.4939978  96.9730014  40.7229992  47.7479978  96.1090014
  38.8559992  48.1749978  94.9680014  39.4549992  48.7469978  94.2280014
  37.7819992  48.4239978  95.1040014  38.9629992  46.7479978  94.3750014
  38.2219992  46.2209978  95.0130014  39.9489992  46.2539978  94.5100014
  38.5849992  46.6019978  92.8980014  37.6219992  47.1309978  92.7340014
  38.5019992  45.5549978  92.5350014  39.7399992  47.0139978  91.8950014
  40.3679992  47.8109978  92.3460014  39.2649992  47.3109978  90.9350014
  40.7039992  45.9049978  91.5740014  40.1429992  45.1039978  91.0460014
  41.0279992  45.4369978  92.5280014  41.8709992  46.3869978  90.6960014
  42.3849992  46.9339978  91.5150014  41.5459992  47.1019978  89.9090014
  42.7479992  45.3479978  90.1020014  43.1079992  44.5939978  90.8170014
  43.1579992  45.2849978  88.8480014  43.6969992  44.3429978  88.6720014
  42.9319992  46.1429978  87.6410014  43.8699992  46.1769978  87.0470014
  42.6329992  47.1849978  87.8840014  42.0289992  45.4229978  86.6220014
  42.5559992  44.4889978  86.3320014  41.8139992  46.0769978  85.7500014
  40.6379992  45.0609978  87.2260014  40.8459992  44.4769978  88.1480014
  40.0549992  44.4749978  86.4830014  39.6629992  46.1889978  87.5920014
  40.0729992  46.9079978  88.3330014  38.8089992  45.7089978  88.1170014
  38.8619992  46.9509978  86.4770014  39.6379992  46.9929978  85.6830014
  38.6469992  47.9569978  86.8970014  37.7479992  46.0869978  85.9110014
  38.1199992  45.0409978  85.9440014  37.6509992  46.1879978  84.8090014
  36.3729992  46.1969978  86.6090014  36.5139992  46.4059978  87.6910014
  35.9859992  45.1559978  86.6030014  35.3899992  47.2619978  86.1320014
  35.5279992  48.3009978  86.5010014  34.3529992  47.0819978  86.4890014
  35.4229992  47.2619978  85.0210014  58.9479992  21.7019978  84.3370014
  58.7049992  22.5719978  83.6910014  58.1259992  20.9919978  84.5700014
  59.6759992  21.0449978  83.8130014  59.4879992  22.2359978  85.6870014
  60.3579992  22.9129978  85.5520014  58.6319992  22.8639978  86.0150014
  59.9629992  21.3009978  86.8540014  59.0079992  20.7579978  87.0170014
  60.7659992  20.6019978  86.5360014  60.5209992  21.9289978  88.1400014
  60.7859992  21.1479978  88.8850014  61.3959992  22.5339978  87.8200014
  59.5039992  22.8559978  88.8270014  58.5029992  22.5419978  88.4610014
  59.5899992  22.7249978  89.9270014  59.6229992  24.4119978  88.7020014
  59.1489992  24.8159978  87.7810014  59.0199992  24.9339978  89.4760014
  61.0119992  25.0429978  88.9080014  61.3429992  24.8159978  89.9440014
  61.7789992  24.5019978  88.3140014  60.9399992  26.6009978  88.7170014
  60.7809992  26.8369978  87.6430014  59.9939992  26.9629978  89.1730014
  61.9769992  27.5479978  89.2190014  62.8659992  27.4269978  88.5640014
  61.5729992  28.5789978  89.1350014  62.3779992  27.2749978  90.6440014
  62.9749992  26.3409978  90.7210014  63.0959992  28.0929978  90.8680014
  61.2619992  27.3039978  91.7210014  60.7829992  28.3069978  91.7280014
  60.3729992  26.7099978  91.4200014  61.6909992  26.7759978  93.1070014
  62.1529992  25.7729978  92.9870014  62.5579992  27.3349978  93.5190014
  60.5729992  26.7659978  94.2140014  59.9729992  27.6959978  94.1120014
  59.9539992  25.8919978  93.9210014  60.9709992  26.6219978  95.6300014
  61.6399992  27.4609978  95.9180014  60.1379992  26.7629978  96.3510014
  61.6939992  25.3769978  95.9840014  62.4289992  25.1039978  95.1980014
  62.3829992  25.5299978  96.8420014  60.7959992  24.2069978  96.1550014
  60.6159992  23.4009978  95.2400014  60.0529992  24.2869978  97.2590014
  59.3209992  23.2009978  97.7130014  58.3819992  23.5709978  98.1770014
  59.0509992  22.5469978  96.8560014  60.1569992  22.5219978  98.8120014
  59.5439992  21.7399978  99.3090014  60.4659992  23.5359978  99.9660014
  60.7039992  24.5349978  99.5410014  59.5699992  23.7119978 100.6000014
  61.5599992  23.0369978 100.7190014  61.3039992  22.6929978 102.2510014
  61.5739992  24.1119978 102.9180014  62.7849992  24.8449978 102.6780014
  63.2479992  25.1699978 103.6340014  63.6269992  24.1679978 102.4170014
  62.7439992  26.0079978 101.6730014  63.6699992  26.5639978 101.6530014
  62.6269992  25.5779978 100.6900014  61.6239992  27.0719978 101.7880014
  61.7549992  27.7769978 103.1140014  61.0479992  28.5859978 103.0110014
  61.4799992  27.0139978 103.8280014  62.6609992  28.3619978 103.1680014
  61.6609992  28.0369978 100.6830014  60.8569992  28.7559978 100.6330014
  62.5549992  28.6379978 100.7640014  61.6459992  27.5709978  99.7090014
  60.3079992  26.4359978 101.6490014  59.6029992  27.2459978 101.5370014
  60.2149992  25.8549978 102.5540014  60.2069992  25.8069978 100.7770014
  59.8849992  22.2279978 102.3770014  62.3869992  21.7399978 102.6550014
  61.4369992  22.0319978  98.1720014  61.8979992  20.8369978  98.7200014
  61.3109992  20.1469978  99.4620014  63.3679992  20.5489978  98.4010014
  63.3509992  19.4619978  98.1750014  64.0329992  20.8649978  99.2330014
  63.7939992  21.1699978  97.0260014  64.8019992  20.8049978  96.7360014
  63.8489992  22.2589978  97.2380014  62.8919992  20.7339978  95.8330014
  61.9069992  21.1729978  96.1010014  62.9779992  19.6289978  95.7530014
  63.2799992  21.4289978  94.4490014  64.2759992  21.1629978  94.0340014
  63.1549992  22.5259978  94.5740014  62.2649992  20.9889978  93.4270014
  61.2539992  20.8499978  93.8670014  62.5489992  20.0359978  92.9320014
  62.1319992  22.1169978  92.3140014  62.3069992  23.1199978  92.7560014
  61.0809992  22.1779978  91.9590014  62.8689992  21.8909978  90.9670014
  62.5749992  22.7769978  90.3650014  62.3749992  20.9799978  90.5660014
  64.3849992  21.8219978  90.9980014  64.7189992  20.7739978  91.0110014
  65.3029992  22.8359978  91.0840014  66.3709992  22.5739978  91.0570014
  65.0249992  24.3119978  91.0610014  65.6729992  24.7119978  91.8690014
  63.9739992  24.6039978  91.2720014  65.5369992  24.9779978  89.7780014
  66.5509992  24.5969978  89.5300014  65.6019992  26.0749978  89.9440014
  64.7189992  24.5189978  88.5440014  63.6289992  24.6039978  88.7400014
  65.0429992  23.4839978  88.3030014  64.9559992  25.3059978  87.2510014
  65.6969992  24.6719978  86.7180014  65.2869992  26.3579978  87.3830014
  63.7599992  25.1679978  86.3180014  62.9809992  25.8929978  86.6380014
  63.3179992  24.1509978  86.2490014  64.1829992  25.4029978  84.8400014
  65.1149992  24.8529978  84.5850014  64.4049992  26.4849978  84.9630014
  62.9839992  25.4179978  83.8650014  63.1689992  26.0579978  82.9760014
  62.0819992  25.7149978  84.4430014  62.7099992  24.0109978  83.2560014
  63.6399992  23.7309978  82.7180014  61.8049992  24.0089978  82.6120014
  62.5129992  23.3379978  84.1180014 114.6459992  35.3929978  80.4510014
 113.9159992  36.1889978  80.7100014 114.4149992  35.1729978  79.3860014
 115.6539992  35.8559978  80.3880014 114.6859992  34.1369978  81.3350014
 113.6239992  33.8179978  81.2630014 115.3509992  33.3349978  80.9500014
 114.9229992  34.3169978  82.8200014 114.7549992  33.3239978  83.2900014
 116.0029992  34.5459978  82.9460014 113.9699992  35.4929978  83.3550014
 114.3689992  36.5289978  83.3370014 113.0829992  35.4379978  82.6870014
 113.5389992  35.1809978  84.8270014 113.1009992  36.1659978  85.0980014
 112.8769992  34.2939978  84.9210014 114.7389992  34.8949978  85.7120014
 115.0369992  33.8249978  85.7360014 115.6099992  35.4139978  85.2570014
 114.5359992  35.3959978  87.1640014 115.5099992  35.3749978  87.6970014
 114.1799992  36.4479978  87.1540014 113.4229992  34.5469978  87.9460014
 112.7509992  34.1599978  87.1510014 113.9519992  33.6999978  88.4330014
 112.6919992  35.5409978  88.8720014 112.1559992  36.3149978  88.2820014
 111.9159992  34.9769978  89.4320014 113.5909992  36.2289978  89.8950014
 114.1949992  35.4639978  90.4280014 114.2979992  36.9099978  89.3750014
 112.8609992  37.0959978  90.9470014 112.4279992  37.9189978  90.3390014
 112.1799992  36.5409978  91.6280014 113.7149992  37.8829978  91.9260014
 114.6539992  38.2899978  91.4940014 113.0969992  38.7069978  92.3420014
 114.2079992  36.9049978  93.0470014 113.3859992  36.2569978  93.4190014
 114.9969992  36.2239978  92.6620014 114.8629992  37.6639978  94.2620014
 114.2169992  38.3589978  94.8400014 115.1149992  36.7599978  94.8580014
 116.2159992  38.2919978  93.9360014 116.8829992  37.5309978  93.4770014
 116.0909992  39.0849978  93.1670014 116.8749992  38.8769978  95.2060014
 118.0519992  39.1089978  95.2300014 115.9639992  39.0599978  96.1540014
 116.4749992  39.5679978  97.4460014 117.5839992  39.6409978  97.4450014
 116.1049992  40.5729978  97.7400014 116.1089992  38.6399978  98.7270014
 115.0219992  38.7749978  98.9150014 116.8399992  39.1369978  99.9780014
 117.9439992  39.0399978  99.9110014 116.6309992  40.2269978 100.0200014
 116.2359992  38.5019978 101.1240014 117.1129992  37.5219978 102.0050014
 116.0249992  36.7329978 102.7620014 114.8069992  37.2679978 103.1780014
 114.6229992  36.8329978 104.1840014 114.8189992  38.3789978 103.1730014
 113.6499992  36.9979978 102.1060014 112.7619992  37.4589978 102.5130014
 113.9599992  37.5509978 101.2320014 113.3879992  35.5319978 101.8240014
 113.6499992  34.6259978 103.0960014 114.1919992  33.7519978 102.7650014
 114.2639992  35.0789978 103.8600014 112.6479992  34.3729978 103.4090014
 111.9979992  35.3059978 101.4790014 111.9049992  35.7679978 100.5070014
 111.7879992  34.2469978 101.4460014 111.2379992  35.6839978 102.1470014
 114.2819992  35.0619978 100.7160014 114.0929992  35.6499978  99.8300014
 114.0889992  34.0259978 100.4810014 115.3369992  35.2059978 100.8950014
 117.9879992  36.6009978 101.2390014 117.7829992  38.3459978 102.9770014
 116.5629992  37.2429978  98.5620014 115.7999992  36.3599978  97.9770014
 114.6779992  36.5839978  97.5190014 116.4039992  34.9569978  98.0840014
 115.6319992  34.2989978  97.6310014 116.6529992  34.5959978  99.1050014
 117.5219992  34.9019978  97.1170014 118.3719992  35.4669978  97.5560014
 117.1629992  35.4049978  96.1940014 118.0009992  33.5019978  96.7160014
 117.8929992  32.8699978  97.6230014 119.0559992  33.5829978  96.3780014
 117.1619992  33.0209978  95.5550014 116.0739992  33.0999978  95.7650014
 117.3659992  31.9359978  95.4300014 117.3259992  33.7379978  94.2260014
 118.4099992  33.9729978  94.2920014 116.8159992  34.7239978  94.1930014
 116.8599992  32.9569978  93.0000014 115.7729992  32.7549978  93.1100014
 117.3549992  31.9649978  92.9290014 117.0029992  33.6639978  91.6510014
 116.4009992  34.5979978  91.6360014 116.6049992  32.9379978  90.9100014
 118.4359992  33.8929978  91.2500014 119.0979992  33.1299978  91.6850014
 118.8119992  34.9219978  90.4700014 119.8569992  34.9329978  90.1270014
 117.9869992  35.9619978  89.8070014 116.9439992  36.0059978  90.1860014
 117.9329992  35.7859978  88.7120014 118.6689992  37.3479978  90.0240014
 119.4719992  37.5669978  89.2880014 119.0489992  37.5079978  91.0560014
 117.6259992  38.4649978  89.8080014 118.1919992  39.4059978  89.9800014
 116.8159992  38.3629978  90.5610014 117.0319992  38.5849978  88.4040014
 116.3239992  37.7499978  88.2140014 117.8519992  38.5569978  87.6550014
 116.0959992  39.8179978  88.2200014 116.6019992  40.7449978  88.5650014
 115.2079992  39.6489978  88.8670014 115.5049992  39.9009978  86.8350014
 114.9869992  40.8759978  86.7140014 114.7499992  39.0969978  86.7030014
 116.4539992  39.8659978  85.5780014 115.8509992  39.8879978  84.6450014
 117.0589992  38.9439978  85.7160014 117.3389992  41.0989978  85.4230014
 116.7219992  41.9489978  85.0600014 118.0879992  40.9209978  84.6220014
 117.9479992  41.4499978  86.2830014  99.4849992 118.9589978  83.5160014
  99.9459992 118.5669978  82.5840014  98.6159992 118.3319978  83.8080014
 100.1909992 118.7739978  84.3530014  99.2239992 120.4159978  83.2720014
 100.1829992 120.9749978  83.3140014  98.8879992 120.5129978  82.2180014
  98.2149992 121.0059978  84.2980014  98.5969992 121.9879978  84.6520014
  97.2089992 121.1569978  83.8510014  98.0999992 120.2179978  85.6570014
  97.7329992 119.1929978  85.4360014  99.0659992 120.0779978  86.1880014
  97.0659992 120.7879978  86.6770014  97.3519992 121.8229978  86.9620014
  96.0679992 120.8989978  86.2030014  96.8939992 119.9459978  87.9760014
  96.3959992 118.9719978  87.7810014  97.8909992 119.6439978  88.3640014
  95.9649992 120.6739978  88.9770014  96.5439992 121.5639978  89.3020014
  95.0489992 121.0029978  88.4400014  95.5779992 119.8659978  90.2090014
  95.0489992 118.9899978  89.7780014  96.5559992 119.6089978  90.6690014
  94.7809992 120.5639978  91.2870014  93.8289992 120.8879978  90.8160014
  94.5239992 119.7609978  92.0100014  95.4549992 121.7709978  91.9630014
  95.9039992 122.2869978  91.0870014  94.5819992 122.3339978  92.3550014
  96.4289992 121.5149978  93.0630014  97.3129992 121.0679978  92.5600014
  96.8829992 122.4019978  93.5540014  96.0469992 120.5579978  94.2100014
  95.4669992 121.0809978  95.0000014  95.3249992 119.7829978  93.8750014
  97.1739992 119.8739978  94.8230014  97.5959992 119.1209978  94.1240014
  97.8849992 120.6659978  95.1400014  96.9009992 119.1309978  96.1170014
  97.0909992 119.8979978  96.8980014  95.8379992 118.8079978  96.1210014
  97.7439992 117.8959978  96.5430014  97.6039992 117.1429978  95.7380014
  98.8409992 118.0199978  96.6630014  97.1119992 117.0589978  97.7020014
  96.0169992 117.1799978  98.1930014  98.1209992 116.2209978  98.2150014
  97.8739992 115.4359978  99.3830014  96.8339992 115.3299978  99.7610014
  98.4439992 114.4899978  99.2640014  98.4879992 116.1749978 100.5950014
  98.3599992 115.4209978 101.4010014  97.7879992 117.4929978 100.9170014
  96.7159992 117.3189978 100.6820014  97.8779992 117.5799978 102.0210014
  98.2799992 118.6599978 100.3620014  97.7609992 120.1589978 100.7110014
  98.3399992 120.2589978 102.1210014  98.3549992 121.4349978 102.9000014
  97.5089992 122.1249978 102.6960014  98.3809992 121.2479978 103.9950014
  99.6179992 122.2749978 102.5730014  99.6579992 122.1459978 101.5010014
  99.4569992 123.2849978 102.9180014 100.9359992 121.8279978 103.1540014
 100.8979992 122.2369978 104.6440014 100.0599992 121.7109978 105.0770014
 101.8209992 121.8929978 105.0850014 100.8689992 123.3129978 104.7410014
 101.0529992 120.3369978 102.9840014 101.1439992 120.2699978 101.9100014
 102.0379992 120.1019978 103.3590014 100.2639992 119.7439978 103.4220014
 102.0759992 122.5129978 102.4850014 102.9729992 122.4059978 103.0770014
 101.9239992 123.5559978 102.2500014 102.1799992 122.0629978 101.5090014
  98.2869992 121.1539978  99.7590014  96.2609992 120.1779978 100.8130014
  99.8709992 116.3049978 100.3510014 100.5589992 116.6229978 101.4980014
  99.9999992 116.7759978 102.5880014 102.0349992 116.9889978 101.2410014
 102.6139992 116.0759978 101.4980014 102.3999992 117.8459978 101.8470014
 102.3569992 117.3419978  99.7620014 101.9629992 116.5749978  99.0620014
 103.4299992 117.5749978  99.5930014 101.6219992 118.6479978  99.3360014
 101.6959992 119.4289978 100.1220014 100.5529992 118.3499978  99.2810014
 102.1079992 119.1919978  97.9770014 102.1139992 118.3159978  97.2930014
 103.1889992 119.4379978  98.0430014 101.3579992 120.4709978  97.6420014
 101.7529992 121.2679978  98.3070014 100.2759992 120.2669978  97.7880014
 101.3839992 120.9859978  96.1940014 102.4349992 121.2129978  95.9150014
 100.6969992 121.8529978  96.2970014 101.0179992 119.9839978  95.1530014
  99.9989992 119.6099978  95.3910014 101.6939992 119.1029978  95.1280014
 100.9789992 120.5829978  93.7550014 100.5019992 121.5739978  93.7670014
 101.3859992 120.1099978  92.5860014 101.4209992 120.8389978  91.7630014
 102.0459992 118.7399978  92.3570014 101.6239992 118.0309978  93.1020014
 103.1559992 118.7479978  92.3780014 101.8109992 118.0249978  90.9330014
 100.7019992 118.0049978  90.8800014 102.1529992 116.9839978  91.1170014
 102.6339992 118.6509978  89.7910014 103.7059992 118.6169978  90.0820014
 102.2719992 119.6859978  89.6100014 102.5759992 117.8109978  88.5230014
 102.9979992 116.7939978  88.6720014 103.1769992 118.2989978  87.7280014
 101.1359992 117.8639978  87.9960014 101.0529992 118.7979978  87.4000014
 100.3479992 117.8199978  88.7780014 100.8739992 116.6889978  86.9560014
  99.8289992 116.8879978  86.6360014 100.8839992 115.6779978  87.4150014
 101.7659992 116.8149978  85.7770014 102.8079992 116.5339978  86.0400014
 101.8399992 117.8789978  85.4640014 101.3529992 115.9239978  84.5480014
 102.1639992 116.0089978  83.7930014 100.3929992 116.2909978  84.1260014
 101.2459992 114.8679978  84.8760014  53.7459992 120.5809978  84.3840014
  54.5919992 121.0749978  84.9070014  53.0939992 121.4309978  84.0890014
  54.0659992 120.1989978  83.3910014  52.8309992 119.6279978  85.2740014
  52.3959992 120.2279978  86.1020014  52.0209992 119.1479978  84.6840014
  53.6049992 118.4119978  85.7610014  53.8669992 117.7409978  84.9160014
  54.4129992 118.9709978  86.2820014  52.9099992 117.5349978  86.8310014
  51.8579992 117.8269978  87.0370014  53.0119992 116.4859978  86.4780014
  53.6169992 117.7689978  88.1370014  54.0359992 116.8029978  88.4900014
  54.4919992 118.4499978  88.2110014  52.6719992 118.4059978  89.0990014
  52.3559992 119.2969978  88.5150014  51.8059992 117.7109978  89.1270014
  53.0459992 118.7669978  90.4790014  53.8749992 119.4939978  90.3430014
  52.2589992 119.3359978  91.0190014  53.5089992 117.6269978  91.4540014
  52.8449992 116.7389978  91.3940014  54.5559992 117.3269978  91.2330014
  53.4549992 118.0189978  92.9910014  52.5019992 118.4549978  93.3590014
  53.5449992 117.0729978  93.5650014  54.5289992 119.0249978  93.5730014
  55.5509992 118.6409978  93.3670014  54.4129992 120.0189978  93.0910014
  54.3429992 119.3219978  95.0420014  54.4379992 120.4229978  95.1560014
  53.3519992 119.0989978  95.4930014  55.4179992 118.6859978  96.0000014
  55.3959992 117.5849978  95.8540014  56.3529992 119.1199978  95.5840014
  55.2409992 119.0489978  97.4870014  54.2399992 118.6339978  97.7290014
  56.0049992 118.6249978  98.1740014  54.9399992 120.4559978  97.8920014
  55.8399992 121.0879978  97.7350014  54.0919992 120.8739978  97.3100014
  54.8099992 120.5239978  99.4820014  54.1089992 119.6849978  99.6790014
  55.7509992 120.2969978 100.0270014  54.0429992 121.7659978  99.9770014
  53.8829992 122.7829978  99.3700014  53.4989992 121.5359978 101.1940014
  52.5509992 122.5689978 101.7020014  52.4099992 122.5429978 102.8040014
  52.8989992 123.5719978 101.3760014  51.0969992 122.4069978 101.0400014
  50.4399992 123.0869978 101.6240014  50.7149992 120.9139978 101.2900014
  51.2799992 120.5319978 102.1680014  49.6259992 120.8239978 101.4890014
  50.9969992 120.1589978 100.1010014  50.9289992 118.6249978 100.2090014
  52.1869992 118.3069978 101.1490014  52.6669992 116.9429978 101.3810014
  51.9409992 116.1229978 101.1940014  53.5699992 116.8179978 100.7460014
  53.2699992 116.7509978 102.7720014  53.3649992 115.6759978 102.8260014
  54.2929992 117.0949978 102.8240014  52.5509992 117.3649978 104.0070014
  53.1419992 116.7079978 105.2230014  54.1889992 116.9439978 105.3420014
  52.7089992 117.1629978 106.1010014  52.9679992 115.6459978 105.3180014
  52.7109992 118.8259978 103.9860014  53.6259992 119.1499978 103.5120014
  52.0449992 119.2739978 103.2630014  52.6449992 119.3839978 104.9090014
  51.0869992 117.0179978 103.9360014  50.9269992 116.0319978 104.3460014
  50.7819992 117.1369978 102.9070014  50.5299992 117.7639978 104.4830014
  49.7219992 118.2959978 100.9680014  50.9809992 118.1079978  98.7720014
  51.0599992 122.6729978  99.5790014  49.8509992 122.8779978  99.0440014
  48.7799992 122.8789978  99.5960014  50.0249992 122.9719978  97.5610014
  50.6329992 123.8659978  97.3030014  49.0409992 122.9879978  97.0440014
  50.7439992 121.6379978  96.9820014  50.2219992 120.7359978  97.3670014
  51.6339992 121.4309978  97.6140014  51.1689992 121.5749978  95.4450014
  51.6879992 120.5939978  95.4040014  51.9329992 122.2899978  95.0730014
  50.0009992 121.4129978  94.4110014  49.4549992 122.3769978  94.4870014
  49.3129992 120.6069978  94.7450014  50.4529992 121.0909978  92.9800014
  49.5169992 121.1039978  92.3810014  50.9979992 120.1229978  92.9620014
  51.1779992 122.1319978  92.2320014  51.1839992 121.7829978  91.1770014
  52.1989992 122.3459978  92.6130014  50.3139992 123.4999978  92.2810014
  50.5709992 123.8819978  93.2930014  49.2179992 123.3259978  92.2320014
  50.7239992 124.4619978  91.2160014  51.5919992 125.1349978  91.2670014
  49.9739992 124.7769978  90.1390014  50.2299992 125.5909978  89.4450014
  48.6139992 124.2359978  89.7380014  47.8829992 125.0729978  89.7550014
  48.2869992 123.4959978  90.4990014  48.6609992 123.6839978  88.3210014
  48.8389992 124.5809978  87.6910014  47.6459992 123.2879978  88.1030014
  49.5239992 122.4899978  88.0820014  49.3489992 121.7729978  88.9120014
  50.5769992 122.8389978  88.1540014  49.4139992 121.7849978  86.6910014
  48.6489992 120.9799978  86.7180014  50.3319992 121.1599978  86.6730014
  49.3539992 122.6449978  85.4570014  50.0209992 123.4909978  85.7270014
  48.3719992 123.1369978  85.2900014  49.8379992 122.0299978  84.1500014
  48.9379992 121.6149978  83.6470014  50.3709992 121.0859978  84.3910014
  50.5289992 122.9779978  83.1290014  50.9759992 122.3609978  82.3200014
  51.2619992 123.5419978  83.7450014  49.6169992 124.0099978  82.6220014
  48.7029992 123.5669978  82.1720014  50.2139992 124.4599978  81.8000014
  49.3729992 124.8749978  83.2740014 130.4199992  72.4039978  84.3130014
 131.1709992  71.5969978  84.4490014 130.4269992  72.8689978  83.3040014
 129.3989992  71.9669978  84.2850014 130.6259992  73.4029978  85.4840014
 131.6359992  73.8649978  85.4590014 129.8819992  74.2279978  85.4840014
 130.5069992  72.7819978  86.8690014 131.2009992  71.9149978  86.8490014
 130.8779992  73.5419978  87.5900014 129.0429992  72.2989978  87.1270014
 128.3419992  73.1179978  86.8600014 128.8799992  71.4489978  86.4300014
 128.6339992  71.9079978  88.5700014 129.0899992  70.9249978  88.8150014
 129.0089992  72.7409978  89.2030014 127.0459992  71.7119978  88.7660014
 126.5059992  72.6339978  88.4610014 126.6879992  70.9609978  88.0310014
 126.7679992  71.2889978  90.2210014 125.6849992  71.4739978  90.3850014
 126.9129992  70.1939978  90.3420014 127.4679992  72.0819978  91.3450014
 128.5429992  71.8449978  91.1930014 127.4359992  73.1809978  91.1890014
 127.0479992  71.6549978  92.7100014 126.0019992  72.0289978  92.6870014
 126.7989992  70.5899978  92.9030014 127.7809992  72.3469978  93.8280014
 128.3659992  73.2279978  93.4890014 126.9459992  72.5309978  94.5380014
 128.7119992  71.3579978  94.5400014 129.1019992  71.8089978  95.4780014
 128.0879992  70.4859978  94.8310014 129.8669992  70.7249978  93.6570014
 130.0719992  69.7219978  94.0890014 129.6319992  70.6239978  92.5760014
 131.2429992  71.4079978  93.8440014 131.8229992  71.2679978  94.7810014
 131.8269992  70.9379978  93.0250014 131.1409992  72.9339978  93.5600014
 130.6979992  73.0459978  92.5470014 130.3919992  73.3879978  94.2430014
 132.4919992  73.7069978  93.4710014 133.0459992  73.0289978  92.7870014
 132.3929992  74.6669978  92.9200014 133.1519992  74.0579978  94.7860014
 134.3349992  74.2429978  94.9190014 132.1839992  74.1429978  95.6940014
 132.5779992  74.7569978  96.9240014 133.3589992  74.1249978  97.3990014
 133.0199992  75.7769978  96.9140014 131.4169992  74.7189978  98.0020014
 131.6729992  75.2999978  98.9140014 131.2249992  73.2539978  98.5910014
 131.5109992  72.5339978  97.7950014 132.0199992  73.1269978  99.3570014
 129.8409992  72.8389978  98.8020014 128.8709992  73.1439978  99.9750014
 129.5249992  72.3779978 101.2030014 128.7299992  71.6799978 102.0970014
 127.8859992  71.0269978 101.7860014 129.3209992  70.9339978 102.6690014
 128.0989992  72.5499978 103.2530014 127.3209992  73.2529978 102.9940014
 127.7649992  71.8069978 103.9610014 129.0629992  73.4309978 104.0340014
 128.2709992  73.8159978 105.2720014 127.9969992  72.9239978 105.8160014
 128.7639992  74.5429978 105.9020014 127.3699992  74.3169978 104.9500014
 130.2729992  72.7979978 104.5320014 131.0359992  72.7949978 103.7680014
 130.7039992  73.3689978 105.3410014 130.1049992  71.7709978 104.8190014
 129.4699992  74.7389978 103.4460014 128.6069992  75.0629978 102.8840014
 130.2569992  74.5559978 102.7280014 129.8019992  75.4449978 104.1930014
 128.9169992  74.6079978 100.3030014 127.6259992  72.4219978  99.5910014
 130.1459992  75.1479978  97.4630014 129.9739992  76.4129978  97.2990014
 130.7919992  77.3419978  97.5140014 128.5099992  76.6269978  96.7270014
 127.8709992  77.0149978  97.5490014 128.0159992  75.7089978  96.3410014
 128.4549992  77.4409978  95.4590014 129.0339992  78.3859978  95.5430014
 127.4159992  77.8309978  95.4160014 128.7499992  76.6199978  94.2010014
 127.7359992  76.2469978  93.9400014 129.3739992  75.7439978  94.4810014
 129.3419992  77.4419978  93.0740014 128.6049992  78.2389978  92.8360014
 129.4009992  76.7089978  92.2420014 130.8109992  77.8759978  93.4320014
 131.3879992  76.9629978  93.1740014 130.7999992  78.1469978  94.5100014
 131.4269992  79.0239978  92.5200014 132.3509992  79.3929978  93.0130014
 130.6569992  79.8229978  92.4860014 131.7419992  78.5869978  91.0610014
 131.9759992  79.4769978  90.4380014 130.9209992  78.0149978  90.5800014
 132.9509992  77.7169978  91.1380014 133.8599992  78.1789978  91.5500014
 132.9919992  76.4269978  90.6950014 134.0259992  76.0519978  90.7340014
 131.9109992  75.5379978  90.0830014 131.1839992  75.2819978  90.8830014
 132.4499992  74.5669978  90.0510014 131.3139992  76.0589978  88.8300014
 130.8519992  77.0649978  88.9210014 130.5159992  75.3359978  88.5560014
 132.2869992  75.9229978  87.6440014 131.7119992  75.5529978  86.7680014
 133.0089992  75.1039978  87.8520014 132.9129992  77.2559978  87.0900014
 133.6419992  77.5699978  87.8670014 132.0569992  77.9279978  86.8670014
 133.7859992  77.1619978  85.7870014 134.5059992  76.3259978  85.9140014
 134.4199992  78.0719978  85.7240014 132.8559992  76.9109978  84.5770014
 132.2779992  77.8469978  84.4290014 132.2529992  75.9979978  84.7700014
 133.6839992  76.6429978  83.3270014 134.4609992  77.4289978  83.2190014
 132.9849992  76.7869978  82.4750014 134.3419992  75.2799978  83.3170014
 134.8999992  75.2139978  82.3590014 133.5819992  74.4809978  83.1810014
 134.9809992  75.1039978  84.2090014  71.7209992  17.1669978  81.0530014
  70.6369992  16.9339978  80.9790014  71.7709992  17.8389978  80.1700014
  71.9599992  17.7279978  81.9810014  72.6029992  15.9969978  80.8480014
  72.6249992  15.5279978  81.8550014  72.1899992  15.2799978  80.1060014
  74.0379992  16.1979978  80.4530014  74.6249992  15.2599978  80.5510014
  74.0139992  16.5359978  79.3950014  74.7129992  17.2209978  81.3720014
  75.7019992  17.3849978  80.8940014  74.2119992  18.2109978  81.3080014
  75.0339992  16.7319978  82.7930014  74.0539992  16.3479978  83.1490014
  75.6709992  15.8279978  82.6940014  75.4449992  17.7389978  83.8620014
  76.4569992  18.1349978  83.6300014  74.7889992  18.6349978  83.8150014
  75.6109992  17.2229978  85.3000014  74.6389992  16.7169978  85.4850014
  76.4359992  16.5019978  85.4830014  75.6489992  18.4139978  86.3080014
  76.5279992  19.0359978  86.0370014  74.7489992  19.0599978  86.2190014
  75.8119992  17.7319978  87.7370014  76.5859992  16.9389978  87.6490014
  76.1239992  18.5819978  88.3810014  74.5589992  17.1139978  88.3600014
  73.7849992  17.8879978  88.5520014  74.0749992  16.4029978  87.6570014
  74.7639992  16.3639978  89.6880014  74.3049992  15.3619978  89.5420014
  75.8319992  16.2479978  89.9690014  74.0329992  17.0179978  90.8800014
  74.2029992  18.1159978  90.9020014  72.9419992  16.8319978  90.7820014
  74.4429992  16.5999978  92.3350014  74.2209992  15.5329978  92.5540014
  75.5499992  16.6899978  92.3860014  73.7879992  17.5139978  93.3880014
  73.6719992  18.5639978  93.0450014  72.7759992  17.0719978  93.5090014
  74.4059992  17.4709978  94.7880014  74.4989992  16.4449978  95.2050014
  75.4119992  17.9429978  94.7870014  73.6019992  18.3599978  95.7600014
  73.0589992  19.4429978  95.4750014  73.7809992  17.9669978  97.0280014
  73.1349992  18.6599978  98.1360014  73.9179992  19.2869978  98.6130014
  72.2959992  19.3069978  97.8020014  72.8859992  17.5829978  99.2150014
  72.3049992  18.1029978 100.0070014  74.0779992  16.8949978  99.8430014
  74.6459992  16.4339978  99.0070014  74.7439992  17.6239978 100.3540014
  73.5179992  15.9049978 100.6850014  74.2419992  15.6089978 102.0750014
  72.9729992  15.2689978 102.9360014  71.6249992  15.6919978 102.5660014
  71.1189992  15.8349978 103.5450014  71.6659992  16.6499978 102.0050014
  70.8199992  14.6649978 101.7450014  69.7829992  14.9079978 101.9240014
  70.9299992  14.9119978 100.7000014  71.0649992  13.2139978 102.0150014
  71.0319992  12.9759978 103.4360014  71.7919992  13.4819978 104.0120014
  70.0869992  13.1609978 103.9250014  71.2279992  11.9359978 103.6510014
  69.9239992  12.4399978 101.3570014  69.9709992  11.3949978 101.6260014
  69.0389992  12.8469978 101.8230014  69.9729992  12.6149978 100.2920014
  72.3439992  12.6509978 101.3200014  72.2829992  12.7709978 100.2480014
  72.4409992  11.5819978 101.4440014  73.2159992  13.2199978 101.6060014
  75.1349992  14.4449978 101.8170014  74.8579992  16.8479978 102.5540014
  72.0919992  16.5499978  98.6110014  70.7979992  16.6749978  98.8260014
  70.1989992  17.5519978  99.4970014  70.0809992  15.6419978  97.8710014
  69.0409992  16.0229978  97.7810014  69.9999992  14.6459978  98.3570014
  70.7489992  15.6569978  96.4900014  70.9369992  16.7039978  96.1700014
  69.9489992  15.3259978  95.7940014  71.9189992  14.7089978  96.3110014
  72.7139992  14.7849978  97.0840014  72.3929992  14.8629978  95.3190014
  71.4459992  13.2289978  96.3230014  71.1219992  12.9799978  97.3560014
  72.2669992  12.4809978  96.2840014  70.3109992  12.7719978  95.3350014
  69.3159992  13.1699978  95.6280014  70.1999992  11.6769978  95.4840014
  70.7649992  13.0749978  93.8800014  71.8379992  12.7979978  93.7940014
  70.6829992  14.1649978  93.6820014  69.8949992  12.4559978  92.6970014
  69.9449992  11.3509978  92.8000014  70.4929992  12.7939978  91.8230014
  68.4809992  12.9669978  92.8720014  67.8209992  12.4889978  93.6110014
  67.9659992  13.9709978  92.1370014  66.8739992  14.0519978  92.2450014
  68.6699992  14.7229978  91.0550014  69.7769992  14.6549978  91.1230014
  68.3209992  15.7729978  90.9630014  68.2899992  14.1229978  89.6710014
  67.1829992  14.1699978  89.5950014  68.4769992  13.0279978  89.6610014
  69.1459992  14.6319978  88.4950014  70.2219992  14.3919978  88.6270014
  69.0849992  15.7389978  88.4250014  68.5409992  14.1439978  87.1210014
  67.4919992  14.5099978  87.1440014  68.6289992  13.0439978  86.9950014
  69.1329992  14.9939978  85.9170014  68.9859992  16.0839978  86.0750014
  68.5589992  14.7309978  85.0030014  70.6789992  15.0039978  85.7130014
  71.1859992  15.4569978  86.5920014  70.9419992  15.6169978  84.8250014
  71.3749992  13.6059978  85.6100014  71.0219992  13.0639978  84.7060014
  71.0959992  13.0129978  86.5070014  72.8709992  13.6699978  85.5510014
  73.2499992  14.1319978  86.4880014  73.2059992  14.3279978  84.7210014
  73.3379992  12.6619978  85.5160014  65.9429992 125.3139978  84.7730014
  66.9189992 125.7569978  85.0660014  65.0389992 125.8879978  84.4760014
  66.1759992 124.5969978  83.9570014  65.4499992 124.7009978  86.0500014
  66.3279992 124.4189978  86.6680014  64.9179992 125.4269978  86.7020014
  64.5569992 123.5239978  85.6490014  63.5779992 123.8549978  85.2420014
  65.1739992 122.9219978  84.9480014  64.2339992 122.5389978  86.8000014
  63.6729992 121.6419978  86.4620014  65.1429992 122.0889978  87.2530014
  63.3359992 123.0829978  87.9490014  63.6689992 124.0749978  88.3230014
  62.3419992 123.0859978  87.4540014  63.1439992 122.0929978  89.0390014
  62.1069992 122.2459978  89.4070014  63.1349992 121.0379978  88.6900014
  64.0759992 122.2139978  90.2290014  63.7209992 123.0479978  90.8710014
  64.1309992 121.3079978  90.8700014  65.5349992 122.5019978  89.8490014
  65.9279992 121.6429978  89.2650014  65.4619992 123.3919978  89.1880014
  66.2549992 122.9829978  91.0720014  65.6609992 123.7079978  91.6680014
  66.4989992 122.0099978  91.5490014  67.6519992 123.5149978  90.7540014
  68.0839992 123.0659978  89.8330014  67.4989992 124.5379978  90.3470014
  68.6269992 123.5839978  91.9260014  69.2919992 122.6949978  91.8760014
  69.3089992 124.4469978  91.7700014  67.9099992 123.7829978  93.3510014
  67.1219992 124.5219978  93.0940014  67.3859992 122.8199978  93.5320014
  68.8129992 124.3349978  94.5400014  69.3019992 123.3969978  94.8780014
  69.4519992 125.1339978  94.1050014  68.0919992 124.8969978  95.8120014
  68.9589992 124.8969978  96.5080014  67.6669992 125.8469978  95.4230014
  66.9079992 123.9779978  96.2390014  66.1619992 123.9029978  95.4190014
  67.3039992 122.9939978  96.5690014  66.2199992 124.6179978  97.4730014
  66.6679992 125.4759978  98.1710014  65.0649992 124.0359978  97.5490014
  64.1529992 124.4949978  98.5250014  64.6939992 125.0849978  99.2970014
  63.3719992 125.1009978  98.0180014  63.5509992 123.3539978  99.4150014
  62.8229992 123.8269978 100.1090014  64.7569992 122.7379978 100.2540014
  65.4089992 122.2429978  99.5020014  65.3619992 123.4819978 100.8140014
  64.1189992 121.8289978 101.1570014  64.6589992 121.6349978 102.6260014
  66.1719992 122.2519978 102.6310014  67.3249992 121.3549978 102.6030014
  67.3849992 120.7279978 103.5180014  67.3539992 120.6359978 101.7570014
  68.6099992 122.1899978 102.6120014  68.5719992 122.8679978 103.4520014
  69.4219992 121.4819978 102.6950014  69.0009992 123.0029978 101.4220014
  68.1259992 124.2539978 101.3980014  68.0699992 124.6049978 100.3780014
  67.1729992 123.8459978 101.7000014  68.5769992 124.9399978 102.1000014
  70.4309992 123.3799978 101.4740014  70.6789992 124.0109978 100.6330014
  70.6089992 123.9809978 102.3530014  71.0559992 122.4999978 101.4760014
  68.7289992 122.2799978 100.1050014  69.0619992 122.9049978  99.2890014
  67.6959992 122.0119978  99.9340014  69.2859992 121.3549978 100.0930014
  63.8679992 122.2679978 103.7030014  64.8849992 120.1619978 102.7760014
  62.9449992 122.3019978  98.6210014  62.0849992 122.5489978  97.6450014
  61.5689992 123.6299978  97.4060014  61.7759992 121.4729978  96.7130014
  61.3069992 121.8389978  95.7750014  60.9949992 120.7949978  97.1190014
  63.1549992 120.8509978  96.4170014  63.5629992 120.2149978  97.2310014
  63.8879992 121.6439978  96.1570014  63.1889992 120.0009978  95.1780014
  62.6269992 120.5709978  94.4080014  62.6359992 119.0639978  95.4020014
  64.5799992 119.6539978  94.7500014  65.2259992 118.9599978  95.3290014
  65.2299992 120.5549978  94.7910014  64.6869992 119.3739978  93.2250014
  64.3769992 120.3589978  92.8140014  63.9729992 118.5559978  92.9900014
  66.0289992 118.9359978  92.6390014  66.4169992 118.0769978  93.2270014
  66.7449992 119.7729978  92.7850014  65.9899992 118.4609978  91.1300014
  65.7519992 119.3939978  90.5760014  65.3849992 117.5359978  91.0240014
  67.3079992 118.0099978  90.6880014  67.8399992 117.4149978  91.4460014
  67.8349992 118.2709978  89.4860014  68.7939992 117.8119978  89.2020014
  67.1679992 119.0589978  88.3750014  67.8379992 119.9069978  88.1180014
  66.1629992 119.5249978  88.4610014  66.9649992 118.1319978  87.0980014
  66.1389992 117.3999978  87.2190014  67.9139992 117.5849978  86.9110014
  66.8099992 119.0579978  85.7800014  67.7039992 119.7159978  85.8310014
  65.8969992 119.6779978  85.9070014  66.4789992 118.2509978  84.5460014
  65.4029992 118.3679978  84.2960014  66.8259992 117.2289978  84.8080014
  67.2899992 118.4919978  83.1890014  67.1409992 117.6289978  82.5060014
  68.3599992 118.5759978  83.4760014  66.7389992 119.6899978  82.4250014
  66.2839992 120.4439978  83.1020014  65.9009992 119.4569978  81.7340014
  67.8819992 120.4399978  81.6870014  68.4379992 119.7099978  81.0620014
  68.6129992 120.8699978  82.4060014  67.3889992 121.6749978  80.8250014
  66.8649992 121.4189978  79.8800014  68.0769992 122.5329978  80.6660014
  66.4919992 122.0819978  81.3380014  80.2229992  14.5929978  85.5080014
  80.1029992  15.2069978  86.4260014  79.2609992  14.2789978  85.0490014
  80.9109992  15.1479978  84.8340014  80.8679992  13.2349978  85.9470014
  80.0799992  12.5679978  86.3580014  81.2689992  12.7089978  85.0540014
  82.0649992  13.3889978  86.9940014  82.6559992  12.4659978  87.1760014
  82.6789992  14.1699978  86.4990014  81.5389992  13.8619978  88.3090014
  82.3869992  14.1529978  88.9650014  80.7129992  14.6049978  88.3370014
  80.8399992  12.6839978  89.0900014  80.0349992  12.2909978  88.4330014
  81.6469992  11.9319978  89.2300014  80.3349992  13.0329978  90.5480014
  79.5609992  12.3109978  90.8860014  81.1569992  12.8559978  91.2740014
  79.6749992  14.4159978  90.6840014  80.4489992  15.1739978  90.9310014
  79.2579992  14.8829978  89.7660014  78.5779992  14.5419978  91.8050014
  78.2939992  15.6129978  91.7300014  77.6549992  14.0269978  91.4630014
  79.1739992  14.1859978  93.1550014  79.6999992  13.2119978  93.0600014
  79.8439992  15.0079978  93.4870014  78.1159992  14.1109978  94.3200014
  77.6569992  15.0839978  94.5980014  77.2719992  13.6259978  93.7840014
  78.4509992  13.2409978  95.4920014  79.1079992  12.3919978  95.2070014
  79.1629992  13.8089978  96.1280014  77.1709992  12.8589978  96.2840014
  76.6739992  13.8279978  96.5040014  76.4839992  12.1949978  95.7160014
  77.5079992  12.1189978  97.5450014  78.2279992  11.3089978  97.2960014
  78.0459992  12.8419978  98.1950014  76.3149992  11.6339978  98.3060014
  75.7539992  12.5789978  98.4700014  75.7779992  10.8579978  97.7190014
  76.6779992  11.1559978  99.7380014  77.2059992  11.9909978 100.2460014
  75.7759992  10.9879978 100.3640014  77.4379992   9.8459978  99.8470014
  77.6839992   9.0689978  98.9390014  77.6819992   9.6209978 101.1170014
  78.0689992   8.3369978 101.6270014  77.3609992   8.0079978 102.4180014
  77.9639992   7.5409978 100.8590014  79.4899992   8.2729978 102.3180014
  79.7389992   7.2309978 102.6130014  79.5789992   9.2819978 103.5820014
  79.2519992  10.2559978 103.1610014  78.9239992   9.0159978 104.4400014
  80.8909992   9.5059978 104.0960014  81.9239992  10.6099978 103.5950014
  81.0759992  11.8939978 103.0480014  81.6029992  13.1489978 102.8520014
  81.4659992  13.7789978 103.7570014  82.6159992  13.0739978 102.4020014
  80.8409992  13.9129978 101.7490014  79.8189992  14.1309978 102.0230014
  81.3959992  14.8349978 101.8450014  80.7749992  13.3779978 100.3780014
  80.0009992  12.0789978 100.3020014  80.3829992  11.5019978 101.1310014
  78.9429992  12.1919978 100.4860014  80.3539992  11.6559978  99.3720014
  80.2619992  14.4589978  99.4390014  80.8149992  15.3529978  99.6850014
  80.5029992  14.3579978  98.3910014  79.2079992  14.6939978  99.4720014
  82.2489992  13.1649978  99.9520014  82.7569992  14.1159978 100.0220014
  82.3599992  12.7789978  98.9500014  82.6619992  12.4779978 100.6750014
  82.7559992  11.0269978 104.7180014  82.6329992  10.0639978 102.3760014
  80.5199992   8.6379978 101.4100014  80.8579992   7.7319978 100.5740014
  80.5129992   6.5589978 100.5380014  81.5789992   8.4619978  99.4670014
  82.6739992   8.4469978  99.6500014  81.3249992   9.5439978  99.4600014
  81.1579992   7.7529978  98.1600014  80.0629992   7.6719978  97.9890014
  81.6599992   6.7769978  98.3370014  81.8399992   8.4619978  96.9790014
  81.7989992   7.6409978  96.2330014  82.9339992   8.6209978  97.0890014
  81.1719992   9.7659978  96.5650014  81.0619992  10.4719978  97.4160014
  80.1249992   9.6359978  96.2170014  81.9839992  10.4779978  95.4290014
  83.0439992  10.4549978  95.7620014  81.6869992  11.5479978  95.4030014
  81.9059992   9.8529978  94.0630014  82.2739992   8.8049978  94.0460014
  82.5109992  10.3639978  93.2840014  80.5319992   9.8339978  93.2220014
  80.7999992   9.5899978  92.1720014  80.1049992  10.8579978  93.2780014
  79.6209992   8.7219978  93.6220014  80.0319992   7.8479978  94.1500014
  78.2869992   8.6539978  93.3240014  77.7649992   7.8329978  93.8360014
  77.4229992   9.6289978  92.6060014  77.9869992  10.4239978  92.0740014
  76.6859992  10.1439978  93.2590014  76.6059992   9.1169978  91.3970014
  76.1779992   9.9409978  90.7860014  75.7099992   8.6079978  91.8120014
  77.3329992   8.2649978  90.3430014  76.5959992   7.8069978  89.6500014
  77.8119992   7.4179978  90.8800014  78.3669992   9.0249978  89.5600014
  79.0329992   9.5799978  90.2540014  77.9149992   9.7789978  88.8800014
  79.2789992   8.1769978  88.6520014  78.5969992   7.8189978  87.8510014
  79.6819992   7.3519978  89.2780014  80.3979992   8.9979978  87.9310014
  80.9889992   9.5849978  88.6670014  79.8479992   9.8239978  87.4320014
  81.2849992   8.1879978  86.9730014  80.8419992   7.2359978  86.6120014
  82.1469992   7.9709978  87.6400014  81.8439992   9.0179978  85.7620014
  82.8309992   8.5799978  85.4980014  81.9669992  10.0809978  86.0640014
  81.1339992   8.8709978  84.9210014  88.7369992 122.0549978  82.6610014
  89.3769992 121.8209978  81.7830014  89.3179992 122.2829978  83.5800014
  88.2129992 122.9769978  82.3320014  87.7179992 120.8919978  82.8680014
  87.1439992 121.0759978  83.8010014  87.1099992 120.6909978  81.9600014
  88.3999992 119.5459978  83.0530014  87.5279992 118.8579978  83.0350014
  88.9999992 119.4129978  82.1280014  89.2119992 119.4689978  84.3870014
  89.6309992 118.4449978  84.4890014  90.0279992 120.1869978  84.1560014
  88.6149992 119.8999978  85.7600014  88.1879992 120.9249978  85.7840014
  87.8299992 119.1519978  86.0020014  89.7859992 119.8959978  86.7700014
  90.4239992 118.9879978  86.8230014  90.4729992 120.7189978  86.4800014
  89.2619992 120.1699978  88.2250014  88.4969992 120.9529978  88.0350014
  88.6659992 119.3709978  88.7140014  90.2789992 120.5659978  89.1700014
  91.1839992 119.9249978  89.2390014  90.7489992 121.5089978  88.8180014
  89.7519992 120.7919978  90.6000014  89.1109992 119.9139978  90.8260014
  90.4989992 121.0629978  91.3760014  88.6179992 121.8989978  90.6480014
  89.0089992 122.9119978  90.4130014  87.8139992 121.6279978  89.9320014
  87.9419992 122.0939978  92.0450014  88.6139992 122.7029978  92.6860014
  87.0529992 122.7369978  91.8720014  87.5119992 120.7839978  92.7200014
  86.7019992 120.2399978  92.1880014  88.4209992 120.1989978  92.9790014
  86.9549992 121.0259978  94.1150014  86.1039992 121.7289978  93.9860014
  86.5269992 120.0749978  94.4980014  87.7849992 121.6589978  95.2720014
  88.5029992 120.8849978  95.6200014  88.2749992 122.5969978  94.9340014
  86.8439992 121.9769978  96.5130014  87.4029992 122.6879978  97.1580014
  85.8789992 122.4179978  96.1850014  86.4359992 120.6869978  97.2820014
  85.4699992 119.9549978  97.0330014  87.2879992 120.5679978  98.3140014
  86.9529992 119.5229978  99.2140014  85.9779992 119.7609978  99.6910014
  86.9359992 118.5649978  98.6520014  88.0469992 119.4809978 100.3850014
  87.5889992 118.7889978 101.1230014  88.2559992 120.8829978 100.9940014
  87.2439992 121.2679978 101.2440014  88.7399992 120.7669978 101.9870014
  89.1679992 121.6659978 100.1320014  89.1359992 123.1879978 100.2270014
  89.5679992 123.3649978 101.7660014  90.1279992 124.6019978 102.2370014
  90.0189992 125.4599978 101.5410014  89.4529992 124.9599978 103.0430014
  91.6339992 124.3749978 102.4800014  92.1389992 123.8119978 101.7090014
  91.9549992 125.4049978 102.5160014  92.0269992 123.5339978 103.7490014
  92.0619992 122.0699978 103.4290014  93.0159992 121.7269978 103.0560014
  91.8239992 121.4699978 104.2960014  91.3479992 121.7989978 102.6660014
  93.3909992 124.0069978 104.2370014  93.2949992 125.0319978 104.5620014
  93.6999992 123.3499978 105.0370014  94.1139992 123.8829978 103.4450014
  91.0129992 123.8019978 104.8440014  89.9759992 123.7289978 104.5520014
  91.0839992 124.8479978 105.1030014  91.1659992 123.1219978 105.6690014
  90.1009992 123.7629978  99.3370014  87.7719992 123.7419978 100.0680014
  89.2499992 118.9239978  99.8200014  90.1739992 118.4829978 100.7480014
  89.9399992 118.4189978 101.9450014  91.5529992 118.2399978 100.0120014
  91.4719992 117.4289978  99.2560014  92.3659992 117.9159978 100.6960014
  92.0749992 119.4189978  99.3060014  93.1699992 119.2449978  99.2290014
  91.9129992 120.4389978  99.7150014  91.6559992 119.4199978  97.8200014
  90.5579992 119.5809978  97.7880014  91.9449992 118.4449978  97.3730014
  92.3229992 120.5459978  97.0940014  93.3869992 120.5599978  97.4120014
  91.9629992 121.4999978  97.5350014  92.0889992 120.5229978  95.5040014
  91.0359992 120.5749978  95.1540014  92.4659992 119.4969978  95.3050014
  93.0249992 121.5569978  94.7540014  92.9859992 121.3859978  93.6570014
  94.0959992 121.5169978  95.0470014  92.5709992 123.0919978  94.8550014
  92.3009992 123.1299978  95.9320014  91.6259992 123.2789978  94.3010014
  93.6099992 124.1419978  94.6300014  94.0939992 124.5179978  95.5430014
  93.9409992 124.6149978  93.4080014  94.8109992 125.2869978  93.3620014
  93.2869992 124.1749978  92.1160014  92.2479992 123.8349978  92.3150014
  93.8509992 123.4059978  91.5450014  93.0019992 125.4089978  91.2050014
  93.9759992 125.8809978  90.9530014  92.2929992 126.1119978  91.6920014
  92.2589992 124.9329978  89.9630014  91.1779992 124.6849978  90.0390014
  92.7109992 123.9559978  89.6890014  92.5419992 125.7549978  88.6840014
  93.4579992 126.3689978  88.8150014  91.6459992 126.3819978  88.4870014
  92.7609992 124.9859978  87.3640014  93.7219992 124.4279978  87.3520014
  92.7679992 125.8199978  86.6310014  91.6129992 124.0489978  87.1290014
  90.5779992 124.4199978  87.2910014  91.7769992 123.1299978  87.7310014
  91.6229992 123.4919978  85.6920014  90.6099992 123.0449978  85.6140014
  92.2819992 122.6399978  85.4230014  91.6539992 124.5499978  84.5460014
  90.7639992 125.2019978  84.6820014  91.6079992 123.9949978  83.5850014
  92.5929992 125.1329978  84.6570014 109.7809992 116.7189978  82.3500014
 109.5809992 116.5449978  81.2710014 110.4359992 115.9119978  82.7440014
 110.3779992 117.6519978  82.4300014 108.4179992 116.6889978  83.0200014
 107.9569992 117.6999978  82.9930014 107.7699992 115.9639978  82.4820014
 108.4919992 116.2179978  84.4930014 109.1969992 115.3639978  84.5790014
 109.0169992 117.0009978  85.0810014 107.1809992 115.8769978  85.1530014
 106.3869992 116.6199978  84.9260014 106.8969992 114.8879978  84.7330014
 107.3529992 115.6209978  86.7130014 106.4619992 115.0529978  87.0550014
 108.2969992 115.0599978  86.8840014 107.3519992 116.8479978  87.6100014
 107.7419992 116.5819978  88.6160014 107.9359992 117.7719978  87.4130014
 105.9349992 117.4579978  87.5750014 105.9549992 118.0999978  86.6680014
 105.1489992 116.6919978  87.4030014 105.7679992 118.5399978  88.6740014
 105.8449992 118.1729978  89.7200014 106.6359992 119.2329978  88.6960014
 104.4729992 119.3609978  88.4370014 104.1889992 119.5869978  87.3870014
 103.6139992 118.7399978  88.7700014 104.3839992 120.6339978  89.2570014
 105.1019992 121.4009978  88.8940014 103.5159992 121.2049978  88.8640014
 104.3739992 120.5269978  90.7410014 103.6749992 119.6799978  90.9030014
 105.3349992 120.2859978  91.2440014 103.8749992 121.7959978  91.4120014
 104.2459992 122.6959978  90.8770014 102.7649992 121.8319978  91.3980014
 104.4679992 121.8909978  92.9010014 105.5699992 121.9059978  92.7650014
 104.0869992 122.8429978  93.3290014 103.9879992 120.7429978  93.8710014
 103.8689992 121.1299978  94.9060014 102.9629992 120.4989978  93.5210014
 104.9749992 119.5819978  93.9770014 105.0209992 119.1079978  92.9740014
 105.9669992 119.9229978  94.3410014 104.3579992 118.6639978  94.9570014
 103.2719992 118.7819978  95.4080014 105.3019992 117.7269978  95.2480014
 105.1889992 116.8079978  96.3320014 104.2779992 117.0999978  96.8980014
 105.0819992 115.7679978  95.9570014 106.2949992 116.9059978  97.3890014
 105.9519992 116.1919978  98.1690014 106.2709992 118.3509978  98.0430014
 106.9259992 119.0299978  97.4570014 105.2449992 118.7759978  98.0030014
 106.7489992 118.2799978  99.3660014 106.1409992 119.1569978 100.4860014
 107.2909992 118.9569978 101.6020014 108.6909992 118.7239978 101.3000014
 108.9969992 117.6659978 101.1540014 108.9099992 119.2679978 100.3550014
 109.6529992 119.3239978 102.3750014 110.6219992 119.0709978 101.9710014
 109.4979992 120.3889978 102.2890014 109.4779992 118.7649978 103.7740014
 109.5389992 117.2779978 103.7280014 108.8399992 116.9249978 102.9840014
 110.5479992 116.9179978 103.5870014 109.1839992 116.9069978 104.6770014
 110.6959992 119.3269978 104.5630014 110.7159992 118.9419978 105.5720014
 111.6099992 119.1209978 104.0260014 110.6219992 120.3919978 104.7280014
 108.2149992 119.2259978 104.3590014 108.1539992 120.3039978 104.3990014
 108.1709992 118.8319978 105.3640014 107.3599992 118.8009978 103.8540014
 106.0759992 120.5849978 100.0610014 104.8839992 118.5519978 100.8920014
 107.6269992 116.8219978  96.8310014 108.0509992 115.6679978  96.3570014
 107.3979992 114.6549978  96.2320014 109.5349992 115.6869978  95.8850014
 110.0459992 114.7089978  96.0160014 110.1489992 116.2759978  96.6000014
 109.7809992 116.3519978  94.5130014 109.3259992 115.8119978  93.6560014
 110.8799992 116.3639978  94.3550014 109.1149992 117.7149978  94.3210014
 108.0249992 117.6539978  94.1150014 109.5199992 118.0549978  93.3440014
 109.3819992 118.7669978  95.4370014 110.1019992 118.3999978  96.2000014
 108.5449992 119.0629978  96.1050014 109.9759992 120.0119978  94.9130014
 110.9689992 119.7829978  94.4700014 110.1959992 120.7439978  95.7180014
 109.0459992 120.7389978  93.9910014 108.1209992 120.9689978  94.5630014
 108.6689992 120.0089978  93.2440014 109.7209992 121.9239978  93.1930014
 110.0179992 122.6559978  93.9740014 108.9129992 122.4909978  92.6830014
 110.9709992 121.5779978  92.5020014 111.8229992 121.6589978  93.1920014
 111.1389992 121.1629978  91.2740014 112.1269992 120.9999978  90.8200014
 109.9869992 120.8969978  90.2420014 109.1859992 121.6589978  90.3520014
 109.5559992 119.8989978  90.4710014 110.4779992 120.6749978  88.7810014
 111.1709992 119.8129978  88.6770014 111.0359992 121.6129978  88.5690014
 109.3129992 120.4519978  87.7710014 108.4569992 121.1309978  87.9730014
 108.9369992 119.4309978  87.9940014 109.6869992 120.5969978  86.3060014
 110.4969992 119.8509978  86.1580014 110.1139992 121.6019978  86.1040014
 108.6309992 120.3239978  85.2090014 108.3249992 119.2679978  85.3700014
 109.1059992 120.5549978  84.2310014 107.4329992 121.3309978  85.2090014
 107.7499992 122.3709978  84.9830014 107.0469992 121.3879978  86.2490014
 106.2669992 121.0799978  84.2630014 106.6219992 121.2769978  83.2290014
 105.5879992 121.8829978  84.6210014 105.7259992 119.6349978  84.3550014
 104.8249992 119.5799978  83.7070014 105.5079992 119.4769978  85.4320014
 106.4879992 118.8999978  84.0170014  27.0299992  94.9499978  85.2670014
  26.7639992  94.0249978  84.7110014  27.6729992  95.5829978  84.6200014
  26.0909992  95.5119978  85.4590014  27.8699992  94.4329978  86.4840014
  28.8009992  94.0849978  85.9870014  28.1459992  95.3049978  87.1160014
  27.2329992  93.4099978  87.4610014  26.4779992  93.8859978  88.1220014
  26.7829992  92.5259978  86.9610014  28.2499992  92.7979978  88.5350014
  28.1839992  91.7019978  88.7040014  29.3249992  92.9669978  88.3070014
  28.1419992  93.5249978  89.8750014  27.1279992  93.2159978  90.2080014
  28.8399992  93.2169978  90.6830014  28.2519992  95.1409978  89.7970014
  29.2039992  95.4379978  89.3070014  27.3779992  95.4169978  89.1680014
  27.9379992  95.7769978  91.1550014  28.6019992  95.5449978  92.0150014
  28.1449992  96.8639978  91.0480014  26.5209992  95.6509978  91.5440014
  25.8489992  96.1889978  90.8420014  26.1579992  94.6259978  91.7720014
  26.3049992  96.4209978  92.8670014  27.0129992  96.0209978  93.6240014
  26.5549992  97.4959978  92.7360014  24.8739992  96.3619978  93.3600014
  24.9959992  96.9869978  94.2700014  24.2189992  96.9219978  92.6580014
  24.3899992  94.9419978  93.7030014  24.4629992  94.5449978  92.6680014
  25.0769992  94.5309978  94.4730014  22.9379992  94.9609978  94.3150014
  22.7539992  95.6219978  95.1890014  22.3529992  95.4899978  93.5320014
  22.3229992  93.5609978  94.6590014  21.5349992  93.7519978  95.4190014
  21.9579992  93.0139978  93.7630014  23.3729992  92.6029978  95.3140014
  23.9669992  92.1799978  94.4760014  23.8189992  93.2479978  96.1010014
  22.7779992  91.2869978  95.8460014  21.9579992  91.4359978  96.5810014
  22.1949992  90.7619978  95.0590014  23.8229992  90.2949978  96.3950014
  24.8129992  89.9729978  95.7980014  23.6209992  90.1089978  97.7360014
  24.7649992  89.6499978  98.5080014  24.2709992  88.9999978  99.2620014
  25.5349992  89.0589978  97.9670014  25.4199992  90.7879978  99.3210014
  26.1499992  90.2009978  99.9190014  24.1769992  91.4029978 100.0990014
  23.4079992  91.8559978  99.4380014  23.7799992  90.7259978 100.8850014
  24.7529992  92.5259978 100.8180014  24.0759992  93.0709978 102.0840014
  25.2209992  93.9619978 102.9080014  26.4129992  93.2659978 103.2050014
  26.7219992  93.6319978 104.2080014  26.3419992  92.1639978 103.3290014
  27.6459992  93.6609978 102.3540014  28.5099992  93.3269978 102.9100014
  27.6469992  93.0069978 101.4940014  27.8479992  95.1169978 101.8040014
  27.7909992  96.0809978 102.9280014  26.7539992  96.1379978 103.2230014
  28.3139992  95.7389978 103.8090014  28.1449992  97.0639978 102.6550014
  29.2389992  95.1399978 101.2280014  29.2209992  94.3989978 100.4430014
  29.4349992  96.0219978 100.6360014  29.9059992  94.8939978 102.0420014
  26.8419992  95.3759978 100.7440014  26.8819992  96.3319978 100.2440014
  25.8529992  95.1899978 101.1350014  26.9029992  94.5639978 100.0350014
  22.9739992  93.9779978 101.5630014  23.5519992  91.9259978 102.8680014
  26.0179992  91.7039978  98.4310014  27.2059992  91.3469978  97.9090014
  27.8739992  90.3799978  98.3070014  27.6029992  92.2939978  96.7870014
  27.9419992  93.1399978  97.4230014  26.7449992  92.6239978  96.1620014
  28.7969992  91.6879978  96.0100014  29.6949992  91.3429978  96.5660014
  29.1839992  92.5169978  95.3810014  28.2639992  90.4669978  95.2450014
  27.1889992  90.6469978  95.0330014  28.4809992  89.5009978  95.7490014
  28.9009992  90.4599978  93.8390014  30.0109992  90.5009978  93.8170014
  28.5019992  91.2579978  93.1760014  28.5269992  89.1299978  93.1340014
  27.4289992  88.9589978  93.1390014  28.9859992  88.3249978  93.7470014
  29.1159992  88.9729978  91.7310014  29.1939992  87.8799978  91.5510014
  30.1389992  89.3939978  91.8420014  28.2629992  89.6269978  90.6890014
  28.8849992  89.8069978  89.7870014  27.9449992  90.6379978  91.0240014
  27.0239992  88.8599978  90.3510014  27.1899992  87.8329978  89.9960014
  25.7049992  89.1379978  90.6190014  24.9719992  88.4089978  90.2410014
  25.1019992  90.3559978  91.3090014  25.9249992  90.9039978  91.8160014
  24.3789992  89.9879978  92.0680014  24.3429992  91.2039978  90.2390014
  23.7039992  90.5099978  89.6540014  25.1219992  91.6119978  89.5590014
  23.5369992  92.2849978  90.9030014  24.3009992  92.8169978  91.5100014
  22.8109992  91.7399978  91.5440014  22.8089992  93.2349978  89.9610014
  23.5149992  93.9209978  89.4470014  22.1819992  93.8019978  90.6820014
  21.8819992  92.6619978  88.9170014  20.9139992  93.1959978  89.0290014
  21.7219992  91.6099978  89.2330014  22.4129992  92.7769978  87.4510014
  23.1359992  91.9519978  87.2730014  22.9489992  93.7459978  87.3570014
  21.2779992  92.5449978  86.4560014  20.3809992  93.1179978  86.7730014
  21.0059992  91.4679978  86.4660014  21.6849992  92.9139978  85.0200014
  22.4889992  92.2739978  84.5980014  21.9249992  93.9949978  84.9320014
  20.8619992  92.9579978  84.2750014  80.8739992 125.1109978  84.8130014
  80.7819992 124.3519978  84.0060014  80.5149992 126.0559978  84.3520014
  80.1969992 124.7399978  85.6120014  82.3069992 125.1009978  85.1640014
  82.7789992 124.1119978  85.3480014  82.7869992 125.5629978  84.2740014
  82.6189992 125.9769978  86.4120014  83.6799992 126.3039978  86.4200014
  81.9539992 126.8659978  86.4470014  82.4279992 125.1409978  87.7260014
  82.2779992 125.8319978  88.5820014  81.4959992 124.5389978  87.6740014
  83.5489992 124.1509978  88.0330014  83.8809992 123.6079978  87.1230014
  84.3589992 124.7959978  88.4370014  83.1389992 123.0629978  89.0430014
  82.3259992 122.4939978  88.5440014  83.9429992 122.3019978  89.1410014
  82.6089992 123.6039978  90.3760014  81.8139992 124.3469978  90.1500014
  82.0159992 122.8169978  90.8870014  83.6819992 124.0499978  91.3260014
  84.2769992 123.1499978  91.5900014  84.3879992 124.7499978  90.8290014
  83.1949992 124.6619978  92.6790014  82.8029992 125.6919978  92.5310014
  82.3019992 124.1099978  93.0420014  84.3029992 124.8309978  93.7670014
  84.5509992 123.7879978  94.0570014  85.1589992 125.3309978  93.2660014
  83.8959992 125.6389978  95.0140014  82.8509992 125.3819978  95.2920014
  84.5399992 125.3489978  95.8720014  83.7139992 127.1809978  94.7690014
  84.6409992 127.7489978  94.5410014  82.9929992 127.2119978  93.9240014
  82.8839992 128.0069978  95.7860014  82.7149992 128.9289978  95.1900014
  81.8859992 127.5329978  95.6660014  83.4219992 128.1229978  97.2200014
  82.8319992 127.5559978  97.9710014  84.4689992 127.7499978  97.1960014
  83.2599992 129.5449978  97.5990014  83.8259992 129.7719978  98.5270014
  83.6109992 130.3059978  96.8700014  81.7399992 129.9119978  97.8150014
  80.9279992 130.1369978  96.9220014  81.3379992 129.8849978  99.1450014
  79.9519992 129.9479978  99.4440014  79.8749992 130.6619978 100.2920014
  79.3219992 130.4209978  98.6610014  79.4629992 128.5899978  99.8250014
  78.3699992 128.7169978  99.9820014  80.0899992 128.1369978 101.1860014
  79.7339992 128.9029978 101.9080014  79.7089992 127.1359978 101.4820014
  81.5149992 128.1149978 100.9980014  82.4679992 127.2259978 101.7490014
  81.9319992 125.7729978 101.3010014  82.6449992 124.5329978 101.5390014
  82.5839992 123.9389978 100.6020014  83.6749992 124.7869978 101.8680014
  81.9549992 123.7409978 102.6920014  82.5209992 122.8599978 102.9560014
  81.9399992 124.3699978 103.5690014  80.4349992 123.3079978 102.5080014
  79.5819992 124.5129978 102.4820014  78.5579992 124.1959978 102.6130014
  79.8929992 125.1259978 103.3150014  79.6579992 125.0869978 101.5710014
  80.2759992 122.5419978 101.1530014  80.5939992 123.2119978 100.3680014
  80.9599992 121.7119978 101.2510014  79.2869992 122.1719978 100.9270014
  79.9729992 122.4119978 103.6770014  80.0289992 123.0029978 104.5790014
  80.5219992 121.4819978 103.6750014  78.9529992 122.0909978 103.5310014
  83.8069992 127.3799978 101.2080014  82.2459992 127.3869978 103.1990014
  79.7409992 127.6509978  98.7800014  78.7319992 127.3599978  97.9330014
  77.6449992 127.9139978  97.9690014  79.0429992 126.3959978  96.8100014
  79.0729992 125.3609978  97.2140014  80.0099992 126.7059978  96.3590014
  78.0959992 126.3989978  95.5820014  77.0569992 126.2589978  95.9500014
  78.2739992 125.5999978  94.8320014  77.9379992 127.8119978  94.8550014
  77.5249992 128.5939978  95.5270014  77.1029992 127.6039978  94.1510014
  79.1409992 128.4159978  94.1650014  79.8589992 127.7839978  93.6000014
  79.8379992 128.7849978  94.9480014  78.8089992 129.5959978  93.2180014
  78.3439992 130.3949978  93.8350014  78.0989992 129.2789978  92.4250014
  80.0469992 130.3539978  92.6610014  80.5839992 130.9409978  93.4360014
  79.7419992 131.1359978  91.9340014  81.1399992 129.5719978  92.0130014
  81.6789992 129.0649978  92.8420014  81.8389992 130.2549978  91.4840014
  80.6189992 128.5479978  91.0950014  80.2759992 127.6059978  91.5470014
  80.4459992 128.7209978  89.7740014  80.0619992 127.8859978  89.1700014
  80.7569992 129.9739978  88.9860014  81.2889992 130.6979978  89.6390014
  79.7889992 130.4669978  88.7540014  81.4949992 129.5109978  87.7860014
  80.8529992 128.7349978  87.3160014  82.4069992 129.0839978  88.2560014
  81.9029992 130.5549978  86.7240014  82.6559992 131.1749978  87.2560014
  81.0699992 131.2579978  86.5050014  82.4449992 130.0139978  85.4620014
  83.3839992 129.4399978  85.6180014  82.7239992 130.9249978  84.8890014
  81.4199992 129.4049978  84.4430014  80.7399992 128.6089978  84.8140014
  82.0129992 129.0009978  83.5940014  80.5309992 130.4379978  83.6680014
  81.1669992 131.2299978  83.2180014  79.8619992 130.9499978  84.3930014
  79.7639992 129.8689978  82.4810014  80.4279992 129.5479978  81.6510014
  79.1949992 130.7249978  82.0590014  78.5869992 128.8469978  82.7180014
  78.2359992 128.3849978  81.7700014  77.8339992 129.3899978  83.3290014
  79.0539992 128.0439978  83.3280014 120.7219992 113.0089978  85.0030014
 121.1639992 112.7639978  84.0130014 121.3819992 113.7299978  85.5310014
 119.6769992 113.3539978  84.8540014 120.7119992 111.7569978  85.8520014
 121.6419992 111.4909978  86.3970014 119.9569992 111.9329978  86.6480014
 120.2959992 110.4649978  85.0750014 120.2139992 109.6119978  85.7820014
 119.3259992 110.7399978  84.6080014 121.2309992 110.1199978  83.8860014
 120.8329992 110.6529978  82.9960014 122.2699992 110.5119978  83.9110014
 121.4179992 108.6409978  83.4710014 120.4779992 108.1109978  83.2060014
 121.9709992 108.6909978  82.5090014 122.2789992 107.8619978  84.4540014
 121.7309992 107.9239978  85.4190014 122.2459992 106.7849978  84.1810014
 123.7159992 108.3499978  84.5750014 124.1389992 108.3129978  83.5490014
 123.7289992 109.3699978  85.0150014 124.4929992 107.2859978  85.4020014
 124.3749992 106.3739978  84.7780014 125.5819992 107.4229978  85.5730014
 123.8709992 106.8439978  86.7840014 122.8749992 106.3839978  86.6080014
 124.4329992 105.9309978  87.0760014 123.6909992 107.8749978  87.9200014
 122.9159992 108.6189978  87.6370014 123.3579992 107.2319978  88.7620014
 125.0369992 108.4089978  88.3940014 125.6259992 107.5959978  88.8710014
 125.5419992 108.8469978  87.5070014 124.9389992 109.4559978  89.4620014
 125.9749992 109.7549978  89.7310014 124.4329992 110.3789978  89.1080014
 124.1459992 109.0279978  90.7220014 123.0959992 108.7479978  90.4930014
 124.6099992 108.1329978  91.1890014 124.0149992 110.1149978  91.8910014
 125.0719992 110.2259978  92.2140014 123.6519992 110.9829978  91.3000014
 123.0499992 109.5899978  92.9830014 122.0509992 109.4639978  92.5130014
 123.4329992 108.6499978  93.4340014 122.9689992 110.6959978  94.0420014
 123.5489992 111.7469978  93.9690014 122.1109992 110.3429978  95.0600014
 121.9469992 111.3489978  96.0720014 122.9599992 111.7099978  96.3540014
 121.4079992 112.1519978  95.5250014 120.9959992 110.9589978  97.2210014
 120.8219992 111.7929978  97.9330014 121.5939992 109.9289978  98.1800014
 121.9199992 108.9909978  97.6810014 122.4929992 110.4119978  98.6190014
 120.6989992 109.5639978  99.2300014 121.2489992 108.5769978 100.2620014
 120.2699992 108.7709978 101.5460014 119.1069992 109.5699978 101.4680014
 119.4729992 110.5949978 101.2430014 118.3609992 109.2049978 100.7300014
 118.3239992 109.6859978 102.8970014 118.9169992 110.3799978 103.4760014
 117.3859992 110.1319978 102.6010014 118.2969992 108.5399978 103.9150014
 119.6709992 108.2599978 104.3730014 119.7789992 107.7839978 105.3370014
 120.1779992 107.6109978 103.6750014 120.2699992 109.1519978 104.4850014
 117.5639992 109.0529978 105.1330014 117.3469992 108.2179978 105.7830014
 118.2679992 109.6739978 105.6670014 116.6639992 109.4649978 104.7010014
 117.6729992 107.3239978 103.3260014 117.5119992 106.5319978 104.0430014
 118.2889992 107.0619978 102.4790014 116.6539992 107.5889978 103.0850014
 121.0869992 107.1439978  99.7230014 122.6049992 109.0129978 100.6320014
 119.8349992 110.4369978  96.6270014 118.6999992 111.0729978  96.8100014
 118.6669992 112.0809978  97.4950014 117.5119992 110.4509978  96.0310014
 117.5399992 111.1459978  95.1650014 116.6039992 110.6479978  96.6400014
 117.7539992 108.9839978  95.6960014 116.7299992 108.5879978  95.5230014
 118.2519992 108.3449978  96.4560014 118.5729992 108.8039978  94.4100014
 119.5919992 108.8869978  94.8430014 118.4629992 109.6309978  93.6760014
 118.4419992 107.3419978  93.7750014 117.4199992 107.3109978  93.3390014
 118.4539992 106.6009978  94.6030014 119.5519992 107.0559978  92.7430014
 120.4259992 106.6219978  93.2730014 119.7059992 108.0149978  92.2030014
 119.2459992 105.9229978  91.6340014 118.2319992 106.0389978  91.1960014
 119.2799992 104.9809978  92.2230014 120.2589992 105.9749978  90.4540014
 121.2929992 105.9449978  90.8600014 120.1529992 107.0049978  90.0510014
 120.0139992 104.9829978  89.3590014 120.0219992 103.9399978  89.7080014
 119.8899992 105.2169978  88.0790014 119.8419992 104.3679978  87.3810014
 119.9599992 106.6789978  87.4720014 120.0359992 106.6209978  86.3650014
 120.8899992 107.2039978  87.7790014 118.7839992 107.5699978  87.8470014
 119.1889992 108.5789978  87.6230014 118.4799992 107.5009978  88.9140014
 117.4539992 107.5029978  87.0330014 116.8289992 108.4079978  87.1920014
 116.8649992 106.6009978  87.3040014 117.6359992 107.4029978  85.5220014
 118.0119992 106.3989978  85.2270014 118.3939992 108.1929978  85.3350014
 116.5229992 107.8509978  84.6930014 116.3669992 108.9159978  84.9680014
 115.6669992 107.3159978  85.1560014 116.5879992 107.6219978  83.1600014
 116.9849992 106.5999978  82.9820014 117.3289992 108.2639978  82.6380014
 115.2799992 107.9439978  82.4300014 115.0579992 109.0109978  82.6430014
 114.4879992 107.3519978  82.9360014 115.3349992 107.7999978  80.9120014
 116.2109992 108.3729978  80.5390014 114.5289992 108.3109978  80.3440014
 115.4479992 106.7419978  80.5900014  34.3379992  48.2229978  80.9740014
  33.3159992  48.3009978  80.5440014  34.8289992  47.2719978  80.6780014
  35.0289992  49.0509978  80.7100014  34.2779992  48.3349978  82.5110014
  35.3259992  48.2519978  82.8710014  33.9059992  49.3569978  82.7360014
  33.4029992  47.2999978  83.2800014  32.3139992  47.5139978  83.2290014
  33.5989992  46.2769978  82.8930014  33.7409992  47.2539978  84.7790014
  34.4099992  46.3749978  84.9000014  34.1539992  48.2429978  85.0720014
  32.3799992  47.1279978  85.6130014  31.5719992  47.7459978  85.1670014
  32.0469992  46.0769978  85.7480014  32.5069992  47.8499978  86.9450014
  33.3849992  48.5309978  86.9790014  31.6639992  48.5559978  87.1040014
  32.7299992  46.9649978  88.1300014  31.7859992  46.4109978  88.3180014
  33.5569992  46.2359978  87.9970014  33.0419992  47.6679978  89.5380014
  34.1209992  47.9289978  89.5230014  32.4329992  48.5899978  89.6530014
  32.7049992  46.7289978  90.6950014  33.3559992  45.8379978  90.5700014
  33.0449992  47.3089978  91.5800014  31.2549992  46.2109978  91.0080014
  31.0219992  45.4689978  90.2150014  31.1699992  45.6809978  91.9810014
  30.2119992  47.3119978  91.0710014  30.5179992  48.0749978  91.8190014
  30.0809992  47.9559978  90.1760014  28.8169992  46.7369978  91.4240014
  28.0479992  47.5219978  91.2570014  28.5169992  45.9549978  90.6940014
  28.6149992  46.1679978  92.8870014  27.5389992  46.0489978  93.1390014
  29.0989992  45.1689978  92.9160014  29.2049992  47.1299978  93.9950014
  30.2979992  47.1989978  93.8080014  28.8049992  48.1569978  93.8640014
  29.0839992  46.6949978  95.4900014  29.0259992  47.5179978  96.2330014
  28.1819992  46.0489978  95.5550014  30.1959992  45.6999978  95.9230014
  30.9149992  45.1539978  95.1520014  30.1259992  45.5039978  97.2960014
  30.9559992  44.5999978  97.9820014  30.2429992  43.9649978  98.5510014
  31.3629992  43.9489978  97.1790014  31.8809992  45.4139978  98.9670014
  32.3539992  44.6519978  99.6230014  30.9819992  46.3779978  99.8020014
  30.4749992  47.0529978  99.0800014  30.2239992  45.8179978 100.3890014
  31.9269992  47.1659978 100.6640014  31.1519992  48.0969978 101.6410014
  32.3059992  49.1599978 102.2920014  33.1369992  49.9549978 101.4780014
  34.1659992  50.0489978 101.8860014  33.1979992  49.4099978 100.5120014
  32.5879992  51.3819978 101.3120014  33.2629992  51.9159978 100.6600014
  31.6519992  51.2709978 100.7850014  32.3659992  52.2589978 102.5830014
  32.0909992  53.6409978 102.0710014  31.8959992  54.2389978 102.9490014
  32.9099992  54.0799978 101.5210014  31.1849992  53.6389978 101.4840014
  31.1809992  51.8389978 103.3820014  30.2379992  51.9249978 102.8620014
  31.1849992  50.8109978 103.7140014  31.1259992  52.4889978 104.2430014
  33.5939992  52.2599978 103.5130014  34.3789992  52.6009978 102.8540014
  33.7779992  51.2979978 103.9690014  33.4849992  53.0529978 104.2380014
  30.2399992  48.9089978 100.7870014  30.5929992  47.3829978 102.7830014
  32.9119992  46.2019978  98.3300014  33.6209992  45.7219978  97.3100014
  33.5779992  44.5979978  96.8970014  34.3659992  46.8639978  96.5410014
  34.8239992  46.4369978  95.6230014  35.2019992  47.0769978  97.2410014
  33.4769992  48.1279978  96.2510014  33.5099992  48.6929978  97.2070014
  32.4409992  47.7359978  96.1720014  33.8349992  48.9419978  95.0890014
  33.9569992  48.2819978  94.2030014  34.8749992  49.3319978  95.0690014
  32.8209992  50.0399978  94.9180014  32.9139992  50.8219978  95.7020014
  31.7909992  49.6309978  94.9820014  32.9149992  50.6769978  93.4580014
  32.6949992  49.8589978  92.7400014  33.9459992  51.0399978  93.2610014
  31.9659992  51.7969978  93.3730014  32.1109992  52.5089978  94.2140014
  30.9409992  51.3719978  93.3290014  32.2169992  52.4979978  92.0030014
  32.3389992  51.7999978  91.1480014  33.1459992  53.0889978  92.1510014
  31.0339992  53.4319978  91.9120014  31.1159992  54.4119978  92.4060014
  29.9729992  53.0689978  91.2000014  29.0949992  53.7279978  91.2630014
  29.6899992  51.8389978  90.3830014  28.7609992  51.2649978  90.5890014
  30.4419992  51.0339978  90.5290014  29.6139992  52.2389978  88.9550014
  30.6659992  52.3949978  88.6340014  29.0259992  53.1579978  88.7490014
  29.0749992  51.0529978  88.0510014  28.1239992  50.9109978  88.6090014
  29.6769992  50.1239978  88.1400014  29.0639992  51.4509978  86.5840014
  28.4199992  52.3509978  86.4820014  28.4009992  50.6809978  86.1360014
  30.4109992  51.5859978  85.9770014  30.9589992  50.6689978  86.2810014
  30.9979992  52.4559978  86.3410014  30.3369992  51.6489978  84.4330014
  29.8439992  52.5989978  84.1350014  29.6499992  50.8889978  84.0040014
  31.6999992  51.7119978  83.7380014  32.3729992  50.8539978  83.9500014
  32.2619992  52.6039978  84.0900014  31.4769992  51.7979978  82.2530014
  32.3799992  52.0429978  81.6540014  30.7679992  52.6369978  82.0830014
  30.9779992  50.8819978  81.8720014  42.5829992  39.2299978  84.2330014
  41.9889992  39.3809978  83.3070014  43.4949992  38.6819978  83.9150014
  42.8549992  40.2709978  84.5120014  41.7819992  38.4449978  85.3470014
  41.1159992  39.1389978  85.9030014  41.0879992  37.6609978  84.9740014
  42.6949992  37.5529978  86.2880014  42.0259992  36.9859978  86.9700014
  43.3139992  36.8559978  85.6850014  43.5859992  38.3519978  87.3170014
  44.2789992  37.7139978  87.9060014  44.0789992  39.1819978  86.7660014
  42.6579992  38.9999978  88.4510014  41.7919992  39.5479978  88.0220014
  42.1939992  38.2769978  89.1550014  43.3139992  40.0889978  89.3680014
  43.6159992  41.0009978  88.8100014  42.5209992  40.4779978  90.0420014
  44.4819992  39.5349978  90.1970014  44.1609992  38.5869978  90.6790014
  45.3439992  39.2489978  89.5550014  45.1449992  40.6069978  91.0910014
  45.5109992  41.4259978  90.4360014  44.4159992  41.0769978  91.7860014
  46.2929992  40.1829978  92.0160014  47.2489992  39.9239978  91.5130014
  46.4489992  41.1179978  92.5950014  46.0249992  38.9309978  92.9570014
  46.0129992  38.0619978  92.2640014  46.9739992  38.6959978  93.4850014
  44.8499992  38.8829978  93.8520014  43.9409992  38.8139978  93.2170014
  44.8719992  37.9479978  94.4510014  44.7969992  40.1209978  94.7020014
  45.7999992  40.2839978  95.1530014  44.5399992  41.0449978  94.1410014
  43.7879992  39.9589978  95.8780014  42.8959992  39.5469978  95.3600014
  44.2469992  39.2089978  96.5580014  43.6449992  41.2689978  96.7020014
  43.2829992  42.0649978  96.0180014  42.8499992  41.1619978  97.4710014
  44.9649992  41.5659978  97.4640014  45.2309992  40.6689978  98.0640014
  45.9139992  41.6739978  96.8970014  44.8139992  42.7739978  98.2810014
  45.6489992  43.7149978  98.3140014  43.7229992  42.6909978  99.0620014
  43.4259992  43.7349978  99.9590014  44.3159992  43.8709978 100.6100014
  43.3439992  44.6829978  99.3860014  42.2159992  43.3549978 100.8360014
  42.0559992  44.2579978 101.4630014  42.5129992  42.0499978 101.6530014
  43.5179992  42.1239978 102.1200014  41.6579992  41.9219978 102.3500014
  42.4639992  41.0009978 100.6860014  43.0599992  39.5039978 100.7610014
  42.9409992  39.0979978 102.2620014  43.1449992  37.7369978 102.6790014
  43.8769992  37.2339978 102.0110014  43.4819992  37.6639978 103.7350014
  41.8789992  36.8709978 102.5320014  41.7049992  36.8239978 101.4670014
  42.1099992  35.8729978 102.8750014  40.5399992  37.3899978 103.1650014
  40.7139992  38.3699978 104.2820014  41.4039992  39.1599978 104.0220014
  39.7929992  38.7719978 104.6800014  41.2249992  37.7329978 104.9890014
  39.7289992  38.0989978 102.1640014  39.1389992  37.3869978 101.6060014
  38.9759992  38.7349978 102.6050014  40.3819992  38.7559978 101.6100014
  39.7349992  36.2019978 103.6030014  38.7409992  36.5229978 103.8760014
  40.2089992  35.7359978 104.4550014  39.5529992  35.5689978 102.7470014
  42.2349992  38.5269978  99.9740014  44.4589992  39.5309978 100.3980014
  41.0879992  43.2119978  99.9200014  39.8819992  43.0729978 100.4640014
  39.5959992  42.8529978 101.6560014  38.8089992  43.3079978  99.3520014
  38.8279992  44.3339978  98.9270014  37.8069992  43.0739978  99.7700014
  39.1529992  42.3339978  98.1960014  40.1819992  42.5689978  97.8480014
  38.4389992  42.5699978  97.3780014  38.9679992  40.8589978  98.5820014
  38.0719992  40.8889978  99.2380014  39.8149992  40.5339978  99.2230014
  38.7769992  39.9309978  97.4320014  37.9949992  40.4639978  96.8490014
  38.4109992  38.9529978  97.8100014  40.0339992  39.7389978  96.5380014
  40.6949992  39.1809978  97.2360014  40.5199992  40.7309978  96.4140014
  39.9189992  38.9309978  95.2070014  39.6079992  37.9369978  95.5940014
  40.8549992  38.6849978  94.6630014  39.1289992  39.6379978  94.0310014
  39.6649992  40.6089978  94.0960014  38.0759992  39.7889978  94.3490014
  39.1729992  39.0719978  92.6540014  39.2889992  37.9789978  92.6920014
  39.2099992  39.6689978  91.4590014  39.0949992  39.0269978  90.5730014
  39.2839992  41.1689978  91.1770014  40.3629992  41.2689978  90.9330014
  38.8829992  41.8379978  91.9680014  38.5319992  41.5119978  89.8380014
  37.4419992  41.4019978  90.0250014  38.6839992  40.7729978  89.0230014
  38.7269992  42.9479978  89.4180014  38.8589992  43.5289978  90.3560014
  37.7979992  43.3099978  88.9270014  39.7799992  43.3629978  88.3490014
  40.8099992  43.1699978  88.7190014  39.6159992  44.4579978  88.2550014
  39.5529992  42.7029978  86.9930014  38.5009992  42.6889978  86.6380014
  39.8799992  41.6419978  87.0230014  40.4109992  43.4139978  85.9260014
  40.0819992  44.3909978  85.5110014  40.2689992  42.6909978  85.0940014
  41.9239992  43.4399978  86.3290014  42.1979992  42.5149978  86.8800014
  42.2259992  44.3459978  86.8960014  42.8219992  43.5139978  85.0660014
  42.8119992  42.5139978  84.5840014  43.8569992  43.7879978  85.3630014
  42.4889992  44.2809978  84.3330014 119.9459992  41.2349978  85.4610014
 119.2669992  40.6399978  84.8130014 119.9409992  42.2079978  84.9250014
 119.4849992  41.3629978  86.4640014 121.2469992  40.6189978  85.6570014
 121.0539992  39.6929978  86.2410014 121.6979992  40.3239978  84.6860014
 122.2159992  41.3609978  86.4790014 122.3439992  42.3419978  85.9740014
 121.9279992  41.7209978  87.4890014 123.5809992  40.6919978  86.4150014
 123.4959992  39.5859978  86.4700014 123.8719992  40.6149978  85.3460014
 124.6609992  41.3989978  87.2570014 125.6699992  41.0989978  86.9030014
 124.6959992  42.5009978  87.1220014 124.3619992  41.1089978  88.7620014
 123.4679992  41.6179978  89.1820014 124.2159992  40.0079978  88.7180014
 125.4999992  41.4579978  89.7000014 126.2609992  40.6569978  89.5810014
 125.8099992  42.4389978  89.2800014 125.0759992  41.5749978  91.1190014
 124.2829992  42.3469978  91.2150014 124.7119992  40.6289978  91.5750014
 126.2079992  42.1749978  92.0030014 127.1379992  41.6149978  91.7660014
 126.4079992  43.2469978  91.7890014 125.8229992  42.0879978  93.4380014
 125.4009992  41.0989978  93.7170014 126.7209992  42.2189978  94.0780014
 124.7539992  43.1949978  93.7600014 124.8769992  44.0459978  93.0570014
 123.6939992  42.8679978  93.6910014 124.8729992  43.6719978  95.2040014
 124.5879992  42.8749978  95.9240014 125.8939992  44.0769978  95.3690014
 123.9239992  44.8419978  95.4430014 124.1329992  45.7029978  94.7730014
 122.8899992  44.4749978  95.2690014 123.9049992  45.4469978  96.8400014
 123.6599992  44.6379978  97.5610014 124.9699992  45.6889978  97.0400014
 122.9469992  46.5339978  97.1340014 123.1359992  47.0279978  98.1110014
 123.2549992  47.2809978  96.3720014 121.5979992  46.1059978  96.9270014
 120.9829992  46.2289978  95.8640014 121.1239992  45.5489978  98.0540014
 119.7289992  45.1479978  97.9280014 119.2539992  45.4159978  98.8960014
 119.2759992  45.6079978  97.0240014 119.5089992  43.6179978  97.8320014
 118.4089992  43.4749978  97.8960014 120.2509992  42.7779978  98.9760014
 119.6339992  42.7559978  99.8990014 120.3389992  41.7409978  98.5880014
 121.5699992  43.2579978  99.2020014 122.6049992  42.4459978 100.0410014
 121.8499992  42.4709978 101.4780014 122.5969992  42.8349978 102.5610014
 123.5329992  42.2919978 102.8120014 122.8199992  43.9219978 102.4990014
 121.7249992  42.7329978 103.8200014 121.5609992  41.6989978 104.0850014
 122.3359992  42.9909978 104.6720014 120.4649992  43.5469978 103.9110014
 119.3959992  43.2579978 102.8260014 119.0819992  42.2249978 102.7750014
 118.6639992  44.0439978 102.9380014 119.9609992  43.3839978 101.9140014
 119.7919992  43.3009978 105.2440014 120.2779992  43.9229978 105.9810014
 118.7229992  43.4349978 105.1710014 120.0699992  42.2849978 105.4850014
 120.8589992  45.0299978 103.8450014 121.3729992  45.1069978 102.8990014
 121.4189992  45.3879978 104.6960014 119.9519992  45.6129978 103.7750014
 122.6999992  41.0779978  99.5300014 123.8369992  43.2829978 100.0470014
 120.0959992  43.2739978  96.5590014 119.6859992  42.0599978  96.1080014
 118.8949992  41.3519978  96.6570014 120.6019992  41.5889978  94.9100014
 120.6789992  40.4809978  94.9260014 121.6039992  42.0409978  95.0720014
 119.9659992  42.0509978  93.5990014 118.8729992  42.1689978  93.7600014
 120.0869992  41.2259978  92.8650014 120.5439992  43.3459978  93.1080014
 121.6459992  43.3859978  92.9790014 120.3409992  44.1459978  93.8520014
 119.9199992  43.8669978  91.7590014 118.8259992  43.9429978  91.9350014
 120.1789992  43.0879978  91.0100014 120.4929992  45.2359978  91.3310014
 121.6039992  45.2379978  91.3550014 120.0169992  46.0509978  91.9170014
 120.1639992  45.5219978  89.7960014 120.5049992  46.5399978  89.5100014
 119.1089992  45.3769978  89.4770014 120.9429992  44.6739978  88.6760014
 120.4269992  44.9219978  87.7230014 120.6449992  43.6099978  88.7830014
 122.4319992  44.8779978  88.6200014 123.0639992  44.3839978  89.3720014
 123.1319992  45.4699978  87.5960014 124.2129992  45.6699978  87.5710014
 122.4449992  45.9949978  86.3750014 122.3469992  47.0979978  86.4670014
 121.3819992  45.7289978  86.1940014 123.1539992  45.8849978  84.9600014
 124.1559992  46.3039978  85.1940014 122.7409992  46.4729978  84.1120014
 123.4739992  44.5299978  84.3380014 123.8009992  43.7529978  85.0620014
 124.3769992  44.6999978  83.7140014 122.2739992  43.9849978  83.5240014
 121.8719992  44.6239978  82.7090014 121.4499992  43.6259978  84.1780014
 122.5779992  42.8469978  82.5500014 123.1789992  41.9819978  82.9040014
 123.1769992  43.1789978  81.6750014 121.2909992  42.2669978  81.9360014
 120.6949992  43.1189978  81.5470014 120.6949992  41.7179978  82.6960014
 121.5389992  41.3769978  80.7270014 122.2809992  40.5809978  80.9520014
 121.9209992  42.0669978  79.9450014 120.2219992  40.8239978  80.2760014
 120.4139992  40.0829978  79.4710014 119.6659992  41.6079978  79.7200014
 119.5909992  40.3119978  81.0340014 132.8019992  87.0179978  84.2810014
 131.8319992  87.0249978  84.8230014 133.5399992  86.6119978  85.0060014
 132.6829992  86.4249978  83.3490014 133.0689992  88.4599978  83.7840014
 133.9259992  88.3709978  83.0820014 132.1649992  88.7029978  83.1840014
 133.2009992  89.4279978  84.9330014 133.5249992  90.4049978  84.5160014
 132.2059992  89.5199978  85.4190014 134.3829992  89.2079978  85.9820014
 134.1159992  88.3869978  86.6820014 135.3169992  88.8869978  85.4720014
 134.6209992  90.4589978  86.8510014 135.5999992  90.3179978  87.3580014
 134.7499992  91.3199978  86.1620014 133.4769992  90.7789978  87.8410014
 132.4229992  90.7029978  87.4990014 133.6389992  90.0409978  88.6560014
 133.7269992  92.0079978  88.6950014 134.6999992  91.8339978  89.2010014
 133.8229992  92.8949978  88.0330014 132.7169992  92.2669978  89.8070014
 132.6169992  93.3719978  89.8440014 131.7079992  91.9279978  89.4890014
 132.9819992  91.8229978  91.2530014 133.4539992  90.8319978  91.0840014
 133.7779992  92.4909978  91.6460014 131.8019992  91.6989978  92.1210014
 131.0879992  90.9479978  91.7200014 132.1099992  91.2499978  93.0890014
 131.0249992  93.0369978  92.4160014 131.8489992  93.7509978  92.6290014
 130.5219992  93.4509978  91.5160014 130.1539992  92.8889978  93.6250014
 130.7089992  92.2739978  94.3650014 129.8539992  93.8439978  94.1080014
 128.8039992  92.1119978  93.3720014 128.1019992  92.5299978  92.6190014
 128.9439992  91.0999978  92.9340014 127.9219992  91.8569978  94.6390014
 127.7419992  92.8569978  95.0890014 126.9219992  91.5139978  94.2970014
 128.5339992  90.8399978  95.6560014 128.5149992  89.7999978  95.2650014
 129.6029992  91.0929978  95.8230014 127.7059992  90.8549978  96.9300014
 126.6019992  90.4129978  97.0520014 128.4969992  91.3609978  97.8710014
 128.0539992  91.6579978  99.2170014 128.5089992  92.6339978  99.4920014
 126.9589992  91.7889978  99.3520014 128.6759992  90.6929978 100.3130014
 128.3679992  91.1259978 101.2880014 130.2399992  90.5969978 100.3430014
 130.4189992  90.2899978  99.2900014 130.7459992  91.5589978 100.5730014
 130.7429992  89.5689978 101.2210014 131.4539992  89.9999978 102.6140014
 132.1489992  88.6969978 103.1440014 131.7879992  87.4179978 102.6200014
 131.9959992  86.6669978 103.4120014 130.7239992  87.2469978 102.3510014
 132.6209992  87.1259978 101.3250014 132.1319992  86.2899978 100.8460014
 132.5869992  87.9879978 100.6750014 134.0889992  86.7249978 101.4370014
 134.2689992  85.7469978 102.5380014 133.6339992  84.8859978 102.3920014
 135.3239992  85.5249978 102.6070014 133.9889992  86.2199978 103.4680014
 134.6369992  86.2209978 100.1140014 135.7069992  86.3589978 100.0720014
 134.4179992  85.1729978  99.9730014 134.1229992  86.8089978  99.3680014
 134.8779992  87.9809978 101.6790014 134.7289992  88.8179978 101.0130014
 135.9419992  87.8349978 101.7990014 134.5089992  88.4979978 102.5520014
 132.6249992  90.9109978 102.2710014 130.4069992  90.5119978 103.5430014
 128.0049992  89.3819978 100.0940014 127.6539992  88.6559978 101.1080014
 127.6329992  88.9499978 102.2450014 127.2459992  87.3479978 100.5430014
 126.3219992  87.5129978  99.9490014 126.9629992  86.6449978 101.3560014
 128.3429992  86.7059978  99.6000014 128.3599992  85.6119978  99.7940014
 129.3429992  87.0979978  99.8860014 128.2519992  86.8839978  98.0420014
 128.2569992  87.9609978  97.7680014 127.2789992  86.3979978  97.8140014
 129.3689992  86.0649978  97.3030014 129.3049992  86.1819978  96.2000014
 129.4099992  84.9809978  97.5440014 130.8629992  86.5099978  97.6160014
 131.4909992  85.7059978  97.1770014 130.9469992  86.3929978  98.7170014
 131.2799992  87.9689978  97.2670014 132.2929992  88.1069978  97.7010014
 130.6219992  88.6479978  97.8500014 131.2779992  88.2129978  95.7190014
 131.4459992  89.2789978  95.4570014 130.2349992  88.0549978  95.3700014
 132.2529992  87.2919978  94.9960014 132.8009992  86.6009978  95.6530014
 132.4479992  87.2429978  93.6370014 133.0649992  86.4639978  93.1650014
 131.6529992  88.1379978  92.6700014 132.2759992  88.9189978  92.1840014
 130.8219992  88.7139978  93.1290014 131.3069992  87.2109978  91.5050014
 130.7229992  86.3699978  91.9350014 132.1769992  86.7219978  91.0170014
 130.5999992  88.0949978  90.5200014 131.3079992  88.8469978  90.1110014
 129.6509992  88.4909978  90.9420014 130.1879992  87.2739978  89.2350014
 129.7839992  86.3239978  89.6450014 131.1969992  87.1879978  88.7780014
 129.2119992  87.8609978  88.2870014 129.5709992  88.8579978  87.9520014
 128.2019992  87.9879978  88.7320014 128.8809992  87.1099978  87.0210014
 128.6429992  86.0569978  87.2840014 129.6469992  87.1589978  86.2180014
 127.5779992  87.5109978  86.4030014 127.8419992  88.4689978  85.9050014
 126.8829992  87.8999978  87.1780014 126.9169992  86.4679978  85.4870014
 127.6179992  86.2239978  84.6600014 126.0089992  86.8849978  85.0010014
 126.7129992  85.4829978  85.9590014 125.1579992  57.6749978  82.8110014
 124.7419992  58.5129978  83.4100014 124.6319992  57.6439978  81.8330014
 126.2009992  57.8889978  82.4930014 125.0229992  56.3549978  83.6180014
 123.9809992  56.3319978  84.0040014 125.2019992  55.6539978  82.7740014
 126.0869992  55.9119978  84.5910014 126.1279992  54.8079978  84.7130014
 127.0739992  56.0889978  84.1130014 126.0979992  56.6459978  85.9340014
 127.1299992  57.0219978  86.1030014 125.3449992  57.4629978  85.9430014
 125.7169992  55.6789978  87.1170014 124.6159992  55.5339978  87.1050014
 126.2309992  54.6939978  87.0940014 126.0119992  56.3229978  88.4950014
 125.5299992  57.3229978  88.4750014 125.5399992  55.7649978  89.3320014
 127.4889992  56.6219978  88.8620014 127.9039992  55.5919978  88.8720014
 128.0119992  57.1159978  88.0150014 127.6489992  57.4479978  90.1800014
 128.7219992  57.7229978  90.2580014 127.0519992  58.3719978  90.0230014
 127.1319992  56.6809978  91.3870014 126.0649992  56.4619978  91.1710014
 127.8209992  55.8209978  91.5270014 127.0519992  57.5259978  92.6640014
 126.4269992  58.4409978  92.5780014 126.6519992  56.9269978  93.5100014
 128.4059992  58.0519978  93.1250014 129.2209992  57.3019978  93.0370014
 128.7149992  58.8719978  92.4420014 128.3929992  58.6639978  94.4910014
 128.0079992  57.9219978  95.2230014 129.4279992  58.9399978  94.7890014
 127.5999992  59.9979978  94.6940014 128.0339992  60.8559978  94.1370014
 126.5399992  59.9079978  94.3750014 127.6619992  60.4499978  96.1530014
 127.1829992  59.6119978  96.7030014 128.7049992  60.6029978  96.5020014
 126.8109992  61.7149978  96.5500014 127.0279992  62.0859978  97.5750014
 127.1189992  62.5119978  95.8410014 125.3539992  61.4989978  96.4490014
 124.5689992  62.1959978  95.8350014 124.9759992  60.5089978  97.2350014
 123.5769992  60.3349978  97.4360014 123.2059992  61.0029978  98.2430014
 123.0569992  60.3899978  96.4560014 123.3319992  58.8319978  97.9080014
 122.2639992  58.7399978  98.1970014 124.2949992  58.3629978  99.0450014
 124.2439992  59.0509978  99.9160014 124.0539992  57.3199978  99.3430014
 125.6629992  58.5189978  98.6860014 126.7409992  58.6559978  99.8560014
 126.0409992  58.0189978 101.0960014 126.5869992  57.0509978 102.0070014
 125.8269992  56.2589978 102.1770014 127.5269992  56.5549978 101.6850014
 126.8879992  57.7449978 103.3370014 127.5479992  57.0829978 103.8770014
 127.4829992  58.6389978 103.2210014 125.8099992  58.1389978 104.2330014
 124.6719992  57.1799978 104.4370014 124.4209992  56.7739978 103.4680014
 124.8679992  56.4629978 105.2200014 123.8369992  57.8249978 104.6660014
 126.4199992  58.5799978 105.5410014 125.7369992  59.0929978 106.2010014
 126.7079992  57.6749978 106.0550014 127.3329992  59.1389978 105.3960014
 125.1029992  59.3539978 103.6810014 125.3949992  60.2169978 104.2610014
 124.0309992  59.2359978 103.7410014 125.4189992  59.6279978 102.6860014
 127.9269992  57.7919978  99.4490014 127.0149992  60.1119978 100.1830014
 123.5579992  58.0139978  96.7240014 123.2129992  56.7329978  96.7950014
 122.4829992  56.2109978  97.6270014 123.8749992  56.0459978  95.5730014
 123.4029992  55.0459978  95.4700014 124.9689992  55.9769978  95.7520014
 123.5789992  56.9699978  94.3760014 124.2069992  56.5799978  93.5460014
 123.9709992  58.0059978  94.4670014 122.1819992  57.0789978  93.8060014
 121.4569992  57.4649978  94.5540014 121.7579992  56.0899978  93.5330014
 122.2199992  57.8569978  92.4180014 121.1819992  58.0119978  92.0530014
 122.7779992  57.3029978  91.6330014 122.8709992  59.2599978  92.4170014
 123.9489992  59.1359978  92.6550014 122.2899992  59.6629978  93.2740014
 122.9089992  59.9399978  91.0630014 121.9349992  59.7439978  90.5650014
 123.6829992  59.5009978  90.3980014 123.1959992  61.4059978  91.2770014
 122.4409992  61.9709978  91.8640014 123.0849992  61.8079978  90.2470014
 124.6269992  61.5879978  91.8380014 124.7729992  61.2989978  92.8900014
 125.7169992  62.0579978  91.1770014 126.6599992  61.9229978  91.7280014
 125.9649992  62.4969978  89.7450014 126.4139992  63.5099978  89.8200014
 125.0599992  62.6279978  89.1140014 126.8269992  61.5609978  88.9690014
 126.2319992  60.6659978  88.6850014 127.7079992  61.2369978  89.5630014
 127.2659992  62.2259978  87.6190014 127.8679992  63.1279978  87.8570014
 126.4059992  62.7209978  87.1200014 128.0909992  61.3679978  86.6470014
 128.9349992  60.9959978  87.2660014 128.5539992  61.8959978  85.7860014
 127.2639992  60.2699978  86.0040014 126.1899992  60.4489978  85.7840014
 127.3219992  59.4089978  86.7030014 127.9099992  59.9049978  84.6270014
 127.2629992  59.0349978  84.3840014 128.9599992  59.6979978  84.9250014
 127.7859992  60.9679978  83.5080014 128.0849992  61.9549978  83.9200014
 126.7819992  61.0329978  83.0370014 128.7769992  60.6849978  82.2910014
 128.4629992  59.6949978  81.8970014 129.7829992  60.6569978  82.7620014
 128.8079992  61.3899978  81.4330014  53.4689992  28.5809978  83.7330014
  52.6789992  29.2849978  83.3940014  53.8429992  28.0589978  82.8270014
  54.2619992  29.2649978  84.1040014  52.9339992  27.5829978  84.7310014
  51.9929992  27.1269978  84.3550014  53.6429992  26.7399978  84.8720014
  52.3469992  28.2339978  86.0640014  53.1079992  28.8169978  86.6260014
  51.5019992  28.9069978  85.8060014  52.0079992  27.1069978  87.0890014
  51.4039992  26.2919978  86.6360014  52.9429992  26.5109978  87.1440014
  51.5279992  27.6029978  88.4340014  52.2959992  28.3349978  88.7640014
  50.5199992  28.0519978  88.3050014  51.4329992  26.4239978  89.4440014
  52.3399992  25.7899978  89.3500014  51.4489992  26.7659978  90.5010014
  50.1779992  25.5379978  89.3640014  49.2829992  25.9749978  89.8560014
  49.9799992  25.2399978  88.3120014  50.3669992  24.1739978  90.0640014
  49.4089992  23.6379978  89.8920014  51.2699992  23.6879978  89.6360014
  50.6809992  24.2169978  91.5850014  50.8119992  23.1499978  91.8650014
  51.6809992  24.6879978  91.6970014  49.8649992  25.1139978  92.5020014
  49.9719992  26.0989978  91.9990014  48.7959992  24.8099978  92.5190014
  50.4039992  25.2419978  93.9460014  49.7629992  25.9479978  94.5160014
  50.4359992  24.2799978  94.5010014  51.7189992  25.9859978  94.0710014
  52.4629992  25.4039978  93.4880014  51.5279992  27.0069978  93.6750014
  52.0669992  26.1849978  95.5470014  52.9039992  26.9149978  95.5270014
  51.1909992  26.7289978  95.9600014  52.4359992  24.8169978  96.1840014
  51.4559992  24.3999978  96.5010014  52.9169992  24.1119978  95.4730014
  53.1899992  24.7409978  97.5320014  52.7399992  25.6169978  98.0450014
  52.9989992  23.7459978  97.9890014  54.7559992  24.7869978  97.4320014
  55.3239992  24.9039978  96.3750014  55.3399992  24.8139978  98.6190014
  56.7159992  25.2369978  98.6570014  57.2829992  24.6949978  99.4440014
  57.2359992  24.9769978  97.7100014  56.8169992  26.7339978  99.1450014
  57.8369992  26.8709978  99.5630014  55.8829992  27.0399978 100.4310014
  55.9709992  26.1969978 101.1490014  56.3589992  27.9339978 100.8880014
  54.6529992  27.4109978  99.9240014  53.6949992  28.0849978 101.0020014
  53.4769992  26.9879978 101.9940014  52.6499992  25.9319978 101.5520014
  52.7559992  25.7519978 100.4610014  53.0689992  24.9989978 101.9860014
  51.1959992  26.1819978 101.7960014  50.9429992  27.1439978 101.3750014
  50.5619992  25.4979978 101.2510014  50.6359992  26.1029978 103.2150014
  50.7119992  24.6749978 103.7470014  50.0859992  24.6229978 104.6250014
  50.2789992  23.9649978 103.0570014  51.7389992  24.3849978 103.9170014
  51.4419992  26.9239978 104.1290014  52.4669992  26.8249978 103.8050014
  51.2929992  27.9809978 103.9620014  51.3289992  26.6859978 105.1760014
  49.2129992  26.5679978 103.2320014  48.8809992  26.6239978 104.2580014
  48.5249992  26.0539978 102.5780014  49.2319992  27.6069978 102.9370014
  54.4839992  29.1999978 101.5550014  52.4259992  28.4019978 100.3610014
  56.4499992  27.6709978  98.0970014  56.8279992  28.8989978  98.1610014
  57.2329992  29.4809978  99.1310014  56.6889992  29.6349978  96.8430014
  57.4129992  29.1579978  96.1480014  57.1149992  30.6449978  97.0240014
  55.3119992  29.6349978  96.2270014  54.6039992  29.9569978  97.0200014
  55.0159992  28.5719978  96.0940014  55.0249992  30.6829978  95.0930014
  55.6469992  31.5769978  95.3150014  53.9529992  30.9449978  95.2210014
  55.1419992  30.2239978  93.6320014  56.2029992  30.0289978  93.3670014
  54.8569992  31.1019978  93.0140014  54.5649992  28.7789978  93.3150014
  53.4779992  28.7399978  93.5430014  55.0649992  27.9099978  93.7930014
  54.8269992  28.4679978  91.8640014  55.8809992  28.7459978  91.6520014
  54.2489992  29.1949978  91.2540014  54.4019992  27.0819978  91.3610014
  54.3569992  27.2879978  90.2700014  53.3459992  26.9519978  91.6810014
  55.2429992  25.7659978  91.6180014  55.0519992  25.2569978  92.5750014
  56.1429992  25.1829978  90.7940014  56.6379992  24.2339978  91.0480014
  56.5959992  25.6009978  89.4260014  57.6259992  25.1929978  89.3490014
  56.6459992  26.7109978  89.4200014  55.6769992  25.2089978  88.2740014
  54.7139992  25.7579978  88.3530014  55.3639992  24.1449978  88.3310014
  56.3049992  25.5079978  86.8750014  56.3199992  26.6179978  86.9230014
  55.5199992  25.1519978  86.1740014  57.6069992  24.8909978  86.4820014
  57.3819992  23.8059978  86.3980014  58.4269992  25.0399978  87.2160014
  58.2009992  25.3809978  85.1520014  59.0669992  24.6909978  85.0640014
  58.5749992  26.4239978  85.2350014  57.2829992  25.3929978  83.9250014
  56.5499992  26.2219978  84.0290014  56.8209992  24.3839978  83.8710014
  58.1889992  25.6399978  82.6310014  57.4689992  25.6769978  81.7860014
  58.8669992  24.7629978  82.5530014  59.2079992  26.8309978  82.7570014
  59.7359992  26.9149978  81.7830014  59.9279992  26.7059978  83.5940014
  58.6979992  27.8109978  82.8800014  65.1049992  16.4439978  84.1660014
  65.4399992  15.3959978  84.0100014  65.8179992  17.2969978  84.1390014
  64.2899992  16.6349978  83.4360014  64.4489992  16.5329978  85.5490014
  63.9559992  17.5289978  85.5340014  63.7169992  15.7229978  85.7560014
  65.4639992  16.3639978  86.6930014  66.1469992  15.4979978  86.5610014
  66.0869992  17.2819978  86.7450014  64.6859992  16.2809978  87.9820014
  63.9999992  15.4369978  87.7540014  65.3869992  16.0629978  88.8160014
  63.9019992  17.5409978  88.4560014  64.4189992  18.3929978  87.9650014
  62.9529992  17.3829978  87.9000014  63.7079992  17.6059978  89.9800014
  63.3019992  16.6939978  90.4680014  64.7369992  17.7959978  90.3540014
  62.9659992  18.7669978  90.5650014  62.9699992  18.6049978  91.6640014
  63.5649992  19.6909978  90.4150014  61.5409992  18.9379978  90.0220014
  60.9459992  19.5239978  90.7550014  61.4879992  19.4979978  89.0650014
  60.7409992  17.6599978  89.8720014  59.6949992  17.9079978  89.5920014
  61.3369992  17.0769978  89.1380014  60.5699992  16.9019978  91.2050014
  61.5289992  16.5379978  91.6300014  60.0829992  17.6469978  91.8700014
  59.6059992  15.6029978  91.1460014  59.2059992  15.4049978  92.1640014
  58.7779992  15.7529978  90.4210014  60.3479992  14.3329978  90.6460014
  59.6999992  13.4299978  90.6330014  60.7209992  14.5799978  89.6290014
  61.6259992  13.9299978  91.4320014  61.9699992  12.8929978  91.2290014
  62.4809992  14.6129978  91.2390014  61.5199992  13.9309978  93.0340014
  61.5209992  14.9509978  93.4730014  60.5829992  13.4459978  93.3840014
  62.8119992  13.2619978  93.8080014  63.0889992  12.2389978  93.4740014
  63.5469992  14.0109978  93.4420014  62.6449992  13.4579978  95.2870014
  61.7139992  14.0879978  95.8000014  63.7189992  12.9209978  95.9450014
  63.9559992  13.1329978  97.3610014  63.0179992  13.0959978  97.9550014
  64.6019992  12.3299978  97.7750014  64.7059992  14.3909978  97.6490014
  65.7909992  14.3089978  97.4250014  64.6589992  14.7259978  99.2000014
  63.6329992  15.0879978  99.4220014  64.9349992  13.7769978  99.7080014
  65.6109992  15.7849978  99.4780014  65.7059992  16.3879978 100.9120014
  64.1839992  16.5989978 101.2840014  63.8779992  17.5269978 102.3000014
  64.4349992  17.3499978 103.2450014  63.9969992  18.5689978 101.9310014
  62.3219992  17.5219978 102.6570014  62.1719992  18.2589978 103.4310014
  61.8869992  17.8509978 101.7250014  61.7959992  16.1869978 103.1900014
  62.6429992  15.6659978 104.2650014  62.1849992  14.8209978 104.7570014
  63.6029992  15.4819978 103.8070014  62.8209992  16.4389978 104.9990014
  60.3649992  16.2199978 103.6850014  60.3129992  16.8139978 104.5850014
  59.7909992  16.7429978 102.9340014  60.0419992  15.2199978 103.9350014
  61.8069992  15.0999978 102.1250014  61.1889992  15.3419978 101.2740014
  61.3869992  14.1649978 102.4660014  62.8399992  15.0529978 101.8150014
  66.2859992  15.3989978 101.8670014  66.4289992  17.6719978 100.7430014
  64.0179992  15.4359978  96.9000014  64.9009992  16.4709978  96.6190014
  66.1159992  16.4909978  96.6520014  63.9299992  17.6669978  96.3620014
  64.4659992  18.5499978  96.7710014  62.9929992  17.5399978  96.9450014
  63.5939992  17.7479978  94.8460014  63.0059992  18.6719978  94.6620014
  62.9009992  16.9349978  94.5400014  64.8689992  17.8069978  93.9330014
  65.6639992  18.3059978  94.5290014  64.6319992  18.4919978  93.0920014
  65.4709992  16.4709978  93.3900014  64.9199992  16.1969978  92.4650014
  65.2379992  15.6469978  94.0970014  66.9009992  16.5079978  93.0190014
  67.4179992  16.8909978  93.9240014  67.1459992  17.3049978  92.2840014
  67.5459992  15.1849978  92.6290014  67.4489992  14.5279978  93.5200014
  68.6049992  15.4449978  92.4160014  66.8629992  14.4129978  91.4910014
  67.2539992  14.8459978  90.5460014  65.7559992  14.4979978  91.5270014
  67.2999992  12.9619978  91.5300014  67.9059992  12.6439978  92.3910014
  66.7989992  12.0999978  90.6030014  67.3029992  11.1229978  90.6400014
  65.8799992  12.2369978  89.4120014  66.2549992  11.5369978  88.6350014
  65.9939992  13.2229978  88.9120014  64.5229992  11.7339978  89.6490014
  64.2519992  11.6339978  90.7220014  64.5409992  10.6859978  89.2800014
  63.4849992  12.5989978  88.9400014  63.4529992  13.5899978  89.4410014
  62.4459992  12.2549978  89.1300014  63.5499992  12.7409978  87.3810014
  63.8969992  11.7999978  86.9030014  64.3369992  13.4849978  87.1340014
  62.1589992  13.1719978  86.7850014  62.0799992  14.2729978  86.9110014
  61.3269992  12.6989978  87.3490014  62.1639992  12.7879978  85.2630014
  61.2849992  12.1459978  85.0400014  63.0979992  12.2429978  85.0080014
  61.8709992  14.0149978  84.4170014  62.7059992  14.7239978  84.2270014
  61.0759992  14.5009978  85.0220014  61.3439992  13.8109978  82.9800014
  62.0259992  14.1289978  82.1630014  60.2819992  14.1009978  82.8300014
  61.2399992  12.7269978  82.7580014 125.9149992  97.0279978  84.7960014
 125.4109992  97.9229978  85.2180014 126.0919992  96.2629978  85.5830014
 125.3099992  96.4879978  84.0370014 127.2509992  97.4269978  84.2430014
 127.9619992  96.5739978  84.2050014 126.9799992  97.6769978  83.1950014
 127.7959992  98.7609978  84.8140014 126.9579992  99.4899978  84.7820014
 127.9969992  98.5709978  85.8900014 128.9999992  99.3259978  84.0100014
 129.7799992  98.5789978  83.7500014 128.6309992  99.8149978  83.0820014
 129.8279992 100.3719978  84.8280014 130.5359992 100.9089978  84.1610014
 129.1829992 101.1969978  85.2000014 130.5929992  99.6949978  86.0120014
 129.9969992  99.7149978  86.9490014 130.6529992  98.6229978  85.7250014
 132.0289992 100.2479978  86.1560014 132.5769992  99.9699978  85.2310014
 131.9429992 101.3489978  86.2830014 132.7009992  99.6559978  87.3870014
 132.7599992  98.5509978  87.2870014 133.7209992 100.0959978  87.4300014
 132.1019992  99.9039978  88.7820014 131.5579992 100.8469978  89.0050014
 131.2399992  99.2149978  88.9070014 133.0619992  99.5329978  89.9030014
 133.0769992  98.4249978  89.8190014 134.0299992 100.0569978  89.7510014
 132.3979992  99.8529978  91.2940014 131.3089992  99.6859978  91.1480014
 132.8599992  99.1239978  91.9940014 132.7269992 101.3109978  91.8020014
 133.8319992 101.4299978  91.7970014 132.3239992 102.1169978  91.1520014
 132.2349992 101.6029978  93.1990014 132.9179992 101.1179978  93.9290014
 132.3899992 102.6849978  93.3990014 130.7799992 101.0949978  93.4450014
 130.0869992 101.2089978  92.5830014 130.8349992 100.0019978  93.6380014
 130.1219992 101.8079978  94.6410014 130.8539992 101.9329978  95.4670014
 129.7489992 102.7499978  94.1840014 128.8559992 101.0099978  95.1320014
 128.1099992 100.5239978  94.3300014 128.7779992 100.8839978  96.4250014
 127.5899992 100.3729978  97.0170014 127.3949992 100.9659978  97.9360014
 126.7339992 100.2839978  96.3140014 127.6819992  98.9069978  97.6440014
 126.6939992  98.6639978  98.0880014 128.7549992  99.1269978  98.8150014
 129.6429992  99.6449978  98.3930014 128.2479992  99.7419978  99.5890014
 129.0569992  97.8389978  99.3050014 130.3639992  97.2919978  99.8710014
 130.5689992  98.1659978 101.1330014 129.6069992  98.1529978 102.1930014
 129.8719992  99.0769978 102.7500014 128.5359992  98.1309978 101.8970014
 129.7199992  97.0319978 103.2620014 128.7979992  97.0989978 103.8210014
 129.6299992  96.0949978 102.7330014 130.9229992  96.8369978 104.1460014
 130.6669992  95.5289978 104.9130014 129.8039992  95.6529978 105.5500014
 130.3919992  94.7899978 104.1740014 131.4469992  95.0649978 105.4980014
 132.1759992  96.7549978 103.3310014 132.5239992  97.7149978 102.9800014
 133.0299992  96.2919978 103.8030014 131.8959992  96.1149978 102.5080014
 131.0609992  97.9949978 105.1530014 131.7389992  97.6279978 105.9090014
 130.1299992  98.0559978 105.6960014 131.3899992  98.9239978 104.7100014
 130.1789992  95.8839978 100.2650014 131.5339992  97.5789978  98.9330014
 128.2249992  97.9139978  96.7490014 127.3209992  97.3399978  95.8940014
 126.1609992  97.7199978  95.8050014 128.0099992  96.1529978  95.1500014
 128.5969992  96.5369978  94.2880014 127.2119992  95.5759978  94.6350014
 128.7829992  95.1929978  96.1330014 128.0869992  94.8659978  96.9350014
 129.6039992  95.7879978  96.5870014 129.3589992  93.9779978  95.3140014
 129.7069992  94.3449978  94.3260014 128.5679992  93.2059978  95.1950014
 130.5189992  93.3239978  96.1330014 130.7179992  92.4459978  95.4810014
 130.1419992  93.0199978  97.1320014 131.8519992  94.2199978  96.1920014
 132.4739992  93.6299978  96.8990014 131.6349992  95.1869978  96.6940014
 132.6059992  94.5549978  94.8620014 132.0689992  94.1379978  93.9830014
 133.5969992  94.0529978  94.8610014 132.9359992  96.0479978  94.5320014
 133.4099992  95.9649978  93.5300014 133.7669992  96.3369978  95.2100014
 131.8819992  97.0539978  94.6040014 131.7749992  97.8069978  95.4000014
 130.9289992  97.1699978  93.6580014 130.1399992  97.9359978  93.6750014
 130.8999992  96.3059978  92.4480014 130.2969992  95.3979978  92.6630014
 131.9139992  96.0539978  92.0700014 129.9209992  96.8029978  91.2930014
 130.4579992  97.6759978  90.8660014 128.9109992  97.0209978  91.7010014
 129.6519992  95.7589978  90.1700014 128.7789992  95.1289978  90.4450014
 130.5339992  95.0859978  90.1160014 129.5869992  96.3959978  88.7600014
 130.2779992  97.2509978  88.5990014 128.5749992  96.7999978  88.5450014
 130.0719992  95.2969978  87.7580014 129.3239992  94.4759978  87.7850014
 131.0429992  94.8459978  88.0580014 130.1869992  95.7359978  86.2850014
 131.0569992  96.4249978  86.2350014 129.1919992  96.1989978  86.1080014
 130.4989992  94.5609978  85.3490014 129.8419992  93.6739978  85.4720014
 131.5489992  94.2029978  85.4110014 130.4559992  94.8729978  83.7880014
 131.2459992  95.6499978  83.7160014 129.4369992  95.2319978  83.5300014
 130.9329992  94.0059978  83.2830014  87.2459992   7.8689978  85.3200014
  87.3399992   8.6459978  86.1090014  87.1139992   6.8479978  85.7380014
  86.2989992   8.0689978  84.7750014  88.5039992   8.0109978  84.4040014
  88.4499992   7.4239978  83.4610014  88.5669992   9.0709978  84.0770014
  89.8579992   7.8509978  85.0970014  89.8619992   8.4129978  86.0550014
  90.0159992   6.7859978  85.3690014  90.9789992   8.1819978  84.1630014
  91.8749992   7.5959978  84.4600014  90.5469992   7.9389978  83.1690014
  91.3789992   9.6049978  84.0570014  91.9919992   9.8449978  83.1620014
  90.5159992  10.3019978  83.9930014  92.2269992  10.2139978  85.2270014
  91.8849992   9.6089978  86.0940014  93.2729992   9.9639978  84.9460014
  92.2159992  11.7429978  85.4290014  92.6599992  12.2909978  84.5710014
  91.1479992  11.9799978  85.6190014  92.8229992  12.1789978  86.7560014
  93.8869992  11.8829978  86.8700014  92.8409992  13.2879978  86.8080014
  92.0209992  11.8579978  88.0020014  91.0409992  12.3799978  87.9730014
  91.8099992  10.7669978  87.9880014  92.6849992  12.2319978  89.3240014
  93.6879992  11.7689978  89.4420014  92.7589992  13.3359978  89.2160014
  91.9329992  11.9689978  90.5760014  91.4619992  10.9729978  90.4380014
  92.6849992  11.9959978  91.3940014  90.7859992  13.0589978  90.9760014
  91.1859992  14.0309978  91.3360014  90.3239992  13.3309978  90.0030014
  89.6929992  12.5169978  91.9040014  88.9399992  13.3199978  92.0550014
  89.1709992  11.7909978  91.2450014  90.0379992  11.7669978  93.1830014
  89.1159992  11.2249978  93.4850014  90.8349992  11.0369978  92.9270014
  90.5769992  12.7229978  94.2830014  91.0379992  12.0199978  95.0100014
  91.3559992  13.4169978  93.9020014  89.4009992  13.5699978  94.8550014
  89.2119992  14.7209978  94.6850014  88.6699992  12.7509978  95.6230014
  87.7769992  13.4559978  96.5330014  88.0769992  14.4389978  96.9550014
  86.8559992  13.7289978  95.9740014  87.6349992  12.4589978  97.7020014
  86.9699992  12.9599978  98.4380014  89.0089992  12.1239978  98.3130014
  89.8119992  11.9149978  97.5750014  89.4779992  12.9989978  98.8120014
  88.8489992  11.1039978  99.2660014  88.6209992  11.3949978 100.8120014
  89.8669992  10.7319978 101.5370014  90.3759992   9.4809978 101.0660014
  89.5359992   8.8369978 100.7260014  91.1109992   9.6539978 100.2510014
  91.0879992   8.7069978 102.1710014  91.2769992   7.6939978 101.8490014
  92.1149992   9.0179978 102.2870014  90.4719992   8.6449978 103.5670014
  91.1149992   7.4829978 104.2870014  91.0299992   6.5709978 103.7150014
  92.1549992   7.6669978 104.5100014  90.5059992   7.2889978 105.1570014
  90.7479992  10.0419978 104.2120014  91.8109992  10.1529978 104.3660014
  90.2509992  10.7779978 103.5970014  90.2909992  10.0169978 105.1900014
  88.9959992   8.3719978 103.3700014  88.6349992   8.2959978 104.3860014
  88.6829992   7.4109978 102.9880014  88.5069992   9.1229978 102.7680014
  88.5939992  12.8529978 101.0690014  87.3799992  10.6319978 101.1480014
  86.9589992  11.3029978  97.2870014  85.6459992  11.5279978  97.2790014
  85.0699992  12.3959978  97.8320014  85.0999992  10.3929978  96.4170014
  84.8859992   9.5519978  97.1110014  85.8439992   9.9979978  95.6930014
  83.8939992  10.8359978  95.4950014  83.0979992  11.3529978  96.0730014
  83.3969992   9.9909978  94.9720014  84.1039992  11.8149978  94.4070014
  84.3329992  12.8399978  94.7680014  83.0939992  11.9609978  93.9690014
  85.1699992  11.3409978  93.3590014  84.9399992  10.2919978  93.0710014
  86.1959992  11.2939978  93.7820014  85.0039992  12.2669978  92.1400014
  84.0279992  11.9189978  91.7390014  85.8539992  11.9069978  91.5220014
  85.0739992  13.7659978  92.4090014  86.0129992  13.9809978  92.9630014
  84.1859992  14.1169978  92.9770014  85.1649992  14.5459978  91.1430014
  85.0819992  15.6129978  91.4400014  84.3379992  14.4689978  90.4060014
  86.5229992  14.3319978  90.5280014  87.2939992  14.6869978  91.2280014
  86.9009992  13.7859978  89.3900014  87.9689992  13.6609978  89.1580014
  85.9359992  13.2089978  88.3350014  85.9939992  13.8819978  87.4530014
  84.8879992  13.2579978  88.7010014  86.3299992  11.7169978  88.0570014
  85.4359992  11.2749978  87.5660014  86.5419992  11.1359978  88.9800014
  87.4909992  11.6339978  87.0580014  87.6379992  10.5339978  86.9930014
  88.4209992  12.0839978  87.4680014  87.3999992  12.1599978  85.6290014
  88.3439992  12.0949978  85.0470014  87.1189992  13.2329978  85.6780014
  86.2909992  11.4369978  84.8440014  85.4339992  11.5259978  85.5440014
  86.5369992  10.3649978  84.6830014  86.0169992  11.9869978  83.4430014
  85.5479992  11.1509978  82.8820014  86.9219992  12.3169978  82.8900014
  84.9119992  12.9819978  83.4460014  85.2839992  13.8659978  84.0070014
  84.0429992  12.4999978  83.9410014  84.4089992  13.3939978  82.0630014
  83.4999992  14.0009978  82.2610014  84.1369992  12.4369978  81.5680014
  85.1419992  14.0149978  81.5050014  31.0849992 109.3429978  82.0500014
  32.1589992 109.2359978  82.3140014  30.8309992 109.2149978  80.9760014
  30.4569992 108.5669978  82.5370014  30.4499992 110.7369978  82.4330014
  30.9659992 111.4499978  81.7560014  29.3589992 110.6949978  82.2300014
  30.8449992 111.2559978  83.8500014  31.9169992 111.0959978  84.0920014
  30.6629992 112.3509978  83.8290014  29.9599992 110.6849978  84.9140014
  28.9149992 111.0179978  84.7390014  30.1269992 109.5899978  85.0000014
  30.2189992 111.1829978  86.3130014  31.2289992 110.8539978  86.6390014
  30.1749992 112.2899978  86.4000014  29.3369992 110.4739978  87.3540014
  28.3219992 110.7479978  86.9970014  29.3189992 109.3829978  87.1460014
  29.5779992 110.8619978  88.7820014  29.3569992 111.9449978  88.8910014
  28.7449992 110.3319978  89.2910014  30.9469992 110.6009978  89.3570014
  31.6579992 110.9989978  88.6030014  31.2889992 111.1439978  90.2630014
  31.1619992 109.1049978  89.4180014  30.3189992 108.8919978  90.1100014
  30.9269992 108.6589978  88.4270014  32.4779992 108.6069978  89.8810014
  33.3239992 109.1509978  89.4100014  32.5749992 108.7249978  90.9820014
  32.7049992 107.1419978  89.4990014  31.7369992 106.7119978  89.1660014
  33.3549992 107.2539978  88.6050014  33.2319992 106.2209978  90.5480014
  33.4319992 105.2399978  90.0650014  34.1639992 106.7949978  90.7380014
  32.2549992 106.0119978  91.7300014  31.3919992 106.7109978  91.7050014
  31.8509992 104.9859978  91.5930014  33.0439992 106.0539978  93.0790014
  33.9039992 105.3529978  93.0350014  33.4579992 107.0739978  93.2310014
  32.2679992 105.7759978  94.3690014  31.3129992 106.3389978  94.4450014
  31.7599992 104.7939978  94.2670014  33.0889992 105.6929978  95.6380014
  34.3229992 105.7259978  95.7310014  32.2309992 105.6619978  96.6460014
  32.8669992 106.1019978  97.8680014  32.2379992 105.5959978  98.6310014
  33.8839992 105.6809978  98.0170014  32.7399992 107.6069978  98.0140014
  33.2729992 108.1049978  97.1760014  33.4269992 108.1289978  99.3760014
  34.4829992 107.8329978  99.5490014  33.4559992 109.2349978  99.2720014
  32.5959992 107.6999978 100.4580014  32.5869992 108.3939978 101.8780014
  31.4129992 109.4359978 101.7040014  30.5919992 109.9349978 102.8630014
  31.1559992 110.2129978 103.7790014  30.0799992 110.8589978 102.5190014
  29.4269992 108.9569978 103.1890014  29.7779992 108.0419978 103.6420014
  28.7969992 109.4179978 103.9350014  28.3879992 108.4669978 102.0940014
  29.1389992 107.5939978 101.1330014  29.8539992 108.1059978 100.5060014
  29.6479992 106.7629978 101.6000014  28.4109992 107.1159978 100.4940014
  27.3529992 107.6409978 102.8040014  26.7529992 108.3079978 103.4060014
  26.7919992 107.0979978 102.0580014  27.7679992 106.9909978 103.5600014
  27.7339992 109.6419978 101.3400014  27.4069992 110.3099978 102.1230014
  26.9309992 109.2519978 100.7320014  28.4839992 110.1819978 100.7820014
  32.2589992 107.3969978 102.9690014  33.7519992 109.1819978 102.0720014
  31.3719992 107.9619978  97.8150014  31.1859992 109.2339978  97.5870014
  31.9919992 110.0879978  97.4300014  29.6939992 109.4719978  97.4430014
  29.3909992 110.5249978  97.6270014  29.0969992 108.8619978  98.1540014
  29.3389992 109.1119978  95.9620014  29.5879992 108.0349978  95.8560014
  29.9259992 109.7299978  95.2480014  27.8359992 109.2969978  95.8070014
  27.7519992 110.3909978  95.9820014  27.3099992 108.7179978  96.5960014
  27.3199992 109.0069978  94.4090014  28.0099992 109.4889978  93.6840014
  26.3529992 109.5149978  94.2080014  27.1089992 107.5799978  94.0290014
  26.2939992 107.0919978  94.6060014  28.0199992 106.9499978  94.1080014
  26.6989992 107.4349978  92.5570014  25.8969992 108.1589978  92.2980014
  26.2669992 106.4309978  92.3610014  27.8089992 107.6319978  91.5280014
  28.3879992 108.5189978  91.8660014  27.5329992 107.9329978  90.4950014
  28.6529992 106.3679978  91.4840014  29.3789992 106.3029978  92.3070014
  28.5269992 105.3979978  90.5980014  29.1229992 104.4769978  90.6850014
  27.5679992 105.3309978  89.5000014  26.6329992 105.9029978  89.6790014
  27.2139992 104.2869978  89.3620014  28.2179992 105.7289978  88.1650014
  28.4559992 106.8079978  88.0410014  27.5129992 105.4199978  87.3650014
  29.6099992 105.0019978  87.8040014  29.2929992 103.9529978  87.6240014
  30.2659992 105.0739978  88.6980014  30.2839992 105.5729978  86.5420014
  30.1499992 106.6729978  86.6210014  29.6859992 105.2339978  85.6690014
  31.6859992 104.9929978  86.5210014  31.6969992 103.8819978  86.5270014
  32.3609992 105.3489978  87.3280014  32.2889992 105.2259978  85.0830014
  32.2119992 106.3129978  84.8640014  31.6249992 104.7169978  84.3520014
  33.7209992 104.6339978  85.0100014  34.1099992 104.3719978  84.0030014
  33.7779992 103.6799978  85.5780014  34.7459992 105.5369978  85.7300014
  34.6219992 106.5559978  85.3040014  35.8049992 105.2719978  85.5240014
  34.6179992 105.6099978  86.8310014  35.7859992 116.8439978  83.7070014
  34.7329992 116.8909978  83.3580014  36.2839992 116.0999978  83.0490014
  36.3169992 117.7969978  83.4980014  35.9379992 116.3659978  85.1550014
  35.6219992 117.2099978  85.8040014  35.2239992 115.5299978  85.3150014
  37.3669992 116.0919978  85.6430014  37.7689992 115.3739978  84.8970014
  37.9989992 116.9899978  85.4700014  37.6209992 115.5399978  87.0890014
  36.9349992 114.6889978  87.2850014  38.6559992 115.1979978  87.3020014
  37.3079992 116.5769978  88.2100014  37.7749992 117.5749978  88.0630014
  36.2069992 116.7199978  88.2260014  37.8039992 116.1099978  89.6140014
  38.9059992 116.2179978  89.7020014  37.4629992 116.8749978  90.3430014
  37.3409992 114.7029978  90.0440014  36.2309992 114.6769978  90.0780014
  37.5779992 113.9069978  89.3050014  37.8529992 114.3699978  91.4190014
  38.8679992 114.7869978  91.5900014  37.2009992 114.8079978  92.2050014
  37.8339992 112.8569978  91.7900014  38.2579992 112.2309978  90.9750014
  38.5659992 112.7779978  92.6220014  36.3749992 112.3079978  91.9640014
  35.7329992 113.1699978  92.2460014  35.9149992 111.9629978  91.0130014
  36.3909992 111.0679978  92.8630014  37.0239992 110.3449978  92.3060014
  36.8379992 111.3099978  93.8510014  35.0189992 110.4829978  93.1950014
  34.4329992 110.1089978  92.3280014  35.2179992 109.5469978  93.7600014
  34.1269992 111.3709978  94.0900014  34.7339992 111.5369978  95.0060014
  33.9289992 112.3769978  93.6630014  32.8009992 110.8149978  94.6930014
  32.2129992 110.5049978  93.8030014  32.9899992 109.9009978  95.2950014
  32.0469992 111.8009978  95.5590014  31.7399992 112.7899978  95.1570014
  31.0859992 111.4199978  95.9660014  32.8999992 112.2109978  96.7750014
  33.6289992 113.1969978  96.7260014  32.8329992 111.3319978  97.7940014
  33.3119992 111.6279978  99.0940014  33.2889992 112.7129978  99.3340014
  32.7439992 111.0119978  99.8240014  34.8289992 111.3009978  99.2820014
  34.9529992 110.2419978  98.9700014  35.3459992 111.4319978 100.7580014
  34.5109992 111.0049978 101.3520014  36.3209992 110.8979978 100.7850014
  35.5579992 112.8229978 101.0190014  35.1929992 113.2519978 102.5460014
  36.4949992 113.9679978 103.0880014  36.5099992 115.4399978 103.3000014
  35.6369992 116.0139978 102.9230014  36.5519992 115.5439978 104.4060014
  37.7539992 116.1159978 102.7630014  37.5989992 117.1789978 102.8770014
  38.6489992 115.9219978 103.3360014  38.1309992 115.8499978 101.3470014
  36.9249992 115.9299978 100.4600014  37.4069992 115.8699978  99.4960014
  36.2819992 115.1109978 100.7470014  36.4219992 116.8629978 100.6690014
  39.0859992 116.9329978 100.8200014  40.0139992 116.9479978 101.3730014
  39.3309992 116.7999978  99.7760014  38.7319992 117.9469978 100.9360014
  38.7459992 114.5199978 101.1780014  39.5569992 114.4059978 101.8810014
  39.0679992 114.3859978 100.1560014  38.0519992 113.7329978 101.4320014
  34.1089992 114.2899978 102.5530014  34.9139992 112.0919978 103.4340014
  35.5729992 112.1809978  98.4360014  36.6629992 111.7099978  97.9000014
  37.2849992 110.7049978  98.1870014  37.1969992 112.6589978  96.8180014
  36.7039992 112.5459978  95.8290014  38.2539992 112.3319978  96.7250014
  37.1069992 114.1499978  97.2830014  37.7499992 114.1829978  98.1890014
  36.1039992 114.4669978  97.6420014  37.5819992 115.2039978  96.2550014
  38.5269992 114.7819978  95.8510014  37.7819992 116.2219978  96.6530014
  36.5719992 115.3929978  95.1260014  36.2239992 114.4839978  94.5910014
  37.1119992 115.9749978  94.3490014  35.2509992 116.1129978  95.4420014
  35.5089992 117.0959978  95.8910014  34.7529992 115.4329978  96.1660014
  34.3559992 116.4379978  94.1950014  34.9019992 117.0619978  93.4560014
  33.5899992 117.1549978  94.5590014  33.8289992 115.1949978  93.5340014
  33.4879992 114.5279978  94.3540014  34.6259992 114.6069978  93.0300014
  32.5609992 115.3849978  92.7530014  31.6929992 115.7189978  93.3420014
  32.3619992 115.1979978  91.4840014  31.3429992 115.3839978  91.1130014
  33.3519992 114.6949978  90.4920014  34.3339992 114.4349978  90.9420014
  33.6159992 115.5809978  89.8750014  32.8219992 113.6199978  89.5990014
  31.9689992 114.0429978  89.0270014  32.4779992 112.6979978  90.1140014
  33.8419992 113.2899978  88.4850014  34.6879992 112.6939978  88.8920014
  34.1319992 114.2739978  88.0600014  33.3279992 112.4389978  87.3250014
  32.5139992 112.8559978  86.6950014  32.8639992 111.5209978  87.7450014
  34.5129992 112.2589978  86.3050014  35.3269992 111.8769978  86.9580014
  34.6719992 113.2439978  85.8170014  34.3169992 111.1649978  85.2680014
  33.5759992 111.5959978  84.5610014  33.9369992 110.2879978  85.8340014
  35.5659992 110.6709978  84.5670014  35.1389992 110.0779978  83.7300014
  36.2729992 110.1449978  85.2440014  36.3849992 111.7809978  83.9040014
  35.8699992 112.2739978  83.0520014  37.4329992 111.5189978  83.6460014
  36.4839992 112.6009978  84.6480014  23.3279992  68.5089978  84.9350014
  22.2859992  68.4239978  84.5580014  23.7369992  67.5009978  85.1610014
  23.9329992  68.8419978  84.0640014  23.4989992  69.4799978  86.0750014
  24.5179992  69.5199978  86.5160014  23.2629992  70.5219978  85.7700014
  22.5329992  69.1579978  87.2410014  21.5069992  69.0189978  86.8380014
  22.7669992  68.1899978  87.7350014  22.3739992  70.2049978  88.3140014
  23.1209992  70.9789978  88.0360014  21.3879992  70.7169978  88.3440014
  22.5069992  69.6129978  89.7590014  23.4509992  69.0419978  89.8870014
  22.6009992  70.4379978  90.4970014  21.3329992  68.6949978  90.2040014
  21.3359992  67.7159978  89.6790014  21.4879992  68.3969978  91.2630014
  19.9879992  69.3949978  90.1130014  19.8359992  69.4079978  89.0130014
  19.2579992  68.6719978  90.5360014  19.8419992  70.7059978  90.9050014
  20.6039992  71.3819978  90.4610014  18.8809992  71.2029978  90.6510014
  19.7239992  70.5029978  92.4620014  20.5699992  69.9089978  92.8690014
  19.7499992  71.5259978  92.8950014  18.3419992  69.9619978  92.8160014
  17.6219992  70.2759978  92.0310014  18.2519992  68.8549978  92.7990014
  17.8789992  70.3959978  94.1730014  17.9729992  71.5009978  94.1110014
  16.8379992  70.0299978  94.3030014  18.6399992  69.8519978  95.3720014
  19.5759992  70.4509978  95.3540014  18.0709992  70.3309978  96.1970014
  18.8889992  68.3789978  95.5640014  19.5089992  68.0439978  94.7040014
  19.5839992  68.2419978  96.4200014  17.6519992  67.4079978  95.5560014
  16.8819992  67.6239978  96.3280014  17.0949992  67.7749978  94.6680014
  17.8849992  65.8889978  95.4460014  16.9639992  65.2789978  95.3260014
  18.4869992  65.7849978  94.5180014  18.5739992  65.2349978  96.6710014
  17.9589992  64.9749978  97.6960014  19.7889992  64.9579978  96.3250014
  20.5659992  64.5709978  97.4120014  20.0319992  64.1589978  98.2950014
  21.2429992  63.7379978  97.1230014  21.3669992  65.7049978  98.0810014
  22.0419992  65.2969978  98.8640014  20.6149992  66.7349978  98.9630014
  19.7279992  67.1409978  98.4300014  20.1809992  66.2609978  99.8690014
  21.3489992  67.8799978  99.3150014  22.1279992  67.9959978 100.7230014
  21.1179992  68.6739978 101.7220014  20.4859992  69.8769978 101.4980014
  20.1739992  69.9539978 100.4350014  19.5539992  70.0059978 102.0890014
  21.4119992  71.0019978 102.0390014  22.3459992  70.7219978 101.5730014
  21.1409992  71.9959978 101.7130014  21.7679992  71.3169978 103.5380014
  20.3679992  71.4859978 104.2390014  20.4419992  71.6519978 105.3040014
  19.9029992  72.3849978 103.8640014  19.7019992  70.7099978 103.8900014
  22.6449992  70.2639978 104.2450014  22.1409992  69.3089978 104.2590014
  23.6269992  70.1789978 103.8040014  22.8629992  70.5289978 105.2690014
  22.5809992  72.5619978 103.5420014  23.5319992  72.3999978 103.0570014
  22.6109992  73.0209978 104.5190014  22.0949992  73.3599978 102.9990014
  22.3679992  66.6469978 101.1700014  23.3019992  68.8669978 100.4760014
  22.1169992  66.3719978  96.9890014  23.2599992  65.7159978  96.6500014
  23.6499992  64.6579978  97.1520014  24.1049992  66.5699978  95.7470014
  25.0389992  66.0659978  95.4170014  24.3569992  67.4479978  96.3790014
  23.3049992  67.0409978  94.5010014  23.8879992  67.9499978  94.2430014
  22.2459992  67.2899978  94.7280014  23.3329992  66.0839978  93.2320014
  24.3679992  65.7749978  92.9730014  22.8829992  66.5799978  92.3460014
  22.6249992  64.7579978  93.4800014  21.5909992  64.8979978  93.8630014
  23.2589992  64.1719978  94.1790014  22.5829992  63.8049978  92.2570014
  22.3409992  62.7659978  92.5690014  23.6079992  63.6769978  91.8480014
  21.6949992  64.2419978  91.0640014  21.8499992  65.2539978  90.6340014
  20.6789992  64.3389978  91.5030014  21.4169992  63.2749978  89.9380014
  21.6549992  62.2759978  90.3620014  22.1279992  63.4779978  89.1100014
  20.0009992  63.2929978  89.4030014  19.3259992  62.9519978  90.2020014
  19.5849992  63.7039978  88.1800014  18.5199992  63.6399978  87.9110014
  20.4329992  64.2589978  87.0990014  20.0789992  63.7079978  86.2020014
  21.5079992  64.0299978  87.2610014  20.2259992  65.7449978  86.8780014
  21.2179992  65.9659978  86.4280014  20.3159992  66.4049978  87.7670014
  19.1439992  66.2239978  85.9290014  18.4549992  66.7259978  86.6420014
  18.6729992  65.3519978  85.4280014  19.6569992  67.2129978  84.8670014
  20.3149992  66.7229978  84.1170014  20.1319992  68.0629978  85.4010014
  18.4699992  67.8399978  84.1560014  18.0929992  67.0469978  83.4760014
  18.8309992  68.6009978  83.4320014  17.3429992  68.4249978  85.0170014
  17.7369992  69.1169978  85.7920014  16.8669992  67.5879978  85.5710014
  16.2999992  69.1579978  84.1870014  15.6199992  68.3919978  83.7570014
  16.7539992  69.6529978  83.3020014  15.5449992  70.1329978  85.1240014
  16.3569992  70.7729978  85.5290014  15.0859992  69.5929978  85.9810014
  14.7789992  70.7449978  84.6010014  16.4289992  78.4729978  80.8260014
  16.0069992  77.5189978  80.4430014  16.8419992  79.1169978  80.0210014
  15.5639992  79.0719978  81.1820014  17.4379992  78.0829978  81.8300014
  17.0279992  77.2419978  82.4290014  18.3729992  77.8079978  81.2950014
  17.9799992  79.2779978  82.6350014  17.1319992  79.8049978  83.1220014
  18.5789992  78.9249978  83.5010014  18.9089992  80.2669978  81.9390014
  19.8259992  79.6829978  81.7080014  18.4649992  80.6329978  80.9890014
  19.3319992  81.5189978  82.7140014  19.9899992  82.1069978  82.0380014
  18.4659992  82.1949978  82.8760014  19.9339992  81.2919978  84.1030014
  19.2839992  80.8949978  84.9110014  20.7249992  80.5159978  84.1840014
  20.7379992  82.5109978  84.4880014  21.4739992  82.6619978  83.6690014
  20.0569992  83.3849978  84.5620014  21.5979992  82.5139978  85.8160014
  22.4079992  81.8839978  85.3890014  22.0029992  83.5389978  85.9540014
  20.8999992  82.1199978  87.0630014  20.0649992  82.8199978  87.2800014
  20.4799992  81.0949978  86.9670014  21.8529992  82.1879978  88.2900014
  22.5519992  81.3289978  88.2120014  22.5869992  83.0209978  88.3110014
  21.0909992  82.2069978  89.6900014  20.3889992  83.0649978  89.6180014
  20.4789992  81.2899978  89.8330014  22.1479992  82.3839978  90.8270014
  22.8629992  81.5479978  90.6690014  22.6329992  83.3649978  90.6350014
  21.5639992  82.2489978  92.2110014  22.4019992  82.4879978  92.9010014
  20.7939992  83.0479978  92.2640014  20.9709992  80.8579978  92.6600014
  19.9389992  80.6999978  92.2800014  21.6559992  80.0579978  92.3030014
  20.9969992  80.7449978  94.1680014  20.8629992  79.6579978  94.3500014
  21.9139992  80.9389978  94.7650014  19.7989992  81.4239978  94.8770014
  19.1269992  82.3799978  94.4520014  19.7639992  80.9449978  96.0920014
  18.7579992  81.5209978  96.9290014  19.0379992  82.5749978  97.1410014
  17.7619992  81.4919978  96.4380014  18.6189992  80.7999978  98.2930014
  17.7499992  81.2619978  98.8080014  19.8659992  80.8889978  99.2160014
  20.7599992  80.3369978  98.8540014  20.1709992  81.9479978  99.3500014
  19.6609992  80.3799978 100.5120014  19.5789992  78.9609978 101.0600014
  20.2489992  79.1039978 102.5030014  21.2159992  80.0929978 102.9150014
  20.8899992  81.1319978 102.6990014  21.3069992  80.1549978 104.0200014
  22.6049992  79.8999978 102.3600014  22.5999992  79.8499978 101.2810014
  23.0969992  80.8559978 102.4610014  23.4649992  78.7789978 102.8520014
  22.8079992  77.4849978 102.6220014  21.8409992  77.3009978 103.0660014
  22.7879992  77.2639978 101.5650014  23.4149992  76.8049978 103.2010014
  24.7089992  78.8409978 101.9420014  25.4459992  78.0789978 102.1510014
  24.3319992  78.6669978 100.9450014  25.1059992  79.8439978 101.9850014
  23.9259992  78.9979978 104.2780014  24.3309992  79.9809978 104.4700014
  24.5909992  78.2519978 104.6880014  23.0419992  78.8769978 104.8880014
  18.1249992  78.6479978 101.3070014  20.3389992  78.0719978 100.1560014
  18.4309992  79.3879978  98.0150014  17.1799992  79.0509978  97.7580014
  16.2129992  79.7899978  97.6380014  17.2179992  77.5119978  97.5460014
  16.6759992  77.2399978  98.4770014  18.2769992  77.1769978  97.5290014
  16.3909992  77.2189978  96.3120014  15.3899992  77.6939978  96.3870014
  16.2249992  76.1219978  96.3700014  17.1059992  77.6029978  94.9150014
  17.3659992  78.6719978  94.7560014  16.3149992  77.2849978  94.2030014
  18.4459992  76.8249978  94.8570014  18.3609992  75.7309978  95.0280014
  19.1599992  77.2249978  95.6080014  19.1859992  76.9689978  93.5260014
  19.6889992  77.9529978  93.4140014  18.4849992  76.9929978  92.6640014
  20.1659992  75.8179978  93.4160014  19.5269992  74.9149978  93.3170014
  20.7949992  75.8399978  94.3320014  21.1799992  75.9579978  92.3140014
  21.9969992  75.2429978  92.5470014  21.6929992  76.9409978  92.2510014
  20.5449992  75.7329978  91.0080014  19.5919992  75.1959978  91.1200014
  20.9479992  76.1259978  89.7410014  20.2819992  76.0119978  88.8740014
  22.2089992  76.9229978  89.4510014  22.8709992  76.8569978  90.3400014
  21.9039992  77.9909978  89.4410014  22.8449992  76.5419978  88.1030014
  22.0369992  76.4979978  87.3420014  23.4969992  75.6429978  88.1420014
  23.7659992  77.7379978  87.6970014  24.8089992  77.5479978  88.0300014
  23.4529992  78.7239978  88.1010014  23.9179992  77.9339978  86.1630014
  24.1919992  76.9529978  85.7180014  24.8559992  78.4829978  85.9320014
  22.7619992  78.6839978  85.3990014  22.6319992  79.6979978  85.8340014
  21.8509992  78.0649978  85.5460014  23.1199992  78.8799978  83.8920014
  24.1239992  79.3279978  83.7280014  22.3899992  79.6399978  83.5420014
  23.1529992  77.5559978  83.0660014  22.5179992  76.9369978  83.7360014
  24.1239992  77.0239978  83.1560014  22.5949992  77.6149978  81.6570014
  21.6109992  78.1269978  81.7110014  22.4359992  76.5559978  81.3620014
  23.2539992  78.0889978  80.8980014  24.6679992  56.1699978  81.5790014
  24.9659992  55.4809978  82.3980014  25.4639992  56.9439978  81.5950014
  24.6819992  55.5849978  80.6350014  23.3199992  56.8379978  81.7980014
  23.3499992  57.6899978  81.0860014  22.4749992  56.1779978  81.5060014
  22.8289992  57.4229978  83.1070014  22.0369992  58.1959978  83.0100014
  22.3289992  56.7049978  83.7910014  24.0279992  58.0019978  83.9510014
  24.7819992  57.2509978  84.2700014  24.7119992  58.5769978  83.2910014
  23.6079992  59.0359978  84.9740014  24.4389992  59.6519978  85.3780014
  22.8219992  59.7199978  84.5910014  23.0339992  58.4329978  86.3330014
  22.2189992  57.7479978  86.0150014  23.8149992  57.8349978  86.8500014
  22.4939992  59.6649978  87.2350014  23.3279992  60.3029978  87.5980014
  21.7589992  60.3899978  86.8250014  21.7489992  59.0179978  88.4260014
  21.4349992  59.9709978  88.9040014  20.9429992  58.6069978  87.7820014
  22.5449992  57.9279978  89.2360014  21.8229992  57.6119978  90.0180014
  22.7979992  57.0259978  88.6380014  23.7969992  58.4439978  89.9490014
  24.4919992  58.6449978  89.1060014  23.6619992  59.4349978  90.4340014
  24.5009992  57.5929978  90.9510014  23.7049992  57.2829978  91.6620014
  24.7539992  56.6329978  90.4520014  25.6949992  58.1509978  91.7920014
  26.6449992  58.1389978  91.2150014  25.3769992  59.1879978  92.0320014
  25.9709992  57.3799978  93.1310014  26.1959992  56.3199978  92.8870014
  26.8649992  57.9419978  93.4760014  24.8889992  57.2809978  94.1950014
  24.7489992  58.3169978  94.5710014  23.9289992  56.8689978  93.8180014
  25.2989992  56.2889978  95.2710014  24.9429992  55.2949978  94.9240014
  26.4009992  56.1689978  95.3400014  24.4499992  56.5889978  96.5500014
  23.4799992  57.3059978  96.6200014  24.9779992  55.9579978  97.6180014
  24.2319992  56.0539978  98.8450014  23.2289992  56.4989978  98.6730014
  23.9839992  55.1249978  99.4010014  24.9349992  57.0919978  99.7680014
  25.6229992  56.4669978 100.3760014  23.9169992  57.7059978 100.7430014
  23.1099992  56.9739978 100.9600014  24.5149992  57.9159978 101.6550014
  23.3149992  58.8799978 100.2970014  22.2159992  59.6029978 101.2690014
  23.0569992  59.9969978 102.5490014  22.7329992  61.1229978 103.2560014
  21.6299992  61.1439978 103.3910014  23.0799992  61.0259978 104.3070014
  23.2659992  62.3989978 102.6910014  22.8599992  62.5179978 101.6980014
  22.7169992  63.1849978 103.1880014  24.7329992  62.6429978 102.5850014
  25.3229992  61.7439978 101.5750014  24.7369992  61.7869978 100.6690014
  26.3309992  62.1029978 101.4280014  25.3279992  60.7189978 101.9140014
  24.9059992  64.0319978 102.1220014  24.6269992  63.9699978 101.0800014
  24.3049992  64.6709978 102.7520014  25.9199992  64.3749978 102.2640014
  25.4859992  62.5479978 103.8900014  25.3189992  63.2919978 104.6550014
  26.5419992  62.5239978 103.6680014  25.3389992  61.5779978 104.3410014
  21.6559992  60.7979978 100.5830014  21.2069992  58.5879978 101.6900014
  25.5539992  58.1169978  98.9750014  26.5519992  58.8129978  99.5800014
  26.9289992  58.6369978 100.7250014  27.1799992  59.7369978  98.5520014
  28.2509992  59.9269978  98.7780014  26.7559992  60.7619978  98.6050014
  26.9749992  59.2689978  97.1030014  25.9299992  59.3699978  96.7380014
  27.2129992  58.1849978  97.0550014  27.6829992  60.1409978  96.1060014
  27.4699992  59.8689978  95.0500014  28.7669992  59.9339978  96.2320014
  27.3979992  61.6869978  96.1720014  27.8959992  62.1339978  95.2850014
  27.6029992  62.0429978  97.2050014  25.9199992  62.0599978  96.1120014
  25.4779992  61.4609978  96.9370014  25.4499992  61.6459978  95.1950014
  25.5409992  63.5199978  96.3100014  26.2479992  63.9879978  97.0280014
  24.5059992  63.5309978  96.7120014  25.3969992  64.3439978  94.9680014
  25.2749992  65.4279978  95.1770014  24.4079992  64.1139978  94.5180014
  26.6119992  64.2799978  94.0310014  27.3549992  65.0749978  94.1940014
  26.7639992  63.4579978  92.9190014  27.7339992  63.4919978  92.4010014
  25.8199992  62.4499978  92.3320014  25.0349992  62.2429978  93.0910014
  26.2359992  61.4669978  92.0240014  25.0349992  62.9589978  91.1750014
  24.6669992  63.9779978  91.4200014  24.1709992  62.2749978  91.0350014
  25.7579992  62.9289978  89.8210014  26.3799992  62.0349978  89.5990014
  26.4509992  63.7959978  89.7690014  24.7919992  62.9459978  88.6120014
  24.0299992  63.7239978  88.8340014  24.3149992  61.9469978  88.7060014
  25.3699992  63.3059978  87.3050014  25.7999992  64.3279978  87.3710014
  24.4609992  63.2289978  86.6710014  26.3609992  62.2579978  86.8610014
  25.8759992  61.3069978  87.1690014  27.3489992  62.3399978  87.3640014
  26.5669992  62.1909978  85.3000014  26.4999992  61.1419978  84.9410014
  27.6249992  62.4809978  85.1240014  25.7379992  62.9759978  84.3620014
  24.7369992  62.5189978  84.2090014  26.3649992  62.9369978  83.4450014
  25.6729992  64.0669978  84.5650014  70.7729992 127.6559978  83.0120014
  69.8149992 127.1019978  82.9270014  71.3989992 127.6839978  82.0940014
  70.6059992 128.6659978  83.4460014  71.6789992 126.8699978  84.0150014
  71.9359992 125.8629978  83.6210014  72.6259992 127.4469978  84.0820014
  71.1889992 126.8009978  85.5110014  70.4269992 126.0269978  85.7480014
  72.1129992 126.5629978  86.0790014  70.6969992 128.0489978  86.2550014
  71.6139992 128.5699978  86.6040014  70.0759992 128.6699978  85.5740014
  69.7529992 127.8039978  87.4350014  68.8999992 127.1999978  87.0580014
  70.3079992 127.1709978  88.1610014  69.2519992 129.0409978  88.1710014
  68.9549992 129.7779978  87.3950014  68.4599992 128.7599978  88.8980014
  70.2929992 129.7279978  89.0560014  71.1789992 129.9779978  88.4340014
  69.8299992 130.6639978  89.4350014  70.9379992 128.9619978  90.2270014
  70.9879992 127.8999978  89.9040014  71.9569992 129.3969978  90.3080014
  70.2379992 129.1639978  91.5370014  69.4819992 129.9769978  91.5820014
  69.6619992 128.2379978  91.7470014  71.1239992 129.2209978  92.7890014
  71.4859992 128.1919978  93.0000014  72.0199992 129.8559978  92.6210014
  70.2999992 129.5029978  94.0610014  69.8439992 130.5119978  93.9760014
  69.4919992 128.7429978  94.1220014  71.0029992 129.5129978  95.4180014
  71.6299992 128.5949978  95.4200014  71.7859992 130.3009978  95.3900014
  70.2029992 129.5949978  96.6750014  70.9389992 129.8759978  97.4580014
  69.4829992 130.4339978  96.5670014  69.5409992 128.2809978  97.1060014
  68.5949992 128.0589978  96.5680014  70.3439992 127.5369978  96.9170014
  69.2229992 128.2759978  98.6310014  70.1559992 128.3989978  99.2220014
  68.4869992 129.0579978  98.9150014  68.4859992 126.9509978  99.0410014
  68.1459992 126.1259978  98.2320014  68.4179992 126.8949978 100.3430014
  67.7939992 125.7019978 100.9080014  67.2749992 125.9829978 101.8500014
  66.9689992 125.4199978 100.2190014  68.8829992 124.6489978 101.1910014
  68.3269992 123.7259978 101.4620014  69.9419992 125.1059978 102.1660014
  69.5749992 125.7349978 103.0050014  70.2929992 124.1809978 102.6720014
  70.9739992 125.8679978 101.5050014  72.2369992 126.2519978 102.4020014
  73.2039992 126.8529978 101.2250014  72.8109992 128.1109978 100.7210014
  73.2899992 128.2959978  99.7360014  71.7099992 128.2349978 100.6340014
  73.5069992 129.2299978 101.6840014  73.4499992 130.2369978 101.3000014
  72.9519992 129.2009978 102.6100014  74.9439992 129.0179978 102.0890014
  75.6059992 130.3569978 102.3580014  76.6649992 130.2879978 102.1540014
  75.2219992 131.1269978 101.7050014  75.4339992 130.7209978 103.3600014
  75.0279992 128.1149978 103.2720014  76.0489992 127.9169978 103.5640014
  74.5579992 128.6599978 104.0770014  74.4949992 127.1829978 103.1590014
  75.5989992 128.3409978 100.9270014  75.0799992 127.4239978 100.6920014
  76.6159992 128.1439978 101.2330014  75.5199992 129.0699978 100.1340014
  71.7909992 127.3389978 103.3750014  72.8759992 124.9909978 102.9480014
  69.4429992 124.2839978  99.8850014  70.4769992 123.5929978  99.7680014
  70.9559992 122.7779978 100.5730014  71.1719992 123.9939978  98.4060014
  70.4359992 124.3559978  97.6560014  71.6959992 123.0769978  98.0600014
  72.2249992 125.1109978  98.6080014  72.9129992 124.9009978  99.4550014
  71.7239992 126.0189978  99.0060014  73.1359992 125.3009978  97.4050014
  73.4479992 124.3039978  97.0270014  74.0129992 125.7649978  97.9050014
  72.6409992 126.1919978  96.2480014  72.3089992 127.1779978  96.6370014
  71.7389992 125.6869978  95.8410014  73.6029992 126.5729978  95.0660014
  72.9409992 127.0579978  94.3180014  74.0229992 125.6529978  94.6060014
  74.7169992 127.4909978  95.3940014  75.5649992 126.8199978  95.6500014
  74.3989992 128.1559978  96.2250014  75.2589992 128.3169978  94.2010014
  75.9959992 128.9939978  94.6840014  74.3399992 128.8969978  93.9690014
  75.9199992 127.5419978  93.0620014  76.9409992 127.2259978  93.3210014
  75.4569992 127.0809978  91.8410014  76.1549992 126.5729978  91.1590014
  74.0799992 127.2179978  91.3210014  74.1919992 127.5329978  90.2610014
  73.4809992 127.9389978  91.9170014  73.1989992 125.8549978  91.4400014
  72.2029992 126.1689978  91.0600014  73.0809992 125.5439978  92.5000014
  73.7809992 124.7009978  90.6390014  74.5069992 124.3119978  91.3850014
  74.0469992 125.1339978  89.6520014  72.7849992 123.5229978  90.3820014
  72.4459992 123.2949978  91.4150014  73.3539992 122.6739978  89.9480014
  71.6129992 123.7879978  89.4360014  70.9289992 124.5179978  89.9190014
  71.1249992 122.8009978  89.2840014  71.9019992 124.4889978  88.0890014
  72.5409992 125.3619978  88.3400014  70.9459992 124.7419978  87.5820014
  72.6639992 123.5229978  87.1400014  71.8289992 122.9249978  86.7170014
  73.2629992 122.8739978  87.8130014  73.4739992 124.0239978  85.9150014
  74.3009992 124.6989978  86.2230014  72.7879992 124.7109978  85.3750014
  73.9209992 123.2499978  85.2560014 133.0689992  82.1439978  82.9800014
 133.2849992  83.1219978  83.4610014 133.1209992  82.2269978  81.8740014
 133.8569992  81.4569978  83.3580014 131.7429992  81.6969978  83.5030014
 131.1079992  82.5409978  83.1560014 131.5749992  80.7469978  82.9540014
 131.5619992  81.5359978  85.0170014 131.7759992  82.4879978  85.5470014
 130.5319992  81.1829978  85.2380014 132.5799992  80.6319978  85.6300014
 132.6109992  79.6619978  85.0890014 133.5949992  81.0829978  85.6080014
 132.2589992  80.3319978  87.1550014 132.4609992  81.2699978  87.7150014
 131.1889992  80.1189978  87.3630014 133.0299992  79.2239978  87.7870014
 132.8989992  78.3089978  87.1710014 134.1259992  79.3989978  87.7620014
 132.5099992  79.0169978  89.2670014 132.7419992  79.9559978  89.8130014
 131.4059992  78.8979978  89.2760014 133.0879992  77.7889978  89.9920014
 132.4619992  77.7359978  90.9080014 132.8249992  76.9189978  89.3540014
 134.6189992  77.8469978  90.2950014 135.1249992  77.7419978  89.3120014
 134.9109992  78.7949978  90.7950014 135.1059992  76.7379978  91.2270014
 134.4479992  76.7429978  92.1220014 135.0149992  75.6929978  90.8600014
 136.5839992  76.9459978  91.6620014 137.1649992  76.6199978  90.7730014
 136.7889992  78.0119978  91.8980014 137.0519992  76.2289978  92.9730014
 137.2529992  75.1969978  92.6130014 138.0509992  76.6389978  93.2340014
 136.0569992  76.0739978  94.1200014 135.1459992  75.4679978  93.9290014
 136.4799992  75.4449978  94.9330014 135.6779992  77.4389978  94.8230014
 135.0769992  77.9839978  94.0640014 134.9129992  77.2839978  95.6130014
 136.8149992  78.2359978  95.4620014 137.1839992  77.7829978  96.4060014
 137.5919992  78.2719978  94.6680014 136.2869992  79.6499978  95.8520014
 135.3269992  80.2389978  95.4070014 137.2229992  80.1659978  96.6010014
 137.4139992  81.5399978  96.9160014 138.5099992  81.6369978  97.0750014
 137.0509992  82.2059978  96.1050014 136.7239992  81.8249978  98.2290014
 136.7459992  82.9229978  98.3980014 137.3839992  81.1939978  99.5180014
 137.3649992  80.0879978  99.4170014 138.4449992  81.5149978  99.4510014
 136.7929992  81.6799978 100.6730014 137.0969992  80.9679978 102.1330014
 135.6529992  80.2209978 102.3970014 134.4849992  80.9809978 102.4020014
 134.5989992  81.8129978 103.1300014 134.2269992  81.4149978 101.4120014
 133.2909992  80.0939978 102.9350014 133.5439992  79.5679978 103.8440014
 132.4949992  80.7759978 103.1970014 132.7019992  79.1169978 101.9070014
 132.0529992  79.7639978 100.7740014 131.7119992  78.9869978 100.1060014
 131.3739992  80.4779978 101.2150014 132.7169992  80.4859978 100.3220014
 133.7349992  78.2169978 101.4040014 134.0609992  77.6919978 102.2890014
 133.2709992  77.4759978 100.7690014 134.5059992  78.8519978 100.9940014
 131.5769992  78.2889978 102.6510014 131.9359992  77.7139978 103.4910014
 131.1599992  77.7219978 101.8320014 130.7829992  78.9279978 103.0090014
 138.2369992  79.9739978 102.0440014 137.3289992  82.0599978 103.1870014
 135.3139992  81.5179978  98.1140014 134.5069992  82.5099978  97.5480014
 134.9149992  83.4759978  96.9550014 133.0449992  82.0839978  97.7750014
 132.8409992  82.3529978  98.8330014 132.8279992  80.9959978  97.7070014
 132.0379992  82.8719978  96.8500014 132.3309992  83.9329978  96.6980014
 131.0999992  82.9429978  97.4410014 131.6819992  82.1339978  95.5810014
 130.7839992  82.7109978  95.2710014 131.2729992  81.1459978  95.8810014
 132.6819992  82.0469978  94.4200014 132.4229992  81.1959978  93.7540014
 133.6789992  81.7189978  94.7810014 132.8869992  83.3339978  93.7280014
 133.1969992  84.1059978  94.4640014 131.9249992  83.5669978  93.2250014
 134.0139992  83.3859978  92.6630014 133.9659992  84.3939978  92.1990014
 133.9369992  82.5679978  91.9140014 135.4619992  83.1969978  93.3790014
 135.6939992  82.1709978  93.7360014 135.3689992  83.8269978  94.2890014
 136.5979992  83.6519978  92.4610014 136.9699992  84.6609978  92.6950014
 137.0219992  83.1309978  91.3230014 137.4479992  83.8129978  90.5720014
 136.3389992  81.8859978  90.7380014 136.0129992  82.1579978  89.7120014
 135.5159992  81.4059978  91.3100014 137.3059992  80.5919978  90.5490014
 136.7019992  79.7039978  90.2620014 137.9379992  80.4009978  91.4430014
 138.2439992  80.7999978  89.3110014 139.2659992  80.3659978  89.3390014
 138.3099992  81.8789978  89.0560014 137.8729992  79.9459978  88.0030014
 136.8509992  80.2449978  87.6870014 137.8819992  78.8419978  88.1320014
 138.8089992  80.2639978  86.8100014 139.7999992  80.1209978  87.2910014
 138.6549992  81.3579978  86.6880014 138.6999992  79.4559978  85.4890014
 139.3899992  79.9039978  84.7430014 137.7229992  79.6399978  84.9940014
 138.9929992  77.9969978  85.5970014 138.4429992  77.6179978  86.4850014
 140.0809992  77.7739978  85.6210014 138.3099992  77.2239978  84.5140014
 138.9189992  77.2419978  83.5850014 137.2739992  77.5119978  84.2350014
 138.4589992  76.1429978  84.7240014 103.9469992  13.4749978  79.7620014
 103.0739992  13.8629978  79.1940014 103.4609992  12.9149978  80.5890014
 104.5829992  12.7949978  79.1550014 104.7679992  14.6659978  80.2360014
 105.5819992  14.2439978  80.8630014 105.3119992  15.0099978  79.3310014
 104.0089992  15.8329978  81.0210014 104.7369992  16.6539978  81.1920014
 103.2679992  16.2539978  80.3080014 103.1999992  15.3989978  82.2510014
 102.4079992  16.1499978  82.4590014 102.5749992  14.5399978  81.9250014
 104.0939992  15.1709978  83.4760014 104.8029992  14.3899978  83.1270014
 104.6729992  16.1049978  83.6420014 103.2269992  14.7319978  84.7350014
 103.6879992  15.0299978  85.7010014 102.2829992  15.3019978  84.6030014
 102.7879992  13.2629978  84.7970014 101.7499992  13.2199978  84.4040014
 103.4569992  12.6359978  84.1690014 102.7819992  12.8409978  86.2650014
 103.0249992  11.7569978  86.2640014 103.6009992  13.4109978  86.7540014
 101.6799992  13.3699978  87.1640014 101.6349992  14.4799978  87.1390014
 100.6819992  13.0239978  86.8200014 101.7969992  12.9029978  88.6540014
 100.7819992  13.2229978  88.9740014 101.8809992  11.8069978  88.8130014
 102.8859992  13.6479978  89.4820014 103.3609992  14.5449978  89.0300014
 102.3189992  14.0299978  90.3580014 104.1589992  12.8169978  89.8800014
 103.7169992  11.8819978  90.2870014 104.6379992  12.5249978  88.9220014
 104.9919992  13.4719978  91.0390014 105.2139992  14.5479978  90.8730014
 104.3879992  13.2829978  91.9520014 106.3339992  12.6659978  91.2320014
 106.0869992  11.6019978  91.0260014 106.8519992  12.9679978  90.2970014
 107.2169992  12.9989978  92.4670014 108.2249992  12.5779978  92.2600014
 107.3519992  14.0979978  92.5610014 106.5569992  12.2909978  93.6160014
 105.9969992  11.2299978  93.5620014 106.7709992  13.0119978  94.7100014
 106.4419992  12.3439978  95.9360014 105.4639992  11.8219978  95.8600014
 107.2229992  11.5939978  96.1850014 106.2059992  13.3309978  97.1330014
 107.2439992  13.4029978  97.5220014 105.2279992  12.7579978  98.1720014
 104.1809992  12.9989978  97.8870014 105.5699992  11.7529978  98.4990014
 105.5839992  13.5309978  99.3840014 104.9439992  13.0889978 100.8230014
 105.0689992  14.2299978 101.8770014 105.5769992  15.5589978 101.4470014
 106.6359992  15.5789978 101.1120014 105.0489992  15.8639978 100.5180014
 105.4319992  16.4609978 102.6590014 106.1949992  16.2719978 103.4000014
 105.6359992  17.4709978 102.3360014 104.1279992  16.4459978 103.3720014
 103.8019992  15.2189978 104.2040014 103.7969992  14.3629978 103.5450014
 104.5139992  15.2059978 105.0160014 102.7869992  15.2249978 104.5740014
 104.2209992  17.5839978 104.3870014 105.0049992  17.1439978 104.9870014
 104.6589992  18.4339978 103.8860014 103.3529992  17.5989978 105.0300014
 102.9729992  16.6119978 102.4270014 103.1139992  17.4209978 101.7250014
 102.1219992  16.8359978 103.0530014 102.9219992  15.6909978 101.8650014
 103.5049992  12.7469978 100.5340014 105.7739992  12.0099978 101.3920014
 105.6349992  14.5539978  96.6780014 106.5009992  15.4899978  96.2150014
 107.7319992  15.4909978  96.2990014 105.6819992  16.5989978  95.6600014
 106.1329992  17.5519978  96.0100014 104.6539992  16.4609978  96.0590014
 105.7709992  16.6149978  94.0980014 104.9729992  17.3499978  93.8620014
 105.3379992  15.6829978  93.6760014 107.1019992  16.9299978  93.3890014
 107.8899992  16.1589978  93.5200014 107.5009992  17.8959978  93.7650014
 106.7369992  17.1129978  91.8450014 106.1239992  16.2679978  91.4640014
 107.7269992  17.0099978  91.3510014 105.9949992  18.4649978  91.5070014
 106.5399992  19.3679978  91.8570014 105.0619992  18.6239978  92.0880014
 105.7189992  18.5809978  90.0440014 106.5589992  18.2629978  89.3900014
 105.7029992  19.6629978  89.7920014 104.3359992  17.9629978  89.6010014
 103.5019992  18.4959978  90.1050014 104.2689992  16.9479978  90.0470014
 104.0639992  17.9899978  88.0900014 103.2499992  18.5929978  87.6620014
 104.7939992  17.2159978  87.2840014 104.6529992  17.1429978  86.1960014
 105.8639992  16.2469978  87.5980014 105.6149992  15.2319978  87.2190014
 106.0419992  16.0809978  88.6820014 107.1219992  16.6139978  86.8860014
 107.4009992  17.6569978  87.1480014 107.0779992  16.5139978  85.7800014
 108.3519992  15.8039978  87.3630014 108.6509992  15.9829978  88.4180014
 109.1959992  16.2349978  86.7830014 108.3479992  14.2599978  87.1120014
 107.5019992  13.7519978  87.6240014 109.0769992  13.8229978  87.8280014
 108.6389992  13.7789978  85.7050014 109.3799992  12.9569978  85.7970014
 109.0199992  14.5609978  85.0140014 107.5229992  13.1589978  85.0210014
 106.7179992  13.9229978  85.0670014 107.1589992  12.2419978  85.5320014
 108.0299992  12.6199978  83.6770014 108.8919992  11.9189978  83.6780014
 108.3249992  13.5789978  83.2020014 106.9499992  12.0199978  82.8360014
 106.0269992  12.6349978  82.7690014 106.5869992  11.0419978  83.2200014
 107.3919992  11.8319978  81.8340014 110.7189992  24.1959978  84.9090014
 110.4969992  24.9839978  85.6600014 109.7459992  23.7219978  84.6600014
 111.2289992  24.7079978  84.0650014 111.6679992  23.1229978  85.4690014
 111.9699992  22.3769978  84.7040014 112.6289992  23.5679978  85.8060014
 111.1739992  22.2209978  86.6640014 111.2379992  21.1469978  86.3870014
 111.9169992  22.2879978  87.4870014 109.7749992  22.5399978  87.2640014
 109.6479992  23.6429978  87.2920014 108.9349992  22.2679978  86.5890014
 109.4329992  21.8319978  88.5830014 108.5109992  22.2869978  89.0030014
 109.3339992  20.7259978  88.5290014 110.4419992  22.1109978  89.7410014
 109.8229992  21.7999978  90.6100014 111.3779992  21.5139978  89.6990014
 110.7739992  23.5869978  89.8610014 111.4589992  24.0139978  89.0970014
 109.7949992  24.1029978  89.7660014 111.3379992  24.0469978  91.1900014
 111.2419992  25.1369978  91.3790014 110.7169992  23.5039978  91.9340014
 112.8069992  23.7129978  91.3850014 112.9029992  22.6109978  91.2830014
 113.4139992  24.1599978  90.5680014 113.3939992  24.1789978  92.6950014
 114.3269992  23.5829978  92.7800014 113.6599992  25.2559978  92.7350014
 112.5149992  23.9869978  94.0170014 113.1789992  24.3179978  94.8440014
 111.5739992  24.5769978  94.0060014 112.1669992  22.5189978  94.2830014
 111.4249992  22.1799978  93.5290014 113.1479992  22.0169978  94.1420014
 111.6049992  22.3609978  95.7640014 112.3099992  22.6729978  96.5640014
 110.7349992  23.0509978  95.8120014 111.1769992  20.9489978  95.9540014
 110.3899992  20.6999978  95.2120014 112.0619992  20.3139978  95.7340014
 110.5709992  20.6449978  97.3160014 110.2979992  19.5949978  97.5590014
 111.2349992  20.9509978  98.1520014 109.2089992  21.4099978  97.5160014
 108.5569992  22.0859978  96.6310014 108.8389992  21.4509978  98.7710014
 107.5859992  21.9949978  99.1350014 107.5409992  23.0989978  99.0160014
 106.8429992  21.5749978  98.4240014 107.3399992  21.6099978 100.6400014
 106.2419992  21.5009978 100.7670014 107.9159992  22.7009978 101.5760014
 107.7319992  23.7159978 101.1640014 107.3899992  22.7559978 102.5530014
 109.3349992  22.5619978 101.7410014 110.1919992  22.9089978 102.8750014
 111.4279992  21.9109978 102.7230014 111.3929992  20.4979978 103.1060014
 112.0259992  20.3269978 104.0030014 110.3619992  20.2309978 103.4230014
 111.6049992  19.5729978 101.8980014 111.5909992  18.5459978 102.2310014
 110.8419992  19.5809978 101.1330014 112.8769992  19.7419978 101.0860014
 114.1329992  19.8539978 101.9760014 114.3139992  18.9589978 102.5530014
 114.9979992  20.0399978 101.3560014 113.8969992  20.7239978 102.5710014
 113.1539992  18.5789978 100.1020014 112.6469992  18.7579978  99.1650014
 114.1899992  18.7199978  99.8310014 112.9039992  17.6289978 100.5500014
 112.7549992  20.9699978 100.2250014 111.8469992  20.9859978  99.6400014
 113.6049992  21.0019978  99.5600014 112.9249992  21.7949978 100.9000014
 110.6269992  24.3229978 102.6330014 109.4809992  22.5699978 104.1410014
 107.9879992  20.4029978 101.0450014 107.4929992  19.2689978 100.5530014
 106.5739992  19.1819978  99.7420014 108.3149992  18.0449978 101.0780014
 107.9609992  17.9249978 102.1240014 109.4109992  18.2079978 100.9950014
 107.9209992  16.8399978 100.2510014 106.8329992  16.7379978 100.0500014
 108.3259992  15.9259978 100.7360014 108.6709992  16.8249978  98.8620014
 108.9599992  15.7819978  98.6080014 109.5899992  17.4489978  98.8620014
 107.7389992  17.2969978  97.6430014 107.7169992  18.4079978  97.6520014
 106.7099992  16.9609978  97.8920014 108.1049992  16.8159978  96.2500014
 108.0099992  15.7119978  96.1610014 109.1479992  17.0219978  95.9260014
 107.3299992  17.6879978  95.1660014 107.3929992  18.7839978  95.3400014
 106.2899992  17.3229978  95.3100014 107.6709992  17.0399978  93.7540014
 106.8509992  17.3569978  93.0740014 107.5759992  15.9449978  93.9160014
 109.0369992  17.4309978  93.2690014 109.7889992  17.6099978  94.0510014
 109.4209992  17.7459978  92.0070014 110.4729992  18.0399978  91.8710014
 108.6369992  17.8039978  90.7500014 108.7239992  18.7599978  90.1910014
 107.5639992  17.6909978  91.0170014 108.9939992  16.6909978  89.7320014
 109.0969992  15.6929978  90.2080014 109.9749992  16.9659978  89.2910014
 107.8769992  16.4799978  88.7260014 107.0079992  16.0069978  89.2310014
 108.0949992  15.8039978  87.8710014 107.4269992  17.8089978  87.9920014
 107.0609992  18.5419978  88.7430014 106.5999992  17.5079978  87.3140014
 108.4829992  18.6649978  87.3170014 109.3479992  18.7929978  88.0020014
 108.2149992  19.7409978  87.2430014 109.0199992  18.0099978  86.0340014
 108.1819992  17.9389978  85.3080014 109.4119992  17.0149978  86.3350014
 110.1579992  18.7839978  85.3350014 111.0849992  18.7109978  85.9440014
 109.8519992  19.8489978  85.2590014 110.5399992  18.1949978  83.9840014
 111.4719992  18.6439978  83.5790014 109.7079992  18.4719978  83.3020014
 110.6779992  17.1209978  84.2310014  42.6959992 121.4779978  82.4720014
  41.9189992 120.7009978  82.3070014  43.6439992 121.1139978  82.9250014
  43.0309992 121.8929978  81.4970014  42.0689992 122.6259978  83.3330014
  41.0669992 122.7599978  82.8730014  41.9329992 122.1269978  84.3160014
  42.9069992 123.9209978  83.3790014  42.9409992 124.3669978  82.3620014
  42.3289992 124.6359978  84.0040014  44.3379992 123.9189978  84.0000014
  45.0289992 123.1719978  83.5550014  44.6489992 124.9749978  83.8500014
  44.3029992 123.5079978  85.4690014  43.6009992 124.0709978  86.1210014
  43.9659992 122.4499978  85.4360014  45.6829992 123.4109978  86.2070014
  46.3519992 122.6639978  85.7300014  46.2409992 124.3699978  86.1490014
  45.5719992 122.9279978  87.6640014  44.8289992 123.6209978  88.1120014
  45.0999992 121.9309978  87.5280014  46.9369992 122.9679978  88.3220014
  47.5989992 122.2229978  87.8300014  47.3729992 123.9849978  88.2290014
  46.8589992 122.6339978  89.8790014  46.3289992 123.4269978  90.4470014
  46.1029992 121.8209978  89.8400014  48.1119992 122.1859978  90.5430014
  48.6629992 121.4579978  89.9080014  48.8429992 123.0219978  90.5190014
  47.8929992 121.7269978  91.9870014  48.7899992 121.2179978  92.3990014
  47.6419992 122.5479978  92.6920014  46.9149992 120.6349978  92.2990014
  46.0179992 120.6529978  91.6440014  47.3499992 119.7499978  91.7880014
  46.4869992 120.5089978  93.7300014  47.3479992 120.5929978  94.4270014
  45.9109992 121.4179978  94.0050014  45.6659992 119.2319978  94.0890014
  44.7419992 119.3159978  93.4780014  46.0399992 118.2779978  93.6610014
  45.2499992 119.1409978  95.5440014  44.7229992 120.0849978  95.7990014
  44.5689992 118.2639978  95.5980014  46.3449992 118.8819978  96.5740014
  47.4329992 118.4049978  96.3660014  45.8309992 119.2399978  97.7590014
  46.4979992 119.1899978  98.9940014  45.8829992 118.7839978  99.8250014
  47.5099992 118.7319978  98.9980014  46.7599992 120.6619978  99.4260014
  47.3929992 121.1209978  98.6370014  47.3529992 120.7079978 100.8400014
  48.2599992 120.0689978 100.8870014  47.5179992 121.7729978 101.1080014
  46.3859992 120.1489978 101.7740014  45.2679992 120.8749978 102.5660014
  44.0879992 120.8969978 101.5450014  43.4729992 119.6609978 101.0410014
  43.2789992 119.9309978  99.9810014  44.2129992 118.8349978 100.9740014
  42.0819992 119.3119978 101.5540014  41.6429992 118.6409978 100.8310014
  42.1279992 118.8139978 102.5110014  41.1679992 120.4919978 101.7510014
  41.0219992 121.4219978 100.6740014  40.1929992 121.3609978  99.9840014
  41.1079992 122.4159978 101.0880014  41.8059992 121.4199978  99.9310014
  39.7379992 119.9349978 102.0530014  39.6419992 119.4329978 103.0050014
  39.0379992 120.7569978 102.0550014  39.4819992 119.1869978 101.3180014
  41.5419992 121.2879978 102.9560014  41.6189992 120.6919978 103.8530014
  40.7089992 121.9299978 103.2000014  42.4869992 121.8019978 102.8570014
  44.8579992 120.0729978 103.7170014  45.7819992 122.2299978 102.8740014
  45.5029992 121.4479978  99.3540014  45.6169992 122.7189978  99.0750014
  46.5729992 123.3709978  98.8550014  44.2779992 123.2569978  99.2690014
  44.2479992 123.9159978 100.1630014  43.5579992 122.4109978  99.3090014
  43.8379992 124.0289978  97.9550014  44.6019992 124.8109978  97.7540014
  42.9019992 124.5759978  98.1980014  43.5889992 123.1929978  96.6280014
  44.5489992 122.7959978  96.2360014  43.1349992 123.8849978  95.8870014
  42.5049992 122.0749978  96.7830014  41.7039992 122.4949978  97.4270014
  42.8459992 121.1329978  97.2630014  41.9839992 121.5739978  95.4350014
  42.7089992 120.9859978  94.8330014  41.7609992 122.4799978  94.8320014
  40.7509992 120.5989978  95.5420014  40.0539992 121.2679978  96.0900014
  40.8719992 119.7569978  96.2570014  40.0579992 120.2639978  94.1840014
  39.8709992 121.1219978  93.5040014  39.0279992 119.9329978  94.4400014
  40.8579992 119.0709978  93.5960014  40.8199992 118.1369978  94.1760014
  41.6279992 119.1119978  92.4720014  42.1989992 118.2339978  92.1360014
  41.9439992 120.2869978  91.5260014  43.0399992 120.3699978  91.3640014
  41.6549992 121.2839978  91.9220014  41.2079992 120.0809978  90.1940014
  41.0579992 121.0589978  89.6880014  40.1619992 119.7959978  90.4370014
  41.7789992 119.0519978  89.2260014  41.2319992 119.0459978  88.2600014
  41.7509992 118.0369978  89.6780014  43.2159992 119.3969978  88.8620014
  43.8119992 119.4379978  89.7990014  43.4049992 120.3839978  88.3890014
  43.8459992 118.2599978  88.0480014  43.7369992 117.3639978  88.6960014
  44.8909992 118.4979978  87.7550014  43.2729992 117.9339978  86.6770014
  43.1999992 118.9429978  86.2180014  42.2079992 117.6189978  86.6960014
  44.1699992 116.9069978  85.8330014  43.4029992 116.5619978  85.1080014
  44.4869992 116.1199978  86.5500014  45.2119992 117.5799978  84.9460014
  44.7089992 118.3669978  84.3440014  45.7509992 116.9039978  84.2490014
  45.9819992 118.0509978  85.5940014  57.5749992 122.4959978  82.3560014
  57.2999992 123.2869978  81.6270014  56.8219992 122.5349978  83.1730014
  57.5109992 121.4339978  82.0360014  59.0289992 122.7069978  82.7970014
  59.2569992 122.0999978  83.6990014  59.7009992 122.4689978  81.9440014
  59.3859992 124.1729978  83.0040014  60.3769992 124.0629978  83.4940014
  59.1889992 124.8579978  82.1520014  58.4439992 124.8519978  84.0190014
  58.7339992 125.9139978  84.1740014  57.4219992 124.9609978  83.5970014
  58.3329992 124.1739978  85.3960014  57.5009992 124.5919978  86.0010014
  58.1489992 123.0789978  85.3440014  59.6629992 124.3229978  86.0910014
  60.4859992 124.3099978  85.3450014  59.6419992 125.3199978  86.5810014
  59.9699992 123.2409978  87.1590014  59.9509992 122.2279978  86.7050014
  60.9799992 123.2609978  87.6210014  58.8379992 123.0789978  88.1860014
  58.7919992 123.8199978  89.0130014  57.8629992 123.1249978  87.6560014
  58.9429992 121.6569978  88.8710014  58.7299992 120.9359978  88.0540014
  60.0249992 121.7029978  89.1200014  57.8439992 121.4849978  90.0450014
  58.0339992 122.0779978  90.9650014  56.9249992 121.9069978  89.5860014
  57.7149992 119.9379978  90.2010014  57.3739992 119.6509978  89.1840014
  58.6449992 119.3499978  90.3540014  56.6109992 119.5179978  91.2120014
  55.6639992 120.0239978  90.9290014  56.4459992 118.4249978  91.0980014
  56.9949992 119.8669978  92.7010014  56.9609992 120.9779978  92.6970014
  56.2129992 119.4949978  93.3960014  58.3299992 119.3799978  93.3330014
  58.3149992 118.2719978  93.4230014  59.2389992 119.5959978  92.7310014
  58.4589992 119.9719978  94.7940014  57.6799992 119.7359978  95.5490014
  59.3739992 119.5039978  95.2170014  58.8019992 121.4819978  94.8670014
  59.0059992 122.1839978  93.9470014  58.7639992 121.7709978  96.1040014
  58.8369992 123.1749978  96.4190014  59.6599992 123.2499978  97.1600014
  59.2079992 123.8889978  95.6530014  57.5219992 123.7459978  96.9980014
  57.5799992 124.8279978  97.2420014  57.3069992 123.1269978  98.3910014
  56.8649992 122.1129978  98.2940014  58.2699992 123.0599978  98.9410014
  56.2599992 123.8639978  99.0530014  56.7759992 124.8149978 100.2180014
  57.7479992 123.8599978 101.1140014  57.0639992 123.1579978 102.1090014
  56.0359992 122.8519978 101.8190014  57.6279992 122.2009978 102.1080014
  57.2629992 123.8319978 103.4960014  56.6049992 124.6839978 103.5840014
  56.9159992 123.1729978 104.2780014  58.6499992 124.3379978 103.9070014
  58.7479992 124.6839978 105.4040014  58.0529992 125.5039978 105.4940014
  58.4359992 123.8859978 106.0610014  59.7269992 125.0549978 105.6700014
  59.6579992 123.2569978 103.5250014  60.6769992 123.6129978 103.5500014
  59.5969992 122.4519978 104.2430014  59.4829992 122.9199978 102.5140014
  58.9759992 125.5429978 103.0780014  59.9829992 125.9299978 103.1200014
  58.2489992 126.3239978 103.2470014  58.9009992 125.2449978 102.0430014
  57.5329992 125.8489978  99.5580014  55.5769992 125.2479978 101.0440014
  56.3579992 123.4779978  96.2470014  56.0779992 124.3049978  95.2110014
  56.9029992 125.1089978  94.7480014  54.6069992 124.2329978  94.9370014
  54.1709992 125.1669978  95.3520014  54.1009992 123.3149978  95.3040014
  54.3629992 124.4059978  93.4160014  54.8349992 123.6179978  92.7910014
  54.8629992 125.3419978  93.0870014  52.8639992 124.3979978  93.0280014
  52.3289992 125.2509978  93.4970014  52.4129992 123.4769978  93.4550014
  52.5779992 124.4279978  91.5440014  51.5019992 124.4829978  91.2730014
  52.9139992 123.4569978  91.1200014  53.0589992 125.7509978  90.8520014
  54.1469992 125.9779978  90.8700014  52.6979992 126.5059978  91.5830014
  52.6699992 126.0639978  89.3770014  53.0159992 127.1089978  89.2290014
  51.5639992 126.0999978  89.2730014  53.3929992 125.2169978  88.3130014
  52.9989992 125.3899978  87.2890014  53.1339992 124.1599978  88.5370014
  54.8539992 125.2789978  88.1960014  55.3059992 124.3499978  88.5730014
  55.5839992 126.3459978  87.6890014  56.6759992 126.3309978  87.8220014
  55.0129992 127.6629978  87.1710014  55.0099992 128.4179978  87.9860014
  53.9769992 127.6439978  86.7680014  55.8369992 128.3019978  86.0390014
  56.8939992 128.3639978  86.3760014  55.5099992 129.3289978  85.7720014
  55.8809992 127.4389978  84.7420014  56.1789992 126.4179978  85.0640014
  56.5449992 127.8229978  83.9380014  54.4249992 127.4779978  84.0850014
  54.1289992 128.5389978  83.9390014  53.6949992 127.0939978  84.8290014
  54.2399992 126.7099978  82.7050014  54.9939992 127.2399978  82.0840014
  53.2379992 126.8569978  82.2480014  54.5839992 125.2579978  82.7730014
  55.6779992 125.0859978  82.8480014  54.1589992 124.7489978  81.8810014
  53.9029992 124.5809978  83.9290014  52.8799992 125.0019978  83.8280014
  54.2959992 124.9449978  84.9020014  53.9359992 123.0809978  83.9130014
  53.9419992 122.6219978  82.9010014  53.0779992 122.6489978  84.4710014
  54.8029992 122.6479978  84.4560014 116.8949992 114.4919978  83.1460014
 117.7699992 114.1239978  82.5680014 117.0389992 115.5819978  83.3070014
 115.9019992 114.2059978  82.7380014 116.9489992 113.9229978  84.5510014
 116.1679992 114.4099978  85.1730014 116.6639992 112.8509978  84.5030014
 118.2899992 114.0399978  85.3050014 118.2599992 113.5339978  86.2940014
 119.1589992 113.6519978  84.7320014 118.6279992 115.5279978  85.5420014
 118.8079992 115.9329978  84.5240014 117.6629992 116.0149978  85.8000014
 119.8899992 115.8959978  86.5080014 120.7919992 115.4749978  86.0140014
 119.8969992 117.0069978  86.4780014 119.8479992 115.4319978  87.9970014
 120.0829992 114.3459978  88.0120014 120.6439992 115.9989978  88.5250014
 118.5629992 115.5579978  88.7070014 118.2039992 116.6029978  88.5940014
 117.8149992 114.8119978  88.3630014 118.7949992 115.3599978  90.2080014
 119.0659992 114.2999978  90.4000014 119.5389992 116.0549978  90.6520014
 117.4919992 115.5179978  91.0950014 117.0519992 116.5339978  91.0140014
 116.7479992 114.7239978  90.8690014 117.6849992 115.3839978  92.5520014
 118.0859992 114.3649978  92.7370014 118.4989992 116.0659978  92.8810014
 116.3179992 115.6639978  93.2950014 115.9249992 116.6589978  92.9970014
 115.6509992 114.8349978  92.9760014 116.4569992 115.6569978  94.8480014
 116.9619992 116.6389978  94.9710014 115.4549992 115.8459978  95.2890014
 117.2509992 114.5119978  95.2800014 116.9429992 113.5669978  94.7840014
 118.3289992 114.6919978  95.0810014 117.0609992 114.3089978  96.8580014
 116.0219992 114.2029978  97.2360014 117.6819992 113.4279978  97.1290014
 117.5689992 115.5109978  97.6960014 117.0289992 116.4339978  97.3970014
 117.1949992 115.2359978  98.7050014 119.0489992 115.7179978  97.8440014
 119.8339992 115.5089978  96.9480014 119.3259992 116.3879978  98.9420014
 120.7829992 116.4419978  99.2070014 121.3229992 115.4829978  99.3650014
 121.2849992 116.9189978  98.3380014 121.0739992 117.3049978 100.4700014
 122.1589992 117.4319978 100.6750014 120.5789992 116.6269978 101.8200014
 121.0909992 115.6569978 101.9970014 120.9749992 117.4599978 102.4390014
 119.1209992 116.4599978 101.8270014 118.5289992 115.9519978 103.1740014
 116.9899992 116.2859978 103.0850014 116.2269992 115.8359978 101.9130014
 116.8459992 115.4359978 101.0820014 115.5699992 114.9719978 102.1510014
 115.2989992 116.8879978 101.3420014 114.8389992 116.4739978 100.4570014
 114.4579992 117.0389978 102.0020014 115.8659992 118.2109978 101.0060014
 114.8949992 119.0539978 100.1820014 114.1229992 119.3699978 100.8680014
 115.3909992 119.9479978  99.8340014 114.4669992 118.5459978  99.3300014
 116.1679992 118.9839978 102.3380014 116.6439992 119.9399978 102.1750014
 115.2939992 119.0489978 102.9690014 116.8359992 118.3829978 102.9360014
 117.1049992 118.1759978 100.1730014 117.0059992 117.4899978  99.3450014
 117.8819992 117.8219978 100.8340014 117.3459992 119.2149978 100.0010014
 118.7369992 114.5009978 103.1890014 119.1499992 116.7099978 104.2770014
 120.3619992 118.5079978 100.1660014 121.0419992 119.3339978  99.3530014
 122.1849992 119.1739978  98.9120014 120.2439992 120.6389978  99.1040014
 121.0019992 121.4479978  99.1800014 119.5499992 120.7989978  99.9570014
 119.5439992 120.7249978  97.7340014 120.3249992 120.4089978  97.0110014
 119.3199992 121.7849978  97.4870014 118.3429992 119.9369978  97.3940014
 117.4769992 120.1839978  98.0450014 118.7259992 118.8949978  97.3590014
 117.7469992 120.1809978  95.9550014 117.6589992 121.2569978  95.6920014
 116.7079992 119.7879978  95.9290014 118.4339992 119.4499978  94.8790014
 118.4399992 118.3659978  95.1220014 119.5069992 119.7369978  94.8720014
 117.8429992 119.5199978  93.4730014 116.8299992 119.0649978  93.4740014
 118.4519992 118.8889978  92.7920014 117.8369992 120.8709978  92.7040014
 117.3019992 121.5259978  93.4250014 117.1769992 120.8809978  91.8110014
 119.1499992 121.6159978  92.4340014 119.2189992 122.5609978  92.9940014
 120.1509992 121.3289978  91.5310014 121.0769992 121.9189978  91.5810014
 120.2109992 120.1719978  90.5230014 119.2019992 119.7269978  90.3840014
 120.9109992 119.3809978  90.8690014 120.7429992 120.5939978  89.1130014
 121.5679992 121.3349978  89.1920014 119.8959992 120.9909978  88.5140014
 121.0979992 119.2739978  88.2970014 120.2719992 118.5579978  88.4960014
 122.0729992 118.8689978  88.6430014 121.1939992 119.6109978  86.7770014
 121.4549992 118.6889978  86.2160014 122.0519992 120.3159978  86.7820014
 120.0799992 120.1809978  86.0490014 120.5009992 120.3839978  85.0410014
 119.7679992 121.1479978  86.4980014 118.7559992 119.3679978  85.9080014
 118.4039992 119.0839978  86.9220014 118.9399992 118.3539978  85.4940014
 117.5249992 119.9939978  85.3050014 117.7839992 120.3469978  84.2840014
 117.2089992 120.8759978  85.9010014 116.3349992 119.0419978  85.3620014
 116.4179992 118.3309978  84.5130014 115.3849992 119.6099978  85.4600014
 116.4509992 118.4459978  86.2920014  22.7459992 103.6689978  84.1870014
  23.5439992 104.3009978  84.6330014  21.8729992 104.3349978  84.0180014
  22.9919992 103.2819978  83.1750014  22.2889992 102.5149978  85.0440014
  21.4469992 101.9939978  84.5390014  22.9969992 101.6629978  85.1170014
  21.7089992 102.9219978  86.3810014  22.5309992 103.3649978  86.9840014
  20.8569992 103.6349978  86.3720014  21.0379992 101.6759978  87.0490014
  20.4339992 102.0049978  87.9210014  20.2939992 101.1479978  86.4130014
  22.1439992 100.6429978  87.4960014  22.4949992  99.9199978  86.7300014
  22.9849992 101.3009978  87.8060014  21.6169992  99.8039978  88.6720014
  21.0929992 100.4269978  89.4290014  20.8349992  99.1359978  88.2520014
  22.8309992  98.9319978  89.3800014  23.1349992  98.1329978  88.6710014
  23.6689992  99.6369978  89.5640014  22.4699992  98.1609978  90.7080014
  21.6799992  97.3919978  90.5740014  23.4109992  97.6279978  90.9580014
  22.4349992  98.9659978  92.0190014  22.6539992  98.1929978  92.7850014
  23.3259992  99.6079978  91.8490014  21.1419992  99.7259978  92.3160014
  20.9259992 100.3509978  91.4230014  20.2299992  99.1249978  92.5170014
  21.2799992 100.6529978  93.5100014  21.7489992  99.9529978  94.2330014
  21.9669992 101.4739978  93.2120014  19.9149992 101.2239978  94.0030014
  19.7219992 102.2279978  93.5680014  19.1569992 100.4619978  93.7210014
  19.7859992 101.3979978  95.5120014  20.7329992 101.9529978  95.6820014
  18.8959992 102.0069978  95.7780014  19.7049992 100.1389978  96.2390014
  18.7069992  99.6789978  96.0760014  20.5109992  99.4399978  95.9320014
  19.8919992 100.5139978  97.7540014  20.7579992 101.2089978  97.8000014
  18.9569992 101.0019978  98.1040014  20.2419992  99.2559978  98.5700014
  20.2739992  98.1009978  98.1400014  20.5449992  99.6289978  99.7810014
  20.5449992  98.5669978 100.8180014  19.6279992  98.6129978 101.4440014
  20.5659992  97.5189978 100.4520014  21.7299992  98.7059978 101.7760014
  21.7179992  97.7899978 102.4040014  21.4819992  99.9329978 102.7440014
  21.2409992 100.8719978 102.2030014  20.6239992  99.6349978 103.3840014
  22.7159992 100.1139978 103.4980014  23.3019992 101.5229978 103.6680014
  24.2469992 101.6309978 102.5000014  25.3839992 102.4869978 102.5600014
  25.7839992 102.8059978 103.5460014  26.2249992 101.9509978 102.0690014
  25.1179992 103.9319978 101.8180014  24.3369992 104.4089978 102.3930014
  26.0609992 104.4399978 101.9600014  24.6079992 103.9509978 100.3760014
  23.3279992 103.2039978 100.3170014  22.8919992 103.2319978  99.3290014
  23.6079992 102.1849978 100.5370014  22.5879992 103.5479978 101.0240014
  24.4729992 105.3939978  99.8420014  24.1529992 105.3279978  98.8120014
  23.8409992 105.9719978 100.5000014  25.4569992 105.8289978  99.9360014
  25.5619992 103.4089978  99.4590014  25.3109992 103.5619978  98.4200014
  25.7529992 102.3579978  99.6150014  26.4919992 103.9379978  99.6010014
  22.2399992 102.5389978 103.5530014  24.1159992 101.6199978 104.9160014
  22.8719992  98.8449978 100.8880014  23.9109992  98.0429978 101.1090014
  23.9509992  97.1329978 101.9220014  25.0819992  98.4019978 100.2390014
  25.3979992  97.5189978  99.6430014  25.9749992  98.6099978 100.8670014
  24.7839992  99.5819978  99.3420014  25.7709992  99.9689978  99.0090014
  24.2769992 100.4419978  99.8270014  24.0089992  99.2829978  97.9840014
  23.0019992  98.8839978  98.2280014  24.6349992  98.5179978  97.4770014
  23.6939992 100.4369978  96.9490014  23.1589992 101.3509978  97.2860014
  22.9909992  99.9429978  96.2440014  24.8569992 100.9799978  96.2050014
  25.4499992 100.1329978  95.7990014  25.4469992 101.6149978  96.9000014
  24.4529992 101.9389978  95.1140014  23.9159992 102.7359978  95.6720014
  23.8199992 101.4609978  94.3360014  25.5059992 102.6079978  94.1930014
  25.8729992 101.8439978  93.4750014  26.2639992 103.0299978  94.8870014
  24.7399992 103.7199978  93.4970014  24.4679992 104.5379978  94.1790014
  24.3719992 103.8099978  92.1800014  23.9019992 104.7439978  91.8410014
  24.6809992 102.7359978  91.1230014  24.0469992 102.9869978  90.2460014
  24.4509992 101.7239978  91.5220014  26.1099992 102.7559978  90.7430014
  26.7259992 102.4849978  91.6270014  26.4229992 103.7329978  90.3140014
  26.4579992 101.7299978  89.6840014  25.8499992 100.8239978  89.8940014
  27.4999992 101.3559978  89.7820014  26.2199992 102.3199978  88.2470014
  26.8049992 103.2559978  88.1200014  25.1689992 102.6579978  88.1200014
  26.5929992 101.2999978  87.0850014  25.8669992 100.4609978  87.0260014
  27.4429992 100.7089978  87.4870014  26.9599992 101.9769978  85.8060014
  27.7759992 102.7179978  85.9460014  26.0789992 102.5269978  85.4120014
  27.5209992 100.9449978  84.7240014  28.2249992 100.2639978  85.2480014
  27.9739992 101.4569978  83.8490014  26.4249992 100.0059978  84.2270014
  25.9799992  99.3319978  84.9900014  26.5999992  99.3599978  83.3400014
  25.6069992 100.6159978  83.7860014 119.1659992  26.9879978  81.9300014
 119.1749992  25.8929978  81.7440014 120.2239992  27.1109978  82.2450014
 119.1079992  27.4959978  80.9430014 118.0749992  27.3789978  82.8970014
 117.1069992  27.2259978  82.3730014 118.0609992  26.6529978  83.7370014
 118.2769992  28.8239978  83.2960014 119.3659992  28.9809978  83.4460014
 117.9009992  29.5559978  82.5500014 117.6839992  29.1039978  84.6970014
 118.1399992  28.2869978  85.2960014 118.0789992  30.0519978  85.1200014
 116.2129992  29.0369978  84.8700014 115.7739992  29.7879978  84.1800014
 115.8489992  28.0309978  84.5700014 115.6539992  29.2369978  86.3130014
 116.2209992  30.0899978  86.7440014 114.5789992  29.4789978  86.1700014
 115.7559992  27.9849978  87.2060014 115.5309992  27.0909978  86.5860014
 116.8489992  27.9689978  87.4030014 114.9759992  28.1739978  88.4830014
 115.1209992  29.2279978  88.8060014 113.9059992  28.0519978  88.2100014
 115.0809992  27.0899978  89.5430014 114.2079992  27.1059978  90.2300014
 114.9939992  26.0979978  89.0510014 116.3269992  27.2469978  90.5010014
 117.3269992  27.2229978  90.0170014 116.2109992  28.2519978  90.9620014
 116.4279992  26.2749978  91.6830014 115.5339992  26.4609978  92.3160014
 116.3169992  25.1899978  91.4730014 117.7599992  26.4539978  92.4430014
 118.6839992  26.1759978  91.8910014 117.8749992  27.5579978  92.4950014
 117.8859992  25.8369978  93.8210014 117.2499992  26.4599978  94.4860014
 117.6729992  24.7539978  93.9470014 119.3959992  25.9289978  94.3530014
 120.1889992  25.4699978  93.7240014 119.5119992  27.0319978  94.4170014
 119.6069992  25.1729978  95.6540014 118.8279992  25.4739978  96.3880014
 119.4379992  24.0809978  95.5440014 120.9049992  25.3749978  96.3340014
 121.9399992  24.7559978  96.0990014 120.8039992  26.2959978  97.3080014
 121.8609992  26.3419978  98.2690014 121.9869992  25.3509978  98.7550014
 122.8479992  26.5619978  97.8090014 121.6669992  27.5439978  99.1270014
 122.6299992  27.5569978  99.6820014 120.5079992  27.4239978 100.1660014
 120.5129992  26.3719978 100.5250014 120.6459992  28.0639978 101.0630014
 119.2839992  27.8429978  99.5020014 117.8949992  27.3449978  99.7610014
 117.6539992  27.5759978 101.2630014 117.9239992  28.8989978 101.8740014
 118.7519992  29.4569978 101.3870014 117.0159992  29.5129978 101.6920014
 118.3479992  28.8549978 103.3750014 119.4229992  28.9599978 103.3760014
 118.1829992  29.8859978 103.6480014 117.7599992  27.8589978 104.3140014
 116.3499992  27.9339978 104.2120014 115.9459992  27.7589978 103.2260014
 115.8389992  27.2559978 104.8800014 115.9999992  28.9329978 104.4240014
 118.2079992  26.4649978 104.0420014 119.2759992  26.4149978 103.8900014
 117.9429992  25.8009978 104.8520014 117.7259992  26.0849978 103.1540014
 118.3289992  28.2999978 105.6650014 118.2839992  29.3639978 105.8440014
 119.3829992  28.1049978 105.8000014 117.8229992  27.8649978 106.5140014
 116.8939992  28.0999978  98.9790014 117.8399992  25.9019978  99.5190014
 121.5229992  28.6449978  98.2250014 121.3029992  29.8969978  98.6700014
 121.2459992  30.3189978  99.8110014 121.1969992  30.8549978  97.5100014
 121.6329992  30.2799978  96.6660014 121.8809992  31.7249978  97.6080014
 119.8319992  31.4379978  97.2200014 119.3629992  31.8939978  98.1170014
 119.2049992  30.5909978  96.8660014 119.7069992  32.5669978  96.1430014
 120.2579992  33.5149978  96.3270014 118.6179992  32.7849978  96.1670014
 120.0449992  32.1169978  94.7460014 121.0559992  31.6559978  94.7250014
 120.0679992  33.0049978  94.0790014 119.0499992  31.0839978  94.0210014
 117.9679992  31.3219978  94.1110014 119.1959992  30.1949978  94.6720014
 119.4539992  30.9519978  92.5180014 119.7839992  31.9519978  92.1620014
 118.6039992  30.7469978  91.8320014 120.6749992  29.9779978  92.2410014
 120.4549992  28.9299978  92.5370014 121.5349992  30.3559978  92.8340014
 121.1789992  30.0109978  90.7810014 121.6939992  30.9649978  90.5940014
 121.2379992  29.0249978  89.8310014 121.4129992  29.2759978  88.7740014
 120.9009992  27.5769978  90.0720014 120.2369992  27.4749978  90.9560014
 121.8079992  26.9959978  90.3420014 120.3419992  26.9339978  88.8420014
 120.7839992  27.4749978  87.9770014 119.2419992  27.0859978  88.8780014
 120.4479992  25.4189978  88.6670014 120.1169992  24.8099978  89.5340014
 121.5219992  25.1329978  88.6340014 119.8599992  24.8439978  87.3960014
 118.8009992  24.5189978  87.4700014 120.4419992  23.9189978  87.1980014
 119.8919992  25.8209978  86.2160014 119.4069992  26.8029978  86.4040014
 119.2369992  25.4199978  85.4130014 121.3169992  26.0249978  85.5530014
 121.8319992  26.8669978  86.0640014 121.1549992  26.3299978  84.4970014
 122.2659992  24.8159978  85.4930014 122.5469992  24.5119978  86.5240014
 123.2319992  25.2369978  85.1420014 121.9129992  23.6879978  84.4900014
 121.6979992  24.0789978  83.4720014 121.0279992  23.1039978  84.8200014
 122.7679992  22.9789978  84.4650014  43.8769992  30.5339978  85.0540014
  43.9689992  31.2189978  84.1840014  43.0959992  29.7999978  84.7620014
  44.8599992  30.0509978  85.2370014  43.3709992  31.2839978  86.3590014
  44.0409992  32.0299978  86.8380014  42.5169992  31.9459978  86.1010014
  42.7399992  30.3849978  87.4580014  42.3359992  31.0419978  88.2570014
  41.9589992  29.7079978  87.0490014  43.7989992  29.5879978  88.0430014
  44.1869992  28.8169978  87.3430014  44.6629992  30.2689978  88.1960014
  43.3069992  28.7399978  89.2060014  42.5439992  29.2649978  89.8190014
  42.6619992  27.9259978  88.8120014  44.4569992  28.1969978  90.0120014
  45.2029992  27.8239978  89.2780014  45.0199992  29.0109978  90.5170014
  44.1189992  27.0709978  90.9430014  43.2799992  27.3749978  91.6050014
  43.8509992  26.1689978  90.3520014  45.3359992  26.7139978  91.8050014
  46.2289992  26.4899978  91.1850014  45.6399992  27.6669978  92.2890014
  45.0649992  25.5739978  92.7510014  44.8139992  24.6789978  92.1440014
  46.1029992  25.5239978  93.1450014  44.1099992  25.8389978  93.9300014
  43.0489992  25.6009978  93.7040014  44.3289992  25.0609978  94.6920014
  44.1209992  27.2019978  94.6370014  43.7229992  28.0049978  93.9800014
  43.5479992  27.1519978  95.5870014  45.4299992  27.7319978  95.2650014
  46.2789992  27.1109978  94.9060014  45.6359992  28.7789978  94.9540014
  45.5779992  27.6569978  96.8050014  44.7059992  28.0179978  97.3910014
  45.7559992  26.6159978  97.1470014  46.8039992  28.4469978  97.2430014
  46.8409992  28.3759978  98.3510014  47.7419992  28.0169978  96.8320014
  46.7509992  29.9669978  96.9540014  46.6899992  30.2939978  95.8940014
  45.8639992  30.3329978  97.5150014  47.8969992  30.7669978  97.4370014
  49.0479992  30.3619978  97.4050014  47.4979992  31.9269978  97.9370014
  48.1829992  32.5329978  98.9940014  48.9109992  31.8929978  99.5360014
  48.6569992  33.4309978  98.5430014  47.2199992  32.9939978 100.1530014
  47.7759992  33.6109978 100.8910014  46.6519992  31.8089978 100.9220014
  47.4799992  31.1569978 101.2730014  46.1049992  32.3189978 101.7430014
  45.6999992  31.1349978 100.1170014  45.1419992  29.7009978 100.7400014
  44.7719992  29.9749978 102.2310014  44.0899992  28.9169978 102.9740014
  44.5779992  27.9519978 102.7190014  44.1739992  29.0569978 104.0730014
  42.5619992  28.6599978 102.7730014  42.2919992  28.3929978 101.7620014
  42.2639992  27.7949978 103.3460014  41.6219992  29.7519978 103.1630014
  41.8799992  30.0699978 104.6240014  42.9569992  30.1169978 104.6890014
  41.3799992  30.9779978 104.9240014  41.6079992  29.2099978 105.2180014
  41.7479992  30.8719978 102.0850014  41.5939992  30.5119978 101.0790014
  40.9929992  31.6229978 102.2650014  42.7279992  31.2779978 102.2880014
  40.1529992  29.3089978 103.1210014  39.5789992  30.2229978 103.1700014
  39.9789992  28.6789978 103.9800014  39.9889992  28.8459978 102.1590014
  43.9179992  29.4439978 100.0020014  46.1499992  28.6059978 100.6760014
  46.1689992  33.7519978  99.4710014  45.3139992  34.4079978 100.1550014
  45.2579992  34.3979978 101.3800014  44.1859992  35.0219978  99.3600014
  44.2659992  36.1299978  99.3570014  43.3129992  34.7279978  99.9810014
  44.0239992  34.4629978  97.8800014  44.9739992  34.5869978  97.3180014
  43.2549992  35.1379978  97.4470014  43.6139992  33.0419978  97.6850014
  42.5949992  32.9779978  98.1210014  44.2329992  32.2379978  98.1370014
  43.3819992  32.5519978  96.2310014  44.3279992  32.6909978  95.6660014
  42.6949992  33.3219978  95.8210014  42.6169992  31.2389978  96.0070014
  41.7439992  31.3459978  96.6850014  43.1679992  30.3139978  96.2800014
  42.1219992  31.1899978  94.5450014  41.3889992  32.0039978  94.3590014
  41.5489992  30.2599978  94.3430014  43.2939992  31.3769978  93.5740014
  43.9909992  30.5189978  93.6790014  44.0239992  32.2019978  93.7170014
  42.7089992  31.3559978  92.1800014  42.3089992  30.3479978  91.9970014
  42.6329992  32.3049978  91.2010014  42.0149992  32.1669978  90.3020014
  43.1329992  33.7909978  91.0880014  42.8359992  34.3449978  92.0040014
  42.7109992  34.2399978  90.1640014  44.6759992  33.8629978  91.1010014
  45.1419992  33.2939978  91.9330014  44.9129992  34.9429978  91.2120014
  45.3169992  33.2149978  89.8530014  44.7949992  33.4899978  88.9120014
  45.0679992  32.1369978  89.9480014  46.8069992  33.3789978  89.4810014
  47.4339992  32.9669978  90.3000014  47.2499992  34.3949978  89.4030014
  47.1969992  32.6729978  88.1170014  46.3269992  32.8349978  87.4440014
  47.1379992  31.5719978  88.2530014  48.5349992  33.0339978  87.5300014
  48.6239992  32.4559978  86.5860014  49.4489992  32.6059978  87.9940014
  48.8399992  34.4899978  87.3370014  49.7449992  34.4339978  86.6960014
  49.2189992  34.9369978  88.2810014  47.9099992  35.4399978  86.6090014
  48.5479992  36.2429978  86.1820014  47.2609992  35.9619978  87.3450014
  47.3409992  34.8519978  85.8580014  20.8889992  90.2779978  85.1920014
  20.1669992  90.7509978  85.8910014  20.4739992  89.3129978  84.8300014
  21.0469992  90.9929978  84.3570014  22.1349992  89.9249978  85.9900014
  22.9429992  89.4829978  85.3690014  22.5219992  90.9039978  86.3440014
  22.0079992  88.9319978  87.1370014  22.0379992  89.4839978  88.1010014
  20.9959992  88.4749978  87.1720014  23.0049992  87.7479978  87.0280014
  22.8089992  87.3099978  86.0260014  23.9899992  88.2349978  87.1920014
  22.7189992  86.6119978  88.0480014  21.6249992  86.4359978  87.9670014
  23.3219992  85.7229978  87.7630014  23.2569992  86.8759978  89.4850014
  24.2959992  87.2679978  89.4380014  22.6689992  87.7469978  89.8430014
  22.9759992  85.7089978  90.4240014  23.4419992  84.7699978  90.0550014
  23.3639992  85.9949978  91.4250014  21.4879992  85.2919978  90.8300014
  20.9059992  84.8449978  89.9960014  21.6059992  84.5839978  91.6770014
  20.5319992  86.4069978  91.3480014  21.0779992  87.3729978  91.3120014
  19.7229992  86.6809978  90.6380014  19.8309992  86.0789978  92.7020014
  19.1969992  85.1669978  92.6800014  20.5889992  85.7619978  93.4510014
  18.8179992  87.1989978  93.1040014  19.2669992  88.1879978  93.3380014
  18.1009992  87.2709978  92.2590014  18.0149992  86.8539978  94.3550014
  17.5139992  87.8179978  94.5880014  17.2909992  86.0719978  94.0450014
  18.8789992  86.2759978  95.5290014  19.8229992  86.8549978  95.4480014
  18.3759992  86.5099978  96.4920014  19.0479992  84.7109978  95.6040014
  18.0449992  84.2879978  95.8230014  19.4499992  84.3089978  94.6490014
  19.9439992  84.3289978  96.7870014  19.4189992  84.6829978  97.7010014
  20.0569992  83.2269978  96.8800014  21.3599992  84.6959978  96.5150014
  21.7789992  85.0669978  95.4210014  22.1119992  84.5939978  97.6130014
  23.3959992  85.3229978  97.5080014  24.0719992  84.7239978  98.1550014
  23.7489992  85.1279978  96.4730014  23.2519992  86.8159978  97.9060014
  24.2849992  87.2109978  97.8060014  22.9989992  86.8349978  99.4650014
  23.7849992  86.1539978  99.8560014  23.2719992  87.8279978  99.8830014
  21.6709992  86.4469978  99.6880014  21.3459992  86.0909978 101.2000014
  20.6869992  87.3989978 101.8120014  19.7559992  88.1329978 101.0230014
  20.2269992  88.5079978 100.0890014  18.8179992  87.5419978 100.9470014
  19.3569992  89.4309978 101.7920014  20.2069992  90.0769978 101.9530014
  18.7379992  90.0099978 101.1230014  18.6839992  89.2819978 103.1290014
  19.6209992  88.8969978 104.2350014  19.0799992  88.9969978 105.1640014
  19.8969992  87.8609978 104.1060014  20.4919992  89.5069978 104.0480014
  18.1629992  90.6649978 103.4420014  18.9859992  91.3399978 103.2560014
  17.1979992  90.7679978 102.9700014  17.9239992  90.5919978 104.4930014
  17.5259992  88.3679978 102.9910014  16.8339992  88.7949978 102.2800014
  17.0749992  88.2249978 103.9620014  17.7579992  87.3439978 102.7370014
  20.2479992  85.1349978 101.2410014  22.5369992  85.6569978 101.9520014
  22.1889992  87.3329978  97.1720014  22.1589992  88.6399978  97.1230014
  22.8939992  89.4329978  97.7060014  21.2389992  89.0499978  95.8800014
  20.1789992  88.8379978  96.1330014  21.4979992  88.3349978  95.0700014
  21.4369992  90.5319978  95.5120014  21.2869992  91.1059978  96.4520014
  20.6569992  90.8139978  94.7730014  22.7039992  90.8099978  94.7700014
  23.5229992  90.6669978  95.5080014  22.7969992  91.8659978  94.4370014
  23.1269992  90.0359978  93.5650014  23.2539992  89.0339978  94.0270014
  24.0999992  90.3789978  93.1540014  22.1839992  89.9429978  92.3720014
  21.2319992  89.4359978  92.6350014  22.6409992  89.2989978  91.5900014
  21.7849992  91.3759978  91.7870014  22.7299992  91.9049978  91.5400014
  21.1979992  91.9329978  92.5490014  20.8219992  91.2859978  90.6050014
  21.1349992  90.4289978  89.9710014  21.1119992  92.1319978  89.9470014
  19.4009992  91.2659978  91.0910014  18.9749992  91.8609978  91.9120014
  18.4489992  90.4429978  90.4750014  17.4109992  90.4089978  90.8380014
  18.7489992  89.5409978  89.3180014  19.3809992  88.6819978  89.6290014
  19.2319992  90.1659978  88.5360014  17.5119992  88.8839978  88.6650014
  16.7849992  89.6139978  88.2490014  16.9699992  88.2709978  89.4160014
  17.8829992  87.8659978  87.6150014  18.8469992  87.4249978  87.9460014
  18.1139992  88.3709978  86.6530014  16.7909992  86.8099978  87.4770014
  15.8069992  87.3249978  87.5000014  16.8099992  86.1209978  88.3480014
  16.8309992  85.9589978  86.1600014  16.0219992  85.1979978  86.2040014
  17.7919992  85.4019978  86.1800014  16.6029992  86.7929978  84.9120014
  16.6109992  86.1689978  83.9930014  17.4119992  87.5439978  84.7780014
  15.1769992  87.3869978  84.8670014  14.9709992  88.0809978  85.7090014
  14.5099992  86.5329978  85.1130014  14.7839992  88.0359978  83.5270014
  15.2679992  88.9689978  83.1660014  13.6889992  88.1889978  83.4250014
  14.9589992  87.4399978  82.6060014 130.6519992 106.2419978  83.8290014
 130.1459992 106.4699978  82.8660014 131.2129992 105.2929978  83.6950014
 131.2509992 107.1559978  84.0270014 129.6409992 106.0139978  84.9990014
 128.9509992 105.1859978  84.7310014 130.2399992 105.6589978  85.8650014
 128.8849992 107.3289978  85.3370014 129.5389992 108.0529978  85.8700014
 128.6139992 107.8419978  84.3890014 127.5869992 107.0129978  86.0960014
 126.9549992 107.9229978  86.1890014 127.0769992 106.1509978  85.6150014
 127.8339992 106.4699978  87.5160014 128.6879992 105.7639978  87.6020014
 128.1979992 107.4009978  88.0030014 126.6189992 105.8539978  88.1260014
 126.1899992 104.9499978  87.6420014 126.9049992 105.5109978  89.1440014
 125.5289992 106.9219978  88.2890014 126.0239992 107.8529978  88.6390014
 125.1829992 107.1489978  87.2580014 124.3759992 106.5019978  89.1990014
 123.5829992 107.2699978  89.0740014 123.9429992 105.4879978  89.0600014
 124.7649992 106.6109978  90.6700014 125.8259992 106.3649978  90.8880014
 124.7649992 107.6959978  90.9060014 123.8609992 105.7369978  91.6280014
 122.8419992 106.1639978  91.5050014 123.8919992 104.6589978  91.3640014
 124.0549992 105.9829978  93.1580014 123.9729992 107.0709978  93.3670014
 123.3199992 105.3359978  93.6830014 125.3229992 105.2999978  93.6080014
 125.4559992 104.2749978  93.2000014 126.1719992 105.9379978  93.2820014
 125.3189992 105.3429978  95.1380014 125.3589992 106.4309978  95.3590014
 124.3769992 104.9079978  95.5360014 126.5349992 104.7509978  95.7830014
 127.3559992 105.4869978  95.6500014 126.3479992 104.6759978  96.8750014
 127.0139992 103.3399978  95.2530014 126.2819992 102.5559978  95.5410014
 127.1089992 103.2099978  94.1540014 128.4049992 102.9939978  95.7610014
 129.4309992 103.0039978  95.0890014 128.3059992 102.8059978  97.0930014
 129.5229992 102.5049978  97.7540014 129.3619992 101.8929978  98.6680014
 130.2399992 101.9879978  97.0820014 130.1919992 103.8449978  98.3180014
 131.1379992 103.5679978  98.8310014 129.3159992 104.6629978  99.3850014
 129.1129992 103.9509978 100.2130014 129.9229992 105.5299978  99.7230014
 128.1699992 105.2689978  98.7140014 126.9379992 105.5719978  99.6750014
 127.6549992 105.8559978 101.0730014 127.5629992 106.9679978 101.9410014
 127.8879992 107.9109978 101.4510014 126.4869992 107.2239978 102.0550014
 128.3599992 106.9889978 103.2470014 129.3929992 106.7349978 103.0660014
 128.3359992 108.0259978 103.5500014 127.8949992 106.1319978 104.4150014
 126.3489992 106.0069978 104.5090014 125.9569992 105.3419978 103.7530014
 126.1469992 105.5999978 105.4890014 125.9379992 107.0049978 104.5570014
 128.4329992 104.7159978 104.3500014 129.5049992 104.5879978 104.3240014
 128.0799992 104.2179978 105.2410014 127.9319992 104.2659978 103.5060014
 128.3249992 106.9039978 105.6590014 127.9889992 107.9249978 105.5580014
 129.3829992 106.7279978 105.7870014 127.8899992 106.3939978 106.5060014
 126.2959992 106.7979978  99.1400014 126.1139992 104.3539978  99.7830014
 130.4959992 104.7019978  97.2310014 131.2239992 105.8279978  97.3290014
 131.9819992 106.0809978  98.2470014 130.7959992 106.6709978  96.0910014
 130.5439992 106.0949978  95.1760014 131.7539992 107.1839978  95.8580014
 129.6679992 107.5869978  96.5900014 129.9979992 108.0359978  97.5510014
 128.7439992 106.9949978  96.7690014 129.3269992 108.7229978  95.6960014
 130.2969992 109.0409978  95.2570014 128.7999992 109.5019978  96.2880014
 128.4629992 108.3169978  94.3780014 127.4509992 108.2959978  94.8360014
 128.6929992 107.3039978  93.9820014 128.8369992 109.2829978  93.2450014
 129.0919992 110.3099978  93.5840014 127.8819992 109.3869978  92.6880014
 129.8939992 108.8779978  92.1750014 130.6849992 108.3459978  92.7470014
 130.3209992 109.7479978  91.6320014 129.2409992 108.0499978  91.0610014
 128.4849992 108.7219978  90.6010014 128.6749992 107.2889978  91.6390014
 130.3509992 107.3919978  90.1630014 130.5049992 108.0649978  89.3060014
 130.9129992 106.2039978  90.1970014 131.6219992 105.8629978  89.4290014
 130.5839992 105.1839978  91.2140014 130.3119992 105.7459978  92.1340014
 131.5289992 104.6179978  91.3530014 129.4899992 104.2619978  90.7340014
 128.5339992 104.8179978  90.6220014 129.3509992 103.4639978  91.4940014
 129.9599992 103.4529978  89.5040014 130.9319992 102.9699978  89.7410014
 129.9859992 104.0619978  88.5750014 129.0999992 102.2809978  89.0290014
 128.5009992 101.8169978  89.8410014 129.8829992 101.5469978  88.7390014
 128.1499992 102.5369978  87.8330014 128.6009992 103.2259978  87.0870014
 127.2959992 102.9489978  88.4120014 127.7479992 101.2559978  87.0840014
 127.6539992 100.4629978  87.8560014 128.6209992 101.0919978  86.4160014
 126.3579992 101.4479978  86.5050014 126.3709992 102.2899978  85.7810014
 125.6169992 101.8719978  87.2160014 125.8409992 100.2579978  85.7850014
 125.5979992  99.4129978  86.4640014 126.5939992  99.9749978  85.0190014
 124.9099992 100.5319978  85.2450014 130.6039992  62.0169978  83.4050014
 129.6829992  62.4829978  82.9940014 130.1549992  61.3559978  84.1760014
 131.0719992  61.3979978  82.6100014 131.7559992  62.8719978  83.9790014
 131.6019992  63.3639978  84.9630014 132.5769992  62.1499978  84.1760014
 132.3239992  64.0079978  83.0770014 132.4619992  63.7129978  82.0140014
 131.5809992  64.8069978  83.2880014 133.8169992  64.5469978  83.3840014
 134.5439992  63.7299978  83.1900014 134.0719992  65.2829978  82.5910014
 134.1109992  65.3079978  84.7420014 134.0009992  64.5679978  85.5640014
 135.2039992  65.5089978  84.7370014 133.4709992  66.6479978  84.8730014
 133.7769992  67.3199978  84.0430014 132.3849992  66.4739978  84.7210014
 133.7249992  67.3679978  86.2020014 132.8549992  68.0459978  86.3390014
 133.6849992  66.5899978  86.9930014 135.0969992  67.9939978  86.4450014
 135.8059992  67.2189978  86.8060014 135.4099992  68.4889978  85.5010014
 135.1519992  69.1849978  87.4720014 135.1389992  70.0569978  86.7830014
 134.1319992  69.3289978  87.8880014 136.3469992  69.1999978  88.3930014
 137.2589992  69.1699978  87.7590014 136.2159992  70.1739978  88.9120014
 136.3029992  68.1219978  89.4840014 136.3649992  67.0769978  89.1140014
 137.1849992  68.3139978  90.1310014 135.0529992  68.2139978  90.4140014
 134.6509992  69.2439978  90.3100014 134.2669992  67.5059978  90.0740014
 135.2529992  68.0569978  91.8900014 135.4829992  66.9969978  92.1270014
 136.0069992  68.7319978  92.3480014 134.0109992  68.2389978  92.7350014
 133.5119992  69.2069978  92.5180014 133.3479992  67.4389978  92.3420014
 134.2069992  67.8919978  94.2180014 134.7009992  66.8969978  94.2490014
 134.7419992  68.7249978  94.7220014 132.9959992  67.8929978  95.1240014
 131.8289992  68.0019978  94.7490014 133.4199992  67.7179978  96.4000014
 132.4319992  67.9559978  97.3620014 132.8369992  68.4479978  98.2720014
 131.6659992  68.6839978  97.0190014 131.7129992  66.6499978  97.7200014
 131.0509992  66.2779978  96.9090014 130.8659992  66.8859978  98.9420014
 131.5989992  67.2409978  99.6980014 130.0409992  67.6269978  98.8680014
 130.1559992  65.7019978  99.2670014 130.0479992  65.1969978 100.8040014
 131.5269992  64.6119978 101.0910014 132.4479992  65.3389978 101.8870014
 132.6989992  66.3309978 101.4540014 132.0829992  65.6359978 102.8940014
 133.6729992  64.4389978 102.2340014 133.9389992  63.9259978 101.3220014
 134.4759992  65.1109978 102.4950014 133.4899992  63.3239978 103.3410014
 132.2219992  62.5759978 103.1530014 131.9919992  61.9699978 104.0170014
 131.4209992  63.2739978 102.9580014 132.3959992  61.9899978 102.2630014
 134.6749992  62.3379978 103.4030014 135.5349992  62.9259978 103.1190014
 134.7369992  61.8989978 104.3870014 134.5049992  61.5239978 102.7130014
 133.4069992  63.9399978 104.6830014 134.3649992  64.4039978 104.8620014
 133.1899992  63.3309978 105.5480014 132.6429992  64.7039978 104.6750014
 129.8289992  66.3869978 101.7600014 129.1269992  64.0919978 100.8810014
 132.6889992  65.6039978  98.0250014 132.7349992  64.5549978  97.1920014
 132.0669992  64.4189978  96.1720014 133.8659992  63.5209978  97.6020014
 133.4579992  62.8169978  98.3570014 134.8559992  63.8129978  98.0130014
 134.3009992  62.7049978  96.3740014 133.4119992  62.1819978  95.9600014
 135.0059992  61.9329978  96.7500014 135.0379992  63.5419978  95.2920014
 135.8539992  64.1879978  95.6810014 134.2539992  64.1519978  94.7940014
 135.4129992  62.6739978  94.0020014 134.6259992  61.9169978  93.7970014
 136.3259992  62.1259978  94.3190014 135.5179992  63.5819978  92.7720014
 136.0589992  64.5389978  92.9330014 134.4879992  63.9339978  92.5490014
 136.0309992  62.8279978  91.5720014 135.3419992  61.9629978  91.4730014
 137.0479992  62.3909978  91.6680014 135.9089992  63.6679978  90.3100014
 136.8829992  64.1929978  90.2100014 135.0049992  64.3129978  90.3460014
 135.9299992  62.6849978  89.1860014 136.8899992  62.1699978  89.0360014
 134.9169992  62.5009978  88.3210014 134.9259992  61.7139978  87.5530014
 133.5889992  63.2349978  88.3710014 133.4479992  63.7419978  87.3920014
 133.4549992  63.8699978  89.2720014 132.3729992  62.2509978  88.5420014
 132.3389992  61.9829978  89.6190014 132.5779992  61.2939978  88.0160014
 130.9889992  62.8689978  88.2190014 130.1439992  62.1859978  88.4500014
 130.9649992  63.0599978  87.1250014 130.6929992  64.2369978  88.8890014
 131.3879992  65.0159978  88.5100014 130.7459992  64.0689978  89.9860014
 129.3129992  64.8129978  88.6690014 129.2369992  65.8929978  88.9180014
 128.5189992  64.2639978  89.2190014 128.8339992  64.8639978  87.1900014
 127.9149992  65.4879978  87.1880014 128.7429992  63.8179978  86.8260014
 129.6669992  65.7729978  86.3240014 130.6969992  65.3679978  86.2380014
 129.7019992  66.7729978  86.8070014 129.1799992  66.0299978  84.8770014
 128.0719992  66.1129978  84.8770014 129.5349992  65.1939978  84.2380014
 129.6569992  66.9569978  84.4920014 125.7739992  46.2849978  84.6760014
 126.5279992  45.6279978  85.1590014 125.6109992  45.7589978  83.7110014
 124.8749992  46.2899978  85.3290014 126.2519992  47.7309978  84.5670014
 127.0529992  47.6629978  83.8010014 125.3769992  48.2799978  84.1560014
 126.7409992  48.3879978  85.8520014 127.1989992  49.3629978  85.5800014
 125.9669992  48.6929978  86.5890014 127.7009992  47.4639978  86.6110014
 127.1769992  46.5639978  86.9970014 128.4659992  47.0519978  85.9180014
 128.3079992  48.0009978  87.8760014 129.1029992  47.2819978  88.1680014
 128.9259992  48.8909978  87.6330014 127.3049992  48.3429978  88.9790014
 127.8779992  48.8329978  89.7950014 126.6149992  49.1479978  88.6470014
 126.5479992  47.1489978  89.6200014 126.4459992  46.2779978  88.9380014
 127.1709992  46.7619978  90.4540014 125.1729992  47.5349978  90.1490014
 124.5659992  48.0359978  89.3640014 124.6079992  46.6049978  90.3700014
 125.1969992  48.2819978  91.5200014 125.7129992  49.2289978  91.2540014
 124.1659992  48.5029978  91.8720014 126.0949992  47.6049978  92.6030014
 127.1299992  47.6669978  92.2050014 126.0779992  48.3049978  93.4660014
 125.6279992  46.1659978  93.0600014 124.6259992  46.1849978  93.5410014
 125.5109992  45.5419978  92.1490014 126.5909992  45.5919978  94.1270014
 127.6269992  45.4609978  93.7460014 126.5679992  46.4219978  94.8660014
 126.2329992  44.2429978  94.7790014 125.2729992  44.4019978  95.3140014
 126.1779992  43.3699978  94.0930014 127.1789992  43.7499978  95.9290014
 126.5869992  42.8479978  96.1940014 128.1439992  43.5649978  95.4100014
 127.4029992  44.7189978  97.0820014 127.9139992  45.6679978  96.8100014
 126.4289992  44.9459978  97.5650014 128.1319992  43.9159978  98.1440014
 128.8429992  42.9699978  97.8440014 127.9029992  44.3929978  99.3240014
 128.5129992  43.8749978 100.4910014 127.9159992  43.0439978 100.9240014
 129.5189992  43.5079978 100.1950014 128.7989992  45.0729978 101.4760014
 129.2769992  44.7539978 102.4270014 127.5209992  45.8209978 101.8490014
 126.8279992  45.0239978 102.1940014 127.8059992  46.5639978 102.6240014
 127.0789992  46.6339978 100.7410014 126.0229992  47.7979978 100.8720014
 126.7409992  48.9269978 101.6300014 127.7509992  49.8759978 101.1240014
 128.0529992  49.5639978 100.1010014 127.4579992  50.9469978 101.0890014
 129.0389992  49.7599978 101.9110014 129.4029992  48.7449978 101.8530014
 129.7929992  50.2999978 101.3590014 129.0969992  50.2269978 103.3700014
 128.0819992  49.5589978 104.2140014 128.2069992  49.8509978 105.2470014
 127.0679992  49.7149978 103.8750014 128.2239992  48.4879978 104.2250014
 130.4999992  49.9749978 103.9250014 130.5379992  50.4159978 104.9100014
 130.6549992  48.9059978 103.9200014 131.3219992  50.4359978 103.3980014
 128.8379992  51.6739978 103.4710014 127.8529992  51.8809978 103.0770014
 129.4929992  52.2099978 102.8000014 128.9299992  51.8749978 104.5280014
 125.5899992  48.3279978  99.5730014 124.8919992  47.4109978 101.6750014
 129.7829992  45.8999978 100.7730014 130.6039992  46.5449978 101.4710014
 130.6119992  46.5149978 102.7090014 131.5309992  47.4689978 100.7500014
 132.5569992  47.0469978 100.6940014 131.5669992  48.4069978 101.3440014
 131.0629992  47.6959978  99.2870014 130.0519992  48.1129978  99.4820014
 130.9489992  46.7409978  98.7300014 131.7599992  48.7599978  98.3290014
 132.8339992  48.6279978  98.5790014 131.4259992  49.7969978  98.5470014
 131.6139992  48.6759978  96.8750014 132.0789992  47.7299978  96.5240014
 132.0919992  49.5339978  96.3540014 130.1409992  48.7859978  96.4170014
 130.0279992  49.8909978  96.3990014 129.4579992  48.3989978  97.2030014
 129.7709992  48.0569978  95.1040014 128.9229992  48.6089978  94.6470014
 129.4269992  47.0189978  95.3010014 130.9729992  47.6599978  94.2260014
 131.7579992  47.0409978  94.7100014 131.4799992  48.6329978  94.0490014
 130.5569992  47.0419978  92.9120014 130.3049992  45.9749978  93.0090014
 130.4249992  47.6929978  91.7430014 130.0259992  47.2039978  90.8420014
 130.6939992  49.1259978  91.4660014 131.4239992  49.6399978  92.1270014
 129.7179992  49.6409978  91.5960014 130.9729992  49.5859978  90.0190014
 131.1319992  50.6639978  89.8020014 130.0519992  49.3279978  89.4540014
 132.0979992  48.8999978  89.2430014 132.1939992  47.8309978  89.5310014
 133.0809992  49.3269978  89.5330014 132.1949992  49.0119978  87.6880014
 131.3119992  48.4629978  87.2970014 133.0679992  48.4689978  87.2650014
 132.3179992  50.3929978  87.0410014 133.1989992  50.7949978  87.5860014
 131.3869992  50.9309978  87.3200014 132.4739992  50.3409978  85.5300014
 133.4599992  49.8309978  85.4700014 132.6089992  51.3689978  85.1290014
 131.3789992  49.5919978  84.7320014 131.3579992  48.5109978  84.9860014
 131.7739992  49.6019978  83.6940014 129.9639992  50.1319978  84.7910014
 129.6699992  51.0359978  84.2170014 129.5399992  50.2339978  85.8130014
 129.3929992  49.3099978  84.3100014  36.1299992  41.5879978  82.8370014
  36.8529992  42.2119978  82.2690014  35.1319992  42.0329978  82.6390014
  36.2079992  40.5379978  82.4830014  36.4049992  41.7599978  84.2900014
  35.8609992  41.0129978  84.9060014  37.4239992  41.4689978  84.6230014
  36.1269992  43.1579978  84.8540014  36.5389992  43.3119978  85.8750014
  36.5969992  43.9899978  84.2870014  34.6349992  43.3569978  85.0450014
  34.2079992  43.0629978  84.0620014  34.3039992  42.7119978  85.8870014
  34.2559992  44.7769978  85.3110014  34.6839992  45.1199978  86.2770014
  34.7529992  45.3179978  84.4770014  32.6949992  44.9679978  85.3160014
  32.6159992  46.0579978  85.5120014  32.2659992  44.7189978  84.3220014
  31.7769992  44.2309978  86.3240014  31.6409992  43.2169978  85.8890014
  32.4099992  44.0409978  87.2180014  30.4429992  44.8569978  86.7150014
  30.5779992  45.9169978  87.0180014  29.7129992  44.7649978  85.8820014
  29.8199992  44.2269978  88.0230014  30.5189992  44.3999978  88.8690014
  28.9849992  44.9209978  88.2600014  29.5339992  42.6759978  87.9700014
  28.5459992  42.4459978  87.5160014  30.2909992  42.2769978  87.2610014
  29.6699992  42.0799978  89.3780014  29.4049992  41.0029978  89.3210014
  30.7569992  42.1519978  89.5960014  28.7769992  42.6749978  90.5020014
  29.1619992  43.7069978  90.6520014  27.7329992  42.6099978  90.1280014
  28.9349992  42.0489978  91.8760014  28.6649992  42.8019978  92.6480014
  28.2879992  41.1669978  92.0680014  30.4279992  41.7949978  92.1970014
  30.7659992  40.8419978  91.7380014  31.1109992  42.6219978  91.9090014
  30.6289992  41.5959978  93.7230014  30.4629992  42.6439978  94.0510014
  29.7909992  41.1129978  94.2690014  31.9649992  40.9159978  94.0580014
  32.7089992  40.2599978  93.3230014  32.1809992  41.1109978  95.3500014
  33.3919992  40.5369978  95.9350014  33.0999992  39.6709978  96.5660014
  34.0749992  40.1709978  95.1380014  34.0249992  41.5539978  96.8960014
  34.9699992  41.1069978  97.2710014  33.0419992  41.7599978  98.1050014
  32.0149992  41.9219978  97.7120014  32.9879992  40.8319978  98.7130014
  33.4019992  42.8239978  99.0330014  34.4199992  42.5189978 100.2340014
  33.6839992  41.4529978 101.1450014  32.4319992  41.9169978 101.7490014
  32.0279992  42.8749978 101.3580014  31.6099992  41.1949978 101.5590014
  32.4429992  41.9009978 103.2710014  33.1879992  42.6159978 103.5880014
  31.5129992  42.2709978 103.6770014  32.7219992  40.5859978 103.9220014
  31.6139992  39.5789978 103.6420014  31.6849992  38.6549978 104.1950014
  30.6799992  39.9179978 104.0650014  31.5739992  39.4809978 102.5670014
  34.0339992  39.9519978 103.4950014  34.2229992  39.9749978 102.4320014
  34.6739992  40.6389978 104.0290014  34.1469992  38.9429978 103.8600014
  32.8169992  40.7959978 105.3930014  33.0529992  39.9239978 105.9860014
  31.8769992  41.0699978 105.8490014  33.5749992  41.5389978 105.5910014
  35.6669992  41.9039978  99.6360014  34.5299992  43.7839978 100.9860014
  34.1959992  42.8179978  96.2760014  35.1969992  42.8769978  95.4270014
  36.0249992  42.0329978  95.2250014  35.0499992  44.1439978  94.5420014
  35.9989992  44.3779978  94.0140014  34.7519992  45.0879978  95.0470014
  34.0209992  43.7809978  93.4190014  33.0049992  43.9949978  93.8160014
  34.1389992  42.7019978  93.1830014  34.3579992  44.4759978  92.0440014
  34.6959992  45.5209978  92.2120014  33.4959992  44.5739978  91.3500014
  35.4859992  43.7229978  91.2480014  36.3829992  43.4729978  91.8530014
  35.8529992  44.4429978  90.4850014  34.9689992  42.5389978  90.5280014
  34.2429992  42.8559978  89.7490014  34.3749992  41.8639978  91.1800014
  36.0119992  41.6749978  89.8060014  36.6549992  41.1829978  90.5670014
  36.7689992  42.2059978  89.1900014  35.3699992  40.6679978  88.8280014
  36.2009992  40.0749978  88.3890014  34.8279992  41.2019978  88.0190014
  34.4549992  39.7249978  89.5880014  34.9599992  39.0939978  90.3340014
  33.2009992  39.3399978  89.2430014  32.6629992  38.7279978  89.9830014
  32.3169992  39.7199978  88.0780014  32.6129992  40.7239978  87.7050014
  31.2429992  39.7389978  88.3620014  32.4489992  38.8869978  86.8640014
  32.1089992  37.8469978  87.0590014  33.4979992  38.7319978  86.5330014
  31.4739992  39.2319978  85.6840014  30.4559992  39.4519978  86.0700014
  31.3429992  38.3149978  85.0700014  32.1759992  40.2889978  84.8590014
  33.1329992  39.8639978  84.4880014  32.3029992  41.2449978  85.4100014
  31.3129992  40.5329978  83.6210014  30.2329992  40.5669978  83.8770014
  31.4899992  39.6999978  82.9060014  31.7839992  41.8069978  83.0000014
  32.8639992  41.7539978  82.7430014  31.5969992  42.6559978  83.6920014
  31.0419992  42.1699978  81.7340014  29.9939992  42.0059978  82.0630014
  31.3809992  41.6439978  80.8160014  31.1379992  43.6589978  81.3600014
  30.4279992  43.8899978  80.5370014  32.1769992  43.9879978  81.1460014
  30.7499992  44.2329978  82.2280014  97.7559992 130.6519978  82.9790014
  98.7389992 130.1359978  83.0220014  97.8709992 131.5989978  83.5480014
  97.4869992 130.7999978  81.9120014  96.6469992 129.9749978  83.6980014
  95.8149992 130.6869978  83.8830014  96.2109992 129.1999978  83.0320014
  97.0319992 129.3549978  85.0510014  97.3039992 130.2489978  85.6530014
  96.1539992 128.8309978  85.4850014  98.1959992 128.3709978  85.1460014
  97.9779992 127.5599978  84.4180014  99.0929992 128.8489978  84.6970014
  98.1999992 127.8109978  86.5260014  97.1839992 127.6819978  86.9570014
  98.5309992 126.7519978  86.4710014  99.1659992 128.7079978  87.4670014
 100.1869992 128.6729978  87.0300014  98.7229992 129.7269978  87.4750014
  99.2819992 128.0529978  88.9070014 100.0279992 127.2299978  88.8920014
  99.5989992 128.7549978  89.7080014  98.0309992 127.3329978  89.4250014
  97.1439992 127.9759978  89.6150014  97.8239992 126.5209978  88.6950014
  98.2799992 126.4869978  90.7160014  97.6129992 125.6089978  90.8540014
  99.2599992 126.0059978  90.5060014  98.4059992 127.3039978  92.0340014
  98.2799992 126.6109978  92.8940014  99.3739992 127.8479978  92.0120014
  97.2939992 128.2629978  92.4280014  97.6549992 128.7949978  93.3340014
  97.0619992 129.1059978  91.7430014  95.9819992 127.4939978  92.5610014
  95.1649992 128.1689978  92.8930014  95.7519992 127.1989978  91.5150014
  95.9859992 126.2529978  93.4390014  96.7049992 125.4899978  93.0730014
  96.3199992 126.5609978  94.4520014  94.6129992 125.7049978  93.5870014
  93.8799992 126.5199978  93.7710014  94.3099992 125.1369978  92.6810014
  94.3209992 124.6899978  94.7330014  93.2489992 124.4009978  94.7130014
  94.8949992 123.7629978  94.5190014  94.7229992 125.1279978  96.1500014
  95.4329992 124.4989978  96.8980014  94.2089992 126.2449978  96.4580014
  94.4079992 126.8149978  97.7590014  93.5739992 127.3969978  98.2060014
  94.7479992 126.0439978  98.4820014  95.5839992 127.8799978  97.6470014
  96.4579992 127.3459978  97.2180014  95.9379992 128.2549978  99.1130014
  96.2979992 127.3529978  99.6540014  96.7379992 129.0159978  98.9880014
  94.8199992 128.7609978  99.7950014  95.0779992 129.7159978 101.0680014
  96.4099992 129.1659978 101.6240014  96.5089992 129.1229978 103.0300014
  96.0849992 129.9799978 103.5970014  95.9649992 128.2199978 103.3790014
  97.9829992 128.9209978 103.4490014  97.9389992 128.8429978 104.5250014
  98.2869992 127.9659978 103.0460014  99.0129992 129.9059978 102.8480014
  99.2819992 129.5429978 101.3910014  99.9059992 128.6619978 101.3690014
  98.3999992 129.4379978 100.7780014  99.8019992 130.3929978 100.9760014
  98.4679992 131.2779978 102.8210014  97.6319992 131.2609978 102.1370014
  98.0519992 131.6069978 103.7610014  99.2149992 131.9129978 102.3670014
 100.2699992 129.7879978 103.7300014 100.9649992 130.5539978 103.4190014
 100.5099992 128.7469978 103.5740014 100.1079992 129.9769978 104.7810014
  95.2449992 131.1409978 100.6800014  94.0019992 129.4859978 102.0710014
  95.0859992 129.0089978  96.8370014  96.1219992 129.7159978  96.2620014
  97.3029992 129.4229978  96.3580014  95.5239992 130.9169978  95.5000014
  94.6299992 131.3579978  95.9900014  95.1029992 130.5109978  94.5550014
  96.5889992 132.0089978  95.1640014  97.2839992 131.3799978  94.5660014
  97.2039992 132.2979978  96.0430014  96.0799992 133.0779978  94.2090014
  95.6159992 133.9569978  94.7050014  95.2999992 132.6329978  93.5550014
  97.0749992 133.6279978  93.2310014  97.7589992 134.1139978  93.9600014
  96.5859992 134.4009978  92.6010014  98.0099992 132.6819978  92.3640014
  98.5279992 131.9709978  93.0440014  98.7469992 133.3289978  91.8430014
  97.0039992 131.9929978  91.4470014  96.0979992 132.6359978  91.4680014
  96.6399992 131.0339978  91.8730014  97.4819992 131.5779978  90.0760014
  96.6199992 131.1909978  89.4920014  98.2159992 130.7549978  89.9360014
  97.9109992 132.8369978  89.4100014  98.9899992 133.0539978  89.4140014
  97.1889992 133.7859978  88.7470014  97.7089992 134.5349978  88.1320014
  95.6999992 133.6279978  88.5490014  95.2669992 134.5909978  88.8950014
  95.2369992 132.8229978  89.1580014  95.2849992 133.3409978  87.0550014
  95.9489992 132.6309978  86.5180014  95.4759992 134.2619978  86.4640014
  93.8759992 132.9309978  86.7810014  93.7589992 132.7209978  85.6970014
  93.1739992 133.6909978  87.1850014  93.3039992 131.6879978  87.5370014
  92.2199992 131.6599978  87.2950014  93.1969992 131.7099978  88.6430014
  93.9629992 130.3259978  87.1260014  95.0259992 130.2509978  87.4390014
  93.9409992 130.3119978  86.0150014  93.3499992 129.0899978  87.7930014
  92.2409992 129.1519978  87.7820014  93.6369992 129.1109978  88.8660014
  93.6649992 127.7539978  87.1520014  92.9719992 127.0429978  87.6510014
  94.6799992 127.4959978  87.5230014  93.4919992 127.5029978  85.6600014
  93.3739992 128.4619978  85.1120014  92.5859992 126.8719978  85.5430014
  94.4129992 127.0019978  85.2920014  77.3519992   6.0189978  83.8830014
  76.8729992   5.8199978  84.8660014  76.6089992   6.5169978  83.2240014
  78.1699992   6.7629978  83.9910014  78.1229992   4.8189978  83.2860014
  78.7039992   5.0669978  82.3720014  78.8649992   4.5869978  84.0800014
  77.4979992   3.4029978  83.0740014  76.8449992   3.5989978  82.1970014
  78.2439992   2.6569978  82.7260014  76.4859992   3.0299978  84.1660014
  75.8099992   3.8819978  84.3900014  75.9449992   2.1619978  83.7330014
  77.2009992   2.6819978  85.4510014  77.9059992   1.8589978  85.2050014
  77.7049992   3.5789978  85.8690014  76.2839992   2.1189978  86.5390014
  75.7419992   1.2369978  86.1360014  76.9829992   1.6899978  87.2880014
  75.3949992   3.2329978  87.0940014  75.9839992   4.1699978  86.9940014
  74.5119992   3.1679978  86.4230014  74.8389992   2.8619978  88.3590014
  74.5449992   1.7919978  88.3030014  75.6369992   3.0049978  89.1180014
  73.6139992   3.6629978  88.8660014  74.0149992   4.6849978  89.0370014
  72.8599992   3.7619978  88.0570014  72.8009992   3.1019978  90.0840014
  72.6009992   2.0319978  89.8630014  73.4419992   3.3839978  90.9460014
  71.4309992   3.7679978  90.2410014  70.7589992   3.4379978  89.4200014
  71.0769992   3.2469978  91.1560014  71.4389992   5.2579978  90.3020014
  71.6419992   5.6909978  89.2990014  70.4679992   5.6769978  90.6440014
  72.4089992   5.9209978  91.3040014  73.4409992   5.6069978  91.0410014
  72.4529992   6.9929978  91.0150014  72.0029992   5.8559978  92.7670014
  71.6759992   6.8949978  92.9870014  71.1619992   5.1659978  92.9920014
  73.0759992   5.3159978  93.6740014  73.1199992   4.2089978  93.7520014
  74.1069992   5.6089978  93.3830014  72.7519992   5.8729978  95.1100014
  72.2649992   5.2609978  95.9990014  73.2279992   7.1319978  95.2060014
  72.9729992   7.8559978  96.4220014  72.9059992   8.9099978  96.0770014
  72.0549992   7.4589978  96.9070014  74.1459992   7.6489978  97.3410014
  74.0589992   6.5829978  97.6430014  74.0329992   8.6309978  98.5570014
  74.4959992   9.5969978  98.2600014  72.9999992   8.9879978  98.7560014
  74.6299992   8.1469978  99.7470014  73.8479992   7.3129978 100.8020014
  74.8419992   7.4699978 101.9790014  76.1799992   7.0779978 102.0490014
  76.6629992   7.5099978 101.1460014  76.6799992   7.5499978 102.9220014
  76.4139992   5.5349978 102.0880014  75.9909992   5.1629978 101.1660014
  77.4869992   5.4269978 102.1380014  75.8439992   4.7919978 103.2730014
  76.7609992   5.1159978 104.4310014  76.7129992   6.1719978 104.6560014
  76.3039992   4.6099978 105.2680014  77.7119992   4.6359978 104.2550014
  74.4749992   5.1799978 103.6410014  74.3219992   4.8479978 104.6580014
  74.4199992   6.2579978 103.6790014  73.8769992   4.7049978 102.8770014
  75.9899992   3.2899978 103.1640014  77.0009992   3.0069978 102.9080014
  75.2989992   2.9119978 102.4250014  75.8659992   2.8319978 104.1340014
  72.4939992   7.8909978 101.1240014  73.9269992   5.9789978 100.2080014
  75.3969992   7.9929978  96.6310014  76.3299992   7.0049978  96.8670014
  76.1079992   5.9419978  97.4030014  77.6419992   7.3409978  96.2480014
  78.2669992   7.2679978  97.1640014  77.6629992   8.3799978  95.8570014
  77.9579992   6.2889978  95.3520014  77.9179992   5.2679978  95.7880014
  78.9869992   6.5629978  95.0330014  77.2179992   6.2489978  94.0130014
  76.1259992   6.2249978  94.2130014  77.5279992   5.3119978  93.5010014
  77.3429992   7.3729978  92.9920014  78.3939992   7.4569978  92.6400014
  77.0789992   8.3939978  93.3430014  76.6299992   7.0109978  91.6570014
  75.5759992   7.3449978  91.7660014  76.5529992   5.9189978  91.4690014
  77.2459992   7.7059978  90.3790014  77.0799992   7.0139978  89.5250014
  78.3519992   7.7989978  90.4160014  76.7329992   9.0889978  89.9980014
  75.7789992   8.8789978  89.4700014  77.3979992   9.4949978  89.2060014
  76.5479992  10.0829978  91.0640014  77.4579992  10.6419978  91.3290014
  75.3889992  10.4029978  91.7750014  75.3839992  11.2799978  92.4390014
  74.0459992   9.6829978  91.6090014  73.7139992   9.1759978  92.5400014
  74.1009992   8.7759978  90.9690014  72.7499992  10.3409978  91.1790014
  72.7349992  11.3589978  91.6230014  71.7949992   9.8419978  91.4510014
  72.6189992  10.5539978  89.6500014  73.6149992  10.9369978  89.3420014
  71.8329992  11.2879978  89.3750014  72.2939992   9.3519978  88.7820014
  71.4009992   8.7859978  89.1260014  73.1849992   8.6889978  88.7860014
  72.0299992   9.7399978  87.3500014  71.1829992  10.4549978  87.2730014
  71.7789992   8.8419978  86.7450014  73.3609992  10.1459978  86.5240014
  74.2409992   9.8579978  87.1370014  73.4859992  11.2489978  86.5510014
  73.4989992   9.5659978  85.1520014  72.4969992   9.6229978  84.6760014
  73.6859992   8.4769978  85.2750014  74.6079992  10.0649978  84.2190014
  74.2829992  10.9479978  83.6270014  74.9009992   9.2569978  83.5150014
  75.4739992  10.4619978  84.7900014 124.8329992  35.4809978  82.4440014
 125.5419992  36.3209978  82.2840014 123.7479992  35.7179978  82.4700014
 124.9829992  34.9019978  81.5080014 125.2259992  34.6599978  83.6880014
 126.2879992  34.4259978  83.4600014 124.9209992  35.3179978  84.5290014
 124.5279992  33.3359978  83.8040014 124.5969992  32.7169978  82.8830014
 125.0209992  32.7829978  84.6320014 122.9839992  33.5389978  84.2110014
 122.6499992  34.4839978  83.7310014 122.3729992  32.6829978  83.8520014
 122.8019992  33.5409978  85.7120014 123.6539992  34.0739978  86.1840014
 121.8199992  34.0279978  85.8900014 122.5209992  32.1509978  86.4220014
 122.1769992  32.4179978  87.4440014 121.6379992  31.7079978  85.9130014
 123.6919992  31.1749978  86.4320014 123.3459992  30.2999978  87.0230014
 123.7169992  30.7599978  85.4020014 125.0349992  31.6339978  87.0260014
 125.8779992  30.9589978  86.7680014 125.3339992  32.6549978  86.7070014
 124.8199992  31.5689978  88.5660014 123.9239992  30.9519978  88.7900014
 125.7589992  31.1219978  88.9560014 124.5819992  32.9029978  89.3140014
 125.5489992  33.3979978  89.5450014 123.9849992  33.6129978  88.7030014
 123.7789992  32.7369978  90.6010014 122.6839992  32.7959978  90.4220014
 123.9859992  31.7579978  91.0840014 124.1649992  33.7789978  91.7050014
 125.2759992  33.8139978  91.7020014 123.7959992  34.7929978  91.4400014
 123.6599992  33.4249978  93.0970014 122.5499992  33.4489978  93.0920014
 123.9339992  32.3579978  93.2390014 124.0589992  34.4039978  94.1170014
 125.1529992  34.2699978  94.2590014 123.9399992  35.4209978  93.6850014
 123.2769992  34.2559978  95.3750014 122.1949992  34.3779978  95.1560014
 123.3919992  33.2189978  95.7580014 123.7729992  35.2839978  96.3250014
 124.9119992  35.7109978  96.3310014 122.7409992  35.6519978  97.0980014
 122.9999992  36.8399978  97.9170014 123.9519992  36.8269978  98.4900014
 123.1149992  37.7159978  97.2440014 121.8179992  37.0739978  98.9370014
 122.0239992  38.0579978  99.4120014 122.0069992  36.0039978 100.0860014
 123.0219992  36.2059978 100.4890014 121.2419992  36.1529978 100.8770014
 121.9319992  34.6709978  99.5800014 122.2619992  33.3529978 100.4090014
 123.2899992  33.8919978 101.4830014 124.6599992  33.4119978 101.4320014
 124.7139992  32.3319978 101.6830014 125.0669992  33.5609978 100.4090014
 125.6769992  34.2149978 102.3060014 126.6539992  33.7549978 102.2750014
 125.7399992  35.2179978 101.9100014 125.4029992  34.2959978 103.7720014
 124.2799992  35.2479978 104.0470014 124.5479992  36.2129978 103.6410014
 123.4079992  34.9879978 103.4660014 124.1279992  35.4299978 105.1010014
 125.0889992  32.8549978 104.3070014 125.9709992  32.2369978 104.2290014
 124.9549992  32.9459978 105.3750014 124.2159992  32.4329978 103.8310014
 126.6469992  34.7649978 104.5060014 126.4079992  34.6589978 105.5540014
 126.9949992  35.7619978 104.2790014 127.4299992  34.0549978 104.2840014
 121.0219992  32.9629978 101.1570014 122.8839992  32.3209978  99.5070014
 120.5639992  36.9769978  98.3330014 120.2149992  37.9579978  97.5070014
 120.8689992  39.0059978  97.4070014 119.0839992  37.5389978  96.6310014
 118.3159992  38.3159978  96.4260014 118.5999992  36.7159978  97.2000014
 119.6209992  36.9299978  95.2060014 120.3869992  36.1539978  95.4200014
 120.1159992  37.6509978  94.5210014 118.4299992  36.2399978  94.4020014
 117.4429992  36.7259978  94.5500014 118.3199992  35.2359978  94.8660014
 118.8529992  36.0819978  92.9220014 118.8099992  37.1509978  92.6220014
 118.0399992  35.4589978  92.4920014 120.1909992  35.3489978  92.6380014
 120.0159992  34.3179978  93.0140014 121.0979992  35.6959978  93.1770014
 120.4729992  35.2419978  91.1090014 119.6149992  34.7589978  90.5950014
 121.3019992  34.5079978  91.0200014 120.7249992  36.4639978  90.2570014
 119.8729992  37.1329978  90.0110014 121.2069992  36.0919978  89.3270014
 121.7529992  37.3249978  91.0730014 121.5239992  37.5779978  92.1190014
 122.9819992  37.5549978  90.6650014 123.7359992  38.0079978  91.3260014
 123.5529992  37.1009978  89.3860014 123.2449992  36.0609978  89.1460014
 124.6429992  36.9549978  89.5410014 123.3179992  38.0229978  88.2360014
 123.6199992  39.0769978  88.4150014 122.2229992  37.9899978  88.0500014
 123.9959992  37.4719978  86.9870014 123.4949992  36.5219978  86.7030014
 124.9849992  37.0959978  87.3260014 124.1089992  38.3919978  85.8250014
 124.7379992  37.9279978  85.0360014 124.5699992  39.3629978  86.1080014
 122.8319992  38.7519978  85.1090014 123.1359992  39.1839978  84.1320014
 122.3059992  39.5539978  85.6690014 121.8969992  37.5959978  84.7910014
 121.3849992  37.3809978  85.7530014 122.4069992  36.6519978  84.5020014
 120.8669992  37.9859978  83.7980014 121.3229992  38.2989978  82.8350014
 120.4119992  38.9079978  84.2190014 119.7449992  36.8659978  83.5130014
 119.9589992  36.5189978  82.4790014 118.7879992  37.4279978  83.4640014
 119.8079992  36.0989978  84.3140014 102.7019992 126.3569978  81.2580014
 102.8789992 127.1879978  81.9730014 101.6999992 125.9109978  81.4350014
 102.7939992 126.8269978  80.2550014 103.8929992 125.3429978  81.2600014
 103.6159992 124.6169978  80.4660014 104.8759992 125.8349978  81.0980014
 103.9019992 124.5619978  82.5880014 103.0369992 123.8699978  82.6780014
 104.7719992 123.8739978  82.6510014 103.8719992 125.5269978  83.8950014
 104.5459992 126.3979978  83.7440014 102.8199992 125.8019978  84.1240014
 104.3279992 124.8459978  85.2170014 103.5799992 124.0349978  85.3460014
 105.3529992 124.4189978  85.2040014 104.1539992 125.7039978  86.5720014
 104.9039992 126.5209978  86.5120014 103.0889992 126.0199978  86.5670014
 104.4969992 124.9089978  87.7920014 103.7779992 124.0639978  87.8500014
 105.5349992 124.5139978  87.8390014 104.2489992 125.7789978  89.0750014
 104.8969992 126.6769978  88.9830014 103.1919992 126.1029978  88.9630014
 104.5849992 125.0969978  90.4170014 103.7549992 124.4619978  90.7960014
 105.4659992 124.4239978  90.3390014 104.9249992 126.0149978  91.4960014
 105.0569992 125.4819978  92.4620014 105.9299992 126.4439978  91.2940014
 103.8329992 127.0529978  91.8990014 103.4029992 127.5639978  91.0110014
 103.0529992 126.4519978  92.4120014 104.3439992 128.2119978  92.7900014
 104.9049992 128.8929978  92.1170014 103.4319992 128.7289978  93.1580014
 105.1569992 127.6399978  94.0770014 106.0119992 127.1379978  93.5750014
 105.5109992 128.4119978  94.7920014 104.4419992 126.5699978  94.9050014
 104.1729992 125.6789978  94.2980014 105.1839992 126.2899978  95.6830014
 103.2399992 127.0729978  95.7200014 103.4339992 127.8979978  96.4380014
 102.3969992 127.5059978  95.1410014 102.5929992 125.8869978  96.4380014
 101.7879992 125.1469978  95.8720014 103.2349992 125.6699978  97.5490014
 103.1379992 124.3539978  98.1000014 102.0619992 124.1589978  98.2980014
 103.5089992 123.6279978  97.3450014 103.8379992 124.2349978  99.4210014
 103.5139992 123.2499978  99.8210014 103.2529992 125.3459978 100.3670014
 103.3899992 126.3279978  99.8660014 102.1649992 125.1579978 100.4900014
 103.7799992 125.1299978 101.6720014 103.8489992 126.2739978 102.7360014
 104.7369992 127.3839978 101.9180014 105.0609992 128.4869978 102.7670014
 104.1389992 129.0649978 102.9910014 105.4929992 128.2069978 103.7510014
 106.1719992 129.3129978 102.1490014 105.6769992 130.0129978 101.4930014
 106.6109992 130.0149978 102.8430014 107.3209992 128.7589978 101.3140014
 106.7979992 128.0299978 100.0940014 107.5059992 127.4929978  99.4790014
 106.0919992 127.3129978 100.4850014 106.0999992 128.6979978  99.6110014
 108.2079992 129.8749978 100.7590014 108.8939992 129.3979978 100.0740014
 107.6099992 130.5949978 100.2200014 108.7429992 130.2969978 101.5970014
 108.0959992 127.8789978 102.2070014 107.4039992 127.2089978 102.6960014
 108.7059992 128.3729978 102.9480014 108.6989992 127.2729978 101.5470014
 102.5109992 126.7639978 102.9940014 104.6189992 125.7269978 103.8970014
 105.2869992 124.3599978  99.3740014 106.1469992 123.7079978  98.5540014
 105.8179992 122.7779978  97.8020014 107.5049992 124.3299978  98.6830014
 108.2859992 123.5519978  98.8260014 107.5329992 125.0139978  99.5570014
 107.8129992 125.1349978  97.3500014 107.0479992 125.9399978  97.3810014
 107.4849992 124.5359978  96.4740014 109.2329992 125.7459978  97.1670014
 109.9549992 124.9019978  97.1440014 109.6109992 126.3039978  98.0510014
 109.4439992 126.6119978  95.8440014 110.5359992 126.7809978  95.7360014
 109.0039992 127.5729978  96.1860014 108.7889992 126.0479978  94.5550014
 107.6809992 126.1159978  94.6080014 109.0349992 124.9719978  94.4320014
 109.4239992 126.7799978  93.4090014 110.4659992 126.4019978  93.4730014
 109.3209992 127.8729978  93.5830014 108.8849992 126.4319978  92.0570014
 107.8559992 126.8469978  92.1100014 108.9199992 125.3549978  91.7880014
 109.6749992 127.1119978  90.9100014 110.6789992 126.7009978  90.7270014
 109.3889992 128.1919978  90.1570014 110.0589992 128.5909978  89.3820014
 108.1409992 129.0509978  90.2640014 108.4739992 130.1029978  90.1410014
 107.8569992 129.0339978  91.3370014 106.9649992 128.5959978  89.4460014
 106.1369992 129.1449978  89.9430014 106.7589992 127.5139978  89.5900014
 106.8929992 129.0199978  87.9180014 106.7569992 130.1209978  87.8510014
 105.9649992 128.6739978  87.4130014 108.0639992 128.6249978  87.0600014
 108.3609992 127.5779978  87.2830014 109.0139992 129.1769978  87.2230014
 107.7529992 128.6489978  85.5660014 107.4839992 129.6979978  85.3170014
 106.8109992 128.0599978  85.5400014 108.8149992 128.1219978  84.6130014
 108.9879992 127.0739978  84.9390014 109.7499992 128.7009978  84.7720014
 108.4319992 128.2189978  83.1410014 109.2099992 127.7549978  82.4990014
 108.3349992 129.2879978  82.8560014 107.1869992 127.4089978  82.7840014
 107.2239992 126.4219978  83.2920014 107.0329992 127.2749978  81.6910014
 106.2749992 127.8299978  83.2570014  98.7719992  10.5259978  83.4820014
  97.9739992  11.0189978  82.8880014  98.4249992   9.7699978  84.2180014
  99.4729992   9.9279978  82.8610014  99.5369992  11.6639978  84.1140014
 100.2839992  11.0939978  84.7070014 100.1319992  12.1519978  83.3130014
  98.7379992  12.7039978  84.8890014  99.4389992  13.4019978  85.3960014
  98.2069992  13.3059978  84.1200014  97.8329992  12.1679978  86.0240014
  97.2899992  13.0539978  86.4160014  96.9419992  11.6489978  85.6090014
  98.5359992  11.2449978  87.1060014  99.0239992  10.3389978  86.6870014
  99.2869992  11.8599978  87.6460014  97.5799992  10.7109978  88.1900014
  97.0689992  11.5569978  88.6980014  96.7419992  10.3039978  87.5850014
  98.1449992   9.6459978  89.1650014  97.3659992   9.2589978  89.8550014
  98.4569992   8.7989978  88.5160014  99.3719992  10.2029978  89.9870014
 100.0959992  10.3649978  89.1600014  99.0779992  11.1819978  90.4230014
  99.9199992   9.1909978  90.9810014  99.2319992   9.0029978  91.8330014
 100.0879992   8.1789978  90.5540014 101.2989992   9.5919978  91.4790014
 101.7409992   8.6099978  91.7530014 101.9159992   9.9449978  90.6260014
 101.2619992  10.6989978  92.5730014 102.1639992  11.3479978  92.5460014
 100.3979992  11.3489978  92.3220014 101.0459992  10.3349978  94.0550014
 100.1199992   9.7319978  93.9420014 101.8909992   9.7359978  94.4570014
 100.6229992  11.4879978  95.0250014 101.3619992  12.3159978  95.0840014
  99.6329992  11.8969978  94.7290014 100.4989992  10.8849978  96.4210014
  99.7639992  10.0729978  96.2320014 101.4589992  10.5649978  96.8790014
  99.9669992  11.9299978  97.3570014 100.4789992  11.7419978  98.3250014
 100.2709992  12.9339978  96.9920014  98.4169992  11.8819978  97.5610014
  97.6199992  11.3059978  96.8420014  98.2369992  12.6229978  98.5910014
  96.9139992  12.7659978  99.1920014  96.9179992  13.7869978  99.6300014
  96.1549992  12.7379978  98.3810014  96.4459992  11.8069978 100.3590014
  95.5449992  12.2059978 100.8730014  97.5049992  11.7429978 101.4210014
  97.8549992  12.7139978 101.8340014  97.0269992  11.1739978 102.2470014
  98.6589992  11.1399978 100.9700014  99.4369992  10.0049978 101.8680014
  98.2279992   9.1949978 102.5820014  98.5029992   8.2229978 103.6360014
  99.5859992   8.1039978 103.8530014  98.1379992   8.5959978 104.6170014
  97.8399992   6.8859978 103.2080014  98.0809992   6.2489978 104.0460014
  96.7769992   7.0639978 103.1450014  98.0089992   6.0559978 101.9180014
  97.6899992   6.8549978 100.6750014  97.5679992   6.2749978  99.7730014
  96.6829992   7.1769978 100.8970014  98.3669992   7.6919978 100.5880014
  99.3419992   5.5239978 101.7730014  99.9559992   6.3889978 101.5650014
  99.5969992   4.9779978 102.6690014  99.4749992   4.8119978 100.9720014
  97.1489992   4.7789978 101.9980014  97.1059992   4.2599978 101.0520014
  96.2239992   5.1099978 102.4450014  97.6059992   4.1089978 102.7110014
 100.2049992   9.1709978 100.9480014 100.1769992  10.7249978 102.9310014
  96.2099992  10.4589978  99.7910014  95.1109992  10.1839978  99.2150014
  94.1729992  10.9459978  99.0520014  94.9589992   8.6809978  98.9020014
  94.6349992   8.2109978  99.8550014  95.9329992   8.3349978  98.4950014
  93.8339992   8.5029978  97.8430014  92.9289992   8.8709978  98.3740014
  93.6659992   7.4269978  97.6240014  94.1059992   9.2009978  96.4990014
  93.9679992  10.3009978  96.5730014  93.2839992   8.8879978  95.8200014
  95.4289992   8.8779978  95.7970014  95.8489992   7.8639978  95.9670014
  96.3019992   9.4479978  96.1810014  95.2209992   9.1589978  94.3080014
  94.7949992  10.1819978  94.2340014  94.3479992   8.5509978  93.9880014
  96.5059992   8.9099978  93.4050014  97.3739992   9.5009978  93.7680014
  96.3119992   9.2509978  92.3650014  96.9509992   7.4709978  93.5890014
  97.3839992   7.4939978  94.6110014  97.7949992   7.3659978  92.8740014
  96.0239992   6.3299978  93.4840014  95.0369992   6.4179978  93.9610014
  96.2439992   5.1849978  92.7510014  95.5029992   4.3739978  92.8070014
  97.4029992   4.8469978  91.9040014  97.8659992   3.8939978  92.2400014
  98.1829992   5.6169978  92.0860014  97.1259992   4.6839978  90.4160014
  96.3559992   3.9409978  90.1190014  98.1369992   4.5469978  89.9770014
  96.6939992   6.0329978  89.7600014  97.4429992   6.7599978  90.1400014
  95.6289992   6.2099978  90.0220014  96.7899992   6.2039978  88.2150014
  97.7129992   5.6859978  87.8770014  96.9779992   7.2919978  88.0940014
  95.5769992   5.7469978  87.3470014  95.2599992   4.7239978  87.6430014
  96.0409992   5.7589978  86.3380014  94.5139992   6.8699978  87.2250014
  94.5669992   7.6389978  88.0260014  93.4869992   6.4589978  87.3280014
  94.6949992   7.6249978  85.8560014  95.7789992   7.8639978  85.7940014
  94.2409992   8.6379978  85.8950014  94.1919992   6.8829978  84.5920014
  94.3349992   7.5739978  83.7330014  93.0949992   6.7389978  84.6880014
  94.6889992   5.9319978  84.3030014  24.6129992  52.7129978  82.3850014
  24.9709992  51.6629978  82.4430014  24.8559992  53.3299978  83.2770014
  25.1289992  53.3539978  81.6390014  23.0989992  52.6919978  82.1600014
  22.7189992  53.7289978  82.2780014  22.9829992  52.4209978  81.0890014
  22.2849992  51.8639978  83.1260014  21.1819992  51.9979978  83.0950014
  22.4449992  50.7769978  82.9660014  22.5429992  52.2419978  84.5750014
  23.4699992  51.8269978  85.0270014  22.5689992  53.3499978  84.6520014
  21.3989992  51.7389978  85.5220014  20.3929992  51.9239978  85.0880014
  21.5339992  50.6519978  85.7040014  21.3129992  52.3479978  86.9470014
  20.8759992  53.3689978  86.8970014  20.5129992  51.8599978  87.5440014
  22.6299992  52.2189978  87.8090014  23.0959992  51.2369978  87.5830014
  23.2759992  53.0139978  87.3800014  22.3769992  52.2929978  89.3480014
  21.5169992  52.9799978  89.4980014  21.8949992  51.3409978  89.6570014
  23.6379992  52.5099978  90.1750014  24.1329992  51.6519978  90.6780014
  24.4159992  53.0339978  89.5790014  23.2799992  53.4889978  91.2980014
  22.6209992  54.2159978  90.7770014  22.6889992  52.9589978  92.0750014
  24.3979992  54.1749978  92.0380014  25.1579992  53.5939978  92.6020014
  25.0189992  54.7339978  91.3070014  23.8299992  55.2049978  93.0750014
  23.4269992  56.1139978  92.5800014  23.1459992  54.5689978  93.6760014
  24.9409992  55.8289978  93.9780014  25.3939992  54.9399978  94.4670014
  25.6649992  56.4109978  93.3680014  24.1809992  56.7849978  94.9690014
  23.8539992  57.7419978  94.5100014  23.2579992  56.3189978  95.3760014
  25.0949992  57.1039978  96.2020014  25.5809992  56.2959978  96.7900014
  25.9009992  57.7519978  95.7960014  24.2319992  57.9529978  97.2280014
  24.5179992  59.0759978  97.5320014  23.2579992  57.1849978  97.6040014
  22.0969992  57.9789978  98.1930014  22.5629992  58.6329978  98.9600014
  21.5339992  58.5419978  97.4180014  21.1529992  57.1169978  99.0020014
  20.2999992  57.7519978  99.3240014  21.7809992  56.5049978 100.2830014
  22.2539992  57.3819978 100.7760014  21.0409992  56.1759978 101.0440014
  22.7859992  55.6069978  99.9100014  23.7569992  54.9289978 100.9040014
  22.6889992  54.2109978 101.8990014  23.2949992  53.6829978 103.0790014
  24.1929992  54.2519978 103.4030014  22.5879992  53.9529978 103.8920014
  23.4219992  52.1009978 103.1290014  24.1999992  51.8909978 102.4090014
  23.9939992  51.8809978 104.0190014  22.1549992  51.2669978 103.0090014
  21.1539992  51.4739978 104.1440014  21.5699992  51.2409978 105.1130014
  20.7919992  52.4889978 104.2110014  20.2659992  50.9099978 103.9010014
  21.5699992  51.4069978 101.6150014  20.5769992  50.9879978 101.5610014
  21.5239992  52.4589978 101.3750014  22.3139992  50.9529978 100.9770014
  22.5459992  49.7759978 103.1140014  21.6279992  49.2159978 103.0130014
  22.9539992  49.4919978 104.0730014  23.1769992  49.3699978 102.3370014
  24.5099992  53.8649978 100.1860014  24.4369992  56.0489978 101.5180014
  20.7599992  56.0939978  98.1470014  19.5099992  55.5469978  98.3420014
  18.6669992  55.9259978  99.1290014  19.3759992  54.3139978  97.4610014
  18.3849992  53.9289978  97.1400014  19.8859992  53.4579978  97.9520014
  20.0429992  54.4979978  96.0610014  20.2549992  53.5159978  95.5860014
  21.0439992  54.9719978  95.9640014  19.1859992  55.3189978  95.0710014
  18.9509992  56.3069978  95.5220014  18.2069992  54.8599978  94.8150014
  19.8549992  55.5459978  93.7540014  19.7599992  54.6419978  93.1140014
  20.9419992  55.7419978  93.8790014  19.2559992  56.6929978  92.9640014
  18.7689992  57.3659978  93.7010014  18.4229992  56.3449978  92.3160014
  20.3379992  57.4189978  92.0680014  21.1019992  57.8919978  92.7210014
  19.7569992  58.2799978  91.6720014  20.9729992  56.6819978  90.8660014
  21.4499992  55.8389978  91.4100014  21.8379992  57.2409978  90.4500014
  20.0139992  56.1259978  89.7860014  19.4739992  55.2689978  90.2160014
  19.6979992  56.6169978  88.5120014  18.9979992  56.1329978  87.8140014
  20.4059992  57.8279978  88.0310014  20.5539992  58.5609978  88.8540014
  19.7469992  58.4439978  87.3830014  21.7129992  57.5459978  87.3210014
  22.4709992  57.1719978  88.0410014  22.1779992  58.4119978  86.8030014
  21.6819992  56.4879978  86.1460014  20.7119992  56.6499978  85.6280014
  21.6849992  55.4889978  86.6320014  22.7779992  56.5789978  85.0780014
  22.7849992  57.5919978  84.6210014  22.6129992  55.8779978  84.2320014
  24.2209992  56.3539978  85.5830014  24.3679992  55.2859978  85.8550014
  24.4939992  57.0289978  86.4210014  25.1059992  56.8299978  84.4790014
  24.9279992  57.8679978  84.1240014  25.0389992  56.1989978  83.5670014
  26.6289992  56.7399978  84.8090014  27.0229992  57.4739978  85.5440014
  27.1129992  57.1199978  83.8830014  27.2239992  55.4069978  85.1450014
  27.4369992  54.8039978  84.2370014  26.5869992  54.8379978  85.8550014
  28.2329992  55.5689978  85.5830014  53.8009992  19.6739978  80.0390014
  52.7819992  19.3029978  79.7990014  54.4249992  18.7969978  80.3140014
  54.2479992  20.0959978  79.1130014  53.6419992  20.6639978  81.1560014
  54.5709992  21.2609978  81.2810014  52.8499992  21.3889978  80.8700014
  53.3299992  20.1009978  82.5650014  52.3239992  19.6369978  82.4820014
  54.1589992  19.3759978  82.7100014  53.3069992  21.2509978  83.6210014
  54.3479992  21.6239978  83.7270014  52.5779992  22.0089978  83.2600014
  52.9639992  20.7519978  85.0580014  51.9729992  20.2549978  84.9980014
  53.7339992  19.9669978  85.2170014  53.1119992  21.9119978  86.0300014
  54.1819992  22.2049978  85.9730014  52.5259992  22.7959978  85.6990014
  52.8069992  21.5979978  87.5290014  53.4559992  20.7179978  87.7260014
  53.1369992  22.4839978  88.1120014  51.3209992  21.3029978  87.8560014
  50.8679992  22.3129978  87.9570014  50.9199992  20.9009978  86.9010014
  51.0019992  20.5509978  89.1990014  49.8949992  20.6429978  89.2340014
  51.3759992  19.5069978  89.1300014  51.4069992  21.3209978  90.4550014
  52.5099992  21.4539978  90.4780014  50.7939992  22.2469978  90.5020014
  51.0839992  20.5119978  91.7470014  50.0069992  20.6449978  91.9870014
  51.3499992  19.4809978  91.4300014  51.8719992  20.8279978  92.9840014
  51.3869992  20.4089978  93.8920014  52.8209992  20.2949978  92.7580014
  52.2009992  22.3449978  93.2690014  52.7959992  22.7659978  92.4300014
  51.2029992  22.8269978  93.3400014  53.1009992  22.4219978  94.4990014
  52.4879992  22.0569978  95.3510014  53.9389992  21.6939978  94.4500014
  53.5729992  23.8079978  94.9630014  54.2759992  24.2189978  94.2060014
  52.6279992  24.3859978  95.0370014  54.4259992  23.6129978  96.2740014
  55.5619992  23.1489978  96.2960014  53.6799992  24.0009978  97.3520014
  54.3879992  23.6749978  98.5830014  55.3109992  23.0599978  98.5240014
  54.5729992  24.6759978  99.0300014  53.4549992  22.8509978  99.5290014
  52.7409992  23.6059978  99.9210014  54.2129992  22.2089978 100.7800014
  54.7679992  22.9799978 101.3560014  53.4649992  21.7769978 101.4780014
  55.0379992  21.1739978 100.1960014  55.5899992  20.0479978 101.1590014
  54.3459992  19.1179978 101.3960014  53.5459992  19.2899978 102.5230014
  53.7369992  20.2629978 103.0230014  52.4799992  19.3059978 102.2130014
  53.5629992  18.0299978 103.4550014  54.4809992  17.9899978 104.0220014
  52.7439992  18.1309978 104.1520014  53.2709992  16.6239978 102.9130014
  54.2769992  16.2059978 101.8540014  55.2729992  16.2899978 102.2660014
  54.1659992  15.1759978 101.5480014  54.0689992  16.7979978 100.9760014
  53.2349992  15.6549978 103.9850014  54.2329992  15.6349978 104.3970014
  52.6329992  15.9929978 104.8150014  52.7299992  14.7439978 103.7000014
  51.8959992  16.6499978 102.1940014  51.2209992  17.0099978 102.9560014
  51.6159992  15.6409978 101.9290014  51.8009992  17.3749978 101.3990014
  56.5849992  19.2609978 100.3720014  56.0789992  20.6929978 102.4600014
  52.8629992  21.7449978  98.7540014  51.7959992  21.2049978  99.2500014
  51.1449992  21.7249978 100.1740014  51.3579992  19.9739978  98.3860014
  50.5709992  20.3759978  97.7130014  50.8919992  19.2359978  99.0730014
  52.5209992  19.2219978  97.5790014  53.3659992  19.0149978  98.2700014
  52.9279992  19.9469978  96.8410014  52.0219992  17.9039978  96.9720014
  51.1399992  18.1409978  96.3380014  51.8479992  17.1489978  97.7680014
  53.0239992  17.4669978  95.9040014  53.9429992  17.0449978  96.3630014
  53.2589992  18.3549978  95.2800014  52.4539992  16.3719978  94.9800014
  51.7069992  16.7599978  94.2560014  52.0679992  15.5429978  95.6120014
  53.4779992  15.8179978  94.0280014  53.0469992  14.9969978  93.4150014
  54.2509992  15.2719978  94.6110014  54.1369992  16.8289978  93.0630014
  54.9929992  16.2249978  92.6930014  54.5669992  17.6799978  93.6340014
  53.1789992  17.2329978  91.9750014  52.1569992  16.8509978  92.1150014
  53.5689992  17.9329978  90.8750014  52.7609992  18.1979978  90.1770014
  54.9099992  18.4559978  90.5520014  55.6489992  18.3129978  91.3690014
  54.7179992  19.5389978  90.3950014  55.5309992  17.9379978  89.2920014
  55.4069992  16.8659978  89.0280014  56.6289992  18.1019978  89.2670014
  55.1109992  18.6809978  87.9950014  55.3429992  19.7519978  88.1770014
  54.0369992  18.4679978  87.8030014  56.0009992  18.2379978  86.8230014
  57.0359992  18.5709978  87.0530014  55.7899992  18.8479978  85.9190014
  55.9899992  16.6559978  86.6130014  54.9509992  16.3219978  86.8210014
  56.7159992  16.1959978  87.3180014  56.6449992  16.3169978  85.2740014
  56.8759992  15.2309978  85.2480014  57.5899992  16.8949978  85.1950014
  55.7489992  16.5169978  83.9610014  55.1939992  17.4759978  84.0410014
  54.8789992  15.8299978  83.8930014  56.5949992  16.4879978  82.7490014
  57.2919992  17.3519978  82.7070014  55.9679992  16.2999978  81.8510014
  57.3599992  15.6819978  82.7610014 137.3329992  68.0689978  80.8490014
 137.5369992  67.3049978  81.6300014 137.2219992  67.5539978  79.8700014
 136.3979992  68.5949978  81.1380014 138.5689992  68.9869978  80.8070014
 139.3949992  68.3139978  80.4900014 138.5129992  69.6619978  79.9270014
 138.8339992  69.8369978  82.0660014 139.4379992  70.7209978  81.7710014
 137.8179992  70.1639978  82.3740014 139.5449992  69.0609978  83.1900014
 139.1569992  68.0289978  83.0540014 140.6389992  69.1599978  83.0240014
 139.1779992  69.6749978  84.5510014 139.7769992  70.5409978  84.9070014
 138.1799992  70.1529978  84.4540014 139.3599992  68.7809978  85.7730014
 138.8079992  67.8369978  85.5770014 140.3649992  68.4159978  86.0750014
 138.7329992  69.4039978  87.0950014 138.8329992  68.8289978  88.0410014
 139.1419992  70.4199978  87.2810014 137.2159992  69.4359978  87.0630014
 137.0009992  70.3449978  86.4620014 136.9469992  68.5329978  86.4740014
 136.4629992  69.5869978  88.4500014 136.5269992  68.5519978  88.8490014
 137.0359992  70.2699978  89.1130014 135.0309992  70.0549978  88.4510014
 135.0709992  71.1639978  88.3950014 134.3379992  69.7099978  87.6550014
 134.1879992  69.7059978  89.7070014 133.2499992  70.3019978  89.6870014
 133.7819992  68.6729978  89.6530014 134.8319992  70.0209978  91.0680014
 134.0789992  69.7119978  91.8240014 135.7659992  69.4479978  91.2490014
 135.1329992  71.5829978  91.2250014 135.7289992  71.8049978  90.3140014
 134.1799992  72.1529978  91.1870014 135.9999992  71.9799978  92.4480014
 136.8029992  71.2529978  92.6960014 136.6299992  72.8559978  92.1850014
 135.0869992  72.1489978  93.7790014 135.6229992  72.9179978  94.3750014
 134.1249992  72.6629978  93.5640014 134.7569992  70.8439978  94.6180014
 134.5799992  69.7599978  94.1390014 134.7499992  71.1219978  95.8500014
 135.0029992  70.1229978  96.8620014 134.6789992  70.4279978  97.8800014
 134.4759992  69.1689978  96.6500014 136.4749992  69.6449978  96.9160014
 136.7609992  69.0759978  96.0060014 136.6979992  68.8599978  98.1920014
 135.8779992  68.1729978  98.4900014 137.6679992  68.3219978  98.1310014
 136.6899992  69.8369978  99.2120014 137.6179992  69.7009978 100.4810014
 136.8149992  70.5319978 101.6730014 136.8659992  71.9449978 101.5030014
 136.9469992  72.3199978 100.4600014 135.8939992  72.3089978 101.8980014
 138.0729992  72.4909978 102.2600014 138.9309992  72.2759978 101.6400014
 137.9169992  73.5429978 102.4490014 138.3629992  72.0139978 103.7030014
 139.0919992  70.6889978 103.5440014 138.3919992  70.0729978 102.9990014
 139.9309992  70.7179978 102.8640014 139.2939992  70.2559978 104.5130014
 139.1289992  73.0029978 104.5220014 138.6479992  73.9699978 104.5580014
 139.2389992  72.6009978 105.5180014 140.1779992  73.1519978 104.3130014
 137.0339992  71.7269978 104.4180014 137.2159992  71.1839978 105.3340014
 136.3249992  71.3069978 103.7210014 136.5829992  72.6599978 104.7250014
 137.4539992  68.2839978 100.9730014 138.9829992  70.1899978 100.2180014
 137.3359992  70.7579978  96.8600014 138.6999992  70.6019978  96.6450014
 139.2179992  69.5409978  96.4760014 139.3519992  71.9829978  96.7650014
 139.6449992  72.0539978  97.8340014 138.6249992  72.7909978  96.5320014
 140.3959992  72.1009978  95.6140014 140.8929992  71.1159978  95.4890014
 141.1189992  72.8849978  95.9260014 139.8529992  72.5239978  94.2470014
 139.4259992  73.5179978  94.4970014 138.9749992  71.8909978  93.9930014
 140.8949992  72.4689978  93.2200014 141.1149992  71.3889978  93.0810014
 141.8039992  72.8779978  93.7100014 140.4689992  73.1779978  91.8760014
 139.5009992  72.8709978  91.4250014 141.2579992  72.8549978  91.1640014
 140.5429992  74.7379978  91.9670014 141.5659992  75.0369978  92.2820014
 139.8019992  75.0859978  92.7180014 140.3519992  75.6129978  90.7190014
 141.1089992  75.4949978  89.9150014 140.4569992  76.6529978  91.0970014
 138.9709992  75.5159978  90.1180014 138.2939992  76.2399978  90.5950014
 138.6089992  74.7219978  89.0850014 137.5859992  74.6479978  88.6880014
 139.4649992  73.7349978  88.3270014 139.0189992  72.7189978  88.2670014
 140.4399992  73.5549978  88.8260014 139.9909992  74.0819978  86.9160014
 141.0349992  73.7129978  86.8260014 139.9609992  75.1919978  86.8940014
 139.1939992  73.6259978  85.6460014 139.0329992  72.5449978  85.8440014
 139.6639992  73.8309978  84.6610014 137.7269992  74.1279978  85.4670014
 137.7149992  75.0749978  84.8870014 137.3019992  74.3479978  86.4700014
 136.7689992  73.1259978  84.7450014 136.3819992  72.3209978  85.4050014
 137.3289992  72.6419978  83.9160014 135.6019992  73.8969978  84.1100014
 136.0069992  74.5129978  83.2780014 135.3129992  74.6359978  84.8870014
 134.3729992  73.0999978  83.6550014 133.9639992  72.5219978  84.5110014
 134.6289992  72.5009978  82.7550014 133.3949992  74.1529978  83.1580014
 133.2449992  74.9419978  83.9250014 132.3739992  73.7639978  82.9600014
 133.7459992  74.5679978  82.1890014  67.9389992   5.3779978  83.6470014
  68.8019992   4.9519978  83.0920014  67.1329992   4.6269978  83.7930014
  68.4289992   5.5419978  84.6310014  67.3879992   6.7319978  83.1890014
  68.1939992   7.4009978  82.8190014  66.7499992   6.6399978  82.2840014
  66.5319992   7.5099978  84.1760014  66.3709992   8.5249978  83.7530014
  65.6059992   6.9359978  84.3930014  67.3359992   7.8279978  85.4850014
  66.5979992   8.3149978  86.1570014  67.8199992   6.9609978  85.9830014
  68.5189992   8.7529978  85.3420014  69.3409992   8.1769978  84.8660014
  68.3369992   9.6459978  84.7050014  69.0539992   9.4379978  86.6530014
  70.0489992   9.8649978  86.4080014  68.3579992  10.2409978  86.9770014
  69.3949992   8.5399978  87.8870014  69.9379992   7.6589978  87.4830014
  70.1829992   9.0349978  88.4940014  68.2489992   8.0039978  88.7820014
  67.7109992   7.2509978  88.1670014  68.7059992   7.5039978  89.6620014
  67.2359992   9.1099978  89.1770014  66.6639992   9.4999978  88.3090014
  66.5569992   8.6409978  89.9210014  67.9629992  10.2459978  89.9560014
  68.6909992  10.7309978  89.2700014  67.2429992  11.0429978  90.2390014
  68.7409992   9.7829978  91.1920014  68.0059992   9.1599978  91.7460014
  69.6059992   9.1099978  91.0050014  69.2019992  10.9649978  92.0780014
  70.1689992  11.3499978  91.6880014  68.4999992  11.8229978  92.1440014
  69.5419992  10.4649978  93.5160014  68.7699992   9.7139978  93.7890014
  70.5839992  10.0809978  93.5220014  69.4899992  11.5759978  94.6430014
  70.2569992  12.3409978  94.3970014  68.4559992  11.9529978  94.4890014
  69.6609992  11.0169978  96.0980014  68.9079992  10.2099978  96.2240014
  70.6069992  10.4659978  96.2890014  69.4859992  12.2319978  96.9800014
  69.2099992  13.3769978  96.6060014  69.6269992  11.8609978  98.2100014
  69.5499992  12.8469978  99.2710014  70.4169992  12.6799978  99.9450014
  69.5879992  13.9219978  98.9920014  68.2929992  12.5189978 100.1460014
  68.1589992  13.1249978 101.0670014  68.2669992  11.0389978 100.5690014
  69.3149992  10.6769978 100.6440014  67.7509992  10.9959978 101.5520014
  67.7089992  10.1489978  99.5300014  66.8709992   8.8889978 100.0030014
  67.2869992   8.6349978 101.4930014  66.5829992   7.5469978 102.1860014
  66.4849992   6.5499978 101.7050014  67.2199992   7.2859978 103.0580014
  65.2659992   8.0759978 102.7890014  64.7549992   8.6109978 102.0030014
  64.6969992   7.2099978 103.0940014  65.2689992   8.9599978 104.0390014
  65.8429992   8.1959978 105.1990014  66.8019992   7.8099978 104.8860014
  66.0659992   8.8449978 106.0340014  65.2739992   7.3389978 105.5260014
  66.0879992  10.2009978 103.7630014  65.5979992  10.7489978 102.9730014
  66.0279992  10.8499978 104.6240014  67.1259992  10.0479978 103.5090014
  63.8489992   9.4919978 104.3200014  63.9709992  10.3049978 105.0210014
  63.2989992   8.7119978 104.8250014  63.2979992   9.8779978 103.4760014
  65.4369992   9.2409978  99.9690014  67.3399992   7.7279978  99.2130014
  67.1729992  12.9369978  99.3910014  65.9369992  12.8349978  99.9450014
  65.7309992  12.5969978 101.1270014  64.9149992  13.0809978  98.8570014
  64.6049992  14.1479978  98.8460014  64.0049992  12.5309978  99.1790014
  65.3169992  12.7519978  97.4340014  66.2359992  13.3499978  97.2490014
  64.5369992  13.0619978  96.7060014  65.4649992  11.2509978  97.1090014
  64.9469992  10.6179978  97.8610014  66.5509992  11.0379978  97.2050014
  65.0389992  11.0249978  95.6540014  65.2869992  11.9549978  95.0990014
  63.9319992  10.9369978  95.6400014  65.6199992   9.7419978  95.0490014
  65.0709992   8.8609978  95.4440014  66.6679992   9.5789978  95.3790014
  65.5749992   9.6289978  93.5290014  65.9689992   8.6299978  93.2460014
  66.1089992  10.4499978  93.0040014  64.0619992   9.8659978  92.9850014
  63.6359992  10.8509978  93.2710014  63.3799992   9.0549978  93.3200014
  64.0199992   9.7109978  91.4720014  64.1229992   8.6749978  91.1160014
  63.8939992  10.7889978  90.5590014  63.8119992  10.4949978  89.5020014
  63.7329992  12.2249978  90.8010014  63.5089992  12.4009978  91.8750014
  63.0229992  12.7879978  90.1580014  65.1329992  12.8889978  90.6560014
  65.9349992  12.4049978  91.2520014  65.0779992  13.9249978  91.0540014
  65.5789992  13.0539978  89.1550014  64.6659992  13.3809978  88.6110014
  65.7389992  12.0419978  88.7260014  66.7629992  13.9979978  88.8600014
  67.6719992  13.5039978  89.2640014  66.7489992  14.9559978  89.4230014
  66.8949992  14.3019978  87.3790014  67.7209992  15.0369978  87.2660014
  65.9669992  14.8719978  87.1600014  66.9279992  13.0619978  86.4720014
  65.9949992  12.5039978  86.7010014  67.8419992  12.5049978  86.7710014
  67.0769992  13.2929978  85.0100014  67.2639992  12.2449978  84.6910014
  67.9669992  13.9209978  84.7910014  65.7689992  13.8269978  84.3270014
  66.0189992  14.1679978  83.3000014  65.3809992  14.7449978  84.8180014
  64.9579992  13.0709978  84.2510014  64.7419992 134.1349978  85.1380014
  65.7719992 134.1769978  84.7230014  64.8469992 134.2399978  86.2390014
  64.0919992 134.9729978  84.8080014  64.1719992 132.8209978  84.6950014
  63.0609992 132.8329978  84.7180014  64.3399992 132.6829978  83.6050014
  64.6819992 131.6109978  85.3390014  64.1349992 130.7219978  84.9590014
  65.7439992 131.4599978  85.0500014  64.4329992 131.5959978  86.8810014
  64.9469992 132.4779978  87.3190014  63.3679992 131.8299978  87.0950014
  64.8059992 130.3089978  87.4900014  64.1259992 129.4699978  87.2290014
  65.8539992 130.0479978  87.2280014  64.9929992 130.2699978  89.1160014
  64.1989992 130.9319978  89.5230014  64.8009992 129.2329978  89.4680014
  66.3379992 130.8279978  89.5550014  67.0929992 130.2829978  88.9480014
  66.2759992 131.9129978  89.3240014  66.4939992 130.6619978  91.0860014
  67.3429992 131.3059978  91.4030014  65.6929992 131.1239978  91.7010014
  66.8619992 129.2429978  91.5860014  65.9499992 128.6359978  91.4020014
  67.7069992 128.7669978  91.0430014  67.3679992 129.1149978  93.0880014
  67.8029992 128.1199978  93.3230014  68.2369992 129.7949978  93.2260014
  66.2139992 129.5529978  94.0780014  65.2529992 129.3509978  93.5570014
  66.2859992 128.8459978  94.9320014  66.3489992 131.0479978  94.5450014
  67.3369992 131.5579978  94.5340014  65.8439992 131.7589978  93.8560014
  65.5509992 131.2919978  95.8140014  65.9399992 130.6349978  96.6210014
  65.5899992 132.3469978  96.1600014  64.1159992 131.0689978  95.5940014
  64.0689992 131.2529978  94.5000014  63.9409992 129.9869978  95.7770014
  63.2469992 132.0679978  96.4010014  63.6979992 132.1309978  97.4140014
  63.0019992 132.9869978  95.8270014  61.8809992 131.4519978  96.6840014
  61.3959992 130.8009978  95.7810014  61.3859992 131.7589978  97.8750014
  60.1139992 131.1519978  98.2640014  59.5679992 132.0449978  98.6360014
  59.5969992 130.7109978  97.3850014  60.2189992 130.1429978  99.4050014
  59.1939992 129.7949978  99.6570014  60.8059992 130.8369978 100.6200014
  60.3289992 131.8109978 100.8590014  60.6159992 129.9899978 101.3140014
  62.2369992 130.9929978 100.4130014  63.0199992 131.6429978 101.6640014
  63.1809992 130.4379978 102.7050014  63.7719992 129.2449978 102.1730014
  63.8289992 128.4489978 102.9460014  63.2899992 128.8419978 101.2560014
  65.2249992 129.4319978 101.5130014  65.4089992 128.5119978 100.9780014
  65.2039992 130.3019978 100.8740014  66.4609992 129.6979978 102.4320014
  66.6349992 128.5359978 103.3520014  67.4439992 128.6499978 104.0580014
  65.6919992 128.3949978 103.8600014  66.7659992 127.6239978 102.7900014
  67.5519992 129.7669978 101.4980014  68.5229992 129.7229978 101.9690014
  67.5679992 128.8659978 100.9030014  67.4739992 130.6439978 100.8720014
  66.3069992 130.9719978 103.1910014  67.2819992 131.2849978 103.5320014
  65.5399992 130.8389978 103.9390014  65.8099992 131.6589978 102.5220014
  64.3489992 132.1639978 101.2600014  62.0889992 132.6069978 102.3060014
  61.0009992 129.0239978  99.0440014  60.4209992 128.1499978  98.2260014
  59.2999992 128.2329978  97.7600014  61.2779992 126.8819978  98.2800014
  60.6689992 125.9819978  98.0530014  61.5549992 126.6979978  99.3400014
  62.5549992 126.9499978  97.3960014  63.1319992 126.0299978  97.6290014
  63.1489992 127.8249978  97.7380014  62.0959992 126.7129978  95.9760014
  61.2799992 127.4249978  95.7290014  61.6959992 125.6789978  96.0370014
  63.1749992 127.0299978  94.8450014  64.0289992 126.3259978  94.9450014
  63.5249992 128.0239978  95.1970014  62.6079992 126.9549978  93.4660014
  62.1729992 125.9609978  93.2240014  63.2979992 127.2479978  92.6470014
  61.4749992 127.9989978  93.2260014  61.9189992 129.0169978  93.2620014
  60.7529992 127.9829978  94.0700014  60.6659992 127.8719978  91.8690014
  60.3399992 126.8099978  91.8810014  61.3109992 128.0119978  90.9750014
  59.4649992 128.7379978  91.6570014  58.6269992 128.5289978  92.3390014
  59.3399992 129.6239978  90.6820014  58.4549992 130.2759978  90.6610014
  60.3339992 129.9979978  89.5260014  60.8639992 129.0949978  89.1550014
  61.0239992 130.7159978  90.0190014  59.6329992 130.6199978  88.2690014
  58.9549992 131.4799978  88.4570014  59.0329992 129.7489978  87.9280014
  60.6629992 130.8929978  87.0950014  61.1549992 129.9299978  86.8430014
  61.4589992 131.5389978  87.5220014  59.9879992 131.5629978  85.9290014
  60.7749992 131.6939978  85.1560014  59.5849992 132.5659978  86.1840014
  58.7219992 130.8969978  85.3210014  58.2339992 131.5299978  84.5490014
  58.1129992 130.7239978  86.2330014  58.8969992 129.4729978  84.8290014
  57.9769992 129.1239978  84.3130014  59.1159992 128.7889978  85.6760014
  60.0569992 129.2419978  83.8460014  60.1199992 128.1469978  83.6660014
  60.9569992 129.5669978  84.4100014  59.9959992 130.0389978  82.5320014
  60.3139992 131.0759978  82.7710014  58.9559992 130.0859978  82.1420014
  60.7349992 129.6659978  81.7910014  84.3519992   5.7439978  84.2980014
  84.6559992   4.7199978  84.6040014  85.0989992   6.2629978  83.6610014
  83.3869992   5.6799978  83.7510014  84.1709992   6.5669978  85.5680014
  83.7349992   7.5689978  85.3700014  83.4739992   6.0889978  86.2900014
  85.4679992   6.8829978  86.3190014  86.1189992   7.5409978  85.7040014
  85.2299992   7.3479978  87.2990014  86.3269992   5.6739978  86.5830014
  86.4589992   5.1899978  85.5910014  87.3179992   5.9949978  86.9680014
  85.7419992   4.8239978  87.7770014  85.5229992   5.3159978  88.7480014
  84.7319992   4.4539978  87.5000014  86.6079992   3.6109978  88.1500014
  86.6409992   2.9379978  87.2670014  87.6409992   3.8789978  88.4600014
  85.9949992   2.7179978  89.3050014  86.2059992   3.2409978  90.2620014
  84.9199992   2.5459978  89.0810014  86.6769992   1.3199978  89.3070014
  86.3009992   0.8539978  88.3710014  87.7789992   1.4339978  89.2280014
  86.2249992   0.4759978  90.5390014  87.0479992  -0.2620022  90.6450014
  86.1349992   1.2439978  91.3380014  84.8479992  -0.1560022  90.3460014
  84.0779992   0.6439978  90.3000014  84.8569992  -0.7410022  89.4010014
  84.4889992  -1.0390022  91.5740014  83.4109992  -1.2940022  91.4920014
  85.0529992  -1.9960022  91.5710014  84.6789992  -0.3890022  92.9870014
  85.7559992  -0.4270022  93.2580014  84.2149992   0.6199978  93.0110014
  84.0269992  -1.1240022  94.1870014  84.0789992  -2.1720022  93.8200014
  84.6769992  -0.9970022  95.0790014  82.6169992  -0.6450022  94.4920014
  81.9649992  -0.4650022  93.6110014  82.0639992  -1.3790022  95.1170014
  82.5139992   0.7359978  95.2710014  83.0099992   1.5009978  94.6370014
  81.4909992   1.1259978  95.4630014  83.1969992   0.5799978  96.6570014
  83.3769992  -0.4540022  97.3180014  83.4339992   1.7909978  97.0280014
  84.0719992   1.9119978  98.3350014  83.7989992   2.8959978  98.7720014
  83.8739992   1.0589978  99.0180014  85.5899992   2.0909978  98.1170014
  85.9599992   1.2019978  97.5630014  86.3509992   2.2779978  99.4210014
  85.9429992   1.5399978 100.1430014  87.4399992   2.0589978  99.3980014
  86.1489992   3.5929978  99.9820014  85.7599992   3.7849978 101.5120014
  84.4349992   2.8759978 101.4790014  83.8359992   2.5489978 102.7590014
  83.1619992   1.6799978 102.6000014  84.6759992   2.4179978 103.4740014
  82.9259992   3.8269978 103.2620014  82.7709992   3.5909978 104.3050014
  83.4539992   4.7639978 103.1590014  81.6349992   4.0189978 102.5220014
  80.6589992   2.8119978 102.5830014  80.5289992   2.7219978 103.6510014
  79.7679992   3.0419978 102.0180014  81.1959992   1.9449978 102.2290014
  81.0129992   5.1989978 103.2140014  81.7489992   5.9869978 103.1640014
  80.0929992   5.3499978 102.6670014  80.7959992   4.8479978 104.2120014
  81.8489992   4.3879978 101.0860014  82.4779992   5.2589978 101.1980014
  80.9219992   4.6559978 100.6010014  82.3169992   3.6239978 100.4830014
  86.7029992   3.1259978 102.4130014  85.4729992   5.2269978 101.6930014
  85.7359992   3.3099978  97.4090014  86.9059992   3.5849978  96.8090014
  87.9359992   2.8919978  96.9100014  86.9179992   4.9649978  96.1050014
  87.3399992   5.7259978  96.7960014  85.8869992   5.3809978  96.0940014
  87.5589992   4.8589978  94.7940014  88.3769992   4.1199978  94.6550014
  87.8589992   5.9149978  94.6180014  86.5499992   4.2549978  93.7640014
  86.2829992   3.2089978  94.0290014  87.0919992   4.0989978  92.8070014
  85.3769992   5.1419978  93.4210014  85.6719992   6.1799978  93.1560014
  84.6429992   5.1869978  94.2540014  84.3789992   4.6209978  92.3000014
  84.0649992   3.5979978  92.5990014  84.9369992   4.5879978  91.3400014
  83.2449992   5.6079978  92.1370014  83.7009992   6.5719978  91.8250014
  82.7569992   5.8409978  93.1070014  82.2229992   5.0879978  91.0760014
  82.7699992   4.9799978  90.1140014  81.3759992   5.8029978  90.9920014
  81.7919992   3.6469978  91.3540014  81.6339992   3.4629978  92.4270014
  81.4739992   2.7189978  90.4440014  81.2759992   1.7089978  90.8320014
  81.4759992   2.8579978  88.9360014  81.6379992   1.8609978  88.4730014
  82.2459992   3.5269978  88.4960014  80.0979992   3.3059978  88.3870014
  80.0569992   4.4139978  88.3220014  79.2209992   3.0359978  89.0140014
  79.7209992   2.7909978  87.0340014  78.6929992   3.1179978  86.7690014
  79.7189992   1.6849978  87.1450014  80.6479992   3.2989978  85.9970014
  81.6249992   2.8109978  86.2040014  80.7339992   4.4069978  86.0260014
  80.3099992   2.8549978  84.5500014  79.2949992   3.2599978  84.3530014
  80.2689992   1.7619978  84.3530014  81.1379992   3.5729978  83.4730014
  82.1819992   3.2809978  83.7140014  81.0949992   4.6499978  83.7440014
  80.6609992   3.3789978  82.0630014  81.2089992   4.0189978  81.3390014
  79.6349992   3.7839978  81.9290014  80.6859992   1.8759978  81.7040014
  81.6399992   1.3919978  82.0040014  80.5379992   1.7979978  80.6060014
  79.7959992   1.3959978  82.1650014  46.8989992 127.8189978  81.6080014
  46.9899992 127.9479978  80.5090014  46.0369992 128.4899978  81.8090014
  46.7639992 126.7379978  81.8290014  48.2069992 128.2559978  82.2240014
  48.5399992 129.2679978  81.9090014  48.1979992 128.0729978  83.3190014
  49.3489992 127.3169978  81.6940014  49.1219992 126.2609978  81.9560014
  49.4039992 127.3339978  80.5850014  50.8469992 127.6559978  82.1210014
  51.6469992 126.9679978  81.7760014  51.0869992 128.5799978  81.5520014
  50.9499992 127.9779978  83.6240014  51.9789992 128.1429978  84.0080014
  50.3609992 128.8959978  83.8370014  50.6439992 126.7879978  84.6300014
  49.5959992 126.5199978  84.3790014  51.3389992 125.9819978  84.3100014
  50.9689992 127.1019978  86.0770014  50.9369992 126.1349978  86.6220014
  51.9829992 127.5539978  86.0250014  50.0189992 128.0779978  86.8010014
  49.8489992 128.9249978  86.1020014  49.0489992 127.6039978  87.0620014
  50.5589992 128.6499978  88.1280014  51.5599992 129.1279978  88.0750014
  49.8969992 129.4509978  88.5200014  50.7189992 127.6389978  89.2130014
  49.7349992 127.1789978  89.4440014  51.4619992 126.8499978  88.9710014
  51.0349992 128.4739978  90.4610014  51.9909992 129.0199978  90.3150014
  50.2579992 129.2499978  90.6270014  50.9119992 127.7109978  91.7870014
  51.8689992 127.1569978  91.8880014  50.8649992 128.3879978  92.6660014
  49.9099992 126.6699978  92.0070014  48.9719992 127.2629978  92.0780014
  49.8409992 125.9779978  91.1410014  49.9749992 125.9449978  93.4060014
  49.8649992 126.7009978  94.2130014  49.0959992 125.2659978  93.3870014
  51.2299992 125.2239978  93.6840014  51.4689992 124.6089978  92.7900014
  52.1149992 125.8679978  93.8750014  50.8889992 124.2779978  94.8520014
  50.4789992 123.1179978  94.7310014  50.9229992 124.9719978  95.9510014
  50.3089992 124.3109978  97.0850014  49.3749992 123.8029978  96.7640014
  51.0159992 123.6659978  97.6490014  49.8959992 125.3329978  98.1280014
  50.8429992 125.8689978  98.3520014  49.3909992 124.5699978  99.3370014
  48.6759992 123.8159978  98.9450014  50.2449992 124.0849978  99.8560014
  48.7669992 125.4459978 100.2150014  47.6779992 124.8679978 101.2890014
  48.2279992 125.2929978 102.6800014  49.4819992 125.9449978 102.8450014
  49.7529992 125.9519978 103.9230014  50.2539992 125.2579978 102.4370014
  49.6509992 127.3639978 102.2250014  50.6659992 127.7039978 102.3720014
  49.5269992 127.1249978 101.1790014  48.7129992 128.4489978 102.6440014
  48.2809992 128.3279978 104.0860014  47.5039992 129.0509978 104.2870014
  47.7979992 127.3679978 104.1890014  49.1569992 128.2739978 104.7150014
  49.3329992 129.7839978 102.3830014  49.6069992 129.7849978 101.3380014
  48.5879992 130.5629978 102.4670014  50.1659992 130.1469978 102.9670014
  47.4679992 128.3929978 101.8210014  47.7979992 128.1659978 100.8180014
  46.9249992 129.3039978 102.0280014  46.9129992 127.5199978 102.1320014
  46.4079992 125.5149978 100.9660014  47.7349992 123.3869978 101.3520014
  48.9099992 126.2379978  97.5190014  48.7789992 127.4459978  98.0850014
  49.5749992 127.9619978  98.8230014  47.3589992 128.0149978  97.7110014
  47.5179992 128.9029978  97.0620014  46.8379992 128.3909978  98.6170014
  46.4399992 126.8639978  97.2930014  46.4139992 126.0809978  98.0810014
  46.8199992 126.3059978  96.4110014  45.0569992 127.3359978  97.0000014
  44.6049992 127.6759978  97.9560014  44.5749992 126.3949978  96.6580014
  44.9749992 128.4139978  95.9100014  45.3939992 129.3589978  96.3190014
  43.8729992 128.5539978  95.9320014  45.4219992 128.0409978  94.4920014
  44.7589992 127.2799978  94.0270014  46.4249992 127.5649978  94.5370014
  45.4049992 129.2639978  93.5050014  46.2339992 129.9059978  93.8730014
  44.4809992 129.8799978  93.5180014  45.7219992 128.8129978  92.0260014
  46.6399992 128.1879978  91.9890014  46.1689992 129.7369978  91.6020014
  44.5879992 128.3279978  91.1670014  43.5869992 128.7609978  91.3120014
  44.8309992 127.4859978  90.1680014  43.9469992 127.0649978  89.6670014
  46.1429992 126.8489978  89.8010014  47.0459992 127.2339978  90.3210014
  46.3819992 127.1839978  88.7690014  46.0359992 125.2799978  89.9410014
  45.0809992 124.9519978  89.4780014  45.8599992 125.0909978  91.0220014
  47.3009992 124.5849978  89.4590014  47.2509992 123.5029978  89.7050014
  48.1219992 125.0799978  90.0200014  47.5299992 124.9359978  87.9490014
  47.9699992 125.9559978  87.9450014  46.5279992 124.8889978  87.4720014
  48.6469992 124.0149978  87.2750014  48.5889992 122.9299978  87.5090014
  49.6079992 124.3239978  87.7390014  48.6229992 124.1749978  85.7580014
  49.6509992 124.0389978  85.3590014  48.3609992 125.2319978  85.5360014
  47.5999992 123.3059978  85.0480014  46.5729992 123.6129978  85.3420014
  47.5799992 122.2689978  85.4450014  47.7049992 123.2029978  83.5880014
  47.5359992 124.1729978  83.0730014  47.0469992 122.3959978  83.2020014
  48.7539992 122.8859978  83.4090014  88.7449992 129.2899978  80.8240014
  88.8059992 128.6179978  81.7070014  89.2159992 128.7259978  79.9910014
  87.6899992 129.3229978  80.4770014  89.2869992 130.6879978  81.2150014
  90.3229992 130.6359978  81.6150014  89.3249992 131.4079978  80.3700014
  88.3989992 131.4849978  82.2230014  88.6629992 132.5639978  82.2430014
  87.4349992 131.5279978  81.6720014  88.2059992 130.8509978  83.5880014
  87.3249992 131.2709978  84.1190014  88.1599992 129.7419978  83.6320014
  89.2989992 131.1219978  84.5960014  90.2299992 130.5229978  84.4960014
  89.5369992 132.2049978  84.5300014  88.9149992 130.8849978  86.1260014
  89.4369992 131.5939978  86.8040014  87.8449992 131.1789978  86.1580014
  89.0919992 129.3659978  86.5980014  88.4679992 128.6739978  85.9940014
  90.1279992 129.0709978  86.3270014  88.9069992 129.1369978  88.0960014
  89.0029992 128.1279978  88.5510014  89.8249992 129.5779978  88.5410014
  87.6819992 129.8149978  88.7550014  87.9949992 130.8799978  88.8150014
  86.7809992 129.7819978  88.1060014  87.3359992 129.2429978  90.1190014
  86.2639992 129.4009978  90.3640014  87.3409992 128.1359978  90.0250014
  88.2259992 129.6179978  91.3170014  89.2969992 129.3949978  91.1220014
  88.1509992 130.7169978  91.4640014  87.7119992 129.1249978  92.7190014
  86.8509992 129.7969978  92.9200014  87.3209992 128.0919978  92.6030014
  88.6599992 129.2889978  93.8900014  88.1279992 129.0439978  94.8340014
  89.5309992 128.6339978  93.6770014  89.2509992 130.7269978  94.0140014
  89.5829992 131.0409978  93.0010014  88.5239992 131.4959978  94.3510014
  90.5229992 130.7979978  94.9640014  91.1829992 129.9119978  94.8460014
  91.1329992 131.6369978  94.5660014  90.3259992 130.9069978  96.4400014
  89.3889992 130.4149978  96.9710014  91.3869992 131.4779978  96.9310014
  91.4349992 131.5019978  98.3780014  90.8549992 130.6899978  98.8660014
  92.4859992 131.4739978  98.7350014  90.7689992 132.7949978  98.9740014
  91.2449992 133.7019978  98.5450014  90.9079992 132.8019978 100.5000014
  90.4689992 131.8429978 100.8490014  91.9819992 132.7919978 100.7840014
  90.2549992 133.9429978 101.0800014  89.8479992 133.7879978 102.6120014
  88.7789992 132.5549978 102.6500014  87.4479992 132.9149978 102.1430014
  87.0079992 133.7399978 102.7410014  87.4559992 133.3029978 101.1020014
  86.4999992 131.7449978 102.3080014  86.4609992 131.4369978 103.3430014
  85.4909992 132.1209978 102.2200014  86.8539992 130.4729978 101.5570014
  88.1479992 129.8099978 102.0150014  88.9939992 130.3659978 101.6380014
  88.2159992 129.8499978 103.0920014  88.0669992 128.7789978 101.7050014
  85.7419992 129.5309978 101.7620014  85.9099992 129.1779978 102.7690014
  84.7759992 130.0059978 101.6710014  85.8799992 128.6939978 101.0950014
  87.0949992 130.7859978 100.0780014  87.7749992 131.6189978  99.9720014
  86.1129992 131.0609978  99.7230014  87.3499992 129.8339978  99.6350014
  91.0619992 133.3789978 103.3170014  89.2069992 135.0849978 102.9830014
  89.3159992 132.8529978  98.6860014  88.7509992 134.1359978  98.7470014
  89.4009992 135.1349978  98.9090014  87.2659992 134.0599978  98.5030014
  86.8159992 134.9479978  98.9960014  86.7939992 133.2119978  99.0430014
  86.7549992 133.9199978  97.0380014  85.6469992 133.9189978  97.1090014
  87.0999992 132.9109978  96.7270014  87.3259992 134.9319978  96.0710014
  88.4169992 134.9689978  96.2750014  87.0739992 136.0089978  96.1800014
  87.1059992 134.5879978  94.6230014  87.6559992 133.6519978  94.3860014
  87.6399992 135.2989978  93.9570014  85.6609992 134.3699978  94.1540014
  85.1199992 135.2699978  94.5160014  85.1499992 133.4669978  94.5520014
  85.5169992 134.3679978  92.6330014  85.8049992 135.3569978  92.2170014
  84.4129992 134.3279978  92.5190014  86.2839992 133.2179978  91.9500014
  85.9989992 132.2229978  92.3550014  87.3529992 133.4279978  92.1670014
  85.9329992 132.8209978  90.4740014  84.9809992 132.2999978  90.2970014
  86.6459992 133.0749978  89.3550014  86.3319992 132.7149978  88.3640014
  87.9669992 133.7839978  89.2600014  88.6719992 133.0409978  88.8290014
  88.3949992 134.0209978  90.2580014  88.0499992 135.0939978  88.4810014
  87.3329992 135.8249978  88.9120014  87.6679992 134.9229978  87.4520014
  89.4909992 135.7359978  88.4810014  89.9709992 135.8909978  89.4710014
  89.2699992 136.7889978  88.2050014  90.5059992 135.1119978  87.3990014
  90.6499992 134.0649978  87.7420014  91.4219992 135.7359978  87.3220014
  89.9699992 135.1289978  86.0300014  89.5509992 136.1039978  85.7020014
  89.1579992 134.4049978  85.8050014  90.9629992 134.7519978  85.0050014
  91.5749992 133.8689978  85.2880014  91.6459992 135.6199978  84.8910014
  90.4369992 134.5209978  83.6300014  90.2669992 135.5019978  83.1360014
  89.4769992 133.9629978  83.6430014  91.4199992 133.7759978  82.7590014
  91.5719992 132.7099978  83.0310014  92.3819992 134.3159978  82.8920014
  91.1329992 133.9479978  81.6990014  80.5719992 137.7909978  82.1230014
  79.8579992 138.5719978  82.4610014  80.5789992 137.7599978  81.0120014
  81.6009992 138.0189978  82.4760014  80.0279992 136.4699978  82.7690014
  79.1669992 136.0969978  82.1740014  80.7119992 135.6219978  82.5550014
  79.5409992 136.5269978  84.2530014  78.6879992 137.2079978  84.4610014
  79.1889992 135.5009978  84.4960014  80.6989992 136.7759978  85.2150014
  81.4579992 136.0039978  84.9640014  81.0439992 137.8299978  85.1580014
  80.3519992 136.5479978  86.6910014  79.4199992 137.1349978  86.8390014
  80.1089992 135.4709978  86.8070014  81.3379992 136.9809978  87.7740014
  82.1889992 136.2669978  87.7450014  81.7729992 137.9739978  87.5300014
  80.7029992 136.8259978  89.1700014  80.9049992 137.7409978  89.7680014
  79.5929992 136.7799978  89.1700014  81.4269992 135.6499978  89.9500014
  81.4139992 134.7399978  89.3130014  82.4389992 136.0519978  90.1720014
  80.7529992 135.3289978  91.2460014  80.5479992 136.2679978  91.8040014
  79.7889992 134.8809978  90.9240014  81.4769992 134.3889978  92.1580014
  81.9109992 133.5459978  91.5790014  82.3549992 134.8299978  92.6780014
  80.5059992 133.5929978  93.0910014  80.0819992 134.1449978  93.9570014
  79.6499992 133.3229978  92.4360014  81.0989992 132.2749978  93.6260014
  80.2519992 131.6089978  93.8960014  81.7579992 131.8639978  92.8320014
  81.9109992 132.5359978  94.9240014  82.5689992 131.6739978  95.1620014
  82.6829992 133.3349978  94.8910014  80.9739992 132.8139978  96.0860014
  80.5349992 133.8339978  96.0870014  80.1559992 132.0649978  96.0190014
  81.6629992 132.4159978  97.4910014  80.9239992 132.2049978  98.2930014
  82.3299992 131.5319978  97.4060014  82.4889992 133.5489978  98.0520014
  83.3869992 133.3769978  98.9510014  82.2569992 134.7009978  97.4670014
  82.8599992 135.8919978  97.8950014  83.5859992 135.7709978  98.7280014
  83.3629992 136.4059978  97.0480014  81.7369992 136.8669978  98.4390014
  82.2119992 137.8139978  98.7740014  81.0319992 136.2609978  99.7080014
  81.7589992 135.5829978 100.2040014  80.6999992 137.0989978 100.3570014
  79.8429992 135.6129978  99.3490014  78.6489992 135.3089978 100.3620014
  79.5069992 134.5279978 101.4310014  78.8339992 133.5449978 102.2880014
  78.1559992 134.1069978 102.9660014  78.1619992 132.8669978 101.7200014
  79.7949992 132.4989978 102.9600014  79.2529992 131.8119978 103.5930014
  80.1359992 131.9249978 102.1120014  80.9729992 133.1989978 103.7070014
  81.8929992 133.7359978 102.7470014  82.8389992 133.9869978 103.2020014
  82.1919992 132.8979978 102.1350014  81.5919992 134.5529978 102.1080014
  80.5849992 134.2409978 104.6490014  79.9059992 134.9239978 104.1590014
  80.0619992 133.8429978 105.5060014  81.4669992 134.7459978 105.0150014
  81.5809992 132.0549978 104.4380014  82.2449992 132.3049978 105.2520014
  82.1329992 131.5369978 103.6680014  80.8989992 131.2909978 104.7830014
  78.1769992 136.6229978 100.9580014  77.6839992 134.4789978  99.6160014
  80.7879992 137.1229978  97.4450014  80.7889992 138.1179978  96.6650014
  81.6979992 138.9139978  96.5860014  79.3799992 138.2729978  95.9480014
  79.5159992 139.0619978  95.1780014  78.6489992 138.6529978  96.6930014
  78.9509992 136.9809978  95.2080014  78.4369992 136.2449978  95.8630014
  79.8569992 136.3959978  94.9410014  78.1659992 137.3159978  93.8870014
  78.0379992 136.3619978  93.3310014  78.7879992 137.8809978  93.1600014
  76.8269992 138.0299978  94.0250014  76.8659992 138.9639978  94.6260014
  76.0279992 137.4209978  94.5000014  76.2689992 138.5129978  92.6520014
  76.9819992 139.1369978  92.0720014  75.3329992 139.0549978  92.9070014
  75.7339992 137.2809978  91.9320014  74.8799992 136.8769978  92.5170014
  76.5859992 136.5679978  91.9420014  74.9769992 137.4419978  90.5970014
  74.0949992 138.0989978  90.7550014  74.5809992 136.4459978  90.3020014
  75.8539992 137.8659978  89.4580014  76.0589992 138.9459978  89.4590014
  76.3979992 137.1139978  88.4480014  76.8849992 137.5719978  87.5740014
  76.1869992 135.5429978  88.2990014  75.2809992 135.3029978  87.7030014
  75.9409992 135.0879978  89.2820014  77.3289992 134.7149978  87.7740014
  78.1869992 134.9239978  88.4480014  77.5949992 135.1929978  86.8070014
  76.9539992 133.3429978  87.5040014  75.9739992 133.3179978  86.9810014
  76.9299992 132.7259978  88.4270014  78.0509992 132.6699978  86.5510014
  78.9669992 132.5209978  87.1630014  78.3909992 133.3529978  85.7440014
  77.6519992 131.2369978  86.0330014  76.5899992 131.0489978  85.7690014
  77.7289992 130.5999978  86.9400014  78.5419992 130.5879978  84.9310014
  78.4969992 131.2129978  84.0140014  78.1429992 129.5959978  84.6280014
  80.0269992 130.3819978  85.4080014  80.4109992 129.5489978  84.7820014
  80.0609992 129.9259978  86.4210014  80.9639992 131.6319978  85.3440014
  80.8939992 132.0389978  84.3130014  81.9979992 131.2599978  85.5120014
  80.7179992 132.3849978  86.1230014 114.0349992 124.1949978  84.4060014
 113.7789992 125.2579978  84.2110014 113.9729992 123.7509978  83.3890014
 115.0519992 123.9459978  84.7780014 113.0539992 123.4269978  85.3780014
 112.0829992 123.4929978  84.8430014 113.4839992 122.4089978  85.2600014
 113.1579992 123.8529978  86.8680014 112.6269992 123.0179978  87.3740014
 114.2059992 123.7819978  87.2300014 112.5489992 125.2619978  87.2300014
 113.0129992 126.0369978  86.5830014 111.4489992 125.1899978  87.0950014
 112.7679992 125.7679978  88.6970014 113.8379992 125.8799978  88.9760014
 112.3589992 126.7929978  88.8250014 111.9889992 125.0169978  89.7900014
 110.9739992 124.7839978  89.4030014 112.4079992 123.9889978  89.8400014
 112.0509992 125.6789978  91.2030014 111.3509992 125.0459978  91.7890014
 113.0509992 125.5209978  91.6610014 111.4329992 127.0999978  91.3370014
 111.9389992 127.7989978  90.6380014 110.3659992 127.0109978  91.0430014
 111.5059992 127.6929978  92.6540014 112.5039992 127.7869978  93.1340014
 111.1599992 128.7389978  92.5110014 110.4679992 127.2859978  93.7440014
 110.5609992 128.1669978  94.4140014 109.3859992 127.3309978  93.4950014
 110.7019992 125.9089978  94.4690014 109.9909992 125.1659978  94.0490014
 111.7229992 125.5779978  94.1830014 110.4689992 126.1149978  95.9560014
 111.0669992 127.0089978  96.2360014 109.4249992 126.3769978  96.2320014
 110.8659992 124.9769978  96.8700014 111.9049992 124.6309978  96.6830014
 110.7809992 125.2319978  97.9480014 109.9269992 123.7849978  96.5800014
 108.8579992 124.0709978  96.6860014 110.0649992 123.4839978  95.5200014
 110.2289992 122.5919978  97.5620014 110.3079992 123.0899978  98.5520014
 109.3399992 121.9359978  97.6850014 111.4409992 121.8309978  97.2480014
 111.8659992 121.7329978  96.1120014 111.9029992 121.2689978  98.3660014
 113.2169992 120.6889978  98.3700014 113.1599992 119.7489978  98.9600014
 113.5289992 120.4329978  97.3350014 114.2619992 121.7079978  98.8060014
 115.1879992 121.1129978  98.9550014 113.9069992 122.5649978 100.0720014
 113.7329992 121.8289978 100.8850014 114.8139992 123.1519978 100.3310014
 112.8129992 123.4529978  99.9480014 112.4599992 124.3129978 101.1650014
 113.8369992 124.5239978 101.8730014 113.9679992 125.2969978 103.1010014
 113.3759992 126.2229978 102.9370014 113.5939992 124.5669978 103.8500014
 115.4199992 125.5789978 103.5820014 115.3219992 126.1329978 104.5040014
 115.8999992 124.6249978 103.7410014 116.2239992 126.4229978 102.7070014
 116.4309992 125.8059978 101.3240014 117.2769992 126.1829978 100.7690014
 116.6119992 124.7419978 101.3530014 115.4799992 125.9789978 100.8410014
 115.5889992 127.7649978 102.5900014 114.6809992 127.6629978 102.0140014
 115.1829992 128.0229978 103.5560014 116.3279992 128.4669978 102.2320014
 117.5319992 126.4969978 103.4320014 118.2849992 127.1219978 102.9760014
 117.9669992 125.5239978 103.6040014 117.3029992 126.8349978 104.4320014
 111.9589992 125.5679978 100.6260014 111.5899992 123.5449978 102.1570014
 114.4849992 122.5749978  97.6660014 115.4649992 123.4549978  97.7190014
 116.4339992 123.3649978  98.4660014 115.1239992 124.4759978  96.7510014
 115.0439992 125.5009978  97.1720014 114.1679992 124.2669978  96.2240014
 116.1759992 124.5469978  95.5280014 115.6869992 124.1419978  94.6160014
 117.0709992 123.9429978  95.7910014 116.6499992 125.9339978  95.0650014
 117.4389992 125.6789978  94.3260014 117.0269992 126.5099978  95.9360014
 115.6649992 126.8319978  94.2480014 114.8209992 127.0359978  94.9410014
 115.1869992 126.1929978  93.4750014 116.1489992 128.0999978  93.5610014
 116.7619992 128.6009978  94.3410014 115.3119992 128.7699978  93.2680014
 117.0149992 127.7309978  92.2800014 117.3899992 126.6949978  92.4200014
 117.8689992 128.4399978  92.3070014 116.2319992 127.5989978  91.0550014
 115.6959992 128.5599978  90.9030014 115.3769992 126.9269978  91.2840014
 117.0079992 127.1149978  89.8280014 117.5889992 127.9549978  89.4200014
 117.1479992 125.9319978  89.2700014 117.8539992 125.8099978  88.4360014
 116.4569992 124.6539978  89.7920014 115.8739992 124.3139978  88.9090014
 115.7219992 124.9119978  90.5840014 117.3679992 123.5149978  90.3780014
 116.6689992 122.7469978  90.7740014 118.1249992 123.7259978  91.1630014
 118.2149992 122.8919978  89.2680014 118.6059992 121.9139978  89.6230014
 119.1009992 123.5449978  89.1160014 117.4389992 122.3959978  87.9670014
 118.2609992 122.1859978  87.2490014 116.7779992 123.1819978  87.5440014
 116.6179992 121.1409978  88.2060014 115.7979992 121.4149978  88.9040014
 117.1789992 120.2769978  88.6220014 115.9529992 120.6879978  86.8500014
 116.7699992 120.4449978  86.1380014 115.4319992 121.5609978  86.4000014
 115.1079992 119.4049978  87.0600014 114.4879992 119.2639978  86.1490014
 114.5039992 119.7459978  87.9280014 115.9399992 118.1139978  87.2760014
 116.9309992 118.0399978  86.7780014 115.2349992 117.3179978  86.9540014
 116.0889992 117.9509978  88.3650014  17.5359992  99.6049978  81.3050014
  16.9499992 100.2869978  81.9570014  17.0719992  99.4189978  80.3130014
  18.5009992 100.1299978  81.1360014  17.6739992  98.2699978  81.9300014
  16.6349992  97.8809978  81.9730014  17.9849992  97.5929978  81.1050014
  18.5779992  98.1419978  83.2220014  18.3619992  97.1219978  83.6070014
  19.6489992  98.1379978  82.9270014  18.2279992  99.1299978  84.3630014
  18.5119992 100.1629978  84.0690014  17.1249992  99.1329978  84.4920014
  19.0499992  98.9959978  85.6430014  20.0759992  99.1149978  85.2340014
  18.8009992  99.8199978  86.3450014  18.9039992  97.6529978  86.3380014
  17.8149992  97.6859978  86.5580014  19.1129992  96.8339978  85.6180014
  19.7499992  97.4739978  87.6460014  19.3589992  96.6259978  88.2480014
  20.7559992  97.3109978  87.2050014  19.9249992  98.6189978  88.5350014
  20.4839992  98.3459978  89.4550014  20.4269992  99.4379978  87.9770014
  18.5969992  99.3119978  88.9010014  18.6669992 100.3819978  89.1910014
  17.8959992  99.1729978  88.0510014  17.8279992  98.6249978  90.0910014
  17.3969992  97.6919978  89.6680014  18.5079992  98.4579978  90.9540014
  16.7019992  99.5709978  90.6160014  17.0019992 100.6169978  90.8430014
  15.8739992  99.4969978  89.8790014  16.1069992  99.0179978  91.9090014
  15.0119992  99.1889978  91.8210014  16.1679992  97.9089978  91.8810014
  16.6399992  99.6879978  93.1720014  17.3599992 100.4969978  92.9220014
  15.7719992 100.1209978  93.7130014  17.3219992  98.8339978  94.2500014
  16.5649992  98.1509978  94.6930014  18.1019992  98.2009978  93.7750014
  18.0409992  99.5529978  95.3930014  18.5729992  98.8449978  96.0650014
  18.8409992 100.2069978  94.9860014  17.0129992 100.3929978  96.0780014
  16.8779992 101.6059978  95.8280014  16.2689992  99.6549978  96.9010014
  15.4049992 100.4969978  97.6930014  15.8709992 101.3699978  98.1990014
  14.5219992 100.8969978  97.1490014  14.7649992  99.6779978  98.7950014
  13.9799992 100.2559978  99.3290014  15.7179992  99.3509978  99.9120014
  16.0959992 100.2809978 100.3870014  15.1379992  98.9589978 100.7750014
  16.7819992  98.5159978  99.5240014  16.9419992  96.9479978  99.8830014
  16.9049992  96.9369978 101.4760014  17.6579992  97.9219978 102.1420014
  18.6929992  97.9889978 101.7430014  17.3759992  98.9899978 102.0190014
  17.6349992  97.6889978 103.5920014  18.3379992  98.3809978 104.0310014
  16.6729992  97.8539978 104.0540014  18.0869992  96.3699978 104.1480014
  19.2919992  95.8409978 103.3440014  20.1489992  96.4639978 103.5540014
  19.4569992  94.8229978 103.6650014  19.0339992  95.6759978 102.3080014
  18.5159992  96.5809978 105.5890014  17.6839992  96.8549978 106.2200014
  18.8529992  95.5929978 105.8670014  19.3619992  97.2499978 105.6540014
  17.0119992  95.3809978 103.9840014  16.5079992  95.5829978 103.0500014
  16.3749992  95.4809978 104.8510014  17.4319992  94.3859978 104.0110014
  15.8059992  96.1099978  99.4060014  18.2979992  96.4659978  99.4170014
  14.2189992  98.4309978  98.2770014  13.3249992  98.4719978  97.3790014
  12.7099992  99.4369978  96.9860014  13.1639992  97.0969978  96.7740014
  12.3779992  97.0769978  95.9890014  12.8879992  96.3189978  97.5180014
  14.4649992  96.5599978  96.1280014  15.4329992  96.8559978  96.5870014
  14.4629992  97.0379978  95.1250014  14.4989992  95.0379978  95.8930014
  13.6209992  94.8039978  95.2530014  14.4319992  94.5519978  96.8900014
  15.7729992  94.4529978  95.2820014  15.6129992  93.3539978  95.2890014
  16.5809992  94.5629978  96.0370014  16.3019992  94.9419978  93.9270014
  17.2729992  94.4279978  93.7650014  16.4989992  96.0329978  94.0030014
  15.1989992  94.8579978  92.8460014  14.3489992  95.5439978  93.0500014
  14.7529992  93.8489978  92.9740014  15.7289992  95.0079978  91.3660014
  16.0659992  93.9869978  91.0870014  16.5189992  95.7709978  91.5330014
  14.6799992  95.5369978  90.4500014  13.9349992  96.2289978  90.8700014
  14.6079992  95.3339978  89.1340014  13.6319992  95.6039978  88.7050014
  15.5849992  94.5249978  88.2820014  15.6509992  93.5079978  88.7260014
  16.5349992  95.0719978  88.4640014  15.3539992  94.3119978  86.7650014
  14.4299992  93.6959978  86.7160014  16.2819992  93.8699978  86.3450014
  15.2739992  95.6029978  85.9030014  15.9429992  96.4459978  86.1800014
  14.3659992  96.2359978  86.0020014  15.5449992  95.4269978  84.4230014
  16.5729992  95.0179978  84.3190014  15.5819992  96.4059978  83.9000014
  14.5289992  94.5919978  83.7450014  14.6489992  93.6269978  84.2810014
  14.9509992  94.2859978  82.7640014  13.0719992  95.0299978  83.6510014
  12.6099992  94.3069978  82.9450014  13.0209992  96.0069978  83.1230014
  12.1479992  94.8749978  84.9170014  12.2499992  95.8989978  85.3360014
  12.4769992  94.1919978  85.7280014  10.6199992  94.5249978  84.5780014
  10.4229992  93.4599978  84.3310014  10.2729992  95.0719978  83.6750014
   9.9769992  94.9879978  85.3570014 124.8989992 116.1209978  80.9100014
 124.1179992 115.3619978  80.6920014 125.6909992 116.2389978  80.1400014
 124.3909992 117.1089978  80.9490014 125.7099992 115.7289978  82.1370014
 125.0559992 115.6369978  83.0300014 126.2059992 114.7559978  81.9330014
 126.9359992 116.6729978  82.2670014 127.5499992 116.7339978  81.3430014
 126.5999992 117.7099978  82.4830014 127.9009992 116.2789978  83.4460014
 128.3349992 115.2559978  83.4750014 128.8219992 116.8859978  83.3100014
 127.4149992 116.6459978  84.8170014 127.0629992 117.6979978  84.7590014
 126.5069992 116.0299978  84.9920014 128.4179992 116.3969978  85.9830014
 128.1669992 115.3729978  86.3310014 129.4879992 116.4689978  85.6920014
 128.3029992 117.3489978  87.2180014 128.3989992 118.3979978  86.8670014
 127.2909992 117.2219978  87.6600014 129.2969992 117.0919978  88.3100014
 130.2799992 117.2579978  87.8200014 129.0579992 117.8309978  89.1050014
 129.2739992 115.6669978  88.8990014 128.2859992 115.1579978  88.9050014
 129.9029992 114.9599978  88.3170014 130.0359992 115.6199978  90.2600014
 130.9389992 116.2159978  90.0080014 129.4189992 116.2579978  90.9280014
 130.3569992 114.2369978  90.6390014 129.4649992 113.5939978  90.4780014
 131.1279992 113.9719978  89.8850014 131.1119992 114.0859978  91.9780014
 131.5929992 113.0839978  91.9750014 132.0359992 114.6799978  91.8130014
 130.3209992 114.3829978  93.2870014 129.8459992 115.3869978  93.2680014
 129.5559992 113.5909978  93.4370014 131.2969992 114.1139978  94.4900014
 131.8969992 113.1899978  94.3430014 132.0659992 114.9089978  94.5970014
 130.4589992 113.7739978  95.7820014 129.8259992 112.8819978  95.5890014
 131.0619992 113.6579978  96.7080014 129.6789992 115.0809978  96.1960014
 130.1789992 116.1529978  96.1940014 128.3809992 114.7619978  96.5000014
 127.4559992 115.8249978  96.6460014 128.0409992 116.6449978  97.1140014
 127.2189992 116.3549978  95.6990014 126.2579992 115.4649978  97.5920014
 125.6529992 116.3959978  97.6360014 126.8319992 115.0139978  99.0380014
 127.5509992 114.1769978  98.9070014 127.3779992 115.8169978  99.5770014
 125.8019992 114.5609978  99.8690014 124.7579992 115.5959978 100.5780014
 124.8349992 115.0799978 102.0540014 124.6029992 113.7319978 102.4330014
 123.5359992 113.6559978 102.7310014 124.7539992 113.0469978 101.5710014
 125.5659992 113.3429978 103.5860014 125.2049992 113.8989978 104.4390014
 125.3709992 112.2989978 103.7820014 127.0549992 113.4399978 103.3610014
 127.5089992 114.8289978 103.4280014 127.1759992 115.3809978 102.5610014
 127.0749992 115.3149978 104.2900014 128.5749992 114.9449978 103.5550014
 127.7339992 112.7329978 104.5110014 128.8019992 112.6699978 104.3620014
 127.5629992 113.4639978 105.2870014 127.2519992 111.7949978 104.7430014
 127.4109992 112.8499978 102.0420014 127.0139992 111.8479978 102.1120014
 128.4809992 112.7189978 101.9870014 127.0319992 113.4239978 101.2090014
 125.3279992 116.9789978 100.4990014 123.3979992 115.4319978 100.1440014
 125.5499992 114.4009978  97.0280014 124.8139992 114.6999978  95.9790014
 124.5279992 115.7649978  95.5220014 124.1959992 113.3639978  95.4960014
 123.1329992 113.4109978  95.8150014 124.7029992 112.5749978  96.0910014
 124.2639992 113.1609978  93.9610014 123.7559992 114.0609978  93.5540014
 123.8159992 112.2419978  93.5270014 125.6809992 113.0919978  93.4240014
 126.1299992 112.2979978  94.0590014 126.2459992 114.0219978  93.6450014
 125.8409992 112.6539978  91.9280014 125.2909992 113.4929978  91.4510014
 125.2699992 111.7169978  91.7500014 127.2419992 112.5379978  91.3770014
 127.7179992 113.3979978  91.8930014 127.2429992 112.7579978  90.2880014
 127.9389992 111.2629978  91.7040014 127.6909992 111.0859978  92.7730014
 129.0419992 111.3939978  91.7180014 127.5959992 109.9289978  90.9540014
 126.5219992 109.7609978  91.1830014 128.0999992 109.0039978  91.3080014
 127.8479992 110.0239978  89.4490014 128.9179992 110.1849978  89.2520014
 127.0589992 109.8509978  88.3910014 127.4799992 110.0779978  87.4000014
 125.5609992 109.4389978  88.4240014 125.1379992 109.2799978  89.4390014
 125.4279992 108.4979978  87.8490014 124.6749992 110.6139978  87.7690014
 123.6419992 110.2149978  87.8510014 124.9029992 110.6349978  86.6820014
 124.7849992 112.0089978  88.4130014 125.8639992 112.1669978  88.6240014
 124.2599992 111.9089978  89.3870014 124.1149992 113.1279978  87.6200014
 124.5779992 113.1929978  86.6120014 124.3199992 114.1269978  88.0610014
 122.5889992 112.9759978  87.4680014 122.1329992 112.7659978  88.4590014
 122.3249992 112.1929978  86.7260014 121.7909992 114.1919978  86.9140014
 121.7519992 115.0649978  87.6000014 120.7309992 113.8569978  86.9130014
 122.0909992 114.7919978  85.5120014 123.0009992 115.4289978  85.5070014
 121.2529992 115.4829978  85.2800014 122.1949992 113.8379978  84.2860014
 122.5739992 114.3299978  83.3650014 121.2739992 113.2689978  84.0350014
 122.8339992 112.9709978  84.5560014 136.3379992  92.0929978  83.8900014
 136.9719992  91.5149978  84.5960014 136.4299992  91.5809978  82.9090014
 135.3559992  91.9229978  84.3820014 136.6299992  93.5709978  83.9050014
 137.6219992  93.6709978  83.4130014 135.9629992  94.0619978  83.1650014
 136.5669992  94.2389978  85.2570014 135.5679992  94.1549978  85.7360014
 137.2589992  93.7399978  85.9690014 136.9299992  95.7689978  84.9670014
 137.9529992  95.8389978  84.5390014 136.2629992  96.2999978  84.2550014
 136.8969992  96.6189978  86.2460014 135.9239992  96.3879978  86.7290014
 137.5219992  96.2169978  87.0720014 137.0619992  98.0639978  85.9030014
 137.9069992  98.2999978  85.2210014 136.0489992  98.4529978  85.6630014
 137.3959992  98.8209978  87.2220014 137.1309992  99.8909978  87.0810014
 136.7029992  98.5739978  88.0550014 138.8199992  98.7399978  87.7930014
 139.1019992  97.6759978  87.9470014 139.5679992  99.2059978  87.1170014
 138.9229992  99.4509978  89.1540014 138.6299992 100.5139978  89.0200014
 138.2259992  98.9789978  89.8790014 140.3229992  99.5889978  89.7960014
 140.9999992  99.9179978  88.9790014 140.3409992 100.4019978  90.5540014
 140.9119992  98.2569978  90.2040014 141.0069992  97.5869978  89.3230014
 141.9319992  98.3269978  90.6370014 140.0459992  97.5379978  91.2290014
 139.1099992  97.1929978  90.7410014 140.5979992  96.6069978  91.4790014
 139.7309992  98.3499978  92.5720014 140.6589992  98.6599978  93.0990014
 139.1439992  99.2779978  92.4050014 138.9519992  97.4769978  93.5080014
 137.8779992  97.4769978  93.2250014 139.2739992  96.4329978  93.7100014
 138.9669992  98.1259978  94.8760014 139.9349992  98.0989978  95.4210014
 138.6509992  99.1899978  94.8160014 137.8919992  97.4329978  95.7150014
 137.2269992  96.4549978  95.4160014 137.8359992  98.1339978  96.8970014
 137.2839992  97.4159978  98.0090014 136.9499992  98.2069978  98.7140014
 136.3319992  96.8959978  97.7690014 138.2879992  96.5119978  98.7090014
 137.8199992  96.2469978  99.6820014 139.6329992  97.1729978  99.1490014
 139.8699992  97.8989978  98.3410014 139.3289992  97.7519978 100.0470014
 140.6229992  96.2639978  99.4620014 140.9209992  95.7359978 100.9250014
 139.5109992  95.2469978 101.4960014 139.2959992  94.0889978 102.2720014
 139.8289992  93.2329978 101.8070014 139.7319992  94.2499978 103.2810014
 137.7729992  93.7909978 102.4590014 137.2939992  93.6309978 101.5050014
 137.9089992  92.8949978 103.0460014 136.8869992  94.7619978 103.1570014
 136.3669992  95.7789978 102.2120014 135.8269992  96.5549978 102.7340014
 137.2549992  96.2379978 101.8010014 135.7899992  95.3779978 101.3920014
 135.7269992  94.0969978 103.8220014 135.2179992  94.8539978 104.4010014
 135.0909992  93.7639978 103.0150014 135.9239992  93.2609978 104.4760014
 137.5869992  95.5359978 104.2790014 137.5629992  94.8349978 105.1010014
 137.0059992  96.3889978 104.5950014 138.5799992  95.8379978 103.9800014
 141.8229992  94.5749978 100.7200014 141.4579992  96.8959978 101.7020014
 138.5209992  95.3809978  97.8330014 138.0759992  94.2349978  98.2130014
 137.5119992  94.0179978  99.3090014 138.1889992  93.1509978  97.1350014
 138.2929992  92.1759978  97.6580014 139.0929992  93.5009978  96.5920014
 136.8809992  92.9369978  96.3200014 136.2889992  93.8439978  96.0720014
 136.2589992  92.4209978  97.0820014 137.0539992  92.0189978  95.0630014
 136.2229992  92.0099978  94.3260014 137.3629992  91.0059978  95.3980014
 138.1769992  92.4479978  94.1510014 139.2049992  92.4629978  94.5720014
 137.9799992  93.4819978  93.7950014 138.3619992  91.4769978  92.9710014
 137.4509992  91.4729978  92.3350014 138.5419992  90.4809978  93.4290014
 139.6119992  91.9089978  92.1350014 140.5209992  91.9509978  92.7720014
 139.4849992  92.9279978  91.7100014 139.8709992  90.8609978  91.0370014
 139.0519992  90.8959978  90.2880014 139.6849992  89.9319978  91.6180014
 141.1459992  91.0069978  90.2630014 141.9309992  90.2729978  90.4970014
 141.3269992  91.7919978  89.2390014 142.3479992  91.8839978  88.8400014
 140.3449992  92.7579978  88.6490014 139.3619992  92.6559978  89.1580014
 140.0179992  92.4359978  87.6380014 140.7899992  94.1479978  88.7150014
 141.2779992  94.4289978  89.6730014 139.9689992  94.8919978  88.6260014
 141.6149992  94.4609978  87.4420014 141.8189992  93.4739978  86.9750014
 142.5969992  94.8999978  87.7180014 140.9519992  95.4839978  86.5120014
 141.1319992  96.4309978  87.0640014 139.8409992  95.4659978  86.4990014
 141.4739992  95.4449978  85.0980014 142.5689992  95.3279978  84.9500014
 141.2209992  96.4449978  84.6840014 140.7809992  94.3849978  84.1670014
 139.6809992  94.5109978  84.0750014 141.0389992  93.3969978  84.6070014
 141.3279992  94.3669978  82.7110014 142.4309992  94.2769978  82.8190014
 141.0919992  95.3449978  82.2400014 140.7019992  93.3229978  81.7410014
 140.9729992  92.2839978  82.0250014 141.1129992  93.5239978  80.7280014
 139.5959992  93.2609978  81.6550014 143.6659992  83.2669978  85.3340014
 143.3709992  82.7149978  84.4170014 144.0459992  82.5299978  86.0740014
 144.5249992  83.8619978  84.9560014 142.5439992  84.1029978  85.7660014
 142.8609992  84.5549978  86.7300014 142.4609992  84.9599978  85.0650014
 141.1539992  83.3949978  85.9060014 140.3739992  84.1359978  86.1810014
 140.8819992  82.9209978  84.9390014 141.0499992  82.3149978  87.0440014
 139.9689992  82.1469978  87.2380014 141.5059992  81.3929978  86.6230014
 141.6439992  82.7779978  88.3770014 142.7269992  82.5649978  88.2560014
 141.4869992  83.8679978  88.5210014 140.9239992  82.0589978  89.5520014
 140.8299992  80.9839978  89.2870014 141.5999992  82.1139978  90.4320014
 139.5579992  82.5799978  90.0220014 138.8359992  82.4899978  89.1820014
 139.1849992  81.8979978  90.8160014 139.7039992  84.0939978  90.4380014
 140.7359992  84.2059978  90.8330014 139.5299992  84.6999978  89.5230014
 138.7049992  84.5539978  91.4940014 138.9009992  83.8619978  92.3410014
 139.0369992  85.5699978  91.7970014 137.2299992  84.5059978  91.1490014
 137.0489992  85.0909978  90.2210014 136.8409992  83.4839978  90.9540014
 136.3689992  85.0699978  92.3230014 135.2999992  84.8209978  92.1540014
 136.6579992  84.4359978  93.1890014 136.4929992  86.5579978  92.5550014
 137.4559992  86.6619978  93.1000014 136.4739992  87.1419978  91.6100014
 135.2929992  87.0539978  93.3910014 135.6669992  88.0549978  93.6950014
 134.4599992  87.0679978  92.6550014 134.9169992  86.1619978  94.6450014
 134.0139992  86.4709978  95.2130014 134.8449992  85.0969978  94.3390014
 136.0339992  86.1749978  95.6380014 137.0349992  85.9789978  95.1960014
 136.1049992  87.1399978  96.1840014 135.7619992  85.1339978  96.7440014
 134.7719992  84.4109978  96.7910014 136.8209992  85.0499978  97.6080014
 136.7729992  83.9289978  98.4940014 135.7859992  83.7379978  98.9670014
 137.1089992  82.9929978  98.0000014 137.7619992  84.2259978  99.6000014
 137.7639992  83.4099978 100.3540014 137.4759992  85.5369978 100.3850014
 137.2369992  86.3889978  99.7130014 136.6939992  85.3909978 101.1600014
 138.7449992  85.7409978 101.0890014 139.1579992  87.1619978 101.6530014
 140.3309992  86.7749978 102.6590014 140.3279992  85.5319978 103.3030014
 140.7199992  85.6239978 104.3380014 139.2719992  85.2079978 103.4220014
 141.2759992  84.5039978 102.5610014 141.3459992  83.7269978 103.3070014
 140.6699992  83.9959978 101.8260014 142.7119992  84.8979978 102.2070014
 143.3859992  85.5389978 103.3360014 143.5349992  84.7509978 104.0580014
 144.3089992  86.0109978 103.0300014 142.7449992  86.3289978 103.6990014
 143.4429992  83.6709978 101.7680014 143.3229992  82.9609978 102.5730014
 143.0569992  83.3529978 100.8110014 144.4869992  83.9439978 101.8040014
 142.6369992  85.8859978 101.0050014 142.0909992  86.7639978 101.3190014
 142.0709992  85.4369978 100.2020014 143.6509992  86.1599978 100.7540014
 139.8429992  87.8939978 100.5780014 137.9549992  87.6559978 102.3470014
 139.0009992  84.2619978  98.9510014 139.8679992  83.2469978  98.9290014
 139.7859992  82.2169978  99.6050014 140.9359992  83.5099978  97.8550014
 141.7479992  82.7609978  97.9730014 141.3939992  84.5209978  97.9080014
 140.2149992  83.4289978  96.4700014 139.1399992  83.6189978  96.6760014
 140.2299992  82.4019978  96.0460014 140.5219992  84.5579978  95.4900014
 140.0299992  84.2719978  94.5360014 141.6189992  84.6849978  95.3680014
 140.0079992  85.9379978  95.9520014 140.5099992  86.2599978  96.8900014
 138.9309992  85.8589978  96.2160014 140.1369992  87.1009978  94.9240014
 139.2619992  86.9479978  94.2570014 141.0009992  87.0199978  94.2310014
 140.0499992  88.4749978  95.5750014 140.9729992  88.7399978  96.1340014
 139.1859992  88.5209978  96.2710014 139.9679992  89.6269978  94.6030014
 140.8429992  89.5409978  93.9240014 140.1159992  90.5959978  95.1260014
 138.6329992  89.7729978  93.8220014 137.7509992  89.8839978  94.4700014
 138.4659992  89.9669978  92.4760014 137.4779992  90.0989978  92.0120014
 139.5819992  90.0619978  91.4200014 140.5449992  90.0649978  91.9740014
 139.4439992  91.0379978  90.9070014 139.6619992  88.7549978  90.5050014
 139.8799992  87.9089978  91.1920014 140.5979992  88.9279978  89.9320014
 138.5149992  88.7649978  89.5390014 138.5079992  89.7489978  89.0220014
 137.5859992  88.7539978  90.1470014 138.6979992  87.6229978  88.4900014
 137.8519992  87.4169978  87.8000014 138.8449992  86.7139978  89.1120014
 139.9019992  87.7979978  87.6020014 140.8119992  87.3049978  88.0040014
 140.3099992  88.8289978  87.5300014 139.7019992  87.2469978  86.2100014
 139.5229992  86.1549978  86.3090014 140.6629992  87.2979978  85.6550014
 138.7639992  87.9749978  85.2740014 137.7389992  87.9719978  85.7030014
 138.7839992  87.3559978  84.3510014 139.2359992  89.4179978  84.9450014
 140.2229992  89.5289978  84.4460014 139.3129992  90.0839978  85.8310014
 138.4529992  89.8549978  84.2890014  37.1749992  33.1739978  84.0180014
  37.0689992  34.2799978  84.0530014  36.1739992  32.7309978  83.8290014
  37.7679992  32.9289978  83.1110014  37.8549992  32.4509978  85.2080014
  37.7229992  31.3819978  84.9380014  38.9529992  32.6049978  85.1310014
  37.3849992  32.7599978  86.6530014  37.9109992  31.9939978  87.2610014
  37.6969992  33.7989978  86.8950014  35.9149992  32.8279978  86.8800014
  35.4659992  33.5709978  86.1870014  35.5099992  31.8819978  86.4610014
  35.2999992  33.0109978  88.2730014  34.2139992  32.7959978  88.1820014
  35.9039992  32.3559978  88.9360014  35.2939992  34.4849978  88.7350014
  36.3499992  34.8319978  88.7320014  34.7369992  35.1189978  88.0120014
  34.7509992  34.7449978  90.1780014  33.6399992  34.7609978  90.1820014
  35.1119992  33.9779978  90.8950014  35.1109992  36.2289978  90.6300014
  36.2069992  36.3619978  90.5090014  34.5689992  37.0209978  90.0690014
  34.8879992  36.3729978  92.1740014  35.1009992  35.4119978  92.6880014
  35.5369992  37.1009978  92.7060014  33.4879992  36.9369978  92.3540014
  33.5799992  37.8979978  91.8030014  32.8219992  36.2439978  91.7980014
  33.0409992  37.1459978  93.7790014  33.8209992  37.6579978  94.3830014
  32.0529992  37.6389978  93.9010014  32.9709992  35.7909978  94.5530014
  32.6729992  34.9779978  93.8580014  34.0189992  35.6199978  94.8790014
  31.9219992  35.7149978  95.6560014  32.2259992  36.4879978  96.3940014
  30.9249992  36.0449978  95.2930014  31.7569992  34.3679978  96.2150014
  31.4779992  33.6509978  95.4140014  32.6979992  33.9189978  96.5990014
  30.8039992  34.3259978  97.3860014  31.2019992  34.9479978  98.2160014
  29.7799992  34.6999978  97.1710014  30.7869992  32.8099978  97.9870014
  30.4409992  31.8769978  97.2410014  31.2319992  32.7259978  99.2420014
  31.1299992  31.4009978  99.8160014  30.9069992  31.5709978 100.8910014
  30.2529992  30.8739978  99.3830014  32.4179992  30.6439978  99.7510014
  32.2829992  29.5829978 100.0500014  33.4919992  31.2909978 100.6500014
  33.0159992  31.5699978 101.6140014  34.3089992  30.5969978 100.9400014
  33.9639992  32.4929978  99.9710014  33.9649992  33.9279978 100.6570014
  35.1419992  33.7979978 101.7500014  36.3319992  33.1779978 101.2610014
  36.3359992  32.8649978 100.1950014  37.1209992  33.9589978 101.2850014
  36.6469992  31.8429978 102.1090014  36.0189992  31.0449978 101.7400014
  37.6859992  31.6289978 101.9040014  36.4849992  31.9279978 103.5510014
  37.1419992  33.1309978 104.1080014  36.5339992  33.9079978 103.6690014
  37.0659992  32.9679978 105.1730014  38.1689992  33.2149978 103.7870014
  34.9789992  31.9409978 104.0610014  34.6789992  32.9779978 104.0190014
  34.3119992  31.2769978 103.5320014  34.9419992  31.6699978 105.1060014
  37.1889992  30.6729978 104.0680014  38.1879992  30.8209978 103.6850014
  36.6599992  29.7919978 103.7360014  37.2919992  30.5739978 105.1390014
  34.1969992  34.9279978  99.5600014  32.6929992  34.0899978 101.4080014
  32.9259992  30.6059978  98.4310014  34.0129992  29.8519978  98.1690014
  34.5239992  29.0319978  98.9200014  34.4109992  30.1289978  96.7420014
  34.3679992  29.2009978  96.1330014  35.4899992  30.3769978  96.8260014
  33.6619992  31.3379978  96.0970014  33.6829992  32.1019978  96.9040014
  32.6439992  30.8919978  96.0770014  34.3719992  31.9629978  94.8680014
  35.4759992  31.9329978  94.9900014  34.1299992  33.0469978  94.8970014
  34.0989992  31.2109978  93.5530014  34.7209992  30.2989978  93.6790014
  34.5049992  31.7259978  92.6550014  32.5869992  30.9779978  93.2990014
  32.2049992  32.0149978  93.1870014  31.9369992  30.4429978  94.0240014
  32.1949992  30.3699978  91.9990014  31.1039992  30.1599978  92.0060014
  32.6829992  29.3739978  92.0600014  32.4519992  31.1279978  90.7000014
  33.5379992  31.3609978  90.7200014  31.9099992  32.0979978  90.6800014
  32.0789992  30.1669978  89.6120014  32.8999992  29.5079978  89.2940014
  30.9189992  30.2519978  88.9330014  30.7069992  29.5759978  88.0910014
  29.8519992  31.3189978  89.0630014  29.4469992  31.4589978  90.0880014
  28.9819992  31.0499978  88.4250014  30.2029992  32.7679978  88.6350014
  31.0819992  33.0409978  89.2580014  29.3489992  33.3809978  88.9940014
  30.3269992  33.0609978  87.1810014  30.7559992  34.0759978  87.0370014
  29.2969992  33.1559978  86.7750014  31.3319992  32.2429978  86.3380014
  30.9069992  31.2419978  86.1090014  32.2189992  32.0479978  86.9770014
  31.8689992  32.7489978  85.0320014  32.4479992  31.9239978  84.5630014
  32.5509992  33.6149978  85.1700014  30.8289992  33.0789978  83.9350014
  30.2009992  33.8879978  84.3650014  30.1169992  32.2319978  83.8270014
  31.4369992  33.4929978  82.5990014  32.0929992  32.7409978  82.1090014
  32.1569992  34.3299978  82.7170014  30.3319992  33.8559978  81.6320014
  30.7319992  33.8709978  80.5960014  29.8449992  34.7949978  81.9730014
  29.4909992  33.1359978  81.7310014  19.6129992  68.3259978  82.8910014
  19.1849992  69.0159978  82.1330014  19.1819992  67.3159978  82.7210014
  20.6999992  68.1999978  82.6960014  19.3949992  68.9739978  84.2500014
  20.2849992  69.5279978  84.6180014  18.5969992  69.6949978  83.9720014
  18.8379992  68.0459978  85.3320014  17.9919992  67.3839978  85.0490014
  19.6879992  67.4029978  85.6460014  18.4469992  68.8089978  86.6120014
  19.0589992  69.7279978  86.7330014  17.3439992  68.9239978  86.5510014
  18.7179992  67.9369978  87.8070014  19.7659992  67.5689978  87.8010014
  18.7279992  68.5019978  88.7640014  17.7279992  66.7369978  87.9860014
  16.7609992  67.0159978  87.5150014  18.0309992  65.8359978  87.4100014
  17.5969992  66.2199978  89.4160014  17.3539992  67.1139978  90.0300014
  16.6329992  65.6779978  89.5180014  18.8119992  65.3839978  89.8800014
  18.8999992  64.5689978  89.1300014  19.6969992  66.0559978  89.8360014
  18.4389992  64.7299978  91.2170014  17.4729992  64.2059978  91.0530014
  19.1009992  63.8589978  91.4070014  18.2179992  65.7299978  92.3180014
  19.0999992  66.4049978  92.3180014  17.3489992  66.4009978  92.1510014
  17.8529992  65.1619978  93.6860014  17.4959992  65.9969978  94.3260014
  16.9479992  64.5489978  93.4870014  18.9019992  64.2519978  94.4560014
  18.3739992  63.3979978  94.9300014  19.5369992  63.8109978  93.6580014
  19.6919992  65.0399978  95.5170014  18.9789992  65.3799978  96.2990014
  20.6259992  64.5199978  95.8190014  20.3599992  66.3989978  95.0560014
  21.0799992  66.1589978  94.2450014  19.4729992  66.9899978  94.7420014
  21.0929992  67.2209978  96.1730014  21.2889992  66.4459978  96.9440014
  21.9879992  67.8409978  95.9530014  20.0629992  68.0829978  96.8760014
  19.2959992  68.8619978  96.4310014  20.2679992  67.9489978  98.2390014
  19.4269992  68.7239978  99.1090014  20.0649992  69.3449978  99.7740014
  18.7899992  69.4739978  98.5930014  18.4749992  67.8509978 100.0520014
  17.9059992  68.5099978 100.7420014  19.3019992  66.9069978 100.9790014
  20.1639992  66.4209978 100.4750014  19.7349992  67.5439978 101.7790014
  18.5199992  65.8619978 101.4190014  17.9849992  65.8519978 102.9170014
  16.6939992  65.0839978 102.9980014  15.4549992  65.5649978 102.4180014
  14.9139992  66.1689978 103.1770014  15.5689992  66.2009978 101.5140014
  14.5559992  64.3099978 102.1160014  14.3939992  63.7649978 103.0350014
  13.6479992  64.7219978 101.7020014  15.1139992  63.2599978 101.1660014
  16.1289992  62.4469978 101.8210014  16.6029992  61.7659978 101.1290014
  16.9689992  63.0689978 102.0950014  15.6359992  61.9399978 102.6370014
  14.0149992  62.4179978 100.5400014  13.3939992  63.0649978  99.9380014
  14.3739992  61.5829978  99.9580014  13.4029992  61.8979978 101.2620014
  15.8469992  64.0509978 100.0500014  16.7139992  64.4269978 100.5740014
  15.2959992  64.8719978  99.6170014  16.1579992  63.4759978  99.1900014
  18.9059992  65.0059978 103.7340014  17.7419992  67.2609978 103.3260014
  17.6449992  67.0239978  99.2170014  16.6899992  67.7649978  98.5770014
  16.4879992  68.9119978  98.7640014  16.0889992  67.0359978  97.4820014
  15.7639992  66.0899978  97.9660014  16.7409992  66.7809978  96.6190014
  14.8169992  67.7859978  96.8940014  14.0899992  68.0629978  97.6880014
  14.2429992  67.1929978  96.1500014  15.1169992  69.0749978  96.0740014
  15.5619992  69.9419978  96.6080014  14.1589992  69.5299978  95.7430014
  16.0179992  68.9309978  94.7850014  16.9849992  68.4809978  95.0950014
  16.1469992  69.9539978  94.3710014  15.4439992  67.9539978  93.7040014
  15.3809992  66.9439978  94.1630014  16.2149992  67.8549978  92.9100014
  14.1709992  68.3679978  93.0100014  14.4259992  69.1949978  92.3130014
  13.4549992  68.7009978  93.7920014  13.5539992  67.2159978  92.2320014
  14.3559992  66.8579978  91.5510014  12.7559992  67.4979978  91.5130014
  12.9669992  66.1819978  93.1560014  12.1749992  66.5949978  93.7990014
  13.2949992  64.8759978  93.2390014  12.7609992  64.3979978  94.0730014
  14.3629992  64.1589978  92.4470014  14.7509992  63.2909978  93.0210014
  15.2089992  64.7689978  92.0640014  13.6299992  63.5129978  91.2880014
  12.9699992  64.2699978  90.8120014  13.0349992  62.6769978  91.7130014
  14.6599992  62.9779978  90.2010014  15.4469992  62.3499978  90.6720014
  15.0519992  63.8959978  89.7130014  13.9539992  62.1659978  89.0620014
  12.9869992  62.6649978  88.8420014  13.7999992  61.1879978  89.5660014
  14.7939992  62.2789978  87.7750014  14.4369992  61.5019978  87.0660014
  15.8159992  61.8449978  87.7470014  14.8799992  63.6729978  87.1540014
  15.2479992  63.4219978  86.1360014  15.5559992  64.3189978  87.7530014
  13.5789992  64.2859978  86.7250014  13.2269992  64.7599978  87.6660014
  12.8319992  63.5349978  86.3910014  13.7139992  65.4389978  85.7650014
  14.3699992  66.2319978  86.1840014  12.6759992  65.8349978  85.7810014
  13.9549992  65.0939978  84.7370014 130.2179992  39.4639978  82.0500014
 129.3239992  38.8589978  82.3140014 130.3309992  39.7239978  80.9760014
 130.2029992  40.4619978  82.5370014 131.5969992  38.7989978  82.4330014
 131.6569992  37.9199978  81.7560014 132.4089992  39.5289978  82.2300014
 131.6259992  38.1479978  83.8500014 130.6999992  37.5849978  84.0920014
 132.4669992  37.4219978  83.8290014 131.9409992  39.1519978  84.9140014
 132.9569992  39.5649978  84.7390014 131.1119992  39.8869978  85.0000014
 132.0609992  38.6039978  86.3130014 131.0739992  38.2109978  86.6390014
 132.8019992  37.7809978  86.4000014 132.2839992  39.7129978  87.3540014
 133.2399992  40.1519978  86.9970014 131.5999992  40.5639978  87.1460014
 132.3469992  39.2609978  88.7820014 133.2099992  38.5699978  88.8910014
 132.6479992  40.2009978  89.2910014 131.1279992  38.5859978  89.3570014
 130.8369992  37.8239978  88.6030014 131.2129992  37.9489978  90.2630014
 130.0059992  39.5979978  89.4180014 130.5179992  40.2999978  90.1100014
 129.9009992  40.0899978  88.4270014 128.6759992  39.1379978  89.8810014
 128.3739992  38.1789978  89.4100014 128.6769992  38.9849978  90.9820014
 127.5639992  40.1189978  89.4990014 128.0329992  41.0689978  89.1660014
 127.1359992  39.6169978  88.6050014 126.5699992  40.4889978  90.5480014
 125.7879992  41.1149978  90.0650014 126.2199992  39.4519978  90.7380014
 127.1859992  41.2749978  91.7300014 128.2969992  41.2899978  91.7050014
 126.8409992  42.3219978  91.5930014 126.6079992  40.7379978  93.0790014
 125.4979992  40.7259978  93.0350014 126.9419992  39.6889978  93.2310014
 127.0259992  41.4479978  94.3690014 128.1199992  41.6269978  94.4450014
 126.7879992  42.5279978  94.2670014 126.3419992  40.9869978  95.6380014
 125.4149992  40.1719978  95.7310014 126.9809992  41.5589978  96.6460014
 126.7739992  40.8149978  97.8680014 126.9339992  41.6059978  98.6310014
 125.7239992  40.4869978  98.0170014 127.8349992  39.7389978  98.0140014
 127.7429992  39.0149978  97.1760014 127.6409992  38.8989978  99.3760014
 126.6399992  38.4499978  99.5490014 128.3259992  38.0299978  99.2720014
 128.0049992  39.7599978 100.4580014 128.4569992  39.2319978 101.8780014
 130.0249992  39.1829978 101.7040014 130.9749992  39.3239978 102.8630014
 130.7189992  38.7499978 103.7790014 131.9589992  38.9419978 102.5190014
 131.2449992  40.8209978 103.1890014 130.3889992  41.2989978 103.6420014
 132.0239992  40.8699978 103.9350014 131.7299992  41.8629978 102.0940014
 130.5939992  42.0529978 101.1330014 130.3709992  41.2019978 100.5060014
 129.6719992  42.3659978 101.6000014 130.8469992  42.8859978 100.4940014
 131.9969992  43.1599978 102.8040014 132.8849992  43.0309978 103.4060014
 132.0799992  43.9359978 102.0580014 131.2619992  43.3929978 103.5600014
 132.9839992  41.3789978 101.3400014 133.6629992  41.0729978 102.1230014
 133.3509992  42.1919978 100.7320014 132.7539992  40.4829978 100.7820014
 128.0699992  40.2079978 102.9690014 128.0649992  37.8809978 102.0720014
 129.1139992  40.3409978  97.8150014 130.0699992  39.4829978  97.5870014
 129.9969992  38.3109978  97.4300014 131.3699992  40.2549978  97.4430014
 132.2759992  39.6389978  97.6270014 131.4369992  41.1059978  98.1540014
 131.4119992  40.7579978  95.9620014 130.5309992  41.4269978  95.8560014
 131.3559992  39.9079978  95.2480014 132.6849992  41.5779978  95.8070014
 133.4489992  40.7909978  95.9820014 132.7189992  42.3589978  96.5960014
 132.8949992  42.1309978  94.4090014 132.6739992  41.3189978  93.6840014
 133.9639992  42.3589978  94.2080014 132.1449992  43.3629978  94.0290014
 132.4589992  44.2589978  94.6060014 131.0409992  43.2639978  94.1080014
 132.3669992  43.7359978  92.5570014 133.4469992  43.6939978  92.2980014
 132.0569992  44.7849978  92.3610014 131.6409992  42.8739978  91.5280014
 131.7629992  41.8229978  91.8660014 132.0449992  42.8199978  90.4950014
 130.1829992  43.3069978  91.4840014 129.5829992  42.8919978  92.3070014
 129.6589992  44.1319978  90.5980014 128.6119992  44.4589978  90.6850014
 130.3529992  44.7969978  89.5000014 131.4379992  44.9569978  89.6790014
 129.9579992  45.8259978  89.3620014 130.1079992  44.0749978  88.1650014
 130.6159992  43.0949978  88.0410014 130.4529992  44.7649978  87.3650014
 128.5739992  43.7429978  87.8040014 128.1449992  44.7529978  87.6240014
 128.1159992  43.2689978  88.6980014 128.4209992  42.8739978  86.5420014
 129.2269992  42.1139978  86.6210014 128.6639992  43.5169978  85.6690014
 126.9729992  42.4219978  86.5210014 126.2539992  43.2689978  86.5270014
 126.6819992  41.7169978  87.3280014 126.6579992  41.8569978  85.0830014
 127.4119992  41.0709978  84.8640014 126.8429992  42.6729978  84.3520014
 125.1779992  41.3959978  85.0100014 124.7119992  41.3489978  84.0030014
 124.5239992  42.0929978  85.5780014 124.9689992  40.0459978  85.7300014
 125.7159992  39.3419978  85.3040014 123.9849992  39.5719978  85.5240014
 125.1139992  40.0719978  86.8310014  42.5879992  22.8529978  84.7560014
  42.5169992  23.8719978  84.3190014  41.7739992  22.7229978  85.5010014
  42.2969992  22.2389978  83.8770014  44.0449992  22.6959978  85.1960014
  44.2559992  21.6629978  85.5460014  44.6669992  22.9619978  84.3150014
  44.5449992  23.5799978  86.3250014  45.6289992  23.3569978  86.4190014
  44.4579992  24.6389978  86.0020014  43.8029992  23.3739978  87.6770014
  44.2229992  24.1669978  88.3310014  42.7499992  23.6379978  87.4430014
  43.8979992  21.9949978  88.3580014  43.7099992  21.2429978  87.5620014
  44.9729992  21.9029978  88.6200014  43.0789992  21.8749978  89.6310014
  43.4039992  22.6669978  90.3380014  41.9779992  21.8149978  89.4910014
  43.4919992  20.5779978  90.4370014  42.6429992  19.9769978  90.8270014
  43.9449992  19.9459978  89.6430014  44.7069992  20.7429978  91.3820014
  45.2739992  19.7879978  91.3520014  45.3699992  21.5329978  90.9690014
  44.4499992  21.0099978  92.9390014  43.4239992  21.4309978  93.0070014
  44.3519992  20.0639978  93.5130014  45.6009992  21.9049978  93.5340014
  46.6409992  21.5219978  93.4690014  45.5979992  22.8159978  92.8970014
  45.3029992  22.1659978  94.9590014  44.2199992  22.1639978  95.2050014
  45.8009992  21.4099978  95.6040014  45.8729992  23.5129978  95.4520014
  46.9789992  23.4779978  95.3510014  45.5299992  24.1969978  94.6470014
  45.4339992  24.0239978  96.8030014  45.9489992  23.4749978  97.6200014
  45.8009992  25.0719978  96.8340014  43.9469992  24.0039978  97.1900014
  43.3259992  24.4289978  96.3720014  43.5579992  22.9649978  97.2620014
  43.5379992  24.5489978  98.6250014  44.3059992  24.3239978  99.3960014
  43.3239992  25.6369978  98.5580014  42.1969992  23.9479978  99.0790014
  41.0749992  24.3919978  98.8410014  42.4829992  22.8399978  99.6530014
  41.4399992  21.8359978  99.6520014  40.5099992  22.2369978 100.1080014
  41.1939992  21.5719978  98.6010014  41.6999992  20.4669978 100.3240014
  40.7059992  19.9739978 100.3920014  42.0909992  20.6709978 101.8230014
  41.4109992  21.4359978 102.2550014  41.9639992  19.6539978 102.2520014
  43.4779992  21.1069978 101.9260014  44.1649992  21.0619978 103.3960014
  45.6159992  21.7019978 103.2810014  45.7809992  22.8739978 102.5470014
  44.9999992  23.6569978 102.6540014  46.7519992  23.3209978 102.8500014
  46.0389992  22.5129978 101.0330014  45.0969992  22.2069978 100.6040014
  46.3909992  23.4269978 100.5760014  47.0709992  21.4449978 100.6410014
  46.4989992  20.0379978 100.9710014  45.6669992  19.8989978 100.2970014
  47.2099992  19.2269978 100.9270014  46.0849992  20.0269978 101.9690014
  47.2669992  21.3379978  99.1580014  47.9509992  20.5169978  99.0000014
  46.3249992  21.1429978  98.6670014  47.5919992  22.3019978  98.7950014
  48.3709992  21.6919978 101.4090014  48.8329992  22.5989978 101.0490014
  49.1329992  20.9429978 101.2470014  48.0369992  21.6219978 102.4330014
  43.4019992  21.8479978 104.3820014  44.2529992  19.6149978 103.7620014
  42.6389992  19.7619978  99.5430014  42.8629992  18.5129978  99.7380014
  42.2639992  17.7339978 100.4500014  43.9969992  18.0269978  98.7800014
  44.3289992  17.0319978  99.1440014  44.8419992  18.7319978  98.9380014
  43.6349992  17.7159978  97.3090014  43.0149992  18.5669978  96.9570014
  42.9559992  16.8379978  97.2550014  44.8089992  17.4449978  96.3700014
  45.5419992  16.8429978  96.9490014  45.4049992  18.3499978  96.1250014
  44.3309992  16.5659978  95.1600014  43.7879992  15.6849978  95.5640014
  45.2529992  16.1559978  94.6940014  43.4929992  17.3009978  94.1750014
  43.9879992  18.2399978  93.8480014  42.4819992  17.5569978  94.5600014
  43.2999992  16.3719978  92.9710014  42.3959992  16.6789978  92.4030014
  43.2509992  15.3369978  93.3720014  44.5469992  16.4479978  92.0390014
  45.4029992  16.2859978  92.7290014  44.6849992  17.4519978  91.5840014
  44.7029992  15.3879978  90.9040014  45.3659992  14.5229978  91.0550014
  44.1319992  15.3639978  89.7220014  44.4419992  14.5249978  89.0800014
  43.2429992  16.3639978  89.1240014  42.9689992  17.1659978  89.8430014
  42.2739992  15.8519978  88.9400014  43.8569992  17.0489978  87.9020014
  44.2569992  16.2679978  87.2210014  44.4909992  17.9249978  88.1580014
  42.7279992  17.8699978  87.1710014  42.2089992  18.5919978  87.8370014
  41.9889992  17.1449978  86.7670014  43.2279992  18.7969978  85.9600014
  43.9459992  19.4899978  86.4470014  42.4289992  19.4869978  85.6140014
  43.8379992  18.0919978  84.7730014  43.0139992  17.8339978  84.0740014
  44.2529992  17.1119978  85.0910014  44.8989992  18.8949978  84.1470014
  45.7219992  19.0229978  84.8820014  44.6039992  19.9239978  83.8500014
  45.5229992  18.1359978  82.9580014  45.9699992  17.1519978  83.2160014
  46.4409992  18.7069978  82.7030014  44.6469992  18.0259978  81.7290014
  45.2629992  17.7709978  80.8400014  44.1899992  18.9799978  81.3890014
  43.8089992  17.3119978  81.8790014  27.6229992 117.9319978  81.0030014
  27.1419992 118.9209978  80.8420014  27.3699992 117.6799978  82.0550014
  27.0579992 117.2509978  80.3310014  29.2139992 118.0999978  80.8730014
  29.5899992 117.0929978  81.1550014  29.4569992 118.4359978  79.8430014
  29.8289992 119.0989978  81.9590014  30.9219992 119.2249978  81.8010014
  29.3769992 120.0929978  81.7540014  29.6849992 118.8219978  83.4120014
  30.0169992 119.7169978  83.9810014  28.5859992 118.9139978  83.5470014
  30.2609992 117.5519978  83.9610014  29.4899992 116.7749978  84.1510014
  30.8769992 117.1489978  83.1290014  31.0459992 117.9239978  85.2220014
  31.6239992 117.0069978  85.4660014  31.7719992 118.7219978  84.9590014
  30.1009992 118.2759978  86.3980014  29.4659992 119.1349978  86.0930014
  29.4039992 117.4409978  86.6240014  30.9069992 118.8099978  87.5490014
  31.2849992 119.8169978  87.2720014  30.3319992 118.9569978  88.4880014
  32.1159992 118.0529978  88.1330014  32.9079992 117.9779978  87.3580014
  32.5799992 118.7099978  88.9000014  31.8749992 116.5879978  88.5590014
  31.6529992 115.9469978  87.6790014  32.7969992 116.2229978  89.0590014
  30.8619992 116.3859978  89.6030014  29.8489992 116.5989978  89.2010014
  30.9019992 115.3209978  89.9170014  31.0409992 117.2169978  90.9360014
  31.0339992 118.3169978  90.7800014  30.0919992 117.0849978  91.4970014
  32.0099992 116.7189978  91.8950014  31.7759992 115.7019978  92.2740014
  33.0119992 116.7019978  91.4150014  32.0949992 117.5709978  93.2180014
  32.9769992 117.2699978  93.8230014  32.0639992 118.6579978  92.9910014
  30.8759992 117.3169978  94.2260014  29.8899992 117.5279978  93.7590014
  30.9209992 116.2159978  94.3640014  31.2409992 118.0849978  95.5260014
  32.0439992 118.9719978  95.6070014  30.6049992 117.5209978  96.5040014
  30.7869992 118.1839978  97.8310014  30.9729992 117.4099978  98.6060014
  31.6979992 118.8189978  97.8580014  29.4629992 118.9509978  98.2630014
  29.3269992 119.6239978  97.3890014  29.6279992 119.8239978  99.5600014
  30.4039992 120.5319978  99.1980014  28.7049992 120.4249978  99.7100014
  30.1119992 119.0899978 100.6740014  29.1649992 119.0569978 102.0000014
  28.0899992 118.0949978 101.4710014  26.9389992 117.9269978 102.3340014
  27.1679992 117.8929978 103.4210014  26.2689992 118.8109978 102.2670014
  26.0639992 116.6849978 102.0410014  25.1229992 116.7669978 102.5630014
  25.7899992 116.8039978 101.0030014  26.5909992 115.2439978 102.1610014
  28.0939992 115.3319978 101.9000014  28.5079992 115.8439978 101.0450014
  28.4489992 115.9179978 102.7340014  28.5179992 114.3419978 101.8200014
  26.3879992 114.6109978 103.4820014  26.6389992 113.5729978 103.3230014
  27.0359992 114.8049978 104.3230014  25.3359992 114.6219978 103.7270014
  25.9139992 114.3499978 101.1340014  25.8149992 114.9559978 100.2450014
  24.9649992 114.0189978 101.5300014  26.5569992 113.5299978 100.8490014
  29.8999992 118.3529978 103.0430014  28.5219992 120.3049978 102.2660014
  28.4119992 117.9819978  98.3360014  27.2449992 118.3889978  97.9300014
  26.9099992 119.4519978  97.4410014  26.2569992 117.1949978  97.9950014
  25.4179992 117.6059978  98.5950014  26.5519992 116.2979978  98.5810014
  25.7769992 116.6419978  96.7180014  25.6569992 117.4649978  95.9820014
  24.7519992 116.2269978  96.8200014  26.6699992 115.5099978  96.2150014
  26.0579992 114.6279978  96.5020014  27.7399992 115.3849978  96.4880014
  26.6929992 115.3739978  94.7040014  25.6599992 115.1749978  94.3440014
  27.3769992 114.5519978  94.4040014  27.2399992 116.6119978  93.9560014
  28.1069992 117.0889978  94.4610014  26.5339992 117.4659978  93.8680014
  27.5009992 116.4469978  92.4410014  28.1899992 115.5769978  92.3930014
  28.1259992 117.2719978  92.0360014  26.2079992 116.3449978  91.5790014
  25.5189992 115.5359978  91.9030014  26.5109992 115.9499978  90.5860014
  25.4709992 117.6159978  91.4440014  24.5399992 117.7559978  92.0130014
  25.7839992 118.5829978  90.5730014  25.0529992 119.3969978  90.4580014
  26.9779992 118.5749978  89.5810014  27.5479992 117.6429978  89.7830014
  27.7159992 119.3939978  89.7190014  26.6519992 118.4249978  88.0680014
  27.5639992 118.5049978  87.4400014  26.1709992 119.3959978  87.8220014
  25.8589992 117.0979978  87.6170014  24.8469992 117.3169978  88.0190014
  26.2069992 116.2539978  88.2510014  25.8759992 116.8459978  86.1530014
  26.9269992 116.5269978  85.9910014  25.7089992 117.6759978  85.4330014
  24.9919992 115.6629978  85.6590014  23.9089992 115.9099978  85.6300014
  25.1809992 114.8309978  86.3710014  25.4189992 115.0639978  84.3480014
  24.6519992 114.3279978  84.0250014  26.3419992 114.4579978  84.4670014
  25.5879992 116.0159978  83.1990014  26.0639992 115.4139978  82.3950014
  26.3209992 116.7429978  83.6080014  24.2789992 116.7339978  82.6520014
  23.4879992 115.9839978  82.4350014  24.5229992 117.3089978  81.7330014
  23.9459992 117.4949978  83.3890014  15.1729992  76.2839978  83.2950014
  15.8319992  77.0689978  83.7240014  14.2599992  76.9089978  83.1980014
  15.4449992  75.9779978  82.2620014  15.2019992  75.0339978  84.1770014
  14.5259992  74.2959978  83.6930014  16.2059992  74.5619978  84.1210014
  14.9949992  75.1899978  85.7150014  15.4719992  76.1119978  86.1080014
  13.9079992  75.2739978  85.9260014  15.5769992  74.0119978  86.5140014
  15.2039992  73.0249978  86.1680014  16.6809992  73.8969978  86.4810014
  15.3669992  74.0479978  88.0360014  14.2809992  74.2259978  88.1890014
  15.5799992  73.0889978  88.5540014  16.2929992  75.0129978  88.7630014
  17.3549992  74.7489978  88.5700014  16.1499992  76.0439978  88.3730014
  16.0939992  74.9499978  90.3390014  16.3509992  73.9339978  90.7090014
  16.6899992  75.6019978  91.0130014  14.6519992  75.3029978  90.6800014
  14.4719992  76.3249978  90.2840014  13.9019992  74.5549978  90.3460014
  14.4309992  75.6319978  92.1260014  15.1709992  76.4269978  92.3580014
  13.4239992  76.0999978  92.1740014  14.6059992  74.4979978  93.0880014
  14.2099992  73.5159978  92.7530014  15.7119992  74.4559978  93.1860014
  13.9669992  74.7659978  94.4680014  14.5009992  75.5789978  95.0050014
  12.9179992  75.1039978  94.3260014  13.9099992  73.5819978  95.4550014
  13.4599992  72.6129978  95.1520014  14.9339992  73.2429978  95.7230014
  13.2509992  73.8269978  96.8130014  13.5179992  73.0509978  97.5610014
  13.5189992  74.8229978  97.2270014  11.7469992  73.6999978  96.7150014
  11.5579992  74.4599978  95.9270014  11.3139992  72.7329978  96.3800014
  11.1389992  74.4109978  97.9310014  11.9619992  74.2899978  98.6680014
  10.9139992  75.4689978  97.6810014   9.9759992  73.6939978  98.4510014
   9.0749992  73.2159978  97.7900014  10.1139992  73.6899978  99.7700014
   9.3309992  72.7789978 100.5460014   8.5119992  73.4109978 100.9510014
   8.8469992  72.0789978  99.8320014  10.2289992  72.1109978 101.5920014
   9.7279992  71.3089978 102.1740014  10.7209992  73.1009978 102.6190014
  11.1799992  73.9439978 102.0580014   9.8519992  73.5339978 103.1580014
  11.7049992  72.4049978 103.5050014  13.1759992  72.8599978 103.6930014
  13.7579992  73.3909978 102.3110014  14.1819992  72.4359978 101.3740014
  13.7589992  71.4309978 101.5890014  13.6389992  72.6479978 100.4280014
  15.6539992  72.3489978 101.1580014  16.1489992  72.1669978 102.1010014
  15.8229992  71.4119978 100.6480014  16.4229992  73.5329978 100.6030014
  16.3699992  74.6899978 101.4990014  16.8509992  75.5629978 101.0820014
  15.3419992  74.9669978 101.6810014  16.8709992  74.3749978 102.4020014
  17.8789992  73.0419978 100.3350014  17.7249992  72.0289978  99.9930014
  18.2639992  73.6079978  99.5000014  18.4039992  73.1709978 101.2700014
  15.9489992  73.8289978  99.1510014  15.9229992  72.8759978  98.6440014
  16.6779992  74.4599978  98.6660014  15.0329992  74.4009978  99.1380014
  13.2539992  73.9609978 104.7420014  13.8649992  71.6209978 104.1330014
  11.3089992  71.4659978 100.9010014  11.0049992  70.5229978 100.0730014
   9.9039992  69.9819978 100.0440014  12.1899992  70.1019978  99.2780014
  12.6559992  69.3019978  99.8920014  12.9919992  70.8709978  99.2480014
  11.8399992  69.4829978  97.9300014  11.4059992  70.2719978  97.2790014
  11.0779992  68.7389978  98.2460014  12.9459992  68.6979978  97.2060014
  13.3539992  67.9099978  97.8740014  13.7479992  69.4579978  97.0900014
  12.4529992  68.1589978  95.8620014  11.4619992  67.6939978  96.0510014
  13.2239992  67.3969978  95.6180014  12.3079992  69.3179978  94.8420014
  13.2409992  69.9159978  94.7590014  11.5359992  70.0209978  95.2220014
  11.9479992  68.9089978  93.4290014  11.1329992  68.1559978  93.4830014
  12.9169992  68.4909978  93.0800014  11.6659992  69.9569978  92.3320014
  11.8769992  69.4179978  91.3830014  12.3039992  70.8669978  92.3160014
  10.1629992  70.2509978  92.3500014   9.8599992  70.9709978  93.1250014
   9.3259992  69.7899978  91.4200014   8.3059992  70.1949978  91.3490014
   9.7839992  68.8989978  90.2670014   8.8849992  68.3439978  89.9230014
  10.4459992  68.0439978  90.5230014  10.3829992  69.4909978  88.9740014
  10.3019992  68.6279978  88.2800014  11.4919992  69.5229978  89.0400014
   9.6619992  70.7289978  88.4650014  10.0279992  71.5869978  89.0690014
   8.5609992  70.6749978  88.6040014   9.8339992  71.0369978  86.9060014
   9.1009992  71.8639978  86.7840014   9.4719992  70.1939978  86.2800014
  11.2129992  71.5779978  86.5290014  11.8789992  70.6899978  86.5700014
  11.5259992  72.4089978  87.1980014  11.2969992  72.0899978  85.0670014
  10.9049992  71.2159978  84.5040014  12.3499992  72.2459978  84.7510014
  10.4979992  73.3479978  84.8250014  10.8419992  74.1799978  85.4750014
   9.4419992  73.0529978  85.0040014  10.5909992  73.7929978  83.3300014
   9.8579992  74.6279978  83.3200014  10.3079992  72.9679978  82.6410014
  11.5239992  74.2539978  82.9410014  22.1829992  44.0549978  85.7720014
  22.9309992  43.2669978  85.5420014  21.6929992  44.5729978  84.9200014
  21.5109992  43.6129978  86.5400014  23.0269992  45.1999978  86.3740014
  23.6559992  45.5949978  85.5480014  22.3339992  46.0279978  86.6350014
  23.8899992  44.7519978  87.5690014  24.0029992  43.6499978  87.6480014
  24.9319992  45.1329978  87.6310014  23.2459992  45.2679978  88.8980014
  22.9699992  46.3439978  88.8820014  22.2969992  44.6909978  88.9250014
  24.1499992  45.1429978  90.1350014  24.4419992  44.1259978  90.4730014
  25.1289992  45.5169978  89.7650014  23.6229992  45.9499978  91.3130014
  23.3549992  46.9679978  90.9590014  22.7159992  45.3789978  91.6060014
  24.5379992  45.8669978  92.5250014  25.4239992  46.5169978  92.3560014
  24.0989992  46.4499978  93.3620014  24.8289992  44.3879978  92.9850014
  23.7899992  44.0179978  93.1260014  25.3019992  43.8319978  92.1470014
  25.8029992  44.1519978  94.1730014  25.8089992  43.0529978  94.3370014
  26.7859992  44.3509978  93.6940014  25.4459992  44.8659978  95.4820014
  26.2879992  44.8089978  96.2050014  25.3329992  45.9389978  95.2160014
  24.1379992  44.3049978  96.2770014  23.2379992  44.3399978  95.6270014
  24.4389992  43.2719978  96.5550014  23.5909992  45.1709978  97.4100014
  24.2559992  44.9879978  98.2810014  23.8299992  46.2069978  97.0850014
  22.0569992  45.0919978  97.6050014  21.8999992  45.9169978  98.3330014
  21.5329992  45.4009978  96.6750014  21.5079992  43.8449978  98.2700014
  22.2859992  43.4369978  98.9500014  20.5839992  43.9869978  98.8710014
  21.0689992  42.7869978  97.2390014  20.2109992  43.2149978  96.6760014
  21.9509992  42.6029978  96.5890014  20.6259992  41.4449978  97.8540014
  19.6529992  40.7769978  97.5420014  21.4059992  41.2429978  98.8960014
  21.1449992  40.1619978  99.7560014  20.3199992  40.4879978 100.4250014
  20.8959992  39.2799978  99.1270014  22.5889992  39.7659978 100.3890014
  22.5599992  38.7609978 100.8600014  23.1439992  40.7019978 101.4450014
  22.3389992  40.9349978 102.1740014  23.8489992  40.1249978 102.0810014
  23.6209992  41.8979978 100.9200014  25.2219992  42.2309978 101.0670014
  25.1059992  43.5869978 101.8750014  24.4309992  43.5699978 103.1320014
  23.3599992  43.3739978 102.9130014  24.9739992  42.8649978 103.7970014
  24.3449992  44.9749978 103.7230014  23.7629992  45.0579978 104.6280014
  25.3249992  45.2899978 104.0500014  23.7279992  46.0539978 102.7450014
  22.3799992  45.5979978 102.3540014  21.7459992  45.3299978 103.1860014
  21.8919992  46.4109978 101.8380014  22.3819992  44.7719978 101.6580014
  23.5629992  47.4069978 103.4980014  24.5909992  47.6059978 103.7610014
  23.0849992  48.1869978 102.9230014  22.9449992  47.1629978 104.3490014
  24.6019992  46.3429978 101.5370014  24.4019992  45.5459978 100.8350014
  25.5799992  46.4329978 101.9850014  24.1609992  47.2619978 101.1790014
  25.9289992  41.2199978 101.9170014  25.7709992  42.4789978  99.7380014
  23.5279992  39.6759978  99.3190014  23.4819992  38.6589978  98.4590014
  22.6219992  37.8009978  98.5050014  24.5189992  38.9619978  97.3500014
  25.1689992  38.0729978  97.2040014  25.1889992  39.7879978  97.6730014
  23.7419992  39.3269978  95.9970014  22.9269992  40.0249978  96.2860014
  23.3729992  38.4129978  95.4830014  24.6349992  40.1899978  95.1050014
  25.3569992  39.5239978  94.5860014  25.1779992  40.9739978  95.6730014
  23.8819992  40.9059978  93.9530014  24.6229992  41.4379978  93.3180014
  23.4089992  41.6969978  94.5730014  22.9429992  40.0139978  93.0630014
  22.4909992  40.6139978  92.2450014  22.1949992  39.6549978  93.8020014
  23.6969992  38.9849978  92.2070014  22.9349992  38.3229978  91.7440014
  24.4089992  38.3229978  92.7450014  24.6229992  39.6099978  91.0410014
  25.2439992  38.7699978  90.6640014  25.4089992  40.2669978  91.4690014
  23.7639992  40.2789978  89.8770014  23.5369992  41.3449978  90.0250014
  23.2669992  39.7129978  88.7970014  22.7009992  40.3809978  88.1300014
  23.3129992  38.2599978  88.4960014  23.8849992  37.8339978  89.3480014
  23.8939992  38.0459978  87.5740014  22.0339992  37.4429978  88.4880014
  21.5189992  37.5439978  89.4670014  22.2409992  36.3749978  88.2630014
  20.9639992  37.9009978  87.4860014  20.8149992  38.9729978  87.7370014
  20.1209992  37.3049978  87.8980014  21.2839992  37.6319978  86.0010014
  21.5379992  36.5589978  85.8690014  22.1259992  38.2209978  85.5790014
  20.0159992  37.9059978  85.2670014  19.2359992  38.3219978  85.9400014
  19.5809992  36.9869978  84.8180014  20.1379992  38.6529978  83.9140014
  20.9909992  38.1879978  83.3760014  20.3699992  39.6969978  84.2150014
  18.9069992  38.5519978  83.0290014  17.9789992  38.9059978  83.5270014
  18.6099992  37.5059978  82.7970014  19.1319992  39.3269978  81.7260014
  19.5839992  40.3249978  81.9060014  18.1719992  39.5279978  81.2040014
  19.7349992  38.6539978  81.0800014 134.5869992  52.3469978  84.8540014
 134.1109992  52.7529978  83.9350014 133.7449992  51.9199978  85.4390014
 135.2979992  51.5039978  84.7230014 135.2089992  53.5019978  85.6060014
 135.5889992  53.0979978  86.5680014 136.0909992  53.8049978  85.0010014
 134.2929992  54.8099978  85.9350014 135.0109992  55.6079978  86.2220014
 133.8059992  55.0179978  84.9580014 133.2509992  54.5699978  87.0480014
 132.3099992  55.1439978  86.9070014 132.8789992  53.5269978  86.9570014
 133.7249992  54.7519978  88.5470014 134.3759992  53.9039978  88.8480014
 134.3749992  55.6369978  88.7160014 132.5959992  54.8089978  89.5850014
 132.1399992  55.7949978  89.3510014 131.9649992  53.9369978  89.3090014
 133.0559992  54.3759978  90.9990014 133.0949992  53.2729978  91.1280014
 133.9859992  54.9599978  91.1680014 132.1649992  55.0269978  92.0390014
 132.1679992  56.1219978  91.8550014 131.0769992  54.7999978  92.0370014
 132.6569992  54.5569978  93.4380014 133.7539992  54.7359978  93.4370014
 132.1469992  55.2889978  94.0990014 132.3769992  53.1359978  93.8490014
 131.2709992  53.0559978  93.8990014 132.7369992  52.3859978  93.1120014
 132.5669992  52.8059978  95.3430014 133.5899992  53.1889978  95.5420014
 131.8989992  53.3879978  96.0130014 132.5409992  51.2759978  95.6080014
 131.5719992  50.9559978  95.1710014 133.3429992  50.7009978  95.0980014
 132.5159992  50.7759978  97.0740014 131.6289992  51.2469978  97.5500014
 132.3739992  49.6739978  97.0400014 133.7139992  51.2049978  97.8830014
 134.5379992  51.1969978  97.1380014 133.5899992  52.2509978  98.2350014
 134.0939992  50.2379978  98.9840014 133.2039992  50.0439978  99.6200014
 134.3599992  49.2269978  98.6080014 135.1729992  50.7649978  99.9730014
 135.1209992  50.8339978 101.1740014 136.2599992  51.1849978  99.2380014
 137.4569992  51.5409978  99.9440014 137.3759992  51.5269978 101.0520014
 138.3059992  50.9349978  99.5610014 137.9199992  52.9889978  99.7000014
 138.8749992  53.0839978 100.2610014 136.8029992  53.9879978 100.2690014
 136.7699992  53.9269978 101.3770014 137.1849992  55.0309978 100.2420014
 135.4729992  53.8609978  99.6950014 134.5909992  55.2109978  99.7450014
 134.4199992  55.4369978 101.2970014 133.6669992  54.4599978 102.1090014
 132.5689992  54.5779978 101.9860014 133.9219992  53.4069978 101.8670014
 134.0609992  54.7129978 103.6110014 133.5939992  53.9329978 104.1930014
 135.1219992  54.5119978 103.6330014 133.6969992  55.9759978 104.2240014
 134.1009992  56.0149978 105.6920014 133.7559992  55.1299978 106.2070014
 135.1699992  55.9629978 105.8370014 133.7299992  56.9089978 106.1700014
 134.3719992  57.0969978 103.6100014 134.1469992  56.9769978 102.5610014
 133.8869992  58.0039978 103.9400014 135.4439992  56.9729978 103.5530014
 132.2219992  56.1219978 104.2660014 131.7399992  56.0869978 103.3010014
 132.0739992  57.0759978 104.7510014 131.8669992  55.3369978 104.9170014
 135.3969992  56.2769978  99.0710014 133.2329992  54.9329978  99.1850014
 138.1309992  53.0889978  98.2930014 138.7609992  54.1909978  97.7970014
 139.0859992  55.1389978  98.4770014 139.1539992  53.9259978  96.2810014
 138.8399992  52.9089978  95.9630014 140.2539992  54.0549978  96.1950014
 138.6679992  55.0069978  95.3180014 139.0099992  54.6719978  94.3160014
 139.0139992  56.0009978  95.6740014 137.1749992  55.0569978  95.1270014
 137.0199992  55.8839978  94.4020014 136.6379992  55.3399978  96.0580014
 136.5749992  53.7569978  94.6840014 135.4749992  53.8509978  94.5530014
 136.7989992  52.9889978  95.4540014 136.9709992  53.2939978  93.2390014
 138.0139992  52.9739978  93.0290014 136.8569992  54.2129978  92.6250014
 135.9489992  52.2239978  92.6610014 134.8999992  52.5459978  92.8340014
 136.0789992  51.2989978  93.2610014 136.1309992  51.9619978  91.1500014
 135.6789992  52.7749978  90.5410014 135.4579992  51.1199978  90.8830014
 137.5229992  51.5809978  90.6710014 137.7249992  50.4999978  90.6950014
 138.4479992  52.4939978  90.2780014 139.3789992  52.0339978  89.9150014
 138.3089992  53.9729978  90.2040014 138.9649992  54.2769978  91.0470014
 137.2919992  54.3389978  90.4630014 138.7419992  54.5569978  88.8320014
 138.3849992  55.6079978  88.7900014 138.1249992  54.0679978  88.0480014
 140.1709992  54.2529978  88.3890014 140.3169992  53.1739978  88.1690014
 140.6739992  54.3709978  89.3730014 140.6639992  55.2549978  87.2530014
 141.7709992  55.2659978  87.1660014 140.5349992  56.2749978  87.6740014
 139.8819992  54.9929978  85.9570014 140.0939992  55.9149978  85.3740014
 138.8209992  55.0289978  86.2860014 140.1759992  53.5519978  85.3150014
 139.5889992  52.7019978  85.7230014 141.2349992  53.2679978  85.4950014
 140.1999992  53.7029978  83.7740014 140.8619992  54.5779978  83.5950014
 139.1789992  54.0389978  83.4940014 140.5949992  52.4799978  82.9040014
 141.5249992  51.9789978  83.2480014 140.8419992  52.9329978  81.9200014
 139.6899992  51.8489978  82.7780014  59.6799992  12.8539978  85.4410014
  59.0529992  12.4709978  84.6080014  60.7749992  12.6719978  85.3970014
  59.4599992  13.9419978  85.3860014  59.0319992  12.2569978  86.7830014
  59.1429992  13.0349978  87.5680014  57.9309992  12.1869978  86.6540014
  59.6909992  10.9449978  87.2280014  60.7689992  10.8229978  87.4660014
  59.0569992  10.5249978  88.0370014  59.5069992   9.9849978  86.1470014
  58.4249992   9.8579978  85.9300014  60.0639992  10.3969978  85.2790014
  60.0409992   8.5359978  86.3970014  59.7169992   7.8229978  85.6090014
  61.1369992   8.6579978  86.2610014  59.6019992   7.9249978  87.7800014
  60.0099992   6.8939978  87.7240014  60.0759992   8.5289978  88.5820014
  58.1179992   7.9629978  88.0750014  57.7449992   8.9999978  87.9370014
  57.6069992   7.3359978  87.3140014  57.8319992   7.4619978  89.4040014
  58.1739992   6.4059978  89.3520014  58.3739992   8.0129978  90.2030014
  56.3589992   7.4499978  89.6060014  56.0559992   8.5179978  89.5860014
  55.8039992   7.0709978  88.7210014  55.8039992   6.8999978  90.9360014
  54.7029992   6.9949978  90.8150014  56.0749992   5.8519978  91.1860014
  55.9729992   7.8539978  92.1660014  56.1639992   8.9319978  91.9760014
  54.9799992   7.8339978  92.6640014  56.9259992   7.2939978  93.1860014
  56.6789992   6.2229978  93.3440014  57.9589992   7.3879978  92.7880014
  56.9349992   8.1539978  94.4870014  56.8239992   9.2149978  94.1750014
  55.9589992   7.8399978  94.9150014  58.0549992   7.8239978  95.4820014
  57.8949992   6.7989978  95.8800014  59.0469992   7.7889978  94.9830014
  58.2289992   8.7469978  96.6640014  57.2519992   9.0169978  97.1200014
  58.8379992   8.2629978  97.4570014  58.9919992  10.1339978  96.4490014
  58.8899992  10.7919978  95.4340014  59.5099992  10.5179978  97.6250014
  60.1629992  11.7779978  97.7950014  61.0909992  11.5809978  98.3750014
  60.5689992  12.1749978  96.8410014  59.3389992  12.8869978  98.5450014
  60.0579992  13.6909978  98.8120014  58.7509992  12.4019978  99.9280014
  58.2019992  11.4529978  99.7440014  59.5709992  12.0759978 100.6020014
  57.8409992  13.2429978 100.5970014  57.1359992  12.8509978 101.9330014
  57.4709992  11.3139978 101.9530014  57.3329992  10.5659978 103.1690014
  58.2399992  10.7389978 103.7870014  56.4599992  10.7629978 103.8260014
  57.2539992   9.1259978 102.8310014  57.1399992   8.5849978 103.7590014
  56.4199992   9.0679978 102.1480014  58.3579992   8.5189978 101.9980014
  58.2299992   9.0549978 100.5390014  57.1859992   9.2069978 100.3080014
  58.8029992   9.9519978 100.3560014  58.7189992   8.2859978  99.9590014
  59.6629992   8.9219978 102.5700014  59.7279992   9.9909978 102.7100014
  59.7849992   8.5109978 103.5610014  60.4199992   8.5029978 101.9230014
  58.1739992   6.9279978 101.9830014  58.9909992   6.5789978 101.3700014
  57.2389992   6.6509978 101.5180014  58.3299992   6.6069978 103.0030014
  57.7609992  13.5009978 103.0900014  55.6769992  12.9419978 101.8420014
  58.2469992  13.3809978  97.7840014  57.6509992  14.5429978  98.0890014
  58.0569992  15.3379978  98.8980014  56.5719992  14.8839978  97.1140014
  56.0519992  15.7909978  97.4920014  55.7519992  14.1449978  97.2390014
  57.0059992  14.9199978  95.6820014  56.1019992  14.8939978  95.0360014
  57.3199992  13.8799978  95.4480014  58.0849992  15.9699978  95.1640014
  59.0479992  15.8899978  95.7120014  57.6379992  16.9779978  95.3050014
  58.3899992  15.7129978  93.6360014  57.5749992  16.1219978  93.0010014
  58.3309992  14.6169978  93.4670014  59.6559992  16.3319978  93.0970014
  60.5939992  16.0179978  93.6030014  59.6739992  17.4289978  93.2730014
  59.8079992  16.1689978  91.5390014  59.9129992  15.1059978  91.2320014
  60.8049992  16.4999978  91.1770014  58.6569992  16.7119978  90.6940014
  58.6429992  17.8069978  90.8810014  57.6849992  16.2799978  91.0140014
  58.8709992  16.5729978  89.1820014  59.7899992  17.0909978  88.8710014
  58.0789992  15.9799978  88.2830014  58.3029992  15.8479978  87.2140014
  56.7699992  15.3199978  88.6010014  56.3089992  15.7599978  89.5110014
  56.8709992  14.2469978  88.8720014  55.7329992  15.4039978  87.4890014
  55.7129992  16.4159978  87.0300014  54.7859992  14.9199978  87.8100014
  56.2039992  14.6699978  86.1880014  55.9919992  13.5889978  86.3290014
  57.3069992  14.6719978  86.0580014  55.6769992  15.2739978  84.9240014
  55.9189992  16.3549978  84.8460014  54.5669992  15.2479978  84.9080014
  56.3259992  14.6759978  83.7120014  56.0709992  13.5949978  83.6770014
  57.4309992  14.7369978  83.8100014  55.7819992  15.3459978  82.4030014
  56.0889992  16.4089978  82.2980014  54.6739992  15.4309978  82.4280014
  56.1849992  14.6219978  81.0310014  57.2919992  14.6889978  81.1110014
  55.9069992  15.1389978  80.0870014  55.8399992  13.1429978  80.9640014
  56.4529992  12.5589978  81.6840014  55.9589992  12.7559978  79.9300014
  54.8169992  12.9099978  81.3310014  32.5849992 121.2409978  84.9690014
  32.3569992 120.1949978  84.6700014  32.0809992 121.9249978  84.2530014
  32.2949992 121.3819978  86.0320014  34.0899992 121.5019978  84.8960014
  34.6119992 120.6309978  85.3460014  34.3179992 121.5389978  83.8090014
  34.5249992 122.8829978  85.4840014  35.3779992 123.2209978  84.8570014
  33.7679992 123.6819978  85.3350014  34.7959992 122.8619978  86.9500014
  33.9379992 122.3239978  87.4050014  35.6779992 122.2319978  87.1940014
  34.5949992 124.2259978  87.6700014  35.2639992 124.9869978  87.2150014
  33.5499992 124.5799978  87.5310014  35.0169992 124.2169978  89.1660014
  36.1009992 123.9779978  89.2060014  34.8879992 125.2729978  89.4880014
  34.1379992 123.3379978  90.0460014  34.1309992 122.3059978  89.6330014
  34.7579992 123.4389978  90.9620014  32.7889992 124.0109978  90.3990014
  32.8949992 124.9569978  90.9720014  32.1439992 124.1949978  89.5130014
  31.8819992 123.0659978  91.2800014  30.8279992 123.2919978  91.0110014
  31.8929992 122.0069978  90.9430014  31.9939992 123.3129978  92.8410014
  33.0679992 123.1149978  93.0470014  31.7009992 124.3539978  93.0960014
  31.0709992 122.4289978  93.7550014  29.9949992 122.6089978  93.5450014
  31.4179992 121.4609978  93.3340014  31.2999992 122.5989978  95.3560014
  31.3759992 123.6779978  95.6120014  30.3469992 122.2559978  95.8130014
  32.5419992 121.7179978  95.7700014  32.2369992 120.6919978  95.4710014
  33.4079992 122.0549978  95.1610014  32.7339992 121.6969978  97.2590014
  33.3659992 122.5079978  97.6780014  31.7379992 121.8279978  97.7350014
  33.1969992 120.3279978  97.8870014  32.9199992 120.4849978  98.9520014
  32.6129992 119.4949978  97.4400014  34.6709992 120.1669978  97.6940014
  35.2469992 119.7249978  96.7490014  35.2589992 120.6669978  98.7380014
  36.7159992 120.7119978  98.7530014  37.1369992 120.2559978  99.6750014
  37.1699992 120.2989978  97.8270014  37.1349992 122.2509978  98.8310014
  38.2449992 122.2819978  98.8310014  36.6789992 122.9219978 100.1360014
  36.9779992 122.3319978 101.0290014  37.2399992 123.8799978 100.1630014
  35.3399992 123.2699978 100.1950014  34.7179992 124.6149978 100.7610014
  34.1199992 124.1909978 102.1870014  34.8699992 123.6009978 103.2000014
  35.8229992 123.1899978 102.8040014  35.1539992 124.4149978 103.9000014
  34.0899992 122.4589978 103.8940014  34.7229992 122.1389978 104.7090014
  33.2099992 122.9189978 104.3180014  33.7109992 121.2749978 103.0320014
  34.9539992 120.6929978 102.3830014  35.6259992 120.5109978 103.2080014
  34.5109992 119.8829978 101.8220014  35.2909992 121.5299978 101.7900014
  33.1299992 120.2549978 103.9480014  32.1339992 120.4899978 104.2910014
  33.1049992 119.3739978 103.3240014  33.8549992 120.0139978 104.7120014
  32.7569992 121.7559978 102.0620014  32.9029992 122.7239978 101.6070014
  31.8039992 121.9999978 102.5080014  32.5179992 121.0679978 101.2640014
  35.9029992 125.5479978 100.9450014  33.5989992 125.0129978  99.8990014
  36.5949992 122.9339978  97.6900014  37.0389992 124.2039978  97.4010014
  37.9829992 124.7289978  97.8860014  35.9779992 124.8409978  96.5530014
  36.2899992 125.8439978  96.1910014  35.2079992 125.1079978  97.3090014
  35.3039992 124.1139978  95.4440014  34.5619992 124.7659978  94.9340014
  34.7839992 123.2119978  95.8340014  36.2239992 123.6089978  94.3100014
  35.6489992 123.1419978  93.4820014  36.8409992 122.8509978  94.8390014
  37.0629992 124.6879978  93.6190014  37.7039992 125.0939978  94.4300014
  36.4189992 125.5309978  93.2880014  37.9469992 124.0619978  92.4350014
  38.3249992 124.8669978  91.7690014  37.2699992 123.3779978  91.8800014
  39.1949992 123.1339978  92.8040014  38.7819992 122.4789978  93.6010014
  40.0709992 123.6619978  93.2380014  39.7659992 122.1939978  91.6830014
  40.3999992 121.3999978  92.1300014  40.5249992 122.7579978  91.1010014
  38.7259992 121.4469978  90.8870014  38.1899992 120.6419978  91.4130014
  38.3779992 121.8459978  89.6510014  37.5159992 121.3079978  89.2300014
  38.9749992 123.0169978  88.8880014  39.3069992 123.8239978  89.5750014
  38.1629992 123.4889978  88.2940014  40.1809992 122.6199978  88.1000014
  40.8539992 122.0619978  88.7860014  40.6839992 123.5619978  87.7930014
  39.7769992 121.8609978  86.8140014  39.3549992 120.8579978  87.0370014
  40.7199992 121.6949978  86.2510014  38.8799992 122.6119978  85.8160014
  39.2899992 123.6109978  85.5550014  37.8249992 122.7189978  86.1470014
  38.6719992 121.7639978  84.5520014  39.5439992 121.2059978  84.1490014
  38.1449992 122.2459978  83.7010014  37.5389992 120.6989978  84.7340014
  36.7019992 121.2669978  85.1940014  37.8679992 119.9199978  85.4540014
  37.0759992 120.0229978  83.4130014  37.0329992 120.7709978  82.5930014
  36.0189992 119.7639978  83.6370014  37.9269992 118.9039978  82.9340014
  38.0559992 118.2029978  83.7860014  38.9049992 119.3639978  82.6750014
  37.4459992 118.2449978  82.1800014 136.5819992 102.0899978  85.0430014
 135.5749992 101.6289978  84.9530014 137.3329992 101.2789978  84.9280014
 136.7979992 102.8019978  84.2180014 136.7729992 102.7289978  86.4460014
 136.1639992 103.6569978  86.4110014 136.5229992 101.9719978  87.2200014
 138.1999992 103.1289978  86.9150014 138.7189992 102.1719978  87.1380014
 138.7619992 103.6399978  86.1040014 138.1109992 104.1569978  88.0710014
 139.1629992 104.3699978  88.3600014 137.5619992 105.1029978  87.8740014
 137.4389992 103.5319978  89.2410014 136.3659992 103.4069978  88.9790014
 137.8609992 102.5759978  89.6180014 137.4629992 104.4289978  90.4920014
 138.4789992 104.4959978  90.9370014 137.2099992 105.4629978  90.1750014
 136.3569992 103.9879978  91.5040014 135.3209992 104.1119978  91.1220014
 136.4169992 102.8809978  91.5770014 136.3609992 104.6579978  92.8560014
 136.6899992 105.6889978  92.6040014 135.3249992 104.6779978  93.2570014
 137.2329992 104.0249978  93.8570014 136.7889992 103.0959978  94.2760014
 138.1239992 103.5559978  93.3890014 137.6959992 104.9689978  95.0230014
 138.3999992 104.5179978  95.7560014 138.2379992 105.8619978  94.6450014
 136.4949992 105.4129978  95.8300014 135.9779992 106.2559978  95.3250014
 135.8089992 104.5389978  95.8140014 136.7589992 105.7179978  97.2770014
 137.1859992 104.8249978  97.7810014 137.5309992 106.5159978  97.3160014
 135.5439992 106.2299978  98.0520014 135.0309992 105.3219978  98.4350014
 135.8359992 106.8289978  98.9410014 134.5419992 107.1019978  97.1920014
 135.0239992 107.9869978  96.7230014 134.0579992 106.4359978  96.4460014
 133.4569992 107.7279978  98.1350014 133.9409992 107.9399978  99.1130014
 132.9569992 108.5899978  97.6430014 132.3719992 106.6429978  98.1980014
 131.6239992 106.3999978  97.2660014 132.4159992 106.0099978  99.3770014
 131.4059992 104.9669978  99.5670014 130.9599992 105.1929978 100.5600014
 130.5969992 105.0219978  98.8080014 132.0609992 103.5659978  99.6130014
 131.3029992 102.7549978  99.6470014 132.9469992 103.4459978 100.9810014
 132.3539992 103.8889978 101.8090014 133.1569992 102.3779978 101.2040014
 134.1769992 104.0639978 100.8590014 134.9539992 104.7579978 102.0890014
 136.4849992 104.4059978 101.7730014 136.6539992 103.2819978 100.9150014
 135.9479992 102.4739978 101.2020014 136.3729992 103.4169978  99.8490014
 138.0429992 102.6399978 100.9370014 137.8969992 101.7419978 100.3540014
 138.7889992 103.2629978 100.4670014 138.6599992 102.2369978 102.2990014
 138.9779992 103.4429978 103.1340014 139.7039992 104.0149978 102.5750014
 138.1349992 104.1099978 103.2370014 139.3469992 103.2649978 104.1330014
 137.6089992 101.4329978 103.0680014 137.8789992 101.4369978 104.1140014
 136.7329992 102.0359978 102.8790014 137.7439992 100.4189978 102.7210014
 139.8689992 101.4109978 102.0670014 140.0529992 100.7749978 102.9200014
 140.7249992 102.0109978 101.7980014 139.6599992 100.6639978 101.3160014
 134.8139992 106.2539978 101.9640014 134.6129992 104.1209978 103.4010014
 132.8459992 103.4899978  98.4290014 133.3809992 102.3149978  98.1270014
 133.2539992 101.3229978  98.7910014 134.0869992 102.1839978  96.7870014
 135.0459992 101.6239978  96.7660014 134.3169992 103.2529978  96.5910014
 133.1269992 101.5329978  95.7270014 132.0939992 101.3009978  96.0620014
 133.5109992 100.5089978  95.5340014 132.9569992 102.2229978  94.4070014
 132.6129992 101.5879978  93.5630014 133.9269992 102.6639978  94.0920014
 131.8559992 103.3239978  94.4800014 131.9799992 103.9899978  95.3610014
 130.8859992 102.8199978  94.6810014 131.8599992 104.0829978  93.1280014
 132.8429992 104.1349978  92.6120014 131.5169992 105.1359978  93.2180014
 130.9339992 103.3509978  92.1590014 129.9129992 103.3709978  92.5960014
 131.2289992 102.2799978  92.1390014 130.8519992 103.8879978  90.7000014
 130.8609992 104.9959978  90.6210014 129.8799992 103.5519978  90.2800014
 131.9369992 103.2909978  89.8010014 132.0499992 102.1969978  89.8230014
 132.8569992 103.8889978  89.0550014 133.4259992 103.1959978  88.4180014
 133.0859992 105.4109978  88.8290014 134.1569992 105.6539978  89.0000014
 132.5389992 106.1189978  89.4870014 132.5599992 105.7409978  87.4220014
 131.4739992 105.5049978  87.4560014 133.0929992 105.2079978  86.6060014
 132.5479992 107.2329978  86.9010014 131.6999992 107.7809978  87.3650014
 132.3539992 107.1239978  85.8120014 133.8459992 108.0049978  87.2240014
 133.9799992 108.2129978  88.3070014 133.6769992 108.9039978  86.5930014
 135.2329992 107.5559978  86.6660014 135.4299992 106.6079978  87.2100014
 136.0589992 108.2709978  86.8710014 135.2269992 107.1999978  85.2010014
 134.9649992 108.1239978  84.6430014 134.4079992 106.4839978  84.9760014
 136.5299992 106.5319978  84.7070014 136.8549992 105.6549978  85.3070014
 137.3689992 107.2579978  84.7670014 136.4769992 106.0589978  83.3080014
 135.6899992 105.2799978  83.2130014 137.4709992 105.6789978  82.9890014
 136.1719992 106.7619978  82.5030014  20.2349992 108.0129978  83.8760014
  19.9529992 107.6289978  84.8800014  20.6499992 107.1719978  83.2820014
  19.3309992 108.3829978  83.3460014  21.2969992 109.0869978  83.9500014
  22.0309992 108.7909978  84.7300014  21.5739992 109.2939978  82.8950014
  20.7059992 110.5049978  84.2590014  21.5529992 111.2019978  84.4370014
  20.0739992 110.8269978  83.4040014  19.8739992 110.4399978  85.5320014
  18.9309992 109.8609978  85.4320014  20.5329992 110.1479978  86.3780014
  19.3929992 111.7449978  85.9730014  20.0699992 112.5539978  85.6230014
  18.3649992 112.0069978  85.6430014  19.2429992 111.7429978  87.5000014
  18.6899992 110.8599978  87.8860014  20.3009992 111.5939978  87.8060014
  18.6549992 113.0329978  88.0770014  17.6149992 113.2219978  87.7360014
  18.4789992 113.0619978  89.1730014  19.4189992 114.3089978  87.6530014
  19.2959992 114.4489978  86.5580014  18.9819992 115.1259978  88.2660014
  20.8549992 114.3729978  88.0660014  21.4839992 113.5729978  87.6220014
  21.3919992 115.2749978  87.7040014  21.1219992 114.3869978  89.5250014
  20.5589992 115.2529978  89.9340014  20.8989992 113.4829978  90.1310014
  22.6579992 114.6219978  89.8250014  23.3009992 113.8069978  89.4290014
  22.9359992 115.6269978  89.4400014  22.9679992 114.6129978  91.3430014
  23.8869992 115.1639978  91.6360014  22.0339992 115.0799978  91.7240014
  22.9329992 113.2049978  91.9590014  22.3249992 112.5489978  91.3010014
  23.9159992 112.7019978  91.8350014  22.4369992 113.1919978  93.4300014
  21.3379992 113.3539978  93.4200014  22.6789992 112.2279978  93.9270014
  22.8869992 114.3299978  94.3960014  23.9939992 114.3949978  94.4660014
  22.5209992 115.3279978  94.0720014  22.4929992 113.9369978  95.8100014
  23.2979992 113.8099978  96.7110014  21.1819992 113.7129978  95.8550014
  20.7009992 113.3439978  97.1520014  21.1939992 113.8789978  97.9920014
  19.6079992 113.5419978  97.1100014  20.9029992 111.7489978  97.4510014
  20.5579992 111.2999978  96.4950014  19.8669992 111.2129978  98.5310014
  18.9829992 111.8829978  98.4630014  19.3949992 110.2649978  98.1960014
  20.4209992 111.3219978  99.8000014  20.0479992 112.3529978 100.8710014
  20.9519992 111.8939978 102.0410014  22.3739992 112.1089978 102.1230014
  22.7739992 111.6999978 101.1700014  22.5289992 113.2019978 101.9950014
  23.0369992 111.3819978 103.2750014  24.0089992 111.8169978 103.4540014
  22.4389992 111.5029978 104.1670014  23.1719992 109.8899978 103.1910014
  21.8569992 109.2799978 102.7570014  21.0759992 109.4849978 103.4750014
  21.6169992 109.7119978 101.7970014  21.9819992 108.2079978 102.7120014
  24.1809992 109.5699978 102.0430014  24.1859992 108.5159978 101.8080014
  23.7409992 110.0689978 101.1930014  25.1849992 109.9479978 102.1700014
  23.6109992 109.3679978 104.4540014  22.9179992 109.8629978 105.1180014
  24.6409992 109.6719978 104.5700014  23.4709992 108.3059978 104.5950014
  20.5409992 113.6689978 100.4770014  18.7289992 112.1559978 101.4730014
  22.3009992 111.5569978  97.7470014  22.7079992 110.2749978  97.9020014
  22.0499992 109.2489978  97.8410014  24.2269992 110.1639978  98.1280014
  24.3769992 109.3509978  98.8710014  24.5739992 111.1449978  98.5160014
  24.8629992 109.8779978  96.7500014  24.2889992 109.0389978  96.3010014
  25.8659992 109.4349978  96.9290014  24.7839992 111.0909978  95.8440014
  25.4269992 111.8729978  96.3030014  23.7539992 111.4849978  95.7090014
  25.2909992 110.9579978  94.3920014  26.3749992 110.7119978  94.3980014
  25.0619992 111.9019978  93.8530014  24.5769992 109.9419978  93.4410014
  23.5439992 110.3059978  93.2590014  24.1969992 109.1129978  94.0770014
  25.3809992 109.4879978  92.2490014  26.2509992 108.8339978  92.4760014
  25.6499992 110.3439978  91.5950014  24.5669992 108.4439978  91.3920014
  24.3379992 107.6219978  92.1030014  25.2999992 107.9859978  90.6930014
  23.1989992 108.7859978  90.8090014  22.5069992 108.8429978  91.6620014
  22.7359992 108.8449978  89.5280014  21.6729992 109.0699978  89.3540014
  23.5719992 108.5649978  88.3480014  23.0189992 108.0799978  87.5160014
  24.4799992 107.9429978  88.4970014  24.1389992 109.8899978  87.7960014
  25.0169992 109.6119978  87.1740014  24.5799992 110.4539978  88.6460014
  23.1919992 110.7259978  87.0270014  22.2419992 110.8659978  87.5860014
  22.9329992 110.0909978  86.1540014  23.6469992 112.1529978  86.6240014
  23.9719992 112.5859978  87.5940014  22.8379992 112.8529978  86.3250014
  24.8639992 112.1939978  85.6890014  24.7359992 111.7229978  84.6910014
  25.7159992 111.6529978  86.1520014  25.2839992 113.6289978  85.3290014
  25.4909992 114.1529978  86.2870014  24.4549992 114.2509978  84.9280014
  26.5879992 113.8229978  84.5440014  26.7799992 114.9089978  84.4150014
  26.2679992 113.4329978  83.5540014  27.7799992 113.0929978  85.2060014
  27.6659992 113.1199978  86.3110014  28.7419992 113.4949978  84.8240014
  27.8989992 112.0439978  84.8610014  90.4289992   3.9189978  85.5480014
  89.7499992   3.9969978  86.4240014  90.6459992   2.8299978  85.5330014
  90.0769992   4.3709978  84.5960014  91.7339992   4.5839978  86.0190014
  92.4339992   4.3129978  85.2000014  91.6639992   5.6919978  86.0270014
  92.2729992   4.0389978  87.3540014  91.5489992   4.2239978  88.1760014
  92.1889992   2.9319978  87.3830014  93.6519992   4.4309978  87.8380014
  94.3919992   3.6899978  87.4670014  93.7469992   5.4589978  87.4300014
  93.7919992   4.4009978  89.3490014  94.8009992   4.6249978  89.7550014
  93.1439992   5.2189978  89.7320014  93.5289992   2.8979978  89.8470014
  92.5259992   2.5179978  89.5550014  94.3989992   2.3149978  89.4740014
  93.6129992   2.8379978  91.3770014  94.6369992   3.0759978  91.7350014
  92.9219992   3.6569978  91.6710014  93.0489992   1.4839978  91.9030014
  92.6129992   1.6449978  92.9130014  92.1549992   1.1149978  91.3560014
  94.1219992   0.4289978  92.0670014  94.6999992   0.3359978  91.1230014
  94.8489992   0.6619978  92.8750014  93.5529992  -0.9490022  92.3810014
  92.9319992  -1.4150022  91.5860014  94.4469992  -1.6050022  92.4600014
  92.7599992  -1.1470022  93.7550014  91.9819992  -0.3570022  93.8260014
  92.2319992  -2.1040022  93.5530014  93.6749992  -1.3950022  94.9200014
  93.1979992  -2.1110022  95.6220014  94.6469992  -1.8720022  94.6710014
  94.0829992  -0.1670022  95.7610014  94.4779992   0.6359978  95.1020014
  93.1759992   0.3009978  96.2000014  95.0739992  -0.4590022  96.9460014
  94.5659992  -0.0390022  97.8400014  95.2079992  -1.5550022  97.0750014
  96.3919992   0.2419978  96.7210014  97.0979992  -0.0800022  97.5160014
  96.7039992  -0.0540022  95.6970014  96.1519992   1.7819978  96.7410014
  95.7069992   2.4559978  95.8010014  96.3109992   2.2989978  97.9720014
  96.1879992   3.6509978  98.1650014  96.7729992   3.8939978  99.0780014
  96.7809992   4.0909978  97.3350014  94.7269992   4.2559978  98.2110014
  94.7599992   5.3659978  98.1960014  94.0249992   3.6199978  99.5250014
  94.6819992   3.7179978 100.4150014  93.1529992   4.2719978  99.7480014
  93.7179992   2.2409978  99.3710014  93.9719992   1.1079978 100.4650014
  93.7679992   1.8759978 101.8190014  93.6169992   1.1049978 103.0430014
  93.4299992   0.0479978 102.7560014  94.5999992   1.1279978 103.5620014
  92.4939992   1.6649978 103.9480014  92.4649992   1.1669978 104.9060014
  92.8129992   2.6669978 104.1940014  91.0839992   1.8859978 103.3740014
  90.2519992   2.2589978 104.6490014  89.2429992   2.4699978 104.3250014
  90.1059992   1.3889978 105.2710014  90.6539992   3.0979978 105.1980014
  91.1089992   3.0939978 102.4720014  91.6269992   3.9609978 102.8540014
  91.7069992   2.8289978 101.6120014  90.0659992   3.3239978 102.3130014
  90.6239992   0.7219978 102.7190014  90.8069992  -0.2170022 103.2190014
  91.0809992   0.5649978 101.7540014  89.5609992   0.8289978 102.5620014
  92.8689992   0.1239978 100.2970014  95.3619992   0.6189978 100.3490014
  93.9749992   3.9859978  97.0700014  92.7279992   4.5439978  96.9120014
  92.2639992   5.3419978  97.7150014  92.1049992   4.0909978  95.6000014
  92.0449992   2.9819978  95.6130014  92.8229992   4.5409978  94.8820014
  90.6119992   4.5179978  95.3180014  90.2829992   5.1849978  96.1440014
  89.8899992   3.6789978  95.4070014  90.2859992   5.1659978  93.9380014
  91.0879992   5.8959978  93.6980014  89.4019992   5.7969978  94.1700014
  89.9169992   4.2389978  92.7550014  89.0649992   3.5949978  93.0590014
  90.7889992   3.5589978  92.6500014  89.5829992   5.0759978  91.5580014
  90.3259992   5.7899978  91.1430014  88.6469992   5.6349978  91.7740014
  89.1509992   4.1989978  90.3050014  89.8829992   3.3679978  90.2150014
  89.3589992   4.8319978  89.4170014  87.7349992   3.5559978  90.3480014
  87.0639992   4.4019978  90.6110014  87.6879992   2.8259978  91.1840014
  87.3429992   2.8969978  89.0570014  86.7449992   3.4849978  88.3460014
  87.6279992   1.6129978  88.7110014  87.2999992   1.2129978  87.7410014
  88.3979992   0.6319978  89.5260014  87.7749992  -0.2820022  89.6260014
  88.7189992   0.9939978  90.5260014  89.7069992   0.2319978  88.8180014
  90.4709992   0.9149978  89.2470014  89.6829992   0.3729978  87.7160014
  90.1729992  -1.2640022  89.1050014  89.2799992  -1.9120022  88.9790014
  90.6659992  -1.4530022  90.0820014  91.2339992  -1.7580022  88.0450014
  90.7439992  -1.6670022  87.0530014  91.4329992  -2.8270022  88.2760014
  92.5519992  -1.0000022  88.0790014  92.9199992  -1.2370022  89.1000014
  92.2829992   0.0769978  88.0440014  93.4009992  -1.4680022  86.9210014
  92.9669992  -2.3370022  86.3820014  94.4099992  -1.7880022  87.2560014
  93.7389992  -0.2820022  86.0120014  94.5959992   0.3019978  86.4120014
  92.9419992   0.4579978  85.7850014  94.2689992  -0.7920022  84.7220014
  93.5849992  -1.3230022  84.0250014  95.0339992  -1.5410022  85.0170014
  94.8419992  -0.0180022  84.1680014 116.1679992  14.0469978  85.0490014
 116.0769992  13.1519978  84.3980014 116.9849992  13.7059978  85.7200014
 116.5169992  14.9609978  84.5220014 114.8539992  14.2779978  85.7240014
 114.1159992  14.5969978  84.9580014 114.6129992  13.2349978  86.0210014
 114.8529992  15.2209978  86.9640014 115.7509992  14.9129978  87.5410014
 114.7969992  16.2659978  86.5900014 113.5569992  14.9449978  87.7560014
 113.5779992  13.8459978  87.9160014 113.5089992  15.3949978  88.7710014
 112.2669992  15.3559978  87.0110014 112.3449992  16.4099978  86.6690014
 112.0489992  14.7069978  86.1360014 111.0019992  15.0219978  87.7790014
 111.0729992  15.3999978  88.8210014 110.1189992  15.5379978  87.3450014
 110.5939992  13.5589978  87.7090014 110.5659992  13.1169978  86.6900014
 111.4239992  13.0259978  88.2190014 109.4059992  13.2659978  88.5960014
 109.4479992  13.7539978  89.5930014 108.4409992  13.6189978  88.1730014
 109.2939992  11.7399978  88.8610014 108.2489992  11.4079978  89.0390014
 109.7659992  11.2009978  88.0110014 110.0489992  11.3709978  90.1590014
 111.1469992  11.3719978  89.9900014 109.7819992  12.1459978  90.9090014
 109.7319992   9.9649978  90.7820014 108.6529992   9.7149978  90.8700014
 110.1589992   9.2139978  90.0830014 110.3259992   9.6749978  92.2520014
 109.8049992  10.3649978  92.9500014 110.0649992   8.6159978  92.4630014
 111.8149992   9.9219978  92.2720014 112.2919992   9.3449978  91.4510014
 112.1069992  10.9929978  92.2140014 112.5789992   9.4139978  93.4410014
 112.1389992   8.4469978  93.7660014 113.6559992   9.3129978  93.1880014
 112.4729992  10.4879978  94.5750014 112.4639992  11.4639978  94.0460014
 111.5119992  10.2289978  95.0700014 113.6659992  10.3279978  95.4820014
 114.2929992   9.3079978  95.7640014 113.7979992  11.5039978  96.0680014
 114.8479992  11.7029978  97.0090014 115.4809992  10.8049978  97.1700014
 115.5839992  12.4909978  96.7410014 114.2279992  12.2779978  98.3230014
 115.0399992  12.6439978  98.9870014 113.4979992  11.1709978  99.1350014
 112.5259992  10.8649978  98.6940014 114.2059992  10.3199978  99.2340014
 113.2629992  11.8249978 100.4180014 113.4129992  10.8659978 101.6650014
 113.1719992  11.8859978 102.8540014 112.3309992  13.0079978 102.6950014
 111.3369992  12.8039978 102.2440014 112.2329992  13.4909978 103.6910014
 112.9759992  14.1949978 101.8750014 113.0789992  13.9359978 100.8320014
 112.2739992  15.0129978 101.9320014 114.2539992  14.8239978 102.3160014
 114.2599992  15.3299978 103.7270014 113.6039992  14.7549978 104.3640014
 115.1929992  15.3129978 104.2710014 113.9319992  16.3579978 103.6980014
 115.3399992  13.8549978 102.0530014 114.9939992  12.9829978 102.5870014
 115.4209992  13.7259978 100.9840014 116.2069992  14.1599978 102.6200014
 114.4839992  16.0549978 101.4330014 113.6599992  16.6939978 101.7140014
 114.4599992  15.7109978 100.4100014 115.4359992  16.5329978 101.6080014
 112.4579992   9.7289978 101.6340014 114.7929992  10.3529978 101.8350014
 113.3309992  13.4139978  98.0290014 113.9559992  14.5679978  97.7080014
 115.1519992  14.7619978  97.7030014 112.8729992  15.5799978  97.2490014
 112.8269992  16.4299978  97.9630014 111.8659992  15.1119978  97.2230014
 113.2379992  16.1619978  95.9320014 114.2719992  16.5549978  96.0300014
 112.5329992  17.0069978  95.7770014 113.0999992  15.1849978  94.6770014
 112.0479992  14.9499978  94.4090014 113.4979992  14.2019978  95.0080014
 113.8209992  15.8809978  93.4520014 114.8649992  15.5069978  93.5230014
 113.7299992  16.9859978  93.5200014 113.1839992  15.4119978  92.1290014
 113.8309992  15.7809978  91.3050014 112.1859992  15.8759978  91.9750014
 113.1499992  13.9059978  91.9980014 112.7859992  13.7619978  90.9580014
 112.3769992  13.4039978  92.6180014 114.4609992  13.1679978  92.2670014
 114.2559992  12.0949978  92.0640014 114.6839992  13.2909978  93.3490014
 115.6219992  13.5999978  91.3920014 115.8879992  14.6539978  91.5580014
 116.5669992  12.9209978  90.6340014 117.3439992  13.4959978  90.1100014
 116.7759992  11.4509978  90.4010014 117.4109992  11.0679978  91.2290014
 117.4339992  11.2999978  89.5180014 115.5429992  10.5159978  90.4850014
 115.2929992  10.3899978  91.5600014 115.9099992   9.4959978  90.2400014
 114.2879992  10.7479978  89.6590014 113.6699992  11.5879978  90.0420014
 113.6129992   9.8659978  89.6780014 114.4889992  11.0819978  88.1860014
 115.0389992  11.9989978  87.8830014 113.4749992  11.2709978  87.7730014
 115.1109992   9.8789978  87.3810014 114.5749992   8.9249978  87.5710014
 116.1359992   9.6479978  87.7430014 115.1209992  10.1589978  85.8630014
 115.9649992   9.5779978  85.4330014 115.3479992  11.2409978  85.7540014
 113.7969992   9.9579978  85.0960014 113.0409992  10.5419978  85.6620014
 113.3949992   8.9299978  85.2240014 113.8859992  10.3159978  83.6290014
 114.2349992  11.3699978  83.5810014 112.8349992  10.2789978  83.2730014
 114.4769992   9.5629978  83.0650014  15.5109992  77.6129978  81.3050014
  15.0329992  78.0909978  80.4230014  15.0199992  76.6429978  81.5310014
  16.5709992  77.3469978  81.1080014  15.3499992  78.5309978  82.5240014
  16.0949992  78.3819978  83.3340014  15.4399992  79.5889978  82.1960014
  14.0219992  78.2569978  83.2940014  13.2579992  78.5929978  82.5610014
  13.9669992  77.1499978  83.3730014  13.7999992  78.9569978  84.6140014
  14.6159992  78.7689978  85.3440014  13.8249992  80.0319978  84.3330014
  12.4139992  78.6379978  85.2340014  11.6769992  79.0019978  84.4860014
  12.2029992  77.5599978  85.4030014  12.0299992  79.5959978  86.3950014
  12.4959992  80.5699978  86.1320014  10.9499992  79.8339978  86.2870014
  12.5389992  79.0619978  87.8170014  11.8759992  78.1989978  88.0400014
  13.6179992  78.8029978  87.7580014  12.2719992  80.0429978  88.9590014
  12.7209992  79.6699978  89.9040014  12.8039992  80.9739978  88.6680014
  10.7559992  80.2189978  89.3140014  10.2439992  80.6949978  88.4510014
  10.3399992  79.1889978  89.2900014  10.3369992  81.0549978  90.5530014
  10.7609992  82.0739978  90.4270014   9.2299992  81.1529978  90.5600014
  10.6229992  80.3849978  91.8660014  10.3899992  79.3059978  91.7410014
  11.7329992  80.4279978  91.8510014   9.8859992  81.0999978  93.0720014
  10.2489992  82.1039978  93.3770014   8.8299992  81.1059978  92.7270014
   9.9569992  80.2159978  94.3350014   9.4399992  80.7799978  95.1400014
   9.4959992  79.2059978  94.3030014  11.3619992  79.8529978  94.7880014
  11.8909992  79.4069978  93.9190014  11.9469992  80.7679978  95.0210014
  11.3389992  78.9049978  96.0040014  10.7299992  79.2249978  96.8760014
  10.9289992  77.9229978  95.6840014  12.7659992  78.6529978  96.5040014
  13.7789992  79.0749978  95.9260014  12.7239992  77.9879978  97.6490014
  13.9859992  77.5669978  98.2260014  13.8229992  76.7749978  98.9880014
  14.5819992  77.1259978  97.3990014  14.7879992  78.6789978  98.9640014
  15.6929992  78.2159978  99.4140014  13.9149992  79.4109978  99.9720014
  13.3739992  78.6099978 100.5210014  14.5329992  79.9459978 100.7240014
  13.0599992  80.2909978  99.2540014  12.1399992  81.2359978 100.0250014
  13.1439992  81.8209978 101.1070014  12.6509992  82.9019978 101.8400014
  12.3139992  83.7919978 101.2660014  11.7039992  82.5829978 102.3260014
  13.6389992  83.2999978 102.9490014  14.5809992  83.4449978 102.4400014
  13.2609992  84.1689978 103.4670014  13.8089992  82.2989978 104.1080014
  12.6229992  82.4269978 105.0610014  11.6989992  82.4749978 104.5030014
  12.6399992  81.5289978 105.6610014  12.7299992  83.2469978 105.7560014
  13.8099992  80.7939978 103.6400014  12.9109992  80.6169978 103.0680014
  14.7309992  80.6139978 103.1050014  13.7139992  80.1579978 104.5080014
  15.0499992  82.6489978 104.7910014  15.0349992  83.5289978 105.4180014
  15.8209992  82.6679978 104.0360014  15.3719992  81.8759978 105.4730014
  11.7059992  82.1909978  99.0020014  11.1179992  80.4699978 100.7290014
  15.2759992  79.6489978  98.0060014  15.8509992  80.7669978  98.3210014
  16.0589992  81.1569978  99.4760014  16.4849992  81.1969978  97.0130014
  15.7929992  80.8619978  96.2100014  17.4059992  80.5829978  96.9240014
  16.8379992  82.7309978  96.9640014  17.3039992  82.9099978  95.9720014
  17.5579992  83.0069978  97.7640014  15.7079992  83.7559978  97.0680014
  15.9649992  84.7399978  96.6220014  15.2859992  83.7459978  98.0960014
  14.5489992  83.4009978  96.1760014  14.0949992  82.4069978  96.3790014
  14.9719992  83.2999978  95.1540014  13.3409992  84.4169978  96.1100014
  13.7199992  85.4379978  95.8870014  12.8539992  84.5189978  97.1040014
  12.2119992  83.9099978  95.1980014  11.6639992  83.2319978  95.8870014
  12.6009992  83.2899978  94.3610014  11.2709992  85.0609978  94.6610014
  10.7029992  85.5569978  95.4770014  10.4369992  84.5089978  94.1780014
  11.9389992  86.0819978  93.7920014  11.8349992  87.1379978  94.0820014
  12.5509992  85.8399978  92.5970014  13.0739992  86.6869978  92.1300014
  12.6709992  84.5189978  91.9690014  11.8529992  83.8569978  92.3250014
  13.6369992  84.0379978  92.2360014  12.6199992  84.4109978  90.4550014
  11.6669992  84.7679978  90.0110014  12.7649992  83.3359978  90.2180014
  13.8719992  85.1089978  89.7280014  14.8449992  84.8509978  90.1990014
  13.6769992  86.1919978  89.8780014  13.9109992  84.8569978  88.2060014
  14.5679992  85.6089978  87.7190014  12.9019992  84.9529978  87.7490014
  14.2939992  83.4699978  87.7680014  14.1279992  83.4559978  86.6700014
  13.5869992  82.6889978  88.1230014  15.7749992  83.0279978  88.0820014
  15.7669992  81.9169978  88.0700014  16.1449992  83.2669978  89.1020014
  16.7539992  83.4659978  86.9780014  17.7529992  83.3619978  87.4520014
  16.6999992  84.5519978  86.7490014  16.6699992  82.5959978  85.7720014
  17.1469992  83.0089978  84.8580014  15.5829992  82.5229978  85.5540014
  17.1119992  81.5919978  85.9460014 119.5359992  22.5619978  84.8880014
 120.6359992  22.6789978  84.9910014 119.1689992  23.5079978  84.4360014
 119.0519992  21.8379978  84.1990014 118.8289992  22.2869978  86.2080014
 118.7529992  23.1309978  86.9280014 117.8239992  21.9299978  85.8980014
 119.2249992  21.0589978  87.0720014 118.4719992  20.5019978  87.6700014
 119.6429992  20.3519978  86.3250014 120.3629992  21.2689978  88.0600014
 120.8139992  20.3029978  88.3700014 121.2189992  21.7809978  87.5710014
 119.9449992  22.0029978  89.3830014 119.5909992  23.0299978  89.1510014
 119.1059992  21.4319978  89.8360014 121.1289992  22.1989978  90.3590014
 121.9349992  22.8609978  89.9770014 120.6729992  22.6929978  91.2440014
 121.7869992  20.8929978  90.8450014 122.3279992  20.4879978  89.9630014
 122.4979992  21.1569978  91.6570014 121.0239992  19.6099978  91.1950014
 120.6699992  19.2889978  90.1920014 121.8249992  18.9819978  91.6380014
 119.9579992  19.7549978  92.3360014 119.3539992  20.6669978  92.1400014
 119.2669992  18.8859978  92.3680014 120.5699992  19.9829978  93.7520014
 121.4199992  19.2749978  93.8520014 120.9189992  21.0369978  93.7730014
 119.6809992  19.7649978  95.0260014 119.3189992  18.7159978  94.9630014
 120.4009992  19.8679978  95.8660014 118.3769992  20.6549978  95.1230014
 117.7499992  20.4799978  94.2230014 117.8589992  20.3799978  96.0670014
 118.7729992  22.1119978  95.3420014 119.4469992  22.4989978  94.5480014
 117.8969992  22.7949978  95.3640014 119.4149992  22.4419978  96.6950014
 118.9949992  21.7299978  97.4380014 120.4939992  22.2099978  96.5610014
 119.3109992  23.9849978  96.9910014 120.1199992  24.3069978  97.6820014
 119.4389992  24.5709978  96.0560014 117.9359992  24.2599978  97.5410014
 117.0099992  24.6969978  96.8580014 117.7849992  23.8939978  98.8580014
 116.4469992  23.8799978  99.4360014 116.5219992  24.3019978 100.4610014
 115.7609992  24.4819978  98.8020014 115.9029992  22.4129978  99.5380014
 114.8759992  22.5029978  99.9520014 116.7199992  21.4499978 100.5220014
 116.7609992  21.9749978 101.5000014 116.0189992  20.5989978 100.6560014
 117.9039992  21.0779978  99.9280014 119.2639992  20.8379978 100.6740014
 118.9579992  19.8069978 101.8200014 118.9549992  18.3939978 101.6120014
 118.0999992  18.0039978 102.2060014 118.8819992  18.1649978 100.5270014
 120.3249992  17.6739978 101.9530014 120.1589992  16.6209978 101.7760014
 121.1139992  18.0149978 101.2990014 120.7609992  17.6589978 103.4660014
 121.4089992  19.0039978 103.7610014 120.7759992  19.7259978 103.2660014
 121.4469992  19.2099978 104.8200014 122.3839992  19.2059978 103.3420014
 119.5889992  17.4899978 104.4390014 118.7999992  18.1239978 104.0620014
 119.3439992  16.4389978 104.3920014 119.8299992  17.8309978 105.4350014
 121.9669992  16.7649978 103.6850014 121.7639992  15.7099978 103.5770014
 122.3999992  16.9159978 104.6630014 122.6969992  17.0539978 102.9430014
 120.2079992  20.2149978  99.7500014 119.6579992  22.0739978 101.4180014
 115.8409992  21.8449978  98.2360014 114.8939992  22.3249978  97.4060014
 114.1389992  23.2159978  97.7040014 114.9319992  21.5759978  95.9920014
 114.5459992  20.5649978  96.2450014 115.9859992  21.3869978  95.6950014
 114.1729992  22.4099978  94.9610014 114.6889992  23.3829978  94.8170014
 113.1319992  22.6819978  95.2400014 113.9329992  21.5909978  93.6310014
 113.2129992  20.7679978  93.8270014 114.9049992  21.0709978  93.4950014
 113.7749992  22.5509978  92.4620014 112.7939992  22.9849978  92.7490014
 113.4359992  22.0469978  91.5320014 114.9109992  23.6079978  92.0530014
 115.0649992  24.1859978  92.9900014 114.4419992  24.2349978  91.2650014
 116.2389992  22.9949978  91.6370014 116.2949992  22.0929978  92.2830014
 117.1279992  23.6289978  91.8450014 116.2079992  22.5439978  90.1770014
 115.2979992  21.9079978  90.1440014 117.1219992  21.9189978  90.0820014
 116.2579992  23.5719978  89.0690014 117.1439992  24.2219978  89.1320014
 115.3179992  23.9019978  88.1480014 115.5509992  24.5079978  87.2600014
 114.0319992  23.1809978  88.1660014 113.2229992  23.8699978  87.8410014
 113.7079992  22.9149978  89.1950014 114.0819992  21.8439978  87.3420014
 113.0709992  21.3829978  87.3560014 114.8279992  21.2409978  87.9020014
 114.4209992  21.9979978  85.8680014 115.4989992  22.1939978  85.6850014
 113.8579992  22.8359978  85.4030014 114.1459992  20.7469978  85.0720014
 113.0589992  20.5349978  85.1610014 114.7409992  19.8779978  85.4250014
 114.5099992  20.8699978  83.5480014 113.7289992  21.4319978  82.9920014
 114.3739992  19.8129978  83.2360014 115.8959992  21.4299978  83.2440014
 116.6699992  20.8879978  83.8280014 115.7619992  22.4899978  83.5500014
 116.3239992  21.2779978  81.7810014 115.4719992  21.5129978  81.1080014
 116.6379992  20.2229978  81.6350014 117.6039992  21.9109978  81.2550014
 118.5159992  21.6759978  81.8440014 117.4889992  23.0159978  81.2320014
 117.8249992  21.5079978  80.2440014  73.2739992 136.3569978  83.9130014
  72.8769992 135.3199978  83.9470014  73.8799992 136.5709978  83.0070014
  72.3819992 136.9989978  83.7470014  74.1159992 136.7379978  85.1140014
  74.9659992 136.0349978  85.2440014  74.4769992 137.7789978  84.9660014
  73.3099992 136.7029978  86.4000014  73.7739992 137.2589978  87.2420014
  72.3849992 137.3029978  86.2660014  72.6739992 135.3709978  86.8570014
  72.1519992 134.8159978  86.0480014  73.5199992 134.6979978  87.1120014
  71.7899992 135.3959978  88.1450014  70.9399992 136.0679978  87.8990014
  71.3579992 134.3739978  88.2130014  72.4519992 135.8409978  89.4300014
  73.2899992 135.1429978  89.6380014  72.7659992 136.8989978  89.3090014
  71.6179992 135.8449978  90.7390014  70.7139992 136.4879978  90.6790014
  71.3109992 134.8229978  91.0470014  72.3569992 136.5049978  91.9000014
  73.4219992 136.1899978  91.9170014  72.2849992 137.6119978  91.8460014
  71.8389992 136.0879978  93.3160014  70.9519992 136.7279978  93.5070014
  71.6569992 134.9919978  93.2970014  72.8649992 136.3769978  94.4470014
  72.4349992 136.1069978  95.4350014  73.7959992 135.8149978  94.2220014
  73.1179992 137.9199978  94.5280014  74.1199992 138.1819978  94.1270014
  72.3499992 138.4349978  93.9120014  73.3659992 138.4499978  96.0060014
  73.4929992 139.5529978  95.9850014  72.4209992 138.2559978  96.5580014
  74.5849992 137.9259978  96.6140014  74.7039992 136.8239978  96.5300014
  75.4779992 138.4429978  96.2040014  74.5729992 138.2719978  98.1580014
  73.5919992 137.9859978  98.5960014  75.2229992 137.4919978  98.6090014
  74.9299992 139.6979978  98.6100014  75.4869992 139.8889978  99.5520014
  75.5589992 140.1359978  97.8050014  73.7519992 140.7089978  98.7840014
  73.4319992 141.5639978  97.9350014  73.1859992 140.6169978  99.9550014
  72.0349992 141.3869978 100.3610014  72.1099992 141.4229978 101.4690014
  72.0719992 142.4349978  99.9930014  70.7019992 140.6609978 100.0300014
  69.8869992 141.2859978 100.4540014  70.6209992 139.1619978 100.5360014
  71.0529992 139.1349978 101.5590014  69.5309992 139.0099978 100.6910014
  71.3199992 138.2819978  99.6660014  71.1249992 136.7379978  99.8000014
  70.9699992 136.6669978 101.3370014  72.1959992 136.6389978 102.0900014
  72.8079992 135.7349978 101.8870014  72.8459992 137.5149978 101.8770014
  71.7719992 136.7149978 103.5750014  72.6479992 136.8119978 104.2000014
  71.3039992 137.6739978 103.7430014  70.9009992 135.5899978 104.2050014
  71.4769992 134.3059978 103.8730014  71.8139992 134.1119978 102.8650014
  72.2999992 134.0749978 104.5340014  70.6559992 133.6209978 104.0170014
  70.9649992 135.7549978 105.7400014  71.9849992 135.5169978 106.0020014
  70.7399992 136.7879978 105.9630014  70.1909992 135.1029978 106.1170014
  69.4879992 135.6529978 103.6910014  68.9349992 134.8109978 104.0800014
  69.6559992 135.5849978 102.6270014  69.0609992 136.5819978 104.0380014
  69.7839992 136.3479978  99.1610014  72.2319992 135.9159978  99.3680014
  70.5189992 140.5509978  98.6740014  69.2909992 140.2799978  98.1800014
  68.2529992 140.0749978  98.7770014  69.3489992 140.1879978  96.7360014
  70.3939992 140.2779978  96.3710014  68.6989992 140.9559978  96.2660014
  68.7409992 138.8359978  96.2790014  67.6429992 138.7829978  96.4400014
  69.1569992 137.9589978  96.8200014  69.0599992 138.5249978  94.8270014
  68.9429992 137.4469978  94.5880014  70.1179992 138.8459978  94.7090014
  68.1999992 139.3609978  93.9650014  68.5499992 140.4099978  93.8580014
  67.2009992 139.3209978  94.4510014  67.8719992 138.6979978  92.5340014
  66.8639992 139.0639978  92.2460014  67.6999992 137.6189978  92.7320014
  68.9499992 138.9839978  91.5070014  68.6349992 138.2749978  90.7110014
  69.9799992 138.7079978  91.8180014  68.8489992 140.4449978  91.0580014
  68.3659992 141.0939978  91.8190014  68.0919992 140.5229978  90.2490014
  70.1759992 140.9989978  90.6340014  70.9839992 141.1009978  91.3720014
  70.6059992 141.3999978  89.4410014  71.6259992 141.8109978  89.4210014
  69.8289992 141.2199978  88.1920014  69.9099992 142.1099978  87.5310014
  68.7339992 141.1799978  88.3760014  70.2399992 140.0219978  87.3940014
  69.3379992 139.5899978  86.9100014  70.4189992 139.2159978  88.1380014
  71.4839992 140.2709978  86.4550014  71.8119992 139.2459978  86.1810014
  72.3329992 140.6829978  87.0420014  71.3159992 141.1569978  85.2170014
  71.1849992 142.2069978  85.5560014  70.3839992 140.9749978  84.6410014
  72.5389992 140.9119978  84.2760014  72.5709992 139.8419978  83.9800014
  73.3989992 141.3199978  84.8500014  72.5189992 141.8149978  83.0510014
  72.6709992 142.8629978  83.3870014  71.4979992 141.8219978  82.6130014
  73.4929992 141.5349978  81.7780014  73.2049992 142.2809978  81.0070014
  73.1399992 140.5519978  81.4000014  75.0399992 141.4199978  81.9330014
  75.3409992 140.4699978  82.4250014  75.4879992 142.3239978  82.3980014
  75.4169992 141.4179978  80.8880014 143.0379992  77.8769978  85.0480014
 144.1369992  77.7159978  85.0810014 142.9049992  78.8969978  85.4700014
 142.5099992  77.8939978  84.0710014 142.2599992  76.8479978  85.8750014
 141.2879992  77.2849978  86.1880014 142.0659992  75.9489978  85.2520014
 142.9339992  76.1269978  87.0440014 142.2829992  75.2799978  87.3490014
 143.9099992  75.6839978  86.7500014 143.1999992  77.0389978  88.2290014
 143.9549992  77.8279978  88.0240014 142.3039992  77.5809978  88.6010014
 143.8669992  76.2409978  89.4350014 144.8939992  75.8869978  89.1990014
 143.9249992  76.9679978  90.2730014 143.2849992  75.0379978  90.1800014
 143.2429992  74.2979978  89.3530014 144.0409992  74.6679978  90.9050014
 141.8939992  75.1929978  90.8010014 141.8509992  76.1939978  91.2820014
 141.1919992  75.3609978  89.9560014 141.5029992  74.0329978  91.7250014
 140.8019992  73.4309978  91.1090014 142.3939992  73.4599978  92.0620014
 140.7539992  74.5459978  92.9520014 141.2819992  75.2869978  93.5890014
 139.9009992  75.0559978  92.4550014 140.0919992  73.3549978  93.5990014
 139.1889992  73.7989978  94.0710014 139.6699992  72.5839978  92.9190014
 141.0049992  72.7949978  94.7600014 141.2619992  73.7649978  95.2370014
 140.2699992  72.2849978  95.4200014 142.1499992  71.8539978  94.4430014
 141.7849992  70.9979978  93.8360014 142.9359992  72.4289978  93.9080014
 142.8669992  71.3649978  95.7150014 142.1729992  70.9759978  96.4900014
 143.5519992  70.5179978  95.4970014 143.8629992  72.3189978  96.4100014
 144.1539992  73.0099978  95.5900014 143.3719992  73.0249978  97.1130014
 145.1219992  71.8459978  97.2070014 144.8569992  71.1779978  98.0540014
 145.6999992  71.1519978  96.5610014 146.0129992  72.9259978  97.6670014
 146.6349992  73.6169978  96.8940014 145.9399992  73.0129978  98.9770014
 146.7819992  74.0729978  99.5270014 147.4319992  73.6439978 100.3180014
 147.5599992  74.4009978  98.8050014 145.9439992  75.2439978 100.1020014
 146.6089992  76.0699978 100.4330014 145.2349992  74.6179978 101.3190014
 144.5939992  73.7529978 101.0420014 145.9319992  74.1169978 102.0240014
 144.3489992  75.5919978 101.8670014 144.8869992  76.4129978 103.1890014
 143.9769992  77.7059978 103.0770014 142.5249992  77.5599978 103.1400014
 142.2029992  76.5579978 102.7840014 142.2469992  77.6599978 104.2110014
 141.7219992  78.5529978 102.2310014 140.6809992  78.3989978 102.4780014
 141.9719992  79.5539978 102.5500014 141.9129992  78.3209978 100.7470014
 143.3339992  78.7709978 100.3810014 143.4479992  79.8339978 100.5300014
 144.0399992  78.2859978 101.0390014 143.4229992  78.4429978  99.3560014
 141.7239992  76.8689978 100.3860014 142.3709992  76.2989978 101.0360014
 140.6999992  76.5479978 100.5080014 141.8549992  76.7879978  99.3170014
 140.9539992  79.2219978  99.9920014 141.0469992  80.2139978 100.4090014
 139.9529992  78.9449978 100.2880014 141.0339992  79.1079978  98.9210014
 144.5269992  75.5759978 104.3610014 146.2689992  76.8599978 103.1360014
 145.0029992  75.8449978  99.1960014 145.5199992  76.3999978  98.0710014
 146.6859992  76.5799978  97.8250014 144.4389992  77.0199978  97.2390014
 143.6729992  77.4029978  97.9470014 143.8929992  76.2209978  96.6920014
 145.0299992  77.9869978  96.1360014 145.6809992  78.7829978  96.5570014
 144.1189992  78.4499978  95.6990014 145.8629992  77.5059978  94.9440014
 146.8079992  76.9879978  95.2150014 146.2379992  78.4809978  94.5670014
 145.1229992  76.6199978  93.8860014 144.2089992  77.1289978  93.5100014
 144.7409992  75.6989978  94.3760014 146.0879992  76.1609978  92.7510014
 146.6679992  77.0809978  92.5240014 145.3999992  75.8559978  91.9340014
 147.0379992  75.0329978  93.1960014 146.3559992  74.1649978  93.3250014
 147.5779992  75.2289978  94.1470014 148.1289992  74.6649978  92.1060014
 148.7519992  73.8179978  92.4660014 148.7599992  75.5789978  92.1530014
 147.5269992  74.2489978  90.7950014 146.8219992  73.4079978  90.8690014
 147.8019992  74.7279978  89.5940014 147.1909992  74.2349978  88.8230014
 148.8209992  75.8199978  89.2060014 149.5889992  75.5729978  88.4420014
 149.4069992  76.1759978  90.0800014 148.0919992  77.0929978  88.6170014
 148.6599992  78.0459978  88.5540014 147.4329992  77.3879978  89.4610014
 147.2179992  76.8909978  87.3800014 146.7979992  77.8829978  87.1060014
 146.2779992  76.3699978  87.6610014 147.9129992  76.4369978  86.0910014
 148.0819992  75.3639978  86.3240014 148.9129992  76.8459978  85.8360014
 147.0519992  76.5839978  84.8180014 146.8119992  77.6419978  84.5790014
 146.1719992  75.9149978  84.9250014 147.8339992  76.2269978  83.5040014
 148.3239992  75.2329978  83.5910014 148.5969992  76.9879978  83.2330014
 146.8339992  75.9919978  82.2650014 146.1959992  76.8989978  82.1930014
 146.2479992  75.0869978  82.5320014 147.5519992  75.6719978  80.9420014
 148.1529992  74.7389978  80.9790014 148.1659992  76.5839978  80.7840014
 146.8039992  75.6029978  80.1230014 107.1959992   2.3379978  81.8020014
 107.6669992   1.5539978  82.4320014 107.8959992   2.8439978  81.1020014
 106.3739992   1.8009978  81.2820014 106.5859992   3.2479978  82.9180014
 105.8039992   3.8379978  82.3940014 106.1309992   2.5869978  83.6850014
 107.5799992   4.1209978  83.7180014 108.4479992   3.5659978  84.1360014
 108.1179992   4.8019978  83.0240014 106.9189992   4.9509978  84.7930014
 107.7539992   5.5329978  85.2390014 106.0959992   5.6309978  84.4850014
 106.3129992   4.1209978  85.9770014 105.7029992   4.7919978  86.6190014
 105.5959992   3.3349978  85.6560014 107.4029992   3.3149978  86.8230014
 108.0369992   2.7409978  86.1140014 107.8209992   4.0979978  87.4920014
 106.6909992   2.1339978  87.5190014 106.1809992   1.5249978  86.7430014
 107.3519992   1.3759978  87.9920014 105.5939992   2.5739978  88.4460014
 104.6839992   2.8659978  87.8790014 105.3679992   1.6359978  88.9970014
 105.9029992   3.5379978  89.4580014 106.8369992   3.3579978  90.0320014
 106.0349992   4.5399978  88.9950014 104.8219992   3.7949978  90.5710014
 103.8849992   4.0589978  90.0350014 104.6539992   2.9229978  91.2390014
 105.1969992   4.9149978  91.5270014 106.0449992   4.7249978  92.2200014
 105.5849992   5.7719978  90.9360014 103.9839992   5.4049978  92.2870014
 104.2729992   6.1969978  93.0110014 103.2669992   5.9249978  91.6160014
 103.1679992   4.3449978  93.0430014 102.4039992   4.7639978  93.7320014
 102.6219992   3.6569978  92.3630014 104.0619992   3.4689978  93.9040014
 103.3839992   2.6509978  94.2270014 104.7819992   2.9279978  93.2540014
 104.6519992   3.9429978  95.1900014 105.5449992   4.5919978  95.0740014
 103.8419992   4.5139978  95.6920014 105.1899992   2.7519978  96.0370014
 105.5879992   1.7119978  95.5620014 105.2209992   3.0629978  97.3320014
 105.4639992   1.9289978  98.1950014 104.4689992   1.4989978  98.4420014
 106.1459992   1.1609978  97.7750014 106.0259992   2.3579978  99.5440014
 106.1159992   1.4819978 100.2220014 105.2539992   3.4589978 100.2620014
 104.9869992   4.1469978  99.4320014 104.3209992   3.1049978 100.7510014
 106.0179992   4.1009978 101.3560014 105.5129992   5.3669978 102.0040014
 106.6339992   6.4149978 101.5460014 107.9169992   5.8909978 101.4130014
 108.2459992   5.4879978 102.3940014 108.0599992   5.0789978 100.6680014
 108.9899992   6.9709978 101.1750014 109.8999992   6.4429978 100.9310014
 108.6229992   7.6099978 100.3860014 109.3509992   7.9579978 102.2710014
 110.2449992   7.2709978 103.2940014 111.0589992   6.8689978 102.7090014
 110.6339992   7.9919978 103.9980014 109.6359992   6.6539978 103.9370014
 110.1379992   9.1029978 101.5730014 111.1129992   8.7099978 101.3250014
 109.5069992   9.5069978 100.7960014 110.1299992   9.7719978 102.4210014
 108.1449992   8.5539978 103.0070014 107.6469992   9.2339978 102.3330014
 108.5449992   8.9219978 103.9400014 107.4549992   7.7339978 103.1430014
 104.2299992   5.7479978 101.4080014 105.6599992   5.1819978 103.4580014
 107.3139992   2.9039978  99.3060014 108.3299992   2.0339978  99.2880014
 108.2479992   0.8569978  99.6160014 109.5369992   2.8109978  98.8170014
 110.3989992   2.5419978  99.4640014 109.4159992   3.9149978  98.7820014
 109.8219992   2.3179978  97.3650014 109.6939992   1.2139978  97.3470014
 110.9139992   2.3369978  97.1620014 109.0989992   3.0129978  96.2230014
 108.0489992   3.2709978  96.4770014 108.9679992   2.2799978  95.3980014
 109.6879992   4.3729978  95.8620014 110.7789992   4.2199978  95.7200014
 109.4819992   5.0749978  96.6990014 109.2129992   4.9989978  94.5470014
 109.6219992   6.0299978  94.6030014 108.1059992   5.0409978  94.4580014
 109.8709992   4.4209978  93.3570014 109.6139992   3.3399978  93.3460014
 110.9629992   4.5719978  93.4940014 109.3789992   5.1689978  92.1080014
 109.5639992   6.2539978  92.2560014 108.2759992   5.1179978  91.9920014
 109.9799992   4.5519978  90.8710014 109.5269992   3.6169978  90.5100014
 111.0159992   5.0119978  90.1330014 111.4019992   4.4449978  89.2730014
 111.8319992   6.2789978  90.3950014 112.9059992   5.9959978  90.4370014
 111.5719992   6.6289978  91.4160014 111.5549992   7.3909978  89.3590014
 111.9189992   7.1509978  88.3370014 112.1199992   8.2399978  89.8010014
 110.0469992   7.9309978  89.4030014 110.2129992   9.0169978  89.5710014
 109.5499992   7.5859978  90.3350014 109.3099992   7.4499978  88.1120014
 109.4289992   6.3579978  87.9440014 109.9199992   8.0189978  87.3790014
 107.9029992   7.9299978  88.2050014 107.8909992   9.0099978  88.4650014
 107.2269992   7.4039978  88.9120014 107.2249992   7.7349978  86.8370014
 106.7979992   6.7139978  86.9260014 107.9789992   7.5959978  86.0330014
 106.1909992   8.8439978  86.4620014 105.5449992   9.0179978  87.3490014
 105.5589992   8.4859978  85.6210014 106.9439992  10.1269978  86.0410014
 106.2099992  10.7269978  85.4610014 107.7939992   9.8529978  85.3800014
 107.3939992  10.5399978  86.9690014  54.0889992 137.1189978  83.5340014
  53.8399992 138.1479978  83.8710014  53.1589992 136.5129978  83.5380014
  54.4689992 137.1339978  82.4900014  55.1879992 136.4199978  84.3370014
  55.3589992 135.3559978  84.0650014  56.1649992 136.9269978  84.1880014
  54.9219992 136.3559978  85.8630014  54.5029992 137.3139978  86.2400014
  54.1419992 135.5689978  85.7900014  56.1069992 135.8789978  86.7070014
  56.5659992 135.0039978  86.2010014  56.7779992 136.7649978  86.6990014
  55.7949992 135.5339978  88.1290014  55.2479992 136.4489978  88.4420014
  55.0669992 134.6949978  88.1220014  56.9359992 135.2619978  89.1310014
  57.4579992 134.3599978  88.7450014  57.6659992 136.0879978  88.9930014
  56.5329992 135.0459978  90.5790014  56.2639992 136.0039978  91.0730014
  55.6399992 134.3909978  90.4880014  57.6769992 134.3779978  91.4650014
  57.7729992 133.2929978  91.2440014  58.6659992 134.8359978  91.2510014
  57.4549992 134.6149978  92.9380014  57.5019992 135.7109978  93.1130014
  56.5079992 134.3149978  93.4350014  58.6729992 134.1339978  93.8150014
  58.9099992 133.0519978  93.7370014  59.5609992 134.4859978  93.2460014
  58.6429992 134.6009978  95.2550014  59.7199992 134.6249978  95.5270014
  58.1779992 135.5969978  95.4170014  57.9219992 133.4509978  96.0960014
  56.9619992 133.3499978  95.5450014  58.4359992 132.4679978  96.0310014
  57.5859992 133.7959978  97.6030014  56.8029992 133.0829978  97.9420014
  58.4349992 133.5929978  98.2910014  57.0859992 135.2579978  97.8650014
  57.8149992 135.9959978  97.4670014  56.0309992 135.2549978  97.5150014
  56.9239992 135.6549978  99.3050014  56.3539992 134.9169978  99.9100014
  57.8719992 135.7339978  99.8780014  56.1469992 136.9879978  99.4820014
  56.1589992 137.8869978  98.6080014  55.5369992 136.9849978 100.5790014
  54.6149992 137.9409978 100.9150014  54.9909992 138.6279978 101.7030014
  54.3959992 138.6049978 100.0520014  53.3039992 137.2709978 101.4290014
  52.5709992 138.1049978 101.3960014  53.6049992 136.7629978 102.7980014
  54.4149992 137.3639978 103.2640014  52.6639992 136.9949978 103.3410014
  53.8249992 135.3059978 102.7920014  55.1829992 134.6829978 103.3270014
  55.5699992 133.7589978 102.0680014  54.4749992 132.8909978 101.5790014
  53.9639992 132.3589978 102.4100014  53.7759992 133.5599978 101.0340014
  55.0799992 131.8619978 100.5450014  54.2379992 131.3549978 100.0970014
  55.5139992 132.4099978  99.7220014  56.0729992 130.8569978 100.9800014
  57.3689992 131.5759978 101.3240014  57.7989992 132.0299978 100.4440014
  57.1299992 132.3139978 102.0760014  57.9869992 130.8279978 101.8000014
  55.7279992 130.0129978 102.1440014  55.3979992 130.5509978 103.0200014
  54.9979992 129.2659978 101.8710014  56.6119992 129.4649978 102.4350014
  56.2629992 129.8609978  99.8700014  57.1289992 129.2689978 100.1230014
  56.3979992 130.4769978  98.9930014  55.4069992 129.2029978  99.8360014
  56.2539992 135.7089978 103.4280014  54.9919992 133.7659978 104.4500014
  52.9919992 136.1959978 100.5240014  52.5489992 136.6599978  99.3420014
  52.2199992 137.8349978  99.2080014  52.8649992 135.5419978  98.2250014
  52.1399992 134.7009978  98.1940014  53.9099992 135.2019978  98.3920014
  52.9519992 136.2649978  96.8450014  53.6079992 137.1509978  96.9880014
  51.9619992 136.7209978  96.6300014  53.3019992 135.4029978  95.6210014
  52.4649992 134.7039978  95.4070014  54.2309992 134.8639978  95.9050014
  53.5529992 136.2779978  94.4330014  54.5459992 136.0639978  93.9820014
  53.7019992 137.3539978  94.6650014  52.7219992 136.0449978  93.0950014
  52.9979992 136.9279978  92.4790014  51.6219992 136.0819978  93.2490014
  53.0349992 134.7389978  92.3190014  52.7989992 133.8449978  92.9370014
  54.1039992 134.6089978  92.0460014  52.2299992 134.6019978  91.0790014
  51.1809992 134.4519978  91.4140014  52.4229992 133.6159978  90.6050014
  52.4789992 135.5859978  89.9330014  53.3229992 136.2569978  90.1460014
  51.6749992 135.7519978  88.8380014  51.7719992 136.6149978  88.1630014
  50.3959992 134.9889978  88.6550014  49.6319992 135.7869978  88.5420014
  50.0439992 134.5159978  89.5960014  50.1529992 134.0839978  87.4260014
  50.4859992 134.6309978  86.5180014  49.0909992 133.8359978  87.2130014
  51.0109992 132.8169978  87.4150014  50.8739992 132.3969978  88.4340014
  51.9829992 133.3209978  87.2270014  50.6169992 131.8229978  86.3890014
  49.5149992 131.7099978  86.4810014  51.0889992 130.8369978  86.5900014
  51.0999992 132.2249978  84.9680014  50.7779992 133.1989978  84.5420014
  50.6149992 131.4909978  84.2900014  52.6999992 131.9799978  84.8180014
  52.8529992 130.9539978  85.2150014  53.2469992 132.6369978  85.5280014
  53.3069992 131.9259978  83.3790014  52.7319992 131.1979978  82.7670014
  54.3199992 131.5019978  83.5500014  53.3529992 133.2239978  82.6320014
  54.0409992 133.8879978  83.1970014  52.3299992 133.6539978  82.5750014
  53.7739992 133.0169978  81.6250014  40.0959992 127.7999978  83.5580014
  40.7639992 128.3979978  84.2140014  39.8959992 128.2019978  82.5420014
  40.4159992 126.7479978  83.3990014  38.7649992 127.7199978  84.4660014
  37.9159992 127.5639978  83.7660014  38.8309992 126.8149978  85.1070014
  38.4099992 128.8309978  85.4410014  38.2329992 129.7399978  84.8280014
  37.4299992 128.6069978  85.9150014  39.5159992 129.2159978  86.4770014
  40.2129992 129.9499978  86.0190014  38.7529992 129.6929978  87.1280014
  40.0979992 128.0739978  87.1970014  39.2369992 127.4819978  87.5730014
  40.7009992 127.5649978  86.4150014  41.0719992 128.4009978  88.3090014
  41.7959992 129.1989978  88.0400014  40.5989992 128.7459978  89.2540014
  41.8729992 127.1829978  88.6300014  41.1569992 126.4179978  88.9990014
  42.2709992 126.6669978  87.7310014  43.0249992 127.3689978  89.6160014
  43.3729992 126.3759978  89.9730014  43.8599992 127.8429978  89.0580014
  42.8419992 128.2909978  90.8850014  43.8119992 128.3969978  91.4170014
  42.4619992 129.2879978  90.5730014  41.8649992 127.7209978  91.8760014
  40.8269992 128.1079978  91.7950014  41.9229992 126.6229978  91.7150014
  42.2149992 127.8929978  93.3180014  43.2629992 127.6799978  93.6200014
  41.9909992 128.9579978  93.5370014  41.2869992 126.9959978  94.1470014
  40.3129992 127.5299978  94.1180014  41.2219992 126.0399978  93.5850014
  41.6169992 126.6759978  95.6720014  40.7729992 126.1419978  96.1590014
  42.5279992 126.0399978  95.6810014  41.8829992 127.9449978  96.4480014
  42.4559992 128.5969978  95.7540014  40.9549992 128.3679978  96.8870014
  42.6259992 127.5889978  97.7380014  41.8439992 127.0769978  98.3390014
  43.4739992 126.8829978  97.6020014  43.1249992 128.7099978  98.5880014
  43.9589992 128.6369978  99.4800014  42.6419992 129.8369978  98.0860014
  43.2869992 131.0659978  98.4000014  43.9409992 130.8919978  99.2820014
  44.0029992 131.2429978  97.5690014  42.3129992 132.1649978  98.6430014
  42.9639992 133.0649978  98.6080014  41.6529992 132.0459978 100.0290014
  42.3589992 131.8379978 100.8620014  41.0419992 132.9479978 100.2440014
  40.9919992 130.7829978 100.1320014  39.6019992 130.7129978 100.9800014
  39.4559992 129.1469978 101.4280014  40.3169992 128.1859978 100.9820014
  39.9059992 127.1579978 101.0660014  40.6569992 128.3319978  99.9340014
  41.6109992 128.0219978 101.8480014  42.2749992 127.3239978 101.3590014
  42.0209992 129.0119978 101.7050014  41.5029992 127.6599978 103.3650014
  40.8069992 128.7899978 104.0920014  40.8649992 128.5199978 105.1360014
  41.3109992 129.7359978 103.9590014  39.7789992 128.7859978 103.7620014
  40.8259992 126.3039978 103.5300014  41.5439992 125.5939978 103.1470014
  40.7069992 126.1949978 104.5980014  39.8629992 126.3849978 103.0470014
  42.9519992 127.5049978 103.8740014  42.8599992 127.3209978 104.9340014
  43.6139992 128.3569978 103.9240014  43.3619992 126.6199978 103.4110014
  39.7579992 131.6309978 102.2010014  38.5329992 131.0679978 100.0740014
  41.3379992 132.1139978  97.5890014  40.7839992 133.3009978  97.3180014
  41.0309992 134.3469978  97.9140014  39.8469992 133.1739978  96.1100014
  39.8359992 134.0629978  95.4440014  38.8679992 132.9179978  96.5700014
  40.3899992 132.0049978  95.0750014  39.6629992 131.8269978  94.2540014
  40.3389992 131.0979978  95.7140014  41.7639992 132.2399978  94.4180014
  42.2019992 131.3089978  93.9980014  42.5349992 132.5939978  95.1360014
  41.6319992 133.1019978  93.2260014  41.3579992 134.1559978  93.4460014
  40.7869992 132.7589978  92.5910014  42.9229992 133.2019978  92.3520014
  43.8549992 133.2029978  92.9560014  42.8049992 134.1469978  91.7810014
  43.1689992 132.2029978  91.2260014  42.3729992 132.3069978  90.4580014
  43.1049992 131.1519978  91.5830014  44.4119992 132.4539978  90.4100014
  45.2499992 132.6219978  91.1200014  44.3459992 133.3819978  89.8020014
  44.7639992 131.1909978  89.6370014  45.1039992 130.2969978  90.1800014
  44.7339992 130.9549978  88.3320014  45.2299992 130.0769978  87.8910014
  44.3509992 131.9349978  87.2840014  45.2369992 132.2019978  86.6690014
  44.1209992 132.9399978  87.6990014  43.1939992 131.3129978  86.5220014
  42.3159992 131.3119978  87.2040014  43.2749992 130.2769978  86.1300014
  42.6469992 131.9919978  85.1980014  41.6869992 131.5679978  84.8340014
  43.4689992 131.7759978  84.4820014  42.3899992 133.5169978  85.4760014
  43.3349992 134.0219978  85.7700014  41.7189992 133.5199978  86.3610014
  41.8749992 134.3699978  84.3200014  40.9369992 133.9129978  83.9360014
  42.5889992 134.3459978  83.4690014  41.4899992 135.7069978  84.9360014
  42.3789992 136.2449978  85.3300014  40.9039992 135.4859978  85.8540014
  40.5959992 136.5739978  84.0540014  40.0099992 137.3299978  84.6190014
  39.8079992 136.0199978  83.5000014  41.6109992 137.2919978  83.0410014
  41.0539992 137.7189978  82.1800014  42.3099992 136.5049978  82.6850014
  42.1249992 138.1209978  83.5740014 120.7809992 122.8229978  85.3570014
 119.8119992 123.3619978  85.4250014 120.5839992 122.0149978  84.6210014
 121.5059992 123.4829978  84.8360014 121.2609992 122.2709978  86.6410014
 120.4319992 121.6109978  86.9740014 122.0749992 121.5309978  86.4870014
 121.6149992 123.2659978  87.8240014 122.0149992 122.5689978  88.5910014
 122.3939992 123.9859978  87.4940014 120.4359992 123.9509978  88.3700014
 120.7189992 124.9479978  88.7700014 119.7159992 124.0689978  87.5330014
 119.6719992 123.2239978  89.4740014 118.6399992 123.6059978  89.6220014
 119.8109992 122.1809978  89.1170014 120.3769992 123.2549978  90.7970014
 120.1379992 122.3569978  91.4070014 121.4559992 123.2129978  90.5370014
 120.1469992 124.4819978  91.7420014 120.3419992 125.4759978  91.2850014
 119.1289992 124.2589978  92.1270014 121.1009992 124.2199978  92.9610014
 120.5849992 124.7389978  93.7970014 121.2269992 123.1569978  93.2570014
 122.6159992 124.6519978  92.7630014 122.8089992 124.0959978  91.8210014
 122.5709992 125.7119978  92.4310014 123.6309992 124.3019978  93.8440014
 123.7029992 123.1929978  93.8350014 124.6269992 124.7119978  93.5710014
 123.2819992 124.7869978  95.2750014 122.2679992 124.3819978  95.4780014
 124.0539992 124.3289978  95.9290014 123.2349992 126.3609978  95.2680014
 124.2959992 126.6899978  95.2880014 122.8609992 126.8409978  94.3380014
 122.4019992 126.9459978  96.4810014 122.3769992 128.0389978  96.2880014
 121.4109992 126.4919978  96.2660014 122.9709992 126.4869978  97.8490014
 123.1369992 125.3899978  97.9010014 123.9019992 127.0799978  97.9730014
 122.0459992 126.7559978  99.0390014 122.5779992 126.4129978  99.9530014
 121.8649992 127.8519978  99.0480014 120.6719992 126.1169978  98.9760014
 119.8119992 126.3189978  98.1270014 120.6329992 125.2479978  99.9520014
 119.4649992 124.4079978 100.1370014 119.1389992 124.5219978 101.1930014
 118.5909992 124.6749978  99.5070014 119.7279992 122.8989978  99.9800014
 118.8249992 122.3049978 100.2350014 120.8499992 122.5329978 100.9820014
 121.5079992 123.4259978 101.0290014 120.4789992 122.3199978 102.0080014
 121.5339992 121.3849978 100.4910014 123.0349992 121.0979978 100.7850014
 123.7509992 122.5339978 100.7880014 124.8049992 122.8219978 101.7050014
 125.5659992 122.0159978 101.7760014 125.4639992 123.6439978 101.3520014
 124.3069992 123.2989978 103.1180014 123.4259992 122.7379978 103.3940014
 125.0889992 122.9989978 103.8000014 123.9649992 124.7459978 103.3750014
 122.8569992 125.2599978 102.4010014 122.7759992 126.3249978 102.5620014
 123.2659992 125.1249978 101.4110014 121.9439992 124.7609978 102.6920014
 123.4839992 124.7349978 104.7790014 123.2969992 125.6799978 105.2670014
 122.5359992 124.2249978 104.8730014 124.2259992 124.2589978 105.4020014
 125.1209992 125.6009978 103.2770014 126.0149992 125.2729978 103.7860014
 124.9879992 126.6639978 103.4090014 125.3789992 125.6419978 102.2290014
 123.2579992 120.5149978 102.1120014 123.4949992 120.2879978  99.6750014
 120.1559992 122.5989978  98.6540014 119.2549992 122.4159978  97.7430014
 118.0529992 122.3539978  97.9420014 119.8369992 122.1549978  96.4250014
 120.8319992 121.6609978  96.4350014 120.0159992 123.1769978  96.0270014
 118.8859992 121.4189978  95.4290014 117.9779992 122.0449978  95.2980014
 118.5349992 120.4959978  95.9370014 119.4069992 120.9799978  94.0310014
 119.7069992 121.9729978  93.6330014 118.5679992 120.4539978  93.5270014
 120.6819992 120.1689978  93.9350014 120.7959992 119.3969978  94.7260014
 121.5549992 120.8379978  94.0940014 120.9519992 119.5459978  92.5760014
 121.9629992 119.1009978  92.6930014 120.9229992 120.2539978  91.7200014
 119.9199992 118.4939978  92.0870014 118.8909992 118.8819978  91.9280014
 119.8749992 117.8019978  92.9550014 120.3209992 117.8019978  90.7100014
 119.7059992 116.8909978  90.5440014 121.3379992 117.3799978  90.8550014
 120.1589992 118.7489978  89.5520014 119.1289992 119.0609978  89.3230014
 121.1779992 119.2179978  88.8840014 120.9059992 119.9159978  88.0790014
 122.6279992 118.9889978  89.1060014 123.0829992 118.6559978  88.1490014
 122.8479992 118.1969978  89.8530014 123.3279992 120.2829978  89.3990014
 122.9699992 120.7549978  90.3390014 123.2389992 120.8029978  88.4210014
 124.7919992 120.2779978  89.7500014 125.0459992 119.7969978  90.7200014
 125.1199992 121.3179978  89.9600014 125.7229992 119.6409978  88.6840014
 125.3279992 118.6179978  88.5050014 126.7559992 119.5259978  89.0750014
 125.6309992 120.4149978  87.3680014 124.5959992 120.3219978  86.9770014
 126.2389992 119.8149978  86.6570014 126.0129992 121.8999978  87.2450014
 126.9649992 121.9399978  87.8160014 125.4099992 122.7059978  87.7160014
 126.3619992 122.2679978  85.7300014 126.8749992 121.3369978  85.4060014
 127.0579992 123.1239978  85.6000014 125.1889992 122.4909978  84.7760014
 124.9569992 121.5329978  84.2630014 125.4599992 123.2449978  84.0070014
 124.2339992 122.8069978  85.2470014 125.4369992  27.2319978  85.4310014
 124.3529992  27.1399978  85.6570014 125.8719992  26.2189978  85.2910014
 125.5989992  27.7389978  84.4560014 126.1659992  27.9329978  86.5630014
 127.2259992  28.1369978  86.3010014 125.5979992  28.8769978  86.7090014
 126.1339992  27.1329978  87.8560014 125.1409992  26.6789978  88.0580014
 126.8199992  26.2659978  87.7470014 126.5559992  27.9779978  89.1300014
 127.5079992  28.5039978  88.9010014 125.8079992  28.7659978  89.3650014
 127.0019992  27.1339978  90.4100014 127.1009992  27.8159978  91.2810014
 126.0979992  26.5269978  90.6320014 128.2289992  26.2229978  90.2190014
 128.1089992  25.5529978  89.3410014 129.1189992  26.8759978  90.0900014
 128.5639992  25.2319978  91.3610014 129.4329992  24.6079978  91.0620014
 128.9439992  25.8939978  92.1680014 127.4789992  24.2979978  91.8640014
 127.5519992  24.1519978  92.9630014 126.4959992  24.7949978  91.7170014
 127.3459992  22.8959978  91.3310014 126.2719992  22.6159978  91.3770014
 127.5359992  22.7399978  90.2470014 128.1889992  21.9039978  92.1330014
 129.2269992  22.1909978  91.8620014 128.0129992  22.0099978  93.2250014
 127.8869992  20.3939978  91.7540014 128.0579992  20.3389978  90.6580014
 128.6499992  19.8199978  92.3220014 126.4239992  19.8469978  92.0950014
 125.7019992  20.4179978  91.4730014 126.3379992  18.7509978  91.9350014
 125.9079992  19.9779978  93.5600014 126.0899992  21.0359978  93.8470014
 124.8289992  19.7169978  93.5160014 126.6719992  19.1429978  94.5990014
 126.5249992  18.0639978  94.3780014 127.7199992  19.4919978  94.7140014
 125.8739992  19.4599978  95.9440014 124.8309992  19.7199978  95.6610014
 125.8179992  18.5959978  96.6400014 126.5869992  20.6779978  96.6200014
 127.7779992  20.6419978  96.9760014 125.8339992  21.7459978  96.6930014
 126.3629992  22.9059978  97.3570014 127.3629992  22.7719978  97.8220014
 126.5799992  23.7919978  96.7230014 125.3489992  23.4499978  98.4010014
 125.5329992  24.5189978  98.6440014 125.5289992  22.7139978  99.7280014
 125.5959992  21.6249978  99.5170014 126.4939992  23.0659978 100.1500014
 124.4869992  22.9649978 100.6870014 124.4209992  24.2519978 101.5950014
 125.9169992  24.8589978 101.6300014 126.8519992  24.2849978 102.5160014
 126.4779992  24.3989978 103.5550014 127.0199992  23.1939978 102.3920014
 128.1879992  24.9079978 102.4670014 128.7319992  24.5659978 103.3350014
 128.6549992  24.4859978 101.5890014 128.2489992  26.4319978 102.4330014
 129.6519992  26.7279978 102.9290014 129.7029992  26.6679978 104.0070014
 130.3589992  26.0719978 102.4430014 129.7689992  27.7769978 102.7010014
 128.1419992  26.9259978 101.0210014 128.2649992  27.9919978 100.8950014
 128.8429992  26.3979978 100.3910014 127.1869992  26.5849978 100.6510014
 127.2259992  27.1679978 103.2390014 127.0889992  28.2009978 102.9560014
 127.4379992  27.1109978 104.2960014 126.2709992  26.6819978 103.1060014
 123.5839992  25.3619978 101.0480014 124.0809992  23.7679978 102.9420014
 124.0029992  23.2659978  98.0300014 123.5849992  24.1319978  97.0290014
 124.2619992  25.0329978  96.5680014 122.1909992  23.6549978  96.5760014
 121.5229992  24.5269978  96.4050014 121.7409992  23.1159978  97.4370014
 122.1589992  22.6759978  95.4450014 121.2719992  22.0119978  95.5260014
 123.0339992  21.9969978  95.5240014 122.0809992  23.3899978  94.0810014
 122.7519992  24.2549978  93.8940014 121.1379992  23.9759978  94.0440014
 122.1649992  22.3959978  92.8820014 121.1279992  22.0789978  92.6410014
 122.8189992  21.5269978  93.1040014 122.7479992  23.1009978  91.5760014
 123.7569992  23.4799978  91.8460014 122.1339992  24.0189978  91.4540014
 122.6919992  22.2619978  90.2650014 121.6449992  21.9499978  90.0610014
 123.2699992  21.3229978  90.4050014 123.4729992  22.8339978  89.0170014
 123.4529992  22.0659978  88.2150014 124.5349992  22.8369978  89.3440014
 122.9899992  24.2689978  88.6710014 123.4569992  25.1109978  89.2020014
 121.8769992  24.5649978  88.0060014 121.5409992  25.6079978  87.9100014
 120.7589992  23.6749978  87.4830014 119.9319992  23.9849978  88.1560014
 120.9559992  22.5909978  87.6310014 120.5109992  23.9219978  85.9900014
 120.1819992  24.9459978  85.7120014 119.6269992  23.2909978  85.7560014
 121.6399992  23.5149978  84.9610014 122.4909992  24.2299978  84.9800014
 121.3599992  23.6349978  83.8920014 122.1589992  22.0559978  85.1460014
 121.3859992  21.2769978  84.9720014 122.5189992  21.8309978  86.1730014
 123.3049992  21.7849978  84.1130014 124.2429992  22.2219978  84.5180014
 123.1259992  22.4549978  83.2450014 123.4809992  20.3519978  83.5700014
 123.1349992  19.6309978  84.3420014 124.5449992  20.2169978  83.2820014
 122.5959992  20.0929978  82.3230014 122.9219992  20.7929978  81.5240014
 121.5379992  20.3749978  82.5140014 122.7279992  18.6809978  81.6590014
 123.7839992  18.3369978  81.6490014 122.2389992  18.7589978  80.6650014
 122.2669992  17.8969978  82.2970014  36.1799992  25.4099978  82.4250014
  35.8329992  26.4609978  82.5090014  36.5959992  24.9729978  83.3580014
  35.2529992  24.7999978  82.3690014  36.9309992  25.3189978  81.1490014
  37.1399992  24.2599978  80.8860014  36.2799992  25.7189978  80.3420014
  38.1709992  26.2409978  81.1320014  38.7989992  25.9559978  80.2610014
  37.7099992  27.2229978  80.8930014  39.0349992  26.3739978  82.3900014
  39.8259992  27.1359978  82.2240014  38.3849992  26.7669978  83.2020014
  39.6659992  25.0139978  82.8720014  38.9439992  24.1719978  82.9360014
  40.4339992  24.6489978  82.1560014  40.3259992  24.9369978  84.2460014
  40.9769992  24.0409978  84.3350014  40.9889992  25.8209978  84.3620014
  39.2999992  24.8229978  85.4560014  38.5109992  25.5669978  85.2150014
  38.8819992  23.7939978  85.4480014  39.9139992  25.1799978  86.7920014
  40.7359992  24.4799978  87.0550014  40.3899992  26.1829978  86.7730014
  38.8969992  25.1469978  87.9200014  37.8719992  25.5539978  87.7850014
  38.7029992  24.0719978  88.1200014  39.3959992  25.7909978  89.1580014
  39.2999992  26.8949978  89.0810014  38.8189992  25.6079978  90.0900014
  40.9249992  25.5599978  89.5400014  41.6259992  26.1149978  88.8810014
  40.9859992  26.0669978  90.5270014  41.3959992  24.0919978  89.8760014
  41.4829992  23.4469978  88.9750014  42.4009992  24.0959978  90.3480014
  40.5129992  23.3749978  90.8480014  39.5239992  23.4759978  90.3520014
  40.6209992  22.2719978  90.9290014  40.3289992  23.9469978  92.2800014
  41.2489992  23.6949978  92.8510014  40.1449992  25.0369978  92.4000014
  39.1639992  23.2069978  93.0020014  38.2449992  23.6369978  92.5500014
  39.0849992  22.1059978  92.8700014  39.1859992  23.5799978  94.5650014
  40.2209992  23.9139978  95.1800014  37.9889992  23.6599978  94.9840014
  37.9579992  23.9259978  96.3840014  38.6729992  23.3039978  96.9650014
  38.1779992  24.9569978  96.7360014  36.6029992  23.4759978  97.0160014
  35.7749992  24.1539978  96.7140014  36.6949992  23.6609978  98.5480014
  37.6789992  23.2239978  98.8200014  36.6139992  24.7509978  98.7500014
  35.6419992  23.0569978  99.2100014  35.7609992  22.4219978 100.6330014
  36.5049992  23.5819978 101.4750014  37.8889992  23.5199978 101.6950014
  38.2879992  22.4839978 101.7120014  38.4189992  23.9799978 100.8340014
  38.4419992  24.0439978 103.0660014  38.2199992  23.3059978 103.8230014
  39.4949992  24.1679978 102.8580014  38.0779992  25.3529978 103.5560014
  37.9979992  26.3769978 102.4210014  37.2979992  26.0089978 101.6860014
  37.5639992  27.2479978 102.8900014  39.0059992  26.6029978 102.1040014
  36.7429992  25.2849978 104.1760014  36.3379992  26.2579978 104.4140014
  36.0419992  24.9599978 103.4220014  36.7049992  24.5649978 104.9800014
  39.1189992  25.8829978 104.5490014  40.0429992  26.1589978 104.0630014
  39.2899992  25.1069978 105.2810014  38.6699992  26.7739978 104.9630014
  34.4349992  22.2969978 101.1830014  36.5379992  21.1849978 100.5410014
  36.4039992  22.0789978  96.6700014  35.2269992  21.5399978  96.4180014
  34.1329992  22.0009978  96.5790014  35.5059992  20.1259978  95.8460014
  35.4649992  19.4079978  96.6930014  36.4849992  20.1359978  95.3210014
  34.4469992  19.8119978  94.8120014  33.3739992  19.9259978  95.0750014
  34.5019992  18.7179978  94.6270014  34.6119992  20.7419978  93.4870014
  35.7069992  20.7729978  93.3020014  34.3109992  21.7669978  93.7910014
  33.7959992  20.2469978  92.3070014  32.7689992  20.6489978  92.4350014
  33.7439992  19.1619978  92.5400014  34.3899992  20.4459978  90.9330014
  33.7649992  20.0799978  90.0910014  35.3649992  19.9319978  90.7920014
  34.6839992  21.9039978  90.5200014  34.8989992  22.4059978  91.4870014
  33.8129992  22.5049978  90.1790014  35.7809992  21.9959978  89.4190014
  35.5199992  21.3259978  88.5720014  36.7819992  21.7259978  89.8190014
  35.7129992  23.4159978  88.8580014  35.8499992  24.1459978  89.6700014
  35.4799992  23.9229978  87.5910014  35.4999992  25.0199978  87.5140014
  35.2549992  22.9859978  86.3990014  35.8699992  22.0649978  86.4840014
  35.6089992  23.4599978  85.4590014  33.8169992  22.6129978  86.0470014
  33.2289992  23.5199978  85.7900014  33.3949992  22.1729978  86.9760014
  33.6999992  21.5159978  84.9880014  34.1439992  21.9409978  84.0630014
  32.6459992  21.2929978  84.7190014  34.5059992  20.2579978  85.4100014
  34.2769992  20.1099978  86.4880014  35.6049992  20.2959978  85.2530014
  34.0899992  18.9929978  84.6510014  32.9959992  19.0529978  84.4670014
  34.3189992  18.1989978  85.3930014  34.9529992  18.6199978  83.4760014
  34.7669992  17.5489978  83.2450014  36.0319992  18.6929978  83.7290014
  34.5669992  19.4419978  82.1790014  35.4559992  19.2119978  81.5530014
  34.5779992  20.5209978  82.4440014  33.2329992  19.0379978  81.4680014
  32.4199992  19.0039978  82.2240014  33.3109992  17.9869978  81.1170014
  32.9769992  19.6919978  80.6080014  14.7929992 105.2099978  84.2470014
  14.6119992 104.2179978  84.7120014  14.2759992 105.1479978  83.2650014
  14.4359992 106.0209978  84.9170014  16.2939992 105.3699978  83.8870014
  16.3739992 104.6869978  83.0150014  16.5019992 106.3279978  83.3640014
  17.2759992 105.0259978  84.9830014  16.9789992 103.9999978  85.2880014
  18.3429992 105.1029978  84.6810014  17.1409992 105.9609978  86.1680014
  17.2569992 107.0279978  85.8790014  16.2179992 105.8089978  86.7670014
  18.3939992 105.8289978  87.0780014  18.4129992 104.7659978  87.3990014
  19.3409992 106.1199978  86.5750014  18.2699992 106.6759978  88.4150014
  18.5639992 107.7089978  88.1310014  17.2969992 106.5759978  88.9420014
  19.3729992 106.1779978  89.3840014  20.3339992 105.9939978  88.8580014
  19.4809992 107.0209978  90.1000014  19.0569992 104.9929978  90.2410014
  17.9779992 104.8489978  90.4660014  19.4609992 104.0959978  89.7240014
  19.5859992 105.1059978  91.6290014  20.6649992 105.3419978  91.5020014
  19.1739992 106.0339978  92.0800014  19.2489992 104.0009978  92.6580014
  19.5739992 103.0419978  92.2010014  19.9089992 104.1299978  93.5420014
  17.6969992 104.0039978  93.1190014  17.5099992 105.0929978  93.2330014
  17.0229992 103.4879978  92.4020014  17.3449992 103.2699978  94.4820014
  16.2459992 103.3989978  94.5810014  17.5809992 102.1899978  94.3680014
  18.2729992 103.7239978  95.6450014  17.9639992 103.0929978  96.5050014
  19.3319992 103.4419978  95.4650014  18.0979992 105.2489978  95.9170014
  18.5319992 105.7919978  95.0500014  17.0189992 105.4709978  96.0540014
  18.8929992 105.7129978  97.0930014  18.3909992 105.2769978  97.9840014
  19.9669992 105.4269978  97.0770014  18.7409992 107.2479978  97.2750014
  18.4869992 107.9769978  96.3300014  18.8599992 107.7049978  98.5480014
  18.4269992 109.0679978  98.7150014  19.1029992 109.7199978  99.3080014
  18.3869992 109.6169978  97.7500014  17.1549992 109.2269978  99.6080014
  16.8269992 110.2849978  99.5310014  17.3069992 108.7759978 101.0910014
  18.2759992 109.1639978 101.4710014  16.4609992 109.2419978 101.6390014
  17.1799992 107.4059978 101.2850014  16.5319992 106.7739978 102.6590014
  16.3589992 105.2419978 102.2530014  16.0949992 104.7999978 100.9370014
  15.4829992 105.5479978 100.3890014  17.0389992 104.5759978 100.3960014
  15.3089992 103.4569978 100.9940014  15.1409992 103.0039978 100.0280014
  16.0219992 102.7799978 101.4410014  14.0619992 103.4959978 101.7760014
  13.1739992 104.6329978 101.2070014  12.2159992 104.6129978 101.7040014
  13.6309992 105.5929978 101.3990014  12.9839992 104.4229978 100.1640014
  13.4219992 102.1659978 101.5280014  12.3719992 102.3179978 101.7280014
  13.5709992 102.0119978 100.4690014  13.9289992 101.5109978 102.2210014
  14.2329992 103.6819978 103.2610014  14.9639992 103.0049978 103.6770014
  13.2749992 103.4349978 103.6950014  14.5609992 104.7039978 103.3730014
  17.5049992 106.9049978 103.7360014  15.2039992 107.3499978 102.8710014
  16.0919992 108.4399978  99.0520014  15.3589992 108.9799978  98.0780014
  15.3179992 110.1509978  97.7600014  14.5159992 107.9099978  97.3060014
  13.6519992 107.4409978  97.8240014  15.1599992 107.0529978  97.0130014
  14.0099992 108.3519978  95.8880014  14.9329992 108.6649978  95.3540014
  13.3629992 109.2469978  96.0090014  13.3429992 107.2909978  95.1300014
  12.5929992 106.7649978  95.7590014  13.9939992 106.4409978  94.8340014
  12.6759992 107.7929978  93.8680014  13.4019992 108.3589978  93.2470014
  11.7559992 108.3599978  94.1260014  11.9669992 106.6209978  93.1180014
  11.1949992 107.0739978  92.4590014  11.4059992 106.1039978  93.9250014
  12.8809992 105.6679978  92.3950014  12.2309992 104.9099978  91.9080014
  13.5589992 105.0999978  93.0670014  13.5279992 106.3419978  91.0680014
  14.1499992 105.5169978  90.6580014  14.2309992 107.1839978  91.2410014
  12.5219992 106.6619978  90.0110014  11.9269992 105.7949978  89.6880014
  12.2669992 107.8299978  89.3780014  11.3539992 107.9159978  88.7700014
  12.9579992 109.1699978  89.5560014  13.9369992 109.1169978  90.0790014
  12.3869992 109.7649978  90.3010014  13.0779992 110.0619978  88.3630014
  13.6549992 110.9859978  88.5830014  12.1219992 110.5289978  88.0410014
  13.7249992 109.4899978  87.0850014  13.2609992 108.5019978  86.8750014
  14.8319992 109.4619978  87.1650014  13.4319992 110.5059978  85.9760014
  13.6619992 111.5279978  86.3460014  12.3319992 110.3749978  85.8990014
  14.0359992 110.2069978  84.5770014  15.1009992 110.0509978  84.8530014
  14.0019992 111.1359978  83.9680014  13.4549992 109.0589978  83.7730014
  12.3489992 109.1509978  83.7080014  13.6739992 108.1209978  84.3270014
  14.0639992 109.0409978  82.3890014  15.1049992 108.7139978  82.6010014
  13.7559992 109.9819978  81.8850014  13.4429992 107.9469978  81.5560014
  12.3849992 108.0559978  81.2380014  13.5369992 107.0219978  82.1650014
  14.0099992 107.8799978  80.6030014 136.8229992 113.9579978  83.7750014
 136.6869992 114.2919978  82.7240014 136.3659992 112.9479978  83.8550014
 137.8999992 113.9989978  84.0430014 135.9219992 114.9759978  84.5290014
 136.2899992 116.0169978  84.4080014 134.8999992 114.9089978  84.0990014
 135.7089992 114.6439978  85.9820014 136.6909992 114.8859978  86.4420014
 134.9869992 115.4279978  86.2960014 135.1469992 113.3479978  86.4980014
 134.1919992 113.2949978  85.9320014 135.7409992 112.4569978  86.2040014
 135.0629992 113.2369978  88.0050014 136.0669992 113.6119978  88.3010014
 134.2789992 113.9489978  88.3400014 134.8739992 111.9839978  88.7710014
 133.9119992 111.5329978  88.4480014 135.7409992 111.3039978  88.6260014
 134.8019992 112.1759978  90.3280014 133.8899992 112.8059978  90.4010014
 134.5509992 111.1939978  90.7820014 136.0519992 112.8199978  91.0090014
 136.9339992 112.1579978  90.8740014 136.3859992 113.7329978  90.4700014
 135.9729992 112.9989978  92.5160014 134.9659992 113.4059978  92.7510014
 136.3039992 112.0919978  93.0660014 137.0179992 114.0479978  93.0770014
 138.0529992 113.7979978  92.7580014 136.8179992 115.0709978  92.6920014
 136.9739992 114.0579978  94.6320014 137.3329992 113.0489978  94.9290014
 137.5859992 114.9159978  94.9850014 135.5739992 114.4659978  95.2680014
 135.1279992 115.3019978  94.6880014 134.8169992 113.7239978  94.9370014
 135.6369992 114.7679978  96.7920014 135.7209992 113.7779978  97.2900014
 136.5119992 115.3979978  97.0610014 134.3959992 115.5819978  97.3680014
 134.5349992 116.4979978  96.7560014 133.4919992 114.9829978  97.1240014
 134.6019992 115.8179978  98.8370014 134.9019992 114.8129978  99.2060014
 135.4619992 116.5199978  98.8820014 133.2879992 116.4119978  99.3720014
 132.7389992 117.4129978  98.8900014 132.7789992 115.7019978 100.3700014
 131.6069992 116.1739978 100.9790014 131.8359992 116.8899978 101.7970014
 130.8969992 116.4879978 100.1840014 130.6929992 115.0709978 101.5450014
 129.7549992 115.5749978 101.8630014 131.3189992 114.4759978 102.8610014
 131.6979992 115.3389978 103.4490014 130.5779992 113.8009978 103.3390014
 132.3979992 113.5929978 102.5080014 133.3269992 113.3269978 103.8120014
 134.4729992 112.5479978 103.1300014 135.2059992 113.2769978 102.1200014
 135.0619992 114.3779978 102.1520014 136.2739992 112.9729978 102.1550014
 134.9109992 112.7279978 100.6760014 133.9369992 113.0509978 100.3410014
 135.5899992 113.1719978  99.9630014 134.9579992 111.2379978 100.3880014
 133.7399992 110.5589978 101.0270014 132.8839992 111.1169978 100.6780014
 133.5959992 109.5119978 100.8040014 133.8979992 110.7119978 102.0840014
 134.8139992 111.1419978  98.8390014 135.6849992 111.5489978  98.3480014
 134.7979992 110.0719978  98.6950014 133.8809992 111.5749978  98.5080014
 136.2079992 110.5989978 100.8770014 136.1879992 110.5459978 101.9550014
 137.1119992 111.0509978 100.4940014 136.1769992 109.6079978 100.4480014
 133.8239992 114.6069978 104.4020014 132.5989992 112.4809978 104.7280014
 130.4419992 113.9969978 100.5080014 129.6079992 113.0099978 100.7400014
 128.9409992 112.8379978 101.8100014 129.4459992 112.1329978  99.4220014
 129.1899992 112.8549978  98.6170014 128.7599992 111.2919978  99.6620014
 130.8869992 111.6169978  99.1730014 130.9329992 110.6999978  99.7980014
 131.6169992 112.3729978  99.5330014 131.1969992 111.2899978  97.6730014
 130.2839992 110.8739978  97.1950014 131.8749992 110.4429978  97.4330014
 131.7699992 112.4439978  96.8430014 132.7319992 112.7039978  97.3340014
 131.1199992 113.3399978  96.9400014 132.0839992 112.0699978  95.3980014
 132.7509992 111.1819978  95.3930014 132.5759992 112.9489978  94.9300014
 130.7569992 111.8599978  94.6210014 130.1279992 112.7199978  94.9350014
 130.1379992 110.9679978  94.8530014 130.8659992 111.7399978  93.1130014
 129.8799992 111.5199978  92.6510014 131.6729992 110.9789978  93.0530014
 131.4329992 113.0789978  92.5910014 132.5029992 113.2619978  92.7690014
 130.8069992 113.9429978  91.8160014 131.3089992 114.8219978  91.3870014
 129.3909992 113.7879978  91.3030014 128.9369992 114.7959978  91.1980014
 128.7639992 113.2489978  92.0450014 129.3309992 112.8809978  90.0690014
 128.3249992 112.7659978  89.6110014 129.5589992 111.8409978  90.3860014
 130.2299992 113.2609978  88.8640014 130.1139992 112.4959978  88.0670014
 131.3029992 113.0719978  89.0840014 130.0569992 114.6499978  88.2190014
 130.5229992 115.5179978  88.7320014 128.9769992 114.8519978  88.0580014
 130.4259992 114.7869978  86.7240014 131.5329992 114.8039978  86.6230014
 130.1499992 115.8299978  86.4590014 129.8229992 113.7649978  85.8270014
 128.8079992 113.5269978  86.2110014 130.3689992 112.8009978  85.9110014
 129.7359992 114.2189978  84.3410014 128.8149992 114.8249978  84.2060014
 129.7669992 113.3139978  83.6980014 130.9299992 115.0849978  83.8340014
 130.9059992 116.1009978  84.2820014 130.7469992 115.2209978  82.7470014
 131.8599992 114.5279978  84.0760014 143.6029992  61.2719978  83.2390014
 144.4619992  61.5909978  82.6110014 142.7779992  61.9559978  82.9470014
 143.4709992  60.2089978  82.9410014 143.9769992  61.3609978  84.7460014
 144.9719992  60.9119978  84.9520014 144.0499992  62.4689978  84.7930014
 142.9409992  60.9509978  85.8720014 142.0109992  61.5349978  85.7000014
 142.8159992  59.8629978  85.6870014 143.6279992  61.1779978  87.2830014
 144.4989992  60.5019978  87.4240014 144.0659992  62.1989978  87.3070014
 142.6959992  60.8429978  88.4190014 142.4489992  59.7729978  88.2500014
 143.2629992  60.8079978  89.3740014 141.5059992  61.8629978  88.3890014
 141.9379992  62.8869978  88.3920014 140.8099992  61.4579978  87.6240014
 140.7609992  61.7239978  89.7100014 141.4159992  61.8829978  90.5930014
 140.0449992  62.5699978  89.6350014 140.0129992  60.3549978  89.8710014
 139.2569992  60.3739978  89.0570014 140.5709992  59.3949978  89.8750014
 139.1789992  60.3559978  91.1600014 138.5699992  61.2769978  91.0410014
 138.5309992  59.4569978  91.0840014 139.9779992  60.5769978  92.4230014
 140.4569992  61.5759978  92.3410014 139.4619992  60.5679978  93.4070014
 141.1549992  59.5599978  92.7470014 140.8349992  58.5179978  92.5310014
 141.9419992  59.8259978  92.0100014 141.7239992  59.6349978  94.1650014
 140.9809992  59.6849978  94.9890014 142.2569992  58.6929978  94.4150014
 142.7699992  60.7379978  94.3550014 142.3849992  61.5459978  93.6970014
 142.8519992  60.9849978  95.4350014 144.1719992  60.4979978  93.7020014
 144.7269992  59.5949978  94.0350014 143.8839992  60.2179978  92.6660014
 145.2089992  61.6699978  93.7070014 146.1689992  61.3319978  93.2620014
 144.8109992  62.4239978  92.9940014 145.4329992  62.3399978  95.0210014
 145.9039992  63.4679978  95.0940014 145.1859992  61.5299978  95.9760014
 145.3569992  62.1759978  97.3680014 145.9769992  61.4839978  97.9780014
 145.8839992  63.1539978  97.3720014 144.0209992  62.3789978  98.1300014
 144.1029992  63.2009978  98.8720014 143.6069992  61.0859978  98.7720014
 143.7629992  60.2459978  98.0610014 144.2879992  60.9169978  99.6330014
 142.2779992  61.0419978  99.1640014 141.7509992  61.9609978 100.4300014
 140.4309992  61.1509978 100.8100014 140.4569992  60.2259978 101.8670014
 139.6709992  59.4919978 101.5880014 141.3419992  59.5609978 101.7780014
 140.2849992  60.7839978 103.3810014 140.5169992  60.0059978 104.0940014
 141.0679992  61.5229978 103.2890014 139.0249992  61.4819978 103.7430014
 138.7459992  62.5399978 102.6670014 138.6629992  62.0589978 101.7040014
 137.8309992  63.0509978 102.9280014 139.5069992  63.3049978 102.6250014
 137.9309992  60.5159978 103.8480014 136.9869992  61.0369978 103.8010014
 137.8099992  59.9219978 102.9550014 138.0019992  60.0089978 104.7990014
 139.1709992  62.1879978 105.0780014 138.1949992  62.4869978 105.4300014
 139.8219992  63.0349978 104.9200014 139.6229992  61.5029978 105.7810014
 142.8149992  61.8579978 101.5100014 141.3559992  63.2989978 100.0070014
 142.9659992  62.7569978  97.2450014 143.0069992  63.9729978  96.6590014
 143.8319992  64.8569978  96.7240014 141.8299992  64.0779978  95.7590014
 141.1049992  63.3299978  96.1450014 142.2309992  63.7049978  94.7920014
 141.2339992  65.4989978  95.4760014 141.9719992  66.3259978  95.4000014
 140.4579992  65.7209978  96.2390014 140.4179992  65.4559978  94.1390014
 139.6729992  66.2789978  94.1610014 139.8949992  64.4799978  94.0410014
 141.3809992  65.6209978  92.8990014 142.3119992  65.0299978  93.0350014
 141.6689992  66.6939978  92.9100014 140.6979992  65.3209978  91.6180014
 139.9969992  66.1599978  91.4230014 140.0759992  64.4139978  91.7790014
 141.6119992  65.0609978  90.3920014 140.8879992  64.6609978  89.6500014
 142.2709992  64.2039978  90.6480014 142.3359992  66.3229978  89.9020014
 142.9339992  65.9379978  89.0490014 143.0309992  66.7959978  90.6280014
 141.3629992  67.4799978  89.4650014 141.3409992  68.3739978  90.1060014
 140.4249992  67.4259978  88.5020014 139.8949992  68.3819978  88.3770014
 140.0739992  66.2619978  87.5460014 139.1129992  65.7549978  87.7760014
 140.8499992  65.4669978  87.5500014 139.9249992  66.6809978  86.0290014
 139.1339992  67.4339978  85.8240014 139.6769992  65.7319978  85.5080014
 141.2289992  67.2239978  85.2680014 142.0489992  66.4809978  85.3630014
 141.5789992  68.1859978  85.7000014 140.7869992  67.4429978  83.7690014
 141.6869992  67.7199978  83.1790014 140.0059992  68.2319978  83.7310014
 140.2459992  66.1859978  83.0320014 140.0579992  66.4709978  81.9750014
 139.2929992  65.8719978  83.5080014 141.1059992  64.8729978  83.0540014
 140.6419992  64.1219978  82.3790014 141.0969992  64.4659978  84.0870014
 142.5709992  65.1909978  82.6030014 143.0379992  64.2379978  82.9340014
 142.8919992  66.0759978  83.1930014 142.7959992  65.4909978  81.1110014
 141.9079992  65.9569978  80.6320014 142.9339992  64.5549978  80.5290014
 143.7039992  66.1079978  80.9440014  11.6689992  56.7559978  84.0390014
  12.2449992  57.4339978  83.3750014  10.7949992  57.4139978  84.2320014
  11.5089992  55.7829978  83.5260014  12.5229992  56.6029978  85.3450014
  12.0239992  55.7549978  85.8600014  13.5489992  56.3059978  85.0400014
  12.6119992  57.8389978  86.2570014  12.8569992  58.6859978  85.5820014
  11.6809992  58.0939978  86.8060014  13.8009992  57.7269978  87.1470014
  14.7539992  57.5489978  86.6040014  13.6989992  58.6329978  87.7810014
  13.7469992  56.5559978  88.1940014  12.8039992  56.7299978  88.7560014
  13.7889992  55.5959978  87.6360014  14.9269992  56.5019978  89.1530014
  15.7699992  56.3629978  88.4430014  14.9919992  57.4859978  89.6650014
  14.7119992  55.4019978  90.2130014  13.6209992  55.4939978  90.3990014
  14.8139992  54.4469978  89.6550014  15.7209992  55.5789978  91.4430014
  16.7619992  55.5679978  91.0550014  15.5619992  56.5899978  91.8750014
  15.7139992  54.4509978  92.4550014  16.4499992  53.7319978  92.0360014
  16.0629992  54.8429978  93.4340014  14.3389992  53.7209978  92.7490014
  13.6199992  54.4159978  93.2330014  13.9859992  53.4229978  91.7380014
  14.4509992  52.5199978  93.7060014  13.4249992  52.1009978  93.7790014
  15.0819992  51.7829978  93.1660014  15.0729992  52.8169978  95.0470014
  15.2589992  51.8909978  95.6320014  16.0169992  53.3839978  94.9030014
  14.2569992  53.6819978  95.9270014  14.0509992  54.6509978  95.4240014
  13.2999992  53.1449978  96.1030014  14.8969992  54.0849978  97.3320014
  14.1739992  54.3699978  98.1260014  15.4299992  53.1929978  97.7230014
  15.8139992  55.3239978  97.0790014  16.4709992  54.9299978  96.2740014
  15.2049992  56.1859978  96.7300014  16.6309992  55.7209978  98.2660014
  16.8819992  54.9879978  99.2190014  17.1119992  56.9419978  98.0940014
  17.9529992  57.3389978  99.2090014  18.1819992  56.5509978  99.9580014
  18.9709992  57.5379978  98.8120014  17.2399992  58.5439978  99.9850014
  17.9279992  58.8489978 100.8030014  15.9259992  58.0739978 100.6610014
  16.2209992  57.0789978 101.0550014  15.6199992  58.7229978 101.5090014
  14.9349992  57.8039978  99.7690014  13.3649992  57.6449978 100.2960014
  13.3069992  56.6279978 101.4860014  13.7279992  55.2459978 101.3300014
  13.0839992  54.8279978 100.5270014  14.8289992  55.1689978 101.1980014
  13.5619992  54.3559978 102.5670014  12.5279992  54.0809978 102.7100014
  14.0879992  53.4279978 102.3980014  13.9479992  54.9159978 103.9290014
  15.3649992  55.4609978 103.9520014  16.0469992  54.6689978 103.6790014
  15.3579992  56.3769978 103.3790014  15.6039992  55.8459978 104.9320014
  13.0949992  56.1239978 104.3100014  13.3739992  56.4559978 105.2990014
  13.3939992  56.9479978 103.6790014  12.0299992  55.9659978 104.2230014
  13.8689992  53.7959978 104.9490014  14.2789992  54.1249978 105.8930014
  14.2109992  52.8479978 104.5610014  12.8359992  53.5309978 105.1190014
  12.9199992  58.9409978 100.8500014  12.6929992  57.1419978  99.0680014
  16.9789992  59.5839978  99.0140014  16.1409992  60.5819978  99.3760014
  16.0999992  61.0999978 100.4790014  15.4089992  60.9839978  98.1400014
  16.0469992  61.7209978  97.6060014  14.5349992  61.6009978  98.4420014
  15.0249992  59.7759978  97.2190014  14.2389992  59.1239978  97.6560014
  15.8019992  59.0069978  97.0270014  14.5929992  60.0859978  95.7840014
  13.7309992  60.7849978  95.8180014  14.1559992  59.1739978  95.3240014
  15.6489992  60.6879978  94.8850014  15.9969992  61.6109978  95.3970014
  15.2159992  60.9599978  93.8990014  16.9359992  59.7999978  94.7030014
  16.6299992  58.7549978  94.4820014  17.4639992  59.8799978  95.6770014
  17.8989992  60.4339978  93.7300014  18.9089992  60.1909978  94.1230014
  17.7409992  61.5329978  93.7440014  17.8819992  60.0139978  92.2710014
  18.4689992  59.0729978  92.3460014  18.6029992  60.7099978  91.7910014
  16.6099992  59.9069978  91.4520014  15.6899992  59.6989978  92.0180014
  16.4409992  60.1559978  90.1210014  15.4499992  60.0619978  89.6540014
  17.6069992  60.5969978  89.2300014  18.5109992  60.8339978  89.8310014
  17.3219992  61.4979978  88.6480014  18.0039992  59.5009978  88.2540014
  17.0449992  59.2599978  87.7480014  18.3839992  58.5869978  88.7580014
  18.9169992  60.0709978  87.1070014  19.9149992  60.3109978  87.5320014
  18.4609992  60.9919978  86.6840014  19.2239992  59.1939978  85.8100014
  19.5839992  58.2289978  86.2250014  20.0109992  59.7749978  85.2840014
  18.0549992  58.9729978  84.7990014  17.7069992  59.9969978  84.5440014
  17.2109992  58.4229978  85.2670014  18.5589992  58.3829978  83.4540014
  19.3439992  59.0779978  83.0860014  17.7099992  58.4439978  82.7400014
  18.9699992  56.9239978  83.6000014  19.8849992  56.8019978  84.2180014
  19.2489992  56.5339978  82.5980014  17.8609992  55.9769978  84.0200014
  16.9349992  56.2159978  83.4550014  17.7569992  56.1329978  85.1150014
  18.0969992  54.9139978  83.7960014 103.4749992 136.6949978  81.2570014
 103.1339992 135.7469978  81.7260014 104.3699992 136.4469978  80.6480014
 102.7439992 137.1029978  80.5260014 103.9289992 137.8549978  82.2420014
 103.7359992 138.8529978  81.7950014 103.3109992 137.8319978  83.1650014
 105.2759992 137.6519978  82.9600014 105.1649992 136.7629978  83.6190014
 105.9299992 137.4249978  82.0920014 105.7269992 138.8089978  83.7640014
 105.6359992 139.6439978  83.0370014 105.0369992 139.0209978  84.6090014
 107.0729992 138.7099978  84.4280014 107.7809992 138.3439978  83.6530014
 107.3359992 139.7689978  84.6380014 107.1559992 137.8549978  85.6920014
 106.2949992 137.1539978  85.6460014 108.1089992 137.2889978  85.6080014
 107.0919992 138.6709978  86.9880014 107.9509992 139.3499978  87.1730014
 106.2629992 139.4109978  86.9920014 107.0319992 137.9139978  88.2100014
 106.1999992 137.1789978  88.1600014 107.9189992 137.2449978  88.1860014
 107.0519992 138.6459978  89.6320014 108.0439992 139.1319978  89.7450014
 106.2179992 139.3719978  89.5160014 106.9279992 137.7009978  90.8100014
 106.0029992 137.1139978  90.6220014 107.7859992 136.9969978  90.8650014
 106.6119992 138.4029978  92.1410014 107.1319992 137.8869978  92.9770014
 107.1009992 139.3889978  91.9890014 105.0989992 138.5069978  92.3580014
 104.7339992 139.2979978  91.6680014 104.5119992 137.5699978  92.2490014
 104.6899992 138.9989978  93.7370014 103.6059992 139.2299978  93.8110014
 104.9879992 138.2129978  94.4630014 105.2839992 140.4299978  94.0830014
 106.3929992 140.4879978  94.0560014 104.8939992 141.0999978  93.2870014
 104.7359992 141.0709978  95.3570014 105.1079992 142.1149978  95.2750014
 103.6319992 141.0099978  95.2500014 105.0719992 140.5309978  96.7650014
 105.8399992 139.5659978  96.9160014 104.4989992 141.2299978  97.6430014
 104.7969992 140.8719978  99.0470014 105.5759992 140.0859978  99.1400014
 105.1239992 141.7749978  99.6050014 103.6349992 139.9679978  99.6030014
 102.7539992 140.6439978  99.6290014 103.9259992 139.5849978 101.0620014
 104.4249992 140.3919978 101.6400014 102.9379992 139.4539978 101.5520014
 104.7109992 138.4109978 101.0570014 105.5139992 138.0349978 102.3460014
 105.2209992 136.4999978 102.5590014 104.0049992 136.1509978 103.2970014
 104.2489992 136.1129978 104.3800014 103.1539992 136.8619978 103.2320014
 103.4419992 134.7569978 102.9190014 104.2399992 134.0319978 102.9890014
 102.6459992 134.5609978 103.6210014 102.8439992 134.5139978 101.5140014
 103.8539992 134.7289978 100.4580014 104.8129992 134.2329978 100.4980014
 103.5549992 134.5829978  99.4300014 104.1249992 135.7719978 100.3890014
 102.4929992 133.0749978 101.5010014 101.8829992 132.8659978 100.6350014
 103.3449992 132.4119978 101.5100014 101.8589992 132.7989978 102.3310014
 101.6989992 135.3949978 101.2680014 101.0109992 135.3529978 102.1010014
 101.1659992 135.0829978 100.3820014 102.0009992 136.4129978 101.0680014
 106.9179992 138.2189978 102.1070014 104.9679992 138.7989978 103.4790014
 103.3809992 138.8329978  98.7860014 102.1189992 138.3529978  98.6700014
 101.0999992 138.6549978  99.2790014 102.1479992 137.3889978  97.4610014
 102.1549992 138.0059978  96.5370014 101.2229992 136.7749978  97.4880014
 103.3309992 136.4839978  97.3220014 103.8249992 136.3749978  98.3110014
 104.1249992 137.0189978  96.7590014 103.0519992 135.1079978  96.6370014
 102.5579992 134.5159978  97.4360014 104.0789992 134.7609978  96.3930014
 102.1719992 135.1769978  95.4220014 102.6049992 135.9529978  94.7550014
 101.2199992 135.5459978  95.8610014 102.0769992 133.8559978  94.6890014
 101.7629992 132.9909978  95.3110014 103.0279992 133.5169978  94.2250014
 100.9899992 133.8189978  93.6750014 100.0279992 133.8769978  94.2270014
 101.0409992 132.8379978  93.1550014 100.9669992 134.9519978  92.6140014
 101.9899992 135.2539978  92.3040014 100.4779992 135.8849978  92.9670014
 100.1689992 134.5109978  91.4420014  99.1889992 134.0299978  91.5810014
 100.5239992 134.7289978  90.1760014  99.7669992 134.4579978  89.4250014
 101.7489992 135.4489978  89.7180014 102.1179992 134.9139978  88.8170014
 102.5809992 135.4529978  90.4540014 101.5669992 136.9299978  89.0580014
 101.4979992 137.6629978  89.8900014 100.5839992 136.9109978  88.5430014
 102.6819992 137.2069978  88.0250014 103.7279992 137.0039978  88.3400014
 102.7439992 138.2919978  87.7920014 102.3839992 136.5209978  86.6490014
 102.4399992 135.4119978  86.6480014 103.1489992 136.7889978  85.8900014
 101.0549992 137.0169978  85.9330014 101.2789992 138.1009978  85.8430014
 100.2189992 136.8379978  86.6420014 100.6469992 136.3579978  84.6210014
 100.2119992 135.3709978  84.8860014 101.5369992 136.1119978  84.0010014
  99.6279992 137.1899978  83.7730014  98.7949992 137.4359978  84.4650014
  99.2869992 136.6359978  82.8720014 100.2039992 138.4909978  83.2050014
 100.9479992 138.1189978  82.4680014 100.6549992 139.0389978  84.0600014
  99.4939992 139.1189978  82.6260014  94.9829992 138.8979978  83.5430014
  94.2419992 139.7249978  83.4820014  94.4319992 137.9659978  83.2950014
  95.7659992 139.0059978  82.7620014  95.5259992 138.6759978  84.9750014
  96.3499992 139.3819978  85.2130014  94.6789992 138.8769978  85.6660014
  96.1909992 137.2739978  85.2060014  95.4829992 136.5019978  84.8350014
  97.0729992 137.1249978  84.5470014  96.6829992 136.9599978  86.5900014
  97.4839992 136.1909978  86.5620014  97.0829992 137.8879978  87.0530014
  95.5839992 136.5399978  87.5500014  94.7449992 137.2649978  87.4950014
  95.2229992 135.5179978  87.3070014  96.0629992 136.4299978  89.0220014
  96.9629992 135.7809978  89.0820014  96.5039992 137.3819978  89.3890014
  95.0029992 135.8599978  90.0050014  94.4509992 134.9379978  89.7210014
  95.4319992 135.5869978  90.9930014  93.9649992 136.9459978  90.3470014
  93.4239992 137.3009978  89.4440014  93.1299992 136.5539978  90.9660014
  94.5689992 138.2129978  91.0770014  95.1649992 138.7779978  90.3290014
  93.7539992 138.9439978  91.2630014  95.5079992 137.9649978  92.2530014
  94.7999992 137.6999978  93.0670014  96.1139992 137.0349978  92.2080014
  96.5149992 139.1189978  92.4370014  97.0109992 139.2899978  91.4580014
  96.0029992 140.0749978  92.6820014  97.5759992 138.8259978  93.5680014
  97.9869992 137.8199978  93.3370014  98.4329992 139.5309978  93.5190014
  97.0179992 138.8129978  94.9330014  96.1729992 138.0909978  94.9440014
  97.7219992 138.3739978  95.6720014  96.6059992 140.1069978  95.6250014
  96.8099992 140.9699978  94.9540014  95.5189992 140.1389978  95.8530014
  97.3449992 140.3299978  96.9190014  97.0539992 139.4599978  97.5450014
  98.4489992 140.3149978  96.7990014  96.9729992 141.7119978  97.4660014
  97.1079992 142.7169978  96.8070014  96.3399992 141.6019978  98.6040014
  95.6309992 142.6759978  99.1870014  95.8739992 142.8369978 100.2590014
  95.9119992 143.6509978  98.7340014  94.1219992 142.4639978  99.0080014
  93.6939992 143.4129978  99.3970014  93.7879992 141.3129978 100.0220014
  94.6669992 141.2379978 100.6970014  92.8349992 141.5079978 100.5580014
  93.6299992 139.9269978  99.4910014  93.4049992 138.7139978 100.5440014
  94.2969992 139.0919978 101.8500014  95.6799992 139.0159978 101.9660014
  96.2139992 139.3699978 101.0580014  96.0659992 139.5229978 102.8760014
  96.0519992 137.5379978 102.1880014  95.4359992 136.9659978 101.5090014
  97.0989992 137.4289978 101.9480014  95.8139992 136.9089978 103.5620014
  96.5419992 137.6269978 104.6100014  97.5869992 137.6179978 104.3380014
  96.1739992 138.6209978 104.8200014  96.4589992 137.1329978 105.5670014
  94.3269992 136.7469978 103.9340014  94.2439992 136.1919978 104.8560014
  93.8649992 137.7149978 104.0540014  93.7979992 136.1999978 103.1670014
  96.3699992 135.4859978 103.5310014  96.1659992 135.0159978 104.4810014
  97.4339992 135.5279978 103.3510014  95.8319992 134.9489978 102.7640014
  91.9759992 138.7389978 101.0190014  93.8279992 137.4979978  99.8130014
  93.7879992 142.2269978  97.6640014  92.4909992 141.9799978  97.3040014
  91.5559992 141.8159978  98.0840014  92.3399992 142.0429978  95.7700014
  93.3169992 142.0869978  95.2440014  91.6209992 142.8279978  95.4510014
  91.7539992 140.6419978  95.2170014  90.6779992 140.6849978  95.4930014
  92.2359992 139.8349978  95.8080014  91.8299992 140.4799978  93.6460014
  91.4499992 139.4519978  93.4650014  92.8899992 140.3979978  93.3240014
  91.0069992 141.5429978  92.9060014  91.3219992 142.5349978  93.2940014
  89.9699992 141.4199978  93.2840014  90.9999992 141.3139978  91.3700014
  90.6539992 140.2679978  91.2300014  92.0989992 141.2859978  91.2040014
  90.1779992 142.3999978  90.6130014  90.8019992 143.3159978  90.5360014
  89.3909992 142.7359978  91.3210014  89.5919992 142.0299978  89.2050014
  89.3569992 143.0379978  88.8040014  88.7419992 141.3149978  89.1790014
  90.6489992 141.3679978  88.3190014  91.2619992 140.6069978  88.8250014
  91.1859992 141.7399978  87.1500014  92.0439992 141.1749978  86.7550014
  90.7799992 142.9899978  86.4820014  89.7369992 143.2409978  86.7690014
  90.9179992 142.8059978  85.3950014  91.5489992 144.2179978  86.9410014
  91.3579992 144.1969978  88.0360014  91.1579992 145.1379978  86.4560014
  93.0759992 144.2399978  86.6840014  93.5709992 143.4339978  87.2670014
  93.4079992 145.2279978  87.0690014  93.5449992 144.0789978  85.1720014
  93.1529992 144.8399978  84.4640014  93.1569992 143.1139978  84.7790014
  95.0729992 144.0439978  84.9710014  95.4849992 145.0129978  85.3240014
  95.1809992 144.1649978  83.8720014  95.8179992 142.8719978  85.5730014
  95.4699992 141.8679978  85.2490014  95.6019992 142.8249978  86.6620014
  97.3199992 143.0049978  85.3360014  97.5669992 143.8979978  85.9490014
  97.5619992 143.3139978  84.2970014  98.1149992 141.8409978  85.8530014
  99.1959992 142.0149978  85.6640014  97.8419992 140.8849978  85.3570014
  98.0289992 141.7449978  86.9570014  15.1369992  89.5079978  84.5400014
  15.1869992  88.3999978  84.5960014  15.8149992  89.8499978  83.7290014
  14.1349992  89.7689978  84.1370014  15.4569992  90.3469978  85.7540014
  16.4099992  89.8789978  86.0810014  15.5829992  91.4339978  85.5610014
  14.4039992  90.1209978  86.8300014  13.4279992  90.5889978  86.5770014
  14.4089992  89.0189978  86.9670014  14.9469992  90.7699978  88.1360014
  15.8739992  90.2239978  88.4120014  15.3429992  91.7889978  87.9340014
  13.9019992  90.8089978  89.2450014  14.3789992  91.4759978  89.9950014
  12.9589992  91.3269978  88.9660014  13.6059992  89.4779978  89.7040014
  13.0869992  88.9899978  88.8510014  14.5589992  88.9289978  89.8640014
  12.8439992  89.5789978  91.0780014  13.3229992  88.8309978  91.7460014
  13.1359992  90.5349978  91.5640014  11.3349992  89.4069978  90.9610014
  10.9259992  90.1729978  90.2680014  11.1279992  88.4269978  90.4800014
  10.4869992  89.7249978  92.3020014  10.4049992  90.8329978  92.2920014
   9.4369992  89.3709978  92.2180014  11.1209992  89.2319978  93.6290014
  10.9859992  88.1429978  93.8060014  12.2159992  89.4119978  93.6830014
  10.3579992  89.7119978  94.8820014  10.3879992  90.8169978  94.9990014
   9.2539992  89.6029978  94.8130014  10.8179992  89.0059978  96.2060014
  10.3319992  89.6399978  96.9780014  10.2549992  88.0489978  96.1890014
  12.2799992  88.9299978  96.2640014  12.6629992  88.3359978  95.4070014
  12.6079992  89.9909978  96.2390014  12.8179992  88.3699978  97.6560014
  12.2229992  88.9109978  98.4230014  12.5759992  87.2859978  97.6130014
  14.2929992  88.4189978  98.0490014  14.2369992  88.2159978  99.1400014
  14.9009992  87.6299978  97.5580014  15.0419992  89.7609978  97.8050014
  15.0899992  90.3359978  96.7390014  15.6599992  90.1169978  98.9970014
  16.1149992  91.4669978  99.1340014  16.8529992  91.4289978  99.9630014
  16.5379992  91.8609978  98.1840014  15.0439992  92.3159978  99.8950014
  15.6329992  93.2499978 100.0220014  14.7059992  91.7559978 101.2610014
  15.6849992  91.5669978 101.7510014  14.1669992  92.5739978 101.7860014
  14.0629992  90.5109978 101.1090014  13.0889992  90.1049978 102.3150014
  11.8769992  91.1369978 102.2440014  11.2179992  91.3139978 101.0130014
  10.8899992  92.3759978 101.0350014  11.9069992  91.2139978 100.1480014
   9.8979992  90.5629978 100.8570014   9.4399992  90.8769978  99.9310014
  10.1449992  89.5179978 100.7400014   8.9059992  90.5789978 102.0360014
   8.2389992  91.8919978 102.2610014   8.9139992  92.6279978 102.6730014
   7.7169992  92.3119978 101.4140014   7.5219992  91.8059978 103.0630014
   7.7329992  89.6799978 101.6830014   8.0059992  88.9439978 100.9410014
   7.3369992  89.3639978 102.6370014   7.0669992  90.3919978 101.2190014
   9.5909992  90.1019978 103.3530014  10.0899992  89.1829978 103.0820014
   8.8299992  89.7939978 104.0550014  10.2059992  90.9099978 103.7210014
  12.4959992  88.7669978 102.0360014  13.7329992  90.3829978 103.5980014
  13.8969992  92.4059978  99.0020014  13.2659992  93.5789978  99.1580014
  13.6219992  94.4629978  99.9420014  12.0339992  93.7369978  98.2320014
  11.4129992  94.5969978  98.5610014  11.4319992  92.8189978  98.4030014
  12.4839992  93.9119978  96.8440014  13.0979992  93.0819978  96.4340014
  13.1689992  94.7849978  96.7920014  11.3059992  94.0179978  95.8930014
  10.6499992  94.8819978  96.1320014  10.7479992  93.0629978  95.9890014
  11.6149992  93.9989978  94.3550014  12.0559992  92.9949978  94.1810014
  12.5049992  94.6419978  94.1820014  10.4899992  94.0619978  93.2810014
   9.8059992  94.9159978  93.4780014  10.0039992  93.0649978  93.2220014
  11.1509992  94.2509978  91.8870014  11.8229992  93.4019978  91.6360014
  11.5909992  95.2639978  91.7670014  10.0149992  94.2259978  90.8400014
  10.4589992  94.8009978  90.0000014   9.2589992  94.9879978  91.1300014
   9.4269992  92.9669978  90.3900014  10.1199992  92.1119978  90.3750014
   8.2109992  92.8029978  89.8290014   7.8579992  91.8499978  89.4080014
   7.1129992  93.8439978  89.5600014   7.4779992  94.8679978  89.7900014
   6.2659992  93.6279978  90.2450014   6.5379992  93.8199978  88.1080014
   5.5239992  94.2189978  88.3260014   6.5739992  92.8769978  87.5220014
   7.2949992  94.8249978  87.1490014   7.4729992  95.8349978  87.5740014
   6.5559992  95.0539978  86.3520014   8.6109992  94.3099978  86.5210014
   8.4339992  93.3229978  86.0400014   9.3059992  94.1619978  87.3740014
   9.1979992  95.3999978  85.5760014   9.2989992  96.3079978  86.2090014
   8.4299992  95.6679978  84.8190014  10.4559992  94.8419978  84.9620014
  10.9549992  95.7069978  84.4740014  10.2059992  94.1459978  84.1330014
  11.3869992  94.0949978  85.9480014  10.9379992  93.1459978  86.3110014
  11.5119992  94.7899978  86.8050014  12.6699992  93.8389978  85.3300014
  13.3989992  93.6499978  86.1460014  13.0389992  94.7269978  84.7740014
  12.6569992  92.9179978  84.7090014 136.3409992  44.5069978  83.0500014
 135.7919992  45.4499978  82.8370014 136.0689992  44.4159978  84.1230014
 135.9549992  43.6089978  82.5220014 137.8099992  44.7309978  82.8500014
 138.4719992  44.0409978  83.4170014 138.0359992  44.4009978  81.8130014
 138.2539992  46.1769978  83.0380014 139.3149992  46.2419978  82.7150014
 137.6749992  46.7809978  82.3080014 138.0879992  46.7169978  84.4360014
 138.5479992  47.7249978  84.5250014 136.9959992  46.8749978  84.5670014
 138.6239992  45.9529978  85.6440014 138.0429992  45.0099978  85.7240014
 139.7289992  45.8429978  85.6690014 138.2609992  46.6369978  86.9040014
 138.9709992  47.4869978  86.9880014 137.3319992  47.2459978  86.8610014
 138.3679992  45.8059978  88.1670014 137.6739992  44.9419978  88.2470014
 139.4159992  45.4659978  88.3120014 138.0859992  46.7219978  89.3280014
 138.9379992  47.4029978  89.5360014 137.2429992  47.4199978  89.1350014
 138.0189992  46.0379978  90.6380014 137.5439992  45.0489978  90.4620014
 139.0409992  45.9909978  91.0710014 137.0619992  46.7509978  91.5520014
 136.0799992  46.7609978  91.0340014 136.8749992  46.2119978  92.5060014
 137.4529992  48.1919978  91.8380014 137.6879992  48.6879978  90.8720014
 136.5099992  48.6619978  92.1910014 138.6949992  48.3969978  92.7760014
 139.5359992  47.7449978  92.4550014 139.0439992  49.4459978  92.8820014
 138.4679992  47.9649978  94.2450014 138.0289992  46.9439978  94.2690014
 139.3919992  48.0469978  94.8570014 137.2829992  48.7539978  94.9430014
 137.6889992  49.7829978  95.0490014 136.3869992  48.6809978  94.2890014
 136.8879992  48.2769978  96.3580014 136.9769992  47.1819978  96.5240014
 137.6069992  48.6919978  97.0960014 135.4769992  48.8329978  96.8090014
 135.1999992  50.0419978  96.7420014 134.6919992  47.8449978  97.2030014
 133.5219992  48.3299978  97.9180014 133.6199992  49.3929978  98.2260014
 132.5779992  48.2219978  97.3430014 133.3389992  47.6069978  99.2860014
 132.3659992  47.9209978  99.7220014 134.4199992  48.1549978 100.2210014
 135.4069992  48.2849978  99.7270014 134.2039992  49.1999978 100.5310014
 134.5159992  47.1599978 101.3550014 135.2349992  47.6709978 102.6990014
 136.1969992  46.4879978 103.0480014 136.2549992  45.2089978 102.4220014
 136.7009992  44.4929978 103.1450014 135.2759992  44.9369978 101.9740014
 137.1399992  45.3409978 101.1510014 136.9519992  44.6029978 100.3850014
 136.7699992  46.1529978 100.5420014 138.6119992  45.6649978 101.4100014
 138.9409992  46.9579978 102.1230014 138.5509992  47.7799978 101.5410014
 138.4849992  46.8839978 103.0990014 140.0109992  47.0049978 102.2620014
 139.2439992  44.4749978 102.0650014 140.2769992  44.6249978 102.3450014
 138.6649992  44.2689978 102.9530014 139.1429992  43.6219978 101.4100014
 139.1539992  45.8209978 100.0340014 139.0009992  44.8859978  99.5150014
 140.2279992  45.9129978 100.0970014 138.5709992  46.5989978  99.5640014
 136.0599992  48.8999978 102.4150014 134.2359992  47.8489978 103.7850014
 133.4399992  46.1599978  99.1020014 132.4339992  45.6939978  98.3980014
 131.3279992  46.1769978  98.3290014 132.7629992  44.3879978  97.7100014
 131.9509992  43.6309978  97.7400014 133.5719992  43.8299978  98.2280014
 133.3539992  44.5809978  96.3420014 133.8669992  43.6689978  95.9700014
 134.1379992  45.3439978  96.5360014 132.4069992  45.2189978  95.3810014
 131.9539992  46.1119978  95.8640014 131.6209992  44.4569978  95.1930014
 132.8649992  45.5809978  93.9490014 133.1179992  44.6099978  93.4730014
 133.7219992  46.2809978  94.0460014 131.8259992  46.3599978  93.1220014
 131.6659992  47.3519978  93.5970014 130.8479992  45.8339978  93.0930014
 132.3329992  46.5089978  91.6940014 131.5169992  46.7629978  90.9840014
 132.5339992  45.4609978  91.3830014 133.6139992  47.4069978  91.5050014
 133.9609992  47.0959978  90.4960014 134.3429992  47.2289978  92.3240014
 133.3319992  48.8549978  91.6870014 133.0779992  49.1519978  92.7150014
 133.1869992  49.8749978  90.8250014 132.9639992  50.9079978  91.1310014
 133.3699992  49.8399978  89.3340014 133.1279992  50.7879978  88.8090014
 132.8669992  48.9809978  88.8390014 134.9139992  49.5759978  88.9430014
 135.2299992  48.5919978  89.3510014 135.4669992  50.4569978  89.3340014
 135.1539992  49.5389978  87.4340014 136.2569992  49.4079978  87.4050014
 134.7529992  50.4679978  86.9760014 134.4929992  48.3789978  86.7130014
 133.3819992  48.3809978  86.7420014 134.8359992  47.5089978  87.3120014
 134.8809992  48.3549978  85.2410014 134.5459992  47.4369978  84.7120014
 135.9849992  48.4679978  85.1990014 134.1069992  49.3829978  84.3950014
 134.4809992  50.4039978  84.6250014 133.0369992  49.3629978  84.6920014
 134.2619992  49.1199978  82.8440014 133.6079992  49.7709978  82.2250014
 133.8479992  48.1129978  82.6230014 135.6689992  49.1799978  82.3680014
 136.0699992  50.2139978  82.4240014 135.7549992  48.8989978  81.2960014
 136.4389992  48.5659978  82.8820014  25.1339992  36.7249978  80.9100014
  24.8159992  35.6829978  80.6920014  25.7709992  37.2109978  80.1400014
  24.2129992  37.3449978  80.9490014  26.0339992  36.7739978  82.1370014
  25.5049992  36.3769978  83.0300014  26.9379992  36.1609978  81.9330014
  26.6519992  38.1919978  82.2670014  27.1609992  38.5409978  81.3430014
  25.8579992  38.9379978  82.4830014  27.6879992  38.3119978  83.4460014
  28.5609992  37.6259978  83.4750014  28.2019992  39.2879978  83.3100014
  27.0849992  38.3989978  84.8170014  26.2689992  39.1509978  84.7590014
  26.5869992  37.4219978  84.9920014  28.0829992  38.6649978  85.9830014
  28.3579992  37.6469978  86.3310014  28.9859992  39.2439978  85.6920014
  27.5229992  39.4429978  87.2180014  27.1009992  40.4079978  86.8670014
  26.6979992  38.8439978  87.6600014  28.5179992  39.6979978  88.3100014
  29.2999992  40.3169978  87.8200014  27.9529992  40.2299978  89.1050014
  29.1859992  38.4379978  88.8990014  28.5659992  37.5159978  88.9050014
  30.0779992  38.1219978  88.3170014  29.8749992  38.7649978  90.2600014
  30.3789992  39.7229978  90.0080014  29.0269992  39.0259978  90.9280014
  30.8239992  37.7079978  90.6390014  30.3529992  36.7139978  90.4780014
  31.6279992  37.8479978  89.8850014  31.5579992  37.9399978  91.9780014
  32.4629992  37.2949978  91.9750014  32.0819992  38.9059978  91.8130014
  30.7219992  37.8179978  93.2870014  29.8219992  38.4689978  93.2680014
  30.4339992  36.7559978  93.4370014  31.7069992  38.0539978  94.4900014
  32.6779992  37.5339978  94.3430014  31.9969992  39.1209978  94.5970014
  31.1369992  37.3519978  95.7820014  31.0129992  36.2649978  95.5890014
  31.7209992  37.5409978  96.7080014  29.8229992  38.1199978  96.1960014
  29.7439992  39.3009978  96.1940014  28.8399992  37.2149978  96.5000014
  27.5159992  37.6999978  96.6460014  27.6339992  38.6999978  97.1140014
  27.0539992  38.0499978  95.6990014  26.6409992  36.8059978  97.5920014
  25.6619992  37.3299978  97.6360014  27.3609992  36.6879978  99.0380014
  28.3949992  36.3019978  98.9070014  27.4529992  37.6549978  99.5770014
  26.6779992  35.7949978  99.8690014  25.2639992  36.1969978 100.5780014
  25.5809992  35.7819978 102.0540014  26.0279992  34.4899978 102.4330014
  25.1299992  33.9079978 102.7310014  26.4899992  33.9629978 101.5710014
  27.0589992  34.6139978 103.5860014  26.4739992  34.9269978 104.4390014
  27.3919992  33.6049978 103.7820014  28.3159992  35.4169978 103.3610014
  28.0429992  36.8529978 103.4280014  27.4859992  37.1749978 102.5610014
  27.4289992  37.0689978 104.2900014  28.9209992  37.4689978 103.5550014
  29.2519992  35.1249978 104.5110014  30.2179992  35.5849978 104.3620014
  28.7499992  35.6839978 105.2870014  29.2819992  34.0709978 104.7430014
  28.9129992  35.0709978 102.0420014  29.0479992  34.0019978 102.1120014
  29.9129992  35.4739978 101.9870014  28.3039992  35.3919978 101.2090014
  25.0959992  37.6829978 100.4990014  24.1519992  35.3969978 100.1440014
  26.5339992  35.5329978  97.0280014  25.7459992  35.4399978  95.9790014
  24.9809992  36.2349978  95.5220014  25.8479992  33.9719978  95.4960014
  24.8949992  33.4999978  95.8150014  26.6729992  33.5239978  96.0910014
  26.0059992  33.8259978  93.9610014  25.1269992  34.3699978  93.5540014
  26.0569992  32.8049978  93.5270014  27.2809992  34.4489978  93.4240014
  28.0569992  33.9699978  94.0590014  27.3269992  35.5369978  93.6450014
  27.6319992  34.1429978  91.9280014  26.7459992  34.6119978  91.4510014
  27.5839992  33.0469978  91.7500014  28.9149992  34.7169978  91.3770014
  28.9169992  35.7009978  91.8930014  28.8099992  34.9099978  90.2880014
  30.1409992  33.9369978  91.7040014  30.0089992  33.6619978  92.7730014
  31.0439992  34.5829978  91.7180014  30.4839992  32.6029978  90.9540014
  29.6239992  31.9379978  91.1830014  31.3709992  32.0349978  91.3080014
  30.6589992  32.8069978  89.4490014  31.5189992  33.4649978  89.2520014
  30.0509992  32.2749978  88.3910014  30.3109992  32.6769978  87.4000014
  28.9379992  31.1919978  88.4240014  28.6439992  30.8479978  89.4390014
  29.2759992  30.3029978  87.8490014  27.5949992  31.7929978  87.7690014
  26.8819992  30.9449978  87.8510014  27.7839992  31.9219978  86.6820014
  27.0179992  33.0689978  88.4130014  27.8869992  33.7269978  88.6240014
  26.6069992  32.7269978  89.3870014  25.8919992  33.7249978  87.6200014
  26.2659992  34.0059978  86.6120014  25.5899992  34.6989978  88.0610014
  24.6279992  32.8559978  87.4680014  24.3299992  32.4519978  88.4590014
  24.7739992  32.0429978  86.7260014  23.3419992  33.5359978  86.9140014
  22.8869992  34.2819978  87.6000014  22.5759992  32.7319978  86.9130014
  23.3159992  34.2059978  85.5120014  23.8049992  35.2039978  85.5070014
  22.2479992  34.4079978  85.2800014  23.8669992  33.4209978  84.2860014
  23.9619992  34.0349978  83.3650014  23.3349992  32.4789978  84.0350014
  24.8459992  32.9699978  84.5560014 130.0869992  31.5699978  84.9160014
 130.6249992  32.5389978  84.9970014 129.1249992  31.3979978  85.4440014
 129.8229992  31.5439978  83.8370014 130.9089992  30.3609978  85.1830014
 130.3559992  29.4329978  85.4440014 131.5159992  30.0579978  84.3030014
 131.8699992  30.6729978  86.3200014 132.5079992  29.7929978  86.5470014
 132.4649992  31.5609978  86.0170014 131.2079992  31.0809978  87.6820014
 130.2669992  31.6599978  87.5700014 130.8509992  30.1349978  88.1440014
 132.1699992  31.7449978  88.6300014 132.6219992  32.6469978  88.1640014
 131.5639992  32.1329978  89.4760014 133.1709992  30.8489978  89.2280014
 132.7329992  29.8279978  89.2020014 134.0909992  30.8019978  88.6070014
 133.4389992  31.0899978  90.7620014 133.5429992  32.1729978  90.9890014
 132.4949992  30.8089978  91.2750014 134.5439992  30.2589978  91.3240014
 134.2819992  29.1919978  91.1620014 135.4419992  30.3969978  90.6840014
 134.8439992  30.5239978  92.8270014 135.8109992  30.0219978  93.0450014
 135.0789992  31.5959978  93.0010014 133.6789992  30.0409978  93.7340014
 132.8929992  30.8239978  93.6710014 133.2919992  29.0879978  93.3160014
 134.0559992  29.7199978  95.1960014 133.1499992  29.2329978  95.6160014
 134.9869992  29.1309978  95.3440014 134.3019992  31.0399978  96.0690014
 133.9219992  31.8879978  95.4590014 133.6209992  31.0139978  96.9470014
 135.7879992  31.3089978  96.5060014 135.9469992  30.4359978  97.1750014
 136.3699992  31.1289978  95.5770014 136.1389992  32.6599978  97.1030014
 137.2359992  32.7609978  97.2510014 135.8609992  33.4719978  96.3980014
 135.2669992  32.9659978  98.3310014 134.2469992  32.9839978  97.8920014
 135.3009992  32.1809978  99.1160014 135.8259992  34.3079978  98.9540014
 136.7399992  35.0099978  98.5190014 134.9769992  34.6519978  99.8930014
 135.2539992  35.8239978 100.6280014 136.3259992  35.8399978 100.9180014
 135.2419992  36.7729978 100.0500014 134.3299992  36.0239978 101.8520014
 134.6009992  36.9529978 102.3990014 134.4599992  34.8579978 102.9360014
 135.5319992  34.6959978 103.1770014 134.0519992  35.2789978 103.8800014
 133.8999992  33.6119978 102.5620014 134.1829992  32.4049978 103.6090014
 133.7689992  31.1669978 102.7300014 133.9409992  31.1959978 101.2910014
 134.8539992  31.7279978 100.9480014 134.0379992  30.1219978 101.0220014
 132.7469992  31.7599978 100.4420014 132.6249992  32.8189978 100.6110014
 132.9539992  31.4909978  99.4170014 131.2939992  31.2409978 100.7680014
 130.6849992  31.7309978 102.0650014 130.3329992  32.7479978 101.9790014
 129.8449992  31.0889978 102.2830014 131.4079992  31.6029978 102.8580014
 130.4619992  31.5639978  99.5900014 130.8669992  31.0589978  98.7260014
 129.4389992  31.2739978  99.7800014 130.5349992  32.6269978  99.4120014
 131.3249992  29.7339978 100.6930014 131.7209992  29.1289978 101.4950014
 131.7919992  29.3849978  99.7840014 130.2859992  29.4499978 100.6260014
 135.6379992  32.4079978 103.9360014 133.3039992  32.4749978 104.8190014
 132.9549992  36.1609978 101.3610014 132.0009992  36.6539978 102.1830014
 132.1249992  37.1219978 103.2950014 130.5709992  36.5429978 101.4270014
 130.2189992  37.4609978 100.9100014 129.8759992  36.4549978 102.2890014
 130.4199992  35.2719978 100.6290014 129.4389992  34.8749978 100.9660014
 131.0949992  34.4449978 100.9370014 130.3739992  35.4579978  99.1110014
 129.8899992  36.4159978  98.8250014 129.7299992  34.6199978  98.7680014
 131.6739992  35.3509978  98.3740014 131.8299992  34.2899978  98.0860014
 132.4989992  35.7629978  98.9940014 131.8989992  36.1889978  97.0860014
 132.9169992  35.9909978  96.6900014 132.0239992  37.2379978  97.4300014
 130.9189992  36.0749978  95.8600014 131.1139992  36.8849978  95.1240014
 129.9819992  36.3409978  96.3950014 130.7509992  34.6399978  95.2600014
 129.8519992  34.5839978  94.6090014 130.5339992  33.9839978  96.1300014
 132.0059992  34.0719978  94.6170014 132.5299992  33.5059978  95.4010014
 132.5129992  34.1409978  93.4260014 133.5219992  33.7499978  93.2310014
 131.8669992  34.9379978  92.2420014 130.8729992  35.3019978  92.5780014
 131.8719992  34.3139978  91.3220014 132.6959992  36.1399978  91.8010014
 132.9079992  36.7889978  92.6780014 132.1799992  36.7789978  91.0530014
 134.1009992  35.6399978  91.2780014 134.6109992  35.0249978  92.0500014
 134.6939992  36.5699978  91.1470014 134.1269992  35.0189978  89.8850014
 133.6309992  35.7759978  89.2420014 133.5989992  34.0409978  89.8730014
 135.5059992  34.5909978  89.3430014 136.0469992  33.7719978  89.8630014
 136.0719992  35.5219978  89.5600014 135.6059992  34.0979978  87.8390014
 135.5109992  34.8929978  87.0700014 134.8249992  33.3469978  87.5950014
 136.9799992  33.2769978  87.5030014 137.0789992  32.4809978  88.2710014
 137.7659992  34.0609978  87.5580014 137.1309992  32.7379978  86.0550014
 136.3459992  31.9839978  85.8340014 138.1289992  32.3049978  85.8260014
 137.0109992  33.4929978  85.2490014 109.9339992 134.0099978  85.9250014
 109.9609992 134.6749978  85.0360014 108.8679992 133.7359978  86.0810014
 110.5909992 133.1759978  85.5960014 110.5199992 134.8249978  87.1750014
 110.4929992 134.0309978  87.9510014 111.6209992 134.9019978  87.0470014
 110.0259992 136.1539978  87.4630014 110.4839992 136.9609978  86.8520014
 108.9259992 136.0669978  87.3370014 110.1949992 136.6229978  88.9770014
 109.6569992 137.5669978  89.2110014 109.6949992 135.7799978  89.4990014
 111.6339992 136.8809978  89.2160014 112.2619992 136.0479978  88.8330014
 111.9159992 137.8319978  88.7150014 112.0319992 136.9279978  90.7040014
 111.4869992 137.7179978  91.2630014 111.5049992 136.0639978  91.1620014
 113.4919992 137.0839978  91.0300014 113.9889992 136.2619978  90.4720014
 113.8499992 138.0839978  90.7040014 113.8319992 136.8899978  92.5270014
 114.9199992 137.0579978  92.6720014 113.3229992 137.7409978  93.0290014
 113.3759992 135.5969978  93.1170014 112.3099992 135.2849978  93.0900014
 113.8639992 134.7839978  92.5390014 113.8599992 135.4199978  94.5720014
 113.7729992 134.3629978  94.9000014 114.9449992 135.6539978  94.6020014
 113.1289992 136.1919978  95.6440014 112.1049992 136.3919978  95.2620014
 113.1419992 135.5429978  96.5460014 113.8169992 137.4999978  96.1180014
 114.7379992 137.3149978  96.7110014 114.0109992 138.1519978  95.2390014
 112.9269992 138.2509978  97.0870014 113.2269992 139.3179978  97.1700014
 111.8459992 138.2749978  96.8310014 113.0179992 137.7029978  98.5240014
 113.3539992 136.6449978  98.4970014 113.7959992 138.3359978  99.0000014
 111.6829992 138.0499978  99.2550014 111.8439992 137.7659978 100.3170014
 111.5029992 139.1409978  99.3620014 110.5029992 137.3259978  98.6040014
 109.6899992 137.9039978  97.9850014 110.4659992 136.0009978  98.9030014
 109.3199992 135.2159978  98.4760014 108.4199992 135.5689978  99.0240014
 109.0939992 135.2749978  97.3890014 109.4599992 133.7489978  98.9830014
 108.6669992 133.1179978  98.5270014 109.2839992 133.5769978 100.5150014
 108.3059992 133.9979978 100.8320014 109.1729992 132.5109978 100.8070014
 110.2879992 134.3529978 101.1460014 110.1139992 134.4289978 102.7180014
 111.6909992 134.4289978 103.1600014 112.6069992 135.4169978 102.7060014
 112.1299992 136.4189978 102.7510014 113.3709992 135.4489978 103.5120014
 113.2469992 135.0539978 101.3730014 112.4779992 134.8449978 100.6440014
 113.8399992 135.8109978 100.8820014 114.2059992 133.7959978 101.2880014
 113.3929992 132.5579978 101.6240014 112.6119992 132.4449978 100.8870014
 113.9389992 131.6889978 101.9620014 112.7579992 132.8159978 102.4590014
 114.7489992 133.4429978  99.9430014 115.4269992 134.2169978  99.6150014
 115.1489992 132.4479978  99.8180014 113.9059992 133.5099978  99.2710014
 115.3739992 133.9349978 102.2440014 115.9129992 134.8439978 102.0190014
 115.9799992 133.0469978 102.1400014 114.9019992 134.0759978 103.2060014
 109.6059992 135.7989978 103.0390014 109.4189992 133.2309978 103.2640014
 110.7099992 133.2519978  98.5840014 110.8719992 132.9129978  97.2840014
 110.0099992 132.8819978  96.4380014 112.4179992 132.5989978  97.0680014
 112.7379992 131.9459978  97.9090014 112.8479992 133.6179978  97.1670014
 112.5709992 131.9699978  95.7370014 112.3419992 132.7639978  94.9950014
 111.9649992 131.0479978  95.6060014 114.0439992 131.4869978  95.4030014
 114.4959992 130.8589978  96.2000014 114.7889992 132.3049978  95.3000014
 114.1789992 130.7639978  94.0430014 113.4199992 129.9699978  93.8820014
 115.1639992 130.2639978  93.9310014 114.0319992 131.5539978  92.7710014
 114.6879992 132.4479978  92.8360014 113.0509992 132.0709978  92.8280014
 114.2619992 130.8969978  91.4450014 113.3039992 130.3759978  91.2340014
 115.0759992 130.1529978  91.5790014 114.8959992 131.8109978  90.4040014
 115.1909992 131.1299978  89.5760014 115.7879992 132.2539978  90.8950014
 113.9169992 132.8619978  89.9190014 113.9129992 133.8099978  90.4770014
 112.9719992 132.6499978  89.0020014 112.2729992 133.4929978  88.8980014
 112.6539992 131.4369978  88.2600014 113.2149992 130.5239978  88.5550014
 112.9419992 131.5679978  87.1950014 111.1939992 130.9759978  88.2160014
 110.5359992 131.6519978  87.6290014 110.8659992 130.9989978  89.2770014
 111.0719992 129.5479978  87.6350014 111.7319992 128.9619978  88.3100014
 111.3479992 129.6039978  86.5600014 109.5569992 129.1539978  87.7160014
 109.0039992 129.2339978  88.6770014 109.4999992 128.1189978  87.3180014
 108.6279992 129.9589978  86.8760014 108.5299992 130.9979978  87.2570014
 107.6239992 129.5029978  87.0110014 109.1179992 129.9369978  85.4220014
 109.3819992 128.8789978  85.2100014 110.0059992 130.5809978  85.2440014
 108.1359992 130.4339978  84.3840014 107.7779992 131.4059978  84.7840014
 107.2749992 129.7319978  84.3780014 108.7669992 130.5559978  83.0160014
 109.1369992 131.5719978  82.7610014 107.9789992 130.3899978  82.2500014
 109.5069992 129.7569978  82.7950014  45.5779992   8.8499978  82.7300014
  46.4369992   8.8619978  82.0250014  44.7039992   9.1789978  82.1270014
  45.3799992   7.8419978  83.1540014  45.8939992   9.9879978  83.7160014
  44.9629992  10.1289978  84.3060014  46.7029992   9.7609978  84.4430014
  46.4049992  11.2899978  83.1170014  47.4319992  11.1069978  82.7360014
  45.7379992  11.4939978  82.2520014  46.4009992  12.5389978  84.1070014
  45.3499992  12.8429978  84.2980014  46.9389992  12.3299978  85.0570014
  47.0819992  13.7509978  83.5000014  48.0239992  13.5339978  82.9520014
  46.4859992  14.0919978  82.6260014  47.3449992  14.9249978  84.5000014
  48.1559992  14.6699978  85.2160014  47.7829992  15.7179978  83.8570014
  46.0609992  15.3049978  85.2090014  45.2869992  15.1299978  84.4320014
  45.8879992  14.6189978  86.0660014  46.0449992  16.7869978  85.7040014
  46.1649992  17.5549978  84.9100014  45.0229992  16.9959978  86.0860014
  46.8529992  17.0849978  86.9930014  47.9339992  16.8369978  86.9260014
  46.7739992  18.1879978  87.0990014  46.2089992  16.3509978  88.2220014
  45.1159992  16.2339978  88.0590014  46.7459992  15.3949978  88.4010014
  46.3169992  17.2689978  89.4870014  47.3519992  17.6309978  89.6650014
  45.6679992  18.1679978  89.4150014  45.9979992  16.6439978  90.9030014
  45.7099992  17.4019978  91.6610014  45.0549992  16.1019978  90.6730014
  47.0779992  15.6959978  91.5340014  47.0029992  14.7029978  91.0430014
  48.1329992  16.0309978  91.4440014  46.7609992  15.4349978  93.0650014
  46.9689992  16.3879978  93.5970014  45.7099992  15.1519978  93.2900014
  47.7039992  14.3329978  93.5760014  47.6119992  13.4009978  92.9780014
  48.7419992  14.6709978  93.3660014  47.4449992  14.1869978  95.0430014
  46.4699992  13.8999978  95.6750014  48.6329992  14.4159978  95.6940014
  48.5479992  14.3349978  97.1240014  49.4339992  14.8429978  97.5620014
  47.6289992  14.9079978  97.3730014  48.4719992  12.8949978  97.7270014
  47.5019992  12.4669978  97.3940014  48.5549992  13.0209978  99.2670014
  49.4389992  13.6389978  99.5350014  47.6979992  13.5909978  99.6850014
  48.5799992  11.7199978  99.8340014  47.2139992  11.1829978 100.4680014
  47.1869992  12.1669978 101.7610014  48.1979992  12.0809978 102.7230014
  48.0559992  11.1889978 103.3680014  49.2099992  12.1369978 102.2660014
  48.0349992  13.1529978 103.7870014  47.0009992  13.1519978 104.0960014
  48.6269992  12.9159978 104.6590014  48.2769992  14.6139978 103.4310014
  47.3249992  15.0749978 102.3530014  47.6399992  14.4689978 101.5160014
  46.3319992  14.8989978 102.7380014  47.4139992  16.1139978 102.0710014
  48.0929992  15.5259978 104.6710014  48.8749992  15.3289978 105.3890014
  48.2109992  16.5909978 104.5340014  47.1329992  15.4089978 105.1510014
  49.6719992  14.8419978 103.0050014  50.3129992  14.6059978 103.8420014
  49.7799992  15.8849978 102.7490014  49.9789992  14.2609978 102.1470014
  45.9939992  11.4029978  99.6090014  47.4359992   9.7269978 100.8650014
  49.5079992  12.0369978  97.1310014  49.2079992  10.7329978  97.1030014
  48.1089992  10.2339978  97.3010014  50.4169992   9.8999978  96.6280014
  50.7799992   9.2379978  97.4430014  51.1759992  10.6129978  96.2410014
  49.8919992   9.0629978  95.4930014  49.0869992   8.4059978  95.8840014
  50.6269992   8.3599978  95.0450014  49.3629992   9.9009978  94.2760014
  48.4559992  10.5149978  94.4660014  48.9699992   9.1259978  93.5830014
  50.3699992  10.5439978  93.2990014  50.0209992  10.4659978  92.2470014
  51.4039992  10.1399978  93.3460014  50.4629992  12.0419978  93.6300014
  50.4509992  12.1759978  94.7330014  49.6209992  12.6099978  93.1800014
  51.7249992  12.7499978  93.0630014  52.6099992  12.2129978  93.4660014
  51.7479992  13.8169978  93.3730014  51.8519992  12.7959978  91.5300014
  51.9339992  11.7449978  91.1800014  52.8349992  13.2579978  91.2950014
  50.7349992  13.6189978  90.9510014  50.6059992  14.5919978  91.4480014
  49.8859992  13.2529978  89.9910014  49.1299992  13.8899978  89.5070014
  49.9609992  11.8329978  89.3940014  49.5409992  11.0889978  90.1050014
  50.9589992  11.4729978  89.0650014  49.2599992  11.9089978  88.1090014
  48.2559992  12.3829978  88.0830014  49.1399992  10.8629978  87.7520014
  50.0779992  12.6359978  87.0390014  50.2699992  13.6639978  87.4150014
  49.3879992  12.8689978  86.2000014  51.3439992  11.9489978  86.5690014
  51.2039992  10.8479978  86.6080014  52.2179992  12.1729978  87.2180014
  51.8259992  12.3509978  85.1430014  52.6439992  11.6929978  84.7800014
  52.4079992  13.2979978  85.1480014  50.7569992  12.4599978  84.0050014
  50.0929992  13.3489978  84.0570014  50.0189992  11.6469978  84.1730014
  51.4239992  12.4029978  82.5950014  52.1529992  11.5639978  82.6130014
  52.0309992  13.3149978  82.4120014  50.4129992  12.1269978  81.5320014
  50.1449992  11.0519978  81.6180014  50.7159992  12.2369978  80.4690014
  49.4689992  12.6489978  81.7970014  19.9419992  46.8059978  85.7990014
  19.2869992  47.3159978  85.0610014  20.0169992  45.7139978  85.6030014
  20.9279992  47.3069978  85.6910014  19.3239992  47.0459978  87.1020014
  19.9229992  46.8049978  88.0060014  19.1819992  48.1479978  87.1110014
  17.8769992  46.4359978  87.1910014  17.4239992  46.6009978  86.1900014
  17.8959992  45.3409978  87.3780014  16.8719992  47.1369978  88.2150014
  16.5349992  48.1609978  87.9460014  16.0629992  46.3779978  88.1500014
  17.4499992  47.2939978  89.7050014  18.0479992  46.4169978  90.0320014
  18.2409992  48.0689978  89.6250014  16.3949992  47.6029978  90.7750014
  15.7929992  48.4469978  90.3770014  15.7329992  46.7119978  90.8090014
  16.9249992  47.9819978  92.1710014  17.3319992  49.0059978  92.3110014
  16.1079992  47.9079978  92.9190014  18.0949992  47.0089978  92.7540014
  17.8489992  45.9279978  92.6940014  19.0249992  47.2139978  92.1810014
  18.3929992  47.3439978  94.2480014  19.4939992  47.2179978  94.3260014
  18.1579992  48.4099978  94.4520014  17.4729992  46.4579978  95.0600014
  16.4459992  46.8779978  95.0050014  17.4759992  45.4179978  94.6710014
  17.8679992  46.3679978  96.5170014  17.9739992  47.4169978  96.8670014
  17.0439992  45.8939978  97.0920014  19.0479992  45.4089978  96.6790014
  18.7459992  44.3989978  96.3290014  19.8939992  45.7739978  96.0580014
  19.5769992  45.2479978  98.0980014  18.9079992  44.7009978  98.7960014
  20.4259992  44.5469978  97.9560014  19.9079992  46.6209978  98.6520014
  19.0729992  47.3539978  98.6830014  20.4099992  46.4219978  99.6220014
  21.0819992  47.4109978  97.9240014  21.9429992  46.7179978  98.0320014
  20.8889992  47.4579978  96.8310014  21.5089992  48.7409978  98.4780014
  21.9759992  49.6839978  97.8270014  21.2149992  48.7459978  99.8050014
  21.4059992  49.9649978 100.5220014  21.9729992  49.9209978 101.4760014
  21.8679992  50.7459978  99.8810014  19.9969992  50.6029978 100.8860014
  20.1799992  51.5379978 101.4570014  19.3099992  49.5909978 101.8800014
  19.1749992  48.6329978 101.3340014  19.9769992  49.4119978 102.7510014
  18.0189992  50.0149978 102.2350014  16.9839992  49.1099978 102.9820014
  17.0919992  47.7669978 102.1930014  16.7179992  47.5489978 100.8290014
  15.8799992  48.2459978 100.6130014  17.5679992  47.6549978 100.1210014
  16.1799992  46.1549978 100.5850014  15.8929992  46.1229978  99.5440014
  17.0099992  45.4709978 100.6780014  15.0119992  45.5989978 101.3750014
  15.3359992  45.7169978 102.8770014  16.2919992  45.2929978 103.1450014
  15.3399992  46.7959978 102.9180014  14.5119992  45.2699978 103.4140014
  13.7799992  46.3649978 101.1350014  13.9669992  47.4159978 101.2980014
  13.3819992  46.2299978 100.1400014  13.0139992  46.0859978 101.8440014
  14.7149992  44.1389978 101.0250014  13.6799992  43.9179978 101.2410014
  15.4799992  43.5119978 101.4570014  14.9609992  44.0649978  99.9760014
  17.5369992  48.7689978 104.2940014  15.6089992  49.6109978 102.9750014
  19.1179992  50.6439978  99.7700014  19.3439992  51.5099978  98.8110014
  20.0349992  52.4999978  98.9090014  18.6059992  51.0979978  97.5700014
  17.4999992  51.0369978  97.6600014  19.0129992  50.1539978  97.1490014
  18.8649992  52.1789978  96.4300014  18.6109992  53.1739978  96.8520014
  18.0819992  52.0669978  95.6500014  20.2909992  52.1699978  95.8680014
  20.9919992  52.2559978  96.7250014  20.4009992  53.0609978  95.2130014
  20.6559992  50.8999978  95.0900014  20.0669992  50.7269978  94.1650014
  20.5729992  49.8999978  95.5660014  22.0379992  51.0109978  94.4830014
  22.6899992  51.0889978  95.3800014  22.1409992  51.9699978  93.9320014
  22.4729992  49.8029978  93.6480014  22.4389992  48.8379978  94.1970014
  23.5729992  49.9159978  93.5370014  21.8629992  49.6499978  92.1740014
  20.8529992  49.2599978  92.4210014  22.2419992  48.7419978  91.6560014
  21.8499992  50.9309978  91.4150014  22.7699992  51.5329978  91.4360014
  20.8449992  51.3629978  90.6180014  21.0039992  52.3759978  90.2180014
  19.4869992  50.7049978  90.3270014  18.6789992  51.3669978  90.7060014
  19.3509992  49.7679978  90.9070014  19.2529992  50.5309978  88.8490014
  18.2359992  50.0989978  88.7320014  20.0419992  49.8349978  88.4920014
  19.4789992  51.8409978  88.0620014  20.4699992  52.2869978  88.2940014
  18.7919992  52.6559978  88.3770014  19.5009992  51.5829978  86.5420014
  20.1779992  50.7679978  86.2070014  19.7439992  52.5469978  86.0470014
  18.1319992  51.1049978  86.0390014  17.4419992  51.9329978  86.3080014
  17.8669992  50.1049978  86.4450014  18.1839992  51.0649978  84.4840014
  19.1489992  50.5659978  84.2520014  18.2229992  52.0849978  84.0440014
  17.0219992  50.3229978  83.7260014  16.8359992  49.3259978  84.1790014
  17.1109992  50.1569978  82.6310014  15.6499992  50.8889978  84.0420014
  15.5429992  50.7919978  85.1440014  14.7889992  50.4989978  83.4590014
  15.6439992  51.9659978  83.7690014  86.3459992 140.5669978  82.3210014
  85.6589992 141.2039978  82.9180014  86.1679992 140.6529978  81.2270014
  87.3439992 140.9859978  82.5690014  86.3039992 139.1009978  82.7060014
  87.0379992 138.6129978  82.0310014  86.4229992 139.0389978  83.8090014
  84.9009992 138.4369978  82.5520014  84.3219992 139.0979978  83.2320014
  84.4599992 138.5549978  81.5390014  84.7449992 136.9649978  82.9430014
  83.6829992 136.6479978  83.0180014  85.2019992 136.2839978  82.1940014
  85.2949992 136.5349978  84.3010014  85.3169992 135.4269978  84.3770014
  86.3019992 136.8779978  84.6220014  84.3409992 137.1629978  85.3340014
  84.6139992 138.2369978  85.4180014  83.2939992 136.9629978  85.0210014
  84.4529992 136.6619978  86.8330014  83.4349992 136.8649978  87.2280014
  84.8029992 135.6069978  86.8330014  85.5569992 137.4049978  87.6270014
  86.5289992 137.2469978  87.1110014  85.4199992 138.4929978  87.4530014
  85.5449992 137.1969978  89.1610014  84.7939992 136.4069978  89.3770014
  86.5169992 136.7069978  89.3820014  85.0959992 138.4399978  89.9390014
  85.6949992 139.3749978  89.8990014  84.1029992 138.6199978  89.4740014
  84.6509992 138.1679978  91.4000014  84.1769992 137.1699978  91.5180014
  85.5949992 138.0269978  91.9670014  83.6459992 139.1609978  91.8630014
  82.9449992 139.4529978  91.0520014  83.0769992 138.6569978  92.6740014
  84.4409992 140.4769978  92.3050014  85.5079992 140.2579978  92.0860014
  84.2479992 141.3069978  91.5930014  84.2469992 140.9649978  93.7640014
  84.3999992 140.0499978  94.3740014  85.0159992 141.7519978  93.9200014
  82.8099992 141.5659978  94.0960014  82.4119992 142.2109978  93.2830014
  82.1649992 140.7179978  94.4090014  82.8619992 142.5659978  95.2130014
  83.1039992 143.7489978  94.9920014  82.9539992 141.8809978  96.3150014
  83.0979992 142.6659978  97.4980014  84.0419992 143.2529978  97.4990014
  82.1819992 143.2909978  97.5670014  83.3989992 141.7929978  98.8160014
  82.5339992 141.1269978  99.0220014  83.5189992 142.7149978 100.0580014
  84.3249992 143.4759978  99.9760014  82.5909992 143.3269978 100.0720014
  83.6129992 141.8849978 101.2540014  84.8389992 142.2449978 102.2240014
  85.0879992 140.8399978 102.9110014  85.1249992 139.5889978 102.1670014
  85.1949992 138.7059978 102.8390014  84.1539992 139.3729978 101.6740014
  86.4019992 139.5719978 101.2370014  86.2689992 138.9669978 100.3530014
  86.3969992 140.5649978 100.8130014  87.7719992 139.2149978 101.8260014
  87.9059992 137.7969978 102.1430014  88.8889992 137.3849978 102.3170014
  87.3049992 137.4899978 102.9860014  87.8059992 137.1789978 101.2630014
  88.9239992 139.5909978 100.8820014  88.8629992 140.6129978 100.5360014
  89.8049992 139.5019978 101.4990014  88.8799992 138.9229978 100.0350014
  87.9339992 140.0149978 103.1200014  88.0229992 141.0299978 102.7610014
  88.8479992 139.9129978 103.6870014  87.1029992 139.8209978 103.7820014
  86.0239992 142.6839978 101.5430014  84.2659992 143.1819978 103.1990014
  84.6199992 140.9849978  98.6390014  84.3609992 139.8469978  98.0100014
  83.3019992 139.4879978  97.5270014  85.6489992 139.1819978  97.8210014
  85.4639992 138.6439978  96.8660014  85.8009992 138.4919978  98.6780014
  86.9389992 139.9449978  97.6190014  87.2389992 140.4339978  98.5700014
  86.8249992 140.7629978  96.8760014  88.0899992 139.0539978  97.2540014
  88.3409992 138.2789978  98.0090014  88.9619992 139.7399978  97.3020014
  88.1129992 138.4359978  95.8240014  87.2819992 137.7809978  95.4850014
  89.0749992 137.8819978  95.7620014  87.9889992 139.5249978  94.7030014
  88.2459992 140.4859978  95.1980014  86.9289992 139.6509978  94.3950014
  88.8419992 139.1589978  93.5090014  88.5049992 138.1769978  93.1140014
  89.8639992 138.9339978  93.8820014  88.9009992 140.1789978  92.2890014
  87.8409992 140.4159978  92.0580014  89.2289992 139.5379978  91.4430014
  89.7649992 141.4209978  92.2310014  90.8249992 141.1409978  92.1450014
  89.3449992 142.7049978  92.2370014  90.1289992 143.4689978  92.1250014
  87.8879992 143.1119978  92.3190014  87.7529992 143.5569978  93.3280014
  87.1319992 142.3119978  92.1730014  87.5669992 144.1369978  91.2160014
  88.1879992 143.8889978  90.3280014  87.8989992 145.0889978  91.6830014
  86.0839992 144.3269978  90.9610014  86.0589992 145.4079978  90.7050014
  85.4809992 144.1119978  91.8690014  85.4959992 143.3749978  89.9200014
  84.3919992 143.3789978  90.0450014  85.8219992 142.3129978  89.9090014
  85.7039992 143.9039978  88.4470014  86.7329992 143.7709978  88.0500014
  85.3679992 144.9579978  88.3510014  84.8809992 143.0009978  87.5600014
  83.8289992 143.3579978  87.5360014  84.9149992 141.9409978  87.8910014
  85.3599992 142.9799978  86.0170014  84.6779992 142.2959978  85.4670014
  86.3539992 142.4859978  85.9810014  85.4289992 144.3859978  85.2640014
  84.4269992 144.8439978  85.1240014  85.8129992 144.1999978  84.2390014
  86.2079992 145.0769978  85.6530014 144.0959992  66.0069978  82.9850014
 145.1969992  66.0559978  83.1220014 143.9329992  65.5839978  81.9710014
 143.7599992  65.2359978  83.7110014 143.3139992  67.3129978  83.1000014
 143.7759992  67.9929978  82.3530014 142.4029992  67.1179978  82.4950014
 142.9569992  68.0509978  84.4850014 142.1769992  67.3719978  84.8910014
 143.7219992  68.0519978  85.2910014 142.3679992  69.4659978  84.2260014
 141.5269992  69.4509978  83.5000014 141.8559992  69.7679978  85.1650014
 143.4479992  70.5269978  83.9090014 144.2129992  70.1899978  83.1770014
 142.8309992  71.3449978  83.4790014 144.2549992  71.0509978  85.1030014
 145.0429992  70.3049978  85.3410014 144.7529992  72.0289978  84.9330014
 143.4099992  71.2559978  86.4130014 142.4729992  71.7659978  86.1020014
 143.1809992  70.2519978  86.8300014 144.1149992  72.1399978  87.3930014
 145.1399992  71.7299978  87.5170014 144.0469992  73.1799978  87.0080014
 143.4199992  72.3109978  88.7590014 143.6419992  73.3399978  89.1160014
 142.3299992  72.1919978  88.5780014 143.9199992  71.1699978  89.8020014
 144.2679992  70.2479978  89.2890014 144.8489992  71.5329978  90.2930014
 143.0039992  70.8629978  90.9200014 142.1279992  71.5429978  90.9990014
 142.6799992  69.8129978  90.7540014 143.7669992  70.9089978  92.3130014
 143.1199992  70.3509978  93.0240014 144.7279992  70.3539978  92.3820014
 143.8309992  72.2649978  93.0200014 144.1969992  73.0699978  92.3460014
 142.8029992  72.5929978  93.2850014 144.6039992  72.1739978  94.3340014
 144.0419992  71.4949978  95.0110014 145.6709992  71.9019978  94.1860014
 144.6319992  73.5109978  95.0530014 145.2019992  74.3459978  94.5930014
 143.5869992  73.8759978  94.9530014 145.0409992  73.2979978  96.5300014
 144.7229992  74.0859978  97.4040014 145.6579992  72.1879978  96.6950014
 146.0159992  71.8039978  98.0270014 146.8819992  71.1089978  98.0450014
 146.1999992  72.6969978  98.6620014 144.8649992  71.0729978  98.8060014
 143.8949992  71.6119978  98.8570014 145.2809992  70.8889978 100.2870014
 146.0479992  70.0919978 100.3880014 145.6799992  71.8409978 100.6970014
 144.1599992  70.5969978 101.1220014 144.3649992  70.4339978 102.6690014
 145.0879992  69.0769978 102.8600014 144.5679992  67.8709978 102.2540014
 143.6529992  67.5939978 102.8190014 144.2189992  68.0019978 101.2070014
 145.5389992  66.7189978 102.4530014 146.0699992  66.9439978 103.3660014
 145.0329992  65.7679978 102.5310014 146.6699992  66.5699978 101.4900014
 147.4049992  67.8629978 101.2860014 146.5979992  68.5269978 101.0150014
 147.6739992  68.1409978 102.2940014 148.2049992  67.6569978 100.5890014
 147.6669992  65.4789978 101.9520014 147.1959992  64.5119978 101.8490014
 148.5149992  65.4829978 101.2840014 147.9569992  65.7709978 102.9510014
 146.0449992  66.1339978 100.1490014 145.3309992  65.3279978 100.2350014
 146.8549992  65.7819978  99.5270014 145.5309992  66.9969978  99.7510014
 145.2449992  71.5209978 103.1010014 142.9819992  70.4459978 103.1700014
 144.7099992  69.7579978  98.2090014 143.4899992  69.2149978  98.2250014
 142.4709992  69.7459978  98.6580014 143.5189992  67.7589978  97.8710014
 143.0469992  67.2459978  98.7350014 144.5779992  67.4279978  97.8160014
 142.6509992  67.3279978  96.6520014 143.1089992  67.7829978  95.7480014
 141.6279992  67.7259978  96.8190014 142.5799992  65.7909978  96.4630014
 141.5409992  65.4779978  96.2220014 142.9479992  65.2149978  97.3390014
 143.3209992  65.2939978  95.2400014 142.8039992  65.5929978  94.3030014
 143.4609992  64.2199978  95.4860014 144.7209992  65.6829978  94.9770014
 145.1699992  65.5749978  95.9880014 144.8519992  66.7559978  94.7200014
 145.5819992  64.6929978  94.1130014 145.2389992  63.7109978  94.5040014
 146.6479992  64.8669978  94.3730014 145.3929992  64.8049978  92.5950014
 144.3079992  64.6219978  92.4460014 146.1319992  64.1159978  92.1330014
 145.6959992  66.2569978  92.1460014 145.1649992  67.0449978  92.7000014
 146.5829992  66.7309978  91.2590014 146.6449992  67.8119978  91.0650014
 147.4879992  65.8799978  90.4380014 147.0409992  64.8719978  90.3010014
 148.3759992  65.6719978  91.0730014 147.8889992  66.5989978  89.1300014
 148.7779992  66.0439978  88.7620014 148.1649992  67.6609978  89.3000014
 146.8419992  66.7219978  88.0800014 145.9989992  67.3539978  88.4330014
 146.3799992  65.7279978  87.9000014 147.2069992  67.1899978  86.7110014
 146.2769992  66.9339978  86.1600014 148.0999992  66.6179978  86.3820014
 147.5409992  68.6849978  86.7000014 148.4629992  68.7649978  87.3140014
 146.7139992  69.2059978  87.2290014 147.6629992  69.1859978  85.2670014
 146.6469992  69.0549978  84.8370014 148.4349992  68.5949978  84.7300014
 148.0389992  70.6969978  85.0090014 149.0979992  71.0029978  85.1500014
 147.3639992  71.2299978  85.7120014 147.7959992  71.2589978  83.5650014
 147.7779992  70.4049978  82.8550014 148.5079992  72.0719978  83.3070014
 146.7499992  71.6029978  83.4160014  56.2419992   0.6549978  83.5280014
  55.1589992   0.7529978  83.3020014  56.3919992  -0.4390022  83.6420014
  56.7769992   1.0759978  82.6500014  56.7429992   1.2349978  84.8310014
  56.4379992   2.2929978  84.6820014  56.1969992   0.8979978  85.7380014
  58.2339992   1.1929978  85.1970014  58.7269992   1.5269978  84.2590014
  58.3999992   1.9689978  85.9750014  58.8199992  -0.1270022  85.5970014
  58.1539992  -0.6980022  86.2790014  58.7929992  -0.7950022  84.7090014
  60.3619992  -0.1020022  85.8330014  60.7189992  -1.0690022  85.4180014
  60.7449992   0.7459978  85.2240014  60.6789992   0.1899978  87.3230014
  60.2319992   1.1749978  87.5730014  60.1719992  -0.5120022  88.0180014
  62.1959992   0.1329978  87.6910014  62.5849992  -0.8870022  87.4840014
  62.7239992   1.0029978  87.2460014  62.3389992   0.2389978  89.2380014
  61.9769992   1.2389978  89.5610014  61.5719992  -0.4570022  89.6420014
  63.7229992   0.0389978  89.8790014  64.1629992  -0.9220022  89.5360014
  64.3919992   0.8529978  89.5250014  63.6609992  -0.0180022  91.3830014
  62.9559992  -0.8190022  91.6920014  64.6709992  -0.2540022  91.7810014
  63.1069992   1.2659978  91.9300014  63.6609992   2.0239978  91.3360014
  62.0259992   1.2279978  91.6790014  63.2489992   1.3289978  93.4490014
  62.7249992   0.5089978  93.9840014  64.3309992   1.1349978  93.6070014
  62.6619992   2.6669978  93.9840014  62.9919992   3.4799978  93.3030014
  61.5719992   2.6489978  93.7700014  63.0949992   3.0449978  95.3370014
  62.7559992   2.2529978  96.0380014  64.2009992   3.1019978  95.2440014
  62.5969992   4.4739978  95.8390014  63.0109992   4.5409978  96.8680014
  63.0779992   5.2019978  95.1520014  61.0899992   4.6609978  95.7800014
  60.3979992   4.6819978  94.7600014  60.5939992   4.9149978  97.0120014
  59.1519992   5.2269978  97.1110014  58.9739992   5.9939978  97.8940014
  58.7789992   5.6689978  96.1620014  58.2899992   3.8979978  97.3510014
  57.2139992   4.1679978  97.2970014  58.6009992   3.3969978  98.7300014
  58.4489992   4.1949978  99.4880014  57.8049992   2.6549978  98.9570014
  59.8599992   2.7439978  98.7140014  60.7389992   2.7729978 100.0150014
  59.7329992   2.3959978 101.2350014  60.2049992   1.4389978 102.2420014
  60.6349992   0.5299978 101.7710014  61.0369992   1.9479978 102.7750014
  58.9329992   0.9549978 103.0290014  58.0799992   0.8109978 102.3820014
  59.1109992   0.0689978 103.6220014  58.2509992   1.8969978 104.0380014
  57.3519992   2.8799978 103.3160014  56.7769992   2.3379978 102.5800014
  56.6579992   3.2979978 104.0300014  57.9389992   3.5549978 102.7110014
  57.3349992   1.1629978 105.0110014  57.9839992   0.4469978 105.4920014
  56.7629992   1.8529978 105.6130014  56.6129992   0.6939978 104.3590014
  59.2969992   2.5839978 104.8380014  60.1129992   2.8169978 104.1700014
  59.6359992   1.9559978 105.6480014  58.9749992   3.5669978 105.1520014
  61.8929992   1.8009978  99.8960014  61.0889992   4.1939978 100.1720014
  58.6889992   2.9539978  96.3450014  58.0099992   1.8399978  96.2650014
  56.9949992   1.5269978  96.9490014  58.5629992   0.9119978  95.2820014
  58.5029992  -0.1230022  95.6810014  59.5519992   1.1859978  94.8570014
  57.5629992   0.9689978  94.0210014  56.5339992   0.7539978  94.3800014
  57.9839992   0.0959978  93.4780014  57.6329992   2.2439978  93.2560014
  58.7219992   2.4599978  93.2860014  57.2289992   3.0849978  93.8590014
  57.1379992   2.2179978  91.8160014  56.0319992   2.1549978  91.8920014
  57.4919992   1.2979978  91.3020014  57.3149992   3.5719978  91.0440014
  57.8049992   4.2899978  91.7360014  56.2949992   3.9959978  90.9220014
  58.0869992   3.4169978  89.7670014  58.1609992   4.4339978  89.3260014
  57.4139992   2.8619978  89.0790014  59.5079992   2.8729978  89.8680014
  60.0289992   2.8449978  88.8870014  59.3319992   1.8639978  90.2980014
  60.4259992   3.5089978  90.9490014  60.4699992   2.9199978  91.8760014
  61.0179992   4.7159978  90.9560014  61.6399992   5.0549978  91.7980014
  60.9399992   5.7579978  89.8750014  60.7569992   6.7899978  90.2430014
  59.9829992   5.6379978  89.3240014  62.1509992   5.8929978  88.9730014
  63.0499992   5.9429978  89.6230014  62.0709992   6.7779978  88.3060014
  62.3289992   4.7519978  87.9320014  62.2699992   3.7459978  88.4010014
  63.3379992   4.8039978  87.4700014  61.3289992   4.8349978  86.7480014
  61.3779992   5.8009978  86.2010014  60.2769992   4.6829978  87.0720014
  61.5519992   3.7229978  85.6120014  61.4209992   2.7569978  86.1440014
  62.5719992   3.8059978  85.1780014  60.5599992   3.9789978  84.4820014
  59.5109992   4.0279978  84.8430014  60.6959992   3.1149978  83.7970014
  60.9569992   5.1319978  83.6000014  62.0629992   5.2369978  83.6210014
  60.5799992   6.1069978  83.9760014  60.4979992   5.0069978  82.1230014
  60.6559992   6.0199978  81.6940014  59.4349992   4.6839978  82.0940014
  61.1109992   4.1679978  81.7300014  47.8179992 136.5339978  82.1090014
  47.0049992 136.9969978  81.5090014  47.7119992 135.4649978  81.8270014
  48.7959992 136.9559978  81.7930014  47.5129992 136.6609978  83.6100014
  47.7139992 137.7469978  83.7370014  46.4559992 136.3779978  83.7980014
  48.3469992 135.9099978  84.6490014  48.0219992 134.8469978  84.6700014
  49.3879992 136.0319978  84.2800014  48.2869992 136.3809978  86.1420014
  48.7829992 135.6289978  86.7930014  48.8089992 137.3589978  86.2170014
  46.8529992 136.3679978  86.6970014  46.2489992 137.0919978  86.1090014
  46.5539992 135.3189978  86.4910014  46.7599992 136.6689978  88.1830014
  47.0659992 135.7899978  88.7900014  47.3169992 137.6119978  88.3720014
  45.2779992 136.7879978  88.5190014  44.7199992 137.2229978  87.6620014
  44.7819992 135.8129978  88.7090014  44.9179992 137.5679978  89.7800014
  45.0709992 138.6679978  89.7470014  43.8509992 137.2859978  89.8990014
  45.5679992 137.1339978  91.1040014  46.6289992 137.4129978  90.9250014
  45.1249992 137.8929978  91.7840014  45.4139992 135.6899978  91.4580014
  45.8479992 135.0359978  90.6710014  46.0499992 135.5809978  92.3620014
  43.9869992 135.1759978  91.6580014  43.4389992 135.8409978  92.3600014
  43.5329992 135.1959978  90.6440014  43.7869992 133.7269978  92.1670014
  42.8109992 133.3399978  91.8040014  44.5999992 133.0629978  91.8020014
  43.7779992 133.7739978  93.7230014  44.3789992 134.6409978  94.0730014
  42.8119992 133.9959978  94.2240014  44.4459992 132.5149978  94.3000014
  43.8619992 131.6089978  94.0330014  45.4499992 132.5169978  93.8230014
  44.6659992 132.5409978  95.8480014  45.3189992 133.4039978  96.1020014
  43.6739992 132.6099978  96.3430014  45.2949992 131.2139978  96.3550014
  45.4679992 130.2449978  95.6900014  45.3939992 131.3049978  97.7120014
  45.8109992 130.0959978  98.4210014  44.9809992 129.8489978  99.1170014
  45.9389992 129.1739978  97.8150014  47.1609992 130.4109978  99.2150014
  47.2909992 129.4209978  99.7030014  47.0529992 131.6759978 100.1750014
  45.9909992 131.5159978 100.4560014  47.8249992 131.6149978 100.9720014
  47.3399992 132.8699978  99.4230014  46.5999992 134.1069978 100.1990014
  47.8239992 134.4949978 101.2130014  47.8259992 135.8989978 101.4700014
  48.8429992 136.1589978 101.8340014  47.6189992 136.5899978 100.6250014
  46.8009992 136.1309978 102.6230014  46.7369992 137.2069978 102.6900014
  45.8869992 135.6349978 102.3330014  47.0729992 135.5979978 104.0240014
  48.5049992 135.8869978 104.4380014  48.6309992 135.4899978 105.4340014
  49.2809992 135.4479978 103.8280014  48.6389992 136.9569978 104.5090014
  46.1349992 136.2899978 105.0170014  45.0809992 136.1819978 104.8070014
  46.2639992 135.9379978 106.0300014  46.3399992 137.3499978 104.9920014
  46.9549992 134.1359978 104.0190014  47.8069992 133.7809978 103.4590014
  46.0149992 133.8179978 103.5920014  46.9869992 133.8519978 105.0610014
  46.4669992 135.1439978  99.1680014  45.3899992 133.7759978 100.9110014
  48.1259992 130.4599978  98.2290014  49.3869992 130.8069978  98.6180014
  49.7199992 131.0039978  99.7630014  50.1399992 131.1109978  97.3520014
  50.6389992 130.2059978  96.9420014  51.0109992 131.7649978  97.5710014
  49.3719992 131.7149978  96.1710014  48.7189992 132.5489978  96.5040014
  48.8619992 130.8409978  95.7130014  50.2899992 132.3719978  95.1330014
  50.5789992 131.6019978  94.3860014  51.2369992 132.6659978  95.6350014
  49.6449992 133.7239978  94.4940014  50.3279992 134.3459978  93.8760014
  49.5489992 134.4189978  95.3550014  48.2559992 133.6019978  93.8350014
  47.8279992 134.6169978  93.9820014  47.6329992 132.8179978  94.3150014
  48.2089992 133.4209978  92.3650014  48.7499992 134.3299978  92.0250014
  47.1779992 133.5729978  91.9810014  48.7459992 132.0739978  91.9770014
  48.1519992 131.2609978  92.4470014  49.7889992 131.9839978  92.3490014
  48.7779992 131.8239978  90.5260014  49.7139992 132.2189978  90.1060014
  47.8119992 131.2349978  89.8160014  47.9649992 130.8649978  88.7910014
  46.4929992 130.7719978  90.3630014  46.0209992 131.3619978  91.1780014
  46.6239992 129.7639978  90.8120014  45.3849992 130.5819978  89.3580014
  45.0229992 131.5529978  88.9570014  44.5819992 130.1749978  90.0090014
  45.6269992 129.6539978  88.1340014  46.2469992 128.8329978  88.5550014
  46.1149992 130.3019978  87.3750014  44.3429992 129.1799978  87.4800014
  43.7439992 130.0949978  87.2850014  43.7689992 128.4889978  88.1340014
  44.4289992 128.5519978  86.0660014  43.4209992 128.5189978  85.6000014
  44.8389992 127.5459978  86.2990014  45.3749992 129.2309978  85.1270014
  46.3339992 129.3359978  85.6790014  45.0719992 130.2829978  84.9390014
  45.4249992 128.5029978  83.7640014  44.3689992 128.6239978  83.4390014
  45.7829992 127.4699978  83.9600014  46.3809992 129.2229978  82.7810014
  46.0839992 130.2709978  82.5640014  46.2579992 128.6349978  81.8460014
  47.4299992 129.0909978  83.1200014  61.5839992 138.3119978  83.3300014
  61.0659992 137.3769978  83.6340014  62.6609992 138.0899978  83.1710014
  61.2359992 138.6769978  82.3400014  61.5039992 139.2539978  84.5460014
  62.0839992 140.1149978  84.1500014  60.4759992 139.5939978  84.7930014
  62.0069992 138.8749978  85.9020014  61.4579992 138.1189978  86.5030014
  62.9899992 138.3669978  85.8030014  62.1539992 140.1029978  86.8300014
  62.7419992 140.9029978  86.3300014  61.2289992 140.7049978  86.9530014
  62.7299992 139.8279978  88.2520014  61.9689992 139.1659978  88.7170014
  63.7329992 139.3679978  88.3800014  62.6429992 141.1349978  89.0470014
  63.5139992 141.7589978  88.7540014  61.6379992 141.5609978  88.8390014
  62.7939992 141.0389978  90.6110014  62.5029992 139.9959978  90.8590014
  63.8699992 141.1579978  90.8570014  62.0339992 141.9599978  91.5230014
  62.3399992 141.7929978  92.5770014  62.4229992 142.9649978  91.2520014
  60.5259992 141.9209978  91.3250014  60.3399992 142.1779978  90.2600014
  60.1269992 140.9119978  91.5630014  59.8609992 143.2059978  91.9740014
  60.6609992 143.9759978  91.9530014  59.0059992 143.5929978  91.3790014
  59.3639992 142.9279978  93.3900014  58.5439992 143.5459978  93.8140014
  58.8009992 141.9719978  93.3350014  60.4809992 142.7749978  94.4900014
  61.0899992 141.8809978  94.2360014  61.1019992 143.6939978  94.4300014
  59.8179992 142.4589978  95.8690014  60.6209992 142.5859978  96.6260014
  59.0229992 143.2179978  96.0340014  58.9889992 141.1909978  96.0480014
  58.1229992 141.2059978  95.3520014  59.5889992 140.3099978  95.7330014
  58.4139992 141.0989978  97.4960014  59.1539992 141.1409978  98.3240014
  57.6769992 141.8719978  97.8020014  57.6089992 139.8699978  97.5470014
  56.5239992 139.6289978  97.0500014  58.2009992 139.0459978  98.4020014
  57.4639992 137.8279978  98.5700014  56.4559992 137.8889978  99.0330014
  57.3949992 137.3139978  97.5870014  58.4019992 136.9089978  99.4220014
  57.9169992 135.9099978  99.4130014  58.3669992 137.4399978 100.9150014
  57.8189992 138.4039978 100.8460014  57.8649992 136.7099978 101.5850014
  59.7049992 137.6639978 101.3630014  60.0509992 139.1159978 101.7920014
  61.5569992 138.8919978 102.3050014  62.0309992 137.7369978 102.8810014
  61.6379992 137.5869978 103.9100014  61.7589992 136.8919978 102.2120014
  63.5669992 137.9149978 103.1330014  63.8309992 138.4709978 104.0210014
  63.9949992 136.9289978 103.2370014  64.4089992 138.6689978 102.0890014
  64.1199992 137.9159978 100.8530014  64.4719992 138.3879978  99.9480014
  64.6559992 136.9789978 100.8050014  63.0679992 137.8149978 100.6310014
  64.1529992 140.1429978 101.9750014  64.1259992 140.5439978 102.9780014
  64.9819992 140.5619978 101.4240014  63.1709992 140.3209978 101.5630014
  65.8399992 138.4149978 102.5320014  65.9619992 138.9669978 103.4530014
  66.5179992 138.9109978 101.8540014  65.9349992 137.3449978 102.6470014
  60.2869992 140.0699978 100.7110014  59.0919992 139.5419978 102.8700014
  59.6699992 136.9099978  98.8220014  59.9089992 136.0749978  97.8470014
  59.0909992 135.2359978  97.4810014  61.3659992 136.1499978  97.3980014
  61.6809992 135.2809978  96.7830014  61.9659992 136.0269978  98.3250014
  61.5669992 137.4519978  96.6310014  62.4089992 138.0039978  97.1010014
  60.6649992 138.0509978  96.8780014  61.6939992 137.2939978  95.1280014
  62.5309992 136.5939978  94.9160014  61.9419992 138.2879978  94.6990014
  60.3909992 136.7459978  94.4800014  59.6979992 137.6129978  94.4310014
  60.0189992 135.9519978  95.1630014  60.6729992 136.1479978  93.1060014
  61.1749992 135.1879978  93.3550014  61.3709992 136.7439978  92.4800014
  59.3549992 135.8679978  92.3030014  58.8569992 135.1359978  92.9740014
  59.6769992 135.2009978  91.4750014  58.2979992 136.9229978  91.9920014
  57.7449992 137.2629978  92.8940014  57.5279992 136.5249978  91.2970014
  58.8619992 138.1829978  91.4430014  59.0959992 138.9539978  92.1930014
  59.2749992 138.3839978  90.1890014  59.6459992 139.4039978  90.0090014
  59.2199992 137.3629978  89.0580014  58.8889992 136.3499978  89.3720014
  60.2609992 137.2649978  88.6830014  58.2289992 137.7949978  88.0430014
  58.2659992 138.8499978  87.6970014  57.1629992 137.6369978  88.3130014
  58.5649992 137.1739978  86.6610014  58.4229992 136.0749978  86.7350014
  59.6269992 137.2519978  86.3430014  57.7849992 137.7629978  85.4950014
  58.2469992 138.7319978  85.2090014  56.6879992 137.8469978  85.6490014
  58.0339992 136.9189978  84.2430014  57.6309992 135.9129978  84.4890014
  59.1099992 136.6879978  84.0860014  57.5089992 137.4309978  82.9210014
  58.2759992 138.1709978  82.6070014  56.5269992 137.9489978  82.9450014
  57.5819992 136.2759978  81.8140014  57.4479992 136.8009978  80.8440014
  56.7319992 135.5769978  81.9690014  58.8479992 135.4539978  81.7910014
  58.7829992 134.7829978  80.9080014  59.0039992 134.8639978  82.7190014
  59.6969992 136.1699978  81.7510014 146.3949992 102.9279978  82.9770014
 146.0899992 103.9439978  82.6460014 145.4939992 102.2779978  82.9400014
 147.1369992 102.3349978  82.4010014 146.9359992 103.0029978  84.3820014
 147.3689992 102.0089978  84.6230014 147.7249992 103.7849978  84.4060014
 145.8839992 103.5179978  85.4600014 145.5309992 104.5109978  85.1090014
 145.0679992 102.7659978  85.5230014 146.6469992 103.7439978  86.8120014
 147.6049992 104.2859978  86.6580014 145.9819992 104.3259978  87.4840014
 147.0099992 102.4349978  87.5700014 146.1229992 101.8959978  87.9670014
 147.5509992 101.7679978  86.8660014 147.8689992 102.7899978  88.7180014
 148.8329992 103.1189978  88.2750014 147.3629992 103.5049978  89.4010014
 148.3819992 101.5939978  89.4430014 148.9389992 100.9609978  88.7200014
 149.1199992 101.7299978  90.2630014 147.3079992 100.6689978  90.1190014
 146.4909992 100.3739978  89.4260014 147.8229992  99.7279978  90.4060014
 146.6589992 101.3479978  91.3670014 145.9569992 102.1639978  91.0900014
 145.9809992 100.6189978  91.8610014 147.6889992 101.7249978  92.4300014
 148.3459992 100.8429978  92.5930014 148.3079992 102.5969978  92.1290014
 147.0879992 102.1559978  93.8240014 146.5129992 103.1069978  93.8330014
 146.3309992 101.4629978  94.2520014 148.1989992 102.3339978  94.8190014
 148.5419992 101.3099978  95.0800014 148.9789992 102.7889978  94.1700014
 147.6879992 103.2959978  95.9230014 148.6079992 103.5299978  96.5010014
 147.3309992 104.2379978  95.4550014 146.6299992 102.8239978  96.8410014
 145.6129992 102.8179978  96.3940014 146.7799992 101.7259978  96.9150014
 146.6609992 103.4019978  98.3220014 146.0859992 102.6579978  98.9140014
 147.6399992 103.6149978  98.8030014 145.8689992 104.6759978  98.3280014
 145.1489992 104.9759978  97.3920014 146.0449992 105.2189978  99.4840014
 144.9949992 106.1129978  99.8320014 145.4569992 106.9379978 100.4150014
 144.5489992 106.5529978  98.9140014 143.8789992 105.4049978 100.6630014
 143.0809992 106.1499978 100.8680014 144.4099992 105.1429978 102.0310014
 145.4689992 104.8089978 102.0650014 144.4409992 106.0619978 102.6550014
 143.6069992 104.2779978 102.7500014 143.7899992 102.7139978 102.7560014
 144.9339992 102.4589978 101.6400014 146.2569992 102.1939978 102.0910014
 147.0249992 102.3089978 101.2960014 146.6069992 102.8749978 102.8970014
 146.2759992 100.6389978 102.4220014 147.2119992 100.5149978 102.9460014
 145.6659992 100.4889978 103.3010014 146.1789992  99.6639978 101.3860014
 144.8319992  99.6779978 100.6650014 144.7699992  98.8389978  99.9880014
 143.9149992  99.7089978 101.2350014 144.8049992 100.5259978  99.9960014
 147.2679992 100.0029978 100.2790014 148.2919992 100.0259978 100.6200014
 147.1529992  99.3389978  99.4350014 147.0159992 100.9359978  99.7980014
 146.4199992  98.2629978 101.9820014 146.1839992  97.5789978 101.1790014
 145.6669992  98.0869978 102.7360014 147.4539992  98.1879978 102.2830014
 144.3219992 102.3759978 104.0920014 142.5369992 102.0239978 102.4440014
 143.4349992 104.2519978  99.9740014 142.3449992 104.2409978  99.2730014
 141.7989992 105.3039978  99.0180014 141.7779992 102.9429978  98.9300014
 140.6689992 102.9409978  98.9910014 142.3029992 102.1649978  99.5250014
 142.0789992 102.6469978  97.4560014 143.1649992 102.8719978  97.3990014
 141.5039992 103.3609978  96.8280014 141.6359992 101.2329978  96.9380014
 140.5819992 101.1229978  97.2730014 142.3049992 100.4529978  97.3610014
 141.7619992 101.1139978  95.4320014 141.3079992 101.9759978  94.8990014
 141.2899992 100.1369978  95.1940014 143.2009992 100.8849978  94.8660014
 143.7569992 100.1279978  95.4600014 143.5859992 101.8939978  95.1240014
 143.2789992 100.5989978  93.3400014 142.7709992  99.6379978  93.1110014
 144.3259992 100.4829978  92.9870014 142.6229992 101.6279978  92.4730014
 141.6599992 101.9509978  92.9230014 142.2239992 101.2439978  91.5100014
 143.4629992 102.9459978  92.3220014 144.0419992 103.1919978  93.2240014
 143.6279992 103.7309978  91.1930014 144.2239992 104.6549978  91.2210014
 142.9879992 103.4489978  89.8650014 142.1669992 102.7059978  89.9550014
 143.6289992 103.1559978  89.0060014 142.3989992 104.7509978  89.3460014
 143.2089992 105.4959978  89.1920014 141.7859992 105.2029978  90.1550014
 141.4379992 104.5709978  88.0910014 140.9609992 105.5619978  87.9360014
 140.6959992 103.7859978  88.3520014 142.1769992 104.4969978  86.7220014
 142.8089992 103.5829978  86.7120014 142.9309992 105.3099978  86.7790014
 141.2449992 104.6179978  85.5340014 141.9839992 104.8589978  84.7390014
 140.5569992 105.4889978  85.4950014 140.3269992 103.4639978  85.1680014
 139.6549992 103.7829978  84.3420014 139.6939992 103.2289978  86.0500014
 140.9679992 102.0579978  84.7240014 140.2159992 101.3429978  84.3280014
 141.4049992 101.6449978  85.6580014 142.0479992 102.1189978  83.6290014
 142.9829992 101.5889978  83.9110014 142.1189992 103.1739978  83.2880014
 141.6729992 101.7179978  82.6630014   7.3259992  66.7359978  85.2670014
   8.2659992  66.9399978  84.7110014   6.4629992  67.0029978  84.6200014
   7.2749992  65.6429978  85.4590014   7.3829992  67.7209978  86.4840014
   7.2479992  68.7049978  85.9870014   6.4839992  67.5509978  87.1160014
   8.5849992  67.6449978  87.4610014   8.5239992  66.7539978  88.1220014
   9.5769992  67.6669978  86.9610014   8.6419992  68.8309978  88.5350014
   9.6389992  69.2919978  88.7040014   7.9849992  69.6969978  88.3070014
   8.0529992  68.3909978  89.8750014   8.8059992  67.6439978  90.2080014
   7.9939992  69.1509978  90.6830014   6.5779992  67.7219978  89.7970014
   5.8659992  68.4199978  89.3070014   6.7489992  66.8219978  89.1680014
   6.1659992  67.1439978  91.1550014   6.0569992  67.8389978  92.0150014
   5.1119992  66.8119978  91.0480014   6.9489992  65.9559978  91.5440014
   6.7929992  65.1089978  90.8420014   8.0239992  66.1219978  91.7720014
   6.3729992  65.4009978  92.8670014   6.3899992  66.2139978  93.6240014
   5.3079992  65.1119978  92.7360014   7.1029992  64.1689978  93.3600014
   6.4939992  63.9799978  94.2700014   6.9199992  63.3269978  92.6580014
   8.5829992  64.4149978  93.7030014   8.8979992  64.6679978  92.6680014
   8.6189992  65.2149978  94.4730014   9.2539992  63.1269978  94.3150014
   8.7589992  62.6519978  95.1890014   9.0649992  62.3619978  93.5320014
  10.7779992  63.2489978  94.6590014  10.9829992  62.4649978  95.4190014
  11.4329992  63.1859978  93.7630014  11.1249992  64.6279978  95.3140014
  11.2159992  65.3509978  94.4760014  10.3449992  64.7139978  96.1010014
  12.5649992  64.7269978  95.8460014  12.8219992  63.9339978  96.5810014
  13.3039992  64.4619978  95.0590014  12.9439992  66.1169978  96.3950014
  12.7589992  67.1409978  95.7980014  13.2039992  66.0269978  97.7360014
  13.0659992  67.2529978  98.5080014  13.8719992  67.1249978  99.2620014
  13.2219992  68.2099978  97.9670014  11.7529992  67.2899978  99.3210014
  11.9249992  68.2109978  99.9190014  11.7999992  65.9039978 100.0990014
  11.7659992  65.0119978  99.4380014  12.5839992  65.8749978 100.8850014
  10.5389992  65.8789978 100.8180014  10.3789992  65.0249978 102.0840014
   9.0519992  65.6109978 102.9080014   9.0999992  66.9909978 103.2050014
   8.6319992  67.0899978 104.2080014  10.1049992  67.4499978 103.3290014
   8.1679992  67.8899978 102.3540014   8.0529992  68.8079978 102.9100014
   8.7439992  68.1999978 101.4940014   6.7909992  67.3779978 101.8040014
   5.9689992  66.8709978 102.9280014   6.4099992  65.9309978 103.2230014
   6.0229992  67.4929978 103.8090014   4.9349992  66.7169978 102.6550014
   6.1119992  68.5919978 101.2280014   6.7729992  68.9269978 100.4430014
   5.2419992  68.3469978 100.6360014   6.0129992  69.2959978 102.0420014
   7.0389992  66.3699978 100.7440014   6.1779992  65.9519978 100.2440014
   7.6709992  65.5859978 101.1350014   7.7259992  66.8079978 100.0350014
  10.1029992  63.6249978 101.5630014  11.6359992  65.1059978 102.8680014
  10.6629992  67.3829978  98.4310014  10.4149992  68.5989978  97.9090014
  10.9499992  69.6439978  98.3070014   9.3929992  68.4989978  96.7870014
   8.4879992  68.3969978  97.4230014   9.5079992  67.5879978  96.1620014
   9.3609992  69.8379978  96.0100014   9.2399992  70.7919978  96.5660014
   8.4469992  69.7859978  95.3810014  10.6889992  69.9469978  95.2450014
  11.0389992  68.9139978  95.0330014  11.4369992  70.5959978  95.7490014
  10.3929992  70.5109978  93.8390014   9.8309992  71.4689978  93.8170014
   9.8799992  69.7819978  93.1760014  11.7419992  70.8109978  93.1340014
  12.4119992  69.9249978  93.1390014  12.2339992  71.5969978  93.7470014
  11.6009992  71.4049978  91.7310014  12.5269992  71.9919978  91.5510014
  10.7459992  72.1059978  91.8420014  11.4289992  70.3429978  90.6890014
  10.9759992  70.8059978  89.7870014  10.6889992  69.5849978  91.0240014
  12.6919992  69.6149978  90.3510014  13.5179992  70.2479978  89.9960014
  13.0719992  68.3219978  90.6190014  14.0599992  68.0219978  90.2410014
  12.2839992  67.2139978  91.3090014  11.4119992  67.6799978  91.8160014
  12.9509992  66.7519978  92.0680014  11.8969992  66.1449978  90.2390014
  12.8119992  65.9099978  89.6540014  11.1689992  66.6369978  89.5590014
  11.3269992  64.9229978  90.9030014  10.4959992  65.3429978  91.5100014
  12.1509992  64.5419978  91.5440014  10.8349992  63.8319978  89.9610014
   9.8959992  64.1279978  89.4470014  10.6329992  63.0109978  90.6820014
  11.7779992  63.2859978  88.9170014  11.7669992  62.1809978  89.0290014
  12.7819992  63.6439978  89.2330014  11.4259992  63.6999978  87.4510014
  11.8099992  64.7269978  87.2730014  10.3189992  63.7129978  87.3570014
  12.1669992  62.8099978  86.4560014  12.0889992  61.7479978  86.7730014
  13.2449992  63.0799978  86.4660014  11.6509992  62.9929978  85.0200014
  11.8329992  64.0049978  84.5980014  10.5849992  62.6929978  84.9320014
  12.0019992  62.2479978  84.2750014  77.3529992 142.7799978  83.1050014
  78.2649992 143.2279978  82.6560014  76.4609992 143.4369978  83.0160014
  77.0129992 141.8319978  82.6370014  77.5619992 142.5009978  84.5600014
  78.0179992 143.3719978  85.0780014  76.6329992 142.1839978  85.0800014
  78.6569992 141.3819978  84.8660014  78.3259992 140.3229978  84.8240014
  79.4249992 141.4889978  84.0700014  79.4099992 141.6479978  86.1010014
  80.1339992 140.8249978  86.2830014  79.9139992 142.6269978  85.9550014
  78.5519992 141.8009978  87.3760014  79.2489992 142.1779978  88.1550014
  77.7779992 142.5929978  87.2930014  77.9669992 140.4639978  87.8170014
  77.4059992 140.0479978  86.9520014  78.8469992 139.8259978  88.0510014
  76.9959992 140.6379978  89.0100014  76.2609992 141.4339978  88.7650014
  76.3089992 139.7679978  89.0730014  77.5769992 140.9519978  90.4040014
  78.2509992 140.0919978  90.6030014  78.3449992 141.7549978  90.4060014
  76.5119992 141.1599978  91.5140014  75.8069992 141.8899978  91.0620014
  75.9619992 140.2439978  91.8200014  77.0099992 141.7149978  92.9010014
  76.1399992 141.6919978  93.5920014  77.6669992 140.9139978  93.3030014
  77.7999992 143.0339978  92.9880014  78.5979992 142.9359978  92.2210014
  77.1059992 143.8999978  93.0300014  78.4209992 143.0139978  94.3140014
  77.7469992 142.6109978  95.1000014  79.2969992 142.3339978  94.3870014
  78.7759992 144.4699978  94.7690014  79.8399992 144.3899978  95.0810014
  78.7199992 145.2919978  94.0240014  77.9809992 144.9329978  96.0090014
  78.3869992 145.9569978  96.1510014  76.9269992 145.1149978  95.7080014
  78.3499992 144.0569978  97.2670014  77.7949992 143.0949978  97.2480014
  79.4279992 143.7909978  97.2520014  78.0499992 144.7989978  98.6010014
  78.8749992 144.9739978  99.5120014  76.8599992 145.3049978  98.4990014
  76.4089992 146.2619978  99.4530014  77.1009992 146.3999978 100.3110014
  76.3809992 147.2239978  98.8970014  74.9249992 146.1039978  99.8390014
  74.5479992 147.0959978 100.1680014  74.7549992 145.0719978 100.8780014
  75.3269992 145.3309978 101.7940014  73.6589992 144.9999978 101.0440014
  75.0669992 143.8189978 100.3380014  74.9399992 142.3889978 101.1610014
  75.7929992 142.6519978 102.5530014  77.1089992 143.2659978 102.3880014
  77.4719992 143.4269978 101.3510014  77.2049992 144.2799978 102.8300014
  78.2719992 142.5619978 103.1160014  79.0919992 143.2419978 102.9380014
  78.1949992 142.6579978 104.1890014  78.6869992 141.1649978 102.8200014
  77.7969992 140.1489978 103.4920014  76.8149992 140.3729978 103.1040014
  78.0009992 139.1339978 103.1820014  77.9039992 140.3539978 104.5470014
  78.7089992 140.7319978 101.3200014  78.7739992 139.6549978 101.2700014
  77.8429992 140.9849978 100.7260014  79.5829992 141.2139978 100.9090014
  80.0409992 141.0709978 103.3540014  79.9049992 141.4359978 104.3620014
  80.7099992 141.7459978 102.8420014  80.3799992 140.0459978 103.3870014
  73.5259992 142.1269978 101.4920014  75.5689992 141.2289978 100.4720014
  74.1899992 145.6169978  98.6950014  74.1629992 146.2529978  97.5310014
  74.3669992 147.4289978  97.3740014  73.9009992 145.1629978  96.5240014
  73.0329992 144.5549978  96.8590014  74.8289992 144.5529978  96.5240014
  73.6569992 145.7129978  95.0900014  74.4599992 146.4289978  94.8120014
  72.6319992 146.1339978  95.1730014  73.4249992 144.6879978  93.9800014
  72.6819992 143.9719978  94.3940014  74.3509992 144.0869978  93.8510014
  73.0639992 145.4109978  92.6500014  72.1439992 146.0099978  92.8130014
  72.9209992 144.5449978  91.9680014  74.2019992 146.3269978  92.1960014
  75.1679992 145.7789978  92.1700014  74.5079992 147.1019978  92.9310014
  74.1099992 146.9729978  90.8370014  73.1509992 147.5269978  90.7520014
  74.0929992 146.1689978  90.0700014  75.3029992 147.9549978  90.6480014
  75.2799992 148.5829978  91.5640014  75.0389992 148.6119978  89.7910014
  76.6519992 147.3729978  90.5430014  77.0079992 146.7609978  91.3850014
  77.3939992 147.4869978  89.4590014  78.4129992 147.0739978  89.4900014
  77.1109992 148.1559978  88.1210014  77.8719992 148.9649978  88.0810014
  76.0969992 148.6019978  88.0380014  77.3439992 147.3789978  86.7760014
  78.3549992 146.9789978  86.5490014  77.1859992 148.0949978  85.9420014
  76.3179992 146.2099978  86.5680014  75.3169992 146.2789978  87.0450014
  76.8039992 145.3359978  87.0530014  76.1159992 145.9029978  85.0430014
  75.3739992 145.0759978  85.0250014  77.0749992 145.5759978  84.5860014
  75.5779992 147.0829978  84.2010014  76.4609992 147.7449978  84.0720014
  74.7469992 147.6299978  84.6950014  74.9229992 146.6359978  82.8720014
  74.2489992 145.8099978  83.1840014  75.6379992 146.1269978  82.1910014
  74.3109992 147.6849978  81.9440014  73.5349992 148.2589978  82.4930014
  73.7889992 147.1739978  81.1070014  75.3509992 148.6169978  81.2430014
  76.2059992 147.9569978  80.9800014  75.6219992 149.5249978  81.8230014
  74.9389992 149.0639978  80.3140014 116.8709992 132.2949978  85.1990014
 117.7169992 131.7649978  84.7100014 116.6649992 133.1579978  84.5300014
 115.9789992 131.6389978  85.2920014 117.2719992 132.7819978  86.5660014
 116.4239992 133.3519978  87.0020014 117.4039992 131.8259978  87.1160014
 118.6659992 133.4519978  86.6680014 119.3969992 132.9289978  86.0140014
 118.5899992 134.4359978  86.1570014 119.2149992 133.6749978  88.0580014
 119.9719992 134.4819978  87.9550014 118.5119992 134.0629978  88.8250014
 119.8279992 132.4109978  88.6890014 118.9939992 131.9129978  89.2270014
 120.1469992 131.6629978  87.9320014 120.9429992 132.7809978  89.6270014
 120.7179992 133.7389978  90.1420014 120.9099992 132.0649978  90.4760014
 122.4259992 132.7989978  89.0940014 122.6349992 131.8379978  88.5780014
 122.4269992 133.5889978  88.3130014 123.5279992 133.1009978  90.0900014
 124.4889992 133.3399978  89.5850014 123.0909992 134.0219978  90.5330014
 123.7879992 132.0809978  91.1640014 122.8849992 131.9419978  91.7970014
 123.9329992 131.1249978  90.6180014 124.9749992 132.1879978  92.2010014
 125.0449992 131.2419978  92.7800014 125.9719992 132.2009978  91.7110014
 124.8069992 133.2169978  93.3120014 125.8119992 133.3629978  93.7630014
 124.3899992 134.1659978  92.9110014 123.8469992 132.9199978  94.4800014
 122.9209992 132.4589978  94.0740014 124.4059992 132.3149978  95.2250014
 123.4159992 134.1429978  95.2210014 124.3409992 134.7309978  95.4030014
 122.7079992 134.6439978  94.5270014 122.5699992 133.9249978  96.4410014
 121.8079992 133.1269978  96.3130014 123.2419992 133.4999978  97.2170014
 121.8879992 135.2609978  96.9110014 122.3439992 135.4929978  97.8970014
 122.0289992 136.0349978  96.1270014 120.3299992 135.2009978  96.8910014
 119.5759992 136.1029978  96.5000014 119.9729992 134.0749978  97.4540014
 118.5909992 133.8579978  97.6250014 118.1799992 134.3889978  98.5100014
 117.9309992 134.1459978  96.7790014 118.3169992 132.3539978  97.8520014
 117.2149992 132.2389978  97.9280014 118.9359992 131.8499978  99.1290014
 118.5449992 132.4609978  99.9710014 118.5819992 130.7999978  99.2080014
 120.3259992 131.7129978  98.9530014 121.4669992 131.6199978  99.9630014
 120.8529992 130.8539978 101.1860014 121.4219992 130.1249978 102.2010014
 120.7279992 129.2679978 102.3330014 122.4209992 129.7029978 101.9610014
 121.4989992 130.8969978 103.5890014 121.7229992 130.2119978 104.3930014
 122.3479992 131.5639978 103.5610014 120.2289992 131.7409978 104.0880014
 119.9589992 132.9739978 103.2210014 119.4669992 132.8189978 102.2710014
 119.3599992 133.6909978 103.7630014 120.8719992 133.4609978 102.9130014
 119.1299992 130.6629978 104.0000014 118.1929992 131.1189978 104.2840014
 119.0499992 130.2249978 103.0160014 119.2639992 129.8659978 104.7160014
 120.4919992 132.1289978 105.5730014 119.6419992 132.6379978 106.0020014
 121.4039992 132.7019978 105.6550014 120.7329992 131.2409978 106.1400014
 122.5369992 130.7719978  99.3410014 121.8379992 132.9529978 100.3910014
 118.7749992 131.6499978  96.6810014 118.3939992 130.4019978  96.4820014
 117.6999992 129.7469978  97.2170014 118.9679992 129.9559978  95.2460014
 118.4749992 130.3939978  94.3520014 118.8719992 128.8519978  95.1610014
 120.5499992 130.1899978  95.1260014 121.0459992 129.5899978  95.9190014
 120.7839992 131.2429978  95.3900014 121.1449992 129.7949978  93.7170014
 122.1809992 130.1969978  93.7370014 120.6799992 130.2949978  92.8400014
 121.1689992 128.2529978  93.3900014 120.1399992 127.8819978  93.1990014
 121.5349992 127.8509978  94.3590014 122.1429992 127.9869978  92.1780014
 122.1869992 126.8799978  92.2470014 123.1489992 128.4379978  92.3130014
 121.6149992 128.4709978  90.8150014 122.3789992 128.0599978  90.1220014
 121.7059992 129.5769978  90.7540014 120.3739992 127.8919978  90.2450014
 120.3399992 126.7839978  90.3240014 120.5029992 128.0459978  89.1520014
 119.1479992 128.5359978  90.8000014 119.4019992 129.3469978  91.4970014
 117.8649992 128.1399978  90.5530014 117.0289992 128.7319978  90.9550014
 117.3409992 127.0489978  89.7060014 116.6149992 126.3929978  90.2320014
 118.1709992 126.3699978  89.4150014 116.6089992 127.6729978  88.4610014
 115.8319992 128.3779978  88.8260014 116.0259992 126.8349978  88.0230014
 117.4449992 128.4209978  87.3820014 118.0169992 129.2529978  87.8450014
 116.7429992 128.8979978  86.6660014 118.2679992 127.4149978  86.5240014
 117.5629992 126.7729978  85.9530014 118.8209992 126.8509978  87.3050014
 119.0389992 128.0979978  85.4100014 118.1929992 128.6059978  84.8990014
 119.4089992 127.3409978  84.6860014 120.1899992 129.0159978  85.7520014
 120.8009992 128.5889978  86.5760014 119.7399992 129.9929978  86.0280014
 120.9859992 129.3329978  84.5060014 121.7389992 128.5579978  84.2480014
 121.7229992 130.1279978  84.7520014 120.3169992 129.7369978  83.2460014
 121.1079992 130.2659978  82.6730014 119.5439992 130.5029978  83.4680014
 119.9419992 128.8849978  82.6390014   8.6279992  99.9349978  85.5240014
   9.5929992 100.1609978  86.0260014   8.6989992  99.7969978  84.4240014
   8.3029992  98.9349978  85.8860014   7.4599992 100.8819978  85.9330014
   7.9229992 101.6939978  86.5330014   6.9969992 101.2529978  84.9930014
   6.4679992 100.2739978  86.8440014   5.7289992 101.0459978  87.1500014
   5.9209992  99.4809978  86.2910014   6.9869992  99.7159978  88.2000014
   7.7779992  98.9639978  87.9900014   7.5349992 100.5579978  88.6750014
   5.8999992  99.1829978  89.1880014   5.1949992 100.0209978  89.3700014
   5.3079992  98.3649978  88.7240014   6.3189992  98.6319978  90.5550014
   6.8819992  99.4529978  91.0480014   5.3349992  98.3099978  90.9590014
   7.1529992  97.3499978  90.3870014   6.7809992  96.7779978  89.5110014
   8.2209992  97.5989978  90.2060014   7.3269992  96.5899978  91.7530014
   6.3399992  96.2629978  92.1460014   8.0129992  95.7219978  91.6550014
   7.8179992  97.4789978  92.9040014   8.5739992  98.1999978  92.5240014
   7.0819992  98.1569978  93.3880014   8.3969992  96.6319978  94.0450014
   7.6699992  95.9119978  94.4790014   9.1629992  95.9849978  93.5660014
   9.0979992  97.4259978  95.1500014   8.3779992  98.1679978  95.5550014
   9.2309992  96.7089978  95.9880014  10.3959992  98.0949978  94.7120014
  11.0199992  97.3509978  94.1730014  10.1899992  98.9769978  94.0680014
  11.2249992  98.5279978  95.9060014  11.3779992  97.5969978  96.4920014
  12.1929992  98.9559978  95.5670014  10.5489992  99.5599978  96.8000014
   9.4399992  99.5569978  96.7360014  10.7889992  99.5779978  97.8850014
  10.7429992 101.0469978  96.2500014  11.8379992 101.2229978  96.1840014
  10.4259992 101.0869978  95.1850014   9.9939992 102.1319978  97.0280014
   9.8469992 103.2649978  96.6140014   9.3999992 101.6289978  98.1480014
   8.6729992 102.6639978  98.8680014   9.4249992 103.3819978  99.2610014
   7.8959992 103.0969978  98.2010014   8.0009992 102.0019978 100.1320014
   7.4939992 102.7709978 100.7540014   9.0329992 101.3359978 101.0530014
   9.3579992 100.4279978 100.5010014   9.8819992 102.0519978 101.0710014
   8.5469992 101.0649978 102.3920014   9.6799992 100.3659978 103.3270014
   9.4639992  98.7879978 103.0570014   8.2419992  98.1429978 102.9970014
   8.2719992  97.0909978 103.3540014   7.4529992  98.5969978 103.6340014
   7.7409992  98.0869978 101.5150014   6.7089992  97.7889978 101.3990014
   7.8209992  99.1099978 101.1790014   8.5619992  97.2229978 100.6030014
   8.5109992  95.7679978 101.1470014   8.9549992  95.0429978 100.4810014
   9.0689992  95.6989978 102.0700014   7.4769992  95.5259978 101.3440014
   7.9549992  97.2099978  99.2640014   8.5609992  96.7099978  98.5230014
   7.0119992  96.6839978  99.2420014   7.6379992  98.1709978  98.8870014
   9.9319992  97.7899978 100.4960014  10.5949992  97.0759978 100.0300014
  10.2639992  98.0099978 101.5000014   9.8979992  98.6179978  99.8030014
  11.0519992 100.7839978 102.9640014   9.3469992 100.6019978 104.7440014
   7.0559992 101.0019978  99.6650014   5.8539992 101.4479978  99.4220014
   5.4219992 102.5679978  99.5980014   5.1159992 100.3259978  98.6560014
   4.0759992 100.6289978  98.4060014   5.1529992  99.3359978  99.1580014
   5.7819992 100.0489978  97.3080014   5.2309992  99.2589978  96.7550014
   6.7359992  99.5369978  97.5560014   6.0499992 101.2009978  96.4560014
   6.8159992 101.8869978  96.8760014   5.1189992 101.7469978  96.1900014
   6.3359992 100.7519978  95.0160014   5.4769992 100.0819978  94.7990014
   7.2599992 100.1399978  95.1020014   6.4489992 101.6659978  93.8770014
   5.5079992 102.2559978  93.9050014   6.3309992 101.0159978  92.9840014
   7.6499992 102.5859978  93.8370014   8.3329992 102.0139978  94.5000014
   7.3949992 103.6179978  94.1590014   8.3449992 102.7169978  92.4690014
   7.7049992 103.4619978  91.9490014   8.3359992 101.7289978  91.9610014
   9.7229992 103.2189978  92.6410014   9.7639992 104.1079978  93.2880014
  10.8889992 102.7989978  92.1430014  11.8089992 103.3129978  92.4570014
  10.9139992 101.6409978  91.2600014   9.9729992 101.4419978  90.7040014
  11.1599992 100.6549978  91.7090014  12.1389992 101.7639978  90.3240014
  13.0539992 102.0699978  90.8740014  11.8659992 102.6159978  89.6650014
  12.4979992 100.4289978  89.6390014  12.8509992  99.6489978  90.3470014
  13.2739992 100.7039978  88.8930014  11.2399992  99.8379978  88.8550014
  10.7229992 100.6859978  88.3590014  10.6449992  99.4479978  89.7090014
  11.5509992  98.8199978  87.7790014  12.6539992  98.6859978  87.8020014
  11.3329992  99.3109978  86.8070014  10.9819992  97.4179978  87.9990014
   9.8919992  97.6309978  87.9850014  11.2209992  96.9309978  88.9690014
  11.4049992  96.4129978  86.8590014  10.9099992  95.4559978  87.1290014
  12.5079992  96.3099978  86.9440014  11.0429992  96.7129978  85.4030014
  11.6519992  97.5209978  84.9440014  10.0269992  97.1379978  85.5450014
  11.0349992  95.7569978  84.8350014  28.1209992 125.4459978  81.9920014
  28.2189992 125.1509978  83.0590014  28.9809992 126.1229978  81.8040014
  28.1459992 124.4869978  81.4320014  26.7409992 126.0469978  81.7200014
  26.6779992 127.0649978  82.1610014  26.6759992 126.0969978  80.6120014
  25.5789992 125.1979978  82.2500014  24.7249992 125.8659978  82.0070014
  25.4819992 124.3419978  81.5500014  25.6579992 124.6559978  83.6640014
  24.7089992 124.1279978  83.8980014  26.4219992 123.8509978  83.7250014
  25.7749992 125.7469978  84.7280014  26.4809992 126.5389978  84.4000014
  24.8219992 126.3169978  84.7820014  26.1229992 125.2149978  86.1360014
  27.1189992 124.7229978  86.1540014  26.0129992 126.0319978  86.8800014
  25.2319992 124.0589978  86.6660014  24.1969992 124.4399978  86.7990014
  25.3239992 123.2209978  85.9420014  25.7609992 123.3439978  87.9870014
  24.8989992 122.7749978  88.3960014  26.6059992 122.7149978  87.6330014
  26.1759992 124.3779978  89.0230014  26.9209992 125.0769978  88.5850014
  25.3379992 125.0079978  89.3890014  26.7919992 123.7709978  90.3600014
  26.0049992 123.0889978  90.7490014  27.7009992 123.1549978  90.1900014
  26.8079992 124.8179978  91.5600014  27.4729992 125.6859978  91.3660014
  25.7699992 125.1979978  91.6770014  27.1619992 124.2359978  93.0180014
  26.3789992 123.5609978  93.4260014  28.1459992 123.7219978  92.9830014
  27.4709992 125.3389978  94.0930014  26.9809992 126.2979978  93.8210014
  26.9079992 125.0939978  95.0180014  28.8069992 125.3639978  94.6420014
  29.2799992 124.4259978  95.0020014  29.5389992 125.4479978  93.8100014
  29.0659992 126.5259978  95.6930014  30.1659992 126.6749978  95.6530014
  28.5399992 127.3849978  95.2260014  28.6839992 126.1579978  97.0700014
  28.1689992 125.1259978  97.4140014  28.8699992 127.2019978  97.8120014
  28.1709992 127.2609978  99.0590014  27.1539992 126.8199978  98.9840014
  28.7189992 126.7309978  99.8670014  27.9439992 128.7239978  99.5970014
  28.9129992 129.2209978  99.8160014  27.0009992 128.6429978 100.8590014
  27.3169992 127.9039978 101.6260014  27.0639992 129.6239978 101.3760014
  25.7229992 128.4309978 100.3930014  24.6709992 127.2669978 100.8460014
  25.7139992 126.1769978 101.2540014  25.4489992 124.7569978 101.0970014
  24.4449992 124.5679978 100.6610014  26.0699992 124.3409978 100.2740014
  25.6389992 123.8649978 102.3510014  24.7369992 123.7959978 102.9410014
  25.9279992 122.8709978 102.0420014  26.5669992 124.2859978 103.4190014
  26.0849992 125.5029978 104.1940014  25.1479992 125.4349978 104.7260014
  26.8059992 125.8529978 104.9180014  26.0019992 126.2949978 103.4640014
  26.8249992 123.1669978 104.3800014  25.9359992 122.8889978 104.9270014
  27.2299992 122.3409978 103.8130014  27.5119992 123.5799978 105.1040014
  27.8889992 124.7419978 102.8770014  28.1689992 123.9439978 102.2050014
  28.6019992 124.8929978 103.6740014  27.7609992 125.6589978 102.3210014
  23.9539992 127.7429978 102.0300014  23.8979992 126.8699978  99.6660014
  27.2759992 129.4529978  98.5710014  27.2889992 130.7789978  98.6480014
  27.7929992 131.4369978  99.5160014  26.4539992 131.3579978  97.4240014
  25.8869992 132.1839978  97.9040014  25.8409992 130.4919978  97.0930014
  27.3489992 131.8019978  96.3520014  28.2509992 131.1529978  96.3200014
  27.9209992 132.6979978  96.6750014  26.7259992 131.9109978  94.9320014
  27.4519992 132.4789978  94.3120014  25.7929992 132.5119978  94.9920014
  26.5989992 130.6219978  94.0480014  25.7929992 130.0359978  94.5380014
  27.5759992 130.1019978  94.1470014  26.2469992 130.9039978  92.5850014
  27.2359992 131.1959978  92.1720014  25.6129992 131.8029978  92.4260014
  25.7029992 129.7529978  91.7450014  24.7099992 129.4849978  92.1640014
  26.3289992 128.8629978  91.9720014  25.6999992 130.0009978  90.1530014
  25.8709992 129.0249978  89.6500014  26.5439992 130.7019978  89.9780014
  24.4189992 130.7189978  89.8300014  24.3439992 131.7289978  90.2600014
  23.3839992 130.3419978  89.0920014  22.4699992 130.9549978  89.0880014
  23.2979992 129.0409978  88.3040014  22.1999992 128.9389978  88.1730014
  23.8629992 128.1829978  88.7280014  23.8709992 129.0239978  86.8770014
  23.2429992 129.6299978  86.1890014  23.7419992 127.9959978  86.4760014
  25.3209992 129.4069978  86.8650014  25.8719992 128.5129978  87.2260014
  25.5579992 130.2509978  87.5490014  25.8019992 129.7799978  85.4390014
  25.2089992 130.5879978  84.9600014  25.6569992 128.8109978  84.9140014
  27.2459992 130.1819978  85.2870014  27.2859992 131.2129978  85.6970014
  27.4529992 130.2269978  84.1960014  28.2759992 129.1389978  85.8980014
  27.9959992 128.2289978  85.3250014  28.0069992 128.9589978  86.9610014
  29.7169992 129.5809978  85.7190014  30.3379992 128.7359978  86.0870014
  29.8729992 130.4569978  86.3860014  30.1729992 129.9129978  84.2560014
  30.0969992 128.9389978  83.7270014  31.2439992 130.1679978  84.1050014
  29.6609992 130.7229978  83.6960014   9.8209992  76.9969978  83.9890014
  10.4439992  77.4989978  83.2180014  10.5639992  76.4409978  84.5990014
   9.3969992  77.6769978  84.7580014   8.7629992  76.0639978  83.4680014
   8.2549992  76.6549978  82.6770014   9.2529992  75.2459978  82.8980014
   8.0399992  75.4509978  84.6450014   7.7299992  76.2309978  85.3730014
   7.0819992  75.0279978  84.2730014   8.7959992  74.2509978  85.2520014
   8.8059992  73.3509978  84.6010014   9.8059992  74.6459978  85.4940014
   8.0959992  73.7729978  86.4930014   7.0239992  73.8979978  86.2290014
   8.4309992  72.7299978  86.6800014   8.2769992  74.6389978  87.7480014
   9.2889992  74.5259978  88.1910014   8.1759992  75.7229978  87.5260014
   7.2939992  74.2259978  88.8040014   6.3589992  74.0259978  88.2370014
   7.5649992  73.2309978  89.2170014   7.1279992  75.2209978  89.9620014
   6.8019992  76.1869978  89.5190014   6.3229992  74.8369978  90.6240014
   8.4809992  75.3889978  90.7660014   9.1889992  75.9709978  90.1380014
   8.1879992  76.0139978  91.6360014   9.0689992  74.0619978  91.2430014
   8.2359992  73.6909978  91.8780014   9.2039992  73.5199978  90.2820014
  10.4329992  74.2129978  91.8940014  10.8109992  73.2549978  92.3120014
  11.1449992  74.6739978  91.1770014  10.3739992  75.0899978  93.1690014
  11.4539992  75.2349978  93.3830014   9.8509992  76.0509978  92.9720014
   9.8189992  74.4429978  94.4840014   8.7129992  74.3549978  94.4260014
  10.3379992  73.4669978  94.5920014  10.1429992  75.3369978  95.7770014
   9.3749992  75.3059978  96.5790014  11.0329992  74.8369978  96.2140014
  10.4269992  76.8579978  95.5350014  11.3909992  77.0389978  95.0140014
   9.6499992  77.2789978  94.8610014  10.4889992  77.5149978  96.9120014
  10.7559992  76.9829978  97.9790014   9.9979992  78.7899978  96.7730014
   9.4199992  79.2229978  98.0360014  10.0519992  79.0609978  98.9350014
   9.3079992  80.3249978  97.9510014   7.9179992  78.7099978  98.1230014
   7.2259992  79.3249978  97.5090014   7.5509992  78.8819978  99.6050014
   7.9399992  79.8479978  99.9900014   6.4599992  78.9519978  99.8050014
   8.1969992  77.8939978 100.4370014   7.6509992  77.2429978 101.7340014
   6.5349992  76.1909978 101.2450014   6.7879992  74.9669978 100.6790014
   6.0039992  74.8329978  99.9040014   7.7329992  74.8869978 100.1000014
   6.7769992  73.7899978 101.7100014   6.7929992  72.9489978 101.0330014
   7.7049992  73.9409978 102.2420014   5.5699992  73.6159978 102.6600014
   5.5109992  74.8189978 103.6330014   6.3299992  74.7969978 104.3360014
   5.5599992  75.6919978 102.9990014   4.5939992  74.9579978 104.1850014
   4.2639992  73.4619978 101.9110014   3.5489992  73.3629978 102.7150014
   4.0599992  74.3189978 101.2870014   4.2119992  72.6289978 101.2250014
   5.7509992  72.4309978 103.5450014   5.0009992  72.4689978 104.3210014
   6.6219992  72.4919978 104.1800014   5.8099992  71.4449978 103.1090014
   8.7709992  76.5849978 102.5070014   7.0489992  78.4139978 102.4450014
   7.7619992  77.3429978  97.6400014   6.5619992  76.7219978  97.8210014
   5.6479992  77.0799978  98.5340014   6.4699992  75.3849978  97.0770014
   6.7049992  74.5269978  97.7420014   7.2759992  75.3279978  96.3140014
   5.1729992  75.4999978  96.3230014   5.0089992  76.5509978  96.0010014
   4.3719992  75.2169978  97.0380014   5.1769992  74.6309978  95.1300014
   5.5709992  73.6129978  95.3360014   5.8599992  74.9819978  94.3280014
   3.8719992  74.5839978  94.3110014   3.0639992  74.3079978  95.0230014
   3.8319992  73.7869978  93.5380014   3.4549992  75.8699978  93.6260014
   3.5639992  76.7569978  94.2860014   2.3549992  75.7729978  93.5030014
   4.2109992  76.1059978  92.3220014   4.2519992  75.1769978  91.7140014
   5.2659992  76.2259978  92.6460014   3.7799992  77.4089978  91.5680014
   4.6369992  77.7639978  90.9560014   3.5889992  78.1559978  92.3680014
   2.5959992  77.3839978  90.6790014   1.6079992  77.4079978  91.1620014
   2.6649992  77.0539978  89.3430014   1.6949992  77.0459978  88.8250014
   3.8959992  76.6529978  88.5830014   3.8009992  75.5789978  88.3130014
   4.7719992  76.6429978  89.2660014   4.1939992  77.4019978  87.2700014
   3.3249992  77.4189978  86.5780014   5.0229992  77.0249978  86.6350014
   4.5869992  78.9479978  87.3490014   5.6039992  79.1499978  87.7480014
   3.7489992  79.4219978  87.9040014   4.4609992  79.6939978  86.0300014
   4.7199992  80.7749978  86.0340014   3.4719992  79.4649978  85.5790014
   5.5689992  79.1199978  85.0970014   5.3209992  78.1159978  84.6900014
   6.4919992  79.0279978  85.7070014   5.8059992  80.0969978  83.9360014
   6.2129992  81.0679978  84.2920014   4.8429992  80.3169978  83.4280014
   6.8619992  79.4639978  82.9170014   6.5729992  78.4119978  82.7110014
   7.8289992  79.3659978  83.4560014   7.1509992  80.3289978  81.6960014
   7.5969992  81.2919978  82.0270014   6.1469992  80.3959978  81.2250014
   7.8129992  79.7949978  80.9820014  28.1309992  24.1239978  80.8240014
  27.9539992  23.4739978  81.7070014  28.3759992  23.4319978  79.9910014
  27.1529992  24.5229978  80.4770014  29.1259992  25.2459978  81.2150014
  30.0779992  24.8369978  81.6150014  29.4119992  25.9079978  80.3700014
  28.5709992  26.3029978  82.2230014  29.1939992  27.2219978  82.2430014
  27.6829992  26.6789978  81.6720014  28.1689992  25.7759978  83.5880014
  27.4889992  26.4759978  84.1190014  27.7399992  24.7519978  83.6320014
  29.2879992  25.6489978  84.5960014  29.9519992  24.7629978  84.4960014
  29.8879992  26.5819978  84.5300014  28.8459992  25.5599978  86.1260014
  29.5819992  26.0429978  86.8040014  27.9449992  26.2089978  86.1580014
  28.4829992  24.0759978  86.5980014  27.6559992  23.6439978  85.9940014
  29.3499992  23.4369978  86.3270014  28.2289992  23.9239978  88.0960014
  27.9669992  22.9459978  88.5510014  29.2429992  24.0189978  88.5410014
  27.3169992  24.9879978  88.7550014  27.9809992  25.8759978  88.8150014
  26.4609992  25.2699978  88.1060014  26.7929992  24.5719978  90.1190014
  25.8429992  25.0929978  90.3640014  26.4129992  23.5319978  90.0250014
  27.7589992  24.6129978  91.3170014  28.6849992  24.0309978  91.1220014
  28.0709992  25.6689978  91.4640014  27.1049992  24.3299978  92.7190014
  26.5309992  25.2599978  92.9200014  26.3779992  23.4979978  92.6030014
  28.0499992  24.1539978  93.8900014  27.4659992  24.1089978  94.8340014
  28.6389992  23.2359978  93.6770014  29.1059992  25.2959978  94.0140014
  29.5259992  25.4739978  93.0010014  28.6909992  26.2699978  94.3510014
  30.3229992  24.9189978  94.9640014  30.6319992  23.8589978  94.8460014
  31.1869992  25.4929978  94.5660014  30.1749992  25.0899978  96.4400014
  29.1259992  24.9549978  96.9710014  31.3689992  25.2559978  96.9310014
  31.4219992  25.2609978  98.3780014  30.5959992  24.7019978  98.8660014
  32.3979992  24.8679978  98.7350014  31.2479992  26.7049978  98.9740014
  32.0109992  27.3899978  98.5450014  31.3819992  26.6629978 100.5000014
  30.6359992  25.9169978 100.8490014  32.3849992  26.2789978 100.7840014
  31.1669992  27.9609978 101.0800014  30.7309992  27.9569978 102.6120014
  29.2999992  27.1729978 102.6500014  28.1779992  27.9739978 102.1430014
  28.0519992  28.9019978 102.7410014  28.3209992  28.3359978 101.1020014
  26.8809992  27.2079978 102.3080014  26.7379992  26.9329978 103.3430014
  26.0669992  27.9119978 102.2200014  26.7699992  25.8919978 101.5570014
  27.7519992  24.8199978 102.0150014  28.7379992  25.0469978 101.6380014
  27.8299992  24.8339978 103.0920014  27.3169992  23.8819978 101.7050014
  25.3999992  25.3969978 101.7620014  25.4339992  25.0079978 102.7690014
  24.6599992  26.1789978 101.6710014  25.2369992  24.5639978 101.0950014
  27.1049992  26.1019978 100.0780014  28.0319992  26.6459978  99.9720014
  26.2799992  26.7019978  99.7230014  27.0119992  25.1209978  99.6350014
  31.7269992  27.1509978 103.3170014  30.5819992  29.3959978 102.9830014
  29.9079992  27.2659978  98.6860014  29.8249992  28.6649978  98.7470014
  30.7819992  29.3749978  98.9090014  28.4059992  29.1119978  98.5030014
  28.2929992  30.1009978  98.9960014  27.6679992  28.4809978  99.0430014
  27.8779992  29.1579978  97.0380014  26.8389992  29.5429978  97.1090014
  27.8499992  28.0919978  96.7270014  28.7659992  29.9079978  96.0710014
  29.8019992  29.5629978  96.2750014  28.9049992  31.0049978  96.1800014
  28.4399992  29.6619978  94.6230014  28.6299992  28.5929978  94.3860014
  29.1879992  30.1429978  93.9570014  27.0099992  29.9609978  94.1540014
  26.8159992  30.9929978  94.5160014  26.2159992  29.2929978  94.5520014
  26.8739992  30.0089978  92.6330014  27.4889992  30.8359978  92.2170014
  25.8249992  30.3559978  92.5190014  27.1919992  28.6639978  91.9500014
  26.5789992  27.8309978  92.3550014  28.2679992  28.4879978  92.1670014
  26.7249992  28.4149978  90.4740014  25.6509992  28.2579978  90.2970014
  27.4819992  28.4039978  89.3550014  27.0629992  28.1759978  88.3640014
  28.9679992  28.6089978  89.2600014  29.3689992  27.6669978  88.8290014
  29.4509992  28.6819978  90.2580014  29.5009992  29.8079978  88.4810014
  29.0839992  30.7419978  88.9120014  29.0829992  29.7799978  87.4520014
  31.0759992  29.9069978  88.4810014  31.5789992  29.8849978  89.4710014
  31.2349992  30.9709978  88.2050014  31.8089992  28.9679978  87.3990014
  31.5789992  27.9369978  87.7420014  32.8849992  29.2339978  87.3220014
  31.3129992  29.1709978  86.0300014  31.2599992  30.2309978  85.7020014
  30.2989992  28.7749978  85.8050014  32.1119992  28.4719978  85.0050014
  32.3789992  27.4309978  85.2880014  33.0549992  29.0479978  84.8910014
  31.5389992  28.4389978  83.6300014  31.7209992  29.4169978  83.1360014
  30.4449992  28.2499978  83.6430014  32.2009992  27.3979978  82.7590014
  31.9719992  26.3449978  83.0310014  33.2909992  27.5689978  82.8920014
  31.9909992  27.6589978  81.6990014  16.9139992 119.1209978  83.4050014
  16.5239992 120.0769978  82.9940014  16.1399992 118.9169978  84.1760014
  16.8609992 118.3469978  82.6100014  18.3429992 119.0099978  83.9790014
  18.5499992 119.4819978  84.9630014  18.4889992 117.9269978  84.1760014
  19.5179992 119.4949978  83.0770014  19.4279992 119.1819978  82.0140014
  19.4809992 120.5849978  83.2880014  20.9979992 118.9229978  83.3840014
  21.0099992 117.8289978  83.1900014  21.6729992 119.3099978  82.5910014
  21.7189992 119.3039978  84.7420014  21.1509992 118.8179978  85.5640014
  22.6759992 118.7379978  84.7370014  22.1149992 120.7339978  84.8730014
  22.7869992 121.0419978  84.0430014  21.1809992 121.3159978  84.7210014
  22.7789992 121.1119978  86.2020014  22.5679992 122.1939978  86.3390014
  22.2379992 120.5509978  86.9930014  24.2259992 120.6839978  86.4450014
  24.2519992 119.6329978  86.8060014  24.7859992 120.8519978  85.5010014
  25.0479992 121.5469978  87.4720014  25.6109992 122.2129978  86.7830014
  24.3729992 122.3249978  87.8880014  25.9599992 120.7739978  88.3930014
  26.6289992 120.1529978  87.7590014  26.4999992 121.5949978  88.9120014
  25.2199992 119.9899978  89.4840014  24.5799992 119.1599978  89.1140014
  26.0119992 119.5549978  90.1310014  24.3369992 120.8789978  90.4140014
  24.7089992 121.9199978  90.3100014  23.2789992 120.8599978  90.0740014
  24.3839992 120.6289978  91.8900014  23.8629992 119.6779978  92.1270014
  25.3959992 120.6429978  92.3480014  23.5669992 121.5809978  92.7350014
  23.8249992 122.6399978  92.5180014  22.5409992 121.4119978  92.3420014
  23.4869992 121.1909978  94.2180014  23.2069992 120.1159978  94.2490014
  24.4369992 121.4689978  94.7220014  22.5739992 121.9859978  95.1240014
  21.7639992 122.8339978  94.7490014  22.7789992 121.5759978  96.4000014
  22.1889992 122.4039978  97.3620014  22.8179992 122.5089978  98.2720014
  22.0889992 123.4559978  97.0190014  20.7899992 121.8899978  97.7200014
  20.0469992 122.0439978  96.9090014  20.3059992 122.6239978  98.9420014
  21.0909992 122.4099978  99.6980014  20.1689992 123.7239978  98.8680014
  18.9929992 122.1959978  99.2670014  18.5799992 121.8859978 100.8040014
  19.3119992 120.4739978 101.0910014  20.4849992 120.4189978 101.8870014
  21.3249992 121.0019978 101.4540014  20.4039992 120.8819978 102.8940014
  20.8179992 118.9359978 102.2340014  20.6829992 118.3739978 101.3220014
  21.8659992 118.9159978 102.4950014  19.9489992 118.2139978 103.3410014
  18.5009992 118.4819978 103.1530014  17.9289992 118.1749978 104.0170014
  18.3549992 119.5339978 102.9580014  18.2479992 117.9249978 102.2630014
  20.1959992 116.6929978 103.4030014  21.2309992 116.5719978 103.1190014
  19.9549992 116.3199978 104.3870014  19.5339992 116.1899978 102.7130014
  20.2899992 118.7339978 104.6830014  21.3179992 118.4549978 104.8620014
  19.7279992 118.4159978 105.5480014  20.2149992 119.8109978 104.6750014
  19.1949992 122.9279978 101.7600014  17.1599992 121.6559978 100.8810014
  20.8399992 120.4599978  98.0250014  20.1869992 119.6389978  97.1920014
  19.5939992 119.9739978  96.1720014  20.3619992 118.1159978  97.6020014
  19.5919992 117.8519978  98.3570014  21.2999992 117.6869978  98.0130014
  20.1549992 117.2139978  96.3740014  19.1409992 117.4029978  95.9600014
  20.1799992 116.1689978  96.7500014  21.2599992 117.3629978  95.2920014
  22.2999992 117.3139978  95.6810014  21.0689992 118.3379978  94.7940014
  20.9739992 116.4609978  94.0020014  19.8829992 116.4059978  93.7970014
  21.3029992 115.4489978  94.3190014  21.6479992 117.0779978  92.7720014
  22.6839992 117.4449978  92.9330014  21.1019992 118.0199978  92.5490014
  21.5409992 116.1729978  91.5720014  20.4529992 115.9719978  91.4730014
  22.0219992 115.1759978  91.6680014  21.9999992 116.8869978  90.3100014
  23.0789992 116.6439978  90.2100014  21.7409992 117.9669978  90.3460014
  21.3709992 116.1309978  89.1860014  21.7569992 115.1119978  89.0360014
  20.4859992 116.6569978  88.3210014  19.9769992 116.0569978  87.5530014
  19.9649992 118.0819978  88.3710014  20.1909992 118.5569978  87.3920014
  20.2809992 118.6489978  89.2720014  18.4019992 118.1369978  88.5420014
  18.2009992 117.9569978  89.6190014  17.9289992 117.2799978  88.0160014
  17.7629992 119.5109978  88.2190014  16.6769992 119.5509978  88.4500014
  17.8699992 119.6719978  87.1250014  18.4369992 120.7379978  88.8890014
  19.4729992 120.8699978  88.5100014  18.3659992 120.5769978  89.9860014
  17.7729992 122.0779978  88.6690014  18.4249992 122.9429978  88.9180014
  16.8139992 122.1849978  89.2190014  17.4449992 122.4309978  87.1900014
  17.1619992 123.5049978  87.1880014  16.6899992 121.7009978  86.8260014
  18.6699992 122.5709978  86.3240014  19.1819992 121.5889978  86.2380014
  19.3529992 123.3029978  86.8070014  18.4719992 123.0839978  84.8770014
  17.6899992 123.8729978  84.8770014  18.1909992 122.2199978  84.2380014
  19.4399992 123.4709978  84.4920014  40.5719992  15.0009978  83.4270014
  40.7689992  14.2009978  82.6810014  41.5439992  15.5079978  83.6070014
  39.9009992  15.7139978  82.9030014  40.0869992  14.4109978  84.7450014
  39.8079992  15.1729978  85.5040014  39.3029992  13.6689978  84.4820014
  41.0799992  13.5579978  85.4390014  40.6309992  13.0439978  86.3170014
  41.5469992  12.7859978  84.7910014  42.3209992  14.3599978  85.9580014
  42.7359992  14.8299978  85.0410014  41.9729992  15.2059978  86.5880014
  43.2619992  13.3239978  86.7220014  43.6329992  12.6219978  85.9450014
  44.1749992  13.8519978  87.0720014  42.7299992  12.5509978  87.9840014
  41.8119992  11.9819978  87.7250014  43.5209992  11.8169978  88.2510014
  42.5229992  13.4649978  89.1730014  43.4589992  14.0029978  89.4360014
  41.6999992  14.1679978  88.9230014  41.8309992  12.7469978  90.3600014
  41.0899992  12.0489978  89.9150014  42.4229992  12.0959978  91.0390014
  41.0209992  13.6429978  91.3280014  41.6339992  14.3969978  91.8660014
  40.2609992  14.2019978  90.7400014  40.1849992  12.8839978  92.3820014
  39.4779992  12.2159978  91.8460014  40.9109992  12.2109978  92.8880014
  39.4539992  13.7589978  93.4390014  39.7959992  14.8119978  93.3490014
  38.3719992  13.7679978  93.1840014  39.7019992  13.2749978  94.8250014
  39.2079992  13.8939978  95.6040014  39.3019992  12.2539978  95.0000014
  41.1429992  13.3719978  95.3620014  41.7429992  12.6309978  94.7920014
  41.4549992  14.3649978  94.9730014  41.3169992  13.2649978  96.8510014
  40.5629992  13.9539978  97.2880014  41.0949992  12.2669978  97.2870014
  42.7089992  13.7999978  97.2690014  43.5949992  13.2939978  96.8300014
  42.8659992  14.8679978  97.0080014  42.8539992  13.7809978  98.8560014
  42.2479992  13.0579978  99.6240014  43.7729992  14.6979978  99.1830014
  44.0939992  14.8279978 100.5410014  43.9459992  13.8889978 101.1160014
  45.1869992  14.9739978 100.6800014  43.4569992  16.2029978 101.1590014
  44.3239992  16.8909978 101.2600014  42.8659992  16.0419978 102.6340014
  42.3439992  15.0629978 102.5680014  43.6449992  15.9599978 103.4220014
  41.9759992  17.1379978 102.9730014  40.3989992  16.8709978 103.1110014
  40.0449992  16.1679978 101.7270014  38.7049992  16.1079978 101.3560014
  38.0209992  16.0659978 102.2300014  38.4309992  17.0059978 100.7620014
  38.3389992  14.8509978 100.5320014  37.3329992  14.8429978 100.1370014
  38.9689992  14.9549978  99.6620014  38.4889992  13.5049978 101.2130014
  37.5569992  13.3429978 102.4240014  36.5229992  13.5459978 102.1860014
  37.5759992  12.3419978 102.8270014  37.8219992  13.9769978 103.2580014
  38.0439992  12.5949978 100.0200014  38.7579992  12.6519978  99.2120014
  37.8119992  11.5859978 100.3280014  37.1019992  12.9039978  99.5900014
  39.9019992  13.1159978 101.6110014  40.4059992  13.9889978 102.0000014
  40.4969992  12.9069978 100.7340014  39.8359992  12.3319978 102.3500014
  40.1809992  16.0189978 104.3160014  39.6389992  18.1129978 103.2230014
  42.3729992  16.6189978 100.2590014  42.6459992  17.3119978  99.1270014
  43.7329992  17.4199978  98.5970014  41.3089992  17.7309978  98.5650014
  40.6979992  18.2629978  99.3250014  40.8489992  16.7219978  98.4950014
  41.6449992  18.4619978  97.2800014  42.2249992  17.8959978  96.5200014
  42.2539992  19.3119978  97.6560014  40.3179992  18.9669978  96.5930014
  39.6239992  19.5119978  97.2670014  39.7429992  18.1719978  96.0720014
  40.6819992  19.9579978  95.5520014  41.1539992  20.8719978  95.9710014
  39.8069992  20.1599978  94.8980014  41.7279992  19.3769978  94.4700014
  41.5979992  18.2819978  94.3290014  42.7149992  19.4869978  94.9670014
  41.7539992  20.0409978  93.1260014  42.1789992  21.0579978  93.2640014
  40.7569992  20.2259978  92.6730014  42.6209992  19.3539978  92.1080014
  43.5139992  18.8799978  92.5690014  42.9609992  20.2389978  91.5300014
  41.7779992  18.4289978  91.1870014  41.0969992  17.7249978  91.6880014
  41.8689992  18.4819978  89.8450014  41.2629992  17.7279978  89.3210014
  42.7279992  19.4169978  88.9790014  43.7939992  19.1629978  89.1620014
  42.5229992  20.4209978  89.4080014  42.5809992  19.4439978  87.4680014
  42.7139992  18.3879978  87.1490014  43.3149992  20.0909978  86.9420014
  41.2209992  19.8129978  86.9050014  41.3709992  20.7859978  86.3920014
  40.5159992  20.0659978  87.7260014  40.7799992  18.7219978  85.9350014
  40.3059992  17.9009978  86.5140014  41.5959992  18.2499978  85.3470014
  39.7219992  19.2749978  84.8120014  40.2079992  20.0599978  84.1950014
  38.8719992  19.7019978  85.3870014  39.2129992  18.1529978  83.9090014
  38.6639992  17.3289978  84.4140014  40.0819992  17.7159978  83.3720014
  38.2279992  18.8169978  82.9650014  38.8469992  19.3689978  82.2260014
  37.6139992  19.5619978  83.5150014  37.3329992  17.8369978  82.1210014
  36.6929992  18.3829978  81.3960014  36.6689992  17.3269978  82.8510014
  38.0369992  17.1089978  81.6650014 132.4289992 126.9099978  85.4950014
 133.1199992 126.6479978  86.3250014 131.6179992 127.6119978  85.7840014
 133.0349992 127.4359978  84.7270014 131.7179992 125.5759978  84.8970014
 131.1129992 125.9569978  84.0460014 132.5899992 125.0019978  84.5170014
 130.9469992 124.8329978  85.9360014 130.1309992 125.4989978  86.2900014
 130.6169992 123.9249978  85.3870014 131.7279992 124.4569978  87.2350014
 132.6929992 124.0349978  86.8810014 131.7189992 125.3209978  87.9340014
 131.0289992 123.3709978  88.1050014 129.9489992 123.6289978  88.0800014
 131.2729992 122.4379978  87.5540014 131.5449992 123.2379978  89.5080014
 131.5339992 124.1879978  90.0830014 130.8249992 122.6629978  90.1280014
 132.9959992 122.6989978  89.4950014 133.2149992 121.8479978  88.8150014
 133.5669992 123.5859978  89.1480014 133.4579992 122.3259978  90.8950014
 132.7049992 121.6559978  91.3610014 134.4539992 121.8349978  90.9250014
 133.6999992 123.5309978  91.8220014 134.3119992 124.3319978  91.3540014
 132.7129992 124.0329978  91.9090014 134.3809992 123.2639978  93.1800014
 133.5699992 122.9359978  93.8640014 135.2719992 122.6149978  93.0420014
 134.8559992 124.5629978  93.8790014 135.4919992 125.1529978  93.1850014
 134.0219992 125.2829978  94.0220014 135.6849992 124.2609978  95.1470014
 136.6689992 123.8559978  94.8270014 135.9579992 125.1709978  95.7230014
 135.0669992 123.3019978  96.1820014 134.9229992 122.2789978  95.7720014
 135.6369992 123.2169978  97.1320014 133.6709992 123.7749978  96.6080014
 133.4529992 124.7669978  96.1570014 132.8819992 123.0739978  96.2620014
 133.5589992 123.9899978  98.0820014 133.6299992 123.0119978  98.6050014
 134.4109992 124.6729978  98.2900014 132.3309992 124.7559978  98.5560014
 131.3519992 125.0149978  97.8430014 132.4309992 124.8899978  99.9170014
 131.3999992 125.6089978 100.5110014 131.8109992 126.4839978 101.0590014
 130.6169992 125.9949978  99.8230014 130.5379992 124.8379978 101.5120014
 129.7439992 125.5349978 101.8550014 131.3429992 124.2929978 102.6850014
 131.8049992 125.0719978 103.3280014 130.5529992 123.7989978 103.2900014
 132.3429992 123.4389978 102.1170014 133.1279992 122.6269978 103.2890014
 133.4849992 121.2469978 102.5310014 133.6159992 121.0209978 101.1210014
 134.1329992 121.9019978 100.6840014 134.2399992 120.1129978 100.9850014
 132.2169992 120.7129978 100.5670014 131.5899992 121.5819978 100.6980014
 132.3929992 120.4539978  99.5340014 131.3759992 119.5479978 101.0600014
 130.9799992 119.7609978 102.3990014 130.4279992 118.9099978 102.7690014
 131.8499992 119.8139978 103.0380014 130.5039992 120.7279978 102.4710014
 130.1409992 119.3549978 100.1420014 129.3289992 120.0299978 100.3710014
 130.4589992 119.5049978  99.1210014 129.8369992 118.3289978 100.2820014
 132.0839992 118.1849978 101.2030014 132.6539992 117.9819978 100.3080014
 131.3709992 117.3849978 101.3320014 132.8009992 118.2879978 102.0040014
 134.3679992 123.3509978 103.6090014 132.2489992 122.3809978 104.4680014
 129.9989992 123.6879978 100.9010014 129.0019992 123.8379978 100.1460014
 128.1249992 124.6989978 100.2830014 128.9149992 122.6499978  99.1160014
 128.6599992 121.7029978  99.6370014 129.8789992 122.5199978  98.5800014
 127.7589992 122.9239978  98.0610014 126.7909992 123.1509978  98.5550014
 127.5509992 121.9639978  97.5420014 128.1809992 124.0239978  97.1410014
 128.6629992 124.7739978  97.8040014 127.3079992 124.5049978  96.6490014
 129.1329992 123.6619978  96.0160014 130.0979992 123.4319978  96.5170014
 129.2629992 124.6029978  95.4380014 128.6419992 122.5519978  95.1030014
 128.5289992 121.5829978  95.6350014 129.3869992 122.3119978  94.3150014
 127.3799992 122.8259978  94.2180014 127.3589992 123.8809978  93.8720014
 126.4889992 122.6569978  94.8590014 127.2559992 121.7699978  93.0360014
 128.1309992 121.9429978  92.3740014 126.3199992 121.9189978  92.4560014
 127.1909992 120.3359978  93.4750014 126.1799992 120.0059978  93.7550014
 128.1629992 119.4819978  93.5470014 127.8519992 118.4849978  93.8950014
 129.6929992 119.6839978  93.2390014 130.1439992 119.6439978  94.2540014
 129.8699992 120.6509978  92.7210014 130.1979992 118.5509978  92.2370014
 129.8879992 117.5239978  92.5260014 131.3039992 118.4939978  92.3240014
 129.9249992 118.9639978  90.7000014 130.3739992 119.9689978  90.5570014
 128.8269992 119.0959978  90.5960014 130.4119992 117.9879978  89.6420014
 130.0399992 116.9679978  89.8780014 131.5169992 117.8839978  89.7010014
 129.9869992 118.2609978  88.1600014 128.8879992 118.1269978  88.2510014
 130.3989992 117.3839978  87.6160014 130.4709992 119.5279978  87.4950014
 131.5679992 119.4299978  87.6370014 129.9919992 120.3739978  88.0340014
 130.0309992 119.5659978  86.0550014 128.9709992 119.2859978  85.8770014
 130.6019992 118.7669978  85.5340014 130.2769992 120.8429978  85.3710014
 129.3869992 121.4419978  85.6610014 130.3539992 120.7899978  84.2640014
 131.2429992 121.2529978  85.7370014 142.8079992  36.4919978  84.5300014
 143.3059992  37.3669978  85.0000014 143.3259992  36.2149978  83.5870014
 143.1079992  35.7159978  85.2670014 141.3019992  36.7259978  84.3570014
 140.8919992  35.8299978  83.8440014 140.8449992  36.7919978  85.3670014
 141.0249992  38.0089978  83.6300014 141.9139992  38.6519978  83.8030014
 140.9959992  37.6659978  82.5730014 139.7719992  38.7749978  83.9460014
 139.7889992  39.6979978  83.3280014 138.8419992  38.1779978  83.8340014
 139.6699992  39.2899978  85.4230014 138.7949992  39.9729978  85.4770014
 139.4709992  38.4019978  86.0610014 140.9239992  40.0639978  85.8790014
 141.7639992  39.3369978  85.8580014 141.0809992  40.7809978  85.0450014
 140.8829992  40.6939978  87.3080014 141.6109992  41.5259978  87.1900014
 139.8669992  41.0649978  87.5630014 141.3109992  39.7779978  88.4760014
 142.4069992  39.6259978  88.3770014 141.3689992  40.3169978  89.4460014
 140.5809992  38.4699978  88.5750014 139.5039992  38.7399978  88.5290014
 140.7409992  37.7949978  87.7080014 140.8979992  37.6499978  89.8310014
 140.5999992  36.5829978  89.7490014 141.9929992  37.5069978  89.9560014
 140.3259992  38.3279978  91.1290014 140.9849992  39.1849978  91.3880014
 139.3159992  38.6829978  90.8330014 139.9969992  37.4749978  92.3140014
 139.5059992  36.6019978  91.8340014 140.8779992  37.2289978  92.9450014
 138.9489992  38.1009978  93.2450014 138.0639992  38.2719978  92.5960014
 138.8319992  37.3739978  94.0770014 139.3579992  39.4339978  93.8510014
 140.2719992  39.2039978  94.4400014 139.5329992  40.1059978  92.9840014
 138.2809992  40.0709978  94.7950014 138.4029992  41.1739978  94.8450014
 137.2649992  39.7899978  94.4470014 138.4069992  39.4979978  96.1670014
 138.9569992  38.4249978  96.4990014 137.7789992  40.3139978  97.0140014
 137.8779992  40.1339978  98.4270014 138.8979992  39.7059978  98.5300014
 138.0699992  41.0819978  98.9730014 136.7589992  39.3109978  98.8970014
 135.8149992  39.6309978  98.4060014 136.5449992  39.5369978 100.4960014
 136.5779992  40.6199978 100.7440014 135.4859992  39.2509978 100.6730014
 137.5569992  38.6769978 101.1800014 137.2129992  38.3799978 102.6490014
 138.4459992  37.4949978 103.2160014 139.7089992  38.0499978 103.3650014
 139.5879992  39.0409978 103.8510014 140.3109992  37.3989978 104.0350014
 140.6469992  38.2789978 102.1580014 140.3319992  39.0699978 101.4930014
 141.6249992  38.6119978 102.4730014 140.9499992  37.1229978 101.2510014
 139.8219992  36.8109978 100.2350014 139.6279992  37.6759978  99.6180014
 140.1039992  35.9109978  99.7090014 138.8869992  36.6529978 100.7510014
 142.2209992  37.4449978 100.4630014 142.3249992  36.7409978  99.6510014
 142.0169992  38.3659978  99.9370014 143.0159992  37.4159978 101.1930014
 141.2119992  35.8389978 101.9900014 141.8969992  36.1429978 102.7680014
 141.5719992  34.9759978 101.4500014 140.2919992  35.5329978 102.4650014
 137.0949992  39.6869978 103.3170014 136.0289992  37.5439978 102.6820014
 137.0699992  37.9259978  98.5380014 136.0059992  37.1109978  98.4550014
 134.8709992  37.3769978  98.7470014 136.4019992  35.8879978  97.5960014
 135.7339992  35.1539978  98.0980014 137.4529992  35.5749978  97.7750014
 135.9569992  36.0329978  96.0600014 136.7639992  36.6829978  95.6590014
 134.9929992  36.5839978  96.0340014 135.9409992  34.6949978  95.2140014
 135.0139992  34.1289978  95.4480014 136.8269992  34.1959978  95.6610014
 136.0189992  35.0959978  93.6900014 135.9519992  34.1579978  93.0980014
 136.9499992  35.6559978  93.4570014 135.0229992  36.1639978  93.4360014
 135.2929992  37.1359978  93.9000014 133.9969992  35.7979978  93.6550014
 134.8909992  36.5079978  91.9190014 134.4469992  35.6059978  91.4460014
 135.9359992  36.6039978  91.5560014 133.9429992  37.6839978  91.5720014
 133.0049992  37.7479978  92.1630014 133.6259992  37.6019978  90.5100014
 134.6929992  39.0049978  91.7230014 134.9959992  39.1019978  92.7760014
 134.8969992  39.9649978  90.8440014 135.3729992  40.9229978  91.1020014
 134.4309992  39.8219978  89.4130014 133.4299992  40.2879978  89.2890014
 134.3659992  38.7899978  89.0070014 135.4809992  40.5889978  88.5040014
 135.7049992  41.5479978  89.0170014 134.9459992  40.7049978  87.5370014
 136.8129992  39.8669978  88.2280014 137.3239992  39.7809978  89.2110014
 137.2709992  40.6019978  87.5310014 136.6959992  38.4759978  87.5960014
 136.2619992  37.8389978  88.3960014 137.7649992  38.1989978  87.4770014
 136.0309992  38.3579978  86.1660014 136.4999992  39.1279978  85.5160014
 134.9479992  38.5859978  86.2580014 136.1529992  36.8699978  85.5940014
 135.8289992  36.1879978  86.4080014 137.1749992  36.6269978  85.2330014
 135.1699992  36.6619978  84.4210014 134.1759992  37.0379978  84.7470014
 135.1349992  35.5659978  84.2440014 135.5399992  37.3479978  83.0720014
 136.3789992  36.8199978  82.5700014 135.7909992  38.4119978  83.2740014
 134.6539992  37.2739978  82.4060014  32.5359992 130.4669978  82.0470014
  32.2519992 130.4289978  80.9730014  32.7979992 131.5389978  82.1790014
  31.6669992 130.2229978  82.6940014  33.6239992 129.4259978  82.2920014
  33.1529992 128.4209978  82.2340014  34.3999992 129.5839978  81.5130014
  34.1829992 129.4319978  83.6850014  33.3609992 129.2659978  84.4130014
  34.8379992 128.5419978  83.7990014  34.9979992 130.7499978  83.9630014
  35.7789992 130.9029978  83.1880014  34.2109992 131.5259978  84.0780014
  35.9189992 130.5499978  85.2270014  36.0789992 129.4509978  85.2180014
  36.9099992 131.0529978  85.1880014  35.0789992 130.7739978  86.4550014
  34.0259992 130.4739978  86.2630014  35.4329992 130.1399978  87.2960014
  35.0789992 132.2649978  87.0070014  36.1629992 132.4939978  87.0980014
  34.5669992 132.9539978  86.3020014  34.4579992 132.4409978  88.4190014
  33.3899992 132.1999978  88.2320014  34.9869992 131.8559978  89.2010014
  34.5669992 133.9129978  88.8160014  35.6609992 134.0909978  88.7370014
  34.0609992 134.6189978  88.1220014  34.1319992 134.0899978  90.2260014
  33.0319992 133.9319978  90.2220014  34.4869992 133.3099978  90.9330014
  34.5189992 135.4499978  90.8590014  35.6129992 135.5279978  91.0380014
  34.2069992 136.2979978  90.2130014  33.8469992 135.7579978  92.2050014
  33.8669992 136.7959978  92.5990014  32.7639992 135.5819978  92.0290014
  34.3009992 134.8779978  93.4090014  35.1419992 134.2599978  93.0280014
  34.6119992 135.5699978  94.2190014  33.2089992 133.8969978  93.8720014
  33.0199992 133.1809978  93.0440014  33.5999992 133.2769978  94.7070014
  31.8819992 134.5569978  94.3370014  31.5859992 135.1309978  93.4340014
  31.1449992 133.7689978  94.6010014  32.1779992 135.4679978  95.5280014
  32.3429992 136.6689978  95.3530014  32.1669992 134.7959978  96.6990014
  32.4599992 135.6539978  97.8080014  33.4979992 136.0499978  97.7990014
  31.6749992 136.4299978  97.9350014  32.1209992 134.7939978  99.1160014
  32.0649992 135.4609978 100.0040014  33.2619992 133.7809978  99.3150014
  33.4789992 133.2739978  98.3510014  34.1979992 134.3069978  99.5990014
  32.9229992 132.9889978 100.4130014  33.3119992 131.5189978 100.3400014
  32.5209992 130.8099978 101.5780014  32.7739992 131.2849978 102.9160014
  33.6559992 130.7329978 103.3060014  32.9809992 132.3749978 102.9620014
  31.6199992 130.8869978 103.8520014  31.4479992 129.8209978 103.8390014
  31.8729992 131.3389978 104.7990014  30.3029992 131.5489978 103.5320014
  29.7739992 130.7519978 102.3380014  28.9279992 131.1989978 101.8370014
  30.5439992 130.5159978 101.6180014  29.4259992 129.7759978 102.6400014
  29.2859992 131.4969978 104.6560014  29.5759992 132.2529978 105.3700014
  28.3069992 131.6819978 104.2380014  29.2209992 130.5889978 105.2360014
  30.5089992 132.9369978 103.1550014  31.0369992 132.9549978 102.2130014
  31.0689992 133.3979978 103.9540014  29.5469992 133.4179978 103.0520014
  32.7949992 130.9869978  99.1100014  34.7609992 131.3659978 100.6170014
  30.8889992 134.1389978  98.9620014  29.8809992 134.9449978  98.8980014
  29.8099992 136.1029978  99.1870014  28.6779992 134.0529978  98.5880014
  27.7669992 134.6439978  98.8220014  28.6569992 133.1689978  99.2610014
  28.6609992 133.5849978  97.1110014  29.2959992 132.6759978  97.0540014
  29.1009992 134.3589978  96.4460014  27.1729992 133.2099978  96.6640014
  26.6449992 134.1829978  96.7590014  26.7009992 132.4259978  97.2940014
  27.0019992 132.7999978  95.1570014  25.9359992 133.0489978  94.9700014
  27.2799992 131.7339978  95.0130014  27.6649992 133.8409978  94.2630014
  28.7679992 133.8329978  94.3970014  27.4189992 134.8719978  94.5980014
  27.2539992 133.7809978  92.7620014  27.6299992 134.6829978  92.2340014
  26.1619992 133.7919978  92.5580014  27.8029992 132.6059978  91.9370014
  27.3279992 132.6229978  90.9330014  27.4529992 131.6629978  92.4080014
  29.3349992 132.6919978  91.9600014  29.9489992 132.4159978  92.8300014
  30.0199992 133.2319978  90.9240014  31.1119992 133.3639978  90.9450014
  29.4669992 133.7879978  89.6050014  29.8899992 134.8009978  89.4340014
  28.3719992 133.9719978  89.6370014  29.8909992 133.0309978  88.3230014
  29.2069992 132.1759978  88.1350014  30.9209992 132.6409978  88.4630014
  29.9309992 133.9119978  87.1060014  30.7219992 134.6479978  87.3620014
  28.9429992 134.3799978  86.9070014  30.3159992 133.2099978  85.8210014
  29.7559992 132.2619978  85.6720014  31.3999992 132.9749978  85.7490014
  30.1319992 134.2149978  84.5940014  30.9169992 134.9979978  84.6600014
  29.0909992 134.5979978  84.5300014  30.4619992 133.7159978  83.1790014
  29.6709992 132.9999978  82.8690014  31.4329992 133.2009978  83.0170014
  30.3429992 134.7429978  82.0740014  31.2069992 135.4099978  82.2840014
  29.4789992 135.3539978  82.4110014  30.3259992 134.4019978  80.5800014
  29.4319992 133.7679978  80.3960014  31.1389992 133.7049978  80.2850014
  30.3059992 135.2529978  79.8660014  51.5199992   3.5469978  81.3420014
  51.5259992   3.4149978  80.2390014  50.5559992   3.2539978  81.8090014
  52.3619992   2.9009978  81.6720014  51.8069992   4.9819978  81.5830014
  52.7469992   5.2239978  81.0440014  50.9469992   5.5529978  81.1730014
  51.9369992   5.3279978  83.0810014  51.0299992   5.0429978  83.6570014
  52.7809992   4.7699978  83.5390014  52.0129992   6.8929978  83.2520014
  52.9509992   7.2739978  82.7950014  51.2419992   7.1929978  82.5110014
  51.7919992   7.3099978  84.6950014  51.6989992   8.4159978  84.7530014
  50.8599992   6.8839978  85.1250014  53.0429992   6.9759978  85.5530014
  53.2749992   5.8899978  85.5880014  53.9829992   7.3179978  85.0680014
  52.9479992   7.6709978  86.9760014  52.4849992   8.6319978  86.6660014
  52.1849992   7.1159978  87.5620014  54.2229992   8.0049978  87.7030014
  54.8599992   8.7049978  87.1220014  53.9459992   8.3959978  88.7050014
  55.0189992   6.6389978  87.9850014  55.0449992   6.0449978  87.0470014
  56.0639992   6.9059978  88.2550014  54.4749992   5.8789978  89.1590014
  54.6689992   6.4959978  90.0630014  53.3659992   5.8619978  89.1020014
  55.0909992   4.5409978  89.3620014  54.7099992   3.8079978  88.6200014
  56.1659992   4.7869978  89.2280014  54.8389992   4.0189978  90.7830014
  55.6989992   3.3999978  91.1140014  54.8489992   4.9149978  91.4410014
  53.5249992   3.2469978  90.8910014  52.6379992   3.6869978  90.3870014
  53.7559992   2.2519978  90.4560014  53.0679992   3.0479978  92.3250014
  52.5429992   2.0729978  92.4120014  53.9339992   2.7939978  92.9730014
  52.2099992   4.2359978  92.8710014  52.7839992   5.1869978  92.8500014
  51.2599992   4.3919978  92.3160014  51.8179992   3.8349978  94.3150014
  51.7769992   2.6639978  94.7220014  51.5019992   4.8649978  95.0310014
  51.1399992   4.6439978  96.4600014  50.2099992   5.1489978  96.8010014
  50.8889992   3.5749978  96.6290014  52.3679992   5.1099978  97.3100014
  53.1669992   4.3699978  97.0890014  52.0899992   5.1109978  98.8240014
  51.3739992   4.2659978  98.9140014  52.9589992   5.0039978  99.5080014
  51.3799992   6.2839978  99.2520014  51.4079992   6.8319978 100.7020014
  51.0199992   5.6239978 101.6890014  52.0289992   4.7589978 102.2320014
  52.3449992   4.0939978 101.4000014  52.9619992   5.2219978 102.6190014
  51.4929992   3.9639978 103.4790014  52.3009992   3.4049978 103.9280014
  51.2729992   4.7359978 104.2010014  50.3379992   2.9409978 103.3590014
  49.0469992   3.6569978 102.9940014  49.2519992   4.1599978 102.0610014
  48.1129992   3.1199978 102.9120014  48.8759992   4.4869978 103.6650014
  50.7419992   1.8839978 102.3740014  49.9179992   1.3219978 101.9590014
  51.1209992   2.2979978 101.4510014  51.5549992   1.2489978 102.6940014
  50.1459992   2.2749978 104.7620014  51.0579992   1.8299978 105.1310014
  49.5009992   1.4159978 104.6530014  49.7659992   2.9709978 105.4950014
  52.7739992   7.3219978 100.8720014  50.4329992   7.9079978 100.7910014
  52.6419992   6.4649978  96.7310014  53.7339992   7.0619978  97.2170014
  54.5399992   6.6089978  97.9630014  53.9979992   8.2579978  96.3960014
  55.0649992   8.2889978  96.0850014  53.7899992   9.1699978  96.9970014
  53.1809992   8.3979978  95.1320014  53.2479992   9.4349978  94.7370014
  52.0959992   8.2649978  95.3320014  53.7609992   7.4379978  94.1010014
  53.4689992   6.4129978  94.4160014  54.8709992   7.4509978  94.0700014
  53.2889992   7.6739978  92.6620014  53.5549992   6.8129978  92.0130014
  53.8139992   8.5749978  92.2770014  51.7899992   8.0199978  92.4680014
  51.5779992   9.0309978  92.8760014  51.1289992   7.2149978  92.8520014
  51.2939992   8.2049978  90.9560014  51.4369992   7.3179978  90.3030014
  51.7659992   9.1659978  90.6580014  49.8029992   8.5619978  90.9930014
  49.6249992   9.0469978  90.0100014  49.4849992   9.3989978  91.6500014
  48.8279992   7.3759978  91.1450014  48.8219992   6.8409978  92.1050014
  48.0709992   6.9579978  90.1110014  47.4589992   6.0839978  90.3820014
  48.0039992   7.4929978  88.6780014  48.3179992   8.5469978  88.5220014
  47.0099992   7.3759978  88.1950014  48.9449992   6.6259978  87.7440014
  50.0209992   6.7049978  88.0060014  48.6439992   6.9549978  86.7260014
  48.7569992   5.0719978  87.7450014  47.7839992   4.6969978  87.3610014
  48.9669992   4.6719978  88.7600014  49.7949992   4.2919978  86.9680014
  50.7249992   4.4189978  87.5640014  50.0069992   4.7479978  85.9780014
  49.4359992   2.7379978  86.7840014  48.3369992   2.7179978  86.6230014
  49.5529992   2.2539978  87.7770014  50.2999992   2.1279978  85.7010014
  51.2499992   1.7769978  86.1570014  50.5489992   2.8549978  84.8980014
  49.4799992   0.8429978  85.1460014  48.6229992   1.3209978  84.6260014
  49.2409992   0.2509978  86.0560014  50.1409992   0.0049978  84.1450014
  50.4339992   0.4789978  83.1840014  49.3399992  -0.6960022  83.8300014
  50.9179992  -0.5190022  84.7420014  19.2449992  35.4849978  82.2890014
  20.3529992  35.4179978  82.2280014  18.8279992  34.6599978  81.6720014
  18.8539992  35.3759978  83.3230014  18.8159992  36.8379978  81.7640014
  19.1199992  36.9839978  80.7060014  17.7069992  36.8869978  81.8140014
  19.4569992  38.0219978  82.4640014  19.6069992  37.7089978  83.5190014
  20.4939992  38.2189978  82.1170014  18.7379992  39.3029978  82.2840014
  18.4859992  39.4709978  81.2150014  17.7839992  39.2259978  82.8480014
  19.4599992  40.6389978  82.6770014  20.0789992  40.7509978  81.7620014
  18.7029992  41.4509978  82.6450014  19.9879992  40.6959978  84.0920014
  19.1199992  40.6609978  84.7850014  20.5949992  39.7829978  84.2730014
  20.8789992  41.9419978  84.2880014  21.9249992  41.7089978  83.9950014
  20.5329992  42.7669978  83.6300014  20.9879992  42.4929978  85.7550014
  21.6259992  43.3859978  85.5820014  19.9679992  42.8149978  86.0530014
  21.4959992  41.4069978  86.8370014  20.8969992  40.4759978  86.7440014
  22.5659992  41.1419978  86.6990014  21.2829992  41.8629978  88.2550014
  21.6519992  41.0289978  88.8900014  21.8959992  42.7229978  88.5990014
  19.7989992  42.0049978  88.7190014  19.2539992  42.7699978  88.1260014
  19.2589992  41.0439978  88.5810014  19.5529992  42.4579978  90.1650014
  20.0389992  43.4059978  90.4800014  18.4679992  42.4119978  90.4020014
  20.1989992  41.4259978  91.1020014  19.8939992  40.4209978  90.7400014
  21.3009992  41.4999978  90.9740014  19.9569992  41.7269978  92.5830014
  20.6009992  42.5789978  92.8860014  18.9049992  42.0479978  92.7370014
  20.5259992  40.5909978  93.4500014  20.0889992  39.6979978  92.9530014
  21.6319992  40.6219978  93.3540014  19.9599992  40.8579978  94.8830014
  19.7609992  41.9549978  95.2920014  19.6039992  39.7039978  95.4040014
  19.3529992  39.8679978  96.7950014  20.3289992  40.0049978  97.3070014
  18.5919992  40.6259978  97.0800014  18.8009992  38.4979978  97.3650014
  17.8839992  38.2209978  96.8020014  18.3389992  38.6889978  98.8010014
  17.7489992  39.6289978  98.8410014  17.6709992  37.8579978  99.1130014
  19.5499992  38.7439978  99.6110014  19.7549992  39.6409978 100.8900014
  18.5549992  39.2429978 101.8250014  18.7469992  38.8869978 103.1740014
  19.7999992  38.7159978 103.4870014  18.3429992  39.7119978 103.7980014
  18.1129992  37.5259978 103.4200014  18.7849992  36.7869978 103.0090014
  18.0079992  37.3689978 104.4830014  16.6559992  37.2979978 102.9530014
  15.8999992  36.5999978 103.9720014  15.6029992  37.3429978 104.6980014
  15.0169992  36.2159978 103.4820014  16.4399992  35.7829978 104.4280014
  15.9919992  38.6249978 102.8430014  16.1789992  39.1409978 103.7730014
  16.3899992  39.2239978 102.0370014  14.9199992  38.5389978 102.7430014
  16.6549992  36.6119978 101.6000014  17.0389992  35.6059978 101.6790014
  17.1729992  37.1739978 100.8370014  15.6309992  36.5909978 101.2590014
  20.9729992  39.1719978 101.5000014  19.6919992  41.1119978 100.7190014
  19.7939992  37.4819978  97.2490014  19.8969992  36.9079978  96.0040014
  19.1089992  37.0769978  95.1070014  20.9639992  35.9619978  95.9690014
  20.5439992  34.9739978  96.2550014  21.8049992  36.0839978  96.6850014
  21.3869992  35.5769978  94.5300014  20.4819992  35.2069978  94.0020014
  22.0819992  34.7229978  94.3800014  22.0049992  36.7679978  93.7190014
  22.8419992  37.2809978  94.2400014  21.1079992  37.4019978  93.5500014
  22.3999992  36.3929978  92.3370014  21.6089992  35.8559978  91.7710014
  23.2309992  35.6649978  92.4560014  22.9149992  37.6129978  91.4610014
  23.8809992  37.8999978  91.9280014  22.0799992  38.3139978  91.6760014
  23.1539992  37.2639978  89.9960014  23.7959992  36.3579978  89.9970014
  23.5939992  38.1929978  89.5740014  21.9489992  36.8139978  89.1780014
  21.5999992  35.8129978  89.5110014  22.3269992  36.7859978  88.1330014
  20.8879992  37.8529978  88.9870014  21.2829992  38.7889978  88.5660014
  19.5789992  37.6749978  89.3060014  18.8689992  38.5079978  89.1890014
  18.8959992  36.4529978  89.9120014  19.2789992  36.3809978  90.9530014
  18.9639992  35.5469978  89.2740014  17.3679992  36.6139978  89.9250014
  16.9689992  37.5999978  90.2450014  16.9759992  35.8849978  90.6660014
  16.5599992  36.1379978  88.6640014  15.5379992  35.8709978  89.0070014
  16.9779992  35.1689978  88.3160014  16.5579992  37.1549978  87.4430014
  15.9629992  36.6669978  86.6420014  17.4969992  37.5269978  86.9810014
  15.9709992  38.5189978  87.7940014  16.7439992  39.0719978  88.3700014
  14.9859992  38.4179978  88.2990014  15.5789992  39.2649978  86.5330014
  16.4849992  39.5689978  85.9680014  15.1209992  40.1829978  86.9590014
  14.4899992  38.6029978  85.7530014  13.6839992  39.3579978  85.6320014
  14.0629992  37.7839978  86.3700014  15.0339992  38.0719978  84.4040014
  16.1339992  37.9459978  84.4910014  14.9019992  38.8149978  83.5880014
  14.5749992  37.1259978  84.0460014 146.0939992  52.8549978  84.7560014
 146.7769992  52.0949978  84.3190014 146.6549992  53.4589978  85.5010014
 145.9449992  53.5189978  83.8770014 144.8479992  52.0839978  85.1960014
 144.0459992  52.7679978  85.5460014 144.5209992  51.4909978  84.3150014
 144.9969992  51.0789978  86.3250014 144.0049992  50.5869978  86.4190014
 145.7169992  50.2969978  86.0020014 145.4549992  51.6969978  87.6770014
 145.6119992  50.8139978  88.3310014 146.4489992  52.1369978  87.4430014
 144.5329992  52.7269978  88.3580014 144.2189992  53.4349978  87.5620014
 143.6279992  52.1379978  88.6200014 145.1049992  53.3249978  89.6310014
 145.3359992  52.4999978  90.3380014 145.9359992  54.0489978  89.4910014
 143.9809992  54.0929978  90.4370014 144.2809992  55.0889978  90.8270014
 143.2359992  54.3129978  89.6430014 143.1249992  53.2159978  91.3820014
 142.0909992  53.6199978  91.3520014 143.0879992  52.1849978  90.9690014
 143.4919992  53.1639978  92.9390014 144.5599992  53.4619978  93.0070014
 142.9869992  53.9699978  93.5130014 143.1349992  51.7499978  93.5340014
 142.0789992  51.4119978  93.4690014 143.6969992  51.0339978  92.8970014
 143.5299992  51.7269978  94.9590014 144.3829992  52.3949978  95.2050014
 142.6729992  52.0169978  95.6040014 143.9089992  50.3149978  95.4520014
 143.0149992  49.6619978  95.3510014 144.5999992  49.9859978  94.6470014
 144.5689992  50.1819978  96.8030014 143.8259992  50.2979978  97.6200014
 144.9249992  49.1299978  96.8340014 145.7289992  51.1119978  97.1900014
 146.4799992  51.1589978  96.3720014 145.3979992  52.1699978  97.2620014
 146.3869992  50.9329978  98.6250014 145.6439992  50.6389978  99.3960014
 147.2249992  50.2069978  98.5580014 147.0749992  52.2319978  99.0790014
 148.2329992  52.5719978  98.8410014 146.1689992  52.9299978  99.6530014
 146.3729992  54.3629978  99.6520014 147.3529992  54.6199978 100.1080014
 146.4049992  54.7229978  98.6010014 145.3259992  55.2829978 100.3240014
 145.8069992  56.2829978 100.3920014 145.1429992  54.8819978 101.8230014
 146.1499992  54.6959978 102.2550014 144.6179992  55.7619978 102.2520014
 144.3179992  53.6849978 101.9260014 143.7489992  53.2979978 103.3960014
 142.9979992  51.9009978 103.2810014 143.5889992  50.8749978 102.5470014
 144.6859992  50.7379978 102.6540014 143.0979992  49.9259978 102.8500014
 143.1629992  51.0009978 101.0330014 143.7179992  51.8219978 100.6040014
 143.4479992  50.0639978 100.5760014 141.6919992  51.2089978 100.6410014
 141.2789992  52.6699978 100.9710014 141.8489992  53.2919978 100.2970014
 140.2189992  52.8719978 100.9270014 141.5979992  52.9329978 101.9690014
 141.4719992  51.1719978  99.1580014 140.4279992  51.3989978  99.0000014
 142.0939992  51.9049978  98.6670014 141.8079992  50.2119978  98.7950014
 140.8189992  50.2139978 101.4090014 141.0129992  49.2149978 101.0490014
 139.7579992  50.3359978 101.2470014 141.0399992  50.4749978 102.4330014
 144.8339992  53.1469978 104.3820014 142.7889992  54.3849978 103.7620014
 144.1519992  55.2609978  99.5430014 143.2079992  56.1079978  99.7380014
 143.2009992  57.0909978 100.4500014 142.0149992  55.7939978  98.7800014
 141.1399992  56.3749978  99.1440014 141.7819992  54.7189978  98.9380014
 142.1079992  56.2619978  97.3090014 143.1209992  55.9719978  96.9570014
 142.1039992  57.3719978  97.2550014 141.0159992  55.7539978  96.3700014
 140.0679992  55.7769978  96.9490014 141.1029992  54.6739978  96.1250014
 140.8529992  56.7399978  95.1600014 140.7389992  57.7689978  95.5640014
 139.8739992  56.4969978  94.6940014 141.9659992  56.6769978  94.1750014
 142.1519992  55.6319978  93.8480014 142.9199992  57.0959978  94.5600014
 141.5469992  57.5279978  92.9710014 142.4479992  57.8409978  92.4030014
 140.9489992  58.3739978  93.3720014 140.6089992  56.7009978  92.0390014
 139.8349992  56.3019978  92.7290014 141.1189992  55.8249978  91.5840014
 139.8349992  57.4409978  90.9040014 138.7799992  57.7149978  91.0550014
 140.2699992  57.8119978  89.7220014 139.5109992  58.2819978  89.0800014
 141.5859992  57.5689978  89.1240014 142.2959992  57.1059978  89.8430014
 142.0359992  58.5679978  88.9400014 141.5229992  56.6509978  87.9020014
 140.7279992  57.0219978  87.2210014 141.5619992  55.5709978  88.1580014
 142.9179992  56.6989978  87.1710014 143.7719992  56.4489978  87.8370014
 143.0559992  57.7239978  86.7670014 143.0949992  55.6599978  85.9600014
 142.9539992  54.6719978  86.4470014 144.1489992  55.6069978  85.6140014
 142.1799992  55.8399978  84.7730014 142.6709992  56.5509978  84.0740014
 141.2499992  56.3589978  85.0910014 141.8369992  54.5549978  84.1470014
 141.2669992  53.9479978  84.8820014 142.7019992  53.9249978  83.8500014
 140.8779992  54.7699978  82.9580014 139.9209992  55.2709978  83.2160014
 140.5059992  53.7549978  82.7030014 141.5019992  55.3949978  81.7290014
 140.8589992  55.2179978  80.8400014 142.4489992  54.9239978  81.3890014
 141.7229992  56.4729978  81.8790014 123.1799992   7.9869978  85.4610014
 123.3649992   7.1039978  84.8130014 122.3299992   8.4619978  84.9250014
 122.8419992   7.6499978  86.4640014 124.3559992   8.8179978  85.6570014
 125.0669992   8.1959978  86.2410014 124.8339992   9.0659978  84.6860014
 124.1859992  10.0259978  86.4790014 123.3939992  10.6199978  85.9740014
 123.7299992   9.9529978  87.4890014 125.4389992  10.8869978  86.4150014
 126.3609992  10.2699978  86.4700014 125.6489992  11.1029978  85.3460014
 125.3539992  12.1749978  87.2570014 126.1109992  12.9069978  86.9030014
 124.4109992  12.7469978  87.1220014 125.4589992  11.7719978  88.7620014
 124.5769992  11.2439978  89.1820014 126.3459992  11.1049978  88.7180014
 125.7139992  12.9349978  89.7000014 126.7859992  13.2039978  89.5810014
 125.0119992  13.6859978  89.2800014 125.4039992  12.6229978  91.1190014
 124.3419992  12.3109978  91.2150014 126.0489992  11.8409978  91.5750014
 125.4369992  13.9039978  92.0030014 126.3819992  14.4379978  91.7660014
 124.6019992  14.6049978  91.7890014 125.3239992  13.5249978  93.4380014
 125.9789992  12.6719978  93.7170014 125.6519992  14.3719978  94.0780014
 123.8349992  13.1379978  93.7600014 123.1539992  13.6629978  93.0570014
 123.5989992  12.0539978  93.6910014 123.4779992  13.4759978  95.2040014
 124.0319992  12.8369978  95.9240014 123.6259992  14.5639978  95.3690014
 121.9929992  13.2249978  95.4430014 121.3449992  13.8289978  94.7730014
 121.8039992  12.1439978  95.2690014 121.4559992  13.5049978  96.8400014
 122.0409992  12.8939978  97.5610014 121.7689992  14.5519978  97.0400014
 120.0389992  13.2049978  97.1340014 119.7019992  13.6119978  98.1110014
 119.5389992  13.8399978  96.3720014 119.7489992  11.8199978  96.9270014
 119.3399992  11.3449978  95.8640014 120.0019992  11.1329978  98.0540014
 119.6649992   9.7209978  97.9280014 119.1989992   9.4389978  98.8960014
 119.0409992   9.5519978  97.0240014 120.8899992   8.7779978  97.8320014
 120.4739992   7.7499978  97.8960014 121.9859992   9.0119978  98.9760014
 121.7019992   8.4629978  99.8990014 122.9329992   8.5779978  98.5880014
 122.2159992  10.3959978  99.2020014 123.4309992  10.8979978 100.0410014
 123.0389992  10.2539978 101.4780014 123.0889992  11.0829978 102.5610014
 124.0219992  11.6319978 102.8120014 122.2519992  11.8109978 102.4990014
 122.7489992  10.2729978 103.8200014 123.5699992   9.6229978 104.0850014
 122.8249992  10.9319978 104.6720014 121.4209992   9.5759978 103.9110014
 121.1479992   8.5019978 102.8260014 121.8929992   7.7209978 102.7750014
 120.1039992   8.2509978 102.9380014 121.3149992   9.0559978 101.9140014
 121.3049992   8.8689978 105.2440014 121.0009992   9.5969978 105.9810014
 120.6629992   8.0029978 105.1710014 122.3259992   8.6109978 105.4850014
 120.3229992  10.6469978 103.8450014 120.5089992  11.1329978 102.8990014
 120.2869992  11.3109978 104.6960014 119.3699992  10.1439978 103.7750014
 124.6689992  10.3089978  99.5300014 123.3079992  12.3829978 100.0470014
 121.4779992   9.1199978  96.5590014 122.3339992   8.1659978  96.1080014
 122.5619992   7.1299978  96.6570014 123.1939992   8.7329978  94.9100014
 124.1969992   8.2559978  94.9260014 123.2919992   9.8279978  95.0720014
 122.4789992   8.4059978  93.5990014 121.8399992   7.5119978  93.7600014
 123.2569992   8.1059978  92.8650014 121.6349992   9.5449978  93.1080014
 122.1419992  10.5249978  92.9790014 120.8389992   9.7619978  93.8520014
 120.8749992   9.2579978  91.7590014 120.2709992   8.3429978  91.9350014
 121.6809992   9.1009978  91.0100014 119.9639992  10.4289978  91.3310014
 120.5079992  11.3979978  91.3550014 119.0209992  10.4159978  91.9170014
 119.5529992  10.2839978  89.7960014 118.8339992  11.0809978  89.5100014
 119.1619992   9.2939978  89.4770014 120.6739992  10.5459978  88.6760014
 120.2059992  10.2179978  87.7230014 121.4549992   9.7629978  88.7830014
 121.2279992  11.9419978  88.6200014 121.9689992  12.2499978  89.3720014
 121.0559992  12.8429978  87.5960014 121.4129992  13.8829978  87.5710014
 120.2619992  12.5029978  86.3750014 119.2529992  12.9589978  86.4670014
 119.9709992  11.4459978  86.1940014 120.7049992  13.0659978  84.9600014
 120.8329992  14.1449978  85.1940014 119.9909992  12.9959978  84.1120014
 122.0439992  12.6789978  84.3380014 122.8809992  12.5829978  85.0620014
 122.3379992  13.5489978  83.7140014 121.9289992  11.3659978  83.5240014
 121.1739992  11.3309978  82.7090014 121.8359992  10.4729978  84.1780014
 123.0689992  11.0719978  82.5500014 124.1179992  11.1699978  82.9040014
 123.0739992  11.7569978  81.6750014 122.9419992   9.6659978  81.9360014
 121.9069992   9.5659978  81.5470014 123.1269992   8.8769978  82.6960014
 123.8389992   9.4439978  80.7270014 124.8959992   9.6999978  80.9520014
 123.4249992  10.1169978  79.9450014 123.6739992   8.0259978  80.2760014
 124.4129992   7.8289978  79.4710014 122.7179992   7.9269978  79.7200014
 123.8099992   7.2249978  81.0340014  10.3469992 113.6629978  84.1190014
   9.6959992 113.9459978  84.9740014   9.6289992 113.5069978  83.2860014
  11.1119992 114.4269978  83.8640014  11.1269992 112.4119978  84.5280014
  10.3849992 111.8439978  85.1300014  11.2839992 111.7689978  83.6360014
  12.4829992 112.6349978  85.2650014  13.1619992 113.0199978  84.4740014
  12.4389992 113.3399978  86.1230014  13.1499992 111.3579978  85.8020014
  13.1099992 110.6719978  84.9290014  14.2479992 111.4689978  85.9280014
  12.3759992 110.6579978  86.9690014  11.3509992 110.4229978  86.6100014
  12.9309992 109.7379978  87.2520014  12.3609992 111.4899978  88.2390014
  11.6509992 112.3079978  87.9900014  11.8859992 110.9839978  89.1070014
  13.7979992 111.9909978  88.6580014  14.3639992 111.0549978  88.8510014
  14.2659992 112.6189978  87.8700014  13.7659992 112.8329978  89.9200014
  13.0049992 113.6379978  89.8400014  13.6259992 112.1419978  90.7790014
  15.1939992 113.4489978  90.1630014  15.9659992 112.6529978  90.2390014
  15.5249992 114.0269978  89.2740014  15.2349992 114.5019978  91.4330014
  14.8209992 115.4699978  91.0790014  14.6559992 114.2239978  92.3400014
  16.7089992 114.8359978  91.7950014  17.1869992 113.8409978  91.6720014
  17.2409992 115.4999978  91.0800014  16.9299992 115.4569978  93.2150014
  16.4079992 114.8159978  93.9570014  18.0019992 115.5309978  93.4960014
  16.2709992 116.8339978  93.3170014  16.6299992 117.5169978  92.5170014
  15.1659992 116.7839978  93.2160014  16.4429992 117.6139978  94.6620014
  17.1699992 117.1239978  95.3450014  16.9229992 118.5459978  94.2950014
  15.1999992 118.0399978  95.4650014  15.4659992 118.8979978  96.1180014
  14.3379992 118.3619978  94.8420014  14.7819992 116.8619978  96.4450014
  14.7159992 115.7219978  96.1280014  14.3349992 117.4889978  97.4900014
  13.7429992 116.7499978  98.5530014  13.9789992 115.6649978  98.5270014
  14.0539992 117.1729978  99.5320014  12.1599992 116.7589978  98.4470014
  11.7889992 117.7989978  98.5630014  11.6299992 115.8279978  99.5680014
  12.0239992 116.0109978 100.5910014  10.5309992 115.9869978  99.6010014
  11.8849992 114.5059978  99.1010014  11.9049992 113.3149978 100.0830014
  12.5309992 113.7989978 101.4470014  11.9509992 113.6639978 102.7080014
  10.9839992 114.2079978 102.7680014  11.8539992 112.6039978 103.0290014
  12.8639992 114.2729978 103.8670014  12.7729992 115.3489978 103.8970014
  12.5879992 113.8439978 104.8190014  14.3649992 114.0369978 103.8970014
  14.8709992 114.5399978 105.2310014  14.6109992 113.7719978 105.9440014
  15.9419992 114.6729978 105.2650014  14.3279992 115.4319978 105.5070014
  14.7119992 112.6389978 103.6150014  14.3239992 112.3979978 102.6360014
  15.7779992 112.4929978 103.7060014  14.2069992 111.9809978 104.3070014
  15.0209992 114.7369978 102.7330014  14.6689992 115.7579978 102.7480014
  14.7079992 114.2749978 101.8090014  16.0929992 114.6479978 102.8290014
  10.4739992 112.9499978 100.2690014  12.8599992 112.3469978  99.5540014
  11.6969992 116.2799978  97.1890014  10.5389992 116.6829978  96.7500014
   9.8159992 117.5369978  97.2630014  10.0559992 115.8619978  95.6060014
   8.9859992 115.9809978  95.3340014  10.3039992 114.7819978  95.6910014
  10.9189992 116.3739978  94.4100014  11.9929992 116.3599978  94.6950014
  10.6019992 117.4209978  94.2150014  10.9089992 115.5349978  93.0680014
   9.8519992 115.5799978  92.7280014  11.0569992 114.4799978  93.3840014
  11.9029992 115.9449978  92.0800014  11.9099992 115.1489978  91.3060014
  12.9199992 115.9499978  92.5280014  11.6489992 117.3419978  91.3960014
  11.8449992 118.0619978  92.2190014  10.5799992 117.5019978  91.1410014
  12.5629992 117.5999978  90.2170014  12.6029992 116.7309978  89.5270014
  13.5029992 117.6889978  90.8030014  12.2229992 118.8799978  89.3470014
  11.8629992 119.6159978  90.0980014  11.2969992 118.8359978  88.7350014
  13.3439992 119.5359978  88.5570014  13.6849992 120.5699978  88.7170014
  13.9499992 118.9719978  87.4580014  14.5489992 119.6719978  86.8570014
  13.7329992 117.6689978  86.7600014  13.5119992 117.8149978  85.6810014
  12.8509992 117.1119978  87.1430014  15.0369992 116.8149978  86.8400014
  15.5719992 116.8519978  87.8130014  15.6679992 117.4159978  86.1500014
  14.9389992 115.3719978  86.4110014  14.3339992 115.2709978  85.4850014
  14.4719992 114.7659978  87.2180014  16.3329992 114.7489978  86.2740014
  16.4189992 113.9969978  87.0880014  17.1319992 115.4969978  86.4630014
  16.5339992 114.0629978  84.8640014  15.6819992 113.3899978  84.6280014
  17.4479992 113.4309978  84.8770014  16.8439992 114.9359978  83.6520014
  17.0179992 114.3229978  82.7410014  17.7659992 115.5159978  83.8690014
  15.9209992 116.0259978  83.2240014  16.0239992 116.8579978  83.9540014
  14.8709992 115.6719978  83.1430014  16.2629992 116.6349978  81.9260014
  15.3669992 117.2689978  81.7520014  16.2949992 115.8209978  81.1700014
  17.1559992 117.2949978  81.9360014 143.2189992 109.5759978  84.9750014
 142.7099992 108.7909978  85.5740014 143.2889992 109.2679978  83.9100014
 142.6229992 110.5119978  85.0350014 144.4399992 109.9319978  85.6900014
 145.1579992 109.0899978  85.5900014 144.9429992 110.8559978  85.3330014
 144.2429992 110.1909978  87.2010014 144.0979992 111.2619978  87.4570014
 143.3579992 109.5709978  87.4590014 145.3929992 109.6479978  88.1020014
 145.5019992 108.5579978  87.9170014 146.3549992 110.1049978  87.7830014
 145.1819992 109.9339978  89.6010014 144.9469992 110.9989978  89.8120014
 144.1889992 109.4949978  89.8370014 146.4989992 109.5399978  90.4900014
 146.7619992 108.5699978  90.0160014 147.2769992 110.2889978  90.2310014
 146.2719992 109.4959978  92.0050014 145.2699992 109.1479978  92.3350014
 147.1379992 108.9249978  92.4030014 146.4939992 110.8719978  92.6650014
 147.3339992 111.3519978  92.1200014 145.4679992 111.2809978  92.5430014
 146.8579992 110.9429978  94.0920014 147.9399992 110.7239978  94.2250014
 146.8039992 112.0109978  94.3970014 146.0969992 110.0229978  94.9980014
 145.9589992 108.9869978  94.6210014 146.7189992 110.0299978  95.9180014
 144.7299992 110.5399978  95.4660014 143.9579992 110.4429978  94.6730014
 144.4599992 109.9029978  96.3350014 144.9309992 112.0219978  96.0130014
 145.8079992 111.8399978  96.6710014 145.0869992 112.6709978  95.1250014
 143.6439992 112.5269978  96.7230014 143.6799992 113.6369978  96.6910014
 142.7089992 112.2449978  96.1920014 143.4869992 112.0409978  98.1230014
 143.6259992 110.9499978  98.2860014 144.3829992 112.5169978  98.5760014
 142.2039992 112.2979978  98.8750014 142.3459992 112.3339978  99.9760014
 141.8669992 113.3339978  98.6570014 141.2709992 111.1519978  98.5930014
 141.4399992 110.1379978  98.0070014 140.0669992 111.5689978  99.0890014
 138.9659992 110.6829978  99.2000014 138.0409992 111.2509978  99.4350014
 138.7379992 110.1579978  98.2470014 139.1029992 109.7179978 100.4040014
 138.1059992 109.2539978 100.5620014 139.5679992 110.3019978 101.6880014
 138.9059992 111.1759978 101.8700014 139.3849992 109.6439978 102.5640014
 140.9539992 110.5589978 101.6540014 141.5329992 111.4289978 102.9080014
 143.1199992 111.1639978 102.7460014 143.4519992 109.8059978 103.1610014
 143.6539992 109.7329978 104.2510014 142.7249992 109.0669978 102.7630014
 144.7639992 109.3109978 102.5460014 145.6019992 109.7779978 103.0420014
 144.8369992 108.2459978 102.7080014 144.9189992 109.3339978 101.0100014
 143.6079992 108.7789978 100.4680014 143.7339992 108.8179978  99.3960014
 143.3529992 107.7909978 100.8210014 142.8169992 109.4619978 100.7420014
 145.0859992 110.7829978 100.5810014 146.0959992 111.1379978 100.7280014
 144.7589992 110.7899978  99.5520014 144.4409992 111.4649978 101.1150014
 146.0949992 108.6229978 100.5360014 146.1109992 108.6529978  99.4570014
 146.1649992 107.5659978 100.7490014 147.0339992 109.0349978 100.8760014
 141.1919992 112.8359978 102.7130014 141.1469992 110.8649978 104.1810014
 140.0439992 108.7479978 100.0120014 139.6629992 107.8559978  99.1080014
 138.5489992 107.7599978  98.6030014 140.7249992 106.7699978  99.1090014
 140.4079992 105.9229978  99.7550014 141.7359992 107.1159978  99.4140014
 140.9569992 106.0619978  97.7640014 140.0309992 105.6969978  97.2720014
 141.6429992 105.2289978  98.0330014 141.6689992 106.8059978  96.6920014
 142.2059992 106.0529978  96.0770014 142.3979992 107.5659978  97.0450014
 140.6969992 107.5909978  95.7690014 140.0729992 108.3269978  96.3200014
 139.9899992 106.8789978  95.2920014 141.4569992 108.2099978  94.6280014
 142.3099992 107.5469978  94.3700014 142.0229992 109.0679978  95.0500014
 140.7069992 108.5409978  93.3520014 140.3609992 107.5999978  92.8740014
 141.3969992 109.0119978  92.6180014 139.4689992 109.5409978  93.4640014
 138.9309992 109.0469978  94.3010014 138.7929992 109.4169978  92.5910014
 139.8759992 110.9439978  93.8320014 140.1039992 111.1889978  94.8800014
 139.9349992 111.9249978  92.9520014 140.4509992 112.8559978  93.2280014
 139.6059992 111.7229978  91.5180014 139.9839992 110.7229978  91.2150014
 140.0629992 112.5049978  90.8750014 138.0739992 111.8329978  91.3400014
 137.7249992 112.8849978  91.4140014 137.4239992 111.2769978  92.0490014
 137.5839992 111.3919978  89.8930014 136.4739992 111.3569978  89.8790014
 138.0019992 110.3779978  89.7170014 137.9449992 112.4139978  88.7480014
 138.9689992 112.7119978  89.0590014 137.2749992 113.3009978  88.7490014
 138.0969992 111.9499978  87.3110014 137.1269992 111.4769978  87.0460014
 138.8399992 111.1289978  87.2250014 138.3339992 113.0849978  86.2430014
 139.3139992 113.5459978  86.4910014 137.4279992 113.7079978  86.3980014
 138.3629992 112.7739978  84.6770014 138.1399992 113.7159978  84.1330014
 137.5109992 112.1359978  84.3570014 139.6879992 112.2019978  84.0820014
 140.5529992 112.8649978  84.2970014 139.7549992 112.2929978  82.9760014
 139.7839992 111.1169978  84.2980014 115.3019992   2.9639978  82.3810014
 115.3629992   2.1459978  83.1310014 114.7359992   2.5669978  81.5110014
 114.5969992   3.7109978  82.8040014 116.4839992   3.8399978  82.1080014
 117.4999992   3.3949978  82.0580014 116.1769992   4.3529978  81.1720014
 116.8979992   5.0969978  82.9780014 117.6649992   5.6629978  82.4070014
 115.9489992   5.6699978  83.0350014 117.4209992   4.7599978  84.3790014
 116.6699992   4.0799978  84.8350014 118.3659992   4.1819978  84.2940014
 117.7619992   6.0689978  85.1450014 118.2089992   6.6939978  84.3430014
 116.8619992   6.6419978  85.4570014 118.7859992   5.8449978  86.3260014
 119.6919992   5.2849978  86.0110014 119.0579992   6.9149978  86.4520014
 118.2219992   5.2299978  87.6420014 117.1409992   5.4649978  87.7490014
 118.1639992   4.1249978  87.5420014 118.7659992   5.7109978  88.9000014
 119.8169992   5.3689978  89.0100014 118.6599992   6.8169978  88.9070014
 117.9439992   5.2079978  90.1370014 116.9009992   5.5829978  90.0610014
 117.8919992   4.0979978  90.1090014 118.5789992   5.6309978  91.5310014
 119.6809992   5.4979978  91.5670014 118.4609992   6.7199978  91.7140014
 118.2579992   4.8209978  92.7520014 117.1719992   4.9459978  92.9510014
 118.4989992   3.7499978  92.5850014 118.9739992   5.3529978  94.0060014
 120.0319992   5.4199978  93.6730014 118.6869992   6.3849978  94.3000014
 118.8589992   4.4979978  95.2930014 117.7899992   4.6639978  95.5460014
 118.9879992   3.4119978  95.0960014 119.7279992   4.9569978  96.4440014
 119.4619992   4.3989978  97.3680014 120.7649992   4.7169978  96.1260014
 119.7949992   6.5449978  96.6550014 120.7789992   6.6629978  97.1560014
 119.8939992   7.1669978  95.7390014 118.6839992   6.9599978  97.4850014
 118.8929992   7.4179978  98.6210014 117.5109992   6.8309978  96.8430014
 116.2849992   7.4089978  97.5200014 116.6149992   7.8469978  98.4860014
 115.7569992   8.2579978  97.0360014 115.3079992   6.2639978  97.9630014
 114.2919992   6.6609978  98.1760014 115.7459992   5.5839978  99.3260014
 115.9429992   6.3749978 100.0810014 114.9879992   4.8719978  99.7160014
 116.9959992   4.9269978  99.0420014 117.8129992   4.3329978 100.2740014
 116.7189992   3.7709978 101.2730014 117.0659992   3.7029978 102.7000014
 118.0299992   3.1579978 102.7850014 117.2849992   4.7149978 103.1030014
 116.0519992   2.8749978 103.5240014 115.9449992   1.8719978 103.1390014
 116.4769992   2.8739978 104.5170014 114.6149992   3.3389978 103.6440014
 114.5989992   4.4759978 104.6800014 113.6049992   4.8969978 104.7150014
 114.9689992   4.0779978 105.6130014 115.3739992   5.1799978 104.4160014
 114.0619992   3.8219978 102.3290014 114.5939992   4.7269978 102.0740014
 114.2779992   3.0289978 101.6280014 113.0059992   4.0349978 102.4010014
 113.7409992   2.2539978 104.2070014 114.1919992   1.7349978 105.0390014
 113.5889992   1.5069978 103.4420014 112.7549992   2.6219978 104.4500014
 118.5859992   3.1499978  99.8510014 118.5709992   5.4199978 100.9830014
 115.2539992   5.3389978  96.8380014 114.4079992   5.5929978  95.8000014
 113.7759992   6.6429978  95.6520014 114.2319992   4.3449978  94.9210014
 113.8309992   3.4979978  95.5170014 115.2289992   4.0379978  94.5390014
 113.4179992   4.7069978  93.6610014 113.9069992   5.4169978  92.9600014
 112.4709992   5.1659978  94.0170014 113.1719992   3.4319978  92.8330014
 112.3999992   3.6789978  92.0740014 112.7849992   2.6939978  93.5680014
 114.4369992   2.8419978  92.1200014 114.5319992   1.7469978  92.2790014
 115.3639992   3.3989978  92.3740014 114.2639992   3.0379978  90.5860014
 114.3109992   4.1409978  90.4590014 113.2159992   2.7929978  90.3110014
 115.3099992   2.3639978  89.6930014 115.2469992   1.2549978  89.7150014
 116.3299992   2.6269978  90.0460014 115.2669992   2.8059978  88.1960014
 116.2089992   2.4939978  87.6960014 115.2689992   3.9169978  88.1760014
 114.0909992   2.1359978  87.5850014 114.3699992   1.0939978  87.3730014
 113.0159992   2.7119978  87.0000014 112.2509992   2.1379978  86.4550014
 112.8199992   4.1979978  86.9300014 113.7699992   4.7729978  86.9420014
 112.4179992   4.6119978  87.8790014 111.9039992   4.7989978  85.9310014
 112.4879992   4.5989978  85.0080014 111.9399992   5.9089978  85.9050014
 110.4699992   4.2449978  85.8440014 109.9299992   4.4399978  86.7950014
 110.5339992   3.1359978  85.8000014 109.7119992   4.9879978  84.7600014
 109.4459992   5.9969978  85.1420014 108.7909992   4.3829978  84.6210014
 110.4969992   5.1459978  83.4030014 111.3769992   5.7709978  83.6680014
 109.8999992   5.7949978  82.7280014 110.6419992   3.8799978  82.5520014
 109.7419992   3.2299978  82.6090014 111.5049992   3.3419978  83.0000014
 110.9119992   4.0949978  81.0570014 109.9749992   3.9999978  80.4680014
 111.5529992   3.2279978  80.7920014 111.6499992   5.3569978  80.6900014
 112.2059992   5.2569978  79.7330014 112.4659992   5.5659978  81.4150014
 111.0169992   6.2549978  80.5270014   7.2899992  86.4189978  83.9090014
   7.2329992  85.5739978  84.6290014   7.5769992  87.2689978  84.5640014
   8.1339992  86.2469978  83.2070014   5.9839992  86.6699978  83.1890014
   6.2299992  87.2899978  82.3010014   5.6479992  85.6759978  82.8240014
   4.8209992  87.4199978  83.9240014   5.2629992  88.3189978  84.4050014
   4.1939992  87.8989978  83.1410014   3.8979992  86.5199978  84.7270014
   3.0539992  86.2859978  84.0440014   4.2959992  85.5229978  85.0150014
   3.2809992  87.2699978  85.9640014   2.9379992  88.2799978  85.6540014
   2.3699992  86.7959978  86.3880014   4.3719992  87.3019978  87.1300014
   5.0849992  86.4509978  87.1200014   4.9009992  88.2699978  86.9930014
   3.5919992  87.2269978  88.4140014   4.3769992  87.5769978  89.1180014
   2.7279992  87.9099978  88.5560014   3.2869992  85.7339978  88.8670014
   2.9189992  85.1629978  87.9880014   4.2819992  85.2879978  89.0760014
   2.3339992  85.4879978  90.0430014   2.5079992  86.1659978  90.9060014
   1.2949992  85.7179978  89.7260014   2.3469992  84.0449978  90.6490014
   2.1029992  83.3989978  89.7800014   3.4019992  83.7659978  90.8590014
   1.5769992  83.8819978  91.9480014   2.1019992  84.6059978  92.6070014
   0.5409992  84.2199978  91.7310014   1.5319992  82.5009978  92.5560014
   0.5239992  82.0409978  92.6310014   2.1339992  81.7519978  91.9980014
   2.1549992  82.4109978  93.9870014   2.2109992  81.3309978  94.2380014
   3.1889992  82.8199978  93.9950014   1.3399992  83.0749978  95.1440014
   1.7329992  84.0629978  95.4690014   0.3289992  83.2589978  94.7240014
   1.3069992  82.2209978  96.4120014   0.5589992  82.6799978  97.0940014
   0.8399992  81.2379978  96.1900014   2.7209992  82.2039978  97.0420014
   3.2409992  81.1569978  97.4010014   3.2839992  83.3689978  97.0730014
   4.6379992  83.3089978  97.3540014   4.8289992  82.5809978  98.1720014
   5.1289992  83.0569978  96.3900014   4.9559992  84.6679978  97.9570014
   6.0669992  84.6939978  97.9490014   4.2339992  84.9759978  99.2860014
   3.1739992  85.1539978  99.0040014   4.3409992  84.0269978  99.8540014
   4.6919992  86.0899978 100.0100014   5.8429992  85.9779978 101.0480014
   5.2509992  84.9069978 102.0280014   3.9379992  85.0399978 102.6710014
   4.1839992  84.9799978 103.7520014   3.4989992  85.9969978 102.3160014
   3.0749992  83.8349978 102.1590014   2.0249992  84.0829978 102.2160014
   3.5069992  83.5989978 101.1980014   3.2019992  82.4669978 102.9070014
   4.6629992  82.0799978 102.9760014   4.6549992  81.2409978 103.6560014
   5.0269992  81.8669978 101.9820014   5.2879992  82.8189978 103.4550014
   2.5849992  82.6709978 104.2200014   1.6449992  83.1849978 104.0770014
   2.3299992  81.6939978 104.6030014   3.3749992  83.1059978 104.8130014
   2.3149992  81.4689978 102.1920014   2.3979992  80.5139978 102.6890014
   2.6729992  81.3779978 101.1770014   1.3049992  81.8499978 102.1600014
   7.1259992  85.4019978 100.5080014   5.9539992  87.2149978 101.7860014
   4.5229992  85.6109978  96.8970014   5.4079992  86.4749978  96.3370014
   6.6169992  86.4449978  96.4890014   4.7109992  87.4459978  95.4110014
   5.4039992  88.3119978  95.3450014   3.6909992  87.6939978  95.7770014
   4.5969992  86.7639978  94.0070014   3.9099992  87.3919978  93.3990014
   4.0839992  85.7879978  94.1420014   5.9319992  86.6779978  93.1920014
   6.7379992  86.9409978  93.9100014   5.9239992  87.4929978  92.4370014
   6.2109992  85.3329978  92.4880014   5.2899992  85.1479978  91.8930014
   6.1329992  84.6119978  93.3300014   7.5959992  85.2649978  91.8030014
   8.2579992  85.6989978  92.5820014   7.6489992  85.9349978  90.9190014
   8.1619992  83.8699978  91.3850014   7.9829992  83.1299978  92.1950014
   9.2589992  83.9799978  91.2480014   7.5679992  83.3249978  90.0670014
   8.2439992  82.4909978  89.7820014   7.6469992  84.0859978  89.2620014
   6.2069992  82.7179978  90.2050014   5.9479992  82.5589978  91.2620014
   5.2889992  82.5729978  89.2140014   4.3179992  82.0759978  89.3550014
   5.3999992  83.0069978  87.7540014   6.2149992  82.4059978  87.2970014
   5.5659992  84.1039978  87.6920014   4.1359992  82.7099978  86.9090014
   4.4089992  82.9749978  85.8650014   3.3039992  83.4069978  87.1470014
   3.5669992  81.2939978  86.9570014   2.9099992  81.1869978  87.8470014
   4.4669992  80.6429978  86.9630014   2.5429992  80.8499978  85.8190014
   1.6349992  80.3829978  86.2570014   3.0299992  80.2269978  85.0380014
   1.9169992  82.1559978  85.0900014   2.7379992  82.6869978  84.5630014
   1.5009992  82.8429978  85.8580014   0.8459992  81.8269978  84.1140014
   0.0349992  81.4029978  84.7430014   1.2329992  81.0029978  83.4780014
   0.4399992  83.0969978  83.2510014  -0.1290008  82.5789978  82.4500014
   1.4309992  83.4489978  82.8910014  -0.5150008  84.0629978  83.9530014
  -0.9500008  84.8529978  83.3060014   0.0079992  84.5949978  84.7770014
  -1.4990008  83.6699978  84.2870014 127.2649992  12.8329978  83.8570014
 127.4279992  13.2509978  82.8400014 127.1869992  11.7339978  83.7130014
 128.1929992  13.0099978  84.4420014 126.0409992  13.5319978  84.3850014
 125.2829992  13.4839978  83.5740014 125.6719992  12.9239978  85.2380014
 126.3209992  15.0389978  84.7170014 126.7289992  15.6189978  83.8620014
 125.3579992  15.4489978  85.0890014 127.4019992  15.3699978  85.7150014
 128.2719992  14.7879978  85.3440014 127.6809992  16.4449978  85.7250014
 127.1969992  15.0099978  87.2140014 126.2209992  15.4149978  87.5570014
 127.2419992  13.9039978  87.3190014 128.2049992  15.6019978  88.1860014
 129.2149992  15.1969978  87.9630014 128.2719992  16.6979978  88.0170014
 127.8159992  15.1179978  89.6270014 126.7519992  15.4329978  89.6870014
 127.7719992  14.0089978  89.5730014 128.6929992  15.6569978  90.7850014
 129.7689992  15.4209978  90.6390014 128.6699992  16.7609978  90.9060014
 128.3149992  15.0209978  92.0760014 127.2219992  15.1749978  92.2100014
 128.3549992  13.9119978  92.0190014 129.1189992  15.5299978  93.3040014
 128.8779992  14.8889978  94.1790014 130.2109992  15.5609978  93.1040014
 128.6989992  16.9789978  93.7600014 128.9099992  17.6939978  92.9360014
 127.5899992  17.0249978  93.7960014 129.2649992  17.5819978  95.1010014
 130.3759992  17.6159978  95.1210014 128.9669992  18.6509978  95.0570014
 128.6709992  16.9769978  96.3730014 128.6279992  15.8749978  96.2410014
 129.3809992  17.2239978  97.1920014 127.3629992  17.6769978  96.7640014
 127.6499992  18.6999978  97.0900014 126.6529992  17.7359978  95.9120014
 126.7289992  16.9749978  97.9900014 127.5659992  16.8069978  98.7010014
 125.9279992  17.6179978  98.4130014 126.3099992  15.5579978  97.5920014
 126.3379992  15.1579978  96.4710014 126.0449992  14.9129978  98.6780014
 125.9379992  13.5019978  98.4350014 125.2819992  13.0399978  99.2030014
 125.4849992  13.1879978  97.4700014 127.2789992  12.7939978  98.6570014
 127.1349992  11.7159978  98.8800014 128.0819992  13.3669978  99.8120014
 127.3139992  13.6819978 100.5510014 128.7079992  12.5709978 100.2670014
 128.9939992  14.4069978  99.4670014 129.4719992  15.3679978 100.5870014
 128.3269992  15.3739978 101.5960014 128.4709992  15.3549978 103.0410014
 127.5089992  14.8919978 103.3460014 129.3069992  14.6519978 103.2440014
 128.8229992  16.7809978 103.6790014 128.7519992  16.6379978 104.7470014
 129.8809992  16.8909978 103.4890014 128.0699992  18.1019978 103.3310014
 128.6379992  19.2659978 104.0280014 129.7109992  19.2079978 103.9280014
 128.2189992  20.1359978 103.5430014 128.4979992  19.2999978 105.0980014
 127.9679992  18.3649978 101.8710014 127.2859992  17.6029978 101.5250014
 127.6399992  19.3579978 101.6030014 128.9499992  18.1489978 101.4760014
 126.6159992  17.8979978 103.6790014 126.4449992  17.3799978 104.6110014
 126.2129992  17.3289978 102.8540014 126.1029992  18.8379978 103.5380014
 130.6749992  14.6629978 101.1640014 129.6839992  16.7339978 100.0630014
 127.9999992  12.8619978  97.4190014 129.1089992  12.1339978  97.2800014
 129.4799992  11.2399978  97.9730014 129.9759992  12.6519978  96.0900014
 130.9789992  12.9019978  96.4970014 129.5359992  13.5259978  95.5640014
 130.2139992  11.6029978  95.0530014 129.2779992  11.1259978  94.6920014
 130.9389992  10.9029978  95.5210014 130.8359992  12.2029978  93.8150014
 131.7789992  12.7639978  93.9870014 130.0789992  12.9389978  93.4710014
 131.0799992  11.1619978  92.7840014 130.1459992  10.6259978  92.5110014
 131.7949992  10.4419978  93.2360014 131.6459992  11.6779978  91.4140014
 131.8339992  10.7419978  90.8470014 132.5879992  12.2419978  91.5820014
 130.6009992  12.6439978  90.7620014 130.5839992  13.5729978  91.3720014
 129.6069992  12.1659978  90.8880014 130.8149992  12.7369978  89.2480014
 130.0069992  13.3809978  88.8410014 130.9359992  11.7239978  88.8080014
 132.1059992  13.5179978  88.9690014 132.4209992  14.2329978  89.7440014
 132.8969992  13.4939978  87.8930014 133.8159992  14.0979978  87.8640014
 132.6379992  12.7309978  86.6660014 132.6559992  11.6349978  86.8450014
 133.4909992  12.9219978  85.9790014 131.2989992  13.0579978  85.9700014
 130.4539992  12.7379978  86.6160014 131.1959992  12.4029978  85.0780014
 131.1349992  14.5689978  85.6580014 130.9409992  15.3029978  86.4690014
 130.2419992  14.6369978  85.0010014 132.2549992  15.2689978  84.8530014
 132.3099992  14.7259978  83.8860014 133.2419992  15.1269978  85.3430014
 131.9569992  16.7559978  84.7510014 131.9399992  17.0959978  85.8080014
 130.9659992  16.8889978  84.2660014 132.9889992  17.5519978  83.9800014
 132.8489992  17.2909978  82.9090014 133.9489992  17.2239978  84.4330014
 133.0009992  19.0859978  84.1710014 131.9639992  19.4139978  83.9470014
 133.6409992  19.5019978  83.3640014 133.3699992  19.6499978  85.5690014
 132.7609992  19.1309978  86.3390014 133.1329992  20.7359978  85.5550014
 134.4399992  19.5739978  85.8580014  70.8089992 146.0789978  83.3020014
  71.7829992 145.5439978  83.3160014  70.8559992 146.7949978  84.1500014
  70.7719992 146.6789978  82.3680014  69.6459992 145.0869978  83.4030014
  68.6779992 145.6229978  83.5020014  69.6399992 144.5419978  82.4350014
  69.6049992 144.2029978  84.6510014  68.6789992 143.5979978  84.5450014
  70.4989992 143.5529978  84.5360014  69.6849992 144.8959978  86.0220014
  70.5729992 145.5639978  86.0100014  68.7169992 145.4409978  85.9940014
  69.8319992 143.9249978  87.1980014  69.1229992 143.0879978  87.0210014
  70.8749992 143.5489978  87.1280014  69.5939992 144.6029978  88.4820014
  68.5129992 144.7389978  88.6980014  69.9719992 143.9669978  89.3110014
  70.1379992 146.0409978  88.6960014  71.2329992 146.0149978  88.5100014
  69.6209992 146.5909978  87.8810014  69.8759992 146.6899978  90.0080014
  70.4449992 146.1329978  90.7830014  70.2439992 147.7379978  89.9630014
  68.3959992 146.8699978  90.4470014  67.8739992 147.3369978  89.5850014
  68.0259992 145.8229978  90.4940014  68.0949992 147.7349978  91.7700014
  68.4959992 148.7659978  91.6690014  66.9959992 147.8949978  91.7290014
  68.6079992 147.2989978  93.1320014  68.0669992 146.3589978  93.3710014
  69.6979992 147.0889978  93.0810014  68.2229992 148.2279978  94.3070014
  68.5359992 149.2509978  94.0070014  67.1169992 148.2229978  94.4060014
  68.8559992 147.8969978  95.6500014  68.6589992 146.8049978  95.7100014
  69.9609992 147.9309978  95.5380014  68.2339992 148.6299978  96.8470014
  68.8479992 148.4929978  97.7620014  68.2509992 149.6579978  96.4270014
  66.7389992 148.4999978  97.1590014  66.1629992 148.8959978  96.2950014
  66.5849992 147.4359978  97.4390014  66.3549992 149.3189978  98.3790014
  66.9469992 150.2949978  98.7420014  65.3089992 148.7129978  98.9740014
  64.9929992 149.2029978 100.2960014  65.4169992 150.1799978 100.6130014
  63.9429992 149.5179978 100.1150014  65.0089992 148.1859978 101.4290014
  64.6439992 148.7009978 102.3440014  66.5249992 147.7789978 101.6740014
  67.0419992 148.7239978 101.9460014  66.5299992 147.1779978 102.6090014
  67.1369992 147.1459978 100.5810014  68.5459992 146.3379978 100.6750014
  68.1859992 145.1969978 101.5700014  68.6889992 144.9249978 102.9140014
  69.7059992 145.3629978 103.0040014  68.1989992 145.5529978 103.6880014
  68.8439992 143.4749978 103.2050014  69.5539992 143.1019978 102.4820014
  69.3189992 143.5349978 104.1730014  67.6329992 142.5359978 103.2110014
  67.1369992 142.2629978 101.8100014  67.8319992 141.7879978 101.1340014
  66.2259992 141.7119978 101.9910014  66.7589992 143.2029978 101.4340014
  68.0589992 141.2579978 103.8420014  67.2939992 140.5149978 103.6720014
  68.8629992 140.7929978 103.2910014  68.2579992 141.4089978 104.8920014
  66.6409992 143.0759978 104.0830014  65.7129992 142.5309978 104.0000014
  66.2269992 144.0409978 103.8310014  67.0059992 143.0059978 105.0970014
  68.9179992 145.8639978  99.3360014  69.6529992 147.1769978 101.2800014
  64.1999992 147.0189978 101.1210014  63.9119992 146.2269978 102.1230014
  64.1009992 146.4419978 103.3150014  63.5739992 144.8659978 101.5550014
  62.6299992 144.9099978 100.9700014  63.5079992 144.1229978 102.3790014
  64.7179992 144.3709978 100.5990014  64.7479992 143.2669978 100.7180014
  65.6519992 144.7819978 101.0380014  64.4599992 144.6909978  99.1420014
  65.3599992 144.6709978  98.4910014  64.0309992 145.7149978  99.0980014
  63.4329992 143.6209978  98.5840014  62.5749992 144.2969978  98.3780014
  63.1069992 142.9509978  99.4070014  63.6579992 142.9359978  97.2740014
  63.0709992 142.0039978  97.4190014  64.7429992 142.7179978  97.1740014
  63.1549992 143.6489978  96.0660014  62.1149992 144.0299978  96.1480014
  63.1879992 142.8369978  95.3090014  64.1339992 144.6879978  95.6600014
  64.4729992 145.3209978  96.5070014  63.6039992 145.3109978  94.9080014
  65.4409992 144.1829978  94.9790014  66.1329992 143.7759978  95.7300014
  65.7839992 144.3549978  93.6910014  66.7679992 143.9579978  93.3980014
  65.0649992 145.0429978  92.5680014  65.6459992 145.7509978  91.9390014
  64.1179992 145.5289978  92.8870014  64.4769992 144.0299978  91.4890014
  63.6969992 143.4379978  92.0120014  65.3189992 143.3689978  91.1900014
  63.9769992 144.6889978  90.1700014  63.1869992 145.4519978  90.3360014
  63.5009992 143.8579978  89.6060014  65.0819992 145.3629978  89.3660014
  65.9509992 144.6959978  89.1800014  65.4219992 146.2229978  89.9820014
  64.5389992 145.9449978  88.0260014  63.4289992 145.9379978  87.9720014
  64.8109992 145.2099978  87.2390014  65.0049992 147.3919978  87.6840014
  65.1119992 147.9939978  88.6110014  64.2279992 147.8059978  87.0060014
  66.3359992 147.2799978  86.9790014  66.8539992 146.3919978  87.4020014
  66.9789992 148.1699978  87.1490014  66.1399992 147.0879978  85.4750014
  65.3529992 146.3369978  85.2460014  67.0569992 146.6189978  85.0600014
  65.7629992 147.9699978  84.9160014  56.4889992 140.2659978  84.0710014
  56.3019992 139.1859978  83.8920014  57.4309992 140.6299978  83.6100014
  55.6739992 140.8599978  83.6050014  56.4109992 140.6609978  85.5810014
  55.3869992 140.5219978  85.9870014  57.1379992 139.9959978  86.0950014
  56.7039992 142.1939978  85.9240014  57.3259992 142.4219978  86.8160014
  57.2699992 142.5949978  85.0570014  55.4519992 143.0879978  85.9020014
  55.7429992 144.1409978  85.7050014  54.7899992 142.8169978  85.0520014
  54.6199992 143.0279978  87.2360014  54.3329992 142.0529978  87.6870014
  55.2059992 143.5599978  88.0150014  53.3329992 143.8139978  86.9810014
  53.4819992 144.8439978  86.5920014  52.7049992 143.3439978  86.1950014
  52.4259992 143.7959978  88.2270014  53.1969992 143.6559978  89.0150014
  51.8649992 144.7439978  88.3740014  51.3769992 142.6559978  88.1690014
  50.6029992 142.8149978  87.3890014  51.8219992 141.6589978  87.9620014
  50.5299992 142.6029978  89.4790014  49.6419992 141.9699978  89.2700014
  51.2099992 142.0809978  90.1860014  50.0169992 143.9549978  90.0260014
  50.9229992 144.5009978  90.3660014  49.5469992 144.5929978  89.2470014
  48.9279992 143.7249978  91.0730014  48.3529992 144.6269978  91.3750014
  48.2479992 142.9539978  90.6520014  49.5789992 143.2329978  92.3970014
  50.0559992 142.2659978  92.1300014  50.3989992 143.9119978  92.7160014
  48.6929992 143.0599978  93.6070014  48.2719992 144.0669978  93.8120014
  47.9179992 142.3239978  93.3030014  49.3549992 142.6429978  94.9850014
  50.2009992 143.3139978  95.2440014  48.4679992 142.7579978  95.6430014
  49.7869992 141.2379978  95.0730014  48.8999992 140.6459978  94.7610014
  50.6459992 141.0409978  94.3960014  50.2769992 140.8419978  96.4910014
  50.4299992 141.5849978  97.4430014  50.3339992 139.5129978  96.4530014
  50.5739992 138.7779978  97.6650014  50.1049992 139.2949978  98.5290014
  50.2039992 137.7319978  97.6220014  52.1409992 138.6349978  97.8210014
  52.4729992 137.8939978  97.0630014  52.5079992 138.0629978  99.2610014
  52.3609992 136.9659978  99.3520014  53.6049992 138.1149978  99.4290014
  51.8089992 138.8639978 100.2000014  52.2339992 138.8489978 101.6960014
  53.3789992 140.0219978 101.7000014  53.1659992 141.2829978 101.0410014
  53.1159992 141.0019978  99.9670014  52.2369992 141.7009978 101.4830014
  54.3749992 142.2919978 101.2570014  55.2289992 142.0089978 100.6580014
  54.0079992 143.0769978 100.6120014  54.7289992 142.7849978 102.5890014
  55.6339992 141.7729978 103.3480014  55.8679992 142.1409978 104.3370014
  54.9959992 140.9269978 103.5550014  56.5459992 141.7069978 102.7730014
  55.5909992 144.0369978 102.5350014  55.9629992 144.2119978 103.5340014
  56.3499992 144.0339978 101.7660014  54.9129992 144.8559978 102.3480014
  53.5429992 143.1609978 103.5330014  52.9139992 143.8309978 102.9650014
  54.1259992 143.6459978 104.3020014  53.0599992 142.2329978 103.8020014
  51.1339992 139.3439978 102.5810014  52.7899992 137.5319978 102.0260014
  52.7959992 139.8869978  97.6060014  54.0969992 139.8469978  97.3700014
  54.7839992 138.8639978  97.3910014  54.7039992 141.2649978  97.2000014
  55.5969992 141.4019978  97.8460014  54.0089992 142.0439978  97.5800014
  54.9519992 141.4139978  95.6690014  55.5989992 140.5629978  95.3670014
  55.5589992 142.3259978  95.4840014  53.7239992 141.4109978  94.6980014
  53.0829992 142.2839978  94.9420014  53.2259992 140.4419978  94.9160014
  54.1809992 141.4279978  93.2380014  55.0229992 140.7379978  93.0130014
  54.5659992 142.4609978  93.1010014  53.0319992 141.1279978  92.2870014
  53.2989992 141.4429978  91.2560014  52.1609992 141.7729978  92.5320014
  52.6419992 139.6799978  92.2530014  52.2899992 139.3669978  93.2590014
  53.5189992 139.1099978  91.8780014  51.3769992 139.3969978  91.3710014
  51.4879992 139.6119978  90.2870014  50.6879992 140.1819978  91.7480014
  50.7919992 138.0149978  91.5850014  51.1189992 137.4989978  92.5010014
  49.9269992 137.3239978  90.8100014  49.5569992 136.3349978  91.1160014
  49.3729992 137.8229978  89.5190014  49.2369992 138.9249978  89.5660014
  48.3309992 137.4389978  89.5230014  50.0859992 137.4459978  88.1480014
  50.0619992 136.3389978  88.2380014  51.1469992 137.7689978  88.2120014
  49.3649992 137.8879978  86.8370014  48.2929992 137.6089978  86.9250014
  49.8629992 137.3639978  85.9930014  49.3539992 139.4169978  86.7090014
  50.3189992 139.6879978  87.1880014  48.5569992 139.8769978  87.3330014
  49.3929992 139.8989978  85.2730014  48.5959992 140.6659978  85.1660014
  49.1189992 139.0439978  84.6190014  50.7429992 140.5309978  84.7120014
  50.8949992 141.4969978  85.2400014  50.5599992 140.7279978  83.6340014
  51.9829992 139.6689978  84.7820014  51.7709992 138.8759978  85.5300014
  52.8089992 140.3359978  85.1080014  52.4819992 138.8609978  83.5530014
  51.8489992 137.9479978  83.5530014  53.5269992 138.4959978  83.6460014
  52.2359992 139.4759978  82.6610014 136.1729992  22.1029978  85.2670014
 135.2309992  22.2949978  84.7110014 136.8559992  21.5129978  84.6200014
 136.6589992  23.0839978  85.4590014 135.7249992  21.2239978  86.4840014
 135.4529992  20.2689978  85.9870014 136.6159992  21.0189978  87.1160014
 134.6549992  21.7779978  87.4610014 135.0689992  22.5689978  88.1220014
 133.7379992  22.1569978  86.9610014 134.1259992  20.7149978  88.5350014
 133.0279992  20.6939978  88.7040014 134.3799992  19.6579978  88.3070014
 134.8419992  20.8809978  89.8750014 134.4529992  21.8669978  90.2080014
 134.5909992  20.1609978  90.6830014 136.4609992  20.8999978  89.7970014
 136.8329992  19.9749978  89.3070014 136.6669992  21.7929978  89.1680014
 137.0709992  21.2639978  91.1550014 136.8919992  20.5839978  92.0150014
 138.1699992  21.1439978  91.0480014 136.8309992  22.6659978  91.5440014
 137.3149992  23.3789978  90.8420014 135.7809992  22.9469978  91.7720014
 137.5819992  22.9429978  92.8670014 137.2399992  22.2059978  93.6240014
 138.6739992  22.7799978  92.7360014 137.4089992  24.3649978  93.3600014
 138.0419992  24.2929978  94.2700014 137.9149992  25.0619978  92.6580014
 135.9549992  24.7339978  93.7030014 135.5649992  24.6289978  92.6680014
 135.5999992  24.0169978  94.4730014 135.8589992  26.1829978  94.3150014
 136.5029992  26.4189978  95.1890014 136.3389992  26.8079978  93.5320014
 134.4139992  26.6849978  94.6590014 134.5409992  27.4849978  95.4190014
 133.8399992  27.0049978  93.7630014 133.5419992  25.5609978  95.3140014
 133.1679992  24.9349978  94.4760014 134.2209992  25.1689978  96.1010014
 132.1829992  26.0499978  95.8460014 132.2669992  26.8789978  96.5810014
 131.6139992  26.5889978  95.0590014 131.2779992  24.9289978  96.3950014
 131.0349992  23.9169978  95.7980014 131.0759992  25.1159978  97.7360014
 130.7099992  23.9379978  98.5080014 130.0229992  24.3789978  99.2620014
 130.1819992  23.1239978  97.9670014 131.8969992  23.3759978  99.3210014
 131.3689992  22.6019978  99.9190014 132.4109992  24.6639978 100.0990014
 132.8009992  25.4679978  99.4380014 131.7039992  25.0059978 100.8850014
 133.5759992  24.1799978 100.8180014 134.0649992  24.8979978 102.0840014
 135.0449992  23.8279978 102.9080014 134.4459992  22.5839978 103.2050014
 134.8349992  22.3049978 104.2080014 133.3419992  22.5669978 103.3290014
 134.9379992  21.3859978 102.3540014 134.6739992  20.4989978 102.9100014
 134.2859992  21.3329978 101.4940014 136.4049992  21.3009978 101.8040014
 137.3609992  21.4349978 102.9280014 137.3349992  22.4729978 103.2230014
 137.0619992  20.8869978 103.8090014 138.3699992  21.1599978 102.6550014
 136.5389992  19.9159978 101.2280014 135.7989992  19.8749978 100.4430014
 137.4339992  19.7909978 100.6360014 136.3469992  19.2319978 102.0420014
 136.5829992  22.3239978 100.7440014 137.5399992  22.3609978 100.2440014
 136.3189992  23.2959978 101.1350014 135.7779992  22.1989978 100.0350014
 134.8809992  26.0689978 101.5630014 132.8819992  25.3289978 102.8680014
 132.8569992  22.8529978  98.4310014 132.5959992  21.6399978  97.9090014
 131.6859992  20.8979978  98.3070014 133.5719992  21.3199978  96.7870014
 134.4419992  21.0499978  97.4230014 133.8319992  22.2009978  96.1620014
 133.0629992  20.0819978  96.0100014 132.7899992  19.1599978  96.5660014
 133.9199992  19.7619978  95.3810014 131.8029992  20.5159978  95.2450014
 131.8969992  21.6019978  95.0330014 130.8569992  20.2219978  95.7490014
 131.8479992  19.8799978  93.8390014 131.9769992  18.7769978  93.8170014
 132.6099992  20.3409978  93.1760014 130.4909992  20.1479978  93.1340014
 130.2339992  21.2279978  93.1390014 129.7249992  19.6259978  93.7470014
 130.3819992  19.5469978  91.7310014 129.2979992  19.3819978  91.5510014
 130.8829992  18.5619978  91.8420014 130.9659992  20.4499978  90.6890014
 131.1949992  19.8439978  89.7870014 131.9479992  20.8469978  91.0240014
 130.1029992  21.6239978  90.3510014 129.0919992  21.3769978  89.9960014
 130.2739992  22.9609978  90.6190014 129.4899992  23.6329978  90.2410014
 131.4409992  23.6589978  91.3090014 132.0529992  22.8819978  91.8160014
 131.0159992  24.3509978  92.0680014 132.2259992  24.4829978  90.2390014
 131.4819992  25.0649978  89.6540014 132.6939992  23.7399978  89.5590014
 133.2389992  25.3719978  90.9030014 133.8299992  24.6539978  91.5100014
 132.6369992  26.0529978  91.5440014 134.1269992  26.1739978  89.9610014
 134.8679992  25.5249978  89.4470014 134.6429992  26.8439978  90.6820014
 133.4829992  27.0519978  88.9170014 133.9379992  28.0599978  89.0290014
 132.4209992  27.1279978  89.2330014 133.6389992  26.5319978  87.4510014
 132.8749992  25.7459978  87.2730014 134.6479992  26.0749978  87.3570014
 133.3179992  27.6449978  86.4560014 133.8169992  28.5849978  86.7730014
 132.2229992  27.8309978  86.4660014 133.7179992  27.2689978  85.0200014
 133.1439992  26.4159978  84.5980014 134.8139992  27.1149978  84.9320014
 133.6959992  28.0929978  84.2750014  34.4429992 132.8889978  86.1100014
  35.4399992 132.4519978  86.3330014  34.1179992 132.8269978  85.0490014
  33.7719992 132.2239978  86.6950014  34.2639992 134.3279978  86.5910014
  33.1919992 134.6019978  86.4870014  34.5759992 134.2869978  87.6570014
  35.1689992 135.4009978  85.9350014  36.1579992 134.9089978  86.0510014
  34.9929992 135.5009978  84.8420014  35.0309992 136.7479978  86.6260014
  35.3759992 137.5019978  85.8870014  33.9959992 136.8859978  87.0070014
  36.0339992 136.9329978  87.7550014  35.9139992 136.1329978  88.5160014
  37.0689992 136.8329978  87.3630014  35.8119992 138.2719978  88.5710014
  36.8149992 138.6989978  88.7860014  35.1799992 139.0319978  88.0630014
  35.1549992 138.0119978  89.9930014  34.0549992 137.8859978  89.8990014
  35.6349992 137.1399978  90.4880014  35.2759992 139.2779978  90.8820014
  36.3429992 139.4649978  91.1310014  34.8659992 140.1799978  90.3800014
  34.6289992 138.9899978  92.1980014  33.5179992 138.9749978  92.1760014
  35.0889992 138.0279978  92.5100014  35.1259992 140.0149978  93.3220014
  36.2159992 140.2259978  93.2980014  34.6129992 140.9949978  93.2220014
  34.8289992 139.6209978  94.7520014  35.0939992 138.5669978  94.9810014
  35.3009992 140.3869978  95.4030014  33.4119992 139.4799978  95.1010014
  32.8909992 140.4099978  94.7890014  32.9259992 138.6069978  94.6140014
  33.2689992 139.2759978  96.6050014  33.9759992 140.0439978  96.9850014
  32.1949992 139.4549978  96.8270014  33.5289992 137.8299978  97.1700014
  32.5969992 137.2859978  96.9070014  34.3939992 137.2419978  96.7970014
  33.5969992 137.7429978  98.7410014  34.4539992 138.2729978  99.2090014
  32.7019992 138.1749978  99.2400014  33.6399992 136.2949978  99.3350014
  33.4279992 135.3269978  98.6630014  33.9219992 136.3649978 100.6430014
  33.7829992 135.1389978 101.4030014  33.0819992 135.3489978 102.2390014
  33.3489992 134.2919978 100.8300014  35.2149992 134.7799978 102.0120014
  35.1589992 133.8219978 102.5720014  35.7849992 135.9109978 102.9180014
  35.7209992 136.9059978 102.4280014  35.0909992 135.8799978 103.7860014
  37.0939992 135.6459978 103.3010014  37.7819992 136.7949978 104.2440014
  38.3789992 137.8569978 103.2530014  39.3569992 137.5449978 102.2080014
  40.0349992 138.3919978 101.9710014  40.0769992 136.7529978 102.5050014
  38.6389992 137.0399978 100.8850014  39.3649992 136.4089978 100.3940014
  37.8719992 136.2939978 101.0330014  38.1289992 138.0519978  99.8580014
  37.0659992 138.9569978 100.6030014  36.1959992 138.3599978 100.8340014
  37.4979992 139.4889978 101.4380014  36.6729992 139.6899978  99.9140014
  39.2729992 138.9229978  99.3540014  39.5859992 139.5429978 100.1800014
  40.0759992 138.3439978  98.9220014  38.8929992 139.6299978  98.6310014
  37.4429992 137.3349978  98.7360014  37.0749992 138.0889978  98.0560014
  36.6519992 136.6779978  99.0670014  38.0639992 136.7529978  98.0720014
  36.7139992 137.4989978 104.9620014  38.8139992 136.1799978 105.1030014
  36.1129992 134.5359978 100.9720014  35.8309992 133.4949978 100.1430014
  34.9499992 132.6959978 100.3260014  36.8399992 133.5219978  99.0250014
  37.7869992 133.0769978  99.3980014  37.0549992 134.5769978  98.7510014
  36.3829992 132.7309978  97.7960014  35.7499992 131.8779978  98.1230014
  37.2529992 132.3889978  97.1960014  35.6749992 133.6329978  96.8140014
  36.3579992 134.5049978  96.7360014  34.7469992 133.8619978  97.3790014
  35.4959992 132.9009978  95.5070014  35.0339992 131.8909978  95.5000014
  36.5029992 132.8269978  95.0450014  34.6009992 133.7379978  94.5560014
  33.6089992 133.7449978  95.0560014  34.3649992 133.3119978  93.5570014
  35.0459992 135.1349978  94.2820014  34.9229992 135.7489978  95.2000014
  34.2969992 135.5729978  93.5890014  36.4079992 135.3509978  93.5770014
  37.2039992 134.9389978  94.2340014  36.6749992 136.4289978  93.6070014
  36.4689992 134.7349978  92.2110014  35.5059992 134.5079978  91.7290014
  37.6539992 134.5839978  91.5350014  37.6899992 134.2279978  90.4950014
  39.0089992 135.0589978  92.0600014  39.6519992 134.1559978  92.1370014
  38.9299992 135.5299978  93.0630014  39.6489992 136.0219978  91.0550014
  40.6959992 136.2819978  91.3230014  39.0619992 136.9589978  90.9520014
  39.8139992 135.2399978  89.6840014  38.8129992 135.1889978  89.2050014
  40.0349992 134.1949978  89.9870014  40.9799992 135.8629978  88.7700014
  41.9869992 135.6959978  89.2090014  40.9569992 136.9559978  88.5720014
  41.0819992 135.3749978  87.3270014  41.0029992 134.2669978  87.3030014
  42.1169992 135.4819978  86.9380014  40.0939992 136.0209978  86.4040014
  40.1219992 137.1299978  86.4600014  39.0539992 135.7109978  86.6430014
  40.4299992 135.7849978  84.9180014  41.4139992 136.2579978  84.7160014
  39.7089992 136.2429978  84.2080014  40.6229992 134.3589978  84.4480014
  40.8559992 134.1929978  83.3740014  39.6879992 133.7879978  84.6270014
  41.5339992 133.8659978  84.8500014 104.0399992 143.0249978  83.5700014
 104.3639992 143.7299978  82.7750014 103.0529992 142.5439978  83.3980014
 104.8329992 142.2629978  83.7270014 103.9419992 143.8359978  84.9050014
 104.7729992 144.5689978  84.8230014 103.0089992 144.4359978  84.9690014
 104.1829992 142.9939978  86.1110014 105.1429992 142.4389978  86.0330014
 104.1039992 143.6529978  87.0020014 103.0699992 141.9379978  86.3180014
 103.2539992 141.2719978  85.4480014 103.1699992 141.2479978  87.1820014
 101.5929992 142.4039978  86.1830014 101.3769992 142.8059978  85.1700014
 100.9699992 141.4989978  86.3460014 101.2379992 143.4009978  87.2620014
 101.5889992 143.2069978  88.2980014 101.6959992 144.3759978  86.9910014
  99.7639992 143.6529978  87.3810014  99.4349992 143.8169978  86.3330014
  99.1579992 142.8369978  87.8310014  99.4219992 144.9679978  88.1230014
  99.8479992 144.9179978  89.1480014  99.9749992 145.7909978  87.6220014
  98.0069992 145.3729978  88.0960014  97.9389992 146.4809978  88.1440014
  97.4939992 145.0609978  87.1610014  97.1349992 144.6619978  89.1870014
  96.0609992 144.8889978  89.0140014  97.2059992 143.5919978  88.8940014
  97.4559992 144.9049978  90.7060014  96.9849992 144.1329978  91.3510014
  98.5559992 145.0469978  90.7810014  96.6559992 146.1739978  91.0920014
  96.8729992 147.0169978  90.4020014  95.6049992 145.8149978  91.1040014
  96.9969992 146.6299978  92.5820014  97.9069992 146.0889978  92.9180014
  97.2609992 147.7019978  92.4570014  95.9529992 146.5089978  93.7170014
  95.3969992 147.4699978  93.7700014  95.1979992 145.7689978  93.3740014
  96.5929992 146.1199978  95.0010014  97.5199992 146.7229978  95.1130014
  96.0419992 146.3899978  95.9270014  96.9619992 144.6529978  95.1190014
  96.6299992 143.7289978  94.3390014  97.6689992 144.4989978  96.1690014
  97.9379992 143.1679978  96.6550014  97.1759992 142.9879978  97.4430014
  97.7409992 142.3559978  95.9220014  99.3389992 143.1199978  97.1570014
  99.6069992 142.1109978  97.5350014  99.5249992 144.1749978  98.3510014
  99.1429992 145.1519978  97.9860014  98.7399992 143.9249978  99.0970014
 100.8449992 144.2789978  98.8970014 101.3229992 143.5789978 100.1870014
 100.1829992 144.1419978 101.3570014 100.1249992 145.5189978 101.6120014
 101.0149992 146.0409978 101.2010014  99.1969992 145.8809978 101.1210014
  99.9039992 145.7519978 103.0620014  99.7969992 146.8169978 103.2050014
  98.9729992 145.3139978 103.3900014 101.0459992 145.4679978 104.0110014
 100.6779992 146.0169978 105.3240014  99.8629992 145.4549978 105.7570014
 101.5689992 145.9879978 105.9340014 100.4689992 147.0759978 105.3380014
 101.3739992 144.0209978 104.1110014 101.5829992 143.6549978 103.1170014
 102.0729992 143.9079978 104.9270014 100.4419992 143.5369978 104.3620014
 102.2699992 146.2949978 103.5050014 102.0119992 147.3409978 103.5740014
 102.3469992 145.9969978 102.4700014 103.1259992 146.0489978 104.1160014
 101.0869992 142.1309978 100.0370014 102.6739992 144.1299978 100.4020014
 100.1679992 143.3939978  96.0280014 101.4559992 143.0559978  95.9960014
 102.0539992 142.3939978  96.8540014 102.1669992 143.4179978  94.6650014
 102.5859992 142.4779978  94.2460014 103.0269992 144.0459978  94.9820014
 101.2439992 144.0529978  93.6730014 100.5929992 144.7899978  94.1910014
 100.5499992 143.3439978  93.1730014 101.9889992 144.8089978  92.6160014
 101.9829992 144.1229978  91.7420014 102.9539992 145.1849978  93.0190014
 101.3559992 146.1299978  92.1250014 101.1279992 146.7509978  93.0180014
 100.4699992 145.8839978  91.5020014 102.3489992 146.8539978  91.1520014
 103.2719992 146.9229978  91.7660014 102.0239992 147.8989978  90.9550014
 102.5859992 146.2859978  89.7340014 101.7119992 146.1839978  89.0560014
 102.9209992 145.2349978  89.8690014 103.7969992 146.9889978  89.0070014
 104.1899992 146.4969978  88.0910014 104.6839992 147.0129978  89.6750014
 103.4189992 148.3929978  88.5710014 103.9509992 149.1369978  89.1830014
 102.4969992 148.7289978  87.6560014 102.3409992 149.7579978  87.3000014
 101.7529992 147.7489978  86.8240014 100.7579992 147.7229978  87.3180014
 102.2639992 146.7809978  87.0170014 101.6289992 148.0569978  85.2950014
 102.6069992 147.9519978  84.7780014 101.2849992 149.1059978  85.1760014
 100.5679992 147.1619978  84.6280014 100.8109992 146.0929978  84.8090014
 100.5889992 147.4669978  83.5600014  99.0949992 147.5199978  85.0180014
  98.8389992 148.5379978  84.6540014  98.9409992 147.5199978  86.1180014
  98.1059992 146.6219978  84.2380014  98.1899992 145.5799978  84.6130014
  98.4109992 146.6809978  83.1710014  96.6329992 147.0749978  84.4870014
  96.5349992 147.0889978  85.5940014  95.9549992 146.3109978  84.0490014
  96.1309992 148.4399978  83.9450014  96.6939992 149.1619978  84.5740014
  95.0379992 148.5199978  84.1320014  96.4209992 148.5949978  82.4470014
  96.1939992 149.6199978  82.0840014  95.7549992 147.8909978  81.9040014
  97.4939992 148.4669978  82.1880014  31.9069992  17.9669978  80.2130014
  31.9539992  18.8549978  79.5470014  31.8479992  17.0449978  79.5950014
  32.9209992  17.9909978  80.6660014  30.8079992  18.1769978  81.3320014
  31.0239992  19.1439978  81.8340014  29.8519992  18.2309978  80.7690014
  30.6519992  17.0399978  82.3480014  29.7179992  17.1649978  82.9360014
  30.5379992  16.0699978  81.8190014  31.7719992  16.9769978  83.3610014
  32.7309992  16.9099978  82.8040014  31.9869992  17.8419978  84.0240014
  31.6679992  15.7509978  84.2750014  31.7579992  14.7449978  83.8110014
  32.5739992  15.8589978  84.9070014  30.5119992  15.8439978  85.2620014
  30.5109992  16.9359978  85.4690014  29.5199992  15.6059978  84.8230014
  30.7709992  15.1759978  86.6390014  30.8139992  14.0729978  86.5150014
  31.8139992  15.4299978  86.9260014  29.9259992  15.8179978  87.7260014
  30.0809992  16.9139978  87.8110014  28.8519992  15.7379978  87.4490014
  30.2699992  15.1979978  89.1170014  30.4369992  14.0989978  89.0920014
  31.2269992  15.5909978  89.5210014  29.0749992  15.3869978  90.0760014
  28.1009992  15.3599978  89.5430014  29.3309992  14.6299978  90.8470014
  29.1189992  16.7229978  90.7730014  30.0859992  16.8849978  91.2950014
  28.8879992  17.4439978  89.9600014  28.0519992  16.9049978  91.8740014
  27.0519992  16.8869978  91.3890014  28.0579992  16.0159978  92.5400014
  28.1279992  18.2629978  92.5350014  29.0879992  18.2909978  93.0930014
  28.1119992  19.1269978  91.8370014  27.1199992  18.5099978  93.6950014
  26.1159992  18.7819978  93.3060014  27.0159992  17.5849978  94.3010014
  27.6579992  19.6789978  94.6050014  28.7459992  19.6059978  94.8210014
  27.5439992  20.6079978  94.0080014  26.9379992  19.9919978  95.9170014
  25.9099992  19.5209978  96.3810014  27.8009992  20.7569978  96.5780014
  27.6369992  21.2919978  97.8790014  28.4549992  22.0139978  98.0850014
  26.6749992  21.8129978  98.0730014  27.9309992  20.1769978  98.9190014
  27.0019992  19.5749978  99.0130014  28.1869992  20.7469978 100.3340014
  28.6909992  21.7139978 100.1200014  27.2289992  20.9239978 100.8660014
  28.9839992  19.8089978 101.1170014  30.1719992  20.3209978 102.0510014
  30.6589992  19.0779978 102.8510014  29.7839992  17.8379978 102.8930014
  29.8999992  17.5129978 103.9490014  28.7239992  18.1059978 102.6970014
  30.1329992  16.7929978 101.8880014  29.5239992  15.9019978 101.9360014
  29.9739992  17.1289978 100.8740014  31.5629992  16.2739978 101.8940014
  32.4769992  17.4689978 101.6590014  32.2349992  17.9139978 100.7050014
  32.2499992  18.2629978 102.3560014  33.5059992  17.1709978 101.7940014
  31.9049992  15.6129978 103.2090014  31.5129992  16.2209978 104.0120014
  31.5229992  14.6189978 103.0310014  32.9509992  15.7709978 103.4240014
  31.6389992  15.2139978 100.7990014  32.6549992  14.8479978 100.8240014
  31.4409992  15.6529978  99.8330014  30.9139992  14.5009978 101.1640014
  31.3129992  20.7659978 101.2190014  29.7289992  21.4309978 102.9240014
  29.0389992  19.3629978  98.3620014  28.8549992  18.0849978  98.6910014
  28.0059992  17.6249978  99.4070014  29.9359992  17.2339978  98.0200014
  29.8149992  16.1679978  98.3100014  30.8979992  17.5799978  98.4550014
  30.0379992  17.5269978  96.4600014  30.2399992  18.5689978  96.1350014
  29.0109992  17.3199978  96.0900014  31.0359992  16.6389978  95.7450014
  30.6049992  15.6169978  95.6890014  31.9279992  16.5959978  96.4060014
  31.5449992  16.9819978  94.3370014  30.5899992  16.9109978  93.7740014
  32.3399992  16.2629978  94.0440014  31.9859992  18.4479978  94.1700014
  32.6899992  18.6519978  95.0050014  31.1299992  19.0979978  94.4520014
  32.4499992  18.9319978  92.8060014  31.6979992  18.8239978  91.9960014
  33.3399992  18.3629978  92.4610014  32.8129992  20.4099978  92.7760014
  33.3119992  20.6379978  91.8090014  33.5209992  20.6579978  93.5960014
  31.6139992  21.2889978  92.7840014  31.1789992  21.4039978  93.7880014
  30.9159992  21.8559978  91.7910014  29.9699992  22.3669978  92.0210014
  31.1969992  21.6769978  90.2610014  32.2939992  21.6619978  90.0870014
  30.7449992  22.4849978  89.6470014  30.7159992  20.3729978  89.5950014
  29.6119992  20.2689978  89.6580014  31.1979992  19.4919978  90.0710014
  31.0849992  20.3749978  88.1050014  30.7379992  19.4189978  87.6580014
  32.1929992  20.3639978  88.0310014  30.4499992  21.4839978  87.1990014
  30.9939992  21.3929978  86.2350014  30.6649992  22.5169978  87.5490014
  28.8819992  21.4789978  87.0510014  28.6389992  22.5219978  86.7550014
  28.4779992  21.1389978  88.0280014  28.3729992  20.4089978  86.0730014
  29.0629992  20.2929978  85.2100014  27.3579992  20.7019978  85.7310014
  28.1709992  19.0709978  86.7820014  27.5719992  19.2209978  87.7050014
  29.1599992  18.5849978  86.9220014  27.4369992  18.0709978  85.8810014
  28.0369992  17.7369978  85.0070014  26.5349992  18.5849978  85.4870014
  27.0129992  17.2519978  86.5000014 128.6249992 132.3849978  85.0130014
 128.1629992 133.3609978  84.7510014 129.1099992 131.9949978  84.0930014
 129.3369992 132.5679978  85.8460014 127.4679992 131.4419978  85.4010014
 127.1629992 131.4389978  86.4690014 126.5789992 131.7159978  84.7940014
 127.8389992 129.9539978  85.1050014 126.8919992 129.3939978  85.2610014
 128.1539992 129.7929978  84.0520014 128.9999992 129.3019978  85.9630014
 129.1519992 128.2619978  85.6020014 129.9589992 129.8379978  85.8000014
 129.0249992 129.2889978  87.4820014 129.8379992 128.6369978  87.8650014
 129.2609992 130.3079978  87.8570014 127.7929992 128.5829978  88.0620014
 126.8069992 128.9979978  87.7620014 127.8369992 127.5649978  87.6210014
 127.9169992 128.5079978  89.6190014 127.0959992 127.9319978  90.0970014
 128.9069992 128.0339978  89.7870014 127.8439992 129.9809978  90.2980014
 127.9679992 129.8179978  91.3900014 128.7129992 130.5499978  89.9030014
 126.6019992 130.7799978  89.9580014 126.2079992 130.7149978  88.9210014
 125.8549992 130.4629978  90.7170014 126.7519992 132.2869978  90.4190014
 127.5549992 132.7959978  89.8440014 125.7699992 132.6979978  90.1020014
 126.9179992 132.4199978  91.9400014 126.2979992 131.6469978  92.4420014
 128.0019992 132.2219978  92.0840014 126.6709992 133.8109978  92.5060014
 127.1609992 134.5669978  91.8560014 125.6529992 134.1509978  92.7950014
 127.3499992 133.9239978  93.8460014 128.3269992 133.3949978  93.8770014
 127.6069992 134.9949978  93.9980014 126.5149992 133.5419978  95.0970014
 126.3749992 134.4709978  95.6890014 125.5209992 133.1009978  94.8680014
 127.3069992 132.6909978  96.1290014 128.3639992 132.9729978  96.3200014
 126.6489992 132.6319978  97.0220014 127.4379992 131.2149978  95.6530014
 126.8239992 130.8359978  94.6970014 128.3929992 130.5579978  96.3250014
 128.7399992 129.2659978  95.8200014 127.8709992 128.5739978  95.8500014
 129.1059992 129.3169978  94.7730014 129.8409992 128.5689978  96.6650014
 129.9529992 127.5459978  96.2440014 129.2949992 128.4589978  98.1460014
 128.2079992 128.6839978  98.1230014 129.4309992 127.3959978  98.4390014
 129.9529992 129.3449978  99.0210014 129.2359992 130.2809978 100.0980014
 128.7079992 129.2059978 101.0520014 129.6059992 128.2569978 101.6180014
 129.1209992 127.3289978 101.9870014 130.3789992 127.9889978 100.8660014
 130.4049992 128.8729978 102.7550014 131.0689992 128.0849978 103.0780014
 130.9269992 129.7629978 102.4360014 129.7849992 129.3059978 104.0630014
 128.9459992 128.1239978 104.6040014 129.6019992 127.2659978 104.6040014
 128.7229992 128.3259978 105.6410014 128.1209992 127.9969978 103.9190014
 130.8739992 129.6429978 105.1190014 131.3359992 130.5849978 104.8650014
 130.4029992 129.7779978 106.0820014 131.6259992 128.8679978 105.0920014
 128.8809992 130.4759978 103.9010014 127.9099992 130.1539978 103.5540014
 129.1239992 131.1839978 103.1240014 128.6789992 130.9689978 104.8410014
 130.2209992 131.0719978 100.7230014 128.0399992 131.0019978  99.5520014
 131.0529992 129.2939978  96.5570014 132.1759992 128.6649978  96.8030014
 132.2799992 127.5269978  97.3250014 133.3869992 129.5679978  96.4200014
 133.2599992 129.8709978  95.3590014 134.3499992 129.0169978  96.3650014
 133.5339992 130.8129978  97.2540014 134.6069992 131.0889978  97.1670014
 133.2059992 130.6809978  98.3070014 132.7279992 131.9599978  96.7370014
 132.8229992 132.7209978  97.5400014 131.7019992 131.5399978  96.6560014
 133.3509992 132.5959978  95.4930014 133.5059992 131.8589978  94.6760014
 134.3789992 132.8509978  95.8280014 132.4869992 133.7339978  94.9400014
 132.7699992 134.7309978  95.3430014 131.4409992 133.5069978  95.2350014
 132.2949992 133.7909978  93.3690014 133.2319992 133.9929978  92.8070014
 131.6809992 134.6949978  93.1690014 131.4039992 132.6769978  92.8440014
 130.4519992 132.6619978  93.4170014 131.8709992 131.7069978  93.1210014
 131.1429992 132.8409978  91.3720014 130.6029992 133.7729978  91.1470014
 131.5579992 132.0379978  90.3450014 131.3129992 132.4539978  89.3570014
 132.4169992 130.8209978  90.4650014 133.1479992 130.9469978  91.2930014
 133.1189992 130.8319978  89.6040014 131.6799992 129.4319978  90.4350014
 131.2669992 129.2529978  89.4190014 130.8269992 129.5209978  91.1410014
 132.5309992 128.2059978  90.7700014 131.8479992 127.3349978  90.8680014
 133.0719992 128.3509978  91.7290014 133.6289992 127.6869978  89.6930014
 133.9749992 126.6879978  90.0330014 134.4949992 128.3829978  89.6850014
 133.0599992 127.4539978  88.2540014 132.4829992 128.3479978  87.9310014
 132.2859992 126.6739978  88.0910014 134.1039992 127.2339978  87.1940014
 134.3999992 126.1879978  87.4260014 134.9289992 127.9579978  87.3690014
 133.6379992 127.5959978  85.7430014 134.5099992 127.5229978  85.0590014
 133.2499992 128.6359978  85.7650014 132.6439992 126.5849978  85.1330014
 132.5859992 126.6139978  84.0240014 131.6519992 126.8579978  85.5540014
 132.7949992 125.5639978  85.5440014 112.7909992 142.5579978  82.5320014
 113.5479992 142.8079978  83.3060014 112.7139992 143.3919978  81.8020014
 113.2939992 141.7239978  81.9980014 111.5079992 141.8879978  82.9400014
 110.8019992 141.8009978  82.0870014 111.8359992 140.8919978  83.3060014
 110.8169992 142.6119978  84.0270014 111.5299992 142.6579978  84.8780014
 110.4259992 143.5849978  83.6620014 109.4999992 141.9719978  84.5220014
 109.0709992 142.6399978  85.2990014 108.7679992 142.0289978  83.6880014
 109.7869992 140.5769978  85.0520014 109.3079992 139.7239978  84.5260014
 110.8709992 140.3439978  85.1270014 109.2909992 140.3659978  86.4780014
 109.7519992 139.3729978  86.6680014 109.7399992 141.0689978  87.2120014
 107.7789992 140.2299978  86.6500014 107.1749992 141.0829978  86.2740014
 107.3539992 139.3279978  86.1600014 107.4459992 140.1099978  88.2020014
 107.8199992 139.1749978  88.6720014 108.0099992 140.8729978  88.7780014
 105.9429992 140.4009978  88.5540014 105.5629992 141.2569978  87.9560014
 105.3319992 139.5109978  88.2900014 105.7269992 140.7039978  90.0950014
 106.0779992 141.7389978  90.2950014 104.6369992 140.8149978  90.2800014
 106.3489992 139.6619978  91.0690014 105.8629992 138.6669978  90.9760014
 107.4299992 139.5029978  90.8680014 106.1899992 140.0069978  92.5280014
 105.1019992 139.9919978  92.7510014 106.6549992 139.1299978  93.0270014
 106.7169992 141.2959978  93.1130014 107.6049992 141.6399978  92.5410014
 105.9839992 142.1249978  93.0180014 107.2949992 141.1769978  94.4970014
 108.1619992 140.4959978  94.6370014 107.5639992 142.1879978  94.8720014
 106.2969992 140.7099978  95.5780014 105.3969992 141.3309978  95.3810014
 106.1489992 139.6409978  95.3140014 106.7709992 140.9239978  96.9660014
 106.0229992 140.9099978  97.9590014 108.1109992 141.1119978  97.0890014
 108.6359992 141.7169978  98.2600014 107.9349992 142.2509978  98.9370014
 109.1659992 140.9489978  98.8630014 109.6509992 142.7449978  97.7670014
 110.2699992 142.2909978  96.9630014 110.5759992 143.3289978  98.9410014
 111.2449992 142.4739978  99.1800014 111.0989992 144.1389978  98.3900014
 109.8509992 143.7789978 100.0940014 110.5809992 144.4259978 101.2750014
 109.7949992 143.8439978 102.4770014 108.4159992 143.6289978 102.5260014
 108.0529992 143.8089978 103.5610014 107.9539992 144.2719978 101.7470014
 108.0639992 142.1979978 102.0670014 107.0139992 141.9839978 102.2050014
 108.1359992 142.0639978 100.9980014 108.9339992 141.0169978 102.7290014
 108.9839992 141.1739978 104.1970014 109.3429992 140.2579978 104.6420014
 109.7199992 141.9379978 104.3960014 108.0099992 141.5019978 104.5300014
 108.1949992 139.7259978 102.4470014 107.1999992 139.7929978 102.8610014
 108.0159992 139.7269978 101.3810014 108.6909992 138.7769978 102.5880014
 110.3959992 140.9009978 102.0880014 110.2669992 140.6459978 101.0460014
 110.8009992 140.0169978 102.5570014 110.9269992 141.8239978 102.2660014
 111.9649992 143.8589978 101.2770014 110.4089992 145.9019978 101.3300014
 108.9509992 143.8259978  97.1600014 109.6499992 144.7989978  96.5830014
 110.7979992 144.7509978  96.1900014 108.7659992 146.0749978  96.5390014
 109.3299992 146.8779978  96.0160014 108.4609992 146.3689978  97.5660014
 107.4969992 145.8549978  95.6840014 106.9819992 146.8299978  95.8210014
 106.7909992 145.0709978  96.0330014 107.8549992 145.5699978  94.2930014
 108.1529992 144.5129978  94.1250014 108.6439992 146.1839978  93.8080014
 106.7389992 145.8399978  93.2300014 106.0649992 146.6439978  93.5940014
 106.1919992 144.8789978  93.1230014 107.2009992 146.2029978  91.8380014
 108.1649992 146.6929978  92.0910014 106.4589992 146.8379978  91.3080014
 107.4639992 145.0769978  90.8390014 107.5949992 145.6359978  89.8880014
 106.5219992 144.4909978  90.7760014 108.6359992 143.9979978  91.0290014
 108.3939992 143.2759978  90.2200014 108.4789992 143.4709978  91.9940014
 109.9249992 144.7119978  91.0880014 109.7509992 145.5179978  91.8170014
 111.0589992 144.6269978  90.3460014 111.8359992 145.3579978  90.6150014
 111.2499992 143.6539978  89.3020014 110.3299992 143.0789978  89.0670014
 112.0269992 142.9119978  89.5850014 111.4959992 144.2359978  87.8830014
 111.4009992 143.4069978  87.1490014 112.4709992 144.7679978  87.8840014
 110.3539992 145.1699978  87.2150014 109.9799992 146.0299978  87.8090014
 109.4479992 144.5669978  86.9920014 110.7809992 145.8189978  85.8570014
 111.4399992 145.0829978  85.3490014 111.3759992 146.7429978  86.0190014
 109.6589992 146.1589978  84.9960014 109.0489992 147.0219978  85.3410014
 108.9839992 145.2779978  85.0290014 110.1469992 146.4499978  83.6260014
 110.5589992 145.4539978  83.3560014 111.0899992 147.0209978  83.7600014
 109.2789992 147.0289978  82.5170014 109.9819992 147.2789978  81.6940014
 108.9659992 148.0299978  82.8840014 108.2059992 146.0529978  82.0190014
 108.6699992 145.2739978  81.3760014 107.4419992 146.6129978  81.4400014
 107.6839992 145.5099978  82.8360014 140.2499992 118.0039978  83.4380014
 140.1659992 116.9349978  83.1500014 141.2889992 118.1869978  83.7860014
 140.1429992 118.7699978  82.6400014 139.3339992 118.2819978  84.5950014
 139.3819992 119.3719978  84.8070014 138.2999992 117.9829978  84.3170014
 139.5849992 117.4639978  85.8680014 139.2419992 116.4079978  85.8180014
 140.6619992 117.5139978  86.1350014 138.7649992 118.0289978  87.1460014
 138.8479992 119.1359978  87.2010014 137.6889992 117.9219978  86.8890014
 139.0339992 117.3099978  88.4070014 138.7549992 116.2409978  88.2880014
 140.1229992 117.3679978  88.6190014 138.2969992 117.7909978  89.6460014
 138.5409992 118.8579978  89.8340014 137.1879992 117.7459978  89.5960014
 138.5439992 116.9859978  90.9540014 138.0979992 115.9719978  90.8690014
 139.6339992 116.8159978  91.0900014 138.1359992 117.8219978  92.1820014
 138.5999992 118.8219978  92.0410014 137.0359992 117.9319978  92.0730014
 138.5589992 117.1819978  93.4780014 139.6639992 117.1089978  93.5690014
 138.2499992 117.9499978  94.2190014 137.6739992 115.9099978  93.7110014
 136.7249992 116.0779978  93.1590014 138.1939992 115.0719978  93.1990014
 137.3599992 115.4589978  95.1030014 137.0939992 116.3149978  95.7590014
 136.3749992 114.9469978  95.0790014 138.3479992 114.6039978  95.8270014
 138.4849992 113.6709978  95.2390014 139.2969992 115.1579978  95.9870014
 137.6809992 114.1299978  97.1060014 137.2349992 115.0149978  97.6070014
 136.8289992 113.5049978  96.7650014 138.6419992 113.3309978  98.1150014
 138.0699992 112.5499978  98.6610014 139.3949992 112.7929978  97.5010014
 139.4489992 114.2749978  99.0750014 140.0349992 115.0309978  98.5090014
 138.8209992 114.8379978  99.7980014 140.4699992 113.4029978  99.8670014
 140.5349992 112.1839978  99.9830014 141.2999992 114.2719978 100.5500014
 142.1139992 113.5489978 101.5710014 141.5649992 112.7109978 102.0510014
 142.9569992 113.1519978 100.9650014 142.5389992 114.4999978 102.6730014
 143.1869992 113.8789978 103.3270014 141.4629992 115.1779978 103.4740014
 140.7719992 114.4989978 104.0170014 141.9199992 115.7299978 104.3230014
 140.7999992 116.0389978 102.5260014 139.5529992 116.8299978 103.0080014
 139.3559992 118.1219978 102.0400014 140.0469992 118.0819978 100.7670014
 140.2479992 117.1089978 100.2680014 139.4269992 118.6169978 100.0170014
 141.4719992 118.8039978 100.8420014 142.1479992 118.1129978 101.3230014
 141.8119992 118.7979978  99.8170014 141.5919992 120.2169978 101.4000014
 141.5459992 120.1939978 102.8860014 141.5259992 121.1989978 103.2820014
 140.7029992 119.5809978 103.1700014 142.4339992 119.7829978 103.3420014
 142.9829992 120.7269978 101.0490014 143.2269992 120.5329978 100.0140014
 143.1759992 121.7699978 101.2490014 143.5869992 120.0189978 101.5980014
 140.5029992 121.0479978 100.7510014 139.5999992 120.6429978 101.1830014
 140.5099992 120.8659978  99.6860014 140.5949992 122.1119978 100.9140014
 138.3159992 116.0079978 102.8700014 139.8649992 117.3239978 104.3670014
 143.2329992 115.7139978 102.1990014 144.4879992 115.4339978 101.7320014
 145.1359992 114.4589978 102.0070014 144.7989992 116.4879978 100.7710014
 145.8709992 116.4339978 100.4860014 144.7799992 117.4969978 101.2350014
 143.9659992 116.3679978  99.4500014 142.8699992 116.1879978  99.4710014
 144.4199992 115.5909978  98.7980014 144.0799992 117.6599978  98.5970014
 145.1479992 117.8199978  98.3380014 143.6569992 118.4289978  99.2780014
 143.0489992 117.8759978  97.4370014 143.0529992 118.9519978  97.1610014
 142.0949992 117.5129978  97.8760014 143.3539992 117.0169978  96.1840014
 143.3479992 115.9259978  96.3890014 144.3919992 117.2839978  95.8900014
 142.4129992 117.2459978  94.9860014 142.2539992 118.3189978  94.7470014
 141.4269992 116.8489978  95.3100014 142.6299992 116.3109978  93.7350014
 141.7699992 116.2879978  93.0320014 142.6819992 115.2819978  94.1510014
 143.8729992 116.9149978  93.2020014 144.7879992 116.5709978  93.7050014
 143.9539992 117.7779978  92.1010014 144.8999992 118.2959978  91.8840014
 142.7539992 118.2349978  91.2270014 142.5349992 119.3179978  91.3490014
 141.7629992 117.7579978  91.3830014 143.2319992 118.0079978  89.7730014
 144.2069992 118.5329978  89.6780014 142.4799992 118.5139978  89.1310014
 143.4379992 116.5859978  89.3450014 142.4819992 116.0299978  89.4490014
 144.2879992 116.1709978  89.9280014 143.5919992 116.5769978  87.8120014
 144.3269992 117.3429978  87.4860014 142.6589992 116.7009978  87.2200014
 144.1269992 115.1179978  87.4650014 143.4929992 114.3839978  88.0060014
 145.1289992 114.8639978  87.8710014 144.1849992 114.7859978  85.9720014
 144.7199992 115.6669978  85.5570014 143.1659992 114.8829978  85.5410014
 144.7309992 113.4429978  85.5720014 145.7679992 113.4609978  85.9700014
 144.8749992 113.4059978  84.4710014 143.8399992 112.3139978  86.0830014
 142.8769992 112.4289978  85.5410014 143.5689992 112.3389978  87.1610014
 144.3359992 111.3569978  85.8150014   7.1949992 107.4469978  82.9460014
   6.5529992 106.5799978  82.6790014   8.1299992 107.4499978  82.3450014
   6.6609992 108.3989978  82.7410014   7.5139992 107.3849978  84.4750014
   6.5949992 107.4179978  85.0980014   8.1169992 106.4619978  84.6170014
   8.2909992 108.5779978  84.9140014   9.3229992 108.6099978  84.5060014
   7.8159992 109.5459978  84.6490014   8.5439992 108.6929978  86.4620014
   9.1889992 107.8299978  86.7340014   9.0789992 109.6439978  86.6700014
   7.2799992 108.7629978  87.2690014   6.5369992 109.3869978  86.7290014
   6.9329992 107.7069978  87.2520014   7.5589992 109.1519978  88.8130014
   8.5569992 108.9239978  89.2440014   7.5149992 110.2559978  88.6900014
   6.3259992 108.6999978  89.6880014   5.3879992 109.1939978  89.3560014
   6.2279992 107.6109978  89.4890014   6.4889992 108.8359978  91.2300014
   7.3199992 108.1609978  91.5280014   6.5809992 109.8949978  91.5510014
   5.2489992 108.3289978  91.9410014   5.1919992 108.8759978  92.9070014
   4.3629992 108.6419978  91.3490014   5.0329992 106.7699978  91.9820014
   5.4249992 106.4199978  91.0040014   5.6239992 106.2509978  92.7670014
   3.5309992 106.3479978  92.1330014   2.9509992 106.9159978  91.3740014
   3.5569992 105.2629978  91.8970014   2.9979992 106.7309978  93.4510014
   3.7009992 106.2939978  94.1920014   3.2159992 107.8199978  93.4610014
   1.5259992 106.4359978  93.7750014   0.8849992 106.9509978  93.0280014
   1.2829992 105.3579978  93.6610014   1.1119992 106.8309978  95.2150014
   0.0139992 106.8969978  95.3670014   1.3869992 105.8329978  95.6190014
   1.8769992 107.8929978  96.0330014   2.9729992 107.7739978  95.8980014
   1.5739992 108.8879978  95.6430014   1.4599992 107.7309978  97.4840014
   0.4969992 108.2189978  98.0040014   2.2249992 106.8079978  97.8920014
   2.2889992 106.7019978  99.3190014   2.8319992 107.5889978  99.7100014
   1.2549992 106.5299978  99.6880014   3.0789992 105.4229978  99.6890014
   2.5099992 104.6079978  99.1940014   3.2299992 105.2179978 101.1970014
   2.3119992 105.6669978 101.6330014   3.1979992 104.1189978 101.3570014
   4.4479992 105.7599978 101.6820014   4.4389992 106.9119978 102.8510014
   5.9769992 107.5749978 102.7150014   7.0009992 106.6029978 102.6990014
   6.9399992 106.0639978 103.6690014   6.8189992 105.8739978 101.8810014
   8.3069992 107.3309978 102.4650014   8.3969992 108.0659978 103.2520014
   9.0379992 106.5369978 102.5080014   8.6589992 108.1309978 101.1480014
   7.5979992 109.1539978 100.8250014   7.9959992 109.6389978  99.9460014
   6.6529992 108.7719978 100.4690014   7.5439992 109.9239978 101.5800014
   9.9779992 109.0119978 101.2720014   9.8789992 109.8929978 101.8900014
  10.7719992 108.4289978 101.7140014  10.3919992 109.2939978 100.3150014
   8.7919992 107.1189978 100.0300014   9.5579992 106.3889978 100.2460014
   8.9439992 107.6889978  99.1250014   7.9109992 106.5729978  99.7280014
   3.4479992 107.9749978 102.6320014   4.4519992 106.3009978 104.1860014
   4.4109992 105.5389978  99.1240014   5.1409992 104.4449978  99.1450014
   4.7959992 103.2889978  99.3860014   6.6059992 104.7289978  98.7080014
   7.3599992 104.3289978  99.4180014   6.7459992 105.8089978  98.4850014
   6.8969992 103.7789978  97.5150014   7.0499992 102.7639978  97.9400014
   7.9199992 104.1379978  97.2690014   5.8889992 103.9079978  96.3650014
   5.7789992 105.0039978  96.2220014   4.9439992 103.5149978  96.7960014
   6.3209992 103.1579978  95.1080014   6.2789992 102.1119978  95.4790014
   7.3849992 103.3009978  94.8220014   5.4879992 103.2339978  93.8230014
   5.3399992 104.3129978  93.6020014   4.4419992 102.9059978  94.0030014
   6.1909992 102.7669978  92.5230014   6.5149992 101.7199978  92.7030014
   7.1409992 103.3419978  92.5340014   5.3459992 102.7019978  91.1840014
   5.2239992 103.7879978  90.9810014   4.4229992 102.2399978  91.5960014
   5.8759992 101.9479978  89.9580014   6.1369992 100.8829978  90.0460014
   6.1009992 102.4839978  88.7570014   6.5309992 101.8339978  87.9810014
   5.8859992 103.8979978  88.3540014   6.8189992 104.5009978  88.3410014
   5.1839992 104.4259978  89.0340014   5.2539992 103.8679978  86.8160014
   4.3299992 103.2599978  86.7090014   6.0979992 103.5939978  86.1470014
   4.8539992 105.2289978  86.3370014   4.9719992 105.1579978  85.2350014
   5.6359992 105.8879978  86.7720014   3.4189992 105.6819978  86.7650014
   3.1709992 105.3959978  87.8100014   2.6679992 105.1909978  86.1090014
   3.1579992 107.1519978  86.5090014   3.1829992 107.3049978  85.4090014
   4.0099992 107.7669978  86.8690014   1.8769992 107.5959978  87.1330014
   1.7999992 107.2939978  88.1990014   0.9869992 107.0429978  86.7640014
   1.5069992 109.1219978  87.0400014   1.9549992 109.7139978  87.8670014
   0.4049992 109.1139978  87.1810014   1.9859992 109.7099978  85.7320014
   3.0939992 109.7849978  85.7690014   1.5069992 110.7049978  85.6120014
   1.5639992 109.0689978  84.9290014   4.8809992  50.2439978  84.1170014
   4.7599992  51.3479978  84.1450014   3.8749992  49.8319978  84.3470014
   5.1699992  50.0449978  83.0630014   5.9269992  49.6579978  85.0690014
   5.4059992  49.6029978  86.0490014   6.1369992  48.6809978  84.5830014
   7.2129992  50.6099978  85.1840014   7.5279992  50.8479978  84.1460014
   6.8669992  51.5229978  85.7140014   8.3469992  50.0979978  86.0270014
   8.6409992  49.0729978  85.7160014   9.1819992  50.8029978  85.8260014
   8.0839992  49.9779978  87.5590014   7.2269992  49.2729978  87.6170014
   8.9739992  49.4829978  88.0030014   7.9169992  51.4049978  88.2220014
   8.8379992  51.8959978  87.8430014   6.9219992  51.7839978  87.9020014
   7.9899992  51.3279978  89.7650014   6.9649992  51.2909978  90.1930014
   8.5669992  50.4779978  90.1890014   8.6939992  52.5029978  90.4210014
   9.7589992  52.5599978  90.1070014   8.1319992  53.3519978  89.9770014
   8.4829992  52.4979978  91.9530014   8.8899992  53.4789978  92.2800014
   7.4189992  52.4259978  92.2650014   9.2889992  51.3409978  92.6960014
   9.1219992  50.3389978  92.2460014  10.3299992  51.6179978  92.4230014
   8.9589992  51.3259978  94.1870014   7.9449992  51.7689978  94.2820014
   9.1159992  50.2649978  94.4800014  10.0639992  52.1489978  94.9990014
  11.0209992  51.7869978  94.5660014   9.9389992  53.1609978  94.5570014
   9.8309992  52.1119978  96.4900014   9.5669992  51.1779978  97.0300014
  10.7219992  52.5949978  96.9440014   8.7499992  53.0009978  97.0480014
   8.8099992  54.0489978  96.6840014   7.7849992  52.5039978  96.8120014
   8.7679992  53.1029978  98.6320014   8.5979992  52.0909978  99.0570014
   9.7409992  53.5479978  98.9330014   7.5589992  53.9389978  99.1580014
   7.1469992  54.9749978  98.6300014   7.1059992  53.3389978 100.2360014
   5.8679992  53.9899978 100.6960014   5.7499992  53.9499978 101.8000014
   5.7599992  55.0349978 100.3350014   4.7199992  53.1279978 100.1490014
   3.6999992  53.3659978 100.5170014   4.8259992  51.6089978 100.5400014
   5.0459992  51.4429978 101.6160014   3.8669992  51.0849978 100.3390014
   5.9559992  51.1319978  99.8140014   6.3549992  49.6499978  99.9520014
   6.8539992  49.5119978 101.4350014   8.1429992  49.7169978 101.9160014
   8.4799992  48.8049978 102.4540014   8.7839992  49.8629978 101.0200014
   8.2389992  50.9779978 102.7930014   9.2869992  51.1099978 103.0170014
   7.8249992  51.8449978 102.3010014   7.4479992  50.9029978 104.1290014
   6.0169992  51.0579978 103.8910014   5.3699992  51.0239978 104.7550014
   5.8759992  51.9959978 103.3750014   5.6279992  50.3579978 103.1680014
   7.8329992  49.5969978 104.8760014   8.8429992  49.7359978 105.2320014
   7.3049992  49.5729978 105.8170014   7.5629992  48.6989978 104.3400014
   8.0219992  51.9659978 104.8840014   8.2239992  52.7579978 104.1770014
   8.9729992  51.7199978 105.3330014   7.3169992  52.3559978 105.6030014
   5.0969992  48.8559978  99.8530014   7.4279992  49.3039978  98.9640014
   4.7429992  53.4289978  98.6870014   3.6399992  53.0059978  97.9900014
   2.5579992  52.8169978  98.4620014   4.0479992  52.6539978  96.5500014
   5.0349992  52.1469978  96.4960014   4.0129992  53.5899978  95.9540014
   2.9949992  51.7319978  95.9700014   3.0949992  51.9029978  94.8770014
   1.9699992  52.0239978  96.2830014   3.1939992  50.2819978  96.3230014
   2.2719992  49.8079978  95.9230014   3.1849992  50.0109978  97.4000014
   4.3799992  49.5649978  95.5880014   4.4149992  48.5329978  95.9970014
   5.3439992  49.9809978  95.9510014   4.0679992  49.4699978  94.0790014
   3.8729992  50.4819978  93.6660014   3.0379992  49.0659978  93.9780014
   5.0679992  48.5469978  93.1960014   4.7589992  47.4839978  93.1000014
   6.0989992  48.5359978  93.6090014   5.1929992  48.9769978  91.7060014
   5.9929992  48.4949978  91.1040014   5.5059992  50.0379978  91.6020014
   3.8779992  48.7509978  91.0970014   3.2219992  48.1919978  91.7820014
   3.4369992  49.0989978  89.8480014   2.4229992  48.8369978  89.5130014
   4.3249992  49.7889978  88.8560014   4.4799992  49.1479978  87.9630014
   5.3739992  49.9429978  89.1880014   3.9299992  51.1889978  88.5240014
   4.7459992  51.6259978  87.9080014   3.7809992  51.8299978  89.4190014
   2.6799992  51.3159978  87.7480014   1.8549992  50.7929978  88.2780014
   2.8209992  50.6949978  86.8380014   2.2019992  52.7529978  87.3330014
   2.1069992  53.4079978  88.2250014   1.2309992  52.6859978  86.7960014
   3.1169992  53.4349978  86.2920014   3.1109992  52.9309978  85.3010014
   4.1299992  53.5169978  86.7410014   2.4769992  54.8969978  86.1350014
   2.4109992  55.2809978  87.1750014   1.4509992  54.6069978  85.8240014
   2.9579992  55.8679978  85.0940014   3.7729992  56.3849978  85.6440014
   2.1179992  56.5929978  85.0350014   3.1929992  55.2469978  83.6830014
   3.4969992  56.0789978  83.0120014   2.2569992  54.6979978  83.4450014
   4.0879992  54.5979978  83.7960014   3.8749992  57.8879978  81.1320014
   4.6769992  58.0249978  80.3760014   3.0949992  58.5459978  80.6920014
   3.5219992  56.8349978  81.1480014   4.2899992  58.4179978  82.5190014
   5.2539992  57.9389978  82.7940014   4.6059992  59.4789978  82.4360014
   3.2399992  58.3109978  83.5920014   2.7849992  59.3229978  83.6260014
   2.3609992  57.6409978  83.4760014   3.8329992  58.0499978  85.0220014
   4.8649992  58.4049978  85.2330014   3.1579992  58.5889978  85.7210014
   3.7129992  56.5189978  85.3850014   2.7109992  56.2179978  85.0140014
   4.4489992  55.9939978  84.7390014   3.8959992  56.2619978  86.9030014
   2.9929992  56.5349978  87.4890014   3.9959992  55.1549978  86.9040014
   4.9859992  57.0349978  87.6230014   5.9549992  56.9399978  87.0890014
   4.5899992  58.0729978  87.6350014   5.0229992  56.6199978  89.1300014
   4.0919992  56.8739978  89.6800014   5.0839992  55.5129978  89.0550014
   6.2709992  57.0559978  89.9050014   6.1789992  56.5809978  90.9060014
   7.1959992  56.6899978  89.4090014   6.3759992  58.6159978  89.9240014
   6.5029992  58.9089978  88.8600014   5.4069992  59.0329978  90.2730014
   7.6369992  59.1529978  90.6580014   8.5389992  58.8299978  90.0950014
   7.5339992  60.2469978  90.4980014   7.6589992  58.9609978  92.2040014
   6.6689992  59.3549978  92.5200014   7.6779992  57.9129978  92.5720014
   8.7789992  59.7349978  93.0260014   9.6579992  59.0559978  92.9920014
   8.8849992  60.6209978  92.3660014   8.2479992  60.2309978  94.3640014
   7.3069992  60.7979978  94.1990014   8.0209992  59.3359978  94.9820014
   9.1479992  61.0919978  95.2530014  10.0839992  60.4989978  95.3280014
   9.3539992  62.0809978  94.7900014   8.4859992  61.3369978  96.6790014
   7.9039992  62.2999978  97.1400014   8.7929992  60.2139978  97.3050014
   8.3389992  60.0839978  98.6780014   8.6619992  59.1329978  99.1530014
   8.7029992  60.9429978  99.2820014   6.8099992  60.0119978  98.8440014
   6.4529992  61.0439978  98.6340014   6.4279992  59.7099978 100.3670014
   7.1809992  60.1629978 101.0470014   5.4619992  60.2459978 100.4850014
   6.3839992  58.3199978 100.5770014   5.9469992  57.6439978 101.9280014
   4.6419992  58.5659978 102.2750014   3.4369992  58.4539978 101.5310014
   3.6459992  57.9449978 100.5660014   2.6909992  57.8429978 102.0810014
   2.7569992  59.8029978 101.2030014   3.4559992  60.2619978 100.5190014
   1.8429992  59.5529978 100.6860014   2.4309992  60.7809978 102.3580014
   3.6659992  61.3009978 103.0300014   3.3549992  62.1089978 103.6770014
   4.2319992  60.5509978 103.5630014   4.2189992  61.7489978 102.2180014
   1.6729992  61.9899978 101.7040014   2.1589992  62.2399978 100.7730014
   0.6989992  61.5839978 101.4750014   1.6389992  62.9099978 102.2690014
   1.4629992  60.1369978 103.2990014   0.4929992  59.9059978 102.8840014
   1.4059992  60.7519978 104.1850014   1.9909992  59.2659978 103.6580014
   5.5269992  56.2639978 101.6350014   6.9599992  57.8099978 102.9650014
   6.2309992  59.0819978  97.8560014   4.9899992  59.3449978  97.4810014
   4.1529992  60.0599978  98.0510014   4.7499992  58.6529978  96.1100014
   4.4369992  57.6329978  96.4180014   5.6829992  58.5629978  95.5120014
   3.7339992  59.3769978  95.2830014   2.9569992  59.8289978  95.9360014
   3.2569992  58.7119978  94.5310014   4.3319992  60.5159978  94.4730014
   5.3189992  60.3319978  93.9990014   4.4969992  61.2979978  95.2450014
   3.3809992  61.1549978  93.4420014   3.8379992  62.0889978  93.0480014
   2.3859992  61.3959978  93.8730014   3.2759992  60.3409978  92.1570014
   3.0189992  59.2709978  92.3080014   4.1739992  60.2959978  91.5040014
   2.1239992  60.8349978  91.2660014   2.1289992  61.9459978  91.2680014
   1.2709992  60.4759978  91.8810014   2.2119992  60.2709978  89.7570014
   2.3679992  59.1729978  89.8150014   3.1549992  60.6709978  89.3260014
   1.0579992  60.7069978  88.9530014   0.0859992  60.6539978  89.4670014
   1.0359992  61.0869978  87.6810014   0.0479992  61.3729978  87.2930014
   2.2339992  61.1469978  86.7170014   1.8729992  61.2769978  85.6740014
   2.8329992  60.2119978  86.6980014   3.2209992  62.3249978  86.7950014
   3.6519992  62.2769978  87.8180014   2.5549992  63.2089978  86.7040014
   4.4369992  62.2989978  85.8430014   4.9289992  63.2949978  85.8160014
   3.9779992  61.9929978  84.8790014   5.5789992  61.3009978  86.3290014
   5.0709992  60.3599978  86.6300014   6.1109992  61.6709978  87.2310014
   6.6739992  60.9079978  85.1950014   6.9349992  61.8749978  84.7140014
   6.3369992  60.2399978  84.3730014   7.9429992  60.4309978  85.9270014
   7.7709992  59.3789978  86.2420014   8.1429992  60.9909978  86.8650014
   9.1939992  60.4209978  85.0520014   8.9249992  60.0279978  84.0480014
   9.9509992  59.7619978  85.5300014   9.7549992  61.8149978  85.0170014
   9.0709992  62.4139978  84.3780014  10.7639992  61.8089978  84.5510014
   9.6649992  62.3259978  85.9990014   3.7699992  91.2869978  79.9700014
   4.1119992  90.6239978  79.1460014   4.6469992  91.8479978  80.3560014
   3.0009992  91.9709978  79.5520014   3.1699992  90.5139978  81.0360014
   2.6339992  91.2159978  81.7100014   2.4169992  89.9839978  80.4140014
   4.0599992  89.5379978  81.8370014   4.6509992  88.9459978  81.1060014
   4.6649992  90.3399978  82.3110014   3.4779992  88.5729978  82.9210014
   2.4359992  88.4219978  82.5670014   4.0409992  87.6149978  82.9100014
   3.5819992  89.1199978  84.3950014   3.4399992  88.2759978  85.1030014
   4.6239992  89.4639978  84.5670014   2.7579992  90.2759978  84.8720014
   3.2069992  91.2569978  84.6080014   1.7229992  90.1519978  84.4860014
   2.7809992  90.3849978  86.4230014   2.3789992  89.4279978  86.8190014
   3.8069992  90.6079978  86.7870014   1.7689992  91.4399978  86.9010014
   2.2709992  92.3579978  86.5290014   0.7529992  91.2349978  86.5030014
   1.6579992  91.4159978  88.4570014   0.9119992  92.1529978  88.8240014
   1.2529992  90.4159978  88.7190014   2.8709992  91.5479978  89.3200014
   3.6599992  90.8449978  88.9770014   3.2929992  92.5559978  89.1190014
   2.7139992  91.7069978  90.8410014   3.6549992  91.8719978  91.4080014
   1.9789992  92.5269978  90.9880014   2.1509992  90.3569978  91.4050014
   1.0659992  90.3699978  91.1630014   2.6939992  89.5369978  90.8880014
   2.1809992  90.1919978  93.0350014   1.4589992  90.9299978  93.4450014
   1.9179992  89.1699978  93.3840014   3.4559992  90.4919978  93.7360014
   4.3009992  89.9909978  93.2160014   3.6569992  91.5839978  93.7090014
   3.3909992  90.0459978  95.2070014   2.6429992  90.6639978  95.7470014
   3.1189992  88.9699978  95.2590014   4.8349992  90.1329978  95.8620014
   5.9029992  90.3569978  95.2790014   4.6679992  89.9169978  97.1850014
   5.8249992  90.3419978  97.9700014   5.8909992  89.6309978  98.8220014
   6.8189992  90.3709978  97.4750014   5.5399992  91.7239978  98.6920014
   6.4839992  92.1449978  99.1000014   4.6209992  91.5859978  99.9330014
   5.0329992  90.7879978 100.5870014   4.8189992  92.5169978 100.5060014
   3.2619992  91.5689978  99.5210014   2.1859992  90.8339978 100.3370014
   2.0329992  91.7579978 101.6560014   1.7479992  93.1289978 101.4190014
   2.6669992  93.6479978 101.0730014   0.9889992  93.3899978 100.6500014
   1.4659992  93.8439978 102.7210014   1.1229992  94.8379978 102.4760014
   0.6789992  93.2969978 103.2200014   2.5239992  93.7919978 103.8180014
   2.0149992  94.4789978 105.0300014   1.2249992  93.8399978 105.3950014
   2.8279992  94.6999978 105.7060014   1.6469992  95.4319978 104.6790014
   2.9439992  92.3989978 104.2360014   2.1029992  91.9289978 104.7240014
   3.3439992  91.8929978 103.3690014   3.7109992  92.5369978 104.9840014
   3.7129992  94.5769978 103.3790014   3.5949992  95.6509978 103.3600014
   4.0549992  94.2539978 102.4070014   4.5989992  94.4019978 103.9710014
   0.8769992  90.8719978  99.5820014   2.6369992  89.5299978 100.8070014
   4.9719992  92.6409978  97.7570014   5.7919992  93.1709978  96.8350014
   6.9929992  93.1879978  96.8180014   4.9829992  93.8659978  95.7830014
   4.8619992  94.9599978  95.9390014   4.0409992  93.2879978  95.6760014
   5.6519992  93.7959978  94.3460014   5.5799992  92.7399978  94.0070014
   6.7179992  94.1009978  94.4170014   4.9879992  94.5619978  93.3060014
   4.9099992  95.6079978  93.6710014   3.9359992  94.2229978  93.1950014
   5.8529992  94.4489978  92.0410014   6.0099992  93.3719978  91.8170014
   6.8779992  94.8649978  92.1440014   5.0599992  95.0619978  90.9470014
   4.7649992  96.1129978  91.1530014   4.0599992  94.5789978  90.9020014
   5.7269992  95.0309978  89.5720014   6.3979992  95.9149978  89.5280014
   4.9519992  95.0119978  88.7760014   6.7619992  93.9029978  89.2990014
   7.5049992  94.0809978  90.1050014   7.0939992  94.2099978  88.2840014
   6.3189992  92.4799978  89.2110014   5.7159992  92.1239978  90.0590014
   6.8169992  91.5739978  88.3800014   6.4579992  90.5349978  88.3800014
   7.8729992  91.7759978  87.3680014   8.4439992  90.8239978  87.3260014
   8.5199992  92.6179978  87.6940014   7.1039992  92.0229978  86.0100014
   6.4049992  91.1819978  85.8140014   7.9719992  91.8669978  85.3340014
   6.6009992  93.4069978  85.6350014   6.8539992  93.6089978  84.5720014
   7.1909992  94.1329978  86.2360014   5.0529992  93.5529978  85.9330014
   4.9329992  93.4029978  87.0270014   4.4719992  92.6879978  85.5470014
   4.5129992  94.9499978  85.5960014   4.7609992  95.2189978  84.5470014
   4.9099992  95.7929978  86.2030014   3.0309992  95.1239978  85.7260014
   2.9959992  96.2109978  85.9510014   2.7299992  94.4589978  86.5640014
   2.2239992  94.6649978  84.5000014   2.4979992  93.7149978  83.9940014
   2.4249992  95.5679978  83.8840014   0.7179992  94.5039978  84.8540014
   0.5099992  93.7349978  85.6290014   0.1369992  94.2559978  83.9400014
   0.3749992  95.4859978  85.2450014 145.1179992  26.1389978  85.6240014
 144.7589992  25.0919978  85.7240014 145.4449992  26.6419978  86.5590014
 145.9859992  26.1569978  84.9300014 143.9609992  27.0049978  85.2500014
 144.2439992  28.0569978  85.4670014 143.8309992  27.0309978  84.1470014
 142.7409992  26.7049978  86.1800014 142.4809992  25.6259978  86.1610014
 143.0159992  26.9789978  87.2220014 141.3879992  27.2789978  85.7390014
 141.4909992  28.3559978  85.4850014 141.0369992  26.7949978  84.8040014
 140.2589992  27.1109978  86.7990014 139.2619992  27.4679978  86.4630014
 139.9639992  26.0429978  86.8870014 140.3709992  27.8279978  88.1920014
 141.0969992  27.2619978  88.8130014 140.7919992  28.8459978  88.0480014
 139.0209992  27.9339978  88.9390014 138.2969992  28.5129978  88.3260014
 138.6859992  26.9019978  89.1750014 139.1739992  28.7129978  90.3080014
 139.9289992  29.5249978  90.2500014 138.1479992  29.1039978  90.4830014
 139.6409992  27.8259978  91.4710014 138.9219992  28.1359978  92.2590014
 139.4239992  26.7419978  91.3570014 141.0769992  28.1539978  91.8560014
 141.7749992  27.7719978  91.0810014 141.1819992  29.2569978  91.9280014
 141.5869992  27.4229978  93.1020014 141.5129992  26.3209978  92.9870014
 142.6249992  27.7399978  93.3390014 140.7249992  27.6849978  94.3790014
 140.5129992  28.7749978  94.3570014 139.7179992  27.2349978  94.2470014
 141.2769992  27.1869978  95.7670014 142.0719992  27.9019978  96.0690014
 140.4139992  27.3409978  96.4500014 141.7329992  25.6779978  95.8220014
 140.8789992  25.0729978  95.4500014 142.6019992  25.5469978  95.1410014
 142.0469992  25.2399978  97.3160014 141.1899992  25.5689978  97.9420014
 142.0019992  24.1299978  97.3250014 143.4679992  25.6249978  97.7460014
 144.5149992  25.0579978  97.5250014 143.3599992  26.7949978  98.3780014
 144.6909992  27.3749978  98.5590014 145.2709992  26.9289978  99.3950014
 145.3439992  27.3479978  97.6600014 144.4149992  28.9039978  98.9540014
 145.3519992  29.4919978  99.0630014 143.5479992  28.8379978 100.2500014
 142.7859992  28.0429978 100.1040014 144.1329992  28.6279978 101.1700014
 142.9719992  30.1419978 100.4880014 141.4909992  30.5429978 100.3770014
 140.9099992  30.4179978 101.8630014 141.6359992  30.3489978 103.0240014
 142.6829992  30.0299978 102.8310014 141.6809992  31.3389978 103.5270014
 141.0129992  29.2479978 103.9840014 141.7009992  29.0859978 104.8010014
 140.0369992  29.5359978 104.3470014 140.7089992  27.8769978 103.4750014
 140.0359992  27.0589978 104.5210014 140.6369992  26.9989978 105.4160014
 139.0349992  27.4379978 104.6650014 139.9429992  26.0409978 104.1720014
 139.7659992  27.9809978 102.3530014 139.4609992  27.0809978 101.8400014
 138.8399992  28.3699978 102.7510014 140.2069992  28.7249978 101.7060014
 142.0009992  27.0699978 102.9670014 142.4719992  27.7119978 102.2370014
 141.7679992  26.1129978 102.5230014 142.6989992  26.9389978 103.7810014
 141.4339992  31.9289978  99.9160014 140.8239992  29.5399978  99.5380014
 143.6669992  29.5899978  97.8620014 144.4329992  30.1159978  96.8870014
 145.6719992  29.8669978  96.7300014 143.5109992  30.8949978  95.9050014
 142.8249992  30.1809978  95.4010014 144.0819992  31.2989978  95.0410014
 142.6229992  31.9079978  96.6660014 143.1939992  32.5609978  97.3600014
 141.8769992  31.3569978  97.2770014 141.8749992  32.8239978  95.6240014
 142.5639992  33.2169978  94.8460014 141.7049992  33.7779978  96.1670014
 140.6169992  32.1469978  94.9920014 140.0989992  31.4619978  95.6980014
 141.0279992  31.5779978  94.1310014 139.6869992  33.2159978  94.3540014
 140.1749992  34.0949978  93.8820014 139.1129992  33.6089978  95.2200014
 138.5979992  32.7189978  93.3830014 137.8919992  33.5659978  93.2470014
 137.9689992  31.9739978  93.9160014 139.1119992  32.0529978  92.1230014
 138.3689992  31.5089978  91.5020014 139.8249992  31.2749978  92.4710014
 139.7049992  33.0019978  91.1570014 138.9919992  33.5699978  90.5410014
 141.0109992  33.2219978  91.0520014 141.3099992  34.0369978  90.3770014
 142.1979992  32.5699978  91.7670014 141.8659992  31.7369978  92.4220014
 142.6249992  33.4059978  92.3610014 143.1579992  31.8609978  90.7750014
 142.5469992  31.1379978  90.1920014 143.9619992  31.3149978  91.3120014
 143.9249992  32.7269978  89.7830014 144.1779992  33.7049978  90.2460014
 143.2179992  33.0539978  88.9900014 145.1009992  32.0339978  89.0450014
 145.9259992  31.8709978  89.7720014 145.4849992  32.7449978  88.2830014
 144.7019992  30.6589978  88.4000014 144.4679992  29.9549978  89.2270014
 145.6179992  30.3009978  87.8820014 143.7079992  30.7189978  87.3090014
 142.7839992  31.1709978  87.7310014 143.4199992  29.6909978  87.0040014
 143.9839992  31.4309978  85.9430014 144.0429992  32.5299978  86.0940014
 143.1229992  31.2859978  85.2560014 145.2669992  30.9799978  85.1850014
 145.1809992  29.8889978  84.9940014 146.2769992  31.1409978  85.6200014
 145.3569992  31.6569978  84.3090014 117.8579992 137.1189978  83.2950014
 117.1789992 136.3509978  83.7240014 118.7549992 136.4709978  83.1980014
 117.5939992 137.4309978  82.2620014 117.8609992 138.3689978  84.1770014
 118.5559992 139.0889978  83.6930014 116.8689992 138.8669978  84.1210014
 118.0639992 138.2079978  85.7150014 117.5639992 137.2979978  86.1080014
 119.1489992 138.0959978  85.9260014 117.5119992 139.3999978  86.5140014
 117.9109992 140.3779978  86.1680014 116.4109992 139.5439978  86.4810014
 117.7209992 139.3589978  88.0360014 118.8019992 139.1539978  88.1890014
 117.5329992 140.3229978  88.5540014 116.7699992 138.4179978  88.7630014
 115.7159992 138.7089978  88.5700014 116.8879992 137.3839978  88.3730014
 116.9709992 138.4759978  90.3390014 116.7409992 139.4979978  90.7090014
 116.3589992 137.8389978  91.0130014 118.4039992 138.0859978  90.6800014
 118.5579992 137.0589978  90.2840014 119.1729992 138.8149978  90.3460014
 118.6159992 137.7509978  92.1260014 117.8559992 136.9759978  92.3580014
 119.6109992 137.2579978  92.1740014 118.4699992 138.8889978  93.0880014
 118.8909992 139.8609978  92.7530014 117.3659992 138.9599978  93.1860014
 119.1029992 138.6049978  94.4680014 118.5469992 137.8069978  95.0050014
 120.1429992 138.2409978  94.3260014 119.1889992 139.7879978  95.4550014
 119.6639992 140.7449978  95.1520014 118.1749992 140.1529978  95.7230014
 119.8419992 139.5249978  96.8130014 119.5949992 140.3079978  97.5610014
 119.5479992 138.5369978  97.2270014 121.3489992 139.6139978  96.7150014
 121.5189992 138.8499978  95.9270014 121.8069992 140.5699978  96.3800014
 121.9379992 138.8879978  97.9310014 121.1189992 139.0299978  98.6680014
 122.1359992 137.8239978  97.6810014 123.1199992 139.5749978  98.4510014
 124.0319992 140.0299978  97.7900014 122.9809992 139.5829978  99.7700014
 123.7879992 140.4729978 100.5460014 124.5899992 139.8199978 100.9510014
 124.2899992 141.1599978  99.8320014 122.9069992 141.1639978 101.5920014
 123.4289992 141.9529978 102.1740014 122.3889992 140.1859978 102.6190014
 121.9089992 139.3559978 102.0580014 123.2479992 139.7319978 103.1580014
 121.4239992 140.9079978 103.5050014 119.9419992 140.4899978 103.6930014
 119.3459992 139.9739978 102.3110014 118.9469992 140.9399978 101.3740014
 119.3949992 141.9339978 101.5890014 119.4839992 140.7139978 100.4280014
 117.4769992 141.0649978 101.1580014 116.9869992 141.2589978 102.1010014
 117.3329992 142.0059978 100.6480014 116.6779992 139.9009978 100.6030014
 116.7019992 138.7429978 101.4990014 116.1979992 137.8829978 101.0820014
 117.7229992 138.4399978 101.6810014 116.2089992 139.0709978 102.4020014
 115.2349992 140.4289978 100.3350014 115.4159992 141.4379978  99.9930014
 114.8359992 139.8729978  99.5000014 114.7069992 140.3139978 101.2700014
 117.1449992 139.5929978  99.1510014 117.1949992 140.5449978  98.6440014
 116.3999992 138.9799978  98.6660014 118.0459992 138.9969978  99.1380014
 119.8349992 139.3919978 104.7420014 119.2839992 141.7469978 104.1330014
 121.8429992 141.8369978 100.9010014 122.1719992 142.7719978 100.0730014
 123.2859992 143.2839978 100.0440014 120.9979992 143.2219978  99.2780014
 120.5529992 144.0349978  99.8920014 120.1769992 142.4739978  99.2480014
 121.3639992 143.8329978  97.9300014 121.7769992 143.0329978  97.2790014
 122.1449992 144.5569978  98.2460014 120.2779992 144.6449978  97.2060014
 119.8909992 145.4439978  97.8740014 119.4569992 143.9059978  97.0900014
 120.7849992 145.1719978  95.8620014 121.7879992 145.6109978  96.0510014
 120.0329992 145.9529978  95.6180014 120.8999992 144.0089978  94.8420014
 119.9529992 143.4349978  94.7590014 121.6539992 143.2869978  95.2220014
 121.2699992 144.4089978  93.4290014 122.1039992 145.1409978  93.4830014
 120.3129992 144.8519978  93.0800014 121.5249992 143.3539978  92.3320014
 121.3289992 143.8979978  91.3830014 120.8639992 142.4609978  92.3160014
 123.0199992 143.0219978  92.3500014 123.3049992 142.2939978  93.1250014
 123.8689992 143.4609978  91.4200014 124.8779992 143.0299978  91.3490014
 123.4339992 144.3639978  90.2670014 124.3469992 144.8949978  89.9230014
 122.7949992 145.2359978  90.5230014 122.8199992 143.7869978  88.9740014
 122.9229992 144.6479978  88.2800014 121.7109992 143.7829978  89.0400014
 123.5089992 142.5309978  88.4650014 123.1219992 141.6819978  89.0690014
 124.6109992 142.5569978  88.6040014 123.3299992 142.2269978  86.9060014
 124.0399992 141.3819978  86.7840014 123.7129992 143.0609978  86.2800014
 121.9369992 141.7219978  86.5290014 121.2929992 142.6259978  86.5700014
 121.6029992 140.8989978  87.1980014 121.8399992 141.2119978  85.0670014
 122.2539992 142.0759978  84.5040014 120.7829992 141.0839978  84.7510014
 122.6059992 139.9339978  84.8250014 122.2409992 139.1109978  85.4750014
 123.6699992 140.2019978  85.0040014 122.5029992 139.4919978  83.3300014
 123.2139992 138.6389978  83.3200014 122.8059992 140.3099978  82.6410014
 121.5579992 139.0549978  82.9410014  44.9009992   5.7809978  81.8520014
  45.7199992   5.6409978  82.5900014  45.2459992   6.3519978  80.9630014
  44.6429992   4.7579978  81.5050014  43.8319992   6.6399978  82.4490014
  43.0049992   6.7479978  81.7150014  43.2909992   5.9659978  83.1470014
  44.1109992   8.0429978  83.0180014  44.2899992   8.7229978  82.1570014
  43.1649992   8.3469978  83.5150014  45.3629992   8.1539978  83.9740014
  46.3279992   7.8929978  83.4880014  45.6349992   9.1459978  84.3940014
  45.3409992   7.1889978  85.2080014  45.5519992   6.2449978  84.6620014
  46.1849992   7.5239978  85.8480014  44.0519992   7.0929978  86.0540014
  43.7389992   8.0919978  86.4270014  43.2419992   6.7449978  85.3770014
  43.9559992   6.0809978  87.1710014  43.0759992   6.2179978  87.8360014
  43.8889992   5.1409978  86.5820014  45.2509992   5.8469978  88.0690014
  45.1209992   4.9939978  88.7690014  46.1479992   5.5789978  87.4700014
  45.5859992   7.0079978  88.9850014  46.4389992   6.6739978  89.6140014
  45.8539992   7.9719978  88.5020014  44.4829992   7.4279978  89.9730014
  43.5349992   7.5889978  89.4170014  44.3629992   6.7099978  90.8130014
  44.8349992   8.8309978  90.5710014  44.9879992   9.5429978  89.7320014
  43.9719992   9.2449978  91.1360014  46.1089992   8.9489978  91.4380014
  46.9119992   8.7479978  90.6960014  46.1989992   9.9049978  91.9960014
  46.2619992   8.0209978  92.7040014  46.4949992   7.0289978  92.2610014
  47.1879992   8.2229978  93.2820014  45.0749992   7.9099978  93.5210014
  44.5699992   8.8559978  93.8120014  44.3239992   7.3719978  92.9040014
  45.5369992   7.1999978  94.7850014  44.6019992   6.7719978  95.2060014
  46.2479992   6.3959978  94.4980014  46.0149992   8.1219978  95.8810014
  46.2649992   9.2959978  95.7060014  46.1689992   7.3879978  96.9330014
  46.4599992   7.9329978  98.2060014  47.3949992   7.4649978  98.5820014
  46.8639992   8.9639978  98.1190014  45.3089992   7.9079978  99.1690014
  45.6999992   8.3199978 100.1240014  44.7789992   6.4979978  99.6500014
  44.5429992   5.8789978  98.7580014  45.6029992   5.9759978 100.1800014
  43.6579992   6.6039978 100.5130014  42.5449992   5.4819978 100.4810014
  41.8999992   5.6619978 101.9040014  42.5969992   6.0829978 103.0330014
  42.0729992   5.7309978 103.9470014  43.6249992   5.6619978 103.0310014
  42.6679992   7.5799978 103.0660014  43.4279992   7.9539978 103.7350014
  42.9399992   7.9809978 102.1010014  41.3479992   8.3029978 103.3000014
  40.8109992   7.8879978 104.6700014  39.8619992   8.3659978 104.8660014
  40.4599992   6.8669978 104.7080014  41.3989992   8.0829978 105.5550014
  41.5379992   9.8059978 103.4840014  42.2619992   9.9479978 104.2720014
  41.8699992  10.2699978 102.5660014  40.6209992  10.2519978 103.8420014
  40.3249992   7.9859978 102.2560014  39.4319992   8.5729978 102.4150014
  40.1489992   6.9209978 102.2860014  40.7939992   8.2409978 101.3170014
  41.5669992   5.9419978  99.4730014  43.0919992   4.1249978 100.3270014
  44.2629992   8.6759978  98.4950014  43.4329992   9.2459978  99.3450014
  43.4719992   9.1509978 100.5800014  42.5099992  10.2679978  98.6420014
  42.9649992  10.7229978  97.7360014  42.2699992  11.1429978  99.2830014
  41.1729992   9.6669978  98.1840014  40.4459992   9.6499978  99.0240014
  41.3189992   8.5919978  97.9440014  40.5719992  10.3739978  97.0110014
  40.5329992  11.4729978  97.1690014  39.5279992  10.0219978  96.8660014
  41.4879992  10.0849978  95.8250014  42.3699992   9.4459978  96.0440014
  41.8559992  11.0409978  95.3970014  40.6469992   9.4149978  94.7120014
  39.9479992  10.1999978  94.3520014  40.0519992   8.5799978  95.1410014
  41.5619992   8.9819978  93.5750014  42.2909992   8.1949978  93.8650014
  42.1529992   9.8969978  93.3590014  40.8949992   8.5249978  92.2550014
  40.4699992   7.5169978  92.4500014  41.6719992   8.3549978  91.4800014
  39.8889992   9.5029978  91.7460014  39.0399992   9.6259978  92.4350014
  40.1159992  10.2739978  90.6740014  39.3309992  10.9929978  90.3970014
  41.3509992  10.2539978  89.7370014  42.2459992  10.0489978  90.3610014
  41.4249992  11.2769978  89.3090014  41.2949992   9.2749978  88.5750014
  41.1919992   8.2569978  89.0100014  42.2289992   9.4189978  87.9910014
  40.2299992   9.5869978  87.5180014  40.6259992  10.5159978  87.0550014
  39.2179992   9.5429978  87.9730014  40.1459992   8.5799978  86.3720014
  41.1629992   8.4269978  85.9510014  39.5719992   8.9389978  85.4920014
  39.4479992   7.2279978  86.6430014  38.3879992   7.4709978  86.8690014
  39.9329992   6.7019978  87.4920014  39.5689992   6.3559978  85.3520014
  40.6199992   6.0529978  85.1560014  39.1829992   6.8519978  84.4360014
  38.8529992   4.9549978  85.4540014  37.7789992   5.0889978  85.7070014
  39.5039992   4.4659978  86.2100014  38.9109992   4.1609978  84.1260014
  39.9209992   4.2329978  83.6670014  38.1619992   4.6559978  83.4720014
  38.6279992   3.0959978  84.2700014  21.1989992  31.1989978  85.9770014
  20.6719992  30.4989978  85.2940014  22.2149992  31.1179978  85.5350014
  20.8779992  32.2529978  85.8400014  21.4099992  30.7159978  87.4120014
  20.4369992  30.4549978  87.8820014  22.2049992  29.9399978  87.3810014
  22.1669992  31.7889978  88.2320014  22.9899992  32.1859978  87.5990014
  21.5299992  32.6929978  88.3370014  22.6589992  31.3559978  89.6190014
  23.3429992  30.4819978  89.5650014  23.0999992  32.2769978  90.0550014
  21.4789992  30.9659978  90.5180014  20.6029992  31.6409978  90.4110014
  21.0259992  29.9809978  90.2770014  21.9309992  30.8999978  92.1030014
  22.9349992  30.4459978  92.2430014  22.0379992  31.9839978  92.3250014
  20.8749992  30.2319978  93.0280014  19.9579992  30.7039978  92.6140014
  20.7919992  29.1249978  93.0100014  21.0589992  30.6099978  94.5010014
  20.7789992  31.6749978  94.6450014  20.4229992  29.9719978  95.1510014
  22.4899992  30.4929978  95.0260014  22.7829992  29.4589978  94.7450014
  23.2539992  31.1419978  94.5490014  22.5909992  30.6349978  96.5380014
  22.4829992  31.7009978  96.8340014  21.7239992  30.0739978  96.9480014
  24.0109992  30.1749978  96.9290014  24.3399992  29.2929978  96.3390014
  24.7699992  30.9509978  96.6920014  24.0709992  29.7789978  98.3960014
  23.3529992  28.9319978  98.4370014  25.0879992  29.3479978  98.5160014
  23.9139992  30.9559978  99.3410014  22.9619992  31.4709978  99.0880014
  23.9669992  30.4939978 100.3500014  25.0629992  31.8909978  99.2420014
  26.0109992  31.3119978  99.2280014  25.0379992  32.4999978  98.3140014
  25.2859992  32.9329978 100.3800014  25.5189992  32.3649978 101.3060014
  26.1849992  33.5219978 100.0970014  24.0909992  33.9199978 100.4640014
  23.6089992  34.3939978  99.4810014  23.7259992  34.1829978 101.7280014
  22.6689992  35.0599978 102.0810014  23.0089992  35.4879978 103.0480014
  22.5979992  35.9279978 101.3910014  21.3179992  34.2469978 102.0530014
  20.4839992  34.9039978 102.3790014  21.3879992  33.0409978 103.0520014
  21.8749992  33.4569978 103.9610014  20.3629992  32.6179978 102.9840014
  22.2959992  32.0269978 102.5100014  22.1829992  30.5079978 103.1560014
  20.7789992  30.0099978 102.5500014  20.6959992  29.9399978 101.1490014
  20.9649992  30.9309978 100.7250014  21.3419992  29.1769978 100.6640014
  19.2219992  29.8029978 100.6420014  18.7419992  30.7669978 100.7250014
  19.4049992  29.5649978  99.6040014  18.2419992  28.7819978 101.1640014
  17.5319992  29.4649978 102.3460014  16.7409992  28.7929978 102.6460014
  18.2709992  29.5369978 103.1310014  17.1039992  30.4239978 102.0960014
  17.3149992  28.5459978 100.0400014  17.1159992  29.5219978  99.6250014
  17.7029992  27.8829978  99.2800014  16.4299992  28.1439978 100.5110014
  18.8989992  27.4729978 101.6020014  19.1349992  26.8589978 100.7450014
  18.1849992  26.9109978 102.1860014  19.8099992  27.6579978 102.1530014
  23.3039992  29.7139978 102.7010014  21.8999992  30.5869978 104.6450014
  21.0799992  33.7989978 100.7590014  19.8939992  33.4239978 100.3860014
  18.9099992  33.2689978 101.0900014  19.9379992  33.2849978  98.8520014
  20.8389992  32.6609978  98.6700014  19.7899992  34.3039978  98.4350014
  18.6379992  32.5289978  98.3130014  18.3439992  31.6369978  98.9060014
  18.7879992  32.1379978  97.2840014  17.2899992  33.2739978  98.4070014
  17.1599992  33.9109978  99.3080014  16.4999992  32.4959978  98.3410014
  17.0079992  34.1489978  97.1440014  17.9509992  34.6009978  96.7700014
  16.3309992  34.9719978  97.4600014  16.3479992  33.3759978  95.9930014
  15.3629992  32.9249978  96.2390014  16.9889992  32.5159978  95.7050014
  16.1599992  34.3629978  94.7920014  17.0629992  35.0079978  94.8640014
  15.2379992  34.9429978  95.0110014  15.9799992  33.6689978  93.3830014
  16.9729992  33.5639978  92.8950014  15.4659992  34.3679978  92.6890014
  15.1599992  32.3799978  93.4850014  14.1129992  32.5049978  93.7960014
  15.5079992  31.1209978  93.2400014  14.7129992  30.3859978  93.4320014
  16.9179992  30.5989978  92.8090014  17.0579992  29.6399978  93.3530014
  17.7739992  31.1729978  93.2260014  17.1649992  30.2529978  91.2990014
  16.4279992  29.5939978  90.7930014  18.1239992  29.6969978  91.3780014
  17.3229992  31.4709978  90.3290014  18.2529992  32.0499978  90.5100014
  16.4679992  32.1789978  90.3900014  17.3459992  31.0809978  88.7950014
  16.5779992  30.3439978  88.4760014  18.3239992  30.6269978  88.5240014
  17.1189992  32.3389978  87.8740014  17.6459992  33.1869978  88.3620014
  16.0719992  32.7109978  87.8490014  17.6159992  32.1989978  86.4260014
  17.6829992  31.1359978  86.1090014  18.6709992  32.5439978  86.3970014
  16.7009992  33.0169978  85.4780014  15.6739992  32.6219978  85.6300014
  17.0959992  32.8689978  84.4500014  16.6579992  34.4959978  85.8270014
  17.6639992  34.9599978  85.7450014  16.2989992  34.7859978  86.8380014
  15.9139992  34.9759978  85.1550014  13.7879992  38.8009978  84.9730014
  14.7639992  39.2309978  84.6610014  13.5579992  38.0639978  84.1750014
  13.9859992  38.3579978  85.9730014  12.7529992  39.9009978  84.9800014
  13.0029992  40.8889978  85.4230014  12.4499992  40.0309978  83.9190014
  11.3799992  39.4949978  85.6880014  10.6429992  40.1989978  85.2450014
  11.0059992  38.4639978  85.5070014  11.3809992  39.5669978  87.2610014
  10.2899992  39.5969978  87.4660014  11.6829992  38.5669978  87.6410014
  12.1909992  40.7359978  87.8950014  13.2669992  40.6469978  87.6310014
  11.9079992  41.6939978  87.4100014  12.1349992  40.6939978  89.4150014
  12.5829992  39.7849978  89.8720014  12.6779992  41.6329978  89.6550014
  10.6689992  40.8269978  89.9420014  10.1609992  41.6799978  89.4420014
  10.1139992  39.9359978  89.5800014  10.6449992  41.0499978  91.4030014
  11.2149992  40.2499978  91.9220014  11.0159992  42.0599978  91.6810014
   9.2309992  41.0839978  91.9770014   8.4659992  41.6129978  91.3680014
   8.9129992  40.0319978  91.8170014   9.0529992  41.3889978  93.5030014
   9.9129992  41.8539978  94.0310014   8.1759992  42.0699978  93.4730014
   8.8139992  40.1829978  94.4100014   8.3569992  40.5669978  95.3470014
   8.1949992  39.4109978  93.9040014  10.1539992  39.4509978  94.6770014
  10.2809992  38.9369978  93.7000014  11.0009992  40.1659978  94.7530014
  10.1469992  38.6169978  96.0030014   9.2459992  37.9999978  96.2040014
  11.0449992  37.9639978  95.9560014  10.3809992  39.5579978  97.1430014
  11.1789992  40.2679978  96.8370014   9.5609992  40.2929978  97.2930014
  10.8469992  39.0009978  98.5140014  10.4599992  39.6439978  99.3340014
  10.4979992  37.9549978  98.6440014  12.3769992  39.0789978  98.5620014
  13.0349992  39.0789978  97.5470014  12.8499992  39.2299978  99.7610014
  14.2189992  39.6599978  99.9270014  14.6299992  39.4389978 100.9350014
  14.8879992  39.2639978  99.1330014  14.2539992  41.2249978  99.8930014
  15.2579992  41.6249978 100.1510014  13.2879992  41.8329978 100.9410014
  13.3599992  41.3419978 101.9350014  13.6159992  42.8919978 100.9990014
  11.9189992  41.7299978 100.5370014  10.9819992  42.7349978 101.2600014
  10.2659992  41.8729978 102.3290014  10.3949992  40.5109978 102.4230014
  10.3529992  40.0159978 101.4290014  11.3259992  40.1969978 102.9420014
   9.1689992  39.8659978 103.2590014   9.3269992  38.8009978 103.3410014
   9.2739992  40.3259978 104.2310014   7.6989992  40.1239978 102.7490014
   6.7709992  39.1449978 103.4300014   5.7759992  39.3169978 103.0470014
   6.8869992  38.1129978 103.1330014   6.9769992  39.2459978 104.4860014
   7.3679992  41.6029978 103.0100014   6.4869992  41.9319978 102.4780014
   7.3119992  41.9769978 104.0220014   8.0929992  42.0839978 102.3690014
   7.5639992  39.9229978 101.2910014   7.9589992  38.9619978 100.9980014
   8.0529992  40.7039978 100.7260014   6.5459992  40.0039978 100.9420014
  11.7579992  43.7989978 101.9560014   9.9409992  43.2039978 100.2610014
  14.0619992  41.5799978  98.5200014  14.0949992  42.9169978  98.2430014
  14.3639992  43.8169978  99.0150014  13.8239992  43.1209978  96.7410014
  12.7959992  42.7369978  96.5700014  14.5489992  42.3769978  96.3480014
  14.0969992  44.5309978  96.2220014  15.1449992  44.7809978  96.4920014
  13.4479992  45.2249978  96.7970014  13.7579992  44.7629978  94.7760014
  13.9079992  43.9049978  94.0870014  14.3899992  45.6039978  94.4210014
  12.2349992  45.1249978  94.7040014  12.1029992  45.9569978  95.4290014
  11.4549992  44.3739978  94.9530014  11.9579992  45.7699978  93.2620014
  11.7399992  44.8889978  92.6220014  12.8869992  46.2679978  92.9100014
  10.7909992  46.8529978  93.3150014  10.7759992  47.4149978  92.3570014
  11.0109992  47.6769978  94.0270014   9.4029992  46.2799978  93.6560014
   8.7129992  47.1509978  93.6850014   9.4669992  45.9019978  94.6980014
   8.6939992  45.2039978  92.8840014   8.2309992  44.5239978  93.6140014
   8.6629992  44.8579978  91.5780014   8.1719992  43.9679978  91.1580014
   9.3629992  45.5509978  90.5200014  10.2089992  46.1659978  90.8950014
   8.6359992  46.2389978  90.0380014   9.9719992  44.7289978  89.4310014
   9.1139992  44.1619978  89.0120014  10.7179992  43.9879978  89.7910014
  10.7029992  45.6709978  88.4190014  11.6509992  46.1249978  88.7790014
   9.9379992  46.4219978  88.1270014  11.1729992  44.9219978  87.1070014
  11.6769992  43.9949978  87.4540014  11.9419992  45.4439978  86.4980014
   9.9469992  44.4819978  86.2040014   9.5149992  45.3959978  85.7430014
   9.1759992  44.0499978  86.8760014  10.3829992  43.5529978  85.0330014
   9.4749992  43.2699978  84.4590014  10.8769992  42.6169978  85.3690014
  11.3699992  44.1239978  83.9650014  12.0979992  44.8279978  84.4220014
  10.8439992  44.6349978  83.1300014  12.2989992  43.0889978  83.3460014
  11.6739992  42.5199978  82.6250014  12.7719992  42.4369978  84.1110014
  13.0999992  43.5679978  82.7450014  47.0979992 143.4819978  84.3540014
  47.6649992 142.5559978  84.1170014  47.7959992 144.1779978  84.8670014
  46.7599992 143.8799978  83.3730014  45.9759992 143.1449978  85.2560014
  45.4249992 144.0909978  85.4500014  45.3399992 142.4179978  84.7070014
  46.4989992 142.6919978  86.6320014  46.8799992 141.6699978  86.4200014
  47.3509992 143.3219978  86.9650014  45.3839992 142.5389978  87.6460014
  44.5819992 143.2989978  87.5320014  44.8179992 141.5979978  87.4790014
  45.9219992 142.6569978  89.0970014  46.5619992 141.7719978  89.3000014
  46.5279992 143.5869978  89.1330014  44.8389992 142.6179978  90.2240014
  43.8849992 143.1539978  90.0280014  44.4349992 141.5919978  90.0840014
  45.3129992 142.9969978  91.6200014  45.5319992 144.0659978  91.8240014
  44.4209992 142.8229978  92.2610014  46.5829992 142.1709978  92.0220014
  47.4649992 142.4889978  91.4270014  46.7409992 142.4899978  93.0750014
  46.4769992 140.6379978  91.9160014  46.5979992 140.3089978  90.8620014
  47.3939992 140.3449978  92.4690014  45.2199992 139.9919978  92.5200014
  44.2329992 140.3249978  92.1340014  45.2869992 139.0579978  91.9230014
  45.0609992 139.8329978  94.0170014  44.8249992 140.8219978  94.4650014
  44.2029992 139.1559978  94.2150014  46.2949992 139.2229978  94.6930014
  46.3139992 138.1149978  94.6180014  47.2979992 139.5599978  94.3530014
  46.4729992 139.5909978  96.2400014  45.5089992 139.3359978  96.7300014
  47.3459992 138.9809978  96.5580014  46.6769992 141.0379978  96.5680014
  47.5039992 141.4499978  95.9500014  45.8019992 141.6899978  96.3580014
  47.1719992 141.2639978  97.9930014  46.4009992 140.9569978  98.7320014
  48.0519992 140.5959978  98.1050014  47.7169992 142.6889978  98.1290014
  48.8749992 142.9879978  98.2170014  46.6039992 143.5529978  98.1380014
  46.9619992 144.9579978  98.0820014  48.0159992 145.0659978  98.4180014
  46.7639992 145.3929978  97.0790014  46.1489992 145.8239978  99.1410014
  46.3009992 146.8979978  98.9010014  46.5309992 145.3789978 100.5350014
  46.1779992 144.3259978 100.5410014  47.6149992 145.4759978 100.7570014
  45.8409992 146.1859978 101.5180014  45.6019992 145.4459978 102.9020014
  45.0579992 143.9739978 102.5580014  43.8269992 143.8279978 101.8500014
  43.0009992 143.7959978 102.5920014  43.5639992 144.6949978 101.2070014
  43.7749992 142.7179978 100.7940014  42.8199992 142.8149978 100.2990014
  44.5029992 142.8979978 100.0160014  44.0419992 141.2979978 101.3190014
  44.1509992 140.5009978 100.0900014  43.1959992 140.5769978  99.5920014
  44.9559992 140.8399978  99.4540014  44.3379992 139.4679978 100.3420014
  45.3529992 141.1929978 102.0260014  45.3859992 141.7499978 102.9510014
  45.5259992 140.1289978 102.0830014  46.1759992 141.4209978 101.3650014
  42.8809992 140.9159978 102.1780014  43.2009992 139.9449978 102.5240014
  42.0099992 140.7459978 101.5610014  42.7379992 141.6229978 102.9820014
  46.8549992 145.3109978 103.6860014  44.4869992 146.1839978 103.5860014
  44.7349992 145.6829978  99.0100014  44.1479992 146.3599978  97.9760014
  44.7179992 147.1919978  97.2290014  42.7369992 145.8119978  97.7820014
  42.2649992 146.6569978  97.2370014  42.3009992 145.5419978  98.7680014
  42.7279992 144.6439978  96.7600014  43.2389992 143.7359978  97.1460014
  43.3849992 144.9399978  95.9150014  41.2959992 144.4199978  96.2760014
  40.8569992 145.3819978  95.9350014  40.7009992 144.1009978  97.1580014
  41.3289992 143.5649978  95.0510014  40.2659992 143.4399978  94.7520014
  41.6469992 142.5499978  95.3710014  42.2169992 144.0309978  93.8990014
  42.2089992 143.2639978  93.0960014  43.2579992 144.0489978  94.2870014
  41.7509992 145.3349978  93.2250014  41.6809992 146.0769978  94.0480014
  40.7549992 145.1229978  92.7810014  42.6429992 145.9059978  92.0600014
  42.0849992 146.8469978  91.8650014  42.5709992 145.2739978  91.1500014
  43.9539992 146.4069978  92.5130014  44.1359992 146.3439978  93.5960014
  44.9789992 146.7659978  91.7460014  45.8519992 146.8779978  92.4060014
  45.1309992 146.6489978  90.2350014  44.3749992 146.0149978  89.7240014
  46.0159992 146.0209978  89.9980014  45.0679992 148.0439978  89.5730014
  45.8389992 148.6689978  90.0720014  44.1139992 148.6019978  89.6860014
  45.3699992 148.1369978  88.0680014  46.4609992 147.9249978  88.0890014
  45.1839992 149.1919978  87.7740014  44.5539992 147.1629978  87.2240014
  43.5479992 147.6139978  87.3650014  44.8269992 146.1879978  87.6800014
  44.9569992 147.1119978  85.7680014  45.8999992 146.5619978  85.5610014
  45.2699992 148.1609978  85.5780014  43.8779992 146.8229978  84.7150014
  43.0899992 147.6029978  84.7900014  43.3229992 145.8969978  84.9760014
  44.4969992 146.6269978  83.3330014  43.6719992 146.2359978  82.6990014
  45.1709992 145.7739978  83.1030014  45.1659992 148.0029978  82.9790014
  45.0059992 148.2989978  81.9200014  46.2459992 147.8659978  83.2040014
  44.8189992 148.7299978  83.7430014  16.5199992 125.9129978  84.2320014
  15.6759992 126.5609978  83.9100014  16.5619992 125.0649978  83.5150014
  17.4149992 126.5339978  84.0140014  16.3829992 125.3099978  85.6210014
  15.3109992 125.1219978  85.8450014  16.8269992 124.2949978  85.5400014
  16.9179992 126.0549978  86.8540014  17.9979992 126.3159978  86.8750014
  16.3819992 127.0069978  87.0560014  16.6459992 125.2279978  88.1750014
  15.5369992 125.2119978  88.2400014  17.1719992 124.2569978  88.0630014
  17.2419992 125.9379978  89.4470014  17.2049992 125.0959978  90.1710014
  18.2579992 126.2859978  89.1610014  16.4169992 127.1149978  89.9470014
  16.4969992 127.9779978  89.2510014  15.3729992 126.7529978  90.0570014
  16.8359992 127.5409978  91.3900014  17.9069992 127.2789978  91.5290014
  16.7329992 128.6439978  91.4730014  16.0519992 126.6939978  92.3820014
  15.0189992 127.0979978  92.3130014  15.9819992 125.6429978  92.0290014
  16.6109992 126.7989978  93.7470014  17.5479992 126.2049978  93.8020014
  16.8329992 127.8579978  93.9990014  15.7619992 126.1919978  94.8810014
  14.7289992 126.5989978  94.8540014  15.6749992 125.1019978  94.6830014
  16.4879992 126.5169978  96.2320014  17.5869992 126.3689978  96.1620014
  16.2219992 127.5569978  96.5170014  15.9569992 125.6149978  97.3750014
  16.2429992 126.0569978  98.3540014  14.8529992 125.4969978  97.3720014
  16.6389992 124.2289978  97.3780014  16.7989992 123.8659978  96.3400014
  17.6579992 124.1409978  97.8120014  15.7179992 123.2849978  98.1460014
  14.7099992 123.3169978  97.6790014  16.0619992 122.2319978  98.0600014
  15.4939992 123.6509978  99.6400014  15.2249992 124.7129978  99.8220014
  14.6139992 123.0789978 100.0050014  16.6629992 123.3169978 100.5130014
  17.5439992 122.5289978 100.1460014  16.5479992 123.9309978 101.6890014
  17.5419992 123.5809978 102.6680014  16.9909992 123.3149978 103.5950014
  18.2869992 122.8059978 102.3850014  18.3219992 124.9559978 102.9450014
  19.0639992 124.6909978 103.7280014  17.3469992 125.9649978 103.5700014
  16.5729992 126.3129978 102.8530014  16.9009992 125.5309978 104.4900014
  18.0609992 127.0759978 103.9700014  17.3749992 128.4029978 104.4410014
  16.8199992 128.9279978 103.0450014  17.7229992 129.5519978 102.1120014
  18.2249992 130.4329978 102.5670014  18.5939992 128.8799978 101.9530014
  17.0919992 129.9619978 100.7780014  16.2059992 130.5599978 100.9330014
  17.8039992 130.5659978 100.2360014  16.7239992 128.8649978  99.7560014
  15.7199992 127.8609978 100.2990014  15.6969992 126.9659978  99.6960014
  15.9669992 127.5489978 101.3030014  14.7399992 128.3079978 100.2160014
  16.0789992 129.3909978  98.4910014  16.7039992 130.0539978  97.9100014
  15.6689992 128.5489978  97.9530014  15.2219992 130.0139978  98.7000014
  18.0079992 128.0639978  99.4080014  18.9209992 128.5909978  99.1760014
  17.7589992 127.3119978  98.6740014  18.3459992 127.5739978 100.3090014
  16.2119992 128.0729978 105.2840014  18.4339992 129.3599978 104.9200014
  18.9629992 125.3369978 101.6810014  20.2909992 125.0569978 101.6060014
  20.9949992 124.6329978 102.5380014  20.8589992 125.5789978 100.1900014
  20.6749992 126.6559978  99.9870014  20.2149992 125.1359978  99.4000014
  22.3799992 125.3359978 100.0500014  22.4329992 124.2539978  99.8020014
  23.0029992 125.5539978 100.9440014  22.8639992 126.0759978  98.7610014
  23.9729992 126.0119978  98.7490014  22.5279992 127.1239978  98.9140014
  22.3149992 125.5709978  97.3920014  21.2109992 125.6549978  97.4800014
  22.5009992 124.4999978  97.1670014  22.7409992 126.3819978  96.2190014
  23.8099992 126.1609978  96.0110014  22.5839992 127.4399978  96.5220014
  21.8449992 126.1799978  94.9920014  20.8309992 126.4329978  95.3680014
  21.8889992 125.0859978  94.8000014  22.2379992 126.9019978  93.7180014
  23.2229992 126.4889978  93.4100014  22.4139992 127.9849978  93.8900014
  21.2739992 126.5129978  92.6270014  20.6449992 125.6609978  92.9240014
  20.9999992 127.1039978  91.4510014  20.2729992 126.5889978  90.8060014
  21.5949992 128.3229978  90.8180014  22.0859992 128.1159978  89.8430014
  22.4429992 128.6739978  91.4430014  20.4569992 129.4219978  90.5900014
  20.9159992 130.3799978  90.2620014  19.9789992 129.6359978  91.5700014
  19.3769992 129.2259978  89.4450014  18.7169992 130.1149978  89.3510014
  18.7149992 128.3599978  89.6620014  20.0709992 129.0479978  88.0520014
  19.2419992 128.7649978  87.3690014  20.8949992 128.3039978  88.0240014
  20.5539992 130.3769978  87.3560014  21.1589992 130.8169978  88.1770014
  19.6829992 131.0279978  87.1290014  21.3269992 130.0439978  86.0790014
  21.8779992 129.0869978  86.2060014  21.9539992 130.9479978  85.9290014
  20.4709992 129.9529978  84.8270014  20.9479992 130.5149978  83.9960014
  19.6029992 130.6019978  85.0730014  20.0569992 128.5809978  84.4270014
  19.7959992 127.8999978  85.2650014  20.8879992 128.0579978  83.9080014
  19.1609992 128.7349978  83.7880014  24.1089992 136.7269978  84.9390014
  23.1919992 137.3269978  84.7540014  23.9259992 135.7889978  84.3720014
  25.0389992 137.1789978  84.5330014  24.4069992 136.3009978  86.3950014
  24.1339992 137.2349978  86.9320014  23.7669992 135.4579978  86.7350014
  25.8499992 135.8779978  86.6950014  26.2039992 134.9839978  86.1390014
  26.5659992 136.6479978  86.3360014  26.2369992 135.6319978  88.1820014
  27.3309992 135.4449978  88.2420014  26.0659992 136.5569978  88.7730014
  25.4949992 134.3899978  88.7450014  25.3669992 134.5079978  89.8420014
  24.5329992 134.4339978  88.1890014  26.2399992 133.0819978  88.4800014
  26.6319992 133.2649978  87.4570014  27.0979992 133.0029978  89.1810014
  25.3969992 131.8109978  88.4060014  24.5329992 131.9099978  87.7160014
  26.0889992 131.0849978  87.9280014  25.0599992 131.1909978  89.7150014
  24.5779992 130.1909978  89.6720014  25.9819992 131.0169978  90.3100014
  24.0869992 132.0239978  90.5330014  24.6599992 132.9309978  90.8220014
  23.2499992 132.2109978  89.8270014  23.5599992 131.4269978  91.8490014
  22.5899992 131.9239978  92.0630014  23.3029992 130.3879978  91.5490014
  24.5749992 131.4599978  93.0400014  25.5179992 130.9449978  92.7540014
  24.7869992 132.5159978  93.3120014  24.1469992 130.7239978  94.3470014
  23.1729992 131.0839978  94.7420014  24.0199992 129.6559978  94.0690014
  25.1099992 130.8289978  95.4640014  24.6089992 130.2199978  96.2470014
  26.1179992 130.4119978  95.2580014  25.3119992 132.1879978  96.0720014
  26.0529992 132.1799978  96.8990014  25.8309992 132.7919978  95.2970014
  23.9899992 132.9479978  96.5380014  23.2069992 132.9499978  95.7490014
  23.6009992 132.4149978  97.4320014  24.2809992 134.4209978  96.8700014
  23.6229992 135.3289978  96.3590014  25.4399992 134.6589978  97.6060014
  26.0069992 135.9589978  97.5180014  27.1099992 135.9149978  97.6410014
  25.7449992 136.4369978  96.5500014  25.4489992 136.7809978  98.6530014
  26.0989992 137.6779978  98.5760014  25.6569992 136.1219978 100.0690014
  26.7289992 135.9319978 100.2900014  25.3019992 136.9459978 100.7230014
  24.7959992 135.0379978 100.3490014  25.0199992 133.8719978 101.3660014
  23.4939992 133.3109978 101.6120014  22.4759992 133.9589978 100.9510014
  22.6539992 134.0889978  99.8620014  21.5829992 133.2999978 100.9750014
  22.0129992 135.2999978 101.5410014  22.7509992 136.0789978 101.4180014
  21.1399992 135.7119978 101.0590014  21.5229992 135.3369978 103.0240014
  20.3889992 134.3379978 103.2050014  20.7639992 133.3629978 102.9290014
  20.0439992 134.2999978 104.2270014  19.5469992 134.5829978 102.5750014
  22.5839992 135.0379978 104.0160014  22.8559992 133.9939978 104.0800014
  23.5279992 135.4689978 103.7170014  22.2669992 135.4539978 104.9600014
  21.1239992 136.7849978 103.1390014  20.6449992 137.2219978 102.2750014
  22.0059992 137.3969978 103.2530014  20.5379992 136.9279978 104.0350014
  25.7759992 132.7979978 100.6540014  25.5629992 134.4279978 102.6510014
  24.0949992 137.0829978  98.4320014  23.5979992 138.0789978  99.1210014
  24.2409992 138.9429978  99.7250014  22.0929992 138.0449978  99.1080014
  21.7889992 139.0779978  98.8380014  21.8049992 137.8719978 100.1670014
  21.4079992 137.0139978  98.0670014  21.8419992 136.0059978  98.2370014
  21.9029992 137.3059978  97.1160014  19.8869992 137.1149978  97.9180014
  19.6689992 138.1709978  97.6500014  19.3789992 136.8099978  98.8580014
  19.4419992 136.1459978  96.8090014  18.3449992 136.2469978  96.6640014
  19.7289992 135.1039978  97.0640014  20.1199992 136.3799978  95.4220014
  19.8389992 135.6559978  94.6280014  21.2289992 136.3089978  95.4570014
  19.7199992 137.7719978  94.9050014  20.0669992 138.4999978  95.6700014
  18.6109992 137.8019978  94.8400014  20.1849992 137.9309978  93.4440014
  19.7229992 138.9069978  93.1850014  19.7339992 137.0969978  92.8650014
  21.6739992 137.9919978  93.2340014  22.0859992 138.9349978  93.6230014
  22.4519992 137.1659978  92.4550014  23.5479992 137.2509978  92.5030014
  22.0149992 135.9389978  91.6910014  20.9189992 135.7759978  91.7730014
  22.6079992 135.0299978  91.9260014  22.2969992 136.1489978  90.1430014
  22.1059992 135.1549978  89.6860014  23.2979992 136.5909978  89.9500014
  21.1799992 137.0189978  89.4800014  20.6459992 137.7459978  90.1290014
  20.3119992 136.3799978  89.2090014  21.7109992 137.7649978  88.2050014
  22.2689992 137.0089978  87.6130014  22.3729992 138.5799978  88.5700014
  20.5969992 138.3559978  87.3620014  21.0559992 138.9759978  86.5630014
  19.9329992 139.0229978  87.9530014  19.4849992 137.4169978  86.8130014
  18.8989992 138.0779978  86.1390014  18.9279992 137.0749978  87.7120014
  19.9909992 136.2849978  85.8100014  20.8319992 135.7849978  86.3360014
  20.2809992 136.7559978  84.8470014  19.0509992 135.2369978  85.3690014
  19.4319992 134.5069978  84.6230014  18.1209992 135.6759978  84.9490014
  18.6609992 134.6559978  86.2330014   6.7839992 123.0469978  85.7140014
   6.0059992 123.4659978  85.0400014   6.8819992 121.9579978  85.5180014
   7.7579992 123.4779978  85.3980014   6.4009992 123.3069978  87.2090014
   6.1989992 124.3939978  87.3170014   5.4789992 122.7379978  87.4530014
   7.4589992 123.0119978  88.2580014   7.0169992 123.3879978  89.2060014
   7.4709992 121.9219978  88.4740014   8.8969992 123.5449978  88.1550014
   9.2589992 123.2769978  87.1390014   8.9889992 124.6429978  88.0160014
   9.8689992 123.0079978  89.2230014   9.9949992 121.9139978  89.0710014
  10.9259992 123.2329978  88.9640014   9.5059992 123.4209978  90.6240014
   9.2899992 124.5109978  90.6040014   8.6159992 122.8359978  90.9400014
  10.6689992 123.1939978  91.5570014  10.7839992 122.0989978  91.7080014
  11.5929992 123.5879978  91.0830014  10.5689992 123.9779978  92.8940014
  10.4959992 125.0679978  92.6930014   9.6139992 123.5779978  93.2970014
  11.8009992 123.6029978  93.8160014  12.3989992 122.7339978  93.4680014
  12.4989992 124.4509978  93.6470014  11.4229992 123.5959978  95.3260014
  10.4949992 123.0029978  95.4770014  12.1739992 123.0059978  95.8930014
  11.2769992 125.0169978  95.9020014  12.3469992 125.2589978  96.0810014
  10.8819992 125.6979978  95.1180014  10.3109992 125.1139978  97.1060014
  10.9079992 124.7879978  97.9850014  10.2089992 126.1749978  97.4200014
   8.9349992 124.4179978  97.0270014   8.1889992 124.9289978  96.3820014
   8.9829992 123.3529978  96.7130014   8.3609992 124.4169978  98.3850014
   8.9039992 123.7969978  99.1310014   8.4359992 125.4239978  98.8490014
   6.8229992 124.0319978  98.3800014   6.3269992 124.1619978  99.3660014
   6.2709992 124.6519978  97.6420014   6.6299992 122.4969978  98.0600014
   6.8339992 121.9759978  96.9580014   6.0239992 121.8139978  99.1000014
   6.0819992 120.3839978  99.1320014   5.1379992 120.0389978  99.6070014
   5.9239992 119.8799978  98.1550014   7.4529992 120.0289978  99.8990014
   7.4949992 118.9269978 100.0340014   7.4559992 120.6219978 101.3750014
   6.4339992 120.4159978 101.7580014   8.1769992 120.0089978 101.9570014
   7.7459992 122.0029978 101.5020014   8.6519992 122.5739978 102.6270014
  10.0639992 122.0139978 102.2720014  10.6519992 122.1539978 101.0060014
  11.0249992 121.1349978 100.7650014   9.9439992 122.5209978 100.2330014
  11.7989992 123.2059978 101.0470014  12.0019992 123.5459978 100.0420014
  11.4769992 124.1129978 101.5370014  13.1489992 122.8559978 101.7120014
  12.9109992 122.4029978 103.1450014  12.5529992 121.3849978 103.0920014
  13.7989992 122.4999978 103.7520014  12.0969992 122.9459978 103.6020014
  13.8959992 121.7509978 100.9490014  14.8809992 121.5599978 101.3490014
  13.3479992 120.8209978 100.9340014  13.9229992 121.9989978  99.8980014
  13.9679992 124.1339978 101.6750014  14.9189992 123.9879978 102.1650014
  13.3839992 124.8109978 102.2810014  14.2329992 124.4889978 100.6900014
   8.5989992 124.0279978 102.6850014   8.2749992 121.8289978 103.8850014
   8.5559992 120.5999978  99.1230014   9.1959992 119.7419978  98.3000014
   8.7359992 118.6599978  97.9610014  10.5129992 120.3169978  97.8410014
  11.2289992 120.3869978  98.6880014  10.3729992 121.3279978  97.4010014
  11.2039992 119.4049978  96.7370014  10.6119992 119.5699978  95.8110014
  11.0289992 118.3209978  96.9100014  12.6939992 119.7479978  96.4270014
  13.3259992 119.4069978  97.2750014  12.7919992 120.8549978  96.4310014
  13.2149992 119.1569978  95.0840014  13.4619992 118.0769978  95.1660014
  14.1899992 119.6529978  94.8910014  12.2589992 119.4319978  93.9150014
  11.8819992 120.4749978  93.8530014  11.4029992 118.7349978  94.0420014
  13.0329992 119.1749978  92.6090014  13.5079992 118.1719978  92.6540014
  13.9509992 119.7789978  92.4440014  12.2259992 119.2319978  91.3140014
  12.7869992 119.1799978  90.3570014  11.5579992 120.1199978  91.2870014
  11.2269992 118.0779978  91.4210014  11.6359992 117.1769978  91.9000014
   9.8679992 118.0529978  91.0530014   9.2929992 117.1299978  91.2150014
   9.0889992 119.2079978  90.4250014   9.3279992 120.2479978  90.7350014
   8.0479992 119.0529978  90.7780014   8.9519992 119.0939978  88.8860014
   8.2799992 119.8729978  88.4670014   8.4879992 118.1069978  88.6720014
  10.2279992 118.9539978  88.1090014  10.8669992 118.2289978  88.6580014
  10.7669992 119.9239978  88.0730014   9.9909992 118.5059978  86.7060014
   9.5129992 117.5039978  86.6710014  10.9429992 118.3309978  86.1590014
   9.1849992 119.4849978  85.7810014   9.9049992 120.2899978  85.5230014
   8.2479992 119.8939978  86.2160014   8.7039992 118.8019978  84.4370014
   8.3549992 117.7769978  84.6880014   9.5449992 118.8789978  83.7150014
   7.6009992 119.6499978  83.7650014   8.0099992 120.6799978  83.6830014
   6.6679992 119.6829978  84.3670014   7.2629992 119.2109978  82.3400014
   7.0229992 118.1269978  82.3000014   8.1239992 119.3779978  81.6580014
   6.4229992 119.8119978  81.9290014  34.0939992   8.4909978  84.5140014
  33.1059992   8.2179978  84.9430014  34.3309992   7.8599978  83.6320014
  34.0859992   9.5679978  84.2390014  35.0659992   8.2289978  85.6460014
  36.0799992   8.6409978  85.4580014  34.6589992   8.7019978  86.5660014
  35.2149992   6.6899978  85.8850014  35.4539992   6.1439978  84.9480014
  36.0619992   6.4709978  86.5700014  34.0159992   5.9409978  86.4270014
  33.1829992   6.1349978  85.7180014  34.2689992   4.8959978  86.1490014
  33.6249992   6.2749978  87.8710014  33.8359992   7.3479978  88.0690014
  32.5719992   5.9609978  88.0350014  34.3379992   5.4499978  88.9330014
  33.9999992   4.4179978  89.1670014  35.3789992   5.3439978  88.5610014
  34.5669992   6.1649978  90.2970014  35.2549992   5.5299978  90.8950014
  35.2549992   7.0299978  90.1820014  33.3639992   6.5229978  91.0810014
  32.9149992   7.3029978  90.4290014  32.5169992   5.8039978  91.0630014
  33.4889992   7.1699978  92.4450014  34.3569992   7.8639978  92.4500014
  32.5139992   7.6419978  92.6910014  33.5199992   6.0849978  93.5250014
  32.5119992   5.6249978  93.4350014  34.2249992   5.2739978  93.2420014
  33.6369992   6.6059978  94.9790014  34.6609992   6.9679978  95.2150014
  32.8959992   7.4109978  95.1710014  33.3359992   5.5099978  96.0430014
  32.2599992   5.2399978  96.1060014  33.8929992   4.6389978  95.6380014
  33.6429992   6.0389978  97.4940014  34.6299992   6.5489978  97.5160014
  32.9599992   6.8099978  97.9110014  33.6859992   4.9429978  98.5600014
  32.7799992   4.3049978  98.4810014  34.4959992   4.1929978  98.4370014
  33.7029992   5.3939978 100.0200014  33.3139992   6.4219978 100.1830014
  33.0479992   4.6049978 100.4470014  35.1269992   5.2669978 100.5490014
  36.1519992   5.1159978  99.8690014  35.0959992   5.4349978 101.8650014
  36.3779992   5.5979978 102.5260014  36.1519992   5.1219978 103.5040014
  37.2989992   5.1959978 102.0530014  36.6149992   7.1809978 102.8010014
  37.6309992   7.2349978 103.2480014  35.7159992   7.6529978 103.9350014
  35.5629992   6.7759978 104.5990014  36.1899992   8.3979978 104.6090014
  34.5259992   8.1829978 103.3160014  33.4369992   8.9419978 104.1750014
  32.6569992   9.8789978 103.0800014  31.9889992   9.3369978 101.9940014
  32.4719992   8.4349978 101.5610014  31.1269992   8.8239978 102.4730014
  31.5429992  10.3219978 100.9320014  30.6969992  10.0109978 100.3380014
  31.1299992  11.1389978 101.5040014  32.5469992  10.8949978 100.0180014
  32.8609992   9.9409978  98.9330014  33.2169992   9.0109978  99.3510014
  31.9529992   9.6329978  98.4380014  33.5359992  10.3099978  98.1750014
  31.9989992  12.0909978  99.4140014  31.4079992  12.6069978 100.1570014
  32.8449992  12.6459978  99.0360014  31.3139992  11.8329978  98.6200014
  33.8119992  11.2489978 100.8220014  34.2699992  10.3899978 101.2910014
  33.5099992  12.0249978 101.5100014  34.6709992  11.5289978 100.2310014
  32.5399992   7.8619978 104.6480014  34.0699992   9.7949978 105.1740014
  36.3949992   7.8979978 101.5610014  37.0459992   9.0129978 101.4600014
  37.6699992   9.6369978 102.3590014  36.9609992   9.4389978 100.0460014
  36.0019992   9.1909978  99.5430014  37.7109992   8.8389978  99.4870014
  37.3989992  10.8659978  99.7020014  38.4729992  10.9989978  99.9500014
  36.6919992  11.5629978 100.2010014  37.4269992  11.0339978  98.1620014
  38.2499992  10.3719978  97.8180014  37.7569992  12.0489978  97.8530014
  36.0469992  10.8349978  97.4250014  35.2389992  11.4759978  97.8380014
  35.6489992   9.7969978  97.4250014  36.1949992  11.1369978  95.9060014
  37.1919992  10.7539978  95.5990014  36.2109992  12.2399978  95.7720014
  35.1579992  10.5619978  94.9750014  35.0779992   9.4599978  95.0910014
  35.5089992  10.6859978  93.9280014  33.7689992  11.1919978  95.1640014
  33.8189992  12.2699978  94.9010014  33.4589992  11.3049978  96.2250014
  32.7919992  10.5619978  94.2580014  32.3069992   9.6129978  94.5290014
  32.5359992  11.0399978  92.9750014  31.8299992  10.4459978  92.3760014
  33.1299992  12.2299978  92.2870014  34.1309992  12.5499978  92.6460014
  32.5079992  13.1489978  92.3570014  33.4409992  12.1479978  90.7540014
  33.8219992  13.1229978  90.3810014  32.5509992  12.0149978  90.1020014
  34.5319992  11.1209978  90.4250014  34.4889992  10.9579978  89.3270014
  34.4379992  10.2159978  91.0630014  36.0289992  11.5219978  90.5590014
  36.7209992  10.6879978  90.3120014  36.2659992  11.7999978  91.6080014
  36.4509992  12.6309978  89.4910014  37.5119992  12.9209978  89.6480014
  35.9259992  13.5789978  89.7350014  36.3469992  12.1789978  88.0180014
  35.2959992  12.0259978  87.6940014  36.8349992  11.1819978  87.9840014
  37.0719992  13.0259978  86.9730014  38.1739992  13.1249978  87.0770014
  36.6829992  14.0539978  87.1360014  36.6999992  12.7729978  85.5220014
  37.2859992  13.3379978  84.7660014  35.6519992  13.1309978  85.4280014
  36.8859992  11.7029978  85.2840014  22.0659992  20.8709978  80.4430014
  22.1649992  20.7829978  79.3400014  22.9199992  21.5369978  80.6930014
  21.0979992  21.3289978  80.7400014  22.2519992  19.4289978  81.0700014
  21.5649992  18.6979978  80.5930014  23.2859992  19.1569978  80.7690014
  22.0769992  19.4479978  82.6150014  21.0489992  19.7149978  82.9420014
  22.2239992  18.3569978  82.7620014  23.0789992  20.3299978  83.4440014
  24.0329992  20.2529978  82.8810014  22.6099992  21.3219978  83.2690014
  23.3259992  20.0469978  84.8820014  22.4019992  20.3489978  85.4180014
  23.5039992  18.9669978  85.0750014  24.5299992  20.9369978  85.2450014
  25.4729992  20.5329978  84.8190014  24.3759992  21.9429978  84.7980014
  24.8339992  21.1029978  86.7180014  25.7419992  21.7429978  86.7190014
  24.0379992  21.5959978  87.3150014  25.1769992  19.7499978  87.4380014
  25.6379992  19.0749978  86.6850014  25.9129992  19.9549978  88.2450014
  23.8959992  19.1389978  88.0850014  23.5909992  19.8379978  88.8930014
  23.1009992  19.0929978  87.3110014  24.1339992  17.7999978  88.7100014
  24.6889992  17.0979978  88.0530014  24.9379992  17.9589978  89.4600014
  22.8789992  17.0849978  89.2400014  22.0979992  17.0449978  88.4510014
  23.0869992  16.0399978  89.5550014  22.2249992  17.6249978  90.4680014
  21.4109992  16.9079978  90.7110014  22.9369992  17.6969978  91.3180014
  21.5439992  18.9689978  90.3660014  22.3339992  19.7479978  90.4260014
  20.8219992  19.1159978  89.5350014  20.7309992  19.2139978  91.7060014
  20.4609992  20.2819978  91.5590014  19.8109992  18.5959978  91.6240014
  21.5289992  19.1909978  92.9660014  22.1619992  18.2789978  93.0200014
  22.2619992  20.0229978  93.0210014  20.5919992  19.2629978  94.2210014
  19.8429992  18.3699978  94.5140014  20.7489992  20.4309978  94.8110014
  19.7699992  20.7859978  95.8480014  19.4439992  21.8329978  95.6710014
  18.8409992  20.1889978  95.9670014  20.5889992  20.6999978  97.1650014
  20.7289992  19.6469978  97.4910014  19.6809992  21.4199978  98.2700014
  19.5399992  22.4319978  97.8350014  18.7519992  20.8419978  98.4640014
  20.5019992  21.6639978  99.4670014  20.9339992  20.4039978 100.2770014
  21.5969992  20.8699978 101.6470014  21.7519992  22.2139978 101.9460014
  22.4089992  22.6329978 101.1540014  20.7819992  22.7539978 101.9600014
  22.3529992  22.4569978 103.3940014  22.4719992  23.5089978 103.6070014
  21.6409992  22.1899978 104.1610014  23.6259992  21.7289978 103.7610014
  24.1079992  21.9559978 105.2080014  23.3719992  21.8739978 105.9950014
  24.8099992  21.2469978 105.6200014  24.5349992  22.9229978 105.4280014
  23.3839992  20.2449978 103.6300014  24.1419992  19.7029978 104.1750014
  22.4859992  20.0279978 104.1900014  23.3489992  19.8989978 102.6070014
  24.7399992  22.1499978 102.8740014  24.6339992  21.8989978 101.8290014
  25.6029992  21.5939978 103.2100014  24.8489992  23.1949978 103.1230014
  19.6479992  19.8079978 100.6700014  21.9869992  19.6399978  99.6310014
  21.8429992  21.5209978  97.0890014  22.9819992  20.9489978  96.6720014
  23.2449992  19.7659978  96.7030014  23.8309992  22.0379978  96.1120014
  24.8469992  21.8349978  96.5110014  23.5439992  23.0709978  96.4040014
  23.9079992  21.9379978  94.5930014  22.8749992  22.2539978  94.3330014
  24.0889992  20.9439978  94.1290014  24.9179992  22.9369978  94.0260014
  25.9059992  22.6289978  94.4300014  24.7269992  23.9799978  94.3580014
  25.1159992  22.9419978  92.4370014  25.1859992  21.9539978  91.9350014
  26.0299992  23.4579978  92.0720014  23.8379992  23.6019978  91.8490014
  23.4709992  24.4339978  92.4870014  22.9779992  22.8979978  91.8280014
  24.1099992  24.2729978  90.4700014  24.0849992  23.4249978  89.7540014
  25.1569992  24.6419978  90.5000014  23.2829992  25.5119978  90.0530014
  23.7669992  26.0109978  89.1860014  23.3999992  26.2219978  90.9000014
  21.7779992  25.2919978  89.8140014  21.1059992  25.3779978  90.6810014
  21.2799992  24.9669978  88.6430014  20.2419992  24.6049978  88.6830014
  22.0349992  24.6639978  87.3740014  23.0959992  24.3789978  87.5390014
  21.8899992  25.5059978  86.6640014  21.5939992  23.4039978  86.5390014
  21.6929992  22.4539978  87.1060014  22.2919992  23.3969978  85.6750014
  20.1549992  23.6209978  85.9760014  20.3099992  24.4829978  85.2920014
  19.3839992  23.9179978  86.7180014  19.7639992  22.5549978  85.0160014
  19.4859992  21.7289978  85.7050014  20.5639992  22.3049978  84.2870014
  18.5759992  22.9049978  84.1990014  18.9499992  23.8739978  83.8030014
  17.6679992  23.1229978  84.8010014  18.1759992  22.0089978  83.0300014
  17.8119992  21.0109978  83.3550014  19.1099992  21.8399978  82.4520014
  17.1339992  22.6309978  82.0820014  17.1389992  23.7129978  82.3330014
  16.1339992  22.2329978  82.3570014  17.4319992  22.4669978  80.5990014
  18.3139992  23.0739978  80.3020014  16.5839992  22.9889978  80.1060014
  17.6139992  21.4149978  80.2910014 125.7879992 135.3959978  83.4380014
 125.9979992 134.8719978  82.4810014 125.8969992 136.4819978  83.2340014
 124.7739992 135.2469978  83.8690014 126.9549992 135.2269978  84.5010014
 127.9329992 135.1989978  83.9760014 127.0319992 136.0999978  85.1830014
 126.6629992 133.9479978  85.3300014 126.4089992 133.0709978  84.6970014
 127.6139992 133.7219978  85.8570014 125.5229992 134.0199978  86.4360014
 124.4879992 134.0899978  86.0380014 125.6489992 133.0529978  86.9690014
 125.5839992 135.2129978  87.4560014 126.4719992 135.8259978  87.1920014
 124.6979992 135.8799978  87.5210014 125.6169992 134.5909978  88.8140014
 124.8329992 133.8239978  88.9890014 126.5999992 134.1319978  89.0560014
 125.4259992 135.7319978  89.9230014 124.3659992 136.0189978  89.7600014
 125.5859992 135.1809978  90.8750014 126.2329992 137.0229978  89.8380014
 127.3259992 136.8819978  89.6970014 125.8619992 137.5159978  88.9140014
 126.1289992 137.9489978  91.0760014 126.8479992 137.6379978  91.8630014
 126.3579992 138.9709978  90.7030014 124.8469992 137.9659978  91.9220014
 124.7529992 139.0099978  92.2900014 123.9799992 137.7459978  91.2630014
 124.7669992 137.1369978  93.1720014 123.8209992 137.1209978  93.7560014
 124.9659992 136.0999978  92.8260014 125.7869992 137.5349978  94.3230014
 126.7849992 137.4859978  93.8380014 125.5519992 138.5829978  94.6090014
 125.7519992 136.7219978  95.6060014 126.0049992 135.6549978  95.4300014
 126.5069992 137.0579978  96.3480014 124.3459992 136.6509978  96.3010014
 123.9389992 137.6819978  96.2320014 123.5739992 136.1249978  95.7000014
 124.3639992 136.3309978  97.8440014 124.8359992 137.2459978  98.2630014
 123.3079992 136.2669978  98.1830014 125.0629992 135.0189978  98.0670014
 124.9569992 134.0189978  97.3850014 125.5879992 135.0799978  99.3000014
 126.2349992 133.8779978  99.7680014 125.6389992 133.4319978 100.5930014
 126.2809992 132.9829978  99.1120014 127.5839992 134.2879978 100.3300014
 128.1119992 133.3959978 100.7300014 127.4899992 135.3619978 101.4310014
 126.7399992 136.1279978 101.1380014 127.1819992 134.9659978 102.4220014
 128.7699992 136.0159978 101.4990014 128.9369992 137.1529978 102.5740014
 127.5979992 138.0609978 102.3850014 127.6679992 139.4439978 101.9810014
 128.4319992 139.9769978 102.5860014 127.9879992 139.6569978 100.9390014
 126.2759992 140.2109978 102.2270014 126.1429992 140.3149978 103.2940014
 126.2559992 141.2309978 101.8730014 125.0379992 139.5349978 101.6040014
 124.7289992 138.2029978 102.2480014 123.9909992 137.7159978 101.6290014
 125.6139992 137.5849978 102.2930014 124.3839992 138.4129978 103.2500014
 123.7239992 140.3479978 101.6990014 123.6809992 141.2499978 101.1070014
 122.9509992 139.6699978 101.3690014 123.4819992 140.4549978 102.7460014
 125.2259992 139.3389978 100.1040014 126.0279992 138.6399978  99.9180014
 125.4359992 140.2439978  99.5530014 124.3529992 138.8669978  99.6780014
 128.7869992 136.5519978 103.9090014 130.0949992 138.0139978 102.2760014
 128.3939992 134.7929978  99.3080014 128.6479992 133.9489978  98.2990014
 128.8239992 132.7499978  98.3280014 128.7689992 134.7039978  97.0080014
 128.9209992 135.7989978  97.1160014 127.7259992 134.8109978  96.6420014
 129.7839992 134.2929978  95.9170014 129.7579992 133.1829978  95.9550014
 130.8359992 134.5399978  96.1750014 129.3119992 134.8009978  94.5070014
 128.2479992 134.5979978  94.2570014 129.8299992 134.2619978  93.6850014
 129.5509992 136.2899978  94.2100014 129.0529992 136.8629978  95.0220014
 129.2759992 136.4849978  93.1520014 131.0289992 136.8849978  94.1790014
 131.4249992 136.7749978  95.2110014 131.0819992 137.9529978  93.8780014
 132.0359992 136.0549978  93.3350014 131.7499992 134.9839978  93.4050014
 133.0739992 136.1839978  93.7100014 132.0309992 136.5189978  91.8890014
 131.0069992 136.4419978  91.4660014 132.7049992 136.0089978  91.1680014
 132.4499992 137.9629978  91.8040014 133.3979992 138.2189978  92.3000014
 131.8899992 139.0339978  91.2300014 132.4949992 139.9529978  91.2450014
 130.6649992 139.1289978  90.4010014 129.9659992 139.9549978  90.6530014
 130.0949992 138.2089978  90.6550014 130.8469992 139.2899978  88.8880014
 131.4399992 138.4549978  88.4580014 131.4649992 140.2079978  88.7820014
 129.4379992 139.4949978  88.2570014 128.9929992 140.3629978  88.7880014
 128.7839992 138.6509978  88.5660014 129.4609992 139.8159978  86.7230014
 130.1619992 140.6589978  86.5450014 128.4029992 140.0609978  86.4860014
 129.7509992 138.5329978  85.8760014 129.1249992 137.7259978  86.3130014
 130.8329992 138.2809978  85.8980014 129.5319992 138.6889978  84.3470014
 129.6429992 137.7199978  83.8160014 130.4799992 139.1759978  84.0320014
 128.3129992 139.4289978  83.6850014 128.7369992 140.4559978  83.6460014
 127.4049992 139.3899978  84.3240014 127.8109992 138.8979978  82.3040014
 128.5619992 139.2689978  81.5750014 126.8919992 139.4159978  81.9540014
 127.6429992 137.8049978  82.1970014 136.7509992 127.1199978  85.5040014
 136.6989992 128.1699978  85.8630014 135.8139992 126.8139978  84.9920014
 137.5559992 127.1059978  84.7390014 136.8839992 126.1029978  86.6140014
 135.8909992 126.0779978  87.1100014 137.0579992 125.1049978  86.1570014
 138.0109992 126.3649978  87.5500014 138.0279992 125.6879978  88.4300014
 138.9269992 126.2599978  86.9300014 138.1129992 127.7939978  88.1200014
 138.1739992 128.5749978  87.3320014 137.1499992 127.9449978  88.6520014
 139.2619992 127.8569978  89.1680014 139.0909992 126.9409978  89.7740014
 140.2339992 127.6949978  88.6550014 139.2319992 129.1379978  89.9860014
 139.5439992 130.0239978  89.3920014 138.2219992 129.2359978  90.4370014
 140.2179992 129.0649978  91.2530014 139.8579992 128.1539978  91.7780014
 141.2949992 128.8829978  91.0550014 140.1169992 130.4199978  92.0740014
 140.9669992 131.0979978  91.8490014 139.1929992 130.8749978  91.6580014
 140.0199992 130.1459978  93.5830014 139.0579992 129.6359978  93.8040014
 140.8319992 129.4339978  93.8430014 140.2099992 131.4329978  94.3910014
 141.1359992 131.9369978  94.0420014 139.2579992 131.9519978  94.1470014
 140.3519992 131.3739978  95.9410014 141.4249992 131.1219978  96.0810014
 140.1119992 132.3909978  96.3180014 139.3169992 130.4119978  96.5870014
 139.6119992 129.3619978  96.3750014 139.3149992 130.4689978  97.6970014
 137.8509992 130.6519978  96.1080014 137.8139992 131.7609978  96.0670014
 137.7629992 130.4109978  95.0270014 136.7759992 130.0539978  96.9480014
 136.9719992 128.9609978  96.9140014 137.0899992 130.3139978  97.9820014
 135.3289992 130.3269978  96.5330014 135.0159992 131.3429978  96.8560014
 135.3739992 130.4249978  95.4270014 134.3389992 129.2609978  96.9610014
 133.3939992 128.8339978  96.2770014 134.5689992 129.0759978  98.2330014
 133.7169992 128.1609978  98.9840014 133.0679992 128.8339978  99.5830014
 133.1009992 127.4569978  98.3840014 134.6129992 127.4119978 100.0160014
 133.9639992 126.7799978 100.6590014 135.4419992 128.2889978 101.0030014
 136.3009992 128.7779978 100.4970014 134.7519992 129.0129978 101.4880014
 135.8859992 127.3019978 101.9560014 136.4069992 127.7719978 103.3790014
 137.9539992 127.9699978 102.9950014 138.8419992 126.9329978 102.7540014
 139.1019992 126.4479978 103.7190014 138.5259992 126.1289978 102.0550014
 140.0599992 127.5739978 102.0400014 140.5709992 128.2859978 102.6710014
 140.7349992 126.7469978 101.8760014 139.8129992 128.2509978 100.6830014
 139.1099992 127.3199978  99.7200014 139.6899992 126.4239978  99.5540014
 138.2309992 126.8509978 100.1350014 138.9069992 127.7969978  98.7720014
 138.9409992 129.5159978 100.8940014 138.1129992 129.2769978 101.5450014
 139.5959992 130.2289978 101.3710014 138.5749992 129.8169978  99.9230014
 141.1619992 128.6969978 100.0530014 141.5779992 129.3649978 100.7930014
 140.9609992 129.2409978  99.1420014 141.7639992 127.8149978  99.8890014
 135.7789992 129.0349978 103.6870014 136.0789992 126.7239978 104.3470014
 135.5509992 126.5349978  99.2950014 135.0749992 125.5049978  98.5660014
 133.9079992 125.2879978  98.3520014 136.1909992 124.7089978  97.8840014
 135.5959992 123.8889978  97.4280014 136.9249992 124.3129978  98.6180014
 136.9619992 125.5919978  96.8530014 137.9379992 125.2039978  96.4920014
 137.1509992 126.6209978  97.2270014 136.1269992 125.7109978  95.5340014
 135.1159992 126.0849978  95.8050014 135.9009992 124.7179978  95.0900014
 136.6529992 126.5689978  94.3290014 137.6089992 126.0999978  94.0150014
 136.9149992 127.5399978  94.8020014 135.6709992 126.8189978  93.1200014
 134.9059992 127.3499978  93.7260014 135.3039992 125.8479978  92.7230014
 136.0689992 127.7089978  91.9390014 135.4729992 127.4659978  91.0330014
 137.1309992 127.5459978  91.6560014 136.0279992 129.2319978  92.1880014
 136.7289992 129.8019978  91.5410014 136.4449992 129.4319978  93.1980014
 134.6339992 129.6729978  92.1060014 134.0399992 129.5609978  93.0250014
 133.9929992 130.2499978  91.1170014 132.9219992 130.4719978  91.2350014
 134.6289992 130.6489978  89.8420014 135.6889992 130.3169978  89.7940014
 134.6539992 131.7529978  89.7200014 133.7999992 130.0469978  88.6500014
 132.7169992 130.2449978  88.8010014 133.9349992 128.9459978  88.7070014
 134.3929992 130.3899978  87.3240014 135.4679992 130.1359978  87.4410014
 134.3019992 131.4749978  87.1000014 133.6199992 129.5459978  86.3040014
 132.5589992 129.8699978  86.2350014 133.6609992 128.4889978  86.6460014
 134.0069992 129.6629978  84.7670014 135.1019992 129.6429978  84.5780014
 133.6029992 130.5739978  84.2750014 133.5009992 128.4609978  83.9490014
 132.4279992 128.2729978  83.7290014 133.9089992 127.5869978  84.5020014
 134.1709992 128.4439978  82.5490014 133.7349992 127.5479978  82.0580014
 135.2529992 128.2239978  82.6750014 133.8999992 129.5229978  81.4930014
 132.8119992 129.7449978  81.5390014 134.4909992 129.3949978  80.5610014
 134.3899992 130.4399978  81.8830014 127.1519992   0.0789978  84.1770014
 127.9329992  -0.4360022  83.5780014 126.5109992   0.7829978  83.6050014
 126.4999992  -0.6870022  84.6490014 127.7729992   0.8279978  85.4020014
 128.4169992   0.1129978  85.9570014 128.3599992   1.6559978  84.9520014
 126.8239992   1.3149978  86.4170014 126.0199992   1.8679978  85.8840014
 126.3309992   0.4379978  86.8880014 127.4779992   2.1989978  87.5420014
 128.3799992   1.7429978  88.0020014 127.7249992   3.1799978  87.0840014
 126.4959992   2.4189978  88.7440014 125.4349992   2.2879978  88.4420014
 126.6679992   1.5779978  89.4500014 126.7189992   3.6299978  89.5850014
 127.8119992   3.8029978  89.4850014 126.1409992   4.3799978  89.0040014
 126.2689992   3.5429978  91.0280014 126.7989992   2.6829978  91.4910014
 126.6229992   4.4659978  91.5330014 124.8019992   3.3549978  91.2170014
 124.2809992   4.2339978  90.7820014 124.3959992   2.3859978  90.8550014
 124.2869992   3.2999978  92.7040014 124.8289992   2.5099978  93.2660014
 124.4639992   4.2709978  93.2150014 122.7869992   3.0229978  92.8220014
 122.2899992   3.8579978  92.2830014 122.5399992   2.0349978  92.3790014
 122.3219992   3.1539978  94.2770014 122.6119992   4.1719978  94.6140014
 121.2199992   3.1079978  94.4160014 123.0939992   2.2739978  95.3050014
 124.1759992   2.5269978  95.3010014 122.7579992   2.4549978  96.3480014
 122.8079992   0.8279978  95.0610014 121.7189992   0.6739978  95.2180014
 123.0859992   0.6119978  94.0070014 123.7249992  -0.1200022  95.9240014
 124.7479992  -0.0840022  95.4920014 123.8099992   0.2119978  96.9810014
 123.2629992  -1.5680022  95.7100014 122.3619992  -1.7150022  96.3440014
 122.9959992  -1.8100022  94.6590014 124.4329992  -2.4170022  96.1880014
 125.0169992  -3.2810022  95.4960014 124.7309992  -2.1630022  97.4640014
 125.8669992  -2.8030022  98.0860014 125.5309992  -3.6700022  98.6940014
 126.7249992  -2.9620022  97.3980014 126.5859992  -1.8640022  99.0890014
 127.3889992  -2.4740022  99.5540014 125.6719992  -1.4000022 100.2050014
 124.8119992  -0.7960022  99.8450014 125.1099992  -2.2180022 100.7030014
 126.3769992  -0.6470022 101.1940014 126.6219992   0.8839978 101.2140014
 126.0039992   1.1749978 102.6910014 124.6759992   0.8079978 103.0140014
 124.5209992  -0.2790022 102.8420014 124.5449992   0.8909978 104.1140014
 123.4719992   1.5069978 102.2490014 123.7069992   1.4039978 101.2000014
 122.5939992   0.8949978 102.3960014 123.2389992   3.0009978 102.5700014
 122.6529992   3.2519978 103.9950014 121.7389992   2.6889978 104.1110014
 123.4339992   2.8649978 104.6330014 122.6359992   4.3129978 104.1940014
 124.4969992   3.7979978 102.5620014 125.1289992   3.4969978 101.7390014
 124.3369992   4.8619978 102.6530014 125.0789992   3.6429978 103.4580014
 122.2459992   3.5389978 101.5780014 122.7479992   3.5509978 100.6220014
 121.8569992   4.5009978 101.8760014 121.4499992   2.8289978 101.4110014
 128.1009992   1.0999978 101.2870014 125.8579992   1.5999978 100.1530014
 127.0059992  -0.7630022  98.3330014 128.2829992  -0.8010022  98.0160014
 129.0059992  -1.7520022  98.2100014 128.7849992   0.4139978  97.2800014
 129.8929992   0.4259978  97.3610014 128.4259992   1.2969978  97.8510014
 128.2989992   0.5029978  95.7820014 128.6529992   1.4589978  95.3400014
 127.2059992   0.6949978  95.7510014 128.6019992  -0.7280022  94.8380014
 128.0289992  -1.5990022  95.2220014 129.6889992  -0.9260022  94.9520014
 128.1609992  -0.4330022  93.3460014 128.4259992  -1.3560022  92.7870014
 128.7369992   0.4609978  93.0250014 126.6479992  -0.3770022  93.1430014
 126.2409992   0.5499978  93.6000014 126.1649992  -1.1980022  93.7150014
 126.1839992  -0.4130022  91.7060014 126.5239992  -1.3570022  91.2270014
 126.6989992   0.3839978  91.1280014 124.6539992  -0.3600022  91.5240014
 124.3689992   0.1189978  90.5640014 124.3049992   0.3799978  92.2770014
 123.8589992  -1.6640022  91.6630014 124.3179992  -2.5760022  92.0710014
 122.5769992  -1.7500022  91.3590014 122.0219992  -2.7000022  91.3490014
 121.7039992  -0.6710022  90.8160014 122.1359992   0.3469978  90.9240014
 120.7149992  -0.8040022  91.3050014 121.3549992  -0.7520022  89.3100014
 120.9449992  -1.7640022  89.1040014 122.3179992  -0.6270022  88.7710014
 120.4119992   0.2779978  88.8060014 120.6079992   1.2149978  89.3710014
 119.3649992   0.0129978  89.0640014 120.4839992   0.6799978  87.3300014
 119.5209992   1.1659978  87.0640014 120.5759992  -0.1840022  86.6370014
 121.6699992   1.7249978  87.0870014 122.5339992   1.4429978  87.7260014
 121.2819992   2.7519978  87.2550014 122.1139992   1.7439978  85.6150014
 122.4839992   2.7599978  85.3600014 121.1909992   1.6219978  85.0090014
 123.1509992   0.6059978  85.2730014 122.7529992  -0.4170022  85.4390014
 124.0099992   0.5909978  85.9780014 123.6319992   0.6449978  83.7970014
 122.8099992   0.5539978  83.0550014 124.2769992  -0.2410022  83.6150014
 124.2499992   1.5169978  83.4930014 131.1999992   9.6669978  80.4290014
 131.0999992   8.6019978  80.7290014 131.9399992   9.9809978  79.6620014
 130.1819992   9.9759978  80.1090014 131.7319992  10.5329978  81.6650014
 132.7339992  10.1919978  82.0030014 131.7919992  11.5769978  81.2890014
 130.8089992  10.5029978  82.8670014 131.4529992  11.0109978  83.6160014
 129.9149992  11.1369978  82.6840014 130.2649992   9.1229978  83.3630014
 129.4429992   8.7979978  82.6910014 131.0789992   8.4219978  83.0780014
 129.9619992   9.0859978  84.8730014 130.7189992   9.5909978  85.5100014
 128.9749992   9.5669978  85.0430014 129.9659992   7.5979978  85.4650014
 129.1119992   7.0429978  85.0210014 130.8759992   7.0489978  85.1400014
 129.6169992   7.5149978  86.9150014 130.5309992   7.6269978  87.5370014
 128.9789992   8.4039978  87.1060014 128.8929992   6.2449978  87.2420014
 128.1019992   6.3509978  86.4690014 129.4519992   5.3329978  86.9410014
 128.3919992   6.1319978  88.7140014 127.9499992   7.1129978  88.9880014
 127.6439992   5.3109978  88.7580014 129.4839992   5.7879978  89.6890014
 130.0229992   4.8369978  89.4870014 130.3299992   6.4949978  89.5510014
 129.0049992   5.6209978  91.1420014 128.2269992   6.3839978  91.3570014
 128.5229992   4.6239978  91.0550014 130.1499992   5.7179978  92.1390014
 129.7169992   5.5069978  93.1400014 130.7849992   4.8419978  91.8850014
 130.9579992   7.0329978  92.1790014 131.5519992   7.0499978  91.2400014
 130.2959992   7.9179978  92.0610014 131.9229992   7.1509978  93.3370014
 132.6259992   6.2909978  93.3320014 132.5079992   8.0409978  93.0200014
 131.3749992   7.3389978  94.7370014 130.7419992   8.2519978  94.7580014
 130.5939992   6.5959978  95.0060014 132.5099992   7.5909978  95.7170014
 133.5799992   7.0089978  95.6370014 132.3319992   8.6619978  96.5050014
 133.4139992   9.1989978  97.2670014 133.9029992   8.3509978  97.7940014
 134.0929992   9.7449978  96.5780014 132.7909992  10.2429978  98.2070014
 133.5679992  10.8589978  98.7080014 131.9749992   9.7479978  99.4410014
 132.7359992   9.0999978  99.9270014 131.7069992  10.5459978 100.1660014
 130.8489992   8.9499978  99.0190014 129.9179992   8.2809978 100.0400014
 130.7259992   8.0439978 101.3280014 130.1389992   8.3429978 102.5820014
 130.1819992   9.4399978 102.7560014 129.1539992   7.8379978 102.6800014
 130.8349992   7.7349978 103.8180014 130.3579992   8.2309978 104.6500014
 130.6559992   6.6729978 103.8960014 132.3399992   7.8549978 103.9900014
 132.7659992   7.3329978 105.3220014 132.3249992   6.3849978 105.5910014
 133.8459992   7.3479978 105.3260014 132.3209992   8.0149978 106.0320014
 133.0239992   6.9539978 102.9810014 132.6519992   5.9419978 103.0430014
 132.6309992   7.2589978 102.0230014 134.0979992   6.8539978 103.0480014
 132.8199992   9.1929978 103.6580014 132.4119992   9.8629978 104.4000014
 132.4759992   9.4449978 102.6660014 133.8909992   9.0709978 103.7250014
 128.7289992   9.1449978 100.2710014 129.6159992   6.9559978  99.4980014
 131.9479992  11.0969978  97.3960014 131.4529992  12.2669978  97.7980014
 131.5249992  12.7379978  98.9280014 130.5079992  12.8769978  96.6960014
 130.7489992  13.9609978  96.7020014 129.4479992  12.7559978  97.0050014
 130.7119992  12.2009978  95.2870014 130.1419992  11.2559978  95.4060014
 131.7929992  12.0939978  95.0500014 129.7329992  12.9079978  94.2450014
 130.1379992  13.8939978  93.9350014 128.7469992  13.0429978  94.7400014
 129.3569992  12.0589978  92.9380014 128.7099992  12.6299978  92.2380014
 128.8509992  11.1029978  93.1940014 130.7129992  11.8259978  92.1710014
 131.2779992  11.2429978  92.9280014 131.3039992  12.7659978  92.1270014
 130.5039992  10.9159978  90.9450014 129.8099992  11.3199978  90.1780014
 130.0399992   9.9749978  91.3110014 131.9199992  10.5689978  90.2980014
 131.6869992   9.6889978  89.6610014 132.5699992  10.1649978  91.1040014
 132.7619992  11.5799978  89.5540014 133.2459992  12.2729978  90.2580014
 132.9439992  11.8679978  88.2800014 133.5439992  12.7569978  88.0350014
 132.2919992  11.1769978  87.1520014 132.0869992  12.0349978  86.4760014
 131.4139992  10.5319978  87.3720014 133.3519992  10.3029978  86.5340014
 134.2559992  10.9319978  86.3850014 132.9609992  10.0069978  85.5370014
 133.8039992   9.0619978  87.3500014 132.8899992   8.4519978  87.5160014
 134.1689992   9.4419978  88.3280014 134.9149992   8.2159978  86.6790014
 135.1579992   7.2889978  87.2420014 135.8309992   8.8319978  86.8040014
 134.7679992   7.9639978  85.1840014 134.7819992   8.9299978  84.6360014
 133.8319992   7.3979978  84.9830014 135.8569992   7.0369978  84.7170014
 136.0889992   6.1129978  85.2890014 136.8079992   7.6079978  84.7790014
 135.5419992   6.5639978  83.2510014 136.3959992   6.3879978  82.5630014
 134.8009992   7.2689978  82.8160014 134.7119992   5.2229978  83.3240014
 134.3689992   4.8339978  82.3420014 133.7929992   5.4329978  83.9120014
 135.2459992   4.3689978  83.7930014  29.4729992 140.7229978  84.4780014
  30.2179992 140.6479978  85.2980014  30.0639992 141.1289978  83.6290014
  28.9959992 139.7609978  84.1920014  28.5669992 141.8149978  85.1070014
  29.1329992 142.7639978  85.2200014  27.8689992 142.1339978  84.3040014
  27.8389992 141.5009978  86.3890014  26.9149992 142.1119978  86.4700014
  27.5619992 140.4299978  86.2880014  28.7499992 141.5329978  87.5460014
  29.5309992 140.7579978  87.3920014  29.2099992 142.5449978  87.5440014
  28.0349992 141.4309978  88.8750014  27.2919992 142.2569978  88.8470014
  27.5019992 140.4609978  88.7870014  28.8759992 141.4739978  90.1550014
  29.2979992 142.5009978  90.1200014  28.2139992 141.5879978  91.0400014
  29.9329992 140.4439978  90.2330014  30.5519992 140.3529978  89.3150014
  30.6019992 140.6479978  91.0960014  29.3699992 138.9949978  90.4940014
  28.5099992 138.8739978  89.8020014  30.1479992 138.2299978  90.2860014
  28.6849992 138.6679978  91.9020014  27.9429992 139.4449978  92.1830014
  28.2369992 137.6569978  91.7940014  29.5979992 138.3619978  93.1030014
  30.2189992 137.5029978  92.7690014  30.3299992 139.1779978  93.2790014
  29.0079992 138.0709978  94.4830014  28.3119992 137.2119978  94.3780014
  29.6959992 137.7339978  95.2880014  28.2499992 139.2719978  95.1290014
  27.2989992 139.3919978  94.5660014  28.0579992 139.0719978  96.2050014
  28.7989992 140.6659978  95.0580014  29.1089992 141.0369978  94.0580014
  27.9999992 141.3449978  95.4250014  30.1179992 140.7849978  95.9090014
  29.9659992 140.2489978  96.8700014  30.9039992 140.2439978  95.3400014
  30.7769992 142.1949978  96.0550014  31.5789992 142.2689978  96.8200014
  31.2329992 142.6099978  95.1310014  29.6039992 143.0589978  96.6440014
  29.1089992 144.0019978  96.0460014  29.1729992 142.5309978  97.8710014
  27.9359992 143.0419978  98.4540014  28.2279992 143.3559978  99.4790014
  27.6139992 143.9519978  97.9040014  26.7519992 141.9419978  98.6160014
  25.9639992 142.5479978  99.1120014  27.1909992 140.8299978  99.6490014
  27.5129992 141.3929978 100.5510014  26.3049992 140.2229978  99.9340014
  28.2069992 140.1119978  99.0110014  28.6419992 138.8209978  99.9180014
  28.8509992 139.5359978 101.2080014  30.1619992 139.8659978 101.6200014
  30.7699992 138.9819978 101.9090014  30.7089992 140.3899978 100.8070014
  30.0639992 140.8879978 102.8690014  31.0699992 141.2489978 103.0250014
  29.6089992 141.8299978 102.6030014  29.6659992 140.2419978 104.2080014
  28.4069992 139.4369978 104.2870014  28.1889992 138.9449978 103.3510014
  28.5429992 138.8529978 105.1860014  27.6009992 140.1499978 104.3780014
  30.7099992 139.2969978 104.7280014  30.9329992 138.5609978 103.9690014
  31.6309992 139.8339978 104.9010014  30.2499992 138.7889978 105.5630014
  29.5839992 141.4159978 105.1910014  30.5849992 141.7129978 105.4660014
  29.1389992 141.0819978 106.1170014  29.0109992 142.1059978 104.5900014
  27.5319992 137.8539978  99.9860014  29.9619992 138.2239978  99.4800014
  26.3789992 141.2809978  97.3870014  25.6049992 142.0539978  96.6210014
  25.4289992 143.2589978  96.7040014  24.6509992 141.1149978  95.8070014
  23.6409992 141.4929978  96.0730014  24.7639992 140.0559978  96.1240014
  24.8339992 141.3519978  94.3300014  25.8649992 141.2009978  93.9430014
  24.7189992 142.4449978  94.1630014  23.8219992 140.5459978  93.4910014
  22.7789992 140.9019978  93.6300014  23.7729992 139.4649978  93.7440014
  24.1299992 140.7359978  92.0260014  24.5449992 141.7539978  91.8690014
  23.2159992 140.7249978  91.3950014  25.1999992 139.7649978  91.5020014
  25.6779992 139.3279978  92.4040014  25.9759992 140.2589978  90.8800014
  24.8369992 138.6519978  90.5380014  24.1449992 138.1269978  91.2310014
  25.6689992 138.0079978  90.1790014  23.9099992 139.1529978  89.3250014
  22.9159992 139.3189978  89.7930014  23.6689992 138.3419978  88.6050014
  24.3229992 140.4859978  88.6480014  25.1019992 141.0539978  89.1780014
  23.6459992 140.9139978  87.5590014  23.9979992 141.8389978  87.0790014
  22.4939992 140.1879978  86.8770014  21.6449992 140.8749978  86.6700014
  22.1169992 139.3059978  87.4380014  22.9959992 139.6709978  85.4600014
  22.1669992 139.0769978  85.0180014  23.8519992 139.0179978  85.7340014
  23.3329992 140.8789978  84.5910014  24.2219992 141.4669978  84.9020014
  22.5419992 141.6599978  84.5990014  23.6459992 140.3689978  83.2190014
  22.6579992 140.0239978  82.8460014  24.3059992 139.4769978  83.2730014
  24.2249992 141.4129978  82.2640014  23.6499992 142.3579978  82.1710014
  24.1079992 140.8839978  81.2930014  25.7339992 141.7549978  82.5490014
  26.4709992 140.9839978  82.8590014  25.8539992 142.5409978  83.3260014
  26.3979992 142.3479978  81.2990014  26.0509992 141.6989978  80.4660014
  27.4799992 142.0979978  81.2710014  26.2099992 143.8409978  80.9980014
  26.6889992 144.4549978  81.7900014  25.1309992 144.0779978  80.8780014
  26.7139992 144.0989978  80.0420014 135.4929992  12.1449978  80.7430014
 135.1359992  11.4789978  79.9280014 136.0029992  13.0719978  80.4020014
 134.5699992  12.4909978  81.2540014 136.4169992  11.4169978  81.7310014
 135.9129992  10.4539978  81.9630014 137.4609992  11.3729978  81.3540014
 136.5979992  12.2399978  83.0670014 137.3559992  13.0379978  82.9170014
 135.6659992  12.7939978  83.3080014 137.0649992  11.4809978  84.2980014
 136.4439992  10.5599978  84.3120014 138.1369992  11.2019978  84.3760014
 136.6139992  12.1379978  85.6610014 135.5079992  12.0869978  85.5720014
 136.9289992  11.5359978  86.5400014 136.9169992  13.5939978  85.8620014
 137.9219992  13.7579978  85.4180014 136.2299992  14.1069978  85.1560014
 136.6689992  14.1389978  87.2400014 137.4049992  13.6699978  87.9270014
 136.7079992  15.2459978  87.1500014 135.2889992  13.8269978  87.8150014
 134.5259992  13.6229978  87.0340014 135.4589992  12.8629978  88.3390014
 134.7379992  14.8739978  88.7830014 134.4639992  15.7469978  88.1530014
 133.7609992  14.5799978  89.2240014 135.7929992  15.1939978  89.8590014
 136.2359992  14.2039978  90.1010014 136.5469992  15.8519978  89.3750014
 135.1629992  15.8059978  91.1570014 134.4709992  16.5819978  90.7660014
 134.6269992  15.0439978  91.7620014 136.2169992  16.5269978  92.0260014
 137.2219992  16.0529978  92.0500014 136.3369992  17.4959978  91.4970014
 135.6039992  16.5899978  93.4450014 135.5249992  15.6129978  93.9690014
 136.2429992  17.2449978  94.0750014 134.0719992  17.1219978  93.5160014
 133.9909992  17.7759978  92.6220014 133.3799992  16.2529978  93.4970014
 133.8029992  18.1499978  94.6670014 134.6089992  18.9119978  94.7380014
 132.8449992  18.6259978  94.3690014 133.7709992  17.5769978  96.0370014
 132.8189992  17.6669978  96.8010014 134.9649992  17.1299978  96.3560014
 135.0959992  16.7559978  97.7240014 135.9659992  17.3759978  98.0290014
 134.2459992  17.0359978  98.3830014 135.4289992  15.2079978  98.0400014
 134.5049992  14.7189978  97.6640014 135.6799992  14.9569978  99.4960014
 136.7449992  15.2619978  99.5830014 134.9679992  15.4189978 100.2130014
 135.6419992  13.6129978  99.7130014 136.3749992  12.7119978 100.7930014
 137.1799992  13.8629978 101.5660014 136.6729992  14.2399978 102.8590014
 135.7219992  14.8149978 102.8810014 136.4999992  13.3379978 103.4830014
 137.7169992  15.0579978 103.7630014 137.0349992  15.3009978 104.5650014
 138.5149992  14.3909978 104.0570014 138.2599992  16.2869978 103.1430014
 137.1939992  17.0729978 102.4710014 136.7169992  16.4169978 101.7570014
 136.4539992  17.5099978 103.1260014 137.6839992  17.8769978 101.9420014
 139.0109992  17.0359978 104.2680014 139.8639992  16.4629978 104.6000014
 139.2989992  17.9839978 103.8380014 138.2649992  17.2099978 105.0300014
 139.3429992  15.8619978 102.1460014 140.0429992  15.2239978 102.6660014
 139.9319992  16.6639978 101.7260014 138.9029992  15.3129978 101.3270014
 135.3899992  12.0649978 101.7500014 137.2449992  11.8089978 100.0330014
 136.5769992  14.7779978  97.3030014 136.4409992  13.6769978  96.5870014
 135.4059992  13.0169978  96.4900014 137.8039992  13.2919978  96.0830014
 137.9389992  12.2379978  96.4070014 138.5449992  13.8479978  96.6950014
 138.0349992  13.5459978  94.5690014 138.2529992  14.6149978  94.3590014
 137.1329992  13.2099978  94.0140014 139.2649992  12.8049978  93.9470014
 139.1699992  11.7179978  94.1580014 140.2149992  13.2679978  94.2890014
 139.2689992  13.0269978  92.4100014 138.2889992  12.6219978  92.0810014
 140.0969992  12.3759978  92.0560014 139.5519992  14.4219978  91.9270014
 138.9709992  15.1929978  92.4780014 139.1259992  14.5319978  90.9070014
 140.9939992  14.8689978  92.0410014 141.5009992  13.9749978  91.6190014
 141.4109992  14.9349978  93.0680014 141.4049992  16.0149978  91.2790014
 141.0859992  15.8129978  90.2340014 142.5119992  16.0989978  91.2370014
 140.9059992  17.3929978  91.7700014 141.4969992  17.7639978  92.6210014
 139.9379992  18.0889978  91.1750014 139.7719992  19.1269978  91.5010014
 139.1729992  17.6919978  89.8850014 138.0929992  17.7359978  90.1380014
 139.3029992  16.6359978  89.5660014 139.2079992  18.5279978  88.6480014
 140.2669992  18.8449978  88.5320014 138.4479992  19.3339978  88.7240014
 138.9059992  17.8239978  87.3390014 138.9429992  16.7329978  87.5480014
 139.6959992  18.1939978  86.6520014 137.6099992  18.1509978  86.7070014
 137.7489992  19.2529978  86.6620014 136.8269992  17.8069978  87.4160014
 137.3599992  17.5629978  85.2620014 136.4279992  17.9839978  84.8260014
 137.1069992  16.4849978  85.3580014 138.5499992  17.6969978  84.3040014
 139.5029992  17.2539978  84.6630014 138.7129992  18.7849978  84.1450014
 138.2199992  17.2469978  82.8820014 138.8239992  17.9169978  82.2330014
 137.1489992  17.5229978  82.7830014 138.5299992  15.8129978  82.6430014
 137.8549992  15.1719978  83.2490014 139.5209992  15.4659978  83.0070014
 138.5579992  15.5139978  81.5730014   9.6009992  30.6359978  80.7360014
   8.5239992  30.4439978  80.9280014  10.2299992  29.7349978  80.9030014
   9.6049992  30.7589978  79.6320014  10.0349992  31.9099978  81.3810014
  10.9639992  32.2299978  80.8610014   9.3319992  32.7669978  81.3030014
  10.6029992  31.8969978  82.8660014  11.3949992  31.1389978  83.0440014
  11.0319992  32.9039978  83.0550014   9.4439992  31.5619978  83.8630014
   8.5689992  32.2459978  83.8560014   9.0139992  30.5499978  83.7070014
   9.8869992  31.6969978  85.3760014  10.7039992  30.9519978  85.4900014
  10.2259992  32.7399978  85.5540014   8.7139992  31.2169978  86.2460014
   7.7089992  31.4999978  85.8680014   8.6579992  30.1069978  86.2390014
   8.9319992  31.6639978  87.7180014   9.8409992  31.2579978  88.2120014
   8.9009992  32.7299978  88.0280014   7.7889992  31.3019978  88.5780014
   6.8849992  31.6519978  88.0340014   7.6959992  30.1949978  88.5820014
   7.7819992  31.8099978  89.9620014   7.8489992  32.9169978  89.8920014
   6.7209992  31.6659978  90.2590014   8.7389992  31.1859978  90.9370014
   8.2469992  31.2969978  91.9260014   8.8819992  30.1059978  90.7180014
  10.1199992  31.8949978  91.0620014  10.5919992  31.3559978  91.9120014
  10.6829992  31.7209978  90.1200014  10.1749992  33.4189978  91.4790014
  11.2619992  33.5679978  91.6560014   9.8519992  34.0879978  90.6530014
   9.4939992  33.7759978  92.8390014   8.4409992  33.4239978  92.8090014
   9.9769992  33.2459978  93.6880014   9.2629992  35.3019978  93.1090014
  10.2479992  35.7729978  93.3140014   8.9279992  35.8059978  92.1770014
   8.2809992  35.6069978  94.2580014   7.9359992  36.6429978  94.0530014
   7.4029992  34.9389978  94.1280014   8.9409992  35.4259978  95.6510014
  10.1539992  35.5179978  95.7640014   8.0929992  35.1549978  96.6750014
   8.7049992  35.2569978  97.9920014   9.5839992  35.9289978  98.0930014
   7.9429992  35.7569978  98.6280014   8.9939992  33.8659978  98.4980014
   7.9939992  33.4259978  98.7010014   9.7639992  33.8459978  99.8430014
   9.3639992  34.6299978 100.5220014   9.4519992  33.0159978 100.5120014
  11.1299992  33.9759978  99.5760014  12.1469992  34.4279978 100.7440014
  11.9589992  33.1969978 101.6380014  12.0929992  31.8699978 101.1880014
  11.8959992  31.8769978 100.0940014  13.1199992  31.5349978 101.4470014
  11.0679992  30.9689978 102.0140014  10.0769992  31.2849978 101.7230014
  11.2049992  29.9189978 101.8020014  11.0769992  31.0739978 103.5410014
  10.3769992  29.8889978 104.1300014  10.1439992  30.0119978 105.1780014
   9.5389992  29.7889978 103.4560014  11.0489992  29.0519978 104.0100014
  12.4329992  31.1279978 104.0480014  12.8799992  30.2839978 103.5440014
  12.9019992  32.0749978 103.8220014  12.4289992  31.1719978 105.1270014
  10.2769992  32.2269978 103.9660014   9.2289992  32.0789978 103.7520014
  10.6659992  32.9929978 103.3120014  10.4499992  32.3739978 105.0220014
  13.5709992  34.4489978 100.2710014  11.5639992  35.6779978 101.3900014
   9.6379992  33.1249978  97.5510014   9.4259992  31.8379978  97.5110014
   8.6409992  31.2409978  98.2880014  10.3839992  31.2149978  96.4340014
  10.4589992  31.7779978  95.4790014   9.9289992  30.2249978  96.2140014
  11.8189992  31.0919978  97.0570014  11.8109992  30.2409978  97.7720014
  12.2009992  31.9699978  97.6210014  12.9069992  30.6519978  96.0540014
  12.6369992  29.6879978  95.5720014  13.8249992  30.3119978  96.5780014
  13.1419992  31.6149978  94.8800014  12.3259992  31.5699978  94.1280014
  14.0039992  31.2519978  94.2810014  13.3719992  33.0669978  95.3540014
  14.1899992  33.1959978  96.0940014  12.4159992  33.4449978  95.7760014
  13.6789992  34.0879978  94.2200014  13.6809992  35.1359978  94.5870014
  12.8459992  34.1119978  93.4850014  14.9659992  33.6429978  93.5170014
  14.7719992  32.6879978  92.9840014  15.6949992  33.3759978  94.3120014
  15.3789992  34.6919978  92.5520014  16.1129992  35.3789978  92.9970014
  15.0189992  34.8259978  91.2560014  15.5079992  35.5719978  90.6130014
  14.1279992  33.9189978  90.4010014  13.3869992  34.5259978  89.8380014
  13.6139992  33.1839978  91.0560014  14.8039992  33.0419978  89.3280014
  15.4119992  32.2769978  89.8550014  15.5019992  33.6399978  88.7040014
  13.8319992  32.3209978  88.3240014  13.1339992  31.7009978  88.9260014
  14.3519992  31.6359978  87.6210014  12.8789992  33.2669978  87.6000014
  12.3129992  33.9719978  88.2460014  12.1239992  32.6479978  87.0700014
  13.6559992  34.0309978  86.5000014  14.5869992  33.5029978  86.2020014
  14.0569992  34.9329978  87.0080014  12.8399992  34.4749978  85.2710014
  12.4299992  33.5519978  84.8060014  13.4719992  34.9629978  84.4990014
  11.7089992  35.4729978  85.6780014  11.1709992  35.0729978  86.5640014
  10.9129992  35.4339978  84.9040014  12.1939992  36.9139978  85.9370014
  13.0509992  36.8899978  86.6430014  11.2949992  37.4849978  86.2520014
  12.5929992  37.3619978  85.0010014   5.3239992 111.6869978  86.0590014
   5.4529992 111.6119978  84.9580014   4.8869992 110.7249978  86.4020014
   6.3359992 111.7609978  86.5130014   4.4419992 112.8969978  86.5020014
   5.0639992 113.7949978  86.2970014   3.5329992 112.9249978  85.8640014
   4.0659992 112.9359978  87.9820014   3.7989992 111.9169978  88.3350014
   4.9299992 113.4189978  88.4860014   2.7669992 113.7159978  88.2890014
   1.9379992 113.3939978  87.6230014   2.3619992 113.6169978  89.3180014
   2.8999992 115.2839978  88.0560014   3.2969992 115.3889978  87.0240014
   1.9599992 115.8349978  88.2760014   3.9469992 115.9239978  88.9120014
   4.9149992 115.4459978  88.6490014   4.0389992 116.9649978  88.5360014
   3.6089992 116.0779978  90.3750014   2.6349992 116.6119978  90.3940014
   3.4369992 115.0809978  90.8350014   4.4509992 116.9819978  91.2790014
   5.5099992 116.7099978  91.0840014   4.1649992 118.0119978  90.9780014
   4.3409992 116.6579978  92.7940014   4.7299992 115.6179978  92.8220014
   5.0399992 117.3429978  93.3200014   2.8269992 116.8379978  93.3260014
   2.5019992 117.8939978  93.2090014   2.1989992 116.2389978  92.6330014
   2.8129992 116.3859978  94.7830014   3.5559992 116.9629978  95.3740014
   1.8369992 116.7029978  95.2100014   2.9519992 114.8349978  94.8730014
   2.1509992 114.3699978  94.2600014   3.9329992 114.4539978  94.5160014
   2.5479992 114.2139978  96.3150014   2.7429992 115.0339978  97.0390014
   1.4739992 113.9529978  96.1980014   3.5489992 113.1179978  96.7170014
   3.4369992 112.2619978  96.0180014   4.5839992 113.5159978  96.6540014
   3.2839992 112.7829978  98.2120014   3.5059992 113.6119978  98.9180014
   2.3429992 112.1929978  98.2410014   4.2659992 111.6679978  98.4660014
   4.3189992 110.6059978  97.8080014   5.1929992 112.0349978  99.3820014
   6.2469992 110.9929978  99.5240014   5.9539992 110.2089978 100.2550014
   6.4069992 110.3559978  98.6280014   7.5979992 111.6069978  99.9280014
   8.2349992 110.7379978 100.1980014   7.3669992 112.5769978 101.1710014
   6.6379992 112.1379978 101.8850014   8.3619992 112.6099978 101.6630014
   6.9519992 113.8709978 100.8210014   6.7919992 115.0019978 101.8370014
   5.4299992 114.8459978 102.5990014   4.2469992 114.4309978 101.9360014
   4.4209992 113.7049978 101.1130014   3.5859992 113.9289978 102.6750014
   3.4509992 115.6059978 101.4400014   4.0679992 115.9329978 100.6160014
   2.5259992 115.2609978 101.0010014   3.0339992 116.7739978 102.3380014
   4.1939992 117.5419978 102.9100014   5.0459992 117.4109978 102.2600014
   4.0079992 118.6029978 102.9970014   4.4909992 117.2539978 103.9080014
   2.3159992 117.7789978 101.4340014   2.3929992 118.7889978 101.8080014
   2.7519992 117.9039978 100.4540014   1.3009992 117.5189978 101.1750014
   2.2079992 116.3569978 103.4890014   2.7589992 115.7009978 104.1470014
   1.4639992 115.6219978 103.2190014   1.8319992 117.2299978 104.0010014
   7.8869992 114.8559978 102.7430014   6.8259992 116.2199978 100.9590014
   8.1129992 112.2399978  98.7410014   9.3949992 112.6409978  98.8630014
  10.1269992 112.4029978  99.8050014   9.7159992 113.3389978  97.5560014
   9.2879992 112.7129978  96.7450014  10.8129992 113.3619978  97.3770014
   9.1849992 114.7849978  97.5060014   9.8659992 115.3569978  98.1710014
   8.1519992 114.7299978  97.9080014   9.2539992 115.3939978  96.0530014
  10.2679992 115.3429978  95.6010014   8.9009992 116.4419978  96.1540014
   8.2979992 114.6229978  95.1060014   7.3519992 114.6529978  95.6880014
   8.6949992 113.6149978  94.8590014   8.1119992 115.1429978  93.6630014
   7.4759992 116.0339978  93.8470014   7.4229992 114.4109978  93.1900014
   9.2849992 115.5439978  92.8510014   9.8719992 116.1859978  93.5420014
   9.0879992 116.1129978  91.9170014   9.9549992 114.2349978  92.3620014
   9.1489992 113.5119978  92.1170014  10.4739992 114.0099978  93.3190014
  11.0189992 114.1449978  91.2260014  12.0299992 114.4899978  91.4860014
  10.7639992 113.8189978  89.9290014  11.6019992 114.0489978  89.2550014
   9.4759992 113.4859978  89.2870014   8.8829992 112.7279978  89.8420014
   9.6909992 112.9919978  88.3160014   8.5369992 114.6879978  89.0560014
   8.3829992 115.2809978  89.9830014   7.5329992 114.4529978  88.6420014
   9.0429992 115.6789978  87.9960014  10.0909992 115.7699978  88.3550014
   8.5809992 116.6859978  87.9160014   9.3009992 115.1639978  86.4930014
  10.1339992 114.4289978  86.4600014   9.7929992 115.9839978  85.9280014
   8.1599992 114.5689978  85.5820014   7.5669992 115.3949978  85.1330014
   7.4999992 113.9589978  86.2340014   8.6529992 113.5879978  84.4100014
   9.2829992 114.2349978  83.7630014   7.7649992 113.2869978  83.8150014
   9.4869992 112.3359978  84.8860014   8.7159992 111.6049978  85.2110014
  10.0279992 112.7079978  85.7820014  10.4169992 111.6159978  83.8100014
  10.6289992 110.5879978  84.1760014  11.3699992 112.1199978  83.5410014
   9.7769992 111.4729978  82.9130014 142.0439992  20.9279978  82.9170014
 141.7109992  20.0619978  82.3060014 142.1359992  21.7779978  82.2080014
 141.1279992  21.1549978  83.5040014 143.1969992  20.7589978  83.8810014
 144.1319992  20.5939978  83.3040014 143.2979992  21.7359978  84.4010014
 142.8619992  19.6819978  84.9050014 142.3589992  18.8759978  84.3300014
 143.7609992  19.1479978  85.2810014 142.0509992  20.3669978  86.0390014
 142.6559992  21.0469978  86.6760014 141.1539992  20.8279978  85.5740014
 141.5079992  19.3239978  87.0390014 140.5999992  18.9059978  86.5540014
 142.3859992  18.6429978  87.0560014 140.9919992  19.8889978  88.3990014
 140.1949992  20.6459978  88.2360014 140.3079992  19.1059978  88.7890014
 142.1629992  20.3519978  89.3150014 142.9349992  19.5559978  89.2510014
 142.6499992  21.3069978  89.0240014 141.5449992  20.5629978  90.7170014
 140.8929992  21.4309978  90.4810014 140.9069992  19.6839978  90.9490014
 142.4549992  20.9099978  91.8750014 143.0889992  20.0029978  91.9760014
 142.8779992  21.9159978  91.6680014 141.6659992  21.0659978  93.2560014
 140.9119992  21.8829978  93.2630014 141.1409992  20.0969978  93.3930014
 142.6389992  21.4919978  94.4190014 143.4859992  20.8209978  94.6790014
 143.2419992  22.3059978  93.9630014 141.9299992  22.0689978  95.6540014
 142.6309992  22.1989978  96.5060014 141.4579992  23.0109978  95.3020014
 140.8219992  21.2039978  96.1220014 140.2059992  20.8049978  95.2880014
 141.1989992  20.3859978  96.7720014 139.8069992  21.9049978  97.1590014
 140.3449992  22.1219978  98.1070014 139.5149992  22.8709978  96.6920014
 138.5729992  21.0409978  97.4100014 137.6969992  21.5129978  97.9050014
 138.1899992  20.6769978  96.4330014 138.8719992  19.7299978  98.2360014
 138.3259992  18.7099978  97.9920014 139.7079992  19.8929978  99.2630014
 139.6739992  18.9009978 100.3360014 139.6419992  19.5519978 101.2360014
 138.7329992  18.3229978 100.4560014 140.8909992  17.9159978 100.3450014
 140.6439992  17.1139978 101.0730014 142.2339992  18.5439978 100.7300014
 141.7959992  19.0179978 101.6340014 142.9859992  17.7409978 100.8810014
 142.6399992  19.4879978  99.7170014 144.1389992  20.0789978  99.7610014
 144.3829992  20.3759978 101.3130014 143.6399992  21.3679978 101.9650014
 143.8689992  22.3179978 101.4350014 142.5429992  21.2699978 101.8170014
 143.9819992  21.3679978 103.4780014 145.0479992  21.4979978 103.5910014
 143.5309992  22.2189978 103.9660014 143.5429992  20.1369978 104.2800014
 142.0609992  19.9959978 104.1510014 141.6179992  19.0879978 104.5330014
 141.6599992  20.8229978 104.7170014 141.6969992  20.1469978 103.1460014
 144.1989992  18.9059978 103.7380014 145.2629992  19.0369978 103.6040014
 143.9619992  18.2289978 104.5440014 143.7429992  18.4969978 102.8480014
 144.0589992  20.2449978 105.6560014 143.7109992  21.1629978 106.1060014
 145.1299992  20.3309978 105.7690014 143.5629992  19.4879978 106.2450014
 145.1839992  19.1339978  99.3430014 144.1729992  21.3959978  99.1030014
 141.0729992  17.2829978  99.0730014 141.7679992  16.1959978  98.9610014
 142.3929992  15.5869978  99.8330014 141.5409992  15.5729978  97.5720014
 140.5769992  15.0259978  97.6410014 142.3549992  14.8979978  97.2300014
 141.4229992  16.7109978  96.5750014 142.2229992  17.4519978  96.7870014
 140.4739992  17.2879978  96.6170014 141.5609992  16.0569978  95.1300014
 140.7729992  15.2779978  95.0480014 142.5609992  15.5769978  95.1940014
 141.4359992  16.9959978  93.9300014 141.9479992  17.9789978  93.9970014
 140.3759992  17.3109978  93.8290014 141.9179992  16.3909978  92.5720014
 141.4249992  17.0099978  91.7910014 141.6909992  15.3049978  92.5220014
 143.4269992  16.4749978  92.2800014 143.8469992  15.5259978  92.6780014
 143.8669992  17.3769978  92.7560014 143.7619992  16.7329978  90.7450014
 144.8469992  16.6759978  90.5130014 143.5369992  17.7999978  90.5310014
 142.9729992  15.8749978  89.7620014 142.1149992  15.3529978  90.2110014
 143.2939992  15.7209978  88.4580014 142.5879992  15.1089978  87.8780014
 144.4009992  16.4759978  87.8030014 144.7329992  17.4049978  88.3140014
 144.1759992  16.8589978  86.7850014 145.6459992  15.5919978  87.5220014
 146.0539992  15.1879978  88.4730014 146.3899992  16.3419978  87.1780014
 145.5909992  14.4119978  86.5740014 144.7999992  13.7699978  87.0170014
 146.5369992  13.8299978  86.5210014 145.1289992  14.8559978  85.1530014
 145.8959992  15.5249978  84.7080014 144.1699992  15.3819978  85.3470014
 144.8269992  13.7329978  84.1900014 144.5679992  12.7709978  84.6810014
 145.8149992  13.4479978  83.7690014 143.9419992  14.0699978  82.9220014
 142.9419992  14.4119978  83.2660014 143.7539992  13.1179978  82.3800014
 144.3559992  15.1849978  81.9770014 143.7649992  15.0469978  81.0460014
 145.4149992  14.9859978  81.7080014 144.1999992  16.6259978  82.3990014
 144.7999992  17.3029978  81.7530014 144.3999992  16.6049978  83.4920014
 143.1319992  16.8729978  82.2240014  21.2639992  13.7849978  84.6090014
  20.5879992  13.1809978  85.2520014  22.2749992  13.3889978  84.8440014
  20.9859992  13.5219978  83.5660014  21.0419992  15.3219978  84.7240014
  21.6149992  16.0199978  84.0770014  20.0039992  15.5459978  84.3940014
  21.2659992  16.0159978  86.1190014  21.1449992  17.1089978  85.9590014
  20.5009992  15.6589978  86.8410014  22.6379992  15.8129978  86.7050014
  22.8009992  14.7919978  87.1110014  23.5309992  16.0869978  86.1020014
  22.8939992  16.6049978  88.0650014  23.0079992  17.6879978  87.8460014
  21.9999992  16.3509978  88.6740014  24.1939992  16.1459978  88.7480014
  25.0459992  16.2739978  88.0470014  24.4759992  16.9309978  89.4820014
  24.0959992  14.7969978  89.4910014  23.2149992  14.8399978  90.1670014
  24.0189992  13.9479978  88.7790014  25.3369992  14.5089978  90.3690014
  26.1599992  14.2179978  89.6820014  25.6399992  15.4749978  90.8280014
  25.1959992  13.2699978  91.3380014  24.8459992  12.3689978  90.7910014
  26.2069992  13.0989978  91.7650014  24.1799992  13.5039978  92.5260014
  23.2059992  13.8229978  92.0970014  24.0819992  12.5289978  93.0490014
  24.6889992  14.4579978  93.6060014  25.0719992  15.2959978  92.9860014
  23.8089992  14.7639978  94.2100014  25.7059992  13.8549978  94.5820014
  25.2119992  13.0249978  95.1290014  26.5689992  13.4529978  94.0090014
  26.2679992  14.9129978  95.5360014  27.0389992  14.3549978  96.1100014
  26.7189992  15.7539978  94.9680014  25.1429992  15.3029978  96.5140014
  24.5979992  16.1449978  96.0360014  24.5309992  14.3939978  96.6990014
  25.7119992  15.7919978  97.9570014  26.0699992  15.0289978  98.6800014
  26.4519992  16.5379978  97.5960014  24.6389992  16.6469978  98.6670014
  24.8879992  17.6149978  99.3660014  23.5039992  16.1219978  98.4050014
  22.3989992  16.6459978  99.1720014  22.6779992  17.6389978  99.5840014
  21.5249992  16.6129978  98.4870014  21.9209992  15.6839978 100.3280014
  20.9469992  16.0519978 100.7170014  22.8159992  15.5979978 101.5960014
  22.9469992  16.6679978 101.8630014  22.1579992  15.0059978 102.2680014
  24.0499992  14.9859978 101.3500014  24.8449992  14.4229978 102.5680014
  25.3279992  13.0579978 102.0010014  24.9519992  12.5759978 100.7050014
  24.0139992  13.0529978 100.3470014  25.8239992  12.9309978 100.1150014
  24.8119992  11.0029978 100.7790014  24.2559992  10.7609978  99.8850014
  25.7939992  10.5989978 100.5770014  24.0619992  10.3179978 101.8610014
  22.8729992  11.1719978 102.2510014  22.1769992  10.6019978 102.8490014
  23.2729992  11.9139978 102.9260014  22.4119992  11.5799978 101.3630014
  23.5669992   8.9519978 101.5000014  24.4209992   8.3129978 101.3290014
  22.9109992   8.6309978 102.2960014  22.9269992   9.0739978 100.6380014
  25.0249992  10.1899978 103.0180014  25.0429992  11.1879978 103.4280014
  26.0179992   9.8799978 102.7270014  24.6209992   9.4599978 103.7040014
  25.9379992  15.3969978 102.7640014  23.9119992  14.1569978 103.7100014
  21.7379992  14.3499978  99.8220014  20.8039992  14.1059978  98.9090014
  19.9669992  14.8879978  98.5060014  20.8519992  12.6559978  98.4470014
  19.9849992  12.4949978  97.7720014  20.7539992  11.9909978  99.3320014
  22.2019992  12.3599978  97.8190014  23.0149992  12.4889978  98.5650014
  22.4389992  13.0819978  97.0080014  22.3129992  10.9469978  97.2180014
  21.9229992  10.1629978  97.9020014  23.3989992  10.7249978  97.2890014
  21.8189992  10.9169978  95.7820014  22.1799992  11.8569978  95.3120014
  20.7139992  11.0139978  95.8580014  22.2389992   9.7299978  94.9620014
  21.9189992   9.9159978  93.9150014  21.5899992   8.9239978  95.3640014
  23.7649992   9.5399978  94.9020014  24.0979992   9.0159978  95.8230014
  24.3009992  10.5119978  94.8550014  24.3619992   8.8249978  93.6540014
  25.4009992   8.5849978  93.9660014  24.3809992   9.6109978  92.8690014
  23.5689992   7.5849978  93.2730014  23.4779992   6.9169978  94.1420014
  22.9959992   7.3109978  92.0810014  22.5399992   6.3239978  91.9150014
  23.0939992   8.2279978  90.8210014  23.4429992   9.2449978  91.1040014
  22.0819992   8.4599978  90.4250014  24.0229992   7.6759978  89.7360014
  23.6609992   6.8059978  89.1480014  24.9799992   7.3949978  90.2260014
  24.4639992   8.6459978  88.6570014  25.2309992   8.1689978  88.0100014
  24.8959992   9.5619978  89.1120014  23.2919992   9.0899978  87.7970014
  22.6379992   9.6929978  88.4630014  22.7999992   8.1949978  87.3600014
  23.6089992  10.0859978  86.5990014  23.9649992  11.0329978  87.0570014
  22.7079992  10.1579978  85.9530014  24.7489992   9.6159978  85.6640014
  24.4589992   8.6499978  85.1970014  25.6599992   9.3459978  86.2390014
  25.1969992  10.5599978  84.4190014  24.2929992  10.6599978  83.7820014
  26.0659992  10.0599978  83.9390014  25.5449992  11.9419978  84.7150014
  26.1659992  12.0649978  85.6270014  24.6299992  12.5409978  84.9120014
  26.0609992  12.4219978  83.8560014 131.9689992 136.6459978  82.0740014
 133.0669992 136.7139978  81.9230014 131.8349992 137.1719978  83.0440014
 131.6519992 137.1689978  81.1470014 131.5729992 135.1889978  82.0490014
 130.4839992 135.0659978  81.8700014 131.9459992 134.6879978  81.1310014
 131.9109992 134.4559978  83.3600014 131.2489992 134.6589978  84.2280014
 131.7049992 133.3879978  83.1330014 133.3269992 134.5279978  83.8110014
 133.9609992 133.9499978  83.1050014 133.6189992 135.5859978  83.9800014
 133.5079992 133.8019978  85.1450014 132.7569992 134.1709978  85.8760014
 133.3489992 132.7219978  84.9420014 134.8269992 133.9799978  85.7790014
 135.6919992 133.6609978  85.1590014 135.0529992 135.0329978  86.0500014
 134.6699992 133.2949978  87.1110014 133.9529992 133.9489978  87.6520014
 134.2659992 132.3019978  86.8190014 136.0069992 133.1959978  87.8920014
 136.5769992 132.3609978  87.4300014 136.6069992 134.1309978  87.8930014
 135.8959992 132.6639978  89.2610014 135.4029992 131.6759978  89.3890014
 136.9629992 132.6089978  89.5630014 135.1989992 133.6889978  90.1540014
 135.7009992 134.6729978  90.2760014 134.1779992 133.8469978  89.7470014
 135.0729992 133.2469978  91.6890014 134.5369992 132.2739978  91.6620014
 136.0569992 133.0179978  92.1520014 134.2809992 134.1499978  92.7020014
 133.2929992 134.5019978  92.3370014 134.1469992 133.4779978  93.5760014
 135.0999992 135.3059978  93.3370014 136.1499992 135.0699978  93.6110014
 135.3309992 136.0429978  92.5380014 134.4329992 135.9339978  94.6280014
 133.4009992 136.2529978  94.3690014 134.2959992 135.1029978  95.3530014
 135.4099992 137.0099978  95.1530014 136.2239992 136.5049978  95.7150014
 135.7909992 137.6439978  94.3240014 134.6659992 137.8819978  96.1240014
 134.4539992 139.0889978  95.8070014 134.3319992 137.2909978  97.1500014
 133.3669992 137.9789978  97.9570014 133.8489992 138.4029978  98.8640014
 132.9039992 138.8499978  97.4470014 132.2439992 136.9669978  98.3380014
 131.4829992 137.3659978  99.0420014 132.8749992 135.6789978  99.0750014
 132.1749992 134.8169978  99.0820014 133.6349992 135.2219978  98.4060014
 133.4979992 136.0559978 100.3430014 132.6189992 136.0379978 101.6610014
 133.4919992 135.4729978 102.8390014 134.2839992 134.3009978 102.6330014
 134.5229992 134.0239978 103.6820014 133.5239992 133.5699978 102.2820014
 135.4419992 134.5839978 101.7600014 135.9109992 133.6759978 101.4120014
 134.9989992 135.0869978 100.9140014 136.5939992 135.3639978 102.3580014
 137.3439992 134.4459978 103.3530014 138.4099992 134.6029978 103.2830014
 137.0039992 134.6629978 104.3540014 137.1819992 133.4079978 103.1020014
 137.5099992 135.5509978 101.1370014 138.3409992 136.1869978 101.4030014
 137.8449992 134.5939978 100.7650014 136.9139992 135.9929978 100.3530014
 136.1069992 136.5829978 103.0890014 135.4809992 137.1189978 102.3900014
 136.9399992 137.1669978 103.4510014 135.5529992 136.2439978 103.9520014
 132.2469992 137.4839978 101.8790014 131.4819992 135.1679978 101.4540014
 131.5199992 136.5409978  97.1630014 130.5739992 137.4209978  96.7980014
 130.2149992 138.3949978  97.4310014 130.0239992 137.0109978  95.4970014
 128.9419992 137.2149978  95.3490014 130.1179992 135.9189978  95.3170014
 130.7339992 137.9059978  94.4090014 131.8429992 137.8799978  94.4740014
 130.3869992 138.9359978  94.6360014 130.4209992 137.6309978  92.9230014
 129.3699992 137.3959978  92.6480014 130.9819992 136.6729978  92.8820014
 130.9939992 138.7339978  92.0640014 131.9649992 139.0429978  92.5060014
 130.3629992 139.6419978  91.9490014 131.2819992 138.2209978  90.6590014
 131.2239992 139.0829978  89.9610014 130.5589992 137.4019978  90.4560014
 132.6919992 137.5219978  90.4990014 132.8699992 136.6759978  91.1960014
 133.5529992 138.1809978  90.7410014 132.9459992 137.0049978  89.0860014
 132.4889992 137.8429978  88.5180014 132.3829992 136.0509978  88.9970014
 134.4119992 136.8959978  88.5370014 134.6919992 135.8339978  88.6040014
 135.2369992 137.8259978  88.0560014 136.2789992 137.5629978  87.8230014
 134.9019992 139.3299978  87.9110014 135.7499992 140.0469978  87.9320014
 134.1489992 139.5899978  88.6860014 134.1549992 139.7629978  86.6740014
 133.8539992 140.8289978  86.7600014 133.1689992 139.2569978  86.7610014
 134.8989992 139.4649978  85.3320014 134.5539992 138.5179978  84.8660014
 135.9669992 139.3219978  85.6040014 134.7299992 140.5809978  84.3020014
 135.1759992 141.5659978  84.5570014 133.6389992 140.6519978  84.1050014
 135.2209992 140.2179978  82.8470014 135.1159992 141.1229978  82.2110014
 134.6149992 139.4699978  82.2920014 136.6369992 139.5779978  82.8660014
 136.7549992 139.1269978  81.8570014 136.6169992 138.7579978  83.6150014
 137.7479992 140.5209978  83.2270014 137.4659992 141.0859978  84.1420014
 137.9659992 141.2769978  82.4430014 139.0369992 139.6969978  83.4330014
 138.8149992 138.8149978  84.0710014 139.8459992 140.3419978  83.8380014
 139.3689992 139.4159978  82.4100014  -3.7960008  43.1049978  84.7960014
  -4.4150008  43.9249978  85.2180014  -3.5200008  42.3699978  85.5830014
  -4.3240008  42.4889978  84.0370014  -2.5250008  43.6779978  84.2430014
  -1.7080008  42.9269978  84.2050014  -2.8270008  43.8899978  83.1950014
  -2.1630008  45.0719978  84.8140014  -3.0900008  45.6839978  84.7820014
  -1.9380008  44.9109978  85.8900014  -1.0440008  45.7929978  84.0100014
  -0.1710008  45.1569978  83.7500014  -1.4750008  46.2279978  83.0820014
  -0.3630008  46.9399978  84.8280014   0.2679992  47.5659978  84.1610014
  -1.1110008  47.6709978  85.2000014   0.4859992  46.3699978  86.0120014
  -0.1080008  46.3109978  86.9490014   0.6869992  45.3159978  85.7250014
   1.8349992  47.1099978  86.1560014   2.4159992  46.9059978  85.2310014
   1.6039992  48.1889978  86.2830014   2.5799992  46.6119978  87.3870014
   2.7859992  45.5249978  87.2870014   3.5319992  47.1829978  87.4300014
   1.9539992  46.7779978  88.7820014   1.2889992  47.6399978  89.0050014
   1.1909992  45.9809978  88.9070014   2.9539992  46.5379978  89.9030014
   3.1169992  45.4419978  89.8190014   3.8439992  47.1859978  89.7510014
   2.2539992  46.7669978  91.2940014   1.1969992  46.4569978  91.1480014
   2.8089992  46.1059978  91.9940014   2.3859992  48.2559978  91.8020014
   3.4649992  48.5209978  91.7970014   1.8789992  49.0009978  91.1520014
   1.8589992  48.4799978  93.1990014   2.6009992  48.0889978  93.9290014
   1.8689992  49.5729978  93.3990014   0.4839992  47.7819978  93.4450014
  -0.2170008  47.8029978  92.5830014   0.6849992  46.7069978  93.6380014
  -0.2620008  48.4019978  94.6410014   0.4459992  48.6229978  95.4670014
  -0.7570008  49.2859978  94.1840014  -1.4100008  47.4429978  95.1320014
  -2.0860008  46.8619978  94.3300014  -1.4720008  47.3079978  96.4250014
  -2.5810008  46.6429978  97.0170014  -2.8530008  47.2049978  97.9360014
  -3.4170008  46.4399978  96.3140014  -2.2940008  45.2019978  97.6440014
  -3.2420008  44.8299978  98.0880014  -1.2610008  45.5619978  98.8150014
  -0.4500008  46.1939978  98.3930014  -1.8440008  46.1049978  99.5890014
  -0.7900008  44.3269978  99.3050014   0.5779992  43.9579978  99.8710014
   0.6659992  44.8519978 101.1330014  -0.2870008  44.7109978 102.1930014
  -0.1470008  45.6619978 102.7500014  -1.3450008  44.5469978 101.8970014
  -0.0260008  43.6149978 103.2620014  -0.9480008  43.5579978 103.8210014
   0.0099992  42.6739978 102.7330014   1.1919992  43.5809978 104.1460014
   1.1129992  42.2509978 104.9130014   0.2409992  42.2589978 105.5500014
   0.9379992  41.4819978 104.1740014   1.9469992  41.8949978 105.4980014
   2.4459992  43.6669978 103.3310014   2.6629992  44.6649978 102.9800014
   3.3529992  43.3219978 103.8030014   2.2529992  42.9949978 102.5080014
   1.1759992  44.7479978 105.1530014   1.8959992  44.4739978 105.9090014
   0.2439992  44.6849978 105.6960014   1.3779992  45.7119978 104.7100014
   0.5819992  42.5379978 100.2650014   1.6989992  44.3979978  98.9330014
  -1.6240008  44.2899978  96.7490014  -2.4440008  43.6009978  95.8940014
  -3.6450008  43.8239978  95.8050014  -1.6030008  42.5159978  95.1500014
  -1.0730008  42.9749978  94.2880014  -2.3180008  41.8389978  94.6350014
  -0.7100008  41.6679978  96.1330014  -1.3560008  41.2509978  96.9350014
   0.0249992  42.3669978  96.5870014   0.0219992  40.5399978  95.3140014
   0.3189992  40.9499978  94.3260014  -0.6580008  39.6699978  95.1950014
   1.2589992  40.0459978  96.1330014   1.5729992  39.2029978  95.4810014
   0.9259992  39.6939978  97.1320014   2.4609992  41.1109978  96.1920014
   3.1569992  40.6099978  96.8990014   2.1179992  42.0409978  96.6940014
   3.1639992  41.5439978  94.8620014   2.6879992  41.0589978  93.9830014
   4.2129992  41.1779978  94.8610014   3.2929992  43.0669978  94.5320014
   3.7739992  43.0479978  93.5300014   4.0779992  43.4649978  95.2100014
   2.1149992  43.9249978  94.6040014   1.9079992  44.6559978  95.4000014
   1.1539992  43.9119978  93.6580014   0.2699992  44.5669978  93.6750014
   1.2399992  43.0519978  92.4480014   0.7639992  42.0719978  92.6630014
   2.2789992  42.9379978  92.0700014   0.2039992  43.4139978  91.2930014
   0.6209992  44.3509978  90.8660014  -0.8260008  43.4969978  91.7010014
   0.0759992  42.3439978  90.1700014  -0.7060008  41.6039978  90.4450014
   1.0399992  41.7939978  90.1160014  -0.0730008  42.9669978  88.7600014
   0.4989992  43.9059978  88.5990014  -1.1300008  43.2329978  88.5450014
   0.5539992  41.9419978  87.7580014  -0.0780008  41.0289978  87.7850014
   1.5759992  41.6239978  88.0580014   0.6089992  42.3929978  86.2850014
   1.3799992  43.1909978  86.2350014  -0.4380008  42.7189978  86.1080014
   1.0749992  41.2699978  85.3490014   0.5409992  40.3029978  85.4720014
   2.1629992  41.0539978  85.4110014   0.9909992  41.5719978  83.7880014
   1.6709992  42.4479978  83.7160014  -0.0670008  41.7929978  83.5300014
   1.5789992  40.7769978  83.2830014  36.7869992  -2.2660022  83.6140014
  37.3099992  -3.2390022  83.4990014  36.9789992  -2.0970022  84.6950014
  37.2689992  -1.4350022  83.0550014  35.3469992  -2.4790022  83.2450014
  35.2609992  -2.6440022  82.1490014  34.8869992  -3.3910022  83.6840014
  34.4309992  -1.3200022  83.6960014  33.3709992  -1.5910022  83.5050014
  34.4079992  -1.2110022  84.8020014  34.7559992   0.0339978  82.9390014
  35.7279992   0.4279978  83.3050014  34.6229992   0.0659978  81.8370014
  33.6609992   1.1369978  83.3830014  33.5059992   1.8159978  82.5170014
  32.6809992   0.6309978  83.5180014  33.9649992   2.0869978  84.5970014
  35.0399992   2.3429978  84.4790014  33.4599992   3.0519978  84.3780014
  33.6539992   1.5999978  86.0260014  32.5529992   1.5229978  86.1510014
  33.9939992   0.5429978  86.0560014  34.0979992   2.5169978  87.1540014
  35.1839992   2.7439978  87.1070014  33.5749992   3.4859978  87.0110014
  33.7189992   1.9459978  88.5180014  33.7549992   2.8469978  89.1670014
  32.6909992   1.5349978  88.4290014  34.7579992   0.9299978  89.0440014
  34.6429992  -0.0080022  88.4600014  35.7789992   1.3599978  88.9700014
  34.6799992   0.6429978  90.6140014  33.6079992   0.4699978  90.8480014
  35.2659992  -0.2820022  90.8010014  35.2329992   1.7589978  91.5470014
  36.2969992   2.0239978  91.3680014  34.6589992   2.6829978  91.3190014
  34.9499992   1.3679978  93.0190014  35.1059992   2.3519978  93.5100014
  33.8619992   1.2089978  93.1810014  35.7289992   0.2439978  93.7250014
  35.5699992  -0.6480022  93.0820014  36.8139992   0.4629978  93.6330014
  35.2419992  -0.0070022  95.1450014  35.3369992   0.9909978  95.6250014
  34.2249992  -0.4480022  95.0800014  36.2329992  -0.9890022  95.6470014
  36.6119992  -1.9710022  95.0870014  36.7659992  -0.5760022  96.8010014
  37.7709992  -1.4990022  97.3010014  37.4839992  -2.5680022  97.2040014
  38.7479992  -1.3240022  96.8010014  38.0949992  -1.1620022  98.8510014
  38.9359992  -1.8330022  99.1300014  36.8349992  -1.5570022  99.6610014
  36.5839992  -2.6250022  99.4850014  37.1199992  -1.3990022 100.7230014
  35.6939992  -0.7300022  99.2780014  35.0509992   0.3709978 100.1060014
  35.9509992   0.5289978 101.3640014  35.7099992   0.1719978 102.6820014
  35.0399992  -0.7090022 102.7780014  36.6759992  -0.2360022 103.0480014
  35.2269992   1.4039978 103.5610014  34.2869992   1.7279978 103.1390014
  34.8439992   0.9699978 104.4730014  36.1569992   2.4969978 103.8390014
  37.2199992   1.9659978 104.7150014  37.5139992   0.9659978 104.4320014
  38.1119992   2.5699978 104.6460014  36.8509992   1.7019978 105.6950014
  36.9219992   2.9599978 102.5980014  36.1919992   3.2609978 101.8610014
  37.5189992   3.7479978 103.0330014  37.5539992   2.1949978 102.1710014
  35.4399992   3.6529978 104.4420014  34.9869992   3.4239978 105.3960014
  34.6399992   4.0169978 103.8150014  36.1519992   4.4629978 104.4840014
  35.0259992   1.6599978  99.4090014  33.7339992  -0.1360022 100.5110014
  38.2569992   0.2589978  99.1290014  39.3569992   0.8469978  98.7520014
  40.3629992   0.3259978  98.1900014  39.1339992   2.3639978  98.8820014
  39.1419992   2.5019978  99.9840014  38.1269992   2.6489978  98.5080014
  40.1409992   3.2469978  98.1650014  41.1349992   3.1089978  98.6410014
  39.7859992   4.2919978  98.2940014  40.2929992   3.0469978  96.6610014
  40.8639992   2.0949978  96.7020014  40.9359992   3.8229978  96.1940014
  39.0529992   2.8269978  95.7510014  38.4999992   3.7899978  95.7920014
  38.3129992   2.1689978  96.2550014  39.3059992   2.5229978  94.2560014
  40.0909992   3.2369978  93.9280014  38.3239992   2.6999978  93.7670014
  39.6499992   1.0109978  94.0780014  38.8229992   0.5109978  94.6260014
  40.6279992   0.6569978  94.4690014  39.6029992   0.5249978  92.5850014
  38.5509992   0.7089978  92.2810014  39.7049992  -0.5740022  92.7080014
  40.6669992   1.1599978  91.7170014  41.7149992   0.8509978  91.8460014
  40.4989992   2.2289978  90.8810014  41.3509992   2.6179978  90.3050014
  39.1659992   2.9889978  90.6540014  39.2319992   4.0529978  90.9690014
  38.4909992   2.4089978  91.3180014  38.6169992   2.9589978  89.1400014
  39.3989992   3.5659978  88.6350014  37.6529992   3.5039978  89.2180014
  38.5599992   1.6349978  88.3360014  37.9809992   0.8789978  88.9080014
  39.6179992   1.2989978  88.3000014  38.1099992   1.8119978  86.8510014
  38.3139992   2.8309978  86.4580014  37.0079992   1.6869978  86.9280014
  38.7189992   0.8039978  85.8260014  37.8959992   0.3249978  85.2530014
  39.2939992   0.0449978  86.3970014  39.8279992   1.3249978  84.8700014
  40.3499992   0.5009978  84.3390014  40.5779992   1.7389978  85.5780014
  39.4429992   2.4309978  83.8490014  39.0299992   3.3079978  84.3920014
  38.7959992   2.0639978  83.0240014  40.6019992   3.0179978  82.9670014
  40.1909992   3.9339978  82.4910014  41.0929992   2.2039978  82.3920014
  41.2509992   3.3249978  83.8150014  12.2999992  22.3199978  84.1650014
  12.6479992  22.1299978  83.1270014  11.7269992  23.2679978  84.0800014
  11.5839992  21.5199978  84.4500014  13.5529992  22.5159978  85.0500014
  13.2689992  22.9689978  86.0230014  14.0309992  21.5329978  85.2490014
  14.6319992  23.3939978  84.4580014  14.7339992  23.2849978  83.3570014
  14.2759992  24.4419978  84.5500014  16.1479992  23.3339978  84.9460014
  16.4999992  22.2849978  84.8430014  16.8759992  23.8889978  84.3160014
  16.3459992  23.8649978  86.3970014  16.2909992  24.9739978  86.4290014
  15.5569992  23.3879978  87.0170014  17.7909992  23.5199978  86.9010014
  17.9579992  22.4239978  86.8340014  18.5439992  24.0249978  86.2590014
  17.9869992  23.6659978  88.4230014  19.0489992  23.5089978  88.7080014
  17.6709992  24.7189978  88.5860014  17.1339992  22.8019978  89.3920014
  16.0719992  22.8049978  89.0660014  17.5429992  21.7719978  89.3230014
  16.9749992  23.2859978  90.8260014  18.0389992  23.3979978  91.1270014
  16.5059992  24.2909978  90.8860014  16.2649992  22.2579978  91.7230014
  15.4619992  21.7319978  91.1630014  17.0159992  21.4589978  91.9000014
  15.9199992  22.6939978  93.1420014  16.8349992  22.9269978  93.7270014
  15.4439992  23.6969978  93.1810014  15.1209992  21.6689978  94.0330014
  14.0529992  21.8629978  93.7980014  15.3549992  20.6119978  93.7830014
  15.5769992  21.7229978  95.5780014  15.8429992  22.7749978  95.8180014
  14.6759992  21.4079978  96.1470014  16.7609992  20.8309978  95.9860014
  16.5239992  19.7479978  96.0710014  17.5829992  20.9459978  95.2470014
  17.3059992  21.1389978  97.3270014  16.4439992  21.1799978  98.0270014
  18.0339992  20.3239978  97.5320014  18.1879992  22.3809978  97.2530014
  18.9629992  22.6499978  96.3390014  18.0509992  23.0859978  98.3060014
  18.6849992  24.3329978  98.4770014  19.3439992  24.2329978  99.3660014
  19.1749992  24.7959978  97.5940014  17.5709992  25.4129978  98.9460014
  18.1129992  26.3829978  98.9370014  17.0919992  25.2119978 100.4150014
  18.0449992  25.2399978 100.9850014  16.5609992  26.1279978 100.7500014
  16.4049992  23.9489978 100.7060014  15.7879992  23.7219978 102.1470014
  14.5009992  24.5729978 102.2380014  13.7409992  24.8299978 100.9790014
  13.7589992  25.9379978 100.8980014  14.2499992  24.3719978 100.1040014
  12.2809992  24.3109978 100.9740014  11.6399992  24.9379978 100.3720014
  12.3409992  23.3249978 100.5370014  11.5489992  23.9609978 102.2460014
  12.0609992  22.6699978 102.7080014  12.2299992  21.9869978 101.8890014
  13.0249992  22.8679978 103.1530014  11.4859992  22.2359978 103.5130014
  11.7099992  25.0819978 103.2680014  11.1369992  24.9649978 104.1750014
  12.7289992  25.0609978 103.6250014  11.4979992  26.0279978 102.7910014
  10.0919992  23.7049978 101.9320014   9.5519992  23.3649978 102.8040014
  10.0609992  22.9169978 101.1940014   9.6529992  24.5569978 101.4330014
  15.4229992  22.3339978 102.1980014  16.7759992  24.2949978 103.1110014
  16.4639992  25.3499978  98.0870014  15.4029992  26.1219978  98.2420014
  15.3289992  27.1579978  98.9180014  14.3029992  25.6069978  97.3130014
  13.2939992  25.7209978  97.7630014  14.4499992  24.5359978  97.0560014
  14.2869992  26.4859978  96.0830014  13.9999992  27.5319978  96.3240014
  13.4469992  26.1659978  95.4310014  15.4949992  26.3779978  95.1260014
  15.5329992  25.3279978  94.7660014  16.4549992  26.7259978  95.5650014
  15.3899992  27.2659978  93.9590014  16.1479992  26.9919978  93.1950014
  15.5649992  28.3589978  94.0550014  14.0329992  26.9739978  93.2470014
  13.3149992  27.4939978  93.9170014  13.8659992  25.8749978  93.2350014
  13.9319992  27.6679978  91.8860014  14.3949992  28.6509978  92.1160014
  12.8749992  27.9029978  91.6340014  14.5529992  26.8229978  90.8200014
  15.5559992  26.4509978  91.1200014  14.7989992  27.5739978  90.0390014
  13.8619992  25.6569978  90.2790014  14.1959992  24.6299978  90.4900014
  12.8919992  25.7289978  89.3270014  12.5089992  24.7819978  88.9200014
  12.3239992  26.9609978  88.6460014  12.5149992  27.8779978  89.2430014
  11.2329992  26.8509978  88.4650014  13.0639992  27.2989978  87.3070014
  12.8039992  26.4949978  86.5850014  14.1419992  27.1729978  87.5460014
  12.7029992  28.6449978  86.7940014  13.0429992  29.3219978  87.6070014
  11.6089992  28.6579978  86.5980014  13.5309992  29.0529978  85.5500014
  14.6079992  29.0559978  85.8220014  13.3469992  30.0949978  85.2100014
  13.3899992  28.0609978  84.3520014  13.8879992  27.0759978  84.4780014
  13.9499992  28.4309978  83.4670014  11.9639992  27.7899978  83.8020014
  11.5309992  28.7439978  83.4340014  11.3189992  27.2769978  84.5470014
  12.0809992  26.9019978  82.5140014  11.0669992  26.5169978  82.2750014
  12.5699992  25.9609978  82.8460014  12.5909992  27.5089978  81.2620014
  11.8859992  28.2879978  80.9010014  12.6009992  26.7049978  80.4960014
  13.6389992  27.8649978  81.3630014   3.6639992  34.6229978  85.3020014
   4.7549992  34.5439978  85.4970014   3.3389992  35.5369978  84.7600014
   3.2699992  33.7349978  84.7620014   2.8429992  34.6549978  86.5860014
   1.7669992  34.8149978  86.3630014   2.9359992  33.7039978  87.1530014
   3.1899992  35.6719978  87.7030014   4.2429992  35.5179978  88.0200014
   3.1859992  36.7229978  87.3430014   2.3349992  35.4899978  88.9150014
   1.3919992  35.0679978  88.5050014   2.6949992  34.6699978  89.5730014
   1.9629992  36.6469978  89.7790014   1.4029992  37.4729978  89.2930014
   1.4079992  36.3629978  90.6990014   3.2359992  37.3209978  90.3770014
   3.9359992  36.7159978  90.9920014   3.9599992  37.5279978  89.5600014
   3.1199992  38.6439978  91.2300014   4.0919992  39.1339978  91.4520014
   2.5149992  39.2839978  90.5530014   2.2109992  38.5519978  92.3990014
   2.1039992  39.5749978  92.8190014   1.1989992  38.2739978  92.0330014
   2.7399992  37.5439978  93.4410014   2.9009992  36.5579978  92.9540014
   3.6819992  37.8979978  93.9120014   1.7319992  37.3909978  94.5940014
   2.2069992  36.8029978  95.4070014   1.4829992  38.4299978  94.8970014
   0.4079992  36.6759978  94.2580014  -0.1520008  36.7919978  95.2100014
  -0.1270008  37.0859978  93.3750014   0.4169992  35.1789978  93.9030014
  -0.6610008  34.9219978  93.8170014   0.8449992  34.9069978  92.9150014
   1.1109992  34.2209978  94.8920014   1.8419992  33.6369978  94.2940014
   1.6989992  34.7869978  95.6470014   0.0199992  33.3379978  95.6040014
  -0.5580008  34.1569978  96.0840014  -0.6070008  32.8899978  94.8030014
   0.5009992  32.2759978  96.5090014  -0.3330008  31.6609978  96.9110014
   1.1809992  31.5969978  95.9520014   1.1889992  32.9549978  97.7610014
   1.2449992  34.1659978  98.0080014   1.6349992  31.9319978  98.5090014
   2.0649992  32.2399978  99.8140014   2.1719992  33.3269978 100.0140014
   1.2999992  31.8369978 100.5110014   3.2919992  31.5579978 100.1890014
   3.4029992  30.4869978  99.9140014   3.6479992  31.5669978 101.6630014
   2.7719992  31.2359978 102.2610014   4.4789992  30.8659978 101.8930014
   4.0519992  32.9169978 101.9950014   3.3799992  33.6159978 103.3370014
   3.7119992  35.1579978 103.2430014   4.5749992  35.6129978 102.1850014
   4.8399992  36.6719978 102.3950014   5.5549992  35.0969978 102.1040014
   3.8869992  35.7199978 100.8260014   4.6129992  36.2259978 100.2080014
   3.7299992  34.7239978 100.4390014   2.6249992  36.5519978 100.7920014
   2.8489992  37.9039978 101.5420014   1.9449992  38.4749978 101.3900014
   2.9709992  37.7919978 102.6090014   3.6449992  38.5549978 101.2130014
   2.2149992  36.9389978  99.4310014   2.8829992  37.6919978  99.0390014
   1.9889992  36.0879978  98.8060014   1.2929992  37.4999978  99.4690014
   1.4529992  35.8379978 101.3730014   1.4929992  34.9929978 100.7010014
   0.5669992  36.4489978 101.2850014   1.6689992  35.6369978 102.4120014
   1.9319992  33.3589978 103.3300014   4.1319992  32.9999978 104.4520014
   4.2849992  32.2309978  99.3880014   5.4839992  31.6419978  99.1470014
   5.8799992  30.5999978  99.5380014   6.4379992  32.6849978  98.4010014
   7.3289992  32.0919978  98.1020014   6.7189992  33.4599978  99.1460014
   5.7579992  33.2219978  97.1910014   4.9909992  33.9739978  97.4760014
   5.2569992  32.3689978  96.6850014   6.7429992  33.9659978  96.2790014
   7.5019992  33.2949978  95.8260014   7.2289992  34.7619978  96.8830014
   6.0409992  34.6559978  95.1400014   6.5189992  35.6459978  95.3020014
   4.9639992  34.7809978  95.3840014   6.2319992  34.1319978  93.7090014
   7.2769992  33.9979978  93.3550014   5.7909992  34.9149978  93.0560014
   5.6489992  32.7039978  93.3960014   5.3729992  32.2369978  94.3660014
   6.4659992  32.0429978  93.0380014   4.4379992  32.7859978  92.3610014
   4.6529992  33.1609978  91.3380014   3.7449992  33.5229978  92.8200014
   3.6409992  31.5379978  92.4580014   2.9279992  31.5599978  93.2960014
   3.7469992  30.4689978  91.6450014   3.0709992  29.6209978  91.8300014
   4.7049992  30.3769978  90.4340014   5.4419992  29.6309978  90.7990014
   5.2279992  31.3269978  90.1900014   4.1529992  29.7599978  89.1440014
   3.5429992  28.8459978  89.3130014   4.8969992  29.3409978  88.4330014
   3.2989992  30.7919978  88.3690014   3.9549992  31.6359978  88.0670014
   2.4879992  31.2209978  88.9950014   2.6199992  30.1709978  87.1890014
   1.7009992  29.6459978  87.5280014   3.2879992  29.3759978  86.7940014
   2.2589992  31.2219978  86.0640014   3.1309992  31.8979978  86.1930014
   1.3399992  31.7149978  86.4490014   2.1419992  30.7009978  84.5700014
   2.8879992  29.9479978  84.2360014   2.4569992  31.5319978  83.9030014
   0.8759992  30.0079978  84.1900014   0.0339992  30.7319978  84.1660014
   0.7609992  29.2559978  84.9990014   0.8779992  29.2549978  82.8880014
   1.7309992  28.5749978  82.6750014   0.9489992  29.9819978  82.0500014
  -0.1020008  28.7329978  82.8460014  10.6159992 131.0899978  81.2810014
  11.3279992 130.9879978  80.4340014  10.7899992 132.0589978  81.7970014
   9.5669992 131.2539978  80.9520014  10.5839992 129.8509978  82.1510014
  10.3069992 128.9769978  81.5240014  11.6409992 129.6729978  82.4420014
   9.8509992 130.0009978  83.4390014  10.4369992 130.7729978  83.9820014
   8.7859992 130.2129978  83.2030014  10.0499992 128.7539978  84.3370014
   9.6359992 127.8229978  83.8930014  11.1379992 128.6479978  84.5370014
   9.4749992 128.9559978  85.7330014   9.9639992 129.8659978  86.1410014
   8.3999992 129.2089978  85.6110014   9.6419992 127.7819978  86.6390014
   9.1089992 126.9689978  86.1000014  10.7029992 127.4579978  86.6920014
   9.0939992 127.7579978  88.0320014   8.0089992 127.9859978  87.9620014
   9.3579992 126.7469978  88.4110014   9.6829992 128.7869978  88.9940014
  10.7769992 128.6019978  88.9330014   9.5289992 129.8499978  88.7100014
   9.1389992 128.6899978  90.4050014   9.4619992 127.7029978  90.7990014
   9.8269992 129.2869978  91.0400014   7.7129992 129.1269978  90.7300014
   7.5859992 130.2199978  90.5740014   6.9259992 128.7819978  90.0260014
   7.4629992 128.8139978  92.2340014   7.5909992 127.7259978  92.4200014
   8.2079992 129.3259978  92.8790014   6.0579992 129.1259978  92.6870014
   5.9039992 130.2259978  92.7110014   5.2879992 128.6709978  92.0280014
   5.8549992 128.5189978  94.0950014   4.7689992 128.3779978  94.2790014
   6.2589992 127.4939978  93.9460014   6.3869992 129.3729978  95.2970014
   7.4509992 129.6249978  95.1020014   5.9099992 130.3739978  95.3690014
   6.4019992 128.6499978  96.6490014   6.5749992 129.3499978  97.4940014
   5.4059992 128.1789978  96.7960014   7.5689992 127.6459978  96.7190014
   8.4449992 127.5659978  95.8720014   7.4859992 126.8379978  97.8300014
   8.7399992 126.2909978  98.2430014   8.5339992 125.5699978  99.0630014
   9.2399992 125.8089978  97.3760014   9.7769992 127.2289978  98.9510014
  10.6569992 126.6509978  99.3050014   9.1579992 127.7569978 100.2790014
   8.7779992 126.9119978 100.8930014  10.0589992 128.1209978 100.8190014
   8.1089992 128.6609978  99.9490014   7.6039992 129.5909978 101.1340014
   8.2119992 131.0009978 100.7510014   9.5969992 131.1889978 100.8460014
  10.2139992 130.3889978 100.3830014   9.7729992 132.0529978 100.1690014
  10.1039992 131.5129978 102.3240014  10.0769992 130.5739978 102.8570014
  11.1259992 131.8429978 102.2140014   9.4509992 132.5279978 103.3160014
   9.4109992 133.8659978 102.5640014   8.7649992 133.7409978 101.7080014
   9.0479992 134.7229978 103.1120014  10.3789992 134.2089978 102.2300014
   8.0409992 132.0779978 103.6410014   7.4489992 132.0269978 102.7400014
   7.9769992 131.1059978 104.1080014   7.6529992 132.7969978 104.3470014
  10.2479992 132.6889978 104.5930014  11.2879992 132.8199978 104.3300014
  10.1099992 131.8409978 105.2470014   9.9239992 133.6139978 105.0470014
   6.1719992 129.7449978 100.9450014   8.0799992 129.0609978 102.4440014
  10.1509992 128.3709978  98.1790014  11.1279992 128.0919978  97.3670014
  11.6719992 127.0059978  97.1710014  11.4619992 129.3919978  96.3910014
  11.1699992 129.0059978  95.3910014  12.5699992 129.4719978  96.3600014
  10.8429992 130.7639978  96.8690014  11.3489992 131.1419978  97.7830014
   9.7979992 130.5139978  97.1500014  10.7409992 131.8239978  95.7830014
  11.7499992 132.1079978  95.4150014  10.3839992 132.8009978  96.1730014
   9.7959992 131.4249978  94.6130014   8.9209992 131.0449978  95.1820014
  10.1459992 130.5319978  94.0520014   9.4449992 132.5179978  93.6040014
   9.2899992 133.4719978  94.1510014   8.4699992 132.2429978  93.1480014
  10.4499992 132.9239978  92.4800014  11.3939992 132.9599978  93.0640014
  10.2999992 133.9839978  92.1810014  10.5729992 131.9589978  91.3120014
   9.5369992 131.7569978  90.9660014  11.0319992 131.0259978  91.7040014
  11.3949992 132.6829978  90.2210014  12.4789992 132.5449978  90.3480014
  11.0609992 133.5819978  89.2670014  11.8529992 134.0059978  88.6340014
   9.6439992 134.1249978  89.0810014   9.7169992 135.2319978  89.0170014
   9.0179992 133.8499978  89.9560014   8.9119992 133.7509978  87.8060014
   9.5359992 133.9559978  86.9100014   8.0369992 134.4219978  87.6770014
   8.4929992 132.2949978  87.7120014   8.6619992 131.7459978  88.6640014
   9.1429992 131.6499978  87.0830014   7.0109992 131.9989978  87.5510014
   6.4719992 132.4789978  88.3960014   6.7879992 130.9219978  87.7070014
   6.4709992 132.4349978  86.1390014   6.5309992 133.5439978  86.1330014
   5.3779992 132.2469978  86.0760014   6.9849992 131.7319978  84.8920014
   6.5789992 130.7119978  85.0620014   8.0939992 131.6569978  84.8920014
   6.5299992 132.3049978  83.5370014   5.4279992 132.4129978  83.6250014
   6.7899992 131.5019978  82.8140014   7.2649992 133.6619978  83.2850014
   6.8089992 134.4039978  83.9750014   7.0189992 133.8759978  82.2230014
   8.3729992 133.6259978  83.3640014  21.1659992 144.4909978  85.5350014
  20.2909992 144.8999978  84.9850014  21.8879992 144.3879978  84.6980014
  21.7309992 145.1589978  86.2200014  20.9369992 143.0809978  86.1250014
  20.4969992 142.4429978  85.3290014  21.9079992 142.6389978  86.4380014
  20.0899992 143.1059978  87.3880014  20.6779992 143.8339978  87.9860014
  19.1229992 143.6439978  87.2870014  19.8709992 141.7149978  88.0330014
  19.1409992 141.1809978  87.3870014  20.8449992 141.1849978  87.9560014
  19.3209992 141.6609978  89.4230014  18.2509992 141.9579978  89.4530014
  19.4569992 140.6199978  89.7870014  20.0739992 142.5489978  90.5060014
  21.1589992 142.3799978  90.3380014  19.8299992 143.6149978  90.3140014
  19.7279992 142.0419978  91.9610014  18.6619992 142.2519978  92.1900014
  19.7099992 140.9429978  92.1230014  20.7179992 142.5089978  93.0020014
  21.6899992 141.9899978  92.8590014  20.8299992 143.5939978  92.7950014
  20.3599992 142.1639978  94.4420014  19.2569992 142.2909978  94.4850014
  20.6219992 141.0849978  94.4760014  21.1139992 143.0979978  95.3980014
  22.1799992 142.9049978  95.1530014  20.7989992 144.0659978  94.9520014
  20.8299992 142.9509978  96.8810014  19.7459992 143.1899978  96.9230014
  21.1729992 141.9539978  97.2300014  21.6439992 143.9559978  97.6250014
  21.7209992 143.6119978  98.6790014  22.6909992 144.0859978  97.2790014
  20.9619992 145.3389978  97.8480014  21.8559992 145.9299978  98.1390014
  20.6799992 145.6269978  96.8130014  19.8369992 145.2739978  98.9040014
  19.0739992 144.5639978  98.5200014  20.4449992 144.8109978  99.7100014
  19.1879992 146.6549978  99.2540014  19.9599992 147.3739978  99.6020014
  18.5869992 147.0239978  98.3950014  18.3519992 146.2779978 100.4380014
  18.8119992 145.9569978 101.5400014  17.0979992 146.3109978 100.1040014
  16.1689992 146.1279978 101.1770014  16.5249992 146.3259978 102.2100014
  15.2699992 146.7439978 100.9600014  15.5679992 144.6739978 101.1090014
  14.7319992 144.7169978 101.8400014  16.5979992 143.5269978 101.5260014
  17.1659992 143.8329978 102.4300014  15.9079992 142.6989978 101.7950014
  17.4449992 143.2039978 100.4630014  18.1409992 141.8119978 100.5460014
  19.2539992 142.1539978 101.5870014  20.3049992 141.3249978 101.9780014
  19.8779992 140.3039978 102.0770014  21.0899992 141.2419978 101.1960014
  20.8249992 141.7149978 103.3500014  19.9409992 141.5629978 103.9520014
  21.4819992 140.9839978 103.7990014  21.3089992 143.1219978 103.5470014
  20.2829992 144.2229978 103.6210014  19.6589992 144.1659978 102.7420014
  19.6959992 144.1509978 104.5240014  20.8039992 145.1549978 103.7830014
  22.1379992 143.1859978 104.7520014  22.6069992 144.1579978 104.7840014
  21.6469992 142.8189978 105.6410014  22.9059992 142.4649978 104.5160014
  22.2099992 143.4929978 102.3370014  23.1249992 142.9219978 102.2830014
  22.5149992 144.5289978 102.3810014  21.5669992 143.4189978 101.4730014
  17.2669992 140.7839978 101.1200014  18.7319992 141.4709978  99.2050014
  15.0159992 144.6009978  99.7640014  14.4999992 143.5089978  99.3170014
  14.1989992 142.5319978 100.0620014  14.4269992 143.5099978  97.7600014
  14.0379992 144.4579978  97.3330014  13.9649992 142.5409978  97.4740014
  15.8259992 143.4849978  97.1290014  16.4239992 142.6279978  97.5070014
  16.3349992 144.4609978  97.2780014  15.8119992 143.2799978  95.5590014
  15.5609992 142.2119978  95.3840014  16.8119992 143.4019978  95.0900014
  14.9899992 144.3749978  94.8180014  15.0949992 145.4119978  95.2030014
  13.9629992 144.0069978  95.0320014  15.2699992 144.4809978  93.2670014
  14.5839992 145.2429978  92.8390014  15.0299992 143.4879978  92.8310014
  16.7419992 144.8749978  92.8940014  16.8499992 144.9629978  91.7920014
  17.4319992 144.0919978  93.2770014  17.2349992 146.2579978  93.4450014
  17.0799992 146.2139978  94.5440014  16.6969992 147.1269978  93.0100014
  18.6989992 146.3349978  93.1560014  19.2889992 145.8789978  93.9640014
  19.3309992 146.8659978  92.0680014  20.4159992 146.7279978  91.9570014
  18.6909992 147.4969978  90.8410014  19.2639992 148.4339978  90.6760014
  17.6629992 147.8019978  91.1340014  18.7629992 146.7199978  89.4880014
  19.2539992 145.7239978  89.5140014  19.2789992 147.3149978  88.7040014
  17.4299992 146.3549978  88.9680014  16.6829992 147.0989978  89.3190014
  17.1379992 145.3809978  89.4150014  17.3939992 146.1729978  87.4330014
  18.0969992 145.3559978  87.1640014  17.7029992 147.1569978  87.0200014
  16.0469992 145.5999978  86.9460014  15.9749992 144.6399978  87.5020014
  16.2859992 145.3169978  85.8980014  14.8739992 146.4829978  86.9810014
  14.8879992 146.8879978  88.0150014  13.8759992 146.0589978  86.7420014
  14.9819992 147.6399978  86.0640014  15.9719992 148.1329978  86.1650014
  14.1979992 148.3729978  86.3510014  14.8719992 147.2329978  84.5560014
  14.0629992 146.4739978  84.4950014  15.8009992 146.8119978  84.1160014
  14.7809992 148.1069978  83.8760014  -0.0320008 125.2419978  84.6880014
   0.8509992 125.7319978  84.2240014  -0.7440008 126.0909978  84.7680014
  -0.4070008 124.4089978  84.0560014   0.4699992 124.6179978  85.9740014
   0.3879992 125.4669978  86.6850014  -0.2220008 123.8259978  86.3330014
   1.9519992 124.1369978  85.9980014   1.9729992 123.0279978  86.0570014
   2.4629992 124.4569978  85.0650014   2.8569992 124.6359978  87.2040014
   3.8999992 124.4589978  86.8650014   2.7419992 125.7409978  87.1950014
   2.4319992 124.1809978  88.4890014   1.3219992 124.2149978  88.4640014
   2.6819992 123.1119978  88.6570014   2.8899992 124.8739978  89.7290014
   2.7159992 125.9569978  89.5550014   2.3079992 124.5289978  90.6100014
   4.3579992 124.6589978  90.1450014   4.5019992 123.6379978  90.5590014
   5.0149992 124.7419978  89.2530014   4.9599992 125.8159978  91.0550014
   6.0549992 125.7049978  91.2040014   4.7929992 126.7629978  90.4990014
   4.2149992 125.8809978  92.3840014   3.1429992 126.0769978  92.1680014
   4.3219992 124.8639978  92.8190014   4.8979992 126.8609978  93.3020014
   5.8709992 126.4169978  93.6010014   5.0779992 127.8559978  92.8400014
   4.0959992 127.1979978  94.6120014   3.8149992 126.2219978  95.0620014
   4.7569992 127.7729978  95.2960014   2.8099992 127.9189978  94.2590014
   3.0759992 128.8549978  93.7230014   2.3219992 127.2469978  93.5200014
   1.9509992 128.3669978  95.4730014   2.5929992 128.7429978  96.2980014
   1.2659992 129.1629978  95.1110014   1.0799992 127.1419978  95.8830014
   1.7329992 126.3009978  96.2010014   0.5759992 127.5139978  96.8010014
   0.0369992 126.7349978  94.9190014  -0.2620008 127.6309978  94.3340014
   0.3599992 125.9369978  94.2170014  -1.2330008 126.1629978  95.5420014
  -2.3060008 126.2669978  95.0030014  -0.9680008 125.5379978  96.6940014
  -2.0180008 124.7219978  97.2710014  -2.6580008 125.3949978  97.8810014
  -2.5510008 124.1179978  96.5060014  -1.5190008 123.5689978  98.2040014
  -2.3640008 123.0019978  98.6480014  -0.6910008 124.2589978  99.4410014
  -1.1940008 125.1679978  99.8350014  -0.7230008 123.5749978 100.3170014
   0.6749992 124.5719978  98.9750014   1.5599992 125.5109978  99.9210014
   1.7729992 124.7189978 101.2590014   3.0319992 124.4959978 101.7200014
   3.6539992 123.8969978 101.0210014   3.6419992 125.3639978 102.0500014
   3.0129992 123.6399978 103.0370014   2.6039992 122.6649978 102.8160014
   4.0019992 123.6159978 103.4710014   2.0209992 124.0329978 104.1960014
   1.9859992 125.5029978 104.5950014   1.7119992 126.1149978 103.7480014
   1.2469992 125.6529978 105.3680014   2.9899992 125.7379978 104.9160014
   0.6749992 123.6499978 103.8800014   0.5299992 122.5859978 103.9940014
   0.0449992 124.0539978 104.6590014   0.4979992 124.0419978 102.8890014
   2.5049992 123.1809978 105.4060014   3.4969992 123.5349978 105.6460014
   2.5319992 122.1229978 105.1910014   1.9019992 123.3529978 106.2850014
   2.8549992 125.9059978  99.2910014   0.7539992 126.7279978 100.2250014
  -0.7760008 122.7259978  97.3440014  -0.1030008 121.7389978  97.9720014
  -0.1740008 121.3939978  99.1470014   0.9979992 121.1699978  97.0130014
   0.7359992 121.5399978  95.9990014   1.0739992 120.0619978  97.0460014
   2.3699992 121.6459978  97.4620014   2.7189992 121.2909978  98.4550014
   2.3779992 122.7469978  97.6100014   3.5269992 121.2869978  96.5300014
   3.0749992 120.4529978  95.9520014   4.4389992 121.0609978  97.1220014
   3.9879992 122.4749978  95.7400014   4.8429992 122.9519978  96.2660014
   3.1749992 123.2299978  95.6800014   4.5609992 122.2499978  94.3450014
   5.4349992 121.5799978  94.4870014   4.9059992 123.2199978  93.9270014
   3.6569992 121.5819978  93.3110014   3.3589992 120.5279978  93.4980014
   4.1819992 121.4699978  92.3380014   2.3489992 122.4079978  93.1000014
   2.5299992 123.4759978  92.8540014   1.6969992 122.3569978  93.9980014
   1.6259992 121.9229978  91.8850014   2.1789992 121.1839978  91.2860014
   0.3609992 122.1429978  91.6050014  -0.0740008 121.7639978  90.6690014
  -0.6520008 122.9409978  92.2910014  -0.2830008 123.3749978  93.2450014
  -1.6310008 122.4179978  92.3550014  -1.0560008 124.1869978  91.3620014
  -0.0830008 124.6229978  91.0510014  -1.6910008 124.9169978  91.9090014
  -1.7630008 123.6559978  90.1140014  -2.7040008 123.1709978  90.4520014
  -1.1460008 122.9339978  89.5360014  -2.2420008 124.7409978  89.2050014
  -1.2950008 125.2009978  88.8520014  -2.8430008 125.4999978  89.7490014
  -3.1460008 124.3979978  88.0560014  -4.0750008 123.9109978  88.4220014
  -2.6610008 123.5429978  87.5390014  -3.1470008 125.5579978  87.0570014
  -2.1990008 125.5599978  86.4770014  -3.3040008 126.5189978  87.5930014
  -4.2850008 125.4079978  86.0320014  -5.2290008 125.3599978  86.6160014
  -4.0870008 124.4349978  85.5340014  -4.3470008 126.5749978  85.0130014
  -3.3350008 126.8929978  84.6860014  -4.8470008 127.4569978  85.4670014
  -4.9290008 126.1609978  84.1610014 138.8539992   9.3199978  83.5120014
 139.8889992   9.1069978  83.1690014 138.7999992   9.1699978  84.6120014
 138.7939992  10.4189978  83.3630014 137.7909992   8.4069978  82.9250014
 136.7929992   8.8749978  83.0670014 138.0069992   8.4429978  81.8360014
 137.6439992   6.9459978  83.3510014 137.0989992   6.3649978  82.5760014
 138.6679992   6.5149978  83.3820014 136.9139992   6.5539978  84.6540014
 137.2599992   7.0409978  85.5900014 135.9339992   7.0619978  84.5310014
 136.5659992   5.0519978  84.9060014 135.7989992   4.9849978  85.7060014
 136.1409992   4.5269978  84.0240014 137.8819992   4.2449978  85.3020014
 138.4389992   4.1829978  84.3430014 138.4559992   4.7679978  86.0970014
 137.5019992   2.8429978  85.7590014 136.5479992   2.7089978  85.2060014
 138.2189992   2.0859978  85.3780014 137.2889992   2.7929978  87.3080014
 136.8459992   3.7679978  87.6020014 136.6509992   1.8989978  87.4760014
 138.5599992   2.6129978  88.2110014 139.1799992   1.7569978  87.8680014
 139.1979992   3.4979978  88.0020014 138.1899992   2.4399978  89.6770014
 137.7389992   3.3549978  90.1160014 137.3299992   1.7449978  89.7880014
 139.3489992   2.0869978  90.6660014 139.7169992   1.1579978  90.1790014
 140.1379992   2.8689978  90.6680014 138.8699992   1.7409978  92.0710014
 138.0839992   0.9559978  92.0520014 139.7719992   1.4029978  92.6240014
 138.2839992   2.8979978  92.8970014 137.3309992   3.2189978  92.4260014
 138.1239992   2.5579978  93.9430014 139.1489992   4.1959978  92.9670014
 139.6259992   4.4019978  91.9850014 138.4569992   5.0539978  93.1050014
 140.3039992   4.2729978  93.9340014 141.0269992   3.4689978  93.6790014
 140.9159992   5.1819978  93.7500014 139.9759992   4.2519978  95.4130014
 139.0979992   4.8769978  96.0070014 140.9369992   3.4899978  95.9570014
 140.9409992   3.1899978  97.3960014 139.9549992   3.4359978  97.8440014
 141.2749992   2.1559978  97.6260014 142.0649992   4.0349978  98.0780014
 142.9589992   3.9269978  97.4280014 142.3639992   3.6669978  99.4400014
 142.6229992   2.5899978  99.3560014 143.1789992   4.1919978  99.9820014
 141.1269992   3.6769978 100.1800014 141.0669992   4.5689978 101.4670014
 139.5089992   4.8569978 101.5300014 138.9169992   5.8529978 100.7000014
 139.5739992   6.1379978  99.8510014 137.9409992   5.6019978 100.2330014
 138.5909992   7.0909978 101.5990014 139.5109992   7.6119978 101.8130014
 138.1019992   7.8439978 100.9990014 137.8679992   7.0149978 102.9670014
 137.6149992   8.4209978 103.3970014 137.0689992   9.0379978 102.6990014
 137.0339992   8.4729978 104.3060014 138.5339992   8.9729978 103.5220014
 136.5209992   6.2729978 102.7900014 136.7569992   5.2369978 102.6000014
 135.9859992   6.4069978 103.7180014 136.0349992   6.8469978 102.0150014
 138.8109992   6.2899978 103.9230014 139.7379992   6.8389978 103.9900014
 138.8709992   5.2609978 103.6020014 138.3219992   6.3179978 104.8860014
 141.3279992   3.7549978 102.6370014 141.7229992   5.8379978 101.3160014
 141.6129992   5.4059978  97.8730014 142.3599992   6.3779978  98.3400014
 143.5729992   6.3139978  98.5670014 141.5129992   7.6669978  98.3610014
 141.2659992   7.9189978  99.4140014 140.5409992   7.4139978  97.8850014
 142.2329992   8.9269978  97.6450014 143.3209992   8.6989978  97.6660014
 142.1389992   9.8609978  98.2400014 141.8079992   9.1219978  96.1800014
 142.3129992   9.9939978  95.7120014 140.7369992   9.4139978  96.1510014
 142.0219992   7.8439978  95.4140014 141.1199992   7.2479978  95.6700014
 142.9659992   7.3579978  95.7410014 141.8959992   7.9139978  93.9490014
 140.9309992   7.8759978  93.3990014 142.3479992   6.9639978  93.5920014
 142.7099992   9.0709978  93.2940014 143.4819992   9.3989978  94.0230014
 141.9759992   9.9039978  93.2680014 143.3139992   8.7409978  91.9590014
 143.8379992   9.6819978  91.6860014 142.4649992   8.8079978  91.2470014
 144.3289992   7.6809978  91.9290014 145.1969992   7.9529978  92.5470014
 144.3439992   6.5569978  91.1670014 145.2449992   5.9269978  91.1410014
 143.2709992   6.0959978  90.1710014 142.4859992   6.8689978  90.0270014
 142.7049992   5.3299978  90.7430014 143.7819992   5.4459978  88.9270014
 144.5459992   4.6519978  89.0700014 144.2489992   6.2519978  88.3210014
 142.6099992   4.8109978  88.1960014 141.9449992   5.6669978  87.9530014
 141.9679992   4.1369978  88.8030014 142.9569992   3.9109978  87.0020014
 141.9349992   3.4919978  86.8800014 143.6899992   3.1459978  87.3370014
 143.5489992   4.7889978  85.8970014 144.5669992   5.1229978  86.1920014
 142.9589992   5.6959978  85.6440014 143.7019992   4.0439978  84.5180014
 144.3729992   3.1849978  84.7330014 144.3159992   4.5919978  83.7720014
 142.5119992   3.4099978  83.8400014 142.1709992   2.5399978  84.4410014
 142.8739992   2.9619978  82.8890014 141.4129992   4.3899978  83.5630014
 140.5029992   3.8279978  83.2620014 141.6489992   5.0239978  82.6820014
 141.1799992   5.0299978  84.4410014  25.6329992   2.5219978  82.5930014
  26.1859992   3.4669978  82.4060014  25.1549992   2.4989978  83.5960014
  24.8279992   2.3859978  81.8390014  26.4389992   1.1879978  82.5320014
  25.7919992   0.3159978  82.7640014  26.7769992   1.0679978  81.4810014
  27.6509992   1.1239978  83.4930014  28.1859992   0.1709978  83.2920014
  28.2689992   1.9999978  83.2000014  27.3639992   1.2179978  85.0470014
  28.3369992   1.3759978  85.5600014  26.6799992   2.0799978  85.2010014
  26.6379992  -0.0620022  85.4910014  25.7369992  -0.1040022  84.8420014
  27.2749992  -0.9460022  85.2760014  26.1699992  -0.0090022  86.9180014
  26.0359992  -1.0360022  87.3200014  26.9659992   0.4969978  87.5050014
  24.8329992   0.7199978  87.1990014  25.1199992   1.7659978  86.9580014
  24.0239992   0.3269978  86.5460014  24.3999992   0.6389978  88.6490014
  24.7689992  -0.3350022  89.0350014  24.9189992   1.3959978  89.2760014
  22.9469992   0.8299978  88.8910014  22.6179992   1.6899978  88.2700014
  22.3639992  -0.0360022  88.5120014  22.4419992   1.2089978  90.3330014
  21.3329992   1.2619978  90.3410014  22.8389992   0.5099978  91.1000014
  22.9699992   2.5629978  90.7120014  24.0719992   2.4639978  90.8130014
  22.7759992   3.2559978  89.8660014  22.1979992   3.0559978  91.9130014
  22.2339992   4.1509978  92.0950014  21.1319992   2.8579978  91.6740014
  22.5449992   2.3949978  93.2430014  22.6159992   1.2999978  93.0710014
  23.5139992   2.7999978  93.6040014  21.4749992   2.6939978  94.3040014
  21.3779992   3.7939978  94.4220014  20.4919992   2.3949978  93.8800014
  21.5459992   2.0089978  95.6970014  20.5519992   1.9979978  96.1930014
  21.9229992   0.9689978  95.5930014  22.4719992   2.8489978  96.5720014
  23.3199992   3.6229978  96.1600014  22.1479992   2.5649978  97.8110014
  23.0579992   2.9269978  98.8770014  23.6089992   3.8899978  98.8080014
  22.6309992   3.0899978  99.8900014  23.9419992   1.6999978  99.1940014
  23.2519992   0.9339978  99.6090014  25.1039992   2.0159978 100.2000014
  24.7069992   2.7199978 100.9620014  25.5669992   1.1559978 100.7310014
  26.1379992   2.6329978  99.4700014  26.7909992   4.0699978  99.8580014
  27.0969992   3.9079978 101.4350014  28.1929992   3.1349978 101.8440014
  28.5129992   2.3919978 101.0820014  28.9729992   3.7999978 102.2710014
  27.7069992   2.1339978 102.9410014  26.9219992   1.5199978 102.5240014
  28.5879992   1.6349978 103.3160014  27.0599992   2.7509978 104.2250014
  26.6039992   1.6199978 105.0500014  26.0729992   2.0519978 105.8850014
  25.9929992   0.9909978 104.4190014  27.4209992   1.0969978 105.5250014
  27.9979992   3.6849978 104.9390014  28.9589992   3.2759978 105.2130014
  28.0149992   4.6089978 104.3810014  27.6049992   3.7649978 105.9420014
  25.8109992   3.5629978 103.9200014  25.0749992   2.9289978 103.4480014
  26.0189992   4.4219978 103.2990014  25.4039992   3.9929978 104.8240014
  28.1429992   4.2179978  99.2040014  25.7499992   5.1149978  99.6190014
  24.5289992   1.2789978  97.9180014  24.8049992   0.0119978  97.6670014
  24.4029992  -0.9470022  98.2110014  25.7069992  -0.0680022  96.3470014
  25.2149992   0.7039978  95.7170014  25.5739992  -1.0810022  95.9110014
  27.2929992   0.0549978  96.6320014  27.7039992  -0.7090022  97.3270014
  27.5239992   0.9659978  97.2240014  28.1159992   0.2129978  95.3180014
  27.9809992  -0.6710022  94.6590014  29.1859992   0.3219978  95.5970014
  27.7279992   1.4329978  94.4620014  26.6629992   1.3529978  94.1540014
  28.3419992   1.4119978  93.5370014  27.9549992   2.8009978  95.0930014
  28.9909992   2.7939978  95.4940014  27.3049992   3.0709978  95.9540014
  27.7699992   4.1259978  94.2550014  28.5729992   4.0739978  93.4890014
  27.9859992   5.0039978  94.9010014  26.3539992   4.1649978  93.6210014
  25.7169992   4.1369978  94.5300014  26.0669992   3.2319978  93.0890014
  25.9429992   5.4039978  92.8320014  25.4799992   6.1529978  93.4910014
  26.0359992   5.7709978  91.5280014  25.6509992   6.7079978  91.1010014
  26.6429992   4.7939978  90.5470014  25.8029992   4.7259978  89.8230014
  26.7369992   3.7409978  90.8880014  27.9799992   5.4169978  90.0080014
  28.6219992   5.6609978  90.8810014  27.7719992   6.3799978  89.4950014
  28.7899992   4.4719978  89.1200014  29.1839992   3.5379978  89.5750014
  29.7359992   5.0069978  88.8890014  28.1989992   4.1369978  87.7730014
  27.1519992   3.8139978  87.9560014  28.6709992   3.1809978  87.4600014
  28.3719992   5.2869978  86.7430014  29.4219992   5.3389978  86.3830014
  28.0299992   6.2679978  87.1360014  27.5329992   4.9339978  85.4790014
  27.7789992   3.8829978  85.2190014  27.9289992   5.5879978  84.6730014
  26.0149992   5.0499978  85.6350014  25.7579992   4.2959978  86.4100014
  25.4669992   4.5929978  84.7830014  25.4339992   6.3369978  86.0800014
  25.9319992   6.7619978  86.9780014  24.3759992   6.0749978  86.2940014
  25.5319992   7.1089978  85.2870014  14.0929992  12.3079978  83.3640014
  13.8899992  11.7409978  84.2980014  15.1269992  12.1929978  82.9750014
  13.5089992  11.8909978  82.5150014  13.7129992  13.7079978  83.7050014
  13.7239992  14.4099978  82.8440014  12.7659992  13.7279978  84.2870014
  14.6679992  14.3289978  84.7110014  14.8649992  13.5659978  85.4940014
  15.5799992  14.5459978  84.1150014  14.1259992  15.5979978  85.3190014
  13.7019992  16.2459978  84.5220014  13.1979992  15.3949978  85.8950014
  15.3539992  16.2609978  86.0460014  16.0199992  15.5029978  86.5110014
  15.8979992  16.7129978  85.1890014  14.9859992  17.2979978  87.1170014
  14.5109992  18.2219978  86.7220014  14.1609992  16.7619978  87.6330014
  16.0809992  17.7289978  88.0910014  17.0729992  17.8219978  87.6000014
  15.7649992  18.7239978  88.4710014  16.2029992  16.7509978  89.2310014
  15.1439992  16.5179978  89.4730014  16.5889992  15.8109978  88.7820014
  16.9979992  17.0529978  90.4750014  18.0709992  17.2419978  90.2580014
  16.5289992  17.9749978  90.8810014  16.9559992  16.0409978  91.6880014
  17.0109992  15.0079978  91.2830014  17.8269992  16.1949978  92.3610014
  15.7239992  16.1679978  92.5660014  15.9299992  15.3989978  93.3410014
  15.5849992  17.0849978  93.1780014  14.3559992  15.8169978  91.9560014
  13.8249992  16.7599978  91.7030014  14.6939992  15.3099978  91.0270014
  13.4819992  14.9119978  92.9430014  12.5539992  14.7759978  92.3470014
  14.0409992  13.9519978  92.9670014  13.1869992  15.3949978  94.3160014
  13.9719992  15.7699978  95.0080014  12.5849992  16.3049978  94.1100014
  12.1769992  14.4329978  95.0810014  11.7749992  15.1289978  95.8480014
  11.3649992  14.0219978  94.4430014  12.8389992  13.2399978  95.8910014
  13.0549992  12.1859978  95.3370014  13.1629992  13.5599978  97.0830014
  13.6389992  12.6429978  98.0740014  12.8819992  12.4349978  98.8610014
  13.7899992  11.6409978  97.6200014  14.8619992  13.2459978  98.7250014
  15.2269992  12.6769978  99.6070014  14.5899992  14.7049978  99.2790014
  14.1959992  15.1519978  98.3410014  13.7789992  14.5719978 100.0260014
  15.6879992  15.4459978  99.7060014  15.3409992  16.6959978 100.7130014
  15.5909992  15.9329978 102.0760014  16.9609992  15.6509978 102.4130014
  17.5599992  15.4409978 101.5010014  17.4659992  16.4779978 102.9570014
  17.0919992  14.4909978 103.5450014  18.1319992  14.2009978 103.5710014
  16.8259992  14.8199978 104.5390014  16.2549992  13.2019978 103.2840014
  16.8079992  12.4269978 102.0990014  17.8739992  12.2719978 102.1780014
  16.3029992  11.5189978 101.8040014  16.5939992  13.0499978 101.2430014
  16.5039992  12.3129978 104.4240014  17.5539992  12.0649978 104.3700014
  16.1979992  12.8659978 105.3000014  15.8419992  11.4589978 104.4300014
  14.8609992  13.5019978 103.1330014  14.3589992  12.5539978 103.0090014
  14.5659992  14.0939978 102.2800014  14.4249992  13.9139978 104.0300014
  16.3669992  17.7109978 100.4890014  13.8919992  17.1339978 100.6240014
  15.9389992  13.3099978  97.7160014  17.1389992  13.4359978  98.2860014
  17.4369992  13.4269978  99.4650014  18.1559992  13.4229978  97.1350014
  18.1049992  12.4289978  96.6420014  19.2009992  13.5829978  97.4770014
  17.9429992  14.6139978  96.1290014  17.7489992  15.5369978  96.7150014
  17.0739992  14.3769978  95.4790014  19.1669992  14.7679978  95.2800014
  20.0339992  14.9519978  95.9490014  19.0839992  15.7179978  94.7100014
  19.4209992  13.5349978  94.4120014  19.8969992  12.7409978  95.0250014
  20.1469992  13.8709978  93.6420014  18.1899992  12.8749978  93.7360014
  17.6019992  13.6429978  93.1890014  17.4189992  12.3739978  94.3590014
  18.5409992  11.6899978  92.7500014  18.9759992  10.8909978  93.3880014
  19.1919992  12.2029978  92.0100014  17.4329992  10.9329978  91.9370014
  16.5769992  11.6029978  91.7110014  16.9799992  10.1709978  92.6060014
  17.9529992  10.1489978  90.8100014  18.5889992   9.3139978  91.1380014
  17.6619992  10.3039978  89.4940014  17.9349992   9.5239978  88.7680014
  16.6779992  11.2669978  88.8950014  16.5799992  12.1069978  89.6160014
  15.6669992  10.8079978  88.9190014  17.0009992  11.8499978  87.4200014
  17.9069992  12.4929978  87.4290014  16.1869992  12.5629978  87.1690014
  17.0629992  10.8169978  86.2700014  16.1649992  10.1669978  86.3420014
  17.9369992  10.1849978  86.5370014  17.3889992  11.4099978  84.9100014
  16.6489992  12.1289978  84.4980014  17.5029992  10.5319978  84.2380014
  18.8419992  12.0839978  84.8280014  19.3179992  11.7079978  83.8980014
  19.4069992  11.5669978  85.6330014  18.9579992  13.6319978  84.8620014
  19.6999992  13.9269978  85.6340014  17.9229992  14.0029978  85.0200014
  19.3589992  14.2059978  83.4630014  18.7599992  13.6999978  82.6760014
  20.3939992  13.9119978  83.1890014  19.3649992  15.7379978  83.3510014
  19.3699992  16.1229978  82.3090014  20.2009992  16.1599978  83.9480014
  18.4689992  16.1879978  83.8310014 134.3699992 148.4609978  85.4430014
 133.6869992 148.4099978  86.3180014 134.2099992 147.5389978  84.8450014
 134.1579992 149.3409978  84.7990014 135.8499992 148.6719978  85.9240014
 136.4539992 149.1469978  85.1210014 135.7779992 149.3779978  86.7780014
 136.5179992 147.3549978  86.3780014 136.6009992 146.8229978  85.4060014
 137.5179992 147.5869978  86.8040014 135.6299992 146.4249978  87.2370014
 135.2249992 146.9049978  88.1540014 134.6629992 146.2699978  86.7130014
 136.2619992 145.1029978  87.5940014 136.4639992 144.5089978  86.6770014
 137.2249992 145.3969978  88.0640014 135.3959992 144.2549978  88.4630014
 134.3409992 144.4209978  88.1590014 135.7109992 143.1919978  88.4020014
 135.5789992 144.7789978  89.8710014 136.6509992 144.6199978  90.1130014
 135.5039992 145.8779978  90.0110014 134.6769992 143.9729978  90.8040014
 133.7839992 144.6069978  90.9910014 134.4439992 142.9699978  90.3880014
 135.4959992 143.7479978  92.0380014 134.9119992 142.9849978  92.5970014
 136.4709992 143.2549978  91.8370014 135.5959992 144.9909978  92.8780014
 136.2699992 145.7759978  92.4730014 134.6549992 145.5719978  92.9840014
 136.1529992 144.6939978  94.2880014 135.4519992 143.9949978  94.7920014
 137.1589992 144.2249978  94.3210014 136.0999992 145.9759978  95.1990014
 137.0759992 146.4959978  95.1050014 135.3759992 146.7549978  94.8770014
 135.9269992 145.7299978  96.7100014 136.0909992 146.7099978  97.2080014
 134.9629992 145.2029978  96.8740014 137.0759992 144.8859978  97.2520014
 137.0989992 143.9199978  96.7040014 138.0879992 145.2939978  97.0450014
 136.9619992 144.7419978  98.7350014 135.9309992 144.4089978  98.9800014
 137.6719992 143.9489978  99.0550014 137.5219992 146.0439978  99.4780014
 138.6369992 146.2379978  99.8640014 136.5809992 147.0039978  99.4510014
 136.7679992 148.3339978  99.9720014 137.7839992 148.3679978 100.4200014
 136.7289992 149.0409978  99.1150014 135.7239992 148.6729978 101.0700014
 136.0189992 149.6489978 101.5120014 135.9579992 147.6419978 102.2600014
 137.0539992 147.5149978 102.3930014 135.6049992 148.1139978 103.2020014
 135.3289992 146.3979978 102.0130014 134.2829992 145.7839978 103.0450014
 134.5599992 144.2319978 102.9650014 134.9889992 143.5439978 101.8200014
 135.0079992 144.2049978 100.9270014 136.0459992 143.2109978 101.8960014
 134.0739992 142.2929978 101.4740014 134.4799992 141.8219978 100.5910014
 134.1269992 141.6629978 102.3500014 132.5949992 142.6229978 101.1620014
 132.4719992 143.7529978 100.2000014 132.9829992 144.6719978 100.4480014
 132.7489992 143.4339978  99.2060014 131.4639992 144.1409978 100.1730014
 131.9559992 141.4349978 100.4350014 131.9019992 140.6319978 101.1550014
 130.8979992 141.5049978 100.2290014 132.5829992 141.1649978  99.5980014
 131.8459992 142.7879978 102.4110014 132.4089992 143.5139978 102.9790014
 131.7739992 141.8229978 102.8890014 130.8659992 143.2109978 102.2420014
 134.5949992 146.2439978 104.3970014 132.8619992 146.0409978 102.5840014
 134.4849992 148.7189978 100.4160014 133.4549992 149.2009978 101.0890014
 133.4979992 149.5149978 102.2500014 132.1759992 149.2519978 100.2120014
 132.3079992 150.1399978  99.5580014 131.3549992 149.5949978 100.8770014
 131.7139992 147.9009978  99.4970014 130.6059992 147.8549978  99.4420014
 132.0579992 147.1139978 100.2020014 132.3379992 147.6529978  98.0900014
 133.2839992 147.1019978  98.2780014 132.6369992 148.5729978  97.5440014
 131.4029992 146.6889978  97.2970014 130.3859992 147.1269978  97.3880014
 131.3939992 145.7539978  97.8970014 131.9439992 146.3949978  95.8410014
 133.0449992 146.3229978  95.7150014 131.7789992 147.2789978  95.1890014
 131.2219992 145.1489978  95.2720014 130.1149992 145.2429978  95.3090014
 131.6089992 144.2509978  95.7990014 131.6479992 144.8689978  93.8230014
 132.7459992 144.7259978  93.9200014 131.4869992 145.7459978  93.1600014
 130.9919992 143.5829978  93.2950014 131.4269992 142.6439978  93.6680014
 129.8829992 143.5149978  92.4900014 129.5599992 142.4949978  92.2350014
 129.1409992 144.7179978  91.9370014 129.4189992 145.7369978  92.2820014
 128.0849992 144.6399978  92.2740014 129.1539992 144.4219978  90.4090014
 128.2169992 144.9569978  90.1420014 129.1349992 143.3559978  90.0990014
 130.2729992 145.1169978  89.5790014 131.1949992 144.7489978  90.0780014
 130.3199992 146.1729978  89.9220014 130.2679992 145.1739978  88.0380014
 129.4649992 145.8829978  87.7440014 129.9369992 144.2239978  87.5670014
 131.4999992 145.8789978  87.4590014 132.4029992 145.3359978  87.8120014
 131.6309992 146.8369978  88.0060014 131.4999992 145.9259978  85.9760014
 132.3839992 146.5379978  85.6980014 130.5429992 146.3809978  85.6410014
 131.5909992 144.6449978  85.1800014 131.4179992 144.8909978  84.1110014
 130.7379992 144.0209978  85.5240014 132.7999992 143.7259978  85.2420014
 132.6389992 142.9299978  84.4840014 132.9459992 143.2899978  86.2540014
 133.6329992 144.3459978  84.8460014 145.2609992 135.1489978  79.9690014
 145.1709992 134.3969978  79.1560014 146.2829992 135.5759978  79.8800014
 144.5299992 135.9659978  79.7890014 145.0919992 134.5369978  81.2810014
 144.1349992 133.9869978  81.4030014 145.8799992 133.7769978  81.4680014
 145.3149992 135.5339978  82.3790014 146.4229992 135.6099978  82.3700014
 144.7679992 136.4819978  82.1910014 144.8409992 134.9589978  83.7450014
 143.7579992 134.7089978  83.7430014 145.5349992 134.1389978  84.0280014
 144.9339992 135.9469978  84.9800014 145.9839992 136.2869978  85.1070014
 144.2429992 136.7829978  84.7380014 144.5309992 135.3389978  86.3690014
 143.4569992 135.0749978  86.2640014 145.1669992 134.4309978  86.4400014
 144.9169992 136.2809978  87.4730014 146.0199992 136.2819978  87.5990014
 144.5299992 137.3009978  87.2630014 144.5139992 135.9759978  88.9340014
 143.4059992 135.9869978  88.8500014 144.8369992 134.9459978  89.1990014
 144.9739992 136.9689978  90.0630014 144.8059992 137.9829978  89.6410014
 144.4049992 136.7669978  90.9950014 146.5359992 136.8789978  90.3320014
 146.9679992 137.4759978  89.5010014 146.6949992 137.3389978  91.3310014
 147.2629992 135.4659978  90.3170014 146.5409992 134.7939978  90.8290014
 147.4769992 135.1159978  89.2840014 148.5919992 135.4489978  90.9400014
 148.9529992 134.3989978  90.9860014 149.3399992 136.0399978  90.3690014
 148.6909992 135.9999978  92.3710014 149.7769992 135.8219978  92.5250014
 148.5329992 137.0799978  92.5760014 147.8619992 135.1389978  93.2780014
 146.7529992 135.1809978  93.2130014 148.1399992 134.0949978  93.0170014
 148.2919992 135.4679978  94.7480014 148.2959992 134.4849978  95.2670014
 149.3259992 135.8599978  94.8590014 147.3499992 136.4949978  95.2660014
 147.3369992 137.7189978  95.0870014 146.5159992 135.8539978  96.0590014
 145.4609992 136.4249978  96.8680014 145.8169992 137.2719978  97.4940014
 144.6249992 136.6079978  96.1600014 144.9829992 135.3049978  97.9150014
 144.0889992 135.6299978  98.4880014 146.1569992 134.9969978  98.8730014
 147.0919992 135.0459978  98.2750014 146.2209992 135.8239978  99.6130014
 146.1119992 133.6969978  99.3380014 146.1989992 133.4539978 100.8810014
 144.9609992 134.1949978 101.5150014 143.5789992 134.0329978 101.0290014
 143.0899992 135.0269978 100.9430014 143.5879992 133.5949978 100.0080014
 142.8349992 133.0779978 101.9360014 141.8259992 132.9209978 101.5860014
 143.3769992 132.1499978 101.8320014 142.7229992 133.3229978 103.4690014
 141.3959992 132.7749978 103.9500014 141.3099992 132.8779978 105.0220014
 140.5689992 133.2089978 103.4080014 141.4749992 131.7039978 103.8390014
 143.8369992 132.5809978 104.1920014 143.7769992 131.5289978 103.9510014
 144.8199992 132.9749978 103.9800014 143.6629992 132.6379978 105.2560014
 142.7679992 134.7609978 103.6600014 142.1269992 135.3439978 103.0150014
 143.6969992 135.2499978 103.4090014 142.6339992 134.9839978 104.7090014
 146.1619992 132.0199978 101.0940014 147.4019992 134.0469978 101.4430014
 144.5709992 134.0939978  97.2650014 143.4319992 134.1979978  96.5410014
 142.7199992 135.1459978  96.4870014 143.1469992 132.9539978  95.7670014
 142.2939992 132.3979978  96.2120014 143.9769992 132.2159978  95.7780014
 142.8399992 133.2519978  94.3220014 141.9529992 133.8809978  94.0960014
 142.6809992 132.2569978  93.8540014 144.0819992 133.7169978  93.5100014
 145.0069992 133.3619978  94.0130014 144.0039992 134.8249978  93.5300014
 144.1389992 133.0109978  92.1570014 144.7279992 133.7069978  91.5220014
 143.0969992 132.9049978  91.7870014 145.0249992 131.6699978  92.1560014
 144.2019992 130.9689978  92.4130014 145.8909992 131.8009978  92.8390014
 145.6359992 131.5309978  90.7790014 146.2689992 130.6199978  90.7170014
 146.3519992 132.3749978  90.6840014 144.6369992 131.4269978  89.6080014
 145.3629992 131.2209978  88.7920014 144.2789992 132.4239978  89.2730014
 143.5369992 130.4219978  89.8470014 143.6189992 129.8249978  90.7670014
 142.3909992 130.2649978  89.1300014 141.6409992 129.4879978  89.3410014
 141.9829992 131.0139978  87.9010014 141.8789992 132.1159978  87.9900014
 141.0739992 130.4909978  87.5320014 142.9349992 130.9039978  86.6880014
 143.0379992 129.8429978  86.3740014 143.8749992 131.4509978  86.9130014
 142.3059992 131.7289978  85.4720014 142.0589992 132.7529978  85.8250014
 141.3779992 131.1499978  85.2760014 143.2419992 131.8109978  84.2260014
 144.0859992 132.4359978  84.5900014 142.6679992 132.3399978  83.4350014
 143.5709992 130.3939978  83.6530014 142.7449992 129.6579978  83.7570014
 144.4449992 130.0979978  84.2710014 143.9699992 130.4539978  82.1870014
 144.6479992 131.3209978  82.0320014 143.0299992 130.6359978  81.6230014
 144.6169992 129.1419978  81.6920014 145.5309992 128.8329978  82.2410014
 145.0699992 129.2279978  80.6810014 143.6879992 127.8629978  81.6140014
 144.2969992 127.1019978  81.0800014 142.8639992 128.1149978  80.9140014
 143.3309992 127.4539978  82.5830014   2.8729992  27.9689978  84.6120014
   3.2239992  28.1139978  83.5680014   1.7989992  28.2459978  84.6780014
   3.0769992  26.8799978  84.6920014   3.7949992  28.6649978  85.6290014
   4.8679992  28.5619978  85.3600014   3.6369992  29.7609978  85.7190014
   3.7239992  27.9949978  87.0100014   2.7359992  27.5849978  87.3110014
   4.4949992  27.2019978  87.1100014   3.9829992  28.9849978  88.1870014
   5.0029992  29.4229978  88.1510014   3.2559992  29.8059978  88.0090014
   3.6559992  28.3159978  89.5840014   2.5559992  28.2199978  89.7060014
   4.1699992  27.3339978  89.5090014   4.2779992  29.0129978  90.8230014
   5.3609992  29.2089978  90.6740014   3.8239992  30.0269978  90.8650014
   3.8759992  28.4029978  92.1850014   4.1109992  29.0699978  93.0420014
   2.7709992  28.2949978  92.1240014   4.4649992  26.9829978  92.3280014
   4.3579992  26.6629978  93.3860014   3.9519992  26.3649978  91.5600014
   6.0599992  26.8799978  92.1830014   6.1419992  27.0139978  91.0840014
   6.5509992  27.6689978  92.7910014   6.5929992  25.4759978  92.6950014
   6.3849992  25.4029978  93.7840014   5.9639992  24.6399978  92.3190014
   8.0459992  25.1869978  92.3190014   8.0799992  25.2459978  91.2100014
   8.5569992  26.0929978  92.7100014   8.6519992  23.9279978  92.9800014
   8.1659992  23.0319978  92.5380014   9.7289992  24.0319978  92.7280014
   8.3309992  23.7349978  94.4440014   7.2779992  23.4379978  94.6360014
   8.9739992  22.9159978  94.8310014   8.8239992  24.9559978  95.1900014
   9.9189992  25.1399978  95.1340014   8.2929992  25.8529978  94.8070014
   8.5329992  24.8229978  96.7160014   7.4769992  24.4849978  96.7980014
   9.1469992  23.9959978  97.1310014   8.7549992  26.1089978  97.5070014
   9.6129992  26.9239978  97.4320014   7.8869992  26.0699978  98.5360014
   7.4959992  27.3419978  99.0600014   7.0669992  27.1569978 100.0680014
   8.4289992  27.9229978  99.2170014   6.2989992  27.8859978  98.2240014
   6.7329992  28.1849978  97.2450014   5.5479992  29.1459978  98.8030014
   6.2559992  29.9469978  99.1040014   5.0769992  29.5969978  97.9040014
   4.4929992  28.6569978  99.7180014   4.6709992  28.9329978 101.2190014
   3.9349992  27.6199978 101.7760014   3.9839992  26.4279978 101.0790014
   3.0739992  26.6129978 100.4680014   4.8989992  26.3799978 100.4510014
   3.8739992  25.2379978 102.0890014   3.0589992  25.4079978 102.7760014
   3.7549992  24.3019978 101.5630014   5.0609992  24.8899978 103.1060014
   5.6339992  26.0779978 103.8470014   6.4859992  25.7549978 104.4280014
   5.9129992  26.8609978 103.1580014   4.8419992  26.4309978 104.4910014
   4.3649992  23.9779978 104.1430014   3.6109992  24.5119978 104.7020014
   4.0389992  23.1539978 103.5250014   5.1589992  23.6869978 104.8150014
   6.0999992  24.1719978 102.3420014   5.8529992  24.1699978 101.2900014
   6.2489992  23.2219978 102.8350014   7.0339992  24.7079978 102.4300014
   6.1249992  28.8659978 101.6100014   3.9839992  30.1359978 101.5770014
   5.3859992  26.8119978  98.0520014   4.5759992  26.8149978  96.9520014
   4.4929992  27.7329978  96.1670014   3.6749992  25.5509978  97.0000014
   3.0329992  25.8149978  97.8670014   4.3759992  24.7119978  97.1940014
   2.9779992  25.4499978  95.6110014   3.7019992  25.3939978  94.7700014
   2.3149992  26.3239978  95.4360014   2.0399992  24.2189978  95.5650014
   1.7389992  24.1609978  94.4970014   1.1169992  24.4429978  96.1410014
   2.6919992  22.9079978  96.0980014   2.7439992  22.8849978  97.2080014
   3.7729992  23.0409978  95.8780014   2.1759992  21.5539978  95.5920014
   1.1659992  21.6689978  95.1410014   1.9679992  20.8629978  96.4360014
   3.0579992  20.9449978  94.5200014   2.4419992  20.1659978  94.0230014
   3.9259992  20.3299978  94.8410014   3.4379992  21.9499978  93.3940014
   4.2199992  22.6699978  93.7150014   2.5749992  22.5729978  93.0720014
   3.9529992  21.1699978  92.2030014   4.5899992  20.3339978  92.5270014
   3.7029992  21.3439978  90.9380014   4.1669992  20.6339978  90.2370014
   2.8179992  22.3799978  90.3340014   2.0629992  22.7619978  91.0540014
   2.1979992  21.8749978  89.5620014   3.7469992  23.4769978  89.8740014
   4.2519992  23.9859978  90.7220014   3.1669992  24.2239978  89.2920014
   4.9099992  23.1039978  88.9180014   4.4309992  22.7259978  87.9890014
   5.5659992  22.2879978  89.2910014   5.8579992  24.2719978  88.4960014
   6.2749992  24.8339978  89.3590014   5.1739992  24.9589978  87.9530014
   7.0879992  23.7999978  87.7600014   7.0219992  23.2099978  86.8210014
   7.6609992  23.1189978  88.4260014   8.0449992  25.0029978  87.4410014
   9.0229992  24.6079978  87.0930014   8.2149992  25.6139978  88.3540014
   7.5169992  25.9349978  86.3750014   8.1889992  26.8149978  86.2880014
   6.5759992  26.4199978  86.7110014   7.4039992  25.4189978  84.8910014
   8.4499992  25.3129978  84.5300014   6.8279992  26.1259978  84.2560014
   7.0049992  24.3829978  84.9310014  18.8709992   6.3139978  80.0930014
  19.1079992   6.4359978  79.0140014  18.7979992   5.2239978  80.2940014
  19.7469992   6.6789978  80.6700014  17.5439992   6.9799978  80.3960014
  17.4229992   7.9729978  79.9120014  16.7829992   6.3139978  79.9350014
  17.4359992   7.0749978  81.8740014  16.4009992   7.4149978  82.0890014
  17.6129992   6.0819978  82.3400014  18.2669992   8.2479978  82.4880014
  19.3219992   7.8979978  82.4630014  18.2399992   9.1519978  81.8430014
  17.8589992   8.4809978  83.9700014  16.7569992   8.3399978  83.9780014
  18.2469992   7.6339978  84.5760014  18.4869992   9.6839978  84.5370014
  19.4769992   9.3619978  84.9250014  18.7439992  10.3569978  83.6910014
  17.5659992  10.4549978  85.5470014  16.8479992  11.0469978  84.9400014
  17.0549992   9.7389978  86.2260014  18.3529992  11.4899978  86.3530014
  18.7599992  12.2569978  85.6590014  17.6239992  12.1199978  86.9050014
  19.4919992  10.8969978  87.2810014  20.2139992  10.4469978  86.5670014
  19.9799992  11.7219978  87.8430014  19.1949992   9.7289978  88.1730014
  18.2329992   9.9339978  88.6890014  19.2969992   8.7949978  87.5790014
  20.2059992   9.3669978  89.3090014  20.9909992   8.7089978  88.8810014
  20.6289992  10.3379978  89.6440014  19.7639992   8.4269978  90.4020014
  19.0609992   8.9379978  91.0940014  19.2339992   7.5519978  89.9680014
  20.9989992   7.8989978  91.2760014  21.6639992   7.4199978  90.5260014
  21.5809992   8.7859978  91.6060014  20.7879992   7.0129978  92.4740014
  20.4119992   6.0409978  92.0890014  21.7699992   6.7529978  92.9230014
  19.8169992   7.5679978  93.4770014  20.0069992   8.6229978  93.7700014
  18.7709992   7.5769978  93.1010014  19.9039992   6.6209978  94.6700014
  20.8109992   5.9029978  94.9950014  18.7609992   6.7719978  95.4190014
  18.5489992   5.6329978  96.3590014  17.4879992   5.3499978  96.1900014
  19.3119992   4.8259978  96.3560014  18.5979992   6.1809978  97.8270014
  19.6429992   6.2009978  98.2020014  17.8699992   5.1899978  98.7250014
  16.7909992   5.3539978  98.5190014  18.2149992   4.1959978  98.3680014
  18.2309992   5.4959978 100.1130014  18.5499992   4.3789978 101.1380014
  18.0039992   5.0499978 102.4360014  16.7659992   5.7049978 102.4340014
  15.9659992   5.2929978 101.7830014  16.4829992   5.6219978 103.5050014
  16.7409992   7.2519978 102.0560014  16.9969992   7.3949978 101.0170014
  15.7219992   7.5909978 102.1720014  17.7029992   8.0969978 102.8700014
  17.5119992   7.8199978 104.3010014  17.3569992   6.7739978 104.5240014
  18.3559992   8.2099978 104.8510014  16.7239992   8.4289978 104.7200014
  19.1269992   7.7169978 102.4360014  19.8289992   8.4459978 102.8140014
  19.4279992   6.6949978 102.6160014  19.2399992   7.8399978 101.3690014
  17.4699992   9.5949978 102.5460014  16.4059992   9.7659978 102.6180014
  17.8419992   9.7529978 101.5450014  18.1539992  10.1939978 103.1280014
  17.6869992   3.1729978 100.8970014  20.0179992   4.2419978 101.2780014
  17.8489992   7.3959978  98.0270014  18.5369992   8.5369978  97.8620014
  19.7139992   8.6199978  97.4880014  17.6609992   9.7729978  98.2070014
  18.3589992  10.5169978  98.6480014  16.8919992   9.5639978  98.9810014
  16.8969992  10.2469978  96.9040014  17.4999992  10.0919978  95.9840014
  16.7309992  11.3449978  96.9540014  15.5729992   9.5269978  96.9340014
  15.0309992  10.0399978  97.7570014  15.7439992   8.4689978  97.2260014
  14.7259992   9.5119978  95.6400014  14.6669992  10.4879978  95.1120014
  13.7419992   9.1679978  96.0240014  15.3129992   8.4749978  94.7040014
  15.3869992   7.5169978  95.2610014  16.3719992   8.6839978  94.4410014
  14.5609992   8.4509978  93.4050014  14.6099992   9.5039978  93.0540014
  13.4929992   8.2819978  93.6600014  14.9629992   7.4099978  92.4270014
  15.9169992   7.6949978  91.9340014  14.2509992   7.2309978  91.5930014
  15.1109992   6.0729978  93.0930014  14.2739992   5.9359978  93.7940014
  16.0529992   5.1569978  92.9210014  16.0279992   4.2309978  93.5150014
  17.2499992   5.2519978  91.9440014  18.1589992   5.1659978  92.5780014
  17.3569992   6.1929978  91.3630014  17.3319992   4.1159978  90.8620014
  17.0429992   3.1649978  91.3580014  18.4029992   3.9459978  90.6210014
  16.4829992   4.3569978  89.6030014  15.5019992   4.8239978  89.8350014
  16.2289992   3.4029978  89.0940014  17.1139992   5.2079978  88.4480014
  17.4339992   6.1499978  88.9420014  16.3739992   5.3759978  87.6360014
  18.4069992   4.5989978  87.9160014  18.3149992   3.4969978  87.8130014
  19.2039992   4.9179978  88.6210014  18.8629992   5.1669978  86.5710014
  19.2249992   6.1679978  86.8880014  18.1129992   5.2229978  85.7530014
  20.1329992   4.6669978  85.9640014  20.0249992   3.5829978  85.7460014
  20.9379992   4.7709978  86.7220014  20.4519992   5.3559978  84.6430014
  19.5719992   5.4019978  83.9670014  21.1249992   4.6789978  84.0760014
  21.0079992   6.3149978  84.7240014 147.8439992 141.9909978  82.8470014
 147.1569992 141.3919978  82.2110014 148.6139992 141.2409978  83.1270014
 148.2509992 142.8449978  82.2660014 147.0689992 142.3989978  84.1010014
 147.8029992 142.5929978  84.9110014 146.4879992 143.3319978  83.9370014
 146.1529992 141.2439978  84.6160014 145.2369992 141.1089978  84.0030014
 146.6719992 140.2699978  84.7490014 145.6219992 141.7609978  85.9550014
 146.3699992 141.8019978  86.7750014 145.3469992 142.8259978  85.8000014
 144.2979992 141.0359978  86.4760014 143.6519992 141.0469978  85.5720014
 144.5919992 139.9819978  86.6670014 143.6209992 141.5529978  87.6770014
 143.2549992 142.5569978  87.3720014 142.7599992 140.8859978  87.8950014
 144.3699992 141.7279978  89.0190014 145.1809992 140.9759978  89.1210014
 144.8519992 142.7259978  89.0950014 143.3799992 141.6749978  90.2190014
 142.5699992 142.4239978  90.0860014 142.9049992 140.6709978  90.1950014
 144.1019992 141.8269978  91.5510014 144.7859992 140.9519978  91.5800014
 144.6999992 142.7619978  91.5950014 143.0919992 141.9159978  92.7360014
 142.3619992 142.6939978  92.4250014 142.4319992 141.0249978  92.7950014
 143.5929992 142.3409978  94.1160014 143.9089992 143.4009978  94.0120014
 142.8479992 142.2989978  94.9390014 144.7839992 141.5399978  94.6030014
 144.4729992 140.4769978  94.6830014 145.6309992 141.6239978  93.8890014
 145.3059992 142.1789978  95.9420014 144.5049992 142.5419978  96.6210014
 145.7809992 141.3019978  96.4320014 146.2659992 143.3419978  95.8350014
 146.8839992 143.0809978  94.9490014 145.7339992 144.3109978  95.7290014
 147.3689992 143.4749978  97.0260014 147.1559992 142.6779978  97.7710014
 148.3139992 143.2729978  96.4790014 147.3459992 144.8469978  97.8020014
 147.0629992 145.9329978  97.2660014 147.3309992 144.6239978  99.1540014
 147.2499992 145.6909978 100.1040014 147.8289992 145.4719978 101.0260014
 147.7309992 146.5529978  99.5940014 145.8639992 145.8029978 100.6450014
 145.8299992 146.6819978 101.3230014 145.3609992 144.5509978 101.5530014
 145.1669992 143.6729978 100.9010014 146.1549992 144.2439978 102.2680014
 144.1779992 144.8909978 102.2160014 143.6109992 144.0559978 103.4010014
 143.0329992 142.7479978 102.6690014 142.0169992 142.8199978 101.7340014
 140.9999992 142.8009978 102.1810014 142.0639992 143.7879978 101.1910014
 142.0679992 141.8949978 100.4910014 141.3039992 142.2159978  99.7980014
 143.0439992 142.0399978 100.0530014 141.9499992 140.4649978 100.8280014
 143.1139992 139.9659978 101.6530014 144.1029992 140.0659978 101.2310014
 143.0749992 140.4539978 102.6160014 142.8609992 138.9439978 101.8940014
 140.7679992 140.2229978 101.6680014 140.6629992 140.8159978 102.5650014
 139.8309992 140.4469978 101.1790014 140.6759992 139.1629978 101.8520014
 141.8039992 139.6679978  99.5460014 142.7239992 139.8099978  98.9980014
 141.0009992 140.1159978  98.9800014 141.7559992 138.5959978  99.6720014
 144.6549992 143.6649978 104.3760014 142.4609992 144.8229978 103.9220014
 144.8929992 145.8459978  99.4770014 144.0969992 146.9579978  99.4760014
 144.2519992 147.9609978 100.1930014 142.8649992 146.6779978  98.5910014
 141.9559992 146.4269978  99.1790014 143.0799992 145.7559978  98.0100014
 142.4309992 147.9779978  97.8130014 142.5499992 148.8489978  98.4920014
 141.3759992 147.8159978  97.5030014 143.1969992 148.2549978  96.4910014
 144.2809992 148.2629978  96.7350014 142.8929992 149.2159978  96.0230014
 142.8179992 147.1579978  95.5150014 141.7119992 147.0529978  95.5350014
 143.0539992 146.0809978  95.6510014 143.3709992 147.3549978  94.1460014
 143.3549992 148.4559978  93.9990014 142.7039992 146.8039978  93.4490014
 144.8729992 146.9379978  94.0420014 144.9349992 145.8979978  94.4280014
 145.4599992 147.4949978  94.8030014 145.4029992 146.9899978  92.6320014
 146.5129992 146.9629978  92.6440014 145.1049992 147.9889978  92.2490014
 144.9189992 145.8759978  91.7980014 145.1679992 144.8339978  92.0480014
 144.0889992 146.0059978  90.6740014 143.7619992 145.1499978  90.0670014
 143.5669992 147.3349978  90.1290014 143.8849992 147.7009978  89.1290014
 143.7239992 148.1169978  90.9020014 142.0229992 147.2059978  89.9270014
 141.6989992 148.2079978  89.5740014 141.5139992 147.0129978  90.8950014
 141.6009992 146.2129978  88.8740014 140.5089992 146.3449978  88.7230014
 141.6309992 145.2279978  89.3870014 142.3709992 146.1449978  87.5580014
 143.4379992 145.8739978  87.7060014 142.3239992 147.1379978  87.0630014
 141.7439992 144.9489978  86.7010014 140.6679992 145.0629978  86.4500014
 141.7409992 144.0489978  87.3520014 142.4689992 144.6659978  85.3290014
 142.0969992 143.7299978  84.8590014 143.5379992 144.4719978  85.5610014
 142.4069992 145.8959978  84.3300014 142.9679992 145.6089978  83.4150014
 142.9519992 146.6659978  84.9170014 141.0219992 146.3549978  83.8280014
 140.4159992 146.7239978  84.6830014 140.4829992 145.5979978  83.2200014
 141.1599992 147.2389978  83.1700014   6.6639992  18.4769978  79.6760014
   7.0589992  18.9189978  78.7370014   6.6009992  17.3819978  79.4990014
   7.4979992  18.6029978  80.4000014   5.3769992  19.1879978  80.1620014
   5.6119992  20.2019978  79.7750014   4.4359992  18.9469978  79.6210014
   5.1969992  19.1999978  81.6440014   6.0569992  19.7439978  82.0880014
   4.2339992  19.6429978  81.9770014   5.2709992  17.7809978  82.2070014
   4.4489992  17.1929978  81.7440014   6.2199992  17.2429978  81.9990014
   5.0139992  17.7879978  83.7030014   3.9329992  17.8669978  83.9470014
   5.3669992  16.8379978  84.1570014   5.6679992  18.9059978  84.5240014
   6.7069992  19.1289978  84.1980014   5.1649992  19.8879978  84.3990014
   5.7929992  18.4489978  86.0240014   6.3319992  17.4779978  86.0310014
   6.4219992  19.2499978  86.4690014   4.6159992  18.2189978  86.9550014
   4.3179992  19.2559978  87.2190014   3.6729992  17.7149978  86.6520014
   5.2019992  17.5599978  88.2570014   4.4009992  17.5149978  89.0260014
   5.5709992  16.5509978  87.9740014   6.4089992  18.2679978  88.9060014
   6.6949992  17.7329978  89.8370014   7.1869992  18.2659978  88.1140014
   6.2449992  19.7289978  89.3100014   5.9429992  20.3489978  88.4380014
   5.4209992  19.8399978  90.0460014   7.6109992  20.1779978  89.9040014
   7.9299992  19.3939978  90.6240014   8.3519992  20.1469978  89.0760014
   7.6849992  21.5359978  90.6720014   8.7849992  21.6769978  90.6180014
   7.1859992  22.2669978  90.0000014   7.0689992  21.6929978  92.0880014
   6.9779992  22.7699978  92.3450014   6.0639992  21.2199978  92.1260014
   7.8989992  21.0169978  93.1810014   7.8379992  19.9149978  93.0530014
   8.9309992  21.3709978  92.9730014   7.5269992  21.4529978  94.5540014
   6.7549992  22.3229978  94.8210014   8.2199992  20.7319978  95.4590014
   7.8319992  20.7489978  96.8440014   8.7219992  20.7919978  97.5080014
   7.2549992  21.6559978  97.1260014   6.9889992  19.4889978  97.2210014
   5.9289992  19.5659978  96.8960014   6.7969992  19.3549978  98.7680014
   7.8059992  19.4679978  99.2210014   6.1729992  20.2259978  99.0600014
   6.1189992  18.1409978  99.0130014   5.6079992  17.8069978 100.4330014
   6.9879992  17.4629978 101.1790014   7.0389992  17.0219978 102.5240014
   6.0379992  16.7409978 102.9170014   7.7549992  16.1889978 102.6900014
   7.5289992  18.1789978 103.4090014   7.1579992  19.1099978 103.0080014
   7.1199992  18.0759978 104.4040014   9.0589992  18.3509978 103.5230014
   9.7699992  18.4089978 102.2030014   9.5299992  17.5739978 101.5620014
   9.5309992  19.3109978 101.6590014  10.8399992  18.4739978 102.3360014
   9.3849992  19.5219978 104.4130014   8.9239992  19.2999978 105.3640014
  10.4489992  19.5279978 104.5990014   9.0819992  20.4709978 103.9960014
   9.6019992  17.1669978 104.3080014   9.0949992  16.9219978 105.2300014
  10.6659992  17.2759978 104.4570014   9.6609992  16.4049978 103.5450014
   5.1149992  18.9959978 101.1790014   4.7129992  16.6359978 100.3190014
   7.7279992  18.3349978  96.8290014   7.4089992  17.6429978  95.8360014
   6.5499992  17.9199978  94.9900014   8.2179992  16.3489978  95.8810014
   7.9589992  15.8399978  94.9280014   7.9529992  15.6069978  96.6650014
   9.7049992  16.6989978  96.0400014   9.8179992  16.8029978  97.1400014
  10.1279992  17.6499978  95.6510014  10.6549992  15.5659978  95.6680014
  10.4639992  14.7639978  96.4140014  11.6999992  15.9319978  95.7640014
  10.5679992  14.9719978  94.2730014   9.4799992  14.8119978  94.1140014
  11.1909992  14.0699978  94.0890014  10.9079992  15.9399978  93.1750014
  11.9759992  15.8479978  92.8830014  10.6089992  16.9599978  93.4990014
   9.9499992  15.8869978  91.8860014   8.9729992  16.3969978  92.0280014
   9.8729992  14.7939978  91.7010014  10.5389992  16.7099978  90.6490014
  10.4679992  17.7789978  90.9450014   9.7329992  16.5629978  89.8990014
  11.8569992  16.2659978  90.1340014  12.7519992  16.5179978  90.7210014
  12.1319992  15.5779978  89.0190014  13.1219992  15.1099978  88.9110014
  11.1829992  15.0099978  87.9970014  10.1029992  14.9289978  88.2460014
  11.5759992  14.0549978  87.5870014  11.1729992  15.9959978  86.7900014
  10.6489992  15.5449978  85.9200014  12.2259992  16.2139978  86.5120014
  10.3899992  17.3309978  87.0470014  10.9909992  17.9779978  87.7220014
   9.4189992  17.0409978  87.5010014  10.2219992  18.0909978  85.7170014
   9.7479992  19.0369978  86.0550014   9.4279992  17.5859978  85.1260014
  11.4519992  18.3729978  84.8940014  12.0919992  17.4669978  84.8240014
  11.9029992  19.1939978  85.4910014  11.3019992  18.9719978  83.4420014
  11.1119992  18.1899978  82.6760014  12.1689992  19.5499978  83.0580014
  10.0529992  19.7949978  83.3160014  10.2949992  20.6329978  84.0050014
   9.1849992  19.2579978  83.7540014   9.6029992  20.1169978  81.8570014
  10.4519992  20.4869978  81.2450014   8.7419992  20.8159978  81.7840014
   9.2739992  19.1779978  81.3610014   7.2709992 136.4199978  85.5830014
   7.5529992 135.3479978  85.6520014   7.7719992 136.9389978  86.4280014
   7.6529992 136.7709978  84.6010014   5.8059992 136.7029978  85.6800014
   5.2959992 136.4909978  84.7160014   5.4679992 135.8999978  86.3690014
   5.4769992 138.1329978  86.1850014   6.1369992 138.9019978  85.7290014
   4.3739992 138.2269978  86.0880014   5.5989992 138.3199978  87.7650014
   5.0179992 137.5539978  88.3220014   6.6409992 138.1089978  88.0870014
   5.3529992 139.7429978  88.2450014   6.2099992 140.3529978  87.8890014
   4.4189992 140.1869978  87.8390014   5.2559992 139.8639978  89.7620014
   4.3889992 139.2999978  90.1670014   6.0929992 139.2369978  90.1370014
   5.2259992 141.3019978  90.2240014   5.9079992 141.8949978  89.5780014
   4.2599992 141.8289978  90.0700014   5.8189992 141.4439978  91.6230014
   6.8349992 141.0089978  91.5090014   5.9809992 142.5119978  91.8820014
   5.0439992 140.7759978  92.7410014   4.9269992 139.6799978  92.6000014
   5.6139992 141.0139978  93.6650014   3.6469992 141.3069978  93.0050014
   3.6389992 142.4159978  92.9540014   3.0529992 140.9099978  92.1540014
   3.2179992 140.8419978  94.3540014   3.4469992 139.7799978  94.5860014
   3.7729992 141.4879978  95.0670014   1.7359992 140.9619978  94.7600014
   1.4899992 142.0269978  94.5630014   1.1089992 140.2879978  94.1370014
   1.3289992 140.7399978  96.2600014   1.5969992 141.6629978  96.8160014
   0.2279992 140.5939978  96.2470014   2.0979992 139.5739978  96.9100014
   3.1959992 139.6979978  96.7950014   2.0179992 139.6159978  98.0170014
   1.7699992 138.2519978  96.1370014   0.7149992 137.9169978  96.2290014
   1.8909992 138.3149978  95.0350014   2.5819992 137.1449978  96.8650014
   2.1429992 136.0949978  97.3370014   3.8169992 137.4659978  96.8690014
   4.6589992 136.5309978  97.5600014   4.1489992 136.1089978  98.4520014
   4.9139992 135.7129978  96.8520014   5.9569992 137.1849978  97.9970014
   6.6059992 136.3499978  98.3380014   5.7549992 138.1039978  99.1960014
   5.0639992 137.5409978  99.8590014   6.7529992 138.2059978  99.6730014
   5.2419992 139.3069978  98.8900014   5.4039992 140.4309978 100.0110014
   5.7519992 139.5499978 101.2630014   4.7019992 139.0439978 102.1220014
   4.3589992 139.8659978 102.7860014   3.8369992 138.4979978 101.6870014
   5.3659992 137.9239978 103.0070014   4.6289992 137.4429978 103.6330014
   5.6859992 137.1129978 102.3700014   6.4199992 138.2349978 104.0640014
   6.5629992 136.9709978 104.9180014   5.5969992 136.7649978 105.3540014
   6.8239992 136.1399978 104.2790014   7.3279992 137.0889978 105.6710014
   7.7519992 138.5239978 103.3600014   7.5289992 139.2859978 102.6290014
   8.4689992 138.9169978 104.0660014   7.9889992 137.6279978 102.8060014
   6.0909992 139.4079978 104.8630014   6.2229992 140.2609978 104.2140014
   6.8999992 139.4519978 105.5770014   5.1229992 139.3399978 105.3380014
   6.6419992 141.1969978  99.7520014   4.1429992 141.1999978 100.2550014
   6.5209992 138.0159978  96.9280014   7.9319992 138.0729978  96.9310014
   8.6079992 137.7899978  97.9290014   8.4239992 138.4509978  95.5280014
   8.0289992 139.4489978  95.2420014   7.9629992 137.7809978  94.7700014
  10.0329992 138.3119978  95.5580014  10.3319992 137.2509978  95.4140014
  10.4879992 138.6819978  96.5010014  10.7159992 139.2039978  94.4960014
  11.7489992 139.2469978  94.9040014  10.2159992 140.1949978  94.4870014
  10.6159992 138.5569978  93.0290014   9.5349992 138.4379978  92.8010014
  11.0969992 137.5569978  93.0730014  11.2629992 139.3359978  91.8460014
  11.2569992 138.5339978  91.0780014  12.2939992 139.6099978  92.1540014
  10.3669992 140.4059978  91.2250014   9.9079992 141.0449978  92.0080014
   9.4539992 139.8809978  90.8690014  10.9319992 141.3549978  90.1930014
  11.8319992 141.7819978  90.6870014  10.2589992 142.2209978  90.0170014
  11.1129992 140.5399978  88.9090014  11.7779992 139.6689978  89.0000014
  10.4909992 140.8459978  87.7970014  10.6989992 140.2209978  86.9160014
   9.4609992 141.9119978  87.6070014   9.9559992 142.8759978  87.3620014
   8.9329992 142.2149978  88.5360014   8.4119992 141.3079978  86.5780014
   7.4739992 141.8809978  86.7370014   8.1959992 140.2439978  86.8150014
   8.8439992 141.4189978  85.0960014   9.6899992 140.7499978  84.8300014
   9.1679992 142.4319978  84.7720014   7.7059992 141.0429978  84.0540014
   6.9719992 141.8749978  84.0120014   7.2309992 140.0849978  84.3560014
   8.2789992 140.8189978  82.6540014   7.6479992 140.1659978  82.0140014
   9.1909992 140.1929978  82.7620014   8.6609992 142.1729978  81.9800014
   9.4219992 142.6379978  82.6420014   7.8959992 142.9789978  81.9800014
   9.2079992 141.8469978  80.5600014   9.5189992 142.8149978  80.1140014
   8.3989992 141.5759978  79.8480014  10.3709992 140.8449978  80.4120014
  11.1429992 141.1419978  81.1530014  10.8729992 140.9019978  79.4220014
  10.1169992 139.7789978  80.5990014  10.8139992 144.5529978  82.9360014
  10.9899992 145.4259978  82.2710014  10.1739992 143.8809978  82.3270014
  11.8039992 144.0589978  83.0390014  10.0899992 144.9319978  84.2300014
  10.6489992 145.7329978  84.7590014   9.0409992 145.1689978  83.9520014
  10.0119992 143.7659978  85.2630014   9.4519992 142.9299978  84.7910014
  11.0299992 143.4139978  85.5370014   9.2819992 144.3159978  86.4510014
   9.5039992 145.3799978  86.6810014   8.2449992 144.2039978  86.0680014
   9.5789992 143.5439978  87.7210014   9.3869992 142.4799978  87.4640014
  10.6589992 143.6149978  87.9710014   8.7989992 143.8889978  88.8850014
   7.7159992 143.8149978  88.6470014   8.9599992 143.1739978  89.7200014
   9.0519992 145.3079978  89.5750014   8.8529992 146.0009978  88.7300014
   8.2819992 145.4789978  90.3570014  10.3609992 145.5369978  90.4120014
  11.1469992 144.7739978  90.2260014  10.8359992 146.5109978  90.1660014
  10.0569992 145.4539978  91.9250014   9.6349992 144.4379978  92.0800014
  10.9459992 145.6499978  92.5610014   9.0569992 146.4579978  92.6770014
   9.3169992 147.5099978  92.4280014   8.0089992 146.3389978  92.3300014
   9.1349992 146.2829978  94.2190014   8.8999992 145.2029978  94.3360014
  10.1289992 146.5289978  94.6490014   8.2299992 147.2339978  94.9470014
   8.5409992 148.2799978  94.7360014   7.1859992 147.1459978  94.5770014
   8.1199992 146.8899978  96.4650014   7.3809992 147.6069978  96.8810014
   7.7299992 145.8489978  96.4590014   9.4789992 146.9199978  97.2090014
  10.0079992 145.9649978  97.0030014  10.2199992 147.7129978  96.9680014
   9.2209992 147.1359978  98.7530014  10.1939992 147.2189978  99.2830014
   8.6989992 148.1049978  98.9050014   8.3849992 146.0339978  99.3070014
   7.2859992 145.7359978  98.8540014   8.9549992 145.4419978 100.3440014
   8.2559992 144.3229978 100.9360014   8.3799992 144.2279978 102.0360014
   7.1489992 144.4119978 100.9760014   8.6509992 142.9949978 100.2980014
   8.2259992 142.1209978 100.8370014  10.2889992 142.7829978 100.1850014
  10.5909992 142.5509978 101.2290014  10.5219992 141.9049978  99.5450014
  10.9799992 143.9519978  99.6260014  12.4879992 144.0609978  99.9610014
  12.5169992 144.7299978 101.4610014  11.9449992 146.0469978 101.5970014
  12.7849992 146.7319978 101.8410014  11.4959992 146.3939978 100.6420014
  10.8799992 146.1339978 102.7770014  10.4649992 147.1269978 102.6930014
  10.1339992 145.4159978 102.4700014  11.3249992 145.8089978 104.1690014
  10.1479992 145.9569978 105.0580014  10.3639992 145.6239978 106.0620014
   9.9639992 147.0209978 105.0260014   9.2329992 145.5509978 104.6540014
  11.7609992 144.3249978 104.3020014  10.8589992 143.7419978 104.1840014
  12.4739992 144.0449978 103.5410014  12.1269992 144.1349978 105.3000014
  12.5199992 146.6869978 104.5640014  13.2379992 146.7629978 103.7620014
  13.0639992 146.3509978 105.4340014  12.1539992 147.6829978 104.7680014
  12.9829992 142.6639978  99.9820014  13.1709992 144.9879978  99.0090014
   8.1019992 142.9009978  99.0070014   8.1459992 141.8009978  98.3100014
   8.4029992 140.6609978  98.6890014   7.8659992 142.0649978  96.8100014
   7.9299992 143.1669978  96.6870014   6.9029992 141.5889978  96.5290014
   9.0969992 141.4139978  96.0460014   8.8419992 141.4719978  94.9670014
   9.3859992 140.3679978  96.2880014  10.3259992 142.2759978  96.2440014
  10.6819992 142.2469978  97.2970014   9.9959992 143.3269978  96.1020014
  11.4119992 141.9099978  95.3450014  11.0079992 141.4899978  94.4000014
  12.0839992 141.1149978  95.7350014  12.3099992 143.1359978  94.9680014
  12.7539992 143.5909978  95.8790014  11.6499992 143.8879978  94.4840014
  13.5429992 142.7139978  94.1290014  13.9709992 141.7669978  94.5220014
  14.2479992 143.5699978  94.1950014  13.0719992 142.4179978  92.6970014
  12.4989992 143.3139978  92.3750014  12.2829992 141.6349978  92.6660014
  14.2329992 141.9709978  91.7830014  14.5379992 140.9489978  92.0520014
  14.7819992 142.6019978  90.7630014  15.5799992 142.1949978  90.1250014
  14.3669992 143.9589978  90.3040014  15.2649992 144.6089978  90.3750014
  13.5799992 144.3989978  90.9540014  13.6579992 144.0039978  88.9780014
  13.1049992 144.9559978  89.1240014  12.8309992 143.2909978  88.7710014
  14.6479992 143.9909978  87.8490014  15.3549992 143.1439978  87.9760014
  15.1819992 144.9599978  87.9450014  13.9979992 143.8439978  86.4780014
  14.6849992 144.3769978  85.7870014  13.0289992 144.3879978  86.4990014
  13.8329992 142.4399978  86.0530014  13.0239992 141.9939978  86.6710014
  14.7269992 141.8039978  86.2290014  13.5669992 142.2309978  84.5180014
  14.4309992 142.6419978  83.9530014  12.5819992 142.6949978  84.2990014
  13.1909992 140.7999978  84.1230014  13.9229992 140.0159978  84.4110014
  13.2039992 140.7529978  83.0130014  11.7769992 140.4199978  84.6430014
  11.6379992 139.3899978  84.2500014  11.1259992 141.2019978  84.1960014
  11.7759992 140.5039978  85.7500014  11.3559992   9.1929978  83.6690014
  10.5839992   8.4109978  83.8250014  12.2189992   8.6199978  83.2680014
  10.9349992   9.8779978  82.9020014  11.8919992   9.9289978  84.9620014
  12.9739992  10.1219978  84.7990014  11.3729992  10.9109978  84.9820014
  11.9229992   9.1439978  86.2230014  10.9889992   8.5639978  86.3860014
  12.7529992   8.4139978  86.1030014  12.3339992   9.9599978  87.4470014
  12.6499992   9.3229978  88.3010014  13.2659992  10.4619978  87.1110014
  11.3909992  11.0639978  87.9860014  12.1249992  11.7219978  88.4970014
  10.8299992  11.6099978  87.1980014  10.4239992  10.5379978  89.0410014
   9.7679992   9.8109978  88.5170014  10.9629992  10.0049978  89.8530014
   9.5929992  11.6699978  89.7660014   9.5979992  11.4919978  90.8630014
  10.1209992  12.6369978  89.6200014   8.1179992  11.6639978  89.3020014
   7.7049992  12.6899978  89.4070014   8.0749992  11.3869978  88.2270014
   7.1839992  10.5399978  89.9600014   6.3019992  10.3639978  89.3070014
   7.7929992   9.6119978  89.9300014   6.7309992  11.0019978  91.3270014
   7.6319992  11.1829978  91.9510014   6.2359992  11.9769978  91.1280014
   5.6669992  10.0979978  92.0550014   5.5779992  10.3939978  93.1220014
   4.7169992  10.0959978  91.4780014   6.1109992   8.6419978  92.0600014
   5.2869992   8.0489978  92.5120014   6.0779992   8.2719978  91.0120014
   7.4409992   8.3049978  92.6970014   7.5459992   7.2519978  92.3570014
   8.1859992   8.9419978  92.1750014   7.3899992   8.4679978  94.2150014
   7.5199992   9.5489978  94.4340014   6.3889992   8.1989978  94.6160014
   8.5319992   7.7639978  95.0480014   8.4139992   6.6659978  94.9270014
   9.5209992   8.1039978  94.6730014   8.5069992   8.1159978  96.5640014
   9.2569992   8.8909978  97.1090014   7.4449992   7.4829978  97.2350014
   7.5429992   7.6179978  98.6670014   7.9069992   8.6039978  99.0250014
   6.5469992   7.5299978  99.1520014   8.4129992   6.4409978  99.1730014
   8.0879992   5.5149978  98.6530014   8.1029992   6.1509978 100.5990014
   7.0349992   6.0169978 100.8720014   8.6279992   5.2269978 100.9250014
   8.7439992   7.1449978 101.3950014   8.2989992   7.4069978 102.8650014
   9.1189992   8.6609978 103.3030014  10.5219992   8.7569978 103.0660014
  10.8699992   9.5689978 103.7400014  10.9889992   7.7709978 103.2790014
  10.9129992   9.1129978 101.5660014  11.9909992   9.1569978 101.5170014
  10.6089992   8.3499978 100.8640014  10.4899992  10.4949978 101.0480014
  11.1849992  11.5589978 101.9050014  11.1199992  12.5299978 101.4380014
  10.8289992  11.5929978 102.9240014  12.2449992  11.3519978 101.9260014
  10.7459992  10.6219978  99.5850014  11.7969992  10.6669978  99.3420014
  10.2399992   9.8239978  99.0610014  10.3689992  11.5549978  99.1900014
   8.9789992  10.6339978 101.2640014   8.3349992   9.8409978 100.9140014
   8.6319992  11.6009978 100.9310014   8.8679992  10.7639978 102.3310014
   6.8419992   7.6469978 102.7690014   8.6379992   6.2779978 103.7400014
   9.8069992   6.7559978  99.0020014  10.6919992   5.7519978  98.8760014
  10.4579992   4.5929978  98.6810014  12.1259992   6.3079978  98.9690014
  12.7449992   5.3859978  98.9610014  12.3139992   6.7359978  99.9760014
  12.5319992   7.2679978  97.8360014  13.2489992   8.0229978  98.2250014
  11.5659992   7.7619978  97.5970014  13.1429992   6.5579978  96.6860014
  13.9179992   5.7969978  96.9190014  13.7619992   7.2859978  96.1190014
  12.1309992   5.9979978  95.6470014  11.5679992   6.8499978  95.2090014
  11.4659992   5.3129978  96.2150014  12.8559992   5.1869978  94.5180014
  13.6399992   4.4969978  94.8980014  13.2469992   5.8579978  93.7230014
  11.7779992   4.2299978  93.9830014  11.3759992   3.4999978  94.7180014
  12.2169992   3.5429978  93.2280014  10.6489992   5.0159978  93.2180014
  11.1339992   5.3979978  92.2940014  10.2759992   5.9429978  93.7040014
   9.4489992   4.0739978  93.0470014   9.0949992   3.8329978  94.0600014
   8.6869992   3.7689978  92.0550014   7.8049992   3.1219978  92.1730014
   8.7839992   4.2839978  90.6040014   8.8499992   3.3949978  89.9410014
   9.7229992   4.8539978  90.4340014   7.5949992   5.1669978  90.0930014
   7.6949992   6.1519978  90.5970014   6.5629992   4.8799978  90.3880014
   7.6419992   5.1389978  88.5130014   7.6019992   4.0669978  88.2260014
   8.6469992   5.5359978  88.2530014   6.7269992   6.1439978  87.8970014
   6.6579992   7.0289978  88.5640014   5.7119992   5.7009978  87.8020014
   7.1569992   6.5939978  86.4910014   6.9929992   5.7839978  85.7490014
   8.2099992   6.8979978  86.3130014   6.2659992   7.6079978  85.7540014
   6.1249992   8.4809978  86.4250014   5.2439992   7.3149978  85.4320014
   6.8179992   8.1199978  84.4300014   7.7219992   8.7469978  84.5860014
   5.8899992   8.6679978  84.1600014   7.0479992   7.0869978  83.2790014
   6.2419992   6.3219978  83.2920014   7.9709992   6.5239978  83.5340014
   7.1109992   7.5589978  82.2760014   0.1699992   7.5789978  81.1990014
  -0.8990008   7.8469978  81.3430014   0.2469992   6.5649978  80.7500014
   0.6039992   8.2529978  80.4310014   1.0569992   7.6599978  82.5280014
   0.4469992   7.0099978  83.1900014   2.1109992   7.3439978  82.3780014
   1.1129992   9.0439978  83.2070014   1.6769992   9.7529978  82.5640014
   0.1159992   9.5349978  83.2100014   1.5889992   9.0409978  84.6860014
   0.8969992   8.4819978  85.3510014   2.5449992   8.4749978  84.7160014
   1.9109992  10.4049978  85.2430014   2.7709992  10.8269978  84.6810014
   1.1249992  11.1309978  84.9450014   2.4359992  10.4089978  86.7560014
   2.7399992  11.4559978  86.9710014   1.5759992  10.0409978  87.3550014
   3.6729992   9.5429978  86.8590014   3.2509992   8.5199978  86.7610014
   4.4319992   9.7769978  86.0820014   4.2809992   9.7479978  88.2470014
   5.0409992  10.5579978  88.2300014   3.5819992  10.1459978  89.0130014
   5.0049992   8.5379978  88.8170014   5.8029992   8.1459978  88.1510014
   5.4219992   8.9369978  89.7660014   4.2069992   7.1839978  89.3630014
   3.8229992   6.6379978  88.4750014   5.0189992   6.5999978  89.8460014
   3.1459992   7.3309978  90.4700014   2.4689992   8.1669978  90.1940014
   2.5209992   6.4169978  90.5610014   3.7589992   7.6789978  91.8880014
   4.3759992   6.8259978  92.2400014   4.3129992   8.6419978  91.8930014
   2.5939992   7.7899978  92.8680014   2.0549992   8.7489978  92.7110014
   1.8979992   6.9249978  92.9060014   3.1209992   7.8709978  94.2670014
   3.7159992   6.9459978  94.4220014   3.8269992   8.7199978  94.1390014
   2.0979992   8.0699978  95.3430014   1.4719992   8.9859978  95.4020014
   1.3719992   7.2369978  95.2290014   2.8309992   8.0199978  96.7840014
   3.7159992   7.2049978  97.0040014   2.3269992   8.8679978  97.6220014
   2.8989992   8.9419978  98.9700014   2.0259992   9.0849978  99.6410014
   3.3989992   8.0119978  99.3170014   3.7529992  10.2719978  99.1490014
   4.7189992  10.0969978  98.6300014   4.0909992  10.3809978 100.6620014
   4.6629992   9.4789978 100.9690014   4.7819992  11.2329978 100.8410014
   2.8909992  10.5139978 101.4400014   2.8439992  10.5909978 102.9960014
   1.6959992  11.7029978 103.2120014   1.6339992  12.8969978 102.4710014
   1.0539992  13.6009978 103.1060014   2.5839992  13.4369978 102.2740014
   0.9929992  12.5259978 101.0780014   1.0819992  13.3399978 100.3740014
   1.6289992  11.6969978 100.8040014  -0.4980008  12.1609978 101.1030014
  -0.5790008  10.8499978 101.9060014   0.1529992  10.1129978 101.6100014
  -0.7360008  10.9439978 102.9710014  -1.5100008  10.3899978 101.6110014
  -1.3320008  13.2949978 101.5750014  -2.3560008  13.0369978 101.3500014
  -1.1440008  13.4359978 102.6290014  -1.0050008  14.1779978 101.0460014
  -0.8760008  11.9009978  99.6630014  -0.3410008  11.0339978  99.3050014
  -0.5850008  12.7799978  99.1070014  -1.9100008  11.7189978  99.4060014
   2.4119992   9.3169978 103.5790014   4.1319992  11.1279978 103.4830014
   3.0529992  11.3759978  98.6550014   3.5949992  12.6439978  98.5480014
   4.6809992  12.9759978  98.9200014   2.6399992  13.6039978  97.7530014
   2.7239992  14.6139978  98.2080014   1.6179992  13.2409978  97.9910014
   2.9349992  13.6079978  96.2430014   3.9959992  13.8269978  95.9980014
   2.3449992  14.4309978  95.7880014   2.5009992  12.2979978  95.5160014
   1.6479992  11.8739978  96.0880014   3.2179992  11.4539978  95.6030014
   2.0819992  12.6069978  94.1500014   1.1859992  13.2499978  94.0120014
   1.8419992  11.6009978  93.7440014   3.1809992  12.9799978  93.1540014
   4.1779992  12.5529978  93.3940014   3.3599992  14.0569978  93.3570014
   2.9749992  12.6449978  91.6330014   1.9149992  12.3119978  91.6210014
   3.6029992  11.8729978  91.1390014   2.8289992  13.8899978  90.7760014
   2.1469992  14.6559978  91.2030014   2.3219992  13.5169978  89.8610014
   4.1519992  14.5719978  90.5320014   4.4539992  15.2319978  91.3580014
   4.9179992  14.3869978  89.3920014   5.8519992  14.9639978  89.3270014
   4.6309992  13.5579978  88.2190014   3.7299992  12.9149978  88.3060014
   5.5269992  12.9089978  88.1180014   4.6549992  14.4019978  86.8790014
   4.7009992  13.6799978  86.0360014   5.5749992  15.0189978  86.8040014
   3.3869992  15.2499978  86.5460014   3.7079992  15.9129978  85.7140014
   3.2129992  16.0959978  87.2440014   2.0429992  14.5909978  86.1420014
   1.4659992  14.4879978  87.0860014   2.2779992  13.5359978  85.8840014
   1.1649992  15.3729978  85.1280014   1.7459992  15.3629978  84.1820014
   1.0599992  16.4529978  85.3660014  -0.2770008  14.8129978  84.7780014
  -1.1080008  15.0639978  85.4710014  -0.2160008  13.7109978  84.9010014
  -0.7490008  15.0089978  83.3170014  -1.5780008  14.2939978  83.1300014
   0.0419992  14.7619978  82.5760014  -1.2840008  16.3659978  83.0330014
  -2.2950008  16.4089978  83.4920014  -1.2330008  16.6379978  81.9570014
  -0.7230008  17.1019978  83.6470014   3.1249992   3.2289978  84.5440014
   3.3549992   4.3009978  84.7230014   2.1279992   3.0569978  85.0040014
   3.1149992   3.0629978  83.4450014   4.1009992   2.4459978  85.3400014
   3.6469992   1.4359978  85.4250014   5.0579992   2.2999978  84.7940014
   4.3259992   2.9139978  86.7200014   4.9689992   2.1899978  87.2640014
   4.8169992   3.9109978  86.7240014   2.9959992   2.9429978  87.5630014
   3.3239992   3.0639978  88.6180014   2.4619992   3.8579978  87.2290014
   2.0859992   1.7059978  87.5360014   1.1779992   1.9189978  88.1400014
   1.6679992   1.5779978  86.5140014   2.6609992   0.3439978  88.0730014
   3.5179992  -0.0300022  87.4730014   2.9359992   0.5919978  89.1200014
   1.6019992  -0.7700022  88.2520014   0.6409992  -0.3860022  88.6560014
   1.3559992  -1.1730022  87.2470014   2.2009992  -2.0840022  88.9090014
   1.4319992  -2.8650022  88.7240014   3.0879992  -2.2950022  88.2740014
   2.5939992  -1.9240022  90.3350014   3.1369992  -0.9690022  90.4940014
   1.6859992  -1.6840022  90.9290014   3.4709992  -2.9800022  91.0020014
   3.0859992  -4.0170022  90.9030014   4.4229992  -3.0570022  90.4360014
   3.6689992  -2.7990022  92.5470014   2.6479992  -2.6870022  92.9700014
   4.1459992  -3.7650022  92.8190014   4.4779992  -1.5750022  93.0290014
   5.4089992  -1.4030022  92.4480014   3.7849992  -0.7210022  92.8670014
   4.8909992  -1.5250022  94.5190014   4.0679992  -1.6880022  95.2460014
   5.6009992  -2.3670022  94.6660014   5.5519992  -0.2260022  94.8800014
   6.4779992  -0.1350022  94.2730014   4.7919992   0.5069978  94.5340014
   5.7569992  -0.0790022  96.4330014   4.8789992  -0.3170022  97.0710014
   6.5019992  -0.8210022  96.7920014   6.2389992   1.3769978  96.6830014
   6.0159992   2.2729978  95.9490014   6.9769992   1.3559978  97.8410014
   7.5869992   2.6349978  98.2730014   8.4529992   2.3729978  98.9170014
   7.8919992   3.3089978  97.4440014   6.5789992   3.4919978  99.0790014
   7.1599992   4.3719978  99.4290014   5.9219992   2.8139978 100.3290014
   6.7929992   2.2539978 100.7310014   5.6359992   3.5289978 101.1300014
   4.8019992   2.0079978 100.0000014   4.5909992   0.6109978 100.8270014
   3.6399992   0.9959978 102.0120014   2.5889992   1.9569978 101.8400014
   1.9599992   1.6719978 100.9690014   1.8789992   1.7599978 102.6720014
   2.9169992   3.4959978 101.9570014   3.6389992   3.7509978 101.1950014
   2.1079992   4.1149978 101.5990014   3.3799992   4.0589978 103.2700014
   2.3039992   3.9589978 104.2960014   2.1709992   2.9159978 104.5440014
   2.6319992   4.4649978 105.1920014   1.4179992   4.4939978 103.9900014
   4.6359992   3.4549978 103.6850014   4.3229992   2.4299978 103.8190014
   5.3519992   3.4559978 102.8770014   5.0369992   3.7899978 104.6300014
   3.6439992   5.5589978 103.1900014   2.7549992   6.0879978 102.8790014
   4.3219992   5.6579978 102.3550014   3.9799992   6.0019978 104.1160014
   3.8529992  -0.3170022  99.9750014   5.8509992   0.0749978 101.4540014
   5.5599992   3.9399978  98.1610014   4.8889992   4.9629978  98.6680014
   5.0329992   5.4659978  99.7680014   3.7049992   5.3579978  97.7090014
   3.8809992   5.1299978  96.6360014   3.4419992   6.4369978  97.6980014
   2.3869992   4.7109978  98.2510014   1.9739992   5.3839978  99.0330014
   2.5239992   3.6349978  98.4940014   1.3019992   4.8379978  97.0980014
   1.3489992   5.8729978  96.6960014   0.3399992   4.5609978  97.5800014
   1.5249992   3.8869978  95.9020014   1.4339992   2.8589978  96.3120014
   2.5409992   3.9969978  95.4650014   0.5609992   3.9419978  94.6600014
  -0.1970008   4.6479978  95.0610014   0.0149992   2.9979978  94.4470014
   1.2179992   4.3649978  93.4140014   1.7819992   5.2589978  93.7550014
   0.4229992   4.7159978  92.7220014   2.1309992   3.2719978  92.6950014
   1.5619992   2.3179978  92.6780014   2.9679992   3.1239978  93.4100014
   2.6879992   3.9049978  91.3600014   2.1639992   3.6979978  90.4150014
   3.8449992   4.6909978  91.2270014   4.1639992   5.1339978  90.2720014
   4.7489992   5.0519978  92.4290014   4.1199992   5.0799978  93.3450014
   5.1339992   6.0739978  92.2290014   5.8739992   3.9959978  92.5160014
   5.5569992   2.9389978  92.3830014   6.1219992   3.9799978  93.5990014
   7.1509992   4.0859978  91.6090014   8.0099992   3.6559978  92.1680014
   7.4089992   5.1609978  91.4980014   6.9119992   3.2349978  90.2850014
   5.8829992   3.5889978  90.0610014   6.8339992   2.1549978  90.5330014
   7.8209992   3.4729978  89.0520014   7.6609992   2.6039978  88.3780014
   8.8649992   3.6029978  89.4090014   7.4429992   4.7479978  88.3010014
   7.7089992   5.6349978  88.9160014   6.3419992   4.8609978  88.2050014
   8.0659992   4.7329978  86.8890014   7.5809992   3.9229978  86.3030014
   9.1699992   4.7359978  87.0130014   7.7239992   5.9689978  86.0160014
   7.9429992   5.7389978  84.9510014   8.2659992   6.9099978  86.2520014
   6.6409992   6.2119978  86.0780014  48.9099992  90.8949978  84.3330014
  49.1659992  91.9539978  84.1160014  49.7279992  90.2809978  83.8990014
  48.9449992  90.7689978  85.4360014  47.4979992  90.4059978  83.8030014
  47.4669992  89.3579978  84.1710014  46.6359992  90.9359978  84.2630014
  47.5449992  90.1849978  82.2620014  48.6269992  89.9599978  82.1480014
  47.0609992  89.2059978  82.0570014  47.1179992  91.3029978  81.2940014
  46.1929992  91.7799978  81.6830014  47.9419992  92.0469978  81.2430014
  46.8279992  90.8369978  79.8990014  47.6249992  90.1349978  79.5710014
  45.9049992  90.2209978  79.9510014  46.3869992  92.0689978  78.9990014
  45.5269992  92.4499978  79.5910014  47.3009992  92.6959978  79.0650014
  46.2219992  91.5399978  77.5470014  45.5459992  90.6589978  77.5320014
  45.8239992  92.3429978  76.8900014  47.5569992  91.2849978  76.8050014
  48.0139992  92.2529978  76.5050014  48.1769992  90.6369978  77.4600014
  47.4229992  90.4729978  75.4900014  47.0659992  89.4329978  75.6480014
  46.7659992  90.9989978  74.7660014  48.8079992  90.1419978  74.8780014
  49.3639992  91.1019978  74.8310014  49.3629992  89.5319978  75.6210014
  48.7079992  89.4769978  73.5020014  48.0909992  88.5569978  73.5800014
  48.2539992  90.1939978  72.7860014  50.1489992  89.1289978  72.9610014
  50.7539992  90.0559978  72.8710014  50.7059992  88.5469978  73.7260014
  50.1999992  88.2689978  71.6880014  51.0799992  87.5949978  71.6040014
  49.3209992  87.6039978  71.8320014  49.9799992  88.8169978  70.2740014
  50.7189992  89.6419978  70.1870014  50.2329992  88.0069978  69.5560014
  48.6139992  89.4049978  69.9300014  47.6909992  88.7919978  70.0060014
  48.5139992  90.2859978  70.5990014  48.6209992  89.9309978  68.4560014
  49.5949992  90.2999978  67.9160014  47.3799992  89.8859978  67.9860014
  47.1349992  90.0159978  66.5980014  48.1059992  89.8639978  66.0800014
  46.4899992  89.2139978  66.1820014  46.5119992  91.3679978  66.3730014
  45.4879992  91.3719978  66.8030014  46.4639992  91.7109978  64.8450014
  45.7579992  91.0149978  64.3440014  46.0379992  92.7309978  64.7280014
  47.8059992  91.7009978  64.3510014  48.3039992  90.7509978  63.2120014
  49.8479992  91.1049978  63.2390014  50.3909992  92.3519978  63.6420014
  51.0549992  92.7549978  62.8480014  49.6029992  93.1119978  63.8320014
  51.1789992  92.1499978  64.8970014  51.3589992  93.1079978  65.3620014
  50.5429992  91.6619978  65.6210014  52.4709992  91.3379978  64.9350014
  52.2519992  89.8989978  64.6310014  51.5929992  89.4389978  65.3530014
  51.7219992  89.8079978  63.6940014  53.2079992  89.4229978  64.4680014
  53.4099992  91.9219978  63.9110014  54.3969992  91.4859978  63.8690014
  52.9189992  91.7739978  62.9600014  53.5659992  92.9629978  64.1500014
  53.0819992  91.6229978  66.3170014  52.2489992  91.8299978  66.9730014
  53.7809992  92.4389978  66.2100014  53.7039992  90.7949978  66.6220014
  48.1499992  89.2899978  63.4790014  47.7279992  91.1949978  61.8930014
  47.2449992  92.4229978  67.0880014  46.5229992  93.6069978  67.2730014
  45.2669992  93.6929978  67.1940014  47.5389992  94.6989978  67.4010014
  47.2889992  95.3949978  66.5720014  48.5929992  94.3619978  67.2940014
  47.4599992  95.3199978  68.8400014  46.4319992  95.6569978  69.0950014
  48.0549992  96.2569978  68.8820014  47.7789992  94.3359978  69.9790014
  46.9579992  93.5879978  69.9690014  47.6259992  94.8079978  70.9730014
  49.1829992  93.6589978  69.9070014  49.9209992  94.4629978  69.7000014
  49.2169992  92.9829978  69.0260014  49.6689992  92.9929978  71.1920014
  50.0719992  91.9969978  70.9080014  48.7779992  92.7829978  71.8220014
  50.5819992  93.8389978  72.0780014  50.4279992  93.5699978  73.1450014
  50.1149992  94.8389978  71.9510014  52.0769992  93.7929978  71.8110014
  52.3689992  94.5959978  72.5210014  52.4619992  94.1229978  70.8220014
  52.5069992  92.4059978  72.1860014  52.4829992  91.6819978  71.3580014
  52.9529992  91.9119978  73.3660014  53.2339992  90.8539978  73.4660014
  53.0929992  92.7239978  74.6490014  53.0689992  93.8059978  74.3970014
  54.1049992  92.5279978  75.0630014  51.8969992  92.4729978  75.6410014
  51.8319992  91.4259978  76.0080014  50.9359992  92.8929978  75.2750014
  52.1549992  93.1219978  76.9820014  52.2199992  94.2299978  76.9290014
  53.1839992  92.8509978  77.3030014  51.1649992  92.6299978  78.0670014
  51.3799992  91.5449978  78.1780014  50.1119992  92.8529978  77.7900014
  51.3609992  93.3979978  79.4160014  51.2939992  94.5009978  79.3060014
  52.3179992  93.0929978  79.8910014  50.2019992  92.9219978  80.3510014
  50.3499992  91.8469978  80.5920014  49.2919992  93.0869978  79.7350014
  50.1659992  93.7299978  81.6820014  49.3859992  93.2759978  82.3300014
  49.9589992  94.8059978  81.4970014  51.4989992  93.7969978  82.5190014
  51.9099992  92.7649978  82.5120014  51.3209992  94.1609978  83.5540014
  52.2429992  94.4469978  82.0130014  71.4709992  89.1739978  85.7320014
  72.4249992  88.6229978  85.8790014  70.8029992  88.8579978  86.5610014
  71.7379992  90.2519978  85.7170014  70.8429992  88.7219978  84.4050014
  71.5649992  89.0209978  83.6160014  70.7549992  87.6149978  84.4270014
  69.5029992  89.3049978  84.1460014  68.8239992  89.0399978  84.9840014
  69.6599992  90.3949978  83.9950014  68.7339992  88.8329978  82.8170014
  68.7839992  87.7239978  82.7700014  67.6549992  89.0689978  82.9410014
  69.4379992  89.4279978  81.6530014  69.6939992  90.4929978  81.8390014
  70.4089992  88.8889978  81.6770014  68.5289992  89.2639978  80.3500014
  67.7249992  90.0259978  80.4380014  69.1149992  89.6869978  79.5060014
  68.0549992  87.8329978  80.0430014  69.0139992  87.3469978  79.7610014
  67.5399992  87.3519978  80.9020014  67.1919992  87.6869978  78.7680014
  66.6999992  86.6909978  78.7630014  66.2629992  88.2829978  78.8920014
  67.8929992  87.9699978  77.4270014  68.3949992  88.9609978  77.4220014
  68.6359992  87.1879978  77.1620014  66.8519992  87.9649978  76.2810014
  66.5099992  86.9419978  76.0150014  65.9659992  88.5609978  76.5840014
  67.4419992  88.6219978  75.0070014  67.4829992  89.7239978  75.1450014
  68.3709992  88.0399978  74.8280014  66.5609992  88.3659978  73.7270014
  66.7949992  87.2899978  73.5770014  65.4909992  88.5189978  73.9820014
  67.1009992  89.1459978  72.5130014  66.9549992  90.2159978  72.7770014
  68.2099992  89.0979978  72.5430014  66.4829992  88.7269978  71.2180014
  66.3379992  87.6259978  71.1990014  65.4909992  89.1999978  71.0570014
  67.4269992  89.1739978  70.0860014  68.4049992  88.6509978  70.1470014
  67.0329992  88.9059978  69.0820014  67.7379992  90.7259978  70.0290014
  67.3329992  91.5969978  70.8350014  68.2439992  90.9729978  68.8380014
  68.7479992  92.2529978  68.6310014  68.0669992  92.8839978  68.0210014
  68.8339992  92.8809978  69.5440014  70.1159992  92.2359978  67.8820014
  70.5699992  93.2329978  68.0670014  69.9269992  92.0789978  66.3800014
  69.3899992  92.9419978  65.9310014  70.9119992  91.9259978  65.8890014
  69.1439992  90.9249978  66.1480014  68.3339992  90.6849978  64.7770014
  68.7969992  89.2639978  64.3900014  69.8329992  88.5859978  65.0590014
  69.6559992  88.7229978  66.1470014  69.7579992  87.4819978  64.9620014
  71.1459992  89.1559978  64.5020014  70.9789992  90.2209978  64.5610014
  71.9849992  88.8189978  65.0930014  71.4919992  88.9349978  63.0350014
  71.4059992  87.5059978  62.7220014  71.9129992  87.4199978  61.7720014
  71.9419992  86.9139978  63.4490014  70.3799992  87.2009978  62.5800014
  70.5839992  89.7379978  62.1320014  69.5499992  89.4549978  62.2680014
  70.6999992  90.8109978  62.0940014  70.6909992  89.3869978  61.1160014
  72.9339992  89.3889978  62.8930014  73.6909992  88.6349978  62.7330014
  73.3349992  89.8069978  63.8050014  73.0259992  90.1529978  62.1360014
  66.8579992  90.7199978  65.1330014  68.8039992  91.5959978  63.7150014
  70.9599992  91.1109978  68.2790014  71.6879992  91.2819978  69.3540014
  71.6519992  92.2839978  70.0580014  72.6389992  90.1219978  69.4660014
  73.4039992  90.1519978  68.6610014  72.0059992  89.2209978  69.3110014
  73.1829992  90.1279978  70.8350014  73.6349992  91.1179978  71.0570014
  74.1429992  89.5709978  70.7950014  72.3569992  89.4509978  71.9750014
  71.8349992  88.5119978  71.6940014  71.5119992  90.1619978  72.1030014
  73.0399992  89.1909978  73.2660014  73.4209992  90.1049978  73.7700014
  74.0099992  88.7029978  73.0320014  72.1459992  88.4219978  74.2810014
  72.8559992  88.2129978  75.1100014  71.6769992  87.4999978  73.8770014
  71.0229992  89.1489978  74.9830014  70.4199992  88.4809978  75.6350014
  70.2469992  89.3589978  74.2160014  71.2879992  90.5099978  75.6610014
  70.3889992  90.7309978  76.2740014  71.2459992  91.2799978  74.8610014
  72.5969992  90.5189978  76.4580014  73.5229992  90.3779978  75.8800014
  72.7949992  90.5309978  77.8140014  73.8479992  90.4139978  78.1070014
  71.7819992  90.5539978  78.9330014  71.6749992  89.5559978  79.4090014
  70.7819992  90.7929978  78.5120014  72.0979992  91.5379978  80.0870014
  73.0909992  91.2629978  80.5020014  71.4839992  91.3419978  80.9920014
  72.0449992  93.0049978  79.7100014  72.8479992  93.2299978  78.9750014
  72.3789992  93.4789978  80.6580014  70.6919992  93.5569978  79.3160014
  70.4059992  93.1479978  78.3230014  70.7879992  94.6489978  79.1340014
  69.5709992  93.3279978  80.3390014  69.4439992  92.2499978  80.5750014
  68.5979992  93.5569978  79.8520014  69.6219992  93.9939978  81.6930014
  69.5819992  95.0909978  81.5220014  70.4999992  93.8239978  82.3520014
  68.3209992  93.8269978  82.4000014  68.2779992  92.7419978  82.6330014
  67.5249992  94.1309978  81.6880014  68.2399992  94.5499978  83.7320014
  69.2289992  94.4519978  84.2280014  67.4089992  94.0489978  84.2730014
  68.0769992  95.6479978  83.6930014  61.6259992  55.2699978  84.4890014
  62.1589992  54.5269978  85.1210014  60.6389992  54.9029978  84.1360014
  61.2299992  56.1119978  85.0960014  62.4659992  55.8079978  83.3210014
  61.9349992  56.6539978  82.8350014  63.4349992  56.1609978  83.7330014
  62.7229992  54.7009978  82.3030014  62.9829992  53.7929978  82.8870014
  61.7449992  54.5929978  81.7880014  63.8469992  54.9709978  81.3590014
  63.6019992  55.8229978  80.6890014  64.8369992  55.1649978  81.8250014
  63.9589992  53.6979978  80.5160014  64.4039992  52.8249978  81.0390014
  62.9769992  53.4039978  80.0870014  65.1069992  53.9299978  79.4490014
  65.0439992  54.9489978  79.0120014  66.0639992  53.8089978  80.0010014
  65.1339992  52.8619978  78.3120014  64.2439992  52.2009978  78.3810014
  65.0589992  53.3799978  77.3320014  66.3999992  52.0109978  78.4070014
  66.5479992  51.6669978  79.4530014  66.3699992  51.1379978  77.7220014
  67.6559992  52.7969978  78.0460014  67.7639992  53.6959978  78.6900014
  68.4909992  52.0809978  78.2060014  67.7739992  53.2779978  76.5710014
  67.1369992  54.1719978  76.4020014  68.7959992  53.6519978  76.3460014
  67.5069992  52.1939978  75.5450014  68.1559992  51.2989978  75.6590014
  66.4459992  51.8779978  75.4420014  67.9339992  52.6789978  74.1460014
  69.0389992  52.6139978  74.0530014  67.4409992  52.0059978  73.4130014
  67.5289992  54.0929978  73.7190014  66.4309992  54.1239978  73.8880014
  67.9679992  54.9349978  74.2950014  67.8329992  54.2759978  72.2720014
  68.9269992  54.1519978  72.1260014  67.3629992  53.4289978  71.7280014
  67.2849992  55.6779978  71.7380014  66.1809992  55.6799978  71.8640014
  67.6619992  56.5249978  72.3510014  67.6639992  55.9449978  70.2720014
  68.8139992  55.8219978  69.8580014  66.5609992  56.4669978  69.6350014
  66.6679992  57.1179978  68.3630014  65.7769992  57.7229978  68.0880014
  67.5149992  57.8309978  68.4530014  67.1869992  56.1519978  67.2730014
  68.2099992  55.7489978  67.4360014  67.2349992  57.0049978  66.0160014
  66.5879992  57.8989978  65.8930014  68.2359992  57.4659978  65.8730014
  67.1299992  56.1669978  64.9060014  66.0309992  56.2439978  63.7850014
  64.7299992  55.7399978  64.5820014  63.9879992  56.7349978  65.4160014
  64.1569992  56.5499978  66.4990014  64.1679992  57.8189978  65.2530014
  62.4159992  56.4859978  65.3050014  62.0949992  55.6419978  65.8990014
  61.9989992  57.3599978  65.7830014  61.8029992  56.4229978  63.9380014
  62.2179992  55.3049978  63.1130014  63.2619992  55.4579978  62.8810014
  62.0919992  54.3429978  63.5860014  61.6749992  55.1119978  62.2000014
  60.3169992  56.5009978  64.1200014  60.0119992  57.5199978  64.3050014
  59.8619992  56.1129978  63.2210014  59.9749992  55.8909978  64.9440014
  62.1719992  57.6649978  63.1810014  61.6459992  58.5259978  63.5670014
  61.9029992  57.4939978  62.1490014  63.2389992  57.8199978  63.1190014
  65.8359992  57.7019978  63.4590014  66.3879992  55.3389978  62.7010014
  66.2669992  55.0539978  67.0350014  66.5019992  53.8769978  67.6800014
  67.3939992  53.6539978  68.4640014  65.4049992  52.9849978  67.2790014
  65.8199992  52.0079978  66.9510014  64.8809992  53.3119978  66.3560014
  64.4349992  52.5969978  68.3930014  65.0089992  52.0309978  69.1570014
  63.6719992  51.9059978  67.9740014  63.6369992  53.7109978  68.9790014
  63.0039992  54.2229978  68.2230014  64.3169992  54.4899978  69.3830014
  62.7909992  53.1329978  70.2080014  63.5649992  52.7699978  70.9180014
  62.2519992  52.2459978  69.8120014  61.8559992  54.1709978  70.7640014
  61.1029992  54.2719978  69.9530014  62.4179992  55.1229978  70.6500014
  61.3809992  53.9639978  72.1750014  60.7679992  53.0379978  72.1900014
  60.7329992  54.8379978  72.4020014  62.4319992  53.8879978  73.2640014
  62.9059992  52.8879978  73.1660014  61.8589992  53.9379978  74.2150014
  63.4249992  55.0249978  73.2410014  64.1709992  54.7699978  72.4740014
  63.4069992  56.2069978  73.8520014  64.2679992  56.8649978  73.6680014
  62.4479992  56.8079978  74.7010014  61.4829992  56.2569978  74.6900014
  62.2719992  57.8309978  74.3040014  62.7409992  56.8739978  76.1800014
  62.7759992  55.8419978  76.5920014  61.8779992  57.3679978  76.6760014
  63.9439992  57.8139978  76.4120014  63.7829992  58.7569978  75.8470014
  64.8569992  57.2509978  76.1230014  64.1489992  58.1689978  77.8840014
  63.8629992  57.3539978  78.5830014  63.5169992  59.0489978  78.1280014
  65.6019992  58.6989978  78.1310014  65.7899992  59.6229978  77.5420014
  66.2329992  57.8789978  77.7270014  66.0509992  59.0069978  79.5950014
  65.7989992  58.1349978  80.2360014  65.3869992  59.8329978  79.9270014
  67.5419992  59.3119978  79.7790014  67.6969992  60.2409978  79.1900014
  68.1739992  58.5299978  79.3060014  68.0409992  59.5729978  81.2380014
  67.9399992  60.6259978  81.5760014  69.0929992  59.2599978  81.4120014
  67.4619992  58.8879978  81.8940014  52.7369992  61.4829978  81.4110014
  52.7499992  61.1139978  80.3630014  53.5889992  62.1859978  81.5350014
  51.7749992  62.0349978  81.4720014  52.7739992  60.2569978  82.3620014
  52.8359992  60.6659978  83.3930014  51.8199992  59.6879978  82.3600014
  53.9179992  59.3029978  82.1900014  54.7939992  59.9729978  82.3240014
  53.8439992  58.6899978  83.1140014  53.8899992  58.5569978  80.9120014
  52.8419992  58.1899978  80.9080014  53.9829992  59.2969978  80.0890014
  54.9959992  57.4579978  80.7910014  55.9649992  57.9569978  81.0050014
  54.9929992  56.8099978  81.6930014  54.9949992  56.5509978  79.4930014
  55.9959992  56.0699978  79.4910014  54.2019992  55.7799978  79.5990014
  54.8559992  57.2429978  78.1330014  53.9529992  57.8899978  78.1100014
  55.6629992  57.9769978  77.9230014  54.8469992  56.1299978  77.0510014
  55.7379992  55.4779978  77.1740014  54.0399992  55.3709978  77.1360014
  54.6529992  56.5159978  75.6120014  53.6469992  56.2629978  75.2130014
  54.6169992  57.6229978  75.5180014  55.5689992  55.7629978  74.6500014
  56.5699992  56.2429978  74.6100014  55.7099992  54.7499978  75.0820014
  55.0589992  55.7669978  73.2110014  55.7069992  55.0389978  72.6770014
  54.0999992  55.2089978  73.2650014  54.8479992  57.1669978  72.6410014
  53.8409992  57.4149978  73.0390014  55.5299992  57.9639978  73.0060014
  54.6839992  57.2159978  71.1040014  54.1889992  58.1559978  70.7770014
  55.7089992  57.2229978  70.6760014  54.1349992  55.9999978  70.3890014
  54.9409992  55.2349978  70.3620014  53.3749992  55.5179978  71.0400014
  53.6299992  56.3839978  68.9830014  54.2969992  57.1509978  68.5350014
  53.6119992  55.4889978  68.3250014  52.2309992  56.9619978  69.0580014
  51.8739992  57.5659978  70.0190014  51.6469992  56.8259978  67.8700014
  50.2409992  57.0559978  67.8320014  49.7229992  56.1519978  67.4440014
  49.7619992  57.1959978  68.8250014  49.8439992  58.2629978  66.9720014
  48.7439992  58.4139978  66.9910014  50.2319992  57.9419978  65.4650014
  51.0029992  57.1469978  65.5570014  49.4609992  57.4549978  64.8310014
  50.6009992  59.1739978  64.8660014  51.3239992  59.1439978  63.4990014
  52.7219992  58.5979978  63.8510014  53.5769992  59.0959978  64.9410014
  53.4249992  60.1859978  65.0920014  53.3829992  58.6609978  65.9440014
  55.0889992  58.9359978  64.6390014  55.3619992  59.4749978  63.7440014
  55.4779992  59.1959978  65.6120014  55.5559992  57.5439978  64.3670014
  54.8179992  56.5679978  65.2580014  55.1399992  55.5469978  65.1140014
  55.0389992  56.7549978  66.2980014  53.7599992  56.6779978  65.0720014
  55.2339992  57.2109978  62.9600014  54.2209992  57.4199978  62.6480014
  55.8529992  57.8799978  62.3820014  55.5709992  56.2139978  62.7190014
  57.0629992  57.6559978  64.5180014  57.4629992  56.7959978  64.0020014
  57.3729992  57.5619978  65.5480014  57.5679992  58.4469978  63.9820014
  50.7499992  58.1289978  62.5930014  51.4459992  60.5679978  63.0140014
  50.5369992  59.4629978  67.3830014  50.0689992  60.0499978  68.4790014
  49.1289992  59.6669978  69.1490014  50.9529992  61.2929978  68.8190014
  50.7859992  61.6409978  69.8600014  50.6999992  61.9869978  67.9890014
  52.4539992  60.9759978  68.6810014  52.7349992  60.8639978  67.6120014
  52.6409992  60.0169978  69.2110014  53.3449992  62.0259978  69.3960014
  53.2219992  63.0559978  68.9990014  54.4079992  61.7049978  69.3780014
  53.1449992  62.2229978  70.9480014  52.2909992  62.8629978  71.2580014
  53.9919992  62.8499978  71.2980014  53.0709992  60.9449978  71.8460014
  54.0569992  60.4339978  71.8070014  52.2619992  60.2809978  71.4720014
  52.6069992  61.2239978  73.3000014  51.5499992  61.5629978  73.3550014
  53.3179992  62.0269978  73.5870014  52.7759992  60.0339978  74.3430014
  52.6809992  60.4259978  75.3780014  53.8069992  59.6279978  74.2640014
  51.7419992  58.9579978  74.0200014  51.5919992  58.7529978  72.9500014
  51.0739992  58.2309978  74.9440014  50.4139992  57.4489978  74.5410014
  51.2059992  58.2959978  76.4310014  50.4839992  59.0399978  76.8290014
  52.2419992  58.5939978  76.7000014  50.9099992  56.8529978  76.9310014
  51.6929992  56.2039978  76.4860014  49.8479992  56.5809978  76.7480014
  51.0219992  56.6849978  78.5170014  52.0539992  57.0219978  78.7530014
  50.9309992  55.6259978  78.8400014  49.9139992  57.5739978  79.1570014
  48.9029992  57.3469978  78.7560014  50.2719992  58.5609978  78.7940014
  49.8649992  57.6689978  80.6780014  49.2939992  58.5819978  80.9500014
  50.9039992  57.8419978  81.0330014  49.2679992  56.3739978  81.3670014
  50.0229992  55.6089978  81.0840014  48.3639992  56.1229978  80.7720014
  48.9459992  56.2539978  82.8870014  48.2939992  55.3589978  82.9810014
  48.2539992  57.1069978  83.0550014  50.2129992  56.2209978  83.7630014
  49.8999992  56.4719978  84.8000014  50.7749992  57.1299978  83.4620014
  50.9109992  55.3569978  83.7660014  55.2679992  65.6019978  81.3690014
  55.8909992  66.0129978  80.5470014  55.4109992  64.5009978  81.4050014
  55.6789992  66.0539978  82.2970014  53.8419992  65.9439978  81.0500014
  53.1779992  65.4969978  81.8210014  53.7039992  67.0389978  81.1830014
  53.2949992  65.5589978  79.6270014  53.9159992  66.1329978  78.9060014
  53.5799992  64.5069978  79.4080014  51.8219992  65.6709978  79.3730014
  51.2989992  65.0049978  80.0920014  51.5179992  66.7099978  79.6230014
  51.4189992  65.2309978  77.9140014  51.9489992  64.2809978  77.6890014
  50.3299992  65.0219978  77.8500014  51.7259992  66.3309978  76.8830014
  51.0439992  67.2049978  76.9560014  52.7709992  66.6869978  77.0020014
  51.6999992  65.6719978  75.4740014  52.0949992  64.6329978  75.4910014
  50.6389992  65.7459978  75.1540014  52.6059992  66.4469978  74.5130014
  52.6599992  67.5439978  74.6820014  53.6149992  66.0499978  74.7540014
  52.2419992  66.2329978  73.1060014  52.3059992  65.1759978  72.7720014
  51.2539992  66.6729978  72.8520014  53.2539992  66.9379978  72.1390014
  52.9349992  66.6699978  71.1090014  53.0349992  68.0209978  72.2610014
  54.7169992  66.6489978  72.4540014  55.1219992  67.1859978  73.3370014
  54.8409992  65.5519978  72.5790014  55.6299992  67.1759978  71.3390014
  55.5819992  68.2819978  71.4320014  56.6559992  66.7959978  71.5330014
  55.3269992  66.8209978  69.9020014  54.2789992  67.0669978  69.6270014
  55.9739992  67.2889978  69.1300014  55.5379992  65.2629978  69.8380014
  56.6389992  65.1699978  69.7180014  55.3619992  64.8359978  70.8490014
  54.8759992  64.5729978  68.6680014  55.0179992  65.1019978  67.7020014
  55.2529992  63.5399978  68.5100014  53.4289992  64.5879978  68.9890014
  53.0009992  64.1259978  70.0400014  52.7679992  65.1879978  67.9500014
  51.4789992  65.6429978  68.3920014  50.8069992  64.7599978  68.3380014
  51.4239992  65.9179978  69.4670014  50.9579992  66.8939978  67.5030014
  49.9089992  67.0779978  67.8190014  50.9229992  66.5369978  65.9670014
  51.9589992  66.1669978  65.8130014  50.2919992  65.6579978  65.7170014
  50.5879992  67.7329978  65.1570014  50.7229992  67.7059978  63.6130014
  52.0499992  68.6579978  63.4710014  52.5409992  69.5459978  64.4540014
  52.8909992  70.5469978  64.1240014  51.8539992  69.8369978  65.2770014
  53.7849992  68.9439978  65.2040014  54.3259992  69.7439978  65.6880014
  53.4119992  68.2729978  65.9630014  54.9089992  68.3099978  64.3350014
  54.3629992  66.9719978  63.9120014  54.1729992  66.3439978  64.7700014
  53.4619992  67.1809978  63.3540014  54.9789992  66.4239978  63.2140014
  55.4109992  69.0849978  63.1000014  54.6049992  69.6789978  62.6970014
  56.3269992  69.6179978  63.3080014  55.6259992  68.4139978  62.2810014
  56.0659992  68.0569978  65.2040014  56.5269992  67.1179978  64.9380014
  55.7049992  67.8469978  66.2000014  56.7599992  68.8809978  65.2820014
  51.1159992  66.3929978  63.1080014  49.5999992  68.3719978  62.9490014
  51.8119992  68.0699978  67.6430014  51.8019992  68.6119978  68.9620014
  51.1659992  68.2439978  69.8920014  52.7929992  69.7599978  69.0410014
  52.9839992  70.0929978  67.9990014  53.7149992  69.2869978  69.4440014
  52.2489992  70.9029978  69.8620014  51.9979992  70.5019978  70.8670014
  51.3559992  71.2889978  69.3250014  53.2179992  72.1379978  69.9550014
  52.8209992  73.0669978  70.4180014  53.6769992  72.3069978  68.9580014
  54.5489992  71.8089978  70.7320014  55.1859992  72.7109978  70.6090014
  55.0609992  70.9559978  70.2390014  54.4919992  71.4979978  72.2610014
  55.4799992  71.1749978  72.6540014  53.7129992  70.7329978  72.4670014
  53.9389992  72.7379978  73.0850014  52.9049992  72.8989978  72.7110014
  54.5349992  73.5869978  72.6860014  54.0259992  72.5259978  74.6140014
  54.0649992  73.5299978  75.0890014  55.0059992  72.0949978  74.9100014
  52.8549992  71.6659978  75.0840014  51.9399992  71.9649978  74.5500014
  52.8089992  70.7039978  75.9310014  51.7929992  70.3119978  76.0870014
  53.8839992  70.0579978  76.7730014  54.8789992  70.1629978  76.2900014
  53.7299992  69.0059978  77.0960014  54.0039992  70.6989978  78.2510014
  54.5029992  71.6909978  78.2150014  54.7439992  69.9929978  78.6840014
  52.7629992  70.8229978  79.0780014  52.4079992  69.7789978  79.2120014
  52.0429992  71.4659978  78.5290014  53.0209992  71.4329978  80.4230014
  53.5369992  72.4149978  80.3690014  53.7559992  70.8499978  81.0190014
  51.7389992  71.6769978  81.2960014  52.0859992  72.3809978  82.0810014
  51.5849992  70.7649978  81.9120014  50.4839992  72.2479978  80.5710014
  50.0039992  71.4899978  79.9160014  50.9009992  73.0989978  79.9910014
  49.2549992  72.5489978  81.4420014  49.3739992  73.2959978  82.2570014
  48.8669992  71.6329978  81.9360014  48.0879992  72.9569978  80.5480014
  47.8189992  72.2039978  79.7770014  48.3389992  73.9369978  80.0900014
  47.2419992  73.0529978  81.2620014  83.3219992  51.8979978  85.1590014
  82.7059992  51.4659978  84.3410014  82.7039992  52.3779978  85.9480014
  83.8719992  51.0229978  85.5660014  84.2839992  52.9109978  84.4040014
  85.0899992  53.3269978  85.0450014  84.8749992  52.2569978  83.7260014
  83.5169992  54.0819978  83.7560014  82.5129992  54.2529978  84.1990014
  84.1339992  55.0059978  83.7260014  83.2299992  53.6789978  82.2630014
  84.1929992  53.5449978  81.7270014  82.6569992  52.7269978  82.2340014
  82.4579992  54.7569978  81.4620014  82.4779992  54.4239978  80.4020014
  81.3949992  54.8339978  81.7760014  83.0809992  56.1429978  81.5480014
  83.0419992  56.5009978  82.5990014  84.1569992  56.0129978  81.3050014
  82.7059992  57.3289978  80.5510014  81.6589992  57.6819978  80.6700014
  83.4659992  58.1259978  80.6910014  82.7499992  56.8409978  79.0300014
  82.0729992  55.9699978  78.8990014  82.2379992  57.6859978  78.5230014
  84.1029992  56.6729978  78.3930014  84.5139992  57.6889978  78.2100014
  84.7869992  56.2229978  79.1430014  84.1719992  55.8149978  77.0910014
  85.2169992  55.5309978  76.8420014  83.6319992  54.8549978  77.2320014
  83.4809992  56.5119978  75.8430014  82.4079992  56.5659978  76.1290014
  83.9069992  57.5129978  75.6150014  83.4569992  55.7279978  74.5570014
  84.4259992  55.5879978  74.0320014  83.0559992  54.7279978  74.8290014
  82.5429992  56.3809978  73.5300014  81.6059992  56.7229978  74.0190014
  82.9939992  57.3659978  73.2810014  82.2699992  55.5369978  72.3090014
  81.7339992  54.6039978  72.5870014  81.5469992  56.1989978  71.7870014
  83.5359992  55.2269978  71.4690014  84.0909992  56.1889978  71.5150014
  84.1549992  54.4889978  72.0220014  83.2059992  54.7369978  70.1060014
  82.4109992  53.8979978  69.8350014  83.9829992  55.3539978  69.1790014
  83.7329992  55.0659978  67.7950014  84.3359992  54.1969978  67.4550014
  82.6999992  54.6999978  67.6090014  83.9649992  56.3699978  66.9640014
  83.2469992  57.1059978  67.3850014  83.6299992  55.9819978  65.4490014
  82.8839992  55.1649978  65.5470014  83.0299992  56.8049978  65.0070014
  84.8319992  55.6859978  64.7790014  84.9789992  55.5489978  63.2350014
  85.6249992  54.1439978  62.9110014  85.4199992  53.0679978  63.8350014
  84.9239992  53.3799978  64.7790014  84.7919992  52.2939978  63.3450014
  86.8279992  52.5209978  64.1680014  86.6619992  51.6059978  64.7170014
  87.2669992  52.1879978  63.2390014  87.8699992  53.3899978  64.8680014
  88.3399992  54.4039978  63.8460014  88.7019992  53.9759978  62.9230014
  87.5189992  55.0299978  63.5330014  89.1169992  55.0509978  64.2270014
  87.2789992  53.9669978  66.1460014  88.1749992  54.2089978  66.6990014
  86.6269992  54.7729978  65.8430014  86.7659992  53.1499978  66.6300014
  89.1129992  52.5699978  65.3300014  89.4759992  52.0139978  64.4780014
  88.8619992  51.9139978  66.1510014  89.9289992  53.1979978  65.6540014
  83.5909992  55.5069978  62.6270014  85.8369992  56.7159978  62.7610014
  85.2749992  56.7359978  67.1410014  85.5869992  57.8819978  66.7090014
  84.8459992  58.6229978  66.1040014  86.8659992  58.1739978  67.3860014
  87.4609992  58.9559978  66.8670014  87.5129992  57.2919978  67.5820014
  86.5449992  58.5979978  68.8370014  85.5309992  59.0499978  68.8530014
  87.2839992  59.3979978  69.0530014  86.8979992  57.4169978  69.8660014
  87.9999992  57.3119978  69.7720014  86.4029992  56.4299978  69.7500014
  86.6129992  57.9019978  71.2730014  85.5779992  58.2599978  71.4560014
  87.2939992  58.7659978  71.4290014  86.8329992  56.9509978  72.3610014
  87.8689992  56.5509978  72.3440014  86.0389992  56.1859978  72.2260014
  86.6969992  57.5689978  73.8220014  86.8499992  56.6149978  74.3700014
  85.6679992  57.8819978  74.0980014  87.6869992  58.6829978  74.1470014
  87.5129992  58.9979978  75.1970014  87.4899992  59.6029978  73.5560014
  89.1599992  58.4249978  73.9870014  89.4809992  58.1359978  72.9750014
  90.0999992  58.3749978  74.8930014  91.0549992  58.0989978  74.4240014
  89.8979992  58.5359978  76.3600014  89.0549992  59.2309978  76.5620014
  90.7919992  59.0419978  76.7820014  89.6189992  57.2639978  77.1470014
  90.5299992  56.6269978  77.1390014  88.7079992  56.6899978  76.8740014
  89.2719992  57.4589978  78.7250014  88.3989992  58.1389978  78.8200014
  90.1739992  57.9209978  79.1800014  88.8709992  56.0309978  79.1650014
  89.7169992  55.3429978  78.9530014  88.0659992  55.6239978  78.5160014
  88.4439992  56.0749978  80.6520014  88.1309992  57.1269978  80.8280014
  89.2429992  55.7169978  81.3350014  87.3039992  55.1019978  80.9290014
  86.5039992  55.4159978  80.2250014  86.9549992  55.1649978  81.9820014
  87.6729992  53.5809978  80.7180014  88.2189992  53.5389978  79.7510014
  86.7349992  52.9869978  80.7190014  88.6709992  53.0229978  81.7620014
  88.9839992  52.0119978  81.4240014  88.1709992  52.8789978  82.7440014
  89.5259992  53.7159978  81.9130014  90.1279992  63.0339978  81.6140014
  89.5079992  62.6119978  80.7940014  89.4139992  63.1079978  82.4630014
  91.0059992  62.4149978  81.9000014  90.4039992  64.4249978  80.9850014
  89.4539992  64.9899978  80.8720014  90.8659992  65.0379978  81.7880014
  91.1939992  64.4959978  79.7030014  91.7149992  65.4739978  79.6220014
  91.9479992  63.6859978  79.8040014  90.3769992  64.0899978  78.5460014
  90.0599992  63.0369978  78.7000014  89.4909992  64.7609978  78.5480014
  91.0539992  64.3409978  77.2170014  91.3139992  65.4209978  77.2450014
  91.9849992  63.7419978  77.3050014  90.2949992  63.9779978  75.9370014
  89.4339992  64.6799978  75.9720014  90.8219992  64.3939978  75.0520014
  89.8559992  62.5689978  75.8590014  89.3559992  62.1939978  76.7770014
  89.1709992  62.4289978  74.9960014  91.0409992  61.5629978  75.5980014
  91.8559992  61.8669978  76.2900014  90.7219992  60.5199978  75.8060014
  91.7999992  61.6019978  74.1900014  92.0819992  62.6389978  73.9090014
  92.6749992  60.9269978  74.2980014  91.1429992  60.8979978  72.9890014
  91.0059992  59.8469978  73.3230014  90.1099992  61.2669978  72.8130014
  91.7999992  60.9229978  71.6090014  92.8219992  60.4999978  71.7140014
  91.3559992  60.2989978  70.8040014  91.8949992  62.3399978  70.9630014
  92.6729992  62.8989978  71.5260014  92.1589992  62.2559978  69.8870014
  90.7469992  63.3039978  71.0340014  90.2989992  63.4829978  72.0340014
  91.1269992  64.2819978  70.6670014  89.5309992  62.7799978  70.1830014
  89.9209992  62.3819978  69.2220014  89.0979992  61.9299978  70.7520014
  88.2799992  63.7059978  70.0370014  87.5389992  63.3889978  69.2720014
  87.6809992  63.8539978  70.9610014  88.8989992  65.0239978  69.4480014
  88.8849992  66.0899978  70.0460014  89.5299992  64.7659978  68.2210014
  90.3729992  65.8039978  67.6380014  89.9679992  65.9419978  66.6130014
  90.2239992  66.7579978  68.1880014  91.9379992  65.4019978  67.4760014
  92.3429992  66.3099978  66.9800014  92.0829992  64.2149978  66.4430014
  91.5319992  64.5559978  65.5410014  93.1509992  64.1029978  66.1580014
  91.5319992  63.0989978  67.0810014  91.7649992  61.7569978  66.1740014
  91.2399992  62.2859978  64.8840014  89.9299992  61.9509978  64.4720014
  89.8169992  60.8849978  64.1830014  89.1999992  62.1509978  65.2850014
  89.5299992  62.8969978  63.2230014  88.4729992  62.7349978  63.0670014
  89.4809992  63.9419978  63.4890014  90.1879992  62.5179978  61.8840014
  91.6779992  62.4109978  61.8050014  92.1039992  62.0819978  62.7410014
  91.8369992  61.8329978  60.9060014  92.0469992  63.4219978  61.7140014
  89.7199992  61.1899978  61.3640014  89.8749992  60.4369978  62.1230014
  88.6539992  61.2239978  61.1910014  90.3669992  60.9629978  60.5290014
  89.6999992  63.5899978  60.9010014  88.6779992  63.3739978  60.6260014
  90.2509992  63.5079978  59.9750014  89.8749992  64.4699978  61.5020014
  93.2009992  61.4359978  66.1060014  90.8889992  60.6029978  66.6120014
  92.5819992  64.9979978  68.7050014  92.8939992  66.0469978  69.4710014
  92.4739992  67.1909978  69.3880014  94.1799992  65.6759978  70.2850014
  94.8869992  66.4899978  70.0190014  94.5859992  64.6909978  69.9680014
  93.9059992  65.7969978  71.7620014  93.0719992  65.1729978  72.1490014
  93.4859992  66.8119978  71.9290014  95.1799992  65.5709978  72.6010014
  95.9269992  66.3809978  72.4620014  95.7389992  64.6439978  72.3480014
  94.8189992  65.5909978  74.0660014  93.9689992  66.2889978  74.2230014
  95.6279992  66.0169978  74.6970014  94.3409992  64.2279978  74.5900014
  94.1279992  63.6149978  73.6880014  93.4229992  64.2919978  75.2120014
  95.1909992  63.4219978  75.5540014  96.0489992  63.2909978  74.8610014
  94.7659992  62.4599978  75.9130014  95.7669992  64.3049978  76.7670014
  96.5619992  64.9239978  76.2990014  96.3649992  63.7059978  77.4870014
  94.7679992  65.2789978  77.4440014  93.8129992  65.4069978  76.9140014
  95.1589992  65.9779978  78.5330014  94.4089992  66.6239978  79.0130014
  96.5189992  65.8889978  79.2150014  96.9369992  66.8969978  79.4220014
  97.2699992  65.2929978  78.6540014  96.3239992  65.1949978  80.6320014
  97.3349992  65.0679978  81.0740014  95.8819992  64.2129978  80.3580014
  95.4519992  66.0969978  81.5010014  94.3889992  66.1899978  81.1900014
  95.7739992  67.1599978  81.4930014  95.4189992  65.4989978  82.8730014
  96.4519992  65.6659978  83.2460014  95.2639992  64.4009978  82.8190014
  94.4129992  66.1399978  83.8280014  94.4679992  67.2459978  83.9210014
  94.7679992  65.7319978  84.7990014  92.9229992  65.7229978  83.5430014
  92.6419992  64.6939978  83.2330014  92.4429992  66.3559978  82.7660014
  92.0569992  65.9279978  84.7930014  92.6709992  65.5229978  85.6260014
  91.2239992  65.1919978  84.8210014  91.5109992  67.3299978  85.0940014
  90.7969992  67.6409978  84.3020014  92.3459992  68.0519978  85.2140014
  90.9449992  67.3159978  86.0500014  72.5679992  52.8009978  80.9960014
  73.5599992  53.2459978  81.2190014  72.5029992  52.1879978  80.0710014
  72.2279992  52.2129978  81.8750014  71.5859992  54.0519978  80.8570014
  71.6989992  54.6699978  81.7740014  72.0289992  54.6099978  80.0040014
  70.1389992  53.7979978  80.4220014  69.7619992  53.2049978  81.2830014
  69.5489992  54.7379978  80.3850014  69.9839992  52.8649978  79.2210014
  70.5629992  51.9189978  79.2910014  68.9489992  52.4919978  79.3770014
  70.2719992  53.5489978  77.9310014  69.7169992  54.5119978  77.9460014
  71.3409992  53.8479978  77.8860014  69.7769992  52.7079978  76.6960014
  70.5339992  51.9059978  76.5640014  68.7689992  52.3109978  76.9420014
  69.6579992  53.5059978  75.3440014  69.1829992  54.5059978  75.4360014
  70.6439992  53.8499978  74.9640014  68.7669992  52.7189978  74.2710014
  69.1179992  51.6679978  74.1910014  67.6879992  52.8209978  74.5160014
  68.7149992  53.3829978  72.8430014  68.1399992  54.3329978  72.8200014
  69.7369992  53.5979978  72.4630014  67.9589992  52.4679978  71.8400014
  68.4239992  51.4599978  71.8860014  66.8559992  52.4259978  71.9640014
  67.9669992  52.8909978  70.3620014  67.7679992  51.9489978  69.8070014
  67.2059992  53.6779978  70.1730014  69.2839992  53.4479978  69.9590014
  69.5229992  54.4699978  70.3240014  70.1249992  52.8079978  70.3010014
  69.4529992  53.5629978  68.3650014  70.3399992  54.1899978  68.1270014
  69.7809992  52.5349978  68.1030014  68.1389992  53.8709978  67.6630014
  67.3129992  53.1309978  67.7180014  67.8309992  54.8039978  68.1840014
  68.2929992  54.1369978  66.1300014  68.9889992  53.3849978  65.7000014
  67.3529992  53.9049978  65.5850014  68.7479992  55.5389978  65.7880014
  68.1229992  56.5549978  65.9010014  70.0349992  55.4819978  65.2710014
  70.7089992  56.7519978  65.4650014  70.2689992  57.5069978  64.7790014
  70.4999992  57.1199978  66.4930014  72.1699992  56.8179978  65.0800014
  72.4029992  57.8959978  65.2100014  72.4299992  56.1859978  63.6880014
  71.7509992  56.7519978  63.0140014  73.4359992  56.5029978  63.3390014
  72.2129992  54.7149978  63.6890014  71.4519992  54.0589978  62.4810014
  70.6419992  52.9879978  63.2510014  71.0899992  51.5919978  63.2650014
  70.3329992  50.9409978  63.7540014  71.2279992  51.2009978  62.2340014
  72.3389992  51.4319978  64.1520014  72.6479992  50.4169978  63.9460014
  73.0189992  52.1589978  63.7340014  72.2789992  51.5479978  65.6630014
  71.3229992  50.6069978  66.3560014  71.5959992  50.5869978  67.4010014
  70.2949992  50.9269978  66.2800014  71.3569992  49.6049978  65.9550014
  73.7139992  51.2269978  66.2160014  73.9109992  50.1849978  66.0130014
  74.4329992  51.8529978  65.7090014  73.6679992  51.3319978  67.2900014
  71.9939992  52.9979978  65.9700014  71.8579992  53.3229978  66.9910014
  71.0739992  53.1939978  65.4400014  72.6729992  53.6979978  65.5050014
  70.4699992  54.9989978  61.9130014  72.4429992  53.4329978  61.5510014
  72.9559992  56.1629978  66.1060014  74.2489992  56.4339978  66.1320014
  74.7589992  57.2659978  65.4320014  75.0199992  55.4719978  67.1390014
  76.0689992  55.8249978  67.2390014  75.1019992  54.4389978  66.7400014
  74.2839992  55.2899978  68.4990014  73.2219992  54.9959978  68.3550014
  74.3929992  56.2819978  68.9880014  75.0959992  54.3409978  69.3740014
  76.1029992  54.6779978  69.7010014  75.2159992  53.3649978  68.8560014
  74.2419992  54.0779978  70.7050014  74.7139992  53.2739978  71.3100014
  73.2539992  53.6639978  70.4110014  74.0849992  55.3959978  71.5100014
  73.4909992  56.0559978  70.8420014  75.0779992  55.8369978  71.7400014
  73.2929992  55.4229978  72.8250014  72.5909992  54.5619978  72.7820014
  72.6329992  56.3119978  72.9170014  74.0669992  55.0239978  74.0790014
  74.8879992  54.3209978  73.8250014  73.3309992  54.5849978  74.7860014
  74.6929992  56.3039978  74.6730014  75.3019992  56.9369978  74.0110014
  74.5669992  56.7779978  75.9800014  74.9699992  57.7489978  76.3030014
  73.7639992  56.1579978  77.1150014  72.9779992  55.4669978  76.7400014
  73.2339992  56.9229978  77.7210014  74.6689992  55.3769978  78.0970014
  75.1679992  54.5549978  77.5410014  74.0509992  54.9299978  78.9050014
  75.7889992  56.2469978  78.7040014  76.3699992  56.7659978  77.9110014
  76.4929992  55.6399978  79.3120014  75.2169992  57.3199978  79.6370014
  74.8269992  58.1739978  79.0430014  76.0099992  57.7049978  80.3130014
  74.2069992  56.8919978  80.6910014  74.4559992  55.9679978  81.2550014
  73.2259992  56.6009978  80.2570014  73.8949992  58.0569978  81.5910014
  73.6429992  58.9489978  80.9790014  74.7759992  58.1969978  82.2530014
  72.6269992  57.8509978  82.4720014  71.7419992  57.4569978  81.9270014
  72.3009992  58.7019978  83.1080014  72.8629992  56.6889978  83.5490014
  73.4649992  55.8659978  83.1080014  71.8369992  56.3819978  83.8460014
  73.3019992  57.0599978  84.5000014  58.8479992  94.7359978  80.7220014
  58.3039992  95.0329978  81.6450014  59.4629992  95.6219978  80.4560014
  59.4999992  93.8409978  80.8140014  57.7869992  94.5229978  79.6060014
  57.1889992  93.6049978  79.7860014  57.0599992  95.3639978  79.5970014
  58.2539992  94.2769978  78.2280014  58.6159992  95.2129978  77.7520014
  59.0359992  93.4889978  78.1760014  57.1099992  93.8209978  77.3270014
  56.7969992  92.7999978  77.6330014  56.1419992  94.3469978  77.4690014
  57.5019992  93.6899978  75.8550014  58.5759992  93.8199978  75.6030014
  57.1679992  92.6739978  75.5570014  56.8389992  94.8299978  74.9570014
  57.2409992  95.8279978  75.2350014  57.0459992  94.6119978  73.8880014
  55.2709992  94.9629978  74.8510014  54.9019992  94.0569978  74.3240014
  54.7769992  94.9169978  75.8450014  54.7539992  96.0389978  74.0150014
  53.6449992  95.9799978  73.9990014  54.8789992  97.0229978  74.5160014
  55.3639992  96.1699978  72.6570014  56.4649992  96.3149978  72.6130014
  55.1789992  95.1889978  72.1690014  54.6699992  97.2309978  71.7880014
  53.5739992  97.1559978  71.9570014  54.9589992  98.2199978  72.2050014
  55.0719992  97.0659978  70.3780014  56.1719992  96.9239978  70.3220014
  54.7189992  96.0659978  70.0450014  54.7369992  98.0709978  69.2580014
  55.1819992  97.6939978  68.3130014  53.6359992  98.0689978  69.1110014
  55.2379992  99.5369978  69.4670014  54.4289992 100.2659978  69.2460014
  55.4139992  99.8029978  70.5310014  56.5359992  99.9379978  68.6780014
  56.0659992 100.0179978  67.6750014  56.8639992 100.9529978  68.9870014
  57.7059992  98.8599978  68.8130014  57.6139992  98.8759978  69.9200014
  57.4579992  97.8369978  68.4590014  59.0479992  99.3559978  68.3530014
  59.7089992 100.2579978  68.8750014  59.4409992  98.5169978  67.4930014
  60.8859992  98.6379978  67.2350014  61.1079992  99.7009978  67.0000014
  61.4919992  98.2779978  68.0940014  61.1569992  97.9049978  65.8700014
  62.2139992  97.9419978  65.5300014  60.4009992  98.4209978  64.5840014
  59.3279992  98.5299978  64.8550014  60.7069992  99.4519978  64.3050014
  60.4879992  97.5069978  63.4940014  59.2239992  97.1659978  62.5420014
  58.1259992  96.6129978  63.5570014  58.2019992  95.1529978  63.7280014
  57.7959992  94.5619978  62.8790014  59.2349992  94.7739978  63.8860014
  57.5739992  94.7179978  65.1190014  57.3889992  93.6639978  64.9750014
  58.3599992  94.8189978  65.8530014  56.3009992  95.3629978  65.5300014
  55.4189992  95.3559978  64.3250014  54.3979992  95.3689978  64.6780014
  55.6969992  96.0729978  63.5670014  55.5959992  94.4239978  63.8090014
  55.6909992  94.6119978  66.7270014  54.7019992  94.9609978  66.9820014
  55.6449992  93.5459978  66.5590014  56.2619992  94.7629978  67.6320014
  56.4969992  96.8419978  65.9100014  55.6809992  97.4039978  66.3390014
  56.9079992  97.3359978  65.0420014  57.2159992  96.9329978  66.7100014
  58.7159992  98.4489978  61.9520014  59.6239992  96.1209978  61.6220014
  60.6019992  96.5519978  65.9380014  61.4979992  95.5949978  66.2950014
  62.7049992  95.7739978  66.2840014  60.7299992  94.3499978  66.7440014
  61.3779992  93.4759978  66.9710014  60.1569992  94.1779978  65.8080014
  59.7189992  94.6509978  67.8130014  58.9279992  93.8709978  67.8450014
  59.2029992  95.6339978  67.7630014  60.3059992  94.6549978  69.1680014
  61.1949992  95.3089978  69.0400014  60.6419992  93.6569978  69.5220014
  59.2249992  94.9399978  70.2470014  58.8489992  93.9349978  70.5330014
  58.3469992  95.4939978  69.8500014  59.7619992  95.5869978  71.5190014
  60.6479992  95.0879978  71.9670014  58.9109992  95.5269978  72.2300014
  60.1329992  97.0349978  71.2220014  59.3869992  97.4239978  70.4970014
  61.0879992  97.2119978  70.6830014  60.2329992  97.9279978  72.4720014
  59.3399992  97.8899978  73.1300014  60.2069992  98.9629978  72.0700014
  61.5369992  97.6729978  73.2460014  62.4709992  97.5369978  72.6810014
  61.6289992  97.6539978  74.6230014  62.6439992  97.6679978  75.0450014
  60.4469992  97.8599978  75.5600014  60.6129992  97.0389978  76.2900014
  59.4339992  97.5329978  75.2410014  60.3369992  99.2879978  76.2220014
  60.6349992 100.1399978  75.5750014  61.0599992  99.3189978  77.0660014
  58.9449992  99.3929978  76.8620014  58.8669992  98.6619978  77.6950014
  58.2489992  99.0819978  76.0530014  58.7539992 100.8749978  77.2640014
  57.6559992 100.9759978  77.4010014  59.0869992 101.3659978  76.3250014
  59.6409992 101.4149978  78.4200014  59.4619992 102.4949978  78.6120014
  60.6599992 101.3799978  77.9770014  59.5779992 100.5739978  79.7380014
  59.8649992  99.5169978  79.5530014  58.5189992 100.3479978  79.9890014
  60.3839992 100.9299978  80.9680014  61.4279992 100.8659978  80.5930014
  60.2919992 100.2109978  81.8100014  60.0669992 102.3049978  81.5370014
  59.0689992 102.4249978  82.0090014  59.9999992 103.0189978  80.6890014
  60.7719992 102.6409978  82.3270014  90.3629992  69.3779978  80.5420014
  89.6839992  70.2489978  80.4140014  90.2829992  69.0559978  81.6020014
  89.8889992  68.5809978  79.9300014  91.7799992  69.6229978  80.1350014
  92.1729992  70.4129978  80.8090014  92.4259992  68.7749978  80.4480014
  91.9149992  70.0079978  78.6250014  91.0019992  70.5099978  78.2370014
  92.7669992  70.7159978  78.5520014  92.3999992  68.8789978  77.7080014
  93.3879992  68.4909978  78.0370014  91.6909992  68.0239978  77.7460014
  92.6069992  69.4119978  76.2630014  91.6499992  69.8729978  75.9380014
  93.2849992  70.2909978  76.3060014  92.8719992  68.3419978  75.2240014
  92.1299992  67.5209978  75.3240014  92.8789992  68.8389978  74.2310014
  94.2339992  67.6609978  75.1880014  94.2119992  66.9419978  76.0350014
  94.3799992  67.1379978  74.2190014  95.4149992  68.5759978  75.4670014
  95.2949992  68.8979978  76.5240014  96.3449992  67.9819978  75.3400014
  95.4499992  69.6649978  74.3510014  94.5119992  70.2319978  74.5330014
  96.2989992  70.3539978  74.5510014  95.4819992  69.1589978  72.9060014
  96.0199992  68.2209978  72.6530014  94.4379992  68.9169978  72.6110014
  95.9989992  70.3019978  71.9770014  95.5789992  71.2599978  72.3510014
  97.1039992  70.3959978  72.0450014  95.5479992  70.2369978  70.5260014
  96.2799992  70.9469978  70.0860014  95.7089992  69.1969978  70.1680014
  94.1299992  70.8499978  70.2350014  93.4049992  70.2849978  70.8590014
  94.1419992  71.8909978  70.6240014  93.7829992  70.7329978  68.7290014
  92.9679992  71.4859978  68.6660014  94.6529992  71.1089978  68.1500014
  93.4689992  69.3579978  68.2300014  94.3639992  68.8849978  67.7700014
  93.0419992  68.6739978  68.9950014  92.4049992  69.5569978  67.1080014
  91.5349992  68.7259978  66.8740014  92.5659992  70.6979978  66.5380014
  91.5339992  71.0839978  65.6150014  91.4769992  70.2849978  64.8450014
  90.5699992  71.1029978  66.1660014  91.9649992  72.4669978  65.1330014
  91.2129992  72.8259978  64.3970014  93.3609992  72.4919978  64.3970014
  93.3489992  71.7039978  63.6130014  93.3609992  73.4979978  63.9250014
  94.4729992  72.2879978  65.3100014  95.9549992  72.3329978  64.7810014
  96.2279992  70.7859978  64.4670014  95.6659992  69.7509978  65.1170014
  96.3709992  68.8929978  65.1440014  95.4749992  69.8349978  66.2080014
  94.3589992  69.2909978  64.4850014  93.8669992  68.5769978  65.1280014
  93.6699992  70.1209978  64.5280014  94.5089992  68.7089978  63.0720014
  93.1789992  68.0309978  62.6860014  93.2339992  67.6299978  61.6850014
  92.9339992  67.2689978  63.4110014  92.4589992  68.8349978  62.7230014
  94.9059992  69.7399978  62.0920014  94.1929992  70.5499978  62.0330014
  95.8839992  70.1289978  62.3330014  95.0779992  69.3569978  61.0970014
  95.5309992  67.6729978  63.1380014  96.4359992  68.2329978  63.3200014
  95.5849992  67.0319978  62.2700014  95.1709992  67.0279978  63.9260014
  95.9599992  73.0689978  63.4930014  96.8069992  72.9019978  65.8660014
  91.8719992  73.2379978  66.3550014  92.0759992  74.5329978  66.3200014
  92.1799992  75.1899978  65.2790014  92.1069992  75.1639978  67.6520014
  91.7489992  74.4379978  68.4130014  91.5199992  76.1049978  67.5960014
  93.4889992  75.6109978  67.9950014  93.4749992  76.4219978  68.7550014
  94.0539992  76.0389978  67.1400014  94.3459992  74.5439978  68.6770014
  94.6159992  73.7879978  67.9090014  93.7679992  74.0829978  69.5060014
  95.6069992  75.1249978  69.1510014  95.3879992  75.7919978  70.0120014
  95.9809992  75.8489978  68.3950014  96.6569992  74.0679978  69.4510014
  97.0969992  73.6299978  68.5290014  96.1399992  73.1779978  69.8690014
  97.7789992  74.4589978  70.3350014  98.1289992  75.4959978  70.1440014
  98.5259992  73.7799978  69.8710014  97.6879992  74.3119978  71.8320014
  98.6629992  74.2749978  72.3630014  97.2959992  73.2839978  71.9880014
  96.8409992  75.3119978  72.5060014  97.2699992  76.3149978  72.3660014
  95.6889992  75.2639978  73.1480014  95.1399992  76.1919978  73.3660014
  94.7479992  74.0419978  73.3530014  95.2179992  73.0469978  73.2020014
  93.8789992  74.1579978  72.6710014  94.3219992  73.8769978  74.8190014
  93.6739992  72.9749978  74.8090014  93.6929992  74.7479978  75.0990014
  95.4309992  73.7969978  75.8880014  95.9869992  74.7509978  75.7670014
  96.1029992  72.9159978  75.8130014  94.7189992  73.7929978  77.2660014
  94.5989992  72.6939978  77.3720014  93.6889992  74.1909978  77.1460014
  95.5779992  74.3869978  78.5030014  96.2659992  75.1749978  78.1290014
  96.3159992  73.6279978  78.8410014  94.7599992  74.8589978  79.6860014
  93.8359992  74.2419978  79.7090014  94.3769992  75.8589978  79.3900014
  95.5689992  75.0139978  80.9910014  95.5829992  74.0309978  81.5070014
  94.9519992  75.7109978  81.5970014  97.0339992  75.5559978  80.8100014
  97.0349992  76.5909978  80.4070014  97.6929992  75.0359978  80.0820014
  97.4589992  75.6169978  81.8350014  91.0329992  83.8659978  83.7980014
  91.2819992  82.8549978  84.1860014  90.6069992  83.8539978  82.7730014
  90.3409992  84.4879978  84.4060014  92.3999992  84.5859978  83.6060014
  92.1439992  85.5519978  83.1220014  92.9119992  84.8469978  84.5570014
  93.3849992  83.7509978  82.7330014  93.3329992  82.6789978  83.0220014
  93.1549992  83.6619978  81.6500014  94.8419992  84.2429978  82.8980014
  94.8479992  85.1839978  82.3090014  95.0339992  84.4729978  83.9680014
  95.9559992  83.2549978  82.5360014  96.9689992  83.6569978  82.7510014
  95.8429992  82.3339978  83.1470014  95.7789992  82.7089978  81.0900014
  96.3569992  81.7659978  80.9840014  94.6969992  82.5999978  80.8620014
  96.4229992  83.5699978  79.9450014  97.4989992  83.7949978  80.1100014
  96.3489992  82.8239978  79.1250014  95.5189992  84.6699978  79.4430014
  94.5579992  84.1709978  79.1960014  95.4509992  85.4769978  80.2040014
  96.0019992  85.2339978  78.0830014  95.4689992  86.2059978  78.0040014
  97.0899992  85.4599978  78.1100014  95.5929992  84.4169978  76.8160014
  95.9519992  83.3669978  76.7590014  94.4879992  84.3679978  76.7150014
  96.1719992  85.0449978  75.5180014  96.2539992  86.1469978  75.6240014
  97.2009992  84.6739978  75.3220014  95.2649992  84.9269978  74.2660014
  95.1819992  83.8299978  74.1050014  94.2439992  85.3609978  74.3300014
  95.9439992  85.6369978  73.0990014  97.0319992  85.4569978  73.2410014
  95.6589992  85.1239978  72.1550014  95.6589992  87.1079978  72.9100014
  94.6319992  87.3389978  73.2640014  96.3079992  87.7279978  73.5650014
  95.8599992  87.7449978  71.4780014  95.6539992  88.8339978  71.4000014
  96.8329992  87.4639978  71.0230014  94.8229992  87.0819978  70.4310014
  94.0899992  86.1459978  70.5310014  94.8789992  87.8689978  69.3610014
  93.7549992  87.8119978  68.4290014  92.8129992  87.4159978  68.8640014
  93.5419992  88.8219978  68.0180014  94.1559992  86.8669978  67.2300014
  94.8419992  87.5539978  66.6900014  93.0399992  86.4279978  66.2590014
  92.5469992  85.6039978  66.8160014  92.3249992  87.2319978  65.9800014
  93.7179992  85.9439978  65.0930014  93.0379992  85.9129978  63.7230014
  91.5429992  85.4639978  64.0630014  90.7639992  84.7819978  63.0300014
  89.6949992  85.0679978  63.1270014  91.0789992  85.0619978  62.0020014
  90.9509992  83.2219978  63.1450014  90.2349992  82.7099978  62.5200014
  92.0019992  83.1409978  62.9080014  90.7179992  82.5589978  64.4800014
  90.9129992  81.0599978  64.3560014  90.1219992  80.7409978  63.6940014
  91.8889992  80.9399978  63.9100014  90.8489992  80.6079978  65.3350014
  91.7779992  83.0419978  65.4810014  91.6749992  82.6129978  66.4670014
  92.7739992  82.8369978  65.1150014  91.5329992  84.0889978  65.5790014
  89.3689992  82.8269978  65.0780014  88.5189992  82.4269978  64.5460014
  89.3459992  83.8879978  65.2770014  89.1989992  82.4139978  66.0610014
  92.9419992  87.3099978  63.1910014  93.7249992  84.9089978  62.8660014
  94.7599992  85.7329978  67.8420014  95.9319992  85.2689978  67.4360014
  96.5899992  85.6849978  66.5430014  96.0809992  83.9469978  68.2650014
  95.4869992  83.9129978  69.2030014  97.1289992  83.8469978  68.6220014
  95.7019992  82.7849978  67.3700014  96.2269992  82.7249978  66.3930014
  94.6389992  82.7309978  67.0530014  96.0529992  81.4619978  68.0680014
  97.1269992  81.4229978  68.3520014  95.7709992  80.6959978  67.3150014
  95.2729992  81.3329978  69.3670014  95.7079992  82.0289978  70.1140014
  95.4429992  80.3019978  69.7450014  93.7149992  81.3219978  69.1800014
  93.4739992  80.5509978  68.4180014  93.4629992  82.3279978  68.7830014
  93.0029992  80.9959978  70.5110014  93.4659992  80.0529978  70.8700014
  91.9709992  80.6679978  70.2600014  93.1389992  82.0419978  71.6500014
  94.1899992  82.1499978  71.9940014  92.6249992  81.6239978  72.5420014
  92.5679992  83.4199978  71.3200014  93.1919992  83.9679978  70.5990014
  91.5349992  83.9969978  71.9360014  91.2619992  85.0039978  71.5880014
  90.7039992  83.4789978  73.0670014  90.5489992  82.3829978  72.9710014
  89.7399992  84.0309978  73.0780014  91.3539992  83.7879978  74.4500014
  91.7289992  84.8289978  74.5490014  92.1329992  83.0289978  74.6730014
  90.1909992  83.6929978  75.4970014  89.8219992  82.6459978  75.4660014
  89.3899992  84.4189978  75.2390014  90.6189992  83.9189978  76.9750014
  91.3099992  83.1269978  77.3340014  89.7329992  83.6559978  77.5920014
  91.0339992  85.3399978  77.3860014  90.1699992  86.0229978  77.2380014
  91.9519992  85.6239978  76.8280014  91.4189992  85.3699978  78.8850014
  92.2259992  84.6239978  79.0520014  90.5329992  85.0809978  79.4910014
  91.9289992  86.7429978  79.2950014  91.0629992  87.4309978  79.3940014
  92.7659992  87.1049978  78.6610014  92.4599992  86.7579978  80.7000014
  93.4129992  86.1909978  80.6510014  91.7549992  86.3449978  81.4530014
  92.8189992  87.7429978  81.0700014  80.5699992  91.6209978  81.1130014
  80.5389992  92.6509978  81.5270014  81.0869992  91.0139978  81.8870014
  79.5129992  91.2789978  81.0960014  81.2489992  91.5019978  79.7180014
  80.5879992  92.1059978  79.0590014  82.2399992  92.0039978  79.7490014
  81.3739992  90.1309978  79.1160014  80.3579992  89.7479978  78.8810014
  81.9979992  90.1879978  78.1990014  81.8919992  89.1799978  80.2020014
  81.3449992  89.0979978  81.1660014  82.2299992  88.2079978  79.7840014
  83.3119992  89.6639978  80.8370014  83.3719992  90.7419978  81.0960014
  83.6209992  89.0589978  81.7170014  84.4739992  89.5229978  79.8310014
  84.2809992  90.2729978  79.0340014  85.3549992  89.7869978  80.4550014
  84.6849992  88.0799978  79.4740014  84.7879992  87.5639978  80.4530014
  83.8399992  87.6599978  78.8890014  86.0079992  87.9849978  78.6830014
  86.8709992  88.1119978  79.3710014  85.9959992  86.9889978  78.1900014
  86.1289992  89.0379978  77.5060014  86.1789992  90.0839978  77.8750014
  87.1259992  88.9549978  77.0220014  85.0249992  89.0169978  76.5250014
  84.7469992  87.9449978  76.4340014  84.0649992  89.4759978  76.8440014
  85.4669992  89.4599978  75.1550014  85.6839992  90.5229978  75.3940014
  86.3439992  88.8469978  74.8540014  84.3809992  89.4559978  74.0620014
  83.4479992  89.7239978  74.6030014  84.5439992  90.2009978  73.2530014
  84.2209992  88.0749978  73.3650014  85.0919992  87.8039978  72.7310014
  84.0419992  87.2509978  74.0880014  82.9779992  88.0799978  72.5020014
  82.9649992  87.0109978  72.2000014  82.1269992  88.1809978  73.2100014
  83.1569992  89.0399978  71.3450014  83.0829992  90.0799978  71.7270014
  84.1819992  89.2499978  70.9730014  82.1189992  88.7529978  70.2640014
  81.4139992  87.8019978  70.4130014  82.0519992  89.5429978  69.2240014
  81.1379992  89.1139978  68.2070014  81.3009992  88.0289978  68.0390014
  80.1029992  89.3239978  68.5550014  81.3669992  89.7999978  66.8560014
  80.6379992  89.3119978  66.1750014  82.7109992  89.5279978  66.3070014
  83.4089992  89.6439978  67.1640014  82.8629992  88.5109978  65.8850014
  83.2359992  90.5459978  65.4070014  82.5249992  90.9579978  64.0430014
  83.8489992  91.4459978  63.3260014  85.1639992  90.7709978  63.2880014
  84.9919992  89.6999978  63.5270014  85.5969992  90.6999978  62.2670014
  86.0639992  91.3669978  64.3850014  85.2899992  91.6909978  65.0650014
  86.7749992  90.6959978  64.8440014  86.8799992  92.6679978  64.1410014
  86.0349992  93.7219978  63.4790014  86.6299992  94.6099978  63.3250014
  85.6699992  93.3469978  62.5350014  85.2749992  93.8979978  64.2250014
  87.3339992  93.2129978  65.4200014  87.7849992  94.1779978  65.2440014
  86.4869992  93.5849978  65.9770014  87.9839992  92.5059978  65.9150014
  88.1389992  92.3629978  63.2980014  87.7729992  91.8809978  62.4040014
  88.7779992  91.6929978  63.8550014  88.6259992  93.2659978  62.9590014
  81.9479992  89.7539978  63.4250014  81.7259992  92.1779978  64.2930014
  81.0639992  91.1679978  66.9700014  79.7279992  91.5029978  67.0520014
  78.7669992  90.7599978  67.1510014  79.6909992  93.0729978  67.2930014
  78.6599992  93.4849978  67.3360014  80.2749992  93.5799978  66.4960014
  80.4709992  93.3579978  68.6440014  80.7289992  94.4169978  68.8560014
  81.4559992  92.8449978  68.6850014  79.6129992  93.0449978  69.8810014
  79.1349992  92.0799978  69.6090014  78.8579992  93.8589978  69.9250014
  80.2979992  92.8229978  71.2430014  80.7029992  93.7769978  71.6420014
  81.2209992  92.2359978  71.0490014  79.4209992  92.1279978  72.2870014
  79.0419992  91.2499978  71.7210014  78.5589992  92.8089978  72.4510014
  80.0399992  91.7459978  73.6270014  80.7769992  90.9529978  73.3770014
  79.3399992  91.3519978  74.3950014  80.8269992  92.7819978  74.4180014
  80.1049992  93.5829978  74.6860014  81.5709992  93.2559978  73.7420014
  81.5799992  92.3049978  75.6500014  81.5309992  91.2119978  75.7650014
  82.3639992  92.9789978  76.5270014  82.5379992  92.4229978  77.4610014
  82.7179992  94.4329978  76.5430014  82.7389992  94.7659978  77.6030014
  81.9049992  95.0209978  76.0670014  84.0619992  94.8419978  75.9040014
  84.1059992  95.9439978  76.0390014  84.0449992  94.6059978  74.8180014
  85.2679992  94.1769978  76.6320014  86.1799992  94.5549978  76.1210014
  85.1559992  93.0889978  76.4330014  85.4509992  94.2239978  78.0970014
  84.5209992  93.9579978  78.6440014  85.5679992  95.2949978  78.3680014
  86.5909992  93.3379978  78.6570014  87.5619992  93.6499978  78.2160014
  86.4769992  92.2459978  78.4870014  86.7379992  93.4459978  80.2000014
  86.9279992  94.5049978  80.4760014  87.6519992  92.9179978  80.5470014
  85.6739992  92.8839978  81.1220014  85.6289992  91.7779978  81.0310014
  84.7429992  93.4609978  80.9370014  85.9739992  93.1349978  82.6010014
  85.1689992  92.8949978  83.3280014  86.4239992  94.1009978  82.9160014
  86.8079992  92.4719978  82.9180014  74.9209992  91.1339978  83.2190014
  75.9759992  90.7989978  83.3160014  74.4269992  90.4259978  82.5210014
  74.4059992  91.1199978  84.2030014  74.8589992  92.5149978  82.5000014
  75.2379992  93.3179978  83.1670014  75.4139992  92.4049978  81.5440014
  73.5239992  92.9009978  82.0300014  73.1969992  92.1309978  81.2990014
  72.9349992  92.9209978  82.9720014  73.4429992  94.3169978  81.4260014
  73.4479992  95.0839978  82.2290014  74.2659992  94.5909978  80.7320014
  72.1929992  94.7319978  80.6860014  71.3749992  94.6609978  81.4340014
  72.2739992  95.8039978  80.4060014  71.7639992  93.9799978  79.4330014
  71.2259992  93.0429978  79.6900014  71.0679992  94.6859978  78.9320014
  72.8779992  93.5499978  78.5220014  73.4979992  94.4339978  78.2620014
  73.5129992  92.8559978  79.1130014  72.4459992  92.7969978  77.2810014
  71.6799992  92.0189978  77.4900014  72.0249992  93.5949978  76.6340014
  73.6309992  92.0589978  76.6330014  74.2399992  92.7529978  76.0150014
  74.3889992  91.8899978  77.4280014  73.2199992  90.7579978  75.8740014
  72.9509992  89.9469978  76.5830014  72.3069992  90.8749978  75.2520014
  74.3619992  90.2819978  74.9740014  75.3479992  90.4359978  75.4610014
  74.2349992  89.1799978  74.9170014  74.2229992  90.7229978  73.4840014
  73.3039992  90.4059978  72.9460014  73.9979992  91.8059978  73.5850014
  75.4919992  90.5009978  72.5730014  76.3499992  91.1469978  72.8600014
  75.7259992  89.4309978  72.7560014  75.2029992  90.9789978  71.0790014
  74.2419992  90.6029978  70.6660014  75.1659992  92.0889978  71.0560014
  76.3779992  90.5339978  70.1110014  77.3379992  90.6409978  70.6600014
  76.3219992  89.4679978  69.8030014  76.2849992  91.3869978  68.8690014
  76.4619992  92.6129978  68.7930014  76.0209992  90.5409978  67.8230014
  75.9449992  91.0839978  66.4750014  76.5739992  91.9639978  66.2230014
  76.3229992  90.2939978  65.7910014  74.4119992  91.2959978  66.1650014
  73.9399992  90.3759978  66.5720014  74.1969992  91.4249978  64.6540014
  74.4239992  90.4099978  64.2650014  73.1589992  91.7179978  64.3890014
  75.2079992  92.3009978  64.1540014  75.1819992  92.9839978  62.7320014
  75.9009992  94.3199978  62.9870014  75.4989992  95.2629978  64.0490014
  75.4679992  96.2279978  63.5000014  74.4259992  95.1639978  64.3210014
  76.2609992  95.2669978  65.3700014  75.7139992  95.9709978  65.9790014
  76.1599992  94.3719978  65.9670014  77.7489992  95.6729978  65.3020014
  78.6419992  94.4999978  64.7860014  78.4429992  93.6089978  65.3630014
  78.5359992  94.3579978  63.7200014  79.6669992  94.8309978  64.8700014
  77.8699992  96.8089978  64.4160014  78.7609992  97.3949978  64.5860014
  77.8589992  96.5399978  63.3700014  77.0109992  97.4019978  64.6930014
  78.3179992  96.0459978  66.6240014  77.9999992  95.3449978  67.3820014
  77.9749992  97.0199978  66.9420014  79.3859992  95.9419978  66.5000014
  76.1309992  92.3149978  61.7810014  73.8099992  93.2429978  62.3050014
  73.9999992  92.4889978  66.9080014  72.6449992  92.5959978  66.9850014
  71.8769992  91.7339978  66.6300014  72.2349992  93.8889978  67.7910014
  71.6279992  94.5569978  67.1430014  73.1519992  94.4579978  68.0530014
  71.2669992  93.5439978  68.9730014  70.5129992  92.8699978  68.5120014
  70.8289992  94.4589978  69.4270014  71.8529992  92.9789978  70.2500014
  72.5129992  92.1229978  69.9920014  71.0519992  92.4879978  70.8440014
  72.4199992  94.0459978  71.2720014  72.5709992  93.4679978  72.2090014
  71.7009992  94.8749978  71.4470014  73.7289992  94.7119978  70.8750014
  73.5089992  95.3899978  70.0240014  74.3659992  93.8299978  70.6480014
  74.2309992  95.6009978  71.9640014  74.4389992  94.8879978  72.7910014
  73.3009992  96.1849978  72.1350014  75.4929992  96.4379978  71.6600014
  75.7379992  97.1059978  72.5130014  75.3119992  97.0119978  70.7270014
  76.5469992  95.4299978  71.3050014  76.5839992  95.1069978  70.2540014
  77.3469992  94.8099978  72.1870014  78.0359992  94.0309978  71.8290014
  77.3699992  94.9609978  73.6950014  76.6389992  95.7029978  74.0820014
  78.3379992  95.2329978  74.1670014  77.1349992  93.5679978  74.2790014
  77.9299992  92.9409978  73.8220014  76.0969992  93.1799978  74.1890014
  77.4409992  93.4739978  75.7820014  78.4639992  93.8249978  76.0360014
  77.2629992  92.4229978  76.0940014  76.4889992  94.3409978  76.6460014
  76.2119992  93.5829978  77.4100014  75.5889992  94.5009978  76.0150014
  76.8839992  95.6549978  77.3000014  75.9499992  96.0689978  77.7380014
  77.3719992  96.3039978  76.5410014  77.7879992  95.3039978  78.4630014
  78.7959992  95.0009978  78.1080014  77.1889992  94.4949978  78.9330014
  77.8529992  96.3749978  79.5560014  76.8749992  96.8919978  79.6630014
  78.6069992  97.1269978  79.2410014  78.3469992  95.8039978  80.8670014
  79.0669992  95.0039978  80.5920014  77.4939992  95.4529978  81.4860014
  78.9029992  96.4769978  81.5550014  47.5719992  84.4859978  86.4310014
  48.0249992  85.3779978  86.9150014  48.2149992  83.6229978  86.7100014
  46.5219992  84.3969978  86.7830014  47.5519992  84.7239978  84.8520014
  46.9819992  85.6729978  84.7630014  48.5129992  85.0179978  84.3790014
  46.9399992  83.5839978  84.0270014  47.6599992  82.7439978  83.9360014
  46.0889992  83.2769978  84.6720014  46.5489992  84.0979978  82.5950014
  45.9479992  85.0299978  82.6700014  47.5329992  84.3139978  82.1260014
  45.8749992  83.0879978  81.7320014  46.5029992  82.1889978  81.5560014
  45.0239992  82.7219978  82.3440014  45.3729992  83.6989978  80.4250014
  44.9539992  82.8179978  79.8940014  44.6019992  84.4809978  80.5900014
  46.4229992  84.2919978  79.4730014  46.6609992  85.3009978  79.8710014
  47.3879992  83.7719978  79.6560014  46.0029992  84.3299978  77.9670014
  44.9129992  84.5249978  77.8770014  46.5229992  85.1639978  77.4500014
  46.4619992  83.0089978  77.1820014  47.5559992  82.8359978  77.2700014
  45.8149992  82.1919978  77.5660014  46.1809992  83.1499978  75.6990014
  45.1529992  83.5189978  75.4970014  46.9749992  83.8349978  75.3330014
  46.3009992  81.7269978  75.0270014  47.3799992  81.4809978  74.9270014
  45.8529992  80.8639978  75.5650014  45.9429992  81.6709978  73.5280014
  44.8649992  81.8479978  73.3240014  46.4399992  82.5749978  73.1170014
  46.4099992  80.4019978  72.8230014  46.0869992  79.4889978  73.3690014
  45.8349992  80.3479978  71.8740014  47.9319992  80.2679978  72.5640014
  48.3369992  81.1399978  72.0080014  48.4639992  80.3489978  73.5360014
  48.3489992  78.9689978  71.7690014  49.4489992  78.9969978  71.6220014
  48.0899992  77.9949978  72.2370014  47.8559992  78.9909978  70.3440014
  46.6519992  78.8959978  70.0000014  48.8969992  79.1659978  69.5030014
  48.6439992  79.5309978  68.1400014  49.5709992  79.4499978  67.5330014
  47.9049992  78.8669978  67.6430014  48.0309992  80.9959978  68.1020014
  46.9809992  80.9529978  68.4630014  48.0559992  81.5429978  66.6760014
  49.0109992  81.2429978  66.1960014  47.2429992  81.0389978  66.1100014
  47.9769992  82.9399978  66.6170014  46.6179992  83.6279978  66.2600014
  46.6979992  83.6399978  64.6990014  47.7509992  84.3119978  64.0550014
  47.3239992  85.1969978  63.5370014  48.6079992  84.5229978  64.7300014
  48.3489992  83.3049978  63.0380014  49.2499992  83.7219978  62.6120014
  48.7959992  82.4919978  63.5900014  47.4809992  82.7359978  61.8760014
  48.1659992  81.6789978  61.1760014  48.5939992  81.0059978  61.9030014
  47.4089992  81.3099978  60.5000014  48.9749992  82.1429978  60.6310014
  46.2489992  82.0399978  62.4620014  45.8099992  81.6589978  61.5510014
  46.5069992  81.2179978  63.1140014  45.6369992  82.7639978  62.9800014
  47.0469992  83.8539978  60.9540014  46.5449992  84.5899978  61.5640014
  46.2959992  83.4519978  60.2900014  47.9579992  84.2219978  60.5060014
  45.5089992  82.7479978  66.7030014  46.6919992  85.0199978  66.6660014
  48.8789992  81.9139978  68.9390014  48.3489992  82.9159978  69.5740014
  47.1359992  83.1899978  69.6420014  49.5069992  83.7929978  70.0340014
  49.3319992  84.8439978  69.7180014  50.5159992  83.6229978  69.6000014
  49.4999992  83.6409978  71.5670014  49.6639992  82.5919978  71.8920014
  48.4829992  83.8859978  71.9440014  50.5469992  84.6219978  72.1560014
  50.3029992  85.6469978  71.8050014  51.6339992  84.4769978  71.9810014
  50.3539992  84.6779978  73.7160014  49.2719992  84.7039978  73.9700014
  50.8829992  85.5279978  74.1960014  50.9749992  83.4219978  74.4010014
  52.0459992  83.3939978  74.1070014  50.5739992  82.4659978  74.0010014
  50.8109992  83.3869978  75.9400014  49.7379992  83.3259978  76.2220014
  51.2759992  84.2689978  76.4300014  51.4669992  82.2199978  76.6490014
  51.3829992  82.4209978  77.7380014  52.5209992  81.9909978  76.3840014
  50.6859992  80.9139978  76.3790014  51.0199992  80.5179978  75.4090014
  49.6589992  80.2839978  76.9670014  49.2239992  79.5389978  76.2850014
  48.8849992  80.6799978  78.2680014  47.8229992  80.4159978  78.0720014
  48.9039992  81.7659978  78.4990014  49.4359992  79.8799978  79.4640014
  49.6719992  78.8449978  79.1370014  48.6949992  80.0509978  80.2740014
  50.7699992  80.4729978  79.9790014  51.6089992  80.4509978  79.2510014
  51.0189992  79.7509978  80.7850014  50.5439992  81.8449978  80.6230014
  49.4929992  81.7909978  80.9790014  50.6169992  82.5749978  79.7890014
  51.3559992  82.0579978  81.9080014  51.9519992  82.9929978  81.9790014
  52.1219992  81.2739978  82.0850014  50.4769992  82.1899978  83.2010014
  49.5239992  82.7249978  83.0020014  51.1619992  82.7119978  83.9030014
  50.0339992  80.8499978  83.7320014  49.7269992  80.1299978  82.9440014
  49.2719992  80.9289978  84.5370014  51.1599992  80.1649978  84.5370014
  51.9369992  79.6849978  83.9050014  50.7779992  79.2429978  85.0260014
  51.7149992  80.8609978  85.2010014  62.9049992  97.7199978  82.9560014
  62.9089992  98.0809978  81.9050014  62.1779992  98.3229978  83.5410014
  62.5229992  96.6789978  83.0180014  64.2579992  97.7429978  83.6410014
  64.1419992  97.3499978  84.6740014  64.8809992  97.0559978  83.0290014
  64.8869992  99.1479978  83.8650014  64.7249992  99.8039978  82.9830014
  64.2849992  99.6649978  84.6430014  66.3389992  98.9829978  84.2480014
  66.6649992  99.9499978  84.6880014  66.5999992  98.2249978  85.0170014
  67.2509992  98.7369978  83.0370014  68.3219992  98.6539978  83.3190014
  66.9199992  97.7549978  82.6350014  67.1149992  99.8109978  81.8630014
  66.2749992  99.5829978  81.1720014  66.8429992 100.7709978  82.3510014
  68.4379992 100.0539978  81.1370014  69.2129992 100.6179978  81.7000014
  68.9459992  99.1039978  80.8680014  68.2639992 100.8509978  79.7840014
  68.2119992 101.9599978  79.8340014  69.2749992 100.7749978  79.3290014
  67.2169992 100.2769978  78.7450014  67.2679992  99.1699978  78.8290014
  66.1709992 100.4389978  79.0830014  67.2709992 100.7249978  77.3200014
  66.6129992 101.6139978  77.2100014  68.3599992 100.8599978  77.1510014
  66.7519992  99.7199978  76.1930014  65.9439992  99.1139978  76.6560014
  66.2679992 100.3909978  75.4500014  67.9289992  99.0919978  75.3770014
  68.5219992  99.8399978  74.8080014  68.6429992  98.5449978  76.0290014
  67.1679992  98.0919978  74.4380014  67.9169992  97.3809978  74.0280014
  66.5179992  97.4629978  75.0830014  66.4959992  98.6129978  73.0620014
  65.9849992  97.6959978  72.6990014  65.8299992  99.4789978  73.2590014
  67.4039992  99.3129978  71.9750014  66.7069992  99.8589978  71.3040014
  68.0709992 100.0539978  72.4660014  68.2199992  98.3169978  71.3540014
  68.9679992  97.5019978  71.9060014  68.2459992  98.6179978  70.0810014
  69.2869992  98.0279978  69.2810014  69.8569992  98.8409978  68.7840014
  70.0679992  97.5359978  69.8990014  68.6539992  97.0569978  68.2760014
  69.4949992  96.6699978  67.6620014  67.5839992  97.8109978  67.4380014
  66.8869992  98.3639978  68.1030014  68.1259992  98.6089978  66.8870014
  66.8259992  96.9299978  66.6050014  67.0189992  96.7769978  65.0270014
  66.6179992  98.2369978  64.4780014  65.5219992  98.9069978  64.9500014
  65.5629992  98.8439978  66.0580014  65.5829992  99.9559978  64.5880014
  64.1759992  98.3649978  64.3330014  63.9579992  97.3729978  64.7000014
  63.4469992  99.0389978  64.7580014  63.9609992  98.3999978  62.8210014
  62.4519992  98.2689978  62.6480014  62.1049992  97.3179978  63.0230014
  61.9939992  99.0589978  63.2240014  62.0879992  98.3509978  61.6340014
  64.4399992  99.7119978  62.1100014  64.0879992 100.5659978  62.6690014
  65.5179992  99.7589978  62.0620014  63.9759992  99.7069978  61.1350014
  64.6959992  97.2449978  62.1900014  64.4589992  97.2799978  61.1370014
  64.3959992  96.3399978  62.6970014  65.7529992  97.3039978  62.4030014
  68.4519992  96.5479978  64.7830014  66.0459992  95.7419978  64.5610014
  68.0399992  95.9839978  69.0950014  68.8429992  95.0099978  69.3960014
  70.0639992  94.9609978  69.2050014  68.0249992  93.9699978  70.2010014
  67.1879992  93.5579978  69.5980014  67.5159992  94.5749978  70.9820014
  68.8999992  92.8639978  70.7630014  69.6659992  92.5399978  70.0260014
  68.3069992  91.9799978  71.0810014  69.7039992  93.3829978  72.0070014
  70.4029992  94.2319978  71.8480014  70.2279992  92.5079978  72.4490014
  68.7539992  93.6499978  73.1950014  67.8409992  93.0169978  73.1550014
  68.3879992  94.6939978  73.0950014  69.4989992  93.4709978  74.5480014
  70.5749992  93.4609978  74.2710014  69.2869992  92.4599978  74.9580014
  69.3389992  94.4429978  75.6470014  68.3349992  94.1769978  76.0430014
  69.4619992  95.5089978  75.3580014  70.4189992  94.2689978  76.7540014
  71.3919992  94.0839978  76.2510014  70.1449992  93.3989978  77.3870014
  70.5039992  95.3939978  77.7520014  70.8389992  96.3669978  77.3630014
  70.2409992  95.4199978  79.0740014  70.4709992  96.3939978  79.5310014
  69.7249992  94.2389978  79.8830014  69.6319992  94.5519978  80.9440014
  70.3879992  93.3499978  79.8100014  68.3209992  93.7689978  79.4120014
  68.0619992  92.7529978  79.7790014  68.2009992  93.7189978  78.3080014
  67.2669992  94.8159978  79.8080014  66.2879992  94.7069978  79.2920014
  67.5919992  95.8079978  79.4260014  66.8479992  94.8959978  81.2430014
  66.2609992  95.7919978  81.5370014  67.7709992  95.0349978  81.8460014
  66.0559992  93.6339978  81.7290014  66.6509992  92.7019978  81.6150014
  65.2789992  93.4679978  80.9530014  65.3839992  93.7629978  83.1410014
  64.5899992  93.0229978  83.3780014  64.8379992  94.7289978  83.1960014
  66.3299992  93.6099978  84.3210014  67.0679992  94.4359978  84.4030014
  66.8929992  92.6799978  84.0960014  65.6409992  93.5219978  85.7160014
  66.3379992  93.1799978  86.5100014  64.7029992  92.9289978  85.6530014
  65.4039992  94.5489978  86.0670014  44.8449992  73.4489978  83.4990014
  45.9379992  73.3759978  83.6860014  44.5579992  73.0669978  82.4960014
  44.2809992  72.8599978  84.2530014  44.1949992  74.8659978  83.5600014
  43.1089992  74.8199978  83.3280014  44.2859992  75.2129978  84.6110014
  44.8219992  75.9039978  82.5990014  44.3349992  76.8819978  82.8000014
  45.8939992  75.9239978  82.8920014  44.7389992  75.6139978  81.0450014
  45.4159992  76.3299978  80.5320014  45.0669992  74.5639978  80.8910014
  43.2719992  75.7319978  80.6010014  42.7309992  75.0109978  81.2500014
  42.8989992  76.7569978  80.8160014  43.0529992  75.3149978  79.1740014
  42.1279992  75.7819978  78.7720014  43.9179992  75.6899978  78.5870014
  42.9049992  73.7999978  78.8930014  43.9309992  73.4499978  79.1340014
  42.1259992  73.3519978  79.5460014  42.5949992  73.4869978  77.4430014
  41.9959992  74.3399978  77.0570014  43.5119992  73.4909978  76.8160014
  41.9369992  72.1779978  77.2010014  42.4639992  71.4219978  77.8220014
  40.8919992  72.1819978  77.5800014  41.9659992  71.5479978  75.7590014
  41.3869992  70.5999978  75.7510014  41.6119992  72.2689978  74.9920014
  43.3829992  71.2239978  75.3800014  43.9199992  72.1909978  75.2790014
  43.8479992  70.6739978  76.2260014  43.3569992  70.3079978  74.1790014
  44.2839992  69.7219978  73.9970014  42.5939992  69.5369978  74.4180014
  43.0059992  70.9659978  72.8490014  42.1399992  71.6409978  73.0210014
  43.8849992  71.5399978  72.4880014  42.6509992  69.9129978  71.7880014
  43.5069992  69.2149978  71.6700014  41.8519992  69.2679978  72.2120014
  42.1249992  70.3569978  70.3950014  41.5579992  69.5409978  69.8990014
  41.4769992  71.2529978  70.4990014  43.3399992  70.6509978  69.5200014
  44.4569992  70.9179978  69.9320014  42.9229992  70.5419978  68.2810014
  43.7339992  71.0919978  67.2150014  44.8399992  71.0069978  67.2840014
  43.6289992  70.6479978  66.2020014  43.2149992  72.5129978  66.8980014
  42.1939992  72.3719978  66.4830014  44.1299992  73.2969978  65.8920014
  44.4889992  72.5719978  65.1300014  43.6779992  74.1619978  65.3610014
  45.2209992  73.8049978  66.6220014  46.7769992  73.5389978  66.2340014
  46.8139992  73.8829978  64.6570014  46.7899992  75.2229978  64.2480014
  46.3549992  75.9049978  65.0100014  47.7789992  75.4949978  63.8210014
  45.6889992  75.3839978  63.1510014  44.7399992  75.0789978  63.5680014
  45.7709992  76.3929978  62.7760014  45.8359992  74.5009978  61.8670014
  44.6439992  74.7599978  61.0420014  44.7029992  74.0779978  60.2070014
  43.7809992  74.6069978  61.6730014  44.6709992  75.7299978  60.5670014
  47.1359992  74.7529978  61.1530014  47.3369992  75.7779978  60.8790014
  47.9109992  74.2479978  61.7110014  46.9809992  74.3819978  60.1500014
  45.8059992  73.0119978  62.1720014  44.8679992  72.7589978  62.6440014
  46.6339992  72.7019978  62.7930014  45.9329992  72.4339978  61.2680014
  47.6579992  74.5729978  66.8880014  47.0559992  72.0889978  66.4730014
  43.1959992  73.2349978  68.1740014  42.3029992  74.1749978  68.4250014
  41.2839992  74.3809978  67.8810014  42.7439992  74.9649978  69.7450014
  43.1059992  74.1249978  70.3750014  41.8309992  75.4249978  70.1810014
  43.7369992  76.2089978  69.4600014  43.3359992  76.9779978  68.7650014
  44.6199992  75.8879978  68.8680014  44.3299992  76.8009978  70.7740014
  43.5229992  77.1859978  71.4330014  45.0209992  77.6249978  70.4950014
  45.1209992  75.7939978  71.6300014  44.4569992  74.9589978  71.9380014
  45.4489992  76.3139978  72.5550014  46.3799992  75.2139978  70.9990014
  46.9559992  76.0749978  70.5980014  46.2389992  74.5249978  70.1380014
  47.3729992  74.3159978  71.8370014  47.7809992  75.0099978  72.6030014
  48.2199992  74.0019978  71.1910014  46.6099992  73.1239978  72.4710014
  46.2279992  72.6119978  71.5620014  45.6769992  73.4099978  73.0030014
  47.4039992  72.0879978  73.2600014  47.7629992  71.2829978  72.6010014
  47.7599992  71.9579978  74.5640014  48.3179992  71.1129978  74.9910014
  47.2919992  73.0089978  75.5450014  46.7639992  72.3519978  76.2690014
  46.4739992  73.6789978  75.2040014  48.5579992  73.7649978  76.0840014
  49.1209992  74.1589978  75.2110014  49.2389992  73.0519978  76.5970014
  48.2319992  74.9659978  76.9720014  47.6809992  75.8169978  76.5170014
  49.2059992  75.4489978  77.2030014  47.6229992  74.6649978  78.3190014
  46.7669992  73.9799978  78.1360014  47.0969992  75.5929978  78.6320014
  48.6709992  74.1619978  79.3490014  49.3039992  75.0019978  79.7090014
  49.2909992  73.3289978  78.9560014  47.9089992  73.6669978  80.6130014
  47.1759992  74.4609978  80.8730014  48.6719992  73.6269978  81.4190014
  47.1509992  72.3449978  80.4570014  46.3829992  72.5559978  79.6820014
  46.4659992  72.1489978  81.3090014  47.8899992  71.1419978  80.0120014
  48.5209992  71.3149978  79.1140014  47.0779992  70.4139978  79.7980014
  48.5829992  70.7889978  80.8050014  94.2849992  79.5089978  79.7810014
  93.2599992  79.2749978  80.1410014  94.2179992  80.0719978  78.8260014
  94.7359992  80.3039978  80.4120014  95.1989992  78.2759978  79.6460014
  95.4989992  77.6529978  80.5160014  94.7489992  77.6019978  78.8870014
  96.5509992  78.6459978  79.0240014  96.5329992  79.1739978  78.0470014
  97.0409992  79.2859978  79.7880014  97.4119992  77.3169978  78.8690014
  97.3959992  76.7539978  79.8270014  96.7439992  76.7229978  78.2090014
  98.8479992  77.4869978  78.4480014  99.3089992  78.2619978  79.0970014
  99.5419992  76.6689978  78.7360014  99.1689992  78.0969978  77.0730014
  98.7279992  79.1139978  77.1510014 100.2779992  78.1209978  77.0130014
  98.5859992  77.2969978  75.8200014  98.5119992  76.2849978  76.2740014
  97.5529992  77.6909978  75.7110014  99.3229992  77.3829978  74.5300014
 100.3939992  77.1249978  74.6680014  98.8609992  76.5619978  73.9400014
  99.3539992  78.7919978  73.8310014  99.8809992  79.4089978  74.5910014
  99.8399992  78.9829978  72.8510014  98.0729992  79.5919978  73.7070014
  97.6649992  79.6219978  74.7400014  98.3609992  80.6249978  73.4150014
  97.0489992  79.0269978  72.7360014  96.8469992  78.0079978  73.1290014
  96.0909992  79.5619978  72.9130014  97.4329992  78.9969978  71.2840014
  97.5879992  80.0409978  70.9380014  98.4369992  78.5459978  71.1380014
  96.3799992  78.4069978  70.4380014  96.7419992  77.5939978  69.7720014
  95.5529992  77.9669978  71.0360014  95.6389992  79.2059978  69.3690014
  95.2649992  80.1659978  69.7870014  96.3879992  79.5499978  68.6240014
  94.7149992  78.3059978  68.5840014  95.3669992  77.5209978  68.1430014
  94.0019992  77.9059978  69.3360014  93.8999992  79.1069978  67.5650014
  92.8969992  79.7309978  67.8300014  94.4929992  79.0259978  66.4110014
  94.0819992  80.0379978  65.4560014  93.3749992  79.6319978  64.7000014
  93.6369992  81.0149978  65.7410014  95.4289992  80.4419978  64.6910014
  95.0909992  81.1689978  63.9220014  96.1599992  79.2209978  64.0970014
  95.4289992  78.6009978  63.5350014  96.9419992  79.5359978  63.3730014
  96.7349992  78.4979978  65.1510014  97.7049992  77.2849978  64.7840014
  98.9039992  78.1799978  64.1260014  99.8069992  78.8719978  64.9860014
  99.3799992  78.9959978  66.0050014 100.8029992  78.3989978  65.1240014
 100.0869992  80.2279978  64.5240014  99.1909992  80.7969978  64.7250014
 100.8589992  80.5149978  65.2230014 100.6079992  80.3369978  63.1290014
 101.1469992  81.7029978  63.0970014 100.3739992  82.4529978  63.1740014
 101.7489992  81.7379978  63.9930014 101.7479992  81.8019978  62.2050014
 101.7109992  79.3519978  62.9290014 102.5529992  79.6689978  63.5260014
 101.3429992  78.3729978  63.2010014 102.0279992  79.3549978  61.8970014
  99.5109992  80.2039978  62.1040014  99.8049992  80.4269978  61.0890014
  98.7469992  80.9199978  62.3690014  99.2299992  79.1629978  62.1510014
  98.2149992  76.5709978  65.9470014  97.0749992  76.4829978  63.7290014
  96.3369992  80.9999978  65.7060014  97.2799992  81.8259978  65.2050014
  97.5419992  81.9509978  63.9990014  98.1249992  82.2909978  66.3260014
  99.1859992  82.4609978  66.0400014  98.0839992  81.4729978  67.0760014
  97.6549992  83.6639978  66.8180014  97.5859992  84.4219978  66.0090014
  98.5079992  83.9819978  67.4550014  96.3489992  83.8079978  67.6040014
  95.6349992  83.4359978  66.8390014  95.9519992  84.7909978  67.9350014
  96.4039992  83.0329978  68.9400014  97.4089992  83.1579978  69.3960014
  96.4629992  81.9439978  68.7260014  95.1909992  83.2789978  69.8820014
  94.2639992  82.7859978  69.5180014  94.9879992  84.3679978  69.9660014
  95.4249992  82.9089978  71.3660014  95.2519992  81.8279978  71.5580014
  94.6159992  83.4179978  71.9320014  96.8399992  83.2559978  71.9940014
  96.9969992  84.3059978  71.6670014  97.6669992  82.6789978  71.5290014
  96.8459992  83.0669978  73.5160014  95.9279992  82.5879978  73.8850014
  97.8199992  83.2669978  74.3820014  97.6399992  82.9689978  75.4250014
  99.2209992  83.8019978  73.9940014  99.2859992  84.8529978  74.3470014
  99.4199992  83.7849978  72.9020014 100.2889992  82.9029978  74.6710014
 101.2499992  83.3379978  74.3220014 100.1719992  81.8699978  74.2790014
 100.1769992  82.9699978  76.2390014  99.3309992  82.3919978  76.6680014
 100.0999992  83.9449978  76.7660014 101.4339992  82.2609978  76.7650014
 102.3569992  82.8309978  76.5250014 101.5999992  81.2679978  76.2950014
 101.4289992  82.0449978  78.2610014 101.2849992  83.0309978  78.7520014
 102.2219992  81.3589978  78.6280014 100.2269992  81.2229978  78.9720014
 100.1609992  80.1859978  78.5800014  99.2289992  81.6469978  78.7310014
 100.2749992  81.0759978  80.5250014 101.2079992  80.4979978  80.6950014
  99.4989992  80.3759978  80.9030014 100.2739992  82.4199978  81.3690014
 100.9349992  82.1319978  82.2140014  99.2879992  82.5699978  81.8600014
 100.6889992  83.3619978  80.9500014  46.5319992  62.5569978  82.7330014
  46.5439992  63.5909978  83.1400014  47.5199992  62.1369978  83.0190014
  45.6809992  61.9839978  83.1590014  46.5029992  62.5249978  81.2140014
  46.6919992  61.4719978  80.9170014  45.4559992  62.6859978  80.8800014
  47.4339992  63.5169978  80.6300014  47.0809992  64.5149978  80.9660014
  48.4369992  63.3119978  81.0620014  47.4679992  63.4839978  79.0610014
  46.6819992  62.7759978  78.7190014  47.2159992  64.4699978  78.6160014
  48.7869992  63.1109978  78.4080014  49.5189992  63.9209978  78.2040014
  49.4589992  62.4679978  79.0170014  48.6839992  62.2069978  77.1820014
  49.6379992  61.6899978  76.9440014  48.0559992  61.3109978  77.3750014
  48.0359992  62.8049978  75.8990014  48.2439992  62.0629978  75.0990014
  46.9259992  62.7579978  75.9190014  48.5519992  64.1259978  75.3210014
  48.7259992  64.9079978  76.0910014  49.6079992  63.9719978  75.0120014
  47.8279992  64.8109978  74.1660014  46.7279992  64.8309978  74.3240014
  48.1419992  65.8769978  74.1820014  48.0379992  64.1799978  72.7730014
  49.0049992  64.4929978  72.3240014  48.0039992  63.0759978  72.8900014
  46.9279992  64.5499978  71.7220014  47.4029992  64.2709978  70.7580014
  46.0499992  63.8969978  71.9150014  46.5739992  65.9559978  71.6020014
  46.1679992  66.3419978  72.5610014  47.4639992  66.5419978  71.2890014
  45.4019992  66.2689978  70.6780014  45.5259992  65.6559978  69.7590014
  44.4459992  65.8949978  71.1040014  45.5329992  67.7939978  70.2980014
  44.4999992  68.2029978  70.2960014  45.9799992  68.4839978  71.0450014
  46.1489992  68.0369978  68.9090014  45.5449992  67.4589978  68.1780014
  45.8029992  69.0919978  68.8700014  47.6549992  67.8119978  68.8560014
  48.5859992  68.2999978  69.5110014  47.8049992  66.9719978  67.9030014
  49.0289992  66.1989978  67.8330014  49.8189992  66.8809978  67.4520014
  49.3909992  65.8509978  68.8240014  48.8029992  64.9359978  66.8560014
  49.6939992  64.2859978  66.7280014  48.2719992  65.4719978  65.4840014
  49.1029992  66.0559978  65.0350014  48.1619992  64.5809978  64.8300014
  47.0159992  66.2279978  65.4090014  45.6659992  65.4749978  64.9500014
  45.9209992  63.8889978  65.2430014  44.8569992  63.0139978  64.8740014
  44.9249992  62.0439978  65.4120014  43.8649992  63.4409978  65.1360014
  44.7609992  62.6659978  63.4040014  43.8299992  62.1339978  63.2780014
  44.5369992  63.5039978  62.7600014  45.9059992  61.7529978  62.9390014
  45.4869992  61.4239978  61.5300014  44.5319992  60.9199978  61.5080014
  45.3259992  62.2819978  60.8940014  46.0499992  60.6179978  61.0820014
  47.2189992  62.5059978  62.8760014  47.0979992  63.4649978  62.3950014
  47.5799992  62.8459978  63.8350014  47.9519992  61.9219978  62.3390014
  46.0679992  60.5139978  63.8480014  46.5599992  60.8429978  64.7510014
  46.7739992  59.8999978  63.3080014  45.2199992  59.8579978  63.9780014
  44.6359992  65.9119978  65.9280014  45.3319992  65.8189978  63.5050014
  47.8749992  64.0839978  67.5750014  47.7009992  62.8399978  67.1650014
  48.3509992  62.3099978  66.2620014  46.6409992  62.2269978  68.1600014
  45.6009992  62.1879978  67.7710014  46.6129992  62.8529978  69.0770014
  46.9589992  60.8189978  68.4550014  47.9019992  60.8479978  69.0410014
  47.2049992  60.3479978  67.4790014  45.8009992  59.9749978  68.9850014
  46.0089992  58.8839978  69.0130014  44.9269992  60.0149978  68.3000014
  45.3459992  60.5319978  70.3830014  44.2459992  60.3859978  70.3280014
  45.4779992  61.6339978  70.4390014  45.9459992  59.8299978  71.6010014
  46.8939992  60.3299978  71.8920014  46.2779992  58.8249978  71.2630014
  45.0509992  59.9349978  72.8950014  45.6979992  59.5369978  73.7060014
  44.1489992  59.2899978  72.8240014  44.8469992  61.4209978  73.3130014
  44.1699992  61.9019978  72.5750014  45.8109992  61.9709978  73.2590014
  44.2589992  61.3899978  74.7190014  44.9629992  60.8929978  75.4020014
  43.2019992  61.8319978  75.3600014  43.0929992  61.4699978  76.3930014
  41.9579992  62.6259978  74.9730014  40.9619992  62.3219978  75.3610014
  41.8539992  62.6629978  73.8680014  42.1639992  64.1249978  75.3190014
  41.2139992  64.5959978  74.9870014  43.0069992  64.6379978  74.8090014
  42.3779992  64.3799978  76.8490014  42.2339992  63.4309978  77.4080014
  41.5419992  65.0639978  77.1090014  43.7899992  64.8569978  77.3190014
  44.2039992  65.4909978  76.5050014  44.4009992  63.9349978  77.4140014
  43.5949992  65.5959978  78.6760014  43.0779992  66.5769978  78.6080014
  44.6319992  65.9289978  78.8950014  43.0629992  64.7619978  79.8450014
  43.6559992  63.8369978  80.0050014  42.0489992  64.4669978  79.5010014
  43.0319992  65.4199978  81.2420014  42.2729992  64.8239978  81.7940014
  42.7389992  66.4639978  81.0000014  44.2879992  65.4519978  82.1080014
  45.1679992  65.5809978  81.4420014  44.3679992  64.5059978  82.6840014
  44.2719992  66.3239978  82.7970014  61.7489992  48.5039978  79.3080014
  61.3359992  47.5579978  79.7190014  61.4989992  49.3789978  79.9460014
  62.8379992  48.4749978  79.0920014  61.0189992  48.6529978  77.9460014
  61.5519992  49.3439978  77.2580014  61.1599992  47.7059978  77.3820014
  59.5119992  48.8839978  77.9820014  59.2429992  49.0009978  76.9100014
  58.9649992  48.0779978  78.5160014  59.0759992  50.1909978  78.6930014
  59.3619992  50.1459978  79.7650014  59.7519992  50.9479978  78.2430014
  57.6049992  50.6109978  78.4720014  57.0019992  49.6779978  78.4290014
  57.4489992  51.1789978  79.4140014  57.3289992  51.2599978  77.1860014
  57.9749992  52.1589978  77.0910014  57.5459992  50.6249978  76.3000014
  55.8219992  51.6869978  76.8820014  55.2679992  50.7249978  76.9170014
  55.5389992  52.2969978  77.7660014  55.7159992  52.5689978  75.5980014
  56.2799992  53.4929978  75.8470014  56.1369992  51.8629978  74.8500014
  54.2279992  52.5759978  75.1560014  53.9379992  51.5039978  75.1910014
  53.5269992  52.9849978  75.9150014  53.9809992  53.4149978  73.8980014
  52.9299992  53.7589978  73.7920014  54.4839992  54.4049978  73.8900014
  54.4059992  52.6409978  72.6390014  55.5159992  52.6059978  72.6170014
  54.0979992  51.5779978  72.7360014  53.7879992  53.1389978  71.3740014
  52.6769992  53.1139978  71.3940014  54.1299992  54.1899978  71.2650014
  54.0909992  52.3469978  70.2030014  55.1229992  52.3239978  69.7910014
  53.8019992  51.2809978  70.3270014  53.3539992  52.6259978  68.8720014
  52.4019992  52.1739978  69.2240014  53.3039992  53.7329978  68.7990014
  53.8469992  52.0059978  67.5390014  53.7419992  50.9009978  67.4810014
  53.2269992  52.3569978  66.6870014  55.2629992  52.4189978  67.2780014
  55.5629992  53.5359978  66.7820014  56.1019992  51.4589978  67.7110014
  57.4959992  51.7579978  67.5050014  57.7819992  51.7679978  66.4310014
  57.8559992  52.7029978  67.9660014  58.4209992  50.5799978  67.9400014
  59.5039992  50.7959978  67.8190014  58.2529992  49.3319978  67.0230014
  58.6839992  49.6279978  66.0430014  58.7819992  48.4309978  67.4010014
  56.8819992  48.9349978  66.9210014  56.2709992  48.5989978  65.4980014
  56.3929992  49.9659978  64.8160014  55.7259992  50.3209978  63.6420014
  55.3159992  49.4379978  63.1060014  54.8219992  50.8989978  63.9280014
  56.4369992  51.1579978  62.4920014  57.3559992  50.6879978  62.1750014
  55.7679992  51.1579978  61.6450014  56.7779992  52.5829978  62.6310014
  57.1209992  53.1369978  61.2590014  57.1209992  54.2139978  61.1730014
  58.1579992  52.8609978  61.1370014  56.4429992  52.6649978  60.5650014
  55.6409992  53.2809978  63.1830014  55.8349992  54.3249978  63.3830014
  54.8239992  53.0609978  62.5120014  55.4599992  52.8099978  64.1380014
  57.8769992  52.7479978  63.5810014  57.6179992  52.2779978  64.5180014
  58.1729992  53.7739978  63.7410014  58.7809992  52.2339978  63.2900014
  57.1129992  47.5919978  64.8510014  54.8199992  48.2889978  65.6310014
  58.0649992  50.2729978  69.3090014  58.5459992  51.1179978  70.2350014
  59.1629992  52.1129978  70.0080014  58.2549992  50.5799978  71.6380014
  57.5129992  49.7559978  71.5650014  57.8909992  51.5029978  72.1370014
  59.5919992  50.2139978  72.3080014  60.2789992  51.0849978  72.3780014
  60.0729992  49.4279978  71.6880014  59.3889992  49.7269978  73.6830014
  58.7559992  50.3819978  74.3200014  60.4089992  49.7949978  74.1190014
  58.9359992  48.3139978  73.8910014  59.5509992  47.8659978  74.7010014
  59.0039992  47.6199978  73.0260014  57.3909992  48.1289978  74.2330014
  56.9549992  48.4879978  73.2760014  57.1489992  48.8689978  75.0260014
  56.9419992  46.7089978  74.6200014  57.5159992  46.4779978  75.5430014
  57.3249992  45.9609978  73.8940014  55.4369992  46.4199978  74.9700014
  55.4509992  45.4629978  75.5330014  55.0129992  46.2119978  73.9640014
  54.7509992  47.5729978  75.5200014  54.7779992  48.4379978  74.8410014
  54.0689992  47.7049978  76.7110014  53.4079992  48.5839978  76.7410014
  53.8109992  46.6429978  77.7460014  54.1059992  45.6189978  77.4310014
  52.7649992  46.4669978  78.0790014  54.6389992  46.9019978  79.0380014
  55.7339992  47.0349978  78.9000014  54.4599992  46.0349978  79.7090014
  54.2479992  48.1979978  79.7420014  53.1429992  48.2059978  79.8510014
  54.4169992  49.0089978  79.0020014  54.9339992  48.5329978  81.1240014
  54.9689992  49.6289978  81.3040014  56.0249992  48.3359978  81.0500014
  54.3279992  47.8929978  82.2840014  54.4779992  46.7969978  82.1860014
  53.2629992  48.1639978  82.4460014  54.9609992  48.1869978  83.6920014
  56.0039992  47.8079978  83.7420014  54.3019992  47.5759978  84.3460014
  54.8119992  49.6569978  84.1320014  53.7249992  49.8869978  84.1370014
  55.3669992  50.2649978  83.3870014  55.2549992  50.0219978  85.5760014
  56.3349992  49.7919978  85.7010014  54.7289992  49.4519978  86.3720014
  55.2619992  51.1239978  85.7120014  78.6229992  46.5099978  82.6360014
  78.2359992  45.5269978  82.2920014  78.4259992  47.2799978  81.8590014
  78.0739992  46.6659978  83.5890014  80.1299992  46.4919978  82.8710014
  80.3369992  45.8199978  83.7300014  80.6279992  46.1149978  81.9520014
  80.7159992  47.8989978  83.0780014  80.3299992  48.5559978  82.2710014
  80.3219992  48.3089978  84.0330014  82.2599992  48.0779978  83.2670014
  82.3729992  49.0939978  83.7030014  82.6439992  47.3119978  83.9740014
  83.0119992  48.0699978  81.9440014  84.1039992  48.1149978  82.1410014
  82.6999992  47.1079978  81.4830014  82.5799992  49.1789978  81.0060014
  81.5109992  49.0659978  80.7280014  82.5749992  50.0879978  81.6450014
  83.4119992  49.3909978  79.7170014  83.1549992  50.4629978  79.5810014
  84.4829992  49.2809978  79.9930014  82.8769992  48.4839978  78.5420014
  83.1859992  47.4359978  78.7470014  81.7669992  48.4409978  78.5380014
  83.3859992  48.8949978  77.1400014  82.8499992  49.8539978  76.9750014
  84.4899992  49.0159978  77.1770014  82.9709992  47.9089978  75.9770014
  83.3619992  46.9269978  76.3180014  81.8689992  47.7679978  75.9580014
  83.5859992  48.2779978  74.6130014  83.3399992  49.3159978  74.3040014
  84.6689992  48.0309978  74.6340014  82.8909992  47.3419978  73.5370014
  83.1009992  46.2559978  73.6410014  81.7979992  47.3429978  73.7320014
  83.2609992  47.7549978  72.1550014  82.9949992  48.8279978  72.0480014
  84.3709992  47.8029978  72.1810014  82.6949992  46.7799978  71.1590014
  83.0429992  45.7379978  71.3270014  81.6219992  46.6049978  71.3850014
  82.9229992  47.3449978  69.7150014  82.3239992  48.2609978  69.5230014
  84.0149992  47.5489978  69.6750014  82.8079992  46.2509978  68.5520014
  82.5729992  45.0699978  68.8300014  83.1159992  46.7629978  67.4230014
  83.3019992  45.8479978  66.3150014  84.2899992  46.1419978  65.8990014
  83.4449992  44.8019978  66.6610014  82.1089992  45.9949978  65.3230014
  82.2249992  45.2579978  64.5000014  82.0509992  47.4829978  64.6880014
  83.1259992  47.6849978  64.4960014  81.4349992  47.4949978  63.7640014
  81.4609992  48.3059978  65.5720014  81.3489992  49.7839978  65.1640014
  79.9519992  49.8999978  64.3880014  78.7509992  49.4779978  65.0900014
  79.0089992  49.0289978  66.0730014  78.0719992  50.3569978  65.0570014
  77.9229992  48.3889978  64.2710014  78.3829992  47.4189978  64.3880014
  76.9629992  48.4659978  64.7600014  77.7599992  48.7319978  62.7630014
  78.9789992  48.3709978  61.8730014  79.8449992  48.8729978  62.2770014
  79.1349992  47.3069978  61.9730014  78.7469992  48.7399978  60.8850014
  76.5979992  47.9009978  62.2620014  76.3589992  48.1039978  61.2280014
  76.8509992  46.8519978  62.2170014  75.7939992  48.1669978  62.9320014
  77.3569992  50.1429978  62.4990014  76.3329992  50.2699978  62.8180014
  77.5449992  50.3959978  61.4660014  77.8739992  50.8379978  63.1440014
  81.2009992  50.5249978  66.4020014  82.3999992  50.2459978  64.2220014
  80.9429992  45.6269978  66.0670014  79.7829992  45.7569978  65.4230014
  79.6169992  45.8379978  64.2150014  78.7309992  45.6009978  66.5210014
  78.6919992  44.5359978  66.8340014  77.7929992  45.9919978  66.0730014
  79.1619992  46.3399978  67.7730014  79.4439992  47.3699978  67.4680014
  80.0589992  45.8929978  68.2530014  77.9719992  46.4809978  68.8050014
  77.0039992  46.6599978  68.2890014  78.0759992  47.4309978  69.3700014
  77.8149992  45.3289978  69.6670014  78.6379992  45.1939978  70.4000014
  77.8969992  44.4639978  68.9750014  76.5039992  45.1389978  70.5860014
  76.5879992  44.1529978  71.0900014  75.6269992  45.1099978  69.9040014
  76.1309992  46.2589978  71.6160014  75.0879992  46.5989978  71.4420014
  76.7279992  47.1869978  71.4840014  76.3639992  45.9299978  73.1080014
  75.6989992  45.0629978  73.3080014  75.9689992  46.8189978  73.6460014
  77.8179992  45.6329978  73.5190014  78.2379992  44.7929978  72.9470014
  78.5969992  46.2689978  74.3430014  79.5739992  45.8279978  74.5910014
  78.1249992  47.5039978  75.1740014  77.0649992  47.2719978  75.4110014
  78.1339992  48.4659978  74.6190014  78.8629992  47.6439978  76.4710014
  79.9459992  47.8189978  76.3010014  78.8459992  46.6759978  77.0160014
  78.2219992  48.6419978  77.5000014  78.3689992  49.5979978  76.9520014
  78.8199992  48.5159978  78.4270014  76.7949992  48.3259978  77.9740014
  76.6289992  47.2579978  78.2320014  76.1449992  48.3979978  77.0760014
  76.2579992  49.2999978  79.0670014  75.1519992  49.2279978  79.1360014
  76.5369992  50.3199978  78.7280014  76.7239992  49.1519978  80.5390014
  77.8309992  49.1079978  80.6210014  76.2239992  48.1689978  80.6750014
  76.0869992  50.0819978  81.6170014  74.9919992  49.9019978  81.5710014
  76.2179992  51.1159978  81.2320014  76.5619992  49.9309978  83.1000014
  75.9099992  50.5919978  83.7100014  77.6319992  50.2179978  83.1830014
  76.4039992  48.8729978  83.4000014  50.8699992  98.3879978  81.4360014
  51.5369992  99.2399978  81.6880014  51.4139992  97.7179978  80.7370014
  50.5259992  97.9039978  82.3760014  49.6219992  98.9429978  80.6480014
  48.9249992  98.0839978  80.5480014  49.1979992  99.6459978  81.3970014
  49.7629992  99.6219978  79.2810014  48.7629992  99.9719978  78.9460014
  50.4469992 100.4809978  79.4470014  50.2339992  98.7719978  78.1250014
  51.2459992  98.3259978  78.2340014  49.5859992  97.8709978  78.1880014
  49.9569992  99.3789978  76.7680014  48.9519992  99.8429978  76.6710014
  50.6829992 100.2189978  76.7320014  50.2329992  98.4549978  75.6190014
  49.6239992  97.5279978  75.6870014  49.9069992  98.9589978  74.6840014
  51.7479992  98.1529978  75.5130014  52.3909992  98.8139978  76.1320014
  52.0529992  97.2519978  76.0870014  52.2969992  97.9929978  74.0800014
  53.3559992  97.6629978  74.1420014  51.6169992  97.2269978  73.6510014
  52.2309992  99.1749978  73.0790014  51.2089992  99.6069978  73.0150014
  52.9769992  99.9649978  73.3110014  52.6079992  98.7799978  71.6200014
  52.7239992  99.7109978  71.0240014  53.6619992  98.4299978  71.5990014
  51.6509992  97.7609978  70.9950014  51.5539992  96.8359978  71.6020014
  50.6309992  98.1989978  70.9560014  52.0789992  97.3559978  69.5080014
  51.8909992  98.2729978  68.9100014  53.1549992  97.0929978  69.4320014
  51.2089992  96.2879978  68.8210014  51.7039992  96.0839978  67.8470014
  51.1589992  95.2899978  69.3050014  49.8439992  96.9019978  68.5520014
  49.2479992  96.8479978  69.4880014  49.8649992  97.9679978  68.2410014
  49.1129992  96.1619978  67.4610014  49.4379992  96.3919978  66.4240014
  49.1979992  95.0609978  67.5800014  47.6819992  96.4409978  67.5390014
  46.8529992  95.6579978  67.9670014  47.4389992  97.6049978  66.9700014
  46.0529992  98.0709978  67.1190014  45.4439992  97.4019978  66.4730014
  45.6219992  97.9899978  68.1400014  45.9289992  99.5009978  66.5780014
  44.8979992  99.7979978  66.8650014  45.9989992  99.6249978  65.0100014
  45.3179992  98.8449978  64.6070014  45.6159992 100.6249978  64.7150014
  47.3249992  99.5299978  64.5050014  47.7809992  98.5819978  63.3260014
  49.1239992  99.3229978  62.8840014  49.2319992 100.7729978  63.1250014
  49.8349992 101.1759978  62.2830014  48.2319992 101.2579978  63.1030014
  49.9489992 101.0609978  64.4290014  49.9449992 102.1409978  64.3960014
  49.2069992 100.8889978  65.1940014  51.1989992 100.3269978  64.9080014
  52.3129992 100.5939978  63.8660014  53.2869992 100.3249978  64.2460014
  52.2729992  99.9169978  63.0260014  52.2899992 101.6399978  63.5950014
  51.7099992 100.9059978  66.1870014  52.6239992 100.3769978  66.4130014
  51.9559992 101.9479978  66.0430014  50.9759992 100.7129978  66.9550014
  51.0409992  98.8229978  65.1430014  51.9949992  98.4079978  65.4330014
  50.6669992  98.2799978  64.2880014  50.3779992  98.7879978  65.9950014
  48.1569992  97.2519978  63.8630014  46.7859992  98.7259978  62.2700014
  46.9069992 100.3439978  67.1990014  46.5429992 101.6069978  67.3630014
  45.4529992 102.0819978  67.0560014  47.8419992 102.4379978  67.5630014
  47.5129992 103.4709978  67.8080014  48.5259992 102.3499978  66.6930014
  48.5879992 101.9329978  68.8120014  49.5319992 102.5119978  68.8970014
  48.9359992 100.8789978  68.7730014  47.8609992 102.2119978  70.0970014
  46.9299992 101.6049978  70.1070014  47.4659992 103.2489978  70.0480014
  48.6489992 102.0769978  71.3950014  49.5709992 102.6929978  71.4570014
  48.9009992 100.9959978  71.4560014  47.7449992 102.4659978  72.6580014
  47.4929992 103.5319978  72.4730014  48.2549992 102.4829978  73.6450014
  46.4829992 101.7019978  72.8050014  46.6879992 100.6369978  72.5630014
  45.8369992 102.0529978  71.9720014  45.6939992 101.9169978  74.1290014
  45.2219992 102.9209978  74.1740014  46.3119992 102.1359978  75.0250014
  44.5659992 100.8869978  74.5000014  43.6329992 100.9649978  73.9220014
  44.5369992 100.0079978  75.6070014  43.6819992  99.3229978  75.7030014
  45.5349992  99.7879978  76.6830014  45.4719992 100.7149978  77.2930014
  46.5889992  99.6099978  76.3780014  45.1419992  98.5989978  77.6510014
  45.2019992  97.6559978  77.0670014  44.0819992  98.7019978  77.9670014
  46.2439992  98.5519978  78.7540014  46.4099992  99.4879978  79.3300014
  47.1999992  98.2749978  78.2620014  45.9059992  97.5329978  79.8890014
  46.6159992  97.8139978  80.6960014  46.0969992  96.4869978  79.5670014
  44.4849992  97.6289978  80.5290014  44.4429992  96.8769978  81.3460014
  43.6769992  97.2759978  79.8530014  44.3139992  99.0289978  81.2090014
  44.1499992  99.7749978  80.4020014  45.3199992  99.3259978  81.5740014
  43.3869992  99.0559978  82.3880014  43.6149992  99.9509978  83.0050014
  43.6769992  98.2379978  83.0820014  41.9559992  98.9349978  82.0010014
  41.8599992  98.1279978  81.2440014  41.6909992  99.9189978  81.5610014
  41.2719992  98.7469978  82.8560014  96.7939992  90.2249978  82.1600014
  96.2279992  90.4679978  83.0850014  97.8749992  90.4249978  82.3250014
  96.7879992  89.1379978  81.9320014  96.2909992  91.0689978  80.9750014
  96.7519992  90.7149978  80.0280014  95.1939992  91.0629978  80.7980014
  96.7129992  92.6099978  80.9070014  96.1739992  93.1029978  81.7430014
  97.8159992  92.6199978  81.0440014  96.3919992  93.3429978  79.5640014
  97.1589992  94.1469978  79.5440014  96.6109992  92.5359978  78.8320014
  94.9579992  93.8769978  79.4560014  94.2119992  93.0589978  79.3760014
  94.6859992  94.4729978  80.3530014  94.7349992  94.7179978  78.2680014
  94.4299992  95.7309978  78.6050014  95.6849992  94.8979978  77.7200014
  93.6229992  94.1569978  77.3110014  92.7379992  93.8699978  77.9190014
  93.3109992  94.9149978  76.5610014  93.9949992  92.9339978  76.5900014
  94.5229992  92.2359978  77.2730014  93.1119992  92.5089978  76.0660014
  95.0579992  93.1359978  75.4520014  95.9609992  93.6439978  75.8530014
  95.4459992  92.1319978  75.1780014  94.3819992  93.9259978  74.3360014
  93.4469992  93.4109978  74.0290014  94.1049992  94.9689978  74.6000014
  95.3449992  93.9789978  73.0750014  96.2759992  94.4669978  73.4340014
  95.5839992  92.9369978  72.7740014  94.8469992  94.8079978  71.9030014
  93.8639992  94.4119978  71.5690014  94.6209992  95.8249978  72.2920014
  95.7049992  94.7629978  70.6520014  95.4379992  95.4419978  69.8140014
  96.6659992  95.2549978  70.9140014  95.9489992  93.3599978  70.0370014
  96.6729992  93.4809978  69.2030014  96.4149992  92.7049978  70.8040014
  94.7209992  92.7759978  69.4070014  93.7939992  93.1219978  69.9120014
  94.7099992  93.1369978  68.3560014  94.7549992  91.2129978  69.4480014
  94.5849992  90.5339978  70.3990014  95.1659992  90.8689978  68.2830014
  95.1399992  89.4819978  67.9880014  96.1879992  89.1379978  68.1210014
  94.4829992  88.8809978  68.6520014  94.6729992  89.4149978  66.4610014
  94.7719992  88.3819978  66.0660014  95.5489992  90.3219978  65.4910014
  96.0619992  91.1489978  66.0260014  96.3309992  89.6699978  65.0470014
  94.7709992  91.0249978  64.5060014  95.0669992  91.4999978  63.1170014
  93.8569992  92.5859978  62.9600014  92.5079992  92.2169978  63.2510014
  91.8339992  92.7039978  62.5130014  92.3489992  91.1249978  63.1250014
  92.0029992  92.5769978  64.5920014  91.0039992  92.1959978  64.7450014
  92.6089992  91.9779978  65.2550014  91.9739992  94.0019978  65.0460014
  93.4099992  94.4889978  65.1400014  93.4049992  95.4179978  65.6910014
  93.8579992  93.6809978  65.7000014  93.8749992  94.5859978  64.1700014
  91.2989992  94.9599978  64.1360014  90.2469992  94.9469978  64.3800014
  91.5219992  95.9689978  64.4510014  91.4759992  94.8349978  63.0780014
  91.4439992  94.0539978  66.5080014  91.5069992  95.0709978  66.8650014
  92.0139992  93.4029978  67.1540014  90.3969992  93.7929978  66.4580014
  96.3839992  92.1099978  63.1400014  94.7459992  90.4899978  62.1100014
  93.3289992  89.8839978  66.3450014  92.4169992  89.1519978  66.9710014
  92.5259992  87.9729978  67.2290014  91.1119992  89.8759978  67.2150014
  90.2479992  89.3689978  66.7360014  91.0819992  90.8819978  66.7440014
  90.7929992  89.9919978  68.6930014  91.5779992  89.4349978  69.2470014
  89.8279992  89.5299978  68.9910014  90.8769992  91.4299978  69.1860014
  90.2539992  92.0279978  68.4880014  91.8849992  91.8889978  69.0990014
  90.4379992  91.7719978  70.5910014  89.4949992  91.2229978  70.7990014
  90.1039992  92.8279978  70.6840014  91.5119992  91.5129978  71.6900014
  92.3549992  92.1539978  71.3540014  91.9499992  90.4929978  71.7190014
  90.9939992  91.8719978  73.1610014  90.5919992  92.9019978  73.0560014
  91.7629992  91.7759978  73.9580014  89.8239992  91.0529978  73.6880014
  88.9509992  91.2029978  73.0170014  89.3799992  91.4949978  74.6050014
  89.9409992  89.5589978  73.7750014  89.6379992  88.9499978  72.9100014
  90.3009992  88.8239978  74.8520014  90.2289992  87.7359978  74.7050014
  90.7469992  89.2939978  76.2500014  89.8859992  89.3869978  76.9460014
  91.1229992  90.3259978  76.0800014  91.8349992  88.3679978  76.9300014
  92.8319992  88.7569978  76.6310014  91.7899992  87.3379978  76.5180014
  91.8059992  88.5019978  78.4420014  92.4989992  87.7239978  78.8300014
  90.7899992  88.2249978  78.7950014  92.0359992  89.9569978  78.9960014
  91.2439992  90.6319978  78.6080014  92.9699992  90.3329978  78.5290014
  92.3239992  89.8599978  80.5500014  92.4529992  90.8859978  80.9570014
  93.2249992  89.2459978  80.7620014  91.1419992  89.3589978  81.4640014
  91.2929992  89.4699978  82.5590014  90.8689992  88.3339978  81.1350014
  89.8879992  90.2179978  81.3150014  89.0819992  89.7599978  81.9280014
  89.5149992  90.0269978  80.2860014  89.9559992  91.7549978  81.4570014
  90.1289992  91.9759978  82.5320014  88.9959992  92.2149978  81.1360014
  90.7679992  92.3179978  80.9490014  63.6049992  45.4879978  83.3860014
  62.5779992  45.2679978  83.7480014  64.2179992  45.7829978  84.2650014
  64.0699992  44.6039978  82.8990014  63.6759992  46.6939978  82.3630014
  63.1739992  47.5469978  82.8670014  64.7009992  46.8989978  81.9850014
  62.7199992  46.5589978  81.1440014  61.6519992  46.4749978  81.4390014
  62.7019992  47.3959978  80.4140014  63.0379992  45.4529978  80.2030014
  63.6359992  44.6529978  80.6900014  62.1309992  44.8829978  79.9090014
  63.7759992  45.9159978  78.9600014  63.0729992  46.4989978  78.3280014
  64.5699992  46.6089978  79.3110014  64.3749992  44.8719978  78.0760014
  65.1809992  44.2629978  78.5400014  63.5429992  44.1879978  77.8060014
  64.9339992  45.4489978  76.7700014  64.1319992  45.8919978  76.1420014
  65.6589992  46.2429978  77.0500014  65.7209992  44.4359978  75.9490014
  66.4999992  43.9319978  76.5610014  65.0099992  43.6639978  75.5850014
  66.3069992  45.1899978  74.8260014  65.3809992  45.4249978  74.2590014
  66.7999992  46.1379978  75.1310014  67.3019992  44.4609978  73.8340014
  68.2819992  44.3509978  74.3460014  66.9009992  43.4359978  73.6790014
  67.3599992  45.1599978  72.5260014  67.8869992  44.4599978  71.8430014
  66.3089992  45.2109978  72.1710014  67.9339992  46.6209978  72.6510014
  67.2419992  47.2749978  73.2230014  68.8799992  46.5229978  73.2250014
  68.1859992  47.2199978  71.2300014  69.0199992  46.7189978  70.6940014
  67.3839992  46.9359978  70.5150014  68.3439992  48.7559978  71.3600014
  67.4259992  49.3359978  71.5950014  69.0889992  48.9239978  72.1680014
  69.1989992  49.3539978  70.2160014  69.5559992  50.3899978  70.4030014
  70.0829992  48.6859978  70.1480014  68.3689992  49.2819978  68.9690014
  67.5579992  50.1149978  68.6770014  68.6389992  48.2209978  68.2520014
  68.3169992  48.3449978  66.8580014  67.6079992  49.1619978  66.6060014
  69.2899992  48.4739978  66.3370014  67.8329992  46.9329978  66.3440014
  68.5109992  46.2459978  66.8940014  68.0569992  46.7149978  64.8640014
  69.0569992  47.0459978  64.5110014  67.9689992  45.6429978  64.5880014
  67.0539992  47.4759978  64.2690014  66.0299992  47.0889978  63.1620014
  65.0459992  48.3609978  63.0540014  64.8059992  49.1439978  64.2480014
  65.7239992  49.3919978  64.8230014  64.3759992  50.0589978  63.7870014
  63.8889992  48.4829978  65.2160014  64.4269992  47.6119978  65.5590014
  63.7229992  49.1729978  66.0300014  62.4469992  48.1709978  64.8330014
  62.4179992  47.0599978  63.7280014  62.9919992  47.3619978  62.8640014
  62.6349992  46.1059978  64.1840014  61.3859992  47.0629978  63.4100014
  61.6549992  47.5729978  66.0160014  61.3299992  48.2949978  66.7500014
  60.8449992  46.9819978  65.6130014  62.2749992  46.8039978  66.4520014
  61.6379992  49.3369978  64.4050014  60.6149992  49.0579978  64.2020014
  62.1249992  49.8309978  63.5770014  61.4479992  49.9309978  65.2870014
  66.8919992  46.9859978  61.9740014  65.2719992  45.9119978  63.6000014
  66.4459992  46.7439978  66.7500014  65.9619992  45.5379978  66.5800014
  66.6399992  44.5649978  66.1790014  64.4379992  45.4609978  66.9150014
  64.0639992  44.6079978  66.3110014  63.8629992  46.3369978  66.5450014
  64.1269992  45.1159978  68.3960014  64.6229992  44.1349978  68.5600014
  63.0209992  45.0369978  68.4560014  64.8019992  46.0859978  69.3440014
  65.8969992  46.1169978  69.1540014  64.5269992  45.7439978  70.3640014
  64.2149992  47.5669978  69.1870014  63.1269992  47.5589978  68.9640014
  64.6589992  48.1279978  68.3370014  64.3879992  48.4809978  70.4070014
  65.4649992  48.3479978  70.6460014  63.8349992  48.1219978  71.3010014
  63.8879992  49.9599978  70.2480014  62.8639992  49.9939978  69.8180014
  64.5659992  50.4979978  69.5520014  63.7859992  50.6549978  71.5620014
  63.0809992  50.0929978  72.2110014  63.4099992  51.6799978  71.3530014
  65.1459992  50.7109978  72.1780014  65.9409992  51.1949978  71.5920014
  65.5599992  50.2519978  73.3960014  66.6019992  50.5089978  73.6390014
  64.8129992  49.5759978  74.5210014  64.4609992  48.5719978  74.1990014
  63.9079992  50.1549978  74.8040014  65.6669992  49.5039978  75.7990014
  66.2929992  50.3979978  76.0060014  66.2659992  48.5689978  75.8300014
  64.7579992  49.2569978  77.0320014  64.0999992  48.4109978  76.7390014
  64.0129992  50.0579978  77.2250014  65.5259992  48.9749978  78.2760014
  66.1919992  48.0879978  78.2060014  64.6749992  48.7089978  78.9380014
  66.4299992  50.1049978  78.7490014  67.1899992  50.2779978  77.9570014
  66.9059992  49.5979978  79.6160014  65.6639992  51.3879978  79.2160014
  65.2419992  51.7969978  78.2740014  66.4699992  52.1159978  79.4500014
  64.6809992  51.2769978  80.3800014  63.8569992  50.5339978  80.3180014
  64.0179992  52.1609978  80.2700014  65.3089992  50.9929978  81.7660014
  65.4209992  49.8889978  81.8340014  64.6269992  51.3359978  82.5730014
  66.2289992  51.5999978  81.8980014 101.1899992  72.3299978  82.0690014
 101.5099992  73.3189978  81.6780014 101.5879992  72.1639978  83.0940014
 100.0919992  72.1629978  82.0480014 101.9999992  71.4449978  81.1430014
 101.8539992  70.4179978  81.5400014 101.4879992  71.3849978  80.1590014
 103.5029992  71.7739978  81.0320014 103.5269992  72.8639978  80.8160014
 103.9749992  71.6399978  82.0280014 104.1609992  71.1739978  79.8060014
 104.2589992  70.0719978  79.7100014 103.4379992  71.5409978  79.0470014
 105.5049992  71.7819978  79.3280014 105.5719992  72.8879978  79.4030014
 106.2959992  71.3699978  79.9910014 105.8909992  71.3479978  77.9480014
 106.4349992  70.3789978  77.9600014 105.0179992  71.3599978  77.2600014
 106.9159992  72.4429978  77.4930014 106.5569992  73.4629978  77.7450014
 107.8509992  72.1979978  78.0400014 107.1949992  72.2789978  75.9860014
 106.3239992  72.7059978  75.4440014 108.0809992  72.9049978  75.7430014
 107.5719992  70.8229978  75.6210014 108.2659992  70.4059978  76.3810014
 106.6269992  70.2389978  75.6330014 107.8859992  70.6489978  74.1530014
 108.7829992  71.2469978  73.8850014 107.9079992  69.5549978  73.9590014
 106.7929992  71.2879978  73.2420014 105.7909992  70.8599978  73.4600014
 106.7129992  72.3939978  73.3190014 107.0479992  70.8979978  71.7470014
 107.3329992  69.8289978  71.8510014 106.0719992  70.9239978  71.2180014
 108.1009992  71.5719978  70.9330014 107.9379992  72.6669978  71.0230014
 109.0879992  71.2009978  71.2840014 107.9969992  71.0239978  69.4920014
 108.8999992  71.4589978  69.0130014 108.2809992  69.9509978  69.4400014
 106.7449992  71.0669978  68.6860014 106.0479992  70.3119978  69.1080014
 106.3319992  72.0979978  68.6470014 107.1679992  70.6269978  67.2950014
 107.5619992  71.3909978  66.4660014 107.2369992  69.2829978  67.2630014
 107.4719992  68.6799978  65.9510014 107.7209992  69.4169978  65.1590014
 108.2899992  67.9419978  66.0950014 106.1519992  67.8859978  65.4550014
 106.6199992  67.3279978  64.6160014 105.1189992  68.8529978  64.9390014
 105.6639992  69.7279978  64.5230014 104.5519992  68.4149978  64.0900014
 104.2819992  69.2069978  66.0750014 102.9749992  70.1889978  65.8520014
 103.2129992  70.7629978  64.4560014 103.0829992  72.1399978  64.3450014
 102.0349992  72.3699978  64.6320014 103.7619992  72.8089978  64.9160014
 103.3539992  72.5959978  62.9230014 102.5569992  72.3079978  62.2540014
 103.2569992  73.6709978  62.9200014 104.6779992  72.1989978  62.1360014
 104.5159992  70.7339978  61.8350014 105.3719992  70.4049978  61.2640014
 104.4309992  70.2729978  62.8080014 103.5429992  70.6629978  61.3720014
 104.8639992  73.1359978  61.0120014 104.6369992  74.1489978  61.3100014
 105.9029992  73.2599978  60.7450014 104.1859992  72.8849978  60.2100014
 105.7999992  72.4209978  63.1010014 105.8609992  71.6469978  63.8510014
 105.7169992  73.3689978  63.6120014 106.7729992  72.5439978  62.6500014
 101.7309992  69.3959978  65.8350014 102.8589992  71.2019978  66.9360014
 105.7789992  66.9449978  66.5240014 104.7269992  66.1409978  66.3060014
 104.0729992  66.1749978  65.2890014 104.3629992  65.3719978  67.5560014
 105.1519992  64.6069978  67.7200014 103.3679992  64.9209978  67.3510014
 104.3819992  66.2899978  68.8060014 103.9069992  67.2639978  68.5650014
 105.4389992  66.4939978  69.0810014 103.6939992  65.7049978  70.0090014
 104.1539992  64.7519978  70.3480014 102.6369992  65.5069978  69.7290014
 103.5949992  66.6659978  71.2120014 103.4589992  66.0509978  72.1270014
 102.6939992  67.3059978  71.1020014 104.8199992  67.4109978  71.5050014
 104.9989992  68.2809978  70.8390014 105.6699992  66.7399978  71.2600014
 104.9309992  67.8759978  72.9510014 105.9089992  68.3769978  73.1120014
 104.8849992  66.9469978  73.5590014 103.9239992  68.9439978  73.4750014
 102.8909992  68.5899978  73.2680014 104.0219992  69.8869978  72.8960014
 103.9709992  69.2779978  74.9300014 103.8159992  70.3409978  75.1670014
 104.0769992  68.5799978  76.0850014 104.1909992  69.1849978  76.9960014
 104.1109992  67.0779978  76.4270014 105.0899992  66.7699978  76.8520014
 104.0459992  66.6339978  75.4110014 103.0179992  66.4749978  77.2860014
 102.9839992  65.3699978  77.1820014 102.1099992  66.8109978  76.7410014
 103.2399992  66.6549978  78.7800014 103.2769992  67.7339978  79.0430014
 104.2319992  66.1559978  78.8180014 102.0699992  65.9469978  79.5500014
 102.0469992  64.8709978  79.2740014 101.1379992  66.3099978  79.0650014
 102.1109992  66.3339978  81.0230014 101.2229992  65.8579978  81.4890014
 101.9779992  67.4299978  81.1530014 103.2449992  65.7939978  81.8560014
 104.2259992  66.1509978  81.4760014 103.2569992  64.6869978  81.7580014
 103.0629992  66.1029978  83.3630014 103.7489992  65.4189978  83.9080014
 102.0389992  65.9799978  83.7760014 103.3949992  67.5019978  83.8260014
 104.4799992  67.6889978  83.6760014 103.2519992  67.5689978  84.9250014
 102.8449992  68.2139978  83.1730014  93.4199992  55.0309978  81.9220014
  94.4879992  54.7999978  82.1200014  93.1949992  56.0429978  82.3230014
  93.3499992  55.0809978  80.8150014  92.3069992  54.0889978  82.4300014
  92.3729992  54.1289978  83.5390014  91.2889992  54.4869978  82.2330014
  92.4169992  52.6299978  81.8410014  92.2779992  52.6819978  80.7400014
  93.4919992  52.3899978  81.9840014  91.4249992  51.6599978  82.4210014
  91.1929992  52.0359978  83.4400014  90.4189992  51.6399978  81.9500014
  91.9359992  50.1949978  82.6300014  92.7389992  50.1289978  83.3950014
  91.1019992  49.5739978  83.0210014  92.2969992  49.3949978  81.3800014
  93.2429992  49.7839978  80.9480014  92.4879992  48.3419978  81.6800014
  91.1619992  49.3279978  80.4080014  90.3399992  48.9639978  81.0610014
  90.8799992  50.3249978  80.0070014  91.2919992  48.4489978  79.0950014
  91.3479992  47.3659978  79.3390014  90.4039992  48.4959978  78.4290014
  92.5339992  48.7309978  78.1670014  93.3609992  48.4329978  78.8470014
  92.5039992  48.0229978  77.3120014  92.6439992  50.1519978  77.6800014
  92.6649992  50.9039978  78.4980014  93.6029992  50.2769978  77.1330014
  91.6019992  50.5869978  76.6460014  91.4809992  49.7479978  75.9280014
  90.6339992  50.6799978  77.1850014  91.8799992  51.9019978  75.9590014
  92.1549992  52.6769978  76.7050014  92.7819992  51.7829978  75.3210014
  90.7019992  52.4469978  75.1240014  90.2729992  51.6509978  74.4790014
  89.9399992  53.0069978  75.7070014  91.1719992  53.5379978  74.2320014
  90.3499992  54.2379978  73.9690014  91.9429992  54.1619978  74.7330014
  91.8549992  53.0359978  72.9690014  92.8159992  52.5329978  73.2080014
  91.1279992  52.2869978  72.5880014  92.1489992  54.1379978  71.9730014
  92.1769992  55.3539978  72.1720014  92.3579992  53.5359978  70.7510014
  92.5929992  54.3859978  69.6140014  91.6419992  54.8739978  69.3110014
  93.3579992  55.1219978  69.9430014  93.0849992  53.6519978  68.2760014
  93.3059992  54.3459978  67.4370014  91.9559992  52.7989978  67.7000014
  91.7419992  52.0529978  68.4950014  90.9809992  53.3029978  67.5250014
  92.4929992  52.0459978  66.5850014  92.3959992  52.2499978  65.0800014
  93.7899992  51.6569978  64.6110014  94.0599992  50.3989978  65.0460014
  94.4409992  50.4589978  66.0880014  93.1389992  49.7799978  65.0930014
  95.1509992  49.7189978  64.1720014  95.9829992  50.3899978  64.0200014
  95.5229992  48.8739978  64.7320014  94.6949992  49.3689978  62.7850014
  94.2259992  50.5889978  62.0000014  94.1669992  50.2889978  60.9640014
  93.2199992  50.9459978  62.1630014  94.9949992  51.3449978  61.9420014
  95.8439992  48.7249978  62.0110014  95.6099992  48.5649978  60.9690014
  96.6369992  49.4579978  62.0020014  96.1589992  47.8289978  62.5250014
  93.5549992  48.3909978  62.9180014  93.2359992  48.1789978  61.9080014
  92.7609992  48.8239978  63.5100014  93.9489992  47.4629978  63.3060014
  91.2929992  51.3759978  64.4800014  92.3699992  53.7139978  64.8170014
  94.2199992  52.8129978  68.5730014  95.3949992  53.4049978  68.8590014
  95.5819992  54.5949978  68.8540014  96.3709992  52.3789978  69.3540014
  97.3879992  52.8179978  69.4400014  96.4369992  51.4919978  68.6880014
  95.7889992  51.9539978  70.6690014  96.2649992  50.9799978  70.9110014
  94.6809992  51.8669978  70.6690014  96.2139992  52.9999978  71.8080014
  95.5229992  53.8459978  71.6030014  97.2679992  53.2879978  71.6070014
  95.9229992  52.5609978  73.3010014  96.7849992  51.9619978  73.6650014
  94.9739992  51.9859978  73.2480014  95.6809992  53.7469978  74.1500014
  94.6189992  53.9619978  73.9040014  96.3689992  54.5559978  73.8240014
  95.6529992  53.5439978  75.6680014  94.8859992  52.7459978  75.7600014
  95.2299992  54.4519978  76.1490014  96.9519992  53.3369978  76.4010014
  97.7029992  54.1079978  76.1270014  97.1269992  52.3469978  75.9260014
  96.7749992  53.2049978  77.9040014  96.6639992  54.1959978  78.3690014
  96.9379992  52.1459978  78.7560014  96.8929992  52.2829978  79.8470014
  97.4019992  50.7409978  78.3910014  98.4769992  50.6539978  78.6590014
  97.3979992  50.5509978  77.2970014  96.5219992  49.5689978  78.8490014
  97.0689992  48.6359978  78.5970014  95.5729992  49.4599978  78.2810014
  96.1869992  49.5369978  80.3320014  95.3469992  48.8259978  80.4810014
  95.6689992  50.4969978  80.5410014  97.2809992  49.2409978  81.3260014
  98.1319992  49.9549978  81.3180014  97.7639992  48.2699978  81.0840014
  96.8219992  49.2299978  82.8780014  97.7419992  49.1899978  83.5000014
  96.2549992  48.2899978  83.0480014  95.9069992  50.3919978  83.2660014
  95.7279992  50.2409978  84.3520014  94.8819992  50.3019978  82.8460014
  96.4509992  51.8099978  83.0520014  95.8439992  52.5309978  83.6400014
  96.5329992  51.9889978  81.9590014  97.8379992  52.0559978  83.5980014
  97.9699992  51.4369978  84.5110014  98.0089992  53.0969978  83.9470014
  98.7009992  51.7679978  82.9590014  43.2449992  58.2869978  81.0530014
  44.3119992  58.5239978  80.8550014  43.1339992  57.7319978  82.0090014
  42.7249992  59.2509978  81.2390014  42.7319992  57.4889978  79.8740014
  41.6349992  57.3379978  79.7870014  42.9699992  58.0429978  78.9400014
  43.2599992  56.1189978  79.9340014  44.3579992  56.2209978  79.8030014
  43.1189992  55.6429978  80.9290014  42.7629992  55.1869978  78.7220014
  43.2849992  54.2189978  78.8840014  41.6579992  55.0749978  78.7020014
  43.2449992  55.6349978  77.3200014  42.4139992  56.1929978  76.8370014
  44.1469992  56.2689978  77.4560014  43.5649992  54.4679978  76.3110014
  42.5659992  54.0179978  76.1260014  43.8119992  55.0109978  75.3740014
  44.6679992  53.4509978  76.5380014  45.6239992  53.9359978  76.8280014
  44.2789992  52.7439978  77.3020014  45.0119992  52.6959978  75.2580014
  44.1769992  52.0019978  75.0240014  45.0129992  53.4449978  74.4380014
  46.3909992  51.9609978  75.2620014  47.0909992  52.6639978  75.7630014
  46.2129992  51.0859978  75.9230014  47.0039992  51.5589978  73.9070014
  47.8599992  50.8669978  74.0580014  46.2949992  50.9729978  73.2840014
  47.5289992  52.7379978  73.1270014  46.7529992  53.5109978  72.9370014
  48.3769992  53.1759978  73.6950014  48.1869992  52.3049978  71.7560014
  49.1619992  51.7949978  71.9090014  47.4419992  51.6469978  71.2610014
  48.4009992  53.3879978  70.6790014  47.4309992  53.8729978  70.4360014
  49.0989992  54.1199978  71.1390014  48.9739992  52.9909978  69.2840014
  49.9789992  53.4419978  69.1430014  49.1429992  51.8939978  69.2220014
  48.1829992  53.4249978  68.0880014  48.2659992  54.5199978  67.9250014
  48.6039992  52.9199978  67.1920014  46.7479992  52.9409978  68.2890014
  46.4179992  52.1759978  69.1410014  45.9179992  53.6009978  67.4800014
  44.4789992  53.4809978  67.9260014  44.2929992  52.3859978  67.9090014
  44.3619992  53.9719978  68.9160014  43.4809992  54.2009978  66.8730014
  42.4319992  54.0479978  67.2050014  43.4409992  53.4339978  65.5400014
  43.0089992  52.4139978  65.6170014  42.8079992  54.1409978  64.9620014
  44.7619992  53.4649978  65.0070014  45.2699992  52.6479978  63.7820014
  45.8429992  53.7159978  62.8260014  45.5599992  55.0639978  62.8880014
  46.1489992  55.5159978  62.0620014  44.4849992  55.2469978  62.6770014
  46.1279992  55.8109978  64.1620014  45.9079992  56.8539978  63.9870014
  45.5029992  55.4409978  64.9620014  47.6129992  55.7259978  64.5260014
  47.8749992  56.7459978  65.6670014  47.2289992  56.3209978  66.4200014
  48.8949992  56.7369978  66.0220014  47.5479992  57.7359978  65.3850014
  47.9859992  54.3419978  64.9230014  48.8719992  54.2449978  65.5330014
  47.2409992  53.9379978  65.5920014  48.0039992  53.6349978  64.1080014
  48.3569992  56.1619978  63.3600014  48.2829992  57.2189978  63.1530014
  48.2459992  55.5009978  62.5130014  49.4139992  56.0699978  63.5640014
  46.2729992  51.6439978  64.2450014  44.0189992  52.1939978  63.1200014
  43.8819992  55.5089978  66.7780014  43.4269992  56.2759978  67.7810014
  42.7269992  55.9129978  68.6740014  43.9419992  57.6359978  67.5830014
  43.0999992  58.2029978  67.1320014  44.7659992  57.6869978  66.8390014
  44.3049992  58.2949978  68.8510014  43.4899992  58.3549978  69.6040014
  44.5549992  59.3249978  68.5200014  45.7559992  57.8629978  69.4420014
  46.1439992  58.8809978  69.6610014  46.3209992  57.3409978  68.6410014
  45.6449992  57.1179978  70.7310014  45.1899992  56.1369978  70.4770014
  44.9689992  57.6739978  71.4150014  46.9269992  56.8489978  71.4750014
  47.5199992  56.2709978  70.7340014  46.6199992  56.2409978  72.3530014
  47.6889992  58.0709978  71.9930014  47.0589992  58.8709978  72.4370014
  48.0949992  58.5589978  71.0820014  48.7539992  57.8339978  73.0840014
  48.2899992  57.5139978  74.0410014  49.5389992  58.5919978  73.2930014
  49.6629992  56.7479978  72.4960014  49.7549992  56.6739978  71.4020014
  50.4399992  55.9149978  73.3140014  51.1739992  55.2769978  72.7990014
  50.3819992  55.9909978  74.8420014  49.7429992  56.8349978  75.1800014
  51.4199992  56.1339978  75.2110014  49.8499992  54.7179978  75.4900014
  50.5559992  53.8809978  75.3000014  48.8919992  54.4349978  75.0030014
  49.7219992  54.8709978  76.9170014  48.8969992  55.5999978  77.0660014
  50.6929992  55.2689978  77.2820014  49.4069992  53.5689978  77.6490014
  50.1579992  52.7839978  77.4150014  48.3979992  53.2689978  77.2930014
  49.4589992  53.6129978  79.2370014  50.4189992  53.9539978  79.6810014
  49.2929992  52.5499978  79.5150014  48.2919992  54.3529978  79.9090014
  47.3699992  54.2499978  79.2980014  48.5029992  55.4349978  79.7750014
  48.1349992  53.9419978  81.3480014  49.1059992  54.0899978  81.8660014
  48.0409992  52.8359978  81.3080014  47.0289992  54.6079978  82.0530014
  46.7139992  54.0719978  82.9740014  46.1629992  54.6119978  81.3570014
  47.2419992  55.6549978  82.3540014  79.4429992  99.4429978  80.4250014
  78.3669992  99.6729978  80.2700014  80.1659992 100.2659978  80.2420014
  79.3669992  99.2649978  81.5190014  79.9259992  98.1829978  79.5970014
  80.6229992  97.6329978  80.2660014  79.0169992  97.5599978  79.4550014
  80.5779992  98.5389978  78.2780014  79.9829992  99.2619978  77.6800014
  81.5809992  98.9809978  78.4590014  80.9289992  97.3369978  77.3850014
  81.3039992  96.6159978  78.1430014  80.0819992  96.9169978  76.8020014
  82.0869992  97.5749978  76.4730014  82.9299992  97.8609978  77.1380014
  82.2679992  96.5679978  76.0420014  81.9349992  98.5709978  75.3650014
  81.7019992  99.5499978  75.8350014  82.9049992  98.6979978  74.8380014
  80.8519992  98.2519978  74.3140014  80.9899992  97.2639978  73.8250014
  79.8649992  98.3919978  74.8050014  81.0379992  99.1559978  73.0510014
  82.0009992  98.9179978  72.5500014  80.2179992  98.8949978  72.3490014
  80.9679992 100.7019978  73.2480014  81.3229992 100.8619978  74.2890014
  81.6459992 101.1849978  72.5120014  79.4859992 101.1939978  73.1450014
  78.9529992 100.4639978  73.7910014  79.3429992 102.1309978  73.7230014
  78.8529992 101.3409978  71.7210014  79.0189992 100.3099978  71.3420014
  77.8079992 101.7099978  71.8000014  79.6909992 102.2219978  70.8670014
  80.2799992 102.9399978  71.4770014  80.4049992 101.5709978  70.3200014
  78.8479992 103.0139978  69.7860014  78.0709992 103.5639978  70.3580014
  79.4909992 103.7309978  69.2310014  78.0729992 102.0129978  68.8880014
  78.7869992 101.3059978  68.4140014  77.3009992 101.4429978  69.4480014
  77.1299992 102.7279978  67.8530014  76.4079992 101.9639978  67.4940014
  76.4329992 103.4539978  68.3230014  77.8579992 103.1189978  66.5840014
  77.5499992 102.6549978  65.4680014  78.8489992 103.9039978  66.8060014
  79.5239992 104.4939978  65.7050014  78.8979992 104.6909978  64.8090014
  79.7139992 105.5069978  66.1180014  80.8489992 103.9209978  65.5000014
  81.4549992 104.5609978  64.8240014  80.9469992 102.4439978  64.8800014
  79.8879992 102.1729978  64.6800014  81.6129992 102.5289978  63.9950014
  81.5329992 101.5029978  65.8450014  81.0399992 100.0139978  65.8980014
  81.9559992  99.2919978  64.8290014  83.3439992  99.6149978  64.6930014
  83.7939992  99.7769978  65.6960014  83.9319992  98.7019978  64.4570014
  83.6649992 100.6579978  63.5850014  83.0459992 101.5249978  63.7630014
  84.6909992 100.9939978  63.6240014  83.5429992 100.2909978  62.1180014
  82.0539992 100.1219978  61.7880014  81.9459992  99.6409978  60.8270014
  81.6249992  99.4579978  62.5240014  81.5259992 101.0639978  61.8110014
  83.9809992 101.4859978  61.3620014  83.8819992 101.3339978  60.2970014
  83.4129992 102.3319978  61.7220014  85.0389992 101.5629978  61.5610014
  84.3589992  99.1209978  61.7030014  84.5079992  99.0789978  60.6340014
  83.7459992  98.2969978  62.0360014  85.2549992  99.0229978  62.2980014
  81.3349992  99.5159978  67.2460014  79.6469992  99.8809978  65.4380014
  81.4149992 103.9509978  66.8600014  82.7739992 104.3569978  66.8530014
  83.4079992 104.7789978  65.9020014  83.2539992 104.2409978  68.2850014
  82.4969992 104.5859978  69.0220014  84.2379992 104.7449978  68.3920014
  83.5579992 102.7229978  68.5260014  83.9959992 102.2749978  67.6080014
  82.5309992 102.3389978  68.7050014  84.4809992 102.5069978  69.7550014
  84.0219992 103.0959978  70.5780014  85.4709992 102.9809978  69.5850014
  84.4939992 101.0669978  70.0800014  84.6359992 100.5289978  69.1180014
  83.5749992 100.6669978  70.5600014  85.7409992 100.6759978  70.9140014
  86.6319992 100.8629978  70.2780014  85.7549992  99.5869978  71.1350014
  85.9449992 101.5199978  72.2550014  86.1859992 102.5729978  71.9980014
  86.8219992 100.9859978  72.6800014  84.7489992 101.4899978  73.2350014
  84.6459992 100.4299978  73.5520014  83.7979992 101.7919978  72.7490014
  84.8629992 102.4019978  74.4250014  85.7039992 102.1529978  75.0890014
  84.1579992 103.4369978  74.8400014  84.6409992 104.0169978  75.6400014
  82.9299992 104.0849978  74.2770014  82.3749992 103.3539978  73.6510014
  83.1489992 104.9689978  73.6410014  82.0129992 104.6559978  75.4060014
  81.2189992 105.1919978  74.8440014  82.4579992 105.4889978  75.9930014
  81.2999992 103.5669978  76.2160014  81.9369992 102.6759978  76.4030014
  80.3439992 103.2359978  75.7560014  80.9289992 104.0919978  77.6270014
  80.0979992 104.8299978  77.6300014  81.8479992 104.5809978  78.0170014
  80.6139992 102.9949978  78.6850014  81.4609992 102.2769978  78.7120014
  79.6989992 102.4829978  78.3160014  80.4239992 103.4519978  80.0850014
  81.2469992 104.0999978  80.4550014  80.3309992 102.5159978  80.6760014
  79.1229992 104.2309978  80.2240014  78.2619992 103.7059978  79.7570014
  79.1519992 105.1719978  79.6350014  78.6279992 104.5219978  81.6490014
  79.0979992 105.4799978  81.9580014  78.9199992 103.6759978  82.3070014
  77.5179992 104.5139978  81.6170014 102.9529992  85.9999978  82.8320014
 102.4719992  85.3059978  83.5530014 103.9859992  86.3779978  82.9940014
 103.0009992  85.3949978  81.9020014 102.0079992  87.2329978  82.6600014
 101.6749992  87.5429978  83.6730014 102.5729992  88.0449978  82.1530014
 100.7989992  86.7889978  81.8370014 100.3499992  85.8379978  82.1960014
 100.0569992  87.6119978  81.7580014 101.2239992  86.6679978  80.2940014
 101.0259992  87.6699978  79.8560014 102.3099992  86.5049978  80.1290014
 100.4289992  85.5589978  79.6260014 100.7659992  84.6949978  80.2390014
  99.3459992  85.7109978  79.8230014 100.6929992  85.2679978  78.1520014
 101.7319992  85.5189978  77.8490014 100.4289992  84.2199978  77.8950014
  99.9709992  86.2219978  77.2820014  98.9059992  86.0539978  77.5500014
 100.2319992  87.2499978  77.6140014 100.0999992  85.8529978  75.8350014
 101.1329992  86.1509978  75.5550014 100.1129992  84.7569978  75.6510014
  99.0239992  86.5289978  74.9510014  99.4469992  86.3689978  73.9360014
  98.0039992  86.1059978  75.0750014  98.9649992  88.0549978  74.9980014
  98.2159992  88.4829978  75.6980014  99.9989992  88.3439978  75.2870014
  98.6439992  88.5959978  73.6280014  99.2809992  88.1459978  72.8370014
  97.6129992  88.3619978  73.2850014  98.8149992  90.0829978  73.5530014
  98.1909992  90.5389978  74.3510014  99.8609992  90.3209978  73.8410014
  98.7429992  90.6159978  72.1360014  99.4619992  90.0949978  71.4680014
  97.6949992  90.5299978  71.7750014  99.0969992  92.0989978  72.1500014
  98.2399992  92.7349978  72.4600014  99.8499992  92.2909978  72.9440014
  99.5089992  92.6109978  70.7090014  98.6869992  92.3859978  69.9970014
  99.4869992  93.7079978  70.8770014 100.9009992  92.1779978  70.1730014
 101.9299992  92.2349978  70.7870014 100.7349992  91.7369978  68.8920014
 101.8759992  91.5809978  68.1070014 101.6129992  92.1579978  67.1950014
 102.7519992  92.1909978  68.4170014 102.1339992  90.1269978  67.6390014
 102.9699992  90.2119978  66.9130014 100.7569992  89.5119978  67.1580014
 100.3239992  89.1409978  68.1110014 100.1459992  90.3319978  66.7230014
 100.8649992  88.4149978  66.2510014  99.5099992  87.7259978  65.7830014
  99.9359992  87.0649978  64.4180014 101.1619992  86.4709978  64.3410014
 101.6049992  86.0159978  65.2520014 101.0529992  85.5829978  63.6820014
 102.2439992  87.4549978  63.7750014 102.2259992  88.3309978  64.4070014
 103.1579992  86.8919978  63.8940014 102.0209992  87.8209978  62.3190014
 101.6779992  86.5969978  61.4560014 101.5569992  86.8789978  60.4200014
 102.4509992  85.8429978  61.4540014 100.8179992  86.1299978  61.9130014
 100.9419992  88.8049978  62.1840014 101.1479992  89.7129978  62.7310014
 100.9399992  88.9369978  61.1120014  99.9849992  88.4149978  62.4970014
 103.3059992  88.4629978  61.8620014 103.6179992  88.9489978  62.7740014
 103.1339992  89.2419978  61.1330014 104.0149992  87.6559978  61.7620014
  99.2249992  86.7009978  66.7540014  98.4379992  88.6579978  65.3640014
 102.5809992  89.2339978  68.7280014 103.6869992  89.6429978  69.4180014
 104.4059992  90.5869978  69.0360014 103.8199992  88.6809978  70.6310014
 104.6779992  89.0309978  71.2450014 104.0099992  87.6389978  70.2960014
 102.5529992  88.6909978  71.5100014 101.8119992  88.3969978  70.7360014
 102.3279992  89.7269978  71.8430014 102.4539992  87.6959978  72.6700014
 102.7409992  86.6699978  72.3550014 101.4129992  87.7559978  73.0550014
 103.3569992  88.1919978  73.8510014 104.3809992  88.3739978  73.4580014
 103.2919992  87.3849978  74.6110014 102.8309992  89.4669978  74.5680014
 101.8069992  89.3759978  74.9890014 102.7619992  90.2039978  73.7400014
 103.8629992  90.0479978  75.4490014 104.9039992  89.7649978  75.1820014
 103.7559992  89.6009978  76.4600014 103.7179992  91.5869978  75.7140014
 104.2129992  91.8359978  74.7510014 104.2369992  91.9749978  76.6170014
 102.3229992  92.1769978  75.7660014 102.1389992  92.7739978  74.8600014
 101.4029992  92.1549978  76.7450014 100.4609992  92.7049978  76.6020014
 101.6629992  91.5139978  78.1160014 101.7289992  92.2399978  78.9550014
 102.6819992  91.0749978  78.1760014 100.6269992  90.4109978  78.2750014
 100.8839992  89.7619978  79.1400014 100.6039992  89.8099978  77.3410014
  99.1469992  90.8609978  78.4810014  98.5059992  89.9539978  78.4610014
  98.8399992  91.4839978  77.6140014  98.8869992  91.9529978  79.6610014
  97.8979992  92.4279978  79.4900014  99.5789992  92.8189978  79.5870014
  98.7949992  91.2639978  81.0980014  99.8079992  90.9049978  81.3770014
  98.1919992  90.3309978  81.0680014  98.1569992  92.1089978  82.2200014
  97.2479992  92.4589978  81.6860014  98.7949992  92.9979978  82.4140014
  97.6929992  91.3219978  83.4430014  97.0499992  90.5139978  83.0330014
  97.1669992  91.9709978  84.1750014  98.8809992  90.7109978  84.2640014
  99.7469992  91.3299978  83.9450014  98.9949992  89.6309978  84.0280014
  98.8399992  90.7649978  85.3730014  41.6589992  95.6609978  81.8160014
  42.7099992  95.3349978  81.6610014  41.0779992  94.7299978  81.6430014
  41.4619992  95.8169978  82.8980014  41.1549992  96.8039978  80.9550014
  40.0659992  96.6359978  80.8160014  41.1179992  97.7379978  81.5560014
  41.7549992  96.9489978  79.5260014  40.9829992  97.4249978  78.8840014
  42.6719992  97.5619978  79.6600014  42.0479992  95.6619978  78.7820014
  42.9519992  95.2019978  79.2340014  41.1859992  94.9779978  78.9270014
  42.2879992  95.8939978  77.2390014  41.3189992  96.0379978  76.7140014
  42.8709992  96.8319978  77.1250014  42.9729992  94.6029978  76.6340014
  42.4099992  93.6859978  76.9080014  43.0629992  94.6769978  75.5290014
  44.4939992  94.6129978  77.0630014  44.6789992  94.4859978  78.1510014
  44.8399992  93.6209978  76.7020014  45.3449992  95.7999978  76.5300014
  44.8689992  96.7879978  76.7090014  46.2209992  95.7389978  77.2100014
  45.6739992  95.7099978  75.0420014  44.7219992  95.9589978  74.5260014
  46.4189992  96.4949978  74.7920014  46.4119992  94.4539978  74.6020014
  47.3039992  94.1939978  75.2110014  45.7519992  93.5689978  74.7210014
  46.8119992  94.5689978  73.0950014  47.0549992  95.6199978  72.8320014
  47.7629992  94.0419978  72.8640014  45.7229992  94.2239978  72.1220014
  45.1619992  95.1749978  72.2400014  46.1559992  94.0609978  71.1120014
  44.8159992  92.9939978  72.2850014  44.2259992  92.9999978  73.2270014
  44.1259992  93.1229978  71.4240014  45.4729992  91.6819978  72.0750014
  46.4259992  91.7779978  71.5130014  45.9709992  91.4599978  73.0430014
  44.5609992  90.5139978  71.7420014  45.0249992  89.5689978  72.0950014
  43.6879992  90.7689978  72.3790014  44.3809992  90.7049978  70.1910014
  45.2549992  90.5729978  69.3970014  43.0899992  91.1319978  69.9700014
  42.7049992  91.2979978  68.5790014  43.4459992  90.7959978  67.9210014
  41.7499992  90.7409978  68.4770014  42.5479992  92.7619978  68.0160014
  41.8259992  92.7089978  67.1730014  43.9269992  93.2169978  67.5720014
  44.6199992  93.0869978  68.4300014  44.3239992  92.5869978  66.7470014
  43.8349992  94.6059978  67.1740014  42.9199992  95.2479978  66.0870014
  42.7679992  94.1489978  64.9430014  43.7749992  93.8569978  63.9880014
  44.7709992  94.3279978  64.1310014  43.8929992  92.7619978  64.1340014
  43.2029992  94.2289978  62.5830014  42.9569992  95.2799978  62.5330014
  44.0509992  94.0739978  61.9330014  42.0179992  93.3779978  61.9970014
  42.3549992  91.9419978  61.8930014  41.7329992  91.4139978  61.1850014
  43.3229992  91.9399978  61.4150014  42.3879992  91.4699978  62.8640014
  40.8579992  93.5239978  62.9370014  41.1459992  93.2909978  63.9520014
  40.4809992  94.5359978  62.9120014  40.1129992  92.8259978  62.5860014
  41.6239992  93.9849978  60.6610014  42.0079992  93.2309978  59.9910014
  42.1359992  94.9219978  60.4940014  40.5439992  93.9879978  60.6760014
  41.5269992  95.3959978  66.6380014  43.5949992  96.5069978  65.6040014
  42.0189992  93.5729978  69.0690014  40.6939992  93.5189978  69.4110014
  39.9379992  92.7049978  68.9120014  40.3689992  94.5279978  70.5140014
  39.2919992  94.5099978  70.7840014  40.5849992  95.4949978  70.0110014
  41.2679992  94.4799978  71.7790014  41.4029992  95.5369978  72.0930014
  42.2939992  94.1439978  71.5140014  40.7199992  93.5459978  72.8770014
  39.7229992  93.9729978  73.1170014  41.4319992  93.6689978  73.7210014
  40.5509992  92.0219978  72.4610014  41.4419992  91.7479978  71.8570014
  39.6369992  91.8579978  71.8520014  40.4799992  90.9549978  73.6160014
  40.0859992  90.0249978  73.1540014  39.6369992  91.3039978  74.2500014
  41.6249992  90.7139978  74.5110014  42.1169992  91.6319978  74.8990014
  42.4319992  90.2229978  73.9260014  41.1799992  89.8159978  75.6850014
  40.5549992  88.9549978  75.3650014  40.6079992  90.3709978  76.4600014
  42.4549992  89.1969978  76.3740014  42.8799992  88.3919978  75.7570014
  43.0099992  89.4159978  77.5690014  43.9629992  88.9359978  77.8340014
  42.5309992  90.4159978  78.6750014  42.3689992  89.9549978  79.6730014
  41.5779992  90.8469978  78.3010014  43.5479992  91.5039978  79.0420014
  42.9819992  92.2019978  79.6960014  43.7539992  92.1329978  78.1490014
  44.7659992  90.9999978  79.7490014  45.4039992  90.3229978  79.1420014
  44.4159992  90.5239978  80.6900014  45.7249992  92.1409978  80.1560014
  45.1579992  93.0239978  80.5210014  46.2329992  92.3799978  79.1980014
  46.7909992  91.7699978  81.1510014  47.8149992  92.1329978  80.9190014
  46.9799992  90.6749978  81.1200014  46.4839992  92.3689978  82.5030014
  46.0429992  93.3789978  82.3620014  47.3939992  92.2859978  83.1340014
  45.4919992  91.7219978  83.4950014  45.7829992  90.6489978  83.5100014
  44.4539992  91.9379978  83.1660014  45.4009992  92.1939978  84.9910014
  46.4099992  92.2249978  85.4560014  44.7259992  91.5899978  85.6330014
  45.1449992  93.2749978  85.0250014  39.5359992  78.5199978  85.9500014
  38.9129992  79.2889978  86.4540014  40.4869992  78.9139978  85.5330014
  39.8159992  77.7859978  86.7360014  38.6899992  77.9209978  84.8230014
  38.7999992  78.5749978  83.9320014  39.2089992  76.9889978  84.5120014
  37.2609992  77.5679978  85.1510014  37.3949992  76.7299978  85.8680014
  36.7749992  78.4399978  85.6390014  36.3099992  76.9409978  84.1130014
  35.2649992  76.9319978  84.4890014  36.3309992  77.6089978  83.2260014
  36.7489992  75.4889978  83.8590014  37.8429992  75.3629978  83.7140014
  36.4679992  74.8399978  84.7160014  35.9769992  74.8519978  82.6970014
  36.5119992  73.8929978  82.5280014  34.9579992  74.4609978  82.9050014
  36.0599992  75.5949978  81.3080014  35.5739992  76.5809978  81.4670014
  37.1099992  75.8599978  81.0590014  35.3539992  74.7989978  80.1720014
  35.8449992  73.8329978  79.9250014  34.3029992  74.5929978  80.4640014
  35.2039992  75.7549978  78.9580014  34.7729992  76.7029978  79.3440014
  36.2409992  75.9469978  78.6090014  34.3789992  75.1619978  77.7950014
  34.6079992  74.1699978  77.3500014  33.3839992  74.9739978  78.2520014
  34.2639992  76.1379978  76.5790014  33.6369992  77.0089978  76.8660014
  35.2779992  76.4929978  76.2950014  33.6169992  75.4599978  75.3550014
  32.7009992  74.8569978  75.5320014  33.4429992  76.2889978  74.6360014
  34.6049992  74.6279978  74.4720014  35.6519992  74.9999978  74.4990014
  34.6649992  73.5879978  74.8570014  34.2269992  74.5989978  72.9760014
  34.2149992  73.5359978  72.6550014  33.1939992  74.9679978  72.7990014
  35.1449992  75.4809978  72.0380014  35.1749992  76.5899978  72.0920014
  36.1789992  75.2179978  72.3500014  34.9899992  75.0719978  70.6080014
  34.1649992  74.2369978  70.1920014  36.0669992  75.5099978  70.0310014
  36.1509992  75.0759978  68.6930014  37.2169992  75.1309978  68.3850014
  36.0309992  73.9769978  68.5840014  35.2309992  76.0169978  67.7410014
  34.1739992  75.7409978  67.9410014  35.5499992  75.8619978  66.2770014
  35.3909992  74.7649978  66.2010014  34.9409992  76.5169978  65.6180014
  36.9439992  76.0679978  66.1090014  37.7149992  75.7899978  64.6770014
  37.3969992  77.1149978  63.8840014  37.4709992  78.4269978  64.5500014
  36.4539992  78.6669978  64.9280014  38.1489992  78.4389978  65.4290014
  37.7379992  79.5599978  63.6500014  37.2879992  79.3809978  62.6840014
  37.3809992  80.5259978  63.9770014  39.2259992  79.7249978  63.2700014
  39.2749992  80.6979978  62.1120014  38.7599992  80.3259978  61.2380014
  38.8949992  81.6659978  62.4030014  40.3289992  80.8279978  61.9170014
  40.0889992  80.2429978  64.4420014  41.0949992  80.1729978  64.0560014
  39.7449992  81.2649978  64.5060014  39.9269992  79.6919978  65.3570014
  39.8999992  78.4699978  62.8770014  39.3169992  77.9169978  62.1550014
  40.1039992  77.7779978  63.6810014  40.7469992  78.8069978  62.2980014
  39.1519992  75.6769978  64.9940014  37.0959992  74.7089978  63.9430014
  35.5049992  77.3899978  68.1240014  34.7389992  78.4059978  67.7520014
  33.8039992  78.4259978  66.9800014  35.4049992  79.7319978  68.3110014
  35.7019992  79.4619978  69.3470014  34.6339992  80.5329978  68.2950014
  36.6349992  80.1599978  67.5020014  36.1609992  80.0679978  66.5010014
  37.3179992  79.2839978  67.5310014  37.3929992  81.3739978  67.9820014
  36.6389992  82.1859978  68.0670014  37.9749992  81.6749978  67.0840014
  38.3939992  81.2669978  69.1950014  37.8829992  81.0339978  70.1540014
  38.9879992  82.2039978  69.1410014  39.3939992  80.0619978  68.8790014
  39.8989992  80.2449978  67.9060014  38.8749992  79.0999978  68.6790014
  40.5559992  79.7959978  69.8340014  41.0499992  80.7879978  69.7600014
  41.2349992  79.0189978  69.4220014  40.1579992  79.5939978  71.2810014
  39.5119992  80.4229978  71.6420014  40.9869992  79.7209978  72.0100014
  39.5199992  78.2529978  71.3170014  40.0599992  77.5119978  70.7090014
  38.4149992  77.8949978  72.0010014  38.0009992  76.8759978  72.0430014
  37.5869992  78.8329978  72.8090014  36.5719992  78.8569978  72.3600014
  37.9099992  79.8899978  72.9300014  37.4419992  78.3579978  74.2670014
  38.4739992  78.1999978  74.6470014  37.0159992  77.3439978  74.4260014
  36.6949992  79.3429978  75.1850014  35.6179992  79.1419978  75.0000014
  36.8199992  80.3789978  74.8050014  37.1559992  79.3039978  76.6310014
  38.2659992  79.3009978  76.6460014  36.7129992  78.3329978  76.9390014
  36.6289992  80.2679978  77.6770014  35.5479992  80.0209978  77.7410014
  36.4149992  81.2569978  77.2170014  37.2639992  80.0469978  79.0510014
  38.3109992  80.4189978  79.0290014  37.5049992  78.9659978  79.1390014
  36.5709992  80.4919978  80.3950014  36.7969992  81.5709978  80.5350014
  37.1709992  79.9689978  81.1710014  35.1199992  80.0869978  80.5170014
  34.9939992  79.0079978  80.2840014  34.4659992  80.7119978  79.8720014
  34.7929992  80.2699978  81.5630014  53.7369992  99.4239978  80.6320014
  53.8779992  99.0619978  79.5910014  52.6399992  99.5709978  80.5340014
  53.8489992  98.5899978  81.3570014  54.5669992 100.6799978  80.8870014
  54.2809992 101.1249978  81.8640014  55.6029992 100.3089978  81.0370014
  54.9169992 101.6979978  79.7640014  55.2699992 102.6149978  80.2830014
  55.8099992 101.3939978  79.1770014  53.7179992 101.9499978  78.8740014
  53.5139992 101.1779978  78.1010014  52.9069992 101.9269978  79.6320014
  53.6249992 103.3149978  78.2690014  52.7059992 103.2539978  77.6470014
  53.5039992 104.0879978  79.0590014  54.8169992 103.6649978  77.3470014
  54.7119992 104.7299978  77.0510014  55.7589992 103.4789978  77.9070014
  54.7619992 102.7879978  76.0860014  55.0609992 101.7579978  76.3790014
  53.7349992 102.7989978  75.6610014  55.8349992 103.3219978  75.0330014
  55.5039992 104.3619978  74.8270014  56.8239992 103.4679978  75.5180014
  56.0089992 102.4259978  73.8750014  55.0699992 102.1459978  73.3510014
  56.6189992 103.0509978  73.1880014  56.9429992 101.2269978  74.1000014
  57.9009992 101.5009978  74.5920014  56.3149992 100.6609978  74.8210014
  57.1869992 100.3879978  72.8470014  57.4399992  99.3509978  73.1550014
  56.2169992 100.3629978  72.3050014  58.1469992 100.8559978  71.8280014
  57.9499992 101.8969978  71.4950014  59.1249992 100.9819978  72.3390014
  58.2669992  99.9949978  70.5530014  59.0299992 100.4419978  69.8790014
  58.5959992  98.9709978  70.8330014  56.9709992  99.9469978  69.7550014
  56.2699992  99.4389978  70.4510014  56.4589992 100.9239978  69.6220014
  57.0589992  99.1319978  68.3990014  57.7719992  99.7759978  67.8410014
  57.4689992  98.0999978  68.4520014  55.7429992  99.0149978  67.6390014
  54.6779992  98.8279978  68.1730014  55.9459992  99.2549978  66.3610014
  54.8669992  99.2289978  65.4190014  55.3199992  98.7229978  64.5400014
  54.0779992  98.5539978  65.8130014  54.2869992 100.6189978  65.0230014
  53.5019992 100.3489978  64.2850014  55.3259992 101.5249978  64.4060014
  55.9539992 100.9539978  63.6890014  54.7819992 102.3029978  63.8300014
  56.1349992 102.0629978  65.4740014  57.7039992 102.2339978  65.4810014
  57.9999992 103.6289978  64.8060014  57.3199992 104.8789978  64.9490014
  56.9569992 104.9139978  65.9980014  57.9749992 105.7659978  64.8130014
  56.2149992 104.9959978  63.9520014  55.4459992 104.2649978  64.1530014
  55.7559992 105.9529978  64.1510014  56.5629992 104.9309978  62.4510014
  57.3529992 103.6999978  62.0470014  57.3459992 103.7289978  60.9680014
  58.3559992 103.8009978  62.4360014  56.8709992 102.8679978  62.5390014
  55.2379992 104.8819978  61.6880014  54.5949992 105.6899978  62.0040014
  55.5039992 104.9959978  60.6470014  54.6799992 103.9589978  61.7380014
  57.1959992 106.1759978  62.0330014  57.9429992 106.5409978  62.7220014
  56.3859992 106.8829978  61.9210014  57.7469992 106.0139978  61.1190014
  58.1659992 102.3419978  66.8830014  58.2469992 101.0629978  64.7430014
  53.7389992 101.1419978  66.2110014  52.8229992 102.1409978  66.0770014
  52.2959992 102.5339978  65.0320014  52.8229992 102.7839978  67.4550014
  52.5279992 101.9879978  68.1710014  52.0529992 103.5839978  67.4590014
  54.2379992 103.3819978  67.7100014  54.5129992 104.1879978  66.9970014
  55.0189992 102.5969978  67.7910014  54.3439992 103.9339978  69.1540014
  53.9179992 103.1269978  69.7880014  53.8329992 104.9009978  69.3500014
  55.7479992 103.9639978  69.8720014  56.2549992 102.9849978  69.7360014
  55.7139992 104.3789978  70.9020014  56.6289992 104.9489978  69.0180014
  56.1639992 105.9579978  69.0370014  56.7769992 104.5789978  67.9820014
  58.0509992 105.0329978  69.5410014  58.5899992 105.8569978  69.0250014
  58.5489992 104.0439978  69.4600014  58.1459992 105.2529978  71.0510014
  59.1929992 105.4219978  71.3800014  57.8309992 104.2889978  71.5040014
  57.3509992 106.5119978  71.3790014  56.9119992 107.0939978  70.5560014
  57.0789992 106.9939978  72.6230014  56.4639992 107.8729978  72.8640014
  57.5179992 106.3079978  73.8870014  57.8249992 105.2829978  73.5890014
  56.6449992 106.2599978  74.5720014  58.6729992 107.0089978  74.7010014
  58.3639992 108.0469978  74.9520014  59.5809992 107.0439978  74.0620014
  59.0819992 106.1669978  75.9530014  60.1549992 106.2699978  76.2250014
  58.9499992 105.1109978  75.6370014  58.2229992 106.4809978  77.1350014
  57.1679992 106.5609978  76.7930014  58.4639992 107.4839978  77.5470014
  58.4429992 105.5009978  78.3610014  59.5039992 105.6599978  78.6500014
  58.4509992 104.4259978  78.0810014  57.3419992 105.6479978  79.4760014
  56.3219992 105.2249978  79.3570014  57.2029992 106.7469978  79.5670014
  57.7769992 105.0309978  80.8030014  56.8639992 104.8659978  81.4150014
  58.5189992 105.7209978  81.2560014  58.6189992 103.7309978  80.8130014
  58.9799992 103.4069978  81.8130014  59.5289992 103.8569978  80.1890014
  58.0109992 102.8839978  80.4290014  96.3309992  55.8799978  80.3200014
  96.3589992  56.0899978  81.4110014  95.3229992  56.0799978  79.8980014
  97.0829992  56.5949978  79.9240014  96.6929992  54.4769978  79.9890014
  97.6779992  54.2339978  80.4420014  95.9759992  53.7689978  80.4570014
  96.7089992  54.2429978  78.4700014  97.2659992  53.2829978  78.4120014
  95.6699992  54.0309978  78.1380014  97.5899992  55.1159978  77.6070014
  97.1199992  56.1209978  77.5470014  98.6099992  55.2039978  78.0370014
  97.7539992  54.4959978  76.2380014  98.3169992  53.5549978  76.4150014
  96.7479992  54.3959978  75.7770014  98.5989992  55.3149978  75.2010014
  98.7099992  54.8419978  74.2010014  98.0079992  56.2509978  75.1180014
 100.0509992  55.7169978  75.6770014  99.9469992  56.2099978  76.6660014
 100.6679992  54.7959978  75.7510014 100.7009992  56.6019978  74.5870014
 100.6489992  55.9369978  73.6990014 100.0309992  57.4829978  74.4870014
 102.0499992  57.1709978  74.9950014 101.9569992  57.9209978  75.8100014
 102.7059992  56.3419978  75.3360014 102.9309992  57.7109978  73.7680014
 103.9589992  57.8979978  74.1460014 102.9509992  56.9909978  72.9220014
 102.4539992  59.0319978  73.2320014 101.3439992  59.0699978  73.1830014
 102.8619992  59.7809978  73.9440014 103.1429992  59.1479978  71.7660014
 103.6429992  60.1379978  71.8250014 103.8529992  58.3109978  71.5920014
 102.1189992  58.9929978  70.6260014 101.2059992  59.6139978  70.7570014
 102.6759992  59.3929978  69.7520014 101.7029992  57.5499978  70.3010014
 101.1179992  57.1249978  71.1450014 101.0439992  57.6919978  69.4190014
 102.8079992  56.5519978  69.8460014 103.3039992  56.7669978  68.8760014
 103.5749992  56.3699978  70.6280014 102.1119992  55.1799978  69.7430014
 102.7749992  54.2059978  69.9200014 100.8339992  55.2549978  69.4360014
 100.1669992  53.9969978  69.3980014 100.8019992  53.1909978  68.9720014
  99.9539992  53.6679978  70.4370014  98.7969992  54.0729978  68.6240014
  98.3929992  53.0379978  68.6080014  99.0779992  54.6149978  67.2450014
  99.9789992  54.1259978  66.8180014  98.1869992  54.3119978  66.6550014
  99.2049992  56.0209978  67.2810014  99.6819992  57.0399978  66.2030014
  98.9259992  56.4979978  64.9400014  99.5369992  55.7189978  63.8320014
 100.6279992  55.9289978  63.8020014  99.3499992  54.6469978  64.0550014
  98.9129992  55.9929978  62.4650014  99.5159992  55.4549978  61.7490014
  97.8859992  55.6689978  62.5410014  98.9529992  57.5009978  61.9440014
  98.4409992  57.4199978  60.4770014  97.4109992  57.0949978  60.4400014
  98.5309992  58.4409978  60.1370014  99.1049992  56.6969978  60.0260014
  98.0539992  58.4479978  62.7270014  97.9899992  59.4329978  62.2900014
  97.1089992  57.9279978  62.7740014  98.5179992  58.5079978  63.7000014
 100.3549992  57.9199978  62.0410014 101.0769992  57.1869978  61.7150014
 100.4729992  58.2609978  63.0590014 100.5949992  58.7269978  61.3650014
  99.1819992  58.4079978  66.5660014 101.1549992  56.8759978  66.0300014
  97.8769992  54.9219978  69.2220014  97.3499992  54.5579978  70.3750014
  97.3949992  53.4729978  70.9370014  96.3929992  55.6569978  70.8420014
  95.3779992  55.6849978  70.3910014  96.8869992  56.6489978  70.7680014
  96.0149992  55.3559978  72.3370014  96.9829992  55.2549978  72.8730014
  95.2979992  54.5229978  72.5030014  95.1629992  56.5229978  72.9700014
  94.1639992  56.5159978  72.4840014  95.5349992  57.5239978  72.6610014
  95.0579992  56.4629978  74.4900014  96.0709992  56.5799978  74.9290014
  94.8389992  55.4019978  74.7370014  94.1209992  57.3609978  75.1590014
  93.7779992  56.7779978  76.0400014  93.2759992  57.5159978  74.4550014
  94.6389992  58.7119978  75.6390014  95.6199992  58.4499978  76.0900014
  93.9699992  59.0719978  76.4500014  94.5769992  59.7759978  74.5370014
  93.4809992  59.7519978  74.3550014  95.1519992  59.3829978  73.6720014
  95.1289992  61.1389978  74.7930014  94.5609992  61.9079978  74.2480014
  96.1509992  61.5029978  75.5490014  96.1949992  62.5759978  75.7910014
  97.1179992  60.7119978  76.3780014  98.0239992  61.3529978  76.3330014
  97.3099992  59.6489978  76.1170014  96.6519992  60.6589978  77.8420014
  95.7019992  60.0859978  77.9170014  96.6019992  61.7279978  78.1410014
  97.7349992  59.8039978  78.6850014  97.7509992  58.7809978  78.2520014
  97.4429992  59.7019978  79.7520014  99.1809992  60.2339978  78.4760014
  99.3809992  61.3249978  78.5500014  99.3419992  59.9609978  77.4120014
 100.3219992  59.3229978  79.1260014 101.2789992  59.6699978  78.6800014
 100.0309992  58.2669978  78.9440014 100.4669992  59.6619978  80.6600014
  99.5079992  59.3399978  81.1190014 100.7109992  60.7379978  80.7910014
 101.5999992  58.8869978  81.3290014 102.5219992  59.4349978  81.0380014
 101.6229992  57.9359978  80.7550014 101.4609992  58.5209978  82.8230014
 102.4189992  58.0319978  83.1020014 100.6349992  57.8439978  83.1300014
 101.2989992  59.4309978  83.4390014  88.1959992  50.1169978  81.5020014
  88.8079992  51.0199978  81.2940014  88.7499992  49.6329978  82.3350014
  87.1529992  50.4149978  81.7420014  88.2139992  49.1879978  80.2370014
  88.2879992  49.8299978  79.3330014  89.0899992  48.5049978  80.2700014
  87.0009992  48.1789978  80.0900014  87.3979992  47.3789978  79.4300014
  86.8849992  47.7429978  81.1050014  85.7579992  48.6469978  79.4150014
  84.9929992  47.8499978  79.5290014  85.2929992  49.4219978  80.0610014
  85.8369992  49.1299978  77.9310014  84.7809992  49.2819978  77.6200014
  86.3869992  50.0899978  77.8230014  86.4189992  48.0469978  76.9460014
  87.4669992  47.8139978  77.2310014  85.7809992  47.1479978  77.0810014
  86.4489992  48.4409978  75.5070014  86.9219992  47.6009978  74.9560014
  85.3969992  48.3939978  75.1520014  87.2649992  49.7569978  75.2220014
  86.5879992  50.5349978  75.6340014  88.1729992  49.8049978  75.8610014
  87.6799992  50.0299978  73.8130014  88.6599992  49.5519978  73.6010014
  86.8529992  49.5569978  73.2410014  87.8179992  51.5359978  73.5320014
  86.7899992  51.8959978  73.7510014  88.4979992  51.9389978  74.3120014
  88.1869992  51.8119978  72.1360014  88.1539992  52.9079978  71.9570014
  89.2599992  51.6569978  71.8920014  87.2839992  51.1349978  71.0890014
  87.4289992  50.0369978  71.1690014  86.2429992  51.2939978  71.4450014
  87.6269992  51.5169978  69.6150014  87.2729992  52.5399978  69.3630014
  88.7369992  51.5369978  69.5760014  87.1019992  50.4709978  68.6390014
  87.3299992  50.9739978  67.6740014  87.7639992  49.5799978  68.6810014
  85.6049992  50.1849978  68.6110014  85.3979992  49.4679978  69.4340014
  85.0889992  51.1659978  68.6770014  85.1689992  49.4629978  67.3910014
  84.8429992  48.2899978  67.4020014  85.1879992  50.2269978  66.3110014
  85.1559992  49.7109978  64.9810014  84.9949992  48.6119978  64.9690014
  84.2459992  50.1259978  64.4970014  86.4209992  50.1009978  64.2640014
  86.4179992  51.2089978  64.3480014  86.4209992  49.6119978  62.8040014
  85.5139992  50.1099978  62.4000014  87.2319992  50.1189978  62.2380014
  86.4449992  48.2169978  62.7810014  87.7239992  47.3429978  62.3490014
  87.5949992  46.0749978  63.3220014  86.3139992  45.4929978  63.6630014
  85.6939992  46.1949978  64.2600014  85.6849992  45.3099978  62.7660014
  86.4649992  44.1169978  64.3430014  85.4619992  43.8029978  64.5880014
  86.9209992  43.4339978  63.6410014  87.2539992  44.1389978  65.7600014
  86.9569992  45.3539978  66.5640014  85.8949992  45.3739978  66.7600014
  87.6319992  45.2549978  67.4010014  87.1339992  46.1939978  65.9090014
  86.8419992  42.9369978  66.5310014  85.8059992  43.0709978  66.8050014
  86.9679992  42.1399978  65.8140014  87.3589992  42.9099978  67.4790014
  88.7759992  44.0529978  65.5760014  88.9199992  43.1429978  65.0120014
  89.2469992  44.0589978  66.5480014  89.1219992  44.9009978  65.0030014
  87.5299992  46.9639978  60.9050014  89.0169992  48.0219978  62.7120014
  87.5449992  49.5629978  65.0000014  88.6179992  50.3529978  65.1350014
  88.8379992  51.3979978  64.5280014  89.5809992  49.7869978  66.2020014
  89.3459992  50.3759978  67.1150014  90.6069992  50.0729978  65.8870014
  89.2599992  48.3139978  66.6220014  89.1259992  47.6119978  65.7710014
  88.3059992  48.2739978  67.1900014  90.4089992  47.7409978  67.4900014
  90.4889992  48.4769978  68.3190014  91.3479992  47.7079978  66.8990014
  90.2189992  46.3409978  68.1190014  91.2099992  46.0689978  68.5420014
  89.9719992  45.6939978  67.2500014  89.0729992  46.2589978  69.1540014
  88.0709992  46.5279978  68.7550014  89.3389992  46.9909978  69.9460014
  88.9899992  44.9809978  70.0840014  89.9629992  44.8249978  70.5960014
  88.9209992  44.0809978  69.4360014  87.9049992  44.9739978  71.1260014
  86.9689992  45.2749978  70.6100014  88.0269992  45.8619978  71.7830014
  87.8419992  43.5939978  71.7720014  87.5049992  42.7999978  71.0890014
  87.8149992  43.2599978  73.0600014  87.7429992  42.2009978  73.3490014
  87.8479992  44.2749978  74.2610014  87.8269992  45.2999978  73.8320014
  88.7609992  44.1199978  74.8750014  86.6469992  44.1659978  75.2450014
  85.7049992  44.1149978  74.6580014  86.6809992  45.0839978  75.8680014
  86.8039992  42.9709978  76.2970014  86.8369992  41.9729978  75.8100014
  85.8549992  42.9839978  76.8740014  87.8899992  43.3509978  77.2930014
  87.6949992  44.2729978  77.8820014  88.8409992  43.4589978  76.7280014
  88.0599992  42.2359978  78.2650014  88.4529992  41.4269978  77.6120014
  87.1769992  41.9749978  78.8860014  89.2159992  42.4449978  79.2360014
  90.1589992  42.7099978  78.7120014  89.3729992  41.4479978  79.6990014
  88.8719992  43.3389978  80.4650014  89.4589992  42.9969978  81.3440014
  87.8249992  43.1129978  80.7590014  89.2039992  44.8429978  80.3990014
  88.4839992  45.4119978  79.7730014  90.2269992  45.1059978  80.0560014
  89.0849992  45.2759978  81.4150014  72.8869992 100.5019978  83.0740014
  72.3849992 100.5179978  84.0650014  72.2609992 101.0449978  82.3330014
  73.8079992 101.0959978  83.2560014  73.1649992  99.0989978  82.5050014
  73.9059992  98.6459978  83.1980014  72.2059992  98.5389978  82.4730014
  73.9129992  99.1199978  81.1150014  74.9429992  99.4959978  81.2960014
  73.8909992  98.1399978  80.5930014  73.3009992 100.0499978  79.9660014
  73.6259992  99.5459978  79.0310014  72.2089992 100.1979978  80.1050014
  73.9019992 101.4579978  79.9220014  73.1359992 102.0889978  79.4240014
  73.8989992 101.9749978  80.9060014  75.2849992 101.6349978  79.2900014
  75.6269992 102.6439978  79.6070014  75.9269992 100.7809978  79.5960014
  75.2769992 101.6649978  77.7500014  76.3089992 101.8319978  77.3740014
  74.8729992 100.7589978  77.2500014  74.6439992 102.9979978  77.3250014
  73.5429992 102.8849978  77.4220014  75.0489992 103.7819978  78.0000014
  74.7989992 103.3519978  75.7760014  75.8779992 103.1829978  75.5740014
  74.1559992 102.6739978  75.1760014  74.3819992 104.7859978  75.3880014
  74.6189992 105.3589978  76.3100014  74.8159992 105.1649978  74.4380014
  72.9689992 104.9259978  74.8960014  72.8069992 104.0159978  74.2810014
  72.4139992 104.9919978  75.8570014  72.5359992 106.1639978  74.1020014
  71.5039992 106.0639978  73.7030014  72.5749992 107.0159978  74.8130014
  73.5449992 106.4859978  72.8770014  73.0109992 107.2509978  72.2730014
  74.5149992 106.8719978  73.2570014  73.8029992 105.2359978  71.9420014
  74.3679992 104.4469978  72.4820014  72.8959992 104.7199978  71.5620014
  74.4979992 105.8189978  70.7390014  73.6379992 106.2999978  70.2260014
  75.1739992 106.6739978  70.9540014  75.0729992 104.8199978  69.7840014
  76.2689992 104.6049978  69.6030014  74.0819992 104.0969978  69.1920014
  74.5909992 102.9969978  68.3610014  75.2099992 103.2039978  67.4620014
  75.2959992 102.4339978  69.0090014  73.3989992 102.1679978  67.8030014
  73.8029992 101.2359978  67.3550014  72.6149992 102.9309978  66.7430014
  72.2079992 103.8819978  67.1480014  73.3169992 103.2739978  65.9530014
  71.5899992 102.1859978  66.1540014  71.5799992 101.3809978  64.8310014
  72.7839992 101.9619978  63.9490014  72.5939992 103.2549978  63.4130014
  72.4439992 103.0569978  62.3300014  71.6899992 103.7979978  63.7630014
  73.8189992 104.2609978  63.6690014  73.7179992 105.2499978  63.2460014
  73.7659992 104.3659978  64.7420014  75.2249992 103.6829978  63.3750014
  75.5499992 102.5219978  64.2660014  74.7869992 101.7649978  64.1540014
  76.5169992 102.1739978  63.9350014  75.6009992 102.7699978  65.3160014
  75.2709992 103.2639978  61.8700014  74.4129992 102.6179978  61.7540014
  75.3349992 103.9849978  61.0680014  76.1399992 102.6309978  61.7720014
  76.2899992 104.7109978  63.6070014  77.2159992 104.2209978  63.3440014
  76.3689992 105.0809978  64.6190014  76.0629992 105.5579978  62.9780014
  71.8479992  99.9659978  65.1600014  70.2649992 101.6899978  64.2120014
  72.5519992 101.7449978  68.9160014  72.9559992 100.7439978  69.7500014
  74.0479992 100.2389978  69.6520014  71.7519992 100.3299978  70.5880014
  71.8319992  99.4219978  71.2220014  70.8019992 100.1419978  70.0430014
  71.3569992 101.5139978  71.6000014  70.8959992 102.3929978  71.1000014
  72.2419992 101.9829978  72.0810014  70.3409992 101.0749978  72.6310014
  70.8959992 100.7329978  73.5300014  69.7219992 100.2029978  72.3280014
  69.3369992 102.0859978  73.1420014  68.5689992 102.2039978  72.3480014
  69.7359992 103.1229978  73.1660014  68.6599992 101.6029978  74.4270014
  68.5579992 100.5029978  74.3110014  67.6889992 102.1419978  74.4570014
  69.4689992 101.8529978  75.6760014  69.4889992 102.9639978  75.6620014
  70.5449992 101.7249978  75.4330014  68.9099992 101.2839978  76.9790014
  68.7049992 100.2259978  76.7080014  68.0229992 101.8989978  77.2410014
  69.9499992 101.1709978  78.0920014  70.7769992 100.5029978  77.8130014
  70.0239992 101.8289978  79.2640014  70.7479992 101.3989978  79.9710014
  69.0989992 102.9169978  79.7860014  69.3619992 103.1989978  80.8280014
  68.0699992 102.4999978  79.7530014  69.1649992 104.1979978  78.9170014
  68.1709992 104.6119978  79.1920014  69.2639992 104.1689978  77.8100014
  70.1749992 105.2459978  79.4640014  70.0509992 105.2039978  80.5670014
  70.1189992 106.2409978  78.9720014  71.5999992 104.6939978  79.4420014
  71.7599992 104.4699978  78.3660014  71.7939992 103.7549978  80.0040014
  72.6049992 105.7759978  79.8550014  72.1999992 106.7899978  80.0600014
  73.4359992 105.9509978  79.1380014  73.3999992 105.3289978  81.1050014
  73.8909992 106.2319978  81.5260014  74.2259992 104.7319978  80.6630014
  72.5949992 104.8409978  82.2610014  72.1839992 103.8179978  82.1240014
  71.7859992 105.5819978  82.4310014  73.3939992 104.8239978  83.5140014
  72.6769992 104.5589978  84.3200014  73.8309992 105.8149978  83.7610014
  74.2339992 104.1209978  83.3280014  69.7529992  44.4189978  81.9550014
  69.1829992  43.6159978  82.4710014  69.1479992  45.3459978  81.8520014
  70.5479992  44.6369978  82.7000014  70.3239992  43.9759978  80.5940014
  70.9229992  44.7889978  80.1320014  70.9749992  43.0999978  80.7980014
  69.2369992  43.4949978  79.5420014  68.5499992  42.8419978  80.1220014
  68.6959992  44.4019978  79.1950014  70.0159992  42.7359978  78.4440014
  70.5359992  41.9629978  79.0490014  69.2939992  42.2069978  77.7860014
  71.0319992  43.4379978  77.5950014  70.6279992  44.4219978  77.2730014
  71.9289992  43.4729978  78.2490014  71.5069992  42.7189978  76.3390014
  70.5959992  42.5349978  75.7300014  72.1969992  43.3639978  75.7540014
  72.0059992  41.3179978  76.4560014  71.3419992  40.6179978  77.0060014
  72.1229992  40.8309978  75.4640014  73.3199992  41.2059978  77.2320014
  73.2289992  41.5869978  78.2710014  73.5119992  40.1169978  77.1290014
  74.4219992  42.1239978  76.5690014  74.5339992  41.8529978  75.4970014
  74.1459992  43.1969978  76.6420014  75.8429992  41.8289978  77.0750014
  75.8119992  41.7509978  78.1830014  76.1639992  40.8329978  76.7020014
  76.8429992  42.9529978  76.5400014  76.5379992  44.0119978  76.6790014
  77.8039992  42.8419978  77.0850014  77.0789992  42.9159978  75.0160014
  78.0789992  43.3299978  74.7650014  77.1709992  41.8809978  74.6230014
  76.2149992  43.7759978  74.1060014  75.1439992  43.4829978  74.1550014
  76.3059992  44.8349978  74.4310014  76.5419992  43.9629978  72.5810014
  77.5869992  44.3359978  72.5460014  76.5919992  42.9369978  72.1560014
  75.5369992  44.8439978  71.8820014  74.5179992  44.4429978  72.0680014
  75.6339992  45.9229978  72.1280014  75.8539992  44.7349978  70.3760014
  76.8979992  44.4109978  69.8520014  74.7449992  45.2319978  69.7340014
  74.7719992  44.9999978  68.3320014  73.9909992  45.6389978  67.8670014
  75.7589992  45.2829978  67.9050014  74.3859992  43.5519978  68.0100014
  75.2859992  42.9009978  67.9730014  73.6889992  43.5309978  66.6030014
  73.2039992  44.5299978  66.5670014  74.4949992  43.3789978  65.8530014
  72.7009992  42.4459978  66.6250014  71.3609992  42.7179978  65.8500014
  71.9509992  43.3009978  64.5330014  71.7439992  42.9079978  63.1840014
  71.8469992  41.8019978  63.1720014  70.6859992  43.0839978  62.8930014
  72.5609992  43.7639978  62.2520014  73.5909992  43.4409978  62.2710014
  72.2769992  43.5509978  61.2320014  72.4539992  45.2609978  62.4020014
  71.0719992  45.7249978  62.1690014  70.5619992  45.2079978  62.9690014
  71.1509992  46.8019978  62.1910014  70.6499992  45.3769978  61.2380014
  73.0569992  45.6779978  63.7390014  72.9999992  46.7559978  63.7120014
  72.3659992  45.3879978  64.5160014  74.0769992  45.3869978  63.9430014
  73.3239992  46.0159978  61.4640014  74.0789992  46.5989978  61.9690014
  72.7049992  46.5839978  60.7850014  73.8239992  45.3439978  60.7820014
  70.7099992  41.3869978  65.6250014  70.6089992  43.7009978  66.6630014
  73.3769992  43.1219978  68.9630014  73.6569992  42.1389978  69.7760014
  74.7569992  41.6729978  70.0080014  72.3889992  41.7099978  70.5610014
  72.7569992  40.9409978  71.2740014  71.7099992  41.2589978  69.8060014
  71.8429992  42.8869978  71.3450014  72.6659992  43.3689978  71.9150014
  71.1269992  42.4099978  72.0470014  71.0849992  44.0329978  70.6420014
  70.3839992  43.6169978  69.8870014  71.8229992  44.7029978  70.1510014
  70.2009992  44.9109978  71.5140014  69.3279992  44.3069978  71.8430014
  69.7449992  45.7629978  70.9650014  70.9469992  45.5979978  72.6450014
  71.5319992  46.4349978  72.2060014  71.6579992  44.8949978  73.1290014
  70.0329992  46.0369978  73.8420014  69.3379992  45.2029978  74.0810014
  69.4569992  46.9049978  73.4570014  70.7249992  46.2529978  75.1530014
  71.3019992  45.3459978  75.4360014  69.9589992  46.4629978  75.9300014
  71.7049992  47.4049978  74.8960014  71.2179992  48.3479978  74.6060014
  73.0269992  47.5379978  75.0950014  73.4129992  48.5389978  74.8510014
  73.9719992  46.4689978  75.7030014  75.0449992  46.7489978  75.7690014
  74.1099992  45.5919978  75.0350014  73.7439992  46.0519978  77.2030014
  74.3179992  45.1049978  77.2950014  72.6799992  45.8329978  77.4350014
  74.1529992  47.2319978  78.1880014  73.4649992  48.0639978  77.9270014
  75.2009992  47.4969978  77.9360014  74.0379992  46.8979978  79.6480014
  72.9419992  46.8459978  79.8200014  74.4469992  47.7419978  80.2420014
  74.5639992  45.4799978  80.0750014  73.9569992  44.6539978  79.6450014
  74.4149992  45.4009978  81.1730014  76.1159992  45.3929978  79.9350014
  76.4409992  45.3569978  78.8730014  76.2149992  44.4209978  80.4630014
  76.9469992  46.3119978  80.8470014  76.6899992  47.3689978  80.6250014
  77.9489992  46.1399978  80.3990014  76.8299992  45.9939978  82.3300014
  75.7739992  45.7129978  82.5300014  77.1369992  46.8649978  82.9480014
  77.5239992  45.1609978  82.5750014  67.5149992 106.0189978  81.9910014
  66.4339992 105.7729978  81.9260014  67.6259992 106.6399978  82.9060014
  68.0089992 105.0269978  82.0620014  67.9809992 106.7479978  80.6800014
  67.1219992 107.3759978  80.3620014  68.9109992 107.3459978  80.7900014
  68.3109992 105.6649978  79.5530014  69.2899992 105.1659978  79.7170014
  67.5389992 104.8719978  79.4650014  68.3869992 106.3499978  78.2150014
  67.4659992 106.9149978  77.9580014  69.2689992 107.0239978  78.2750014
  68.4419992 105.3399978  77.0580014  68.9279992 105.8769978  76.2150014
  69.1339992 104.5399978  77.3960014  67.1209992 104.7489978  76.7430014
  67.2749992 104.1769978  75.8030014  66.6869992 104.0779978  77.5150014
  65.8889992 105.6849978  76.4110014  65.4909992 105.9059978  77.4240014
  66.2929992 106.5919978  75.9130014  64.7429992 105.0659978  75.5050014
  64.4799992 104.0989978  75.9860014  63.8089992 105.6679978  75.4900014
  65.1639992 104.7469978  74.0420014  65.7549992 103.8059978  74.0300014
  64.3429992 104.4869978  73.3400014  66.0569992 105.8859978  73.4500014
  65.4399992 106.7989978  73.5930014  66.9839992 105.9819978  74.0550014
  66.2909992 105.7949978  71.9100014  65.3769992 105.7169978  71.2840014
  66.8159992 106.7369978  71.6440014  67.2189992 104.5369978  71.6180014
  68.1199992 104.7169978  72.2430014  66.8869992 103.5699978  72.0510014
  67.6109992 104.3579978  70.1570014  66.6789992 104.0829978  69.6170014
  67.9509992 105.3199978  69.7180014  68.5689992 103.2059978  70.0590014
  69.3269992 103.3909978  70.8500014  68.0809992 102.2339978  70.2840014
  69.4409992 103.2089978  68.7290014  69.8079992 104.2429978  68.5520014
  70.3229992 102.5519978  68.8900014  68.7969992 102.8129978  67.4070014
  69.1019992 103.0879978  66.2530014  67.6169992 102.1629978  67.6880014
  66.5849992 101.9779978  66.7190014  66.8529992 102.0249978  65.6410014
  66.0919992 100.9959978  66.8780014  65.5759992 103.1679978  66.7950014
  64.7199992 102.9719978  66.1140014  66.2479992 104.4589978  66.3310014
  67.2419992 104.6949978  66.7680014  66.5039992 104.1219978  65.3040014
  65.4099992 105.6099978  66.4250014  64.0329992 105.9529978  65.6380014
  64.3559992 107.1509978  64.5700014  65.2859992 108.1289978  64.7900014
  64.6399992 109.0189978  64.6310014  65.6489992 108.1059978  65.8390014
  66.4239992 108.2209978  63.8030014  66.7769992 109.2319978  63.9390014
  67.2309992 107.6279978  64.2080014  66.2729992 107.8569978  62.3660014
  65.0909992 108.6299978  61.7510014  64.3419992 108.5909978  62.5280014
  65.2589992 109.6839978  61.5810014  64.8029992 108.0539978  60.8840014
  67.5619992 108.1819978  61.6570014  68.3069992 107.5509978  62.1190014
  67.4549992 107.8269978  60.6430014  67.8289992 109.2279978  61.6860014
  65.9209992 106.4319978  62.2280014  66.7069992 105.7459978  62.5080014
  65.6499992 106.2589978  61.1970014  65.0219992 106.2879978  62.8080014
  63.6299992 104.7779978  64.7580014  63.0079992 106.4319978  66.5210014
  65.1149992 103.4279978  68.0920014  64.2899992 102.4779978  68.5160014
  64.1209992 101.3929978  67.9770014  63.8899992 102.8399978  69.9370014
  63.2649992 103.7519978  70.0500014  64.8549992 103.0359978  70.4500014
  63.1719992 101.7029978  70.5710014  63.7789992 100.7959978  70.3620014
  62.2279992 101.3519978  70.1030014  62.9779992 101.8229978  72.1110014
  61.9289992 101.7509978  72.4700014  63.3989992 102.8139978  72.3840014
  63.9549992 100.9149978  72.8620014  64.8939992 100.9999978  72.2740014
  63.5219992  99.8979978  72.7520014  64.1169992 101.1759978  74.3590014
  64.4569992 102.2339978  74.3580014  64.9759992 100.5869978  74.7460014
  62.8179992 101.1419978  75.1630014  62.3819992 100.1219978  75.1160014
  62.0829992 101.8539978  74.7310014  63.0529992 101.4189978  76.6300014
  62.1289992 101.8989978  77.0170014  63.8389992 102.2029978  76.6880014
  63.1529992 100.1479978  77.4710014  62.2619992  99.5029978  77.4600014
  64.1309992  99.7399978  78.2430014  63.9269992  98.7869978  78.7530014
  65.5039992 100.4469978  78.5350014  65.5809992 101.4749978  78.1210014
  66.3159992  99.8229978  78.1040014  66.0119992 100.5049978  80.0430014
  66.9179992 101.1489978  80.0590014  66.3069992  99.4829978  80.3620014
  64.9059992 100.9779978  81.0080014  65.3909992 101.1689978  81.9900014
  64.2779992 100.0889978  81.2330014  64.1169992 102.2599978  80.5890014
  63.1359992 102.2909978  81.1100014  63.8569992 102.2229978  79.5090014
  64.7649992 103.6229978  80.7640014  65.7869992 103.5739978  80.3310014
  65.0169992 103.7939978  81.8320014  63.8299992 104.8179978  80.4170014
  63.7339992 104.8789978  79.3120014  64.3249992 105.7739978  80.6930014
  62.3629992 104.8849978  81.0230014  61.7569992 104.0639978  80.5830014
  61.9989992 105.8279978  80.5620014  62.3269992 104.8709978  82.5540014
  62.9639992 105.6839978  82.9640014  62.8209992 103.9219978  82.8550014
  61.2969992 104.7989978  82.9640014  39.4989992  70.2119978  84.7110014
  40.3239992  70.3579978  83.9810014  39.6239992  69.1169978  84.8510014
  39.8949992  70.7179978  85.6170014  38.0409992  70.6679978  84.3680014
  37.3709992  70.2669978  85.1570014  37.9709992  71.7729978  84.4660014
  37.6479992  70.4219978  82.9640014  38.1989992  71.0919978  82.2700014
  37.9759992  69.3849978  82.7380014  36.0769992  70.4829978  82.6270014
  35.5189992  69.8299978  83.3320014  35.7509992  71.5219978  82.8460014
  35.6699992  70.1789978  81.1870014  35.5269992  69.0779978  81.1280014
  34.6559992  70.6309978  81.1480014  36.5169992  70.5809978  80.0290014
  37.4789992  70.0269978  80.0690014  35.9009992  70.1899978  79.1910014
  36.7639992  72.0309978  79.9510014  35.8009992  72.5819978  80.0080014
  37.1669992  72.3179978  80.9460014  37.6499992  72.5029978  78.7160014
  37.6789992  73.6079978  78.6060014  38.6589992  72.1049978  78.9560014
  37.3339992  71.9459978  77.3090014  38.1239992  72.3059978  76.6150014
  37.4599992  70.8509978  77.4520014  35.9409992  72.4169978  76.9700014
  35.2669992  71.8609978  77.6550014  35.7969992  73.4959978  77.1940014
  35.4919992  72.1669978  75.5280014  35.4339992  71.0649978  75.4000014
  34.4699992  72.5879978  75.4180014  36.3529992  73.0159978  74.4800014
  35.9579992  74.0319978  74.6950014  37.4309992  72.8809978  74.7160014
  36.0929992  72.5519978  73.0320014  34.9909992  72.5949978  72.8980014
  36.4859992  73.4099978  72.4460014  36.8479992  71.2869978  72.4940014
  37.9209992  71.3249978  72.7810014  36.4319992  70.4069978  73.0280014
  36.6909992  71.0159978  70.9690014  37.0379992  69.9759978  70.7900014
  35.5909992  70.9459978  70.8250014  37.4299992  71.8599978  69.9250014
  38.4199992  72.5449978  70.1570014  36.8009992  71.8249978  68.8260014
  37.3189992  72.5129978  67.6620014  36.5549992  73.1989978  67.2380014
  38.2679992  73.0749978  67.7940014  37.6379992  71.4959978  66.5000014
  38.0989992  72.1099978  65.6960014  36.3619992  70.9009978  65.9510014
  35.9859992  70.3839978  66.8600014  35.5829992  71.6929978  65.9300014
  36.5419992  70.1229978  64.8160014  36.5439992  68.4799978  64.9840014
  37.7859992  68.1219978  64.0890014  38.1719992  68.8689978  62.9050014
  38.4949992  68.1549978  62.1180014  37.3969992  69.3699978  62.2870014
  39.2269992  69.9749978  63.2000014  39.2359992  70.6309978  62.3420014
  38.9869992  70.5849978  64.0590014  40.6379992  69.5009978  63.3990014
  41.2219992  69.0589978  62.0650014  42.2619992  68.7839978  62.1560014
  40.7669992  68.1489978  61.7010014  41.0339992  69.8439978  61.3480014
  41.4839992  70.7269978  63.8650014  41.2329992  71.5619978  63.2270014
  41.2199992  70.9929978  64.8780014  42.5049992  70.3839978  63.7850014
  40.7759992  68.3959978  64.3760014  40.7609992  68.8119978  65.3730014
  41.7269992  67.9079978  64.2190014  39.8899992  67.7829978  64.4440014
  36.9499992  68.0999978  66.3800014  35.2889992  67.9229978  64.4270014
  38.5999992  70.4669978  66.9350014  39.8579992  70.7919978  67.1110014
  40.3769992  71.8479978  66.8990014  40.6389992  69.6789978  67.8670014
  41.3589992  69.2019978  67.1680014  39.9169992  68.9179978  68.2310014
  41.3899992  70.2489978  69.1330014  40.6929992  70.2899978  69.9970014
  41.7929992  71.2739978  68.9860014  42.5829992  69.2879978  69.5270014
  43.2259992  69.1529978  68.6320014  42.1599992  68.3049978  69.8260014
  43.3589992  69.7529978  70.7780014  43.1179992  70.8299978  70.9040014
  44.4019992  69.5789978  70.4370014  42.9639992  69.0319978  72.1920014
  43.7439992  69.4349978  72.8720014  43.0449992  67.9249978  72.1420014
  41.5779992  69.4869978  72.6000014  40.8969992  69.1229978  71.8010014
  41.4819992  70.5899978  72.6890014  41.1079992  68.6639978  73.9610014
  41.1459992  67.5859978  73.6960014  40.0349992  68.8629978  74.1660014
  41.9669992  68.9829978  75.1830014  43.0499992  68.9669978  74.9920014
  41.5159992  69.4079978  76.3830014  42.3129992  69.6279978  77.1080014
  40.1859992  69.6929978  76.9360014  39.4409992  69.6249978  76.1150014
  40.1799992  70.7009978  77.4040014  39.8439992  68.7119978  78.0160014
  40.2479992  67.7229978  77.7100014  38.7469992  68.5339978  78.0300014
  40.3269992  69.1869978  79.4080014  39.8859992  70.1579978  79.7160014
  41.4379992  69.1759978  79.4080014  39.8719992  68.2909978  80.6440014
  38.8089992  67.9979978  80.5070014  39.7529992  68.9129978  81.5570014
  40.7499992  67.0029978  80.8840014  41.8259992  67.1929978  81.0830014
  40.6989992  66.2059978  80.1110014  40.2439992  66.3259978  82.1570014
  39.1959992  65.9669978  82.0740014  40.1879992  67.1289978  82.9230014
  41.1529992  65.2349978  82.6630014  42.1859992  65.6329978  82.5710014
  41.0969992  64.3899978  81.9440014  40.8069992  64.9029978  84.1470014
  39.7019992  64.8279978  84.2240014  41.2569992  65.6129978  84.8750014
  41.1869992  63.8929978  84.4090014  42.0579992  87.3529978  81.0470014
  42.4249992  88.3719978  81.2930014  42.6159992  86.9419978  80.1780014
  41.9679992  86.6819978  81.9270014  40.6629992  87.5779978  80.5330014
  40.0609992  87.8859978  81.4140014  40.7209992  88.3499978  79.7360014
  39.9919992  86.4169978  79.8060014  39.8309992  85.5329978  80.4600014
  39.0089992  86.8559978  79.5320014  40.6149992  85.9219978  78.4010014
  41.6819992  85.6419978  78.5300014  40.1039992  84.9729978  78.1290014
  40.5979992  86.9509978  77.2340014  40.8849992  87.9469978  77.6350014
  41.3429992  86.6399978  76.4700014  39.3549992  87.0599978  76.4610014
  39.4139992  86.5249978  75.4900014  38.6009992  86.4959978  77.0510014
  38.9679992  88.4969978  76.1410014  38.7659992  89.1849978  76.9900014
  39.7999992  89.0269978  75.6280014  37.6819992  88.4579978  75.2410014
  37.7599992  87.7409978  74.3960014  36.7609992  88.1879978  75.8000014
  37.4299992  89.8359978  74.5880014  36.5209992  89.5829978  74.0020014
  37.1409992  90.5749978  75.3670014  38.5219992  90.3999978  73.6510014
  38.0679992  91.2669978  73.1240014  39.4199992  90.7359978  74.2140014
  39.1439992  89.4689978  72.6160014  39.9959992  89.0319978  73.1780014
  38.3499992  88.7319978  72.3670014  39.4879992  90.1769978  71.3150014
  38.5419992  90.4969978  70.8280014  40.1049992  91.0029978  71.7280014
  40.3159992  89.2709978  70.3560014  39.6729992  88.4069978  70.0810014
  40.4919992  89.9189978  69.4710014  41.6159992  88.6839978  70.8690014
  42.1909992  89.4819978  71.3870014  41.3689992  88.0179978  71.7230014
  42.5239992  88.0109978  69.7840014  42.7669992  88.6459978  68.9050014
  43.3909992  87.5809978  70.3280014  41.8499992  86.8559978  69.0550014
  41.3899992  85.8809978  69.6480014  41.7669992  87.0919978  67.7260014
  40.9659992  86.1629978  66.9570014  41.3399992  86.1679978  65.9110014
  41.0249992  85.1439978  67.3970014  39.4339992  86.6639978  66.9490014
  38.7599992  86.1289978  66.2470014  39.2409992  88.1839978  66.5740014
  39.7789992  88.7579978  67.3590014  39.6589992  88.4689978  65.5840014
  37.9359992  88.6419978  66.7010014  36.7789992  88.2929978  65.6090014
  37.6199992  87.6819978  64.4330014  37.3009992  86.3729978  63.8580014
  37.3769992  85.5309978  64.5800014  36.2189992  86.3849978  63.6060014
  38.0099992  86.1269978  62.4530014  37.6159992  85.2289978  62.0020014
  37.9169992  86.9509978  61.7600014  39.5079992  85.9449978  62.5020014
  39.9919992  85.3089978  61.2430014  39.7199992  85.8489978  60.3480014
  41.0599992  85.2059978  61.3640014  39.5819992  84.3129978  61.1630014
  40.1529992  87.2949978  62.8590014  39.9919992  87.5589978  63.8940014
  41.2089992  87.0669978  62.8690014  39.8669992  88.0139978  62.1060014
  39.7659992  84.8559978  63.5880014  39.6129992  83.8689978  63.1790014
  38.9769992  84.8769978  64.3250014  40.7429992  84.9969978  64.0280014
  35.9529992  87.2139978  66.1340014  36.1249992  89.5299978  65.1240014
  38.9209992  86.6199978  68.3330014  38.3349992  85.5609978  68.8140014
  38.1669992  84.4759978  68.3040014  37.9329992  85.7859978  70.2750014
  37.1239992  86.5459978  70.2260014  38.7489992  86.2509978  70.8690014
  37.3749992  84.5189978  70.9340014  38.1969992  83.7789978  70.8340014
  36.4899992  84.1069978  70.4040014  36.9169992  84.6379978  72.3580014
  37.7439992  85.0999978  72.9380014  36.8879992  83.5799978  72.6960014
  35.6409992  85.4909978  72.6280014  34.7769992  84.8829978  72.2850014
  35.7859992  86.4799978  72.1440014  35.3229992  85.7309978  74.1830014
  34.4219992  86.3789978  74.2310014  36.2299992  86.1989978  74.6230014
  35.1029992  84.4169978  75.0260014  36.0539992  83.8439978  75.0000014
  34.2169992  83.9239978  74.5740014  34.7729992  84.7369978  76.4770014
  34.5759992  83.7309978  76.9040014  33.8379992  85.3279978  76.5770014
  35.8469992  85.4309978  77.3280014  36.9009992  85.2289978  77.0850014
  35.6289992  86.3919978  78.2920014  36.4989992  86.7999978  78.8280014
  34.2389992  86.8689978  78.6800014  33.7449992  87.3979978  77.8380014
  34.1629992  87.6669978  79.4490014  33.2399992  85.6449978  79.1130014
  32.8749992  85.0539978  78.2460014  32.3639992  86.2209978  79.4790014
  33.7289992  84.8259978  80.3200014  34.6509992  84.2689978  80.0470014
  32.8519992  84.1799978  80.5390014  34.0729992  85.5139978  81.6740014
  33.2259992  86.1549978  81.9980014  34.8709992  86.2739978  81.5280014
  34.4099992  84.5369978  82.7730014  34.8529992  85.0809978  83.6350014
  35.2279992  83.8669978  82.4330014  33.3629992  83.4759978  83.2540014
  33.0239992  82.9739978  82.3220014  32.4989992  84.0499978  83.6530014
  33.8719992  82.5099978  84.3690014  34.6639992  81.8589978  83.9420014
  33.0359992  81.8139978  84.5960014  34.2709992  83.1879978  85.7060014
  35.3369992  83.4999978  85.7000014  34.1599992  82.4299978  86.5110014
  33.6949992  84.0969978  85.9830014  38.0289992  57.7039978  84.3570014
  36.9719992  58.0359978  84.2670014  38.6479992  58.3219978  85.0420014
  38.0339992  56.6879978  84.8070014  38.6459992  57.6999978  82.9310014
  39.5319992  57.0379978  82.8260014  37.7929992  57.3769978  82.2960014
  38.9799992  59.0559978  82.3900014  38.2289992  59.8479978  82.6010014
  39.7839992  59.4589978  83.0430014  39.1749992  59.0009978  80.8930014
  39.9229992  58.2209978  80.6360014  38.2869992  58.6799978  80.3090014
  39.9769992  60.1439978  80.0730014  39.3579992  61.0589978  79.9550014
  40.8639992  60.3349978  80.7140014  40.4699992  59.7019978  78.6870014
  39.5529992  59.3009978  78.2040014  40.7209992  60.7009978  78.2700014
  41.5469992  58.6449978  78.5410014  42.4579992  59.1659978  78.9050014
  41.4089992  57.7219978  79.1430014  41.8889992  58.1049978  77.1040014
  41.9549992  58.9789978  76.4210014  42.8519992  57.5709978  77.2500014
  40.8379992  57.0919978  76.6130014  40.8259992  56.3309978  77.4210014
  39.8569992  57.6109978  76.5600014  41.2189992  56.4289978  75.2950014
  42.1849992  55.9009978  75.4410014  40.4649992  55.6209978  75.1740014
  41.2889992  57.3479978  74.0930014  40.3189992  57.8809978  74.0030014
  42.1249992  58.0679978  74.2200014  41.5469992  56.4679978  72.7970014
  42.4189992  55.7849978  72.8800014  40.6329992  55.8669978  72.6020014
  41.8789992  57.2849978  71.4690014  40.9819992  57.9289978  71.3480014
  42.8189992  57.8749978  71.5090014  41.7729992  56.4769978  70.2520014
  42.3079992  56.9759978  69.4160014  42.3829992  55.5489978  70.2370014
  40.2899992  56.1099978  69.8620014  39.7829992  55.4059978  70.5550014
  39.7539992  57.0799978  69.7750014  40.3249992  55.3719978  68.4960014
  41.2759992  55.3799978  67.6930014  39.1909992  54.7889978  68.2890014
  39.0699992  54.0229978  67.0750014  40.0219992  53.8169978  66.5410014
  38.7209992  53.0049978  67.3530014  38.0399992  54.5979978  66.0960014
  37.6839992  53.8769978  65.3300014  38.4629992  55.8749978  65.3250014
  39.4149992  55.7019978  64.7790014  37.6969992  56.1099978  64.5550014
  38.5069992  56.9629978  66.2650014  39.3369992  58.2319978  65.9280014
  39.2419992  58.3109978  64.3950014  39.8969992  59.4399978  63.8150014
  40.6069992  60.0119978  64.4500014  40.5109992  59.1079978  62.9510014
  38.8669992  60.3659978  63.1970014  38.3859992  60.9209978  63.9890014
  39.4559992  61.1219978  62.6980014  37.7969992  59.7949978  62.2540014
  36.6539992  59.1539978  62.9750014  36.3279992  59.7209978  63.8340014
  35.8109992  58.8959978  62.3520014  36.9719992  58.1539978  63.2320014
  37.2329992  61.0219978  61.5840014  36.5839992  60.6239978  60.8180014
  36.7699992  61.6239978  62.3530014  38.0719992  61.5669978  61.1780014
  38.4259992  58.9819978  61.2550014  37.7129992  58.5209978  60.5880014
  39.0309992  58.1489978  61.5810014  39.1109992  59.5629978  60.6550014
  38.6559992  59.4159978  66.5490014  40.7379992  57.9129978  66.2870014
  36.8619992  54.7289978  66.8460014  35.7349992  54.8129978  66.1790014
  35.6689992  54.8619978  64.9620014  34.6039992  55.0689978  67.1970014
  34.6919992  54.3989978  68.0780014  33.6409992  54.8999978  66.6690014
  34.6639992  56.4869978  67.6830014  33.7379992  56.7029978  68.2580014
  34.8329992  57.1929978  66.8420014  35.8369992  56.9069978  68.6230014
  36.7199992  57.0909978  67.9740014  36.1749992  56.1529978  69.3650014
  35.4379992  58.1149978  69.4300014  34.6449992  57.8769978  70.1700014
  34.9679992  58.9249978  68.8330014  36.4819992  58.8269978  70.1870014
  36.1459992  59.8119978  70.5760014  37.1849992  59.1599978  69.3930014
  37.1689992  58.0449978  71.3470014  37.8459992  57.2879978  70.8970014
  36.3939992  57.5069978  71.9340014  37.9829992  58.8959978  72.3820014
  38.8999992  59.2479978  71.8620014  38.3149992  58.0979978  73.0800014
  37.2019992  59.9859978  73.1220014  37.2019992  61.0059978  72.7110014
  36.3299992  59.6999978  74.1920014  35.8139992  60.6049978  74.5450014
  35.9839992  58.3879978  74.8340014  36.9079992  57.7719978  74.8720014
  35.2189992  57.7949978  74.2880014  35.4189992  58.7249978  76.2010014
  34.4809992  59.3079978  76.0790014  36.1019992  59.3039978  76.8580014
  35.1539992  57.5129978  77.0860014  34.3559992  56.8889978  76.6310014
  34.6929992  58.0449978  77.9450014  36.4419992  56.8849978  77.6060014
  36.9299992  57.5299978  78.3670014  37.1859992  56.6819978  76.8060014
  36.1849992  55.4979978  78.1720014  37.1529992  55.0979978  78.5450014
  35.9399992  54.9519978  77.2370014  35.1149992  55.5579978  79.3020014
  34.1459992  55.3819978  78.7890014  35.0709992  56.5409978  79.8180014
  35.3949992  54.6059978  80.4700014  36.4849992  54.6489978  80.6770014
  35.2049992  53.5549978  80.1620014  34.7569992  55.0529978  81.7110014
  35.0339992  56.0939978  81.9810014  35.1619992  54.4299978  82.5370014
  33.6499992  55.0079978  81.6300014  52.2989992  47.2379978  80.8100014
  53.1939992  47.6559978  81.3180014  51.8349992  46.3809978  81.3430014
  51.5399992  48.0409978  80.9150014  52.7489992  46.9999978  79.3640014
  53.3379992  47.8369978  78.9320014  53.4419992  46.1339978  79.2980014
  51.5889992  46.7409978  78.3090014  51.9809992  46.5599978  77.2850014
  50.9589992  45.9059978  78.6850014  50.5779992  47.8979978  78.1690014
  50.0729992  47.9679978  79.1560014  51.1159992  48.8379978  77.9220014
  49.5079992  47.6919978  77.1000014  48.7529992  48.4839978  77.2950014
  49.9549992  47.8239978  76.0910014  48.7729992  46.3749978  77.1610014
  49.5099992  45.5469978  77.0830014  48.2489992  46.1819978  78.1210014
  47.6519992  46.2039978  76.0950014  47.2309992  45.1759978  76.0750014
  46.8069992  46.9029978  76.2730014  48.1169992  46.4009978  74.6550014
  48.8229992  47.2519978  74.5510014  48.7649992  45.5299978  74.4200014
  47.0709992  46.3709978  73.5320014  46.6499992  47.3569978  73.2390014
  47.6689992  46.1199978  72.6290014  46.0549992  45.3369978  73.6580014
  46.5219992  44.4109978  74.0580014  45.1949992  45.6829978  74.2700014
  45.3229992  44.9169978  72.3040014  46.0699992  44.5299978  71.5780014
  44.5149992  44.2279978  72.6320014  44.6819992  46.0139978  71.4820014
  43.8089992  45.6549978  70.8970014  44.2809992  46.8089978  72.1470014
  45.7069992  46.6729978  70.5680014  45.1159992  47.4389978  70.0210014
  46.5479992  47.1769978  71.0910014  46.4039992  45.7669978  69.4630014
  47.1339992  45.0389978  69.8770014  45.5949992  45.1539978  69.0110014
  47.0649992  46.5509978  68.3060014  47.2269992  45.8319978  67.4740014
  46.3749992  47.3719978  68.0160014  48.4329992  47.1319978  68.6840014
  48.6279992  47.6959978  69.7320014  49.3399992  46.7709978  67.7720014
  50.6729992  46.9499978  67.9060014  51.1089992  47.3109978  66.9500014
  50.9309992  47.7059978  68.6780014  51.3629992  45.5399978  68.0520014
  52.4319992  45.7119978  68.3000014  51.2949992  44.7129978  66.6820014
  51.7569992  45.2969978  65.8580014  51.8109992  43.7489978  66.8780014
  49.9469992  44.5219978  66.3040014  49.6769992  44.0709978  64.8130014
  49.7489992  45.4829978  64.0940014  49.3069992  45.7019978  62.7830014
  50.1769992  45.8189978  62.1020014  48.6649992  44.8849978  62.3900014
  48.5639992  47.0209978  62.5620014  49.1779992  47.8849978  62.3530014
  48.0259992  46.8989978  61.6340014  47.4949992  47.5489978  63.5060014
  48.1249992  48.0859978  64.7300014  47.5149992  48.2169978  65.6110014
  48.9329992  47.4579978  65.0730014  48.5599992  49.0549978  64.5350014
  46.7389992  48.7139978  62.8080014  46.2669992  48.2419978  61.9590014
  45.8759992  49.0619978  63.3560014  47.4999992  49.4249978  62.5200014
  46.5969992  46.4599978  63.9690014  45.9619992  46.1969978  63.1360014
  46.0469992  46.7599978  64.8500014  47.1509992  45.6039978  64.3230014
  50.8419992  43.2469978  64.3130014  48.2899992  43.5239978  64.6240014
  50.7069992  44.7659978  69.1180014  51.1439992  45.0859978  70.3750014
  52.1729992  45.7619978  70.6300014  50.2099992  44.5489978  71.5720014
  49.6069992  45.3879978  71.9800014  50.9809992  44.2429978  72.3100014
  49.4279992  43.3119978  71.2400014  50.1349992  42.6509978  70.6950014
  48.6099992  43.5909978  70.5410014  48.8039992  42.5359978  72.4030014
  47.9759992  43.1059978  72.8760014  49.5779992  42.4069978  73.1890014
  48.3589992  41.0749978  72.0390014  49.1969992  40.3899978  71.7850014
  47.7729992  41.2429978  71.1100014  47.3659992  40.4299978  72.9980014
  46.9619992  39.7459978  72.2210014  46.5749992  41.1289978  73.3450014
  48.1969992  39.7129978  74.0570014  49.1579992  39.3339978  73.6490014
  47.6949992  38.7409978  74.2480014  48.2339992  40.4859978  75.4060014
  47.1859992  40.8459978  75.4900014  48.8629992  41.4009978  75.3690014
  48.5389992  39.5229978  76.5180014  47.7909992  38.7419978  76.7210014
  49.6329992  39.5509978  77.3090014  49.7019992  38.8019978  78.1110014
  50.7699992  40.5159978  77.1950014  50.9179992  40.8579978  76.1480014
  51.7769992  40.1649978  77.5060014  50.4539992  41.6949978  78.1060014
  49.4289992  42.0529978  77.8690014  51.0959992  42.5419978  77.7840014
  50.8179992  41.5509978  79.5730014  51.8629992  41.2829978  79.8370014
  50.3479992  40.6959978  80.1030014  50.7159992  42.8819978  80.3730014
  51.4479992  43.5409978  79.8580014  51.0509992  42.7249978  81.4210014
  49.3029992  43.5249978  80.3970014  48.6619992  42.9019978  81.0580014
  48.8319992  43.4809978  79.3920014  49.2559992  44.9919978  81.0580014
  48.1589992  45.1619978  81.0050014  49.7309992  45.6949978  80.3410014
  49.9019992  45.0509978  82.4830014  49.8029992  46.1049978  82.8230014
  50.9399992  44.6549978  82.4780014  49.3189992  44.1589978  83.6300014
  48.8829992  43.2199978  83.2250014  48.5439992  44.7389978  84.1750014
  50.1919992  43.9709978  84.2900014  55.2719992  44.1739978  80.8890014
  56.2769992  43.7009978  80.8970014  55.0279992  44.2869978  81.9670014
  55.2619992  45.1469978  80.3540014  54.3409992  43.1449978  80.2400014
  54.1379992  42.3269978  80.9650014  53.3169992  43.5139978  80.0190014
  54.8749992  42.5729978  78.8650014  55.1989992  43.3789978  78.1720014
  55.8679992  42.1279978  79.0890014  53.8409992  41.6109978  78.2390014
  53.7429992  40.7999978  78.9930014  52.8549992  42.1209978  78.1910014
  54.2909992  40.9899978  76.8910014  55.2999992  40.5699978  77.0950014
  53.5719992  40.1739978  76.6630014  54.2799992  41.9679978  75.7060014
  53.2209992  42.3019978  75.6530014  54.9189992  42.8619978  75.8680014
  54.7669992  41.3929978  74.4190014  55.1259992  42.1489978  73.6880014
  55.6569992  40.7839978  74.6880014  53.7889992  40.2509978  73.8400014
  53.9599992  39.4119978  74.5480014  52.7369992  40.6049978  73.8800014
  54.1299992  39.9079978  72.3980014  55.2389992  39.9019978  72.3220014
  53.7119992  38.9139978  72.1320014  53.6489992  41.0019978  71.3530014
  52.5859992  40.8279978  71.0820014  53.7359992  42.0299978  71.7650014
  54.5639992  40.8299978  70.0860014  55.5239992  41.3239978  70.3470014
  54.8569992  39.8099978  69.7560014  53.9279992  41.5349978  68.8540014
  54.6929992  41.5329978  68.0480014  53.0409992  40.9399978  68.5490014
  53.5869992  43.0169978  69.0700014  52.9309992  43.0779978  69.9650014
  54.4219992  43.7149978  69.2940014  52.7689992  43.6159978  67.9830014
  53.3599992  43.6229978  67.0420014  51.8969992  42.9569978  67.7840014
  52.1849992  45.0189978  68.2380014  51.1529992  45.0429978  67.8280014
  52.1719992  45.2489978  69.3250014  53.0519992  46.0929978  67.6030014
  53.1659992  47.2379978  68.0880014  53.4359992  45.7009978  66.3690014
  54.2849992  46.6029978  65.6690014  53.6909992  47.0569978  64.8470014
  54.6449992  47.4649978  66.2700014  55.3799992  45.7809978  64.9810014
  55.9649992  46.4589978  64.3240014  54.6399992  44.7539978  63.9980014
  53.9339992  45.3899978  63.4240014  55.4459992  44.4369978  63.3020014
  54.1109992  43.7079978  64.7870014  54.2639992  42.1809978  64.4110014
  55.8559992  42.0949978  64.4470014  56.4989992  41.1579978  63.5120014
  56.8249992  40.2499978  64.0620014  55.8649992  40.6899978  62.7290014
  57.7029992  41.9139978  62.8140014  58.2179992  41.1909978  62.1990014
  57.3029992  42.7059978  62.1990014  58.7659992  42.4329978  63.7780014
  59.0029992  41.3199978  64.8500014  58.0619992  41.1489978  65.3510014
  59.2729992  40.4099978  64.3340014  59.6749992  41.7569978  65.5740014
  60.0959992  42.5869978  63.0230014  59.9889992  43.2649978  62.1900014
  60.8499992  42.9019978  63.7290014  60.3909992  41.6059978  62.6800014
  58.2589992  43.6529978  64.4110014  58.3379992  44.5449978  63.8080014
  58.6789992  43.6839978  65.4050014  57.1939992  43.5059978  64.5130014
  53.7319992  41.2799978  65.4710014  53.7789992  42.0899978  63.0020014
  56.1539992  45.1849978  66.0390014  57.0309992  46.0289978  66.7160014
  57.3259992  47.1239978  66.3780014  57.6319992  45.2369978  67.9450014
  58.1399992  44.3419978  67.5270014  56.7519992  45.0799978  68.6050014
  58.7079992  45.9669978  68.7700014  58.2949992  46.8529978  69.2980014
  59.3729992  46.4839978  68.0450014  59.7249992  45.1099978  69.5630014
  60.6929992  45.5299978  69.9100014  59.9869992  44.3899978  68.7580014
  59.0629992  44.2279978  70.6950014  59.8709992  44.0749978  71.4420014
  58.6609992  43.2539978  70.3410014  58.0859992  45.1029978  71.5390014
  57.3099992  45.4019978  70.8030014  58.6159992  46.0559978  71.7490014
  57.5339992  44.4199978  72.7690014  57.1279992  43.4279978  72.4770014
  56.6269992  44.9569978  73.1210014  58.5129992  44.4079978  73.8880014
  58.8099992  45.4369978  74.1830014  59.4849992  43.9829978  73.5610014
  58.0939992  43.5759978  75.1220014  58.4969992  42.5519978  75.1200014
  57.5109992  43.9899978  76.2910014  57.3059992  43.2789978  77.1050014
  57.1389992  45.4189978  76.5670014  56.0329992  45.5279978  76.5460014
  57.5639992  46.0919978  75.7920014  57.6749992  45.9099978  77.9490014
  58.7759992  45.8559978  78.0880014  57.1329992  45.3169978  78.7160014
  57.3229992  47.4299978  78.1500014  56.2289992  47.4899978  77.9670014
  57.7299992  48.1529978  77.4110014  57.5739992  47.8919978  79.6030014
  58.6369992  48.2149978  79.6050014  57.6399992  47.0299978  80.3010014
  56.6729992  48.9499978  80.2650014  55.5969992  48.6789978  80.2130014
  56.7539992  49.7139978  79.4620014  57.0129992  49.3809978  81.6170014
  56.4839992  50.2959978  81.9580014  58.0949992  49.5889978  81.4730014
  56.6889992  48.2289978  82.6550014  57.6879992  47.7669978  82.8030014
  55.9359992  47.5099978  82.2680014  56.0759992  48.7949978  83.9410014
  55.1809992  49.4159978  83.7240014  56.7649992  49.4509978  84.5150014
  55.8479992  47.9599978  84.6360014 105.3189992  62.7559978  82.0830014
 105.4229992  61.7809978  82.6050014 104.7299992  63.4529978  82.7170014
 106.3259992  63.0649978  81.7310014 104.5429992  62.4959978  80.7750014
 104.5369992  61.4229978  80.4860014 103.4679992  62.5739978  81.0430014
 104.8949992  63.4549978  79.6340014 104.0619992  64.1779978  79.5120014
 105.8329992  63.9739978  79.9270014 104.9579992  62.7769978  78.2190014
 105.6449992  61.9069978  78.1440014 103.9719992  62.3539978  77.9310014
 105.2909992  63.8329978  77.0870014 104.5029992  64.6109978  77.1680014
 106.3129992  64.1729978  77.3600014 105.3159992  63.2839978  75.6920014
 106.1279992  62.5259978  75.7190014 104.3669992  62.9279978  75.2380014
 105.8489992  64.3719978  74.6770014 106.9059992  64.4739978  75.0020014
 105.8959992  63.8599978  73.6920014 105.1629992  65.7339978  74.6380014
 105.2259992  66.2119978  75.6390014 105.6999992  66.3889978  73.9180014
 103.6379992  65.5909978  74.2250014 103.0309992  64.9039978  74.8520014
 103.2659992  66.6139978  74.4490014 103.5009992  65.0599978  72.7250014
 103.7039992  63.9749978  72.8500014 102.4769992  65.0229978  72.2970014
 104.4229992  65.7799978  71.7280014 104.0119992  66.8069978  71.6220014
 105.5099992  65.7979978  71.9540014 104.3209992  65.0789978  70.3620014
 104.4509992  63.9829978  70.4900014 103.2409992  65.1889978  70.1280014
 105.0819992  65.5719978  69.0640014 106.0839992  65.1049978  69.1680014
 104.6339992  65.2399978  68.1030014 105.2339992  67.0819978  68.9690014
 104.1719992  67.4089978  68.9880014 105.7249992  67.4269978  69.9040014
 106.0399992  67.5959978  67.7560014 105.6339992  67.0799978  66.8610014
 105.9929992  68.6899978  67.5630014 107.4749992  67.3139978  67.9690014
 108.0049992  67.2539978  69.0390014 108.0619992  67.0059978  66.7600014
 109.4109992  66.4379978  66.9300014 110.1189992  67.0569978  66.3390014
 109.7959992  66.5099978  67.9690014 109.5979992  64.9039978  66.5720014
 110.6639992  64.6989978  66.8070014 109.3389992  64.5209978  65.0700014
 109.7219992  65.3229978  64.4040014 109.8579992  63.5729978  64.8110014
 107.9609992  64.3679978  64.8400014 107.4709992  63.8109978  63.4070014
 105.8849992  63.8979978  63.5270014 105.3349992  63.7849978  64.8860014
 105.9009992  64.1699978  65.7610014 104.3679992  64.3279978  64.9590014
 105.0219992  62.3479978  65.0510014 105.8709992  61.7519978  64.7490014
 104.7829992  62.1559978  66.0870014 103.7439992  61.8319978  64.3880014
 102.5299992  62.3389978  65.1340014 102.6149992  62.2339978  66.2060014
 102.5979992  63.4089978  65.0000014 101.6499992  61.9489978  64.6450014
 103.6119992  62.0339978  62.9300014 102.6019992  61.7089978  62.7250014
 103.5919992  63.1109978  62.8500014 104.4469992  61.5439978  62.4520014
 103.8409992  60.2859978  64.5930014 104.5649992  59.8019978  63.9540014
 102.8389992  59.9279978  64.4050014 104.0789992  59.9849978  65.6030014
 107.8999992  64.7719978  62.3830014 107.8949992  62.3929978  63.3670014
 108.8269992  64.1209978  67.5380014 108.7519992  62.7889978  67.4840014
 109.4789992  62.0019978  66.8750014 107.4699992  62.3079978  68.1920014
 107.3039992  61.2689978  67.8330014 106.6489992  63.0079978  67.9260014
 107.5879992  62.4499978  69.7670014 106.6279992  62.0389978  70.1470014
 107.6189992  63.5449978  69.9570014 108.7849992  61.6979978  70.3970014
 109.6819992  62.3179978  70.1880014 108.7909992  60.7229978  69.8630014
 108.6779992  61.7549978  71.9350014 108.1369992  60.7939978  72.0660014
 108.0829992  62.6119978  72.3170014 109.9909992  61.6829978  72.6470014
 110.4459992  62.6929978  72.7340014 110.6499992  60.9179978  72.1840014
 109.8219992  61.3349978  74.1460014 110.8039992  61.2419978  74.6580014
 109.1209992  60.4729978  74.1540014 109.1089992  62.4209978  75.0190014
 108.6899992  62.0089978  75.9620014 108.1849992  62.6589978  74.4510014
 109.9919992  63.6059978  75.4000014 110.2839992  64.2179978  74.5340014
 110.3059992  64.0039978  76.5870014 110.8309992  64.9619978  76.7110014
 109.8909992  63.3829978  77.8840014 110.7319992  62.7449978  78.2290014
 108.9869992  62.7459978  77.7780014 109.6899992  64.4219978  79.0400014
 108.8649992  65.1079978  78.7500014 110.6829992  64.9209978  79.0400014
 109.3799992  63.6399978  80.3120014 110.0509992  62.7549978  80.2910014
 108.3829992  63.1659978  80.1900014 109.5229992  64.4789978  81.6380014
 110.5559992  64.8709978  81.7580014 109.4059992  63.7789978  82.4920014
 108.4789992  65.5559978  81.7940014 107.5969992  64.9339978  82.0590014
 108.2789992  65.9649978  80.7810014 108.5269992  66.5749978  82.9870014
 108.9159992  66.2119978  83.9620014 107.4489992  66.7569978  83.1900014
 109.0839992  67.9759978  82.5650014 108.8639992  68.5669978  83.4810014
 108.5599992  68.4389978  81.7020014 110.5989992  67.9529978  82.3260014
 111.1369992  67.5589978  83.2150014 110.8539992  69.0279978  82.2080014
 110.9219992  67.4249978  81.4030014 106.5789992  85.8459978  84.2980014
 107.0979992  86.8039978  84.0810014 107.3699992  85.1049978  84.5460014
 105.8849992  85.9479978  85.1590014 105.7849992  85.4259978  83.0760014
 105.2569992  84.4509978  83.1540014 104.9579992  86.1279978  82.8390014
 106.6429992  85.2779978  81.8180014 107.2559992  86.1989978  81.7100014
 107.4429992  84.5199978  81.9600014 105.9919992  85.0899978  80.4520014
 105.4019992  84.1619978  80.2950014 105.3549992  85.9999978  80.4960014
 106.9999992  85.0899978  79.2670014 107.6149992  86.0119978  79.3440014
 107.7109992  84.2499978  79.4150014 106.3999992  84.7589978  77.8310014
 105.8409992  85.6699978  77.5290014 107.1989992  84.7709978  77.0580014
 105.6479992  83.4249978  77.7960014 104.6549992  83.5319978  78.2840014
 105.4579992  83.2839978  76.7110014 106.3689992  82.1089978  78.2630014
 106.4069992  82.2459978  79.3640014 105.7099992  81.2349978  78.0720014
 107.7679992  81.8349978  77.7210014 108.5339992  82.5119978  78.1560014
 108.1399992  80.8549978  78.0880014 107.7669992  81.8809978  76.1700014
 107.0319992  81.1009978  75.8780014 107.2859992  82.7779978  75.7250014
 109.0969992  81.4609978  75.4430014 109.8539992  82.2649978  75.5650014
 109.5009992  80.6549978  76.0920014 108.9769992  80.8869978  74.0770014
 109.9879992  80.5819978  73.7330014 108.3929992  79.9419978  74.0680014
 108.3239992  81.7939978  73.0240014 107.4349992  82.2869978  73.4720014
 108.9949992  82.5269978  72.5260014 107.9289992  80.7789978  71.8650014
 107.3139992  79.9259978  72.2220014 107.2289992  81.2649978  71.1520014
 109.0799992  80.2929978  70.9580014 109.6559992  81.2089978  70.7060014
 109.7739992  79.5659978  71.4300014 108.5649992  79.7029978  69.6380014
 107.4339992  79.3909978  69.4760014 109.5659992  79.7289978  68.7640014
 109.0989992  79.5639978  67.4240014 110.0229992  79.1589978  66.9570014
 108.3259992  78.7869978  67.2450014 108.8359992  80.9719978  66.7860014
 107.8739992  81.3089978  67.2280014 108.8099992  80.8049978  65.2940014
 109.7459992  80.2639978  65.0360014 107.9689992  80.1469978  64.9890014
 108.8499992  82.0899978  64.7320014 108.4869992  82.3049978  63.2250014
 108.8109992  83.8509978  63.0030014 110.0609992  84.2999978  63.3800014
 110.9279992  83.6059978  63.3480014 110.4799992  85.0199978  62.6460014
 109.9949992  85.0359978  64.7340014 109.8719992  84.2269978  65.4390014
 110.9819992  85.4749978  64.7480014 109.0079992  86.2229978  64.9410014
 109.3719992  87.3779978  64.0460014 109.1659992  87.0189978  63.0480014
 108.9229992  88.3199978  64.3240014 110.4409992  87.4149978  64.1930014
 107.5909992  85.8659978  64.5690014 106.8799992  86.5959978  64.9270014
 107.4369992  85.7479978  63.5060014 107.3079992  84.9289978  65.0250014
 109.0739992  86.6759978  66.3640014 108.8159992  85.7769978  66.9050014
 108.3379992  87.4449978  66.5460014 110.0729992  87.0049978  66.6120014
 109.3449992  81.4929978  62.3720014 107.0259992  82.2059978  63.1400014
 109.9139992  81.8019978  67.1230014 109.5759992  82.9539978  67.7260014
 108.4809992  83.3979978  67.8640014 110.8959992  83.5179978  68.3030014
 111.1609992  84.5199978  67.9030014 111.8019992  82.8839978  68.1900014
 110.8399992  83.5489978  69.8040014 111.1849992  82.5769978  70.2160014
 109.9039992  83.8519978  70.3210014 111.9069992  84.4819978  70.3010014
 111.6769992  85.5269978  70.0020014 112.8949992  84.2849978  69.8330014
 112.0929992  84.3469978  71.8470014 111.1159992  84.4029978  72.3730014
 112.7469992  85.2099978  72.0950014 112.8569992  83.1229978  72.3660014
 113.6759992  83.4199978  73.0550014 113.4119992  82.7669978  71.4720014
 112.0439992  82.0069978  73.0710014 111.2519992  81.6719978  72.3670014
 111.6609992  82.5229978  73.9770014 112.7809992  80.7239978  73.4830014
 113.1179992  80.1489978  72.5950014 112.0739992  80.0209978  73.9740014
 113.9739992  80.8749978  74.4160014 114.8349992  81.3449978  73.9190014
 114.0319992  80.5619978  75.7160014 114.9519992  80.8269978  76.2580014
 112.9359992  79.9729978  76.6910014 113.0939992  78.8939978  76.9050014
 111.9079992  80.0839978  76.2840014 112.8089992  80.6639978  78.1060014
 113.8219992  81.0529978  78.3450014 112.7339992  79.8689978  78.8790014
 111.8199992  81.8339978  78.2260014 110.8009992  81.4789978  77.9600014
 112.1199992  82.7439978  77.6650014 111.6689992  82.2939978  79.6820014
 112.0439992  81.4759978  80.3330014 110.6239992  82.5109978  79.9900014
 112.6679992  83.5299978  79.9950014 112.5399992  84.3239978  79.2280014
 113.6739992  83.0599978  80.0040014 112.2769992  84.1409978  81.3430014
 111.2539992  84.5259978  81.1450014 112.9469992  85.0159978  81.4770014
 112.1559992  83.4099978  82.6400014 113.0789992  82.8109978  82.7940014
 111.3299992  82.6809978  82.5010014 111.7999992  84.3739978  83.7440014
 112.3519992  85.3329978  83.6410014 112.0089992  83.9989978  84.7690014
 110.7029992  84.5439978  83.7130014  51.2249992 106.1719978  83.6760014
  50.9079992 106.1029978  84.7390014  50.5059992 106.8839978  83.2170014
  52.2499992 106.5929978  83.6040014  51.1509992 104.8479978  82.8250014
  51.5759992 103.9399978  83.3030014  50.0989992 104.5149978  82.6940014
  51.6969992 104.9719978  81.3870014  52.6749992 105.4659978  81.5720014
  51.7949992 103.9539978  80.9530014  50.7929992 105.7069978  80.3520014
  50.5569992 106.7359978  80.6980014  51.2799992 105.7529978  79.3540014
  49.4839992 104.9779978  80.0580014  49.7149992 103.9329978  79.7590014
  48.7939992 104.9719978  80.9290014  48.4999992 105.5389978  78.9880014
  47.6039992 104.9039978  79.1560014  48.2999992 106.5849978  79.3030014
  48.8639992 105.3029978  77.4840014  49.2989992 104.2819978  77.5430014
  47.9349992 105.2739978  76.8750014  49.7409992 106.4229978  76.9660014
  49.3039992 107.3509978  77.3920014  50.7899992 106.2299978  77.2790014
  49.6779992 106.6549978  75.4520014  48.6919992 106.7119978  74.9430014
  49.9549992 107.7219978  75.3120014  50.4869992 105.6929978  74.5730014
  51.5499992 105.8679978  74.8460014  50.3349992 104.6119978  74.7810014
  50.2849992 105.9189978  73.0900014  49.2849992 105.5189978  72.8210014
  50.2429992 106.9819978  72.7680014  51.3699992 105.3499978  72.2000014
  52.3659992 105.8089978  72.3820014  51.4779992 104.2589978  72.3760014
  50.9709992 105.4289978  70.6820014  50.7799992 106.4889978  70.4100014
  51.8109992 105.0229978  70.0790014  49.8159992 104.5419978  70.1390014
  50.1929992 103.5209978  70.3590014  48.7939992 104.6959978  70.5470014
  49.6189992 104.5779978  68.5820014  49.6479992 105.6369978  68.2460014
  50.4269992 103.9539978  68.1450014  48.1939992 104.0069978  68.2400014
  47.7259992 102.9659978  68.6650014  47.5969992 104.8379978  67.3950014
  46.2899992 104.4479978  66.8640014  46.2679992 103.3709978  66.5950014
  45.5549992 104.5829978  67.6860014  45.9759992 105.4249978  65.7350014
  44.9499992 105.2259978  65.3570014  46.8899992 105.2639978  64.4300014
  47.9589992 105.4239978  64.6880014  46.6639992 104.2199978  64.1260014
  46.3079992 106.1189978  63.4920014  47.1689992 107.1359978  62.6570014
  47.8259992 108.0249978  63.7290014  48.6299992 109.1039978  63.3090014
  48.6319992 109.2409978  62.2070014  48.1529992 110.0169978  63.7260014
  50.0509992 109.0769978  63.9270014  50.5559992 108.2109978  63.5260014
  50.5679992 109.9729978  63.6160014  50.2049992 108.9419978  65.4610014
  49.4329992 109.9629978  66.3130014  48.3749992 109.8299978  66.1410014
  49.7719992 109.8899978  67.3350014  49.6609992 110.9779978  66.0240014
  49.6999992 107.6469978  65.9450014  48.6449992 107.6129978  65.7180014
  50.2789992 106.9009978  65.4200014  49.9539992 107.5539978  66.9900014
  51.6589992 109.0849978  65.7690014  51.9999992 110.0519978  65.4290014
  52.2039992 108.2129978  65.4390014  51.6319992 109.2219978  66.8400014
  48.3609992 106.4519978  62.0340014  46.2919992 108.0389978  61.8710014
  46.1939992 106.7989978  66.2040014  45.4009992 107.3579978  67.0950014
  44.2659992 106.9819978  67.4400014  45.9479992 108.6349978  67.6430014
  45.1899992 109.4189978  67.8540014  46.6269992 108.9689978  66.8290014
  46.8969992 108.3079978  68.8090014  47.7679992 107.7259978  68.4380014
  46.4959992 107.7269978  69.6670014  47.4949992 109.5769978  69.4390014
  46.6679992 110.3189978  69.4740014  48.1939992 110.0559978  68.7200014
  48.2349992 109.4309978  70.7450014  49.2259992 108.9629978  70.5630014
  47.5819992 108.7999978  71.3840014  48.6699992 110.8169978  71.3850014
  47.7079992 111.3129978  71.6350014  49.0949992 111.4839978  70.6050014
  49.6299992 110.7139978  72.5580014  49.8839992 111.7079978  72.9860014
  50.6219992 110.3269978  72.2390014  49.1929992 109.8519978  73.8120014
  50.0989992 109.6249978  74.4140014  48.8119992 108.8839978  73.4230014
  48.3069992 110.5599978  74.8260014  48.9139992 111.2919978  75.3780014
  46.9799992 110.5089978  74.9660014  46.5539992 110.8679978  75.9150014
  46.1379992 109.6229978  74.0520014  46.6089992 109.3659978  73.0790014
  45.3019992 110.2579978  73.6890014  45.6279992 108.3629978  74.8440014
  46.4579992 107.6349978  74.7220014  44.7839992 107.8609978  74.3240014
  45.2339992 108.5639978  76.3370014  44.5599992 109.4459978  76.3470014
  46.0489992 108.8499978  77.0360014  44.3729992 107.4609978  77.0450014
  45.0269992 106.5639978  77.0720014  43.5969992 107.2039978  76.2930014
  43.7919992 107.8929978  78.4320014  43.0839992 107.0859978  78.7170014
  43.2159992 108.8399978  78.5000014  44.8579992 108.0729978  79.5130014
  45.1569992 109.1169978  79.7510014  45.7899992 107.5099978  79.2900014
  44.3419992 107.4349978  80.8800014  43.9339992 106.4089978  80.7560014
  43.3779992 107.9619978  81.0460014  45.2359992 107.4249978  82.1020014
  44.5789992 107.3539978  82.9950014  45.8849992 108.3199978  82.2060014
  45.9189992 106.5499978  82.0600014  39.5529992 106.9119978  83.5740014
  40.3369992 107.2459978  84.2870014  38.5379992 107.3429978  83.7130014
  39.8429992 107.3339978  82.5890014  39.4909992 105.4079978  83.3850014
  39.1369992 104.9839978  84.3490014  38.7129992 105.1339978  82.6400014
  40.8329992 104.6889978  83.0300014  41.4609992 104.8539978  83.9310014
  40.5899992 103.6209978  82.8440014  41.6319992 105.3299978  81.8520014
  42.0989992 106.3029978  82.1150014  42.5219992 104.6749978  81.7370014
  40.8149992 105.3229978  80.5750014  40.6559992 104.2669978  80.2660014
  39.7349992 105.5079978  80.7570014  41.3879992 106.1199978  79.4260014
  41.0199992 107.1689978  79.4240014  42.4889992 106.0189978  79.5380014
  41.0519992 105.5849978  77.9440014  41.7189992 106.1399978  77.2490014
  41.3139992 104.5069978  77.9980014  39.5879992 105.6049978  77.6020014
  38.8859992 105.1129978  78.3090014  39.3079992 106.6709978  77.7400014
  39.1359992 105.1159978  76.1700014  38.2829992 105.7839978  75.9250014
  40.0279992 105.3849978  75.5640014  38.7869992 103.6499978  76.0080014
  39.4569992 102.9669978  76.5740014  37.8229992 103.4859978  76.5360014
  38.6799992 103.2099978  74.5840014  39.5149992 103.5609978  73.9420014
  38.8459992 102.1119978  74.5480014  37.2499992 103.3889978  74.0090014
  36.5269992 103.0639978  74.7880014  36.9909992 104.4589978  73.8610014
  36.9049992 102.5839978  72.7140014  36.9079992 101.5069978  72.9880014
  35.8439992 102.7279978  72.4190014  37.7339992 102.9949978  71.4530014
  38.7899992 102.8729978  71.7730014  37.4299992 102.2959978  70.6440014
  37.6539992 104.4549978  70.8480014  36.5599992 104.5139978  70.6620014
  38.1029992 105.1809978  71.5590014  38.4989992 104.5409978  69.4950014
  38.9859992 103.5839978  68.9630014  38.4889992 105.8079978  69.0820014
  39.0089992 105.9619978  67.7910014  39.1299992 105.0259978  67.2050014
  38.2539992 106.4859978  67.1670014  40.3339992 106.8189978  67.8550014
  39.9379992 107.8239978  68.1160014  40.9809992 106.7149978  66.4530014
  40.3509992 107.3639978  65.8090014  41.9399992 107.2729978  66.5190014
  41.2389992 105.3369978  66.1060014  40.9639992 104.9419978  64.6120014
  40.8929992 103.3859978  64.7240014  41.8189992 102.5069978  65.2580014
  42.3439992 103.0929978  66.0430014  41.2979992 101.6679978  65.7660014
  42.7739992 101.8549978  64.1590014  43.2369992 102.6699978  63.6240014
  43.5999992 101.4339978  64.7120014  42.2399992 100.8579978  63.1760014
  41.4989992  99.6569978  63.8430014  42.2319992  99.0489978  64.3530014
  40.7429992 100.0259978  64.5190014  41.0519992  99.0969978  63.0350014
  41.3889992 101.6199978  62.1210014  41.9909992 102.4019978  61.6840014
  41.0979992 100.9109978  61.3590014  40.4999992 102.0319978  62.5770014
  43.4149992 100.2899978  62.4710014  43.0749992  99.3699978  62.0200014
  44.1629992 100.0609978  63.2150014  43.7509992 101.0949978  61.8340014
  39.6669992 105.4979978  64.1680014  42.1899992 105.2869978  63.8670014
  41.1879992 106.2369978  68.8480014  42.3179992 106.8979978  68.9970014
  42.6609992 108.0099978  68.7230014  43.2639992 105.8139978  69.5850014
  42.7629992 105.3989978  70.4860014  44.1799992 106.1749978  70.0990014
  43.6829992 104.7779978  68.4620014  44.1629992 105.4029978  67.6800014
  42.7849992 104.3469978  67.9690014  44.6919992 103.6299978  68.7430014
  45.6079992 104.2179978  68.9640014  44.8749992 102.9589978  67.8760014
  44.2979992 102.6659978  69.8480014  44.4709992 103.1059978  70.8530014
  44.9089992 101.7429978  69.7560014  42.8529992 102.0659978  69.9550014
  42.5459992 101.7449978  68.9370014  42.1379992 102.8479978  70.2880014
  42.7489992 100.8989978  70.8930014  43.3309992 100.1159978  70.3610014
  41.7369992 100.4469978  70.8230014  43.2429992 101.0409978  72.3190014
  44.2859992 101.4219978  72.3560014  43.2499992 100.0289978  72.7750014
  42.1599992 101.8179978  73.0570014  41.1369992 101.4759978  72.8400014
  42.2769992 102.8059978  73.9570014  41.4389992 103.0259978  74.6340014
  43.5419992 103.4419978  74.4510014  43.7879992 104.3959978  73.9380014
  44.4209992 102.8189978  74.1800014  43.5879992 103.7829978  75.9890014
  42.8279992 104.5799978  76.1360014  44.6109992 104.1389978  76.2380014
  43.3479992 102.5279978  76.8530014  43.8409992 101.6349978  76.4130014
  42.2789992 102.2419978  76.7620014  43.7699992 102.6399978  78.3340014
  43.3629992 103.5759978  78.7750014  44.8759992 102.6949978  78.2480014
  43.3929992 101.3639978  79.0730014  43.8319992 100.4859978  78.5520014
  42.2929992 101.2559978  79.1820014  43.9809992 101.3249978  80.4930014
  43.7029992 102.1889978  81.1340014  45.0919992 101.3069978  80.4670014
  43.4879992 100.1359978  81.3110014  43.5589992  99.1429978  80.8180014
  42.4069992 100.1709978  81.5630014  44.2019992  99.9779978  82.7040014
  45.3089992  99.9449978  82.6190014  43.7659992  99.1269978  83.2700014
  43.9269992 100.8999978  83.2600014  96.9119992  99.7399978  80.8850014
  97.6769992  99.0089978  80.5460014  95.9859992  99.2659978  81.2760014
  97.3029992 100.1929978  81.8210014  96.7239992 100.7579978  79.7790014
  96.1859992 101.6019978  80.2610014  97.7419992 101.0489978  79.4410014
  95.9959992 100.2549978  78.5720014  96.5719992  99.4409978  78.0830014
  94.9989992  99.8929978  78.9000014  95.6599992 101.4349978  77.5790014
  95.0849992 102.2659978  78.0400014  96.5829992 101.9529978  77.2410014
  94.7749992 100.9209978  76.4770014  93.7669992 100.6059978  76.8220014
  94.6469992 101.7749978  75.7780014  95.2989992  99.8569978  75.5540014
  96.1669992 100.1849978  74.9430014  95.6059992  98.9609978  76.1350014
  94.1919992  99.5329978  74.6010014  93.2549992  99.1279978  75.0390014
  93.9409992 100.4859978  74.0890014  94.5179992  98.6389978  73.3840014
  95.4829992  98.9289978  72.9160014  94.8189992  97.6329978  73.7490014
  93.3329992  98.5689978  72.4370014  92.4989992  98.1529978  73.0410014
  93.1789992  99.6169978  72.1010014  93.5529992  97.5189978  71.2290014
  94.2819992  97.9949978  70.5380014  94.0489992  96.6489978  71.7090014
  92.3039992  97.0049978  70.5730014  92.4959992  96.1449978  69.8960014
  91.6569992  96.7569978  71.4410014  91.5449992  98.0709978  69.8170014
  90.5319992  97.6249978  69.7230014  91.2859992  98.9799978  70.4000014
  92.1889992  98.4339978  68.4750014  93.1929992  98.9089978  68.5200014
  92.3249992  97.5669978  67.7940014  91.3369992  99.5369978  67.8100014
  91.3759992  99.3819978  66.7100014  90.2629992  99.4099978  68.0620014
  91.6289992 101.0299978  68.0270014  91.5799992 101.2049978  69.1230014
  92.6889992 101.2309978  67.7620014  90.5449992 101.9399978  67.3120014
  89.4839992 101.5089978  66.9390014  91.1059992 103.0629978  67.0130014
  90.3489992 103.9989978  66.1770014  89.3479992 103.5939978  65.9120014
  90.2889992 104.9019978  66.8210014  91.2089992 104.3919978  64.9430014
  90.8059992 105.3149978  64.4730014  91.3049992 103.3429978  63.8920014
  90.3639992 102.7649978  63.7680014  91.6329992 103.8509978  62.9600014
  92.3549992 102.4819978  64.2080014  92.7649992 101.1579978  63.4800014
  94.0309992 100.7769978  64.3200014  94.6429992 101.5039978  65.3430014
  93.9309992 102.2909978  65.6720014  94.8089992 100.8799978  66.2470014
  95.8809992 102.2549978  64.9150014  95.5959992 103.0079978  64.1950014
  96.3099992 102.8129978  65.7340014  97.0259992 101.5109978  64.2400014
  96.5969992 100.9219978  62.8750014  96.4749992 101.6939978  62.1300014
  97.3559992 100.2549978  62.4940014  95.7469992 100.2649978  62.9890014
  98.0729992 102.5639978  64.0460014  98.0999992 103.2189978  64.9040014
  99.0389992 102.0849978  63.9880014  97.8999992 103.2269978  63.2110014
  97.5889992 100.4909978  65.1650014  96.8399992  99.7209978  65.2730014
  97.9199992 100.8899978  66.1130014  98.4179992  99.9249978  64.7650014
  91.6629992 100.1999978  63.8420014  93.1949992 101.3839978  62.0720014
  92.4379992 104.8609978  65.5820014  93.3289992 105.6189978  64.9140014
  93.2649992 105.8659978  63.7130014  94.3359992 106.1749978  65.9260014
  93.7039992 106.6129978  66.7270014  95.0669992 106.9279978  65.5630014
  95.0499992 104.9159978  66.4340014  95.8179992 104.5929978  65.6980014
  94.3569992 104.0839978  66.6810014  95.7649992 105.2639978  67.7880014
  95.0629992 105.8069978  68.4570014  96.5719992 106.0119978  67.6350014
  96.5309992 104.1179978  68.4520014  97.4039992 104.4809978  69.0350014
  96.9839992 103.4839978  67.6610014  95.7219992 103.2029978  69.3650014
  96.2529992 102.2349978  69.4900014  94.8779992 102.9589978  68.6850014
  95.2639992 103.8879978  70.6350014  94.7509992 104.8619978  70.4850014
  96.2709992 104.0689978  71.0680014  94.5169992 102.9759978  71.6680014
  94.2909992 103.6539978  72.5180014  95.2679992 102.2879978  72.1110014
  93.2279992 102.2099978  71.2590014  93.3999992 101.2779978  70.7000014
  91.9699992 102.6579978  71.4610014  91.1129992 102.0779978  71.0880014
  91.5759992 103.9859978  72.1360014  91.3489992 104.7469978  71.3590014
  92.3569992 104.4639978  72.7650014  90.2939992 103.8709978  72.9740014
  89.4949992 103.4089978  72.3560014  89.9199992 104.8819978  73.2440014
  90.6239992 103.0699978  74.2600014  91.4999992 102.4049978  74.1060014
  89.7209992 102.5579978  74.6570014  91.2249992 104.0009978  75.3850014
  90.4659992 104.8099978  75.4480014  92.2009992 104.4239978  75.0650014
  91.3319992 103.2309978  76.7330014  91.8699992 102.3119978  76.4180014
  90.3089992 102.8619978  76.9570014  91.8849992 104.0009978  77.8940014
  91.2649992 104.9129978  78.0270014  92.9239992 104.3299978  77.6780014
  92.0439992 103.1239978  79.1470014  92.5089992 102.1569978  78.8580014
  91.0249992 102.9129978  79.5370014  92.8689992 103.8349978  80.2620014
  93.8579992 104.2059978  79.9190014  93.0299992 103.1559978  81.1270014
  92.2409992 104.6709978  80.6370014  79.1689992  37.0709978  81.7840014
  79.3539992  36.4009978  82.6500014  78.4769992  36.4729978  81.1530014
  78.5399992  37.9379978  82.0780014  80.5469992  37.1569978  81.0960014
  81.4029992  36.9349978  81.7680014  80.4799992  36.4399978  80.2500014
  80.8409992  38.5419978  80.3780014  80.0129992  38.6619978  79.6470014
  80.7429992  39.3359978  81.1500014  82.1809992  38.5909978  79.7050014
  83.0129992  38.6379978  80.4400014  82.3799992  37.6859978  79.0910014
  82.4869992  39.8789978  78.8730014  81.5169992  40.3269978  78.5650014
  82.9609992  40.6849978  79.4730014  83.1049992  39.6129978  77.4860014
  84.2049992  39.7449978  77.5690014  82.8149992  38.5879978  77.1710014
  82.6519992  40.4819978  76.2990014  82.6159992  41.5519978  76.5950014
  83.4429992  40.4909978  75.5190014  81.2369992  40.1599978  75.7520014
  80.6989992  39.9309978  76.6960014  80.6879992  40.9959978  75.2690014
  81.2949992  38.8809978  74.9790014  82.0019992  38.1809978  75.4730014
  80.2529992  38.4959978  74.9970014  81.5759992  39.1369978  73.4990014
  80.9109992  39.9679978  73.1800014  82.6439992  39.4409978  73.4640014
  81.3439992  37.9199978  72.5480014  81.9769992  37.0649978  72.8670014
  80.3549992  37.4189978  72.6150014  81.6219992  38.1389978  71.0530014
  81.2409992  39.1509978  70.7990014  82.7159992  38.1489978  70.8610014
  81.0629992  37.0089978  70.1900014  81.4219992  37.1589978  69.1500014
  81.3479992  35.9779978  70.4910014  79.5809992  37.1769978  69.8890014
  78.9069992  37.1019978  70.7700014  79.3929992  38.2119978  69.5320014
  78.8829992  36.1409978  68.9360014  79.4169992  36.0089978  67.9710014
  78.8219992  35.0919978  69.2970014  77.4339992  36.5729978  68.6600014
  76.4229992  35.8779978  68.6980014  77.4839992  37.8079978  68.3130014
  76.2489992  38.4169978  67.7940014  75.6579992  37.6859978  67.2040014
  75.6959992  38.7869978  68.6840014  76.6139992  39.6189978  66.9700014
  75.6529992  40.1329978  66.7510014  77.1929992  39.0849978  65.6800014
  78.1549992  38.5579978  65.8570014  76.5269992  38.2729978  65.3170014
  77.4129992  40.1609978  64.7540014  77.7369992  39.7989978  63.1910014
  79.2879992  40.3279978  63.0470014  80.2989992  39.3929978  63.0170014
  80.1639992  38.4859978  63.6450014  80.3819992  39.0659978  61.9580014
  81.6649992  40.0059978  63.5490014  82.4389992  39.3649978  63.1540014
  81.8109992  40.9179978  62.9900014  81.7849992  40.1719978  65.0300014
  80.6469992  41.0089978  65.5630014  80.8439992  41.2289978  66.6020014
  80.7459992  41.9799978  65.1010014  79.6839992  40.5619978  65.3640014
  81.6769992  38.8439978  65.7680014  82.6049992  38.3479978  65.5280014
  81.5979992  38.9489978  66.8400014  80.8099992  38.3389978  65.3680014
  83.0649992  40.8149978  65.3590014  83.0979992  40.9559978  66.4290014
  83.0489992  41.7659978  64.8480014  83.9479992  40.2509978  65.0930014
  77.7209992  38.3019978  63.0290014  76.8879992  40.5529978  62.1990014
  77.5769992  40.4129978  67.7330014  77.5589992  41.6909978  67.4930014
  76.7909992  42.3429978  66.7330014  78.7009992  42.3219978  68.2880014
  79.6329992  41.9319978  67.8250014  78.5619992  41.9919978  69.3390014
  78.5319992  43.8639978  68.2330014  77.4759992  44.1579978  68.4120014
  78.7859992  44.1819978  67.1990014  79.3739992  44.5339978  69.3450014
  79.3689992  45.5969978  69.0220014  80.4149992  44.1609978  69.4500014
  78.7809992  44.3789978  70.7820014  77.6919992  44.2079978  70.6450014
  79.0429992  45.3809978  71.1850014  79.5149992  43.2909978  71.6710014
  80.4969992  43.7339978  71.9440014  79.6799992  42.4459978  70.9700014
  78.7619992  42.8629978  72.9210014  78.7679992  43.5939978  73.7580014
  79.3589992  42.0569978  73.3990014  77.2759992  42.3499978  72.8110014
  76.5289992  43.1299978  72.5500014  77.0299992  42.0399978  73.8490014
  77.1009992  41.2949978  71.7840014  77.1549992  41.6309978  70.7380014
  76.6789992  40.0059978  71.9440014  76.5809992  39.3169978  71.0930014
  76.2929992  39.3299978  73.1910014  75.6609992  38.4319978  73.0210014
  75.6619992  40.0129978  73.7990014  77.5059992  38.8419978  73.9630014
  78.2889992  39.6069978  74.1520014  77.9339992  38.0459978  73.3170014
  77.1419992  38.3269978  75.4270014  78.1109992  37.9939978  75.8550014
  76.4879992  37.4509978  75.2300014  76.4969992  39.3769978  76.3680014
  75.3869992  39.4159978  76.3610014  76.7959992  40.4279978  76.1650014
  76.8949992  38.9539978  77.8270014  77.9889992  39.0609978  77.9930014
  76.7139992  37.8609978  77.9060014  76.0399992  39.7109978  78.8950014
  76.1869992  39.2109978  79.8760014  74.9729992  39.6459978  78.5930014
  76.4289992  41.2259978  79.0280014  75.6079992  41.7339978  79.5780014
  76.4379992  41.7139978  78.0300014  77.7219992  41.4859978  79.8760014
  77.9589992  42.5399978  80.1360014  78.6609992  41.2519978  79.3300014
  77.6739992  40.8189978  80.7620014 111.6079992  78.3149978  82.0110014
 112.5439992  78.8369978  82.3040014 111.8769992  77.2559978  82.2120014
 110.7489992  78.5439978  82.6780014 111.2619992  78.3479978  80.5310014
 110.7179992  79.3019978  80.3590014 112.2269992  78.4419978  79.9880014
 110.3039992  77.2309978  79.9650014 109.7849992  76.9059978  80.8920014
 109.6589992  77.7609978  79.2310014 111.0319992  76.1459978  79.2690014
 111.8469992  76.6309978  78.6900014 111.6299992  75.5019978  79.9490014
 110.0889992  75.2599978  78.4310014 109.6379992  74.5339978  79.1410014
 109.2329992  75.7159978  77.8890014 110.8749992  74.4009978  77.3490014
 111.6979992  73.9659978  77.9550014 110.1339992  73.6109978  77.1040014
 111.4019992  75.1209978  76.0770014 111.9069992  76.0919978  76.2660014
 112.1429992  74.3229978  75.8570014 110.3069992  75.0459978  74.9960014
 109.8739992  74.0269978  74.9100014 109.5409992  75.8059978  75.2610014
 110.8079992  75.3959978  73.6030014 111.5899992  74.6959978  73.2370014
 109.9739992  75.1649978  72.9060014 111.2829992  76.8059978  73.4710014
 110.5119992  77.5609978  73.7350014 112.0559992  76.7819978  74.2680014
 111.9469992  77.0919978  72.1700014 112.5329992  78.0329978  72.2530014
 112.7949992  76.3919978  72.0150014 111.1139992  77.1119978  70.8150014
 111.0089992  76.1209978  70.3230014 110.1429992  77.5709978  71.0970014
 111.7919992  77.9199978  69.7020014 110.9159992  78.1749978  69.0690014
 112.0899992  78.8869978  70.1600014 112.8469992  77.0679978  69.0320014
 113.6289992  76.9659978  69.8150014 112.3929992  76.0739978  68.8280014
 113.4419992  77.5289978  67.7580014 112.6289992  77.7349978  67.0280014
 114.0599992  78.4389978  67.9190014 114.4709992  76.5219978  67.1780014
 115.6409992  76.5349978  67.4070014 113.7739992  75.6449978  66.3930014
 114.3699992  74.4169978  66.0240014 114.3109992  74.4409978  64.9150014
 115.4599992  74.3509978  66.2290014 113.6049992  73.2119978  66.5620014
 114.1459992  72.2639978  66.3520014 112.1949992  73.0829978  65.8920014
 112.2759992  73.4249978  64.8380014 111.9369992  72.0129978  66.0390014
 111.2779992  73.9729978  66.5770014 110.4329992  74.9959978  65.7360014
 111.4869992  76.1349978  65.1930014 110.9119992  77.2569978  64.4460014
 110.0619992  77.0179978  63.7710014 110.4549992  77.9539978  65.1810014
 112.0369992  77.8909978  63.5210014 111.7559992  78.8929978  63.2310014
 112.9449992  78.0589978  64.0820014 112.5829992  77.1829978  62.2300014
 112.3559992  75.7239978  62.4620014 111.3019992  75.5439978  62.3110014
 112.9349992  75.1069978  61.7910014 112.6629992  75.5659978  63.4850014
 111.8319992  77.5239978  60.9850014 112.0889992  76.8089978  60.2180014
 110.7779992  77.4549978  61.2100014 111.9249992  78.5279978  60.5990014
 114.0519992  77.4919978  62.1780014 114.7089992  76.8109978  62.6980014
 114.1749992  78.4829978  62.5890014 114.3579992  77.4839978  61.1420014
 109.9159992  74.1479978  64.6170014 109.3909992  75.6129978  66.5600014
 113.5019992  73.3339978  67.9640014 114.6419992  72.9429978  68.6370014
 115.6429992  72.4979978  68.1910014 114.3099992  73.0089978  70.1220014
 114.6329992  72.0339978  70.5470014 113.2249992  73.1559978  70.3120014
 115.1039992  74.1659978  70.8040014 114.7139992  75.1029978  70.3530014
 116.1849992  74.0349978  70.5830014 114.7629992  74.1619978  72.2890014
 114.9989992  73.1019978  72.5210014 113.7529992  74.4019978  72.6840014
 115.7239992  75.0309978  73.0760014 115.5939992  76.0919978  72.7740014
 116.7669992  74.7019978  72.8810014 115.4649992  74.9889978  74.6060014
 115.2269992  73.9169978  74.7770014 114.6139992  75.6859978  74.7580014
 116.6979992  75.4439978  75.4660014 117.4569992  74.6359978  75.5430014
 116.2259992  75.5139978  76.4700014 117.4149992  76.7379978  75.1690014
 117.8669992  76.6329978  74.1590014 118.2769992  76.9719978  75.8290014
 116.5999992  78.0309978  75.2480014 115.8839992  78.2709978  74.4490014
 116.6049992  78.9409978  76.2620014 115.8169992  79.6969978  76.1320014
 117.3979992  78.9969978  77.5190014 117.9829992  79.9419978  77.5280014
 118.1259992  78.1989978  77.7790014 116.5159992  78.8709978  78.8030014
 115.7339992  79.6589978  78.8450014 117.2149992  79.0739978  79.6420014
 115.9209992  77.4649978  78.8960014 116.8019992  76.8059978  79.0550014
 115.4579992  77.1059978  77.9520014 114.8529992  77.1999978  79.9520014
 114.2959992  76.2529978  79.7820014 114.1229992  78.0339978  80.0230014
 115.5299992  76.9879978  81.3020014 114.8359992  77.1249978  82.1580014
 116.1499992  77.9039978  81.4140014 116.4789992  75.7919978  81.5050014
 117.4809992  76.2429978  81.3440014 116.3849992  74.9839978  80.7490014
 116.6299992  75.2809978  82.8940014 116.7949992  76.1119978  83.6120014
 117.5049992  74.5959978  82.9190014 115.4319992  74.5009978  83.3300014
 115.0179992  73.9459978  82.4610014 114.5669992  75.1179978  83.6550014
 115.6519992  73.8499978  84.2030014 100.3989992  45.3819978  82.4170014
  99.6469992  45.9089978  83.0420014 101.3509992  45.9539978  82.4360014
 100.6679992  44.4359978  82.9340014  99.8369992  45.0999978  80.9930014
  98.9339992  44.4569978  81.0680014  99.4749992  46.0759978  80.6050014
 100.8439992  44.4699978  80.0040014 101.2109992  43.5529978  80.5130014
 100.3599992  44.1839978  79.0460014 101.9619992  45.4139978  79.6230014
 102.2839992  44.9179978  78.6820014 101.7449992  46.4939978  79.4800014
 103.2169992  45.3659978  80.4760014 103.1209992  46.0709978  81.3300014
 103.2619992  44.3099978  80.8190014 104.5069992  45.9079978  79.8390014
 105.1149992  46.1859978  80.7270014 104.9569992  45.0639978  79.2730014
 104.2139992  47.1709978  78.9990014 104.0119992  46.8419978  77.9570014
 103.3579992  47.7699978  79.3790014 105.4829992  48.0319978  78.9020014
 105.6079992  48.5269978  79.8890014 106.3969992  47.4359978  78.6930014
 105.5289992  49.1499978  77.8320014 104.6259992  49.7469978  78.0810014
 106.3599992  49.8659978  78.0080014 105.4679992  48.6519978  76.4260014
 104.4109992  48.3239978  76.3320014 105.6979992  49.4319978  75.6700014
 106.4819992  47.4969978  76.0780014 107.4599992  47.9939978  76.2500014
 106.3189992  46.6489978  76.7770014 106.4219992  47.1529978  74.5950014
 106.6249992  48.0999978  74.0510014 107.3229992  46.5149978  74.4730014
 105.1699992  46.5019978  74.1060014 104.8969992  45.7099978  74.8370014
 104.2869992  47.1759978  74.1200014 105.3269992  45.8529978  72.7150014
 105.7349992  46.6959978  72.1170014 106.0549992  45.0149978  72.7620014
 104.0099992  45.2949978  72.1530014 103.7759992  44.2759978  72.5280014
 103.2189992  46.0519978  72.3420014 104.1549992  45.1539978  70.6160014
 105.0989992  45.6839978  70.0370014 103.1409992  44.4269978  70.0950014
 103.1749992  44.2439978  68.6800014 104.1639992  44.3369978  68.1810014
 102.8669992  43.2209978  68.3750014 102.2219992  45.3199978  68.1430014
 101.2139992  45.0399978  68.5160014 102.2219992  45.3449978  66.6260014
 102.2599992  44.2659978  66.3670014 101.2149992  45.6739978  66.2890014
 103.2629992  46.1319978  66.0620014 103.4749992  46.1669978  64.4670014
 102.2669992  47.0819978  63.8590014 102.0089992  48.3259978  64.4560014
 101.4999992  48.1959978  65.4350014 102.9829992  48.8199978  64.6600014
 101.2639992  49.3859978  63.5240014 101.4709992  50.3449978  63.9760014
 101.5379992  49.4149978  62.4800014  99.7239992  49.3099978  63.4980014
  99.3479992  47.9639978  62.8480014 100.0219992  47.7689978  62.0270014
  99.6849992  47.1619978  63.4880014  98.3839992  47.8079978  62.3880014
  99.2279992  49.3789978  64.9700014  98.1989992  49.7069978  64.9540014
  99.4679992  48.5189978  65.5780014  99.8909992  50.1269978  65.3790014
  99.1779992  50.4319978  62.7740014  99.6149992  50.4589978  61.7860014
  99.4109992  51.3479978  63.2960014  98.1139992  50.2949978  62.6480014
 104.8139992  46.8069978  64.1410014 103.2539992  44.7819978  63.9070014
 102.6519992  46.6039978  68.7650014 101.9159992  47.6699978  68.5340014
 100.8289992  47.7019978  68.0880014 102.6719992  48.9149978  69.0330014
 102.3399992  49.8349978  68.5040014 103.7559992  48.7449978  68.8580014
 102.4339992  48.9559978  70.5550014 102.8399992  48.0099978  70.9730014
 101.3349992  48.8419978  70.6730014 103.0979992  50.1549978  71.1740014
 102.5879992  51.0889978  70.8550014 104.1549992  50.1389978  70.8310014
 103.2439992  50.0709978  72.6780014 103.9439992  50.8969978  72.9250014
 103.7249992  49.1099978  72.9620014 101.9419992  50.3529978  73.4470014
 101.1989992  49.5349978  73.3420014 101.5969992  51.3399978  73.0710014
 102.1169992  50.5329978  74.9550014 102.9009992  51.2849978  75.1880014
 102.4199992  49.5749978  75.4280014 100.8029992  51.0019978  75.6730014
 100.7419992  52.1089978  75.5960014 101.0039992  50.7849978  76.7440014
  99.5909992  50.3599978  75.1410014  99.1029992  50.9489978  74.3500014
  99.1209992  49.1599978  75.4430014  98.1769992  48.7929978  75.0130014
  99.7049992  48.1569978  76.4070014 100.6109992  48.5619978  76.9070014
  99.9709992  47.1599978  75.9960014  98.7439992  47.9489978  77.5820014
  99.0829992  47.0439978  78.1300014  97.7449992  47.6859978  77.1720014
  98.5739992  49.1779978  78.5160014  97.7609992  48.9629978  79.2420014
  98.2079992  49.9909978  77.8540014  99.8889992  49.5159978  79.2920014
 100.6439992  50.1639978  78.7980014 100.3479992  48.5479978  79.5850014
  99.6269992  50.2699978  80.6530014  99.1299992  49.6059978  81.3920014
  99.1389992  51.2399978  80.4180014 100.9129992  50.7379978  81.3440014
 100.7009992  51.2689978  82.2970014 101.3939992  51.4969978  80.6920014
 101.9179992  49.6099978  81.7550014 102.3639992  49.3019978  80.7850014
 101.2949992  48.7799978  82.1510014 103.0949992  49.9969978  82.6890014
 103.7529992  50.7489978  82.2040014 103.7039992  49.0889978  82.8880014
 102.7279992  50.3269978  83.6850014  63.8959992  39.0709978  83.6200014
  64.4789992  40.0029978  83.7850014  64.4619992  38.2299978  83.1670014
  63.5659992  38.6529978  84.5950014  62.6359992  39.4259978  82.7590014
  62.2809992  40.3729978  83.2190014  63.0919992  39.6699978  81.7760014
  61.5609992  38.3199978  82.7130014  61.1339992  38.1869978  83.7300014
  60.7349992  38.7229978  82.0880014  61.8829992  36.9259978  82.0920014
  62.7659992  36.4189978  82.5370014  60.9239992  36.3859978  82.2420014
  62.2759992  37.0509978  80.6230014  61.5699992  37.6089978  79.9710014
  63.2319992  37.6169978  80.6560014  62.6789992  35.7279978  79.8850014
  63.5579992  35.2429978  80.3620014  61.8689992  34.9689978  79.9430014
  63.1249992  35.9439978  78.4280014  62.2829992  36.5139978  77.9800014
  63.9909992  36.6269978  78.5640014  63.3919992  34.6049978  77.7700014
  64.2659992  34.1269978  78.2620014  62.4969992  33.9529978  77.8630014
  63.6999992  34.7549978  76.2130014  62.8079992  35.0949978  75.6450014
  64.3229992  35.6749978  76.2520014  64.4169992  33.6349978  75.5490014
  65.2489992  33.2609978  76.1840014  63.7659992  32.7349978  75.5730014
  64.8149992  33.9509978  74.1050014  65.5119992  33.1899978  73.6930014
  63.9579992  34.0119978  73.4000014  65.6599992  35.1479978  73.7930014
  65.4419992  36.0189978  74.4480014  66.6209992  34.9219978  74.3040014
  65.6879992  35.5939978  72.3620014  65.7979992  34.7359978  71.6650014
  64.6729992  35.9519978  72.0870014  66.7479992  36.6789978  72.0030014
  66.4609992  37.5609978  72.6140014  67.7619992  36.5279978  72.4310014
  66.7449992  37.1049978  70.5480014  65.7059992  37.4079978  70.2930014
  67.4459992  37.9649978  70.4940014  67.2419992  36.0959978  69.5180014
  67.9509992  35.1419978  69.7260014  66.7769992  36.5169978  68.3330014
  66.9759992  35.8779978  67.0980014  67.2339992  36.5679978  66.2670014
  67.6489992  34.9939978  67.0940014  65.5999992  35.2929978  66.6660014
  65.2939992  34.5739978  67.4550014  65.6879992  34.7049978  65.2520014
  66.5129992  33.9639978  65.2050014  64.6859992  34.3049978  64.9840014
  66.0159992  35.7719978  64.3180014  65.0579992  36.6999978  63.5260014
  64.7729992  37.8449978  64.5470014  65.8399992  38.7209978  65.0510014
  65.5329992  38.8499978  66.1110014  66.8109992  38.1839978  65.1180014
  65.8689992  40.1549978  64.5380014  66.4239992  40.7329978  65.2610014
  66.3649992  40.2209978  63.5810014  64.5139992  40.7809978  64.3410014
  63.5749992  40.7159978  65.4180014  63.4499992  41.5379978  66.1080014
  62.6259992  40.4089978  65.0040014  63.7529992  39.9519978  66.1610014
  64.7369992  42.2989978  64.0390014  65.2049992  42.5059978  63.0870014
  63.7789992  42.7979978  64.0370014  65.4089992  42.7169978  64.7740014
  63.8219992  40.2389978  63.1360014  64.4199992  40.2979978  62.2390014
  63.0099992  40.9079978  62.8920014  63.5329992  39.2029978  63.2350014
  65.7479992  37.2789978  62.3750014  63.8529992  35.8959978  63.2180014
  64.5529992  36.3419978  66.7380014  63.3389992  35.9479978  67.0170014
  62.9179992  34.8699978  67.2370014  62.5149992  37.1319978  66.8230014
  61.8659992  37.0139978  65.9290014  63.1779992  38.0229978  66.7830014
  61.6639992  37.3879978  68.1370014  61.0729992  36.4689978  68.3380014
  60.9219992  38.1779978  67.8940014  62.4239992  37.8179978  69.4640014
  63.0259992  36.9709978  69.8560014  61.6469992  38.1049978  70.2050014
  63.2699992  39.1239978  69.3090014  62.6819992  39.8119978  68.6650014
  64.2649992  39.0029978  68.8290014  63.6419992  39.7439978  70.6570014
  64.3779992  39.1689978  71.2590014  62.7099992  39.7589978  71.2600014
  64.3169992  41.1639978  70.5500014  63.5089992  41.6939978  70.0020014
  65.1639992  41.2339978  69.8350014  64.4889992  41.9149978  71.9080014
  63.6099992  41.9039978  72.5880014  64.5809992  42.9919978  71.6520014
  65.8299992  41.4009978  72.4960014  66.7319992  41.6479978  71.9160014
  65.9619992  40.6419978  73.6200014  66.9459992  40.2819978  73.9560014
  64.8879992  40.0709978  74.5660014  65.0519992  38.9839978  74.7280014
  63.8509992  40.1299978  74.1700014  64.9239992  40.8349978  75.8980014
  63.9369992  40.7619978  76.4040014  64.9669992  41.9179978  75.6550014
  66.0549992  40.5079978  76.8660014  65.9379992  41.0429978  77.8320014
  67.0369992  40.7629978  76.4140014  66.0399992  39.0309978  77.2300014
  66.1329992  38.4409978  76.2930014  65.1199992  38.6259978  77.7030014
  67.2889992  38.6709978  78.0440014  68.1379992  38.9769978  77.3960014
  67.2899992  37.5989978  78.3370014  67.4779992  39.3019978  79.4150014
  66.4789992  39.1469978  79.8740014  67.5479992  40.4109978  79.3960014
  68.6799992  38.6569978  80.2590014  68.8449992  39.4829978  80.9840014
  69.5179992  38.5249978  79.5420014  68.2569992  37.4909978  81.1460014
  67.3779992  37.8059978  81.7480014  69.0369992  37.1179978  81.8430014
  67.9699992  36.6359978  80.4980014  89.8279992 102.2089978  84.9370014
  89.1209992 101.4199978  85.2720014  90.5979992 102.3959978  85.7160014
  90.3899992 101.7599978  84.0900014  89.1159992 103.5179978  84.4990014
  88.3459992 103.7369978  85.2690014  89.8599992 104.3409978  84.4530014
  88.2869992 103.4719978  83.2160014  87.4639992 102.7439978  83.3800014
  87.8459992 104.4649978  82.9870014  89.0859992 102.9719978  81.9400014
  89.2309992 101.8909978  82.1490014  88.3919992 103.0179978  81.0730014
  90.4229992 103.6769978  81.7370014  91.0679992 103.7259978  82.6400014
  90.8689992 103.0689978  80.9210014  90.2029992 104.9819978  81.0640014
  89.3159992 104.9189978  80.3980014  89.8969992 105.6079978  81.9290014
  91.3649992 105.6059978  80.2700014  91.3989992 106.7159978  80.2600014
  92.3139992 105.2959978  80.7580014  91.4159992 105.2999978  78.7300014
  92.2269992 105.8299978  78.1860014  91.5139992 104.2079978  78.5540014
  90.1739992 105.8389978  77.9190014  89.2739992 105.2139978  78.1030014
  90.1179992 106.8759978  78.3140014  90.4299992 105.7479978  76.4640014
  91.2509992 106.4479978  76.2020014  90.6279992 104.6949978  76.1690014
  89.0569992 106.0969978  75.8070014  88.2599992 105.5429978  76.3490014
  89.1359992 107.1889978  75.9950014  88.9939992 105.8519978  74.2710014
  89.1049992 104.7609978  74.0920014  87.9679992 106.1779978  73.9990014
  90.0789992 106.6349978  73.4580014  90.2359992 107.6649978  73.8430014
  91.0399992 106.0949978  73.3220014  89.6239992 106.7899978  71.9360014
  88.7069992 107.4169978  71.9190014  90.4419992 107.4159978  71.5200014
  89.3939992 105.4379978  71.2950014  90.2129992 104.7349978  71.5580014
  88.4279992 105.0089978  71.6370014  89.3169992 105.5589978  69.7430014
  88.9219992 106.4609978  69.1180014  89.8729992 104.4129978  69.1010014
  89.9729992 104.5539978  67.7090014  90.1199992 105.5919978  67.3410014
  90.9249992 104.0629978  67.4150014  88.8089992 103.8399978  66.9750014
  88.5829992 102.7889978  67.2550014  89.2799992 103.5889978  65.4560014
  89.6129992 104.5279978  64.9640014  90.1679992 102.9339978  65.3260014
  88.1319992 103.1139978  64.7230014  87.4379992 103.8629978  63.5340014
  87.8149992 105.4329978  63.8270014  88.3929992 106.3659978  62.9300014
  89.4929992 106.2389978  62.8440014  88.0569992 106.1369978  61.8960014
  88.1479992 107.8349978  63.2740014  88.7939992 108.4289978  62.6450014
  87.1769992 108.1389978  62.9110014  88.2849992 108.2009978  64.7020014
  89.5669992 107.6489978  65.2810014  90.3169992 108.1279978  64.6690014
  89.6869992 108.0319978  66.2840014  89.5989992 106.5689978  65.2770014
  88.3359992 109.7269978  64.7370014  87.3239992 110.0949978  64.6530014
  88.7979992 110.0219978  65.6670014  88.9179992 109.9879978  63.8660014
  87.0679992 107.7039978  65.5370014  86.8709992 106.6529978  65.3890014
  86.1299992 108.1959978  65.3300014  87.3449992 107.7649978  66.5790014
  88.1439992 103.5139978  62.2640014  85.9339992 103.7559978  63.6970014
  87.6199992 104.5479978  66.9570014  86.7759992 104.3739978  67.8880014
  86.8999992 103.6399978  68.8500014  85.5709992 105.2999978  67.7090014
  85.1509992 104.8599978  66.7800014  85.9129992 106.3529978  67.6120014
  84.3769992 105.0429978  68.6470014  84.2379992 103.9979978  68.9980014
  83.4659992 105.2909978  68.0620014  84.3979992 105.9579978  69.8630014
  83.4299992 105.8179978  70.3890014  84.4709992 107.0199978  69.5460014
  85.4639992 105.5919978  70.9200014  86.4749992 105.9319978  70.6100014
  85.5219992 104.4939978  71.0800014  85.1519992 106.2049978  72.3670014
  85.1669992 107.3099978  72.2610014  85.9309992 105.8089978  73.0520014
  83.7189992 105.9839978  73.0290014  83.5689992 104.9029978  73.2410014
  82.8819992 106.2389978  72.3440014  83.4199992 106.8049978  74.2830014
  82.3179992 106.7689978  74.4190014  83.7779992 107.8469978  74.1420014
  84.0799992 106.0969978  75.4030014  83.8899992 105.0139978  75.3860014
  84.9689992 106.6169978  76.2740014  85.3189992 105.9409978  77.0680014
  85.4639992 108.0429978  76.2330014  84.8399992 108.7589978  75.6560014
  86.4189992 107.9309978  75.6760014  85.9159992 108.8059978  77.4720014
  85.0109992 109.0999978  78.0440014  86.4739992 109.7319978  77.2190014
  86.8819992 107.9769978  78.2970014  87.8239992 107.8469978  77.7210014
  86.3889992 106.9899978  78.4330014  87.3129992 108.7339978  79.5990014
  87.7179992 109.7339978  79.3350014  88.0239992 108.0809978  80.1480014
  86.1199992 109.0789978  80.5250014  85.5489992 109.8799978  80.0080014
  86.5349992 109.5989978  81.4150014  85.2399992 107.8519978  80.9750014
  84.6269992 107.6239978  80.0770014  84.6559992 108.2459978  81.8350014
  85.9849992 106.5849978  81.5500014  86.5759992 106.8909978  82.4390014
  86.6799992 106.2209978  80.7630014  85.0979992 105.5729978  82.1630014
  84.6449992 104.9589978  81.3550014  84.5039992 106.0859978  82.9490014
  85.6659992 104.8059978  82.7310014 101.8859992  96.4129978  85.7310014
 101.8719992  95.3259978  85.9610014 100.9759992  96.8139978  85.2350014
 102.1529992  96.8289978  86.7260014 103.0119992  96.6879978  84.7620014
 103.1659992  97.7849978  84.6720014 103.9669992  96.3349978  85.2060014
 103.1569992  96.0319978  83.3880014 103.0409992  94.9389978  83.5500014
 102.4289992  96.4269978  82.6480014 104.6249992  96.0949978  82.7880014
 105.3409992  95.7419978  83.5610014 104.5979992  95.4229978  81.9040014
 105.1079992  97.4509978  82.3560014 105.0699992  98.0349978  83.3000014
 106.1819992  97.3099978  82.1110014 104.3089992  98.1549978  81.2810014
 103.2199992  98.1729978  81.5010014 104.6779992  99.1929978  81.1390014
 104.3439992  97.3619978  79.8680014 104.0509992  96.2909978  79.8550014
 103.5469992  97.9439978  79.3570014 105.7189992  97.4509978  79.1920014
 106.1819992  98.4259978  79.4570014 106.3199992  96.5609978  79.4770014
 105.7029992  97.2439978  77.6590014 106.7169992  96.8059978  77.5330014
 104.8399992  96.5929978  77.4020014 105.6349992  98.5089978  76.8320014
 106.3659992  99.2519978  77.2160014 105.9679992  98.3299978  75.7870014
 104.2119992  99.2169978  76.6030014 103.7259992  99.4879978  77.5640014
 104.2599992 100.1299978  75.9720014 103.2969992  98.2829978  75.8740014
 103.8319992  97.7129978  75.0840014 102.7949992  97.6699978  76.6530014
 102.2429992  99.0999978  75.0920014 101.3199992  98.4829978  75.1050014
 102.1439992 100.0669978  75.6300014 102.5269992  99.3849978  73.5960014
 101.9659992 100.3289978  73.4270014 103.5769992  99.6989978  73.4190014
 102.0329992  98.2159978  72.7430014 102.5249992  97.3399978  73.2170014
 100.9429992  98.1619978  72.9520014 102.4279992  98.4379978  71.2850014
 102.9799992  99.5219978  70.8930014 102.1509992  97.3459978  70.5230014
 102.2769992  97.7269978  69.1110014 101.4609992  98.4229978  68.8210014
 103.2909992  97.9989978  68.7470014 102.0539992  96.4359978  68.2600014
 102.9009992  95.7989978  68.5940014 102.1679992  96.7369978  66.7420014
 102.6969992  97.7079978  66.6420014 102.9259992  95.9919978  66.4180014
 100.8989992  96.5109978  66.0410014 100.4789992  97.6409978  64.9560014
 100.9339992  97.0049978  63.5960014 100.9149992  95.6049978  63.4560014
 100.0249992  95.0919978  63.8790014 100.8599992  95.3779978  62.3700014
 102.2769992  95.0009978  63.9190014 102.4179992  95.2039978  64.9700014
 102.2009992  93.9229978  63.9150014 103.6309992  95.5099978  63.2620014
 103.8569992  94.8539978  61.9260014 103.1949992  95.3519978  61.2340014
 104.9249992  94.8629978  61.7630014 103.5399992  93.8399978  62.1200014
 103.6879992  97.0349978  63.1900014 102.8499992  97.3839978  62.6050014
 103.8289992  97.4599978  64.1730014 104.5779992  97.2069978  62.6030014
 104.7149992  95.0729978  64.1750014 104.8149992  93.9979978  64.1420014
 104.7259992  95.5459978  65.1460014 105.6599992  95.4129978  63.7760014
  98.9889992  97.7739978  64.8450014 101.3699992  98.7909978  65.1400014
 100.6909992  95.9179978  68.6250014 100.4679992  94.7719978  68.0300014
 101.2969992  94.0929978  67.4430014  98.9969992  94.3409978  68.2510014
  98.8409992  93.4449978  67.6120014  98.2339992  95.0509978  67.8680014
  98.7679992  94.1629978  69.7130014  99.5139992  93.4549978  70.1320014
  97.7989992  93.6219978  69.6530014  98.4419992  95.4399978  70.5100014
  98.3719992  96.3349978  69.8560014  99.4039992  95.6659978  71.0170014
  97.2159992  95.3659978  71.4980014  96.3029992  95.1709978  70.8970014
  97.1319992  96.3559978  71.9960014  97.2749992  94.3709978  72.6950014
  97.0269992  93.3629978  72.2990014  96.4619992  94.5019978  73.4400014
  98.6109992  94.3399978  73.4070014  99.4949992  94.1549978  72.7600014
  98.5259992  93.4909978  74.1180014  99.1179992  95.6379978  74.1450014
  98.1579992  95.9989978  74.5730014  99.2989992  96.4459978  73.4050014
 100.1619992  95.4419978  75.1800014 101.2039992  95.5089978  74.8330014
 100.0999992  95.3949978  76.5440014 101.0229992  95.3249978  77.1380014
  98.8459992  95.5229978  77.3600014  98.8229992  94.7449978  78.1520014
  97.9469992  95.3389978  76.7340014  98.6949992  96.9119978  77.9770014
  97.6959992  97.0079978  78.4530014  98.6259992  97.6409978  77.1410014
  99.6869992  97.2769978  79.0200014  99.5069992  98.2489978  79.5270014
 100.6749992  97.4799978  78.5550014  99.8979992  96.1659978  80.1220014
 100.8669992  96.4789978  80.5670014  99.9699992  95.1749978  79.6260014
  98.7849992  96.1969978  81.2630014  97.9269992  95.7169978  80.7470014
  98.5399992  97.2779978  81.3390014  99.2079992  95.6169978  82.6110014
 100.0009992  96.2419978  83.0750014  99.5559992  94.5839978  82.4000014
  98.0319992  95.5649978  83.6040014  97.7899992  96.6449978  83.7010014
  98.3369992  95.0929978  84.5620014  96.7299992  94.8649978  83.1980014
  96.2979992  95.2709978  82.2590014  96.0129992  94.8359978  84.0470014
  96.9429992  93.7869978  83.0340014  99.9619992  40.0999978  80.1630014
 100.4619992  39.1449978  80.4330014  99.6679992  40.5439978  81.1380014
 100.5879992  40.8789978  79.6770014  98.8009992  39.5779978  79.2810014
  99.2739992  39.0089978  78.4520014  98.2689992  38.7919978  79.8580014
  97.8159992  40.6219978  78.8230014  97.4279992  41.1539978  79.7180014
  98.2749992  41.4619978  78.2580014  96.7189992  40.0549978  77.9790014
  97.2549992  39.5849978  77.1270014  96.1399992  39.3339978  78.5950014
  95.7599992  41.1789978  77.4540014  94.8449992  40.7249978  77.0160014
  95.3089992  41.6719978  78.3420014  96.3849992  42.2249978  76.5040014
  95.5239992  42.6879978  75.9780014  97.0639992  42.8749978  77.0960014
  97.1589992  41.6759978  75.3080014  98.1369992  41.2219978  75.5750014
  96.6509992  40.7839978  74.8820014  97.3739992  42.7209978  74.2110014
  97.6899992  43.7519978  74.4780014  98.1719992  42.2599978  73.5900014
  96.1599992  42.8539978  73.2270014  95.3309992  43.4719978  73.6330014
  96.5659992  43.5039978  72.4230014  95.6879992  41.6219978  72.4940014
  96.5629992  41.0649978  72.0950014  95.2489992  40.8699978  73.1840014
  94.6839992  41.8199978  71.2910014  94.3379992  40.8939978  70.7830014
  93.8129992  42.3519978  71.7320014  95.3459992  42.6389978  70.0820014
  94.5139992  42.8159978  69.3670014  95.5839992  43.6629978  70.4430014
  96.6919992  41.9709978  69.5500014  97.0299992  42.6539978  68.7410014
  97.4559992  41.9989978  70.3560014  96.3559992  40.5659978  68.9480014
  96.1879992  39.8989978  69.8210014  95.4699992  40.5229978  68.2800014
  97.5989992  39.8489978  68.2300014  97.9349992  40.2829978  67.2640014
  98.5059992  39.8779978  68.8720014  97.2309992  38.3969978  67.8790014
  96.8789992  37.5439978  68.6510014  97.2659992  38.1569978  66.5340014
  96.6069992  36.9649978  66.0300014  97.2499992  36.5329978  65.2340014
  96.5319992  36.1629978  66.7950014  95.2079992  37.3679978  65.4180014
  94.7729992  36.3889978  65.1240014  95.2529992  38.2739978  64.1780014
  96.1799992  37.9099978  63.6850014  94.3639992  38.1269978  63.5280014
  95.2929992  39.6509978  64.5380014  96.1459992  40.6239978  63.4910014
  95.2449992  41.7739978  63.0200014  93.8339992  41.6309978  62.8820014
  93.5229992  41.3699978  61.8480014  93.4819992  40.8009978  63.5310014
  93.1739992  42.9459978  63.4160014  93.2019992  43.7929978  62.7470014
  92.1229992  42.6989978  63.4510014  93.4199992  43.4919978  64.7580014
  94.8379992  43.8559978  64.9390014  95.0859992  44.7649978  64.4110014
  95.0329992  44.1169978  65.9680014  95.5119992  43.0289978  64.7730014
  92.4889992  44.7059978  64.9890014  91.4359992  44.4689978  64.9520014
  92.7349992  45.1199978  65.9560014  92.7099992  45.5189978  64.3140014
  93.0769992  42.4039978  65.7570014  93.5919992  41.4679978  65.5980014
  92.0299992  42.1499978  65.8270014  93.4379992  42.7679978  66.7070014
  97.2009992  41.3359978  64.3250014  96.6729992  39.8269978  62.3900014
  94.4259992  37.9269978  66.4210014  93.1059992  37.8789978  66.1750014
  92.5699992  37.4709978  65.1970014  92.4089992  38.5129978  67.4160014
  91.3689992  38.1259978  67.3610014  92.2379992  39.5949978  67.2350014
  93.0699992  38.1729978  68.7730014  94.0609992  38.6599978  68.8980014
  93.5149992  37.1589978  68.6760014  92.2599992  38.3609978  70.0850014
  91.2509992  37.9139978  69.9600014  92.0839992  39.4439978  70.2620014
  92.9989992  37.7659978  71.2890014  94.0919992  37.9089978  71.1550014
  92.7439992  36.6849978  71.3000014  92.7159992  38.4639978  72.6410014
  91.6199992  38.2999978  72.7230014  92.9179992  39.5559978  72.6140014
  93.2369992  37.8629978  73.9750014  92.7539992  38.3119978  74.8690014
  94.2789992  38.2289978  74.0930014  93.1109992  36.3469978  74.2280014
  93.7939992  36.1439978  75.0800014  93.5689992  35.8569978  73.3430014
  91.7109992  35.8209978  74.3550014  91.1049992  35.6269978  73.4580014
  91.0789992  35.5509978  75.4630014  90.0089992  35.3759978  75.2790014
  91.5839992  35.7749978  76.9140014  92.6559992  35.5179978  76.7760014
  91.1039992  35.0179978  77.5700014  91.5789992  37.1239978  77.6780014
  90.5449992  37.2869978  78.0500014  91.8629992  37.9829978  77.0340014
  92.5309992  37.1339978  78.8540014  93.6079992  37.2009978  78.5910014
  92.3549992  36.2489978  79.5020014  92.3579992  38.4009978  79.7650014
  92.6959992  39.3739978  79.3500014  93.0289992  38.2529978  80.6380014
  90.8279992  38.5499978  80.1840014  90.4319992  37.5229978  80.3390014
  90.2899992  38.9939978  79.3190014  90.4789992  39.4589978  81.3450014
  89.4299992  39.8249978  81.3300014  91.1449992  40.3479978  81.3640014
  90.8019992  38.9139978  82.7330014  91.7949992  38.4219978  82.8120014
  90.1549992  38.0849978  83.0920014  90.9899992  39.9419978  83.9500014
  92.0159992  40.3529978  83.8410014  90.8879992  39.3899978  84.9090014
  90.2989992  40.7969978  83.7920014  39.2649992  50.3349978  82.5340014
  40.0909992  49.9879978  81.8780014  39.2069992  49.8889978  83.5500014
  39.2219992  51.4329978  82.6930014  37.9799992  49.9739978  81.6260014
  37.1269992  49.8439978  82.3260014  37.7469992  50.8509978  80.9850014
  38.0079992  48.8089978  80.6510014  38.1389992  47.8909978  81.2640014
  37.0089992  48.6989978  80.1770014  39.1799992  48.8069978  79.6150014
  40.0789992  48.3419978  80.0730014  38.6149992  48.1059978  78.9640014
  39.3559992  50.0759978  78.8950014  38.3479992  50.3539978  78.5190014
  39.7589992  50.7549978  79.6770014  40.3829992  50.0859978  77.7830014
  41.3279992  49.5689978  78.0520014  40.0499992  49.6059978  76.8380014
  40.7419992  51.4999978  77.4620014  39.8139992  51.9879978  77.0930014
  40.9479992  52.1179978  78.3610014  41.8899992  51.7019978  76.4760014
  41.8939992  52.7539978  76.1190014  42.8349992  51.5259978  77.0340014
  42.0199992  50.7699978  75.2070014  42.9699992  50.9879978  74.6750014
  41.9869992  49.7039978  75.5190014  40.9089992  50.9889978  74.2160014
  40.0549992  50.2829978  74.2970014  40.6049992  52.0449978  74.3770014
  41.2969992  50.9409978  72.7740014  42.2169992  51.4849978  72.4720014
  41.4339992  49.8609978  72.5550014  40.1259992  51.4839978  71.9450014
  39.3809992  50.6609978  71.9740014  39.7509992  52.3659978  72.5070014
  40.3329992  51.8949978  70.4200014  39.3599992  52.1229978  69.9330014
  40.9849992  52.7939978  70.4110014  41.0009992  50.7829978  69.6440014
  41.7549992  50.3549978  70.3380014  40.2609992  50.0789978  69.2050014
  41.5859992  51.3629978  68.3540014  40.6789992  51.5899978  67.7530014
  42.1549992  52.3069978  68.4900014  42.4239992  50.4669978  67.5040014
  43.1879992  50.8099978  66.6120014  42.3369992  49.2439978  68.0060014
  43.3489992  48.2939978  67.6920014  43.9099992  48.6729978  66.8100014
  44.0839992  48.3609978  68.5230014  42.7889992  46.9369978  67.4490014
  43.6979992  46.2989978  67.4840014  42.1259992  46.8329978  66.0630014
  42.7249992  47.2599978  65.2300014  41.8439992  45.7799978  65.8480014
  41.0879992  47.8099978  65.9600014  39.7509992  47.4209978  65.1120014
  39.1009992  48.8529978  64.6640014  39.5999992  50.0419978  65.1100014
  38.8739992  50.8789978  65.0260014  39.9679992  50.0159978  66.1580014
  40.7689992  50.6209978  64.2440014  41.1669992  51.4979978  64.7330014
  41.4789992  49.8199978  64.3870014  40.5479992  50.9279978  62.7270014
  40.2609992  49.6329978  62.0000014  40.2269992  49.9069978  60.9560014
  41.0459992  48.9039978  62.1330014  39.2879992  49.2989978  62.3300014
  39.4639992  51.9869978  62.5620014  39.9089992  52.8929978  62.9450014
  39.3159992  52.0509978  61.4940014  38.5809992  51.5949978  63.0450014
  41.8659992  51.5479978  62.2180014  41.7179992  51.6929978  61.1580014
  42.7709992  50.9609978  62.1680014  41.9639992  52.5189978  62.6810014
  40.1989992  46.6049978  63.8910014  38.8569992  46.7349978  66.0180014
  41.8499992  46.6659978  68.5030014  41.7149992  45.3629978  68.7740014
  42.2919992  44.4549978  68.1780014  40.7879992  45.1759978  69.9820014
  41.0689992  44.3319978  70.6480014  39.7799992  45.0969978  69.5220014
  40.9189992  46.4569978  71.0170014  40.1739992  46.3879978  71.8380014
  40.5739992  47.2979978  70.3780014  42.2939992  46.6859978  71.6740014
  42.4029992  47.7089978  72.0940014  43.1389992  46.6039978  70.9560014
  42.4519992  45.8279978  72.8660014  42.5379992  44.7419978  72.6460014
  41.5409992  45.8759978  73.5010014  43.7039992  46.1559978  73.7400014
  44.5859992  46.4609978  73.1360014  43.9029992  45.2249978  74.3110014
  43.6089992  47.1809978  74.8660014  42.8909992  46.8219978  75.6340014
  43.2049992  48.1529978  74.5090014  44.8669992  47.3509978  75.6820014
  45.7129992  47.4659978  74.9720014  45.1079992  46.4529978  76.2900014
  44.7849992  48.6599978  76.4550014  44.8139992  49.6159978  75.9120014
  44.6799992  48.8729978  77.7600014  44.8599992  49.8639978  78.2010014
  44.6389992  47.8209978  78.8080014  45.5629992  47.8589978  79.4230014
  44.7499992  46.7969978  78.3930014  43.3419992  48.0299978  79.5700014
  42.5119992  47.7439978  78.8880014  43.0789992  49.0359978  79.9620014
  43.0469992  47.2099978  80.8940014  42.0009992  47.2959978  81.2580014
  43.7529992  47.6829978  81.6100014  43.3039992  45.6849978  80.6160014
  44.3619992  45.5169978  80.3220014  42.6709992  45.4619978  79.7310014
  43.0959992  44.7099978  81.7720014  42.0609992  44.8349978  82.1560014
  43.7629992  44.9669978  82.6230014  43.1709992  43.3209978  81.1560014
  44.1869992  43.1039978  80.7620014  42.5449992  43.3369978  80.2380014
  42.6099992  42.2079978  82.0380014  42.3039992  41.3019978  81.4730014
  41.6849992  42.4729978  82.5920014  43.8049992  41.8619978  83.0510014
  43.4169992  41.2759978  83.9120014  44.2069992  42.8349978  83.4070014
  44.5609992  41.2469978  82.5180014  79.6689992 107.9209978  82.0410014
  80.2129992 108.2189978  82.9630014  79.9009992 106.8599978  81.8050014
  78.6029992 108.0569978  82.3210014  80.0289992 108.7569978  80.8530014
  79.9209992 109.7639978  81.3090014  81.1279992 108.6679978  80.7180014
  79.0769992 108.5569978  79.6810014  78.9869992 107.4649978  79.4980014
  78.0559992 108.6929978  80.0970014  79.3189992 109.3349978  78.3420014
  79.1069992 110.4129978  78.5040014  80.3589992 109.2699978  77.9580014
  78.3939992 108.8559978  77.1890014  78.4779992 107.7949978  76.8710014
  77.3289992 108.8649978  77.5040014  78.3689992 109.7309978  75.9570014
  77.6439992 109.3169978  75.2240014  77.8909992 110.6819978  76.2780014
  79.7209992 109.8759978  75.3510014  80.4339992 110.4209978  76.0060014
  80.1749992 108.8899978  75.1130014  79.7039992 110.6459978  74.0020014
  78.8369992 110.2509978  73.4300014  79.4289992 111.6939978  74.2460014
  80.9639992 110.5169978  73.1810014  81.8079992 110.8539978  73.8210014
  81.1449992 109.4329978  73.0170014  80.9579992 111.4049978  71.9720014
  80.8989992 112.4359978  72.3810014  81.9229992 111.3349978  71.4260014
  79.8089992 111.3049978  70.8990014  78.9389992 111.6119978  71.5170014
  79.9449992 112.0429978  70.0800014  79.5749992 109.8599978  70.3100014
  79.3719992 109.2759978  71.2330014  78.6729992 109.8709978  69.6600014
  80.8369992 109.2939978  69.5330014  81.1499992 110.1259978  68.8660014
  81.6649992 109.2039978  70.2680014  80.5219992 108.0699978  68.6050014
  79.9529992 108.4269978  67.7210014  81.4499992 107.7179978  68.1060014
  80.0389992 106.7969978  69.3540014  80.8629992 106.3199978  69.9270014
  79.2149992 107.0229978  70.0650014  79.3929992 105.9059978  68.2900014
  80.0349992 105.2449978  67.5160014  78.0469992 105.9819978  68.3530014
  77.1969992 105.0829978  67.6340014  77.7509992 104.1589978  67.3620014
  76.3399992 104.6579978  68.1990014  76.6409992 105.8369978  66.4050014
  75.8029992 105.2359978  65.9910014  77.7279992 105.9529978  65.3110014
  78.7389992 106.2519978  65.6590014  77.9239992 104.9669978  64.8380014
  77.2399992 106.7299978  64.2970014  77.5169992 108.3029978  64.1570014
  78.6629992 108.3889978  63.1000014  79.7719992 107.5849978  63.2700014
  79.5369992 106.5069978  63.3950014  80.3759992 107.7089978  62.3460014
  80.7699992 108.1789978  64.3540014  80.2849992 108.1259978  65.3170014
  81.5299992 107.4119978  64.3270014  81.3589992 109.5579978  64.1340014
  82.3319992 109.4719978  62.9190014  82.7859992 108.4929978  62.9510014
  81.8479992 109.6439978  61.9680014  83.0409992 110.2829978  62.9930014
  80.3119992 110.7129978  63.9360014  79.6129992 110.4799978  63.1470014
  79.9319992 110.7899978  64.9440014  80.8449992 111.6359978  63.7630014
  82.2349992 109.9549978  65.2340014  81.7659992 109.9049978  66.2060014
  82.6719992 110.9339978  65.1100014  83.0609992 109.2679978  65.3440014
  76.2769992 108.9689978  63.6800014  78.0559992 108.8209978  65.4250014
  76.1239992 107.0599978  66.9060014  75.0059992 106.9889978  67.6130014
  74.5129992 105.9649978  68.1000014  74.4269992 108.3999978  67.8440014
  73.3459992 108.4649978  68.0910014  74.5049992 109.1019978  66.9870014
  75.1559992 109.1019978  69.0500014  74.9119992 110.1809978  68.9490014
  76.2329992 109.1849978  68.7900014  74.8549992 108.7349978  70.5060014
  73.8579992 109.1259978  70.8010014  75.6229992 109.3619978  71.0060014
  75.0809992 107.2619978  70.8850014  75.9749992 106.6969978  70.5450014
  74.1729992 106.6869978  70.6040014  75.1319992 107.1779978  72.4750014
  75.0059992 106.1139978  72.7690014  74.2109992 107.6109978  72.9230014
  76.3549992 107.7319978  73.2680014  76.1059992 107.4689978  74.3180014
  76.5389992 108.8269978  73.2590014  77.6939992 107.0919978  72.7140014
  78.5389992 107.4989978  73.3090014  77.8949992 107.3889978  71.6630014
  77.7449992 105.5909978  72.7540014  77.2089992 105.0319978  71.9730014
  78.3339992 104.7879978  73.7060014  78.1479992 103.7039978  73.7000014
  79.0809992 105.2979978  74.9350014  79.0749992 106.4039978  75.0460014
  80.1659992 105.0669978  74.8770014  78.5759992 104.7639978  76.3170014
  78.6609992 103.6569978  76.3070014  77.5539992 105.1439978  76.5320014
  79.4909992 105.2009978  77.4940014  79.5989992 106.2929978  77.6650014
  80.5249992 104.7959978  77.4590014  78.9159992 104.5199978  78.7710014
  78.5909992 103.4709978  78.6000014  77.9819992 105.0999978  78.9270014
  79.8299992 104.4249978  80.0390014  80.2499992 105.4389978  80.2090014
  80.7479992 103.8879978  79.7180014  78.9579992 103.9519978  81.2170014
  78.7079992 102.8899978  81.0090014  78.0029992 104.5189978  81.2230014
  79.6079992 103.9059978  82.6180014  79.7479992 104.9299978  83.0240014
  80.6509992 103.5969978  82.3920014  78.7479992 103.0789978  83.5880014
  77.8669992 103.6499978  83.9510014  79.3829992 102.7689978  84.4450014
  78.3329992 102.1779978  83.0880014  31.4559992  75.2009978  82.0690014
  31.8359992  76.0909978  82.6150014  31.1799992  74.4299978  82.8190014
  30.5659992  75.5019978  81.4770014  32.4899992  74.6359978  81.1630014
  33.4739992  74.4779978  81.6550014  32.0669992  73.6869978  80.7710014
  32.7849992  75.3899978  79.8510014  32.9289992  76.4539978  80.1360014
  33.7949992  75.0499978  79.5360014  31.7209992  75.1269978  78.7680014
  31.9929992  74.2109978  78.2010014  30.7169992  75.0029978  79.2280014
  31.5919992  76.2599978  77.7490014  30.5469992  76.5929978  77.5700014
  32.1719992  77.1489978  78.0790014  32.1139992  76.0259978  76.2990014
  31.3799992  75.4409978  75.7050014  32.0399992  77.0219978  75.8120014
  33.5159992  75.4549978  75.9490014  34.3969992  76.1219978  76.0640014
  33.6359992  74.5509978  76.5840014  33.6559992  74.8699978  74.4920014
  33.2519992  75.6599978  73.8240014  34.7239992  74.6999978  74.2380014
  32.8699992  73.5609978  74.2670014  33.1719992  72.8009978  75.0190014
  31.8239992  73.7849978  74.5650014  33.0669992  72.9729978  72.8600014
  33.0889992  73.8079978  72.1280014  34.0019992  72.3779978  72.7780014
  31.8989992  72.0739978  72.3430014  32.1649992  71.8669978  71.2840014
  31.8549992  71.0759978  72.8300014  30.4829992  72.8249978  72.2950014
  30.0639992  73.0579978  73.2970014  30.5659992  73.7999978  71.7680014
  29.3799992  72.0199978  71.5130014  29.0719992  71.1509978  72.1330014
  28.4659992  72.6529978  71.5050014  29.7809992  71.5809978  70.1040014
  30.1099992  72.4919978  69.5600014  30.6149992  70.8549978  70.2180014
  28.7329992  70.8369978  69.3430014  29.2759992  70.5109978  68.4300014
  28.2589992  69.9799978  69.8680014  27.6869992  71.8519978  69.0370014
  26.7159992  72.1059978  69.7600014  27.8009992  72.2839978  67.7500014
  26.8719992  73.4469978  67.5500014  25.8629992  73.1269978  67.2110014
  26.6149992  73.9379978  68.5140014  27.5149992  74.4899978  66.5920014
  26.9299992  75.4329978  66.5230014  27.4749992  74.0289978  65.1150014
  27.3649992  72.9249978  65.1760014  26.4829992  74.3559978  64.7370014
  28.4509992  74.6389978  64.3190014  28.9219992  74.1359978  62.9060014
  30.4709992  73.8259978  63.0900014  31.2279992  74.7549978  63.7950014
  31.5239992  75.5919978  63.1260014  30.6589992  75.2739978  64.5950014
  32.5559992  74.1039978  64.3320014  33.1509992  73.9159978  63.4500014
  33.1039992  74.8399978  64.9020014  32.4459992  72.8209978  65.1450014
  33.8389992  72.2999978  65.4300014  34.3619992  73.1679978  65.8040014
  33.7739992  71.4569978  66.1010014  34.3149992  71.9969978  64.5090014
  31.6899992  73.0439978  66.4570014  30.7569992  73.4759978  66.1240014
  31.7009992  72.0709978  66.9270014  32.2409992  73.7109978  67.1030014
  31.6989992  71.6729978  64.4990014  32.1809992  71.2369978  63.6370014
  30.7909992  72.0889978  64.0870014  31.4829992  70.8589978  65.1740014
  28.2279992  72.8359978  62.7110014  28.8249992  75.1069978  61.8240014
  28.8239992  74.8079978  67.0810014  29.1919992  76.0529978  66.8920014
  28.5229992  76.9149978  66.3260014  30.5889992  76.2729978  67.4610014
  31.1329992  76.4779978  66.5140014  30.9899992  75.3999978  68.0190014
  30.5879992  77.5979978  68.2530014  29.5499992  77.9799978  68.3610014
  31.1599992  78.2159978  67.5290014  31.3489992  77.5059978  69.5950014
  31.9479992  78.4419978  69.5960014  32.0369992  76.6339978  69.6200014
  30.4829992  77.5149978  70.8760014  30.0679992  78.5029978  71.1690014
  31.1729992  77.2269978  71.6970014  29.2989992  76.5199978  70.9360014
  29.8399992  75.5539978  70.8440014  28.6749992  76.7299978  70.0410014
  28.3739992  76.5789978  72.1970014  27.5239992  75.9009978  71.9660014
  28.0009992  77.6249978  72.1860014  29.0729992  76.1279978  73.4650014
  30.0729992  76.5829978  73.6280014  29.2689992  75.0349978  73.4270014
  28.3209992  76.4419978  74.7160014  27.9799992  77.4849978  74.7950014
  27.9799992  75.5139978  75.6580014  27.2329992  75.7939978  76.4160014
  28.2999992  74.0139978  75.5610014  29.3559992  73.8119978  75.2790014
  27.8379992  73.4729978  74.7070014  28.0299992  73.4409978  76.9120014
  26.9469992  73.2349978  77.0510014  28.2609992  74.1939978  77.6950014
  28.8109992  72.1879978  77.1820014  29.8569992  72.5509978  77.0960014
  28.6529992  71.4979978  76.3260014  28.3949992  71.4739978  78.4890014
  28.3979992  72.1559978  79.3660014  29.1539992  70.7259978  78.8020014
  27.0819992  70.5489978  78.2570014  27.1399992  70.0689978  77.2570014
  26.1609992  71.1669978  78.3170014  26.9529992  69.3269978  79.1200014
  26.9909992  69.6719978  80.1750014  27.8809992  68.7209978  79.0440014
  25.6019992  68.6469978  78.9530014  25.6089992  68.0629978  78.0070014
  24.7649992  69.3779978  78.9250014  25.1069992  67.7969978  80.0970014
  24.4809992  66.9179978  79.8290014  24.4789992  68.4159978  80.7730014
  25.9399992  67.3849978  80.7070014  60.0599992 109.8229978  84.7720014
  60.4489992 109.0239978  84.1050014  58.9699992 109.6079978  84.7590014
  60.3899992 109.7779978  85.8320014  60.3159992 111.1099978  83.9250014
  60.1579992 112.0259978  84.5330014  61.3919992 111.1199978  83.6450014
  59.3319992 111.3959978  82.7010014  59.7919992 112.2429978  82.1480014
  59.3109992 110.4659978  82.0940014  57.9359992 111.8219978  83.0800014
  57.6159992 111.1419978  83.8980014  57.9789992 112.8559978  83.4850014
  56.8699992 111.9139978  81.9340014  56.8069992 110.8569978  81.5980014
  55.8719992 112.2289978  82.3080014  57.2699992 112.7079978  80.6330014
  57.6679992 113.7289978  80.8160014  58.0339992 112.0579978  80.1540014
  56.1209992 112.9709978  79.7700014  55.5559992 112.0449978  79.5320014
  55.3339992 113.5569978  80.2920014  56.4459992 113.8689978  78.5210014
  56.7809992 114.8299978  78.9670014  57.2029992 113.3089978  77.9310014
  55.1409992 114.0819978  77.6400014  54.4589992 113.2069978  77.6860014
  54.5449992 114.9749978  77.9290014  55.5749992 114.2759978  76.2250014
  56.1869992 115.2009978  76.1480014  56.2679992 113.5149978  75.8060014
  54.4919992 114.6159978  75.1740014  53.6999992 113.8389978  75.2300014
  54.1379992 115.6609978  75.3030014  55.0749992 114.5239978  73.7020014
  55.9889992 115.1549978  73.7120014  55.4789992 113.5239978  73.4340014
  54.0869992 115.1429978  72.6640014  53.2849992 114.3799978  72.5610014
  53.6759992 116.0029978  73.2340014  54.6469992 115.5129978  71.2320014
  55.0919992 114.6819978  70.6450014  53.7369992 115.7759978  70.6510014
  55.6239992 116.7069978  71.2910014  55.0189992 117.6209978  71.4740014
  56.3109992 116.5619978  72.1520014  56.5719992 116.7279978  70.0890014
  57.7619992 116.9909978  70.2620014  55.9589992 116.3199978  69.0370014
  56.6469992 115.7359978  67.8950014  55.9119992 115.7199978  67.0630014
  57.4869992 116.3979978  67.5960014  57.2589992 114.3579978  68.2440014
  57.7829992 114.5019978  69.2140014  58.1719992 113.7179978  67.1650014
  59.0309992 114.3869978  66.9450014  58.4999992 112.7469978  67.5940014
  57.3409992 113.4659978  66.0500014  57.8919992 113.8349978  64.6400014
  56.7679992 113.3959978  63.6230014  56.6409992 112.0859978  63.0260014
  56.2159992 112.1279978  62.0000014  57.5919992 111.5149978  62.9600014
  55.5399992 111.3079978  63.7970014  55.7059992 110.3079978  63.4230014
  55.8969992 111.4099978  64.8110014  54.0879992 111.7769978  63.6560014
  53.9309992 113.2339978  64.1330014  54.3949992 113.8709978  63.3950014
  52.9039992 113.5549978  64.2270014  54.4629992 113.3479978  65.0660014
  53.7139992 111.7599978  62.2400014  52.7159992 111.3659978  62.1130014
  53.7229992 112.7799978  61.8840014  54.4139992 111.2299978  61.6110014
  53.1919992 110.9479978  64.4470014  53.3029992 109.9219978  64.1280014
  52.1399992 111.1759978  64.3600014  53.4179992 111.1009978  65.4920014
  57.9789992 115.2919978  64.5580014  59.1349992 113.1099978  64.3360014
  56.1689992 113.3899978  68.5590014  56.3699992 112.3409978  69.3620014
  57.2669992 112.1729978  70.1640014  55.1699992 111.4199978  69.1960014
  55.1419992 111.1429978  68.1200014  54.2459992 111.9949978  69.4170014
  55.3039992 110.1349978  70.0730014  56.3819992 109.8849978  69.9740014
  54.6189992 109.2949978  69.8310014  55.0369992 110.5089978  71.5590014
  55.5819992 111.4299978  71.8550014  55.5539992 109.7459978  72.1790014
  53.6029992 110.4549978  72.0370014  53.2609992 109.4259978  71.7930014
  53.0249992 111.1769978  71.4220014  53.2789992 110.8549978  73.4560014
  52.1689992 110.8669978  73.5090014  53.5629992 111.9089978  73.6660014
  53.9129992 109.9739978  74.4550014  55.0239992 109.9489978  74.4440014
  53.5559992 108.9449978  74.2370014  53.4679992 110.3409978  75.8940014
  53.9009992 111.3399978  76.1140014  53.8899992 109.5999978  76.6060014
  51.9759992 110.0999978  76.1020014  51.5629992 109.1119978  75.8500014
  51.2009992 110.8909978  76.8370014  50.1749992 110.5079978  76.9460014
  51.5359992 112.1539978  77.5750014  50.7709992 112.9459978  77.4260014
  52.4699992 112.5879978  77.1580014  51.7099992 111.8829978  79.0910014
  52.5139992 111.1269978  79.2220014  50.7239992 111.5049978  79.4370014
  52.0649992 113.1449978  79.9080014  51.1299992 113.7439978  79.9480014
  52.8329992 113.8109978  79.4600014  52.3479992 112.7579978  81.4220014
  53.3489992 112.3329978  81.6500014  51.6159992 112.0799978  81.9090014
  52.3499992 114.0159978  82.2980014  52.6579992 113.7799978  83.3390014
  51.3019992 114.3799978  82.3610014  53.1539992 115.1229978  81.7510014
  52.5129992 115.7809978  81.1270014  53.9579992 114.6609978  81.1390014
  53.6129992 116.1109978  82.7630014  54.2669992 115.5109978  83.4310014
  52.7109992 116.4649978  83.3070014  54.5849992 117.1679978  82.2110014
  54.2049992 117.9499978  81.5200014  55.5099992 116.7019978  81.8080014
  54.9329992 117.7119978  83.1150014  35.0719992  96.8339978  83.9160014
  34.4879992  96.6039978  82.9990014  35.4249992  97.8859978  83.8660014
  34.2809992  96.8219978  84.6950014  36.2769992  95.9249978  84.1630014
  37.0489992  96.2679978  83.4420014  36.7609992  96.0989978  85.1480014
  36.0419992  94.3769978  84.0880014  36.9449992  93.7319978  84.1590014
  35.3059992  94.0949978  84.8710014  35.4089992  93.8879978  82.6890014
  35.1479992  92.8079978  82.6770014  34.5709992  94.5689978  82.4300014
  36.5219992  93.9929978  81.5710014  37.5459992  94.2939978  81.8810014
  36.5869992  92.9609978  81.1630014  36.1789992  94.9829978  80.4580014
  35.3169992  94.8109978  79.7790014  35.8999992  95.9369978  80.9540014
  37.3919992  95.2119978  79.4800014  38.3059992  95.3949978  80.0830014
  37.6969992  94.3319978  78.8740014  37.0459992  96.3459978  78.4920014
  36.6619992  97.1829978  79.1140014  37.9939992  96.7289978  78.0570014
  36.0019992  96.0049978  77.4650014  35.1249992  95.5429978  77.9660014
  35.6989992  96.8359978  76.7930014  36.4579992  94.9369978  76.4300014
  36.6429992  93.9429978  76.8900014  35.5069992  94.6919978  75.9100014
  37.6729992  95.2009978  75.5680014  37.7229992  96.2589978  75.2360014
  38.6799992  95.0389978  76.0080014  37.6869992  94.2979978  74.2820014
  38.6489992  94.3619978  73.7300014  37.5009992  93.2399978  74.5630014
  36.6909992  94.6759978  73.1940014  35.6949992  94.6129978  73.6810014
  36.8019992  95.7559978  72.9560014  36.7049992  93.8249978  71.9690014
  37.6289992  93.8319978  71.3520014  36.4929992  92.7939978  72.3250014
  35.5049992  94.0939978  70.9750014  34.7529992  94.2839978  71.7700014
  35.5029992  94.9259978  70.2390014  35.0539992  92.8679978  70.1320014
  35.6939992  91.8359978  69.9900014  34.0019992  93.2109978  69.4750014
  33.4169992  92.1429978  68.6110014  34.1949992  91.5589978  68.0750014
  32.9209992  91.3669978  69.2330014  32.5789992  92.7769978  67.5140014
  32.3689992  92.0639978  66.6880014  33.3879992  93.8839978  66.7310014
  34.0229992  94.4479978  67.4470014  34.1499992  93.3379978  66.1340014
  32.4719992  94.7389978  66.0420014  32.8509992  94.8659978  64.4570014
  34.3809992  95.4199978  64.4130014  34.6159992  96.5899978  65.1900014
  33.7699992  97.3099978  65.1700014  34.6939992  96.2539978  66.2460014
  35.9359992  97.3379978  64.7440014  36.0149992  98.2239978  65.3560014
  36.7299992  96.6789978  65.0610014  36.1729992  97.8319978  63.3320014
  35.2829992  99.1099978  63.1750014  35.2469992  99.4879978  62.1640014
  34.3109992  98.9709978  63.6230014  35.7679992  99.8649978  63.7770014
  37.6229992  98.2639978  63.1110014  37.6579992  99.2119978  62.5960014
  38.0489992  98.2799978  64.1030014  38.1299992  97.4779978  62.5710014
  35.9189992  96.7659978  62.3400014  35.7429992  97.2159978  61.3750014
  34.9659992  96.2909978  62.5220014  36.6089992  95.9479978  62.4890014
  32.8089992  93.5939978  63.7670014  31.9219992  95.9329978  63.9360014
  31.3869992  93.3709978  68.1110014  30.6069992  92.5009978  68.8330014
  30.6209992  91.2799978  68.7640014  29.7999992  93.3779978  69.7820014
  28.9489992  92.8129978  70.2190014  29.3269992  94.1369978  69.1220014
  30.7059992  94.0209978  70.8270014  30.1599992  94.8079978  71.3890014
  31.5749992  94.4809978  70.3090014  31.0759992  93.0249978  71.9240014
  31.5159992  92.1049978  71.4820014  30.2349992  92.5899978  72.5040014
  32.0209992  93.6769978  72.9440014  31.5479992  94.6029978  73.3360014
  32.9649992  93.9119978  72.4060014  32.5129992  92.5999978  73.9780014
  33.2599992  91.9179978  73.5180014  31.7569992  91.8589978  74.3170014
  33.1069992  93.3099978  75.2520014  32.3189992  93.8469978  75.8230014
  33.8269992  94.0769978  74.8960014  33.7629992  92.4159978  76.3220014
  33.9829992  93.0049978  77.2370014  34.7189992  92.0739978  75.8700014
  33.0269992  91.2289978  76.8410014  32.6339992  90.6709978  75.9790014
  32.6139992  90.8189978  78.1350014  32.0229992  89.8979978  78.2430014
  32.9009992  91.5689978  79.3920014  33.6139992  92.4019978  79.2120014
  33.5719992  90.8979978  79.9690014  31.7769992  92.1219978  80.1140014
  32.1049992  92.6329978  81.0450014  31.1139992  91.3059978  80.4730014
  30.9689992  93.1729978  79.2620014  30.1299992  93.5289978  79.8970014
  30.4289992  92.7149978  78.4060014  31.7889992  94.3439978  78.7300014
  32.4159992  93.9489978  77.9030014  32.4739992  94.7689978  79.4940014
  30.9649992  95.6519978  78.2110014  30.4069992  95.2379978  77.3450014
  31.6289992  96.4349978  77.7850014  30.0379992  96.3629978  79.2310014
  30.0629992  95.8089978  80.1940014  28.9959992  96.4939978  78.8680014
  30.5899992  97.8319978  79.5470014  30.4369992  98.4299978  78.6230014
  31.6599992  97.6819978  79.8050014  29.8789992  98.5439978  80.7240014
  30.3589992  99.5369978  80.8600014  29.9099992  98.0399978  81.7140014
  28.7999992  98.6789978  80.4930014  29.5369992  83.6779978  84.2980014
  30.5979992  83.9929978  84.2070014  29.5499992  82.6059978  84.5900014
  29.0799992  84.2669978  85.1230014  28.8729992  84.0109978  82.9890014
  29.4309992  83.5869978  82.1270014  27.7799992  83.8129978  82.9700014
  28.9109992  85.5949978  82.8560014  28.4329992  86.1249978  83.7070014
  29.9919992  85.8539978  82.8360014  28.3939992  86.1199978  81.4360014
  27.2919992  85.9899978  81.3830014  28.6819992  87.1929978  81.4630014
  29.1439992  85.4999978  80.1840014  28.9139992  84.4129978  80.1840014
  28.6389992  85.8449978  79.2560014  30.6829992  85.7239978  80.2240014
  30.9399992  86.7829978  80.4420014  31.0259992  85.1879978  81.1340014
  31.4499992  85.5229978  79.0200014  31.3049992  86.2889978  78.2280014
  32.4639992  85.5779978  79.4700014  31.3159992  84.0639978  78.4510014
  31.1839992  83.3969978  79.3300014  30.3789992  84.0129978  77.8570014
  32.4859992  83.5349978  77.5990014  33.3829992  83.6189978  78.2490014
  32.3819992  82.4719978  77.2940014  32.8699992  84.4499978  76.3990014
  33.1509992  85.4909978  76.6660014  33.8269992  83.9789978  76.0880014
  31.8639992  84.3299978  75.2130014  30.9269992  84.8239978  75.5500014
  32.3749992  85.0439978  74.5330014  31.6569992  82.9529978  74.5200014
  32.5869992  82.7079978  73.9640014  31.5439992  82.2539978  75.3750014
  30.4179992  82.8859978  73.5530014  30.6799992  81.9969978  72.9390014
  29.5779992  82.8389978  74.2780014  30.2219992  84.0829978  72.6500014
  29.2239992  83.9929978  72.1710014  30.0869992  85.0649978  73.1520014
  31.1789992  84.1449978  71.4860014  32.2099992  84.3219978  71.8610014
  31.2109992  83.1479978  70.9970014  30.8889992  85.2229978  70.4940014
  29.9489992  86.0039978  70.6000014  31.7799992  85.0759978  69.5200014
  31.2759992  85.6029978  68.2890014  30.7739992  86.5879978  68.4000014
  32.1379992  85.8749978  67.6440014  30.4819992  84.5539978  67.4110014
  31.0869992  83.6329978  67.2720014  30.1769992  85.0809978  66.0230014
  29.5879992  86.0189978  66.1090014  31.0929992  85.4849978  65.5410014
  29.5999992  84.1659978  65.1510014  29.3219992  84.3729978  63.5840014
  30.1229992  83.1309978  62.8660014  29.6179992  81.7519978  63.0280014
  28.5329992  81.6649978  62.8060014  30.1229992  81.1239978  62.2620014
  29.9979992  81.2989978  64.4910014  29.9459992  82.1299978  65.1790014
  29.2309992  80.5709978  64.7120014  31.3789992  80.6729978  64.7290014
  31.7399992  79.6869978  63.6030014  31.6289992  80.1589978  62.6380014
  32.7449992  79.3039978  63.7040014  31.0959992  78.8239978  63.6860014
  32.4479992  81.7799978  64.6120014  32.2679992  82.2479978  63.6560014
  32.2169992  82.5049978  65.3780014  33.4419992  81.3779978  64.7470014
  31.4179992  79.9429978  66.0040014  30.6979992  79.1389978  65.9720014
  31.1829992  80.6869978  66.7510014  32.4049992  79.5269978  66.1390014
  27.8559992  84.2449978  63.3860014  30.0119992  85.6149978  63.0530014
  29.2069992  84.2779978  68.0310014  29.0549992  82.9399978  68.3070014
  29.8259992  82.0459978  67.9900014  27.6709992  82.5989978  68.8740014
  27.0929992  82.0289978  68.1160014  27.1859992  83.5679978  69.1200014
  27.7689992  81.5469978  70.0140014  28.1049992  82.0049978  70.9690014
  28.4839992  80.7249978  69.7970014  26.3619992  80.8899978  70.2730014
  25.7299992  80.8129978  69.3620014  25.8069992  81.6409978  70.8750014
  26.4209992  79.5979978  71.2150014  26.7709992  78.7209978  70.6300014
  25.4039992  79.2859978  71.5360014  27.1799992  79.8939978  72.4970014
  28.0539992  80.5519978  72.3050014  27.5279992  78.9139978  72.8880014
  26.3629992  80.5649978  73.6550014  25.4909992  79.9759978  74.0120014
  26.0239992  81.5629978  73.3040014  27.3369992  80.6479978  74.8350014
  28.2559992  81.1529978  74.4690014  27.7369992  79.7469978  75.3490014
  26.8859992  81.6369978  75.8840014  26.7149992  82.5959978  75.3730014
  26.7119992  81.3599978  77.2560014  26.7099992  82.3239978  77.7850014
  27.0259992  80.0489978  77.9450014  27.9669992  79.5549978  77.6210014
  26.1739992  79.3629978  77.7490014  26.8419992  80.1849978  79.4660014
  26.9099992  79.1369978  79.8290014  25.8599992  80.5979978  79.7820014
  27.8689992  81.0489978  80.2190014  27.7109992  80.9219978  81.3110014
  27.7599992  82.1249978  79.9610014  29.3119992  80.5429978  79.9630014
  29.7539992  81.1899978  79.1760014  29.2609992  79.4789978  79.6490014
  30.3919992  80.5749978  81.0500014  30.0919992  79.8309978  81.8200014
  30.3299992  81.5879978  81.5010014  31.8209992  80.4019978  80.5240014
  31.9749992  81.1449978  79.7130014  31.8339992  79.3999978  80.0430014
  32.9639992  80.5129978  81.6470014  32.8419992  81.5429978  82.0450014
  33.8969992  80.3559978  81.0640014  32.8079992  79.4989978  82.7900014
  33.2489992  78.5679978  82.3750014  31.7339992  79.3219978  83.0150014
  33.4159992  79.9079978  83.6250014 113.0879992  67.0799978  86.0460014
 112.5709992  66.1039978  86.1610014 112.8229992  67.7559978  86.8870014
 114.1189992  66.8009978  86.3510014 112.8049992  67.8319978  84.7190014
 111.7049992  67.8339978  84.5630014 113.1059992  68.8859978  84.9010014
 113.5089992  67.1709978  83.4740014 113.3289992  67.6929978  82.5100014
 114.5979992  67.2469978  83.6810014 113.2629992  65.7109978  83.1990014
 113.4349992  65.1499978  84.1430014 112.1859992  65.7659978  82.9320014
 114.0429992  65.1379978  82.0790014 115.1459992  65.1549978  82.2120014
 113.7739992  64.0629978  82.1670014 113.6529992  65.5239978  80.6950014
 113.7769992  64.6279978  80.0500014 112.5799992  65.7679978  80.5470014
 114.5019992  66.5839978  80.0700014 114.5979992  67.3939978  80.8250014
 115.5169992  66.1619978  79.9060014 113.9979992  67.1829978  78.7390014
 112.9469992  67.5429978  78.7710014 114.5859992  68.0569978  78.3850014
 114.2109992  66.3079978  77.5420014 115.2729992  66.0439978  77.7360014
 113.6839992  65.3309978  77.6020014 113.9429992  66.8349978  76.1630014
 114.4149992  67.8369978  76.0810014 114.6099992  66.2509978  75.4930014
 112.4729992  66.6769978  75.7520014 112.1209992  65.6499978  75.9870014
 111.7549992  67.4049978  76.1890014 112.4159992  66.9969978  74.2630014
 112.8409992  66.2679978  73.5400014 111.3319992  67.0369978  74.0210014
 113.0529992  68.3719978  73.8710014 112.8419992  69.0219978  74.7470014
 114.1529992  68.2309978  73.9400014 112.4219992  69.0669978  72.6690014
 112.6349992  68.3699978  71.8310014 111.3199992  69.1439978  72.7930014
 112.9379992  70.4719978  72.3050014 112.9189992  71.1939978  73.1480014
 114.0129992  70.2449978  72.1420014 112.1519992  71.0419978  71.0640014
 111.2769992  71.8879978  71.1550014 112.7029992  70.5519978  69.9920014
 112.2009992  70.9839978  68.7450014 111.2909992  71.6199978  68.7750014
 112.9919992  71.6199978  68.2940014 111.9749992  69.7579978  67.8580014
 113.0169992  69.3769978  67.7960014 111.3609992  70.1949978  66.4920014
 110.3679992  70.6399978  66.7160014 112.1069992  70.8659978  66.0150014
 111.3019992  68.9999978  65.6900014 110.3039992  68.8589978  64.5440014
 111.1389992  68.2049978  63.4500014 112.4269992  68.4479978  63.1270014
 112.5499992  68.1549978  62.0620014 112.7299992  69.5099978  63.2490014
 113.4319992  67.6399978  63.9430014 114.3999992  68.0609978  63.7150014
 113.2059992  67.7599978  64.9920014 113.4199992  66.0909978  63.7480014
 112.2539992  65.3639978  64.3890014 112.4269992  65.1469978  65.4330014
 111.3099992  65.8029978  64.1010014 112.2399992  64.3789978  63.9470014
 113.4659992  65.6699978  62.3140014 113.6279992  64.6079978  62.4220014
 112.6729992  66.0149978  61.6660014 114.3829992  66.0609978  61.8990014
 114.7249992  65.5739978  64.2980014 114.5789992  64.5309978  64.5390014
 115.0909992  66.1419978  65.1400014 115.4469992  65.7499978  63.5140014
 109.1849992  67.8869978  64.8880014 109.9209992  70.2279978  64.1160014
 111.0659992  68.8369978  68.4780014 111.3129992  67.5149978  68.3800014
 112.2319992  67.0229978  67.7590014 110.0659992  66.7299978  68.8160014
 109.8819992  65.9259978  68.0720014 109.1749992  67.3879978  68.7230014
 110.2499992  66.2849978  70.3140014 110.6839992  67.0529978  70.9890014
 110.9699992  65.4399978  70.3670014 108.8569992  65.8819978  70.9380014
 108.7729992  64.7999978  70.6990014 108.0379992  66.4459978  70.4430014
 108.7759992  66.1439978  72.4210014 109.7149992  65.9339978  72.9770014
 107.9779992  65.4859978  72.8260014 108.2659992  67.6039978  72.6710014
 107.4389992  67.7689978  71.9480014 109.0969992  68.3179978  72.4870014
 107.8349992  67.7089978  74.1790014 108.6529992  67.3679978  74.8490014
 106.9459992  67.0439978  74.2090014 107.2839992  69.0869978  74.5950014
 106.7679992  69.1249978  75.5780014 106.5129992  69.3059978  73.8260014
 108.5509992  69.9449978  74.5770014 108.8229992  70.3389978  73.5860014
 109.2359992  70.3929978  75.6780014 110.1509992  70.9719978  75.4860014
 108.9519992  70.2209978  77.1180014 107.8709992  70.0439978  77.3070014
 109.3439992  71.1469978  77.5890014 109.8389992  69.0799978  77.6120014
 110.9149992  69.2229978  77.3730014 109.4969992  68.1309978  77.1470014
 109.6839992  68.9389978  79.1770014 110.4169992  68.1679978  79.4980014
 108.6629992  68.6049978  79.4620014 109.9459992  70.2189978  79.9560014
 109.2139992  70.9819978  79.6150014 110.7949992  70.7669978  79.4940014
 110.1379992  70.1949978  81.4830014 110.2859992  71.2279978  81.8630014
 110.9849992  69.5339978  81.7660014 108.8579992  69.7379978  82.2410014
 108.5769992  68.7189978  81.9000014 107.9929992  70.4239978  82.1190014
 109.0639992  69.6719978  83.7850014 109.1989992  70.6659978  84.2630014
 110.0079992  69.1009978  83.9130014 107.9489992  68.8479978  84.4030014
 108.1649992  68.3959978  85.3950014 107.6989992  68.1029978  83.6180014
 107.0919992  69.5369978  84.5620014 106.6189992  52.6319978  84.1420014
 106.4429992  53.6099978  83.6450014 107.7139992  52.5669978  84.3170014
 106.0569992  52.6359978  85.1000014 106.0849992  51.5489978  83.2020014
 106.4739992  50.5649978  83.5380014 104.9739992  51.5809978  83.1840014
 106.5539992  51.5989978  81.6820014 106.0309992  50.8239978  81.0830014
 106.3009992  52.5789978  81.2220014 108.0719992  51.4379978  81.4380014
 108.7239992  52.1639978  81.9680014 108.2019992  50.3879978  81.7770014
 108.3899992  51.3979978  79.9550014 109.4449992  51.3139978  79.6190014
 107.9379992  50.4539978  79.5830014 107.8249992  52.5979978  79.0910014
 106.7719992  52.3169978  78.8740014 107.7979992  53.5389978  79.6820014
 108.6259992  52.6719978  77.7810014 108.1859992  53.3589978  77.0270014
 109.6569992  52.9349978  78.1020014 108.7219992  51.3789978  76.9510014
 109.3669992  51.6989978  76.1050014 109.0869992  50.4649978  77.4680014
 107.3069992  51.0329978  76.4150014 107.4589992  50.0349978  75.9520014
 106.6969992  50.7559978  77.3020014 106.6059992  52.0899978  75.6230014
 106.0869992  52.8269978  76.2720014 107.2389992  52.5979978  74.8640014
 105.4619992  51.4759978  74.7070014 105.8889992  50.7189978  74.0150014
 104.6929992  51.1079978  75.4190014 104.7169992  52.4489978  73.6490014
 105.1909992  52.3049978  72.6550014 103.6339992  52.2449978  73.5100014
 104.7809992  53.9779978  73.9950014 104.2109992  54.1299978  74.9370014
 105.8339992  54.2659978  74.2020014 104.0499992  54.7809978  72.9320014
 102.9779992  54.4949978  72.8640014 104.2079992  55.7889978  73.3710014
 104.7039992  54.6869978  71.5820014 105.5299992  55.4289978  71.5710014
 105.0909992  53.6799978  71.3160014 103.7849992  55.2259978  70.5080014
 102.7329992  55.8179978  70.7970014 104.1259992  54.7209978  69.2830014
 103.4309992  55.3239978  68.1590014 102.4709992  54.8049978  67.9470014
 103.3889992  56.4139978  68.3710014 104.3159992  55.1239978  66.8800014
 104.1749992  55.9519978  66.1520014 103.9809992  53.8219978  66.1130014
 103.8809992  52.9649978  66.8130014 102.9979992  53.9679978  65.6180014
 105.0699992  53.4109978  65.2630014 105.1469992  54.0039978  63.7860014
 106.7459992  53.9409978  63.4790014 107.6779992  54.8579978  64.0330014
 108.1479992  55.3609978  63.1620014 107.1589992  55.5749978  64.7040014
 108.6449992  53.9969978  64.8880014 109.1129992  54.7019978  65.5590014
 108.0509992  53.3859978  65.5510014 109.6989992  53.1539978  64.2860014
 109.0769992  51.9319978  63.6320014 109.7879992  51.1769978  63.3280014
 108.3049992  51.4989978  64.2510014 108.5979992  52.2529978  62.7190014
 110.4879992  53.8769978  63.2440014 109.7919992  54.3479978  62.5640014
 111.1409992  54.5939978  63.7190014 111.0789992  53.1739978  62.6760014
 110.5809992  52.7089978  65.3620014 111.1549992  51.9559978  64.8410014
 109.9429992  52.4829978  66.2030014 111.3249992  53.4569978  65.5910014
 104.5469992  53.0129978  62.8050014 104.5989992  55.3689978  63.7280014
 105.6779992  55.0219978  67.1880014 106.3319992  56.1769978  67.4340014
 105.7549992  57.2569978  67.4350014 107.7039992  55.9119978  67.9510014
 108.0629992  56.9299978  68.2110014 108.3379992  55.4509978  67.1630014
 107.7149992  54.9329978  69.1880014 107.3339992  53.9419978  68.8620014
 107.0139992  55.2549978  69.9870014 109.1679992  54.6019978  69.5760014
 109.6909992  54.0309978  68.7790014 109.0369992  53.8829978  70.4130014
 109.9129992  55.8239978  70.0090014 110.0869992  56.5379978  69.1760014
 110.9079992  55.4989978  70.3810014 109.2719992  56.5329978  71.1730014
 109.1589992  55.7809978  71.9830014 108.2479992  56.8989978  70.9430014
 110.0909992  57.7319978  71.5840014 109.7759992  58.5229978  70.8700014
 111.1799992  57.6099978  71.4050014 109.8299992  58.0819978  73.0450014
 108.8329992  58.5739978  73.0540014 110.4499992  58.9549978  73.3410014
 110.0149992  56.9529978  74.0790014 111.0529992  56.5959978  74.1610014
 108.9999992  56.4879978  74.9100014 109.1949992  55.5979978  75.5260014
 107.5489992  56.9869978  74.9200014 106.8599992  56.1279978  74.7750014
 107.2689992  57.6689978  74.0890014 107.0409992  57.7499978  76.1950014
 106.0839992  58.2919978  76.0350014 107.6569992  58.6449978  76.4290014
 106.8709992  56.8499978  77.4090014 107.8549992  56.7689978  77.9200014
 106.6549992  55.8069978  77.0960014 105.7349992  57.3769978  78.3390014
 104.8399992  57.5139978  77.6950014 106.0239992  58.3999978  78.6620014
 105.4059992  56.4219978  79.4310014 106.3989992  56.1099978  79.8200014
 104.9709992  55.5159978  78.9570014 104.4129992  56.9559978  80.4180014
 103.4619992  57.0379978  79.8490014 104.6969992  57.9329978  80.8640014
 104.1929992  55.9629978  81.5250014 105.0559992  55.8269978  82.2110014
 103.8779992  54.9759978  81.1220014 103.0939992  56.4939978  82.4980014
 102.2759992  56.9189978  81.8780014 103.4919992  57.3179978  83.1280014
 102.6889992  55.6829978  83.1410014  74.7499992 111.0799978  82.5250014
  75.0579992 112.1199978  82.7640014  75.2859992 110.8659978  81.5760014
  75.1939992 110.4099978  83.2920014  73.2459992 110.7769978  82.4290014
  72.6799992 111.0389978  83.3490014  72.8749992 111.5299978  81.7010014
  72.8739992 109.3069978  82.1260014  73.2769992 109.0269978  81.1290014
  73.3649992 108.6639978  82.8870014  71.3319992 109.1809978  82.1900014
  71.0729992 108.1039978  82.2740014  71.0949992 109.5969978  83.1930014
  70.4939992 109.8769978  81.0370014  69.4499992 109.7409978  81.3920014
  70.6909992 110.9609978  80.8880014  70.7419992 109.1989978  79.7020014
  71.0149992 108.1329978  79.8550014  69.7949992 109.2889978  79.1280014
  71.7789992 110.1619978  78.8680014  71.3559992 111.1749978  78.6960014
  72.7749992 110.2099978  79.3590014  72.1699992 109.5599978  77.4740014
  72.8209992 108.6749978  77.6430014  71.2529992 109.1849978  76.9720014
  72.8809992 110.6059978  76.6030014  72.2449992 111.5159978  76.5690014
  73.8519992 110.9389978  77.0280014  73.1589992 110.1109978  75.1790014
  74.2159992 110.3029978  74.8980014  73.0879992 109.0049978  75.2500014
  72.2349992 110.7929978  74.1230014  72.2599992 110.1909978  73.1890014
  71.1939992 110.6239978  74.4740014  72.4809992 112.2999978  73.7370014
  71.7369992 112.7239978  73.0300014  72.2749992 112.8759978  74.6650014
  73.8919992 112.6799978  73.1430014  73.8069992 113.7199978  72.7610014
  74.5829992 112.7049978  74.0130014  74.5039992 111.7199978  72.1210014
  75.5579992 111.9869978  71.8940014  74.5109992 110.7209978  72.6070014
  73.8489992 111.5809978  70.7760014  72.7409992 111.5059978  70.7510014
  74.0889992 112.4689978  70.1530014  74.3539992 110.3319978  70.1200014
  74.8559992 109.3289978  70.6960014  74.1439992 110.4119978  68.8110014
  74.1099992 109.1929978  68.0520014  74.8769992 109.2089978  67.2490014
  74.1819992 108.2499978  68.6350014  72.7559992 109.0959978  67.2760014
  72.8009992 108.2259978  66.5870014  72.3679992 110.2699978  66.3620014
  73.2769992 110.7129978  65.9000014  71.7199992 110.0319978  65.4920014
  71.7409992 111.3429978  67.0810014  71.3049992 112.7269978  66.3910014
  71.9909992 112.6889978  64.8890014  71.8979992 113.8899978  64.0800014
  70.8779992 114.2579978  63.8420014  72.3869992 114.7449978  64.5940014
  72.6079992 113.7719978  62.7390014  72.5039992 114.7479978  62.2880014
  73.6499992 113.5909978  62.9580014  72.2149992 112.6939978  61.7400014
  72.7059992 112.9579978  60.3460014  72.0509992 113.7279978  59.9670014
  73.6349992 113.5089978  60.3790014  72.8049992 112.0639978  59.7480014
  72.8789992 111.3319978  62.2100014  73.9209992 111.5609978  62.3730014
  72.4069992 111.1249978  63.1590014  72.6749992 110.5959978  61.4460014
  70.7509992 112.5609978  61.6920014  70.2879992 112.2199978  62.6070014
  70.5599992 111.7849978  60.9660014  70.3349992 113.4839978  61.3170014
  69.8409992 112.7109978  66.2240014  72.0249992 113.8179978  67.1130014
  71.7729992 108.9559978  68.3350014  70.5199992 108.7449978  67.9910014
  70.0929992 108.3669978  66.9170014  69.5909992 109.0079978  69.1700014
  69.8409992 108.4299978  70.0850014  68.5929992 108.6189978  68.8750014
  69.5389992 110.5359978  69.4690014  69.2879992 111.1329978  68.5660014
  70.5919992 110.7559978  69.7480014  68.6039992 110.8919978  70.6580014
  69.1559992 110.4369978  71.5080014  67.5629992 110.5109978  70.5810014
  68.2569992 112.4439978  70.8240014  67.6059992 112.6139978  71.7080014
  67.7149992 112.8529978  69.9450014  69.5149992 113.3439978  71.2280014
  70.2499992 113.4139978  70.3980014  70.0169992 112.9269978  72.1280014
  69.1879992 114.7199978  71.6810014  68.6259992 114.4969978  72.6130014
  68.5849992 115.2899978  70.9420014  70.4409992 115.5599978  72.0330014
  70.8539992 115.7009978  71.0110014  71.1279992 114.8019978  72.4680014
  70.4299992 116.6929978  73.0370014  70.2589992 117.7029978  72.6370014
  70.4239992 116.5749978  74.3740014  70.1749992 117.4609978  74.9760014
  70.4049992 115.2919978  75.1810014  71.3899992 114.8299978  74.9540014
  69.6449992 114.5419978  74.8750014  70.1569992 115.3769978  76.6520014
  69.1369992 115.7609978  76.8680014  70.9079992 116.0119978  77.1690014
  70.1299992 113.9689978  77.4500014  71.1949992 113.6869978  77.3130014
  69.5259992 113.2779978  76.8230014  69.6319992 113.9739978  78.8990014
  69.6299992 112.8839978  79.1150014  68.5859992 114.3099978  79.0630014
  70.5639992 114.6529978  79.8700014  70.4679992 115.7519978  79.7350014
  71.6099992 114.4039978  79.5900014  70.3539992 114.3719978  81.3550014
  70.5529992 113.2859978  81.4830014  69.2819992 114.5269978  81.6010014
  71.0949992 115.1479978  82.5320014  70.6139992 114.8559978  83.4890014
  71.0759992 116.2559978  82.4520014  72.5839992 114.7279978  82.6870014
  73.1629992 114.8069978  81.7430014  72.6559992 113.6929978  83.0860014
  73.0459992 115.4679978  83.3740014  89.2959992  36.5619978  81.5110014
  90.0779992  37.2149978  81.9550014  89.1499992  35.5629978  81.9740014
  88.3319992  37.1109978  81.4580014  89.6769992  36.2189978  80.0090014
  90.1049992  37.1589978  79.6010014  90.5599992  35.5499978  79.9310014
  88.4279992  35.7509978  79.1820014  87.9679992  34.8609978  79.6610014
  87.6909992  36.5829978  79.1990014  88.7459992  35.5509978  77.6740014
  89.6259992  34.8729978  77.6470014  87.9609992  35.0709978  77.0500014
  89.1589992  36.8139978  76.9960014  88.4459992  37.6409978  77.2030014
  90.1559992  37.2079978  77.2880014  89.1069992  36.6019978  75.4950014
  88.0879992  36.2179978  75.2730014  89.2459992  37.5629978  74.9550014
  90.0849992  35.5299978  74.8430014  91.0729992  35.8509978  75.2380014
  89.7799992  34.5189978  75.1880014  90.2139992  35.5799978  73.3080014
  90.3469992  36.6189978  72.9370014  91.1449992  34.9929978  73.1640014
  88.9619992  35.0079978  72.5270014  88.0339992  35.5459978  72.8180014
  89.2989992  35.0059978  71.4680014  88.6049992  33.5299978  72.8650014
  89.4689992  32.8999978  72.5660014  88.3679992  33.3369978  73.9330014
  87.4909992  33.0359978  71.9890014  87.3829992  31.9309978  71.9490014
  86.6069992  33.6019978  72.3520014  87.5849992  33.3899978  70.5210014
  87.4399992  34.4919978  70.5270014  88.6319992  33.2129978  70.1930014
  86.3739992  32.8279978  69.6920014  86.3809992  33.4799978  68.7920014
  86.6289992  31.7589978  69.5340014  85.0439992  33.0579978  70.3780014
  84.9229992  32.3029978  71.1840014  85.0549992  34.0599978  70.8560014
  83.7689992  32.7619978  69.5690014  83.9239992  31.8579978  68.9420014
  82.9929992  32.3419978  70.2450014  83.1749992  33.9769978  68.8110014
  82.3789992  34.7579978  69.2800014  83.7789992  34.0229978  67.6790014
  83.3419992  34.9469978  66.6400014  82.7029992  34.3889978  65.9210014
  82.7929992  35.8199978  67.0530014  84.4939992  35.5629978  65.8040014
  84.1489992  36.3409978  65.0890014  85.1749992  34.3599978  65.0120014
  85.3759992  33.4749978  65.6530014  84.5069992  34.1289978  64.1540014
  86.3659992  34.8079978  64.3650014  87.8949992  34.2539978  64.6470014
  88.8609992  35.4259978  64.3190014  88.7679992  36.6609978  65.1010014
  88.8439992  36.5369978  66.2020014  89.7269992  37.2099978  64.9840014
  87.6419992  37.6439978  64.7250014  86.6799992  37.2309978  64.9890014
  87.7319992  38.4709978  65.4150014  87.5879992  38.1339978  63.3040014
  87.3459992  37.0359978  62.3440014  87.4829992  37.4489978  61.3560014
  88.0049992  36.1969978  62.5140014  86.3229992  36.7399978  62.5240014
  86.4399992  39.0869978  63.0710014  86.5819992  40.0509978  63.5380014
  86.2899992  39.2329978  62.0120014  85.4939992  38.7679978  63.4840014
  88.8839992  38.8579978  62.9690014  89.5529992  38.1909978  62.4450014
  89.2789992  39.2089978  63.9110014  88.6599992  39.7309978  62.3750014
  88.0749992  33.9069978  66.0790014  88.2009992  33.2179978  63.5820014
  85.5379992  36.0859978  66.5950014  85.3899992  37.3129978  67.1750014
  84.5079992  38.1089978  66.8190014  86.5929992  37.6549978  67.9580014
  87.3109992  38.3839978  67.5250014  87.2399992  36.7529978  67.9930014
  86.1449992  38.1999978  69.3780014  85.4229992  39.0229978  69.1880014
  87.0289992  38.4739978  69.9920014  85.4489992  37.0379978  70.1910014
  86.2299992  36.4609978  70.7300014  84.7769992  36.3969978  69.5800014
  84.5079992  37.6469978  71.2690014  83.6869992  38.2129978  70.7790014
  85.0359992  38.4179978  71.8690014  83.7199992  36.5779978  72.0750014
  83.2809992  35.9769978  71.2510014  82.8379992  37.0969978  72.5100014
  84.6089992  35.8909978  73.1530014  85.5639992  35.6379978  72.6450014
  84.1209992  34.9699978  73.5380014  84.8869992  36.6799978  74.3270014
  85.3839992  37.6479978  74.1060014  85.5919992  36.2019978  75.0410014
  83.5339992  36.7759978  75.0570014  82.8999992  37.6379978  74.8020014
  83.0729992  35.9749978  76.0630014  82.0719992  36.1909978  76.4630014
  83.7779992  34.7699978  76.7210014  84.2559992  35.2259978  77.6140014
  84.5929992  34.3779978  76.0760014  82.7449992  33.6249978  77.0780014
  82.3689992  33.3229978  76.0770014  81.9249992  33.9499978  77.7530014
  83.4399992  32.4339978  77.5800014  84.4969992  32.5749978  77.2710014
  83.0329992  31.4759978  77.1910014  83.7059992  32.3839978  79.1070014
  84.3199992  31.4909978  79.3540014  82.7269992  32.1209978  79.5630014
  84.2249992  33.5779978  79.8860014  83.5839992  34.4679978  79.7050014
  85.2529992  33.7169978  79.4880014  84.3489992  33.2499978  81.4110014
  85.4029992  32.9989978  81.6570014  83.8309992  32.2989978  81.6590014
  83.7479992  34.2889978  82.3550014  83.8099992  33.9419978  83.4090014
  82.6679992  34.4539978  82.1490014  84.3569992  35.7199978  82.3230014
  84.2999992  36.1709978  83.3360014  84.1059992  36.4069978  81.4860014
  85.4399992  35.5599978  82.1350014 107.9869992  92.0999978  81.4060014
 108.6319992  92.7409978  82.0440014 107.7819992  91.2039978  82.0310014
 106.9959992  92.5979978  81.3530014 108.5679992  91.8799978  80.0050014
 108.9929992  92.8439978  79.6520014 109.4099992  91.2039978  80.2690014
 107.6059992  91.1469978  79.0020014 107.5359992  90.1189978  79.4180014
 106.5989992  91.5879978  78.8430014 108.2199992  91.2079978  77.6360014
 108.2679992  92.2809978  77.3530014 109.1979992  90.6829978  77.6970014
 107.2699992  90.6059978  76.5300014 107.1559992  89.5379978  76.8130014
 106.3209992  91.1729978  76.6440014 107.8599992  90.7209978  75.0780014
 108.4529992  91.6549978  74.9730014 108.6019992  89.8949978  75.0820014
 106.8359992  90.6079978  73.9230014 106.1799992  89.7579978  74.2090014
 106.2439992  91.5479978  73.9350014 107.4199992  90.3049978  72.5670014
 107.8049992  89.2669978  72.6540014 106.5249992  90.1869978  71.9190014
 108.4109992  91.3239978  71.9910014 107.8409992  92.2749978  72.0730014
 109.3079992  91.4399978  72.6370014 108.7049992  91.2719978  70.5030014
 107.9259992  91.3759978  69.7180014 109.4099992  92.0479978  70.1350014
 109.3849992  89.8739978  70.0810014 110.0379992  89.5759978  70.9290014
 108.5639992  89.1399978  69.9290014 110.1749992  89.9079978  68.7450014
 110.9709992  90.6809978  68.6930014 110.7829992  88.9789978  68.7630014
 109.3709992  89.9779978  67.4560014 108.7309992  90.8849978  67.5090014
 110.0389992  89.8689978  66.5750014 108.4419992  88.7119978  67.2680014
 109.0939992  87.8139978  67.2340014 107.6219992  88.5979978  68.0080014
 107.6279992  88.7909978  65.9770014 108.2419992  89.1399978  65.1200014
 107.2569992  87.7609978  65.7890014 106.3949992  89.6929978  66.1260014
 105.8589992  89.9769978  67.1440014 106.0969992  90.2269978  64.8440014
 104.9449992  91.0669978  64.8010014 104.5269992  90.8569978  63.7940014
 104.1989992  90.9029978  65.6080014 105.4379992  92.5399978  64.7510014
 104.5689992  93.2299978  64.8050014 106.3099992  92.7989978  63.5210014
 105.7609992  92.2229978  62.7460014 106.3889992  93.8799978  63.2740014
 107.6409992  92.2589978  63.7880014 108.6609992  92.3079978  62.6410014
 110.0409992  92.8409978  63.2800014 110.4029992  92.6419978  64.6390014
 110.0399992  91.6929978  65.0890014 111.5099992  92.5519978  64.6520014
 109.8189992  93.7429978  65.4990014 108.7589992  93.6579978  65.3130014
 110.0519992  93.3679978  66.4850014 110.2989992  95.0959978  65.3010014
 109.9189992  95.6529978  63.9400014 110.5049992  96.5309978  63.7130014
 110.0259992  94.8929978  63.1800014 108.9159992  96.0509978  63.9590014
 109.7319992  95.9729978  66.3580014 108.6689992  95.8289978  66.2380014
 109.9139992  95.6669978  67.3780014 110.0149992  96.9649978  66.0400014
 111.8209992  95.1409978  65.2610014 112.1989992  94.4349978  65.9860014
 112.1379992  96.1669978  65.3770014 112.0189992  94.7899978  64.2590014
 108.9839992  90.8939978  62.1920014 108.2089992  93.2619978  61.6050014
 106.2019992  92.8079978  65.9620014 106.1609992  94.1289978  66.2970014
 105.7219992  95.0619978  65.6350014 106.6339992  94.2129978  67.7450014
 107.7419992  94.2589978  67.8080014 106.3999992  93.3199978  68.3640014
 105.9559992  95.4319978  68.4110014 106.2489992  96.3649978  67.8840014
 106.5109992  95.4549978  69.3740014 104.4069992  95.2749978  68.4850014
 103.9979992  95.0909978  67.4690014 103.9539992  96.2619978  68.7210014
 103.9549992  94.0189978  69.2690014 104.4469992  93.1019978  68.8800014
 102.8759992  93.8779978  69.0430014 104.1049992  94.0239978  70.8070014
 105.1729992  94.1129978  71.1000014 103.9619992  93.0309978  71.2840014
 103.2309992  95.1009978  71.4440014 102.1659992  94.7869978  71.4860014
 103.2469992  96.0089978  70.8040014 103.7639992  95.5399978  72.8490014
 103.9369992  94.5469978  73.3160014 102.9249992  96.0559978  73.3640014
 104.9679992  96.4769978  72.6460014 104.9599992  97.0919978  71.7340014
 106.1429992  96.3399978  73.2500014 106.9439992  97.0809978  73.1100014
 106.5669992  95.2689978  74.2380014 107.2279992  94.5579978  73.6990014
 105.7489992  94.6539978  74.6690014 107.3839992  95.8169978  75.4520014
 108.1269992  96.5399978  75.0540014 107.9439992  95.0359978  76.0100014
 106.5209992  96.4679978  76.5750014 105.7829992  95.6999978  76.8930014
 105.9219992  97.2449978  76.0540014 107.2229992  97.0959978  77.7710014
 107.7679992  96.2429978  78.2310014 106.5239992  97.5769978  78.4870014
 108.3539992  98.0389978  77.4020014 107.9549992  98.9469978  76.9030014
 109.0039992  97.5749978  76.6290014 109.3429992  98.3889978  78.6170014
 110.1399992  99.0099978  78.1560014 109.7179992  97.4249978  79.0230014
 108.6689992  99.1089978  79.7700014 107.7369992  98.5879978  80.0740014
 108.2779992 100.1189978  79.5200014 109.6559992  99.2939978  80.9630014
 110.5149992  99.8789978  80.5700014 109.9399992  98.2609978  81.2560014
 109.2449992  99.7889978  81.8690014  70.3879992  38.2539978  83.3820014
  70.3779992  37.1759978  83.1140014  69.4689992  38.5709978  83.9210014
  71.2679992  38.4259978  84.0380014  70.3479992  38.9629978  81.9880014
  69.4519992  38.5789978  81.4530014  70.2019992  40.0549978  82.1320014
  71.5669992  38.7499978  81.1580014  72.3759992  39.3769978  81.5900014
  71.9549992  37.7239978  81.3340014  71.3619992  38.8729978  79.6260014
  70.8969992  39.8149978  79.2660014  72.3989992  38.9039978  79.2290014
  70.7209992  37.5569978  79.0680014  71.2649992  36.6819978  79.4850014
  69.7089992  37.4939978  79.5230014  70.5559992  37.5339978  77.5210014
  69.8479992  38.3559978  77.2800014  71.5029992  37.5819978  76.9420014
  69.9309992  36.2229978  77.1410014  70.7099992  35.4459978  76.9860014
  69.3099992  35.9109978  78.0080014  68.9009992  36.5149978  75.9850014
  68.3839992  35.5489978  75.7990014  68.3059992  37.3499978  76.4120014
  69.5799992  36.9009978  74.6320014  70.3879992  37.6539978  74.7550014
  69.9319992  35.9269978  74.2320014  68.6099992  37.4679978  73.6640014
  67.6899992  36.8469978  73.6270014  68.3649992  38.5099978  73.9590014
  69.2049992  37.6939978  72.2340014  69.8749992  38.5789978  72.2970014
  69.9509992  36.8939978  72.0360014  68.1769992  37.9129978  71.2050014
  67.4019992  37.1279978  71.0750014  67.6489992  38.8229978  71.5620014
  68.6049992  38.1689978  69.7810014  69.5619992  38.7289978  69.7070014
  68.8759992  37.1569978  69.4100014  67.4029992  38.5169978  68.9310014
  66.6819992  37.6839978  69.0780014  66.8579992  39.4389978  69.2270014
  67.7349992  38.4909978  67.4270014  68.2289992  37.5259978  67.1850014
  66.7909992  38.5989978  66.8500014  68.5829992  39.6779978  67.0880014
  68.9869992  40.4499978  67.8680014  68.7669992  39.6709978  65.7880014
  69.6009992  40.6409978  65.1710014  69.5559992  40.6449978  64.0610014
  69.3019992  41.6729978  65.4520014  71.0749992  40.1979978  65.3960014
  71.5699992  40.8759978  64.6680014  71.1589992  38.7109978  65.0000014
  70.7689992  37.9129978  65.6650014  70.5689992  38.5469978  64.0730014
  72.5509992  38.6419978  64.5060014  73.5109992  37.5539978  65.2100014
  73.4939992  36.2849978  64.2270014  73.0989992  36.4459978  62.9080014
  72.2549992  37.1629978  62.8230014  73.9239992  36.7869978  62.2470014
  72.5369992  35.0939978  62.3250014  72.1129992  35.2699978  61.3480014
  73.4099992  34.4609978  62.3700014  71.3759992  34.4679978  63.2020014
  71.9079992  33.6959978  64.3630014  72.3499992  32.7869978  63.9820014
  72.6949992  34.2609978  64.8380014  71.0349992  33.5709978  64.9870014
  70.3859992  35.4229978  63.7670014  71.0029992  36.1959978  64.2030014
  69.7879992  35.8999978  63.0050014  69.6929992  35.1479978  64.5490014
  70.7019992  33.5859978  62.1540014  69.8579992  33.0159978  62.5120014
  71.5079992  32.9299978  61.8590014  70.4429992  34.2119978  61.3130014
  74.9069992  38.0489978  65.3830014  72.9149992  37.0809978  66.4610014
  71.5269992  40.3709978  66.7600014  72.6739992  40.9899978  67.0090014
  73.6009992  41.2079978  66.2570014  72.6499992  41.3659978  68.4870014
  71.8729992  42.1419978  68.6540014  73.6409992  41.8159978  68.7120014
  72.2709992  40.2069978  69.4580014  71.4219992  39.5389978  69.1970014
  71.9949992  40.6759978  70.4270014  73.3939992  39.1179978  69.9080014
  74.2109992  39.8569978  70.0530014  73.7049992  38.5419978  69.0100014
  73.1359992  38.1819978  71.0590014  72.5359992  37.3269978  70.6800014
  72.3689992  38.5929978  71.7500014  74.2889992  37.5829978  71.8720014
  74.8459992  38.3439978  72.4580014  74.9999992  37.2459978  71.0880014
  73.8349992  36.5029978  72.8060014  73.1679992  35.8239978  72.2320014
  73.2909992  37.0039978  73.6350014  74.9129992  35.6429978  73.5130014
  75.4579992  35.0269978  72.7660014  74.4909992  35.0199978  74.3300014
  76.0089992  36.4169978  74.1970014  76.9689992  36.1809978  73.7140014
  75.9329992  37.2339978  75.2050014  76.8699992  37.7949978  75.3330014
  74.6829992  37.6619978  75.9740014  73.7569992  37.8509978  75.3900014
  74.8419992  38.5779978  76.5820014  74.2469992  36.5559978  77.0270014
  74.0869992  35.6079978  76.4710014  73.2699992  36.8599978  77.4600014
  75.1909992  36.2719978  78.1950014  76.1509992  35.9119978  77.7670014
  74.8579992  35.3689978  78.7510014  75.5569992  37.5049978  79.1290014
  74.5849992  37.8069978  79.5740014  76.0659992  38.2699978  78.5050014
  76.4089992  37.1249978  80.3370014  77.4409992  36.7289978  80.2290014
  75.8399992  36.2739978  80.7670014  76.4469992  38.3289978  81.3300014
  75.5699992  38.9529978  81.0560014  77.3569992  38.9619978  81.2500014
  76.2379992  38.0299978  82.8460014  75.1809992  37.7429978  83.0320014
  76.5469992  38.9639978  83.3620014  77.1149992  36.8459978  83.3200014
  76.5739992  35.9669978  82.9100014  77.0899992  36.7259978  84.4240014
  78.1089992  36.8979978  82.8260014  30.7389992  62.3229978  82.9760014
  30.0129992  62.5619978  83.7820014  31.3199992  63.2489978  82.7790014
  31.5139992  61.5639978  83.2170014  29.8829992  61.8529978  81.6870014
  29.2109992  61.0999978  82.1520014  29.2299992  62.7329978  81.5020014
  30.6299992  61.3439978  80.4760014  31.4719992  62.0599978  80.3690014
  30.9959992  60.3189978  80.6980014  29.7999992  61.2409978  79.1830014
  30.3209992  60.5989978  78.4420014  28.7639992  60.9389978  79.4480014
  29.6869992  62.5779978  78.2460014  29.1719992  63.2869978  78.9290014
  30.7249992  62.8739978  77.9820014  28.7159992  62.3779978  77.0540014
  27.9329992  61.7059978  77.4650014  28.2829992  63.3529978  76.7430014
  29.1879992  61.6539978  75.7870014  30.0949992  62.0239978  75.2610014
  29.2669992  60.5609978  75.9700014  27.9699992  61.8119978  74.7910014
  27.0929992  61.3079978  75.2510014  27.7239992  62.8599978  74.5160014
  28.0899992  61.0149978  73.4880014  28.4379992  59.9639978  73.5830014
  27.1719992  60.8859978  72.8770014  29.1129992  61.7119978  72.5210014
  28.8899992  62.7989978  72.4810014  30.1069992  61.6899978  73.0170014
  29.0479992  61.2019978  71.0990014  29.5059992  60.1899978  71.1070014
  27.9929992  61.0539978  70.7860014  29.8369992  62.1559978  70.2280014
  29.4389992  63.1919978  70.2700014  30.8339992  62.2619978  70.7080014
  30.1099992  61.6679978  68.7870014  30.7849992  62.4029978  68.2990014
  30.6499992  60.7139978  68.9680014  28.9769992  61.4639978  67.8480014
  28.4759992  60.5069978  68.1060014  28.3069992  62.3499978  67.8780014
  29.5419992  61.2799978  66.4560014  30.0099992  62.1599978  65.9640014
  30.3519992  60.5229978  66.4000014  28.4569992  60.8059978  65.4480014
  28.7709992  60.0229978  64.5880014  27.1829992  61.3489978  65.5840014
  26.3219992  61.3399978  64.3260014  26.8029992  60.7869978  63.4910014
  25.4609992  60.6719978  64.5410014  25.8459992  62.6929978  63.7900014
  24.9929992  62.3879978  63.1470014  27.0289992  63.4749978  63.1130014
  27.3529992  62.9049978  62.2160014  26.7119992  64.4509978  62.6870014
  28.0439992  63.5829978  64.0850014  29.0129992  64.8529978  64.2100014
  30.2169992  64.5609978  63.1550014  30.9159992  63.3429978  63.0960014
  30.7339992  62.5659978  63.8690014  30.7049992  62.7589978  62.1750014
  32.4279992  63.5659978  63.1400014  32.8059992  62.5949978  63.4270014
  32.7129992  63.9679978  62.1790014  33.1129992  64.5209978  64.1580014
  34.5789992  64.5359978  63.7790014  35.0609992  65.0419978  64.6020014
  34.9779992  63.5329978  63.8160014  34.7859992  64.9619978  62.8080014
  32.5709992  65.9339978  64.1040014  32.5019992  66.3039978  63.0910014
  31.5619992  65.9869978  64.4840014  33.0149992  66.5669978  64.8580014
  32.9219992  63.8889978  65.5240014  31.8479992  63.8069978  65.6030014
  33.2229992  64.5719978  66.3050014  33.4719992  62.9639978  65.4310014
  28.3459992  65.9869978  63.6560014  29.4219992  64.8629978  65.5990014
  25.3229992  63.3259978  64.9870014  25.2879992  64.5869978  65.2390014
  25.5579992  65.4959978  64.4180014  24.7399992  64.7649978  66.6630014
  25.0939992  63.9849978  67.3700014  23.6419992  64.5969978  66.6720014
  25.1309992  66.1209978  67.2970014  24.6399992  66.0149978  68.2880014
  24.8129992  67.0439978  66.7670014  26.5919992  66.2299978  67.6930014
  27.0709992  66.5699978  66.7510014  26.8459992  65.1559978  67.8230014
  26.9169992  67.3559978  68.7050014  26.4209992  67.1549978  69.6790014
  26.5329992  68.3499978  68.3920014  28.4379992  67.6609978  68.8590014
  29.0129992  68.0299978  67.9830014  28.8539992  66.6759978  69.1590014
  28.7729992  68.6189978  69.9770014  28.0839992  69.4709978  69.7930014
  29.7379992  69.1639978  69.8960014  28.5359992  68.1519978  71.4270014
  29.0659992  67.1769978  71.4710014  27.4809992  67.8059978  71.4420014
  28.9319992  69.2169978  72.3530014  28.2599992  70.0829978  72.4430014
  29.8749992  69.2029978  73.3480014  29.9369992  69.9799978  74.1240014
  30.7519992  68.0369978  73.6130014  31.5579992  68.3219978  74.3230014
  31.2259992  67.6489978  72.6860014  29.9949992  66.9239978  74.2710014
  30.7359992  66.0979978  74.3180014  29.1319992  66.6039978  73.6480014
  29.4749992  67.3179978  75.6970014  28.6199992  67.9919978  75.4720014
  30.2849992  67.7689978  76.3090014  28.9089992  66.1009978  76.4060014
  29.5839992  65.2289978  76.5450014  28.0089992  65.9239978  75.7790014
  28.4099992  66.3329978  77.8190014  28.5709992  67.4229978  77.9630014
  28.9619992  65.8179978  78.6340014  26.9079992  65.9269978  77.9670014
  26.6629992  64.8489978  77.8650014  26.3679992  66.4209978  77.1320014
  26.3909992  66.2939978  79.3990014  27.0859992  65.9809978  80.2070014
  25.3829992  65.9059978  79.6580014  26.1989992  67.8619978  79.5580014
  25.6639992  68.0539978  80.5130014  25.6119992  68.3669978  78.7610014
  27.2319992  68.2719978  79.5330014  68.9339992 117.9089978  81.9690014
  68.6179992 118.4849978  82.8640014  69.1519992 118.6389978  81.1610014
  69.8189992 117.3429978  82.3300014  67.9709992 116.8349978  81.5920014
  68.4489992 116.2749978  80.7610014  67.8499992 116.0909978  82.4090014
  66.4759992 117.1039978  81.2340014  65.9509992 116.1649978  80.9550014
  66.0229992 117.6029978  82.1180014  66.2509992 117.8859978  79.9750014
  66.6149992 118.9259978  80.1110014  66.8129992 117.4439978  79.1250014
  64.7819992 118.0799978  79.5950014  64.3679992 117.1439978  79.1620014
  64.2409992 118.2919978  80.5420014  64.5509992 119.2119978  78.4480014
  64.7779992 120.2209978  78.8540014  65.2169992 119.0189978  77.5800014
  63.0849992 119.2869978  77.9590014  62.5299992 119.4369978  78.9100014
  62.8689992 120.0539978  77.1840014  62.7169992 117.9369978  77.4170014
  63.2979992 117.6829978  76.5040014  62.8149992 117.1869978  78.2300014
  61.1889992 117.8769978  77.0230014  60.6479992 118.1859978  77.9430014
  60.8709992 118.5589978  76.2070014  60.7479992 116.5409978  76.5180014
  60.8669992 115.8369978  77.3690014  59.6489992 116.6419978  76.3830014
  61.4459992 116.0279978  75.2670014  62.4519992 115.7609978  75.6550014
  60.9269992 115.0829978  74.9990014  61.7029992 116.9989978  74.0640014
  60.7189992 117.3439978  73.6800014  62.3049992 117.8759978  74.3830014
  62.6269992 116.4449978  72.9910014  63.6499992 116.5779978  73.4010014
  62.3779992 115.3629978  72.9540014  62.3789992 117.1479978  71.6870014
  61.3199992 117.2509978  71.3680014  62.7099992 118.1949978  71.8560014
  63.1029992 116.4959978  70.4570014  62.9439992 115.3969978  70.4150014
  62.7959992 117.0189978  69.5260014  64.6329992 116.8929978  70.5700014
  65.2719992 116.9199978  71.5760014  65.1749992 117.0539978  69.3110014
  66.5529992 117.4159978  69.2120014  66.6149992 118.4709978  68.8690014
  66.9589992 117.3419978  70.2440014  67.3389992 116.5759978  68.3220014
  68.4419992 116.6459978  68.4370014  67.0079992 116.9059978  66.8080014
  66.7629992 117.9879978  66.7440014  67.8829992 116.4839978  66.2690014
  65.8319992 116.1339978  66.4890014  65.8029992 115.3199978  65.1310014
  65.5299992 116.4629978  64.0360014  64.9999992 117.7309978  64.3580014
  64.4819992 117.7669978  65.3400014  65.7879992 118.5109978  64.4350014
  64.1199992 118.3069978  63.1910014  63.8799992 119.3459978  63.3610014
  64.6479992 118.1479978  62.2620014  62.7549992 117.7399978  62.9400014
  62.0019992 117.5579978  64.2570014  61.7639992 118.5339978  64.6540014
  61.1609992 116.9229978  64.0220014  62.6699992 117.0719978  64.9520014
  62.0649992 118.6209978  61.9660014  62.7619992 118.7789978  61.1560014
  61.1279992 118.1889978  61.6480014  61.8679992 119.5949978  62.3910014
  62.9669992 116.3559978  62.2930014  63.2879992 115.7199978  63.1040014
  63.6919992 116.5019978  61.5060014  61.9999992 116.0209978  61.9480014
  67.1319992 114.7479978  64.8390014  64.6669992 114.3629978  65.0050014
  67.0949992 115.2469978  68.6290014  67.8639992 114.2719978  68.0730014
  68.9829992 114.4909978  67.6090014  67.1539992 112.9179978  68.1230014
  67.7379992 112.2029978  67.5060014  66.1659992 113.1339978  67.6630014
  66.8009992 112.4009978  69.5220014  66.2379992 111.4629978  69.3280014
  66.1949992 113.1209978  70.1110014  68.0759992 112.1079978  70.2470014
  68.5379992 113.1159978  70.1710014  68.6389992 111.4369978  69.5630014
  67.9679992 111.4379978  71.6550014  68.9799992 111.2339978  72.0640014
  67.5669992 110.4039978  71.5850014  67.0729992 112.3009978  72.5380014
  66.1189992 111.7309978  72.5590014  66.9199992 113.3169978  72.1160014
  67.6429992 112.3699978  73.9870014  68.6439992 112.7819978  73.7390014
  67.7589992 111.3529978  74.4170014  66.9879992 113.4189978  74.9770014
  67.0589992 114.3949978  74.4510014  67.6399992 113.3249978  75.8710014
  65.5299992 113.2179978  75.2500014  64.9159992 113.4319978  74.3630014
  64.9129992 112.6859978  76.3830014  63.8199992 112.6969978  76.2560014
  65.6059992 112.2269978  77.6130014  66.6379992 111.8839978  77.3810014
  65.1629992 111.2719978  77.9680014  65.8529992 113.2899978  78.6550014
  64.9019992 113.7899978  78.9400014  66.4839992 114.0639978  78.1680014
  66.5449992 112.8119978  79.9660014  66.6479992 113.6889978  80.6410014
  67.5319992 112.3159978  79.8390014  65.7579992 111.7739978  80.8150014
  66.4449992 111.4819978  81.6380014  65.5299992 110.8489978  80.2430014
  64.3569992 112.2059978  81.3370014  63.8089992 111.3289978  81.7410014
  63.7199992 112.5699978  80.5030014  64.3679992 113.2539978  82.4200014
  65.1239992 113.9649978  82.0240014  64.5379992 112.9179978  83.4660014
  63.0939992 113.9649978  82.5900014  63.2169992 114.5189978  83.5450014
  62.2799992 113.2229978  82.7340014  62.7929992 114.9739978  81.5540014
  61.7769992 115.4009978  81.6940014  62.6909992 114.5619978  80.5270014
  63.5309992 115.8009978  81.6230014  50.7609992  39.7599978  81.9150014
  51.3459992  40.4899978  82.5140014  50.3679992  38.8929978  82.4870014
  49.9049992  40.2879978  81.4430014  51.5819992  39.2369978  80.6900014
  51.9749992  40.1159978  80.1350014  52.3959992  38.6299978  81.1400014
  50.8279992  38.4829978  79.6750014  50.2339992  37.7099978  80.2080014
  50.0899992  39.1659978  79.2040014  51.7219992  37.8419978  78.5500014
  52.4409992  38.5539978  78.0900014  52.2589992  36.9839978  79.0080014
  50.8549992  37.3319978  77.3480014  49.8059992  37.1299978  77.6500014
  50.7609992  38.1839978  76.6420014  51.4399992  36.2469978  76.5070014
  52.5329992  36.4189978  76.6070014  51.1199992  35.3559978  77.0880014
  50.9839992  36.1919978  75.0640014  51.2249992  37.1729978  74.6010014
  51.6049992  35.4219978  74.5590014  49.5309992  35.9199978  74.8750014
  49.3049992  34.9229978  75.3100014  48.8469992  36.7169978  75.2370014
  49.0239992  35.8139978  73.3880014  49.2969992  36.7319978  72.8260014
  49.4909992  34.9449978  72.8770014  47.5109992  35.6169978  73.2700014
  47.2949992  34.6699978  73.8090014  46.9729992  36.4819978  73.7130014
  47.1089992  35.3489978  71.8150014  47.6979992  34.4699978  71.4780014
  46.0469992  35.0549978  71.6760014  47.5739992  36.4249978  70.7870014
  48.6809992  36.5159978  70.7910014  47.3089992  36.1479978  69.7440014
  46.8569992  37.7129978  71.0310014  45.7729992  37.5239978  70.8740014
  47.0559992  38.0029978  72.0850014  47.4389992  38.8959978  70.1680014
  48.4229992  39.1769978  70.6000014  47.6209992  38.6059978  69.1110014
  46.5539992  40.1329978  70.3820014  45.6519992  39.9949978  69.7480014
  46.2249992  40.2799978  71.4330014  47.4069992  41.2999978  69.9040014
  47.6969992  42.3009978  70.5960014  47.7679992  41.1499978  68.6280014
  48.6529992  42.1079978  68.0060014  48.0659992  42.8299978  67.3980014
  49.4199992  42.5219978  68.6940014  49.6249992  41.4349978  67.0030014
  50.2019992  42.2619978  66.5380014  48.8989992  40.7119978  65.8870014
  48.2649992  39.8739978  66.2470014  48.1119992  41.3189978  65.3890014
  49.7999992  40.2129978  64.8980014  50.5039992  38.8309978  64.8780014
  50.0049992  38.3629978  63.4010014  48.6289992  38.3059978  63.0780014
  48.1469992  39.2919978  63.2500014  48.5289992  38.1859978  61.9780014
  47.6979992  37.2699978  63.8430014  47.8889992  37.4409978  64.8920014
  46.6749992  37.5829978  63.6960014  47.9349992  35.7769978  63.5220014
  47.4549992  35.3579978  62.0970014  46.4119992  35.6129978  61.9810014
  48.0789992  35.9659978  61.4590014  47.7639992  34.3429978  61.8980014
  49.3769992  35.4049978  63.5300014  49.8849992  35.8859978  64.3530014
  49.5519992  34.3429978  63.4390014  49.8829992  35.7309978  62.6340014
  47.1549992  34.9599978  64.5140014  47.6369992  35.1019978  65.4700014
  47.0799992  33.9239978  64.2160014  46.1789992  35.3909978  64.6810014
  51.9779992  39.0799978  64.8050014  49.9969992  37.9149978  65.9390014
  50.3639992  40.5159978  67.7590014  51.5669992  40.9439978  68.0760014
  51.9629992  42.0719978  67.8820014  52.4179992  39.9419978  68.8120014
  53.4759992  40.2719978  68.7310014  52.3469992  38.9919978  68.2410014
  51.9829992  39.7089978  70.3100014  52.6139992  38.9079978  70.7520014
  51.0009992  39.1899978  70.3410014  51.8929992  40.9739978  71.2540014
  51.0799992  41.6259978  70.8700014  52.8669992  41.4959978  71.1400014
  51.5639992  40.5569978  72.7460014  51.5329992  41.5169978  73.3050014
  52.3859992  39.8829978  73.0670014  50.1419992  40.0389978  72.9490014
  50.0389992  39.0309978  72.4920014  49.4299992  40.6709978  72.3770014
  49.6889992  39.9309978  74.3860014  49.7219992  40.9329978  74.8650014
  50.4239992  39.3309978  74.9640014  48.2489992  39.4099978  74.5680014
  48.1249992  38.8659978  75.5280014  48.1439992  38.5989978  73.8150014
  47.0919992  40.4059978  74.4290014  47.2479992  41.4159978  74.0210014
  45.8449992  40.0949978  74.7330014  45.0249992  40.8279978  74.7430014
  45.3459992  38.7999978  75.2760014  46.0699992  37.9639978  75.1680014
  44.3639992  38.6229978  74.7870014  44.9889992  38.7699978  76.7820014
  44.2879992  39.6069978  76.9880014  45.9439992  38.9459978  77.3210014
  44.4079992  37.4999978  77.2860014  44.8829992  36.6689978  76.7210014
  43.3299992  37.4299978  77.0280014  44.5999992  37.1399978  78.7620014
  43.8329992  36.3809978  79.0280014  44.4219992  37.9899978  79.4550014
  46.0499992  36.5089978  79.0050014  46.7849992  37.0429978  78.3660014
  45.9959992  35.4119978  78.8370014  46.4779992  36.6269978  80.4770014
  47.1419992  35.7739978  80.7320014  45.5619992  36.4599978  81.0830014
  47.1149992  38.0289978  80.8190014  46.4219992  38.8809978  80.6530014
  47.9279992  38.3069978  80.1140014  47.5849992  38.1389978  82.2950014
  46.7749992  37.9739978  83.0370014  47.9269992  39.1809978  82.4770014
  48.4409992  37.4989978  82.5990014  40.3419992 108.1859978  80.3390014
  41.1679992 107.9679978  81.0490014  39.9409992 107.2969978  79.8080014
  39.5559992 108.5659978  81.0260014  40.9019992 109.1229978  79.2550014
  40.2089992 109.3849978  78.4270014  41.1599992 110.0609978  79.7920014
  42.2099992 108.5809978  78.7440014  42.9189992 108.6919978  79.5930014
  42.1749992 107.4879978  78.5510014  42.9389992 109.3519978  77.6090014
  42.9699992 110.4299978  77.8720014  43.9609992 108.9149978  77.6140014
  42.3849992 109.1489978  76.1350014  42.3169992 108.0859978  75.8220014
  41.3969992 109.5879978  75.8800014  43.3329992 109.8039978  75.1530014
  44.3529992 109.3629978  75.1580014  42.9659992 109.6989978  74.1100014
  43.5419992 111.4099978  75.2750014  43.8259992 111.6149978  76.3290014
  44.4239992 111.7029978  74.6660014  42.2369992 112.2729978  75.1150014
  41.8329992 112.0539978  74.1040014  41.5539992 111.9529978  75.9310014
  42.5269992 113.7709978  75.3840014  41.5779992 114.3279978  75.2340014
  42.7209992 113.9009978  76.4710014  43.4699992 114.6479978  74.6420014
  43.3929992 115.7189978  74.9250014  44.5309992 114.3419978  74.7660014
  43.2599992 114.7139978  73.1130014  42.2019992 114.7509978  72.7790014
  43.8119992 115.6409978  72.8490014  43.9489992 113.5449978  72.4330014
  44.9579992 113.3659978  72.8610014  43.3969992 112.6509978  72.7970014
  43.8279992 113.5539978  70.8480014  43.5019992 112.5519978  70.4960014
  43.0689992 114.2659978  70.4600014  45.1039992 113.9769978  70.2020014
  45.2399992 115.0659978  70.3750014  45.9229992 113.4799978  70.7660014
  45.1029992 113.8619978  68.6790014  44.2229992 114.3969978  68.2620014
  45.9729992 114.4649978  68.3420014  45.2979992 112.3939978  68.2510014
  45.5859992 111.5709978  69.0530014  45.0619992 112.2429978  66.9230014
  45.2179992 110.9189978  66.4230014  45.5329992 111.0289978  65.3630014
  46.0579992 110.3829978  66.9130014  43.9309992 110.0719978  66.3700014
  44.1529992 109.0209978  66.0880014  42.8659992 110.5789978  65.2240014
  43.3479992 110.6629978  64.2260014  42.0219992 109.8569978  65.2340014
  42.2579992 111.7869978  65.6440014  41.9829992 113.0439978  64.6930014
  40.7539992 112.5809978  63.8430014  39.4819992 112.2779978  64.3800014
  39.5129992 111.8149978  65.3900014  38.9329992 113.2429978  64.4320014
  38.6979992 111.3209978  63.4550014  37.7069992 111.3129978  63.8850014
  38.5949992 111.8649978  62.5280014  39.2479992 109.9269978  63.3440014
  40.5239992 109.8999978  62.4940014  40.3329992 110.5129978  61.6250014
  41.4219992 110.2429978  62.9860014  40.6979992 108.8839978  62.1690014
  39.4519992 109.3299978  64.7110014  40.1469992 110.0329978  65.1450014
  38.5079992 109.2679978  65.2310014  39.8539992 108.3309978  64.6320014
  38.2969992 109.0379978  62.5480014  38.7189992 108.0469978  62.4740014
  38.2989992 109.3799978  61.5230014  37.4269992 109.0049978  63.1870014
  41.5039992 114.2139978  65.5100014  43.2359992 113.2029978  63.8840014
  43.2999992 110.0759978  67.6950014  42.4099992 109.0699978  67.9260014
  42.0969992 108.2279978  67.0830014  41.9289992 109.1839978  69.3660014
  42.0789992 110.2459978  69.6580014  42.6469992 108.6289978  70.0060014
  40.5439992 108.7519978  69.7380014  40.2889992 107.7039978  69.4690014
  39.8119992 109.2719978  69.0850014  40.2929992 108.8769978  71.2470014
  40.6129992 109.8519978  71.6740014  40.8749992 108.0729978  71.7460014
  38.8299992 108.6639978  71.6900014  38.4719992 107.6369978  71.4650014
  38.2359992 109.4849978  71.2330014  38.7229992 108.7079978  73.2170014
  39.4859992 108.0279978  73.6510014  37.8049992 108.2109978  73.5980014
  38.9339992 110.0689978  73.9150014  39.8139992 110.6299978  73.5350014
  39.0119992 109.7189978  74.9670014  37.7189992 111.0629978  73.6340014
  37.6929992 111.3789978  72.5700014  38.1179992 111.9769978  74.1250014
  36.3689992 110.6159978  73.9920014  35.6539992 110.5319978  73.1600014
  35.9509992 110.5069978  75.2450014  34.9229992 110.2219978  75.5120014
  36.7719992 110.7709978  76.5130014  37.7379992 111.2929978  76.3440014
  36.9479992 109.8519978  77.1110014  36.0289992 111.7479978  77.5470014
  35.0539992 111.3189978  77.8610014  35.8619992 112.6949978  76.9920014
  36.8399992 111.9679978  78.8640014  37.1249992 110.9999978  79.3290014
  36.2569992 112.5319978  79.6240014  38.1649992 112.7509978  78.5630014
  38.0849992 113.6179978  77.8730014  38.8949992 112.1639978  77.9660014
  38.8979992 113.2309978  79.7820014  39.2649992 112.3929978  80.4120014
  38.2269992 113.8079978  80.4540014  40.1849992 113.9489978  79.4620014
  40.0419992 115.0399978  79.3130014  40.6119992 113.5729978  78.5070014
  41.2189992 113.8449978  80.6290014  42.1289992 114.3309978  80.2170014
  41.4429992 112.8069978  80.9560014  40.8829992 114.6189978  81.9240014
  41.6499992 114.4949978  82.7180014  39.8809992 114.2509978  82.2320014
  40.8669992 115.7039978  81.6860014  30.0289992  55.7449978  85.5760014
  31.0869992  55.7909978  85.9120014  29.5519992  54.8269978  85.9800014
  29.4269992  56.6239978  85.8940014  29.9649992  55.5969978  84.0770014
  28.9389992  55.8079978  83.7060014  30.6929992  56.2879978  83.6000014
  30.5549992  54.2599978  83.5420014  31.6039992  54.1629978  83.8940014
  29.8909992  53.5459978  84.0740014  30.2569992  54.1369978  82.0370014
  29.1689992  54.0949978  81.8150014  30.5049992  55.1459978  81.6430014
  31.1059992  53.0729978  81.3780014  32.1739992  53.2959978  81.5850014
  30.7459992  52.1399978  81.8630014  30.8949992  52.9489978  79.7800014
  29.8399992  52.7049978  79.5320014  31.2279992  53.8909978  79.2940014
  31.8539992  51.7909978  79.2890014  32.9069992  52.0389978  79.5400014
  31.5859992  50.8409978  79.7990014  31.8099992  51.6359978  77.7350014
  32.4409992  52.4359978  77.2920014  32.4039992  50.7279978  77.4930014
  30.4079992  51.7089978  77.0900014  29.7799992  51.0059978  77.6780014
  29.9409992  52.7159978  77.1230014  30.6359992  51.2429978  75.6090014
  31.4869992  50.5679978  75.3740014  29.6559992  50.8139978  75.3120014
  30.9679992  52.5349978  74.7420014  30.2579992  53.3169978  75.0860014
  31.9669992  52.9509978  74.9940014  31.0039992  52.2329978  73.2550014
  31.6839992  52.9489978  72.7450014  31.4569992  51.2479978  73.0130014
  29.6479992  52.3979978  72.5340014  28.9859992  51.6179978  72.9680014
  29.1039992  53.3499978  72.7140014  29.8599992  52.3169978  71.0770014
  30.5789992  51.4969978  70.8670014  28.9669992  52.0409978  70.4760014
  30.3369992  53.5759978  70.3390014  31.1069992  54.0419978  70.9900014
  30.8549992  53.3079978  69.3940014  29.2109992  54.5389978  70.0890014
  28.8149992  55.3759978  70.8660014  28.7329992  54.4289978  68.8050014
  27.7639992  55.4599978  68.3170014  26.7799992  55.0239978  68.0420014
  27.6299992  56.2909978  69.0420014  28.4519992  56.0949978  67.1390014
  27.8679992  57.0109978  66.9060014  28.5179992  55.1969978  65.8920014
  27.5419992  55.1129978  65.3670014  28.9519992  55.6739978  64.9870014
  28.9739992  53.9199978  66.1380014  30.4949992  53.3969978  66.0250014
  30.9219992  53.7869978  64.4640014  32.2589992  53.7219978  64.0080014
  32.8079992  54.4529978  64.6400014  32.6429992  52.6819978  64.0760014
  32.1929992  54.0789978  62.4680014  33.1479992  53.8399978  62.0240014
  31.4059992  53.4999978  62.0080014  31.9609992  55.5639978  62.1940014
  31.9409992  55.9319978  60.7080014  31.0239992  55.6459978  60.2160014
  32.0429992  57.0069978  60.6840014  32.7229992  55.4949978  60.1040014
  30.6229992  56.0229978  62.7640014  30.5839992  55.7539978  63.8090014
  30.6749992  57.1009978  62.7300014  29.8779992  55.6349978  62.0860014
  33.1159992  56.3709978  62.7710014  34.0609992  56.2819978  62.2560014
  33.3169992  55.8909978  63.7180014  32.7359992  57.3619978  62.9670014
  31.3679992  54.1849978  66.9280014  30.4589992  51.9459978  66.0370014
  29.7859992  56.4649978  67.4720014  30.3639992  57.5039978  66.9750014
  29.9789992  58.1859978  66.0200014  31.6329992  57.8489978  67.7730014
  31.4559992  58.8959978  68.0980014  32.4859992  57.7419978  67.0690014
  31.8039992  57.1519978  69.1540014  31.9549992  56.0789978  68.9070014
  30.9509992  57.3429978  69.8390014  33.1109992  57.5299978  69.8100014
  33.0809992  58.5569978  70.2310014  33.8339992  57.6469978  68.9750014
  33.7719992  56.4909978  70.8390014  34.8629992  56.6909978  70.9070014
  33.7269992  55.4449978  70.4670014  33.0879992  56.5819978  72.2010014
  32.0259992  56.3409978  71.9810014  33.1819992  57.6219978  72.5820014
  33.7559992  55.6029978  73.1320014  34.8519992  55.7199978  73.2750014
  33.5439992  54.6029978  72.6980014  33.0669992  55.6359978  74.4790014
  32.0699992  55.1809978  74.2970014  32.9629992  56.7159978  74.7150014
  33.7099992  54.9289978  75.6760014  33.9549992  53.8979978  75.3820014
  34.0379992  55.3379978  76.9360014  34.3359992  54.5689978  77.6640014
  33.7879992  56.7189978  77.4390014  33.8039992  57.5099978  76.6600014
  34.6249992  56.8459978  78.1590014  32.4429992  56.6579978  78.2470014
  32.5089992  55.8719978  79.0300014  31.6679992  56.3419978  77.5160014
  32.0619992  57.9719978  78.9290014  31.6979992  58.6369978  78.1160014
  32.9589992  58.4079978  79.4170014  30.8639992  57.8929978  79.9420014
  31.1419992  57.2339978  80.7920014  30.0249992  57.4169978  79.3920014
  30.5449992  59.2909978  80.5800014  30.2419992  60.0089978  79.7870014
  31.5289992  59.6239978  80.9740014  29.6269992  59.3519978  81.8160014
  29.4589992  60.4369978  81.9890014  30.2019992  58.9209978  82.6630014
  28.3559992  58.4959978  81.7100014  27.8499992  58.5039978  82.6990014
  28.4439992  57.4029978  81.5340014  27.3029992  59.1469978  80.7800014
  27.7189992  59.3909978  79.7790014  27.1469992  60.1749978  81.1700014
  26.3329992  58.6089978  80.7170014  44.5769992  43.0139978  85.6400014
  44.8719992  41.9709978  85.8800014  44.3439992  43.3809978  86.6620014
  45.4219992  43.6009978  85.2200014  43.3529992  42.8749978  84.6660014
  43.9159992  42.6969978  83.7250014  42.8169992  41.9289978  84.8990014
  42.4699992  44.1869978  84.6590014  42.3709992  44.6029978  85.6850014
  42.8899992  45.0229978  84.0600014  41.1149992  43.9249978  84.1440014
  40.7449992  43.1319978  84.8290014  40.4599992  44.8079978  84.3030014
  41.0289992  43.4789978  82.6510014  41.5189992  44.2439978  82.0110014
  41.7119992  42.6079978  82.5580014  39.6589992  43.0889978  82.0610014
  39.2909992  42.1659978  82.5580014  38.9179992  43.9119978  82.1600014
  39.7749992  42.7589978  80.5270014  40.8169992  42.4429978  80.3060014
  39.0219992  41.9509978  80.4000014  39.4279992  44.0299978  79.6780014
  38.4049992  44.3499978  79.9680014  40.0969992  44.8679978  79.9710014
  39.3779992  43.7659978  78.2130014  38.5739992  43.0139978  78.0700014
  39.1279992  44.6899978  77.6510014  40.5569992  43.1109978  77.5410014
  41.4629992  43.7479978  77.6290014  40.6949992  42.1199978  78.0240014
  40.2699992  42.7709978  76.0310014  41.2149992  42.4459978  75.5460014
  39.6959992  41.8219978  75.9620014  39.5279992  43.8369978  75.1910014
  38.6229992  44.1629978  75.7480014  40.1629992  44.7409978  75.0750014
  39.0859992  43.3289978  73.7890014  38.4959992  42.3909978  73.8770014
  38.4609992  44.0539978  73.2240014  40.3359992  42.8949978  72.9110014
  40.8659992  42.0339978  73.3720014  39.9659992  42.5699978  71.9150014
  41.3649992  44.0629978  72.5920014  40.7619992  44.8499978  72.0890014
  41.8739992  44.4699978  73.4920014  42.4269992  43.4379978  71.6420014
  43.4329992  42.9869978  72.0750014  42.0689992  43.6079978  70.3700014
  42.9949992  43.0609978  69.3930014  43.6639992  43.8479978  68.9840014
  43.6679992  42.3439978  69.9110014  42.2209992  42.5169978  68.1080014
  42.9169992  41.7679978  67.6730014  41.9079992  43.6389978  67.0640014
  41.4039992  44.4989978  67.5550014  42.8839992  43.9419978  66.6280014
  41.0509992  43.1659978  66.1010014  41.0219992  43.6299978  64.5530014
  39.9229992  42.6739978  63.7860014  39.3129992  41.6249978  64.4920014
  38.9289992  41.8989978  65.4970014  38.4289992  41.2689978  63.9210014
  40.2349992  40.4339978  64.6560014  41.0559992  40.7349978  65.2900014
  39.8639992  39.5539978  65.1610014  40.8179992  39.7989978  63.4110014
  39.6659992  39.3769978  62.4730014  39.4409992  40.2789978  61.9250014
  40.0899992  38.7299978  61.7190014  38.8819992  38.8109978  62.9550014
  41.7979992  40.6639978  62.6550014  41.2989992  41.4029978  62.0450014
  42.5639992  41.0409978  63.3160014  42.3019992  39.9689978  61.9990014
  41.6009992  38.5929978  63.8270014  41.0269992  37.8209978  64.3180014
  42.4069992  38.9019978  64.4760014  41.9529992  38.0909978  62.9380014
  40.5129992  45.0109978  64.5020014  42.4199992  43.4559978  64.0510014
  40.9479992  41.9189978  68.5080014  41.0639992  40.6329978  68.7690014
  42.0709992  39.9459978  68.8540014  39.6329992  40.0469978  68.9390014
  39.0889992  39.7749978  68.0090014  38.9709992  40.6899978  69.5570014
  39.6749992  38.7289978  69.8350014  40.6949992  38.3419978  70.0430014
  39.0499992  38.0089978  69.2640014  39.0109992  38.9109978  71.1990014
  37.9079992  38.9959978  71.0920014  39.2899992  39.8279978  71.7600014
  39.2419992  37.7789978  72.1670014  40.3259992  37.6519978  72.3770014
  38.9299992  36.8549978  71.6350014  38.5279992  37.8789978  73.5240014
  38.7129992  36.9159978  74.0470014  37.4229992  37.9029978  73.4080014
  38.9929992  39.0329978  74.4460014  38.6629992  38.8089978  75.4830014
  38.5369992  39.9709978  74.0650014  40.5129992  39.4109978  74.6040014
  40.5469992  40.3009978  75.2680014  40.8279992  39.7569978  73.5970014
  41.3099992  38.2649978  75.2700014  41.0939992  37.3479978  74.7030014
  42.2069992  38.2289978  76.2450014  42.6449992  37.2739978  76.5710014
  42.7169992  39.4309978  77.0190014  42.6519992  40.4059978  76.4900014
  43.8009992  39.2139978  77.1220014  42.1519992  39.5059978  78.4380014
  41.0559992  39.6879978  78.4330014  42.6539992  40.3519978  78.9530014
  42.6649992  38.4019978  79.4580014  43.7689992  38.2829978  79.4970014
  42.2709992  37.4069978  79.1590014  42.2289992  38.6639978  80.9360014
  42.5869992  39.6969978  81.1360014  42.6689992  37.9469978  81.6630014
  40.7169992  38.7009978  81.1840014  40.2719992  37.7029978  80.9880014
  40.4159992  39.4309978  80.4020014  40.4929992  38.9999978  82.6240014
  40.8679992  40.0199978  82.8590014  41.0709992  38.2029978  83.1390014
  39.0289992  39.0789978  83.0350014  38.6229992  38.1159978  82.6600014
  38.4569992  39.9169978  82.5810014  38.8449992  39.2109978  84.5510014
  37.7699992  39.2539978  84.8260014  39.3149992  40.1949978  84.7640014
  39.4179992  38.4349978  85.1030014  58.9729992  30.2019978  81.4810014
  58.0009992  30.6429978  81.7920014  59.8479992  30.6279978  82.0160014
  58.7799992  29.1379978  81.7350014  59.2369992  30.3459978  79.9380014
  60.1779992  29.8649978  79.5970014  58.3819992  29.9159978  79.3740014
  59.3889992  31.8489978  79.5440014  58.6649992  32.4889978  80.0910014
  60.4129992  32.1659978  79.8370014  59.1979992  32.2249978  78.0110014
  58.2239992  31.7609978  77.7450014  59.1409992  33.3349978  78.0040014
  60.1979992  31.6049978  76.9010014  61.1979992  32.0889978  76.9400014
  60.3109992  30.5039978  76.9990014  59.8139992  32.0609978  75.3920014
  60.3329992  33.0299978  75.2320014  60.4169992  31.4689978  74.6700014
  58.3099992  32.0919978  75.0680014  57.8929992  31.0749978  75.2310014
  57.7389992  32.7949978  75.7100014  58.0059992  32.6749978  73.6870014
  58.4379992  32.1509978  72.8070014  56.8989992  32.5869978  73.7220014
  58.2649992  34.2309978  73.5810014  57.6659992  34.7159978  74.3810014
  59.3439992  34.3979978  73.7890014  58.0659992  34.8359978  72.2520014
  58.8459992  34.2759978  71.6930014  57.0749992  34.5529978  71.8370014
  58.1649992  36.3299978  72.1650014  57.4819992  36.8739978  72.8520014
  59.2089992  36.5029978  72.5030014  58.1189992  36.8759978  70.6850014
  57.1489992  36.5809978  70.2310014  58.1409992  37.9769978  70.8280014
  59.2409992  36.3739978  69.7670014  59.1599992  35.2659978  69.7530014
  59.0409992  36.7339978  68.7350014  60.6529992  36.7249978  70.1190014
  60.8339992  37.8119978  69.9770014  60.7369992  36.4859978  71.2010014
  61.6729992  35.8789978  69.3590014  61.3349992  36.0519978  68.3160014
  62.7029992  36.2769978  69.4800014  61.6059992  34.3909978  69.8610014
  61.6209992  34.0169978  70.9780014  61.6169992  33.5999978  68.7400014
  61.5119992  32.2239978  68.8120014  62.2699992  31.7819978  68.1310014
  61.7459992  31.7329978  69.7810014  60.1769992  31.6119978  68.2090014
  60.2449992  30.5089978  68.0940014  60.1249992  32.1749978  66.8000014
  61.1009992  32.0399978  66.2880014  59.3849992  31.5709978  66.2330014
  59.8009992  33.5219978  66.8140014  59.3579992  34.1519978  65.4150014
  58.1609992  33.2699978  64.9090014  56.8029992  33.5119978  65.0110014
  56.5089992  32.9959978  65.9500014  56.5659992  34.5839978  65.1820014
  55.8709992  32.9489978  63.8720014  55.9179992  31.8709978  63.8240014
  54.9149992  33.3539978  64.1690014  56.2379992  33.4099978  62.4950014
  57.5549992  32.9759978  61.9960014  57.7689992  33.5779978  61.1250014
  58.3499992  33.2249978  62.6820014  57.4689992  31.9169978  61.8010014
  55.2629992  32.8239978  61.5610014  55.2799992  31.7619978  61.7580014
  54.2299992  32.9869978  61.8300014  55.4299992  32.9609978  60.5020014
  56.0489992  34.8519978  62.3910014  55.0259992  35.0929978  62.6380014
  56.4619992  35.2669978  61.4840014  56.6709992  35.4209978  63.0670014
  58.7999992  35.4789978  65.5790014  60.5139992  34.1229978  64.4640014
  59.0899992  32.0129978  69.0590014  57.8999992  31.5529978  68.7730014
  57.5409992  30.8459978  67.8650014  56.9519992  32.0749978  69.9290014
  57.4389992  33.0419978  70.1760014  57.0369992  31.3439978  70.7620014
  55.4829992  32.2469978  69.3960014  55.4129992  32.2809978  68.2880014
  55.1209992  33.2329978  69.7590014  54.3619992  31.2039978  69.8250014
  54.4649992  30.2049978  69.3520014  53.3889992  31.5319978  69.4010014
  54.1849992  31.0109978  71.3490014  55.0869992  30.6059978  71.8550014
  53.3329992  30.3139978  71.4980014  53.8629992  32.3439978  72.1240014
  53.0429992  32.8599978  71.5800014  54.8019992  32.9339978  72.1930014
  53.4449992  32.0949978  73.5500014  54.0559992  31.3139978  74.0520014
  52.4009992  31.7249978  73.6300014  53.6899992  33.2359978  74.5330014
  54.7669992  33.5069978  74.5300014  53.4249992  32.9089978  75.5610014
  52.8319992  34.4349978  74.1580014  51.7529992  34.2429978  74.0680014
  53.2799992  35.6389978  73.7440014  52.6509992  36.5379978  73.6570014
  54.6719992  35.9909978  73.5670014  54.8919992  36.6229978  72.6800014
  55.3249992  35.1409978  73.2740014  55.2989992  36.8259978  74.7540014
  54.8679992  37.8499978  74.7570014  56.3699992  37.0689978  74.5860014
  54.8979992  36.2089978  76.1660014  55.4449992  35.2509978  76.3000014
  53.7929992  36.0929978  76.1720014  55.4849992  37.0069978  77.3480014
  55.0039992  38.0079978  77.3940014  56.5769992  37.1829978  77.2390014
  55.2449992  36.3729978  78.7010014  55.2399992  35.2869978  78.4660014
  54.2339992  36.6619978  79.0570014  56.3029992  36.6749978  79.7330014
  56.2879992  37.7859978  79.7450014  57.1789992  36.1319978  79.3170014
  56.2899992  35.9549978  81.0560014  55.5279992  36.4639978  81.6840014
  57.2739992  36.0839978  81.5550014  55.9019992  34.4749978  81.1390014
  54.8669992  34.3359978  80.7590014  55.9599992  34.0989978  82.1830014
  56.5179992  33.8259978  80.4810014  45.6579992 119.0649978  80.8140014
  46.4229992 118.8169978  81.5800014  44.6669992 118.5989978  80.9990014
  45.5389992 120.1469978  80.5920014  46.0669992 118.3939978  79.4870014
  47.1719992 118.5049978  79.5130014  45.7679992 117.3279978  79.5820014
  45.5109992 118.9809978  78.1980014  44.4119992 118.8729978  78.3210014
  45.7809992 120.0579978  78.2000014  46.0679992 118.4589978  76.8710014
  45.3899992 118.7189978  76.0310014  47.0859992 118.8779978  76.7180014
  46.2179992 116.9039978  76.6980014  46.5129992 116.7299978  75.6410014
  46.9439992 116.4679978  77.4170014  44.9469992 116.1489978  76.7760014
  44.6939992 116.2619978  77.8520014  44.1029992 116.6339978  76.2410014
  44.9369992 114.6689978  76.3050014  45.6999992 114.0879978  76.8670014
  43.9109992 114.2989978  76.5170014  45.1129992 114.4589978  74.7990014
  44.5439992 115.2299978  74.2360014  46.1889992 114.6059978  74.5660014
  44.8079992 113.0649978  74.3120014  45.2039992 112.3549978  75.0690014
  43.7259992 112.8489978  74.1740014  45.5469992 112.7269978  73.0000014
  44.9219992 111.9589978  72.4970014  45.7129992 113.6779978  72.4500014
  46.9489992 112.1729978  73.2650014  47.5639992 112.9509978  73.7650014
  46.8469992 111.2209978  73.8280014  47.6479992 111.7679978  71.9510014
  48.5459992 111.1409978  72.1340014  46.9449992 111.1069978  71.4000014
  47.8869992 112.8279978  70.9090014  46.8909992 113.2209978  70.6120014
  48.4269992 113.6659978  71.3990014  48.5389992 112.3199978  69.6230014
  49.6119992 112.0529978  69.7360014  48.1059992 111.3599978  69.2710014
  48.6709992 113.3699978  68.5240014  49.0449992 114.2989978  69.0060014
  49.4099992 113.0429978  67.7630014  47.3739992 113.5739978  67.8420014
  46.9719992 112.9499978  66.8440014  46.8609992 114.7579978  68.2460014
  45.4079992 114.9279978  68.1180014  45.1579992 114.8019978  67.0430014
  44.7569992 114.3409978  68.8010014  45.0419992 116.4459978  68.3970014
  43.9339992 116.4179978  68.4700014  45.3929992 117.1959978  67.0700014
  44.9629992 116.7059978  66.1700014  44.8849992 118.1839978  67.0540014
  46.7909992 117.4719978  66.9990014  47.5979992 117.6179978  65.7460014
  46.9979992 116.4499978  64.8850014  46.6659992 116.7589978  63.5100014
  45.8469992 116.0219978  63.3660014  46.1089992 117.7159978  63.4210014
  47.7729992 116.6009978  62.4420014  47.2799992 116.6969978  61.4860014
  48.4599992 117.4089978  62.6470014  48.4899992 115.2979978  62.4770014
  49.4779992 115.2119978  63.6520014  48.8879992 115.3579978  64.5440014
  50.0309992 114.2839978  63.6380014  50.1049992 116.0869978  63.5620014
  47.6049992 114.0759978  62.5500014  47.1419992 113.9249978  63.5140014
  46.8159992 114.1749978  61.8180014  48.0689992 113.1179978  62.3690014
  49.2689992 115.0489978  61.2040014  49.9169992 115.8989978  61.0500014
  48.6319992 114.9529978  60.3380014  49.8379992 114.1309978  61.2120014
  47.3129992 118.8889978  65.0790014  49.0139992 117.3219978  65.9610014
  45.7929992 116.9189978  69.6020014  45.5549992 118.1989978  69.9460014
  44.6879992 118.8989978  69.4380014  46.5099992 118.7559978  71.0650014
  47.3349992 118.0149978  71.1360014  46.0199992 118.8799978  72.0550014
  47.1269992 120.1169978  70.6270014  47.7179992 120.5659978  71.4540014
  46.3989992 120.9229978  70.3920014  48.1929992 119.9649978  69.5270014
  48.4939992 120.9389978  69.0870014  47.6989992 119.4789978  68.6580014
  49.5369992 119.3289978  69.9010014  49.5979992 119.1749978  71.0000014
  50.2959992 120.1069978  69.6710014  49.8459992 118.0229978  69.1220014
  50.0419992 118.3239978  68.0710014  48.9799992 117.3269978  69.1560014
  51.0949992 117.2509978  69.6490014  52.0709992 117.6509978  69.3010014
  50.8579992 116.3189978  69.0930014  51.0599992 117.1979978  71.2160014
  49.9759992 117.1149978  71.4410014  51.4999992 118.1029978  71.6890014
  51.7479992 115.9769978  71.7880014  52.6699992 115.7089978  71.2520014
  51.3439992 115.2839978  72.7690014  51.8339992 114.3109978  72.9210014
  50.0879992 115.4039978  73.6440014  49.7729992 114.3589978  73.8530014
  49.2479992 115.9539978  73.1690014  50.4179992 115.9829978  75.0920014
  50.3869992 117.0929978  75.0640014  51.4199992 115.6079978  75.3920014
  49.7209992 115.3169978  76.2730014  49.8969992 114.2199978  76.2590014
  48.6159992 115.4289978  76.3090014  50.2819992 115.6979978  77.6860014
  51.3419992 115.3709978  77.7360014  49.8019992 114.9889978  78.3940014
  50.0899992 117.1559978  78.0520014  48.9989992 117.3679978  78.0410014
  50.6569992 117.8149978  77.3610014  50.3109992 117.4789978  79.5660014
  49.6439992 116.9139978  80.2520014  49.9609992 118.5309978  79.6350014
  51.7679992 117.4089978  80.0620014  52.3059992 118.0509978  79.3320014
  52.1629992 116.3699978  80.0490014  52.0079992 118.0069978  81.4900014
  53.1039992 118.1699978  81.5690014  51.6129992 117.3949978  82.3290014
  51.5629992 119.0199978  81.5910014 115.3579992  59.4649978  82.5490014
 116.2339992  58.7849978  82.6100014 114.4659992  58.8499978  82.7970014
 115.4099992  60.2539978  83.3300014 115.0979992  59.9909978  81.1170014
 115.7429992  60.8629978  80.8790014 115.3579992  59.1609978  80.4260014
 113.6519992  60.5549978  80.8860014 112.9319992  59.7949978  81.2570014
 113.4419992  61.4239978  81.5450014 113.3049992  61.0239978  79.5020014
 112.4809992  61.7689978  79.5300014 114.2019992  61.4879978  79.0390014
 112.9629992  59.8989978  78.5420014 113.7459992  59.1119978  78.5970014
 111.9689992  59.4659978  78.7850014 112.8199992  60.3689978  77.0700014
 112.1089992  61.2199978  77.0100014 113.7379992  60.8749978  76.7030014
 112.3249992  59.2699978  76.0870014 111.4449992  58.6549978  76.3710014
 112.0239992  59.6799978  75.0990014 113.4819992  58.3119978  75.7450014
 113.8739992  57.7979978  76.6480014 113.1509992  57.4509978  75.1260014
 114.7029992  59.0039978  75.0150014 115.2259992  59.6389978  75.7630014
 115.4909992  58.2429978  74.8290014 114.3899992  59.9229978  73.8390014
 114.1749992  59.1979978  73.0250014 113.4189992  60.4619978  73.8840014
 115.4699992  61.0089978  73.6550014 115.6049992  61.5159978  74.6340014
 116.4589992  60.5659978  73.4100014 115.1019992  62.0469978  72.5240014
 114.0699992  62.3859978  72.7550014 115.7459992  62.9509978  72.5730014
 115.1289992  61.4889978  71.1590014 114.4689992  60.5949978  71.1480014
 114.6419992  62.1599978  70.4200014 116.4489992  61.1699978  70.4670014
 117.2949992  61.4339978  71.1380014 116.5569992  60.0879978  70.2390014
 116.6199992  61.9229978  69.1730014 115.7719992  61.5699978  68.5470014
 116.5269992  63.0229978  69.2930014 118.0239992  61.6489978  68.6260014
 119.0169992  61.8549978  69.2850014 117.9589992  61.0099978  67.4880014
 119.0809992  60.3779978  66.9050014 119.2239992  60.6319978  65.8330014
 120.0329992  60.7269978  67.3580014 118.9759992  58.8579978  67.0840014
 119.9519992  58.4979978  66.6950014 117.8509992  58.4429978  66.0700014
 117.7139992  59.3149978  65.3950014 118.1119992  57.5059978  65.5340014
 116.4789992  58.1889978  66.6010014 115.2849992  57.8779978  65.5480014
 115.5999992  58.7949978  64.2420014 115.4259992  60.1689978  64.1260014
 115.7409992  60.7269978  65.0340014 115.9039992  60.5899978  63.2160014
 113.9249992  60.4349978  63.9040014 113.3979992  59.7809978  64.5830014
 113.7429992  61.4719978  64.1440014 113.3149992  60.1529978  62.5300014
 113.9799992  60.9309978  61.4820014 113.8969992  61.9729978  61.7540014
 114.9969992  60.6339978  61.2720014 113.4929992  60.8129978  60.5250014
 113.2579992  58.6589978  62.1580014 112.7099992  58.5369978  61.2360014
 114.2569992  58.2669978  62.0380014 112.7499992  58.0919978  62.9250014
 111.8559992  60.6079978  62.5610014 111.4009992  60.3709978  61.6110014
 111.8229992  61.6719978  62.7410014 111.3589992  60.0329978  63.3280014
 115.4109992  56.4549978  65.0730014 114.0419992  58.2149978  66.2790014
 118.7629992  58.5079978  68.4280014 118.6069992  57.1969978  68.7880014
 118.5099992  56.2529978  68.0080014 118.6819992  57.0509978  70.3220014
 118.6559992  58.0289978  70.8480014 119.5149992  56.3889978  70.6410014
 117.3249992  56.3669978  70.8750014 117.4439992  55.2979978  70.5990014
 116.4859992  56.7909978  70.2840014 117.1589992  56.4319978  72.4460014
 116.1599992  55.9799978  72.6270014 117.0019992  57.4839978  72.7680014
 118.2769992  55.6859978  73.1860014 119.2439992  56.0699978  72.7980014
 118.2269992  54.6429978  72.8080014 118.0489992  55.6629978  74.7220014
 117.0299992  55.2439978  74.8620014 117.9429992  56.7569978  74.8880014
 119.1899992  54.9189978  75.4790014 120.0599992  55.6059978  75.5560014
 119.5809992  54.1579978  74.7710014 118.8619992  54.3089978  76.8870014
 119.8849992  54.1449978  77.2880014 118.2089992  53.4109978  76.9130014
 118.1269992  55.3169978  77.7730014 117.3249992  55.8739978  77.2670014
 118.4609992  55.8789978  78.9420014 117.8359992  56.6939978  79.3370014
 119.7359992  55.5619978  79.6100014 120.0609992  54.5389978  79.3230014
 119.5429992  55.6869978  80.6970014 120.9069992  56.4149978  79.1510014
 120.8989992  56.2239978  78.0560014 121.8519992  56.0899978  79.6360014
 120.8209992  57.9409978  79.4080014 119.9819992  58.3769978  78.8250014
 121.7839992  58.3409978  79.0230014 120.6269992  58.3959978  80.9200014
 121.4139992  58.0589978  81.6280014 119.6919992  57.9419978  81.3130014
 120.4839992  59.9179978  81.1210014 121.4219992  60.3979978  80.7680014
 120.5979992  60.0339978  82.2200014 119.2619992  60.5789978  80.5190014
 118.2859992  60.1609978  80.8430014 119.2309992  60.3599978  79.4300014
 119.2899992  62.0859978  80.7560014 120.1629992  62.3959978  80.1430014
 119.5799992  62.3499978  81.7950014 118.0719992  62.7969978  80.2390014
 118.1689992  63.8879978  80.4280014 117.1379992  62.4569978  80.7350014
 117.9829992  62.7049978  79.1350014  27.1759992  93.0699978  81.0520014
  28.0109992  92.3379978  81.0120014  27.1729992  93.7049978  81.9630014
  27.3669992  93.9129978  80.3540014  25.7759992  92.6259978  80.7510014
  25.3069992  91.9509978  81.4990014  25.2009992  93.5689978  80.8650014
  25.4999992  92.0489978  79.4270014  24.4249992  91.8319978  79.2530014
  25.8509992  92.8069978  78.6950014  26.1379992  90.6709978  79.2550014
  27.2439992  90.7459978  79.3350014  25.7609992  89.9949978  80.0520014
  25.8409992  89.9379978  77.9650014  24.7389992  89.9509978  77.8250014
  26.2849992  90.4799978  77.1030014  26.4369992  88.4829978  77.9950014
  26.3599992  87.8279978  78.8890014  25.8869992  87.9249978  77.2080014
  27.8799992  88.3499978  77.4890014  28.5969992  88.9759978  78.0610014
  28.1939992  87.2889978  77.5830014  28.0229992  88.7429978  76.0200014
  27.2739992  88.2789978  75.3420014  27.9429992  89.8309978  75.8110014
  29.3699992  88.3059978  75.4790014  30.1119992  88.7399978  76.1830014
  29.3859992  87.1959978  75.5010014  29.7569992  88.8269978  74.0540014
  28.9569992  88.4249978  73.3950014  29.7549992  89.9289978  74.1880014
  31.1359992  88.4379978  73.5520014  31.7379992  88.6429978  74.4630014
  31.0989992  87.3279978  73.5430014  31.6059992  89.2159978  72.3270014
  32.6339992  88.9109978  72.0380014  30.9809992  88.8609978  71.4810014
  31.6619992  90.8059978  72.4430014  30.6099992  91.1649978  72.4520014
  32.0539992  91.1999978  73.4040014  32.3239992  91.5319978  71.2700014
  32.3539992  92.6169978  71.5070014  33.3979992  91.2649978  71.1760014
  31.6519992  91.3539978  69.8740014  30.5729992  91.2429978  70.1140014
  31.9179992  92.2589978  69.2860014  31.9859992  90.1719978  69.0100014
  32.8489992  89.3259978  69.1840014  31.0099992  90.0719978  68.1600014
  30.7589992  88.7669978  67.6780014  31.5469992  88.2959978  67.0520014
  30.6579992  88.1229978  68.5780014  29.5009992  88.6839978  66.8490014
  29.0259992  87.6959978  67.0320014  29.7929992  88.7359978  65.3230014
  30.4839992  87.8849978  65.1400014  28.8399992  88.6039978  64.7670014
  30.3259992  90.0259978  65.0530014  30.2349992  90.5539978  63.5490014
  28.8589992  91.4179978  63.5160014  28.4509992  92.0599978  64.6990014
  28.3709992  91.3989978  65.5880014  29.1999992  92.8589978  64.8850014
  26.9639992  92.6459978  64.5920014  26.7499992  93.1979978  65.4950014
  26.9969992  93.2659978  63.7080014  25.8539992  91.6049978  64.3550014
  24.5839992  92.3529978  63.9300014  24.8239992  93.0109978  63.1070014
  23.8609992  91.6379978  63.5660014  24.1429992  92.9789978  64.6920014
  26.2309992  90.5989978  63.2910014  25.4929992  89.8229978  63.1500014
  26.4799992  91.1309978  62.3850014  27.0299992  90.0089978  63.7150014
  25.5539992  90.7739978  65.6060014  25.4199992  91.4379978  66.4460014
  26.3969992  90.1899978  65.9440014  24.7079992  90.1119978  65.4920014
  31.3349992  91.5329978  63.3990014  29.9999992  89.5319978  62.5170014
  28.5629992  89.7019978  67.1260014  28.1579992  89.9599978  68.4290014
  28.2089992  89.1359978  69.3280014  27.6159992  91.4309978  68.5570014
  26.5899992  91.4789978  68.1340014  28.2299992  92.1509978  67.9760014
  27.5679992  91.9389978  70.0290014  28.5309992  91.7569978  70.5530014
  26.7199992  91.3419978  70.4270014  27.4309992  93.3689978  70.3140014
  26.6109992  93.8589978  69.7470014  28.3499992  93.7989978  69.8620014
  27.2859992  93.6839978  71.8030014  27.8029992  93.0639978  72.5660014
  26.2129992  93.4119978  71.9020014  27.2909992  95.1829978  72.1000014
  27.1039992  95.7199978  71.1450014  28.3459992  95.4349978  72.3420014
  26.4159992  95.6859978  73.2190014  25.3519992  95.6219978  72.9060014
  26.4989992  96.7929978  73.2620014  26.7119992  95.0349978  74.5640014
  26.8099992  93.9289978  74.5530014  25.9629992  95.1849978  75.3710014
  28.0359992  95.5969978  75.1350014  28.2279992  96.6699978  74.9880014
  29.0539992  94.8569978  75.7380014  29.9549992  95.3439978  76.1400014
  29.0159992  93.3489978  75.8530014  28.8079992  93.0089978  74.8160014
  28.2139992  93.0399978  76.5570014  30.3929992  92.7549978  76.2730014
  31.1179992  93.5599978  76.0300014  30.6269992  91.8229978  75.7150014
  30.3869992  92.3569978  77.7620014  29.5839992  91.6879978  78.1400014
  30.2179992  93.2579978  78.3900014  31.7209992  91.6589978  78.1210014
  32.5389992  92.3369978  77.7940014  31.8069992  90.6899978  77.5850014
  31.8919992  91.2429978  79.6140014  32.2689992  92.2169978  79.9910014
  32.6399992  90.4299978  79.7400014  30.6399992  90.8249978  80.3880014
  30.1799992  90.0259978  79.7690014  29.9779992  91.7169978  80.4180014
  30.9689992  90.2439978  81.8240014  31.5639992  89.3379978  81.5790014
  30.0189992  89.9689978  82.3300014  31.7079992  91.1659978  82.7680014
  31.0339992  92.0199978  82.9900014  32.6769992  91.5779978  82.4160014
  31.8939992  90.6419978  83.7310014  30.9369992 102.1889978  81.6920014
  30.9089992 102.2869978  82.7980014  30.5599992 101.1649978  81.4850014
  30.2069992 102.9569978  81.3590014  32.3329992 102.5749978  81.1300014
  32.5839992 103.5319978  81.6370014  33.0359992 101.7459978  81.3620014
  32.3999992 102.6269978  79.6390014  31.9409992 101.7089978  79.2130014
  32.0389992 103.6379978  79.3520014  33.8069992 102.3619978  78.9430014
  34.3779992 103.2789978  79.2020014  34.2869992 101.5089978  79.4690014
  33.6379992 102.1249978  77.4250014  33.4329992 101.0489978  77.2410014
  32.7809992 102.7189978  77.0400014  34.8549992 102.4329978  76.4360014
  35.6309992 101.6529978  76.5900014  34.5099992 102.3479978  75.3830014
  35.4139992 103.8439978  76.5900014  34.6459992 104.5149978  76.1470014
  35.5709992 104.1089978  77.6570014  36.7219992 103.9279978  75.7600014
  37.4749992 103.2269978  76.1790014  36.5519992 103.6599978  74.6950014
  37.3389992 105.3589978  75.6440014  37.5809992 105.7289978  76.6630014
  38.2559992 105.1999978  75.0360014  36.5039992 106.3969978  74.8790014
  35.7119992 106.7849978  75.5540014  37.1269992 107.2669978  74.5820014
  35.7559992 105.9069978  73.6440014  36.3099992 105.0919978  73.1320014
  34.7519992 105.5229978  73.9270014  35.6659992 107.0119978  72.6120014
  35.0909992 107.8949978  72.9650014  36.7019992 107.2719978  72.3040014
  34.9869992 106.3849978  71.2690014  35.3049992 105.3429978  71.0500014
  33.8769992 106.3349978  71.2890014  35.3369992 107.0749978  69.9840014
  34.7619992 108.0239978  70.0330014  36.3999992 107.3459978  69.8130014
  34.7489992 106.2549978  68.7870014  33.7849992 105.7589978  69.0290014
  34.5219992 106.9419978  67.9450014  35.7909992 105.2859978  68.2940014
  36.9669992 105.5489978  68.1960014  35.1999992 104.1679978  67.9550014
  35.9839992 102.9959978  67.5910014  37.0619992 103.2119978  67.4240014
  35.8129992 102.2129978  68.3600014  35.4319992 102.5799978  66.1520014
  36.0869992 101.8149978  65.6830014  35.5569992 103.7649978  65.1430014
  35.0519992 104.6299978  65.6260014  36.6089992 104.0919978  65.0020014
  34.8409992 103.4649978  63.9750014  34.8819992 104.4739978  62.7670014
  33.5339992 105.2419978  63.0390014  32.3299992 104.8059978  63.6900014
  31.3759992 104.8959978  63.1270014  32.2839992 103.6969978  63.7240014
  32.2339992 105.3419978  65.1020014  31.2519992 104.9999978  65.3960014
  32.9679992 104.8269978  65.7040014  32.2999992 106.8049978  65.3080014
  31.8089992 107.6509978  64.1760014  31.9399992 108.7049978  64.3680014
  32.2579992 107.4779978  63.2090014  30.7449992 107.5319978  64.0340014
  31.4959992 107.0609978  66.5950014  31.5229992 108.1159978  66.8240014
  30.4439992 106.8159978  66.5680014  31.7679992 106.5089978  67.4820014
  33.7029992 107.1869978  65.5360014  33.8469992 108.2319978  65.7680014
  34.1619992 107.1319978  64.5610014  34.0979992 106.5399978  66.3050014
  36.0309992 105.4439978  62.8080014  34.7279992 103.7549978  61.5100014
  34.0019992 102.2279978  66.2000014  33.7399992 101.1929978  66.9690014
  34.4989992 100.4749978  67.5530014  32.2309992 101.0889978  66.9880014
  31.9979992 100.1189978  67.4770014  31.9579992 101.0969978  65.9110014
  31.5539992 102.2099978  67.7750014  30.4609992 102.1039978  67.6090014
  31.8669992 103.1679978  67.3070014  31.8259992 102.2499978  69.2280014
  32.9339992 102.2209978  69.3070014  31.4919992 101.4119978  69.8770014
  31.2709992 103.5509978  69.9910014  30.1679992 103.6649978  69.9250014
  31.7709992 104.3749978  69.4390014  31.7059992 103.5979978  71.4420014
  32.7669992 103.3259978  71.6280014  31.1159992 102.8269978  71.9820014
  31.4739992 104.9239978  72.2820014  30.3629992 104.8999978  72.2620014
  31.8099992 105.8089978  71.7010014  32.1049992 104.8579978  73.7490014
  32.3049992 105.8739978  74.1530014  33.1029992 104.3709978  73.7080014
  31.2839992 104.0359978  74.6650014  31.3869992 102.9449978  74.5770014
  30.3009992 104.4909978  75.5330014  29.7139992 103.8479978  76.2060014
  29.9229992 105.9639978  75.6170014  28.8159992 105.9679978  75.5140014
  30.2539992 106.6819978  74.8370014  30.2719992 106.5039978  76.9690014
  30.0229992 105.6849978  77.6770014  29.6779992 107.3699978  77.3320014
  31.7239992 107.0329978  77.1340014  31.9459992 107.6129978  76.2130014
  32.3979992 106.1519978  77.0680014  32.0219992 107.9709978  78.3690014
  31.9079992 107.2029978  79.1630014  31.2359992 108.7219978  78.5950014
  33.3999992 108.5449978  78.3110014  33.3149992 109.4739978  77.7080014
  34.0439992 107.8359978  77.7490014  34.1609992 108.7929978  79.6190014
  33.5769992 109.3029978  80.4150014  35.0809992 109.4059978  79.5130014
  34.6879992 107.5449978  80.2480014  34.1679992 106.6679978  79.8070014
  34.3529992 107.5319978  81.3080014  36.2679992 107.4409978  80.4730014
  36.7969992 107.4139978  79.4960014  36.4399992 106.5799978  81.1530014
  36.5919992 108.4169978  80.8920014 102.1549992 106.3559978  84.9370014
 101.7879992 106.9649978  85.7910014 103.2629992 106.4409978  84.9170014
 101.6779992 105.3629978  85.0840014 101.7159992 106.8119978  83.5690014
 100.6759992 106.4959978  83.3380014 101.7169992 107.9229978  83.5310014
 102.4629992 106.2079978  82.3920014 103.5439992 106.0539978  82.5970014
 102.0239992 105.1889978  82.3340014 102.2579992 106.9109978  80.9540014
 101.1719992 107.0479978  80.7640014 102.6789992 107.9369978  81.0220014
 102.8279992 106.1209978  79.7660014 103.8219992 105.8179978  80.1600014
 102.2389992 105.1869978  79.6500014 102.7999992 106.9279978  78.5220014
 103.3229992 107.8789978  78.7600014 103.4599992 106.4419978  77.7710014
 101.4439992 107.2569978  77.9600014 100.8869992 106.4259978  77.4780014
 100.7389992 107.6789978  78.7070014 101.4099992 108.2439978  76.8010014
 100.4079992 108.1759978  76.3240014 101.5909992 109.2539978  77.2260014
 102.5109992 108.0229978  75.7190014 103.4839992 108.2239978  76.2160014
 102.3919992 106.9459978  75.4750014 102.3489992 108.9539978  74.5000014
 101.4599992 108.7399978  73.8690014 102.2909992 110.0319978  74.7610014
 103.5099992 108.7569978  73.4620014 104.4249992 108.8839978  74.0790014
 103.6759992 107.7559978  73.0100014 103.4829992 109.8479978  72.3970014
 102.6019992 109.6209978  71.7600014 103.3029992 110.8519978  72.8370014
 104.7209992 109.8089978  71.5000014 104.7199992 110.4979978  70.6290014
 105.5609992 110.1549978  72.1400014 105.1379992 108.4329978  70.9290014
 105.9689992 108.6369978  70.2200014 105.6029992 107.8689978  71.7650014
 103.9209992 107.6969978  70.2820014 102.9759992 107.7259978  70.8650014
 103.6929992 108.2149978  69.3260014 104.2689992 106.2619978  70.0280014
 104.4999992 105.4479978  70.8980014 104.3449992 106.0929978  68.7130014
 104.7389992 104.7299978  68.3540014 105.7029992 104.7149978  67.8010014
 104.9739992 104.0719978  69.2180014 103.5389992 104.1009978  67.5360014
 103.8089992 103.0869978  67.1720014 103.2669992 104.8589978  66.1770014
 104.1809992 104.7969978  65.5490014 102.5979992 104.2639978  65.5190014
 102.8469992 106.1799978  66.2540014 101.3589992 106.7069978  66.2070014
 100.8729992 106.7589978  64.6680014 101.6879992 107.5039978  63.7970014
 100.9959992 107.8139978  62.9850014 102.2039992 108.3969978  64.2090014
 102.7999992 106.6009978  63.0750014 103.3769992 107.3669978  62.5780014
 103.3289992 106.0509978  63.8400014 102.3809992 105.5889978  62.0030014
 101.3309992 106.2219978  61.0300014 101.8809992 106.9069978  60.4010014
 100.9759992 105.4729978  60.3380014 100.5499992 106.7079978  61.5950014
 103.5989992 105.3309978  61.2290014 104.3599992 104.9619978  61.9000014
 103.5399992 104.5299978  60.5070014 103.9149992 106.1269978  60.5710014
 101.8069992 104.3069978  62.6490014 100.8889992 104.5749978  63.1510014
 102.4809992 103.9869978  63.4290014 101.5699992 103.5579978  61.9070014
 100.5069992 105.6869978  66.8750014 101.3609992 108.0759978  66.7200014
 102.3649992 104.0899978  68.3460014 102.3369992 103.1929978  69.2870014
 103.1409992 102.2559978  69.4740014 101.1469992 103.3839978  70.2060014
 100.6439992 102.4359978  70.4960014 100.3949992 103.9809978  69.6480014
 101.5099992 104.0889978  71.5400014 100.5399992 104.4279978  71.9640014
 102.1269992 104.9069978  71.1090014 102.4689992 103.3279978  72.5600014
 103.3469992 102.9199978  72.0150014 101.8309992 102.6019978  73.1090014
 103.1039992 104.2239978  73.6250014 102.4999992 104.2649978  74.5560014
 103.1459992 105.2899978  73.3130014 104.5069992 103.8469978  74.0800014
 104.6619992 104.5429978  74.9320014 105.2969992 104.0299978  73.3200014
 104.7979992 102.3679978  74.5290014 105.8859992 102.3899978  74.7540014
 104.6989992 101.6569978  73.6810014 104.0489992 101.8449978  75.7450014
 104.3259992 100.7729978  75.8390014 102.9729992 101.8659978  75.4710014
 104.3019992 102.4849978  77.0650014 105.2919992 102.9529978  77.1720014
 103.5109992 102.6629978  78.0980014 103.9039992 103.1889978  78.9810014
 102.0589992 102.2189978  78.1280014 101.6159992 102.2229978  77.1090014
 101.3379992 102.7419978  78.7910014 101.8179992 100.7489978  78.5570014
 102.3419992 100.1639978  77.7710014 100.7239992 100.5679978  78.6180014
 102.3399992 100.3739978  79.9370014 103.4459992 100.4509978  79.8690014
 101.9349992  99.3579978  80.1300014 101.8579992 101.3219978  81.0580014
 100.7539992 101.4479978  81.0800014 102.2619992 102.3429978  80.8900014
 102.3019992 100.7629978  82.4650014 102.1579992  99.6789978  82.6630014
 101.6409992 101.2329978  83.2240014 103.7919992 100.9879978  82.7070014
 104.4849992 100.7699978  81.8660014 104.0559992 100.2699978  83.5120014
 104.0649992 102.3979978  83.2040014 103.7649992 103.1589978  82.4520014
 105.1549992 102.5329978  83.3710014 103.6209992 102.7909978  84.6240014
 103.7939992 101.9949978  85.3800014 102.5689992 103.1479978  84.6340014
 104.1239992 103.7359978  84.9210014  95.7389992 109.7349978  81.6010014
  95.2499992 110.5819978  82.1290014  96.3909992 109.3629978  82.4200014
  94.9609992 108.9899978  81.3300014  96.6019992 110.3959978  80.5240014
  97.2739992 111.1579978  80.9710014  97.2209992 109.5259978  80.2150014
  95.7629992 111.0409978  79.4120014  94.9179992 111.5919978  79.8780014
  96.3859992 111.6879978  78.7580014  95.0979992 110.0389978  78.4250014
  95.9349992 109.5779978  77.8600014  94.4209992 109.3239978  78.9400014
  94.0189992 110.6329978  77.4850014  93.1049992 110.9249978  78.0440014
  94.4979992 111.4059978  76.8470014  93.4849992 109.6219978  76.4280014
  94.3739992 109.0499978  76.0850014  92.8069992 108.9689978  77.0180014
  92.6379992 110.2469978  75.2780014  91.9119992 110.8359978  75.8780014
  93.3789992 110.8679978  74.7310014  91.8649992 109.2709978  74.3130014
  92.5009992 108.6499978  73.6470014  91.3249992 108.6499978  75.0590014
  90.7349992 109.9669978  73.5340014  90.0559992 109.1789978  73.1410014
  90.0439992 110.5869978  74.1450014  91.1959992 110.9289978  72.4710014
  90.3489992 111.4489978  71.9740014  91.8179992 111.7179978  72.9470014
  92.1579992 110.3889978  71.4420014  92.9269992 109.7249978  71.8900014
  91.6089992 109.7869978  70.6870014  92.9879992 111.4349978  70.6830014
  93.4089992 112.1099978  71.4600014  93.8259992 110.9139978  70.1720014
  92.2079992 112.2169978  69.5560014  92.9609992 112.9559978  69.2080014
  91.9269992 111.5829978  68.6880014  90.8659992 112.9539978  69.9220014
  90.1689992 112.0999978  70.0610014  90.9709992 113.6129978  70.8100014
  90.3759992 113.9369978  68.8520014  90.2909992 113.4569978  67.8540014
  89.3789992 114.2799978  69.2030014  91.3179992 115.1619978  68.8820014
  91.7639992 115.8599978  69.7860014  91.4929992 115.4329978  67.5850014
  92.5429992 116.3079978  67.1200014  92.1599992 116.9669978  66.3110014
  92.6839992 117.0539978  67.9310014  93.7989992 115.5389978  66.6660014
  94.5519992 116.2199978  66.2130014  93.4549992 114.4259978  65.6040014
  92.6159992 113.7299978  65.8150014  93.0329992 114.9519978  64.7200014
  94.6319992 113.6729978  65.2720014  94.8699992 112.2589978  65.7490014
  93.7959992 111.4289978  64.8480014  93.5799992 111.8439978  63.4610014
  92.6229992 111.4709978  63.0380014  93.7219992 112.9029978  63.1530014
  94.6809992 111.1689978  62.4780014  94.4289992 111.5109978  61.4850014
  95.6659992 111.5709978  62.6660014  94.8039992 109.6719978  62.5040014
  95.2819992 109.1449978  63.8950014  94.6259992 109.3399978  64.7300014
  95.6859992 108.1449978  63.8440014  96.0879992 109.7839978  64.2260014
  93.5419992 108.9369978  62.0850014  93.1299992 109.4449978  61.2260014
  93.7569992 107.8909978  61.9240014  92.7029992 109.0689978  62.7520014
  95.8959992 109.3129978  61.5780014  96.8209992 109.6929978  61.9840014
  95.7149992 109.6309978  60.5620014  96.0599992 108.2479978  61.6560014
  96.2719992 111.8269978  65.4060014  94.5089992 112.1179978  67.2300014
  94.3779992 114.8509978  67.7420014  95.1569992 115.5259978  68.5930014
  95.1959992 116.7439978  68.7060014  95.9379992 114.5569978  69.4200014
  97.0129992 114.8239978  69.3310014  95.9399992 113.4809978  69.1420014
  95.5789992 114.7809978  70.9000014  94.5589992 114.3759978  71.0710014
  95.5949992 115.8869978  71.0060014  96.6349992 114.3049978  71.9440014
  97.6219992 114.8089978  71.8710014  96.8519992 113.2169978  72.0030014
  96.0999992 114.7139978  73.4050014  95.4919992 115.6439978  73.4150014
  96.9689992 114.9029978  74.0700014  95.3209992 113.5959978  74.0660014
  95.8729992 112.6689978  74.3330014  94.5619992 113.2389978  73.3370014
  94.6599992 113.8809978  75.4590014  95.4259992 114.1149978  76.2300014
  94.1259992 112.9649978  75.7910014  93.6299992 115.0139978  75.6280014
  94.0729992 115.9169978  75.1560014  93.4649992 115.0389978  76.7270014
  92.3389992 114.5979978  74.9130014  92.4779992 113.8949978  74.0790014
  91.0909992 114.9279978  75.3180014  90.1929992 114.5049978  74.8440014
  90.7899992 115.7439978  76.5850014  90.4079992 116.7679978  76.3900014
  91.7289992 116.0579978  77.0880014  89.7569992 115.1149978  77.5540014
  88.8769992 114.9629978  76.8940014  89.4109992 115.8749978  78.2870014
  90.3189992 113.8169978  78.3360014  90.9789992 113.1989978  77.6900014
  89.4779992 113.1569978  78.6380014  91.0269992 114.0819978  79.6390014
  90.2009992 114.5149978  80.2420014  91.8929992 114.7779978  79.6190014
  91.6219992 112.8439978  80.4410014  92.2649992 112.2189978  79.7840014
  90.7749992 112.2109978  80.7790014  92.3369992 113.3799978  81.7770014
  91.6309992 113.9469978  82.4220014  93.1679992 114.0359978  81.4410014
  92.7819992 112.2219978  82.6900014  93.7729992 112.5269978  83.0910014
  92.9539992 111.3149978  82.0720014  91.8339992 111.7299978  83.8310014
  91.6429992 112.5409978  84.5650014  92.2719992 110.9389978  84.4760014
  90.8769992 111.2989978  83.4660014 104.6609992  38.3269978  84.0780014
 105.7059992  38.5039978  83.7460014 104.5069992  37.5319978  84.8390014
 104.5099992  39.2969978  84.5970014 103.6669992  38.1269978  82.9290014
 103.9019992  38.8899978  82.1560014 103.8799992  37.1639978  82.4170014
 102.1649992  38.1439978  83.1420014 101.8189992  37.1979978  83.6120014
 101.8439992  39.0139978  83.7540014 101.2879992  38.2669978  81.8710014
 101.3169992  37.2499978  81.4250014 100.2499992  38.5249978  82.1740014
 101.7109992  39.2529978  80.8080014 101.6509992  40.2649978  81.2610014
 102.7239992  39.0069978  80.4230014 100.7569992  39.1799978  79.5100014
  99.7739992  39.2309978  80.0260014 100.9859992  40.0139978  78.8130014
 100.8929992  37.9699978  78.6640014 101.8999992  37.9889978  78.1950014
 100.9069992  37.0419978  79.2750014  99.8009992  37.8779978  77.5200014
  99.6119992  36.8059978  77.2980014  98.8069992  38.2189978  77.8800014
 100.2409992  38.5679978  76.1900014 100.9429992  39.4179978  76.3290014
 100.9689992  37.9039978  75.6760014  99.0809992  38.9119978  75.3090014
  98.4999992  37.9669978  75.3550014  98.4099992  39.6859978  75.7390014
  99.4139992  39.2049978  73.7950014  99.6939992  40.2709978  73.6540014
 100.2849992  38.6109978  73.4460014  98.3579992  38.8389978  72.7320014
  98.2529992  37.7339978  72.6780014  97.4139992  39.3489978  73.0210014
  98.9749992  39.2179978  71.3210014  99.4129992  40.2329978  71.4270014
  99.7979992  38.5249978  71.0450014  98.0229992  39.0529978  70.1530014
  97.5979992  38.0399978  70.3150014  97.1119992  39.6899978  70.1820014
  98.5609992  39.0769978  68.6770014  99.5029992  38.5189978  68.4890014
  97.7399992  38.8109978  67.9780014  98.8649992  40.5559978  68.4420014
  97.9329992  41.2809978  68.1090014 100.0759992  40.9169978  68.5870014
 100.4389992  42.2559978  68.2330014  99.8759992  42.6119978  67.3440014
 100.2739992  43.0789978  68.9610014 101.9369992  42.3649978  67.8380014
 102.1669992  43.4109978  67.5400014 102.3549992  41.4159978  66.6300014
 101.7879992  41.7679978  65.7420014 103.3969992  41.6889978  66.3570014
 102.1669992  40.0199978  66.9610014 101.6109992  39.1189978  65.7740014
 102.7349992  39.2849978  64.6480014 103.9589992  38.6849978  64.8040014
 104.5329992  39.2329978  65.5810014 103.8439992  37.5949978  64.9860014
 104.8479992  38.7559978  63.5990014 105.2939992  39.7219978  63.4110014
 105.6269992  38.0259978  63.7620014 104.2429992  38.5659978  62.1890014
 103.6269992  37.1849978  62.2430014 103.2399992  36.9939978  61.2530014
 104.2999992  36.3399978  62.2760014 102.8829992  37.0449978  63.0130014
 103.2239992  39.5839978  61.7780014 102.5449992  39.5729978  62.6180014
 103.7619992  40.5209978  61.7780014 102.7959992  39.3039978  60.8260014
 105.3669992  38.6809978  61.1650014 105.1919992  39.6479978  60.7190014
 105.3929992  37.8459978  60.4800014 106.3219992  38.6489978  61.6670014
 101.5369992  37.6929978  66.2080014 100.3929992  39.7689978  65.1370014
 102.7529992  42.0419978  69.0150014 102.8699992  42.8489978  70.0540014
 102.3739992  43.9489978  70.1760014 103.6589992  42.1069978  71.1200014
 104.7209992  42.1039978  70.7960014 103.3609992  41.0369978  71.0930014
 103.5869992  42.7869978  72.4380014 102.5159992  42.7609978  72.7300014
 103.8439992  43.8499978  72.2410014 104.4889992  42.2189978  73.5970014
 105.4129992  41.9619978  73.0350014 104.1149992  41.2619978  74.0190014
 104.6079992  43.2419978  74.7810014 103.6109992  43.4589978  75.2210014
 105.1139992  44.1589978  74.4110014 105.5959992  42.6739978  75.8820014
 105.6079992  43.4719978  76.6540014 106.6239992  42.6879978  75.4610014
 105.2589992  41.3129978  76.4980014 105.9489992  41.0799978  77.3370014
 105.4079992  40.5169978  75.7380014 103.7549992  41.2299978  76.9940014
 103.6559992  40.2709978  77.5460014 103.1209992  41.2959978  76.0840014
 103.3449992  42.3289978  77.8990014 102.8219992  43.1409978  77.3730014
 103.6299992  42.4469978  79.2260014 103.3539992  43.3879978  79.7240014
 104.4219992  41.4389978  80.0630014 104.6419992  40.5179978  79.4830014
 103.9249992  41.1189978  81.0040014 105.8879992  41.8479978  80.3770014
 106.4729992  41.9459978  79.4380014 106.4559992  41.0139978  80.8410014
 105.8709992  43.1449978  81.2250014 105.5379992  44.0729978  80.7130014
 106.9319992  43.3869978  81.4470014 104.8409992  42.9689978  82.3680014
 104.8939992  41.9849978  82.8810014 103.8029992  43.1219978  82.0020014
 105.2069992  43.9489978  83.4920014 106.2609992  43.7499978  83.7800014
 104.5909992  43.6739978  84.3750014 105.0599992  45.4179978  83.2220014
 105.3559992  45.6579978  82.1790014 105.8599992  45.8569978  83.8550014
 103.7189992  46.0519978  83.6100014 103.8169992  47.1419978  83.4190014
 103.5489992  45.7059978  84.6520014 102.5089992  45.6539978  82.7370014
 102.7929992  45.6979978  81.6640014 101.6099992  46.2489978  83.0040014
 102.3369992  44.5679978  82.8940014 121.1059992  79.0969978  80.7430014
 121.5679992  78.5869978  81.6160014 121.5889992  80.0829978  80.5730014
 121.3229992  78.5409978  79.8050014 119.6559992  79.3049978  80.8880014
 119.0699992  78.3729978  81.0340014 119.5069992  79.9919978  81.7490014
 119.1339992  80.0539978  79.6160014 119.8059992  80.9249978  79.4610014
 119.1079992  79.4059978  78.7130014 117.7369992  80.6349978  79.9260014
 117.2509992  79.8059978  80.4840014 117.7839992  81.5139978  80.6030014
 116.9769992  80.9039978  78.6440014 116.7769992  79.9899978  78.0450014
 116.0379992  81.3149978  79.0730014 117.5169992  82.0949978  77.7350014
 117.3599992  83.0789978  78.2270014 118.6029992  81.8719978  77.6730014
 116.9169992  82.2789978  76.3340014 115.8479992  82.5689978  76.4140014
 117.5229992  83.0739978  75.8490014 117.0309992  80.9889978  75.4720014
 117.9419992  80.3599978  75.5640014 116.0819992  80.4319978  75.6270014
 117.1069992  81.4469978  74.0030014 116.1349992  81.8579978  73.6550014
 117.8509992  82.2679978  73.9260014 117.5769992  80.3809978  72.9930014
 117.8899992  79.5049978  73.6000014 116.7279992  79.9409978  72.4270014
 118.7169992  80.6469978  72.2380014 118.5629992  81.4569978  71.4940014
 119.5909992  80.8729978  72.8860014 119.2309992  79.3839978  71.5040014
 120.1539992  79.6659978  70.9540014 119.5989992  78.6869978  72.2870014
 118.2239992  78.7569978  70.5450014 118.9079992  78.2079978  69.8630014
 117.6559992  77.8849978  70.9360014 117.2709992  79.7309978  69.7850014
 116.2479992  79.7869978  70.2150014 117.6309992  80.7829978  69.7790014
 117.1939992  79.4289978  68.2150014 118.2439992  79.5439978  67.8700014
 116.8399992  78.3849978  68.0780014 116.2809992  80.4719978  67.6470014
 115.0839992  80.6169978  67.8340014 117.0939992  81.3589978  67.0300014
 116.5679992  82.6079978  66.7010014 115.9919992  82.6099978  65.7510014
 116.0549992  83.0449978  67.5840014 117.7829992  83.5299978  66.4150014
 117.3929992  84.5469978  66.1960014 118.6349992  83.1259978  65.2410014
 117.9179992  83.1029978  64.3930014 119.3109992  83.9559978  64.9440014
 119.3299992  81.9759978  65.5900014 120.7739992  81.7399978  65.0670014
 120.6089992  80.3919978  64.2890014 119.6619992  79.4309978  64.7420014
 119.8949992  78.4649978  64.2440014 119.6949992  79.3369978  65.8490014
 118.1939992  79.6519978  64.3150014 117.7519992  78.6999978  64.5700014
 117.7069992  80.4279978  64.8860014 117.8419992  79.9289978  62.8610014
 118.0409992  78.6639978  61.9980014 117.6259992  78.8749978  61.0240014
 119.0949992  78.5569978  61.7880014 117.5769992  77.8379978  62.5160014
 116.3689992  80.2719978  62.9620014 116.0269992  80.3919978  61.9440014
 115.7169992  79.5219978  63.3860014 116.1369992  81.1509978  63.5450014
 118.6149992  81.0399978  62.2810014 118.3579992  81.9919978  62.7200014
 118.3419992  81.0909978  61.2370014 119.6509992  80.7559978  62.3960014
 121.1299992  82.8189978  64.1400014 121.5999992  81.4879978  66.2610014
 118.6549992  83.6349978  67.6180014 119.3539992  84.7699978  67.6120014
 119.1049992  85.8089978  67.0340014 120.4829992  84.6679978  68.6750014
 121.3459992  85.2629978  68.3060014 120.7309992  83.5949978  68.8210014
 120.1389992  85.3839978  70.0350014 119.2939992  84.8179978  70.4820014
 119.8009992  86.4219978  69.8290014 121.2729992  85.2549978  71.0700014
 120.8579992  85.8979978  71.8750014 122.2179992  85.7349978  70.7370014
 121.6869992  83.9059978  71.6060014 121.8719992  83.2699978  70.7140014
 120.7949992  83.4759978  72.1090014 122.9129992  83.8989978  72.5370014
 122.8989992  84.6549978  73.3520014 123.8359992  84.0339978  71.9330014
 122.8289992  82.6459978  73.4750014 123.8649992  82.2889978  73.6540014
 122.3229992  81.8519978  72.8850014 121.9969992  82.8649978  74.7510014
 120.9629992  83.2369978  74.5820014 122.4679992  83.5909978  75.4480014
 121.8649992  81.6329978  75.5400014 121.2469992  80.9049978  74.9930014
 122.3799992  81.3489978  76.7830014 122.0409992  80.4339978  77.2920014
 123.2639992  82.3339978  77.5840014 123.6569992  83.1289978  76.9140014
 124.0539992  81.8019978  78.1560014 122.4099992  83.0999978  78.6160014
 123.0409992  83.6229978  79.3670014 121.6479992  82.4979978  79.1560014
 121.5999992  84.3339978  77.9700014 120.9619992  83.9869978  77.1290014
 122.2819992  84.9739978  77.3700014 120.8899992  85.1009978  79.0300014
 120.2109992  85.7979978  78.4930014 121.5399992  85.6659978  79.7320014
 119.9329992  84.2849978  79.9180014 120.4889992  83.6439978  80.6360014
 119.3409992  83.5739978  79.3040014 118.8789992  85.1159978  80.8160014
 119.3489992  85.7469978  81.6000014 118.4829992  84.3579978  81.5250014
 117.9049992  85.9139978  79.9880014 117.7459992  85.3869978  79.0230014
 118.3169992  86.9209978  79.7620014 116.5289992  86.1289978  80.5400014
 116.0709992  85.2229978  80.9930014 115.8889992  86.4619978  79.6960014
 116.5409992  86.8329978  81.3990014  78.1979992  28.2819978  85.7350014
  77.1779992  28.0029978  85.3950014  78.0759992  28.9969978  86.5770014
  78.6939992  27.3359978  86.0400014  79.1349992  28.9069978  84.6660014
  80.1919992  29.1469978  84.9110014  79.0219992  28.1509978  83.8590014
  78.5459992  30.1779978  84.1010014  77.4929992  29.9829978  83.8060014
  78.4399992  30.9149978  84.9260014  79.2329992  30.8949978  82.9780014
  78.8509992  31.9379978  82.9350014  80.3319992  30.9639978  83.1250014
  79.0759992  30.2219978  81.6130014  79.8249992  30.6989978  80.9450014
  79.3969992  29.1649978  81.7300014  77.7359992  30.3889978  80.8680014
  76.9099992  29.8259978  81.3530014  77.5279992  31.4799978  80.8510014
  77.7429992  29.8389978  79.4060014  76.9539992  30.2619978  78.7470014
  78.6799992  30.1169978  78.8770014  77.6079992  28.3149978  79.4060014
  77.0959992  28.0009978  80.3410014  77.0019992  27.9949978  78.5320014
  78.9059992  27.4069978  79.2660014  79.7399992  27.9749978  79.7330014
  78.6859992  26.4619978  79.8060014  79.1419992  27.0839978  77.7280014
  80.1109992  26.5399978  77.7160014  78.4049992  26.2679978  77.5650014
  79.1369992  28.2159978  76.7250014  78.1799992  28.7779978  76.6870014
  79.9199992  28.9829978  76.9060014  79.3939992  27.6429978  75.3520014
  80.4759992  27.5249978  75.1240014  79.0009992  26.6039978  75.3550014
  78.8409992  28.4999978  74.2430014  77.7949992  28.8199978  74.4360014
  79.3909992  29.4659978  74.2290014  79.0229992  27.9579978  72.8670014
  80.0619992  27.6449978  72.6280014  78.4799992  26.9989978  72.7330014
  78.7289992  29.0399978  71.7830014  77.7609992  29.5189978  72.0460014
  79.5129992  29.8239978  71.8600014  78.7039992  28.4359978  70.3970014
  79.4009992  27.5279978  69.9720014  77.6429992  28.9909978  69.8070014
  77.6249992  28.9389978  68.3830014  78.1919992  28.0739978  67.9780014
  76.5789992  29.0679978  68.0320014  78.2399992  30.1909978  67.6990014
  77.7319992  31.0369978  68.2090014  78.1419992  30.1089978  66.1280014
  77.1149992  29.7059978  65.9980014  78.3509992  31.1029978  65.6770014
  78.9509992  29.0179978  65.6530014  79.2449992  29.0259978  64.0800014
  80.1589992  30.2989978  63.9620014  81.5969992  30.1379978  64.1500014
  81.7669992  29.3789978  64.9430014  82.1679992  29.9229978  63.2210014
  82.1719992  31.5229978  64.7390014  81.6109992  31.6619978  65.6510014
  83.2219992  31.4129978  64.9630014  81.9709992  32.7539978  63.8230014
  80.5589992  33.2069978  63.9710014  80.4409992  33.8099978  64.8590014
  80.4119992  33.8139978  63.0890014  79.8069992  32.4539978  63.7900014
  82.8249992  33.8739978  64.4970014  82.6709992  34.8169978  63.9950014
  82.4299992  34.0359978  65.4890014  83.8349992  33.4969978  64.5660014
  82.4259992  32.4909978  62.3890014  83.4529992  32.1779978  62.2670014
  82.3739992  33.4139978  61.8310014  81.8199992  31.6309978  62.1440014
  79.9489992  27.7259978  63.9150014  77.9719992  29.2059978  63.3280014
  79.6009992  30.2919978  68.1460014  80.1329992  31.4509978  68.0300014
  79.5889992  32.5249978  67.6560014  81.4679992  31.3999978  68.7700014
  82.2659992  31.9959978  68.2790014  81.9309992  30.3909978  68.7250014
  81.4429992  31.7789978  70.2860014  81.0639992  30.8939978  70.8390014
  80.7169992  32.6149978  70.3770014  82.8129992  32.0429978  70.7860014
  83.2249992  32.9509978  70.2970014  83.4639992  31.1439978  70.7260014
  82.8109992  32.0339978  72.4130014  83.8859992  32.1989978  72.6410014
  82.4449992  31.0569978  72.7940014  81.8319992  33.0289978  72.9960014
  80.8099992  32.6289978  72.8190014  81.9739992  34.0419978  72.5630014
  81.8859992  33.1989978  74.4620014  82.8879992  33.6789978  74.4780014
  81.8729992  32.2519978  75.0430014  80.9559992  34.3329978  74.9640014
  81.0099992  35.1669978  74.2330014  81.3639992  34.6939978  75.9320014
  79.5009992  33.8299978  75.0770014  79.0869992  33.4609978  74.1270014
  78.6929992  33.9489978  76.1480014  77.6409992  33.6269978  76.1310014
  78.9909992  34.6439978  77.4790014  78.2139992  35.4169978  77.6610014
  79.9709992  35.1679978  77.5050014  79.0779992  33.5799978  78.5650014
  78.1119992  33.0489978  78.4230014  78.9849992  34.1049978  79.5400014
  80.3649992  32.7369978  78.6030014  80.3289992  32.1289978  77.6730014
  80.2079992  32.0249978  79.4410014  81.7929992  33.3329978  78.8130014
  81.7819992  34.4209978  79.0370014  82.5499992  33.1869978  78.0120014
  82.4019992  32.5919978  80.0570014  82.1959992  31.5079978  79.9240014
  81.7849992  32.8629978  80.9400014  83.8589992  33.0399978  80.2360014
  83.9299992  34.1369978  80.3980014  84.4519992  32.8389978  79.3180014
  84.4649992  32.3559978  81.5030014  83.8579992  32.5979978  82.4010014
  85.4609992  32.8389978  81.6040014  84.7949992  30.7999978  81.3800014
  85.6479992  30.5739978  80.7060014  83.8479992  30.3879978  80.9700014
  85.1609992  30.2989978  82.3010014  87.1459992 114.2699978  84.6640014
  87.9279992 113.8349978  84.0050014  86.4039992 113.4729978  84.8840014
  87.6519992 114.4859978  85.6300014  86.3689992 115.4609978  84.1270014
  85.5869992 115.2819978  83.3580014  85.8469992 115.7919978  85.0510014
  87.3669992 116.4969978  83.5300014  87.9829992 116.8919978  84.3660014
  88.0429992 115.9349978  82.8500014  86.6769992 117.7289978  82.8250014
  86.3629992 118.4909978  83.5700014  87.3589992 118.3069978  82.1660014
  85.4729992 117.4339978  81.8930014  84.8149992 117.0519978  82.7020014
  85.1239992 118.4539978  81.6250014  85.7069992 116.4129978  80.8200014
  86.1259992 115.5069978  81.3070014  84.6879992 116.2149978  80.4240014
  86.5479992 117.0559978  79.7040014  87.2759992 117.8129978  80.0660014
  87.0809992 116.2089978  79.2210014  85.5739992 117.6949978  78.7160014
  84.8599992 116.9059978  78.3950014  84.9409992 118.4229978  79.2670014
  86.3139992 118.3229978  77.5420014  85.6839992 119.1719978  77.2030014
  87.3119992 118.7409978  77.7950014  86.4039992 117.4599978  76.2960014
  87.2039992 117.9099978  75.6690014  86.7849992 116.4329978  76.4800014
  85.1189992 117.3059978  75.3850014  84.4449992 118.1729978  75.5540014
  85.3589992 117.3539978  74.3020014  84.2509992 116.0629978  75.6020014
  84.7759992 115.1419978  75.2680014  84.0629992 115.9779978  76.6930014
  82.8519992 116.0639978  74.9610014  82.3429992 115.1119978  75.2260014
  82.2709992 116.8989978  75.4070014  82.8549992 116.1489978  73.4520014
  81.8079992 116.1579978  73.0830014  83.0829992 117.2099978  73.2130014
  83.6889992 115.1149978  72.6390014  84.7759992 115.3159978  72.7550014
  83.5149992 114.0689978  72.9700014  83.3619992 115.1899978  71.1490014
  82.4399992 115.8169978  70.6610014  84.1919992 114.3509978  70.5490014
  83.8369992 114.1369978  69.1960014  84.1579992 113.1089978  68.9240014
  82.7629992 114.2439978  68.9350014  84.6259992 115.0909978  68.3070014
  84.2649992 116.0859978  68.6460014  84.4379992 114.8209978  66.8720014
  85.1539992 113.9949978  66.6710014  83.4049992 114.4829978  66.6420014
  84.6599992 115.8929978  66.0220014  84.6949992 115.6389978  64.4170014
  86.0969992 114.8059978  64.1890014  87.3819992 115.3879978  64.5220014
  87.3709992 116.4489978  64.1930014  87.4979992 115.2699978  65.6210014
  88.4859992 114.6999978  63.7040014  88.2619992 115.1099978  62.7300014
  89.5059992 114.8949978  64.0010014  88.4559992 113.1609978  63.6040014
  87.3349992 112.7619978  62.6830014  86.4699992 112.9669978  63.2960014
  87.3379992 113.3749978  61.7940014  87.4399992 111.7409978  62.3500014
  89.6819992 112.8149978  62.8790014  90.5739992 112.9649978  63.4690014
  89.5909992 111.7789978  62.5890014  89.7979992 113.4089978  61.9850014
  88.4369992 112.4279978  64.8740014  89.3849992 112.6089978  65.3590014
  88.2669992 111.3889978  64.6350014  87.7379992 112.8349978  65.5890014
  83.5769992 114.8089978  63.8930014  84.9119992 116.9439978  63.7170014
  85.9949992 114.9589978  68.6230014  86.8909992 115.9219978  68.3760014
  86.6449992 117.0449978  67.9700014  88.2689992 115.2989978  68.5980014
  88.4719992 114.5159978  67.8360014  88.2009992 114.7709978  69.5730014
  89.4179992 116.3329978  68.6620014  89.0739992 117.2029978  69.2600014
  89.5469992 116.7589978  67.6440014  90.7089992 115.6979978  69.2490014
  91.5219992 115.9069978  68.5210014  90.6719992 114.5899978  69.1770014
  91.0459992 116.1179978  70.6790014  91.1659992 117.2109978  70.8330014
  91.8769992 115.5279978  71.1230014  89.8719992 115.6919978  71.6010014
  89.5009992 114.6729978  71.3590014  89.0989992 116.4689978  71.4250014
  90.1139992 115.9389978  73.1390014  90.3479992 117.0099978  73.3180014
  90.9819992 115.3309978  73.4730014  88.9389992 115.4319978  74.1110014
  88.1449992 116.2099978  74.1380014  89.4189992 115.4159978  75.1120014
  88.2889992 114.1579978  73.7130014  87.4939992 114.3049978  72.9670014
  88.4109992 112.9009978  74.0990014  87.8909992 112.0829978  73.5800014
  89.3349992 112.3299978  75.1870014  89.9379992 113.1799978  75.5720014
  90.0089992 111.4999978  74.8840014  88.5039992 111.8239978  76.4230014
  89.1089992 111.0239978  76.9020014  87.6849992 111.1379978  76.1190014
  87.8799992 112.8889978  77.3060014  87.0309992 113.3649978  76.7690014
  88.6759992 113.6559978  77.4170014  87.5169992 112.4309978  78.7140014
  87.9279992 113.1629978  79.4420014  87.9389992 111.4419978  78.9950014
  85.9979992 112.2409978  78.7870014  85.6749992 111.4719978  78.0530014
  85.5179992 113.2319978  78.6430014  85.4369992 111.7639978  80.2090014
  85.9259992 112.4139978  80.9660014  85.7089992 110.7159978  80.4580014
  83.8479992 111.8269978  80.3330014  83.4689992 111.1319978  79.5540014
  83.3299992 112.7859978  80.1160014  83.3359992 111.3969978  81.6830014
  83.7309992 110.3979978  81.9670014  82.2269992 111.4659978  81.6640014
  83.7689992 112.1429978  82.3830014 117.4859992  74.0989978  80.2800014
 117.2659992  75.1819978  80.1680014 118.5519992  74.0329978  80.5860014
 116.8369992  73.6909978  81.0840014 117.3699992  73.3909978  79.0050014
 117.5369992  72.3239978  79.2680014 116.4219992  73.6159978  78.4730014
 118.4059992  73.6159978  77.9170014 118.1229992  74.4009978  77.1830014
 119.2749992  74.0979978  78.4130014 118.7919992  72.4089978  77.0860014
 119.7539992  72.6999978  76.6120014 118.9339992  71.5179978  77.7340014
 117.7159992  72.1749978  76.0180014 116.8519992  71.8639978  76.6430014
 117.5199992  73.1429978  75.5090014 118.0579992  71.0899978  75.0070014
 118.3739992  70.2069978  75.6030014 117.1339992  70.9289978  74.4120014
 119.2469992  71.3809978  74.1060014 119.2889992  72.3939978  73.6520014
 120.1079992  71.3939978  74.8070014 119.4709992  70.2969978  73.0270014
 119.5709992  69.3139978  73.5340014 118.5639992  70.1649978  72.3990014
 120.6829992  70.5309978  72.1370014 121.5389992  70.1629978  72.7420014
 120.7579992  70.0819978  71.1230014 121.1169992  71.9729978  71.8870014
 121.2269992  72.5489978  72.8300014 122.0739992  71.9829978  71.3230014
 120.0989992  72.7559978  71.0310014 119.3179992  73.0839978  71.7500014
 120.6209992  73.5139978  70.4090014 119.2889992  71.9289978  69.9990014
 119.9659992  71.6819978  69.1540014 118.7679992  71.0219978  70.3740014
 118.2099992  72.8369978  69.2240014 117.6279992  72.1139978  68.6140014
 117.6459992  73.4499978  69.9580014 118.8209992  73.8559978  68.2380014
 119.8189992  74.1049978  68.6570014 119.0009992  73.3309978  67.2750014
 117.8339992  75.0149978  67.9930014 116.9339992  74.7649978  67.3920014
 117.3029992  75.3429978  68.9120014 118.5679992  76.2039978  67.4050014
 118.5089992  77.3929978  67.7660014 119.2689992  75.7599978  66.3570014
 120.1679992  76.6699978  65.7710014 119.7539992  77.2239978  64.9010014
 120.4699992  77.4929978  66.4540014 121.4179992  76.0169978  65.0960014
 122.1779992  76.7739978  64.8050014 121.0179992  75.2489978  63.7290014
 120.5159992  75.9629978  63.0410014 121.8499992  74.8329978  63.1220014
 120.0309992  74.2549978  64.0750014 119.0169992  73.6149978  63.0730014
 119.6919992  72.1519978  62.9250014 119.1899992  71.1179978  63.7720014
 118.1389992  71.2619978  64.1010014 119.1229992  70.2369978  63.0980014
 119.9579992  70.9159978  65.0590014 119.8269992  71.7219978  65.7660014
 119.4049992  70.1439978  65.5740014 121.3729992  70.6669978  65.0120014
 121.8379992  70.4639978  66.3960014 121.5819992  71.2649978  67.0740014
 121.3949992  69.5589978  66.7820014 122.9099992  70.3349978  66.4220014
 121.7649992  69.4729978  64.1490014 121.1249992  68.6299978  64.3630014
 121.5239992  69.6449978  63.1100014 122.7909992  69.2859978  64.4310014
 122.1579992  71.7989978  64.4250014 123.1959992  71.5289978  64.5590014
 121.8389992  72.6209978  65.0490014 121.8859992  71.9449978  63.3900014
 117.7029992  73.6679978  63.7910014 119.1239992  74.3949978  61.8300014
 122.0279992  75.2339978  66.1020014 123.2979992  74.8309978  65.9110014
 123.9829992  74.9509978  64.8730014 123.8889992  74.4339978  67.2270014
 124.5709992  73.6119978  66.9210014 123.0409992  74.0239978  67.8160014
 124.5409992  75.5889978  67.9890014 125.3779992  75.8989978  67.3280014
 125.0019992  75.3149978  68.9610014 123.6439992  76.7899978  68.3070014
 123.1189992  77.2689978  67.4530014 124.2649992  77.5429978  68.8380014
 122.6859992  76.3329978  69.3390014 123.2539992  75.7439978  70.0910014
 122.0119992  75.6429978  68.7880014 121.8259992  77.3899978  70.0010014
 121.5559992  78.0569978  69.1550014 122.5139992  77.9579978  70.6640014
 120.6369992  76.8099978  70.8270014 121.0949992  76.1619978  71.6040014
 120.1529992  76.1829978  70.0470014 119.7419992  77.8429978  71.5450014
 119.2249992  78.3769978  70.7190014 120.4159992  78.5239978  72.1070014
 118.7549992  77.0499978  72.4360014 117.8419992  76.7409978  71.9060014
 118.9349992  76.4959978  73.6220014 118.1489992  75.8239978  73.9960014
 120.1049992  76.4649978  74.5220014 119.8229992  76.8629978  75.5210014
 120.9879992  77.0409978  74.1700014 120.7069992  75.0509978  74.6020014
 120.7909992  74.6719978  73.5610014 119.9339992  74.3269978  74.9370014
 122.1629992  74.9359978  75.1260014 122.6619992  75.8469978  74.7310014
 122.6569992  74.0879978  74.6050014 122.1909992  74.7679978  76.6030014
 121.8679992  73.7149978  76.7450014 121.5019992  75.5519978  76.9820014
 123.5939992  74.9619978  77.3070014 123.6479992  76.0289978  77.6110014
 124.4209992  74.7519978  76.5950014 123.6579992  74.2099978  78.6500014
 124.6619992  74.3879978  79.0900014 123.6149992  73.1429978  78.3440014
 122.5839992  74.5069978  79.7020014 121.5849992  74.4429978  79.2190014
 122.8079992  75.5629978  79.9620014 122.6439992  73.7649978  81.0470014
 122.3229992  74.4119978  81.8920014 123.6439992  73.6039978  81.5050014
 121.9699992  72.8959978  80.8890014  69.4969992  30.6869978  84.4760014
  68.5219992  31.0309978  84.8840014  69.9879992  31.5749978  84.0240014
  70.1789992  30.4489978  85.3200014  69.3609992  29.5789978  83.5870014
  70.3259992  29.4449978  83.0530014  69.1149992  28.6269978  84.1040014
  68.1669992  29.8319978  82.5950014  67.2849992  29.6919978  83.2560014
  68.2689992  30.8719978  82.2170014  68.1839992  28.8689978  81.3490014
  68.4869992  29.3109978  80.3760014  68.9649992  28.1579978  81.6930014
  66.9029992  28.0809978  81.2710014  66.5179992  27.8049978  82.2760014
  66.2059992  28.7429978  80.7140014  67.0169992  26.7329978  80.4900014
  67.5989992  25.9879978  81.0740014  65.9849992  26.3219978  80.5190014
  67.5999992  26.8579978  79.1130014  68.5419992  27.4429978  79.1790014
  67.7999992  25.8919978  78.6020014  66.5629992  27.6349978  78.2360014
  65.6369992  27.0709978  77.9930014  66.2389992  28.5269978  78.8140014
  67.2929992  28.0219978  76.9680014  68.1539992  28.6019978  77.3620014
  67.8129992  27.1279978  76.5610014  66.5819992  28.6769978  75.7610014
  66.1069992  27.8189978  75.2390014  65.8219992  29.4679978  75.9380014
  67.5549992  29.3919978  74.8190014  67.6239992  30.4299978  75.2100014
  68.5519992  28.9039978  74.8790014  67.1669992  29.4419978  73.3510014
  66.1789992  29.9509978  73.3360014  67.8319992  30.1639978  72.8320014
  67.0359992  28.0729978  72.6530014  66.3209992  27.4119978  73.1870014
  66.5939992  28.2929978  71.6580014  68.3359992  27.1879978  72.5750014
  69.2819992  27.6239978  72.1900014  68.4479992  26.8569978  73.6300014
  68.0439992  25.9259978  71.6560014  68.8439992  25.1819978  71.8560014
  67.1499992  25.3079978  71.8870014  68.2449992  26.3619978  70.1690014
  68.8179992  27.3639978  69.7900014  67.5439992  25.4879978  69.4810014
  67.4929992  25.7299978  68.0220014  68.3519992  26.3359978  67.6630014
  67.5419992  24.7539978  67.4930014  66.0319992  26.3019978  67.6870014
  65.3279992  25.5699978  68.1380014  65.7339992  26.4369978  66.1400014
  66.5019992  26.0039978  65.4640014  64.7679992  25.9669978  65.8600014
  65.4849992  27.8069978  65.8390014  66.6079992  28.7759978  65.2920014
  66.2029992  28.9419978  63.7840014  64.8799992  29.2439978  63.3650014
  64.8679992  29.1449978  62.2590014  64.1759992  28.4619978  63.7200014
  64.3729992  30.7289978  63.6650014  63.3319992  30.6489978  63.3890014
  64.3839992  30.8039978  64.7420014  65.0519992  31.9599978  62.9890014
  64.8349992  31.9599978  61.5120014  63.8039992  31.8279978  61.2170014
  65.3719992  32.7329978  60.9820014  65.2289992  31.0609978  61.0620014
  64.4579992  33.2389978  63.4730014  64.5429992  33.2419978  64.5500014
  64.9189992  34.0889978  62.9910014  63.3969992  33.2749978  63.2770014
  66.5219992  31.8139978  63.1970014  66.6239992  31.5879978  64.2490014
  66.9299992  32.7799978  62.9430014  66.8809992  30.9239978  62.7020014
  66.6289992  30.0329978  66.0160014  67.9049992  28.0659978  65.3720014
  65.9339992  27.5619978  68.3570014  64.6549992  28.0439978  68.6410014
  63.7039992  27.2529978  68.5350014  64.7249992  29.4769978  69.1410014
  65.1249992  30.0999978  68.3120014  65.4209992  29.4999978  70.0070014
  63.3529992  29.8139978  69.8270014  62.5119992  29.6819978  69.1140014
  63.4589992  30.9149978  69.9310014  63.3219992  29.0279978  71.1320014
  64.1389992  29.3519978  71.8120014  63.5089992  27.9639978  70.8720014
  61.9969992  29.2089978  71.8670014  61.2279992  28.8389978  71.1560014
  61.8129992  30.2999978  71.9670014  61.9419992  28.5029978  73.2390014
  60.8899992  28.5169978  73.5960014  62.5099992  29.1269978  73.9620014
  62.4139992  27.0779978  73.2970014  63.3949992  27.0069978  72.7800014
  61.5889992  26.5019978  72.8260014  62.7229992  26.5749978  74.7670014
  63.3829992  27.2829978  75.3110014  63.3499992  25.6589978  74.7290014
  61.4569992  26.2199978  75.5280014  60.9309992  25.3269978  75.1560014
  60.9049992  26.8449978  76.5840014  59.9989992  26.4319978  77.0510014
  61.3259992  28.0809978  77.2660014  61.8119992  28.7149978  76.4930014
  62.1809992  27.8229978  77.9260014  60.2949992  28.9749978  77.9100014
  59.5919992  28.3839978  78.5330014  59.6719992  29.5349978  77.1810014
  60.8359992  30.2269978  78.7260014  60.0199992  30.8619978  79.1340014
  61.4369992  30.9149978  78.0940014  61.6849992  29.8269978  79.8610014
  62.6879992  29.4609978  79.5540014  61.1699992  29.0559978  80.4740014
  62.0269992  30.9119978  80.9050014  61.0759992  31.3629978  81.2610014
  62.5399992  31.7459978  80.3800014  62.9039992  30.3899978  82.0650014
  63.1169992  31.2819978  82.6910014  63.8229992  29.9749978  81.6000014
  62.4929992  29.2939978  83.0900014  62.0899992  28.3839978  82.5980014
  61.6469992  29.7269978  83.6650014  63.6109992  28.8609978  84.1050014
  63.3259992  28.1519978  84.9110014  63.9709992  29.7779978  84.6190014
  64.3659992  28.4759978  83.3860014 115.3339992  89.8449978  82.5110014
 114.4769992  90.0409978  81.8320014 115.6759992  90.7869978  82.9900014
 115.1429992  89.0849978  83.2980014 116.4599992  89.3709978  81.5610014
 116.5689992  90.1929978  80.8220014 117.3509992  89.2229978  82.2080014
 116.0159992  88.1099978  80.7200014 115.6179992  87.3679978  81.4450014
 115.0779992  88.3949978  80.1980014 117.1519992  87.7229978  79.7140014
 117.3789992  88.6219978  79.1030014 118.0499992  87.4279978  80.2980014
 116.5679992  86.7239978  78.7040014 116.3129992  85.7059978  79.0670014
 115.6269992  87.2239978  78.3910014 117.4379992  86.5309978  77.4610014
 116.8819992  85.9369978  76.7040014 117.5979992  87.5299978  77.0020014
 118.8529992  85.9779978  77.7490014 119.4199992  86.7479978  78.3150014
 118.8269992  85.0359978  78.3370014 119.6469992  85.6789978  76.4980014
 120.5109992  85.1349978  76.9360014 118.9869992  85.0159978  75.8970014
 119.8259992  86.9199978  75.6120014 118.8039992  87.2289978  75.3060014
 120.2949992  87.7129978  76.2330014 120.7629992  86.7559978  74.3740014
 121.7809992  86.6619978  74.8090014 120.5529992  85.8219978  73.8090014
 120.6809992  87.9209978  73.4170014 119.7819992  87.8969978  72.7650014
 120.5589992  88.8379978  74.0330014 121.8999992  88.0529978  72.5280014
 122.7759992  87.8809978  73.1880014 121.8599992  87.2339978  71.7780014
 121.8519992  89.5119978  71.9920014 121.0539992  89.6609978  71.2340014
 121.5919992  90.2579978  72.7730014 123.2039992  89.8759978  71.2490014
 123.3939992  90.9559978  71.4280014 124.0939992  89.3389978  71.6420014
 123.0529992  89.6589978  69.7130014 122.2309992  90.2619978  69.2710014
 124.0239992  90.0479978  69.3390014 123.0829992  88.1619978  69.2860014
 123.4719992  87.1619978  69.9400014 122.5179992  88.1219978  68.0990014
 122.2279992  86.8839978  67.4200014 122.8599992  86.8589978  66.5060014
 122.5129992  86.0189978  68.0550014 120.7679992  86.7689978  66.9910014
 120.8059992  85.7729978  66.5010014 120.4409992  87.7399978  65.8630014
 121.3419992  87.8669978  65.2260014 119.5739992  87.3139978  65.3140014
 120.1069992  89.0609978  66.3810014 119.5719992  90.1819978  65.4770014
 118.6169992  89.3819978  64.4810014 117.9739992  90.0819978  63.4440014
 117.2069992  90.7439978  63.8990014 118.7009992  90.7599978  62.9480014
 117.4959992  89.0419978  62.4270014 117.0499992  89.6309978  61.6390014
 118.3309992  88.5429978  61.9570014 116.4569992  88.0009978  62.8190014
 117.0209992  87.1549978  63.8610014 116.9319992  87.7759978  64.7400014
 116.5459992  86.2209978  64.1230014 118.0499992  86.8519978  63.7360014
 115.1429992  88.7479978  63.0970014 115.3069992  89.4419978  63.9090014
 114.9289992  89.2589978  62.1700014 114.3339992  88.0739978  63.3350014
 116.2969992  87.2079978  61.4750014 116.6679992  87.8249978  60.6700014
 115.2479992  87.2269978  61.2210014 116.8009992  86.2529978  61.4800014
 118.6609992  91.0349978  66.2680014 120.7179992  90.8009978  64.7760014
 119.9989992  86.9269978  68.2320014 118.6939992  86.5669978  68.1160014
 118.1829992  86.0799978  67.1530014 117.9059992  86.9419978  69.4290014
 118.6409992  87.3409978  70.1600014 117.3679992  86.0899978  69.8960014
 116.7619992  87.9389978  69.1020014 116.1789992  87.9789978  70.0470014
 116.0349992  87.6429978  68.3160014 117.1749992  89.3649978  68.7900014
 116.3379992  89.9519978  68.3540014 118.0629992  89.4069978  68.1230014
 117.5179992  90.1489978  70.0980014 118.1989992  89.5139978  70.7050014
 116.5439992  90.2659978  70.6190014 117.9569992  91.5659978  70.0210014
 117.5529992  92.2299978  69.2280014 119.0069992  91.6129978  69.6630014
 117.9179992  92.4639978  71.3500014 116.9119992  92.5139978  71.8180014
 118.1259992  93.5359978  71.1490014 119.0659992  92.0089978  72.3630014
 120.0249992  91.9419978  71.8060014 118.7979992  90.9429978  72.5240014
 118.9449992  92.9719978  73.5750014 118.9609992  94.0419978  73.3220014
 118.5029992  92.7019978  74.8400014 118.4709992  93.5289978  75.5640014
 117.9969992  91.3169978  75.2520014 117.7949992  90.6499978  74.3870014
 117.0149992  91.3819978  75.7660014 119.0849992  90.5829978  76.1150014
 119.9879992  90.3819978  75.5000014 118.7499992  89.6109978  76.5360014
 119.6519992  91.3129978  77.2230014 118.8469992  91.5449978  77.9540014
 120.0789992  92.2609978  76.8330014 120.8669992  90.7869978  77.9560014
 121.3319992  91.5349978  78.6330014 121.6199992  90.4639978  77.2050014
 120.7129992  89.4289978  78.7270014 120.9589992  88.6109978  78.0170014
 119.6539992  89.2459978  79.0080014 121.6549992  89.2249978  79.9330014
 122.6749992  89.2219978  79.4940014 121.4779992  88.2279978  80.3890014
 121.5849992  90.3039978  81.0740014 122.1319992  91.1959978  80.7000014
 122.1539992  89.8659978  81.9220014 120.1999992  90.6329978  81.4750014
 119.5129992  90.9969978  80.6810014 120.2239992  91.3459978  82.3260014
 119.8149992  89.6749978  81.8850014 111.1089992  43.3519978  83.0220014
 112.1419992  43.0159978  83.2570014 110.4389992  43.0779978  83.8650014
 111.1889992  44.4599978  82.9930014 110.4819992  42.7159978  81.7770014
 110.3839992  41.6289978  81.9850014 109.4519992  43.1239978  81.6880014
 111.2069992  42.9719978  80.4150014 111.6019992  44.0079978  80.4790014
 112.1319992  42.4159978  80.1490014 110.3759992  42.7739978  79.1590014
 109.9269992  41.7599978  79.2230014 109.6339992  43.5989978  79.1220014
 111.1219992  42.8719978  77.8580014 111.6089992  43.8419978  77.6210014
 111.9659992  42.1509978  77.8390014 110.1829992  42.6349978  76.6210014
 110.7709992  42.8269978  75.6980014 109.8619992  41.5709978  76.6090014
 108.8759992  43.4559978  76.4900014 108.1429992  43.1699978  77.2750014
 109.1039992  44.5409978  76.4200014 108.1579992  43.0779978  75.1490014
 108.8789992  42.8419978  74.3380014 107.6249992  42.1449978  75.4300014
 107.1009992  44.0919978  74.6430014 106.4529992  43.5749978  73.9020014
 106.4039992  44.3989978  75.4520014 107.7569992  45.3179978  74.1270014
 108.2759992  45.7589978  75.0050014 108.4439992  44.8549978  73.3860014
 107.0189992  46.5069978  73.5140014 106.6269992  47.0699978  74.3880014
 107.7459992  47.2859978  73.2020014 105.8879992  46.2029978  72.4560014
 105.2839992  45.3459978  72.8240014 105.1909992  47.0329978  72.2120014
 106.5809992  45.8559978  71.1340014 107.1339992  44.8979978  71.2440014
 105.6599992  45.6969978  70.5340014 107.4219992  47.0209978  70.5720014
 106.7499992  47.8309978  70.2160014 108.1189992  47.4639978  71.3150014
 108.3009992  46.6449978  69.2870014 109.0409992  45.8399978  69.4840014
 107.4909992  46.3579978  68.5820014 109.0939992  47.8359978  68.6570014
 110.0729992  48.2719978  69.2080014 108.5169992  48.2939978  67.5600014
 109.1069992  49.4039978  66.8420014 108.3419992  50.0129978  66.3150014
 109.6939992  50.0719978  67.5090014 109.9409992  48.6899978  65.6940014
 110.2749992  49.3939978  64.9020014 109.0419992  47.7559978  64.8560014
 108.6049992  46.8739978  65.3720014 108.1849992  48.3979978  64.5600014
 109.8039992  47.4559978  63.7290014 109.2929992  46.6529978  62.5080014
 109.8779992  45.1829978  62.8550014 108.9819992  44.3659978  63.7040014
 108.3649992  44.9689978  64.4040014 108.1949992  43.8959978  63.0770014
 109.7199992  43.2729978  64.5880014 108.9479992  42.7469978  65.1300014
 110.2369992  42.6239978  63.8980014 110.8119992  43.6759978  65.5830014
 111.3119992  42.4139978  66.2970014 110.5199992  41.9069978  66.8270014
 111.7929992  41.7469978  65.5970014 111.9009992  42.6929978  67.1590014
 112.0189992  44.3649978  64.8900014 111.6879992  45.2909978  64.4420014
 112.7279992  44.5969978  65.6710014 112.3819992  43.6869978  64.1320014
 110.1569992  44.5389978  66.6410014 111.0009992  44.8899978  67.2150014
 109.6219992  43.8319978  67.2580014 109.5149992  45.3539978  66.3390014
 107.7599992  46.6779978  62.4350014 110.0049992  47.0669978  61.2760014
 111.0699992  47.9269978  66.2440014 111.9929992  48.5569978  66.9640014
 112.0379992  49.8009978  67.0090014 112.9959992  47.5749978  67.3350014
 113.7809992  47.6649978  66.5550014 112.6009992  46.5379978  67.3880014
 113.5129992  47.8869978  68.7880014 112.6239992  48.1059978  69.4170014
 114.0049992  48.8809978  68.8460014 114.3559992  46.8369978  69.5740014
 114.7369992  47.3229978  70.4970014 115.1109992  46.5109978  68.8270014
 113.4529992  45.6159978  70.0480014 114.0899992  44.7509978  70.3290014
 112.9059992  45.1399978  69.2060014 112.4409992  45.9679978  71.2380014
 111.5759992  46.5009978  70.7890014 113.0249992  46.5029978  72.0170014
 111.8839992  44.6829978  71.9920014 112.6839992  43.9279978  72.1500014
 111.1349992  44.3749978  71.2310014 111.1789992  45.0059978  73.3030014
 110.7569992  44.0589978  73.7020014 110.3549992  45.7349978  73.1470014
 112.1229992  45.5809978  74.3710014 113.1079992  45.0949978  74.4320014
 111.9489992  46.6679978  75.1220014 112.8009992  46.9899978  75.7390014
 110.7609992  47.6759978  75.1030014 109.9669992  47.3159978  75.7920014
 110.3489992  47.6699978  74.0710014 111.1369992  49.1239978  75.5700014
 111.8509992  49.4919978  74.8020014 111.7579992  49.0159978  76.4850014
 109.8329992  49.9469978  75.6840014 109.1369992  49.6549978  74.8690014
 110.1019992  51.0239978  75.6960014 109.1189992  49.7779978  77.0110014
 109.1089992  48.6849978  77.2050014 108.0659992  50.1139978  76.8990014
 109.8649992  50.3999978  78.2440014 110.1329992  51.4549978  78.0190014
 110.8549992  49.9079978  78.3490014 108.9989992  50.4139978  79.5330014
 108.2889992  51.2189978  79.2460014 109.7079992  50.9009978  80.2370014
 108.4349992  49.0439978  79.9700014 107.7459992  48.7969978  79.1350014
 107.8189992  49.3189978  80.8530014 109.4659992  47.8999978  80.2570014
 109.9419992  47.5329978  79.3230014 108.9789992  47.0289978  80.7450014
 110.1409992  48.2579978  81.0630014  96.2699992  31.9509978  82.4560014
  95.2279992  32.0079978  82.8390014  96.6369992  32.9409978  82.8030014
  96.6909992  31.1659978  83.1200014  96.3249992  31.7649978  80.9200014
  97.3739992  31.5259978  80.6440014  95.6629992  30.9399978  80.5800014
  95.9759992  33.0039978  80.1010014  94.8999992  33.1379978  80.3440014
  96.4759992  33.9039978  80.5180014  96.2319992  32.7299978  78.5540014
  97.3159992  32.9329978  78.4210014  95.9519992  31.6729978  78.3570014
  95.5669992  33.7139978  77.6260014  94.5149992  33.8209978  77.9670014
  95.8589992  34.7849978  77.6750014  95.5699992  33.2509978  76.1830014
  95.0569992  34.0099978  75.5540014  96.6399992  33.0689978  75.9460014
  94.7029992  32.0219978  75.8250014  95.0499992  31.1399978  76.4060014
  93.6819992  32.3379978  76.1300014  94.7369992  31.6379978  74.3740014
  93.8959992  30.9349978  74.1970014  94.5429992  32.4839978  73.6800014
  96.0589992  31.0009978  73.8500014  96.9549992  31.5109978  74.2630014
  96.1059992  29.9039978  74.0240014  96.3189992  31.3659978  72.3120014
  96.3909992  32.4609978  72.1450014  97.3459992  30.9669978  72.1710014
  95.1649992  30.7479978  71.3670014  94.2449992  31.3379978  71.5660014
  95.4289992  30.9879978  70.3140014  94.9369992  29.2069978  71.6080014
  95.8889992  28.6369978  71.5440014  94.6889992  29.0259978  72.6760014
  93.8419992  28.6779978  70.6830014  94.3929992  28.2489978  69.8190014
  93.4149992  27.8379978  71.2720014  92.4939992  29.3019978  70.3100014
  91.8119992  28.4709978  70.0320014  92.2529992  29.9489978  71.1810014
  92.6569992  30.0849978  69.0180014  93.6209992  30.6279978  69.1120014
  92.7119992  29.3859978  68.1560014  91.5209992  31.0559978  68.7770014
  90.3579992  30.9059978  69.0400014  92.0519992  32.0419978  67.9820014
  91.0849992  33.0789978  67.6500014  90.2009992  32.6569978  67.1250014
  90.5499992  33.4629978  68.5440014  91.7019992  34.1649978  66.8290014
  90.9129992  34.9419978  66.7480014  92.1589992  33.6509978  65.4210014
  92.4769992  32.5869978  65.4510014  91.2839992  33.8729978  64.7740014
  93.0949992  34.5649978  65.0200014  93.9419992  34.2329978  63.6850014
  94.7969992  33.0329978  64.2720014  95.8189992  33.2829978  65.2620014
  96.1699992  34.3339978  65.1790014  95.3829992  33.1279978  66.2710014
  96.9819992  32.2809978  65.2160014  97.5589992  32.4589978  66.1120014
  96.5849992  31.3209978  65.5110014  97.8269992  31.9739978  64.0770014
  97.0999992  31.6049978  62.8190014  96.4979992  30.7399978  63.0520014
  96.4429992  32.4229978  62.5600014  97.7729992  31.3989978  62.0000014
  98.5079992  33.2539978  63.7390014  97.8109992  33.9779978  63.3440014
  98.9509992  33.6179978  64.6540014  99.1649992  33.1869978  62.8840014
  98.7029992  30.8549978  64.4350014  99.2009992  30.9919978  65.3840014
  99.2929992  30.4769978  63.6130014  98.1329992  29.9769978  64.7010014
  93.1189992  33.8209978  62.5120014  94.8239992  35.3869978  63.4690014
  92.8029992  34.7069978  67.5520014  92.5839992  35.5699978  68.5600014
  91.5609992  36.1849978  68.8120014  93.8869992  35.6749978  69.3280014
  93.9869992  36.5069978  70.0560014  94.6799992  35.8559978  68.5710014
  94.0679992  34.3889978  70.0810014  95.1459992  34.3639978  70.3510014
  93.8899992  33.5069978  69.4290014  93.2549992  34.3529978  71.4500014
  93.5079992  35.2749978  72.0180014  93.7129992  33.5689978  72.0900014
  91.7129992  34.1279978  71.4020014  91.4699992  33.1439978  70.9480014
  91.3249992  34.9609978  70.7770014  91.0899992  34.3889978  72.7310014
  90.0319992  34.0659978  72.6230014  91.0879992  35.4769978  72.9560014
  91.7069992  33.6569978  73.8260014  92.7449992  33.9159978  74.1240014
  91.8389992  32.5799978  73.5830014  90.9249992  33.6939978  75.1000014
  91.4919992  33.0799978  75.8320014  89.9349992  33.2439978  74.8730014
  90.5439992  35.1389978  75.5790014  89.9029992  35.7289978  74.9080014
  90.7449992  35.7799978  76.7290014  90.2709992  36.7319978  77.0110014
  91.4619992  35.3179978  77.9250014  91.6589992  36.2479978  78.4990014
  92.4679992  34.9369978  77.6460014  90.7629992  34.1839978  78.7150014
  90.6289992  33.2879978  78.0720014  89.7889992  34.6269978  79.0170014
  91.4919992  33.7119978  80.0080014  91.7209992  34.6089978  80.6210014
  92.4399992  33.2399978  79.6690014  90.6819992  32.6659978  80.7210014
  90.8039992  31.6419978  80.3090014  89.6409992  33.0519978  80.6670014
  90.9329992  32.6369978  82.2130014  91.8699992  32.1709978  82.5890014
  90.1709992  31.9359978  82.6160014  90.6479992  33.9469978  83.0190014
  89.7439992  34.3079978  82.4830014  91.3039992  34.8359978  82.9050014
  90.1759992  33.6599978  84.4340014  89.2079992  33.1209978  84.3600014
  89.8969992  34.6969978  84.7200014  91.0969992  32.9169978  85.3570014
  90.5759992  32.3919978  86.1850014  91.8719992  33.6179978  85.7350014
  91.5659992  32.0659978  84.8180014 105.3809992  98.9359978  84.3610014
 105.1479992  99.6519978  85.1780014 106.4379992  98.6369978  84.1940014
 104.8269992  97.9749978  84.4160014 105.0249992  99.6039978  83.0250014
 103.9249992  99.6399978  82.8750014 105.4449992 100.6309978  82.9790014
 105.6239992  99.0259978  81.6780014 105.5939992  97.9159978  81.6320014
 104.9679992  99.4049978  80.8660014 107.1029992  99.3469978  81.4640014
 107.3849992 100.1649978  82.1610014 107.7059992  98.4979978  81.8520014
 107.4529992  99.6039978  80.0210014 107.5079992  98.5719978  79.6140014
 106.7539992 100.1919978  79.3890014 108.8869992 100.2099978  79.8010014
 108.8339992 101.2369978  80.2200014 109.4889992  99.5649978  80.4770014
 109.4549992 100.2469978  78.3450014 109.6129992  99.2369978  77.9110014
 108.6089992 100.6089978  77.7220014 110.7009992 101.1809978  78.2310014
 111.1889992 101.1939978  79.2290014 111.3249992 100.7189978  77.4360014
 110.4379992 102.5679978  77.7960014 109.7439992 103.0029978  78.5470014
 111.3869992 103.1159978  77.9810014 109.9359992 102.8349978  76.3420014
 109.1329992 102.1009978  76.1130014 109.5499992 103.8659978  76.1940014
 111.1219992 102.6879978  75.3710014 111.8789992 103.4819978  75.5440014
 111.6959992 101.7529978  75.5460014 110.7859992 102.6189978  73.9070014
 110.4099992 103.6299978  73.6400014 111.7869992 102.6999978  73.4320014
 109.9509992 101.4349978  73.4680014 110.4929992 100.4889978  73.6800014
 109.0659992 101.4239978  74.1400014 109.5109992 101.4979978  71.9300014
 109.1779992 102.5449978  71.7660014 110.4999992 101.2419978  71.4920014
 108.4669992 100.4609978  71.5910014 108.8269992  99.4609978  71.9120014
 107.4569992 100.6649978  72.0070014 108.3839992 100.4539978  70.0580014
 109.2759992 100.7559978  69.2960014 107.1739992 100.0159978  69.8220014
 106.7979992  99.8599978  68.3870014 107.6289992  99.9349978  67.6530014
 106.3119992  98.8979978  68.1150014 105.8529992 101.0099978  68.0480014
 104.9339992 100.8119978  68.6400014 105.5659992 101.1429978  66.5260014
 105.1329992 100.1609978  66.2360014 104.7639992 101.9119978  66.5120014
 106.7219992 101.5279978  65.7490014 106.6329992 101.8609978  64.2320014
 108.1919992 101.6939978  63.9150014 109.1439992 102.3439978  64.7800014
 109.1639992 103.4179978  64.4950014 108.8309992 102.1509978  65.8280014
 110.5679992 101.6489978  64.8470014 111.1079992 102.0089978  65.7110014
 110.4259992 100.5969978  65.0450014 111.5829992 101.9069978  63.6810014
 111.1569992 100.9899978  62.5710014 111.2669992  99.9359978  62.7820014
 110.0859992 101.0749978  62.4650014 111.7449992 101.2179978  61.6940014
 111.5319992 103.2779978  63.1360014 111.8949992 103.2499978  62.1190014
 110.5009992 103.5959978  63.1710014 112.0109992 103.9899978  63.7910014
 112.9869992 101.4579978  63.9830014 112.8079992 100.4109978  64.1800014
 113.4959992 102.0049978  64.7630014 113.6059992 101.4999978  63.0990014
 105.8999992 100.6979978  63.6240014 106.1629992 103.2519978  63.9890014
 106.5239992 102.1799978  68.4760014 105.8099992 103.3719978  68.3950014
 104.6239992 103.5289978  68.1890014 106.8039992 104.5819978  68.5850014
 106.3519992 105.5929978  68.6710014 107.4649992 104.5509978  67.6920014
 107.6909992 104.3819978  69.8390014 108.4229992 103.5749978  69.6230014
 107.0279992 104.1699978  70.7050014 108.5639992 105.6779978  69.9590014
 108.0639992 106.6099978  69.6170014 109.5449992 105.5699978  69.4480014
 109.0399992 105.8759978  71.3810014 109.8039992 106.6829978  71.3880014
 109.5119992 104.9449978  71.7610014 107.9519992 106.1899978  72.3640014
 107.3929992 105.2549978  72.5850014 107.1759992 106.8559978  71.9280014
 108.3669992 106.6919978  73.8170014 108.8649992 107.6679978  73.6300014
 109.0539992 105.8899978  74.1600014 107.1539992 106.8809978  74.9070014
 106.5139992 107.4849978  74.2290014 107.4939992 107.5399978  75.7340014
 106.5429992 105.5339978  75.2250014 106.0319992 104.9939978  74.4150014
 106.7199992 104.9079978  76.3750014 106.0869992 104.0189978  76.5120014
 107.4969992 105.4559978  77.5600014 108.1119992 106.3499978  77.3210014
 108.1969992 104.7279978  78.0230014 106.5669992 105.7799978  78.7740014
 106.0099992 104.8369978  78.9590014 105.8159992 106.5729978  78.5720014
 107.3219992 106.0989978  80.1980014 106.5349992 106.1289978  80.9810014
 107.8889992 107.0539978  80.1600014 108.3259992 104.9549978  80.4650014
 109.2149992 105.1189978  79.8200014 107.7979992 104.0079978  80.2210014
 108.9579992 104.9569978  81.8440014 108.4609992 104.4799978  82.7150014
 109.0469992 106.0079978  82.1920014 110.3909992 104.3339978  81.9900014
 111.1139992 105.1279978  81.7060014 110.4739992 103.5599978  81.1970014
 110.6819992 103.6979978  83.4110014 111.6619992 103.1759978  83.3870014
 109.8219992 103.1079978  83.7960014 110.9959992 104.7789978  84.5080014
 111.7989992 105.4689978  84.1710014 111.3369992 104.3119978  85.4560014
 110.0789992 105.3839978  84.6720014  33.0599992  45.9529978  83.6200014
  33.3529992  44.8929978  83.7850014  32.0569992  46.1039978  83.1670014
  32.9749992  46.4789978  84.5950014  34.1729992  46.6409978  82.7590014
  35.1109992  46.2619978  83.2190014  34.0439992  46.1399978  81.7760014
  34.0839992  48.1809978  82.7130014  34.2749992  48.5859978  83.7300014
  34.9399992  48.5169978  82.0880014  32.8389992  48.8859978  82.0920014
  31.8689992  48.5779978  82.5370014  33.0899992  49.9579978  82.2420014
  32.6659992  48.5119978  80.6230014  33.5539992  48.6549978  79.9710014
  32.4369992  47.4249978  80.6560014  31.4179992  49.1089978  79.8850014
  30.4669992  48.7889978  80.3620014  31.4069992  50.2179978  79.9430014
  31.2759992  48.6339978  78.4280014  32.2649992  48.8699978  77.9800014
  31.1939992  47.5339978  78.5640014  30.1089992  49.3429978  77.7700014
  29.1659992  49.0219978  78.2620014  30.2329992  50.4429978  77.8630014
  30.0119992  49.0139978  76.2130014  30.8649992  49.4419978  75.6450014
  30.2679992  47.9339978  76.2520014  28.7009992  49.2429978  75.5490014
  27.8629992  48.8829978  76.1840014  28.4779992  50.3309978  75.5730014
  28.6649992  48.7359978  74.1050014  27.6329992  48.7369978  73.6930014
  29.2889992  49.3259978  73.4000014  28.9759992  47.3039978  73.7930014
  29.7649992  46.8759978  74.4480014  28.1599992  46.7489978  74.3040014
  29.2859992  46.9819978  72.3620014  28.5789992  47.4809978  71.6650014
  30.2359992  47.4879978  72.0870014  29.3689992  45.4669978  72.0030014
  30.2139992  45.0829978  72.6140014  28.5719992  44.8219978  72.4310014
  29.6859992  45.1819978  70.5480014  30.6099992  45.7419978  70.2930014
  29.8449992  44.0839978  70.4940014  28.6049992  45.4979978  69.5180014
  27.4239992  45.6199978  69.7260014  29.2299992  45.5549978  68.3330014
  28.6249992  45.8409978  67.0980014  28.9589992  45.1839978  66.2670014
  27.5179992  45.9419978  67.0940014  29.1239992  47.2509978  66.6660014
  28.7999992  47.9619978  67.4550014  28.6309992  47.5829978  65.2520014
  27.5269992  47.4759978  65.2050014  29.0129992  48.5909978  64.9840014
  29.1959992  46.6199978  64.3180014  30.5259992  46.6989978  63.5260014
  31.5629992  46.1349978  64.5470014  31.4879992  44.7569978  65.0510014
  31.7899992  44.8959978  66.1110014  30.4359992  44.4039978  65.1180014
  32.5249992  43.7659978  64.5380014  32.5749992  42.9659978  65.2610014
  32.2389992  43.3559978  63.5810014  33.9019992  44.3409978  64.3410014
  34.4889992  45.0769978  65.4180014  35.1789992  44.6139978  66.1080014
  34.9049992  45.9839978  65.0040014  33.8049992  45.4629978  66.1610014
  34.8699992  43.1499978  64.0390014  34.7059992  42.6659978  63.0870014
  35.8849992  43.5189978  64.0370014  34.7239992  42.3729978  64.7740014
  33.9699992  45.2179978  63.1360014  33.6089992  44.7369978  62.2390014
  35.0119992  45.3639978  62.8920014  33.4019992  46.1309978  63.2350014
  30.4869992  45.7989978  62.3750014  30.7489992  48.1299978  63.2180014
  30.6049992  47.3129978  66.7380014  31.1339992  48.4739978  67.0170014
  30.6249992  49.5129978  67.2370014  32.5639992  48.2809978  66.8230014
  32.9159992  48.8389978  65.9290014  32.7719992  47.1899978  66.7830014
  33.3279992  48.7349978  68.1370014  33.0499992  49.7919978  68.3380014
  34.4119992  48.7479978  67.8940014  33.1309992  47.8839978  69.4640014
  32.0999992  48.0139978  69.8560014  33.8679992  48.2629978  70.2050014
  33.5219992  46.3779978  69.3090014  34.4259992  46.3469978  68.6650014
  32.7599992  45.7269978  68.8290014  33.7269992  45.6849978  70.6570014
  32.8059992  45.5319978  71.2590014  34.3679992  46.3619978  71.2600014
  34.3179992  44.2269978  70.5500014  35.2539992  44.4649978  70.0020014
  33.7959992  43.5559978  69.8350014  34.7549992  43.5939978  71.9080014
  35.3409992  44.2479978  72.5880014  35.4869992  42.7979978  71.6520014
  33.4699992  42.9519978  72.4960014  33.0419992  42.1209978  71.9160014
  32.8209992  43.3679978  73.6200014  31.8909992  42.8859978  73.9560014
  33.1259992  44.5459978  74.5660014  32.2139992  45.1589978  74.7280014
  33.8699992  45.2699978  74.1700014  33.6649992  44.0029978  75.8980014
  34.2779992  44.7789978  76.4040014  34.4339992  43.2389978  75.6550014
  32.6599992  43.3899978  76.8660014  33.1329992  43.1149978  77.8320014
  32.1829992  42.4939978  76.4140014  31.5809992  44.3999978  77.2300014
  31.0829992  44.7299978  76.2930014  31.9039992  45.3519978  77.7030014
  30.4709992  43.7219978  78.0440014  30.1239992  42.8899978  77.3960014
  29.6809992  44.4459978  78.3370014  30.8079992  43.1559978  79.4150014
  31.3699992  43.9979978  79.8740014  31.5789992  42.3559978  79.3960014
  29.5209992  42.7069978  80.2590014  30.0179992  42.0269978  80.9840014
  28.8569992  42.1779978  79.5420014  28.9479992  43.8059978  81.1460014
  29.7739992  44.2409978  81.7480014  28.1449992  43.4839978  81.8430014
  28.5109992  44.5959978  80.4980014  23.2189992  75.0889978  80.6910014
  23.0839992  76.1899978  80.7430014  24.2989992  74.8339978  80.7540014
  22.8479992  74.6169978  81.6260014  22.6559992  74.4169978  79.3770014
  22.7839992  73.3139978  79.3710014  21.5709992  74.6379978  79.2860014
  23.1039992  75.0279978  78.0670014  24.1809992  74.7779978  77.9660014
  22.5709992  74.4289978  77.2970014  22.9489992  76.6059978  77.8700014
  23.2289992  77.1619978  78.7910014  23.5079992  76.8519978  76.9420014
  21.4589992  76.9949978  77.6690014  20.9849992  76.2539978  76.9900014
  20.9839992  76.9649978  78.6730014  21.2289992  78.3979978  77.0780014
  21.5769992  79.1679978  77.8000014  21.7849992  78.5919978  76.1360014
  19.7109992  78.6639978  76.7590014  19.3099992  77.9379978  76.0190014
  19.0659992  78.3649978  77.6130014  19.3739992  80.1949978  76.5290014
  18.2849992  80.4149978  76.4980014  19.7229992  80.8309978  77.3700014
  20.0639992  80.7809978  75.2910014  20.0289992  81.8909978  75.3280014
  21.0899992  80.4419978  75.0350014  19.3049992  80.2579978  74.0570014
  19.2619992  79.1659978  73.8590014  18.2239992  80.4839978  74.1850014
  19.6749992  81.0579978  72.7520014  19.4249992  82.1359978  72.8500014
  20.7859992  81.0229978  72.7650014  19.0089992  80.4739978  71.5290014
  19.2199992  79.3839978  71.5590014  17.9119992  80.6269978  71.4390014
  19.5329992  80.9939978  70.1500014  19.1119992  80.3219978  69.3720014
  19.1349992  82.0129978  69.9570014  21.0059992  81.0399978  69.9650014
  21.4849992  81.7909978  70.6290014  21.5019992  80.0709978  70.1870014
  21.3279992  81.3489978  68.5070014  20.9419992  80.4609978  67.9620014
  20.8349992  82.2639978  68.1130014  22.7909992  81.4649978  68.2930014
  23.4789992  82.4699978  68.4470014  23.3049992  80.2779978  68.0140014
  24.6889992  80.1179978  67.7150014  25.0349992  80.9069978  67.0140014
  25.2549992  80.5129978  68.5860014  25.0119992  78.6969978  67.2570014
  26.1109992  78.6919978  67.0940014  24.3179992  78.1899978  65.9720014
  23.2489992  78.1049978  66.2610014  24.3289992  78.9919978  65.2040014
  24.9949992  77.0609978  65.4250014  24.3799992  76.3129978  64.0980014
  22.9929992  77.0469978  64.0610014  21.7619992  76.4169978  64.1350014
  21.4169992  75.9289978  63.1990014  21.8719992  75.6289978  64.9100014
  20.6229992  77.3169978  64.7280014  19.6869992  76.8739978  65.0360014
  20.9469992  77.7239978  65.6750014  20.1359992  78.4999978  63.8450014
  21.1739992  79.5679978  64.0800014  20.8089992  80.4449978  63.5660014
  21.2339992  79.7469978  65.1430014  22.0439992  79.0969978  63.6470014
  19.9259992  78.1749978  62.4550014  19.2199992  77.3659978  62.3320014
  19.5189992  79.0079978  61.9010014  20.8449992  77.8839978  61.9680014
  18.8559992  79.0209978  64.4010014  18.5929992  79.8849978  63.8090014
  18.9469992  79.4889978  65.3700014  18.1409992  78.2159978  64.4790014
  25.2449992  76.7629978  62.9930014  24.1959992  74.8479978  64.2850014
  24.5939992  77.8259978  68.3270014  25.2669992  77.9479978  69.4870014
  26.2789992  78.5589978  69.6770014  24.4709992  77.1759978  70.6280014
  25.1749992  76.5589978  71.2260014  23.6939992  76.5759978  70.1090014
  23.6429992  78.3369978  71.3480014  22.7429992  77.9059978  71.8370014
  23.3389992  79.0759978  70.5770014  24.3359992  79.2349978  72.3610014
  23.5989992  79.9419978  72.7980014  25.0989992  79.8759978  71.8680014
  25.1179992  78.5559978  73.4570014  25.6369992  77.6919978  72.9900014
  24.4099992  78.1579978  74.2160014  26.0389992  79.3609978  74.4110014
  26.8999992  79.5809978  73.7440014  26.3269992  78.6379978  75.2040014
  25.6299992  80.6999978  75.0170014  24.9669992  81.3399978  74.3970014
  26.4879992  81.2049978  75.5100014  24.5139992  80.5909978  76.1270014
  24.7089992  79.5899978  76.5680014  23.4929992  80.5489978  75.6910014
  24.6699992  81.6649978  77.1540014  24.3819992  82.6709978  76.8150014
  25.0229992  81.5029978  78.4780014  25.2639992  82.3429978  79.1470014
  25.3139992  80.1939978  79.0150014  25.7329992  79.3649978  78.4060014
  24.3329992  79.8009978  79.3570014  26.2659992  80.2169978  80.2770014
  25.7959992  80.9799978  80.9340014  27.2339992  80.4589978  79.7890014
  26.3579992  78.8239978  80.9410014  26.4419992  78.0129978  80.1860014
  25.4169992  78.7029978  81.5180014  27.5829992  78.7259978  81.9000014
  27.4549992  79.5509978  82.6330014  28.4979992  79.0489978  81.3590014
  27.7169992  77.3009978  82.4860014  28.6949992  77.3539978  83.0090014
  27.8359992  76.4949978  81.7310014  26.6339992  76.9959978  83.5200014
  25.8369992  76.5009978  82.9250014  26.1329992  77.9209978  83.8780014
  27.2229992  76.2119978  84.7830014  26.9319992  76.7649978  85.7010014
  28.3299992  76.1949978  84.6830014  26.7079992  74.7919978  84.8440014
  27.0809992  74.0209978  84.1370014  25.6029992  74.8229978  84.7330014
  26.8359992  74.3789978  85.8680014  25.7679992  68.4989978  80.6310014
  26.6709992  68.4849978  81.2790014  25.1409992  69.2429978  81.1670014
  26.0359992  68.8949978  79.6280014  25.1749992  67.1869978  80.4350014
  25.9219992  66.6059978  79.8510014  25.0219992  66.6699978  81.4060014
  23.9569992  67.1249978  79.6130014  23.2229992  67.7889978  80.1180014
  23.9429992  67.5859978  78.6030014  23.3489992  65.7309978  79.6770014
  24.1299992  64.9429978  79.6220014  23.1769992  65.4839978  80.7460014
  22.0689992  65.5709978  78.8350014  21.4939992  64.6879978  79.1890014
  21.3279992  66.3869978  78.9700014  22.4839992  65.5429978  77.3300014
  22.8359992  66.5099978  76.9100014  23.3079992  64.7989978  77.3740014
  21.3909992  65.0719978  76.3920014  21.3299992  63.9689978  76.5110014
  20.5199992  65.6189978  76.8120014  21.6379992  65.4359978  74.9730014
  21.7429992  66.5379978  74.8770014  22.5279992  64.9509978  74.5170014
  20.3869992  65.1599978  74.0890014  20.0419992  64.1309978  74.3260014
  19.5399992  65.8469978  74.3030014  20.7369992  65.3429978  72.6540014
  21.6989992  64.8629978  72.3750014  19.9679992  64.8609978  72.0140014
  20.8349992  66.8789978  72.3320014  20.1899992  67.4479978  73.0350014
  21.8539992  67.3159978  72.4010014  20.4359992  67.1649978  70.8880014
  21.1679992  66.7419978  70.1680014  19.3949992  66.8129978  70.7230014
  20.4009992  68.6709978  70.6490014  19.6839992  69.1919978  71.3190014
  21.4259992  69.0609978  70.8230014  20.0239992  69.1449978  69.2520014
  20.7339992  68.6869978  68.5310014  19.0549992  68.6389978  69.0520014
  20.0489992  70.5929978  68.9580014  19.5849992  70.8469978  67.9810014
  19.3309992  70.9629978  69.7200014  21.3539992  71.1409978  69.1650014
  21.7429992  71.6329978  70.2280014  22.0759992  71.0229978  68.0380014
  23.3989992  71.6209978  68.1640014  23.5879992  72.1319978  67.1960014
  23.4469992  72.2659978  69.0680014  24.5579992  70.5969978  68.2600014
  25.4879992  71.2009978  68.1960014  24.5359992  69.4769978  67.1160014
  25.0209992  69.8599978  66.1930014  25.1409992  68.6289978  67.5040014
  23.2199992  68.9889978  66.8900014  22.9569992  67.6999978  66.0510014
  23.5159992  68.2079978  64.6140014  22.7109992  68.0009978  63.5310014
  22.3489992  66.9809978  63.2800014  21.8379992  68.6849978  63.5930014
  23.4419992  68.4879978  62.2720014  24.2359992  67.8059978  62.0070014
  22.8089992  68.2889978  61.4200014  23.8739992  69.9239978  62.1810014
  24.8769992  70.3959978  63.2660014  25.7849992  69.8129978  63.3170014
  24.9259992  71.4689978  63.1540014  24.3649992  70.1269978  64.1780014
  24.5469992  70.1719978  60.8480014  23.7739992  70.3329978  60.1110014
  25.2749992  70.9669978  60.9210014  24.9929992  69.2189978  60.6070014
  22.6149992  70.7989978  62.2470014  22.1719992  70.5249978  63.1930014
  21.9559992  70.7089978  61.3960014  22.9279992  71.8309978  62.3170014
  23.7709992  66.5959978  66.5620014  21.4759992  67.5389978  66.0450014
  24.3329992  69.9549978  69.5330014  25.4319992  69.2959978  69.9840014
  26.4919992  69.2679978  69.4350014  25.0389992  68.3439978  71.1820014
  25.6979992  67.4489978  71.1660014  23.9819992  68.0389978  71.0200014
  25.2239992  69.1069978  72.4930014  25.9809992  69.9049978  72.3320014
  25.6659992  68.4009978  73.2270014  23.9459992  69.7199978  72.9840014
  23.0789992  69.0359978  73.1130014  23.5809992  70.4609978  72.2400014
  24.0829992  70.5209978  74.3330014  24.8669992  71.2879978  74.1570014
  24.3899992  69.7599978  75.0820014  22.7599992  71.1929978  74.7610014
  21.9129992  70.4749978  74.7370014  22.5949992  72.1219978  74.1750014
  22.8249992  71.6249978  76.2960014  21.9059992  72.1789978  76.5820014
  23.7229992  72.1969978  76.6150014  22.7809992  70.4739978  77.4160014
  23.0139992  70.9959978  78.3690014  23.6969992  69.8559978  77.3090014
  21.5139992  69.6649978  77.4720014  21.3529992  68.8789978  76.7200014
  20.5979992  69.6629978  78.4960014  19.6439992  69.1149978  78.5210014
  20.7809992  70.5079978  79.7170014  20.1409992  71.4119978  79.6250014
  21.7629992  70.9939978  79.8980014  20.3119992  69.9649978  81.1320014
  19.2769992  69.6349978  80.8980014  20.2449992  70.6799978  81.9800014
  20.9459992  68.7249978  81.7540014  21.1989992  67.9209978  81.0300014
  20.1469992  68.2699978  82.3780014  22.2129992  69.0869978  82.5680014
  22.1049992  69.8339978  83.3830014  23.0729992  69.3469978  81.9140014
  22.7179992  68.0219978  83.5420014  22.8199992  66.9739978  83.1880014
  22.0459992  67.8879978  84.4170014  24.0739992  68.4139978  84.1560014
  23.9769992  69.4499978  84.5450014  24.8839992  68.3819978  83.3960014
  24.4619992  67.5759978  85.3650014  24.4119992  66.4889978  85.1400014
  23.7239992  67.8539978  86.1470014  25.8239992  68.0069978  85.8160014
  26.1569992  67.3179978  86.6210014  25.7399992  68.9639978  86.3720014
  26.6359992  68.0249978  85.0580014  79.6069992 117.2279978  81.6500014
  80.3309992 117.1109978  82.4850014  78.8379992 116.5169978  82.0210014
  79.2169992 118.2599978  81.5160014  80.3719992 116.8949978  80.3330014
  81.2379992 117.5879978  80.2650014  80.8139992 115.8839978  80.4630014
  79.5429992 116.9319978  79.0910014  78.5659992 116.4159978  79.2120014
  79.1439992 117.9399978  78.8510014  80.3149992 116.5789978  77.7950014
  79.8589992 117.1039978  76.9280014  81.3189992 116.9759978  78.0570014
  80.4599992 115.0469978  77.5970014  80.6849992 114.5289978  78.5540014
  79.5329992 114.6569978  77.1250014  81.6909992 114.7299978  76.6510014
  82.6079992 114.9439978  77.2410014  81.6149992 113.6649978  76.3420014
  81.6829992 115.6489978  75.4100014  81.5309992 116.7139978  75.6870014
  82.6889992 115.5669978  74.9480014  80.4299992 115.3909978  74.5410014
  80.3839992 114.3279978  74.2230014  79.5209992 115.5839978  75.1490014
  80.2449992 116.2739978  73.2730014  79.2589992 116.0139978  72.8290014
  80.1909992 117.3459978  73.5610014  81.4479992 116.1199978  72.3050014
  82.2469992 116.5959978  72.9130014  81.6479992 115.0519978  72.0740014
  81.3799992 117.0489978  71.0570014  81.4739992 118.1009978  71.4010014
  82.3719992 116.8419978  70.6020014  80.2109992 116.6579978  70.0390014
  79.5929992 115.9449978  70.6250014  79.5119992 117.4869978  69.7980014
  80.5699992 115.8709978  68.7320014  79.6129992 115.6169978  68.2280014
  81.2359992 116.4929978  68.0960014  81.4159992 114.6309978  69.0070014
  82.4389992 114.9759978  69.2690014  80.9399992 114.0149978  69.7990014
  81.5769992 113.7749978  67.8310014  82.1859992 114.3409978  67.0960014
  82.2429992 112.9769978  68.2230014  80.2409992 113.2299978  67.3340014
  79.4679992 112.5889978  68.0380014  80.1629992 113.3829978  65.9450014
  79.0679992 112.7199978  65.2850014  79.4729992 112.0109978  64.5310014
  78.4739992 112.0619978  65.9550014  78.0679992 113.6899978  64.4730014
  77.4979992 112.9829978  63.8320014  78.8909992 114.6869978  63.6040014
  79.5449992 114.0689978  62.9530014  78.1969992 115.3489978  63.0430014
  79.9019992 115.4139978  64.3460014  80.5029992 116.7109978  63.7550014
  79.3189992 117.8219978  63.7190014  79.0739992 118.4319978  65.0150014
  78.9489992 117.6909978  65.8320014  79.9509992 119.0539978  65.2940014
  77.7919992 119.2439978  65.0950014  77.4049992 119.1249978  66.0960014
  77.8939992 120.3179978  65.0310014  76.6139992 118.8989978  64.1380014
  76.8579992 119.2299978  62.6960014  77.0429992 120.2699978  62.4750014
  77.6829992 118.5669978  62.4790014  76.0059992 118.8629978  62.1430014
  76.2749992 117.4649978  64.1050014  77.0879992 116.7869978  63.8890014
  75.8979992 117.1249978  65.0580014  75.4839992 117.4629978  63.3690014
  75.3939992 119.6299978  64.5960014  74.5879992 119.3769978  63.9230014
  75.4869992 120.7059978  64.5930014  75.1069992 119.4539978  65.6220014
  81.5429992 117.1399978  64.6840014  80.8719992 116.4039978  62.3590014
  77.1969992 114.4069978  65.3800014  76.2859992 113.6809978  66.0560014
  76.0099992 112.5139978  65.8500014  75.4619992 114.5639978  67.0030014
  74.6229992 113.9779978  67.4360014  75.0149992 115.4049978  66.4310014
  76.2349992 115.1969978  68.1810014  76.9689992 115.9689978  67.8640014
  76.8039992 114.3919978  68.6920014  75.3899992 115.9529978  69.1070014
  74.7419992 115.2249978  69.6410014  74.5989992 116.5259978  68.5780014
  76.1799992 116.8259978  70.1310014  76.6499992 117.6459978  69.5470014
  77.0169992 116.1829978  70.4770014  75.3379992 117.4809978  71.2270014
  74.5079992 117.9179978  70.6310014  75.8259992 118.2729978  71.8340014
  74.8179992 116.6099978  72.4260014  74.0499992 115.8809978  72.0890014
  74.2839992 117.3369978  73.0740014  75.9599992 115.8649978  73.0920014
  76.5549992 115.4399978  72.2560014  75.5119992 114.9659978  73.5670014
  76.7569992 116.6019978  74.1220014  77.4209992 117.3599978  73.6820014
  76.6819992 116.5329978  75.4160014  77.3429992 117.2129978  75.9730014
  75.8289992 115.6889978  76.3400014  74.8859992 115.3539978  75.8580014
  75.5229992 116.3969978  77.1380014  76.5559992 114.4359978  76.8270014
  77.3069992 114.8199978  77.5490014  77.1399992 113.8599978  76.0770014
  75.6299992 113.4409978  77.5250014  76.2349992 112.8269978  78.2260014
  75.0469992 112.8419978  76.7930014  74.4619992 114.0449978  78.3770014
  73.8169992 113.1829978  78.6490014  73.7809992 114.6899978  77.7810014
  74.9569992 114.9569978  79.5250014  74.2219992 115.7129978  79.8740014
  75.7929992 115.6169978  79.2090014  75.3459992 114.1469978  80.7510014
  76.0289992 113.3349978  80.4200014  74.5039992 113.5899978  81.2150014
  75.9689992 115.1219978  81.8690014  75.1579992 115.8489978  82.0910014
  76.8539992 115.5699978  81.3690014  76.4509992 114.3999978  83.0870014
  75.6339992 113.6929978  83.3470014  76.6569992 115.1359978  83.8930014
  77.3639992 113.7999978  82.8830014  55.0869992 120.3059978  85.7250014
  55.6969992 119.3869978  85.8610014  54.1029992 119.8569978  85.9790014
  55.4449992 121.0059978  86.5100014  55.1809992 121.0049978  84.3000014
  56.2439992 121.2829978  84.1330014  54.8649992 120.3199978  83.4850014
  54.2859992 122.1759978  84.1570014  53.2149992 121.8929978  84.0690014
  54.4959992 122.8429978  85.0210014  54.6729992 123.1839978  83.0570014
  54.0339992 124.0879978  83.1500014  55.7009992 123.5289978  83.2990014
  54.4779992 122.7709978  81.6480014  55.0029992 121.8639978  81.2760014
  53.4049992 122.5859978  81.4280014  54.9769992 123.8329978  80.5860014
  54.7459992 123.4319978  79.5760014  54.3749992 124.7449978  80.7860014
  56.4339992 124.1039978  80.7990014  56.4939992 124.7879978  81.6720014
  56.9299992 123.1559978  81.0990014  57.0299992 124.9949978  79.7010014
  56.4999992 125.9709978  79.7020014  58.0899992 125.1779978  79.9760014
  57.0709992 124.5089978  78.2510014  57.7419992 123.6299978  78.1470014
  56.0339992 124.1749978  78.0340014  57.6569992 125.4249978  77.1240014
  56.8879992 126.1669978  76.8210014  58.5299992 125.9999978  77.5010014
  58.1749992 124.7489978  75.8630014  58.3859992 125.6449978  75.2410014
  59.1279992 124.2219978  76.0840014  57.3749992 123.6589978  75.1950014
  57.4879992 122.7319978  75.7970014  56.2759992 123.8179978  75.2280014
  57.8199992 123.3059978  73.8090014  57.7619992 124.2309978  73.1960014
  58.8989992 123.0519978  73.8940014  57.0759992 122.1379978  73.0660014
  56.9959992 121.3349978  73.8300014  56.0949992 122.6059978  72.8340014
  57.7389992 121.6179978  71.8570014  57.8799992 122.4129978  71.0940014
  58.7049992 121.1799978  72.1880014  56.8839992 120.4279978  71.2830014
  56.0009992 119.8519978  71.9540014  57.1629992 120.2409978  70.0570014
  56.4679992 119.3519978  69.2280014  57.1289992 118.4619978  69.1650014
  55.4959992 119.0909978  69.6990014  56.2209992 119.9449978  67.8080014
  55.6339992 119.1759978  67.2610014  57.5409992 120.4939978  67.1590014
  57.8449992 121.3789978  67.7570014  58.3999992 119.7919978  67.1940014
  57.4249992 121.1779978  65.9150014  56.9389992 120.4129978  64.6280014
  55.3999992 120.2909978  64.7440014  54.6069992 120.0589978  63.5610014
  55.0479992 119.2319978  62.9660014  53.6229992 119.5949978  63.7880014
  54.1859992 121.3049978  62.7450014  55.1009992 121.7469978  62.3780014
  53.5699992 120.9639978  61.9260014  53.4109992 122.3019978  63.5180014
  54.2289992 122.8009978  64.6280014  55.0919992 123.2119978  64.1260014
  53.8219992 123.6159978  65.2070014  54.6109992 122.0239978  65.2730014
  53.0949992 123.5829978  62.6660014  52.5349992 124.2889978  63.2620014
  54.0609992 123.9779978  62.3860014  52.5669992 123.2499978  61.7850014
  52.0949992 121.7739978  64.0220014  52.0809992 120.6959978  64.0900014
  51.3159992 122.1589978  63.3810014  51.7169992 122.2409978  64.9200014
  57.1989992 121.2809978  63.4540014  57.4359992 119.0389978  64.6250014
  55.3429992 121.0879978  67.7950014  54.0739992 120.9819978  68.1030014
  53.6249992 119.9029978  68.5180014  53.4569992 122.3309978  67.9210014
  52.5229992 122.0809978  67.3740014  53.9749992 123.0719978  67.2760014
  52.9489992 122.9359978  69.2650014  52.6729992 122.0989978  69.9420014
  52.0459992 123.5199978  68.9860014  53.8649992 124.0789978  69.8630014
  54.1859992 124.7399978  69.0300014  54.7849992 123.5579978  70.2030014
  53.1889992 124.8539978  71.0180014  52.4219992 125.4309978  70.4580014
  53.8789992 125.5759978  71.5030014  52.3409992 124.0369978  71.8730014
  51.5669992 123.3789978  71.4250014  51.7939992 124.7869978  72.4850014
  53.2159992 123.2619978  72.8900014  53.9409992 123.9659978  73.3520014
  53.6859992 122.4469978  72.2990014  52.6069992 122.6459978  74.2000014
  52.0449992 123.5039978  74.6250014  53.4509992 122.4049978  74.8820014
  51.6679992 121.3949978  73.9900014  51.0719992 121.4729978  73.0690014
  51.5729992 120.3139978  74.7740014  50.8059992 119.5349978  74.6540014
  52.3839992 120.1659978  76.0150014  51.6919992 119.7269978  76.7660014
  52.7449992 121.1489978  76.3870014  53.4979992 119.1039978  75.7010014
  54.1519992 119.4089978  74.8570014  53.0629992 118.1479978  75.3400014
  54.3579992 118.7269978  76.8740014  55.2159992 118.1449978  76.4740014
  53.7329992 118.0329978  77.4760014  54.8759992 119.9339978  77.7350014
  54.0979992 120.6289978  78.1180014  55.2309992 120.6879978  77.0010014
  56.0009992 119.5099978  78.6400014  56.4499992 120.4869978  78.9220014
  56.7819992 119.0089978  78.0280014  55.4769992 118.7699978  79.8760014
  54.8349992 117.8969978  79.6330014  54.8949992 119.5789978  80.3670014
  56.5259992 118.4479978  80.9740014  57.2279992 117.6699978  80.6050014
  56.0199992 118.1699978  81.9230014  57.3809992 119.6559978  81.5430014
  58.3489992 119.6929978  81.0000014  57.6609992 119.4929978  82.6050014
  56.9429992 120.6729978  81.4510014  30.0279992 102.6989978  83.2070014
  30.5679992 101.9979978  83.8790014  29.2869992 103.2179978  83.8530014
  30.7719992 103.4629978  82.8960014  29.3119992 101.9059978  82.0910014
  30.1049992 101.6559978  81.3540014  28.8289992 101.0339978  82.5820014
  28.2339992 102.7379978  81.3820014  27.4489992 103.1549978  82.0490014
  28.6979992 103.5539978  80.7890014  27.3279992 101.9399978  80.3680014
  27.1229992 100.9389978  80.8040014  26.3729992 102.5069978  80.3370014
  27.8649992 101.7169978  78.9390014  28.9229992 101.3819978  78.9930014
  27.1969992 100.9469978  78.4950014  27.7519992 103.0479978  78.1390014
  26.6519992 103.1779978  78.0600014  28.2409992 103.8649978  78.7120014
  28.3269992 103.0089978  76.6900014  28.0429992 103.8989978  76.0880014
  29.4369992 102.9849978  76.7320014  27.8959992 101.7459978  75.8470014
  28.3659992 101.8029978  74.8410014  28.4449992 100.8849978  76.2850014
  26.4119992 101.4669978  75.6460014  25.8849992 101.7729978  76.5750014
  26.1459992 102.3089978  74.9720014  25.9929992 100.1049978  74.9280014
  26.4409992 100.0309978  73.9140014  26.3179992  99.2949978  75.6160014
  24.4809992  99.8719978  74.8070014  24.3919992  98.8089978  74.4950014
  24.0939992  99.8719978  75.8480014  23.6849992 100.8979978  73.9000014
  22.7339992 100.3459978  73.7400014  23.5889992 101.8689978  74.4320014
  24.3699992 101.0749978  72.5110014  25.4009992 101.4859978  72.5240014
  24.5769992 100.0589978  72.1110014  23.5309992 101.8609978  71.5100014
  22.4979992 101.4539978  71.4950014  23.3429992 102.8159978  72.0470014
  24.3019992 101.9929978  70.1950014  24.7289992 100.9929978  69.9700014
  23.6699992 102.3889978  69.3720014  25.5679992 102.9189978  70.3820014
  25.7299992 103.6559978  71.3410014  26.2689992 102.8249978  69.2980014
  27.3959992 103.6009978  69.0130014  26.9639992 104.3379978  68.3020014
  27.6979992 104.0859978  69.9650014  28.5139992 102.7179978  68.4180014
  29.3119992 103.4489978  68.1690014  28.0659992 102.1209978  67.0430014
  27.3579992 102.7839978  66.5020014  29.0059992 101.8899978  66.4980014
  27.4429992 100.8629978  67.2830014  27.1639992 100.0039978  65.9980014
  26.5079992 101.0269978  65.0470014  27.2219992 101.6689978  64.0150014
  27.0949992 102.7549978  64.2120014  28.3189992 101.4979978  63.9710014
  26.5079992 101.4199978  62.6550014  25.4719992 101.7249978  62.6890014
  26.9929992 102.0049978  61.8880014  26.6519992 100.0249978  62.0680014
  25.7979992  99.0069978  62.8190014  24.8189992  99.1319978  62.3790014
  26.0789992  98.0359978  62.4390014  25.7629992  98.9639978  63.8980014
  26.2369992  99.9259978  60.6050014  26.3849992  98.8939978  60.3250014
  25.2179992 100.1949978  60.3690014  26.9199992 100.5119978  60.0080014
  28.1189992  99.5769978  62.1790014  28.8139992 100.1919978  61.6270014
  28.2449992  98.6059978  61.7240014  28.4609992  99.4559978  63.1970014
  28.4249992  99.5479978  65.4650014  26.2079992  98.9409978  66.3710014
  28.8529992 101.7789978  69.4900014  30.0279992 101.0549978  69.2290014
  30.6409992 101.1939978  68.2000014  30.2299992 100.1309978  70.3970014
  30.0989992 100.6699978  71.3600014  31.1629992  99.5289978  70.3720014
  29.1219992  99.0949978  70.4240014  29.1019992  98.5529978  69.4550014
  28.1619992  99.6529978  70.3690014  29.2269992  98.1879978  71.6720014
  29.9219992  98.6989978  72.3730014  29.6889992  97.2489978  71.3000014
  27.9249992  97.8099978  72.4240014  27.5949992  98.7539978  72.9070014
  28.1859992  97.1749978  73.2980014  26.7589992  97.1789978  71.5810014
  27.2319992  96.3399978  71.0270014  26.3429992  97.9089978  70.8540014
  25.6039992  96.6869978  72.4920014  24.7579992  96.0959978  72.0810014
  25.1099992  97.6489978  72.7490014  25.9849992  95.7419978  73.6420014
  26.6499992  96.2849978  74.3470014  26.5439992  94.8939978  73.1920014
  24.8199992  95.2459978  74.3540014  23.9499992  95.0639978  73.7060014
  24.7449992  94.9999978  75.6810014  23.8069992  94.5369978  76.0210014
  25.7589992  95.1679978  76.7540014  26.7089992  95.5379978  76.3120014
  26.1029992  94.2709978  77.3120014  25.4929992  96.2359978  77.8390014
  24.5499992  95.9079978  78.3270014  25.2119992  97.2389978  77.4520014
  26.6179992  96.3819978  78.8330014  27.3709992  96.9529978  78.2480014
  27.0799992  95.4259978  79.1570014  26.2969992  97.2249978  80.1090014
  25.5479992  96.5959978  80.6360014  26.0709992  98.2779978  79.8380014
  27.4809992  97.1449978  81.1670014  28.3429992  97.6149978  80.6480014
  27.6269992  96.0779978  81.4400014  27.2139992  97.9239978  82.5030014
  26.7649992  98.9099978  82.2560014  28.2429992  98.0729978  82.8960014
  26.3709992  97.0889978  83.5320014  26.7969992  96.1299978  83.8970014
  25.4349992  96.7489978  83.0400014  25.9109992  97.9949978  84.6910014
  25.4049992  97.4509978  85.5170014  25.3369992  98.8919978  84.3740014
  26.8709992  98.1789978  85.2190014 115.7089992  49.1409978  84.6600014
 115.0039992  48.7759978  85.4370014 115.3409992  50.0339978  84.1110014
 116.7509992  49.2709978  85.0250014 115.8129992  47.8789978  83.7170014
 115.9539992  47.0309978  84.4210014 114.8169992  47.6769978  83.2680014
 116.8759992  47.9109978  82.6210014 116.8299992  48.8619978  82.0470014
 117.8399992  47.9599978  83.1710014 116.7809992  46.6889978  81.7250014
 117.7959992  46.4029978  81.3760014 116.4289992  45.8789978  82.3990014
 115.8879992  46.6549978  80.4820014 116.0209992  45.6659978  79.9940014
 114.8599992  46.6319978  80.9030014 115.9379992  47.8739978  79.5000014
 115.3769992  47.5749978  78.5890014 115.3489992  48.6079978  80.0910014
 117.2749992  48.4299978  79.2780014 117.7129992  48.6019978  80.2850014
 118.0229992  47.6699978  78.9670014 117.2499992  49.5979978  78.3350014
 116.9499992  49.2969978  77.3090014 116.5009992  50.3519978  78.6590014
 118.6139992  50.3419978  78.2490014 118.9949992  50.6799978  79.2360014
 119.3479992  49.7269978  77.6860014 118.4909992  51.7449978  77.5740014
 118.0919992  52.4689978  78.3170014 119.5439992  51.9789978  77.3080014
 117.7109992  51.8079978  76.2840014 117.2189992  50.8519978  76.0050014
 116.8449992  52.4859978  76.4410014 118.5799992  52.4489978  75.1720014
 119.3239992  53.1099978  75.6650014 119.2369992  51.7159978  74.6560014
 117.7309992  53.1579978  74.0890014 116.9159992  53.8249978  74.4430014
 118.4489992  53.7709978  73.5040014 116.8289992  52.2069978  73.1700014
 115.9989992  51.8079978  73.7910014 116.3709992  52.9359978  72.4680014
 117.5709992  51.1829978  72.2730014 117.9439992  51.5929978  71.3100014
 118.3629992  50.6439978  72.8350014 116.6289992  50.0389978  71.7980014
 116.0799992  49.2319978  72.4990014 116.5019992  50.1379978  70.4290014
 115.7529992  49.0889978  69.8520014 116.3639992  48.1639978  69.9160014
 114.7309992  48.9479978  70.2660014 115.5939992  49.5649978  68.3790014
 115.0139992  48.7619978  67.8750014 116.9979992  49.7389978  67.6760014
 117.5329992  50.5699978  68.1830014 117.4179992  48.7379978  67.9140014
 116.9169992  49.7319978  66.2730014 117.2659992  51.1339978  65.5320014
 116.5829992  50.9379978  64.0930014 115.2129992  50.8789978  63.9660014
 114.7109992  50.3079978  64.7760014 114.8829992  51.9399978  63.9470014
 114.8129992  50.1759978  62.6170014 113.7529992  50.2869978  62.4380014
 115.3739992  50.7419978  61.8880014 115.0939992  48.7029978  62.6220014
 114.1899992  47.9389978  63.5720014 114.4379992  48.3349978  64.5460014
 113.1529992  48.0969978  63.3150014 114.3239992  46.8669978  63.5990014
 114.7169992  48.0919978  61.2510014 114.9499992  47.0379978  61.2280014
 113.6449992  48.0889978  61.1160014 115.1189992  48.6169978  60.3970014
 116.5399992  48.3749978  62.9420014 117.2429992  48.6969978  62.1880014
 116.6029992  47.3009978  63.0470014 116.6859992  48.7319978  63.9510014
 116.5399992  52.1459978  66.3190014 118.7289992  51.2249978  65.3190014
 114.8149992  50.7699978  68.3370014 113.4949992  50.6649978  68.1500014
 112.8039992  49.6689978  68.2840014 112.8439992  52.1009978  68.2600014
 112.1479992  52.2379978  67.4040014 113.5569992  52.9519978  68.2160014
 112.0369992  52.2519978  69.5420014 111.2909992  51.4299978  69.4930014
 111.6099992  53.2769978  69.5640014 112.8329992  52.0239978  70.8750014
 113.6959992  52.7189978  70.9600014 113.3649992  51.0609978  70.7210014
 111.9739992  51.9269978  72.1370014 111.4929992  50.9259978  72.1220014
 111.1739992  52.6979978  72.1660014 112.7549992  52.0739978  73.4190014
 113.0909992  53.1199978  73.5870014 113.6659992  51.4679978  73.2260014
 111.9729992  51.3979978  74.5360014 111.9049992  50.3149978  74.2980014
 110.9419992  51.8089978  74.5740014 112.6779992  51.5259978  75.9330014
 113.7329992  51.1869978  75.8450014 112.1159992  50.9599978  76.7060014
 112.7809992  52.9779978  76.2870014 112.4399992  53.6949978  75.5250014
 113.1509992  53.6909978  77.4030014 113.0149992  54.7829978  77.3860014
 113.6019992  53.1169978  78.7380014 114.5769992  53.4929978  79.1140014
 113.7979992  52.0489978  78.5010014 112.5729992  53.1279978  79.8380014
 111.7709992  52.4109978  79.5580014 112.0209992  54.0909978  79.8860014
 113.1129992  52.8829978  81.2480014 114.0489992  53.4759978  81.3220014
 113.2949992  51.7919978  81.3590014 112.0799992  53.2059978  82.3510014
 111.3049992  52.4259978  82.5090014 111.5059992  54.0969978  82.0200014
 112.6699992  53.3359978  83.7290014 112.8469992  52.3439978  84.1980014
 112.0979992  53.9539978  84.4540014 114.1169992  53.9259978  83.7630014
 114.0729992  54.8699978  83.1800014 114.9129992  53.2279978  83.4260014
 114.3689992  54.2859978  85.2550014 114.2049992  53.3549978  85.8390014
 113.6159992  55.0059978  85.6390014 115.7529992  54.9279978  85.5360014
 115.8409992  55.3069978  86.5770014 115.8069992  55.7309978  84.7700014
 116.5739992  54.2239978  85.2830014  68.9809992 123.5369978  83.5020014
  70.0919992 123.5369978  83.4690014  68.5039992 122.5459978  83.6570014
  68.5849992 124.0979978  84.3750014  68.4629992 124.3009978  82.2820014
  67.3649992 124.1769978  82.3930014  68.6369992 125.3879978  82.4320014
  69.0469992 123.9809978  80.9260014  68.6439992 124.4739978  80.0160014
  70.1069992 124.2559978  81.1130014  69.0199992 122.4249978  80.6040014
  69.6979992 122.0919978  79.7900014  69.3599992 121.7909978  81.4510014
  67.6459992 121.9039978  80.2820014  67.2419992 121.3169978  81.1340014
  67.0219992 122.8099978  80.1240014  67.6629992 121.0369978  78.9920014
  68.3869992 120.2019978  79.1070014  66.6529992 120.5799978  78.9170014
  68.0529992 121.8869978  77.7610014  67.5269992 122.8579978  77.8800014
  69.1349992 122.1359978  77.7900014  67.7239992 121.0789978  76.4680014
  66.9229992 120.3429978  76.6910014  67.3299992 121.7579978  75.6810014
  68.9589992 120.3869978  75.9190014  69.1759992 119.5979978  76.6710014
  68.6969992 119.7859978  75.0220014  70.0759992 121.3459978  75.4850014
  70.6009992 121.8279978  76.3380014  70.9379992 120.8269978  75.0140014
  69.6459992 122.5949978  74.5840014  68.6489992 122.9709978  74.8950014
  70.4049992 123.3909978  74.4260014  69.3659992 122.0959978  73.1480014
  70.2979992 121.8149978  72.6130014  68.7389992 121.1789978  73.1270014
  68.6649992 123.1129978  72.2260014  67.8469992 123.6799978  72.7200014
  69.4469992 123.8689978  71.9990014  67.9919992 122.5069978  70.9490014
  68.8019992 121.8929978  70.5010014  67.2449992 121.7499978  71.2710014
  67.1789992 123.5529978  70.0850014  66.7079992 122.9559978  69.2750014
  66.2599992 123.9639978  70.5550014  67.9519992 124.7249978  69.7020014
  67.7849992 125.8639978  70.1020014  68.8929992 124.2939978  68.8750014
  70.0579992 125.1699978  68.6730014  69.6349992 126.1599978  68.4010014
  70.6279992 125.2479978  69.6230014  71.0139992 124.5849978  67.6430014
  71.8099992 125.3469978  67.5040014  70.2959992 124.4369978  66.2660014
  69.7229992 125.3399978  65.9640014  71.0999992 124.0619978  65.5980014
  69.4329992 123.2619978  66.4030014  68.7359992 122.8319978  65.0280014
  69.8779992 122.1689978  64.1340014  70.4999992 120.8479978  64.4540014
  70.3229992 120.4849978  65.4880014  70.0899992 120.0519978  63.7960014
  72.1349992 120.8459978  64.1290014  72.5359992 121.2169978  65.0610014
  72.4399992 119.8109978  64.0830014  72.6599992 121.6629978  62.9640014
  72.3529992 123.1089978  63.2130014  72.8939992 123.7909978  62.5740014
  71.3049992 123.3519978  63.1110014  72.6209992 123.2639978  64.2480014
  74.1139992 121.5349978  62.7820014  74.4249992 122.2199978  62.0080014
  74.6389992 121.7269978  63.7060014  74.2959992 120.5069978  62.5050014
  71.9439992 121.1239978  61.6840014  72.1599992 121.7809978  60.8550014
  70.8739992 121.1689978  61.8270014  72.4019992 120.1699978  61.4670014
  67.6689992 121.7939978  65.3210014  68.2839992 124.0979978  64.3950014
  71.4329992 123.3349978  68.2510014  72.6969992 123.0419978  67.7740014
  73.2189992 123.6189978  66.8540014  73.2809992 121.8739978  68.5270014
  74.3799992 121.9789978  68.6530014  73.1279992 120.9629978  67.9100014
  72.6619992 121.6599978  69.8820014  71.5999992 121.4039978  69.6790014
  72.4919992 122.5749978  70.4890014  73.2599992 120.5309978  70.7240014
  74.3339992 120.6849978  70.9610014  73.1469992 119.5809978  70.1590014
  72.4199992 120.2739978  72.0090014  71.3809992 120.0819978  71.6670014
  72.4239992 121.0799978  72.7730014  73.0459992 119.0449978  72.7680014
  73.2259992 118.1849978  72.0880014  72.2589992 118.7019978  73.4740014
  74.2639992 119.3799978  73.5930014  75.1129992 119.5429978  72.8960014
  74.6359992 118.5249978  74.1960014  74.1939992 120.5909978  74.5840014
  74.7419992 120.4529978  75.5400014  73.1179992 120.7259978  74.8240014
  74.8369992 121.8499978  74.0680014  75.8319992 121.7179978  73.6170014
  74.3609992 123.1189978  74.0850014  74.8939992 123.8369978  73.4440014
  73.0259992 123.5399978  74.5950014  72.3469992 122.7109978  74.8870014
  72.6059992 124.2259978  73.8290014  73.2769992 124.4739978  75.7820014
  72.3089992 125.0029978  75.9120014  74.0189992 125.2619978  75.5330014
  73.6949992 123.9359978  77.1960014  74.7839992 123.7169978  77.1600014
  73.1299992 123.0209978  77.4760014  73.3449992 124.9419978  78.2900014
  72.2469992 125.0879978  78.2110014  73.8669992 125.9199978  78.2170014
  73.5209992 124.3769978  79.7410014  74.5429992 123.9419978  79.7870014
  72.8629992 123.4899978  79.8560014  73.2879992 125.3529978  80.9040014
  72.3159992 125.8879978  80.8410014  74.0489992 126.1479978  80.7530014
  73.3109992 124.7779978  82.3040014  74.3949992 124.5829978  82.4530014
  72.7539992 123.8169978  82.2790014  72.7259992 125.5769978  83.4670014
  71.9609992 126.2819978  83.0770014  73.5849992 126.0919978  83.9470014
  72.0659992 124.9699978  84.1220014  86.9819992  28.7589978  83.2430014
  86.1579992  28.1529978  83.6750014  86.9219992  29.7519978  83.7370014
  87.9139992  28.2619978  83.5880014  86.7529992  28.8199978  81.7160014
  86.6579992  27.7899978  81.3100014  85.7689992  29.3219978  81.5980014
  87.7889992  29.7009978  80.9840014  87.6919992  30.7769978  81.2420014
  88.8519992  29.4609978  81.2010014  87.6879992  29.6359978  79.4620014
  86.6689992  29.9809978  79.1830014  88.2799992  30.3559978  78.8570014
  88.1149992  28.2259978  78.9790014  89.1889992  28.2169978  79.2620014
  87.5549992  27.3489978  79.3670014  87.8669992  27.9869978  77.4030014
  86.8059992  27.9779978  77.0740014  88.2619992  28.9609978  77.0430014
  88.5449992  26.8099978  76.6180014  89.5809992  26.6159978  76.9710014
  87.9439992  26.0259978  77.1280014  88.3489992  26.7709978  75.1190014
  87.2699992  26.7139978  74.8580014  88.7699992  27.7539978  74.8170014
  89.0889992  25.6789978  74.3710014  89.0059992  24.8239978  75.0750014
  88.5389992  25.5749978  73.4120014  90.4439992  26.0449978  73.8070014
  90.3649992  27.0239978  73.2880014  91.1799992  26.1199978  74.6370014
  90.9879992  24.9079978  72.8020014  90.6169992  23.9499978  73.2240014
  90.4509992  24.9959978  71.8330014  92.4779992  25.0399978  72.5620014
  93.1469992  24.7759978  73.4080014  92.5909992  24.3209978  71.7220014
  92.8209992  26.4239978  72.0530014  92.1839992  26.7869978  71.2180014
  92.5729992  27.0099978  72.9640014  94.3379992  26.4339978  71.6120014
  94.9119992  26.4269978  72.5630014  94.5769992  25.5729978  70.9510014
  94.7919992  27.6449978  70.8510014  94.5119992  28.5599978  71.4150014
  95.8889992  27.7449978  70.7070014  93.9219992  27.7009978  69.5640014
  93.2519992  28.6259978  69.2020014  94.1769992  26.6249978  68.8020014
  93.7169992  26.7219978  67.4230014  93.6919992  27.7599978  67.0300014
  94.3249992  26.0339978  66.7960014  92.2569992  26.1689978  67.3000014
  92.3259992  25.0599978  67.2920014  91.5479992  26.6909978  65.9940014
  92.2959992  26.5379978  65.1860014  90.6259992  26.1279978  65.7340014
  91.3309992  28.0859978  66.0260014  90.3889992  28.6799978  64.8700014
  88.9459992  28.1059978  65.1930014  87.8959992  28.7159978  64.4600014
  86.9379992  28.6939978  65.0210014  88.1189992  29.7999978  64.3630014
  87.7779992  28.0649978  63.1340014  87.0879992  28.6399978  62.5350014
  88.7219992  28.2329978  62.6360014  87.4229992  26.5969978  63.0420014
  86.0189992  26.4969978  63.5430014  85.8899992  25.4349978  63.6960014
  85.8669992  27.1309978  64.4040014  85.3999992  26.8989978  62.7550014
  87.6329992  26.0399978  61.6690014  88.6279992  26.2499978  61.3050014
  87.4819992  24.9769978  61.5560014  86.9359992  26.5439978  61.0160014
  88.3099992  25.7499978  63.9620014  89.3569992  26.0119978  63.9240014
  88.1649992  24.6939978  63.7910014  87.9859992  26.0049978  64.9610014
  90.4709992  30.1759978  65.0010014  90.8149992  28.1129978  63.6070014
  91.5569992  26.5199978  68.4810014  90.3819992  25.8109978  68.4610014
  90.1589992  24.7919978  67.8680014  89.3559992  26.3549978  69.5620014
  90.0179992  26.9309978  70.2430014  88.8949992  25.4719978  70.0540014
  88.2259992  27.2459978  69.0050014  87.5139992  26.6259978  68.4200014
  88.6809992  28.0289978  68.3600014  87.3309992  28.0109978  70.0510014
  86.9549992  27.1879978  70.6970014  86.5299992  28.6689978  69.6510014
  88.1799992  28.8709978  71.0730014  88.9229992  28.2749978  71.6440014
  87.4119992  29.1569978  71.8240014  88.8809992  30.0269978  70.4090014
  88.1479992  30.6409978  69.8430014  89.5899992  29.5559978  69.6950014
  89.8089992  30.8149978  71.4090014  89.1849992  31.4299978  72.0930014
  90.5189992  31.4619978  70.8500014  90.6189992  29.8799978  72.3100014
  91.0809992  28.9839978  71.8440014  89.8909992  29.5619978  73.0870014
  91.8049992  30.5749978  73.0010014  92.5609992  31.0979978  72.3970014
  92.0839992  30.6239978  74.2440014  93.0679992  31.0499978  74.4900014
  91.3509992  30.0549978  75.4560014  90.4389992  29.4889978  75.1710014
  90.9939992  30.9309978  76.0390014  92.2269992  29.1579978  76.2860014
  93.1009992  29.8209978  76.4630014  92.5269992  28.1919978  75.8260014
  91.8309992  28.8689978  77.7450014  90.8039992  28.4469978  77.7540014
  91.8199992  29.7829978  78.3760014  92.7719992  27.8029978  78.4390014
  93.7719992  28.2849978  78.4720014  92.8819992  26.8769978  77.8350014
  92.3109992  27.2459978  79.7890014  91.2009992  27.1879978  79.7750014
  92.3879992  28.0619978  80.5390014  92.8829992  25.8729978  80.0910014
  93.9859992  25.9259978  80.2180014  92.8309992  25.1809978  79.2240014
  92.3249992  25.3129978  81.3740014  92.7149992  24.2779978  81.4790014
  91.2259992  25.3149978  81.2120014  92.5469992  26.2829978  82.5500014
  93.6219992  26.2619978  82.8300014  91.9679992  25.9049978  83.4200014
  92.3119992  27.3679978  82.4960014  24.7839992  62.0049978  82.8910014
  25.5259992  62.2309978  82.0960014  25.2499992  61.8719978  83.8910014
  23.9819992  62.7749978  82.8840014  24.0659992  60.6529978  82.5440014
  24.8449992  59.8669978  82.6430014  23.2659992  60.4439978  83.2850014
  23.3699992  60.7079978  81.2290014  22.7169992  61.5769978  80.9970014
  24.1339992  60.5069978  80.4480014  22.2639992  59.6169978  81.1590014
  22.7459992  58.6269978  81.3010014  21.4849992  59.7659978  81.9370014
  21.4899992  59.5499978  79.8530014  20.7019992  58.8019978  80.0860014
  21.0919992  60.5739978  79.6840014  22.2159992  59.1119978  78.5730014
  23.0809992  59.7749978  78.3580014  22.5729992  58.0979978  78.8560014
  21.3939992  58.7619978  77.3230014  20.6549992  57.9499978  77.4950014
  20.9439992  59.6289978  76.7940014  22.2529992  58.0069978  76.2540014
  21.5229992  57.6619978  75.4910014  23.0409992  58.7179978  75.9240014
  22.9719992  56.7009978  76.6630014  23.3829992  56.6799978  77.6950014
  22.2759992  55.8399978  76.5730014  24.2469992  56.3939978  75.8860014
  24.9349992  57.1739978  76.2780014  24.7019992  55.4859978  76.3360014
  24.1899992  56.3429978  74.3590014  23.2659992  55.7709978  74.1310014
  23.8589992  57.3359978  73.9870014  25.3219992  55.5459978  73.4960014
  25.4499992  54.4939978  73.8310014  25.1799992  55.5409978  72.3940014
  26.6779992  56.0849978  73.6820014  27.0039992  56.1509978  74.7420014
  27.4339992  55.5239978  73.0930014  26.9219992  57.5549978  73.2820014
  26.0959992  58.1289978  73.7510014  27.8769992  57.9279978  73.7110014
  27.0109992  57.7449978  71.7410014  27.5879992  58.6799978  71.5760014
  27.6249992  56.9609978  71.2500014  25.5959992  57.9599978  71.1840014
  24.8999992  58.9449978  71.4340014  25.2689992  57.0469978  70.2770014
  24.1979992  57.4339978  69.3600014  23.6719992  56.5069978  69.0440014
  23.4099992  58.1119978  69.7520014  24.5589992  58.2089978  68.0580014
  23.6729992  58.1429978  67.3910014  25.7449992  57.6109978  67.2440014
  26.4629992  57.3189978  68.0400014  25.3889992  56.6569978  66.8000014
  26.3259992  58.5489978  66.3810014  26.0879992  58.5559978  64.8240014
  24.6239992  59.0669978  64.7060014  24.3859992  60.3959978  64.1780014
  24.8019992  61.2149978  64.8030014  24.8989992  60.5059978  63.1990014
  22.8569992  60.7579978  64.0020014  22.3519992  60.9309978  64.9410014
  22.7529992  61.6829978  63.4540014  21.9529992  59.9069978  63.1400014
  21.8659992  58.5489978  63.8430014  21.3239992  57.9559978  63.1220014
  22.8879992  58.2479978  64.0210014  21.2929992  58.6469978  64.7540014
  20.6129992  60.5109978  63.1150014  19.9759992  59.8059978  62.6030014
  20.3949992  60.7379978  64.1480014  20.6779992  61.4229978  62.5390014
  22.4929992  59.6169978  61.7830014  23.5439992  59.4189978  61.9340014
  22.4479992  60.4449978  61.0910014  21.9329992  58.7629978  61.4320014
  27.0769992  59.4699978  64.2740014  26.1829992  57.1809978  64.2600014
  24.9079992  59.5189978  68.4860014  23.9129992  60.4529978  68.3910014
  22.7619992  60.2699978  68.0610014  24.5189992  61.8769978  68.6450014
  24.7939992  62.3219978  67.6650014  25.4699992  61.6869978  69.1880014
  23.5219992  62.7859978  69.3740014  23.0589992  62.1109978  70.1250014
  22.6759992  63.0659978  68.7100014  24.1609992  64.0309978  69.9720014
  23.4059992  64.3959978  70.7020014  24.3189992  64.8709978  69.2630014
  25.4209992  63.8789978  70.9040014  25.5669992  64.8749978  71.3760014
  26.3249992  63.7899978  70.2650014  25.3819992  62.7089978  71.8930014
  25.1769992  61.7859978  71.3110014  24.5069992  62.9159978  72.5460014
  26.6679992  62.6249978  72.7560014  26.9829992  63.5839978  73.2200014
  27.5049992  62.3969978  72.0630014  26.6909992  61.5109978  73.8940014
  27.6899992  61.4479978  74.3760014  26.6329992  60.4629978  73.5300014
  25.6279992  61.6399978  74.9420014  24.5819992  61.5689978  74.6090014
  25.8809992  61.7379978  76.2630014  24.9779992  61.6519978  76.8860014
  27.1409992  61.7749978  77.0610014  26.9289992  62.4599978  77.9090014
  28.0599992  62.1269978  76.5450014  27.3919992  60.3879978  77.6890014
  28.3079992  60.4849978  78.3090014  27.6079992  59.6919978  76.8500014
  26.1999992  60.0319978  78.5800014  25.4159992  59.7359978  77.8510014
  25.8369992  60.8509978  79.2370014  26.3929992  58.6679978  79.2460014
  26.9719992  58.0639978  78.5140014  25.4449992  58.0999978  79.3590014
  26.9209992  58.7529978  80.6400014  26.4449992  59.5879978  81.1960014
  28.0209992  58.8479978  80.5150014  26.6449992  57.5639978  81.5460014
  26.7649992  56.6679978  80.9010014  25.5809992  57.6829978  81.8460014
  27.4309992  57.3979978  82.8590014  28.5149992  57.4699978  82.6240014
  27.1439992  56.4289978  83.3190014  27.0859992  58.3579978  83.9720014
  27.2649992  59.3899978  83.6020014  27.7089992  58.2899978  84.8890014
  25.9999992  58.3029978  84.2000014  19.6469992  88.2359978  80.8760014
  19.5239992  87.2509978  81.3750014  18.6769992  88.6929978  80.5850014
  20.1629992  88.8769978  81.6230014  20.5099992  88.0759978  79.6430014
  20.4079992  89.0449978  79.1090014  21.4969992  87.8949978  80.1190014
  20.1349992  86.9249978  78.7030014  19.0899992  87.0129978  78.3360014
  20.7819992  87.1129978  77.8200014  20.4649992  85.5089978  79.2930014
  21.5719992  85.4449978  79.3680014  20.1499992  85.4529978  80.3570014
  19.8209992  84.3149978  78.4480014  20.0119992  83.3699978  79.0000014
  18.7479992  84.5569978  78.2900014  20.4509992  84.1029978  77.0670014
  20.6959992  85.0709978  76.5800014  21.3649992  83.4889978  77.2170014
  19.6559992  83.1969978  76.1390014  20.3869992  82.7819978  75.4120014
  19.2739992  82.3059978  76.6810014  18.4369992  83.7869978  75.5740014
  18.0219992  83.0739978  74.8300014  17.7409992  84.0129978  76.4100014
  18.6219992  85.0319978  74.7260014  18.6999992  85.8559978  75.4670014
  19.5839992  85.1269978  74.1800014  17.5569992  85.3109978  73.6310014
  16.5639992  85.2119978  74.1200014  17.7029992  86.3419978  73.2430014
  17.6919992  84.3149978  72.4490014  18.0339992  83.3309978  72.8360014
  16.6459992  84.1749978  72.1030014  18.6669992  84.7469978  71.3830014
  18.1499992  85.6959978  71.1280014  19.6859992  84.9699978  71.7660014
  18.8069992  83.7539978  70.2900014  18.9309992  82.6849978  70.5640014
  18.0139992  83.6469978  69.5190014  20.0319992  83.8269978  69.4290014
  20.9899992  83.7719978  69.9900014  19.9309992  82.9659978  68.7350014
  20.0829992  85.1709978  68.5650014  20.4009992  84.8439978  67.5520014
  19.0739992  85.6369978  68.5640014  21.0879992  86.3209978  69.1190014
  21.4979992  86.3359978  70.2440014  21.4119992  87.1289978  68.1630014
  22.3909992  88.1149978  68.2970014  22.0619992  89.0409978  67.7790014
  22.6069992  88.4129978  69.3450014  23.6929992  87.6359978  67.6800014
  24.3459992  88.5329978  67.7390014  23.4969992  87.0979978  66.2400014
  22.9539992  87.7129978  65.4910014  24.5039992  86.9809978  65.7840014
  22.8369992  85.8289978  66.2740014  22.7019992  84.7829978  65.0370014
  21.5769992  85.3479978  64.0170014  20.1729992  85.2829978  64.1800014
  19.8359992  84.2299978  64.2880014  19.8579992  85.7629978  65.1310014
  19.3049992  86.0149978  63.1200014  19.7229992  85.6699978  62.1860014
  18.2959992  85.6529978  63.2510014  19.4159992  87.5519978  63.0170014
  18.5489992  88.0749978  61.8670014  17.5909992  87.6069978  62.0380014
  18.4809992  89.1479978  61.9740014  19.0309992  87.7529978  60.9560014
  19.0039992  88.2929978  64.2750014  19.3649992  87.7919978  65.1620014
  19.3389992  89.3169978  64.3450014  17.9319992  88.1869978  64.3530014
  20.9279992  87.8649978  62.7650014  21.1599992  87.5209978  61.7680014
  21.5109992  87.3719978  63.5290014  21.1239992  88.9229978  62.8610014
  23.9959992  84.8999978  64.2840014  22.2849992  83.5089978  65.6710014
  24.1319992  86.6449978  68.6270014  25.3369992  86.0059978  68.3400014
  26.1029992  86.2859978  67.4980014  25.5489992  84.8669978  69.2510014
  25.5629992  85.3589978  70.2470014  26.4099992  84.2639978  68.8930014
  24.3059992  83.9669978  68.9260014  24.3639992  83.6749978  67.8550014
  23.3729992  84.5439978  69.1020014  24.1889992  82.7939978  69.8650014
  25.0639992  82.1149978  69.7820014  23.2279992  82.2459978  69.7680014
  24.1619992  83.2679978  71.4150014  23.2869992  83.9469978  71.5050014
  25.0439992  83.9249978  71.5800014  24.0539992  82.0109978  72.3490014
  24.6969992  81.2059978  71.9330014  23.0249992  81.5939978  72.3270014
  24.5029992  82.3469978  73.7640014  25.3589992  83.0529978  73.7260014
  24.9219992  81.4129978  74.1950014  23.4289992  82.8579978  74.7070014
  23.8449992  82.8139978  75.7360014  22.5459992  82.1869978  74.6410014
  22.9729992  84.3289978  74.5560014  22.4149992  84.3929978  73.6100014
  23.0959992  85.4659978  75.2450014  22.9419992  86.4019978  74.6880014
  23.7399992  85.5709978  76.6540014  24.3079992  84.6849978  77.0110014
  22.9269992  85.8169978  77.3700014  24.6609992  86.8239978  76.5510014
  24.2369992  87.6249978  75.9090014  25.6779992  86.6689978  76.1330014
  24.9129992  87.4919978  77.9250014  25.5379992  86.8199978  78.5510014
  23.9779992  87.6239978  78.5100014  25.5129992  88.8769978  77.7250014
  24.8929992  89.4239978  76.9820014  26.4969992  88.6159978  77.2810014
  25.6549992  89.5689978  79.0160014  24.7419992  89.3449978  79.6100014
  25.8109992  90.6579978  78.8670014  26.9649992  89.0529978  79.8010014
  27.8039992  89.6009978  79.3220014  27.2229992  87.9799978  79.6720014
  26.9389992  89.4179978  81.3370014  26.0299992  89.0169978  81.8350014
  26.8909992  90.5149978  81.5110014  28.2039992  88.8159978  81.9630014
  29.1239992  89.3209978  81.5970014  28.2039992  87.7079978  81.8830014
  28.1789992  89.1259978  83.0290014 121.0359992  67.0789978  80.5520014
 120.1639992  66.5319978  80.1350014 120.6329992  68.1129978  80.5010014
 121.3349992  66.6759978  81.5430014 122.2039992  67.0169978  79.5430014
 122.1749992  67.7769978  78.7330014 123.2099992  67.1929978  79.9800014
 122.3829992  65.5949978  78.9010014 122.2319992  64.8169978  79.6800014
 121.4959992  65.4889978  78.2410014 123.7289992  65.3519978  78.2050014
 123.8349992  66.2979978  77.6330014 124.4909992  65.5349978  78.9930014
 123.8189992  64.0439978  77.4860014 122.9059992  63.9839978  76.8550014
 124.6479992  64.1359978  76.7520014 123.9119992  62.7619978  78.2910014
 124.6619992  62.8249978  79.1090014 122.9369992  62.5329978  78.7720014
 124.2559992  61.6339978  77.3530014 125.1569992  61.8529978  76.7420014
 124.4439992  60.7319978  77.9730014 123.1029992  61.2739978  76.3680014
 122.1829992  61.2689978  76.9890014 122.9259992  61.9969978  75.5430014
 123.3779992  60.0929978  75.4910014 124.3629992  60.2029978  74.9900014
 123.4699992  59.1909978  76.1330014 122.2959992  59.6619978  74.4820014
 122.5099992  58.5879978  74.2950014 121.2709992  59.8669978  74.8580014
 122.3769992  60.3979978  73.1660014 121.8909992  61.3969978  73.1720014
 123.4469992  60.6289978  72.9790014 121.9459992  59.6689978  71.9910014
 122.1899992  60.2199978  71.0580014 122.4839992  58.7039978  71.8740014
 120.4889992  59.1069978  72.0670014 120.2659992  58.4879978  71.1720014
 120.4179992  58.6099978  73.0590014 119.4719992  60.3019978  72.1080014
 118.4969992  59.9539978  72.5110014 119.8709992  61.0379978  72.8380014
 119.3319992  60.8969978  70.7020014 120.3459992  61.0689978  70.2820014
 118.8619992  60.1249978  70.0560014 118.5139992  62.1459978  70.6650014
 118.0459992  62.6909978  71.6510014 118.4629992  62.5479978  69.3990014
 117.7179992  63.7509978  69.1230014 116.9469992  63.5139978  68.3600014
 117.2349992  64.1369978  70.0460014 118.6419992  64.8949978  68.5260014
 118.0059992  65.7569978  68.2310014 119.1949992  64.2809978  67.2360014
 119.4849992  63.2259978  67.4260014 118.4309992  64.3569978  66.4330014
 120.3969992  65.0669978  67.0090014 121.4659992  64.4249978  66.0770014
 120.5799992  63.5669978  65.0730014 121.1019992  62.3709978  64.4450014
 121.5459992  61.6499978  65.1640014 120.2139992  61.8299978  64.0510014
 122.0139992  62.7859978  63.2720014 122.8769992  63.3509978  63.5920014
 122.3139992  61.8319978  62.8620014 121.4579992  63.4399978  62.0260014
 121.1699992  64.9479978  62.1340014 120.5109992  65.1569978  62.9640014
 122.1599992  65.3599978  62.2660014 120.8069992  65.4249978  61.2360014
 122.4799992  63.4029978  60.9150014 122.2469992  64.1159978  60.1380014
 123.4089992  63.7169978  61.3670014 122.3689992  62.4159978  60.4900014
 120.2919992  62.8079978  61.4030014 119.8649992  63.3869978  60.5980014
 119.5889992  62.5099978  62.1660014 120.7229992  61.9069978  60.9910014
 122.1709992  65.4519978  65.3060014 122.3169992  63.5069978  66.8470014
 119.6809992  65.2339978  69.4090014 119.4839992  66.2249978  70.2410014
 118.4689992  66.8749978  70.3560014 120.6869992  66.4599978  71.0840014
 121.1929992  67.4029978  70.7850014 121.2969992  65.5389978  70.9690014
 120.4159992  66.6379978  72.6030014 119.8049992  67.5329978  72.8450014
 121.3889992  66.7609978  73.1250014 119.7109992  65.4189978  73.0830014
 120.3209992  64.5349978  72.7990014 118.7699992  65.2839978  72.5090014
 119.2909992  65.3679978  74.5610014 118.8709992  66.3279978  74.9290014
 120.1429992  65.1019978  75.2230014 118.1989992  64.3259978  74.7410014
 118.6659992  63.4979978  74.1660014 117.2759992  64.6249978  74.2000014
 117.9149992  64.0199978  76.2720014 116.8539992  63.7149978  76.3930014
 118.1359992  65.0159978  76.7120014 118.6489992  62.9369978  77.0450014
 118.0869992  62.8379978  77.9980014 119.6659992  63.1859978  77.4180014
 118.9049992  61.6019978  76.3460014 119.5269992  61.5249978  75.4420014
 118.4819992  60.4229978  76.8610014 118.6259992  59.5019978  76.2770014
 117.6649992  60.1419978  78.1130014 116.8289992  59.4829978  77.7980014
 117.1979992  61.0859978  78.4680014 118.4189992  59.3089978  79.1440014
 118.4679992  58.2829978  78.7220014 117.7959992  59.2449978  80.0630014
 119.8559992  59.7789978  79.5460014 120.4969992  59.8719978  78.6440014
 120.2329992  58.9689978  80.2060014 119.7529992  61.1829978  80.2380014
 118.8569992  61.0949978  80.8890014 119.5989992  61.9869978  79.4870014
 121.0729992  61.3939978  81.0040014 121.7019992  61.8499978  80.2100014
 121.4749992  60.4869978  81.5040014 121.0329992  62.5819978  82.0230014
 120.4679992  63.4069978  81.5380014 122.0949992  62.8799978  82.1480014
 120.3679992  62.1869978  83.3440014 121.0379992  61.3819978  83.7130014
 119.3119992  61.8719978  83.1970014 120.5299992  63.3299978  84.3180014
 119.7509992  64.1119978  84.1950014 121.5819992  63.6849978  84.2830014
 120.3259992  62.9329978  85.3360014  39.5979992  32.8819978  82.4830014
  40.3319992  33.6029978  82.0640014  39.2769992  33.2609978  83.4770014
  38.7569992  32.7809978  81.7640014  40.1429992  31.3899978  82.6020014
  40.5239992  31.1999978  83.6280014  39.3419992  30.6319978  82.4710014
  41.2499992  31.0389978  81.5710014  42.2359992  31.4549978  81.8660014
  41.3749992  29.9349978  81.5950014  40.9349992  31.3349978  80.1100014
  41.4979992  30.5389978  79.5780014  39.8839992  31.0599978  79.8780014
  41.3079992  32.6809978  79.5370014  40.7019992  33.4879978  80.0000014
  42.3349992  32.9949978  79.8210014  41.2559992  32.7099978  78.0350014
  42.2329992  32.3349978  77.6610014  40.4099992  32.1349978  77.6010014
  41.3679992  34.1799978  77.4930014  40.5689992  34.7189978  78.0450014
  42.3039992  34.6689978  77.8370014  41.2649992  34.3099978  75.9480014
  42.0919992  33.7999978  75.4100014  40.2629992  33.9099978  75.6810014
  41.2199992  35.8229978  75.4940014  41.9429992  36.4889978  76.0110014
  41.5309992  35.7439978  74.4310014  39.7359992  36.3969978  75.4340014
  39.2449992  36.4459978  76.4300014  39.8809992  37.4329978  75.0580014
  38.7179992  35.7029978  74.5550014  38.2729992  34.8719978  75.1420014
  37.9149992  36.4559978  74.4060014  39.2169992  35.3019978  73.1560014
  39.5499992  36.1929978  72.5820014  40.0919992  34.6199978  73.2110014
  38.1539992  34.6749978  72.3100014  37.6369992  33.9059978  72.9230014
  37.4169992  35.4929978  72.1630014  38.6419992  34.0919978  70.9370014
  39.3209992  33.2229978  71.0660014  37.6999992  33.6219978  70.5840014
  39.1569992  35.1509978  69.8990014  38.8579992  34.7959978  68.8900014
  38.6879992  36.1339978  70.1220014  40.7149992  35.2389978  70.0280014
  41.3939992  34.6359978  70.8500014  41.1029992  36.0309978  69.0340014
  42.4829992  36.3169978  69.0270014  42.7179992  37.3739978  68.7810014
  42.9779992  36.0749978  69.9920014  43.1459992  35.6759978  67.7910014
  44.0929992  36.1789978  67.5020014  42.1269992  35.6879978  66.5770014
  41.8019992  36.6929978  66.2330014  42.7139992  35.1969978  65.7710014
  41.0099992  34.8209978  66.7950014  40.4819992  33.7169978  65.7240014
  41.7949992  32.9709978  65.1390014  41.5139992  31.8469978  64.3310014
  42.3439992  31.1439978  64.5560014  40.5739992  31.3279978  64.6170014
  41.5999992  32.2319978  62.8270014  41.2139992  31.4309978  62.2140014
  40.9039992  33.0049978  62.5380014  42.8939992  32.7709978  62.2910014
  43.0739992  34.2179978  62.6950014  42.2299992  34.8889978  62.6480014
  43.4329992  34.2009978  63.7130014  43.9349992  34.5909978  62.1600014
  44.0729992  31.9859978  62.8930014  43.6839992  30.9849978  63.0080014
  44.8739992  31.9709978  62.1690014  44.4069992  32.3429978  63.8550014
  42.8549992  32.6309978  60.7620014  43.5899992  33.3059978  60.3490014
  41.9149992  32.9979978  60.3770014  42.9419992  31.6179978  60.3980014
  39.6769992  32.7719978  66.4920014  39.8509992  34.3449978  64.5570014
  43.3899992  34.2649978  68.1020014  44.5989992  33.7449978  67.8370014
  45.5619992  34.3349978  67.4080014  44.5989992  32.2409978  68.2900014
  45.5779992  31.8109978  67.9870014  43.6699992  31.8309978  67.8390014
  44.4119992  32.3249978  69.7670014  43.5369992  32.9689978  70.0000014
  45.3649992  32.5489978  70.2920014  44.2709992  30.9659978  70.2750014
  44.9679992  30.2759978  69.7530014  43.2249992  30.5919978  70.2400014
  44.6779992  30.8779978  71.7940014  45.7379992  31.1979978  71.8910014
  44.5839992  29.8209978  72.1210014  43.8699992  31.7449978  72.7970014
  42.8039992  31.6039978  72.5190014  44.2279992  32.7829978  72.6260014
  44.2019992  31.4899978  74.3540014  44.0159992  30.4169978  74.5720014
  43.4329992  31.9599978  75.0040014  45.6609992  31.7489978  74.8330014
  46.3449992  31.0899978  74.2570014  45.6939992  31.5619978  75.9270014
  46.1899992  33.1539978  74.6410014  46.7989992  33.2249978  73.7270014
  45.9479992  34.2229978  75.4660014  46.1679992  35.2079978  75.0290014
  45.0579992  34.0889978  76.7330014  44.7449992  33.0499978  76.9690014
  44.0809992  34.6099978  76.6360014  45.7599992  34.6309978  77.9790014
  45.7819992  35.7349978  77.8570014  46.8029992  34.2479978  77.9390014
  45.1599992  34.1219978  79.2220014  45.0069992  33.0219978  79.2090014
  44.1419992  34.4899978  79.4710014  45.9769992  34.4849978  80.4180014
  45.7759992  35.5279978  80.7420014  47.0709992  34.4529978  80.2290014
  45.7429992  33.5389978  81.6800014  45.9259992  32.5029978  81.3240014
  44.6739992  33.6109978  81.9750014  46.5059992  33.8569978  82.9560014
  46.0209992  34.7009978  83.4910014  47.5409992  34.1899978  82.7270014
  46.6689992  32.7189978  83.9440014  47.1699992  31.8279978  83.5080014
  45.6859992  32.3539978  84.3120014  47.4029992  33.0039978  85.2080014
  47.5269992  32.0539978  85.7710014  46.8139992  33.6589978  85.8850014
  48.3539992  33.5319978  84.9850014  55.1869992  29.3369978  80.1930014
  54.8579992  29.4549978  81.2470014  55.9859992  30.0999978  80.0730014
  55.6189992  28.3299978  80.0140014  54.0369992  29.6799978  79.1690014
  53.1499992  29.0479978  79.3880014  53.8389992  30.7489978  79.4000014
  54.3429992  29.5859978  77.6540014  55.3499992  30.0389978  77.5320014
  54.4519992  28.5239978  77.3450014  53.3409992  30.4319978  76.7670014
  53.4069992  31.4989978  77.0660014  53.7389992  30.2279978  75.7500014
  51.8349992  29.9599978  76.7580014  51.8469992  28.8789978  76.5020014
  51.4169992  30.0009978  77.7860014  50.9499992  30.8459978  75.8400014
  50.0109992  30.2579978  75.7640014  50.8639992  31.8319978  76.3450014
  51.4509992  31.1209978  74.4460014  50.7349992  31.7399978  73.8640014
  52.4479992  31.6009978  74.5440014  51.6379992  29.7679978  73.6570014
  52.2659992  29.0669978  74.2480014  50.6999992  29.2139978  73.4350014
  52.1999992  29.8749978  72.2940014  53.2389992  30.2059978  72.5040014
  52.1719992  28.8909978  71.7800014  51.5179992  30.9669978  71.4160014
  50.4269992  30.9759978  71.6250014  51.8319992  31.9949978  71.6940014
  51.8249992  30.6889978  69.9420014  52.0939992  29.6159978  69.8330014
  50.8829992  30.8409978  69.3740014  52.8079992  31.6279978  69.1820014
  52.4289992  32.6669978  69.0720014  53.7169992  31.6669978  69.8190014
  53.3479992  31.2159978  67.7880014  52.6349992  31.4079978  66.9580014
  54.2189992  31.8949978  67.6700014  53.7979992  29.7539978  67.6720014
  54.4569992  29.5379978  68.5390014  52.9319992  29.0639978  67.7600014
  54.6699992  29.4899978  66.4650014  54.2929992  30.1319978  65.6400014
  55.7139992  29.7839978  66.7050014  54.7249992  27.8969978  66.0020014
  54.8719992  27.0649978  66.8450014  54.7319992  27.6809978  64.6840014
  55.0119992  26.3309978  64.2450014  55.7129992  26.2319978  63.3890014
  55.5369992  25.6539978  64.9520014  53.7659992  25.5089978  63.8440014
  54.0409992  24.4559978  63.6190014  53.0439992  26.0429978  62.5870014
  53.7799992  26.6449978  62.0120014  52.6429992  25.1809978  62.0110014
  51.8919992  26.7969978  62.9420014  51.4089992  28.1219978  62.1650014
  50.7879992  29.0929978  63.2680014  51.4819992  29.4699978  64.4160014
  52.3969992  28.8689978  64.6070014  51.6699992  30.5649978  64.4120014
  50.5999992  29.1129978  65.6280014  50.6079992  28.0379978  65.7210014
  51.2499992  29.3919978  66.4440014  49.2039992  29.7839978  65.8200014
  48.2839992  29.1859978  64.7430014  47.2479992  29.4719978  64.8520014
  48.6259992  29.6759978  63.8440014  48.3969992  28.1119978  64.7730014
  48.6219992  29.6329978  67.2410014  49.2499992  30.2029978  67.9110014
  47.6829992  30.1649978  67.2640014  48.5489992  28.6039978  67.5620014
  49.2859992  31.2419978  65.4960014  49.4389992  31.5259978  64.4650014
  50.0069992  31.6579978  66.1840014  48.3609992  31.6159978  65.9090014
  52.6059992  28.8299978  61.5360014  50.3289992  27.7399978  61.2500014
  52.9539992  25.4079978  65.0000014  51.9879992  24.4609978  64.9640014
  51.8769992  23.7199978  64.0240014  51.1679992  24.6459978  66.2560014
  51.0909992  25.6939978  66.6160014  51.6769992  24.1229978  67.0940014
  49.7439992  24.0859978  65.9070014  49.9109992  23.0319978  65.5990014
  49.2409992  24.6999978  65.1300014  48.7699992  24.0469978  67.0990014
  49.3879992  23.5799978  67.8970014  47.9099992  23.4369978  66.7500014
  48.3509992  25.4269978  67.6610014  47.6919992  25.9049978  66.9040014
  49.2749992  26.0319978  67.7740014  47.6939992  25.3789978  69.0680014
  46.9519992  24.5919978  68.8120014  47.3479992  26.3839978  69.3910014
  48.4839992  24.7089978  70.2500014  49.2139992  25.4929978  70.5450014
  49.0249992  23.7889978  69.9430014  47.6169992  24.2369978  71.3880014
  48.1559992  23.6569978  72.1680014  46.8819992  23.5529978  70.9130014
  46.8179992  25.2859978  72.1590014  45.7509992  25.3019978  71.8890014
  47.3139992  26.1189978  73.1120014  46.7199992  26.7289978  73.8090014
  48.7419992  26.2469978  73.5220014  49.0459992  27.2129978  73.0670014
  49.4129992  25.4809978  73.0770014  49.0119992  26.4369978  74.9400014
  48.2719992  27.1009978  75.4360014  49.9529992  27.0249978  74.9900014
  49.3149992  25.1599978  75.7490014  50.1159992  24.5419978  75.2890014
  48.3809992  24.5579978  75.7140014  49.6979992  25.5219978  77.2220014
  49.0699992  26.2999978  77.7070014  50.7419992  25.8949978  77.1500014
  49.7549992  24.1309978  77.9540014  50.2639992  23.4839978  77.2080014
  48.7309992  23.7729978  78.1920014  50.5909992  24.1749978  79.2120014
  50.2509992  24.6999978  80.1310014  51.4929992  24.6619978  78.7860014
  50.8539992  22.7749978  79.7200014  50.0109992  22.1509978  79.3540014
  50.9999992  22.7299978  80.8210014  52.0849992  22.1299978  79.0780014
  52.0109992  21.9789978  77.9790014  52.3729992  21.1739978  79.5650014
  53.0019992  22.7529978  79.1540014 118.6969992  99.0319978  84.1100014
 119.4389992  99.8539978  84.2010014 119.0519992  98.2339978  84.7960014
 117.7999992  99.3969978  84.6560014 118.5529992  98.5809978  82.6860014
 119.5479992  98.4109978  82.2210014 118.1099992  97.5629978  82.6250014
 117.9439992  99.5969978  81.6920014 116.9059992  99.8939978  81.9570014
 118.5919992 100.4899978  81.8160014 117.8089992  99.1669978  80.2430014
 117.3389992  98.1819978  80.0380014 117.3069992 100.0299978  79.7540014
 119.2049992  99.0539978  79.5560014 119.8369992  99.9629978  79.6540014
 119.7669992  98.1559978  79.8910014 119.1959992  98.9269978  78.0130014
 118.5299992  99.7139978  77.5990014 120.1839992  99.2339978  77.6100014
 118.8829992  97.4719978  77.4440014 119.5559992  96.7509978  77.9550014
 117.8539992  97.2259978  77.7830014 119.0299992  97.3109978  75.9050014
 118.4759992  98.1559978  75.4430014 120.0719992  97.2419978  75.5260014
 118.3389992  96.0579978  75.4020014 118.9549992  95.2819978  75.9040014
 117.3659992  96.1349978  75.9320014 118.1329992  95.9589978  73.8580014
 117.5649992  96.8569978  73.5320014 119.1349992  96.0169978  73.3800014
 117.4239992  94.7469978  73.3790014 117.5739992  93.9579978  74.1460014
 116.3279992  94.7769978  73.1990014 118.1119992  94.1289978  72.0880014
 119.1849992  93.9219978  72.2890014 117.6749992  93.1089978  72.0220014
 117.8569992  94.9589978  70.7720014 118.5339992  95.8369978  70.8420014
 118.1649992  94.2919978  69.9390014 116.4859992  95.6099978  70.7190014
 115.7979992  94.7659978  70.9370014 116.3949992  96.3709978  71.5240014
 116.2109992  96.0749978  69.3140014 117.0039992  96.7899978  69.0060014
 116.2299992  95.1799978  68.6560014 114.7309992  96.6639978  69.3560014
 113.7879992  95.8599978  69.3960014 114.7119992  97.9779978  69.2260014
 113.4309992  98.5419978  68.9160014 112.7169992  97.7709978  68.5540014
 113.0149992  99.0159978  69.8310014 113.5609992  99.4999978  67.7350014
 112.6879992 100.1579978  67.5390014 113.8869992  98.7279978  66.4550014
 113.2419992  97.8359978  66.3050014 113.7169992  99.5189978  65.6930014
 115.2709992  98.3149978  66.3750014 115.5299992  97.2779978  65.2930014
 117.1129992  97.3509978  65.0120014 117.7549992  98.5809978  65.2010014
 117.4039992  99.0599978  66.1390014 118.8589992  98.4699978  65.2550014
 117.3889992  99.5199978  64.0100014 116.3199992  99.6489978  63.9320014
 117.8949992 100.4609978  64.1680014 118.0409992  99.2329978  62.5670014
 117.3229992  98.0589978  61.8800014 116.2729992  98.2769978  61.7460014
 117.9419992  97.8099978  61.0310014 117.4569992  97.2529978  62.5860014
 117.8339992 100.4689978  61.6890014 118.1529992 101.3079978  62.2900014
 118.3619992 100.4739978  60.7470014 116.7689992 100.4619978  61.5090014
 119.5079992  98.9239978  62.6110014 119.6139992  98.0159978  63.1850014
 119.9879992  99.7149978  63.1680014 119.9689992  98.8629978  61.6360014
 115.2089992  95.8999978  65.8140014 114.8019992  97.6109978  64.0550014
 114.6459992 100.3699978  68.1030014 115.2099992 101.2349978  67.2530014
 114.7799992 101.5259978  66.1670014 116.4499992 101.7959978  67.9850014
 117.2829992 101.7039978  67.2560014 116.7379992 101.1769978  68.8610014
 116.2939992 103.2299978  68.3460014 116.1789992 103.8689978  67.4450014
 117.2189992 103.5109978  68.8940014 115.0849992 103.5309978  69.2690014
 114.1509992 103.4829978  68.6690014 115.2719992 104.5779978  69.5910014
 115.0289992 102.7849978  70.6420014 114.8039992 101.7339978  70.3610014
 114.1669992 103.1949978  71.2120014 116.1529992 102.9859978  71.7010014
 116.0059992 103.8869978  72.3340014 117.0639992 103.1729978  71.0940014
 116.4129992 101.8139978  72.6010014 117.2339992 101.9699978  73.3340014
 116.6539992 100.8619978  72.0810014 115.1239992 101.4609978  73.4960014
 114.2849992 101.2249978  72.8080014 114.8539992 102.4439978  73.9380014
 115.4809992 100.4449978  74.5320014 116.2459992 100.7199978  75.2730014
 114.9389992  99.1959978  74.4090014 115.3979992  98.4679978  75.0950014
 114.0519992  98.5539978  73.3980014 114.6759992  98.2649978  72.5250014
 113.3479992  99.3039978  72.9790014 113.1809992  97.3589978  73.8050014
 113.8969992  96.5879978  74.1620014 112.6799992  96.8989978  72.9270014
 112.1819992  97.6789978  74.9260014 111.2429992  97.1279978  74.7010014
 111.9349992  98.7489978  75.0930014 112.7099992  97.0529978  76.2390014
 113.5269992  96.3299978  76.0260014 111.9189992  96.4479978  76.7320014
 113.3169992  98.0489978  77.2150014 112.4139992  98.5009978  77.6780014
 113.8849992  98.7899978  76.6120014 114.3029992  97.4179978  78.1780014
 115.0349992  98.1759978  78.5290014 114.9149992  96.7099978  77.5790014
 113.6799992  96.6849978  79.4370014 114.5499992  96.1829978  79.9120014
 112.9359992  95.9659978  79.0320014 112.9169992  97.5799978  80.3380014
 111.8689992  97.6809978  79.9830014 113.4009992  98.5799978  80.3500014
 112.7829992  97.1109978  81.3360014  71.2809992  27.6189978  82.7040014
  71.6139992  28.5349978  83.2380014  70.5059992  27.1319978  83.3340014
  70.8189992  27.7619978  81.7040014  72.3969992  26.5859978  82.4460014
  73.0879992  27.0959978  81.7430014  72.8949992  26.3509978  83.4110014
  71.9039992  25.3069978  81.7490014  71.1379992  24.7209978  82.3010014
  71.3929992  25.7969978  80.8930014  72.9189992  24.2699978  81.2080014
  73.6159992  24.1889978  82.0700014  72.3959992  23.3119978  81.0000014
  73.6019992  24.7109978  79.9170014  72.8069992  24.8379978  79.1520014
  74.0959992  25.6989978  80.0330014  74.5699992  23.5559978  79.4560014
  75.3889992  23.4359978  80.1970014  73.9769992  22.6179978  79.4990014
  75.2469992  23.8629978  78.1060014  75.5219992  24.9349978  78.0190014
  76.0829992  23.1319978  78.1410014  74.3049992  23.5469978  76.9040014
  73.6879992  22.6259978  76.9800014  73.6149992  24.4159978  76.8460014
  75.0199992  23.6689978  75.5420014  75.6979992  22.8129978  75.3390014
  74.3269992  23.6629978  74.6730014  75.7539992  24.9309978  75.1550014
  75.0469992  25.7839978  75.2300014  76.5439992  25.0289978  75.9300014
  76.4629992  24.8179978  73.7620014  77.3079992  24.0979978  73.7150014
  75.6649992  24.3719978  73.1320014  77.0329992  26.1059978  73.2560014
  77.7069992  26.4329978  74.0770014  77.6479992  26.0069978  72.3360014
  75.9219992  27.2249978  72.9790014  75.1949992  26.7539978  72.2840014
  75.2349992  27.3979978  73.8340014  76.5519992  28.5319978  72.4190014
  77.2759992  28.9609978  73.1450014  77.1249992  28.4019978  71.4760014
  75.4959992  29.6079978  72.2210014  74.9259992  29.8919978  73.1310014
  76.0379992  30.5169978  71.8840014  74.4659992  29.2559978  71.2180014
  73.3549992  28.8539978  71.4130014  75.0429992  29.4859978  70.0360014
  74.2829992  29.2929978  68.8750014  73.1969992  29.2979978  69.1090014
  74.5199992  30.1309978  68.1860014  74.7359992  28.0039978  68.1700014
  75.8389992  28.1209978  68.1050014  74.1589992  27.8519978  66.7360014
  74.1359992  28.8739978  66.3010014  74.7489992  27.2049978  66.0520014
  72.8399992  27.3359978  66.7080014  72.2079992  27.4529978  65.2760014
  73.1989992  26.6449978  64.3940014  73.2599992  25.2119978  64.2950014
  73.8189992  24.9699978  65.2240014  72.2149992  24.8429978  64.3770014
  73.8289992  24.4739978  63.0090014  73.7319992  23.3989978  63.0450014
  73.2389992  24.8969978  62.2100014  75.2549992  24.7619978  62.7680014
  76.1539992  24.1979978  63.8130014  77.1879992  24.3879978  63.5650014
  75.8409992  24.5409978  64.7880014  76.0879992  23.1209978  63.8430014
  75.7089992  24.2779978  61.4160014  74.8989992  24.3259978  60.7030014
  76.5009992  24.9379978  61.0960014  76.2339992  23.3449978  61.5600014
  75.3589992  26.2589978  62.7150014  74.7269992  26.7519978  61.9910014
  76.3529992  26.4639978  62.3440014  75.3909992  26.7189978  63.6910014
  70.8019992  26.8349978  65.2670014  72.2299992  28.8889978  64.8440014
  74.4309992  26.8949978  68.9720014  74.7059992  25.6459978  68.6150014
  75.2399992  25.3129978  67.6200014  74.1199992  24.6169978  69.6690014
  74.3689992  25.0009978  70.6810014  74.6489992  23.6429978  69.5870014
  72.5889992  24.3329978  69.3440014  72.4729992  24.1839978  68.2500014
  72.1259992  25.3189978  69.5670014  71.9699992  23.1139978  70.1380014
  72.2499992  22.1919978  69.5850014  70.8589992  23.1159978  70.1200014
  72.2109992  22.9659978  71.6330014  73.2899992  22.9269978  71.8960014
  71.6939992  22.0539978  72.0020014  71.7829992  24.1349978  72.5330014
  72.2929992  25.0329978  72.1240014  72.1099992  24.0369978  73.5900014
  70.2729992  24.3889978  72.5260014  69.8449992  23.4479978  72.9300014
  69.9069992  24.7289978  71.5330014  69.8689992  25.3909978  73.5840014
  70.4059992  25.0609978  74.4990014  68.7809992  25.2379978  73.7510014
  70.1979992  26.8509978  73.2270014  69.4329992  27.2879978  72.5690014
  71.2839992  27.5809978  73.5280014  71.3189992  28.5199978  72.9560014
  72.5059992  27.2099978  74.2880014  73.3779992  27.3279978  73.6090014
  72.3579992  26.1789978  74.6750014  72.6989992  28.2199978  75.4070014
  71.7279992  28.1439978  75.9410014  72.8939992  29.2629978  75.0790014
  73.9009992  27.9119978  76.3320014  74.7769992  28.0159978  75.6570014
  73.7739992  26.8549978  76.6500014  73.8439992  28.7129978  77.6150014
  73.0019992  28.3969978  78.2670014  73.7869992  29.8079978  77.4370014
  75.1579992  28.6339978  78.4130014  76.0339992  29.0469978  77.8680014
  75.2819992  27.5799978  78.7430014  75.0299992  29.4879978  79.6360014
  74.0669992  29.3259978  80.1660014  75.1319992  30.5029978  79.1950014
  76.2089992  29.3469978  80.6160014  76.0809992  30.2099978  81.3040014
  77.1399992  29.5799978  80.0550014  76.1669992  28.0629978  81.3240014
  75.1259992  27.9069978  81.6790014  76.8349992  28.0299978  82.2100014
  76.5219992  27.2289978  80.6820014  31.4479992 112.2679978  81.5380014
  30.6799992 112.6439978  82.2470014  32.4299992 112.1439978  82.0430014
  31.2719992 111.2599978  81.1060014  31.4389992 113.2929978  80.3620014
  32.3109992 113.0619978  79.7140014  30.4839992 113.1099978  79.8240014
  31.5119992 114.8129978  80.7510014  31.2779992 115.4389978  79.8630014
  30.6389992 115.0399978  81.4000014  32.9029992 115.1989978  81.2310014
  33.0009992 116.2849978  81.4410014  33.1679992 114.7109978  82.1930014
  34.1159992 115.0599978  80.3030014  34.3149992 113.9739978  80.1830014
  33.8799992 115.4939978  79.3080014  35.3879992 115.7609978  80.8640014
  35.2529992 116.8529978  81.0190014  35.6739992 115.3819978  81.8690014
  36.5769992 115.4769978  79.9120014  37.4609992 115.9989978  80.3370014
  36.6269992 114.3679978  79.9630014  36.4859992 115.9169978  78.4740014
  35.5789992 115.3339978  78.2070014  36.4019992 117.0099978  78.2930014
  37.6499992 115.3649978  77.6130014  38.5899992 115.6999978  78.1010014
  37.4959992 114.2809978  77.8020014  37.5189992 115.7199978  76.1050014
  36.5389992 115.2859978  75.8140014  37.4759992 116.8299978  76.1250014
  38.7239992 115.3419978  75.1630014  39.6389992 115.7229978  75.6660014
  38.6289992 114.2549978  74.9530014  38.6649992 116.1609978  73.7880014
  38.7149992 117.2379978  74.0570014  39.4679992 115.8019978  73.1090014
  37.3409992 115.8199978  73.0900014  37.3529992 114.7649978  72.7410014
  36.4759992 115.9779978  73.7690014  37.1729992 116.7329978  71.8360014
  36.6729992 117.6989978  72.0620014  38.2039992 117.0279978  71.5480014
  36.3759992 115.9659978  70.7210014  35.5989992 115.3629978  71.2370014
  35.9909992 116.8389978  70.1510014  37.2869992 115.1209978  69.8750014
  38.4909992 115.0589978  70.0060014  36.5999992 114.4039978  68.9590014
  37.4649992 113.5379978  68.1650014  38.3129992 114.1519978  67.7940014
  37.9169992 112.6809978  68.7080014  36.6849992 113.0179978  66.9390014
  37.4199992 112.5119978  66.2770014  36.0979992 114.2579978  66.0410014
  36.1409992 115.1799978  66.6600014  36.6589992 114.3869978  65.0910014
  34.7389992 114.0879978  65.6340014  33.8549992 115.3369978  65.4640014
  32.4229992 114.6799978  65.1950014  31.5339992 115.4029978  64.3140014
  30.5219992 115.3809978  64.7720014  31.7919992 116.4829978  64.3010014
  31.5519992 114.9889978  62.8730014  30.8859992 115.6719978  62.3670014
  32.5539992 115.0649978  62.4760014  31.0759992 113.5149978  62.5900014
  29.7819992 113.3629978  63.3760014  29.0609992 114.0829978  63.0190014
  29.2849992 112.4099978  63.2730014  30.0069992 113.6499978  64.3930014
  30.8309992 113.3429978  61.1060014  30.1609992 112.5009978  61.0100014
  30.3149992 114.2259978  60.7610014  31.6839992 113.1609978  60.4700014
  32.0509992 112.4309978  63.0110014  33.0009992 112.4259978  62.4970014
  31.5949992 111.4669978  62.8400014  32.1499992 112.5019978  64.0840014
  33.7659992 116.1159978  66.7350014  34.3199992 116.0309978  64.2080014
  35.5949992 112.1839978  67.3660014  35.9089992 110.9429978  67.6260014
  36.9899992 110.3309978  67.4140014  34.7169992 110.1889978  68.1750014
  34.3459992 110.5799978  69.1460014  35.1049992 109.2179978  68.5490014
  33.6359992 110.0649978  67.1670014  33.0379992 109.2179978  67.5660014
  33.9199992 109.7759978  66.1330014  32.7059992 111.2989978  66.8940014
  31.8459992 110.8709978  66.3350014  33.1279992 111.9909978  66.1330014
  32.3649992 112.2869978  68.1070014  33.2419992 112.9669978  68.0490014
  32.3089992 111.6549978  69.0190014  31.0229992 113.0239978  67.9910014
  30.2769992 112.2529978  68.2810014  30.6289992 113.3769978  67.0140014
  30.9439992 114.1739978  69.0500014  30.0389992 114.7469978  68.7550014
  31.7419992 114.9229978  68.8640014  30.9159992 113.7639978  70.4940014
  31.8659992 113.2239978  70.6980014  30.0239992 113.1139978  70.6150014
  30.6279992 115.0139978  71.3310014  29.5829992 115.3549978  71.2890014
  31.5129992 115.4719978  72.2780014  31.4089992 116.3439978  72.9400014
  32.8589992 114.7599978  72.6300014  33.7749992 115.2659978  72.2560014
  32.9419992 113.7289978  72.2250014  33.2029992 114.4489978  74.1390014
  33.0919992 115.4379978  74.6330014  34.2759992 114.1629978  74.1470014
  32.3639992 113.3629978  74.7970014  32.4719992 112.4789978  74.1330014
  31.3109992 113.6969978  74.9170014  32.7539992 112.9819978  76.2510014
  32.2059992 112.0709978  76.5720014  32.5639992 113.8779978  76.8810014
  34.2549992 112.6759978  76.3970014  34.9389992 113.4419978  75.9730014
  34.4519992 111.7449978  75.8240014  34.6119992 112.4289978  77.8850014
  34.0359992 113.1719978  78.4780014  35.7039992 112.5949978  77.9980014
  34.2839992 111.0139978  78.4560014  34.6149992 110.2659978  77.7040014
  33.1859992 110.8979978  78.5840014  34.9429992 110.6219978  79.7870014
  36.0399992 110.6419978  79.6150014  34.6619992 109.5619978  79.9620014
  34.5949992 111.1999978  80.6690014  39.2439992 117.7649978  82.6970014
  38.4769992 118.1969978  83.3740014  40.2299992 117.9809978  83.1620014
  39.0069992 116.6799978  82.6960014  38.8389992 118.2379978  81.2340014
  37.7539992 118.0089978  81.1660014  38.8939992 119.3409978  81.1110014
  39.5139992 117.5009978  80.0660014  40.5869992 117.7839978  80.0180014
  39.5399992 116.4339978  80.3740014  38.8459992 117.6579978  78.6830014
  37.7579992 117.4309978  78.6860014  38.9099992 118.6929978  78.2850014
  39.3219992 116.6959978  77.5540014  39.2919992 115.6609978  77.9560014
  38.6419992 116.8439978  76.6880014  40.7829992 116.9609978  77.0120014
  41.4679992 116.9549978  77.8860014  41.1589992 116.2009978  76.2940014
  40.9399992 118.3499978  76.2990014  40.3839992 118.2259978  75.3450014
  40.2839992 119.0769978  76.8240014  42.2729992 118.9289978  75.9820014
  42.8919992 119.1429978  76.8800014  42.8499992 118.2299978  75.3400014
  42.0159992 120.2429978  75.2320014  41.4459992 120.9549978  75.8660014
  43.0139992 120.6739978  75.0020014  41.4579992 120.1469978  73.8240014
  42.1139992 119.5089978  73.1930014  40.4389992 119.7059978  73.8130014
  41.2939992 121.5559978  73.2640014  40.5769992 122.1509978  73.8700014
  42.2429992 122.1329978  73.2960014  40.9119992 121.7739978  71.7400014
  40.8669992 122.8819978  71.6700014  41.7099992 121.3629978  71.0840014
  39.5229992 121.2119978  71.5020014  39.7109992 120.1299978  71.6710014
  38.7979992 121.6349978  72.2300014  38.9099992 121.5719978  70.1800014
  37.8269992 121.3509978  70.2920014  39.1959992 122.6459978  70.1580014
  39.3969992 120.9379978  68.9350014  38.9429992 121.5059978  68.0950014
  40.5009992 120.9769978  68.8090014  38.9509992 119.5329978  68.7000014
  38.3089992 118.9719978  69.6200014  39.3509992 118.9829978  67.5730014
  39.2619992 117.5849978  67.4650014  40.1439992 117.3179978  66.8450014
  39.3519992 117.0929978  68.4570014  37.9649992 117.2299978  66.6980014
  37.8159992 116.1289978  66.7020014  37.8299992 117.7569978  65.2780014
  38.7569992 117.4219978  64.7660014  37.0219992 117.1509978  64.8150014
  37.6919992 119.1719978  65.2730014  37.3249992 119.8989978  63.9100014
  38.7089992 120.4979978  63.4460014  39.3579992 121.4689978  64.2850014
  39.0409992 122.4689978  63.9210014  38.9579992 121.3139978  65.3100014
  40.8559992 121.5499978  63.9740014  40.9479992 121.9449978  62.9720014
  41.1919992 122.2499978  64.7250014  41.7469992 120.3679978  64.0920014
  41.7429992 120.0149978  65.5950014  42.3089992 119.1229978  65.8180014
  42.3139992 120.7999978  66.0690014  40.7589992 119.8699978  66.0170014
  41.2439992 119.1589978  63.2250014  41.2189992 119.5669978  62.2260014
  41.9909992 118.3819978  63.3050014  40.2599992 118.7819978  63.4600014
  43.0929992 120.8669978  63.5760014  43.1889992 121.9409978  63.5230014
  43.1079992 120.5419978  62.5460014  43.9159992 120.3899978  64.0880014
  36.8819992 118.9469978  62.9310014  36.3249992 120.9669978  64.2000014
  36.8949992 117.8469978  67.2470014  36.2959992 117.3369978  68.2810014
  36.6209992 116.3579978  68.9260014  35.0549992 118.1929978  68.6060014
  34.3789992 118.2109978  67.7240014  35.4649992 119.1869978  68.8860014
  34.3129992 117.6249978  69.8760014  34.2219992 116.5229978  69.7740014
  33.2849992 118.0309978  69.7670014  34.8609992 118.1019978  71.2170014
  34.9079992 119.2119978  71.2610014  35.8729992 117.6559978  71.3200014
  33.9309992 117.6069978  72.3710014  34.0639992 116.5119978  72.5090014
  32.9029992 117.8499978  72.0280014  34.2589992 118.3549978  73.6780014
  33.6649992 117.9069978  74.5030014  34.0949992 119.4479978  73.5680014
  35.7519992 118.2849978  74.0350014  36.4609992 118.8739978  73.4140014
  36.1999992 117.2739978  73.9350014  35.8879992 118.5389978  75.5760014
  36.8949992 118.3319978  75.9980014  35.1739992 117.8779978  76.1120014
  35.4169992 119.9749978  75.8400014  35.7609992 120.7909978  75.1880014
  34.6859992 120.4219978  76.8370014  34.4299992 121.4899978  76.7880014
  34.2019992 119.5549978  77.9470014  34.2289992 118.4729978  77.6950014
  33.1249992 119.8119978  78.0370014  34.9979992 119.7759978  79.2540014
  36.0909992 119.8929978  79.0890014  34.8439992 118.8529978  79.8530014
  34.5989992 121.0519978  80.0520014  33.5399992 121.0409978  80.3870014
  34.7279992 121.8669978  79.3080014  35.5439992 121.4499978  81.2350014
  36.2919992 122.1999978  80.8990014  36.1299992 120.6369978  81.7140014
  34.6849992 122.1209978  82.3750014  34.2619992 121.1589978  82.7330014
  33.7909992 122.6779978  82.0230014  35.5789992 122.7989978  83.4930014
  35.0019992 123.0129978  84.4190014  35.9959992 123.7009978  82.9970014
  36.7149992 121.9589978  84.0740014  37.4649992 122.6219978  84.5560014
  37.3829992 121.3699978  83.4100014  36.0909992 120.9959978  85.1030014
  36.7239992 120.0959978  85.2580014  35.1169992 120.6069978  84.7350014
  36.0209992 121.4879978  86.0960014  24.0149992  53.1909978  82.3860014
  24.2739992  52.3419978  83.0550014  24.3999992  54.0659978  82.9500014
  24.6179992  53.0769978  81.4600014  22.4909992  53.2009978  82.1000014
  22.0369992  53.4749978  83.0760014  22.3369992  54.0049978  81.3490014
  21.9249992  51.7999978  81.6710014  22.5159992  50.9759978  82.1250014
  20.9269992  51.7869978  82.1590014  21.7849992  51.6189978  80.2120014
  21.2759992  52.4749978  79.7190014  22.7899992  51.5359978  79.7460014
  21.1309992  50.3229978  79.7420014  21.7789992  49.6049978  80.2890014
  20.1059992  50.1959978  80.1530014  21.2489992  50.0579978  78.2660014
  20.9769992  50.8409978  77.5260014  22.2939992  49.7899978  78.0010014
  20.3829992  48.8219978  77.9540014  20.8349992  47.9719978  78.5090014
  19.3519992  49.0829978  78.2770014  20.3709992  48.3309978  76.4450014
  19.6709992  47.5029978  76.2000014  20.0119992  49.1659978  75.8060014
  21.7169992  47.9239978  75.7590014  22.4689992  48.7359978  75.8450014
  22.2179992  47.0769978  76.2740014  21.4849992  47.5279978  74.2320014
  20.9839992  46.5379978  74.2910014  20.8689992  48.2579978  73.6640014
  22.8999992  47.4359978  73.5540014  23.3609992  48.4419978  73.4590014
  23.4899992  46.8689978  74.3060014  22.9519992  46.7649978  72.1700014
  24.0249992  46.5339978  71.9920014  22.3609992  45.8249978  72.2220014
  22.5599992  47.7829978  71.0480014  21.5859992  48.2269978  71.3440014
  23.3749992  48.5079978  70.8380014  22.2489992  47.0619978  69.7460014
  22.9819992  46.2329978  69.6430014  21.3089992  46.4939978  69.9130014
  22.3059992  47.8979978  68.4390014  23.2439992  48.4809978  68.3150014
  22.3249992  47.1349978  67.6310014  21.1369992  48.8309978  68.2160014
  20.6269992  49.6159978  69.0160014  20.6369992  48.4999978  66.9840014
  19.4579992  49.1919978  66.5420014  19.0509992  48.4069978  65.8690014
  18.7649992  49.4079978  67.3820014  19.7199992  50.5329978  65.7760014
  18.8149992  51.1759978  65.8200014  20.2449992  50.3799978  64.3330014
  19.5109992  49.7999978  63.7330014  20.4789992  51.3609978  63.8680014
  21.5909992  49.8079978  64.3580014  22.2819992  48.9629978  63.3010014
  23.7509992  49.5059978  63.2210014  24.0149992  50.9009978  63.3520014
  24.7499992  51.1619978  62.5610014  23.1029992  51.5049978  63.1570014
  24.9009992  51.1219978  64.5830014  25.1409992  52.1669978  64.7140014
  24.2829992  50.6669978  65.3430014  26.1779992  50.3589978  64.8860014
  25.8189992  48.9659978  65.3410014  24.9779992  48.5119978  64.8390014
  26.7229992  48.3839978  65.2460014  25.7759992  48.9499978  66.4200014
  26.9819992  50.2359978  63.6920014  26.6319992  49.5159978  62.9660014
  27.2569992  51.1609978  63.2080014  27.8659992  49.6439978  63.8760014
  26.9929992  51.1059978  65.9530014  27.8419992  50.5569978  66.3310014
  26.3709992  51.2379978  66.8260014  27.2349992  52.0829978  65.5630014
  22.2689992  47.5579978  63.7680014  21.5459992  49.2429978  62.0500014
  20.6909992  51.2529978  66.5270014  21.1059992  52.4519978  66.3400014
  20.7859992  53.1869978  65.4170014  22.1529992  52.7909978  67.4250014
  22.7709992  51.9019978  67.6750014  21.6219992  53.1699978  68.3250014
  23.0279992  54.0389978  67.0230014  22.3429992  54.8379978  66.6680014
  23.7229992  53.7469978  66.2070014  23.9679992  54.4699978  68.1140014
  23.4809992  54.4009978  69.1100014  24.3609992  55.4939978  67.9380014
  25.1369992  53.5179978  68.3330014  25.9759992  53.8309978  67.6750014
  24.9039992  52.5359978  67.8700014  25.6669992  53.1619978  69.7490014
  26.0729992  54.1429978  70.0780014  26.4049992  52.3499978  69.5710014
  24.5329992  52.6059978  70.6340014  23.9019992  51.8349978  70.1430014
  23.9019992  53.4539978  70.9780014  25.0819992  51.8579978  71.8520014
  25.6869992  50.9689978  71.5740014  24.1819992  51.4919978  72.3910014
  25.8299992  52.8179978  72.7770014  26.5939992  53.4269978  72.2720014
  25.6069992  53.0719978  74.0870014  26.3059992  53.7489978  74.6010014
  24.5589992  52.4119978  74.9640014  23.7489992  52.1519978  74.2490014
  24.0109992  53.1189978  75.6240014  24.9829992  51.1699978  75.7620014
  25.2719992  50.4329978  74.9820014  24.1119992  50.8049978  76.3470014
  26.1719992  51.4069978  76.6590014  25.9609992  52.2659978  77.3300014
  26.9429992  51.5179978  75.8660014  26.4979992  50.2199978  77.5790014
  27.5579992  50.2939978  77.9020014  26.4439992  49.4149978  76.8160014
  25.5839992  50.0779978  78.7580014  24.5259992  50.0689978  78.4200014
  25.7129992  50.9919978  79.3770014  25.7679992  48.7799978  79.5000014
  26.7709992  48.8199978  79.9750014  25.8929992  47.9989978  78.7190014
  24.5749992  48.5309978  80.4290014  23.6699992  48.6389978  79.7950014
  24.5119992  49.3469978  81.1810014  24.5269992  47.0769978  80.9470014
  24.4729992  46.3179978  80.1370014  23.6049992  46.8669978  81.5310014
  25.4459992  46.9769978  81.5640014  32.4999992  36.3729978  87.2880014
  33.1959992  35.7749978  87.9150014  31.6259992  35.7499978  87.0030014
  32.2399992  37.3069978  87.8310014  33.1859992  36.7199978  85.9330014
  33.3149992  35.7639978  85.3800014  32.5549992  37.3859978  85.3070014
  34.5489992  37.3989978  86.0050014  34.4259992  38.3339978  86.5920014
  35.2159992  36.7489978  86.6110014  35.3869992  37.6799978  84.6510014
  34.7279992  38.3629978  84.0740014  36.3339992  38.1659978  84.9700014
  35.6629992  36.4239978  83.8250014  35.9619992  35.5369978  84.4240014
  34.6349992  36.0999978  83.5530014  36.5789992  36.7189978  82.5830014
  36.3329992  37.5939978  81.9440014  37.5559992  36.9669978  83.0490014
  36.9379992  35.4589978  81.8110014  38.0199992  35.4779978  81.5590014
  36.5959992  34.5919978  82.4150014  36.1959992  35.3049978  80.4470014
  36.5419992  34.3389978  80.0220014  35.1109992  35.2489978  80.6810014
  36.4259992  36.4569978  79.4640014  36.0159992  37.4539978  79.7350014
  37.5159992  36.5639978  79.2780014  35.7449992  36.0029978  78.1250014
  34.7429992  35.6219978  78.4160014  35.5549992  36.8399978  77.4190014
  36.3889992  34.7229978  77.5130014  37.2499992  34.4219978  78.1480014
  35.6739992  33.8729978  77.5200014  36.9519992  34.8089978  76.0850014
  37.3609992  35.8349978  75.9610014  37.7759992  34.0649978  76.1200014
  35.8899992  34.5279978  74.9760014  36.3929992  33.8119978  74.2910014
  35.0899992  34.0029978  75.5410014  35.3769992  35.7649978  74.2470014
  34.9619992  36.5099978  74.9600014  36.0499992  36.2899978  73.5360014
  34.1609992  35.2869978  73.4680014  33.4779992  34.6269978  74.0460014
  33.5579992  36.1849978  73.2140014  34.6529992  34.7519978  72.1280014
  35.6619992  34.0409978  71.9810014  33.7429992  34.9969978  71.1870014
  33.9389992  34.4919978  69.8380014  34.9639992  34.7739978  69.5150014
  33.5919992  33.4429978  69.7260014  33.0589992  35.3729978  68.8500014
  32.0569992  35.4299978  69.3260014  33.0489992  34.7789978  67.4220014
  34.1159992  34.7379978  67.1180014  32.5729992  33.7749978  67.4250014
  32.2059992  35.6419978  66.6470014  32.1159992  35.1949978  65.0620014
  33.5509992  35.6879978  64.6450014  33.8669992  37.1329978  64.7650014
  33.1479992  37.7059978  65.3880014  34.7829992  37.2459978  65.3830014
  34.1879992  37.7619978  63.4570014  33.4889992  37.3639978  62.7360014
  34.1739992  38.8299978  63.6150014  35.5679992  37.4579978  62.8200014
  35.7579992  35.9479978  62.8600014  36.7799992  35.6479978  62.6800014
  35.5459992  35.4659978  63.8030014  35.1059992  35.4289978  62.1730014
  35.5849992  37.9929978  61.3760014  35.4339992  39.0619978  61.3570014
  36.4999992  37.7549978  60.8540014  34.7719992  37.5639978  60.8080014
  36.6929992  38.2179978  63.5270014  36.3269992  39.2349978  63.5140014
  37.4759992  38.2659978  62.7850014  36.7469992  37.8629978  64.5460014
  31.9149992  33.7349978  64.9290014  31.1079992  36.0869978  64.4190014
  33.6359992  36.6939978  68.8450014  32.8149992  37.7259978  68.7690014
  31.6309992  37.7049978  68.4680014  33.4579992  39.0169978  69.2210014
  33.3009992  39.6999978  68.3590014  34.5449992  38.8979978  69.4170014
  32.6879992  39.5679978  70.4380014  31.7109992  39.0649978  70.6010014
  32.4069992  40.6329978  70.2890014  33.5589992  39.3369978  71.7000014
  34.4939992  39.9189978  71.5550014  33.8629992  38.2729978  71.8010014
  32.7659992  39.6619978  73.0490014  31.7009992  39.3549978  72.9710014
  32.6269992  40.7609978  73.1430014  33.3239992  38.9999978  74.2770014
  34.2649992  39.5739978  74.4180014  33.6619992  37.9769978  74.0070014
  32.4119992  39.1459978  75.5170014  31.4529992  38.6129978  75.3390014
  32.0999992  40.2129978  75.5060014  33.0379992  38.7049978  76.8190014
  33.5869992  37.7669978  76.5910014  32.2199992  38.3429978  77.4780014
  33.9509992  39.6639978  77.6060014  34.5299992  40.3599978  76.9800014
  34.0979992  39.6649978  78.9440014  34.7939992  40.4019978  79.3730014
  33.4509992  38.7829978  79.9390014  33.9249992  38.8829978  80.9390014
  33.5269992  37.7099978  79.6610014  31.9689992  39.0209978  80.3100014
  31.1939992  39.1339978  79.5210014  31.8959992  39.9079978  80.9750014
  31.3279992  37.8989978  81.2590014  30.4159992  38.4249978  81.6150014
  32.0239992  37.7589978  82.1130014  31.2039992  36.6049978  80.4550014
  32.1359992  36.1949978  80.0110014  30.5689992  36.8629978  79.5800014
  30.4149992  35.5039978  81.1790014  30.2089992  34.6849978  80.4570014
  29.3949992  35.8179978  81.4870014  31.0719992  34.9239978  82.5040014
  30.5179992  34.0079978  82.8020014  30.8539992  35.7159978  83.2530014
  32.5779992  34.7339978  82.4620014  32.9789992  34.5129978  83.4740014
  33.0229992  35.6739978  82.0730014  33.0269992  33.5119978  81.6070014
  33.9939992  33.1189978  81.9880014  33.0079992  33.8549978  80.5510014
  32.1899992  32.8039978  81.7830014  64.1769992 126.8859978  86.1230014
  63.4229992 126.8109978  86.9360014  64.6259992 127.8989978  86.2120014
  64.9789992 126.1379978  86.3030014  63.5619992 126.7289978  84.8110014
  62.9919992 125.7839978  84.6890014  62.8179992 127.5329978  84.6240014
  64.5629992 126.9319978  83.7130014  64.6619992 128.0379978  83.7220014
  65.4999992 126.3649978  83.9010014  63.9779992 126.4689978  82.3470014
  63.7059992 125.3919978  82.3490014  63.1729992 127.1809978  82.0640014
  64.9679992 126.5419978  81.1120014  65.3299992 127.5849978  80.9850014
  65.7899992 125.8339978  81.3540014  64.3519992 126.1519978  79.7230014
  64.0659992 125.0839978  79.8280014  63.4569992 126.8059978  79.6520014
  65.3019992 126.5179978  78.6190014  65.3259992 127.6209978  78.4930014
  66.3139992 126.1109978  78.8290014  64.9879992 126.1219978  77.1580014
  64.9769992 125.0139978  77.2420014  63.9659992 126.4659978  76.8930014
  65.9909992 126.5609978  76.0290014  67.0009992 126.3719978  76.4510014
  65.7769992 125.9959978  75.0970014  65.9339992 128.1249978  75.7600014
  66.5389992 128.5439978  76.5910014  66.3969992 128.2739978  74.7610014
  64.5359992 128.8799978  75.7750014  63.8489992 128.1729978  75.2630014
  64.1909992 129.1019978  76.8080014  64.5459992 130.2099978  75.1520014
  63.5039992 130.5929978  75.1060014  65.1529992 130.9449978  75.7230014
  65.0989992 130.2969978  73.7210014  64.9439992 131.3859978  73.5670014
  66.1759992 130.1159978  73.5160014  64.2209992 129.4859978  72.8140014
  64.2399992 128.3769978  72.8790014  63.1839992 129.7859978  73.0750014
  64.5589992 129.9099978  71.3440014  63.5769992 129.9329978  70.8250014
  64.9729992 130.9349978  71.2330014  65.5659992 128.9459978  70.8260014
  66.7899992 128.9079978  71.0050014  64.9089992 128.1259978  70.0330014
  65.4569992 127.0589978  69.2240014  66.3109992 127.3979978  68.5980014
  65.6229992 126.2199978  69.9320014  64.3269992 126.6039978  68.1770014
  64.6339992 125.7039978  67.6040014  64.0439992 127.7849978  67.2190014
  64.1119992 128.7189978  67.8170014  64.8719992 127.8319978  66.4790014
  62.7429992 127.7659978  66.7540014  62.5019992 127.8589978  65.2110014
  63.2169992 126.6059978  64.5770014  63.0269992 125.2269978  65.0630014
  64.0099992 124.7179978  65.1490014  62.5879992 125.2449978  66.0840014
  62.0569992 124.5039978  64.1560014  61.8779992 123.4969978  64.5060014
  61.1399992 125.0649978  64.2600014  62.2989992 124.3869978  62.6230014
  61.7239992 123.0709978  62.1420014  61.8239992 122.9829978  61.0700014
  62.1399992 122.2349978  62.6840014  60.6539992 123.1729978  62.2530014
  61.5799992 125.5159978  61.9000014  60.5279992 125.4779978  62.1410014
  61.9949992 126.4899978  62.1120014  61.6329992 125.3399978  60.8360014
  63.7379992 124.4009978  62.4320014  64.3069992 123.7479978  63.0770014
  64.2449992 125.3199978  62.6830014  63.9579992 124.2629978  61.3830014
  61.0669992 127.8519978  64.9980014  63.1199992 129.0489978  64.6490014
  63.1079992 126.2169978  68.8270014  63.1889992 125.0769978  69.5510014
  64.1209992 124.3459978  69.6050014  61.9389992 124.8179978  70.3250014
  61.3649992 123.9769978  69.8800014  61.2179992 125.6639978  70.3140014
  62.2299992 124.5039978  71.7700014  62.8409992 123.6039978  71.9960014
  61.2319992 124.3669978  72.2380014  62.7209992 125.7369978  72.5820014
  62.3849992 126.6689978  72.0790014  63.8269992 125.6349978  72.5620014
  62.0159992 125.8089978  73.9350014  62.7239992 126.3829978  74.5700014
  61.8889992 124.7689978  74.3050014  60.6939992 126.7219978  73.9360014
  59.9759992 125.9139978  73.6790014  60.8429992 127.5859978  73.2530014
  60.5679992 127.3359978  75.3130014  59.6699992 127.9879978  75.3750014
  61.4259992 128.0349978  75.4080014  60.4429992 126.3399978  76.4840014
  60.2519992 127.0689978  77.3000014  61.4319992 125.9599978  76.8190014
  59.4149992 125.2609978  76.2450014  58.8199992 125.3549978  75.3250014
  59.2339992 124.1179978  76.9620014  58.4419992 123.3849978  76.7510014
  59.9749992 123.6949978  78.1910014  61.0749992 123.5679978  78.1020014
  59.4329992 122.7969978  78.5600014  59.8839992 124.6489978  79.4040014
  58.8259992 124.7729978  79.7180014  60.4509992 125.5769978  79.1790014
  60.6959992 124.0019978  80.6200014  61.7149992 123.7349978  80.2670014
  60.0979992 123.0869978  80.8160014  60.7979992 124.9369978  81.8660014
  61.4399992 125.7669978  81.5020014  61.3149992 124.3519978  82.6570014
  59.3879992 125.2949978  82.4390014  58.6349992 124.4849978  82.3350014
  59.1099992 126.1759978  81.8210014  59.4559992 125.6929978  83.9050014
  60.3369992 126.3529978  84.0600014  59.6189992 124.7499978  84.4690014
  58.1579992 126.3669978  84.4000014  57.8679992 127.2879978  83.8510014
  58.2539992 126.8179978  85.4110014  56.8599992 125.4649978  84.4780014
  56.1119992 126.0889978  85.0120014  57.0949992 124.6359978  85.1780014
  56.4439992 125.1169978  83.5090014  98.2879992 114.5209978  82.3860014
  97.9229992 115.4559978  82.8610014  99.2099992 114.1519978  82.8860014
  97.4009992 113.9159978  82.6710014  98.3529992 114.4499978  80.9180014
  98.4439992 113.3639978  80.6980014  97.4079992 114.8329978  80.4790014
  99.5799992 115.0499978  80.1670014  99.3739992 115.0679978  79.0750014
  99.5629992 116.1379978  80.3910014 100.8769992 114.3499978  80.5660014
 101.0139992 114.3149978  81.6680014 100.6919992 113.2789978  80.3350014
 102.1589992 114.8199978  79.8550014 102.3799992 115.8159978  80.2960014
 102.9119992 114.1129978  80.2650014 102.0689992 114.6389978  78.3160014
 101.1629992 115.0919978  77.8620014 102.9009992 115.1859978  77.8250014
 102.1349992 113.1459978  77.9040014 103.0279992 112.7039978  78.3950014
 101.2199992 112.5479978  78.1020014 102.3479992 112.9119978  76.4280014
 103.1309992 113.5749978  76.0020014 102.6539992 111.8449978  76.3700014
 101.0169992 113.0149978  75.6010014 100.2949992 112.3599978  76.1340014
 100.6239992 114.0519978  75.6680014 101.0849992 112.4839978  74.2020014
 100.7859992 111.4149978  74.2490014 100.2329992 112.9279978  73.6430014
 102.2959992 112.8109978  73.3280014 102.5129992 113.8989978  73.3840014
 103.1649992 112.2489978  73.7320014 102.1489992 112.5329978  71.7800014
 101.4289992 113.2539978  71.3380014 103.1139992 112.7529978  71.2750014
 101.7579992 111.0559978  71.3990014 102.2329992 110.3849978  72.1470014
 100.6649992 110.8609978  71.4330014 102.0949992 110.8049978  69.8920014
 103.1729992 111.0719978  69.9250014 102.1339992 109.7299978  69.6110014
 101.3219992 111.5849978  68.8690014 101.5659992 112.6609978  68.9960014
 101.6799992 111.3039978  67.8560014  99.8139992 111.3709978  68.9390014
  99.2729992 110.3079978  69.1980014  99.2189992 112.5469978  68.7550014
  97.7929992 112.5399978  68.3550014  97.4539992 111.6479978  67.7850014
  97.0949992 112.8769978  69.1510014  97.7429992 113.5809978  67.1370014
  96.6849992 113.6489978  66.8070014  98.4879992 113.0309978  65.9030014
  99.2709992 112.4429978  66.4280014  97.7549992 112.4329978  65.3200014
  98.9429992 114.0719978  65.1100014 100.2659992 114.0359978  64.2520014
 101.0639992 115.3029978  64.8150014 100.6469992 116.6569978  64.6350014
 100.0609992 116.8389978  63.7090014  99.9649992 116.9669978  65.4560014
 101.9019992 117.5719978  64.7100014 101.6269992 118.6099978  64.8310014
 102.3599992 117.2649978  65.6390014 103.0319992 117.4109978  63.6490014
 104.1119992 118.3519978  64.1320014 104.7289992 117.8159978  64.8380014
 104.7789992 118.6549978  63.3380014 103.7229992 119.2179978  64.6460014
 103.6519992 116.0199978  63.4900014 104.5499992 116.1109978  62.8970014
 103.7769992 115.5519978  64.4550014 102.9879992 115.4329978  62.8720014
 102.5939992 117.8509978  62.3110014 102.5959992 118.9289978  62.2500014
 101.5709992 117.5269978  62.1880014 103.3539992 117.4899978  61.6330014
 101.0779992 112.8459978  64.5890014  99.9369992 114.1969978  62.8140014
  98.1979992 114.8179978  67.5780014  97.4249992 115.5389978  68.3750014
  96.3929992 115.1379978  68.8360014  97.9079992 117.0489978  68.5140014
  97.2679992 117.6739978  67.8550014  98.9819992 117.0789978  68.2300014
  97.7799992 117.5359978  69.9130014  98.4169992 116.8789978  70.5430014
  96.7429992 117.2569978  70.1960014  97.9939992 119.0719978  70.0810014
  97.1039992 119.5329978  69.6010014  98.8629992 119.4139978  69.4790014
  98.2669992 119.4809978  71.5150014  97.6239992 118.8299978  72.1460014
  98.1039992 120.5389978  71.8120014  99.7709992 119.2719978  71.9020014
 100.4959992 119.7639978  71.2190014  99.8189992 118.1829978  72.1150014
 100.0839992 119.9359978  73.3040014  99.7699992 120.9979978  73.2150014
 101.1699992 120.0409978  73.5150014  99.2299992 119.3939978  74.5070014
  98.1669992 119.4019978  74.1840014  99.4729992 120.0149978  75.3960014
  99.6349992 117.9479978  74.8350014  98.9929992 117.1569978  74.4180014
 100.6479992 117.5509978  75.6470014 100.8009992 116.5209978  76.0000014
 101.5399992 118.4899978  76.3900014 101.2239992 119.5509978  76.2850014
 102.5579992 118.4869978  75.9450014 101.6139992 118.0969978  77.8030014
 102.3229992 117.2419978  77.8460014 100.6189992 117.8639978  78.2390014
 102.2669992 119.2489978  78.6660014 101.7329992 120.1929978  78.4280014
 103.3119992 119.3419978  78.3000014 102.2609992 119.1589978  80.2370014
 102.8689992 120.0349978  80.5500014 102.6769992 118.1749978  80.5440014
 100.8489992 119.1329978  80.7810014 100.2259992 118.3619978  80.2790014
 100.3429992 120.0659978  80.4530014 100.7159992 118.9229978  82.2640014
  99.6399992 118.8169978  82.5180014 101.0929992 119.7519978  82.9000014
 101.3109992 117.5889978  82.7400014 102.4109992 117.7419978  82.6970014
 100.9429992 116.7689978  82.0870014 100.8509992 117.1709978  84.1580014
 101.4109992 116.2919978  84.5420014  99.7629992 117.0079978  84.0040014
 100.9889992 118.0239978  84.8560014  60.9229992  27.9709978  84.4760014
  59.9779992  27.5529978  84.8840014  60.6719992  28.9539978  84.0240014
  61.5839992  28.2659978  85.3200014  61.5839992  27.0709978  83.5870014
  62.3779992  27.6349978  83.0530014  62.0579992  26.2089978  84.1040014
  60.5399992  26.4369978  82.5950014  59.9939992  25.7309978  83.2560014
  59.9019992  27.2639978  82.2170014  61.2129992  25.7469978  81.3490014
  61.1309992  26.2769978  80.3760014  62.2689992  25.7649978  81.6930014
  60.8199992  24.2949978  81.2710014  60.7289992  23.8309978  82.2760014
  59.8589992  24.2999978  80.7140014  61.8269992  23.3919978  80.4900014
  62.7609992  23.2479978  81.0740014  61.3569992  22.3849978  80.5190014
  62.1659992  23.8829978  79.1130014  62.4509992  24.9539978  79.1790014
  62.9739992  23.3169978  78.6020014  60.8779992  23.7369978  78.2360014
  60.5899992  22.6919978  77.9930014  60.0309992  24.1649978  78.8140014
  61.1449992  24.5199978  76.9680014  61.3739992  25.5329978  77.3620014
  62.1359992  24.2249978  76.5610014  60.1779992  24.5099978  75.7610014
  60.4199992  23.5589978  75.2390014  59.0819992  24.5649978  75.9380014
  60.3969992  25.6969978  74.8190014  59.7359992  26.4999978  75.2100014
  61.4569992  26.0249978  74.8790014  60.0789992  25.4679978  73.3510014
  59.0109992  25.1619978  73.3360014  60.0689992  26.4499978  72.8320014
  60.9229992  24.3819978  72.6530014  60.8559992  23.4099978  73.1870014
  60.4499992  24.2389978  71.6580014  62.4759992  24.6269978  72.5750014
  62.8659992  25.5929978  72.1900014  62.7849992  24.4629978  73.6300014
  63.1279992  23.5079978  71.6560014  64.2209992  23.5139978  71.8560014
  62.8999992  22.4459978  71.8870014  62.9749992  23.9639978  70.1690014
  62.7069992  25.0859978  69.7900014  63.0639992  22.8459978  69.4810014
  62.8609992  22.9869978  68.0220014  63.0719992  24.0179978  67.6630014
  63.5659992  22.3109978  67.4930014  61.4049992  22.4029978  67.6870014
  61.3939992  21.3879978  68.1380014  61.0959992  22.2979978  66.1400014
  61.9519992  22.5079978  65.4640014  60.7139992  21.2929978  65.8600014
  59.9759992  23.1249978  65.8390014  60.1289992  24.5999978  65.2920014
  59.7199992  24.4429978  63.7840014  58.5499992  23.7559978  63.3650014
  58.6089992  23.6749978  62.2590014  58.5729992  22.7039978  63.7200014
  57.1629992  24.4899978  63.6650014  56.4589992  23.7189978  63.3890014
  57.1199992  24.5529978  64.7420014  56.8139992  25.8519978  62.9890014
  56.6549992  25.7029978  61.5120014  55.9949992  24.9009978  61.2170014
  56.5179992  26.6339978  60.9820014  57.5589992  25.3189978  61.0620014
  55.5049992  26.3769978  63.4730014  55.5649992  26.4369978  64.5500014
  55.2579992  27.3109978  62.9910014  54.7069992  25.6759978  63.2770014
  57.9849992  26.7529978  63.1970014  58.2139992  26.6589978  64.2490014
  57.6199992  27.7369978  62.9430014  58.8559992  26.3509978  62.7020014
  59.2829992  25.5289978  66.0160014  61.5599992  24.9709978  65.3720014
  60.4699992  23.2529978  68.3570014  59.2079992  22.7279978  68.6410014
  59.0579992  21.5009978  68.5350014  58.2769992  23.8199978  69.1410014
  58.1419992  24.5469978  68.3120014  58.7679992  24.3129978  70.0070014
  57.0479992  23.1249978  69.8270014  56.5249992  22.4519978  69.1140014
  56.3699992  23.9999978  69.9310014  57.5629992  22.5319978  71.1320014
  57.9359992  23.3269978  71.8120014  58.4289992  21.8849978  70.8720014
  56.4749992  21.7549978  71.8670014  56.1669992  20.9589978  71.1560014
  55.5929992  22.4229978  71.9670014  56.9179992  21.2029978  73.2390014
  56.1419992  20.4919978  73.5960014  56.9039992  22.0469978  73.9620014
  58.2379992  20.4889978  73.2970014  59.0019992  21.1089978  72.7800014
  58.0319992  19.5039978  72.8260014  58.8079992  20.3339978  74.7670014
  58.8039992  21.3029978  75.3110014  59.8929992  20.0969978  74.7290014
  58.1289992  19.2079978  75.5280014  58.3579992  18.1979978  75.1560014
  57.2989992  19.2849978  76.5840014  56.9219992  18.3629978  77.0510014
  56.7579992  20.4739978  77.2660014  56.6789992  21.2679978  76.4930014
  57.5579992  20.8719978  77.9260014  55.3959992  20.4189978  77.9100014
  55.2879992  19.5059978  78.5330014  54.5569992  20.3989978  77.1810014
  54.9309992  21.7009978  78.7260014  53.9019992  21.6039978  79.1340014
  54.8979992  22.6139978  78.0940014  55.8239992  21.9909978  79.8610014
  56.8049992  22.4119978  79.5540014  55.9769992  21.0769978  80.4740014
  55.3289992  23.0159978  80.9050014  54.3269992  22.6929978  81.2610014
  55.1309992  23.9749978  80.3800014  56.3249992  23.2359978  82.0650014
  55.8689992  24.0319978  82.6910014  57.2799992  23.5639978  81.6000014
  56.7769992  22.1569978  83.0900014  57.1079992  21.2179978  82.5980014
  55.8649992  21.8919978  83.6650014  57.8889992  22.6079978  84.1050014
  58.1669992  21.8959978  84.9110014  57.5219992  23.5219978  84.6190014
  58.7019992  22.8449978  83.3860014 105.4999992 111.2139978  80.7490014
 105.8269992 111.7059978  79.8080014 104.5109992 111.6359978  81.0300014
 105.2219992 110.1559978  80.5570014 106.5449992 111.3949978  81.8740014
 106.7339992 112.4859978  81.9720014 106.1209992 111.0599978  82.8440014
 107.8689992 110.5949978  81.6970014 108.4559992 110.9969978  80.8430014
 108.5359992 110.8329978  82.5520014 107.7529992 109.0979978  81.4720014
 106.9799992 108.6729978  82.1470014 107.3549992 109.0209978  80.4380014
 109.0289992 108.2599978  81.6200014 109.3719992 108.3419978  82.6730014
 108.8979992 107.1899978  81.3480014 110.2349992 108.7429978  80.7350014
 110.5039992 109.7769978  81.0400014 111.1289992 108.0859978  80.7990014
 109.9449992 108.7609978  79.2010014 109.6809992 107.7299978  78.8820014
 109.1469992 109.4889978  78.9420014 111.2229992 109.0629978  78.3500014
 111.7229992 110.0069978  78.6540014 112.0539992 108.3439978  78.5150014
 110.9209992 109.2979978  76.9130014 110.6339992 108.3709978  76.3720014
 110.1159992 110.0529978  76.7910014 112.0539992 109.8539978  76.0710014
 112.4099992 110.7699978  76.5890014 112.8979992 109.1339978  76.0110014
 111.5849992 110.0839978  74.6530014 111.2999992 109.0859978  74.2560014
 110.6869992 110.7369978  74.6170014 112.6569992 110.6379978  73.7960014
 113.0239992 111.5629978  74.2900014 113.3549992 109.7759978  73.7250014
 112.1469992 111.2049978  72.4620014 113.0319992 111.2639978  71.7920014
 111.5089992 110.4249978  71.9940014 111.3899992 112.5619978  72.5390014
 110.3359992 112.3649978  72.2490014 111.3879992 112.9469978  73.5810014
 111.8699992 113.5929978  71.4990014 111.5489992 114.5789978  71.8960014
 112.9659992 113.6689978  71.3290014 111.2539992 113.3219978  70.1240014
 110.1289992 113.5489978  69.7610014 112.1259992 112.5759978  69.4880014
 111.8139992 111.9929978  68.2190014 111.4109992 112.7839978  67.5510014
 112.7719992 111.7869978  67.6960014 110.9789992 110.7459978  68.2850014
 111.3859992 109.9619978  68.9580014 110.9089992 110.0279978  66.9120014
 111.8859992 109.5369978  66.7150014 110.2269992 109.1509978  66.9460014
 110.5049992 110.8439978  65.8130014 110.9459992 110.5129978  64.3410014
 110.3249992 111.6479978  63.4080014 109.9369992 112.7899978  64.0500014
 110.5089992 113.0619978  64.9630014 109.9239992 113.6709978  63.3730014
 108.4929992 112.7139978  64.6430014 108.5759992 112.0979978  65.5260014
 108.3119992 113.7129978  65.0110014 107.3879992 112.1589978  63.6810014
 107.3319992 110.6149978  63.7240014 108.1079992 110.1649978  63.1240014
 107.4539992 110.4379978  64.7830014 106.4429992 110.1399978  63.3350014
 106.0309992 112.5829978  64.2410014 106.0879992 113.6319978  64.4940014
 105.3839992 112.3339978  63.4130014 105.7819992 112.0479978  65.1450014
 107.6189992 112.6789978  62.3410014 107.8909992 113.7189978  62.2390014
 106.7979992 112.4749978  61.6700014 108.4079992 112.0529978  61.9500014
 112.4169992 110.6819978  64.2890014 110.4249992 109.2129978  63.9750014
 109.6689992 111.1809978  68.6720014 108.7199992 110.3329978  69.0590014
 108.8889992 109.1579978  69.3250014 107.3479992 111.0669978  69.1830014
 106.8449992 110.9499978  68.1990014 107.4939992 112.1319978  69.4640014
 106.5069992 110.4989978  70.3550014 106.3539992 109.4209978  70.1370014
 105.5109992 110.9899978  70.3720014 107.1289992 110.7499978  71.7830014
 107.4079992 111.8229978  71.7230014 108.0269992 110.1059978  71.9020014
 106.2399992 110.4599978  72.9620014 106.8409992 110.1469978  73.8420014
 105.5159992 109.6339978  72.7930014 105.4289992 111.7049978  73.4940014
 104.6959992 111.3189978  74.2340014 104.9489992 112.3119978  72.6970014
 106.3889992 112.5669978  74.2260014 107.3079992 112.6779978  73.6120014
 106.7339992 111.9989978  75.1160014 105.9389992 113.9249978  74.6680014
 105.2399992 113.9099978  75.5320014 105.4819992 114.4629978  73.8100014
 107.0739992 114.8589978  75.0320014 107.4049992 115.5259978  74.2220014
 107.7329992 114.8289978  76.1810014 108.5019992 115.5929978  76.3650014
 107.4709992 113.9419978  77.3610014 106.4229992 113.6209978  77.5400014
 107.5479992 114.6099978  78.2460014 108.3599992 112.7309978  77.5010014
 108.1779992 111.9839978  76.6990014 108.2439992 112.2629978  78.5010014
 109.8549992 113.0239978  77.4090014 110.1109992 113.4069978  76.3980014
 110.3999992 112.0569978  77.4480014 110.4989992 114.0459978  78.2860014
 109.9099992 114.9849978  78.3520014 111.4289992 114.3539978  77.7620014
 110.8029992 113.5979978  79.7100014 111.7409992 113.0139978  79.5990014
 109.8949992 113.0679978  80.0680014 110.9599992 114.7429978  80.7170014
 110.2889992 115.5689978  80.3970014 111.9659992 115.1779978  80.5350014
 110.9289992 114.4409978  82.2430014 111.7449992 113.7469978  82.5410014
 109.9749992 113.9009978  82.4230014 110.8929992 115.6349978  83.1300014
 111.9469992 115.9879978  83.1330014 110.5769992 115.3969978  84.1680014
 110.2009992 116.4349978  82.7890014  44.2439992 125.7679978  83.7800014
  44.6279992 124.8299978  83.3250014  43.1569992 125.7509978  83.5480014
  44.2369992 125.5889978  84.8760014  44.9839992 126.9939978  83.3760014
  44.7179992 127.9289978  83.9150014  46.0199992 126.8009978  83.7270014
  44.7869992 127.2889978  81.7980014  45.3199992 128.2329978  81.5530014
  45.2629992 126.4679978  81.2190014  43.3479992 127.4719978  81.3840014
  42.8209992 126.5059978  81.5330014  42.9049992 128.2659978  82.0230014
  43.2249992 127.7059978  79.9070014  42.1669992 127.5429978  79.6100014
  43.5759992 128.7369978  79.6850014  44.0809992 126.8479978  79.0680014
  45.1779992 127.0169978  79.1140014  44.0049992 125.7909978  79.4040014
  43.7929992 126.8859978  77.5570014  42.7019992 126.7639978  77.3860014
  44.1429992 127.8589978  77.1490014  44.5479992 125.8509978  76.6900014
  45.5979992 126.2129978  76.6930014  44.4319992 124.8359978  77.1270014
  44.1489992 125.9569978  75.1910014  43.1159992 125.5479978  75.2120014
  44.1179992 127.0029978  74.8170014  45.0409992 125.0789978  74.2440014
  46.0569992 125.4599978  74.4840014  45.0769992 124.0249978  74.5930014
  44.5359992 124.9949978  72.7970014  43.5039992 124.6479978  73.0190014
  44.3649992 125.9779978  72.3080014  45.3359992 124.1179978  71.8050014
  46.2129992 124.7719978  71.6150014  45.6979992 123.1819978  72.2830014
  44.7459992 123.7959978  70.5160014  45.4559992 123.4869978  69.7190014
  44.1739992 122.8519978  70.6470014  43.8399992 124.9569978  69.8470014
  43.0639992 125.3489978  70.5390014  44.4599992 125.8239978  69.5340014
  43.0169992 124.4089978  68.6280014  43.7299992 123.8679978  67.9700014
  42.2699992 123.6549978  68.9570014  42.3639992 125.5769978  67.9310014
  42.0849992 126.6609978  68.4710014  42.0149992 125.2249978  66.7110014
  41.7649992 126.2899978  65.7950014  41.0749992 125.7739978  65.0950014
  41.1429992 127.0629978  66.2960014  43.0829992 126.7799978  65.0590014
  42.7039992 127.5189978  64.3210014  43.9119992 125.6889978  64.4560014
  43.2059992 125.0109978  63.9320014  44.6229992 126.1649978  63.7480014
  44.4109992 124.8149978  65.5340014  45.9489992 124.7429978  65.8760014
  46.6789992 125.8089978  64.8760014  48.1199992 125.7629978  64.6830014
  48.6689992 126.3869978  65.4210014  48.5259992 124.7759978  64.9920014
  48.5979992 126.1869978  63.2460014  48.5519992 127.2589978  63.1200014
  49.6109992 125.8309978  63.1320014  47.7989992 125.5739978  62.0990014
  46.4359992 126.2209978  61.9830014  45.9149992 125.9449978  61.0770014
  45.9509992 125.8469978  62.8720014  46.5349992 127.2829978  61.8170014
  48.5479992 125.9059978  60.8270014  49.5019992 125.4119978  60.9350014
  48.0369992 125.3739978  60.0380014  48.5309992 126.9529978  60.5650014
  47.6319992 124.0749978  62.4100014  46.8049992 123.9569978  63.0940014
  48.5769992 123.7149978  62.7910014  47.4629992 123.6039978  61.4530014
  46.0609992 125.2489978  67.2080014  46.3679992 123.3249978  65.7640014
  43.8919992 127.4659978  66.0410014  44.7869992 128.3229978  65.5880014
  45.1419992 128.4249978  64.4190014  45.4289992 129.2419978  66.6370014
  44.7349992 130.0879978  66.8260014  46.3659992 129.5679978  66.1370014
  45.8689992 128.4429978  67.8800014  46.6959992 127.7599978  67.5910014
  44.9349992 127.9179978  68.1780014  46.4279992 129.3429978  69.0560014
  46.0149992 130.3569978  68.8700014  47.5229992 129.3549978  68.8650014
  46.0869992 128.9919978  70.4950014  45.0189992 128.7429978  70.6730014
  46.2629992 129.8749978  71.1440014  47.0249992 127.8749978  70.9490014
  48.1069992 128.0419978  70.7570014  46.7039992 126.9719978  70.3870014
  46.9329992 127.5629978  72.5030014  47.4149992 126.5789978  72.6890014
  45.8829992 127.4349978  72.8420014  47.6839992 128.6249978  73.4130014
  47.5139992 128.3269978  74.4700014  46.9909992 129.4899978  73.3290014
  49.1539992 128.8089978  73.3300014  49.3129992 129.4349978  72.4400014
  50.1729992 128.3039978  74.0950014  51.1589992 128.2849978  73.6080014
  49.9749992 127.3609978  75.2900014  50.6279992 126.4709978  75.1650014
  48.9669992 126.8999978  75.2200014  50.2789992 128.0199978  76.6450014
  49.6039992 128.8659978  76.8940014  51.1959992 128.6349978  76.5220014
  50.6329992 127.0419978  77.8150014  50.8599992 127.7489978  78.6410014
  51.5339992 126.4899978  77.4710014  49.5269992 126.0919978  78.1890014
  49.2629992 125.3929978  77.3670014  48.6039992 126.6449978  78.4670014
  49.8649992 125.1879978  79.4510014  50.0729992 125.8189978  80.3420014
  50.7799992 124.5669978  79.3400014  48.6339992 124.3839978  79.8290014
  48.2609992 123.8599978  78.9230014  47.7079992 124.9869978  79.9430014
  49.0269992 123.4649978  81.0330014  48.0539992 123.1969978  81.4970014
  49.7719992 123.9419978  81.7050014  49.7289992 122.1049978  80.6670014
  50.1669992 121.6189978  81.5650014  50.5079992 122.3199978  79.9050014
  49.0369992 121.3769978  80.1910014 124.1909992  55.2239978  85.4460014
 124.6829992  54.5699978  84.6950014 123.0819992  55.1729978  85.4560014
 124.5909992  55.0219978  86.4630014 124.7769992  56.5769978  85.0090014
 124.2739992  57.3189978  85.6660014 125.8789992  56.5809978  85.1530014
 124.3699992  57.0029978  83.5830014 124.8889992  57.9449978  83.3040014
 124.7729992  56.2859978  82.8350014 122.8269992  57.1389978  83.3860014
 122.2859992  56.1719978  83.4650014 122.4189992  57.8129978  84.1690014
 122.4609992  57.7949978  82.0350014 121.3589992  57.8239978  81.8940014
 122.8219992  58.8449978  82.0690014 123.0909992  57.0749978  80.7660014
 124.1989992  57.1459978  80.7910014 122.9609992  55.9749978  80.8580014
 122.6289992  57.7519978  79.4490014 121.5649992  57.5179978  79.2340014
 122.7649992  58.8239978  79.7100014 123.4889992  57.4809978  78.2150014
 123.9219992  58.4589978  77.9120014 124.3949992  56.8949978  78.4770014
 122.7629992  56.8579978  77.0260014 122.5419992  55.8179978  77.3470014
 121.7609992  57.3099978  76.8650014 123.7419992  56.7589978  75.8250014
 124.6429992  56.1309978  75.9920014 123.2559992  56.2769978  74.9510014
 124.2309992  58.1079978  75.3270014 123.3929992  58.8109978  75.1310014
 124.9879992  58.5469978  76.0110014 124.8249992  58.0129978  73.8900014
 124.2639992  57.5069978  73.0750014 125.0179992  59.0599978  73.5750014
 126.0989992  57.1479978  73.9020014 126.7669992  57.5199978  74.7080014
 125.9999992  56.0429978  73.9630014 126.9289992  57.4889978  72.6670014
 126.9799992  58.5989978  72.6350014 127.9909992  57.2079978  72.8320014
 126.2849992  56.9749978  71.3650014 126.2489992  55.8649978  71.3340014
 125.2629992  57.4079978  71.3120014 127.2009992  57.3379978  70.1640014
 128.3729992  57.6939978  70.2400014 126.5169992  57.2339978  69.0380014
 127.2779992  57.2699978  67.8340014 127.2989992  58.3229978  67.4790014
 128.3609992  57.0349978  67.9130014 126.6989992  56.4529978  66.7740014
 127.4569992  56.4479978  65.9620014 125.3049992  57.0379978  66.3210014
 124.7589992  57.6069978  67.1040014 125.4829992  57.7869978  65.5210014
 124.4699992  55.9569978  65.9230014 122.9969992  56.1869978  65.5620014
 122.9189992  55.5759978  64.1910014 123.9909992  55.9109978  63.2350014
 123.5989992  55.8329978  62.1980014 124.3519992  56.9579978  63.3190014
 125.1729992  54.9039978  63.3730014 125.9549992  55.3989978  62.8150014
 125.2869992  54.7419978  64.4340014 125.0069992  53.5859978  62.6970014
 125.2229992  53.6259978  61.2210014 126.2079992  54.0239978  61.0250014
 125.1949992  52.6029978  60.8750014 124.5179992  54.2869978  60.7380014
 125.9369992  52.6019978  63.3640014 125.7019992  51.6859978  62.8420014
 126.9489992  52.9759978  63.3460014 125.6379992  52.4139978  64.3850014
 123.6629992  52.9619978  62.9710014 123.7139992  52.8639978  64.0450014
 123.5619992  51.9629978  62.5720014 122.9129992  53.7019978  62.7360014
 122.1639992  55.4059978  66.4660014 122.7789992  57.6579978  65.5040014
 126.5219992  55.0759978  67.2890014 127.4709992  54.1749978  66.9170014
 128.5219992  54.3489978  66.3770014 126.9729992  52.7879978  67.2150014
 127.0019992  52.5249978  68.2940014 127.6689992  52.1689978  66.6100014
 125.5259992  52.5119978  66.7060014 125.5209992  51.4699978  66.3220014
 125.1629992  53.1839978  65.8990014 124.4329992  52.6359978  67.8360014
 123.4109992  52.6059978  67.4000014 124.5009992  53.6179978  68.3490014
 124.5039992  51.5199978  68.9630014 125.2119992  51.9309978  69.7130014
 125.0529992  50.6699978  68.5040014 123.2219992  51.1519978  69.4970014
 123.3799992  50.2669978  70.1490014 122.4599992  50.9509978  68.7140014
 122.5599992  52.2279978  70.4600014 121.4809992  51.9969978  70.5900014
 122.6199992  53.2109978  69.9450014 123.2899992  52.3909978  71.7500014
 122.7659992  53.1899978  72.3170014 124.3559992  52.6899978  71.6520014
 123.1619992  51.1839978  72.6250014 122.2119992  50.6389978  72.5280014
 124.0489992  50.8029978  73.4690014 123.8069992  49.9889978  74.1670014
 125.3219992  51.4829978  73.7420014 125.2829992  52.5269978  73.3640014
 126.1729992  50.9289978  73.2920014 125.4349992  51.6469978  75.2180014
 126.0859992  50.8499978  75.6350014 124.4969992  51.4029978  75.7610014
 126.0019992  52.9929978  75.6220014 125.3669992  53.7989978  75.1960014
 126.9449992  53.1029978  75.0450014 126.3749992  53.1139978  77.1040014
 126.8589992  52.1509978  77.3760014 125.4919992  53.1789978  77.7750014
 127.2179992  54.3049978  77.5710014 126.4439992  55.0959978  77.4740014
 128.0489992  54.5059978  76.8620014 127.7969992  54.1089978  78.9990014
 128.4889992  53.2409978  78.9680014 126.9929992  54.0259978  79.7610014
 128.7459992  55.2479978  79.3370014 128.2739992  56.2109978  79.0480014
 129.7239992  55.1479978  78.8190014 129.1119992  55.3919978  80.8100014
 128.2059992  55.5179978  81.4410014 129.6819992  56.3289978  80.9900014
 129.5709992  54.4999978  81.2870014  94.2429992 117.3839978  85.9870014
  95.0969992 116.7019978  86.1840014  93.5659992 117.4809978  86.8630014
  94.8709992 118.2999978  86.0040014  93.5389992 117.0889978  84.6670014
  92.8869992 116.2229978  84.9100014  92.7529992 117.8649978  84.5510014
  94.3039992 116.8849978  83.3810014  94.5599992 117.8749978  82.9450014
  95.1499992 116.2759978  83.7650014  93.6029992 116.2099978  82.1870014
  94.3419992 116.0629978  81.3710014  93.0739992 115.2929978  82.5230014
  92.4389992 117.1299978  81.6240014  91.5469992 117.0499978  82.2820014
  92.7369992 118.1939978  81.7420014  92.1409992 116.8049978  80.1290014
  93.0579992 117.0349978  79.5470014  91.9999992 115.7069978  80.0280014
  90.9699992 117.5509978  79.4270014  90.1159992 117.1279978  79.9970014
  90.8919992 118.6589978  79.4360014  90.6029992 116.9849978  77.9670014
  90.2389992 115.9359978  77.9760014  89.7009992 117.5689978  77.6860014
  91.7159992 117.2279978  76.9460014  92.5319992 116.5449978  77.2640014
  91.2919992 116.8719978  75.9830014  92.2319992 118.7109978  76.7580014
  91.3569992 119.3399978  76.4880014  92.5389992 118.9879978  77.7900014
  93.2669992 119.0269978  75.8240014  93.3059992 120.1379978  75.8450014
  94.2659992 118.6379978  76.1150014  93.0479992 118.4339978  74.4310014
  92.7339992 117.3709978  74.3530014  92.1979992 119.0019978  73.9970014
  94.3099992 118.6049978  73.5510014  94.4569992 119.6919978  73.3710014
  95.1889992 118.1659978  74.0690014  94.1739992 117.9489978  72.1750014
  93.7039992 116.9759978  72.4350014  93.3639992 118.4489978  71.6040014
  95.4609992 117.6049978  71.4280014  96.1869992 117.0569978  72.0660014
  95.2439992 116.8319978  70.6590014  96.0629992 118.8419978  70.7550014
  96.8689992 119.6159978  71.2620014  95.5099992 118.9949978  69.5980014
  96.0399992 120.1219978  68.8600014  95.5739992 121.0689978  69.2080014
  97.1369992 120.1939978  69.0230014  95.5779992 120.1569978  67.3450014
  95.5289992 119.1519978  66.8740014  96.6019992 120.9089978  66.4870014
  96.8579992 121.8649978  66.9910014  97.5369992 120.3169978  66.5880014
  96.2159992 121.1709978  65.2250014  95.7449992 120.1339978  64.1050014
  94.1689992 119.9949978  64.5310014  93.2539992 120.9209978  63.9540014
  93.5359992 121.9149978  64.3610014  93.3689992 120.8569978  62.8510014
  91.7189992 120.6399978  64.2960014  91.4999992 120.8219978  65.3380014
  91.1999992 121.4279978  63.7710014  91.1069992 119.3179978  63.9840014
  91.7239992 118.9019978  62.6570014  92.7989992 118.8319978  62.7260014
  91.2069992 118.0029978  62.3560014  91.5469992 119.6489978  61.8970014
  91.4689992 118.1619978  64.9080014  90.9209992 117.2889978  64.5850014
  92.4749992 117.9579978  64.5730014  91.2059992 118.3799978  65.9330014
  89.6109992 119.4069978  63.7770014  89.0609992 119.4909978  64.7020014
  89.4189992 118.4909978  63.2360014  89.3899992 120.2199978  63.1010014
  95.8239992 120.7849978  62.8100014  96.5139992 118.8819978  64.2590014
  94.2439992 120.7779978  67.2560014  93.2709992 119.9959978  67.6610014
  93.4109992 118.7979978  67.9230014  91.9079992 120.8749978  67.9290014
  91.1169992 120.4289978  67.2880014  92.1439992 121.9409978  67.7230014
  91.5929992 120.6529978  69.4150014  92.4399992 121.1799978  69.9040014
  91.4409992 119.5939978  69.7150014  90.1879992 121.2589978  69.8180014
  89.3759992 120.7599978  69.2470014  90.1579992 122.3409978  69.5660014
  89.6569992 121.1889978  71.2400014  89.6319992 120.1109978  71.5060014
  88.6429992 121.5849978  71.4660014  90.6499992 122.1029978  72.0620014
  90.7039992 123.1179978  71.6130014  91.6299992 121.5799978  72.0260014
  90.1499992 122.2199978  73.5400014  89.7439992 121.2699978  73.9490014
  89.3639992 122.9989978  73.6290014  91.1489992 122.6199978  74.6220014
  91.9029992 121.8209978  74.7890014  90.6079992 122.8109978  75.5730014
  91.8479992 123.9229978  74.3390014  91.2899992 124.8639978  74.2240014
  93.2019992 124.1479978  74.0790014  93.5109992 125.1789978  73.8540014
  94.3339992 123.1259978  74.0540014  95.0399992 123.1309978  73.1970014
  93.8819992 122.1139978  73.9700014  95.0849992 123.3909978  75.4250014
  95.3549992 124.4669978  75.3810014  96.0109992 122.7759978  75.4470014
  94.2759992 123.1089978  76.7120014  93.9959992 122.0339978  76.7360014
  93.2869992 123.6099978  76.6320014  94.9339992 123.5519978  78.0000014
  95.2369992 124.6189978  78.0550014  95.9569992 123.1499978  78.1580014
  94.1089992 123.2399978  79.3280014  93.1499992 122.7909978  78.9940014
  93.8989992 124.2739978  79.6770014  94.8829992 122.3559978  80.3200014
  95.9249992 122.7269978  80.4200014  94.7879992 121.3839978  79.7910014
  94.2309992 122.3009978  81.7380014  94.8429992 121.5359978  82.2620014
  93.1949992 121.9459978  81.5460014  94.0819992 123.7389978  82.4010014
  93.2819992 124.3579978  81.9410014  95.1039992 124.1739978  82.4120014
  93.7529992 123.6349978  83.4570014  23.7149992  92.3099978  85.0520014
  23.9949992  92.6249978  86.0800014  24.2679992  92.8999978  84.2900014
  24.0049992  91.2369978  85.0320014  22.1969992  92.3669978  84.7910014
  21.9369992  91.4649978  84.1970014  21.5649992  92.4239978  85.7030014
  21.9439992  93.4729978  83.7790014  22.3469992  94.3759978  84.2860014
  22.5189992  93.3929978  82.8320014  20.4149992  93.8319978  83.6220014
  20.0379992  93.8889978  84.6650014  20.3789992  94.8319978  83.1400014
  19.5189992  92.7859978  82.9070014  19.4899992  91.8969978  83.5740014
  18.4519992  93.0779978  82.8060014  20.0039992  92.1539978  81.5480014
  20.9559992  91.5969978  81.6730014  19.1399992  91.5779978  81.1520014
  20.2479992  93.1029978  80.3610014  21.0179992  93.8109978  80.7360014
  20.7059992  92.5899978  79.4880014  19.0039992  93.7419978  79.7090014
  18.4149992  92.9469978  79.2040014  18.3209992  94.1449978  80.4870014
  19.1989992  94.8729978  78.6830014  18.3659992  95.5539978  78.9580014
  20.1989992  95.3469978  78.7820014  19.1379992  94.3099978  77.2360014
  18.3569992  93.5209978  77.2080014  18.8359992  95.1089978  76.5250014
  20.4669992  93.7529978  76.8100014  21.2859992  94.4769978  77.0100014
  20.7299992  92.8229978  77.3580014  20.6779992  93.4189978  75.3230014
  20.0629992  92.5089978  75.1580014  20.3139992  94.3249978  74.7930014
  22.1759992  93.2589978  74.9340014  22.8079992  94.1599978  75.0850014
  22.5249992  92.5379978  75.7030014  22.4929992  92.7089978  73.5470014
  23.5919992  92.6929978  73.3810014  22.2229992  91.6309978  73.5610014
  21.8019992  93.4969978  72.4710014  20.7009992  93.4309978  72.3380014
  21.9279992  94.5959978  72.5680014  22.5149992  93.2599978  71.2080014
  23.2419992  92.3229978  70.9530014  22.3289992  94.3069978  70.3980014
  22.9249992  94.2359978  69.0710014  23.9639992  94.6239978  69.1360014
  22.8609992  93.1859978  68.7130014  22.1549992  95.1549978  68.0470014
  21.1079992  94.7989978  67.9390014  22.9009992  95.0709978  66.6940014
  23.8719992  95.5899978  66.8370014  22.9759992  93.9729978  66.5430014
  22.1699992  95.7199978  65.6670014  22.2789992  95.2469978  64.1680014
  21.1579992  94.1499978  64.2170014  20.0699992  94.1259978  65.1000014
  20.1319992  93.2259978  65.7490014  20.1199992  94.9849978  65.8030014
  18.6389992  93.9269978  64.4330014  18.7389992  93.0879978  63.7600014
  17.9009992  93.5919978  65.1460014  18.0889992  95.0839978  63.5940014
  17.9399992  96.2909978  64.4070014  18.9099992  96.7589978  64.4870014
  17.2799992  97.0409978  63.9960014  17.4889992  96.0929978  65.3680014
  19.0149992  95.2499978  62.3920014  20.0449992  95.4009978  62.6810014
  18.9399992  94.4089978  61.7190014  18.5409992  96.0689978  61.8710014
  16.6479992  94.6239978  63.1890014  16.1629992  94.2779978  64.0900014
  16.7439992  93.7909978  62.5080014  15.9649992  95.3739978  62.8180014
  21.9479992  96.4259978  63.3030014  23.6389992  94.5929978  64.0360014
  22.0779992  96.4779978  68.5860014  20.9829992  97.1929978  68.2880014
  19.9949992  96.8039978  67.6330014  21.1079992  98.5659978  68.9100014
  21.3949992  99.2379978  68.0730014  21.8569992  98.4679978  69.7250014
  19.8589992  98.9949978  69.7190014  18.9319992  98.9069978  69.1120014
  19.9409992 100.0759978  69.9630014  19.6719992  98.1829978  70.9750014
  20.6099992  98.3679978  71.5420014  19.7019992  97.1339978  70.6110014
  18.4939992  98.3639978  71.9960014  17.5809992  98.4489978  71.3680014
  18.5689992  99.3039978  72.5830014  18.3459992  97.3129978  73.0890014
  18.0299992  96.3779978  72.5790014  17.5479992  97.4249978  73.8540014
  19.6349992  97.0809978  73.9400014  20.3679992  96.5049978  73.3350014
  19.2609992  96.3479978  74.6870014  20.1609992  98.3379978  74.6060014
  19.3489992  99.0469978  74.8750014  20.7799992  98.9609978  73.9240014
  21.0379992  97.6979978  75.6820014  21.9699992  97.2709978  75.2830014
  20.9299992  97.7089978  77.0030014  21.6449992  97.1579978  77.6310014
  19.8279992  98.4019978  77.7610014  19.3129992  97.6159978  78.3540014
  18.9899992  98.7019978  77.0970014  20.1849992  99.5609978  78.6830014
  19.2009992  99.8249978  79.1260014  20.4269992 100.4439978  78.0540014
  21.2529992  99.3319978  79.7250014  21.4889992 100.3239978  80.1660014
  22.1039992  98.8989978  79.1570014  20.8979992  98.5279978  80.9590014
  21.8049992  98.3669978  81.5810014  20.4689992  97.5319978  80.7190014
  19.9009992  99.3209978  81.8100014  18.8259992  99.1519978  81.5870014
  20.0509992 100.4149978  81.6900014  20.0609992  99.0579978  83.3580014
  19.4679992  99.8279978  83.8940014  21.1299992  99.2909978  83.5540014
  19.8189992  97.6349978  83.8380014  20.5039992  97.0139978  83.2210014
  18.7599992  97.3899978  83.6080014  20.3289992  97.2799978  85.2790014
  21.3919992  97.5939978  85.2150014  20.2919992  96.2039978  85.5550014
  19.8349992  97.8829978  86.0710014  78.6659992  23.1899978  80.0000014
  78.4169992  22.1409978  80.2690014  77.9629992  23.8249978  80.5810014
  79.7019992  23.4449978  80.3090014  78.4759992  23.4179978  78.4980014
  77.3849992  23.6069978  78.4130014  79.0389992  24.3019978  78.1280014
  78.8839992  22.2019978  77.6110014  79.8439992  21.7749978  77.9750014
  78.0399992  21.4799978  77.5850014  79.0899992  22.4099978  76.1280014
  78.3339992  23.1519978  75.7930014  80.0769992  22.9129978  76.0490014
  78.9859992  21.1659978  75.1960014  77.9439992  20.8169978  75.3620014
  78.9789992  21.3539978  74.1010014  80.0359992  20.0619978  75.4900014
  79.6699992  19.7409978  76.4880014  79.8509992  19.2459978  74.7590014
  81.4969992  20.5729978  75.3710014  81.6509992  21.4949978  75.9720014
  82.2229992  19.8629978  75.8210014  81.9969992  20.7789978  73.9670014
  81.7909992  19.9279978  73.2830014  81.5669992  21.6969978  73.5130014
  83.5859992  20.9699978  73.8560014  83.7559992  21.8789978  74.4720014
  84.2469992  20.1449978  74.1980014  83.9499992  21.3419978  72.3930014
  83.6349992  20.5619978  71.6670014  83.4489992  22.2959978  72.1220014
  85.4949992  21.3239978  72.1210014  85.9869992  22.0789978  72.7700014
  85.8279992  20.2959978  72.3780014  85.9389992  21.6589978  70.7040014
  87.0479992  21.7119978  70.6590014  85.6139992  20.8949978  69.9650014
  85.2969992  22.9059978  70.1800014  84.2489992  22.6499978  69.9150014
  85.2619992  23.8029978  70.8340014  86.0089992  23.4289978  68.9150014
  86.2639992  24.4969978  69.0830014  87.0209992  23.0019978  68.7490014
  85.0889992  23.3839978  67.6940014  84.1479992  23.9039978  67.9750014
  85.5679992  23.8749978  66.8200014  84.9059992  21.8589978  67.1810014
  85.7429992  21.2339978  66.5740014  83.7299992  21.3459978  67.5570014
  83.4589992  19.9899978  67.1710014  83.7599992  19.7639978  66.1260014
  84.1869992  19.4539978  67.8160014  81.9849992  19.4739978  67.3730014
  82.0439992  18.4439978  66.9590014  80.9329992  20.2199978  66.4400014
  81.2819992  20.0819978  65.3950014  79.8889992  19.8389978  66.4570014
  80.8859992  21.6169978  66.7570014  80.1079992  22.6539978  65.8670014
  80.8209992  22.4339978  64.4690014  82.2039992  22.8949978  64.3840014
  82.2539992  23.9069978  63.9300014  82.6769992  22.9459978  65.3880014
  83.0759992  21.8959978  63.6160014  84.0889992  22.2559978  63.7230014
  82.9179992  20.8969978  63.9950014  82.7389992  21.7359978  62.1460014
  81.4309992  21.0709978  62.0110014  80.6689992  21.7819978  62.2960014
  81.2429992  20.5869978  61.0640014  81.3669992  20.1639978  62.5930014
  82.9199992  23.0679978  61.4270014  82.2079992  23.7539978  61.8600014
  83.8939992  23.4779978  61.6530014  83.0129992  23.0099978  60.3530014
  83.7189992  20.6799978  61.5720014  83.5289992  19.6789978  61.9280014
  84.6889992  21.0429978  61.8790014  83.5539992  20.6769978  60.5050014
  78.6749992  22.1879978  65.7890014  80.3369992  23.9799978  66.4680014
  81.6719992  19.6559978  68.7090014  80.6959992  18.9639978  69.3360014
  79.9819992  18.1419978  68.8230014  80.5569992  19.5329978  70.7610014
  81.5759992  19.6849978  71.1780014  80.1309992  18.7399978  71.4130014
  79.7209992  20.8059978  70.8750014  79.3469992  21.0119978  71.9010014
  78.7319992  20.5679978  70.4280014  80.3509992  22.0999978  70.2510014
  80.5499992  22.0099978  69.1610014  81.3339992  22.1969978  70.7580014
  79.6059992  23.4169978  70.5840014  79.4849992  23.4399978  71.6880014
  78.5939992  23.4819978  70.1310014  80.3399992  24.5899978  70.0240014
  79.6719992  25.4659978  70.1680014  80.4259992  24.4889978  68.9210014
  81.7749992  24.9169978  70.6200014  82.1139992  25.7989978  70.0350014
  82.3749992  24.0139978  70.3780014  81.8239992  25.2799978  72.0650014
  81.4279992  24.4339978  72.6670014  81.2129992  26.1819978  72.2790014
  83.2909992  25.4429978  72.5650014  84.0899992  25.2959978  71.8230014
  83.7249992  25.6199978  73.8010014  84.8139992  25.7149978  73.9280014
  82.9589992  25.8389978  75.1140014  81.9099992  26.1349978  74.8960014
  83.3429992  26.7129978  75.6840014  83.0959992  24.6839978  76.0660014
  84.1729992  24.6809978  76.3400014  82.8269992  23.7249978  75.5740014
  82.3079992  24.9779978  77.3030014  81.2439992  24.9439978  76.9870014
  82.5389992  25.9919978  77.6950014  82.4119992  23.8959978  78.3750014
  82.2099992  22.9299978  77.8650014  81.6619992  24.0449978  79.1810014
  83.7619992  23.6859978  79.0060014  84.1339992  24.6639978  79.3770014
  84.4309992  23.1809978  78.2770014  83.7589992  22.8579978  80.3060014
  83.1779992  23.4709978  81.0270014  84.8179992  22.8179978  80.6410014
  83.1199992  21.4389978  80.2220014  83.5329992  21.0449978  79.2690014
  82.0199992  21.5949978  80.1880014  83.2839992  20.5409978  81.4660014
  82.9649992  19.5009978  81.2390014  82.7629992  20.9539978  82.3560014
  84.3829992  20.4579978  81.6050014  21.7629992 112.8509978  80.9270014
  22.0119992 112.7639978  82.0060014  21.4079992 113.8499978  80.5950014
  22.6239992 112.7599978  80.2300014  20.6889992 111.8389978  80.3940014
  19.7119992 112.0219978  80.8910014  20.4909992 111.8399978  79.3010014
  21.1869992 110.3479978  80.6290014  21.4589992 110.0949978  81.6760014
  20.3149992 109.7309978  80.3240014  22.3129992 109.9029978  79.6000014
  21.9669992 110.2609978  78.6060014  23.3479992 110.1879978  79.8850014
  22.2629992 108.3479978  79.4810014  22.6089992 108.0069978  80.4800014
  21.2209992 108.0239978  79.2720014  23.1569992 107.8369978  78.3330014
  23.8609992 108.6829978  78.1810014  23.7669992 107.0239978  78.7830014
  22.4529992 107.3819978  77.1180014  22.4159992 106.2709978  77.1260014
  21.4219992 107.7919978  77.1740014  23.1049992 107.8049978  75.7980014
  22.4689992 107.2519978  75.0740014  23.1529992 108.9129978  75.7360014
  24.5369992 107.2729978  75.5920014  25.1999992 107.7789978  76.3270014
  24.5409992 106.1719978  75.7440014  25.1459992 107.4369978  74.1450014
  26.2079992 107.1119978  74.1600014  24.5399992 106.9099978  73.3770014
  25.2619992 108.9189978  73.6970014  24.2649992 109.3669978  73.4980014
  25.6909992 109.5309978  74.5200014  26.2819992 109.1059978  72.5730014
  26.6539992 110.0979978  72.9070014  27.1719992 108.4439978  72.6370014
  25.7519992 109.1829978  71.0770014  24.9579992 109.9599978  71.0660014
  26.6389992 109.6279978  70.5780014  25.3019992 107.8509978  70.5020014
  26.1769992 107.1729978  70.4040014  24.4699992 107.4169978  71.0980014
  24.9829992 107.9889978  68.9820014  25.7339992 108.5819978  68.4170014
  25.0999992 106.9499978  68.6070014  23.5079992 108.5069978  68.7420014
  22.6989992 108.9029978  69.6220014  23.2529992 108.4869978  67.5030014
  21.9649992 109.0939978  67.1000014  21.7119992 108.5849978  66.1460014
  21.1109992 108.9619978  67.7990014  22.1329992 110.6009978  66.7010014
  21.0719992 110.9149978  66.6090014  22.8929992 110.9019978  65.4090014
  22.6219992 110.1059978  64.6830014  22.4549992 111.8849978  65.1320014
  24.2819992 111.0449978  65.6100014  25.2069992 111.4219978  64.4130014
  25.8489992 110.0269978  63.9130014  26.3019992 109.1359978  64.8590014
  27.3569992 108.8659978  64.6350014  26.4919992 109.5899978  65.8550014
  25.4299992 107.8019978  64.8380014  26.1719992 107.0989978  65.1860014
  24.6229992 107.7239978  65.5530014  25.1479992 107.1799978  63.4820014
  24.0289992 107.9879978  62.8220014  24.3499992 108.9639978  62.4900014
  23.8009992 107.5389978  61.8670014  23.1249992 107.9129978  63.4080014
  26.3599992 107.3359978  62.5940014  26.6109992 108.3419978  62.2940014
  27.2039992 106.9439978  63.1420014  26.2339992 106.5729978  61.8400014
  24.9059992 105.6829978  63.6530014  24.8009992 105.3329978  62.6370014
  24.0249992 105.4879978  64.2470014  25.7309992 105.1249978  64.0720014
  24.3779992 112.0639978  63.4160014  26.4309992 112.1839978  64.9050014
  22.7779992 111.3019978  67.8230014  22.6099992 112.6099978  67.8930014
  22.0419992 113.3359978  67.0920014  23.4049992 113.2609978  69.0210014
  23.6719992 112.6139978  69.8840014  22.7869992 114.0899978  69.4270014
  24.5759992 114.0209978  68.4480014  24.0959992 114.6449978  67.6650014
  25.2059992 113.3769978  67.7970014  25.4089992 114.7429978  69.5040014
  24.7829992 115.3739978  70.1710014  26.1529992 115.3789978  68.9780014
  26.3369992 113.7909978  70.3480014  27.1439992 113.3359978  69.7330014
  25.6509992 112.9399978  70.5480014  27.0199992 114.4299978  71.4370014
  26.2499992 115.0369978  71.9600014  27.8899992 114.9289978  70.9590014
  27.5249992 113.2889978  72.3610014  28.2599992 112.6069978  71.8830014
  26.6709992 112.6389978  72.6470014  28.0429992 113.8749978  73.7740014
  28.8439992 114.5739978  73.4490014  28.6189992 113.1019978  74.3250014
  27.0559992 114.5219978  74.6350014  26.7479992 115.5349978  74.3390014
  26.3809992 113.9459978  75.6830014  25.5339992 114.5009978  76.1120014
  26.4369992 112.5669978  76.2310014  26.1839992 111.8699978  75.4040014
  25.6379992 112.4299978  76.9910014  27.7499992 111.9469978  76.7230014
  28.5089992 112.2559978  75.9730014  27.6209992 110.8649978  76.9410014
  28.1449992 112.6349978  78.0470014  27.2489992 113.0639978  78.5440014
  28.7679992 113.5229978  77.8100014  28.8429992 111.6629978  79.0370014
  29.4129992 112.3309978  79.7180014  29.5559992 111.0289978  78.4690014
  27.8869992 110.7569978  79.8200014  27.2129992 110.1909978  79.1420014
  27.3179992 111.3669978  80.5540014  28.5869992 109.6019978  80.6050014
  29.0519992 110.1119978  81.4750014  29.4429992 109.2719978  79.9790014
  27.7259992 108.4319978  81.1650014  27.2799992 107.8869978  80.3060014
  26.8519992 108.9029978  81.6630014  28.4929992 107.5879978  82.1570014
  29.3179992 107.0219978  81.6740014  27.8749992 106.8829978  82.7530014
  28.9529992 108.2059978  82.9580014 103.4919992  31.0159978  79.9670014
 103.5639992  30.3059978  80.8180014 102.4159992  31.1409978  79.7170014
 103.9329992  32.0069978  80.2050014 104.1779992  30.4769978  78.7000014
 104.2279992  31.3569978  78.0230014 105.2339992  30.2219978  78.9340014
 103.4229992  29.2719978  77.9620014 103.3749992  28.3989978  78.6480014
 102.4289992  29.7459978  77.8150014 103.9669992  28.9019978  76.6310014
 104.9909992  28.4809978  76.7290014 103.4469992  27.9999978  76.2440014
 104.1199992  30.1199978  75.6580014 103.1239992  30.6099978  75.6370014
 104.8539992  30.7199978  76.2370014 104.6619992  29.8919978  74.2660014
 104.5729992  30.8289978  73.6760014 105.7449992  29.6549978  74.3350014
 103.8419992  28.7539978  73.4760014 104.0979992  27.8569978  74.0810014
 102.8419992  29.2259978  73.3740014 104.4139992  28.5169978  72.0730014
 104.4589992  29.5079978  71.5730014 105.4889992  28.2489978  72.1520014
 103.6769992  27.6599978  71.1290014 104.4309992  27.6589978  70.3130014
 103.5289992  26.5969978  71.4140014 102.3629992  28.2009978  70.5290014
 101.8769992  27.3899978  69.9470014 101.7339992  28.4029978  71.4230014
 102.5059992  29.4719978  69.6120014 103.5989992  29.6539978  69.5400014
 102.0379992  29.0529978  68.6960014 101.7249992  30.6049978  70.2360014
 100.8479992  30.0839978  70.6760014 102.3119992  30.9429978  71.1170014
 101.1969992  31.7419978  69.3090014 100.6899992  31.2729978  68.4380014
 100.3889992  32.2999978  69.8290014 102.2539992  32.7479978  68.7610014
 103.0119992  32.8349978  69.5680014 102.9049992  32.3519978  67.9530014
 101.5199992  34.0379978  68.2590014 100.8269992  33.7439978  67.4420014
 100.8729992  34.5289978  69.0180014 102.5389992  35.0029978  67.6800014
 102.7079992  36.1739978  67.9380014 103.2889992  34.2549978  66.8700014
 104.3839992  35.0209978  66.3470014 104.0739992  35.8489978  65.6740014
 104.8239992  35.5999978  67.1870014 105.5019992  34.0989978  65.7980014
 106.3989992  34.7129978  65.5660014 105.0899992  33.3909978  64.4670014
 104.0599992  32.9919978  64.5880014 105.0579992  34.1769978  63.6820014
 105.9869992  32.3569978  64.1820014 105.6399992  31.3099978  63.1620014
 104.3499992  30.6809978  63.8820014 104.6319992  29.7559978  64.8870014
 105.1849992  28.8589978  64.5350014 105.3209992  30.1119978  65.6840014
 103.2849992  29.2709978  65.5670014 103.4999992  28.4699978  66.2590014
 102.8719992  30.0499978  66.1900014 102.1549992  28.7899978  64.6470014
 101.4839992  29.9559978  63.9240014 100.7219992  29.5229978  63.2930014
 101.0849992  30.6739978  64.6260014 102.2519992  30.4019978  63.3100014
 102.6459992  27.7239978  63.6980014 103.3099992  28.1789978  62.9780014
 103.2569992  27.0239978  64.2500014 101.8769992  27.2359978  63.1180014
 101.0699992  28.2079978  65.5150014 101.4609992  27.3799978  66.0870014
 100.2539992  27.8349978  64.9140014 100.7079992  28.9999978  66.1530014
 105.2879992  31.8259978  61.8020014 106.6779992  30.2929978  63.2390014
 105.7519992  33.0409978  66.7940014 106.3109992  33.4089978  67.9960014
 106.8109992  34.5249978  68.2170014 106.2469992  32.2609978  68.9480014
 106.8289992  31.3999978  68.5560014 105.2069992  31.9489978  69.1840014
 106.8789992  32.9189978  70.2430014 106.4449992  33.9239978  70.4350014
 107.9739992  33.0069978  70.0820014 106.6739992  32.0289978  71.5150014
 107.0879992  31.0019978  71.4280014 105.5879992  32.0749978  71.7460014
 107.1999992  32.6539978  72.8270014 108.2969992  32.7079978  72.6620014
 107.0289992  31.9589978  73.6770014 106.5659992  33.9889978  73.2870014
 105.4749992  33.8209978  73.1560014 106.7449992  34.7649978  72.5120014
 106.7219992  34.3589978  74.7350014 107.7759992  34.5139978  75.0530014
 106.3479992  33.5189978  75.3580014 105.8249992  35.5079978  74.9940014
 104.7689992  35.2589978  74.7540014 106.0899992  36.4789978  74.5250014
 106.0129992  36.0369978  76.3510014 106.6919992  36.8919978  76.4870014
 105.5159992  35.4499978  77.4700014 105.7069992  35.9659978  78.4220014
 104.6519992  34.2159978  77.4920014 104.4529992  33.8549978  78.5240014
 105.2199992  33.3869978  77.0180014 103.2399992  34.3599978  76.7820014
 103.1879992  33.7699978  75.8430014 103.0449992  35.4199978  76.5110014
 102.0929992  34.1229978  77.7880014 102.2239992  33.1579978  78.3230014
 101.1459992  33.9469978  77.2340014 101.7899992  35.3829978  78.6210014
 101.7469992  36.2099978  77.8800014 102.5819992  35.5359978  79.3850014
 100.4119992  35.4349978  79.4230014  99.5609992  35.2519978  78.7330014
 100.3779992  36.4309978  79.9140014 100.2659992  34.3189978  80.5150014
 100.3739992  33.2889978  80.1120014  99.2099992  34.2199978  80.8470014
 101.2679992  34.4909978  81.6580014 101.2309992  35.5069978  82.1050014
 102.3079992  34.5799978  81.2770014 101.2549992  33.5349978  82.8040014
 100.4819992  33.8839978  83.5210014 102.1339992  33.5949978  83.4800014
 101.1959992  32.4689978  82.4970014 128.4589992  80.9149978  82.0240014
 127.7809992  80.4459978  82.7690014 127.8329992  81.0759978  81.1210014
 128.5609992  81.9639978  82.3750014 129.6699992  80.1439978  81.6450014
 130.1579992  80.6789978  80.8020014 130.3129992  79.9509978  82.5300014
 129.4159992  78.7249978  81.1740014 128.9669992  78.1619978  82.0200014
 128.6959992  78.8549978  80.3390014 130.6489992  77.8369978  80.7850014
 131.2289992  78.3869978  80.0140014 131.2769992  77.6009978  81.6710014
 130.2269992  76.4049978  80.3180014 129.7949992  76.4979978  79.2990014
 131.2319992  75.9449978  80.2100014 129.3489992  75.6379978  81.3370014
 129.7909992  75.5899978  82.3560014 128.3479992  76.0629978  81.5610014
 129.2449992  74.1959978  80.8680014 130.1619992  73.7169978  80.4620014
 128.9019992  73.5669978  81.7170014 128.1579992  73.9789978  79.7470014
 127.1219992  74.0639978  80.1380014 128.2799992  74.6959978  78.9080014
 128.2149992  72.5689978  79.1030014 129.2329992  72.3019978  78.7480014
 127.9969992  71.7549978  79.8270014 127.2729992  72.3709978  77.9310014
 127.1619992  71.2839978  77.7260014 126.3239992  72.7849978  78.3340014
 127.6459992  73.1919978  76.6210014 126.9819992  72.7669978  75.8390014
 127.3639992  74.2299978  76.8990014 129.0899992  73.1579978  76.1630014
 129.6889992  73.7719978  76.8700014 129.3409992  72.0769978  76.2100014
 129.3589992  73.7639978  74.7840014 129.0949992  74.8429978  74.7910014
 130.4489992  73.6279978  74.6190014 128.7379992  73.0049978  73.6160014
 129.1529992  71.9739978  73.5840014 127.6609992  72.8059978  73.8020014
 128.9429992  73.6839978  72.2290014 128.5039992  74.7019978  72.3060014
 130.0379992  73.7909978  72.0710014 128.3279992  72.7369978  71.0830014
 128.0079992  71.5579978  71.1910014 128.3099992  73.4809978  69.9940014
 127.6949992  72.9239978  68.7860014 128.5279992  72.7019978  68.0840014
 127.2139992  71.9309978  68.9130014 126.6329992  73.9179978  68.1330014
 126.1229992  73.3989978  67.2930014 127.3269992  75.1499978  67.3880014
 127.7249992  75.6739978  68.2830014 128.1819992  74.8759978  66.7320014
 126.4009992  75.9699978  66.6660014 126.7999992  77.3629978  66.1170014
 127.9439992  76.9949978  65.1100014 127.6879992  76.0759978  64.0300014
 128.6449992  75.5609978  63.8020014 126.9099992  75.3579978  64.3670014
 127.3029992  76.7499978  62.6620014 127.0029992  75.9249978  62.0340014
 126.5039992  77.4469978  62.8640014 128.3339992  77.6819978  62.0110014
 128.4369992  78.9069978  62.8760014 129.4309992  79.3119978  62.7530014
 127.7399992  79.6579978  62.5360014 128.2169992  78.5439978  63.8690014
 129.7019992  77.0349978  61.9370014 130.4099992  77.7909978  61.6320014
 129.9269992  76.6829978  62.9330014 129.6569992  76.2079978  61.2440014
 127.8709992  78.1809978  60.6420014 128.6549992  78.8109978  60.2480014
 126.9809992  78.7869978  60.7320014 127.7699992  77.2439978  60.1150014
 125.7109992  77.8699978  65.3400014 127.2759992  78.2969978  67.1140014
 125.7669992  74.3559978  69.1550014 124.5009992  73.8789978  69.1100014
 124.0099992  73.1299978  68.3590014 123.8849992  74.4309978  70.3800014
 122.7779992  74.3349978  70.4060014 124.0759992  75.5169978  70.2430014
 124.4969992  73.8579978  71.6240014 125.4849992  74.3589978  71.7130014
 124.6199992  72.7539978  71.6050014 123.7919992  74.3459978  72.9070014
 122.7369992  74.0139978  73.0120014 123.8199992  75.4569978  72.9200014
 124.5769992  73.9769978  74.2030014 125.5839992  74.4419978  74.2640014
 124.7539992  72.8809978  74.1830014 123.8099992  74.4259978  75.4710014
 122.8039992  73.9719978  75.5990014 123.6199992  75.5099978  75.3180014
 124.6569992  74.2009978  76.7480014 125.5379992  74.8779978  76.7460014
 124.9649992  73.1329978  76.7750014 123.8529992  74.4339978  78.0510014
 124.4169992  74.1449978  78.9630014 122.9719992  73.7599978  78.1030014
 123.2909992  75.8269978  78.2000014 122.2449992  75.9379978  77.8780014
 123.9599992  76.8799978  78.7400014 123.5389992  77.8959978  78.7350014
 125.3829992  76.7019978  79.1860014 126.1849992  77.0099978  78.4820014
 125.6129992  75.7069978  79.6250014 125.7679992  77.8319978  80.2460014
 125.7929992  78.8809978  79.8810014 126.8149992  77.5809978  80.5200014
 124.9149992  77.5609978  81.4540014 124.7349992  76.4949978  81.7090014
 123.8479992  77.8379978  81.3190014 125.5449992  78.3489978  82.6570014
 125.3999992  79.4369978  82.4860014 126.6179992  78.0729978  82.7410014
 124.8709992  77.9439978  83.9580014 124.9749992  76.8479978  84.1050014
 123.7989992  78.2339978  83.9710014 125.3329992  78.6209978  85.2870014
 124.7799992  78.2499978  86.1760014 125.2259992  79.7269978  85.2730014
 126.8699992  78.5209978  85.6100014 127.1299992  79.3939978  86.2460014
 127.4399992  78.6599978  84.6660014 127.4199992  77.1699978  86.1270014
 128.4929992  77.2949978  86.3880014 127.2029992  76.3689978  85.3890014
 126.8699992  76.9469978  87.0660014 108.3499992  37.9579978  80.9160014
 107.7929992  38.7379978  81.4770014 108.8199992  38.3859978  80.0050014
 109.2249992  37.6539978  81.5310014 107.5489992  36.7299978  80.5590014
 106.6859992  36.4439978  81.1980014 107.0449992  37.0549978  79.6230014
 108.3989992  35.4009978  80.3020014 108.9159992  35.0229978  81.2100014
 107.6129992  34.6529978  80.0620014 109.3389992  35.6949978  79.1850014
 108.7839992  35.9149978  78.2480014 109.9819992  36.5309978  79.5340014
 110.2159992  34.4389978  78.9540014 110.5869992  34.3569978  79.9980014
 109.6419992  33.5139978  78.7340014 111.4319992  34.6929978  77.9320014
 111.7759992  35.7229978  78.1690014 112.2739992  34.0069978  78.1650014
 110.9609992  34.6249978  76.4660014 109.9179992  35.0069978  76.4450014
 111.5799992  35.3489978  75.8940014 111.0599992  33.2049978  75.8220014
 112.0419992  32.6889978  75.8740014 110.3769992  32.4559978  76.2760014
 110.6029992  33.2489978  74.3660014 110.4859992  32.2509978  73.8930014
 109.6159992  33.7389978  74.5130014 111.3539992  34.3199978  73.5940014
 111.2569992  35.3579978  73.9780014 112.4209992  34.0129978  73.5980014
 110.8929992  34.4759978  72.1090014 111.5739992  35.2309978  71.6600014
 111.0149992  33.5829978  71.4600014 109.4689992  35.1039978  71.9250014
 108.7039992  34.2989978  71.9710014 109.3689992  35.8979978  72.6940014
 109.2179992  35.7279978  70.5810014 109.9749992  36.4019978  70.1270014
 109.1309992  34.8889978  69.8580014 107.8649992  36.5299978  70.4500014
 107.1549992  35.9019978  71.0300014 107.8609992  37.5259978  70.9440014
 107.4759992  36.5299978  68.9950014 107.9929992  35.7799978  68.3600014
 106.3729992  36.3969978  68.9940014 107.8119992  37.9089978  68.3610014
 107.1489992  38.9069978  68.5510014 108.8969992  37.8749978  67.5940014
 109.5749992  39.0249978  67.0600014 109.1019992  39.1549978  66.0630014
 109.4529992  39.9229978  67.7030014 111.0259992  38.6869978  66.8010014
 111.4599992  39.6569978  66.4790014 111.1389992  37.6309978  65.6740014
 110.5609992  36.7029978  65.8740014 110.7539992  38.0679978  64.7280014
 112.5209992  37.2399978  65.4960014 112.9889992  36.1659978  64.3960014
 111.6409992  35.3499978  64.1550014 111.3419992  34.6009978  62.9810014
 110.8409992  35.2069978  62.1960014 112.2879992  34.3019978  62.4810014
 110.4099992  33.4729978  63.3460014 110.3329992  32.8689978  62.4540014
 110.8109992  32.8689978  64.1460014 109.1209992  33.9609978  63.8790014
 109.2229992  34.2939978  65.3940014 108.2329992  34.4999978  65.7740014
 109.7229992  33.5719978  66.0230014 109.7629992  35.2279978  65.3580014
 108.6219992  35.0939978  63.1160014 109.2859992  35.8849978  63.4300014
 108.8189992  34.8669978  62.0780014 107.5869992  35.2819978  63.3640014
 108.1479992  32.7939978  63.6150014 108.1119992  32.5839978  62.5560014
 107.1869992  33.2159978  63.8700014 108.4069992  31.8829978  64.1320014
 113.2849992  36.9399978  63.1770014 113.9809992  35.2439978  64.9520014
 111.7249992  38.0889978  67.9210014 111.9769992  38.8539978  68.9360014
 111.4529992  39.9449978  69.0890014 113.0339992  38.1649978  69.8370014
 112.5929992  37.1509978  69.9480014 112.9509992  38.6839978  70.8170014
 114.3249992  38.2869978  69.1220014 114.6159992  39.3579978  69.1710014
 114.3539992  37.8819978  68.0870014 115.4439992  37.4729978  69.8650014
 116.1859992  37.0339978  69.1650014 114.9069992  36.6839978  70.4350014
 116.4249992  38.2979978  70.7660014 117.0419992  39.0469978  70.2240014
 117.1179992  37.5009978  71.1110014 115.8319992  38.9649978  71.9940014
 115.1069992  39.7359978  71.6550014 116.5879992  39.5179978  72.5920014
 115.2529992  38.0709978  73.1170014 115.9559992  37.2109978  73.0720014
 114.2439992  37.6659978  72.8880014 115.2449992  38.7099978  74.5600014
 114.4129992  39.4399978  74.4690014 116.0799992  39.4209978  74.7330014
 114.9039992  37.7119978  75.7110014 115.6689992  36.9849978  76.0220014
 113.7429992  37.7369978  76.3810014 113.5499992  37.0669978  77.2320014
 112.5499992  38.6969978  76.1510014 111.5929992  38.1399978  76.2400014
 112.4309992  38.9749978  75.0820014 112.5139992  39.9699978  77.0350014
 111.9109992  40.7199978  76.4790014 113.5539992  40.3209978  77.2060014
 111.8839992  39.6799978  78.3620014 110.9449992  39.0959978  78.2500014
 111.7319992  40.6959978  78.7840014 112.9039992  38.9919978  79.2890014
 113.7709992  39.6449978  79.5280014 113.2149992  38.0149978  78.8610014
 112.2899992  38.6469978  80.6780014 111.7769992  37.6729978  80.5230014
 111.7559992  39.5469978  81.0500014 113.4359992  38.5609978  81.7160014
 113.9289992  39.5449978  81.8660014 114.1229992  37.8109978  81.2680014
 112.9179992  38.0789978  83.1260014 113.8079992  38.0799978  83.7920014
 112.7019992  37.0009978  82.9680014 111.7709992  38.8799978  83.6290014
 110.8159992  38.7189978  83.0840014 111.9599992  39.9739978  83.6720014
 111.6189992  38.6809978  84.7110014 129.4649992  86.4589978  80.6580014
 130.1399992  87.1629978  80.1280014 130.1699992  85.8409978  81.2550014
 128.7599992  86.9929978  81.3310014 128.8129992  85.6109978  79.6140014
 129.5479992  84.9709978  79.0820014 128.1219992  84.8749978  80.0780014
 128.0009992  86.3459978  78.5630014 128.5419992  87.2979978  78.3740014
 128.0379992  85.7699978  77.6140014 126.5419992  86.6409978  79.0180014
 126.5999992  87.0809978  80.0360014 126.0449992  87.3109978  78.2840014
 125.5679992  85.4089978  79.0390014 125.9529992  84.6549978  79.7580014
 124.5799992  85.8669978  79.2570014 125.6189992  84.6549978  77.7130014
 126.6639992  84.3529978  77.4900014 125.0709992  83.6899978  77.6570014
 125.1089992  85.4839978  76.4750014 124.0429992  85.7349978  76.6630014
 125.7549992  86.3869978  76.5180014 125.3049992  84.6839978  75.1920014
 125.2199992  85.4599978  74.4020014 126.2659992  84.1289978  75.1330014
 124.2119992  83.6729978  74.8010014 124.0489992  83.0209978  75.6860014
 123.2849992  84.2789978  74.7120014 124.4939992  82.8779978  73.5240014
 125.2749992  82.1149978  73.7290014 123.5749992  82.3479978  73.1960014
 124.9819992  83.5759978  72.2540014 124.5329992  84.5819978  72.1150014
 126.0589992  83.7669978  72.4470014 125.0719992  82.6389978  71.0300014
 125.7239992  81.7519978  71.1790014 124.0619992  82.2869978  70.7320014
 125.5899992  83.4189978  69.8510014 126.4959992  84.0549978  69.9470014
 125.8859992  82.7559978  69.0110014 124.4459992  84.2809978  69.3090014
 123.5879992  83.6419978  69.0070014 124.0829992  84.9089978  70.1500014
 124.9549992  85.2819978  68.2400014 125.7139992  84.9549978  67.4980014
 124.0629992  85.5119978  67.6200014 125.3289992  86.6469978  68.8180014
 125.3679992  87.0429978  69.9630014 125.7179992  87.3419978  67.7380014
 126.1119992  88.7059978  67.9280014 125.6909992  89.3869978  67.1570014
 125.8439992  89.0619978  68.9460014 127.7099992  88.7499978  67.6620014
 128.0129992  89.8049978  67.8350014 128.0859992  88.3969978  66.2100014
 127.5099992  89.0539978  65.5240014 129.1719992  88.5729978  66.0550014
 127.7329992  87.0209978  65.8250014 128.5689992  86.4099978  64.5660014
 127.4449992  85.6489978  63.7160014 126.3499992  84.9849978  64.3070014
 125.8139992  84.3249978  63.5920014 126.7379992  84.5569978  65.2560014
 125.2359992  86.0159978  64.6250014 124.5479992  85.4859978  65.2680014
 125.5839992  86.8659978  65.1940014 124.4889992  86.6019978  63.4370014
 125.3369992  87.4879978  62.5470014 124.6319992  87.7339978  61.7660014
 125.6449992  88.3429978  63.1300014 126.1839992  86.8729978  62.2830014
 123.8519992  85.5849978  62.5050014 123.2359992  84.9629978  63.1390014
 123.1609992  86.0179978  61.7970014 124.6369992  85.0689978  61.9730014
 123.4769992  87.4039978  64.2040014 122.9369992  86.7569978  64.8780014
 122.8529992  87.9939978  63.5490014 123.9609992  88.1439978  64.8240014
 129.0469992  87.5619978  63.6980014 129.5579992  85.4229978  65.0760014
 128.3919992  87.9099978  68.6120014 129.7429992  87.9109978  68.7890014
 130.5089992  88.7349978  68.2480014 130.2989992  86.6819978  69.5520014
 131.0949992  87.1139978  70.1960014 130.5109992  85.9209978  68.7710014
 129.2889992  86.0759978  70.6220014 129.6919992  85.0679978  70.8590014
 128.2599992  85.9929978  70.2100014 129.4009992  86.9879978  71.8210014
 129.2799992  88.0619978  71.5640014 130.4459992  86.9329978  72.1940014
 128.3259992  86.5849978  72.8670014 128.3879992  85.4959978  73.0790014
 127.3409992  86.8069978  72.4030014 128.3709992  87.2849978  74.1770014
 129.3839992  87.2679978  74.6320014 127.6979992  86.6559978  74.7990014
 128.0139992  88.7609978  74.2190014 128.8779992  89.2809978  73.7510014
 128.0799992  89.1909978  75.2410014 126.7479992  89.2309978  73.5180014
 126.7779992  88.8629978  72.4700014 126.7639992  90.3369978  73.4230014
 125.5019992  88.8479978  74.2630014 125.0499992  87.8869978  73.9760014
 124.8339992  89.5609978  75.2060014 123.8989992  89.1959978  75.6540014
 125.2999992  90.8909978  75.7040014 124.7409992  91.7549978  75.2870014
 126.3769992  91.0049978  75.4570014 125.2139992  90.8399978  77.2140014
 125.7659992  89.9809978  77.6520014 124.1849992  90.6669978  77.5980014
 125.8189992  92.0729978  77.8930014 125.2309992  92.9469978  77.5390014
 126.8639992  92.1949978  77.5360014 125.7859992  92.0019978  79.4260014
 124.7699992  91.7379978  79.7880014 125.9139992  92.9979978  79.9010014
 126.8589992  91.0919978  80.0630014 127.7809992  91.5189978  79.6160014
 126.6009992  90.0299978  79.8630014 126.8789992  91.1489978  81.5920014
 125.8209992  90.9429978  81.8630014 126.9669992  92.1689978  82.0250014
 127.7449992  90.1249978  82.2120014 128.8099992  90.4249978  82.1160014
 127.6779992  89.1719978  81.6450014 127.2639992  89.8299978  83.5980014
 127.5099992  90.7379978  84.1900014 127.7569992  88.8659978  83.8470014
 126.1939992  89.5349978  83.6470014 115.8549992 107.6369978  83.4250014
 114.9979992 107.9309978  84.0690014 116.3299992 108.5609978  83.0310014
 116.6009992 107.0609978  84.0120014 115.4879992 106.7519978  82.1740014
 116.3459992 106.6049978  81.4830014 115.0479992 105.7609978  82.4200014
 114.4569992 107.5169978  81.3310014 113.6449992 107.7609978  82.0490014
 114.9299992 108.4409978  80.9340014 114.0889992 106.7359978  80.1100014
 114.0719992 105.6279978  80.1760014 113.0239992 106.9759978  79.9030014
 114.7799992 107.3659978  78.9050014 114.3989992 108.4079978  78.8410014
 115.8549992 107.1889978  79.1220014 114.2869992 106.8099978  77.5880014
 114.6939992 105.7829978  77.4750014 113.1839992 106.6949978  77.6540014
 114.5659992 107.6039978  76.3570014 113.9789992 108.5459978  76.3110014
 115.6279992 107.9309978  76.3270014 114.2699992 106.8119978  75.0110014
 114.9349992 105.9549978  74.7680014 113.2799992 106.3119978  75.0690014
 114.0219992 107.6649978  73.7510014 114.8799992 108.3519978  73.5890014
 114.0509992 106.9439978  72.9070014 112.7149992 108.5989978  73.8250014
 111.9699992 107.9959978  74.3870014 112.8569992 109.4789978  74.4880014
 111.9589992 108.9739978  72.5120014 111.7379992 107.9839978  72.0570014
 111.0009992 109.5159978  72.6640014 112.8349992 109.7589978  71.4930014
 113.0539992 110.7179978  72.0090014 113.8379992 109.3079978  71.3360014
 112.0139992 109.9349978  70.1520014 111.8579992 108.9419978  69.6780014
 111.0179992 110.3319978  70.4400014 112.4949992 111.0439978  69.1210014
 111.6239992 111.2919978  68.4770014 112.7449992 111.9669978  69.6860014
 113.5409992 110.5849978  68.1630014 114.4319992 110.2529978  68.7370014
 113.0769992 109.7359978  67.6150014 114.0499992 111.7159978  67.3160014
 113.9489992 112.9009978  67.6200014 114.5369992 111.2099978  66.2320014
 115.0729992 112.2269978  65.3550014 114.1159992 112.6389978  64.9700014
 115.6449992 113.0449978  65.8420014 115.8929992 111.6799978  64.2070014
 116.1799992 112.5489978  63.5760014 115.0269992 110.7399978  63.3370014
 113.9849992 111.0209978  63.6020014 114.9929992 111.1019978  62.2870014
 115.2759992 109.3219978  63.4970014 116.3539992 108.6419978  62.5640014
 116.0169992 107.1169978  62.7400014 115.2079992 106.5959978  63.7310014
 114.1819992 107.0099978  63.6360014 115.0629992 105.5559978  63.3690014
 115.8289992 106.6689978  65.1410014 116.0019992 107.7099978  65.3690014
 115.0859992 106.4199978  65.8850014 117.0829992 105.9179978  65.5120014
 118.3269992 106.3229978  64.7230014 119.1819992 105.7039978  64.9510014
 118.2039992 106.3399978  63.6500014 118.5079992 107.3559978  64.9830014
 117.3849992 106.0679978  66.9380014 116.5129992 105.7759978  67.5030014
 118.2799992 105.5059978  67.1630014 117.6029992 107.0979978  67.1800014
 116.7479992 104.4229978  65.4030014 116.2029992 104.1689978  64.5050014
 116.2399992 104.0749978  66.2900014 117.6619992 103.8559978  65.3020014
 116.1149992 109.0709978  61.1530014 117.7399992 108.8959978  63.1040014
 117.0499992 110.9929978  64.7160014 118.0239992 111.7119978  65.1930014
 118.0509992 112.9589978  65.1820014 118.9979992 110.7889978  65.8790014
 119.9599992 110.7309978  65.3250014 118.6039992 109.7599978  66.0140014
 119.3769992 111.3149978  67.2610014 119.6809992 112.3829978  67.2880014
 120.2149992 110.7679978  67.7440014 118.2049992 111.1749978  68.2800014
 118.2429992 110.0699978  68.3910014 117.2799992 111.3569978  67.6920014
 118.4079992 112.0839978  69.4850014 118.4479992 113.1369978  69.1330014
 119.3729992 111.8489978  69.9840014 117.2819992 112.0019978  70.5650014
 116.3059992 111.8429978  70.0590014 117.2779992 112.9379978  71.1630014
 117.5269992 110.7919978  71.4710014 118.5079992 110.9779978  71.9580014
 117.4569992 109.8599978  70.8700014 116.5419992 110.6099978  72.6190014
 116.9289992 109.8379978  73.3170014 115.5579992 110.2039978  72.3020014
 116.2869992 111.8259978  73.4440014 115.4949992 112.4069978  72.9500014
 116.9169992 112.2569978  74.5550014 116.7089992 113.3299978  74.6750014
 118.0959992 111.5339978  75.1860014 118.9239992 112.0879978  74.6940014
 118.1399992 110.4669978  74.8770014 118.1179992 111.6229978  76.7250014
 118.0439992 112.6649978  77.1050014 119.0289992 111.1849978  77.1850014
 116.8719992 110.7979978  77.2820014 116.7259992 109.9359978  76.5970014
 116.0309992 111.5219978  77.2330014 117.1719992 110.2719978  78.8180014
 118.0899992 109.6719978  78.6390014 116.4519992 109.5079978  79.1810014
 117.3859992 111.4189978  79.8180014 116.4359992 111.9869978  79.7170014
 118.2409992 111.9789978  79.3810014 117.5519992 111.0099978  81.3260014
 116.9679992 110.0809978  81.5010014 117.2759992 111.8129978  82.0440014
 119.0179992 110.6369978  81.6410014 119.3219992 109.9089978  80.8590014
 119.0029992 110.1179978  82.6240014 120.1059992 111.7889978  81.6550014
 120.1989992 112.2159978  80.6340014 121.0429992 111.3129978  82.0150014
 119.8309992 112.6799978  82.2590014  95.0729992  23.5289978  81.5750014
  95.0289992  24.3509978  80.8290014  94.4829992  23.9289978  82.4270014
  94.5349992  22.6149978  81.2430014  96.4979992  23.2069978  81.9690014
  96.6539992  23.3799978  83.0560014  96.6119992  22.1039978  81.9110014
  97.6019992  23.9259978  81.2110014  97.4569992  25.0109978  81.3980014
  98.5849992  23.6509978  81.6490014  97.7209992  23.5769978  79.7430014
  97.8139992  22.4829978  79.5720014  96.7919992  23.8449978  79.1960014
  98.8939992  24.3049978  79.0690014  99.0199992  25.3089978  79.5270014
  99.8339992  23.7819978  79.3500014  98.9429992  24.2859978  77.4770014
  99.1089992  23.2799978  77.0350014  97.8729992  24.5319978  77.3020014
 100.0839992  25.1579978  76.9510014 100.3039992  26.1109978  77.4790014
 100.9689992  24.4999978  77.0800014  99.9299992  25.5049978  75.4910014
 100.8759992  26.0049978  75.1920014  99.8229992  24.6149978  74.8350014
  98.6729992  26.3649978  75.1120014  97.7319992  25.9959978  75.5730014
  98.7759992  27.2949978  75.7110014  98.6239992  26.6649978  73.5900014
  98.2479992  25.7159978  73.1520014  97.8909992  27.4849978  73.4280014
  99.9739992  27.0039978  72.8730014 100.3369992  27.8049978  73.5530014
 100.6779992  26.1459978  72.9170014  99.7709992  27.6759978  71.5340014
  99.1689992  28.6019978  71.6510014 100.7979992  27.9149978  71.1860014
  99.3759992  26.7589978  70.3700014  98.3399992  26.4199978  70.5860014
  99.3049992  27.2549978  69.3780014 100.3209992  25.5639978  70.2500014
 101.3559992  25.9579978  70.3410014 100.2299992  24.8169978  71.0670014
 100.1849992  24.9139978  68.8630014  99.1729992  24.4609978  68.7900014
 100.3539992  25.7059978  68.1030014 101.2619992  23.8789978  68.6190014
 102.3219992  23.8119978  69.1940014 100.8789992  23.0049978  67.5830014
 101.7659992  21.9369978  67.4270014 102.8269992  22.2419978  67.5530014
 101.6279992  21.1479978  68.1970014 101.5039992  21.1699978  66.0410014
 102.1269992  20.2559978  65.9410014 101.6839992  22.2109978  64.8610014
 102.6069992  22.7619978  65.1400014 101.8239992  21.8009978  63.8380014
 100.5439992  23.0759978  64.7470014  99.6069992  23.3029978  63.5120014
  98.4099992  24.0749978  64.2080014  97.8239992  23.7879978  65.3610014
  98.5569992  23.3249978  66.0560014  97.3829992  24.6769978  65.8610014
  96.5879992  22.8499978  65.1530014  97.0449992  21.9699978  64.7260014
  96.1569992  22.6679978  66.1270014  95.5089992  23.3169978  64.2800014
  95.9609992  23.2179978  62.7380014  95.1149992  23.3399978  62.0770014
  96.5769992  24.0919978  62.5820014  96.5149992  22.3019978  62.5990014
  94.3159992  22.4149978  64.4000014  93.9519992  22.5679978  65.4050014
  93.6009992  22.6999978  63.6430014  94.7159992  21.4119978  64.3750014
  95.0669992  24.6059978  64.6750014  95.9169992  25.2679978  64.5970014
  94.7899992  24.6509978  65.7180014  94.3069992  25.0589978  64.0560014
 100.2339992  24.2109978  62.5280014  99.1499992  22.0899978  62.9050014
 100.1459992  20.6669978  65.9710014  99.8859992  19.6779978  65.0810014
 100.6069992  19.2999978  64.1360014  98.5359992  19.2549978  65.4030014
  98.0729992  19.0549978  64.4130014  98.0359992  20.1379978  65.8560014
  98.5959992  18.0289978  66.3140014  99.1019992  17.3039978  65.6410014
  97.5399992  17.7259978  66.4810014  99.5069992  18.0839978  67.6070014
 100.5829992  18.3379978  67.4940014  99.6659992  17.0049978  67.8210014
  98.7219992  18.7459978  68.8010014  98.9329992  18.0799978  69.6650014
  97.6159992  18.6519978  68.7610014  99.1799992  20.1579978  69.1940014
  98.9939992  20.8389978  68.3360014 100.2189992  20.2659978  69.5720014
  98.2799992  20.6729978  70.3370014  98.1659992  19.8449978  71.0690014
  97.2489992  20.9759978  70.0540014  98.9879992  21.8409978  71.0810014
  99.0049992  22.5929978  70.2620014 100.0729992  21.7419978  71.2970014
  98.1129992  22.3739978  72.2530014  97.2879992  23.0819978  72.0860014
  98.2629992  21.8469978  73.4710014  97.5459992  22.1529978  74.2470014
  99.2049992  20.7649978  73.8570014  99.9619992  20.6739978  73.0480014
  98.7079992  19.7719978  73.8210014  99.9149992  21.0129978  75.2600014
  99.1159992  21.2429978  75.9970014 100.6799992  21.8159978  75.2090014
 100.5399992  19.7519978  75.8720014 101.3379992  19.4239978  75.1720014
  99.8029992  18.9499978  76.0920014 101.1899992  20.0049978  77.2270014
 101.7429992  20.9679978  77.2730014 101.9069992  19.1859978  77.4500014
 100.3369992  19.9069978  78.4910014  99.7489992  18.9649978  78.4830014
  99.5779992  20.7179978  78.5260014 101.1059992  20.1919978  79.7880014
 101.8699992  20.9939978  79.7100014 101.7219992  19.3069978  80.0570014
 100.1479992  20.4049978  80.9620014  99.6549992  21.3919978  80.8350014
 100.6949992  20.3709978  81.9280014  98.9399992  19.4559978  81.1790014
  98.4209992  19.4969978  80.1970014  98.3429992  20.0829978  81.8760014
  99.0899992  18.3759978  81.3940014  84.7189992 120.8559978  81.4040014
  85.6809992 121.1619978  81.8680014  84.8489992 119.7549978  81.3240014
  83.8549992 121.1529978  82.0360014  84.6089992 121.6489978  80.1180014
  85.1709992 121.0059978  79.4070014  83.5579992 121.6879978  79.7590014
  85.2739992 123.0569978  80.0940014  84.4809992 123.8329978  80.0350014
  85.8579992 123.2099978  81.0270014  86.2579992 123.3749978  78.8880014
  86.8439992 124.2549978  79.2270014  86.9839992 122.5339978  78.8970014
  85.6349992 123.3769978  77.6030014  84.8989992 122.5449978  77.6280014
  85.0279992 124.2919978  77.4350014  86.4529992 123.2349978  76.3630014
  87.1239992 122.3659978  76.5370014  85.8039992 123.0479978  75.4820014
  87.3029992 124.4519978  75.9470014  86.6579992 125.2559978  75.5330014
  87.8139992 124.8729978  76.8390014  88.5579992 124.0969978  75.0370014
  89.2279992 124.9709978  74.8880014  89.1329992 123.3269978  75.5930014
  88.0949992 123.5109978  73.7080014  87.5039992 122.5949978  73.9240014
  87.4279992 124.2849978  73.2730014  89.2769992 123.3349978  72.7900014
  89.6209992 124.3489978  72.4910014  90.1249992 122.7849978  73.2520014
  88.9729992 122.5209978  71.4800014  88.0689992 122.9849978  71.0300014
  89.8439992 122.6079978  70.7960014  88.6159992 121.0909978  71.8330014
  89.4799992 120.6419978  72.3690014  87.7929992 121.1959978  72.5720014
  88.3539992 120.1579978  70.6190014  89.0679992 120.3669978  69.7940014
  88.4649992 119.1129978  70.9810014  86.8649992 120.3629978  70.2090014
  86.6999992 121.4149978  69.8910014  86.7899992 119.7409978  69.2910014
  85.8539992 119.8819978  71.1730014  86.3009992 119.0509978  71.7580014
  85.4939992 120.6649978  71.8750014  84.5669992 119.3489978  70.5500014
  83.9069992 118.4959978  71.0890014  84.2929992 119.9709978  69.3980014
  82.9799992 119.7649978  68.8210014  83.0309992 118.8379978  68.2110014
  82.1749992 119.7909978  69.5860014  82.4819992 120.9189978  67.8880014
  81.4889992 120.6919978  67.4440014  83.5509992 121.0489978  66.6510014
  83.8689992 120.0599978  66.2570014  83.0319992 121.4949978  65.7750014
  84.7149992 121.8289978  67.1170014  86.0059992 121.8299978  66.1710014
  85.5759992 122.5279978  64.8330014  86.2759992 123.5979978  64.3720014
  86.2659992 124.4609978  65.0710014  87.3259992 123.4469978  64.0420014
  85.6399992 124.1709978  63.0550014  84.6489992 124.5409978  63.2760014
  86.2999992 124.9079978  62.6210014  85.2449992 123.1789978  61.8960014
  86.2919992 122.1459978  61.4970014  86.5499992 121.5269978  62.3440014
  85.8949992 121.5049978  60.7240014  87.1509992 122.7159978  61.1760014
  84.0449992 122.4609978  62.2120014  83.1709992 123.0849978  62.0980014
  83.9069992 121.7249978  61.4330014  84.2079992 122.0639978  63.2030014
  84.9569992 124.1149978  60.6860014  85.8939992 124.5949978  60.4460014
  84.2049992 124.8599978  60.9010014  84.6699992 123.5579978  59.8070014
  87.1809992 122.5029978  66.8010014  86.3399992 120.4089978  65.8670014
  82.3769992 122.0379978  68.7480014  82.1199992 123.2039978  68.1200014
  81.8199992 123.3889978  66.9450014  82.4599992 124.3959978  69.0790014
  82.5489992 123.9519978  70.0930014  81.7049992 125.2099978  69.0460014
  83.7459992 125.0689978  68.6300014  83.7279992 125.5659978  67.6370014
  84.5539992 124.3199978  68.4820014  84.2779992 126.1579978  69.5620014
  83.3609992 126.3999978  70.1400014  84.7389992 126.9769978  68.9700014
  85.4599992 125.6789978  70.3520014  86.3929992 125.9749978  69.8260014
  85.4509992 124.5699978  70.4120014  85.6879992 126.2499978  71.7470014
  85.7989992 127.3459978  71.6050014  86.6309992 125.8369978  72.1650014
  84.5819992 126.0499978  72.7810014  83.6099992 126.5549978  72.5940014
  84.8609992 126.5089978  73.7540014  84.2869992 124.5309978  72.9920014
  85.1889992 123.9309978  73.2380014  83.8029992 124.0919978  72.0940014
  83.4389992 124.3379978  74.2070014  83.2789992 125.2459978  74.8060014
  82.7309992 123.2649978  74.4870014  82.1569992 123.2079978  75.4230014
  82.6179992 121.9799978  73.8010014  83.1869992 121.9519978  72.8470014
  81.5669992 121.6259978  73.7370014  83.2489992 120.8319978  74.7300014
  84.2329992 121.2429978  75.0410014  83.3459992 119.8699978  74.1830014
  82.3779992 120.6819978  75.9780014  81.3799992 120.3289978  75.6400014
  82.2749992 121.6249978  76.5560014  82.8389992 119.5889978  76.8870014
  83.8239992 119.9639978  77.2400014  82.9809992 118.6309978  76.3430014
  81.9699992 119.1659978  78.0360014  80.9789992 118.8229978  77.6700014
  81.6799992 120.1059978  78.5530014  82.8149992 118.3699978  79.0350014
  83.4649992 119.0589978  79.6150014  83.4069992 117.5969978  78.4990014
  81.9259992 117.6439978  80.0600014  81.2429992 116.9889978  79.4760014
  81.3519992 118.4549978  80.5580014  82.7319992 116.7989978  81.0790014
  83.6579992 117.3189978  81.4060014  83.0319992 115.8309978  80.6250014
  82.0329992 116.6589978  81.9310014 117.2499992  41.1259978  82.2920014
 117.0759992  42.1869978  82.0110014 118.3069992  40.8879978  82.5380014
 116.8239992  41.0049978  83.3110014 116.5019992  40.1179978  81.4160014
 117.1129992  39.9449978  80.5040014 116.3329992  39.2079978  82.0320014
 115.0929992  40.4759978  80.9540014 114.3229992  40.3139978  81.7380014
 115.0209992  41.5269978  80.6010014 114.5519992  39.5149978  79.8040014
 115.3269992  39.6529978  79.0200014 114.3989992  38.4869978  80.1980014
 113.2889992  40.0709978  79.2250014 112.5699992  39.2409978  79.0610014
 112.7229992  40.6809978  79.9610014 113.2899992  40.7039978  77.7900014
 113.6169992  39.8759978  77.1250014 112.2169992  40.8729978  77.5580014
 113.9059992  42.0649978  77.5830014 113.4169992  42.6749978  78.3720014
 115.0059992  41.9589978  77.7010014 113.5829992  42.6579978  76.1900014
 113.9759992  42.0339978  75.3580014 112.4799992  42.7599978  76.1070014
 113.8239992  44.1779978  76.1290014 113.1789992  44.6789978  75.3760014
 113.4019992  44.5419978  77.0900014 115.2149992  44.6669978  75.9410014
 115.1369992  45.7639978  76.1040014 115.8269992  44.2519978  76.7700014
 115.8889992  44.4869978  74.5640014 116.0919992  43.4029978  74.4310014
 115.2399992  44.9689978  73.8030014 117.2739992  45.2369978  74.5180014
 117.2079992  46.2709978  74.1160014 117.6989992  45.1889978  75.5430014
 118.2939992  44.5109978  73.6600014 119.2289992  45.1069978  73.7240014
 118.5689992  43.5099978  74.0560014 117.9399992  44.2739978  72.2030014
 118.7169992  43.6259978  71.7420014 117.0079992  43.6869978  72.0610014
 117.9579992  45.5379978  71.2720014 117.0939992  46.0709978  71.7240014
 118.8219992  46.2119978  71.4560014 117.7309992  45.1869978  69.7930014
 118.6039992  45.1329978  68.9420014 116.4489992  44.8659978  69.5950014
 116.0539992  44.4089978  68.2090014 114.9699992  44.6339978  68.1190014
 116.4989992  45.0369978  67.4090014 116.2859992  42.9039978  68.0750014
 117.3779992  42.7199978  67.9870014 115.6279992  42.3689978  66.7610014
 114.5499992  42.6379978  66.7300014 116.0979992  42.8019978  65.8520014
 115.6879992  40.9589978  66.7960014 116.6299992  40.1049978  65.9240014
 116.6049992  40.8749978  64.5460014 117.6909992  41.7219978  64.1270014
 118.3519992  42.0709978  64.9490014 118.2859992  41.3559978  63.2630014
 116.9549992  42.9119978  63.4310014 116.2949992  43.3179978  64.1830014
 117.7119992  43.6089978  63.1020014 116.1169992  42.8109978  62.1840014
 114.8799992  41.9769978  62.3740014 115.1619992  40.9379978  62.4530014
 114.3429992  42.3499978  63.2340014 114.1849992  41.9819978  61.5480014
 115.7119992  44.2349978  61.8640014 114.8659992  44.4579978  62.4960014
 116.5709992  44.8769978  61.9920014 115.5069992  44.2329978  60.8030014
 117.0819992  42.3349978  61.1180014 117.5329992  41.4149978  61.4580014
 117.8499992  43.0499978  60.8610014 116.5219992  42.0319978  60.2460014
 118.0009992  40.0939978  66.4470014 115.9809992  38.7729978  65.6950014
 115.7749992  42.3069978  69.2610014 116.6119992  41.4949978  69.9160014
 117.7649992  41.2359978  69.5540014 115.8319992  41.0449978  71.1220014
 114.9139992  40.5379978  70.7560014 115.4259992  41.9109978  71.6870014
 116.5459992  39.9829978  71.9050014 117.2599992  39.3839978  71.3000014
 115.7089992  39.2859978  72.1250014 117.2639992  40.4039978  73.2340014
 116.5719992  41.0639978  73.8000014 118.1279992  41.0539978  72.9810014
 117.7959992  39.2579978  74.0710014 118.3679992  38.4999978  73.4950014
 116.9189992  38.6269978  74.3320014 118.4489992  39.6159978  75.4150014
 119.4029992  40.0499978  75.0470014 118.5219992  38.6519978  75.9630014
 117.6769992  40.6759978  76.1840014 116.6509992  40.2609978  76.2840014
 117.5879992  41.6479978  75.6550014 118.2229992  40.7769978  77.6040014
 118.2989992  39.7579978  78.0390014 117.4699992  41.3229978  78.2110014
 119.6219992  41.3789978  77.7840014 120.4879992  40.7009978  77.7770014
 119.8409992  42.7519978  77.8570014 120.8959992  42.9939978  78.0550014
 118.7909992  43.8779978  77.7600014 117.8179992  43.5279978  77.3540014
 119.1129992  44.6259978  77.0040014 118.5729992  44.8499978  78.9750014
 117.6679992  45.4149978  78.6670014 119.4529992  45.5289978  78.9580014
 118.6679992  44.1379978  80.3950014 119.7459992  44.1939978  80.6590014
 118.1829992  43.1399978  80.3530014 118.0079992  44.9009978  81.5590014
 118.6739992  45.7819978  81.6820014 118.1209992  44.3429978  82.5130014
 116.5349992  45.1409978  81.4300014 116.0319992  44.1499978  81.4180014
 116.3909992  45.6679978  80.4620014 116.0279992  45.9409978  82.6200014
 116.0999992  47.0369978  82.4540014 116.4029992  45.6969978  83.6370014
 114.5399992  45.6549978  82.7390014 114.0829992  46.3309978  83.4930014
 114.4059992  44.6039978  83.0720014 113.7809992  45.6449978  81.3890014
 112.6849992  45.4999978  81.4960014 114.2979992  44.9059978  80.7400014
 114.0709992  46.6079978  80.9170014  15.6729992  71.4479978  86.0360014
  16.6499992  71.0489978  85.6900014  15.4729992  71.2999978  87.1180014
  15.7329992  72.5569978  85.9850014  14.5279992  70.7389978  85.3230014
  14.5949992  69.6939978  85.6930014  13.4879992  71.0709978  85.5310014
  14.8159992  70.7619978  83.8150014  14.9719992  71.7969978  83.4430014
  15.7509992  70.2309978  83.5360014  13.6659992  70.1569978  83.0620014
  13.3669992  69.1699978  83.4750014  12.8269992  70.8849978  83.0770014
  14.0199992  69.9579978  81.5980014  14.3999992  70.8929978  81.1340014
  14.8789992  69.2989978  81.3470014  12.8759992  69.3759978  80.7460014
  13.1979992  68.7969978  79.8540014  12.3629992  68.6609978  81.4240014
  11.7779992  70.2849978  80.3210014  10.8729992  69.6439978  80.3940014
  11.5919992  71.1659978  80.9720014  11.8489992  70.7529978  78.8780014
  10.9359992  71.3659978  78.7190014  12.7639992  71.3419978  78.6550014
  11.8359992  69.6499978  77.7830014  12.6459992  68.9059978  77.9370014
  10.8409992  69.1549978  77.7540014  11.8699992  70.2429978  76.4170014
  11.1349992  71.0529978  76.2210014  12.8769992  70.6959978  76.2930014
  11.8959992  69.2479978  75.2190014  12.3299992  68.3299978  75.6680014
  10.8409992  68.9739978  75.0020014  12.5789992  69.5039978  73.8170014
  12.0949992  68.8699978  73.0430014  12.3359992  70.5739978  73.6420014
  14.1229992  69.3269978  73.7000014  14.5779992  70.0449978  74.4160014
  14.2979992  68.2749978  74.0100014  14.6229992  69.6259978  72.2730014
  14.0029992  69.0429978  71.5580014  14.2319992  70.6399978  72.0430014
  16.1689992  69.5259978  72.1210014  16.5569992  69.8609978  73.1060014
  16.3109992  68.4279978  72.0240014  16.6259992  70.2189978  70.7960014
  17.5029992  71.0779978  70.8030014  15.9599992  69.7409978  69.7600014
  16.3669992  70.2239978  68.4520014  16.7409992  71.2639978  68.5660014
  17.1699992  69.5709978  68.0480014  15.2689992  70.1509978  67.3650014
  14.9269992  69.0969978  67.2880014  15.9269992  70.4049978  65.9450014
  16.8849992  69.8429978  65.9130014  15.3259992  70.0889978  65.0650014
  16.1569992  71.8189978  65.7380014  16.8489992  72.2249978  64.3770014
  15.6949992  72.9799978  63.6250014  14.7059992  73.6549978  64.2710014
  15.1509992  74.0919978  65.1900014  14.3599992  74.4449978  63.5700014
  13.5519992  72.7069978  64.7030014  13.7909992  72.0199978  65.5010014
  12.8759992  73.2839978  65.3160014  12.6069992  72.0489978  63.6850014
  13.4689992  71.0889978  62.7790014  14.1449992  71.6609978  62.1600014
  13.9229992  70.3969978  63.4730014  12.6959992  70.6599978  62.1580014
  11.4599992  71.3269978  64.3380014  10.7299992  71.0779978  63.5810014
  11.7949992  70.4359978  64.8480014  10.9669992  72.0569978  64.9630014
  12.0279992  73.0649978  62.6450014  11.2779992  73.7209978  63.0610014
  11.7069992  72.5259978  61.7660014  12.8659992  73.6409978  62.2820014
  17.8979992  73.2389978  64.7070014  17.2899992  71.0339978  63.6390014
  14.2879992  71.1259978  67.5950014  13.3269992  70.9229978  68.4710014
  13.1239992  69.8979978  69.0510014  12.6579992  72.3019978  68.7400014
  12.1369992  72.6749978  67.8320014  13.5189992  72.9869978  68.8970014
  11.8429992  72.2579978  69.9550014  12.5319992  72.0879978  70.8100014
  11.1499992  71.3899978  69.9680014  11.0499992  73.5599978  70.0540014
  10.3849992  73.6289978  69.1660014  11.7669992  74.4069978  70.0030014
  10.1129992  73.6169978  71.2050014   9.5929992  72.6449978  71.3480014
   9.3789992  74.4469978  71.1290014  10.8399992  73.8119978  72.5390014
  11.5289992  74.6779978  72.4360014  11.2669992  72.8279978  72.8260014
   9.8459992  74.1379978  73.7390014   9.2149992  73.2239978  73.7810014
   9.2059992  75.0069978  73.4750014  10.5609992  74.4139978  75.0400014
  11.3409992  73.6359978  75.1840014   9.8289992  74.3249978  75.8700014
  11.2749992  75.7989978  75.0920014  10.8519992  76.6939978  74.6130014
  12.4449992  76.1359978  75.6430014  12.6389992  77.2169978  75.5780014
  13.3599992  75.1669978  76.3130014  14.1819992  74.6839978  75.7420014
  12.8329992  74.2639978  76.6900014  13.8809992  75.7309978  77.5700014
  13.0179992  76.1449978  78.1340014  14.4449992  76.6339978  77.2520014
  14.5269992  74.6959978  78.4670014  13.9109992  73.7729978  78.5160014
  14.4629992  75.1509978  79.4790014  15.9059992  74.1219978  77.9040014
  16.5619992  75.0169978  77.8530014  15.6269992  73.6859978  76.9210014
  16.4889992  73.0029978  78.7440014  17.2249992  72.4359978  78.1350014
  15.6969992  72.2589978  78.9730014  17.2409992  73.3609978  80.0570014
  16.7409992  74.2019978  80.5830014  18.2669992  73.7209978  79.8310014
  17.4949992  72.2189978  80.9910014  18.4839992  71.8589978  80.6350014
  16.6369992  71.5149978  80.9330014  17.6619992  72.7079978  82.4010014
  18.4469992  73.4939978  82.4250014  17.9089992  71.8329978  83.0400014
  16.7269992  73.1619978  82.7920014  64.3669992  20.6159978  81.1110014
  64.0499992  19.8349978  81.8340014  64.2219992  20.2979978  80.0560014
  63.7639992  21.5499978  81.0950014  65.8759992  20.8519978  81.2710014
  66.1289992  21.0909978  82.3260014  66.4759992  19.9699978  80.9590014
  66.4599992  22.0259978  80.4920014  66.2829992  23.0359978  80.9200014
  67.5629992  21.9019978  80.5200014  66.2209992  22.1089978  78.9920014
  66.5099992  21.1339978  78.5450014  65.1509992  22.2459978  78.7290014
  67.0069992  23.1669978  78.2660014  66.6039992  24.1299978  78.6470014
  68.0629992  23.0119978  78.5720014  66.9359992  23.2279978  76.7700014
  65.8899992  23.4879978  76.5030014  67.6439992  24.0139978  76.4270014
  67.1819992  21.9319978  75.8970014  68.2279992  21.5949978  76.0630014
  66.5589992  21.1319978  76.3520014  66.8419992  21.9609978  74.3690014
  66.7969992  20.9299978  73.9590014  65.8379992  22.4269978  74.2640014
  67.7789992  22.7929978  73.5340014  68.0289992  23.8069978  73.9130014
  68.7349992  22.2269978  73.5100014  67.2289992  23.0119978  72.0420014
  66.3229992  23.6479978  72.1320014  67.9749992  23.6109978  71.4760014
  66.8079992  21.8439978  71.2810014  65.8829992  21.3369978  71.6320014
  66.6569992  22.1769978  70.2320014  67.7759992  20.6249978  71.2040014
  68.7689992  21.0859978  71.0170014  67.8609992  19.9819978  72.1060014
  67.7189992  19.6829978  69.9820014  68.1829992  20.1779978  69.1030014
  68.3769992  18.8389978  70.2820014  66.3329992  19.1819978  69.7000014
  65.7989992  19.1519978  70.6730014  65.8999992  19.8919978  68.9620014
  66.2619992  17.7299978  69.1190014  66.7889992  17.9379978  68.1630014
  66.7299992  16.8989978  69.6890014  64.7979992  17.3579978  68.9390014
  63.9649992  17.5819978  69.7910014  64.6029992  16.9739978  67.6730014
  63.2709992  16.7699978  67.2670014  63.1399992  15.9189978  66.5650014
  62.6489992  16.6229978  68.1760014  62.8309992  18.0049978  66.4650014
  61.7309992  17.9939978  66.3060014  63.6159992  18.1789978  65.1440014
  63.6359992  17.1619978  64.6970014  62.9689992  18.8779978  64.5710014
  64.8839992  18.6549978  65.5180014  65.8609992  19.2359978  64.3880014
  65.8009992  20.7009978  64.8720014  67.0069992  21.3239978  65.2860014
  66.7509992  22.0019978  66.1280014  67.7579992  20.5999978  65.6690014
  67.6349992  22.0599978  64.1400014  68.5349992  22.5429978  64.4900014
  68.0259992  21.3479978  63.4270014  66.8479992  23.1349978  63.3880014
  66.0629992  22.4549978  62.3520014  65.5879992  21.5869978  62.7820014
  65.2889992  23.0569978  61.8990014  66.6859992  22.0539978  61.5660014
  66.0529992  24.0409978  64.3060014  65.3239992  23.4039978  64.7860014
  66.7209992  24.5699978  64.9690014  65.5449992  24.7759978  63.7000014
  67.7969992  24.0809978  62.6840014  68.3449992  23.5589978  61.9130014
  68.4029992  24.6389978  63.3830014  67.0629992  24.7159978  62.2110014
  67.2269992  18.6679978  64.4470014  65.1079992  19.1219978  63.1240014
  63.0889992  19.1099978  67.3600014  62.7859992  20.3249978  67.0620014
  62.2259992  20.6039978  66.0330014  63.3319992  21.3159978  68.0880014
  63.1509992  22.3429978  67.7030014  64.4079992  21.1779978  68.3280014
  62.5119992  21.1159978  69.4250014  62.7999992  20.1039978  69.7820014
  61.4369992  21.0319978  69.1580014  62.7079992  22.2709978  70.3660014
  62.3609992  23.1989978  69.8640014  63.7739992  22.4759978  70.6050014
  61.9939992  22.1199978  71.7340014  61.0229992  21.6129978  71.5480014
  61.7009992  23.1229978  72.1100014  62.9379992  21.5719978  72.8090014
  63.6939992  22.3729978  72.9530014  63.4569992  20.6399978  72.4970014
  62.2669992  21.4889978  74.1930014  61.5969992  22.3669978  74.3180014
  63.1229992  21.5259978  74.9000014  61.4219992  20.1769978  74.4880014
  60.6339992  20.2769978  73.7110014  60.9269992  20.3309978  75.4710014
  62.0869992  18.8019978  74.3170014  62.3439992  18.5529978  73.2770014
  62.5129992  17.9369978  75.2850014  63.1619992  17.0669978  75.1070014
  62.3369992  18.3099978  76.7520014  61.3029992  18.7049978  76.8520014
  62.9659992  19.1529978  77.1100014  62.6669992  17.1999978  77.7270014
  62.2519992  16.2199978  77.4090014  62.2649992  17.5079978  78.7160014
  64.1599992  17.0739978  77.8390014  64.4439992  18.0559978  78.2760014
  64.6159992  16.9609978  76.8320014  64.7349992  15.9749978  78.6990014
  64.2969992  15.0289978  78.3160014  64.3599992  16.1079978  79.7360014
  66.2589992  15.9849978  78.7220014  66.7969992  16.1489978  77.7640014
  66.7149992  15.0979978  79.2120014  66.9149992  17.1619978  79.4790014
  66.5889992  17.1549978  80.5400014  66.6979992  18.1419978  79.0010014
  68.4629992  17.0029978  79.5060014  68.8449992  17.0469978  78.4640014
  68.6169992  15.9639978  79.8700014  69.1879992  18.0119978  80.4220014
  68.4059992  18.2689978  81.1680014  69.6189992  18.8729978  79.8680014
  70.0159992  17.3959978  80.8320014  25.7619992  39.8889978  85.0500014
  26.8009992  39.8609978  85.4430014  24.9709992  39.5799978  85.7670014
  25.5839992  40.9689978  84.8600014  25.5019992  38.9379978  83.8020014
  26.1889992  39.2199978  82.9750014  25.8709992  37.9219978  84.0570014
  24.0459992  38.6349978  83.4930014  23.8829992  37.6329978  83.0400014
  23.4209992  38.7199978  84.4070014  23.4999992  39.6289978  82.4200014
  22.4249992  39.4199978  82.2300014  23.6839992  40.6789978  82.7350014
  24.2019992  39.5229978  81.0290014  25.0559992  40.2159978  81.1850014
  24.6449992  38.5049978  81.0750014  23.2399992  39.6139978  79.8430014
  23.8779992  39.3209978  78.9830014  22.4549992  38.8309978  79.9190014
  22.7279992  40.9969978  79.5690014  22.1869992  40.9389978  78.6010014
  21.9529992  41.3649978  80.2740014  23.7509992  42.1369978  79.7130014
  23.1559992  43.0749978  79.6860014  24.1579992  42.1469978  80.7470014
  24.8489992  42.0129978  78.6880014  25.6919992  42.6249978  79.0720014
  25.3049992  41.0049978  78.5840014  24.3739992  42.5159978  77.4010014
  23.4069992  42.0749978  77.0780014  24.2159992  43.6159978  77.3870014
  25.3239992  42.0709978  76.1840014  25.1909992  40.9689978  76.2290014
  24.8659992  42.4259978  75.2360014  26.7069992  42.5399978  76.3200014
  26.8259992  43.6379978  76.2030014  27.1519992  42.3059978  77.3100014
  27.6279992  41.9669978  75.1460014  28.6059992  42.4859978  75.0560014
  27.8229992  40.9499978  75.5500014  27.0909992  41.9899978  73.6770014
  26.3129992  41.1999978  73.6020014  26.6369992  42.9789978  73.4540014
  28.2129992  41.9549978  72.6510014  28.9599992  42.7479978  72.8700014
  28.6519992  40.9349978  72.6500014  27.5989992  42.1449978  71.2450014
  26.3689992  42.1529978  71.0520014  28.5599992  42.3489978  70.3860014
  28.2589992  42.7029978  68.9870014  27.3809992  43.3799978  68.9180014
  29.0449992  43.3709978  68.5720014  28.1239992  41.5039978  68.0450014
  29.1079992  40.9889978  68.0090014  27.8409992  41.9679978  66.6510014
  26.9059992  42.5659978  66.6970014  28.6239992  42.7089978  66.3790014
  27.7549992  40.7819978  65.8310014  27.4679992  41.0249978  64.3300014
  25.9329992  40.7629978  64.3640014  25.1059992  41.2029978  63.2780014
  25.1959992  42.2949978  63.0970014  25.5699992  40.7779978  62.3620014
  23.6549992  40.6359978  63.3640014  23.0489992  41.1809978  64.0720014
  23.3019992  40.5459978  62.3470014  23.6459992  39.2229978  63.8240014
  23.9309992  38.9379978  65.3580014  24.9509992  39.1819978  65.6190014
  23.2109992  39.4009978  66.0160014  23.8329992  37.8629978  65.3370014
  22.2429992  38.7009978  63.5890014  21.4609992  39.2839978  64.0540014
  22.0799992  38.6779978  62.5210014  22.1299992  37.6809978  63.9240014
  24.5099992  38.2889978  62.9630014  25.5649992  38.5129978  63.0070014
  24.1609992  38.3869978  61.9460014  24.2639992  37.2849978  63.2760014
  27.6789992  42.4559978  64.0390014  28.3179992  40.0599978  63.5660014
  27.0549992  40.6209978  68.4670014  27.1529992  39.3009978  68.2570014
  27.9779992  38.7309978  67.5750014  25.9389992  38.6439978  68.8190014
  25.6759992  37.6639978  68.3660014  25.0969992  39.2769978  68.4660014
  25.8459992  38.6529978  70.3600014  24.7879992  38.6379978  70.6980014
  26.2979992  39.6459978  70.5720014  26.5319992  37.4739978  70.9840014
  27.4919992  37.4949978  70.4250014  26.0149992  36.5429978  70.6640014
  26.7199992  37.6509978  72.5110014  26.9479992  38.7009978  72.7920014
  27.4939992  36.9169978  72.8220014  25.4189992  37.1319978  73.1370014
  25.2049992  36.1369978  72.6910014  24.5939992  37.8249978  72.8670014
  25.4299992  36.9749978  74.6800014  26.0919992  36.1349978  74.9790014
  24.4289992  36.5489978  74.9070014  25.8169992  38.2539978  75.3920014
  25.1329992  39.0599978  75.0490014  26.8509992  38.5979978  75.1790014
  25.6579992  37.9239978  76.8250014  24.7199992  37.4249978  77.1120014
  26.5649992  38.0469978  77.7450014  26.2309992  37.8069978  78.7650014
  27.9499992  38.6179978  77.6970014  28.1539992  39.0779978  76.7060014
  28.6899992  37.8069978  77.8680014  28.2409992  39.5359978  78.8940014
  28.4699992  38.8539978  79.7410014  27.3129992  40.1209978  79.0720014
  29.3829992  40.4729978  78.6620014  29.2399992  41.3229978  77.9610014
  30.1889992  39.9209978  78.1330014  30.0289992  41.0029978  79.9860014
  31.0439992  41.3399978  79.6860014  30.2069992  40.1549978  80.6810014
  29.3479992  42.1919978  80.6190014  29.3259992  43.1489978  80.0550014
  30.0189992  42.4369978  81.4710014  27.9529992  41.9169978  81.2870014
  27.9979992  40.9469978  81.8280014  27.2639992  41.9429978  80.4160014
  27.4889992  43.1649978  82.0450014  26.3789992  43.1109978  82.0110014
  27.8029992  44.0979978  81.5300014  28.0299992  43.2729978  83.5160014
  28.9949992  42.7229978  83.5400014  27.3689992  42.6439978  84.1500014
  28.1509992  44.3369978  83.8110014  89.1099992  20.2349978  83.7110014
  89.5439992  20.9309978  82.9610014  88.7939992  20.8489978  84.5810014
  88.1389992  19.9009978  83.2880014  89.7489992  18.9099978  83.9840014
  90.8559992  18.8309978  84.0340014  89.2379992  18.5979978  84.9200014
  89.5309992  17.6039978  83.1140014  89.9469992  16.7459978  83.6850014
  88.4239992  17.5379978  83.0570014  90.1509992  17.6599978  81.7130014
  89.8019992  18.6109978  81.2570014  91.2559992  17.7319978  81.7980014
  89.8439992  16.3419978  80.9470014  89.9489992  15.5809978  81.7490014
  88.7809992  16.2529978  80.6350014  90.8539992  16.0639978  79.7660014
  91.9169992  16.1379978  80.0810014  90.5979992  14.9899978  79.6400014
  90.6409992  16.8709978  78.4500014  89.5749992  17.1649978  78.3430014
  91.1029992  17.8759978  78.5500014  90.8989992  16.1909978  77.1920014
  91.9889992  16.0049978  77.0820014  90.2909992  15.2619978  77.1850014
  90.4049992  17.0199978  75.9550014  89.3069992  17.1719978  76.0310014
  90.8749992  18.0259978  75.9830014  90.7709992  16.3499978  74.5610014
  91.8079992  15.9539978  74.5250014  90.1599992  15.4399978  74.3780014
  90.8629992  17.2159978  73.3400014  89.8429992  17.6099978  73.1410014
  91.5749992  18.0519978  73.5070014  91.2499992  16.4119978  72.0860014
  92.1549992  15.8609978  72.4190014  90.5159992  15.6319978  71.7920014
  91.5459992  17.2229978  70.7990014  90.5219992  17.5729978  70.5460014
  92.1639992  18.1239978  70.9960014  92.1009992  16.4119978  69.6480014
  92.1259992  17.0299978  68.7240014  93.1309992  16.1429978  69.9660014
  91.4219992  14.9749978  69.4370014  92.2389992  14.4129978  68.9360014
  91.2209992  14.3789978  70.3530014  90.2459992  15.1239978  68.6070014
  90.2179992  14.6209978  67.4710014  89.2679992  15.7839978  69.2490014
  87.9129992  15.8429978  68.5720014  88.0009992  15.3009978  67.6060014
  87.0509992  15.3369978  69.0560014  87.5799992  17.3099978  68.1290014
  86.4969992  17.4319978  67.9160014  88.2849992  17.7079978  66.7660014
  88.0909992  16.9169978  66.0110014  87.9439992  18.6909978  66.3760014
  89.6969992  17.7089978  67.0500014  90.6959992  17.8549978  65.8180014
  89.9889992  18.8619978  64.8190014  90.3279992  18.7599978  63.3920014
  91.4349992  18.7949978  63.3070014  90.0509992  17.7629978  62.9890014
  89.8149992  19.9639978  62.5680014  90.1869992  20.9029978  62.9530014
  90.1919992  19.7679978  61.5750014  88.3279992  20.2219978  62.4480014
  87.7839992  19.2229978  61.4120014  86.7089992  19.3129978  61.3770014
  88.2969992  19.4039978  60.4790014  88.1429992  18.2399978  61.6760014
  87.6129992  20.0519978  63.7630014  87.6629992  19.0029978  64.0180014
  88.1729992  20.6529978  64.4640014  86.5789992  20.3549978  63.6910014
  88.0579992  21.5889978  61.8850014  88.6989992  21.8389978  61.0530014
  88.2709992  22.3209978  62.6500014  87.0139992  21.7219978  61.6420014
  91.9309992  18.5429978  66.2410014  90.8619992  16.5399978  65.1090014
  87.9629992  18.1549978  69.2540014  87.0959992  18.3229978  70.2920014
  86.0479992  17.6869978  70.4400014  87.5199992  19.5089978  71.1710014
  87.5599992  20.4459978  70.5750014  88.5459992  19.3179978  71.5530014
  86.6309992  19.5669978  72.4310014  86.7339992  18.7119978  73.1320014
  85.5799992  19.6019978  72.0750014  87.0069992  20.8109978  73.2590014
  86.2079992  20.9509978  74.0180014  87.0069992  21.6439978  72.5240014
  88.3999992  20.7449978  73.9720014  88.9939992  21.6699978  73.8130014
  88.9629992  19.8209978  73.7180014  88.1569992  20.6519978  75.5060014
  87.6849992  19.6539978  75.6330014  87.3429992  21.3559978  75.7810014
  89.3959992  20.7619978  76.3990014  89.8559992  21.7729978  76.3770014
  90.1769992  20.0549978  76.0460014  89.1519992  20.3909978  77.8960014
  90.1309992  20.2289978  78.3960014  88.6369992  19.4069978  77.9160014
  88.4229992  21.5309978  78.5070014  89.1549992  22.3239978  78.7190014
  87.2029992  21.5209978  79.0920014  86.7929992  22.3849978  79.6370014
  86.3379992  20.2959978  79.1620014  86.9119992  19.3449978  79.1500014
  85.7899992  20.1169978  78.2130014  85.2479992  20.1899978  80.1610014
  85.8579992  20.0949978  81.0840014  84.7639992  19.1909978  80.1870014
  84.2359992  21.3479978  80.2480014  83.6679992  21.4259978  79.2970014
  84.8089992  22.2989978  80.2920014  83.2199992  21.0419978  81.3320014
  82.5149992  20.2729978  80.9500014  82.6859992  22.0059978  81.4710014
  83.8419992  20.5379978  82.6890014  84.3299992  19.5749978  82.4240014
  83.0109992  20.2399978  83.3640014  84.5579992  21.5909978  83.5400014
  84.0639992  22.5839978  83.4830014  85.5719992  21.6659978  83.0920014
  84.6969992  21.2739978  85.0350014  83.9119992  21.7949978  85.6240014
  85.6689992  21.7439978  85.3000014  84.7639992  19.8139978  85.4020014
  85.3029992  19.6449978  86.3590014  85.3889992  19.2499978  84.6770014
  83.7859992  19.3139978  85.5650014 130.6799992  68.2869978  80.3580014
 131.6249992  68.0729978  79.8150014 130.5509992  69.3889978  80.3040014
 129.7959992  67.8239978  79.8710014 130.6569992  67.8439978  81.8000014
 131.7319992  67.8409978  82.0830014 130.1469992  68.5699978  82.4690014
 130.0979992  66.4489978  82.0800014 130.3459992  66.1109978  83.1090014
 128.9939992  66.5679978  82.1230014 130.4919992  65.3079978  81.1530014
 130.0249992  64.4079978  81.6070014 129.9349992  65.5839978  80.2310014
 132.0219992  65.1259978  81.1040014 132.4259992  66.1599978  81.1350014
 132.2849992  64.5469978  82.0150014 132.5669992  64.3859978  79.8640014
 133.6559992  64.3909978  80.0860014 132.1989992  63.3379978  79.9040014
 132.3649992  65.1389978  78.5640014 132.4169992  66.2379978  78.7210014
 133.0879992  64.8589978  77.7680014 131.0819992  64.7709978  77.7600014
 130.8649992  63.6879978  77.8790014 130.2279992  65.1539978  78.3590014
 131.0879992  65.2709978  76.2600014 130.1309992  65.5839978  75.7900014
 131.7229992  66.1749978  76.1400014 131.5919992  64.1859978  75.2580014
 132.4599992  63.6399978  75.6840014 130.8429992  63.3749978  75.1310014
 132.0489992  64.9119978  73.9830014 132.7909992  65.7089978  74.2060014
 132.5829992  64.2299978  73.2870014 130.8909992  65.4209978  73.1190014
 130.2359992  64.5359978  72.9740014 130.1929992  66.2099978  73.4730014
 131.3919992  65.8689978  71.6970014 132.1829992  65.1899978  71.3150014
 130.5249992  65.7519978  71.0120014 131.9849992  67.3299978  71.5530014
 131.1649992  68.0729978  71.6610014 132.6349992  67.3169978  72.4540014
 132.7989992  67.5839978  70.2560014 133.4209992  68.4949978  70.3930014
 133.6099992  66.8429978  70.0890014 132.0309992  67.8029978  68.9400014
 131.2879992  68.7019978  68.6710014 132.2329992  66.7949978  68.0780014
 131.7019992  66.7729978  66.7060014 131.5319992  67.8319978  66.4170014
 132.5989992  66.4969978  66.1110014 130.5749992  65.7039978  66.4060014
 131.1429992  64.8169978  66.7610014 130.2809992  65.7309978  64.8680014
 131.2739992  65.5579978  64.4010014 129.7149992  64.7809978  64.7670014
 129.5589992  66.8519978  64.4680014 129.3619992  67.1769978  62.9280014
 128.2429992  68.2629978  63.0410014 127.5299992  68.4419978  64.2850014
 126.5799992  69.0089978  64.1830014 127.1929992  67.4859978  64.7380014
 128.2909992  69.2759978  65.3390014 127.5809992  69.3759978  66.1460014
 129.1179992  68.6929978  65.7160014 128.8169992  70.7089978  65.0250014
 129.7009992  71.0549978  66.2070014 129.1129992  71.3039978  67.0780014
 130.4109992  70.2859978  66.4730014 130.3009992  71.9379978  66.0400014
 129.5779992  70.6139978  63.7330014 130.0649992  71.5759978  63.6720014
 130.1839992  69.7199978  63.7210014 128.8489992  70.5509978  62.9380014
 127.7349992  71.7289978  64.8460014 127.1319992  71.7489978  65.7420014
 127.1169992  71.5299978  63.9830014 128.1959992  72.6939978  64.6920014
 130.5959992  67.7829978  62.4340014 128.8669992  66.0069978  62.2010014
 129.4729992  66.0849978  67.2360014 128.6709992  65.0869978  67.5400014
 128.7909992  63.9239978  67.2260014 127.6549992  65.6239978  68.4410014
 128.0049992  66.1369978  69.3630014 127.0219992  64.7659978  68.7520014
 126.6649992  66.4979978  67.6070014 126.2679992  65.9029978  66.7570014
 127.1119992  67.4569978  67.2700014 125.3049992  66.8519978  68.3510014
 124.7489992  65.8959978  68.4590014 124.6419992  67.4249978  67.6680014
 125.4719992  67.5809978  69.6910014 125.8329992  66.8539978  70.4490014
 124.3929992  67.7149978  69.9190014 126.4789992  68.8309978  69.7530014
 126.4779992  69.2749978  68.7340014 127.5529992  68.5529978  69.7060014
 126.1569992  69.9319978  70.7830014 125.3529992  70.5149978  70.2850014
 126.9629992  70.6819978  70.9280014 125.5739992  69.4819978  72.2030014
 124.5899992  68.9699978  72.1340014 125.4479992  70.4389978  72.7520014
 126.5839992  68.6369978  72.8420014 126.5839992  67.5819978  72.5300014
 127.4699992  69.0029978  73.8310014 128.1729992  68.2059978  74.1140014
 127.6379992  70.2789978  74.5790014 127.0939992  71.1279978  74.1120014
 128.7079992  70.5759978  74.6230014 126.9629992  70.2029978  75.9250014
 127.2509992  69.3049978  76.5120014 125.8589992  70.1609978  75.8070014
 127.2249992  71.5469978  76.7460014 127.1689992  72.3599978  75.9910014
 128.2639992  71.4929978  77.1360014 126.2579992  71.7109978  77.9440014
 125.2449992  71.6969978  77.4880014 126.3669992  72.7709978  78.2590014
 126.4469992  70.7369978  79.1420014 127.5479992  70.6419978  79.2550014
 126.0849992  69.8179978  78.6330014 125.6569992  71.1059978  80.3570014
 124.5799992  71.2559978  80.1300014 125.9829992  72.0269978  80.8860014
 125.8619992  69.9969978  81.4820014 125.6269992  69.0189978  81.0110014
 125.2419992  70.1779978  82.3860014 127.3129992  69.8949978  81.9740014
 127.2679992  69.2009978  82.8400014 127.6049992  70.9029978  82.3390014
 127.9999992  69.6429978  81.1390014 123.8629992  95.8039978  83.0150014
 123.5539992  96.5629978  83.7650014 124.2019992  94.8999978  83.5650014
 122.9579992  95.5719978  82.4140014 124.9559992  96.3469978  82.1570014
 124.6249992  97.2069978  81.5370014 125.7289992  96.8639978  82.7650014
 125.7159992  95.3309978  81.2870014 126.4499992  95.8679978  80.6490014
 126.2469992  94.6409978  81.9770014 124.9499992  94.4789978  80.2880014
 125.6409992  93.8339978  79.7040014 124.2519992  93.8089978  80.8360014
 124.1239992  95.2589978  79.2870014 123.6199992  94.5149978  78.6330014
 123.2779992  95.8189978  79.7400014 124.9169992  96.1789978  78.4060014
 125.7979992  96.6279978  78.9130014 125.2499992  95.4099978  77.6770014
 124.2119992  97.2279978  77.6230014 123.9879992  98.0359978  78.3530014
 124.8409992  97.6719978  76.8220014 122.8439992  96.7559978  77.0260014
 123.0999992  95.6879978  76.8590014 121.9649992  96.9379978  77.6810014
 122.6459992  97.2689978  75.5780014 121.5909992  97.0679978  75.2940014
 122.7749992  98.3659978  75.6980014 123.6239992  96.5879978  74.6670014
 124.6809992  96.7469978  74.9700014 123.4259992  95.4989978  74.5630014
 123.4339992  97.0499978  73.2050014 122.4859992  96.6809978  72.7570014
 123.3659992  98.1579978  73.1620014 124.4839992  96.4869978  72.2680014
 124.6219992  95.4079978  72.4910014 124.1129992  96.6559978  71.2340014
 125.8839992  97.2099978  72.3090014 125.7399992  98.2949978  72.1150014
 126.1649992  97.0949978  73.3770014 127.0089992  96.7059978  71.4660014
 127.8529992  97.3589978  71.7770014 127.2119992  95.6269978  71.6350014
 126.6439992  96.8869978  70.0090014 125.7629992  96.2759978  69.7180014
 126.3259992  97.9409978  69.8650014 127.8689992  96.4969978  69.2180014
 128.7109992  95.7109978  69.6390014 127.9629992  97.0729978  67.9990014
 129.2459992  96.8689978  67.4200014 129.6389992  97.7769978  66.9140014
 130.0139992  96.6319978  68.1870014 129.2549992  95.7179978  66.3790014
 130.1929992  95.5399978  65.8090014 128.1559992  95.9789978  65.2240014
 128.1739992  97.0749978  65.0430014 128.4039992  95.5589978  64.2270014
 126.8549992  95.4709978  65.6240014 125.5769992  96.3249978  65.5670014
 124.6209992  95.3379978  64.9730014 124.6529992  93.9219978  65.0440014
 125.0869992  93.5179978  65.9830014 123.6179992  93.5259978  65.1290014
 125.3339992  93.3829978  63.7490014 126.3019992  93.8619978  63.7120014
 125.3069992  92.3089978  63.8550014 124.8259992  93.7559978  62.3360014
 123.3539992  93.2649978  62.2410014 122.8469992  93.8759978  62.9730014
 122.9279992  93.2879978  61.2480014 123.4289992  92.2379978  62.5680014
 124.8969992  95.2249978  62.0880014 124.2749992  95.7829978  62.7720014
 125.9139992  95.4849978  62.3400014 124.6629992  95.3939978  61.0480014
 125.6659992  92.9989978  61.3230014 125.4999992  91.9519978  61.5260014
 126.7199992  93.1219978  61.5260014 125.4119992  93.2729978  60.3090014
 125.1769992  96.6699978  66.9610014 125.7769992  97.4969978  64.6010014
 128.9309992  94.4499978  67.0490014 129.1499992  93.3579978  66.3320014
 129.5179992  93.3379978  65.1380014 128.8929992  92.0359978  67.0730014
 129.6779992  91.8639978  67.8400014 128.9979992  91.1059978  66.4750014
 127.5079992  92.1449978  67.6710014 126.7929992  92.5969978  66.9500014
 127.5049992  92.9959978  68.3850014 126.7689992  90.9539978  68.2210014
 127.5139992  90.4079978  68.8380014 126.4339992  90.3149978  67.3760014
 125.4949992  91.1909978  68.9880014 125.1559992  90.1419978  69.1270014
 124.7999992  91.8509978  68.4250014 125.7109992  91.6279978  70.4360014
 124.6699992  91.6629978  70.8210014 126.1449992  92.6479978  70.5040014
 126.4789992  90.7599978  71.4390014 127.5659992  90.7679978  71.2100014
 126.1659992  89.6979978  71.3490014 126.3699992  91.2539978  72.8740014
 126.9369992  90.4719978  73.4230014 125.3519992  91.1109978  73.2960014
 126.8689992  92.6129978  73.0770014 126.2879992  93.4229978  72.6120014
 127.9259992  92.9029978  73.8070014 128.1789992  93.9649978  73.9420014
 128.8579992  91.8689978  74.4980014 129.8919992  92.0879978  74.1560014
 128.7599992  90.7989978  74.2120014 128.7089992  92.0209978  76.0120014
 129.5949992  91.5309978  76.4700014 127.7829992  91.4999978  76.3390014
 128.7009992  93.4639978  76.5430014 127.7049992  93.9349978  76.3960014
 129.3079992  94.2189978  76.0000014 128.8629992  93.7229978  78.0550014
 129.3709992  92.8149978  78.4450014 127.8379992  93.7609978  78.4820014
 129.6519992  94.9419978  78.4830014 128.9939992  95.8269978  78.3470014
 130.5679992  95.0069978  77.8580014 130.1589992  94.6829978  79.9340014
 130.8649992  93.8359978  79.7930014 129.2679992  94.3779978  80.5220014
 130.9869992  95.8329978  80.6050014 131.9889992  95.9129978  80.1320014
 131.0929992  95.4909978  81.6570014 130.3689992  97.2609978  80.6960014
 130.3719992  97.7409978  79.6940014 131.0149992  97.7989978  81.4220014
 129.3309992  97.1429978  81.0720014  15.3549992  83.9379978  80.4620014
  15.0069992  83.6099978  81.4650014  16.2469992  84.5969978  80.5330014
  15.7549992  82.9999978  80.0200014  14.1009992  84.4709978  79.6820014
  13.5019992  85.1479978  80.3280014  14.5279992  84.9209978  78.7600014
  13.1139992  83.4129978  79.2510014  13.5409992  82.7159978  78.5000014
  12.7839992  82.9339978  80.1980014  11.7489992  83.9129978  78.7220014
  11.0679992  83.0369978  78.6560014  11.3609992  84.5189978  79.5690014
  11.8619992  84.7439978  77.4780014  10.9839992  85.4179978  77.5720014
  12.7589992  85.3989978  77.4930014  11.8449992  84.1159978  76.1480014
  11.7489992  84.8089978  75.2850014  12.8469992  83.6499978  76.0380014
  10.8119992  83.0029978  75.8100014  11.0429992  82.1349978  76.4640014
   9.7469992  83.3109978  75.8780014  11.2139992  82.4429978  74.3700014
  10.9509992  83.2149978  73.6160014  12.3049992  82.2339978  74.3550014
  10.4779992  81.1499978  74.0250014  10.8339992  80.4429978  74.8050014
   9.3989992  81.4079978  74.0900014  10.8889992  80.4379978  72.8090014
  11.9909992  80.3419978  72.9160014  10.3159992  79.4869978  72.8730014
  10.6929992  81.1589978  71.4570014   9.6709992  81.5869978  71.5410014
  11.3379992  82.0439978  71.2720014  10.5519992  80.1749978  70.3170014
  11.4589992  79.5369978  70.3800014   9.7299992  79.4699978  70.5650014
  10.3609992  80.6099978  68.9330014  10.8859992  81.5459978  68.6470014
  10.7089992  79.8199978  68.2330014   8.7649992  80.8919978  68.8200014
   8.1279992  80.1199978  69.3030014   8.6899992  81.7799978  69.4840014
   8.2849992  81.2569978  67.3780014   8.7589992  80.5829978  66.6320014
   7.1789992  81.1629978  67.4210014   8.5199992  82.7559978  66.9940014
   8.5249992  83.6549978  67.7690014   8.8569992  82.8099978  65.7090014
   9.2419992  84.1319978  65.3160014   9.1579992  84.2629978  64.2160014
   8.5919992  84.8939978  65.7970014  10.7969992  84.3659978  65.5460014
  11.1119992  85.3419978  65.1200014  11.4789992  83.4319978  64.4940014
  10.9159992  83.4619978  63.5360014  12.4259992  83.9899978  64.3280014
  11.7199992  82.1339978  65.0550014  11.3659992  80.8439978  64.2000014
  12.7879992  80.2359978  63.9700014  13.7479992  80.0579978  65.0170014
  13.3059992  80.2449978  66.0190014  14.0239992  78.9829978  65.0630014
  15.0159992  80.9339978  64.9140014  14.7369992  81.9769978  64.9210014
  15.5599992  80.6979978  65.8160014  15.8649992  80.7999978  63.6810014
  15.3319992  81.6599978  62.5450014  15.3119992  82.6879978  62.8760014
  15.9649992  81.5769978  61.6740014  14.3839992  81.3869978  62.1050014
  17.2789992  81.3469978  64.0050014  17.8059992  80.5499978  64.5090014
  17.8169992  81.4409978  63.0730014  17.3229992  82.2349978  64.6200014
  15.8739992  79.3489978  63.1610014  15.9099992  78.7159978  64.0360014
  16.7189992  79.2869978  62.4910014  14.8839992  79.2779978  62.7350014
  10.5729992  79.8259978  65.0010014  10.7429992  81.1639978  62.9570014
  11.2219992  84.1209978  66.9660014  12.4279992  84.4069978  67.3070014
  13.2729992  84.9709978  66.6170014  12.6459992  83.8829978  68.7270014
  12.4299992  82.8029978  68.5840014  11.9289992  84.3249978  69.4510014
  14.0939992  84.1339978  69.2460014  14.1719992  83.9479978  70.3390014
  14.4289992  85.1919978  69.2070014  15.1959992  83.2689978  68.5340014
  16.0889992  83.4999978  69.1550014  15.3639992  83.6239978  67.4950014
  15.0499992  81.7679978  68.7960014  14.4129992  81.3819978  67.9720014
  14.5869992  81.5539978  69.7840014  16.3029992  80.9629978  68.4920014
  17.1689992  81.0879978  69.1770014  16.6499992  81.3929978  67.5290014
  15.8979992  79.4979978  68.4560014  16.8509992  78.9829978  68.2050014
  15.1549992  79.5379978  67.6310014  15.2709992  78.8679978  69.6890014
  14.9649992  77.8329978  69.4230014  14.2979992  79.3439978  69.9330014
  16.2629992  78.7239978  70.8550014  16.9709992  77.9129978  70.6320014
  16.0819992  79.3339978  72.0580014  16.9609992  79.1869978  72.7020014
  14.9949992  80.2209978  72.6070014  14.0789992  79.7229978  72.2210014
  15.0599992  81.2539978  72.2040014  14.8189992  80.3499978  74.1710014
  14.0319992  81.0959978  74.4100014  15.7449992  80.6449978  74.7090014
  14.3359992  79.0329978  74.7810014  15.1159992  78.2439978  74.8380014
  13.5429992  78.7319978  74.0640014  13.8049992  79.1019978  76.1870014
  13.3799992  78.1469978  76.5640014  12.9219992  79.7759978  76.2080014
  14.8389992  79.3789978  77.3020014  15.2889992  80.3759978  77.1060014
  15.6489992  78.6199978  77.2920014  14.3059992  79.2609978  78.7160014
  13.8799992  78.2439978  78.8540014  13.3609992  79.8449978  78.6970014
  15.2719992  79.5839978  79.8030014  15.4729992  80.6759978  79.8220014
  16.2389992  79.0839978  79.5840014  14.8819992  79.2809978  81.2230014
  14.9379992  78.1919978  81.4350014  13.8619992  79.6629978  81.4440014
  15.6809992  79.6859978  81.8790014  77.6689992 130.2029978  81.6300014
  77.5719992 130.9799978  80.8430014  78.4379992 129.4549978  81.3400014
  77.9329992 130.7009978  82.5870014  76.3339992 129.5089978  81.7360014
  76.2599992 128.9169978  82.6730014  75.5709992 130.2749978  81.9910014
  75.8189992 128.6959978  80.5000014  74.7119992 128.6239978  80.4400014
  76.0879992 129.2649978  79.5840014  76.4159992 127.2899978  80.4120014
  77.4839992 127.2789978  80.1060014  76.3569992 126.7869978  81.4010014
  75.6379992 126.4859978  79.4090014  74.6809992 126.3409978  79.9520014
  75.4459992 127.1249978  78.5200014  76.3609992 125.1229978  79.1050014
  77.4329992 125.3079978  78.8780014  76.3199992 124.3789978  79.9290014
  75.5659992 124.3909978  77.9990014  74.5049992 124.3669978  78.3300014
  75.7169992 124.8099978  76.9810014  75.9379992 122.8969978  77.8270014
  75.5339992 122.3909978  78.7300014  75.3399992 122.5029978  76.9770014
  77.4669992 122.6159978  77.6530014  78.0089992 123.1309978  78.4740014
  77.6309992 121.5249978  77.7880014  77.8999992 123.2189978  76.3460014
  77.1379992 123.0009978  75.5670014  78.0419992 124.3069978  76.5210014
  79.3099992 122.7669978  75.8620014  80.0329992 122.7199978  76.7040014
  79.2769992 121.7009978  75.5520014  79.8449992 123.6009978  74.6810014
  79.0149992 124.1419978  74.1800014  80.5549992 124.3199978  75.1440014
  80.7159992 122.7639978  73.6770014  81.5469992 122.3869978  74.3110014
  80.1379992 121.9009978  73.2840014  81.4189992 123.5839978  72.6730014
  81.7679992 124.5579978  73.0770014  82.3029992 122.9749978  72.3890014
  80.4679992 123.8889978  71.5160014  80.0499992 122.8969978  71.2390014
  79.6769992 124.5279978  71.9630014  81.4169992 124.4729978  70.4670014
  82.5569992 124.9249978  70.6490014  80.8769992 124.3019978  69.3110014
  81.3749992 125.0169978  68.1300014  82.0289992 125.8549978  68.4500014
  82.0579992 124.3439978  67.5690014  80.1659992 125.3759978  67.1950014
  79.7569992 124.3869978  66.8990014  80.7059992 126.1649978  65.9260014
  81.1839992 127.1359978  66.1760014  81.3709992 125.4389978  65.4120014
  79.5909992 126.2849978  64.9770014  79.8289992 126.6609978  63.5200014
  78.5409992 127.4959978  63.1510014  77.9759992 128.4229978  64.0650014
  78.7379992 128.9619978  64.6690014  77.5359992 129.2079978  63.4130014
  76.9489992 127.6639978  65.0180014  77.4969992 126.9849978  65.6550014
  76.6989992 128.4289978  65.7380014  75.6519992 126.9969978  64.4790014
  74.8119992 127.7809978  63.5630014  75.2389992 127.8659978  62.5750014
  73.8879992 127.2289978  63.4800014  74.6479992 128.7009978  64.1050014
  76.0399992 125.7189978  63.8030014  75.1049992 125.2229978  63.5910014
  76.5549992 125.8069978  62.8570014  76.4939992 125.0269978  64.4960014
  74.7959992 126.5369978  65.6730014  74.9169992 125.4809978  65.8640014
  73.7399992 126.6199978  65.4670014  74.9589992 127.1699978  66.5330014
  80.9639992 127.5919978  63.4900014  80.0099992 125.4529978  62.7660014
  79.2779992 126.1659978  67.9570014  77.9459992 125.7699978  67.9000014
  77.6509992 124.8769978  67.1340014  76.9869992 126.5429978  68.7380014
  75.9459992 126.3679978  68.3920014  77.2639992 127.6079978  68.5840014
  77.2039992 126.3009978  70.1430014  78.2849992 126.5189978  70.2830014
  77.0659992 125.2899978  70.5840014  76.2489992 127.1399978  70.9800014
  75.1949992 126.8119978  70.8530014  76.4309992 128.2029978  70.7130014
  76.4939992 127.1479978  72.4910014  77.5349992 127.1999978  72.8730014
  76.1349992 126.1239978  72.7320014  75.5819992 128.0709978  73.3310014
  74.6069992 128.0169978  72.8010014  76.0319992 129.0869978  73.3240014
  75.3159992 127.5479978  74.7180014  74.6759992 126.6399978  74.7050014
  74.6069992 128.2609978  75.1910014  76.5219992 127.3149978  75.6940014
  77.1099992 126.5359978  75.1650014  76.0579992 126.9909978  76.6500014
  77.2719992 128.5859978  75.9800014  76.7069992 129.4489978  76.3620014
  78.5749992 128.7879978  75.7930014  78.9389992 129.8089978  75.9820014
  79.5509992 127.7799978  75.2450014  80.1239992 128.3299978  74.4670014
  79.0129992 126.8529978  74.9510014  80.4859992 127.3169978  76.3970014
  81.1879992 128.0539978  76.8430014  81.2369992 126.5869978  76.0270014
  79.7819992 126.5709978  77.5620014  78.9529992 125.9959978  77.0960014
  79.3019992 127.3429978  78.2000014  80.6479992 125.5609978  78.3900014
  81.3189992 125.0769978  77.6480014  80.1119992 124.7199978  78.8790014
  81.5349992 126.1199978  79.5470014  81.1829992 127.0879978  79.9640014
  82.4849992 126.5129978  79.1270014  81.8299992 125.1299978  80.6610014
  82.4379992 124.2689978  80.3080014  80.8759992 124.6649978  80.9880014
  82.4789992 125.7239978  81.9060014  83.2969992 126.3959978  81.5700014
  82.8769992 124.8899978  82.5230014  81.4679992 126.4379978  82.7950014
  80.8159992 125.6299978  83.1910014  80.8589992 127.1539978  82.2030014
  81.8619992 126.9989978  83.6700014  15.0769992  64.2719978  82.1050014
  14.8019992  65.2049978  82.6430014  15.9859992  64.4229978  81.4850014
  15.1029992  63.4279978  82.8270014  14.0299992  64.0759978  81.0720014
  13.0059992  64.3319978  81.4170014  14.2199992  64.7279978  80.1920014
  13.8259992  62.5269978  80.6390014  13.6139992  62.0229978  81.6060014
  12.8669992  62.4879978  80.0790014  15.0399992  61.9599978  79.8840014
  15.9319992  62.6149978  79.7930014  15.4729992  61.0409978  80.3330014
  14.6149992  61.5989978  78.4190014  15.4829992  60.9729978  78.1190014
  13.6509992  61.0479978  78.4140014  14.5429992  62.7759978  77.5550014
  13.7529992  63.4849978  77.8800014  15.4819992  63.3629978  77.6400014
  14.1229992  62.4389978  76.1080014  13.0649992  62.0999978  76.1090014
  14.1759992  63.3249978  75.4390014  14.9679992  61.2669978  75.4290014
  15.1159992  60.4429978  76.1590014  14.3079992  60.8069978  74.6630014
  16.3389992  61.6909978  74.8370014  16.1849992  62.3579978  73.9610014
  16.8579992  62.3989978  75.5180014  17.2109992  60.5479978  74.3130014
  17.2869992  59.8539978  75.1770014  16.6839992  60.1119978  73.4370014
  18.7019992  60.9049978  73.9470014  19.2549992  60.6669978  74.8810014
  19.0029992  60.1679978  73.1710014  18.8999992  62.4089978  73.5060014
  18.2009992  62.6999978  72.6930014  18.8289992  63.1589978  74.3230014
  20.3489992  62.5989978  73.0170014  21.0159992  62.3389978  73.8660014
  20.5809992  61.8909978  72.1920014  20.6409992  64.0499978  72.6480014
  20.6499992  64.5929978  73.6170014  21.6659992  64.1369978  72.2310014
  19.7409992  64.8089978  71.6000014  18.7049992  65.0259978  71.9390014
  20.1439992  65.8219978  71.3830014  19.7919992  64.1009978  70.2800014
  20.5949992  63.2009978  70.0020014  18.9099992  64.5869978  69.4720014
  18.7409992  63.6839978  68.3070014  18.0199992  64.0919978  67.5660014
  19.6929992  63.6649978  67.7340014  18.1079992  62.3269978  68.7220014
  18.8069992  61.8099978  69.4140014  17.6799992  61.4409978  67.5140014
  18.6309992  61.0309978  67.1130014  17.2149992  60.4849978  67.8350014
  16.8569992  62.1829978  66.6070014  16.4849992  61.7089978  65.1090014
  15.0939992  62.3149978  64.7210014  14.7049992  63.6439978  65.1040014
  13.6219992  63.7759978  64.8970014  14.7879992  63.7499978  66.2070014
  15.4279992  64.7019978  64.2090014  15.2019992  65.6169978  64.7350014
  16.4899992  64.5909978  64.3760014  15.1449992  64.8489978  62.7000014
  13.7429992  65.4779978  62.4900014  13.0019992  64.9299978  63.0520014
  13.7339992  66.5359978  62.7080014  13.4199992  65.4709978  61.4600014
  16.1809992  65.8149978  62.1690014  17.1279992  65.4919978  62.5760014
  16.1389992  65.8899978  61.0930014  15.9819992  66.8359978  62.4590014
  15.1689992  63.5159978  62.0130014  16.1839992  63.1479978  62.0130014
  14.8679992  63.4869978  60.9760014  14.4579992  62.8789978  62.5180014
  17.5599992  62.2269978  64.2220014  16.3639992  60.2169978  65.1620014
  16.9319992  62.6099978  69.5040014  16.5939992  61.6609978  70.4310014
  17.1399992  60.5609978  70.5190014  15.4269992  62.1349978  71.1940014
  15.7709992  62.8309978  71.9880014  14.9919992  61.2719978  71.7410014
  14.2619992  62.8269978  70.3990014  13.9879992  62.2159978  69.5120014
  14.6009992  63.8329978  70.0730014  12.9669992  62.8659978  71.2730014
  12.5489992  61.8639978  71.5060014  12.2339992  63.3229978  70.5750014
  13.0779992  63.6089978  72.5500014  13.9629992  63.2359978  73.1090014
  12.1809992  63.2979978  73.1280014  13.1999992  65.0919978  72.4720014
  12.1909992  65.4649978  72.1960014  13.7529992  65.4869978  71.5930014
  13.6409992  65.6899978  73.8650014  13.0919992  65.1799978  74.6850014
  13.2319992  66.7219978  73.9040014  15.1889992  65.7129978  74.0550014
  15.5599992  64.6689978  73.9670014  15.3289992  65.8869978  75.1430014
  16.0759992  66.5679978  73.2770014  16.0469992  66.4269978  72.1860014
  17.0179992  67.3839978  73.8430014  17.4399992  68.0929978  73.1160014
  17.3589992  67.6339978  75.2470014  16.5489992  68.2489978  75.6960014
  18.3359992  68.1569978  75.3200014  17.7199992  66.4349978  76.2680014
  18.6759992  66.0439978  75.8600014  16.9369992  65.6499978  76.3410014
  18.0709992  67.0499978  77.7030014  17.1419992  67.3659978  78.2240014
  18.8309992  67.8449978  77.5440014  18.7459992  66.0089978  78.5800014
  19.2849992  66.5649978  79.3760014  19.5969992  65.4549978  78.1290014
  17.8549992  64.9039978  79.1430014  17.3719992  64.3649978  78.3000014
  17.0359992  65.4139978  79.6940014  18.6139992  63.9819978  80.0890014
  19.4729992  63.5019978  79.5740014  17.9679992  63.1489978  80.4410014
  19.1889992  64.6309978  81.3720014  18.4109992  65.1379978  81.9810014
  19.8779992  65.4419978  81.0530014  19.9569992  63.6879978  82.3370014
  20.2379992  64.2029978  83.2810014  20.8589992  63.3569978  81.7800014
  19.3319992  62.8059978  82.5980014  55.0989992 127.3359978  85.5900014
  56.0699992 127.0069978  86.0170014  54.4679992 126.4309978  85.4610014
  54.7309992 128.1909978  86.1960014  55.5759992 127.9469978  84.2730014
  56.2419992 128.8179978  84.4530014  56.1179992 127.2279978  83.6220014
  54.4859992 128.4919978  83.3810014  53.9179992 127.5529978  83.2080014
  53.7289992 129.2239978  83.7350014  55.1069992 129.1079978  82.0550014
  54.2359992 129.4739978  81.4720014  55.7879992 129.9139978  82.4030014
  55.7019992 128.1099978  81.0090014  56.7349992 127.9719978  81.3930014
  55.1249992 127.1609978  81.0320014  55.7279992 128.6689978  79.5550014
  54.6719992 128.7159978  79.2130014  56.0629992 129.7229978  79.6630014
  56.6089992 127.8649978  78.6040014  57.6479992 127.9349978  78.9930014
  56.1389992 126.8589978  78.6080014  56.4429992 128.5579978  77.2470014
  55.3989992 128.4919978  76.8740014  56.7909992 129.5949978  77.4400014
  57.3209992 128.0539978  76.1780014  58.2259992 128.0169978  76.8210014
  56.9529992 127.0339978  75.9370014  57.5429992 129.0129978  74.9720014
  56.5349992 129.1239978  74.5170014  57.8399992 130.0409978  75.2680014
  58.5689992 128.3719978  73.9730014  59.4629992 128.1989978  74.6090014
  58.2619992 127.3609978  73.6310014  58.8319992 129.2999978  72.8010014
  59.2579992 130.2429978  73.2060014  59.5469992 128.7139978  72.1850014
  57.6219992 129.7379978  71.9780014  56.9909992 130.4989978  72.4850014
  57.9639992 130.2749978  71.0670014  56.7209992 128.5489978  71.5610014
  57.3859992 127.7729978  71.1250014  56.2429992 128.1979978  72.5000014
  55.6799992 128.8899978  70.4930014  54.9129992 129.6309978  70.8040014
  56.2149992 129.3959978  69.6620014  54.9799992 127.5849978  70.0000014
  54.1489992 127.0419978  70.7320014  55.2499992 127.2969978  68.7210014
  54.7239992 126.1029978  68.1540014  55.5739992 125.4209978  67.9350014
  54.0159992 125.5789978  68.8300014  53.9279992 126.4819978  66.9220014
  53.4609992 125.5469978  66.5450014  54.9169992 126.9779978  65.7840014
  55.6829992 126.2099978  65.5440014  54.3529992 127.1219978  64.8380014
  55.6819992 128.1719978  66.1430014  55.2989992 129.6329978  65.7850014
  54.2429992 129.3909978  64.6990014  53.2169992 130.2869978  64.3590014
  52.2559992 129.7489978  64.5110014  53.2829992 131.2279978  64.9460014
  53.3409992 130.7809978  62.8450014  53.1109992 129.9459978  62.2000014
  52.6639992 131.6169978  62.7530014  54.6409992 131.3409978  62.3270014
  55.6249992 130.2249978  62.1220014  56.4579992 130.5519978  61.5180014
  56.0769992 129.9239978  63.0560014  55.1829992 129.3709978  61.6320014
  54.4329992 131.9799978  60.9340014  54.4289992 131.2499978  60.1380014
  53.5389992 132.5849978  60.9600014  55.1719992 132.7459978  60.7490014
  55.1659992 132.4579978  63.2800014  54.3599992 133.1109978  63.5820014
  55.9319992 133.0569978  62.8110014  55.5769992 132.1439978  64.2280014
  54.6809992 130.3549978  66.8560014  56.4559992 130.3009978  65.1550014
  53.0799992 127.5069978  67.2880014  51.8509992 127.0899978  67.6470014
  51.3579992 126.0219978  67.5550014  50.9679992 128.1769978  68.1970014
  50.5739992 128.0719978  69.2310014  50.1269992 128.2879978  67.4800014
  51.6689992 129.5419978  68.2310014  52.1339992 129.7109978  67.2360014
  52.4269992 129.5509978  69.0440014  50.6369992 130.7549978  68.2870014
  50.0009992 130.8449978  67.3810014  51.2109992 131.6949978  68.4360014
  49.6119992 130.7149978  69.4840014  48.8579992 129.9059978  69.3790014
  49.1079992 131.7009978  69.3910014  50.3349992 130.7959978  70.8720014
  51.1999992 130.1029978  70.9510014  49.4889992 130.5449978  71.5460014
  50.7129992 132.2639978  71.2890014  49.7809992 132.8699978  71.2930014
  51.3969992 132.7809978  70.5830014  51.2059992 132.4189978  72.7400014
  50.3569992 131.9919978  73.3160014  51.1449992 133.4859978  73.0420014
  52.4419992 131.7309978  73.1870014  53.3309992 131.9559978  72.5790014
  52.5009992 130.9139978  74.2480014  53.5139992 130.5259978  74.4260014
  51.4279992 130.4229978  75.2410014  51.0409992 129.4029978  75.0330014
  50.5869992 131.1439978  75.1540014  51.8639992 130.5069978  76.7370014
  52.8249992 129.9529978  76.7920014  51.1959992 129.9749978  77.4480014
  51.9509992 131.9849978  77.3060014  50.9909992 132.2979978  77.7690014
  52.3239992 132.7399978  76.5810014  52.9779992 132.2249978  78.4730014
  52.8559992 133.2439978  78.8990014  54.0379992 132.2039978  78.1420014
  52.9109992 131.3059978  79.6390014  53.7759992 131.4339978  80.3240014
  52.9439992 130.3099978  79.1490014  51.5509992 131.5249978  80.4560014
  50.7829992 131.1479978  79.7470014  51.5549992 132.6339978  80.5330014
  51.4749992 130.7939978  81.7800014  52.2099992 131.2799978  82.4580014
  51.7679992 129.7269978  81.6860014  50.0299992 130.7889978  82.3020014
  49.9219992 130.2819978  83.2850014  49.3219992 130.3789978  81.5510014
  49.7389992 131.8109978  82.6270014  75.2839992  16.9679978  85.6970014
  75.7089992  17.9929978  85.6480014  76.0709992  16.3029978  85.2820014
  75.1819992  16.7329978  86.7780014  73.9379992  16.7739978  85.0550014
  74.0589992  16.1949978  84.1150014  73.3819992  16.1819978  85.8130014
  72.9809992  17.9969978  85.0570014  71.9939992  17.7239978  85.4890014
  73.3719992  18.7839978  85.7370014  72.6749992  18.6639978  83.6740014
  73.4209992  19.3309978  83.1920014  72.4369992  17.8699978  82.9340014
  71.4209992  19.5839978  83.6830014  70.5449992  18.9139978  83.8210014
  71.5569992  20.2789978  84.5380014  71.2769992  20.4529978  82.4560014
  70.3619992  21.0769978  82.5480014  72.1089992  21.1749978  82.6070014
  71.1509992  19.7139978  81.1100014  71.9409992  18.9329978  81.1130014
  70.1979992  19.1439978  81.0790014  71.2839992  20.6259978  79.9150014
  70.5609992  21.4519978  80.0880014  72.2229992  21.2109978  80.0160014
  71.0249992  20.0149978  78.5340014  70.5289992  19.0309978  78.6770014
  70.2709992  20.6799978  78.0600014  72.2209992  19.8129978  77.5730014
  72.9349992  19.0579978  77.9680014  71.7699992  19.5169978  76.6020014
  72.8909992  21.1369978  77.5160014  72.1069992  21.9209978  77.5910014
  73.6919992  21.2839978  78.2720014  73.6759992  21.3799978  76.1790014
  74.2589992  22.3069978  76.3670014  74.4639992  20.6149978  76.0130014
  72.7489992  21.4899978  74.9400014  71.9859992  20.6859978  74.8680014
  72.2649992  22.4819978  75.0640014  73.6849992  21.6089978  73.7060014
  74.1869992  22.5549978  74.0000014  74.3529992  20.7319978  73.8470014
  73.0699992  21.7749978  72.3200014  72.2229992  21.0749978  72.1580014
  72.5289992  22.7409978  72.2290014  74.1219992  21.5419978  71.2880014
  75.0389992  22.2979978  71.0460014  74.0459992  20.2569978  70.7790014
  75.2919992  19.6369978  70.4290014  75.9529992  20.3509978  69.8930014
  75.8209992  19.1449978  71.2730014  75.1089992  18.6299978  69.2670014
  76.1519992  18.3179978  69.0460014  74.7049992  19.3859978  67.9220014
  73.8389992  20.0739978  68.0250014  75.6579992  19.9489978  67.8270014
  74.4169992  18.5329978  66.8760014  75.4299992  17.6799978  66.1730014
  75.2829992  18.0039978  64.6430014  74.1309992  18.6459978  64.0880014
  73.2389992  18.1489978  64.5250014  74.0749992  19.7419978  64.2650014
  74.0059992  18.3059978  62.5430014  73.2439992  18.9739978  62.1710014
  74.9729992  18.6159978  62.1750014  73.7819992  16.8449978  61.9440014
  72.3529992  16.4839978  62.4420014  71.9939992  15.7249978  61.7620014
  72.3879992  16.1709978  63.4750014  71.6869992  17.3329978  62.3910014
  73.7689992  16.8719978  60.4410014  73.5869992  15.8929978  60.0240014
  73.0669992  17.5859978  60.0370014  74.7539992  17.1089978  60.0670014
  74.7509992  15.7699978  62.3960014  74.4509992  14.8229978  61.9720014
  74.8669992  15.7399978  63.4690014  75.6949992  16.0289978  61.9410014
  76.8309992  18.1179978  66.5440014  74.9949992  16.2859978  66.4160014
  74.1999992  17.5989978  69.6830014  74.8009992  16.5449978  70.1000014
  75.9489992  16.2919978  70.1900014  73.7059992  15.4259978  70.3740014
  74.1299992  14.4429978  70.6710014  73.0489992  15.3219978  69.4840014
  72.7059992  15.7879978  71.4990014  72.0729992  14.8869978  71.6450014
  72.1539992  16.7279978  71.2810014  73.4999992  16.2229978  72.7460014
  74.1799992  17.0599978  72.4790014  73.9999992  15.3259978  73.1690014
  72.5959992  16.9149978  73.8350014  71.9109992  16.1429978  74.2460014
  72.0789992  17.8619978  73.5690014  73.5559992  17.1019978  75.0270014
  72.9919992  17.7519978  75.7290014  74.4369992  17.7229978  74.7580014
  73.9879992  15.8689978  75.7800014  74.6079992  15.1829978  75.1640014
  73.0579992  15.2829978  75.9460014  74.9359992  15.9919978  77.0380014
  75.1499992  14.9369978  77.3100014  74.3009992  16.5259978  77.7770014
  76.2589992  16.7389978  76.9310014  76.7639992  16.5629978  75.9700014
  76.7869992  17.7079978  77.7060014  77.7239992  18.1899978  77.3900014
  76.2689992  18.3139978  78.9860014  75.3889992  17.8009978  79.4320014
  75.8819992  19.2949978  78.6370014  77.4589992  18.3439978  80.0100014
  77.0629992  18.7449978  80.9670014  78.1529992  19.1509978  79.6900014
  78.2679992  17.0429978  80.2660014  79.2469992  16.9509978  79.7480014
  77.5799992  16.2459978  79.9140014  78.6069992  16.8359978  81.7750014
  77.6569992  16.9109978  82.3460014  79.3409992  17.5829978  82.1460014
  79.2669992  15.4419978  82.0240014  80.3359992  15.5459978  81.7400014
  78.8699992  14.8099978  81.2000014  78.9839992  14.8669978  83.3540014
  79.1819992  15.5779978  84.1840014  79.5299992  13.9099978  83.4980014
  77.5079992  14.4079978  83.5630014  77.2969992  14.0219978  82.5430014
  76.8739992  15.3019978  83.7460014  77.2219992  13.4719978  84.7380014
  77.8759992  12.5789978  84.6480014  76.1509992  13.1959978  84.8360014
  77.6399992  14.0279978  85.6050014  21.6849992 106.9839978  82.9310014
  22.5499992 107.5579978  82.5350014  21.4789992 107.3469978  83.9610014
  20.7599992 107.1059978  82.3280014  21.9509992 105.4689978  83.0480014
  22.7719992 105.0939978  83.6950014  21.0659992 105.0059978  83.5340014
  22.2839992 104.7259978  81.7380014  23.2709992 105.1029978  81.3930014
  22.3159992 103.6169978  81.8010014  21.4159992 105.0629978  80.5220014
  20.3399992 104.8159978  80.6410014  21.4439992 106.1569978  80.3300014
  21.9619992 104.2809978  79.2470014  21.6869992 104.8829978  78.3550014
  23.0669992 104.1709978  79.2820014  21.3589992 102.8469978  79.0130014
  21.5209992 102.2029978  79.9040014  20.2879992 102.8359978  78.7190014
  21.9159992 102.1149978  77.8180014  21.7279992 102.8419978  76.9990014
  23.0169992 102.1279978  77.9700014  21.3129992 100.6799978  77.4230014
  22.1089992 100.0139978  77.0260014  20.9419992 100.2209978  78.3640014
  20.1889992 100.8039978  76.3720014  19.5379992  99.9049978  76.3420014
  19.4829992 101.6289978  76.6080014  20.7739992 101.0129978  74.9390014
  21.8559992 101.2279978  75.0700014  20.5809992 100.1129978  74.3160014
  20.0019992 102.2379978  74.2810014  20.0759992 102.0589978  73.1880014
  18.9749992 102.1919978  74.7040014  20.5049992 103.6779978  74.5550014
  19.8249992 104.3909978  74.0410014  20.5249992 103.8169978  75.6570014
  21.9209992 103.9719978  74.0260014  22.2679992 104.9999978  74.2640014
  22.7059992 103.3479978  74.5050014  22.1049992 103.8669978  72.4930014
  22.5229992 102.8499978  72.3350014  21.0629992 103.9119978  72.1100014
  22.9439992 104.9379978  71.8830014  22.5779992 105.9569978  72.1310014
  24.0219992 104.8299978  72.1310014  22.7859992 104.8379978  70.3350014
  22.6159992 105.7849978  69.5660014  22.9489992 103.6299978  69.9520014
  22.9429992 103.3939978  68.4980014  23.4629992 104.1349978  67.8540014
  23.4819992 102.4369978  68.3330014  21.5729992 103.0959978  67.8940014
  21.1539992 102.1999978  68.4000014  21.7559992 102.8789978  66.3000014
  22.3159992 103.8219978  66.1230014  22.3059992 101.9379978  66.0830014
  20.4399992 102.8049978  65.6020014  20.4359992 102.8889978  64.0100014
  18.9869992 102.5199978  63.4790014  17.8479992 102.6399978  64.2920014
  16.9679992 102.2319978  63.7490014  17.9559992 101.8889978  65.1040014
  17.6519992 104.1209978  64.8540014  17.1059992 104.0989978  65.7850014
  18.6569992 104.4529978  65.0690014  17.0669992 105.1949978  63.9710014
  15.5979992 104.8169978  63.6720014  15.1579992 105.5389978  63.0000014
  15.3879992 103.8479978  63.2440014  15.1859992 104.8209978  64.6700014
  17.1459992 106.5749978  64.7280014  16.4899992 106.6129978  65.5850014
  18.1839992 106.8039978  64.9220014  16.7769992 107.3089978  64.0280014
  17.8079992 105.3659978  62.7020014  17.3879992 106.1339978  62.0700014
  17.7299992 104.4889978  62.0770014  18.8469992 105.4479978  62.9860014
  20.7009992 104.2749978  63.6600014  21.4479992 101.8919978  63.5360014
  20.7399992 104.2419978  68.0690014  19.6779992 104.0659978  68.8900014
  19.4759992 103.0519978  69.5660014  18.8229992 105.2949978  68.8730014
  18.2209992 105.1809978  67.9470014  19.4179992 106.2169978  68.7000014
  17.8019992 105.3009978  70.0370014  17.1819992 104.3919978  70.1910014
  17.0659992 106.0369978  69.6470014  18.4229992 105.7039978  71.3580014
  19.0659992 106.5849978  71.1480014  19.0619992 104.8609978  71.6960014
  17.4039992 105.8989978  72.4250014  17.4859992 105.0949978  73.1870014
  16.3619992 106.0519978  72.0710014  17.7579992 107.0259978  73.4170014
  17.8019992 107.9739978  72.8390014  18.7759992 106.7879978  73.7940014
  16.7389992 107.0119978  74.5650014  15.7709992 106.7639978  74.0800014
  16.7279992 108.0409978  74.9840014  16.8439992 105.9289978  75.5990014
  16.7339992 104.9649978  75.0570014  15.9689992 105.8829978  76.2810014
  18.0689992 105.9559978  76.4510014  18.5969992 105.0269978  76.1930014
  18.3549992 106.6899978  77.5240014  19.3309992 106.4989978  77.9930014
  17.5529992 107.7469978  78.2900014  16.8239992 108.1999978  77.5840014
  18.3149992 108.5319978  78.4870014  16.8639992 107.3439978  79.5220014
  15.9889992 106.8039978  79.1020014  16.3489992 108.1679978  80.0600014
  17.7359992 106.6329978  80.5780014  18.6709992 107.1909978  80.7970014
  18.0049992 105.6329978  80.1750014  16.9779992 106.3199978  81.9360014
  16.6079992 107.2939978  82.3230014  17.5909992 105.7329978  82.6530014
  15.6909992 105.4959978  81.7220014  16.0849992 104.5269978  81.3480014
  15.0489992 105.9819978  80.9560014  14.9079992 105.1859978  82.9760014
  14.5489992 106.1099978  83.4780014  15.6419992 104.6479978  83.6140014
  13.6239992 104.2609978  82.8040014  13.0519992 104.7409978  81.9810014
  13.0109992 104.0989978  83.7160014  13.9629992 102.9089978  82.2160014
  14.6999992 103.0049978  81.3900014  13.1049992 102.3099978  81.8420014
  14.6029992 102.3599978  82.9390014  20.6909992  50.3809978  80.1630014
  20.7159992  49.3039978  80.4330014  20.6249992  50.9099978  81.1380014
  21.5969992  50.8019978  79.6770014  19.4189992  50.4279978  79.2810014
  19.5909992  49.7089978  78.4520014  18.5929992  49.9599978  79.8580014
  18.9989992  51.8009978  78.8230014  18.8869992  52.4489978  79.7180014
  19.7819992  52.3499978  78.2580014  17.7639992  51.7779978  77.9790014
  18.0359992  51.1189978  77.1270014  16.9249992  51.3889978  78.5950014
  17.4019992  53.2109978  77.4540014  16.3809992  53.2099978  77.0160014
  17.2169992  53.8529978  78.3420014  18.4269992  53.8719978  76.5040014
  17.8599992  54.6689978  75.9780014  19.3239992  54.1539978  77.0960014
  18.8769992  53.0369978  75.3080014  19.5519992  52.1959978  75.5750014
  18.0259992  52.4629978  74.8820014  19.5329992  53.8779978  74.2110014
  20.2729992  54.6619978  74.4780014  20.0439992  53.1109978  73.5900014
  18.5039992  54.5349978  73.2270014  18.0339992  55.4569978  73.6330014
  19.1559992  54.9379978  72.4230014  17.5349992  53.6399978  72.4940014
  18.0719992  52.7529978  72.0950014  16.8079992  53.1609978  73.1840014
  16.7219992  54.2629978  71.2910014  16.0019992  53.5869978  70.7830014
  16.1779992  55.1249978  71.7320014  17.6789992  54.7039978  70.0820014
  17.0119992  55.2309978  69.3670014  18.3459992  55.5159978  70.4430014
  18.5899992  53.5079978  69.5500014  19.1949992  53.9709978  68.7410014
  19.2859992  53.1939978  70.3560014  17.6649992  52.3979978  68.9480014
  17.2189992  51.8739978  69.8210014  16.8519992  52.7519978  68.2800014
  18.4619992  51.2039978  68.2300014  18.9549992  51.4439978  67.2640014
  19.2869992  50.8279978  68.8720014  17.4879992  50.0649978  67.8790014
  16.7939992  49.4569978  68.6510014  17.4129992  49.8349978  66.5340014
  16.2939992  49.0589978  66.0300014  16.6789992  48.3859978  65.2340014
  15.8709992  48.3719978  66.7950014  15.2179992  50.0399978  65.4180014
  14.3939992  49.3549978  65.1240014  15.6599992  50.8319978  64.1780014
  16.3299992  50.0949978  63.6850014  14.7979992  51.0939978  63.5280014
  16.3059992  52.0479978  64.5380014  17.5029992  52.5419978  63.4910014
  17.2039992  53.9729978  63.0200014  15.8759992  54.4699978  62.8820014
  15.4819992  54.3739978  61.8480014  15.1929992  53.8819978  63.5310014
  15.8679992  55.9409978  63.4160014  16.2679992  56.6879978  62.7470014
  14.8159992  56.1859978  63.4510014  16.3299992  56.3209978  64.7580014
  17.7629992  56.0189978  64.9390014  18.3879992  56.7239978  64.4110014
  18.0539992  56.1669978  65.9680014  18.0009992  54.9789978  64.7730014
  16.0339992  57.8229978  64.9890014  14.9849992  58.0769978  64.9520014
  16.4379992  58.0849978  65.9560014  16.5919992  58.4539978  64.3140014
  15.5399992  55.4989978  65.7570014  15.5879992  54.4319978  65.5980014
  14.4889992  55.7349978  65.8270014  16.0259992  55.6649978  66.7070014
  18.7639992  52.7129978  64.3250014  17.6219992  51.5939978  62.3900014
  14.7649992  50.8869978  66.4210014  13.5609992  51.4299978  66.1750014
  12.8989992  51.3009978  65.1970014  13.2169992  52.3069978  67.4160014
  12.1129992  52.4209978  67.3610014  13.5439992  53.3529978  67.2350014
  13.6589992  51.7089978  68.7730014  14.7629992  51.7069978  68.8980014
  13.6079992  50.6029978  68.6760014  13.0169992  52.2369978  70.0850014
  11.9139992  52.2829978  69.9600014  13.3379992  53.2849978  70.2620014
  13.4149992  51.3759978  71.2890014  14.4579992  51.0189978  71.1550014
  12.7069992  50.5199978  71.3000014  13.4709992  52.1269978  72.6410014
  12.4159992  52.4659978  72.7230014  14.1359992  53.0159978  72.6140014
  13.6709992  51.3569978  73.9750014  13.4369992  51.9739978  74.8690014
  14.7679992  51.2239978  74.0930014  12.8859992  50.0539978  74.2280014
  13.4079992  49.5689978  75.0800014  13.0799992  49.4119978  73.3430014
  11.3979992  50.2029978  74.3550014  10.7689992  50.2979978  73.4580014
  10.7119992  50.2409978  75.4630014   9.6749992  50.5589978  75.2790014
  11.2639992  50.2189978  76.9140014  12.1109992  49.5129978  76.7760014
  10.4979992  49.7529978  77.5700014  11.8569992  51.4299978  77.6780014
  11.0019992  52.0339978  78.0500014  12.4929992  52.0739978  77.0340014
  12.7149992  51.0169978  78.8540014  13.7099992  50.5999978  78.5910014
  12.1649992  50.3019978  79.5020014  13.1209992  52.2289978  79.7650014
  13.8559992  52.9519978  79.3500014  13.6579992  51.7989978  80.6380014
  11.8159992  53.0409978  80.1840014  11.0059992  52.2959978  80.3390014
  11.5309992  53.6769978  79.3190014  11.9059992  54.0109978  81.3450014
  11.1289992  54.8039978  81.3300014  12.8969992  54.5129978  81.3640014
  11.9539992  53.3789978  82.7330014  12.6269992  52.4979978  82.8120014
  11.0059992  52.9229978  83.0920014  12.5789992  54.2169978  83.9500014
  13.6809992  54.1309978  83.8410014  12.2419992  53.7669978  84.9090014
  12.3379992  55.2899978  83.7920014  41.0339992  22.5529978  81.2440014
  40.1409992  22.5489978  80.5830014  40.8599992  21.8169978  82.0580014
  41.9569992  22.2899978  80.6820014  41.2639992  23.9509978  81.7650014
  40.2999992  24.2759978  82.2120014  42.0089992  24.0399978  82.5840014
  41.6909992  24.9199978  80.5560014  40.8469992  24.8219978  79.8400014
  41.8329992  25.9409978  80.9690014  43.1019992  24.5629978  79.9310014
  43.8539992  24.4669978  80.7430014  43.0179992  23.5929978  79.3960014
  43.4359992  25.5089978  78.7540014  42.5279992  25.3389978  78.1370014
  43.5079992  26.6039978  78.9290014  44.7149992  25.0219978  77.9860014
  45.6289992  25.2079978  78.5890014  44.6699992  23.9309978  77.7840014
  45.0489992  25.7489978  76.6720014  45.3289992  26.8059978  76.8670014
  45.9429992  25.2279978  76.2680014  43.9559992  25.7709978  75.6300014
  43.3459992  26.6479978  75.9350014  44.3049992  26.0899978  74.6250014
  43.1679992  24.5039978  75.4100014  42.7289992  24.1689978  76.3740014
  42.3929992  24.6579978  74.6290014  44.1009992  23.3359978  74.9630014
  44.9709992  23.7679978  74.4220014  44.5879992  22.8099978  75.8120014
  43.3719992  22.3429978  74.0510014  42.3829992  22.0259978  74.4450014
  43.2059992  22.7609978  73.0350014  44.1889992  21.0299978  73.7950014
  45.0789992  21.1949978  73.1520014  44.6319992  20.6939978  74.7570014
  43.2499992  19.9269978  73.2480014  42.4149992  19.7489978  73.9590014
  42.7789992  20.4239978  72.3730014  43.8299992  18.4999978  72.9210014
  44.1549992  17.9889978  73.8530014  43.0909992  17.8029978  72.4720014
  44.8739992  18.6299978  71.8260014  45.7289992  19.3249978  71.9720014
  45.3329992  17.6389978  71.6200014  44.0959992  18.9229978  70.5860014
  42.9049992  18.7509978  70.4660014  44.8719992  19.4349978  69.5830014
  44.2209992  19.9059978  68.3880014  44.8979992  19.7909978  67.5140014
  43.2689992  19.3629978  68.2040014  43.8019992  21.4129978  68.4120014
  43.0929992  21.4789978  69.2640014  43.2029992  21.8459978  66.9920014
  42.3459992  21.1469978  66.8960014  42.8109992  22.8709978  67.1690014
  44.0569992  21.7379978  65.8920014  43.3039992  21.7539978  64.4830014
  42.9419992  23.2939978  64.3090014  42.9309992  23.7349978  62.9280014
  43.9059992  23.7759978  62.3960014  42.3389992  23.0399978  62.2950014
  42.4039992  25.2509978  62.8350014  42.5779992  25.4909978  61.7970014
  41.3269992  25.3149978  62.8790014  43.0459992  26.2879978  63.7490014
  44.5699992  25.9909978  63.7840014  44.7159992  24.9939978  64.1730014
  44.9659992  25.9439978  62.7810014  45.1599992  26.6289978  64.4260014
  42.9959992  27.6789978  63.3140014  42.0329992  28.0189978  63.6660014
  43.7029992  28.3999978  63.6960014  43.1429992  27.6599978  62.2440014
  42.5939992  26.2099978  65.1700014  41.5899992  26.6069978  65.1480014
  43.2539992  26.7589978  65.8260014  42.5089992  25.1679978  65.4390014
  44.1719992  21.3589978  63.3930014  42.0809992  20.9889978  64.6470014
  44.9949992  22.1439978  68.7050014  44.7349992  23.2479978  69.4390014
  43.5879992  23.6829978  69.5950014  46.0109992  23.8929978  69.9260014
  45.8639992  24.9919978  70.0010014  46.8669992  23.7609978  69.2290014
  46.4769992  23.3999978  71.3150014  45.5959992  23.3499978  71.9900014
  47.1919992  24.1849978  71.6420014  47.1829992  21.9809978  71.2930014
  48.0179992  22.0759978  70.5660014  46.4789992  21.1529978  71.0650014
  47.9139992  21.6179978  72.5550014  47.0699992  21.4799978  73.2650014
  48.5499992  22.4419978  72.9440014  48.6269992  20.3179978  72.5270014
  49.2769992  20.3569978  71.6270014  47.9109992  19.5559978  72.1510014
  49.2949992  19.7689978  73.8830014  50.1969992  20.3379978  74.1950014
  49.6449992  18.7179978  73.8060014  48.3809992  19.8909978  75.0960014
  47.9379992  20.9029978  75.2110014  49.0809992  19.8079978  75.9540014
  47.2559992  18.8679978  75.1750014  47.1189992  18.3079978  74.2380014
  46.5639992  18.4799978  76.2550014  45.7389992  17.7899978  76.0220014
  46.7509992  19.0049978  77.6540014  47.7639992  19.4479978  77.7630014
  46.6089992  18.1709978  78.3740014  45.6209992  20.0069978  78.0250014
  44.6709992  19.4369978  77.9510014  45.5759992  20.8399978  77.2910014
  45.6429992  20.7459978  79.3990014  45.0849992  21.7059978  79.3690014
  46.7089992  21.0249978  79.5410014  45.2489992  19.7969978  80.6270014
  46.0809992  19.0839978  80.8110014  44.2919992  19.2869978  80.3850014
  44.8689992  20.5459978  81.8890014  44.6369992  19.9859978  82.8200014
  43.8939992  21.0669978  81.7780014  45.9889992  21.5879978  82.3320014
  46.4279992  22.1469978  81.4780014  46.8199992  21.0149978  82.7960014
  45.4379992  22.6209978  83.3200014  44.8899992  22.0149978  84.0730014
  44.6779992  23.2129978  82.7660014  46.4179992  23.6069978  83.9550014
  46.8389992  24.2469978  83.1510014  47.2519992  23.1439978  84.5240014
  45.7979992  24.1169978  84.7230014  75.3169992 130.9619978  79.9030014
  75.1239992 131.7959978  80.6110014  75.8579992 131.5719978  79.1480014
  75.9779992 130.2999978  80.5020014  74.0449992 130.3969978  79.3010014
  74.2149992 129.5269978  78.6300014  73.5449992 130.0219978  80.2200014
  73.1449992 131.5029978  78.7150014  72.2359992 131.5579978  79.3510014
  73.7259992 132.4489978  78.7540014  72.8149992 131.3009978  77.2000014
  73.8029992 131.1839978  76.7050014  72.1649992 130.3999978  77.2130014
  71.9889992 132.4289978  76.5040014  72.3899992 133.4209978  76.8030014
  72.2099992 132.1559978  75.4500014  70.4449992 132.4199978  76.6810014
  70.2199992 132.3429978  77.7660014  70.0339992 133.4019978  76.3640014
  69.6929992 131.3859978  75.8440014  70.1079992 130.3609978  75.9540014
  68.6299992 131.3579978  76.1650014  69.7869992 131.6669978  74.3280014
  69.4999992 132.7329978  74.2020014  70.8409992 131.4949978  74.0220014
  68.7919992 130.7949978  73.4520014  69.1269992 129.7349978  73.4370014
  67.8189992 130.7189978  73.9830014  68.6069992 131.1949978  71.9670014
  67.6529992 130.7689978  71.5900014  68.4209992 132.2899978  71.9740014
  69.7639992 130.9469978  70.9200014  70.1019992 129.8929978  70.8290014
  69.3269992 131.2759978  69.9530014  71.0059992 131.7769978  71.1560014
  70.6039992 132.7419978  71.5310014  71.6199992 131.2599978  71.9240014
  71.9109992 131.9639978  69.8460014  71.3299992 132.5419978  69.0970014
  72.8019992 132.5689978  70.1190014  72.4589992 130.6529978  69.2460014
  73.0789992 130.1639978  70.0280014  71.6059992 129.9889978  68.9910014
  73.3409992 130.9209978  68.0220014  72.7359992 131.4919978  67.2860014
  74.1489992 131.6339978  68.2910014  73.8109992 129.6649978  67.4240014
  73.7759992 128.5459978  67.9370014  74.2689992 129.8999978  66.1690014
  74.6969992 128.7339978  65.4260014  75.6799992 128.9319978  64.9460014
  74.8869992 127.8819978  66.1130014  73.7089992 128.4129978  64.3120014
  74.0319992 127.4729978  63.8160014  73.6209992 129.5249978  63.2350014
  73.7329992 130.5509978  63.6460014  74.4029992 129.5609978  62.4470014
  72.4089992 129.3619978  62.5230014  71.4159992 130.5129978  62.3730014
  70.9619992 130.7719978  63.9260014  70.5239992 132.0649978  64.2690014
  71.1779992 132.3459978  65.1220014  70.7569992 132.7639978  63.4370014
  69.0229992 132.2549978  64.5370014  68.9369992 133.2359978  64.9810014
  68.5159992 132.2039978  63.5850014  68.3979992 131.2639978  65.5390014
  68.0369992 129.9649978  64.9460014  67.3329992 130.0589978  64.1330014
  68.8879992 129.4349978  64.5430014  67.5629992 129.3709978  65.7140014
  69.2969992 131.1129978  66.7370014  70.2199992 130.6629978  66.4040014
  69.6299992 132.0359978  67.1880014  68.8689992 130.4389978  67.4650014
  67.1529992 131.9349978  66.1440014  66.4879992 132.3749978  65.4150014
  67.5819992 132.7179978  66.7520014  66.5859992 131.1539978  66.6280014
  72.0619992 131.6819978  61.7720014  70.2529992 129.9009978  61.7400014
  72.3809992 128.1949978  64.8300014  72.2119992 127.1529978  65.6710014
  73.0159992 126.2559978  65.8770014  70.7809992 127.0979978  66.0270014
  70.1609992 127.1709978  65.1080014  70.4809992 128.0139978  66.5800014
  70.5469992 125.8039978  66.8420014  70.8809992 124.9129978  66.2680014
  69.4419992 125.7979978  66.9560014  71.0589992 125.8379978  68.2880014
  72.1539992 125.9989978  68.1890014  70.9159992 124.8109978  68.6890014
  70.5279992 126.8959978  69.2760014  69.4329992 126.7119978  69.3270014
  70.5979992 127.9729978  69.0100014  70.9039992 126.7489978  70.7480014
  70.5969992 125.7149978  71.0130014  70.2849992 127.3609978  71.4380014
  72.4379992 126.9239978  70.9460014  72.7669992 127.9609978  70.7210014
  72.9969992 126.1589978  70.3660014  72.8629992 126.6379978  72.4180014
  73.9389992 126.3669978  72.4650014  72.3889992 125.6699978  72.6860014
  72.5019992 127.9299978  73.2420014  72.6129992 128.8939978  72.7230014
  72.2349992 127.9409978  74.5670014  72.2969992 128.8789978  75.1380014
  72.2189992 126.7069978  75.3800014  72.9269992 126.9529978  76.1990014
  72.6849992 125.8429978  74.8600014  70.7949992 126.2069978  75.8400014
  70.9909992 125.4449978  76.6240014  70.2189992 125.7809978  74.9900014
  69.8519992 127.3499978  76.3780014  68.8979992 126.8139978  76.5710014
  69.5479992 128.0469978  75.5690014  70.2749992 128.0369978  77.6740014
  71.1149992 128.7249978  77.4400014  70.6919992 127.2089978  78.2870014
  69.1649992 128.9309978  78.2770014  68.3299992 128.2429978  78.5300014
  68.7549992 129.5779978  77.4720014  69.6269992 129.7309978  79.5460014
  68.7799992 130.2739978  80.0160014  70.4359992 130.3579978  79.1130014
  70.2359992 128.6889978  80.5820014  71.0249992 128.0739978  80.0980014
  69.4179992 127.9829978  80.8400014  70.8219992 129.3799978  81.7630014
  69.9489992 129.8089978  82.2990014  71.5229992 130.1839978  81.4510014
  71.2709992 128.5859978  82.3980014 125.3139992  43.1789978  84.7550014
 125.5719992  42.5299978  85.6190014 124.5449992  43.9689978  84.8980014
 126.2329992  43.7429978  84.4860014 124.8919992  42.2699978  83.6470014
 123.9459992  41.7649978  83.9370014 124.6929992  42.9649978  82.8040014
 125.8899992  41.1049978  83.3430014 125.8569992  40.3699978  84.1750014
 125.4669992  40.6719978  82.4120014 127.3659992  41.4489978  83.0280014
 127.7799992  41.9259978  83.9420014 127.9259992  40.5539978  82.6840014
 127.4319992  42.4069978  81.8500014 126.9919992  41.8739978  80.9810014
 126.9179992  43.3739978  82.0340014 128.8349992  42.6239978  81.3630014
 129.5939992  42.9089978  82.1230014 129.0479992  41.6369978  80.9000014
 129.0019992  43.7509978  80.3600014 128.9589992  44.7889978  80.7520014
 130.0809992  43.8199978  80.1070014 128.1479992  43.4969978  79.1060014
 128.6639992  42.6399978  78.6230014 127.0759992  43.3109978  79.3320014
 128.1249992  44.7679978  78.2400014 127.9879992  45.6049978  78.9570014
 129.1209992  44.9099978  77.7690014 127.0599992  44.8199978  77.0930014
 126.0399992  44.8739978  77.5310014 127.1759992  45.7209978  76.4530014
 127.1999992  43.6019978  76.0940014 128.2579992  43.5229978  75.7640014
 127.0979992  42.7199978  76.7600014 126.1859992  43.5759978  74.9210014
 126.1499992  42.5709978  74.4500014 125.2019992  43.6849978  75.4260014
 126.2829992  44.6239978  73.7640014 125.3719992  44.4769978  73.1450014
 126.4009992  45.6539978  74.1650014 127.5489992  44.3739978  72.8750014
 128.5149992  44.6139978  73.3670014 127.4589992  43.2879978  72.6620014
 127.4499992  45.0829978  71.5590014 126.4629992  45.4399978  71.1960014
 128.0719992  45.9999978  71.6440014 128.3519992  44.3539978  70.4090014
 129.4759992  43.9439978  70.6080014 127.7179992  44.4039978  69.2900014
 128.4439992  43.8279978  68.1870014 129.3449992  44.4659978  68.0650014
 128.8689992  42.8359978  68.4500014 127.5939992  43.9409978  66.9250014
 128.1039992  43.3589978  66.1280014 127.4549992  45.4159978  66.4850014
 127.1129992  45.9969978  67.3670014 128.4059992  45.9189978  66.2090014
 126.5089992  45.5469978  65.4320014 126.2799992  46.7579978  64.3410014
 124.7239992  46.9329978  64.3530014 124.0139992  46.6759978  63.1730014
 122.9969992  47.1049978  63.2970014 124.4249992  47.2659978  62.3260014
 123.7299992  45.2069978  62.8770014 123.1719992  45.1149978  61.9570014
 124.6419992  44.6569978  62.7000014 122.9439992  44.4839978  63.8980014
 121.5179992  44.9599978  63.8300014 121.1489992  44.9839978  62.8150014
 120.9619992  44.2499978  64.4230014 121.4559992  45.9379978  64.2840014
 123.0229992  43.0069978  63.5090014 123.0349992  42.8349978  62.4430014
 123.9239992  42.5699978  63.9120014 122.1529992  42.5199978  63.9250014
 123.4379992  44.5979978  65.3360014 124.4809992  44.4969978  65.5980014
 122.9179992  43.8509978  65.9170014 123.1009992  45.5839978  65.6210014
 127.0949992  47.9059978  64.7530014 126.6519992  46.1929978  63.0060014
 126.3359992  43.2779978  67.1420014 126.3829992  42.0499978  67.5800014
 127.4129992  41.3739978  67.6130014 124.9889992  41.6109978  68.0530014
 124.7509992  40.5569978  67.7960014 124.2369992  42.2479978  67.5410014
 124.9769992  41.7159978  69.6100014 125.9459992  41.4119978  70.0600014
 124.2109992  41.0249978  70.0240014 124.4929992  43.1159978  70.0530014
 125.3559992  43.7899978  69.8640014 124.3929992  43.0379978  71.1570014
 123.2559992  43.7369978  69.3290014 122.3009992  43.2389978  69.6000014
 123.4179992  43.7879978  68.2310014 123.0739992  45.2469978  69.7760014
 122.5339992  45.7889978  68.9710014 124.0409992  45.7849978  69.8790014
 122.3029992  45.3739978  71.0690014 122.8779992  44.7639978  71.7980014
 121.3099992  44.9049978  70.9000014 121.9979992  46.7869978  71.6190014
 121.1739992  46.7979978  72.3640014 121.7099992  47.4509978  70.7760014
 123.2239992  47.3609978  72.3470014 124.2459992  47.2849978  71.9490014
 123.3579992  47.9209978  73.5950014 124.3389992  48.2809978  73.9370014
 122.1979992  48.1279978  74.5750014 121.1689992  48.0529978  74.1620014
 122.2099992  49.1649978  74.9730014 122.2329992  47.1489978  75.7230014
 122.1679992  46.1189978  75.3130014 121.3679992  47.2659978  76.4100014
 123.5209992  47.1119978  76.5130014 124.0909992  48.0209978  76.2260014
 124.0659992  46.1729978  76.2780014 123.2499992  47.0749978  78.0890014
 122.6579992  46.2179978  78.4750014 122.6699992  48.0119978  78.2300014
 124.5199992  47.0099978  78.8250014 125.1289992  47.9099978  78.5950014
 125.1559992  46.1179978  78.6400014 124.3769992  47.0909978  80.3800014
 123.7889992  48.0109978  80.5830014 125.3439992  47.2079978  80.9150014
 123.7439992  45.8709978  81.1500014 124.5119992  45.0889978  81.3320014
 123.0219992  45.4169978  80.4380014 122.9549992  46.1249978  82.4220014
 122.4099992  45.2259978  82.7820014 122.1529992  46.8789978  82.2720014
 123.5919992  46.4769978  83.2610014 126.9729992 104.5699978  81.3280014
 127.4129992 104.2169978  80.3710014 126.8259992 103.7399978  82.0520014
 127.7789992 105.1539978  81.8210014 125.7309992 105.4769978  80.9340014
 125.4579992 106.1809978  81.7480014 126.1229992 106.1359978  80.1300014
 124.5829992 104.6169978  80.4360014 124.3609992 103.7749978  81.1260014
 123.6859992 105.2319978  80.2070014 125.0059992 104.0999978  78.9710014
 125.3389992 105.0139978  78.4340014 125.9029992 103.4459978  79.0150014
 123.8039992 103.3409978  78.5050014 123.6449992 102.5269978  79.2450014
 122.9129992 103.9999978  78.5720014 123.9019992 102.9179978  77.0940014
 123.5659992 103.7699978  76.4630014 124.9539992 102.6409978  76.8680014
 122.9749992 101.7289978  76.8390014 123.3249992 101.4639978  75.8180014
 123.0669992 100.8709978  77.5390014 121.5489992 102.1359978  76.7220014
 121.3259992 102.4349978  77.7690014 121.4689992 103.0169978  76.0510014
 120.5869992 100.9379978  76.3860014 120.8249992 100.0809978  77.0510014
 119.5359992 101.2829978  76.4990014 120.7859992 100.3149978  75.0240014
 121.7419992  99.7539978  74.9600014 119.9609992  99.5729978  74.9520014
 120.8849992 101.3619978  73.9300014 119.9179992 101.9089978  73.9510014
 121.7309992 102.0829978  73.9380014 120.8239992 100.6459978  72.5690014
 121.8599992 100.4139978  72.2420014 120.1439992  99.7729978  72.4780014
 120.3359992 101.5349978  71.3430014 120.5219992 100.8809978  70.4640014
 119.2409992 101.7179978  71.3270014 120.9929992 102.9059978  71.1600014
 120.7729992 103.4629978  72.0960014 122.0899992 102.8869978  70.9810014
 120.4539992 103.5349978  69.8740014 120.5869992 102.8929978  68.9770014
 119.3659992 103.6319978  70.0740014 120.9829992 105.0049978  69.7110014
 121.5429992 105.6279978  70.6040014 120.6799992 105.5589978  68.5320014
 120.9179992 107.0209978  68.3290014 120.0829992 107.4669978  67.7470014
 121.0739992 107.6059978  69.2610014 122.2359992 107.3289978  67.5490014
 122.2319992 108.4309978  67.4030014 122.3359992 106.5839978  66.2210014
 121.4359992 106.7659978  65.5950014 123.2559992 107.0209978  65.7770014
 122.5889992 105.2079978  66.5160014 123.8319992 104.4339978  66.0420014
 123.8279992 104.6589978  64.4330014 122.9159992 103.8909978  63.6740014
 122.0779992 103.4409978  64.2480014 122.3289992 104.5499978  62.9990014
 123.5879992 102.6789978  63.0120014 124.0269992 102.0629978  63.7830014
 122.8189992 102.1539978  62.4640014 124.8539992 102.9379978  62.1500014
 126.0589992 103.2869978  63.1030014 126.0719992 102.6049978  63.9400014
 126.9139992 103.1809978  62.4520014 125.7909992 104.2999978  63.3680014
 125.1369992 101.5299978  61.5280014 124.2569992 101.1819978  61.0080014
 125.9269992 101.6539978  60.8020014 125.3679992 100.7749978  62.2640014
 124.7059992 103.9309978  61.1030014 124.2079992 104.8459978  61.3890014
 124.0749992 103.5949978  60.2930014 125.7049992 104.1089978  60.7320014
 125.0389992 105.0549978  66.5990014 123.6539992 102.9679978  66.3470014
 123.2909992 106.8909978  68.3880014 123.7109992 107.6999978  69.3060014
 123.2879992 108.8359978  69.5690014 124.8069992 106.9389978  69.9960014
 125.6839992 106.8779978  69.3170014 124.4449992 105.8929978  70.0930014
 125.1109992 107.5879978  71.3950014 125.3159992 108.6769978  71.4660014
 126.0689992 107.0659978  71.6060014 124.2179992 107.2009978  72.5350014
 123.8679992 106.1559978  72.3930014 123.2319992 107.7119978  72.5460014
 124.8229992 107.4769978  73.9160014 125.0459992 108.5579978  74.0340014
 125.8239992 106.9969978  73.9720014 123.8909992 107.0669978  75.0670014
 123.5009992 106.0349978  74.9350014 123.0399992 107.7789978  75.0010014
 124.4059992 107.3689978  76.4890014 124.6959992 108.4409978  76.5340014
 125.2539992 106.6879978  76.7180014 123.3739992 107.1279978  77.6970014
 124.0979992 107.0889978  78.5390014 123.0419992 106.0839978  77.5140014
 122.2369992 108.0519978  77.9550014 121.6569992 108.3309978  77.0630014
 121.7879992 108.5869978  79.2010014 120.7589992 108.9769978  79.2350014
 122.3939992 108.3499978  80.5140014 122.5299992 109.3369978  81.0060014
 123.4859992 108.1949978  80.3810014 121.8199992 107.2299978  81.4040014
 120.9859992 107.7969978  81.8700014 122.5569992 106.9249978  82.1770014
 121.2439992 106.0339978  80.6870014 121.7039992 105.8959978  79.6860014
 120.1769992 106.2479978  80.4640014 121.2839992 104.6379978  81.4120014
 120.7699992 104.7549978  82.3900014 122.3359992 104.3679978  81.6490014
 120.4879992 103.5619978  80.6960014 120.8249992 103.4429978  79.6440014
 119.4269992 103.8169978  80.4900014 120.2639992 102.1899978  81.4140014
 119.3969992 101.6599978  80.9640014 120.2249992 102.2299978  82.5230014
 121.4559992 101.1839978  81.2110014 122.4239992 101.6339978  81.5210014
 121.5619992 100.8289978  80.1630014 121.2669992  99.9049978  82.0290014
 120.3499992  99.4199978  81.6320014 121.3489992 100.0449978  83.1280014
 122.0959992  99.2249978  81.7380014  11.7889992  91.9179978  84.6360014
  10.7889992  92.3059978  84.3460014  12.4179992  92.6979978  84.1560014
  11.8189992  91.9329978  85.7470014  11.9689992  90.5369978  84.1550014
  13.0649992  90.3589978  84.1780014  11.4559992  89.7379978  84.7320014
  11.5669992  90.2969978  82.6740014  11.8009992  89.2369978  82.4380014
  10.4899992  90.5319978  82.5420014  12.3819992  91.1229978  81.6420014
  12.3019992  92.1919978  81.9350014  13.4319992  90.7819978  81.7640014
  11.8829992  90.9259978  80.1910014  11.8859992  89.8509978  79.9140014
  10.8069992  91.1949978  80.2580014  12.4999992  91.8629978  79.0220014
  12.6809992  92.8849978  79.4190014  13.4509992  91.3659978  78.7350014
  11.6369992  91.9949978  77.7410014  10.6289992  92.2429978  78.1370014
  12.0599992  92.8939978  77.2430014  11.5299992  90.8029978  76.7660014
  11.0439992  89.9759978  77.3270014  10.7689992  91.1449978  76.0310014
  12.7789992  90.1629978  76.1660014  13.4209992  89.5759978  76.8560014
  12.5929992  89.5479978  75.2600014  13.8069992  91.2659978  75.6590014
  13.3009992  92.1929978  75.3140014  14.2839992  91.6379978  76.5910014
  14.6949992  90.8049978  74.5710014  15.4039992  91.6579978  74.5150014
  15.1609992  89.8599978  74.9250014  14.1009992  90.6759978  73.1170014
  13.4799992  89.7539978  73.1020014  13.4239992  91.5259978  72.8850014
  15.2859992  90.5479978  72.1760014  15.3889992  91.4089978  71.4820014
  16.2269992  90.6789978  72.7520014  15.4289992  89.1969978  71.5170014
  15.4619992  88.4519978  72.3410014  14.6839992  88.8639978  70.7630014
  16.8569992  88.9179978  70.9800014  17.7349992  89.4169978  71.4440014
  17.0289992  87.8359978  71.1650014  16.9099992  89.1039978  69.4110014
  17.5919992  89.9439978  68.8610014  16.2449992  88.1499978  68.7450014
  16.2139992  88.4449978  67.3300014  16.0099992  89.5139978  67.1100014
  17.1619992  88.2019978  66.8040014  15.0879992  87.5959978  66.6320014
  15.4569992  86.5479978  66.6010014  14.7219992  88.2309978  65.2190014
  14.5919992  89.3209978  65.3950014  15.6249992  87.9669978  64.6290014
  13.5479992  87.5959978  64.8460014  12.8669992  87.5569978  63.4570014
  12.2339992  89.0219978  63.3830014  11.4739992  89.5059978  64.4740014
  10.4339992  89.7979978  64.2150014  11.2809992  88.7209978  65.2350014
  12.0639992  90.6769978  65.2660014  11.2719992  91.0019978  65.9230014
  12.9319992  90.2779978  65.7700014  12.5819992  91.8769978  64.5090014
  11.4059992  92.5149978  63.8030014  10.7729992  93.0129978  64.5230014
  11.8259992  93.2599978  63.1440014  10.8739992  91.7709978  63.2300014
  13.2179992  92.9959978  65.4030014  12.3669992  93.3869978  65.9400014
  13.9769992  92.5719978  66.0430014  13.5039992  93.7759978  64.7130014
  13.5989992  91.5129978  63.4490014  14.5179992  91.1329978  63.8690014
  13.8259992  92.4079978  62.8890014  13.2369992  90.7619978  62.7620014
  13.8929992  87.4069978  62.3700014  11.7509992  86.6539978  63.5470014
  13.8739992  87.6069978  67.4110014  13.6939992  86.8349978  68.4950014
  14.5189992  86.0549978  68.8800014  12.3329992  87.0479978  69.1880014
  11.5019992  86.6929978  68.5410014  12.1999992  88.1209978  69.4430014
  12.2739992  86.2299978  70.4700014  13.1709992  86.5369978  71.0480014
  12.3609992  85.1349978  70.3040014  11.0929992  86.6809978  71.3490014
  10.1449992  86.6649978  70.7700014  11.3799992  87.6849978  71.7290014
  10.8709992  85.7479978  72.5320014  10.4839992  84.8239978  72.0510014
  10.1759992  86.2519978  73.2390014  12.0669992  85.5969978  73.3870014
  12.5409992  86.5969978  73.4930014  12.8209992  84.9439978  72.8990014
  11.8829992  85.0399978  74.8070014  11.4559992  84.0149978  74.8310014
  11.2449992  85.8109978  75.2900014  13.2379992  84.9419978  75.6240014
  13.5319992  83.9049978  75.3560014  12.8659992  85.0009978  76.6690014
  14.3609992  85.9739978  75.4540014  14.7929992  86.0799978  74.4480014
  14.9449992  86.8769978  76.3250014  15.7869992  87.5139978  76.0180014
  14.5219992  86.9079978  77.7220014  14.0579992  85.9839978  78.1290014
  13.7199992  87.6559978  77.8980014  15.6989992  87.3819978  78.5630014
  16.6659992  86.9319978  78.2530014  15.5179992  87.0679978  79.6140014
  15.8709992  88.9049978  78.6900014  14.8819992  89.2049978  79.0970014
  15.9699992  89.4719978  77.7390014  17.0019992  89.3939978  79.5190014
  16.8689992  90.4959978  79.4700014  17.9159992  89.0789978  78.9720014
  17.0089992  89.0019978  80.9880014  17.9579992  89.3659978  81.4360014
  17.0279992  87.8959978  81.0810014  15.7959992  89.4359978  81.9330014
  14.9799992  88.7619978  81.5960014  15.5769992  90.4869978  81.6470014
  16.0549992  89.2709978  83.3950014  15.0309992  89.3629978  83.8150014
  16.6649992  90.1069978  83.7990014  16.5559992  87.8469978  83.6860014
  16.6929992  87.7049978  84.7790014  17.4439992  87.5429978  83.0930014
  15.7009992  87.1709978  83.4690014  28.3699992 120.5179978  82.3460014
  28.0189992 120.9759978  83.2960014  29.1149992 119.7369978  82.6080014
  27.5149992 119.9559978  81.9130014  29.1549992 121.5479978  81.4790014
  28.4859992 122.3759978  81.1590014  29.9789992 121.9829978  82.0830014
  29.6899992 120.8829978  80.2080014  30.3299992 120.0979978  80.6660014
  28.8879992 120.4089978  79.6030014  30.6639992 121.8019978  79.4250014
  30.1009992 122.5669978  78.8490014  31.2349992 122.4199978  80.1500014
  31.6909992 121.0159978  78.6810014  32.5049992 120.7789978  79.3990014
  31.1679992 120.1689978  78.1890014  32.4619992 121.8919978  77.6000014
  32.5029992 122.8889978  78.0870014  33.4609992 121.4459978  77.4090014
  31.6999992 121.8299978  76.2810014  31.6289992 120.7609978  75.9890014
  30.6309992 122.1069978  76.4000014  32.4069992 122.6039978  75.1230014
  32.4129992 123.7149978  75.1440014  33.4549992 122.2429978  75.0460014
  31.8249992 122.2779978  73.6680014  31.7129992 121.1859978  73.4940014
  30.8419992 122.7949978  73.6370014  32.6049992 122.9369978  72.5400014
  32.1599992 122.5099978  71.6150014  32.4819992 124.0389978  72.4730014
  34.1359992 122.7179978  72.5540014  34.6049992 123.1769978  73.4510014
  34.3109992 121.6229978  72.4860014  34.7659992 123.3079978  71.2580014
  34.3989992 124.3519978  71.1590014  35.8679992 123.4199978  71.3440014
  34.4889992 122.4759978  69.9460014  33.3889992 122.3989978  69.8090014
  34.8559992 123.1179978  69.1170014  35.2219992 121.1119978  69.6810014
  36.3329992 121.1459978  69.6740014  35.1049992 120.4619978  70.5750014
  34.9669992 120.3559978  68.3230014  35.0859992 121.0269978  67.4450014
  35.7789992 119.6119978  68.1770014  33.5679992 119.6889978  68.2830014
  32.9509992 119.4509978  69.2660014  33.1179992 119.4639978  66.9630014
  31.7339992 118.9819978  66.7980014  31.6549992 118.3899978  65.8610014
  31.4579992 118.2749978  67.6100014  30.6739992 120.1629978  66.7170014
  29.7509992 119.7479978  66.2580014  31.2139992 121.2359978  65.7680014
  31.5129992 120.7579978  64.8110014  30.3549992 121.9189978  65.5950014
  32.2649992 121.9159978  66.3880014  32.7849992 123.3179978  65.7990014
  31.9219992 123.3949978  64.5310014  31.2559992 124.5979978  64.2060014
  30.3719992 124.8219978  64.8400014  31.9059992 125.4969978  64.2700014
  30.8069992 124.4919978  62.7550014  30.3249992 125.4249978  62.5020014
  31.6899992 124.3429978  62.1520014  29.8479992 123.3579978  62.3300014
  30.5359992 122.0919978  62.4570014  31.3999992 122.1299978  61.8110014
  30.9069992 121.9569978  63.4620014  29.8469992 121.2809978  62.2750014
  28.6089992 123.4479978  63.1400014  28.8829992 123.4499978  64.1850014
  28.0549992 124.3439978  62.9010014  27.9949992 122.5779978  62.9620014
  29.5329992 123.5569978  60.8460014  28.9329992 122.7619978  60.4270014
  30.4139992 123.6759978  60.2330014  28.9969992 124.4879978  60.7350014
  32.4479992 124.4979978  66.6540014  34.2189992 123.3069978  65.4000014
  30.4789992 120.6929978  68.0250014  29.4279992 121.5679978  68.1600014
  28.6079992 121.7679978  67.3410014  29.4629992 122.1359978  69.5600014
  30.4619992 122.5529978  69.8070014  29.3609992 121.3369978  70.3250014
  28.4819992 123.3159978  69.7160014  27.4209992 122.9869978  69.7460014
  28.5099992 124.1459978  68.9780014  28.5499992 124.1059978  71.0830014
  28.7799992 123.4479978  71.9480014  27.6199992 124.6969978  71.2260014
  29.6839992 125.1709978  71.1210014  29.4959992 125.9199978  70.3230014
  30.5679992 124.7339978  70.6090014  29.9219992 125.7389978  72.5400014
  30.1759992 124.9259978  73.2530014  28.9029992 126.1559978  72.6820014
  30.8789992 126.9359978  72.6080014  30.5889992 127.6549978  71.8130014
  31.8759992 126.4799978  72.4260014  30.8099992 127.7319978  73.8690014
  29.8169992 128.2119978  74.0070014  31.6059992 128.5039978  73.8110014
  31.2229992 127.0269978  75.1590014  32.0849992 126.4199978  74.8450014
  30.6439992 127.0399978  76.4100014  31.1869992 126.4549978  77.1660014
  29.4359992 127.7519978  76.9360014  28.8309992 128.2149978  76.1270014
  29.7109992 128.6049978  77.5910014  28.4179992 126.7589978  77.6290014
  27.9949992 126.1249978  76.8200014  27.6059992 127.4609978  77.9150014
  28.9579992 125.9899978  78.8530014  29.7559992 125.2339978  78.6970014
  28.1019992 125.4139978  79.2660014  29.3559992 126.9569978  79.9920014
  28.4239992 127.3749978  80.4280014  29.9419992 127.8209978  79.6150014
  30.1349992 126.3219978  81.1620014  29.5579992 125.3789978  81.2710014
  30.0919992 126.8709978  82.1270014  31.5109992 125.6839978  80.8490014
  32.1559992 126.5119978  80.4860014  31.5959992 124.9619978  80.0090014
  32.3379992 125.1549978  82.0320014  32.0549992 124.1289978  82.3510014
  32.3149992 125.8499978  82.8980014  33.8419992 124.9809978  81.6210014
  34.0759992 124.0319978  81.0940014  34.3849992 124.8999978  82.5870014
  34.1889992 125.8809978  81.0700014  52.4999992  21.7269978  80.7780014
  53.3119992  20.9749978  80.6730014  51.5709992  21.1749978  80.5190014
  52.3639992  22.0309978  81.8380014  52.7989992  22.8719978  79.7550014
  52.1949992  23.7979978  79.8640014  53.8059992  23.2269978  80.0630014
  52.7919992  22.5529978  78.2790014  53.8049992  22.8679978  77.9490014
  52.8489992  21.4979978  77.9350014  51.7579992  23.2079978  77.3640014
  50.7479992  22.9679978  77.7600014  52.0519992  24.2729978  77.4830014
  51.8179992  22.7299978  75.8960014  52.8579992  22.9449978  75.5690014
  51.6649992  21.6369978  75.7670014  50.8399992  23.5259978  75.0640014
  49.8639992  23.5459978  75.5950014  51.1389992  24.5959978  75.0850014
  50.6149992  23.0269978  73.6400014  50.6419992  21.9159978  73.6550014
  49.5849992  23.1509978  73.2430014  51.6289992  23.6259978  72.6680014
  51.1889992  24.5269978  72.1900014  52.5489992  23.9029978  73.2260014
  51.9479992  22.6279978  71.5530014  52.2359992  21.6449978  71.9830014
  51.0829992  22.3819978  70.9010014  52.9759992  23.2839978  70.6700014
  52.6009992  24.0369978  69.9440014  53.5969992  23.7859978  71.4430014
  53.8179992  22.2319978  69.8400014  54.3689992  21.4829978  70.4480014
  53.2149992  21.6809978  69.0860014  54.9839992  22.9999978  69.0720014
  54.7139992  23.7819978  68.3310014  55.4579992  23.5269978  69.9280014
  56.0419992  21.9839978  68.5920014  56.6349992  21.6299978  69.4620014
  55.5369992  21.0699978  68.2140014  57.0549992  22.6619978  67.6600014
  57.2999992  23.6109978  68.1840014  57.9979992  22.0749978  67.6550014
  56.5549992  23.0859978  66.2480014  55.5919992  23.6179978  66.4000014
  57.3249992  23.7049978  65.7400014  56.3469992  21.8809978  65.3450014
  56.7639992  20.7519978  65.6770014  55.7339992  22.1059978  64.1530014
  55.9159992  21.1609978  63.1460014  55.9929992  21.7779978  62.2260014
  56.9009992  20.6489978  63.1750014  54.7389992  20.1229978  62.9230014
  55.1709992  19.3949978  62.2030014  53.4809992  20.8219978  62.2060014
  53.1139992  21.6499978  62.8500014  53.8019992  21.3709978  61.2950014
  52.4189992  19.8709978  61.8930014  50.9109992  20.4429978  61.8160014
  50.8229992  21.0819978  63.2660014  49.5519992  21.0859978  63.9890014
  48.7779992  21.6849978  63.4640014  49.2549992  20.0429978  64.2300014
  49.6889992  21.8719978  65.3230014  49.7029992  22.9129978  65.0380014
  48.8479992  21.6339978  65.9580014  50.9079992  21.6409978  66.2530014
  52.0799992  22.2959978  65.6290014  52.9209992  22.0519978  66.2620014
  52.2329992  21.9229978  64.6270014  51.9269992  23.3619978  65.5430014
  50.7089992  22.2949978  67.5960014  49.7019992  22.1219978  67.9460014
  51.3649992  21.8439978  68.3250014  50.8569992  23.3559978  67.4620014
  51.1059992  20.1619978  66.3330014  50.1879992  19.6309978  66.5360014
  51.7159992  19.7619978  67.1290014  51.5199992  19.8919978  65.3720014
  50.7709992  21.4259978  60.7040014  50.0069992  19.2819978  61.7040014
  54.2399992  19.5249978  64.1530014  54.7239992  18.4039978  64.4570014
  55.5209992  17.7869978  63.7820014  54.0529992  17.8689978  65.7650014
  53.7229992  16.8549978  65.4510014  53.3379992  18.5739978  66.2420014
  55.0739992  17.6799978  66.8500014  55.6429992  18.6309978  66.7670014
  55.7079992  16.8289978  66.5200014  54.5159992  17.3329978  68.2410014
  55.4139992  17.0659978  68.8380014  53.9639992  16.3699978  68.2090014
  53.6459992  18.3409978  68.9610014  52.5679992  18.1979978  68.7340014
  53.8639992  19.3789978  68.6310014  53.8919992  17.9979978  70.4670014
  54.9429992  18.3269978  70.6140014  53.7319992  16.9319978  70.7360014
  52.9409992  18.7659978  71.3460014  51.9219992  18.3229978  71.3680014
  52.8879992  19.8339978  71.0430014  53.4609992  18.7589978  72.8580014
  54.5319992  19.0549978  72.8680014  53.4889992  17.6819978  73.1280014
  52.4989992  19.5829978  73.7210014  52.5409992  20.6709978  73.5610014
  51.6849992  19.1559978  74.6980014  50.9579992  19.8949978  75.0660014
  51.4719992  17.8139978  75.2070014  51.7849992  17.0809978  74.4330014
  50.3779992  17.6439978  75.2910014  52.2309992  17.4599978  76.5610014
  52.0679992  16.3839978  76.7850014  51.9699992  18.1999978  77.3470014
  53.7849992  17.5479978  76.4500014  54.1439992  18.5929978  76.3310014
  54.0359992  16.9889978  75.5230014  54.4559992  16.9679978  77.6780014
  55.5119992  16.8709978  77.3470014  54.1229992  15.9539978  77.9840014
  54.5849992  17.8859978  78.9180014  53.6299992  17.9459978  79.4830014
  54.9519992  18.8359978  78.4740014  55.6849992  17.2329978  79.8750014
  56.6419992  17.3409978  79.3220014  55.5969992  16.1399978  80.0550014
  55.8299992  18.0119978  81.1110014  56.5389992  17.4649978  81.7680014
  54.8519992  17.8879978  81.6230014  56.0189992  19.5709978  81.0130014
  55.0119992  19.9729978  80.7730014  56.6969992  19.7369978  80.1480014
  56.4919992  19.9699978  81.9350014  80.2619992   8.9309978  81.1160014
  79.8719992   9.4799978  82.0000014  80.8519992   8.0649978  81.4840014
  79.4819992   8.5969978  80.3980014  81.2659992   9.8759978  80.3780014
  81.7929992  10.4699978  81.1550014  81.9909992   9.1689978  79.9230014
  80.6499992  10.8429978  79.4080014  80.1539992  10.1869978  78.6610014
  79.8969992  11.4909978  79.9050014  81.7749992  11.7599978  78.8300014
  81.3949992  12.4979978  78.0920014  82.3809992  12.1529978  79.6740014
  82.6449992  10.8549978  77.9950014  83.1119992  10.0579978  78.6120014
  81.9499992  10.2999978  77.3290014  83.7399992  11.6069978  77.2250014
  83.1989992  12.3399978  76.5890014  84.5359992  12.0619978  77.8520014
  84.4199992  10.7449978  76.1580014  84.9069992   9.9569978  76.7720014
  83.7469992  10.1669978  75.4890014  85.4729992  11.4309978  75.2420014
  85.7539992  12.4449978  75.5990014  86.4569992  10.9149978  75.2460014
  84.9749992  11.5409978  73.7900014  84.7489992  10.5189978  73.4190014
  84.0329992  12.1199978  73.6890014  86.0369992  12.0979978  72.8340014
  86.3219992  13.0489978  73.3320014  86.9489992  11.4639978  72.8430014
  85.5249992  12.3779978  71.4390014  85.3429992  11.4309978  70.8870014
  84.5489992  12.8939978  71.5700014  86.5639992  13.1779978  70.5520014
  86.8109992  14.1469978  71.0360014  87.4899992  12.5669978  70.6020014
  86.1619992  13.4449978  69.0590014  85.7439992  12.4939978  68.6670014
  85.4189992  14.2669978  69.1510014  87.2669992  13.8099978  68.0960014
  87.6469992  14.8119978  68.3910014  88.0739992  13.0509978  68.1770014
  86.7249992  13.9459978  66.6370014  85.6449992  14.2039978  66.6600014
  87.3019992  14.7599978  66.1470014  86.9279992  12.6229978  65.8160014
  87.3129992  12.6069978  64.6730014  86.6079992  11.5849978  66.5530014
  86.6619992  10.3169978  65.9410014  86.9729992  10.2819978  64.8750014
  87.4199992   9.6429978  66.3950014  85.3479992   9.5959978  66.1250014
  85.4299992   8.5739978  65.6980014  84.1659992  10.3539978  65.3640014
  84.5149992  10.4779978  64.3160014  83.2709992   9.7079978  65.2400014
  83.8949992  11.6849978  65.9490014  82.4699992  12.2529978  65.7260014
  82.3689992  12.6949978  64.1830014  83.5499992  13.2089978  63.5060014
  84.1949992  13.8109978  64.1810014  84.0469992  12.3349978  63.0340014
  83.1649992  14.1759978  62.3230014  84.0809992  14.4729978  61.8330014
  82.5699992  13.5809978  61.6460014  82.4029992  15.5009978  62.5160014
  83.0679992  16.4099978  63.5530014  84.1279992  16.2909978  63.3790014
  82.7359992  17.3989978  63.2730014  82.7149992  16.0419978  64.5050014
  82.4349992  16.3109978  61.2050014  82.0569992  17.2959978  61.4350014
  83.4759992  16.3749978  60.9230014  81.9059992  15.6959978  60.4910014
  81.0479992  15.2219978  63.0050014  80.5319992  14.8789978  62.1200014
  80.5499992  16.1259978  63.3240014  81.1009992  14.5559978  63.8530014
  81.4959992  11.1959978  66.0640014  82.3089992  13.5479978  66.4770014
  85.1369992   9.4989978  67.5360014  83.9249992   9.1519978  68.0250014
  82.9699992   8.7509978  67.3620014  83.9279992   9.1319978  69.5520014
  84.4409992   9.9449978  70.1090014  84.3689992   8.1569978  69.8510014
  82.4429992   8.8449978  70.0800014  82.4729992   8.6699978  71.1770014
  82.1479992   7.9299978  69.5230014  81.5289992  10.0659978  69.8740014
  80.4649992   9.8609978  70.1160014  81.5549992  10.3179978  68.7920014
  82.0129992  11.3589978  70.6500014  83.0209992  11.6419978  70.2790014
  82.1589992  11.1299978  71.7270014  81.0739992  12.5129978  70.3610014
  80.0579992  12.4249978  70.8030014  80.9449992  12.6199978  69.2620014
  81.5249992  13.8519978  70.8710014  80.9069992  14.6209978  70.3590014
  82.6029992  13.9439978  70.6170014  81.4929992  13.9699978  72.4710014
  82.2649992  13.2469978  72.8110014  80.4979992  13.6229978  72.8220014
  81.8849992  15.3369978  72.9370014  82.6699992  15.8519978  72.3640014
  81.1859992  16.1099978  73.8190014  81.6009992  17.0679978  74.1640014
  79.9259992  15.7189978  74.5170014  79.3739992  14.9059978  73.9980014
  79.2679992  16.6139978  74.5060014  80.1469992  15.3919978  76.0420014
  80.4739992  14.3369978  76.1630014  79.1659992  15.5539978  76.5370014
  81.2799992  16.1969978  76.7130014  81.1659992  17.2749978  76.4690014
  82.2449992  15.7719978  76.3640014  81.2309992  15.9919978  78.2650014
  81.2989992  14.9279978  78.5770014  80.2369992  16.2889978  78.6630014
  82.3059992  16.7499978  78.9270014  82.3619992  17.7959978  78.5580014
  83.2719992  16.3099978  78.6010014  82.2849992  16.5869978  80.4330014
  82.3939992  15.5159978  80.7050014  81.2659992  16.8259978  80.8070014
  83.2759992  17.5419978  81.1180014  83.2469992  17.2119978  82.1790014
  82.8909992  18.5809978  81.0460014  84.7409992  17.4369978  80.7130014
  85.2019992  16.4279978  80.7640014  85.3219992  18.1049978  81.3840014
  84.8609992  17.9619978  79.7410014  40.2039992 127.6299978  82.0330014
  40.0889992 128.4479978  81.2910014  40.7039992 126.6899978  81.7130014
  40.8549992 128.0459978  82.8320014  38.8849992 127.3509978  82.6780014
  39.0289992 126.6829978  83.5550014  38.4469992 128.2739978  83.1130014
  37.8349992 126.6099978  81.8250014  38.2569992 125.7429978  81.2730014
  37.2009992 126.1539978  82.6160014  36.9909992 127.3969978  80.8240014
  36.8709992 128.4709978  81.0790014  37.4219992 127.4559978  79.8010014
  35.5949992 126.8209978  80.7520014  35.5689992 125.7259978  80.9340014
  34.8649992 127.3159978  81.4270014  35.0229992 126.9389978  79.2790014
  35.8339992 126.5049978  78.6560014  34.0639992 126.3909978  79.1570014
  34.6479992 128.3599978  78.9490014  33.9709992 128.6469978  79.7810014
  35.5809992 128.9639978  78.9630014  33.8779992 128.5749978  77.6390014
  32.9179992 128.0329978  77.7790014  33.6749992 129.6559978  77.4840014
  34.6139992 128.0029978  76.3870014  35.5259992 128.6379978  76.3750014
  34.9259992 126.9369978  76.3780014  33.8569992 128.0959978  75.0420014
  33.2049992 127.2079978  74.9010014  33.2719992 129.0379978  75.1110014
  34.7889992 128.2259978  73.8650014  35.2659992 129.2289978  73.9110014
  35.6419992 127.5149978  73.9020014  34.0439992 128.1919978  72.5040014
  33.8699992 127.1379978  72.1990014  33.0479992 128.6559978  72.6650014
  34.7499992 128.9979978  71.3650014  34.7429992 130.0939978  71.5500014
  35.8079992 128.6849978  71.2320014  33.9669992 128.9109978  70.0500014
  33.5509992 127.8849978  69.9630014  33.0529992 129.5419978  70.0250014
  34.8009992 129.2939978  68.7700014  35.6689992 128.6099978  68.6530014
  34.1269992 129.1509978  67.8990014  35.3499992 130.7459978  68.7600014
  35.4659992 131.5099978  69.6970014  35.5739992 131.0579978  67.4730014
  36.1419992 132.2969978  67.0850014  35.7089992 132.6669978  66.1320014
  36.0269992 133.0769978  67.8670014  37.6399992 132.2199978  66.9490014
  38.1039992 133.1769978  66.6260014  38.0029992 131.0779978  65.9090014
  37.4059992 131.2139978  64.9820014  39.0839992 131.1779978  65.6710014
  37.7439992 129.7889978  66.4880014  37.3719992 128.4729978  65.6150014
  38.5029992 128.2589978  64.5720014  39.9059992 128.4299978  64.8320014
  40.1259992 128.6479978  65.8990014  40.3129992 127.4089978  64.6660014
  40.6269992 129.4089978  63.7180014  40.2549992 130.4029978  63.9180014
  41.6709992 129.2749978  63.9610014  40.4219992 128.9029978  62.3520014
  41.5219992 129.5009978  61.4900014  42.4789992 129.2499978  61.9250014
  41.4219992 129.0999978  60.4920014  41.4859992 130.5649978  61.6680014
  40.3059992 127.4729978  62.1090014  40.0319992 127.2949978  61.0790014
  41.2329992 126.9779978  62.3570014  39.5309992 126.9549978  62.6530014
  39.1419992 129.5209978  61.7790014  39.2119992 130.5979978  61.8210014
  38.2879992 129.1749978  62.3440014  39.1659992 129.1749978  60.7560014
  37.5579992 127.3469978  66.5530014  36.0539992 128.5959978  64.9970014
  38.1219992 131.9319978  68.2440014  39.4229992 131.9299978  68.5100014
  40.2649992 132.4369978  67.8190014  39.7139992 131.0939978  69.7400014
  40.3539992 130.2039978  69.5600014  38.7049992 130.8059978  70.1070014
  40.3519992 131.9349978  70.8960014  39.8039992 132.8889978  71.0530014
  41.4119992 132.1959978  70.6920014  40.3859992 131.1079978  72.1820014
  41.3639992 131.0749978  72.7080014  40.1849992 130.0609978  71.8710014
  39.4439992 131.4449978  73.2590014  38.4089992 131.5259978  72.8640014
  39.7159992 132.4659978  73.6040014  39.4109992 130.3739978  74.4230014
  40.4539992 130.2339978  74.7780014  39.1399992 129.3619978  74.0530014
  38.5099992 130.7389978  75.6550014  37.4859992 130.6639978  75.2300014
  38.5309992 131.7889978  76.0170014  38.7619992 129.9049978  76.9340014
  38.8789992 128.8439978  76.6250014  37.8709992 130.0149978  77.5890014
  40.0229992 130.3649978  77.5940014  40.9299992 129.8529978  77.2390014
  40.1429992 131.2439978  78.5420014  41.2069992 131.5169978  78.6030014
  39.1519992 132.1149978  79.2670014  38.1159992 131.9179978  78.9170014
  39.3099992 133.2069978  79.1330014  39.3099992 131.7139978  80.7460014
  40.3469992 131.9559978  81.0620014  38.9469992 130.6769978  80.9130014
  38.3529992 132.4299978  81.7050014  37.3269992 132.1989978  81.3480014
  38.5339992 133.5189978  81.5810014  38.5059992 132.2199978  83.2340014
  37.7309992 132.8539978  83.7150014  39.4959992 132.5269978  83.6330014
  38.1899992 130.8409978  83.6320014  39.1399992 130.2699978  83.5600014
  37.4849992 130.4339978  82.8760014  37.7809992 130.8509978  85.1110014
  37.1689992 131.7379978  85.3810014  38.6539992 130.9429978  85.7920014
  37.1769992 129.4719978  85.5520014  37.5189992 129.2739978  86.5910014
  37.6019992 128.7419978  84.8310014  35.6469992 129.5249978  85.5920014
  35.2969992 130.2419978  86.3640014  35.1299992 128.5769978  85.8530014
  35.1809992 129.6489978  84.5910014 130.0869992  63.1329978  81.9610014
 130.2639992  63.9049978  82.7400014 130.7569992  63.3519978  81.1020014
 130.3099992  62.1599978  82.4470014 128.6279992  63.1899978  81.5180014
 128.0139992  63.4669978  82.4010014 128.5099992  64.0759978  80.8580014
 127.9879992  62.0419978  80.7900014 127.9769992  61.1279978  81.4220014
 126.9399992  62.3309978  80.5610014 128.7749992  61.6119978  79.5210014
 129.0179992  62.5719978  79.0170014 129.7149992  61.1489978  79.8890014
 127.9689992  60.5559978  78.7140014 128.0889992  59.5979978  79.2630014
 126.9269992  60.9029978  78.5430014 128.3459992  60.4229978  77.2080014
 129.2849992  59.8429978  77.0810014 127.5479992  59.8349978  76.7060014
 128.3369992  61.7799978  76.3630014 127.8959992  61.6579978  75.3500014
 127.6339992  62.5099978  76.8170014 129.7159992  62.3069978  75.9820014
 130.1589992  62.4669978  76.9890014 130.1519992  61.4529978  75.4210014
 129.7739992  63.6059978  75.0290014 129.1549992  64.4409978  75.4200014
 130.8169992  63.8899978  74.7730014 129.2329992  63.3389978  73.6010014
 128.2489992  62.8849978  73.8460014 129.0959992  64.2229978  72.9430014
 129.9339992  62.3559978  72.6820014 130.2049992  61.3959978  73.1720014
 129.2059992  62.1229978  71.8750014 131.1629992  62.8019978  71.9990014
 131.3939992  63.8259978  72.3620014 132.0429992  62.2309978  72.3640014
 131.1989992  62.6939978  70.4510014 132.2689992  62.5769978  70.1780014
 130.6609992  61.7889978  70.0970014 130.6319992  63.9889978  69.7370014
 129.5329992  64.0339978  69.8890014 131.1379992  64.8789978  70.1680014
 130.7789992  63.9249978  68.2680014 130.6769992  62.8839978  67.8930014
 130.0689992  64.6299978  67.7840014 132.1789992  64.3929978  67.7660014
 133.0709992  64.7099978  68.5090014 132.1239992  64.4649978  66.4730014
 133.3739992  64.4349978  65.7290014 133.1819992  65.0329978  64.8130014
 134.3039992  64.7599978  66.2440014 133.6879992  62.9139978  65.4090014
 134.4229992  62.8469978  64.5790014 132.4929992  62.0559978  64.9310014
 131.7829992  61.9819978  65.7820014 131.9089992  62.5309978  64.1130014
 132.9989992  60.7589978  64.5020014 132.1839992  59.4459978  64.8470014
 130.7809992  59.9859978  64.4720014 129.8889992  59.1619978  63.7910014
 130.1629992  59.0829978  62.7180014 129.8059992  58.1139978  64.1510014
 128.4309992  59.6679978  64.0180014 127.7099992  58.9179978  63.7260014
 128.3449992  59.8209978  65.0840014 128.0649992  60.9689978  63.3340014
 126.5229992  61.1429978  63.3870014 126.2429992  61.8119978  62.5860014
 126.0849992  60.1949978  63.1100014 126.2129992  61.6369978  64.2950014
 128.6939992  62.1729978  64.0370014 129.6989992  62.0729978  64.4210014
 128.7619992  63.0789978  63.4530014 128.0199992  62.4389978  64.8370014
 128.3899992  60.8599978  61.8980014 127.6479992  60.1989978  61.4750014
 129.4449992  60.6879978  61.7430014 128.2769992  61.7889978  61.3580014
 132.6619992  58.4619978  63.8910014 132.1539992  59.1349978  66.3290014
 134.2899992  62.3809978  66.5860014 135.3549992  61.5899978  66.5040014
 135.8539992  61.1889978  65.4770014 135.7829992  61.2129978  67.8290014
 136.1179992  62.1119978  68.3890014 136.6149992  60.4849978  67.7210014
 134.6049992  60.6959978  68.6210014 134.1319992  59.8549978  68.0700014
 133.7899992  61.4309978  68.7930014 134.9479992  59.9749978  69.9990014
 135.7279992  60.4869978  70.6010014 135.4399992  58.9839978  69.8990014
 133.7889992  59.8869978  70.9140014 133.4479992  60.9419978  70.9770014
 134.2109992  59.6029978  71.9020014 132.7079992  58.8519978  70.5560014
 133.1429992  57.8289978  70.5610014 132.3259992  59.0729978  69.5360014
 131.4839992  58.9059978  71.5420014 130.6949992  58.1929978  71.2220014
 131.0239992  59.9009978  71.3620014 131.7699992  58.6849978  72.9830014
 130.7459992  58.7279978  73.4100014 132.3259992  59.5899978  73.3100014
 132.4499992  57.3379978  73.3400014 131.7989992  56.5369978  72.9590014
 133.6169992  57.0819978  73.9950014 133.9319992  56.0319978  74.0830014
 134.6239992  58.0819978  74.5350014 135.2349992  58.5509978  73.7340014
 135.3539992  57.4969978  75.1330014 134.0799992  59.0789978  75.5880014
 133.5169992  58.5709978  76.3990014 133.5199992  59.9109978  75.1090014
 135.3379992  59.7669978  76.2640014 135.8449992  60.4779978  75.5770014
 136.0429992  58.9399978  76.4950014 134.9049992  60.6359978  77.3870014
 134.1349992  60.1559978  78.0280014 134.4529992  61.5659978  76.9820014
 135.9469992  60.9689978  78.3920014 136.8719992  61.3919978  77.9430014
 136.2679992  60.0209978  78.8750014 135.4859992  61.7319978  79.6230014
 136.4689992  61.9349978  80.0990014 134.8839992  61.0729978  80.2840014
 134.5959992  62.9689978  79.3620014 133.7949992  62.6839978  78.6460014
 135.2999992  63.6369978  78.8210014 134.0369992  63.6939978  80.6020014
 133.2319992  64.4329978  80.4010014 134.8739992  64.2879978  81.0290014
 133.6939992  62.8689978  81.2630014  30.2229992  27.2499978  80.8860014
  31.1349992  26.9879978  81.4650014  29.2959992  26.6829978  81.1170014
  30.0179992  28.3379978  80.9780014  30.5399992  27.0739978  79.4410014
  29.6049992  26.8659978  78.8790014  31.0499992  27.9649978  79.0170014
  31.4469992  25.8429978  79.1160014  32.2749992  25.9069978  79.8540014
  30.7789992  24.9619978  79.2280014  32.0399992  25.7679978  77.7900014
  31.2889992  25.6799978  76.9760014  32.6519992  26.6659978  77.5570014
  33.1259992  24.6649978  77.7530014  33.8339992  24.8329978  78.5930014
  32.6329992  23.6749978  77.8650014  33.7459992  24.5169978  76.3530014
  34.2549992  23.5309978  76.2920014  32.9939992  24.6199978  75.5420014
  34.7839992  25.5439978  75.8790014  34.1759992  26.4579978  75.7090014
  35.5609992  25.7579978  76.6430014  35.5529992  25.1389978  74.6430014
  36.5279992  24.7199978  74.9730014  34.9829992  24.3949978  74.0450014
  35.7039992  26.3639978  73.6390014  34.7339992  26.7759978  73.2880014
  36.2149992  27.1169978  74.2770014  36.5679992  25.8779978  72.4960014
  37.5819992  25.5889978  72.8470014  36.2769992  24.8559978  72.1700014
  36.4719992  26.6109978  71.1130014  37.0279992  27.5349978  71.3810014
  37.0229992  26.0029978  70.3640014  35.0809992  26.9719978  70.4480014
  34.5999992  27.7499978  71.0790014  35.1649992  27.5219978  69.4870014
  34.1739992  25.6979978  70.2360014  34.7439992  24.8509978  69.7970014
  33.9579992  25.2619978  71.2350014  32.7709992  25.9319978  69.7170014
  32.1489992  25.0869978  70.0820014  32.3799992  26.8899978  70.1200014
  32.7179992  26.0699978  68.1750014  33.4199992  26.9099978  67.9830014
  33.0469992  25.1759978  67.6040014  31.2899992  26.6249978  67.7480014
  30.3929992  26.9429978  68.4920014  31.3069992  26.7349978  66.3650014
  30.0559992  27.1759978  65.7560014  29.5309992  26.2739978  65.3760014
  29.3249992  27.4819978  66.5350014  30.2419992  28.2439978  64.5890014
  29.3549992  28.9119978  64.5690014  30.4109992  27.5529978  63.2340014
  29.6319992  26.7639978  63.1660014  30.3429992  28.2799978  62.3970014
  31.7759992  27.1339978  63.1270014  33.0259992  27.7449978  62.4390014
  34.0849992  27.8009978  63.6090014  34.1479992  26.6899978  64.4990014
  33.1559992  26.3869978  64.8970014  34.6029992  25.8589978  63.9190014
  35.0079992  27.0419978  65.7740014  34.5739992  27.7889978  66.4230014
  34.9759992  26.1369978  66.3630014  36.4119992  27.5569978  65.4700014
  37.1969992  26.6649978  64.5110014  38.1229992  27.1379978  64.2200014
  37.2939992  25.7179978  65.0200014  36.5269992  26.4959978  63.6810014
  36.3819992  28.9189978  64.8580014  35.6589992  28.8229978  64.0610014
  35.9579992  29.6909978  65.4830014  37.3229992  29.2059978  64.4130014
  37.1049992  27.5579978  66.8400014  38.1369992  27.8739978  66.8020014
  36.9169992  26.6109978  67.3220014  36.5879992  28.2419978  67.4970014
  33.4219992  26.6559978  61.4590014  32.7479992  29.1209978  61.9210014
  31.4679992  29.0309978  64.8850014  31.5429992  29.8269978  65.9290014
  30.6969992  30.0639978  66.7430014  32.9489992  30.3329978  65.8760014
  33.2589992  30.8539978  64.9450014  33.6149992  29.5129978  66.2200014
  32.9499992  31.5109978  66.9090014  32.7409992  31.0499978  67.8990014
  32.1609992  32.2669978  66.7090014  34.3299992  32.2589978  66.9150014
  34.1669992  33.3099978  67.2340014  34.7769992  32.3779978  65.9050014
  35.3869992  31.5069978  67.7330014  36.2939992  32.1459978  67.6830014
  35.6389992  30.4819978  67.3860014  34.9139992  31.4969978  69.2730014
  34.2769992  30.5869978  69.2960014  34.2039992  32.3239978  69.4880014
  36.1749992  31.4459978  70.1580014  36.5449992  32.4929978  70.1770014
  36.9279992  30.7589978  69.7150014  35.7739992  30.8869978  71.5350014
  36.7009992  30.7179978  72.1230014  35.3429992  29.8709978  71.4080014
  34.8389992  31.7839978  72.2500014  35.2799992  32.7609978  72.5000014
  33.6139992  31.4959978  72.8020014  33.0059992  32.3259978  73.1910014
  32.8909992  30.1779978  72.8930014  32.9759992  29.5489978  71.9810014
  31.8159992  30.4409978  72.9920014  33.2709992  29.3469978  74.1460014
  34.3359992  29.0389978  74.0850014  32.6129992  28.4539978  74.2180014
  33.0689992  30.1629978  75.4890014  31.9869992  30.2159978  75.7330014
  33.4259992  31.2129978  75.4120014  33.8579992  29.6309978  76.7080014
  34.9479992  29.6729978  76.5000014  33.5459992  28.5699978  76.8140014
  33.5949992  30.4389978  78.0120014  32.4879992  30.4859978  78.1010014
  34.0389992  31.4369978  77.8150014  33.9439992  29.7429978  79.3120014
  35.0529992  29.6799978  79.3370014  33.5659992  28.6989978  79.2910014
  33.3159992  30.2989978  80.5970014  32.2229992  30.3989978  80.4200014
  33.6759992  31.3369978  80.7590014  33.5729992  29.3899978  81.7400014
  33.8559992  28.3739978  81.3890014  32.6759992  29.4159978  82.3950014
  34.4839992  29.7049978  82.2930014  27.6769992 116.1669978  81.2410014
  28.0129992 115.1099978  81.3110014  26.5679992 116.1419978  81.3120014
  28.1459992 116.7689978  82.0480014  27.9959992 116.6739978  79.7950014
  29.0819992 116.6969978  79.5620014  27.4739992 115.9749978  79.1060014
  27.4209992 118.0939978  79.4700014  27.8379992 118.8119978  80.2080014
  27.9259992 118.4329978  78.5400014  25.9089992 118.1099978  79.2930014
  25.7789992 117.3379978  78.5050014  25.4609992 117.7479978  80.2430014
  25.3859992 119.3949978  78.7260014  25.6639992 120.2729978  79.3480014
  25.7189992 119.5129978  77.6730014  23.8439992 119.3059978  78.6430014
  23.4809992 118.4009978  78.1100014  23.4849992 119.2279978  79.6910014
  23.2699992 120.5369978  78.0550014  23.4999992 121.3859978  78.7340014
  23.6719992 120.7879978  77.0500014  21.7599992 120.3959978  77.8820014
  21.3449992 120.0109978  78.8390014  21.3509992 121.3859978  77.5880014
  21.2239992 119.3429978  76.8320014  21.3419992 118.3179978  77.2440014
  20.1259992 119.4859978  76.7460014  21.8849992 119.4519978  75.4230014
  22.9389992 119.1379978  75.5820014  21.4389992 118.6489978  74.7980014
  21.7569992 120.9179978  74.6950014  20.6929992 121.2319978  74.7450014
  22.3309992 121.6909978  75.2500014  22.1579992 121.0539978  73.2550014
  21.6809992 120.1989978  72.7290014  21.8009992 122.0459978  72.9030014
  23.7379992 120.9379978  73.1690014  24.3009992 121.6809978  73.7730014
  23.9679992 119.9079978  73.5170014  24.2109992 120.7389978  71.7160014
  25.1269992 120.1129978  71.6540014  23.3809992 120.1889978  71.2220014
  24.4809992 122.0489978  70.9240014  23.5909992 122.6199978  70.5840014
  25.0839992 122.7239978  71.5690014  25.1789992 121.6929978  69.6390014
  26.2319992 122.1809978  69.2610014  24.3789992 120.8389978  68.9400014
  24.8859992 120.5389978  67.6070014  24.0179992 120.3429978  66.9420014
  25.4509992 121.3249978  67.0620014  25.8429992 119.3279978  67.6740014
  26.4139992 119.5409978  68.6030014  26.7479992 119.2289978  66.4560014
  27.1139992 120.2369978  66.1680014  27.5659992 118.4849978  66.5720014
  25.9539992 118.7819978  65.3450014  26.5189992 117.7329978  64.3610014
  25.4929992 117.7279978  63.1330014  24.6329992 118.7829978  62.8240014
  24.6849992 119.6609978  63.5030014  24.8809992 119.1179978  61.7940014
  23.2389992 118.2259978  62.7770014  22.5739992 119.0629978  62.6210014
  23.2409992 117.5479978  61.9360014  22.5719992 117.5579978  63.9500014
  23.2489992 116.2629978  64.3420014  23.2119992 115.4899978  63.5890014
  24.3009992 116.3889978  64.5540014  22.7119992 115.9159978  65.2120014
  22.6439992 118.4809978  65.1850014  21.7629992 118.4909978  65.8090014
  23.4779992 118.1959978  65.8090014  22.8959992 119.4679978  64.8250014
  21.1289992 117.3549978  63.5520014  20.9399992 116.6029978  62.8010014
  20.9639992 118.3639978  63.2060014  20.5269992 117.1959978  64.4340014
  27.9219992 118.0769978  63.9620014  26.4339992 116.4739978  65.0760014
  25.0949992 118.1869978  67.9280014  25.1889992 117.4939978  68.9590014
  25.8849992 117.7309978  69.9220014  24.3099992 116.2299978  68.8310014
  24.8669992 115.3099978  68.5520014  23.6309992 116.4139978  67.9710014
  23.6309992 115.9829978  70.1790014  23.6119992 116.8959978  70.8110014
  24.4029992 115.3249978  70.6330014  22.3309992 115.1889978  70.1530014
  22.4939992 114.1629978  69.7590014  21.7399992 115.7009978  69.3640014
  21.7839992 115.1459978  71.5930014  20.8009992 114.6289978  71.5660014
  21.6999992 116.2279978  71.8320014  22.7009992 114.3549978  72.6470014
  23.7169992 114.7839978  72.7830014  22.7779992 113.2839978  72.3610014
  22.0249992 114.4649978  73.9710014  21.1069992 113.8509978  73.8470014
  21.8389992 115.5379978  74.1890014  22.6389992 113.8449978  75.2460014
  22.9209992 112.8039978  74.9820014  21.8209992 113.7379978  75.9900014
  23.9049992 114.5169978  75.7920014  24.6699992 114.6569978  75.0130014
  24.0419992 115.1299978  76.9920014  25.0029992 115.6059978  77.2350014
  23.0339992 115.2149978  78.1030014  22.0789992 114.7359978  77.7990014
  22.9349992 116.3189978  78.1810014  23.5079992 114.8139978  79.5120014
  24.5849992 115.0879978  79.4970014  23.3829992 113.7249978  79.6900014
  22.9039992 115.6969978  80.6310014  21.7979992 115.6469978  80.5340014
  23.1479992 116.7779978  80.5460014  23.3169992 115.2739978  82.0170014
  24.4089992 115.3869978  82.1860014  23.1779992 114.1759978  82.1220014
  22.4819992 115.9299978  83.0820014  22.6619992 115.4519978  84.0680014
  21.4389992 115.7179978  82.7640014  22.7589992 117.3929978  83.3130014
  22.8279992 117.9319978  82.3440014  23.7219992 117.5659978  83.8400014
  21.6419992 117.9529978  84.2250014  22.1339992 118.7949978  84.7560014
  21.4019992 117.1869978  84.9930014  20.3949992 118.3099978  83.5190014
  20.5269992 119.1509978  82.8050014  19.7069992 118.6569978  84.3200014
  20.0359992 117.3939978  83.0040014 108.1859992 121.7769978  82.1480014
 107.6719992 121.8589978  83.1290014 107.4259992 121.1679978  81.6140014
 108.4059992 122.7189978  81.6010014 109.5279992 121.0619978  82.1890014
 110.1319992 121.4729978  83.0260014 109.3159992 120.0109978  82.4820014
 110.3059992 121.2719978  80.9380014 110.6599992 122.3229978  80.8710014
 111.1869992 120.6069978  81.0590014 109.7269992 120.9389978  79.5690014
 108.6329992 121.1239978  79.5090014 110.1429992 121.5509978  78.7410014
 110.0399992 119.4269978  79.2050014 111.1309992 119.2219978  79.1510014
 109.5089992 118.8369978  79.9830014 109.4159992 118.9969978  77.8460014
 109.8669992 118.0029978  77.6400014 108.3129992 118.8749978  77.9080014
 109.6639992 119.7959978  76.6150014 108.8739992 120.5709978  76.5150014
 110.7019992 120.1919978  76.5870014 109.3559992 118.8129978  75.4220014
 110.1039992 117.9919978  75.3900014 108.3659992 118.3289978  75.5630014
 109.2439992 119.4539978  74.1210014 108.6079992 120.3619978  74.1830014
 110.2709992 119.6019978  73.7230014 108.6459992 118.5009978  73.0630014
 109.3169992 117.6179978  73.0040014 107.6249992 118.2229978  73.4020014
 108.7219992 119.1959978  71.6580014 108.2279992 120.1899978  71.6980014
 109.7829992 119.4099978  71.4060014 108.2779992 118.3329978  70.4490014
 108.7019992 118.6729978  69.4800014 108.6699992 117.2989978  70.5580014
 106.6719992 118.2879978  70.3440014 106.3949992 117.5209978  69.5900014
 106.3329992 118.0719978  71.3800014 106.0589992 119.5659978  69.8850014
 106.4049992 120.4129978  70.5140014 106.3709992 119.8669978  68.8620014
 104.4989992 119.4249978  69.7770014 104.1499992 118.5579978  69.1770014
 104.1809992 119.2239978  70.8220014 103.9209992 120.7549978  69.3330014
 103.6399992 121.7739978  69.9600014 103.8539992 120.5259978  68.0200014
 103.4069992 121.6869978  67.2080014 102.4679992 121.4409978  66.6680014
 103.2769992 122.6409978  67.7630014 104.4769992 122.0649978  66.1660014
 104.1529992 122.8979978  65.5070014 104.8039992 120.9019978  65.2550014
 105.7279992 120.3389978  65.5050014 103.9539992 120.1879978  65.2950014
 105.0339992 121.3419978  63.9400014 106.2699992 121.9889978  63.3010014
 107.5059992 121.2959978  64.0330014 108.8249992 121.8499978  63.8650014
 109.1979992 121.7379978  62.8250014 108.8979992 122.9539978  63.9720014
 109.8289992 121.1989978  64.8530014 110.7969992 121.6689978  64.7620014
 109.5149992 121.5109978  65.8370014 110.0399992 119.6709978  64.8060014
 110.2779992 119.3059978  63.3810014 110.3589992 118.2369978  63.2540014
 109.5689992 119.7079978  62.6730014 111.2019992 119.7519978  63.0440014
 111.2359992 119.2179978  65.5990014 111.9899992 119.9739978  65.4390014
 110.8789992 119.1609978  66.6170014 111.5389992 118.2079978  65.3620014
 108.8179992 118.8799978  65.2650014 108.8419992 117.8299978  65.0140014
 108.0799992 119.2569978  64.5730014 108.7069992 119.0719978  66.3220014
 106.3429992 121.6219978  61.8480014 106.3239992 123.4259978  63.6140014
 105.6609992 122.4349978  66.8890014 105.7799992 123.6799978  67.1080014
 105.0709992 124.6459978  66.8700014 107.1969992 123.9099978  67.7390014
 107.4879992 124.9769978  67.6350014 107.9579992 123.2199978  67.3170014
 107.1279992 123.6799978  69.2280014 106.8329992 122.6239978  69.4100014
 106.2959992 124.3099978  69.6110014 108.3219992 124.0759978  69.9860014
 108.3369992 125.1779978  70.1230014 109.1499992 123.7229978  69.3340014
 108.4819992 123.3489978  71.3930014 109.4899992 123.5129978  71.8310014
 108.2369992 122.2869978  71.1770014 107.4269992 123.7319978  72.3880014
 106.4709992 123.7239978  71.8210014 107.5359992 124.7959978  72.6880014
 107.3949992 122.8099978  73.5950014 108.4089992 122.7709978  74.0480014
 107.3519992 121.7179978  73.3930014 106.2809992 123.1439978  74.6400014
 106.2539992 124.2149978  74.9340014 106.3749992 122.6339978  75.6230014
 104.9329992 122.8759978  74.1310014 104.2429992 123.7089978  73.9320014
 104.2509992 121.7599978  73.8130014 103.2299992 121.7949978  73.4050014
 104.7219992 120.3299978  73.8720014 105.3519992 120.1489978  72.9760014
 103.8419992 119.6589978  73.7720014 105.1529992 119.8799978  75.3090014
 105.9559992 120.5079978  75.7510014 105.6209992 118.8809978  75.1760014
 104.0059992 119.7459978  76.3090014 103.2439992 119.0109978  75.9720014
 103.5909992 120.7739978  76.3830014 104.5579992 119.2709978  77.6260014
 105.1879992 118.3629978  77.5090014 103.6029992 119.0349978  78.1420014
 105.3939992 120.2339978  78.3970014 106.1829992 120.6499978  77.7330014
 105.9939992 119.7249978  79.1810014 104.6299992 121.4049978  79.0460014
 103.7519992 121.6679978  78.4180014 105.3409992 122.2509978  79.1530014
 104.0009992 121.1079978  80.4560014 104.9459992 120.9329978  81.0140014
 103.3859992 120.1839978  80.4900014 103.1929992 122.2509978  81.0440014
 103.7519992 123.2009978  80.9050014 103.0479992 122.1139978  82.1370014
 102.1749992 122.2289978  80.5980014 103.4929992  24.9639978  82.9200014
 104.5529992  25.1179978  82.6250014 103.3419992  25.4629978  83.9010014
 102.9049992  25.4309978  82.1010014 103.3869992  23.4629978  83.0420014
 103.6889992  23.2149978  84.0830014 102.3039992  23.2279978  82.9720014
 104.2709992  22.5509978  82.1730014 104.0809992  21.4899978  82.4390014
 103.8179992  22.7439978  81.1770014 105.7409992  22.6869978  82.0180014
 106.0359992  23.7389978  81.8160014 106.2049992  22.3149978  82.9560014
 106.1759992  21.7479978  80.8340014 106.4879992  20.7709978  81.2610014
 105.3429992  21.6799978  80.1030014 107.3269992  22.1579978  79.9250014
 107.3229992  23.2689978  79.9290014 108.3299992  21.8189978  80.2620014
 107.2239992  21.5169978  78.5110014 106.1869992  21.7169978  78.1670014
 107.8779992  22.0359978  77.7780014 107.3559992  20.0449978  78.5140014
 108.2949992  19.7339978  79.0210014 106.5139992  19.6519978  79.1230014
 107.3149992  19.5819978  77.1060014 106.3819992  19.9889978  76.6610014
 108.1749992  19.8959978  76.4770014 107.2469992  18.0849978  76.9210014
 107.9039992  17.4989978  77.5980014 106.2129992  17.6909978  77.0210014
 107.6569992  17.6499978  75.4740014 108.7579992  17.6709978  75.3260014
 107.3939992  16.5839978  75.3020014 107.0109992  18.4959978  74.3550014
 105.9009992  18.5519978  74.3720014 107.4929992  19.4969978  74.3530014
 107.2889992  17.8409978  73.0810014 108.0879992  17.0779978  73.1990014
 106.3939992  17.2899978  72.7210014 107.7499992  18.8479978  71.9710014
 107.0009992  19.6689978  71.9690014 108.7379992  19.2819978  72.2340014
 107.9729992  18.2959978  70.5600014 108.1889992  19.1559978  69.8910014
 108.8889992  17.6659978  70.5450014 106.8329992  17.4369978  69.9670014
 106.8439992  16.2069978  69.7980014 106.0489992  18.3099978  69.4120014
 105.0919992  17.7549978  68.5180014 105.5639992  17.0839978  67.7690014
 104.2379992  17.2409978  69.0100014 104.4719992  19.0129978  67.8580014
 103.7829992  18.6939978  67.0470014 105.4839992  20.0169978  67.2380014
 105.9539992  20.7149978  67.9630014 106.3509992  19.4669978  66.8140014
 104.7799992  20.6949978  66.2290014 105.6099992  21.8709978  65.4970014
 104.5729992  22.1489978  64.2320014 103.3009992  21.5989978  64.1540014
 102.6819992  21.8479978  65.0420014 102.8149992  22.1539978  63.3230014
 103.3529992  19.9999978  63.8410014 103.6679992  19.3529978  64.6470014
 102.3189992  19.6959978  63.9140014 104.0919992  19.4379978  62.5540014
 103.3909992  18.2149978  62.0470014 103.9799992  17.5889978  61.3930014
 103.3719992  17.5759978  62.9170014 102.3839992  18.2419978  61.6570014
 103.9079992  20.5589978  61.5030014 104.4569992  20.1549978  60.6650014
 102.8639992  20.6769978  61.2550014 104.2569992  21.4619978  61.9830014
 105.5399992  19.1429978  63.0260014 105.7559992  19.9119978  63.7520014
 106.2459992  18.9699978  62.2270014 105.5689992  18.2269978  63.5990014
 105.5789992  22.9709978  66.4470014 106.8359992  21.3829978  64.9780014
 103.6789992  19.7049978  68.7630014 102.5849992  19.2889978  69.2790014
 101.8659992  18.3669978  68.9320014 102.2989992  20.0739978  70.5450014
 101.2349992  19.9299978  70.8300014 102.4109992  21.1729978  70.4230014
 103.2839992  19.6349978  71.7090014 104.3139992  19.9029978  71.3880014
 103.2099992  18.5409978  71.8890014 102.9019992  20.3209978  73.0330014
 101.8259992  20.0559978  73.1120014 102.9639992  21.4299978  73.0080014
 103.6189992  19.8139978  74.2210014 104.6839992  20.1289978  74.1980014
 103.5149992  18.7109978  74.1410014 103.0249992  20.3349978  75.5200014
 103.2529992  19.5329978  76.2530014 101.9209992  20.3159978  75.3940014
 103.5249992  21.7879978  75.7960014 103.2219992  22.4409978  74.9500014
 104.6359992  21.7729978  75.7720014 103.0009992  22.5639978  77.0800014
 103.4429992  23.5709978  76.9200014 103.5789992  22.1719978  77.9440014
 101.5269992  22.4669978  77.2200014 100.9399992  22.7059978  76.3210014
 100.8939992  22.0659978  78.3240014  99.8119992  21.9009978  78.2150014
 101.4019992  21.6609978  79.6840014 100.6399992  21.7759978  80.4850014
 102.2069992  22.4239978  79.7390014 102.0019992  20.2269978  79.9070014
 102.6549992  20.2939978  80.8040014 102.6669992  20.1039978  79.0260014
 100.9279992  19.0929978  79.9820014 100.1489992  19.1849978  79.1950014
 100.4469992  19.1909978  80.9790014 101.6779992  17.7949978  79.9750014
 102.3179992  17.6439978  79.0790014 100.9499992  16.9569978  79.9120014
 102.5179992  17.4089978  81.1050014 102.9309992  18.3269978  81.5750014
 103.4319992  16.8179978  80.8830014 101.6909992  16.5569978  82.0920014
 101.4109992  15.6169978  81.5700014 100.7089992  17.0369978  82.2910014
 102.4199992  16.1859978  83.3740014 103.4189992  15.7389978  83.1830014
 101.8039992  15.4699978  83.9600014 102.8179992  17.4149978  84.2290014
 101.9699992  18.0099978  84.6300014 103.4489992  18.1139978  83.6390014
 103.4539992  17.1869978  85.1110014  16.0589992  46.6859978  84.8710014
  16.7169992  47.1209978  84.0900014  16.6519992  46.5979978  85.8060014
  15.2939992  47.4549978  85.1160014  15.2299992  45.4529978  84.4510014
  15.8509992  44.5439978  84.6030014  14.4409992  45.3459978  85.2260014
  14.5149992  45.4269978  83.1300014  13.9969992  46.4049978  83.0320014
  15.2109992  45.4599978  82.2650014  13.3259992  44.4759978  83.0770014
  12.6899992  44.4739978  83.9880014  12.6469992  44.7319978  82.2360014
  13.6979992  42.9899978  83.0770014  14.4269992  42.7609978  83.8840014
  12.7499992  42.4099978  83.0880014  14.4799992  42.5269978  81.7800014
  15.5149992  42.9289978  81.8000014  14.6249992  41.4309978  81.8890014
  13.7179992  42.8799978  80.4870014  12.7319992  42.3679978  80.4690014
  13.7279992  43.9899978  80.5130014  14.4069992  42.4849978  79.1290014
  15.4809992  42.7399978  79.2570014  14.3699992  41.3799978  79.0220014
  13.7589992  43.0829978  77.9710014  12.6989992  42.7589978  77.8990014
  13.8809992  44.1849978  78.0380014  14.4269992  42.6179978  76.6400014
  14.5229992  43.4419978  75.9020014  15.4849992  42.3199978  76.8020014
  13.8099992  41.3459978  75.9990014  13.5279992  40.7649978  76.9030014
  12.8789992  41.6689978  75.4870014  14.7799992  40.4789978  75.2050014
  15.6919992  40.4129978  75.8360014  14.3259992  39.4749978  75.0620014
  15.2209992  41.1339978  73.9240014  15.4989992  42.1819978  74.1630014
  16.1609992  40.6009978  73.6680014  14.3829992  40.9299978  72.6230014
  14.4499992  39.8669978  72.3060014  13.3069992  41.1229978  72.8200014
  14.8079992  41.9149978  71.5030014  14.7519992  42.9909978  71.7710014
  15.8569992  41.6069978  71.3060014  13.9869992  41.5879978  70.3260014
  13.2179992  40.6549978  70.2870014  14.3549992  42.3999978  69.2490014
  13.6259992  42.1849978  68.0440014  13.4449992  41.0919978  67.9530014
  12.6689992  42.7339978  68.1720014  14.4009992  42.7249978  66.7980014
  13.7869992  42.5689978  65.8860014  15.6859992  41.9009978  66.8020014
  16.2549992  42.0729978  67.7410014  15.4649992  40.8219978  66.9500014
  16.4029992  42.0839978  65.6260014  17.7659992  42.8899978  65.5630014
  17.4989992  44.1829978  64.5950014  16.4849992  44.1889978  63.6120014
  16.5229992  43.1849978  63.1370014  15.5379992  44.4779978  64.1160014
  16.7059992  45.2729978  62.5960014  16.6639992  44.8759978  61.5920014
  15.8319992  45.8919978  62.7300014  17.9589992  46.1629978  62.6730014
  19.2229992  45.3319978  62.7080014  19.9739992  46.0669978  62.9590014
  19.1949992  44.6849978  63.5720014  19.4239992  44.8219978  61.7780014
  17.8849992  46.9219978  61.3840014  17.9889992  46.1859978  60.6000014
  16.9749992  47.4999978  61.3140014  18.7539992  47.5579978  61.4580014
  17.9049992  47.1139978  63.8550014  17.1509992  47.8689978  63.6860014
  18.8389992  47.6179978  64.0560014  17.7629992  46.4729978  64.7120014
  18.1229992  43.4479978  66.9210014  18.8529992  42.0909978  64.9740014
  14.7669992  44.1109978  66.9470014  13.8049992  45.0389978  66.9200014
  12.6409992  44.8779978  66.7170014  14.3849992  46.3699978  67.3050014
  14.4849992  46.3119978  68.4100014  13.7159992  47.1879978  66.9620014
  15.8879992  46.5729978  66.8010014  15.8689992  46.5849978  65.6900014
  16.5609992  45.7669978  67.1630014  16.4559992  47.9449978  67.2010014
  15.8599992  48.7229978  66.6780014  17.4229992  48.0159978  66.6580014
  16.4889992  48.2469978  68.7040014  15.5409992  48.5829978  69.1780014
  17.0469992  49.2029978  68.7950014  17.0899992  47.0909978  69.6150014
  16.6499992  46.0779978  69.4930014  16.9949992  47.2069978  70.7160014
  18.6439992  46.9409978  69.4350014  19.1859992  47.8709978  69.1580014
  18.7759992  46.2649978  68.5640014  19.4319992  46.3509978  70.5960014
  19.3109992  47.0609978  71.4420014  20.5089992  46.3809978  70.3280014
  18.8649992  45.0089978  71.0140014  19.2039992  44.2669978  70.2750014
  18.1479992  44.5529978  72.0380014  17.7609992  43.5409978  71.8470014
  17.6459992  45.3479978  73.2470014  16.5529992  45.5319978  73.1660014
  18.1569992  46.3349978  73.2470014  17.7479992  44.5939978  74.5880014
  17.1289992  43.6719978  74.5990014  17.3599992  45.3809978  75.2700014
  19.2139992  44.3919978  75.0790014  19.7879992  45.3419978  75.1140014
  19.7079992  43.6529978  74.4120014  19.1509992  43.8799978  76.6070014
  20.1829992  43.4879978  76.7280014  18.4199992  43.0679978  76.8090014
  18.9249992  44.9369978  77.7290014  17.8629992  45.2499978  77.6350014
  19.6619992  45.7679978  77.7390014  18.8679992  44.2579978  79.1640014
  19.7339992  43.5639978  79.1910014  17.9909992  43.5889978  79.2930014
  18.8369992  45.3089978  80.2510014  17.9099992  45.8779978  80.0290014
  19.7979992  45.8669978  80.2410014  18.6229992  44.6799978  81.6580014
  18.1059992  45.2669978  82.4460014  19.6189992  44.1979978  81.7650014
  17.8389992  43.9249978  81.4340014 119.3589992 113.5829978  80.8360014
 120.3009992 113.0449978  80.5960014 119.1339992 113.4879978  81.9200014
 119.5159992 114.6619978  80.6240014 118.1989992 113.0629978  80.0000014
 118.4009992 113.1839978  78.9140014 118.0559992 111.9759978  80.1770014
 116.8799992 113.6669978  80.4510014 116.0749992 113.3539978  79.7520014
 116.6159992 113.3939978  81.4950014 116.7719992 115.2219978  80.2780014
 115.9339992 115.6929978  80.8350014 117.6929992 115.7139978  80.6580014
 116.8439992 115.6819978  78.8230014 117.7869992 115.2499978  78.4260014
 115.9639992 115.2269978  78.3200014 117.0759992 117.1719978  78.6300014
 117.9359992 117.5359978  79.2330014 117.5109992 117.3509978  77.6240014
 115.8829992 118.1029978  78.8510014 114.8769992 117.7669978  78.5200014
 115.9319992 118.2989978  79.9430014 116.0129992 119.5319978  78.1690014
 114.9989992 119.9649978  78.3060014 116.7119992 120.1509978  78.7720014
 116.5159992 119.6619978  76.6640014 117.5699992 119.3269978  76.7730014
 115.9229992 118.9469978  76.0540014 116.4109992 121.0639978  76.1990014
 115.3949992 121.4559978  76.4170014 117.1849992 121.6669978  76.7220014
 116.5079992 121.3529978  74.7130014 115.9229992 120.5429978  74.2280014
 116.0699992 122.3389978  74.4490014 117.9749992 121.2719978  74.3030014
 118.4319992 122.2519978  74.5560014 118.4319992 120.4429978  74.8860014
 118.1589992 120.9439978  72.8290014 117.5309992 121.6699978  72.2700014
 119.2319992 121.0179978  72.5510014 117.6639992 119.5509978  72.4970014
 118.1239992 118.9009978  73.2710014 116.5709992 119.6209978  72.6810014
 118.0139992 119.0459978  71.1010014 117.5979992 119.7649978  70.3630014
 119.1229992 118.9869978  71.0960014 117.4049992 117.7029978  70.8800014
 116.5679992 117.1459978  71.5240014 117.8959992 117.2469978  69.7520014
 117.4269992 116.0189978  69.2090014 118.2529992 115.3319978  68.9260014
 116.7389992 115.5009978  69.9100014 116.7229992 116.3439978  67.8130014
 116.4149992 115.3459978  67.4340014 117.8129992 116.9629978  66.9090014
 118.6229992 117.2349978  67.6190014 118.0519992 116.2259978  66.1130014
 117.4009992 118.2699978  66.4440014 117.2009992 118.3859978  64.8460014
 115.7629992 117.7589978  64.8440014 114.7539992 117.9389978  63.9310014
 113.7619992 117.8079978  64.4160014 114.7589992 118.9409978  63.4500014
 114.9239992 116.8939978  62.7390014 114.1909992 117.0299978  61.9580014
 115.9669992 117.0459978  62.5010014 114.8879992 115.4469978  63.1440014
 113.7519992 115.1319978  64.1160014 112.8509992 115.6029978  63.7510014
 113.6049992 114.0639978  64.1790014 114.0319992 115.6489978  65.0220014
 114.8099992 114.5929978  61.8990014 115.6339992 114.8339978  61.2440014
 114.8019992 113.5269978  62.0700014 113.8549992 114.8319978  61.4530014
 116.2259992 115.1009978  63.8350014 116.3119992 115.6759978  64.7450014
 117.0809992 115.3889978  63.2400014 116.1449992 114.0319978  63.9650014
 117.1589992 119.8479978  64.5900014 118.2399992 117.6429978  64.1180014
 115.5909992 117.2809978  68.0480014 114.5569992 116.7699978  68.5450014
 114.3249992 115.6449978  68.8550014 113.4449992 117.7519978  68.4670014
 112.4889992 117.1939978  68.5620014 113.5189992 118.2769978  67.4910014
 113.6319992 118.8899978  69.4350014 112.8549992 119.6809978  69.3770014
 114.6749992 119.2419978  69.2870014 113.3369992 118.4219978  70.9110014
 113.9579992 117.5379978  71.1710014 112.3199992 117.9829978  71.0040014
 113.3629992 119.5989978  71.9750014 112.5299992 120.3129978  71.7990014
 114.2779992 120.1919978  71.7600014 113.4959992 119.1559978  73.4710014
 113.4299992 120.0649978  74.1080014 114.5169992 118.7689978  73.6750014
 112.5479992 117.9909978  73.9470014 112.8139992 117.0559978  73.4100014
 111.4929992 118.1289978  73.6280014 112.5409992 117.8079978  75.4940014
 112.1169992 118.7009978  76.0020014 113.5969992 117.6649978  75.8090014
 111.7389992 116.5439978  75.9340014 111.4879992 115.7559978  75.2080014
 111.3929992 116.2529978  77.2490014 110.8519992 115.3319978  77.5100014
 111.7399992 117.1289978  78.3790014 111.3699992 118.1469978  78.1310014
 112.8329992 117.3169978  78.4380014 110.9959992 116.7069978  79.6950014
 111.5569992 115.8199978  80.0580014 109.9159992 116.4459978  79.6650014
 111.0309992 117.6899978  80.8690014 110.6519992 117.1689978  81.7750014
 110.3359992 118.5329978  80.6730014 112.4529992 118.1919978  81.2540014
 112.6319992 118.9659978  80.4780014 113.2479992 117.4179978  81.3100014
 112.4619992 118.8269978  82.6890014 113.2589992 118.3419978  83.2930014
 111.5379992 118.5329978  83.2310014 112.5859992 120.3579978  82.6700014
 111.7159992 120.7329978  82.0890014 113.5639992 120.6629978  82.2400014
 112.6219992 121.1009978  84.0480014 111.6679992 121.0019978  84.6090014
 112.7809992 122.1779978  83.8240014 113.6599992 120.5649978  85.0020014
 114.6929992 120.5739978  84.5950014 113.3599992 119.5659978  85.3870014
 113.7049992 121.2189978  85.8990014  97.9569992  17.0169978  84.0120014
  98.6369992  16.5909978  83.2430014  97.8369992  16.2569978  84.8140014
  98.5589992  17.8289978  84.4730014  96.6299992  17.4389978  83.4160014
  96.0229992  16.5769978  83.0650014  96.0479992  17.7979978  84.2910014
  96.7719992  18.6039978  82.4490014  95.7829992  18.9969978  82.1300014
  97.2519992  19.5089978  82.8780014  97.4679992  18.2129978  81.0830014
  98.0829992  18.9989978  80.5960014  98.2639992  17.4709978  81.3110014
  96.4659992  17.6559978  80.0480014  95.6959992  16.9469978  80.4180014
  95.8299992  18.4809978  79.6630014  97.1199992  16.8459978  78.8160014
  98.2039992  17.0789978  78.8870014  97.0109992  15.7619978  79.0320014
  96.5819992  17.4549978  77.5810014  96.5679992  18.5479978  77.7760014
  97.2339992  17.1839978  76.7230014  95.1549992  16.9279978  77.1690014
  94.6509992  17.0039978  78.1560014  94.7729992  17.6989978  76.4660014
  94.9739992  15.5049978  76.6400014  95.2669992  14.6699978  77.3120014
  93.8759992  15.3459978  76.5820014  95.5539992  15.3579978  75.2210014
  95.3089992  16.2789978  74.6500014  96.6389992  15.2079978  75.4030014
  95.0029992  14.0889978  74.5300014  95.5019992  13.2099978  74.9910014
  93.9199992  13.9289978  74.7200014  95.1959992  13.9209978  72.9970014
  94.5979992  14.7169978  72.5050014  96.2919992  14.0489978  72.8710014
  94.6559992  12.6179978  72.5390014  95.4609992  11.8549978  72.6100014
  93.8139992  12.1889978  73.1240014  94.3019992  12.5739978  71.0420014
  95.2629992  12.9029978  70.5910014  94.0859992  11.5099978  70.8060014
  93.1489992  13.5309978  70.6110014  92.1619992  13.0869978  70.8640014
  93.3239992  14.5459978  71.0260014  93.1579992  13.5769978  69.0370014
  93.4559992  12.6339978  68.2920014  92.7539992  14.7849978  68.5510014
  93.0889992  15.0689978  67.2120014  93.0009992  14.1899978  66.5370014
  92.3429992  15.7639978  66.7720014  94.4979992  15.5719978  66.9440014
  94.5209992  16.6509978  67.2050014  94.8349992  15.5889978  65.4580014
  93.9499992  15.8839978  64.8550014  95.6699992  16.2849978  65.2240014
  95.1019992  14.2079978  65.1050014  95.6549992  13.7489978  63.7050014
  96.9879992  14.6189978  63.4530014  97.9939992  14.2949978  64.3220014
  97.8529992  14.4929978  65.4060014  98.3369992  13.2479978  64.1800014
  99.1309992  15.3229978  63.9530014  99.9529992  14.9789978  64.5640014
  99.4379992  15.2829978  62.9180014  98.9149992  16.7979978  64.2700014
  98.0649992  17.4799978  63.2380014  98.7019992  17.3199978  62.3800014
  97.1679992  16.8919978  63.1090014  97.9419992  18.5509978  63.3020014
  98.2519992  16.9439978  65.6400014  98.1549992  18.0129978  65.7570014
  97.2829992  16.4669978  65.6640014  98.8139992  16.4159978  66.3970014
 100.3079992  17.4589978  64.3810014 100.6969992  17.5229978  63.3760014
 100.8419992  16.7779978  65.0270014 100.1259992  18.4529978  64.7620014
  96.0499992  12.3159978  63.7180014  94.5909992  14.0589978  62.7210014
  95.3579992  14.6419978  67.6640014  96.4929992  15.2189978  68.2240014
  96.5429992  16.4129978  68.4360014  97.4989992  14.2049978  68.7160014
  97.6349992  13.3649978  68.0000014  97.2209992  13.9839978  69.7680014
  98.9229992  14.8539978  68.8570014  99.0649992  15.5969978  69.6700014
  99.0569992  15.2829978  67.8410014  99.9999992  13.8159978  69.0290014
 100.8899992  14.2089978  68.4930014  99.7779992  12.8329978  68.5610014
 100.4689992  13.5169978  70.5290014 101.0949992  14.3809978  70.8370014
 101.0169992  12.5669978  70.7110014  99.3849992  13.5439978  71.6420014
  98.7289992  12.6529978  71.5480014  98.7409992  14.4469978  71.5810014
 100.1179992  13.5999978  73.0220014 100.7179992  14.5339978  73.0690014
 100.8279992  12.7449978  73.0410014  99.1389992  13.4829978  74.1940014
  98.4789992  14.3709978  74.0950014  99.5609992  13.4999978  75.2210014
  98.3159992  12.1809978  74.0570014  97.5629992  12.2429978  73.2580014
  98.2759992  11.0729978  74.8190014  97.5429992  10.2889978  74.5800014
  99.1159992  10.8719978  76.0310014  99.9079992  11.6429978  76.1410014
  99.6579992   9.9039978  75.9740014  98.3079992  10.7799978  77.3470014
  99.2029992  10.8529978  78.0010014  97.7519992   9.8319978  77.5120014
  97.2879992  11.8979978  77.5630014  96.4289992  11.9089978  76.8590014
  97.8559992  12.8519978  77.5260014  96.7659992  11.9489978  79.0050014
  96.4059992  10.9359978  79.2830014  95.9029992  12.6409978  79.1010014
  97.8309992  12.3969978  80.0020014  98.4199992  13.2609978  79.6250014
  98.5159992  11.5229978  80.0310014  97.1849992  12.5579978  81.4270014
  96.3799992  11.7989978  81.5330014  96.6499992  13.5279978  81.3480014
  98.1279992  12.5309978  82.5950014  98.9639992  13.2579978  82.5040014
  98.6209992  11.5399978  82.6920014  97.4309992  12.8349978  84.0150014
  96.8849992  13.7979978  84.1150014  98.1939992  12.7849978  84.8210014
  96.6419992  12.0669978  84.1610014 101.0099992 120.8539978  81.4810014
 101.3039992 120.1419978  82.2820014 101.3269992 120.5239978  80.4680014
  99.9099992 120.7029978  81.4450014 101.4359992 122.4089978  81.5640014
 101.2839992 122.8199978  82.5850014 102.5399992 122.5069978  81.4860014
 100.7719992 123.2119978  80.4890014  99.6739992 123.1329978  80.6350014
 100.8919992 124.3159978  80.5260014 101.1939992 122.7489978  79.0210014
 102.1729992 122.2259978  78.9750014 100.3879992 121.9999978  78.8660014
 101.3069992 123.8549978  77.9710014 101.4969992 123.3939978  76.9780014
 100.2759992 124.1609978  77.6920014 102.4519992 124.9109978  78.2530014
 102.3279992 125.2729978  79.2960014 103.4379992 124.4039978  78.1850014
 102.5019992 126.1009978  77.3250014 101.6589992 126.8099978  77.4710014
 103.4489992 126.6269978  77.5720014 102.6359992 125.7849978  75.8190014
 103.6219992 125.2929978  75.6780014 101.7749992 125.1619978  75.4940014
 102.7479992 127.0889978  75.0650014 101.7419992 127.4939978  74.8230014
 103.4449992 127.8399978  75.4950014 103.4939992 126.9369978  73.7430014
 104.5209992 126.5859978  73.9810014 103.0389992 126.0749978  73.2080014
 103.5779992 128.1999978  72.8950014 104.3189992 128.7999978  73.4660014
 104.0789992 128.0369978  71.9170014 102.2069992 128.9159978  72.6260014
 101.6369992 128.1389978  72.0730014 101.7319992 129.1879978  73.5930014
 102.4289992 130.2579978  71.7490014 103.1169992 130.8279978  72.4100014
 102.9339992 129.9969978  70.7950014 101.0699992 130.9529978  71.4550014
 100.6549992 131.1819978  72.4600014 101.2659992 131.9049978  70.9170014
 100.1419992 130.0839978  70.6870014  99.8659992 129.1089978  71.1430014
  99.1599992 130.5989978  70.6230014 100.5969992 129.9069978  69.1820014
 101.4219992 130.6679978  68.6760014 100.0649992 128.8039978  68.5060014
 100.2129992 128.8199978  67.0850014  99.3209992 128.3919978  66.5790014
 100.3459992 129.8419978  66.6700014 101.4339992 127.9589978  66.6090014
 102.4249992 128.4189978  66.8110014 101.3179992 127.8229978  65.0090014
 100.2229992 127.8329978  64.8190014 101.8429992 128.7349978  64.6520014
 101.9649992 126.6149978  64.5510014 101.8009992 126.2129978  63.0510014
 101.1259992 124.7909978  62.9830014 101.2829992 123.9079978  64.0800014
 101.1699992 122.8659978  63.7130014 102.3219992 124.0329978  64.4530014
 100.3649992 124.2239978  65.2930014 100.5109992 123.5229978  66.1020014
 100.7219992 125.1709978  65.6720014  98.8649992 124.2769978  64.9790014
  98.2999992 123.0869978  64.2710014  98.9539992 122.9769978  63.4180014
  98.1209992 122.2019978  64.8630014  97.3269992 123.3789978  63.9050014
  98.0999992 124.4189978  66.3400014  98.5679992 125.2059978  66.9130014
  97.0789992 124.5679978  66.0220014  98.1999992 123.4989978  66.8960014
  98.5399992 125.4999978  64.0990014  99.1549992 126.3099978  64.4640014
  97.5149992 125.8069978  64.2420014  98.7389992 125.2789978  63.0610014
 100.8379992 127.1379978  62.4180014 103.1959992 126.0399978  62.4410014
 101.4039992 126.6009978  67.1520014 102.0739992 126.3109978  68.2020014
 102.8419992 127.0739978  68.7650014 101.8179992 124.8459978  68.5690014
 102.5479992 124.1649978  68.0800014 100.8129992 124.4579978  68.2990014
 102.0369992 124.6499978  70.0810014 101.4629992 125.4519978  70.5920014
 103.1349992 124.7129978  70.2400014 101.5329992 123.1899978  70.4230014
 102.1969992 122.5099978  69.8470014 100.5669992 123.1849978  69.8750014
 101.3279992 122.7919978  71.9020014 102.3219992 122.7789978  72.4000014
 101.0679992 121.7169978  71.8000014 100.3579992 123.5209978  72.6840014
 100.2999992 124.6169978  72.5090014 100.5739992 123.3419978  73.7590014
  98.9339992 122.8059978  72.6200014  99.1849992 121.7889978  72.9920014
  98.5179992 122.6719978  71.5990014  97.8059992 123.4049978  73.5300014
  98.1969992 123.4489978  74.5690014  96.9469992 122.7009978  73.4790014
  97.3689992 124.7359978  72.9990014  97.3069992 124.7789978  71.9020014
  97.3529992 125.9729978  73.5600014  97.0329992 126.8139978  72.9270014
  97.8559992 126.2889978  74.9180014  98.5239992 127.1669978  74.7840014
  98.5249992 125.4409978  75.1770014  96.6719992 126.4739978  75.9400014
  95.9639992 125.6239978  75.8470014  96.1349992 127.4299978  75.7620014
  97.0449992 126.5749978  77.4400014  97.3939992 125.5619978  77.7320014
  96.0949992 126.7929978  77.9750014  98.1869992 127.6169978  77.7200014
  97.9339992 128.4849978  77.0740014  99.1089992 127.0269978  77.5300014
  98.3869992 128.1309978  79.0920014  98.3599992 127.2489978  79.7660014
  97.4519992 128.7019978  79.2750014  99.6789992 128.9409978  79.3950014
  99.6489992 129.7569978  78.6420014 100.5899992 128.3299978  79.2180014
  99.8879992 129.4159978  80.8780014 100.8329992 129.9989978  80.9110014
  99.9409992 128.4489978  81.4210014  98.7259992 130.1899978  81.5080014
  98.5969992 131.2309978  81.1410014  98.8909992 130.4369978  82.5790014
  97.7669992 129.6319978  81.4580014  59.2989992  15.8129978  83.8640014
  59.8719992  16.7299978  83.6060014  60.0339992  14.9979978  84.0360014
  58.7219992  15.9419978  84.8040014  58.3869992  15.5249978  82.6810014
  58.2339992  14.4309978  82.5550014  57.3679992  15.9439978  82.8260014
  58.8829992  16.0099978  81.2560014  58.1089992  16.6329978  80.7580014
  59.7599992  16.6639978  81.4490014  59.1989992  14.7809978  80.4010014
  60.1269992  14.2729978  80.7380014  58.3399992  14.0849978  80.2910014
  59.5869992  15.2209978  78.9510014  58.7129992  15.8419978  78.6600014
  60.4159992  15.9519978  79.0650014  59.7669992  14.0969978  77.8870014
  60.4929992  13.3509978  78.2750014  58.7739992  13.7619978  77.5190014
  60.4719992  14.5889978  76.6540014  59.8309992  15.3119978  76.1050014
  61.3619992  15.1989978  76.9190014  60.8689992  13.3769978  75.6740014
  61.6149992  12.6529978  76.0650014  59.9819992  12.7479978  75.4460014
  61.4759992  14.0889978  74.3330014  60.8849992  15.0029978  74.1080014
  62.5309992  14.2689978  74.6310014  61.6749992  13.1779978  73.1370014
  62.3639992  12.3529978  73.4150014  60.6649992  12.7589978  72.9400014
  62.3009992  13.8889978  71.9050014  62.4979992  14.9559978  72.1440014
  63.3259992  13.4829978  71.7610014  61.4059992  13.7889978  70.5880014
  60.9929992  12.7679978  70.4430014  60.5709992  14.4979978  70.7760014
  62.1319992  14.4109978  69.3590014  62.1909992  15.4869978  69.6290014
  63.1709992  14.0199978  69.3290014  61.4149992  14.0949978  67.9960014
  60.4019992  14.5029978  68.2000014  61.8449992  14.7989978  67.2510014
  61.3749992  12.6509978  67.5220014  62.3819992  12.2679978  67.2540014
  60.9509992  12.0009978  68.3180014  60.3879992  12.8209978  66.3330014
  60.7979992  13.1939978  65.2310014  59.1519992  12.4509978  66.7240014
  58.0509992  12.5569978  65.8420014  58.3599992  13.1779978  64.9740014
  57.6099992  11.5939978  65.5070014  56.7739992  13.3809978  66.4690014
  56.1379992  12.5869978  66.9150014  55.9729992  13.9659978  65.3670014
  55.6599992  13.2709978  64.5590014  55.0249992  14.3979978  65.7520014
  56.5909992  15.0619978  64.7830014  56.3789992  15.3609978  63.2300014
  57.5369992  16.4389978  62.9670014  58.8459992  15.8989978  63.0840014
  59.0159992  14.8219978  62.8720014  59.4279992  16.3939978  62.2780014
  59.4579992  16.1859978  64.5120014  58.8239992  15.6889978  65.2310014
  60.3519992  15.5969978  64.3650014  59.8079992  17.5679978  64.9710014
  60.7509992  18.1989978  63.9910014  61.7539992  17.8069978  64.0770014
  60.3519992  18.1329978  62.9900014  60.9119992  19.2579978  64.1290014
  58.5469992  18.4739978  65.1690014  58.0809992  18.3439978  66.1350014
  58.8469992  19.5109978  65.1480014  57.7529992  18.2389978  64.4760014
  60.4279992  17.4369978  66.3170014  60.8259992  18.3879978  66.6400014
  61.1879992  16.6699978  66.3250014  59.6779992  17.1359978  67.0330014
  56.6879992  14.1509978  62.4550014  55.0799992  16.0029978  63.0270014
  57.3329992  14.2499978  67.4450014  56.5059992  14.4319978  68.5200014
  55.3929992  13.9709978  68.6870014  57.3199992  15.3539978  69.4480014
  58.2049992  14.7429978  69.7290014  56.6759992  15.4849978  70.3440014
  57.7459992  16.6889978  68.7860014  58.1889992  16.4799978  67.7880014
  58.5089992  17.0739978  69.4950014  56.6479992  17.7639978  68.7160014
  55.8419992  17.2939978  68.1120014  56.9529992  18.7169978  68.2330014
  55.8759992  18.2109978  70.0680014  55.1839992  17.3449978  70.1400014
  55.2089992  19.0829978  69.9000014  56.6949992  18.3959978  71.3100014
  57.1979992  19.3759978  71.4530014  57.5909992  17.7429978  71.2510014
  55.9569992  18.2569978  72.6130014  55.0279992  18.8649978  72.5880014
  56.5899992  18.5179978  73.4880014  55.3689992  16.8709978  72.8460014
  54.8259992  16.5039978  71.9490014  54.5309992  17.0509978  73.5530014
  56.4189992  15.9579978  73.2990014  57.1479992  15.7849978  72.4930014
  56.5759992  15.4859978  74.5110014  57.4679992  14.8889978  74.7520014
  55.7009992  15.7619978  75.6660014  54.6199992  15.8839978  75.4430014
  56.0629992  16.6959978  76.1460014  55.7169992  14.7229978  76.8330014
  56.7549992  14.5769978  77.2030014  55.4119992  13.7909978  76.3120014
  54.7189992  14.9139978  78.0200014  53.7129992  15.0899978  77.5810014
  54.9839992  15.9319978  78.3790014  54.6939992  13.7309978  79.0210014
  55.7049992  13.6119978  79.4650014  54.4989992  12.8589978  78.3610014
  53.5209992  13.9139978  79.9890014  53.4659992  13.0759978  80.7160014
  52.5949992  13.9089978  79.3740014  53.4069992  15.2569978  80.7110014
  52.4039992  15.1379978  81.1740014  53.2229992  16.0959978  80.0070014
  54.5719992  15.7759978  81.5080014  55.4239992  16.0229978  80.8400014
  54.9349992  14.9589978  82.1680014  54.2639992  17.0359978  82.3030014
  53.8369992  17.7109978  81.5310014  55.2209992  17.4449978  82.6930014
  53.4989992  16.8869978  83.0950014  26.8669992  30.1799978  84.3750014
  27.6859992  29.4899978  84.0790014  26.1049992  29.8629978  83.6310014
  26.5949992  30.0719978  85.4460014  27.1789992  31.6229978  84.1060014
  26.3279992  32.1379978  84.6000014  28.0859992  31.8869978  84.6900014
  27.2109992  32.0559978  82.6130014  27.6739992  33.0659978  82.6300014
  27.8269992  31.4429978  81.9210014  25.8609992  32.1769978  81.9600014
  25.4179992  31.1599978  81.8950014  25.2869992  32.8029978  82.6750014
  25.8849992  32.9909978  80.6310014  25.5289992  33.9919978  80.9570014
  26.9329992  32.9649978  80.2630014  25.0279992  32.3349978  79.4850014
  25.3329992  31.2869978  79.2800014  23.9959992  32.4869978  79.8690014
  25.1869992  33.2009978  78.2070014  24.8989992  34.2579978  78.3880014
  26.2859992  33.1399978  78.0550014  24.4049992  32.7939978  77.0090014
  23.3599992  32.9549978  77.3500014  24.4299992  33.4759978  76.1320014
  24.8849992  31.3789978  76.5970014  25.2719992  30.8369978  77.4860014
  24.0669992  30.7769978  76.1450014  26.0409992  31.3929978  75.5270014
  26.8369992  32.0659978  75.9110014  26.4079992  30.3439978  75.5290014
  25.5759992  31.8509978  74.1770014  24.6099992  31.4539978  73.7970014
  25.3459992  32.9369978  74.1410014  26.5679992  31.4399978  73.1100014
  26.7649992  30.3469978  73.1480014  26.2599992  31.5839978  72.0530014
  27.8449992  32.2389978  73.3010014  27.6879992  33.3389978  73.2620014
  28.2309992  31.9129978  74.2900014  28.8149992  31.8629978  72.2060014
  29.8119992  32.2359978  72.5230014  28.8959992  30.7649978  72.0530014
  28.6029992  32.6009978  70.8790014  27.5399992  32.5119978  70.5670014
  28.8409992  33.6829978  70.9600014  29.5749992  32.0229978  69.8470014
  30.4289992  32.8029978  69.4490014  29.1479992  30.9379978  69.4180014
  29.9139992  30.2609978  68.4360014  30.2419992  30.9939978  67.6680014
  30.8039992  29.8439978  68.9540014  29.1579992  29.1189978  67.8600014
  29.9779992  28.5429978  67.3820014  28.0389992  29.4779978  66.9190014
  27.8459992  28.7029978  66.1460014  27.0599992  29.4829978  67.4450014
  28.1769992  30.8569978  66.3670014  28.7189992  30.9649978  64.9260014
  27.2909992  31.1449978  64.1380014  26.5659992  32.3769978  64.4280014
  26.1409992  32.3339978  65.4530014  27.2609992  33.2429978  64.3990014
  25.5289992  32.6819978  63.3680014  24.9509992  33.4789978  63.8120014
  25.8749992  33.0499978  62.4140014  24.4549992  31.5879978  63.0200014
  24.0159992  30.9739978  64.3490014  23.2589992  30.2229978  64.1860014
  24.8899992  30.5499978  64.8220014  23.6259992  31.6709978  65.0760014
  23.2289992  32.2389978  62.3950014  22.4129992  31.5439978  62.2630014
  22.9189992  33.0569978  63.0290014  23.5749992  32.7279978  61.4970014
  25.0439992  30.5319978  62.1830014  25.5479992  30.8619978  61.2860014
  24.4789992  29.6339978  61.9800014  25.8639992  30.1119978  62.7470014
  29.4999992  32.1939978  64.8310014  29.4039992  29.7319978  64.5000014
  28.7059992  28.3939978  69.0480014  28.0439992  27.2649978  68.8940014
  27.5499992  26.7609978  67.8990014  27.9699992  26.6029978  70.2490014
  28.9679992  26.1969978  70.5210014  27.2979992  25.7219978  70.1680014
  27.5619992  27.5449978  71.3140014  26.7279992  28.1909978  70.9660014
  28.3449992  28.2979978  71.5480014  27.1689992  26.8689978  72.6670014
  26.3139992  26.2029978  72.4240014  26.8249992  27.7489978  73.2510014
  28.3159992  25.9299978  73.2180014  29.3249992  26.2679978  72.9000014
  28.1559992  24.9309978  72.7580014  28.2959992  25.8389978  74.8130014
  29.1109992  25.1089978  75.0080014  27.3319992  25.4329978  75.1880014
  28.7299992  27.0899978  75.6010014  28.2119992  27.9869978  75.1980014
  29.8129992  27.2179978  75.3870014  28.4359992  27.0389978  77.1020014
  29.0459992  26.2479978  77.5880014  27.3519992  26.8389978  76.9620014
  28.5559992  28.2929978  77.9620014  27.6459992  28.8889978  77.7980014
  29.3469992  28.7429978  78.9470014  29.1959992  29.7449978  79.3750014
  30.5329992  28.0119978  79.4930014  31.3719992  28.7269978  79.6300014
  30.9639992  27.2589978  78.8000014  30.1469992  27.4279978  80.9220014
  31.0289992  26.7679978  81.0660014  29.2219992  26.8249978  80.8010014
  29.8769992  28.3609978  82.1150014  29.8299992  27.6929978  83.0010014
  28.8319992  28.7369978  82.0890014  30.8319992  29.4939978  82.3430014
  30.4669992  30.4089978  81.8300014  31.8309992  29.1749978  81.9740014
  31.0359992  30.0619978  83.7900014  31.4309992  29.1529978  84.2920014
  30.0429992  30.2539978  84.2520014  31.9879992  31.2729978  83.7700014
  31.5699992  32.1709978  83.2680014  32.8389992  30.9759978  83.1200014
  32.4819992  31.6899978  85.1710014  33.2689992  32.4659978  85.0590014
  32.9249992  30.7879978  85.6450014  31.4689992  32.3329978  86.1410014
  31.9279992  33.2889978  86.4720014  31.3749992  31.6819978  87.0360014
  30.4669992  32.4429978  85.6740014   4.8339992  78.7809978  81.9090014
   4.1609992  79.4629978  82.4720014   5.2119992  77.9589978  82.5540014
   4.3769992  78.3329978  81.0010014   6.0209992  79.6229978  81.3870014
   5.5839992  80.4339978  80.7660014   6.4379992  80.0779978  82.3110014
   7.1309992  78.8409978  80.7150014   7.8489992  79.6049978  80.3450014
   7.6169992  78.0369978  81.3070014   6.6459992  78.0359978  79.4760014
   5.7999992  77.3869978  79.7900014   6.2689992  78.7509978  78.7140014
   7.6859992  77.1079978  78.7350014   8.4869992  77.6909978  78.2310014
   8.2819992  76.5519978  79.4890014   7.0119992  76.1489978  77.6810014
   7.9099992  75.6139978  77.3030014   6.3749992  75.3959978  78.1930014
   6.1189992  76.9379978  76.7340014   5.1509992  77.1679978  77.2290014
   6.6389992  77.8829978  76.4650014   5.8579992  76.1819978  75.3900014
   6.6209992  76.4789978  74.6400014   5.8509992  75.0809978  75.5360014
   4.4859992  76.6149978  74.8180014   3.6319992  76.2619978  75.4340014
   4.3119992  77.7049978  74.6910014   4.1499992  75.9989978  73.4690014
   4.1589992  74.8879978  73.4940014   3.1309992  76.3859978  73.2580014
   5.0609992  76.5539978  72.3610014   6.1399992  76.3099978  72.4630014
   4.7599992  75.9809978  71.4580014   4.8609992  78.0629978  72.0900014
   3.8379992  78.4569978  71.9070014   5.0869992  78.5909978  73.0410014
   5.7179992  78.6279978  71.0340014   5.6339992  79.7169978  71.2370014
   6.7459992  78.2799978  71.2750014   5.3249992  78.2409978  69.5860014
   5.2389992  77.1409978  69.4590014   4.2899992  78.5929978  69.3870014
   6.3199992  78.8009978  68.5990014   5.8519992  78.6139978  67.6090014
   6.6499992  79.8569978  68.7000014   7.6839992  78.0489978  68.5700014
   8.2829992  77.5159978  69.4970014   8.2849992  78.1929978  67.3850014
   9.6169992  77.6329978  67.2650014  10.1879992  78.4929978  66.8540014
  10.1389992  77.3279978  68.1970014   9.6489992  76.3989978  66.3820014
  10.6689992  75.9779978  66.2550014   9.2399992  76.7629978  64.9600014
   8.2079992  77.1739978  64.9850014   9.8919992  77.5389978  64.5060014
   9.2669992  75.6049978  64.1500014   8.3959992  75.6679978  62.8360014
   6.8499992  75.7349978  63.2650014   6.3349992  74.4939978  63.8640014
   6.2389992  73.7359978  63.0570014   6.8559992  74.1709978  64.7900014
   4.8729992  74.5609978  64.3710014   4.2149992  74.4619978  63.5210014
   4.6589992  73.6189978  64.8530014   4.4309992  75.7599978  65.2050014
   4.6729992  77.0239978  64.5020014   4.4479992  77.8649978  65.1410014
   5.7069992  77.1059978  64.2000014   3.9289992  77.0549978  63.7190014
   2.9889992  75.7839978  65.5690014   2.8769992  76.7499978  66.0390014
   2.3639992  75.7829978  64.6880014   2.7579992  75.0689978  66.3450014
   5.2719992  75.8829978  66.5230014   5.0599992  75.0399978  67.1630014
   5.0869992  76.8079978  67.0480014   6.3159992  75.8379978  66.2510014
   8.7629992  76.9239978  62.1570014   8.5529992  74.3939978  62.0660014
   8.7359992  75.4699978  67.0060014   8.9569992  74.2249978  67.0470014
  10.0489992  73.7159978  66.8110014   7.7479992  73.4969978  67.6660014
   6.9989992  73.2279978  66.8910014   7.2189992  74.1709978  68.3740014
   8.0479992  72.1949978  68.4490014   8.5159992  71.4699978  67.7500014
   7.0749992  71.7279978  68.7110014   9.0219992  72.3199978  69.6670014
   9.9799992  72.7849978  69.3520014   9.2849992  71.2899978  69.9910014
   8.4899992  73.1659978  70.7890014   7.3799992  73.2109978  70.7530014
   8.7029992  74.2479978  70.6550014   8.9779992  72.7379978  72.1470014
  10.0759992  72.6159978  72.2690014   8.5579992  71.7909978  72.5480014
   8.7589992  73.7459978  73.2750014   8.9719992  73.0869978  74.1450014
   7.6989992  74.0399978  73.4280014   9.6899992  75.0009978  73.3620014
   9.3799992  75.6179978  74.2320014   9.3529992  75.6159978  72.5010014
  11.1909992  74.8799978  73.4190014  11.8729992  75.1669978  72.6050014
  11.8379992  74.4209978  74.5520014  12.9359992  74.3659978  74.5840014
  11.2239992  73.9759978  75.8940014  11.3859992  72.8849978  76.0250014
  10.1219992  74.0549978  76.0080014  11.6759992  74.8699978  77.0530014
  11.6889992  75.9329978  76.7290014  12.7079992  74.5809978  77.3450014
  10.8089992  74.7439978  78.2500014   9.8049992  75.0639978  77.8970014
  11.2379992  75.3759978  79.0570014  10.6329992  73.3759978  78.8030014
  11.6029992  73.0049978  79.1980014  10.3059992  72.6429978  78.0340014
   9.7229992  73.4349978  80.0560014   9.9149992  74.2649978  80.7700014
   9.8599992  72.5779978  80.7500014   8.2199992  73.3229978  79.8510014
   8.0689992  72.2459978  79.6230014   7.8819992  74.1059978  79.1380014
   7.4839992  73.6179978  81.1050014   7.6759992  74.6599978  81.4410014
   7.7019992  72.9939978  81.9980014   6.0049992  73.4469978  80.9730014
   5.6359992  74.1309978  80.1790014   5.4779992  73.9009978  81.8400014
   5.5789992  72.4369978  80.7930014 136.1479992  79.9769978  84.7040014
 135.9909992  78.9949978  85.1990014 135.6139992  80.7639978  85.2780014
 137.2409992  80.1749978  84.7200014 135.6109992  79.7279978  83.3000014
 136.0829992  78.9079978  82.7190014 134.5009992  79.6719978  83.2960014
 135.7829992  80.9649978  82.3450014 135.2139992  81.8919978  82.5680014
 136.8149992  81.3669978  82.4390014 135.6709992  80.7349978  80.8440014
 135.7729992  79.6389978  80.6930014 134.6079992  80.9789978  80.6340014
 136.5489992  81.4389978  79.7840014 136.3979992  82.5339978  79.8950014
 137.5969992  81.2709978  80.1130014 136.1979992  81.1369978  78.2810014
 136.1179992  80.0289978  78.2730014 135.1819992  81.5759978  78.1910014
 137.2099992  81.5829978  77.1770014 138.1409992  81.1099978  77.5570014
 136.8319992  81.0609978  76.2720014 137.3289992  83.0909978  76.9800014
 136.7069992  83.3229978  76.0890014 137.1649992  83.6889978  77.9020014
 138.7169992  83.3679978  76.3510014 138.7829992  84.3759978  75.8880014
 139.4889992  83.3499978  77.1500014 139.0829992  82.2889978  75.2490014
 139.4579992  81.3849978  75.7750014 138.1409992  82.0759978  74.7000014
 140.2359992  82.6449978  74.3260014 141.0479992  83.0239978  74.9830014
 140.6229992  81.6779978  73.9400014 139.9279992  83.4709978  73.1370014
 139.4399992  84.3529978  73.6040014 140.8549992  83.7869978  72.6130014
 139.1189992  82.7659978  72.0260014 139.8219992  82.0449978  71.5570014
 138.2829992  82.2489978  72.5440014 138.5699992  83.6949978  71.0010014
 137.4719992  83.8409978  71.0820014 139.1009992  84.6629978  71.1220014
 138.8949992  83.1949978  69.5410014 139.9119992  82.7549978  69.4690014
 138.1799992  82.3719978  69.3270014 138.7819992  84.3359978  68.5100014
 138.4649992  85.5139978  68.7770014 139.3069992  83.9149978  67.3920014
 139.1519992  84.8019978  66.3250014 139.2869992  85.8819978  66.5480014
 139.9939992  84.5889978  65.6320014 137.7469992  84.5709978  65.6110014
 137.6769992  83.4989978  65.3280014 137.5829992  85.3149978  64.3320014
 137.9089992  86.3659978  64.4830014 138.2659992  84.8049978  63.6190014
 136.2859992  85.5259978  63.7400014 135.5579992  84.3909978  62.9350014
 135.2469992  83.2659978  63.9860014 134.9929992  81.9769978  63.3980014
 134.1889992  81.9449978  62.6320014 135.8859992  81.5299978  62.9110014
 134.7619992  80.8799978  64.4820014 134.7379992  79.9369978  63.9550014
 135.5829992  80.6679978  65.1510014 133.4509992  80.9569978  65.1890014
 132.2939992  81.2009978  64.2300014 132.1929992  80.4649978  63.4460014
 131.3619992  81.2899978  64.7690014 132.5209992  82.1569978  63.7810014
 133.2289992  79.6829978  65.9520014 133.8519992  79.6579978  66.8340014
 132.2039992  79.6579978  66.2900014 133.5099992  78.8629978  65.3070014
 133.5039992  82.1219978  66.2010014 134.1899992  82.0029978  67.0260014
 132.5419992  82.3189978  66.6510014 133.9239992  83.0129978  65.7580014
 134.2069992  84.9059978  62.5400014 136.4909992  83.8279978  61.8550014
 136.7409992  84.9919978  66.4700014 135.9909992  84.0379978  67.1220014
 136.3629992  82.8999978  67.3120014 134.8409992  84.7689978  67.8420014
 133.9029992  84.2359978  67.5770014 134.8089992  85.7959978  67.4210014
 135.0979992  84.6819978  69.3250014 136.1479992  84.9609978  69.5560014
 134.9279992  83.6189978  69.5980014 134.0809992  85.5809978  70.0940014
 134.1139992  86.6099978  69.6750014 134.4639992  85.7029978  71.1290014
 132.7409992  84.9049978  70.1110014 132.9449992  83.9389978  70.6220014
 132.3219992  84.6009978  69.1280014 131.7589992  85.7699978  70.8750014
 130.7449992  85.4479978  70.5550014 131.9459992  86.8319978  70.6070014
 131.8379992  85.6569978  72.4460014 130.9659992  86.1439978  72.9330014
 132.6809992  86.1309978  72.9920014 131.8509992  84.2439978  73.1230014
 131.5989992  83.4309978  72.4080014 131.1259992  84.3159978  73.9620014
 133.2219992  83.9169978  73.6150014 134.0299992  83.8789978  72.8690014
 133.6079992  83.5919978  74.8690014 134.6249992  83.2779978  75.1500014
 132.7689992  83.4559978  76.1020014 132.4769992  82.3839978  76.1400014
 131.7829992  83.9669978  76.1030014 133.3789992  83.7989978  77.4340014
 134.3519992  83.2929978  77.6110014 132.5859992  83.6589978  78.1990014
 133.8529992  85.2469978  77.4300014 132.9999992  85.7889978  76.9700014
 134.7069992  85.2349978  76.7200014 134.1969992  85.8719978  78.7070014
 134.1719992  86.9709978  78.5460014 135.2179992  85.6729978  79.0990014
 133.1739992  85.6199978  79.8300014 133.1449992  84.5199978  79.9880014
 132.1839992  85.9719978  79.4720014 133.4749992  86.1989978  81.1780014
 133.9609992  87.1979978  81.1770014 134.3129992  85.6749978  81.6850014
 132.3789992  86.1539978  82.2020014 131.7109992  87.0039978  81.9490014
 132.8209992  86.2449978  83.2170014 131.4699992  84.9379978  82.3010014
 130.9839992  84.6889978  81.3330014 130.6509992  85.1489978  83.0220014
 131.8969992  83.9689978  82.6370014 108.7449992  25.4519978  82.0490014
 109.0579992  24.4679978  81.6390014 107.9439992  25.7969978  81.3620014
 108.1239992  25.1339978  82.9140014 109.7749992  26.4419978  82.6140014
 109.3239992  27.4549978  82.6850014 110.1689992  26.0089978  83.5580014
 111.0029992  26.5539978  81.6280014 111.6489992  27.3129978  82.1190014
 111.4339992  25.5329978  81.5560014 110.5159992  27.0089978  80.2220014
 109.6419992  26.3789978  79.9490014 110.0939992  28.0339978  80.2930014
 111.6209992  26.9669978  79.1580014 112.4369992  27.6749978  79.4200014
 111.9609992  25.9509978  78.8660014 111.1119992  27.4509978  77.7860014
 110.2439992  26.8639978  77.4180014 110.7389992  28.4699978  78.0240014
 112.0939992  27.4859978  76.5860014 112.2659992  26.4509978  76.2200014
 111.6609992  28.0859978  75.7580014 113.5599992  28.1589978  76.7930014
 113.3549992  29.2439978  76.9210014 114.0719992  27.8689978  77.7360014
 114.5499992  27.9149978  75.7020014 114.0199992  27.9669978  74.7270014
 115.3739992  28.6419978  75.8650014 115.2419992  26.5539978  75.8510014
 116.0329992  26.5819978  76.6300014 114.4319992  25.7959978  75.8960014
 116.1589992  26.3579978  74.5910014 116.6199992  27.3119978  74.2580014
 117.0479992  25.7679978  74.9010014 115.5659992  25.6969978  73.3020014
 114.7079992  26.3089978  72.9510014 116.3419992  25.7429978  72.5080014
 115.0919992  24.2589978  73.5380014 115.9659992  23.7679978  74.0180014
 114.2189992  24.2499978  74.2250014 114.8919992  23.5409978  72.2240014
 115.7439992  23.5409978  71.5110014 114.6089992  22.4739978  72.3500014
 113.8159992  24.1949978  71.4090014 112.9909992  24.4889978  72.0940014
 114.1749992  25.1809978  71.0430014 113.3129992  23.2889978  70.2040014
 113.4209992  22.0639978  70.2160014 112.7149992  24.0379978  69.2050014
 112.1249992  23.3209978  68.0980014 112.8789992  23.2869978  67.2820014
 111.9349992  22.2819978  68.4430014 110.8769992  24.0769978  67.6430014
 110.3689992  23.4659978  66.8660014 111.2289992  25.3649978  67.0280014
 111.6599992  26.1569978  67.6770014 112.0119992  25.1489978  66.2700014
 110.0929992  25.9199978  66.3850014 109.8309992  25.7609978  64.8720014
 110.9349992  26.6989978  64.2460014 111.4009992  26.3419978  62.9180014
 110.5979992  25.9159978  62.2790014 111.7139992  27.2379978  62.3400014
 112.6129992  25.3819978  63.0020014 112.4219992  24.4809978  63.5660014
 112.8299992  24.9599978  62.0320014 113.8779992  25.9459978  63.4410014
 114.2099992  27.1769978  62.4820014 115.2709992  27.3579978  62.5700014
 113.9599992  26.8399978  61.4860014 113.4759992  27.9309978  62.7220014
 113.8849992  26.4589978  64.8110014 113.1859992  27.2819978  64.8220014
 113.6869992  25.5579978  65.3720014 114.9109992  26.7279978  65.0150014
 114.9999992  24.9119978  63.3790014 115.0529992  24.4839978  62.3890014
 114.8569992  24.1439978  64.1240014 115.9669992  25.3159978  63.6410014
 110.1079992  24.3549978  64.4890014 108.4399992  26.2379978  64.4800014
 109.9479992  24.4049978  68.6700014 109.5769992  23.4939978  69.5800014
 109.9009992  22.3179978  69.6160014 108.4989992  24.0059978  70.5300014
 107.9019992  23.1009978  70.7740014 107.8899992  24.7149978  69.9300014
 109.1289992  24.6859978  71.7380014 108.3519992  25.4699978  71.8690014
 110.0889992  25.2099978  71.5470014 108.9959992  23.7579978  72.9320014
 108.6369992  22.7539978  72.6220014 108.4029992  24.2109978  73.7550014
 110.4709992  23.4879978  73.4570014 111.0659992  24.3929978  73.7060014
 111.1259992  23.0629978  72.6670014 110.6069992  22.4939978  74.5470014
 110.4569992  21.4429978  74.2210014 109.7999992  22.8589978  75.2170014
 111.9709992  22.5589978  75.2230014 112.1729992  23.6279978  75.4440014
 112.6689992  22.2859978  74.4030014 112.0809992  21.5369978  76.3970014
 111.8169992  20.5219978  76.0300014 111.1999992  21.7209978  77.0490014
 113.3549992  21.5219978  77.2210014 114.2929992  21.5789978  76.6490014
 113.4699992  21.7849978  78.5080014 114.4559992  21.6329978  78.9740014
 112.4479992  22.1459978  79.5500014 112.0389992  21.2399978  80.0460014
 111.5809992  22.6159978  79.0390014 112.8659992  23.1849978  80.6320014
 111.9699992  23.3079978  81.2780014 113.1829992  24.1679978  80.2230014
 113.9909992  22.7079978  81.6080014 114.9079992  22.4709978  81.0270014
 113.6639992  21.8849978  82.2790014 114.3229992  23.8499978  82.6370014
 114.9829992  23.4789978  83.4510014 113.3839992  24.2479978  83.0760014
 115.1049992  24.9809978  82.0410014 114.4839992  25.1489978  81.1350014
 116.0679992  24.5409978  81.7040014 115.2099992  26.1989978  82.9910014
 114.1919992  26.6099978  83.1620014 115.8219992  26.9689978  82.4740014
 116.0319992  25.9449978  84.2590014 117.0059992  25.4199978  84.1570014
 115.5249992  25.3209978  85.0250014 116.0129992  27.2489978  85.0560014
 116.5479992  28.0739978  84.5390014 116.4529992  27.0769978  86.0620014
 114.9579992  27.5409978  85.2470014  59.1629992 133.1189978  82.2160014
  58.8439992 132.7639978  81.2120014  58.2539992 133.3529978  82.8100014
  59.7089992 132.3099978  82.7460014  59.9949992 134.3789978  82.1420014
  59.5549992 135.0359978  81.3620014  60.1409992 134.6919978  83.1970014
  61.5039992 134.0909978  81.8330014  62.0129992 135.0629978  81.6550014
  61.9499992 133.5389978  82.6880014  61.6119992 133.2639978  80.5600014
  61.2389992 132.2219978  80.6600014  61.1899992 133.8479978  79.7140014
  62.9879992 133.0599978  80.1190014  63.6399992 133.8889978  80.4690014
  63.4549992 132.1079978  80.4490014  63.0159992 132.9129978  78.5920014
  62.2649992 132.1909978  78.2060014  62.6539992 133.9179978  78.2860014
  64.3999992 132.6019978  78.0150014  64.7979992 131.6229978  78.3560014
  64.4639992 132.4359978  76.9190014  65.4919992 133.6119978  78.4390014
  65.6539992 133.5199978  79.5340014  66.3809992 133.3519978  77.8260014
  65.2599992 135.0299978  78.0260014  64.3469992 135.4819978  78.4700014
  66.0329992 135.7419978  78.3880014  65.2179992 135.2949978  76.5670014
  66.1809992 134.9209978  76.1580014  64.3789992 134.8909978  75.9610014
  65.1339992 136.8469978  76.2670014  64.2039992 137.3079978  76.6630014
  66.0599992 137.3249978  76.6520014  65.0609992 137.1469978  74.7490014
  65.4119992 138.1599978  74.4560014  65.7099992 136.3289978  74.3680014
  63.6899992 136.8249978  74.1330014  63.1729992 136.0949978  74.7910014
  62.9969992 137.6839978  74.2570014  63.7799992 136.3359978  72.6620014
  64.1629992 135.2939978  72.6720014  62.7859992 136.3749978  72.1650014
  64.8009992 137.0109978  71.6960014  64.6369992 138.1069978  71.6260014
  65.8519992 136.8569978  72.0200014  64.4969992 136.5439978  70.2820014
  64.2079992 137.3059978  69.3810014  64.5469992 135.2149978  70.2370014
  64.2849992 134.6689978  68.9400014  64.7069992 135.2609978  68.1000014
  64.7019992 133.6399978  68.9820014  62.6809992 134.5389978  68.6410014
  62.3129992 134.1089978  69.5970014  62.3689992 133.4149978  67.5610014
  63.2059992 132.6879978  67.6290014  61.5379992 132.7589978  67.8960014
  62.3619992 133.9799978  66.2920014  63.4479992 133.8259978  65.2210014
  62.8139992 134.6169978  64.0510014  62.7319992 136.0519978  63.9690014
  62.2499992 136.3599978  64.9220014  63.7699992 136.4289978  64.0970014
  61.8839992 136.5519978  62.8170014  62.1109992 137.5929978  62.6380014
  62.1249992 135.9919978  61.9250014  60.3969992 136.3789978  62.9010014
  60.0689992 134.9659978  63.3350014  60.4299992 134.2439978  62.6170014
  60.5409992 134.8199978  64.2950014  58.9949992 134.8689978  63.3800014
  59.8759992 137.2999978  64.0490014  58.8439992 137.0889978  64.2840014
  60.4549992 136.9729978  64.8990014  60.0409992 138.3599978  63.9220014
  59.7949992 136.7009978  61.6380014  60.4229992 136.1239978  60.9740014
  59.8819992 137.7709978  61.5220014  58.7849992 136.3459978  61.4970014
  64.6349992 134.5789978  65.6150014  63.5259992 132.4949978  64.6190014
  62.2069992 135.8679978  68.3450014  60.8689992 136.0029978  68.1900014
  59.9999992 135.1489978  68.2510014  60.4479992 137.4669978  67.9640014
  59.6219992 137.4479978  67.2210014  61.3369992 138.0079978  67.5760014
  60.0379992 138.0309978  69.3420014  59.3339992 137.2969978  69.7910014
  59.3989992 138.9219978  69.1630014  61.2419992 138.2019978  70.2480014
  61.8749992 138.9919978  69.7890014  61.8379992 137.2749978  70.3830014
  61.0069992 138.6719978  71.7000014  60.5449992 139.6819978  71.6940014
  61.9779992 138.6409978  72.2390014  60.1589992 137.7649978  72.6510014
  60.7269992 136.8279978  72.8330014  59.4259992 137.2219978  72.0150014
  59.5499992 138.4579978  73.8430014  58.7309992 139.1749978  73.6160014
  60.3329992 138.8969978  74.4970014  58.6949992 137.4479978  74.7000014
  57.9379992 137.0539978  73.9890014  58.0969992 138.0709978  75.3990014
  59.3109992 136.1789978  75.2830014  59.5079992 135.5129978  74.4300014
  59.4629992 135.7369978  76.5640014  59.9009992 134.7429978  76.7380014
  59.0179992 136.4979978  77.7440014  58.6569992 135.8569978  78.5760014
  58.2229992 137.2599978  77.5950014  60.1979992 137.3249978  78.2960014
  59.7459992 138.1269978  78.9180014  60.6599992 137.8719978  77.4460014
  61.2109992 136.5699978  79.0650014  61.5419992 135.6679978  78.5060014
  60.6419992 136.1859978  79.9380014  62.5139992 137.3079978  79.4680014
  62.8709992 137.7149978  78.4980014  63.3649992 136.6599978  79.7670014
  62.3049992 138.5069978  80.4030014  61.8699992 138.2849978  81.4010014
  61.6009992 139.2299978  79.9400014  63.6229992 139.2119978  80.7630014
  64.0929992 139.5229978  79.8050014  64.4009992 138.5289978  81.1640014
  63.5449992 140.5279978  81.5480014  64.5689992 140.9389978  81.6770014
  63.2299992 140.1349978  82.5380014  62.5869992 141.5449978  80.8860014
  62.6359992 141.4399978  79.7810014  62.7819992 142.5699978  81.2680014
  61.5349992 141.4469978  81.2310014  48.2759992 135.7869978  81.1290014
  47.7039992 135.9899978  82.0590014  49.1789992 136.4269978  81.2250014
  48.4909992 134.6979978  81.0860014  47.3899992 136.2859978  80.0150014
  47.3919992 137.3949978  79.9480014  47.8039992 135.8769978  79.0690014
  45.8809992 135.9319978  80.1260014  45.7679992 134.8269978  80.1390014
  45.5679992 136.3709978  81.0970014  44.9269992 136.3309978  78.9830014
  44.8709992 137.4309978  78.8360014  45.3609992 136.0099978  78.0130014
  43.6139992 135.5589978  79.1380014  43.7889992 134.4669978  79.0400014
  43.2539992 135.7119978  80.1780014  42.5099992 135.9369978  78.1150014
  41.6779992 135.2199978  78.2830014  42.1199992 136.9639978  78.2770014
  42.8179992 135.6709978  76.6520014  42.0029992 135.9719978  75.9600014
  43.6319992 136.3399978  76.2990014  43.2149992 134.2229978  76.3040014
  44.0489992 133.9149978  76.9690014  42.3709992 133.5179978  76.4630014
  43.6589992 133.9549978  74.7850014  44.3519992 134.7939978  74.5620014
  44.2059992 132.9899978  74.7350014  42.5469992 133.7529978  73.7520014
  42.2579992 132.6889978  73.8920014  41.6939992 134.4549978  73.8720014
  43.0519992 133.7869978  72.2720014  43.4349992 134.8089978  72.0630014
  43.9279992 133.1039978  72.2580014  42.0039992 133.4419978  71.1880014
  41.2589992 132.7429978  71.6250014  41.5279992 134.4349978  71.0390014
  42.6209992 132.9649978  69.8760014  42.8179992 133.8319978  69.2090014
  43.6029992 132.4599978  69.9990014  41.6999992 131.9429978  69.1360014
  41.8219992 130.9489978  69.6180014  40.6409992 132.2699978  69.2190014
  42.1369992 131.7679978  67.6470014  43.2309992 131.9589978  67.6180014
  41.9139992 130.7109978  67.3860014  41.4279992 132.8389978  66.8040014
  40.2879992 132.8549978  66.4930014  42.3469992 133.8329978  66.4900014
  41.7039992 135.0589978  66.0160014  40.9499992 134.8519978  65.2270014
  41.1699992 135.6169978  66.8150014  42.7889992 135.9149978  65.3320014
  42.5019992 136.9729978  65.1520014  43.1209992 135.2979978  63.9580014
  42.3489992 135.6319978  63.2320014  44.0739992 135.7559978  63.6160014
  43.1239992 133.8529978  63.8710014  44.4049992 133.0319978  63.6150014
  45.3649992 133.4309978  64.7290014  46.7269992 132.9169978  64.8650014
  46.9349992 132.9159978  65.9560014  46.7699992 131.8569978  64.5360014
  47.5989992 133.6639978  63.9180014  48.4929992 133.0889978  63.7280014
  47.1409992 133.6729978  62.9400014  48.0679992 135.0679978  64.2860014
  48.9579992 135.5179978  63.1960014  49.7899992 134.8619978  62.9880014
  48.4319992 135.4959978  62.2530014  49.3119992 136.5129978  63.4200014
  46.8849992 136.0179978  64.3980014  46.2259992 135.7979978  63.5710014
  46.3799992 135.7279978  65.3070014  47.2059992 137.0469978  64.3390014
  48.8429992 135.0099978  65.5660014  48.1809992 134.6399978  66.3350014
  49.1419992 136.0269978  65.7750014  49.7479992 134.4229978  65.5260014
  44.1739992 131.6019978  63.7770014  44.8759992 133.4399978  62.2850014
  44.0259992 135.9179978  66.0800014  43.9789992 136.4389978  67.2300014
  43.0909992 137.1099978  67.8060014  45.1329992 135.9329978  68.1160014
  45.3299992 134.8969978  67.7680014  44.7609992 135.9229978  69.1640014
  46.4639992 136.8069978  67.9860014  46.1249992 137.8569978  68.1110014
  46.8669992 136.5809978  66.9750014  47.5259992 136.5889978  69.0270014
  48.2709992 137.3819978  68.8050014  47.9959992 135.5829978  68.9810014
  47.0289992 136.7319978  70.5000014  47.9769992 136.7129978  71.0800014
  46.4199992 135.8249978  70.7010014  46.1489992 137.9719978  70.8400014
  45.1069992 137.7239978  70.5470014  46.4919992 138.8929978  70.3230014
  46.3249992 138.2829978  72.3510014  45.9599992 139.3239978  72.4860014
  47.3969992 138.2489978  72.6400014  45.6219992 137.2729978  73.3000014
  45.9699992 136.2599978  73.0050014  44.5169992 137.3189978  73.1930014
  45.9209992 137.4119978  74.7320014  45.0999992 137.8299978  75.3320014
  47.0679992 136.9989978  75.3190014  47.2369992 137.2719978  76.3710014
  48.2229992 136.3299978  74.6030014  49.1459992 136.5839978  75.1660014
  48.4159992 136.6129978  73.5470014  48.0279992 134.7949978  74.5640014
  48.8659992 134.3839978  73.9620014  47.0089992 134.5799978  74.1760014
  48.2049992 134.2279978  75.9750014  47.5739992 134.7209978  76.7450014
  49.2659992 134.3319978  76.2860014  47.8529992 132.6949978  76.2220014
  48.7059992 132.1939978  75.7170014  46.8799992 132.4519978  75.7440014
  47.8989992 132.3489978  77.7070014  48.2559992 133.2479978  78.2540014
  48.7399992 131.6409978  77.8700014  46.5989992 131.7499978  78.1980014
  46.2369992 130.8129978  77.7250014  45.7399992 132.4069978  77.9430014
  46.6899992 131.6559978  79.7140014  47.0329992 132.6059978  80.1750014
  47.4489992 130.9079978  80.0290014  45.3569992 131.3899978  80.3870014
  45.5589992 131.4169978  81.4790014  44.9199992 130.4029978  80.1250014
  44.5499992 132.1149978  80.1490014   6.5549992  63.2049978  82.7090014
   6.1789992  62.2589978  82.2630014   5.8379992  63.7199978  83.3820014
   7.5019992  62.9309978  83.2210014   6.8339992  63.9829978  81.4000014
   5.8649992  64.0089978  80.8570014   7.1939992  65.0039978  81.6490014
   7.9409992  63.3859978  80.5380014   7.8119992  62.2909978  80.4040014
   7.9049992  63.6549978  79.4610014   9.3069992  63.4039978  81.1320014
   9.4609992  62.9329978  82.1260014   9.9859992  62.7839978  80.5090014
  10.1089992  64.7779978  81.2120014   9.7379992  65.5059978  81.9640014
  11.1559992  64.6409978  81.5590014  10.1859992  65.5299978  79.8320014
  10.6929992  64.9039978  79.0670014   9.1659992  65.7719978  79.4660014
  11.0319992  66.8329978  79.8830014  10.9069992  67.4109978  80.8230014
  12.1089992  66.5789978  79.7870014  10.7789992  67.8289978  78.6730014
   9.8439992  68.3949978  78.8730014  11.6989992  68.4319978  78.8260014
  10.7809992  67.1559978  77.2250014  11.6239992  66.4319978  77.2280014
   9.8109992  66.6449978  77.0440014  10.9449992  68.1029978  75.9980014
  10.1679992  68.8969978  75.9680014  11.9179992  68.6129978  76.1630014
  11.1029992  67.3839978  74.6060014  10.1109992  66.9629978  74.3370014
  11.1949992  68.2249978  73.8860014  12.3129992  66.4559978  74.4540014
  13.1799992  67.1209978  74.6580014  12.2029992  65.6999978  75.2610014
  12.4799992  65.8199978  73.0720014  12.3419992  66.6219978  72.3160014
  13.5359992  65.4769978  73.0230014  11.5409992  64.6869978  72.6510014
  11.7419992  63.8699978  73.3770014  10.4969992  65.0199978  72.8340014
  11.6359992  64.3489978  71.1200014  11.5429992  65.3709978  70.6950014
  12.6549992  64.0459978  70.7990014  10.6189992  63.3739978  70.6670014
  10.4939992  62.1839978  71.0040014   9.7389992  63.9419978  69.7580014
   8.7839992  62.9759978  69.2760014   9.3049992  62.0229978  69.0410014
   7.9939992  62.8399978  70.0450014   8.1289992  63.4569978  67.9850014
   7.6009992  62.6279978  67.4670014   9.1779992  63.8249978  66.8870014
   9.9149992  64.5379978  67.3140014   9.7799992  62.9289978  66.6220014
   8.4559992  64.4089978  65.8500014   9.1879992  65.4499978  64.8790014
   8.0489992  65.7599978  63.7620014   6.6809992  65.8289978  64.1940014
   6.1149992  65.3389978  63.3740014   6.4139992  65.3189978  65.1440014
   6.1549992  67.3229978  64.4590014   5.1819992  67.3639978  64.9260014
   6.8019992  67.8139978  65.1710014   6.1649992  68.2249978  63.2250014
   7.6209992  68.5919978  62.8490014   7.8819992  69.4259978  63.4840014
   8.3239992  67.7919978  63.0290014   7.6559992  69.0849978  61.8890014
   5.6539992  67.4659978  62.0470014   6.1749992  66.5469978  61.8210014
   4.6609992  67.1909978  62.3710014   5.6429992  68.1219978  61.1900014
   5.3649992  69.4839978  63.4030014   4.3189992  69.2199978  63.4520014
   5.3569992  70.1549978  62.5560014   5.7689992  70.1789978  64.1240014
   9.3889992  66.6789978  65.5940014  10.3299992  64.7579978  64.2430014
   7.2739992  64.6069978  68.2190014   6.0209992  64.4059978  68.4450014
   5.4009992  63.3999978  68.1580014   5.4159992  65.5809978  69.1960014
   4.9869992  66.2739978  68.4410014   6.2209992  66.2249978  69.6110014
   4.4199992  65.1179978  70.3280014   3.5079992  64.7049978  69.8470014
   4.0469992  66.0099978  70.8750014   4.9519992  64.0879978  71.3700014
   5.2559992  63.1579978  70.8430014   4.0449992  63.8029978  71.9460014
   6.1419992  64.5009978  72.3480014   5.5989992  65.1559978  73.0630014
   7.0689992  64.8959978  71.8810014   6.6469992  63.2649978  73.2140014
   7.0129992  62.3859978  72.6420014   5.7259992  62.9679978  73.7590014
   7.7859992  63.5839978  74.2790014   8.6999992  63.9169978  73.7410014
   8.1119992  62.6289978  74.7430014   7.5519992  64.6169978  75.3750014
   7.6009992  65.6469978  74.9610014   8.4889992  64.5309978  75.9650014
   6.1769992  64.4419978  76.0580014   5.7649992  63.4269978  76.1620014
   5.2579992  65.3689978  76.3940014   4.2899992  65.0769978  76.8280014
   5.3659992  66.8619978  76.2210014   4.6179992  67.2609978  75.5040014
   6.3289992  67.1739978  75.7650014   5.2279992  67.7249978  77.5490014
   5.5689992  68.7069978  77.1560014   5.7559992  67.2969978  78.4280014
   3.7549992  67.7739978  78.0040014   3.3009992  66.7739978  78.1710014
   3.2399992  68.1749978  77.1050014   3.4199992  68.7239978  79.1180014
   2.3789992  69.0989978  79.0090014   4.0749992  69.6209978  79.0880014
   3.5079992  68.1209978  80.6090014   3.0759992  67.0979978  80.5700014
   2.8739992  68.8269978  81.1870014   4.9059992  68.0539978  81.1560014
   5.6329992  68.7249978  80.6510014   5.2059992  67.0179978  80.8880014
   5.0259992  68.3459978  82.5980014   4.3999992  67.6189978  83.1590014
   4.6709992  69.3729978  82.8310014   6.5019992  68.2729978  83.0620014
   6.5949992  68.6529978  84.1020014   7.1339992  68.9739978  82.4760014
   6.9659992  67.2659978  82.9960014  92.6469992 125.5129978  81.5070014
  92.4099992 124.6379978  82.1500014  93.2099992 126.2179978  82.1550014
  93.3039992 125.3269978  80.6310014  91.2739992 126.1699978  81.1940014
  90.8469992 125.6069978  80.3370014  90.6629992 125.9589978  82.0970014
  91.3769992 127.6209978  80.8900014  90.3499992 127.9439978  80.6140014
  91.6209992 128.1699978  81.8240014  92.2949992 127.8719978  79.6710014
  92.4399992 128.9689978  79.5730014  93.3349992 127.5759978  79.9240014
  91.6989992 127.1989978  78.3980014  91.7089992 126.0879978  78.4170014
  90.7019992 127.6749978  78.2840014  92.6879992 127.3849978  77.2270014
  93.6569992 127.1319978  77.7080014  92.3209992 126.5429978  76.6020014
  92.6839992 128.7709978  76.5940014  91.9849992 128.7649978  75.7310014
  92.3839992 129.4859978  77.3890014  93.9999992 129.3179978  76.0470014
  93.9129992 130.4219978  75.9690014  94.8439992 129.0449978  76.7170014
  94.3349992 128.8639978  74.5710014  95.4269992 128.8859978  74.3700014
  94.1579992 127.7769978  74.4240014  93.6019992 129.7469978  73.5170014
  92.5509992 129.8049978  73.8720014  93.9639992 130.7969978  73.5360014
  93.5759992 129.3199978  72.0610014  92.9569992 130.0319978  71.4760014
  94.5979992 129.3489978  71.6260014  93.1219992 127.8869978  71.7780014
  93.6419992 127.2349978  72.5120014  92.0489992 127.7909978  72.0510014
  93.3819992 127.3949978  70.3180014  94.2539992 127.8709978  69.8190014
  93.4539992 126.2869978  70.3520014  92.1569992 127.6269978  69.3670014
  91.2399992 127.4699978  69.9740014  92.0929992 128.6969978  69.0740014
  92.2269992 126.7499978  68.0520014  92.9179992 127.2109978  67.3140014
  92.5929992 125.7469978  68.3580014  90.7709992 126.7409978  67.4290014
  89.9189992 125.9429978  67.7100014  90.7089992 127.8739978  66.7280014
  89.3789992 128.1359978  66.2380014  89.3729992 128.3709978  65.1520014
  88.5559992 127.4389978  66.5060014  88.9929992 129.6339978  66.7310014
  87.9049992 129.7419978  66.5340014  89.8019992 130.7429978  65.9970014
  89.6979992 130.6369978  64.8960014  89.1879992 131.6499978  66.1790014
  91.1029992 130.7719978  66.4910014  92.4239992 130.5659978  65.7010014
  92.0099992 129.3629978  64.7430014  92.0099992 129.5959978  63.3490014
  91.2019992 130.3379978  63.1750014  93.0029992 129.8949978  62.9520014
  91.8179992 128.2549978  62.5690014  90.9359992 127.7629978  62.9520014
  91.6449992 128.5609978  61.5480014  92.9369992 127.2329978  62.5450014
  93.2279992 126.6529978  63.8950014  93.3439992 127.4589978  64.6030014
  92.3009992 126.2699978  64.2950014  93.9629992 125.8639978  63.8280014
  92.5009992 126.0449978  61.7360014  92.9069992 125.0789978  61.9970014
  91.4419992 126.0859978  61.9470014  92.7909992 126.2359978  60.7140014
  94.2129992 127.6979978  61.8730014  93.9649992 128.1529978  60.9260014
  94.8129992 126.8439978  61.5930014  94.7229992 128.3509978  62.5660014
  92.7569992 131.7939978  64.9210014  93.3959992 130.0239978  66.6820014
  89.2529992 129.6689978  68.1940014  88.4689992 128.8309978  68.9530014
  87.5399992 128.1849978  68.5340014  88.8539992 128.9779978  70.4210014
  88.5179992 130.0079978  70.6630014  89.9339992 128.9299978  70.6790014
  88.0599992 127.8579978  71.1210014  88.1579992 126.8659978  70.6290014
  86.9839992 128.1299978  71.0800014  88.3369992 127.6349978  72.6570014
  89.4099992 127.4269978  72.8570014  87.8239992 126.6949978  72.9510014
  87.8029992 128.8259978  73.4910014  86.7339992 128.6299978  73.7240014
  87.9759992 129.7699978  72.9310014  88.5779992 128.9679978  74.8400014
  87.9179992 129.7329978  75.3010014  89.5869992 129.3299978  74.5490014
  88.6379992 127.6909978  75.6960014  89.2599992 128.0279978  76.5530014
  89.1699992 126.8439978  75.2130014  87.2329992 127.2219978  76.1410014
  86.6149992 126.8169978  75.3110014  86.6949992 128.0939978  76.5690014
  87.2479992 126.1719978  77.1790014  87.1529992 125.1949978  76.6830014
  87.3299992 126.2089978  78.5050014  87.3049992 125.2779978  79.0900014
  87.4909992 127.4259978  79.4320014  87.7909992 128.2359978  78.7330014
  88.2939992 127.2919978  80.1870014  86.2699992 127.9799978  80.2130014
  85.9629992 127.1029978  80.8210014  85.4449992 128.3239978  79.5520014
  86.5499992 129.1539978  81.2470014  87.5639992 128.9729978  81.6640014
  85.8349992 129.2109978  82.0950014  86.5279992 130.5679978  80.6130014
  85.5419992 130.6159978  80.1030014  87.3349992 130.6249978  79.8520014
  86.6499992 131.7179978  81.6350014  85.7009992 131.6579978  82.2100014
  86.5829992 132.6709978  81.0680014  87.8959992 131.6019978  82.5770014
  88.8719992 131.6159978  82.0450014  87.7179992 130.6509978  83.1250014
  87.9419992 132.6929978  83.6160014  87.0119992 132.6609978  84.2230014
  88.1629992 133.6569978  83.1090014  89.0919992 132.5119978  84.6190014
  90.1109992 132.5389978  84.1760014  88.9959992 131.5739978  85.2070014
  89.1659992 133.3349978  85.3620014   9.6759992 101.4679978  83.3710014
  10.6069992 101.8989978  83.7970014   8.9529992 101.7559978  84.1650014
   9.4649992 101.8299978  82.3420014   9.7909992  99.9519978  83.2200014
   9.9589992  99.4519978  84.1980014   8.7519992  99.7489978  82.8820014
  10.9579992  99.5139978  82.3220014  10.7859992  99.9199978  81.3020014
  11.9269992  99.8859978  82.7190014  11.1269992  98.0229978  82.2000014
  11.9909992  97.6379978  81.6170014  11.2249992  97.6249978  83.2330014
   9.9129992  97.2789978  81.6320014  10.3019992  96.2669978  81.3880014
   9.1279992  97.0779978  82.3920014   9.1979992  97.9629978  80.4510014
   8.2549992  97.4469978  80.1710014   8.7479992  98.9319978  80.7540014
  10.0769992  98.2369978  79.2410014   9.5409992  98.8449978  78.4810014
  10.9899992  98.8009978  79.5260014  10.5449992  97.0139978  78.5160014
  11.4389992  96.4829978  78.9100014   9.6119992  96.4109978  78.5110014
  10.8709992  97.3579978  77.0420014  10.2169992  98.1709978  76.6600014
  11.8999992  97.7659978  76.9460014  10.9299992  96.2019978  76.0070014
  11.7769992  95.5989978  76.3990014   9.9689992  95.6489978  76.0710014
  11.2139992  96.4009978  74.4690014  10.9679992  95.4549978  73.9400014
  10.5819992  97.2169978  74.0570014  12.7139992  96.7049978  74.0620014
  13.0039992  97.5919978  74.6640014  13.3819992  95.8269978  74.1980014
  12.8829992  96.9959978  72.6020014  13.9559992  96.9749978  72.3150014
  12.4089992  96.1499978  72.0600014  12.3399992  98.2599978  71.9980014
  11.4119992  98.5379978  72.5410014  13.0559992  99.0649978  72.2710014
  12.3619992  98.1859978  70.5050014  12.8129992  99.1199978  70.1080014
  12.9769992  97.4029978  70.0120014  10.8929992  98.1959978  70.0300014
  10.0369992  97.3419978  70.2910014  10.7869992  99.1709978  69.1880014
   9.5549992  99.4109978  68.5980014   8.9789992  98.4619978  68.5530014
   9.0119992 100.1439978  69.2330014   9.7279992 100.0629978  67.1450014
   8.8589992 100.7019978  66.8790014   9.6819992  98.9109978  66.0550014
   8.6529992  98.6069978  65.7660014  10.0389992  99.3419978  65.0950014
  10.4459992  97.7929978  66.4810014  11.9649992  97.6769978  66.0930014
  12.0939992  98.3879978  64.7060014  11.4999992  97.7859978  63.5710014
  12.2129992  97.0749978  63.0990014  10.5579992  97.2569978  63.8280014
  10.9559992  98.7459978  62.4890014  10.7939992  98.1769978  61.5850014
   9.9699992  98.9239978  62.8920014  11.7579992  99.9509978  62.1280014
  13.1629992  99.4889978  61.8360014  13.1369992  98.8499978  60.9660014
  13.8639992 100.3049978  61.7380014  13.4979992  98.9999978  62.7380014
  10.9999992 100.5639978  60.9370014   9.9589992 100.7739978  61.1330014
  11.4749992 101.4939978  60.6610014  10.9129992  99.8309978  60.1500014
  11.7399992 100.9379978  63.2920014  12.2119992 100.5009978  64.1600014
  10.7579992 101.3269978  63.5180014  12.3499992 101.7659978  62.9620014
  12.8149992  98.4439978  67.0450014  12.3799992  96.2729978  65.9290014
  10.9659992 100.7259978  67.2050014  11.0219992 101.9719978  67.2970014
  10.0419992 102.7289978  67.3300014  12.3919992 102.3769978  67.2040014
  12.5409992 103.0549978  66.3360014  13.0889992 101.5129978  67.2310014
  12.5809992 103.1939978  68.5460014  11.8929992 104.0649978  68.5680014
  13.6769992 103.3579978  68.6330014  12.2099992 102.3859978  69.9240014
  12.5049992 101.3389978  69.6960014  11.1129992 102.2129978  69.9580014
  12.7149992 102.9749978  71.2830014  11.8939992 103.5039978  71.8120014
  13.4099992 103.8209978  71.0930014  13.1399992 101.8999978  72.1680014
  14.0759992 101.4159978  71.8170014  12.2659992 101.2439978  72.3680014
  13.4759992 102.4169978  73.5690014  12.6999992 103.1819978  73.7870014
  14.3979992 103.0279978  73.4620014  13.6659992 101.2929978  74.5310014
  14.3949992 101.6709978  75.2800014  14.1819992 100.4239978  74.0690014
  12.3629992 100.8689978  75.0930014  11.7319992 100.3529978  74.3540014
  11.8079992 101.2339978  76.2320014  10.8209992 100.7799978  76.4060014
  12.5299992 102.1829978  77.1930014  12.0579992 103.1869978  77.2450014
  13.5659992 102.3309978  76.8210014  12.8599992 101.6849978  78.6000014
  12.0089992 101.5959978  79.3090014  13.4509992 102.5239978  79.0240014
  13.6509992 100.3949978  78.6790014  14.6879992 100.4569978  78.2830014
  13.2139992  99.6299978  78.0020014  13.9689992  99.9529978  80.1200014
  14.1469992  98.8579978  80.1730014  13.1149992 100.1599978  80.7990014
  15.2369992 100.6179978  80.6720014  15.0509992 101.7129978  80.6660014
  16.1149992 100.3839978  80.0340014  15.6569992  99.8699978  81.9700014
  16.6449992 100.2579978  82.2990014  15.7939992  98.7759978  81.8340014
  14.8069992 100.1719978  83.1920014  15.4729992  99.8799978  84.0320014
  13.8659992  99.5859978  83.2690014  14.3669992 101.6689978  83.3050014
  13.8149992 101.8409978  84.2540014  13.7079992 101.9459978  82.4550014
  15.2219992 102.3639978  83.4420014 133.1949992  48.0379978  83.5320014
 132.1059992  48.1889978  83.6920014 133.8119992  47.9529978  84.4520014
 133.1339992  47.1189978  82.9100014 133.7239992  49.0799978  82.5980014
 133.7739992  50.0659978  83.1070014 134.7689992  48.7999978  82.3440014
 132.9579992  49.2739978  81.2580014 132.9309992  48.3539978  80.6360014
 131.9439992  49.6519978  81.5100014 133.5289992  50.3509978  80.2680014
 133.2259992  51.3139978  80.7320014 134.6199992  50.1539978  80.1890014
 132.8029992  50.2209978  78.9160014 132.4199992  49.1939978  78.7310014
 131.8649992  50.8169978  78.9000014 133.7129992  50.6929978  77.7660014
 133.9479992  51.7599978  77.9700014 134.7249992  50.2759978  77.9550014
 133.2829992  50.5459978  76.3140014 132.4919992  51.2439978  75.9650014
 134.2389992  50.8369978  75.8290014 132.8979992  49.0819978  76.0000014
 133.4689992  48.3039978  76.5500014 131.8729992  48.8649978  76.3700014
 133.0599992  48.7909978  74.5360014 134.0849992  48.9649978  74.1460014
 132.7629992  47.7329978  74.3750014 132.2009992  49.7159978  73.6480014
 131.1649992  49.7949978  74.0420014 132.7309992  50.6919978  73.6600014
 132.0319992  49.2579978  72.1350014 131.5599992  48.2529978  72.0830014
 131.4069992  50.0139978  71.6140014 133.3489992  49.4039978  71.3780014
 133.8039992  50.3779978  71.6580014 134.0249992  48.5939978  71.7250014
 133.2239992  49.3709978  69.8730014 132.7009992  48.4059978  69.7000014
 132.6179992  50.2189978  69.4890014 134.6309992  49.5409978  69.2660014
 134.9179992  50.5949978  69.4660014 135.3129992  48.7879978  69.7150014
 134.5729992  49.3279978  67.7200014 133.6899992  49.8649978  67.3130014
 135.5789992  49.6229978  67.3510014 134.2619992  47.8439978  67.3430014
 134.6649992  46.9269978  67.9550014 133.6459992  47.8179978  66.1750014
 133.3509992  46.6019978  65.4950014 134.0369992  46.4239978  64.6390014
 133.3919992  45.7689978  66.2290014 131.9109992  46.5769978  64.8720014
 131.6409992  45.5159978  64.6840014 131.8979992  47.4599978  63.6540014
 132.7659992  47.2049978  63.0090014 131.0359992  47.1259978  63.0380014
 131.9159992  48.8039978  63.8670014 132.7579992  49.8629978  62.9880014
 132.2889992  51.3549978  63.5640014 132.3069992  51.5059978  64.9750014
 133.0709992  50.8899978  65.4980014 132.4039992  52.5579978  65.3170014
 130.8499992  51.1439978  65.4250014 130.7309992  50.1009978  65.1730014
 130.9469992  51.2909978  66.4910014 129.7519992  51.9869978  64.8560014
 129.4929992  51.7629978  63.4380014 128.6759992  52.4369978  63.2240014
 130.3749992  51.8509978  62.8210014 129.0079992  50.8229978  63.2170014
 128.4549992  51.6409978  65.6060014 128.5759992  51.8039978  66.6670014
 127.6819992  52.3289978  65.2980014 128.2309992  50.6129978  65.3600014
 130.0149992  53.4979978  65.0270014 130.9859992  53.7169978  64.6090014
 129.8459992  53.7109978  66.0720014 129.2439992  54.0439978  64.5020014
 134.2009992  49.5759978  63.1770014 132.3249992  49.7929978  61.5810014
 131.0009992  47.0619978  65.8460014 130.8649992  46.3659978  66.9800014
 131.3749992  45.2619978  67.1910014 130.0179992  47.0329978  67.9960014
 130.7179992  47.3619978  68.7930014 129.3339992  46.2539978  68.3960014
 129.3439992  48.3219978  67.5580014 128.7439992  47.9459978  66.7020014
 130.0089992  49.1269978  67.1780014 128.4219992  48.9289978  68.6450014
 127.8759992  48.1029978  69.1500014 127.6209992  49.4379978  68.0680014
 129.1539992  49.7609978  69.6820014 129.5949992  50.6489978  69.1830014
 130.0399992  49.3229978  70.1910014 128.2239992  50.3259978  70.7310014
 127.3599992  50.8269978  70.2420014 128.7659992  50.9889978  71.4380014
 127.8449992  49.2419978  71.7320014 128.6229992  48.4589978  71.8580014
 126.9509992  48.7349978  71.3080014 127.6869992  49.9149978  73.0480014
 126.9339992  50.7139978  72.8780014 128.5709992  50.5119978  73.3560014
 127.1009992  49.0309978  74.1370014 126.5479992  48.1179978  73.8730014
 127.3009992  49.0939978  75.4570014 126.6499992  48.4759978  76.0930014
 128.1639992  50.1129978  76.1500014 127.6249992  51.0349978  76.4540014
 128.9839992  50.4639978  75.4870014 128.8559992  49.5439978  77.4690014
 129.5989992  50.3459978  77.6640014 129.4379992  48.6119978  77.3040014
 127.8479992  49.2189978  78.5870014 127.3059992  48.2999978  78.2760014
 127.1469992  50.0749978  78.6890014 128.6299992  48.9219978  79.8290014
 129.2429992  49.7809978  80.1760014 129.2419992  47.9989978  79.7430014
 127.6139992  48.6029978  80.9240014 127.0749992  47.6439978  80.7680014
 126.7979992  49.3509978  81.0050014 128.2289992  48.6569978  82.3350014
 127.4319992  48.7279978  83.1060014 128.9709992  49.4809978  82.3940014
 128.9499992  47.4479978  82.8190014 129.8799992  47.2739978  82.2370014
 128.3429992  46.5359978  82.6320014 129.4339992  47.3729978  84.3080014
 128.6229992  46.9519978  84.9400014 129.6179992  48.4399978  84.5560014
 130.3879992  46.8029978  84.3100014  92.6459992  12.0129978  84.2520014
  91.9089992  12.7119978  84.7020014  93.5859992  12.5119978  83.9330014
  93.0339992  11.3839978  85.0820014  91.9709992  11.1349978  83.2130014
  91.9129992  10.1079978  83.6330014  90.9269992  11.5059978  83.1280014
  92.6289992  11.0639978  81.8360014  92.5749992  12.0519978  81.3310014
  93.7329992  10.9449978  81.8850014  92.1379992   9.8559978  80.9910014
  93.0629992   9.3149978  80.6960014  91.5459992   9.1309978  81.5910014
  91.3429992  10.1779978  79.7170014  90.7279992   9.2829978  79.4810014
  90.6249992  10.9599978  80.0450014  92.0899992  10.7119978  78.4960014
  92.3929992  11.7669978  78.6630014  92.9929992  10.0649978  78.4920014
  91.4329992  10.4229978  77.1530014  91.6119992   9.3729978  76.8370014
  90.3279992  10.5389978  77.1460014  92.2709992  11.2809978  76.1100014
  92.4439992  12.2839978  76.5570014  93.3079992  10.8949978  76.0180014
  91.6579992  11.4199978  74.7120014  91.3659992  10.4029978  74.3760014
  90.7819992  12.0859978  74.8640014  92.5949992  12.0579978  73.7070014
  92.7059992  13.1349978  73.9570014  93.5869992  11.5639978  73.7890014
  92.0989992  11.7069978  72.3470014  92.1379992  10.5959978  72.3450014
  91.0749992  12.1369978  72.3710014  92.8829992  12.3429978  71.1430014
  92.7259992  13.4389978  71.2320014  93.9589992  12.2049978  71.3810014
  92.6509992  11.8419978  69.7100014  92.7109992  10.7389978  69.5870014
  91.6769992  12.0979978  69.2420014  93.5979992  12.5799978  68.7180014
  93.0879992  13.5529978  68.5510014  94.5999992  12.7909978  69.1500014
  93.7489992  11.9569978  67.2960014  92.8209992  11.9519978  66.6860014
  94.4219992  12.5899978  66.6800014  94.5489992  10.7019978  67.4930014
  95.2569992  10.4669978  68.4800014  94.3459992   9.9179978  66.4580014
  95.0309992   8.6249978  66.6280014  95.2999992   8.3989978  65.5740014
  96.0069992   8.5579978  67.1540014  94.0209992   7.5389978  66.9890014
  94.4729992   6.5249978  66.9510014  92.7749992   7.5879978  66.0700014
  93.0239992   7.5829978  64.9880014  92.2059992   6.6509978  66.2450014
  91.8999992   8.7049978  66.3190014  90.4459992   8.8059978  65.6450014
  90.8659992   9.0749978  64.1280014  89.7839992   9.1759978  63.1590014
  90.1739992   8.7809978  62.1970014  88.8759992   8.5979978  63.4330014
  89.1719992  10.6269978  62.9700014  88.3489992  10.6589978  62.2710014
  88.6539992  10.8829978  63.8820014  90.1639992  11.8129978  62.6550014
  91.0709992  11.5189978  61.4760014  91.8759992  12.2369978  61.4080014
  91.4699992  10.5339978  61.6710014  90.5769992  11.4969978  60.5160014
  89.3209992  13.0389978  62.3300014  89.9149992  13.7589978  61.7860014
  88.5389992  12.6709978  61.6820014  88.8539992  13.5119978  63.1810014
  91.0699992  12.0429978  63.9110014  90.5999992  12.6009978  64.7080014
  91.8529992  12.7129978  63.5870014  91.5049992  11.1159978  64.2540014
  89.8709992   7.4259978  65.6840014  89.6339992   9.9129978  66.2300014
  93.6639992   7.7309978  68.3540014  92.7549992   6.8669978  68.8710014
  92.3339992   5.8059978  68.3660014  92.0129992   7.4839978  70.1220014
  92.2319992   8.5729978  70.1430014  92.2109992   6.9349978  71.0670014
  90.4669992   7.5409978  70.0190014  89.8879992   6.5969978  70.1020014
  90.2339992   7.8759978  68.9860014  89.7539992   8.5209978  70.9300014
  88.7339992   8.7719978  70.5680014  90.3819992   9.4329978  71.0190014
  89.5999992   8.0449978  72.4240014  90.5839992   7.9469978  72.9310014
  89.1099992   7.0519978  72.5150014  88.7929992   9.0869978  73.1960014
  87.8219992   9.1879978  72.6660014  89.2669992  10.0839978  73.0690014
  88.6319992   8.6839978  74.6610014  88.0209992   9.4359978  75.2050014
  89.6029992   8.7819978  75.1920014  87.8749992   7.3769978  75.0060014
  88.5929992   6.5599978  74.7810014  87.0669992   7.3409978  74.2450014
  87.3489992   7.0799978  76.3690014  86.2649992   7.0299978  76.5450014
  88.1469992   6.9219978  77.4730014  87.7479992   6.6389978  78.4580014
  89.6279992   7.0309978  77.5100014  89.7109992   7.8679978  78.2360014
  90.0989992   7.4349978  76.5890014  90.4839992   5.8419978  78.0140014
  91.4839992   6.2939978  78.1870014  90.5299992   5.1489978  77.1470014
  90.0339992   5.0679978  79.2330014  90.4549992   4.0399978  79.2420014
  88.9259992   5.0089978  79.2910014  90.4669992   5.7989978  80.5070014
  89.8689992   5.4239978  81.3640014  90.3189992   6.8819978  80.3080014
  91.9479992   5.4969978  80.8010014  92.5429992   6.4339978  80.7620014
  92.4809992   4.8629978  80.0600014  92.3509992   4.8279978  82.1500014
  92.0199992   3.7679978  82.1730014  91.9519992   5.2819978  83.0820014
  93.9349992   4.8009978  82.3280014  94.2709992   4.5849978  81.2910014
  94.2019992   3.8959978  82.9140014  94.5899992   6.0299978  82.7710014
  94.5289992   5.9909978  83.8790014  94.0539992   6.9619978  82.4920014
  95.6559992   6.0319978  82.4580014   6.1729992  85.9039978  81.9880014
   5.2279992  85.9039978  81.4030014   5.8709992  86.2339978  83.0050014
   6.4679992  84.8329978  82.0020014   7.2719992  86.8249978  81.5110014
   6.8779992  87.8639978  81.4950014   8.1159992  86.8119978  82.2330014
   7.9089992  86.4569978  80.1610014   8.6629992  87.2289978  79.8960014
   8.4989992  85.5719978  80.4860014   7.0599992  86.0449978  78.9810014
   7.6779992  85.5489978  78.2020014   6.3429992  85.2569978  79.2950014
   6.2929992  87.1809978  78.2330014   5.5169992  87.5769978  78.9230014
   6.8989992  88.0889978  78.0260014   5.4579992  86.6599978  77.0740014
   6.1109992  86.3009978  76.2500014   4.9329992  85.7419978  77.4150014
   4.5189992  87.7159978  76.6260014   4.1529992  88.3219978  77.4830014
   5.1099992  88.4249978  76.0080014   3.2519992  87.3309978  75.7620014
   2.5239992  87.0189978  76.5420014   2.7969992  88.2439978  75.3220014
   3.5039992  86.1679978  74.8140014   4.3209992  86.4509978  74.1170014
   3.9249992  85.2369978  75.2500014   2.2689992  85.6809978  74.0310014
   1.6139992  85.2759978  74.8320014   1.8259992  86.6239978  73.6460014
   2.4689992  84.6059978  72.9870014   3.4989992  84.7779978  72.6080014
   2.4939992  83.6559978  73.5630014   1.4349992  84.4639978  71.8720014
   0.4349992  84.4409978  72.3570014   1.4269992  85.3489978  71.2010014
   1.7069992  83.2569978  70.9830014   2.7059992  83.2779978  70.4960014
   1.5459992  82.3819978  71.6480014   0.5879992  83.0109978  69.9130014
   0.4969992  81.9059978  69.8410014  -0.3410008  83.4239978  70.3610014
   0.9449992  83.3709978  68.4970014   1.8669992  82.9779978  68.0170014
   0.0819992  82.9599978  67.9300014   0.8689992  84.8999978  68.2720014
  -0.0670008  85.5679978  68.6530014   1.9549992  85.3519978  67.6250014
   1.9299992  86.7059978  67.1190014   1.3699992  86.6979978  66.1600014
   1.3549992  87.4519978  67.7080014   3.3269992  87.2839978  66.9580014
   3.1539992  88.3429978  66.6710014   4.3299992  86.4549978  66.0550014
   3.7819992  85.9839978  65.2110014   4.9439992  87.2619978  65.6000014
   5.2989992  85.6629978  66.7710014   5.2939992  84.0719978  66.4850014
   5.3419992  83.8489978  64.8390014   6.1949992  84.6679978  64.1740014
   5.6859992  85.6559978  64.1700014   7.1509992  84.8729978  64.7010014
   6.3719992  84.2779978  62.7450014   7.2159992  84.8909978  62.4660014
   6.6949992  83.2519978  62.6510014   5.2319992  84.4049978  61.6700014
   4.9709992  85.8499978  61.5130014   5.8519992  86.3209978  61.1020014
   4.1179992  85.9269978  60.8550014   4.5859992  86.2219978  62.4510014
   5.8469992  83.9169978  60.3010014   5.0669992  83.9939978  59.5580014
   6.6289992  84.6379978  60.1150014   6.2689992  82.9509978  60.5360014
   4.0349992  83.5919978  62.0260014   4.2929992  82.5429978  62.0270014
   3.2159992  83.7829978  61.3490014   3.7879992  83.9639978  63.0090014
   6.5629992  83.5029978  66.9380014   4.0439992  83.3969978  67.0440014
   3.8939992  87.3879978  68.2600014   5.0289992  87.9569978  68.5400014
   5.8209992  88.5129978  67.7410014   5.1209992  88.0049978  70.0350014
   4.6289992  87.1019978  70.4550014   4.5979992  88.8919978  70.4530014
   6.5719992  88.1989978  70.5810014   6.6039992  88.3549978  71.6800014
   7.2119992  88.9209978  70.0290014   7.3559992  86.8169978  70.4000014
   8.3939992  86.9339978  70.7790014   7.3599992  86.5069978  69.3330014
   6.6129992  85.6349978  71.1650014   5.5989992  85.4569978  70.7480014
   6.4829992  85.8449978  72.2480014   7.4339992  84.3099978  71.0710014
   8.3859992  84.4329978  71.6300014   7.5389992  84.0869978  69.9880014
   6.5659992  83.1549978  71.6180014   7.0459992  82.1799978  71.3840014
   5.5999992  83.0809978  71.0750014   6.2809992  83.1959978  73.1760014
   5.6819992  84.1219978  73.3140014   7.2539992  83.3379978  73.6920014
   5.4269992  82.0679978  73.5990014   4.4629992  81.9829978  73.0750014
   5.6349992  81.1359978  74.4740014   4.9259992  80.2949978  74.4670014
   6.8219992  80.9689978  75.3300014   7.6099992  81.7169978  75.1000014
   7.1439992  79.9459978  75.0380014   6.5999992  81.2329978  76.7670014
   6.0999992  82.1969978  77.0000014   7.5829992  81.2609978  77.2850014
   5.8239992  80.1619978  77.4880014   6.1329992  80.1519978  78.5560014
   6.0179992  79.1189978  77.1570014   4.2729992  80.4299978  77.6490014
   3.8959992  79.3989978  77.8210014   3.8199992  80.8669978  76.7330014
   3.8239992  81.3679978  78.8560014   4.4029992  80.8439978  79.6470014
   2.7269992  81.1999978  78.9020014   4.1879992  82.8809978  78.7220014
   3.7019992  83.3139978  77.8220014   5.2849992  83.0509978  78.7680014
   3.7069992  83.6689978  79.9800014   3.8879992  84.7419978  79.7570014
   4.4489992  83.4629978  80.7810014   2.2659992  83.4869978  80.3810014
   2.2989992  82.7439978  81.2060014   1.5819992  83.2199978  79.5470014
   1.9189992  84.5059978  80.6560014 119.5399992  34.4679978  82.3060014
 119.2759992  35.3789978  82.8840014 120.2499992  33.8139978  82.8570014
 118.5969992  33.8819978  82.3440014 119.8859992  34.7999978  80.8330014
 119.0329992  35.3929978  80.4380014 120.7589992  35.4849978  80.7900014
 120.3089992  33.5839978  79.9990014 120.9889992  33.0009978  80.6570014
 119.4429992  32.8949978  79.8960014 121.1099992  33.8849978  78.7340014
 122.0639992  34.2899978  79.1340014 121.3879992  32.8749978  78.3640014
 120.5289992  34.7559978  77.6260014 119.9119992  35.6149978  77.9660014
 121.2949992  35.2539978  76.9940014 119.6029992  33.9599978  76.6870014
 120.0919992  33.0539978  76.2690014 118.7429992  33.7069978  77.3440014
 119.0889992  34.8339978  75.6310014 118.3239992  35.4599978  76.1380014
 119.7829992  35.5599978  75.1570014 118.4089992  34.0329978  74.5180014
 117.9839992  34.7559978  73.7890014 119.2029992  33.5049978  73.9480014
 117.3129992  32.9769978  74.8900014 117.8859992  32.1219978  75.3070014
 116.7009992  33.4099978  75.7110014 116.5299992  32.4939978  73.6630014
 115.9569992  31.6369978  74.0780014 115.7369992  33.2039978  73.3450014
 117.3149992  32.0329978  72.4680014 117.8279992  32.7609978  71.8020014
 118.1549992  31.3489978  72.7140014 116.4659992  31.0699978  71.5830014
 115.9129992  30.4649978  72.3330014 115.8199992  31.5849978  70.8400014
 117.3629992  30.0679978  70.7630014 117.9539992  29.5429978  71.5430014
 116.6569992  29.2869978  70.4070014 118.1549992  30.6649978  69.6210014
 118.7479992  31.4639978  70.1160014 118.8619992  29.9469978  69.1530014
 117.2359992  31.3449978  68.5610014 117.7819992  31.3459978  67.5940014
 116.3029992  30.7439978  68.5130014 116.9179992  32.8169978  68.7930014
 115.8689992  33.2889978  69.2340014 117.9129992  33.5899978  68.4050014
 117.5479992  35.0099978  68.4470014 116.6689992  35.3589978  67.8650014
 117.5099992  35.3609978  69.5010014 118.7429992  35.6519978  67.6100014
 118.5919992  36.7489978  67.5180014 118.7089992  35.1859978  66.0890014
 117.6369992  35.2049978  65.7970014 119.2609992  35.9839978  65.5480014
 119.2739992  33.8769978  65.9400014 119.7799992  33.2959978  64.5320014
 118.5449992  32.5879978  63.8070014 117.4869992  31.8439978  64.5400014
 117.8139992  31.4799978  65.5380014 116.5499992  32.4319978  64.6450014
 116.9819992  30.6369978  63.6200014 116.2159992  30.0959978  64.1550014
 116.7249992  31.1089978  62.6830014 118.0619992  29.5269978  63.4350014
 117.4069992  28.1739978  63.6130014 116.6739992  28.1619978  62.8210014
 118.0229992  27.2879978  63.5650014 117.0119992  28.2519978  64.6160014
 118.5779992  29.6399978  62.0570014 119.3559992  28.9349978  61.8050014
 117.8069992  29.5449978  61.3060014 119.0179992  30.6219978  61.9580014
 119.2939992  29.6839978  64.3430014 119.0589992  29.7799978  65.3930014
 119.7999992  30.5689978  63.9880014 119.8219992  28.7439978  64.2900014
 120.1159992  34.4679978  63.7060014 120.8179992  32.3109978  64.9110014
 120.0169992  35.2519978  68.1210014 120.2899992  35.6739978  69.3520014
 119.6639992  36.4889978  70.0540014 121.5809992  35.1619978  69.8010014
 122.0759992  35.7709978  70.5880014 122.2589992  34.9429978  68.9490014
 121.3709992  33.7079978  70.3400014 120.5639992  33.0809978  69.9040014
 121.1449992  33.7829978  71.4250014 122.7899992  32.9939978  70.4150014
 123.5559992  33.7979978  70.3640014 123.0149992  32.5489978  69.4220014
 123.0009992  32.0209978  71.5740014 122.1379992  31.3239978  71.6200014
 123.0869992  32.5699978  72.5360014 124.2589992  31.1389978  71.4790014
 125.1599992  31.7629978  71.2930014 124.1869992  30.5699978  70.5280014
 124.4209992  30.1179978  72.6600014 124.3569992  30.7629978  73.5620014
 125.4519992  29.7059978  72.6270014 123.3379992  29.0229978  72.7730014
 123.3359992  28.4949978  71.7950014 122.2809992  29.3189978  72.9400014
 123.6949992  27.9469978  73.8360014 124.6359992  27.4129978  73.6380014
 122.9489992  27.6279978  74.9010014 123.2449992  26.7869978  75.5450014
 121.6799992  28.3319978  75.2710014 120.8699992  28.1889978  74.5230014
 121.8529992  29.4259978  75.3450014 121.2389992  28.0939978  76.7850014
 122.1209992  28.1749978  77.4560014 120.9489992  27.0289978  76.9020014
 120.2859992  29.1129978  77.4870014 120.4629992  30.1829978  77.2460014
 120.5139992  29.1159978  78.5750014 118.8649992  28.7479978  77.2120014
 118.6939992  27.8169978  77.7940014 118.7229992  28.5469978  76.1280014
 117.7199992  29.7439978  77.7230014 116.6979992  29.4919978  77.3690014
 117.8629992  30.7529978  77.2810014 117.5689992  29.8589978  79.2210014
 118.5579992  30.0329978  79.6960014 117.2549992  28.8979978  79.6830014
 116.7969992  31.0469978  79.6550014 115.8689992  31.1199978  79.0480014
 117.4199992  31.8759978  79.2590014 116.4779992  31.1729978  81.1420014
 116.1929992  32.2149978  81.3980014 117.4079992  30.8669978  81.6660014
 115.5679992  30.5979978  81.4200014 133.0049992  91.1429978  83.0150014
 132.1859992  91.0969978  83.7650014 133.9699992  91.1699978  83.5650014
 132.9299992  90.2109978  82.4140014 132.8469992  92.3529978  82.1570014
 131.9249992  92.3189978  81.5370014 132.6089992  93.2519978  82.7650014
 134.0539992  92.7409978  81.2870014 133.7849992  93.6099978  80.6490014
 134.8789992  93.0189978  81.9770014 134.6109992  91.7399978  80.2880014
 135.4459992  92.1839978  79.7040014 135.0179992  90.8629978  80.8360014
 133.6049992  91.2119978  79.2870014 134.1449992  90.4939978  78.6330014
 132.7999992  90.5939978  79.7400014 132.9919992  92.2619978  78.4060014
 132.8549992  93.2409978  78.9130014 133.8279992  92.3259978  77.6770014
 131.7719992  91.9349978  77.6230014 130.9349992  91.9859978  78.3530014
 131.5549992  92.6739978  76.8220014 131.7729992  90.4879978  77.0260014
 132.8669992  90.3829978  76.8590014 131.3149992  89.7159978  77.6810014
 131.2239992  90.4679978  75.5780014 131.0709992  89.4049978  75.2940014
 130.2279992  90.9459978  75.6980014 132.1859992  91.1709978  74.6670014
 132.3789992  92.2219978  74.9700014 133.1509992  90.6299978  74.5630014
 131.6869992  91.1419978  73.2050014 131.7279992  90.1259978  72.7570014
 130.6159992  91.4369978  73.1620014 132.5599992  91.9519978  72.2680014
 133.6259992  91.7309978  72.4910014 132.2799992  91.6559978  71.2340014
 132.3309992  93.5109978  72.3090014 131.2589992  93.7269978  72.1150014
 132.5319992  93.7389978  73.3770014 133.1739992  94.4109978  71.4660014
 132.8299992  95.4209978  71.7770014 134.2599992  94.2519978  71.6350014
 132.8839992  94.1249978  70.0090014 133.1759992  93.0929978  69.7180014
 131.7829992  94.1659978  69.8650014 133.6519992  95.1559978  69.2180014
 134.6679992  95.6969978  69.6390014 133.1369992  95.4329978  67.9990014
 133.7459992  96.5789978  67.4200014 133.0159992  97.2459978  66.9140014
 134.2199992  97.2289978  68.1870014 134.8379992  96.2139978  66.3790014
 135.3109992  97.0429978  65.8090014 134.2339992  95.2599978  65.2240014
 133.2029992  95.6329978  65.0430014 134.7129992  95.3579978  64.2270014
 134.2919992  93.8639978  65.6240014 133.0689992  92.9329978  65.5670014
 133.6919992  91.7079978  64.9730014 135.0409992  91.2779978  65.0440014
 135.5639992  91.5579978  65.9830014 135.0799992  90.1709978  65.1290014
 135.7719992  91.7469978  63.7490014 135.6339992  92.8179978  63.7120014
 136.7789992  91.3719978  63.8550014 135.2539992  91.3879978  62.3360014
 135.2409992  89.8359978  62.2410014 134.4979992  89.5549978  62.9730014
 135.0809992  89.4409978  61.2480014 136.2359992  89.5739978  62.5680014
 133.8879992  91.9319978  62.0880014 133.1579992  91.5249978  62.7720014
 133.9729992  92.9789978  62.3400014 133.6529992  91.7659978  61.0480014
 136.2429992  91.9369978  61.3230014 137.1799992  91.4389978  61.5260014
 136.4699992  92.9729978  61.5260014 135.9019992  91.7849978  60.3090014
 132.6129992  92.6669978  66.9610014 132.0249992  93.5029978  64.6010014
 135.9319992  95.4959978  67.0490014 137.0359992  95.3479978  66.3320014
 137.1749992  95.6899978  65.1380014 138.2019992  94.6749978  67.0730014
 138.6199992  95.3619978  67.8400014 139.1159992  94.4719978  66.4750014
 137.6489992  93.4009978  67.6710014 136.9899992  92.8719978  66.9500014
 136.8439992  93.6749978  68.3850014 138.5359992  92.3149978  68.2210014
 139.2949992  92.8419978  68.8380014 139.0309992  91.7899978  67.3760014
 137.8979992  91.1879978  68.9880014 138.7789992  90.5259978  69.1270014
 137.0479992  90.7439978  68.4250014 137.5549992  91.5339978  70.4360014
 137.1839992  90.5599978  70.8210014 136.7309992  92.2759978  70.5040014
 138.6249992  91.9779978  71.4390014 138.9709992  93.0079978  71.2100014
 139.5279992  91.3369978  71.3490014 138.1219992  92.0359978  72.8740014
 139.0459992  92.3169978  73.4230014 137.9269992  91.0259978  73.2960014
 136.9999992  92.9489978  73.0770014 136.0449992  92.6629978  72.6120014
 137.0679992  94.0419978  73.8070014 136.1459992  94.6269978  73.9420014
 138.3499992  94.5879978  74.4980014 138.4779992  95.6369978  74.1560014
 139.3289992  94.1479978  74.2120014 138.1569992  94.4959978  76.0120014
 138.9079992  95.1759978  76.4700014 138.3489992  93.4519978  76.3390014
 136.7899992  94.9579978  76.5430014 136.0209992  94.1689978  76.3960014
 136.2729992  95.7769978  76.0000014 136.5969992  95.1959978  78.0550014
 137.6209992  95.3809978  78.4450014 136.2289992  94.2379978  78.4820014
 135.7009992  96.3369978  78.4830014 134.6509992  96.0029978  78.3470014
 135.9369992  97.2239978  77.8580014 136.1109992  96.7329978  79.9340014
 137.1409992  97.1249978  79.7930014 136.1099992  95.7909978  80.5220014
 135.2919992  97.8899978  80.6050014 135.5419992  98.8629978  80.1320014
 135.6499992  97.8789978  81.6570014 133.7409992  97.7689978  80.6960014
 133.2879992  97.9279978  79.6940014 133.4419992  98.5549978  81.4220014
 133.5149992  96.7479978  81.0720014 125.9009992 111.8819978  80.8850014
 126.7539992 111.2559978  80.5460014 125.0449992 111.2929978  81.2760014
 126.2299992 112.3819978  81.8210014 125.5839992 112.8679978  79.7790014
 124.9409992 113.6349978  80.2610014 126.5549992 113.2879978  79.4410014
 124.9269992 112.2749978  78.5720014 125.6029992 111.5419978  78.0830014
 123.9839992 111.7869978  78.9000014 124.4409992 113.4019978  77.5790014
 123.7629992 114.1519978  78.0400014 125.2899992 114.0339978  77.2410014
 123.6299992 112.7779978  76.4770014 122.6709992 112.3349978  76.8220014
 123.3929992 113.6079978  75.7780014 124.2869992 111.7899978  75.5540014
 125.1059992 112.2279978  74.9430014 124.7069992 110.9409978  76.1350014
 123.2309992 111.3259978  74.6010014 122.3539992 110.8029978  75.0390014
 122.8589992 112.2389978  74.0890014 123.6699992 110.4809978  73.3840014
 124.5889992 110.8939978  72.9160014 124.0979992 109.5229978  73.7490014
 122.5039992 110.2599978  72.4370014 121.7299992 109.7389978  73.0410014
 122.2159992 111.2789978  72.1010014 122.8579992 109.2469978  71.2290014
 123.5179992 109.8129978  70.5380014 123.4609992 108.4469978  71.7090014
 121.6849992 108.5759978  70.5730014 121.9869992 107.7479978  69.8960014
 121.0759992 108.2459978  71.4410014 120.7949992 109.5339978  69.8170014
 119.8479992 108.9609978  69.7230014 120.4209992 110.4019978  70.4000014
 121.3869992 109.9779978  68.4750014 122.3199992 110.5779978  68.5200014
 121.6329992 109.1349978  67.7940014 120.3999992 110.9609978  67.8100014
 120.4579992 110.8129978  66.7100014 119.3499992 110.6969978  68.0620014
 120.4959992 112.4799978  68.0270014 120.4249992 112.6469978  69.1230014
 121.5219992 112.8159978  67.7620014 119.3039992 113.2419978  67.3120014
 118.3069992 112.6779978  66.9390014 119.7149992 114.4279978  67.0130014
 118.8429992 115.2579978  66.1770014 117.9039992 114.7279978  65.9120014
 118.6669992 116.1459978  66.8210014 119.6449992 115.7599978  64.9430014
 119.1269992 116.6229978  64.4730014 119.8769992 114.7309978  63.8920014
 119.0179992 114.0369978  63.7680014 120.1359992 115.2779978  62.9600014
 121.0289992 114.0129978  64.2080014 121.6059992 112.7539978  63.4800014
 122.9099992 112.5389978  64.3200014 123.4239992 113.3389978  65.3430014
 122.6159992 114.0279978  65.6720014 123.6689992 112.7409978  66.2470014
 124.5539992 114.2439978  64.9150014 124.1739992 114.9529978  64.1950014
 124.9079992 114.8529978  65.7340014 125.7859992 113.6529978  64.2400014
 125.4359992 113.0139978  62.8750014 125.2159992 113.7639978  62.1300014
 126.2749992 112.4499978  62.4940014 124.6779992 112.2529978  62.9890014
 126.6879992 114.8329978  64.0460014 126.6299992 115.4849978  64.9040014
 127.7079992 114.4829978  63.9880014 126.4309992 115.4679978  63.2110014
 126.4759992 112.7149978  65.1650014 125.8319992 111.8549978  65.2730014
 126.7519992 113.1529978  66.1130014 127.3709992 112.2609978  64.7650014
 120.6369992 111.6609978  63.8420014 122.0029992 113.0329978  62.0720014
 120.8039992 116.3829978  65.5820014 121.5889992 117.2499978  64.9140014
 121.4939992 117.4869978  63.7130014 122.5159992 117.9309978  65.9260014
 121.8329992 118.2839978  66.7270014 123.1439992 118.7719978  65.5630014
 123.3869992 116.7749978  66.4340014 124.1899992 116.5539978  65.6980014
 122.8069992 115.8599978  66.6810014 124.0509992 117.2119978  67.7880014
 123.2849992 117.6599978  68.4570014 124.7549992 118.0579978  67.6350014
 124.9579992 116.1749978  68.4520014 125.7779992 116.6479978  69.0350014
 125.4889992 115.6039978  67.6610014 124.2749992 115.1629978  69.3650014
 124.9259992 114.2709978  69.4900014 123.4689992 114.8119978  68.6850014
 123.7319992 115.7829978  70.6350014 123.0969992 116.6819978  70.4850014
 124.7069992 116.0929978  71.0680014 123.1079992 114.7819978  71.6680014
 122.7969992 115.4259978  72.5180014 123.9429992 114.1969978  72.1110014
 121.9299992 113.8559978  71.2590014 122.2199992 112.9549978  70.7000014
 120.6239992 114.1379978  71.4610014 119.8489992 113.4519978  71.0880014
 120.0619992 115.4039978  72.1360014 119.7379992 116.1299978  71.3590014
 120.7749992 115.9789978  72.7650014 118.8059992 115.1239978  72.9740014
 118.0729992 114.5629978  72.3560014 118.3049992 116.0779978  73.2440014
 119.2359992 114.3729978  74.2600014 120.1909992 113.8259978  74.1060014
 118.4069992 113.7479978  74.6570014 119.7119992 115.3739978  75.3850014
 118.8549992 116.0779978  75.4480014 120.6249992 115.9189978  75.0650014
 119.9179992 114.6239978  76.7330014 120.5699992 113.7819978  76.4180014
 118.9509992 114.1259978  76.9570014 120.3669992 115.4589978  77.8940014
 119.6339992 116.2829978  78.0270014 121.3549992 115.9189978  77.6780014
 120.6379992 114.6099978  79.1470014 121.2229992 113.7109978  78.8580014
 119.6539992 114.2689978  79.5370014 121.3639992 115.4209978  80.2620014
 122.2969992 115.9169978  79.9190014 121.6109992 114.7689978  81.1270014
 120.6329992 116.1689978  80.6370014 135.9469992  71.2679978  80.8520014
 135.2049992  71.1499978  81.6710014 136.5409992  72.2039978  80.9140014
 136.5959992  70.3849978  81.0380014 135.2229992  71.2379978  79.5160014
 134.8469992  70.1999978  79.3980014 134.3439992  71.9179978  79.5400014
 135.9649992  71.7299978  78.3480014 136.2659992  72.7939978  78.4530014
 136.9119992  71.1509978  78.3070014 135.0919992  71.7189978  77.0390014
 134.8539992  70.6419978  76.9080014 134.1429992  72.1929978  77.3700014
 135.7419992  72.3039978  75.8240014 134.9629992  72.9859978  75.4220014
 136.5699992  72.9829978  76.1190014 136.2989992  71.3689978  74.7600014
 135.8909992  70.3559978  74.9650014 136.0019992  71.5879978  73.7120014
 137.7879992  71.3459978  74.6320014 138.3249992  71.2089978  75.5960014
 138.0969992  70.4799978  74.0090014 138.2679992  72.5929978  73.9470014
 137.6109992  72.8289978  73.0830014 138.1219992  73.4759978  74.6050014
 139.6599992  72.4579978  73.4200014 140.3609992  72.4219978  74.2810014
 139.8449992  71.4999978  72.8890014 140.1029992  73.5989978  72.3590014
 141.2039992  73.4859978  72.2570014 139.5749992  73.4319978  71.3960014
 139.6579992  75.0169978  72.7890014 138.5499992  74.9829978  72.8720014
 140.1589992  75.2149978  73.7600014 140.1679992  76.0989978  71.8610014
 140.1919992  77.0999978  72.3420014 141.2029992  75.7689978  71.6280014
 139.3769992  76.1129978  70.6070014 139.5239992  75.1109978  70.1490014
 138.2949992  76.3139978  70.7570014 139.8989992  77.1319978  69.5460014
 139.7329992  78.1899978  69.8410014 140.9909992  76.9609978  69.4360014
 139.1709992  76.8599978  68.1760014 138.1179992  76.7279978  68.5040014
 139.2219992  77.7159978  67.4690014 139.8439992  75.5909978  67.4220014
 141.0179992  75.4829978  67.0850014 138.8619992  74.6029978  67.2930014
 139.3269992  73.4699978  66.5880014 139.4099992  73.6199978  65.4900014
 140.3099992  73.1199978  66.9700014 138.3579992  72.2169978  66.8650014
 138.9529992  71.3629978  66.4770014 137.0329992  72.3559978  66.2040014
 137.3349992  72.6819978  65.1860014 136.4659992  71.4029978  66.2760014
 136.3339992  73.4599978  66.7220014 135.0869992  73.9649978  65.9870014
 135.5419992  74.4209978  64.5930014 136.6429992  75.2509978  64.2030014
 136.1649992  76.0099978  63.5480014 137.0699992  75.8879978  65.0070014
 137.8189992  74.5219978  63.4120014 138.5199992  75.2709978  63.0760014
 138.3149992  73.7889978  64.0310014 137.3359992  73.8129978  62.1060014
 136.5339992  72.6309978  62.4230014 135.5949992  72.9559978  62.8470014
 136.4669992  72.0759978  61.4980014 137.0019992  72.0159978  63.1770014
 136.5229992  74.7299978  61.3090014 135.5669992  75.0109978  61.7280014
 136.9869992  75.6269978  60.9270014 136.2719992  74.2319978  60.3840014
 138.5239992  73.4179978  61.2090014 139.1629992  72.7169978  61.7260014
 139.1639992  74.2799978  61.0900014 138.2029992  73.0179978  60.2590014
 134.0629992  72.9729978  65.7750014 134.6959992  75.1559978  66.7670014
 138.1049992  72.1819978  68.2980014 138.0389992  71.0009978  68.8080014
 138.2459992  69.9159978  68.2860014 137.8659992  71.0879978  70.3850014
 137.2909992  72.0249978  70.5460014 138.8059992  71.2419978  70.9570014
 137.1009992  69.7639978  70.8680014 137.1109992  69.8219978  71.9770014
 137.7729992  68.9339978  70.5610014 135.6739992  69.5719978  70.3490014
 135.3889992  68.5939978  70.7920014 135.7649992  69.4049978  69.2540014
 134.6549992  70.6859978  70.7380014 135.2109992  71.3479978  71.4350014
 133.7699992  70.4139978  71.3520014 134.1569992  71.5509978  69.6110014
 133.3779992  70.9599978  69.0840014 135.0609992  71.6419978  68.9720014
 133.6079992  72.9489978  70.0220014 133.0869992  72.8719978  71.0010014
 132.8809992  73.3009978  69.2590014 134.7609992  73.9859978  70.2440014
 135.4099992  74.0789978  69.3480014 135.3269992  73.5219978  71.0810014
 134.2669992  75.3389978  70.6330014 133.9559992  75.9329978  69.7620014
 134.1739992  76.0029978  71.8090014 133.6299992  76.9589978  71.8290014
 134.5439992  75.4679978  73.1750014 135.1859992  74.5639978  73.1110014
 133.6939992  75.1249978  73.8030014 135.3819992  76.5399978  73.9250014
 134.6819992  77.3629978  74.1850014 136.2129992  76.8799978  73.2720014
 136.0329992  75.9589978  75.1940014 137.1209992  76.1569978  75.2940014
 136.0149992  74.8539978  75.0830014 135.3319992  76.2529978  76.5250014
 134.3299992  75.7759978  76.5820014 135.2209992  77.3579978  76.5420014
 136.1989992  75.7629978  77.6820014 137.2119992  76.1909978  77.5250014
 136.1299992  74.6619978  77.5560014 135.7649992  76.2789978  79.0330014
 134.7669992  75.8219978  79.2070014 135.8619992  77.3719978  78.8590014
 136.7619992  75.8479978  80.1970014 137.5809992  75.3219978  79.6620014
 136.2299992  75.2019978  80.9280014 137.3399992  76.9619978  81.0220014
 136.4019992  77.3249978  81.4940014 137.8249992  77.6869978  80.3330014
 138.0509992  76.6019978  81.7960014  19.2909992 115.0979978  81.3750014
  18.4539992 115.2439978  82.0910014  19.1759992 115.8659978  80.5800014
  20.1769992 115.3429978  81.9990014  19.2989992 113.7739978  80.7840014
  19.9379992 113.6449978  79.8850014  19.7049992 113.0279978  81.5000014
  17.8629992 113.4039978  80.4980014  17.3559992 113.2019978  81.4650014
  17.2719992 114.2189978  80.0290014  17.6409992 112.1829978  79.6140014
  18.2099992 111.4039978  80.1650014  16.5559992 111.9489978  79.5670014
  18.0909992 112.2369978  78.1680014  17.8559992 113.2079978  77.6820014
  19.1519992 111.9309978  78.0450014  17.3469992 111.2659978  77.2130014
  17.3999992 110.2519978  77.6650014  16.2709992 111.5339978  77.1490014
  17.9729992 111.3369978  75.8330014  17.8209992 112.3649978  75.4400014
  19.0329992 111.0119978  75.7650014  17.2759992 110.4769978  74.7560014
  17.1789992 109.4339978  75.1240014  16.3029992 110.9249978  74.4590014
  17.9669992 110.3689978  73.3390014  18.3439992 111.2799978  72.8260014
  18.8499992 109.7199978  73.5250014  17.0799992 109.5059978  72.3270014
  17.7339992 109.0109978  71.5770014  16.5659992 108.8469978  73.0580014
  16.0989992 110.4139978  71.5490014  15.2869992 110.5359978  72.2980014
  16.4049992 111.3939978  71.1250014  15.4099992 109.7509978  70.3810014
  16.2279992 109.3179978  69.7660014  14.7879992 108.9049978  70.7450014
  14.5649992 110.6699978  69.5190014  15.2139992 111.3809978  68.9650014
  14.0369992 110.0309978  68.7790014  13.4819992 111.5169978  70.1680014
  12.7769992 110.7509978  70.5570014  13.8099992 112.2209978  70.9620014
  12.8579992 112.3839978  69.0220014  13.0139992 111.9899978  67.9950014
  11.7839992 112.2979978  69.2920014  13.3119992 113.8469978  69.1560014
  13.1459992 114.5169978  70.1660014  13.6879992 114.3599978  67.9560014
  14.2809992 115.7449978  67.9910014  13.9229992 116.3579978  67.1360014
  14.0369992 116.3049978  68.9180014  15.8399992 115.5689978  67.9250014
  16.3009992 116.5719978  67.7990014  16.4349992 114.8639978  66.6250014
  15.7849992 115.1969978  65.7880014  17.5179992 115.0689978  66.4890014
  16.2619992 113.4479978  66.8360014  16.0849992 112.3689978  65.8040014
  17.5609992 112.4429978  65.1720014  17.7809992 111.6879978  63.9810014
  18.8329992 111.3659978  63.8230014  17.2929992 110.6929978  64.0390014
  17.2539992 112.4229978  62.6520014  17.7479992 111.8409978  61.8880014
  16.1769992 112.3459978  62.6400014  17.7099992 113.8329978  62.3370014
  16.9759992 114.9419978  62.9870014  15.9509992 114.8409978  62.6630014
  17.0869992 114.9379978  64.0620014  17.3229992 115.8659978  62.5480014
  19.2319992 113.9699978  62.6810014  19.4089992 113.6399978  63.6940014
  19.7479992 113.3219978  61.9890014  19.4929992 114.9979978  62.4760014
  17.4249992 113.8469978  60.8200014  16.3909992 113.5779978  60.6670014
  18.1059992 113.1779978  60.3150014  17.6119992 114.8549978  60.4820014
  15.9579992 111.0929978  66.4260014  15.0749992 112.7439978  64.8090014
  16.1569992 114.8739978  69.1980014  17.3889992 114.4489978  69.4960014
  18.3839992 114.3959978  68.8400014  17.2769992 114.1029978  71.0500014
  18.1129992 113.4479978  71.3760014  16.3549992 113.4869978  71.1250014
  17.1229992 115.3719978  71.9240014  17.1829992 116.2809978  71.2890014
  18.0779992 115.1839978  72.4600014  15.8039992 115.3989978  72.7120014
  14.9729992 115.0949978  72.0400014  15.5699992 116.4329978  73.0420014
  15.9109992 114.5969978  73.9600014  16.6619992 115.1709978  74.5440014
  16.2649992 113.5839978  73.6740014  14.6529992 114.5179978  74.7510014
  14.4359992 115.5589978  75.0710014  14.9659992 114.0359978  75.7020014
  13.4339992 114.0179978  73.9670014  13.6589992 113.0229978  73.5270014
  13.2519992 114.7439978  73.1450014  12.1819992 113.8689978  74.8650014
  11.2509992 113.5639978  74.3430014  12.0009992 114.8359978  75.3820014
  12.6249992 112.8909978  75.9290014  12.9989992 111.9689978  75.4600014
  12.6799992 113.1029978  77.2610014  13.0439992 112.2429978  77.8430014
  12.2249992 114.3539978  78.0280014  11.1869992 114.2709978  78.4150014
  12.1169992 115.2509978  77.3810014  13.2759992 114.7639978  79.1050014
  13.0499992 115.8199978  79.3660014  14.2899992 114.9049978  78.6710014
  13.3799992 113.8829978  80.3560014  14.0469992 114.3669978  81.1010014
  13.8819992 112.9149978  80.1430014  12.0659992 113.5479978  81.0740014
  11.4449992 112.8699978  80.4500014  11.5529992 114.5329978  81.0850014
  12.0899992 113.0719978  82.5350014  12.4769992 113.8139978  83.2660014
  12.7759992 112.1999978  82.5980014  10.6719992 112.5289978  83.0450014
  10.2859992 111.8069978  82.2940014   9.8769992 113.2979978  82.9410014
  10.7169992 112.0199978  84.4240014   9.7369992 111.6329978  84.7740014
  10.9329992 112.9199978  85.0400014  11.7889992 110.9899978  84.7200014
  11.6519992 110.4069978  85.6560014  12.8079992 111.4309978  84.7120014
  11.6509992 110.1929978  83.9570014  68.7419992  14.8999978  82.9460014
  69.6439992  14.6069978  83.5240014  68.1379992  13.9809978  82.7850014
  68.1759992  15.7649978  83.3540014  69.1539992  15.2949978  81.5410014
  68.2439992  15.4369978  80.9190014  69.6389992  16.2939978  81.5890014
  70.0929992  14.3309978  80.7870014  70.4009992  14.7329978  79.7980014
  71.0039992  14.0559978  81.3600014  69.3769992  12.9839978  80.5500014
  69.2479992  12.5589978  81.5680014  68.3279992  13.2449978  80.2920014
  70.0909992  11.8799978  79.5840014  71.0499992  11.6099978  80.0780014
  69.3709992  11.0349978  79.6140014  70.3639992  12.2589978  78.0950014
  71.2499992  12.9279978  78.0800014  70.5949992  11.3099978  77.5670014
  69.3069992  13.0029978  77.3850014  68.3529992  12.4469978  77.4980014
  69.2289992  14.0569978  77.7290014  69.6129992  13.0019978  75.8840014
  70.5099992  13.6269978  75.6920014  69.7219992  11.9889978  75.4400014
  68.5229992  13.7329978  74.9970014  67.5259992  13.2509978  75.0780014
  68.4789992  14.8199978  75.2230014  68.7559992  13.7079978  73.5400014
  69.7259992  14.2179978  73.3550014  68.9269992  12.6609978  73.2110014
  67.5389992  14.3899978  72.7970014  66.5909992  13.8929978  73.0950014
  67.5759992  15.4529978  73.1160014  67.6479992  14.3039978  71.2440014
  67.3889992  13.2309978  71.1210014  66.7659992  14.8149978  70.8030014
  68.9969992  14.6519978  70.8120014  69.3819992  15.5689978  71.3080014
  69.6959992  13.8119978  71.0110014  68.9859992  14.9299978  69.2340014
  68.2689992  15.6899978  68.8560014  70.0319992  15.1909978  68.9630014
  68.5859992  13.6879978  68.3960014  67.5739992  13.3419978  68.6950014
  68.4819992  14.1409978  67.3870014  69.5709992  12.5639978  68.2480014
  70.3019992  12.2089978  69.1440014  69.3429992  11.8759978  67.1500014
  70.4109992  10.8839978  66.8850014  71.4459992  11.2569978  66.7270014
  70.4789992  10.1939978  67.7540014  70.0679992  10.0399978  65.6220014
  70.8059992   9.2349978  65.4170014  70.1359992  10.8769978  64.2720014
  71.1569992  11.2769978  64.0950014  69.8909992   9.9869978  63.6530014
  69.1409992  11.9559978  64.2650014  69.0249992  12.7269978  62.9180014
  67.6409992  13.4789978  63.0070014  67.3569992  14.3189978  64.1790014
  68.0879992  14.2169978  65.0100014  67.4249992  15.4019978  63.9410014
  65.9679992  14.1279978  64.7500014  65.8889992  14.7419978  65.6350014
  65.2319992  14.5639978  64.0900014  65.5329992  12.7569978  65.0860014
  64.2459992  12.7529978  65.9100014  63.4559992  13.0169978  65.2240014
  64.0379992  11.7519978  66.2580014  64.2539992  13.4179978  66.7620014
  65.2559992  11.9739978  63.7540014  64.9919992  10.9399978  63.9170014
  64.5519992  12.4959978  63.1230014  66.1549992  11.9919978  63.1560014
  66.4929992  11.9739978  65.9190014  66.8659992  12.5579978  66.7470014
  67.3129992  11.7339978  65.2580014  65.9979992  11.0299978  66.0910014
  70.1299992  13.6899978  62.9030014  68.9989992  11.7469978  61.8150014
  68.7419992   9.5939978  65.9260014  68.7179992   8.5249978  66.7390014
  69.6869992   7.8989978  67.1800014  67.2609992   8.0579978  66.9880014
  67.3059992   6.9509978  66.9120014  66.6309992   8.3899978  66.1350014
  66.6749992   8.4509978  68.3580014  67.4729992   8.1799978  69.0810014
  65.8129992   7.7939978  68.6050014  66.2799992   9.8319978  68.6980014
  65.4639992  10.2109978  68.0470014  67.2509992  10.3699978  68.7330014
  65.6699992  10.0359978  70.1370014  64.8999992   9.2789978  70.4000014
  65.1399992  11.0119978  70.1630014  66.6669992  10.1409978  71.2130014
  67.3799992  10.9579978  70.9700014  67.2919992   9.2219978  71.2200014
  66.1739992  10.4739978  72.6190014  65.7039992  11.4799978  72.6180014
  67.0479992  10.5539978  73.3000014  65.2869992   9.4549978  73.3880014
  64.4539992   9.3089978  72.6670014  64.7809992   9.8789978  74.2810014
  65.7939992   8.0329978  73.6580014  65.2289992   7.2729978  73.0980014
  66.7399992   7.5969978  74.5610014  67.0549992   6.5439978  74.5110014
  67.5409992   8.4339978  75.5690014  67.0689992   9.4289978  75.7080014
  68.5869992   8.5749978  75.2230014  67.6679992   7.7659978  76.9790014
  67.8079992   6.6669978  76.9000014  66.7669992   8.0189978  77.5780014
  68.7989992   8.5339978  77.7950014  68.6419992   9.6159978  77.5960014
  69.8019992   8.2039978  77.4490014  68.6519992   8.2159978  79.3150014
  69.4519992   8.7429978  79.8760014  68.8409992   7.1219978  79.3100014
  67.4359992   8.5119978  80.0430014  67.6229992   8.0829978  81.0510014
  66.5669992   7.9839978  79.5940014  66.9649992   9.9929978  80.1840014
  66.8839992  10.4379978  79.1700014  67.7669992  10.6399978  80.5980014
  65.6239992  10.3229978  80.7870014  65.5889992   9.8859978  81.8080014
  64.8079992   9.8619978  80.1910014  65.3449992  11.8209978  80.7300014
  65.8729992  12.3049978  81.5790014  64.2549992  12.0119978  80.6320014
  65.8219992  12.1969978  79.8000014  84.6619992 132.6919978  81.5660014
  85.5969992 132.1629978  81.8480014  83.8589992 131.9709978  81.3020014
  84.4079992 133.2769978  82.4750014  84.7249992 133.5869978  80.3270014
  83.9459992 134.3779978  80.3800014  85.7319992 134.0449978  80.4360014
  84.5609992 132.9349978  78.8630014  85.3899992 132.2219978  78.6690014
  83.5659992 132.4399978  78.8520014  84.5529992 133.9159978  77.6560014
  83.6199992 134.4889978  77.8440014  85.4599992 134.5569978  77.6640014
  84.3869992 133.2189978  76.2340014  83.2829992 133.1139978  76.1680014
  84.5889992 134.0519978  75.5270014  84.9989992 131.8729978  75.9380014
  84.5709992 131.0349978  76.5300014  84.6659992 131.8279978  74.8790014
  86.5149992 131.8179978  76.0370014  86.9089992 132.8549978  76.1080014
  86.7099992 131.2309978  76.9600014  87.1559992 131.0669978  74.8330014
  86.6679992 131.5019978  73.9350014  88.2379992 131.2149978  74.6280014
  86.8919992 129.5079978  74.8420014  87.1469992 129.1139978  75.8490014
  85.7979992 129.4379978  74.6610014  87.8139992 128.6659978  73.8810014
  88.7999992 129.0489978  74.2210014  87.8669992 127.6519978  74.3320014
  87.6309992 128.7709978  72.3810014  87.4269992 129.8539978  72.2340014
  88.5459992 128.4219978  71.8580014  86.4049992 128.0529978  71.7350014
  86.3859992 126.9539978  71.8930014  85.5169992 128.5549978  72.1750014
  86.2789992 128.5259978  70.2540014  86.4379992 129.6209978  70.1570014
  86.9759992 128.0429978  69.5360014  84.8659992 128.1519978  69.7560014
  84.8919992 128.0969978  68.6460014  84.4709992 127.1729978  70.1020014
  83.8159992 129.1789978  70.2170014  83.6699992 128.9799978  71.3010014
  84.1469992 130.2329978  70.0950014  82.5089992 128.9849978  69.3390014
  82.3429992 128.0539978  68.5940014  81.7389992 130.0269978  69.4790014
  80.6859992 130.1979978  68.5490014  80.3739992 129.2039978  68.1620014
  79.8189992 130.6609978  69.0680014  81.0159992 131.2039978  67.4630014
  80.1069992 131.4369978  66.8680014  82.0799992 130.6219978  66.3990014
  81.6779992 129.6149978  66.1550014  81.8729992 131.2659978  65.5190014
  83.4689992 130.7629978  66.9050014  84.5969992 130.3799978  65.8850014
  84.1469992 131.2289978  64.6160014  84.4539992 132.6549978  64.6780014
  83.9969992 133.1489978  65.5630014  85.5409992 132.8479978  64.7950014
  84.0389992 133.2609978  63.3060014  83.0309992 133.0119978  63.0070014
  83.9329992 134.2959978  63.5940014  84.9909992 133.1349978  62.1280014
  85.2729992 131.6569978  61.8630014  85.9599992 131.6049978  61.0310014
  85.6769992 131.1939978  62.7510014  84.3169992 131.1849978  61.6930014
  84.3269992 133.6509978  60.8090014  85.0879992 133.4979978  60.0580014
  83.4699992 133.0459978  60.5530014  83.9769992 134.6729978  60.8130014
  86.3229992 133.7609978  62.3900014  86.9739992 133.4029978  61.6060014
  86.6069992 133.5179978  63.4040014  86.3289992 134.8309978  62.2450014
  85.9029992 130.9039978  66.4140014  84.5939992 128.9249978  65.5110014
  81.5349992 132.3659978  68.0150014  81.5239992 133.4679978  67.3380014
  80.8139992 133.7709978  66.3570014  82.4389992 134.5089978  68.1380014
  81.9029992 135.1099978  68.9030014  82.7889992 135.2219978  67.3610014
  83.6429992 133.6919978  68.7930014  84.3019992 133.3039978  67.9870014
  83.3089992 132.7649978  69.3080014  84.3159992 134.5579978  69.7870014
  83.5879992 135.2819978  70.2120014  85.0939992 135.2029978  69.3270014
  85.0479992 133.7999978  70.9500014  85.8349992 134.4779978  71.3450014
  85.6479992 132.9389978  70.5840014  84.2829992 133.3279978  72.1840014
  83.9919992 134.2579978  72.7170014  84.9839992 132.8409978  72.8950014
  82.9529992 132.5339978  71.8990014  83.2799992 131.6989978  71.2440014
  82.2749992 133.1689978  71.2900014  82.2439992 132.1699978  73.2040014
  81.9239992 133.1139978  73.6960014  82.9209992 131.6559978  73.9200014
  80.9409992 131.4089978  73.0520014  80.0529992 132.0239978  72.8460014
  80.7969992 130.0859978  73.1160014  79.7509992 129.7549978  73.0300014
  81.8599992 129.0599978  73.3000014  82.8849992 129.4689978  73.4320014
  81.8889992 128.2069978  72.5890014  81.6959992 128.4399978  74.7440014
  82.6579992 127.9169978  74.9320014  80.8089992 127.8059978  74.9550014
  81.7659992 129.4789978  75.8530014  80.7839992 129.9409978  76.0920014
  82.3599992 130.2889978  75.3770014  82.3169992 128.9709978  77.1580014
  83.4199992 129.0999978  77.1520014  82.1159992 127.8829978  77.2610014
  81.8289992 129.7409978  78.3770014  80.7319992 129.5909978  78.4640014
  82.0219992 130.8099978  78.1450014  82.5179992 129.3539978  79.7490014
  82.1479992 128.3459978  80.0320014  82.2529992 130.1579978  80.4680014
  84.0659992 129.3079978  79.6820014  84.3429992 130.3459978  79.3990014
  84.4419992 128.5699978  78.9410014  84.7689992 128.8579978  80.9470014
  84.3889992 127.8699978  81.2860014  84.5859992 129.6389978  81.7160014
  85.8709992 128.8279978  80.8070014  75.3339992   5.4359978  84.6430014
  74.8979992   5.9249978  85.5400014  75.7159992   4.4809978  85.0610014
  74.6119992   5.0509978  83.8920014  76.2779992   6.3059978  83.9020014
  77.0599992   6.5759978  84.6440014  76.7009992   5.7599978  83.0330014
  75.6479992   7.6389978  83.4780014  75.3749992   8.2469978  84.3670014
  76.3489992   8.3029978  82.9280014  74.3769992   7.4119978  82.5770014
  74.6379992   6.5189978  81.9690014  73.5829992   6.9089978  83.1690014
  73.9529992   8.6679978  81.8050014  74.1679992   9.5599978  82.4320014
  74.5469992   8.9069978  80.8980014  72.4919992   8.6729978  81.4310014
  71.7449992   8.4909978  82.2340014  72.2729992   9.7489978  81.2620014
  72.0389992   7.9059978  80.1160014  72.4709992   6.8839978  80.0590014
  70.9429992   7.7389978  80.1880014  72.2959992   8.6329978  78.8340014
  72.0949992   9.7079978  79.0280014  73.3249992   8.4669978  78.4490014
  71.3189992   8.2839978  77.6690014  70.2679992   8.4059978  78.0070014
  71.4799992   9.0379978  76.8690014  71.4099992   6.8079978  77.1010014
  70.8629992   6.2089978  77.8600014  70.7999992   6.8269978  76.1730014
  72.8299992   6.2799978  76.9300014  73.6249992   6.7179978  77.5700014
  72.6349992   5.2669978  77.3430014  73.2599992   6.1599978  75.4510014
  74.1659992   5.5189978  75.3940014  72.4729992   5.6699978  74.8390014
  73.5459992   7.5919978  74.8150014  72.5059992   7.9589978  74.6820014
  74.1739992   8.0739978  75.5940014  74.2379992   7.6179978  73.5060014
  74.7419992   8.5899978  73.3190014  75.0479992   6.8579978  73.4800014
  73.2869992   7.3399978  72.3670014  72.9219992   6.3019978  72.5200014
  72.5349992   8.1569978  72.3440014  74.0569992   7.3289978  71.1140014
  74.6319992   6.4139978  70.6120014  73.9939992   8.5459978  70.6030014
  74.5339992   8.6659978  69.2970014  75.6419992   8.6089978  69.3640014
  74.2619992   7.7789978  68.6870014  74.0119992   9.9799978  68.6100014
  72.9029992   9.9099978  68.6090014  74.4899992  10.0139978  67.1530014
  74.1879992   9.0609978  66.6690014  74.0119992  10.8019978  66.5330014
  75.9309992  10.1159978  67.0020014  76.7159992   9.7059978  65.6250014
  75.6209992   9.2379978  64.5570014  74.8199992  10.1619978  63.7940014
  74.4709992  11.0219978  64.4040014  75.4309992  10.5319978  62.9430014
  73.6749992   9.5159978  62.9780014  72.8259992   9.5559978  63.6450014
  73.4889992  10.1179978  62.1010014  73.8379992   8.0599978  62.4490014
  73.8259992   7.1169978  63.6380014  74.0469992   6.0819978  63.4230014
  74.5329992   7.4769978  64.3720014  72.8159992   7.1749978  64.0150014
  72.6779992   7.7249978  61.5200014  71.8079992   7.9759978  62.1090014
  72.6129992   8.2969978  60.6060014  72.7819992   6.6779978  61.2760014
  75.2209992   7.9609978  61.7730014  75.4019992   8.8299978  61.1580014
  75.2689992   7.0899978  61.1370014  75.9599992   7.9659978  62.5610014
  77.3949992  10.8929978  65.1220014  77.5729992   8.6039978  66.0470014
  74.5069992  11.1109978  69.3410014  73.9849992  12.2649978  68.9590014
  73.1009992  12.4729978  68.1260014  74.6689992  13.3299978  69.7900014
  74.2959992  14.3429978  69.5300014  75.7599992  13.3319978  69.5770014
  74.5119992  13.1579978  71.3120014  75.0519992  14.0179978  71.7630014
  75.0239992  12.2399978  71.6720014  73.0849992  13.3019978  71.7610014
  72.5719992  12.3279978  71.6110014  72.6419992  13.8339978  70.8920014
  72.9229992  13.9389978  73.1590014  71.8789992  13.7309978  73.4810014
  73.0679992  15.0319978  73.0260014  73.8719992  13.4849978  74.2590014
  73.5019992  14.0689978  75.1290014  74.9559992  13.6549978  74.0900014
  73.6669992  11.9609978  74.4370014  73.8259992  11.4449978  73.4660014
  72.6779992  11.6949978  74.8670014  74.5689992  11.2609978  75.5110014
  74.0409992  10.3819978  75.9400014  74.6549992  11.9839978  76.3490014
  75.8779992  10.9939978  74.8950014  75.8079992  10.2779978  74.0630014
  77.0879992  11.4869978  75.3070014  77.9499992  11.2889978  74.6520014
  77.3159992  12.4259978  76.5150014  76.6269992  13.2689978  76.2920014
  78.2189992  13.0709978  76.4700014  77.0719992  11.7589978  77.8910014
  77.7309992  10.8829978  78.0730014  76.0489992  11.3299978  77.9540014
  77.3919992  12.7819978  78.9390014  76.5819992  13.5399978  78.8940014
  78.3749992  13.2729978  78.7710014  77.7099992  12.1889978  80.3210014
  77.7929992  13.0529978  81.0150014  78.6359992  11.5869978  80.4420014
  76.5379992  11.3009978  80.8480014  76.7169992  11.2619978  81.9430014
  76.7469992  10.3509978  80.3120014  75.0529992  11.7859978  80.7240014
  74.3079992  11.0279978  80.4010014  75.0109992  12.5259978  79.8970014
  74.5889992  12.5199978  82.0360014  74.2759992  11.8449978  82.8610014
  73.5989992  12.9259978  81.7350014  75.5159992  13.6279978  82.6620014
  75.5529992  14.4419978  81.9060014  76.5539992  13.2799978  82.8500014
  75.0209992  14.0549978  83.5600014 133.0639992  99.1389978  81.9580014
 132.9699992  98.0469978  82.1420014 133.6269992  99.6339978  82.7780014
 133.7029992  99.1939978  81.0500014 131.8539992  99.9629978  81.6760014
 131.4199992  99.3499978  80.8570014 131.1819992  99.8789978  82.5580014
 132.0029992 101.4349978  81.4050014 131.0159992 101.7009978  81.8400014
 132.8289992 101.8759978  82.0020014 131.8929992 101.8579978  79.8900014
 131.8039992 102.9639978  79.9320014 132.8589992 101.4819978  79.4890014
 130.7479992 101.1139978  79.0300014 131.0709992 100.1219978  78.6480014
 129.9509992 100.9759978  79.7910014 130.2169992 101.9449978  77.8830014
 129.6289992 102.8049978  78.2700014 131.0389992 102.3899978  77.2830014
 129.2289992 101.1399978  77.0190014 129.6279992 100.1189978  76.8430014
 128.3619992 100.9079978  77.6730014 128.7959992 101.7329978  75.6720014
 127.9909992 101.0309978  75.3660014 128.4279992 102.7569978  75.8980014
 129.8339992 101.8539978  74.6470014 130.7789992 102.1059978  75.1730014
 129.9169992 100.8739978  74.1300014 129.4999992 102.7719978  73.4640014
 128.4439992 102.6029978  73.1640014 129.6319992 103.7739978  73.9240014
 130.3369992 102.5129978  72.2040014 131.4009992 102.6749978  72.4790014
 130.2299992 101.4659978  71.8490014 130.0739992 103.5109978  71.0910014
 128.9699992 103.6329978  71.0710014 130.4459992 104.5069978  71.4150014
 130.6499992 103.0259978  69.7550014 131.6499992 102.6759978  70.0880014
 130.1439992 102.1029978  69.3990014 130.7319992 104.0689978  68.6550014
 129.6859992 104.3469978  68.4070014 131.1129992 104.9739978  69.1760014
 131.4419992 103.6979978  67.3430014 131.2019992 102.6789978  66.9720014
 131.1569992 104.4719978  66.5990014 132.9049992 103.8779978  67.6840014
 133.4099992 104.3989978  68.6950014 133.5799992 103.4409978  66.6350014
 134.9529992 103.2069978  66.8810014 135.5129992 103.1629978  65.9230014
 135.4479992 104.0279978  67.4420014 135.1719992 101.8439978  67.5090014
 136.2679992 101.7419978  67.6650014 134.8049992 100.6579978  66.6320014
 135.2689992 100.8609978  65.6440014 135.2219992  99.7289978  67.0770014
 133.4349992 100.5059978  66.4120014 132.7839992  99.1369978  65.9620014
 132.6549992  99.4189978  64.3680014 133.6149992 100.2469978  63.5930014
 134.0149992 101.1379978  64.1220014 134.4969992  99.7109978  63.1820014
 132.8889992 100.6339978  62.2470014 133.4749992 101.2669978  61.5970014
 132.7639992  99.6689978  61.7790014 131.5769992 101.3599978  62.2780014
 131.7429992 102.5639978  63.1940014 130.7929992 103.0619978  63.3230014
 132.0809992 102.2909978  64.1830014 132.5619992 103.1369978  62.7850014
 131.3719992 101.8809978  60.8860014 130.7129992 102.7369978  60.8970014
 132.3349992 102.1859978  60.5040014 130.9889992 101.0649978  60.2900014
 130.3929992 100.4959978  62.7250014 130.4949992  99.5649978  62.1870014
 129.5089992 101.0279978  62.4050014 130.3899992 100.3869978  63.7990014
 133.6889992  97.9869978  66.2710014 131.4279992  99.0109978  66.5710014
 134.4169992 101.8099978  68.6810014 134.8849992 101.0389978  69.6630014
 135.8199992 100.3049978  69.6820014 133.9339992 101.0929978  70.8110014
 132.8789992 100.9199978  70.5100014 134.0559992 102.1479978  71.1400014
 134.3319992 100.1359978  71.8940014 135.3439992 100.3919978  72.2750014
 134.3649992  99.0799978  71.5500014 133.2949992 100.1359978  73.0500014
 132.4089992  99.4779978  72.9210014 132.7869992 101.1229978  72.9940014
 133.8549992  99.6979978  74.4700014 134.3769992 100.5919978  74.8750014
 134.5759992  98.8849978  74.2440014 132.7189992  99.2119978  75.3100014
 132.3059992  98.3469978  74.7480014 131.8969992  99.9519978  75.4160014
 133.0929992  98.6919978  76.6620014 132.1979992  98.1149978  76.9810014
 133.2479992  99.6589978  77.1860014 134.3179992  97.7929978  76.7300014
 135.1579992  98.3479978  76.2610014 134.1659992  96.8699978  76.1310014
 134.5289992  97.3819978  78.1450014 133.6959992  96.8599978  78.6370014
 135.5449992  97.7379978  78.9380014 135.7549992  97.2619978  79.9080014
 136.7139992  98.6029978  78.6610014 136.7019992  99.0219978  77.6320014
 137.6159992  97.9629978  78.7650014 136.9469992  99.7099978  79.6650014
 137.9889992 100.0749978  79.5410014 137.0089992  99.2869978  80.6900014
 135.9879992 100.9579978  79.6990014 136.3239992 101.5349978  80.5870014
 134.9319992 100.6319978  79.8090014 135.9759992 101.8909978  78.4540014
 135.4799992 102.7899978  78.8790014 135.2659992 101.5799978  77.6580014
 137.3329992 102.1179978  77.7600014 137.2899992 102.7029978  76.8160014
 137.7839992 101.1279978  77.5330014 138.4589992 102.8119978  78.5910014
 139.2189992 103.2029978  77.8800014 138.9349992 102.0199978  79.2090014
 137.9909992 104.0319978  79.5040014 137.2629992 103.5889978  80.2170014
 137.6409992 104.9099978  78.9190014 139.1379992 104.6369978  80.3340014
 139.5079992 103.9489978  81.1240014 138.7149992 105.4239978  80.9950014
 139.9269992 105.1419978  79.7370014   5.5049992  55.0039978  85.7930014
   5.0299992  54.4609978  84.9490014   4.9139992  55.1419978  86.7240014
   6.3299992  54.2949978  86.0190014   6.1059992  56.3349978  85.3350014
   5.2519992  56.9539978  84.9850014   6.6689992  56.7629978  86.1910014
   7.1919992  56.1169978  84.2400014   8.0179992  55.4549978  84.5790014
   6.7359992  55.5969978  83.3700014   7.7939992  57.4659978  83.6930014
   8.2189992  58.0379978  84.5450014   8.6829992  57.1759978  83.0930014
   6.7699992  58.1989978  82.8620014   5.9019992  58.4529978  83.5060014
   7.1969992  59.1429978  82.4610014   6.1459992  57.3969978  81.6420014
   5.5949992  56.5159978  82.0350014   5.4199992  58.0489978  81.1090014
   7.2269992  56.9919978  80.6800014   8.0069992  56.3319978  81.1170014
   6.9239992  56.2019978  79.9610014   7.8809992  58.1379978  79.9960014
   7.0179992  58.5989978  79.4700014   8.2639992  58.9209978  80.6840014
   9.0019992  57.9599978  78.9380014   9.4059992  58.9219978  78.5580014
   9.9149992  57.5829978  79.4460014   8.6879992  56.9989978  77.7700014
   8.7389992  55.9649978  78.1750014   7.6789992  57.0869978  77.3160014
   9.6619992  57.1969978  76.6010014   9.5549992  58.2779978  76.3650014
  10.6789992  56.9789978  76.9900014   9.3389992  56.3139978  75.3960014
  10.2299992  56.5619978  74.7800014   9.2919992  55.2269978  75.6210014
   8.0369992  56.7199978  74.5870014   7.1569992  56.6639978  75.2620014
   8.2189992  57.7549978  74.2240014   7.7199992  55.8529978  73.3380014
   7.5869992  54.7779978  73.5860014   6.7299992  56.1639978  72.9420014
   8.7609992  56.0429978  72.2540014   8.9519992  57.1269978  72.1030014
   9.8159992  55.7619978  72.4630014   8.2499992  55.4789978  70.8970014
   7.0619992  55.2809978  70.6800014   9.1919992  55.4239978  69.9620014
   8.5799992  55.1199978  68.6800014   8.0449992  54.1469978  68.6440014
   7.8579992  55.9389978  68.4770014   9.6859992  55.2099978  67.5600014
  10.0229992  56.2609978  67.4320014   8.9949992  54.7749978  66.2370014
   8.6269992  53.7449978  66.4330014   8.0819992  55.3289978  65.9300014
   9.9379992  54.7439978  65.1380014  10.0229992  55.7669978  63.9350014
   9.8289992  57.1399978  64.7530014  10.2479992  58.3479978  64.0120014
  11.2589992  58.7079978  64.3000014  10.3479992  58.1469978  62.9240014
   9.3489992  59.5849978  64.2220014   9.4479992  59.8879978  65.2540014
   9.6459992  60.4129978  63.5950014   7.7739992  59.2909978  64.0910014
   7.5809992  58.5589978  62.8560014   8.3279992  57.8339978  62.5710014
   6.6179992  58.0699978  62.8250014   7.6569992  59.3139978  62.0880014
   7.3519992  58.5049978  65.2370014   8.1169992  57.7689978  65.4320014
   7.2689992  59.1729978  66.0820014   6.3979992  58.1339978  64.8930014
   7.0069992  60.5699978  63.9870014   7.4339992  61.2409978  63.2570014
   7.0579992  61.1839978  64.8740014   5.9439992  60.3759978  63.9740014
  11.3329992  55.7809978  63.1970014   8.7869992  55.5429978  63.0780014
  10.8099992  54.3969978  67.9850014  12.0049992  54.6699978  67.5050014
  12.2859992  55.4939978  66.6580014  12.9949992  53.7519978  68.2970014
  13.4609992  53.1779978  67.4680014  12.4819992  53.1219978  69.0560014
  14.0099992  54.6259978  69.1520014  14.6799992  55.1949978  68.4720014
  14.7289992  53.9509978  69.6630014  13.2109992  55.4979978  70.2240014
  12.5799992  54.8779978  70.8960014  12.5039992  56.1629978  69.6840014
  14.1209992  56.3179978  71.0580014  14.7289992  57.0059978  70.4320014
  14.9139992  55.6729978  71.4940014  13.4829992  57.1209978  72.1770014
  12.6889992  57.7879978  71.7780014  14.3009992  57.7169978  72.6350014
  12.8129992  56.2909978  73.3400014  11.9579992  55.7229978  72.9160014
  12.3749992  57.0289978  74.0460014  13.7679992  55.3929978  74.2200014
  14.7179992  55.9369978  74.4050014  13.9869992  54.6169978  73.4560014
  13.0989992  54.7829978  75.4080014  12.8739992  53.7269978  75.1960014
  13.0019992  55.3329978  76.6630014  12.6769992  54.6989978  77.5010014
  13.5019992  56.5779978  77.2130014  12.6889992  57.3329978  77.1480014
  14.2459992  57.0439978  76.5320014  14.0789992  56.5229978  78.6270014
  14.4479992  57.5339978  78.9060014  15.0319992  55.9519978  78.6120014
  13.0759992  56.2579978  79.7120014  12.8589992  55.1699978  79.7690014
  12.1299992  56.6899978  79.3200014  13.4079992  56.7639978  81.1320014
  13.8709992  57.7699978  81.0430014  14.0079992  55.9999978  81.6730014
  12.1579992  56.8769978  81.9500014  11.4899992  55.9969978  82.0660014
  11.6419992  57.6789978  81.3800014  12.4889992  57.4579978  83.3490014
  13.2019992  58.2879978  83.1530014  12.9959992  56.6599978  83.9310014
  11.2749992  57.8759978  84.1120014  10.7109992  56.9379978  84.2990014
  10.6669992  58.4869978  83.4110014  11.4149992  58.5029978  85.4830014
  12.2909992  59.1869978  85.4710014  11.6319992  57.7179978  86.2380014
  10.4329992  58.9869978  85.6730014 126.4349992  38.2269978  83.8480014
 126.1679992  37.1659978  84.0410014 126.6329992  38.6889978  84.8390014
 127.2969992  38.2599978  83.1480014 125.2369992  39.0639978  83.3160014
 124.3209992  38.9989978  83.9410014 125.5479992  40.1299978  83.3470014
 124.9649992  38.7659978  81.8220014 125.8369992  39.1809978  81.2720014
 124.9049992  37.6959978  81.5300014 123.9139992  39.6589978  81.3190014
 122.9669992  39.4739978  81.8700014 124.2409992  40.6869978  81.5850014
 123.5799992  39.4289978  79.8230014 122.8229992  40.1909978  79.5410014
 124.4269992  39.8219978  79.2200014 123.3629992  37.9639978  79.3110014
 124.3429992  37.4629978  79.1550014 122.8149992  37.4639978  80.1380014
 122.4609992  37.9319978  78.0640014 121.5219992  38.5009978  78.2350014
 123.0399992  38.4159978  77.2480014 122.0559992  36.5709978  77.5810014
 121.2969992  36.0469978  78.1990014 121.6409992  36.6979978  76.5580014
 123.2289992  35.5259978  77.5690014 123.6729992  35.4909978  78.5860014
 122.7629992  34.5669978  77.2560014 124.4229992  35.9139978  76.6320014
 124.6589992  36.9849978  76.8140014 125.2039992  35.1319978  76.7470014
 124.0729992  35.8649978  75.1320014 123.3089992  36.6639978  75.0180014
 124.9869992  36.3059978  74.6790014 123.7579992  34.5219978  74.5610014
 124.5879992  33.8629978  74.8950014 122.9069992  33.9759978  75.0220014
 123.6309992  34.4319978  72.9710014 123.4869992  33.3629978  72.7030014
 122.6629992  34.9219978  72.7320014 124.8689992  34.9089978  72.1920014
 125.1619992  35.9419978  72.4770014 125.7859992  34.3509978  72.4790014
 124.5919992  34.7909978  70.7180014 125.5609992  34.8609978  70.1780014
 124.0799992  33.8239978  70.5230014 123.8179992  35.9089978  70.1640014
 123.5199992  36.9639978  70.7820014 123.5939992  35.6719978  68.8830014
 122.9589992  36.8049978  68.1460014 122.7389992  36.3439978  67.1600014
 122.0519992  37.0499978  68.7400014 124.0549992  37.9279978  67.8460014
 123.9859992  38.5699978  68.7500014 123.5859992  38.7589978  66.6690014
 122.8509992  38.1849978  66.0660014 123.0169992  39.6439978  67.0270014
 124.6829992  39.1809978  65.8390014 124.8769992  38.4479978  64.4540014
 124.9739992  36.9559978  64.8260014 124.6319992  35.9089978  63.9410014
 124.2009992  35.1179978  64.5910014 123.8329992  36.2049978  63.2280014
 125.7479992  35.3549978  63.0740014 125.2309992  34.4769978  62.7170014
 125.8599992  35.9029978  62.1510014 127.1059992  34.9419978  63.6440014
 127.0069992  33.7409978  64.4850014 126.4279992  32.9969978  63.9580014
 128.0009992  33.4649978  64.8050014 126.3949992  33.9349978  65.3540014
 128.0329992  34.6929978  62.4270014 127.4119992  34.3979978  61.5940014
 128.3529992  35.6619978  62.0740014 128.8719992  34.0199978  62.5330014
 127.8559992  36.1109978  64.3220014 127.4269992  36.5439978  65.2140014
 127.7889992  36.8629978  63.5500014 128.8709992  35.7769978  64.4770014
 123.5549992  38.5549978  63.7680014 126.1019992  38.8479978  63.7240014
 125.3309992  37.2419978  67.7200014 126.3229992  37.9709978  67.9640014
 126.3799992  39.1019978  68.4520014 127.5459992  37.2599978  67.4920014
 127.9099992  37.7849978  66.5830014 127.2159992  36.2049978  67.3750014
 128.6409992  37.2699978  68.5730014 128.8129992  38.3409978  68.8120014
 129.5919992  36.8379978  68.1940014 128.3169992  36.6249978  69.9070014
 128.2959992  35.5299978  69.7230014 127.2999992  36.8459978  70.2940014
 129.3309992  36.9479978  70.9590014 129.4239992  38.0549978  70.9780014
 130.3049992  36.4399978  70.7950014 128.8209992  36.5379978  72.3330014
 128.5939992  35.4509978  72.3140014 127.8529992  37.0489978  72.5230014
 129.8249992  36.8219978  73.4690014 130.2479992  37.8489978  73.4930014
 130.6399992  36.0809978  73.3270014 129.1139992  36.7859978  74.8620014
 128.5909992  37.7659978  74.8440014 129.9469992  36.7949978  75.5960014
 128.0259992  35.6339978  74.9650014 127.2669992  35.6109978  74.1690014
 127.9289992  34.8199978  76.0000014 127.1369992  34.0599978  75.9460014
 128.7829992  34.8109978  77.2720014 129.7859992  35.2729978  77.1530014
 129.0209992  33.7379978  77.4330014 128.0049992  35.2699978  78.5190014
 127.6119992  36.3079978  78.4970014 128.7139992  35.2679978  79.3740014
 126.9109992  34.3399978  79.0310014 127.3539992  33.3499978  79.2710014
 126.0979992  34.2979978  78.2750014 126.2909992  34.8049978  80.3820014
 125.5179992  34.0489978  80.6340014 125.8649992  35.8159978  80.2060014
 127.3169992  34.8349978  81.5450014 126.7439992  34.9889978  82.4840014
 128.0719992  35.6429978  81.4420014 128.1759992  33.5709978  81.6710014
 128.9319992  33.5609978  80.8570014 127.4739992  32.7099978  81.6360014
 129.0079992  33.7519978  82.9240014 128.4699992  33.6499978  83.8910014
 129.4329992  34.7759978  82.8590014 130.3239992  33.0079978  82.9050014
 130.8769992  33.2079978  83.8480014 131.0329992  33.3349978  82.1140014
 130.2509992  31.8999978  82.8970014  20.4239992  36.5599978  82.8190014
  19.4489992  36.9749978  83.1550014  21.2799992  37.2619978  82.9110014
  20.6349992  35.6519978  83.4230014  20.4109992  36.2019978  81.2920014
  20.4689992  37.1539978  80.7210014  21.3149992  35.5949978  81.0720014
  19.1529992  35.3759978  80.7710014  19.0959992  34.3949978  81.2910014
  18.2629992  36.0169978  80.9480014  19.2989992  35.3619978  79.2250014
  19.6779992  36.3899978  79.0430014  20.1599992  34.7409978  78.8950014
  18.0309992  34.9979978  78.4310014  17.7189992  33.9419978  78.5820014
  17.1969992  35.7069978  78.6210014  18.2789992  35.1869978  76.8570014
  19.0769992  35.9239978  76.6250014  18.6249992  34.1889978  76.5120014
  17.0559992  35.5219978  75.9990014  17.0389992  34.8999978  75.0780014
  16.1089992  35.3399978  76.5490014  17.0799992  36.9069978  75.3520014
  17.0819992  37.7309978  76.0970014  17.9639992  37.1009978  74.7080014
  15.9469992  37.2329978  74.3530014  14.9489992  36.9769978  74.7680014
  15.9679992  38.3329978  74.1950014  16.1959992  36.5699978  72.9920014
  17.1829992  36.8499978  72.5650014  16.1729992  35.4649978  73.1010014
  15.1599992  36.8719978  71.9470014  14.1469992  36.5069978  72.2190014
  14.9009992  37.9319978  71.7360014  15.4459992  36.3179978  70.5370014
  15.6729992  35.2379978  70.6620014  14.5189992  36.4229978  69.9330014
  16.6039992  37.0199978  69.6500014  16.2979992  36.8119978  68.6020014
  16.5399992  38.1189978  69.8040014  18.0339992  36.3999978  69.8600014
  18.4169992  36.6449978  70.8730014  18.1259992  35.2979978  69.7570014
  19.0859992  37.0939978  68.9920014  18.7399992  36.9629978  67.9450014
  19.2559992  38.1739978  69.1880014  20.4649992  36.4109978  68.9570014
  21.4809992  36.9429978  69.3150014  20.2789992  35.2099978  68.4580014
  21.3829992  34.3149978  68.4320014  22.1279992  34.5479978  67.6420014
  21.8419992  34.2499978  69.4420014  20.7869992  32.9259978  68.1140014
  21.5399992  32.1219978  68.2520014  20.2329992  32.9319978  66.7020014
  20.9899992  33.4909978  66.1110014  20.3399992  31.9029978  66.2960014
  19.0009992  33.4809978  66.6830014  18.2979992  33.5719978  65.2360014
  17.8539992  35.1049978  65.2980014  18.8029992  36.1039978  64.9310014
  18.3029992  37.0749978  65.1400014  19.6609992  35.9809978  65.6260014
  19.0289992  36.2329978  63.3780014  19.9999992  36.6999978  63.3030014
  19.1209992  35.2389978  62.9670014  17.9479992  37.0149978  62.6040014
  17.9549992  38.4249978  63.0020014  18.9149992  38.9049978  62.8770014
  17.2209992  38.9479978  62.4070014  17.7429992  38.4549978  64.0610014
  18.1309992  36.8969978  61.0820014  18.2709992  35.8679978  60.7860014
  17.2869992  37.4109978  60.6450014  19.0319992  37.4329978  60.8200014
  16.6029992  36.5289978  62.9880014  16.5079992  36.5829978  64.0630014
  16.1979992  35.6439978  62.5200014  15.8799992  37.2449978  62.6240014
  19.3849992  33.4899978  64.2420014  17.1299992  32.6819978  65.0620014
  19.6669992  32.6649978  68.9950014  19.5389992  31.3699978  69.2560014
  20.1109992  30.4199978  68.6240014  18.6609992  31.1469978  70.5360014
  19.3139992  30.4259978  71.0740014  17.6909992  30.6219978  70.4110014
  18.4899992  32.4609978  71.4330014  17.7149992  32.1209978  72.1520014
  18.1819992  33.3519978  70.8460014  19.8089992  32.8389978  72.0410014
  20.4739992  33.3719978  71.3280014  20.4369992  31.9299978  72.1570014
  19.6679992  33.6609978  73.3030014  18.9109992  33.2279978  73.9920014
  19.2679992  34.6539978  73.0060014  20.9959992  33.8099978  73.9980014
  20.9089992  34.6439978  74.7270014  21.8309992  34.1039978  73.3270014
  21.3589992  32.5869978  74.7200014  21.7069992  31.7879978  74.0310014
  20.4039992  32.2079978  75.1430014  22.5789992  32.6019978  75.6920014
  22.3409992  33.4399978  76.3810014  23.4299992  33.0329978  75.1220014
  23.0619992  31.3769978  76.3710014  23.9289992  30.8979978  75.8920014
  22.4189992  30.8009978  77.3380014  22.9199992  29.8989978  77.7200014
  21.0919992  31.2469978  77.9010014  20.2159992  30.6709978  77.5330014
  20.8739992  32.2599978  77.5010014  21.0589992  31.3959978  79.4000014
  21.1049992  30.3769978  79.8410014  20.1009992  31.8889978  79.6690014
  22.1479992  32.4409978  79.9480014  21.9889992  33.4419978  79.4930014
  23.1589992  32.1819978  79.5670014  22.2769992  32.4879978  81.4570014
  21.6189992  33.2589978  81.9140014  23.2659992  32.8859978  81.7710014
  22.0489992  31.1499978  82.1850014  22.8899992  30.4989978  81.8620014
  21.0119992  30.8099978  81.9760014  22.3019992  31.2279978  83.6300014
  23.3669992  31.5339978  83.7080014  22.1589992  30.1759978  83.9570014
  21.4179992  32.0619978  84.5600014  21.5289992  33.1169978  84.2310014
  21.8989992  32.1049978  85.5610014  19.9499992  31.7999978  84.4530014
  19.6819992  30.7449978  84.6720014  19.5819992  32.0229978  83.4290014
  19.3179992  32.3859978  85.1550014  75.2589992 137.8819978  79.9160014
  76.0079992 137.7919978  80.7310014  74.9849992 138.9449978  79.7410014
  75.7469992 137.4889978  78.9980014  73.9539992 137.0179978  80.1750014
  73.5669992 137.1169978  81.2120014  73.1919992 137.4379978  79.4850014
  74.1289992 135.5249978  79.9610014  74.7699992 135.2129978  80.8130014
  73.1089992 135.0929978  80.0390014  74.6469992 135.0499978  78.6380014
  75.6879992 135.4199978  78.5240014  74.7199992 133.9449978  78.7220014
  73.8069992 135.3959978  77.2320014  72.9549992 134.6889978  77.1360014
  73.4419992 136.4449978  77.2570014  74.6589992 135.3359978  75.9720014
  75.6929992 135.7069978  76.1390014  74.6679992 134.2489978  75.7430014
  74.0699992 136.1319978  74.7940014  73.7539992 137.1009978  75.2370014
  74.8819992 136.3509978  74.0690014  72.8439992 135.4729978  74.1230014
  72.2489992 134.9129978  74.8750014  72.2329992 136.3249978  73.7570014
  73.1179992 134.6169978  72.9110014  72.1829992 134.0859978  72.6300014
  73.3279992 135.2999978  72.0600014  74.2519992 133.5459978  73.0310014
  75.2889992 133.9299978  73.1330014  74.0809992 133.0419978  74.0070014
  74.2639992 132.4389978  71.9090014  74.9459992 131.6639978  72.3200014
  73.2409992 132.0199978  71.8030014  74.8509992 132.9189978  70.6020014
  74.7129992 132.1109978  69.8520014  74.2949992 133.8159978  70.2540014
  76.3339992 133.2339978  70.6660014  76.5049992 134.1629978  71.2510014
  76.9999992 132.4689978  71.1180014  76.8599992 133.3879978  69.1730014
  77.9549992 133.4019978  69.3620014  76.6889992 132.4599978  68.5870014
  76.5129992 134.7099978  68.4420014  76.3459992 135.5939978  69.0940014
  77.3099992 134.8649978  67.6830014  75.2239992 134.5129978  67.5880014
  74.7369992 133.4549978  67.2900014  74.8089992 135.6949978  67.2610014
  73.5189992 135.8319978  66.7180014  73.5919992 135.2629978  65.7660014
  72.7649992 135.4209978  67.4230014  73.1389992 137.3389978  66.4050014
  72.0639992 137.3119978  66.1280014  73.9289992 137.8489978  65.1150014
  74.0809992 136.9999978  64.4160014  73.2249992 138.5659978  64.6400014
  75.1489992 138.3899978  65.4480014  76.5209992 138.1519978  64.7240014
  76.5979992 136.5669978  64.7100014  77.9499992 136.0489978  64.5630014
  78.7139992 136.8039978  64.2800014  78.1979992 135.4849978  65.4870014
  77.9809992 135.1559978  63.2420014  77.6609992 135.6959978  62.3630014
  78.9739992 134.7319978  63.2030014  77.1159992 133.9049978  63.2620014
  77.3619992 133.1049978  64.5710014  77.0669992 133.7629978  65.3750014
  76.7139992 132.2419978  64.6270014  78.4379992 133.0639978  64.4820014
  75.6469992 134.2929978  63.2200014  75.4169992 135.0459978  63.9590014
  75.4129992 134.7099978  62.2520014  75.1049992 133.3899978  63.4580014
  77.4929992 133.1409978  61.9420014  78.5649992 133.0319978  62.0090014
  77.2789992 133.8359978  61.1430014  77.0119992 132.1769978  62.0180014
  76.2659992 138.7299978  63.3920014  77.6819992 138.7479978  65.4340014
  73.3249992 138.1189978  67.6030014  73.4369992 139.4959978  67.5820014
  73.1059992 140.1549978  66.6080014  73.9629992 140.0439978  68.8210014
  74.6389992 139.3269978  69.3340014  73.0939992 140.2159978  69.4920014
  74.6179992 141.3909978  68.7110014  74.6409992 141.9489978  69.6720014
  74.0999992 141.9979978  67.9380014  76.0619992 141.4229978  68.2210014
  76.2169992 142.4049978  67.7260014  75.9859992 140.5999978  67.4790014
  77.0689992 141.2359978  69.3500014  76.5989992 141.0449978  70.3390014
  77.4929992 142.2219978  69.6370014  78.1679992 140.1529978  69.1060014
  79.0599992 140.6349978  69.5620014  78.4299992 139.9689978  68.0430014
  78.0129992 138.7989978  69.7820014  78.7879992 138.0579978  69.4900014
  77.1539992 138.2319978  69.3650014  77.8809992 138.7859978  71.3670014
  77.2479992 139.6469978  71.6700014  78.8509992 139.0159978  71.8580014
  77.1759992 137.5729978  71.9290014  76.1369992 137.4349978  71.5950014
  77.6049992 136.7339978  72.8530014  76.9909992 135.8499978  73.0810014
  78.9079992 136.7099978  73.5310014  79.6599992 137.1669978  72.8530014
  79.2799992 135.6679978  73.6300014  78.8049992 137.5549978  74.8170014
  77.7849992 137.4659978  75.2490014  78.9819992 138.6249978  74.5770014
  79.8009992 137.1249978  75.9520014  80.8509992 137.0929978  75.5900014
  79.5589992 136.1419978  76.4100014  79.8019992 138.1589978  77.1130014
  80.0059992 139.1299978  76.6140014  80.6219992 137.9219978  77.8240014
  78.4569992 138.2629978  77.8760014  78.4119992 137.2789978  78.3900014
  77.6009992 138.3759978  77.1780014  78.3119992 139.3429978  78.9580014
  77.2289992 139.4479978  79.1810014  78.7409992 140.2549978  78.4910014
  78.9409992 139.0969978  80.3450014  79.8999992 138.5719978  80.1490014
  78.3409992 138.2989978  80.8320014  78.9939992 140.2309978  81.3940014
  79.6299992 141.1009978  81.1240014  79.3089992 139.7799978  82.3590014
  77.9409992 140.5609978  81.5260014 137.0649992  60.6479978  81.0170014
 138.0759992  60.6039978  81.4750014 136.8309992  59.5929978  80.7590014
 136.3569992  60.9689978  81.8110014 136.9019992  61.5379978  79.8150014
 137.5269992  61.2509978  78.9420014 135.8379992  61.5419978  79.4940014
 137.3729992  62.9539978  80.0650014 137.0649992  63.2889978  81.0780014
 138.4659992  62.8519978  80.2370014 137.1449992  64.0119978  78.8990014
 137.8369992  64.8799978  78.8470014 137.2219992  63.3679978  77.9980014
 135.7219992  64.6419978  78.9780014 134.9819992  63.8189978  79.0790014
 135.5769992  65.2559978  79.8920014 135.3259992  65.4929978  77.7990014
 134.5779992  66.2669978  78.0730014 136.2559992  66.0749978  77.6240014
 134.9339992  64.7009978  76.6320014 135.6889992  63.9819978  76.2480014
 134.0069992  64.1909978  76.9720014 134.6579992  65.5459978  75.3340014
 134.2909992  64.8739978  74.5280014 133.8739992  66.3069978  75.5340014
 135.9559992  66.2749978  74.9310014 136.2139992  66.9899978  75.7420014
 136.7189992  65.4679978  74.9240014 135.9539992  67.1119978  73.6720014
 135.0559992  67.7379978  73.4800014 136.8199992  67.8059978  73.7370014
 136.2059992  66.1649978  72.3760014 137.1249992  65.5729978  72.5730014
 135.2799992  65.5539978  72.3410014 136.3799992  66.9769978  71.1440014
 136.0119992  66.4099978  70.2620014 135.6449992  67.7859978  71.3460014
 137.8059992  67.6209978  70.9170014 137.7919992  68.3899978  70.1150014
 138.0099992  68.1339978  71.8810014 138.9779992  66.6449978  70.4800014
 139.8859992  67.2589978  70.6600014 138.9389992  65.7009978  71.0650014
 139.0549992  66.3229978  68.9970014 138.3099992  65.5559978  68.6950014
 138.9179992  67.1579978  68.2760014 140.4439992  65.6319978  68.7480014
 141.5129992  66.0469978  69.2760014 140.2109992  64.7159978  67.8210014
 141.3419992  63.8879978  67.4280014 141.8439992  64.4409978  66.6050014
 141.9769992  63.7759978  68.3330014 140.8699992  62.5089978  67.0090014
 141.7609992  61.9009978  66.7420014 139.9729992  62.6529978  65.7740014
 140.3839992  63.5229978  65.2180014 139.9339992  61.7929978  65.0720014
 138.6749992  62.8319978  66.3050014 137.4709992  63.7429978  65.7400014
 138.2969992  64.6419978  64.7720014 138.1689992  64.3389978  63.4260014
 139.0239992  64.8659978  62.9520014 138.2789992  63.2599978  63.1860014
 136.8649992  64.8009978  62.6410014 136.9599992  64.4089978  61.6390014
 136.0699992  64.3819978  63.2400014 136.7299992  66.3279978  62.4650014
 138.0109992  67.0699978  62.0870014 138.8129992  66.6899978  62.7030014
 138.1879992  66.9539978  61.0280014 137.8449992  68.1229978  62.2600014
 135.6199992  66.6559978  61.5220014 135.2979992  67.6779978  61.6570014
 136.0009992  66.4079978  60.5420014 134.8049992  65.9709978  61.7020014
 136.3029992  66.9229978  63.7500014 135.3799992  66.3899978  63.9250014
 136.1749992  67.9959978  63.7350014 136.9629992  66.6289978  64.5520014
 136.5669992  62.9029978  64.9110014 136.9019992  64.4829978  66.8870014
 140.3019992  61.8609978  68.1620014 139.9209992  60.6479978  68.0500014
 139.7699992  60.0089978  67.0120014 139.5029992  60.0469978  69.4110014
 140.1029992  59.1159978  69.4960014 138.4559992  59.6759978  69.3750014
 139.5709992  61.0399978  70.5870014 138.5739992  61.5289978  70.5420014
 140.2529992  61.8939978  70.3860014 140.0459992  60.3269978  71.8880014
 141.1409992  60.1429978  71.8830014 139.5179992  59.3499978  71.9190014
 139.7399992  61.2679978  73.0260014 139.1849992  60.6119978  73.7300014
 138.9299992  61.9599978  72.7100014 140.8669992  61.9809978  73.7480014
 141.4409992  62.6699978  73.0930014 141.6799992  61.2519978  73.9550014
 140.5599992  62.7759978  75.0360014 140.3209992  62.0359978  75.8290014
 139.8069992  63.5309978  74.7230014 141.7419992  63.6269978  75.6010014
 142.4809992  62.8219978  75.8010014 141.2989992  64.0829978  76.5130014
 142.1259992  64.6409978  74.5630014 142.9459992  64.3739978  73.8800014
 141.6349992  65.8649978  74.4820014 141.9339992  66.4909978  73.6290014
 140.6039992  66.5219978  75.3820014 140.0449992  65.7799978  75.9920014
 139.8509992  67.1039978  74.8080014 141.1589992  67.5969978  76.3000014
 141.7759992  68.3569978  75.7750014 141.8729992  67.1189978  77.0050014
 140.0879992  68.2709978  77.1220014 139.1059992  68.1279978  76.6220014
 140.3309992  69.3549978  77.1010014 139.8399992  67.7789978  78.5620014
 140.8419992  67.8459978  79.0370014 139.4979992  66.7219978  78.5380014
 138.7869992  68.6329978  79.3020014 137.7749992  68.3799978  78.9190014
 139.0139992  69.6999978  79.0910014 138.8259992  68.5429978  80.8610014
 138.1669992  69.3449978  81.2580014 139.8689992  68.6769978  81.2210014
 138.5659992  67.0779978  81.3660014 139.5109992  66.5579978  81.0990014
 137.6909992  66.7419978  80.7680014 138.2959992  66.8769978  82.8670014
 138.8389992  67.5529978  83.5610014 138.4449992  65.8099978  83.1410014
 137.1989992  67.0129978  82.9780014   6.7949992  94.0969978  84.8170014
   7.1609992  94.9139978  85.4760014   7.5699992  93.6569978  84.1550014
   6.5189992  93.2039978  85.4180014   5.6919992  94.6139978  83.8310014
   6.1249992  95.0519978  82.9060014   5.1829992  93.6709978  83.5380014
   4.6169992  95.5409978  84.3360014   4.2369992  95.2059978  85.3250014
   4.9959992  96.5739978  84.4950014   3.4849992  95.8199978  83.3130014
   2.8949992  96.6429978  83.7700014   3.8729992  96.0519978  82.2980014
   2.5659992  94.5899978  83.0780014   3.1769992  93.6759978  82.9210014
   1.8319992  94.4419978  83.9000014   1.7399992  94.8279978  81.7270014
   0.9279992  94.0699978  81.7030014   1.4419992  95.8979978  81.7460014
   2.5469992  94.7439978  80.4230014   3.2479992  95.5819978  80.2230014
   3.2449992  93.8839978  80.5160014   1.6859992  94.5949978  79.1930014
   0.9779992  93.7559978  79.3650014   1.0349992  95.4889978  79.0840014
   2.4749992  94.3229978  77.8970014   1.8269992  94.6689978  77.0630014
   3.4939992  94.7349978  77.7360014   2.5289992  92.8349978  77.4940014
   3.2549992  92.3369978  78.1720014   1.5459992  92.3249978  77.5820014
   2.8629992  92.5269978  75.9230014   2.0819992  93.0099978  75.2970014
   3.8789992  92.8789978  75.6450014   2.8559992  90.9509978  75.8160014
   3.8829992  90.6499978  76.1140014   2.0579992  90.3499978  76.3010014
   2.7819992  90.4549978  74.3660014   2.7129992  89.3479978  74.4410014
   1.8479992  90.9349978  74.0050014   3.8999992  91.0399978  73.4360014
   3.5879992  92.1059978  73.4100014   4.8879992  90.8629978  73.9120014
   3.8209992  90.4679978  72.0060014   4.8589992  90.4019978  71.6170014
   3.3819992  89.4479978  72.0070014   2.9409992  91.2899978  71.1780014
   1.8469992  91.7719978  71.3900014   3.6259992  91.4079978  69.9940014
   2.9779992  92.0539978  68.9040014   2.5949992  91.1929978  68.3160014
   2.0069992  92.5729978  69.0520014   3.8639992  93.0079978  68.1790014
   3.2429992  93.4109978  67.3510014   4.9899992  92.2439978  67.4460014
   5.4609992  91.6289978  68.2430014   4.6099992  91.4139978  66.8130014
   6.0499992  93.0339978  66.9580014   5.8849992  93.4609978  65.4820014
   4.3259992  93.8119978  65.2920014   3.8779992  94.5669978  64.1320014
   2.9259992  95.0679978  64.4070014   4.4979992  95.4819978  64.0200014
   3.8159992  93.8559978  62.6820014   3.3409992  94.6209978  62.0850014
   4.7769992  93.5289978  62.3150014   2.9069992  92.6229978  62.5610014
   3.4649992  91.5189978  63.3790014   3.2019992  90.6339978  62.8180014
   4.5419992  91.5819978  63.4260014   2.9739992  91.4929978  64.3400014
   1.4619992  92.9149978  63.0110014   1.3579992  92.9969978  64.0830014
   1.0619992  93.7709978  62.4880014   0.8349992  92.1349978  62.6060014
   2.8109992  92.2409978  61.0660014   2.2609992  91.3309978  60.8810014
   3.7659992  92.1739978  60.5650014   2.2459992  93.0249978  60.5830014
   6.6919992  94.6909978  65.3920014   6.1669992  92.3449978  64.5530014
   4.3859992  93.8879978  69.1270014   3.7569992  95.0189978  69.2500014
   2.7099992  95.3609978  68.6740014   4.6089992  95.8029978  70.1530014
   4.4059992  96.8739978  69.9420014   5.6679992  95.6579978  69.8480014
   4.1099992  95.5449978  71.6070014   4.1629992  94.4539978  71.8100014
   3.0179992  95.7289978  71.6860014   4.7999992  96.3509978  72.7300014
   4.2299992  96.1549978  73.6640014   4.7229992  97.4399978  72.5230014
   6.3089992  96.0599978  72.9540014   6.9799992  96.4159978  72.1440014
   6.4199992  94.9549978  72.9750014   7.0069992  96.5309978  74.2770014
   7.1139992  97.6369978  74.2460014   8.0209992  96.0779978  74.2500014
   6.2799992  96.0799978  75.5490014   5.8789992  95.0589978  75.3700014
   5.5479992  96.8769978  75.8010014   7.1279992  95.8039978  76.8040014
   7.8819992  96.6179978  76.8600014   7.7559992  94.9089978  76.6050014
   6.4539992  95.5989978  78.1230014   5.5289992  96.1919978  78.1670014
   6.7899992  94.6509978  79.1070014   6.1269992  94.4869978  79.9690014
   7.8869992  93.5689978  79.0630014   8.6259992  93.6889978  79.8840014
   8.4939992  93.4429978  78.1410014   7.2999992  92.1389978  79.2550014
   8.0679992  91.4729978  78.8070014   6.3649992  91.9919978  78.6740014
   6.8789992  91.8749978  80.6850014   6.6109992  92.8399978  81.1660014
   7.7289992  91.4549978  81.2650014   5.7539992  90.8769978  80.7320014
   6.2889992  89.9189978  80.5580014   5.0399992  91.0839978  79.9070014
   4.9949992  90.9049978  82.1150014   4.4879992  91.8759978  82.2980014
   5.6919992  90.7079978  82.9580014   3.8419992  89.8729978  82.2680014
   3.2229992  89.6639978  81.3700014   3.2339992  90.5069978  82.9480014
   4.2369992  88.4869978  83.0180014   4.4279992  88.8229978  84.0590014
   5.2329992  88.1049978  82.7060014   3.2699992  87.2839978  82.9050014
   3.1479992  86.8609978  81.8850014   2.2979992  87.6049978  83.3380014
   3.6939992  86.5009978  83.5680014  84.0359992   5.4059978  83.6200014
  83.9439992   4.3109978  83.7850014  83.1469992   5.8949978  83.1670014
  84.1369992   5.9299978  84.5950014  85.3179992   5.6679978  82.7590014
  86.0669992   4.9889978  83.2190014  85.0239992   5.2419978  81.7760014
  85.7669992   7.1439978  82.7130014  86.0849992   7.4569978  83.7300014
  86.6849992   7.1629978  82.0880014  84.8419992   8.2349978  82.0920014
  83.8249992   8.2819978  82.5370014  85.4479992   9.1549978  82.2420014
  84.5499992   7.9439978  80.6230014  85.4329992   7.7709978  79.9710014
  83.9589992   7.0039978  80.6560014  83.5849992   8.9359978  79.8850014
  82.5829992   8.9639978  80.3620014  83.9579992   9.9809978  79.9430014
  83.2879992   8.5389978  78.4280014  84.2969992   8.4189978  77.9800014
  82.8309992   7.5349978  78.5640014  82.4369992   9.6079978  77.7700014
  81.4419992   9.6319978  78.2620014  82.9339992  10.5969978  77.8630014
  82.2329992   9.3329978  76.2130014  83.1819992   9.4389978  75.6450014
  82.0999992   8.2299978  76.2520014  81.0819992  10.0009978  75.5490014
  80.1709992   9.9519978  76.1840014  81.2489992  11.0989978  75.5730014
  80.8729992   9.5369978  74.1050014  79.9049992   9.8939978  73.6930014
  81.6619992   9.8759978  73.4000014  80.6699992   8.0859978  73.7930014
  81.2629992   7.4119978  74.4480014  79.7129992   7.8469978  74.3040014
  80.8489992   7.6769978  72.3620014  80.3579992   8.3889978  71.6650014
  81.9159992   7.8229978  72.0870014  80.4039992   6.2259978  72.0030014
  81.0639992   5.5739978  72.6140014  79.4339992   5.8969978  72.4310014
  80.6019992   5.8489978  70.5480014  81.6639992   6.0559978  70.2930014
  80.3719992   4.7639978  70.4940014  79.6979992   6.5189978  69.5180014
  78.6309992   7.0419978  69.7260014  80.3039992   6.3569978  68.3330014
  79.8349992   6.8349978  67.0980014  79.9209992   6.1029978  66.2670014
  78.8319992   7.3119978  67.0940014  80.7899992   7.9849978  66.6660014
  80.7319992   8.7639978  67.4550014  80.4429992   8.4669978  65.2520014
  79.3689992   8.7479978  65.2050014  81.1499992   9.2809978  64.9840014
  80.6399992   7.3679978  64.3180014  81.9159992   6.9819978  63.5260014
  82.6939992   6.0949978  64.5470014  82.1469992   4.8279978  65.0510014
  82.4779992   4.8539978  66.1110014  81.0379992   4.8599978  65.1180014
  82.7779992   3.5399978  64.5380014  82.5479992   2.7709978  65.2610014
  82.3669992   3.2529978  63.5810014  84.2689992   3.6029978  64.3410014
  85.0739992   4.0909978  65.4180014  85.5609992   3.4179978  66.1080014
  85.7769992   4.7979978  65.0040014  84.5659992   4.6889978  66.1610014
  84.7659992   2.1509978  64.0390014  84.4439992   1.7539978  63.0870014
  85.8459992   2.1469978  64.0370014  84.3589992   1.4729978  64.7740014
  84.6349992   4.4019978  63.1360014  84.1299992   4.0759978  62.2390014
  85.6629992   4.1789978  62.8920014  84.4179992   5.4559978  63.2350014
  81.5679992   6.1509978  62.3750014  82.6189992   8.2489978  63.2180014
  82.2019992   7.5319978  66.7380014  83.0989992   8.4379978  67.0170014
  82.9809992   9.5889978  67.2370014  84.3739992   7.7629978  66.8230014
  84.8969992   8.1649978  65.9290014  84.1929992   6.6669978  66.7830014
  85.2479992   7.9249978  68.1370014  85.3529992   9.0119978  68.3380014
  86.2699992   7.5619978  67.8940014  84.7699992   7.1949978  69.4640014
  83.8469992   7.6719978  69.8560014  85.5919992   7.2949978  70.2050014
  84.6149992   5.6459978  69.3090014  85.4539992   5.3039978  68.6650014
  83.6759992   5.2989978  68.8290014  84.5689992   4.9239978  70.6570014
  83.6519992   5.0989978  71.2590014  85.4039992   5.3389978  71.2600014
  84.6189992   3.3529978  70.5500014  85.5809992   3.2519978  70.0020014
  83.8979992   2.9029978  69.8350014  84.8109992   2.6069978  71.9080014
  85.5859992   3.0189978  72.5880014  85.2219992   1.6069978  71.6520014
  83.3829992   2.4489978  72.4960014  82.6939992   1.8169978  71.9160014
  82.9179992   3.0629978  73.6200014  81.8779992   2.9329978  73.9560014
  83.6109992   4.0629978  74.5660014  82.9679992   4.9539978  74.7280014
  84.5599992   4.4859978  74.1700014  83.9289992   3.3679978  75.8980014
  84.7729992   3.8839978  76.4040014  84.3869992   2.3849978  75.6550014
  82.7739992   3.1399978  76.8660014  83.1229992   2.7189978  77.8320014
  82.0169992   2.4639978  76.4140014  82.1109992   4.4609978  77.2300014
  81.7579992   4.9419978  76.2930014  82.7429992   5.2419978  77.7030014
  80.8349992   4.2079978  78.0440014  80.2209992   3.5469978  77.3960014
  80.3439992   5.1599978  78.3370014  80.9559992   3.5609978  79.4150014
  81.7739992   4.1559978  79.8740014  81.4019992   2.5429978  79.3960014
  79.5929992   3.5829978  80.2590014  79.8239992   2.7739978  80.9840014
  78.7869992   3.3169978  79.5420014  79.4349992   4.8129978  81.1460014
  80.3599992   4.9359978  81.7480014  78.5699992   4.7879978  81.8430014
  79.2979992   5.7049978  80.4980014  40.8349992  15.6709978  83.7860014
  41.3749992  15.6139978  84.7550014  40.1119992  14.8949978  83.4550014
  40.3989992  16.6879978  83.8870014  41.8399992  15.8329978  82.6610014
  42.0019992  14.8689978  82.1340014  41.3859992  16.4549978  81.8600014
  43.1369992  16.4949978  83.0160014  42.8959992  17.5719978  83.1450014
  43.5319992  16.0389978  83.9490014  44.2569992  16.3879978  81.8740014
  45.2579992  16.5579978  82.3250014  44.3389992  15.3089978  81.6240014
  44.0289992  17.2489978  80.5650014  43.0509992  16.9769978  80.1150014
  44.0459992  18.3199978  80.8620014  45.2169992  17.0719978  79.5790014
  46.0989992  17.6159978  79.9800014  45.6139992  16.0369978  79.6550014
  44.9339992  17.5489978  78.2090014  43.9659992  17.0639978  77.9620014
  44.8149992  18.6519978  78.1350014  45.9949992  17.1809978  77.1480014
  46.9039992  17.8189978  77.1900014  46.3649992  16.1529978  77.3540014
  45.4039992  17.2089978  75.6960014  44.5679992  16.4779978  75.6770014
  44.9709992  18.2219978  75.5550014  46.4759992  17.0459978  74.5970014
  47.2759992  17.8149978  74.5460014  47.0259992  16.1169978  74.8600014
  45.9129992  16.7539978  73.1470014  44.9879992  16.1399978  73.1730014
  45.4809992  17.7419978  72.8780014  46.7969992  16.1299978  71.9940014
  47.6769992  16.7969978  71.8680014  47.0619992  15.0609978  72.1380014
  46.0189992  16.1469978  70.7090014  45.5999992  17.1479978  70.4710014
  46.7369992  16.0439978  69.8670014  44.8749992  15.0999978  70.6110014
  44.1679992  15.3009978  71.4440014  44.3639992  15.2329978  69.6330014
  45.4189992  13.6339978  70.8020014  46.3859992  13.4179978  70.2990014
  45.5369992  13.4599978  71.8930014  44.4789992  12.5209978  70.2690014
  44.0689992  11.5459978  70.8570014  44.1669992  12.8139978  68.9560014
  43.2819992  11.9479978  68.2520014  43.8699992  11.2549978  67.6130014
  42.6419992  11.3689978  68.9520014  42.3699992  12.7989978  67.3440014
  41.5549992  12.2149978  66.8660014  43.2699992  13.4709978  66.1940014
  43.8509992  12.6649978  65.6970014  42.5839992  13.7879978  65.3790014
  44.2639992  14.3599978  66.7120014  45.1749992  15.0519978  65.5660014
  44.2199992  15.3599978  64.2690014  43.4099992  16.5219978  64.2050014
  43.3379992  17.0999978  65.1510014  43.9139992  17.2049978  63.4880014
  41.9759992  16.0629978  63.8890014  41.5709992  15.3219978  64.5620014
  41.3459992  16.9389978  63.8660014  41.8909992  15.5089978  62.4770014
  42.4719992  16.4899978  61.5080014  43.5459992  16.3949978  61.5710014
  42.2269992  16.1099978  60.5270014  42.0949992  17.4919978  61.6490014
  42.5639992  14.1829978  62.3150014  41.9559992  13.3339978  62.5910014
  42.8629992  14.0619978  61.2840014  43.4209992  14.0849978  62.9640014
  40.4739992  15.3459978  62.2670014  39.9609992  16.2879978  62.3880014
  40.1269992  14.6899978  63.0520014  40.2089992  14.9269978  61.3080014
  45.6139992  16.3579978  66.1740014  46.2699992  14.1249978  65.1230014
  41.7559992  13.8029978  68.1660014  40.6609992  13.5269978  68.8900014
  39.9709992  12.5539978  68.6970014  40.3109992  14.5629978  69.9550014
  40.9519992  14.3389978  70.8330014  39.2279992  14.5219978  70.2020014
  40.7399992  15.9289978  69.4020014  40.1569992  16.1419978  68.4800014
  41.8139992  15.9519978  69.1160014  40.4689992  17.0009978  70.4340014
  39.6299992  16.5869978  71.0340014  40.1539992  17.8889978  69.8460014
  41.6019992  17.2749978  71.3530014  42.3289992  18.0049978  70.9360014
  42.1599992  16.3229978  71.4790014  41.3259992  17.6159978  72.8500014
  40.7099992  18.5389978  72.9170014  42.2439992  17.7669978  73.4560014
  40.7039992  16.3399978  73.5220014  40.0769992  15.7499978  72.8210014
  39.9339992  16.5669978  74.2890014  41.7039992  15.3329978  74.1510014
  41.8509992  15.7439978  75.1730014  42.7519992  15.3639978  73.7830014
  41.3259992  13.8849978  74.1740014  40.2899992  13.5489978  74.0190014
  42.1969992  12.8929978  74.2320014  41.7509992  11.8879978  74.2390014
  43.6789992  13.0109978  74.2460014  44.0589992  13.6139978  73.3940014
  44.0829992  11.9759978  74.2280014  44.1999992  13.6919978  75.5230014
  43.5719992  14.5619978  75.8100014  45.2619992  14.0189978  75.5010014
  44.2369992  12.7729978  76.7300014  44.9879992  11.9829978  76.5130014
  43.2009992  12.3759978  76.7970014  44.5489992  13.4819978  78.0060014
  43.7419992  14.1669978  78.3460014  45.3879992  14.2079978  77.9570014
  44.9389992  12.6049978  79.2270014  45.3019992  13.2639978  80.0450014
  45.7929992  12.0469978  78.7870014  43.8909992  11.5899978  79.7050014
  43.8859992  10.6339978  79.1400014  42.8639992  12.0129978  79.7120014
  44.1359992  11.2309978  81.1620014  43.9649992  12.2419978  81.5900014
  45.1319992  10.8319978  81.4510014  43.0959992  10.3359978  81.9030014
  43.1359992   9.2769978  81.5690014  42.1309992  10.7969978  81.6010014
  43.1839992  10.4219978  83.0070014  52.7269992 141.2639978  81.6730014
  51.8079992 141.8299978  81.4100014  53.3129992 141.9319978  82.3390014
  52.3979992 140.3509978  82.2150014  53.6059992 141.1299978  80.4620014
  53.7539992 142.1179978  79.9760014  54.6139992 140.8929978  80.8630014
  53.1709992 140.1669978  79.4120014  53.9949992 140.0649978  78.6740014
  52.9509992 139.1819978  79.8760014  51.9579992 140.7869978  78.6200014
  51.0389992 140.8249978  79.2430014  52.2479992 141.7739978  78.2000014
  51.4489992 139.9069978  77.4060014  50.6049992 139.3429978  77.8560014
  50.9359992 140.5169978  76.6310014  52.5939992 139.1299978  76.7290014
  53.2439992 139.8069978  76.1350014  53.3379992 138.5959978  77.3570014
  52.0569992 138.2269978  75.6580014  51.1389992 137.6859978  75.9710014
  51.7819992 138.8909978  74.8110014  52.9309992 137.1569978  74.9910014
  53.2169992 136.5059978  75.8440014  52.2759992 136.5829978  74.3010014
  54.1959992 137.6599978  74.2970014  54.9619992 138.0399978  75.0060014
  54.7609992 136.8489978  73.7890014  53.9379992 138.6539978  73.1480014
  53.2539992 138.1969978  72.4010014  53.4209992 139.5819978  73.4740014
  55.1979992 139.0599978  72.4080014  55.9239992 139.5999978  73.0530014
  55.7449992 138.1849978  71.9960014  54.9619992 139.9679978  71.2500014
  53.9989992 139.8289978  70.7150014  55.0089992 141.0219978  71.5980014
  56.1089992 139.9319978  70.2060014  55.8739992 140.8419978  69.6130014
  57.0799992 140.0599978  70.7310014  56.1919992 138.7399978  69.2940014
  56.7079992 137.9139978  69.8280014  55.1599992 138.3849978  69.0830014
  56.6749992 139.0579978  67.8960014  56.2309992 139.9259978  67.3640014
  57.7189992 139.3869978  68.0820014  56.6649992 137.8209978  67.0320014
  57.2049992 137.7669978  65.9880014  55.9959992 136.8129978  67.6210014
  55.9569992 135.5209978  66.9990014  56.5939992 135.3409978  66.1070014
  56.2689992 134.7099978  67.6920014  54.5829992 135.1749978  66.3710014
  54.6369992 134.1969978  65.8460014  54.2599992 136.1379978  65.3140014
  54.2849992 137.1419978  65.7880014  54.9699992 136.0059978  64.4700014
  52.9749992 135.9279978  64.7940014  52.4869992 137.0009978  63.7060014
  53.7229992 137.9229978  63.3410014  53.5869992 139.1269978  62.6070014
  54.5809992 139.2879978  62.1390014  52.7379992 139.0709978  61.8920014
  53.2649992 140.3449978  63.5300014  53.0799992 141.2549978  62.9780014
  52.2809992 140.0959978  63.9000014  54.2539992 140.7849978  64.5940014
  53.9249992 139.9559978  65.8560014  52.8879992 139.6709978  65.7520014
  54.5609992 139.0939978  65.9920014  54.1029992 140.6209978  66.6880014
  55.7129992 140.5609978  64.1890014  56.3689992 140.6129978  65.0450014
  55.7899992 139.5339978  63.8620014  55.9509992 141.2319978  63.3780014
  54.0759992 142.2199978  64.9400014  53.3229992 142.3319978  65.7050014
  53.7419992 142.7609978  64.0670014  54.9859992 142.6479978  65.3350014
  52.1329992 136.2099978  62.4880014  51.4559992 137.7779978  64.4630014
  53.6079992 135.2299978  67.4470014  53.6319992 134.0749978  68.1750014
  53.9109992 133.0039978  67.6990014  53.3049992 134.2149978  69.6740014
  52.3349992 133.6869978  69.7940014  53.1099992 135.2819978  69.9160014
  54.4509992 133.7019978  70.5440014  55.1899992 132.9859978  70.1250014
  53.9869992 133.3699978  71.4970014  55.3929992 134.7639978  71.0070014
  54.9819992 135.6869978  71.4700014  55.9549992 135.1449978  70.1280014
  56.4839992 134.2599978  71.9750014  57.1889992 133.5559978  71.4850014
  55.9109992 133.8159978  72.8170014  57.2339992 135.4089978  72.7160014
  56.4309992 136.1689978  72.8320014  58.0289992 135.8089978  72.0500014
  57.7029992 135.0599978  74.1700014  58.3049992 134.1269978  74.1460014
  56.7659992 134.8649978  74.7330014  58.7049992 136.0939978  74.8150014
  59.6429992 135.9689978  74.2340014  58.9539992 135.7619978  75.8460014
  58.0799992 137.4609978  74.9060014  57.7349992 137.7399978  73.9000014
  57.9899992 138.2789978  75.8850014  57.4929992 139.2369978  75.6690014
  58.4439992 138.1239978  77.3070014  59.2089992 138.9129978  77.4700014
  58.8669992 137.1829978  77.7200014  57.1779992 138.4179978  78.2380014
  57.0179992 139.5179978  78.2640014  57.3239992 138.0759978  79.2850014
  55.8799992 137.7139978  77.8940014  55.5359992 138.0299978  76.8870014
  55.1299992 138.1329978  78.5990014  55.9539992 136.2319978  78.0280014
  56.7629992 135.8549978  77.3670014  54.9979992 135.8209978  77.6390014
  56.1839992 135.7299978  79.4210014  55.4339992 134.9459978  79.6610014
  55.9949992 136.5289978  80.1690014  57.6329992 135.0959978  79.6820014
  58.4299992 135.6439978  79.1350014  57.6209992 134.0829978  79.2260014
  57.9099992 134.9069978  81.2190014  58.1709992 135.8909978  81.6640014
  58.7799992 134.2459978  81.4220014  56.8759992 134.2669978  82.2400014
  57.2429992 134.1689978  83.2840014  56.6669992 133.2449978  81.8580014
  55.9269992 134.8429978  82.2800014 104.4019992  10.1779978  82.5900014
 103.4389992  10.6749978  82.8350014 105.1059992  11.0139978  82.3900014
 104.7379992   9.6019978  83.4790014 104.3209992   9.2629978  81.3550014
 103.5869992   8.4439978  81.5180014 103.9469992   9.9429978  80.5610014
 105.6029992   8.5849978  80.8370014 105.8579992   7.9189978  81.6890014
 105.2379992   8.0369978  79.9420014 106.8649992   9.4689978  80.5710014
 107.2169992   9.8599978  81.5500014 107.6839992   8.7979978  80.2350014
 106.6189992  10.7759978  79.7360014 106.0739992  11.3629978  80.5050014
 107.6059992  11.2689978  79.6000014 105.7489992  10.8059978  78.5050014
 104.9119992  10.0749978  78.4940014 105.3489992  11.8319978  78.3540014
 106.5759992  10.4539978  77.1840014 107.1869992  11.3599978  76.9820014
 107.0449992   9.4559978  77.3220014 105.5639992  10.0989978  75.9960014
 104.8589992   9.3429978  76.4040014 105.0759992  11.0649978  75.7440014
 106.3279992   9.6359978  74.7770014 106.9829992   8.7789978  75.0450014
 105.5539992   9.1779978  74.1240014 106.8789992  10.7379978  73.8800014
 106.4629992  11.7279978  74.1640014 107.9309992  10.8499978  74.2190014
 106.9089992  10.5629978  72.3510014 105.8649992  10.8439978  72.0940014
 107.5609992  11.3549978  71.9250014 107.2989992   9.0929978  71.8660014
 108.2479992   8.6649978  72.2560014 106.3909992   8.5029978  72.1140014
 107.3249992   9.1509978  70.3190014 108.0059992   9.9519978  69.9590014
 107.7559992   8.1859978  69.9750014 105.8889992   9.4259978  69.7800014
 105.2739992   8.6529978  70.2900014 105.6819992  10.5019978  69.9630014
 105.7599992   9.2009978  68.2590014 106.2129992   9.9899978  67.6200014
 106.3729992   8.2839978  68.1280014 104.3359992   8.8539978  67.8840014
 103.7529992   7.8029978  68.1250014 103.7899992   9.9199978  67.2110014
 102.3569992   9.9719978  67.3030014 101.9079992   9.1709978  66.6770014
 102.0309992   9.8299978  68.3560014 101.9379992  11.2449978  66.6210014
 100.8919992  11.4749978  66.9140014 102.0229992  11.1509978  65.0750014
 101.5949992  10.1769978  64.7540014 101.4779992  12.0199978  64.6480014
 103.3959992  11.1839978  64.6670014 103.6879992  10.7389978  63.1560014
 105.2239992  11.0309978  62.9030014 106.1309992  10.4019978  63.7910014
 105.7919992   9.3879978  64.0930014 107.0079992  10.1739978  63.1480014
 106.5619992  11.1499978  65.0830014 105.7729992  11.0129978  65.8070014
 107.4259992  10.6059978  65.4340014 106.9649992  12.6189978  64.9430014
 105.7629992  13.4799978  64.4640014 104.9919992  13.3519978  65.2090014
 106.0189992  14.5299978  64.4510014 105.3659992  12.9709978  63.5990014
 107.4279992  13.1059978  66.2950014 108.1869992  12.4099978  66.6220014
 107.9369992  14.0389978  66.1010014 106.5399992  13.1819978  66.9040014
 107.9849992  12.8609978  63.9100014 107.5549992  12.4949978  62.9900014
 108.9389992  12.3849978  64.0820014 108.1419992  13.9259978  63.8190014
 103.5339992   9.2519978  63.0610014 102.8749992  11.6159978  62.2320014
 102.7489992  12.3569978  67.0670014 102.1919992  13.5129978  67.3530014
 101.0519992  13.8049978  67.1520014 103.2609992  14.4319978  68.0100014
 103.0159992  15.4479978  67.6330014 104.2479992  14.0619978  67.6570014
 103.0849992  14.4349978  69.5120014 102.0339992  14.4519978  69.8720014
 103.5909992  15.2769978  70.0310014 103.8129992  13.2059978  70.1590014
 104.9059992  13.3249978  69.9940014 103.5539992  12.2659978  69.6280014
 103.4789992  13.1369978  71.6750014 103.0629992  14.1209978  71.9820014
 104.3959992  12.9659978  72.2780014 102.5449992  12.0809978  72.2400014
 102.8219992  11.0949978  71.8090014 101.5539992  12.2789978  71.7790014
 102.6089992  11.7549978  73.7410014 103.6549992  11.5289978  74.0400014
 102.1989992  10.7289978  73.8590014 101.8169992  12.6949978  74.6810014
 101.5899992  12.2599978  75.6780014 100.8609992  12.7719978  74.1220014
 102.4969992  14.0299978  74.7280014 102.4179992  14.6939978  73.8550014
 103.2509992  14.4799978  75.7480014 103.6229992  15.5139978  75.6930014
 103.5909992  13.6869978  76.9980014 104.4449992  13.0269978  76.7350014
 102.7179992  13.0719978  77.3060014 104.1249992  14.4369978  78.1600014
 105.0299992  15.0049978  77.8530014 104.5329992  13.6859978  78.8710014
 103.1439992  15.4339978  78.7800014 102.8189992  16.1689978  78.0130014
 103.7539992  15.9779978  79.5320014 101.8939992  14.7749978  79.4020014
 101.4669992  14.0659978  78.6610014 101.2009992  15.5989978  79.6750014
 102.1059992  13.9739978  80.6750014 102.7919992  14.6429978  81.2360014
 102.5429992  13.0039978  80.3540014 100.8939992  13.6759978  81.4200014
 100.1899992  14.5349978  81.4120014 100.9829992  13.5919978  82.5250014
 100.0329992  12.4799978  80.8940014  99.8999992  12.6409978  79.8020014
  99.0249992  12.4959978  81.3590014 100.5209992  11.0019978  81.0690014
  99.6389992  10.4889978  80.6320014 100.8849992  10.8009978  82.0990014
 101.4129992  10.8559978  80.4220014  35.3039992  17.0599978  81.2570014
  35.5849992  16.3369978  80.4620014  34.6279992  16.6249978  82.0240014
  36.2169992  17.4559978  81.7510014  34.5699992  18.2459978  80.5450014
  33.6739992  17.7599978  80.1020014  34.2829992  19.0689978  81.2320014
  35.2529992  18.8459978  79.2500014  35.9889992  19.6199978  79.5550014
  35.7749992  17.9899978  78.7710014  34.2179992  19.3909978  78.2220014
  33.4359992  18.7099978  77.8220014  33.5719992  20.1649978  78.6880014
  34.8799992  19.8629978  76.9150014  35.6389992  19.0969978  76.6490014
  34.0199992  19.9999978  76.2260014  35.6059992  21.2309978  76.9420014
  35.0359992  21.8869978  77.6330014  36.6209992  21.1489978  77.3870014
  35.6439992  21.9629978  75.6010014  34.6509992  22.2889978  75.2240014
  36.2909992  22.8619978  75.6930014  36.3489992  21.2399978  74.3420014
  37.4379992  21.0429978  74.4410014  35.8389992  20.2549978  74.2880014
  36.1299992  21.9899978  73.0520014  35.1119992  22.4339978  73.0680014
  36.8579992  22.8249978  72.9620014  36.1549992  21.0419978  71.8360014
  35.3389992  20.3069978  72.0060014  35.8579992  21.5719978  70.9060014
  37.4709992  20.3319978  71.4770014  37.8209992  19.7059978  72.3260014
  37.2549992  19.6709978  70.6100014  38.6119992  21.1999978  71.0230014
  38.2199992  21.9339978  70.2870014  39.0949992  21.7029978  71.8870014
  39.8489992  20.4639978  70.3950014  40.4919992  21.2079978  69.8790014
  40.3699992  20.1069978  71.3090014  39.5189992  19.3699978  69.3870014
  39.0259992  18.5779978  69.9890014  38.7929992  19.8119978  68.6710014
  40.7249992  18.9119978  68.7310014  41.1009992  19.6439978  67.9840014
  41.5739992  18.6389978  69.3930014  40.3979992  17.6179978  67.9210014
  39.8439992  16.6199978  68.4010014  40.4989992  17.7959978  66.6330014
  40.5679992  16.6489978  65.8170014  41.3029992  16.9229978  65.0300014
  40.8799992  15.7479978  66.3880014  39.0969992  16.2419978  65.2070014
  39.2189992  15.3359978  64.5760014  38.5399992  17.4069978  64.3220014
  38.8069992  18.3999978  64.7420014  38.8869992  17.1919978  63.2890014
  37.1119992  17.4359978  64.2810014  36.3289992  17.2229978  62.8590014
  35.4359992  18.5019978  62.6070014  35.9089992  19.8409978  62.9400014
  36.9299992  19.8269978  63.3780014  35.9989992  20.2849978  61.9250014
  34.9979992  20.5239978  63.9760014  35.2809992  21.5659978  63.9640014
  34.0219992  20.5109978  63.5130014  34.7999992  20.0229978  65.3890014
  34.1379992  18.6599978  65.3920014  34.7169992  17.9179978  64.8620014
  34.0499992  18.3739978  66.4300014  33.1579992  18.6489978  64.9390014
  36.1599992  19.9889978  66.1540014  35.9769992  19.5839978  67.1390014
  36.8889992  19.2679978  65.8140014  36.5389992  20.9989978  66.1910014
  34.0349992  20.9929978  66.2450014  33.9819992  20.5749978  67.2390014
  33.0479992  21.0999978  65.8180014  34.6189992  21.8979978  66.1680014
  37.3299992  17.2279978  61.7360014  35.4629992  15.9969978  62.9280014
  38.1919992  16.0009978  66.3010014  37.8179992  14.7659978  66.6310014
  38.1579992  13.7999978  65.9540014  36.8429992  14.7639978  67.8330014
  35.7859992  14.4519978  67.6880014  36.6589992  15.8289978  68.0900014
  37.2999992  13.9959978  69.0590014  38.2369992  14.4379978  69.4580014
  37.4869992  12.9149978  68.8800014  36.3219992  14.0309978  70.2570014
  36.6689992  13.3919978  71.0970014  35.5099992  13.3989978  69.8390014
  35.9159992  15.3749978  70.9320014  35.2879992  15.1569978  71.8230014
  35.3649992  16.0629978  70.2560014  37.0839992  16.2459978  71.3820014
  36.5599992  17.1859978  71.6570014  37.7029992  16.4999978  70.4960014
  37.9999992  15.8449978  72.5130014  38.6339992  15.0559978  72.0540014
  37.4319992  15.2539978  73.2640014  38.7489992  17.0819978  73.0720014
  37.9819992  17.8539978  73.2950014  39.4579992  17.4529978  72.3010014
  39.6749992  16.8579978  74.2020014  40.4329992  16.0939978  73.9750014
  39.8049992  17.4789978  75.3520014  40.6729992  17.3689978  76.0190014
  38.9859992  18.6579978  75.8990014  38.2349992  18.9549978  75.1350014
  39.6589992  19.5199978  76.0940014  38.4269992  18.2229978  77.2720014
  37.7349992  17.3549978  77.3250014  37.7269992  19.0439978  77.5330014
  39.4599992  18.2139978  78.4110014  40.0669992  19.1329978  78.2680014
  40.1229992  17.3589978  78.1570014  38.9439992  18.3449978  79.8410014
  38.1779992  17.5459978  79.9360014  38.5119992  19.3669978  79.9100014
  40.0299992  18.2069978  80.9050014  39.5879992  18.5489978  81.8650014
  40.8819992  18.8849978  80.6860014  40.7059992  16.8569978  80.8720014
  41.5729992  16.8199978  81.5660014  41.0969992  16.6849978  79.8470014
  39.7829992  15.6219978  81.0740014  38.9709992  15.7729978  80.3310014
  39.2509992  15.6499978  82.0490014  40.4439992  14.2949978  81.0490014
  41.3909992  14.2829978  81.6300014  40.6059992  13.9709978  79.9990014
  39.8909992  13.5139978  81.6140014  11.6259992  47.0119978  82.8190014
  11.6139992  48.0699978  83.1550014  12.6119992  46.5089978  82.9110014
  10.8789992  46.4529978  83.4230014  11.2929992  46.8799978  81.2920014
  12.1869992  47.2079978  80.7210014  11.0989992  45.8079978  81.0720014
  10.0309992  47.6989978  80.7710014   9.1099992  47.3589978  81.2910014
  10.2599992  48.7719978  80.9480014  10.0759992  47.5599978  79.2250014
  11.1699992  47.6259978  79.0430014   9.8539992  46.5229978  78.8950014
   9.2339992  48.5759978  78.4310014   8.1419992  48.4369978  78.5820014
   9.5489992  49.6239978  78.6210014   9.5069992  48.4239978  76.8570014
  10.5019992  47.9889978  76.6250014   8.7319992  47.7069978  76.5120014
   9.3229992  49.6789978  75.9990014   8.7459992  49.4439978  75.0780014
   8.7749992  50.4729978  76.5490014  10.6009992  50.2129978  75.3520014
  11.3559992  50.5419978  76.0970014  11.1339992  49.4809978  74.7080014
  10.4439992  51.3819978  74.3530014   9.8089992  52.1929978  74.7680014
  11.4599992  51.8049978  74.1950014   9.9369992  50.8869978  72.9920014
  10.5889992  50.0959978  72.5650014   8.9159992  50.4649978  73.1010014
   9.7979992  51.9569978  71.9470014   9.0559992  52.7379978  72.2190014
  10.6639992  52.6209978  71.7360014   9.4049992  51.4729978  70.5370014
   8.5069992  50.8309978  70.6620014   9.1289992  52.3639978  69.9330014
  10.5129992  50.6939978  69.6500014  10.1989992  50.8919978  68.6020014
  11.4929992  51.1939978  69.8040014  10.5189992  49.1359978  69.8600014
  10.8979992  48.8829978  70.8730014   9.5469992  48.6089978  69.7570014
  11.5769992  48.4509978  68.9920014  11.3179992  48.7159978  67.9450014
  12.6349992  48.7289978  69.1880014  11.5059992  46.9139978  68.9570014
  12.4009992  46.1969978  69.3150014  10.3319992  46.6019978  68.4580014
   9.9549992  45.2309978  68.4320014  10.4669992  44.6419978  67.6420014
  10.0789992  44.7849978  69.4420014   8.4429992  45.2199978  68.1140014
   8.0089992  44.2059978  68.2520014   8.2259992  45.7299978  66.7020014
   9.0419992  45.2599978  66.1110014   7.3269992  45.2179978  66.2960014
   8.2339992  47.0779978  66.6830014   8.0359992  47.7579978  65.2360014
   9.2609992  48.7799978  65.2980014  10.5569992  48.3129978  64.9310014
  11.2449992  49.1599978  65.1400014  10.7889992  47.4779978  65.6260014
  10.7659992  48.1579978  63.3780014  11.5829992  47.4559978  63.3030014
   9.8919992  47.6739978  62.9670014  11.0479992  49.4619978  62.6040014
  12.3419992  50.0209978  63.0020014  13.1669992  49.3349978  62.8770014
  12.5259992  50.9039978  62.4070014  12.2839992  50.2279978  64.0610014
  11.0139992  49.2469978  61.0820014  10.1269992  48.7059978  60.7860014
  11.1449992  50.2259978  60.6450014  11.8659992  48.6369978  60.8200014
  10.0629992  50.4989978  62.9880014  10.0739992  50.6069978  64.0630014
   9.0899992  50.5139978  62.5200014  10.4279992  51.4479978  62.6240014
   8.3969992  46.7299978  64.2420014   6.7519992  48.4709978  65.0620014
   7.7549992  46.1399978  68.9950014   6.5169992  45.7379978  69.2560014
   5.8769992  44.8319978  68.6240014   5.9609992  46.4519978  70.5360014
   5.5629992  45.5649978  71.0740014   5.0899992  47.1299978  70.4110014
   7.0949992  47.1359978  71.4330014   6.4719992  47.7089978  72.1520014
   7.7879992  47.7759978  70.8460014   7.9709992  46.0799978  72.0410014
   8.7259992  45.6849978  71.3280014   7.3909992  45.1399978  72.1570014
   8.6669992  46.5389978  73.3030014   7.9669992  47.0589978  73.9920014
   9.4159992  47.3039978  73.0060014   9.3369992  45.3829978  73.9980014
  10.0659992  45.7979978  74.7270014   9.9419992  44.7359978  73.3270014
   8.3619992  44.5599978  74.7200014   7.7709992  43.9199978  74.0310014
   7.6319992  45.2819978  75.1430014   8.8659992  43.4479978  75.6920014
   9.5379992  44.0029978  76.3810014   9.6019992  42.8419978  75.1220014
   7.9389992  42.5139978  76.3710014   7.8479992  41.5279978  75.8920014
   7.1519992  42.8709978  77.3380014   6.5279992  42.0499978  77.7200014
   7.0279992  44.2659978  77.9010014   6.1489992  44.8369978  77.5330014
   7.8679992  44.8719978  77.5010014   7.1509992  44.3559978  79.4000014
   6.2369992  43.9049978  79.8410014   7.2179992  45.4319978  79.6690014
   8.5449992  43.7779978  79.9480014   9.3979992  44.3259978  79.4930014
   8.7149992  42.7479978  79.5670014   8.6409992  43.6799978  81.4570014
   9.0819992  44.5909978  81.9140014   9.4019992  42.9329978  81.7710014
   7.3239992  43.3499978  82.1850014   7.0649992  42.3189978  81.8620014
   6.5959992  44.1629978  81.9760014   7.4959992  43.1499978  83.6300014
   8.2039992  42.2979978  83.7080014   6.4759992  42.8579978  83.9570014
   7.9049992  44.2939978  84.5600014   8.9159992  44.6169978  84.2310014
   8.1379992  43.8709978  85.5610014   7.0769992  45.5339978  84.4530014
   6.0019992  45.3549978  84.6720014   7.1319992  45.9609978  83.4290014
   7.3589992  46.3479978  85.1550014  33.0619992 130.6129978  81.5450014
  33.6299992 131.5669978  81.5430014  33.6119992 129.8759978  82.1680014
  32.1079992 130.8549978  82.0590014  32.6579992 130.0009978  80.2190014
  31.9599992 129.1519978  80.3850014  32.0729992 130.7049978  79.5890014
  33.7719992 129.5029978  79.2850014  34.1109992 128.4939978  79.6060014
  33.4189992 129.4279978  78.2350014  35.0779992 130.3119978  79.2470014
  35.3049992 130.4289978  80.3290014  35.8929992 129.7359978  78.7580014
  34.9749992 131.6979978  78.6100014  34.2609992 132.3949978  79.0990014
  36.0289992 132.0429978  78.5520014  34.6099992 131.6869978  77.1170014
  35.1279992 130.8409978  76.6180014  33.5309992 131.4309978  77.0370014
  34.8399992 133.0809978  76.4730014  34.7609992 133.8339978  77.2860014
  35.9119992 133.1659978  76.1920014  33.8289992 133.5019978  75.3810014
  32.8769992 133.6649978  75.9290014  34.1409992 134.5499978  75.1830014
  33.5159992 132.6769978  74.1980014  34.3699992 132.3189978  73.5830014
  32.9479992 131.7789978  74.5210014  32.6029992 133.3949978  73.1730014
  31.6119992 133.4619978  73.6700014  32.9669992 134.4429978  73.1130014
  32.3339992 132.8859978  71.7260014  31.7479992 131.9439978  71.6790014
  31.7599992 133.6749978  71.1950014  33.5719992 132.8779978  70.7260014
  33.8549992 133.9459978  70.6040014  34.3719992 132.2639978  71.1920014
  33.1779992 132.3929978  69.3150014  32.5009992 133.1499978  68.8640014
  34.1509992 132.3109978  68.7850014  32.5159992 130.9759978  69.2790014
  32.8619992 130.3559978  70.1340014  31.4129992 131.1069978  69.3090014
  32.6799992 130.3769978  67.9250014  32.1059992 131.0239978  67.2270014
  33.7589992 130.2019978  67.7290014  31.9779992 129.0219978  67.9010014
  31.3039992 128.5849978  68.8310014  31.9249992 128.5769978  66.6030014
  30.9759992 127.6419978  66.2180014  31.4389992 126.8919978  65.5420014
  30.5129992 127.1609978  67.1060014  29.8639992 128.3399978  65.3380014
  29.1799992 127.5819978  64.9020014  30.5039992 129.2629978  64.2450014
  31.1809992 129.9919978  64.7380014  31.1449992 128.5689978  63.6590014
  29.4929992 129.8849978  63.4290014  29.9449992 131.0919978  62.5200014
  30.8029992 132.0209978  63.4320014  30.3459992 132.5359978  64.7180014
  29.6789992 133.4159978  64.5990014  29.7309992 131.7999978  65.2790014
  31.5069992 132.8289978  65.6660014  31.0969992 132.8729978  66.6640014
  32.1909992 131.9939978  65.6600014  32.3049992 134.1569978  65.4030014
  33.4099992 133.9409978  64.3680014  34.1099992 133.2179978  64.7580014
  33.0539992 133.6499978  63.3910014  33.9949992 134.8469978  64.3150014
  31.4449992 135.2469978  64.8110014  31.3499992 135.0689978  63.7500014
  30.4719992 135.2659978  65.2810014  31.8299992 136.2349978  65.0160014
  32.8299992 134.6009978  66.6740014  32.0449992 134.7039978  67.4080014
  33.2879992 135.5789978  66.6840014  33.5179992 133.8769978  67.0850014
  30.8269992 130.5219978  61.4720014  28.7389992 131.8389978  62.0140014
  29.0899992 129.2169978  66.1390014  28.2239992 128.7979978  67.0250014
  27.8369992 127.6739978  67.2690014  27.6719992 130.0709978  67.7640014
  26.9699992 130.5149978  67.0270014  28.4309992 130.8719978  67.8970014
  26.9489992 129.6019978  69.0440014  26.1899992 128.8279978  68.8000014
  26.4049992 130.4399978  69.5300014  27.7139992 129.0819978  70.2510014
  28.4779992 128.3789978  69.8560014  26.9109992 128.5699978  70.8210014
  28.3499992 130.2059978  71.1740014  27.6329992 130.8679978  71.7050014
  29.0509992 130.8209978  70.5700014  29.1019992 129.5389978  72.3450014
  30.0129992 129.0359978  71.9560014  28.5059992 128.6869978  72.7360014
  29.4979992 130.5449978  73.4250014  28.8319992 131.4129978  73.2330014
  30.4919992 130.9959978  73.2170014  29.1439992 130.1039978  74.8560014
  28.0859992 129.7749978  74.7680014  29.2219992 131.0519978  75.4300014
  29.8649992 128.9669978  75.5930014  30.9469992 129.1649978  75.6210014
  29.3129992 127.8449978  76.0790014  29.9929992 127.0529978  76.4260014
  27.8919992 127.3619978  76.0980014  27.7619992 126.3799978  76.6010014
  27.5439992 127.3499978  75.0430014  26.7869992 128.1239978  76.9200014
  25.9749992 127.3979978  76.7000014  26.4869992 129.0829978  76.4460014
  27.0369992 128.2459978  78.3990014  28.0899992 128.4899978  78.6550014
  26.7889992 127.2819978  78.8940014  26.2289992 129.5009978  78.9900014
  26.4119992 129.4119978  80.0820014  25.1639992 129.1969978  78.9020014
  26.6539992 130.9149978  78.5450014  26.3619992 130.9579978  77.4740014
  27.7529992 131.0439978  78.6520014  25.8849992 131.9689978  79.3180014
  24.8479992 131.8139978  78.9490014  26.1919992 132.9559978  78.9120014
  25.9519992 131.8619978  80.8320014  27.0359992 132.0809978  80.9440014
  25.6639992 130.8519978  81.1960014  25.1629992 132.9459978  81.6300014
  24.8119992 132.4699978  82.5700014  24.2239992 133.3719978  81.2160014
  25.8479992 133.7839978  81.8830014 114.5359992  14.7839978  83.2330014
 115.5229992  14.4369978  83.6070014 114.1759992  14.0859978  82.4470014
 113.7329992  14.8629978  83.9970014 114.6619992  16.1399978  82.3950014
 113.6509992  16.4799978  82.0870014 115.0279992  16.9069978  83.1110014
 115.5859992  16.2289978  81.1800014 115.2479992  17.1979978  80.7550014
 116.6189992  16.2469978  81.5900014 115.5909992  15.0309978  80.1950014
 116.4299992  14.4029978  80.5660014 114.6059992  14.5219978  80.2660014
 116.0069992  15.5299978  78.8260014 116.5729992  16.4749978  78.9740014
 116.5399992  14.7159978  78.2910014 114.7429992  15.9349978  78.0590014
 114.1179992  15.0219978  77.9680014 114.1449992  16.6739978  78.6350014
 115.0209992  16.4979978  76.7060014 115.7829992  15.9299978  76.1320014
 114.0809992  16.2849978  76.1530014 115.2669992  17.9979978  76.6910014
 114.4529992  18.6479978  77.0780014 116.0679992  18.2519978  77.4170014
 115.8999992  18.4039978  75.3690014 116.2959992  19.4409978  75.4220014
 116.7779992  17.7489978  75.1830014 114.9479992  18.3139978  74.1530014
 114.6079992  17.2569978  74.1710014 114.0469992  18.9589978  74.2370014
 115.5789992  18.4759978  72.7580014 114.7419992  18.7009978  72.0630014
 116.2449992  19.3649978  72.7160014 116.3209992  17.2399978  72.2350014
 117.2919992  17.2019978  72.7720014 115.7669992  16.3419978  72.5830014
 116.7019992  17.3949978  70.7160014 117.5149992  18.1349978  70.5570014
 117.2409992  16.4609978  70.4510014 115.4999992  17.4529978  69.7420014
 114.7039992  16.7979978  70.1560014 115.0629992  18.4729978  69.6840014
 115.7359992  16.9299978  68.3220014 114.7869992  17.0549978  67.7560014
 116.5359992  17.5559978  67.8740014 116.0629992  15.4819978  68.2790014
 115.8389992  14.7039978  69.1910014 116.4519992  15.0929978  67.0420014
 116.4339992  13.6779978  66.7490014 117.3089992  13.5559978  66.0750014
 116.5539992  13.0639978  67.6670014 115.1619992  13.3059978  66.0070014
 115.1179992  12.2219978  65.7680014 114.9699992  14.1009978  64.6640014
 115.9509992  14.1469978  64.1440014 114.1159992  13.5959978  64.1640014
 114.4969992  15.4289978  64.9920014 114.8369992  16.6759978  64.1570014
 113.3879992  17.3349978  64.1260014 113.1339992  18.6519978  64.5940014
 113.0269992  18.6669978  65.7000014 113.9879992  19.3269978  64.3690014
 111.8459992  19.1839978  63.8640014 111.5149992  20.1389978  64.2460014
 112.1459992  19.4069978  62.8510014 110.5649992  18.3159978  63.7660014
 110.8389992  17.1569978  62.8580014 109.9109992  16.6049978  62.8300014
 111.2269992  17.6679978  61.9890014 111.6289992  16.5379978  63.2580014
 110.3339992  17.8819978  65.1280014 111.2799992  17.6739978  65.6050014
 109.8709992  18.6919978  65.6730014 109.7209992  16.9949978  65.1870014
 109.3249992  19.0319978  63.2450014 108.4919992  18.4219978  63.5610014
 109.4729992  19.2169978  62.1910014 109.2649992  20.0119978  63.6940014
 115.6649992  17.4779978  65.0680014 115.2479992  16.5219978  62.7080014
 114.1089992  13.5249978  66.9600014 112.9789992  12.9269978  66.7230014
 112.7789992  12.1099978  65.8100014 111.9609992  13.3199978  67.7700014
 112.4999992  13.7059978  68.6620014 111.3239992  12.4569978  68.0590014
 110.9699992  14.2659978  67.0470014 110.5589992  13.7199978  66.1700014
 111.4459992  15.1299978  66.5370014 109.6749992  14.6339978  67.8190014
 109.3119992  13.7379978  68.3680014 108.8529992  14.9339978  67.1340014
 110.0829992  15.8279978  68.7700014 109.2049992  16.4699978  68.9960014
 110.9329992  16.4029978  68.3460014 110.5549992  15.3569978  70.1860014
 111.5169992  14.8149978  70.0630014 109.7869992  14.6549978  70.5760014
 110.6599992  16.5309978  71.1780014 109.7559992  17.1679978  71.2850014
 111.4979992  17.2289978  70.9700014 111.0879992  16.1299978  72.6180014
 111.2789992  17.0649978  73.1860014 111.9529992  15.4459978  72.4810014
 109.9139992  15.5309978  73.3340014 109.8399992  14.4349978  73.4030014
 109.0029992  16.2749978  73.9900014 108.1909992  15.6319978  74.3620014
 108.8759992  17.7339978  74.1180014 107.9219992  18.0059978  73.6160014
 109.6069992  18.3569978  73.5600014 108.7569992  18.1879978  75.6250014
 107.7679992  17.8029978  75.9540014 108.6239992  19.2909978  75.6340014
 109.8999992  17.8259978  76.4410014 110.6259992  18.5889978  76.7960014
 110.4279992  16.9239978  76.0640014 109.4069992  17.1589978  77.6950014
 108.4699992  16.6069978  77.4670014 109.0229992  17.9169978  78.4120014
 110.5249992  16.3779978  78.4250014 110.4269992  16.5609978  79.5160014
 111.5459992  16.6279978  78.0640014 110.1919992  14.8989978  78.1520014
 110.6369992  14.6829978  77.1570014 109.1009992  14.7199978  78.2590014
 111.0159992  14.0469978  79.1110014 112.1129992  14.1049978  78.9470014
 110.7579992  13.0479978  78.7000014 110.6739992  14.0359978  80.6150014
 110.9809992  14.9409978  81.1810014 111.1839992  13.1469978  81.0460014
 109.5789992  13.9049978  80.7460014 132.6809992 107.9389978  82.3500014
 132.8329992 107.0399978  81.7160014 131.8739992 107.7039978  83.0770014
 133.6189992 108.0739978  82.9300014 132.3329992 109.1769978  81.6010014
 131.4699992 108.8969978  80.9600014 131.8439992 109.9189978  82.2670014
 133.4389992 109.8429978  80.6320014 133.0849992 110.7799978  80.1520014
 134.3929992 110.0509978  81.1630014 133.6919992 108.8719978  79.4820014
 134.5289992 108.2159978  79.8020014 132.7499992 108.2889978  79.3990014
 134.1739992 109.6319978  78.2170014 134.9859992 110.3309978  78.5130014
 134.4999992 108.8689978  77.4790014 133.1279992 110.4369978  77.4330014
 132.5599992 110.9299978  78.2500014 133.6239992 111.2579978  76.8720014
 132.0319992 109.5819978  76.7320014 132.4339992 109.0779978  75.8280014
 131.6719992 108.8269978  77.4640014 130.8069992 110.3249978  76.1770014
 130.1339992 110.7459978  76.9550014 131.2689992 111.1359978  75.5740014
 129.9849992 109.4309978  75.1460014 130.5639992 109.0759978  74.2670014
 129.6749992 108.6019978  75.8180014 128.6019992 109.9389978  74.6160014
 128.0239992 110.2259978  75.5200014 128.8109992 110.8459978  74.0100014
 127.7849992 108.9129978  73.7970014 128.3259992 108.6279978  72.8690014
 127.5569992 108.0169978  74.4120014 126.4809992 109.6049978  73.3610014
 125.9609992 110.1349978  74.1880014 126.5109992 110.4539978  72.6440014
 125.6499992 108.4479978  72.7040014 125.5229992 107.6219978  73.4360014
 124.6589992 108.9189978  72.5270014 126.1659992 107.9169978  71.3820014
 127.0929992 107.3449978  71.6010014 125.4479992 107.1629978  70.9920014
 126.2939992 109.0539978  70.3370014 125.2569992 109.4169978  70.1700014
 127.0249992 109.8679978  70.5300014 126.7409992 108.4579978  68.9630014
 127.2479992 107.3299978  68.7780014 126.3839992 109.3859978  68.0670014
 126.5179992 109.0499978  66.6570014 126.3449992 107.9579978  66.5560014
 125.7069992 109.4219978  65.9950014 127.8629992 109.5089978  66.0500014
 127.9569992 110.6159978  66.0800014 128.0449992 109.0289978  64.5800014
 127.5639992 108.0279978  64.6030014 127.4939992 109.7649978  63.9560014
 129.4179992 108.9589978  64.2180014 130.1879992 107.5739978  63.9250014
 131.6479992 108.1359978  64.0630014 132.1209992 108.9029978  62.9710014
 132.4899992 108.1059978  62.2910014 131.2819992 109.4829978  62.5320014
 133.2859992 109.7769978  63.4820014 133.7739992 109.0119978  64.0680014
 133.9949992 109.9949978  62.6960014 132.9699992 111.0329978  64.3260014
 131.8319992 110.7789978  65.3430014 130.8959992 110.6359978  64.8240014
 132.1279992 109.9369978  65.9510014 131.7729992 111.6129978  66.0260014
 134.1559992 111.4589978  65.0920014 133.9179992 112.3199978  65.6980014
 134.5719992 110.7169978  65.7580014 134.9129992 111.8389978  64.4230014
 132.5089992 112.1679978  63.4880014 133.2399992 112.6159978  62.8320014
 132.1289992 112.9239978  64.1590014 131.6619992 111.9969978  62.8410014
 129.8739992 106.5929978  65.0610014 129.9159992 107.1499978  62.5370014
 128.9869992 108.9989978  66.8510014 129.4269992 109.8409978  67.7770014
 129.1119992 111.0039978  67.9420014 130.5789992 109.1389978  68.5390014
 131.5189992 109.3709978  67.9950014 130.4029992 108.0629978  68.7560014
 130.6099992 109.6789978  69.9730014 129.6489992 109.6529978  70.5290014
 130.9759992 110.7279978  69.9920014 131.6739992 108.9069978  70.8810014
 131.8719992 109.5729978  71.7470014 132.5429992 108.8269978  70.1930014
 131.1999992 107.5039978  71.4440014 131.1889992 106.8669978  70.5340014
 130.1329992 107.6749978  71.7050014 131.9049992 106.8559978  72.6470014
 132.3979992 107.6489978  73.2490014 132.7019992 106.1699978  72.2890014
 130.9109992 106.0689978  73.4900014 130.3609992 105.4579978  72.7440014
 130.1029992 106.7139978  73.8980014 131.5809992 105.0259978  74.4440014
 132.2209992 105.4619978  75.2420014 132.3629992 104.4629978  73.8920014
 130.6959992 104.0269978  75.0610014 130.3519992 103.2449978  74.3680014
 130.1169992 104.1219978  76.2480014 129.3249992 103.4239978  76.5590014
 130.2439992 105.1699978  77.3020014 130.9249992 105.9399978  76.8780014
 130.5669992 104.8399978  78.3130014 128.9439992 105.9259978  77.4860014
 128.1029992 105.2259978  77.6810014 128.6709992 106.4239978  76.5310014
 128.8889992 106.8159978  78.7480014 129.8439992 107.3839978  78.7250014
 128.8909992 106.4269978  79.7890014 127.7029992 107.7989978  78.6980014
 126.7919992 107.1719978  78.8070014 127.4929992 108.3369978  77.7490014
 127.6859992 108.8169978  79.7710014 127.8719992 108.3429978  80.7590014
 126.7009992 109.3269978  79.8330014 128.6179992 110.0249978  79.5990014
 128.3479992 110.4669978  78.6160014 129.7109992 109.8379978  79.6650014
 128.2889992 111.1439978  80.6210014 128.2929992 110.7119978  81.6440014
 127.3329992 111.6399978  80.3450014 129.4159992 112.1769978  80.7250014
 130.4069992 111.6749978  80.7430014 129.3539992 112.7329978  81.6840014
 129.4939992 112.8539978  79.8480014  20.4209992 127.6189978  83.5600014
  19.6319992 127.7359978  82.7860014  20.3539992 128.4539978  84.2900014
  20.0689992 126.7109978  84.0940014  21.7999992 127.1789978  83.1520014
  22.5109992 127.2139978  84.0050014  21.6469992 126.1409978  82.7860014
  22.3569992 128.0099978  82.0650014  21.6469992 127.9329978  81.2140014
  22.5759992 129.0359978  82.4300014  23.7639992 127.6049978  81.5700014
  24.0719992 128.3359978  80.7930014  24.4749992 127.7859978  82.4040014
  23.7199992 126.1809978  81.0400014  24.3379992 125.4229978  81.5660014
  22.6919992 125.7659978  80.9650014  24.2439992 126.0579978  79.6140014
  23.9609992 125.0009978  79.4240014  23.6819992 126.6749978  78.8800014
  25.7569992 126.1829978  79.4420014  26.2069992 127.1269978  79.8180014
  26.3309992 125.3669978  79.9320014  26.1069992 126.1219978  77.8900014
  25.8979992 125.1369978  77.4200014  25.4199992 126.7769978  77.3140014
  27.5369992 126.6659978  77.5380014  27.7649992 127.5739978  78.1360014
  28.2909992 125.8939978  77.8020014  27.6979992 127.0019978  75.9970014
  27.1749992 127.9609978  75.7970014  28.7529992 127.2969978  75.8120014
  27.2639992 125.8679978  75.0230014  27.9129992 124.9709978  75.1160014
  26.2259992 125.5269978  75.2240014  27.3609992 126.2349978  73.5640014
  28.4359992 126.4069978  73.3410014  27.0529992 125.2919978  73.0650014
  26.6219992 127.4149978  72.9790014  25.6879992 127.6019978  73.5510014
  27.2019992 128.3579978  73.0740014  26.0719992 127.1989978  71.5950014
  25.3349992 126.3799978  71.4550014  25.6339992 128.1489978  71.2200014
  27.1349992 126.9099978  70.5140014  27.9159992 127.6759978  70.7110014
  27.4639992 125.8819978  70.7780014  26.6319992 127.0399978  69.1260014
  27.3709992 127.1529978  68.1330014  25.2799992 126.9949978  69.0030014
  24.6579992 127.5019978  67.8320014  25.2579992 128.1479978  67.1550014
  24.2679992 126.6539978  67.2290014  23.4819992 128.3409978  68.3250014
  22.9509992 127.7879978  69.1290014  22.4719992 128.7569978  67.1510014
  21.9589992 127.8009978  66.9120014  21.8169992 129.4659978  67.7020014
  23.1089992 129.3259978  65.9980014  22.2789992 129.8379978  64.8170014
  23.1529992 129.3989978  63.6150014  24.5489992 129.4229978  63.5660014
  24.8749992 129.6619978  62.5310014  24.8939992 130.1359978  64.3450014
  25.1399992 128.0739978  64.0250014  26.2109992 128.0419978  63.8870014
  25.0919992 127.9289978  65.0940014  24.4849992 126.7609978  63.3630014
  24.4089992 126.9069978  61.8950014  24.2119992 125.9429978  61.4500014
  23.5529992 127.5339978  61.6960014  25.3119992 127.3969978  61.5620014
  25.4339992 125.6159978  63.6450014  26.4029992 125.8509978  63.2310014
  25.6099992 125.6469978  64.7110014  25.1079992 124.5959978  63.5040014
  23.0639992 126.3959978  64.0040014  23.2349992 126.1669978  65.0460014
  22.8169992 125.4559978  63.5350014  22.3829992 127.2149978  63.8260014
  21.0119992 129.0419978  64.8150014  22.1959992 131.3219978  64.7620014
  23.9869992 129.5259978  68.9320014  23.1319992 130.3649978  69.5090014
  22.0089992 130.1209978  69.9020014  23.7839992 131.7729978  69.5530014
  23.0919992 132.4669978  70.0760014  24.0349992 132.1149978  68.5260014
  25.0729992 131.7729978  70.4080014  25.4129992 132.8219978  70.2710014
  25.9019992 131.1219978  70.0590014  24.7689992 131.4309978  71.7990014
  24.6559992 130.3389978  71.9670014  23.8859992 131.9009978  72.2840014
  25.8219992 131.8889978  72.8620014  26.3489992 132.7959978  72.4980014
  26.5249992 131.0359978  72.9690014  25.3049992 132.1669978  74.2540014
  24.2709992 132.4849978  74.0010014  25.9269992 132.9199978  74.7840014
  25.2389992 131.0129978  75.2530014  25.0129992 131.5409978  76.2040014
  26.2669992 130.5959978  75.3160014  24.2679992 129.7489978  75.0630014
  24.6299992 129.0789978  75.8720014  24.5129992 129.2559978  74.0980014
  22.8759992 130.2319978  75.0040014  22.9089992 131.0549978  74.2750014
  21.7729992 129.9539978  75.7460014  20.8819992 130.5409978  75.4770014
  21.7509992 128.9619978  76.7900014  22.7569992 128.5529978  77.0250014
  21.1129992 128.0979978  76.5070014  21.4099992 129.4939978  78.2090014
  21.6449992 128.6929978  78.9430014  20.3579992 129.8509978  78.2080014
  22.3749992 130.6089978  78.8770014  22.5969992 131.5209978  78.2830014
  23.3709992 130.1709978  79.1000014  21.8429992 131.1759978  80.2350014
  21.3209992 130.3379978  80.7430014  21.0989992 131.9849978  80.0730014
  22.8899992 131.7029978  81.0960014  23.3439992 132.6569978  80.7510014
  23.7069992 130.9499978  81.0630014  22.3599992 131.9059978  82.4660014
  22.1249992 130.8539978  82.7360014  21.3329992 132.3069978  82.3320014
  23.1159992 132.6249978  83.5750014  22.3809992 132.7509978  84.3980014
  23.2519992 133.6649978  83.2080014  24.3399992 131.8469978  84.0730014
  24.0169992 130.9999978  84.7160014  24.9969992 132.5299978  84.6520014
  24.9469992 131.4009978  83.2560014 131.5659992  39.8209978  82.0800014
 130.4839992  39.7129978  82.3100014 132.1229992  39.8099978  83.0410014
 131.8879992  38.9359978  81.4920014 131.8289992  41.2029978  81.3640014
 130.9339992  41.8429978  81.5170014 132.7999992  41.5889978  81.7400014
 132.1069992  41.1519978  79.8040014 131.2719992  40.6109978  79.3100014
 132.0059992  42.1629978  79.3540014 133.4639992  40.3839978  79.6060014
 134.2129992  40.9629978  80.1870014 133.3009992  39.3599978  80.0060014
 133.9489992  40.4049978  78.1080014 133.1959992  40.1419978  77.3350014
 134.0849992  41.4579978  77.7820014 135.1679992  39.4869978  77.9380014
 135.8759992  39.7199978  78.7620014 134.8139992  38.4349978  77.9200014
 135.7709992  39.6709978  76.5550014 136.2609992  38.7219978  76.2470014
 134.8389992  39.9059978  75.9980014 136.8529992  40.8209978  76.4960014
 136.2959992  41.7789978  76.5730014 137.6009992  40.7119978  77.3100014
 137.6979992  40.9329978  75.2140014 138.7159992  41.3099978  75.4520014
 137.7639992  39.9059978  74.7960014 137.1199992  41.8829978  74.1120014
 137.6039992  41.5769978  73.1600014 136.0589992  41.5539978  74.0770014
 137.2719992  43.3979978  74.4990014 136.5149992  43.6539978  75.2710014
 138.2519992  43.6299978  74.9690014 137.2569992  44.3929978  73.3090014
 137.6929992  45.3519978  73.6640014 138.0109992  43.9659978  72.6130014
 135.8729992  44.4649978  72.5750014 135.4479992  43.4399978  72.6230014
 135.2109992  45.1219978  73.1790014 135.9409992  44.9689978  71.1760014
 136.5669992  45.8819978  71.2670014 136.4749992  44.2079978  70.5680014
 134.6059992  45.3179978  70.4960014 133.9219992  44.4559978  70.6510014
 134.2359992  46.2989978  70.8650014 134.9999992  45.6049978  69.0740014
 135.8249992  46.4119978  68.7290014 134.2309992  44.8999978  68.2380014
 134.3259992  45.1409978  66.8140014 133.4329992  44.7019978  66.3200014
 134.3369992  46.2279978  66.5820014 135.4439992  44.2549978  66.2500014
 136.4029992  44.5549978  66.7250014 135.5099992  44.3919978  64.7540014
 135.3479992  45.4689978  64.5310014 136.4709992  44.0719978  64.2990014
 134.3449992  43.7569978  64.3120014 134.4699992  42.8299978  63.0460014
 132.9179992  42.3779978  62.7020014 131.8809992  43.1569978  63.3230014
 132.1569992  44.2329978  63.3360014 130.9339992  42.9619978  62.7770014
 131.6539992  42.6999978  64.8480014 132.5279992  42.9089978  65.4480014
 130.8629992  43.3789978  65.1320014 131.2859992  41.2329978  65.1550014
 132.5089992  40.4049978  65.1810014 133.2569992  40.6589978  64.4450014
 133.0449992  40.4829978  66.1150014 132.2939992  39.3489978  65.1140014
 130.6649992  41.2349978  66.4780014 130.2069992  40.2629978  66.5850014
 131.3479992  41.3659978  67.3040014 129.8159992  41.8999978  66.5470014
 130.3559992  40.6849978  64.1700014 130.6329992  40.8629978  63.1410014
 129.3719992  41.1089978  64.3050014 130.3159992  39.6149978  64.3080014
 134.8739992  43.7829978  61.9840014 135.3379992  41.6579978  63.3070014
 135.1369992  42.9319978  66.7150014 136.1489992  42.0329978  66.8150014
 137.2159992  42.2599978  66.4240014 135.7099992  40.7519978  67.5190014
 136.4449992  39.9499978  67.2930014 134.8309992  40.3039978  67.0080014
 135.5969992  41.0559978  69.0270014 134.8749992  41.8619978  69.2770014
 136.5529992  41.4399978  69.4420014 135.2649992  39.7559978  69.8660014
 136.0689992  39.0309978  69.6210014 134.3049992  39.3829978  69.4490014
 135.0219992  39.9269978  71.3810014 135.9509992  40.2239978  71.9120014
 134.8179992  38.8929978  71.7340014 133.8559992  40.7929978  71.7750014
 133.9379992  41.8199978  71.3580014 133.9559992  40.8649978  72.8790014
 132.5309992  40.1669978  71.3530014 132.6929992  39.0789978  71.5090014
 132.5069992  40.3089978  70.2510014 131.2809992  40.6309978  72.1010014
 131.6389992  40.6329978  73.1530014 130.5679992  39.7859978  71.9920014
 130.7969992  41.9299978  71.5750014 130.4569992  41.9289978  70.5290014
 130.6889992  43.1059978  72.2310014 130.1589992  43.9259978  71.7260014
 130.9699992  43.3629978  73.7010014 130.6739992  42.5089978  74.3460014
 130.3559992  44.2209978  74.0500014 132.4759992  43.5599978  74.0190014
 132.8809992  44.5509978  73.7220014 133.1009992  42.8039978  73.4970014
 132.7899992  43.3379978  75.4850014 133.8599992  43.5609978  75.6850014
 132.7399992  42.2559978  75.7330014 131.8879992  44.1339978  76.5220014
 131.8459992  43.5229978  77.4490014 130.8339992  44.2399978  76.1860014
 132.3649992  45.4769978  77.0270014 131.5289992  45.8949978  77.6270014
 132.5429992  46.1109978  76.1320014 133.6829992  45.5159978  77.7820014
 133.9789992  46.5679978  77.9840014 134.4389992  45.0799978  77.0940014
 133.6699992  44.7009978  79.0650014 133.5639992  43.6459978  78.7320014
 132.7049992  44.7989978  79.6070014 134.8009992  44.6859978  80.0780014
 134.5179992  44.0859978  80.9690014 135.0949992  45.7179978  80.3650014
 135.7219992  44.3039978  79.5870014  64.6569992 137.5889978  83.6180014
  64.9029992 137.7369978  84.6910014  65.1689992 136.6989978  83.1930014
  63.5709992 137.3549978  83.5830014  64.9249992 138.8399978  82.8170014
  64.5499992 138.4879978  81.8320014  64.2119992 139.6349978  83.1230014
  66.4119992 139.3319978  82.6890014  66.3599992 140.1709978  81.9620014
  66.8879992 139.7339978  83.6100014  67.3099992 138.2429978  81.9860014
  68.3709992 138.5729978  81.9880014  67.3369992 137.3289978  82.6180014
  66.9009992 137.8909978  80.5800014  67.4719992 136.9949978  80.2540014
  65.8489992 137.5449978  80.4910014  67.3349992 138.9459978  79.5950014
  67.0239992 139.9419978  79.9780014  68.4399992 139.0509978  79.5390014
  66.9379992 138.8249978  78.1060014  65.8389992 138.6979978  78.0040014
  67.2249992 139.7969978  77.6500014  67.5749992 137.6249978  77.4750014
  68.6359992 137.8369978  77.7260014  67.2519992 136.6909978  77.9820014
  67.3889992 137.5059978  75.9040014  67.8469992 136.5489978  75.5760014
  66.3149992 137.4189978  75.6330014  68.0989992 138.5789978  75.1510014
  67.6029992 139.5089978  75.5040014  69.1919992 138.5819978  75.3510014
  67.9829992 138.5269978  73.6320014  68.1679992 139.5829978  73.3380014
  68.8859992 137.9759978  73.2920014  66.6299992 138.1019978  73.0660014
  66.4139992 137.0369978  73.2960014  66.0359992 138.7739978  73.7220014
  66.4159992 138.2059978  71.6040014  66.4279992 139.2829978  71.3320014
  67.2279992 137.7509978  70.9970014  65.0019992 137.8479978  71.1450014
  64.9709992 136.7419978  71.2530014  64.2779992 138.2499978  71.8860014
  64.5799992 138.3369978  69.7220014  65.3459992 137.8119978  69.1120014
  63.5769992 137.8779978  69.5880014  64.5329992 139.8529978  69.4030014
  64.6929992 140.7429978  70.2040014  64.1509992 140.0179978  68.1140014
  63.9479992 141.3489978  67.6700014  62.9849992 141.3429978  67.1160014
  63.7079992 142.0569978  68.4910014  65.0009992 141.8869978  66.8380014
  64.5769992 142.8289978  66.4290014  65.3769992 140.9719978  65.5760014
  64.4499992 140.9219978  64.9650014  66.0519992 141.3969978  64.8020014
  65.8539992 139.7249978  66.0000014  66.5239992 138.7169978  64.9700014
  67.6239992 139.6669978  64.3680014  67.8879992 139.6449978  62.9660014
  67.9029992 138.6369978  62.4990014  66.9819992 140.1319978  62.5480014
  69.2879992 140.2829978  62.4830014  69.4699992 139.8929978  61.4920014
  69.2489992 141.3609978  62.5400014  70.4269992 139.7389978  63.3100014
  71.6749992 140.0469978  62.6260014  71.6939992 141.0789978  62.3080014
  72.5979992 139.9449978  63.1770014  71.8419992 139.3809978  61.7920014
  70.3049992 140.4329978  64.6390014  70.2369992 141.5089978  64.5740014
  69.3909992 140.0369978  65.0570014  71.0819992 140.0049978  65.2550014
  70.2739992 138.2379978  63.5850014  70.4949992 137.7049978  62.6720014
  69.2979992 137.9769978  63.9680014  71.1179992 138.0329978  64.2280014
  67.1419992 137.6609978  65.7220014  65.5619992 138.4029978  63.8360014
  66.0939992 142.1789978  67.7230014  67.1359992 142.8459978  67.2530014
  67.2409992 143.1299978  66.0310014  68.2409992 143.1609978  68.2840014
  69.0549992 143.7839978  67.8570014  68.6439992 142.2919978  68.8470014
  67.6759992 143.9889978  69.4190014  66.6889992 143.5029978  69.5740014
  67.3569992 145.0219978  69.1650014  68.5279992 144.0489978  70.7750014
  69.4159992 144.6909978  70.5920014  68.8289992 142.9999978  70.9880014
  67.8019992 144.6029978  72.0380014  66.8469992 144.0439978  72.1330014
  67.6099992 145.6749978  71.8190014  68.6199992 144.4739978  73.3360014
  69.6379992 144.8759978  73.1420014  68.6619992 143.4179978  73.6810014
  67.8639992 145.1249978  74.4190014  67.7059992 146.1539978  74.0310014
  68.5689992 145.3259978  75.2540014  66.5709992 144.4639978  74.8480014
  65.9639992 144.4899978  73.9170014  66.0749992 145.2209978  75.4920014
  66.5939992 143.0009978  75.4400014  66.7039992 142.1729978  74.7230014
  66.3529992 142.6969978  76.7260014  66.3289992 141.6239978  76.9670014
  65.9529992 143.7319978  77.7820014  64.9519992 143.4969978  78.2040014
  65.9359992 144.7449978  77.3260014  66.9499992 143.8549978  78.9630014
  66.7759992 142.9269978  79.5480014  66.7249992 144.6889978  79.6610014
  68.4129992 144.0859978  78.5550014  68.5009992 144.9499978  77.8620014
  68.7229992 143.1359978  78.0720014  69.3249992 144.3549978  79.7520014
  69.1459992 145.4079978  80.0570014  70.3609992 144.3169978  79.3510014
  69.0819992 143.4069978  80.9730014  70.0859992 143.0819978  81.3190014
  68.3869992 142.5449978  80.8880014  68.4919992 144.1949978  82.1880014
  67.5909992 144.7419978  81.8370014  69.3509992 144.7949978  82.5590014
  67.9409992 143.3449978  83.3620014  67.0779992 142.7769978  82.9530014
  67.5469992 144.0579978  84.1170014  68.9279992 142.4129978  84.0710014
  69.7749992 141.9249978  83.5440014  68.3099992 141.6269978  84.5550014
  69.4279992 142.9909978  84.8770014  97.5119992   9.2519978  83.4690014
  98.4889992   9.4419978  82.9750014  97.5409992   8.3099978  84.0590014
  97.3369992  10.1619978  84.0820014  96.4369992   9.0569978  82.3390014
  95.6769992   8.3919978  82.8020014  96.1489992  10.1099978  82.1300014
  96.9139992   8.2569978  81.1530014  97.7519992   8.8449978  80.7220014
  97.3679992   7.2809978  81.4290014  95.9879992   7.9179978  79.9330014
  95.0369992   7.5019978  80.3290014  95.8699992   8.8589978  79.3550014
  96.7269992   6.8589978  79.0630014  97.7359992   7.2929978  78.8980014
  96.7209992   5.8829978  79.5930014  96.2219992   6.7609978  77.6120014
  95.4019992   6.0159978  77.6940014  95.7729992   7.7389978  77.3360014
  97.2799992   6.2329978  76.5900014  97.8819992   5.4159978  77.0420014
  96.6019992   5.7399978  75.8610014  98.1699992   7.1859978  75.7770014
  98.8919992   7.7329978  76.4200014  98.8389992   6.4489978  75.2840014
  97.3549992   8.0339978  74.8170014  96.4729992   7.5249978  74.3730014
  97.0289992   8.8249978  75.5260014  98.2399992   8.6109978  73.6830014
  99.2179992   8.9049978  74.1210014  98.3499992   7.8829978  72.8510014
  97.6669992   9.8359978  73.0720014  97.8459992  10.6099978  73.8480014
  98.2929992  10.0279978  72.1740014  96.1729992   9.7129978  72.6630014
  95.9189992   8.7779978  72.1200014  95.5149992   9.6999978  73.5570014
  95.6959992  10.9629978  71.8310014  94.5909992  11.0309978  71.9230014
  96.1179992  11.8699978  72.3140014  96.1539992  10.8929978  70.3660014
  96.1909992  11.8289978  69.7680014  97.1649992  10.4389978  70.4520014
  95.2379992   9.8779978  69.5100014  95.3539992   8.8889978  70.0030014
  94.1709992  10.1739978  69.4190014  95.7679992   9.7449978  68.0870014
  95.0709992   9.7729978  67.0600014  97.0529992   9.5199978  68.1440014
  97.7659992   9.4539978  66.8760014  97.4779992   8.4819978  66.4230014
  97.4049992  10.2099978  66.1470014  99.2919992   9.4159978  67.1240014
  99.6089992  10.3469978  67.6400014 100.0319992   9.4029978  65.7890014
  99.7609992  10.3899978  65.3560014 101.1419992   9.3889978  65.8390014
  99.4679992   8.3839978  64.9940014 100.1519992   7.6129978  63.8160014
  99.2229992   6.2839978  63.8520014  98.6639992   5.7399978  65.0000014
  98.7349992   4.6529978  64.7850014  99.2099992   6.0339978  65.9230014
  97.1499992   5.9999978  65.1040014  96.7119992   5.9349978  66.0890014
  97.0589992   7.0649978  64.9480014  96.0859992   5.5589978  64.0620014
  95.9229992   3.9849978  64.1320014  95.2869992   3.8099978  64.9870014
  95.5239992   3.7539978  63.1550014  96.9019992   3.5559978  64.2870014
  94.7969992   6.1989978  64.3180014  94.5389992   6.0799978  65.3600014
  94.8929992   7.1989978  63.9210014  94.0029992   5.6799978  63.8010014
  96.5549992   5.8979978  62.6490014  96.5789992   6.9679978  62.5060014
  95.9429992   5.5219978  61.8430014  97.5079992   5.3909978  62.5960014
  99.8229992   8.3519978  62.5620014 101.5599992   7.1649978  64.0180014
  99.7619992   8.2159978  67.7730014  99.7159992   8.2739978  69.1330014
  99.1939992   9.1569978  69.7760014 100.2519992   6.9599978  69.6450014
 100.8679992   6.5449978  68.8190014  99.3749992   6.2859978  69.7450014
 101.1489992   7.1549978  70.9330014 100.7029992   7.7909978  71.7270014
 102.1429992   7.5309978  70.6100014 101.2499992   5.8149978  71.6240014
 101.4789992   5.1279978  70.7810014 100.2699992   5.5349978  72.0670014
 102.2229992   5.7129978  72.7760014 103.2479992   5.8519978  72.3720014
 102.1859992   4.6909978  73.2110014 101.9789992   6.7479978  73.9220014
 101.1039992   6.4649978  74.5460014 101.8549992   7.7829978  73.5380014
 103.1949992   6.7379978  74.8310014 104.1069992   7.1609978  74.3580014
 103.3739992   5.6969978  75.1770014 102.9009992   7.6049978  76.1030014
 102.8609992   8.6899978  75.8690014 103.8529992   7.4359978  76.6510014
 101.7959992   7.1809978  76.9820014 100.9329992   6.6629978  76.5370014
 101.7549992   7.2049978  78.3180014 100.8079992   6.8159978  78.7200014
 102.7959992   7.6499978  79.2160014 102.4239992   8.5909978  79.6740014
 103.7659992   7.9209978  78.7480014 103.1759992   6.8879978  80.4960014
 102.4239992   7.0809978  81.2910014 104.1549992   7.3199978  80.7940014
 103.4739992   5.4179978  80.3710014 103.9699992   5.0469978  81.2930014
 104.0619992   5.3659978  79.4290014 102.2619992   4.4629978  80.1220014
 102.5789992   3.4189978  80.3320014 101.9759992   4.5789978  79.0550014
 101.0129992   4.7899978  81.1250014 100.2439992   4.0259978  80.8830014
 100.5669992   5.7359978  80.7510014 101.3319992   4.7009978  82.6500014
 102.3809992   5.0129978  82.8440014 101.1289992   3.7029978  83.0950014
 100.3659992   5.6049978  83.4500014 100.6299992   5.4589978  84.5190014
  99.2849992   5.4019978  83.2890014 100.4859992   7.1579978  83.2550014
 101.5489992   7.4239978  83.4420014  99.8379992   7.7399978  83.9440014
 100.3229992   7.3719978  82.1770014  12.1789992 108.5989978  82.1710014
  11.2979992 107.9319978  82.0540014  12.1489992 109.3899978  81.3910014
  12.0459992 109.1299978  83.1380014  13.5829992 107.9839978  82.1570014
  14.2519992 108.8699978  82.1190014  13.7979992 107.4739978  83.1200014
  13.9529992 107.1039978  80.8860014  14.9059992 106.6709978  81.2580014
  13.1749992 106.3419978  80.6660014  14.0829992 107.9429978  79.6510014
  13.1169992 108.4749978  79.5200014  14.8599992 108.7079978  79.8630014
  14.3039992 107.1169978  78.3500014  15.1069992 106.3899978  78.5990014
  13.3089992 106.6769978  78.1240014  14.5239992 107.9259978  77.0460014
  15.5259992 108.3869978  77.1810014  14.6459992 107.1979978  76.2160014
  13.4949992 108.9759978  76.7110014  13.2539992 109.5629978  77.6230014
  14.0149992 109.5749978  75.9320014  12.2509992 108.3979978  76.0560014
  12.4219992 107.4269978  75.5420014  11.4609992 108.3129978  76.8320014
  11.6029992 109.3469978  75.0210014  12.2209992 109.4829978  74.1080014
  10.6319992 108.8399978  74.8340014  11.1749992 110.6869978  75.6820014
  10.3869992 110.5089978  76.4460014  11.9979992 111.1319978  76.2810014
  10.5599992 111.6699978  74.6180014  10.2129992 112.6039978  75.1080014
  11.2659992 112.0089978  73.8290014   9.4889992 110.9409978  73.8240014
  10.0279992 110.2319978  73.1590014   8.9019992 110.3939978  74.5920014
   8.6199992 111.9689978  73.0640014   7.7469992 111.3729978  72.7230014
   8.3529992 112.8149978  73.7320014   9.2709992 112.6069978  71.8380014
   8.4429992 113.1879978  71.3790014  10.0939992 113.3339978  72.0030014
   9.7829992 111.5759978  70.8000014  10.5919992 111.0019978  71.3010014
   8.9349992 110.9429978  70.4610014  10.4739992 112.2949978  69.6990014
  10.3599992 113.5089978  69.5310014  11.1169992 111.4629978  68.9290014
  11.9209992 112.0369978  67.9420014  11.3279992 112.7769978  67.3640014
  12.6839992 112.6869978  68.4210014  12.6909992 111.0799978  67.0890014
  13.3939992 111.6279978  66.4260014  11.8699992 110.1909978  66.1340014
  10.9519992 110.7099978  65.7850014  12.4289992 109.9469978  65.2050014
  11.6089992 108.9889978  66.7980014  11.0869992 107.5859978  66.1110014
  10.9929992 107.9059978  64.5440014   9.9299992 108.6609978  64.0010014
   9.1049992 108.4269978  64.7080014  10.1299992 109.7309978  64.2190014
   9.6239992 108.4609978  62.4600014   8.8079992 109.1319978  62.2380014
  10.4829992 108.7969978  61.8970014   9.4209992 107.0689978  62.0200014
   8.1969992 106.6489978  62.7990014   7.4189992 107.3919978  62.7020014
   7.8619992 105.7259978  62.3510014   8.4659992 106.4439978  63.8250014
   9.1449992 107.0569978  60.5230014   8.2979992 107.6869978  60.2950014
  10.0549992 107.3119978  60.0010014   8.7549992 106.0809978  60.2760014
  10.4979992 106.0729978  62.3090014  10.8709992 106.2979978  63.2980014
  11.3299992 106.2249978  61.6380014  10.1529992 105.0509978  62.2410014
  12.2769992 106.6899978  66.2690014   9.8259992 107.0919978  66.6720014
  13.4399992 110.2169978  67.9570014  14.4159992 109.5419978  67.4090014
  14.7019992 109.4919978  66.2270014  15.1109992 108.5759978  68.3590014
  16.1969992 108.7999978  68.4200014  15.0779992 107.4989978  68.0880014
  14.4629992 108.6659978  69.7880014  14.4169992 109.6929978  70.2100014
  15.2739992 108.2099978  70.3950014  13.2929992 107.7249978  70.0730014
  13.7519992 106.7139978  70.1070014  12.5739992 107.7779978  69.2280014
  12.5679992 108.0159978  71.4120014  11.6889992 108.6389978  71.1400014
  13.3859992 108.5329978  71.9580014  12.1999992 106.7869978  72.2620014
  11.9259992 106.8839978  73.3350014  13.0849992 106.1279978  72.1350014
  11.0069992 105.9539978  71.6880014  11.2729992 104.9239978  72.0090014
  10.8509992 105.9079978  70.5890014   9.6319992 106.2769978  72.2650014
   9.7269992 106.2209978  73.3700014   8.9309992 105.4329978  72.0910014
   8.9009992 107.5699978  71.8990014   9.3279992 108.2089978  71.1130014
   7.7479992 107.9309978  72.5040014   7.1839992 108.7879978  72.1070014
   7.1129992 107.0579978  73.5850014   7.4599992 106.0099978  73.4590014
   6.0139992 106.9739978  73.4450014   7.5099992 107.3709978  75.0730014
   8.5909992 107.5459978  75.2590014   7.1119992 106.4459978  75.5430014
   6.8159992 108.6299978  75.6180014   5.7209992 108.4489978  75.5650014
   7.0749992 109.4309978  74.8930014   7.1439992 109.0359978  77.0900014
   6.2029992 109.4649978  77.4960014   7.8359992 109.8989978  76.9780014
   7.6889992 107.9079978  77.9640014   8.5519992 107.5199978  77.3820014
   6.9039992 107.1599978  78.2070014   8.3869992 108.4829978  79.2250014
   8.7769992 109.5029978  79.0190014   9.2269992 107.7879978  79.4380014
   7.5369992 108.6189978  80.5220014   6.6659992 109.3079978  80.5250014
   8.2119992 109.0129978  81.3110014   7.0029992 107.2249978  80.9070014
   7.7439992 106.4659978  80.5770014   6.0529992 107.0289978  80.3660014
   6.8049992 107.0879978  81.9920014 115.6869992 128.6199978  81.0170014
 115.6789992 128.0929978  81.9950014 114.6519992 128.9849978  80.8460014
 116.3859992 129.4619978  81.2080014 116.0759992 127.7689978  79.7860014
 115.5609992 126.7859978  79.8340014 115.8669992 128.3079978  78.8370014
 117.5659992 127.3359978  79.5700014 118.1849992 128.2539978  79.6580014
 117.7869992 126.6199978  80.3900014 117.8219992 126.6729978  78.1770014
 117.4459992 127.2589978  77.3110014 118.9279992 126.5829978  78.1280014
 117.2089992 125.2579978  78.0260014 117.4549992 124.4829978  78.7840014
 116.1139992 125.4319978  78.0860014 117.5319992 124.6239978  76.5910014
 117.2129992 125.3799978  75.8420014 118.6369992 124.5199978  76.5500014
 116.7579992 123.3189978  76.2550014 116.9479992 122.4579978  76.9300014
 115.6919992 123.5659978  76.4470014 116.8099992 122.8759978  74.7870014
 116.6969992 123.7759978  74.1450014 117.7519992 122.4059978  74.4320014
 115.5579992 122.0979978  74.4090014 115.4319992 121.4189978  75.2790014
 114.6499992 122.6949978  74.1800014 115.8379992 121.1539978  73.2190014
 116.6239992 120.4139978  73.4850014 114.8829992 120.5999978  73.0920014
 116.0509992 121.7969978  71.9060014 115.1429992 122.3779978  71.6370014
 116.9129992 122.4969978  71.8650014 116.1759992 120.6799978  70.7540014
 117.0349992 119.9879978  70.8820014 115.3129992 119.9979978  70.9100014
 115.9599992 121.2819978  69.3740014 116.6139992 122.1799978  69.4020014
 116.3229992 120.5269978  68.6450014 114.4969992 121.5719978  68.9050014
 113.9789992 120.5899978  68.9390014 113.9919992 122.2029978  69.6680014
 114.3469992 122.0829978  67.4690014 114.8659992 123.0599978  67.3650014
 114.9099992 121.3309978  66.8760014 112.9209992 122.2579978  66.9150014
 112.0239992 122.4249978  67.6580014 112.8989992 122.1179978  65.5490014
 111.5909992 122.0729978  65.0090014 111.5729992 121.2339978  64.2820014
 110.7709992 121.9869978  65.7550014 111.3489992 123.4189978  64.2020014
 110.3379992 123.3109978  63.7540014 112.4129992 123.7029978  63.1710014
 112.6549992 122.7629978  62.6310014 111.9969992 124.3659978  62.3810014
 113.5509992 124.3819978  63.7340014 115.0079992 124.0289978  63.2880014
 115.8809992 125.3649978  63.6170014 115.4309992 126.6599978  62.9860014
 115.6709992 126.6379978  61.9020014 114.3639992 126.8169978  63.2520014
 116.1959992 127.9459978  63.4680014 117.2589992 127.8449978  63.3090014
 115.6779992 128.7869978  63.0310014 116.1079992 128.2529978  64.9490014
 116.7469992 127.2859978  65.9260014 117.7729992 127.5439978  66.1460014
 116.1359992 127.4279978  66.8050014 116.6929992 126.2539978  65.6120014
 116.6589992 129.6459978  65.2160014 116.2539992 130.2109978  64.3890014
 116.3009992 130.0499978  66.1510014 117.7289992 129.5049978  65.1800014
 114.6529992 128.2929978  65.3370014 114.1629992 127.3709978  65.0610014
 114.2649992 129.1659978  64.8330014 114.5359992 128.2719978  66.4110014
 115.5419992 122.9419978  64.1450014 115.0169992 123.7599978  61.8390014
 111.3069992 124.4679978  65.1680014 110.8949992 125.6969978  64.5480014
 110.4599992 125.7599978  63.4530014 110.9009992 126.8609978  65.5040014
 110.6079992 127.7529978  64.9100014 111.9139992 127.0399978  65.9250014
 109.8739992 126.6939978  66.6440014 108.9169992 126.5839978  66.0910014
 109.8819992 127.6809978  67.1550014 110.1889992 125.6749978  67.7230014
 109.9869992 124.6879978  67.2530014 109.3979992 125.8559978  68.4810014
 111.6049992 125.7589978  68.2860014 112.4419992 125.6479978  67.5640014
 111.8159992 124.9759978  69.0460014 111.9289992 127.0399978  69.0710014
 111.2249992 127.2679978  69.8990014 111.8039992 127.9269978  68.4140014
 113.3389992 127.0899978  69.7320014 113.4649992 128.1179978  70.1330014
 114.1529992 126.9229978  68.9950014 113.4989992 126.0739978  70.9070014
 113.4769992 125.0499978  70.4760014 112.5399992 126.1519978  71.4610014
 114.7289992 126.3479978  71.7970014 115.6929992 126.2519978  71.2760014
 114.7699992 126.8149978  73.1100014 115.7429992 126.8949978  73.6180014
 113.5369992 127.1059978  73.9030014 112.7739992 127.6589978  73.3140014
 113.7879992 127.7999978  74.7340014 113.0169992 125.7329978  74.3270014
 113.7469992 125.1469978  74.9260014 112.9079992 125.1589978  73.3820014
 111.7019992 125.6879978  75.1730014 111.2869992 124.6639978  75.2870014
 110.8679992 126.1839978  74.6320014 111.7829992 126.2519978  76.6560014
 110.7499992 126.2149978  77.0640014 112.1069992 127.3139978  76.6130014
 112.6459992 125.3759978  77.6570014 113.7389992 125.5349978  77.5360014
 112.4399992 124.2849978  77.6240014 112.3399992 125.7879978  79.0990014
 111.2519992 125.6459978  79.2770014 112.6669992 126.8419978  79.2240014
 113.0839992 124.9049978  80.0700014 113.0479992 125.3969978  81.0650014
 114.1059992 124.9619978  79.6400014 112.5269992 123.4709978  80.1990014
 112.8359992 122.9489978  81.1300014 112.8289992 122.8649978  79.3180014
 111.4269992 123.6279978  80.1750014  49.0279992   8.8949978  81.7730014
  48.8859992   8.0229978  81.0990014  48.4289992   8.7559978  82.6980014
  50.0639992   8.7689978  82.1530014  48.7679992  10.1839978  80.9840014
  49.4849992  10.3019978  80.1430014  47.7159992  10.0619978  80.6460014
  48.9229992  11.4409978  81.9030014  48.1379992  11.4129978  82.6890014
  49.8449992  11.3139978  82.5090014  48.6679992  12.8069978  81.2640014
  47.6219992  12.8419978  80.8900014  48.8769992  13.6969978  81.8960014
  49.6429992  12.9829978  80.0600014  50.6559992  12.6579978  80.3790014
  49.3469992  12.4219978  79.1480014  49.7079992  14.4969978  79.5240014
  48.7029992  14.8259978  79.1830014  50.1429992  15.2319978  80.2340014
  50.5159992  14.6069978  78.2150014  50.3919992  15.6569978  77.8720014
  51.6189992  14.5499978  78.3340014  50.0849992  13.7189978  77.0430014
  48.9979992  13.5059978  77.1330014  50.2799992  14.3209978  76.1300014
  50.7449992  12.3729978  76.9550014  51.8059992  12.6639978  77.1130014
  50.5609992  11.5419978  77.6690014  50.7049992  11.6899978  75.5270014
  51.2759992  12.3619978  74.8510014  51.3259992  10.7749978  75.6310014
  49.4299992  11.3619978  74.8840014  49.6199992  10.5119978  74.1950014
  48.6559992  11.1249978  75.6440014  48.9679992  12.4109978  73.9470014
  48.8089992  13.3699978  74.4850014  49.8659992  12.6089978  73.3230014
  47.6649992  12.0759978  73.1810014  47.8309992  11.1829978  72.5420014
  46.8609992  11.8629978  73.9180014  47.3649992  13.1849978  72.1940014
  46.4699992  12.9929978  71.5640014  47.0429992  14.1719978  72.5890014
  48.5099992  13.4189978  71.1670014  49.0009992  14.2609978  71.7000014
  49.2499992  12.5939978  71.0900014  48.1609992  13.9199978  69.7760014
  47.0579992  14.2879978  69.4170014  49.2549992  13.8659978  69.0370014
  49.0189992  14.2509978  67.6660014  48.0489992  13.9359978  67.2240014
  49.0119992  15.3479978  67.4910014  49.9769992  13.5849978  66.6330014
  49.7249992  13.9219978  65.6050014  49.7199992  12.0019978  66.6280014
  49.9519992  11.5539978  67.6180014  48.6549992  11.6979978  66.5460014
  50.5159992  11.4059978  65.5980014  51.7739992  10.6119978  65.9310014
  52.6449992  10.8759978  64.6560014  53.0739992  12.2189978  64.3720014
  52.4859992  12.9919978  64.9120014  54.0989992  12.2199978  64.8000014
  53.0629992  12.4349978  62.8330014  53.5249992  13.3779978  62.5810014
  53.6929992  11.6169978  62.5170014  51.6909992  12.3709978  62.1370014
  50.9659992  13.5669978  62.7720014  51.5909992  14.4449978  62.7080014
  50.0799992  13.6659978  62.1610014  50.7089992  13.3479978  63.7980014
  51.9409992  12.5509978  60.6340014  52.5419992  13.4059978  60.3600014
  52.4429992  11.6429978  60.3360014  50.9139992  12.6769978  60.3250014
  50.9709992  11.0029978  62.4270014  50.8879992  10.8459978  63.4920014
  51.5499992  10.2099978  61.9780014  50.0029992  11.0739978  61.9520014
  52.4229992  11.1619978  67.1680014  51.3579992   9.1939978  65.9790014
  51.3369992  13.8439978  66.9350014  51.6259992  15.1299978  66.6520014
  50.9529992  15.8519978  65.9330014  52.8979992  15.5059978  67.4160014
  53.5119992  16.0319978  66.6530014  53.4799992  14.5869978  67.6390014
  52.7129992  16.4899978  68.6060014  51.9319992  17.2499978  68.3870014
  53.6049992  17.0649978  68.9360014  52.3819992  15.6579978  69.9510014
  52.5329992  14.5749978  69.7540014  51.3609992  15.9489978  70.2770014
  53.4889992  15.8449978  71.0620014  53.4259992  16.9379978  71.2510014
  54.4119992  15.6749978  70.4670014  53.4259992  14.9579978  72.2520014
  53.6449992  13.9329978  71.8830014  52.4129992  15.0819978  72.6920014
  54.3589992  15.3359978  73.4080014  54.2279992  16.4279978  73.5650014
  55.3799992  15.1629978  73.0060014  54.2389992  14.4169978  74.6450014
  53.3269992  14.9109978  75.0440014  55.1969992  14.7129978  75.1230014
  54.0849992  12.9649978  74.5110014  53.1379992  12.6119978  74.0770014
  54.9459992  11.9779978  75.0440014  54.6529992  10.9489978  74.7890014
  56.2549992  12.1919978  75.8500014  56.4609992  13.2809978  75.9260014
  57.0379992  11.6189978  75.3090014  56.2319992  11.6609978  77.3090014
  57.2639992  11.7079978  77.7180014  55.9819992  10.5789978  77.3000014
  55.3079992  12.5489978  78.2220014  54.2679992  12.7969978  77.9180014
  55.8649992  13.5029978  78.1080014  55.1359992  12.1099978  79.6530014
  56.1439992  11.9959978  80.1050014  54.7089992  11.0919978  79.5280014
  54.4199992  13.1979978  80.3830014  53.5219992  13.5689978  79.8440014
  55.0449992  14.0899978  80.6020014  53.8039992  12.6869978  81.6930014
  53.1649992  11.8049978  81.4760014  53.1389992  13.5029978  82.0490014
  54.7939992  12.3139978  82.8320014  55.3889992  11.5149978  82.3410014
  54.2589992  11.9559978  83.7370014  55.8099992  13.4119978  83.3500014
  55.2639992  14.2939978  83.7490014  56.3109992  13.7539978  82.4190014
  56.6009992  12.9929978  84.0070014  30.0959992  23.3319978  82.4990014
  29.9319992  22.7339978  83.4210014  29.1869992  23.2069978  81.8730014
  30.0979992  24.3569978  82.9260014  31.2469992  23.0749978  81.6810014
  32.1679992  23.3579978  82.2340014  31.4029992  22.0269978  81.3450014
  31.1359992  23.8569978  80.4080014  30.9159992  24.9279978  80.6070014
  32.1299992  23.9279978  79.9170014  30.1569992  23.4109978  79.2530014
  30.4319992  22.3359978  79.2130014  29.1749992  23.5119978  79.7630014
  30.1459992  24.2649978  77.9800014  29.7889992  25.2869978  78.2290014
  31.1319992  24.4249978  77.4920014  29.2489992  23.6849978  76.9050014
  29.7349992  22.8669978  76.3320014  28.3969992  23.2009978  77.4280014
  28.7969992  24.7819978  75.9530014  28.0669992  24.4559978  75.1820014
  28.2779992  25.5549978  76.5580014  29.9809992  25.4169978  75.2080014
  29.6019992  26.3439978  74.7270014  30.9659992  25.7179978  75.6270014
  30.3359992  24.6119978  73.8490014  30.6249992  23.5929978  74.1870014
  29.4729992  24.4809978  73.1610014  31.5869992  25.1369978  72.9280014
  32.4759992  25.0539978  73.5880014  31.7049992  24.3899978  72.1140014
  31.4039992  26.5759978  72.3880014  31.1939992  27.2829978  73.2190014
  32.4439992  26.7459978  72.0340014  30.3849992  26.6799978  71.2350014
  29.5379992  26.0189978  71.5140014  30.0879992  27.7049978  70.9260014
  30.8739992  26.1089978  69.9130014  31.2059992  27.0009978  69.3400014
  31.8069992  25.5319978  70.0890014  29.8539992  25.3579978  68.9450014
  29.9289992  24.2559978  69.0670014  28.8649992  25.7099978  69.3080014
  29.8529992  25.7449978  67.4170014  28.8339992  25.6909978  66.9770014
  30.0049992  26.8459978  67.4350014  30.9329992  24.9379978  66.6680014
  31.9289992  24.4539978  67.1460014  30.7249992  24.9669978  65.2820014
  31.9329992  24.8299978  64.5300014  31.9219992  25.6269978  63.7560014
  32.8489992  25.0979978  65.0970014  32.1309992  23.3379978  63.9350014
  33.1929992  23.3209978  63.6100014  31.0829992  22.9609978  62.7320014
  31.3069992  23.7399978  61.9710014  31.3239992  22.0029978  62.2230014
  29.7059992  22.9359978  63.1080014  28.6199992  22.6449978  62.0070014
  27.3059992  22.5149978  62.8640014  27.0389992  23.6579978  63.7540014
  27.2059992  24.6299978  63.2430014  25.9389992  23.7219978  63.8970014
  27.6689992  23.3939978  65.1860014  28.7309992  23.4679978  65.0000014
  27.4169992  24.2329978  65.8170014  27.1889992  22.1259978  66.0430014
  28.0669992  22.1079978  67.3030014  27.7789992  23.0389978  67.7670014
  27.8469992  21.2449978  67.9140014  29.1089992  22.0749978  67.0200014
  25.7469992  22.2699978  66.5020014  25.1709992  22.3799978  65.5950014
  25.4789992  21.3119978  66.9220014  25.6489992  23.1659978  67.0970014
  27.3209992  20.8239978  65.2390014  28.2729992  20.6509978  64.7600014
  26.5089992  20.8469978  64.5270014  27.2139992  20.0449978  65.9790014
  28.5109992  23.7559978  60.9800014  28.8689992  21.2929978  61.5210014
  31.9019992  22.4059978  65.0310014  31.7129992  21.0459978  64.8300014
  31.8669992  20.5229978  63.7750014  31.5129992  20.2579978  66.1470014
  30.9999992  20.9099978  66.8860014  32.5279992  20.0249978  66.5340014
  30.5679992  19.0909978  65.8650014  30.8129992  18.4519978  64.9900014
  29.5139992  19.4159978  65.7280014  30.5169992  18.1119978  66.9990014
  31.5439992  17.6879978  66.9720014  29.8579992  17.2669978  66.7050014
  30.1589992  18.6779978  68.4030014  29.2759992  19.3399978  68.2810014
  31.0019992  19.3289978  68.7200014  29.6979992  17.5119978  69.3490014
  30.5089992  16.7609978  69.4610014  28.7519992  17.0519978  68.9900014
  29.3249992  17.9639978  70.8120014  29.8799992  18.8659978  71.1470014
  29.6599992  17.2019978  71.5480014  27.8609992  18.2749978  71.0890014
  27.6299992  18.0359978  72.1500014  27.2309992  17.5989978  70.4720014
  27.5329992  19.6919978  70.6450014  27.6439992  19.9579978  69.5830014
  27.1259992  20.6859978  71.4410014  27.1589992  21.7099978  71.0400014
  26.9029992  20.6749978  72.9480014  26.2849992  19.7799978  73.1730014
  26.1779992  21.4379978  73.3000014  28.0609992  20.6829978  73.9510014
  28.5809992  21.6629978  73.9040014  28.8269992  19.9789978  73.5600014
  27.7729992  20.1949978  75.4580014  27.1119992  19.3029978  75.4220014
  27.2389992  21.1159978  75.7740014  29.1399992  19.9689978  76.2150014
  29.7409992  20.8559978  75.9200014  29.5599992  19.0399978  75.7730014
  29.0339992  20.0039978  77.7300014  28.6329992  21.0219978  77.9280014
  30.0439992  19.7439978  78.1120014  28.0649992  19.0059978  78.3570014
  28.2629992  18.0499978  77.8270014  27.0109992  19.0679978  78.0120014
  28.1829992  18.9829978  79.8870014  28.8889992  18.1579978  80.1220014
  27.1929992  18.6369978  80.2540014  28.7499992  20.2719978  80.5850014
  29.0329992  19.9589978  81.6130014  27.9529992  21.0459978  80.5990014
  29.6849992  20.6739978  80.1390014 108.3159992 132.6899978  83.1820014
 108.5169992 132.2799978  84.1950014 107.2379992 132.5389978  82.9610014
 108.5289992 133.7799978  83.1550014 109.1929992 132.0899978  82.1120014
 110.2529992 132.3879978  82.2600014 109.0239992 131.0049978  81.9440014
 108.7159992 132.5649978  80.7090014 109.2689992 131.9709978  79.9510014
 107.6319992 132.3489978  80.5940014 109.1669992 134.0319978  80.4600014
 108.5749992 134.7929978  81.0110014 110.2309992 134.0169978  80.7790014
 109.0979992 134.5109978  79.0030014 109.8039992 135.3639978  78.9090014
 109.3189992 133.7699978  78.2060014 107.6529992 135.0219978  78.5800014
 106.8739992 134.3159978  78.9380014 107.5549992 136.0429978  79.0070014
 107.5239992 135.1099978  77.0350014 106.6209992 135.7479978  76.9250014
 108.4199992 135.5639978  76.5610014 107.3489992 133.7839978  76.2590014
 108.1349992 133.0219978  76.4460014 106.3869992 133.4199978  76.6790014
 107.1799992 134.0309978  74.7270014 106.4689992 134.8849978  74.7130014
 108.1779992 134.2509978  74.2920014 106.4469992 132.7269978  74.0510014
 106.9939992 131.8759978  74.5120014 105.4189992 132.8029978  74.4660014
 106.4379992 132.7129978  72.5020014 107.5189992 132.7189978  72.2450014
 106.0819992 131.7659978  72.0430014 105.6319992 133.8819978  71.8900014
 104.5529992 133.7939978  72.1390014 106.0399992 134.7669978  72.4230014
 105.6399992 134.0099978  70.3640014 105.3499992 133.0239978  69.9420014
 105.0329992 134.8759978  70.0250014 107.0589992 134.2699978  69.8290014
 107.4119992 135.1169978  70.4550014 107.7279992 133.4189978  70.0780014
 107.1599992 134.7039978  68.3420014 106.7559992 133.8559978  67.7490014
 106.4829992 135.5819978  68.2670014 108.5949992 134.9409978  67.9600014
 109.5349992 135.1009978  68.7550014 108.6739992 134.9789978  66.6930014
 110.0449992 135.2729978  66.2020014 109.8779992 135.8429978  65.2630014
 110.6189992 135.9259978  66.8930014 110.8349992 133.9239978  65.8800014
 111.7519992 134.1409978  65.2900014 109.9269992 132.9849978  64.9970014
 109.6829992 133.5469978  64.0710014 110.5059992 132.1099978  64.6310014
 108.7809992 132.5339978  65.7210014 107.4959992 132.0069978  65.0610014
 108.0619992 131.0979978  63.9740014 108.8309992 129.9479978  64.4060014
 109.7089992 129.8109978  63.7390014 109.2719992 130.0759978  65.4170014
 108.0539992 128.5839978  64.3300014 108.6149992 127.7259978  64.6720014
 107.2209992 128.6059978  65.0170014 107.6589992 128.1619978  62.9650014
 108.7579992 128.1669978  61.9460014 109.5909992 127.5259978  62.1940014
 108.3419992 127.8039978  61.0170014 109.1619992 129.1629978  61.8470014
 107.0279992 126.8119978  63.1810014 106.1149992 127.0139978  63.7210014
 106.8869992 126.2299978  62.2820014 107.6669992 126.3019978  63.8880014
 106.6599992 129.1119978  62.4270014 106.9089992 130.1599978  62.5040014
 105.7229992 128.8319978  62.8860014 106.4139992 128.8989978  61.3970014
 106.7639992 131.2179978  66.1000014 106.6929992 133.0129978  64.3930014
 111.2639992 133.3959978  67.1820014 111.9379992 132.2249978  67.2040014
 112.3229992 131.6479978  66.2050014 112.2009992 131.6959978  68.5980014
 111.7999992 132.4129978  69.3460014 113.2979992 131.6109978  68.7540014
 111.5229992 130.3559978  68.8930014 111.8829992 130.0999978  69.9120014
 111.6669992 129.5249978  68.1710014 109.9659992 130.5629978  69.1040014
 109.4129992 130.7059978  68.1500014 109.7699992 131.3979978  69.8100014
 109.3639992 129.3849978  69.8250014 109.7199992 129.3979978  70.8770014
 109.9249992 128.4799978  69.5080014 107.8449992 129.0819978  69.6890014
 107.6969992 129.0079978  68.5900014 107.1329992 129.8939978  69.9520014
 107.3599992 127.8119978  70.4780014 107.8159992 126.8409978  70.1880014
 106.2809992 127.7829978  70.2140014 107.3699992 128.0579978  72.0120014
 106.8419992 129.0119978  72.2240014 108.3789992 128.3799978  72.3470014
 106.6969992 127.1219978  72.9730014 105.6099992 127.1949978  72.8170014
 107.2399992 126.4699978  73.9960014 106.5229992 125.9689978  74.6640014
 108.7289992 126.4379978  74.4130014 109.2789992 126.2469978  73.4670014
 108.9119992 125.6229978  75.1450014 109.2589992 127.7899978  74.9250014
 108.7389992 128.2729978  75.7800014 109.0909992 128.5659978  74.1490014
 110.8119992 127.7249978  75.1330014 111.2979992 127.9219978  74.1530014
 111.2029992 126.7419978  75.4700014 111.2109992 128.7629978  76.1200014
 110.9539992 129.8029978  75.8270014 112.3159992 128.6599978  76.1870014
 110.7569992 128.6969978  77.5830014 109.6919992 129.0099978  77.5660014
 111.3519992 129.4289978  78.1720014 110.8849992 127.2219978  78.1510014
 111.7819992 126.5979978  77.9490014 110.0909992 126.6929978  77.5830014
 110.5609992 127.0899978  79.6360014 110.6319992 126.0809978  80.0960014
 109.5009992 127.3899978  79.7760014 111.5739992 127.9699978  80.4000014
 111.4839992 127.6589978  81.4630014 111.4919992 129.0759978  80.3370014
 112.5979992 127.8579978  79.9850014 138.2999992  55.4719978  86.4160014
 138.8819992  55.5839978  87.3550014 137.3269992  55.9779978  86.5930014
 138.8349992  56.1229978  85.6920014 138.2499992  54.0019978  85.9300014
 139.2419992  53.6839978  86.3170014 137.5619992  53.3169978  86.4710014
 138.1689992  53.8409978  84.4480014 139.0769992  54.3009978  84.0040014
 138.0559992  52.7869978  84.1150014 136.9879992  54.6309978  83.8850014
 136.0629992  54.2269978  84.3480014 137.0119992  55.7219978  84.0930014
 136.8619992  54.4069978  82.3890014 136.3759992  53.4379978  82.1450014
 136.2279992  55.1979978  81.9350014 138.1579992  54.3969978  81.5680014
 138.8819992  55.1739978  81.8940014 138.7429992  53.4609978  81.6930014
 137.8299992  54.7379978  80.0680014 137.2709992  55.6979978  80.0610014
 138.8389992  54.8679978  79.6230014 137.0279992  53.8449978  79.1370014
 137.7669992  53.0579978  78.8730014 136.1129992  53.2929978  79.4400014
 136.7629992  54.6859978  77.8350014 136.3139992  54.0209978  77.0660014
 136.0859992  55.5199978  78.1180014 137.9899992  55.3589978  77.1860014
 137.6769992  55.8789978  76.2550014 138.3869992  56.0289978  77.9780014
 139.1609992  54.4699978  76.7820014 139.5379992  53.8929978  77.6540014
 138.8329992  53.7049978  76.0460014 140.2459992  55.4129978  76.1880014
 139.7359992  56.0889978  75.4680014 140.5989992  56.0649978  77.0160014
 141.4489992  54.7809978  75.4200014 142.1339992  55.6539978  75.4740014
 141.8219992  53.9779978  76.0920014 141.2689992  54.1709978  74.0040014
 142.1469992  53.5419978  73.7470014 140.3479992  53.5509978  73.9660014
 141.1139992  55.2299978  72.9110014 140.1359992  55.7429978  73.0390014
 141.9459992  55.9359978  73.1190014 141.2979992  54.6869978  71.5380014
 141.6489992  53.5789978  71.2710014 141.0329992  55.6519978  70.6330014
 140.8499992  55.3099978  69.2480014 141.3419992  56.0519978  68.5840014
 141.3319992  54.3499978  68.9660014 139.3349992  55.2319978  68.8710014
 138.8589992  54.2819978  69.1960014 139.1219992  55.1359978  67.3240014
 139.7349992  55.9439978  66.8710014 139.5499992  54.1539978  67.0320014
 137.7319992  55.1749978  67.0790014 137.1829992  54.9079978  65.6590014
 137.5949992  56.2689978  64.9130014 137.2419992  56.5379978  63.5680014
 136.4879992  55.8229978  63.1750014 136.8929992  57.5799978  63.4020014
 138.4869992  56.3669978  62.6830014 139.0969992  55.5709978  63.0840014
 138.1889992  56.0689978  61.6880014 139.4189992  57.5929978  62.5690014
 139.8329992  58.1729978  63.8890014 138.9929992  58.3949978  64.5300014
 140.4839992  57.5059978  64.4330014 140.4359992  59.0589978  63.7560014
 140.5919992  57.2729978  61.6790014 140.1649992  56.9899978  60.7280014
 141.1419992  58.1829978  61.4930014 141.2509992  56.5259978  62.0960014
 138.6799992  58.6649978  61.7840014 138.2099992  58.3549978  60.8620014
 139.3189992  59.5229978  61.6350014 138.0559992  59.1069978  62.5470014
 137.9509992  53.8749978  64.9130014 135.7189992  54.7389978  65.7730014
 138.7229992  56.4579978  69.2630014 137.9649992  56.5379978  70.2560014
 137.7639992  55.6589978  71.1020014 137.2679992  57.8959978  70.2110014
 136.6989992  57.9349978  71.1640014 136.4959992  58.0479978  69.4270014
 138.3309992  58.9929978  70.0520014 138.4789992  59.0379978  68.9520014
 139.3639992  58.8689978  70.4410014 137.8439992  60.3909978  70.4240014
 137.0589992  60.6369978  69.6780014 138.6939992  61.0999978  70.3280014
 137.2899992  60.6199978  71.8190014 136.5949992  59.7669978  71.9780014
 136.8349992  61.6169978  72.0030014 138.2949992  60.4149978  72.9170014
 138.7639992  61.3799978  73.2090014 139.0189992  59.6359978  72.5930014
 137.7589992  59.6199978  74.2060014 137.6969992  58.5199978  74.0640014
 136.7809992  60.1139978  74.3910014 138.7679992  59.7039978  75.4430014
 139.6489992  59.0959978  75.1470014 138.2279992  59.0869978  76.1930014
 139.0619992  61.0639978  75.9580014 139.7369992  61.7029978  75.3710014
 138.6119992  61.6519978  77.0730014 138.7169992  62.7419978  77.1810014
 137.6379992  61.1289978  78.0950014 137.0149992  60.2429978  77.8460014
 137.0189992  61.9549978  78.5050014 138.4789992  60.6139978  79.3020014
 137.8229992  60.3959978  80.1720014 139.2059992  61.4069978  79.5800014
 139.2249992  59.2579978  79.0450014 140.0879992  59.4429978  78.3700014
 138.4779992  58.5729978  78.5910014 139.7909992  58.7249978  80.3750014
 140.3609992  57.8329978  80.0370014 138.9509992  58.3019978  80.9660014
 140.6629992  59.6359978  81.1980014 140.2129992  60.6499978  81.2680014
 141.5999992  59.6029978  80.6010014 141.1009992  59.2009978  82.6500014
 140.3319992  59.4379978  83.4160014 142.0419992  59.6489978  83.0340014
 141.1679992  57.7059978  82.7760014 142.0109992  57.4849978  82.0870014
 140.2619992  57.2359978  82.3380014 141.2139992  57.1549978  84.2350014
 141.9669992  57.6939978  84.8470014 141.3729992  56.0579978  84.3080014
 140.2389992  57.3529978  84.7310014  37.5809992 135.0359978  85.6050014
  37.8719992 136.1079978  85.5820014  38.5359992 134.4839978  85.4710014
  37.1629992 134.8119978  86.6100014  36.6719992 134.6029978  84.4470014
  36.6559992 133.4929978  84.4910014  35.6579992 134.9219978  84.7690014
  36.9389992 135.2849978  83.0400014  36.1799992 135.0609978  82.2610014
  36.9899992 136.3849978  83.1860014  38.2169992 134.7509978  82.4550014
  39.0319992 135.1869978  83.0720014  38.1039992 133.6469978  82.4970014
  38.5389992 135.1679978  81.0210014  37.9189992 134.4869978  80.4010014
  38.2429992 136.2309978  80.8900014  39.9959992 135.0709978  80.5070014
  40.7959992 135.6339978  81.0340014  40.2849992 134.0489978  80.8320014
  40.2819992 135.5949978  79.0220014  41.3759992 135.5869978  78.8250014
  39.7319992 135.0389978  78.2330014  39.9169992 137.0749978  78.7880014
  38.8079992 137.1049978  78.7400014  40.2539992 137.8169978  79.5430014
  40.3729992 137.5329978  77.3700014  41.4809992 137.6019978  77.4270014
  40.1149992 136.7599978  76.6160014  39.7759992 138.8689978  76.9510014
  38.6669992 138.9149978  76.9130014  39.9859992 139.6829978  77.6770014
  40.3199992 139.3879978  75.6400014  40.0049992 140.4519978  75.5940014
  41.4299992 139.3649978  75.6840014  39.8329992 138.7799978  74.3370014
  39.9969992 137.6829978  74.3990014  38.7569992 139.0419978  74.2490014
  40.5819992 139.3639978  73.1210014  40.1639992 140.3689978  72.9000014
  41.6929992 139.3709978  73.1580014  40.1679992 138.6219978  71.8270014
  40.7099992 139.1249978  70.9980014  40.3839992 137.5389978  71.9480014
  38.6239992 138.6159978  71.3930014  38.0099992 138.2839978  72.2580014
  38.3379992 139.6699978  71.1930014  38.2999992 137.6069978  70.2120014
  39.0819992 136.8069978  69.7610014  37.0479992 137.8279978  69.8270014
  36.4689992 137.1169978  68.7130014  37.2829992 136.5369978  68.2290014
  35.6909992 136.4569978  69.1530014  35.8089992 138.1849978  67.7120014
  34.8379992 138.5689978  68.0930014  35.5059992 137.5389978  66.3850014
  36.3749992 136.8799978  66.1710014  34.6099992 136.8879978  66.4610014
  35.2629992 138.4129978  65.3120014  36.2429992 138.5459978  64.0770014
  37.6729992 138.3969978  64.7260014  38.8089992 138.6989978  63.9360014
  38.6139992 139.5469978  63.2450014  39.6029992 139.0779978  64.6140014
  39.3329992 137.4569978  63.2160014  38.6199992 136.9539978  62.5800014
  40.1819992 137.7919978  62.6380014  40.0019992 136.3219978  63.9940014
  39.1599992 135.8119978  65.1710014  38.8659992 136.6249978  65.8170014
  38.2709992 135.3279978  64.7950014  39.6599992 135.0079978  65.6900014
  40.1639992 135.2269978  63.0180014  40.8369992 135.4999978  62.2190014
  40.5479992 134.3589978  63.5310014  39.2039992 134.8389978  62.7100014
  41.3499992 136.7079978  64.3860014  41.3809992 137.4629978  65.1570014
  41.8579992 137.0379978  63.4920014  42.0029992 135.9569978  64.8060014
  36.0609992 137.3729978  63.2050014  36.1639992 139.9339978  63.4650014
  36.7469992 139.3199978  67.6270014  36.1719992 140.5209978  67.4430014
  34.9619992 140.8009978  67.3820014  37.2499992 141.5249978  67.2310014
  37.3299992 141.8239978  66.1640014  38.2399992 141.0869978  67.4810014
  37.1819992 142.9719978  67.7830014  36.1649992 143.4199978  67.7810014
  37.7249992 143.5549978  67.0090014  37.9999992 143.0639978  69.1030014
  38.0959992 144.1659978  69.2010014  39.0229992 142.6629978  68.9380014
  37.3399992 142.2719978  70.2440014  38.2039992 142.0209978  70.8960014
  36.9469992 141.2879978  69.9090014  36.3819992 143.1019978  71.1130014
  35.8049992 143.7089978  70.3820014  36.9159992 143.8129978  71.7790014
  35.4199992 142.1959978  71.9330014  34.8689992 141.4539978  71.3170014
  34.6099992 142.8279978  72.3570014  35.9699992 141.4079978  73.1320014
  36.6929992 140.6469978  72.7670014  35.0249992 140.8949978  73.4080014
  36.5539992 142.0649978  74.3540014  37.5299992 142.5419978  74.1820014
  35.9979992 142.0899978  75.5940014  36.5529992 142.5629978  76.4170014
  34.6389992 141.5629978  76.1190014  34.3499992 140.6459978  75.5610014
  33.9339992 142.4139978  76.0030014  34.7089992 141.1209978  77.6090014
  33.8279992 140.4619978  77.7650014  34.6719992 142.0029978  78.2830014
  35.9099992 140.2139978  77.9310014  36.8599992 140.7489978  77.7180014
  35.9599992 139.4949978  77.0860014  35.9999992 139.5789978  79.3360014
  36.7419992 138.7599978  79.2240014  35.0659992 139.0709978  79.6550014
  36.6219992 140.4709978  80.4940014  35.8409992 141.2499978  80.6340014
  37.5189992 141.0839978  80.2610014  36.9239992 139.8239978  81.8310014
  37.1269992 138.7439978  81.6670014  35.9939992 139.7669978  82.4360014
  38.0209992 140.4369978  82.7800014  37.6759992 141.4629978  83.0320014
  39.0099992 140.5479978  82.2850014  38.0649992 139.5649978  84.0280014
  38.4779992 138.5649978  83.7770014  37.0539992 139.3759978  84.4480014
  38.5479992 140.1179978  84.8620014  20.5179992 121.0749978  81.8430014
  20.0679992 121.1599978  80.8310014  21.4169992 121.7169978  81.9570014
  19.7859992 121.3029978  82.6470014  21.0049992 119.5679978  82.0110014
  21.5329992 119.2899978  81.0730014  21.5689992 119.5479978  82.9680014
  19.8969992 118.5539978  82.2030014  20.3569992 117.5469978  82.1080014
  19.4469992 118.7199978  83.2050014  18.6759992 118.6559978  81.2590014
  18.0769992 117.7209978  81.3010014  18.0589992 119.5719978  81.3750014
  18.9889992 118.7559978  79.7430014  19.4939992 119.6879978  79.4080014
  19.6209992 117.8539978  79.5970014  17.7299992 118.6539978  78.8850014
  17.2829992 117.6489978  79.0400014  16.8919992 119.3429978  79.1260014
  17.9079992 118.7819978  77.3600014  18.3439992 119.7989978  77.2590014
  18.5569992 117.9689978  76.9690014  16.6389992 118.8689978  76.4820014
  16.0199992 117.9719978  76.6990014  16.0339992 119.7309978  76.8360014
  16.9119992 119.1409978  74.9660014  17.4449992 118.2979978  74.4770014
  15.9389992 119.2499978  74.4390014  17.6319992 120.4749978  74.6810014
  17.1629992 121.3279978  75.2170014  18.6649992 120.4089978  75.0850014
  17.7669992 120.7959978  73.2050014  18.2039992 119.8899978  72.7320014
  16.7699992 120.9219978  72.7320014  18.5479992 122.0739978  72.8010014
  18.1089992 122.9409978  73.3380014  19.5739992 121.9499978  73.2100014
  18.5489992 122.4409978  71.3210014  17.5219992 122.8199978  71.1280014
  19.2609992 123.2299978  70.9960014  18.8779992 121.3349978  70.2310014
  18.0999992 120.5499978  70.3360014  18.8269992 121.7909978  69.2190014
  20.2389992 120.5649978  70.3940014  20.9719992 121.3339978  70.0690014
  20.3059992 120.3369978  71.4800014  20.4259992 119.2349978  69.5300014
  20.1649992 118.0989978  69.9020014  20.9529992 119.5989978  68.3460014
  20.9739992 118.6259978  67.3770014  21.8539992 118.7989978  66.7210014
  21.0249992 117.5779978  67.7410014  19.7149992 118.7589978  66.4750014
  19.8679992 118.0919978  65.6000014  19.3379992 120.2759978  66.0120014
  20.2759992 120.8629978  66.1200014  19.1759992 120.2639978  64.9130014
  18.3379992 120.8049978  66.7520014  17.5029992 122.0489978  66.2740014
  17.2309992 121.6909978  64.7220014  15.9379992 121.1399978  64.3790014
  15.6379992 120.2579978  64.9850014  15.1189992 121.8899978  64.4300014
  15.9289992 120.7919978  62.8200014  16.7579992 120.1249978  62.6340014
  15.0049992 120.2349978  62.7640014  16.0169992 121.8449978  61.7370014
  17.4359992 122.4789978  61.8450014  17.5319992 123.0699978  62.7440014
  18.1439992 121.6679978  61.7590014  17.5579992 123.2139978  61.0630014
  15.7209992 121.2609978  60.4080014  14.7349992 120.8319978  60.3110014
  15.8689992 122.0319978  59.6670014  16.4939992 120.5069978  60.3590014
  14.9849992 122.9189978  62.0740014  15.2819992 123.4939978  62.9390014
  13.9849992 122.5829978  62.3050014  14.8629992 123.6119978  61.2550014
  16.2409992 121.9749978  67.0340014  18.3229992 123.2999978  66.4610014
  18.5809992 118.2489978  67.1830014  17.5299992 117.6559978  66.6260014
  17.3359992 117.4809978  65.4280014  16.6819992 116.9439978  67.6780014
  17.2939992 116.1809978  68.2060014  15.9139992 116.3269978  67.1640014
  15.9279992 117.9549978  68.5130014  16.6039992 118.7889978  68.7960014
  15.6169992 117.4459978  69.4500014  14.5759992 118.4909978  67.9080014
  13.9449992 117.5879978  67.7590014  14.7869992 118.8499978  66.8780014
  13.8369992 119.5699978  68.6680014  12.7649992 119.5099978  68.3810014
  14.1799992 120.6009978  68.4340014  13.8799992 119.3729978  70.1320014
  14.9339992 119.5449978  70.4400014  13.4439992 118.3659978  70.3040014
  13.0629992 120.4189978  70.8430014  12.9049992 120.0919978  71.8930014
  12.0879992 120.5109978  70.3190014  13.7609992 121.7379978  70.9590014
  14.2259992 122.1429978  70.0350014  14.5589992 121.4789978  71.6880014
  12.8689992 122.9079978  71.3650014  12.3249992 123.3649978  70.5250014
  12.7319992 123.3699978  72.5970014  12.2339992 124.3199978  72.8400014
  13.3899992 122.8899978  73.8640014  14.1269992 122.0809978  73.6730014
  12.5429992 122.4559978  74.4380014  14.1579992 124.0059978  74.6380014
  13.5339992 124.8759978  74.9350014  14.9509992 124.4399978  73.9930014
  14.8519992 123.4169978  75.9710014  15.3759992 124.2929978  76.4110014
  15.6639992 122.6909978  75.7550014  13.8629992 122.9189978  76.9700014
  13.1959992 122.1139978  76.5970014  13.1259992 123.7009978  77.2510014
  14.5119992 122.3199978  78.2320014  14.9819992 121.3439978  77.9850014
  13.5569992 122.1289978  78.7660014  15.4089992 123.2269978  79.0590014
  15.1679992 124.3079978  78.9690014  16.4099992 123.1209978  78.5910014
  15.4729992 122.8169978  80.5660014  16.4009992 123.2429978  81.0040014
  15.5949992 121.7159978  80.4830014  14.2469992 123.1689978  81.3550014
  14.1639992 124.2679978  81.4990014  14.2469992 122.7899978  82.3990014
  13.3219992 122.7169978  80.9380014 121.7729992 125.7239978  81.0940014
 120.7259992 125.4019978  81.2780014 121.9009992 126.6449978  81.7020014
 122.3589992 124.8279978  81.3910014 122.0779992 125.9839978  79.6310014
 121.5799992 126.9069978  79.2660014 123.1589992 126.1989978  79.4890014
 121.9529992 124.7989978  78.6130014 122.2789992 123.8169978  79.0170014
 120.8859992 124.6179978  78.3610014 122.4999992 125.0679978  77.1540014
 121.8779992 125.8359978  76.6470014 123.5549992 125.3819978  77.3070014
 122.3119992 123.8399978  76.2820014 122.8409992 123.0079978  76.7950014
 121.2189992 123.6649978  76.1810014 122.8629992 124.0609978  74.8700014
 122.2869992 124.7469978  74.2120014 123.8759992 124.5099978  74.9440014
 122.8509992 122.7219978  74.0080014 123.4199992 121.9629978  74.5870014
 121.7899992 122.4079978  73.9160014 123.2869992 122.9349978  72.5840014
 122.6259992 123.6969978  72.1200014 124.3569992 123.2349978  72.5970014
 123.0969992 121.7319978  71.5770014 123.4849992 122.2049978  70.6500014
 123.7939992 120.9499978  71.9490014 121.6809992 121.2029978  71.4810014
 121.5369992 120.6099978  72.4100014 121.0099992 122.0879978  71.4570014
 121.5099992 120.3619978  70.2010014 122.2409992 119.5429978  70.3760014
 120.4659992 119.9949978  70.1020014 121.6539992 121.0739978  68.8620014
 122.6219992 121.6189978  68.8670014 121.7109992 120.3009978  68.0660014
 120.4899992 121.9599978  68.5730014 119.8919992 121.5309978  67.7410014
 119.8529992 122.0879978  69.4750014 120.7809992 123.4069978  68.2910014
 121.8349992 123.7169978  68.4520014 120.5999992 123.6929978  67.2330014
 119.9639992 124.5109978  69.1770014 118.9529992 124.5889978  68.7230014
 119.8659992 124.1809978  70.2330014 120.5079992 125.9539978  69.1350014
 120.4939992 126.6599978  70.1480014 120.8139992 126.3609978  67.8230014
 121.1569992 127.7399978  67.5430014 120.6659992 128.1309978  66.6260014
 120.8329992 128.3359978  68.4230014 122.7019992 127.8369978  67.4340014
 122.9729992 128.9029978  67.2770014 123.1579992 127.0039978  66.3120014
 122.5219992 127.1369978  65.4110014 124.0819992 127.4649978  65.9020014
 123.3809992 125.6589978  66.7320014 123.8119992 124.6409978  65.6420014
 122.5519992 124.7439978  64.5770014 122.9059992 124.2929978  63.2710014
 122.9729992 125.2049978  62.6400014 123.8889992 123.7929978  63.1360014
 121.8819992 123.2489978  62.8690014 122.1669992 122.7999978  61.9290014
 122.0699992 122.5509978  63.6720014 120.3889992 123.5629978  62.6830014
 120.2769992 124.7929978  61.7400014 120.5389992 124.5109978  60.7310014
 119.2519992 125.1319978  61.7570014 120.8889992 125.5589978  62.1930014
 119.7129992 122.3719978  61.8900014 119.7819992 121.4719978  62.4820014
 118.6739992 122.6439978  61.7700014 120.3219992 122.2679978  61.0040014
 119.5829992 123.7909978  63.9230014 120.0549992 124.5649978  64.5100014
 119.6219992 122.8519978  64.4560014 118.5419992 124.0249978  63.7540014
 125.0679992 125.0189978  64.9530014 123.7199992 123.2889978  66.2270014
 123.3099992 127.3419978  68.6840014 124.5399992 127.7249978  68.9050014
 125.1399992 128.6029978  68.3870014 125.0479992 126.6969978  70.0020014
 125.9679992 127.1699978  70.4070014 125.2939992 125.7399978  69.4940014
 124.0639992 126.4599978  71.1810014 124.5869992 125.8109978  71.9160014
 123.1809992 125.9339978  70.7590014 123.5889992 127.7309978  72.0040014
 122.8939992 128.1919978  71.2690014 124.5249992 128.3249978  72.0690014
 122.8569992 127.3679978  73.2910014 123.4019992 126.4809978  73.6810014
 121.8029992 127.0259978  73.2200014 122.8319992 128.5519978  74.3590014
 122.4779992 128.0009978  75.2560014 122.1029992 129.3499978  74.1010014
 124.1709992 129.1429978  74.8370014 124.9579992 129.5939978  74.1960014
 124.6569992 128.3339978  75.4220014 123.9319992 130.3479978  75.8200014
 123.0599992 130.0719978  76.4500014 123.6539992 131.2289978  75.2030014
 125.1209992 130.6449978  76.6510014 125.8119992 131.3789978  76.2120014
 125.4609992 130.0369978  77.7630014 126.4489992 130.1789978  78.2260014
 124.6569992 128.9139978  78.4240014 125.2609992 127.9909978  78.2930014
 123.6429992 128.7559978  77.9980014 124.5139992 129.2609978  79.9140014
 125.4399992 129.7749978  80.2510014 124.6009992 128.3339978  80.5210014
 123.3129992 130.0079978  80.5000014 122.4829992 129.2839978  80.3480014
 123.1659992 130.8949978  79.8480014 123.4879992 130.3019978  82.0460014
 124.3249992 131.0159978  82.2000014 123.7169992 129.3029978  82.4740014
 122.2329992 130.7869978  82.7830014 121.9569992 131.7119978  82.2320014
 122.5159992 131.0759978  83.8170014 121.0599992 129.8279978  82.8480014
 121.4419992 128.7859978  82.9130014 120.4129992 129.7579978  81.9470014
 120.1199992 130.1449978  84.0620014 120.4679992 130.2599978  85.1100014
 119.5149992 129.2129978  84.0880014 119.1559992 131.2659978  83.6270014
 118.7069992 130.9579978  82.6590014 119.6029992 132.2829978  83.5790014
 118.2939992 131.4199978  84.3110014  99.6029992 134.5339978  85.5810014
 100.2449992 133.6469978  85.3930014  99.0709992 134.3569978  86.5400014
 100.2059992 135.4059978  85.9140014  98.7139992 134.6929978  84.4060014
  98.0249992 135.5439978  84.5920014  99.3309992 134.9769978  83.5270014
  97.8429992 133.4599978  84.1030014  98.3569992 132.5319978  84.4330014
  97.0259992 133.5839978  84.8450014  97.3189992 133.4649978  82.6780014
  96.6979992 132.5439978  82.6680014  96.6729992 134.3679978  82.6450014
  98.4009992 133.3099978  81.5600014  99.3069992 133.8889978  81.8400014
  98.6539992 132.2279978  81.5820014  97.9569992 133.7629978  80.1290014
  96.9129992 133.4509978  79.9120014  97.9849992 134.8739978  80.1360014
  98.8789992 133.3319978  78.9690014  99.0219992 134.1619978  78.2440014
  99.9239992 133.1619978  79.3070014  98.5109992 131.9969978  78.2100014
  98.7139992 131.1519978  78.9020014  97.4009992 132.0459978  78.1740014
  99.2669992 131.7199978  76.9300014 100.3739992 131.7189978  77.0200014
  98.9819992 130.7069978  76.5720014  98.9849992 132.6759978  75.7590014
  98.0429992 133.2229978  75.9770014  99.7059992 133.5059978  75.5950014
  98.8469992 131.9539978  74.3480014  99.7629992 131.3729978  74.1070014
  97.9699992 131.3029978  74.5490014  98.4699992 132.8739978  73.2170014
  98.3579992 132.3399978  72.2490014  97.5229992 133.3779978  73.5060014
  99.5689992 133.9419978  72.9680014  99.6029992 134.5179978  73.9170014
 100.5679992 133.4849978  72.8030014  99.3389992 134.8539978  71.8110014
 100.2959992 135.3099978  71.4790014  98.9409992 134.3409978  70.9090014
  98.4069992 136.0569978  72.1590014  97.4169992 135.5819978  72.3320014
  98.7779992 136.6509978  73.0210014  98.5309992 137.0779978  71.0180014
  98.6169992 138.2549978  71.1430014  98.4409992 136.4099978  69.8400014
  98.3649992 137.2569978  68.6800014  97.2909992 137.4359978  68.4560014
  98.9029992 138.2239978  68.7750014  98.8929992 136.5479978  67.4060014
  98.7399992 137.2909978  66.5950014  98.0149992 135.3359978  67.0890014
  98.1259992 134.6829978  67.9810014  96.9829992 135.6249978  66.7960014
  98.5769992 134.5899978  66.0060014  98.5529992 133.0579978  65.7460014
  99.0559992 133.0349978  64.2670014  98.6699992 133.9849978  63.2610014
  98.4699992 133.3469978  62.3740014  97.6629992 134.3579978  63.5460014
  99.6009992 135.2869978  63.2280014  99.2469992 136.1119978  62.6270014
  99.7749992 135.6419978  64.2330014 100.9599992 135.1149978  62.6250014
 100.8099992 134.8009978  61.1430014 101.7439992 134.3989978  60.7800014
  99.9989992 134.0919978  61.0720014 100.5009992 135.6389978  60.5360014
 101.9009992 136.3159978  62.6820014 101.9399992 136.5719978  63.7300014
 102.8479992 136.0209978  62.2550014 101.5339992 137.1459978  62.0970014
 101.6249992 133.9219978  63.1870014 101.1379992 132.9699978  63.0340014
 101.6719992 133.8819978  64.2650014 102.6619992 133.9159978  62.8880014
  99.5679992 132.4069978  66.6060014  97.1329992 132.4399978  65.7550014
 100.2979992 136.2479978  67.5810014 101.0699992 137.3529978  67.4430014
 100.6659992 138.4569978  67.0760014 102.4219992 137.0999978  68.1530014
 103.2589992 137.2209978  67.4320014 102.5139992 136.0689978  68.5560014
 102.6019992 137.8789978  69.4370014 101.7429992 137.6359978  70.0990014
 102.7209992 138.9689978  69.2580014 103.8589992 137.4909978  70.1800014
 104.6469992 137.5969978  69.4040014 103.8569992 136.4329978  70.5180014
 104.4009992 138.2229978  71.4170014 104.6249992 139.1869978  70.9110014
 105.3229992 137.6559978  71.6690014 103.4909992 138.3369978  72.6210014
 102.8289992 139.2259978  72.5360014 104.1769992 138.5519978  73.4690014
 102.6209992 137.0449978  73.0220014 103.1189992 136.0679978  72.8430014
 101.7549992 137.0529978  72.3270014 102.0809992 137.0279978  74.4850014
 102.9819992 136.9989978  75.1350014 101.5629992 136.0459978  74.5000014
 101.1269992 138.1379978  74.7270014 100.9639992 138.8989978  73.9500014
 100.3819992 138.3019978  75.8580014  99.7839992 139.2219978  75.9400014
 100.4869992 137.3949978  77.0420014 100.7359992 136.3809978  76.6610014
  99.5019992 137.3289978  77.5510014 101.6239992 137.9709978  77.9710014
 101.2269992 138.9199978  78.3890014 102.6039992 138.1669978  77.4850014
 102.0189992 136.9519978  79.1040014 102.9339992 137.1999978  79.6840014
 102.0359992 136.0089978  78.5170014 100.9249992 136.7359978  80.1980014
 101.3039992 135.8859978  80.8030014  99.9169992 136.5429978  79.7720014
 100.5709992 137.9089978  81.2050014 100.0339992 137.3889978  82.0270014
  99.9169992 138.6959978  80.7740014 101.7969992 138.5419978  81.7570014
 102.3859992 139.1279978  81.0200014 102.5439992 137.7819978  82.0710014
 101.4469992 139.4469978  82.9040014 102.4539992 139.7559978  83.2590014
 100.9449992 138.7969978  83.6530014 100.5249992 140.6459978  82.8080014
 100.9779992 141.6559978  82.7190014 100.0769992 140.7039978  83.8230014
  99.7119992 140.4109978  82.0880014 140.4709992  89.2249978  84.0140014
 139.7869992  88.4329978  83.6390014 139.9209992  90.0839978  84.4540014
 141.1619992  88.8099978  84.7780014 141.2739992  89.7529978  82.8190014
 141.9649992  90.5929978  83.0450014 141.9299992  88.9329978  82.4560014
 140.3589992  90.2509978  81.6670014 139.6179992  89.4419978  81.4900014
 139.8959992  91.2249978  81.9320014 141.2349992  90.4699978  80.3840014
 142.0959992  91.0249978  80.8150014 141.5459992  89.5419978  79.8580014
 140.5619992  91.3019978  79.3220014 139.7669992  90.7009978  78.8310014
 140.0769992  92.2229978  79.7110014 141.5739992  91.7769978  78.2230014
 140.8499992  92.3469978  77.6030014 142.2569992  92.4819978  78.7430014
 142.3789992  90.6859978  77.4450014 143.0459992  91.1309978  76.6770014
 143.0489992  90.1139978  78.1210014 141.4489992  89.7379978  76.6750014
 142.0029992  88.8259978  76.3670014 140.6379992  89.5379978  77.4070014
 140.9559992  90.4749978  75.4020014 140.6879992  91.5339978  75.6050014
 141.7959992  90.4249978  74.6760014 139.7939992  89.9069978  74.5660014
 138.8529992  89.8489978  75.1550014 139.5639992  90.5439978  73.6850014
 140.1079992  88.4639978  74.0170014 140.8519992  88.4459978  73.1910014
 140.3499992  87.8939978  74.9390014 138.8339992  87.8549978  73.4380014
 138.7379992  86.8099978  73.8030014 137.9539992  88.4219978  73.8080014
 138.6899992  87.8279978  71.8850014 139.4629992  87.1179978  71.5200014
 137.6989992  87.3779978  71.6650014 138.8959992  89.2109978  71.2810014
 138.2689992  89.9449978  71.8320014 139.9429992  89.4949978  71.5200014
 138.5819992  89.4109978  69.7860014 138.8759992  88.5549978  69.1400014
 137.4819992  89.5259978  69.6810014 139.2929992  90.6349978  69.1380014
 140.1679992  91.1979978  69.7440014 138.8469992  90.7959978  67.9060014
 139.2689992  91.9779978  67.1290014 138.3809992  92.2379978  66.5140014
 139.6339992  92.7839978  67.8010014 140.5339992  91.6429978  66.2930014
 140.7809992  92.6199978  65.8240014 140.1419992  90.7169978  65.1100014
 139.1579992  91.0799978  64.7420014 140.7899992  90.7859978  64.2100014
 140.0599992  89.3619978  65.5760014 139.6279992  88.2199978  64.5240014
 140.3989992  88.6649978  63.1750014 141.6219992  88.0729978  62.8590014
 141.3999992  87.0339978  62.5360014 141.9939992  88.5509978  61.9280014
 142.6679992  88.0979978  64.0230014 142.7539992  89.1349978  64.3110014
 142.1699992  87.5369978  64.8010014 144.0549992  87.5329978  63.8380014
 144.7329992  88.3209978  62.7410014 145.0099992  89.3309978  63.0070014
 145.6599992  87.7959978  62.5680014 144.0829992  88.3029978  61.8780014
 144.8639992  87.6409978  65.0730014 145.6909992  86.9609978  64.9310014
 145.0489992  88.6689978  65.3470014 144.3879992  87.0999978  65.8770014
 143.8769992  86.0489978  63.4060014 143.2159992  85.6179978  64.1430014
 144.8159992  85.5169978  63.4210014 143.4819992  85.9029978  62.4120014
 140.0129992  86.8819978  64.9200014 138.1889992  88.3539978  64.3710014
 141.5899992  91.2329978  67.1300014 142.7999992  91.1829978  66.5320014
 143.0239992  91.4619978  65.3190014 143.8889992  90.8269978  67.5200014
 144.8069992  91.4099978  67.2980014 144.2799992  89.8039978  67.3320014
 143.5859992  91.3029978  68.9520014 142.6789992  90.7539978  69.2830014
 143.3719992  92.3819978  68.7960014 144.7749992  91.1439978  69.9700014
 145.5979992  91.8639978  69.7760014 145.1409992  90.0959978  70.0200014
 144.2699992  91.5439978  71.4100014 143.4769992  92.3159978  71.3120014
 145.1049992  91.8929978  72.0550014 143.7439992  90.3209978  72.1850014
 142.9429992  89.8299978  71.5930014 143.4009992  90.6579978  73.1870014
 144.8779992  89.3179978  72.6520014 145.6119992  89.9059978  73.2450014
 145.3879992  88.9469978  71.7380014 144.4659992  88.1589978  73.5570014
 144.0429992  87.3309978  72.9490014 143.5859992  88.5009978  74.1420014
 145.6789992  87.5659978  74.2760014 146.3919992  87.0089978  73.6510014
 145.9439992  87.8009978  75.6040014 146.7919992  87.2469978  76.0330014
 145.1579992  88.6489978  76.5410014 144.1019992  88.8529978  76.2620014
 145.6819992  89.6289978  76.5370014 145.0729992  87.9859978  77.9630014
 144.8249992  88.8059978  78.6710014 146.0889992  87.6569978  78.2700014
 143.9619992  86.9659978  78.0570014 144.2149992  86.1929978  77.3010014
 143.0049992  87.4379978  77.7500014 143.8469992  86.2699978  79.4650014
 144.4489992  86.7239978  80.2800014 144.1859992  85.2149978  79.3870014
 142.4609992  86.2169978  80.0510014 141.8989992  85.3949978  79.5580014
 141.8869992  87.1349978  79.8040014 142.4959992  86.0059978  81.5540014
 141.5279992  86.2279978  82.0520014 143.2169992  86.7369978  81.9780014
 142.8829992  84.6729978  82.2440014 142.5129992  84.8329978  83.2790014
 143.9519992  84.6479978  81.9450014 142.1569992  83.4449978  81.6520014
 142.5229992  83.3469978  80.6080014 141.1009992  83.7909978  81.6170014
 142.3969992  82.5349978  82.2420014 120.9589992  24.3209978  82.6890014
 122.0589992  24.2629978  82.5410014 120.7679992  24.0139978  83.7400014
 120.6179992  25.3589978  82.4860014 120.3209992  23.2699978  81.7950014
 119.4039992  23.0239978  82.3720014 119.8929992  23.6899978  80.8600014
 121.0199992  21.9659978  81.4410014 121.2999992  21.5189978  82.4190014
 120.2059992  21.3499978  81.0030014 122.2839992  22.2779978  80.6160014
 122.8349992  23.1369978  81.0550014 122.9779992  21.4109978  80.6440014
 121.8709992  22.5759978  79.1740014 121.1149992  21.8249978  78.8590014
 121.3109992  23.5319978  79.0900014 123.1179992  22.5459978  78.1930014
 123.7559992  23.3899978  78.5340014 123.6449992  21.5909978  78.4010014
 122.6919992  22.8569978  76.7550014 122.0059992  23.7289978  76.8130014
 123.5829992  23.0869978  76.1320014 121.8179992  21.8119978  75.9770014
 122.1709992  20.7709978  76.1320014 120.8059992  21.8309978  76.4350014
 121.8309992  22.1619978  74.4580014 122.7619992  22.7269978  74.2410014
 121.9939992  21.2559978  73.8350014 120.5759992  22.9089978  73.9850014
 119.8469992  22.1259978  73.6830014 120.2989992  23.3869978  74.9490014
 120.7959992  24.0229978  72.9600014 121.4949992  24.7889978  73.3570014
 121.1609992  23.6399978  71.9830014 119.4939992  24.8549978  72.7940014
 119.0159992  24.9699978  73.7900014 119.7069992  25.9009978  72.4870014
 118.4919992  24.2589978  71.7950014 119.1699992  23.7859978  71.0530014
 117.9129992  23.4169978  72.2310014 117.6169992  25.3189978  71.1490014
 116.9269992  25.7329978  71.9160014 118.2729992  26.0939978  70.6980014
 116.6109992  24.7959978  70.0520014 116.1009992  23.9049978  70.4770014
 115.8429992  25.5939978  69.9530014 117.1179992  24.5339978  68.7170014
 116.4819992  23.9549978  67.8770014 118.3419992  25.0169978  68.6240014
 119.1039992  24.8529978  67.4340014 118.6529992  24.2609978  66.6090014
 119.3539992  25.8639978  67.0480014 120.4629992  24.2009978  67.7380014
 120.7509992  24.8509978  68.5920014 121.5549992  24.3419978  66.6320014
 121.5269992  25.3949978  66.2780014 122.5629992  24.1929978  67.0760014
 121.5429992  23.3669978  65.5950014 121.8679992  23.6289978  64.1370014
 120.7029992  23.0839978  63.3240014 119.3869992  23.6279978  63.6880014
 119.3359992  24.6069978  64.2100014 118.9149992  23.8469978  62.7060014
 118.4839992  22.6059978  64.5160014 118.8899992  22.6609978  65.5160014
 117.4909992  23.0239978  64.5930014 118.2489992  21.2289978  63.9990014
 119.5559992  20.4969978  63.9610014 119.3469992  19.4769978  63.6750014
 120.2439992  20.8999978  63.2320014 119.9879992  20.4529978  64.9490014
 117.2859992  20.6499978  65.0660014 117.8229992  20.6949978  66.0010014
 116.4159992  21.2899978  65.0920014 117.0509992  19.6009978  64.9530014
 117.6099992  21.2239978  62.6710014 118.2839992  21.5069978  61.8760014
 116.7299992  21.8469978  62.7280014 117.3369992  20.2029978  62.4470014
 121.8979992  25.0929978  63.7910014 123.0769992  22.8439978  63.7600014
 120.2179992  22.8519978  68.0830014 121.1469992  22.2939978  68.8380014
 122.1859992  22.7979978  69.1610014 120.7199992  20.8159978  69.2440014
 121.2749992  20.5699978  70.1740014 120.9289992  20.0579978  68.4590014
 119.2329992  20.7899978  69.6070014 118.5989992  20.9999978  68.7190014
 119.0779992  21.4719978  70.4700014 118.7289992  19.4579978  70.2160014
 119.3829992  19.0949978  71.0370014 118.7289992  18.8499978  69.2870014
 117.2799992  19.4449978  70.5570014 117.0409992  18.3929978  70.8200014
 116.6449992  19.7459978  69.6960014 116.6699992  20.2659978  71.7670014
 115.6339992  19.9059978  71.9430014 116.6149992  21.3289978  71.4500014
 117.4569992  20.1939978  73.0370014 116.8619992  20.6119978  73.8770014
 118.3759992  20.8049978  72.9140014 117.7229992  18.7629978  73.4780014
 117.7999992  17.9979978  72.6760014 116.8259992  18.4729978  74.0660014
 118.9709992  18.7439978  74.3140014 119.9009992  19.0959978  73.8420014
 119.1829992  18.3349978  75.6030014 120.1619992  18.5009978  76.0760014
 118.1539992  17.7769978  76.5460014 118.7269992  16.9909978  77.0830014
 117.3059992  17.2999978  76.0110014 117.5179992  18.8059978  77.5310014
 116.9309992  18.2749978  78.3110014 116.7739992  19.4279978  76.9890014
 118.4959992  19.8009978  78.2220014 118.9889992  20.4409978  77.4600014
 119.2969992  19.1759978  78.6730014 117.7729992  20.7939978  79.1560014
 118.6139992  21.2219978  79.7420014 117.0959992  20.1069978  79.7070014
 116.9219992  21.7999978  78.3300014 116.2449992  21.1159978  77.7750014
 117.4669992  22.4289978  77.5950014 116.0809992  22.7439978  79.2330014
 115.5419992  22.1179978  79.9770014 115.1969992  23.0969978  78.6610014
 116.8389992  23.9109978  79.9400014 116.8949992  24.7279978  79.1890014
 117.8529992  23.5329978  80.1880014 116.0879992  24.5779978  81.1100014
 115.8119992  23.9139978  81.9570014 115.1549992  25.0419978  80.7260014
 116.5539992  25.5059978  81.5050014  87.4479992  -1.8680022  81.2870014
  86.3529992  -1.7080022  81.1880014  87.7399992  -2.6850022  81.9810014
  87.8839992  -2.0820022  80.2880014  88.1559992  -0.5390022  81.7040014
  87.6659992   0.3329978  81.2210014  87.8999992  -0.4320022  82.7800014
  89.6509992  -0.4380022  81.5540014  90.1089992   0.5539978  81.7580014
  90.0449992  -1.1810022  82.2790014  90.2069992  -0.9480022  80.2120014
  91.2469992  -1.2470022  80.4660014  89.7489992  -1.9060022  79.8850014
  90.1969992   0.0879978  79.0800014  89.1059992   0.2519978  78.9500014
  90.6319992   0.9589978  79.6150014  90.8579992  -0.4220022  77.7270014
  91.8709992  -0.8180022  77.9510014  90.3219992  -1.3380022  77.3960014
  91.1459992   0.6269978  76.6020014  91.7889992   1.3819978  77.1030014
  91.6999992   0.0969978  75.7970014  89.8489992   1.3159978  76.0710014
  89.2639992   0.5439978  75.5280014  89.2369992   1.6749978  76.9260014
  90.0009992   2.5359978  75.1280014  90.3479992   3.3629978  75.7830014
  90.7819992   2.3409978  74.3630014  88.6029992   2.8039978  74.4810014
  87.9049992   2.5809978  75.3150014  88.5779992   3.8959978  74.2750014
  88.2029992   2.0569978  73.2470014  88.3689992   0.9649978  73.3670014
  87.0939992   2.1059978  73.1970014  88.9129992   2.6379978  71.9900014
  88.5179992   3.6669978  71.8570014  89.9949992   2.6529978  72.2410014
  88.7309992   1.7229978  70.7510014  89.4199992   2.2279978  70.0400014
  89.0659992   0.6759978  70.9130014  87.2659992   1.5519978  70.2460014
  86.9459992   1.1029978  69.2820014  86.8109992   0.8559978  70.9840014
  86.3249992   2.7889978  70.2880014  85.2789992   2.4309978  70.3910014
  86.4769992   3.5589978  71.0750014  86.2889992   3.5409978  68.9550014
  85.4309992   3.3999978  68.1170014  87.4529992   4.1479978  68.7990014
  87.9049992   4.7349978  67.5840014  87.0999992   4.9479978  66.8480014
  88.2939992   5.6699978  68.0410014  89.1039992   3.9499978  66.9090014
  89.4479992   4.4579978  65.9840014  88.6119992   2.5519978  66.3580014
  87.7889992   2.1779978  67.0050014  88.2189992   2.7189978  65.3320014
  89.7719992   1.7409978  66.4540014  89.6539992   0.2629978  65.6920014
  90.4399992   0.3139978  64.2840014  91.7389992   0.7469978  64.2190014
  92.0309992   1.5329978  64.9480014  92.3689992  -0.1400022  64.4420014
  92.1329992   1.2919978  62.8240014  93.2069992   1.2639978  62.7140014
  91.7929992   0.5389978  62.1280014  91.6569992   2.6439978  62.4320014
  92.1409992   3.6649978  63.3720014  91.4129992   3.7559978  64.1650014
  93.0379992   3.3269978  63.8690014  92.3809992   4.5899978  62.8680014
  92.1689992   2.9289978  61.0210014  93.2449992   3.0169978  61.0490014
  91.7989992   2.0959978  60.4410014  91.7679992   3.8639978  60.6580014
  90.1189992   2.5179978  62.3520014  89.6519992   3.4709978  62.1520014
  89.9769992   1.9989978  63.2890014  89.8639992   1.8609978  61.5340014
  90.4359992  -0.7840022  66.3800014  88.1809992  -0.0430022  65.4750014
  90.1109992   3.7569978  67.8910014  90.7429992   4.7689978  68.3810014
  90.7679992   5.8899978  67.9410014  91.5199992   4.2409978  69.6250014
  92.5769992   4.2069978  69.2860014  91.1999992   3.2249978  69.9400014
  91.3019992   5.3619978  70.6880014  90.2469992   5.1589978  70.9730014
  91.3759992   6.4089978  70.3240014  92.2979992   5.2099978  71.8370014
  93.3349992   5.4359978  71.5090014  92.1559992   4.1219978  72.0150014
  91.9899992   6.0559978  73.0770014  90.9529992   5.8449978  73.4170014
  92.1809992   7.1409978  72.9360014  92.9619992   5.6299978  74.2370014
  93.9609992   5.7819978  73.7750014  92.8279992   4.5679978  74.5370014
  92.9519992   6.3159978  75.6070014  93.4779992   7.2819978  75.4470014
  93.5099992   5.7139978  76.3560014  91.5189992   6.6449978  76.0940014
  90.8659992   5.7489978  76.0210014  90.9369992   7.3279978  75.4400014
  91.5599992   7.1839978  77.5290014  92.4929992   7.7479978  77.6750014
  90.7099992   6.8999978  78.5490014  90.9839992   7.4039978  79.4880014
  89.4539992   5.9819978  78.6430014  89.0029992   5.9119978  77.6300014
  88.7059992   6.4419978  79.3220014  89.6829992   4.5139978  79.0560014
  90.4689992   4.0849978  78.3990014  88.7819992   3.8709978  78.9580014
  90.1639992   4.4269978  80.5350014  91.0279992   5.1219978  80.6070014
  90.4969992   3.3939978  80.7730014  89.1959992   4.9339978  81.6370014
  88.4559992   5.6489978  81.2190014  89.8209992   5.4909978  82.3660014
  88.3599992   3.7239978  82.2180014  88.9489992   3.0709978  82.8970014
  87.9279992   3.2189978  81.3270014  87.1229992   4.0379978  83.1660014
  86.4819992   4.7279978  82.5760014  87.4899992   4.5209978  84.0960014
  86.2369992   2.7829978  83.4260014  86.7869992   2.0419978  84.0450014
  86.1949992   2.3829978  82.3910014  84.7989992   2.9479978  83.7130014
  84.2959992   1.9589978  83.7470014  84.4129992   3.6029978  82.9020014
  84.5169992   3.4079978  84.6840014  73.1359992   1.6899978  81.0530014
  72.2469992   1.0529978  80.8550014  73.0199992   2.2429978  82.0090014
  73.9919992   1.0069978  81.2390014  73.2939992   2.6249978  79.8740014
  74.2439992   3.1939978  79.7870014  73.2919992   2.0219978  78.9400014
  72.2699992   3.6779978  79.9340014  71.2999992   3.1519978  79.8030014
  72.2119992   4.1699978  80.9290014  72.3599992   4.7299978  78.7220014
  71.5009992   5.4139978  78.8840014  73.3329992   5.2659978  78.7020014
  72.0939992   4.1279978  77.3200014  73.0769992   3.9419978  76.8370014
  71.5129992   3.1909978  77.4560014  71.3409992   5.0749978  76.3110014
  72.0829992   5.8819978  76.1260014  71.3269992   4.4789978  75.3740014
  69.9269992   5.5769978  76.5380014  69.2379992   4.7559978  76.8280014
  70.0059992   6.3799978  77.3020014  69.3139992   6.1359978  75.2580014
  69.8089992   7.1029978  75.0240014  69.6079992   5.4469978  74.4380014
  67.7569992   6.2699978  75.2620014  67.3889992   5.3489978  75.7630014
  67.5769992   7.1449978  75.9230014  67.0349992   6.3989978  73.9070014
  65.9769992   6.6999978  74.0580014  67.4569992   7.2169978  73.2840014
  67.0159992   5.1089978  73.1270014  68.0329992   4.7029978  72.9370014
  66.4089992   4.3729978  73.6950014  66.2409992   5.2479978  71.7560014
  65.1439992   5.3349978  71.9090014  66.6669992   6.1459978  71.2610014
  66.4689992   4.1679978  70.6790014  67.5509992   4.1039978  70.4360014
  66.1149992   3.2209978  71.1390014  65.7869992   4.3089978  69.2840014
  65.0399992   3.4979978  69.1430014  65.1999992   5.2499978  69.2220014
  66.6839992   4.2199978  68.0880014  67.0379992   3.1799978  67.9250014
  66.0989992   4.5189978  67.1920014  67.8139992   5.2289978  68.2890014
  67.8169992   6.0619978  69.1410014  68.8369992   4.9479978  67.4800014
  70.1129992   5.6239978  67.9260014  69.8529992   6.7039978  67.9090014
  70.4129992   5.2189978  68.9160014  71.3129992   5.3539978  66.8730014
  72.2169992   5.9059978  67.2050014  71.0479992   6.0749978  65.5400014
  71.0449992   7.1829978  65.6170014  71.9089992   5.6739978  64.9620014
  69.8459992   5.5279978  65.0070014  69.0579992   6.0789978  63.7820014
  68.9499992   4.8719978  62.8260014  69.7399992   3.7439978  62.8880014
  69.3759992   3.0959978  62.0620014  70.8009992   3.9969978  62.6770014
  69.5119992   2.8339978  64.1620014  70.1239992   1.9609978  63.9870014
  69.9409992   3.4189978  64.9620014  68.1129992   2.3289978  64.5260014
  68.2719992   1.2869978  65.6670014  68.6989992   1.9319978  66.4200014
  67.3309992   0.8949978  66.0220014  68.9619992   0.5059978  65.3850014
  67.2259992   3.4539978  64.9230014  66.3729992   3.1949978  65.5330014
  67.7519992   4.1189978  65.5920014  66.9319992   4.0979978  64.1080014
  67.5989992   1.6349978  63.3600014  68.0829992   0.6919978  63.1530014
  67.4419992   2.2869978  62.5130014  66.5919992   1.3039978  63.5640014
  67.7409992   6.6079978  64.2450014  70.0299992   6.9879978  63.1200014
  71.4579992   3.9929978  66.7780014  72.1779992   3.4669978  67.7810014
  72.6799992   4.0759978  68.6740014  72.2389992   2.0139978  67.5830014
  73.2359992   1.8239978  67.1320014  71.5009992   1.6429978  66.8390014
  72.1639992   1.2659978  68.8510014  72.9369992   1.5299978  69.6040014
  72.3389992   0.2199978  68.5200014  70.6599992   1.0919978  69.4420014
  70.7029992   0.0039978  69.6610014  69.9349992   1.3499978  68.6410014
  70.4689992   1.8209978  70.7310014  70.5019992   2.9019978  70.4770014
  71.3089992   1.5759978  71.4150014  69.1849992   1.5649978  71.4750014
  68.4119992   1.8629978  70.7340014  69.2279992   2.2449978  72.3530014
  68.9639992   0.1419978  71.9930014  69.8579992  -0.3460022  72.4370014
  68.7819992  -0.4670022  71.0820014  67.8909992  -0.0590022  73.0840014
  68.1919992   0.4179978  74.0410014  67.4679992  -1.0650022  73.2930014
  66.6289992   0.5819978  72.4960014  66.5159992   0.6149978  71.4020014
  65.5869992   1.0429978  73.3140014  64.6619992   1.3409978  72.7990014
  65.6699992   0.9959978  74.8420014  66.5889992   0.4719978  75.1800014
  64.7719992   0.4569978  75.2110014  65.6589992   2.3759978  75.4900014
  64.6809992   2.8679978  75.3000014  66.4289992   3.0119978  75.0030014
  65.8369992   2.2849978  76.9170014  66.8819992   1.9399978  77.0660014
  65.1009992   1.5379978  77.2820014  65.6159992   3.6069978  77.6490014
  64.6159992   4.0329978  77.4150014  66.4249992   4.2799978  77.2930014
  65.5849992   3.5459978  79.2370014  64.8369992   2.8549978  79.6810014
  65.3199992   4.5879978  79.5150014  66.9489992   3.3239978  79.9090014
  67.7559992   3.7809978  79.2980014  67.1799992   2.2459978  79.7750014
  66.9319992   3.7639978  81.3480014  66.0969992   3.2459978  81.8660014
  66.5829992   4.8179978  81.3080014  68.2109992   3.5859978  82.0530014
  68.2899992   4.2019978  82.9740014  69.0089992   3.9219978  81.3570014
  68.4259992   2.5389978  82.3540014   9.1179992  41.3119978  83.8850014
   9.2859992  41.5899978  82.8220014   9.3939992  42.1499978  84.5600014
   8.0769992  40.9619978  84.0510014  10.0459992  40.1789978  84.2470014
  11.0709992  40.3999978  83.8790014  10.0479992  39.8449978  85.3060014
   9.6179992  38.8319978  83.6450014  10.1139992  37.9369978  84.0770014
   8.5799992  38.6629978  84.0030014   9.6849992  38.7329978  82.1300014
   9.7299992  39.7509978  81.6870014  10.6679992  38.2839978  81.8690014
   8.4949992  37.9819978  81.6750014   8.4239992  37.0359978  82.2550014
   7.5369992  38.4979978  81.8990014   8.4959992  37.5599978  80.1940014
   8.3079992  38.4359978  79.5390014   9.4489992  37.0699978  79.9010014
   7.5899992  36.3349978  79.9330014   7.7609992  35.4229978  80.5430014
   6.5119992  36.5979978  79.9800014   7.7189992  35.9789978  78.3850014
   6.7629992  35.5289978  78.0420014   7.8569992  36.9029978  77.7840014
   8.7419992  34.9359978  78.0050014   9.6689992  35.2109978  78.5510014
   8.2189992  34.0299978  78.3800014   9.0749992  34.8989978  76.5310014
   9.2629992  33.8729978  76.1500014   8.2249992  35.3119978  75.9470014
  10.4019992  35.6199978  76.2220014  10.3789992  36.6969978  76.4910014
  11.2339992  35.1779978  76.8110014  10.8609992  35.4009978  74.8230014
  11.0019992  34.3089978  74.6750014  10.0649992  35.5359978  74.0590014
  12.1909992  36.0989978  74.4760014  12.1779992  37.2069978  74.5680014
  12.9309992  35.6889978  75.1960014  12.8619992  35.7659978  73.0490014
  13.7809992  36.3769978  73.1770014  13.2009992  34.7099978  73.1170014
  12.0439992  36.0809978  71.9270014  11.4499992  35.2019978  71.5980014
  11.4169992  36.9679978  72.1610014  13.0519992  36.3779978  70.6840014
  14.2349992  36.6739978  70.8430014  12.3209992  36.4099978  69.6020014
  12.8329992  37.0699978  68.5170014  12.9799992  38.1139978  68.8690014
  13.8779992  36.7919978  68.2600014  11.8709992  37.0359978  67.3550014
  11.8069992  35.9639978  67.0690014  12.3799992  37.8619978  66.2030014
  13.4279992  37.5529978  65.9980014  11.8279992  37.5289978  65.2980014
  11.9769992  39.2789978  66.2490014  12.1669992  40.1989978  64.9960014
  10.8459992  39.8709978  64.1580014   9.5529992  39.8529978  64.6360014
   9.6009992  40.0549978  65.7270014   8.9739992  40.6569978  64.1330014
   8.7939992  38.4989978  64.4160014   9.2699992  37.7069978  64.9750014
   7.7499992  38.5779978  64.6830014   8.6309992  38.0419978  62.9880014
   9.9189992  37.5099978  62.4790014  10.7239992  38.1989978  62.6880014
  10.2109992  36.5889978  62.9610014   9.9299992  37.1169978  61.4730014
   7.6449992  36.8469978  62.8720014   7.7329992  36.4459978  61.8730014
   7.9599992  36.1169978  63.6030014   6.6309992  37.1919978  63.0160014
   8.2199992  39.1759978  62.0730014   7.2899992  39.4709978  62.5360014
   8.2039992  38.8109978  61.0560014   8.9719992  39.9479978  62.1400014
  12.2349992  41.6359978  65.3890014  13.3079992  39.6319978  64.2510014
  10.5909992  37.5079978  67.9090014   9.4539992  36.9869978  67.5630014
   9.1779992  36.0189978  66.8580014   8.3769992  37.8659978  68.1460014
   7.4359992  37.6109978  67.6130014   8.6779992  38.9349978  68.1120014
   8.1979992  37.5779978  69.6790014   9.1129992  37.9539978  70.1840014
   8.0059992  36.4999978  69.8690014   6.9579992  38.3399978  70.1960014
   6.1439992  38.1749978  69.4590014   7.1739992  39.4229978  70.3190014
   6.5419992  37.6939978  71.5990014   6.2729992  36.6289978  71.4350014
   5.6899992  38.2619978  72.0310014   7.6399992  37.7129978  72.7030014
   8.6059992  37.4329978  72.2320014   7.2669992  36.9699978  73.4400014
   7.6089992  39.0499978  73.4150014   6.5719992  39.1719978  73.7930014
   7.7259992  39.8989978  72.7080014   8.5809992  39.0669978  74.5890014
   9.5669992  38.9169978  74.0990014   8.4279992  38.2279978  75.3010014
   8.4539992  40.3959978  75.3160014   7.7949992  41.0919978  74.7770014
   9.0279992  40.8089978  76.5070014   8.6579992  41.7699978  76.8930014
   9.9599992  40.0799978  77.4160014  10.2099992  39.0349978  77.1350014
   9.5629992  39.8899978  78.4360014  11.2129992  40.9619978  77.7210014
  11.0699992  41.9159978  78.2710014  11.7299992  41.2269978  76.7740014
  12.2349992  40.2649978  78.6480014  11.7079992  40.0109978  79.5930014
  12.9239992  41.0679978  78.9860014  13.0079992  39.0259978  78.0620014
  13.8549992  39.3399978  77.4160014  12.3249992  38.4789978  77.3780014
  13.3269992  37.9899978  79.1910014  13.6809992  37.0529978  78.7100014
  12.3949992  37.8099978  79.7680014  14.3729992  38.5659978  80.2090014
  14.1299992  39.6499978  80.2220014  15.3569992  38.5359978  79.6960014
  14.6539992  37.9379978  81.4950014  15.6779992  38.1709978  81.8590014
  14.5349992  36.8389978  81.3820014  13.7259992  38.3619978  82.6450014
  13.6599992  39.4539978  82.8390014  14.0059992  37.8209978  83.5750014
  12.7069992  37.9479978  82.4890014   4.1749992 105.2239978  83.2190014
   3.1009992 105.4899978  83.3160014   4.6219992 105.9629978  82.5210014
   4.6879992 105.2709978  84.2030014   4.3269992 103.8499978  82.5000014
   4.0009992 103.0239978  83.1670014   3.7659992 103.9229978  81.5440014
   5.6839992 103.5519978  82.0300014   5.9599992 104.3419978  81.2990014
   6.2729992 103.5699978  82.9720014   5.8569992 102.1439978  81.4260014
   5.9019992 101.3779978  82.2290014   5.0529992 101.8169978  80.7320014
   7.1309992 101.8109978  80.6860014   7.9429992 101.9349978  81.4340014
   7.1199992 100.7359978  80.4060014   7.5099992 102.5889978  79.4330014
   7.9859992 103.5589978  79.6900014   8.2509992 101.9299978  78.9320014
   6.3709992 102.9459978  78.5220014   5.8099992 102.0229978  78.2620014
   5.6919992 103.5969978  79.1130014   6.7529992 103.7259978  77.2810014
   7.4669992 104.5509978  77.4900014   7.2259992 102.9569978  76.6340014
   5.5229992 104.3849978  76.6330014   4.9599992 103.6529978  76.0150014
   4.7549992 104.5039978  77.4280014   5.8479992 105.7099978  75.8740014
   6.0639992 106.5369978  76.5830014   6.7669992 105.6529978  75.2520014
   4.6779992 106.1109978  74.9740014   3.7029992 105.8929978  75.4610014
   4.7329992 107.2189978  74.9170014   4.8459992 105.6799978  73.4840014
   5.7419992 106.0559978  72.9460014   5.1399992 104.6129978  73.5850014
   3.5639992 105.8179978  72.5730014   2.7499992 105.1189978  72.8600014
   3.2619992 106.8719978  72.7560014   3.8839992 105.3599978  71.0790014
   4.8179992 105.7979978  70.6660014   3.9929992 104.2549978  71.0560014
   2.6819992 105.7279978  70.1110014   1.7309992 105.5589978  70.6600014
   2.6689992 106.7959978  69.8030014   2.8299992 104.8829978  68.8690014
   2.7339992 103.6489978  68.7930014   3.0389992 105.7449978  67.8230014
   3.1499992 105.2069978  66.4750014   2.5799992 104.2879978  66.2230014
   2.7219992 105.9709978  65.7910014   4.6939992 105.0959978  66.1650014
   5.1049992 106.0439978  66.5720014   4.9169992 104.9809978  64.6540014
   4.6239992 105.9789978  64.2650014   5.9719992 104.7559978  64.3890014
   3.9649992 104.0409978  64.1540014   4.0349992 103.3609978  62.7320014
   3.4039992 101.9809978  62.9870014   3.8669992 101.0659978  64.0490014
   3.9599992 100.1049978  63.5000014   4.9309992 101.2349978  64.3210014
   3.1069992 101.0129978  65.3700014   3.6979992 100.3449978  65.9790014
   3.1499992 101.9119978  65.9670014   1.6479992 100.5109978  65.3020014
   0.6809992 101.6229978  64.7860014   0.8219992 102.5249978  65.3630014
   0.7779992 101.7719978  63.7200014  -0.3200008 101.2269978  64.8700014
   1.6009992  99.3699978  64.4160014   0.7499992  98.7269978  64.5860014
   1.5949992  99.6389978  63.3700014   2.4969992  98.8339978  64.6930014
   1.1049992 100.1009978  66.6240014   1.3759992 100.8209978  67.3820014
   1.5099992  99.1519978  66.9420014   0.0319992 100.1359978  66.5000014
   3.0449992 103.9669978  61.7810014   5.4209992 103.1919978  62.3050014
   5.1829992 103.9309978  66.9080014   6.5419992 103.9129978  66.9850014
   7.2519992 104.8229978  66.6300014   7.0349992 102.6489978  67.7910014
   7.6839992 102.0229978  67.1430014   6.1559992 102.0219978  68.0530014
   7.9779992 103.0569978  68.9730014   8.6869992 103.7779978  68.5120014
   8.4749992 102.1719978  69.4270014   7.3569992 103.5829978  70.2500014
   6.6419992 104.3929978  69.9920014   8.1239992 104.1239978  70.8440014
   6.8599992 102.4809978  71.2720014   6.6719992 103.0479978  72.2090014
   7.6309992 101.7009978  71.4470014   5.5969992 101.7319978  70.8750014
   5.8609992 101.0689978  70.0240014   4.9039992 102.5699978  70.6480014
   5.1539992 100.8119978  71.9640014   4.8999992 101.5089978  72.7910014
   6.1199992 100.2889978  72.1350014   3.9489992  99.8939978  71.6600014
   3.7479992  99.2109978  72.5130014   4.1669992  99.3329978  70.7270014
   2.8319992 100.8319978  71.3050014   2.7739992 101.1519978  70.2540014
   1.9929992 101.3979978  72.1870014   1.2549992 102.1309978  71.8290014
   1.9799992 101.2459978  73.6950014   2.7579992 100.5529978  74.0820014
   1.0319992 100.9109978  74.1670014   2.1249992 102.6519978  74.2790014
   1.2899992 103.2249978  73.8220014   3.1349992 103.1059978  74.1890014
   1.8129992 102.7249978  75.7820014   0.8139992 102.3089978  76.0360014
   1.9219992 103.7859978  76.0940014   2.8189992 101.9219978  76.6460014
   3.0459992 102.6969978  77.4100014   3.7279992 101.8199978  76.0150014
   2.5099992 100.5849978  77.3000014   3.4689992 100.2329978  77.7380014
   2.0659992  99.9059978  76.5410014   1.5849992 100.8759978  78.4630014
   0.5589992 101.1129978  78.1080014   2.1309992 101.7229978  78.9330014
   1.5909992  99.8039978  79.5560014   2.5989992  99.3509978  79.6630014
   0.8869992  99.0039978  79.2410014   1.0599992 100.3409978  80.8670014
   0.2889992 101.0929978  80.5920014   1.8879992 100.7469978  81.4860014
   0.5489992  99.6329978  81.5550014  61.0349992   8.6649978  80.7890014
  59.9329992   8.7989978  80.7470014  61.4789992   9.1199978  81.7010014
  61.3769992   7.6109978  80.8640014  61.7369992   9.3159978  79.5820014
  61.6589992  10.4199978  79.6730014  62.8379992   9.2139978  79.6910014
  61.3729992   8.7509978  78.2070014  60.3549992   8.9499978  77.8090014
  62.0099992   9.2819978  77.4670014  61.5089992   7.1849978  78.0500014
  62.4139992   6.8029978  78.5690014  60.6449992   6.6749978  78.5270014
  61.4159992   6.5769978  76.6060014  61.2169992   5.4889978  76.7140014
  60.5209992   6.9989978  76.1000014  62.7369992   6.7799978  75.8660014
  63.0229992   7.8349978  75.6650014  63.4889992   6.2669978  76.5030014
  62.7579992   6.1939978  74.4440014  63.8279992   6.3629978  74.1970014
  62.6039992   5.1009978  74.3190014  61.9669992   6.9699978  73.3540014
  60.8669992   6.9529978  73.5070014  62.2319992   8.0469978  73.4280014
  62.3289992   6.5289978  71.8880014  63.4019992   6.2449978  71.9470014
  61.8409992   5.5879978  71.5560014  62.1719992   7.7239978  70.8930014
  62.2919992   8.6679978  71.4650014  62.9299992   7.7089978  70.0810014
  60.8779992   7.8269978  70.0780014  60.9559992   8.5709978  69.2560014
  60.6999992   6.8479978  69.5850014  59.7159992   8.5579978  70.7810014
  59.2539992   7.9819978  71.6110014  60.1799992   9.4479978  71.2570014
  58.5619992   9.0079978  69.8800014  58.2069992   8.1199978  69.3150014
  57.6469992   9.2349978  70.4690014  58.7619992  10.1719978  68.9020014
  59.6169992   9.8849978  68.2540014  57.9149992  10.2579978  68.1880014
  59.0849992  11.5199978  69.7160014  58.1879992  11.8639978  70.2750014
  59.9679992  11.4399978  70.3850014  59.4569992  12.7589978  68.8050014
  59.5529992  13.9209978  69.1660014  59.7559992  12.3369978  67.4900014
  60.5929992  13.1649978  66.7280014  60.0039992  13.7399978  65.9810014
  61.0079992  13.9259978  67.4220014  61.7559992  12.2449978  66.2820014
  62.4759992  12.8739978  65.7160014  61.2529992  11.2179978  65.2430014
  60.4189992  10.7889978  65.8380014  60.8009992  11.8169978  64.4240014
  62.2569992  10.3069978  64.8600014  61.9879992   9.4409978  63.6170014
  60.5799992   8.7729978  63.7320014  60.2709992   7.9309978  64.9080014
  61.0559992   7.9249978  65.6950014  59.3799992   8.3969978  65.3800014
  60.0299992   6.4519978  64.5510014  60.7089992   6.1659978  63.7610014
  60.3959992   5.9799978  65.4500014  58.6169992   5.9529978  64.3060014
  58.6139992   4.4099978  64.0080014  58.9779992   3.8899978  64.8820014
  57.6129992   4.0699978  63.7900014  59.2469992   4.2119978  63.1560014
  57.7799992   6.2209978  65.5390014  57.4179992   7.2379978  65.5560014
  56.8629992   5.6649978  65.4060014  58.3919992   6.0849978  66.4180014
  58.1119992   6.5289978  63.0070014  58.7269992   6.1569978  62.2010014
  58.3219992   7.5879978  63.0430014  57.0499992   6.3389978  62.9550014
  61.9439992  10.3179978  62.4050014  63.0059992   8.4219978  63.5730014
  62.2809992  11.4779978  67.4220014  63.1789992  12.0919978  68.2610014
  63.3339992  13.3169978  68.3160014  63.7759992  11.1869978  69.2830014
  64.8519992  11.0589978  69.0360014  63.3129992  10.1789978  69.3310014
  63.5569992  11.8299978  70.6630014  62.4839992  11.9519978  70.9250014
  64.0579992  12.8219978  70.6770014  64.2129992  11.0849978  71.8330014
  65.2589992  10.8379978  71.5530014  63.7739992  10.0649978  71.8690014
  64.1159992  11.7439978  73.1920014  64.3709992  12.8179978  73.0620014
  64.8739992  11.2609978  73.8450014  62.7619992  11.5949978  73.8350014
  62.6149992  10.5259978  74.1010014  62.0399992  11.9389978  73.0640014
  62.4719992  12.2969978  75.1490014  62.5329992  13.3959978  74.9980014
  63.1579992  11.9169978  75.9360014  61.0669992  11.8849978  75.6770014
  60.9459992  12.2449978  76.7210014  60.9729992  10.7779978  75.6620014
  59.8989992  12.3889978  74.8220014  59.7319992  13.4759978  74.8250014
  59.0119992  11.6669978  74.1080014  58.3399992  12.1879978  73.4110014
  58.9549992  10.1989978  74.1050014  59.9539992   9.7219978  74.1960014
  58.5089992   9.8239978  73.1590014  58.3259992   9.5779978  75.4010014
  57.4709992  10.1449978  75.8260014  59.1649992   9.4659978  76.1210014
  57.7689992   8.1529978  75.1740014  58.5159992   7.6639978  74.5120014
  56.9419992   8.2069978  74.4340014  57.3449992   7.4259978  76.4550014
  58.3239992   7.1689978  76.9150014  56.9139992   6.4439978  76.1630014
  56.4289992   8.2129978  77.3390014  55.6319992   7.6779978  77.8980014
  55.8369992   8.8969978  76.6940014  57.0489992   8.8969978  78.4880014
  57.9809992   9.3689978  78.1110014  57.4659992   8.1209978  79.1650014
  56.1179992   9.6619978  79.3960014  55.5489992   9.0089978  80.0910014
  55.4249992  10.2489978  78.7570014  56.7569992  10.7579978  80.2370014
  56.0559992  11.4499978  80.7500014  57.5539992  11.2049978  79.6040014
  57.2429992  10.1979978  81.0640014 140.4169992  81.8199978  82.6970014
 139.8629992  81.4059978  83.5660014 140.3239992  82.8999978  82.4520014
 141.4859992  81.7089978  82.9770014 140.1169992  81.0469978  81.4170014
 140.5679992  80.0379978  81.5270014 139.0179992  80.9369978  81.2980014
 140.5969992  81.6399978  80.0270014 140.1279992  82.6469978  80.0350014
 141.6959992  81.7709978  79.9220014 140.2029992  80.8879978  78.7870014
 140.4449992  79.8129978  78.9260014 139.0959992  80.8949978  78.8740014
 140.7329992  81.5239978  77.4890014 140.3779992  82.5749978  77.4300014
 141.8379992  81.6069978  77.5640014 140.3799992  80.7809978  76.1940014
 139.2799992  80.8579978  76.0640014 141.0039992  81.1969978  75.3740014
 140.7179992  79.3179978  76.3030014 141.7039992  79.1669978  76.7930014
 140.0059992  78.7479978  76.9380014 140.8909992  78.5419978  74.9560014
 141.6389992  79.0339978  74.2980014 141.2459992  77.5069978  75.1490014
 139.5999992  78.2779978  74.1130014 138.7729992  77.9789978  74.7930014
 139.3099992  79.2179978  73.5970014 139.7679992  77.2869978  72.9940014
 140.6999992  77.5369978  72.4430014 139.9289992  76.2479978  73.3520014
 138.5829992  77.2639978  72.0100014 137.8169992  76.8099978  72.6740014
 138.1539992  78.2679978  71.8050014 138.7129992  76.3699978  70.7730014
 138.9509992  75.3239978  71.0630014 137.7499992  76.0729978  70.3060014
 139.6929992  76.8769978  69.7640014 140.6709992  76.9499978  70.2870014
 139.7849992  76.1399978  68.9380014 139.2939992  78.2269978  69.0280014
 139.0059992  79.0549978  69.7110014 140.1809992  78.5749978  68.4560014
 138.2029992  77.9029978  68.0200014 138.5169992  77.1369978  67.2790014
 137.3259992  77.4759978  68.5520014 137.7529992  79.1089978  67.1340014
 137.3209992  80.1409978  67.4910014 138.0609992  78.7849978  65.8560014
 138.1469992  79.8579978  64.8880014 137.6599992  79.4409978  63.9810014
 137.4849992  80.7219978  65.1070014 139.6199992  80.3289978  64.5670014
 139.5549992  81.3229978  64.0760014 140.2869992  79.4529978  63.4780014
 139.5669992  79.2789978  62.6490014 141.1679992  80.0789978  63.2200014
 140.7569992  78.2259978  64.0250014 141.9389992  77.4569978  63.3410014
 143.1929992  78.3709978  63.7350014 143.5279992  78.6119978  65.1250014
 142.7899992  78.1389978  65.8070014 144.4929992  78.1289978  65.3910014
 143.5349992  80.1149978  65.3570014 142.4969992  80.3849978  65.2360014
 143.7949992  80.3129978  66.3860014 144.3919992  81.0079978  64.4780014
 143.6369992  81.4119978  63.3110014 144.2039992  82.0969978  62.6980014
 143.3789992  80.5549978  62.7070014 142.7429992  81.9369978  63.6120014
 144.7919992  82.2529978  65.1720014 143.9329992  82.8159978  65.5050014
 145.4119992  81.9239978  65.9930014 145.4579992  82.9039978  64.6240014
 145.6299992  80.2679978  64.0840014 146.0389992  79.9949978  65.0460014
 146.3569992  80.8589978  63.5460014 145.3149992  79.3819978  63.5520014
 142.0899992  76.0859978  63.9770014 141.7809992  77.5519978  61.9010014
 140.3269992  80.3389978  65.7500014 140.2249992  81.4009978  66.5520014
 139.4729992  82.3839978  66.3410014 141.1979992  81.1259978  67.7500014
 141.5939992  80.0939978  67.6470014 140.6889992  81.1249978  68.7380014
 142.2859992  82.2269978  67.6140014 142.7149992  82.3699978  66.5990014
 143.1069992  81.8469978  68.2590014 142.0239992  83.6669978  68.0900014
 141.3479992  84.1429978  67.3490014 142.9389992  84.2819978  67.9530014
 141.3239992  83.7839978  69.4870014 140.3749992  83.2089978  69.4280014
 140.8819992  84.7999978  69.5560014 142.2009992  83.3719978  70.7020014
 142.2819992  82.2679978  70.6020014 141.7129992  83.6419978  71.6630014
 143.6439992  83.9679978  70.6730014 143.6339992  85.0769978  70.7430014
 144.1579992  83.7299978  69.7180014 144.6379992  83.5759978  71.8110014
 144.2629992  83.8439978  72.8210014 145.5259992  84.2409978  71.7590014
 145.0829992  82.0959978  71.7200014 145.3269992  81.8259978  70.6820014
 145.0909992  81.2899978  72.8040014 145.3519992  80.2449978  72.5810014
 144.6549992  81.6659978  74.2380014 143.6149992  82.0489978  74.3110014
 145.2059992  82.4779978  74.7580014 144.6809992  80.4879978  75.1070014
 144.1949992  79.6249978  74.6040014 144.0159992  80.7489978  75.9580014
 146.0789992  80.0649978  75.6230014 146.5209992  80.9199978  76.1780014
 146.6209992  80.0739978  74.6530014 146.2029992  78.6729978  76.2420014
 147.2179992  78.4409978  76.6280014 146.0829992  77.9089978  75.4450014
 145.2729992  78.2719978  77.3930014 145.5909992  77.2949978  77.8150014
 144.2119992  78.0679978  77.1330014 145.3509992  79.2649978  78.6170014
 145.0589992  80.2769978  78.2630014 146.4209992  79.4069978  78.8790014
 144.5229992  78.9299978  79.8640014 144.6839992  77.9239978  80.3080014
 143.4369992  78.9719978  79.6340014 144.8669992  79.8799978  81.0520014
 144.1319992  79.8469978  81.8840014 144.8969992  80.8749978  80.5600014
 145.8719992  79.7339978  81.5030014 138.3219992 101.3959978  80.5420014
 138.9649992 102.2929978  80.4140014 137.9909992 101.3809978  81.6020014
 137.4229992 101.6249978  79.9300014 138.9579992 100.1059978  80.1350014
 139.8269992  99.9519978  80.8090014 138.3269992  99.2459978  80.4480014
 139.3649992 100.0859978  78.6250014 139.5879992 101.1019978  78.2370014
 140.2859992  99.4679978  78.5520014 138.4189992  99.2999978  77.7080014
 138.3269992  98.2429978  78.0370014 137.3989992  99.7389978  77.7460014
 138.9899992  99.2519978  76.2630014 139.1609992 100.3009978  75.9380014
 140.0249992  98.8509978  76.3060014 138.0379992  98.6959978  75.2240014
 137.0409992  99.1749978  75.3240014 138.5169992  98.8299978  74.2310014
 137.7709992  97.1969978  75.1880014 137.0749992  97.0139978  76.0350014
 137.3099992  96.9089978  74.2190014 138.9819992  96.3229978  75.4670014
 139.2569992  96.5289978  76.5240014 138.6749992  95.2629978  75.3400014
 140.0369992  96.5969978  74.3510014 140.3149992  97.6569978  74.5330014
 140.9369992  95.9779978  74.5510014 139.5609992  96.4239978  72.9060014
 138.8129992  95.6419978  72.6530014 139.0329992  97.3569978  72.6110014
 140.8029992  96.2509978  71.9770014 141.6029992  96.9249978  72.3510014
 141.2059992  95.2179978  72.0450014 140.6119992  96.6659978  70.5260014
 141.5009992  96.1649978  70.0860014 139.6609992  96.2169978  70.1680014
 140.7999992  98.1989978  70.2350014 140.0529992  98.7349978  70.8590014
 141.8009992  98.4819978  70.6240014 140.5889992  98.4989978  68.7290014
 141.0809992  99.4929978  68.6660014 141.1959992  97.7699978  68.1500014
 139.1809992  98.4099978  68.2300014 138.9809992  97.4189978  67.7700014
 138.4049992  98.6269978  68.9950014 139.0709992  99.4869978  67.1080014
 138.0279992 100.0869978  66.8740014 140.2109992  99.6559978  66.5380014
 140.2899992 100.7549978  65.6150014 139.5069992 100.5839978  64.8450014
 140.0349992 101.6849978  66.1660014 141.7369992 100.7329978  65.1330014
 141.8689992 101.5559978  64.3970014 142.1559992  99.4009978  64.3970014
 141.3979992  99.1899978  63.6130014 143.1209992  99.6849978  63.9250014
 142.2759992  98.2759978  65.3100014 142.7379992  96.8679978  64.7810014
 141.3309992  96.1689978  64.4670014 140.1809992  96.4149978  65.1170014
 139.5569992  95.4959978  65.1440014 140.2069992  96.6219978  66.2080014
 139.3689992  97.5379978  64.4850014 138.5449992  97.8079978  65.1280014
 139.9699992  98.4339978  64.5280014 138.8529992  97.2289978  63.0720014
 137.8269992  98.3129978  62.6860014 137.4569992  98.1469978  61.6850014
 137.0269992  98.3329978  63.4110014 138.3939992  99.2319978  62.7230014
 139.9549992  97.1409978  62.0920014 140.5289992  98.0539978  62.0330014
 140.6049992  96.3129978  62.3330014 139.6359992  96.8669978  61.0970014
 138.1489992  95.9559978  63.1380014 138.9419992  95.2469978  63.3200014
 137.5489992  95.7229978  62.2700014 137.4279992  96.1179978  63.9260014
 143.4459992  97.0719978  63.4930014 143.5249992  96.2119978  65.8660014
 142.4509992 101.0409978  66.3550014 143.7509992 101.2109978  66.3200014
 144.4099992 101.2979978  65.2790014 144.3649992 101.3599978  67.6520014
 143.5669992 101.4979978  68.4130014 145.1019992 102.1899978  67.5960014
 145.1839992 100.1609978  67.9950014 145.9579992 100.4039978  68.7550014
 145.7549992  99.7399978  67.1400014 144.4039992  99.0369978  68.6770014
 143.7549992  98.5639978  67.9090014 143.7979992  99.4609978  69.5060014
 145.3179992  97.9919978  69.1510014 145.8949992  98.3909978  70.0120014
 146.1179992  97.8389978  68.3950014 144.6009992  96.6859978  69.4510014
 144.3059992  96.1399978  68.5290014 143.6009992  96.9289978  69.8690014
 145.2929992  95.7199978  70.3350014 146.3869992  95.6789978  70.1440014
 144.8539992  94.8119978  69.8710014 145.1269992  95.7659978  71.8320014
 145.3669992  94.8199978  72.3630014 144.0299992  95.8509978  71.9880014
 145.8459992  96.8619978  72.5060014 146.9289992  96.7339978  72.3660014
 145.4749992  97.9529978  73.1480014 146.2089992  98.7419978  73.3660014
 144.0359992  98.5099978  73.3530014 143.2149992  97.7769978  73.2020014
 143.9019992  99.3759978  72.6710014 143.7569992  98.8709978  74.8190014
 142.7079992  99.2379978  74.8090014 144.4149992  99.7209978  75.0990014
 143.9939992  97.7849978  75.8880014 145.0669992  97.5219978  75.7670014
 143.3399992  96.8909978  75.8130014 143.7889992  98.4659978  77.2660014
 142.7009992  98.2709978  77.3720014 143.8799992  99.5669978  77.1460014
 144.6019992  97.8109978  78.5030014 145.5519992  97.3739978  78.1290014
 144.0829992  96.8889978  78.8410014 144.8229992  98.7289978  79.6860014
 143.9699992  99.4399978  79.7090014 145.6739992  99.3799978  79.3900014
 145.2009992  97.9969978  80.9910014 144.2619992  97.7049978  81.5070014
 145.6949992  98.7859978  81.5970014 146.1349992  96.7449978  80.8100014
 147.1279992  97.0379978  80.4070014 145.8229992  95.9659978  80.0820014
 146.3129992  96.3549978  81.8350014  21.9319992  24.5389978  84.4390014
  21.9509992  25.4739978  83.8400014  22.5559992  23.7389978  83.9840014
  22.4899992  24.7039978  85.3860014  20.4219992  24.1389978  84.5050014
  20.3159992  23.1159978  84.9250014  19.9569992  24.8629978  85.2080014
  19.6279992  24.0959978  83.2260014  18.5319992  24.2189978  83.3610014
  19.8449992  25.0149978  82.6410014  19.7529992  22.7959978  82.4500014
  20.8019992  22.7019978  82.0970014  19.5319992  21.9949978  83.1880014
  18.9039992  22.7589978  81.2250014  18.9499992  21.7179978  80.8390014
  17.8559992  22.9309978  81.5490014  19.2869992  23.7329978  80.1220014
  19.1759992  24.7299978  80.6000014  20.3559992  23.7319978  79.8170014
  18.4589992  23.5469978  78.7580014  18.9649992  24.2549978  78.0670014
  18.5429992  22.5589978  78.2550014  16.9819992  23.9899978  78.7740014
  16.3499992  23.3109978  79.3860014  16.9059992  24.9759978  79.2810014
  16.3649992  23.9549978  77.4100014  15.3759992  24.4609978  77.3840014
  16.9649992  24.6239978  76.7570014  16.0159992  22.5949978  76.9230014
  16.9679992  22.0469978  76.7590014  15.5759992  22.0149978  77.7620014
  15.1919992  22.4679978  75.6320014  14.6089992  21.5249978  75.5600014
  14.4319992  23.2759978  75.7050014  15.9229992  22.6579978  74.3220014
  16.5179992  23.5719978  74.5360014  16.5769992  21.7969978  74.0660014
  14.9779992  23.0659978  73.1640014  14.0289992  22.5009978  73.2800014
  14.8029992  24.1369978  73.4010014  15.5529992  22.8729978  71.7810014
  16.6239992  23.1669978  71.7980014  15.6359992  21.8009978  71.5030014
  14.6839992  23.5749978  70.8060014  13.6559992  23.1639978  70.7120014
  14.7359992  24.6829978  70.8710014  15.0889992  23.2379978  69.2980014
  15.4269992  22.1609978  68.8380014  14.8579992  24.3429978  68.5710014
  15.1969992  24.3599978  67.1660014  15.5159992  23.4059978  66.6940014
  14.3279992  24.6969978  66.5610014  16.4299992  25.2849978  66.9630014
  16.1849992  26.2599978  67.4360014  16.7489992  25.4969978  65.3880014
  15.7789992  25.5149978  64.8470014  17.2359992  26.4669978  65.1500014
  17.5939992  24.4729978  64.8130014  17.9419992  24.6439978  63.2900014
  18.9199992  25.8879978  63.3850014  20.2039992  25.7669978  63.9350014
  20.2199992  25.3679978  64.9720014  20.8629992  25.0469978  63.4040014
  20.8989992  27.1839978  63.8720014  21.9219992  27.1009978  64.2100014
  20.9419992  27.4309978  62.8220014  20.2989992  28.2719978  64.6940014
  20.3049992  27.7849978  66.1220014  19.5189992  27.0539978  66.2410014
  21.2509992  27.3379978  66.3880014  20.2009992  28.6139978  66.8070014
  21.1479992  29.5559978  64.6440014  22.2089992  29.3719978  64.7230014
  20.9839992  30.0669978  63.7060014  20.7989992  30.2619978  65.3820014
  18.9179992  28.6849978  64.3460014  18.1269992  27.9949978  64.6000014
  18.8939992  29.0469978  63.3290014  18.8339992  29.6129978  64.8930014
  18.7069992  23.4899978  62.8430014  16.7489992  24.9879978  62.5620014
  17.6899992  24.6599978  67.4050014  18.2929992  25.0399978  68.5050014
  17.9639992  25.9659978  69.2480014  19.5449992  24.1729978  68.6640014
  20.2709992  24.3979978  67.8540014  19.3519992  23.0839978  68.5530014
  20.2889992  24.4499978  70.0160014  19.7439992  25.0999978  70.7340014
  21.1849992  25.0469978  69.7430014  20.6549992  23.1379978  70.7300014
  21.3129992  22.5869978  70.0240014  19.7019992  22.5939978  70.9010014
  21.1639992  23.1899978  72.1790014  22.0709992  23.8229978  72.2880014
  21.4329992  22.1369978  72.4090014  20.1979992  23.5249978  73.3710014
  20.3099992  22.9099978  74.2890014  19.1419992  23.3189978  73.0920014
  20.0859992  25.0089978  73.6820014  20.0679992  25.6179978  72.7530014
  20.9539992  25.4129978  74.2470014  18.8539992  25.4759978  74.4630014
  18.8879992  24.8999978  75.4130014  17.8879992  25.1609978  74.0130014
  18.7719992  26.9469978  74.6100014  18.5919992  27.4909978  73.6710014
  18.6659992  27.7349978  75.6520014  18.5879992  28.8009978  75.3940014
  18.5389992  27.3309978  77.1010014  19.5039992  26.9329978  77.4800014
  17.7229992  26.5779978  77.1440014  18.1209992  28.3499978  78.0600014
  17.3129992  28.9199978  77.5530014  19.0009992  28.9799978  78.3110014
  17.5489992  27.9209978  79.3790014  18.2169992  27.1539978  79.8270014
  16.5779992  27.4179978  79.1850014  17.4529992  29.1289978  80.3140014
  16.5099992  29.7029978  80.1910014  18.1949992  29.8329978  79.8820014
  17.7859992  28.9119978  81.8220014  16.8849992  28.4049978  82.2270014
  17.6879992  29.9169978  82.2860014  19.1629992  28.1989978  82.0520014
  19.9799992  28.7799978  81.5730014  19.1889992  27.1669978  81.6400014
  19.5879992  28.1779978  83.5270014  20.4449992  27.4839978  83.6630014
  18.8049992  27.6369978  84.1010014  19.7929992  29.5499978  84.1620014
  20.4339992  29.3929978  85.0560014  18.8289992  29.9949978  84.4900014
  20.3879992  30.3289978  83.6400014  94.5749992 135.6509978  81.4730014
  94.6059992 136.7529978  81.3340014  94.6749992 135.1689978  80.4770014
  95.2669992 135.4019978  82.3060014  93.1789992 135.4739978  82.0540014
  93.0119992 134.3779978  82.1280014  93.1819992 135.8819978  83.0870014
  92.1289992 136.2179978  81.1600014  92.3089992 137.2919978  81.3790014
  92.2939992 136.0799978  80.0700014  90.6879992 135.6879978  81.3120014
  90.5279992 134.7339978  80.7660014  90.6179992 135.4749978  82.4000014
  89.5539992 136.6759978  80.9400014  88.6289992 136.1639978  81.2800014
  89.6869992 137.6359978  81.4830014  89.4679992 136.7759978  79.4030014
  90.4329992 136.9649978  78.8860014  89.1639992 135.7839978  79.0080014
  88.4759992 137.8829978  78.8240014  87.4639992 137.6919978  79.2410014
  88.6559992 138.8729978  79.2950014  88.4509992 138.0089978  77.3140014
  88.2919992 136.9319978  77.0910014  87.5689992 138.6449978  77.0830014
  89.7099992 138.3969978  76.6250014  90.3749992 138.9169978  77.3470014
  90.2169992 137.5189978  76.1710014  89.4579992 139.4819978  75.5520014
  88.6169992 139.0589978  74.9620014  89.0889992 140.3459978  76.1460014
  90.7449992 139.8619978  74.7960014  91.2909992 140.3989978  75.6000014
  91.2419992 138.9369978  74.4320014  90.6529992 140.7999978  73.6010014
  89.7109992 141.3799978  73.7030014  91.4689992 141.5529978  73.5920014
  90.6869992 140.0459978  72.2930014  91.5629992 139.3829978  72.4550014
  89.8029992 139.3739978  72.2980014  90.6369992 140.9539978  71.0950014
  89.7159992 141.5639978  70.9810014  91.4669992 141.6889978  71.1650014
  90.6669992 140.1849978  69.7470014  89.8579992 139.4249978  69.8100014
  90.4279992 140.8889978  68.9210014  92.0019992 139.4819978  69.5220014
  92.3599992 138.4469978  70.1020014  92.7839992 140.1709978  68.7090014
  93.9689992 139.5069978  68.2740014  94.6539992 140.2879978  67.8800014
  94.4159992 138.9309978  69.1130014  93.7739992 138.7249978  66.9610014
  94.7489992 138.4519978  66.5030014  92.9939992 139.5089978  65.8810014
  93.3369992 140.5649978  65.8470014  93.2319992 139.1509978  64.8560014
  91.5859992 139.6399978  66.1890014  90.5069992 138.8229978  65.2790014
  91.3699992 138.0179978  64.2520014  90.9769992 136.6899978  63.9190014
  91.0459992 136.1049978  64.8610014  89.9029992 136.5659978  63.6620014
  91.7429992 136.1039978  62.7340014  91.4319992 135.0739978  62.6440014
  91.4539992 136.5649978  61.8010014  93.2279992 136.0319978  62.8960014
  93.7859992 135.1079978  61.8560014  93.7699992 135.3539978  60.8050014
  94.8229992 134.8529978  62.0160014  93.3989992 134.1039978  61.9500014
  93.8999992 137.3479978  62.6300014  94.8959992 137.1999978  63.0200014
  93.8319992 137.6139978  61.5860014  93.3779992 138.1129978  63.1860014
  93.5829992 135.5189978  64.2000014  93.1499992 134.5299978  64.2250014
  93.3379992 136.1569978  65.0370014  94.6169992 135.2079978  64.1970014
  89.7199992 137.8529978  66.0910014  89.7419992 139.7269978  64.4590014
  92.9689992 137.5699978  67.1510014  93.5809992 136.4639978  67.6350014
  94.6319992 136.5079978  68.2320014  92.5709992 135.3289978  67.6530014
  92.7019992 134.7049978  66.7430014  91.5689992 135.8069978  67.6930014
  92.6979992 134.3579978  68.8440014  93.7399992 133.9779978  68.9060014
  92.0369992 133.4689978  68.7550014  92.5299992 134.9849978  70.1600014
  91.6409992 135.6469978  70.2420014  93.3749992 135.5889978  70.5540014
  92.3159992 133.8529978  71.2180014  93.3119992 133.3609978  71.1990014
  91.5199992 133.1579978  70.8740014  91.8939992 134.2789978  72.6340014
  92.2089992 133.4209978  73.2660014  90.8139992 134.4719978  72.8060014
  92.5409992 135.5949978  73.0920014  92.1689992 136.3709978  72.3890014
  93.6479992 135.5139978  73.0700014  92.1589992 135.7649978  74.5480014
  91.0969992 135.4759978  74.7020014  92.1359992 136.8349978  74.8460014
  93.0519992 135.0319978  75.6250014  93.0969992 133.9379978  75.5190014
  93.9009992 135.6679978  76.4960014  94.5799992 135.0229978  77.0740014
  94.1989992 137.1179978  76.6750014  93.5049992 137.7069978  76.0380014
  95.2269992 137.4179978  76.3790014  93.9109992 137.5529978  78.0940014
  94.5419992 136.9899978  78.8150014  92.8539992 137.2679978  78.2860014
  94.0259992 139.0459978  78.3250014  93.5229992 139.4359978  77.4150014
  95.0819992 139.3829978  78.2620014  93.3109992 139.4919978  79.6560014
  93.8839992 139.1989978  80.5610014  92.3109992 139.0089978  79.7050014
  93.0039992 140.9399978  79.6030014  92.1279992 141.1799978  78.9630014
  93.8369992 141.5939978  79.2670014  92.6539992 141.3269978  81.0250014
  92.2489992 142.3609978  81.0400014  93.5939992 141.1969978  81.6030014
  91.5509992 140.5289978  81.7100014  91.9839992 139.5549978  82.0240014
  90.7679992 140.3029978  80.9550014  90.9039992 141.1639978  82.9050014
  91.6489992 141.4159978  83.6900014  90.1599992 140.4999978  83.3950014
  90.2989992 142.0459978  82.6030014 125.7529992  27.7409978  83.6200014
 125.9369992  28.8239978  83.7850014 126.5969992  27.1789978  83.1670014
 125.6079992  27.2279978  84.5950014 124.4529992  27.5889978  82.7590014
 123.7649992  28.3289978  83.2190014 124.7819992  27.9879978  81.7760014
 123.8809992  26.1559978  82.7130014 123.5369992  25.8709978  83.7300014
 122.9639992  26.2149978  82.0880014 124.7099992  24.9899978  82.0920014
 125.7199992  24.8579978  82.5370014 124.0289992  24.1259978  82.2420014
 125.0249992  25.2559978  80.6230014 124.1599992  25.5029978  79.9710014
 125.6939992  26.1429978  80.6560014 125.9029992  24.1859978  79.8850014
 126.8999992  24.0729978  80.3620014 125.4429992  23.1769978  79.9430014
 126.2329992  24.5569978  78.4280014 125.2369992  24.7619978  77.9800014
 126.7729992  25.5179978  78.5640014 126.9899992  23.4199978  77.7700014
 127.9799992  23.3109978  78.2620014 126.4109992  22.4759978  77.8630014
 127.2169992  23.6759978  76.2130014 126.2629992  23.6499978  75.6450014
 127.4429992  24.7629978  76.2520014 128.3069992  22.9129978  75.5490014
 129.2189992  22.8849978  76.1840014 128.0479992  21.8329978  75.5730014
 128.5549992  23.3579978  74.1050014 129.4889992  22.9199978  73.6930014
 127.7399992  23.0869978  73.4000014 128.8799992  24.7869978  73.7930014
 128.3459992  25.5079978  74.4480014 129.8539992  24.9439978  74.3040014
 128.7359992  25.2089978  72.3620014 129.1649992  24.4579978  71.6650014
 127.6609992  25.1529978  72.0870014 129.3019992  26.6169978  72.0030014
 128.6999992  27.3229978  72.6140014 130.2969992  26.8629978  72.4310014
 129.1359992  27.0089978  70.5480014 128.0609992  26.8929978  70.2930014
 129.4579992  28.0709978  70.4940014 129.9809992  26.2659978  69.5180014
 130.9989992  25.6539978  69.7260014 129.3909992  26.4779978  68.3330014
 129.8179992  25.9629978  67.0980014 129.7939992  26.6989978  66.2670014
 130.7769992  25.4019978  67.0940014 128.7689992  24.8969978  66.6660014
 128.7599992  24.1159978  67.4550014 129.0739992  24.3879978  65.2520014
 130.1199992  24.0169978  65.2050014 128.2999992  23.6359978  64.9840014
 128.9709992  25.4989978  64.3180014 127.7319992  25.9919978  63.5260014
 127.0319992  26.9409978  64.5470014 127.6839992  28.1579978  65.0510014
 127.3509992  28.1599978  66.1110014 128.7859992  28.0319978  65.1180014
 127.1639992  29.4949978  64.5380014 127.4579992  30.2409978  65.2610014
 127.5969992  29.7449978  63.5810014 125.6729992  29.5579978  64.3410014
 124.8299992  29.1389978  65.4180014 124.4009992  29.8509978  66.1080014
 124.0689992  28.4939978  65.0040014 125.2859992  28.5009978  66.1610014
 125.3009992  31.0459978  64.0390014 125.6549992  31.4149978  63.0870014
 124.2249992  31.1419978  64.0370014 125.7629992  31.6879978  64.7740014
 125.2399992  28.7919978  63.1360014 125.7709992  29.0749978  62.2390014
 124.2349992  29.1009978  62.8920014 125.3679992  27.7249978  63.2350014
 128.1489992  26.7899978  62.3750014 126.9239992  24.7889978  63.2180014
 127.4009992  25.4679978  66.7380014 126.4289992  24.6409978  67.0170014
 126.4499992  23.4839978  67.2370014 125.2159992  25.4219978  66.8230014
 124.6609992  25.0659978  65.9290014 125.4899992  26.4979978  66.7830014
 124.3319992  25.3339978  68.1370014 124.1349992  24.2589978  68.3380014
 123.3439992  25.7819978  67.8940014 124.8699992  26.0219978  69.4640014
 125.7489992  25.4669978  69.8560014 124.0419992  25.9909978  70.2050014
 125.1549992  27.5509978  69.3090014 124.3489992  27.9629978  68.6650014
 126.1209992  27.8179978  68.8290014 125.2629992  28.2669978  70.6570014
 126.1619992  28.0149978  71.2590014 124.3949992  27.9249978  71.2600014
 125.3449992  29.8369978  70.5500014 124.3959992  30.0179978  70.0020014
 126.1019992  30.2239978  69.8350014 125.2179992  30.5959978  71.9080014
 124.4099992  30.2519978  72.5880014 124.8919992  31.6269978  71.6520014
 126.6529992  30.6319978  72.4960014 127.3929992  31.2039978  71.9160014
 127.0649992  29.9809978  73.6200014 128.1119992  30.0229978  73.9560014
 126.2889992  29.0429978  74.5660014 126.8549992  28.1009978  74.7280014
 125.3089992  28.7029978  74.1700014 126.0319992  29.7639978  75.8980014
 125.1469992  29.3199978  76.4040014 125.6589992  30.7819978  75.6550014
 127.2019992  29.8919978  76.8660014 126.8899992  30.3419978  77.8320014
 128.0129992  30.5019978  76.4140014 127.7509992  28.5209978  77.2300014
 128.0619992  28.0109978  76.2930014 127.0549992  27.7959978  77.7030014
 129.0429992  28.6639978  78.0440014 129.7109992  29.2709978  77.3960014
 129.4529992  27.6739978  78.3370014 128.9779992  29.3199978  79.4150014
 128.1119992  28.7959978  79.8740014 128.6189992  30.3709978  79.3960014
 130.3339992  29.1819978  80.2590014 130.1719992  30.0079978  80.9840014
 131.1589992  29.3789978  79.5420014 130.3869992  27.9429978  81.1460014
 129.4549992  27.8979978  81.7480014 131.2509992  27.8939978  81.8430014
 130.4479992  27.0419978  80.4980014  61.9849992 143.2899978  81.3460014
  61.4089992 142.5169978  80.7940014  61.4289992 144.2389978  81.5030014
  62.1729992 142.7769978  82.3140014  63.4459992 143.4249978  80.8160014
  63.8689992 144.3119978  81.3340014  64.0979992 142.6009978  81.1770014
  63.6979992 143.6589978  79.3340014  62.9559992 144.4309978  79.0380014
  64.7339992 143.9439978  79.0510014  63.3249992 142.5089978  78.4440014
  63.8369992 141.5519978  78.6830014  62.2329992 142.4619978  78.6450014
  63.4779992 142.8309978  76.9650014  63.1909992 143.9039978  76.9840014
  64.5269992 142.6599978  76.6400014  62.5429992 142.0139978  76.1010014
  62.7239992 140.9409978  76.3240014  61.4769992 142.3199978  76.1730014
  63.0089992 142.2169978  74.6200014  64.0429992 141.8259978  74.5190014
  62.2949992 141.5689978  74.0680014  62.9589992 143.6679978  74.1970014
  62.0319992 144.0979978  74.6330014  63.8379992 144.2329978  74.5740014
  62.9849992 144.0239978  72.7170014  64.0189992 143.9069978  72.3280014
  62.3609992 143.4049978  72.0370014  62.6389992 145.4609978  72.4800014
  61.8189992 145.7959978  73.1500014  63.4439992 146.1419978  72.8290014
  62.4089992 145.8289978  71.0000014  63.1689992 145.6039978  70.2210014
  61.4539992 145.2729978  70.8880014  61.9629992 147.3349978  70.8980014
  61.5129992 147.6639978  71.8590014  62.8469992 147.9759978  70.6940014
  60.7679992 147.4949978  69.8360014  61.1549992 146.9099978  68.9740014
  59.9079992 147.0179978  70.3530014  60.3569992 148.9049978  69.3690014
  59.3249992 148.8219978  68.9650014  60.2739992 149.5639978  70.2590014
  61.2329992 149.4759978  68.1930014  60.7739992 150.4869978  68.1440014
  62.2959992 149.6509978  68.4660014  61.0379992 148.7729978  66.8450014
  59.9749992 148.8259978  66.2500014  62.2249992 148.3239978  66.3960014
  62.1729992 147.7169978  65.0780014  61.1969992 147.1909978  65.0050014
  62.2289992 148.5689978  64.3680014  63.3419992 146.7889978  64.8620014
  64.2559992 147.4019978  64.7070014  63.1719992 146.0089978  63.5760014
  62.3479992 146.4639978  62.9860014  64.1489992 146.0169978  63.0460014
  62.7099992 144.6409978  63.9010014  62.4679992 143.5619978  62.7780014
  61.0669992 142.9229978  63.1860014  60.8809992 142.4229978  64.4500014
  60.0919992 141.6519978  64.3220014  61.7819992 141.9519978  64.8990014
  60.3839992 143.5979978  65.4490014  60.2589992 143.0789978  66.3880014
  61.2019992 144.3009978  65.3980014  59.1089992 144.3839978  65.1860014
  59.2839992 145.3009978  64.0470014  59.6289992 144.7189978  63.2050014
  58.4409992 145.9219978  63.7830014  60.0669992 145.9809978  64.3480014
  58.0849992 143.3429978  64.8200014  57.1239992 143.8179978  64.6860014
  58.4919992 142.8149978  63.9710014  57.9919992 142.7109978  65.6910014
  58.8559992 145.2639978  66.3860014  58.4479992 144.6219978  67.1520014
  58.1559992 146.0539978  66.1560014  59.7179992 145.7819978  66.7800014
  62.3969992 144.3429978  61.5140014  63.4809992 142.4929978  62.7900014
  63.4129992 145.9209978  65.9840014  64.6959992 145.4039978  66.1130014
  65.6379992 145.7449978  65.4770014  64.6959992 144.2359978  67.1350014
  64.8019992 144.6539978  68.1590014  65.6549992 143.7769978  66.8120014
  63.4509992 143.3529978  67.0810014  63.3799992 143.0279978  66.0210014
  62.5349992 143.8339978  67.4870014  63.4609992 141.8999978  67.8130014
  63.7509992 142.1609978  68.8540014  64.3219992 141.3439978  67.3850014
  62.0989992 141.2019978  68.0880014  62.3669992 140.2419978  68.5790014
  61.5739992 140.9739978  67.1350014  61.1429992 141.9779978  69.0620014
  60.9549992 142.9699978  68.5980014  61.7749992 142.1589978  69.9570014
  59.8349992 141.2289978  69.5220014  60.1409992 140.1909978  69.7730014
  59.1669992 141.2119978  68.6350014  59.2199992 141.8159978  70.7970014
  60.0419992 142.0069978  71.5200014  58.6059992 141.0139978  71.2580014
  58.2049992 142.9559978  70.5480014  57.4949992 142.8569978  69.7140014
  58.0849992 144.0599978  71.3600014  57.2869992 144.7739978  71.1070014
  58.8349992 144.4329978  72.6030014  59.3029992 145.4329978  72.4770014
  59.5839992 143.6649978  72.8960014  57.7389992 144.6849978  73.7600014
  57.4479992 143.7089978  74.2050014  56.9569992 145.1819978  73.1470014
  58.1329992 145.5949978  74.9200014  57.1919992 146.0269978  75.3240014
  58.8159992 146.3259978  74.4380014  58.7909992 144.9779978  76.1430014
  59.7039992 144.5829978  75.6480014  58.2369992 144.1289978  76.5960014
  59.0829992 145.9559978  77.3200014  58.2009992 146.6319978  77.3220014
  59.9559992 146.5409978  76.9580014  59.4089992 145.1889978  78.6200014
  60.4079992 144.7639978  78.3840014  58.7619992 144.3079978  78.8210014
  59.5169992 146.0709978  79.8780014  59.7669992 145.3689978  80.7030014
  58.5319992 146.5709978  79.9990014  60.6139992 147.1919978  79.8040014
  60.3529992 148.0449978  80.4670014  60.7519992 147.5819978  78.7730014
  61.6159992 146.8479978  80.1390014  44.6229992 143.4919978  82.0820014
  45.4429992 144.1739978  82.3950014  43.7439992 143.6209978  82.7490014
  44.3829992 143.7819978  81.0370014  45.1699992 142.0749978  82.1940014
  45.1859992 141.8189978  83.2750014  44.5389992 141.3289978  81.6650014
  46.4929992 141.8579978  81.4890014  47.2859992 142.5319978  81.8760014
  46.7439992 140.8069978  81.7460014  46.3659992 142.0499978  79.9430014
  45.5769992 141.5069978  79.3810014  45.9599992 143.0519978  79.6870014
  47.6219992 141.7399978  79.0870014  48.1589992 140.8849978  79.5510014
  47.1859992 141.4159978  78.1180014  48.6889992 142.9429978  78.9160014
  48.6499992 143.4539978  79.9020014  49.7289992 142.7009978  78.6080014
  48.1849992 144.1279978  78.0030014  47.2009992 144.5019978  78.3600014
  48.8109992 145.0439978  78.0630014  47.7619992 143.7679978  76.5100014
  48.5979992 143.3319978  75.9230014  46.9739992 142.9839978  76.4970014
  47.2959992 144.9319978  75.7260014  46.3659992 145.3499978  76.1670014
  48.0359992 145.7479978  75.8720014  46.9259992 144.6379978  74.2600014
  47.7599992 144.0439978  73.8290014  45.9669992 144.0799978  74.2240014
  46.8199992 146.0169978  73.6550014  46.1719992 146.7149978  74.2270014
  47.8179992 146.4889978  73.7810014  46.4539992 146.0099978  72.1970014
  46.6299992 147.0549978  71.8630014  47.1839992 145.4789978  71.5500014
  45.1279992 145.4659978  71.7770014  45.1829992 145.2219978  70.6940014
  44.9059992 144.4979978  72.2760014  44.0259992 146.4159978  72.1160014
  43.9619992 146.3489978  73.2230014  44.2909992 147.4649978  71.8630014
  42.5259992 145.9289978  71.7930014  42.4599992 144.8329978  71.9600014
  41.8759992 146.4149978  72.5520014  42.0179992 146.2119978  70.3630014
  42.0299992 147.3089978  69.8210014  41.8959992 145.0859978  69.7740014
  41.7469992 145.1499978  68.3280014  41.3379992 144.1699978  68.0020014
  40.9439992 145.8609978  68.0400014  43.1129992 145.3029978  67.5420014
  43.6209992 146.2709978  67.7390014  42.8969992 145.2399978  65.9280014
  42.1209992 145.9649978  65.6010014  43.8069992 145.6779978  65.4650014
  42.5149992 143.9679978  65.4820014  43.3089992 143.3489978  64.3040014
  44.8369992 143.5529978  64.8660014  45.9369992 144.2039978  64.2170014
  45.6049992 145.2209978  63.9180014  46.6979992 144.4549978  64.9870014
  46.7449992 143.4509978  63.1970014  46.1169992 143.2939978  62.3320014
  47.5879992 144.0879978  62.9740014  47.5399992 142.1729978  63.6840014
  46.4149992 141.1729978  64.0900014  46.9069992 140.3409978  64.5720014
  45.8579992 141.6109978  64.9050014  45.7849992 140.8529978  63.2740014
  48.1579992 141.6029978  62.5100014  47.4519992 141.4019978  61.7170014
  48.8849992 142.3329978  62.1850014  48.7089992 140.7269978  62.8180014
  48.4259992 142.3599978  64.8720014  47.8939992 142.7889978  65.7080014
  49.2479992 143.0029978  64.5930014  48.8479992 141.4239978  65.2090014
  43.0029992 141.8819978  64.1810014  43.0869992 144.1389978  63.1020014
  44.0449992 144.3529978  68.0380014  45.3569992 144.6569978  67.9370014
  45.8969992 145.6789978  67.5280014  46.0539992 143.3679978  68.3930014
  46.3159992 142.8549978  67.4430014  45.4279992 142.7759978  69.0950014
  47.3859992 143.7209978  68.9970014  47.1039992 144.3669978  69.8560014
  48.0869992 144.4069978  68.4770014  48.2329992 142.5629978  69.5910014
  48.9859992 142.9669978  70.3010014  48.8469992 142.0319978  68.8330014
  47.4689992 141.4669978  70.1890014  48.1019992 140.6129978  70.5130014
  46.6969992 141.0029978  69.5380014  46.7759992 142.0389978  71.4660014
  46.0129992 142.7949978  71.1810014  47.5069992 142.5979978  72.0880014
  46.2179992 140.9729978  72.3770014  46.9319992 140.1309978  72.2530014
  45.3019992 140.6309978  71.8500014  45.9869992 141.4009978  73.9240014
  45.1789992 142.1319978  73.7080014  46.9449992 141.8799978  74.2200014
  45.6489992 140.2399978  74.7670014  46.5229992 139.5789978  74.8550014
  44.4309992 139.9879978  75.3150014  44.3159992 139.1699978  76.0420014
  43.1319992 140.7949978  75.1670014  42.3479992 140.1099978  74.7790014
  43.2309992 141.5269978  74.3370014  42.7829992 141.5049978  76.4190014
  42.6459992 140.8959978  77.3380014  41.7499992 141.8229978  76.1620014
  43.6029992 142.7659978  76.6350014  43.5039992 143.3469978  75.6940014
  44.6439992 142.3799978  76.6790014  43.2119992 143.7609978  77.7020014
  43.8889992 144.6409978  77.6840014  43.2319992 143.3139978  78.7190014
  41.8299992 144.4059978  77.3780014  41.0949992 143.5819978  77.5000014
  41.8979992 144.7439978  76.3220014  41.5399992 145.5359978  78.3690014
  40.4359992 145.6429978  78.3200014  42.0359992 146.4879978  78.0800014
  41.6259992 145.3619978  79.8750014  42.6019992 144.8709978  80.0750014
  40.7579992 144.7119978  80.1160014  41.7009992 146.7259978  80.4770014
  41.9419992 146.6609978  81.5600014  40.7329992 147.2679978  80.4120014
  42.5619992 147.3119978  80.0920014 128.1739992 117.0269978  84.7180014
 127.8729992 116.4069978  83.8470014 127.2799992 117.3639978  85.2840014
 128.8549992 116.5269978  85.4390014 129.0149992 118.1249978  84.1040014
 129.3959992 118.8319978  84.8720014 129.8569992 117.6179978  83.5860014
 128.1409992 119.0219978  83.0800014 127.3489992 119.5839978  83.6190014
 128.8509992 119.8189978  82.7710014 127.7099992 118.3379978  81.7440014
 128.4469992 117.5259978  81.5680014 126.6899992 117.9069978  81.8310014
 127.6959992 119.3499978  80.5570014 126.8729992 120.0609978  80.7860014
 128.7089992 119.7939978  80.4510014 127.2989992 118.7519978  79.1750014
 126.4819992 118.0119978  79.3090014 126.8799992 119.5659978  78.5450014
 128.4049992 117.9589978  78.5440014 129.3639992 118.4939978  78.7110014
 128.3589992 116.9509978  79.0090014 128.3569992 117.8359978  77.0190014
 128.3299992 118.8569978  76.5820014 129.3229992 117.4309978  76.6510014
 126.9829992 117.2069978  76.5560014 126.9799992 116.1159978  76.7650014
 126.0959992 117.6569978  77.0500014 126.8379992 117.3649978  75.0580014
 125.8339992 117.0069978  74.7460014 126.7819992 118.4129978  74.6920014
 127.9659992 116.5259978  74.2290014 128.9319992 117.0569978  74.3690014
 128.1509992 115.6209978  74.8450014 127.6809992 116.2649978  72.7550014
 126.8769992 115.5019978  72.6780014 127.3389992 117.1759978  72.2190014
 128.8669992 115.7309978  72.0040014 129.7929992 116.1169978  72.4820014
 128.8309992 114.6479978  72.2460014 128.8059992 116.0469978  70.5160014
 127.8789992 115.5799978  70.1210014 128.6609992 117.1289978  70.3100014
 130.1289992 115.5549978  69.8210014 130.9819992 116.1229978  70.2500014
 130.1299992 114.4639978  70.0360014 130.0859992 115.7349978  68.2850014
 131.0259992 116.1939978  67.6360014 128.9149992 115.3469978  67.8410014
 128.8329992 115.1869978  66.4220014 129.8019992 115.2749978  65.8860014
 128.3929992 114.1829978  66.2450014 127.8829992 116.1849978  65.7440014
 126.8289992 115.8499978  65.8500014 128.2349992 116.3439978  64.2710014
 128.2509992 115.3279978  63.8210014 127.5389992 116.9419978  63.6440014
 129.4969992 116.9919978  64.1380014 130.4959992 116.6309978  62.9450014
 131.5139992 117.8979978  62.8970014 132.4939992 118.0109978  63.8900014
 132.3169992 117.3719978  64.7810014 133.4719992 117.6599978  63.4960014
 132.7519992 119.4579978  64.5010014 133.5159992 119.4089978  65.2630014
 133.1949992 120.0359978  63.7030014 131.5069992 120.0599978  65.1300014
 130.2989992 120.1979978  64.1880014 130.6199992 120.7839978  63.3390014
 129.9869992 119.2549978  63.7650014 129.6059992 120.7399978  64.8150014
 131.1559992 119.4989978  66.4350014 130.4039992 120.0989978  66.9250014
 130.8649992 118.4619978  66.3480014 132.0209992 119.5679978  67.0780014
 131.9319992 121.4439978  65.4120014 132.3349992 121.9069978  64.5230014
 132.7189992 121.4329978  66.1510014 131.1369992 121.9859978  65.9030014
 131.2309992 115.3769978  63.2690014 129.7109992 116.6149978  61.7020014
 127.9339992 117.4959978  66.4300014 126.9359992 118.3729978  65.9220014
 125.9619992 118.0249978  65.2430014 127.3589992 119.8139978  66.2950014
 126.6969992 120.4869978  65.7080014 128.4059992 119.9919978  65.9690014
 127.1369992 120.0709978  67.8310014 126.2559992 119.4919978  68.1820014
 126.9109992 121.1439978  68.0080014 128.3889992 119.7209978  68.6460014
 129.2869992 120.2359978  68.2420014 128.6939992 118.6569978  68.5480014
 128.2779992 120.1229978  70.1430014 127.4069992 119.5319978  70.4970014
 127.8519992 121.1479978  70.2000014 129.4999992 120.1499978  70.9660014
 130.3069992 120.6129978  70.3580014 129.7589992 119.0759978  71.0860014
 129.4659992 120.9699978  72.3220014 128.7769992 120.3709978  72.9550014
 129.0879992 122.0029978  72.1640014 130.8179992 121.1749978  73.0340014
 130.6139992 121.2679978  74.1220014 131.3179992 122.1249978  72.7490014
 131.8709992 120.1029978  72.8630014 132.3709992 119.9709978  71.8920014
 132.1839992 119.2389978  73.8500014 132.9919992 118.5189978  73.6540014
 131.6099992 119.1129978  75.2210014 131.6369992 118.0159978  75.3970014
 130.5509992 119.4479978  75.2110014 132.2389992 119.9389978  76.3210014
 131.5829992 119.6479978  77.1700014 132.1779992 121.0399978  76.1860014
 133.7059992 119.4879978  76.6000014 134.3289992 119.8089978  75.7380014
 133.8329992 118.3839978  76.6260014 134.1949992 120.1939978  77.8640014
 133.6099992 121.1069978  78.1060014 135.1859992 120.6539978  77.6670014
 134.1989992 119.1519978  79.0420014 134.6669992 119.6869978  79.8960014
 134.9289992 118.3309978  78.8790014 132.7779992 118.8089978  79.4820014
 132.1349992 118.4899978  78.6330014 132.1989992 119.6949978  79.8200014
 132.7209992 117.7409978  80.5110014 133.3679992 118.1429978  81.3200014
 133.1349992 116.8529978  79.9870014 131.2699992 117.5799978  80.9660014
 130.7469992 117.0909978  80.1170014 130.7549992 118.5549978  81.1050014
 131.2709992 117.1389978  81.9850014 135.8169992  45.3079978  79.2850014
 134.8309992  44.9409978  79.6420014 135.5479992  46.1699978  78.6370014
 136.3759992  45.7199978  80.1520014 136.5999992  44.2729978  78.5460014
 136.7639992  43.3379978  79.1220014 136.0829992  43.6829978  77.7590014
 137.9519992  44.7189978  77.9260014 137.8259992  45.7019978  77.4230014
 138.7169992  44.8019978  78.7280014 138.5799992  43.6869978  76.9110014
 138.7069992  42.7209978  77.4440014 137.8539992  43.4509978  76.1050014
 139.9429992  44.1149978  76.3220014 140.6979992  44.0079978  77.1300014
 140.1919992  43.4179978  75.4930014 140.0189992  45.5859978  75.7760014
 139.3439992  45.7779978  74.9140014 139.6759992  46.2469978  76.6000014
 141.3379992  45.9699978  75.2480014 141.9539992  46.0979978  76.1640014
 141.8119992  45.1259978  74.7030014 141.2719992  47.2799978  74.4610014
 140.5629992  47.8749978  75.0760014 142.2039992  47.8769978  74.3710014
 140.7109992  47.0979978  73.1050014 139.6699992  46.7109978  73.0910014
 140.6379992  48.1039978  72.6390014 141.5219992  46.1969978  72.2000014
 142.6029992  46.4519978  72.1620014 141.3589992  45.1889978  72.6390014
 141.0429992  46.3959978  70.7570014 139.9449992  46.2359978  70.6900014
 141.2269992  47.3969978  70.3110014 141.6849992  45.3749978  69.7770014
 142.7799992  45.5469978  69.7000014 141.6579992  44.3879978  70.2860014
 141.1689992  45.3659978  68.3790014 141.2909992  46.3879978  67.9610014
 141.8359992  44.6889978  67.8040014 139.7599992  44.9139978  68.2180014
 139.7429992  43.8769978  68.6140014 139.0499992  45.4809978  68.8560014
 139.3049992  44.9629978  66.7460014 139.4099992  45.9979978  66.3550014
 140.0589992  44.3699978  66.1860014 137.8699992  44.3979978  66.4370014
 137.0709992  44.1189978  67.2960014 137.7119992  44.3939978  65.1530014
 136.4399992  43.9989978  64.5500014 136.4959992  43.1959978  63.7840014
 135.6579992  43.6209978  65.2420014 135.8639992  45.2239978  63.7860014
 134.8279992  45.0099978  63.4460014 136.8399992  45.6919978  62.6780014
 136.8279992  44.8749978  61.9240014 136.4589992  46.6259978  62.2130014
 138.1059992  45.7789978  63.1730014 139.2739992  46.2739978  62.2420014
 139.8909992  47.4759978  63.0540014 138.9989992  48.4179978  63.5650014
 139.3359992  49.4559978  63.3580014 137.9399992  48.2619978  63.2680014
 138.9649992  48.3579978  65.0640014 138.1969992  48.9879978  65.4870014
 138.7999992  47.3499978  65.4150014 140.1929992  48.7609978  65.8270014
 139.8779992  48.7589978  67.3140014 139.0219992  49.3979978  67.4740014
 139.8229992  47.7239978  67.6180014 140.7289992  49.1769978  67.8300014
 141.3929992  47.8769978  65.6810014 141.5299992  47.7609978  64.6160014
 142.2619992  48.3269978  66.1390014 141.2549992  46.9239978  66.1690014
 140.7039992  50.1469978  65.5380014 141.1299992  50.1229978  64.5470014
 141.5009992  50.3909978  66.2250014 139.9059992  50.8749978  65.5580014
 140.2059992  45.1219978  62.0940014 138.6899992  46.6819978  60.9540014
 135.7749992  46.2409978  64.7700014 135.1889992  47.3869978  64.4350014
 134.5579992  47.6029978  63.3690014 135.4139992  48.4569978  65.5250014
 134.6479992  49.2609978  65.5690014 136.3599992  49.0259978  65.3960014
 135.5019992  47.8149978  66.9260014 136.2279992  46.9749978  66.8990014
 134.5099992  47.4469978  67.2640014 135.9709992  48.8049978  67.9800014
 135.0379992  49.2259978  68.4130014 136.5619992  49.5859978  67.4540014
 136.7099992  48.1499978  69.0640014 137.2469992  48.8739978  69.7120014
 137.4389992  47.3839978  68.7220014 135.7679992  47.3939978  70.0850014
 135.1939992  46.6149978  69.5390014 135.0489992  48.1739978  70.4160014
 136.4419992  46.9499978  71.3650014 136.7849992  47.8089978  71.9800014
 137.3349992  46.3509978  71.0870014 135.5559992  46.1179978  72.2660014
 135.2089992  45.2669978  71.6420014 134.5869992  46.6239978  72.4640014
 136.2489992  45.7399978  73.5780014 137.1869992  45.1679978  73.5250014
 135.7269992  46.0039978  74.7960014 136.3119992  45.6989978  75.6760014
 134.4829992  46.7309978  75.1410014 134.0929992  46.3039978  76.0890014
 133.6149992  46.6109978  74.4580014 134.6669992  48.2349978  75.5270014
 133.6789992  48.6779978  75.7780014 135.1569992  48.8109978  74.7130014
 135.6319992  48.2739978  76.6990014 136.5849992  47.7159978  76.5750014
 135.0179992  47.8409978  77.5180014 136.0419992  49.6249978  77.1170014
 135.0889992  50.1819978  77.2470014 136.5489992  50.1409978  76.2730014
 136.9839992  49.4459978  78.3280014 137.6819992  48.5869978  78.2310014
 136.3059992  49.2369978  79.1830014 137.9089992  50.6859978  78.6680014
 137.4629992  51.5469978  79.2100014 138.2479992  51.1139978  77.7000014
 139.1679992  50.3629978  79.4530014 139.8489992  49.7639978  78.8110014
 138.9399992  49.6589978  80.2820014 139.8999992  51.6779978  79.9770014
 140.3049992  52.0939978  79.0290014 140.6979992  51.3559978  80.6800014
 139.2659992  52.3619978  80.5800014 148.9349992  72.8609978  81.0170014
 149.2109992  73.9319978  80.9120014 149.0729992  72.4459978  79.9960014
 149.7189992  72.4959978  81.7140014 147.4949992  72.7509978  81.5700014
 147.3329992  73.3709978  82.4780014 146.7069992  73.0609978  80.8520014
 147.1199992  71.3429978  81.9460014 147.9689992  70.9379978  82.5360014
 146.1479992  71.4669978  82.4710014 146.9869992  70.3589978  80.7100014
 146.7339992  70.9069978  79.7770014 147.9729992  69.9879978  80.3560014
 146.0649992  69.1779978  80.9590014 146.2659992  68.5069978  81.8220014
 145.0319992  69.5859978  80.9980014 146.0389992  68.2499978  79.7670014
 146.0339992  68.8069978  78.8060014 146.8869992  67.5409978  79.8810014
 144.7879992  67.3519978  79.6730014 144.6719992  66.7059978  80.5700014
 143.8819992  67.9739978  79.5060014 144.7659992  66.3239978  78.5600014
 145.5269992  65.5539978  78.8120014 143.7939992  65.7869978  78.5980014
 145.0459992  66.7519978  77.1550014 144.6399992  65.8939978  76.5770014
 144.6779992  67.7869978  76.9880014 146.5309992  66.7319978  76.8100014
 147.0789992  67.2449978  77.6290014 146.9159992  65.6939978  76.7250014
 146.7519992  67.5419978  75.4740014 146.0849992  67.0499978  74.7350014
 146.3489992  68.5779978  75.4880014 148.1839992  67.8439978  75.0660014
 148.5279992  68.4359978  75.9410014 148.6439992  66.8329978  75.0810014
 148.3799992  68.6319978  73.7210014 147.8129992  69.5869978  73.7480014
 149.4389992  68.9559978  73.8120014 148.0459992  67.7869978  72.4890014
 148.5289992  66.8549978  72.8530014 146.9709992  67.5059978  72.5180014
 148.6739992  68.2189978  71.1280014 148.2859992  69.2349978  70.8990014
 149.7829992  68.1539978  71.1420014 148.2549992  67.2739978  69.9970014
 147.6949992  66.2489978  70.2510014 148.5919992  67.7949978  68.8540014
 148.2709992  67.0299978  67.7410014 148.9629992  67.2889978  66.9120014
 148.3679992  65.9369978  67.9170014 146.8119992  67.4879978  67.2690014
 146.6249992  67.1639978  66.2230014 146.6409992  69.0109978  67.2290014
 146.2059992  69.2559978  68.2220014 147.6489992  69.4539978  67.0840014
 145.7839992  69.4829978  66.1250014 145.9409992  70.9429978  65.5580014
 144.6919992  71.1089978  64.6070014 143.4669992  70.4869978  64.9140014
 143.5049992  69.9679978  65.8950014 142.6699992  71.2599978  64.9690014
 142.8319992  69.5749978  63.9180014 143.1729992  68.6079978  64.2560014
 141.7659992  69.6479978  64.0720014 143.0429992  69.7889978  62.4200014
 144.4619992  69.5499978  62.0730014 144.5899992  69.7409978  61.0180014
 145.0339992  70.1969978  62.7210014 144.5529992  68.5289978  62.4150014
 142.2299992  68.7619978  61.5900014 142.6519992  68.6899978  60.5980014
 142.3089992  67.8339978  62.1360014 141.2309992  69.1359978  61.4190014
 142.6279992  71.1599978  61.9270014 142.9489992  71.2289978  60.8980014
 143.1959992  71.9579978  62.3810014 141.5789992  71.3519978  62.1000014
 145.9459992  71.8819978  66.6730014 147.1599992  71.0029978  64.7020014
 145.9309992  66.7869978  68.2020014 144.6639992  66.7889978  67.9960014
 144.0399992  67.1759978  67.0390014 143.9979992  66.1969978  69.2800014
 144.4629992  65.1979978  69.4270014 142.8999992  66.1239978  69.1270014
 144.1139992  67.2429978  70.4100014 143.4439992  68.0769978  70.1090014
 145.1799992  67.5109978  70.5670014 143.6979992  66.6709978  71.7930014
 144.4879992  65.9269978  72.0310014 142.7439992  66.1079978  71.8690014
 143.6959992  67.7859978  72.9140014 144.3549992  68.6119978  72.5710014
 143.9859992  67.4429978  73.9300014 142.4099992  68.5139978  73.2520014
 141.9299992  68.0309978  74.1290014 141.7099992  68.5579978  72.3910014
 142.6919992  69.9649978  73.8260014 143.0809992  70.6079978  73.0080014
 143.3599992  69.9139978  74.7120014 141.3919992  70.5509978  74.4020014
 141.0699992  69.8189978  75.1730014 140.5759992  70.4569978  73.6540014
 141.3949992  71.9219978  74.9470014 141.8839992  72.6409978  74.2740014
 140.9369992  72.4089978  76.0850014 140.9339992  73.4859978  76.3090014
 140.2069992  71.6389978  77.2280014 139.7489992  70.6659978  76.9470014
 139.3779992  72.2049978  77.7040014 141.1729992  71.4249978  78.3970014
 141.4389992  72.4579978  78.7080014 142.1439992  71.0419978  78.0150014
 140.7289992  70.7689978  79.6790014 140.8439992  69.7019978  79.3880014
 139.6259992  70.8079978  79.8070014 141.6309992  70.9639978  80.9280014
 141.2959992  71.8609978  81.4910014 142.6549992  71.0209978  80.5020014
 141.5809992  69.6689978  81.7390014 142.0719992  68.9459978  81.0530014
 140.5489992  69.4609978  82.0930014 142.4529992  69.7399978  83.0150014
 142.2139992  70.6029978  83.6720014 143.5319992  69.6369978  82.7730014
 142.0879992  68.5329978  83.9220014 142.0459992  67.6559978  83.2420014
 141.1039992  68.8359978  84.3390014 143.0389992  68.2919978  85.0460014
 144.0239992  68.3129978  84.5330014 142.9889992  67.4389978  85.7560014
 142.9419992  69.2479978  85.6050014   1.0389992  55.5569978  85.2430014
   1.1799992  56.3339978  84.4620014   0.8869992  56.0599978  86.2220014
   0.1509992  54.9539978  84.9540014   2.3479992  54.7439978  85.2850014
   3.1139992  55.4819978  85.6020014   2.3469992  54.0659978  86.1650014
   2.6819992  53.9179978  84.0260014   3.3569992  53.0869978  84.3210014
   1.6959992  53.5079978  83.7180014   3.3259992  54.7509978  82.9020014
   2.8539992  55.7479978  83.0380014   4.4249992  54.7429978  83.0680014
   3.0119992  54.1079978  81.5410014   3.6799992  53.2949978  81.1850014
   2.0559992  53.5499978  81.6380014   3.1189992  55.0139978  80.3190014
   2.4899992  55.9089978  80.5150014   4.0899992  55.4609978  80.0170014
   2.5449992  54.3419978  78.9970014   2.5969992  54.9229978  78.0510014
   3.0369992  53.3629978  78.8110014   1.0359992  54.1849978  79.0290014
   0.8969992  53.2609978  79.6300014   0.6929992  55.0619978  79.6180014
   0.2979992  53.9719978  77.6420014   0.2769992  55.0089978  77.2430014
   0.9259992  53.3389978  76.9790014  -1.0900008  53.3869978  77.6410014
  -0.9580008  52.2849978  77.6970014  -1.8090008  53.6729978  78.4370014
  -1.9600008  53.6649978  76.3850014  -2.8440008  52.9929978  76.4050014
  -2.4490008  54.6609978  76.4390014  -1.2910008  53.4039978  75.0240014
  -2.0670008  53.6499978  74.2680014  -0.4080008  54.0529978  74.8430014
  -0.8620008  51.8719978  74.8670014  -0.2500008  51.7009978  75.7780014
  -1.7640008  51.2249978  74.9050014   0.0349992  51.5479978  73.6440014
   0.7739992  52.3399978  73.3960014   0.7359992  50.7269978  73.9070014
  -0.8620008  51.3039978  72.3130014  -0.2630008  50.5829978  71.7170014
  -1.7770008  50.7129978  72.5280014  -1.2980008  52.5779978  71.4740014
  -1.5640008  53.6429978  71.9530014  -1.2820008  52.2999978  70.2420014
  -1.1120008  53.3159978  69.2300014  -1.4100008  52.9859978  68.2120014
  -1.7170008  54.2239978  69.4420014   0.3149992  53.9149978  69.1760014
   0.5519992  54.5059978  70.0860014   0.4729992  54.7149978  67.9000014
  -0.4020008  55.3329978  67.6020014   1.3949992  55.3319978  67.9610014
   0.5449992  53.7409978  66.8800014   1.4579992  53.9539978  65.6110014
   0.7269992  53.0589978  64.4190014   0.8949992  51.6549978  64.5890014
   1.0069992  51.2879978  65.6320014  -0.0440008  51.2119978  64.1940014
   2.1419992  51.2099978  63.8320014   2.9799992  51.4959978  64.4520014
   2.0739992  50.1489978  63.6430014   2.3919992  51.7099978  62.3890014
   3.0089992  53.0909978  62.5480014   2.2609992  53.6469978  63.0930014
   3.8469992  53.1319978  63.2280014   3.1739992  53.5389978  61.5790014
   3.2379992  50.7879978  61.5700014   2.8389992  49.7849978  61.5340014
   3.3149992  51.1979978  60.5740014   4.2959992  50.7259978  61.7790014
   1.0449992  51.8859978  61.6740014   1.1809992  52.4419978  60.7580014
   0.3029992  52.2459978  62.3710014   0.6719992  50.9189978  61.3670014
   1.1769992  55.3519978  65.1190014   2.8589992  53.5789978  65.8740014
   1.2649992  52.8769978  69.2320014   2.6109992  53.1449978  69.4470014
   3.0399992  54.2449978  69.6160014   3.3759992  51.8219978  69.3270014
   3.6739992  51.7759978  68.2580014   2.7179992  50.9579978  69.5600014
   4.4249992  51.7909978  70.4780014   4.8399992  52.8149978  70.6030014
   5.2109992  51.0709978  70.1660014   3.9199992  51.3259978  71.8450014
   3.5769992  50.2989978  71.5950014   2.9919992  51.8829978  72.0990014
   4.9539992  51.4669978  72.8720014   5.0829992  52.5609978  73.0110014
   5.8929992  51.1339978  72.3820014   4.5869992  50.7239978  74.2160014
   3.5979992  50.9499978  74.6670014   5.3469992  51.1119978  74.9280014
   4.7909992  49.1759978  74.1250014   5.8339992  48.9619978  73.8100014
   4.0809992  48.7679978  73.3740014   4.6729992  48.2879978  75.3730014
   5.4169992  48.4679978  76.1770014   4.8639992  47.2609978  74.9950014
   3.2889992  48.2709978  75.9740014   2.6729992  47.4929978  75.4970014
   2.8609992  49.0319978  77.0070014   1.8359992  49.0209978  77.4040014
   3.6329992  50.0859978  77.7650014   3.1049992  51.0619978  77.8250014
   4.5899992  50.3469978  77.2660014   4.1859992  49.7839978  79.1760014
   5.1959992  50.2379978  79.2660014   4.2479992  48.6749978  79.1980014
   3.3539992  50.1729978  80.4460014   3.1039992  51.2369978  80.2480014
   3.8389992  50.0069978  81.4310014   1.9339992  49.5509978  80.6250014
   1.9999992  48.6059978  81.2050014   1.5279992  49.2959978  79.6220014
   0.8959992  50.4699978  81.3470014   0.4429992  51.2399978  80.6870014
   1.4139992  50.9989978  82.1760014  -0.2040008  49.6049978  81.9820014
   0.2519992  49.0249978  82.8140014  -0.4300008  48.8439978  81.2050014
  -1.4940008  50.2979978  82.4370014  -1.9500008  50.8389978  81.5810014
  -1.2890008  50.9159978  83.3370014  -2.3810008  49.1669978  82.9340014
  -2.4660008  48.3679978  82.1670014  -3.4310008  49.4699978  83.1320014
  -1.9970008  48.7829978  83.9030014   7.3049992 116.1909978  82.2300014
   8.3889992 116.4039978  82.3530014   7.1919992 115.1069978  82.0160014
   6.9159992 116.1579978  83.2700014   6.5559992 117.1089978  81.2510014
   7.0699992 116.9249978  80.2840014   5.5319992 116.7539978  81.0070014
   6.6419992 118.5899978  81.5280014   5.8779992 118.8839978  82.2790014
   7.6379992 118.8539978  81.9460014   6.4309992 119.5619978  80.3470014
   5.4489992 119.4219978  79.8470014   6.3439992 120.5409978  80.8650014
   7.4869992 119.5839978  79.2700014   8.4459992 119.7089978  79.8170014
   7.6109992 118.6309978  78.7130014   7.2449992 120.6629978  78.2120014
   6.2349992 120.5569978  77.7620014   7.3099992 121.6489978  78.7200014
   8.3349992 120.7329978  77.1040014   8.4179992 119.6969978  76.7130014
   7.9809992 121.4609978  76.3430014   9.8009992 121.1079978  77.4970014
   9.8239992 122.1989978  77.7060014  10.0339992 120.5489978  78.4290014
  10.8079992 120.7779978  76.3880014  10.8509992 119.6679978  76.3430014
  10.4439992 121.1729978  75.4160014  12.1919992 121.3169978  76.7880014
  12.2189992 122.3499978  77.1980014  12.5069992 120.7609978  77.6970014
  13.3679992 121.2779978  75.8180014  14.1029992 122.0029978  76.2290014
  13.6949992 120.2169978  75.7730014  13.1389992 121.5739978  74.3340014
  12.3869992 122.3909978  74.3000014  14.0989992 122.0069978  73.9790014
  12.6759992 120.3389978  73.5010014  13.6349992 119.8199978  73.2870014
  12.0359992 119.6289978  74.0670014  11.9299992 120.7299978  72.2160014
  11.5489992 119.8289978  71.6910014  11.0229992 121.2409978  72.6040014
  12.7299992 121.6189978  71.3250014  12.9889992 122.6249978  71.7210014
  13.6599992 121.0849978  71.0330014  11.7829992 121.9379978  70.0950014
  11.1329992 122.9409978  70.0510014  11.8699992 121.0209978  69.0720014
  11.3779992 121.5589978  67.8080014  10.6269992 122.3719978  67.9040014
  12.2499992 121.9139978  67.2180014  10.6969992 120.3669978  67.0840014
  11.4819992 119.6459978  66.7720014   9.8449992 120.7799978  65.8400014
   8.9089992 121.3359978  66.0630014  10.4359992 121.4409978  65.1710014
   9.3329992 119.5879978  65.1510014   9.9819992 118.7909978  63.9890014
   8.8829992 117.7139978  63.4820014   7.9139992 117.0899978  64.3750014
   7.6589992 117.8699978  65.1250014   6.9869992 116.7909978  63.8400014
   8.5979992 115.8559978  64.8950014   9.5359992 116.2259978  65.2800014
   7.9779992 115.5569978  65.7270014   8.9539992 114.6279978  63.9960014
  10.1799992 115.0249978  63.2060014  10.5759992 114.2079978  62.6220014
   9.9819992 115.8529978  62.5430014  11.0019992 115.2329978  63.8740014
   9.3189992 113.4509978  64.8460014  10.2069992 113.6549978  65.4250014
   8.5079992 113.1509978  65.4920014   9.5819992 112.6319978  64.1920014
   7.7689992 114.3499978  63.1260014   7.0089992 114.0309978  63.8230014
   8.0689992 113.5269978  62.4950014   7.5009992 115.2609978  62.6110014
  10.1979992 119.6689978  62.8010014  11.0719992 118.0319978  64.6390014
   9.8199992 119.7389978  67.9920014  10.0809992 118.5459978  68.5690014
  10.7309992 117.6459978  68.0490014   9.4849992 118.4769978  69.9630014
   8.3759992 118.4919978  69.9130014   9.9629992 119.2449978  70.6090014
   9.8639992 117.1719978  70.8040014  10.9369992 116.9479978  70.6250014
   9.2019992 116.4119978  70.3380014   9.4259992 117.2609978  72.2750014
  10.1929992 117.9079978  72.7510014   9.6219992 116.3579978  72.8930014
   7.9839992 117.6739978  72.6780014   7.1369992 117.0469978  72.3270014
   7.8189992 118.6609978  72.1950014   7.7619992 117.6609978  74.1850014
   6.8659992 118.2489978  74.4790014   8.6279992 118.1439978  74.6860014
   7.5309992 116.2729978  74.7510014   8.4269992 115.6699978  74.4890014
   6.7299992 115.6759978  74.2650014   7.1589992 116.1479978  76.2960014
   6.1209992 116.5359978  76.3750014   7.8489992 116.8279978  76.8410014
   7.2599992 114.7249978  76.8300014   6.4259992 114.0459978  76.5980014
   8.4029992 114.1659978  77.3390014   8.3749992 113.1469978  77.7530014
   9.6579992 114.8859978  77.4520014   9.8499992 115.4419978  76.5090014
  10.5249992 114.1919978  77.4930014   9.7469992 115.7409978  78.6910014
   9.3359992 115.2489978  79.5990014   9.1199992 116.6559978  78.6280014
  11.1779992 116.2479978  79.1300014  11.5899992 116.7789978  78.2450014
  11.7899992 115.3539978  79.3740014  11.3419992 117.3709978  80.2420014
  10.6479992 118.2069978  80.0110014  12.3819992 117.7459978  80.1330014
  11.2089992 116.6809978  81.6550014  12.0859992 116.0009978  81.6990014
  10.3479992 115.9799978  81.6310014  11.1949992 117.7389978  82.8160014
  10.8459992 117.1529978  83.6940014  10.3129992 118.4109978  82.7400014
  12.5609992 118.4129978  83.0340014  13.1109992 118.7069978  82.1140014
  13.1669992 117.6369978  83.5490014  12.5979992 119.5329978  84.1370014
  12.1809992 119.1369978  85.0870014  11.8929992 120.3859978  84.0400014
  13.6249992 119.8099978  84.4550014  84.5209992 142.3069978  82.1350014
  85.4799992 142.2719978  82.6940014  83.9289992 141.4919978  82.6040014
  83.9479992 143.2509978  82.2600014  84.7629992 141.8209978  80.6990014
  85.0349992 142.6859978  80.0580014  85.6159992 141.1109978  80.6700014
  83.5879992 141.1089978  79.9710014  82.9369992 140.5049978  80.6380014
  82.9079992 141.8919978  79.5720014  84.0229992 140.2309978  78.7980014
  84.7529992 139.5059978  79.2180014  83.1839992 139.6799978  78.3220014
  84.7109992 140.9509978  77.6260014  84.0669992 141.8199978  77.3750014
  85.6449992 141.4359978  77.9820014  84.9489992 139.9599978  76.5180014
  85.8649992 139.3719978  76.7410014  84.1149992 139.2339978  76.6270014
  85.0059992 140.4309978  75.0200014  84.0969992 141.0339978  74.8090014
  85.9129992 141.0659978  74.9290014  85.1709992 139.2869978  74.0260014
  85.3909992 139.6229978  72.9900014  86.1489992 138.8819978  74.3660014
  83.9899992 138.3639978  74.0650014  84.0449992 137.5689978  73.2910014
  83.9579992 137.7929978  75.0180014  82.6479992 139.0009978  73.8860014
  81.8379992 138.3029978  74.1850014  82.5149992 139.9379978  74.4680014
  82.4459992 139.3399978  72.3940014  83.3299992 139.8229978  71.9260014
  82.1659992 138.4099978  71.8550014  81.1589992 140.1419978  72.1640014
  80.3859992 139.6259978  72.7730014  81.3289992 141.1589978  72.5800014
  80.6699992 140.3369978  70.6840014  81.4449992 140.9869978  70.2240014
  80.3739992 139.4869978  70.0320014  79.3169992 141.1589978  70.7040014
  78.4829992 140.5019978  71.0310014  79.3399992 141.9779978  71.4540014
  78.9309992 141.7009978  69.2360014  78.9939992 140.8769978  68.4930014
  77.8529992 141.9629978  69.2780014  79.9089992 142.8379978  68.9220014
  80.4019992 143.5459978  69.7490014  80.0609992 142.9949978  67.5860014
  80.6459992 144.2269978  67.2500014  80.4969992 144.5069978  66.1850014
  80.1979992 145.1149978  67.7440014  82.2559992 144.2579978  67.1940014
  82.7759992 145.1719978  66.8340014  82.8139992 143.2299978  66.1970014
  82.0979992 142.3799978  66.1710014  82.7029992 143.6279978  65.1660014
  84.2119992 142.8659978  66.4060014  84.7999992 141.4569978  65.9390014
  83.6469992 140.8079978  65.0990014  83.9989992 139.6269978  64.3970014
  84.9379992 139.1409978  64.7370014  83.0919992 138.9879978  64.4480014
  84.1499992 139.7959978  62.8610014  85.0069992 140.4279978  62.6790014
  84.2579992 138.8409978  62.3690014  83.0709992 140.5339978  62.0810014
  81.8179992 139.6289978  62.1960014  81.9919992 138.7779978  61.5540014
  81.7349992 139.2909978  63.2180014  80.9659992 140.1579978  61.7970014
  82.8099992 141.9489978  62.5560014  83.7009992 142.5519978  62.4620014
  81.9949992 142.3419978  61.9680014  82.5209992 141.8129978  63.5870014
  83.6009992 140.6199978  60.7200014  82.8369992 141.0849978  60.1150014
  83.8519992 139.6289978  60.3740014  84.4939992 141.2229978  60.6380014
  85.9939992 141.7529978  65.0670014  85.0189992 140.6209978  67.1840014
  82.8029992 144.0079978  68.5220014  82.8549992 145.0539978  69.3070014
  82.6199992 146.2379978  69.0110014  83.2949992 144.6709978  70.7540014
  84.3979992 144.7679978  70.8380014  83.1379992 143.6029978  71.0160014
  82.6929992 145.6059978  71.7050014  81.6229992 145.6959978  71.4220014
  83.1879992 146.5959978  71.6090014  82.8169992 145.0149978  73.1500014
  83.8779992 145.2399978  73.3920014  82.8879992 143.9069978  73.1130014
  81.9129992 145.5899978  74.3050014  82.0619992 146.6899978  74.3580014
  82.2669992 145.0179978  75.1890014  80.4369992 145.2859978  74.0620014
  80.2279992 145.6499978  73.0340014  79.7799992 145.9609978  74.6510014
  79.8919992 143.8929978  74.2880014  80.3999992 143.1619978  73.6250014
  78.8569992 143.8379978  73.8880014  79.9759992 143.3929978  75.7230014
  81.0339992 143.0629978  75.8070014  79.4019992 142.4549978  75.8830014
  79.6289992 144.3899978  76.7750014  80.1359992 145.3659978  76.7740014
  78.7059992 144.2329978  77.7400014  78.6479992 144.9889978  78.5370014
  77.8149992 143.0639978  77.9380014  77.5389992 142.6709978  76.9360014
  76.9039992 143.4329978  78.4550014  78.5319992 142.0469978  78.9190014
  79.5389992 141.7599978  78.5470014  78.0139992 141.0659978  78.8590014
  78.6359992 142.6569978  80.3660014  77.7779992 143.3529978  80.4790014
  79.6089992 143.1659978  80.5340014  78.3739992 141.6769978  81.5500014
  77.4299992 141.1209978  81.3610014  78.4729992 142.3959978  82.3910014
  79.5929992 140.7059978  81.7320014  80.4029992 141.3659978  82.1100014
  79.7339992 140.2699978  80.7200014  79.3239992 139.5269978  82.6430014
  78.5269992 138.9189978  82.1640014  78.8629992 139.7449978  83.6300014
  80.5329992 138.6319978  82.9470014  81.0049992 138.2599978  82.0130014
  80.2099992 137.7689978  83.5670014  81.5839992 139.3999978  83.7080014
  81.9709992 140.2259978  83.0730014  82.4699992 138.7829978  83.9670014
  81.2359992 139.8369978  84.6680014 141.3739992 105.8159978  83.5380014
 140.6529992 106.6449978  83.7020014 142.0059992 105.9469978  82.6340014
 141.9679992 105.5069978  84.4240014 140.5289992 104.5839978  83.2370014
 141.1619992 103.7309978  82.9100014 139.9779992 104.1599978  84.1040014
 139.6149992 104.9439978  82.0870014 138.8369992 105.6269978  82.4910014
 140.3549992 105.2659978  81.3240014 139.0159992 103.7539978  81.4860014
 139.7649992 102.9329978  81.4900014 138.1799992 103.4489978  82.1510014
 138.3919992 104.0119978  80.1550014 137.5449992 104.7309978  80.1560014
 139.0259992 104.4979978  79.3820014 137.8369992 102.6959978  79.4460014
 138.5869992 101.8779978  79.4950014 136.9649992 102.4969978  80.1060014
 137.3849992 102.8309978  77.9560014 138.2809992 102.9819978  77.3170014
 136.8259992 101.9339978  77.6140014 136.4579992 104.0259978  77.7130014
 135.4979992 104.0149978  78.2740014 137.0429992 104.9319978  77.9770014
 136.0189992 104.0779978  76.2150014 135.5819992 103.0679978  76.0590014
 135.2329992 104.8339978  76.0010014 137.0769992 104.2299978  75.0880014
 137.5039992 105.2509978  75.1830014 137.7629992 103.3669978  75.2260014
 136.6719992 104.0669978  73.6380014 136.1649992 103.0799978  73.6970014
 135.8089992 104.6129978  73.2000014 137.7709992 103.6639978  72.6520014
 138.4819992 104.5149978  72.5920014 138.3519992 102.8649978  73.1600014
 137.2179992 103.2829978  71.2460014 138.0749992 103.1109978  70.5610014
 136.5599992 102.3879978  71.2590014 136.4619992 104.4649978  70.7550014
 135.4429992 104.6109978  71.1740014 137.1239992 105.3409978  70.9190014
 136.1579992 104.4449978  69.2520014 137.0749992 104.2809978  68.6470014
 135.5519992 103.5419978  69.0250014 135.2149992 105.5449978  68.7610014
 134.1079992 105.8519978  69.2000014 135.8419992 106.2249978  67.8910014
 135.2759992 107.5279978  67.5880014 134.3189992 107.3899978  67.0400014
 135.0589992 108.0639978  68.5370014 136.1739992 108.2309978  66.5680014
 135.8509992 109.2939978  66.5720014 136.1629992 107.5399978  65.1860014
 136.2369992 106.4339978  65.2680014 135.1649992 107.7439978  64.7420014
 137.1129992 108.1319978  64.3680014 138.2089992 107.2989978  63.6040014
 138.4559992 105.9669978  64.4920014 139.5689992 105.9839978  65.3700014
 139.7069992 106.9169978  65.9570014 139.2829992 105.2209978  66.1260014
 140.9229992 105.7199978  64.7140014 140.9089992 106.4429978  63.9130014
 141.7449992 105.8549978  65.4020014 141.1809992 104.3229978  64.1480014
 140.1379992 103.8869978  63.2260014 140.3639992 102.9999978  62.6520014
 139.2259992 103.8699978  63.8050014 140.0129992 104.5989978  62.4240014
 142.5199992 104.4589978  63.3750014 143.2569992 104.9929978  63.9560014
 142.9269992 103.4919978  63.1150014 142.2399992 104.9049978  62.4320014
 141.4259992 103.4499978  65.3350014 142.1429992 103.9039978  66.0040014
 141.7119992 102.4989978  64.9090014 140.5429992 103.3259978  65.9450014
 137.7249992 106.8599978  62.2780014 139.4399992 108.1319978  63.5960014
 137.5789992 108.3009978  67.0280014 137.9499992 109.0819978  68.0000014
 137.1669992 109.7189978  68.7200014 139.4669992 109.0979978  68.2080014
 139.6659992 110.1809978  68.3540014 140.0849992 108.5939978  67.4340014
 139.7949992 108.4809978  69.6160014 139.0409992 108.6689978  70.4110014
 140.8359992 108.7929978  69.8460014 139.7779992 106.9109978  69.6150014
 140.5699992 106.5999978  68.9000014 138.7889992 106.5959978  69.2210014
 140.0279992 106.2279978  70.9490014 140.0019992 105.1229978  70.8310014
 139.1519992 106.3879978  71.6130014 141.3949992 106.4699978  71.6850014
 141.4879992 107.5719978  71.7920014 142.2209992 106.0909978  71.0460014
 141.5719992 105.7539978  73.0150014 142.6299992 105.6169978  73.3260014
 141.0799992 104.7639978  72.9050014 140.7379992 106.4419978  74.0870014
 139.6589992 106.3239978  73.8510014 140.8239992 107.5459978  73.9980014
 140.9909992 105.9079978  75.4680014 141.6119992 104.9999978  75.4550014
 140.6539992 106.5779978  76.6100014 140.8389992 106.1339978  77.6000014
 139.9379992 107.8729978  76.8540014 139.9179992 108.6129978  76.0260014
 140.3869992 108.3819978  77.7330014 138.4399992 107.6489978  77.1920014
 138.1559992 106.6599978  77.6100014 137.8349992 107.6419978  76.2600014
 137.8329992 108.7119978  78.1090014 136.7359992 108.5389978  78.1230014
 137.9709992 109.7679978  77.7940014 138.3769992 108.5149978  79.6090014
 139.3529992 109.0249978  79.7540014 138.4149992 107.4129978  79.7490014
 137.4959992 109.0529978  80.7680014 138.2759992 109.0979978  81.5580014
 136.8409992 108.2099978  81.0770014 136.8439992 110.4649978  80.7630014
 135.8689992 110.3719978  80.2380014 137.4719992 111.2989978  80.3810014
 136.3079992 110.9679978  82.1510014 137.2359992 111.0449978  82.7560014
 135.7079992 110.1209978  82.5490014 135.5069992 112.2739978  82.1540014
 136.0319992 113.1429978  81.7040014 135.3789992 112.5769978  83.2160014
 134.5179992 112.1299978  81.6680014 117.1229992  11.9839978  84.9870014
 117.7559992  11.2189978  84.4870014 117.5119992  12.1889978  86.0070014
 117.2819992  12.9419978  84.4470014 115.6899992  11.4939978  85.0450014
 115.4959992  10.6539978  85.7450014 115.1059992  12.3199978  85.5030014
 115.0489992  11.0009978  83.6990014 115.5799992  10.1409978  83.2380014
 114.0109992  10.6529978  83.8890014 115.1249992  12.1089978  82.7390014
 115.0039992  13.1039978  83.2180014 115.9819992  12.2019978  82.0390014
 113.8889992  12.0189978  81.6810014 112.9459992  11.9199978  82.2610014
 113.8019992  13.0009978  81.1680014 114.1049992  10.7879978  80.6770014
 114.2489992   9.9199978  81.3550014 113.1089992  10.5239978  80.2610014
 115.0939992  11.0319978  79.5260014 114.6819992  11.8249978  78.8650014
 116.0499992  11.3749978  79.9770014 115.4499992   9.6399978  78.9010014
 116.0639992   8.9839978  79.5540014 114.4999992   9.1459978  78.6030014
 116.2889992   9.9159978  77.5990014 115.7469992  10.7009978  77.0300014
 117.2729992  10.3659978  77.8530014 116.5329992   8.6299978  76.8640014
 117.1059992   7.9029978  77.4800014 115.5459992   8.1349978  76.7440014
 117.2149992   8.7279978  75.4500014 118.1589992   9.3089978  75.5180014
 117.5299992   7.7379978  75.0540014 116.3449992   9.4409978  74.4330014
 115.3039992   9.0819978  74.2880014 116.4159992  10.5349978  74.6110014
 117.0089992   9.4099978  73.0710014 118.0949992   9.6289978  73.1540014
 116.9499992   8.3629978  72.7050014 116.4879992  10.4529978  71.9920014
 116.6589992  11.4439978  72.4660014 117.0799992  10.3089978  71.0640014
 114.9759992  10.4029978  71.7240014 114.5949992   9.3599978  71.7270014
 114.4519992  10.9689978  72.5240014 114.5759992  11.1309978  70.4240014
 114.7529992  12.3089978  70.2950014 114.0109992  10.3139978  69.6990014
 113.4669992  10.7729978  68.4780014 112.8229992   9.9459978  68.1090014
 112.8369992  11.6749978  68.6320014 114.6839992  11.0069978  67.5080014
 115.3239992  11.8149978  67.9220014 114.2139992  11.4979978  66.0650014
 113.5789992  12.3919978  66.2430014 115.1079992  11.6869978  65.4340014
 113.4449992  10.4529978  65.4500014 112.6949992  10.6299978  64.0590014
 113.2989992   9.4699978  63.2810014 114.5279992   8.8709978  63.6810014
 115.1299992   8.5719978  62.7970014 115.1229992   9.5569978  64.3200014
 114.2719992   7.5859978  64.5040014 115.2329992   7.1789978  64.7820014
 113.8139992   7.8679978  65.4400014 113.3469992   6.4719978  64.0490014
 111.8769992   6.8809978  64.0820014 111.7159992   7.7539978  63.4670014
 111.1859992   6.1549978  63.6790014 111.6699992   7.0119978  65.1340014
 113.7979992   6.0409978  62.6340014 113.1829992   5.2879978  62.1650014
 113.5939992   6.8449978  61.9420014 114.7989992   5.6479978  62.7390014
 113.4229992   5.2729978  64.9470014 114.4679992   5.0019978  64.9430014
 112.7589992   4.5199978  64.5510014 113.0819992   5.3859978  65.9660014
 111.2459992  10.3499978  64.4140014 113.0109992  11.9089978  63.4050014
 115.4069992   9.7829978  67.4910014 116.6479992   9.8839978  67.0410014
 117.2239992  10.8779978  66.6980014 117.0499992   8.3859978  66.9670014
 118.1449992   8.2099978  67.0320014 116.9599992   8.0209978  65.9220014
 116.3759992   7.4849978  68.0430014 115.2699992   7.4819978  67.9380014
 116.6019992   7.9489978  69.0260014 116.7139992   5.9869978  68.0550014
 117.3799992   5.7109978  67.2100014 115.8419992   5.2979978  68.0570014
 117.4049992   5.4899978  69.3330014 118.3319992   6.1009978  69.3300014
 117.6059992   4.3979978  69.2920014 116.5809992   5.8779978  70.6130014
 115.5569992   5.6179978  70.2680014 116.6499992   6.9589978  70.8610014
 116.9629992   5.1309978  71.8900014 117.9709992   5.5309978  72.1340014
 117.1279992   4.0499978  71.6930014 115.9849992   5.2289978  73.1320014
 115.7679992   6.3039978  73.3080014 116.4729992   4.7909978  74.0280014
 114.6499992   4.5569978  72.7800014 114.5869992   3.4639978  72.6670014
 113.4829992   5.2099978  72.7210014 112.6289992   4.5609978  72.4800014
 113.1339992   6.6719978  72.8570014 112.6059992   7.1129978  71.9850014
 114.0489992   7.2999978  72.8960014 112.1489992   6.8889978  73.9950014
 111.2649992   6.2169978  73.9610014 111.6829992   7.8839978  73.8360014
 112.7979992   6.7069978  75.4210014 113.4879992   7.5289978  75.7070014
 113.4189992   5.7859978  75.4370014 111.7909992   6.5069978  76.5490014
 111.2799992   5.5249978  76.4590014 111.0929992   7.3619978  76.4230014
 112.4449992   6.4279978  78.0000014 113.1429992   7.2919978  78.0500014
 113.0729992   5.5139978  78.0600014 111.4389992   6.4559978  79.2700014
 110.6049992   5.7909978  78.9570014 110.9819992   7.4639978  79.3680014
 111.8979992   6.0709978  80.6510014 111.9579992   4.9799978  80.8540014
 111.2049992   6.3959978  81.4560014 113.2669992   6.6939978  81.0030014
 113.2369992   7.8039978  81.0110014 114.0689992   6.2709978  80.3620014
 113.7079992   6.4219978  81.9860014 133.4019992  30.8859978  82.6610014
 134.4789992  30.6169978  82.7110014 132.9789992  29.8709978  82.5050014
 133.2329992  31.3939978  83.6340014 133.1499992  31.7209978  81.4590014
 132.0709992  31.9699978  81.3680014 133.6849992  32.6559978  81.7280014
 133.7699992  31.1719978  80.1630014 134.8519992  30.9839978  80.3300014
 133.3909992  30.1569978  79.9160014 133.4869992  32.1589978  79.0130014
 132.3859992  32.0859978  78.8860014 133.8989992  33.1549978  79.2830014
 134.2009992  31.7449978  77.7340014 135.2989992  31.9149978  77.7360014
 134.0579992  30.6509978  77.6060014 133.6189992  32.6399978  76.6280014
 132.5329992  32.8259978  76.7700014 134.0109992  33.6779978  76.6690014
 133.8549992  32.0379978  75.2060014 134.8339992  31.5129978  75.1960014
 133.0229992  31.3399978  74.9750014 133.8099992  33.0909978  74.0750014
 132.8379992  33.6269978  74.0220014 134.6289992  33.7629978  74.4100014
 134.2719992  32.5109978  72.7090014 134.3119992  33.2029978  71.8410014
 135.3069992  32.1139978  72.7830014 133.3659992  31.4419978  72.2490014
 133.3129992  30.5929978  72.9630014 132.3379992  31.8139978  72.0510014
 133.9499992  30.8019978  70.9370014 133.9639992  31.5849978  70.1480014
 135.0169992  30.5289978  71.0780014 133.1979992  29.5479978  70.4940014
 133.8689992  28.6699978  70.3800014 132.5639992  29.3079978  71.3740014
 132.3279992  29.5699978  69.2310014 133.0399992  29.5289978  68.3790014
 131.7259992  28.6569978  69.0330014 131.3889992  30.7519978  69.1130014
 130.8749992  30.9609978  70.0760014 132.0339992  31.6499978  69.0020014
 130.5409992  30.7569978  67.8570014 131.1079992  30.4759978  66.9440014
 129.6969992  30.0339978  67.8840014 129.8379992  32.1239978  67.5900014
 128.8609992  32.4269978  68.3120014 130.3559992  32.8039978  66.5790014
 129.9219992  34.1389978  66.3450014 129.9409992  34.3439978  65.2530014
 128.8989992  34.3589978  66.7190014 130.8409992  35.1909978  67.1040014
 130.5609992  36.2359978  66.8540014 132.2859992  34.9439978  66.6450014
 132.2879992  35.2089978  65.5660014 132.9649992  35.7129978  67.0730014
 132.7219992  33.5889978  66.9540014 134.1529992  33.1539978  66.3630014
 134.2779992  33.7089978  64.8560014 135.4149992  33.4099978  64.1360014
 136.2299992  34.1409978  64.3260014 135.7119992  32.3459978  64.2520014
 135.0739992  33.7419978  62.6310014 134.6589992  34.7359978  62.5600014
 136.0619992  33.6849978  62.1990014 134.2729992  32.7819978  61.7670014
 134.4529992  31.3379978  62.1930014 135.5249992  31.2439978  62.1030014
 134.2729992  31.1859978  63.2470014 133.8999992  30.6809978  61.5370014
 132.8139992  33.1569978  61.9050014 132.5119992  34.0119978  61.3190014
 132.0509992  32.4379978  61.6420014 132.6729992  33.3569978  62.9560014
 134.6659992  32.9689978  60.3230014 134.8249992  34.0249978  60.1650014
 133.8949992  32.4649978  59.7590014 135.5149992  32.3739978  60.0190014
 135.1899992  33.8239978  67.1080014 134.1939992  31.6629978  66.2700014
 130.8519992  35.0309978  68.5270014 131.6029992  35.7339978  69.3690014
 132.3359992  36.6779978  69.1210014 131.2769992  35.4959978  70.8220014
 130.8539992  36.4389978  71.2300014 132.2009992  35.2969978  71.4070014
 130.3099992  34.2649978  70.9680014 130.8509992  33.4679978  70.4150014
 129.3479992  34.4009978  70.4300014 130.0379992  33.8039978  72.3070014
 129.6439992  34.5419978  73.0380014 131.0409992  33.4959978  72.6720014
 129.1199992  32.5449978  72.5090014 129.4369992  31.7749978  71.7740014
 128.0969992  32.9559978  72.3740014 129.3869992  31.8699978  73.8650014
 130.3509992  31.3189978  73.8120014 128.5169992  31.1869978  73.9650014
 129.3679992  32.6659978  75.1920014 130.0719992  33.5069978  75.0150014
 129.7789992  31.9499978  75.9370014 127.9949992  33.2719978  75.6160014
 127.7339992  33.9039978  74.7390014 128.2539992  33.9169978  76.4820014
 126.9239992  32.3019978  75.9430014 126.6229992  31.5819978  75.1680014
 126.4779992  32.1249978  77.2290014 125.6809992  31.4029978  77.4600014
 126.9599992  32.8319978  78.4580014 126.1989992  33.5479978  78.8330014
 127.7689992  33.5709978  78.2710014 127.5539992  31.9149978  79.5520014
 128.4969992  31.4879978  79.1480014 126.8339992  31.0949978  79.7630014
 127.8429992  32.6309978  80.8480014 126.9749992  32.5139978  81.5310014
 127.9839992  33.6739978  80.4920014 129.2099992  32.3979978  81.4620014
 129.9329992  32.5299978  80.6280014 129.2889992  31.3289978  81.7530014
 129.5999992  33.4079978  82.6720014 130.5599992  33.0249978  83.0790014
 128.7749992  33.2699978  83.4030014 129.8419992  34.9119978  82.1900014
 128.9039992  35.4949978  82.3150014 130.0709992  34.9499978  81.1030014
 130.8879992  35.6099978  83.0270014 131.8729992  35.2389978  82.6710014
 130.8569992  35.2929978  84.0920014 130.9779992  37.1499978  82.7370014
 129.9599992  37.5809978  82.8490014 131.2649992  37.2449978  81.6680014
 131.6769992  37.6269978  83.4570014 109.6599992   2.1659978  80.8340014
 108.9219992   1.8929978  80.0500014 110.3099992   1.2729978  80.9590014
 110.2799992   3.0189978  80.4830014 108.8839992   2.5769978  82.0780014
 108.2269992   1.7789978  82.4840014 109.6579992   2.8109978  82.8400014
 107.8999992   3.7249978  81.9350014 107.1079992   3.5119978  81.1850014
 107.3209992   3.8309978  82.8770014 108.4299992   5.1489978  81.5640014
 109.2729992   5.4489978  82.2230014 108.8449992   4.8999978  80.5640014
 107.3919992   6.3299978  81.4820014 107.1209992   6.7019978  82.4930014
 107.9279992   7.1449978  80.9500014 106.1589992   6.0989978  80.5410014
 105.5299992   5.2499978  80.8860014 105.4349992   6.9379978  80.6250014
 106.4799992   5.8329978  79.0600014 107.0799992   6.6699978  78.6430014
 107.0999992   4.9239978  78.9070014 105.1849992   5.5729978  78.2760014
 104.5009992   4.9769978  78.9170014 104.7709992   6.5859978  78.0810014
 105.3289992   4.6949978  77.0800014 106.1619992   5.1969978  76.5430014
 105.6599992   3.6569978  77.2960014 104.0999992   4.7199978  76.1770014
 103.5219992   3.8569978  76.5730014 103.7139992   5.7479978  76.3450014
 104.3789992   4.5579978  74.6850014 105.3829992   4.9979978  74.5040014
 104.3279992   3.4689978  74.4750014 103.3069992   5.1249978  73.7780014
 102.3259992   4.7319978  74.1220014 103.1839992   6.1879978  74.0780014
 103.3449992   4.9029978  72.2680014 102.5129992   5.4839978  71.8150014
 104.2579992   5.2339978  71.7280014 103.2319992   3.4299978  71.9230014
 104.1259992   2.7839978  72.0600014 102.4089992   3.0359978  72.5570014
 102.7509992   3.0559978  70.4970014 102.5919992   1.9649978  70.6310014
 101.8979992   3.7249978  70.2550014 103.7309992   3.2869978  69.3650014
 104.6099992   2.4839978  69.0380014 103.4079992   4.3419978  68.6140014
 104.3459992   4.6909978  67.5300014 104.6209992   3.7739978  66.9670014
 103.8129992   5.3019978  66.7710014 105.5749992   5.4729978  67.9920014
 105.2749992   6.1319978  68.8350014 106.2309992   6.2469978  66.8950014
 105.4259992   6.6279978  66.2300014 106.7849992   7.1399978  67.2540014
 107.1379992   5.3349978  66.2080014 107.0159992   4.6519978  64.7870014
 106.1229992   3.3619978  65.1220014 106.8049992   2.1439978  65.1350014
 107.8219992   2.1469978  65.5820014 106.2229992   1.4889978  65.8180014
 106.8119992   1.4159978  63.7590014 107.4539992   1.9739978  63.0940014
 107.3109992   0.4609978  63.8370014 105.4269992   1.2969978  63.0080014
 104.8189992   2.6249978  62.5020014 104.6829992   3.1889978  63.4130014
 105.4689992   3.1819978  61.8440014 103.9319992   2.3839978  61.9350014
 105.5709992   0.3929978  61.7980014 105.4809992  -0.6490022  62.0670014
 104.7969992   0.6269978  61.0820014 106.5369992   0.5259978  61.3320014
 104.3899992   0.7679978  63.9450014 103.4849992   0.4319978  63.4610014
 104.2079992   1.4879978  64.7280014 104.8499992  -0.1380022  64.3130014
 106.3369992   5.6059978  63.9070014 108.3879992   4.3319978  64.3350014
 106.4299992   4.4209978  68.5370014 107.4189992   4.6829978  69.3530014
 107.7629992   5.7809978  69.7280014 108.2349992   3.3519978  69.6030014
 109.0179992   3.2069978  68.8290014 107.5319992   2.5159978  69.3970014
 108.8679992   3.4449978  71.0070014 108.8199992   4.4609978  71.4540014
 109.9579992   3.2419978  70.9440014 108.1569992   2.4809978  72.0550014
 108.4109992   1.4639978  71.6870014 107.0519992   2.5899978  72.1030014
 108.5919992   2.4679978  73.5110014 108.5409992   3.4099978  74.0980014
 109.6249992   2.0599978  73.4840014 107.9829992   1.3109978  74.3470014
 108.6199992   1.1339978  75.2400014 108.0579992   0.4379978  73.6630014
 106.5939992   1.4919978  74.8370014 105.9739992   2.0429978  74.0990014
 106.7279992   2.1519978  75.7210014 105.9799992   0.0789978  75.0800014
 106.6249992  -0.4340022  75.8250014 105.9159992  -0.4650022  74.1140014
 104.5889992   0.2119978  75.5720014 103.9209992   0.6579978  74.8210014
 104.1139992   0.0409978  76.8330014 103.0429992   0.2539978  76.9640014
 104.8169992  -0.3810022  78.0450014 105.6689992  -1.0680022  77.8520014
 104.1239992  -0.8260022  78.7900014 105.5679992   0.7489978  78.8540014
 106.0699992   1.3419978  78.0600014 106.3759992   0.3719978  79.5180014
 104.5979992   1.7639978  79.5340014 103.8489992   2.0639978  78.7700014
 105.0329992   2.7459978  79.8180014 103.8319992   1.1749978  80.8000014
 103.3199992   0.2199978  80.5540014 103.1209992   1.9729978  81.1060014
 104.6199992   0.7899978  82.0200014 105.0579992   1.6819978  82.5160014
 105.4119992   0.0939978  81.6700014 103.7639992   0.0589978  83.0690014
 103.3719992  -0.9170022  82.7110014 103.0569992   0.8629978  83.3650014
 104.4779992  -0.3120022  84.4470014 103.7009992  -0.5220022  85.2140014
 104.9729992   0.6419978  84.7310014 105.3039992  -1.5920022  84.4710014
 104.6769992  -2.5090022  84.4630014 105.8709992  -1.6750022  85.4220014
 106.0819992  -1.7840022  83.7020014  75.4649992 141.9509978  85.3460014
  76.4459992 141.8009978  84.8450014  74.7599992 141.2299978  84.8780014
  75.5519992 141.6579978  86.4140014  75.0379992 143.4189978  85.3450014
  74.0069992 143.5429978  85.7410014  75.7599992 143.9249978  86.0210014
  75.2579992 144.1449978  84.0130014  75.1859992 145.2489978  84.1110014
  76.3279992 143.9639978  83.7720014  74.4169992 143.6919978  82.8220014
  74.5569992 142.6149978  82.5860014  73.3739992 143.7709978  83.1960014
  74.6409992 144.4609978  81.5420014  74.5339992 145.5639978  81.6160014
  75.7189992 144.3009978  81.3230014  73.7519992 144.0159978  80.3670014
  73.8159992 142.9089978  80.3030014  72.7259992 144.2869978  80.6950014
  74.1589992 144.6839978  79.0750014  75.2199992 144.4939978  78.8080014
  73.5889992 144.2069978  78.2500014  73.9319992 146.1899978  78.9830014
  72.8909992 146.3659978  79.3280014  74.6959992 146.6989978  79.6100014
  74.3309992 146.8789978  77.6770014  73.6009992 146.5479978  76.9080014
  74.1909992 147.9769978  77.7760014  75.7809992 146.5279978  77.2990014
  76.5379992 146.5639978  78.1120014  75.7989992 145.4319978  77.1170014
  76.2829992 147.3669978  76.1150014  76.1249992 148.4079978  76.4670014
  77.3609992 147.2019978  75.9030014  75.5569992 146.9319978  74.8030014
  75.8009992 145.8829978  74.5280014  74.4699992 146.8789978  75.0280014
  75.9229992 147.8099978  73.5610014  75.6549992 148.8809978  73.6840014
  77.0119992 147.8309978  73.3420014  75.1069992 147.3639978  72.2270014
  75.2189992 146.3119978  71.8880014  74.0339992 147.5089978  72.4730014
  75.4409992 148.2659978  71.0920014  74.6289992 148.3529978  70.3380014
  75.5729992 149.2699978  71.5510014  76.7269992 147.7929978  70.3120014
  77.7439992 147.3599978  70.8720014  76.5659992 147.8719978  69.0060014
  77.6819992 147.3409978  68.1950014  77.7579992 148.0109978  67.3120014
  78.6579992 147.5109978  68.6980014  77.3379992 145.9289978  67.6350014
  78.0639992 145.8069978  66.8030014  75.9359992 145.9079978  66.9210014
  75.1769992 146.1969978  67.6780014  75.8989992 146.7059978  66.1480014
  75.5769992 144.6459978  66.3940014  74.5189992 144.5729978  65.1820014
  75.2969992 144.1599978  63.8960014  76.1169992 142.9849978  63.8420014
  75.7819992 142.3079978  64.6570014  75.9299992 142.4349978  62.8960014
  77.6929992 143.3299978  63.8240014  78.0729992 143.5959978  64.7990014
  78.0989992 142.3659978  63.5540014  78.2939992 144.3989978  63.0040014
  79.8189992 144.3259978  63.0050014  80.2389992 145.2139978  62.5570014
  80.0729992 144.3809978  64.0540014  80.0699992 143.4359978  62.4470014
  77.8909992 144.2169978  61.4860014  78.2389992 145.0259978  60.8600014
  78.4859992 143.4219978  61.0620014  76.8189992 144.0929978  61.4310014
  77.7659992 145.7369978  63.4310014  76.9039992 146.0029978  62.8370014
  78.5069992 146.4869978  63.1940014  77.5109992 145.6839978  64.4790014
  73.5429992 143.5299978  65.5820014  74.0459992 145.9239978  64.8600014
  77.3179992 144.8979978  68.6870014  78.5189992 144.3409978  68.9310014
  79.5519992 144.6729978  68.3480014  78.3709992 143.3469978  70.1280014
  79.3689992 142.9139978  70.3530014  77.6339992 142.5579978  69.8670014
  77.9039992 144.0469978  71.4240014  76.8829992 144.4349978  71.2200014
  78.6849992 144.8329978  71.4920014  77.9539992 143.0749978  72.6750014
  79.0189992 142.7669978  72.7360014  77.4159992 142.1249978  72.4670014
  77.5129992 143.7289978  74.0060014  76.4419992 144.0119978  73.9240014
  78.0589992 144.6679978  74.2380014  77.5669992 142.8009978  75.2340014
  77.3099992 143.3749978  76.1490014  78.6199992 142.5359978  75.4700014
  76.6779992 141.5679978  75.1040014  77.0329992 140.8109978  74.3730014
  75.7069992 142.0079978  74.7910014  76.3799992 140.7839978  76.3900014
  75.9349992 139.7859978  76.1890014  75.6879992 141.3429978  77.0560014
  77.6349992 140.4559978  77.2370014  78.4539992 139.9579978  76.6970014
  77.9599992 140.8549978  78.5230014  78.8349992 140.5259978  79.1030014
  77.0579992 141.7759978  79.3270014  76.9919992 141.4539978  80.3880014
  75.9869992 141.8169978  79.0330014  77.7289992 143.1869978  79.3250014
  77.0889992 143.9299978  79.8470014  77.7679992 143.6879978  78.3330014
  79.0859992 143.1039978  80.0540014  79.7819992 142.5919978  79.3560014
  78.8449992 142.5259978  80.9720014  79.8849992 144.4049978  80.2520014
  80.0639992 144.9519978  79.3020014  80.9159992 144.2529978  80.6390014
  79.2129992 145.4759978  81.1010014  78.1199992 145.4719978  80.9010014
  79.6099992 146.4609978  80.7750014  79.3759992 145.2059978  82.5850014
  80.4509992 145.3319978  82.8340014  78.9809992 144.1819978  82.7600014
  78.4979992 146.1309978  83.5060014  78.6439992 145.7689978  84.5460014
  77.4449992 145.9679978  83.1920014  78.8399992 147.5979978  83.4090014
  78.6359992 147.9999978  82.3940014  79.9209992 147.8489978  83.4780014
  78.3089992 148.1779978  84.1940014   8.4339992  32.0899978  84.9440014
   7.3859992  32.4479978  85.0250014   9.1169992  32.9439978  85.1420014
   8.5979992  31.3859978  85.7880014   8.6879992  31.4749978  83.5630014
   9.0269992  32.1909978  82.7840014   9.5469992  30.7699978  83.5760014
   7.5999992  30.5799978  82.9920014   7.2759992  29.7409978  83.6440014
   6.6439992  31.1289978  82.8550014   7.8909992  29.9259978  81.5980014
   8.8269992  29.3409978  81.7250014   7.0239992  29.2489978  81.4390014
   8.0669992  30.9289978  80.4180014   7.1129992  31.4239978  80.1360014
   8.8229992  31.6269978  80.8370014   8.6639992  30.2999978  79.1250014
   9.6709992  29.8819978  79.3380014   7.9749992  29.4469978  78.9450014
   8.6669992  31.2489978  77.9060014   7.6369992  31.5659978  77.6360014
   9.3619992  32.1139978  77.9610014   9.2129992  30.5999978  76.6290014
   9.4519992  31.3859978  75.8810014  10.0699992  29.9709978  76.9510014
   8.1139992  29.8279978  75.8980014   7.5259992  29.2259978  76.6230014
   7.4179992  30.5269978  75.3870014   8.5999992  29.0329978  74.6360014
   9.5989992  28.5909978  74.8370014   7.8929992  28.1759978  74.6170014
   8.5809992  29.7449978  73.3170014   7.5679992  30.1709978  73.1500014
   9.3039992  30.5809978  73.2030014   8.7779992  28.7359978  72.1550014
   9.7939992  28.3129978  72.3080014   8.0239992  27.9199978  72.1670014
   8.7839992  29.5329978  70.9100014   7.8909992  30.1889978  70.8270014
   9.7569992  30.0689978  70.8860014   8.8469992  28.6689978  69.6180014
   9.7439992  28.0249978  69.7400014   7.8989992  28.0989978  69.5230014
   9.0139992  29.5789978  68.3760014   9.5809992  30.4839978  68.6810014
   9.5669992  29.0319978  67.5830014   7.6919992  29.9149978  67.6910014
   6.5949992  29.3629978  67.7290014   7.9439992  30.9629978  66.9070014
   6.8929992  31.7779978  66.4140014   6.1789992  31.1549978  65.8340014
   6.3239992  32.1599978  67.2890014   7.3949992  32.9819978  65.5930014
   6.4539992  33.5179978  65.3450014   7.9769992  32.5599978  64.2260014
   7.1739992  32.1389978  63.5840014   8.2949992  33.5029978  63.7310014
   9.1509992  31.7439978  64.3230014   9.1079992  30.3639978  63.5460014
  10.6919992  29.7719978  63.5880014  11.1349992  29.3709978  64.8570014
  10.9749992  30.2219978  65.5530014  10.8029992  28.3679978  65.1980014
  12.6699992  29.2359978  64.6560014  13.0599992  28.7909978  65.5600014
  12.8219992  28.5129978  63.8690014  13.5459992  30.4799978  64.3430014
  13.0709992  31.2179978  63.0710014  12.1359992  31.6939978  63.3270014
  13.7969992  31.9909978  62.8640014  12.9829992  30.4769978  62.2910014
  13.3309992  31.3889978  65.4650014  12.2829992  31.5619978  65.6570014
  13.6309992  30.9439978  66.4020014  13.7759992  32.3379978  65.2020014
  14.9199992  30.0299978  64.1620014  15.2259992  29.5419978  65.0760014
  15.6129992  30.8489978  64.2860014  15.0509992  29.3839978  63.3070014
   8.2539992  29.4249978  64.3380014   8.7319992  30.6829978  62.1560014
   8.3959992  33.7099978  66.3180014   7.9349992  34.8439978  66.9180014
   6.7819992  35.2049978  66.9070014   9.0779992  35.4499978  67.6780014
   9.0839992  36.4819978  67.2650014  10.0009992  34.9199978  67.3600014
   8.6829992  35.3299978  69.1800014   9.0039992  34.3169978  69.5020014
   7.6049992  35.4029978  69.4410014   9.3289992  36.5659978  69.9070014
   8.7839992  37.4619978  69.5410014  10.4149992  36.5949978  69.6760014
   9.2009992  36.4729978  71.4420014   8.1499992  36.4339978  71.8000014
   9.5959992  37.3949978  71.9210014   9.9519992  35.3319978  72.0450014
  11.0189992  35.4909978  71.7800014   9.5809992  34.4069978  71.5560014
   9.8019992  34.9839978  73.5370014   8.7499992  35.2379978  73.7910014
  10.4379992  35.6439978  74.1640014  10.3049992  33.5389978  73.8020014
   9.7609992  32.9659978  73.0210014   9.9849992  33.1919978  74.8080014
  11.7839992  33.2609978  73.5310014  12.0209992  32.5479978  72.7270014
  12.8229992  33.8989978  74.0910014  13.8209992  33.6099978  73.7280014
  13.0059992  34.9759978  75.0680014  12.3809992  35.8319978  74.7360014
  14.0369992  35.3839978  74.9950014  12.8429992  34.6319978  76.5520014
  13.3299992  35.4569978  77.1150014  13.4919992  33.7389978  76.6800014
  11.4589992  34.4879978  77.1220014  10.9049992  33.6549978  76.6380014
  10.9639992  35.4669978  76.9450014  11.4139992  34.2839978  78.6100014
  10.3719992  34.1419978  78.9680014  11.8459992  35.1359978  79.1770014
  12.1989992  33.0429978  79.0480014  13.2869992  33.2649978  79.0370014
  12.0299992  32.2479978  78.2910014  12.0549992  32.6349978  80.5010014
  10.9669992  32.5509978  80.7110014  12.3929992  33.4229978  81.2080014
  12.8599992  31.3899978  80.8320014  13.9079992  31.7089978  80.6460014
  12.5539992  30.5489978  80.1740014  12.7239992  30.9919978  82.2920014
  11.7159992  30.6979978  82.6570014  13.0139992  31.8699978  82.9090014
  13.4639992  30.1719978  82.4080014  34.1389992   8.4489978  80.1140014
  33.5459992   7.5589978  80.4150014  33.5909992   8.8469978  79.2330014
  34.0259992   9.0959978  81.0100014  35.6639992   8.1589978  79.8120014
  36.2609992   8.1409978  80.7480014  35.8049992   7.1739978  79.3180014
  36.3439992   9.2579978  79.0170014  35.9019992  10.2479978  79.2590014
  37.4399992   9.2069978  79.1950014  36.2729992   9.1319978  77.4480014
  35.2229992   8.9949978  77.1110014  36.7569992  10.0809978  77.1320014
  37.1609992   8.0119978  76.8490014  38.1729992   8.2049978  77.2670014
  36.6949992   7.0399978  77.1200014  37.3949992   8.1829978  75.2770014
  37.9429992   9.1199978  75.0370014  38.0099992   7.2649978  75.1630014
  36.1549992   8.1029978  74.3970014  35.5609992   7.1749978  74.5410014
  35.5449992   8.9229978  74.8310014  36.4699992   8.1979978  72.8650014
  36.9699992   9.1759978  72.6950014  37.1069992   7.3249978  72.6070014
  35.2219992   8.1749978  71.9680014  34.5849992   7.3139978  72.2620014
  34.6449992   9.0919978  72.2150014  35.5669992   7.9629978  70.4480014
  36.4399992   8.5779978  70.1430014  36.0109992   6.9569978  70.2880014
  34.3039992   8.3619978  69.5740014  33.8709992   9.2939978  69.9980014
  34.6999992   8.6479978  68.5760014  33.2699992   7.2369978  69.4680014
  33.8489992   6.3759978  69.0710014  32.9369992   7.0679978  70.5140014
  32.1699992   7.5579978  68.4110014  32.5979992   7.8629978  67.4320014
  31.5439992   6.6769978  68.1530014  31.1469992   8.5919978  69.0000014
  30.7869992   8.1779978  69.9660014  31.6159992   9.5679978  69.2480014
  29.9879992   8.8779978  68.0820014  29.4179992   7.9649978  67.8020014
  29.2659992   9.6149978  68.4940014  30.5529992   9.5439978  66.7500014
  30.3609992   9.0789978  65.6470014  31.4239992  10.5529978  67.0820014
  32.3189992  11.0619978  65.9870014  32.9769992  10.2329978  65.6490014
  31.6869992  11.5139978  65.1930014  33.2569992  12.1549978  66.5890014
  32.6819992  12.9729978  67.0740014  33.9859992  12.8109978  65.3640014
  33.2699992  13.2979978  64.6690014  34.5779992  13.6209978  65.8410014
  34.8629992  11.8779978  64.6930014  35.8999992  12.4069978  63.4630014
  36.6199992  11.0269978  63.0770014  35.8629992   9.8409978  62.9420014
  34.8839992  10.1809978  62.5420014  36.3749992   9.1799978  62.2110014
  35.8809992   8.9929978  64.2290014  35.4629992   9.6879978  64.9420014
  35.2019992   8.1579978  64.1390014  37.1749992   8.3089978  64.7120014
  36.8929992   7.5059978  65.9480014  36.1219992   6.7609978  65.8190014
  37.7919992   6.9619978  66.1980014  36.6099992   8.1549978  66.7640014
  37.9309992   7.5059978  63.6450014  38.1179992   8.1889978  62.8300014
  38.7869992   7.1009978  64.1640014  37.3459992   6.6759978  63.2760014
  38.0659992   9.4179978  65.2850014  37.7069992   9.9459978  66.1560014
  38.0809992  10.1649978  64.5050014  39.0399992   8.9899978  65.4680014
  35.2149992  12.9349978  62.3020014  36.7759992  13.3249978  64.2100014
  34.1959992  11.5549978  67.4010014  35.0299992  12.4469978  67.9960014
  34.7769992  13.6189978  68.1550014  36.3509992  11.7769978  68.4830014
  37.0069992  11.4219978  67.6600014  36.1869992  10.8419978  69.0600014
  37.2019992  12.7379978  69.2300014  36.5859992  13.1129978  70.0750014
  37.4119992  13.5789978  68.5350014  38.5499992  12.2379978  69.8440014
  39.2179992  13.0959978  70.0730014  39.0939992  11.7739978  68.9930014
  38.5009992  11.1999978  71.0070014  39.5279992  10.7759978  70.9910014
  37.7979992  10.3589978  70.8260014  38.3049992  11.6719978  72.5200014
  39.2219992  12.2519978  72.7600014  38.2989992  10.8239978  73.2380014
  36.9199992  12.2599978  72.7510014  36.1359992  11.5659978  72.3790014
  36.8249992  13.2289978  72.2150014  36.4459992  12.6799978  74.1490014
  37.3299992  13.2309978  74.5350014  36.3169992  11.7639978  74.7640014
  35.1259992  13.4749978  74.2120014  34.9529992  14.1809978  73.3860014
  34.1439992  13.1729978  75.0850014  33.2369992  13.7939978  75.0790014
  34.1019992  12.0639978  76.1020014  35.0889992  11.7359978  76.4930014
  33.7899992  11.1869978  75.4950014  33.1069992  12.4049978  77.3240014
  32.7569992  11.4539978  77.7790014  32.1069992  12.7899978  77.0320014
  33.7249992  13.3969978  78.3450014  34.2149992  14.2349978  77.8060014
  34.5969992  12.9089978  78.8300014  32.8469992  13.9099978  79.4840014
  32.1459992  14.6429978  79.0300014  33.3629992  14.5309978  80.2470014
  32.0029992  12.8369978  80.1630014  32.6779992  12.0139978  80.4800014
  31.3059992  12.3819978  79.4280014  31.1559992  13.2469978  81.3510014
  30.5349992  14.1209978  81.0610014  31.8529992  13.6149978  82.1340014
  30.3339992  12.0959978  81.7770014  30.8979992  11.2059978  82.1280014
  29.5219992  11.7619978  81.0960014  29.4179992  12.6159978  82.8880014
  29.0389992  11.8069978  83.5490014  28.4999992  13.0159978  82.4060014
  29.9389992  13.4079978  83.4660014 148.2619992  62.0079978  80.6780014
 148.4079992  62.8599978  79.9800014 149.1019992  61.2819978  80.6290014
 148.1069992  62.2729978  81.7460014 146.9709992  61.3539978  80.1340014
 146.5939992  60.6279978  80.8870014 146.0709992  62.0029978  80.0920014
 147.0149992  60.5739978  78.7710014 145.9299992  60.4499978  78.5700014
 147.3429992  61.2919978  77.9890014 147.8609992  59.3249978  78.7050014
 148.9409992  59.5889978  78.6940014 147.6589992  58.6469978  79.5620014
 147.5969992  58.5709978  77.4160014 148.2889992  57.7009978  77.4160014
 146.6019992  58.0829978  77.5060014 147.6979992  59.3579978  76.1700014
 147.1809992  60.3419978  76.1790014 148.7629992  59.6389978  76.0250014
 147.1589992  58.5609978  74.9170014 147.6929992  57.5869978  74.8960014
 146.1129992  58.2799978  75.1650014 147.2369992  59.3549978  73.6140014
 148.2739992  59.7199978  73.4530014 146.9879992  58.6619978  72.7820014
 146.2529992  60.5039978  73.4040014 145.2079992  60.1269978  73.3750014
 146.3579992  61.2749978  74.1970014 146.4729992  61.2249978  72.0650014
 146.1789992  60.6679978  71.1500014 145.6599992  61.9819978  72.0400014
 147.8329992  61.6789978  71.7220014 148.2229992  62.2069978  72.6180014
 148.6049992  60.8839978  71.6370014 147.9759992  62.6829978  70.5220014
 146.9889992  63.0739978  70.1930014 148.6699992  63.4759978  70.8760014
 148.5169992  61.8929978  69.3640014 148.7699992  62.5719978  68.5210014
 149.4779992  61.5569978  69.8080014 147.8609992  60.5709978  68.8900014
 147.7779992  59.9269978  69.7920014 146.8539992  60.7499978  68.4580014
 148.7139992  59.8939978  67.7880014 148.9019992  60.6029978  66.9540014
 149.6709992  59.6229978  68.2830014 148.1199992  58.5889978  67.3690014
 147.6319992  57.8179978  68.1520014 148.3969992  58.3949978  66.0780014
 148.1019992  57.0889978  65.4960014 148.9089992  56.8469978  64.7720014
 148.1159992  56.3319978  66.3100014 146.8109992  57.1909978  64.7800014
 146.6529992  56.1889978  64.3260014 146.8069992  58.3479978  63.7520014
 147.5849992  58.2499978  62.9640014 145.8309992  58.3899978  63.2240014
 147.0559992  59.5749978  64.4390014 147.3709992  60.8369978  63.4830014
 145.9179992  61.4509978  63.3660014 144.8129992  60.6629978  63.1580014
 144.8579992  60.1839978  62.1560014 144.7379992  59.8679978  63.9300014
 143.4679992  61.4089978  63.3680014 143.1169992  62.0079978  62.5400014
 142.7379992  60.6119978  63.3650014 143.2149992  62.2109978  64.7110014
 144.0599992  63.4699978  64.8030014 143.8479992  64.0889978  65.6620014
 145.0729992  63.0949978  64.7870014 143.8509992  64.1079978  63.9570014
 141.7329992  62.5889978  64.8500014 141.5889992  63.2399978  65.7000014
 141.4919992  63.0839978  63.9210014 141.1229992  61.7009978  64.9290014
 143.5529992  61.3329978  65.8620014 143.3089992  61.8129978  66.7980014
 144.5919992  61.0709978  65.7220014 142.8899992  60.4819978  65.8130014
 148.1179992  61.8749978  64.2950014 147.8539992  60.3969978  62.1730014
 145.8289992  57.3489978  65.8560014 144.5149992  57.2559978  65.5530014
 144.0619992  56.8979978  64.4820014 143.7149992  57.8009978  66.7960014
 143.1289992  56.9809978  67.2640014 142.9149992  58.4879978  66.4460014
 144.5379992  58.5139978  67.8770014 145.0339992  59.3459978  67.3340014
 145.3019992  57.8809978  68.3770014 143.6889992  59.1959978  68.9410014
 144.4079992  59.7319978  69.5960014 143.1339992  58.4249978  69.5180014
 142.4839992  60.1429978  68.6170014 141.9949992  59.5899978  67.7880014
 143.0119992  61.0509978  68.2540014 141.5039992  60.4349978  69.7370014
 140.9309992  59.5339978  70.0450014 140.7579992  61.1359978  69.3050014
 142.3519992  61.0299978  70.9390014 143.0489992  61.7219978  70.4180014
 142.9179992  60.1759978  71.3690014 141.5209992  61.7609978  71.9970014
 140.9209992  62.5239978  71.4580014 142.2189992  62.2329978  72.7210014
 140.8349992  60.6979978  72.8170014 139.8409992  60.4569978  72.4140014
 141.2689992  59.8309978  73.7150014 140.5539992  59.0819978  74.0870014
 142.7039992  59.7469978  74.2650014 143.1729992  60.7199978  74.0020014
 143.2369992  58.8969978  73.7870014 142.6969992  59.4829978  75.7910014
 142.0639992  60.2029978  76.3530014 143.7219992  59.6409978  76.1890014
 142.3309992  58.0399978  76.0410014 142.5539992  57.3439978  75.2050014
 141.2369992  58.0089978  76.2270014 143.0319992  57.3999978  77.3300014
 144.1329992  57.2919978  77.2230014 142.6129992  56.4119978  77.6160014
 142.7549992  58.2969978  78.5330014 141.7009992  58.6289978  78.6480014
 143.4109992  59.1669978  78.3150014 143.1949992  57.7139978  79.8410014
 144.1349992  57.1269978  79.7600014 142.4659992  56.9739978  80.2340014
 143.3939992  58.7209978  80.9920014 144.3979992  59.1839978  80.8820014
 143.4619992  58.0849978  81.9000014 142.2609992  59.7459978  81.2190014
 142.3749992  60.3699978  82.1310014 141.2349992  59.3369978  81.3390014
 142.3219992  60.4369978  80.3510014 121.6259992  14.2969978  81.8590014
 121.7269992  13.6929978  82.7850014 121.1549992  15.2509978  82.1770014
 122.6849992  14.4809978  81.5800014 120.7769992  13.5629978  80.7450014
 121.4139992  12.8419978  80.1890014 119.9379992  12.9369978  81.1180014
 119.9639992  14.5469978  79.8040014 119.3429992  13.9269978  79.1220014
 119.3199992  15.2219978  80.4070014 120.8339992  15.3689978  78.7750014
 120.2549992  16.1129978  78.1860014 121.7009992  15.7909978  79.3260014
 121.4029992  14.3909978  77.6410014 121.8769992  13.4819978  78.0700014
 120.6439992  13.9869978  76.9370014 122.5419992  14.9539978  76.7240014
 123.4759992  15.1799978  77.2820014 122.8639992  14.1319978  76.0500014
 122.0859992  16.1649978  75.8950014 121.1149992  15.9229978  75.4130014
 121.8729992  17.0459978  76.5370014 123.2099992  16.7359978  75.0010014
 124.0569992  17.0329978  75.6560014 123.6169992  15.9709978  74.3060014
 122.8819992  17.9149978  74.0760014 122.7029992  18.8899978  74.5790014
 123.8269992  17.9929978  73.4970014 121.6119992  17.7519978  73.1350014
 120.7449992  17.8109978  73.8280014 121.4569992  18.7169978  72.6070014
 121.4669992  16.5849978  72.2400014 121.3239992  15.6849978  72.8750014
 120.5369992  16.6839978  71.6410014 122.6969992  16.4299978  71.3900014
 122.9419992  17.4149978  70.9390014 123.5959992  16.0969978  71.9510014
 122.4509992  15.4379978  70.2140014 121.9669992  14.5819978  70.7320014
 121.7419992  15.9569978  69.5340014 123.7449992  15.1859978  69.3900014
 124.5089992  14.7599978  70.0740014 123.5729992  14.4029978  68.6210014
 124.1499992  16.4779978  68.6280014 123.2789992  16.8169978  68.0280014
 124.3359992  17.4149978  69.1950014 125.3409992  16.2269978  67.8110014
 126.3479992  16.9809978  67.7780014 125.1689992  15.1459978  67.0300014
 126.1839992  14.7649978  66.1330014 126.3939992  15.6399978  65.4820014
 127.1229992  14.6039978  66.7060014 125.7059992  13.5899978  65.2560014
 126.5929992  13.3559978  64.6290014 124.4299992  13.9939978  64.4390014
 124.5859992  14.9899978  63.9720014 124.2319992  13.1519978  63.7420014
 123.3799992  14.0319978  65.4060014 121.9379992  14.7489978  65.3310014
 121.5229992  14.6639978  63.8300014 120.1839992  14.9799978  63.4130014
 119.7429992  15.7519978  64.0810014 120.1389992  15.3219978  62.3570014
 119.2159992  13.7899978  63.5600014 119.1549992  13.6209978  64.6250014
 118.2409992  14.1029978  63.2170014 119.6229992  12.4129978  62.9270014
 120.6139992  12.5049978  61.8100014 121.4579992  13.1269978  62.0700014
 120.9379992  11.5549978  61.4120014 120.0209992  13.0669978  61.1030014
 120.2619992  11.5459978  63.9280014 119.5039992  11.0169978  64.4860014
 120.8339992  10.7429978  63.4870014 120.9719992  12.1429978  64.4820014
 118.3719992  11.7089978  62.4890014 118.6099992  10.6919978  62.2160014
 117.9469992  12.2199978  61.6370014 117.7269992  11.5799978  63.3450014
 120.8959992  14.0079978  66.1180014 122.0799992  16.1419978  65.6940014
 125.4699992  12.4769978  66.1720014 125.2319992  11.2869978  65.6280014
 124.9889992  11.0199978  64.4360014 125.3769992  10.1989978  66.7400014
 126.4009992  10.1319978  67.1650014 125.0609992   9.2189978  66.3220014
 124.4349992  10.6219978  67.8960014 124.7549992  11.6269978  68.2440014
 124.6109992   9.8899978  68.7140014 122.9499992  10.5589978  67.5100014
 122.9059992   9.6639978  66.8540014 122.6959992  11.4299978  66.8690014
 122.0099992  10.4459978  68.6600014 122.4759992   9.6229978  69.2430014
 121.0039992  10.1619978  68.2820014 121.9219992  11.7139978  69.5540014
 121.4209992  12.4189978  68.8560014 122.9499992  12.1169978  69.6780014
 121.1069992  11.6659978  70.8850014 120.0909992  11.4389978  70.4980014
 120.9389992  12.6199978  71.4290014 121.7459992  10.8209978  72.0610014
 122.7579992  11.2749978  71.9960014 121.8099992   9.7589978  71.7430014
 121.1859992  10.9119978  73.4380014 120.1069992  11.1179978  73.4000014
 121.7839992  10.8989978  74.6330014 121.1339992  10.8379978  75.5190014
 123.2849992  10.8489978  74.9150014 123.4739992  11.9159978  75.1590014
 123.9189992  10.3939978  74.1240014 123.5649992  10.0709978  76.2540014
 123.3649992   8.9939978  76.0670014 122.8399992  10.2839978  77.0690014
 125.0119992  10.1459978  76.6740014 125.6019992  10.2299978  75.7360014
 125.2949992   9.1909978  77.1650014 125.5129992  11.1619978  77.7430014
 125.4049992  12.2039978  77.3730014 126.5899992  10.9079978  77.8370014
 124.8359992  10.9899978  79.0990014 124.7359992   9.9419978  79.4540014
 123.8049992  11.4029978  79.0690014 125.6149992  11.7859978  80.1660014
 126.5619992  11.3779978  80.5810014 124.8829992  11.7039978  80.9980014
 125.7659992  13.2919978  79.7630014 124.8669992  13.6419978  79.2120014
 126.6949992  13.5179978  79.1960014 125.9149992  14.1809978  81.0260014
 124.9169992  14.2529978  81.5080014 126.2729992  15.1889978  80.7290014
 126.6509992  13.7859978  81.7590014  24.5389992 137.5399978  80.0250014
  24.4279992 137.6529978  81.1250014  23.6959992 138.0229978  79.4860014
  25.4929992 138.1019978  79.9360014  24.8349992 136.0639978  79.7290014
  25.7579992 135.8669978  80.3150014  23.9359992 135.4699978  79.9990014
  25.1919992 135.9659978  78.1980014  25.7509992 136.8689978  77.8730014
  25.8299992 135.0769978  78.0050014  23.9039992 135.7689978  77.3080014
  23.1769992 136.6049978  77.3970014  24.2389992 135.8839978  76.2550014
  23.3109992 134.3329978  77.3670014  24.1899992 133.7229978  77.0680014
  22.9019992 134.0429978  78.3580014  22.1849992 134.0609978  76.4000014
  22.0579992 132.9709978  76.2290014  21.2639992 134.4749978  76.8620014
  22.3189992 134.6769978  75.0080014  21.8339992 135.6749978  74.9510014
  23.3739992 134.8069978  74.6860014  21.5739992 133.8249978  73.9110014
  21.7509992 134.3259978  72.9350014  22.0369992 132.8159978  73.8690014
  20.0679992 133.6529978  74.1150014  19.8539992 133.2279978  75.1190014
  19.5229992 134.6209978  74.0900014  19.4079992 132.7629978  73.0690014
  19.8539992 131.7459978  73.0580014  18.3319992 132.5869978  73.2830014
  19.5069992 133.1979978  71.5990014  18.7199992 132.7059978  70.9890014
  19.3169992 134.2879978  71.5060014  20.8519992 132.7179978  70.9030014
  21.5979992 132.5199978  71.7030014  20.6429992 131.7399978  70.4190014
  21.3799992 133.6859978  69.9010014  21.4569992 134.6869978  70.3770014
  22.4129992 133.3729978  69.6360014  20.6409992 133.5019978  68.5280014
  20.9849992 132.5679978  68.0350014  19.5679992 133.3149978  68.7450014
  20.7779992 134.7779978  67.6110014  21.8469992 135.0819978  67.6240014
  20.6199992 134.2989978  66.6210014  19.8869992 135.9919978  67.9520014
  18.7829992 135.8419978  68.4220014  20.4469992 137.0389978  67.5620014
  19.6449992 138.1849978  67.1660014  18.6029992 138.2089978  67.5490014
  20.1109992 139.0879978  67.6150014  19.6289992 138.3389978  65.6540014
  18.8849992 139.0929978  65.3180014  19.2579992 137.0119978  64.8560014
  18.5179992 136.4039978  65.4190014  18.6589992 137.3529978  63.9840014
  20.4209992 136.1819978  64.5130014  20.8809992 135.8909978  62.9950014
  22.4239992 135.6839978  63.2840014  22.8429992 134.9919978  64.4710014
  22.0329992 134.4399978  64.9940014  23.5509992 134.1909978  64.1680014
  23.6389992 135.8489978  65.3880014  23.0409992 136.6919978  65.7010014
  23.9349992 135.1679978  66.1720014  24.9789992 136.4579978  64.9140014
  24.8489992 137.3739978  63.6910014  25.8809992 137.4799978  63.3910014
  24.3929992 136.9269978  62.8190014  24.4019992 138.2969978  64.0280014
  25.4479992 137.3149978  66.0600014  25.6419992 136.7679978  66.9710014
  26.3309992 137.8509978  65.7460014  24.6899992 138.0429978  66.3100014
  25.9179992 135.4129978  64.5220014  25.6829992 135.0369978  63.5370014
  25.7369992 134.5649978  65.1650014  26.9389992 135.7519978  64.4190014
  20.3229992 134.6209978  62.4790014  20.7759992 137.1559978  62.1890014
  20.9379992 138.7539978  65.2040014  21.1279992 140.0729978  65.3600014
  20.2639992 140.9339978  65.4980014  22.6149992 140.4219978  65.2090014
  22.7909992 140.9069978  64.2250014  23.2599992 139.5289978  65.3530014
  23.0339992 141.4249978  66.3410014  22.2499992 142.2069978  66.2520014
  24.0579992 141.8269978  66.1850014  23.0989992 141.0049978  67.8320014
  22.2379992 141.4359978  68.3860014  23.9659992 141.6079978  68.1760014
  23.3299992 139.5359978  68.0430014  24.2569992 139.2839978  67.4850014
  22.5359992 138.9469978  67.5360014  23.4719992 139.1909978  69.5510014
  22.4399992 139.2209978  69.9610014  23.9559992 139.9949978  70.1460014
  24.0519992 137.8179978  69.8320014  25.1629992 137.8439978  69.8350014
  23.8789992 137.1099978  68.9920014  23.6829992 137.2199978  71.2380014
  24.1889992 136.2549978  71.4520014  22.6059992 136.9849978  71.0980014
  24.0069992 138.1859978  72.3620014  25.0809992 138.3499978  72.5330014
  23.1999992 138.9699978  73.1260014  23.6429992 139.6079978  73.9040014
  21.6559992 139.0529978  73.0270014  21.3059992 138.4279978  72.1780014
  21.2779992 140.0789978  72.8320014  21.0729992 138.6469978  74.3960014
  21.5339992 139.2289978  75.2220014  21.2679992 137.5719978  74.5990014
  19.6119992 138.7999978  74.6740014  18.9819992 138.3799978  73.8610014
  19.4859992 139.9029978  74.6440014  19.1089992 138.0339978  75.8580014
  19.6099992 137.0729978  75.6150014  18.0099992 137.8989978  75.9480014
  19.6879992 138.3549978  77.2910014  19.1759992 139.2789978  77.6350014
  20.7269992 138.6479978  77.0270014  19.7179992 137.2329978  78.3100014
  19.7449992 136.2259978  77.8410014  18.7249992 137.1209978  78.7950014
  20.9249992 137.3419978  79.3610014  21.0339992 138.3739978  79.7560014
  21.8399992 137.2879978  78.7320014  20.8109992 136.2679978  80.4240014
  20.9669992 135.2459978  80.0150014  19.7809992 136.3029978  80.8380014
  21.5789992 136.3879978  81.2180014  43.5819992   7.0739978  82.3130014
  43.0569992   6.2779978  82.8820014  43.1369992   8.0389978  82.6370014
  44.6449992   7.0769978  82.6380014  43.4989992   6.8129978  80.8320014
  43.7769992   5.7579978  80.6240014  42.4359992   6.9459978  80.5390014
  44.2869992   7.7039978  79.7240014  43.7179992   7.8219978  78.7770014
  44.4739992   8.7209978  80.1300014  45.6629992   6.9879978  79.2670014
  46.2499992   6.8959978  80.2060014  45.5599992   5.9809978  78.8090014
  46.6499992   7.9009978  78.5170014  47.0459992   8.7119978  79.1650014
  47.4529992   7.2179978  78.1640014  46.0199992   8.4579978  77.2480014
  45.0859992   9.0389978  77.4030014  46.7959992   9.1049978  76.7860014
  45.6599992   7.3949978  76.1360014  46.5979992   7.1159978  75.6100014
  45.1649992   6.4899978  76.5510014  44.6319992   7.8359978  75.1230014
  43.6359992   7.3569978  75.2330014  44.4519992   8.9309978  75.1760014
  45.1049992   7.6859978  73.6270014  46.0269992   8.2519978  73.3730014
  45.3639992   6.6269978  73.4150014  44.0069992   7.9819978  72.5430014
  43.3099992   7.1319978  72.7070014  43.6099992   8.9689978  72.8650014
  44.4749992   7.9699978  71.0910014  45.0799992   7.0849978  70.8010014
  43.5049992   7.9639978  70.5490014  45.4079992   9.1559978  70.8080014
  44.7739992  10.0669978  70.7600014  46.3009992   9.2659978  71.4610014
  46.1629992   9.1479978  69.4060014  46.3819992   8.0709978  69.2420014
  45.4949992   9.3199978  68.5360014  47.3799992  10.0369978  69.2830014
  47.0039992  11.0819978  69.2770014  48.0269992   9.8849978  70.1740014
  48.1619992   9.7779978  68.0200014  47.4509992  10.0039978  67.1970014
  48.9759992  10.5299978  67.9490014  48.6119992   8.3099978  67.8190014
  48.6689992   7.5079978  68.6870014  48.8629992   8.0839978  66.5110014
  49.6679992   6.9179978  66.1330014  50.4479992   7.3639978  65.4800014
  50.1369992   6.5209978  67.0580014  48.8399992   5.8129978  65.4560014
  49.5759992   5.1249978  64.9890014  48.0309992   6.3059978  64.1730014
  47.3379992   7.1269978  64.4550014  48.8249992   6.6269978  63.4660014
  47.3049992   5.1789978  63.6620014  46.4469992   5.4699978  62.3160014
  45.1409992   6.1119978  62.9380014  44.2899992   5.2039978  63.7820014
  43.8349992   4.4309978  63.1270014  44.9249992   4.7529978  64.5750014
  43.1389992   6.0099978  64.4390014  42.8009992   6.7309978  63.7100014
  42.3889992   5.2529978  64.6170014  43.4539992   6.8489978  65.6800014
  44.5239992   7.9509978  65.3990014  44.6669992   8.3119978  66.4070014
  45.3919992   7.4369978  65.0130014  44.1149992   8.6579978  64.6930014
  42.1699992   7.3049978  66.3690014  42.4759992   7.9449978  67.1830014
  41.7109992   7.9689978  65.6510014  41.5099992   6.4999978  66.6560014
  44.0829992   5.9199978  66.6860014  44.3679992   6.4599978  67.5770014
  45.0219992   5.6349978  66.2330014  43.4509992   5.0669978  66.8840014
  47.3309992   6.4409978  61.6330014  46.1879992   4.2399978  61.6020014
  47.8859992   5.2699978  66.4570014  48.1499992   4.0139978  66.7790014
  49.0789992   3.2899978  66.4920014  47.0389992   3.4189978  67.6550014
  47.3219992   2.3859978  67.9510014  46.0709992   3.4319978  67.1100014
  46.8759992   4.2279978  68.8780014  46.1299992   3.6519978  69.4670014
  46.4369992   5.2359978  68.7130014  48.0979992   4.3059978  69.7910014
  48.6689992   5.1669978  69.3830014  48.6589992   3.3599978  69.6370014
  47.6559992   4.7059978  71.2420014  47.2439992   3.8349978  71.7950014
  46.8709992   5.4779978  71.0920014  48.8519992   5.3219978  71.9770014
  49.2239992   6.2269978  71.4510014  49.7149992   4.6229978  71.9790014
  48.5419992   5.8209978  73.4260014  48.1469992   4.9689978  74.0200014
  47.8279992   6.6419978  73.2020014  49.7069992   6.4779978  74.2010014
  49.2879992   7.0959978  75.0240014  50.2659992   7.2489978  73.6280014
  50.7509992   5.5729978  74.7770014  51.4319992   5.3629978  73.9390014
  50.8989992   5.0779978  75.9600014  51.6079992   4.2539978  76.1280014
  49.8869992   5.4269978  77.0800014  49.1959992   6.2799978  76.9110014
  50.4649992   5.6909978  77.9910014  48.9829992   4.2539978  77.4180014
  49.5409992   3.2939978  77.3820014  48.2719992   4.0989978  76.5790014
  48.1839992   4.3739978  78.7180014  47.3659992   3.6299978  78.8160014
  47.6139992   5.3279978  78.7130014  49.0099992   4.3539978  79.9780014
  49.7619992   5.1699978  80.0160014  49.6779992   3.4659978  80.0010014
  48.1549992   4.3819978  81.2710014  48.3239992   3.5079978  81.9350014
  47.0749992   4.4629978  81.0210014  48.4009992   5.6859978  82.0840014
  47.5629992   5.9339978  82.7690014  48.4429992   6.5589978  81.3980014
  49.7349992   5.7849978  82.7760014  50.6349992   5.8529978  82.1280014
  49.9669992   4.8449978  83.3210014  49.7509992   6.9819978  83.7620014
  48.8599992   6.8759978  84.4170014  49.5349992   7.8689978  83.1290014
  50.6229992   6.9159978  84.4460014 114.7689992 133.4359978  82.2090014
 114.5369992 132.8459978  81.2970014 114.5519992 132.8139978  83.1040014
 115.8679992 133.5349978  82.3310014 113.9169992 134.6739978  82.3530014
 112.8709992 134.3069978  82.4150014 114.1259992 135.1129978  83.3520014
 114.2299992 135.7289978  81.2610014 113.4549992 136.5189978  81.3500014
 115.1739992 136.1629978  81.6540014 114.2779992 135.1339978  79.8460014
 114.5249992 135.9849978  79.1760014 114.9689992 134.2789978  79.6820014
 112.7869992 134.8579978  79.4170014 112.4009992 134.0909978  80.1220014
 112.1489992 135.7609978  79.3070014 112.7039992 134.2359978  77.9900014
 113.2959992 133.2949978  77.9590014 111.6879992 133.9489978  77.6430014
 113.3169992 135.1199978  76.8950014 114.3659992 135.3479978  77.1800014
 113.1929992 134.5499978  75.9500014 112.4589992 136.4049978  76.5870014
 111.4019992 136.1099978  76.4080014 112.5799992 137.0449978  77.4870014
 112.8939992 137.1979978  75.3230014 112.2529992 138.1039978  75.3680014
 113.9279992 137.5069978  75.5870014 112.6759992 136.4599978  73.9850014
 113.0929992 135.4299978  73.9710014 111.5849992 136.2729978  73.8920014
 113.1519992 137.2759978  72.7020014 112.9729992 138.3599978  72.8700014
 114.2569992 137.1589978  72.6970014 112.6429992 136.8929978  71.3930014
 112.8779992 135.8179978  71.2430014 111.5359992 136.9889978  71.3770014
 113.2829992 137.7659978  70.2750014 112.6949992 138.6879978  70.0790014
 114.3329992 138.0559978  70.4920014 113.1779992 137.0139978  68.9050014
 113.1349992 135.9079978  69.0020014 112.2009992 137.1319978  68.3890014
 114.1839992 137.4429978  67.8680014 113.9039992 137.0109978  66.8840014
 113.9709992 138.5189978  67.6910014 115.6759992 137.3149978  68.0910014
 116.2339992 137.6969978  69.1410014 116.2699992 136.8249978  67.0240014
 117.6189992 136.5139978  67.1370014 117.9199992 136.5869978  66.0700014
 118.1779992 137.2719978  67.7270014 117.9329992 135.0949978  67.6830014
 119.0269992 134.9759978  67.8330014 117.5479992 134.0949978  66.6170014
 118.0359992 134.4349978  65.6790014 117.9739992 133.0939978  66.8420014
 116.1409992 134.1259978  66.4970014 115.3279992 133.2439978  65.4310014
 115.0869992 134.1749978  64.2340014 116.0909992 134.9859978  63.6980014
 116.5549992 135.7239978  64.3860014 116.8669992 134.3719978  63.1920014
 115.5559992 135.7829978  62.4710014 116.2969992 136.5009978  62.1520014
 115.3659992 135.0919978  61.6620014 114.2789992 136.5459978  62.7090014
 114.4779992 137.3839978  63.9330014 115.3889992 137.9599978  63.8630014
 113.6569992 138.0759978  64.0440014 114.6229992 136.7429978  64.7900014
 114.0549992 137.5609978  61.5990014 113.5479992 137.0659978  60.7840014
 113.2589992 138.2629978  61.7980014 114.9969992 137.8869978  61.1830014
 113.0499992 135.6539978  62.8570014 113.3799992 134.8699978  63.5230014
 112.8149992 135.1549978  61.9290014 112.2449992 136.2529978  63.2560014
 116.0719992 132.0729978  64.9930014 114.0189992 132.9489978  66.0830014
 117.1799992 134.9219978  68.9350014 117.4969992 133.8259978  69.5760014
 118.3959992 133.0359978  69.2270014 116.6199992 133.5499978  70.9000014
 117.2089992 132.9749978  71.6470014 115.8059992 132.9159978  70.4880014
 115.9179992 134.8359978  71.3700014 114.9699992 134.6749978  71.9260014
 115.5819992 135.4419978  70.5020014 116.8799992 135.7839978  72.2210014
 116.5679992 136.8199978  71.9690014 117.9119992 135.5919978  71.8590014
 116.7889992 135.5359978  73.7250014 117.1189992 134.5079978  73.9850014
 115.7449992 135.6029978  74.0990014 117.5029992 136.5149978  74.7120014
 117.0909992 136.3869978  75.7360014 117.2929992 137.5509978  74.3700014
 119.0089992 136.5789978  74.7960014 119.2919992 137.4299978  75.4520014
 119.3119992 136.9629978  73.7990014 119.7889992 135.2729978  75.0670014
 120.8759992 135.4479978  74.9220014 119.5829992 134.5509978  74.2470014
 119.5329992 134.5369978  76.3670014 118.6229992 133.9199978  76.3590014
 120.3569992 134.4299978  77.3570014 119.9979992 133.9129978  78.2590014
 121.7729992 135.0059978  77.4960014 122.3329992 134.9539978  76.5390014
 122.4239992 134.3219978  78.0810014 121.9659992 136.5089978  77.9690014
 121.7199992 137.0959978  77.0580014 122.9929992 136.7879978  78.2870014
 121.0209992 137.0189978  79.0470014 119.9939992 136.9109978  78.6370014
 121.1699992 138.1049978  79.2260014 121.0819992 136.3029978  80.3860014
 122.1909992 136.3029978  80.4630014 120.7609992 135.2399978  80.3870014
 120.5319992 136.9029978  81.6600014 120.7129992 137.9979978  81.6840014
 121.0989992 136.5449978  82.5460014 118.9839992 136.7789978  81.8680014
 118.7029992 135.7109978  81.9880014 118.3769992 137.2389978  81.0600014
 118.5379992 137.5469978  83.1540014 119.4529992 138.0639978  83.5140014
 118.4179992 136.7549978  83.9240014 117.3479992 138.4799978  83.0570014
 117.6849992 139.4479978  82.6290014 116.9549992 138.6759978  84.0770014
 116.4989992 138.0339978  82.4950014  31.2719992 145.3519978  82.1600014
  31.2829992 144.7359978  83.0850014  30.6479992 146.2559978  82.3250014
  32.2669992 145.7909978  81.9320014  30.7079992 144.5469978  80.9750014
  30.8429992 145.1129978  80.0280014  31.1619992 143.5489978  80.7980014
  29.1289992 144.3029978  80.9070014  28.8989992 143.6089978  81.7430014
  28.6689992 145.3049978  81.0440014  28.5919992 143.7099978  79.5640014
  27.5449992 144.0809978  79.5440014  29.2379992 144.2399978  78.8320014
  28.6899992 142.1829978  79.4560014  29.7419992 141.8369978  79.3760014
  28.2569992 141.6909978  80.3530014  28.0139992 141.6359978  78.2680014
  27.2139992 140.9429978  78.6050014  27.4609992 142.4279978  77.7200014
  28.9809992 140.8499978  77.3110014  29.6049992 140.1599978  77.9190014
  28.4159992 140.2559978  76.5610014  29.9449992 141.6889978  76.5900014
  30.3659992 142.4569978  77.2730014  30.6929992 141.0569978  76.0660014
  29.3249992 142.5769978  75.4520014  28.4929992 143.1939978  75.8530014
  30.0829992 143.3419978  75.1780014  28.8809992 141.6369978  74.3360014
  29.7329992 140.9939978  74.0290014  28.0429992 140.9579978  74.6000014
  28.4389992 142.4939978  73.0750014  27.6129992 143.1449978  73.4340014
  29.2919992 143.1389978  72.7740014  27.8859992 141.7009978  71.9030014
  28.6499992 140.9659978  71.5690014  27.0509992 141.0799978  72.2920014
  27.5759992 142.5029978  70.6520014  27.0659992 141.9809978  69.8140014
  26.7339992 143.1779978  70.9140014  28.7569992 143.2989978  70.0370014
  28.3509992 143.9099978  69.2030014  29.1649992 143.9919978  70.8040014
  29.7919992 142.4169978  69.4070014  29.8559992 141.4289978  69.9120014
  29.4669992 142.2599978  68.3560014  31.2049992 143.0869978  69.4480014
  31.8939992 143.2099978  70.3990014  31.3509992 143.6029978  68.2830014
  32.6269992 144.1469978  67.9880014  32.5129992 145.2439978  68.1210014
  33.4439992 143.7919978  68.6520014  32.8789992 143.7469978  66.4610014
  33.7809992 144.2599978  66.0660014  31.6929992 144.1759978  65.4910014
  30.7279992 144.3049978  66.0260014  31.9689992 145.1569978  65.0470014
  31.3699992 143.1779978  64.5060014  30.8149992 143.2539978  63.1170014
  30.3189992 141.7059978  62.9600014  31.2069992 140.6259978  63.2510014
  31.0379992 139.8119978  62.5130014  32.2689992 140.9279978  63.1250014
  31.0849992 140.0169978  64.5920014  31.8409992 139.2609978  64.7450014
  31.3839992 140.8159978  65.2550014  29.7959992 139.4089978  65.0460014
  28.7649992 140.5199978  65.1400014  27.9199992 140.1349978  65.6910014
  29.3189992 141.2589978  65.7000014  28.4859992 140.9049978  64.1700014
  29.1979992 138.4009978  64.1360014  29.6399992 137.4459978  64.3800014
  28.1859992 138.1919978  64.4510014  29.2399992 138.6139978  63.0780014
  29.9659992 138.9039978  66.5080014  29.0119992 138.5459978  66.8650014
  30.3259992 139.6899978  67.1540014  30.6319992 138.0559978  66.4580014
  29.7199992 144.2069978  63.1400014  31.8679992 143.3749978  62.1100014
  32.9999992 142.3289978  66.3450014  34.0409992 141.7959978  66.9710014
  35.0729992 142.3769978  67.2290014  33.9139992 140.3089978  67.2150014
  34.7299992 139.7269978  66.7360014  33.0079992 139.8699978  66.7440014
  33.9389992 139.9699978  68.6930014  34.1259992 140.9149978  69.2470014
  34.7549992 139.2779978  68.9910014  32.5919992 139.4589978  69.1860014
  32.3009992 138.6459978  68.4880014  31.7609992 140.1909978  69.0990014
  32.4589992 138.9189978  70.5910014  33.3459992 138.2819978  70.7990014
  31.6329992 138.1829978  70.6840014  32.2559992 140.0049978  71.6900014
  31.3269992 140.5119978  71.3540014  33.0089992 140.8209978  71.7190014
  32.1409992 139.3859978  73.1610014  31.3649992 138.5969978  73.0560014
  31.9149992 140.1259978  73.9580014  33.3669992 138.6519978  73.6880014
  33.5869992 137.7949978  73.0170014  33.1449992 138.0659978  74.6050014
  34.6829992 139.3699978  73.7750014  35.3609992 139.3419978  72.9100014
  35.2059992 139.9989978  74.8520014  36.2279992 140.3779978  74.7050014
  34.5949992 140.2129978  76.2500014  34.8619992 139.3899978  76.9460014
  33.4989992 140.1349978  76.0800014  34.9939992 141.5849978  76.9300014
  34.2319992 142.3359978  76.6310014  35.9539992 141.9649978  76.5180014
  34.8849992 141.5049978  78.4420014  35.3109992 142.4549978  78.8300014
  35.5519992 140.6889978  78.7950014  33.4629992 141.1189978  78.9960014
  33.1699992 140.1199978  78.6080014  32.7369992 141.8179978  78.5290014
  33.4329992 141.4219978  80.5500014  32.4449992 141.1199978  80.9570014
  33.6259992 142.4949978  80.7620014  34.3729992 140.5479978  81.4640014
  34.2099992 140.6399978  82.5590014  35.4209992 140.7179978  81.1350014
  34.1029992 139.0519978  81.3150014  34.8499992 138.5039978  81.9280014
  34.4289992 138.7899978  80.2860014  32.6719992 138.4859978  81.4570014
  32.3999992 138.5529978  82.5320014  32.6449992 137.4219978  81.1360014
  31.8259992 138.9969978  80.9490014  27.9489992  14.1279978  80.8160014
  28.4289992  13.1649978  81.0910014  27.2029992  14.4079978  81.5900014
  28.8019992  14.8399978  80.8200014  27.3319992  13.9889978  79.4290014
  26.3939992  13.4099978  79.5700014  27.0499992  14.9699978  78.9900014
  28.1129992  13.2519978  78.3650014  29.1909992  13.5009978  78.4730014
  27.9869992  12.1499978  78.4270014  27.8609992  13.6089978  76.8950014
  27.5039992  14.6599978  76.8620014  28.8549992  13.5999978  76.3990014
  26.7539992  12.7169978  76.2940014  27.1239992  11.7089978  76.5780014
  25.7569992  12.9159978  76.7420014  26.5979992  12.7789978  74.7510014
  25.5339992  12.6019978  74.4850014  26.8619992  13.8189978  74.4630014
  27.4079992  11.7259978  73.9460014  28.4929992  11.7689978  74.1780014
  27.0129992  10.7079978  74.1510014  27.2019992  11.8159978  72.3830014
  26.1039992  11.8819978  72.2280014  27.5969992  12.8239978  72.1340014
  27.9519992  10.8919978  71.4740014  27.6089992   9.8439978  71.6080014
  27.7559992  11.1999978  70.4250014  29.5159992  10.9839978  71.7060014
  29.9699992  11.9659978  71.4530014  29.8209992  10.8499978  72.7660014
  30.3389992  10.0169978  70.9020014  30.1639992   8.9779978  71.2540014
  30.0399992  10.0229978  69.8320014  31.8479992  10.1859978  71.0230014
  32.1949992   9.7329978  71.9760014  32.1229992   9.5829978  70.1310014
  32.4969992  11.6189978  71.1280014  31.8639992  12.2649978  70.4820014
  32.4819992  12.1049978  72.1260014  33.9279992  11.4939978  70.6870014
  34.3449992  10.6999978  71.3420014  34.0399992  11.2389978  69.6120014
  34.8119992  12.6809978  71.0510014  34.7979992  12.9649978  72.1250014
  35.8649992  12.3939978  70.8450014  34.5109992  13.8499978  70.0480014
  35.1259992  14.8989978  70.0100014  33.5589992  13.5499978  69.1470014
  33.2909992  14.4289978  68.0770014  32.8869992  15.4279978  68.3470014
  34.1899992  14.6619978  67.4670014  32.0799992  13.8149978  67.1520014
  32.5539992  12.8499978  66.8720014  31.9729992  14.5739978  65.7850014
  31.6339992  15.5879978  66.0870014  32.8539992  14.5769978  65.1070014
  30.9279992  13.9449978  65.0630014  30.0869992  14.9049978  64.0600014
  29.3699992  13.8569978  63.1740014  29.3149992  12.5069978  63.4240014
  29.1169992  11.8979978  62.5160014  30.3269992  12.1309978  63.6870014
  28.2919992  12.1349978  64.4480014  28.3779992  11.0889978  64.7030014
  28.4759992  12.6079978  65.4010014  26.7919992  12.3159978  64.0970014
  26.4059992  11.4339978  62.9140014  25.3439992  11.5409978  62.7460014
  26.9809992  11.7669978  62.0630014  26.5989992  10.4429978  63.2980014
  26.0569992  11.8719978  65.2960014  26.2209992  12.5419978  66.1270014
  24.9979992  11.9049978  65.0830014  26.3439992  10.8469978  65.4800014
  26.5249992  13.7409978  63.8990014  26.7309992  14.2389978  64.8340014
  25.4639992  13.8289978  63.7140014  27.1639992  14.2099978  63.1650014
  28.9969992  15.5389978  64.8290014  31.0369992  15.7659978  63.3040014
  30.8469992  13.8179978  67.8470014  30.1079992  12.8009978  67.8740014
  30.3549992  11.7029978  67.4110014  28.8349992  13.0899978  68.6450014
  29.0729992  13.0639978  69.7300014  28.1159992  12.2599978  68.4720014
  28.2079992  14.4059978  68.0740014  28.3099992  14.4929978  66.9710014
  28.8749992  15.1869978  68.4990014  26.7269992  14.5289978  68.3520014
  26.2619992  13.5559978  68.0840014  26.2199992  15.2139978  67.6400014
  26.3189992  14.8189978  69.7790014  26.6119992  13.9059978  70.3410014
  25.2169992  14.9529978  69.7400014  26.9569992  16.0439978  70.4490014
  26.6969992  16.9919978  69.9320014  28.0399992  15.7989978  70.4920014
  26.5959992  16.1389978  71.9540014  25.8309992  15.3819978  72.2290014
  26.0489992  17.1049978  72.0130014  27.8919992  16.0959978  72.8260014
  28.3089992  15.0769978  72.6730014  27.5709992  16.2929978  73.8710014
  28.8559992  17.2169978  72.3570014  28.4799992  17.9609978  71.6390014
  30.1429992  17.4429978  72.6630014  30.6969992  18.2699978  72.1950014
  30.9999992  16.5029978  73.5030014  32.0359992  16.4819978  73.1040014
  30.6239992  15.4579978  73.4750014  31.1629992  16.7849978  75.0140014
  30.2119992  16.8299978  75.5860014  31.8059992  17.6859978  75.1090014
  31.8779992  15.6559978  75.7070014  32.8739992  15.4529978  75.2580014
  31.3689992  14.7159978  75.4070014  31.8549992  15.7679978  77.2820014
  30.8209992  15.7799978  77.6890014  32.2319992  16.8019978  77.4290014
  32.5889992  14.7439978  78.1020014  33.6509992  14.6979978  77.7780014
  31.9979992  13.8269978  77.8890014  32.5859992  15.0469978  79.5830014
  32.9899992  14.1759978  80.1420014  31.5529992  15.2199978  79.9550014
  33.4249992  16.2019978  80.0500014  32.7429992  16.6189978  80.8220014
  33.4709992  16.9369978  79.2180014  34.8089992  16.1119978  80.6200014
  34.8279992  15.3809978  81.4560014  35.2429992  17.0059978  81.1170014
  35.4519992  15.7379978  79.7950014   5.7529992  41.1879978  80.2930014
   4.9269992  41.2759978  81.0310014   6.5649992  41.9209978  80.4890014
   6.1149992  40.1429978  80.4010014   5.1409992  41.4439978  78.9900014
   5.7399992  41.2019978  78.0860014   4.2739992  40.7499978  78.9810014
   4.5239992  42.8879978  78.9010014   4.0839992  43.0839978  79.9020014
   5.2979992  43.6629978  78.7140014   3.3129992  43.0819978  77.8770014
   2.3599992  42.5789978  78.1460014   3.2589992  44.1899978  77.9420014
   3.6209992  42.5679978  76.3870014   4.6609992  42.7829978  76.0600014
   3.6509992  41.4599978  76.4670014   2.6469992  43.0769978  75.3170014
   1.6269992  42.8889978  75.7150014   2.7889992  44.1789978  75.2830014
   2.7659992  42.4369978  73.9210014   2.3469992  41.4169978  73.7810014
   2.2279992  43.0579978  73.1730014   4.2829992  42.3239978  73.3380014
   4.8559992  43.2739978  73.3980014   4.8089992  41.5309978  73.9110014
   4.2649992  41.8759978  71.8440014   5.1439992  41.2019978  71.7660014
   3.3549992  41.2719978  71.6400014   4.2179992  43.1519978  71.0320014
   3.1869992  43.5639978  71.0870014   4.9429992  43.8989978  71.4210014
   4.5649992  42.9429978  69.5750014   3.9119992  42.1149978  69.2250014
   4.3009992  43.8569978  69.0000014   6.0799992  42.8129978  69.4130014
   6.5629992  43.7499978  69.7630014   6.4349992  41.9639978  70.0340014
   6.5719992  42.5619978  67.9940014   6.4709992  43.4209978  67.2960014
   7.6699992  42.4769978  68.1360014   5.8569992  41.3449978  67.4400014
   4.7479992  41.3969978  67.4090014   6.3559992  41.1389978  66.4700014
   6.1529992  39.9609978  68.1680014   7.2539992  39.8609978  68.0600014
   5.9809992  40.0609978  69.2610014   5.5369992  38.7069978  67.6140014
   5.2179992  37.7039978  68.2650014   5.3209992  38.9079978  66.2870014
   4.6129992  37.8979978  65.5700014   5.0509992  37.5359978  64.6160014
   4.4029992  37.0149978  66.2110014   3.1549992  38.4179978  65.2060014
   2.6379992  37.6179978  64.6350014   3.3639992  39.6229978  64.2120014
   3.9319992  40.4059978  64.7580014   3.9679992  39.2889978  63.3410014
   2.1409992  40.2139978  63.8570014   2.0249992  41.5839978  63.1100014
   3.0349992  42.4759978  63.8990014   2.9169992  42.8919978  65.2630014
   1.8299992  42.9729978  65.4790014   3.4549992  42.2259978  65.9710014
   3.4979992  44.2679978  65.5070014   3.3139992  44.4909978  66.5480014
   4.5709992  44.1849978  65.4140014   3.0439992  45.4799978  64.7170014
   3.1949992  45.1699978  63.2150014   4.1769992  44.8109978  62.9470014
   2.4479992  44.3899978  63.1740014   2.9119992  46.0639978  62.6780014
   1.6249992  45.7849978  64.9570014   1.0299992  44.8989978  64.7940014
   1.4319992  46.1579978  65.9520014   1.2679992  46.5169978  64.2480014
   3.8439992  46.7369978  65.0670014   3.2529992  47.6149978  64.8510014
   4.8309992  46.6569978  64.6350014   4.0719992  46.6189978  66.1160014
   2.6589992  41.4449978  61.7980014   0.6869992  42.1789978  63.1170014
   2.4939992  38.9989978  66.3220014   2.0559992  38.2189978  67.2810014
   1.8649992  37.0259978  67.1830014   1.8109992  39.0279978  68.5220014
   1.0569992  39.8389978  68.4320014   2.7599992  39.4239978  68.9430014
   1.2469992  38.0699978  69.6620014   0.3719992  37.5309978  69.2400014
   0.7609992  38.6949978  70.4420014   2.2779992  37.0849978  70.2240014
   2.7239992  36.5369978  69.3670014   1.7389992  36.3679978  70.8790014
   3.4229992  37.7459978  71.0020014   3.1199992  38.2799978  71.9270014
   4.0579992  38.5229978  70.5260014   4.3409992  36.7059978  71.6090014
   4.7559992  36.1979978  70.7120014   3.7479992  35.9449978  72.1600014
   5.4929992  37.2729978  72.4440014   6.1379992  37.9919978  71.8950014
   6.2049992  36.4279978  72.5550014   5.1599992  37.8069978  73.9180014
   4.7039992  38.7889978  73.6710014   6.0629992  38.1969978  74.4360014
   4.2609992  36.8949978  74.6770014   4.5039992  35.8219978  74.6560014
   3.2369992  37.2809978  75.4740014   2.6489992  36.4429978  75.8740014
   2.7179992  38.6979978  75.7650014   1.6769992  38.7829978  75.3860014
   3.2699992  39.4669978  75.1850014   2.6699992  38.9859978  77.2430014
   2.2379992  40.0029978  77.3600014   3.7209992  38.9389978  77.6000014
   1.9229992  37.8869978  78.0300014   2.3259992  36.8779978  77.7980014
   0.8629992  37.7769978  77.7150014   2.1179992  38.0569978  79.5500014
   3.1709992  38.1739978  79.8850014   1.6229992  37.1949978  80.0450014
   1.4649992  39.3519978  80.0530014   0.3929992  39.2349978  79.7840014
   1.9689992  40.2549978  79.6470014   1.5299992  39.3439978  81.6080014
   2.5709992  39.0329978  81.8400014   0.8489992  38.5839978  82.0480014
   1.2089992  40.6849978  82.3660014   1.7669992  41.5309978  81.9130014
   1.3889992  40.7429978  83.4610014  -0.1710008  41.2309978  82.0500014
  -0.1800008  41.3739978  80.9480014  -0.5200008  42.1099978  82.6330014
  -0.9230008  40.4599978  82.3230014  12.3219992 129.1439978  83.5040014
  11.3569992 129.1299978  84.0530014  12.1409992 129.6789978  82.5470014
  13.1929992 129.5719978  84.0450014  12.7359992 127.6709978  83.1880014
  12.0889992 127.0159978  83.8100014  12.5079992 127.3749978  82.1420014
  14.1579992 127.3619978  83.6750014  14.0849992 127.6579978  84.7430014
  14.3449992 126.2669978  83.6870014  15.4559992 128.0799978  83.0120014
  15.5569992 129.1269978  83.3720014  16.3799992 127.5409978  83.3110014
  15.5349992 128.0319978  81.4470014  15.7449992 126.9739978  81.1810014
  14.5389992 128.2419978  81.0010014  16.4739992 129.1039978  80.8750014
  16.0189992 130.1169978  80.9110014  17.2939992 129.0149978  81.6190014
  17.1259992 128.9599978  79.5320014  17.9449992 128.2219978  79.6680014
  16.4409992 128.5319978  78.7690014  17.9419992 130.2059978  79.0510014
  17.2529992 131.0639978  79.2110014  18.8279992 130.2279978  79.7210014
  18.4249992 130.1929978  77.5990014  19.2699992 130.9119978  77.5440014
  18.7309992 129.1629978  77.3190014  17.3579992 130.5359978  76.5590014
  17.2879992 129.6049978  75.9570014  16.3569992 130.8379978  76.9340014
  17.8699992 131.5489978  75.4520014  17.6289992 132.5359978  75.9020014
  18.9799992 131.5819978  75.5060014  17.1289992 131.2829978  74.0770014
  17.4959992 130.2779978  73.7810014  16.0699992 131.1189978  74.3730014
  17.0629992 132.3679978  72.9970014  16.6169992 133.3049978  73.3960014
  18.1109992 132.6309978  72.7390014  16.5049992 131.9789978  71.6480014
  15.4059992 131.9739978  71.8150014  16.6489992 132.9149978  71.0680014
  17.1469992 130.7649978  70.9860014  18.2339992 130.8949978  71.1730014
  16.7419992 129.7819978  71.3110014  16.9989992 130.8139978  69.4720014
  17.7579992 131.0839978  68.5770014  15.6789992 130.4469978  69.2200014
  15.3989992 130.1659978  67.8580014  14.3999992 130.5869978  67.6130014
  16.1799992 130.5389978  67.1610014  15.3479992 128.6369978  67.7770014
  16.2209992 128.2219978  68.3260014  15.4659992 128.1019978  66.3930014
  16.5089992 128.3289978  66.0840014  15.4489992 126.9919978  66.3470014
  14.5479992 128.7359978  65.5270014  14.6999992 128.6089978  63.9560014
  15.4059992 130.0209978  63.8350014  14.6699992 131.2619978  63.7450014
  14.5359992 131.5389978  62.6780014  13.6419992 131.1249978  64.1430014
  15.3629992 132.4229978  64.5070014  14.7889992 133.3359978  64.4380014
  15.3049992 132.2299978  65.5680014  16.7709992 132.8219978  64.1310014
  16.9059992 132.7959978  62.6570014  16.1219992 133.4659978  62.3360014
  17.8069992 133.2669978  62.2920014  16.7719992 131.7799978  62.3150014
  16.9129992 134.2149978  64.6280014  17.1129992 134.3219978  65.6840014
  17.8439992 134.6289978  64.2680014  16.0449992 134.8159978  64.4010014
  17.7479992 131.8149978  64.6340014  17.8169992 131.6739978  65.7020014
  18.7279992 132.2239978  64.4370014  17.4459992 130.8739978  64.1980014
  15.6379992 127.5589978  63.6360014  13.4049992 128.6029978  63.2510014
  14.0639992 128.2489978  68.4270014  14.0789992 127.0429978  69.0080014
  14.9709992 126.2459978  68.9300014  12.7159992 126.8239978  69.6210014
  12.2699992 125.8919978  69.2120014  12.0169992 127.6169978  69.2790014
  12.8879992 126.7369978  71.1580014  13.7459992 126.0949978  71.4530014
  12.0089992 126.2839978  71.6640014  12.9479992 128.0749978  71.8740014
  11.9839992 128.6119978  71.7430014  13.7049992 128.7079978  71.3630014
  13.2689992 127.9009978  73.3900014  14.2399992 127.3659978  73.4750014
  12.4649992 127.3939978  73.9660014  13.3709992 129.1569978  74.1840014
  12.7689992 130.0189978  73.8250014  14.3909992 129.5809978  74.0670014
  13.0339992 128.8889978  75.6610014  13.5449992 127.9629978  76.0010014
  11.9629992 128.5969978  75.6980014  13.2719992 130.0059978  76.6400014
  14.3459992 130.2589978  76.5100014  13.3979992 129.5459978  77.6440014
  12.6319992 131.4019978  76.5920014  12.4709992 131.7629978  75.5650014
  12.6079992 132.2739978  77.6050014  12.0759992 133.2109978  77.3820014
  13.1049992 132.2639978  79.0060014  13.5089992 131.2809978  79.3310014
  12.1759992 132.5009978  79.5670014  14.1539992 133.3469978  79.2310014
  13.7389992 134.3589978  79.0360014  15.0739992 133.1999978  78.6260014
  14.6319992 133.2519978  80.7210014  15.4039992 134.0489978  80.7840014
  15.1809992 132.2919978  80.8210014  13.5719992 133.3209978  81.7330014
  12.9589992 132.3979978  81.6420014  12.9299992 134.2229978  81.6470014
  14.2229992 133.4009978  83.1940014  13.4159992 133.6339978  83.9220014
  14.7919992 134.3549978  83.1800014  14.8229992 132.1449978  83.7320014
  15.7949992 131.9459978  83.2300014  14.0819992 131.3229978  83.6350014
  14.9349992 132.1939978  85.2700014  13.9229992 132.4239978  85.6650014
  15.7079992 132.9809978  85.4020014  15.4639992 130.9269978  85.9710014
  14.6249992 130.2279978  85.7670014  15.5989992 131.0189978  87.0700014
  16.3999992 130.6579978  85.4360014   0.1239992 108.9619978  84.2610014
  -0.7310008 108.4609978  83.7570014  -0.0690008 110.0559978  84.2410014
   0.0109992 108.6219978  85.3130014   1.4929992 108.5659978  83.8000014
   2.3049992 109.0349978  84.3960014   1.5019992 107.4649978  83.9490014
   1.7919992 109.0509978  82.4120014   1.0019992 108.8309978  81.6620014
   1.9979992 110.1319978  82.2640014   3.0969992 108.3539978  81.9060014
   3.9939992 108.8179978  82.3690014   3.0049992 107.2629978  82.0930014
   3.3649992 108.4979978  80.4230014   4.3969992 108.1219978  80.2510014
   2.5929992 107.9299978  79.8610014   3.3509992 109.9249978  79.8130014
   2.3239992 110.3399978  79.8990014   4.0499992 110.4929978  80.4640014
   3.9169992 110.0079978  78.3760014   5.0089992 109.8299978  78.4760014
   3.3679992 109.2269978  77.8070014   3.6399992 111.3819978  77.8060014
   2.5659992 111.6559978  77.7250014   4.1549992 112.0709978  78.5080014
   4.3229992 111.6679978  76.4800014   4.1889992 112.7339978  76.2000014
   5.4069992 111.4599978  76.6060014   3.7179992 110.7449978  75.3590014
   3.8289992 109.7049978  75.7330014   2.6349992 110.9529978  75.2200014
   4.3209992 110.8429978  73.8790014   3.6529992 110.2649978  73.2060014
   4.2109992 111.9079978  73.5810014   5.7199992 110.4939978  73.6140014
   6.4089992 111.0089978  74.3170014   5.8339992 109.4419978  73.9530014
   6.1999992 110.7889978  72.1610014   5.7399992 111.5999978  71.5570014
   7.3059992 110.8659978  72.0930014   5.6979992 109.5379978  71.3220014
   6.1549992 108.5749978  71.6370014   4.5909992 109.5259978  71.4230014
   5.9929992 109.5989978  69.8570014   5.6209992 110.4759978  69.2860014
   7.0909992 109.6729978  69.7030014   5.5279992 108.3199978  69.1660014
   6.0519992 107.2139978  69.4430014   4.6089992 108.4839978  68.2050014
   3.9579992 107.4599978  67.5380014   4.3979992 107.3019978  66.5300014
   4.1129992 106.4909978  68.0580014   2.4809992 107.7179978  67.3790014
   2.1239992 106.7629978  66.9380014   2.1619992 108.9379978  66.4250014
   2.5579992 108.7409978  65.4060014   1.0579992 108.9959978  66.3140014
   2.6549992 110.1979978  66.9220014   3.5469992 111.0929978  65.9320014
   2.6779992 111.1559978  64.6100014   1.3379992 111.6799978  64.5270014
   0.7349992 111.0719978  65.2340014   1.3079992 112.7209978  64.9130014
   0.7299992 111.6699978  63.1290014  -0.3040008 111.9249978  63.3070014
   1.1249992 112.5359978  62.6180014   0.9479992 110.5629978  62.1290014
   0.4099992 110.8619978  60.7830014   0.8059992 111.7699978  60.3540014
   0.5869992 110.0639978  60.0760014  -0.6680008 110.9219978  60.8240014
   2.3919992 110.4579978  61.7860014   2.6979992 111.3289978  61.2260014
   2.9529992 110.5629978  62.7030014   2.5699992 109.5119978  61.2960014
   0.4069992 109.2579978  62.5790014  -0.6540008 109.3129978  62.7770014
   0.8639992 109.0309978  63.5310014   0.6179992 108.5129978  61.8270014
   3.6599992 112.4399978  66.4800014   4.7949992 110.3579978  65.6300014
   1.8959992 108.0039978  68.6670014   1.9809992 107.0429978  69.5800014
   2.1999992 105.8949978  69.5190014   1.4619992 107.7049978  70.8520014
   0.3669992 107.8909978  70.8490014   1.9399992 108.6669978  71.1370014
   1.8359992 106.9149978  72.0540014   2.9219992 106.6849978  72.1080014
   1.5159992 105.8509978  72.0300014   1.3539992 107.5099978  73.4320014
   1.9429992 108.4299978  73.6330014   1.6209992 106.7709978  74.2180014
  -0.1730008 107.6049978  73.5590014  -0.7740008 106.7289978  73.2310014
  -0.4570008 108.4719978  72.9240014  -0.5650008 107.7749978  75.0290014
  -0.1620008 106.9559978  75.6620014  -1.6700008 107.6709978  75.0740014
  -0.2190008 109.1519978  75.6320014  -0.7710008 109.9199978  75.0480014
   0.8789992 109.3089978  75.5670014  -0.6960008 109.5099978  77.0730014
  -1.8050008 109.5709978  77.0530014  -0.2860008 110.5039978  77.3520014
  -0.2720008 108.6179978  78.2240014   0.7429992 108.2049978  78.1320014
  -0.8910008 108.5869978  79.4570014  -0.4650008 107.9589978  80.2540014
  -2.0820008 109.4539978  79.9120014  -2.8830008 108.7439978  80.2110014
  -2.4210008 110.1429978  79.1100014  -1.7760008 110.2419978  81.1750014
  -1.1140008 109.7329978  81.9080014  -2.7690008 110.4819978  81.6110014
  -1.0970008 111.5509978  80.8370014  -1.4910008 112.1479978  79.9870014
  -0.0900008 111.2109978  80.5120014  -0.8260008 112.4029978  82.1620014
  -0.3020008 111.8459978  82.9670014  -1.8820008 112.5869978  82.4540014
   0.0579992 113.6459978  81.9250014  -0.0570008 114.4389978  82.6950014
  -0.2900008 114.1109978  80.9780014   1.6229992 113.4749978  81.8050014
   2.0059992 114.4909978  81.5660014   2.0439992 112.7479978  81.0790014
   2.3429992 113.0299978  83.1100014   1.5979992 112.2629978  83.4120014
   2.3019992 113.8229978  83.8870014   3.6649992 112.4269978  82.8200014
   4.2719992 113.1589978  82.2450014   3.6469992 111.5069978  82.1970014
   4.1589992 112.1169978  83.7650014 118.2569992 133.8159978  81.4620014
 119.0989992 134.1179978  82.1200014 117.7429992 132.9649978  81.9580014
 117.5959992 134.7069978  81.4010014 118.6919992 133.4419978  80.0350014
 117.8169992 133.4909978  79.3530014 119.3709992 134.1739978  79.5500014
 119.3039992 132.0499978  79.9080014 120.1959992 131.9409978  80.5610014
 118.6249992 131.1819978  80.0530014 119.8269992 131.6539978  78.5380014
 120.8309992 132.1029978  78.3780014 119.9009992 130.5499978  78.4380014
 118.7909992 132.0259978  77.4340014 117.7859992 131.8239978  77.8610014
 118.9239992 133.1209978  77.3010014 118.9999992 131.3609978  76.0910014
 118.6749992 130.3179978  76.2980014 118.2959992 131.8399978  75.3780014
 120.3879992 131.3649978  75.3670014 120.5979992 132.3399978  74.8780014
 121.2639992 131.0919978  75.9940014 120.5339992 130.3099978  74.3380014
 120.3319992 129.2499978  74.6020014 119.8119992 130.4079978  73.5000014
 121.9099992 130.3679978  73.6610014 122.6869992 130.0209978  74.3760014
 121.9179992 129.6209978  72.8380014 122.4079992 131.7189978  73.1770014
 122.5889992 132.6149978  73.8080014 123.4629992 131.5699978  72.8630014
 121.6259992 132.2489978  71.9490014 120.6819992 132.6769978  72.3490014
 122.2329992 133.1469978  71.7080014 121.2759992 131.2239978  70.8200014
 122.1609992 130.5779978  70.6350014 120.3929992 130.5959978  71.0610014
 120.9279992 131.8669978  69.4180014 121.8219992 132.4169978  69.0540014
 120.8219992 131.0029978  68.7280014 119.6569992 132.7279978  69.3040014
 118.8959992 132.0739978  69.7800014 119.7039992 133.5959978  69.9960014
 119.1349992 133.1899978  67.8880014 119.3219992 132.4499978  67.0810014
 118.0549992 133.4169978  68.0200014 119.8569992 134.4919978  67.6290014
 120.6609992 135.0079978  68.4140014 119.5379992 134.9619978  66.4520014
 120.2239992 136.0459978  65.8640014 119.4899992 136.6469978  65.2860014
 120.5909992 136.6979978  66.6850014 121.5039992 135.5159978  64.9840014
 121.9749992 136.4219978  64.5460014 121.0559992 134.5849978  63.8390014
 120.1119992 135.0169978  63.4430014 121.7259992 134.6079978  62.9530014
 120.8999992 133.2399978  64.3810014 119.9289992 132.2999978  63.4330014
 121.0189992 131.1559978  63.0690014 122.3319992 131.5629978  62.6510014
 122.7259992 130.7319978  62.0280014 122.2339992 132.4819978  62.0350014
 123.3369992 131.7519978  63.8210014 124.2889992 131.8569978  63.3220014
 123.1729992 132.6579978  64.3860014 123.4809992 130.7139978  64.8730014
 124.9089992 130.8929978  65.3730014 125.1419992 131.8759978  65.7570014
 125.0269992 130.2909978  66.2620014 125.5789992 130.5709978  64.5900014
 122.4099992 130.8529978  65.9920014 121.4069992 130.7899978  65.5960014
 122.5099992 130.0099978  66.6590014 122.4909992 131.7869978  66.5280014
 123.4149992 129.3619978  64.3210014 124.1729992 129.2659978  63.5580014
 122.4009992 129.1669978  64.0040014 123.7189992 128.5909978  65.0140014
 118.8929992 131.7439978  64.3740014 119.4629992 132.9959978  62.2180014
 122.3949992 134.7989978  65.8450014 123.4019992 135.4619978  66.3650014
 123.6779992 136.6289978  66.1170014 124.1269992 134.5099978  67.3150014
 125.2179992 134.5499978  67.1090014 123.8049992 133.4469978  67.2730014
 124.0899992 135.1179978  68.7780014 123.0569992 135.0109978  69.1740014
 124.3379992 136.1999978  68.7190014 124.9669992 134.4799978  69.8300014
 126.0099992 134.2909978  69.4970014 124.6019992 133.4359978  69.9340014
 125.0409992 135.1709978  71.1760014 125.9159992 135.8489978  71.0830014
 125.3069992 134.3629978  71.8910014 123.7449992 135.8659978  71.6010014
 122.8669992 135.2169978  71.3960014 123.4619992 136.7499978  70.9900014
 123.6869992 136.4559978  73.0730014 124.5039992 137.2089978  73.0680014
 124.0369992 135.7319978  73.8400014 122.2439992 137.0309978  73.4890014
 121.9669992 137.8279978  72.7670014 122.3239992 137.6229978  74.4260014
 121.1149992 135.9829978  73.4880014 120.8639992 135.5279978  72.5190014
 120.4539992 135.5479978  74.5500014 119.6599992 134.8029978  74.3920014
 120.7119992 135.9819978  76.0450014 119.7869992 135.6899978  76.5850014
 120.8079992 137.0879978  76.0420014 122.0139992 135.4349978  76.5940014
 122.8829992 135.5699978  75.9150014 121.8679992 134.3349978  76.6550014
 122.4049992 135.7549978  78.1030014 121.6999992 135.3179978  78.8430014
 122.3739992 136.8339978  78.3660014 123.7439992 135.1629978  78.5190014
 123.9919992 135.6779978  79.4720014 124.4829992 135.3889978  77.7210014
 123.5969992 133.6459978  78.5060014 123.3859992 133.3589978  77.4540014
 122.7229992 133.4329978  79.1580014 124.8639992 132.8229978  79.0490014
 125.7399992 133.0589978  78.4070014 124.5409992 131.7599978  79.0100014
 125.3529992 133.1859978  80.4640014 126.0639992 134.0229978  80.6340014
 126.0039992 132.3219978  80.7170014 124.2399992 133.2659978  81.6030014
 124.7319992 133.3289978  82.5970014 123.6289992 132.3379978  81.6000014
 123.5559992 134.1169978  81.3940014 140.3519992 113.2389978  86.1230014
 140.1139992 113.9579978  86.9360014 141.4379992 113.0229978  86.2120014
 139.7969992 112.2929978  86.3030014 140.0639992 113.8049978  84.8110014
 139.0169992 114.1549978  84.6890014 140.6859992 114.7069978  84.6240014
 140.4809992 112.8729978  83.7130014 141.5819992 113.0169978  83.7220014
 140.1319992 111.8349978  83.9010014 139.9019992 113.3419978  82.3470014
 138.7909992 113.3729978  82.3490014 140.4199992 114.2829978  82.0640014
 140.1889992 112.3919978  81.1120014 141.2849992 112.2659978  80.9850014
 139.6769992 111.4359978  81.3540014 139.6739992 112.9079978  79.7230014
 138.5689992 112.9539978  79.8280014 140.1169992 113.9239978  79.6520014
 140.2379992 112.0609978  78.6190014 141.3199992 112.2779978  78.4930014
 140.0619992 110.9849978  78.8290014 139.7829992 112.2809978  77.1580014
 138.6989992 112.0499978  77.2420014 139.8959992 113.3539978  76.8930014
 140.4309992 111.3979978  76.0290014 140.4669992 110.3709978  76.4510014
 139.8329992 111.4839978  75.0970014 141.9439992 111.7949978  75.7600014
 142.4859992 111.2959978  76.5910014 142.1909992 111.3759978  74.7610014
 142.3759992 113.3249978  75.7750014 141.5359992 113.8399978  75.2630014
 142.5169992 113.7099978  76.8080014 143.6759992 113.6049978  75.1520014
 143.8219992 114.7049978  75.1060014 144.5259992 113.1739978  75.7230014
 143.8819992 113.0839978  73.7210014 144.9109992 113.4739978  73.5670014
 143.9409992 111.9939978  73.5160014 142.8979992 113.7639978  72.8140014
 141.8199992 113.5029978  72.8790014 142.9639992 114.8419978  73.0750014
 143.3859992 113.5269978  71.3440014 143.1939992 114.4909978  70.8250014
 144.4759992 113.3469978  71.2330014 142.6649992 112.3339978  70.8260014
 142.8949992 111.1309978  71.0050014 141.7219992 112.7959978  70.0330014
 140.7999992 112.0279978  69.2240014 141.3169992 111.2679978  68.5980014
 140.0169992 111.6829978  69.9320014 140.1099992 113.0309978  68.1770014
 139.2979992 112.5349978  67.6040014 141.1999992 113.5649978  67.2190014
 142.1259992 113.7029978  67.8170014 141.4259992 112.7679978  66.4790014
 140.8969992 114.8309978  66.7540014 140.9349992 115.0859978  65.2110014
 139.8689992 114.1149978  64.5770014 138.4819992 113.9989978  65.0630014
 138.1989992 112.9279978  65.1490014 138.4029992 114.4309978  66.0840014
 137.5629992 114.7879978  64.1560014 136.5429992 114.7419978  64.5060014
 137.9109992 115.8049978  64.2600014 137.5019992 114.5259978  62.6230014
 136.0929992 114.7999978  62.1420014 136.0289992 114.6829978  61.0700014
 135.3679992 114.2109978  62.6840014 135.9579992 115.8659978  62.2530014
 138.4469992 115.4739978  61.9000014 138.1799992 116.4929978  62.1410014
 139.4889992 115.2819978  62.1120014 138.2869992 115.3839978  60.8360014
 137.8309992 113.1249978  62.4320014 137.3179992 112.4269978  63.0770014
 138.8389992 112.8309978  62.6830014 137.7439992 112.8799978  61.3830014
 140.6149992 116.4849978  64.9980014 142.2319992 114.7429978  64.6490014
 139.4659992 114.1369978  68.8270014 138.3709992 113.8089978  69.5510014
 137.8599992 112.7389978  69.6050014 137.8449992 114.9719978  70.3250014
 136.8989992 115.3479978  69.8800014 138.5119992 115.8599978  70.3140014
 137.6019992 114.6189978  71.7700014 136.8569992 113.8259978  71.9960014
 137.2499992 115.5619978  72.2380014 138.9119992 114.4089978  72.5820014
 139.7489992 114.9399978  72.0790014 139.0549992 113.3069978  72.5620014
 138.8279992 115.1129978  73.9350014 139.5429992 114.5469978  74.5700014
 137.7859992 115.0089978  74.3050014 139.4309992 116.6019978  73.9360014
 138.4859992 117.1259978  73.6790014 140.3059992 116.6459978  73.2530014
 140.0019992 116.8599978  75.3130014 140.4419992 117.8779978  75.3750014
 140.8719992 116.1739978  75.4080014 139.0029992 116.7629978  76.4840014
 139.6729992 117.1089978  77.3000014 138.8489992 115.7149978  76.8190014
 137.7249992 117.5309978  76.2450014 137.6879992 118.1329978  75.3250014
 136.5709992 117.4579978  76.9620014 135.6819992 118.0709978  76.7510014
 136.3189992 116.6429978  78.1910014 136.4359992 115.5419978  78.1020014
 135.3249992 116.9749978  78.5600014 137.2299992 116.9389978  79.4040014
 137.1209992 117.9999978  79.7180014 138.2599992 116.5889978  79.1790014
 136.7769992 116.0059978  80.6200014 136.7379992 114.9529978  80.2670014
 135.7529992 116.3889978  80.8160014 137.7109992 116.1099978  81.8660014
 138.6619992 115.6659978  81.5020014 137.2529992 115.4789978  82.6570014
 137.7529992 117.5649978  82.4390014 136.7979992 118.1229978  82.3350014
 138.5509992 118.0279978  81.8210014 138.1559992 117.5849978  83.9050014
 138.9919992 116.8699978  84.0600014 137.2709992 117.2209978  84.4690014
 138.5299992 118.9989978  84.4000014 139.3649992 119.4829978  83.8510014
 138.9919992 119.0039978  85.4110014 137.3669992 120.0689978  84.4780014
 137.8119992 120.9349978  85.0120014 136.6079992 119.6589978  85.1780014
 136.9359992 120.3989978  83.5090014 105.3689992 142.1799978  80.7220014
 104.7769992 142.9959978  81.1890014 106.3649992 142.6409978  80.8950014
 105.0769992 141.2449978  81.2460014 105.1229992 142.2719978  79.2040014
 104.0359992 142.1749978  78.9980014 105.3839992 143.3119978  78.9140014
 105.8349992 141.2449978  78.3290014 106.9219992 141.3899978  78.5050014
 105.4749992 140.2169978  78.5460014 105.6239992 141.5439978  76.8080014
 106.1099992 142.5179978  76.5880014 106.2419992 140.7479978  76.3400014
 104.1789992 141.4459978  76.2820014 103.3939992 141.9079978  76.9180014
 104.1499992 142.0389978  75.3430014 103.8589992 140.0009978  75.9250014
 104.0899992 139.3099978  76.7640014 102.7699992 140.0109978  75.7050014
 104.6899992 139.3999978  74.7670014 104.4639992 139.8879978  73.7940014
 105.7809992 139.4319978  74.9740014 104.3869992 137.8999978  74.5530014
 104.6959992 137.2529978  75.4020014 103.2939992 137.7309978  74.4490014
 105.2199992 137.2719978  73.4440014 106.2829992 136.9799978  73.5760014
 104.8089992 136.2829978  73.1490014 105.0669992 137.9329978  72.0700014
 104.0129992 138.2729978  71.9790014 105.6459992 138.8769978  71.9850014
 105.3409992 137.0719978  70.8270014 106.3629992 136.6529978  70.9430014
 104.7349992 136.1409978  70.8000014 105.2649992 137.8219978  69.4740014
 106.2249992 138.3669978  69.3490014 105.3179992 137.0029978  68.7250014
 103.9799992 138.6829978  69.1500014 103.1599992 137.9339978  69.1290014
 103.7079992 139.3199978  70.0190014 104.0089992 139.4019978  67.8070014
 104.9249992 140.0139978  67.6620014 103.8999992 138.5759978  67.0720014
 102.8719992 140.3859978  67.6580014 101.9309992 139.7999978  67.7200014
 102.7959992 141.0929978  68.5120014 102.9569992 141.2329978  66.3330014
 102.4989992 140.9229978  65.2620014 103.7489992 142.2269978  66.5610014
 104.2949992 142.8459978  65.3650014 104.3429992 142.1939978  64.4670014
 103.6129992 143.7049978  65.1890014 105.7169992 143.4499978  65.5200014
 105.7029992 144.5609978  65.4950014 106.7639992 142.8869978  64.5430014
 106.3079992 143.0959978  63.5520014 107.6729992 143.5189978  64.4570014
 106.9899992 141.5249978  64.6750014 108.0989992 140.7029978  63.8480014
 108.0699992 139.2689978  64.3560014 107.4179992 138.8339978  65.5430014
 108.0319992 138.8899978  66.4660014 106.5389992 139.4889978  65.7230014
 106.8029992 137.4359978  65.3440014 107.5779992 136.7019978  65.5090014
 106.0259992 137.3039978  66.0820014 106.1759992 137.1529978  63.8840014
 107.2459992 137.0719978  62.7730014 107.5599992 136.0399978  62.7180014
 106.7969992 137.2109978  61.8010014 108.0859992 137.7489978  62.8270014
 105.4039992 135.8989978  64.0280014 104.8979992 135.6109978  63.1180014
 106.0799992 135.0719978  64.1860014 104.6779992 135.9889978  64.8230014
 105.2349992 138.2629978  63.4790014 105.7159992 139.2299978  63.4880014
 104.4039992 138.2459978  64.1680014 104.9089992 138.1529978  62.4550014
 107.6719992 140.7069978  62.4340014 109.3919992 141.2589978  64.1430014
 106.1929992 143.1839978  66.8700014 107.2309992 143.7429978  67.4060014
 108.0369992 144.4599978  66.8090014 107.1899992 143.2989978  68.8370014
 106.5459992 143.9149978  69.5000014 108.2399992 143.3679978  69.1930014
 106.6899992 141.8599978  69.0620014 107.0459992 141.0229978  68.4240014
 105.5859992 141.9729978  69.0100014 106.9429992 141.5079978  70.4870014
 108.0529992 141.4859978  70.5340014 106.6189992 140.4679978  70.7020014
 106.3639992 142.5279978  71.5230014 105.2799992 142.5349978  71.2820014
 106.8059992 143.5349978  71.3650014 106.4939992 142.1549978  73.0220014
 105.7689992 141.3549978  73.2850014 106.1959992 143.0369978  73.6300014
 107.9819992 141.7919978  73.4720014 108.4999992 140.9699978  72.9320014
 107.8179992 141.4679978  74.5220014 108.8739992 143.0099978  73.3730014
 108.4749992 143.8859978  73.9280014 109.0089992 143.1399978  72.2780014
 110.2699992 142.8959978  73.9420014 111.0929992 142.8209978  73.2150014
 110.7009992 142.7629978  75.2130014 111.7689992 142.5539978  75.3720014
 109.9239992 142.6559978  76.4780014 108.8619992 142.8519978  76.2200014
 110.0479992 143.4849978  77.2070014 109.8909992 141.3539978  77.3300014
 109.7289992 140.5369978  76.5950014 108.9469992 141.4379978  77.9090014
 111.1989992 141.0479978  78.1670014 112.0349992 141.1509978  77.4430014
 111.0629992 140.0299978  78.5920014 111.4879992 142.1009978  79.3000014
 111.6519992 143.0709978  78.7840014 112.4259992 141.8899978  79.8560014
 110.3479992 142.3299978  80.3240014 109.7169992 143.2069978  80.0660014
 110.8929992 142.5119978  81.2740014 109.5529992 141.0309978  80.6760014
 110.1099992 140.0849978  80.5060014 108.8099992 141.0259978  79.8500014
 108.9499992 141.1229978  82.1000014 108.2539992 141.9889978  82.0890014
 109.8149992 141.2199978  82.7910014 108.0769992 139.9469978  82.4460014
 107.6989992 139.9349978  83.4900014 108.6599992 139.0309978  82.2080014
 107.2039992 139.8869978  81.7610014 140.4069992  39.3859978  86.0530014
 141.4759992  39.5729978  86.2930014 140.3029992  38.3149978  85.7780014
 139.8099992  39.5289978  86.9790014 140.0519992  40.3239978  84.9360014
 138.9499992  40.3799978  84.8110014 140.3779992  41.3469978  85.2220014
 140.6039992  39.9909978  83.5270014 141.7069992  40.0899978  83.6100014
 140.2459992  38.9499978  83.3820014 140.0499992  41.0009978  82.4710014
 138.9619992  40.8049978  82.3650014 140.3049992  42.0199978  82.8320014
 140.5959992  40.7379978  81.0340014 141.7039992  40.8009978  81.0940014
 140.3189992  39.6739978  80.8750014 139.8909992  41.6699978  80.0620014
 138.8169992  41.3919978  80.1190014 139.9589992  42.7289978  80.3930014
 140.3109992  41.5499978  78.5630014 140.1869992  40.4639978  78.3660014
 139.5839992  42.1539978  77.9800014 141.7469992  42.0349978  78.2360014
 141.6359992  43.1359978  78.1350014 142.2939992  41.8859978  79.1910014
 142.3979992  41.5409978  76.8930014 143.3119992  42.1719978  76.8580014
 142.5939992  40.4499978  76.9620014 141.6629992  42.0069978  75.6370014
 140.6409992  41.5729978  75.6140014 141.7339992  43.1149978  75.5900014
 142.3469992  41.4659978  74.3450014 143.2139992  42.1179978  74.1050014
 142.6289992  40.4399978  74.6620014 141.5049992  41.3479978  73.1080014
 142.1339992  41.2259978  72.2000014 140.9479992  40.4129978  73.3340014
 140.4649992  42.4989978  72.8230014 139.7389992  42.5679978  73.6620014
 141.0899992  43.4149978  72.7520014 139.6459992  42.1179978  71.5930014
 140.3589992  42.1069978  70.7410014 139.2819992  41.0699978  71.6420014
 138.5459992  43.0849978  71.1290014 137.7329992  43.0909978  71.8860014
 139.0779992  44.0569978  71.0550014 137.9039992  42.4919978  69.8180014
 137.1499992  41.5229978  69.7960014 138.3579992  43.1989978  68.7400014
 137.9049992  42.5639978  67.5090014 137.4119992  41.5699978  67.5680014
 137.2469992  43.3389978  67.0620014 139.1249992  42.3139978  66.5630014
 139.3679992  43.3249978  66.1710014 138.7879992  41.3799978  65.3120014
 137.9229992  41.7719978  64.7360014 139.6519992  41.3779978  64.6140014
 138.5879992  40.0709978  65.8960014 138.6699992  38.8199978  64.9330014
 140.2119992  38.6329978  64.6960014 140.8199992  39.1799978  63.5690014
 140.1689992  39.9289978  63.0690014 141.7359992  39.7259978  63.8790014
 141.4319992  38.0799978  62.6370014 140.6559992  37.5879978  62.0700014
 142.0919992  38.5739978  61.9400014 142.3859992  37.0059978  63.1790014
 141.7219992  36.1419978  64.2380014 140.8169992  35.7189978  63.8260014
 142.3309992  35.3039978  64.5440014 141.6069992  36.7589978  65.1160014
 142.8999992  36.1829978  62.1070014 142.0439992  35.6689978  61.6950014
 143.2529992  36.7759978  61.2770014 143.7919992  35.6449978  62.3920014
 143.5659992  37.7129978  63.8980014 143.9719992  38.3609978  63.1360014
 144.3109992  36.9769978  64.1630014 143.2869992  38.3889978  64.6930014
 138.1979992  37.6419978  65.7200014 137.9239992  39.1349978  63.6320014
 140.1889992  41.6489978  67.3380014 141.3839992  41.7119978  66.8420014
 141.6889992  42.4879978  65.9180014 142.3759992  40.8639978  67.7060014
 142.8589992  41.6039978  68.3790014 143.1489992  40.4549978  67.0190014
 141.7429992  39.6319978  68.5130014 141.1129992  39.0319978  67.8220014
 141.0289992  40.0579978  69.2510014 142.8319992  38.7379978  69.1200014
 143.4779992  39.3819978  69.7540014 143.3589992  38.1689978  68.3240014
 142.1809992  37.8599978  70.1880014 141.5939992  37.0359978  69.7290014
 141.5339992  38.5119978  70.8120014 143.2199992  37.1939978  71.1120014
 143.6739992  37.9029978  71.8360014 143.9669992  36.6669978  70.4800014
 142.6079992  36.2029978  72.0640014 143.3899992  35.7059978  72.6770014
 142.2099992  35.3459978  71.4810014 141.5329992  36.7519978  73.0290014
 141.0919992  35.8019978  73.3990014 140.7359992  37.2759978  72.4580014
 142.1619992  37.5799978  74.1170014 143.2389992  37.7569978  73.9770014
 141.4759992  37.9919978  75.2170014 142.0449992  38.6249978  75.9150014
 140.0529992  37.7779978  75.5400014 139.4829992  37.2859978  74.7230014
 139.6789992  38.8119978  75.6970014 139.7719992  37.0199978  76.8000014
 140.4139992  36.1519978  77.0640014 138.7379992  36.6149978  76.8250014
 139.7659992  37.8729978  78.0970014 139.0309992  38.6859978  77.9150014
 140.8029992  38.2229978  78.2890014 139.2149992  37.0449978  79.2690014
 138.1519992  36.8189978  79.0390014 139.0939992  37.6799978  80.1730014
 140.0119992  35.6789978  79.4790014 141.0789992  35.9069978  79.2710014
 139.6119992  34.9189978  78.7740014 139.6129992  35.0589978  80.8180014
 139.9539992  34.0019978  80.8440014 138.5049992  35.0899978  80.8970014
 140.2899992  35.6789978  82.1310014 140.2939992  36.7869978  82.0510014
 141.3869992  35.5169978  82.1990014 139.5719992  35.2329978  83.3430014
 138.5369992  35.6349978  83.3850014 140.2089992  35.3809978  84.2410014
 139.3099992  34.1529978  83.3310014  56.5979992   1.6679978  82.4780014
  57.5749992   1.1519978  82.5930014  56.4299992   1.4749978  81.3970014
  55.7709992   1.1809978  83.0370014  56.8019992   3.1099978  82.8470014
  56.9659992   3.1969978  83.9430014  57.7099992   3.5749978  82.4080014
  55.6359992   4.0169978  82.3960014  55.9009992   5.0789978  82.5870014
  55.5279992   4.0399978  81.2900014  54.2849992   3.6839978  83.1530014
  53.8969992   2.7099978  82.7870014  54.2519992   3.8159978  84.2550014
  53.1749992   4.7719978  82.7090014  52.4949992   4.9219978  83.5750014
  53.6739992   5.7549978  82.5740014  52.2259992   4.4609978  81.4950014
  51.9779992   3.3849978  81.6130014  51.2579992   4.9599978  81.7140014
  52.7109992   4.7749978  80.0660014  52.7819992   5.8769978  79.9410014
  53.7709992   4.4419978  80.0360014  51.7979992   4.3259978  78.9380014
  51.5779992   3.2379978  78.9850014  50.8249992   4.8419978  79.0810014
  52.3659992   4.7079978  77.5740014  51.4649992   4.6659978  76.9250014
  52.7699992   5.7389978  77.6630014  53.3889992   3.6759978  77.0480014
  54.3259992   3.7969978  77.6320014  52.9659992   2.6519978  77.1220014
  53.6749992   3.7549978  75.4780014  53.8409992   4.8289978  75.2440014
  54.6039992   3.1759978  75.2910014  52.5629992   3.1959978  74.5450014
  52.3049992   2.1299978  74.7240014  51.6359992   3.7639978  74.7730014
  52.9519992   3.4809978  73.0730014  51.9689992   3.3189978  72.5820014
  53.1039992   4.5699978  72.9110014  54.0809992   2.7099978  72.3670014
  54.9729992   2.8749978  73.0100014  53.8699992   1.6229978  72.4590014
  54.3289992   3.1979978  70.9470014  53.3319992   3.0969978  70.4670014
  54.7629992   4.2179978  71.0120014  55.3179992   2.2139978  70.4450014
  56.3019992   1.8419978  71.0050014  54.9089992   1.6779978  69.2910014
  55.8379992   0.6789978  68.7910014  56.9049992   0.9729978  68.8880014
  55.6689992  -0.2990022  69.2910014  55.5029992   0.3529978  67.2410014
  56.1799992  -0.4830022  66.9620014  55.8899992   1.6159978  66.4310014
  56.9559992   1.8739978  66.6070014  55.7339992   1.3289978  65.3690014
  55.0549992   2.7509978  66.8140014  53.9499992   3.3859978  65.9860014
  53.7979992   2.4859978  64.7280014  54.1529992   2.7289978  63.4100014
  55.0299992   3.4049978  63.3140014  54.5679992   1.7649978  63.0440014
  52.9179992   3.2039978  62.5310014  52.5879992   4.1419978  62.9530014
  53.3499992   3.5899978  61.6190014  51.8309992   2.2669978  62.2530014
  52.3689992   1.2069978  61.3770014  53.3709992   0.9199978  61.6600014
  51.7709992   0.3109978  61.4460014  52.6309992   1.5779978  60.3970014
  51.3739992   1.4989978  63.4940014  51.0679992   2.2259978  64.2310014
  50.5899992   0.8959978  63.0590014  52.1419992   0.8719978  63.9210014
  50.6709992   2.9759978  61.6500014  50.8969992   3.4299978  60.6960014
  50.3019992   3.7739978  62.2770014  49.8649992   2.2579978  61.6080014
  52.6609992   3.4029978  66.6830014  54.4479992   4.7069978  65.5810014
  54.0829992   0.1819978  66.9630014  53.5019992  -0.9230022  67.3400014
  54.0299992  -1.9250022  67.9020014  51.9839992  -0.7100022  67.2100014
  51.8459992  -0.7180022  66.1080014  51.6929992   0.2949978  67.5840014
  51.1079992  -1.7230022  67.9270014  51.2519992  -2.7160022  67.4510014
  50.0599992  -1.3750022  67.7980014  51.3079992  -1.8730022  69.4310014
  52.2639992  -2.4370022  69.3900014  50.5369992  -2.5210022  69.8980014
  51.5199992  -0.6320022  70.3410014  50.5539992  -0.0850022  70.3000014
  52.1729992   0.1129978  69.8370014  51.8259992  -0.8830022  71.8360014
  51.1169992  -1.6720022  72.1640014  51.6419992   0.0979978  72.3250014
  53.3399992  -1.2160022  72.0140014  53.8349992  -0.3860022  71.4660014
  53.7009992  -2.1920022  71.6230014  53.8259992  -1.1660022  73.5070014
  53.6349992  -0.1150022  73.8110014  54.9259992  -1.2610022  73.3840014
  53.1979992  -2.2350022  74.3750014  53.5139992  -3.2800022  74.2460014
  52.1279992  -2.0730022  75.2110014  51.7449992  -2.9290022  75.7870014
  51.3589992  -0.7460022  75.4380014  50.2959992  -0.8190022  75.1230014
  51.9349992  -0.0670022  74.7740014  51.3859992  -0.1970022  76.9520014
  50.7839992  -0.9830022  77.4570014  50.8339992   0.7639978  76.8740014
  52.7089992  -0.1310022  77.7560014  53.4609992   0.4539978  77.1840014
  53.0519992  -1.1870022  77.7920014  52.5289992   0.3189978  79.2410014
  51.5119992   0.1069978  79.6340014  52.6469992   1.4209978  79.1640014
  53.5409992  -0.2840022  80.2660014  54.0149992   0.5419978  80.8390014
  54.3039992  -0.8540022  79.6950014  53.0269992  -1.3970022  81.2220014
  53.8549992  -1.9130022  81.7530014  52.6189992  -2.1490022  80.5140014
  51.9189992  -1.0190022  82.2430014  51.0399992  -0.6120022  81.7000014
  52.2809992  -0.3690022  83.0680014  51.3399992  -2.1810022  83.1250014
  50.4209992  -1.7770022  83.6010014  52.1569992  -2.6680022  83.7000014
  51.0369992  -2.8330022  82.2770014  18.0129992  14.5309978  81.2720014
  18.7359992  14.3789978  80.4420014  17.7809992  13.5419978  81.7220014
  18.4579992  15.1309978  82.0940014  16.7019992  15.2659978  80.8150014
  16.2409992  14.6759978  79.9930014  15.9549992  15.1029978  81.6210014
  16.7909992  16.6949978  80.5330014  15.8079992  17.0779978  80.1870014
  16.9289992  17.2359978  81.4940014  17.9049992  17.1139978  79.5770014
  17.7599992  18.2139978  79.6280014  18.9369992  16.9989978  79.9720014
  17.7619992  16.4449978  78.1840014  17.5599992  15.3549978  78.2550014
  16.9229992  17.0169978  77.7350014  18.8949992  16.5349978  77.1740014
  18.5169992  16.0629978  76.2420014  19.0469992  17.6129978  76.9530014
  20.2009992  15.9449978  77.6340014  20.6979992  16.7569978  78.2080014
  19.9999992  15.0599978  78.2750014  21.0699992  15.4499978  76.4680014
  20.4819992  14.7509978  75.8350014  21.2889992  16.4139978  75.9620014
  22.4019992  14.9609978  77.0630014  22.8329992  15.7799978  77.6780014
  22.1939992  14.1049978  77.7390014  23.3669992  14.4139978  75.9680014
  24.3749992  14.2309978  76.4000014  22.9489992  13.4899978  75.5150014
  23.6219992  15.3889978  74.8520014  22.7019992  15.6359978  74.2810014
  24.1019992  16.3309978  75.1920014  24.5269992  14.5939978  73.8490014
  25.5659992  14.4459978  74.2140014  24.0749992  13.5809978  73.7870014
  24.6679992  15.0509978  72.3580014  25.3749992  14.3499978  71.8650014
  23.6489992  15.1839978  71.9340014  25.4019992  16.4779978  72.2380014
  24.5539992  17.1399978  72.5160014  26.1679992  16.3929978  73.0380014
  26.1499992  16.6689978  70.9450014  26.7879992  17.5729978  71.0460014
  26.8139992  15.7949978  70.7680014  25.1519992  16.8949978  69.9070014
  24.6999992  18.0039978  69.5930014  24.8909992  15.7889978  69.2210014
  24.2119992  15.9459978  67.9670014  24.2319992  16.9849978  67.5720014
  24.9019992  15.4099978  67.2810014  22.7719992  15.3849978  68.0520014
  22.8209992  14.3209978  68.3690014  22.1659992  15.3069978  66.5740014
  22.4259992  14.3779978  66.0220014  21.0669992  15.2799978  66.7310014
  22.4729992  16.3899978  65.7100014  21.5859992  17.6459978  65.5170014
  20.2209992  17.0209978  65.0870014  19.8929992  16.2589978  63.9480014
  20.7899992  15.6579978  63.6880014  18.9659992  15.6859978  64.1660014
  19.6009992  17.0139978  62.6170014  20.5709992  17.3619978  62.2930014
  19.2019992  16.1859978  62.0490014  18.5839992  18.0669978  62.6140014
  18.2589992  18.5449978  61.2020014  17.7139992  19.4779978  61.2140014
  19.0919992  18.5059978  60.5160014  17.5099992  17.8279978  60.9030014
  17.3019992  17.7049978  63.3060014  16.9939992  16.7409978  62.9300014
  17.6059992  17.4339978  64.3060014  16.5679992  18.4709978  63.1020014
  19.1319992  19.3109978  63.3520014  19.8419992  19.7099978  62.6430014
  19.5219992  19.0909978  64.3350014  18.3239992  20.0199978  63.4570014
  21.3959992  18.3959978  66.8270014  22.1109992  18.4409978  64.3270014
  22.0089992  16.1609978  68.9550014  21.0189992  15.5909978  69.6470014
  20.6399992  14.4929978  69.3890014  20.6169992  16.5759978  70.7240014
  21.6059992  16.7939978  71.1820014  19.8159992  16.2029978  71.3960014
  20.0069992  17.7859978  70.0460014  19.3009992  17.4759978  69.2470014
  20.7849992  18.3619978  69.5010014  19.2629992  18.7119978  71.0700014
  18.6399992  17.9789978  71.6260014  18.7069992  19.4439978  70.4460014
  20.1429992  19.4099978  72.0390014  20.8229992  18.5909978  72.3590014
  19.5499992  19.6249978  72.9540014  20.7189992  20.7429978  71.5120014
  19.9239992  21.5199978  71.5200014  20.8789992  20.5609978  70.4280014
  21.8839992  21.3329978  72.2740014  21.3239992  21.4949978  73.2200014
  22.2729992  22.3059978  71.9050014  23.0099992  20.3199978  72.5250014
  23.2529992  20.0249978  71.4820014  22.7619992  19.4099978  73.1120014
  24.1329992  20.9909978  73.2060014  24.7589992  21.5239978  72.4760014
  24.4709992  20.9049978  74.4910014  25.4249992  21.4139978  74.6920014
  23.7389992  20.0999978  75.5270014  24.4839992  19.6589978  76.2240014
  23.1209992  19.2629978  75.1380014  22.8239992  21.1249978  76.2450014
  22.1169992  21.5639978  75.5090014  23.3499992  21.9749978  76.7300014
  21.8169992  20.5129978  77.1270014  21.4909992  19.5569978  76.6650014
  20.9349992  21.1539978  77.3380014  22.4239992  20.1059978  78.4990014
  23.3039992  19.5319978  78.1380014  21.7449992  19.4059978  79.0320014
  23.0919992  21.0359978  79.4960014  22.6349992  21.9959978  79.8190014
  24.0289992  21.3909978  79.0160014  23.4019992  20.3609978  80.8860014
  22.4139992  20.2689978  81.3860014  23.8999992  21.1189978  81.5280014
  24.1539992  19.0369978  80.8370014  24.9439992  19.0549978  80.0560014
  23.3769992  18.2919978  80.5640014  24.8069992  18.6249978  82.1310014
  25.4669992  19.4599978  82.4480014  25.3759992  17.6789978  82.0070014
  24.0389992  18.3539978  82.8860014 131.7239992 128.2619978  84.6880014
 130.8249992 128.8299978  84.3680014 132.2869992 129.0909978  85.1690014
 131.3249992 127.5589978  85.4510014 132.4889992 127.5569978  83.5550014
 133.4999992 127.1919978  83.8340014 131.9649992 126.5789978  83.5000014
 132.5319992 128.2019978  82.1740014 131.4989992 128.4019978  81.8170014
 132.9979992 129.2099978  82.2180014 133.1519992 127.3099978  81.0550014
 134.1799992 127.0929978  81.4170014 132.5989992 126.3489978  80.9880014
 133.1169992 127.9239978  79.5610014 132.0629992 128.2029978  79.3480014
 133.8249992 128.7789978  79.5980014 133.6379992 126.8139978  78.5420014
 134.3379992 126.2689978  79.2100014 132.7419992 126.1599978  78.4750014
 134.2209992 127.2829978  77.1650014 135.0199992 128.0169978  77.4050014
 134.7289992 126.3339978  76.8900014 133.2069992 127.7079978  76.1730014
 133.5309992 127.4359978  75.1460014 132.3079992 127.0549978  76.1820014
 132.6049992 129.1469978  76.3560014 131.8879992 129.1329978  77.2040014
 133.4279992 129.7999978  76.7170014 131.9689992 129.7959978  75.2120014
 132.1229992 130.8959978  75.2180014 132.4749992 129.4189978  74.2970014
 130.4889992 129.6009978  75.1270014 130.3879992 128.4959978  75.0850014
 130.1749992 130.1219978  76.0570014 129.8689992 130.0119978  73.8700014
 128.8049992 129.7019978  73.9530014 129.9749992 131.0979978  73.6650014
 130.3819992 129.1819978  72.7450014 131.3889992 129.6009978  72.5300014
 130.3539992 128.0929978  72.9610014 129.5899992 129.3019978  71.4340014
 128.7239992 128.7529978  71.8610014 129.2999992 130.3549978  71.2310014
 130.1479992 128.6529978  70.1410014 130.3749992 127.6229978  70.4880014
 129.2809992 128.4559978  69.4740014 131.1709992 129.5969978  69.5510014
 130.9439992 130.7659978  69.2920014 132.2429992 128.8799978  69.3340014
 133.3809992 129.6779978  68.8040014 133.2479992 130.7779978  68.8790014
 134.3309992 129.5249978  69.3590014 133.6729992 129.1579978  67.3560014
 134.4679992 129.7799978  66.8940014 132.3859992 129.3139978  66.4710014
 131.9649992 130.3309978  66.6250014 132.6949992 129.1319978  65.4190014
 131.3319992 128.4249978  66.8160014 129.9219992 128.5239978  66.0690014
 130.3389992 127.8559978  64.7280014 130.5529992 126.3909978  64.6220014
 131.0719992 125.8979978  65.4720014 129.5599992 125.8939978  64.5970014
 131.3319992 126.0589978  63.3000014 132.3339992 126.4509978  63.3920014
 131.3699992 124.9809978  63.2390014 130.8229992 126.5309978  61.9560014
 131.7219992 126.0639978  60.8250014 131.3809992 126.4749978  59.8860014
 132.7359992 126.4219978  60.9190014 131.8329992 124.9899978  60.8450014
 129.4289992 125.9089978  61.7060014 129.1739992 126.2529978  60.7150014
 129.4979992 124.8319978  61.6580014 128.6999992 126.2789978  62.4120014
 130.7079992 128.0039978  61.8530014 130.0259992 128.3439978  62.6180014
 130.3219992 128.2929978  60.8870014 131.6729992 128.4849978  61.9250014
 128.8989992 127.7169978  66.6710014 129.5719992 129.9479978  65.9590014
 134.2199992 127.7979978  67.5100014 134.4849992 127.2749978  66.3570014
 134.6519992 127.8739978  65.2840014 134.7109992 125.7599978  66.5230014
 135.7919992 125.5209978  66.6230014 134.3989992 125.3189978  65.5520014
 134.0819992 124.9949978  67.7330014 134.4899992 125.5149978  68.6260014
 134.3299992 123.9129978  67.6860014 132.5679992 124.9899978  67.5740014
 132.1909992 124.2089978  66.8800014 132.2139992 125.9719978  67.1940014
 131.7799992 124.5289978  68.8330014 132.0039992 125.2259978  69.6680014
 132.0719992 123.4889978  69.0950014 130.2539992 124.5179978  68.6850014
 130.1499992 123.9799978  67.7180014 129.8739992 125.5469978  68.5070014
 129.5219992 123.8159978  69.8740014 130.2359992 123.0119978  70.1520014
 128.5769992 123.3259978  69.5550014 129.2869992 124.7959978  71.0690014
 128.5819992 124.3469978  71.8010014 128.8109992 125.6809978  70.5960014
 130.4089992 125.2749978  71.8500014 131.0219992 126.0099978  71.3070014
 130.7109992 125.0969978  73.1330014 131.5039992 125.7609978  73.5070014
 130.0239992 124.3009978  74.2060014 130.5239992 123.3179978  74.3370014
 128.9709992 124.0959978  73.9130014 129.8999992 124.9519978  75.6290014
 130.9529992 125.2709978  75.7790014 129.6279992 124.0589978  76.2300014
 128.9879992 126.1729978  75.8200014 127.9459992 125.7909978  75.7710014
 129.1299992 126.8849978  74.9800014 129.1319992 126.7119978  77.2210014
 130.0299992 127.3619978  77.3000014 129.2769992 125.8589978  77.9180014
 127.8909992 127.5389978  77.7360014 126.9469992 127.0379978  77.4320014
 128.0739992 128.5269978  77.2620014 127.8949992 127.7599978  79.2280014
 127.6259992 126.7929978  79.7030014 127.1029992 128.5369978  79.2800014
 129.1899992 128.4469978  79.7050014 129.5959992 129.1199978  78.9200014
 129.9599992 127.6519978  79.8030014 129.0279992 129.2049978  81.0210014
 128.7789992 128.4299978  81.7780014 128.1679992 129.9039978  80.9530014
 129.8649992 129.8609978  81.3430014 126.9879992  19.7479978  81.8830014
 126.2679992  19.8729978  82.7200014 126.7179992  20.5239978  81.1360014
 128.0239992  19.8259978  82.2780014 126.7869992  18.4389978  81.1140014
 126.7689992  17.6179978  81.8620014 125.7819992  18.4399978  80.6400014
 128.0119992  17.9599978  80.2930014 128.7629992  17.6329978  81.0440014
 127.6889992  17.2139978  79.5360014 128.6009992  19.0889978  79.5320014
 127.9019992  19.4739978  78.7590014 129.0879992  19.8979978  80.1170014
 129.8429992  18.7259978  78.6000014 129.9869992  19.6679978  78.0290014
 130.7219992  18.7819978  79.2760014 129.8179992  17.5869978  77.6090014
 130.7469992  17.5669978  77.0000014 129.9139992  16.6239978  78.1530014
 128.5989992  17.6649978  76.6720014 127.6719992  17.7289978  77.2800014
 128.7819992  18.6159978  76.1260014 128.6509992  16.6089978  75.5270014
 129.5659992  16.8409978  74.9410014 128.7239992  15.5669978  75.9050014
 127.5619992  16.7779978  74.4200014 127.8349992  16.0989978  73.5850014
 126.5589992  16.5099978  74.8160014 127.4999992  18.1809978  73.7560014
 127.1529992  18.9689978  74.4580014 128.4889992  18.4579978  73.3350014
 126.3049992  18.1659978  72.7580014 126.5659992  17.3079978  72.1010014
 125.3769992  17.8339978  73.2710014 126.2399992  19.4459978  71.9530014
 125.3629992  19.4279978  71.2720014 126.1679992  20.2929978  72.6680014
 127.3549992  19.6359978  70.9150014 128.3189992  19.3109978  71.3610014
 127.0429992  18.9389978  70.1080014 127.2619992  21.0169978  70.1410014
 126.1719992  21.2289978  70.1060014 127.6369992  21.8699978  70.7450014
 127.7519992  21.0509978  68.7080014 127.3179992  20.2419978  68.0820014
 127.4669992  21.9679978  68.1490014 129.2619992  20.9409978  68.6300014
 129.9819992  20.9219978  69.6180014 129.6459992  20.9429978  67.3970014
 131.0379992  20.7029978  67.0880014 131.1799992  21.1099978  66.0640014
 131.5679992  21.2929978  67.8660014 131.4629992  19.2179978  67.0620014
 132.5339992  19.3299978  66.7900014 130.7289992  18.3119978  66.0220014
 130.8169992  18.6929978  64.9820014 131.1269992  17.2749978  66.0600014
 129.3369992  18.3169978  66.3610014 128.2239992  17.9559978  65.3260014
 128.3459992  19.1579978  64.3330014 127.7269992  20.3559978  64.7590014
 126.6459992  20.4379978  64.5140014 127.9049992  20.4869978  65.8480014
 128.3449992  21.7169978  64.0790014 127.7769992  22.5769978  64.4000014
 129.3099992  21.7679978  64.5620014 128.6699992  21.6849978  62.5920014
 129.8339992  20.7579978  62.3850014 129.5599992  19.7559978  62.6780014
 130.2619992  20.7429978  61.3930014 130.6979992  21.0859978  62.9430014
 127.4589992  21.1419978  61.8000014 127.0799992  20.2469978  62.2710014
 126.6059992  21.7909978  61.9340014 127.9019992  21.0039978  60.8250014
 129.0779992  23.1279978  62.1400014 129.8989992  23.4319978  62.7720014
 128.1859992  23.7309978  62.2220014 129.3309992  23.0809978  61.0910014
 128.6679992  16.6889978  64.6920014 126.9159992  18.0779978  66.0390014
 131.3029992  18.7049978  68.4590014 132.1199992  17.7449978  68.7990014
 133.0779992  17.3249978  68.1430014 131.8699992  17.1909978  70.1360014
 132.5829992  16.3509978  70.2830014 130.8299992  16.8249978  70.2690014
 132.1339992  18.1519978  71.2530014 131.5229992  19.0789978  71.2030014
 133.1389992  18.6199978  71.1870014 131.8139992  17.5479978  72.6170014
 132.6229992  16.8439978  72.9070014 130.8819992  16.9459978  72.6700014
 131.5119992  18.5939978  73.7780014 130.9609992  18.1459978  74.6320014
 130.8699992  19.3869978  73.3390014 132.7529992  19.1489978  74.4730014
 133.6199992  19.1559978  73.7780014 132.8819992  18.5129978  75.3740014
 132.6889992  20.6649978  74.9270014 132.1629992  21.2269978  74.1260014
 133.7569992  20.9549978  75.0250014 131.9299992  20.8189978  76.2740014
 132.5639992  20.2159978  76.9580014 130.9009992  20.5069978  75.9930014
 131.8489992  22.2069978  76.8380014 132.5719992  22.4919978  77.6160014
 130.8119992  23.0149978  76.5360014 130.7659992  23.9709978  77.0770014
 129.5799992  22.7799978  75.6640014 129.6229992  22.0909978  74.7930014
 129.1879992  23.7009978  75.1810014 128.4789992  22.0419978  76.4790014
 128.7979992  21.0519978  76.8680014 127.7059992  21.8029978  75.7180014
 127.6899992  22.7959978  77.6110014 126.9699992  22.0769978  78.0580014
 127.0939992  23.6439978  77.2090014 128.4449992  23.3799978  78.8090014
 128.9479992  24.2059978  78.2630014 129.0949992  22.5419978  79.1400014
 127.6889992  23.9669978  79.9990014 127.1979992  23.0679978  80.4290014
 126.8349992  24.6319978  79.7470014 128.5949992  24.4859978  81.0790014
 127.9229992  24.9219978  81.8490014 129.1749992  25.3079978  80.6070014
 129.5829992  23.5599978  81.8030014 130.2469992  23.2599978  80.9640014
 129.0919992  22.5849978  82.0110014 130.3019992  24.1969978  82.9720014
 129.6859992  24.9149978  83.5550014 131.2119992  24.7679978  82.6900014
 130.6249992  23.2669978  83.4870014   7.2289992 123.3449978  80.4500014
   7.4599992 124.3569978  80.8450014   7.8269992 122.5589978  80.9600014
   6.1699992 123.0649978  80.6370014   7.4129992 123.3359978  78.9560014
   6.9709992 122.3789978  78.6030014   6.7769992 124.0759978  78.4240014
   8.8729992 123.2529978  78.5180014   9.4489992 123.9789978  79.1300014
   9.3499992 122.3769978  79.0070014   9.2349992 123.3269978  77.0100014
   9.1839992 124.4079978  76.7620014  10.2619992 122.9089978  76.9490014
   8.3319992 122.6699978  75.9490014   8.4039992 121.5959978  76.2250014
   7.2699992 122.9619978  76.0960014   8.8359992 122.7849978  74.5090014
   9.8489992 122.3509978  74.3610014   8.1519992 122.2639978  73.8050014
   8.8199992 124.3149978  74.0700014   7.8129992 124.7429978  74.2610014
   9.5079992 124.8259978  74.7770014   9.1189992 124.6089978  72.5960014
   9.0679992 125.7059978  72.4270014  10.1629992 124.2509978  72.4720014
   8.3499992 123.8529978  71.4100014   8.6619992 122.7949978  71.5470014
   7.2469992 123.9149978  71.5290014   8.7999992 124.3899978  70.0380014
   8.2589992 125.3299978  69.7950014   9.9049992 124.4499978  69.9440014
   8.3429992 123.4749978  68.8610014   7.2499992 123.3249978  68.9930014
   8.5999992 124.0429978  67.9420014   8.9409992 122.0549978  68.8800014
  10.0299992 122.0129978  69.0980014   8.4129992 121.4159978  69.6190014
   8.8299992 121.3509978  67.4920014   9.5329992 121.8049978  66.7620014
   9.1669992 120.3189978  67.7290014   7.4409992 121.3369978  66.9160014
   7.1939992 122.3509978  66.5350014   7.3939992 120.7219978  65.9920014
   6.3469992 120.8159978  67.8670014   6.4439992 119.7209978  68.0280014
   6.4079992 121.3449978  68.8430014   4.8529992 121.0899978  67.4800014
   4.0459992 121.3549978  68.3210014   4.7379992 121.2459978  66.1810014
   3.6669992 121.8419978  65.5380014   3.4359992 121.2109978  64.6530014
   2.7349992 121.7709978  66.1400014   3.9989992 123.2579978  64.9870014
   3.0499992 123.6679978  64.5810014   5.1179992 123.2099978  63.9270014
   5.9909992 122.7419978  64.4310014   4.8569992 122.4439978  63.1660014
   5.3359992 124.4779978  63.3060014   6.7739992 124.8839978  62.7460014
   7.7189992 124.4749978  64.0000014   7.7749992 125.0979978  65.1910014
   6.7449992 125.4059978  65.4720014   8.1579992 124.4779978  66.0280014
   8.7339992 126.3399978  65.2670014   8.4369992 127.0759978  64.5350014
   8.6729992 126.7919978  66.2460014  10.2779992 126.0669978  64.9840014
  10.7379992 125.1569978  66.0900014  10.5689992 125.6269978  67.0480014
  10.3219992 124.1669978  65.9680014  11.7979992 124.9859978  65.9730014
  10.5169992 125.4739978  63.6830014  10.1319992 124.4669978  63.6190014
  10.0759992 126.0069978  62.8530014  11.5809992 125.3639978  63.5370014
  10.9869992 127.3899978  65.1070014  12.0529992 127.2229978  65.1370014
  10.6909992 127.9519978  65.9810014  10.8419992 128.0459978  64.2620014
   7.1279992 124.1409978  61.5200014   6.6999992 126.3809978  62.6130014
   4.4289992 124.0739978  66.0640014   3.4899992 124.5229978  66.9000014
   2.2969992 124.5099978  66.7780014   4.1189992 124.9469978  68.2290014
   4.3669992 126.0199978  68.0850014   5.0899992 124.4649978  68.4720014
   3.1389992 124.9589978  69.3620014   2.1689992 125.4349978  69.1030014
   3.5949992 125.6439978  70.1080014   2.8429992 123.6399978  70.2420014
   2.2569992 122.9439978  69.6030014   2.1039992 124.0089978  70.9840014
   3.9719992 122.9879978  71.0380014   4.6859992 123.6269978  71.6010014
   4.5969992 122.4979978  70.2620014   3.3779992 122.0429978  72.0900014
   2.6529992 121.3299978  71.6430014   2.7689992 122.6669978  72.7780014
   4.4339992 121.2579978  72.7930014   5.3429992 121.2289978  72.1550014
   4.1539992 120.1939978  72.9480014   4.9799992 121.7979978  74.2000014
   5.1029992 122.8969978  74.0910014   5.9369992 121.2659978  74.3900014
   4.1499992 121.4789978  75.4180014   4.0679992 120.4529978  75.8080014
   3.3309992 122.3249978  76.1750014   2.6719992 121.8899978  76.9410014
   3.1239992 123.8109978  75.8840014   2.0729992 124.1719978  75.8810014
   3.7089992 124.1139978  74.9900014   3.9829992 124.5219978  77.0200014
   4.0839992 125.6029978  76.7820014   5.0259992 124.1399978  76.9820014
   3.3269992 124.2889978  78.4330014   3.4559992 123.2189978  78.7010014
   2.2339992 124.4809978  78.3840014   3.8219992 125.1099978  79.6100014
   3.6209992 126.1969978  79.4990014   4.9249992 124.9829978  79.6320014
   3.2949992 124.6019978  80.9290014   3.7219992 123.5869978  81.0810014
   2.1909992 124.4899978  80.9900014   3.7979992 125.3989978  82.0590014
   3.5969992 126.4539978  81.7740014   4.8899992 125.2289978  82.1790014
   3.1299992 125.1419978  83.3850014   2.0419992 125.2959978  83.2200014
   3.4099992 125.9679978  84.0740014   3.3239992 123.7379978  83.9720014
   3.0009992 123.7479978  85.0350014   4.3949992 123.4559978  83.8790014
   2.6859992 123.0309978  83.4010014 100.3249992 141.5519978  81.9880014
 100.5419992 142.4709978  81.4030014 100.7149992 141.7699978  83.0050014
  99.2149992 141.5079978  82.0020014 100.9699992 140.2709978  81.5110014
 102.0719992 140.4159978  81.4950014 100.7649992 139.4519978  82.2330014
 100.4659992 139.7339978  80.1610014 101.0449992 138.8239978  79.8960014
  99.4709992 139.3629978  80.4860014 100.2589992 140.6549978  78.9810014
  99.6349992 140.1669978  78.2020014  99.6569992 141.5339978  79.2950014
 101.5419992 141.1419978  78.2330014 102.1039992 141.8069978  78.9230014
 102.2869992 140.3439978  78.0260014 101.2239992 142.0739978  77.0740014
 100.7259992 141.5209978  76.2500014 100.4509992 142.7949978  77.4150014
 102.4679992 142.7469978  76.6260014 103.1409992 142.9639978  77.4830014
 103.0219992 142.0089978  76.0080014 102.3829992 144.0679978  75.7620014
 102.2459992 144.8479978  76.5420014 103.3749992 144.3029978  75.3220014
 101.1929992 144.0889978  74.8140014 101.2809992 143.2289978  74.1170014
 100.1899992 143.8919978  75.2500014 101.0009992 145.4019978  74.0310014
 100.7559992 146.1319978  74.8320014 102.0209992 145.6179978  73.6460014
  99.9089992 145.4539978  72.9870014  99.8409992 144.4119978  72.6080014
  98.9779992 145.6459978  73.5630014 100.0069992 146.4929978  71.8720014
 100.2129992 147.4709978  72.3570014 100.8709992 146.2979978  71.2010014
  98.7699992 146.5029978  70.9830014  98.5619992 145.5269978  70.4960014
  97.9549992 146.8609978  71.6480014  98.7859992 147.6499978  69.9130014
  97.7309992 147.9909978  69.8410014  99.4009992 148.4599978  70.3610014
  99.0549992 147.2199978  68.4970014  98.4619992 146.4119978  68.0170014
  98.8529992 148.1539978  67.9300014 100.5619992 146.9439978  68.2720014
 101.4249992 147.7029978  68.6530014 100.7529992 145.7839978  67.6250014
 102.0769992 145.4979978  67.1190014 102.1969992 146.0449978  66.1600014
 102.9349992 145.8869978  67.7080014 102.3199992 144.0059978  66.9580014
 103.3909992 143.9319978  66.6710014 101.2829992 143.2189978  66.0550014
 100.9499992 143.8599978  65.2110014 101.9289992 142.4369978  65.6000014
 100.2909992 142.4569978  66.7710014  98.7429992 142.8249978  66.4850014
  98.5149992 142.8299978  64.8390014  99.1169992 141.8119978  64.1740014
 100.1949992 142.0819978  64.1700014  99.0979992 140.8349978  64.7010014
  98.6969992 141.7289978  62.7450014  99.1009992 140.7669978  62.4660014
  97.6239992 141.6499978  62.6510014  99.0819992 142.8099978  61.6700014
 100.5479992 142.7329978  61.5130014 100.8039992 141.7679978  61.1020014
 100.8179992 143.5459978  60.8550014 100.9979992 143.0229978  62.4510014
  98.4659992 142.3229978  60.3010014  98.7189992 143.0649978  59.5580014
  98.9889992 141.3969978  60.1150014  97.4289992 142.1329978  60.5360014
  98.5639992 144.1609978  62.0260014  97.4839992 144.1499978  62.0270014
  98.9369992 144.9149978  61.3490014  98.9829992 144.3169978  63.0090014
  97.8989992 141.7199978  66.9380014  98.3719992 144.1969978  67.0440014
 102.2909992 143.4299978  68.2600014 102.5849992 142.1949978  68.5400014
 102.9459992 141.2969978  67.7410014 102.6119992 142.0939978  70.0350014
 101.8449992 142.7799978  70.4550014 103.5939992 142.3999978  70.4530014
 102.4679992 140.6379978  70.5810014 102.6129992 140.5709978  71.6800014
 103.0239992 139.8499978  70.0290014 100.9429992 140.1909978  70.4000014
 100.8199992 139.1539978  70.7790014 100.6409992 140.2569978  69.3330014
  99.9629992 141.1839978  71.1650014 100.0219992 142.2119978  70.7480014
 100.1969992 141.2629978  72.2480014  98.4859992 140.6879978  71.0710014
  98.3869992 139.7329978  71.6300014  98.2439992 140.6359978  69.9880014
  97.5589992 141.7969978  71.6180014  96.5009992 141.5529978  71.3840014
  97.7079992 142.7539978  71.0750014  97.6639992 142.0659978  73.1760014
  98.7019992 142.4369978  73.3140014  97.5799992 141.0849978  73.6920014
  96.7619992 143.1549978  73.5990014  96.8989992 144.1119978  73.0750014
  95.8069992 143.1659978  74.4740014  95.1499992 144.0479978  74.4670014
  95.3729992 142.0479978  75.3300014  95.9209992 141.1099978  75.1000014
  94.3039992 141.9679978  75.0380014  95.6799992 142.2029978  76.7670014
  96.7329992 142.4699978  77.0000014  95.4829992 141.2399978  77.2850014
  94.8149992 143.2039978  77.4880014  94.7339992 142.9059978  78.5560014
  93.7559992 143.2529978  77.1570014  95.4309992 144.6529978  77.6490014
  94.5139992 145.2559978  77.8210014  95.9599992 144.9929978  76.7330014
  96.4469992 144.8749978  78.8560014  95.8049992 144.4319978  79.6470014
  96.5349992 145.9819978  78.9020014  97.8359992 144.1749978  78.7220014
  98.3689992 144.5489978  77.8220014  97.7509992 143.0679978  78.7680014
  98.7129992 144.4629978  79.9800014  99.7169992 144.0419978  79.7570014
  98.3439992 143.7869978  80.7810014  98.8659992 145.9069978  80.3810014
  98.1349992 146.0449978  81.2060014  98.7629992 146.6339978  79.5470014
  99.9379992 146.0119978  80.6560014   5.5339992  32.0549978  81.3360014
   6.5449992  32.2039978  81.7730014   5.5809992  31.2319978  80.5910014
   4.9959992  31.6389978  82.2150014   5.0679992  33.4439978  80.8960014
   4.0129992  33.4289978  80.5460014   5.1939992  34.1089978  81.7770014
   5.8239992  34.1219978  79.7670014   5.3739992  35.1339978  79.6730014
   6.8769992  34.2649978  80.0900014   5.7819992  33.3539978  78.4150014
   6.4669992  33.9339978  77.7610014   6.2659992  32.3819978  78.6490014
   4.4139992  33.1499978  77.7340014   3.7199992  32.8049978  78.5300014
   4.0939992  34.1809978  77.4720014   4.4729992  32.3249978  76.4610014
   5.1779992  32.8119978  75.7540014   4.6509992  31.2369978  76.6010014
   3.1179992  32.4499978  75.6550014   2.7129992  31.4919978  75.2650014
   2.4039992  32.7559978  76.4490014   3.0189992  33.6719978  74.7100014
   1.9639992  34.0209978  74.7400014   3.6479992  34.4889978  75.1230014
   3.3339992  33.4779978  73.1530014   3.9659992  32.5659978  73.0850014
   2.4309992  33.1799978  72.5790014   3.9619992  34.7939978  72.5580014
   3.3639992  35.7279978  72.6230014   4.8509992  34.9869978  73.1950014
   4.2799992  34.5599978  71.1330014   4.5109992  33.5009978  70.8870014
   3.4349992  34.8829978  70.4880014   5.4729992  35.4049978  70.6400014
   5.2019992  36.4779978  70.7410014   6.2149992  35.2169978  71.4450014
   6.0669992  35.0859978  69.2890014   5.4199992  35.4709978  68.4720014
   7.0119992  35.6689978  69.2580014   6.3659992  33.6289978  68.9020014
   6.9149992  33.1139978  69.7200014   5.4359992  33.0269978  68.8300014
   6.9859992  33.3469978  67.4670014   6.6019992  34.0489978  66.6960014
   8.0949992  33.3719978  67.5340014   6.6869992  31.9089978  67.0130014
   7.3619992  30.9079978  67.2510014   5.5439992  31.9489978  66.4390014
   4.7869992  30.7159978  66.4400014   5.3779992  29.8929978  65.9840014
   4.5819992  30.4189978  67.4910014   3.3939992  30.6749978  65.7680014
   3.1259992  29.5989978  65.7000014   3.5089992  31.1019978  64.2690014
   4.4029992  30.6019978  63.8370014   2.5429992  30.7589978  63.8400014
   3.6379992  32.5489978  64.1660014   3.4459992  33.2109978  62.6960014
   3.7599992  34.7659978  62.8110014   4.8689992  35.1779978  63.5450014
   5.8019992  34.5839978  63.4380014   5.0969992  36.2219978  63.2420014
   4.4609992  35.3529978  65.0590014   4.3649992  34.3669978  65.4880014
   5.2779992  35.8919978  65.5160014   3.1959992  36.1309978  65.4510014
   1.9449992  35.2709978  65.1210014   1.9879992  34.4279978  65.7950014
   0.9999992  35.7919978  65.1650014   2.0229992  34.8639978  64.1230014
   3.0499992  36.2999978  66.9340014   2.1009992  36.7919978  67.0920014
   3.0609992  35.3379978  67.4250014   3.9209992  36.8249978  67.2970014
   3.1589992  37.4539978  64.6830014   3.9459992  38.0999978  65.0430014
   2.2639992  38.0379978  64.8450014   3.1619992  37.1129978  63.6590014
   4.3779992  32.6349978  61.7100014   2.0139992  32.9859978  62.3300014
   2.5039992  31.4419978  66.5490014   1.2359992  31.3929978  66.3540014
   0.6039992  30.6399978  65.6420014   0.5179992  32.3959978  67.3120014
  -0.5260008  32.5059978  66.9480014   1.0249992  33.3719978  67.1540014
   0.2909992  31.9759978  68.7830014   1.2559992  31.5519978  69.1350014
  -0.4200008  31.1239978  68.8370014  -0.2250008  33.0639978  69.7220014
  -0.9700008  33.6509978  69.1430014   0.5309992  33.8399978  69.9670014
  -0.9800008  32.4089978  70.9320014  -1.7240008  31.6889978  70.5280014
  -1.5790008  33.2209978  71.3980014  -0.0830008  31.7469978  71.9170014
   0.7279992  32.4329978  72.2440014   0.3839992  30.8159978  71.5320014
  -0.9480008  31.3589978  73.1210014  -0.4550008  30.5429978  73.6890014
  -1.9490008  31.0899978  72.7200014  -1.1420008  32.5939978  74.0530014
  -1.4840008  33.3949978  73.3630014  -0.1910008  32.9439978  74.5080014
  -2.2110008  32.5189978  75.1880014  -3.1980008  32.9809978  75.0370014
  -2.1120008  31.9559978  76.3700014  -2.9970008  32.0779978  77.0120014
  -0.9440008  31.3019978  76.9680014  -0.1030008  31.2069978  76.2490014
  -1.2360008  30.2459978  77.1520014  -0.4070008  32.0489978  78.1900014
  -1.2560008  32.2719978  78.8710014   0.3119992  32.8559978  77.9340014
   0.6359992  31.1229978  78.9210014   1.4529992  30.7699978  78.2550014
   0.0879992  30.2449978  79.3250014   1.4349992  31.8089978  80.1320014
   1.9579992  32.6599978  79.6450014   2.2809992  31.1769978  80.4780014
   0.6159992  32.2549978  81.3190014   0.5409992  31.3939978  82.0180014
  -0.4310008  32.4489978  81.0010014   1.1719992  33.4629978  81.9450014
   1.1209992  34.2939978  81.2100014   2.2399992  33.3959978  82.2420014
   0.2969992  33.9089978  83.1340014  -0.7600008  34.1349978  82.8760014
   0.6579992  34.9289978  83.3890014   0.3779992  33.0299978  84.3630014
  -0.0030008  33.5769978  85.2520014   1.4079992  32.7879978  84.7030014
  -0.1400008  32.0589978  84.2130014  11.2089992  20.8159978  84.3750014
  10.6609992  19.8969978  84.0790014  10.7739992  21.5179978  83.6310014
  11.0589992  21.0679978  85.4460014  12.6839992  20.7419978  84.1060014
  13.0549992  21.6649978  84.6000014  13.0909992  19.8889978  84.6900014
  13.1169992  20.7799978  82.6130014  14.1879992  20.4859978  82.6300014
  12.6109992  20.0729978  81.9210014  13.0179992  22.1319978  81.9600014
  11.9429992  22.4049978  81.8950014  13.5429992  22.7999978  82.6750014
  13.8249992  22.2399978  80.6310014  14.7549992  22.7529978  80.9570014
  13.9689992  21.2009978  80.2630014  13.0399992  22.9799978  79.4850014
  12.0539992  22.5099978  79.2800014  13.0229992  24.0219978  79.8690014
  13.9189992  22.9619978  78.2070014  14.9169992  23.4169978  78.3880014
  14.0379992  21.8679978  78.0550014  13.3919992  23.6679978  77.0090014
  13.3819992  24.7259978  77.3500014  14.0689992  23.7539978  76.1320014
  12.0729992  22.9659978  76.5970014  11.5999992  22.4969978  77.4860014
  11.3469992  23.6759978  76.1450014  12.2729992  21.8279978  75.5270014
  13.0659992  21.1509978  75.9110014  11.2979992  21.2959978  75.5290014
  12.6499992  22.3599978  74.1770014  12.1019992  23.2489978  73.7970014
  13.6849992  22.7629978  74.1410014  12.4049992  21.3149978  73.1100014
  11.3589992  20.9439978  73.1480014  12.4979992  21.6419978  72.0530014
  13.3999992  20.1839978  73.3010014  14.4599992  20.5159978  73.2620014
  13.1399992  19.7499978  74.2900014  13.1849992  19.1649978  72.2060014
  13.7149992  18.2419978  72.5230014  12.1149992  18.9079978  72.0530014
  13.8789992  19.4939978  70.8790014  13.6199992  20.5289978  70.5670014
  14.9849992  19.4339978  70.9600014  13.4659992  18.4409978  69.8470014
  14.3739992  17.7249978  69.4490014  12.3259992  18.6879978  69.4180014
  11.7819992  17.8229978  68.4360014  12.5579992  17.6169978  67.6680014
  11.5139992  16.8769978  68.9540014  10.5329992  18.3849978  67.8600014
  10.0959992  17.4819978  67.3820014  10.7059992  19.5469978  66.9190014
   9.9099992  19.6119978  66.1460014  10.5529992  20.5129978  67.4450014
  12.0899992  19.6329978  66.3670014  12.2839992  19.1159978  64.9260014
  12.2299992  20.5539978  64.1380014  13.3289992  21.4679978  64.4280014
  13.2179992  21.8809978  65.4530014  14.2959992  20.9219978  64.3990014
  13.4629992  22.5409978  63.3680014  14.1559992  23.2399978  63.8120014
  13.8819992  22.2589978  62.4140014  12.2099992  23.4239978  63.0200014
  11.5329992  23.7579978  64.3490014  10.6689992  24.3839978  64.1860014
  11.2559992  22.8269978  64.8220014  12.1579992  24.2559978  65.0760014
  12.6539992  24.7389978  62.3950014  11.8369992  25.4329978  62.2630014
  13.4109992  25.1779978  63.0290014  13.1929992  24.4769978  61.4970014
  11.2629992  22.6719978  62.1830014  11.6689992  22.2289978  61.2860014
  10.2849992  23.0849978  61.9800014  10.9809992  21.7959978  62.7470014
  13.6219992  18.5439978  64.8310014  11.1779992  18.2399978  64.5000014
   9.7439992  18.7139978  69.0480014   8.5229992  19.1839978  68.8940014
   7.9459992  19.5899978  67.8990014   7.8569992  19.1499978  70.2490014
   7.6179992  18.0999978  70.5210014   6.8789992  19.6709978  70.1680014
   8.7219992  19.7049978  71.3140014   9.2249992  20.6319978  70.9660014
   9.5909992  19.0539978  71.5480014   7.9909992  19.9839978  72.6670014
   7.1949992  20.7199978  72.4240014   8.8039992  20.4649978  73.2510014
   7.2489992  18.7009978  73.2180014   7.7459992  17.7589978  72.9000014
   6.2379992  18.6969978  72.7580014   7.1569992  18.7049978  74.8130014
   6.5679992  17.7829978  75.0080014   6.6009992  19.5909978  75.1880014
   8.4609992  18.4789978  75.6010014   9.2619992  19.1349978  75.1980014
   8.7619992  17.4309978  75.3870014   8.3629992  18.7609978  77.1020014
   7.6809992  18.0309978  77.5880014   7.9899992  19.7979978  76.9620014
   9.6209992  18.8449978  77.9620014  10.0619992  19.8389978  77.7980014
  10.1919992  18.1369978  78.9470014  11.1569992  18.4479978  79.3750014
   9.6619992  16.8489978  79.4930014  10.5029992  16.1359978  79.6300014
   8.9879992  16.3009978  78.8000014   9.0239992  17.1349978  80.9220014
   8.5149992  16.1579978  81.0660014   8.2789992  17.9509978  80.8010014
   9.9009992  17.5519978  82.1150014   9.2339992  17.4909978  83.0010014
  10.1029992  18.6439978  82.0890014  11.1729992  16.7929978  82.3430014
  12.0169992  17.2999978  81.8300014  11.0199992  15.7559978  81.9740014
  11.7659992  16.6839978  83.7900014  10.9329992  16.1459978  84.2920014
  11.7959992  17.6939978  84.2520014  13.1149992  15.9389978  83.7700014
  13.9349992  16.4959978  83.2680014  12.9589992  15.0519978  83.1200014
  13.6069992  15.5189978  85.1710014  14.4989992  14.8669978  85.0590014
  12.7879992  14.9359978  85.6450014  14.0779992  16.6229978  86.1410014
  15.0949992  16.3239978  86.4720014  13.4199992  16.6099978  87.0360014
  14.0249992  17.6289978  85.6740014 131.4019992  26.4059978  80.1680014
 131.0039992  27.4149978  79.9280014 132.4059992  26.2729978  79.7110014
 131.6369992  26.3089978  81.2500014 130.5089992  25.2779978  79.6740014
 129.5339992  25.6329978  80.0710014 130.4499992  25.3049978  78.5650014
 130.8199992  23.8259978  80.1510014 131.0129992  23.8199978  81.2450014
 129.9729992  23.1229978  79.9960014 132.0549992  23.2289978  79.4240014
 132.8939992  23.9529978  79.5060014 132.3389992  22.2539978  79.8750014
 131.9039992  22.9009978  77.9480014 130.9839992  23.4199978  77.6050014
 132.7339992  23.3959978  77.3990014 131.7779992  21.4079978  77.5320014
 131.0589992  20.9149978  78.2210014 131.2579992  21.4109978  76.5500014
 133.1039992  20.5889978  77.4330014 133.6109992  20.7259978  78.4120014
 132.8389992  19.5359978  77.1960014 134.1729992  21.1089978  76.4450014
 133.6769992  21.3879978  75.4910014 134.7069992  21.9629978  76.9150014
 135.2349992  20.0869978  76.1380014 136.0349992  20.0939978  76.9090014
 134.6599992  19.1529978  75.9600014 135.9569992  20.4449978  74.8760014
 136.9339992  19.9159978  74.9040014 135.4989992  20.1459978  73.9090014
 136.2719992  21.9119978  74.6460014 135.3979992  22.5709978  74.4580014
 136.7499992  22.2179978  75.6010014 137.3909992  22.2149978  73.6720014
 137.7739992  23.2299978  73.9130014 138.3189992  21.6049978  73.6520014
 136.9019992  22.1649978  72.1940014 136.5429992  21.1479978  71.9290014
 136.0649992  22.8899978  72.2940014 138.0089992  22.7619978  71.2240014
 138.3419992  23.7509978  71.6050014 138.9369992  22.1639978  71.0980014
 137.3569992  23.0209978  69.8930014 136.5489992  23.7799978  69.9730014
 138.2169992  23.3579978  69.2760014 136.7519992  21.6849978  69.3580014
 137.2599992  20.5729978  69.4100014 135.6459992  21.9449978  68.7030014
 134.8429992  20.8029978  68.4690014 135.2059992  20.2679978  67.5650014
 134.7739992  20.0849978  69.3150014 133.3269992  21.0359978  68.1580014
 132.7079992  20.1339978  68.3510014 133.0249992  21.5499978  66.7480014
 133.5479992  20.9359978  65.9840014 131.9469992  21.4469978  66.5010014
 133.2789992  22.9419978  66.6690014 133.1639992  23.7659978  65.2970014
 134.1089992  22.8949978  64.3790014 135.4399992  22.7239978  64.7350014
 135.6339992  22.7239978  65.8290014 135.7629992  21.7269978  64.3670014
 136.3009992  23.8349978  63.9580014 136.5489992  24.6169978  64.6620014
 137.3299992  23.5469978  63.8010014 135.8319992  24.4419978  62.6160014
 137.0499992  25.0999978  62.1180014 137.9109992  24.4569978  62.2250014
 136.7909992  25.4089978  61.1160014 137.2309992  26.0269978  62.6420014
 135.4529992  23.3279978  61.6910014 135.0349992  23.7849978  60.8060014
 136.3219992  22.7479978  61.4170014 134.6889992  22.7449978  62.1830014
 134.7989992  25.5079978  62.7530014 135.0409992  26.2429978  63.5070014
 133.8839992  25.0879978  63.1430014 134.7029992  25.9099978  61.7550014
 131.7729992  23.7789978  64.7400014 133.8549992  25.0629978  65.5500014
 132.8239992  22.0089978  69.0880014 132.8229992  21.6579978  70.3520014
 133.1029992  20.5479978  70.8210014 132.3119992  22.8699978  71.2040014
 131.2189992  22.8229978  71.4010014 132.7119992  23.8119978  70.7710014
 132.8229992  22.6039978  72.6620014 133.9189992  22.4249978  72.6770014
 132.5239992  21.5989978  73.0300014 132.4959992  23.6889978  73.6820014
 132.6599992  23.3489978  74.7270014 131.3929992  23.7689978  73.7910014
 133.0359992  25.1059978  73.3940014 132.5039992  25.8539978  74.0210014
 133.0499992  25.3359978  72.3070014 134.5699992  25.4099978  73.7180014
 135.1979992  24.7199978  73.1160014 134.7419992  25.3939978  74.8160014
 134.9869992  26.8459978  73.2580014 134.3509992  27.6039978  73.7620014
 134.8229992  26.9109978  72.1610014 136.4889992  27.2259978  73.4780014
 136.8019992  28.1489978  72.9440014 137.0589992  26.4279978  72.9560014
 136.8299992  27.4519978  74.9730014 135.9809992  27.9379978  75.4760014
 137.8229992  26.9249978  75.7160014 137.8669992  27.1769978  76.7860014
 138.9789992  26.0059978  75.4480014 139.9439992  26.4809978  75.7270014
 138.9759992  25.9049978  74.3420014 138.9009992  24.5919978  76.1320014
 139.6639992  23.9619978  75.6270014 137.9869992  23.9679978  76.0370014
 139.0619992  24.4389978  77.7160014 139.6849992  25.3289978  77.9460014
 139.6099992  23.4909978  77.9050014 137.7799992  24.3929978  78.4910014
 137.0279992  23.6129978  78.2420014 137.2529992  25.3709978  78.4900014
 138.1659992  24.1729978  79.9600014 138.8419992  25.0309978  80.1640014
 138.7109992  23.2289978  80.1740014 136.9669992  24.0709978  80.9650014
 136.2439992  23.3469978  80.5310014 136.3989992  24.9719978  80.6500014
 136.9199992  23.8569978  82.4390014 137.5819992  22.9779978  82.5920014
 135.8959992  23.7039978  82.8420014 137.4739992  25.0199978  83.2160014
 138.4119992  25.2859978  82.6830014 137.7489992  24.7559978  84.2600014
 136.9029992  25.9599978  83.0580014 138.6329992 125.5249978  83.7260014
 138.1959992 125.8529978  84.6940014 138.9779992 126.4409978  83.2000014
 139.5729992 124.9969978  83.9920014 137.6079992 124.9149978  82.8080014
 137.3769992 123.9079978  83.2180014 136.6769992 125.5189978  82.7580014
 138.0929992 124.7029978  81.3970014 138.2889992 125.7159978  80.9840014
 138.9709992 124.0249978  81.3350014 137.0149992 124.0009978  80.4020014
 136.8369992 122.9609978  80.7510014 136.1079992 124.6389978  80.4750014
 137.3609992 123.9339978  78.9170014 137.3719992 124.9769978  78.5320014
 138.3789992 123.4999978  78.8210014 136.3809992 123.0939978  78.2010014
 136.7079992 122.0559978  78.4250014 135.3039992 123.2369978  78.4340014
 136.4679992 123.1639978  76.6240014 137.4649992 122.8259978  76.2680014
 135.6949992 122.4439978  76.2800014 136.1579992 124.5369978  76.0190014
 135.1349992 124.9639978  76.1000014 136.7749992 125.3899978  76.3750014
 136.4529992 124.4709978  74.4480014 137.4129992 123.9779978  74.1850014
 135.7299992 123.6899978  74.1310014 136.3849992 125.8569978  73.9610014
 135.5259992 126.4379978  74.3600014 137.2749992 126.3459978  74.4100014
 136.5959992 126.0049978  72.4380014 137.5639992 125.5789978  72.0970014
 135.6179992 125.6929978  72.0150014 136.7659992 127.5029978  72.1100014
 135.9209992 128.1469978  72.4360014 137.7289992 127.7689978  72.5950014
 137.0519992 127.8099978  70.6210014 138.0019992 127.2899978  70.3710014
 136.3309992 127.3899978  69.8870014 137.3099992 129.3109978  70.1760014
 136.4449992 129.9899978  70.3370014 138.1849992 129.7299978  70.7170014
 137.5419992 129.3229978  68.6700014 136.8169992 128.6229978  68.2020014
 137.3249992 130.3299978  68.2540014 138.9779992 128.9219978  68.2210014
 139.8129992 128.5899978  68.9930014 139.0119992 128.9059978  66.9460014
 140.2379992 128.5169978  66.2330014 140.3819992 129.2419978  65.4040014
 141.1069992 128.5969978  66.9200014 140.0929992 127.1529978  65.6120014
 141.0789992 126.8189978  65.2240014 139.0089992 127.2559978  64.4930014
 138.8359992 128.3319978  64.2780014 139.4519992 126.8119978  63.5760014
 137.7309992 126.8049978  64.8960014 137.1059992 125.4409978  64.4070014
 138.2759992 124.3849978  64.8670014 137.8799992 123.0149978  65.0250014
 138.3569992 122.6839978  65.9720014 136.8049992 122.8789978  65.2730014
 138.2329992 121.9739978  63.8780014 138.0009992 120.9669978  64.1920014
 137.6309992 122.2319978  63.0190014 139.7049992 121.8659978  63.4250014
 140.1919992 123.1199978  62.7910014 141.2489992 123.0539978  62.5780014
 139.5859992 123.2699978  61.9090014 140.0829992 123.9259978  63.5010014
 140.5619992 121.6469978  64.5900014 140.7969992 122.6019978  65.0360014
 140.0689992 120.9459978  65.2470014 141.4479992 121.1059978  64.2910014
 139.7469992 120.8239978  62.3440014 140.6389992 121.0199978  61.7670014
 138.8659992 120.8099978  61.7200014 139.8509992 119.8409978  62.7810014
 136.0109992 125.1659978  65.3440014 136.8779992 125.4489978  62.9400014
 139.7889992 126.1699978  66.6430014 140.7229992 125.8939978  67.5130014
 141.8509992 126.3909978  67.5510014 140.3259992 124.7339978  68.4410014
 140.5659992 123.8319978  67.8380014 139.2779992 124.7579978  68.8090014
 141.2179992 124.8219978  69.7280014 142.2389992 125.1259978  69.4110014
 141.3459992 123.7659978  70.0490014 140.8259992 125.7569978  70.8930014
 139.8759992 125.3729978  71.3220014 140.6409992 126.7449978  70.4210014
 141.9029992 125.9809978  72.0320014 142.9369992 126.2239978  71.7060014
 141.9249992 124.9469978  72.4360014 141.4429992 127.0249978  73.0410014
 140.3989992 126.7089978  73.2530014 141.4399992 128.0579978  72.6300014
 142.2959992 126.8429978  74.3160014 143.3529992 127.1379978  74.1400014
 142.2259992 125.7589978  74.5490014 141.7659992 127.7759978  75.4040014
 141.4319992 128.7219978  74.9260014 142.7009992 128.0399978  75.9420014
 140.7179992 127.2019978  76.2640014 139.7379992 127.1029978  75.7740014
 140.8909992 126.5359978  77.4310014 139.9629992 126.1129978  77.8450014
 142.1279992 126.1309978  78.1970014 141.9429992 126.2819978  79.2820014
 143.0079992 126.7289978  77.8760014 142.5019992 124.6289978  78.2510014
 143.5349992 124.5339978  78.6490014 142.5459992 124.1569978  77.2460014
 141.5069992 123.7549978  79.0630014 140.4729992 123.9989978  78.7400014
 141.6879992 124.2319978  80.0500014 141.8769992 122.3199978  79.0690014
 142.8139992 122.0669978  79.6100014 142.2519992 122.1649978  78.0340014
 140.7569992 121.3829978  79.4530014 141.1859992 120.3699978  79.2940014
 139.9119992 121.5539978  78.7530014 140.2419992 121.3599978  80.9390014
 139.9159992 122.4159978  81.0570014 141.0139992 121.1669978  81.7140014
 138.9269992 120.5839978  81.1500014 138.9729992 119.4919978  80.9520014
 138.2709992 120.8499978  80.2930014 138.2599992 120.8809978  82.4420014
 137.1959992 120.5709978  82.3640014 138.2069992 121.9849978  82.5550014
 138.7439992 120.4059978  83.3220014 124.2789992   6.3999978  82.6250014
 124.7639992   5.7139978  81.8980014 123.6589992   5.7169978  83.2440014
 125.0049992   6.8829978  83.3140014 123.3019992   7.4169978  81.9600014
 122.7219992   7.9489978  82.7450014 123.9149992   8.1029978  81.3380014
 122.2239992   6.8949978  80.9960014 122.6259992   6.0849978  80.3510014
 121.4759992   6.4489978  81.6860014 121.4439992   7.9329978  80.1080014
 120.4849992   8.2409978  80.5770014 122.1169992   8.7929978  79.9080014
 121.1219992   7.3489978  78.7140014 120.6159992   8.1619978  78.1500014
 122.0199992   7.1189978  78.1020014 120.3779992   6.0299978  78.7250014
 120.8819992   5.2319978  79.3110014 119.5899992   6.2809978  79.4670014
 119.9219992   5.5429978  77.3390014 119.6129992   6.4429978  76.7640014
 120.7669992   5.1149978  76.7600014 118.6089992   4.6979978  77.3320014
 118.7249992   3.6809978  77.7650014 117.8149992   5.2049978  77.9210014
 118.0919992   4.5269978  75.9230014 118.1089992   5.5059978  75.3990014
 118.5869992   3.6579978  75.4390014 116.5599992   4.2729978  75.9420014
 116.3429992   3.4859978  76.6960014 116.0669992   5.1949978  76.3170014
 115.8789992   3.8179978  74.5740014 114.8419992   3.6119978  74.9140014
 115.9339992   4.5589978  73.7490014 116.4679992   2.4659978  74.0890014
 117.5499992   2.6769978  73.9460014 116.3589992   1.7169978  74.9030014
 115.8509992   1.8049978  72.8220014 116.5459992   1.0059978  72.4880014
 114.8419992   1.3899978  73.0340014 115.6199992   2.7129978  71.5770014
 115.2949992   2.0709978  70.7300014 114.8589992   3.4839978  71.8270014
 116.8619992   3.4519978  71.0700014 116.6179992   4.5129978  70.8450014
 117.6479992   3.5319978  71.8510014 117.5919992   2.7839978  69.8840014
 117.1119992   2.1049978  68.9800014 118.8929992   3.1019978  70.0100014
 119.7489992   2.6269978  68.9400014 120.7889992   2.7549978  69.3080014
 119.7029992   1.5209978  68.8460014 119.5929992   3.5009978  67.7070014
 118.5419992   3.5809978  67.3570014 120.2919992   2.7919978  66.5190014
 121.2559992   2.5819978  67.0290014 119.8539992   1.8309978  66.1760014
 120.3729992   3.7639978  65.5330014 119.3479992   3.8329978  64.2320014
 120.1999992   4.5419978  63.1280014 121.5229992   3.9689978  62.7610014
 121.9019992   3.0619978  63.2790014 121.5969992   3.6339978  61.7040014
 122.5939992   5.0879978  62.7360014 123.5139992   4.5639978  62.5200014
 122.4199992   5.8139978  61.9560014 122.8089992   5.8329978  64.0770014
 123.0519992   4.9149978  65.2540014 123.8799992   4.2389978  65.0970014
 123.1959992   5.5349978  66.1260014 122.1759992   4.3209978  65.4680014
 124.0629992   6.7279978  63.9100014 124.8589992   6.0529978  63.6330014
 123.7579992   7.4009978  63.1230014 124.2649992   7.2929978  64.8080014
 121.6999992   6.7949978  64.4380014 121.7539992   7.5769978  63.6960014
 121.9329992   7.2569978  65.3860014 120.7599992   6.2639978  64.4820014
 118.7639992   2.5849978  63.8370014 118.4119992   4.8949978  64.6000014
 120.1439992   4.8019978  68.0190014 119.2609992   5.7759978  68.3320014
 118.0909992   5.5829978  68.5800014 119.9989992   7.0909978  68.4400014
 119.4819992   7.7669978  67.7260014 121.0539992   6.9739978  68.1110014
 119.7049992   7.8479978  69.8180014 118.8939992   7.3139978  70.3580014
 119.3589992   8.8789978  69.5920014 120.9119992   7.9569978  70.9010014
 120.4769992   8.4549978  71.7940014 121.7779992   8.5109978  70.4790014
 121.5269992   6.6719978  71.2790014 122.5249992   6.8099978  71.7470014
 121.7549992   6.1419978  70.3300014 120.6389992   5.6739978  72.0970014
 119.5659992   5.5769978  71.8260014 120.8139992   6.1179978  73.1010014
 121.1859992   4.2819978  72.1790014 122.2279992   4.3789978  72.5520014
 121.4129992   3.8589978  71.1770014 120.5459992   3.2419978  73.0220014
 119.6239992   2.8449978  72.5450014 120.3399992   3.7269978  74.0000014
 121.4679992   2.0439978  73.2440014 121.6369992   1.4379978  72.3420014
 122.1549992   1.7139978  74.3740014 122.5719992   0.6959978  74.3780014
 122.1849992   2.4209978  75.6590014 121.7069992   3.4139978  75.5200014
 123.2529992   2.6089978  75.9030014 121.6929992   1.6679978  76.9420014
 122.0689992   0.6379978  76.7620014 120.5929992   1.5399978  76.8600014
 122.0849992   2.3299978  78.3120014 121.8829992   3.4219978  78.2910014
 123.1469992   2.1279978  78.5680014 121.1799992   1.7679978  79.3670014
 121.5129992   0.7129978  79.4780014 120.1299992   1.6939978  79.0110014
 121.2999992   2.2099978  80.8670014 120.8599992   3.2109978  81.0640014
 122.3659992   2.0709978  81.1470014 120.4539992   1.2329978  81.6780014
 120.9529992   0.2429978  81.7630014 119.4869992   1.0759978  81.1540014
 120.1529992   1.6729978  83.1220014 120.4639992   2.7379978  83.0560014
 120.9189992   1.1409978  83.7260014 118.6739992   1.4129978  83.6120014
 117.8389992   1.7199978  82.9460014 118.5869992   1.8479978  84.6300014
 118.5789992   0.3139978  83.7400014   0.5579992 115.7049978  81.1130014
  -0.4300008 115.9989978  81.5270014   1.2959992 116.0049978  81.8870014
   0.5499992 114.5939978  81.0960014   0.8839992 116.3119978  79.7180014
   0.1029992 115.8739978  79.0590014   0.7189992 117.4099978  79.7490014
   2.2249992 115.9999978  79.1160014   2.2689992 114.9149978  78.8810014
   2.3669992 116.6109978  78.1990014   3.2909992 116.1919978  80.2020014
   3.1969992 115.6479978  81.1660014   4.3199992 116.2089978  79.7840014
   3.2779992 117.6929978  80.8370014   2.2729992 118.0879978  81.0960014
   3.9489992 117.7959978  81.7170014   3.7759992 118.7519978  79.8310014
   3.0039992 118.8039978  79.0340014   3.8029992 119.6709978  80.4550014
   5.2129992 118.4989978  79.4740014   5.7349992 118.4339978  80.4530014
   5.3459992 117.5639978  78.8890014   5.7189992 119.7239978  78.6830014
   5.8699992 120.5839978  79.3710014   6.6609992 119.3999978  78.1900014
   4.7569992 120.1699978  77.5060014   3.7799992 120.5469978  77.8750014
   5.1489992 121.0909978  77.0220014   4.4299992 119.1149978  76.5250014
   5.3599992 118.5149978  76.4340014   3.6919992 118.3489978  76.8440014
   4.1489992 119.6749978  75.1550014   3.2079992 120.2139978  75.3940014
   5.0059992 120.3139978  74.8540014   3.8109992 118.6429978  74.0620014
   3.2639992 117.8409978  74.6030014   3.1549992 119.0309978  73.2530014
   5.0709992 118.0569978  73.3650014   5.6029992 118.7979978  72.7310014
   5.7979992 117.6269978  74.0880014   4.6759992 116.8779978  72.5020014
   5.6869992 116.5299978  72.2000014   4.3129992 116.1019978  73.2100014
   3.8209992 117.3489978  71.3450014   2.8099992 117.6059978  71.7270014
   3.9439992 118.3889978  70.9730014   3.7679992 116.2739978  70.2640014
   4.4489992 115.3059978  70.4130014   2.9959992 116.4579978  69.2240014
   3.1159992 115.4559978  68.2070014   4.1979992 115.2699978  68.0390014
   2.5919992 114.5399978  68.5550014   2.5369992 115.8899978  66.8560014
   2.7709992 115.0439978  66.1750014   3.2179992 117.0799978  66.3070014
   3.3269992 117.7779978  67.1640014   4.2309992 116.9039978  65.8850014
   2.4159992 117.8979978  65.4070014   1.8019992 117.3529978  64.0430014
   1.7539992 118.7629978  63.3260014   2.8089992 119.7989978  63.2880014
   3.7709992 119.2989978  63.5270014   3.0129992 120.1879978  62.2670014
   2.5259992 120.8409978  64.3850014   1.9749992 120.2079978  65.0650014
   3.3859992 121.3049978  64.8440014   1.5469992 122.0239978  64.1410014
   0.2809992 121.5539978  63.4790014  -0.3750008 122.3979978  63.3250014
   0.5219992 121.0889978  62.5350014  -0.1250008 120.8869978  64.2250014
   1.1729992 122.6259978  65.4200014   0.3979992 123.3579978  65.2440014
   0.5529992 121.9389978  65.9770014   2.0479992 123.0219978  65.9150014
   2.2319992 123.1239978  63.2980014   2.5749992 122.6249978  62.4040014
   3.0689992 123.5199978  63.8550014   1.5289992 123.8699978  62.9590014
   2.7629992 116.4259978  63.4250014   0.3919992 116.9779978  64.2930014
   1.1429992 116.0309978  66.9700014   0.4049992 114.8679978  67.0520014
   0.8089992 113.7219978  67.1510014  -1.0970008 115.3269978  67.2930014
  -1.8120008 114.4779978  67.3360014  -1.3950008 116.0409978  66.4960014
  -1.1220008 116.1569978  68.6440014  -2.0460008 116.7349978  68.8560014
  -0.3260008 116.9309978  68.6850014  -1.0950008 115.2439978  69.8810014
  -0.3290008 114.4869978  69.6090014  -2.1050008 114.7829978  69.9250014
  -0.6690008 115.8249978  71.2430014  -1.4470008 116.5089978  71.6420014
   0.1789992 116.5169978  71.0490014  -0.2850008 114.7729978  72.2870014
   0.4289992 114.1379978  71.7210014  -1.2020008 114.1689978  72.4510014
   0.2729992 115.2409978  73.6270014   1.2569992 115.6919978  73.3770014
   0.4259992 114.4529978  74.3950014  -0.4640008 116.3129978  74.4180014
  -1.4510008 115.8809978  74.6860014  -0.6790008 117.1689978  73.7420014
   0.2259992 116.8779978  75.6500014   1.2479992 116.4889978  75.7650014
  -0.1680008 117.8349978  76.5270014   0.4149992 117.8259978  77.4610014
  -1.4370008 118.6279978  76.5430014  -1.7460008 118.7529978  77.6030014
  -2.2500008 118.0409978  76.0670014  -1.4030008 120.0329978  75.9040014
  -2.4350008 120.4199978  76.0390014  -1.1840008 119.9419978  74.8180014
  -0.3920008 120.9689978  76.6320014  -0.4640008 121.9529978  76.1210014
   0.6049992 120.5199978  76.4330014  -0.3790008 121.1559978  78.0970014
  -0.4190008 120.1899978  78.6440014  -1.3600008 121.6049978  78.3680014
   0.8199992 121.9609978  78.6570014   0.8289992 122.9799978  78.2160014
   1.8209992 121.5089978  78.4870014   0.7639992 122.1339978  80.2000014
  -0.1810008 122.6469978  80.4760014   1.5529992 122.8359978  80.5470014
   0.9629992 120.9479978  81.1220014   1.9989992 120.5569978  81.0310014
   0.1229992 120.2449978  80.9370014   0.8189992 121.3109978  82.6010014
   0.7939992 120.4719978  83.3280014   0.0439992 122.0419978  82.9160014
   1.7099992 121.8949978  82.9180014 140.0759992  31.1509978  85.2210014
 140.2099992  31.7759978  84.3120014 140.9229992  31.3319978  85.9170014
 139.1779992  31.4829978  85.7860014 139.8739992  29.6769978  84.8550014
 140.8339992  29.2679978  84.4740014 139.6709992  29.0549978  85.7540014
 138.6869992  29.5859978  83.9100014 138.2299992  28.5809978  84.0290014
 137.9499992  30.3949978  84.0980014 139.2129992  29.6239978  82.4500014
 139.7689992  30.5829978  82.3750014 139.8739992  28.7569978  82.2360014
 138.1759992  29.5029978  81.3700014 137.7639992  28.4799978  81.5030014
 137.3049992  30.1569978  81.5880014 138.6959992  29.8639978  79.9960014
 137.9899992  30.6549978  79.6640014 139.7369992  30.2529978  79.9950014
 138.6429992  28.5729978  79.0900014 139.2299992  27.7349978  79.5210014
 137.5809992  28.2509978  79.0340014 139.0959992  28.8579978  77.6410014
 140.1549992  29.1909978  77.6060014 138.9359992  27.9519978  77.0190014
 138.3619992  30.1229978  76.9720014 137.4459992  30.4629978  77.5000014
 139.1469992  30.9089978  76.9520014 137.9949992  29.8869978  75.5170014
 139.0349992  29.8739978  75.1260014 137.4549992  28.9159978  75.4980014
 137.3539992  31.0169978  74.7100014 136.2849992  31.1499978  74.9790014
 137.7309992  32.0369978  74.9400014 137.4349992  30.6799978  73.2340014
 138.5409992  30.5899978  73.1910014 136.9629992  29.7099978  72.9680014
 136.9689992  31.7379978  72.1980014 135.8599992  31.6889978  72.1440014
 137.2979992  32.7399978  72.5460014 137.4209992  31.5299978  70.7670014
 136.9139992  32.2669978  70.1090014 138.4979992  31.7579978  70.6180014
 137.0809992  30.1849978  70.1320014 137.7489992  29.3399978  70.4020014
 136.0809992  29.9149978  70.5340014 137.1259992  30.3989978  68.6280014
 136.1609992  30.7439978  67.9650014 138.3229992  30.0689978  68.1500014
 138.3549992  29.7279978  66.7340014 139.3179992  29.2149978  66.5230014
 137.5339992  29.0369978  66.4470014 138.3579992  30.9589978  65.8310014
 137.4029992  31.5109978  65.9610014 138.4739992  30.4189978  64.4050014
 137.6129992  29.7559978  64.1720014 138.3569992  31.2629978  63.6920014
 139.7249992  29.7789978  64.1780014 140.1339992  29.3709978  62.6580014
 141.4509992  28.4559978  62.8950014 141.4379992  27.5299978  63.9780014
 140.4009992  27.1559978  64.1090014 142.0929992  26.6439978  63.8320014
 141.9639992  28.2409978  65.4120014 141.2179992  28.8139978  65.9430014
 142.2209992  27.4589978  66.1110014 143.1729992  29.2159978  65.3510014
 144.3939992  28.5509978  64.7250014 144.6059992  27.6579978  65.2950014
 144.2629992  28.3139978  63.6800014 145.2109992  29.2549978  64.7830014
 142.8689992  30.4669978  64.4590014 142.1719992  31.0889978  65.0010014
 143.8919992  30.7929978  64.3450014 142.5509992  30.0559978  63.5120014
 143.5069992  29.7099978  66.7470014 144.4089992  30.3049978  66.7360014
 143.5859992  28.9019978  67.4590014 142.8019992  30.4569978  67.0790014
 138.9369992  28.5999978  62.2060014 140.5169992  30.6269978  61.8960014
 139.4669992  31.8149978  66.1660014 139.4809992  32.9339978  65.5900014
 138.4949992  33.4689978  65.0150014 140.8169992  33.5869978  65.7910014
 140.8989992  34.5429978  65.2300014 141.6779992  32.9499978  65.4980014
 140.9519992  33.8989978  67.3030014 140.8769992  32.9649978  67.9000014
 140.0769992  34.5279978  67.5700014 142.1529992  34.6849978  67.7720014
 142.1209992  35.7189978  67.3680014 143.1569992  34.3249978  67.4610014
 142.2679992  34.8899978  69.2910014 141.5289992  35.5989978  69.7230014
 143.2889992  35.2269978  69.5690014 142.1689992  33.4999978  70.1290014
 141.0979992  33.2359978  69.9980014 142.3039992  33.7569978  71.2020014
 143.0659992  32.3869978  69.6500014 144.1089992  32.7489978  69.5240014
 142.8159992  31.9799978  68.6470014 143.0279992  31.1609978  70.6120014
 143.2469992  31.6589978  71.5810014 143.8039992  30.4349978  70.2870014
 141.6629992  30.5009978  70.6840014 141.1109992  30.6009978  69.7370014
 141.0169992  30.0449978  71.7720014 139.9969992  29.6449978  71.6720014
 141.5689992  30.0179978  73.2220014 142.6439992  29.7389978  73.2620014
 141.1219992  29.1959978  73.8210014 141.4239992  31.2989978  74.0280014
 140.4309992  31.3999978  74.5180014 141.5689992  32.2199978  73.4250014
 142.4699992  31.2959978  75.1560014 143.4679992  31.1559978  74.6890014
 142.2969992  30.3629978  75.7340014 142.4759992  32.5059978  76.0540014
 141.4929992  32.6229978  76.5580014 142.7089992  33.4219978  75.4700014
 143.4099992  32.3229978  77.2610014 144.4439992  32.6719978  77.0490014
 143.5989992  31.2579978  77.5150014 142.8889992  32.9779978  78.5500014
 142.2379992  33.8169978  78.2250014 143.7699992  33.3779978  79.0970014
 142.1709992  32.0849978  79.5830014 141.2019992  31.7189978  79.1820014
 141.9589992  32.7739978  80.4290014 142.9269992  30.8159978  80.0770014
 143.8459992  31.0779978  80.6430014 143.2789992  30.3729978  79.1210014
 142.2559992  30.0869978  80.5790014 129.3189992   8.6879978  82.1970014
 129.5979992   8.6949978  83.2720014 130.0179992   7.8829978  81.8830014
 128.2649992   8.4049978  81.9910014 129.6059992   9.9919978  81.4910014
 128.9669992  10.7759978  81.9500014 130.5999992  10.4169978  81.7460014
 129.1149992  10.0229978  79.9620014 128.0769992   9.6459978  80.0810014
 128.9319992  11.0979978  79.7470014 129.9659992   9.2049978  78.9590014
 130.9449992   9.0339978  79.4560014 129.4809992   8.2549978  78.6490014
 130.2769992  10.0449978  77.7520014 129.3279992  10.4949978  77.3890014
 130.8289992  10.9599978  78.0590014 130.9179992   9.3529978  76.5680014
 131.9079992   8.9299978  76.8450014 130.5189992   8.3539978  76.2920014
 131.0959992  10.1329978  75.2230014 131.1909992  11.2129978  75.4660014
 131.9629992   9.8829978  74.5750014 129.8659992   9.9119978  74.4480014
 129.5959992   8.8349978  74.4790014 129.0489992  10.4119978  75.0100014
 130.1029992  10.4029978  73.0440014 130.3469992  11.4859978  73.0350014
 130.9369992   9.8319978  72.5830014 128.8419992  10.2249978  72.1960014
 128.3449992   9.2619978  72.4380014 128.1119992  10.9909978  72.5350014
 129.1159992  10.2219978  70.6550014 128.0919992  10.2089978  70.2240014
 129.5479992  11.1859978  70.3130014 129.9439992   9.0949978  70.0840014
 129.9069992   9.3919978  69.0140014 130.9929992   9.2589978  70.4110014
 129.5249992   7.7049978  70.3890014 130.2479992   6.9919978  69.9380014
 129.6329992   7.5809978  71.4870014 128.1469992   7.2649978  69.8810014
 128.0019992   6.2059978  70.1850014 127.3889992   7.9299978  70.3460014
 127.8629992   7.2399978  68.3580014 127.7949992   8.2999978  68.0330014
 128.7649992   6.8909978  67.8120014 126.7129992   6.3349978  67.9960014
 125.8389992   5.9189978  68.7140014 126.5979992   6.2109978  66.6310014
 125.3129992   5.8389978  66.1290014 125.3819992   4.7709978  65.8320014
 124.4929992   5.8919978  66.8770014 124.9719992   6.7999978  64.9530014
 123.9839992   6.4139978  64.6240014 126.0329992   6.8349978  63.8290014
 126.1789992   5.7779978  63.5210014 125.6169992   7.3979978  62.9660014
 127.2149992   7.5079978  64.2830014 128.4499992   7.5049978  63.2980014
 129.2999992   8.5889978  64.0050014 128.9849992   9.2769978  65.2300014
 128.0149992   8.9439978  65.6570014 129.8399992   8.9639978  65.8680014
 129.0149992  10.8419978  65.2680014 129.0429992  11.1379978  66.3060014
 129.9559992  11.1029978  64.8070014 127.9639992  11.6569978  64.4040014
 126.6099992  11.5529978  64.9970014 125.9319992  12.1239978  64.3800014
 126.3499992  10.5119978  65.1280014 126.5979992  12.1329978  65.9070014
 128.4669992  13.1439978  64.5900014 128.4059992  13.5129978  65.6030014
 129.4999992  13.1279978  64.2720014 127.8119992  13.8069978  64.0440014
 127.8849992  11.2419978  63.0140014 126.9279992  11.4339978  62.5520014
 127.9929992  10.1669978  63.0400014 128.6309992  11.7429978  62.4150014
 129.1649992   6.2159978  63.5310014 128.0019992   7.8899978  61.8870014
 124.7739992   8.0849978  65.5070014 123.7169992   8.3549978  66.2420014
 122.8489992   7.5489978  66.5170014 123.7529992   9.7829978  66.6990014
 122.7109992  10.1229978  66.8790014 124.1489992  10.3969978  65.8620014
 124.5589992   9.9419978  67.9600014 124.7419992  11.0269978  68.1160014
 125.4979992   9.3599978  67.8450014 123.9189992   9.6789978  69.3560014
 123.8059992   8.5739978  69.3460014 122.8679992  10.0379978  69.3410014
 124.5179992  10.2679978  70.6110014 124.5159992  11.3579978  70.3980014
 125.5519992   9.8729978  70.7000014 123.7459992   9.8859978  71.8430014
 122.7349992  10.3469978  71.8460014 124.3479992  10.1719978  72.7320014
 123.5309992   8.3779978  72.0240014 123.0029992   7.9499978  71.1450014
 122.8549992   8.2559978  72.8970014 124.8999992   7.5619978  72.0620014
 125.7269992   8.0539978  72.6180014 125.3279992   7.5519978  71.0360014
 124.5329992   6.1359978  72.5360014 123.5509992   5.8179978  72.1560014
 125.4029992   5.3379978  73.1780014 124.9819992   4.3999978  73.5680014
 126.7809992   5.6259978  73.6740014 127.3529992   6.4389978  73.1780014
 127.4069992   4.7089978  73.7060014 126.9749992   6.1029978  75.1650014
 126.6719992   7.1709978  75.2030014 127.9749992   5.8669978  75.5870014
 125.9249992   5.4549978  76.1690014 126.3009992   4.4099978  76.1800014
 124.9019992   5.6349978  75.7750014 126.0229992   5.9249978  77.6180014
 127.0019992   5.6729978  78.0780014 125.1929992   5.5649978  78.2630014
 125.9029992   7.4729978  77.7540014 125.1699992   7.8809978  77.0260014
 126.8269992   7.8889978  77.2970014 125.6919992   8.0039978  79.1700014
 125.7889992   9.0959978  78.9900014 126.5049992   7.6199978  79.8220014
 124.2639992   7.6999978  79.7650014 124.2559992   6.5969978  79.8930014
 123.5139992   8.0389978  79.0190014 124.0619992   8.4899978  81.0880014
 124.9159992   8.1449978  81.7100014 123.0719992   8.1649978  81.4750014
 124.0649992   9.5959978  80.9810014  40.4349992  -1.8800022  84.9330014
  39.9999992  -2.9010022  84.8820014  40.6589992  -1.7330022  86.0110014
  41.4069992  -1.8610022  84.3950014  39.3719992  -0.9100022  84.4940014
  38.6689992  -0.7720022  85.3440014  39.8329992   0.0899978  84.3410014
  38.4789992  -1.4660022  83.3670014  39.2189992  -1.4820022  82.5390014
  38.2439992  -2.4940022  83.7140014  37.1889992  -0.6260022  83.1680014
  36.3669992  -1.3140022  82.8740014  36.9419992  -0.0790022  84.1030014
  37.2909992   0.4749978  82.1380014  36.4549992   1.1819978  82.3260014
  38.2499992   0.9309978  82.4640014  37.4639992   0.0279978  80.6330014
  38.3309992  -0.6660022  80.6070014  36.5749992  -0.5930022  80.3900014
  37.6949992   1.3119978  79.7340014  38.5579992   1.8919978  80.1270014
  37.9139992   0.9949978  78.6920014  36.4299992   2.2199978  79.6800014
  35.7349992   1.6019978  79.0720014  35.9449992   2.3799978  80.6660014
  36.5629992   3.6779978  79.1510014  35.6969992   4.1139978  79.6940014
  37.5459992   4.1349978  79.3910014  36.3379992   3.6589978  77.6200014
  35.6059992   2.8759978  77.3270014  35.8479992   4.6039978  77.3020014
  37.6249992   3.6339978  76.8420014  38.2429992   4.5199978  77.1040014
  38.2629992   2.7859978  77.1700014  37.4809992   3.7179978  75.3470014
  37.0179992   4.7129978  75.1790014  38.5479992   3.8289978  75.0580014
  36.5749992   2.7149978  74.5560014  35.6129992   2.5899978  75.0980014
  36.2939992   3.1359978  73.5670014  37.3039992   1.2849978  74.3450014
  38.3019992   1.3999978  73.8710014  37.3919992   0.8059978  75.3440014
  36.6039992   0.2659978  73.4030014  37.0759992  -0.6960022  73.6980014
  35.5169992   0.2109978  73.6230014  36.8609992   0.5969978  71.9600014
  37.4109992   1.6039978  71.5060014  36.2819992  -0.3320022  71.2480014
  36.4709992  -0.2640022  69.7720014  37.4349992   0.1479978  69.4020014
  36.4629992  -1.2950022  69.3580014  35.2459992   0.3039978  68.9980014
  34.4829992  -0.5030022  69.0280014  35.5619992   0.7519978  67.5370014
  35.8399992  -0.1590022  66.9640014  34.6009992   1.1899978  67.1930014
  36.5569992   1.7729978  67.4070014  36.7729992   2.2069978  65.8590014
  37.6819992   1.0209978  65.2750014  37.0019992   0.1269978  64.3610014
  37.6119992  -0.7970022  64.2690014  35.9689992  -0.1460022  64.6640014
  36.9009992   0.8519978  62.9570014  36.1659992   0.4099978  62.3010014
  36.5599992   1.8529978  63.1770014  38.1449992   1.0269978  62.0900014
  38.7709992  -0.3120022  62.0550014  38.0939992  -1.0530022  61.6580014
  39.7289992  -0.2100022  61.5670014  38.9629992  -0.6240022  63.0710014
  37.9019992   1.3479978  60.6420014  37.3669992   2.2859978  60.6440014
  38.8679992   1.3309978  60.1610014  37.2079992   0.6349978  60.2210014
  39.0759992   2.0289978  62.7910014  38.6429992   2.9969978  62.5880014
  40.0049992   1.9609978  62.2440014  39.0849992   1.8069978  63.8480014
  35.4859992   2.2219978  65.1920014  37.6179992   3.3679978  65.8780014
  34.8369992   1.4579978  69.7480014  33.5639992   1.5409978  69.9190014
  32.7259992   0.7009978  69.5390014  33.2979992   2.9419978  70.5400014
  32.9939992   3.6809978  69.7680014  34.2239992   3.3769978  70.9740014
  32.1029992   2.8029978  71.5500014  31.4559992   1.9859978  71.1660014
  31.5649992   3.7569978  71.7370014  32.5469992   2.4349978  72.9520014
  33.3539992   3.1639978  73.1780014  33.0519992   1.4579978  73.1090014
  31.4169992   2.5439978  73.9670014  30.4579992   2.0719978  73.6640014
  31.0929992   3.6059978  73.9320014  31.7989992   2.1239978  75.3930014
  30.9359992   2.3449978  76.0570014  32.7529992   2.6029978  75.7000014
  31.9679992   0.6139978  75.5690014  32.7359992   0.2349978  74.8610014
  31.0189992   0.0719978  75.3700014  32.5819992   0.3489978  76.9400014
  33.2669992   1.1659978  77.2520014  33.3419992  -0.4610022  76.9580014
  31.4649992   0.2149978  77.9420014  30.5449992  -0.2830022  77.6040014
  31.4199992   0.8549978  79.1580014  30.5919992   0.6919978  79.8630014
  32.4439992   1.7969978  79.7450014  33.4209992   1.7519978  79.2180014
  32.7849992   1.4419978  80.7410014  31.8789992   3.2169978  79.9840014
  30.9109992   3.1359978  80.5220014  31.7329992   3.7819978  79.0380014
  32.8159992   4.1129978  80.8360014  32.4609992   5.1629978  80.9080014
  33.7709992   4.1549978  80.2690014  32.9229992   3.6949978  82.2500014
  33.5319992   2.7659978  82.2060014  31.9759992   3.4459978  82.7750014
  33.5109992   4.6849978  83.2230014  32.7039992   5.4479978  83.2330014
  34.4899992   4.9709978  82.7820014  33.7399992   4.1709978  84.6980014
  32.8009992   3.7129978  85.0750014  34.1559992   5.0269978  85.2720014
  34.9119992   3.0919978  84.7330014  35.8389992   3.6829978  84.8950014
  35.1349992   2.6619978  83.7340014  34.7989992   1.9609978  85.7470014
  35.6139992   1.2509978  85.4890014  33.8339992   1.4099978  85.7260014
  34.9119992   2.3529978  86.7800014  31.7799992   3.1629978  82.9850014
  31.4599992   3.7169978  83.8940014  32.8899992   3.2179978  82.9700014
  31.3519992   2.1399978  82.9150014  31.3169992   4.0479978  81.7440014
  30.2069992   4.0109978  81.7730014  31.7329992   5.0569978  81.9520014
  31.7909992   3.4559978  80.4470014  32.8639992   3.7279978  80.3490014
  31.7239992   2.3479978  80.4190014  31.1429992   4.0199978  79.0980014
  30.0519992   4.0749978  79.2990014  31.4479992   5.0839978  79.0080014
  31.5359992   3.1899978  77.9000014  32.6399992   3.1029978  77.8160014
  31.1389992   2.1549978  77.9610014  31.0799992   3.8789978  76.6020014
  31.1069992   3.1719978  75.7460014  30.0039992   4.0949978  76.7740014
  31.8909992   5.1339978  76.2490014  31.9049992   5.8589978  77.0900014
  32.9799992   4.9689978  76.1020014  31.6509992   5.9489978  74.9260014
  30.6319992   6.3569978  75.0960014  32.4009992   6.7669978  74.9670014
  31.8569992   5.1119978  73.6020014  32.9449992   4.8909978  73.6290014
  31.2219992   4.2009978  73.6420014  31.3449992   5.7869978  72.3170014
  30.2769992   6.0219978  72.5130014  31.8189992   6.7909978  72.3380014
  31.4179992   4.9089978  71.0340014  30.6899992   4.0809978  71.1690014
  31.0649992   5.6049978  70.2430014  32.8289992   4.4089978  70.7510014
  33.6369992   5.1609978  70.8800014  33.0689992   3.6549978  71.5310014
  32.8879992   3.8219978  69.2670014  32.6879992   4.5579978  68.4590014
  33.9489992   3.5129978  69.1620014  31.9819992   2.5849978  69.0610014
  31.9879992   1.9389978  69.9640014  30.9529992   2.9839978  68.9360014
  32.3409992   1.7149978  67.8980014  32.4479992   2.2749978  66.9450014
  33.3719992   1.3299978  68.0550014  31.2659992   0.7269978  67.5570014
  30.5999992   0.0789978  68.3740014  31.0709992   0.6619978  66.2540014
  29.9409992   0.0909978  65.6960014  30.1239992  -0.3560022  64.6950014
  29.5169992  -0.6890022  66.3630014  28.7279992   1.0509978  65.4550014
  27.8579992   0.4549978  65.1050014  29.0029992   2.0569978  64.3210014
  29.9899992   2.5589978  64.4010014  29.0589992   1.4619978  63.3840014
  27.7839992   2.9069978  64.2010014  27.8689992   3.8959978  62.9920014
  29.2129992   4.6969978  63.3690014  29.0949992   5.9439978  64.1410014
  28.5819992   6.6829978  63.4900014  28.4689992   5.7989978  65.0470014
  30.4719992   6.4179978  64.4990014  30.8889992   6.9129978  63.6340014
  30.3919992   7.1659978  65.2740014  31.5309992   5.4279978  64.9720014
  32.0599992   4.4379978  63.8820014  31.3089992   3.6979978  63.6500014
  32.2859992   4.9449978  62.9550014  32.8959992   3.9529978  64.3650014
  32.6779992   6.1229978  65.5940014  32.2859992   6.5959978  66.4820014
  33.4349992   5.4139978  65.8970014  33.1029992   6.9279978  65.0140014
  30.9349992   4.5899978  66.0620014  30.8289992   5.2379978  66.9190014
  31.6199992   3.8139978  66.3710014  29.9839992   4.1559978  65.7930014
  28.1639992   3.1809978  61.7230014  26.6849992   4.7719978  63.0710014
  28.5729992   1.7379978  66.6880014  27.7609992   1.1989978  67.6320014
  27.2339992   0.0929978  67.4780014  27.6599992   2.0529978  68.8670014
  28.1349992   3.0449978  68.7080014  28.3019992   1.7019978  69.7020014
  26.1109992   2.4159978  69.1300014  25.3709992   1.6829978  69.5170014
  25.6649992   2.7509978  68.1690014  25.9709992   3.4879978  70.2480014
  24.8889992   3.6229978  70.4580014  26.3839992   4.4639978  69.9150014
  26.6979992   3.0259978  71.4990014  27.7769992   3.2349978  71.3380014
  26.6639992   1.9199978  71.5890014  26.2639992   3.7429978  72.8660014
  26.0989992   4.8009978  72.5700014  27.1079992   3.7029978  73.5880014
  25.0499992   3.0729978  73.5200014  24.3119992   2.8509978  72.7190014
  24.5739992   3.9459978  74.0170014  25.3609992   1.9189978  74.5510014
  24.3829992   1.5979978  74.9690014  25.8329992   2.3589978  75.4550014
  26.0449992   0.6989978  74.0090014  25.3399992  -0.0270022  73.5790014
  27.3439992   0.4409978  74.0090014  27.6539992  -0.5400022  73.6190014
  28.4889992   1.3599978  74.4810014  28.1939992   2.2039978  75.1410014
  28.9399992   1.9339978  73.6440014  29.4019992   0.5319978  75.3440014
  30.3349992   1.1139978  75.5040014  29.6889992  -0.4250022  74.8590014
  28.7819992   0.0829978  76.7310014  29.7509992  -0.1870022  77.2030014
  28.0659992  -0.7610022  76.6390014  28.2389992   1.2779978  77.5570014
  27.1639992   1.4329978  77.3270014  28.7619992   2.1769978  77.1670014
  28.3429992   1.0589978  79.1610014  29.3959992   1.2499978  79.4570014
  28.0399992   0.0059978  79.3400014  27.3199992   1.8459978  79.9050014
  26.3239992   1.6729978  79.4440014  27.4929992   2.9429978  79.9340014
  27.1729992   1.4079978  81.4300014  26.4609992   0.5799978  81.6340014
  26.7419992   2.3199978  81.8950014  28.4329992   1.0699978  82.1860014
  29.2249992   1.8439978  82.2670014  28.9249992   0.2319978  81.6470014
  28.1259992   0.6899978  83.1840014  18.2149992 148.4159978  81.9940014
  17.8099992 147.4349978  82.3230014  17.3779992 149.1259978  81.8260014
  18.8989992 148.7599978  82.7990014  18.9269992 148.1769978  80.6760014
  18.0949992 147.8269978  80.0280014  19.1599992 149.1219978  80.1400014
  20.1789992 147.1989978  80.7130014  20.9379992 147.7049978  81.3490014
  20.0219992 146.2209978  81.2170014  20.9089992 147.1459978  79.2430014
  20.9699992 148.1999978  78.8980014  21.9339992 146.7499978  79.4060014
  20.3119992 146.3299978  78.1660014  20.5919992 145.3099978  78.5070014
  19.2139992 146.4669978  78.0780014  20.8989992 146.5879978  76.7930014
  20.7589992 147.6799978  76.6430014  21.9539992 146.2989978  76.6020014
  20.2059992 145.9399978  75.6540014  19.1379992 146.2459978  75.6450014
  20.6879992 146.3929978  74.7620014  20.4189992 144.4739978  75.5700014
  21.5289992 144.4869978  75.6350014  19.9489992 143.9659978  76.4390014
  19.8249992 143.8459978  74.3370014  18.7809992 144.1729978  74.1440014
  20.3129992 144.2409978  73.4210014  19.9439992 142.3259978  74.2960014
  20.9909992 142.0019978  74.1150014  19.5239992 141.9419978  75.2500014
  19.2859992 141.6179978  73.1060014  19.4469992 140.5639978  73.4160014
  18.2089992 141.8879978  73.0610014  19.8129992 141.9519978  71.6730014
  19.1639992 141.6749978  70.8140014  19.9849992 143.0489978  71.6590014
  21.1549992 141.2579978  71.4130014  21.9109992 141.7519978  72.0600014
  20.9979992 140.2689978  71.8940014  21.5759992 141.0709978  69.9850014
  22.4699992 140.4189978  69.8840014  20.7959992 140.5419978  69.3970014
  21.9229992 142.4139978  69.3140014  22.4199992 143.1489978  69.9830014
  22.6859992 142.2629978  68.5210014  20.7499992 143.1739978  68.7070014
  19.7969992 142.6819978  68.0930014  20.8809992 144.5189978  68.9810014
  19.7339992 145.3369978  68.6980014  18.9809992 144.8349978  68.0530014
  19.2369992 145.5819978  69.6610014  20.2059992 146.6829978  68.1150014
  19.3459992 147.3479978  67.8860014  21.0239992 146.5679978  66.7960014
  20.3009992 146.1499978  66.0630014  21.3229992 147.6319978  66.6820014
  22.1809992 145.8489978  67.1400014  23.0639992 145.3959978  65.9120014
  22.2819992 145.9079978  64.6800014  22.8439992 145.6169978  63.3590014
  23.4399992 146.5199978  63.1080014  23.5159992 144.7319978  63.3700014
  21.8439992 145.4159978  62.2140014  21.2169992 146.2949978  62.2400014
  22.3969992 145.3369978  61.2890014  20.9579992 144.1979978  62.3300014
  21.8099992 143.0009978  62.8060014  22.0379992 143.1869978  63.8450014
  21.2589992 142.0729978  62.8260014  22.6939992 142.9249978  62.1900014
  19.8639992 144.4559978  63.2320014  20.2899992 144.7259978  64.1860014
  19.2079992 145.2589978  62.9300014  19.2349992 143.5779978  63.2680014
  20.5289992 143.8479978  60.9280014  21.2479992 143.4969978  60.2030014
  19.9809992 144.6889978  60.5290014  19.8409992 143.0199978  61.0130014
  24.3439992 146.2459978  65.9790014  23.2359992 143.9279978  65.9260014
  20.9949992 147.2149978  69.1120014  21.2069992 148.5379978  69.1540014
  20.8529992 149.3589978  68.3570014  21.9429992 148.8669978  70.4780014
  21.7759992 147.9889978  71.1380014  21.4749992 149.7689978  70.9270014
  23.4519992 149.2179978  70.0870014  24.0399992 149.4379978  71.0040014
  23.3609992 150.2079978  69.5920014  24.2699992 148.2039978  69.3660014
  25.2039992 148.6849978  69.0040014  23.6549992 147.8569978  68.5080014
  24.5989992 146.9999978  70.2820014  23.6779992 146.3809978  70.2330014
  24.9269992 147.3639978  71.2790014  25.7159992 146.0879978  69.7600014
  26.6129992 146.7409978  69.8080014  25.4489992 145.8389978  68.7100014
  25.9429992 144.7029978  70.4350014  26.9619992 144.3969978  70.1160014
  25.2199992 143.9409978  70.0730014  25.7399992 144.7889978  71.9450014
  24.7899992 145.2849978  72.2380014  26.5419992 145.4509978  72.3380014
  25.5789992 143.3849978  72.5670014  25.2949992 142.5679978  71.8870014
  25.7109992 143.1509978  73.9230014  25.8159992 142.1149978  74.2800014
  25.9859992 144.2849978  74.9130014  26.2279992 145.2419978  74.4050014
  26.9129992 144.0789978  75.4900014  24.7119992 144.3979978  75.7890014
  24.2249992 143.4149978  75.9670014  24.0729992 145.2299978  75.4240014
  25.1889992 144.8919978  77.1070014  25.5119992 145.9529978  77.0490014
  26.0899992 144.3029978  77.3800014  24.0469992 144.6049978  78.2050014
  23.9829992 143.4999978  78.2980014  23.0669992 145.0959978  78.0280014
  24.5389992 145.4829978  79.4190014  23.7749992 145.2449978  80.1900014
  24.6019992 146.5629978  79.1640014  25.8799992 145.0789978  79.9050014
  26.0409992 145.6429978  80.8480014  26.7509992 145.2859978  79.2470014
  25.9029992 143.5789978  80.2820014  26.0019992 143.0359978  79.3180014
  24.9469992 143.2269978  80.7240014  26.9339992 143.2609978  81.2920014
  27.9759992 143.2569978  80.9070014  26.7049992 142.3179978  81.8340014
  26.8959992 144.0379978  82.0850014  10.2739992 139.6939978  85.5420014
  10.6829992 138.8069978  85.0130014   9.4239992 140.0379978  84.9160014
   9.7989992 139.4709978  86.5210014  11.3189992 140.7519978  85.7060014
  10.8629992 141.6679978  86.1390014  12.0439992 140.4299978  86.4840014
  12.0349992 141.0859978  84.4440014  12.6969992 141.9659978  84.5890014
  12.7109992 140.2349978  84.2110014  11.0709992 141.5349978  83.2940014
  10.2919992 140.7459978  83.2370014  10.6229992 142.5199978  83.5460014
  11.6579992 141.8659978  81.9320014  10.7879992 142.1149978  81.2880014
  12.4349992 142.6599978  81.8860014  12.1489992 140.5579978  81.1820014
  13.1669992 140.2999978  81.5440014  11.4149992 139.7709978  81.4570014
  12.2379992 140.6679978  79.6690014  12.6809992 139.7179978  79.3020014
  11.2319992 140.7539978  79.2030014  13.2639992 141.7649978  79.1580014
  12.8549992 142.7879978  79.3050014  14.1679992 141.6699978  79.7960014
  13.7049992 141.6849978  77.6640014  14.2509992 140.7289978  77.5110014
  12.7499992 141.6849978  77.0960014  14.5369992 142.8459978  77.1360014
  13.8989992 143.7289978  77.3590014  15.4479992 142.7499978  77.7640014
  14.9559992 142.5989978  75.6040014  15.3869992 141.5759978  75.5720014
  13.9979992 142.5919978  75.0410014  16.0299992 143.6399978  75.0710014
  15.5259992 144.6279978  75.0140014  16.9229992 143.6379978  75.7330014
  16.5529992 143.5349978  73.6000014  17.3549992 144.2949978  73.4840014
  16.8169992 142.4909978  73.3270014  15.4069992 143.9449978  72.7000014
  14.5899992 143.1919978  72.6630014  14.9239992 144.8559978  73.1150014
  15.7819992 143.9519978  71.1930014  16.7349992 144.5089978  71.0630014
  15.9559992 142.8639978  71.0560014  14.7689992 144.5409978  70.2650014
  14.0919992 145.5039978  70.5390014  14.8109992 143.8049978  69.1340014
  13.7179992 143.7919978  68.3140014  12.8129992 143.8309978  68.9560014
  13.9069992 144.5569978  67.5310014  13.6139992 142.3839978  67.6040014
  14.6439992 142.2199978  67.2230014  12.7099992 142.2479978  66.4250014
  11.6729992 142.6049978  66.6010014  13.1299992 142.9569978  65.6800014
  12.4869992 140.9069978  66.0760014  13.0699992 140.2909978  64.7080014
  14.6309992 140.5509978  64.7980014  15.4379992 139.5919978  65.4190014
  16.3679992 140.1269978  65.7050014  14.9859992 139.1289978  66.3230014
  15.7139992 138.4409978  64.4660014  16.3969992 137.7199978  64.8910014
  14.7799992 138.0859978  64.0560014  16.3009992 138.7649978  63.0540014
  17.6049992 139.6079978  63.1750014  17.4829992 140.5229978  63.7360014
  18.4899992 139.1519978  63.5940014  17.5809992 140.0749978  62.2020014
  16.6189992 137.4619978  62.3660014  17.4619992 136.9449978  62.8000014
  15.6939992 136.9159978  62.2480014  17.0499992 137.7959978  61.4340014
  15.3449992 139.4189978  62.1510014  14.7559992 140.1199978  62.7230014
  14.5649992 138.7389978  61.8410014  15.8439992 139.9719978  61.3680014
  12.8609992 138.8579978  64.7730014  12.5419992 141.0599978  63.5210014
  13.3159992 141.4489978  68.6650014  14.3709992 140.7239978  69.0990014
  15.4809992 140.8269978  68.6810014  13.9399992 139.6839978  70.2400014
  14.2799992 138.6539978  70.0010014  12.8309992 139.6269978  70.2000014
  14.4329992 140.1519978  71.6440014  13.7949992 141.0429978  71.8240014
  15.5209992 140.3799978  71.6580014  14.0239992 139.1619978  72.7960014
  12.9719992 138.8729978  72.5840014  13.9679992 139.6759978  73.7790014
  14.7129992 137.8239978  72.8870014  14.6939992 137.2799978  71.9180014
  14.1309992 137.2529978  73.6420014  16.2079992 138.0529978  73.3690014
  16.5019992 139.0819978  73.6660014  16.8689992 137.8659978  72.4970014
  16.5619992 137.1729978  74.6850014  17.6609992 137.1269978  74.8440014
  16.3439992 136.1199978  74.4030014  16.0249992 137.7239978  75.9160014
  15.0329992 138.2039978  75.7770014  16.6499992 138.6149978  76.1410014
  15.8249992 136.7559978  76.9910014  15.1399992 135.9619978  76.6570014
  16.2089992 136.7489978  78.2360014  16.1459992 135.9279978  78.9650014
  16.9709992 137.8239978  78.9250014  17.0579992 138.7309978  78.2890014
  17.9879992 137.4969978  79.2270014  16.4299992 138.4779978  80.2400014
  16.4189992 137.6699978  81.0030014  15.3209992 138.5459978  80.2250014
  17.1299992 139.8109978  80.6380014  16.5369992 140.6449978  80.2050014
  18.0829992 140.0129978  80.1030014  17.3839992 139.7959978  82.1610014
  17.9279992 140.6819978  82.5540014  17.9709992 138.8839978  82.4020014
  15.9999992 139.9679978  82.8380014  15.3289992 139.1349978  82.5370014
  15.5279992 140.8429978  82.3440014  15.8809992 140.4489978  84.3210014
  14.8149992 140.7179978  84.4830014  16.5329992 141.3459978  84.3870014
  16.0679992 139.3889978  85.4420014  15.8869992 139.7729978  86.4690014
  17.1389992 139.0939978  85.4160014  15.2189992 138.1939978  85.2330014
  15.2159992 137.5099978  86.1090014  15.6539992 137.6199978  84.3870014
  14.1449992 138.4689978  85.1690014   3.6719992  23.7529978  83.0150014
   2.9389992  23.3849978  83.7650014   4.5469992  24.1609978  83.5650014
   3.9729992  22.8679978  82.4140014   3.0459992  24.8009978  82.1570014
   2.2139992  24.4039978  81.5370014   2.4699992  25.5309978  82.7650014
   3.9999992  25.6369978  81.2870014   3.4069992  26.3269978  80.6490014
   4.6459992  26.2189978  81.9770014   4.9089992  24.9389978  80.2880014
   5.4979992  25.6779978  79.7040014   5.6299992  24.2949978  80.8360014
   4.1949992  24.0549978  79.2870014   4.9749992  23.6099978  78.6330014
   3.7019992  23.1679978  79.7400014   3.2159992  24.7749978  78.4060014
   2.6999992  25.6179978  78.9130014   3.9569992  25.1659978  77.6770014
   2.2249992  23.9899978  77.6230014   1.4369992  23.7049978  78.3530014
   1.7329992  24.5829978  76.8220014   2.8019992  22.6629978  77.0260014
   3.8469992  23.0009978  76.8590014   2.6879992  21.7729978  77.6810014
   2.3049992  22.4259978  75.5780014   2.5869992  21.3889978  75.2940014
   1.2019992  22.4689978  75.6980014   2.9089992  23.4529978  74.6670014
   2.6689992  24.4949978  74.9700014   4.0089992  23.3399978  74.5630014
   2.4619992  23.2279978  73.2050014   2.9039992  22.3119978  72.7570014
   1.3629992  23.0739978  73.1620014   2.9419992  24.3189978  72.2680014
   4.0079992  24.5399978  72.4910014   2.8029992  23.9349978  71.2340014
   2.1129992  25.6579978  72.3090014   1.0429992  25.4309978  72.1150014
   2.2059992  25.9469978  73.3770014   2.5279992  26.8199978  71.4660014
   1.8119992  27.6099978  71.7770014   3.5889992  27.1049978  71.6350014
   2.3759992  26.4409978  70.0090014   3.0539992  25.6099978  69.7180014
   1.3499992  26.0419978  69.8650014   2.6709992  27.6929978  69.2180014
   3.3879992  28.5929978  69.6390014   2.0889992  27.7419978  67.9990014
   2.1919992  29.0369978  67.4200014   1.2569992  29.3579978  66.9140014
   2.3689992  29.8199978  68.1870014   3.3389992  29.1349978  66.3790014
   3.4429992  30.0839978  65.8090014   3.1639992  28.0189978  65.2240014
   2.0699992  27.9519978  65.0430014   3.5639992  28.2989978  64.2270014
   3.7719992  26.7619978  65.6240014   3.0199992  25.4209978  65.5670014
   4.0779992  24.5449978  64.9730014   5.4869992  24.6859978  65.0440014
   5.8559992  25.1499978  65.9830014   5.9619992  23.6849978  65.1290014
   5.9709992  25.4069978  63.7490014   5.4189992  26.3349978  63.7120014
   7.0439992  25.4629978  63.8550014   5.6379992  24.8709978  62.3360014
   6.2429992  23.4419978  62.2410014   5.6729992  22.8889978  62.9730014
   6.2529992  23.0159978  61.2480014   7.2599992  23.5969978  62.5680014
   4.1679992  24.8279978  62.0880014   3.6599992  24.1649978  62.7720014
   3.8299992  25.8229978  62.3400014   4.0189992  24.5819978  61.0480014
   6.3279992  25.7679978  61.3230014   7.3859992  25.6829978  61.5260014
   6.1239992  26.8089978  61.5260014   6.0749992  25.4929978  60.3090014
   2.7059992  24.9949978  66.9610014   1.8349992  25.5289978  64.6010014
   4.6279992  28.9109978  67.0490014   5.6999992  29.2129978  66.3320014
   5.6919992  29.5819978  65.1380014   7.0379992  29.0599978  67.0730014
   7.1479992  29.8559978  67.8400014   7.9569992  29.2359978  66.4750014
   7.0369992  27.6699978  67.6710014   6.6419992  26.9229978  66.9500014
   6.1889992  27.6019978  68.3850014   8.2819992  27.0269978  68.2210014
   8.7689992  27.8109978  68.8380014   8.9449992  26.7409978  67.3760014
   8.1439992  25.7379978  68.9880014   9.2159992  25.4809978  69.1270014
   7.5409992  24.9939978  68.4250014   7.6919992  25.9189978  70.4360014
   7.7379992  24.8779978  70.8210014   6.6409992  26.2729978  70.5040014
   8.4969992  26.7519978  71.4390014   8.4049992  27.8349978  71.2100014
   9.5809992  26.5229978  71.3490014   8.0129992  26.6049978  72.8740014
   8.7489992  27.2309978  73.4230014   8.2349992  25.6019978  73.2960014
   6.6199992  26.9969978  73.0770014   5.8569992  26.3559978  72.6120014
   6.2489992  28.0279978  73.8070014   5.1699992  28.1979978  73.9420014
   7.2079992  29.0379978  74.4980014   6.9079992  30.0519978  74.1560014
   8.2809992  29.0229978  74.2120014   7.0679992  28.8779978  76.0120014
   7.4869992  29.7989978  76.4700014   7.6579992  27.9949978  76.3390014
   5.6299992  28.7579978  76.5430014   5.2369992  27.7289978  76.3960014
   4.8289992  29.3039978  76.0000014   5.3579992  28.8999978  78.0550014
   6.2239992  29.4759978  78.4450014   5.3999992  27.8749978  78.4820014
   4.0819992  29.5909978  78.4830014   3.2509992  28.8669978  78.3470014
   3.9459992  30.4989978  77.8580014   4.3009992  30.1169978  79.9340014
   5.0909992  30.8859978  79.7930014   4.6739992  29.2519978  80.5220014
   3.0899992  30.8529978  80.6050014   2.9329992  31.8459978  80.1320014
   3.4229992  30.9849978  81.6570014   1.7139992  30.1259978  80.6960014
   1.2359992  30.0919978  79.6940014   1.1279992  30.7289978  81.4220014
   1.9129992  29.0999978  81.0720014 120.0289992 138.7039978  82.9850014
 120.6299992 138.9259978  83.8940014 119.8959992 137.6009978  82.9700014
 119.0939992 139.2979978  82.9150014 120.9789992 139.0109978  81.7440014
 121.1309992 140.1109978  81.7730014 121.9039992 138.4309978  81.9520014
 120.3169992 138.6429978  80.4470014 120.4029992 137.5399978  80.3490014
 119.2349992 138.8969978  80.4190014 120.9809992 139.1869978  79.0980014
 121.2199992 140.2529978  79.2990014 121.9789992 138.7069978  79.0080014
 120.0979992 138.9399978  77.9000014 119.8249992 137.8659978  77.8160014
 119.1439992 139.5069978  77.9610014 120.8529992 139.2719978  76.6020014
 120.1519992 139.3659978  75.7460014 121.2479992 140.2969978  76.7740014
 121.9529992 138.2609978  76.2490014 122.6659992 138.1249978  77.0900014
 121.6069992 137.2159978  76.1020014 122.7969992 138.3599978  74.9260014
 123.3719992 139.2959978  75.0960014 123.4769992 137.4819978  74.9670014
 121.9369992 138.2989978  73.6020014 121.5349992 137.2639978  73.6290014
 121.1469992 139.0789978  73.6420014 122.6889992 138.6889978  72.3170014
 123.1019992 139.7019978  72.5130014 123.5989992 138.0519978  72.3380014
 121.8119992 138.7649978  71.0340014 121.1189992 139.6229978  71.1690014
 122.5569992 138.9959978  70.2430014 121.0799992 137.4589978  70.7510014
 121.6849992 136.5359978  70.8800014 120.2969992 137.3509978  71.5310014
 120.4919992 137.5009978  69.2670014 121.2509992 137.5729978  68.4590014
 120.0079992 136.5069978  69.1620014 119.4259992 138.6019978  69.0610014
 118.7879992 138.7059978  69.9640014 119.9919992 139.5499978  68.9360014
 118.5069992 138.3959978  67.8980014 119.0409992 138.1949978  66.9450014
 117.9539992 137.4449978  68.0550014 117.7149992 139.6219978  67.5570014
 117.1889992 140.3879978  68.3740014 117.6839992 139.8249978  66.2540014
 117.3119992 141.0349978  65.6960014 116.8409992 140.9309978  64.6950014
 116.6149992 141.5859978  66.3630014 118.4639992 142.0699978  65.4550014
 118.0239992 143.0279978  65.1050014 119.4079992 141.6279978  64.3210014
 119.7369992 140.5699978  64.4010014 118.8119992 141.6729978  63.3840014
 120.4529992 142.6859978  64.2010014 121.4129992 142.4349978  62.9920014
 121.9759992 140.9749978  63.3690014 123.2239992 140.8799978  64.1410014
 124.0399992 141.2609978  63.4900014 123.1869992 141.5219978  65.0470014
 123.4589992 139.4429978  64.4990014 123.8759992 138.9479978  63.6340014
 124.2089992 139.3959978  65.2740014 122.3039992 138.5659978  64.9720014
 121.2389992 138.2119978  63.8820014 120.6369992 139.0779978  63.6500014
 121.6999992 137.9039978  62.9550014 120.6189992 137.4709978  64.3650014
 122.7949992 137.3189978  65.5940014 123.3279992 137.6249978  66.4820014
 121.9689992 136.6919978  65.8970014 123.5169992 136.7639978  65.0140014
 121.5789992 139.2949978  66.0620014 122.2359992 139.2909978  66.9190014
 120.6979992 138.7519978  66.3710014 121.3109992 140.3059978  65.7930014
 120.6589992 142.2649978  61.7230014 122.4769992 143.4539978  63.0710014
 119.1669992 142.1059978  66.6880014 118.7729992 142.9979978  67.6320014
 117.7719992 143.7039978  67.4780014 119.6319992 142.9529978  68.8670014
 120.5289992 142.3169978  68.7080014 119.1769992 142.3789978  69.7020014
 120.2509992 144.4179978  69.1300014 119.6529992 145.2709978  69.5170014
 120.6569992 144.7999978  68.1690014 121.3309992 144.3739978  70.2480014
 121.6479992 145.4179978  70.4580014 122.2229992 143.8019978  69.9150014
 120.7539992 143.7359978  71.4990014 120.7769992 142.6369978  71.3380014
 119.6679992 143.9559978  71.5890014 121.5329992 144.0429978  72.8660014
 122.6039992 144.0259978  72.5700014 121.3509992 143.2179978  73.5880014
 121.0789992 145.3529978  73.5200014 120.9849992 146.1169978  72.7190014
 122.0189992 145.6739978  74.0170014 119.8889992 145.2409978  74.5510014
 119.7369992 146.2589978  74.9690014 120.2419992 144.7009978  75.4550014
 118.5699992 144.7719978  74.0090014 117.9739992 145.5909978  73.5790014
 118.0959992 143.5369978  74.0090014 117.0769992 143.3969978  73.6190014
 118.8089992 142.2519978  74.4810014 119.6899992 142.3999978  75.1410014
 119.2979992 141.7099978  73.6440014 117.8379992 141.4919978  75.3440014
 118.2549992 140.4749978  75.5040014 116.8459992 141.3709978  74.8590014
 117.5009992 142.1799978  76.7310014 117.0699992 141.2699978  77.2030014
 116.7899992 143.0279978  76.6390014 118.7699992 142.5119978  77.5570014
 119.1049992 143.5459978  77.3270014 119.5679992 141.8449978  77.1670014
 118.5369992 142.4479978  79.1610014 118.5469992 141.3769978  79.4570014
 117.5499992 142.9239978  79.3400014 119.4859992 143.3229978  79.9050014
 119.4829992 144.3329978  79.4440014 120.5379992 142.9659978  79.9340014
 119.0789992 143.5409978  81.4300014 118.3829992 144.3829978  81.6340014
 120.0499992 143.8119978  81.8950014 118.5319992 142.3569978  82.1860014
 119.1619992 141.4449978  82.2670014 117.6229992 142.0129978  81.6470014
 118.2099992 142.7229978  83.1840014  17.2849992  11.4939978  81.0470014
  16.5739992  10.6769978  81.2930014  16.9139992  12.0799978  80.1780014
  17.6119992  12.0869978  81.9270014  18.5039992  10.7799978  80.5330014
  18.9539992  10.2739978  81.4140014  18.1699992  10.0799978  79.7360014
  19.5489992  11.6189978  79.8060014  20.0199992  12.3839978  80.4600014
  20.3069992  10.8539978  79.5320014  19.1479992  12.3059978  78.4010014
  18.2539992  12.9529978  78.5300014  19.9679992  13.0049978  78.1290014
  18.7909992  11.3399978  77.2340014  18.1639992  10.5159978  77.6350014
  18.2099992  11.8999978  76.4700014  19.9109992  10.7889978  76.4610014
  20.0489992  11.3089978  75.4900014  20.8179992  11.0409978  77.0510014
  19.7509992   9.3089978  76.1410014  19.6909992   8.5949978  76.9900014
  18.7839992   9.1169978  75.6280014  20.9639992   8.8799978  75.2410014
  21.1509992   9.5769978  74.3960014  21.9209992   8.7989978  75.8000014
  20.7009992   7.5039978  74.5880014  21.6389992   7.4109978  74.0020014
  20.7019992   6.7109978  75.3670014  19.4779992   7.3729978  73.6510014
  19.5879992   6.4019978  73.1240014  18.5199992   7.3849978  74.2140014
  19.2359992   8.4669978  72.6160014  18.5989992   9.1829978  73.1780014
  20.2429992   8.8659978  72.3670014  18.6589992   7.9309978  71.3150014
  19.4249992   7.2909978  70.8280014  17.7849992   7.3839978  71.7280014
  18.2139992   9.0759978  70.3560014  19.1259992   9.6479978  70.0810014
  17.8159992   8.5349978  69.4710014  17.2149992  10.0929978  70.8690014
  16.3909992   9.5569978  71.3870014  17.6869992  10.6249978  71.7230014
  16.6129992  11.0489978  69.7840014  16.1559992  10.5449978  68.9050014
  15.9599992  11.7639978  70.3280014  17.6589992  11.8819978  69.0550014
  18.4409992  12.6239978  69.6480014  17.6509992  11.6309978  67.7260014
  18.7329992  12.2079978  66.9570014  18.3829992  12.3389978  65.9110014
  19.0479992  13.1789978  67.3970014  19.9799992  11.1859978  66.9490014
  20.8019992  11.4419978  66.2470014  19.6099992   9.6989978  66.5740014
  18.9009992   9.3589978  67.3590014  19.1179992   9.5859978  65.5840014
  20.6609992   8.8009978  66.7010014  21.8659992   8.7069978  65.6090014
  21.3029992   9.5809978  64.4330014  22.0749992  10.6859978  63.8580014
  22.3079992  11.4979978  64.5800014  23.0789992  10.2829978  63.6060014
  21.5019992  11.1719978  62.4530014  22.1939992  11.8669978  62.0020014
  21.2909992  10.3699978  61.7600014  20.1719992  11.8839978  62.5020014
  19.9509992  12.6509978  61.2430014  20.0089992  12.0489978  60.3480014
  18.9919992  13.1349978  61.3640014  20.6939992  13.4309978  61.1630014
  19.0809992  10.8579978  62.8590014  19.1359992  10.5539978  63.8940014
  18.1799992  11.4529978  62.8690014  19.0879992  10.0849978  62.1060014
  20.3249992  12.9919978  63.5880014  20.8249992  13.8569978  63.1790014
  21.0529992  12.6869978  64.3250014  19.3639992  13.2149978  64.0280014
  23.0259992   9.4139978  66.1340014  22.0279992   7.3169978  65.1240014
  20.4749992  11.0419978  68.3330014  21.4039992  11.8169978  68.8140014
  21.9529992  12.7669978  68.3040014  21.6969992  11.4619978  70.2750014
  22.1759992  10.4599978  70.2260014  20.7679992  11.3239978  70.8690014
  22.6759992  12.4409978  70.9340014  22.1769992  13.4289978  70.8340014
  23.6499992  12.5049978  70.4040014  23.0599992  12.1649978  72.3580014
  22.1219992  12.0329978  72.9380014  23.4699992  13.1399978  72.6960014
  23.9409992  10.9079978  72.6280014  24.9659992  11.1619978  72.2850014
  23.4469992  10.0379978  72.1440014  24.1499992  10.5679978  74.1830014
  24.7559992   9.6379978  74.2310014  23.1359992  10.4609978  74.6230014
  24.8309992  11.7139978  75.0260014  24.1519992  12.5919978  75.0000014
  25.8359992  11.8529978  74.5740014  25.0219992  11.2959978  76.4770014
  25.5709992  12.1619978  76.9040014  25.6809992  10.4059978  76.5770014
  23.7699992  11.0369978  77.3280014  22.8609992  11.6069978  77.0850014
  23.6259992  10.0629978  78.2920014  22.6679992   9.9979978  78.8280014
  24.7489992   9.1149978  78.6800014  25.0179992   8.4429978  77.8380014
  24.5299992   8.3439978  79.4490014  26.1229992   9.8949978  79.1130014
  26.6779992  10.3129978  78.2460014  26.7309992   9.0399978  79.4790014
  25.9639992  10.8349978  80.3200014  25.3059992  11.6879978  80.0470014
  27.0149992  11.1189978  80.5390014  25.3939992  10.3179978  81.6740014
  25.9519992   9.4139978  81.9980014  24.3749992   9.8989978  81.5280014
  25.4329992  11.3509978  82.7730014  24.8239992  11.0039978  83.6350014
  24.9139992  12.2719978  82.4330014  26.7939992  11.9609978  83.2540014
  27.2909992  12.3059978  82.3220014  27.3909992  11.1129978  83.6530014
  26.6689992  13.0459978  84.3690014  26.1659992  13.9399978  83.9420014
  27.6999992  13.3919978  84.5960014  26.0519992  12.5579978  85.7060014
  24.9449992  12.6529978  85.7000014  26.4289992  13.2239978  86.5110014
  26.2599992  11.5019978  85.9830014 113.7879992 139.9159978  81.3710014
 112.6979992 139.8669978  81.1630014 114.0129992 139.2959978  82.2650014
 114.2949992 139.5439978  80.4550014 114.2229992 141.3889978  81.4930014
 113.8689992 141.7799978  82.4710014 115.3319992 141.4129978  81.4240014
 113.5859992 142.3359978  80.4510014 112.4939992 142.4249978  80.6330014
 113.9589992 143.3679978  80.6280014 113.8209992 141.7899978  79.0320014
 114.7459992 141.1789978  78.9610014 112.9899992 141.0949978  78.7840014
 113.8329992 142.9059978  78.0030014 112.8659992 143.4479978  77.9250014
 114.5839992 143.6549978  78.3320014 114.1469992 142.5499978  76.5050014
 115.1129992 142.0249978  76.6670014 113.3089992 141.9259978  76.1270014
 114.4019992 143.7609978  75.6070014 113.5759992 144.4849978  75.7700014
 115.2999992 144.2539978  76.0370014 114.5159992 143.4999978  74.0660014
 115.1349992 144.3369978  73.6770014 115.1229992 142.5839978  73.9060014
 113.2189992 143.3299978  73.2820014 112.6439992 142.5819978  73.8680014
 112.6929992 144.3059978  73.3610014 113.5139992 142.9169978  71.8310014
 112.5139992 142.9379978  71.3480014 114.1939992 143.6849978  71.4040014
 114.2099992 141.5479978  71.6800014 115.1729992 141.6019978  72.2320014
 113.6699992 140.7209978  72.1890014 114.4829992 141.0549978  70.2570014
 114.5079992 141.9789978  69.6410014 115.5479992 140.7649978  70.1320014
 113.5349992 139.9199978  69.7160014 113.5539992 139.0299978  70.3810014
 112.4809992 140.2629978  69.6350014 113.9919992 139.3039978  68.3600014
 115.0339992 138.9429978  68.4940014 113.4009992 138.3959978  68.1120014
 113.7719992 140.1999978  67.1570014 114.2659992 141.1849978  67.0140014
 113.9439992 139.6569978  66.2030014 112.2479992 140.3899978  67.1180014
 111.4749992 139.4699978  67.4080014 111.9489992 141.6579978  66.6730014
 110.5319992 141.9279978  66.7210014 110.0209992 141.2539978  66.0010014
 110.1589992 141.7009978  67.7430014 110.3179992 143.4409978  66.5120014
 109.2839992 143.7989978  66.7020014 110.5239992 143.8639978  65.0180014
 110.5479992 142.9359978  64.4060014 109.6479992 144.4939978  64.7550014
 111.7139992 144.4809978  64.8640014 111.9729992 145.1409978  63.4780014
 113.5109992 145.2739978  63.4190014 114.2069992 145.4529978  64.6440014
 115.1529992 146.0289978  64.5600014 113.6919992 146.0539978  65.4230014
 114.7519992 144.2119978  65.3200014 115.6399992 144.4809978  65.8730014
 114.0299992 143.8819978  66.0530014 115.1919992 143.1269978  64.4040014
 114.0039992 142.3959978  63.9130014 114.3329992 141.5949978  63.2680014
 113.3219992 142.0729978  64.6850014 113.5169992 142.9929978  63.1560014
 115.9889992 143.6409978  63.2830014 116.4299992 142.8499978  62.6940014
 115.3229992 144.1809978  62.6270014 116.6659992 144.3869978  63.6720014
 116.1159992 142.2549978  65.2440014 116.9069992 142.8129978  65.7230014
 116.5449992 141.5589978  64.5400014 115.5959992 141.6839978  65.9990014
 111.6119992 144.0519978  62.5030014 111.3689992 146.5279978  63.4340014
 111.1809992 144.1709978  67.3710014 110.9239992 145.4779978  67.5460014
 109.9639992 146.0999978  67.1110014 112.0819992 146.0729978  68.3850014
 113.0969992 145.6959978  68.1390014 111.9349992 145.8709978  69.4680014
 111.9089992 147.6099978  68.2170014 110.9829992 147.8249978  68.7910014
 111.7659992 148.0509978  67.2070014 112.9789992 148.4759978  68.9910014
 112.5199992 149.4879978  68.9790014 113.8849992 148.5839978  68.3560014
 113.2149992 148.1649978  70.3980014 113.6189992 147.1369978  70.5220014
 112.2419992 148.3219978  70.9110014 114.0619992 149.2229978  71.1790014
 113.7009992 150.2739978  71.1560014 115.0669992 149.3259978  70.7170014
 114.2939992 148.8639978  72.6190014 115.0499992 149.5119978  73.1130014
 114.7309992 147.8889978  72.9260014 112.9559992 149.0349978  73.3580014
 112.3319992 148.2269978  72.9200014 112.4799992 149.9899978  73.0470014
 112.9929992 148.9799978  74.8420014 113.6519992 149.7579978  75.2530014
 112.4109992 148.0389978  75.6560014 112.8259992 148.0499978  76.6750014
 111.5569992 146.7979978  75.2750014 111.7299992 146.0139978  76.0420014
 111.9429992 146.3779978  74.3220014 109.9919992 147.0189978  75.2040014
 109.6969992 146.0029978  74.8640014 109.6989992 147.7269978  74.4000014
 109.2809992 147.3549978  76.5450014 108.1859992 147.2009978  76.4340014
 109.2809992 148.4569978  76.6860014 109.7389992 146.6549978  77.9030014
 108.9729992 146.8839978  78.6750014 110.7229992 147.0629978  78.2170014
 109.7239992 145.0949978  77.7500014 110.6029992 144.7849978  77.1450014
 108.8239992 144.7789978  77.1810014 109.8419992 144.3629978  79.1270014
 110.6059992 144.7909978  79.8110014 110.0749992 143.2889978  78.9610014
 108.5979992 144.4569978  80.0190014 107.7519992 144.1519978  79.3670014
 108.5749992 145.4699978  80.4750014 108.7629992 143.4719978  81.1950014
 108.9349992 142.4969978  80.6920014 107.7909992 143.5239978  81.7310014
 109.6129992 143.7129978  81.8700014 131.7859992 135.5919978  81.0890014
 131.9679992 136.6499978  81.3770014 132.6919992 135.0049978  81.3550014
 130.9819992 135.1629978  81.7250014 131.5549992 135.5399978  79.5870014
 132.3959992 136.0229978  79.0440014 131.4639992 134.4689978  79.3090014
 130.1839992 136.2119978  79.2090014 129.4919992 135.9449978  80.0360014
 130.3159992 137.3129978  79.2800014 129.5699992 135.8819978  77.8180014
 130.2649992 136.1609978  76.9960014 129.5449992 134.7849978  77.6410014
 128.2709992 136.5449978  77.5250014 127.4279992 136.0169978  78.0220014
 128.2309992 137.5369978  78.0240014 127.9569992 136.4939978  76.0170014
 128.8509992 136.8779978  75.4810014 127.6859992 135.4319978  75.8330014
 126.8489992 137.4049978  75.6080014 125.8579992 137.0269978  75.9360014
 127.0189992 138.4089978  76.0540014 126.6589992 137.4699978  74.0510014
 125.8329992 138.2059978  73.9490014 127.5069992 137.9499978  73.5180014
 126.2259992 136.2489978  73.2760014 127.0289992 135.4849978  73.2070014
 125.4629992 135.7009978  73.8690014 125.5019992 136.5169978  71.9370014
 124.9769992 135.6019978  71.5860014 124.7679992 137.3379978  72.0850014
 126.5519992 136.8499978  70.9500014 127.2149992 137.6859978  71.2560014
 127.2299992 135.9859978  70.7800014 125.9749992 137.3149978  69.6240014
 124.9839992 136.8379978  69.4660014 125.6909992 138.3829978  69.7370014
 126.8179992 137.2229978  68.3750014 127.0069992 136.1349978  68.2490014
 126.3739992 137.6599978  67.4560014 128.2049992 137.9359978  68.4600014
 128.6299992 137.5369978  69.4060014 128.8769992 137.6409978  67.6270014
 128.1889992 139.5069978  68.5530014 127.6649992 139.9629978  67.6860014
 127.7099992 139.8409978  69.4980014 129.6559992 140.0499978  68.7500014
 129.8519992 141.2399978  68.5380014 130.5659992 139.1169978  68.9460014
 131.9349992 139.3959978  68.6460014 132.2749992 140.4539978  68.6260014
 132.5219992 138.8919978  69.4430014 132.4259992 138.7609978  67.2390014
 133.4939992 139.0399978  67.1140014 131.6489992 139.3709978  66.0500014
 130.5649992 139.2159978  66.2400014 131.7089992 140.4769978  65.9630014
 131.9699992 138.7319978  64.8360014 131.0599992 138.1189978  63.7770014
 130.3089992 137.1039978  64.7190014 130.5579992 135.7049978  64.6130014
 131.5449992 135.4159978  64.1920014 130.6329992 135.1739978  65.5860014
 129.4929992 135.0399978  63.7770014 129.5349992 135.2529978  62.7190014
 129.7039992 133.9859978  63.8800014 128.0519992 135.2479978  64.1020014
 127.7709992 134.7719978  65.5140014 128.1419992 133.7709978  65.6820014
 128.2569992 135.3599978  66.2780014 126.7349992 134.9239978  65.7790014
 127.6399992 136.7329978  64.0030014 128.1019992 137.0939978  63.0960014
 126.5599992 136.7259978  64.0430014 128.1099992 137.3679978  64.7400014
 127.2569992 134.4069978  63.0840014 127.4469992 134.8609978  62.1230014
 126.2059992 134.6129978  63.2230014 127.5259992 133.3609978  63.0960014
 130.1439992 139.1259978  63.2640014 131.8299992 137.2359978  62.8180014
 132.2859992 137.3749978  67.4440014 133.2949992 136.7359978  68.0230014
 134.3359992 137.2709978  68.3650014 132.9069992 135.2009978  68.0030014
 133.2809992 134.8359978  67.0230014 131.8029992 135.0729978  68.0060014
 133.5369992 134.4849978  69.2030014 134.4369992 134.9519978  69.6570014
 133.9819992 133.5199978  68.8790014 132.6009992 134.1639978  70.3410014
 133.1469992 133.3939978  70.9260014 131.6739992 133.6059978  70.0850014
 132.1409992 135.3879978  71.2050014 131.5239992 134.9609978  72.0240014
 131.6009992 136.0649978  70.5090014 133.2799992 136.0839978  71.9800014
 134.0549992 136.5779978  71.3560014 133.8029992 135.2829978  72.5460014
 132.7849992 137.1749978  72.9870014 133.6389992 137.7299978  73.4310014
 132.3209992 136.5679978  73.7940014 131.9399992 138.3419978  72.3520014
 130.8429992 138.2009978  72.2500014 132.4229992 138.3359978  71.3510014
 132.1559992 139.6839978  72.9920014 132.8189992 140.3809978  72.4580014
 131.4549992 140.0979978  74.0480014 131.5039992 141.1409978  74.3940014
 130.3929992 139.2499978  74.8050014 130.7639992 138.2149978  74.9610014
 129.4139992 139.2509978  74.2790014 130.2149992 139.7449978  76.2940014
 129.2959992 139.1599978  76.5100014 130.0359992 140.8339978  76.1660014
 131.3699992 139.4389978  77.1650014 132.3539992 139.8529978  76.8570014
 131.5079992 138.3449978  77.2980014 131.1739992 140.0599978  78.6720014
 130.2359992 139.6129978  79.0640014 131.1769992 141.1619978  78.5310014
 132.3059992 139.6869978  79.6120014 133.1939992 140.2679978  79.2860014
 132.3479992 138.5949978  79.4100014 132.0599992 140.0639978  81.0920014
 132.7599992 139.4959978  81.7410014 131.0229992 139.7319978  81.3130014
 132.0189992 141.5499978  81.3530014 131.1129992 141.9619978  80.8600014
 132.9039992 141.8949978  80.7770014 131.9649992 142.1199978  82.7830014
 130.9199992 141.9929978  83.1390014 132.4069992 143.1389978  82.7570014
 132.6339992 141.5809978  83.4880014  10.9209992 132.3289978  82.4570014
  10.0219992 132.0769978  83.0600014  11.7579992 132.5089978  83.1650014
  11.2109992 131.4869978  81.7930014  10.7439992 133.5669978  81.5900014
  11.6899992 133.9089978  81.1190014   9.8689992 133.4519978  80.9150014
  10.5849992 134.6929978  82.5520014   9.7159992 134.5459978  83.2280014
  11.5329992 134.7269978  83.1300014  10.3779992 136.0179978  81.7740014
  10.2259992 136.7849978  82.5640014  11.3299992 136.2269978  81.2400014
   9.1219992 136.0949978  80.7350014   9.3499992 135.3959978  79.9020014
   8.3329992 135.6049978  81.3460014   8.7659992 137.5029978  80.2890014
   7.8419992 137.5109978  79.6730014   8.4479992 138.1689978  81.1190014
   9.7419992 138.3259978  79.4740014   9.2599992 139.3109978  79.2930014
  10.6199992 138.5879978  80.1030014  10.3169992 137.6959978  78.1600014
  11.0599992 138.3099978  77.6080014  10.8119992 136.8079978  78.6080014
   9.3359992 137.2409978  77.0440014   8.6249992 136.5909978  77.5970014
   8.8069992 138.1179978  76.6130014   9.9719992 136.4949978  75.8700014
  10.4899992 137.2649978  75.2580014  10.7449992 135.7349978  76.1140014
   8.9519992 135.8509978  74.9080014   8.3929992 135.1829978  75.5970014
   8.2149992 136.5789978  74.5070014   9.5029992 135.0589978  73.7250014
  10.1019992 134.2089978  74.1170014   8.7129992 134.7339978  73.0150014
  10.4409992 135.8429978  72.8550014  11.2459992 136.0879978  73.5800014
  10.7559992 135.3229978  71.9250014  10.0009992 137.2209978  72.2550014
   9.7929992 137.8909978  73.1170014  10.8099992 137.6869978  71.6520014
   8.7779992 137.3429978  71.3230014   7.8829992 136.8469978  71.7560014
   8.4809992 138.4119978  71.2540014   8.9109992 136.7799978  69.8870014
   7.9459992 136.5019978  69.2410014  10.1559992 136.7139978  69.5730014
  10.5599992 136.5059978  68.2200014   9.8279992 137.1589978  67.6980014
  11.5699992 136.9269978  68.0280014  10.5869992 135.0339978  67.8160014
  11.4199992 134.6379978  68.4360014  11.0209992 134.8569978  66.3690014
  11.7659992 135.5989978  66.0110014  11.3929992 133.8099978  66.3540014
   9.8639992 134.8739978  65.5310014  10.0019992 134.5099978  63.9650014
   8.5099992 134.1169978  63.5400014   7.7669992 133.2059978  64.3610014
   8.1589992 132.1939978  64.1250014   7.7689992 133.3519978  65.4620014
   6.3549992 133.2279978  63.9240014   6.2679992 132.7529978  62.9580014
   5.8789992 132.5889978  64.6520014   5.5839992 134.5119978  63.9290014
   5.8659992 135.4169978  62.7990014   5.2629992 136.3119978  62.7530014
   6.9029992 135.6989978  62.9070014   5.8139992 134.8679978  61.8700014
   4.0989992 133.9909978  64.0590014   3.8339992 133.6179978  63.0810014
   4.1079992 133.2249978  64.8200014   3.5309992 134.8849978  64.2690014
   5.9699992 135.3299978  65.1960014   6.0159992 134.4819978  65.8640014
   5.3049992 136.1269978  65.4910014   6.9789992 135.7159978  65.1780014
  10.4479992 135.7589978  63.2800014  10.9279992 133.3319978  63.9220014
   9.2959992 134.4269978  68.1500014   9.3769992 133.1149978  68.2790014
  10.2529992 132.3299978  67.9930014   8.0639992 132.6299978  68.9260014
   7.9939992 131.5219978  68.9640014   7.2619992 132.9489978  68.2260014
   7.5989992 133.1039978  70.3550014   7.3619992 134.1749978  70.1750014
   8.5049992 132.9629978  70.9820014   6.4639992 132.2129978  70.9870014
   6.8399992 131.1969978  71.2320014   5.6419992 132.2789978  70.2410014
   6.0719992 132.9809978  72.2460014   5.6649992 133.9789978  71.9810014
   7.0299992 133.3079978  72.7050014   5.1429992 132.1829978  73.1760014
   5.3419992 131.1379978  73.4990014   4.1719992 132.1109978  72.6420014
   4.8739992 133.0219978  74.4190014   4.3129992 132.4289978  75.1730014
   4.2359992 133.8899978  74.1450014   6.0499992 133.5529978  75.2120014
   5.5839992 134.1079978  76.0530014   6.5209992 134.2789978  74.5150014
   7.2199992 132.6479978  75.6160014   7.7529992 132.1479978  74.7940014
   7.7079992 132.5779978  76.8670014   8.6039992 131.9519978  77.0020014
   7.2919992 133.3189978  78.1030014   6.2609992 133.7069978  77.9650014
   8.0899992 134.0829978  78.2170014   7.1899992 132.5489978  79.4970014
   7.0569992 133.4199978  80.1740014   8.0489992 131.9039978  79.7820014
   5.9229992 131.6679978  79.5230014   6.0709992 130.6819978  79.0320014
   5.0659992 132.1689978  79.0260014   5.4579992 131.4739978  80.9960014
   6.3349992 131.0539978  81.5330014   4.7099992 130.6529978  80.9580014
   4.8089992 132.6559978  81.8030014   5.4869992 133.5169978  81.6190014
   4.9929992 132.2579978  82.8240014   3.3219992 132.8879978  81.7050014
   2.8539992 133.2639978  82.6390014   2.7949992 131.9269978  81.5210014
   3.0499992 133.9439978  80.6090014   1.9489992 134.0069978  80.4780014
   3.4089992 133.5119978  79.6510014   3.7269992 135.3109978  80.8010014
   3.2599992 135.8519978  81.6510014   3.3999992 135.9769978  79.9740014
   4.8379992 135.3219978  80.8040014 132.9919992  12.6259978  81.4350014
 132.5429992  12.6609978  82.4510014 132.3429992  11.9999978  80.7870014
 132.8299992  13.6849978  81.1410014 134.5079992  12.4829978  81.4260014
 134.9779992  13.1799978  82.1530014 134.8319992  11.4929978  81.8100014
 135.0409992  12.6339978  80.0750014 134.4739992  11.9219978  79.4360014
 134.8329992  13.6619978  79.7080014 136.5579992  12.3229978  79.9920014
 136.7109992  11.2259978  80.0750014 136.9789992  12.6119978  79.0050014
 137.5189992  12.9429978  81.0570014 137.1699992  12.7189978  82.0880014
 138.5579992  12.5779978  80.9090014 137.5499992  14.5329978  80.9690014
 136.5259992  14.8699978  80.6990014 137.6959992  14.9239978  81.9990014
 138.5969992  15.1519978  80.0150014 138.4179992  16.2479978  79.9830014
 139.6179992  15.0619978  80.4440014 138.4759992  14.7089978  78.5100014
 138.8039992  13.6719978  78.2850014 137.4009992  14.9179978  78.3270014
 139.1469992  15.6949978  77.5500014 138.7719992  16.6959978  77.8520014
 140.2479992  15.5899978  77.6550014 138.7189992  15.4289978  76.1280014
 139.3119992  14.5759978  75.7350014 137.6339992  15.2059978  76.0440014
 139.0579992  16.6419978  75.2120014 138.5709992  17.5709978  75.5760014
 140.1559992  16.7669978  75.3330014 138.7369992  16.4759978  73.6800014
 139.4049992  17.2399978  73.2260014 139.1389992  15.4919978  73.3580014
 137.2349992  16.6479978  73.1770014 137.2189992  16.2839978  72.1280014
 136.6099992  15.9249978  73.7430014 136.7509992  18.0269978  73.2950014
 136.2849992  18.2339978  74.2820014 137.4719992  18.8389978  73.0590014
 135.5359992  18.2979978  72.3430014 134.6789992  17.5929978  72.4020014
 135.0589992  19.2569978  72.6400014 135.9519992  18.5189978  70.8810014
 136.7999992  19.3789978  70.5250014 135.2279992  17.6129978  70.1250014
 135.2359992  17.8659978  68.7040014 134.2319992  17.6239978  68.2940014
 135.2999992  18.9579978  68.5080014 136.4119992  17.1099978  67.9640014
 137.3259992  17.6839978  68.2270014 136.2729992  17.1049978  66.4040014
 135.2809992  16.7109978  66.0960014 136.3449992  18.1659978  66.0830014
 137.2579992  16.2869978  65.7580014 137.1229992  16.2719978  64.1900014
 135.9159992  15.2879978  63.8510014 135.9009992  13.9559978  64.3050014
 136.8679992  13.4449978  64.1120014 135.7499992  13.8559978  65.4010014
 134.7189992  13.2399978  63.6620014 134.9729992  13.0269978  62.6340014
 134.7609992  12.3269978  64.2370014 133.3489992  13.8669978  63.8470014
 133.1269992  14.9039978  62.8120014 133.7219992  15.7959978  62.9370014
 133.4459992  14.4649978  61.8790014 132.1009992  15.2339978  62.7400014
 132.2459992  12.8089978  63.5970014 132.5399992  11.8659978  64.0330014
 131.2869992  13.1059978  63.9950014 132.2119992  12.6369978  62.5310014
 133.1559992  14.4839978  65.2040014 133.1849992  13.7509978  65.9970014
 132.2139992  15.0079978  65.1390014 133.8919992  15.2739978  65.2140014
 136.6409992  17.5989978  63.6820014 138.3949992  15.8029978  63.5990014
 136.4449992  15.7399978  68.4550014 137.2209992  15.3559978  69.4310014
 138.0929992  16.0569978  69.9280014 136.9589992  13.9429978  69.7610014
 137.9319992  13.4079978  69.7700014 136.2889992  13.4419978  69.0300014
 136.3359992  13.7689978  71.1610014 135.6439992  14.6309978  71.2740014
 137.1059992  13.9699978  71.9350014 135.6169992  12.4309978  71.4150014
 136.4449992  11.6909978  71.4070014 134.9379992  12.0819978  70.6080014
 134.9339992  12.3799978  72.7120014 135.7109992  12.3689978  73.5060014
 134.4029992  11.4109978  72.8300014 133.7739992  13.3979978  73.0100014
 133.1629992  13.3599978  72.0830014 134.0579992  14.4719978  73.0430014
 132.8629992  13.2259978  74.2610014 132.2029992  12.3579978  74.0490014
 132.2369992  14.1359978  74.3850014 133.5939992  12.9869978  75.6410014
 134.1619992  12.0369978  75.5450014 132.8219992  12.6949978  76.3840014
 134.3929992  14.1949978  76.0670014 135.3739992  14.2919978  75.5790014
 133.9289992  15.2539978  76.7500014 134.5559992  16.1499978  76.8690014
 132.5349992  15.3539978  77.2850014 132.5319992  15.2109978  78.3860014
 131.8379992  14.5829978  76.8930014 131.7849992  16.6589978  77.0400014
 130.8299992  16.5849978  77.6020014 131.4279992  16.7869978  75.9950014
 132.5199992  17.9559978  77.5650014 131.9049992  18.8809978  77.5200014
 133.2739992  18.2799978  76.8160014 133.0749992  17.9179978  79.0360014
 133.8739992  17.1859978  79.2830014 132.2369992  17.6429978  79.7120014
 133.5799992  19.2869978  79.5260014 132.6909992  19.8649978  79.8570014
 134.0679992  19.8519978  78.7040014 134.5169992  19.1419978  80.8330014
 135.1849992  18.2939978  80.5690014 133.9039992  18.9479978  81.7400014
 135.2739992  20.4989978  81.1550014 134.3789992  21.1379978  81.3160014
 135.8069992  20.7889978  80.2250014 136.1519992  20.3769978  82.3780014
 136.5989992  21.3249978  82.7490014 136.9969992  19.6649978  82.2660014
 135.4589992  20.0109978  83.1660014   9.7209992  11.2069978  81.1010014
   9.4769992  11.2389978  82.1850014  10.7289992  10.7929978  80.8830014
   9.0109992  10.4489978  80.7070014   9.5619992  12.6309978  80.5310014
   9.3619992  12.5109978  79.4450014   8.5759992  13.0509978  80.8210014
  10.8029992  13.5709978  80.7020014  10.5669992  14.4159978  80.0200014
  10.9879992  13.8619978  81.7580014  12.1639992  12.9849978  80.0600014
  12.8539992  13.8469978  79.9390014  12.5789992  12.2639978  80.7960014
  12.0229992  12.3289978  78.6690014  11.2909992  11.4919978  78.6800014
  11.6549992  13.0469978  77.9050014  13.3639992  11.8389978  78.1830014
  14.1109992  12.6039978  78.4840014  13.6609992  10.9139978  78.7220014
  13.3559992  11.4869978  76.6890014  14.1539992  10.7689978  76.4020014
  12.4749992  10.8279978  76.5340014  13.2459992  12.6259978  75.7790014
  12.3379992  13.1949978  76.0730014  14.0759992  13.3609978  75.8490014
  13.2019992  12.1969978  74.3390014  12.5049992  11.3469978  74.1790014
  12.8749992  13.0779978  73.7460014  14.5469992  12.0499978  73.6450014
  15.0839992  13.0149978  73.7700014  15.1509992  11.3049978  74.2050014
  14.4179992  11.7009978  72.1670014  14.0009992  10.6719978  72.2200014
  13.7239992  12.4239978  71.6870014  15.7499992  11.6319978  71.3720014
  16.3679992  10.9059978  71.9430014  15.4979992  11.3879978  70.3180014
  16.5669992  13.0089978  71.4490014  15.7749992  13.7869978  71.4750014
  17.1439992  13.0949978  72.3950014  17.7419992  13.1199978  70.4120014
  18.4219992  12.2449978  70.4910014  17.2689992  12.9879978  69.4150014
  18.4769992  14.4719978  70.5220014  18.6949992  14.8149978  71.5560014
  19.4209992  14.4529978  69.9370014  17.7259992  15.5279978  69.6960014
  17.3569992  16.6049978  70.1070014  17.5699992  15.1509978  68.4360014
  17.0539992  16.1129978  67.5010014  16.6349992  17.0679978  67.8830014
  17.9079992  16.3089978  66.8180014  15.8189992  15.3899978  66.7540014
  16.0299992  14.3179978  66.5530014  15.6529992  16.2109978  65.4320014
  15.3889992  17.2309978  65.7840014  16.5159992  16.2289978  64.7320014
  14.5159992  15.7639978  64.6780014  14.7319992  14.5149978  63.7750014
  13.3779992  13.6489978  63.9490014  12.1029992  14.2029978  64.1980014
  12.0859992  14.3139978  65.3040014  12.0779992  15.2069978  63.7250014
  11.0329992  13.2319978  63.6530014  10.0179992  13.5819978  63.7680014
  11.1699992  13.0439978  62.5980014  11.0629992  11.8089978  64.2670014
  10.9879992  11.7979978  65.7640014  10.8889992  10.7989978  66.1620014
  11.8839992  12.2209978  66.1950014  10.0829992  12.3259978  66.0260014
   9.8979992  11.1419978  63.6690014   9.8719992  11.3469978  62.6090014
   9.8249992  10.0969978  63.9330014   9.0509992  11.5889978  64.1670014
  12.2879992  11.0199978  63.9450014  12.3259992  10.9839978  62.8660014
  12.1729992   9.9959978  64.2670014  13.0709992  11.5479978  64.4690014
  14.7229992  14.9379978  62.4080014  15.9019992  13.7189978  64.2000014
  14.5559992  15.4499978  67.4640014  14.2979992  14.4309978  68.2990014
  14.9779992  13.4899978  68.5050014  12.9779992  14.7989978  69.0960014
  12.7499992  13.9779978  69.8090014  12.1159992  15.0279978  68.4350014
  13.4119992  16.0059978  69.9230014  13.4939992  16.9199978  69.2970014
  14.3729992  15.6599978  70.3600014  12.6059992  16.5559978  71.1280014
  11.6229992  16.5249978  70.6100014  12.8099992  17.6339978  71.3020014
  12.7339992  15.7559978  72.4690014  12.5529992  14.6679978  72.3360014
  12.0619992  16.1579978  73.2570014  14.1789992  15.7699978  73.1220014
  14.8529992  15.3009978  72.3740014  14.0269992  15.0749978  73.9750014
  14.6149992  17.2199978  73.5050014  13.8529992  17.6939978  74.1600014
  14.5929992  17.7179978  72.5120014  15.9629992  17.3219978  74.1420014
  15.7949992  16.8699978  75.1420014  16.3939992  18.3439978  74.2160014
  16.9829992  16.4409978  73.4650014  17.3119992  16.6259978  72.4320014
  17.6169992  15.4349978  74.1290014  18.3539992  14.8649978  73.5440014
  17.4149992  15.0049978  75.5640014  17.6959992  13.9319978  75.6210014
  16.3489992  14.9679978  75.8730014  18.1249992  15.7489978  76.6400014
  17.9759992  16.8449978  76.7440014  19.2179992  15.6479978  76.4660014
  17.8469992  15.1299978  78.0360014  18.6029992  15.5699978  78.7210014
  18.0669992  14.0429978  78.0970014  16.4249992  15.3099978  78.5620014
  16.3829992  15.1429978  79.6600014  15.7489992  14.5199978  78.1700014
  15.6709992  16.6499978  78.3000014  15.5099992  16.7339978  77.2040014
  16.3939992  17.4269978  78.6300014  14.4099992  16.6629978  79.1610014
  14.6769992  16.4679978  80.2210014  13.7359992  15.8429978  78.8350014
  13.5919992  17.9389978  79.1320014  13.3459992  18.0979978  78.0600014
  14.2379992  18.7829978  79.4560014  12.4089992  17.9419978  79.9930014
  11.7279992  17.1589978  79.5980014  11.8169992  18.8589978  79.7850014
  12.6239992  17.9399978  81.0840014 136.3149992 130.2179978  80.8270014
 137.3689992 130.5659978  80.8680014 136.2889992 129.1149978  80.9580014
 135.8519992 130.5269978  81.7890014 135.4879992 130.8119978  79.7960014
 134.4409992 130.4389978  79.7900014 135.3219992 131.9089978  79.8620014
 135.8979992 130.5359978  78.3030014 135.8049992 129.4459978  78.1130014
 135.1629992 131.1169978  77.7070014 137.3689992 130.9399978  77.8210014
 138.2169992 130.4219978  78.3180014 137.4599992 130.8929978  76.7150014
 137.7099992 132.4349978  78.1840014 137.6529992 132.4439978  79.2940014
 138.7539992 132.6249978  77.8570014 136.7239992 133.4579978  77.7580014
 135.6639992 133.2249978  77.9980014 136.9089992 134.3909978  78.3330014
 136.6889992 133.8979978  76.2310014 136.5479992 132.9299978  75.7050014
 135.6949992 134.3789978  76.1060014 137.9239992 134.7249978  75.8330014
 137.8499992 135.6459978  76.4500014 138.7579992 134.2059978  76.3540014
 137.9989992 134.9099978  74.2920014 137.0319992 134.9829978  73.7500014
 138.6799992 135.7829978  74.1990014 138.6909992 133.7299978  73.6970014
 139.6019992 133.4679978  74.2770014 138.0139992 132.8519978  73.6340014
 139.3169992 134.1079978  72.2850014 138.4249992 134.4899978  71.7440014
 140.0229992 134.9639978  72.3420014 139.7449992 132.8589978  71.4430014
 140.1399992 133.3229978  70.5140014 140.6339992 132.3139978  71.8270014
 138.7519992 131.7809978  71.1370014 138.2839992 131.4249978  72.0790014
 137.9449992 132.2409978  70.5280014 139.3769992 130.5399978  70.4520014
 139.4629992 130.9719978  69.4320014 140.3549992 130.1879978  70.8440014
 138.4229992 129.3939978  70.4570014 138.7189992 128.5859978  69.7540014
 138.2019992 129.0049978  71.4740014 137.0919992 129.8889978  69.8580014
 136.0539992 130.0789978  70.4220014 137.2679992 130.0079978  68.5260014
 136.1739992 130.5369978  67.7750014 136.1479992 130.0939978  66.7560014
 135.1879992 130.2399978  68.1910014 136.1709992 132.0849978  67.6900014
 135.3189992 132.4419978  67.0730014 137.5729992 132.6449978  67.2320014
 138.3519992 132.4399978  67.9970014 138.0569992 131.9869978  66.4780014
 137.5959992 134.0179978  66.9540014 137.4469992 134.4719978  65.4260014
 138.2639992 133.3949978  64.5060014 138.0809992 133.3369978  63.1140014
 137.8569992 134.3309978  62.6710014 139.0959992 133.0869978  62.7380014
 137.0439992 132.2639978  62.5600014 136.1219992 132.2549978  63.1230014
 136.8109992 132.3289978  61.5080014 137.4529992 130.8089978  62.8440014
 138.4239992 130.4219978  61.8600014 138.9569992 129.4949978  62.0160014
 137.7759992 130.0649978  61.0740014 139.1359992 131.1559978  61.5130014
 138.0559992 130.5949978  64.1670014 138.8629992 131.2709978  64.4080014
 137.2579992 130.6939978  64.8880014 138.4229992 129.5799978  64.2030014
 136.3119992 129.8649978  62.7040014 136.0609992 129.9959978  61.6620014
 135.4549992 130.1109978  63.3140014 136.6749992 128.8499978  62.7790014
 136.0199992 134.2459978  65.0630014 138.0309992 135.8559978  65.3070014
 135.9009992 132.6329978  68.9490014 135.2189992 133.7509978  69.0910014
 134.8909992 134.5259978  68.2320014 135.0059992 134.0089978  70.5510014
 135.9579992 134.3059978  71.0390014 134.5499992 133.0739978  70.9420014
 133.9279992 135.0189978  70.8410014 132.9609992 134.5359978  70.5840014
 134.0209992 135.9719978  70.2770014 133.9019992 135.4479978  72.3320014
 132.9669992 136.0469978  72.3010014 134.8379992 135.9669978  72.6320014
 133.6039992 134.3759978  73.4250014 134.5279992 133.7739978  73.5610014
 132.8269992 133.6539978  73.0940014 133.1989992 134.9509978  74.7710014
 133.8439992 135.8549978  74.7670014 133.4649992 134.2109978  75.5550014
 131.7479992 135.3699978  74.8290014 131.0839992 134.4789978  74.8640014
 131.4919992 135.8639978  73.8670014 131.4669992 136.3579978  75.9690014
 130.4669992 136.8049978  75.7810014 132.0889992 137.2769978  76.0200014
 131.5229992 135.8309978  77.3400014 130.5389992 135.5089978  77.7140014
 132.5659992 135.7049978  78.1530014 132.3519992 135.2719978  79.1410014
 134.0069992 136.0329978  77.9220014 134.1899992 136.5479978  76.9540014
 134.7489992 135.2129978  78.0330014 134.4489992 137.0239978  78.9650014
 133.7039992 137.8449978  78.8880014 135.4289992 137.4549978  78.6700014
 134.5389992 136.6709978  80.5060014 133.5539992 136.2389978  80.7830014
 134.7549992 137.5279978  81.1790014 135.6229992 135.6419978  80.8160014
 136.5419992 136.0669978  80.3590014 135.3629992 134.7229978  80.2480014
 135.7799992 135.4529978  82.3070014 135.2819992 134.5209978  82.6480014
 135.4329992 136.3989978  82.7750014 137.3079992 135.3789978  82.7170014
 137.3019992 135.6349978  83.7980014 137.9089992 136.0459978  82.0630014
 137.8779992 133.9159978  82.7350014 137.7439992 133.4409978  81.7390014
 137.1759992 133.3359978  83.3730014 139.3419992 133.7659978  83.1700014
 139.7509992 132.7339978  83.1210014 139.4199992 133.9279978  84.2670014
 140.1839992 134.3289978  82.7140014 133.6389992   1.0349978  81.3920014
 134.5639992   1.6269978  81.2250014 133.9269992  -0.0050022  81.6580014
 133.1669992   1.5579978  82.2510014 132.6409992   1.1369978  80.2130014
 131.6519992   0.7129978  80.4880014 132.4159992   2.1899978  79.9390014
 132.9839992   0.5569978  78.7710014 132.3189992   1.1649978  78.1220014
 134.0349992   0.7439978  78.4630014 132.5079992  -0.9520022  78.6070014
 133.2649992  -1.5400022  79.1690014 131.5259992  -1.1370022  79.0940014
 132.5679992  -1.4410022  77.1550014 133.4809992  -1.1320022  76.6010014
 132.5589992  -2.5460022  77.2630014 131.3659992  -0.9940022  76.3980014
 131.3679992   0.0959978  76.1850014 131.4379992  -1.4210022  75.3750014
 130.0489992  -1.5760022  76.9190014 130.1519992  -2.6390022  77.2280014
 129.7209992  -1.0780022  77.8560014 128.9539992  -1.6250022  75.7670014
 127.9699992  -1.8810022  76.2150014 128.8249992  -0.5980022  75.3630014
 129.2439992  -2.6370022  74.6750014 130.2119992  -2.4040022  74.1840014
 129.4779992  -3.5240022  75.3030014 128.0569992  -3.0660022  73.8000014
 128.2469992  -3.9990022  73.2270014 127.2639992  -3.3550022  74.5220014
 127.6369992  -2.0370022  72.7810014 127.2859992  -1.1340022  73.3250014
 128.5609992  -1.8130022  72.2060014 126.5859992  -2.3650022  71.7540014
 126.9799992  -3.1410022  71.0640014 125.6879992  -2.7930022  72.2500014
 126.2019992  -1.2080022  70.8300014 125.4059992  -1.5570022  70.1380014
 125.7399992  -0.3770022  71.4050014 127.3599992  -0.5590022  70.0560014
 128.1169992  -0.2470022  70.8070014 127.6839992  -1.1600022  69.1790014
 126.9119992   0.8439978  69.5360014 126.1549992   0.5979978  68.7600014
 126.3779992   1.4569978  70.2930014 128.0139992   1.6479978  68.8620014
 127.8549992   2.7979978  68.5310014 129.1449992   0.9599978  68.5860014
 130.1819992   1.6499978  67.7890014 129.7269992   2.0359978  66.8520014
 130.5309992   2.5619978  68.3190014 131.4329992   0.7609978  67.6800014
 132.3599992   1.3539978  67.5270014 131.2729992  -0.1400022  66.4700014
 131.1439992   0.4799978  65.5580014 132.2279992  -0.7060022  66.4440014
 130.1399992  -1.0040022  66.6360014 128.9739992  -1.0310022  65.5520014
 128.9089992   0.4249978  64.9260014 127.9329992   0.6099978  63.9700014
 127.9679992  -0.2410022  63.2580014 126.9399992   0.4799978  64.4530014
 128.0479992   2.0229978  63.3400014 127.1399992   1.9969978  62.7570014
 127.8299992   2.7659978  64.0930014 129.2349992   2.4329978  62.5600014
 130.4309992   2.4309978  63.4400014 130.2389992   3.2069978  64.1660014
 130.4629992   1.4659978  63.9240014 131.3599992   2.7349978  62.9790014
 129.4599992   1.4919978  61.4010014 130.3269992   1.8479978  60.8630014
 129.6079992   0.5039978  61.8130014 128.5799992   1.6359978  60.7920014
 128.9119992   3.8149978  61.9540014 129.7219992   4.1209978  61.3080014
 128.7669992   4.5049978  62.7720014 128.0289992   3.7749978  61.3320014
 129.3429992  -2.0520022  64.5170014 127.7129992  -1.2080022  66.2090014
 131.5609992   0.0059978  68.8580014 131.9789992   0.6429978  69.9790014
 132.2129992   1.8189978  70.0910014 132.0999992  -0.3240022  71.1180014
 133.1209992  -0.7590022  71.1600014 131.2459992  -1.0200022  71.2590014
 132.2159992   0.4419978  72.4730014 132.9859992   1.2289978  72.3280014
 132.6409992  -0.2580022  73.2230014 130.8809992   0.8789978  73.1090014
 131.2189992   1.0049978  74.1600014 130.1059992   0.0899978  73.2160014
 130.2609992   2.1679978  72.6470014 129.7899992   1.9939978  71.6570014
 131.0039992   2.9769978  72.4820014 129.0919992   2.6849978  73.5230014
 128.8919992   3.7129978  73.1520014 129.3619992   2.8349978  74.5900014
 127.8069992   1.8739978  73.3770014 127.8889992   0.7669978  73.4160014
 127.4639992   2.0689978  72.3380014 126.7459992   2.3599978  74.3510014
 126.6739992   3.4419978  74.1070014 127.1099992   2.1979978  75.3880014
 125.3729992   1.7449978  74.1060014 124.9939992   2.1139978  73.1420014
 124.6509992   0.9429978  74.8610014 123.6379992   0.6499978  74.5490014
 124.8869992   0.3519978  76.2280014 125.9319992   0.5299978  76.5610014
 124.5439992  -0.7050022  76.2370014 123.9799992   0.9879978  77.2250014
 122.9209992   0.6649978  77.1340014 123.9029992   2.0799978  77.0320014
 124.4419992   0.6999978  78.6830014 124.9729992  -0.2750022  78.7220014
 123.5809992   0.5879978  79.3760014 125.3559992   1.7619978  79.4200014
 124.7149992   2.5939978  79.7840014 126.2069992   2.2009978  78.8560014
 126.0399992   1.1799978  80.7030014 125.2449992   0.5789978  81.1950014
 126.3999992   2.0589978  81.2800014 127.3319992   0.2999978  80.4930014
 128.1099992   0.8979978  79.9720014 127.0089992  -0.5180022  79.8150014
 127.8929992  -0.1650022  81.7590014 128.1529992   0.7139978  82.3860014
 128.8199992  -0.7720022  81.6660014 127.0329992  -1.1890022  82.5010014
 126.0719992  -0.9000022  82.9780014 127.6049992  -1.5570022  83.3790014
 126.8219992  -1.9930022  81.7640014 141.8839992  21.1429978  82.6830014
 141.2189992  21.4569978  83.5140014 142.9389992  21.4219978  82.8950014
 141.8829992  20.0349978  82.5940014 141.4519992  21.7519978  81.3210014
 140.3839992  21.6919978  81.0210014 141.7039992  22.8179978  81.5090014
 142.1889992  21.1249978  80.1930014 143.2879992  21.2839978  80.1610014
 142.0179992  20.0269978  80.1970014 141.7139992  21.6429978  78.8120014
 140.6619992  21.9889978  78.8880014 142.3689992  22.5029978  78.5560014
 141.7009992  20.5679978  77.7500014 142.7609992  20.3379978  77.5080014
 141.3119992  19.6129978  78.1630014 141.0159992  20.9459978  76.4010014
 141.2969992  20.0679978  75.7810014 139.9059992  20.9589978  76.4470014
 141.5049992  22.2979978  75.7850014 141.1009992  23.0309978  76.5150014
 142.5979992  22.1899978  75.9510014 141.1679992  22.5339978  74.3370014
 141.4079992  21.5109978  73.9770014 140.1329992  22.8969978  74.1580014
 142.2789992  23.4249978  73.6530014 142.3049992  24.4439978  74.0940014
 143.2819992  22.9779978  73.8180014 141.9619992  23.6179978  72.2060014
 142.0039992  22.7159978  71.5590014 140.9369992  24.0459978  72.2230014
 143.0739992  24.4599978  71.6370014 143.0759992  25.3849978  72.2520014
 143.9479992  23.7799978  71.7270014 142.8129992  24.7739978  70.1790014
 142.4289992  23.8379978  69.7210014 142.0219992  25.5479978  70.0740014
 144.0279992  25.1849978  69.4170014 143.7199992  25.9679978  68.6910014
 144.7169992  25.6709978  70.1400014 144.8259992  23.9819978  68.8090014
 145.0249992  23.3019978  69.6640014 144.1449992  23.5179978  68.0640014
 146.1639992  24.4029978  68.1940014 145.8289992  24.8869978  67.2520014
 146.7359992  25.1569978  68.7750014 146.9809992  23.1749978  67.9480014
 148.0789992  22.8919978  68.3920014 146.3609992  22.4259978  67.0470014
 146.8639992  21.0969978  66.7690014 146.8309992  20.9689978  65.6660014
 147.9279992  20.9039978  67.0250014 145.9579992  20.1009978  67.4110014
 146.4949992  19.1299978  67.4600014 144.6779992  19.9389978  66.5480014
 144.9089992  19.6499978  65.5000014 144.0669992  19.1339978  67.0100014
 144.0239992  21.2079978  66.4780014 142.5399992  21.1319978  65.8650014
 142.4729992  20.0849978  64.7420014 143.0419992  20.3739978  63.4310014
 142.5939992  21.2709978  62.9530014 144.1219992  20.5009978  63.6600014
 143.0439992  19.1329978  62.5400014 143.2809992  19.4429978  61.5330014
 143.7089992  18.4639978  63.0660014 141.6779992  18.3939978  62.3680014
 140.5679992  19.4039978  61.9790014 140.8759992  19.9359978  61.0910014
 139.6219992  18.9549978  61.7160014 140.5309992  20.1739978  62.7360014
 141.7439992  17.3929978  61.2770014 142.2899992  16.5409978  61.6550014
 140.8039992  17.0349978  60.8840014 142.3259992  17.7239978  60.4300014
 141.3409992  17.6669978  63.6700014 141.4509992  18.4339978  64.4210014
 142.1459992  17.0019978  63.9470014 140.4319992  17.0919978  63.7690014
 141.6409992  20.7809978  66.9700014 142.2609992  22.4329978  65.1850014
 145.5559992  20.4339978  68.6880014 145.1339992  19.4919978  69.5170014
 144.9799992  18.3019978  69.2220014 144.7399992  20.1519978  70.7850014
 143.7579992  19.7159978  71.0660014 144.6269992  21.2569978  70.8240014
 145.5979992  19.5399978  71.9730014 145.6519992  18.4379978  71.8480014
 144.9679992  19.7729978  72.8580014 146.9179992  20.2559978  72.0540014
 146.9029992  21.3589978  71.9200014 147.7659992  19.8549978  71.4580014
 147.5529992  19.9269978  73.5290014 147.7559992  18.8369978  73.4660014
 146.7929992  20.0379978  74.3320014 148.8819992  20.6169978  73.9650014
 148.7059992  21.7129978  73.9220014 149.5529992  20.2799978  73.1460014
 149.4259992  20.0819978  75.3010014 150.4359992  20.5319978  75.4100014
 149.5819992  19.0059978  75.0740014 148.6969992  20.4029978  76.5530014
 149.2119992  19.8349978  77.3580014 147.7189992  19.8929978  76.4220014
 148.7359992  21.8189978  76.9800014 149.7109992  22.2379978  76.6890014
 147.8699992  22.4209978  77.7420014 148.0319992  23.4139978  78.1860014
 146.5869992  21.7309978  78.3060014 146.1209992  21.1509978  77.4810014
 145.8549992  22.4409978  78.7470014 146.8729992  20.7349978  79.4680014
 147.7259992  20.0679978  79.2200014 145.9879992  20.0789978  79.6150014
 147.2969992  21.4079978  80.8280014 147.8589992  22.3549978  80.6830014
 147.9729992  20.6639978  81.3010014 146.2029992  21.7199978  81.9310014
 145.6029992  20.7919978  82.0430014 145.4889992  22.4769978  81.5410014
 146.6349992  22.2659978  83.2560014 145.7479992  22.4169978  83.9090014
 147.0989992  23.2679978  83.1330014 147.6669992  21.3089978  83.9280014
 148.6649992  21.6559978  83.5840014 147.4069992  20.3249978  83.4830014
 147.6819992  21.2679978  85.4430014 147.9739992  22.2819978  85.7900014
 148.5099992  20.6399978  85.8360014 146.4089992  20.7749978  86.0540014
 145.6169992  21.5059978  85.7830014 146.5809992  20.7919978  87.1510014
 146.1069992  19.7759978  85.6730014   3.8839992  14.9489978  81.2570014
   3.6969992  14.1959978  80.4620014   3.0809992  14.9839978  82.0240014
   4.8589992  14.7459978  81.7510014   3.9689992  16.3409978  80.5450014
   2.9569992  16.4609978  80.1020014   4.2099992  17.1789978  81.2320014
   4.8729992  16.4369978  79.2500014   5.9209992  16.6449978  79.5550014
   4.8059992  15.4369978  78.7710014   4.3419992  17.4799978  78.2220014
   3.3109992  17.3739978  77.8220014   4.2609992  18.4849978  78.6880014
   5.1549992  17.4829978  76.9150014   5.3329992  16.4199978  76.6490014
   4.5309992  18.0909978  76.2260014   6.5369992  18.1819978  76.9420014
   6.4499992  19.0469978  77.6330014   7.3189992  17.5299978  77.3870014
   6.9899992  18.7589978  75.6010014   6.3669992  19.5979978  75.2240014
   8.0369992  19.1189978  75.6930014   7.1489992  17.7609978  74.3420014
   7.9249992  16.9719978  74.4410014   6.1639992  17.2499978  74.2880014
   7.4029992  18.4999978  73.0520014   6.8269992  19.4499978  73.0680014
   8.4789992  18.7619978  72.9620014   6.8769992  17.7109978  71.8360014
   5.7859992  17.5809978  72.0060014   6.9389992  18.3149978  70.9060014
   7.5419992  16.3719978  71.4770014   7.4669992  15.6589978  72.3260014
   6.9849992  15.9569978  70.6100014   8.9739992  16.4229978  71.0230014
   9.0769992  17.2489978  70.2870014   9.6589992  16.5549978  71.8870014
   9.5599992  15.1079978  70.3950014  10.5149992  15.3449978  69.8790014
   9.7799992  14.5159978  71.3090014   8.6599992  14.4049978  69.3870014
   7.7999992  14.0419978  69.9890014   8.3219992  15.1839978  68.6710014
   9.3809992  13.3349978  68.7310014  10.1099992  13.7159978  67.9840014
   9.9169992  12.6219978  69.3930014   8.3669992  12.4669978  67.9210014
   7.3389992  11.9709978  68.4010014   8.5529992  12.5539978  66.6330014
   7.9469992  11.5769978  65.8170014   8.7049992  11.3769978  65.0300014
   7.6819992  10.6609978  66.3880014   6.5109992  12.0929978  65.2070014
   6.0879992  11.2829978  64.5760014   6.7279992  13.3659978  64.3220014
   7.5189992  14.0229978  64.7420014   6.8869992  12.9899978  63.2890014
   5.5779992  14.2129978  64.2810014   4.8149992  14.4909978  62.8590014
   4.8239992  16.0519978  62.6070014   5.9829992  16.8709978  62.9400014
   6.8089992  16.2719978  63.3780014   6.3129992  17.1829978  61.9250014
   5.6319992  17.9549978  63.9760014   6.4649992  18.6429978  63.9640014
   4.8279992  18.5079978  63.5130014   5.1819992  17.6599978  65.3890014
   3.8549992  16.9289978  65.3920014   3.8999992  15.9889978  64.8620014
   3.6179992  16.7459978  66.4300014   3.0479992  17.4849978  64.9390014
   6.2729992  16.8469978  66.1540014   5.8899992  16.6219978  67.1390014
   6.4529992  15.8379978  65.8140014   7.1649992  17.4549978  66.1910014
   5.1159992  18.8939978  66.2450014   4.8319992  18.5829978  67.2390014
   4.3719992  19.5499978  65.8180014   6.1159992  19.2959978  66.1680014
   5.6359992  13.9169978  61.7360014   3.4009992  13.9889978  62.9280014
   5.6329992  12.4179978  66.3010014   4.6149992  11.6249978  66.6310014
   4.3349992  10.6399978  65.9540014   3.8169992  12.1859978  67.8330014
   2.7739992  12.5409978  67.6880014   4.2809992  13.1619978  68.0900014
   3.7469992  11.2949978  69.0590014   4.7679992  11.1149978  69.4580014
   3.2769992  10.3039978  68.8800014   2.9689992  11.8879978  70.2570014
   2.8829992  11.1659978  71.0970014   1.9399992  11.8399978  69.8390014
   3.4119992  13.2199978  70.9320014   2.7739992  13.4039978  71.8230014
   3.3589992  14.0989978  70.2560014   4.8689992  13.2569978  71.3820014
   4.9829992  14.3279978  71.6570014   5.5209992  13.1069978  70.4960014
   5.3859992  12.4009978  72.5130014   5.4479992  11.3919978  72.0540014
   4.5809992  12.2469978  73.2640014   6.7109992  12.9799978  73.0720014
   6.5299992  14.0529978  73.2950014   7.5039992  12.8739978  72.3010014
   7.3379992  12.2629978  74.2020014   7.5159992  11.2009978  73.9750014
   7.8029992  12.6949978  75.3520014   8.4479992  12.1039978  76.0190014
   7.8139992  14.1309978  75.8990014   7.3719992  14.8059978  75.1350014
   8.8609992  14.4459978  76.0940014   7.1059992  14.0969978  77.2720014
   6.0409992  13.7879978  77.3250014   7.0079992  15.1729978  77.5330014
   7.9439992  13.4949978  78.4110014   8.9709992  13.8949978  78.2680014
   7.9929992  12.4139978  78.1570014   7.5989992  13.8989978  79.8410014
   6.5119992  13.6879978  79.9360014   7.8359992  14.9829978  79.9100014
   8.4059992  13.1599978  80.9050014   8.2429992  13.6949978  81.8650014
   9.4939992  13.2219978  80.6860014   8.1799992  11.6669978  80.8720014
   8.8659992  11.1369978  81.5660014   8.4009992  11.3009978  79.8470014
   6.7139992  11.1909978  81.0740014   6.1369992  11.7829978  80.3310014
   6.2949992  11.5209978  82.0490014   6.4879992   9.7249978  81.0490014
   7.2549992   9.1689978  81.6300014   6.4329992   9.3669978  79.9990014
   5.5849992   9.4069978  81.6140014 148.1899992 132.1609978  86.1110014
 147.6089992 132.9949978  85.6610014 149.1289992 132.1519978  85.5180014
 148.4499992 132.5039978  87.1350014 147.3929992 130.7829978  86.2740014
 147.8709992 129.9829978  86.8780014 146.4709992 131.0769978  86.8210014
 147.1129992 130.0409978  84.9260014 148.0099992 130.1759978  84.2830014
 146.9429992 128.9469978  85.0200014 146.0909992 130.7609978  84.1160014
 145.1179992 130.6259978  84.6360014 146.3679992 131.8299978  84.2380014
 146.0189992 130.5119978  82.6350014 146.9569992 130.9929978  82.2840014
 146.1529992 129.4369978  82.3920014 144.6939992 131.0259978  82.0760014
 143.8539992 130.4549978  82.5280014 144.6899992 132.0989978  82.3650014
 144.6079992 131.0449978  80.5450014 144.6379992 130.0289978  80.0980014
 143.6699992 131.5339978  80.2060014 145.7369992 131.9009978  80.0040014
 145.6209992 132.9049978  80.4640014 146.6419992 131.3599978  80.3550014
 145.7169992 132.0959978  78.4780014 144.7279992 132.3069978  78.0190014
 146.2869992 132.9999978  78.1750014 146.3079992 130.9049978  77.7150014
 145.9609992 129.9749978  78.2130014 145.7919992 130.9419978  76.7310014
 147.8859992 130.9699978  77.4730014 148.1529992 131.9459978  77.0150014
 148.4269992 130.9269978  78.4430014 148.4009992 129.8699978  76.5100014
 149.3839992 130.3149978  76.2430014 148.5759992 128.8669978  76.9530014
 147.7079992 129.7219978  75.1430014 148.2349992 129.0019978  74.4810014
 146.6859992 129.3339978  75.3420014 147.6069992 131.0489978  74.3590014
 146.9759992 131.6989978  75.0030014 148.6259992 131.4919978  74.3270014
 147.0519992 130.9259978  72.9500014 146.1809992 130.2379978  72.9970014
 146.5929992 131.8929978  72.6560014 148.2119992 130.4989978  72.0500014
 149.2339992 130.1309978  72.4310014 147.7769992 130.6559978  70.8330014
 148.5009992 129.9579978  69.8360014 149.2679992 130.6459978  69.4200014
 148.9249992 129.0419978  70.3000014 147.5689992 129.6239978  68.6150014
 148.3769992 129.0709978  68.0900014 147.1549992 130.9139978  67.9310014
 146.6439992 131.6289978  68.6110014 148.0929992 131.4549978  67.6810014
 146.2899992 130.7369978  66.8640014 146.9779992 130.2419978  65.5290014
 145.7599992 130.1529978  64.5180014 146.0299992 130.0359978  63.0950014
 146.4479992 130.9669978  62.6550014 146.8449992 129.3079978  62.8930014
 144.7029992 129.6179978  62.2910014 144.0059992 130.4439978  62.3010014
 145.0269992 129.3599978  61.2940014 143.6829992 128.5659978  62.7340014
 143.2629992 128.7679978  64.2030014 143.1439992 129.8149978  64.4410014
 142.4409992 128.1059978  64.4290014 144.0429992 128.3119978  64.7950014
 142.4309992 128.7439978  61.8100014 141.8419992 129.6209978  62.0350014
 142.5839992 128.5909978  60.7520014 141.7579992 127.9669978  62.1390014
 144.3509992 127.2509978  62.5540014 144.4739992 126.9359978  61.5280014
 143.7639992 126.4779978  63.0270014 145.3639992 127.3469978  62.9160014
 147.9429992 131.2879978  65.1100014 147.5069992 128.8479978  65.7990014
 146.4339992 128.8039978  69.0320014 146.7629992 127.5069978  69.1960014
 147.8499992 126.9799978  68.8720014 145.5389992 126.7839978  69.7300014
 145.5879992 125.7339978  69.3690014 144.6049992 127.2369978  69.3370014
 145.4009992 126.6939978  71.2190014 146.3429992 126.4229978  71.7420014
 144.8589992 125.7539978  71.4600014 144.5669992 127.8369978  71.7860014
 143.5329992 127.7849978  71.3840014 145.0229992 128.8319978  71.5970014
 144.4549992 127.7339978  73.3130014 145.4119992 128.0319978  73.7930014
 144.3589992 126.6639978  73.5990014 143.2809992 128.5729978  73.8010014
 142.3409992 128.1289978  73.4070014 143.4279992 129.6439978  73.5460014
 143.1939992 128.4259978  75.3520014 144.1579992 128.6839978  75.8420014
 143.0609992 127.3659978  75.6560014 142.1439992 129.3709978  75.8560014
 141.1869992 128.8549978  75.6300014 142.1839992 130.3359978  75.3050014
 142.2349992 129.7169978  77.2880014 142.4859992 130.7759978  77.4430014
 141.9839992 128.9179978  78.2980014 141.9989992 129.4659978  79.2520014
 141.6179992 127.4659978  78.2620014 141.2559992 127.0139978  77.3140014
 140.8269992 127.4019978  79.0390014 142.7389992 126.5549978  78.8500014
 143.6559992 126.5709978  78.2220014 142.3119992 125.5379978  78.9830014
 143.0919992 126.8909978  80.3690014 142.1929992 127.0969978  80.9880014
 143.6819992 127.8209978  80.2260014 143.9699992 125.9049978  81.0820014
 143.4049992 124.9909978  81.3640014 144.2759992 126.3159978  82.0680014
 145.1849992 125.3499978  80.2690014 144.9119992 124.8429978  79.3190014
 145.4549992 124.4719978  80.8950014 146.4119992 126.2709978  80.1460014
 146.1129992 127.1989978  79.6130014 147.1719992 125.7459978  79.5280014
 146.9569992 126.6539978  81.4930014 147.0989992 125.8519978  82.2480014
 146.2319992 127.3359978  81.9880014 148.2929992 127.4239978  81.5310014
 148.6609992 127.4559978  82.5790014 148.0899992 128.4709978  81.2190014
 148.9939992 126.9909978  80.7850014 135.6799992   2.1769978  81.6560014
 135.0349992   1.4449978  82.1880014 135.8349992   2.9689978  82.4200014
 136.6729992   1.7829978  81.3530014 134.9579992   2.7899978  80.5750014
 134.6069992   1.9509978  79.9360014 133.9679992   3.1999978  80.8700014
 135.7379992   3.8049978  79.7300014 136.0609992   4.6579978  80.3650014
 136.5669992   3.2559978  79.2330014 134.8839992   4.4329978  78.6640014
 134.4259992   3.5799978  78.1170014 134.1349992   5.0099978  79.2470014
 135.5839992   5.5629978  77.8180014 136.1599992   6.2739978  78.4480014
 136.2639992   4.8639978  77.2850014 134.6319992   6.2209978  76.8630014
 134.4299992   5.5699978  75.9850014 133.7399992   6.4399978  77.4880014
 135.3259992   7.4959978  76.4330014 135.2209992   8.2229978  77.2660014
 136.3299992   7.3449978  75.9820014 134.4739992   8.2799978  75.3240014
 133.4389992   8.3479978  75.7230014 134.8929992   9.3079978  75.3660014
 134.5669992   7.6649978  73.9150014 135.5339992   7.1209978  73.8590014
 133.7539992   6.9099978  73.8610014 134.3969992   8.6439978  72.7080014
 133.4839992   9.2759978  72.7260014 135.2929992   9.2999978  72.7450014
 134.3549992   7.8489978  71.3620014 133.7359992   6.9279978  71.4180014
 133.8839992   8.5409978  70.6310014 135.8279992   7.4219978  71.0380014
 136.4449992   8.3459978  71.0210014 136.1079992   6.7649978  71.8900014
 135.9379992   6.8059978  69.6840014 135.4369992   5.8139978  69.7080014
 135.3679992   7.4279978  68.9620014 137.3949992   6.5709978  69.1650014
 137.9539992   6.2299978  70.0620014 137.3859992   5.7049978  68.4690014
 138.0769992   7.7989978  68.3780014 137.2759992   8.1489978  67.6920014
 138.3109992   8.6039978  69.1070014 139.3209992   7.3419978  67.6630014
 139.9699992   6.3549978  67.9270014 139.6779992   8.1449978  66.6030014
 140.8379992   7.7339978  65.8940014 141.2939992   8.5739978  65.3280014
 141.6489992   7.4129978  66.5830014 140.5549992   6.6459978  64.8160014
 141.4979992   6.5529978  64.2360014 139.4269992   7.0419978  63.7620014
 139.5919992   8.1299978  63.6070014 139.6499992   6.6699978  62.7400014
 138.1009992   6.7339978  64.1570014 136.8949992   7.2519978  63.3110014
 135.7019992   6.5739978  64.0620014 135.9719992   6.1309978  65.3700014
 136.6169992   6.8379978  65.9340014 135.0559992   6.0059978  65.9870014
 136.5039992   4.6629978  65.2990014 137.5159992   4.7569978  64.9330014
 136.6889992   4.2149978  66.2640014 135.8249992   3.6769978  64.4100014
 136.2159992   3.7359978  62.9520014 135.5729992   3.1519978  62.3090014
 136.2069992   4.7489978  62.5780014 137.2089992   3.3239978  62.8520014
 136.1529992   2.2569978  64.8940014 135.6959992   2.2249978  65.8720014
 135.6849992   1.5179978  64.2600014 137.1989992   1.9899978  64.9100014
 134.3369992   3.8629978  64.5170014 134.1149992   4.7579978  63.9540014
 133.9329992   3.8179978  65.5180014 133.8199992   3.0649978  64.0050014
 136.7359992   8.6679978  63.6340014 137.0129992   6.8019978  61.8990014
 140.2829992   5.4219978  65.4450014 140.6569992   4.2909978  64.8310014
 141.0799992   4.2609978  63.6990014 140.2819992   3.0249978  65.6770014
 141.2519992   2.5419978  65.9250014 139.6469992   2.4529978  64.9670014
 139.4779992   3.3109978  67.0030014 138.6119992   3.9569978  66.7440014
 140.1969992   3.8929978  67.6180014 139.1399992   2.1229978  67.8370014
 140.0469992   1.6799978  68.3010014 138.5469992   1.3929978  67.2450014
 137.9929992   2.3039978  68.8260014 137.2219992   1.5199978  68.6690014
 137.4249992   3.2089978  68.5210014 138.3349992   2.3419978  70.3380014
 138.5859992   1.3229978  70.7030014 137.3899992   2.5169978  70.8950014
 139.4529992   3.3729978  70.6840014 139.3379992   4.3349978  70.1400014
 140.2949992   2.9569978  70.0900014 139.7119992   3.6889978  72.2220014
 140.6569992   4.2729978  72.2350014 140.0549992   2.8409978  72.8540014
 138.4939992   4.3779978  72.8490014 137.5699992   3.7889978  72.9400014
 138.6419992   5.6709978  73.2240014 137.7849992   6.1669978  73.7030014
 139.8729992   6.5639978  73.1980014 140.1429992   6.8909978  72.1710014
 140.7689992   6.0309978  73.5810014 139.9609992   7.9449978  73.8880014
 139.5839992   8.6499978  73.1170014 141.0589992   8.0979978  73.9630014
 139.4199992   7.9229978  75.3220014 138.3849992   7.5209978  75.2850014
 139.2939992   8.8939978  75.8470014 140.1249992   6.9509978  76.2490014
 141.0849992   7.4259978  76.5430014 140.3219992   5.9109978  75.9100014
 139.3599992   6.7169978  77.5950014 139.8739992   5.9529978  78.2170014
 138.4329992   6.1199978  77.4600014 139.1719992   7.9909978  78.4260014
 138.4539992   8.6369978  77.8770014 140.1729992   8.4679978  78.4980014
 138.5879992   7.8349978  79.8090014 137.6489992   7.2429978  79.7700014
 138.3199992   8.8399978  80.1990014 139.5709992   7.2469978  80.9010014
 140.4499992   7.9199978  80.9910014 139.9609992   6.2259978  80.7040014
 139.0519992   7.0769978  81.8690014   3.7959992 141.6509978  80.7970014
   3.9739992 140.5619978  80.9210014   2.9609992 141.8719978  80.0980014
   3.3429992 142.0929978  81.7110014   5.0969992 142.4409978  80.3690014
   4.9189992 143.5379978  80.3710014   5.8739992 142.3159978  81.1530014
   5.8339992 142.0469978  79.0570014   6.7689992 142.6469978  79.0590014
   5.8949992 140.9379978  79.0960014   5.0909992 142.3729978  77.7270014
   4.3339992 141.5789978  77.5510014   4.4939992 143.2989978  77.8710014
   6.0559992 142.5899978  76.5030014   6.6989992 143.4569978  76.7680014
   6.7079992 141.6909978  76.4940014   5.4289992 142.8139978  75.1700014
   4.8769992 142.0019978  74.6500014   4.7829992 143.7109978  75.2790014
   6.5569992 143.1209978  74.0470014   6.0229992 143.4019978  73.1140014
   7.0639992 144.0339978  74.4260014   7.6319992 141.9839978  73.8720014
   8.2229992 141.8339978  74.8010014   7.0339992 141.0609978  73.7130014
   8.6409992 142.3759978  72.7550014   9.2369992 143.2099978  73.1840014
   9.3519992 141.5769978  72.4530014   8.0749992 142.9959978  71.5140014
   7.5899992 143.9869978  71.6440014   8.9339992 143.1829978  70.8330014
   7.1179992 142.0689978  70.7680014   7.8019992 141.2049978  70.6270014
   6.2709992 141.8459978  71.4520014   6.6399992 142.4969978  69.3950014
   5.7499992 143.1299978  69.5960014   7.3999992 143.0999978  68.8530014
   6.1979992 141.3289978  68.5400014   7.1959992 140.9829978  68.1940014
   5.6959992 140.4849978  69.0600014   5.1989992 141.9779978  67.4890014
   4.3159992 142.3989978  68.0170014   5.6489992 142.7219978  66.7970014
   4.6509992 140.9319978  66.5060014   5.4589992 140.6479978  65.7990014
   4.3529992 140.0289978  67.0790014   3.4739992 141.5429978  65.7910014
   2.3609992 141.4719978  66.2560014   3.8249992 142.3149978  64.6690014
   2.8949992 143.2619978  64.1790014   2.9929992 143.3629978  63.0770014
   1.8349992 143.0829978  64.4590014   3.2129992 144.8669978  64.6140014
   2.4479992 145.4689978  64.0790014   4.6179992 145.3419978  64.2530014
   4.8399992 145.0529978  63.2030014   4.5969992 146.4469978  64.1380014
   5.5319992 144.8189978  65.1760014   7.0439992 145.2809978  65.1450014
   7.7179992 144.2949978  64.0920014   8.2079992 142.9229978  64.5910014
   9.2139992 142.6829978  64.1870014   8.3889992 142.9429978  65.6870014
   7.2019992 141.8459978  64.2590014   7.5449992 140.9049978  64.6630014
   6.2119992 142.0739978  64.6260014   6.8959992 141.4699978  62.7970014
   6.0829992 140.1979978  62.9300014   5.8179992 139.8029978  61.9600014
   6.5779992 139.4139978  63.4830014   5.1649992 140.4649978  63.4320014
   6.0219992 142.6199978  62.3500014   5.8889992 142.5809978  61.2790014
   5.0619992 142.4389978  62.8110014   6.3639992 143.6009978  62.6450014
   8.1089992 141.2249978  61.9590014   8.7479992 140.6299978  62.5950014
   8.6349992 142.1469978  61.7600014   7.9369992 140.7739978  60.9920014
   7.3569992 146.6599978  64.7220014   7.5339992 144.9849978  66.4850014
   2.9389992 144.9509978  66.0400014   3.1129992 146.1209978  66.7330014
   3.1979992 147.2109978  66.2850014   3.0969992 145.7829978  68.2330014
   4.0359992 145.2659978  68.5250014   2.2339992 145.0909978  68.3350014
   3.0319992 147.0849978  69.0300014   2.1549992 147.6769978  68.6900014
   3.9559992 147.6489978  68.7840014   3.0599992 147.1219978  70.5660014
   2.2069992 146.4989978  70.9110014   3.0179992 148.1659978  70.9440014
   4.3679992 146.5409978  71.0890014   5.1439992 147.1859978  70.6230014
   4.4879992 145.4989978  70.7240014   4.5299992 146.3079978  72.5930014
   5.5709992 145.9419978  72.7240014   3.7259992 145.6469978  72.9820014
   4.4139992 147.6049978  73.3610014   4.1939992 147.3699978  74.4240014
   3.5829992 148.2949978  73.0990014   5.6639992 148.5029978  73.3290014
   5.3069992 149.3309978  73.9780014   5.7349992 148.9509978  72.3140014
   6.9769992 147.9069978  73.6960014   7.5459992 147.6509978  72.7910014
   7.4409992 147.5589978  74.9160014   8.4359992 147.1239978  75.0930014
   6.7679992 147.7619978  76.2220014   5.8209992 148.3419978  76.1970014
   7.5049992 148.1879978  76.9370014   6.4299992 146.4249978  76.8930014
   7.3599992 146.0129978  77.3410014   5.9439992 145.6609978  76.2480014
   5.4479992 146.5759978  78.0930014   5.7519992 147.4729978  78.6740014
   5.7329992 145.7109978  78.7290014   3.9559992 146.5469978  77.7550014
   3.5869992 145.5669978  77.3820014   3.6749992 147.1729978  76.8820014
   3.1249992 147.1599978  78.8660014   2.1139992 147.4139978  78.4820014
   3.6079992 148.1369978  79.0850014   3.0789992 146.3919978  80.1800014
   2.8279992 147.0299978  81.0540014   4.0209992 145.9409978  80.5600014
   2.0379992 145.1659978  80.2950014   2.3089992 144.6889978  81.2620014
   2.2649992 144.4779978  79.4520014   0.6109992 145.5759978  80.1670014
  -0.1140008 144.7349978  80.1710014   0.5469992 146.2819978  79.3120014
   0.2709992 146.1159978  81.0770014  11.3109992   6.5889978  80.8100014
  10.5799992   7.2529978  81.3180014  12.2809992   6.4919978  81.3430014
  10.8629992   5.5769978  80.9150014  11.3569992   7.0949978  79.3640014
  10.3569992   7.3149978  78.9320014  11.8879992   8.0689978  79.2980014
  12.0439992   6.1249978  78.3090014  12.0589992   6.5569978  77.2850014
  13.0569992   5.8669978  78.6850014  11.3669992   4.7459978  78.1690014
  11.4969992   4.2529978  79.1560014  10.2919992   4.8789978  77.9220014
  11.9699992   3.8389978  77.1000014  11.5319992   2.8359978  77.2950014
  11.6759992   4.1989978  76.0910014  13.4689992   3.6689978  77.1610014
  13.9479992   4.6679978  77.0830014  13.8489992   3.2609978  78.1210014
  14.0599992   2.7009978  76.0950014  15.1709992   2.7099978  76.0750014
  13.7409992   1.6519978  76.2730014  13.6979992   3.0539978  74.6550014
  12.6399992   3.3769978  74.5510014  14.2509992   3.9879978  74.4200014
  14.1289992   2.1009978  73.5320014  13.3829992   1.3309978  73.2390014
  14.1309992   2.7489978  72.6290014  15.4759992   1.5629978  73.6580014
  16.1499992   2.3509978  74.0580014  15.4889992   0.6359978  74.2700014
  16.1469992   1.0499978  72.3040014  16.2139992   1.8889978  71.5780014
  17.0939992   0.5709978  72.6320014  15.3819992   0.0349978  71.4820014
  16.0499992  -0.6320022  70.8970014  14.8039992  -0.6420022  72.1470014
  14.3779992   0.7259978  70.5680014  13.8999992  -0.1150022  70.0210014
  13.5879992   1.3069978  71.0910014  14.9449992   1.7189978  69.4630014
  15.3339992   2.6739978  69.8770014  15.8219992   1.2089978  69.0110014
  13.9659992   2.0249978  68.3060014  14.5669992   2.4519978  67.4740014
  13.4749992   1.0719978  68.0160014  12.9019992   3.0629978  68.6840014
  12.3059992   3.0249978  69.7320014  12.8849992   4.0389978  67.7720014
  12.2049992   5.1999978  67.9060014  11.7029992   5.4619978  66.9500014
  11.4079992   5.1459978  68.6780014  13.2389992   6.3799978  68.0520014
  12.6669992   7.2999978  68.3000014  14.0279992   6.6369978  66.6820014
  13.3109992   6.8379978  65.8580014  14.7179992   7.4849978  66.8780014
  14.7249992   5.4679978  66.3040014  15.2449992   5.3929978  64.8130014
  13.9139992   4.9139978  64.0940014  13.8839992   4.4209978  62.7830014
  13.4389992   5.1789978  62.1020014  14.8849992   4.1449978  62.3900014
  12.9529992   3.2269978  62.5620014  11.9199992   3.4599978  62.3530014
  13.2739992   2.7769978  61.6340014  12.8799992   2.0369978  63.5060014
  12.1409992   2.4099978  64.7300014  12.2559992   1.7969978  65.6110014
  12.4079992   3.3989978  65.0730014  11.0789992   2.4379978  64.5350014
  12.0969992   0.8899978  62.8080014  12.7149992   0.6369978  61.9590014
  12.1089992  -0.0410022  63.3560014  11.1479992   1.3169978  62.5200014
  14.2309992   1.6289978  63.9690014  14.7189992   1.1449978  63.1360014
  14.1659992   1.0059978  64.8500014  14.8069992   2.4709978  64.3230014
  15.5549992   6.7859978  64.3130014  16.2849992   4.3249978  64.6240014
  14.2059992   6.0749978  69.1180014  13.7419992   6.3539978  70.3750014
  12.7209992   7.0419978  70.6300014  14.5989992   5.6999978  71.5720014
  14.0569992   4.8199978  71.9800014  14.5829992   6.5289978  72.3100014
  16.0409992   5.4559978  71.2400014  16.3779992   6.3639978  70.6950014
  16.0999992   4.5939978  70.5410014  16.9979992   5.1799978  72.4030014
  16.7919992   4.1959978  72.8760014  16.8179992   5.9439978  73.1890014
  18.5169992   5.3339978  72.0390014  18.8259992   6.3709978  71.7850014
  18.5889992   4.7289978  71.1100014  19.4959992   4.6669978  72.9980014
  20.2829992   4.5589978  72.2210014  19.1569992   3.6679978  73.3450014
  19.8359992   5.7109978  74.0570014  19.8149992   6.7439978  73.6490014
  20.9269992   5.6239978  74.2480014  19.1089992   5.4459978  75.4060014
  19.1819992   4.3409978  75.4900014  18.0229992   5.6729978  75.3690014
  19.8799992   6.0989978  76.5180014  20.8889992   5.7109978  76.7210014
  19.4309992   7.0979978  77.3090014  20.0949992   7.4509978  78.1110014
  18.1019992   7.7739978  77.1950014  17.7299992   7.7789978  76.1480014
  18.0369992   8.8379978  77.5060014  17.1369992   7.0269978  78.1060014
  17.2019992   5.9439978  77.8690014  16.1069992   7.2919978  77.7840014
  17.1289992   7.4189978  79.5730014  16.9729992   8.4869978  79.8370014
  18.0989992   7.3149978  80.1030014  15.9399992   6.8109978  80.3730014
  15.0499992   7.2309978  79.8580014  15.9559992   7.1799978  81.4210014
  15.8929992   5.2579978  80.3970014  16.7149992   4.9079978  81.0580014
  16.1159992   4.8409978  79.3920014  14.5579992   4.6479978  81.0580014
  14.8249992   3.5709978  81.0050014  13.7259992   4.8149978  80.3410014
  14.2539992   5.2219978  82.4830014  13.3199992   4.7239978  82.8230014
  14.2189992   6.3319978  82.4780014  15.3029992   5.0279978  83.6300014
  16.3369992   4.9889978  83.2250014  15.0659992   4.0899978  84.1750014
  15.1379992   5.9069978  84.2900014 139.4309992 142.7519978  85.9950014
 140.3969992 142.3969978  86.4140014 138.6929992 143.0279978  86.7780014
 139.7859992 143.6699978  85.4810014 138.8019992 141.8379978  84.9460014
 139.5509992 141.6339978  84.1510014 138.5469992 140.8009978  85.2530014
 137.4419992 142.4269978  84.3660014 136.8239992 141.6179978  83.9210014
 136.8769992 142.6299978  85.3010014 137.6809992 143.5589978  83.4370014
 136.6919992 143.9789978  83.1560014 138.1789992 144.3399978  84.0510014
 138.5859992 143.3349978  82.2360014 138.6969992 144.2649978  81.6390014
 139.5689992 142.9109978  82.5310014 137.8409992 142.3349978  81.2200014
 137.7029992 141.4239978  81.8410014 136.8219992 142.7309978  81.0230014
 138.6339992 142.1369978  79.9180014 139.7159992 142.1839978  80.1660014
 138.4939992 141.0989978  79.5470014 138.4059992 143.1789978  78.8280014
 137.3219992 143.4209978  78.8630014 139.0589992 144.0469978  79.0590014
 138.8889992 142.8449978  77.3990014 138.6139992 143.6419978  76.6750014
 139.9999992 142.8459978  77.3720014 138.3159992 141.5309978  76.7490014
 138.5489992 140.6919978  77.4390014 137.2279992 141.7359978  76.6570014
 139.0149992 141.1929978  75.3760014 138.9279992 142.0099978  74.6280014
 140.0979992 141.1399978  75.6180014 138.5639992 139.9109978  74.7560014
 138.3489992 139.2809978  75.6460014 137.5909992 139.8999978  74.2200014
 139.6289992 139.1379978  73.9290014 140.4419992 139.1309978  74.6860014
 139.2989992 138.0899978  73.7610014 140.1049992 139.8769978  72.6720014
 140.4529992 140.9069978  72.9000014 140.9439992 139.2849978  72.2490014
 138.9919992 140.0179978  71.6080014 138.4839992 139.0299978  71.6150014
 138.2659992 140.7579978  72.0060014 139.5809992 140.3359978  70.3070014
 140.5269992 141.0959978  70.1040014 138.8899992 139.7679978  69.3410014
 139.2759992 140.0549978  68.0170014 139.1499992 141.0949978  67.6490014
 140.3579992 139.8429978  67.8800014 138.3119992 139.2589978  67.0250014
 138.3569992 138.1929978  67.3330014 138.7509992 139.2999978  65.5680014
 139.8619992 139.2959978  65.6010014 138.4679992 138.3369978  65.0930014
 138.2759992 140.4249978  64.8940014 138.3399992 140.5909978  63.3000014
 137.5899992 141.9919978  63.0690014 137.7729992 143.0949978  63.9810014
 138.7539992 143.1979978  64.4920014 137.6389992 143.9679978  63.3070014
 136.7219992 143.2289978  65.1200014 136.8939992 142.6149978  65.9920014
 136.6409992 144.2639978  65.4190014 135.2799992 142.8209978  64.7690014
 135.1799992 141.3459978  64.6520014 134.1709992 141.1449978  64.3240014
 135.9879992 140.8979978  64.0930014 135.2859992 141.0129978  65.6740014
 134.3029992 143.2679978  65.7510014 133.2619992 143.2239978  65.4660014
 134.5389992 142.6799978  66.6260014 134.4119992 144.2969978  66.0590014
 134.9169992 143.5279978  63.4700014 134.9309992 144.6049978  63.5510014
 133.9389992 143.2689978  63.0930014 135.7059992 143.1779978  62.8220014
 139.7669992 140.7249978  62.9030014 137.5179992 139.6099978  62.5970014
 136.9979992 139.7769978  67.2590014 136.1369992 139.0039978  67.9810014
 136.4649992 137.9939978  68.5230014 134.8629992 139.7489978  68.0530014
 134.3399992 139.5719978  67.0890014 135.1619992 140.8129978  68.1600014
 134.0799992 139.1749978  69.2350014 133.8009992 138.1069978  69.1060014
 133.0429992 139.5509978  69.1030014 134.5729992 139.5929978  70.6340014
 134.6319992 140.7009978  70.6780014 135.6429992 139.3079978  70.7240014
 133.6839992 139.1249978  71.7560014 133.5899992 138.0699978  71.4210014
 132.6169992 139.4199978  71.6590014 134.2399992 139.3409978  73.1800014
 135.1889992 138.7979978  73.3780014 133.5669992 139.0139978  74.0010014
 134.4069992 140.9179978  73.4820014 133.4339992 141.4399978  73.3540014
 135.0609992 141.4309978  72.7440014 134.8469992 141.3099978  74.8940014
 135.8819992 141.7129978  74.8810014 135.0029992 140.3809978  75.4840014
 134.1189992 142.3149978  75.7540014 133.9089992 143.2999978  75.3120014
 133.7779992 142.0829978  77.0470014 133.3079992 142.8789978  77.6430014
 134.0039992 140.9949978  77.9220014 134.6969992 140.2279978  77.5150014
 132.9999992 140.6189978  78.2130014 134.7949992 141.3369978  79.2090014
 134.2459992 142.1539978  79.7250014 135.7739992 141.7349978  78.8640014
 135.0009992 140.1689978  80.2670014 134.0019992 139.9259978  80.6900014
 135.7539992 140.5999978  80.9600014 135.5209992 138.8999978  79.5600014
 136.4149992 139.2719978  79.0160014 134.8479992 138.5179978  78.7620014
 135.9299992 137.7259978  80.4780014 136.5269992 136.9749978  79.9180014
 135.0589992 137.1739978  80.8900014 136.5869992 138.1779978  81.7580014
 135.7769992 138.5299978  82.4320014 137.3049992 139.0049978  81.5690014
 137.4449992 137.1569978  82.4820014 138.3749992 136.8759978  81.9420014
 136.7299992 136.3109978  82.5670014 138.0159992 137.6819978  83.8890014
 137.0709992 137.9789978  84.3910014 138.6159992 138.6119978  83.7910014
 138.5629992 136.9389978  84.5070014 143.5519992  13.0219978  80.3270014
 144.0549992  13.5999978  81.1310014 142.5689992  12.7819978  80.7860014
 143.5019992  13.7139978  79.4600014 144.5079992  11.8009978  80.2380014
 144.0029992  11.1259978  79.5140014 145.4289992  12.2089978  79.7690014
 144.6559992  10.9989978  81.5120014 144.9269992  11.6249978  82.3890014
 143.6799992  10.5009978  81.6980014 145.6699992   9.8339978  81.3060014
 146.6569992  10.3419978  81.3430014 145.6779992   9.1509978  82.1830014
 145.6309992   8.9199978  80.1050014 145.6979992   9.5729978  79.2080014
 146.4869992   8.2109978  80.0950014 144.3119992   8.1869978  79.9230014
 144.0439992   7.6849978  80.8770014 143.6609992   9.0799978  79.8120014
 144.2039992   7.2609978  78.6920014 144.6689992   6.3329978  79.0880014
 143.1569992   6.9479978  78.4890014 144.9889992   7.7559978  77.5090014
 144.5039992   8.6929978  77.1630014 146.0569992   8.0409978  77.6240014
 144.8039992   6.8489978  76.2660014 145.2369992   7.4189978  75.4170014
 145.3809992   5.9039978  76.3600014 143.3319992   6.6089978  75.9210014
 142.7749992   6.0199978  76.6820014 142.9069992   7.6309978  75.8360014
 143.1699992   5.7399978  74.6430014 143.8179992   4.8459978  74.7630014
 142.1069992   5.4519978  74.4980014 143.5999992   6.5819978  73.4600014
 143.1389992   7.5929978  73.4580014 144.6939992   6.7159978  73.5990014
 143.2659992   5.8699978  72.1810014 143.8639992   4.9469978  72.3420014
 142.2019992   5.5479978  72.1880014 143.5899992   6.6109978  70.8260014
 143.3569992   5.9469978  69.9670014 143.0079992   7.5389978  70.6410014
 145.0719992   6.7309978  70.6650014 145.4489992   7.4479978  71.4260014
 145.6209992   5.7699978  70.7550014 145.5279992   7.3399978  69.3240014
 146.6639992   7.5449978  69.0360014 144.4519992   7.6019978  68.5320014
 144.7859992   7.8769978  67.1520014 145.1799992   8.9109978  67.0570014
 145.5479992   7.1479978  66.8020014 143.5879992   7.7089978  66.2160014
 143.4419992   6.6089978  66.2770014 143.8949992   8.0239978  64.7150014
 144.4649992   8.9599978  64.5290014 144.5549992   7.1999978  64.3710014
 142.6539992   7.9649978  63.9420014 142.3599992   9.0259978  62.7770014
 142.5609992  10.4239978  63.3080014 141.6199992  11.4919978  63.4030014
 141.3989992  11.6999978  62.3350014 140.6269992  11.3009978  63.8620014
 142.2789992  12.7899978  64.0170014 143.0049992  13.1479978  63.3020014
 141.4729992  13.5069978  64.0730014 142.9509992  12.5949978  65.3880014
 144.1529992  11.6099978  65.4250014 144.5919992  11.5189978  66.4080014
 143.9619992  10.7039978  64.8700014 144.9299992  12.0299978  64.8050014
 143.4429992  13.9599978  65.7850014 144.2999992  14.2399978  65.1900014
 142.7439992  14.7729978  65.6570014 143.7259992  13.9439978  66.8270014
 141.9229992  12.1909978  66.3610014 141.1789992  12.9379978  66.5980014
 142.3909992  11.9179978  67.2960014 141.5149992  11.2539978  66.0110014
 143.3389992   8.7899978  61.6810014 140.9169992   8.9019978  62.4170014
 142.5209992   8.4399978  66.6960014 141.2259992   8.0319978  66.6160014
 140.7799992   7.0459978  66.0340014 140.3049992   9.0549978  67.2850014
 139.9459992   9.5429978  66.3540014 140.8569992   9.8469978  67.8350014
 139.2479992   8.3679978  68.1640014 138.8279992   7.4859978  67.6340014
 138.5059992   9.1919978  68.2360014 139.6939992   8.1279978  69.6630014
 140.6289992   7.5289978  69.7050014 138.9019992   7.5019978  70.1250014
 139.7199992   9.3739978  70.6090014 138.7389992   9.8899978  70.6960014
 140.4759992  10.0209978  70.1160014 140.2679992   9.1469978  72.0000014
 141.2409992   8.6119978  71.9970014 139.4659992   8.5939978  72.5340014
 140.5779992  10.5189978  72.5890014 139.6039992  10.9239978  72.9390014
 140.9889992  11.2419978  71.8520014 141.5199992  10.2909978  73.7730014
 142.3979992   9.8269978  73.2770014 141.1459992   9.4829978  74.4370014
 141.7599992  11.5359978  74.6850014 142.5389992  12.2499978  74.3820014
 141.2329992  11.8619978  75.8010014 141.5629992  12.8359978  76.1920014
 140.2449992  11.1789978  76.6970014 140.0369992  10.1479978  76.3380014
 139.2549992  11.6819978  76.7070014 140.9809992  11.1269978  78.1000014
 141.2829992  12.1129978  78.5140014 141.9439992  10.5829978  77.9990014
 140.2249992  10.4259978  79.2720014 141.0029992  10.0419978  79.9660014
 139.6259992   9.5709978  78.8940014 139.4229992  11.4709978  80.1010014
 138.4719992  11.6499978  79.5540014 139.9769992  12.4329978  80.1000014
 139.2069992  11.0059978  81.5510014 139.1139992   9.8999978  81.5990014
 138.3019992  11.5349978  81.9190014 140.3539992  11.2109978  82.5320014
 141.2029992  10.9349978  81.8690014 140.3429992  10.4279978  83.3200014
 140.5429992  12.6519978  83.0310014 139.7089992  12.9769978  83.6890014
 140.6449992  13.4109978  82.2250014 141.8359992  12.7189978  83.9300014
 142.5519992  12.0269978  83.4380014 141.5599992  12.4179978  84.9630014
 142.2119992  13.7629978  83.9970014 143.7189992 142.3299978  83.0580014
 143.6139992 142.9749978  83.9570014 143.9409992 143.0269978  82.2220014
 144.6349992 141.7649978  83.3330014 142.5359992 141.4079978  82.8250014
 142.2369992 140.8799978  83.7550014 141.7119992 142.0999978  82.5480014
 142.8059992 140.3119978  81.7330014 143.5349992 140.5999978  80.9460014
 143.2429992 139.4699978  82.3110014 141.5199992 139.8429978  81.0560014
 140.7449992 139.7359978  81.8450014 141.0179992 140.6249978  80.4460014
 141.6899992 138.4979978  80.4050014 142.4479992 137.8819978  80.9350014
 140.7049992 137.9879978  80.3530014 142.3899992 138.5509978  79.0200014
 141.9089992 139.4099978  78.5060014 143.4739992 138.7869978  79.0850014
 142.1069992 137.3839978  77.9590014 142.5759992 136.4689978  78.3800014
 141.0049992 137.3299978  77.8300014 142.7329992 137.5639978  76.5810014
 143.7989992 137.8569978  76.6890014 142.6139992 136.5429978  76.1590014
 141.9589992 138.2959978  75.4630014 140.9239992 137.8959978  75.5050014
 141.9599992 139.3919978  75.6450014 142.3469992 137.9439978  74.0540014
 143.2639992 138.5189978  73.8050014 142.4799992 136.8479978  73.9300014
 141.2859992 138.3919978  72.9470014 140.3789992 137.8239978  73.2420014
 140.9879992 139.4619978  72.9670014 141.7339992 138.0259978  71.5170014
 142.7759992 138.3959978  71.4100014 141.8759992 136.9379978  71.3430014
 140.8089992 138.7509978  70.4760014 139.7429992 138.4789978  70.6310014
 141.0809992 139.8269978  70.5290014 141.0889992 138.1739978  69.0460014
 142.1679992 138.1039978  68.7920014 140.6969992 137.1349978  69.0600014
 140.3829992 138.8519978  67.8660014 140.4229992 138.1229978  67.0280014
 139.3249992 139.1249978  68.0680014 141.0169992 140.0979978  67.5350014
 141.6939992 140.7699978  68.2320014 140.5759992 140.4769978  66.3490014
 140.9909992 141.6829978  65.7020014 140.2339992 142.0759978  64.9900014
 141.2169992 142.4709978  66.4530014 142.2189992 141.4839978  64.7910014
 142.2819992 142.3949978  64.1570014 142.0579992 140.2919978  63.8350014
 141.2399992 140.4809978  63.1070014 142.9399992 140.3029978  63.1580014
 141.9219992 139.0689978  64.5560014 142.3619992 137.7239978  63.8050014
 143.9749992 137.7279978  63.8790014 144.5339992 137.1869978  65.0250014
 143.9429992 137.4519978  65.9280014 144.3829992 136.0899978  64.9320014
 146.0259992 137.4999978  65.2180014 146.0779992 138.4719978  65.6860014
 146.4649992 136.8659978  65.9740014 146.9249992 137.4899978  63.9970014
 147.0449992 138.8589978  63.4510014 146.0709992 139.3239978  63.4120014
 147.8089992 139.3799978  64.0080014 147.4709992 138.7689978  62.4630014
 148.3359992 137.1169978  64.4810014 148.9119992 136.9359978  63.5850014
 148.7889992 137.8949978  65.0770014 148.3729992 136.1889978  65.0320014
 146.5169992 136.4359978  63.0450014 146.6559992 135.4189978  63.3810014
 147.0619992 136.5109978  62.1160014 145.4719992 136.5879978  62.8180014
 141.8399992 136.6369978  64.6420014 141.8839992 137.7509978  62.4070014
 143.4489992 141.3329978  65.6260014 144.6159992 141.4649978  64.9210014
 144.7689992 141.8019978  63.7590014 145.7249992 141.3429978  65.9500014
 146.1029992 142.3279978  66.3000014 146.5129992 140.7139978  65.4810014
 145.4589992 140.5059978  67.2380014 146.4689992 140.0959978  67.4500014
 144.8359992 139.6309978  66.9560014 144.8939992 141.2979978  68.4260014
 143.9009992 141.6869978  68.1120014 145.5279992 142.1819978  68.6510014
 144.7859992 140.5329978  69.7610014 144.3379992 139.5359978  69.5640014
 144.0189992 140.9759978  70.4320014 146.0299992 140.2869978  70.6360014
 146.8829992 140.3199978  69.9240014 145.9539992 139.3339978  71.2020014
 146.1789992 141.3159978  71.8130014 145.1319992 141.4319978  72.1670014
 146.5129992 142.3549978  71.6050014 147.0599992 140.8209978  72.9540014
 148.1119992 140.8209978  72.5970014 146.8769992 139.7409978  73.1400014
 146.9579992 141.5209978  74.2350014 146.4329992 142.4719978  74.0620014
 147.4759992 141.1089978  75.3700014 147.2229992 141.6489978  76.2950014
 148.2169992 139.8069978  75.5310014 149.1099992 139.6859978  74.8810014
 147.6109992 138.9339978  75.2060014 148.6359992 139.5479978  76.9720014
 147.8059992 139.7109978  77.6930014 149.5549992 140.1419978  77.1610014
 149.1139992 138.0759978  77.1490014 150.0779992 138.0199978  76.6000014
 148.4359992 137.3329978  76.6760014 149.2669992 137.6419978  78.6180014
 149.9979992 138.3499978  79.0650014 149.8119992 136.6749978  78.5880014
 147.8989992 137.5279978  79.3330014 147.3489992 136.6969978  78.8430014
 147.4419992 138.5399978  79.3220014 148.0559992 136.9209978  80.6880014
 148.6339992 137.6719978  81.2690014 148.6659992 136.0199978  80.4670014
 146.7919992 136.2639978  81.3320014 146.9869992 135.4919978  82.1070014
 146.4019992 135.6109978  80.5220014 145.7529992 137.3139978  81.6510014
 144.8589992 136.8159978  82.0820014 145.3979992 137.9019978  80.7780014
 146.1939992 138.0289978  82.3790014   8.4299992   7.3389978  85.9870014
   9.3549992   7.9209978  86.1840014   8.1149992   6.7319978  86.8630014
   7.7719992   8.2339978  86.0040014   8.4759992   6.5779978  84.6670014
   9.0789992   5.6769978  84.9100014   7.4849992   6.0909978  84.5510014
   8.9209992   7.2329978  83.3810014   8.0709992   7.7999978  82.9450014
   9.7749992   7.8309978  83.7650014   9.3269992   6.3479978  82.1870014
   9.7099992   6.9979978  81.3710014  10.0199992   5.5469978  82.5230014
   8.0759992   5.5519978  81.6240014   7.8569992   4.6839978  82.2820014
   7.1689992   6.1839978  81.7420014   8.2849992   5.1629978  80.1290014
   8.3699992   6.1059978  79.5470014   9.2749992   4.6699978  80.0280014
   7.1949992   4.3039978  79.4270014   7.3119992   3.3579978  79.9970014
   6.1229992   4.5949978  79.4360014   7.6079992   3.7709978  77.9670014
   8.4789992   3.0819978  77.9760014   6.7589992   3.1119978  77.6860014
   7.7449992   4.9019978  76.9460014   8.6589992   5.4479978  77.2640014
   7.9419992   4.3839978  75.9830014   6.5139992   5.8769978  76.7580014
   5.6319992   5.2579978  76.4880014   6.3539992   6.2579978  77.7900014
   6.5569992   6.9589978  75.8240014   5.5209992   7.3609978  75.8450014
   7.2529992   7.7739978  76.1150014   7.0449992   6.5569978  74.4310014
   7.9449992   5.9099978  74.3530014   6.2289992   5.9409978  73.9970014
   7.2989992   7.8049978  73.5510014   6.3219992   8.3019978  73.3710014
   8.0029992   8.4899978  74.0690014   7.8739992   7.4599978  72.1750014
   8.6379992   6.6959978  72.4350014   7.1339992   6.8599978  71.6040014
   8.6219992   8.5629978  71.4280014   9.3779992   9.0679978  72.0660014
   9.2799992   8.1029978  70.6590014   7.6529992   9.5379978  70.7550014
   7.1869992  10.5539978  71.2620014   7.3259992   9.0659978  69.5980014
   6.4359992   9.9379978  68.8600014   5.3889992   9.8089978  69.2080014
   6.7289992  10.9969978  69.0230014   6.2509992   9.5129978  67.3450014
   7.1839992   9.1359978  66.8740014   5.8779992  10.7269978  66.4870014
   5.0589992  11.2839978  66.9910014   6.7449992  11.4149978  66.5880014
   5.5039992  10.4489978  65.2250014   6.3269992   9.6639978  64.1050014
   5.9399992   8.1299978  64.5310014   4.7649992   7.5699978  63.9540014
   3.9179992   8.1639978  64.3610014   4.8629992   7.6579978  62.8510014
   4.5249992   6.0279978  64.2960014   4.2799992   5.8819978  65.3380014
   3.6099992   5.7969978  63.7710014   5.5719992   5.0149978  63.9840014
   6.1669992   5.4599978  62.6570014   6.5869992   6.4529978  62.7260014
   6.8459992   4.6759978  62.3560014   5.4039992   5.5389978  61.8970014
   6.7819992   4.9759978  64.9080014   7.4259992   4.1719978  64.5850014
   7.3059992   5.8589978  64.5730014   6.4899992   4.7989978  65.9330014
   4.9949992   3.6319978  63.7770014   4.7339992   3.1399978  64.7020014
   5.7959992   3.1489978  63.2360014   4.1539992   3.6899978  63.1010014
   5.7389992   9.9519978  62.8100014   7.7629992   9.9769978  64.2590014
   5.2249992   8.4579978  67.2560014   5.6429992   7.2809978  67.6610014
   6.8209992   7.0199978  67.9230014   4.3639992   6.2839978  67.9290014
   4.5249992   5.3899978  67.2880014   3.4359992   6.8579978  67.7230014
   4.4709992   5.9129978  69.4150014   4.2519992   6.8869978  69.9040014
   5.4209992   5.4219978  69.7150014   3.4349992   4.7859978  69.8180014
   3.6399992   3.8549978  69.2470014   2.4039992   5.1149978  69.5660014
   3.3259992   4.2619978  71.2400014   4.3369992   3.8829978  71.5060014
   2.6189992   3.4349978  71.4660014   2.7909992   5.5009978  72.0620014
   1.8499992   5.8859978  71.6130014   3.6069992   6.2529978  72.0260014
   2.5159992   5.0669978  73.5400014   3.2789992   4.3699978  73.9490014
   1.5209992   4.5809978  73.6290014   2.4669992   6.1419978  74.6220014
   3.4699992   6.5909978  74.7890014   2.1089992   5.6949978  75.5730014
   1.4669992   7.2309978  74.3390014   0.3949992   7.0139978  74.2240014
   1.6999992   8.5829978  74.0790014   0.8279992   9.2149978  73.8540014
   3.0379992   9.3159978  74.0540014   3.2659992   9.9839978  73.1970014
   3.8439992   8.5559978  73.9700014   3.0359992  10.1129978  75.4250014
   2.1079992  10.7219978  75.3810014   3.9209992  10.7839978  75.4470014
   3.0349992   9.2549978  76.7120014   3.9579992   8.6369978  76.7360014
   2.2359992   8.4869978  76.6320014   2.8339992  10.0219978  78.0000014
   1.9259992  10.6609978  78.0550014   3.5499992  10.8569978  78.1580014
   2.8569992   9.1419978  79.3280014   2.9639992   8.0869978  78.9940014
   1.8109992   9.2829978  79.6770014   3.9459992   9.5809978  80.3200014
   3.9389992  10.6869978  80.4200014   4.8329992   9.1709978  79.7910014
   3.7829992   8.9469978  81.7380014   4.7069992   9.2729978  82.2620014
   3.7769992   7.8519978  81.5460014   2.3759992   9.2799978  82.4010014
   1.5279992   8.7279978  81.9410014   2.3019992  10.3879978  82.4120014
   2.3659992   8.9349978  83.4570014 149.1169992   1.8009978  81.6250014
 148.7579992   1.0049978  80.9390014 150.1739992   2.1029978  81.4620014
 148.5339992   2.7119978  81.3690014 148.8589992   1.2329978  83.0500014
 149.2479992   0.1929978  83.1070014 149.1989992   1.8979978  83.8720014
 147.3309992   1.0789978  83.3680014 147.2369992   0.3629978  84.2120014
 146.8149992   1.9709978  83.7820014 146.3889992   0.4899978  82.2370014
 145.3899992   0.4279978  82.7190014 146.1749992   1.1569978  81.3750014
 146.6699992  -1.0330022  81.8580014 147.5089992  -0.9490022  81.1350014
 146.9199992  -1.6780022  82.7280014 145.6049992  -1.8270022  81.1940014
 145.9349992  -2.8130022  80.8030014 144.6349992  -2.0530022  81.6870014
 145.0359992  -1.1500022  79.8490014 144.6959992  -0.1200022  80.0930014
 145.8519992  -1.0510022  79.1020014 143.7969992  -1.8780022  79.2730014
 144.0339992  -2.9460022  79.0810014 143.0389992  -1.8770022  80.0850014
 143.1779992  -1.4170022  77.9740014 142.1869992  -1.8790022  77.7760014
 143.0749992  -0.3160022  78.0820014 144.0949992  -1.9320022  76.7750014
 145.1469992  -1.6180022  76.9480014 143.9699992  -3.0350022  76.8100014
 143.7209992  -1.5920022  75.3180014 142.8809992  -2.2940022  75.1300014
 143.4099992  -0.5280022  75.2550014 144.7889992  -1.9440022  74.3080014
 145.1709992  -2.9840022  74.3930014 144.2659992  -1.8390022  73.3330014
 146.0469992  -1.0890022  74.2070014 145.7059992  -0.1420022  73.7380014
 146.4329992  -0.8570022  75.2220014 147.2279992  -1.8490022  73.4980014
 148.0559992  -1.1080022  73.5230014 147.5519992  -2.6810022  74.1580014
 147.1439992  -2.3430022  72.0970014 148.0939992  -2.9040022  71.9660014
 146.3279992  -3.0590022  71.8630014 147.0969992  -1.2020022  71.0500014
 146.7629992  -0.0310022  71.3500014 147.4729992  -1.5990022  69.8870014
 147.3709992  -0.6790022  68.8260014 147.6149992   0.3699978  69.0980014
 148.0359992  -0.9890022  67.9910014 145.9209992  -0.8640022  68.1260014
 145.7409992  -1.8670022  67.6830014 145.8479992  -0.0210022  66.8090014
 146.7999992  -0.0620022  66.2370014 145.0829992  -0.4930022  66.1560014
 145.4439992   1.2909978  67.1360014 145.5719992   2.3619978  66.0060014
 144.9269992   1.6809978  64.6830014 143.5049992   1.7609978  64.5740014
 143.0429992   1.1699978  65.3930014 143.2239992   2.8279978  64.4450014
 143.0159992   1.1319978  63.2900014 143.2549992   0.0849978  63.3980014
 141.9679992   1.3939978  63.2490014 143.6599992   1.5979978  61.9660014
 142.7889992   1.0769978  60.8750014 142.9009992   0.0119978  60.7400014
 141.7399992   1.2919978  61.0180014 143.0719992   1.6129978  59.9810014
 143.8459992   3.0439978  61.9380014 142.9339992   3.5949978  62.1160014
 144.5499992   3.2379978  62.7340014 144.1769992   3.3639978  60.9610014
 144.9399992   0.9039978  61.8280014 144.7589992  -0.1590022  61.9040014
 145.6029992   1.1059978  62.6560014 145.3669992   1.0859978  60.8530014
 144.8199992   3.6249978  66.3880014 147.0339992   2.4829978  65.8210014
 144.8919992  -0.5310022  69.1140014 143.6719992  -1.0130022  68.9780014
 143.3539992  -1.8950022  68.1870014 142.8179992  -0.1530022  69.8150014
 143.4659992   0.3519978  70.5630014 142.1589992  -0.7540022  70.4770014
 142.1829992   0.9839978  69.0340014 141.4959992   0.5279978  68.2900014
 142.9759992   1.5379978  68.4880014 141.4809992   2.1489978  69.9200014
 140.6409992   1.6729978  70.4680014 141.1459992   2.9399978  69.2150014
 142.4659992   2.7719978  70.9430014 142.7519992   1.9589978  71.6440014
 141.9279992   3.5449978  71.5340014 143.6229992   3.5589978  70.3360014
 143.0849992   4.4009978  69.8500014 144.2419992   3.0799978  69.5470014
 144.6399992   4.1329978  71.3650014 143.9949992   4.4539978  72.2100014
 145.0879992   5.0609978  70.9490014 145.7519992   3.1959978  71.7810014
 146.4159992   3.0619978  70.9000014 145.3039992   2.1849978  71.8850014
 146.6039992   3.3899978  72.9930014 147.5879992   3.8029978  72.7260014
 146.2139992   3.3019978  74.2760014 146.9649992   3.6289978  75.0100014
 144.8339992   2.9239978  74.8890014 144.6989992   1.8369978  75.0760014
 144.0289992   3.0869978  74.1410014 144.5509992   3.6329978  76.2320014
 144.8419992   4.6999978  76.1270014 145.3089992   3.3659978  77.0000014
 143.1249992   3.3539978  76.8040014 142.9739992   2.2529978  76.7880014
 142.3109992   3.6379978  76.1040014 142.7579992   3.7829978  78.2310014
 142.5759992   4.8789978  78.2230014 143.5979992   3.6689978  78.9490014
 141.6169992   2.9169978  78.9040014 141.9439992   1.8559978  78.8870014
 140.7139992   2.9449978  78.2560014 141.2689992   3.3789978  80.3920014
 140.5439992   4.1799978  80.1320014 142.1919992   3.8669978  80.7720014
 140.6259992   2.3619978  81.3490014 139.6269992   2.0069978  81.0150014
 140.4959992   2.7959978  82.3630014 141.4669992   1.1179978  81.4730014
 141.0199992   0.5379978  82.3080014 142.5189992   1.3009978  81.7790014
 141.4779992   0.4859978  80.5600014 135.6979992 124.7359978 127.6090014
 113.3489992  35.1449978 134.8760014   8.3899992  56.1809978 118.0580014
  90.3929992  82.7199978 125.1170014  86.0979992  87.1499978 143.4520014
  93.2629992  15.2639978  55.8550014  12.1819992  54.7019978  15.8060014
  72.0159992  19.8939978   0.7070014  31.8559992  40.6959978  46.5070014
  32.9679992  58.2499978 131.9020014   0.7959992  54.8939978  34.1030014
  63.4529992   4.5499978 113.8240014  86.8229992  11.3419978  -1.6409986
  25.8649992  82.4759978  12.1760014 116.0039992  49.5029978  41.5210014
  72.4299992 126.8329978  15.8570014  60.5459992 106.4049978 126.2100014
  80.5009992  30.1959978 127.0300014  97.8049992  84.9709978  16.4830014
 138.4569992   8.8059978  31.0400014  94.1449992  96.9679978   0.8430014
   5.7249992   2.4449978  29.9840014 104.7289992 126.3189978 -10.8409986
  80.5049992 139.0509978 115.5310014  92.9559992  36.2989978  46.4530014
  76.4409992 100.0499978   5.8610014   9.6499992  72.3579978  51.2550014
  60.0059992   4.7969978  54.1670014 111.5399992  95.9079978 107.2510014
 140.5689992   1.5949978  52.6630014  48.3699992  19.2059978 142.8770014
 123.7629992 129.4669978  52.7800014 140.2539992 141.6239978 126.1180014
  47.2289992 112.9929978 111.7030014 129.0159992  63.4209978  39.7720014
 126.5119992  79.7639978  -6.8639986 104.1519992   1.1109978  46.8050014
  91.6509992  54.8819978  31.1970014  66.7649992  77.1269978  -8.5829986
  17.5089992  33.1909978 136.1060014  88.9519992  41.2829978 108.6290014
 136.2179992 118.9799978  -3.6649986   1.0229992  71.8439978  15.7420014
  52.2889992 128.7539978  49.5110014  60.1629992 130.1919978  55.3660014
 105.7939992  65.8279978  -7.5199986  67.1439992 127.2359978  56.9160014
  38.2759992  82.9929978  29.3960014 113.8119992 117.1299978  -2.2789986
  22.7519992 132.5779978   0.0230014  62.3649992 118.0839978  17.0950014
  33.1789992 110.4529978  21.8440014  70.4449992  13.3159978  56.2750014
 116.5929992  28.9849978   4.0190014  99.8419992  35.1509978 131.9370014
  90.1489992  54.8269978 132.2820014 120.8629992 101.4849978 114.8040014
  14.1179992  46.5559978  -2.0979986  68.9139992 130.8589978  29.7160014
  91.6869992 124.5829978 133.1560014  43.6539992 125.3259978 118.8660014
 105.3379992 109.0989978 114.2630014   7.9979992  85.5469978  51.6790014
  63.1819992 133.5449978  10.8170014  86.9899992  96.4959978 136.2850014
  45.8489992 143.5899978   6.3160014  72.3369992  89.9559978   4.4980014
  92.8119992  32.4899978  33.6520014  91.1719992  31.9489978  55.3590014
  41.7219992  99.1989978  46.6360014 133.1699992   7.0849978  12.6770014
  82.4109992  36.6679978 141.2080014 120.2789992  95.6829978  41.3040014
  55.0789992  32.4609978  -5.7579986  26.8499992  73.9509978  39.6750014
   7.5799992  45.2799978 140.2670014 117.2809992 127.3489978  44.6900014
   7.0819992  89.0259978 147.6180014 145.5099992   1.4429978 136.5070014
 111.0929992  98.5109978  55.3140014 117.4849992   2.7409978 121.6830014
  33.5119992 140.4939978  53.8320014   2.7329992 116.4379978 -16.2779986
 113.3659992  90.9039978 123.6430014  89.3059992  41.0969978  22.7090014
  76.2019992  87.6569978  16.5670014  93.7559992 111.3249978   3.9740014
  81.4719992 118.5739978  48.6160014 121.8309992  22.5329978 133.6880014
   2.8669992  65.4679978 130.8850014 108.4049992  78.5529978  -4.9399986
  99.5459992  53.2199978   5.9970014  46.9039992 104.7429978  53.0040014
 134.0719992  78.2259978  48.6330014  62.9879992  37.6179978   1.4960014
  78.7089992 123.4999978  47.7080014  50.6679992 110.0039978  39.9360014
  71.3169992   5.7979978  34.7920014 112.4189992 127.5879978 -14.1889986
  27.4949992 106.3939978 119.1140014 120.6129992  75.2039978  30.7990014
  97.6579992  10.8599978 -11.2019986 134.1969992 144.1779978  15.2260014
 132.2959992  68.4989978   2.8230014 133.4789992  12.4889978  26.4600014
  85.5529992  44.8799978  51.4780014 139.3709992  96.1249978  27.2090014
  12.2539992  53.1759978  41.3070014 104.2459992 114.4869978  32.4460014
  19.9139992  68.7059978  14.2850014  43.3639992  70.5569978   9.7570014
 121.5129992 136.9569978   7.0020014 124.2659992  16.7029978   3.4850014
  53.3889992  30.4759978  51.0960014  64.0159992 134.2749978 139.4060014
 139.0849992 125.6459978  28.1310014  47.7059992 107.1499978   8.3470014
 142.6229992  74.8389978  -9.8189986   5.2839992  85.7879978  38.6100014
  64.8829992   2.3029978  26.5890014  99.0809992  15.8779978  28.0290014
  52.5929992  62.8399978 -13.5489986 140.1739992  39.9539978  18.6890014
  53.4239992  51.4279978 -12.8339986  57.2109992  81.8099978 110.2690014
  76.9919992  68.2419978 -12.5379986 105.5949992 124.3049978 133.2300014
  25.9749992  45.9279978  57.4040014  59.9789992  30.1149978  49.7340014
 138.7479992 103.9909978  49.7500014  36.8229992 124.6079978  23.8100014
  25.3409992  65.2969978 -16.7389986 125.7609992   6.1889978 134.9290014
  23.0549992  44.3349978 120.2040014 144.0419992 142.1569978 114.4780014
  97.2699992  45.6349978  53.8710014  95.2869992 143.9779978 130.8700014
  98.2789992  85.1659978 113.3870014 100.9649992 119.6749978 117.2520014
  18.4899992  51.6919978   6.7700014  35.1449992 121.9549978  59.2580014
  51.1499992  25.6959978  39.2380014  69.7929992 123.9329978  -8.9419986
  74.9939992   5.6919978  46.8570014  48.0989992  55.8729978  32.5360014
 113.1139992 109.2429978  35.2610014  23.1679992  75.3789978   0.0040014
 128.2359992  45.7499978 132.2360014  35.5569992   5.8439978  52.8640014
  52.7049992  67.4739978 130.6800014  27.5009992  77.4219978  58.2610014
 139.8159992  12.8379978  13.0150014 118.7109992 137.3529978  -7.7079986
  32.7899992  82.5929978  -2.2199986   8.1379992  94.7159978 127.9840014
   6.2839992 111.6969978 132.4680014 108.5769992 138.0349978 -13.9649986
  29.1329992  44.0949978 144.1710014  37.0289992 104.4339978  55.8430014
 144.2809992  85.9709978  -9.9009986 108.9089992  93.2739978 -12.7169986
  52.3229992  42.7069978 138.1060014 115.9689992  14.4359978 115.5230014
 131.9379992  57.3329978 118.4510014 107.8399992  67.6309978 117.8260014
 110.5809992 112.1229978 -16.8899986  18.6609992  94.3469978 -16.3699986
  55.5169992  60.9329978  13.2410014 119.3379992  70.8639978  21.3860014
 117.9299992  95.6759978 130.1330014  92.9139992  50.2199978  24.4100014
  60.3519992 125.0849978  14.6030014  24.4909992  94.0169978 147.1280014
  89.6339992 140.3159978   5.1640014 141.1749992  39.0859978 -10.1739986
  54.1359992  88.7569978  -0.4549986  11.6609992 140.8669978  -9.1029986
 113.8949992 105.7169978 134.8880014  80.6229992  51.7899978  35.0020014
  33.7909992 111.4399978 109.7880014  20.8749992  66.9339978  22.1570014
  85.8399992 127.4009978 114.7690014  10.8099992 111.9009978  12.2330014
 114.3589992  50.9689978 125.5610014 135.5089992  85.9899978 134.0180014
  88.2489992  11.2659978  45.8320014 106.5359992 134.1919978  44.8310014
  46.2499992  31.0699978  -1.7599986 124.5489992 136.6489978 107.8040014
  40.4039992  23.7579978  -1.7819986  69.1739992  34.5059978  26.6600014
 143.2459992  80.0929978 107.4350014 107.3029992  23.4119978   2.0650014
 129.5059992 135.7489978  16.9190014 104.3029992 101.3779978 137.2490014
  80.3999992 113.5819978 130.6180014  23.1279992   5.0329978  -8.3209986
 131.3209992  25.8779978  -5.7239986 127.1979992  78.3489978  41.3160014
  71.5529992  25.1669978 131.7930014  60.7009992  15.9809978 131.2660014
 104.5589992 137.0759978 128.9460014 135.2079992 136.0429978  27.6380014
  20.8229992 133.0729978  32.4310014 144.3529992 128.2209978 134.2500014
 135.8939992  38.7399978 141.0820014   1.5009992  51.9119978  -6.6509986
 108.5139992  41.9689978  21.0670014 119.7439992 119.0329978   4.2840014
   7.3579992  35.1249978 127.0490014  38.4799992 131.9809978  -7.1159986
  94.5989992  80.7769978   1.9410014 139.3229992  84.5689978  -1.8619986
 112.3019992  36.8409978  13.4170014 140.6909992  74.2659978  26.2110014
  41.0549992 119.5429978  11.6520014 103.6149992  17.2829978  35.9450014
  60.6729992  74.6639978 122.8400014  70.1669992 122.7899978 119.1360014
  48.0179992  76.3099978  15.1790014 122.5449992  74.1019978 -10.1799986
 129.1529992  73.9609978  25.4660014  92.6769992 115.4399978 121.4530014
  98.7429992 133.6649978 109.0060014 111.0509992 100.2579978 133.4430014
   2.4209992  35.6829978  42.0320014 100.6299992 102.0429978 132.3140014
 131.5249992   1.8179978  16.3590014  81.8879992 102.5119978  16.9810014
   3.9299992  62.3879978  39.0220014  79.5829992  25.5109978  58.5690014
 103.7459992  33.0189978 107.9330014  40.8869992  84.2019978  -0.4379986
 111.9189992  26.3519978   8.5990014  77.1169992 115.8249978  10.7920014
 102.9719992 131.3669978  55.0730014 109.4659992 138.4059978  19.4020014
  20.8259992  40.4389978 -12.8359986  94.4469992  66.8569978 107.7230014
  44.9629992  39.9149978 109.5040014 134.9079992  36.6149978  41.2180014
  38.0119992  66.3519978  11.1280014  53.9929992  27.9839978 137.0220014
 139.8699992  65.1969978  56.0220014  37.6189992  79.2369978  54.5270014
  44.2499992  96.6379978 -16.2969986 132.4909992  12.4359978  -3.3319986
  92.9419992  21.3699978  55.9390014 134.5409992  43.9259978 134.8410014
  78.7459992 139.1979978 109.0930014  83.9869992  48.7589978  28.0330014
 137.9129992  23.5759978 108.8570014  92.0679992  91.6929978 130.5630014
 101.7489992 104.9559978  19.7850014  99.2209992  18.6949978  46.7780014
  91.5019992  76.6599978  24.7710014 103.8199992  13.5599978  21.9350014
  83.5479992  38.4689978  17.9250014  82.1429992  54.2569978 113.6630014
 119.8899992  35.9289978  12.5810014  23.6679992  88.2059978 142.8300014
  11.8229992  32.5839978  12.0450014 140.9589992  80.0379978  18.5920014
  56.4359992 129.1109978   8.2920014  35.3329992 114.4059978  44.1220014
  69.0679992 126.5289978 131.2460014 100.6779992  93.4199978  46.5410014
 103.8649992  83.9119978  34.3790014   7.0519992  26.0969978  -3.5209986
  37.6089992 103.0249978 143.1830014  87.3969992   7.0189978  48.0190014
 101.7299992 118.1309978  17.5640014  95.8569992 145.1269978 109.0950014
 144.2789992   5.0169978 128.1520014  89.9899992  81.6949978 119.8540014
  59.1159992  54.7429978 -16.2529986  71.8079992  72.4749978 -14.7519986
  75.9249992  18.9379978   7.7100014 129.0769992 109.3479978  14.3910014
  89.4529992 133.7079978  43.4200014  99.5719992  81.4449978  20.7800014
  76.2959992  59.4669978  24.4000014  72.3779992  86.9619978  22.8310014
  21.3939992   1.9589978 120.1620014  53.5779992  26.9359978  55.7740014
 139.1479992  92.8669978 108.0470014 128.2929992 139.6589978   7.7400014
 109.8199992  74.6709978 121.8630014  71.9339992  35.2509978  22.9670014
 128.0899992  38.8919978 134.4650014  76.4989992   6.7279978   8.9830014
  54.5629992 104.9079978  -8.6789986  46.0549992 103.1919978 108.6960014
  97.1449992  40.6879978 130.2470014 129.5869992   5.6559978  28.5500014
  94.2999992  54.5819978 130.0440014  65.8939992  88.5439978 126.2300014
  31.4249992 104.4639978  18.5130014  85.7129992 102.4219978 128.3030014
  31.4929992 115.4129978  48.5940014  25.7199992  91.4519978   9.3830014
  76.0079992  18.3789978 114.8150014  17.8259992 120.9589978  10.7500014
 127.7199992  12.2799978  30.4590014  61.6229992 123.8869978  55.6070014
  98.8929992 121.7039978  28.4950014 120.7479992 107.6409978 131.8490014
  44.4019992 127.7149978 110.4840014  50.1799992  19.7499978  31.3230014
  53.6519992  13.7409978 113.0120014  43.8049992   2.8649978  57.9280014
 122.0069992  85.1409978  22.1090014 104.6159992  96.9489978 123.1490014
 129.9079992  40.9699978  17.2110014  72.5559992 102.1339978 129.2810014
  57.7389992  61.6029978  18.1320014  97.7009992 116.0379978 111.1110014
 130.6439992 133.5789978  28.9140014  50.2519992  66.3039978   3.0780014
 112.4819992  63.5349978  47.4510014 123.9629992 110.7799978 110.8630014
  87.5679992  53.0729978  12.4370014  61.4039992   7.9939978 108.7970014
 115.1809992  90.9199978  20.8320014   1.6269992  54.9789978  16.7180014
  85.3169992 124.1039978   2.6620014  26.3629992  65.5749978 123.5010014
 101.8189992 131.2849978 -10.8989986  66.6469992   4.9859978 110.0270014
 116.6549992 131.3899978 -16.8649986 104.7309992 102.3929978  47.1670014
  86.4399992  74.3279978 103.3540014 130.9519992  75.8489978  41.3960014
 101.3149992  20.2749978 144.1910014  55.2219992 138.9179978 136.4420014
 127.9209992  28.9319978 133.4540014 123.6369992  24.5179978   0.7100014
  25.8429992 126.8889978  55.0270014 145.1019992  97.9929978 -14.8259986
  59.1629992  36.1479978 -11.3479986 105.6929992 107.2249978  41.6730014
  80.8659992  93.0949978 140.6270014  33.1649992  13.9409978  43.5820014
 109.8359992 111.2069978 118.2320014  11.9719992  26.7489978 111.3070014
 140.7509992 117.0519978 144.7060014  56.7739992 107.7909978  57.0370014
 116.5189992  68.8729978 147.5320014  75.3439992  59.7959978  39.0000014
  24.8929992  55.6219978  40.7610014  55.1759992  68.4619978 124.0290014
 126.3289992  76.0699978  15.5540014  49.3079992  65.7839978 140.3550014
  38.8239992  31.9029978  45.0110014  35.1429992  81.0369978  18.9570014
 121.0199992 132.1789978 -10.7369986  63.5829992 133.9879978 144.2010014
  61.7609992  89.2969978   6.6640014 131.3739992  75.0499978 139.7520014
  20.4689992 110.6219978 127.0720014  30.5929992  15.5879978  16.6680014
  91.7839992 108.9169978  -1.3629986  40.1989992 111.3919978   1.0710014
  27.7319992  12.3829978 105.7620014  13.1869992  95.2679978 106.3870014
  67.9969992  81.9999978  -4.1449986   6.4299992  26.1049978  -8.8029986
  63.4369992 113.0809978 105.8290014  28.4759992 111.2989978 118.0940014
 108.1039992  49.1329978 106.4780014 140.3989992  84.4879978  44.2990014
  85.9659992  36.8479978 136.3790014 129.5869992 106.1629978  54.2400014
  28.4709992  11.0939978  27.1960014  39.3969992  63.9919978 128.3210014
  95.2129992 108.2699978 123.5170014 108.4899992 116.7619978  31.3900014
  42.8049992   8.8379978 121.7720014  51.7329992  45.6739978  54.9790014
  14.3189992  56.7859978 121.4030014  44.1929992 108.1899978  51.7190014
   5.9459992  97.6699978 108.5570014  35.3899992  98.2009978  54.4680014
  10.7719992  39.0309978  -9.5259986  52.9159992   8.0709978 128.0250014
  89.9979992   1.5429978  21.8950014  25.7409992 129.0739978  11.3080014
 117.9679992 138.8739978 113.4640014 134.6479992  31.4749978   1.9660014
   6.9339992  89.3089978  54.7030014  80.8779992 133.3939978  36.1990014
   9.9459992  18.9829978 117.8820014 124.3499992 122.2729978 124.1470014
  80.7339992 134.0939978 110.6290014  11.5509992  47.6829978   8.1460014
 109.8749992  61.7629978 108.7460014  70.0009992 141.4249978  34.7010014
  41.6589992  24.6109978  -7.4509986  97.5839992 110.4169978  41.5140014
  90.6869992  31.2069978   8.3960014 123.2049992 103.7799978  39.8070014
 126.7599992 108.9409978 142.2300014 134.1039992  76.3939978  -9.5009986
  49.7059992  59.4709978 -15.2099986 109.0169992 126.9709978  -9.5669986
  38.1719992 122.6109978  55.8860014 112.9969992 104.7719978  33.4110014
 125.1439992  31.5499978  49.4410014 141.8929992 141.2539978 120.6360014
 143.8079992  26.0109978  26.7580014 132.4919992  75.9219978 112.6920014
 142.1389992  53.8079978  39.9370014   9.0149992  48.0849978  49.4820014
 106.8469992 131.3249978 125.8400014  94.1579992  86.8029978  12.4280014
  47.9599992  80.5329978 111.9670014   7.1449992  96.1409978 121.5080014
  64.2129992   1.4349978  18.3700014  53.3489992  41.0359978  26.7700014
  25.7429992  67.8419978 111.1390014  33.5599992  15.3889978  10.0730014
  77.2139992  24.3469978  -4.6529986  78.9879992 120.0479978 -12.8899986
 134.3179992 129.0379978  -5.6219986  97.9089992   1.6049978  52.6100014
 123.8269992  55.7879978  17.4890014  71.7679992  64.3589978  10.1480014
  23.0389992 112.8599978 -10.5299986  41.8739992  61.9929978  46.6660014
  80.1879992  94.4899978  49.0230014 101.0789992 122.7599978 137.9740014
 131.8009992 136.2589978  22.1190014 144.3109992  65.2279978 110.6190014
 143.8489992 128.5859978 124.6720014  96.9599992  33.5869978  12.2560014
  67.5249992 127.1109978  47.6000014  32.4999992  76.8549978 -12.4839986
  68.3779992  70.4039978 141.5450014 133.9799992 104.3159978  45.0820014
  75.2869992 112.7359978  51.2460014 132.6589992 129.6729978 123.5760014
 122.5339992 113.8669978  -5.2609986 112.4469992  44.5559978  19.8860014
   9.4569992  29.1229978  36.3060014  93.3429992   5.4209978   4.0560014
 137.3849992  62.6679978 -12.6329986  58.9049992  45.6839978 133.7860014
  45.9439992  97.7399978  56.6930014 125.7079992  22.8499978  41.9430014
  60.6895330 120.3002674  15.4371289  20.8192733  68.4311798  19.7019532
  12.6289992  10.6239978 109.8880014  12.7179992  11.5679978 109.7560014
  11.9909992  10.3489978 109.2300014  12.5549062  10.7159812 109.7809641
  11.5619992   9.8789978 113.3070014  11.5239992   9.2329978 114.0120014
  11.2399992   9.4119978 112.5360014  11.5132679   9.7274276 113.2992921
   3.9299992   9.4929978 114.9000014   3.9719992   8.8679978 115.6230014
   4.6329992  10.1169978 115.0820014   4.0307345   9.4917873 115.0235274
  15.2679992  12.8179978 111.6090014  14.8269992  12.0979978 112.0590014
  15.2549992  13.5389978 112.2380014  15.2057960  12.8168329 111.7557567
   4.8539992  13.9429978 113.4350014   4.4839992  13.1409978 113.0650014
   5.7949992  13.7749978 113.4810014   4.9305984  13.8104638 113.3905603
   1.4639992   7.6029978 108.8280014   1.0159992   8.4489978 108.8090014
   0.9029992   7.0239978 108.3120014   1.3269603   7.6403674 108.7556720
   2.1739992   9.7649978 110.9540014   2.3879992   8.9949978 111.4810014
   2.9119992   9.8549978 110.3500014   2.3029652   9.6718012 110.9445212
  12.3799992  17.9219978 111.8210014  12.9989992  17.2459978 111.5470014
  12.1709992  17.7039978 112.7290014  12.4366232  17.7997938 111.9062517
   9.9509992  12.3109978 113.7130014  10.2549992  11.6249978 113.1190014
  10.6729992  12.4299978 114.3310014  10.0901152  12.2332189 113.7152123
  18.6139992   3.9129978 114.5740014  18.6639992   4.5229978 115.3100014
  19.0399992   4.3739978 113.8510014  18.6784108   4.0587709 114.5770112
  13.0919992   6.7049978 114.0410014  13.2349992   5.7589978 114.0610014
  12.9859992   6.9119978 113.1120014  13.0972509   6.6034813 113.9182231
   6.2469992   4.8069978 111.3130014   6.2899992   5.6669978 110.8950014
   5.7889992   4.2549978 110.6790014   6.1909815   4.8500621 111.1701197
  13.9689992   4.9379978 109.7140014  14.6159992   4.6089978 110.3390014
  14.4789992   5.4549978 109.0910014  14.1264317   4.9629227 109.7152167
   2.8669992   7.2039978 112.0750014   3.5209992   6.6539978 112.5070014
   2.8909992   6.9299978 111.1580014   2.9597199   7.0917167 112.0101668
   8.0239992   8.7539978 111.2900014   8.6399992   8.2269978 111.8000014
   7.4369992   8.1139978 110.8870014   8.0289239   8.5954117 111.3052952
  19.0059992   5.3909978 116.8100014  18.3169992   6.0489978 116.7140014
  19.0209992   5.1929978 117.7460014  18.9136740   5.4543243 116.9234630
   5.0569992   3.7249978 115.3870014   4.8379992   4.2549978 114.6210014
   4.3889992   3.9509978 116.0340014   4.9367001   3.8281154 115.3696064
  12.4259992  13.2249978 108.9310014  12.1309992  12.9019978 108.0800014
  12.1019992  14.1249978 108.9720014  12.3417983  13.3024026 108.8199771
   7.6259992  11.3999978 115.6750014   6.8859992  11.9989978 115.7780014
   8.3399992  11.9539978 115.3590014   7.6213288  11.5567356 115.6463805
  15.7329992   4.2289978 111.6940014  15.5179992   3.4629978 112.2270014
  16.3889992   4.7009978 112.2070014  15.7922673   4.1880728 111.8361990
   4.6509992   5.6169978 113.3390014   5.2649992   6.2499978 113.7130014
   5.1629992   5.1449978 112.6830014   4.8042277   5.6397352 113.3014279
   6.0339992  13.3649978 116.4620014   6.0279992  14.2439978 116.0840014
   5.1799992  13.2809978 116.8870014   5.9177925  13.4739535 116.4676887
   2.1549992  13.0359978 107.2440014   1.8829992  13.2649978 106.3550014
   2.1999992  13.8729978 107.7040014   2.1238709  13.1806058 107.1846107
  15.7799992  14.6569978 113.9560014  14.8379992  14.7159978 114.1180014
  16.0559992  15.5629978 113.8190014  15.6885865  14.7875288 113.9596192
  16.0799992   2.9439978 115.3740014  15.3439992   3.5539978 115.3360014
  16.7639992   3.3589978 114.8470014  16.0715506   3.0836400 115.2976051
   9.0839992   1.0299978 112.8400014   8.9659992   0.0819978 112.7850014
   8.2289992   1.3629978 113.1130014   8.9522679   0.9451926 112.8693720
  14.0319992  16.4379978 110.5820014  14.4569992  15.7309978 110.0970014
  14.3489992  17.2399978 110.1650014  14.1330266  16.4495190 110.4592479
  15.1919992  14.3389978 109.0900014  14.9339992  13.6489978 108.4790014
  15.2629992  13.8959978 109.9360014  15.1662837  14.1847106 109.1206912
  16.8779992  12.9059978 117.5680014  17.0169992  12.3139978 116.8280014
  17.0449992  13.7789978 117.2110014  16.9195562  12.9429896 117.4186283
  11.3499992   9.8679978 107.3400014  10.6389992  10.4029978 106.9880014
  12.0409992   9.9229978 106.6800014  11.3460751   9.9486777 107.2025858
  18.7189992   9.2459978 115.6340014  18.0669992   9.9399978 115.7230014
  19.1849992   9.4559978 114.8240014  18.6925937   9.3695019 115.5367533
  14.7559992  10.0769978 108.2920014  14.0239992  10.3059978 108.8650014
  15.2029992   9.3639978 108.7470014  14.7162753  10.0118972 108.4319715
  14.6529992   8.2519978 117.3600014  14.7329992   9.0149978 117.9310014
  14.0519992   8.5309978 116.6690014  14.5827245   8.3942630 117.3448424
   6.4009992  10.7079978 110.1740014   6.0709992  10.3369978 109.3560014
   6.9899992  10.0369978 110.5210014   6.4353970  10.5666063 110.1089404
   7.7679992  14.1359978 112.8560014   7.6729992  13.5569978 112.0990014
   8.4969992  13.7649978 113.3520014   7.8536161  14.0065891 112.8195209
   6.7679992   9.4759978 113.8080014   7.3329992   9.5979978 113.0450014
   7.0869992  10.1139978 114.4470014   6.8883977   9.5788851 113.7899424
  13.0769992  14.9799978 114.5420014  12.8369992  15.6419978 115.1900014
  12.8789992  14.1449978 114.9670014  13.0173826  14.9578115 114.6881566
   7.6479992  13.8759978 118.5250014   7.3369992  14.6579978 118.9800014
   6.9979992  13.7229978 117.8390014   7.5175538  13.9624087 118.4945898
  13.6269992   9.2399978 105.9770014  14.2059992   9.3899978 106.7240014
  14.0409992   9.7099978 105.2540014  13.7623122   9.3241277 105.9815042
   4.5679992  10.0739978 117.7540014   4.6379992  10.7249978 118.4520014
   3.6769992  10.1769978 117.4190014   4.4571802  10.1769757 117.8042249
  11.3529992  15.9759978 109.4120014  11.8269992  16.2719978 110.1900014
  10.7899992  16.7149978 109.1790014  11.3417361  16.1162721 109.4868611
   5.8869992  15.9469978 119.2880014   5.8949992  15.8109978 118.3410014
   4.9709992  15.8299978 119.5400014   5.7642528  15.9125463 119.1923243
  17.3259992   0.9899978 105.7900014  16.4259992   1.1289978 106.0850014
  17.5779992   1.8209978 105.3880014  17.2368683   1.1214055 105.7760232
   5.3919992   9.7769978 107.7640014   5.0999992  10.5449978 107.2730014
   4.7169992   9.1179978 107.6010014   5.2608497   9.7929745 107.6748260
   1.4849992  12.1399978 116.5790014   0.9829992  12.1119978 115.7640014
   1.4899992  11.2349978 116.8880014   1.4170416  12.0137368 116.5093766
   1.2349992  14.9209978 113.4630014   2.1809992  14.7759978 113.4440014
   1.1219992  15.7049978 114.0000014   1.3493578  15.0071697 113.5330317
  19.4329992  15.5869978 119.1450014  19.3829992  14.6309978 119.1080014
  18.6059992  15.8539978 119.5460014  19.3143987  15.4925174 119.1941446
  10.4109992  15.1609978 118.0210014  10.4989992  15.9869978 118.4960014
   9.5479992  14.8309978 118.2700014  10.3063357  15.2295468 118.1197653
  10.8259992  18.9329978 107.8270014  10.7499992  18.8119978 106.8810014
  10.8579992  19.8819978 107.9460014  10.8199156  19.0447530 107.7135048
   4.4789992  17.7219978 109.6080014   4.6309992  17.3739978 110.4870014
   3.6279992  17.3649978 109.3530014   4.3847899  17.6261738 109.6937340
  13.9269992  18.0869978 104.8290014  14.3019992  17.3429978 104.3590014
  13.9319992  17.8169978 105.7480014  13.9790024  17.9486950 104.8887987
  13.5959992  18.0129978 107.5790014  12.6609992  18.1129978 107.7570014
  13.8759992  17.3029978 108.1570014  13.5058173  17.9307239 107.6814998
  16.5849992   7.0799978 119.6250014  16.1769992   7.5599978 118.9050014
  16.6249992   6.1739978 119.3170014  16.5345476   7.0233160 119.4848247
   3.7339992  13.4639978 117.6220014   3.9499992  13.1019978 118.4810014
   2.8779992  13.0889978 117.4120014   3.6479354  13.3637906 117.7112160
   6.3519992   1.9339978 113.6170014   5.4909992   1.8469978 113.2100014
   6.3299992   2.7899978 114.0450014   6.2310411   2.0377884 113.6190857
  11.0149992   1.6559978 116.9920014  11.4349992   1.2409978 117.7450014
  10.0819992   1.4769978 117.1090014  10.9463736   1.5749910 117.1108968
  14.3419992   5.4109978 117.8450014  13.8279992   5.2859978 118.6430014
  14.1859992   6.3239978 117.6010014  14.2506967   5.5172123 117.9210937
  10.6769992   4.1479978 104.2770014  10.4229992   4.1669978 105.2000014
  10.4199992   3.2769978 103.9760014  10.6075133   4.0328110 104.3625082
   6.4429992   6.8989978 114.7120014   5.8019992   6.8589978 115.4210014
   6.4809992   7.8259978 114.4750014   6.3603670   7.0187795 114.7770550
   6.4399992   7.1199978 109.6240014   5.5479992   6.7799978 109.5660014
   6.8909992   6.7429978 108.8690014   6.3786815   7.0223762 109.5139203
  11.9759992   7.5359978 108.4410014  11.5669992   8.3509978 108.1500014
  12.6959992   7.3959978 107.8270014  12.0174013   7.6286571 108.3180875
  11.0779992   7.7119978 119.9290014  10.5149992   7.0069978 120.2500014
  11.9039992   7.5909978 120.3970014  11.1126674   7.5992165 120.0361751
  12.9809992   6.9819978 111.2550014  12.7849992   7.5879978 110.5400014
  13.1619992   6.1489978 110.8210014  12.9786584   6.9522513 111.0984212
   4.1929992   7.2199978 116.5790014   4.1549992   7.6199978 117.4480014
   3.7029992   6.4029978 116.6700014   4.1215621   7.1642510 116.7101377
   0.8019992   4.3359978 110.4300014   1.4319992   4.3069978 111.1490014
   1.2509992   3.9109978 109.7000014   0.9490692   4.2745316 110.4297771
  12.2449992   8.6199978 115.9270014  12.5679992   7.9889978 115.2840014
  11.8039992   8.0859978 116.5870014  12.2295789   8.4613522 115.9282232
   9.0219992   4.5479978 110.7110014   8.1109992   4.6049978 110.9990014
   9.5269992   4.4879978 111.5210014   8.9655387   4.5476870 110.8600646
   3.8499992   6.1769978 109.5370014   2.9609992   6.2759978 109.1970014
   4.1469992   5.3349978 109.1910014   3.7684177   6.0767687 109.4436940
   7.5029992   6.1769978 107.1940014   8.4349992   6.3059978 107.3720014
   7.2879992   6.8459978 106.5440014   7.6014472   6.2850806 107.1304891
  13.4269992   3.7829978 113.9750014  12.7499992   3.9139978 114.6390014
  12.9419992   3.6279978 113.1650014  13.2687265   3.7799659 113.9563397
  16.7149992  19.4539978 120.2520014  16.9139992  19.8779978 119.4170014
  17.3699992  19.7979978 120.8590014  16.8308501  19.5586091 120.2197097
   4.3129992  11.9279978 119.8600014   5.0449992  12.1829978 120.4210014
   3.5319992  12.1329978 120.3750014   4.3077684  11.9906468 120.0064782
  10.3419992   7.3349978 112.5980014  10.9059992   6.7889978 112.0510014
  10.1939992   6.8139978 113.3860014  10.3992575   7.1896552 112.6296987
   5.3439992   3.4719978 109.0160014   5.0269992   2.5689978 108.9810014
   6.1249992   3.4739978 108.4630014   5.4062307   3.3486951 108.9364314
   8.9679992   5.7239978 115.0120014   8.1329992   6.1779978 115.1220014
   9.4919992   5.9999978 115.7640014   8.9245070   5.8234666 115.1287152
   9.5129992  11.9369978 106.6960014   8.7679992  11.4289978 106.3740014
   9.3779992  11.9859978 107.6430014   9.3929047  11.8741596 106.7798845
  16.6629992  11.0699978 115.4830014  17.3039992  11.5259978 114.9390014
  15.8319992  11.1829978 115.0210014  16.6385171  11.1477502 115.3460237
  13.4099992   4.7509978 104.8960014  12.4719992   4.8619978 104.7440014
  13.7079992   5.6069978 105.2020014  13.3216402   4.8820621 104.9165571
  11.0319992  12.1209978 117.9330014  10.6859992  11.7389978 118.7400014
  10.8319992  13.0539978 118.0050014  10.9576523  12.1949095 118.0530735
  14.1289992   6.6179978 106.5560014  15.0209992   6.4799978 106.8750014
  14.1849992   7.4089978 106.0200014  14.2587107   6.7060526 106.5272091
   4.6369992  11.2319978 112.4660014   5.3819992  11.2289978 111.8650014
   4.7149992  10.4079978 112.9480014   4.7494158  11.1202916 112.4489153
  11.6379992  13.3949978 105.7220014  11.3429992  14.2219978 106.1030014
  10.9349992  12.7759978 105.9180014  11.5025471  13.4245227 105.8006698
   1.6449992   9.6919978 117.7810014   1.8679992   9.2739978 118.6130014
   1.0429992   9.0799978 117.3580014   1.5941260   9.5519933 117.8377320
   8.6619992   9.2089978 119.9940014   8.3659992   9.0439978 119.0990014
   9.5929992   8.9889978 119.9830014   8.7473982   9.1566578 119.8700045
  13.2819992  14.5829978 117.8840014  12.3819992  14.7659978 117.6160014
  13.3159992  14.8419978 118.8050014  13.1632909  14.6430815 117.9717852
  18.9769992  12.6279978 119.0880014  18.1259992  12.8659978 118.7210014
  19.5669992  12.6109978 118.3350014  18.9402408  12.6582966 118.9358879
  17.3089992  15.6129978 106.7160014  16.9359992  14.7879978 107.0250014
  17.5859992  15.4299978 105.8190014  17.2953871  15.4752441 106.6369677
  14.4689992  10.4209978 113.7370014  13.5409992  10.1899978 113.7100014
  14.9199992   9.6439978 113.4070014  14.4028165  10.2842774 113.6886790
   7.0119992  14.7499978 109.8700014   7.5399992  15.5229978 109.6700014
   6.1319992  14.9739978 109.5690014   6.9653176  14.8863161 109.8018409
   8.4399992  12.4129978 109.4470014   8.1989992  13.3379978 109.4880014
   7.6989992  11.9539978 109.8430014   8.3068390  12.4776403 109.5061404
   8.9539992  16.5619978 115.7620014   9.3169992  17.4159978 115.5280014
   9.4859992  16.2699978 116.5020014   9.0756090  16.6394058 115.8300219
   7.1229992  17.4339978 108.9920014   6.1729992  17.5399978 109.0430014
   7.4749992  18.2549978 109.3370014   7.0405480  17.5594438 109.0455999
  12.4979992  12.6609978 115.4620014  12.0729992  12.4329978 116.2890014
  13.0789992  11.9219978 115.2800014  12.5183930  12.5299843 115.5504731
  15.1569992  17.2129978 117.9320014  14.5549992  16.6569978 117.4360014
  15.4379992  17.8799978 117.3060014  15.1126829  17.2271613 117.7795443
  19.2049992  18.0689978 104.7370014  19.9489992  18.6549978 104.5970014
  18.5109992  18.6379978 105.0710014  19.2130201  18.2260603 104.7629772
   3.2789992   4.4459978 117.3390014   2.3869992   4.7839978 117.2720014
   3.1809992   3.5899978 117.7570014   3.1434965   4.3766499 117.3863044
   2.9309992  16.2499978 115.7740014   3.1479992  15.3179978 115.7430014
   3.1769992  16.5249978 116.6570014   2.9939809  16.1595686 115.8891690
   8.7919992  14.7019978 102.9830014   9.0309992  13.9529978 102.4360014
   8.5229992  14.3139978 103.8160014   8.7883233  14.5471853 103.0207809
   7.7289992  14.2719978 105.4400014   7.8759992  13.7519978 106.2300014
   7.7259992  15.1789978 105.7460014   7.7487300  14.3233964 105.5895895
  12.0139992   4.1869978 116.2290014  12.7129992   4.2609978 116.8790014
  11.6329992   3.3219978 116.3830014  12.0582097   4.0802389 116.3387997
  12.7979992   3.8389978 107.3260014  13.0179992   4.3099978 106.5230014
  13.3569992   4.2329978 107.9960014  12.9036730   3.9567432 107.3065906
   9.9979992   5.5669978 108.1610014  10.8099992   6.0709978 108.2070014
   9.7539992   5.4219978 109.0750014  10.0761467   5.6163749 108.2908575
  10.5339992   6.5529978 117.3460014  10.6529992   7.1269978 118.1030014
  11.1889992   5.8649978 117.4600014  10.6389146   6.5385574 117.4651314
  10.8819992   2.6479978 109.0990014  10.5349992   3.2649978 109.7440014
  11.5409992   3.1489978 108.6180014  10.9235949   2.8001099 109.1222271
   6.5399992   3.7109978 105.7860014   6.4559992   4.5989978 106.1330014
   7.4299992   3.4459978 106.0180014   6.6488163   3.7967179 105.8648596
  16.7379992   4.4599978 118.1810014  15.8219992   4.7219978 118.0930014
  17.0739992   4.4569978 117.2840014  16.6579789   4.4954626 118.0477847
  15.3409992   8.2099978 112.2760014  14.5429992   7.7949978 111.9480014
  15.7859992   7.5199978 112.7670014  15.2919684   8.0598628 112.2975227
   4.7979992  14.1379978 104.8470014   5.3899992  14.8379978 105.1230014
   5.2569992  13.7049978 104.1270014   4.9410791  14.1752908 104.7874607
  16.4269992  17.4659978 113.8990014  16.2709992  18.1449978 113.2420014
  17.3599992  17.5379978 114.1020014  16.5317387  17.5686390 113.8365342
   3.9219992   1.5839978 112.6360014   3.6929992   1.6429978 111.7080014
   3.4799992   0.7929978 112.9420014   3.8308801   1.4850540 112.5504729
   2.8529992  15.5249978 108.7960014   2.0199992  15.9969978 108.8240014
   3.3979992  16.0349978 108.1980014   2.8127590  15.6585897 108.7189194
   2.1409992  18.1369978 120.1260014   2.6809992  17.9209978 120.8860014
   1.6599992  17.3319978 119.9370014   2.1498613  17.9985400 120.2044782
   6.7379992  17.0569978 121.7470014   7.5059992  16.5979978 122.0880014
   6.7169992  16.8309978 120.8170014   6.8402135  16.9636668 121.6679491
  13.3149992  15.4369978 120.4760014  12.9639992  14.5799978 120.7190014
  14.0409992  15.5789978 121.0830014  13.3651590  15.3390178 120.5912907
   2.0479992  11.9479978 121.0810014   2.1919992  11.0459978 120.7940014
   1.2759992  12.2339978 120.5930014   1.9633303  11.8633243 120.9757908
   8.7029992  11.9169978 120.5130014   8.3749992  12.1879978 119.6560014
   8.8549992  10.9759978 120.4260014   8.6786030  11.8268973 120.3837945
  14.4379992  11.8329978 117.8970014  15.1829992  12.4219978 117.7770014
  13.6809992  12.4149978 117.9600014  14.4375205  11.9921997 117.8891119
   2.8809992   9.1479978 120.5010014   3.2889992   8.2909978 120.3800014
   2.6199992   9.1619978 121.4220014   2.9016016   9.0325119 120.6089192
   7.5389992  10.2639978 105.5190014   7.0789992   9.7799978 106.2050014
   7.7939992   9.5949978 104.8830014   7.5105038  10.1073689 105.5269447
   6.8279992   8.1569978 117.8750014   6.2089992   8.8309978 118.1550014
   7.1719992   8.4779978 117.0420014   6.7897605   8.2927198 117.8006707
  11.8469992  10.6279978 121.1520014  12.8009992  10.7119978 121.1250014
  11.6869992   9.9159978 121.7720014  11.9557182  10.5432842 121.2320733
   7.1669992   5.5119978 118.9570014   7.3169992   4.7829978 118.3550014
   7.1689992   6.2889978 118.3980014   7.1877967   5.5172708 118.7990541
   7.5799992   3.8809978 116.4500014   8.1149992   4.3329978 115.7980014
   6.7269992   3.7729978 116.0270014   7.5380374   3.9282665 116.3036710
   9.1609992   9.3209978 116.6890014   9.9119992   9.1649978 116.1160014
   8.8219992  10.1729978 116.4140014   9.2179587   9.4148138 116.5734078
  13.5769992   7.1359978 121.7180014  13.7689992   6.2049978 121.6060014
  14.4349992   7.5609978 121.7080014  13.7192269   7.0659928 121.7013192
  14.8939992   9.9249978 119.7950014  14.6119992  10.6339978 119.2180014
  15.8359992   9.8519978 119.6440014  14.9827656  10.0123128 119.6954809
   5.6459992   6.7099978 120.8690014   4.8779992   6.1769978 120.6590014
   6.3239992   6.3999978 120.2690014   5.6326973   6.5952375 120.7591796
   8.3849992   1.3379978 116.8810014   8.2869992   2.2839978 116.7760014
   7.6429992   0.9649978 116.4060014   8.2711913   1.4171813 116.8023539
   9.6489992   5.6589978 120.4450014   9.4139992   5.4399978 121.3470014
   8.8659992   5.4519978 119.9350014   9.5109219   5.6010066 120.4995852
  12.3649992   4.7869978 119.5210014  11.4169992   4.8189978 119.6530014
  12.6769992   4.1609978 120.1740014  12.2775190   4.7067262 119.6273564
  13.9989992   3.4209978 121.5260014  13.9019992   2.4689978 121.5200014
  13.6769992   3.6889978 122.3860014  13.9421761   3.3269744 121.6414936
   3.8259992   4.6299978 120.5730014   4.0379992   3.9239978 119.9630014
   3.7149992   4.1929978 121.4170014   3.8400269   4.4741921 120.6035873
   8.6069992   0.6319978 119.5530014   9.3189992  -0.0080022 119.5390014
   8.5059992   0.8979978 118.6390014   8.6907261   0.5804190 119.4275537
   8.9609992   2.3139978 121.6060014   8.8289992   1.8389978 120.7860014
   8.3609992   3.0589978 121.5510014   8.8619070   2.3495789 121.4863251
   0.7239992  19.2269978 109.3430014   0.0769992  18.7649978 108.8100014
   1.0789992  18.5549978 109.9250014   0.6834506  19.0729503 109.3487341
   1.5939992  17.3069978 111.1470014   1.2599992  16.4269978 111.3190014
   1.8169992  17.6529978 112.0120014   1.5783721  17.2331938 111.2874168
  19.1429992  18.1169978 114.1280014  19.1209992  18.3019978 115.0670014
  19.8329992  18.6849978 113.7870014  19.2333439  18.2191887 114.2104791
  18.7059992  17.6839978 117.0500014  18.2189992  16.9489978 116.6790014
  19.2549992  17.2899978 117.7280014  18.7135247  17.5301057 117.0908461
  17.1569992  13.4739978 121.6880014  16.2909992  13.3689978 122.0820014
  17.5329992  14.2319978 122.1340014  17.0893401  13.5621708 121.8022620
  18.4579992  11.7299978 107.2020014  19.3079992  12.1509978 107.3290014
  18.4629992  10.9899978 107.8090014  18.5751143  11.6876094 107.3014750
  18.8519992   9.7839978 109.0260014  18.1259992   9.3039978 109.4230014
  19.4339992   9.9889978 109.7580014  18.8311635   9.7459166 109.1793748
  18.6109992  12.5689978 113.9730014  19.4449992  12.1909978 113.6930014
  18.7229992  13.5119978 113.8540014  18.7402522  12.6447742 113.9186020
  17.0979992  15.4469978 116.2800014  16.4499992  15.7719978 116.9060014
  16.5799992  15.0059978 115.6060014  16.9394168  15.4318523 116.2745307
  16.6389992   8.3049978 109.5890014  16.4889992   7.3599978 109.5680014
  16.2849992   8.5859978 110.4320014  16.5705527   8.2135605 109.7001859
   1.6739992  10.3829978 113.5990014   1.8589992  10.3009978 112.6630014
   2.5239992  10.2589978 114.0230014   1.8140916  10.3550393 113.5282896
  17.4949992  10.2749978 119.2270014  18.0779992   9.5399978 119.4190014
  18.0589992  11.0469978 119.2740014  17.6509781  10.2788145 119.2596164
  18.9919992   8.1779978 119.9120014  18.1289992   7.7989978 119.7460014
  19.5959992   7.4389978 119.8380014  18.9555944   8.0262978 119.8792984
  16.3499992   5.8869978 108.0510014  16.6289992   4.9799978 108.1750014
  17.1089992   6.3209978 107.6620014  16.4908619   5.8214502 108.0153795
  16.9609992   6.4689978 113.4870014  17.8939992   6.6809978 113.4530014
  16.7259992   6.5699978 114.4090014  17.0568308   6.5116503 113.6070214
  16.9909992   7.2059978 116.2630014  16.1479992   7.4739978 116.6290014
  17.4329992   8.0279978 116.0520014  16.9354138   7.3538273 116.2845518
   1.2719992   5.6529978 119.7400014   2.1909992   5.5309978 119.9760014
   0.8219992   4.9029978 120.1290014   1.3371148   5.5348751 119.8249408
  19.2739992   1.1859978 121.6160014  19.6229992   0.5319978 121.0110014
  19.4209992   2.0229978 121.1770014  19.3417355   1.2096067 121.4736564
  16.9629992   3.1499978 108.0990014  17.1449992   2.7009978 108.9250014
  16.3629992   2.5659978 107.6360014  16.9067529   3.0096131 108.1493619
   2.4929992   3.9659978 112.6310014   2.9379992   3.1739978 112.9330014
   2.9589992   4.6819978 113.0620014   2.6169059   3.9544474 112.7306079
   0.7969992   6.9649978 113.7000014   1.2889992   6.7439978 112.9090014
   1.1589992   7.8049978 113.9810014   0.9132923   7.0483468 113.6297407
  18.7929992   3.2949978 119.9660014  17.8759992   3.5659978 119.9300014
  18.9159992   2.7599978 119.1820014  18.6840828   3.2597700 119.8550785
  18.8299992   3.2179978 104.6270014  19.2419992   2.4969978 104.1520014
  19.5109992   3.8869978 104.6860014  18.9785900   3.2097306 104.5699038
   1.1109992   3.2229978 107.7540014   0.1859992   3.4309978 107.6250014
   1.5649992   3.7069978 107.0650014   1.0456374   3.3169949 107.6430957
  15.8809992  18.2069978 109.7000014  16.5339992  17.8589978 109.0920014
  16.3919992  18.6949978 110.3460014  16.0392777  18.2253815 109.7042047
   1.0739992   1.9609978 116.0990014   0.4089992   1.7149978 116.7420014
   0.6309992   2.5829978 115.5210014   0.9230937   2.0113614 116.1089379
   3.2659992  15.1359978 120.2430014   2.4449992  15.3109978 119.7830014
   3.0139992  15.0629978 121.1640014   3.1196173  15.1500794 120.3044972
   6.2199992  16.1099978 116.5020014   5.7959992  16.9199978 116.2190014
   7.1249992  16.1959978 116.2000014   6.2842433  16.2323331 116.4225377
  10.5319992  17.5089978 119.4610014  10.7159992  17.1759978 120.3390014
  11.3779992  17.8189978 119.1390014  10.6716484  17.5052979 119.5377617
  12.8769992  18.7949978 118.7050014  13.5539992  18.1619978 118.4650014
  13.1979992  19.1959978 119.5120014  13.0131323  18.7625691 118.7813158
  17.7939992   1.3849978 117.7850014  16.9809992   1.7099978 117.3970014
  18.0269992   0.6239978 117.2520014  17.7142566   1.3266559 117.6599213
   3.6219992  19.3669978 116.5490014   2.9019992  19.8069978 116.0980014
   3.2569992  19.1159978 117.3980014   3.4739796  19.3933824 116.6019329
   6.0889992  18.9669978 115.5790014   5.2249992  19.0389978 115.9830014
   6.0339992  19.5139978 114.7950014   5.9631942  19.0507849 115.5284000
  10.7999992  18.8549978 114.7540014  10.3429992  19.3839978 114.1000014
  10.9629992  19.4579978 115.4800014  10.7594476  19.0089140 114.7625499
  13.1279992  17.7329978 115.6990014  12.2229992  17.8979978 115.4340014
  13.5559992  18.5859978 115.6340014  13.0620700  17.8709529 115.6539520
  15.7319992  19.3029978 115.9940014  15.5499992  20.2189978 115.7840014
  15.9089992  18.8919978 115.1480014  15.7309907  19.3729741 115.8507883
   3.0369992  17.9899978 113.4590014   3.0189992  17.5639978 114.3170014
   3.8419992  17.6709978 113.0510014   3.1433221  17.8887233 113.5210225
   5.1779992  16.6999978 112.1140014   4.9589992  15.7829978 112.2840014
   6.0019992  16.8399978 112.5800014   5.2594702  16.5935511 112.2002527
   7.7149992  17.1699978 112.9630014   7.9279992  16.2819978 112.6760014
   7.7799992  17.1349978 113.9180014   7.7529075  17.0438307 113.0527373
  11.2239992   2.8339978 112.1070014  10.5499992   2.2039978 112.3630014
  11.7879992   2.3499978 111.5040014  11.2080384   2.6823708 112.0605020
  16.3669992   0.9409978 112.2200014  16.9699992   1.4889978 111.7180014
  15.4969992   1.2599978 111.9800014  16.3319190   1.0591041 112.1188679
  18.0939992   2.0799978 110.5530014  18.7049992   1.5659978 110.0270014
  18.4759992   2.9569978 110.5770014  18.2294475   2.1281323 110.4841208
   3.5509992   1.4679978 109.9290014   2.7739992   1.2329978 109.4220014
   4.0809992   0.6709978 109.9380014   3.5163451   1.3281268 109.8608627
   2.3869992   1.2659978 105.7330014   2.8259992   1.8769978 105.1410014
   1.7529992   1.8039978 106.2070014   2.3613859   1.4224064 105.7160305
   8.1299992   1.3939978 109.7430014   9.0039992   1.7829978 109.7130014
   7.9939992   1.1789978 110.6650014   8.2313207   1.4181923 109.8636509
  13.6869992   1.4239978 111.3920014  13.7629992   1.5199978 110.4430014
  13.4119992   0.5169978 111.5210014  13.6602042   1.3144241 111.2793811
  15.0399992   1.4499978 107.0840014  14.3369992   2.0649978 106.8750014
  14.5949992   0.6129978 107.2160014  14.8836292   1.4210085 107.0732439
   2.2879992  17.2139978 106.6310014   1.6029992  17.1759978 105.9630014
   2.2919992  18.1269978 106.9190014   2.1948174  17.3321998 106.5785310
   9.2739992   3.4749978 106.6330014   9.4519992   2.8279978 107.3150014
   9.2199992   4.3089978 107.1000014   9.2911025   3.4990504 106.7896433
  17.8609992  17.9859978 107.7070014  17.6669992  17.2379978 107.1420014
  17.8219992  18.7439978 107.1240014  17.8291645  17.9860786 107.5508148
   3.5079992   1.9819978 119.4470014   3.1419992   1.2159978 119.8900014
   4.4209992   2.0109978 119.7340014   3.5813225   1.8811906 119.5463459
   5.4809992   1.3319978 120.9830014   6.3799992   1.0579978 120.7980014
   5.0949992   0.5899978 121.4470014   5.5517237   1.1941508 121.0204710
   4.1059992  18.1339978 103.6560014   3.8379992  18.4199978 104.5290014
   4.8769992  17.5879978 103.8080014   4.1735600  18.0993330 103.7961499
  13.9029992   0.6649978 121.1650014  13.9789992   0.2389978 122.0190014
  14.7959992   0.6779978 120.8220014  14.0342267   0.6083952 121.2355932
  17.0789992  16.7379978 119.8570014  16.2969992  16.5509978 119.3380014
  17.0069992  17.6669978 120.0750014  16.9620863  16.8380221 119.8153574
  31.4849992  10.6239978 109.8880014  31.5739992  11.5679978 109.7560014
  30.8469992  10.3489978 109.2300014  31.4109062  10.7159812 109.7809641
  30.4179992   9.8789978 113.3070014  30.3799992   9.2329978 114.0120014
  30.0959992   9.4119978 112.5360014  30.3692679   9.7274276 113.2992921
  22.7859992   9.4929978 114.9000014  22.8279992   8.8679978 115.6230014
  23.4889992  10.1169978 115.0820014  22.8867345   9.4917873 115.0235274
  34.1239992  12.8179978 111.6090014  33.6829992  12.0979978 112.0590014
  34.1109992  13.5389978 112.2380014  34.0617960  12.8168329 111.7557567
  23.7099992  13.9429978 113.4350014  23.3399992  13.1409978 113.0650014
  24.6509992  13.7749978 113.4810014  23.7865984  13.8104638 113.3905603
  20.3199992   7.6029978 108.8280014  19.8719992   8.4489978 108.8090014
  19.7589992   7.0239978 108.3120014  20.1829603   7.6403674 108.7556720
  21.0299992   9.7649978 110.9540014  21.2439992   8.9949978 111.4810014
  21.7679992   9.8549978 110.3500014  21.1589652   9.6718012 110.9445212
  31.2359992  17.9219978 111.8210014  31.8549992  17.2459978 111.5470014
  31.0269992  17.7039978 112.7290014  31.2926232  17.7997938 111.9062517
  28.8069992  12.3109978 113.7130014  29.1109992  11.6249978 113.1190014
  29.5289992  12.4299978 114.3310014  28.9461152  12.2332189 113.7152123
  37.4699992   3.9129978 114.5740014  37.5199992   4.5229978 115.3100014
  37.8959992   4.3739978 113.8510014  37.5344108   4.0587709 114.5770112
  31.9479992   6.7049978 114.0410014  32.0909992   5.7589978 114.0610014
  31.8419992   6.9119978 113.1120014  31.9532509   6.6034813 113.9182231
  25.1029992   4.8069978 111.3130014  25.1459992   5.6669978 110.8950014
  24.6449992   4.2549978 110.6790014  25.0469815   4.8500621 111.1701197
  32.8249992   4.9379978 109.7140014  33.4719992   4.6089978 110.3390014
  33.3349992   5.4549978 109.0910014  32.9824317   4.9629227 109.7152167
  21.7229992   7.2039978 112.0750014  22.3769992   6.6539978 112.5070014
  21.7469992   6.9299978 111.1580014  21.8157199   7.0917167 112.0101668
  26.8799992   8.7539978 111.2900014  27.4959992   8.2269978 111.8000014
  26.2929992   8.1139978 110.8870014  26.8849239   8.5954117 111.3052952
  37.8619992   5.3909978 116.8100014  37.1729992   6.0489978 116.7140014
  37.8769992   5.1929978 117.7460014  37.7696740   5.4543242 116.9234630
  23.9129992   3.7249978 115.3870014  23.6939992   4.2549978 114.6210014
  23.2449992   3.9509978 116.0340014  23.7927001   3.8281154 115.3696064
  31.2819992  13.2249978 108.9310014  30.9869992  12.9019978 108.0800014
  30.9579992  14.1249978 108.9720014  31.1977983  13.3024026 108.8199771
  26.4819992  11.3999978 115.6750014  25.7419992  11.9989978 115.7780014
  27.1959992  11.9539978 115.3590014  26.4773288  11.5567356 115.6463805
  34.5889992   4.2289978 111.6940014  34.3739992   3.4629978 112.2270014
  35.2449992   4.7009978 112.2070014  34.6482673   4.1880728 111.8361990
  23.5069992   5.6169978 113.3390014  24.1209992   6.2499978 113.7130014
  24.0189992   5.1449978 112.6830014  23.6602277   5.6397352 113.3014279
  24.8899992  13.3649978 116.4620014  24.8839992  14.2439978 116.0840014
  24.0359992  13.2809978 116.8870014  24.7737925  13.4739535 116.4676887
  21.0109992  13.0359978 107.2440014  20.7389992  13.2649978 106.3550014
  21.0559992  13.8729978 107.7040014  20.9798709  13.1806058 107.1846107
  34.6359992  14.6569978 113.9560014  33.6939992  14.7159978 114.1180014
  34.9119992  15.5629978 113.8190014  34.5445865  14.7875288 113.9596192
  34.9359992   2.9439978 115.3740014  34.1999992   3.5539978 115.3360014
  35.6199992   3.3589978 114.8470014  34.9275506   3.0836400 115.2976051
  27.9399992   1.0299978 112.8400014  27.8219992   0.0819978 112.7850014
  27.0849992   1.3629978 113.1130014  27.8082679   0.9451926 112.8693720
  32.8879992  16.4379978 110.5820014  33.3129992  15.7309978 110.0970014
  33.2049992  17.2399978 110.1650014  32.9890266  16.4495190 110.4592479
  34.0479992  14.3389978 109.0900014  33.7899992  13.6489978 108.4790014
  34.1189992  13.8959978 109.9360014  34.0222837  14.1847106 109.1206912
  35.7339992  12.9059978 117.5680014  35.8729992  12.3139978 116.8280014
  35.9009992  13.7789978 117.2110014  35.7755562  12.9429896 117.4186283
  30.2059992   9.8679978 107.3400014  29.4949992  10.4029978 106.9880014
  30.8969992   9.9229978 106.6800014  30.2020751   9.9486777 107.2025858
  37.5749992   9.2459978 115.6340014  36.9229992   9.9399978 115.7230014
  38.0409992   9.4559978 114.8240014  37.5485937   9.3695019 115.5367533
  33.6119992  10.0769978 108.2920014  32.8799992  10.3059978 108.8650014
  34.0589992   9.3639978 108.7470014  33.5722753  10.0118972 108.4319715
  33.5089992   8.2519978 117.3600014  33.5889992   9.0149978 117.9310014
  32.9079992   8.5309978 116.6690014  33.4387245   8.3942630 117.3448424
  25.2569992  10.7079978 110.1740014  24.9269992  10.3369978 109.3560014
  25.8459992  10.0369978 110.5210014  25.2913970  10.5666063 110.1089404
  26.6239992  14.1359978 112.8560014  26.5289992  13.5569978 112.0990014
  27.3529992  13.7649978 113.3520014  26.7096161  14.0065891 112.8195209
  25.6239992   9.4759978 113.8080014  26.1889992   9.5979978 113.0450014
  25.9429992  10.1139978 114.4470014  25.7443977   9.5788851 113.7899424
  31.9329992  14.9799978 114.5420014  31.6929992  15.6419978 115.1900014
  31.7349992  14.1449978 114.9670014  31.8733826  14.9578115 114.6881566
  26.5039992  13.8759978 118.5250014  26.1929992  14.6579978 118.9800014
  25.8539992  13.7229978 117.8390014  26.3735538  13.9624087 118.4945898
  23.4239992  10.0739978 117.7540014  23.4939992  10.7249978 118.4520014
  22.5329992  10.1769978 117.4190014  23.3131802  10.1769757 117.8042249
  30.2089992  15.9759978 109.4120014  30.6829992  16.2719978 110.1900014
  29.6459992  16.7149978 109.1790014  30.1977361  16.1162721 109.4868611
  24.7429992  15.9469978 119.2880014  24.7509992  15.8109978 118.3410014
  23.8269992  15.8299978 119.5400014  24.6202528  15.9125463 119.1923243
  24.2479992   9.7769978 107.7640014  23.9559992  10.5449978 107.2730014
  23.5729992   9.1179978 107.6010014  24.1168497   9.7929745 107.6748260
  20.3409992  12.1399978 116.5790014  19.8389992  12.1119978 115.7640014
  20.3459992  11.2349978 116.8880014  20.2730416  12.0137368 116.5093766
  20.0909992  14.9209978 113.4630014  21.0369992  14.7759978 113.4440014
  19.9779992  15.7049978 114.0000014  20.2053578  15.0071697 113.5330317
  38.2889992  15.5869978 119.1450014  38.2389992  14.6309978 119.1080014
  37.4619992  15.8539978 119.5460014  38.1703987  15.4925174 119.1941446
  29.2669992  15.1609978 118.0210014  29.3549992  15.9869978 118.4960014
  28.4039992  14.8309978 118.2700014  29.1623357  15.2295468 118.1197653
  29.6819992  18.9329978 107.8270014  29.6059992  18.8119978 106.8810014
  29.7139992  19.8819978 107.9460014  29.6759156  19.0447530 107.7135048
  23.3349992  17.7219978 109.6080014  23.4869992  17.3739978 110.4870014
  22.4839992  17.3649978 109.3530014  23.2407899  17.6261738 109.6937340
  32.7829992  18.0869978 104.8290014  33.1579992  17.3429978 104.3590014
  32.7879992  17.8169978 105.7480014  32.8350024  17.9486950 104.8887987
  32.4519992  18.0129978 107.5790014  31.5169992  18.1129978 107.7570014
  32.7319992  17.3029978 108.1570014  32.3618173  17.9307239 107.6814998
  35.4409992   7.0799978 119.6250014  35.0329992   7.5599978 118.9050014
  35.4809992   6.1739978 119.3170014  35.3905476   7.0233160 119.4848247
  22.5899992  13.4639978 117.6220014  22.8059992  13.1019978 118.4810014
  21.7339992  13.0889978 117.4120014  22.5039354  13.3637906 117.7112160
  25.2079992   1.9339978 113.6170014  24.3469992   1.8469978 113.2100014
  25.1859992   2.7899978 114.0450014  25.0870411   2.0377884 113.6190857
  29.8709992   1.6559978 116.9920014  30.2909992   1.2409978 117.7450014
  28.9379992   1.4769978 117.1090014  29.8023736   1.5749910 117.1108968
  33.1979992   5.4109978 117.8450014  32.6839992   5.2859978 118.6430014
  33.0419992   6.3239978 117.6010014  33.1066967   5.5172123 117.9210937
  25.2989992   6.8989978 114.7120014  24.6579992   6.8589978 115.4210014
  25.3369992   7.8259978 114.4750014  25.2163670   7.0187795 114.7770550
  25.2959992   7.1199978 109.6240014  24.4039992   6.7799978 109.5660014
  25.7469992   6.7429978 108.8690014  25.2346815   7.0223762 109.5139203
  30.8319992   7.5359978 108.4410014  30.4229992   8.3509978 108.1500014
  31.5519992   7.3959978 107.8270014  30.8734013   7.6286571 108.3180875
  29.9339992   7.7119978 119.9290014  29.3709992   7.0069978 120.2500014
  30.7599992   7.5909978 120.3970014  29.9686674   7.5992165 120.0361751
  31.8369992   6.9819978 111.2550014  31.6409992   7.5879978 110.5400014
  32.0179992   6.1489978 110.8210014  31.8346584   6.9522513 111.0984212
  23.0489992   7.2199978 116.5790014  23.0109992   7.6199978 117.4480014
  22.5589992   6.4029978 116.6700014  22.9775621   7.1642510 116.7101377
  19.6579992   4.3359978 110.4300014  20.2879992   4.3069978 111.1490014
  20.1069992   3.9109978 109.7000014  19.8050692   4.2745316 110.4297771
  20.9319992   5.0819978 105.8540014  21.4059992   5.6729978 105.2690014
  20.2139992   5.6119978 106.2010014  20.8998640   5.2345511 105.8207969
  31.1009992   8.6199978 115.9270014  31.4239992   7.9889978 115.2840014
  30.6599992   8.0859978 116.5870014  31.0855789   8.4613522 115.9282232
  27.8779992   4.5479978 110.7110014  26.9669992   4.6049978 110.9990014
  28.3829992   4.4879978 111.5210014  27.8215387   4.5476870 110.8600646
  22.7059992   6.1769978 109.5370014  21.8169992   6.2759978 109.1970014
  23.0029992   5.3349978 109.1910014  22.6244177   6.0767687 109.4436940
  26.3589992   6.1769978 107.1940014  27.2909992   6.3059978 107.3720014
  26.1439992   6.8459978 106.5440014  26.4574472   6.2850806 107.1304891
  32.2829992   3.7829978 113.9750014  31.6059992   3.9139978 114.6390014
  31.7979992   3.6279978 113.1650014  32.1247265   3.7799659 113.9563397
  25.0329992   7.3709978 104.7610014  24.4909992   6.9919978 104.0690014
  25.8669992   7.5659978 104.3320014  25.0715159   7.3455076 104.6084419
  35.5709992  19.4539978 120.2520014  35.7699992  19.8779978 119.4170014
  36.2259992  19.7979978 120.8590014  35.6868501  19.5586091 120.2197097
  23.1689992  11.9279978 119.8600014  23.9009992  12.1829978 120.4210014
  22.3879992  12.1329978 120.3750014  23.1637684  11.9906468 120.0064782
  29.1979992   7.3349978 112.5980014  29.7619992   6.7889978 112.0510014
  29.0499992   6.8139978 113.3860014  29.2552575   7.1896552 112.6296987
  24.1999992   3.4719978 109.0160014  23.8829992   2.5689978 108.9810014
  24.9809992   3.4739978 108.4630014  24.2622307   3.3486951 108.9364314
  27.8239992   5.7239978 115.0120014  26.9889992   6.1779978 115.1220014
  28.3479992   5.9999978 115.7640014  27.7805070   5.8234666 115.1287152
  28.3689992  11.9369978 106.6960014  27.6239992  11.4289978 106.3740014
  28.2339992  11.9859978 107.6430014  28.2489047  11.8741596 106.7798845
  35.5189992  11.0699978 115.4830014  36.1599992  11.5259978 114.9390014
  34.6879992  11.1829978 115.0210014  35.4945171  11.1477502 115.3460237
  32.2659992   4.7509978 104.8960014  31.3279992   4.8619978 104.7440014
  32.5639992   5.6069978 105.2020014  32.1776402   4.8820621 104.9165571
  29.8879992  12.1209978 117.9330014  29.5419992  11.7389978 118.7400014
  29.6879992  13.0539978 118.0050014  29.8136523  12.1949095 118.0530735
  23.4929992  11.2319978 112.4660014  24.2379992  11.2289978 111.8650014
  23.5709992  10.4079978 112.9480014  23.6054158  11.1202916 112.4489153
  30.4939992  13.3949978 105.7220014  30.1989992  14.2219978 106.1030014
  29.7909992  12.7759978 105.9180014  30.3585471  13.4245227 105.8006698
  20.5009992   9.6919978 117.7810014  20.7239992   9.2739978 118.6130014
  19.8989992   9.0799978 117.3580014  20.4501260   9.5519933 117.8377320
  27.5179992   9.2089978 119.9940014  27.2219992   9.0439978 119.0990014
  28.4489992   8.9889978 119.9830014  27.6033982   9.1566578 119.8700045
  32.1379992  14.5829978 117.8840014  31.2379992  14.7659978 117.6160014
  32.1719992  14.8419978 118.8050014  32.0192909  14.6430815 117.9717852
  37.8699992   6.8269978 106.2510014  37.3149992   6.4309978 105.5790014
  37.9699992   7.7379978 105.9730014  37.8075888   6.8958990 106.1215206
  37.8329992  12.6279978 119.0880014  36.9819992  12.8659978 118.7210014
  38.4229992  12.6109978 118.3350014  37.7962408  12.6582966 118.9358879
  36.1649992  15.6129978 106.7160014  35.7919992  14.7879978 107.0250014
  36.4419992  15.4299978 105.8190014  36.1513871  15.4752441 106.6369677
  33.3249992  10.4209978 113.7370014  32.3969992  10.1899978 113.7100014
  33.7759992   9.6439978 113.4070014  33.2588165  10.2842774 113.6886790
  25.8679992  14.7499978 109.8700014  26.3959992  15.5229978 109.6700014
  24.9879992  14.9739978 109.5690014  25.8213176  14.8863161 109.8018409
  21.6229992   9.6119978 104.4580014  22.2389992  10.2389978 104.8370014
  20.7609992   9.9279978 104.7290014  21.5908195   9.7405798 104.5465386
  27.2959992  12.4129978 109.4470014  27.0549992  13.3379978 109.4880014
  26.5549992  11.9539978 109.8430014  27.1628390  12.4776403 109.5061404
  27.8099992  16.5619978 115.7620014  28.1729992  17.4159978 115.5280014
  28.3419992  16.2699978 116.5020014  27.9316090  16.6394058 115.8300219
  25.9789992  17.4339978 108.9920014  25.0289992  17.5399978 109.0430014
  26.3309992  18.2549978 109.3370014  25.8965480  17.5594438 109.0455999
  31.3539992  12.6609978 115.4620014  30.9289992  12.4329978 116.2890014
  31.9349992  11.9219978 115.2800014  31.3743930  12.5299843 115.5504732
  33.5569992  13.5899978 104.5360014  33.9109992  13.2099978 105.3410014
  32.6089992  13.4959978 104.6230014  33.4771820  13.5253092 104.6578714
  34.0129992  17.2129978 117.9320014  33.4109992  16.6569978 117.4360014
  34.2939992  17.8799978 117.3060014  33.9686829  17.2271613 117.7795443
  22.1349992   4.4459978 117.3390014  21.2429992   4.7839978 117.2720014
  22.0369992   3.5899978 117.7570014  21.9994965   4.3766499 117.3863044
  34.4229992  12.2619978 106.7630014  34.1459992  11.5339978 107.3190014
  35.3509992  12.3809978 106.9680014  34.5104499  12.1784213 106.8668044
  21.7869992  16.2499978 115.7740014  22.0039992  15.3179978 115.7430014
  22.0329992  16.5249978 116.6570014  21.8499809  16.1595686 115.8891690
  26.5849992  14.2719978 105.4400014  26.7319992  13.7519978 106.2300014
  26.5819992  15.1789978 105.7460014  26.6047300  14.3233964 105.5895895
  23.0379992  11.5239978 105.9500014  22.3519992  11.8769978 106.5170014
  23.5609992  12.2869978 105.7040014  23.0149033  11.6753746 105.9942661
  30.8699992   4.1869978 116.2290014  31.5689992   4.2609978 116.8790014
  30.4889992   3.3219978 116.3830014  30.9142097   4.0802389 116.3387997
  31.6539992   3.8389978 107.3260014  31.8739992   4.3099978 106.5230014
  32.2129992   4.2329978 107.9960014  31.7596730   3.9567432 107.3065906
  29.3229992  15.9689978 106.1890014  28.5059992  16.4659978 106.2410014
  29.8519992  16.4449978 105.5490014  29.2828508  16.1012543 106.1096035
  28.8539992   5.5669978 108.1610014  29.6659992   6.0709978 108.2070014
  28.6099992   5.4219978 109.0750014  28.9321467   5.6163749 108.2908575
  29.3899992   6.5529978 117.3460014  29.5089992   7.1269978 118.1030014
  30.0449992   5.8649978 117.4600014  29.4949146   6.5385574 117.4651314
  29.7379992   2.6479978 109.0990014  29.3909992   3.2649978 109.7440014
  30.3969992   3.1489978 108.6180014  29.7795949   2.8001099 109.1222271
  26.6609992  17.0129978 106.1710014  26.8219992  17.8129978 105.6700014
  26.4639992  17.3199978 107.0560014  26.6563919  17.1639129 106.2221006
  35.5939992   4.4599978 118.1810014  34.6779992   4.7219978 118.0930014
  35.9299992   4.4569978 117.2840014  35.5139789   4.4954626 118.0477847
  34.1969992   8.2099978 112.2760014  33.3989992   7.7949978 111.9480014
  34.6419992   7.5199978 112.7670014  34.1479684   8.0598628 112.2975227
  21.9699992   6.8029978 103.9630014  21.9249992   7.7419978 104.1410014
  21.0819992   6.5669978 103.6930014  21.8438555   6.8996874 103.9508939
  35.2829992  17.4659978 113.8990014  35.1269992  18.1449978 113.2420014
  36.2159992  17.5379978 114.1020014  35.3877387  17.5686390 113.8365342
  22.7779992   1.5839978 112.6360014  22.5489992   1.6429978 111.7080014
  22.3359992   0.7929978 112.9420014  22.6868801   1.4850540 112.5504729
  21.7089992  15.5249978 108.7960014  20.8759992  15.9969978 108.8240014
  22.2539992  16.0349978 108.1980014  21.6687590  15.6585897 108.7189194
  20.9969992  18.1369978 120.1260014  21.5369992  17.9209978 120.8860014
  20.5159992  17.3319978 119.9370014  21.0058613  17.9985400 120.2044782
  25.5939992  17.0569978 121.7470014  26.3619992  16.5979978 122.0880014
  25.5729992  16.8309978 120.8170014  25.6962135  16.9636668 121.6679491
  32.1709992  15.4369978 120.4760014  31.8199992  14.5799978 120.7190014
  32.8969992  15.5789978 121.0830014  32.2211590  15.3390178 120.5912907
  20.9039992  11.9479978 121.0810014  21.0479992  11.0459978 120.7940014
  20.1319992  12.2339978 120.5930014  20.8193303  11.8633243 120.9757908
  27.5589992  11.9169978 120.5130014  27.2309992  12.1879978 119.6560014
  27.7109992  10.9759978 120.4260014  27.5346030  11.8268973 120.3837945
  33.2939992  11.8329978 117.8970014  34.0389992  12.4219978 117.7770014
  32.5369992  12.4149978 117.9600014  33.2935205  11.9921997 117.8891119
  21.7369992   9.1479978 120.5010014  22.1449992   8.2909978 120.3800014
  21.4759992   9.1619978 121.4220014  21.7576016   9.0325119 120.6089192
  26.3949992  10.2639978 105.5190014  25.9349992   9.7799978 106.2050014
  26.6499992   9.5949978 104.8830014  26.3665038  10.1073689 105.5269447
  25.6839992   8.1569978 117.8750014  25.0649992   8.8309978 118.1550014
  26.0279992   8.4779978 117.0420014  25.6457605   8.2927198 117.8006707
  27.4659992   8.5069978 103.7810014  27.2849992   8.3519978 102.8540014
  28.4159992   8.6149978 103.8260014  27.5696566   8.5003669 103.6600929
  30.7029992  10.6279978 121.1520014  31.6569992  10.7119978 121.1250014
  30.5429992   9.9159978 121.7720014  30.8117182  10.5432842 121.2320733
  26.0229992   5.5119978 118.9570014  26.1729992   4.7829978 118.3550014
  26.0249992   6.2889978 118.3980014  26.0437967   5.5172708 118.7990541
  26.4359992   3.8809978 116.4500014  26.9709992   4.3329978 115.7980014
  25.5829992   3.7729978 116.0270014  26.3940374   3.9282665 116.3036710
  28.0169992   9.3209978 116.6890014  28.7679992   9.1649978 116.1160014
  27.6779992  10.1729978 116.4140014  28.0739587   9.4148138 116.5734078
  32.4329992   7.1359978 121.7180014  32.6249992   6.2049978 121.6060014
  33.2909992   7.5609978 121.7080014  32.5752269   7.0659928 121.7013192
  33.7499992   9.9249978 119.7950014  33.4679992  10.6339978 119.2180014
  34.6919992   9.8519978 119.6440014  33.8387656  10.0123128 119.6954809
  24.5019992   6.7099978 120.8690014  23.7339992   6.1769978 120.6590014
  25.1799992   6.3999978 120.2690014  24.4886973   6.5952375 120.7591796
  27.2409992   1.3379978 116.8810014  27.1429992   2.2839978 116.7760014
  26.4989992   0.9649978 116.4060014  27.1271913   1.4171813 116.8023539
  28.5049992   5.6589978 120.4450014  28.2699992   5.4399978 121.3470014
  27.7219992   5.4519978 119.9350014  28.3669219   5.6010066 120.4995852
  31.2209992   4.7869978 119.5210014  30.2729992   4.8189978 119.6530014
  31.5329992   4.1609978 120.1740014  31.1335190   4.7067262 119.6273563
  32.8549992   3.4209978 121.5260014  32.7579992   2.4689978 121.5200014
  32.5329992   3.6889978 122.3860014  32.7981761   3.3269744 121.6414936
  22.6819992   4.6299978 120.5730014  22.8939992   3.9239978 119.9630014
  22.5709992   4.1929978 121.4170014  22.6960269   4.4741921 120.6035873
  27.4629992   0.6319978 119.5530014  28.1749992  -0.0080022 119.5390014
  27.3619992   0.8979978 118.6390014  27.5467261   0.5804190 119.4275537
  27.8169992   2.3139978 121.6060014  27.6849992   1.8389978 120.7860014
  27.2169992   3.0589978 121.5510014  27.7179070   2.3495789 121.4863251
  27.3629992  19.1969978 104.7830014  28.2959992  19.3549978 104.9260014
  27.0989992  19.8729978 104.1580014  27.4549308  19.3099104 104.7181396
  20.9309992  13.8339978 104.2650014  21.8449992  13.9129978 104.5390014
  20.9389992  13.1469978 103.5990014  21.0571143  13.7519085 104.2124274
  19.5799992  19.2269978 109.3430014  18.9329992  18.7649978 108.8100014
  19.9349992  18.5549978 109.9250014  19.5394506  19.0729503 109.3487341
  20.4499992  17.3069978 111.1470014  20.1159992  16.4269978 111.3190014
  20.6729992  17.6529978 112.0120014  20.4343721  17.2331938 111.2874168
  37.9989992  18.1169978 114.1280014  37.9769992  18.3019978 115.0670014
  38.6889992  18.6849978 113.7870014  38.0893439  18.2191887 114.2104791
  37.5619992  17.6839978 117.0500014  37.0749992  16.9489978 116.6790014
  38.1109992  17.2899978 117.7280014  37.5695247  17.5301057 117.0908461
  36.0129992  13.4739978 121.6880014  35.1469992  13.3689978 122.0820014
  36.3889992  14.2319978 122.1340014  35.9453401  13.5621708 121.8022620
  37.3139992  11.7299978 107.2020014  38.1639992  12.1509978 107.3290014
  37.3189992  10.9899978 107.8090014  37.4311143  11.6876094 107.3014750
  37.7079992   9.7839978 109.0260014  36.9819992   9.3039978 109.4230014
  38.2899992   9.9889978 109.7580014  37.6871635   9.7459166 109.1793748
  37.4669992  12.5689978 113.9730014  38.3009992  12.1909978 113.6930014
  37.5789992  13.5119978 113.8540014  37.5962522  12.6447742 113.9186020
  35.9539992  15.4469978 116.2800014  35.3059992  15.7719978 116.9060014
  35.4359992  15.0059978 115.6060014  35.7954168  15.4318523 116.2745307
  37.9769992   9.6849978 105.4170014  37.4549992  10.0409978 104.6980014
  37.9439992  10.3599978 106.0950014  37.9010699   9.8249848 105.4102129
  35.4949992   8.3049978 109.5890014  35.3449992   7.3599978 109.5680014
  35.1409992   8.5859978 110.4320014  35.4265527   8.2135605 109.7001859
  20.5299992  10.3829978 113.5990014  20.7149992  10.3009978 112.6630014
  21.3799992  10.2589978 114.0230014  20.6700916  10.3550393 113.5282896
  36.3509992  10.2749978 119.2270014  36.9339992   9.5399978 119.4190014
  36.9149992  11.0469978 119.2740014  36.5069781  10.2788145 119.2596164
  37.8479992   8.1779978 119.9120014  36.9849992   7.7989978 119.7460014
  38.4519992   7.4389978 119.8380014  37.8115944   8.0262978 119.8792984
  35.2059992   5.8869978 108.0510014  35.4849992   4.9799978 108.1750014
  35.9649992   6.3209978 107.6620014  35.3468619   5.8214502 108.0153795
  35.8169992   6.4689978 113.4870014  36.7499992   6.6809978 113.4530014
  35.5819992   6.5699978 114.4090014  35.9128308   6.5116503 113.6070214
  35.8469992   7.2059978 116.2630014  35.0039992   7.4739978 116.6290014
  36.2889992   8.0279978 116.0520014  35.7914138   7.3538273 116.2845518
  20.1279992   5.6529978 119.7400014  21.0469992   5.5309978 119.9760014
  19.6779992   4.9029978 120.1290014  20.1931148   5.5348751 119.8249408
  38.1299992   1.1859978 121.6160014  38.4789992   0.5319978 121.0110014
  38.2769992   2.0229978 121.1770014  38.1977355   1.2096067 121.4736564
  35.8189992   3.1499978 108.0990014  36.0009992   2.7009978 108.9250014
  35.2189992   2.5659978 107.6360014  35.7627529   3.0096131 108.1493619
  21.3489992   3.9659978 112.6310014  21.7939992   3.1739978 112.9330014
  21.8149992   4.6819978 113.0620014  21.4729059   3.9544474 112.7306079
  19.6529992   6.9649978 113.7000014  20.1449992   6.7439978 112.9090014
  20.0149992   7.8049978 113.9810014  19.7692923   7.0483468 113.6297407
  37.6489992   3.2949978 119.9660014  36.7319992   3.5659978 119.9300014
  37.7719992   2.7599978 119.1820014  37.5400828   3.2597700 119.8550785
  19.9669992   3.2229978 107.7540014  19.0419992   3.4309978 107.6250014
  20.4209992   3.7069978 107.0650014  19.9016374   3.3169949 107.6430957
  34.7369992  18.2069978 109.7000014  35.3899992  17.8589978 109.0920014
  35.2479992  18.6949978 110.3460014  34.8952777  18.2253815 109.7042047
  19.9299992   1.9609978 116.0990014  19.2649992   1.7149978 116.7420014
  19.4869992   2.5829978 115.5210014  19.7790937   2.0113614 116.1089379
  22.1219992  15.1359978 120.2430014  21.3009992  15.3109978 119.7830014
  21.8699992  15.0629978 121.1640014  21.9756173  15.1500794 120.3044972
  25.0759992  16.1099978 116.5020014  24.6519992  16.9199978 116.2190014
  25.9809992  16.1959978 116.2000014  25.1402433  16.2323331 116.4225377
  29.3879992  17.5089978 119.4610014  29.5719992  17.1759978 120.3390014
  30.2339992  17.8189978 119.1390014  29.5276484  17.5052979 119.5377617
  31.7329992  18.7949978 118.7050014  32.4099992  18.1619978 118.4650014
  32.0539992  19.1959978 119.5120014  31.8691323  18.7625691 118.7813158
  36.6499992   1.3849978 117.7850014  35.8369992   1.7099978 117.3970014
  36.8829992   0.6239978 117.2520014  36.5702566   1.3266559 117.6599213
  22.4779992  19.3669978 116.5490014  21.7579992  19.8069978 116.0980014
  22.1129992  19.1159978 117.3980014  22.3299796  19.3933824 116.6019329
  24.9449992  18.9669978 115.5790014  24.0809992  19.0389978 115.9830014
  24.8899992  19.5139978 114.7950014  24.8191942  19.0507849 115.5284000
  29.6559992  18.8549978 114.7540014  29.1989992  19.3839978 114.1000014
  29.8189992  19.4579978 115.4800014  29.6154476  19.0089140 114.7625499
  31.9839992  17.7329978 115.6990014  31.0789992  17.8979978 115.4340014
  32.4119992  18.5859978 115.6340014  31.9180700  17.8709529 115.6539520
  34.5879992  19.3029978 115.9940014  34.4059992  20.2189978 115.7840014
  34.7649992  18.8919978 115.1480014  34.5869907  19.3729741 115.8507883
  21.8929992  17.9899978 113.4590014  21.8749992  17.5639978 114.3170014
  22.6979992  17.6709978 113.0510014  21.9993221  17.8887233 113.5210225
  24.0339992  16.6999978 112.1140014  23.8149992  15.7829978 112.2840014
  24.8579992  16.8399978 112.5800014  24.1154702  16.5935511 112.2002527
  26.5709992  17.1699978 112.9630014  26.7839992  16.2819978 112.6760014
  26.6359992  17.1349978 113.9180014  26.6089075  17.0438307 113.0527373
  30.0799992   2.8339978 112.1070014  29.4059992   2.2039978 112.3630014
  30.6439992   2.3499978 111.5040014  30.0640384   2.6823708 112.0605020
  35.2229992   0.9409978 112.2200014  35.8259992   1.4889978 111.7180014
  34.3529992   1.2599978 111.9800014  35.1879190   1.0591041 112.1188679
  36.9499992   2.0799978 110.5530014  37.5609992   1.5659978 110.0270014
  37.3319992   2.9569978 110.5770014  37.0854475   2.1281323 110.4841208
  22.4069992   1.4679978 109.9290014  21.6299992   1.2329978 109.4220014
  22.9369992   0.6709978 109.9380014  22.3723451   1.3281268 109.8608627
  21.2429992   1.2659978 105.7330014  21.6819992   1.8769978 105.1410014
  20.6089992   1.8039978 106.2070014  21.2173859   1.4224064 105.7160305
  26.9859992   1.3939978 109.7430014  27.8599992   1.7829978 109.7130014
  26.8499992   1.1789978 110.6650014  27.0873207   1.4181923 109.8636509
  32.5429992   1.4239978 111.3920014  32.6189992   1.5199978 110.4430014
  32.2679992   0.5169978 111.5210014  32.5162042   1.3144241 111.2793811
  33.8959992   1.4499978 107.0840014  33.1929992   2.0649978 106.8750014
  33.4509992   0.6129978 107.2160014  33.7396292   1.4210085 107.0732439
  21.1439992  17.2139978 106.6310014  20.4589992  17.1759978 105.9630014
  21.1479992  18.1269978 106.9190014  21.0508174  17.3321998 106.5785310
  36.7169992  17.9859978 107.7070014  36.5229992  17.2379978 107.1420014
  36.6779992  18.7439978 107.1240014  36.6851645  17.9860786 107.5508148
  22.3639992   1.9819978 119.4470014  21.9979992   1.2159978 119.8900014
  23.2769992   2.0109978 119.7340014  22.4373225   1.8811906 119.5463459
  24.3369992   1.3319978 120.9830014  25.2359992   1.0579978 120.7980014
  23.9509992   0.5899978 121.4470014  24.4077237   1.1941508 121.0204710
  32.7589992   0.6649978 121.1650014  32.8349992   0.2389978 122.0190014
  33.6519992   0.6779978 120.8220014  32.8902267   0.6083952 121.2355932
  35.9349992  16.7379978 119.8570014  35.1529992  16.5509978 119.3380014
  35.8629992  17.6669978 120.0750014  35.8180863  16.8380221 119.8153574
  50.3409992  10.6239978 109.8880014  50.4299992  11.5679978 109.7560014
  49.7029992  10.3489978 109.2300014  50.2669062  10.7159812 109.7809641
  49.2739992   9.8789978 113.3070014  49.2359992   9.2329978 114.0120014
  48.9519992   9.4119978 112.5360014  49.2252679   9.7274276 113.2992921
  41.6419992   9.4929978 114.9000014  41.6839992   8.8679978 115.6230014
  42.3449992  10.1169978 115.0820014  41.7427345   9.4917873 115.0235274
  52.9799992  12.8179978 111.6090014  52.5389992  12.0979978 112.0590014
  52.9669992  13.5389978 112.2380014  52.9177960  12.8168329 111.7557567
  42.5659992  13.9429978 113.4350014  42.1959992  13.1409978 113.0650014
  43.5069992  13.7749978 113.4810014  42.6425984  13.8104638 113.3905603
  39.1759992   7.6029978 108.8280014  38.7279992   8.4489978 108.8090014
  38.6149992   7.0239978 108.3120014  39.0389603   7.6403674 108.7556720
  39.8859992   9.7649978 110.9540014  40.0999992   8.9949978 111.4810014
  40.6239992   9.8549978 110.3500014  40.0149652   9.6718012 110.9445212
  50.0919992  17.9219978 111.8210014  50.7109992  17.2459978 111.5470014
  49.8829992  17.7039978 112.7290014  50.1486232  17.7997938 111.9062517
  47.6629992  12.3109978 113.7130014  47.9669992  11.6249978 113.1190014
  48.3849992  12.4299978 114.3310014  47.8021152  12.2332189 113.7152123
  56.3259992   3.9129978 114.5740014  56.3759992   4.5229978 115.3100014
  56.7519992   4.3739978 113.8510014  56.3904108   4.0587709 114.5770112
  50.8039992   6.7049978 114.0410014  50.9469992   5.7589978 114.0610014
  50.6979992   6.9119978 113.1120014  50.8092509   6.6034813 113.9182231
  43.9589992   4.8069978 111.3130014  44.0019992   5.6669978 110.8950014
  43.5009992   4.2549978 110.6790014  43.9029815   4.8500621 111.1701197
  51.6809992   4.9379978 109.7140014  52.3279992   4.6089978 110.3390014
  52.1909992   5.4549978 109.0910014  51.8384317   4.9629227 109.7152167
  40.5789992   7.2039978 112.0750014  41.2329992   6.6539978 112.5070014
  40.6029992   6.9299978 111.1580014  40.6717199   7.0917167 112.0101668
  45.7359992   8.7539978 111.2900014  46.3519992   8.2269978 111.8000014
  45.1489992   8.1139978 110.8870014  45.7409239   8.5954117 111.3052952
  56.7179992   5.3909978 116.8100014  56.0289992   6.0489978 116.7140014
  56.7329992   5.1929978 117.7460014  56.6256740   5.4543242 116.9234630
  42.7689992   3.7249978 115.3870014  42.5499992   4.2549978 114.6210014
  42.1009992   3.9509978 116.0340014  42.6487001   3.8281154 115.3696064
  50.1379992  13.2249978 108.9310014  49.8429992  12.9019978 108.0800014
  49.8139992  14.1249978 108.9720014  50.0537983  13.3024026 108.8199771
  45.3379992  11.3999978 115.6750014  44.5979992  11.9989978 115.7780014
  46.0519992  11.9539978 115.3590014  45.3333288  11.5567356 115.6463805
  53.4449992   4.2289978 111.6940014  53.2299992   3.4629978 112.2270014
  54.1009992   4.7009978 112.2070014  53.5042673   4.1880728 111.8361990
  42.3629992   5.6169978 113.3390014  42.9769992   6.2499978 113.7130014
  42.8749992   5.1449978 112.6830014  42.5162277   5.6397352 113.3014279
  43.7459992  13.3649978 116.4620014  43.7399992  14.2439978 116.0840014
  42.8919992  13.2809978 116.8870014  43.6297925  13.4739535 116.4676887
  39.8669992  13.0359978 107.2440014  39.5949992  13.2649978 106.3550014
  39.9119992  13.8729978 107.7040014  39.8358709  13.1806058 107.1846107
  53.4919992  14.6569978 113.9560014  52.5499992  14.7159978 114.1180014
  53.7679992  15.5629978 113.8190014  53.4005865  14.7875288 113.9596192
  53.7919992   2.9439978 115.3740014  53.0559992   3.5539978 115.3360014
  54.4759992   3.3589978 114.8470014  53.7835506   3.0836400 115.2976051
  46.7959992   1.0299978 112.8400014  46.6779992   0.0819978 112.7850014
  45.9409992   1.3629978 113.1130014  46.6642679   0.9451926 112.8693720
  51.7439992  16.4379978 110.5820014  52.1689992  15.7309978 110.0970014
  52.0609992  17.2399978 110.1650014  51.8450266  16.4495190 110.4592479
  52.9039992  14.3389978 109.0900014  52.6459992  13.6489978 108.4790014
  52.9749992  13.8959978 109.9360014  52.8782837  14.1847106 109.1206912
  54.5899992  12.9059978 117.5680014  54.7289992  12.3139978 116.8280014
  54.7569992  13.7789978 117.2110014  54.6315562  12.9429896 117.4186283
  49.0619992   9.8679978 107.3400014  48.3509992  10.4029978 106.9880014
  49.7529992   9.9229978 106.6800014  49.0580751   9.9486777 107.2025858
  49.1159992   8.3249978 104.3790014  49.8169992   8.3479978 105.0300014
  49.4179992   7.6969978 103.7230014  49.2528282   8.2432339 104.3794496
  56.4309992   9.2459978 115.6340014  55.7789992   9.9399978 115.7230014
  56.8969992   9.4559978 114.8240014  56.4045937   9.3695019 115.5367533
  52.4679992  10.0769978 108.2920014  51.7359992  10.3059978 108.8650014
  52.9149992   9.3639978 108.7470014  52.4282753  10.0118972 108.4319715
  52.3649992   8.2519978 117.3600014  52.4449992   9.0149978 117.9310014
  51.7639992   8.5309978 116.6690014  52.2947245   8.3942630 117.3448424
  44.1129992  10.7079978 110.1740014  43.7829992  10.3369978 109.3560014
  44.7019992  10.0369978 110.5210014  44.1473970  10.5666063 110.1089404
  45.4799992  14.1359978 112.8560014  45.3849992  13.5569978 112.0990014
  46.2089992  13.7649978 113.3520014  45.5656161  14.0065891 112.8195209
  44.4799992   9.4759978 113.8080014  45.0449992   9.5979978 113.0450014
  44.7989992  10.1139978 114.4470014  44.6003977   9.5788851 113.7899424
  50.7889992  14.9799978 114.5420014  50.5489992  15.6419978 115.1900014
  50.5909992  14.1449978 114.9670014  50.7293826  14.9578115 114.6881566
  45.3599992  13.8759978 118.5250014  45.0489992  14.6579978 118.9800014
  44.7099992  13.7229978 117.8390014  45.2295538  13.9624087 118.4945898
  51.3389992   9.2399978 105.9770014  51.9179992   9.3899978 106.7240014
  51.7529992   9.7099978 105.2540014  51.4743122   9.3241277 105.9815042
  42.2799992  10.0739978 117.7540014  42.3499992  10.7249978 118.4520014
  41.3889992  10.1769978 117.4190014  42.1691802  10.1769757 117.8042249
  49.0649992  15.9759978 109.4120014  49.5389992  16.2719978 110.1900014
  48.5019992  16.7149978 109.1790014  49.0537361  16.1162721 109.4868611
  43.5989992  15.9469978 119.2880014  43.6069992  15.8109978 118.3410014
  42.6829992  15.8299978 119.5400014  43.4762528  15.9125463 119.1923243
  43.1039992   9.7769978 107.7640014  42.8119992  10.5449978 107.2730014
  42.4289992   9.1179978 107.6010014  42.9728497   9.7929745 107.6748260
  39.1969992  12.1399978 116.5790014  38.6949992  12.1119978 115.7640014
  39.2019992  11.2349978 116.8880014  39.1290416  12.0137368 116.5093766
  38.9469992  14.9209978 113.4630014  39.8929992  14.7759978 113.4440014
  38.8339992  15.7049978 114.0000014  39.0613578  15.0071697 113.5330317
  57.1449992  15.5869978 119.1450014  57.0949992  14.6309978 119.1080014
  56.3179992  15.8539978 119.5460014  57.0263987  15.4925174 119.1941446
  48.1229992  15.1609978 118.0210014  48.2109992  15.9869978 118.4960014
  47.2599992  14.8309978 118.2700014  48.0183357  15.2295468 118.1197653
  48.5379992  18.9329978 107.8270014  48.4619992  18.8119978 106.8810014
  48.5699992  19.8819978 107.9460014  48.5319156  19.0447530 107.7135048
  42.1909992  17.7219978 109.6080014  42.3429992  17.3739978 110.4870014
  41.3399992  17.3649978 109.3530014  42.0967899  17.6261738 109.6937340
  51.3079992  18.0129978 107.5790014  50.3729992  18.1129978 107.7570014
  51.5879992  17.3029978 108.1570014  51.2178173  17.9307239 107.6814998
  54.2969992   7.0799978 119.6250014  53.8889992   7.5599978 118.9050014
  54.3369992   6.1739978 119.3170014  54.2465476   7.0233160 119.4848247
  41.4459992  13.4639978 117.6220014  41.6619992  13.1019978 118.4810014
  40.5899992  13.0889978 117.4120014  41.3599354  13.3637906 117.7112160
  44.0639992   1.9339978 113.6170014  43.2029992   1.8469978 113.2100014
  44.0419992   2.7899978 114.0450014  43.9430411   2.0377884 113.6190857
  48.7269992   1.6559978 116.9920014  49.1469992   1.2409978 117.7450014
  47.7939992   1.4769978 117.1090014  48.6583736   1.5749910 117.1108968
  52.0539992   5.4109978 117.8450014  51.5399992   5.2859978 118.6430014
  51.8979992   6.3239978 117.6010014  51.9626967   5.5172123 117.9210937
  52.8159992  10.2719978 103.6070014  52.8579992  10.0499978 102.6770014
  53.6649992  10.6709978 103.7970014  52.9365253  10.2955498 103.5053822
  44.1549992   6.8989978 114.7120014  43.5139992   6.8589978 115.4210014
  44.1929992   7.8259978 114.4750014  44.0723670   7.0187795 114.7770550
  44.1519992   7.1199978 109.6240014  43.2599992   6.7799978 109.5660014
  44.6029992   6.7429978 108.8690014  44.0906815   7.0223762 109.5139203
  49.6879992   7.5359978 108.4410014  49.2789992   8.3509978 108.1500014
  50.4079992   7.3959978 107.8270014  49.7294013   7.6286571 108.3180875
  48.7899992   7.7119978 119.9290014  48.2269992   7.0069978 120.2500014
  49.6159992   7.5909978 120.3970014  48.8246674   7.5992165 120.0361751
  50.6929992   6.9819978 111.2550014  50.4969992   7.5879978 110.5400014
  50.8739992   6.1489978 110.8210014  50.6906584   6.9522513 111.0984212
  41.9049992   7.2199978 116.5790014  41.8669992   7.6199978 117.4480014
  41.4149992   6.4029978 116.6700014  41.8335621   7.1642510 116.7101377
  45.2709992   4.5939978 103.3780014  44.8399992   4.1489978 104.1080014
  44.5529992   4.9649978 102.8660014  45.1149363   4.5832968 103.4086211
  38.5139992   4.3359978 110.4300014  39.1439992   4.3069978 111.1490014
  38.9629992   3.9109978 109.7000014  38.6610692   4.2745316 110.4297771
  39.7879992   5.0819978 105.8540014  40.2619992   5.6729978 105.2690014
  39.0699992   5.6119978 106.2010014  39.7558640   5.2345511 105.8207969
  49.9569992   8.6199978 115.9270014  50.2799992   7.9889978 115.2840014
  49.5159992   8.0859978 116.5870014  49.9415789   8.4613522 115.9282232
  46.7339992   4.5479978 110.7110014  45.8229992   4.6049978 110.9990014
  47.2389992   4.4879978 111.5210014  46.6775387   4.5476870 110.8600646
  41.5619992   6.1769978 109.5370014  40.6729992   6.2759978 109.1970014
  41.8589992   5.3349978 109.1910014  41.4804177   6.0767687 109.4436940
  45.2149992   6.1769978 107.1940014  46.1469992   6.3059978 107.3720014
  44.9999992   6.8459978 106.5440014  45.3134472   6.2850806 107.1304891
  51.1389992   3.7829978 113.9750014  50.4619992   3.9139978 114.6390014
  50.6539992   3.6279978 113.1650014  50.9807265   3.7799659 113.9563397
  54.4269992  19.4539978 120.2520014  54.6259992  19.8779978 119.4170014
  55.0819992  19.7979978 120.8590014  54.5428501  19.5586091 120.2197097
  42.0249992  11.9279978 119.8600014  42.7569992  12.1829978 120.4210014
  41.2439992  12.1329978 120.3750014  42.0197684  11.9906468 120.0064782
  48.0539992   7.3349978 112.5980014  48.6179992   6.7889978 112.0510014
  47.9059992   6.8139978 113.3860014  48.1112575   7.1896552 112.6296987
  43.0559992   3.4719978 109.0160014  42.7389992   2.5689978 108.9810014
  43.8369992   3.4739978 108.4630014  43.1182307   3.3486951 108.9364314
  46.6799992   5.7239978 115.0120014  45.8449992   6.1779978 115.1220014
  47.2039992   5.9999978 115.7640014  46.6365070   5.8234666 115.1287152
  47.2249992  11.9369978 106.6960014  46.4799992  11.4289978 106.3740014
  47.0899992  11.9859978 107.6430014  47.1049047  11.8741596 106.7798845
  54.3749992  11.0699978 115.4830014  55.0159992  11.5259978 114.9390014
  53.5439992  11.1829978 115.0210014  54.3505171  11.1477502 115.3460237
  48.7439992  12.1209978 117.9330014  48.3979992  11.7389978 118.7400014
  48.5439992  13.0539978 118.0050014  48.6696523  12.1949095 118.0530735
  51.8409992   6.6179978 106.5560014  52.7329992   6.4799978 106.8750014
  51.8969992   7.4089978 106.0200014  51.9707107   6.7060526 106.5272091
  42.3489992  11.2319978 112.4660014  43.0939992  11.2289978 111.8650014
  42.4269992  10.4079978 112.9480014  42.4614158  11.1202916 112.4489153
  39.3569992   9.6919978 117.7810014  39.5799992   9.2739978 118.6130014
  38.7549992   9.0799978 117.3580014  39.3061260   9.5519933 117.8377320
  46.3739992   9.2089978 119.9940014  46.0779992   9.0439978 119.0990014
  47.3049992   8.9889978 119.9830014  46.4593982   9.1566578 119.8700045
  50.9939992  14.5829978 117.8840014  50.0939992  14.7659978 117.6160014
  51.0279992  14.8419978 118.8050014  50.8752909  14.6430815 117.9717852
  56.7259992   6.8269978 106.2510014  56.1709992   6.4309978 105.5790014
  56.8259992   7.7379978 105.9730014  56.6635888   6.8958990 106.1215206
  56.6889992  12.6279978 119.0880014  55.8379992  12.8659978 118.7210014
  57.2789992  12.6109978 118.3350014  56.6522408  12.6582966 118.9358879
  55.0209992  15.6129978 106.7160014  54.6479992  14.7879978 107.0250014
  55.2979992  15.4299978 105.8190014  55.0073871  15.4752441 106.6369677
  52.1809992  10.4209978 113.7370014  51.2529992  10.1899978 113.7100014
  52.6319992   9.6439978 113.4070014  52.1148165  10.2842774 113.6886790
  44.7239992  14.7499978 109.8700014  45.2519992  15.5229978 109.6700014
  43.8439992  14.9739978 109.5690014  44.6773176  14.8863161 109.8018409
  46.1519992  12.4129978 109.4470014  45.9109992  13.3379978 109.4880014
  45.4109992  11.9539978 109.8430014  46.0188390  12.4776403 109.5061404
  46.6659992  16.5619978 115.7620014  47.0289992  17.4159978 115.5280014
  47.1979992  16.2699978 116.5020014  46.7876090  16.6394058 115.8300219
  44.8349992  17.4339978 108.9920014  43.8849992  17.5399978 109.0430014
  45.1869992  18.2549978 109.3370014  44.7525480  17.5594438 109.0455999
  50.2099992  12.6609978 115.4620014  49.7849992  12.4329978 116.2890014
  50.7909992  11.9219978 115.2800014  50.2303930  12.5299843 115.5504731
  52.8689992  17.2129978 117.9320014  52.2669992  16.6569978 117.4360014
  53.1499992  17.8799978 117.3060014  52.8246829  17.2271613 117.7795443
  56.9169992  18.0689978 104.7370014  57.6609992  18.6549978 104.5970014
  56.2229992  18.6379978 105.0710014  56.9250201  18.2260603 104.7629772
  40.9909992   4.4459978 117.3390014  40.0989992   4.7839978 117.2720014
  40.8929992   3.5899978 117.7570014  40.8554965   4.3766499 117.3863044
  53.2789992  12.2619978 106.7630014  53.0019992  11.5339978 107.3190014
  54.2069992  12.3809978 106.9680014  53.3664499  12.1784213 106.8668044
  40.6429992  16.2499978 115.7740014  40.8599992  15.3179978 115.7430014
  40.8889992  16.5249978 116.6570014  40.7059809  16.1595686 115.8891690
  45.4409992  14.2719978 105.4400014  45.5879992  13.7519978 106.2300014
  45.4379992  15.1789978 105.7460014  45.4607300  14.3233964 105.5895895
  41.8939992  11.5239978 105.9500014  41.2079992  11.8769978 106.5170014
  42.4169992  12.2869978 105.7040014  41.8709033  11.6753746 105.9942661
  49.7259992   4.1869978 116.2290014  50.4249992   4.2609978 116.8790014
  49.3449992   3.3219978 116.3830014  49.7702097   4.0802389 116.3387997
  50.5099992   3.8389978 107.3260014  50.7299992   4.3099978 106.5230014
  51.0689992   4.2329978 107.9960014  50.6156730   3.9567432 107.3065906
  47.7099992   5.5669978 108.1610014  48.5219992   6.0709978 108.2070014
  47.4659992   5.4219978 109.0750014  47.7881467   5.6163749 108.2908575
  48.2459992   6.5529978 117.3460014  48.3649992   7.1269978 118.1030014
  48.9009992   5.8649978 117.4600014  48.3509146   6.5385574 117.4651313
  48.5939992   2.6479978 109.0990014  48.2469992   3.2649978 109.7440014
  49.2529992   3.1489978 108.6180014  48.6355949   2.8001099 109.1222271
  45.5169992  17.0129978 106.1710014  45.6779992  17.8129978 105.6700014
  45.3199992  17.3199978 107.0560014  45.5123919  17.1639129 106.2221006
  44.2519992   3.7109978 105.7860014  44.1679992   4.5989978 106.1330014
  45.1419992   3.4459978 106.0180014  44.3608163   3.7967179 105.8648596
  54.4499992   4.4599978 118.1810014  53.5339992   4.7219978 118.0930014
  54.7859992   4.4569978 117.2840014  54.3699789   4.4954626 118.0477847
  53.0529992   8.2099978 112.2760014  52.2549992   7.7949978 111.9480014
  53.4979992   7.5199978 112.7670014  53.0039684   8.0598628 112.2975227
  42.5099992  14.1379978 104.8470014  43.1019992  14.8379978 105.1230014
  42.9689992  13.7049978 104.1270014  42.6530791  14.1752908 104.7874607
  54.1389992  17.4659978 113.8990014  53.9829992  18.1449978 113.2420014
  55.0719992  17.5379978 114.1020014  54.2437387  17.5686390 113.8365342
  41.6339992   1.5839978 112.6360014  41.4049992   1.6429978 111.7080014
  41.1919992   0.7929978 112.9420014  41.5428801   1.4850540 112.5504729
  40.5649992  15.5249978 108.7960014  39.7319992  15.9969978 108.8240014
  41.1099992  16.0349978 108.1980014  40.5247590  15.6585897 108.7189194
  39.8529992  18.1369978 120.1260014  40.3929992  17.9209978 120.8860014
  39.3719992  17.3319978 119.9370014  39.8618613  17.9985400 120.2044782
  44.4499992  17.0569978 121.7470014  45.2179992  16.5979978 122.0880014
  44.4289992  16.8309978 120.8170014  44.5522135  16.9636668 121.6679491
  51.0269992  15.4369978 120.4760014  50.6759992  14.5799978 120.7190014
  51.7529992  15.5789978 121.0830014  51.0771590  15.3390178 120.5912907
  39.7599992  11.9479978 121.0810014  39.9039992  11.0459978 120.7940014
  38.9879992  12.2339978 120.5930014  39.6753303  11.8633243 120.9757908
  44.1009992  12.2909978 103.2130014  44.1659992  11.4969978 103.7440014
  44.7539992  12.1729978 102.5230014  44.1981754  12.1663337 103.1924259
  46.4149992  11.9169978 120.5130014  46.0869992  12.1879978 119.6560014
  46.5669992  10.9759978 120.4260014  46.3906030  11.8268973 120.3837945
  52.1499992  11.8329978 117.8970014  52.8949992  12.4219978 117.7770014
  51.3929992  12.4149978 117.9600014  52.1495205  11.9921997 117.8891119
  40.5929992   9.1479978 120.5010014  41.0009992   8.2909978 120.3800014
  40.3319992   9.1619978 121.4220014  40.6136016   9.0325119 120.6089192
  45.2509992  10.2639978 105.5190014  44.7909992   9.7799978 106.2050014
  45.5059992   9.5949978 104.8830014  45.2225038  10.1073689 105.5269447
  44.5399992   8.1569978 117.8750014  43.9209992   8.8309978 118.1550014
  44.8839992   8.4779978 117.0420014  44.5017605   8.2927198 117.8006707
  46.3219992   8.5069978 103.7810014  46.1409992   8.3519978 102.8540014
  47.2719992   8.6149978 103.8260014  46.4256566   8.5003669 103.6600929
  49.5589992  10.6279978 121.1520014  50.5129992  10.7119978 121.1250014
  49.3989992   9.9159978 121.7720014  49.6677182  10.5432842 121.2320733
  44.8789992   5.5119978 118.9570014  45.0289992   4.7829978 118.3550014
  44.8809992   6.2889978 118.3980014  44.8997967   5.5172708 118.7990541
  45.2919992   3.8809978 116.4500014  45.8269992   4.3329978 115.7980014
  44.4389992   3.7729978 116.0270014  45.2500374   3.9282665 116.3036710
  46.8729992   9.3209978 116.6890014  47.6239992   9.1649978 116.1160014
  46.5339992  10.1729978 116.4140014  46.9299587   9.4148138 116.5734078
  51.2889992   7.1359978 121.7180014  51.4809992   6.2049978 121.6060014
  52.1469992   7.5609978 121.7080014  51.4312269   7.0659928 121.7013192
  52.6059992   9.9249978 119.7950014  52.3239992  10.6339978 119.2180014
  53.5479992   9.8519978 119.6440014  52.6947656  10.0123128 119.6954809
  43.3579992   6.7099978 120.8690014  42.5899992   6.1769978 120.6590014
  44.0359992   6.3999978 120.2690014  43.3446973   6.5952375 120.7591796
  46.0969992   1.3379978 116.8810014  45.9989992   2.2839978 116.7760014
  45.3549992   0.9649978 116.4060014  45.9831913   1.4171813 116.8023539
  47.3609992   5.6589978 120.4450014  47.1259992   5.4399978 121.3470014
  46.5779992   5.4519978 119.9350014  47.2229219   5.6010066 120.4995852
  50.0769992   4.7869978 119.5210014  49.1289992   4.8189978 119.6530014
  50.3889992   4.1609978 120.1740014  49.9895190   4.7067262 119.6273563
  51.7109992   3.4209978 121.5260014  51.6139992   2.4689978 121.5200014
  51.3889992   3.6889978 122.3860014  51.6541761   3.3269744 121.6414936
  41.5379992   4.6299978 120.5730014  41.7499992   3.9239978 119.9630014
  41.4269992   4.1929978 121.4170014  41.5520269   4.4741921 120.6035873
  46.3189992   0.6319978 119.5530014  47.0309992  -0.0080022 119.5390014
  46.2179992   0.8979978 118.6390014  46.4027261   0.5804190 119.4275537
  46.6729992   2.3139978 121.6060014  46.5409992   1.8389978 120.7860014
  46.0729992   3.0589978 121.5510014  46.5739070   2.3495789 121.4863251
  38.4359992  19.2269978 109.3430014  37.7889992  18.7649978 108.8100014
  38.7909992  18.5549978 109.9250014  38.3954506  19.0729503 109.3487341
  39.3059992  17.3069978 111.1470014  38.9719992  16.4269978 111.3190014
  39.5289992  17.6529978 112.0120014  39.2903721  17.2331938 111.2874168
  56.8549992  18.1169978 114.1280014  56.8329992  18.3019978 115.0670014
  57.5449992  18.6849978 113.7870014  56.9453439  18.2191887 114.2104791
  56.4179992  17.6839978 117.0500014  55.9309992  16.9489978 116.6790014
  56.9669992  17.2899978 117.7280014  56.4255247  17.5301057 117.0908461
  54.8689992  13.4739978 121.6880014  54.0029992  13.3689978 122.0820014
  55.2449992  14.2319978 122.1340014  54.8013401  13.5621708 121.8022620
  56.1699992  11.7299978 107.2020014  57.0199992  12.1509978 107.3290014
  56.1749992  10.9899978 107.8090014  56.2871143  11.6876094 107.3014750
  56.5639992   9.7839978 109.0260014  55.8379992   9.3039978 109.4230014
  57.1459992   9.9889978 109.7580014  56.5431635   9.7459166 109.1793748
  56.3229992  12.5689978 113.9730014  57.1569992  12.1909978 113.6930014
  56.4349992  13.5119978 113.8540014  56.4522522  12.6447742 113.9186020
  54.8099992  15.4469978 116.2800014  54.1619992  15.7719978 116.9060014
  54.2919992  15.0059978 115.6060014  54.6514168  15.4318523 116.2745307
  55.1819992   6.9239978 103.9680014  55.2779992   7.5909978 103.2880014
  55.0419992   6.1089978 103.4860014  55.1762063   6.9050667 103.8098377
  54.3509992   8.3049978 109.5890014  54.2009992   7.3599978 109.5680014
  53.9969992   8.5859978 110.4320014  54.2825527   8.2135605 109.7001859
  39.3859992  10.3829978 113.5990014  39.5709992  10.3009978 112.6630014
  40.2359992  10.2589978 114.0230014  39.5260916  10.3550393 113.5282896
  55.2069992  10.2749978 119.2270014  55.7899992   9.5399978 119.4190014
  55.7709992  11.0469978 119.2740014  55.3629781  10.2788145 119.2596164
  56.7039992   8.1779978 119.9120014  55.8409992   7.7989978 119.7460014
  57.3079992   7.4389978 119.8380014  56.6675944   8.0262978 119.8792984
  54.0619992   5.8869978 108.0510014  54.3409992   4.9799978 108.1750014
  54.8209992   6.3209978 107.6620014  54.2028619   5.8214502 108.0153795
  54.6729992   6.4689978 113.4870014  55.6059992   6.6809978 113.4530014
  54.4379992   6.5699978 114.4090014  54.7688308   6.5116503 113.6070214
  54.7029992   7.2059978 116.2630014  53.8599992   7.4739978 116.6290014
  55.1449992   8.0279978 116.0520014  54.6474138   7.3538273 116.2845518
  38.9839992   5.6529978 119.7400014  39.9029992   5.5309978 119.9760014
  38.5339992   4.9029978 120.1290014  39.0491148   5.5348751 119.8249408
  56.9859992   1.1859978 121.6160014  57.3349992   0.5319978 121.0110014
  57.1329992   2.0229978 121.1770014  57.0537355   1.2096067 121.4736564
  54.6749992   3.1499978 108.0990014  54.8569992   2.7009978 108.9250014
  54.0749992   2.5659978 107.6360014  54.6187529   3.0096131 108.1493619
  40.2049992   3.9659978 112.6310014  40.6499992   3.1739978 112.9330014
  40.6709992   4.6819978 113.0620014  40.3289059   3.9544474 112.7306079
  38.5089992   6.9649978 113.7000014  39.0009992   6.7439978 112.9090014
  38.8709992   7.8049978 113.9810014  38.6252923   7.0483468 113.6297407
  56.5049992   3.2949978 119.9660014  55.5879992   3.5659978 119.9300014
  56.6279992   2.7599978 119.1820014  56.3960828   3.2597700 119.8550785
  38.8229992   3.2229978 107.7540014  37.8979992   3.4309978 107.6250014
  39.2769992   3.7069978 107.0650014  38.7576374   3.3169949 107.6430957
  53.5929992  18.2069978 109.7000014  54.2459992  17.8589978 109.0920014
  54.1039992  18.6949978 110.3460014  53.7512777  18.2253815 109.7042047
  38.7859992   1.9609978 116.0990014  38.1209992   1.7149978 116.7420014
  38.3429992   2.5829978 115.5210014  38.6350937   2.0113614 116.1089379
  40.9779992  15.1359978 120.2430014  40.1569992  15.3109978 119.7830014
  40.7259992  15.0629978 121.1640014  40.8316173  15.1500794 120.3044972
  43.9319992  16.1099978 116.5020014  43.5079992  16.9199978 116.2190014
  44.8369992  16.1959978 116.2000014  43.9962433  16.2323331 116.4225377
  48.2439992  17.5089978 119.4610014  48.4279992  17.1759978 120.3390014
  49.0899992  17.8189978 119.1390014  48.3836484  17.5052979 119.5377617
  50.5889992  18.7949978 118.7050014  51.2659992  18.1619978 118.4650014
  50.9099992  19.1959978 119.5120014  50.7251323  18.7625691 118.7813158
  55.5059992   1.3849978 117.7850014  54.6929992   1.7099978 117.3970014
  55.7389992   0.6239978 117.2520014  55.4262566   1.3266559 117.6599213
  41.3339992  19.3669978 116.5490014  40.6139992  19.8069978 116.0980014
  40.9689992  19.1159978 117.3980014  41.1859796  19.3933824 116.6019329
  43.8009992  18.9669978 115.5790014  42.9369992  19.0389978 115.9830014
  43.7459992  19.5139978 114.7950014  43.6751942  19.0507849 115.5284000
  48.5119992  18.8549978 114.7540014  48.0549992  19.3839978 114.1000014
  48.6749992  19.4579978 115.4800014  48.4714476  19.0089140 114.7625499
  50.8399992  17.7329978 115.6990014  49.9349992  17.8979978 115.4340014
  51.2679992  18.5859978 115.6340014  50.7740700  17.8709529 115.6539520
  53.4439992  19.3029978 115.9940014  53.2619992  20.2189978 115.7840014
  53.6209992  18.8919978 115.1480014  53.4429907  19.3729741 115.8507883
  40.7489992  17.9899978 113.4590014  40.7309992  17.5639978 114.3170014
  41.5539992  17.6709978 113.0510014  40.8553221  17.8887233 113.5210225
  42.8899992  16.6999978 112.1140014  42.6709992  15.7829978 112.2840014
  43.7139992  16.8399978 112.5800014  42.9714702  16.5935511 112.2002527
  45.4269992  17.1699978 112.9630014  45.6399992  16.2819978 112.6760014
  45.4919992  17.1349978 113.9180014  45.4649075  17.0438307 113.0527373
  48.9359992   2.8339978 112.1070014  48.2619992   2.2039978 112.3630014
  49.4999992   2.3499978 111.5040014  48.9200384   2.6823708 112.0605020
  54.0789992   0.9409978 112.2200014  54.6819992   1.4889978 111.7180014
  53.2089992   1.2599978 111.9800014  54.0439190   1.0591041 112.1188679
  55.8059992   2.0799978 110.5530014  56.4169992   1.5659978 110.0270014
  56.1879992   2.9569978 110.5770014  55.9414475   2.1281323 110.4841208
  41.2629992   1.4679978 109.9290014  40.4859992   1.2329978 109.4220014
  41.7929992   0.6709978 109.9380014  41.2283451   1.3281268 109.8608627
  40.0989992   1.2659978 105.7330014  40.5379992   1.8769978 105.1410014
  39.4649992   1.8039978 106.2070014  40.0733859   1.4224064 105.7160305
  45.8419992   1.3939978 109.7430014  46.7159992   1.7829978 109.7130014
  45.7059992   1.1789978 110.6650014  45.9433207   1.4181923 109.8636509
  51.3989992   1.4239978 111.3920014  51.4749992   1.5199978 110.4430014
  51.1239992   0.5169978 111.5210014  51.3722042   1.3144241 111.2793811
  52.7519992   1.4499978 107.0840014  52.0489992   2.0649978 106.8750014
  52.3069992   0.6129978 107.2160014  52.5956292   1.4210085 107.0732439
  41.9599992   3.1819978 104.1750014  42.4509992   2.5519978 103.6480014
  42.5829992   3.4779978 104.8390014  42.1115062   3.1356770 104.1925438
  46.9859992   3.4749978 106.6330014  47.1639992   2.8279978 107.3150014
  46.9319992   4.3089978 107.1000014  47.0031025   3.4990504 106.7896433
  48.8639992  18.4229978 105.0280014  49.7299992  18.7899978 104.8500014
  48.6179992  17.9839978 104.2140014  48.9492097  18.4138525 104.8936019
  55.5729992  17.9859978 107.7070014  55.3789992  17.2379978 107.1420014
  55.5339992  18.7439978 107.1240014  55.5411645  17.9860786 107.5508148
  41.2199992   1.9819978 119.4470014  40.8539992   1.2159978 119.8900014
  42.1329992   2.0109978 119.7340014  41.2933225   1.8811906 119.5463459
  43.1929992   1.3319978 120.9830014  44.0919992   1.0579978 120.7980014
  42.8069992   0.5899978 121.4470014  43.2637237   1.1941508 121.0204710
  51.6149992   0.6649978 121.1650014  51.6909992   0.2389978 122.0190014
  52.5079992   0.6779978 120.8220014  51.7462267   0.6083952 121.2355932
  54.7909992  16.7379978 119.8570014  54.0089992  16.5509978 119.3380014
  54.7189992  17.6669978 120.0750014  54.6740863  16.8380221 119.8153574
  69.1969992  10.6239978 109.8880014  69.2859992  11.5679978 109.7560014
  68.5589992  10.3489978 109.2300014  69.1229062  10.7159812 109.7809641
  68.1299992   9.8789978 113.3070014  68.0919992   9.2329978 114.0120014
  67.8079992   9.4119978 112.5360014  68.0812679   9.7274276 113.2992921
  60.4979992   9.4929978 114.9000014  60.5399992   8.8679978 115.6230014
  61.2009992  10.1169978 115.0820014  60.5987345   9.4917873 115.0235274
  71.8359992  12.8179978 111.6090014  71.3949992  12.0979978 112.0590014
  71.8229992  13.5389978 112.2380014  71.7737960  12.8168329 111.7557567
  61.4219992  13.9429978 113.4350014  61.0519992  13.1409978 113.0650014
  62.3629992  13.7749978 113.4810014  61.4985984  13.8104638 113.3905603
  58.0319992   7.6029978 108.8280014  57.5839992   8.4489978 108.8090014
  57.4709992   7.0239978 108.3120014  57.8949603   7.6403674 108.7556720
  58.7419992   9.7649978 110.9540014  58.9559992   8.9949978 111.4810014
  59.4799992   9.8549978 110.3500014  58.8709652   9.6718012 110.9445212
  68.9479992  17.9219978 111.8210014  69.5669992  17.2459978 111.5470014
  68.7389992  17.7039978 112.7290014  69.0046232  17.7997938 111.9062517
  66.5189992  12.3109978 113.7130014  66.8229992  11.6249978 113.1190014
  67.2409992  12.4299978 114.3310014  66.6581152  12.2332189 113.7152124
  75.1819992   3.9129978 114.5740014  75.2319992   4.5229978 115.3100014
  75.6079992   4.3739978 113.8510014  75.2464108   4.0587709 114.5770112
  69.6599992   6.7049978 114.0410014  69.8029992   5.7589978 114.0610014
  69.5539992   6.9119978 113.1120014  69.6652509   6.6034813 113.9182231
  62.8149992   4.8069978 111.3130014  62.8579992   5.6669978 110.8950014
  62.3569992   4.2549978 110.6790014  62.7589815   4.8500621 111.1701197
  70.5369992   4.9379978 109.7140014  71.1839992   4.6089978 110.3390014
  71.0469992   5.4549978 109.0910014  70.6944317   4.9629227 109.7152167
  59.4349992   7.2039978 112.0750014  60.0889992   6.6539978 112.5070014
  59.4589992   6.9299978 111.1580014  59.5277199   7.0917167 112.0101668
  64.5919992   8.7539978 111.2900014  65.2079992   8.2269978 111.8000014
  64.0049992   8.1139978 110.8870014  64.5969239   8.5954117 111.3052952
  75.5739992   5.3909978 116.8100014  74.8849992   6.0489978 116.7140014
  75.5889992   5.1929978 117.7460014  75.4816740   5.4543243 116.9234630
  61.6249992   3.7249978 115.3870014  61.4059992   4.2549978 114.6210014
  60.9569992   3.9509978 116.0340014  61.5047001   3.8281154 115.3696064
  68.9939992  13.2249978 108.9310014  68.6989992  12.9019978 108.0800014
  68.6699992  14.1249978 108.9720014  68.9097983  13.3024026 108.8199771
  64.1939992  11.3999978 115.6750014  63.4539992  11.9989978 115.7780014
  64.9079992  11.9539978 115.3590014  64.1893288  11.5567356 115.6463805
  72.3009992   4.2289978 111.6940014  72.0859992   3.4629978 112.2270014
  72.9569992   4.7009978 112.2070014  72.3602673   4.1880728 111.8361990
  61.2189992   5.6169978 113.3390014  61.8329992   6.2499978 113.7130014
  61.7309992   5.1449978 112.6830014  61.3722277   5.6397352 113.3014279
  62.6019992  13.3649978 116.4620014  62.5959992  14.2439978 116.0840014
  61.7479992  13.2809978 116.8870014  62.4857925  13.4739535 116.4676887
  58.7229992  13.0359978 107.2440014  58.4509992  13.2649978 106.3550014
  58.7679992  13.8729978 107.7040014  58.6918709  13.1806058 107.1846107
  72.3479992  14.6569978 113.9560014  71.4059992  14.7159978 114.1180014
  72.6239992  15.5629978 113.8190014  72.2565865  14.7875288 113.9596192
  72.6479992   2.9439978 115.3740014  71.9119992   3.5539978 115.3360014
  73.3319992   3.3589978 114.8470014  72.6395506   3.0836400 115.2976051
  65.6519992   1.0299978 112.8400014  65.5339992   0.0819978 112.7850014
  64.7969992   1.3629978 113.1130014  65.5202679   0.9451926 112.8693720
  70.5999992  16.4379978 110.5820014  71.0249992  15.7309978 110.0970014
  70.9169992  17.2399978 110.1650014  70.7010266  16.4495190 110.4592479
  71.7599992  14.3389978 109.0900014  71.5019992  13.6489978 108.4790014
  71.8309992  13.8959978 109.9360014  71.7342837  14.1847106 109.1206912
  73.4459992  12.9059978 117.5680014  73.5849992  12.3139978 116.8280014
  73.6129992  13.7789978 117.2110014  73.4875562  12.9429896 117.4186283
  67.9179992   9.8679978 107.3400014  67.2069992  10.4029978 106.9880014
  68.6089992   9.9229978 106.6800014  67.9140751   9.9486777 107.2025858
  75.2869992   9.2459978 115.6340014  74.6349992   9.9399978 115.7230014
  75.7529992   9.4559978 114.8240014  75.2605937   9.3695019 115.5367533
  71.3239992  10.0769978 108.2920014  70.5919992  10.3059978 108.8650014
  71.7709992   9.3639978 108.7470014  71.2842753  10.0118972 108.4319715
  71.2209992   8.2519978 117.3600014  71.3009992   9.0149978 117.9310014
  70.6199992   8.5309978 116.6690014  71.1507245   8.3942630 117.3448424
  62.9689992  10.7079978 110.1740014  62.6389992  10.3369978 109.3560014
  63.5579992  10.0369978 110.5210014  63.0033970  10.5666063 110.1089404
  64.3359992  14.1359978 112.8560014  64.2409992  13.5569978 112.0990014
  65.0649992  13.7649978 113.3520014  64.4216161  14.0065891 112.8195209
  63.3359992   9.4759978 113.8080014  63.9009992   9.5979978 113.0450014
  63.6549992  10.1139978 114.4470014  63.4563977   9.5788851 113.7899424
  69.6449992  14.9799978 114.5420014  69.4049992  15.6419978 115.1900014
  69.4469992  14.1449978 114.9670014  69.5853826  14.9578115 114.6881566
  64.2159992  13.8759978 118.5250014  63.9049992  14.6579978 118.9800014
  63.5659992  13.7229978 117.8390014  64.0855538  13.9624087 118.4945898
  70.1949992   9.2399978 105.9770014  70.7739992   9.3899978 106.7240014
  70.6089992   9.7099978 105.2540014  70.3303122   9.3241277 105.9815042
  61.1359992  10.0739978 117.7540014  61.2059992  10.7249978 118.4520014
  60.2449992  10.1769978 117.4190014  61.0251802  10.1769757 117.8042249
  67.9209992  15.9759978 109.4120014  68.3949992  16.2719978 110.1900014
  67.3579992  16.7149978 109.1790014  67.9097361  16.1162721 109.4868611
  62.4549992  15.9469978 119.2880014  62.4629992  15.8109978 118.3410014
  61.5389992  15.8299978 119.5400014  62.3322528  15.9125463 119.1923243
  73.8939992   0.9899978 105.7900014  72.9939992   1.1289978 106.0850014
  74.1459992   1.8209978 105.3880014  73.8048683   1.1214055 105.7760232
  61.9599992   9.7769978 107.7640014  61.6679992  10.5449978 107.2730014
  61.2849992   9.1179978 107.6010014  61.8288497   9.7929745 107.6748260
  58.0529992  12.1399978 116.5790014  57.5509992  12.1119978 115.7640014
  58.0579992  11.2349978 116.8880014  57.9850416  12.0137368 116.5093766
  57.8029992  14.9209978 113.4630014  58.7489992  14.7759978 113.4440014
  57.6899992  15.7049978 114.0000014  57.9173578  15.0071697 113.5330317
  76.0009992  15.5869978 119.1450014  75.9509992  14.6309978 119.1080014
  75.1739992  15.8539978 119.5460014  75.8823987  15.4925174 119.1941446
  66.9789992  15.1609978 118.0210014  67.0669992  15.9869978 118.4960014
  66.1159992  14.8309978 118.2700014  66.8743357  15.2295468 118.1197653
  67.3939992  18.9329978 107.8270014  67.3179992  18.8119978 106.8810014
  67.4259992  19.8819978 107.9460014  67.3879156  19.0447530 107.7135048
  61.0469992  17.7219978 109.6080014  61.1989992  17.3739978 110.4870014
  60.1959992  17.3649978 109.3530014  60.9527899  17.6261738 109.6937340
  70.4949992  18.0869978 104.8290014  70.8699992  17.3429978 104.3590014
  70.4999992  17.8169978 105.7480014  70.5470024  17.9486950 104.8887987
  70.1639992  18.0129978 107.5790014  69.2289992  18.1129978 107.7570014
  70.4439992  17.3029978 108.1570014  70.0738173  17.9307239 107.6814998
  73.1529992   7.0799978 119.6250014  72.7449992   7.5599978 118.9050014
  73.1929992   6.1739978 119.3170014  73.1025476   7.0233160 119.4848247
  60.3019992  13.4639978 117.6220014  60.5179992  13.1019978 118.4810014
  59.4459992  13.0889978 117.4120014  60.2159354  13.3637906 117.7112160
  62.9199992   1.9339978 113.6170014  62.0589992   1.8469978 113.2100014
  62.8979992   2.7899978 114.0450014  62.7990411   2.0377884 113.6190857
  67.5829992   1.6559978 116.9920014  68.0029992   1.2409978 117.7450014
  66.6499992   1.4769978 117.1090014  67.5143736   1.5749910 117.1108968
  70.9099992   5.4109978 117.8450014  70.3959992   5.2859978 118.6430014
  70.7539992   6.3239978 117.6010014  70.8186967   5.5172123 117.9210937
  67.2449992   4.1479978 104.2770014  66.9909992   4.1669978 105.2000014
  66.9879992   3.2769978 103.9760014  67.1755133   4.0328110 104.3625082
  63.0109992   6.8989978 114.7120014  62.3699992   6.8589978 115.4210014
  63.0489992   7.8259978 114.4750014  62.9283670   7.0187795 114.7770550
  63.0079992   7.1199978 109.6240014  62.1159992   6.7799978 109.5660014
  63.4589992   6.7429978 108.8690014  62.9466815   7.0223762 109.5139203
  68.5439992   7.5359978 108.4410014  68.1349992   8.3509978 108.1500014
  69.2639992   7.3959978 107.8270014  68.5854013   7.6286571 108.3180875
  67.6459992   7.7119978 119.9290014  67.0829992   7.0069978 120.2500014
  68.4719992   7.5909978 120.3970014  67.6806674   7.5992165 120.0361751
  69.5489992   6.9819978 111.2550014  69.3529992   7.5879978 110.5400014
  69.7299992   6.1489978 110.8210014  69.5466584   6.9522513 111.0984212
  60.7609992   7.2199978 116.5790014  60.7229992   7.6199978 117.4480014
  60.2709992   6.4029978 116.6700014  60.6895621   7.1642510 116.7101377
  64.1269992   4.5939978 103.3780014  63.6959992   4.1489978 104.1080014
  63.4089992   4.9649978 102.8660014  63.9709363   4.5832968 103.4086211
  57.3699992   4.3359978 110.4300014  57.9999992   4.3069978 111.1490014
  57.8189992   3.9109978 109.7000014  57.5170692   4.2745316 110.4297771
  68.8129992   8.6199978 115.9270014  69.1359992   7.9889978 115.2840014
  68.3719992   8.0859978 116.5870014  68.7975789   8.4613522 115.9282232
  65.5899992   4.5479978 110.7110014  64.6789992   4.6049978 110.9990014
  66.0949992   4.4879978 111.5210014  65.5335387   4.5476870 110.8600646
  60.4179992   6.1769978 109.5370014  59.5289992   6.2759978 109.1970014
  60.7149992   5.3349978 109.1910014  60.3364177   6.0767687 109.4436940
  64.0709992   6.1769978 107.1940014  65.0029992   6.3059978 107.3720014
  63.8559992   6.8459978 106.5440014  64.1694472   6.2850806 107.1304891
  69.9949992   3.7829978 113.9750014  69.3179992   3.9139978 114.6390014
  69.5099992   3.6279978 113.1650014  69.8367265   3.7799659 113.9563397
  73.2829992  19.4539978 120.2520014  73.4819992  19.8779978 119.4170014
  73.9379992  19.7979978 120.8590014  73.3988501  19.5586091 120.2197097
  60.8809992  11.9279978 119.8600014  61.6129992  12.1829978 120.4210014
  60.0999992  12.1329978 120.3750014  60.8757684  11.9906468 120.0064782
  66.9099992   7.3349978 112.5980014  67.4739992   6.7889978 112.0510014
  66.7619992   6.8139978 113.3860014  66.9672575   7.1896552 112.6296987
  61.9119992   3.4719978 109.0160014  61.5949992   2.5689978 108.9810014
  62.6929992   3.4739978 108.4630014  61.9742307   3.3486951 108.9364314
  65.5359992   5.7239978 115.0120014  64.7009992   6.1779978 115.1220014
  66.0599992   5.9999978 115.7640014  65.4925070   5.8234666 115.1287152
  66.0809992  11.9369978 106.6960014  65.3359992  11.4289978 106.3740014
  65.9459992  11.9859978 107.6430014  65.9609047  11.8741596 106.7798845
  73.2309992  11.0699978 115.4830014  73.8719992  11.5259978 114.9390014
  72.3999992  11.1829978 115.0210014  73.2065171  11.1477502 115.3460237
  69.9779992   4.7509978 104.8960014  69.0399992   4.8619978 104.7440014
  70.2759992   5.6069978 105.2020014  69.8896402   4.8820621 104.9165571
  67.5999992  12.1209978 117.9330014  67.2539992  11.7389978 118.7400014
  67.3999992  13.0539978 118.0050014  67.5256523  12.1949095 118.0530735
  70.6969992   6.6179978 106.5560014  71.5889992   6.4799978 106.8750014
  70.7529992   7.4089978 106.0200014  70.8267107   6.7060526 106.5272091
  61.2049992  11.2319978 112.4660014  61.9499992  11.2289978 111.8650014
  61.2829992  10.4079978 112.9480014  61.3174158  11.1202916 112.4489153
  68.2059992  13.3949978 105.7220014  67.9109992  14.2219978 106.1030014
  67.5029992  12.7759978 105.9180014  68.0705471  13.4245227 105.8006698
  58.2129992   9.6919978 117.7810014  58.4359992   9.2739978 118.6130014
  57.6109992   9.0799978 117.3580014  58.1621260   9.5519933 117.8377320
  65.2299992   9.2089978 119.9940014  64.9339992   9.0439978 119.0990014
  66.1609992   8.9889978 119.9830014  65.3153982   9.1566578 119.8700045
  69.8499992  14.5829978 117.8840014  68.9499992  14.7659978 117.6160014
  69.8839992  14.8419978 118.8050014  69.7312909  14.6430815 117.9717852
  75.5449992  12.6279978 119.0880014  74.6939992  12.8659978 118.7210014
  76.1349992  12.6109978 118.3350014  75.5082408  12.6582966 118.9358879
  73.8769992  15.6129978 106.7160014  73.5039992  14.7879978 107.0250014
  74.1539992  15.4299978 105.8190014  73.8633871  15.4752441 106.6369677
  71.0369992  10.4209978 113.7370014  70.1089992  10.1899978 113.7100014
  71.4879992   9.6439978 113.4070014  70.9708165  10.2842774 113.6886790
  63.5799992  14.7499978 109.8700014  64.1079992  15.5229978 109.6700014
  62.6999992  14.9739978 109.5690014  63.5333176  14.8863161 109.8018409
  65.0079992  12.4129978 109.4470014  64.7669992  13.3379978 109.4880014
  64.2669992  11.9539978 109.8430014  64.8748390  12.4776403 109.5061404
  65.5219992  16.5619978 115.7620014  65.8849992  17.4159978 115.5280014
  66.0539992  16.2699978 116.5020014  65.6436090  16.6394058 115.8300219
  63.6909992  17.4339978 108.9920014  62.7409992  17.5399978 109.0430014
  64.0429992  18.2549978 109.3370014  63.6085480  17.5594438 109.0455999
  69.0659992  12.6609978 115.4620014  68.6409992  12.4329978 116.2890014
  69.6469992  11.9219978 115.2800014  69.0863930  12.5299843 115.5504731
  71.7249992  17.2129978 117.9320014  71.1229992  16.6569978 117.4360014
  72.0059992  17.8799978 117.3060014  71.6806829  17.2271613 117.7795443
  59.8469992   4.4459978 117.3390014  58.9549992   4.7839978 117.2720014
  59.7489992   3.5899978 117.7570014  59.7114965   4.3766499 117.3863044
  72.1349992  12.2619978 106.7630014  71.8579992  11.5339978 107.3190014
  73.0629992  12.3809978 106.9680014  72.2224499  12.1784213 106.8668044
  59.4989992  16.2499978 115.7740014  59.7159992  15.3179978 115.7430014
  59.7449992  16.5249978 116.6570014  59.5619809  16.1595686 115.8891690
  60.7499992  11.5239978 105.9500014  60.0639992  11.8769978 106.5170014
  61.2729992  12.2869978 105.7040014  60.7269033  11.6753746 105.9942661
  68.5819992   4.1869978 116.2290014  69.2809992   4.2609978 116.8790014
  68.2009992   3.3219978 116.3830014  68.6262097   4.0802389 116.3387997
  69.3659992   3.8389978 107.3260014  69.5859992   4.3099978 106.5230014
  69.9249992   4.2329978 107.9960014  69.4716730   3.9567432 107.3065906
  67.0349992  15.9689978 106.1890014  66.2179992  16.4659978 106.2410014
  67.5639992  16.4449978 105.5490014  66.9948508  16.1012543 106.1096035
  66.5659992   5.5669978 108.1610014  67.3779992   6.0709978 108.2070014
  66.3219992   5.4219978 109.0750014  66.6441467   5.6163749 108.2908575
  67.1019992   6.5529978 117.3460014  67.2209992   7.1269978 118.1030014
  67.7569992   5.8649978 117.4600014  67.2069146   6.5385574 117.4651314
  67.4499992   2.6479978 109.0990014  67.1029992   3.2649978 109.7440014
  68.1089992   3.1489978 108.6180014  67.4915949   2.8001099 109.1222271
  64.3729992  17.0129978 106.1710014  64.5339992  17.8129978 105.6700014
  64.1759992  17.3199978 107.0560014  64.3683919  17.1639129 106.2221006
  63.1079992   3.7109978 105.7860014  63.0239992   4.5989978 106.1330014
  63.9979992   3.4459978 106.0180014  63.2168163   3.7967179 105.8648596
  73.3059992   4.4599978 118.1810014  72.3899992   4.7219978 118.0930014
  73.6419992   4.4569978 117.2840014  73.2259789   4.4954626 118.0477847
  71.9089992   8.2099978 112.2760014  71.1109992   7.7949978 111.9480014
  72.3539992   7.5199978 112.7670014  71.8599684   8.0598628 112.2975227
  72.9949992  17.4659978 113.8990014  72.8389992  18.1449978 113.2420014
  73.9279992  17.5379978 114.1020014  73.0997387  17.5686390 113.8365342
  60.4899992   1.5839978 112.6360014  60.2609992   1.6429978 111.7080014
  60.0479992   0.7929978 112.9420014  60.3988801   1.4850540 112.5504729
  59.4209992  15.5249978 108.7960014  58.5879992  15.9969978 108.8240014
  59.9659992  16.0349978 108.1980014  59.3807590  15.6585897 108.7189194
  58.7089992  18.1369978 120.1260014  59.2489992  17.9209978 120.8860014
  58.2279992  17.3319978 119.9370014  58.7178613  17.9985400 120.2044782
  63.3059992  17.0569978 121.7470014  64.0739992  16.5979978 122.0880014
  63.2849992  16.8309978 120.8170014  63.4082135  16.9636668 121.6679491
  69.8829992  15.4369978 120.4760014  69.5319992  14.5799978 120.7190014
  70.6089992  15.5789978 121.0830014  69.9331590  15.3390178 120.5912907
  58.6159992  11.9479978 121.0810014  58.7599992  11.0459978 120.7940014
  57.8439992  12.2339978 120.5930014  58.5313303  11.8633243 120.9757908
  62.9569992  12.2909978 103.2130014  63.0219992  11.4969978 103.7440014
  63.6099992  12.1729978 102.5230014  63.0541754  12.1663337 103.1924259
  65.2709992  11.9169978 120.5130014  64.9429992  12.1879978 119.6560014
  65.4229992  10.9759978 120.4260014  65.2466030  11.8268973 120.3837945
  71.0059992  11.8329978 117.8970014  71.7509992  12.4219978 117.7770014
  70.2489992  12.4149978 117.9600014  71.0055205  11.9921997 117.8891119
  59.4489992   9.1479978 120.5010014  59.8569992   8.2909978 120.3800014
  59.1879992   9.1619978 121.4220014  59.4696016   9.0325119 120.6089192
  63.3959992   8.1569978 117.8750014  62.7769992   8.8309978 118.1550014
  63.7399992   8.4779978 117.0420014  63.3577605   8.2927198 117.8006707
  68.4149992  10.6279978 121.1520014  69.3689992  10.7119978 121.1250014
  68.2549992   9.9159978 121.7720014  68.5237182  10.5432842 121.2320733
  74.5679992  10.8609978 103.2270014  74.2939992  10.4369978 102.4140014
  74.6069992  11.7929978 103.0100014  74.5357716  10.9288827 103.0864286
  63.7349992   5.5119978 118.9570014  63.8849992   4.7829978 118.3550014
  63.7369992   6.2889978 118.3980014  63.7557967   5.5172708 118.7990541
  64.1479992   3.8809978 116.4500014  64.6829992   4.3329978 115.7980014
  63.2949992   3.7729978 116.0270014  64.1060374   3.9282665 116.3036710
  65.7289992   9.3209978 116.6890014  66.4799992   9.1649978 116.1160014
  65.3899992  10.1729978 116.4140014  65.7859587   9.4148138 116.5734078
  70.1449992   7.1359978 121.7180014  70.3369992   6.2049978 121.6060014
  71.0029992   7.5609978 121.7080014  70.2872269   7.0659928 121.7013192
  71.4619992   9.9249978 119.7950014  71.1799992  10.6339978 119.2180014
  72.4039992   9.8519978 119.6440014  71.5507656  10.0123128 119.6954809
  62.2139992   6.7099978 120.8690014  61.4459992   6.1769978 120.6590014
  62.8919992   6.3999978 120.2690014  62.2006973   6.5952375 120.7591796
  64.9529992   1.3379978 116.8810014  64.8549992   2.2839978 116.7760014
  64.2109992   0.9649978 116.4060014  64.8391913   1.4171813 116.8023539
  66.2169992   5.6589978 120.4450014  65.9819992   5.4399978 121.3470014
  65.4339992   5.4519978 119.9350014  66.0789219   5.6010066 120.4995852
  68.9329992   4.7869978 119.5210014  67.9849992   4.8189978 119.6530014
  69.2449992   4.1609978 120.1740014  68.8455190   4.7067262 119.6273564
  70.5669992   3.4209978 121.5260014  70.4699992   2.4689978 121.5200014
  70.2449992   3.6889978 122.3860014  70.5101761   3.3269744 121.6414936
  60.3939992   4.6299978 120.5730014  60.6059992   3.9239978 119.9630014
  60.2829992   4.1929978 121.4170014  60.4080269   4.4741921 120.6035873
  65.1749992   0.6319978 119.5530014  65.8869992  -0.0080022 119.5390014
  65.0739992   0.8979978 118.6390014  65.2587261   0.5804190 119.4275537
  65.5289992   2.3139978 121.6060014  65.3969992   1.8389978 120.7860014
  64.9289992   3.0589978 121.5510014  65.4299070   2.3495789 121.4863251
  65.0749992  19.1969978 104.7830014  66.0079992  19.3549978 104.9260014
  64.8109992  19.8729978 104.1580014  65.1669308  19.3099104 104.7181396
  57.2919992  19.2269978 109.3430014  56.6449992  18.7649978 108.8100014
  57.6469992  18.5549978 109.9250014  57.2514506  19.0729503 109.3487341
  58.1619992  17.3069978 111.1470014  57.8279992  16.4269978 111.3190014
  58.3849992  17.6529978 112.0120014  58.1463721  17.2331938 111.2874168
  75.7109992  18.1169978 114.1280014  75.6889992  18.3019978 115.0670014
  76.4009992  18.6849978 113.7870014  75.8013439  18.2191887 114.2104791
  75.2739992  17.6839978 117.0500014  74.7869992  16.9489978 116.6790014
  75.8229992  17.2899978 117.7280014  75.2815247  17.5301057 117.0908461
  73.7249992  13.4739978 121.6880014  72.8589992  13.3689978 122.0820014
  74.1009992  14.2319978 122.1340014  73.6573401  13.5621708 121.8022620
  75.0259992  11.7299978 107.2020014  75.8759992  12.1509978 107.3290014
  75.0309992  10.9899978 107.8090014  75.1431143  11.6876094 107.3014750
  75.4199992   9.7839978 109.0260014  74.6939992   9.3039978 109.4230014
  76.0019992   9.9889978 109.7580014  75.3991635   9.7459166 109.1793748
  75.1789992  12.5689978 113.9730014  76.0129992  12.1909978 113.6930014
  75.2909992  13.5119978 113.8540014  75.3082522  12.6447742 113.9186020
  73.6659992  15.4469978 116.2800014  73.0179992  15.7719978 116.9060014
  73.1479992  15.0059978 115.6060014  73.5074168  15.4318523 116.2745307
  75.6889992   9.6849978 105.4170014  75.1669992  10.0409978 104.6980014
  75.6559992  10.3599978 106.0950014  75.6130699   9.8249848 105.4102129
  73.2069992   8.3049978 109.5890014  73.0569992   7.3599978 109.5680014
  72.8529992   8.5859978 110.4320014  73.1385527   8.2135605 109.7001859
  58.2419992  10.3829978 113.5990014  58.4269992  10.3009978 112.6630014
  59.0919992  10.2589978 114.0230014  58.3820916  10.3550393 113.5282896
  74.0629992  10.2749978 119.2270014  74.6459992   9.5399978 119.4190014
  74.6269992  11.0469978 119.2740014  74.2189781  10.2788145 119.2596164
  75.5599992   8.1779978 119.9120014  74.6969992   7.7989978 119.7460014
  76.1639992   7.4389978 119.8380014  75.5235944   8.0262978 119.8792984
  72.9179992   5.8869978 108.0510014  73.1969992   4.9799978 108.1750014
  73.6769992   6.3209978 107.6620014  73.0588619   5.8214502 108.0153795
  73.5289992   6.4689978 113.4870014  74.4619992   6.6809978 113.4530014
  73.2939992   6.5699978 114.4090014  73.6248308   6.5116503 113.6070214
  73.5589992   7.2059978 116.2630014  72.7159992   7.4739978 116.6290014
  74.0009992   8.0279978 116.0520014  73.5034138   7.3538273 116.2845518
  57.8399992   5.6529978 119.7400014  58.7589992   5.5309978 119.9760014
  57.3899992   4.9029978 120.1290014  57.9051148   5.5348751 119.8249408
  75.8419992   1.1859978 121.6160014  76.1909992   0.5319978 121.0110014
  75.9889992   2.0229978 121.1770014  75.9097355   1.2096067 121.4736564
  73.5309992   3.1499978 108.0990014  73.7129992   2.7009978 108.9250014
  72.9309992   2.5659978 107.6360014  73.4747529   3.0096131 108.1493619
  59.0609992   3.9659978 112.6310014  59.5059992   3.1739978 112.9330014
  59.5269992   4.6819978 113.0620014  59.1849059   3.9544474 112.7306079
  57.3649992   6.9649978 113.7000014  57.8569992   6.7439978 112.9090014
  57.7269992   7.8049978 113.9810014  57.4812923   7.0483468 113.6297407
  75.3609992   3.2949978 119.9660014  74.4439992   3.5659978 119.9300014
  75.4839992   2.7599978 119.1820014  75.2520828   3.2597700 119.8550785
  57.6789992   3.2229978 107.7540014  56.7539992   3.4309978 107.6250014
  58.1329992   3.7069978 107.0650014  57.6136374   3.3169949 107.6430957
  72.4489992  18.2069978 109.7000014  73.1019992  17.8589978 109.0920014
  72.9599992  18.6949978 110.3460014  72.6072777  18.2253815 109.7042047
  57.6419992   1.9609978 116.0990014  56.9769992   1.7149978 116.7420014
  57.1989992   2.5829978 115.5210014  57.4910937   2.0113614 116.1089379
  59.8339992  15.1359978 120.2430014  59.0129992  15.3109978 119.7830014
  59.5819992  15.0629978 121.1640014  59.6876173  15.1500794 120.3044972
  62.7879992  16.1099978 116.5020014  62.3639992  16.9199978 116.2190014
  63.6929992  16.1959978 116.2000014  62.8522433  16.2323331 116.4225377
  67.0999992  17.5089978 119.4610014  67.2839992  17.1759978 120.3390014
  67.9459992  17.8189978 119.1390014  67.2396484  17.5052979 119.5377617
  69.4449992  18.7949978 118.7050014  70.1219992  18.1619978 118.4650014
  69.7659992  19.1959978 119.5120014  69.5811323  18.7625691 118.7813158
  74.3619992   1.3849978 117.7850014  73.5489992   1.7099978 117.3970014
  74.5949992   0.6239978 117.2520014  74.2822566   1.3266559 117.6599213
  60.1899992  19.3669978 116.5490014  59.4699992  19.8069978 116.0980014
  59.8249992  19.1159978 117.3980014  60.0419796  19.3933824 116.6019329
  62.6569992  18.9669978 115.5790014  61.7929992  19.0389978 115.9830014
  62.6019992  19.5139978 114.7950014  62.5311942  19.0507849 115.5284000
  67.3679992  18.8549978 114.7540014  66.9109992  19.3839978 114.1000014
  67.5309992  19.4579978 115.4800014  67.3274476  19.0089140 114.7625499
  69.6959992  17.7329978 115.6990014  68.7909992  17.8979978 115.4340014
  70.1239992  18.5859978 115.6340014  69.6300700  17.8709529 115.6539520
  72.2999992  19.3029978 115.9940014  72.1179992  20.2189978 115.7840014
  72.4769992  18.8919978 115.1480014  72.2989907  19.3729741 115.8507883
  59.6049992  17.9899978 113.4590014  59.5869992  17.5639978 114.3170014
  60.4099992  17.6709978 113.0510014  59.7113221  17.8887233 113.5210225
  61.7459992  16.6999978 112.1140014  61.5269992  15.7829978 112.2840014
  62.5699992  16.8399978 112.5800014  61.8274702  16.5935511 112.2002527
  64.2829992  17.1699978 112.9630014  64.4959992  16.2819978 112.6760014
  64.3479992  17.1349978 113.9180014  64.3209075  17.0438307 113.0527373
  67.7919992   2.8339978 112.1070014  67.1179992   2.2039978 112.3630014
  68.3559992   2.3499978 111.5040014  67.7760384   2.6823708 112.0605020
  72.9349992   0.9409978 112.2200014  73.5379992   1.4889978 111.7180014
  72.0649992   1.2599978 111.9800014  72.8999190   1.0591041 112.1188679
  74.6619992   2.0799978 110.5530014  75.2729992   1.5659978 110.0270014
  75.0439992   2.9569978 110.5770014  74.7974475   2.1281323 110.4841208
  60.1189992   1.4679978 109.9290014  59.3419992   1.2329978 109.4220014
  60.6489992   0.6709978 109.9380014  60.0843451   1.3281268 109.8608627
  64.6979992   1.3939978 109.7430014  65.5719992   1.7829978 109.7130014
  64.5619992   1.1789978 110.6650014  64.7993207   1.4181923 109.8636509
  70.2549992   1.4239978 111.3920014  70.3309992   1.5199978 110.4430014
  69.9799992   0.5169978 111.5210014  70.2282042   1.3144241 111.2793811
  71.6079992   1.4499978 107.0840014  70.9049992   2.0649978 106.8750014
  71.1629992   0.6129978 107.2160014  71.4516292   1.4210085 107.0732439
  58.8559992  17.2139978 106.6310014  58.1709992  17.1759978 105.9630014
  58.8599992  18.1269978 106.9190014  58.7628174  17.3321998 106.5785310
  65.8419992   3.4749978 106.6330014  66.0199992   2.8279978 107.3150014
  65.7879992   4.3089978 107.1000014  65.8591025   3.4990504 106.7896433
  67.7199992  18.4229978 105.0280014  68.5859992  18.7899978 104.8500014
  67.4739992  17.9839978 104.2140014  67.8052097  18.4138525 104.8936019
  74.4289992  17.9859978 107.7070014  74.2349992  17.2379978 107.1420014
  74.3899992  18.7439978 107.1240014  74.3971645  17.9860786 107.5508148
  60.0759992   1.9819978 119.4470014  59.7099992   1.2159978 119.8900014
  60.9889992   2.0109978 119.7340014  60.1493225   1.8811906 119.5463459
  62.0489992   1.3319978 120.9830014  62.9479992   1.0579978 120.7980014
  61.6629992   0.5899978 121.4470014  62.1197237   1.1941508 121.0204710
  70.4709992   0.6649978 121.1650014  70.5469992   0.2389978 122.0190014
  71.3639992   0.6779978 120.8220014  70.6022267   0.6083952 121.2355932
  73.6469992  16.7379978 119.8570014  72.8649992  16.5509978 119.3380014
  73.5749992  17.6669978 120.0750014  73.5300863  16.8380221 119.8153574
  88.0529992  10.6239978 109.8880014  88.1419992  11.5679978 109.7560014
  87.4149992  10.3489978 109.2300014  87.9789062  10.7159812 109.7809641
  86.9859992   9.8789978 113.3070014  86.9479992   9.2329978 114.0120014
  86.6639992   9.4119978 112.5360014  86.9372679   9.7274276 113.2992921
  79.3539992   9.4929978 114.9000014  79.3959992   8.8679978 115.6230014
  80.0569992  10.1169978 115.0820014  79.4547345   9.4917873 115.0235274
  90.6919992  12.8179978 111.6090014  90.2509992  12.0979978 112.0590014
  90.6789992  13.5389978 112.2380014  90.6297960  12.8168329 111.7557567
  80.2779992  13.9429978 113.4350014  79.9079992  13.1409978 113.0650014
  81.2189992  13.7749978 113.4810014  80.3545984  13.8104638 113.3905603
  76.8879992   7.6029978 108.8280014  76.4399992   8.4489978 108.8090014
  76.3269992   7.0239978 108.3120014  76.7509603   7.6403674 108.7556720
  77.5979992   9.7649978 110.9540014  77.8119992   8.9949978 111.4810014
  78.3359992   9.8549978 110.3500014  77.7269652   9.6718012 110.9445212
  87.8039992  17.9219978 111.8210014  88.4229992  17.2459978 111.5470014
  87.5949992  17.7039978 112.7290014  87.8606232  17.7997938 111.9062517
  85.3749992  12.3109978 113.7130014  85.6789992  11.6249978 113.1190014
  86.0969992  12.4299978 114.3310014  85.5141152  12.2332189 113.7152123
  94.0379992   3.9129978 114.5740014  94.0879992   4.5229978 115.3100014
  94.4639992   4.3739978 113.8510014  94.1024108   4.0587709 114.5770112
  88.5159992   6.7049978 114.0410014  88.6589992   5.7589978 114.0610014
  88.4099992   6.9119978 113.1120014  88.5212509   6.6034813 113.9182231
  81.6709992   4.8069978 111.3130014  81.7139992   5.6669978 110.8950014
  81.2129992   4.2549978 110.6790014  81.6149815   4.8500621 111.1701197
  89.3929992   4.9379978 109.7140014  90.0399992   4.6089978 110.3390014
  89.9029992   5.4549978 109.0910014  89.5504317   4.9629227 109.7152167
  78.2909992   7.2039978 112.0750014  78.9449992   6.6539978 112.5070014
  78.3149992   6.9299978 111.1580014  78.3837199   7.0917167 112.0101668
  83.4479992   8.7539978 111.2900014  84.0639992   8.2269978 111.8000014
  82.8609992   8.1139978 110.8870014  83.4529239   8.5954117 111.3052952
  94.4299992   5.3909978 116.8100014  93.7409992   6.0489978 116.7140014
  94.4449992   5.1929978 117.7460014  94.3376740   5.4543242 116.9234630
  80.4809992   3.7249978 115.3870014  80.2619992   4.2549978 114.6210014
  79.8129992   3.9509978 116.0340014  80.3607001   3.8281154 115.3696064
  87.8499992  13.2249978 108.9310014  87.5549992  12.9019978 108.0800014
  87.5259992  14.1249978 108.9720014  87.7657983  13.3024026 108.8199771
  83.0499992  11.3999978 115.6750014  82.3099992  11.9989978 115.7780014
  83.7639992  11.9539978 115.3590014  83.0453288  11.5567356 115.6463805
  91.1569992   4.2289978 111.6940014  90.9419992   3.4629978 112.2270014
  91.8129992   4.7009978 112.2070014  91.2162673   4.1880728 111.8361990
  80.0749992   5.6169978 113.3390014  80.6889992   6.2499978 113.7130014
  80.5869992   5.1449978 112.6830014  80.2282277   5.6397352 113.3014279
  81.4579992  13.3649978 116.4620014  81.4519992  14.2439978 116.0840014
  80.6039992  13.2809978 116.8870014  81.3417925  13.4739535 116.4676887
  77.5789992  13.0359978 107.2440014  77.3069992  13.2649978 106.3550014
  77.6239992  13.8729978 107.7040014  77.5478709  13.1806058 107.1846107
  91.2039992  14.6569978 113.9560014  90.2619992  14.7159978 114.1180014
  91.4799992  15.5629978 113.8190014  91.1125865  14.7875288 113.9596192
  91.5039992   2.9439978 115.3740014  90.7679992   3.5539978 115.3360014
  92.1879992   3.3589978 114.8470014  91.4955506   3.0836400 115.2976051
  84.5079992   1.0299978 112.8400014  84.3899992   0.0819978 112.7850014
  83.6529992   1.3629978 113.1130014  84.3762679   0.9451926 112.8693720
  89.4559992  16.4379978 110.5820014  89.8809992  15.7309978 110.0970014
  89.7729992  17.2399978 110.1650014  89.5570266  16.4495190 110.4592479
  90.6159992  14.3389978 109.0900014  90.3579992  13.6489978 108.4790014
  90.6869992  13.8959978 109.9360014  90.5902837  14.1847106 109.1206912
  92.3019992  12.9059978 117.5680014  92.4409992  12.3139978 116.8280014
  92.4689992  13.7789978 117.2110014  92.3435562  12.9429896 117.4186283
  86.7739992   9.8679978 107.3400014  86.0629992  10.4029978 106.9880014
  87.4649992   9.9229978 106.6800014  86.7700751   9.9486777 107.2025858
  94.1429992   9.2459978 115.6340014  93.4909992   9.9399978 115.7230014
  94.6089992   9.4559978 114.8240014  94.1165937   9.3695019 115.5367533
  90.1799992  10.0769978 108.2920014  89.4479992  10.3059978 108.8650014
  90.6269992   9.3639978 108.7470014  90.1402753  10.0118972 108.4319715
  90.0769992   8.2519978 117.3600014  90.1569992   9.0149978 117.9310014
  89.4759992   8.5309978 116.6690014  90.0067245   8.3942630 117.3448424
  81.8249992  10.7079978 110.1740014  81.4949992  10.3369978 109.3560014
  82.4139992  10.0369978 110.5210014  81.8593970  10.5666063 110.1089404
  83.1919992  14.1359978 112.8560014  83.0969992  13.5569978 112.0990014
  83.9209992  13.7649978 113.3520014  83.2776161  14.0065891 112.8195209
  82.1919992   9.4759978 113.8080014  82.7569992   9.5979978 113.0450014
  82.5109992  10.1139978 114.4470014  82.3123977   9.5788851 113.7899424
  88.5009992  14.9799978 114.5420014  88.2609992  15.6419978 115.1900014
  88.3029992  14.1449978 114.9670014  88.4413826  14.9578115 114.6881566
  83.0719992  13.8759978 118.5250014  82.7609992  14.6579978 118.9800014
  82.4219992  13.7229978 117.8390014  82.9415538  13.9624087 118.4945898
  79.9919992  10.0739978 117.7540014  80.0619992  10.7249978 118.4520014
  79.1009992  10.1769978 117.4190014  79.8811802  10.1769757 117.8042249
  86.7769992  15.9759978 109.4120014  87.2509992  16.2719978 110.1900014
  86.2139992  16.7149978 109.1790014  86.7657361  16.1162721 109.4868611
  81.3109992  15.9469978 119.2880014  81.3189992  15.8109978 118.3410014
  80.3949992  15.8299978 119.5400014  81.1882528  15.9125463 119.1923243
  80.8159992   9.7769978 107.7640014  80.5239992  10.5449978 107.2730014
  80.1409992   9.1179978 107.6010014  80.6848497   9.7929745 107.6748260
  76.9089992  12.1399978 116.5790014  76.4069992  12.1119978 115.7640014
  76.9139992  11.2349978 116.8880014  76.8410416  12.0137368 116.5093766
  76.6589992  14.9209978 113.4630014  77.6049992  14.7759978 113.4440014
  76.5459992  15.7049978 114.0000014  76.7733578  15.0071697 113.5330317
  94.8569992  15.5869978 119.1450014  94.8069992  14.6309978 119.1080014
  94.0299992  15.8539978 119.5460014  94.7383987  15.4925174 119.1941446
  85.8349992  15.1609978 118.0210014  85.9229992  15.9869978 118.4960014
  84.9719992  14.8309978 118.2700014  85.7303357  15.2295468 118.1197653
  86.2499992  18.9329978 107.8270014  86.1739992  18.8119978 106.8810014
  86.2819992  19.8819978 107.9460014  86.2439156  19.0447530 107.7135048
  79.9029992  17.7219978 109.6080014  80.0549992  17.3739978 110.4870014
  79.0519992  17.3649978 109.3530014  79.8087899  17.6261738 109.6937340
  89.0199992  18.0129978 107.5790014  88.0849992  18.1129978 107.7570014
  89.2999992  17.3029978 108.1570014  88.9298173  17.9307239 107.6814998
  92.0089992   7.0799978 119.6250014  91.6009992   7.5599978 118.9050014
  92.0489992   6.1739978 119.3170014  91.9585476   7.0233160 119.4848247
  79.1579992  13.4639978 117.6220014  79.3739992  13.1019978 118.4810014
  78.3019992  13.0889978 117.4120014  79.0719354  13.3637906 117.7112160
  81.7759992   1.9339978 113.6170014  80.9149992   1.8469978 113.2100014
  81.7539992   2.7899978 114.0450014  81.6550411   2.0377884 113.6190857
  86.4389992   1.6559978 116.9920014  86.8589992   1.2409978 117.7450014
  85.5059992   1.4769978 117.1090014  86.3703736   1.5749910 117.1108968
  89.7659992   5.4109978 117.8450014  89.2519992   5.2859978 118.6430014
  89.6099992   6.3239978 117.6010014  89.6746967   5.5172123 117.9210937
  81.8669992   6.8989978 114.7120014  81.2259992   6.8589978 115.4210014
  81.9049992   7.8259978 114.4750014  81.7843670   7.0187795 114.7770550
  81.8639992   7.1199978 109.6240014  80.9719992   6.7799978 109.5660014
  82.3149992   6.7429978 108.8690014  81.8026815   7.0223762 109.5139203
  87.3999992   7.5359978 108.4410014  86.9909992   8.3509978 108.1500014
  88.1199992   7.3959978 107.8270014  87.4414013   7.6286571 108.3180875
  86.5019992   7.7119978 119.9290014  85.9389992   7.0069978 120.2500014
  87.3279992   7.5909978 120.3970014  86.5366674   7.5992165 120.0361751
  88.4049992   6.9819978 111.2550014  88.2089992   7.5879978 110.5400014
  88.5859992   6.1489978 110.8210014  88.4026584   6.9522513 111.0984212
  79.6169992   7.2199978 116.5790014  79.5789992   7.6199978 117.4480014
  79.1269992   6.4029978 116.6700014  79.5455621   7.1642510 116.7101377
  76.2259992   4.3359978 110.4300014  76.8559992   4.3069978 111.1490014
  76.6749992   3.9109978 109.7000014  76.3730692   4.2745316 110.4297771
  87.6689992   8.6199978 115.9270014  87.9919992   7.9889978 115.2840014
  87.2279992   8.0859978 116.5870014  87.6535789   8.4613522 115.9282232
  84.4459992   4.5479978 110.7110014  83.5349992   4.6049978 110.9990014
  84.9509992   4.4879978 111.5210014  84.3895387   4.5476870 110.8600646
  79.2739992   6.1769978 109.5370014  78.3849992   6.2759978 109.1970014
  79.5709992   5.3349978 109.1910014  79.1924177   6.0767687 109.4436940
  82.9269992   6.1769978 107.1940014  83.8589992   6.3059978 107.3720014
  82.7119992   6.8459978 106.5440014  83.0254472   6.2850806 107.1304891
  88.8509992   3.7829978 113.9750014  88.1739992   3.9139978 114.6390014
  88.3659992   3.6279978 113.1650014  88.6927265   3.7799659 113.9563397
  92.1389992  19.4539978 120.2520014  92.3379992  19.8779978 119.4170014
  92.7939992  19.7979978 120.8590014  92.2548501  19.5586091 120.2197097
  79.7369992  11.9279978 119.8600014  80.4689992  12.1829978 120.4210014
  78.9559992  12.1329978 120.3750014  79.7317684  11.9906468 120.0064782
  85.7659992   7.3349978 112.5980014  86.3299992   6.7889978 112.0510014
  85.6179992   6.8139978 113.3860014  85.8232575   7.1896552 112.6296987
  80.7679992   3.4719978 109.0160014  80.4509992   2.5689978 108.9810014
  81.5489992   3.4739978 108.4630014  80.8302307   3.3486951 108.9364314
  84.3919992   5.7239978 115.0120014  83.5569992   6.1779978 115.1220014
  84.9159992   5.9999978 115.7640014  84.3485070   5.8234666 115.1287152
  84.9369992  11.9369978 106.6960014  84.1919992  11.4289978 106.3740014
  84.8019992  11.9859978 107.6430014  84.8169047  11.8741596 106.7798845
  92.0869992  11.0699978 115.4830014  92.7279992  11.5259978 114.9390014
  91.2559992  11.1829978 115.0210014  92.0625171  11.1477502 115.3460237
  88.8339992   4.7509978 104.8960014  87.8959992   4.8619978 104.7440014
  89.1319992   5.6069978 105.2020014  88.7456402   4.8820621 104.9165571
  86.4559992  12.1209978 117.9330014  86.1099992  11.7389978 118.7400014
  86.2559992  13.0539978 118.0050014  86.3816523  12.1949095 118.0530735
  89.5529992   6.6179978 106.5560014  90.4449992   6.4799978 106.8750014
  89.6089992   7.4089978 106.0200014  89.6827107   6.7060526 106.5272091
  80.0609992  11.2319978 112.4660014  80.8059992  11.2289978 111.8650014
  80.1389992  10.4079978 112.9480014  80.1734158  11.1202916 112.4489153
  87.0619992  13.3949978 105.7220014  86.7669992  14.2219978 106.1030014
  86.3589992  12.7759978 105.9180014  86.9265471  13.4245227 105.8006698
  77.0689992   9.6919978 117.7810014  77.2919992   9.2739978 118.6130014
  76.4669992   9.0799978 117.3580014  77.0181260   9.5519933 117.8377320
  84.0859992   9.2089978 119.9940014  83.7899992   9.0439978 119.0990014
  85.0169992   8.9889978 119.9830014  84.1713982   9.1566578 119.8700045
  88.7059992  14.5829978 117.8840014  87.8059992  14.7659978 117.6160014
  88.7399992  14.8419978 118.8050014  88.5872909  14.6430815 117.9717852
  94.4379992   6.8269978 106.2510014  93.8829992   6.4309978 105.5790014
  94.5379992   7.7379978 105.9730014  94.3755888   6.8958990 106.1215206
  94.4009992  12.6279978 119.0880014  93.5499992  12.8659978 118.7210014
  94.9909992  12.6109978 118.3350014  94.3642408  12.6582966 118.9358879
  92.7329992  15.6129978 106.7160014  92.3599992  14.7879978 107.0250014
  93.0099992  15.4299978 105.8190014  92.7193871  15.4752441 106.6369677
  89.8929992  10.4209978 113.7370014  88.9649992  10.1899978 113.7100014
  90.3439992   9.6439978 113.4070014  89.8268165  10.2842774 113.6886790
  82.4359992  14.7499978 109.8700014  82.9639992  15.5229978 109.6700014
  81.5559992  14.9739978 109.5690014  82.3893176  14.8863161 109.8018409
  83.8639992  12.4129978 109.4470014  83.6229992  13.3379978 109.4880014
  83.1229992  11.9539978 109.8430014  83.7308390  12.4776403 109.5061404
  84.3779992  16.5619978 115.7620014  84.7409992  17.4159978 115.5280014
  84.9099992  16.2699978 116.5020014  84.4996090  16.6394058 115.8300219
  82.5469992  17.4339978 108.9920014  81.5969992  17.5399978 109.0430014
  82.8989992  18.2549978 109.3370014  82.4645480  17.5594438 109.0455999
  87.9219992  12.6609978 115.4620014  87.4969992  12.4329978 116.2890014
  88.5029992  11.9219978 115.2800014  87.9423930  12.5299843 115.5504731
  90.1249992  13.5899978 104.5360014  90.4789992  13.2099978 105.3410014
  89.1769992  13.4959978 104.6230014  90.0451820  13.5253092 104.6578714
  90.5809992  17.2129978 117.9320014  89.9789992  16.6569978 117.4360014
  90.8619992  17.8799978 117.3060014  90.5366829  17.2271613 117.7795443
  78.7029992   4.4459978 117.3390014  77.8109992   4.7839978 117.2720014
  78.6049992   3.5899978 117.7570014  78.5674965   4.3766499 117.3863044
  90.9909992  12.2619978 106.7630014  90.7139992  11.5339978 107.3190014
  91.9189992  12.3809978 106.9680014  91.0784499  12.1784213 106.8668044
  78.3549992  16.2499978 115.7740014  78.5719992  15.3179978 115.7430014
  78.6009992  16.5249978 116.6570014  78.4179809  16.1595686 115.8891690
  84.2159992  14.7019978 102.9830014  84.4549992  13.9529978 102.4360014
  83.9469992  14.3139978 103.8160014  84.2123233  14.5471853 103.0207809
  83.1529992  14.2719978 105.4400014  83.2999992  13.7519978 106.2300014
  83.1499992  15.1789978 105.7460014  83.1727300  14.3233964 105.5895895
  79.6059992  11.5239978 105.9500014  78.9199992  11.8769978 106.5170014
  80.1289992  12.2869978 105.7040014  79.5829033  11.6753746 105.9942661
  87.4379992   4.1869978 116.2290014  88.1369992   4.2609978 116.8790014
  87.0569992   3.3219978 116.3830014  87.4822097   4.0802389 116.3387997
  88.2219992   3.8389978 107.3260014  88.4419992   4.3099978 106.5230014
  88.7809992   4.2329978 107.9960014  88.3276730   3.9567432 107.3065906
  85.8909992  15.9689978 106.1890014  85.0739992  16.4659978 106.2410014
  86.4199992  16.4449978 105.5490014  85.8508508  16.1012543 106.1096035
  85.4219992   5.5669978 108.1610014  86.2339992   6.0709978 108.2070014
  85.1779992   5.4219978 109.0750014  85.5001467   5.6163749 108.2908575
  85.9579992   6.5529978 117.3460014  86.0769992   7.1269978 118.1030014
  86.6129992   5.8649978 117.4600014  86.0629146   6.5385574 117.4651314
  86.3059992   2.6479978 109.0990014  85.9589992   3.2649978 109.7440014
  86.9649992   3.1489978 108.6180014  86.3475949   2.8001099 109.1222271
  83.2289992  17.0129978 106.1710014  83.3899992  17.8129978 105.6700014
  83.0319992  17.3199978 107.0560014  83.2243919  17.1639129 106.2221006
  92.1619992   4.4599978 118.1810014  91.2459992   4.7219978 118.0930014
  92.4979992   4.4569978 117.2840014  92.0819789   4.4954626 118.0477847
  90.7649992   8.2099978 112.2760014  89.9669992   7.7949978 111.9480014
  91.2099992   7.5199978 112.7670014  90.7159684   8.0598628 112.2975227
  91.8509992  17.4659978 113.8990014  91.6949992  18.1449978 113.2420014
  92.7839992  17.5379978 114.1020014  91.9557387  17.5686390 113.8365342
  79.3459992   1.5839978 112.6360014  79.1169992   1.6429978 111.7080014
  78.9039992   0.7929978 112.9420014  79.2548801   1.4850540 112.5504729
  78.2769992  15.5249978 108.7960014  77.4439992  15.9969978 108.8240014
  78.8219992  16.0349978 108.1980014  78.2367590  15.6585897 108.7189194
  77.5649992  18.1369978 120.1260014  78.1049992  17.9209978 120.8860014
  77.0839992  17.3319978 119.9370014  77.5738613  17.9985400 120.2044782
  82.1619992  17.0569978 121.7470014  82.9299992  16.5979978 122.0880014
  82.1409992  16.8309978 120.8170014  82.2642135  16.9636668 121.6679491
  88.7389992  15.4369978 120.4760014  88.3879992  14.5799978 120.7190014
  89.4649992  15.5789978 121.0830014  88.7891590  15.3390178 120.5912907
  90.8589992  16.3819978 103.3560014  91.1419992  15.5869978 103.8080014
  91.5979992  16.6149978 102.7950014  90.9976956  16.3047031 103.3419822
  77.4719992  11.9479978 121.0810014  77.6159992  11.0459978 120.7940014
  76.6999992  12.2339978 120.5930014  77.3873303  11.8633243 120.9757908
  84.1269992  11.9169978 120.5130014  83.7989992  12.1879978 119.6560014
  84.2789992  10.9759978 120.4260014  84.1026030  11.8268973 120.3837945
  89.8619992  11.8329978 117.8970014  90.6069992  12.4219978 117.7770014
  89.1049992  12.4149978 117.9600014  89.8615205  11.9921997 117.8891119
  78.3049992   9.1479978 120.5010014  78.7129992   8.2909978 120.3800014
  78.0439992   9.1619978 121.4220014  78.3256016   9.0325119 120.6089192
  82.2519992   8.1569978 117.8750014  81.6329992   8.8309978 118.1550014
  82.5959992   8.4779978 117.0420014  82.2137605   8.2927198 117.8006707
  87.2709992  10.6279978 121.1520014  88.2249992  10.7119978 121.1250014
  87.1109992   9.9159978 121.7720014  87.3797182  10.5432842 121.2320733
  93.4239992  10.8609978 103.2270014  93.1499992  10.4369978 102.4140014
  93.4629992  11.7929978 103.0100014  93.3917716  10.9288827 103.0864286
  82.5909992   5.5119978 118.9570014  82.7409992   4.7829978 118.3550014
  82.5929992   6.2889978 118.3980014  82.6117967   5.5172708 118.7990541
  83.0039992   3.8809978 116.4500014  83.5389992   4.3329978 115.7980014
  82.1509992   3.7729978 116.0270014  82.9620374   3.9282665 116.3036710
  84.5849992   9.3209978 116.6890014  85.3359992   9.1649978 116.1160014
  84.2459992  10.1729978 116.4140014  84.6419587   9.4148138 116.5734078
  89.0009992   7.1359978 121.7180014  89.1929992   6.2049978 121.6060014
  89.8589992   7.5609978 121.7080014  89.1432269   7.0659928 121.7013192
  90.3179992   9.9249978 119.7950014  90.0359992  10.6339978 119.2180014
  91.2599992   9.8519978 119.6440014  90.4067656  10.0123128 119.6954809
  81.0699992   6.7099978 120.8690014  80.3019992   6.1769978 120.6590014
  81.7479992   6.3999978 120.2690014  81.0566973   6.5952375 120.7591796
  83.8089992   1.3379978 116.8810014  83.7109992   2.2839978 116.7760014
  83.0669992   0.9649978 116.4060014  83.6951913   1.4171813 116.8023539
  85.0729992   5.6589978 120.4450014  84.8379992   5.4399978 121.3470014
  84.2899992   5.4519978 119.9350014  84.9349219   5.6010066 120.4995852
  87.7889992   4.7869978 119.5210014  86.8409992   4.8189978 119.6530014
  88.1009992   4.1609978 120.1740014  87.7015190   4.7067262 119.6273564
  89.4229992   3.4209978 121.5260014  89.3259992   2.4689978 121.5200014
  89.1009992   3.6889978 122.3860014  89.3661761   3.3269744 121.6414936
  79.2499992   4.6299978 120.5730014  79.4619992   3.9239978 119.9630014
  79.1389992   4.1929978 121.4170014  79.2640269   4.4741921 120.6035873
  84.0309992   0.6319978 119.5530014  84.7429992  -0.0080022 119.5390014
  83.9299992   0.8979978 118.6390014  84.1147261   0.5804190 119.4275537
  84.3849992   2.3139978 121.6060014  84.2529992   1.8389978 120.7860014
  83.7849992   3.0589978 121.5510014  84.2859070   2.3495789 121.4863251
  77.4989992  13.8339978 104.2650014  78.4129992  13.9129978 104.5390014
  77.5069992  13.1469978 103.5990014  77.6251143  13.7519085 104.2124274
  76.1479992  19.2269978 109.3430014  75.5009992  18.7649978 108.8100014
  76.5029992  18.5549978 109.9250014  76.1074506  19.0729503 109.3487341
  77.0179992  17.3069978 111.1470014  76.6839992  16.4269978 111.3190014
  77.2409992  17.6529978 112.0120014  77.0023721  17.2331938 111.2874168
  94.5669992  18.1169978 114.1280014  94.5449992  18.3019978 115.0670014
  95.2569992  18.6849978 113.7870014  94.6573439  18.2191887 114.2104791
  94.1299992  17.6839978 117.0500014  93.6429992  16.9489978 116.6790014
  94.6789992  17.2899978 117.7280014  94.1375247  17.5301057 117.0908461
  92.5809992  13.4739978 121.6880014  91.7149992  13.3689978 122.0820014
  92.9569992  14.2319978 122.1340014  92.5133401  13.5621708 121.8022620
  93.8819992  11.7299978 107.2020014  94.7319992  12.1509978 107.3290014
  93.8869992  10.9899978 107.8090014  93.9991143  11.6876094 107.3014750
  94.2759992   9.7839978 109.0260014  93.5499992   9.3039978 109.4230014
  94.8579992   9.9889978 109.7580014  94.2551635   9.7459166 109.1793748
  94.0349992  12.5689978 113.9730014  94.8689992  12.1909978 113.6930014
  94.1469992  13.5119978 113.8540014  94.1642522  12.6447742 113.9186020
  92.5219992  15.4469978 116.2800014  91.8739992  15.7719978 116.9060014
  92.0039992  15.0059978 115.6060014  92.3634168  15.4318523 116.2745307
  94.5449992   9.6849978 105.4170014  94.0229992  10.0409978 104.6980014
  94.5119992  10.3599978 106.0950014  94.4690699   9.8249848 105.4102129
  92.0629992   8.3049978 109.5890014  91.9129992   7.3599978 109.5680014
  91.7089992   8.5859978 110.4320014  91.9945527   8.2135605 109.7001859
  77.0979992  10.3829978 113.5990014  77.2829992  10.3009978 112.6630014
  77.9479992  10.2589978 114.0230014  77.2380916  10.3550393 113.5282896
  92.9189992  10.2749978 119.2270014  93.5019992   9.5399978 119.4190014
  93.4829992  11.0469978 119.2740014  93.0749781  10.2788145 119.2596164
  94.4159992   8.1779978 119.9120014  93.5529992   7.7989978 119.7460014
  95.0199992   7.4389978 119.8380014  94.3795944   8.0262978 119.8792984
  91.7739992   5.8869978 108.0510014  92.0529992   4.9799978 108.1750014
  92.5329992   6.3209978 107.6620014  91.9148619   5.8214502 108.0153795
  92.3849992   6.4689978 113.4870014  93.3179992   6.6809978 113.4530014
  92.1499992   6.5699978 114.4090014  92.4808308   6.5116503 113.6070214
  92.4149992   7.2059978 116.2630014  91.5719992   7.4739978 116.6290014
  92.8569992   8.0279978 116.0520014  92.3594138   7.3538273 116.2845518
  76.6959992   5.6529978 119.7400014  77.6149992   5.5309978 119.9760014
  76.2459992   4.9029978 120.1290014  76.7611148   5.5348751 119.8249408
  94.6979992   1.1859978 121.6160014  95.0469992   0.5319978 121.0110014
  94.8449992   2.0229978 121.1770014  94.7657355   1.2096067 121.4736564
  92.3869992   3.1499978 108.0990014  92.5689992   2.7009978 108.9250014
  91.7869992   2.5659978 107.6360014  92.3307529   3.0096131 108.1493619
  77.9169992   3.9659978 112.6310014  78.3619992   3.1739978 112.9330014
  78.3829992   4.6819978 113.0620014  78.0409059   3.9544474 112.7306079
  76.2209992   6.9649978 113.7000014  76.7129992   6.7439978 112.9090014
  76.5829992   7.8049978 113.9810014  76.3372923   7.0483468 113.6297407
  94.2169992   3.2949978 119.9660014  93.2999992   3.5659978 119.9300014
  94.3399992   2.7599978 119.1820014  94.1080828   3.2597700 119.8550785
  76.5349992   3.2229978 107.7540014  75.6099992   3.4309978 107.6250014
  76.9889992   3.7069978 107.0650014  76.4696374   3.3169949 107.6430957
  91.3049992  18.2069978 109.7000014  91.9579992  17.8589978 109.0920014
  91.8159992  18.6949978 110.3460014  91.4632777  18.2253815 109.7042047
  76.4979992   1.9609978 116.0990014  75.8329992   1.7149978 116.7420014
  76.0549992   2.5829978 115.5210014  76.3470937   2.0113614 116.1089379
  78.6899992  15.1359978 120.2430014  77.8689992  15.3109978 119.7830014
  78.4379992  15.0629978 121.1640014  78.5436173  15.1500794 120.3044972
  81.6439992  16.1099978 116.5020014  81.2199992  16.9199978 116.2190014
  82.5489992  16.1959978 116.2000014  81.7082433  16.2323331 116.4225377
  85.9559992  17.5089978 119.4610014  86.1399992  17.1759978 120.3390014
  86.8019992  17.8189978 119.1390014  86.0956484  17.5052979 119.5377617
  88.3009992  18.7949978 118.7050014  88.9779992  18.1619978 118.4650014
  88.6219992  19.1959978 119.5120014  88.4371323  18.7625691 118.7813158
  93.2179992   1.3849978 117.7850014  92.4049992   1.7099978 117.3970014
  93.4509992   0.6239978 117.2520014  93.1382566   1.3266559 117.6599213
  79.0459992  19.3669978 116.5490014  78.3259992  19.8069978 116.0980014
  78.6809992  19.1159978 117.3980014  78.8979796  19.3933824 116.6019329
  81.5129992  18.9669978 115.5790014  80.6489992  19.0389978 115.9830014
  81.4579992  19.5139978 114.7950014  81.3871942  19.0507849 115.5284000
  86.2239992  18.8549978 114.7540014  85.7669992  19.3839978 114.1000014
  86.3869992  19.4579978 115.4800014  86.1834476  19.0089140 114.7625499
  88.5519992  17.7329978 115.6990014  87.6469992  17.8979978 115.4340014
  88.9799992  18.5859978 115.6340014  88.4860700  17.8709529 115.6539520
  91.1559992  19.3029978 115.9940014  90.9739992  20.2189978 115.7840014
  91.3329992  18.8919978 115.1480014  91.1549907  19.3729741 115.8507883
  78.4609992  17.9899978 113.4590014  78.4429992  17.5639978 114.3170014
  79.2659992  17.6709978 113.0510014  78.5673221  17.8887233 113.5210225
  80.6019992  16.6999978 112.1140014  80.3829992  15.7829978 112.2840014
  81.4259992  16.8399978 112.5800014  80.6834702  16.5935511 112.2002527
  83.1389992  17.1699978 112.9630014  83.3519992  16.2819978 112.6760014
  83.2039992  17.1349978 113.9180014  83.1769075  17.0438307 113.0527373
  86.6479992   2.8339978 112.1070014  85.9739992   2.2039978 112.3630014
  87.2119992   2.3499978 111.5040014  86.6320384   2.6823708 112.0605020
  91.7909992   0.9409978 112.2200014  92.3939992   1.4889978 111.7180014
  90.9209992   1.2599978 111.9800014  91.7559190   1.0591041 112.1188679
  93.5179992   2.0799978 110.5530014  94.1289992   1.5659978 110.0270014
  93.8999992   2.9569978 110.5770014  93.6534475   2.1281323 110.4841208
  78.9749992   1.4679978 109.9290014  78.1979992   1.2329978 109.4220014
  79.5049992   0.6709978 109.9380014  78.9403451   1.3281268 109.8608627
  77.8109992   1.2659978 105.7330014  78.2499992   1.8769978 105.1410014
  77.1769992   1.8039978 106.2070014  77.7853859   1.4224064 105.7160305
  83.5539992   1.3939978 109.7430014  84.4279992   1.7829978 109.7130014
  83.4179992   1.1789978 110.6650014  83.6553207   1.4181923 109.8636509
  89.1109992   1.4239978 111.3920014  89.1869992   1.5199978 110.4430014
  88.8359992   0.5169978 111.5210014  89.0842042   1.3144241 111.2793811
  77.7119992  17.2139978 106.6310014  77.0269992  17.1759978 105.9630014
  77.7159992  18.1269978 106.9190014  77.6188174  17.3321998 106.5785310
  84.6979992   3.4749978 106.6330014  84.8759992   2.8279978 107.3150014
  84.6439992   4.3089978 107.1000014  84.7151025   3.4990504 106.7896433
  93.2849992  17.9859978 107.7070014  93.0909992  17.2379978 107.1420014
  93.2459992  18.7439978 107.1240014  93.2531645  17.9860786 107.5508148
  78.9319992   1.9819978 119.4470014  78.5659992   1.2159978 119.8900014
  79.8449992   2.0109978 119.7340014  79.0053225   1.8811906 119.5463459
  80.9049992   1.3319978 120.9830014  81.8039992   1.0579978 120.7980014
  80.5189992   0.5899978 121.4470014  80.9757237   1.1941508 121.0204710
  89.3269992   0.6649978 121.1650014  89.4029992   0.2389978 122.0190014
  90.2199992   0.6779978 120.8220014  89.4582267   0.6083952 121.2355932
  92.5029992  16.7379978 119.8570014  91.7209992  16.5509978 119.3380014
  92.4309992  17.6669978 120.0750014  92.3860863  16.8380221 119.8153574
 106.9089992  10.6239978 109.8880014 106.9979992  11.5679978 109.7560014
 106.2709992  10.3489978 109.2300014 106.8349062  10.7159812 109.7809641
 105.8419992   9.8789978 113.3070014 105.8039992   9.2329978 114.0120014
 105.5199992   9.4119978 112.5360014 105.7932679   9.7274276 113.2992921
  98.2099992   9.4929978 114.9000014  98.2519992   8.8679978 115.6230014
  98.9129992  10.1169978 115.0820014  98.3107345   9.4917873 115.0235274
 109.5479992  12.8179978 111.6090014 109.1069992  12.0979978 112.0590014
 109.5349992  13.5389978 112.2380014 109.4857960  12.8168329 111.7557567
  99.1339992  13.9429978 113.4350014  98.7639992  13.1409978 113.0650014
 100.0749992  13.7749978 113.4810014  99.2105984  13.8104638 113.3905603
  95.7439992   7.6029978 108.8280014  95.2959992   8.4489978 108.8090014
  95.1829992   7.0239978 108.3120014  95.6069603   7.6403674 108.7556720
  96.4539992   9.7649978 110.9540014  96.6679992   8.9949978 111.4810014
  97.1919992   9.8549978 110.3500014  96.5829652   9.6718012 110.9445212
 106.6599992  17.9219978 111.8210014 107.2789992  17.2459978 111.5470014
 106.4509992  17.7039978 112.7290014 106.7166232  17.7997938 111.9062517
 104.2309992  12.3109978 113.7130014 104.5349992  11.6249978 113.1190014
 104.9529992  12.4299978 114.3310014 104.3701152  12.2332189 113.7152124
 112.8939992   3.9129978 114.5740014 112.9439992   4.5229978 115.3100014
 113.3199992   4.3739978 113.8510014 112.9584108   4.0587709 114.5770112
 107.3719992   6.7049978 114.0410014 107.5149992   5.7589978 114.0610014
 107.2659992   6.9119978 113.1120014 107.3772509   6.6034813 113.9182231
 100.5269992   4.8069978 111.3130014 100.5699992   5.6669978 110.8950014
 100.0689992   4.2549978 110.6790014 100.4709815   4.8500621 111.1701197
 108.2489992   4.9379978 109.7140014 108.8959992   4.6089978 110.3390014
 108.7589992   5.4549978 109.0910014 108.4064317   4.9629227 109.7152167
  97.1469992   7.2039978 112.0750014  97.8009992   6.6539978 112.5070014
  97.1709992   6.9299978 111.1580014  97.2397199   7.0917167 112.0101668
 102.3039992   8.7539978 111.2900014 102.9199992   8.2269978 111.8000014
 101.7169992   8.1139978 110.8870014 102.3089239   8.5954117 111.3052952
 113.2859992   5.3909978 116.8100014 112.5969992   6.0489978 116.7140014
 113.3009992   5.1929978 117.7460014 113.1936740   5.4543242 116.9234630
  99.3369992   3.7249978 115.3870014  99.1179992   4.2549978 114.6210014
  98.6689992   3.9509978 116.0340014  99.2167001   3.8281154 115.3696064
 106.7059992  13.2249978 108.9310014 106.4109992  12.9019978 108.0800014
 106.3819992  14.1249978 108.9720014 106.6217983  13.3024026 108.8199771
 101.9059992  11.3999978 115.6750014 101.1659992  11.9989978 115.7780014
 102.6199992  11.9539978 115.3590014 101.9013288  11.5567356 115.6463805
 110.0129992   4.2289978 111.6940014 109.7979992   3.4629978 112.2270014
 110.6689992   4.7009978 112.2070014 110.0722673   4.1880728 111.8361990
  98.9309992   5.6169978 113.3390014  99.5449992   6.2499978 113.7130014
  99.4429992   5.1449978 112.6830014  99.0842277   5.6397352 113.3014279
 100.3139992  13.3649978 116.4620014 100.3079992  14.2439978 116.0840014
  99.4599992  13.2809978 116.8870014 100.1977925  13.4739535 116.4676887
  96.4349992  13.0359978 107.2440014  96.1629992  13.2649978 106.3550014
  96.4799992  13.8729978 107.7040014  96.4038709  13.1806058 107.1846107
 110.0599992  14.6569978 113.9560014 109.1179992  14.7159978 114.1180014
 110.3359992  15.5629978 113.8190014 109.9685865  14.7875288 113.9596192
 110.3599992   2.9439978 115.3740014 109.6239992   3.5539978 115.3360014
 111.0439992   3.3589978 114.8470014 110.3515506   3.0836400 115.2976051
 103.3639992   1.0299978 112.8400014 103.2459992   0.0819978 112.7850014
 102.5089992   1.3629978 113.1130014 103.2322679   0.9451926 112.8693720
 108.3119992  16.4379978 110.5820014 108.7369992  15.7309978 110.0970014
 108.6289992  17.2399978 110.1650014 108.4130266  16.4495190 110.4592479
 109.4719992  14.3389978 109.0900014 109.2139992  13.6489978 108.4790014
 109.5429992  13.8959978 109.9360014 109.4462837  14.1847106 109.1206912
 111.1579992  12.9059978 117.5680014 111.2969992  12.3139978 116.8280014
 111.3249992  13.7789978 117.2110014 111.1995562  12.9429896 117.4186283
 105.6299992   9.8679978 107.3400014 104.9189992  10.4029978 106.9880014
 106.3209992   9.9229978 106.6800014 105.6260751   9.9486777 107.2025858
 105.6839992   8.3249978 104.3790014 106.3849992   8.3479978 105.0300014
 105.9859992   7.6969978 103.7230014 105.8208282   8.2432339 104.3794496
 112.9989992   9.2459978 115.6340014 112.3469992   9.9399978 115.7230014
 113.4649992   9.4559978 114.8240014 112.9725937   9.3695019 115.5367533
 109.0359992  10.0769978 108.2920014 108.3039992  10.3059978 108.8650014
 109.4829992   9.3639978 108.7470014 108.9962753  10.0118972 108.4319715
 108.9329992   8.2519978 117.3600014 109.0129992   9.0149978 117.9310014
 108.3319992   8.5309978 116.6690014 108.8627245   8.3942630 117.3448424
 100.6809992  10.7079978 110.1740014 100.3509992  10.3369978 109.3560014
 101.2699992  10.0369978 110.5210014 100.7153970  10.5666063 110.1089404
 102.0479992  14.1359978 112.8560014 101.9529992  13.5569978 112.0990014
 102.7769992  13.7649978 113.3520014 102.1336161  14.0065891 112.8195209
 101.0479992   9.4759978 113.8080014 101.6129992   9.5979978 113.0450014
 101.3669992  10.1139978 114.4470014 101.1683977   9.5788851 113.7899424
 107.3569992  14.9799978 114.5420014 107.1169992  15.6419978 115.1900014
 107.1589992  14.1449978 114.9670014 107.2973826  14.9578115 114.6881566
 101.9279992  13.8759978 118.5250014 101.6169992  14.6579978 118.9800014
 101.2779992  13.7229978 117.8390014 101.7975538  13.9624087 118.4945898
 107.9069992   9.2399978 105.9770014 108.4859992   9.3899978 106.7240014
 108.3209992   9.7099978 105.2540014 108.0423122   9.3241277 105.9815042
  98.8479992  10.0739978 117.7540014  98.9179992  10.7249978 118.4520014
  97.9569992  10.1769978 117.4190014  98.7371802  10.1769757 117.8042249
 105.6329992  15.9759978 109.4120014 106.1069992  16.2719978 110.1900014
 105.0699992  16.7149978 109.1790014 105.6217361  16.1162721 109.4868611
 100.1669992  15.9469978 119.2880014 100.1749992  15.8109978 118.3410014
  99.2509992  15.8299978 119.5400014 100.0442528  15.9125463 119.1923243
 111.6059992   0.9899978 105.7900014 110.7059992   1.1289978 106.0850014
 111.8579992   1.8209978 105.3880014 111.5168683   1.1214055 105.7760232
  99.6719992   9.7769978 107.7640014  99.3799992  10.5449978 107.2730014
  98.9969992   9.1179978 107.6010014  99.5408497   9.7929745 107.6748260
  95.7649992  12.1399978 116.5790014  95.2629992  12.1119978 115.7640014
  95.7699992  11.2349978 116.8880014  95.6970416  12.0137368 116.5093766
  95.5149992  14.9209978 113.4630014  96.4609992  14.7759978 113.4440014
  95.4019992  15.7049978 114.0000014  95.6293578  15.0071697 113.5330317
 113.7129992  15.5869978 119.1450014 113.6629992  14.6309978 119.1080014
 112.8859992  15.8539978 119.5460014 113.5943987  15.4925174 119.1941446
 104.6909992  15.1609978 118.0210014 104.7789992  15.9869978 118.4960014
 103.8279992  14.8309978 118.2700014 104.5863357  15.2295468 118.1197653
 105.1059992  18.9329978 107.8270014 105.0299992  18.8119978 106.8810014
 105.1379992  19.8819978 107.9460014 105.0999156  19.0447530 107.7135048
  98.7589992  17.7219978 109.6080014  98.9109992  17.3739978 110.4870014
  97.9079992  17.3649978 109.3530014  98.6647899  17.6261738 109.6937340
 108.2069992  18.0869978 104.8290014 108.5819992  17.3429978 104.3590014
 108.2119992  17.8169978 105.7480014 108.2590024  17.9486950 104.8887987
 107.8759992  18.0129978 107.5790014 106.9409992  18.1129978 107.7570014
 108.1559992  17.3029978 108.1570014 107.7858173  17.9307239 107.6814998
 110.8649992   7.0799978 119.6250014 110.4569992   7.5599978 118.9050014
 110.9049992   6.1739978 119.3170014 110.8145476   7.0233160 119.4848247
  98.0139992  13.4639978 117.6220014  98.2299992  13.1019978 118.4810014
  97.1579992  13.0889978 117.4120014  97.9279354  13.3637906 117.7112160
 100.6319992   1.9339978 113.6170014  99.7709992   1.8469978 113.2100014
 100.6099992   2.7899978 114.0450014 100.5110411   2.0377884 113.6190857
 105.2949992   1.6559978 116.9920014 105.7149992   1.2409978 117.7450014
 104.3619992   1.4769978 117.1090014 105.2263736   1.5749910 117.1108968
 108.6219992   5.4109978 117.8450014 108.1079992   5.2859978 118.6430014
 108.4659992   6.3239978 117.6010014 108.5306967   5.5172123 117.9210937
 100.7229992   6.8989978 114.7120014 100.0819992   6.8589978 115.4210014
 100.7609992   7.8259978 114.4750014 100.6403670   7.0187795 114.7770550
 100.7199992   7.1199978 109.6240014  99.8279992   6.7799978 109.5660014
 101.1709992   6.7429978 108.8690014 100.6586815   7.0223762 109.5139203
 106.2559992   7.5359978 108.4410014 105.8469992   8.3509978 108.1500014
 106.9759992   7.3959978 107.8270014 106.2974013   7.6286571 108.3180875
 105.3579992   7.7119978 119.9290014 104.7949992   7.0069978 120.2500014
 106.1839992   7.5909978 120.3970014 105.3926674   7.5992165 120.0361751
 107.2609992   6.9819978 111.2550014 107.0649992   7.5879978 110.5400014
 107.4419992   6.1489978 110.8210014 107.2586584   6.9522513 111.0984212
  98.4729992   7.2199978 116.5790014  98.4349992   7.6199978 117.4480014
  97.9829992   6.4029978 116.6700014  98.4015621   7.1642510 116.7101377
 101.8389992   4.5939978 103.3780014 101.4079992   4.1489978 104.1080014
 101.1209992   4.9649978 102.8660014 101.6829363   4.5832968 103.4086211
  95.0819992   4.3359978 110.4300014  95.7119992   4.3069978 111.1490014
  95.5309992   3.9109978 109.7000014  95.2290692   4.2745316 110.4297771
  96.3559992   5.0819978 105.8540014  96.8299992   5.6729978 105.2690014
  95.6379992   5.6119978 106.2010014  96.3238640   5.2345511 105.8207969
 106.5249992   8.6199978 115.9270014 106.8479992   7.9889978 115.2840014
 106.0839992   8.0859978 116.5870014 106.5095789   8.4613522 115.9282232
 103.3019992   4.5479978 110.7110014 102.3909992   4.6049978 110.9990014
 103.8069992   4.4879978 111.5210014 103.2455387   4.5476870 110.8600646
  98.1299992   6.1769978 109.5370014  97.2409992   6.2759978 109.1970014
  98.4269992   5.3349978 109.1910014  98.0484177   6.0767687 109.4436940
 101.7829992   6.1769978 107.1940014 102.7149992   6.3059978 107.3720014
 101.5679992   6.8459978 106.5440014 101.8814472   6.2850806 107.1304891
 107.7069992   3.7829978 113.9750014 107.0299992   3.9139978 114.6390014
 107.2219992   3.6279978 113.1650014 107.5487265   3.7799659 113.9563397
 110.9949992  19.4539978 120.2520014 111.1939992  19.8779978 119.4170014
 111.6499992  19.7979978 120.8590014 111.1108501  19.5586091 120.2197097
  98.5929992  11.9279978 119.8600014  99.3249992  12.1829978 120.4210014
  97.8119992  12.1329978 120.3750014  98.5877684  11.9906468 120.0064782
 104.6219992   7.3349978 112.5980014 105.1859992   6.7889978 112.0510014
 104.4739992   6.8139978 113.3860014 104.6792575   7.1896552 112.6296987
  99.6239992   3.4719978 109.0160014  99.3069992   2.5689978 108.9810014
 100.4049992   3.4739978 108.4630014  99.6862307   3.3486951 108.9364314
 103.2479992   5.7239978 115.0120014 102.4129992   6.1779978 115.1220014
 103.7719992   5.9999978 115.7640014 103.2045070   5.8234666 115.1287152
 103.7929992  11.9369978 106.6960014 103.0479992  11.4289978 106.3740014
 103.6579992  11.9859978 107.6430014 103.6729047  11.8741596 106.7798845
 110.9429992  11.0699978 115.4830014 111.5839992  11.5259978 114.9390014
 110.1119992  11.1829978 115.0210014 110.9185171  11.1477502 115.3460237
 105.3119992  12.1209978 117.9330014 104.9659992  11.7389978 118.7400014
 105.1119992  13.0539978 118.0050014 105.2376523  12.1949095 118.0530735
 108.4089992   6.6179978 106.5560014 109.3009992   6.4799978 106.8750014
 108.4649992   7.4089978 106.0200014 108.5387107   6.7060526 106.5272091
  98.9169992  11.2319978 112.4660014  99.6619992  11.2289978 111.8650014
  98.9949992  10.4079978 112.9480014  99.0294158  11.1202916 112.4489153
 105.9179992  13.3949978 105.7220014 105.6229992  14.2219978 106.1030014
 105.2149992  12.7759978 105.9180014 105.7825471  13.4245227 105.8006698
  95.9249992   9.6919978 117.7810014  96.1479992   9.2739978 118.6130014
  95.3229992   9.0799978 117.3580014  95.8741260   9.5519933 117.8377320
 102.9419992   9.2089978 119.9940014 102.6459992   9.0439978 119.0990014
 103.8729992   8.9889978 119.9830014 103.0273982   9.1566578 119.8700045
 107.5619992  14.5829978 117.8840014 106.6619992  14.7659978 117.6160014
 107.5959992  14.8419978 118.8050014 107.4432909  14.6430815 117.9717852
 113.2939992   6.8269978 106.2510014 112.7389992   6.4309978 105.5790014
 113.3939992   7.7379978 105.9730014 113.2315888   6.8958990 106.1215206
 113.2569992  12.6279978 119.0880014 112.4059992  12.8659978 118.7210014
 113.8469992  12.6109978 118.3350014 113.2202408  12.6582966 118.9358879
 111.5889992  15.6129978 106.7160014 111.2159992  14.7879978 107.0250014
 111.8659992  15.4299978 105.8190014 111.5753871  15.4752441 106.6369677
 108.7489992  10.4209978 113.7370014 107.8209992  10.1899978 113.7100014
 109.1999992   9.6439978 113.4070014 108.6828165  10.2842774 113.6886790
 101.2919992  14.7499978 109.8700014 101.8199992  15.5229978 109.6700014
 100.4119992  14.9739978 109.5690014 101.2453176  14.8863161 109.8018409
 102.7199992  12.4129978 109.4470014 102.4789992  13.3379978 109.4880014
 101.9789992  11.9539978 109.8430014 102.5868390  12.4776403 109.5061404
 103.2339992  16.5619978 115.7620014 103.5969992  17.4159978 115.5280014
 103.7659992  16.2699978 116.5020014 103.3556090  16.6394058 115.8300219
 101.4029992  17.4339978 108.9920014 100.4529992  17.5399978 109.0430014
 101.7549992  18.2549978 109.3370014 101.3205480  17.5594438 109.0455999
 106.7779992  12.6609978 115.4620014 106.3529992  12.4329978 116.2890014
 107.3589992  11.9219978 115.2800014 106.7983930  12.5299843 115.5504732
 108.9809992  13.5899978 104.5360014 109.3349992  13.2099978 105.3410014
 108.0329992  13.4959978 104.6230014 108.9011820  13.5253092 104.6578714
 109.4369992  17.2129978 117.9320014 108.8349992  16.6569978 117.4360014
 109.7179992  17.8799978 117.3060014 109.3926829  17.2271613 117.7795443
 113.4849992  18.0689978 104.7370014 114.2289992  18.6549978 104.5970014
 112.7909992  18.6379978 105.0710014 113.4930201  18.2260603 104.7629772
  97.5589992   4.4459978 117.3390014  96.6669992   4.7839978 117.2720014
  97.4609992   3.5899978 117.7570014  97.4234965   4.3766499 117.3863044
 109.8469992  12.2619978 106.7630014 109.5699992  11.5339978 107.3190014
 110.7749992  12.3809978 106.9680014 109.9344499  12.1784213 106.8668044
  97.2109992  16.2499978 115.7740014  97.4279992  15.3179978 115.7430014
  97.4569992  16.5249978 116.6570014  97.2739809  16.1595686 115.8891690
  98.4619992  11.5239978 105.9500014  97.7759992  11.8769978 106.5170014
  98.9849992  12.2869978 105.7040014  98.4389033  11.6753746 105.9942661
 106.2939992   4.1869978 116.2290014 106.9929992   4.2609978 116.8790014
 105.9129992   3.3219978 116.3830014 106.3382097   4.0802389 116.3387997
 107.0779992   3.8389978 107.3260014 107.2979992   4.3099978 106.5230014
 107.6369992   4.2329978 107.9960014 107.1836730   3.9567432 107.3065906
 104.2779992   5.5669978 108.1610014 105.0899992   6.0709978 108.2070014
 104.0339992   5.4219978 109.0750014 104.3561467   5.6163749 108.2908575
 104.8139992   6.5529978 117.3460014 104.9329992   7.1269978 118.1030014
 105.4689992   5.8649978 117.4600014 104.9189146   6.5385574 117.4651313
 105.1619992   2.6479978 109.0990014 104.8149992   3.2649978 109.7440014
 105.8209992   3.1489978 108.6180014 105.2035949   2.8001099 109.1222271
 102.0849992  17.0129978 106.1710014 102.2459992  17.8129978 105.6700014
 101.8879992  17.3199978 107.0560014 102.0803919  17.1639129 106.2221006
 100.8199992   3.7109978 105.7860014 100.7359992   4.5989978 106.1330014
 101.7099992   3.4459978 106.0180014 100.9288163   3.7967179 105.8648596
 111.0179992   4.4599978 118.1810014 110.1019992   4.7219978 118.0930014
 111.3539992   4.4569978 117.2840014 110.9379789   4.4954626 118.0477847
 109.6209992   8.2099978 112.2760014 108.8229992   7.7949978 111.9480014
 110.0659992   7.5199978 112.7670014 109.5719684   8.0598628 112.2975227
  99.0779992  14.1379978 104.8470014  99.6699992  14.8379978 105.1230014
  99.5369992  13.7049978 104.1270014  99.2210791  14.1752908 104.7874607
 110.7069992  17.4659978 113.8990014 110.5509992  18.1449978 113.2420014
 111.6399992  17.5379978 114.1020014 110.8117387  17.5686390 113.8365342
  98.2019992   1.5839978 112.6360014  97.9729992   1.6429978 111.7080014
  97.7599992   0.7929978 112.9420014  98.1108801   1.4850540 112.5504729
  97.1329992  15.5249978 108.7960014  96.2999992  15.9969978 108.8240014
  97.6779992  16.0349978 108.1980014  97.0927590  15.6585897 108.7189194
  96.4209992  18.1369978 120.1260014  96.9609992  17.9209978 120.8860014
  95.9399992  17.3319978 119.9370014  96.4298613  17.9985400 120.2044782
 101.0179992  17.0569978 121.7470014 101.7859992  16.5979978 122.0880014
 100.9969992  16.8309978 120.8170014 101.1202135  16.9636668 121.6679491
 107.5949992  15.4369978 120.4760014 107.2439992  14.5799978 120.7190014
 108.3209992  15.5789978 121.0830014 107.6451590  15.3390178 120.5912907
 109.7149992  16.3819978 103.3560014 109.9979992  15.5869978 103.8080014
 110.4539992  16.6149978 102.7950014 109.8536956  16.3047031 103.3419822
  96.3279992  11.9479978 121.0810014  96.4719992  11.0459978 120.7940014
  95.5559992  12.2339978 120.5930014  96.2433303  11.8633243 120.9757908
 102.9829992  11.9169978 120.5130014 102.6549992  12.1879978 119.6560014
 103.1349992  10.9759978 120.4260014 102.9586030  11.8268973 120.3837945
 108.7179992  11.8329978 117.8970014 109.4629992  12.4219978 117.7770014
 107.9609992  12.4149978 117.9600014 108.7175205  11.9921997 117.8891119
  97.1609992   9.1479978 120.5010014  97.5689992   8.2909978 120.3800014
  96.8999992   9.1619978 121.4220014  97.1816016   9.0325119 120.6089192
 101.8189992  10.2639978 105.5190014 101.3589992   9.7799978 106.2050014
 102.0739992   9.5949978 104.8830014 101.7905038  10.1073689 105.5269447
 101.1079992   8.1569978 117.8750014 100.4889992   8.8309978 118.1550014
 101.4519992   8.4779978 117.0420014 101.0697605   8.2927198 117.8006707
 102.8899992   8.5069978 103.7810014 102.7089992   8.3519978 102.8540014
 103.8399992   8.6149978 103.8260014 102.9936566   8.5003669 103.6600929
 106.1269992  10.6279978 121.1520014 107.0809992  10.7119978 121.1250014
 105.9669992   9.9159978 121.7720014 106.2357182  10.5432842 121.2320733
 101.4469992   5.5119978 118.9570014 101.5969992   4.7829978 118.3550014
 101.4489992   6.2889978 118.3980014 101.4677967   5.5172708 118.7990541
 101.8599992   3.8809978 116.4500014 102.3949992   4.3329978 115.7980014
 101.0069992   3.7729978 116.0270014 101.8180374   3.9282665 116.3036710
 103.4409992   9.3209978 116.6890014 104.1919992   9.1649978 116.1160014
 103.1019992  10.1729978 116.4140014 103.4979587   9.4148138 116.5734078
 107.8569992   7.1359978 121.7180014 108.0489992   6.2049978 121.6060014
 108.7149992   7.5609978 121.7080014 107.9992269   7.0659928 121.7013192
 109.1739992   9.9249978 119.7950014 108.8919992  10.6339978 119.2180014
 110.1159992   9.8519978 119.6440014 109.2627656  10.0123128 119.6954809
  99.9259992   6.7099978 120.8690014  99.1579992   6.1769978 120.6590014
 100.6039992   6.3999978 120.2690014  99.9126973   6.5952375 120.7591796
 102.6649992   1.3379978 116.8810014 102.5669992   2.2839978 116.7760014
 101.9229992   0.9649978 116.4060014 102.5511913   1.4171813 116.8023539
 103.9289992   5.6589978 120.4450014 103.6939992   5.4399978 121.3470014
 103.1459992   5.4519978 119.9350014 103.7909219   5.6010066 120.4995852
 106.6449992   4.7869978 119.5210014 105.6969992   4.8189978 119.6530014
 106.9569992   4.1609978 120.1740014 106.5575190   4.7067262 119.6273563
 108.2789992   3.4209978 121.5260014 108.1819992   2.4689978 121.5200014
 107.9569992   3.6889978 122.3860014 108.2221761   3.3269744 121.6414936
  98.1059992   4.6299978 120.5730014  98.3179992   3.9239978 119.9630014
  97.9949992   4.1929978 121.4170014  98.1200269   4.4741921 120.6035873
 102.8869992   0.6319978 119.5530014 103.5989992  -0.0080022 119.5390014
 102.7859992   0.8979978 118.6390014 102.9707261   0.5804190 119.4275537
 103.2409992   2.3139978 121.6060014 103.1089992   1.8389978 120.7860014
 102.6409992   3.0589978 121.5510014 103.1419070   2.3495789 121.4863251
  96.3549992  13.8339978 104.2650014  97.2689992  13.9129978 104.5390014
  96.3629992  13.1469978 103.5990014  96.4811143  13.7519085 104.2124274
  95.0039992  19.2269978 109.3430014  94.3569992  18.7649978 108.8100014
  95.3589992  18.5549978 109.9250014  94.9634506  19.0729503 109.3487341
  95.8739992  17.3069978 111.1470014  95.5399992  16.4269978 111.3190014
  96.0969992  17.6529978 112.0120014  95.8583721  17.2331938 111.2874168
 113.4229992  18.1169978 114.1280014 113.4009992  18.3019978 115.0670014
 114.1129992  18.6849978 113.7870014 113.5133439  18.2191887 114.2104791
 112.9859992  17.6839978 117.0500014 112.4989992  16.9489978 116.6790014
 113.5349992  17.2899978 117.7280014 112.9935247  17.5301057 117.0908461
 111.4369992  13.4739978 121.6880014 110.5709992  13.3689978 122.0820014
 111.8129992  14.2319978 122.1340014 111.3693401  13.5621708 121.8022620
 112.7379992  11.7299978 107.2020014 113.5879992  12.1509978 107.3290014
 112.7429992  10.9899978 107.8090014 112.8551143  11.6876094 107.3014750
 113.1319992   9.7839978 109.0260014 112.4059992   9.3039978 109.4230014
 113.7139992   9.9889978 109.7580014 113.1111635   9.7459166 109.1793748
 112.8909992  12.5689978 113.9730014 113.7249992  12.1909978 113.6930014
 113.0029992  13.5119978 113.8540014 113.0202522  12.6447742 113.9186020
 111.3779992  15.4469978 116.2800014 110.7299992  15.7719978 116.9060014
 110.8599992  15.0059978 115.6060014 111.2194168  15.4318523 116.2745307
 113.4009992   9.6849978 105.4170014 112.8789992  10.0409978 104.6980014
 113.3679992  10.3599978 106.0950014 113.3250699   9.8249848 105.4102129
 110.9189992   8.3049978 109.5890014 110.7689992   7.3599978 109.5680014
 110.5649992   8.5859978 110.4320014 110.8505527   8.2135605 109.7001859
  95.9539992  10.3829978 113.5990014  96.1389992  10.3009978 112.6630014
  96.8039992  10.2589978 114.0230014  96.0940916  10.3550393 113.5282896
 111.7749992  10.2749978 119.2270014 112.3579992   9.5399978 119.4190014
 112.3389992  11.0469978 119.2740014 111.9309781  10.2788145 119.2596164
 113.2719992   8.1779978 119.9120014 112.4089992   7.7989978 119.7460014
 113.8759992   7.4389978 119.8380014 113.2355944   8.0262978 119.8792984
 110.9969992   4.3319978 103.0850014 111.6079992   3.9609978 103.7220014
 110.1599992   3.9109978 103.2810014 110.9674947   4.2242756 103.1987252
 110.6299992   5.8869978 108.0510014 110.9089992   4.9799978 108.1750014
 111.3889992   6.3209978 107.6620014 110.7708619   5.8214502 108.0153795
 111.2409992   6.4689978 113.4870014 112.1739992   6.6809978 113.4530014
 111.0059992   6.5699978 114.4090014 111.3368308   6.5116503 113.6070214
 111.2709992   7.2059978 116.2630014 110.4279992   7.4739978 116.6290014
 111.7129992   8.0279978 116.0520014 111.2154138   7.3538273 116.2845518
  95.5519992   5.6529978 119.7400014  96.4709992   5.5309978 119.9760014
  95.1019992   4.9029978 120.1290014  95.6171148   5.5348751 119.8249408
 113.5539992   1.1859978 121.6160014 113.9029992   0.5319978 121.0110014
 113.7009992   2.0229978 121.1770014 113.6217355   1.2096067 121.4736564
 111.2429992   3.1499978 108.0990014 111.4249992   2.7009978 108.9250014
 110.6429992   2.5659978 107.6360014 111.1867529   3.0096131 108.1493619
  96.7729992   3.9659978 112.6310014  97.2179992   3.1739978 112.9330014
  97.2389992   4.6819978 113.0620014  96.8969059   3.9544474 112.7306079
  95.0769992   6.9649978 113.7000014  95.5689992   6.7439978 112.9090014
  95.4389992   7.8049978 113.9810014  95.1932923   7.0483468 113.6297407
 113.0729992   3.2949978 119.9660014 112.1559992   3.5659978 119.9300014
 113.1959992   2.7599978 119.1820014 112.9640828   3.2597700 119.8550785
  95.3909992   3.2229978 107.7540014  94.4659992   3.4309978 107.6250014
  95.8449992   3.7069978 107.0650014  95.3256374   3.3169949 107.6430957
 110.1609992  18.2069978 109.7000014 110.8139992  17.8589978 109.0920014
 110.6719992  18.6949978 110.3460014 110.3192777  18.2253815 109.7042047
  95.3539992   1.9609978 116.0990014  94.6889992   1.7149978 116.7420014
  94.9109992   2.5829978 115.5210014  95.2030937   2.0113614 116.1089379
  97.5459992  15.1359978 120.2430014  96.7249992  15.3109978 119.7830014
  97.2939992  15.0629978 121.1640014  97.3996173  15.1500794 120.3044972
 100.4999992  16.1099978 116.5020014 100.0759992  16.9199978 116.2190014
 101.4049992  16.1959978 116.2000014 100.5642433  16.2323331 116.4225377
 104.8119992  17.5089978 119.4610014 104.9959992  17.1759978 120.3390014
 105.6579992  17.8189978 119.1390014 104.9516484  17.5052979 119.5377617
 107.1569992  18.7949978 118.7050014 107.8339992  18.1619978 118.4650014
 107.4779992  19.1959978 119.5120014 107.2931323  18.7625691 118.7813158
 112.0739992   1.3849978 117.7850014 111.2609992   1.7099978 117.3970014
 112.3069992   0.6239978 117.2520014 111.9942566   1.3266559 117.6599213
  97.9019992  19.3669978 116.5490014  97.1819992  19.8069978 116.0980014
  97.5369992  19.1159978 117.3980014  97.7539796  19.3933824 116.6019329
 100.3689992  18.9669978 115.5790014  99.5049992  19.0389978 115.9830014
 100.3139992  19.5139978 114.7950014 100.2431942  19.0507849 115.5284000
 105.0799992  18.8549978 114.7540014 104.6229992  19.3839978 114.1000014
 105.2429992  19.4579978 115.4800014 105.0394476  19.0089140 114.7625499
 107.4079992  17.7329978 115.6990014 106.5029992  17.8979978 115.4340014
 107.8359992  18.5859978 115.6340014 107.3420700  17.8709529 115.6539520
 110.0119992  19.3029978 115.9940014 109.8299992  20.2189978 115.7840014
 110.1889992  18.8919978 115.1480014 110.0109907  19.3729741 115.8507883
  97.3169992  17.9899978 113.4590014  97.2989992  17.5639978 114.3170014
  98.1219992  17.6709978 113.0510014  97.4233221  17.8887233 113.5210225
  99.4579992  16.6999978 112.1140014  99.2389992  15.7829978 112.2840014
 100.2819992  16.8399978 112.5800014  99.5394702  16.5935511 112.2002527
 101.9949992  17.1699978 112.9630014 102.2079992  16.2819978 112.6760014
 102.0599992  17.1349978 113.9180014 102.0329075  17.0438307 113.0527373
 105.5039992   2.8339978 112.1070014 104.8299992   2.2039978 112.3630014
 106.0679992   2.3499978 111.5040014 105.4880384   2.6823708 112.0605020
 110.6469992   0.9409978 112.2200014 111.2499992   1.4889978 111.7180014
 109.7769992   1.2599978 111.9800014 110.6119190   1.0591041 112.1188679
 112.3739992   2.0799978 110.5530014 112.9849992   1.5659978 110.0270014
 112.7559992   2.9569978 110.5770014 112.5094475   2.1281323 110.4841208
  97.8309992   1.4679978 109.9290014  97.0539992   1.2329978 109.4220014
  98.3609992   0.6709978 109.9380014  97.7963451   1.3281268 109.8608627
  96.6669992   1.2659978 105.7330014  97.1059992   1.8769978 105.1410014
  96.0329992   1.8039978 106.2070014  96.6413859   1.4224064 105.7160305
 102.4099992   1.3939978 109.7430014 103.2839992   1.7829978 109.7130014
 102.2739992   1.1789978 110.6650014 102.5113207   1.4181923 109.8636509
 107.9669992   1.4239978 111.3920014 108.0429992   1.5199978 110.4430014
 107.6919992   0.5169978 111.5210014 107.9402042   1.3144241 111.2793811
 109.3199992   1.4499978 107.0840014 108.6169992   2.0649978 106.8750014
 108.8749992   0.6129978 107.2160014 109.1636292   1.4210085 107.0732439
  96.5679992  17.2139978 106.6310014  95.8829992  17.1759978 105.9630014
  96.5719992  18.1269978 106.9190014  96.4748174  17.3321998 106.5785310
  98.5279992   3.1819978 104.1750014  99.0189992   2.5519978 103.6480014
  99.1509992   3.4779978 104.8390014  98.6795062   3.1356770 104.1925438
 103.5539992   3.4749978 106.6330014 103.7319992   2.8279978 107.3150014
 103.4999992   4.3089978 107.1000014 103.5711025   3.4990504 106.7896433
 112.1409992  17.9859978 107.7070014 111.9469992  17.2379978 107.1420014
 112.1019992  18.7439978 107.1240014 112.1091645  17.9860786 107.5508148
  97.7879992   1.9819978 119.4470014  97.4219992   1.2159978 119.8900014
  98.7009992   2.0109978 119.7340014  97.8613225   1.8811906 119.5463459
  99.7609992   1.3319978 120.9830014 100.6599992   1.0579978 120.7980014
  99.3749992   0.5899978 121.4470014  99.8317237   1.1941508 121.0204710
 108.1829992   0.6649978 121.1650014 108.2589992   0.2389978 122.0190014
 109.0759992   0.6779978 120.8220014 108.3142267   0.6083952 121.2355932
 111.3589992  16.7379978 119.8570014 110.5769992  16.5509978 119.3380014
 111.2869992  17.6669978 120.0750014 111.2420863  16.8380221 119.8153574
 125.7649992  10.6239978 109.8880014 125.8539992  11.5679978 109.7560014
 125.1269992  10.3489978 109.2300014 125.6909062  10.7159812 109.7809641
 124.6979992   9.8789978 113.3070014 124.6599992   9.2329978 114.0120014
 124.3759992   9.4119978 112.5360014 124.6492679   9.7274276 113.2992921
 117.0659992   9.4929978 114.9000014 117.1079992   8.8679978 115.6230014
 117.7689992  10.1169978 115.0820014 117.1667345   9.4917873 115.0235274
 128.4039992  12.8179978 111.6090014 127.9629992  12.0979978 112.0590014
 128.3909992  13.5389978 112.2380014 128.3417960  12.8168329 111.7557567
 117.9899992  13.9429978 113.4350014 117.6199992  13.1409978 113.0650014
 118.9309992  13.7749978 113.4810014 118.0665984  13.8104638 113.3905603
 114.5999992   7.6029978 108.8280014 114.1519992   8.4489978 108.8090014
 114.0389992   7.0239978 108.3120014 114.4629603   7.6403674 108.7556720
 115.3099992   9.7649978 110.9540014 115.5239992   8.9949978 111.4810014
 116.0479992   9.8549978 110.3500014 115.4389652   9.6718012 110.9445212
 125.5159992  17.9219978 111.8210014 126.1349992  17.2459978 111.5470014
 125.3069992  17.7039978 112.7290014 125.5726232  17.7997938 111.9062517
 123.0869992  12.3109978 113.7130014 123.3909992  11.6249978 113.1190014
 123.8089992  12.4299978 114.3310014 123.2261152  12.2332189 113.7152123
 131.7499992   3.9129978 114.5740014 131.7999992   4.5229978 115.3100014
 132.1759992   4.3739978 113.8510014 131.8144108   4.0587709 114.5770112
 126.2279992   6.7049978 114.0410014 126.3709992   5.7589978 114.0610014
 126.1219992   6.9119978 113.1120014 126.2332509   6.6034813 113.9182231
 119.3829992   4.8069978 111.3130014 119.4259992   5.6669978 110.8950014
 118.9249992   4.2549978 110.6790014 119.3269815   4.8500621 111.1701197
 127.1049992   4.9379978 109.7140014 127.7519992   4.6089978 110.3390014
 127.6149992   5.4549978 109.0910014 127.2624317   4.9629227 109.7152167
 116.0029992   7.2039978 112.0750014 116.6569992   6.6539978 112.5070014
 116.0269992   6.9299978 111.1580014 116.0957199   7.0917167 112.0101668
 121.1599992   8.7539978 111.2900014 121.7759992   8.2269978 111.8000014
 120.5729992   8.1139978 110.8870014 121.1649239   8.5954117 111.3052952
 132.1419992   5.3909978 116.8100014 131.4529992   6.0489978 116.7140014
 132.1569992   5.1929978 117.7460014 132.0496740   5.4543242 116.9234630
 118.1929992   3.7249978 115.3870014 117.9739992   4.2549978 114.6210014
 117.5249992   3.9509978 116.0340014 118.0727001   3.8281154 115.3696064
 125.5619992  13.2249978 108.9310014 125.2669992  12.9019978 108.0800014
 125.2379992  14.1249978 108.9720014 125.4777983  13.3024026 108.8199771
 120.7619992  11.3999978 115.6750014 120.0219992  11.9989978 115.7780014
 121.4759992  11.9539978 115.3590014 120.7573288  11.5567356 115.6463805
 128.8689992   4.2289978 111.6940014 128.6539992   3.4629978 112.2270014
 129.5249992   4.7009978 112.2070014 128.9282673   4.1880728 111.8361990
 117.7869992   5.6169978 113.3390014 118.4009992   6.2499978 113.7130014
 118.2989992   5.1449978 112.6830014 117.9402277   5.6397352 113.3014279
 119.1699992  13.3649978 116.4620014 119.1639992  14.2439978 116.0840014
 118.3159992  13.2809978 116.8870014 119.0537925  13.4739535 116.4676887
 115.2909992  13.0359978 107.2440014 115.0189992  13.2649978 106.3550014
 115.3359992  13.8729978 107.7040014 115.2598709  13.1806058 107.1846107
 128.9159992  14.6569978 113.9560014 127.9739992  14.7159978 114.1180014
 129.1919992  15.5629978 113.8190014 128.8245865  14.7875288 113.9596192
 129.2159992   2.9439978 115.3740014 128.4799992   3.5539978 115.3360014
 129.8999992   3.3589978 114.8470014 129.2075506   3.0836400 115.2976051
 122.2199992   1.0299978 112.8400014 122.1019992   0.0819978 112.7850014
 121.3649992   1.3629978 113.1130014 122.0882679   0.9451926 112.8693720
 127.1679992  16.4379978 110.5820014 127.5929992  15.7309978 110.0970014
 127.4849992  17.2399978 110.1650014 127.2690266  16.4495190 110.4592479
 128.3279992  14.3389978 109.0900014 128.0699992  13.6489978 108.4790014
 128.3989992  13.8959978 109.9360014 128.3022837  14.1847106 109.1206912
 130.0139992  12.9059978 117.5680014 130.1529992  12.3139978 116.8280014
 130.1809992  13.7789978 117.2110014 130.0555562  12.9429896 117.4186283
 124.4859992   9.8679978 107.3400014 123.7749992  10.4029978 106.9880014
 125.1769992   9.9229978 106.6800014 124.4820751   9.9486777 107.2025858
 131.8549992   9.2459978 115.6340014 131.2029992   9.9399978 115.7230014
 132.3209992   9.4559978 114.8240014 131.8285937   9.3695019 115.5367533
 127.8919992  10.0769978 108.2920014 127.1599992  10.3059978 108.8650014
 128.3389992   9.3639978 108.7470014 127.8522753  10.0118972 108.4319715
 127.7889992   8.2519978 117.3600014 127.8689992   9.0149978 117.9310014
 127.1879992   8.5309978 116.6690014 127.7187245   8.3942630 117.3448424
 119.5369992  10.7079978 110.1740014 119.2069992  10.3369978 109.3560014
 120.1259992  10.0369978 110.5210014 119.5713970  10.5666063 110.1089404
 120.9039992  14.1359978 112.8560014 120.8089992  13.5569978 112.0990014
 121.6329992  13.7649978 113.3520014 120.9896161  14.0065891 112.8195209
 119.9039992   9.4759978 113.8080014 120.4689992   9.5979978 113.0450014
 120.2229992  10.1139978 114.4470014 120.0243977   9.5788851 113.7899424
 126.2129992  14.9799978 114.5420014 125.9729992  15.6419978 115.1900014
 126.0149992  14.1449978 114.9670014 126.1533826  14.9578115 114.6881566
 120.7839992  13.8759978 118.5250014 120.4729992  14.6579978 118.9800014
 120.1339992  13.7229978 117.8390014 120.6535538  13.9624087 118.4945898
 126.7629992   9.2399978 105.9770014 127.3419992   9.3899978 106.7240014
 127.1769992   9.7099978 105.2540014 126.8983122   9.3241277 105.9815042
 117.7039992  10.0739978 117.7540014 117.7739992  10.7249978 118.4520014
 116.8129992  10.1769978 117.4190014 117.5931802  10.1769757 117.8042249
 124.4889992  15.9759978 109.4120014 124.9629992  16.2719978 110.1900014
 123.9259992  16.7149978 109.1790014 124.4777361  16.1162721 109.4868611
 119.0229992  15.9469978 119.2880014 119.0309992  15.8109978 118.3410014
 118.1069992  15.8299978 119.5400014 118.9002528  15.9125463 119.1923243
 130.4619992   0.9899978 105.7900014 129.5619992   1.1289978 106.0850014
 130.7139992   1.8209978 105.3880014 130.3728683   1.1214055 105.7760232
 118.5279992   9.7769978 107.7640014 118.2359992  10.5449978 107.2730014
 117.8529992   9.1179978 107.6010014 118.3968497   9.7929745 107.6748260
 131.6509992  15.3559978 104.1660014 131.7239992  16.2949978 104.3370014
 132.5559992  15.0509978 104.1100014 131.7834158  15.4433061 104.1818392
 114.6209992  12.1399978 116.5790014 114.1189992  12.1119978 115.7640014
 114.6259992  11.2349978 116.8880014 114.5530416  12.0137368 116.5093766
 114.3709992  14.9209978 113.4630014 115.3169992  14.7759978 113.4440014
 114.2579992  15.7049978 114.0000014 114.4853578  15.0071697 113.5330317
 132.5689992  15.5869978 119.1450014 132.5189992  14.6309978 119.1080014
 131.7419992  15.8539978 119.5460014 132.4503987  15.4925174 119.1941446
 123.5469992  15.1609978 118.0210014 123.6349992  15.9869978 118.4960014
 122.6839992  14.8309978 118.2700014 123.4423357  15.2295468 118.1197653
 123.9619992  18.9329978 107.8270014 123.8859992  18.8119978 106.8810014
 123.9939992  19.8819978 107.9460014 123.9559156  19.0447530 107.7135048
 117.6149992  17.7219978 109.6080014 117.7669992  17.3739978 110.4870014
 116.7639992  17.3649978 109.3530014 117.5207899  17.6261738 109.6937340
 126.7319992  18.0129978 107.5790014 125.7969992  18.1129978 107.7570014
 127.0119992  17.3029978 108.1570014 126.6418173  17.9307239 107.6814998
 129.7209992   7.0799978 119.6250014 129.3129992   7.5599978 118.9050014
 129.7609992   6.1739978 119.3170014 129.6705476   7.0233160 119.4848247
 116.8699992  13.4639978 117.6220014 117.0859992  13.1019978 118.4810014
 116.0139992  13.0889978 117.4120014 116.7839354  13.3637906 117.7112160
 119.4879992   1.9339978 113.6170014 118.6269992   1.8469978 113.2100014
 119.4659992   2.7899978 114.0450014 119.3670411   2.0377884 113.6190857
 124.1509992   1.6559978 116.9920014 124.5709992   1.2409978 117.7450014
 123.2179992   1.4769978 117.1090014 124.0823736   1.5749910 117.1108968
 127.4779992   5.4109978 117.8450014 126.9639992   5.2859978 118.6430014
 127.3219992   6.3239978 117.6010014 127.3866967   5.5172123 117.9210937
 128.2399992  10.2719978 103.6070014 128.2819992  10.0499978 102.6770014
 129.0889992  10.6709978 103.7970014 128.3605253  10.2955498 103.5053822
 119.5789992   6.8989978 114.7120014 118.9379992   6.8589978 115.4210014
 119.6169992   7.8259978 114.4750014 119.4963670   7.0187795 114.7770550
 119.5759992   7.1199978 109.6240014 118.6839992   6.7799978 109.5660014
 120.0269992   6.7429978 108.8690014 119.5146815   7.0223762 109.5139203
 125.1119992   7.5359978 108.4410014 124.7029992   8.3509978 108.1500014
 125.8319992   7.3959978 107.8270014 125.1534013   7.6286571 108.3180875
 124.2139992   7.7119978 119.9290014 123.6509992   7.0069978 120.2500014
 125.0399992   7.5909978 120.3970014 124.2486674   7.5992165 120.0361751
 126.1169992   6.9819978 111.2550014 125.9209992   7.5879978 110.5400014
 126.2979992   6.1489978 110.8210014 126.1146584   6.9522513 111.0984212
 117.3289992   7.2199978 116.5790014 117.2909992   7.6199978 117.4480014
 116.8389992   6.4029978 116.6700014 117.2575621   7.1642510 116.7101377
 113.9379992   4.3359978 110.4300014 114.5679992   4.3069978 111.1490014
 114.3869992   3.9109978 109.7000014 114.0850692   4.2745316 110.4297771
 125.3809992   8.6199978 115.9270014 125.7039992   7.9889978 115.2840014
 124.9399992   8.0859978 116.5870014 125.3655789   8.4613522 115.9282232
 122.1579992   4.5479978 110.7110014 121.2469992   4.6049978 110.9990014
 122.6629992   4.4879978 111.5210014 122.1015387   4.5476870 110.8600646
 116.9859992   6.1769978 109.5370014 116.0969992   6.2759978 109.1970014
 117.2829992   5.3349978 109.1910014 116.9044177   6.0767687 109.4436940
 120.6389992   6.1769978 107.1940014 121.5709992   6.3059978 107.3720014
 120.4239992   6.8459978 106.5440014 120.7374472   6.2850806 107.1304891
 126.5629992   3.7829978 113.9750014 125.8859992   3.9139978 114.6390014
 126.0779992   3.6279978 113.1650014 126.4047265   3.7799659 113.9563397
 129.8509992  19.4539978 120.2520014 130.0499992  19.8779978 119.4170014
 130.5059992  19.7979978 120.8590014 129.9668501  19.5586091 120.2197097
 117.4489992  11.9279978 119.8600014 118.1809992  12.1829978 120.4210014
 116.6679992  12.1329978 120.3750014 117.4437684  11.9906468 120.0064782
 123.4779992   7.3349978 112.5980014 124.0419992   6.7889978 112.0510014
 123.3299992   6.8139978 113.3860014 123.5352575   7.1896552 112.6296987
 118.4799992   3.4719978 109.0160014 118.1629992   2.5689978 108.9810014
 119.2609992   3.4739978 108.4630014 118.5422307   3.3486951 108.9364314
 122.1039992   5.7239978 115.0120014 121.2689992   6.1779978 115.1220014
 122.6279992   5.9999978 115.7640014 122.0605070   5.8234666 115.1287152
 122.6489992  11.9369978 106.6960014 121.9039992  11.4289978 106.3740014
 122.5139992  11.9859978 107.6430014 122.5289047  11.8741596 106.7798845
 129.7989992  11.0699978 115.4830014 130.4399992  11.5259978 114.9390014
 128.9679992  11.1829978 115.0210014 129.7745171  11.1477502 115.3460237
 126.5459992   4.7509978 104.8960014 125.6079992   4.8619978 104.7440014
 126.8439992   5.6069978 105.2020014 126.4576402   4.8820621 104.9165571
 124.1679992  12.1209978 117.9330014 123.8219992  11.7389978 118.7400014
 123.9679992  13.0539978 118.0050014 124.0936523  12.1949095 118.0530735
 127.2649992   6.6179978 106.5560014 128.1569992   6.4799978 106.8750014
 127.3209992   7.4089978 106.0200014 127.3947107   6.7060526 106.5272091
 117.7729992  11.2319978 112.4660014 118.5179992  11.2289978 111.8650014
 117.8509992  10.4079978 112.9480014 117.8854158  11.1202916 112.4489153
 124.7739992  13.3949978 105.7220014 124.4789992  14.2219978 106.1030014
 124.0709992  12.7759978 105.9180014 124.6385471  13.4245227 105.8006698
 114.7809992   9.6919978 117.7810014 115.0039992   9.2739978 118.6130014
 114.1789992   9.0799978 117.3580014 114.7301260   9.5519933 117.8377320
 121.7979992   9.2089978 119.9940014 121.5019992   9.0439978 119.0990014
 122.7289992   8.9889978 119.9830014 121.8833982   9.1566578 119.8700045
 126.4179992  14.5829978 117.8840014 125.5179992  14.7659978 117.6160014
 126.4519992  14.8419978 118.8050014 126.2992909  14.6430815 117.9717852
 132.1129992  12.6279978 119.0880014 131.2619992  12.8659978 118.7210014
 132.7029992  12.6109978 118.3350014 132.0762408  12.6582966 118.9358879
 130.4449992  15.6129978 106.7160014 130.0719992  14.7879978 107.0250014
 130.7219992  15.4299978 105.8190014 130.4313871  15.4752441 106.6369677
 127.6049992  10.4209978 113.7370014 126.6769992  10.1899978 113.7100014
 128.0559992   9.6439978 113.4070014 127.5388165  10.2842774 113.6886790
 120.1479992  14.7499978 109.8700014 120.6759992  15.5229978 109.6700014
 119.2679992  14.9739978 109.5690014 120.1013176  14.8863161 109.8018409
 115.9029992   9.6119978 104.4580014 116.5189992  10.2389978 104.8370014
 115.0409992   9.9279978 104.7290014 115.8708195   9.7405798 104.5465386
 121.5759992  12.4129978 109.4470014 121.3349992  13.3379978 109.4880014
 120.8349992  11.9539978 109.8430014 121.4428390  12.4776403 109.5061404
 122.0899992  16.5619978 115.7620014 122.4529992  17.4159978 115.5280014
 122.6219992  16.2699978 116.5020014 122.2116090  16.6394058 115.8300219
 120.2589992  17.4339978 108.9920014 119.3089992  17.5399978 109.0430014
 120.6109992  18.2549978 109.3370014 120.1765480  17.5594438 109.0455999
 125.6339992  12.6609978 115.4620014 125.2089992  12.4329978 116.2890014
 126.2149992  11.9219978 115.2800014 125.6543930  12.5299843 115.5504732
 128.2929992  17.2129978 117.9320014 127.6909992  16.6569978 117.4360014
 128.5739992  17.8799978 117.3060014 128.2486829  17.2271613 117.7795443
 132.3409992  18.0689978 104.7370014 133.0849992  18.6549978 104.5970014
 131.6469992  18.6379978 105.0710014 132.3490201  18.2260603 104.7629772
 116.4149992   4.4459978 117.3390014 115.5229992   4.7839978 117.2720014
 116.3169992   3.5899978 117.7570014 116.2794965   4.3766499 117.3863044
 128.7029992  12.2619978 106.7630014 128.4259992  11.5339978 107.3190014
 129.6309992  12.3809978 106.9680014 128.7904499  12.1784213 106.8668044
 116.0669992  16.2499978 115.7740014 116.2839992  15.3179978 115.7430014
 116.3129992  16.5249978 116.6570014 116.1299809  16.1595686 115.8891690
 120.8649992  14.2719978 105.4400014 121.0119992  13.7519978 106.2300014
 120.8619992  15.1789978 105.7460014 120.8847300  14.3233964 105.5895895
 117.3179992  11.5239978 105.9500014 116.6319992  11.8769978 106.5170014
 117.8409992  12.2869978 105.7040014 117.2949033  11.6753746 105.9942661
 125.1499992   4.1869978 116.2290014 125.8489992   4.2609978 116.8790014
 124.7689992   3.3219978 116.3830014 125.1942097   4.0802389 116.3387997
 125.9339992   3.8389978 107.3260014 126.1539992   4.3099978 106.5230014
 126.4929992   4.2329978 107.9960014 126.0396730   3.9567432 107.3065906
 123.6029992  15.9689978 106.1890014 122.7859992  16.4659978 106.2410014
 124.1319992  16.4449978 105.5490014 123.5628508  16.1012543 106.1096035
 123.1339992   5.5669978 108.1610014 123.9459992   6.0709978 108.2070014
 122.8899992   5.4219978 109.0750014 123.2121467   5.6163749 108.2908575
 123.6699992   6.5529978 117.3460014 123.7889992   7.1269978 118.1030014
 124.3249992   5.8649978 117.4600014 123.7749146   6.5385574 117.4651314
 124.0179992   2.6479978 109.0990014 123.6709992   3.2649978 109.7440014
 124.6769992   3.1489978 108.6180014 124.0595949   2.8001099 109.1222271
 119.6759992   3.7109978 105.7860014 119.5919992   4.5989978 106.1330014
 120.5659992   3.4459978 106.0180014 119.7848163   3.7967179 105.8648596
 129.8739992   4.4599978 118.1810014 128.9579992   4.7219978 118.0930014
 130.2099992   4.4569978 117.2840014 129.7939789   4.4954626 118.0477847
 128.4769992   8.2099978 112.2760014 127.6789992   7.7949978 111.9480014
 128.9219992   7.5199978 112.7670014 128.4279684   8.0598628 112.2975227
 117.9339992  14.1379978 104.8470014 118.5259992  14.8379978 105.1230014
 118.3929992  13.7049978 104.1270014 118.0770791  14.1752908 104.7874607
 116.2499992   6.8029978 103.9630014 116.2049992   7.7419978 104.1410014
 115.3619992   6.5669978 103.6930014 116.1238555   6.8996874 103.9508939
 129.5629992  17.4659978 113.8990014 129.4069992  18.1449978 113.2420014
 130.4959992  17.5379978 114.1020014 129.6677387  17.5686390 113.8365342
 117.0579992   1.5839978 112.6360014 116.8289992   1.6429978 111.7080014
 116.6159992   0.7929978 112.9420014 116.9668801   1.4850540 112.5504729
 115.9889992  15.5249978 108.7960014 115.1559992  15.9969978 108.8240014
 116.5339992  16.0349978 108.1980014 115.9487590  15.6585897 108.7189194
 115.2769992  18.1369978 120.1260014 115.8169992  17.9209978 120.8860014
 114.7959992  17.3319978 119.9370014 115.2858613  17.9985400 120.2044782
 119.8739992  17.0569978 121.7470014 120.6419992  16.5979978 122.0880014
 119.8529992  16.8309978 120.8170014 119.9762135  16.9636668 121.6679491
 126.4509992  15.4369978 120.4760014 126.0999992  14.5799978 120.7190014
 127.1769992  15.5789978 121.0830014 126.5011590  15.3390178 120.5912907
 115.1839992  11.9479978 121.0810014 115.3279992  11.0459978 120.7940014
 114.4119992  12.2339978 120.5930014 115.0993303  11.8633243 120.9757908
 121.8389992  11.9169978 120.5130014 121.5109992  12.1879978 119.6560014
 121.9909992  10.9759978 120.4260014 121.8146030  11.8268973 120.3837945
 124.8779992  13.3379978 102.9490014 124.6089992  13.5189978 103.8500014
 124.6709992  12.4129978 102.8180014 124.8132000  13.2376774 103.0545693
 127.5739992  11.8329978 117.8970014 128.3189992  12.4219978 117.7770014
 126.8169992  12.4149978 117.9600014 127.5735205  11.9921997 117.8891119
 116.0169992   9.1479978 120.5010014 116.4249992   8.2909978 120.3800014
 115.7559992   9.1619978 121.4220014 116.0376016   9.0325119 120.6089192
 119.9639992   8.1569978 117.8750014 119.3449992   8.8309978 118.1550014
 120.3079992   8.4779978 117.0420014 119.9257605   8.2927198 117.8006707
 124.9829992  10.6279978 121.1520014 125.9369992  10.7119978 121.1250014
 124.8229992   9.9159978 121.7720014 125.0917182  10.5432842 121.2320733
 120.3029992   5.5119978 118.9570014 120.4529992   4.7829978 118.3550014
 120.3049992   6.2889978 118.3980014 120.3237967   5.5172708 118.7990541
 120.7159992   3.8809978 116.4500014 121.2509992   4.3329978 115.7980014
 119.8629992   3.7729978 116.0270014 120.6740374   3.9282665 116.3036710
 122.2969992   9.3209978 116.6890014 123.0479992   9.1649978 116.1160014
 121.9579992  10.1729978 116.4140014 122.3539587   9.4148138 116.5734078
 126.7129992   7.1359978 121.7180014 126.9049992   6.2049978 121.6060014
 127.5709992   7.5609978 121.7080014 126.8552269   7.0659928 121.7013192
 128.0299992   9.9249978 119.7950014 127.7479992  10.6339978 119.2180014
 128.9719992   9.8519978 119.6440014 128.1187656  10.0123128 119.6954809
 118.7819992   6.7099978 120.8690014 118.0139992   6.1769978 120.6590014
 119.4599992   6.3999978 120.2690014 118.7686973   6.5952375 120.7591796
 121.5209992   1.3379978 116.8810014 121.4229992   2.2839978 116.7760014
 120.7789992   0.9649978 116.4060014 121.4071913   1.4171813 116.8023539
 122.7849992   5.6589978 120.4450014 122.5499992   5.4399978 121.3470014
 122.0019992   5.4519978 119.9350014 122.6469219   5.6010066 120.4995852
 125.5009992   4.7869978 119.5210014 124.5529992   4.8189978 119.6530014
 125.8129992   4.1609978 120.1740014 125.4135190   4.7067262 119.6273563
 127.1349992   3.4209978 121.5260014 127.0379992   2.4689978 121.5200014
 126.8129992   3.6889978 122.3860014 127.0781761   3.3269744 121.6414936
 116.9619992   4.6299978 120.5730014 117.1739992   3.9239978 119.9630014
 116.8509992   4.1929978 121.4170014 116.9760269   4.4741921 120.6035873
 121.7429992   0.6319978 119.5530014 122.4549992  -0.0080022 119.5390014
 121.6419992   0.8979978 118.6390014 121.8267261   0.5804190 119.4275537
 122.0969992   2.3139978 121.6060014 121.9649992   1.8389978 120.7860014
 121.4969992   3.0589978 121.5510014 121.9979070   2.3495789 121.4863251
 113.8599992  19.2269978 109.3430014 113.2129992  18.7649978 108.8100014
 114.2149992  18.5549978 109.9250014 113.8194506  19.0729503 109.3487341
 114.7299992  17.3069978 111.1470014 114.3959992  16.4269978 111.3190014
 114.9529992  17.6529978 112.0120014 114.7143721  17.2331938 111.2874168
 132.2789992  18.1169978 114.1280014 132.2569992  18.3019978 115.0670014
 132.9689992  18.6849978 113.7870014 132.3693439  18.2191887 114.2104791
 131.8419992  17.6839978 117.0500014 131.3549992  16.9489978 116.6790014
 132.3909992  17.2899978 117.7280014 131.8495247  17.5301057 117.0908461
 130.2929992  13.4739978 121.6880014 129.4269992  13.3689978 122.0820014
 130.6689992  14.2319978 122.1340014 130.2253401  13.5621708 121.8022620
 131.5939992  11.7299978 107.2020014 132.4439992  12.1509978 107.3290014
 131.5989992  10.9899978 107.8090014 131.7111143  11.6876094 107.3014750
 131.9879992   9.7839978 109.0260014 131.2619992   9.3039978 109.4230014
 132.5699992   9.9889978 109.7580014 131.9671635   9.7459166 109.1793748
 131.7469992  12.5689978 113.9730014 132.5809992  12.1909978 113.6930014
 131.8589992  13.5119978 113.8540014 131.8762522  12.6447742 113.9186020
 130.2339992  15.4469978 116.2800014 129.5859992  15.7719978 116.9060014
 129.7159992  15.0059978 115.6060014 130.0754168  15.4318523 116.2745307
 129.7749992   8.3049978 109.5890014 129.6249992   7.3599978 109.5680014
 129.4209992   8.5859978 110.4320014 129.7065527   8.2135605 109.7001859
 114.8099992  10.3829978 113.5990014 114.9949992  10.3009978 112.6630014
 115.6599992  10.2589978 114.0230014 114.9500916  10.3550393 113.5282896
 130.6309992  10.2749978 119.2270014 131.2139992   9.5399978 119.4190014
 131.1949992  11.0469978 119.2740014 130.7869781  10.2788145 119.2596164
 132.1279992   8.1779978 119.9120014 131.2649992   7.7989978 119.7460014
 132.7319992   7.4389978 119.8380014 132.0915944   8.0262978 119.8792984
 129.8529992   4.3319978 103.0850014 130.4639992   3.9609978 103.7220014
 129.0159992   3.9109978 103.2810014 129.8234947   4.2242756 103.1987252
 129.4859992   5.8869978 108.0510014 129.7649992   4.9799978 108.1750014
 130.2449992   6.3209978 107.6620014 129.6268619   5.8214502 108.0153795
 130.0969992   6.4689978 113.4870014 131.0299992   6.6809978 113.4530014
 129.8619992   6.5699978 114.4090014 130.1928308   6.5116503 113.6070214
 130.1269992   7.2059978 116.2630014 129.2839992   7.4739978 116.6290014
 130.5689992   8.0279978 116.0520014 130.0714138   7.3538273 116.2845518
 114.4079992   5.6529978 119.7400014 115.3269992   5.5309978 119.9760014
 113.9579992   4.9029978 120.1290014 114.4731148   5.5348751 119.8249408
 132.4099992   1.1859978 121.6160014 132.7589992   0.5319978 121.0110014
 132.5569992   2.0229978 121.1770014 132.4777355   1.2096067 121.4736564
 130.0989992   3.1499978 108.0990014 130.2809992   2.7009978 108.9250014
 129.4989992   2.5659978 107.6360014 130.0427529   3.0096131 108.1493619
 115.6289992   3.9659978 112.6310014 116.0739992   3.1739978 112.9330014
 116.0949992   4.6819978 113.0620014 115.7529059   3.9544474 112.7306079
 113.9329992   6.9649978 113.7000014 114.4249992   6.7439978 112.9090014
 114.2949992   7.8049978 113.9810014 114.0492923   7.0483468 113.6297407
 131.9289992   3.2949978 119.9660014 131.0119992   3.5659978 119.9300014
 132.0519992   2.7599978 119.1820014 131.8200828   3.2597700 119.8550785
 131.9659992   3.2179978 104.6270014 132.3779992   2.4969978 104.1520014
 132.6469992   3.8869978 104.6860014 132.1145900   3.2097306 104.5699038
 114.2469992   3.2229978 107.7540014 113.3219992   3.4309978 107.6250014
 114.7009992   3.7069978 107.0650014 114.1816374   3.3169949 107.6430957
 129.0169992  18.2069978 109.7000014 129.6699992  17.8589978 109.0920014
 129.5279992  18.6949978 110.3460014 129.1752777  18.2253815 109.7042047
 114.2099992   1.9609978 116.0990014 113.5449992   1.7149978 116.7420014
 113.7669992   2.5829978 115.5210014 114.0590937   2.0113614 116.1089379
 116.4019992  15.1359978 120.2430014 115.5809992  15.3109978 119.7830014
 116.1499992  15.0629978 121.1640014 116.2556173  15.1500794 120.3044972
 119.3559992  16.1099978 116.5020014 118.9319992  16.9199978 116.2190014
 120.2609992  16.1959978 116.2000014 119.4202433  16.2323331 116.4225377
 123.6679992  17.5089978 119.4610014 123.8519992  17.1759978 120.3390014
 124.5139992  17.8189978 119.1390014 123.8076484  17.5052979 119.5377617
 126.0129992  18.7949978 118.7050014 126.6899992  18.1619978 118.4650014
 126.3339992  19.1959978 119.5120014 126.1491323  18.7625691 118.7813158
 130.9299992   1.3849978 117.7850014 130.1169992   1.7099978 117.3970014
 131.1629992   0.6239978 117.2520014 130.8502566   1.3266559 117.6599213
 116.7579992  19.3669978 116.5490014 116.0379992  19.8069978 116.0980014
 116.3929992  19.1159978 117.3980014 116.6099796  19.3933824 116.6019329
 119.2249992  18.9669978 115.5790014 118.3609992  19.0389978 115.9830014
 119.1699992  19.5139978 114.7950014 119.0991942  19.0507849 115.5284000
 123.9359992  18.8549978 114.7540014 123.4789992  19.3839978 114.1000014
 124.0989992  19.4579978 115.4800014 123.8954476  19.0089140 114.7625499
 126.2639992  17.7329978 115.6990014 125.3589992  17.8979978 115.4340014
 126.6919992  18.5859978 115.6340014 126.1980700  17.8709529 115.6539520
 128.8679992  19.3029978 115.9940014 128.6859992  20.2189978 115.7840014
 129.0449992  18.8919978 115.1480014 128.8669907  19.3729741 115.8507883
 116.1729992  17.9899978 113.4590014 116.1549992  17.5639978 114.3170014
 116.9779992  17.6709978 113.0510014 116.2793221  17.8887233 113.5210225
 118.3139992  16.6999978 112.1140014 118.0949992  15.7829978 112.2840014
 119.1379992  16.8399978 112.5800014 118.3954702  16.5935511 112.2002527
 120.8509992  17.1699978 112.9630014 121.0639992  16.2819978 112.6760014
 120.9159992  17.1349978 113.9180014 120.8889075  17.0438307 113.0527373
 124.3599992   2.8339978 112.1070014 123.6859992   2.2039978 112.3630014
 124.9239992   2.3499978 111.5040014 124.3440384   2.6823708 112.0605020
 129.5029992   0.9409978 112.2200014 130.1059992   1.4889978 111.7180014
 128.6329992   1.2599978 111.9800014 129.4679190   1.0591041 112.1188679
 131.2299992   2.0799978 110.5530014 131.8409992   1.5659978 110.0270014
 131.6119992   2.9569978 110.5770014 131.3654475   2.1281323 110.4841208
 116.6869992   1.4679978 109.9290014 115.9099992   1.2329978 109.4220014
 117.2169992   0.6709978 109.9380014 116.6523451   1.3281268 109.8608627
 121.2659992   1.3939978 109.7430014 122.1399992   1.7829978 109.7130014
 121.1299992   1.1789978 110.6650014 121.3673207   1.4181923 109.8636509
 126.8229992   1.4239978 111.3920014 126.8989992   1.5199978 110.4430014
 126.5479992   0.5169978 111.5210014 126.7962042   1.3144241 111.2793811
 128.1759992   1.4499978 107.0840014 127.4729992   2.0649978 106.8750014
 127.7309992   0.6129978 107.2160014 128.0196292   1.4210085 107.0732439
 115.4239992  17.2139978 106.6310014 114.7389992  17.1759978 105.9630014
 115.4279992  18.1269978 106.9190014 115.3308174  17.3321998 106.5785310
 130.9969992  17.9859978 107.7070014 130.8029992  17.2379978 107.1420014
 130.9579992  18.7439978 107.1240014 130.9651645  17.9860786 107.5508148
 116.6439992   1.9819978 119.4470014 116.2779992   1.2159978 119.8900014
 117.5569992   2.0109978 119.7340014 116.7173225   1.8811906 119.5463459
 118.6169992   1.3319978 120.9830014 119.5159992   1.0579978 120.7980014
 118.2309992   0.5899978 121.4470014 118.6877237   1.1941508 121.0204710
 127.0389992   0.6649978 121.1650014 127.1149992   0.2389978 122.0190014
 127.9319992   0.6779978 120.8220014 127.1702267   0.6083952 121.2355932
 130.2149992  16.7379978 119.8570014 129.4329992  16.5509978 119.3380014
 130.1429992  17.6669978 120.0750014 130.0980863  16.8380221 119.8153574
 144.6209992  10.6239978 109.8880014 144.7099992  11.5679978 109.7560014
 143.9829992  10.3489978 109.2300014 144.5469062  10.7159812 109.7809641
 143.5539992   9.8789978 113.3070014 143.5159992   9.2329978 114.0120014
 143.2319992   9.4119978 112.5360014 143.5052679   9.7274276 113.2992921
 135.9219992   9.4929978 114.9000014 135.9639992   8.8679978 115.6230014
 136.6249992  10.1169978 115.0820014 136.0227345   9.4917873 115.0235274
 136.8459992  13.9429978 113.4350014 136.4759992  13.1409978 113.0650014
 137.7869992  13.7749978 113.4810014 136.9225984  13.8104638 113.3905603
 133.4559992   7.6029978 108.8280014 133.0079992   8.4489978 108.8090014
 132.8949992   7.0239978 108.3120014 133.3189603   7.6403674 108.7556720
 134.1659992   9.7649978 110.9540014 134.3799992   8.9949978 111.4810014
 134.9039992   9.8549978 110.3500014 134.2949652   9.6718012 110.9445212
 144.3719992  17.9219978 111.8210014 144.9909992  17.2459978 111.5470014
 144.1629992  17.7039978 112.7290014 144.4286232  17.7997938 111.9062517
 141.9429992  12.3109978 113.7130014 142.2469992  11.6249978 113.1190014
 142.6649992  12.4299978 114.3310014 142.0821152  12.2332189 113.7152123
 145.0839992   6.7049978 114.0410014 145.2269992   5.7589978 114.0610014
 144.9779992   6.9119978 113.1120014 145.0892509   6.6034813 113.9182231
 138.2389992   4.8069978 111.3130014 138.2819992   5.6669978 110.8950014
 137.7809992   4.2549978 110.6790014 138.1829815   4.8500621 111.1701197
 134.8589992   7.2039978 112.0750014 135.5129992   6.6539978 112.5070014
 134.8829992   6.9299978 111.1580014 134.9517199   7.0917167 112.0101668
 140.0159992   8.7539978 111.2900014 140.6319992   8.2269978 111.8000014
 139.4289992   8.1139978 110.8870014 140.0209239   8.5954117 111.3052952
 137.0489992   3.7249978 115.3870014 136.8299992   4.2549978 114.6210014
 136.3809992   3.9509978 116.0340014 136.9287001   3.8281154 115.3696064
 144.4179992  13.2249978 108.9310014 144.1229992  12.9019978 108.0800014
 144.0939992  14.1249978 108.9720014 144.3337983  13.3024026 108.8199771
 139.6179992  11.3999978 115.6750014 138.8779992  11.9989978 115.7780014
 140.3319992  11.9539978 115.3590014 139.6133288  11.5567356 115.6463805
 136.6429992   5.6169978 113.3390014 137.2569992   6.2499978 113.7130014
 137.1549992   5.1449978 112.6830014 136.7962277   5.6397352 113.3014279
 138.0259992  13.3649978 116.4620014 138.0199992  14.2439978 116.0840014
 137.1719992  13.2809978 116.8870014 137.9097925  13.4739535 116.4676887
 134.1469992  13.0359978 107.2440014 133.8749992  13.2649978 106.3550014
 134.1919992  13.8729978 107.7040014 134.1158709  13.1806058 107.1846107
 141.0759992   1.0299978 112.8400014 140.9579992   0.0819978 112.7850014
 140.2209992   1.3629978 113.1130014 140.9442679   0.9451926 112.8693720
 143.3419992   9.8679978 107.3400014 142.6309992  10.4029978 106.9880014
 144.0329992   9.9229978 106.6800014 143.3380751   9.9486777 107.2025858
 143.3959992   8.3249978 104.3790014 144.0969992   8.3479978 105.0300014
 143.6979992   7.6969978 103.7230014 143.5328282   8.2432339 104.3794496
 138.3929992  10.7079978 110.1740014 138.0629992  10.3369978 109.3560014
 138.9819992  10.0369978 110.5210014 138.4273970  10.5666063 110.1089404
 139.7599992  14.1359978 112.8560014 139.6649992  13.5569978 112.0990014
 140.4889992  13.7649978 113.3520014 139.8456161  14.0065891 112.8195209
 138.7599992   9.4759978 113.8080014 139.3249992   9.5979978 113.0450014
 139.0789992  10.1139978 114.4470014 138.8803977   9.5788851 113.7899424
 145.0689992  14.9799978 114.5420014 144.8289992  15.6419978 115.1900014
 144.8709992  14.1449978 114.9670014 145.0093826  14.9578115 114.6881566
 139.6399992  13.8759978 118.5250014 139.3289992  14.6579978 118.9800014
 138.9899992  13.7229978 117.8390014 139.5095538  13.9624087 118.4945898
 136.5599992  10.0739978 117.7540014 136.6299992  10.7249978 118.4520014
 135.6689992  10.1769978 117.4190014 136.4491802  10.1769757 117.8042249
 143.3449992  15.9759978 109.4120014 143.8189992  16.2719978 110.1900014
 142.7819992  16.7149978 109.1790014 143.3337361  16.1162721 109.4868611
 137.8789992  15.9469978 119.2880014 137.8869992  15.8109978 118.3410014
 136.9629992  15.8299978 119.5400014 137.7562528  15.9125463 119.1923243
 137.3839992   9.7769978 107.7640014 137.0919992  10.5449978 107.2730014
 136.7089992   9.1179978 107.6010014 137.2528497   9.7929745 107.6748260
 133.4769992  12.1399978 116.5790014 132.9749992  12.1119978 115.7640014
 133.4819992  11.2349978 116.8880014 133.4090416  12.0137368 116.5093766
 133.2269992  14.9209978 113.4630014 134.1729992  14.7759978 113.4440014
 133.1139992  15.7049978 114.0000014 133.3413578  15.0071697 113.5330317
 142.4029992  15.1609978 118.0210014 142.4909992  15.9869978 118.4960014
 141.5399992  14.8309978 118.2700014 142.2983357  15.2295468 118.1197653
 142.8179992  18.9329978 107.8270014 142.7419992  18.8119978 106.8810014
 142.8499992  19.8819978 107.9460014 142.8119156  19.0447530 107.7135048
 136.4709992  17.7219978 109.6080014 136.6229992  17.3739978 110.4870014
 135.6199992  17.3649978 109.3530014 136.3767899  17.6261738 109.6937340
 135.7259992  13.4639978 117.6220014 135.9419992  13.1019978 118.4810014
 134.8699992  13.0889978 117.4120014 135.6399354  13.3637906 117.7112160
 138.3439992   1.9339978 113.6170014 137.4829992   1.8469978 113.2100014
 138.3219992   2.7899978 114.0450014 138.2230411   2.0377884 113.6190857
 143.0069992   1.6559978 116.9920014 143.4269992   1.2409978 117.7450014
 142.0739992   1.4769978 117.1090014 142.9383736   1.5749910 117.1108968
 138.4349992   6.8989978 114.7120014 137.7939992   6.8589978 115.4210014
 138.4729992   7.8259978 114.4750014 138.3523670   7.0187795 114.7770550
 138.4319992   7.1199978 109.6240014 137.5399992   6.7799978 109.5660014
 138.8829992   6.7429978 108.8690014 138.3706815   7.0223762 109.5139203
 143.9679992   7.5359978 108.4410014 143.5589992   8.3509978 108.1500014
 144.6879992   7.3959978 107.8270014 144.0094013   7.6286571 108.3180875
 143.0699992   7.7119978 119.9290014 142.5069992   7.0069978 120.2500014
 143.8959992   7.5909978 120.3970014 143.1046674   7.5992165 120.0361751
 144.9729992   6.9819978 111.2550014 144.7769992   7.5879978 110.5400014
 145.1539992   6.1489978 110.8210014 144.9706584   6.9522513 111.0984212
 136.1849992   7.2199978 116.5790014 136.1469992   7.6199978 117.4480014
 135.6949992   6.4029978 116.6700014 136.1135621   7.1642510 116.7101377
 132.7939992   4.3359978 110.4300014 133.4239992   4.3069978 111.1490014
 133.2429992   3.9109978 109.7000014 132.9410692   4.2745316 110.4297771
 144.2369992   8.6199978 115.9270014 144.5599992   7.9889978 115.2840014
 143.7959992   8.0859978 116.5870014 144.2215789   8.4613522 115.9282232
 141.0139992   4.5479978 110.7110014 140.1029992   4.6049978 110.9990014
 141.5189992   4.4879978 111.5210014 140.9575387   4.5476870 110.8600646
 135.8419992   6.1769978 109.5370014 134.9529992   6.2759978 109.1970014
 136.1389992   5.3349978 109.1910014 135.7604177   6.0767687 109.4436940
 139.4949992   6.1769978 107.1940014 140.4269992   6.3059978 107.3720014
 139.2799992   6.8459978 106.5440014 139.5934472   6.2850806 107.1304891
 145.4189992   3.7829978 113.9750014 144.7419992   3.9139978 114.6390014
 144.9339992   3.6279978 113.1650014 145.2607265   3.7799659 113.9563397
 136.3049992  11.9279978 119.8600014 137.0369992  12.1829978 120.4210014
 135.5239992  12.1329978 120.3750014 136.2997684  11.9906468 120.0064782
 142.3339992   7.3349978 112.5980014 142.8979992   6.7889978 112.0510014
 142.1859992   6.8139978 113.3860014 142.3912575   7.1896552 112.6296987
 137.3359992   3.4719978 109.0160014 137.0189992   2.5689978 108.9810014
 138.1169992   3.4739978 108.4630014 137.3982307   3.3486951 108.9364314
 140.9599992   5.7239978 115.0120014 140.1249992   6.1779978 115.1220014
 141.4839992   5.9999978 115.7640014 140.9165070   5.8234666 115.1287152
 141.5049992  11.9369978 106.6960014 140.7599992  11.4289978 106.3740014
 141.3699992  11.9859978 107.6430014 141.3849047  11.8741596 106.7798845
 145.4019992   4.7509978 104.8960014 144.4639992   4.8619978 104.7440014
 145.6999992   5.6069978 105.2020014 145.3136402   4.8820621 104.9165571
 143.0239992  12.1209978 117.9330014 142.6779992  11.7389978 118.7400014
 142.8239992  13.0539978 118.0050014 142.9496523  12.1949095 118.0530735
 136.6289992  11.2319978 112.4660014 137.3739992  11.2289978 111.8650014
 136.7069992  10.4079978 112.9480014 136.7414158  11.1202916 112.4489153
 143.6299992  13.3949978 105.7220014 143.3349992  14.2219978 106.1030014
 142.9269992  12.7759978 105.9180014 143.4945471  13.4245227 105.8006698
 133.6369992   9.6919978 117.7810014 133.8599992   9.2739978 118.6130014
 133.0349992   9.0799978 117.3580014 133.5861260   9.5519933 117.8377320
 140.6539992   9.2089978 119.9940014 140.3579992   9.0439978 119.0990014
 141.5849992   8.9889978 119.9830014 140.7393982   9.1566578 119.8700045
 145.2739992  14.5829978 117.8840014 144.3739992  14.7659978 117.6160014
 145.3079992  14.8419978 118.8050014 145.1552909  14.6430815 117.9717852
 139.0039992  14.7499978 109.8700014 139.5319992  15.5229978 109.6700014
 138.1239992  14.9739978 109.5690014 138.9573176  14.8863161 109.8018409
 140.4319992  12.4129978 109.4470014 140.1909992  13.3379978 109.4880014
 139.6909992  11.9539978 109.8430014 140.2988390  12.4776403 109.5061404
 140.9459992  16.5619978 115.7620014 141.3089992  17.4159978 115.5280014
 141.4779992  16.2699978 116.5020014 141.0676090  16.6394058 115.8300219
 139.1149992  17.4339978 108.9920014 138.1649992  17.5399978 109.0430014
 139.4669992  18.2549978 109.3370014 139.0325480  17.5594438 109.0455999
 144.4899992  12.6609978 115.4620014 144.0649992  12.4329978 116.2890014
 145.0709992  11.9219978 115.2800014 144.5103930  12.5299843 115.5504731
 135.2709992   4.4459978 117.3390014 134.3789992   4.7839978 117.2720014
 135.1729992   3.5899978 117.7570014 135.1354965   4.3766499 117.3863044
 134.9229992  16.2499978 115.7740014 135.1399992  15.3179978 115.7430014
 135.1689992  16.5249978 116.6570014 134.9859809  16.1595686 115.8891691
 136.1739992  11.5239978 105.9500014 135.4879992  11.8769978 106.5170014
 136.6969992  12.2869978 105.7040014 136.1509033  11.6753746 105.9942661
 144.0059992   4.1869978 116.2290014 144.7049992   4.2609978 116.8790014
 143.6249992   3.3219978 116.3830014 144.0502097   4.0802389 116.3387997
 144.7899992   3.8389978 107.3260014 145.0099992   4.3099978 106.5230014
 145.3489992   4.2329978 107.9960014 144.8956730   3.9567432 107.3065906
 142.4589992  15.9689978 106.1890014 141.6419992  16.4659978 106.2410014
 142.9879992  16.4449978 105.5490014 142.4188508  16.1012543 106.1096035
 141.9899992   5.5669978 108.1610014 142.8019992   6.0709978 108.2070014
 141.7459992   5.4219978 109.0750014 142.0681467   5.6163749 108.2908575
 142.5259992   6.5529978 117.3460014 142.6449992   7.1269978 118.1030014
 143.1809992   5.8649978 117.4600014 142.6309146   6.5385574 117.4651314
 142.8739992   2.6479978 109.0990014 142.5269992   3.2649978 109.7440014
 143.5329992   3.1489978 108.6180014 142.9155949   2.8001099 109.1222271
 138.5319992   3.7109978 105.7860014 138.4479992   4.5989978 106.1330014
 139.4219992   3.4459978 106.0180014 138.6408163   3.7967179 105.8648596
 135.9139992   1.5839978 112.6360014 135.6849992   1.6429978 111.7080014
 135.4719992   0.7929978 112.9420014 135.8228801   1.4850540 112.5504729
 134.8449992  15.5249978 108.7960014 134.0119992  15.9969978 108.8240014
 135.3899992  16.0349978 108.1980014 134.8047590  15.6585897 108.7189194
 134.1329992  18.1369978 120.1260014 134.6729992  17.9209978 120.8860014
 133.6519992  17.3319978 119.9370014 134.1418613  17.9985400 120.2044782
 138.7299992  17.0569978 121.7470014 139.4979992  16.5979978 122.0880014
 138.7089992  16.8309978 120.8170014 138.8322135  16.9636668 121.6679491
 145.3069992  15.4369978 120.4760014 144.9559992  14.5799978 120.7190014
 146.0329992  15.5789978 121.0830014 145.3571590  15.3390178 120.5912907
 134.0399992  11.9479978 121.0810014 134.1839992  11.0459978 120.7940014
 133.2679992  12.2339978 120.5930014 133.9553303  11.8633243 120.9757908
 140.6949992  11.9169978 120.5130014 140.3669992  12.1879978 119.6560014
 140.8469992  10.9759978 120.4260014 140.6706030  11.8268973 120.3837945
 143.7339992  13.3379978 102.9490014 143.4649992  13.5189978 103.8500014
 143.5269992  12.4129978 102.8180014 143.6692000  13.2376774 103.0545693
 134.8729992   9.1479978 120.5010014 135.2809992   8.2909978 120.3800014
 134.6119992   9.1619978 121.4220014 134.8936016   9.0325119 120.6089192
 139.5309992  10.2639978 105.5190014 139.0709992   9.7799978 106.2050014
 139.7859992   9.5949978 104.8830014 139.5025038  10.1073689 105.5269447
 138.8199992   8.1569978 117.8750014 138.2009992   8.8309978 118.1550014
 139.1639992   8.4779978 117.0420014 138.7817605   8.2927198 117.8006707
 140.6019992   8.5069978 103.7810014 140.4209992   8.3519978 102.8540014
 141.5519992   8.6149978 103.8260014 140.7056566   8.5003669 103.6600929
 143.8389992  10.6279978 121.1520014 144.7929992  10.7119978 121.1250014
 143.6789992   9.9159978 121.7720014 143.9477182  10.5432842 121.2320733
 139.1589992   5.5119978 118.9570014 139.3089992   4.7829978 118.3550014
 139.1609992   6.2889978 118.3980014 139.1797967   5.5172708 118.7990541
 139.5719992   3.8809978 116.4500014 140.1069992   4.3329978 115.7980014
 138.7189992   3.7729978 116.0270014 139.5300374   3.9282665 116.3036710
 141.1529992   9.3209978 116.6890014 141.9039992   9.1649978 116.1160014
 140.8139992  10.1729978 116.4140014 141.2099587   9.4148138 116.5734078
 145.5689992   7.1359978 121.7180014 145.7609992   6.2049978 121.6060014
 146.4269992   7.5609978 121.7080014 145.7112269   7.0659928 121.7013192
 137.6379992   6.7099978 120.8690014 136.8699992   6.1769978 120.6590014
 138.3159992   6.3999978 120.2690014 137.6246973   6.5952375 120.7591796
 140.3769992   1.3379978 116.8810014 140.2789992   2.2839978 116.7760014
 139.6349992   0.9649978 116.4060014 140.2631913   1.4171813 116.8023539
 141.6409992   5.6589978 120.4450014 141.4059992   5.4399978 121.3470014
 140.8579992   5.4519978 119.9350014 141.5029219   5.6010066 120.4995852
 144.3569992   4.7869978 119.5210014 143.4089992   4.8189978 119.6530014
 144.6689992   4.1609978 120.1740014 144.2695190   4.7067262 119.6273563
 135.8179992   4.6299978 120.5730014 136.0299992   3.9239978 119.9630014
 135.7069992   4.1929978 121.4170014 135.8320269   4.4741921 120.6035873
 140.5989992   0.6319978 119.5530014 141.3109992  -0.0080022 119.5390014
 140.4979992   0.8979978 118.6390014 140.6827261   0.5804190 119.4275537
 140.9529992   2.3139978 121.6060014 140.8209992   1.8389978 120.7860014
 140.3529992   3.0589978 121.5510014 140.8539070   2.3495789 121.4863251
 134.0669992  13.8339978 104.2650014 134.9809992  13.9129978 104.5390014
 134.0749992  13.1469978 103.5990014 134.1931143  13.7519085 104.2124274
 132.7159992  19.2269978 109.3430014 132.0689992  18.7649978 108.8100014
 133.0709992  18.5549978 109.9250014 132.6754506  19.0729503 109.3487341
 133.5859992  17.3069978 111.1470014 133.2519992  16.4269978 111.3190014
 133.8089992  17.6529978 112.0120014 133.5703721  17.2331938 111.2874168
 133.6659992  10.3829978 113.5990014 133.8509992  10.3009978 112.6630014
 134.5159992  10.2589978 114.0230014 133.8060916  10.3550393 113.5282896
 133.2639992   5.6529978 119.7400014 134.1829992   5.5309978 119.9760014
 132.8139992   4.9029978 120.1290014 133.3291148   5.5348751 119.8249408
 134.4849992   3.9659978 112.6310014 134.9299992   3.1739978 112.9330014
 134.9509992   4.6819978 113.0620014 134.6089059   3.9544474 112.7306079
 132.7889992   6.9649978 113.7000014 133.2809992   6.7439978 112.9090014
 133.1509992   7.8049978 113.9810014 132.9052923   7.0483468 113.6297407
 133.1029992   3.2229978 107.7540014 132.1779992   3.4309978 107.6250014
 133.5569992   3.7069978 107.0650014 133.0376374   3.3169949 107.6430957
 133.0659992   1.9609978 116.0990014 132.4009992   1.7149978 116.7420014
 132.6229992   2.5829978 115.5210014 132.9150937   2.0113614 116.1089379
 135.2579992  15.1359978 120.2430014 134.4369992  15.3109978 119.7830014
 135.0059992  15.0629978 121.1640014 135.1116173  15.1500794 120.3044972
 138.2119992  16.1099978 116.5020014 137.7879992  16.9199978 116.2190014
 139.1169992  16.1959978 116.2000014 138.2762433  16.2323331 116.4225377
 142.5239992  17.5089978 119.4610014 142.7079992  17.1759978 120.3390014
 143.3699992  17.8189978 119.1390014 142.6636484  17.5052979 119.5377617
 144.8689992  18.7949978 118.7050014 145.5459992  18.1619978 118.4650014
 145.1899992  19.1959978 119.5120014 145.0051323  18.7625691 118.7813158
 135.6139992  19.3669978 116.5490014 134.8939992  19.8069978 116.0980014
 135.2489992  19.1159978 117.3980014 135.4659796  19.3933824 116.6019329
 138.0809992  18.9669978 115.5790014 137.2169992  19.0389978 115.9830014
 138.0259992  19.5139978 114.7950014 137.9551942  19.0507849 115.5284000
 142.7919992  18.8549978 114.7540014 142.3349992  19.3839978 114.1000014
 142.9549992  19.4579978 115.4800014 142.7514476  19.0089140 114.7625499
 145.1199992  17.7329978 115.6990014 144.2149992  17.8979978 115.4340014
 145.5479992  18.5859978 115.6340014 145.0540700  17.8709529 115.6539520
 135.0289992  17.9899978 113.4590014 135.0109992  17.5639978 114.3170014
 135.8339992  17.6709978 113.0510014 135.1353221  17.8887233 113.5210225
 137.1699992  16.6999978 112.1140014 136.9509992  15.7829978 112.2840014
 137.9939992  16.8399978 112.5800014 137.2514702  16.5935511 112.2002527
 139.7069992  17.1699978 112.9630014 139.9199992  16.2819978 112.6760014
 139.7719992  17.1349978 113.9180014 139.7449075  17.0438307 113.0527373
 143.2159992   2.8339978 112.1070014 142.5419992   2.2039978 112.3630014
 143.7799992   2.3499978 111.5040014 143.2000384   2.6823708 112.0605020
 135.5429992   1.4679978 109.9290014 134.7659992   1.2329978 109.4220014
 136.0729992   0.6709978 109.9380014 135.5083451   1.3281268 109.8608627
 134.3789992   1.2659978 105.7330014 134.8179992   1.8769978 105.1410014
 133.7449992   1.8039978 106.2070014 134.3533859   1.4224064 105.7160305
 140.1219992   1.3939978 109.7430014 140.9959992   1.7829978 109.7130014
 139.9859992   1.1789978 110.6650014 140.2233207   1.4181923 109.8636509
 134.2799992  17.2139978 106.6310014 133.5949992  17.1759978 105.9630014
 134.2839992  18.1269978 106.9190014 134.1868174  17.3321998 106.5785310
 136.2399992   3.1819978 104.1750014 136.7309992   2.5519978 103.6480014
 136.8629992   3.4779978 104.8390014 136.3915062   3.1356770 104.1925438
 141.2659992   3.4749978 106.6330014 141.4439992   2.8279978 107.3150014
 141.2119992   4.3089978 107.1000014 141.2831025   3.4990504 106.7896433
 135.4999992   1.9819978 119.4470014 135.1339992   1.2159978 119.8900014
 136.4129992   2.0109978 119.7340014 135.5733225   1.8811906 119.5463459
 137.4729992   1.3319978 120.9830014 138.3719992   1.0579978 120.7980014
 137.0869992   0.5899978 121.4470014 137.5437237   1.1941508 121.0204710
  12.6289992  29.4799978 109.8880014  12.7179992  30.4239978 109.7560014
  11.9909992  29.2049978 109.2300014  12.5549061  29.5719812 109.7809641
  11.5619992  28.7349978 113.3070014  11.5239992  28.0889978 114.0120014
  11.2399992  28.2679978 112.5360014  11.5132679  28.5834276 113.2992921
   3.9299992  28.3489978 114.9000014   3.9719992  27.7239978 115.6230014
   4.6329992  28.9729978 115.0820014   4.0307345  28.3477873 115.0235274
  15.2679992  31.6739978 111.6090014  14.8269992  30.9539978 112.0590014
  15.2549992  32.3949978 112.2380014  15.2057960  31.6728329 111.7557567
   4.8539992  32.7989978 113.4350014   4.4839992  31.9969978 113.0650014
   5.7949992  32.6309978 113.4810014   4.9305984  32.6664638 113.3905603
   1.4639992  26.4589978 108.8280014   1.0159992  27.3049978 108.8090014
   0.9029992  25.8799978 108.3120014   1.3269603  26.4963674 108.7556720
   2.1739992  28.6209978 110.9540014   2.3879992  27.8509978 111.4810014
   2.9119992  28.7109978 110.3500014   2.3029652  28.5278012 110.9445212
  12.3799992  36.7779978 111.8210014  12.9989992  36.1019978 111.5470014
  12.1709992  36.5599978 112.7290014  12.4366232  36.6557938 111.9062517
   9.9509992  31.1669978 113.7130014  10.2549992  30.4809978 113.1190014
  10.6729992  31.2859978 114.3310014  10.0901152  31.0892189 113.7152123
  18.6139992  22.7689978 114.5740014  18.6639992  23.3789978 115.3100014
  19.0399992  23.2299978 113.8510014  18.6784108  22.9147709 114.5770112
  13.0919992  25.5609978 114.0410014  13.2349992  24.6149978 114.0610014
  12.9859992  25.7679978 113.1120014  13.0972509  25.4594813 113.9182231
   6.2469992  23.6629978 111.3130014   6.2899992  24.5229978 110.8950014
   5.7889992  23.1109978 110.6790014   6.1909815  23.7060621 111.1701197
  13.9689992  23.7939978 109.7140014  14.6159992  23.4649978 110.3390014
  14.4789992  24.3109978 109.0910014  14.1264317  23.8189227 109.7152167
   2.8669992  26.0599978 112.0750014   3.5209992  25.5099978 112.5070014
   2.8909992  25.7859978 111.1580014   2.9597199  25.9477167 112.0101668
   8.0239992  27.6099978 111.2900014   8.6399992  27.0829978 111.8000014
   7.4369992  26.9699978 110.8870014   8.0289239  27.4514117 111.3052952
  19.0059992  24.2469978 116.8100014  18.3169992  24.9049978 116.7140014
  19.0209992  24.0489978 117.7460014  18.9136741  24.3103243 116.9234630
   5.0569992  22.5809978 115.3870014   4.8379992  23.1109978 114.6210014
   4.3889992  22.8069978 116.0340014   4.9367001  22.6841154 115.3696064
  12.4259992  32.0809978 108.9310014  12.1309992  31.7579978 108.0800014
  12.1019992  32.9809978 108.9720014  12.3417983  32.1584026 108.8199771
   7.6259992  30.2559978 115.6750014   6.8859992  30.8549978 115.7780014
   8.3399992  30.8099978 115.3590014   7.6213288  30.4127356 115.6463805
  15.7329992  23.0849978 111.6940014  15.5179992  22.3189978 112.2270014
  16.3889992  23.5569978 112.2070014  15.7922673  23.0440728 111.8361990
   4.6509992  24.4729978 113.3390014   5.2649992  25.1059978 113.7130014
   5.1629992  24.0009978 112.6830014   4.8042277  24.4957352 113.3014279
   6.0339992  32.2209978 116.4620014   6.0279992  33.0999978 116.0840014
   5.1799992  32.1369978 116.8870014   5.9177925  32.3299535 116.4676887
   2.1549992  31.8919978 107.2440014   1.8829992  32.1209978 106.3550014
   2.1999992  32.7289978 107.7040014   2.1238709  32.0366058 107.1846107
  15.7799992  33.5129978 113.9560014  14.8379992  33.5719978 114.1180014
  16.0559992  34.4189978 113.8190014  15.6885865  33.6435288 113.9596192
  16.0799992  21.7999978 115.3740014  15.3439992  22.4099978 115.3360014
  16.7639992  22.2149978 114.8470014  16.0715506  21.9396400 115.2976051
   9.0839992  19.8859978 112.8400014   8.9659992  18.9379978 112.7850014
   8.2289992  20.2189978 113.1130014   8.9522679  19.8011926 112.8693720
  14.0319992  35.2939978 110.5820014  14.4569992  34.5869978 110.0970014
  14.3489992  36.0959978 110.1650014  14.1330266  35.3055190 110.4592479
  15.1919992  33.1949978 109.0900014  14.9339992  32.5049978 108.4790014
  15.2629992  32.7519978 109.9360014  15.1662837  33.0407106 109.1206912
  16.8779992  31.7619978 117.5680014  17.0169992  31.1699978 116.8280014
  17.0449992  32.6349978 117.2110014  16.9195562  31.7989896 117.4186283
  11.3499992  28.7239978 107.3400014  10.6389992  29.2589978 106.9880014
  12.0409992  28.7789978 106.6800014  11.3460751  28.8046777 107.2025858
  18.7189992  28.1019978 115.6340014  18.0669992  28.7959978 115.7230014
  19.1849992  28.3119978 114.8240014  18.6925937  28.2255019 115.5367533
  14.7559992  28.9329978 108.2920014  14.0239992  29.1619978 108.8650014
  15.2029992  28.2199978 108.7470014  14.7162753  28.8678972 108.4319715
  14.6529992  27.1079978 117.3600014  14.7329992  27.8709978 117.9310014
  14.0519992  27.3869978 116.6690014  14.5827245  27.2502630 117.3448424
   6.4009992  29.5639978 110.1740014   6.0709992  29.1929978 109.3560014
   6.9899992  28.8929978 110.5210014   6.4353970  29.4226063 110.1089404
   7.7679992  32.9919978 112.8560014   7.6729992  32.4129978 112.0990014
   8.4969992  32.6209978 113.3520014   7.8536161  32.8625891 112.8195209
   6.7679992  28.3319978 113.8080014   7.3329992  28.4539978 113.0450014
   7.0869992  28.9699978 114.4470014   6.8883977  28.4348851 113.7899424
  13.0769992  33.8359978 114.5420014  12.8369992  34.4979978 115.1900014
  12.8789992  33.0009978 114.9670014  13.0173826  33.8138115 114.6881566
   7.6479992  32.7319978 118.5250014   7.3369992  33.5139978 118.9800014
   6.9979992  32.5789978 117.8390014   7.5175538  32.8184087 118.4945898
  13.6269992  28.0959978 105.9770014  14.2059992  28.2459978 106.7240014
  14.0409992  28.5659978 105.2540014  13.7623122  28.1801277 105.9815042
   4.5679992  28.9299978 117.7540014   4.6379992  29.5809978 118.4520014
   3.6769992  29.0329978 117.4190014   4.4571802  29.0329757 117.8042249
  11.3529992  34.8319978 109.4120014  11.8269992  35.1279978 110.1900014
  10.7899992  35.5709978 109.1790014  11.3417361  34.9722721 109.4868611
   5.8869992  34.8029978 119.2880014   5.8949992  34.6669978 118.3410014
   4.9709992  34.6859978 119.5400014   5.7642528  34.7685463 119.1923243
  17.3259992  19.8459978 105.7900014  16.4259992  19.9849978 106.0850014
  17.5779992  20.6769978 105.3880014  17.2368683  19.9774055 105.7760232
   5.3919992  28.6329978 107.7640014   5.0999992  29.4009978 107.2730014
   4.7169992  27.9739978 107.6010014   5.2608497  28.6489745 107.6748260
  18.5149992  34.2119978 104.1660014  18.5879992  35.1509978 104.3370014
  19.4199992  33.9069978 104.1100014  18.6474158  34.2993061 104.1818392
   1.4849992  30.9959978 116.5790014   0.9829992  30.9679978 115.7640014
   1.4899992  30.0909978 116.8880014   1.4170416  30.8697368 116.5093766
   1.2349992  33.7769978 113.4630014   2.1809992  33.6319978 113.4440014
   1.1219992  34.5609978 114.0000014   1.3493578  33.8631697 113.5330317
  19.4329992  34.4429978 119.1450014  19.3829992  33.4869978 119.1080014
  18.6059992  34.7099978 119.5460014  19.3143987  34.3485174 119.1941446
  10.4109992  34.0169978 118.0210014  10.4989992  34.8429978 118.4960014
   9.5479992  33.6869978 118.2700014  10.3063357  34.0855468 118.1197653
  10.8259992  37.7889978 107.8270014  10.7499992  37.6679978 106.8810014
  10.8579992  38.7379978 107.9460014  10.8199156  37.9007530 107.7135048
   4.4789992  36.5779978 109.6080014   4.6309992  36.2299978 110.4870014
   3.6279992  36.2209978 109.3530014   4.3847899  36.4821738 109.6937340
  13.5959992  36.8689978 107.5790014  12.6609992  36.9689978 107.7570014
  13.8759992  36.1589978 108.1570014  13.5058173  36.7867239 107.6814998
  16.5849992  25.9359978 119.6250014  16.1769992  26.4159978 118.9050014
  16.6249992  25.0299978 119.3170014  16.5345476  25.8793160 119.4848247
   3.7339992  32.3199978 117.6220014   3.9499992  31.9579978 118.4810014
   2.8779992  31.9449978 117.4120014   3.6479354  32.2197906 117.7112160
   6.3519992  20.7899978 113.6170014   5.4909992  20.7029978 113.2100014
   6.3299992  21.6459978 114.0450014   6.2310411  20.8937884 113.6190857
  11.0149992  20.5119978 116.9920014  11.4349992  20.0969978 117.7450014
  10.0819992  20.3329978 117.1090014  10.9463736  20.4309910 117.1108968
  14.3419992  24.2669978 117.8450014  13.8279992  24.1419978 118.6430014
  14.1859992  25.1799978 117.6010014  14.2506967  24.3732123 117.9210937
   6.4429992  25.7549978 114.7120014   5.8019992  25.7149978 115.4210014
   6.4809992  26.6819978 114.4750014   6.3603670  25.8747795 114.7770550
   6.4399992  25.9759978 109.6240014   5.5479992  25.6359978 109.5660014
   6.8909992  25.5989978 108.8690014   6.3786815  25.8783762 109.5139203
  11.9759992  26.3919978 108.4410014  11.5669992  27.2069978 108.1500014
  12.6959992  26.2519978 107.8270014  12.0174013  26.4846571 108.3180875
  11.0779992  26.5679978 119.9290014  10.5149992  25.8629978 120.2500014
  11.9039992  26.4469978 120.3970014  11.1126674  26.4552165 120.0361751
  12.9809992  25.8379978 111.2550014  12.7849992  26.4439978 110.5400014
  13.1619992  25.0049978 110.8210014  12.9786584  25.8082513 111.0984212
   4.1929992  26.0759978 116.5790014   4.1549992  26.4759978 117.4480014
   3.7029992  25.2589978 116.6700014   4.1215621  26.0202510 116.7101377
   0.8019992  23.1919978 110.4300014   1.4319992  23.1629978 111.1490014
   1.2509992  22.7669978 109.7000014   0.9490692  23.1305316 110.4297771
   2.0759992  23.9379978 105.8540014   2.5499992  24.5289978 105.2690014
   1.3579992  24.4679978 106.2010014   2.0438640  24.0905511 105.8207969
  12.2449992  27.4759978 115.9270014  12.5679992  26.8449978 115.2840014
  11.8039992  26.9419978 116.5870014  12.2295789  27.3173522 115.9282232
   9.0219992  23.4039978 110.7110014   8.1109992  23.4609978 110.9990014
   9.5269992  23.3439978 111.5210014   8.9655387  23.4036870 110.8600646
   3.8499992  25.0329978 109.5370014   2.9609992  25.1319978 109.1970014
   4.1469992  24.1909978 109.1910014   3.7684177  24.9327687 109.4436940
   7.5029992  25.0329978 107.1940014   8.4349992  25.1619978 107.3720014
   7.2879992  25.7019978 106.5440014   7.6014472  25.1410806 107.1304891
  13.4269992  22.6389978 113.9750014  12.7499992  22.7699978 114.6390014
  12.9419992  22.4839978 113.1650014  13.2687265  22.6359659 113.9563397
  16.7149992  38.3099978 120.2520014  16.9139992  38.7339978 119.4170014
  17.3699992  38.6539978 120.8590014  16.8308501  38.4146091 120.2197097
   4.3129992  30.7839978 119.8600014   5.0449992  31.0389978 120.4210014
   3.5319992  30.9889978 120.3750014   4.3077684  30.8466468 120.0064782
  10.3419992  26.1909978 112.5980014  10.9059992  25.6449978 112.0510014
  10.1939992  25.6699978 113.3860014  10.3992575  26.0456552 112.6296987
   5.3439992  22.3279978 109.0160014   5.0269992  21.4249978 108.9810014
   6.1249992  22.3299978 108.4630014   5.4062307  22.2046951 108.9364314
   8.9679992  24.5799978 115.0120014   8.1329992  25.0339978 115.1220014
   9.4919992  24.8559978 115.7640014   8.9245070  24.6794666 115.1287152
   9.5129992  30.7929978 106.6960014   8.7679992  30.2849978 106.3740014
   9.3779992  30.8419978 107.6430014   9.3929047  30.7301596 106.7798845
  16.6629992  29.9259978 115.4830014  17.3039992  30.3819978 114.9390014
  15.8319992  30.0389978 115.0210014  16.6385171  30.0037502 115.3460237
  11.0319992  30.9769978 117.9330014  10.6859992  30.5949978 118.7400014
  10.8319992  31.9099978 118.0050014  10.9576523  31.0509095 118.0530735
  14.1289992  25.4739978 106.5560014  15.0209992  25.3359978 106.8750014
  14.1849992  26.2649978 106.0200014  14.2587107  25.5620526 106.5272091
   4.6369992  30.0879978 112.4660014   5.3819992  30.0849978 111.8650014
   4.7149992  29.2639978 112.9480014   4.7494158  29.9762916 112.4489153
   1.6449992  28.5479978 117.7810014   1.8679992  28.1299978 118.6130014
   1.0429992  27.9359978 117.3580014   1.5941260  28.4079933 117.8377320
   8.6619992  28.0649978 119.9940014   8.3659992  27.8999978 119.0990014
   9.5929992  27.8449978 119.9830014   8.7473982  28.0126578 119.8700045
  13.2819992  33.4389978 117.8840014  12.3819992  33.6219978 117.6160014
  13.3159992  33.6979978 118.8050014  13.1632909  33.4990815 117.9717852
  19.0139992  25.6829978 106.2510014  18.4589992  25.2869978 105.5790014
  19.1139992  26.5939978 105.9730014  18.9515888  25.7518990 106.1215206
  18.9769992  31.4839978 119.0880014  18.1259992  31.7219978 118.7210014
  19.5669992  31.4669978 118.3350014  18.9402408  31.5142966 118.9358879
  17.3089992  34.4689978 106.7160014  16.9359992  33.6439978 107.0250014
  17.5859992  34.2859978 105.8190014  17.2953871  34.3312441 106.6369677
  14.4689992  29.2769978 113.7370014  13.5409992  29.0459978 113.7100014
  14.9199992  28.4999978 113.4070014  14.4028165  29.1402774 113.6886790
   7.0119992  33.6059978 109.8700014   7.5399992  34.3789978 109.6700014
   6.1319992  33.8299978 109.5690014   6.9653176  33.7423161 109.8018409
   2.7669992  28.4679978 104.4580014   3.3829992  29.0949978 104.8370014
   1.9049992  28.7839978 104.7290014   2.7348195  28.5965798 104.5465386
   8.4399992  31.2689978 109.4470014   8.1989992  32.1939978 109.4880014
   7.6989992  30.8099978 109.8430014   8.3068390  31.3336403 109.5061404
   8.9539992  35.4179978 115.7620014   9.3169992  36.2719978 115.5280014
   9.4859992  35.1259978 116.5020014   9.0756090  35.4954058 115.8300219
   7.1229992  36.2899978 108.9920014   6.1729992  36.3959978 109.0430014
   7.4749992  37.1109978 109.3370014   7.0405480  36.4154438 109.0455999
  12.4979992  31.5169978 115.4620014  12.0729992  31.2889978 116.2890014
  13.0789992  30.7779978 115.2800014  12.5183930  31.3859843 115.5504731
  15.1569992  36.0689978 117.9320014  14.5549992  35.5129978 117.4360014
  15.4379992  36.7359978 117.3060014  15.1126829  36.0831613 117.7795443
   3.2789992  23.3019978 117.3390014   2.3869992  23.6399978 117.2720014
   3.1809992  22.4459978 117.7570014   3.1434965  23.2326499 117.3863044
  15.5669992  31.1179978 106.7630014  15.2899992  30.3899978 107.3190014
  16.4949992  31.2369978 106.9680014  15.6544499  31.0344213 106.8668044
   2.9309992  35.1059978 115.7740014   3.1479992  34.1739978 115.7430014
   3.1769992  35.3809978 116.6570014   2.9939809  35.0155686 115.8891690
   7.7289992  33.1279978 105.4400014   7.8759992  32.6079978 106.2300014
   7.7259992  34.0349978 105.7460014   7.7487300  33.1793964 105.5895895
   4.1819992  30.3799978 105.9500014   3.4959992  30.7329978 106.5170014
   4.7049992  31.1429978 105.7040014   4.1589033  30.5313746 105.9942661
  12.0139992  23.0429978 116.2290014  12.7129992  23.1169978 116.8790014
  11.6329992  22.1779978 116.3830014  12.0582097  22.9362389 116.3387997
  12.7979992  22.6949978 107.3260014  13.0179992  23.1659978 106.5230014
  13.3569992  23.0889978 107.9960014  12.9036730  22.8127432 107.3065906
  10.4669992  34.8249978 106.1890014   9.6499992  35.3219978 106.2410014
  10.9959992  35.3009978 105.5490014  10.4268508  34.9572543 106.1096035
   9.9979992  24.4229978 108.1610014  10.8099992  24.9269978 108.2070014
   9.7539992  24.2779978 109.0750014  10.0761467  24.4723749 108.2908575
  10.5339992  25.4089978 117.3460014  10.6529992  25.9829978 118.1030014
  11.1889992  24.7209978 117.4600014  10.6389146  25.3945574 117.4651314
  10.8819992  21.5039978 109.0990014  10.5349992  22.1209978 109.7440014
  11.5409992  22.0049978 108.6180014  10.9235949  21.6561099 109.1222271
   7.8049992  35.8689978 106.1710014   7.9659992  36.6689978 105.6700014
   7.6079992  36.1759978 107.0560014   7.8003919  36.0199129 106.2221006
   6.5399992  22.5669978 105.7860014   6.4559992  23.4549978 106.1330014
   7.4299992  22.3019978 106.0180014   6.6488163  22.6527179 105.8648596
  16.7379992  23.3159978 118.1810014  15.8219992  23.5779978 118.0930014
  17.0739992  23.3129978 117.2840014  16.6579789  23.3514626 118.0477847
  15.3409992  27.0659978 112.2760014  14.5429992  26.6509978 111.9480014
  15.7859992  26.3759978 112.7670014  15.2919684  26.9158628 112.2975227
  16.4269992  36.3219978 113.8990014  16.2709992  37.0009978 113.2420014
  17.3599992  36.3939978 114.1020014  16.5317387  36.4246390 113.8365342
   3.9219992  20.4399978 112.6360014   3.6929992  20.4989978 111.7080014
   3.4799992  19.6489978 112.9420014   3.8308801  20.3410540 112.5504729
   2.8529992  34.3809978 108.7960014   2.0199992  34.8529978 108.8240014
   3.3979992  34.8909978 108.1980014   2.8127590  34.5145897 108.7189194
   2.1409992  36.9929978 120.1260014   2.6809992  36.7769978 120.8860014
   1.6599992  36.1879978 119.9370014   2.1498613  36.8545400 120.2044782
   6.7379992  35.9129978 121.7470014   7.5059992  35.4539978 122.0880014
   6.7169992  35.6869978 120.8170014   6.8402135  35.8196668 121.6679491
  13.3149992  34.2929978 120.4760014  12.9639992  33.4359978 120.7190014
  14.0409992  34.4349978 121.0830014  13.3651590  34.1950178 120.5912907
   2.0479992  30.8039978 121.0810014   2.1919992  29.9019978 120.7940014
   1.2759992  31.0899978 120.5930014   1.9633303  30.7193243 120.9757908
   6.3889992  31.1469978 103.2130014   6.4539992  30.3529978 103.7440014
   7.0419992  31.0289978 102.5230014   6.4861754  31.0223337 103.1924259
   8.7029992  30.7729978 120.5130014   8.3749992  31.0439978 119.6560014
   8.8549992  29.8319978 120.4260014   8.6786030  30.6828973 120.3837945
  14.4379992  30.6889978 117.8970014  15.1829992  31.2779978 117.7770014
  13.6809992  31.2709978 117.9600014  14.4375205  30.8481997 117.8891119
   2.8809992  28.0039978 120.5010014   3.2889992  27.1469978 120.3800014
   2.6199992  28.0179978 121.4220014   2.9016016  27.8885119 120.6089192
   7.5389992  29.1199978 105.5190014   7.0789992  28.6359978 106.2050014
   7.7939992  28.4509978 104.8830014   7.5105038  28.9633689 105.5269447
   6.8279992  27.0129978 117.8750014   6.2089992  27.6869978 118.1550014
   7.1719992  27.3339978 117.0420014   6.7897605  27.1487198 117.8006707
   8.6099992  27.3629978 103.7810014   8.4289992  27.2079978 102.8540014
   9.5599992  27.4709978 103.8260014   8.7136566  27.3563669 103.6600929
  11.8469992  29.4839978 121.1520014  12.8009992  29.5679978 121.1250014
  11.6869992  28.7719978 121.7720014  11.9557182  29.3992842 121.2320733
   7.1669992  24.3679978 118.9570014   7.3169992  23.6389978 118.3550014
   7.1689992  25.1449978 118.3980014   7.1877967  24.3732708 118.7990541
   7.5799992  22.7369978 116.4500014   8.1149992  23.1889978 115.7980014
   6.7269992  22.6289978 116.0270014   7.5380374  22.7842665 116.3036710
   9.1609992  28.1769978 116.6890014   9.9119992  28.0209978 116.1160014
   8.8219992  29.0289978 116.4140014   9.2179587  28.2708138 116.5734078
  13.5769992  25.9919978 121.7180014  13.7689992  25.0609978 121.6060014
  14.4349992  26.4169978 121.7080014  13.7192269  25.9219928 121.7013192
  14.8939992  28.7809978 119.7950014  14.6119992  29.4899978 119.2180014
  15.8359992  28.7079978 119.6440014  14.9827656  28.8683128 119.6954809
   5.6459992  25.5659978 120.8690014   4.8779992  25.0329978 120.6590014
   6.3239992  25.2559978 120.2690014   5.6326973  25.4512375 120.7591796
   8.3849992  20.1939978 116.8810014   8.2869992  21.1399978 116.7760014
   7.6429992  19.8209978 116.4060014   8.2711913  20.2731813 116.8023539
   9.6489992  24.5149978 120.4450014   9.4139992  24.2959978 121.3470014
   8.8659992  24.3079978 119.9350014   9.5109219  24.4570066 120.4995852
  12.3649992  23.6429978 119.5210014  11.4169992  23.6749978 119.6530014
  12.6769992  23.0169978 120.1740014  12.2775190  23.5627262 119.6273564
  13.9989992  22.2769978 121.5260014  13.9019992  21.3249978 121.5200014
  13.6769992  22.5449978 122.3860014  13.9421761  22.1829744 121.6414936
   3.8259992  23.4859978 120.5730014   4.0379992  22.7799978 119.9630014
   3.7149992  23.0489978 121.4170014   3.8400269  23.3301921 120.6035873
   8.6069992  19.4879978 119.5530014   9.3189992  18.8479978 119.5390014
   8.5059992  19.7539978 118.6390014   8.6907261  19.4364190 119.4275537
   8.9609992  21.1699978 121.6060014   8.8289992  20.6949978 120.7860014
   8.3609992  21.9149978 121.5510014   8.8619070  21.2055789 121.4863251
   0.7239992  38.0829978 109.3430014   0.0769992  37.6209978 108.8100014
   1.0789992  37.4109978 109.9250014   0.6834506  37.9289503 109.3487341
   1.5939992  36.1629978 111.1470014   1.2599992  35.2829978 111.3190014
   1.8169992  36.5089978 112.0120014   1.5783721  36.0891938 111.2874168
  19.1429992  36.9729978 114.1280014  19.1209992  37.1579978 115.0670014
  19.8329992  37.5409978 113.7870014  19.2333439  37.0751887 114.2104791
  18.7059992  36.5399978 117.0500014  18.2189992  35.8049978 116.6790014
  19.2549992  36.1459978 117.7280014  18.7135247  36.3861057 117.0908461
  17.1569992  32.3299978 121.6880014  16.2909992  32.2249978 122.0820014
  17.5329992  33.0879978 122.1340014  17.0893401  32.4181708 121.8022620
  18.4579992  30.5859978 107.2020014  19.3079992  31.0069978 107.3290014
  18.4629992  29.8459978 107.8090014  18.5751143  30.5436094 107.3014750
  18.8519992  28.6399978 109.0260014  18.1259992  28.1599978 109.4230014
  19.4339992  28.8449978 109.7580014  18.8311635  28.6019166 109.1793748
  18.6109992  31.4249978 113.9730014  19.4449992  31.0469978 113.6930014
  18.7229992  32.3679978 113.8540014  18.7402522  31.5007742 113.9186020
  17.0979992  34.3029978 116.2800014  16.4499992  34.6279978 116.9060014
  16.5799992  33.8619978 115.6060014  16.9394168  34.2878523 116.2745307
  19.1209992  28.5409978 105.4170014  18.5989992  28.8969978 104.6980014
  19.0879992  29.2159978 106.0950014  19.0450699  28.6809848 105.4102129
  16.6389992  27.1609978 109.5890014  16.4889992  26.2159978 109.5680014
  16.2849992  27.4419978 110.4320014  16.5705527  27.0695605 109.7001859
   1.6739992  29.2389978 113.5990014   1.8589992  29.1569978 112.6630014
   2.5239992  29.1149978 114.0230014   1.8140916  29.2110393 113.5282896
  17.4949992  29.1309978 119.2270014  18.0779992  28.3959978 119.4190014
  18.0589992  29.9029978 119.2740014  17.6509781  29.1348145 119.2596164
  18.9919992  27.0339978 119.9120014  18.1289992  26.6549978 119.7460014
  19.5959992  26.2949978 119.8380014  18.9555944  26.8822978 119.8792984
  16.3499992  24.7429978 108.0510014  16.6289992  23.8359978 108.1750014
  17.1089992  25.1769978 107.6620014  16.4908619  24.6774502 108.0153795
  16.9609992  25.3249978 113.4870014  17.8939992  25.5369978 113.4530014
  16.7259992  25.4259978 114.4090014  17.0568308  25.3676503 113.6070214
  16.9909992  26.0619978 116.2630014  16.1479992  26.3299978 116.6290014
  17.4329992  26.8839978 116.0520014  16.9354138  26.2098273 116.2845518
   1.2719992  24.5089978 119.7400014   2.1909992  24.3869978 119.9760014
   0.8219992  23.7589978 120.1290014   1.3371148  24.3908751 119.8249408
  19.2739992  20.0419978 121.6160014  19.6229992  19.3879978 121.0110014
  19.4209992  20.8789978 121.1770014  19.3417355  20.0656067 121.4736564
  16.9629992  22.0059978 108.0990014  17.1449992  21.5569978 108.9250014
  16.3629992  21.4219978 107.6360014  16.9067529  21.8656131 108.1493619
   2.4929992  22.8219978 112.6310014   2.9379992  22.0299978 112.9330014
   2.9589992  23.5379978 113.0620014   2.6169059  22.8104474 112.7306079
   0.7969992  25.8209978 113.7000014   1.2889992  25.5999978 112.9090014
   1.1589992  26.6609978 113.9810014   0.9132923  25.9043468 113.6297407
  18.7929992  22.1509978 119.9660014  17.8759992  22.4219978 119.9300014
  18.9159992  21.6159978 119.1820014  18.6840828  22.1157700 119.8550785
  18.8299992  22.0739978 104.6270014  19.2419992  21.3529978 104.1520014
  19.5109992  22.7429978 104.6860014  18.9785900  22.0657306 104.5699038
   1.1109992  22.0789978 107.7540014   0.1859992  22.2869978 107.6250014
   1.5649992  22.5629978 107.0650014   1.0456374  22.1729949 107.6430957
  15.8809992  37.0629978 109.7000014  16.5339992  36.7149978 109.0920014
  16.3919992  37.5509978 110.3460014  16.0392777  37.0813815 109.7042047
   1.0739992  20.8169978 116.0990014   0.4089992  20.5709978 116.7420014
   0.6309992  21.4389978 115.5210014   0.9230937  20.8673614 116.1089379
   3.2659992  33.9919978 120.2430014   2.4449992  34.1669978 119.7830014
   3.0139992  33.9189978 121.1640014   3.1196173  34.0060794 120.3044972
   6.2199992  34.9659978 116.5020014   5.7959992  35.7759978 116.2190014
   7.1249992  35.0519978 116.2000014   6.2842433  35.0883331 116.4225377
  10.5319992  36.3649978 119.4610014  10.7159992  36.0319978 120.3390014
  11.3779992  36.6749978 119.1390014  10.6716484  36.3612979 119.5377617
  12.8769992  37.6509978 118.7050014  13.5539992  37.0179978 118.4650014
  13.1979992  38.0519978 119.5120014  13.0131323  37.6185691 118.7813158
  17.7939992  20.2409978 117.7850014  16.9809992  20.5659978 117.3970014
  18.0269992  19.4799978 117.2520014  17.7142566  20.1826559 117.6599213
   3.6219992  38.2229978 116.5490014   2.9019992  38.6629978 116.0980014
   3.2569992  37.9719978 117.3980014   3.4739796  38.2493824 116.6019329
   6.0889992  37.8229978 115.5790014   5.2249992  37.8949978 115.9830014
   6.0339992  38.3699978 114.7950014   5.9631942  37.9067849 115.5284000
  10.7999992  37.7109978 114.7540014  10.3429992  38.2399978 114.1000014
  10.9629992  38.3139978 115.4800014  10.7594476  37.8649140 114.7625499
  13.1279992  36.5889978 115.6990014  12.2229992  36.7539978 115.4340014
  13.5559992  37.4419978 115.6340014  13.0620700  36.7269529 115.6539520
  15.7319992  38.1589978 115.9940014  15.5499992  39.0749978 115.7840014
  15.9089992  37.7479978 115.1480014  15.7309907  38.2289741 115.8507883
   3.0369992  36.8459978 113.4590014   3.0189992  36.4199978 114.3170014
   3.8419992  36.5269978 113.0510014   3.1433221  36.7447233 113.5210225
   5.1779992  35.5559978 112.1140014   4.9589992  34.6389978 112.2840014
   6.0019992  35.6959978 112.5800014   5.2594702  35.4495511 112.2002527
   7.7149992  36.0259978 112.9630014   7.9279992  35.1379978 112.6760014
   7.7799992  35.9909978 113.9180014   7.7529075  35.8998307 113.0527373
  11.2239992  21.6899978 112.1070014  10.5499992  21.0599978 112.3630014
  11.7879992  21.2059978 111.5040014  11.2080384  21.5383708 112.0605020
  16.3669992  19.7969978 112.2200014  16.9699992  20.3449978 111.7180014
  15.4969992  20.1159978 111.9800014  16.3319190  19.9151041 112.1188679
  18.0939992  20.9359978 110.5530014  18.7049992  20.4219978 110.0270014
  18.4759992  21.8129978 110.5770014  18.2294475  20.9841323 110.4841208
   3.5509992  20.3239978 109.9290014   2.7739992  20.0889978 109.4220014
   4.0809992  19.5269978 109.9380014   3.5163451  20.1841268 109.8608627
   2.3869992  20.1219978 105.7330014   2.8259992  20.7329978 105.1410014
   1.7529992  20.6599978 106.2070014   2.3613859  20.2784064 105.7160305
   8.1299992  20.2499978 109.7430014   9.0039992  20.6389978 109.7130014
   7.9939992  20.0349978 110.6650014   8.2313207  20.2741923 109.8636509
  13.6869992  20.2799978 111.3920014  13.7629992  20.3759978 110.4430014
  13.4119992  19.3729978 111.5210014  13.6602042  20.1704241 111.2793811
  15.0399992  20.3059978 107.0840014  14.3369992  20.9209978 106.8750014
  14.5949992  19.4689978 107.2160014  14.8836292  20.2770085 107.0732439
   2.2879992  36.0699978 106.6310014   1.6029992  36.0319978 105.9630014
   2.2919992  36.9829978 106.9190014   2.1948174  36.1881998 106.5785310
   9.2739992  22.3309978 106.6330014   9.4519992  21.6839978 107.3150014
   9.2199992  23.1649978 107.1000014   9.2911025  22.3550504 106.7896433
  11.1519992  37.2789978 105.0280014  12.0179992  37.6459978 104.8500014
  10.9059992  36.8399978 104.2140014  11.2372097  37.2698525 104.8936019
  17.8609992  36.8419978 107.7070014  17.6669992  36.0939978 107.1420014
  17.8219992  37.5999978 107.1240014  17.8291645  36.8420786 107.5508148
   3.5079992  20.8379978 119.4470014   3.1419992  20.0719978 119.8900014
   4.4209992  20.8669978 119.7340014   3.5813225  20.7371906 119.5463459
   5.4809992  20.1879978 120.9830014   6.3799992  19.9139978 120.7980014
   5.0949992  19.4459978 121.4470014   5.5517237  20.0501508 121.0204710
  13.9029992  19.5209978 121.1650014  13.9789992  19.0949978 122.0190014
  14.7959992  19.5339978 120.8220014  14.0342267  19.4643952 121.2355932
  17.0789992  35.5939978 119.8570014  16.2969992  35.4069978 119.3380014
  17.0069992  36.5229978 120.0750014  16.9620863  35.6940221 119.8153574
  31.4849992  29.4799978 109.8880014  31.5739992  30.4239978 109.7560014
  30.8469992  29.2049978 109.2300014  31.4109062  29.5719812 109.7809641
  30.4179992  28.7349978 113.3070014  30.3799992  28.0889978 114.0120014
  30.0959992  28.2679978 112.5360014  30.3692679  28.5834276 113.2992921
  22.7859992  28.3489978 114.9000014  22.8279992  27.7239978 115.6230014
  23.4889992  28.9729978 115.0820014  22.8867345  28.3477873 115.0235274
  34.1239992  31.6739978 111.6090014  33.6829992  30.9539978 112.0590014
  34.1109992  32.3949978 112.2380014  34.0617960  31.6728329 111.7557567
  23.7099992  32.7989978 113.4350014  23.3399992  31.9969978 113.0650014
  24.6509992  32.6309978 113.4810014  23.7865984  32.6664638 113.3905603
  20.3199992  26.4589978 108.8280014  19.8719992  27.3049978 108.8090014
  19.7589992  25.8799978 108.3120014  20.1829603  26.4963674 108.7556720
  21.0299992  28.6209978 110.9540014  21.2439992  27.8509978 111.4810014
  21.7679992  28.7109978 110.3500014  21.1589652  28.5278012 110.9445212
  31.2359992  36.7779978 111.8210014  31.8549992  36.1019978 111.5470014
  31.0269992  36.5599978 112.7290014  31.2926232  36.6557938 111.9062517
  28.8069992  31.1669978 113.7130014  29.1109992  30.4809978 113.1190014
  29.5289992  31.2859978 114.3310014  28.9461152  31.0892189 113.7152123
  37.4699992  22.7689978 114.5740014  37.5199992  23.3789978 115.3100014
  37.8959992  23.2299978 113.8510014  37.5344108  22.9147709 114.5770112
  31.9479992  25.5609978 114.0410014  32.0909992  24.6149978 114.0610014
  31.8419992  25.7679978 113.1120014  31.9532509  25.4594813 113.9182231
  25.1029992  23.6629978 111.3130014  25.1459992  24.5229978 110.8950014
  24.6449992  23.1109978 110.6790014  25.0469815  23.7060621 111.1701197
  32.8249992  23.7939978 109.7140014  33.4719992  23.4649978 110.3390014
  33.3349992  24.3109978 109.0910014  32.9824317  23.8189227 109.7152167
  21.7229992  26.0599978 112.0750014  22.3769992  25.5099978 112.5070014
  21.7469992  25.7859978 111.1580014  21.8157199  25.9477167 112.0101668
  26.8799992  27.6099978 111.2900014  27.4959992  27.0829978 111.8000014
  26.2929992  26.9699978 110.8870014  26.8849239  27.4514117 111.3052952
  37.8619992  24.2469978 116.8100014  37.1729992  24.9049978 116.7140014
  37.8769992  24.0489978 117.7460014  37.7696740  24.3103242 116.9234630
  23.9129992  22.5809978 115.3870014  23.6939992  23.1109978 114.6210014
  23.2449992  22.8069978 116.0340014  23.7927001  22.6841154 115.3696064
  31.2819992  32.0809978 108.9310014  30.9869992  31.7579978 108.0800014
  30.9579992  32.9809978 108.9720014  31.1977983  32.1584026 108.8199771
  26.4819992  30.2559978 115.6750014  25.7419992  30.8549978 115.7780014
  27.1959992  30.8099978 115.3590014  26.4773288  30.4127356 115.6463805
  34.5889992  23.0849978 111.6940014  34.3739992  22.3189978 112.2270014
  35.2449992  23.5569978 112.2070014  34.6482673  23.0440728 111.8361990
  23.5069992  24.4729978 113.3390014  24.1209992  25.1059978 113.7130014
  24.0189992  24.0009978 112.6830014  23.6602277  24.4957352 113.3014279
  24.8899992  32.2209978 116.4620014  24.8839992  33.0999978 116.0840014
  24.0359992  32.1369978 116.8870014  24.7737925  32.3299535 116.4676887
  21.0109992  31.8919978 107.2440014  20.7389992  32.1209978 106.3550014
  21.0559992  32.7289978 107.7040014  20.9798709  32.0366058 107.1846107
  34.6359992  33.5129978 113.9560014  33.6939992  33.5719978 114.1180014
  34.9119992  34.4189978 113.8190014  34.5445865  33.6435288 113.9596192
  34.9359992  21.7999978 115.3740014  34.1999992  22.4099978 115.3360014
  35.6199992  22.2149978 114.8470014  34.9275506  21.9396400 115.2976051
  27.9399992  19.8859978 112.8400014  27.8219992  18.9379978 112.7850014
  27.0849992  20.2189978 113.1130014  27.8082679  19.8011926 112.8693720
  32.8879992  35.2939978 110.5820014  33.3129992  34.5869978 110.0970014
  33.2049992  36.0959978 110.1650014  32.9890266  35.3055190 110.4592479
  34.0479992  33.1949978 109.0900014  33.7899992  32.5049978 108.4790014
  34.1189992  32.7519978 109.9360014  34.0222837  33.0407106 109.1206912
  35.7339992  31.7619978 117.5680014  35.8729992  31.1699978 116.8280014
  35.9009992  32.6349978 117.2110014  35.7755562  31.7989896 117.4186283
  30.2059992  28.7239978 107.3400014  29.4949992  29.2589978 106.9880014
  30.8969992  28.7789978 106.6800014  30.2020751  28.8046777 107.2025858
  37.5749992  28.1019978 115.6340014  36.9229992  28.7959978 115.7230014
  38.0409992  28.3119978 114.8240014  37.5485937  28.2255019 115.5367533
  33.6119992  28.9329978 108.2920014  32.8799992  29.1619978 108.8650014
  34.0589992  28.2199978 108.7470014  33.5722753  28.8678972 108.4319715
  33.5089992  27.1079978 117.3600014  33.5889992  27.8709978 117.9310014
  32.9079992  27.3869978 116.6690014  33.4387245  27.2502630 117.3448424
  25.2569992  29.5639978 110.1740014  24.9269992  29.1929978 109.3560014
  25.8459992  28.8929978 110.5210014  25.2913970  29.4226063 110.1089404
  26.6239992  32.9919978 112.8560014  26.5289992  32.4129978 112.0990014
  27.3529992  32.6209978 113.3520014  26.7096161  32.8625891 112.8195209
  25.6239992  28.3319978 113.8080014  26.1889992  28.4539978 113.0450014
  25.9429992  28.9699978 114.4470014  25.7443977  28.4348851 113.7899424
  31.9329992  33.8359978 114.5420014  31.6929992  34.4979978 115.1900014
  31.7349992  33.0009978 114.9670014  31.8733826  33.8138115 114.6881566
  26.5039992  32.7319978 118.5250014  26.1929992  33.5139978 118.9800014
  25.8539992  32.5789978 117.8390014  26.3735538  32.8184087 118.4945898
  32.4829992  28.0959978 105.9770014  33.0619992  28.2459978 106.7240014
  32.8969992  28.5659978 105.2540014  32.6183122  28.1801277 105.9815042
  23.4239992  28.9299978 117.7540014  23.4939992  29.5809978 118.4520014
  22.5329992  29.0329978 117.4190014  23.3131802  29.0329757 117.8042249
  30.2089992  34.8319978 109.4120014  30.6829992  35.1279978 110.1900014
  29.6459992  35.5709978 109.1790014  30.1977361  34.9722721 109.4868611
  24.7429992  34.8029978 119.2880014  24.7509992  34.6669978 118.3410014
  23.8269992  34.6859978 119.5400014  24.6202528  34.7685463 119.1923243
  36.1819992  19.8459978 105.7900014  35.2819992  19.9849978 106.0850014
  36.4339992  20.6769978 105.3880014  36.0928683  19.9774055 105.7760232
  24.2479992  28.6329978 107.7640014  23.9559992  29.4009978 107.2730014
  23.5729992  27.9739978 107.6010014  24.1168497  28.6489745 107.6748260
  20.3409992  30.9959978 116.5790014  19.8389992  30.9679978 115.7640014
  20.3459992  30.0909978 116.8880014  20.2730416  30.8697368 116.5093766
  20.0909992  33.7769978 113.4630014  21.0369992  33.6319978 113.4440014
  19.9779992  34.5609978 114.0000014  20.2053578  33.8631697 113.5330317
  38.2889992  34.4429978 119.1450014  38.2389992  33.4869978 119.1080014
  37.4619992  34.7099978 119.5460014  38.1703987  34.3485174 119.1941446
  29.2669992  34.0169978 118.0210014  29.3549992  34.8429978 118.4960014
  28.4039992  33.6869978 118.2700014  29.1623357  34.0855468 118.1197653
  29.6819992  37.7889978 107.8270014  29.6059992  37.6679978 106.8810014
  29.7139992  38.7379978 107.9460014  29.6759156  37.9007530 107.7135048
  23.3349992  36.5779978 109.6080014  23.4869992  36.2299978 110.4870014
  22.4839992  36.2209978 109.3530014  23.2407899  36.4821738 109.6937340
  32.7829992  36.9429978 104.8290014  33.1579992  36.1989978 104.3590014
  32.7879992  36.6729978 105.7480014  32.8350024  36.8046950 104.8887987
  32.4519992  36.8689978 107.5790014  31.5169992  36.9689978 107.7570014
  32.7319992  36.1589978 108.1570014  32.3618173  36.7867239 107.6814998
  35.4409992  25.9359978 119.6250014  35.0329992  26.4159978 118.9050014
  35.4809992  25.0299978 119.3170014  35.3905476  25.8793160 119.4848247
  22.5899992  32.3199978 117.6220014  22.8059992  31.9579978 118.4810014
  21.7339992  31.9449978 117.4120014  22.5039354  32.2197906 117.7112160
  25.2079992  20.7899978 113.6170014  24.3469992  20.7029978 113.2100014
  25.1859992  21.6459978 114.0450014  25.0870411  20.8937884 113.6190857
  29.8709992  20.5119978 116.9920014  30.2909992  20.0969978 117.7450014
  28.9379992  20.3329978 117.1090014  29.8023736  20.4309910 117.1108968
  33.1979992  24.2669978 117.8450014  32.6839992  24.1419978 118.6430014
  33.0419992  25.1799978 117.6010014  33.1066967  24.3732123 117.9210937
  33.9599992  29.1279978 103.6070014  34.0019992  28.9059978 102.6770014
  34.8089992  29.5269978 103.7970014  34.0805253  29.1515498 103.5053822
  25.2989992  25.7549978 114.7120014  24.6579992  25.7149978 115.4210014
  25.3369992  26.6819978 114.4750014  25.2163670  25.8747795 114.7770550
  25.2959992  25.9759978 109.6240014  24.4039992  25.6359978 109.5660014
  25.7469992  25.5989978 108.8690014  25.2346815  25.8783762 109.5139203
  30.8319992  26.3919978 108.4410014  30.4229992  27.2069978 108.1500014
  31.5519992  26.2519978 107.8270014  30.8734013  26.4846571 108.3180875
  29.9339992  26.5679978 119.9290014  29.3709992  25.8629978 120.2500014
  30.7599992  26.4469978 120.3970014  29.9686674  26.4552165 120.0361751
  31.8369992  25.8379978 111.2550014  31.6409992  26.4439978 110.5400014
  32.0179992  25.0049978 110.8210014  31.8346584  25.8082513 111.0984212
  23.0489992  26.0759978 116.5790014  23.0109992  26.4759978 117.4480014
  22.5589992  25.2589978 116.6700014  22.9775621  26.0202510 116.7101377
  19.6579992  23.1919978 110.4300014  20.2879992  23.1629978 111.1490014
  20.1069992  22.7669978 109.7000014  19.8050692  23.1305316 110.4297771
  20.9319992  23.9379978 105.8540014  21.4059992  24.5289978 105.2690014
  20.2139992  24.4679978 106.2010014  20.8998640  24.0905511 105.8207969
  31.1009992  27.4759978 115.9270014  31.4239992  26.8449978 115.2840014
  30.6599992  26.9419978 116.5870014  31.0855789  27.3173522 115.9282232
  27.8779992  23.4039978 110.7110014  26.9669992  23.4609978 110.9990014
  28.3829992  23.3439978 111.5210014  27.8215387  23.4036870 110.8600646
  22.7059992  25.0329978 109.5370014  21.8169992  25.1319978 109.1970014
  23.0029992  24.1909978 109.1910014  22.6244177  24.9327687 109.4436940
  26.3589992  25.0329978 107.1940014  27.2909992  25.1619978 107.3720014
  26.1439992  25.7019978 106.5440014  26.4574472  25.1410806 107.1304891
  32.2829992  22.6389978 113.9750014  31.6059992  22.7699978 114.6390014
  31.7979992  22.4839978 113.1650014  32.1247265  22.6359659 113.9563397
  25.0329992  26.2269978 104.7610014  24.4909992  25.8479978 104.0690014
  25.8669992  26.4219978 104.3320014  25.0715159  26.2015076 104.6084419
  35.5709992  38.3099978 120.2520014  35.7699992  38.7339978 119.4170014
  36.2259992  38.6539978 120.8590014  35.6868501  38.4146091 120.2197097
  23.1689992  30.7839978 119.8600014  23.9009992  31.0389978 120.4210014
  22.3879992  30.9889978 120.3750014  23.1637684  30.8466468 120.0064782
  29.1979992  26.1909978 112.5980014  29.7619992  25.6449978 112.0510014
  29.0499992  25.6699978 113.3860014  29.2552575  26.0456552 112.6296987
  24.1999992  22.3279978 109.0160014  23.8829992  21.4249978 108.9810014
  24.9809992  22.3299978 108.4630014  24.2622307  22.2046951 108.9364314
  27.8239992  24.5799978 115.0120014  26.9889992  25.0339978 115.1220014
  28.3479992  24.8559978 115.7640014  27.7805070  24.6794666 115.1287152
  28.3689992  30.7929978 106.6960014  27.6239992  30.2849978 106.3740014
  28.2339992  30.8419978 107.6430014  28.2489047  30.7301596 106.7798845
  35.5189992  29.9259978 115.4830014  36.1599992  30.3819978 114.9390014
  34.6879992  30.0389978 115.0210014  35.4945171  30.0037502 115.3460237
  32.2659992  23.6069978 104.8960014  31.3279992  23.7179978 104.7440014
  32.5639992  24.4629978 105.2020014  32.1776402  23.7380621 104.9165571
  29.8879992  30.9769978 117.9330014  29.5419992  30.5949978 118.7400014
  29.6879992  31.9099978 118.0050014  29.8136523  31.0509095 118.0530735
  32.9849992  25.4739978 106.5560014  33.8769992  25.3359978 106.8750014
  33.0409992  26.2649978 106.0200014  33.1147107  25.5620526 106.5272091
  23.4929992  30.0879978 112.4660014  24.2379992  30.0849978 111.8650014
  23.5709992  29.2639978 112.9480014  23.6054158  29.9762916 112.4489153
  30.4939992  32.2509978 105.7220014  30.1989992  33.0779978 106.1030014
  29.7909992  31.6319978 105.9180014  30.3585471  32.2805227 105.8006698
  20.5009992  28.5479978 117.7810014  20.7239992  28.1299978 118.6130014
  19.8989992  27.9359978 117.3580014  20.4501260  28.4079933 117.8377320
  27.5179992  28.0649978 119.9940014  27.2219992  27.8999978 119.0990014
  28.4489992  27.8449978 119.9830014  27.6033982  28.0126578 119.8700045
  32.1379992  33.4389978 117.8840014  31.2379992  33.6219978 117.6160014
  32.1719992  33.6979978 118.8050014  32.0192909  33.4990815 117.9717852
  37.8329992  31.4839978 119.0880014  36.9819992  31.7219978 118.7210014
  38.4229992  31.4669978 118.3350014  37.7962408  31.5142966 118.9358879
  36.1649992  34.4689978 106.7160014  35.7919992  33.6439978 107.0250014
  36.4419992  34.2859978 105.8190014  36.1513871  34.3312441 106.6369677
  33.3249992  29.2769978 113.7370014  32.3969992  29.0459978 113.7100014
  33.7759992  28.4999978 113.4070014  33.2588165  29.1402774 113.6886790
  25.8679992  33.6059978 109.8700014  26.3959992  34.3789978 109.6700014
  24.9879992  33.8299978 109.5690014  25.8213176  33.7423161 109.8018409
  27.2959992  31.2689978 109.4470014  27.0549992  32.1939978 109.4880014
  26.5549992  30.8099978 109.8430014  27.1628390  31.3336403 109.5061404
  27.8099992  35.4179978 115.7620014  28.1729992  36.2719978 115.5280014
  28.3419992  35.1259978 116.5020014  27.9316090  35.4954058 115.8300219
  25.9789992  36.2899978 108.9920014  25.0289992  36.3959978 109.0430014
  26.3309992  37.1109978 109.3370014  25.8965480  36.4154438 109.0455999
  31.3539992  31.5169978 115.4620014  30.9289992  31.2889978 116.2890014
  31.9349992  30.7779978 115.2800014  31.3743930  31.3859843 115.5504732
  34.0129992  36.0689978 117.9320014  33.4109992  35.5129978 117.4360014
  34.2939992  36.7359978 117.3060014  33.9686829  36.0831613 117.7795443
  22.1349992  23.3019978 117.3390014  21.2429992  23.6399978 117.2720014
  22.0369992  22.4459978 117.7570014  21.9994965  23.2326499 117.3863044
  34.4229992  31.1179978 106.7630014  34.1459992  30.3899978 107.3190014
  35.3509992  31.2369978 106.9680014  34.5104499  31.0344213 106.8668044
  21.7869992  35.1059978 115.7740014  22.0039992  34.1739978 115.7430014
  22.0329992  35.3809978 116.6570014  21.8499809  35.0155686 115.8891690
  30.8699992  23.0429978 116.2290014  31.5689992  23.1169978 116.8790014
  30.4889992  22.1779978 116.3830014  30.9142097  22.9362389 116.3387997
  31.6539992  22.6949978 107.3260014  31.8739992  23.1659978 106.5230014
  32.2129992  23.0889978 107.9960014  31.7596730  22.8127432 107.3065906
  28.8539992  24.4229978 108.1610014  29.6659992  24.9269978 108.2070014
  28.6099992  24.2779978 109.0750014  28.9321467  24.4723749 108.2908575
  29.3899992  25.4089978 117.3460014  29.5089992  25.9829978 118.1030014
  30.0449992  24.7209978 117.4600014  29.4949146  25.3945574 117.4651314
  29.7379992  21.5039978 109.0990014  29.3909992  22.1209978 109.7440014
  30.3969992  22.0049978 108.6180014  29.7795949  21.6561099 109.1222271
  26.6609992  35.8689978 106.1710014  26.8219992  36.6689978 105.6700014
  26.4639992  36.1759978 107.0560014  26.6563919  36.0199129 106.2221006
  35.5939992  23.3159978 118.1810014  34.6779992  23.5779978 118.0930014
  35.9299992  23.3129978 117.2840014  35.5139789  23.3514626 118.0477847
  34.1969992  27.0659978 112.2760014  33.3989992  26.6509978 111.9480014
  34.6419992  26.3759978 112.7670014  34.1479684  26.9158628 112.2975227
  23.6539992  32.9939978 104.8470014  24.2459992  33.6939978 105.1230014
  24.1129992  32.5609978 104.1270014  23.7970791  33.0312908 104.7874607
  21.9699992  25.6589978 103.9630014  21.9249992  26.5979978 104.1410014
  21.0819992  25.4229978 103.6930014  21.8438555  25.7556874 103.9508939
  35.2829992  36.3219978 113.8990014  35.1269992  37.0009978 113.2420014
  36.2159992  36.3939978 114.1020014  35.3877387  36.4246390 113.8365342
  22.7779992  20.4399978 112.6360014  22.5489992  20.4989978 111.7080014
  22.3359992  19.6489978 112.9420014  22.6868801  20.3410540 112.5504729
  21.7089992  34.3809978 108.7960014  20.8759992  34.8529978 108.8240014
  22.2539992  34.8909978 108.1980014  21.6687590  34.5145897 108.7189194
  20.9969992  36.9929978 120.1260014  21.5369992  36.7769978 120.8860014
  20.5159992  36.1879978 119.9370014  21.0058613  36.8545400 120.2044782
  25.5939992  35.9129978 121.7470014  26.3619992  35.4539978 122.0880014
  25.5729992  35.6869978 120.8170014  25.6962135  35.8196668 121.6679491
  32.1709992  34.2929978 120.4760014  31.8199992  33.4359978 120.7190014
  32.8969992  34.4349978 121.0830014  32.2211590  34.1950178 120.5912907
  20.9039992  30.8039978 121.0810014  21.0479992  29.9019978 120.7940014
  20.1319992  31.0899978 120.5930014  20.8193303  30.7193243 120.9757908
  27.5589992  30.7729978 120.5130014  27.2309992  31.0439978 119.6560014
  27.7109992  29.8319978 120.4260014  27.5346030  30.6828973 120.3837945
  33.2939992  30.6889978 117.8970014  34.0389992  31.2779978 117.7770014
  32.5369992  31.2709978 117.9600014  33.2935205  30.8481997 117.8891119
  21.7369992  28.0039978 120.5010014  22.1449992  27.1469978 120.3800014
  21.4759992  28.0179978 121.4220014  21.7576016  27.8885119 120.6089192
  26.3949992  29.1199978 105.5190014  25.9349992  28.6359978 106.2050014
  26.6499992  28.4509978 104.8830014  26.3665038  28.9633689 105.5269447
  25.6839992  27.0129978 117.8750014  25.0649992  27.6869978 118.1550014
  26.0279992  27.3339978 117.0420014  25.6457605  27.1487198 117.8006707
  30.7029992  29.4839978 121.1520014  31.6569992  29.5679978 121.1250014
  30.5429992  28.7719978 121.7720014  30.8117182  29.3992842 121.2320733
  26.0229992  24.3679978 118.9570014  26.1729992  23.6389978 118.3550014
  26.0249992  25.1449978 118.3980014  26.0437967  24.3732708 118.7990541
  26.4359992  22.7369978 116.4500014  26.9709992  23.1889978 115.7980014
  25.5829992  22.6289978 116.0270014  26.3940374  22.7842665 116.3036710
  28.0169992  28.1769978 116.6890014  28.7679992  28.0209978 116.1160014
  27.6779992  29.0289978 116.4140014  28.0739587  28.2708138 116.5734078
  32.4329992  25.9919978 121.7180014  32.6249992  25.0609978 121.6060014
  33.2909992  26.4169978 121.7080014  32.5752269  25.9219928 121.7013192
  33.7499992  28.7809978 119.7950014  33.4679992  29.4899978 119.2180014
  34.6919992  28.7079978 119.6440014  33.8387656  28.8683128 119.6954809
  24.5019992  25.5659978 120.8690014  23.7339992  25.0329978 120.6590014
  25.1799992  25.2559978 120.2690014  24.4886973  25.4512375 120.7591796
  27.2409992  20.1939978 116.8810014  27.1429992  21.1399978 116.7760014
  26.4989992  19.8209978 116.4060014  27.1271913  20.2731813 116.8023539
  28.5049992  24.5149978 120.4450014  28.2699992  24.2959978 121.3470014
  27.7219992  24.3079978 119.9350014  28.3669219  24.4570066 120.4995852
  31.2209992  23.6429978 119.5210014  30.2729992  23.6749978 119.6530014
  31.5329992  23.0169978 120.1740014  31.1335190  23.5627262 119.6273564
  32.8549992  22.2769978 121.5260014  32.7579992  21.3249978 121.5200014
  32.5329992  22.5449978 122.3860014  32.7981761  22.1829744 121.6414936
  22.6819992  23.4859978 120.5730014  22.8939992  22.7799978 119.9630014
  22.5709992  23.0489978 121.4170014  22.6960269  23.3301921 120.6035873
  27.4629992  19.4879978 119.5530014  28.1749992  18.8479978 119.5390014
  27.3619992  19.7539978 118.6390014  27.5467261  19.4364190 119.4275537
  27.8169992  21.1699978 121.6060014  27.6849992  20.6949978 120.7860014
  27.2169992  21.9149978 121.5510014  27.7179070  21.2055789 121.4863251
  19.5799992  38.0829978 109.3430014  18.9329992  37.6209978 108.8100014
  19.9349992  37.4109978 109.9250014  19.5394506  37.9289503 109.3487341
  20.4499992  36.1629978 111.1470014  20.1159992  35.2829978 111.3190014
  20.6729992  36.5089978 112.0120014  20.4343721  36.0891938 111.2874168
  37.9989992  36.9729978 114.1280014  37.9769992  37.1579978 115.0670014
  38.6889992  37.5409978 113.7870014  38.0893439  37.0751887 114.2104791
  37.5619992  36.5399978 117.0500014  37.0749992  35.8049978 116.6790014
  38.1109992  36.1459978 117.7280014  37.5695247  36.3861057 117.0908461
  36.0129992  32.3299978 121.6880014  35.1469992  32.2249978 122.0820014
  36.3889992  33.0879978 122.1340014  35.9453401  32.4181708 121.8022620
  37.3139992  30.5859978 107.2020014  38.1639992  31.0069978 107.3290014
  37.3189992  29.8459978 107.8090014  37.4311143  30.5436094 107.3014750
  37.7079992  28.6399978 109.0260014  36.9819992  28.1599978 109.4230014
  38.2899992  28.8449978 109.7580014  37.6871635  28.6019166 109.1793748
  37.4669992  31.4249978 113.9730014  38.3009992  31.0469978 113.6930014
  37.5789992  32.3679978 113.8540014  37.5962522  31.5007742 113.9186020
  35.9539992  34.3029978 116.2800014  35.3059992  34.6279978 116.9060014
  35.4359992  33.8619978 115.6060014  35.7954168  34.2878523 116.2745307
  35.4949992  27.1609978 109.5890014  35.3449992  26.2159978 109.5680014
  35.1409992  27.4419978 110.4320014  35.4265527  27.0695605 109.7001859
  20.5299992  29.2389978 113.5990014  20.7149992  29.1569978 112.6630014
  21.3799992  29.1149978 114.0230014  20.6700916  29.2110393 113.5282896
  36.3509992  29.1309978 119.2270014  36.9339992  28.3959978 119.4190014
  36.9149992  29.9029978 119.2740014  36.5069781  29.1348145 119.2596164
  37.8479992  27.0339978 119.9120014  36.9849992  26.6549978 119.7460014
  38.4519992  26.2949978 119.8380014  37.8115944  26.8822978 119.8792984
  35.2059992  24.7429978 108.0510014  35.4849992  23.8359978 108.1750014
  35.9649992  25.1769978 107.6620014  35.3468619  24.6774502 108.0153795
  35.8169992  25.3249978 113.4870014  36.7499992  25.5369978 113.4530014
  35.5819992  25.4259978 114.4090014  35.9128308  25.3676503 113.6070214
  35.8469992  26.0619978 116.2630014  35.0039992  26.3299978 116.6290014
  36.2889992  26.8839978 116.0520014  35.7914138  26.2098273 116.2845518
  20.1279992  24.5089978 119.7400014  21.0469992  24.3869978 119.9760014
  19.6779992  23.7589978 120.1290014  20.1931148  24.3908751 119.8249408
  38.1299992  20.0419978 121.6160014  38.4789992  19.3879978 121.0110014
  38.2769992  20.8789978 121.1770014  38.1977355  20.0656067 121.4736564
  35.8189992  22.0059978 108.0990014  36.0009992  21.5569978 108.9250014
  35.2189992  21.4219978 107.6360014  35.7627529  21.8656131 108.1493619
  21.3489992  22.8219978 112.6310014  21.7939992  22.0299978 112.9330014
  21.8149992  23.5379978 113.0620014  21.4729059  22.8104474 112.7306079
  19.6529992  25.8209978 113.7000014  20.1449992  25.5999978 112.9090014
  20.0149992  26.6609978 113.9810014  19.7692923  25.9043468 113.6297407
  37.6489992  22.1509978 119.9660014  36.7319992  22.4219978 119.9300014
  37.7719992  21.6159978 119.1820014  37.5400828  22.1157700 119.8550785
  19.9669992  22.0789978 107.7540014  19.0419992  22.2869978 107.6250014
  20.4209992  22.5629978 107.0650014  19.9016374  22.1729949 107.6430957
  34.7369992  37.0629978 109.7000014  35.3899992  36.7149978 109.0920014
  35.2479992  37.5509978 110.3460014  34.8952777  37.0813815 109.7042047
  19.9299992  20.8169978 116.0990014  19.2649992  20.5709978 116.7420014
  19.4869992  21.4389978 115.5210014  19.7790937  20.8673614 116.1089379
  22.1219992  33.9919978 120.2430014  21.3009992  34.1669978 119.7830014
  21.8699992  33.9189978 121.1640014  21.9756173  34.0060794 120.3044972
  25.0759992  34.9659978 116.5020014  24.6519992  35.7759978 116.2190014
  25.9809992  35.0519978 116.2000014  25.1402433  35.0883331 116.4225377
  29.3879992  36.3649978 119.4610014  29.5719992  36.0319978 120.3390014
  30.2339992  36.6749978 119.1390014  29.5276484  36.3612979 119.5377617
  31.7329992  37.6509978 118.7050014  32.4099992  37.0179978 118.4650014
  32.0539992  38.0519978 119.5120014  31.8691323  37.6185691 118.7813158
  36.6499992  20.2409978 117.7850014  35.8369992  20.5659978 117.3970014
  36.8829992  19.4799978 117.2520014  36.5702566  20.1826559 117.6599213
  22.4779992  38.2229978 116.5490014  21.7579992  38.6629978 116.0980014
  22.1129992  37.9719978 117.3980014  22.3299796  38.2493824 116.6019329
  24.9449992  37.8229978 115.5790014  24.0809992  37.8949978 115.9830014
  24.8899992  38.3699978 114.7950014  24.8191942  37.9067849 115.5284000
  29.6559992  37.7109978 114.7540014  29.1989992  38.2399978 114.1000014
  29.8189992  38.3139978 115.4800014  29.6154476  37.8649140 114.7625499
  31.9839992  36.5889978 115.6990014  31.0789992  36.7539978 115.4340014
  32.4119992  37.4419978 115.6340014  31.9180700  36.7269529 115.6539520
  34.5879992  38.1589978 115.9940014  34.4059992  39.0749978 115.7840014
  34.7649992  37.7479978 115.1480014  34.5869907  38.2289741 115.8507883
  21.8929992  36.8459978 113.4590014  21.8749992  36.4199978 114.3170014
  22.6979992  36.5269978 113.0510014  21.9993221  36.7447233 113.5210225
  24.0339992  35.5559978 112.1140014  23.8149992  34.6389978 112.2840014
  24.8579992  35.6959978 112.5800014  24.1154702  35.4495511 112.2002527
  26.5709992  36.0259978 112.9630014  26.7839992  35.1379978 112.6760014
  26.6359992  35.9909978 113.9180014  26.6089075  35.8998307 113.0527373
  30.0799992  21.6899978 112.1070014  29.4059992  21.0599978 112.3630014
  30.6439992  21.2059978 111.5040014  30.0640384  21.5383708 112.0605020
  35.2229992  19.7969978 112.2200014  35.8259992  20.3449978 111.7180014
  34.3529992  20.1159978 111.9800014  35.1879190  19.9151041 112.1188679
  36.9499992  20.9359978 110.5530014  37.5609992  20.4219978 110.0270014
  37.3319992  21.8129978 110.5770014  37.0854475  20.9841323 110.4841208
  22.4069992  20.3239978 109.9290014  21.6299992  20.0889978 109.4220014
  22.9369992  19.5269978 109.9380014  22.3723451  20.1841268 109.8608627
  21.2429992  20.1219978 105.7330014  21.6819992  20.7329978 105.1410014
  20.6089992  20.6599978 106.2070014  21.2173859  20.2784064 105.7160305
  26.9859992  20.2499978 109.7430014  27.8599992  20.6389978 109.7130014
  26.8499992  20.0349978 110.6650014  27.0873207  20.2741923 109.8636509
  32.5429992  20.2799978 111.3920014  32.6189992  20.3759978 110.4430014
  32.2679992  19.3729978 111.5210014  32.5162042  20.1704241 111.2793811
  33.8959992  20.3059978 107.0840014  33.1929992  20.9209978 106.8750014
  33.4509992  19.4689978 107.2160014  33.7396292  20.2770085 107.0732439
  21.1439992  36.0699978 106.6310014  20.4589992  36.0319978 105.9630014
  21.1479992  36.9829978 106.9190014  21.0508174  36.1881998 106.5785310
  28.1299992  22.3309978 106.6330014  28.3079992  21.6839978 107.3150014
  28.0759992  23.1649978 107.1000014  28.1471025  22.3550504 106.7896433
  36.7169992  36.8419978 107.7070014  36.5229992  36.0939978 107.1420014
  36.6779992  37.5999978 107.1240014  36.6851645  36.8420786 107.5508148
  22.3639992  20.8379978 119.4470014  21.9979992  20.0719978 119.8900014
  23.2769992  20.8669978 119.7340014  22.4373225  20.7371906 119.5463459
  24.3369992  20.1879978 120.9830014  25.2359992  19.9139978 120.7980014
  23.9509992  19.4459978 121.4470014  24.4077237  20.0501508 121.0204710
  32.7589992  19.5209978 121.1650014  32.8349992  19.0949978 122.0190014
  33.6519992  19.5339978 120.8220014  32.8902267  19.4643952 121.2355932
  35.9349992  35.5939978 119.8570014  35.1529992  35.4069978 119.3380014
  35.8629992  36.5229978 120.0750014  35.8180863  35.6940221 119.8153574
  50.3409992  29.4799978 109.8880014  50.4299992  30.4239978 109.7560014
  49.7029992  29.2049978 109.2300014  50.2669062  29.5719812 109.7809641
  49.2739992  28.7349978 113.3070014  49.2359992  28.0889978 114.0120014
  48.9519992  28.2679978 112.5360014  49.2252679  28.5834276 113.2992921
  41.6419992  28.3489978 114.9000014  41.6839992  27.7239978 115.6230014
  42.3449992  28.9729978 115.0820014  41.7427345  28.3477873 115.0235274
  52.9799992  31.6739978 111.6090014  52.5389992  30.9539978 112.0590014
  52.9669992  32.3949978 112.2380014  52.9177960  31.6728329 111.7557567
  42.5659992  32.7989978 113.4350014  42.1959992  31.9969978 113.0650014
  43.5069992  32.6309978 113.4810014  42.6425984  32.6664638 113.3905603
  39.1759992  26.4589978 108.8280014  38.7279992  27.3049978 108.8090014
  38.6149992  25.8799978 108.3120014  39.0389603  26.4963674 108.7556720
  39.8859992  28.6209978 110.9540014  40.0999992  27.8509978 111.4810014
  40.6239992  28.7109978 110.3500014  40.0149652  28.5278012 110.9445212
  50.0919992  36.7779978 111.8210014  50.7109992  36.1019978 111.5470014
  49.8829992  36.5599978 112.7290014  50.1486232  36.6557938 111.9062517
  47.6629992  31.1669978 113.7130014  47.9669992  30.4809978 113.1190014
  48.3849992  31.2859978 114.3310014  47.8021152  31.0892189 113.7152123
  56.3259992  22.7689978 114.5740014  56.3759992  23.3789978 115.3100014
  56.7519992  23.2299978 113.8510014  56.3904108  22.9147709 114.5770112
  50.8039992  25.5609978 114.0410014  50.9469992  24.6149978 114.0610014
  50.6979992  25.7679978 113.1120014  50.8092509  25.4594813 113.9182231
  43.9589992  23.6629978 111.3130014  44.0019992  24.5229978 110.8950014
  43.5009992  23.1109978 110.6790014  43.9029815  23.7060621 111.1701197
  51.6809992  23.7939978 109.7140014  52.3279992  23.4649978 110.3390014
  52.1909992  24.3109978 109.0910014  51.8384317  23.8189227 109.7152167
  40.5789992  26.0599978 112.0750014  41.2329992  25.5099978 112.5070014
  40.6029992  25.7859978 111.1580014  40.6717199  25.9477167 112.0101668
  45.7359992  27.6099978 111.2900014  46.3519992  27.0829978 111.8000014
  45.1489992  26.9699978 110.8870014  45.7409239  27.4514117 111.3052952
  56.7179992  24.2469978 116.8100014  56.0289992  24.9049978 116.7140014
  56.7329992  24.0489978 117.7460014  56.6256740  24.3103242 116.9234630
  42.7689992  22.5809978 115.3870014  42.5499992  23.1109978 114.6210014
  42.1009992  22.8069978 116.0340014  42.6487001  22.6841154 115.3696064
  50.1379992  32.0809978 108.9310014  49.8429992  31.7579978 108.0800014
  49.8139992  32.9809978 108.9720014  50.0537983  32.1584026 108.8199771
  45.3379992  30.2559978 115.6750014  44.5979992  30.8549978 115.7780014
  46.0519992  30.8099978 115.3590014  45.3333288  30.4127356 115.6463805
  53.4449992  23.0849978 111.6940014  53.2299992  22.3189978 112.2270014
  54.1009992  23.5569978 112.2070014  53.5042673  23.0440728 111.8361990
  42.3629992  24.4729978 113.3390014  42.9769992  25.1059978 113.7130014
  42.8749992  24.0009978 112.6830014  42.5162277  24.4957352 113.3014279
  43.7459992  32.2209978 116.4620014  43.7399992  33.0999978 116.0840014
  42.8919992  32.1369978 116.8870014  43.6297925  32.3299535 116.4676887
  39.8669992  31.8919978 107.2440014  39.5949992  32.1209978 106.3550014
  39.9119992  32.7289978 107.7040014  39.8358709  32.0366058 107.1846107
  53.4919992  33.5129978 113.9560014  52.5499992  33.5719978 114.1180014
  53.7679992  34.4189978 113.8190014  53.4005865  33.6435288 113.9596192
  53.7919992  21.7999978 115.3740014  53.0559992  22.4099978 115.3360014
  54.4759992  22.2149978 114.8470014  53.7835506  21.9396400 115.2976051
  46.7959992  19.8859978 112.8400014  46.6779992  18.9379978 112.7850014
  45.9409992  20.2189978 113.1130014  46.6642679  19.8011926 112.8693720
  51.7439992  35.2939978 110.5820014  52.1689992  34.5869978 110.0970014
  52.0609992  36.0959978 110.1650014  51.8450266  35.3055190 110.4592479
  52.9039992  33.1949978 109.0900014  52.6459992  32.5049978 108.4790014
  52.9749992  32.7519978 109.9360014  52.8782837  33.0407106 109.1206912
  54.5899992  31.7619978 117.5680014  54.7289992  31.1699978 116.8280014
  54.7569992  32.6349978 117.2110014  54.6315562  31.7989896 117.4186283
  49.0619992  28.7239978 107.3400014  48.3509992  29.2589978 106.9880014
  49.7529992  28.7789978 106.6800014  49.0580751  28.8046777 107.2025858
  56.4309992  28.1019978 115.6340014  55.7789992  28.7959978 115.7230014
  56.8969992  28.3119978 114.8240014  56.4045937  28.2255019 115.5367533
  52.4679992  28.9329978 108.2920014  51.7359992  29.1619978 108.8650014
  52.9149992  28.2199978 108.7470014  52.4282753  28.8678972 108.4319715
  52.3649992  27.1079978 117.3600014  52.4449992  27.8709978 117.9310014
  51.7639992  27.3869978 116.6690014  52.2947245  27.2502630 117.3448424
  44.1129992  29.5639978 110.1740014  43.7829992  29.1929978 109.3560014
  44.7019992  28.8929978 110.5210014  44.1473970  29.4226063 110.1089404
  45.4799992  32.9919978 112.8560014  45.3849992  32.4129978 112.0990014
  46.2089992  32.6209978 113.3520014  45.5656161  32.8625891 112.8195209
  44.4799992  28.3319978 113.8080014  45.0449992  28.4539978 113.0450014
  44.7989992  28.9699978 114.4470014  44.6003977  28.4348851 113.7899424
  50.7889992  33.8359978 114.5420014  50.5489992  34.4979978 115.1900014
  50.5909992  33.0009978 114.9670014  50.7293826  33.8138115 114.6881566
  45.3599992  32.7319978 118.5250014  45.0489992  33.5139978 118.9800014
  44.7099992  32.5789978 117.8390014  45.2295538  32.8184087 118.4945898
  42.2799992  28.9299978 117.7540014  42.3499992  29.5809978 118.4520014
  41.3889992  29.0329978 117.4190014  42.1691802  29.0329757 117.8042249
  49.0649992  34.8319978 109.4120014  49.5389992  35.1279978 110.1900014
  48.5019992  35.5709978 109.1790014  49.0537361  34.9722721 109.4868611
  43.5989992  34.8029978 119.2880014  43.6069992  34.6669978 118.3410014
  42.6829992  34.6859978 119.5400014  43.4762528  34.7685463 119.1923243
  55.0379992  19.8459978 105.7900014  54.1379992  19.9849978 106.0850014
  55.2899992  20.6769978 105.3880014  54.9488683  19.9774055 105.7760232
  43.1039992  28.6329978 107.7640014  42.8119992  29.4009978 107.2730014
  42.4289992  27.9739978 107.6010014  42.9728497  28.6489745 107.6748260
  56.2269992  34.2119978 104.1660014  56.2999992  35.1509978 104.3370014
  57.1319992  33.9069978 104.1100014  56.3594158  34.2993061 104.1818392
  39.1969992  30.9959978 116.5790014  38.6949992  30.9679978 115.7640014
  39.2019992  30.0909978 116.8880014  39.1290416  30.8697368 116.5093766
  38.9469992  33.7769978 113.4630014  39.8929992  33.6319978 113.4440014
  38.8339992  34.5609978 114.0000014  39.0613578  33.8631697 113.5330317
  57.1449992  34.4429978 119.1450014  57.0949992  33.4869978 119.1080014
  56.3179992  34.7099978 119.5460014  57.0263987  34.3485174 119.1941446
  48.1229992  34.0169978 118.0210014  48.2109992  34.8429978 118.4960014
  47.2599992  33.6869978 118.2700014  48.0183357  34.0855468 118.1197653
  48.5379992  37.7889978 107.8270014  48.4619992  37.6679978 106.8810014
  48.5699992  38.7379978 107.9460014  48.5319156  37.9007530 107.7135048
  42.1909992  36.5779978 109.6080014  42.3429992  36.2299978 110.4870014
  41.3399992  36.2209978 109.3530014  42.0967899  36.4821738 109.6937340
  54.2969992  25.9359978 119.6250014  53.8889992  26.4159978 118.9050014
  54.3369992  25.0299978 119.3170014  54.2465476  25.8793160 119.4848247
  41.4459992  32.3199978 117.6220014  41.6619992  31.9579978 118.4810014
  40.5899992  31.9449978 117.4120014  41.3599354  32.2197906 117.7112160
  44.0639992  20.7899978 113.6170014  43.2029992  20.7029978 113.2100014
  44.0419992  21.6459978 114.0450014  43.9430411  20.8937884 113.6190857
  48.7269992  20.5119978 116.9920014  49.1469992  20.0969978 117.7450014
  47.7939992  20.3329978 117.1090014  48.6583736  20.4309910 117.1108968
  52.0539992  24.2669978 117.8450014  51.5399992  24.1419978 118.6430014
  51.8979992  25.1799978 117.6010014  51.9626967  24.3732123 117.9210937
  48.3889992  23.0039978 104.2770014  48.1349992  23.0229978 105.2000014
  48.1319992  22.1329978 103.9760014  48.3195133  22.8888110 104.3625082
  44.1549992  25.7549978 114.7120014  43.5139992  25.7149978 115.4210014
  44.1929992  26.6819978 114.4750014  44.0723670  25.8747795 114.7770550
  44.1519992  25.9759978 109.6240014  43.2599992  25.6359978 109.5660014
  44.6029992  25.5989978 108.8690014  44.0906815  25.8783762 109.5139203
  49.6879992  26.3919978 108.4410014  49.2789992  27.2069978 108.1500014
  50.4079992  26.2519978 107.8270014  49.7294013  26.4846571 108.3180875
  48.7899992  26.5679978 119.9290014  48.2269992  25.8629978 120.2500014
  49.6159992  26.4469978 120.3970014  48.8246674  26.4552165 120.0361751
  50.6929992  25.8379978 111.2550014  50.4969992  26.4439978 110.5400014
  50.8739992  25.0049978 110.8210014  50.6906584  25.8082513 111.0984212
  41.9049992  26.0759978 116.5790014  41.8669992  26.4759978 117.4480014
  41.4149992  25.2589978 116.6700014  41.8335621  26.0202510 116.7101377
  38.5139992  23.1919978 110.4300014  39.1439992  23.1629978 111.1490014
  38.9629992  22.7669978 109.7000014  38.6610692  23.1305316 110.4297771
  49.9569992  27.4759978 115.9270014  50.2799992  26.8449978 115.2840014
  49.5159992  26.9419978 116.5870014  49.9415789  27.3173522 115.9282232
  46.7339992  23.4039978 110.7110014  45.8229992  23.4609978 110.9990014
  47.2389992  23.3439978 111.5210014  46.6775387  23.4036870 110.8600646
  41.5619992  25.0329978 109.5370014  40.6729992  25.1319978 109.1970014
  41.8589992  24.1909978 109.1910014  41.4804177  24.9327687 109.4436940
  45.2149992  25.0329978 107.1940014  46.1469992  25.1619978 107.3720014
  44.9999992  25.7019978 106.5440014  45.3134472  25.1410806 107.1304891
  51.1389992  22.6389978 113.9750014  50.4619992  22.7699978 114.6390014
  50.6539992  22.4839978 113.1650014  50.9807265  22.6359659 113.9563397
  43.8889992  26.2269978 104.7610014  43.3469992  25.8479978 104.0690014
  44.7229992  26.4219978 104.3320014  43.9275159  26.2015076 104.6084419
  54.4269992  38.3099978 120.2520014  54.6259992  38.7339978 119.4170014
  55.0819992  38.6539978 120.8590014  54.5428501  38.4146091 120.2197097
  42.0249992  30.7839978 119.8600014  42.7569992  31.0389978 120.4210014
  41.2439992  30.9889978 120.3750014  42.0197684  30.8466468 120.0064782
  48.0539992  26.1909978 112.5980014  48.6179992  25.6449978 112.0510014
  47.9059992  25.6699978 113.3860014  48.1112575  26.0456552 112.6296987
  43.0559992  22.3279978 109.0160014  42.7389992  21.4249978 108.9810014
  43.8369992  22.3299978 108.4630014  43.1182307  22.2046951 108.9364314
  46.6799992  24.5799978 115.0120014  45.8449992  25.0339978 115.1220014
  47.2039992  24.8559978 115.7640014  46.6365070  24.6794666 115.1287152
  47.2249992  30.7929978 106.6960014  46.4799992  30.2849978 106.3740014
  47.0899992  30.8419978 107.6430014  47.1049047  30.7301596 106.7798845
  54.3749992  29.9259978 115.4830014  55.0159992  30.3819978 114.9390014
  53.5439992  30.0389978 115.0210014  54.3505171  30.0037502 115.3460237
  48.7439992  30.9769978 117.9330014  48.3979992  30.5949978 118.7400014
  48.5439992  31.9099978 118.0050014  48.6696523  31.0509095 118.0530735
  51.8409992  25.4739978 106.5560014  52.7329992  25.3359978 106.8750014
  51.8969992  26.2649978 106.0200014  51.9707107  25.5620526 106.5272091
  42.3489992  30.0879978 112.4660014  43.0939992  30.0849978 111.8650014
  42.4269992  29.2639978 112.9480014  42.4614158  29.9762916 112.4489153
  49.3499992  32.2509978 105.7220014  49.0549992  33.0779978 106.1030014
  48.6469992  31.6319978 105.9180014  49.2145471  32.2805227 105.8006698
  39.3569992  28.5479978 117.7810014  39.5799992  28.1299978 118.6130014
  38.7549992  27.9359978 117.3580014  39.3061260  28.4079933 117.8377320
  46.3739992  28.0649978 119.9940014  46.0779992  27.8999978 119.0990014
  47.3049992  27.8449978 119.9830014  46.4593982  28.0126578 119.8700045
  50.9939992  33.4389978 117.8840014  50.0939992  33.6219978 117.6160014
  51.0279992  33.6979978 118.8050014  50.8752909  33.4990815 117.9717852
  56.7259992  25.6829978 106.2510014  56.1709992  25.2869978 105.5790014
  56.8259992  26.5939978 105.9730014  56.6635888  25.7518990 106.1215206
  56.6889992  31.4839978 119.0880014  55.8379992  31.7219978 118.7210014
  57.2789992  31.4669978 118.3350014  56.6522408  31.5142966 118.9358879
  55.0209992  34.4689978 106.7160014  54.6479992  33.6439978 107.0250014
  55.2979992  34.2859978 105.8190014  55.0073871  34.3312441 106.6369677
  52.1809992  29.2769978 113.7370014  51.2529992  29.0459978 113.7100014
  52.6319992  28.4999978 113.4070014  52.1148165  29.1402774 113.6886790
  44.7239992  33.6059978 109.8700014  45.2519992  34.3789978 109.6700014
  43.8439992  33.8299978 109.5690014  44.6773176  33.7423161 109.8018409
  46.1519992  31.2689978 109.4470014  45.9109992  32.1939978 109.4880014
  45.4109992  30.8099978 109.8430014  46.0188390  31.3336403 109.5061404
  46.6659992  35.4179978 115.7620014  47.0289992  36.2719978 115.5280014
  47.1979992  35.1259978 116.5020014  46.7876090  35.4954058 115.8300219
  44.8349992  36.2899978 108.9920014  43.8849992  36.3959978 109.0430014
  45.1869992  37.1109978 109.3370014  44.7525480  36.4154438 109.0455999
  50.2099992  31.5169978 115.4620014  49.7849992  31.2889978 116.2890014
  50.7909992  30.7779978 115.2800014  50.2303930  31.3859843 115.5504731
  52.4129992  32.4459978 104.5360014  52.7669992  32.0659978 105.3410014
  51.4649992  32.3519978 104.6230014  52.3331820  32.3813092 104.6578714
  52.8689992  36.0689978 117.9320014  52.2669992  35.5129978 117.4360014
  53.1499992  36.7359978 117.3060014  52.8246829  36.0831613 117.7795443
  56.9169992  36.9249978 104.7370014  57.6609992  37.5109978 104.5970014
  56.2229992  37.4939978 105.0710014  56.9250201  37.0820603 104.7629772
  40.9909992  23.3019978 117.3390014  40.0989992  23.6399978 117.2720014
  40.8929992  22.4459978 117.7570014  40.8554965  23.2326499 117.3863044
  53.2789992  31.1179978 106.7630014  53.0019992  30.3899978 107.3190014
  54.2069992  31.2369978 106.9680014  53.3664499  31.0344213 106.8668044
  40.6429992  35.1059978 115.7740014  40.8599992  34.1739978 115.7430014
  40.8889992  35.3809978 116.6570014  40.7059809  35.0155686 115.8891690
  45.4409992  33.1279978 105.4400014  45.5879992  32.6079978 106.2300014
  45.4379992  34.0349978 105.7460014  45.4607300  33.1793964 105.5895895
  49.7259992  23.0429978 116.2290014  50.4249992  23.1169978 116.8790014
  49.3449992  22.1779978 116.3830014  49.7702097  22.9362389 116.3387997
  50.5099992  22.6949978 107.3260014  50.7299992  23.1659978 106.5230014
  51.0689992  23.0889978 107.9960014  50.6156730  22.8127432 107.3065906
  48.1789992  34.8249978 106.1890014  47.3619992  35.3219978 106.2410014
  48.7079992  35.3009978 105.5490014  48.1388508  34.9572543 106.1096035
  47.7099992  24.4229978 108.1610014  48.5219992  24.9269978 108.2070014
  47.4659992  24.2779978 109.0750014  47.7881467  24.4723749 108.2908575
  48.2459992  25.4089978 117.3460014  48.3649992  25.9829978 118.1030014
  48.9009992  24.7209978 117.4600014  48.3509146  25.3945574 117.4651313
  48.5939992  21.5039978 109.0990014  48.2469992  22.1209978 109.7440014
  49.2529992  22.0049978 108.6180014  48.6355949  21.6561099 109.1222271
  45.5169992  35.8689978 106.1710014  45.6779992  36.6689978 105.6700014
  45.3199992  36.1759978 107.0560014  45.5123919  36.0199129 106.2221006
  54.4499992  23.3159978 118.1810014  53.5339992  23.5779978 118.0930014
  54.7859992  23.3129978 117.2840014  54.3699789  23.3514626 118.0477847
  53.0529992  27.0659978 112.2760014  52.2549992  26.6509978 111.9480014
  53.4979992  26.3759978 112.7670014  53.0039684  26.9158628 112.2975227
  42.5099992  32.9939978 104.8470014  43.1019992  33.6939978 105.1230014
  42.9689992  32.5609978 104.1270014  42.6530791  33.0312908 104.7874607
  54.1389992  36.3219978 113.8990014  53.9829992  37.0009978 113.2420014
  55.0719992  36.3939978 114.1020014  54.2437387  36.4246390 113.8365342
  41.6339992  20.4399978 112.6360014  41.4049992  20.4989978 111.7080014
  41.1919992  19.6489978 112.9420014  41.5428801  20.3410540 112.5504729
  40.5649992  34.3809978 108.7960014  39.7319992  34.8529978 108.8240014
  41.1099992  34.8909978 108.1980014  40.5247590  34.5145897 108.7189194
  39.8529992  36.9929978 120.1260014  40.3929992  36.7769978 120.8860014
  39.3719992  36.1879978 119.9370014  39.8618613  36.8545400 120.2044782
  44.4499992  35.9129978 121.7470014  45.2179992  35.4539978 122.0880014
  44.4289992  35.6869978 120.8170014  44.5522135  35.8196668 121.6679491
  51.0269992  34.2929978 120.4760014  50.6759992  33.4359978 120.7190014
  51.7529992  34.4349978 121.0830014  51.0771590  34.1950178 120.5912907
  39.7599992  30.8039978 121.0810014  39.9039992  29.9019978 120.7940014
  38.9879992  31.0899978 120.5930014  39.6753303  30.7193243 120.9757908
  46.4149992  30.7729978 120.5130014  46.0869992  31.0439978 119.6560014
  46.5669992  29.8319978 120.4260014  46.3906030  30.6828973 120.3837945
  52.1499992  30.6889978 117.8970014  52.8949992  31.2779978 117.7770014
  51.3929992  31.2709978 117.9600014  52.1495205  30.8481997 117.8891119
  40.5929992  28.0039978 120.5010014  41.0009992  27.1469978 120.3800014
  40.3319992  28.0179978 121.4220014  40.6136016  27.8885119 120.6089192
  45.2509992  29.1199978 105.5190014  44.7909992  28.6359978 106.2050014
  45.5059992  28.4509978 104.8830014  45.2225038  28.9633689 105.5269447
  44.5399992  27.0129978 117.8750014  43.9209992  27.6869978 118.1550014
  44.8839992  27.3339978 117.0420014  44.5017605  27.1487198 117.8006707
  46.3219992  27.3629978 103.7810014  46.1409992  27.2079978 102.8540014
  47.2719992  27.4709978 103.8260014  46.4256566  27.3563669 103.6600929
  49.5589992  29.4839978 121.1520014  50.5129992  29.5679978 121.1250014
  49.3989992  28.7719978 121.7720014  49.6677182  29.3992842 121.2320733
  44.8789992  24.3679978 118.9570014  45.0289992  23.6389978 118.3550014
  44.8809992  25.1449978 118.3980014  44.8997967  24.3732708 118.7990541
  45.2919992  22.7369978 116.4500014  45.8269992  23.1889978 115.7980014
  44.4389992  22.6289978 116.0270014  45.2500374  22.7842665 116.3036710
  46.8729992  28.1769978 116.6890014  47.6239992  28.0209978 116.1160014
  46.5339992  29.0289978 116.4140014  46.9299587  28.2708138 116.5734078
  51.2889992  25.9919978 121.7180014  51.4809992  25.0609978 121.6060014
  52.1469992  26.4169978 121.7080014  51.4312269  25.9219928 121.7013192
  52.6059992  28.7809978 119.7950014  52.3239992  29.4899978 119.2180014
  53.5479992  28.7079978 119.6440014  52.6947656  28.8683128 119.6954809
  43.3579992  25.5659978 120.8690014  42.5899992  25.0329978 120.6590014
  44.0359992  25.2559978 120.2690014  43.3446973  25.4512375 120.7591796
  46.0969992  20.1939978 116.8810014  45.9989992  21.1399978 116.7760014
  45.3549992  19.8209978 116.4060014  45.9831913  20.2731813 116.8023539
  47.3609992  24.5149978 120.4450014  47.1259992  24.2959978 121.3470014
  46.5779992  24.3079978 119.9350014  47.2229219  24.4570066 120.4995852
  50.0769992  23.6429978 119.5210014  49.1289992  23.6749978 119.6530014
  50.3889992  23.0169978 120.1740014  49.9895190  23.5627262 119.6273564
  51.7109992  22.2769978 121.5260014  51.6139992  21.3249978 121.5200014
  51.3889992  22.5449978 122.3860014  51.6541761  22.1829744 121.6414936
  41.5379992  23.4859978 120.5730014  41.7499992  22.7799978 119.9630014
  41.4269992  23.0489978 121.4170014  41.5520269  23.3301921 120.6035873
  46.3189992  19.4879978 119.5530014  47.0309992  18.8479978 119.5390014
  46.2179992  19.7539978 118.6390014  46.4027261  19.4364190 119.4275537
  46.6729992  21.1699978 121.6060014  46.5409992  20.6949978 120.7860014
  46.0729992  21.9149978 121.5510014  46.5739070  21.2055789 121.4863251
  46.2189992  38.0529978 104.7830014  47.1519992  38.2109978 104.9260014
  45.9549992  38.7289978 104.1580014  46.3109308  38.1659104 104.7181396
  38.4359992  38.0829978 109.3430014  37.7889992  37.6209978 108.8100014
  38.7909992  37.4109978 109.9250014  38.3954506  37.9289503 109.3487341
  39.3059992  36.1629978 111.1470014  38.9719992  35.2829978 111.3190014
  39.5289992  36.5089978 112.0120014  39.2903721  36.0891938 111.2874168
  56.8549992  36.9729978 114.1280014  56.8329992  37.1579978 115.0670014
  57.5449992  37.5409978 113.7870014  56.9453439  37.0751887 114.2104791
  56.4179992  36.5399978 117.0500014  55.9309992  35.8049978 116.6790014
  56.9669992  36.1459978 117.7280014  56.4255247  36.3861057 117.0908461
  54.8689992  32.3299978 121.6880014  54.0029992  32.2249978 122.0820014
  55.2449992  33.0879978 122.1340014  54.8013401  32.4181708 121.8022620
  56.1699992  30.5859978 107.2020014  57.0199992  31.0069978 107.3290014
  56.1749992  29.8459978 107.8090014  56.2871143  30.5436094 107.3014750
  56.5639992  28.6399978 109.0260014  55.8379992  28.1599978 109.4230014
  57.1459992  28.8449978 109.7580014  56.5431635  28.6019166 109.1793748
  56.3229992  31.4249978 113.9730014  57.1569992  31.0469978 113.6930014
  56.4349992  32.3679978 113.8540014  56.4522522  31.5007742 113.9186020
  54.8099992  34.3029978 116.2800014  54.1619992  34.6279978 116.9060014
  54.2919992  33.8619978 115.6060014  54.6514168  34.2878523 116.2745307
  56.8329992  28.5409978 105.4170014  56.3109992  28.8969978 104.6980014
  56.7999992  29.2159978 106.0950014  56.7570699  28.6809848 105.4102129
  55.1819992  25.7799978 103.9680014  55.2779992  26.4469978 103.2880014
  55.0419992  24.9649978 103.4860014  55.1762063  25.7610667 103.8098377
  54.3509992  27.1609978 109.5890014  54.2009992  26.2159978 109.5680014
  53.9969992  27.4419978 110.4320014  54.2825527  27.0695605 109.7001859
  39.3859992  29.2389978 113.5990014  39.5709992  29.1569978 112.6630014
  40.2359992  29.1149978 114.0230014  39.5260916  29.2110393 113.5282896
  55.2069992  29.1309978 119.2270014  55.7899992  28.3959978 119.4190014
  55.7709992  29.9029978 119.2740014  55.3629781  29.1348145 119.2596164
  56.7039992  27.0339978 119.9120014  55.8409992  26.6549978 119.7460014
  57.3079992  26.2949978 119.8380014  56.6675944  26.8822978 119.8792984
  54.0619992  24.7429978 108.0510014  54.3409992  23.8359978 108.1750014
  54.8209992  25.1769978 107.6620014  54.2028619  24.6774502 108.0153795
  54.6729992  25.3249978 113.4870014  55.6059992  25.5369978 113.4530014
  54.4379992  25.4259978 114.4090014  54.7688308  25.3676503 113.6070214
  54.7029992  26.0619978 116.2630014  53.8599992  26.3299978 116.6290014
  55.1449992  26.8839978 116.0520014  54.6474138  26.2098273 116.2845518
  38.9839992  24.5089978 119.7400014  39.9029992  24.3869978 119.9760014
  38.5339992  23.7589978 120.1290014  39.0491148  24.3908751 119.8249408
  56.9859992  20.0419978 121.6160014  57.3349992  19.3879978 121.0110014
  57.1329992  20.8789978 121.1770014  57.0537355  20.0656067 121.4736564
  54.6749992  22.0059978 108.0990014  54.8569992  21.5569978 108.9250014
  54.0749992  21.4219978 107.6360014  54.6187529  21.8656131 108.1493619
  40.2049992  22.8219978 112.6310014  40.6499992  22.0299978 112.9330014
  40.6709992  23.5379978 113.0620014  40.3289059  22.8104474 112.7306079
  38.5089992  25.8209978 113.7000014  39.0009992  25.5999978 112.9090014
  38.8709992  26.6609978 113.9810014  38.6252923  25.9043468 113.6297407
  56.5049992  22.1509978 119.9660014  55.5879992  22.4219978 119.9300014
  56.6279992  21.6159978 119.1820014  56.3960828  22.1157700 119.8550785
  38.8229992  22.0789978 107.7540014  37.8979992  22.2869978 107.6250014
  39.2769992  22.5629978 107.0650014  38.7576374  22.1729949 107.6430957
  53.5929992  37.0629978 109.7000014  54.2459992  36.7149978 109.0920014
  54.1039992  37.5509978 110.3460014  53.7512777  37.0813815 109.7042047
  38.7859992  20.8169978 116.0990014  38.1209992  20.5709978 116.7420014
  38.3429992  21.4389978 115.5210014  38.6350937  20.8673614 116.1089379
  40.9779992  33.9919978 120.2430014  40.1569992  34.1669978 119.7830014
  40.7259992  33.9189978 121.1640014  40.8316173  34.0060794 120.3044972
  43.9319992  34.9659978 116.5020014  43.5079992  35.7759978 116.2190014
  44.8369992  35.0519978 116.2000014  43.9962433  35.0883331 116.4225377
  48.2439992  36.3649978 119.4610014  48.4279992  36.0319978 120.3390014
  49.0899992  36.6749978 119.1390014  48.3836484  36.3612979 119.5377617
  50.5889992  37.6509978 118.7050014  51.2659992  37.0179978 118.4650014
  50.9099992  38.0519978 119.5120014  50.7251323  37.6185691 118.7813158
  55.5059992  20.2409978 117.7850014  54.6929992  20.5659978 117.3970014
  55.7389992  19.4799978 117.2520014  55.4262566  20.1826559 117.6599213
  41.3339992  38.2229978 116.5490014  40.6139992  38.6629978 116.0980014
  40.9689992  37.9719978 117.3980014  41.1859796  38.2493824 116.6019329
  43.8009992  37.8229978 115.5790014  42.9369992  37.8949978 115.9830014
  43.7459992  38.3699978 114.7950014  43.6751942  37.9067849 115.5284000
  48.5119992  37.7109978 114.7540014  48.0549992  38.2399978 114.1000014
  48.6749992  38.3139978 115.4800014  48.4714476  37.8649140 114.7625499
  50.8399992  36.5889978 115.6990014  49.9349992  36.7539978 115.4340014
  51.2679992  37.4419978 115.6340014  50.7740700  36.7269529 115.6539520
  53.4439992  38.1589978 115.9940014  53.2619992  39.0749978 115.7840014
  53.6209992  37.7479978 115.1480014  53.4429907  38.2289741 115.8507883
  40.7489992  36.8459978 113.4590014  40.7309992  36.4199978 114.3170014
  41.5539992  36.5269978 113.0510014  40.8553221  36.7447233 113.5210225
  42.8899992  35.5559978 112.1140014  42.6709992  34.6389978 112.2840014
  43.7139992  35.6959978 112.5800014  42.9714702  35.4495511 112.2002527
  45.4269992  36.0259978 112.9630014  45.6399992  35.1379978 112.6760014
  45.4919992  35.9909978 113.9180014  45.4649075  35.8998307 113.0527373
  48.9359992  21.6899978 112.1070014  48.2619992  21.0599978 112.3630014
  49.4999992  21.2059978 111.5040014  48.9200384  21.5383708 112.0605020
  54.0789992  19.7969978 112.2200014  54.6819992  20.3449978 111.7180014
  53.2089992  20.1159978 111.9800014  54.0439190  19.9151041 112.1188679
  55.8059992  20.9359978 110.5530014  56.4169992  20.4219978 110.0270014
  56.1879992  21.8129978 110.5770014  55.9414475  20.9841323 110.4841208
  41.2629992  20.3239978 109.9290014  40.4859992  20.0889978 109.4220014
  41.7929992  19.5269978 109.9380014  41.2283451  20.1841268 109.8608627
  40.0989992  20.1219978 105.7330014  40.5379992  20.7329978 105.1410014
  39.4649992  20.6599978 106.2070014  40.0733859  20.2784064 105.7160305
  45.8419992  20.2499978 109.7430014  46.7159992  20.6389978 109.7130014
  45.7059992  20.0349978 110.6650014  45.9433207  20.2741923 109.8636509
  51.3989992  20.2799978 111.3920014  51.4749992  20.3759978 110.4430014
  51.1239992  19.3729978 111.5210014  51.3722042  20.1704241 111.2793811
  52.7519992  20.3059978 107.0840014  52.0489992  20.9209978 106.8750014
  52.3069992  19.4689978 107.2160014  52.5956292  20.2770085 107.0732439
  39.9999992  36.0699978 106.6310014  39.3149992  36.0319978 105.9630014
  40.0039992  36.9829978 106.9190014  39.9068174  36.1881998 106.5785310
  46.9859992  22.3309978 106.6330014  47.1639992  21.6839978 107.3150014
  46.9319992  23.1649978 107.1000014  47.0031025  22.3550504 106.7896433
  55.5729992  36.8419978 107.7070014  55.3789992  36.0939978 107.1420014
  55.5339992  37.5999978 107.1240014  55.5411645  36.8420786 107.5508148
  41.2199992  20.8379978 119.4470014  40.8539992  20.0719978 119.8900014
  42.1329992  20.8669978 119.7340014  41.2933225  20.7371906 119.5463459
  43.1929992  20.1879978 120.9830014  44.0919992  19.9139978 120.7980014
  42.8069992  19.4459978 121.4470014  43.2637237  20.0501508 121.0204710
  51.6149992  19.5209978 121.1650014  51.6909992  19.0949978 122.0190014
  52.5079992  19.5339978 120.8220014  51.7462267  19.4643952 121.2355932
  54.7909992  35.5939978 119.8570014  54.0089992  35.4069978 119.3380014
  54.7189992  36.5229978 120.0750014  54.6740863  35.6940221 119.8153574
  69.1969992  29.4799978 109.8880014  69.2859992  30.4239978 109.7560014
  68.5589992  29.2049978 109.2300014  69.1229062  29.5719812 109.7809641
  68.1299992  28.7349978 113.3070014  68.0919992  28.0889978 114.0120014
  67.8079992  28.2679978 112.5360014  68.0812679  28.5834276 113.2992921
  60.4979992  28.3489978 114.9000014  60.5399992  27.7239978 115.6230014
  61.2009992  28.9729978 115.0820014  60.5987345  28.3477873 115.0235274
  71.8359992  31.6739978 111.6090014  71.3949992  30.9539978 112.0590014
  71.8229992  32.3949978 112.2380014  71.7737960  31.6728329 111.7557567
  61.4219992  32.7989978 113.4350014  61.0519992  31.9969978 113.0650014
  62.3629992  32.6309978 113.4810014  61.4985984  32.6664638 113.3905603
  58.0319992  26.4589978 108.8280014  57.5839992  27.3049978 108.8090014
  57.4709992  25.8799978 108.3120014  57.8949603  26.4963674 108.7556720
  58.7419992  28.6209978 110.9540014  58.9559992  27.8509978 111.4810014
  59.4799992  28.7109978 110.3500014  58.8709652  28.5278012 110.9445212
  68.9479992  36.7779978 111.8210014  69.5669992  36.1019978 111.5470014
  68.7389992  36.5599978 112.7290014  69.0046232  36.6557938 111.9062517
  66.5189992  31.1669978 113.7130014  66.8229992  30.4809978 113.1190014
  67.2409992  31.2859978 114.3310014  66.6581152  31.0892189 113.7152124
  75.1819992  22.7689978 114.5740014  75.2319992  23.3789978 115.3100014
  75.6079992  23.2299978 113.8510014  75.2464108  22.9147709 114.5770112
  69.6599992  25.5609978 114.0410014  69.8029992  24.6149978 114.0610014
  69.5539992  25.7679978 113.1120014  69.6652509  25.4594813 113.9182231
  62.8149992  23.6629978 111.3130014  62.8579992  24.5229978 110.8950014
  62.3569992  23.1109978 110.6790014  62.7589815  23.7060621 111.1701197
  70.5369992  23.7939978 109.7140014  71.1839992  23.4649978 110.3390014
  71.0469992  24.3109978 109.0910014  70.6944317  23.8189227 109.7152167
  59.4349992  26.0599978 112.0750014  60.0889992  25.5099978 112.5070014
  59.4589992  25.7859978 111.1580014  59.5277199  25.9477167 112.0101668
  64.5919992  27.6099978 111.2900014  65.2079992  27.0829978 111.8000014
  64.0049992  26.9699978 110.8870014  64.5969239  27.4514117 111.3052952
  75.5739992  24.2469978 116.8100014  74.8849992  24.9049978 116.7140014
  75.5889992  24.0489978 117.7460014  75.4816740  24.3103243 116.9234630
  61.6249992  22.5809978 115.3870014  61.4059992  23.1109978 114.6210014
  60.9569992  22.8069978 116.0340014  61.5047001  22.6841154 115.3696064
  68.9939992  32.0809978 108.9310014  68.6989992  31.7579978 108.0800014
  68.6699992  32.9809978 108.9720014  68.9097983  32.1584026 108.8199771
  64.1939992  30.2559978 115.6750014  63.4539992  30.8549978 115.7780014
  64.9079992  30.8099978 115.3590014  64.1893288  30.4127356 115.6463805
  72.3009992  23.0849978 111.6940014  72.0859992  22.3189978 112.2270014
  72.9569992  23.5569978 112.2070014  72.3602673  23.0440728 111.8361990
  61.2189992  24.4729978 113.3390014  61.8329992  25.1059978 113.7130014
  61.7309992  24.0009978 112.6830014  61.3722277  24.4957352 113.3014279
  62.6019992  32.2209978 116.4620014  62.5959992  33.0999978 116.0840014
  61.7479992  32.1369978 116.8870014  62.4857925  32.3299535 116.4676887
  58.7229992  31.8919978 107.2440014  58.4509992  32.1209978 106.3550014
  58.7679992  32.7289978 107.7040014  58.6918709  32.0366058 107.1846107
  72.3479992  33.5129978 113.9560014  71.4059992  33.5719978 114.1180014
  72.6239992  34.4189978 113.8190014  72.2565865  33.6435288 113.9596192
  72.6479992  21.7999978 115.3740014  71.9119992  22.4099978 115.3360014
  73.3319992  22.2149978 114.8470014  72.6395506  21.9396400 115.2976051
  65.6519992  19.8859978 112.8400014  65.5339992  18.9379978 112.7850014
  64.7969992  20.2189978 113.1130014  65.5202679  19.8011926 112.8693720
  70.5999992  35.2939978 110.5820014  71.0249992  34.5869978 110.0970014
  70.9169992  36.0959978 110.1650014  70.7010266  35.3055190 110.4592479
  71.7599992  33.1949978 109.0900014  71.5019992  32.5049978 108.4790014
  71.8309992  32.7519978 109.9360014  71.7342837  33.0407106 109.1206912
  73.4459992  31.7619978 117.5680014  73.5849992  31.1699978 116.8280014
  73.6129992  32.6349978 117.2110014  73.4875562  31.7989896 117.4186283
  67.9179992  28.7239978 107.3400014  67.2069992  29.2589978 106.9880014
  68.6089992  28.7789978 106.6800014  67.9140751  28.8046777 107.2025858
  67.9719992  27.1809978 104.3790014  68.6729992  27.2039978 105.0300014
  68.2739992  26.5529978 103.7230014  68.1088282  27.0992339 104.3794496
  75.2869992  28.1019978 115.6340014  74.6349992  28.7959978 115.7230014
  75.7529992  28.3119978 114.8240014  75.2605937  28.2255019 115.5367533
  71.3239992  28.9329978 108.2920014  70.5919992  29.1619978 108.8650014
  71.7709992  28.2199978 108.7470014  71.2842753  28.8678972 108.4319715
  71.2209992  27.1079978 117.3600014  71.3009992  27.8709978 117.9310014
  70.6199992  27.3869978 116.6690014  71.1507245  27.2502630 117.3448424
  62.9689992  29.5639978 110.1740014  62.6389992  29.1929978 109.3560014
  63.5579992  28.8929978 110.5210014  63.0033970  29.4226063 110.1089404
  64.3359992  32.9919978 112.8560014  64.2409992  32.4129978 112.0990014
  65.0649992  32.6209978 113.3520014  64.4216161  32.8625891 112.8195209
  63.3359992  28.3319978 113.8080014  63.9009992  28.4539978 113.0450014
  63.6549992  28.9699978 114.4470014  63.4563977  28.4348851 113.7899424
  69.6449992  33.8359978 114.5420014  69.4049992  34.4979978 115.1900014
  69.4469992  33.0009978 114.9670014  69.5853826  33.8138115 114.6881566
  64.2159992  32.7319978 118.5250014  63.9049992  33.5139978 118.9800014
  63.5659992  32.5789978 117.8390014  64.0855538  32.8184087 118.4945898
  70.1949992  28.0959978 105.9770014  70.7739992  28.2459978 106.7240014
  70.6089992  28.5659978 105.2540014  70.3303122  28.1801277 105.9815042
  61.1359992  28.9299978 117.7540014  61.2059992  29.5809978 118.4520014
  60.2449992  29.0329978 117.4190014  61.0251802  29.0329757 117.8042249
  67.9209992  34.8319978 109.4120014  68.3949992  35.1279978 110.1900014
  67.3579992  35.5709978 109.1790014  67.9097361  34.9722721 109.4868611
  62.4549992  34.8029978 119.2880014  62.4629992  34.6669978 118.3410014
  61.5389992  34.6859978 119.5400014  62.3322528  34.7685463 119.1923243
  73.8939992  19.8459978 105.7900014  72.9939992  19.9849978 106.0850014
  74.1459992  20.6769978 105.3880014  73.8048683  19.9774055 105.7760232
  61.9599992  28.6329978 107.7640014  61.6679992  29.4009978 107.2730014
  61.2849992  27.9739978 107.6010014  61.8288497  28.6489745 107.6748260
  75.0829992  34.2119978 104.1660014  75.1559992  35.1509978 104.3370014
  75.9879992  33.9069978 104.1100014  75.2154158  34.2993061 104.1818392
  58.0529992  30.9959978 116.5790014  57.5509992  30.9679978 115.7640014
  58.0579992  30.0909978 116.8880014  57.9850416  30.8697368 116.5093766
  57.8029992  33.7769978 113.4630014  58.7489992  33.6319978 113.4440014
  57.6899992  34.5609978 114.0000014  57.9173578  33.8631697 113.5330317
  76.0009992  34.4429978 119.1450014  75.9509992  33.4869978 119.1080014
  75.1739992  34.7099978 119.5460014  75.8823987  34.3485174 119.1941446
  66.9789992  34.0169978 118.0210014  67.0669992  34.8429978 118.4960014
  66.1159992  33.6869978 118.2700014  66.8743357  34.0855468 118.1197653
  67.3939992  37.7889978 107.8270014  67.3179992  37.6679978 106.8810014
  67.4259992  38.7379978 107.9460014  67.3879156  37.9007530 107.7135048
  61.0469992  36.5779978 109.6080014  61.1989992  36.2299978 110.4870014
  60.1959992  36.2209978 109.3530014  60.9527899  36.4821738 109.6937340
  70.1639992  36.8689978 107.5790014  69.2289992  36.9689978 107.7570014
  70.4439992  36.1589978 108.1570014  70.0738173  36.7867239 107.6814998
  73.1529992  25.9359978 119.6250014  72.7449992  26.4159978 118.9050014
  73.1929992  25.0299978 119.3170014  73.1025476  25.8793160 119.4848247
  60.3019992  32.3199978 117.6220014  60.5179992  31.9579978 118.4810014
  59.4459992  31.9449978 117.4120014  60.2159354  32.2197906 117.7112160
  62.9199992  20.7899978 113.6170014  62.0589992  20.7029978 113.2100014
  62.8979992  21.6459978 114.0450014  62.7990411  20.8937884 113.6190857
  67.5829992  20.5119978 116.9920014  68.0029992  20.0969978 117.7450014
  66.6499992  20.3329978 117.1090014  67.5143736  20.4309910 117.1108968
  70.9099992  24.2669978 117.8450014  70.3959992  24.1419978 118.6430014
  70.7539992  25.1799978 117.6010014  70.8186967  24.3732123 117.9210937
  63.0109992  25.7549978 114.7120014  62.3699992  25.7149978 115.4210014
  63.0489992  26.6819978 114.4750014  62.9283670  25.8747795 114.7770550
  63.0079992  25.9759978 109.6240014  62.1159992  25.6359978 109.5660014
  63.4589992  25.5989978 108.8690014  62.9466815  25.8783762 109.5139203
  68.5439992  26.3919978 108.4410014  68.1349992  27.2069978 108.1500014
  69.2639992  26.2519978 107.8270014  68.5854013  26.4846571 108.3180875
  67.6459992  26.5679978 119.9290014  67.0829992  25.8629978 120.2500014
  68.4719992  26.4469978 120.3970014  67.6806674  26.4552165 120.0361751
  69.5489992  25.8379978 111.2550014  69.3529992  26.4439978 110.5400014
  69.7299992  25.0049978 110.8210014  69.5466584  25.8082513 111.0984212
  60.7609992  26.0759978 116.5790014  60.7229992  26.4759978 117.4480014
  60.2709992  25.2589978 116.6700014  60.6895621  26.0202510 116.7101377
  57.3699992  23.1919978 110.4300014  57.9999992  23.1629978 111.1490014
  57.8189992  22.7669978 109.7000014  57.5170692  23.1305316 110.4297771
  58.6439992  23.9379978 105.8540014  59.1179992  24.5289978 105.2690014
  57.9259992  24.4679978 106.2010014  58.6118640  24.0905511 105.8207969
  68.8129992  27.4759978 115.9270014  69.1359992  26.8449978 115.2840014
  68.3719992  26.9419978 116.5870014  68.7975789  27.3173522 115.9282232
  65.5899992  23.4039978 110.7110014  64.6789992  23.4609978 110.9990014
  66.0949992  23.3439978 111.5210014  65.5335387  23.4036870 110.8600646
  60.4179992  25.0329978 109.5370014  59.5289992  25.1319978 109.1970014
  60.7149992  24.1909978 109.1910014  60.3364177  24.9327687 109.4436940
  64.0709992  25.0329978 107.1940014  65.0029992  25.1619978 107.3720014
  63.8559992  25.7019978 106.5440014  64.1694472  25.1410806 107.1304891
  69.9949992  22.6389978 113.9750014  69.3179992  22.7699978 114.6390014
  69.5099992  22.4839978 113.1650014  69.8367265  22.6359659 113.9563397
  73.2829992  38.3099978 120.2520014  73.4819992  38.7339978 119.4170014
  73.9379992  38.6539978 120.8590014  73.3988501  38.4146091 120.2197097
  60.8809992  30.7839978 119.8600014  61.6129992  31.0389978 120.4210014
  60.0999992  30.9889978 120.3750014  60.8757684  30.8466468 120.0064782
  66.9099992  26.1909978 112.5980014  67.4739992  25.6449978 112.0510014
  66.7619992  25.6699978 113.3860014  66.9672575  26.0456552 112.6296987
  61.9119992  22.3279978 109.0160014  61.5949992  21.4249978 108.9810014
  62.6929992  22.3299978 108.4630014  61.9742307  22.2046951 108.9364314
  65.5359992  24.5799978 115.0120014  64.7009992  25.0339978 115.1220014
  66.0599992  24.8559978 115.7640014  65.4925070  24.6794666 115.1287152
  66.0809992  30.7929978 106.6960014  65.3359992  30.2849978 106.3740014
  65.9459992  30.8419978 107.6430014  65.9609047  30.7301596 106.7798845
  73.2309992  29.9259978 115.4830014  73.8719992  30.3819978 114.9390014
  72.3999992  30.0389978 115.0210014  73.2065171  30.0037502 115.3460237
  67.5999992  30.9769978 117.9330014  67.2539992  30.5949978 118.7400014
  67.3999992  31.9099978 118.0050014  67.5256523  31.0509095 118.0530735
  70.6969992  25.4739978 106.5560014  71.5889992  25.3359978 106.8750014
  70.7529992  26.2649978 106.0200014  70.8267107  25.5620526 106.5272091
  61.2049992  30.0879978 112.4660014  61.9499992  30.0849978 111.8650014
  61.2829992  29.2639978 112.9480014  61.3174158  29.9762916 112.4489153
  68.2059992  32.2509978 105.7220014  67.9109992  33.0779978 106.1030014
  67.5029992  31.6319978 105.9180014  68.0705471  32.2805227 105.8006698
  58.2129992  28.5479978 117.7810014  58.4359992  28.1299978 118.6130014
  57.6109992  27.9359978 117.3580014  58.1621260  28.4079933 117.8377320
  65.2299992  28.0649978 119.9940014  64.9339992  27.8999978 119.0990014
  66.1609992  27.8449978 119.9830014  65.3153982  28.0126578 119.8700045
  69.8499992  33.4389978 117.8840014  68.9499992  33.6219978 117.6160014
  69.8839992  33.6979978 118.8050014  69.7312909  33.4990815 117.9717852
  75.5819992  25.6829978 106.2510014  75.0269992  25.2869978 105.5790014
  75.6819992  26.5939978 105.9730014  75.5195888  25.7518990 106.1215206
  75.5449992  31.4839978 119.0880014  74.6939992  31.7219978 118.7210014
  76.1349992  31.4669978 118.3350014  75.5082408  31.5142966 118.9358879
  73.8769992  34.4689978 106.7160014  73.5039992  33.6439978 107.0250014
  74.1539992  34.2859978 105.8190014  73.8633871  34.3312441 106.6369677
  71.0369992  29.2769978 113.7370014  70.1089992  29.0459978 113.7100014
  71.4879992  28.4999978 113.4070014  70.9708165  29.1402774 113.6886790
  63.5799992  33.6059978 109.8700014  64.1079992  34.3789978 109.6700014
  62.6999992  33.8299978 109.5690014  63.5333176  33.7423161 109.8018409
  65.0079992  31.2689978 109.4470014  64.7669992  32.1939978 109.4880014
  64.2669992  30.8099978 109.8430014  64.8748390  31.3336403 109.5061404
  65.5219992  35.4179978 115.7620014  65.8849992  36.2719978 115.5280014
  66.0539992  35.1259978 116.5020014  65.6436090  35.4954058 115.8300219
  63.6909992  36.2899978 108.9920014  62.7409992  36.3959978 109.0430014
  64.0429992  37.1109978 109.3370014  63.6085480  36.4154438 109.0455999
  69.0659992  31.5169978 115.4620014  68.6409992  31.2889978 116.2890014
  69.6469992  30.7779978 115.2800014  69.0863930  31.3859843 115.5504731
  71.7249992  36.0689978 117.9320014  71.1229992  35.5129978 117.4360014
  72.0059992  36.7359978 117.3060014  71.6806829  36.0831613 117.7795443
  75.7729992  36.9249978 104.7370014  76.5169992  37.5109978 104.5970014
  75.0789992  37.4939978 105.0710014  75.7810201  37.0820603 104.7629772
  59.8469992  23.3019978 117.3390014  58.9549992  23.6399978 117.2720014
  59.7489992  22.4459978 117.7570014  59.7114965  23.2326499 117.3863044
  72.1349992  31.1179978 106.7630014  71.8579992  30.3899978 107.3190014
  73.0629992  31.2369978 106.9680014  72.2224499  31.0344213 106.8668044
  59.4989992  35.1059978 115.7740014  59.7159992  34.1739978 115.7430014
  59.7449992  35.3809978 116.6570014  59.5619809  35.0155686 115.8891690
  68.5819992  23.0429978 116.2290014  69.2809992  23.1169978 116.8790014
  68.2009992  22.1779978 116.3830014  68.6262097  22.9362389 116.3387997
  69.3659992  22.6949978 107.3260014  69.5859992  23.1659978 106.5230014
  69.9249992  23.0889978 107.9960014  69.4716730  22.8127432 107.3065906
  67.0349992  34.8249978 106.1890014  66.2179992  35.3219978 106.2410014
  67.5639992  35.3009978 105.5490014  66.9948508  34.9572543 106.1096035
  66.5659992  24.4229978 108.1610014  67.3779992  24.9269978 108.2070014
  66.3219992  24.2779978 109.0750014  66.6441467  24.4723749 108.2908575
  67.1019992  25.4089978 117.3460014  67.2209992  25.9829978 118.1030014
  67.7569992  24.7209978 117.4600014  67.2069146  25.3945574 117.4651314
  67.4499992  21.5039978 109.0990014  67.1029992  22.1209978 109.7440014
  68.1089992  22.0049978 108.6180014  67.4915949  21.6561099 109.1222271
  64.3729992  35.8689978 106.1710014  64.5339992  36.6689978 105.6700014
  64.1759992  36.1759978 107.0560014  64.3683919  36.0199129 106.2221006
  63.1079992  22.5669978 105.7860014  63.0239992  23.4549978 106.1330014
  63.9979992  22.3019978 106.0180014  63.2168163  22.6527179 105.8648596
  73.3059992  23.3159978 118.1810014  72.3899992  23.5779978 118.0930014
  73.6419992  23.3129978 117.2840014  73.2259789  23.3514626 118.0477847
  71.9089992  27.0659978 112.2760014  71.1109992  26.6509978 111.9480014
  72.3539992  26.3759978 112.7670014  71.8599684  26.9158628 112.2975227
  61.3659992  32.9939978 104.8470014  61.9579992  33.6939978 105.1230014
  61.8249992  32.5609978 104.1270014  61.5090791  33.0312908 104.7874607
  72.9949992  36.3219978 113.8990014  72.8389992  37.0009978 113.2420014
  73.9279992  36.3939978 114.1020014  73.0997387  36.4246390 113.8365342
  60.4899992  20.4399978 112.6360014  60.2609992  20.4989978 111.7080014
  60.0479992  19.6489978 112.9420014  60.3988801  20.3410540 112.5504729
  59.4209992  34.3809978 108.7960014  58.5879992  34.8529978 108.8240014
  59.9659992  34.8909978 108.1980014  59.3807590  34.5145897 108.7189194
  58.7089992  36.9929978 120.1260014  59.2489992  36.7769978 120.8860014
  58.2279992  36.1879978 119.9370014  58.7178613  36.8545400 120.2044782
  63.3059992  35.9129978 121.7470014  64.0739992  35.4539978 122.0880014
  63.2849992  35.6869978 120.8170014  63.4082135  35.8196668 121.6679491
  69.8829992  34.2929978 120.4760014  69.5319992  33.4359978 120.7190014
  70.6089992  34.4349978 121.0830014  69.9331590  34.1950178 120.5912907
  58.6159992  30.8039978 121.0810014  58.7599992  29.9019978 120.7940014
  57.8439992  31.0899978 120.5930014  58.5313303  30.7193243 120.9757908
  65.2709992  30.7729978 120.5130014  64.9429992  31.0439978 119.6560014
  65.4229992  29.8319978 120.4260014  65.2466030  30.6828973 120.3837945
  71.0059992  30.6889978 117.8970014  71.7509992  31.2779978 117.7770014
  70.2489992  31.2709978 117.9600014  71.0055205  30.8481997 117.8891119
  59.4489992  28.0039978 120.5010014  59.8569992  27.1469978 120.3800014
  59.1879992  28.0179978 121.4220014  59.4696016  27.8885119 120.6089192
  64.1069992  29.1199978 105.5190014  63.6469992  28.6359978 106.2050014
  64.3619992  28.4509978 104.8830014  64.0785038  28.9633689 105.5269447
  63.3959992  27.0129978 117.8750014  62.7769992  27.6869978 118.1550014
  63.7399992  27.3339978 117.0420014  63.3577605  27.1487198 117.8006707
  65.1779992  27.3629978 103.7810014  64.9969992  27.2079978 102.8540014
  66.1279992  27.4709978 103.8260014  65.2816566  27.3563669 103.6600929
  68.4149992  29.4839978 121.1520014  69.3689992  29.5679978 121.1250014
  68.2549992  28.7719978 121.7720014  68.5237182  29.3992842 121.2320733
  63.7349992  24.3679978 118.9570014  63.8849992  23.6389978 118.3550014
  63.7369992  25.1449978 118.3980014  63.7557967  24.3732708 118.7990541
  64.1479992  22.7369978 116.4500014  64.6829992  23.1889978 115.7980014
  63.2949992  22.6289978 116.0270014  64.1060374  22.7842665 116.3036710
  65.7289992  28.1769978 116.6890014  66.4799992  28.0209978 116.1160014
  65.3899992  29.0289978 116.4140014  65.7859587  28.2708138 116.5734078
  70.1449992  25.9919978 121.7180014  70.3369992  25.0609978 121.6060014
  71.0029992  26.4169978 121.7080014  70.2872269  25.9219928 121.7013192
  71.4619992  28.7809978 119.7950014  71.1799992  29.4899978 119.2180014
  72.4039992  28.7079978 119.6440014  71.5507656  28.8683128 119.6954809
  62.2139992  25.5659978 120.8690014  61.4459992  25.0329978 120.6590014
  62.8919992  25.2559978 120.2690014  62.2006973  25.4512375 120.7591796
  64.9529992  20.1939978 116.8810014  64.8549992  21.1399978 116.7760014
  64.2109992  19.8209978 116.4060014  64.8391913  20.2731813 116.8023539
  66.2169992  24.5149978 120.4450014  65.9819992  24.2959978 121.3470014
  65.4339992  24.3079978 119.9350014  66.0789219  24.4570066 120.4995852
  68.9329992  23.6429978 119.5210014  67.9849992  23.6749978 119.6530014
  69.2449992  23.0169978 120.1740014  68.8455190  23.5627262 119.6273564
  70.5669992  22.2769978 121.5260014  70.4699992  21.3249978 121.5200014
  70.2449992  22.5449978 122.3860014  70.5101761  22.1829744 121.6414936
  60.3939992  23.4859978 120.5730014  60.6059992  22.7799978 119.9630014
  60.2829992  23.0489978 121.4170014  60.4080269  23.3301921 120.6035873
  65.1749992  19.4879978 119.5530014  65.8869992  18.8479978 119.5390014
  65.0739992  19.7539978 118.6390014  65.2587261  19.4364190 119.4275537
  65.5289992  21.1699978 121.6060014  65.3969992  20.6949978 120.7860014
  64.9289992  21.9149978 121.5510014  65.4299070  21.2055789 121.4863251
  57.2919992  38.0829978 109.3430014  56.6449992  37.6209978 108.8100014
  57.6469992  37.4109978 109.9250014  57.2514506  37.9289503 109.3487341
  58.1619992  36.1629978 111.1470014  57.8279992  35.2829978 111.3190014
  58.3849992  36.5089978 112.0120014  58.1463721  36.0891938 111.2874168
  75.7109992  36.9729978 114.1280014  75.6889992  37.1579978 115.0670014
  76.4009992  37.5409978 113.7870014  75.8013439  37.0751887 114.2104791
  75.2739992  36.5399978 117.0500014  74.7869992  35.8049978 116.6790014
  75.8229992  36.1459978 117.7280014  75.2815247  36.3861057 117.0908461
  73.7249992  32.3299978 121.6880014  72.8589992  32.2249978 122.0820014
  74.1009992  33.0879978 122.1340014  73.6573401  32.4181708 121.8022620
  75.0259992  30.5859978 107.2020014  75.8759992  31.0069978 107.3290014
  75.0309992  29.8459978 107.8090014  75.1431143  30.5436094 107.3014750
  75.4199992  28.6399978 109.0260014  74.6939992  28.1599978 109.4230014
  76.0019992  28.8449978 109.7580014  75.3991635  28.6019166 109.1793748
  75.1789992  31.4249978 113.9730014  76.0129992  31.0469978 113.6930014
  75.2909992  32.3679978 113.8540014  75.3082522  31.5007742 113.9186020
  73.6659992  34.3029978 116.2800014  73.0179992  34.6279978 116.9060014
  73.1479992  33.8619978 115.6060014  73.5074168  34.2878523 116.2745307
  73.2069992  27.1609978 109.5890014  73.0569992  26.2159978 109.5680014
  72.8529992  27.4419978 110.4320014  73.1385527  27.0695605 109.7001859
  58.2419992  29.2389978 113.5990014  58.4269992  29.1569978 112.6630014
  59.0919992  29.1149978 114.0230014  58.3820916  29.2110393 113.5282896
  74.0629992  29.1309978 119.2270014  74.6459992  28.3959978 119.4190014
  74.6269992  29.9029978 119.2740014  74.2189781  29.1348145 119.2596164
  75.5599992  27.0339978 119.9120014  74.6969992  26.6549978 119.7460014
  76.1639992  26.2949978 119.8380014  75.5235944  26.8822978 119.8792984
  72.9179992  24.7429978 108.0510014  73.1969992  23.8359978 108.1750014
  73.6769992  25.1769978 107.6620014  73.0588619  24.6774502 108.0153795
  73.5289992  25.3249978 113.4870014  74.4619992  25.5369978 113.4530014
  73.2939992  25.4259978 114.4090014  73.6248308  25.3676503 113.6070214
  73.5589992  26.0619978 116.2630014  72.7159992  26.3299978 116.6290014
  74.0009992  26.8839978 116.0520014  73.5034138  26.2098273 116.2845518
  57.8399992  24.5089978 119.7400014  58.7589992  24.3869978 119.9760014
  57.3899992  23.7589978 120.1290014  57.9051148  24.3908751 119.8249408
  75.8419992  20.0419978 121.6160014  76.1909992  19.3879978 121.0110014
  75.9889992  20.8789978 121.1770014  75.9097355  20.0656067 121.4736564
  73.5309992  22.0059978 108.0990014  73.7129992  21.5569978 108.9250014
  72.9309992  21.4219978 107.6360014  73.4747529  21.8656131 108.1493619
  59.0609992  22.8219978 112.6310014  59.5059992  22.0299978 112.9330014
  59.5269992  23.5379978 113.0620014  59.1849059  22.8104474 112.7306079
  57.3649992  25.8209978 113.7000014  57.8569992  25.5999978 112.9090014
  57.7269992  26.6609978 113.9810014  57.4812923  25.9043468 113.6297407
  75.3609992  22.1509978 119.9660014  74.4439992  22.4219978 119.9300014
  75.4839992  21.6159978 119.1820014  75.2520828  22.1157700 119.8550785
  57.6789992  22.0789978 107.7540014  56.7539992  22.2869978 107.6250014
  58.1329992  22.5629978 107.0650014  57.6136374  22.1729949 107.6430957
  72.4489992  37.0629978 109.7000014  73.1019992  36.7149978 109.0920014
  72.9599992  37.5509978 110.3460014  72.6072777  37.0813815 109.7042047
  57.6419992  20.8169978 116.0990014  56.9769992  20.5709978 116.7420014
  57.1989992  21.4389978 115.5210014  57.4910937  20.8673614 116.1089379
  59.8339992  33.9919978 120.2430014  59.0129992  34.1669978 119.7830014
  59.5819992  33.9189978 121.1640014  59.6876173  34.0060794 120.3044972
  62.7879992  34.9659978 116.5020014  62.3639992  35.7759978 116.2190014
  63.6929992  35.0519978 116.2000014  62.8522433  35.0883331 116.4225377
  67.0999992  36.3649978 119.4610014  67.2839992  36.0319978 120.3390014
  67.9459992  36.6749978 119.1390014  67.2396484  36.3612979 119.5377617
  69.4449992  37.6509978 118.7050014  70.1219992  37.0179978 118.4650014
  69.7659992  38.0519978 119.5120014  69.5811323  37.6185691 118.7813158
  74.3619992  20.2409978 117.7850014  73.5489992  20.5659978 117.3970014
  74.5949992  19.4799978 117.2520014  74.2822566  20.1826559 117.6599213
  60.1899992  38.2229978 116.5490014  59.4699992  38.6629978 116.0980014
  59.8249992  37.9719978 117.3980014  60.0419796  38.2493824 116.6019329
  62.6569992  37.8229978 115.5790014  61.7929992  37.8949978 115.9830014
  62.6019992  38.3699978 114.7950014  62.5311942  37.9067849 115.5284000
  67.3679992  37.7109978 114.7540014  66.9109992  38.2399978 114.1000014
  67.5309992  38.3139978 115.4800014  67.3274476  37.8649140 114.7625499
  69.6959992  36.5889978 115.6990014  68.7909992  36.7539978 115.4340014
  70.1239992  37.4419978 115.6340014  69.6300700  36.7269529 115.6539520
  72.2999992  38.1589978 115.9940014  72.1179992  39.0749978 115.7840014
  72.4769992  37.7479978 115.1480014  72.2989907  38.2289741 115.8507883
  59.6049992  36.8459978 113.4590014  59.5869992  36.4199978 114.3170014
  60.4099992  36.5269978 113.0510014  59.7113221  36.7447233 113.5210225
  61.7459992  35.5559978 112.1140014  61.5269992  34.6389978 112.2840014
  62.5699992  35.6959978 112.5800014  61.8274702  35.4495511 112.2002527
  64.2829992  36.0259978 112.9630014  64.4959992  35.1379978 112.6760014
  64.3479992  35.9909978 113.9180014  64.3209075  35.8998307 113.0527373
  67.7919992  21.6899978 112.1070014  67.1179992  21.0599978 112.3630014
  68.3559992  21.2059978 111.5040014  67.7760384  21.5383708 112.0605020
  72.9349992  19.7969978 112.2200014  73.5379992  20.3449978 111.7180014
  72.0649992  20.1159978 111.9800014  72.8999190  19.9151041 112.1188679
  74.6619992  20.9359978 110.5530014  75.2729992  20.4219978 110.0270014
  75.0439992  21.8129978 110.5770014  74.7974475  20.9841323 110.4841208
  60.1189992  20.3239978 109.9290014  59.3419992  20.0889978 109.4220014
  60.6489992  19.5269978 109.9380014  60.0843451  20.1841268 109.8608627
  58.9549992  20.1219978 105.7330014  59.3939992  20.7329978 105.1410014
  58.3209992  20.6599978 106.2070014  58.9293859  20.2784064 105.7160305
  64.6979992  20.2499978 109.7430014  65.5719992  20.6389978 109.7130014
  64.5619992  20.0349978 110.6650014  64.7993207  20.2741923 109.8636509
  70.2549992  20.2799978 111.3920014  70.3309992  20.3759978 110.4430014
  69.9799992  19.3729978 111.5210014  70.2282042  20.1704241 111.2793811
  71.6079992  20.3059978 107.0840014  70.9049992  20.9209978 106.8750014
  71.1629992  19.4689978 107.2160014  71.4516292  20.2770085 107.0732439
  58.8559992  36.0699978 106.6310014  58.1709992  36.0319978 105.9630014
  58.8599992  36.9829978 106.9190014  58.7628174  36.1881998 106.5785310
  65.8419992  22.3309978 106.6330014  66.0199992  21.6839978 107.3150014
  65.7879992  23.1649978 107.1000014  65.8591025  22.3550504 106.7896433
  74.4289992  36.8419978 107.7070014  74.2349992  36.0939978 107.1420014
  74.3899992  37.5999978 107.1240014  74.3971645  36.8420786 107.5508148
  60.0759992  20.8379978 119.4470014  59.7099992  20.0719978 119.8900014
  60.9889992  20.8669978 119.7340014  60.1493225  20.7371906 119.5463459
  62.0489992  20.1879978 120.9830014  62.9479992  19.9139978 120.7980014
  61.6629992  19.4459978 121.4470014  62.1197237  20.0501508 121.0204710
  60.6739992  36.9899978 103.6560014  60.4059992  37.2759978 104.5290014
  61.4449992  36.4439978 103.8080014  60.7415600  36.9553330 103.7961499
  70.4709992  19.5209978 121.1650014  70.5469992  19.0949978 122.0190014
  71.3639992  19.5339978 120.8220014  70.6022267  19.4643952 121.2355932
  73.6469992  35.5939978 119.8570014  72.8649992  35.4069978 119.3380014
  73.5749992  36.5229978 120.0750014  73.5300863  35.6940221 119.8153574
  88.0529992  29.4799978 109.8880014  88.1419992  30.4239978 109.7560014
  87.4149992  29.2049978 109.2300014  87.9789062  29.5719812 109.7809641
  86.9859992  28.7349978 113.3070014  86.9479992  28.0889978 114.0120014
  86.6639992  28.2679978 112.5360014  86.9372679  28.5834276 113.2992921
  79.3539992  28.3489978 114.9000014  79.3959992  27.7239978 115.6230014
  80.0569992  28.9729978 115.0820014  79.4547345  28.3477873 115.0235274
  90.6919992  31.6739978 111.6090014  90.2509992  30.9539978 112.0590014
  90.6789992  32.3949978 112.2380014  90.6297960  31.6728329 111.7557567
  80.2779992  32.7989978 113.4350014  79.9079992  31.9969978 113.0650014
  81.2189992  32.6309978 113.4810014  80.3545984  32.6664638 113.3905603
  76.8879992  26.4589978 108.8280014  76.4399992  27.3049978 108.8090014
  76.3269992  25.8799978 108.3120014  76.7509603  26.4963674 108.7556720
  77.5979992  28.6209978 110.9540014  77.8119992  27.8509978 111.4810014
  78.3359992  28.7109978 110.3500014  77.7269652  28.5278012 110.9445212
  87.8039992  36.7779978 111.8210014  88.4229992  36.1019978 111.5470014
  87.5949992  36.5599978 112.7290014  87.8606232  36.6557938 111.9062517
  85.3749992  31.1669978 113.7130014  85.6789992  30.4809978 113.1190014
  86.0969992  31.2859978 114.3310014  85.5141152  31.0892189 113.7152123
  94.0379992  22.7689978 114.5740014  94.0879992  23.3789978 115.3100014
  94.4639992  23.2299978 113.8510014  94.1024108  22.9147709 114.5770112
  88.5159992  25.5609978 114.0410014  88.6589992  24.6149978 114.0610014
  88.4099992  25.7679978 113.1120014  88.5212509  25.4594813 113.9182231
  81.6709992  23.6629978 111.3130014  81.7139992  24.5229978 110.8950014
  81.2129992  23.1109978 110.6790014  81.6149815  23.7060621 111.1701197
  89.3929992  23.7939978 109.7140014  90.0399992  23.4649978 110.3390014
  89.9029992  24.3109978 109.0910014  89.5504317  23.8189227 109.7152167
  78.2909992  26.0599978 112.0750014  78.9449992  25.5099978 112.5070014
  78.3149992  25.7859978 111.1580014  78.3837199  25.9477167 112.0101668
  83.4479992  27.6099978 111.2900014  84.0639992  27.0829978 111.8000014
  82.8609992  26.9699978 110.8870014  83.4529239  27.4514117 111.3052952
  94.4299992  24.2469978 116.8100014  93.7409992  24.9049978 116.7140014
  94.4449992  24.0489978 117.7460014  94.3376740  24.3103242 116.9234630
  80.4809992  22.5809978 115.3870014  80.2619992  23.1109978 114.6210014
  79.8129992  22.8069978 116.0340014  80.3607001  22.6841154 115.3696064
  87.8499992  32.0809978 108.9310014  87.5549992  31.7579978 108.0800014
  87.5259992  32.9809978 108.9720014  87.7657983  32.1584026 108.8199771
  83.0499992  30.2559978 115.6750014  82.3099992  30.8549978 115.7780014
  83.7639992  30.8099978 115.3590014  83.0453288  30.4127356 115.6463805
  91.1569992  23.0849978 111.6940014  90.9419992  22.3189978 112.2270014
  91.8129992  23.5569978 112.2070014  91.2162673  23.0440728 111.8361990
  80.0749992  24.4729978 113.3390014  80.6889992  25.1059978 113.7130014
  80.5869992  24.0009978 112.6830014  80.2282277  24.4957352 113.3014279
  81.4579992  32.2209978 116.4620014  81.4519992  33.0999978 116.0840014
  80.6039992  32.1369978 116.8870014  81.3417925  32.3299535 116.4676887
  77.5789992  31.8919978 107.2440014  77.3069992  32.1209978 106.3550014
  77.6239992  32.7289978 107.7040014  77.5478709  32.0366058 107.1846107
  91.2039992  33.5129978 113.9560014  90.2619992  33.5719978 114.1180014
  91.4799992  34.4189978 113.8190014  91.1125865  33.6435288 113.9596192
  91.5039992  21.7999978 115.3740014  90.7679992  22.4099978 115.3360014
  92.1879992  22.2149978 114.8470014  91.4955506  21.9396400 115.2976051
  84.5079992  19.8859978 112.8400014  84.3899992  18.9379978 112.7850014
  83.6529992  20.2189978 113.1130014  84.3762679  19.8011926 112.8693720
  89.4559992  35.2939978 110.5820014  89.8809992  34.5869978 110.0970014
  89.7729992  36.0959978 110.1650014  89.5570266  35.3055190 110.4592479
  90.6159992  33.1949978 109.0900014  90.3579992  32.5049978 108.4790014
  90.6869992  32.7519978 109.9360014  90.5902837  33.0407106 109.1206912
  92.3019992  31.7619978 117.5680014  92.4409992  31.1699978 116.8280014
  92.4689992  32.6349978 117.2110014  92.3435562  31.7989896 117.4186283
  86.7739992  28.7239978 107.3400014  86.0629992  29.2589978 106.9880014
  87.4649992  28.7789978 106.6800014  86.7700751  28.8046777 107.2025858
  94.1429992  28.1019978 115.6340014  93.4909992  28.7959978 115.7230014
  94.6089992  28.3119978 114.8240014  94.1165937  28.2255019 115.5367533
  90.1799992  28.9329978 108.2920014  89.4479992  29.1619978 108.8650014
  90.6269992  28.2199978 108.7470014  90.1402753  28.8678972 108.4319715
  90.0769992  27.1079978 117.3600014  90.1569992  27.8709978 117.9310014
  89.4759992  27.3869978 116.6690014  90.0067245  27.2502630 117.3448424
  81.8249992  29.5639978 110.1740014  81.4949992  29.1929978 109.3560014
  82.4139992  28.8929978 110.5210014  81.8593970  29.4226063 110.1089404
  83.1919992  32.9919978 112.8560014  83.0969992  32.4129978 112.0990014
  83.9209992  32.6209978 113.3520014  83.2776161  32.8625891 112.8195209
  82.1919992  28.3319978 113.8080014  82.7569992  28.4539978 113.0450014
  82.5109992  28.9699978 114.4470014  82.3123977  28.4348851 113.7899424
  88.5009992  33.8359978 114.5420014  88.2609992  34.4979978 115.1900014
  88.3029992  33.0009978 114.9670014  88.4413826  33.8138115 114.6881566
  83.0719992  32.7319978 118.5250014  82.7609992  33.5139978 118.9800014
  82.4219992  32.5789978 117.8390014  82.9415538  32.8184087 118.4945898
  79.9919992  28.9299978 117.7540014  80.0619992  29.5809978 118.4520014
  79.1009992  29.0329978 117.4190014  79.8811802  29.0329757 117.8042249
  86.7769992  34.8319978 109.4120014  87.2509992  35.1279978 110.1900014
  86.2139992  35.5709978 109.1790014  86.7657361  34.9722721 109.4868611
  81.3109992  34.8029978 119.2880014  81.3189992  34.6669978 118.3410014
  80.3949992  34.6859978 119.5400014  81.1882528  34.7685463 119.1923243
  80.8159992  28.6329978 107.7640014  80.5239992  29.4009978 107.2730014
  80.1409992  27.9739978 107.6010014  80.6848497  28.6489745 107.6748260
  76.9089992  30.9959978 116.5790014  76.4069992  30.9679978 115.7640014
  76.9139992  30.0909978 116.8880014  76.8410416  30.8697368 116.5093766
  76.6589992  33.7769978 113.4630014  77.6049992  33.6319978 113.4440014
  76.5459992  34.5609978 114.0000014  76.7733578  33.8631697 113.5330317
  94.8569992  34.4429978 119.1450014  94.8069992  33.4869978 119.1080014
  94.0299992  34.7099978 119.5460014  94.7383987  34.3485174 119.1941446
  85.8349992  34.0169978 118.0210014  85.9229992  34.8429978 118.4960014
  84.9719992  33.6869978 118.2700014  85.7303357  34.0855468 118.1197653
  86.2499992  37.7889978 107.8270014  86.1739992  37.6679978 106.8810014
  86.2819992  38.7379978 107.9460014  86.2439156  37.9007530 107.7135048
  79.9029992  36.5779978 109.6080014  80.0549992  36.2299978 110.4870014
  79.0519992  36.2209978 109.3530014  79.8087899  36.4821738 109.6937340
  89.3509992  36.9429978 104.8290014  89.7259992  36.1989978 104.3590014
  89.3559992  36.6729978 105.7480014  89.4030024  36.8046950 104.8887987
  89.0199992  36.8689978 107.5790014  88.0849992  36.9689978 107.7570014
  89.2999992  36.1589978 108.1570014  88.9298173  36.7867239 107.6814998
  92.0089992  25.9359978 119.6250014  91.6009992  26.4159978 118.9050014
  92.0489992  25.0299978 119.3170014  91.9585476  25.8793160 119.4848247
  79.1579992  32.3199978 117.6220014  79.3739992  31.9579978 118.4810014
  78.3019992  31.9449978 117.4120014  79.0719354  32.2197906 117.7112160
  81.7759992  20.7899978 113.6170014  80.9149992  20.7029978 113.2100014
  81.7539992  21.6459978 114.0450014  81.6550411  20.8937884 113.6190857
  86.4389992  20.5119978 116.9920014  86.8589992  20.0969978 117.7450014
  85.5059992  20.3329978 117.1090014  86.3703736  20.4309910 117.1108968
  89.7659992  24.2669978 117.8450014  89.2519992  24.1419978 118.6430014
  89.6099992  25.1799978 117.6010014  89.6746967  24.3732123 117.9210937
  81.8669992  25.7549978 114.7120014  81.2259992  25.7149978 115.4210014
  81.9049992  26.6819978 114.4750014  81.7843670  25.8747795 114.7770550
  81.8639992  25.9759978 109.6240014  80.9719992  25.6359978 109.5660014
  82.3149992  25.5989978 108.8690014  81.8026815  25.8783762 109.5139203
  87.3999992  26.3919978 108.4410014  86.9909992  27.2069978 108.1500014
  88.1199992  26.2519978 107.8270014  87.4414013  26.4846571 108.3180875
  86.5019992  26.5679978 119.9290014  85.9389992  25.8629978 120.2500014
  87.3279992  26.4469978 120.3970014  86.5366674  26.4552165 120.0361751
  88.4049992  25.8379978 111.2550014  88.2089992  26.4439978 110.5400014
  88.5859992  25.0049978 110.8210014  88.4026584  25.8082513 111.0984212
  79.6169992  26.0759978 116.5790014  79.5789992  26.4759978 117.4480014
  79.1269992  25.2589978 116.6700014  79.5455621  26.0202510 116.7101377
  82.9829992  23.4499978 103.3780014  82.5519992  23.0049978 104.1080014
  82.2649992  23.8209978 102.8660014  82.8269363  23.4392968 103.4086211
  76.2259992  23.1919978 110.4300014  76.8559992  23.1629978 111.1490014
  76.6749992  22.7669978 109.7000014  76.3730692  23.1305316 110.4297771
  87.6689992  27.4759978 115.9270014  87.9919992  26.8449978 115.2840014
  87.2279992  26.9419978 116.5870014  87.6535789  27.3173522 115.9282232
  84.4459992  23.4039978 110.7110014  83.5349992  23.4609978 110.9990014
  84.9509992  23.3439978 111.5210014  84.3895387  23.4036870 110.8600646
  79.2739992  25.0329978 109.5370014  78.3849992  25.1319978 109.1970014
  79.5709992  24.1909978 109.1910014  79.1924177  24.9327687 109.4436940
  82.9269992  25.0329978 107.1940014  83.8589992  25.1619978 107.3720014
  82.7119992  25.7019978 106.5440014  83.0254472  25.1410806 107.1304891
  88.8509992  22.6389978 113.9750014  88.1739992  22.7699978 114.6390014
  88.3659992  22.4839978 113.1650014  88.6927265  22.6359659 113.9563397
  81.6009992  26.2269978 104.7610014  81.0589992  25.8479978 104.0690014
  82.4349992  26.4219978 104.3320014  81.6395159  26.2015076 104.6084419
  92.1389992  38.3099978 120.2520014  92.3379992  38.7339978 119.4170014
  92.7939992  38.6539978 120.8590014  92.2548501  38.4146091 120.2197097
  79.7369992  30.7839978 119.8600014  80.4689992  31.0389978 120.4210014
  78.9559992  30.9889978 120.3750014  79.7317684  30.8466468 120.0064782
  85.7659992  26.1909978 112.5980014  86.3299992  25.6449978 112.0510014
  85.6179992  25.6699978 113.3860014  85.8232575  26.0456552 112.6296987
  80.7679992  22.3279978 109.0160014  80.4509992  21.4249978 108.9810014
  81.5489992  22.3299978 108.4630014  80.8302307  22.2046951 108.9364314
  84.3919992  24.5799978 115.0120014  83.5569992  25.0339978 115.1220014
  84.9159992  24.8559978 115.7640014  84.3485070  24.6794666 115.1287152
  84.9369992  30.7929978 106.6960014  84.1919992  30.2849978 106.3740014
  84.8019992  30.8419978 107.6430014  84.8169047  30.7301596 106.7798845
  92.0869992  29.9259978 115.4830014  92.7279992  30.3819978 114.9390014
  91.2559992  30.0389978 115.0210014  92.0625171  30.0037502 115.3460237
  86.4559992  30.9769978 117.9330014  86.1099992  30.5949978 118.7400014
  86.2559992  31.9099978 118.0050014  86.3816523  31.0509095 118.0530735
  89.5529992  25.4739978 106.5560014  90.4449992  25.3359978 106.8750014
  89.6089992  26.2649978 106.0200014  89.6827107  25.5620526 106.5272091
  80.0609992  30.0879978 112.4660014  80.8059992  30.0849978 111.8650014
  80.1389992  29.2639978 112.9480014  80.1734158  29.9762916 112.4489153
  87.0619992  32.2509978 105.7220014  86.7669992  33.0779978 106.1030014
  86.3589992  31.6319978 105.9180014  86.9265471  32.2805227 105.8006698
  77.0689992  28.5479978 117.7810014  77.2919992  28.1299978 118.6130014
  76.4669992  27.9359978 117.3580014  77.0181260  28.4079933 117.8377320
  84.0859992  28.0649978 119.9940014  83.7899992  27.8999978 119.0990014
  85.0169992  27.8449978 119.9830014  84.1713982  28.0126578 119.8700045
  88.7059992  33.4389978 117.8840014  87.8059992  33.6219978 117.6160014
  88.7399992  33.6979978 118.8050014  88.5872909  33.4990815 117.9717852
  94.4009992  31.4839978 119.0880014  93.5499992  31.7219978 118.7210014
  94.9909992  31.4669978 118.3350014  94.3642408  31.5142966 118.9358879
  92.7329992  34.4689978 106.7160014  92.3599992  33.6439978 107.0250014
  93.0099992  34.2859978 105.8190014  92.7193871  34.3312441 106.6369677
  89.8929992  29.2769978 113.7370014  88.9649992  29.0459978 113.7100014
  90.3439992  28.4999978 113.4070014  89.8268165  29.1402774 113.6886790
  82.4359992  33.6059978 109.8700014  82.9639992  34.3789978 109.6700014
  81.5559992  33.8299978 109.5690014  82.3893176  33.7423161 109.8018409
  83.8639992  31.2689978 109.4470014  83.6229992  32.1939978 109.4880014
  83.1229992  30.8099978 109.8430014  83.7308390  31.3336403 109.5061404
  84.3779992  35.4179978 115.7620014  84.7409992  36.2719978 115.5280014
  84.9099992  35.1259978 116.5020014  84.4996090  35.4954058 115.8300219
  82.5469992  36.2899978 108.9920014  81.5969992  36.3959978 109.0430014
  82.8989992  37.1109978 109.3370014  82.4645480  36.4154438 109.0455999
  87.9219992  31.5169978 115.4620014  87.4969992  31.2889978 116.2890014
  88.5029992  30.7779978 115.2800014  87.9423930  31.3859843 115.5504731
  90.5809992  36.0689978 117.9320014  89.9789992  35.5129978 117.4360014
  90.8619992  36.7359978 117.3060014  90.5366829  36.0831613 117.7795443
  78.7029992  23.3019978 117.3390014  77.8109992  23.6399978 117.2720014
  78.6049992  22.4459978 117.7570014  78.5674965  23.2326499 117.3863044
  90.9909992  31.1179978 106.7630014  90.7139992  30.3899978 107.3190014
  91.9189992  31.2369978 106.9680014  91.0784499  31.0344213 106.8668044
  78.3549992  35.1059978 115.7740014  78.5719992  34.1739978 115.7430014
  78.6009992  35.3809978 116.6570014  78.4179809  35.0155686 115.8891690
  79.6059992  30.3799978 105.9500014  78.9199992  30.7329978 106.5170014
  80.1289992  31.1429978 105.7040014  79.5829033  30.5313746 105.9942661
  87.4379992  23.0429978 116.2290014  88.1369992  23.1169978 116.8790014
  87.0569992  22.1779978 116.3830014  87.4822097  22.9362389 116.3387997
  88.2219992  22.6949978 107.3260014  88.4419992  23.1659978 106.5230014
  88.7809992  23.0889978 107.9960014  88.3276730  22.8127432 107.3065906
  85.8909992  34.8249978 106.1890014  85.0739992  35.3219978 106.2410014
  86.4199992  35.3009978 105.5490014  85.8508508  34.9572543 106.1096035
  85.4219992  24.4229978 108.1610014  86.2339992  24.9269978 108.2070014
  85.1779992  24.2779978 109.0750014  85.5001467  24.4723749 108.2908575
  85.9579992  25.4089978 117.3460014  86.0769992  25.9829978 118.1030014
  86.6129992  24.7209978 117.4600014  86.0629146  25.3945574 117.4651314
  86.3059992  21.5039978 109.0990014  85.9589992  22.1209978 109.7440014
  86.9649992  22.0049978 108.6180014  86.3475949  21.6561099 109.1222271
  83.2289992  35.8689978 106.1710014  83.3899992  36.6689978 105.6700014
  83.0319992  36.1759978 107.0560014  83.2243919  36.0199129 106.2221006
  81.9639992  22.5669978 105.7860014  81.8799992  23.4549978 106.1330014
  82.8539992  22.3019978 106.0180014  82.0728163  22.6527179 105.8648596
  92.1619992  23.3159978 118.1810014  91.2459992  23.5779978 118.0930014
  92.4979992  23.3129978 117.2840014  92.0819789  23.3514626 118.0477847
  90.7649992  27.0659978 112.2760014  89.9669992  26.6509978 111.9480014
  91.2099992  26.3759978 112.7670014  90.7159684  26.9158628 112.2975227
  91.8509992  36.3219978 113.8990014  91.6949992  37.0009978 113.2420014
  92.7839992  36.3939978 114.1020014  91.9557387  36.4246390 113.8365342
  79.3459992  20.4399978 112.6360014  79.1169992  20.4989978 111.7080014
  78.9039992  19.6489978 112.9420014  79.2548801  20.3410540 112.5504729
  78.2769992  34.3809978 108.7960014  77.4439992  34.8529978 108.8240014
  78.8219992  34.8909978 108.1980014  78.2367590  34.5145897 108.7189194
  77.5649992  36.9929978 120.1260014  78.1049992  36.7769978 120.8860014
  77.0839992  36.1879978 119.9370014  77.5738613  36.8545400 120.2044782
  82.1619992  35.9129978 121.7470014  82.9299992  35.4539978 122.0880014
  82.1409992  35.6869978 120.8170014  82.2642135  35.8196668 121.6679491
  88.7389992  34.2929978 120.4760014  88.3879992  33.4359978 120.7190014
  89.4649992  34.4349978 121.0830014  88.7891590  34.1950178 120.5912907
  77.4719992  30.8039978 121.0810014  77.6159992  29.9019978 120.7940014
  76.6999992  31.0899978 120.5930014  77.3873303  30.7193243 120.9757908
  84.1269992  30.7729978 120.5130014  83.7989992  31.0439978 119.6560014
  84.2789992  29.8319978 120.4260014  84.1026030  30.6828973 120.3837945
  89.8619992  30.6889978 117.8970014  90.6069992  31.2779978 117.7770014
  89.1049992  31.2709978 117.9600014  89.8615205  30.8481997 117.8891119
  78.3049992  28.0039978 120.5010014  78.7129992  27.1469978 120.3800014
  78.0439992  28.0179978 121.4220014  78.3256016  27.8885119 120.6089192
  82.9629992  29.1199978 105.5190014  82.5029992  28.6359978 106.2050014
  83.2179992  28.4509978 104.8830014  82.9345038  28.9633689 105.5269447
  82.2519992  27.0129978 117.8750014  81.6329992  27.6869978 118.1550014
  82.5959992  27.3339978 117.0420014  82.2137605  27.1487198 117.8006707
  87.2709992  29.4839978 121.1520014  88.2249992  29.5679978 121.1250014
  87.1109992  28.7719978 121.7720014  87.3797182  29.3992842 121.2320733
  82.5909992  24.3679978 118.9570014  82.7409992  23.6389978 118.3550014
  82.5929992  25.1449978 118.3980014  82.6117967  24.3732708 118.7990541
  83.0039992  22.7369978 116.4500014  83.5389992  23.1889978 115.7980014
  82.1509992  22.6289978 116.0270014  82.9620374  22.7842665 116.3036710
  84.5849992  28.1769978 116.6890014  85.3359992  28.0209978 116.1160014
  84.2459992  29.0289978 116.4140014  84.6419587  28.2708138 116.5734078
  89.0009992  25.9919978 121.7180014  89.1929992  25.0609978 121.6060014
  89.8589992  26.4169978 121.7080014  89.1432269  25.9219928 121.7013192
  90.3179992  28.7809978 119.7950014  90.0359992  29.4899978 119.2180014
  91.2599992  28.7079978 119.6440014  90.4067656  28.8683128 119.6954809
  81.0699992  25.5659978 120.8690014  80.3019992  25.0329978 120.6590014
  81.7479992  25.2559978 120.2690014  81.0566973  25.4512375 120.7591796
  83.8089992  20.1939978 116.8810014  83.7109992  21.1399978 116.7760014
  83.0669992  19.8209978 116.4060014  83.6951913  20.2731813 116.8023539
  85.0729992  24.5149978 120.4450014  84.8379992  24.2959978 121.3470014
  84.2899992  24.3079978 119.9350014  84.9349219  24.4570066 120.4995852
  87.7889992  23.6429978 119.5210014  86.8409992  23.6749978 119.6530014
  88.1009992  23.0169978 120.1740014  87.7015190  23.5627262 119.6273564
  89.4229992  22.2769978 121.5260014  89.3259992  21.3249978 121.5200014
  89.1009992  22.5449978 122.3860014  89.3661761  22.1829744 121.6414936
  79.2499992  23.4859978 120.5730014  79.4619992  22.7799978 119.9630014
  79.1389992  23.0489978 121.4170014  79.2640269  23.3301921 120.6035873
  84.0309992  19.4879978 119.5530014  84.7429992  18.8479978 119.5390014
  83.9299992  19.7539978 118.6390014  84.1147261  19.4364190 119.4275537
  84.3849992  21.1699978 121.6060014  84.2529992  20.6949978 120.7860014
  83.7849992  21.9149978 121.5510014  84.2859070  21.2055789 121.4863251
  83.9309992  38.0529978 104.7830014  84.8639992  38.2109978 104.9260014
  83.6669992  38.7289978 104.1580014  84.0229308  38.1659104 104.7181396
  77.4989992  32.6899978 104.2650014  78.4129992  32.7689978 104.5390014
  77.5069992  32.0029978 103.5990014  77.6251143  32.6079085 104.2124274
  76.1479992  38.0829978 109.3430014  75.5009992  37.6209978 108.8100014
  76.5029992  37.4109978 109.9250014  76.1074506  37.9289503 109.3487341
  77.0179992  36.1629978 111.1470014  76.6839992  35.2829978 111.3190014
  77.2409992  36.5089978 112.0120014  77.0023721  36.0891938 111.2874168
  94.5669992  36.9729978 114.1280014  94.5449992  37.1579978 115.0670014
  95.2569992  37.5409978 113.7870014  94.6573439  37.0751887 114.2104791
  94.1299992  36.5399978 117.0500014  93.6429992  35.8049978 116.6790014
  94.6789992  36.1459978 117.7280014  94.1375247  36.3861057 117.0908461
  92.5809992  32.3299978 121.6880014  91.7149992  32.2249978 122.0820014
  92.9569992  33.0879978 122.1340014  92.5133401  32.4181708 121.8022620
  93.8819992  30.5859978 107.2020014  94.7319992  31.0069978 107.3290014
  93.8869992  29.8459978 107.8090014  93.9991143  30.5436094 107.3014750
  94.2759992  28.6399978 109.0260014  93.5499992  28.1599978 109.4230014
  94.8579992  28.8449978 109.7580014  94.2551635  28.6019166 109.1793748
  94.0349992  31.4249978 113.9730014  94.8689992  31.0469978 113.6930014
  94.1469992  32.3679978 113.8540014  94.1642522  31.5007742 113.9186020
  92.5219992  34.3029978 116.2800014  91.8739992  34.6279978 116.9060014
  92.0039992  33.8619978 115.6060014  92.3634168  34.2878523 116.2745307
  94.5449992  28.5409978 105.4170014  94.0229992  28.8969978 104.6980014
  94.5119992  29.2159978 106.0950014  94.4690699  28.6809848 105.4102129
  92.0629992  27.1609978 109.5890014  91.9129992  26.2159978 109.5680014
  91.7089992  27.4419978 110.4320014  91.9945527  27.0695605 109.7001859
  77.0979992  29.2389978 113.5990014  77.2829992  29.1569978 112.6630014
  77.9479992  29.1149978 114.0230014  77.2380916  29.2110393 113.5282896
  92.9189992  29.1309978 119.2270014  93.5019992  28.3959978 119.4190014
  93.4829992  29.9029978 119.2740014  93.0749781  29.1348145 119.2596164
  94.4159992  27.0339978 119.9120014  93.5529992  26.6549978 119.7460014
  95.0199992  26.2949978 119.8380014  94.3795944  26.8822978 119.8792984
  91.7739992  24.7429978 108.0510014  92.0529992  23.8359978 108.1750014
  92.5329992  25.1769978 107.6620014  91.9148619  24.6774502 108.0153795
  92.3849992  25.3249978 113.4870014  93.3179992  25.5369978 113.4530014
  92.1499992  25.4259978 114.4090014  92.4808308  25.3676503 113.6070214
  92.4149992  26.0619978 116.2630014  91.5719992  26.3299978 116.6290014
  92.8569992  26.8839978 116.0520014  92.3594138  26.2098273 116.2845518
  76.6959992  24.5089978 119.7400014  77.6149992  24.3869978 119.9760014
  76.2459992  23.7589978 120.1290014  76.7611148  24.3908751 119.8249408
  94.6979992  20.0419978 121.6160014  95.0469992  19.3879978 121.0110014
  94.8449992  20.8789978 121.1770014  94.7657355  20.0656067 121.4736564
  92.3869992  22.0059978 108.0990014  92.5689992  21.5569978 108.9250014
  91.7869992  21.4219978 107.6360014  92.3307529  21.8656131 108.1493619
  77.9169992  22.8219978 112.6310014  78.3619992  22.0299978 112.9330014
  78.3829992  23.5379978 113.0620014  78.0409059  22.8104474 112.7306079
  76.2209992  25.8209978 113.7000014  76.7129992  25.5999978 112.9090014
  76.5829992  26.6609978 113.9810014  76.3372923  25.9043468 113.6297407
  94.2169992  22.1509978 119.9660014  93.2999992  22.4219978 119.9300014
  94.3399992  21.6159978 119.1820014  94.1080828  22.1157700 119.8550785
  94.2539992  22.0739978 104.6270014  94.6659992  21.3529978 104.1520014
  94.9349992  22.7429978 104.6860014  94.4025900  22.0657306 104.5699038
  76.5349992  22.0789978 107.7540014  75.6099992  22.2869978 107.6250014
  76.9889992  22.5629978 107.0650014  76.4696374  22.1729949 107.6430957
  91.3049992  37.0629978 109.7000014  91.9579992  36.7149978 109.0920014
  91.8159992  37.5509978 110.3460014  91.4632777  37.0813815 109.7042047
  76.4979992  20.8169978 116.0990014  75.8329992  20.5709978 116.7420014
  76.0549992  21.4389978 115.5210014  76.3470937  20.8673614 116.1089379
  78.6899992  33.9919978 120.2430014  77.8689992  34.1669978 119.7830014
  78.4379992  33.9189978 121.1640014  78.5436173  34.0060794 120.3044972
  81.6439992  34.9659978 116.5020014  81.2199992  35.7759978 116.2190014
  82.5489992  35.0519978 116.2000014  81.7082433  35.0883331 116.4225377
  85.9559992  36.3649978 119.4610014  86.1399992  36.0319978 120.3390014
  86.8019992  36.6749978 119.1390014  86.0956484  36.3612979 119.5377617
  88.3009992  37.6509978 118.7050014  88.9779992  37.0179978 118.4650014
  88.6219992  38.0519978 119.5120014  88.4371323  37.6185691 118.7813158
  93.2179992  20.2409978 117.7850014  92.4049992  20.5659978 117.3970014
  93.4509992  19.4799978 117.2520014  93.1382566  20.1826559 117.6599213
  79.0459992  38.2229978 116.5490014  78.3259992  38.6629978 116.0980014
  78.6809992  37.9719978 117.3980014  78.8979796  38.2493824 116.6019329
  81.5129992  37.8229978 115.5790014  80.6489992  37.8949978 115.9830014
  81.4579992  38.3699978 114.7950014  81.3871942  37.9067849 115.5284000
  86.2239992  37.7109978 114.7540014  85.7669992  38.2399978 114.1000014
  86.3869992  38.3139978 115.4800014  86.1834476  37.8649140 114.7625499
  88.5519992  36.5889978 115.6990014  87.6469992  36.7539978 115.4340014
  88.9799992  37.4419978 115.6340014  88.4860700  36.7269529 115.6539520
  91.1559992  38.1589978 115.9940014  90.9739992  39.0749978 115.7840014
  91.3329992  37.7479978 115.1480014  91.1549907  38.2289741 115.8507883
  78.4609992  36.8459978 113.4590014  78.4429992  36.4199978 114.3170014
  79.2659992  36.5269978 113.0510014  78.5673221  36.7447233 113.5210225
  80.6019992  35.5559978 112.1140014  80.3829992  34.6389978 112.2840014
  81.4259992  35.6959978 112.5800014  80.6834702  35.4495511 112.2002527
  83.1389992  36.0259978 112.9630014  83.3519992  35.1379978 112.6760014
  83.2039992  35.9909978 113.9180014  83.1769075  35.8998307 113.0527373
  86.6479992  21.6899978 112.1070014  85.9739992  21.0599978 112.3630014
  87.2119992  21.2059978 111.5040014  86.6320384  21.5383708 112.0605020
  91.7909992  19.7969978 112.2200014  92.3939992  20.3449978 111.7180014
  90.9209992  20.1159978 111.9800014  91.7559190  19.9151041 112.1188679
  93.5179992  20.9359978 110.5530014  94.1289992  20.4219978 110.0270014
  93.8999992  21.8129978 110.5770014  93.6534475  20.9841323 110.4841208
  78.9749992  20.3239978 109.9290014  78.1979992  20.0889978 109.4220014
  79.5049992  19.5269978 109.9380014  78.9403451  20.1841268 109.8608627
  83.5539992  20.2499978 109.7430014  84.4279992  20.6389978 109.7130014
  83.4179992  20.0349978 110.6650014  83.6553207  20.2741923 109.8636509
  89.1109992  20.2799978 111.3920014  89.1869992  20.3759978 110.4430014
  88.8359992  19.3729978 111.5210014  89.0842042  20.1704241 111.2793811
  90.4639992  20.3059978 107.0840014  89.7609992  20.9209978 106.8750014
  90.0189992  19.4689978 107.2160014  90.3076292  20.2770085 107.0732439
  77.7119992  36.0699978 106.6310014  77.0269992  36.0319978 105.9630014
  77.7159992  36.9829978 106.9190014  77.6188174  36.1881998 106.5785310
  84.6979992  22.3309978 106.6330014  84.8759992  21.6839978 107.3150014
  84.6439992  23.1649978 107.1000014  84.7151025  22.3550504 106.7896433
  86.5759992  37.2789978 105.0280014  87.4419992  37.6459978 104.8500014
  86.3299992  36.8399978 104.2140014  86.6612097  37.2698525 104.8936019
  93.2849992  36.8419978 107.7070014  93.0909992  36.0939978 107.1420014
  93.2459992  37.5999978 107.1240014  93.2531645  36.8420786 107.5508148
  78.9319992  20.8379978 119.4470014  78.5659992  20.0719978 119.8900014
  79.8449992  20.8669978 119.7340014  79.0053225  20.7371906 119.5463459
  80.9049992  20.1879978 120.9830014  81.8039992  19.9139978 120.7980014
  80.5189992  19.4459978 121.4470014  80.9757237  20.0501508 121.0204710
  89.3269992  19.5209978 121.1650014  89.4029992  19.0949978 122.0190014
  90.2199992  19.5339978 120.8220014  89.4582267  19.4643952 121.2355932
  92.5029992  35.5939978 119.8570014  91.7209992  35.4069978 119.3380014
  92.4309992  36.5229978 120.0750014  92.3860863  35.6940221 119.8153574
 106.9089992  29.4799978 109.8880014 106.9979992  30.4239978 109.7560014
 106.2709992  29.2049978 109.2300014 106.8349062  29.5719812 109.7809641
 105.8419992  28.7349978 113.3070014 105.8039992  28.0889978 114.0120014
 105.5199992  28.2679978 112.5360014 105.7932679  28.5834276 113.2992921
  98.2099992  28.3489978 114.9000014  98.2519992  27.7239978 115.6230014
  98.9129992  28.9729978 115.0820014  98.3107345  28.3477873 115.0235274
 109.5479992  31.6739978 111.6090014 109.1069992  30.9539978 112.0590014
 109.5349992  32.3949978 112.2380014 109.4857960  31.6728329 111.7557567
  99.1339992  32.7989978 113.4350014  98.7639992  31.9969978 113.0650014
 100.0749992  32.6309978 113.4810014  99.2105984  32.6664638 113.3905603
  95.7439992  26.4589978 108.8280014  95.2959992  27.3049978 108.8090014
  95.1829992  25.8799978 108.3120014  95.6069603  26.4963674 108.7556720
  96.4539992  28.6209978 110.9540014  96.6679992  27.8509978 111.4810014
  97.1919992  28.7109978 110.3500014  96.5829652  28.5278012 110.9445212
 106.6599992  36.7779978 111.8210014 107.2789992  36.1019978 111.5470014
 106.4509992  36.5599978 112.7290014 106.7166232  36.6557938 111.9062517
 104.2309992  31.1669978 113.7130014 104.5349992  30.4809978 113.1190014
 104.9529992  31.2859978 114.3310014 104.3701152  31.0892189 113.7152124
 112.8939992  22.7689978 114.5740014 112.9439992  23.3789978 115.3100014
 113.3199992  23.2299978 113.8510014 112.9584108  22.9147709 114.5770112
 107.3719992  25.5609978 114.0410014 107.5149992  24.6149978 114.0610014
 107.2659992  25.7679978 113.1120014 107.3772509  25.4594813 113.9182231
 100.5269992  23.6629978 111.3130014 100.5699992  24.5229978 110.8950014
 100.0689992  23.1109978 110.6790014 100.4709815  23.7060621 111.1701197
 108.2489992  23.7939978 109.7140014 108.8959992  23.4649978 110.3390014
 108.7589992  24.3109978 109.0910014 108.4064317  23.8189227 109.7152167
  97.1469992  26.0599978 112.0750014  97.8009992  25.5099978 112.5070014
  97.1709992  25.7859978 111.1580014  97.2397199  25.9477167 112.0101668
 102.3039992  27.6099978 111.2900014 102.9199992  27.0829978 111.8000014
 101.7169992  26.9699978 110.8870014 102.3089239  27.4514117 111.3052952
 113.2859992  24.2469978 116.8100014 112.5969992  24.9049978 116.7140014
 113.3009992  24.0489978 117.7460014 113.1936740  24.3103242 116.9234630
  99.3369992  22.5809978 115.3870014  99.1179992  23.1109978 114.6210014
  98.6689992  22.8069978 116.0340014  99.2167001  22.6841154 115.3696064
 106.7059992  32.0809978 108.9310014 106.4109992  31.7579978 108.0800014
 106.3819992  32.9809978 108.9720014 106.6217983  32.1584026 108.8199771
 101.9059992  30.2559978 115.6750014 101.1659992  30.8549978 115.7780014
 102.6199992  30.8099978 115.3590014 101.9013288  30.4127356 115.6463805
 110.0129992  23.0849978 111.6940014 109.7979992  22.3189978 112.2270014
 110.6689992  23.5569978 112.2070014 110.0722673  23.0440728 111.8361990
  98.9309992  24.4729978 113.3390014  99.5449992  25.1059978 113.7130014
  99.4429992  24.0009978 112.6830014  99.0842277  24.4957352 113.3014279
 100.3139992  32.2209978 116.4620014 100.3079992  33.0999978 116.0840014
  99.4599992  32.1369978 116.8870014 100.1977925  32.3299535 116.4676887
  96.4349992  31.8919978 107.2440014  96.1629992  32.1209978 106.3550014
  96.4799992  32.7289978 107.7040014  96.4038709  32.0366058 107.1846107
 110.0599992  33.5129978 113.9560014 109.1179992  33.5719978 114.1180014
 110.3359992  34.4189978 113.8190014 109.9685865  33.6435288 113.9596192
 110.3599992  21.7999978 115.3740014 109.6239992  22.4099978 115.3360014
 111.0439992  22.2149978 114.8470014 110.3515506  21.9396400 115.2976051
 103.3639992  19.8859978 112.8400014 103.2459992  18.9379978 112.7850014
 102.5089992  20.2189978 113.1130014 103.2322679  19.8011926 112.8693720
 108.3119992  35.2939978 110.5820014 108.7369992  34.5869978 110.0970014
 108.6289992  36.0959978 110.1650014 108.4130266  35.3055190 110.4592479
 109.4719992  33.1949978 109.0900014 109.2139992  32.5049978 108.4790014
 109.5429992  32.7519978 109.9360014 109.4462837  33.0407106 109.1206912
 111.1579992  31.7619978 117.5680014 111.2969992  31.1699978 116.8280014
 111.3249992  32.6349978 117.2110014 111.1995562  31.7989896 117.4186283
 105.6299992  28.7239978 107.3400014 104.9189992  29.2589978 106.9880014
 106.3209992  28.7789978 106.6800014 105.6260751  28.8046777 107.2025858
 105.6839992  27.1809978 104.3790014 106.3849992  27.2039978 105.0300014
 105.9859992  26.5529978 103.7230014 105.8208282  27.0992339 104.3794496
 112.9989992  28.1019978 115.6340014 112.3469992  28.7959978 115.7230014
 113.4649992  28.3119978 114.8240014 112.9725937  28.2255019 115.5367533
 109.0359992  28.9329978 108.2920014 108.3039992  29.1619978 108.8650014
 109.4829992  28.2199978 108.7470014 108.9962753  28.8678972 108.4319715
 108.9329992  27.1079978 117.3600014 109.0129992  27.8709978 117.9310014
 108.3319992  27.3869978 116.6690014 108.8627245  27.2502630 117.3448424
 100.6809992  29.5639978 110.1740014 100.3509992  29.1929978 109.3560014
 101.2699992  28.8929978 110.5210014 100.7153970  29.4226063 110.1089404
 102.0479992  32.9919978 112.8560014 101.9529992  32.4129978 112.0990014
 102.7769992  32.6209978 113.3520014 102.1336161  32.8625891 112.8195209
 101.0479992  28.3319978 113.8080014 101.6129992  28.4539978 113.0450014
 101.3669992  28.9699978 114.4470014 101.1683977  28.4348851 113.7899424
 107.3569992  33.8359978 114.5420014 107.1169992  34.4979978 115.1900014
 107.1589992  33.0009978 114.9670014 107.2973826  33.8138115 114.6881566
 101.9279992  32.7319978 118.5250014 101.6169992  33.5139978 118.9800014
 101.2779992  32.5789978 117.8390014 101.7975538  32.8184087 118.4945898
 107.9069992  28.0959978 105.9770014 108.4859992  28.2459978 106.7240014
 108.3209992  28.5659978 105.2540014 108.0423122  28.1801277 105.9815042
  98.8479992  28.9299978 117.7540014  98.9179992  29.5809978 118.4520014
  97.9569992  29.0329978 117.4190014  98.7371802  29.0329757 117.8042249
 105.6329992  34.8319978 109.4120014 106.1069992  35.1279978 110.1900014
 105.0699992  35.5709978 109.1790014 105.6217361  34.9722721 109.4868611
 100.1669992  34.8029978 119.2880014 100.1749992  34.6669978 118.3410014
  99.2509992  34.6859978 119.5400014 100.0442528  34.7685463 119.1923243
  99.6719992  28.6329978 107.7640014  99.3799992  29.4009978 107.2730014
  98.9969992  27.9739978 107.6010014  99.5408497  28.6489745 107.6748260
  95.7649992  30.9959978 116.5790014  95.2629992  30.9679978 115.7640014
  95.7699992  30.0909978 116.8880014  95.6970416  30.8697368 116.5093766
  95.5149992  33.7769978 113.4630014  96.4609992  33.6319978 113.4440014
  95.4019992  34.5609978 114.0000014  95.6293578  33.8631697 113.5330317
 113.7129992  34.4429978 119.1450014 113.6629992  33.4869978 119.1080014
 112.8859992  34.7099978 119.5460014 113.5943987  34.3485174 119.1941446
 104.6909992  34.0169978 118.0210014 104.7789992  34.8429978 118.4960014
 103.8279992  33.6869978 118.2700014 104.5863357  34.0855468 118.1197653
 105.1059992  37.7889978 107.8270014 105.0299992  37.6679978 106.8810014
 105.1379992  38.7379978 107.9460014 105.0999156  37.9007530 107.7135048
  98.7589992  36.5779978 109.6080014  98.9109992  36.2299978 110.4870014
  97.9079992  36.2209978 109.3530014  98.6647899  36.4821738 109.6937340
 110.8649992  25.9359978 119.6250014 110.4569992  26.4159978 118.9050014
 110.9049992  25.0299978 119.3170014 110.8145476  25.8793160 119.4848247
  98.0139992  32.3199978 117.6220014  98.2299992  31.9579978 118.4810014
  97.1579992  31.9449978 117.4120014  97.9279354  32.2197906 117.7112160
 100.6319992  20.7899978 113.6170014  99.7709992  20.7029978 113.2100014
 100.6099992  21.6459978 114.0450014 100.5110411  20.8937884 113.6190857
 105.2949992  20.5119978 116.9920014 105.7149992  20.0969978 117.7450014
 104.3619992  20.3329978 117.1090014 105.2263736  20.4309910 117.1108968
 108.6219992  24.2669978 117.8450014 108.1079992  24.1419978 118.6430014
 108.4659992  25.1799978 117.6010014 108.5306967  24.3732123 117.9210937
 100.7229992  25.7549978 114.7120014 100.0819992  25.7149978 115.4210014
 100.7609992  26.6819978 114.4750014 100.6403670  25.8747795 114.7770550
 100.7199992  25.9759978 109.6240014  99.8279992  25.6359978 109.5660014
 101.1709992  25.5989978 108.8690014 100.6586815  25.8783762 109.5139203
 106.2559992  26.3919978 108.4410014 105.8469992  27.2069978 108.1500014
 106.9759992  26.2519978 107.8270014 106.2974013  26.4846571 108.3180875
 105.3579992  26.5679978 119.9290014 104.7949992  25.8629978 120.2500014
 106.1839992  26.4469978 120.3970014 105.3926674  26.4552165 120.0361751
 107.2609992  25.8379978 111.2550014 107.0649992  26.4439978 110.5400014
 107.4419992  25.0049978 110.8210014 107.2586584  25.8082513 111.0984212
  98.4729992  26.0759978 116.5790014  98.4349992  26.4759978 117.4480014
  97.9829992  25.2589978 116.6700014  98.4015621  26.0202510 116.7101377
  95.0819992  23.1919978 110.4300014  95.7119992  23.1629978 111.1490014
  95.5309992  22.7669978 109.7000014  95.2290692  23.1305316 110.4297771
  96.3559992  23.9379978 105.8540014  96.8299992  24.5289978 105.2690014
  95.6379992  24.4679978 106.2010014  96.3238640  24.0905511 105.8207969
 106.5249992  27.4759978 115.9270014 106.8479992  26.8449978 115.2840014
 106.0839992  26.9419978 116.5870014 106.5095789  27.3173522 115.9282232
 103.3019992  23.4039978 110.7110014 102.3909992  23.4609978 110.9990014
 103.8069992  23.3439978 111.5210014 103.2455387  23.4036870 110.8600646
  98.1299992  25.0329978 109.5370014  97.2409992  25.1319978 109.1970014
  98.4269992  24.1909978 109.1910014  98.0484177  24.9327687 109.4436940
 101.7829992  25.0329978 107.1940014 102.7149992  25.1619978 107.3720014
 101.5679992  25.7019978 106.5440014 101.8814472  25.1410806 107.1304891
 107.7069992  22.6389978 113.9750014 107.0299992  22.7699978 114.6390014
 107.2219992  22.4839978 113.1650014 107.5487265  22.6359659 113.9563397
 100.4569992  26.2269978 104.7610014  99.9149992  25.8479978 104.0690014
 101.2909992  26.4219978 104.3320014 100.4955159  26.2015076 104.6084419
 110.9949992  38.3099978 120.2520014 111.1939992  38.7339978 119.4170014
 111.6499992  38.6539978 120.8590014 111.1108501  38.4146091 120.2197097
  98.5929992  30.7839978 119.8600014  99.3249992  31.0389978 120.4210014
  97.8119992  30.9889978 120.3750014  98.5877684  30.8466468 120.0064782
 104.6219992  26.1909978 112.5980014 105.1859992  25.6449978 112.0510014
 104.4739992  25.6699978 113.3860014 104.6792575  26.0456552 112.6296987
  99.6239992  22.3279978 109.0160014  99.3069992  21.4249978 108.9810014
 100.4049992  22.3299978 108.4630014  99.6862307  22.2046951 108.9364314
 103.2479992  24.5799978 115.0120014 102.4129992  25.0339978 115.1220014
 103.7719992  24.8559978 115.7640014 103.2045070  24.6794666 115.1287152
 103.7929992  30.7929978 106.6960014 103.0479992  30.2849978 106.3740014
 103.6579992  30.8419978 107.6430014 103.6729047  30.7301596 106.7798845
 110.9429992  29.9259978 115.4830014 111.5839992  30.3819978 114.9390014
 110.1119992  30.0389978 115.0210014 110.9185171  30.0037502 115.3460237
 105.3119992  30.9769978 117.9330014 104.9659992  30.5949978 118.7400014
 105.1119992  31.9099978 118.0050014 105.2376523  31.0509095 118.0530735
 108.4089992  25.4739978 106.5560014 109.3009992  25.3359978 106.8750014
 108.4649992  26.2649978 106.0200014 108.5387107  25.5620526 106.5272091
  98.9169992  30.0879978 112.4660014  99.6619992  30.0849978 111.8650014
  98.9949992  29.2639978 112.9480014  99.0294158  29.9762916 112.4489153
 105.9179992  32.2509978 105.7220014 105.6229992  33.0779978 106.1030014
 105.2149992  31.6319978 105.9180014 105.7825471  32.2805227 105.8006698
  95.9249992  28.5479978 117.7810014  96.1479992  28.1299978 118.6130014
  95.3229992  27.9359978 117.3580014  95.8741260  28.4079933 117.8377320
 102.9419992  28.0649978 119.9940014 102.6459992  27.8999978 119.0990014
 103.8729992  27.8449978 119.9830014 103.0273982  28.0126578 119.8700045
 107.5619992  33.4389978 117.8840014 106.6619992  33.6219978 117.6160014
 107.5959992  33.6979978 118.8050014 107.4432909  33.4990815 117.9717852
 113.2939992  25.6829978 106.2510014 112.7389992  25.2869978 105.5790014
 113.3939992  26.5939978 105.9730014 113.2315888  25.7518990 106.1215206
 113.2569992  31.4839978 119.0880014 112.4059992  31.7219978 118.7210014
 113.8469992  31.4669978 118.3350014 113.2202408  31.5142966 118.9358879
 111.5889992  34.4689978 106.7160014 111.2159992  33.6439978 107.0250014
 111.8659992  34.2859978 105.8190014 111.5753871  34.3312441 106.6369677
 108.7489992  29.2769978 113.7370014 107.8209992  29.0459978 113.7100014
 109.1999992  28.4999978 113.4070014 108.6828165  29.1402774 113.6886790
 101.2919992  33.6059978 109.8700014 101.8199992  34.3789978 109.6700014
 100.4119992  33.8299978 109.5690014 101.2453176  33.7423161 109.8018409
 102.7199992  31.2689978 109.4470014 102.4789992  32.1939978 109.4880014
 101.9789992  30.8099978 109.8430014 102.5868390  31.3336403 109.5061404
 103.2339992  35.4179978 115.7620014 103.5969992  36.2719978 115.5280014
 103.7659992  35.1259978 116.5020014 103.3556090  35.4954058 115.8300219
 101.4029992  36.2899978 108.9920014 100.4529992  36.3959978 109.0430014
 101.7549992  37.1109978 109.3370014 101.3205480  36.4154438 109.0455999
 106.7779992  31.5169978 115.4620014 106.3529992  31.2889978 116.2890014
 107.3589992  30.7779978 115.2800014 106.7983930  31.3859843 115.5504732
 108.9809992  32.4459978 104.5360014 109.3349992  32.0659978 105.3410014
 108.0329992  32.3519978 104.6230014 108.9011820  32.3813092 104.6578714
 109.4369992  36.0689978 117.9320014 108.8349992  35.5129978 117.4360014
 109.7179992  36.7359978 117.3060014 109.3926829  36.0831613 117.7795443
  97.5589992  23.3019978 117.3390014  96.6669992  23.6399978 117.2720014
  97.4609992  22.4459978 117.7570014  97.4234965  23.2326499 117.3863044
 109.8469992  31.1179978 106.7630014 109.5699992  30.3899978 107.3190014
 110.7749992  31.2369978 106.9680014 109.9344499  31.0344213 106.8668044
  97.2109992  35.1059978 115.7740014  97.4279992  34.1739978 115.7430014
  97.4569992  35.3809978 116.6570014  97.2739809  35.0155686 115.8891690
 106.2939992  23.0429978 116.2290014 106.9929992  23.1169978 116.8790014
 105.9129992  22.1779978 116.3830014 106.3382097  22.9362389 116.3387997
 107.0779992  22.6949978 107.3260014 107.2979992  23.1659978 106.5230014
 107.6369992  23.0889978 107.9960014 107.1836730  22.8127432 107.3065906
 104.7469992  34.8249978 106.1890014 103.9299992  35.3219978 106.2410014
 105.2759992  35.3009978 105.5490014 104.7068508  34.9572543 106.1096035
 104.2779992  24.4229978 108.1610014 105.0899992  24.9269978 108.2070014
 104.0339992  24.2779978 109.0750014 104.3561467  24.4723749 108.2908575
 104.8139992  25.4089978 117.3460014 104.9329992  25.9829978 118.1030014
 105.4689992  24.7209978 117.4600014 104.9189146  25.3945574 117.4651313
 105.1619992  21.5039978 109.0990014 104.8149992  22.1209978 109.7440014
 105.8209992  22.0049978 108.6180014 105.2035949  21.6561099 109.1222271
 102.0849992  35.8689978 106.1710014 102.2459992  36.6689978 105.6700014
 101.8879992  36.1759978 107.0560014 102.0803919  36.0199129 106.2221006
 111.0179992  23.3159978 118.1810014 110.1019992  23.5779978 118.0930014
 111.3539992  23.3129978 117.2840014 110.9379789  23.3514626 118.0477847
 109.6209992  27.0659978 112.2760014 108.8229992  26.6509978 111.9480014
 110.0659992  26.3759978 112.7670014 109.5719684  26.9158628 112.2975227
 110.7069992  36.3219978 113.8990014 110.5509992  37.0009978 113.2420014
 111.6399992  36.3939978 114.1020014 110.8117387  36.4246390 113.8365342
  98.2019992  20.4399978 112.6360014  97.9729992  20.4989978 111.7080014
  97.7599992  19.6489978 112.9420014  98.1108801  20.3410540 112.5504729
  97.1329992  34.3809978 108.7960014  96.2999992  34.8529978 108.8240014
  97.6779992  34.8909978 108.1980014  97.0927590  34.5145897 108.7189194
  96.4209992  36.9929978 120.1260014  96.9609992  36.7769978 120.8860014
  95.9399992  36.1879978 119.9370014  96.4298613  36.8545400 120.2044782
 101.0179992  35.9129978 121.7470014 101.7859992  35.4539978 122.0880014
 100.9969992  35.6869978 120.8170014 101.1202135  35.8196668 121.6679491
 107.5949992  34.2929978 120.4760014 107.2439992  33.4359978 120.7190014
 108.3209992  34.4349978 121.0830014 107.6451590  34.1950178 120.5912907
 109.7149992  35.2379978 103.3560014 109.9979992  34.4429978 103.8080014
 110.4539992  35.4709978 102.7950014 109.8536956  35.1607031 103.3419821
  96.3279992  30.8039978 121.0810014  96.4719992  29.9019978 120.7940014
  95.5559992  31.0899978 120.5930014  96.2433303  30.7193243 120.9757908
 102.9829992  30.7729978 120.5130014 102.6549992  31.0439978 119.6560014
 103.1349992  29.8319978 120.4260014 102.9586030  30.6828973 120.3837945
 108.7179992  30.6889978 117.8970014 109.4629992  31.2779978 117.7770014
 107.9609992  31.2709978 117.9600014 108.7175205  30.8481997 117.8891119
  97.1609992  28.0039978 120.5010014  97.5689992  27.1469978 120.3800014
  96.8999992  28.0179978 121.4220014  97.1816016  27.8885119 120.6089192
 101.8189992  29.1199978 105.5190014 101.3589992  28.6359978 106.2050014
 102.0739992  28.4509978 104.8830014 101.7905038  28.9633689 105.5269447
 101.1079992  27.0129978 117.8750014 100.4889992  27.6869978 118.1550014
 101.4519992  27.3339978 117.0420014 101.0697605  27.1487198 117.8006707
 102.8899992  27.3629978 103.7810014 102.7089992  27.2079978 102.8540014
 103.8399992  27.4709978 103.8260014 102.9936566  27.3563669 103.6600929
 106.1269992  29.4839978 121.1520014 107.0809992  29.5679978 121.1250014
 105.9669992  28.7719978 121.7720014 106.2357182  29.3992842 121.2320733
 101.4469992  24.3679978 118.9570014 101.5969992  23.6389978 118.3550014
 101.4489992  25.1449978 118.3980014 101.4677967  24.3732708 118.7990541
 101.8599992  22.7369978 116.4500014 102.3949992  23.1889978 115.7980014
 101.0069992  22.6289978 116.0270014 101.8180374  22.7842665 116.3036710
 103.4409992  28.1769978 116.6890014 104.1919992  28.0209978 116.1160014
 103.1019992  29.0289978 116.4140014 103.4979587  28.2708138 116.5734078
 107.8569992  25.9919978 121.7180014 108.0489992  25.0609978 121.6060014
 108.7149992  26.4169978 121.7080014 107.9992269  25.9219928 121.7013192
 109.1739992  28.7809978 119.7950014 108.8919992  29.4899978 119.2180014
 110.1159992  28.7079978 119.6440014 109.2627656  28.8683128 119.6954809
  99.9259992  25.5659978 120.8690014  99.1579992  25.0329978 120.6590014
 100.6039992  25.2559978 120.2690014  99.9126973  25.4512375 120.7591796
 102.6649992  20.1939978 116.8810014 102.5669992  21.1399978 116.7760014
 101.9229992  19.8209978 116.4060014 102.5511913  20.2731813 116.8023539
 103.9289992  24.5149978 120.4450014 103.6939992  24.2959978 121.3470014
 103.1459992  24.3079978 119.9350014 103.7909219  24.4570066 120.4995852
 106.6449992  23.6429978 119.5210014 105.6969992  23.6749978 119.6530014
 106.9569992  23.0169978 120.1740014 106.5575190  23.5627262 119.6273564
 108.2789992  22.2769978 121.5260014 108.1819992  21.3249978 121.5200014
 107.9569992  22.5449978 122.3860014 108.2221761  22.1829744 121.6414936
  98.1059992  23.4859978 120.5730014  98.3179992  22.7799978 119.9630014
  97.9949992  23.0489978 121.4170014  98.1200269  23.3301921 120.6035873
 102.8869992  19.4879978 119.5530014 103.5989992  18.8479978 119.5390014
 102.7859992  19.7539978 118.6390014 102.9707261  19.4364190 119.4275537
 103.2409992  21.1699978 121.6060014 103.1089992  20.6949978 120.7860014
 102.6409992  21.9149978 121.5510014 103.1419070  21.2055789 121.4863251
  95.0039992  38.0829978 109.3430014  94.3569992  37.6209978 108.8100014
  95.3589992  37.4109978 109.9250014  94.9634506  37.9289503 109.3487341
  95.8739992  36.1629978 111.1470014  95.5399992  35.2829978 111.3190014
  96.0969992  36.5089978 112.0120014  95.8583721  36.0891938 111.2874168
 113.4229992  36.9729978 114.1280014 113.4009992  37.1579978 115.0670014
 114.1129992  37.5409978 113.7870014 113.5133439  37.0751887 114.2104791
 112.9859992  36.5399978 117.0500014 112.4989992  35.8049978 116.6790014
 113.5349992  36.1459978 117.7280014 112.9935247  36.3861057 117.0908461
 111.4369992  32.3299978 121.6880014 110.5709992  32.2249978 122.0820014
 111.8129992  33.0879978 122.1340014 111.3693401  32.4181708 121.8022620
 112.7379992  30.5859978 107.2020014 113.5879992  31.0069978 107.3290014
 112.7429992  29.8459978 107.8090014 112.8551143  30.5436094 107.3014750
 113.1319992  28.6399978 109.0260014 112.4059992  28.1599978 109.4230014
 113.7139992  28.8449978 109.7580014 113.1111635  28.6019166 109.1793748
 112.8909992  31.4249978 113.9730014 113.7249992  31.0469978 113.6930014
 113.0029992  32.3679978 113.8540014 113.0202522  31.5007742 113.9186020
 111.3779992  34.3029978 116.2800014 110.7299992  34.6279978 116.9060014
 110.8599992  33.8619978 115.6060014 111.2194168  34.2878523 116.2745307
 113.4009992  28.5409978 105.4170014 112.8789992  28.8969978 104.6980014
 113.3679992  29.2159978 106.0950014 113.3250699  28.6809848 105.4102129
 110.9189992  27.1609978 109.5890014 110.7689992  26.2159978 109.5680014
 110.5649992  27.4419978 110.4320014 110.8505527  27.0695605 109.7001859
  95.9539992  29.2389978 113.5990014  96.1389992  29.1569978 112.6630014
  96.8039992  29.1149978 114.0230014  96.0940916  29.2110393 113.5282896
 111.7749992  29.1309978 119.2270014 112.3579992  28.3959978 119.4190014
 112.3389992  29.9029978 119.2740014 111.9309781  29.1348145 119.2596164
 113.2719992  27.0339978 119.9120014 112.4089992  26.6549978 119.7460014
 113.8759992  26.2949978 119.8380014 113.2355944  26.8822978 119.8792984
 110.6299992  24.7429978 108.0510014 110.9089992  23.8359978 108.1750014
 111.3889992  25.1769978 107.6620014 110.7708619  24.6774502 108.0153795
 111.2409992  25.3249978 113.4870014 112.1739992  25.5369978 113.4530014
 111.0059992  25.4259978 114.4090014 111.3368308  25.3676503 113.6070214
 111.2709992  26.0619978 116.2630014 110.4279992  26.3299978 116.6290014
 111.7129992  26.8839978 116.0520014 111.2154138  26.2098273 116.2845518
  95.5519992  24.5089978 119.7400014  96.4709992  24.3869978 119.9760014
  95.1019992  23.7589978 120.1290014  95.6171148  24.3908751 119.8249408
 113.5539992  20.0419978 121.6160014 113.9029992  19.3879978 121.0110014
 113.7009992  20.8789978 121.1770014 113.6217355  20.0656067 121.4736564
 111.2429992  22.0059978 108.0990014 111.4249992  21.5569978 108.9250014
 110.6429992  21.4219978 107.6360014 111.1867529  21.8656131 108.1493619
  96.7729992  22.8219978 112.6310014  97.2179992  22.0299978 112.9330014
  97.2389992  23.5379978 113.0620014  96.8969059  22.8104474 112.7306079
  95.0769992  25.8209978 113.7000014  95.5689992  25.5999978 112.9090014
  95.4389992  26.6609978 113.9810014  95.1932923  25.9043468 113.6297407
 113.0729992  22.1509978 119.9660014 112.1559992  22.4219978 119.9300014
 113.1959992  21.6159978 119.1820014 112.9640828  22.1157700 119.8550785
  95.3909992  22.0789978 107.7540014  94.4659992  22.2869978 107.6250014
  95.8449992  22.5629978 107.0650014  95.3256374  22.1729949 107.6430957
 110.1609992  37.0629978 109.7000014 110.8139992  36.7149978 109.0920014
 110.6719992  37.5509978 110.3460014 110.3192777  37.0813815 109.7042047
  95.3539992  20.8169978 116.0990014  94.6889992  20.5709978 116.7420014
  94.9109992  21.4389978 115.5210014  95.2030937  20.8673614 116.1089379
  97.5459992  33.9919978 120.2430014  96.7249992  34.1669978 119.7830014
  97.2939992  33.9189978 121.1640014  97.3996173  34.0060794 120.3044972
 100.4999992  34.9659978 116.5020014 100.0759992  35.7759978 116.2190014
 101.4049992  35.0519978 116.2000014 100.5642433  35.0883331 116.4225377
 104.8119992  36.3649978 119.4610014 104.9959992  36.0319978 120.3390014
 105.6579992  36.6749978 119.1390014 104.9516484  36.3612979 119.5377617
 107.1569992  37.6509978 118.7050014 107.8339992  37.0179978 118.4650014
 107.4779992  38.0519978 119.5120014 107.2931323  37.6185691 118.7813158
 112.0739992  20.2409978 117.7850014 111.2609992  20.5659978 117.3970014
 112.3069992  19.4799978 117.2520014 111.9942566  20.1826559 117.6599213
  97.9019992  38.2229978 116.5490014  97.1819992  38.6629978 116.0980014
  97.5369992  37.9719978 117.3980014  97.7539796  38.2493824 116.6019329
 100.3689992  37.8229978 115.5790014  99.5049992  37.8949978 115.9830014
 100.3139992  38.3699978 114.7950014 100.2431942  37.9067849 115.5284000
 105.0799992  37.7109978 114.7540014 104.6229992  38.2399978 114.1000014
 105.2429992  38.3139978 115.4800014 105.0394476  37.8649140 114.7625499
 107.4079992  36.5889978 115.6990014 106.5029992  36.7539978 115.4340014
 107.8359992  37.4419978 115.6340014 107.3420700  36.7269529 115.6539520
 110.0119992  38.1589978 115.9940014 109.8299992  39.0749978 115.7840014
 110.1889992  37.7479978 115.1480014 110.0109907  38.2289741 115.8507883
  97.3169992  36.8459978 113.4590014  97.2989992  36.4199978 114.3170014
  98.1219992  36.5269978 113.0510014  97.4233221  36.7447233 113.5210225
  99.4579992  35.5559978 112.1140014  99.2389992  34.6389978 112.2840014
 100.2819992  35.6959978 112.5800014  99.5394702  35.4495511 112.2002527
 101.9949992  36.0259978 112.9630014 102.2079992  35.1379978 112.6760014
 102.0599992  35.9909978 113.9180014 102.0329075  35.8998307 113.0527373
 105.5039992  21.6899978 112.1070014 104.8299992  21.0599978 112.3630014
 106.0679992  21.2059978 111.5040014 105.4880384  21.5383708 112.0605020
 110.6469992  19.7969978 112.2200014 111.2499992  20.3449978 111.7180014
 109.7769992  20.1159978 111.9800014 110.6119190  19.9151041 112.1188679
 112.3739992  20.9359978 110.5530014 112.9849992  20.4219978 110.0270014
 112.7559992  21.8129978 110.5770014 112.5094475  20.9841323 110.4841208
  97.8309992  20.3239978 109.9290014  97.0539992  20.0889978 109.4220014
  98.3609992  19.5269978 109.9380014  97.7963451  20.1841268 109.8608627
 102.4099992  20.2499978 109.7430014 103.2839992  20.6389978 109.7130014
 102.2739992  20.0349978 110.6650014 102.5113207  20.2741923 109.8636509
 107.9669992  20.2799978 111.3920014 108.0429992  20.3759978 110.4430014
 107.6919992  19.3729978 111.5210014 107.9402042  20.1704241 111.2793811
 109.3199992  20.3059978 107.0840014 108.6169992  20.9209978 106.8750014
 108.8749992  19.4689978 107.2160014 109.1636292  20.2770085 107.0732439
  96.5679992  36.0699978 106.6310014  95.8829992  36.0319978 105.9630014
  96.5719992  36.9829978 106.9190014  96.4748174  36.1881998 106.5785310
 103.5539992  22.3309978 106.6330014 103.7319992  21.6839978 107.3150014
 103.4999992  23.1649978 107.1000014 103.5711025  22.3550504 106.7896433
 112.1409992  36.8419978 107.7070014 111.9469992  36.0939978 107.1420014
 112.1019992  37.5999978 107.1240014 112.1091645  36.8420786 107.5508148
  97.7879992  20.8379978 119.4470014  97.4219992  20.0719978 119.8900014
  98.7009992  20.8669978 119.7340014  97.8613225  20.7371906 119.5463459
  99.7609992  20.1879978 120.9830014 100.6599992  19.9139978 120.7980014
  99.3749992  19.4459978 121.4470014  99.8317237  20.0501508 121.0204710
 108.1829992  19.5209978 121.1650014 108.2589992  19.0949978 122.0190014
 109.0759992  19.5339978 120.8220014 108.3142267  19.4643952 121.2355932
 111.3589992  35.5939978 119.8570014 110.5769992  35.4069978 119.3380014
 111.2869992  36.5229978 120.0750014 111.2420863  35.6940221 119.8153574
 125.7649992  29.4799978 109.8880014 125.8539992  30.4239978 109.7560014
 125.1269992  29.2049978 109.2300014 125.6909062  29.5719812 109.7809641
 124.6979992  28.7349978 113.3070014 124.6599992  28.0889978 114.0120014
 124.3759992  28.2679978 112.5360014 124.6492679  28.5834276 113.2992921
 117.0659992  28.3489978 114.9000014 117.1079992  27.7239978 115.6230014
 117.7689992  28.9729978 115.0820014 117.1667345  28.3477873 115.0235274
 128.4039992  31.6739978 111.6090014 127.9629992  30.9539978 112.0590014
 128.3909992  32.3949978 112.2380014 128.3417960  31.6728329 111.7557567
 117.9899992  32.7989978 113.4350014 117.6199992  31.9969978 113.0650014
 118.9309992  32.6309978 113.4810014 118.0665984  32.6664638 113.3905603
 114.5999992  26.4589978 108.8280014 114.1519992  27.3049978 108.8090014
 114.0389992  25.8799978 108.3120014 114.4629603  26.4963674 108.7556720
 115.3099992  28.6209978 110.9540014 115.5239992  27.8509978 111.4810014
 116.0479992  28.7109978 110.3500014 115.4389652  28.5278012 110.9445212
 125.5159992  36.7779978 111.8210014 126.1349992  36.1019978 111.5470014
 125.3069992  36.5599978 112.7290014 125.5726232  36.6557938 111.9062517
 123.0869992  31.1669978 113.7130014 123.3909992  30.4809978 113.1190014
 123.8089992  31.2859978 114.3310014 123.2261152  31.0892189 113.7152123
 131.7499992  22.7689978 114.5740014 131.7999992  23.3789978 115.3100014
 132.1759992  23.2299978 113.8510014 131.8144108  22.9147709 114.5770112
 126.2279992  25.5609978 114.0410014 126.3709992  24.6149978 114.0610014
 126.1219992  25.7679978 113.1120014 126.2332509  25.4594813 113.9182231
 119.3829992  23.6629978 111.3130014 119.4259992  24.5229978 110.8950014
 118.9249992  23.1109978 110.6790014 119.3269815  23.7060621 111.1701197
 127.1049992  23.7939978 109.7140014 127.7519992  23.4649978 110.3390014
 127.6149992  24.3109978 109.0910014 127.2624317  23.8189227 109.7152167
 116.0029992  26.0599978 112.0750014 116.6569992  25.5099978 112.5070014
 116.0269992  25.7859978 111.1580014 116.0957199  25.9477167 112.0101668
 121.1599992  27.6099978 111.2900014 121.7759992  27.0829978 111.8000014
 120.5729992  26.9699978 110.8870014 121.1649239  27.4514117 111.3052952
 132.1419992  24.2469978 116.8100014 131.4529992  24.9049978 116.7140014
 132.1569992  24.0489978 117.7460014 132.0496740  24.3103242 116.9234630
 118.1929992  22.5809978 115.3870014 117.9739992  23.1109978 114.6210014
 117.5249992  22.8069978 116.0340014 118.0727001  22.6841154 115.3696064
 125.5619992  32.0809978 108.9310014 125.2669992  31.7579978 108.0800014
 125.2379992  32.9809978 108.9720014 125.4777983  32.1584026 108.8199771
 120.7619992  30.2559978 115.6750014 120.0219992  30.8549978 115.7780014
 121.4759992  30.8099978 115.3590014 120.7573288  30.4127356 115.6463805
 128.8689992  23.0849978 111.6940014 128.6539992  22.3189978 112.2270014
 129.5249992  23.5569978 112.2070014 128.9282673  23.0440728 111.8361990
 117.7869992  24.4729978 113.3390014 118.4009992  25.1059978 113.7130014
 118.2989992  24.0009978 112.6830014 117.9402277  24.4957352 113.3014279
 119.1699992  32.2209978 116.4620014 119.1639992  33.0999978 116.0840014
 118.3159992  32.1369978 116.8870014 119.0537925  32.3299535 116.4676887
 115.2909992  31.8919978 107.2440014 115.0189992  32.1209978 106.3550014
 115.3359992  32.7289978 107.7040014 115.2598709  32.0366058 107.1846107
 128.9159992  33.5129978 113.9560014 127.9739992  33.5719978 114.1180014
 129.1919992  34.4189978 113.8190014 128.8245865  33.6435288 113.9596192
 129.2159992  21.7999978 115.3740014 128.4799992  22.4099978 115.3360014
 129.8999992  22.2149978 114.8470014 129.2075506  21.9396400 115.2976051
 122.2199992  19.8859978 112.8400014 122.1019992  18.9379978 112.7850014
 121.3649992  20.2189978 113.1130014 122.0882679  19.8011926 112.8693720
 127.1679992  35.2939978 110.5820014 127.5929992  34.5869978 110.0970014
 127.4849992  36.0959978 110.1650014 127.2690266  35.3055190 110.4592479
 128.3279992  33.1949978 109.0900014 128.0699992  32.5049978 108.4790014
 128.3989992  32.7519978 109.9360014 128.3022837  33.0407106 109.1206912
 130.0139992  31.7619978 117.5680014 130.1529992  31.1699978 116.8280014
 130.1809992  32.6349978 117.2110014 130.0555562  31.7989896 117.4186283
 124.4859992  28.7239978 107.3400014 123.7749992  29.2589978 106.9880014
 125.1769992  28.7789978 106.6800014 124.4820751  28.8046777 107.2025858
 124.5399992  27.1809978 104.3790014 125.2409992  27.2039978 105.0300014
 124.8419992  26.5529978 103.7230014 124.6768282  27.0992339 104.3794496
 131.8549992  28.1019978 115.6340014 131.2029992  28.7959978 115.7230014
 132.3209992  28.3119978 114.8240014 131.8285937  28.2255019 115.5367533
 127.8919992  28.9329978 108.2920014 127.1599992  29.1619978 108.8650014
 128.3389992  28.2199978 108.7470014 127.8522753  28.8678972 108.4319715
 127.7889992  27.1079978 117.3600014 127.8689992  27.8709978 117.9310014
 127.1879992  27.3869978 116.6690014 127.7187245  27.2502630 117.3448424
 119.5369992  29.5639978 110.1740014 119.2069992  29.1929978 109.3560014
 120.1259992  28.8929978 110.5210014 119.5713970  29.4226063 110.1089404
 120.9039992  32.9919978 112.8560014 120.8089992  32.4129978 112.0990014
 121.6329992  32.6209978 113.3520014 120.9896161  32.8625891 112.8195209
 119.9039992  28.3319978 113.8080014 120.4689992  28.4539978 113.0450014
 120.2229992  28.9699978 114.4470014 120.0243977  28.4348851 113.7899424
 126.2129992  33.8359978 114.5420014 125.9729992  34.4979978 115.1900014
 126.0149992  33.0009978 114.9670014 126.1533826  33.8138115 114.6881566
 120.7839992  32.7319978 118.5250014 120.4729992  33.5139978 118.9800014
 120.1339992  32.5789978 117.8390014 120.6535538  32.8184087 118.4945898
 126.7629992  28.0959978 105.9770014 127.3419992  28.2459978 106.7240014
 127.1769992  28.5659978 105.2540014 126.8983122  28.1801277 105.9815042
 117.7039992  28.9299978 117.7540014 117.7739992  29.5809978 118.4520014
 116.8129992  29.0329978 117.4190014 117.5931802  29.0329757 117.8042249
 124.4889992  34.8319978 109.4120014 124.9629992  35.1279978 110.1900014
 123.9259992  35.5709978 109.1790014 124.4777361  34.9722721 109.4868611
 119.0229992  34.8029978 119.2880014 119.0309992  34.6669978 118.3410014
 118.1069992  34.6859978 119.5400014 118.9002528  34.7685463 119.1923243
 114.6209992  30.9959978 116.5790014 114.1189992  30.9679978 115.7640014
 114.6259992  30.0909978 116.8880014 114.5530416  30.8697368 116.5093766
 114.3709992  33.7769978 113.4630014 115.3169992  33.6319978 113.4440014
 114.2579992  34.5609978 114.0000014 114.4853578  33.8631697 113.5330317
 132.5689992  34.4429978 119.1450014 132.5189992  33.4869978 119.1080014
 131.7419992  34.7099978 119.5460014 132.4503987  34.3485174 119.1941446
 123.5469992  34.0169978 118.0210014 123.6349992  34.8429978 118.4960014
 122.6839992  33.6869978 118.2700014 123.4423357  34.0855468 118.1197653
 123.9619992  37.7889978 107.8270014 123.8859992  37.6679978 106.8810014
 123.9939992  38.7379978 107.9460014 123.9559156  37.9007530 107.7135048
 117.6149992  36.5779978 109.6080014 117.7669992  36.2299978 110.4870014
 116.7639992  36.2209978 109.3530014 117.5207899  36.4821738 109.6937340
 126.7319992  36.8689978 107.5790014 125.7969992  36.9689978 107.7570014
 127.0119992  36.1589978 108.1570014 126.6418173  36.7867239 107.6814998
 129.7209992  25.9359978 119.6250014 129.3129992  26.4159978 118.9050014
 129.7609992  25.0299978 119.3170014 129.6705476  25.8793160 119.4848247
 116.8699992  32.3199978 117.6220014 117.0859992  31.9579978 118.4810014
 116.0139992  31.9449978 117.4120014 116.7839354  32.2197906 117.7112160
 119.4879992  20.7899978 113.6170014 118.6269992  20.7029978 113.2100014
 119.4659992  21.6459978 114.0450014 119.3670411  20.8937884 113.6190857
 124.1509992  20.5119978 116.9920014 124.5709992  20.0969978 117.7450014
 123.2179992  20.3329978 117.1090014 124.0823736  20.4309910 117.1108968
 127.4779992  24.2669978 117.8450014 126.9639992  24.1419978 118.6430014
 127.3219992  25.1799978 117.6010014 127.3866967  24.3732123 117.9210937
 119.5789992  25.7549978 114.7120014 118.9379992  25.7149978 115.4210014
 119.6169992  26.6819978 114.4750014 119.4963670  25.8747795 114.7770550
 119.5759992  25.9759978 109.6240014 118.6839992  25.6359978 109.5660014
 120.0269992  25.5989978 108.8690014 119.5146815  25.8783762 109.5139203
 125.1119992  26.3919978 108.4410014 124.7029992  27.2069978 108.1500014
 125.8319992  26.2519978 107.8270014 125.1534013  26.4846571 108.3180875
 124.2139992  26.5679978 119.9290014 123.6509992  25.8629978 120.2500014
 125.0399992  26.4469978 120.3970014 124.2486674  26.4552165 120.0361751
 126.1169992  25.8379978 111.2550014 125.9209992  26.4439978 110.5400014
 126.2979992  25.0049978 110.8210014 126.1146584  25.8082513 111.0984212
 117.3289992  26.0759978 116.5790014 117.2909992  26.4759978 117.4480014
 116.8389992  25.2589978 116.6700014 117.2575621  26.0202510 116.7101377
 113.9379992  23.1919978 110.4300014 114.5679992  23.1629978 111.1490014
 114.3869992  22.7669978 109.7000014 114.0850692  23.1305316 110.4297771
 115.2119992  23.9379978 105.8540014 115.6859992  24.5289978 105.2690014
 114.4939992  24.4679978 106.2010014 115.1798640  24.0905511 105.8207969
 125.3809992  27.4759978 115.9270014 125.7039992  26.8449978 115.2840014
 124.9399992  26.9419978 116.5870014 125.3655789  27.3173522 115.9282232
 122.1579992  23.4039978 110.7110014 121.2469992  23.4609978 110.9990014
 122.6629992  23.3439978 111.5210014 122.1015387  23.4036870 110.8600646
 116.9859992  25.0329978 109.5370014 116.0969992  25.1319978 109.1970014
 117.2829992  24.1909978 109.1910014 116.9044177  24.9327687 109.4436940
 120.6389992  25.0329978 107.1940014 121.5709992  25.1619978 107.3720014
 120.4239992  25.7019978 106.5440014 120.7374472  25.1410806 107.1304891
 126.5629992  22.6389978 113.9750014 125.8859992  22.7699978 114.6390014
 126.0779992  22.4839978 113.1650014 126.4047265  22.6359659 113.9563397
 129.8509992  38.3099978 120.2520014 130.0499992  38.7339978 119.4170014
 130.5059992  38.6539978 120.8590014 129.9668501  38.4146091 120.2197097
 117.4489992  30.7839978 119.8600014 118.1809992  31.0389978 120.4210014
 116.6679992  30.9889978 120.3750014 117.4437684  30.8466468 120.0064782
 123.4779992  26.1909978 112.5980014 124.0419992  25.6449978 112.0510014
 123.3299992  25.6699978 113.3860014 123.5352575  26.0456552 112.6296987
 118.4799992  22.3279978 109.0160014 118.1629992  21.4249978 108.9810014
 119.2609992  22.3299978 108.4630014 118.5422307  22.2046951 108.9364314
 122.1039992  24.5799978 115.0120014 121.2689992  25.0339978 115.1220014
 122.6279992  24.8559978 115.7640014 122.0605070  24.6794666 115.1287152
 122.6489992  30.7929978 106.6960014 121.9039992  30.2849978 106.3740014
 122.5139992  30.8419978 107.6430014 122.5289047  30.7301596 106.7798845
 129.7989992  29.9259978 115.4830014 130.4399992  30.3819978 114.9390014
 128.9679992  30.0389978 115.0210014 129.7745171  30.0037502 115.3460237
 124.1679992  30.9769978 117.9330014 123.8219992  30.5949978 118.7400014
 123.9679992  31.9099978 118.0050014 124.0936523  31.0509095 118.0530735
 127.2649992  25.4739978 106.5560014 128.1569992  25.3359978 106.8750014
 127.3209992  26.2649978 106.0200014 127.3947107  25.5620526 106.5272091
 117.7729992  30.0879978 112.4660014 118.5179992  30.0849978 111.8650014
 117.8509992  29.2639978 112.9480014 117.8854158  29.9762916 112.4489153
 114.7809992  28.5479978 117.7810014 115.0039992  28.1299978 118.6130014
 114.1789992  27.9359978 117.3580014 114.7301260  28.4079933 117.8377320
 121.7979992  28.0649978 119.9940014 121.5019992  27.8999978 119.0990014
 122.7289992  27.8449978 119.9830014 121.8833982  28.0126578 119.8700045
 126.4179992  33.4389978 117.8840014 125.5179992  33.6219978 117.6160014
 126.4519992  33.6979978 118.8050014 126.2992909  33.4990815 117.9717852
 132.1499992  25.6829978 106.2510014 131.5949992  25.2869978 105.5790014
 132.2499992  26.5939978 105.9730014 132.0875888  25.7518990 106.1215206
 132.1129992  31.4839978 119.0880014 131.2619992  31.7219978 118.7210014
 132.7029992  31.4669978 118.3350014 132.0762408  31.5142966 118.9358879
 130.4449992  34.4689978 106.7160014 130.0719992  33.6439978 107.0250014
 130.7219992  34.2859978 105.8190014 130.4313871  34.3312441 106.6369677
 127.6049992  29.2769978 113.7370014 126.6769992  29.0459978 113.7100014
 128.0559992  28.4999978 113.4070014 127.5388165  29.1402774 113.6886790
 120.1479992  33.6059978 109.8700014 120.6759992  34.3789978 109.6700014
 119.2679992  33.8299978 109.5690014 120.1013176  33.7423161 109.8018409
 121.5759992  31.2689978 109.4470014 121.3349992  32.1939978 109.4880014
 120.8349992  30.8099978 109.8430014 121.4428390  31.3336403 109.5061404
 122.0899992  35.4179978 115.7620014 122.4529992  36.2719978 115.5280014
 122.6219992  35.1259978 116.5020014 122.2116090  35.4954058 115.8300219
 120.2589992  36.2899978 108.9920014 119.3089992  36.3959978 109.0430014
 120.6109992  37.1109978 109.3370014 120.1765480  36.4154438 109.0455999
 125.6339992  31.5169978 115.4620014 125.2089992  31.2889978 116.2890014
 126.2149992  30.7779978 115.2800014 125.6543930  31.3859843 115.5504732
 128.2929992  36.0689978 117.9320014 127.6909992  35.5129978 117.4360014
 128.5739992  36.7359978 117.3060014 128.2486829  36.0831613 117.7795443
 116.4149992  23.3019978 117.3390014 115.5229992  23.6399978 117.2720014
 116.3169992  22.4459978 117.7570014 116.2794965  23.2326499 117.3863044
 128.7029992  31.1179978 106.7630014 128.4259992  30.3899978 107.3190014
 129.6309992  31.2369978 106.9680014 128.7904499  31.0344213 106.8668044
 116.0669992  35.1059978 115.7740014 116.2839992  34.1739978 115.7430014
 116.3129992  35.3809978 116.6570014 116.1299809  35.0155686 115.8891690
 120.8649992  33.1279978 105.4400014 121.0119992  32.6079978 106.2300014
 120.8619992  34.0349978 105.7460014 120.8847300  33.1793964 105.5895895
 125.1499992  23.0429978 116.2290014 125.8489992  23.1169978 116.8790014
 124.7689992  22.1779978 116.3830014 125.1942097  22.9362389 116.3387997
 125.9339992  22.6949978 107.3260014 126.1539992  23.1659978 106.5230014
 126.4929992  23.0889978 107.9960014 126.0396730  22.8127432 107.3065906
 123.1339992  24.4229978 108.1610014 123.9459992  24.9269978 108.2070014
 122.8899992  24.2779978 109.0750014 123.2121467  24.4723749 108.2908575
 123.6699992  25.4089978 117.3460014 123.7889992  25.9829978 118.1030014
 124.3249992  24.7209978 117.4600014 123.7749146  25.3945574 117.4651314
 124.0179992  21.5039978 109.0990014 123.6709992  22.1209978 109.7440014
 124.6769992  22.0049978 108.6180014 124.0595949  21.6561099 109.1222271
 120.9409992  35.8689978 106.1710014 121.1019992  36.6689978 105.6700014
 120.7439992  36.1759978 107.0560014 120.9363919  36.0199129 106.2221006
 119.6759992  22.5669978 105.7860014 119.5919992  23.4549978 106.1330014
 120.5659992  22.3019978 106.0180014 119.7848163  22.6527179 105.8648596
 129.8739992  23.3159978 118.1810014 128.9579992  23.5779978 118.0930014
 130.2099992  23.3129978 117.2840014 129.7939789  23.3514626 118.0477847
 128.4769992  27.0659978 112.2760014 127.6789992  26.6509978 111.9480014
 128.9219992  26.3759978 112.7670014 128.4279684  26.9158628 112.2975227
 117.9339992  32.9939978 104.8470014 118.5259992  33.6939978 105.1230014
 118.3929992  32.5609978 104.1270014 118.0770791  33.0312908 104.7874607
 129.5629992  36.3219978 113.8990014 129.4069992  37.0009978 113.2420014
 130.4959992  36.3939978 114.1020014 129.6677387  36.4246390 113.8365342
 117.0579992  20.4399978 112.6360014 116.8289992  20.4989978 111.7080014
 116.6159992  19.6489978 112.9420014 116.9668801  20.3410540 112.5504729
 115.9889992  34.3809978 108.7960014 115.1559992  34.8529978 108.8240014
 116.5339992  34.8909978 108.1980014 115.9487590  34.5145897 108.7189194
 115.2769992  36.9929978 120.1260014 115.8169992  36.7769978 120.8860014
 114.7959992  36.1879978 119.9370014 115.2858613  36.8545400 120.2044782
 119.8739992  35.9129978 121.7470014 120.6419992  35.4539978 122.0880014
 119.8529992  35.6869978 120.8170014 119.9762135  35.8196668 121.6679491
 126.4509992  34.2929978 120.4760014 126.0999992  33.4359978 120.7190014
 127.1769992  34.4349978 121.0830014 126.5011590  34.1950178 120.5912907
 115.1839992  30.8039978 121.0810014 115.3279992  29.9019978 120.7940014
 114.4119992  31.0899978 120.5930014 115.0993303  30.7193243 120.9757908
 121.8389992  30.7729978 120.5130014 121.5109992  31.0439978 119.6560014
 121.9909992  29.8319978 120.4260014 121.8146030  30.6828973 120.3837945
 127.5739992  30.6889978 117.8970014 128.3189992  31.2779978 117.7770014
 126.8169992  31.2709978 117.9600014 127.5735205  30.8481997 117.8891119
 116.0169992  28.0039978 120.5010014 116.4249992  27.1469978 120.3800014
 115.7559992  28.0179978 121.4220014 116.0376016  27.8885119 120.6089192
 119.9639992  27.0129978 117.8750014 119.3449992  27.6869978 118.1550014
 120.3079992  27.3339978 117.0420014 119.9257605  27.1487198 117.8006707
 121.7459992  27.3629978 103.7810014 121.5649992  27.2079978 102.8540014
 122.6959992  27.4709978 103.8260014 121.8496566  27.3563669 103.6600929
 124.9829992  29.4839978 121.1520014 125.9369992  29.5679978 121.1250014
 124.8229992  28.7719978 121.7720014 125.0917182  29.3992842 121.2320733
 120.3029992  24.3679978 118.9570014 120.4529992  23.6389978 118.3550014
 120.3049992  25.1449978 118.3980014 120.3237967  24.3732708 118.7990541
 120.7159992  22.7369978 116.4500014 121.2509992  23.1889978 115.7980014
 119.8629992  22.6289978 116.0270014 120.6740374  22.7842665 116.3036710
 122.2969992  28.1769978 116.6890014 123.0479992  28.0209978 116.1160014
 121.9579992  29.0289978 116.4140014 122.3539587  28.2708138 116.5734078
 126.7129992  25.9919978 121.7180014 126.9049992  25.0609978 121.6060014
 127.5709992  26.4169978 121.7080014 126.8552269  25.9219928 121.7013192
 128.0299992  28.7809978 119.7950014 127.7479992  29.4899978 119.2180014
 128.9719992  28.7079978 119.6440014 128.1187656  28.8683128 119.6954809
 118.7819992  25.5659978 120.8690014 118.0139992  25.0329978 120.6590014
 119.4599992  25.2559978 120.2690014 118.7686973  25.4512375 120.7591796
 121.5209992  20.1939978 116.8810014 121.4229992  21.1399978 116.7760014
 120.7789992  19.8209978 116.4060014 121.4071913  20.2731813 116.8023539
 122.7849992  24.5149978 120.4450014 122.5499992  24.2959978 121.3470014
 122.0019992  24.3079978 119.9350014 122.6469219  24.4570066 120.4995852
 125.5009992  23.6429978 119.5210014 124.5529992  23.6749978 119.6530014
 125.8129992  23.0169978 120.1740014 125.4135190  23.5627262 119.6273564
 127.1349992  22.2769978 121.5260014 127.0379992  21.3249978 121.5200014
 126.8129992  22.5449978 122.3860014 127.0781761  22.1829744 121.6414936
 116.9619992  23.4859978 120.5730014 117.1739992  22.7799978 119.9630014
 116.8509992  23.0489978 121.4170014 116.9760269  23.3301921 120.6035873
 121.7429992  19.4879978 119.5530014 122.4549992  18.8479978 119.5390014
 121.6419992  19.7539978 118.6390014 121.8267261  19.4364190 119.4275537
 122.0969992  21.1699978 121.6060014 121.9649992  20.6949978 120.7860014
 121.4969992  21.9149978 121.5510014 121.9979070  21.2055789 121.4863251
 121.6429992  38.0529978 104.7830014 122.5759992  38.2109978 104.9260014
 121.3789992  38.7289978 104.1580014 121.7349308  38.1659104 104.7181396
 113.8599992  38.0829978 109.3430014 113.2129992  37.6209978 108.8100014
 114.2149992  37.4109978 109.9250014 113.8194506  37.9289503 109.3487341
 114.7299992  36.1629978 111.1470014 114.3959992  35.2829978 111.3190014
 114.9529992  36.5089978 112.0120014 114.7143721  36.0891938 111.2874168
 132.2789992  36.9729978 114.1280014 132.2569992  37.1579978 115.0670014
 132.9689992  37.5409978 113.7870014 132.3693439  37.0751887 114.2104791
 131.8419992  36.5399978 117.0500014 131.3549992  35.8049978 116.6790014
 132.3909992  36.1459978 117.7280014 131.8495247  36.3861057 117.0908461
 130.2929992  32.3299978 121.6880014 129.4269992  32.2249978 122.0820014
 130.6689992  33.0879978 122.1340014 130.2253401  32.4181708 121.8022620
 131.5939992  30.5859978 107.2020014 132.4439992  31.0069978 107.3290014
 131.5989992  29.8459978 107.8090014 131.7111143  30.5436094 107.3014750
 131.9879992  28.6399978 109.0260014 131.2619992  28.1599978 109.4230014
 132.5699992  28.8449978 109.7580014 131.9671635  28.6019166 109.1793748
 131.7469992  31.4249978 113.9730014 132.5809992  31.0469978 113.6930014
 131.8589992  32.3679978 113.8540014 131.8762522  31.5007742 113.9186020
 130.2339992  34.3029978 116.2800014 129.5859992  34.6279978 116.9060014
 129.7159992  33.8619978 115.6060014 130.0754168  34.2878523 116.2745307
 132.2569992  28.5409978 105.4170014 131.7349992  28.8969978 104.6980014
 132.2239992  29.2159978 106.0950014 132.1810699  28.6809848 105.4102129
 129.7749992  27.1609978 109.5890014 129.6249992  26.2159978 109.5680014
 129.4209992  27.4419978 110.4320014 129.7065527  27.0695605 109.7001859
 114.8099992  29.2389978 113.5990014 114.9949992  29.1569978 112.6630014
 115.6599992  29.1149978 114.0230014 114.9500916  29.2110393 113.5282896
 130.6309992  29.1309978 119.2270014 131.2139992  28.3959978 119.4190014
 131.1949992  29.9029978 119.2740014 130.7869781  29.1348145 119.2596164
 132.1279992  27.0339978 119.9120014 131.2649992  26.6549978 119.7460014
 132.7319992  26.2949978 119.8380014 132.0915944  26.8822978 119.8792984
 129.4859992  24.7429978 108.0510014 129.7649992  23.8359978 108.1750014
 130.2449992  25.1769978 107.6620014 129.6268619  24.6774502 108.0153795
 130.0969992  25.3249978 113.4870014 131.0299992  25.5369978 113.4530014
 129.8619992  25.4259978 114.4090014 130.1928308  25.3676503 113.6070214
 130.1269992  26.0619978 116.2630014 129.2839992  26.3299978 116.6290014
 130.5689992  26.8839978 116.0520014 130.0714138  26.2098273 116.2845518
 114.4079992  24.5089978 119.7400014 115.3269992  24.3869978 119.9760014
 113.9579992  23.7589978 120.1290014 114.4731148  24.3908751 119.8249408
 132.4099992  20.0419978 121.6160014 132.7589992  19.3879978 121.0110014
 132.5569992  20.8789978 121.1770014 132.4777355  20.0656067 121.4736564
 130.0989992  22.0059978 108.0990014 130.2809992  21.5569978 108.9250014
 129.4989992  21.4219978 107.6360014 130.0427529  21.8656131 108.1493619
 115.6289992  22.8219978 112.6310014 116.0739992  22.0299978 112.9330014
 116.0949992  23.5379978 113.0620014 115.7529059  22.8104474 112.7306079
 113.9329992  25.8209978 113.7000014 114.4249992  25.5999978 112.9090014
 114.2949992  26.6609978 113.9810014 114.0492923  25.9043468 113.6297407
 131.9289992  22.1509978 119.9660014 131.0119992  22.4219978 119.9300014
 132.0519992  21.6159978 119.1820014 131.8200828  22.1157700 119.8550785
 131.9659992  22.0739978 104.6270014 132.3779992  21.3529978 104.1520014
 132.6469992  22.7429978 104.6860014 132.1145900  22.0657306 104.5699038
 114.2469992  22.0789978 107.7540014 113.3219992  22.2869978 107.6250014
 114.7009992  22.5629978 107.0650014 114.1816374  22.1729949 107.6430957
 129.0169992  37.0629978 109.7000014 129.6699992  36.7149978 109.0920014
 129.5279992  37.5509978 110.3460014 129.1752777  37.0813815 109.7042047
 114.2099992  20.8169978 116.0990014 113.5449992  20.5709978 116.7420014
 113.7669992  21.4389978 115.5210014 114.0590937  20.8673614 116.1089379
 116.4019992  33.9919978 120.2430014 115.5809992  34.1669978 119.7830014
 116.1499992  33.9189978 121.1640014 116.2556173  34.0060794 120.3044972
 119.3559992  34.9659978 116.5020014 118.9319992  35.7759978 116.2190014
 120.2609992  35.0519978 116.2000014 119.4202433  35.0883331 116.4225377
 123.6679992  36.3649978 119.4610014 123.8519992  36.0319978 120.3390014
 124.5139992  36.6749978 119.1390014 123.8076484  36.3612979 119.5377617
 126.0129992  37.6509978 118.7050014 126.6899992  37.0179978 118.4650014
 126.3339992  38.0519978 119.5120014 126.1491323  37.6185691 118.7813158
 130.9299992  20.2409978 117.7850014 130.1169992  20.5659978 117.3970014
 131.1629992  19.4799978 117.2520014 130.8502566  20.1826559 117.6599213
 116.7579992  38.2229978 116.5490014 116.0379992  38.6629978 116.0980014
 116.3929992  37.9719978 117.3980014 116.6099796  38.2493824 116.6019329
 119.2249992  37.8229978 115.5790014 118.3609992  37.8949978 115.9830014
 119.1699992  38.3699978 114.7950014 119.0991942  37.9067849 115.5284000
 123.9359992  37.7109978 114.7540014 123.4789992  38.2399978 114.1000014
 124.0989992  38.3139978 115.4800014 123.8954476  37.8649140 114.7625499
 126.2639992  36.5889978 115.6990014 125.3589992  36.7539978 115.4340014
 126.6919992  37.4419978 115.6340014 126.1980700  36.7269529 115.6539520
 128.8679992  38.1589978 115.9940014 128.6859992  39.0749978 115.7840014
 129.0449992  37.7479978 115.1480014 128.8669907  38.2289741 115.8507883
 116.1729992  36.8459978 113.4590014 116.1549992  36.4199978 114.3170014
 116.9779992  36.5269978 113.0510014 116.2793221  36.7447233 113.5210225
 118.3139992  35.5559978 112.1140014 118.0949992  34.6389978 112.2840014
 119.1379992  35.6959978 112.5800014 118.3954702  35.4495511 112.2002527
 120.8509992  36.0259978 112.9630014 121.0639992  35.1379978 112.6760014
 120.9159992  35.9909978 113.9180014 120.8889075  35.8998307 113.0527373
 124.3599992  21.6899978 112.1070014 123.6859992  21.0599978 112.3630014
 124.9239992  21.2059978 111.5040014 124.3440384  21.5383708 112.0605020
 129.5029992  19.7969978 112.2200014 130.1059992  20.3449978 111.7180014
 128.6329992  20.1159978 111.9800014 129.4679190  19.9151041 112.1188679
 131.2299992  20.9359978 110.5530014 131.8409992  20.4219978 110.0270014
 131.6119992  21.8129978 110.5770014 131.3654475  20.9841323 110.4841208
 116.6869992  20.3239978 109.9290014 115.9099992  20.0889978 109.4220014
 117.2169992  19.5269978 109.9380014 116.6523451  20.1841268 109.8608627
 115.5229992  20.1219978 105.7330014 115.9619992  20.7329978 105.1410014
 114.8889992  20.6599978 106.2070014 115.4973859  20.2784064 105.7160305
 121.2659992  20.2499978 109.7430014 122.1399992  20.6389978 109.7130014
 121.1299992  20.0349978 110.6650014 121.3673207  20.2741923 109.8636509
 126.8229992  20.2799978 111.3920014 126.8989992  20.3759978 110.4430014
 126.5479992  19.3729978 111.5210014 126.7962042  20.1704241 111.2793811
 128.1759992  20.3059978 107.0840014 127.4729992  20.9209978 106.8750014
 127.7309992  19.4689978 107.2160014 128.0196292  20.2770085 107.0732439
 115.4239992  36.0699978 106.6310014 114.7389992  36.0319978 105.9630014
 115.4279992  36.9829978 106.9190014 115.3308174  36.1881998 106.5785310
 117.3839992  22.0379978 104.1750014 117.8749992  21.4079978 103.6480014
 118.0069992  22.3339978 104.8390014 117.5355062  21.9916770 104.1925438
 122.4099992  22.3309978 106.6330014 122.5879992  21.6839978 107.3150014
 122.3559992  23.1649978 107.1000014 122.4271025  22.3550504 106.7896433
 130.9969992  36.8419978 107.7070014 130.8029992  36.0939978 107.1420014
 130.9579992  37.5999978 107.1240014 130.9651645  36.8420786 107.5508148
 116.6439992  20.8379978 119.4470014 116.2779992  20.0719978 119.8900014
 117.5569992  20.8669978 119.7340014 116.7173225  20.7371906 119.5463459
 118.6169992  20.1879978 120.9830014 119.5159992  19.9139978 120.7980014
 118.2309992  19.4459978 121.4470014 118.6877237  20.0501508 121.0204710
 127.0389992  19.5209978 121.1650014 127.1149992  19.0949978 122.0190014
 127.9319992  19.5339978 120.8220014 127.1702267  19.4643952 121.2355932
 130.2149992  35.5939978 119.8570014 129.4329992  35.4069978 119.3380014
 130.1429992  36.5229978 120.0750014 130.0980863  35.6940221 119.8153574
 144.6209992  29.4799978 109.8880014 144.7099992  30.4239978 109.7560014
 143.9829992  29.2049978 109.2300014 144.5469062  29.5719812 109.7809641
 143.5539992  28.7349978 113.3070014 143.5159992  28.0889978 114.0120014
 143.2319992  28.2679978 112.5360014 143.5052679  28.5834276 113.2992921
 135.9219992  28.3489978 114.9000014 135.9639992  27.7239978 115.6230014
 136.6249992  28.9729978 115.0820014 136.0227345  28.3477873 115.0235274
 136.8459992  32.7989978 113.4350014 136.4759992  31.9969978 113.0650014
 137.7869992  32.6309978 113.4810014 136.9225984  32.6664638 113.3905603
 133.4559992  26.4589978 108.8280014 133.0079992  27.3049978 108.8090014
 132.8949992  25.8799978 108.3120014 133.3189603  26.4963674 108.7556720
 134.1659992  28.6209978 110.9540014 134.3799992  27.8509978 111.4810014
 134.9039992  28.7109978 110.3500014 134.2949652  28.5278012 110.9445212
 144.3719992  36.7779978 111.8210014 144.9909992  36.1019978 111.5470014
 144.1629992  36.5599978 112.7290014 144.4286232  36.6557938 111.9062517
 141.9429992  31.1669978 113.7130014 142.2469992  30.4809978 113.1190014
 142.6649992  31.2859978 114.3310014 142.0821152  31.0892189 113.7152123
 145.0839992  25.5609978 114.0410014 145.2269992  24.6149978 114.0610014
 144.9779992  25.7679978 113.1120014 145.0892509  25.4594813 113.9182231
 138.2389992  23.6629978 111.3130014 138.2819992  24.5229978 110.8950014
 137.7809992  23.1109978 110.6790014 138.1829815  23.7060621 111.1701197
 134.8589992  26.0599978 112.0750014 135.5129992  25.5099978 112.5070014
 134.8829992  25.7859978 111.1580014 134.9517199  25.9477167 112.0101668
 140.0159992  27.6099978 111.2900014 140.6319992  27.0829978 111.8000014
 139.4289992  26.9699978 110.8870014 140.0209239  27.4514117 111.3052952
 137.0489992  22.5809978 115.3870014 136.8299992  23.1109978 114.6210014
 136.3809992  22.8069978 116.0340014 136.9287001  22.6841154 115.3696064
 144.4179992  32.0809978 108.9310014 144.1229992  31.7579978 108.0800014
 144.0939992  32.9809978 108.9720014 144.3337983  32.1584026 108.8199771
 139.6179992  30.2559978 115.6750014 138.8779992  30.8549978 115.7780014
 140.3319992  30.8099978 115.3590014 139.6133288  30.4127356 115.6463805
 136.6429992  24.4729978 113.3390014 137.2569992  25.1059978 113.7130014
 137.1549992  24.0009978 112.6830014 136.7962277  24.4957352 113.3014279
 138.0259992  32.2209978 116.4620014 138.0199992  33.0999978 116.0840014
 137.1719992  32.1369978 116.8870014 137.9097925  32.3299535 116.4676887
 141.0759992  19.8859978 112.8400014 140.9579992  18.9379978 112.7850014
 140.2209992  20.2189978 113.1130014 140.9442679  19.8011926 112.8693720
 143.3419992  28.7239978 107.3400014 142.6309992  29.2589978 106.9880014
 144.0329992  28.7789978 106.6800014 143.3380751  28.8046777 107.2025858
 138.3929992  29.5639978 110.1740014 138.0629992  29.1929978 109.3560014
 138.9819992  28.8929978 110.5210014 138.4273970  29.4226063 110.1089404
 139.7599992  32.9919978 112.8560014 139.6649992  32.4129978 112.0990014
 140.4889992  32.6209978 113.3520014 139.8456161  32.8625891 112.8195209
 138.7599992  28.3319978 113.8080014 139.3249992  28.4539978 113.0450014
 139.0789992  28.9699978 114.4470014 138.8803977  28.4348851 113.7899424
 145.0689992  33.8359978 114.5420014 144.8289992  34.4979978 115.1900014
 144.8709992  33.0009978 114.9670014 145.0093826  33.8138115 114.6881566
 139.6399992  32.7319978 118.5250014 139.3289992  33.5139978 118.9800014
 138.9899992  32.5789978 117.8390014 139.5095538  32.8184087 118.4945898
 136.5599992  28.9299978 117.7540014 136.6299992  29.5809978 118.4520014
 135.6689992  29.0329978 117.4190014 136.4491802  29.0329757 117.8042249
 143.3449992  34.8319978 109.4120014 143.8189992  35.1279978 110.1900014
 142.7819992  35.5709978 109.1790014 143.3337361  34.9722721 109.4868611
 137.8789992  34.8029978 119.2880014 137.8869992  34.6669978 118.3410014
 136.9629992  34.6859978 119.5400014 137.7562528  34.7685463 119.1923243
 137.3839992  28.6329978 107.7640014 137.0919992  29.4009978 107.2730014
 136.7089992  27.9739978 107.6010014 137.2528497  28.6489745 107.6748260
 133.4769992  30.9959978 116.5790014 132.9749992  30.9679978 115.7640014
 133.4819992  30.0909978 116.8880014 133.4090416  30.8697368 116.5093766
 133.2269992  33.7769978 113.4630014 134.1729992  33.6319978 113.4440014
 133.1139992  34.5609978 114.0000014 133.3413578  33.8631697 113.5330317
 142.4029992  34.0169978 118.0210014 142.4909992  34.8429978 118.4960014
 141.5399992  33.6869978 118.2700014 142.2983357  34.0855468 118.1197653
 142.8179992  37.7889978 107.8270014 142.7419992  37.6679978 106.8810014
 142.8499992  38.7379978 107.9460014 142.8119156  37.9007530 107.7135048
 136.4709992  36.5779978 109.6080014 136.6229992  36.2299978 110.4870014
 135.6199992  36.2209978 109.3530014 136.3767899  36.4821738 109.6937340
 135.7259992  32.3199978 117.6220014 135.9419992  31.9579978 118.4810014
 134.8699992  31.9449978 117.4120014 135.6399354  32.2197906 117.7112160
 138.3439992  20.7899978 113.6170014 137.4829992  20.7029978 113.2100014
 138.3219992  21.6459978 114.0450014 138.2230411  20.8937884 113.6190857
 143.0069992  20.5119978 116.9920014 143.4269992  20.0969978 117.7450014
 142.0739992  20.3329978 117.1090014 142.9383736  20.4309910 117.1108968
 138.4349992  25.7549978 114.7120014 137.7939992  25.7149978 115.4210014
 138.4729992  26.6819978 114.4750014 138.3523670  25.8747795 114.7770550
 138.4319992  25.9759978 109.6240014 137.5399992  25.6359978 109.5660014
 138.8829992  25.5989978 108.8690014 138.3706815  25.8783762 109.5139203
 143.9679992  26.3919978 108.4410014 143.5589992  27.2069978 108.1500014
 144.6879992  26.2519978 107.8270014 144.0094013  26.4846571 108.3180875
 143.0699992  26.5679978 119.9290014 142.5069992  25.8629978 120.2500014
 143.8959992  26.4469978 120.3970014 143.1046674  26.4552165 120.0361751
 144.9729992  25.8379978 111.2550014 144.7769992  26.4439978 110.5400014
 145.1539992  25.0049978 110.8210014 144.9706584  25.8082513 111.0984212
 136.1849992  26.0759978 116.5790014 136.1469992  26.4759978 117.4480014
 135.6949992  25.2589978 116.6700014 136.1135621  26.0202510 116.7101377
 139.5509992  23.4499978 103.3780014 139.1199992  23.0049978 104.1080014
 138.8329992  23.8209978 102.8660014 139.3949363  23.4392968 103.4086211
 132.7939992  23.1919978 110.4300014 133.4239992  23.1629978 111.1490014
 133.2429992  22.7669978 109.7000014 132.9410692  23.1305316 110.4297771
 134.0679992  23.9379978 105.8540014 134.5419992  24.5289978 105.2690014
 133.3499992  24.4679978 106.2010014 134.0358640  24.0905511 105.8207969
 144.2369992  27.4759978 115.9270014 144.5599992  26.8449978 115.2840014
 143.7959992  26.9419978 116.5870014 144.2215789  27.3173522 115.9282232
 141.0139992  23.4039978 110.7110014 140.1029992  23.4609978 110.9990014
 141.5189992  23.3439978 111.5210014 140.9575387  23.4036870 110.8600646
 135.8419992  25.0329978 109.5370014 134.9529992  25.1319978 109.1970014
 136.1389992  24.1909978 109.1910014 135.7604177  24.9327687 109.4436940
 139.4949992  25.0329978 107.1940014 140.4269992  25.1619978 107.3720014
 139.2799992  25.7019978 106.5440014 139.5934472  25.1410806 107.1304891
 145.4189992  22.6389978 113.9750014 144.7419992  22.7699978 114.6390014
 144.9339992  22.4839978 113.1650014 145.2607265  22.6359659 113.9563397
 136.3049992  30.7839978 119.8600014 137.0369992  31.0389978 120.4210014
 135.5239992  30.9889978 120.3750014 136.2997684  30.8466468 120.0064782
 142.3339992  26.1909978 112.5980014 142.8979992  25.6449978 112.0510014
 142.1859992  25.6699978 113.3860014 142.3912575  26.0456552 112.6296987
 137.3359992  22.3279978 109.0160014 137.0189992  21.4249978 108.9810014
 138.1169992  22.3299978 108.4630014 137.3982307  22.2046951 108.9364314
 140.9599992  24.5799978 115.0120014 140.1249992  25.0339978 115.1220014
 141.4839992  24.8559978 115.7640014 140.9165070  24.6794666 115.1287152
 141.5049992  30.7929978 106.6960014 140.7599992  30.2849978 106.3740014
 141.3699992  30.8419978 107.6430014 141.3849047  30.7301596 106.7798845
 145.4019992  23.6069978 104.8960014 144.4639992  23.7179978 104.7440014
 145.6999992  24.4629978 105.2020014 145.3136402  23.7380621 104.9165571
 143.0239992  30.9769978 117.9330014 142.6779992  30.5949978 118.7400014
 142.8239992  31.9099978 118.0050014 142.9496523  31.0509095 118.0530735
 136.6289992  30.0879978 112.4660014 137.3739992  30.0849978 111.8650014
 136.7069992  29.2639978 112.9480014 136.7414158  29.9762916 112.4489153
 143.6299992  32.2509978 105.7220014 143.3349992  33.0779978 106.1030014
 142.9269992  31.6319978 105.9180014 143.4945471  32.2805227 105.8006698
 133.6369992  28.5479978 117.7810014 133.8599992  28.1299978 118.6130014
 133.0349992  27.9359978 117.3580014 133.5861260  28.4079933 117.8377320
 140.6539992  28.0649978 119.9940014 140.3579992  27.8999978 119.0990014
 141.5849992  27.8449978 119.9830014 140.7393982  28.0126578 119.8700045
 145.2739992  33.4389978 117.8840014 144.3739992  33.6219978 117.6160014
 145.3079992  33.6979978 118.8050014 145.1552909  33.4990815 117.9717852
 139.0039992  33.6059978 109.8700014 139.5319992  34.3789978 109.6700014
 138.1239992  33.8299978 109.5690014 138.9573176  33.7423161 109.8018409
 134.7589992  28.4679978 104.4580014 135.3749992  29.0949978 104.8370014
 133.8969992  28.7839978 104.7290014 134.7268195  28.5965798 104.5465386
 140.4319992  31.2689978 109.4470014 140.1909992  32.1939978 109.4880014
 139.6909992  30.8099978 109.8430014 140.2988390  31.3336403 109.5061404
 140.9459992  35.4179978 115.7620014 141.3089992  36.2719978 115.5280014
 141.4779992  35.1259978 116.5020014 141.0676090  35.4954058 115.8300219
 139.1149992  36.2899978 108.9920014 138.1649992  36.3959978 109.0430014
 139.4669992  37.1109978 109.3370014 139.0325480  36.4154438 109.0455999
 144.4899992  31.5169978 115.4620014 144.0649992  31.2889978 116.2890014
 145.0709992  30.7779978 115.2800014 144.5103930  31.3859843 115.5504731
 135.2709992  23.3019978 117.3390014 134.3789992  23.6399978 117.2720014
 135.1729992  22.4459978 117.7570014 135.1354965  23.2326499 117.3863044
 134.9229992  35.1059978 115.7740014 135.1399992  34.1739978 115.7430014
 135.1689992  35.3809978 116.6570014 134.9859809  35.0155686 115.8891691
 139.7209992  33.1279978 105.4400014 139.8679992  32.6079978 106.2300014
 139.7179992  34.0349978 105.7460014 139.7407300  33.1793964 105.5895895
 136.1739992  30.3799978 105.9500014 135.4879992  30.7329978 106.5170014
 136.6969992  31.1429978 105.7040014 136.1509033  30.5313746 105.9942661
 144.0059992  23.0429978 116.2290014 144.7049992  23.1169978 116.8790014
 143.6249992  22.1779978 116.3830014 144.0502097  22.9362389 116.3387997
 144.7899992  22.6949978 107.3260014 145.0099992  23.1659978 106.5230014
 145.3489992  23.0889978 107.9960014 144.8956730  22.8127432 107.3065906
 142.4589992  34.8249978 106.1890014 141.6419992  35.3219978 106.2410014
 142.9879992  35.3009978 105.5490014 142.4188508  34.9572543 106.1096035
 141.9899992  24.4229978 108.1610014 142.8019992  24.9269978 108.2070014
 141.7459992  24.2779978 109.0750014 142.0681467  24.4723749 108.2908575
 142.5259992  25.4089978 117.3460014 142.6449992  25.9829978 118.1030014
 143.1809992  24.7209978 117.4600014 142.6309146  25.3945574 117.4651314
 142.8739992  21.5039978 109.0990014 142.5269992  22.1209978 109.7440014
 143.5329992  22.0049978 108.6180014 142.9155949  21.6561099 109.1222271
 139.7969992  35.8689978 106.1710014 139.9579992  36.6689978 105.6700014
 139.5999992  36.1759978 107.0560014 139.7923919  36.0199129 106.2221006
 138.5319992  22.5669978 105.7860014 138.4479992  23.4549978 106.1330014
 139.4219992  22.3019978 106.0180014 138.6408163  22.6527179 105.8648596
 135.9139992  20.4399978 112.6360014 135.6849992  20.4989978 111.7080014
 135.4719992  19.6489978 112.9420014 135.8228801  20.3410540 112.5504729
 134.8449992  34.3809978 108.7960014 134.0119992  34.8529978 108.8240014
 135.3899992  34.8909978 108.1980014 134.8047590  34.5145897 108.7189194
 134.1329992  36.9929978 120.1260014 134.6729992  36.7769978 120.8860014
 133.6519992  36.1879978 119.9370014 134.1418613  36.8545400 120.2044782
 138.7299992  35.9129978 121.7470014 139.4979992  35.4539978 122.0880014
 138.7089992  35.6869978 120.8170014 138.8322135  35.8196668 121.6679491
 145.3069992  34.2929978 120.4760014 144.9559992  33.4359978 120.7190014
 146.0329992  34.4349978 121.0830014 145.3571590  34.1950178 120.5912907
 134.0399992  30.8039978 121.0810014 134.1839992  29.9019978 120.7940014
 133.2679992  31.0899978 120.5930014 133.9553303  30.7193243 120.9757908
 138.3809992  31.1469978 103.2130014 138.4459992  30.3529978 103.7440014
 139.0339992  31.0289978 102.5230014 138.4781754  31.0223337 103.1924259
 140.6949992  30.7729978 120.5130014 140.3669992  31.0439978 119.6560014
 140.8469992  29.8319978 120.4260014 140.6706030  30.6828973 120.3837945
 134.8729992  28.0039978 120.5010014 135.2809992  27.1469978 120.3800014
 134.6119992  28.0179978 121.4220014 134.8936016  27.8885119 120.6089192
 138.8199992  27.0129978 117.8750014 138.2009992  27.6869978 118.1550014
 139.1639992  27.3339978 117.0420014 138.7817605  27.1487198 117.8006707
 143.8389992  29.4839978 121.1520014 144.7929992  29.5679978 121.1250014
 143.6789992  28.7719978 121.7720014 143.9477182  29.3992842 121.2320733
 139.1589992  24.3679978 118.9570014 139.3089992  23.6389978 118.3550014
 139.1609992  25.1449978 118.3980014 139.1797967  24.3732708 118.7990541
 139.5719992  22.7369978 116.4500014 140.1069992  23.1889978 115.7980014
 138.7189992  22.6289978 116.0270014 139.5300374  22.7842665 116.3036710
 141.1529992  28.1769978 116.6890014 141.9039992  28.0209978 116.1160014
 140.8139992  29.0289978 116.4140014 141.2099587  28.2708138 116.5734078
 145.5689992  25.9919978 121.7180014 145.7609992  25.0609978 121.6060014
 146.4269992  26.4169978 121.7080014 145.7112269  25.9219928 121.7013192
 137.6379992  25.5659978 120.8690014 136.8699992  25.0329978 120.6590014
 138.3159992  25.2559978 120.2690014 137.6246973  25.4512375 120.7591796
 140.3769992  20.1939978 116.8810014 140.2789992  21.1399978 116.7760014
 139.6349992  19.8209978 116.4060014 140.2631913  20.2731813 116.8023539
 141.6409992  24.5149978 120.4450014 141.4059992  24.2959978 121.3470014
 140.8579992  24.3079978 119.9350014 141.5029219  24.4570066 120.4995852
 144.3569992  23.6429978 119.5210014 143.4089992  23.6749978 119.6530014
 144.6689992  23.0169978 120.1740014 144.2695190  23.5627262 119.6273564
 135.8179992  23.4859978 120.5730014 136.0299992  22.7799978 119.9630014
 135.7069992  23.0489978 121.4170014 135.8320269  23.3301921 120.6035873
 140.5989992  19.4879978 119.5530014 141.3109992  18.8479978 119.5390014
 140.4979992  19.7539978 118.6390014 140.6827261  19.4364190 119.4275537
 140.9529992  21.1699978 121.6060014 140.8209992  20.6949978 120.7860014
 140.3529992  21.9149978 121.5510014 140.8539070  21.2055789 121.4863251
 132.7159992  38.0829978 109.3430014 132.0689992  37.6209978 108.8100014
 133.0709992  37.4109978 109.9250014 132.6754506  37.9289503 109.3487341
 133.5859992  36.1629978 111.1470014 133.2519992  35.2829978 111.3190014
 133.8089992  36.5089978 112.0120014 133.5703721  36.0891938 111.2874168
 133.6659992  29.2389978 113.5990014 133.8509992  29.1569978 112.6630014
 134.5159992  29.1149978 114.0230014 133.8060916  29.2110393 113.5282896
 133.2639992  24.5089978 119.7400014 134.1829992  24.3869978 119.9760014
 132.8139992  23.7589978 120.1290014 133.3291148  24.3908751 119.8249408
 134.4849992  22.8219978 112.6310014 134.9299992  22.0299978 112.9330014
 134.9509992  23.5379978 113.0620014 134.6089059  22.8104474 112.7306079
 132.7889992  25.8209978 113.7000014 133.2809992  25.5999978 112.9090014
 133.1509992  26.6609978 113.9810014 132.9052923  25.9043468 113.6297407
 133.1029992  22.0789978 107.7540014 132.1779992  22.2869978 107.6250014
 133.5569992  22.5629978 107.0650014 133.0376374  22.1729949 107.6430957
 133.0659992  20.8169978 116.0990014 132.4009992  20.5709978 116.7420014
 132.6229992  21.4389978 115.5210014 132.9150937  20.8673614 116.1089379
 135.2579992  33.9919978 120.2430014 134.4369992  34.1669978 119.7830014
 135.0059992  33.9189978 121.1640014 135.1116173  34.0060794 120.3044972
 138.2119992  34.9659978 116.5020014 137.7879992  35.7759978 116.2190014
 139.1169992  35.0519978 116.2000014 138.2762433  35.0883331 116.4225377
 142.5239992  36.3649978 119.4610014 142.7079992  36.0319978 120.3390014
 143.3699992  36.6749978 119.1390014 142.6636484  36.3612979 119.5377617
 144.8689992  37.6509978 118.7050014 145.5459992  37.0179978 118.4650014
 145.1899992  38.0519978 119.5120014 145.0051323  37.6185691 118.7813158
 135.6139992  38.2229978 116.5490014 134.8939992  38.6629978 116.0980014
 135.2489992  37.9719978 117.3980014 135.4659796  38.2493824 116.6019329
 138.0809992  37.8229978 115.5790014 137.2169992  37.8949978 115.9830014
 138.0259992  38.3699978 114.7950014 137.9551942  37.9067849 115.5284000
 142.7919992  37.7109978 114.7540014 142.3349992  38.2399978 114.1000014
 142.9549992  38.3139978 115.4800014 142.7514476  37.8649140 114.7625499
 145.1199992  36.5889978 115.6990014 144.2149992  36.7539978 115.4340014
 145.5479992  37.4419978 115.6340014 145.0540700  36.7269529 115.6539520
 135.0289992  36.8459978 113.4590014 135.0109992  36.4199978 114.3170014
 135.8339992  36.5269978 113.0510014 135.1353221  36.7447233 113.5210225
 137.1699992  35.5559978 112.1140014 136.9509992  34.6389978 112.2840014
 137.9939992  35.6959978 112.5800014 137.2514702  35.4495511 112.2002527
 139.7069992  36.0259978 112.9630014 139.9199992  35.1379978 112.6760014
 139.7719992  35.9909978 113.9180014 139.7449075  35.8998307 113.0527373
 143.2159992  21.6899978 112.1070014 142.5419992  21.0599978 112.3630014
 143.7799992  21.2059978 111.5040014 143.2000384  21.5383708 112.0605020
 135.5429992  20.3239978 109.9290014 134.7659992  20.0889978 109.4220014
 136.0729992  19.5269978 109.9380014 135.5083451  20.1841268 109.8608627
 134.3789992  20.1219978 105.7330014 134.8179992  20.7329978 105.1410014
 133.7449992  20.6599978 106.2070014 134.3533859  20.2784064 105.7160305
 140.1219992  20.2499978 109.7430014 140.9959992  20.6389978 109.7130014
 139.9859992  20.0349978 110.6650014 140.2233207  20.2741923 109.8636509
 134.2799992  36.0699978 106.6310014 133.5949992  36.0319978 105.9630014
 134.2839992  36.9829978 106.9190014 134.1868174  36.1881998 106.5785310
 141.2659992  22.3309978 106.6330014 141.4439992  21.6839978 107.3150014
 141.2119992  23.1649978 107.1000014 141.2831025  22.3550504 106.7896433
 143.1439992  37.2789978 105.0280014 144.0099992  37.6459978 104.8500014
 142.8979992  36.8399978 104.2140014 143.2292097  37.2698525 104.8936019
 135.4999992  20.8379978 119.4470014 135.1339992  20.0719978 119.8900014
 136.4129992  20.8669978 119.7340014 135.5733225  20.7371906 119.5463459
 137.4729992  20.1879978 120.9830014 138.3719992  19.9139978 120.7980014
 137.0869992  19.4459978 121.4470014 137.5437237  20.0501508 121.0204710
  12.6289992  48.3359978 109.8880014  12.7179992  49.2799978 109.7560014
  11.9909992  48.0609978 109.2300014  12.5549061  48.4279812 109.7809641
  11.5619992  47.5909978 113.3070014  11.5239992  46.9449978 114.0120014
  11.2399992  47.1239978 112.5360014  11.5132679  47.4394276 113.2992921
   3.9299992  47.2049978 114.9000014   3.9719992  46.5799978 115.6230014
   4.6329992  47.8289978 115.0820014   4.0307345  47.2037873 115.0235274
  15.2679992  50.5299978 111.6090014  14.8269992  49.8099978 112.0590014
  15.2549992  51.2509978 112.2380014  15.2057960  50.5288329 111.7557567
   4.8539992  51.6549978 113.4350014   4.4839992  50.8529978 113.0650014
   5.7949992  51.4869978 113.4810014   4.9305984  51.5224638 113.3905603
   1.4639992  45.3149978 108.8280014   1.0159992  46.1609978 108.8090014
   0.9029992  44.7359978 108.3120014   1.3269603  45.3523674 108.7556720
   2.1739992  47.4769978 110.9540014   2.3879992  46.7069978 111.4810014
   2.9119992  47.5669978 110.3500014   2.3029652  47.3838012 110.9445212
  12.3799992  55.6339978 111.8210014  12.9989992  54.9579978 111.5470014
  12.1709992  55.4159978 112.7290014  12.4366232  55.5117938 111.9062517
   9.9509992  50.0229978 113.7130014  10.2549992  49.3369978 113.1190014
  10.6729992  50.1419978 114.3310014  10.0901152  49.9452189 113.7152123
  18.6139992  41.6249978 114.5740014  18.6639992  42.2349978 115.3100014
  19.0399992  42.0859978 113.8510014  18.6784108  41.7707709 114.5770112
  13.0919992  44.4169978 114.0410014  13.2349992  43.4709978 114.0610014
  12.9859992  44.6239978 113.1120014  13.0972509  44.3154813 113.9182231
   6.2469992  42.5189978 111.3130014   6.2899992  43.3789978 110.8950014
   5.7889992  41.9669978 110.6790014   6.1909815  42.5620621 111.1701197
  13.9689992  42.6499978 109.7140014  14.6159992  42.3209978 110.3390014
  14.4789992  43.1669978 109.0910014  14.1264317  42.6749227 109.7152167
   2.8669992  44.9159978 112.0750014   3.5209992  44.3659978 112.5070014
   2.8909992  44.6419978 111.1580014   2.9597199  44.8037167 112.0101668
   8.0239992  46.4659978 111.2900014   8.6399992  45.9389978 111.8000014
   7.4369992  45.8259978 110.8870014   8.0289239  46.3074117 111.3052952
  19.0059992  43.1029978 116.8100014  18.3169992  43.7609978 116.7140014
  19.0209992  42.9049978 117.7460014  18.9136740  43.1663243 116.9234630
   5.0569992  41.4369978 115.3870014   4.8379992  41.9669978 114.6210014
   4.3889992  41.6629978 116.0340014   4.9367001  41.5401154 115.3696064
  12.4259992  50.9369978 108.9310014  12.1309992  50.6139978 108.0800014
  12.1019992  51.8369978 108.9720014  12.3417983  51.0144026 108.8199771
   7.6259992  49.1119978 115.6750014   6.8859992  49.7109978 115.7780014
   8.3399992  49.6659978 115.3590014   7.6213288  49.2687356 115.6463805
  15.7329992  41.9409978 111.6940014  15.5179992  41.1749978 112.2270014
  16.3889992  42.4129978 112.2070014  15.7922673  41.9000728 111.8361990
   4.6509992  43.3289978 113.3390014   5.2649992  43.9619978 113.7130014
   5.1629992  42.8569978 112.6830014   4.8042277  43.3517352 113.3014279
   6.0339992  51.0769978 116.4620014   6.0279992  51.9559978 116.0840014
   5.1799992  50.9929978 116.8870014   5.9177925  51.1859535 116.4676887
   2.1549992  50.7479978 107.2440014   1.8829992  50.9769978 106.3550014
   2.1999992  51.5849978 107.7040014   2.1238709  50.8926058 107.1846107
  15.7799992  52.3689978 113.9560014  14.8379992  52.4279978 114.1180014
  16.0559992  53.2749978 113.8190014  15.6885865  52.4995288 113.9596192
  16.0799992  40.6559978 115.3740014  15.3439992  41.2659978 115.3360014
  16.7639992  41.0709978 114.8470014  16.0715506  40.7956400 115.2976051
   9.0839992  38.7419978 112.8400014   8.9659992  37.7939978 112.7850014
   8.2289992  39.0749978 113.1130014   8.9522679  38.6571926 112.8693720
  14.0319992  54.1499978 110.5820014  14.4569992  53.4429978 110.0970014
  14.3489992  54.9519978 110.1650014  14.1330266  54.1615190 110.4592479
  15.1919992  52.0509978 109.0900014  14.9339992  51.3609978 108.4790014
  15.2629992  51.6079978 109.9360014  15.1662837  51.8967106 109.1206912
  16.8779992  50.6179978 117.5680014  17.0169992  50.0259978 116.8280014
  17.0449992  51.4909978 117.2110014  16.9195562  50.6549896 117.4186283
  11.3499992  47.5799978 107.3400014  10.6389992  48.1149978 106.9880014
  12.0409992  47.6349978 106.6800014  11.3460751  47.6606777 107.2025858
  11.4039992  46.0369978 104.3790014  12.1049992  46.0599978 105.0300014
  11.7059992  45.4089978 103.7230014  11.5408282  45.9552339 104.3794496
  18.7189992  46.9579978 115.6340014  18.0669992  47.6519978 115.7230014
  19.1849992  47.1679978 114.8240014  18.6925937  47.0815019 115.5367533
  14.7559992  47.7889978 108.2920014  14.0239992  48.0179978 108.8650014
  15.2029992  47.0759978 108.7470014  14.7162753  47.7238972 108.4319715
  14.6529992  45.9639978 117.3600014  14.7329992  46.7269978 117.9310014
  14.0519992  46.2429978 116.6690014  14.5827245  46.1062630 117.3448424
   6.4009992  48.4199978 110.1740014   6.0709992  48.0489978 109.3560014
   6.9899992  47.7489978 110.5210014   6.4353970  48.2786063 110.1089404
   7.7679992  51.8479978 112.8560014   7.6729992  51.2689978 112.0990014
   8.4969992  51.4769978 113.3520014   7.8536161  51.7185891 112.8195209
   6.7679992  47.1879978 113.8080014   7.3329992  47.3099978 113.0450014
   7.0869992  47.8259978 114.4470014   6.8883977  47.2908851 113.7899424
  13.0769992  52.6919978 114.5420014  12.8369992  53.3539978 115.1900014
  12.8789992  51.8569978 114.9670014  13.0173826  52.6698115 114.6881566
   7.6479992  51.5879978 118.5250014   7.3369992  52.3699978 118.9800014
   6.9979992  51.4349978 117.8390014   7.5175538  51.6744087 118.4945898
  13.6269992  46.9519978 105.9770014  14.2059992  47.1019978 106.7240014
  14.0409992  47.4219978 105.2540014  13.7623122  47.0361277 105.9815042
   4.5679992  47.7859978 117.7540014   4.6379992  48.4369978 118.4520014
   3.6769992  47.8889978 117.4190014   4.4571802  47.8889757 117.8042249
  11.3529992  53.6879978 109.4120014  11.8269992  53.9839978 110.1900014
  10.7899992  54.4269978 109.1790014  11.3417361  53.8282721 109.4868611
   5.8869992  53.6589978 119.2880014   5.8949992  53.5229978 118.3410014
   4.9709992  53.5419978 119.5400014   5.7642528  53.6245463 119.1923243
   5.3919992  47.4889978 107.7640014   5.0999992  48.2569978 107.2730014
   4.7169992  46.8299978 107.6010014   5.2608497  47.5049745 107.6748260
  18.5149992  53.0679978 104.1660014  18.5879992  54.0069978 104.3370014
  19.4199992  52.7629978 104.1100014  18.6474158  53.1553061 104.1818392
   1.4849992  49.8519978 116.5790014   0.9829992  49.8239978 115.7640014
   1.4899992  48.9469978 116.8880014   1.4170416  49.7257368 116.5093766
   1.2349992  52.6329978 113.4630014   2.1809992  52.4879978 113.4440014
   1.1219992  53.4169978 114.0000014   1.3493578  52.7191697 113.5330317
  19.4329992  53.2989978 119.1450014  19.3829992  52.3429978 119.1080014
  18.6059992  53.5659978 119.5460014  19.3143987  53.2045174 119.1941446
  10.4109992  52.8729978 118.0210014  10.4989992  53.6989978 118.4960014
   9.5479992  52.5429978 118.2700014  10.3063357  52.9415468 118.1197653
  10.8259992  56.6449978 107.8270014  10.7499992  56.5239978 106.8810014
  10.8579992  57.5939978 107.9460014  10.8199156  56.7567530 107.7135048
   4.4789992  55.4339978 109.6080014   4.6309992  55.0859978 110.4870014
   3.6279992  55.0769978 109.3530014   4.3847899  55.3381738 109.6937340
  13.5959992  55.7249978 107.5790014  12.6609992  55.8249978 107.7570014
  13.8759992  55.0149978 108.1570014  13.5058173  55.6427239 107.6814998
  16.5849992  44.7919978 119.6250014  16.1769992  45.2719978 118.9050014
  16.6249992  43.8859978 119.3170014  16.5345476  44.7353160 119.4848247
   3.7339992  51.1759978 117.6220014   3.9499992  50.8139978 118.4810014
   2.8779992  50.8009978 117.4120014   3.6479354  51.0757906 117.7112160
   6.3519992  39.6459978 113.6170014   5.4909992  39.5589978 113.2100014
   6.3299992  40.5019978 114.0450014   6.2310411  39.7497884 113.6190857
  11.0149992  39.3679978 116.9920014  11.4349992  38.9529978 117.7450014
  10.0819992  39.1889978 117.1090014  10.9463736  39.2869910 117.1108968
  14.3419992  43.1229978 117.8450014  13.8279992  42.9979978 118.6430014
  14.1859992  44.0359978 117.6010014  14.2506967  43.2292123 117.9210937
   6.4429992  44.6109978 114.7120014   5.8019992  44.5709978 115.4210014
   6.4809992  45.5379978 114.4750014   6.3603670  44.7307795 114.7770550
   6.4399992  44.8319978 109.6240014   5.5479992  44.4919978 109.5660014
   6.8909992  44.4549978 108.8690014   6.3786815  44.7343762 109.5139203
  11.9759992  45.2479978 108.4410014  11.5669992  46.0629978 108.1500014
  12.6959992  45.1079978 107.8270014  12.0174013  45.3406571 108.3180875
  11.0779992  45.4239978 119.9290014  10.5149992  44.7189978 120.2500014
  11.9039992  45.3029978 120.3970014  11.1126674  45.3112165 120.0361751
  12.9809992  44.6939978 111.2550014  12.7849992  45.2999978 110.5400014
  13.1619992  43.8609978 110.8210014  12.9786584  44.6642513 111.0984212
   4.1929992  44.9319978 116.5790014   4.1549992  45.3319978 117.4480014
   3.7029992  44.1149978 116.6700014   4.1215621  44.8762510 116.7101377
   0.8019992  42.0479978 110.4300014   1.4319992  42.0189978 111.1490014
   1.2509992  41.6229978 109.7000014   0.9490692  41.9865316 110.4297771
  12.2449992  46.3319978 115.9270014  12.5679992  45.7009978 115.2840014
  11.8039992  45.7979978 116.5870014  12.2295789  46.1733522 115.9282232
   9.0219992  42.2599978 110.7110014   8.1109992  42.3169978 110.9990014
   9.5269992  42.1999978 111.5210014   8.9655387  42.2596870 110.8600646
   3.8499992  43.8889978 109.5370014   2.9609992  43.9879978 109.1970014
   4.1469992  43.0469978 109.1910014   3.7684177  43.7887687 109.4436940
   7.5029992  43.8889978 107.1940014   8.4349992  44.0179978 107.3720014
   7.2879992  44.5579978 106.5440014   7.6014472  43.9970806 107.1304891
  13.4269992  41.4949978 113.9750014  12.7499992  41.6259978 114.6390014
  12.9419992  41.3399978 113.1650014  13.2687265  41.4919659 113.9563397
   6.1769992  45.0829978 104.7610014   5.6349992  44.7039978 104.0690014
   7.0109992  45.2779978 104.3320014   6.2155159  45.0575076 104.6084419
  16.7149992  57.1659978 120.2520014  16.9139992  57.5899978 119.4170014
  17.3699992  57.5099978 120.8590014  16.8308501  57.2706091 120.2197097
   4.3129992  49.6399978 119.8600014   5.0449992  49.8949978 120.4210014
   3.5319992  49.8449978 120.3750014   4.3077684  49.7026468 120.0064782
  10.3419992  45.0469978 112.5980014  10.9059992  44.5009978 112.0510014
  10.1939992  44.5259978 113.3860014  10.3992575  44.9016552 112.6296987
   5.3439992  41.1839978 109.0160014   5.0269992  40.2809978 108.9810014
   6.1249992  41.1859978 108.4630014   5.4062307  41.0606951 108.9364314
   8.9679992  43.4359978 115.0120014   8.1329992  43.8899978 115.1220014
   9.4919992  43.7119978 115.7640014   8.9245070  43.5354666 115.1287152
  16.6629992  48.7819978 115.4830014  17.3039992  49.2379978 114.9390014
  15.8319992  48.8949978 115.0210014  16.6385171  48.8597502 115.3460237
  13.4099992  42.4629978 104.8960014  12.4719992  42.5739978 104.7440014
  13.7079992  43.3189978 105.2020014  13.3216402  42.5940621 104.9165571
  11.0319992  49.8329978 117.9330014  10.6859992  49.4509978 118.7400014
  10.8319992  50.7659978 118.0050014  10.9576523  49.9069095 118.0530735
  14.1289992  44.3299978 106.5560014  15.0209992  44.1919978 106.8750014
  14.1849992  45.1209978 106.0200014  14.2587107  44.4180526 106.5272091
   4.6369992  48.9439978 112.4660014   5.3819992  48.9409978 111.8650014
   4.7149992  48.1199978 112.9480014   4.7494158  48.8322916 112.4489153
  11.6379992  51.1069978 105.7220014  11.3429992  51.9339978 106.1030014
  10.9349992  50.4879978 105.9180014  11.5025471  51.1365227 105.8006698
   1.6449992  47.4039978 117.7810014   1.8679992  46.9859978 118.6130014
   1.0429992  46.7919978 117.3580014   1.5941260  47.2639933 117.8377320
   8.6619992  46.9209978 119.9940014   8.3659992  46.7559978 119.0990014
   9.5929992  46.7009978 119.9830014   8.7473982  46.8686578 119.8700045
  13.2819992  52.2949978 117.8840014  12.3819992  52.4779978 117.6160014
  13.3159992  52.5539978 118.8050014  13.1632909  52.3550815 117.9717852
  19.0139992  44.5389978 106.2510014  18.4589992  44.1429978 105.5790014
  19.1139992  45.4499978 105.9730014  18.9515888  44.6078990 106.1215206
  18.9769992  50.3399978 119.0880014  18.1259992  50.5779978 118.7210014
  19.5669992  50.3229978 118.3350014  18.9402408  50.3702966 118.9358879
  17.3089992  53.3249978 106.7160014  16.9359992  52.4999978 107.0250014
  17.5859992  53.1419978 105.8190014  17.2953871  53.1872441 106.6369677
  14.4689992  48.1329978 113.7370014  13.5409992  47.9019978 113.7100014
  14.9199992  47.3559978 113.4070014  14.4028165  47.9962774 113.6886790
   7.0119992  52.4619978 109.8700014   7.5399992  53.2349978 109.6700014
   6.1319992  52.6859978 109.5690014   6.9653176  52.5983161 109.8018409
   2.7669992  47.3239978 104.4580014   3.3829992  47.9509978 104.8370014
   1.9049992  47.6399978 104.7290014   2.7348195  47.4525798 104.5465386
   8.4399992  50.1249978 109.4470014   8.1989992  51.0499978 109.4880014
   7.6989992  49.6659978 109.8430014   8.3068390  50.1896403 109.5061404
   8.9539992  54.2739978 115.7620014   9.3169992  55.1279978 115.5280014
   9.4859992  53.9819978 116.5020014   9.0756090  54.3514058 115.8300219
   7.1229992  55.1459978 108.9920014   6.1729992  55.2519978 109.0430014
   7.4749992  55.9669978 109.3370014   7.0405480  55.2714438 109.0455999
  12.4979992  50.3729978 115.4620014  12.0729992  50.1449978 116.2890014
  13.0789992  49.6339978 115.2800014  12.5183930  50.2419843 115.5504732
  15.1569992  54.9249978 117.9320014  14.5549992  54.3689978 117.4360014
  15.4379992  55.5919978 117.3060014  15.1126829  54.9391613 117.7795443
  19.2049992  55.7809978 104.7370014  19.9489992  56.3669978 104.5970014
  18.5109992  56.3499978 105.0710014  19.2130201  55.9380603 104.7629772
   3.2789992  42.1579978 117.3390014   2.3869992  42.4959978 117.2720014
   3.1809992  41.3019978 117.7570014   3.1434965  42.0886499 117.3863044
  15.5669992  49.9739978 106.7630014  15.2899992  49.2459978 107.3190014
  16.4949992  50.0929978 106.9680014  15.6544499  49.8904213 106.8668044
   2.9309992  53.9619978 115.7740014   3.1479992  53.0299978 115.7430014
   3.1769992  54.2369978 116.6570014   2.9939809  53.8715686 115.8891690
   4.1819992  49.2359978 105.9500014   3.4959992  49.5889978 106.5170014
   4.7049992  49.9989978 105.7040014   4.1589033  49.3873746 105.9942661
  12.0139992  41.8989978 116.2290014  12.7129992  41.9729978 116.8790014
  11.6329992  41.0339978 116.3830014  12.0582097  41.7922389 116.3387997
  12.7979992  41.5509978 107.3260014  13.0179992  42.0219978 106.5230014
  13.3569992  41.9449978 107.9960014  12.9036730  41.6687432 107.3065906
  10.4669992  53.6809978 106.1890014   9.6499992  54.1779978 106.2410014
  10.9959992  54.1569978 105.5490014  10.4268508  53.8132543 106.1096035
   9.9979992  43.2789978 108.1610014  10.8099992  43.7829978 108.2070014
   9.7539992  43.1339978 109.0750014  10.0761467  43.3283749 108.2908575
  10.5339992  44.2649978 117.3460014  10.6529992  44.8389978 118.1030014
  11.1889992  43.5769978 117.4600014  10.6389146  44.2505574 117.4651314
  10.8819992  40.3599978 109.0990014  10.5349992  40.9769978 109.7440014
  11.5409992  40.8609978 108.6180014  10.9235949  40.5121099 109.1222271
   7.8049992  54.7249978 106.1710014   7.9659992  55.5249978 105.6700014
   7.6079992  55.0319978 107.0560014   7.8003919  54.8759129 106.2221006
   6.5399992  41.4229978 105.7860014   6.4559992  42.3109978 106.1330014
   7.4299992  41.1579978 106.0180014   6.6488163  41.5087179 105.8648596
  16.7379992  42.1719978 118.1810014  15.8219992  42.4339978 118.0930014
  17.0739992  42.1689978 117.2840014  16.6579789  42.2074626 118.0477847
  15.3409992  45.9219978 112.2760014  14.5429992  45.5069978 111.9480014
  15.7859992  45.2319978 112.7670014  15.2919684  45.7718628 112.2975227
  16.4269992  55.1779978 113.8990014  16.2709992  55.8569978 113.2420014
  17.3599992  55.2499978 114.1020014  16.5317387  55.2806390 113.8365342
   3.9219992  39.2959978 112.6360014   3.6929992  39.3549978 111.7080014
   3.4799992  38.5049978 112.9420014   3.8308801  39.1970540 112.5504729
   2.8529992  53.2369978 108.7960014   2.0199992  53.7089978 108.8240014
   3.3979992  53.7469978 108.1980014   2.8127590  53.3705897 108.7189194
   2.1409992  55.8489978 120.1260014   2.6809992  55.6329978 120.8860014
   1.6599992  55.0439978 119.9370014   2.1498613  55.7105400 120.2044782
   6.7379992  54.7689978 121.7470014   7.5059992  54.3099978 122.0880014
   6.7169992  54.5429978 120.8170014   6.8402135  54.6756668 121.6679491
  13.3149992  53.1489978 120.4760014  12.9639992  52.2919978 120.7190014
  14.0409992  53.2909978 121.0830014  13.3651590  53.0510178 120.5912907
   2.0479992  49.6599978 121.0810014   2.1919992  48.7579978 120.7940014
   1.2759992  49.9459978 120.5930014   1.9633303  49.5753243 120.9757908
   8.7029992  49.6289978 120.5130014   8.3749992  49.8999978 119.6560014
   8.8549992  48.6879978 120.4260014   8.6786030  49.5388973 120.3837945
  11.7419992  51.0499978 102.9490014  11.4729992  51.2309978 103.8500014
  11.5349992  50.1249978 102.8180014  11.6772000  50.9496774 103.0545693
  14.4379992  49.5449978 117.8970014  15.1829992  50.1339978 117.7770014
  13.6809992  50.1269978 117.9600014  14.4375205  49.7041997 117.8891119
   2.8809992  46.8599978 120.5010014   3.2889992  46.0029978 120.3800014
   2.6199992  46.8739978 121.4220014   2.9016016  46.7445119 120.6089192
   6.8279992  45.8689978 117.8750014   6.2089992  46.5429978 118.1550014
   7.1719992  46.1899978 117.0420014   6.7897605  46.0047198 117.8006707
   8.6099992  46.2189978 103.7810014   8.4289992  46.0639978 102.8540014
   9.5599992  46.3269978 103.8260014   8.7136566  46.2123669 103.6600929
  11.8469992  48.3399978 121.1520014  12.8009992  48.4239978 121.1250014
  11.6869992  47.6279978 121.7720014  11.9557182  48.2552842 121.2320733
   7.1669992  43.2239978 118.9570014   7.3169992  42.4949978 118.3550014
   7.1689992  44.0009978 118.3980014   7.1877967  43.2292708 118.7990541
   7.5799992  41.5929978 116.4500014   8.1149992  42.0449978 115.7980014
   6.7269992  41.4849978 116.0270014   7.5380374  41.6402665 116.3036710
   9.1609992  47.0329978 116.6890014   9.9119992  46.8769978 116.1160014
   8.8219992  47.8849978 116.4140014   9.2179587  47.1268138 116.5734078
  13.5769992  44.8479978 121.7180014  13.7689992  43.9169978 121.6060014
  14.4349992  45.2729978 121.7080014  13.7192269  44.7779928 121.7013192
  14.8939992  47.6369978 119.7950014  14.6119992  48.3459978 119.2180014
  15.8359992  47.5639978 119.6440014  14.9827656  47.7243128 119.6954809
   5.6459992  44.4219978 120.8690014   4.8779992  43.8889978 120.6590014
   6.3239992  44.1119978 120.2690014   5.6326973  44.3072375 120.7591796
   8.3849992  39.0499978 116.8810014   8.2869992  39.9959978 116.7760014
   7.6429992  38.6769978 116.4060014   8.2711913  39.1291813 116.8023539
   9.6489992  43.3709978 120.4450014   9.4139992  43.1519978 121.3470014
   8.8659992  43.1639978 119.9350014   9.5109219  43.3130066 120.4995852
  12.3649992  42.4989978 119.5210014  11.4169992  42.5309978 119.6530014
  12.6769992  41.8729978 120.1740014  12.2775190  42.4187262 119.6273564
  13.9989992  41.1329978 121.5260014  13.9019992  40.1809978 121.5200014
  13.6769992  41.4009978 122.3860014  13.9421761  41.0389744 121.6414936
   3.8259992  42.3419978 120.5730014   4.0379992  41.6359978 119.9630014
   3.7149992  41.9049978 121.4170014   3.8400269  42.1861921 120.6035873
   8.6069992  38.3439978 119.5530014   9.3189992  37.7039978 119.5390014
   8.5059992  38.6099978 118.6390014   8.6907261  38.2924190 119.4275537
   8.9609992  40.0259978 121.6060014   8.8289992  39.5509978 120.7860014
   8.3609992  40.7709978 121.5510014   8.8619070  40.0615789 121.4863251
   2.0749992  51.5459978 104.2650014   2.9889992  51.6249978 104.5390014
   2.0829992  50.8589978 103.5990014   2.2011143  51.4639085 104.2124274
   0.7239992  56.9389978 109.3430014   0.0769992  56.4769978 108.8100014
   1.0789992  56.2669978 109.9250014   0.6834506  56.7849503 109.3487341
   1.5939992  55.0189978 111.1470014   1.2599992  54.1389978 111.3190014
   1.8169992  55.3649978 112.0120014   1.5783721  54.9451938 111.2874168
  19.1429992  55.8289978 114.1280014  19.1209992  56.0139978 115.0670014
  19.8329992  56.3969978 113.7870014  19.2333439  55.9311887 114.2104791
  18.7059992  55.3959978 117.0500014  18.2189992  54.6609978 116.6790014
  19.2549992  55.0019978 117.7280014  18.7135247  55.2421057 117.0908461
  17.1569992  51.1859978 121.6880014  16.2909992  51.0809978 122.0820014
  17.5329992  51.9439978 122.1340014  17.0893401  51.2741708 121.8022620
  18.4579992  49.4419978 107.2020014  19.3079992  49.8629978 107.3290014
  18.4629992  48.7019978 107.8090014  18.5751143  49.3996094 107.3014750
  18.8519992  47.4959978 109.0260014  18.1259992  47.0159978 109.4230014
  19.4339992  47.7009978 109.7580014  18.8311635  47.4579166 109.1793748
  18.6109992  50.2809978 113.9730014  19.4449992  49.9029978 113.6930014
  18.7229992  51.2239978 113.8540014  18.7402522  50.3567742 113.9186020
  17.0979992  53.1589978 116.2800014  16.4499992  53.4839978 116.9060014
  16.5799992  52.7179978 115.6060014  16.9394168  53.1438523 116.2745307
  16.6389992  46.0169978 109.5890014  16.4889992  45.0719978 109.5680014
  16.2849992  46.2979978 110.4320014  16.5705527  45.9255605 109.7001859
   1.6739992  48.0949978 113.5990014   1.8589992  48.0129978 112.6630014
   2.5239992  47.9709978 114.0230014   1.8140916  48.0670393 113.5282896
  17.4949992  47.9869978 119.2270014  18.0779992  47.2519978 119.4190014
  18.0589992  48.7589978 119.2740014  17.6509781  47.9908145 119.2596164
  18.9919992  45.8899978 119.9120014  18.1289992  45.5109978 119.7460014
  19.5959992  45.1509978 119.8380014  18.9555944  45.7382978 119.8792984
  16.7169992  42.0439978 103.0850014  17.3279992  41.6729978 103.7220014
  15.8799992  41.6229978 103.2810014  16.6874947  41.9362756 103.1987252
  16.3499992  43.5989978 108.0510014  16.6289992  42.6919978 108.1750014
  17.1089992  44.0329978 107.6620014  16.4908619  43.5334502 108.0153795
  16.9609992  44.1809978 113.4870014  17.8939992  44.3929978 113.4530014
  16.7259992  44.2819978 114.4090014  17.0568308  44.2236503 113.6070214
  16.9909992  44.9179978 116.2630014  16.1479992  45.1859978 116.6290014
  17.4329992  45.7399978 116.0520014  16.9354138  45.0658273 116.2845518
   1.2719992  43.3649978 119.7400014   2.1909992  43.2429978 119.9760014
   0.8219992  42.6149978 120.1290014   1.3371148  43.2468751 119.8249408
  19.2739992  38.8979978 121.6160014  19.6229992  38.2439978 121.0110014
  19.4209992  39.7349978 121.1770014  19.3417355  38.9216067 121.4736564
  16.9629992  40.8619978 108.0990014  17.1449992  40.4129978 108.9250014
  16.3629992  40.2779978 107.6360014  16.9067529  40.7216131 108.1493619
   2.4929992  41.6779978 112.6310014   2.9379992  40.8859978 112.9330014
   2.9589992  42.3939978 113.0620014   2.6169059  41.6664474 112.7306079
   0.7969992  44.6769978 113.7000014   1.2889992  44.4559978 112.9090014
   1.1589992  45.5169978 113.9810014   0.9132923  44.7603468 113.6297407
  18.7929992  41.0069978 119.9660014  17.8759992  41.2779978 119.9300014
  18.9159992  40.4719978 119.1820014  18.6840828  40.9717700 119.8550785
   1.1109992  40.9349978 107.7540014   0.1859992  41.1429978 107.6250014
   1.5649992  41.4189978 107.0650014   1.0456374  41.0289949 107.6430957
  15.8809992  55.9189978 109.7000014  16.5339992  55.5709978 109.0920014
  16.3919992  56.4069978 110.3460014  16.0392777  55.9373815 109.7042047
   1.0739992  39.6729978 116.0990014   0.4089992  39.4269978 116.7420014
   0.6309992  40.2949978 115.5210014   0.9230937  39.7233614 116.1089379
   3.2659992  52.8479978 120.2430014   2.4449992  53.0229978 119.7830014
   3.0139992  52.7749978 121.1640014   3.1196173  52.8620794 120.3044972
   6.2199992  53.8219978 116.5020014   5.7959992  54.6319978 116.2190014
   7.1249992  53.9079978 116.2000014   6.2842433  53.9443331 116.4225377
  10.5319992  55.2209978 119.4610014  10.7159992  54.8879978 120.3390014
  11.3779992  55.5309978 119.1390014  10.6716484  55.2172979 119.5377617
  12.8769992  56.5069978 118.7050014  13.5539992  55.8739978 118.4650014
  13.1979992  56.9079978 119.5120014  13.0131323  56.4745691 118.7813158
  17.7939992  39.0969978 117.7850014  16.9809992  39.4219978 117.3970014
  18.0269992  38.3359978 117.2520014  17.7142566  39.0386559 117.6599213
   3.6219992  57.0789978 116.5490014   2.9019992  57.5189978 116.0980014
   3.2569992  56.8279978 117.3980014   3.4739796  57.1053824 116.6019329
   6.0889992  56.6789978 115.5790014   5.2249992  56.7509978 115.9830014
   6.0339992  57.2259978 114.7950014   5.9631942  56.7627849 115.5284000
  10.7999992  56.5669978 114.7540014  10.3429992  57.0959978 114.1000014
  10.9629992  57.1699978 115.4800014  10.7594476  56.7209140 114.7625499
  13.1279992  55.4449978 115.6990014  12.2229992  55.6099978 115.4340014
  13.5559992  56.2979978 115.6340014  13.0620700  55.5829529 115.6539520
  15.7319992  57.0149978 115.9940014  15.5499992  57.9309978 115.7840014
  15.9089992  56.6039978 115.1480014  15.7309907  57.0849741 115.8507883
   3.0369992  55.7019978 113.4590014   3.0189992  55.2759978 114.3170014
   3.8419992  55.3829978 113.0510014   3.1433221  55.6007233 113.5210225
   5.1779992  54.4119978 112.1140014   4.9589992  53.4949978 112.2840014
   6.0019992  54.5519978 112.5800014   5.2594702  54.3055511 112.2002527
   7.7149992  54.8819978 112.9630014   7.9279992  53.9939978 112.6760014
   7.7799992  54.8469978 113.9180014   7.7529075  54.7558307 113.0527373
  11.2239992  40.5459978 112.1070014  10.5499992  39.9159978 112.3630014
  11.7879992  40.0619978 111.5040014  11.2080384  40.3943708 112.0605020
  16.3669992  38.6529978 112.2200014  16.9699992  39.2009978 111.7180014
  15.4969992  38.9719978 111.9800014  16.3319190  38.7711041 112.1188679
  18.0939992  39.7919978 110.5530014  18.7049992  39.2779978 110.0270014
  18.4759992  40.6689978 110.5770014  18.2294475  39.8401323 110.4841208
   3.5509992  39.1799978 109.9290014   2.7739992  38.9449978 109.4220014
   4.0809992  38.3829978 109.9380014   3.5163451  39.0401268 109.8608627
   2.3869992  38.9779978 105.7330014   2.8259992  39.5889978 105.1410014
   1.7529992  39.5159978 106.2070014   2.3613859  39.1344064 105.7160305
   8.1299992  39.1059978 109.7430014   9.0039992  39.4949978 109.7130014
   7.9939992  38.8909978 110.6650014   8.2313207  39.1301923 109.8636509
  13.6869992  39.1359978 111.3920014  13.7629992  39.2319978 110.4430014
  13.4119992  38.2289978 111.5210014  13.6602042  39.0264241 111.2793811
  15.0399992  39.1619978 107.0840014  14.3369992  39.7769978 106.8750014
  14.5949992  38.3249978 107.2160014  14.8836292  39.1330085 107.0732439
   2.2879992  54.9259978 106.6310014   1.6029992  54.8879978 105.9630014
   2.2919992  55.8389978 106.9190014   2.1948174  55.0441998 106.5785310
   4.2479992  40.8939978 104.1750014   4.7389992  40.2639978 103.6480014
   4.8709992  41.1899978 104.8390014   4.3995062  40.8476770 104.1925438
   9.2739992  41.1869978 106.6330014   9.4519992  40.5399978 107.3150014
   9.2199992  42.0209978 107.1000014   9.2911025  41.2110504 106.7896433
  17.8609992  55.6979978 107.7070014  17.6669992  54.9499978 107.1420014
  17.8219992  56.4559978 107.1240014  17.8291645  55.6980786 107.5508148
   3.5079992  39.6939978 119.4470014   3.1419992  38.9279978 119.8900014
   4.4209992  39.7229978 119.7340014   3.5813225  39.5931906 119.5463459
   5.4809992  39.0439978 120.9830014   6.3799992  38.7699978 120.7980014
   5.0949992  38.3019978 121.4470014   5.5517237  38.9061508 121.0204710
  13.9029992  38.3769978 121.1650014  13.9789992  37.9509978 122.0190014
  14.7959992  38.3899978 120.8220014  14.0342267  38.3203952 121.2355932
  17.0789992  54.4499978 119.8570014  16.2969992  54.2629978 119.3380014
  17.0069992  55.3789978 120.0750014  16.9620863  54.5500221 119.8153574
  31.4849992  48.3359978 109.8880014  31.5739992  49.2799978 109.7560014
  30.8469992  48.0609978 109.2300014  31.4109062  48.4279812 109.7809641
  30.4179992  47.5909978 113.3070014  30.3799992  46.9449978 114.0120014
  30.0959992  47.1239978 112.5360014  30.3692679  47.4394276 113.2992921
  22.7859992  47.2049978 114.9000014  22.8279992  46.5799978 115.6230014
  23.4889992  47.8289978 115.0820014  22.8867345  47.2037873 115.0235274
  34.1239992  50.5299978 111.6090014  33.6829992  49.8099978 112.0590014
  34.1109992  51.2509978 112.2380014  34.0617960  50.5288329 111.7557567
  23.7099992  51.6549978 113.4350014  23.3399992  50.8529978 113.0650014
  24.6509992  51.4869978 113.4810014  23.7865984  51.5224638 113.3905603
  20.3199992  45.3149978 108.8280014  19.8719992  46.1609978 108.8090014
  19.7589992  44.7359978 108.3120014  20.1829603  45.3523674 108.7556720
  21.0299992  47.4769978 110.9540014  21.2439992  46.7069978 111.4810014
  21.7679992  47.5669978 110.3500014  21.1589652  47.3838012 110.9445212
  31.2359992  55.6339978 111.8210014  31.8549992  54.9579978 111.5470014
  31.0269992  55.4159978 112.7290014  31.2926232  55.5117938 111.9062517
  28.8069992  50.0229978 113.7130014  29.1109992  49.3369978 113.1190014
  29.5289992  50.1419978 114.3310014  28.9461152  49.9452189 113.7152123
  37.4699992  41.6249978 114.5740014  37.5199992  42.2349978 115.3100014
  37.8959992  42.0859978 113.8510014  37.5344108  41.7707709 114.5770112
  31.9479992  44.4169978 114.0410014  32.0909992  43.4709978 114.0610014
  31.8419992  44.6239978 113.1120014  31.9532509  44.3154813 113.9182231
  25.1029992  42.5189978 111.3130014  25.1459992  43.3789978 110.8950014
  24.6449992  41.9669978 110.6790014  25.0469815  42.5620621 111.1701197
  32.8249992  42.6499978 109.7140014  33.4719992  42.3209978 110.3390014
  33.3349992  43.1669978 109.0910014  32.9824317  42.6749227 109.7152167
  21.7229992  44.9159978 112.0750014  22.3769992  44.3659978 112.5070014
  21.7469992  44.6419978 111.1580014  21.8157199  44.8037167 112.0101668
  26.8799992  46.4659978 111.2900014  27.4959992  45.9389978 111.8000014
  26.2929992  45.8259978 110.8870014  26.8849239  46.3074117 111.3052952
  37.8619992  43.1029978 116.8100014  37.1729992  43.7609978 116.7140014
  37.8769992  42.9049978 117.7460014  37.7696740  43.1663243 116.9234630
  23.9129992  41.4369978 115.3870014  23.6939992  41.9669978 114.6210014
  23.2449992  41.6629978 116.0340014  23.7927001  41.5401154 115.3696064
  31.2819992  50.9369978 108.9310014  30.9869992  50.6139978 108.0800014
  30.9579992  51.8369978 108.9720014  31.1977983  51.0144026 108.8199771
  26.4819992  49.1119978 115.6750014  25.7419992  49.7109978 115.7780014
  27.1959992  49.6659978 115.3590014  26.4773288  49.2687356 115.6463805
  34.5889992  41.9409978 111.6940014  34.3739992  41.1749978 112.2270014
  35.2449992  42.4129978 112.2070014  34.6482673  41.9000728 111.8361990
  23.5069992  43.3289978 113.3390014  24.1209992  43.9619978 113.7130014
  24.0189992  42.8569978 112.6830014  23.6602277  43.3517352 113.3014279
  24.8899992  51.0769978 116.4620014  24.8839992  51.9559978 116.0840014
  24.0359992  50.9929978 116.8870014  24.7737925  51.1859535 116.4676887
  21.0109992  50.7479978 107.2440014  20.7389992  50.9769978 106.3550014
  21.0559992  51.5849978 107.7040014  20.9798709  50.8926058 107.1846107
  34.6359992  52.3689978 113.9560014  33.6939992  52.4279978 114.1180014
  34.9119992  53.2749978 113.8190014  34.5445865  52.4995288 113.9596192
  34.9359992  40.6559978 115.3740014  34.1999992  41.2659978 115.3360014
  35.6199992  41.0709978 114.8470014  34.9275506  40.7956400 115.2976051
  27.9399992  38.7419978 112.8400014  27.8219992  37.7939978 112.7850014
  27.0849992  39.0749978 113.1130014  27.8082679  38.6571926 112.8693720
  32.8879992  54.1499978 110.5820014  33.3129992  53.4429978 110.0970014
  33.2049992  54.9519978 110.1650014  32.9890266  54.1615190 110.4592479
  34.0479992  52.0509978 109.0900014  33.7899992  51.3609978 108.4790014
  34.1189992  51.6079978 109.9360014  34.0222837  51.8967106 109.1206912
  35.7339992  50.6179978 117.5680014  35.8729992  50.0259978 116.8280014
  35.9009992  51.4909978 117.2110014  35.7755562  50.6549896 117.4186283
  30.2059992  47.5799978 107.3400014  29.4949992  48.1149978 106.9880014
  30.8969992  47.6349978 106.6800014  30.2020751  47.6606777 107.2025858
  37.5749992  46.9579978 115.6340014  36.9229992  47.6519978 115.7230014
  38.0409992  47.1679978 114.8240014  37.5485937  47.0815019 115.5367533
  33.6119992  47.7889978 108.2920014  32.8799992  48.0179978 108.8650014
  34.0589992  47.0759978 108.7470014  33.5722753  47.7238972 108.4319715
  33.5089992  45.9639978 117.3600014  33.5889992  46.7269978 117.9310014
  32.9079992  46.2429978 116.6690014  33.4387245  46.1062630 117.3448424
  25.2569992  48.4199978 110.1740014  24.9269992  48.0489978 109.3560014
  25.8459992  47.7489978 110.5210014  25.2913970  48.2786063 110.1089404
  26.6239992  51.8479978 112.8560014  26.5289992  51.2689978 112.0990014
  27.3529992  51.4769978 113.3520014  26.7096161  51.7185891 112.8195209
  25.6239992  47.1879978 113.8080014  26.1889992  47.3099978 113.0450014
  25.9429992  47.8259978 114.4470014  25.7443977  47.2908851 113.7899424
  31.9329992  52.6919978 114.5420014  31.6929992  53.3539978 115.1900014
  31.7349992  51.8569978 114.9670014  31.8733826  52.6698115 114.6881566
  26.5039992  51.5879978 118.5250014  26.1929992  52.3699978 118.9800014
  25.8539992  51.4349978 117.8390014  26.3735538  51.6744087 118.4945898
  32.4829992  46.9519978 105.9770014  33.0619992  47.1019978 106.7240014
  32.8969992  47.4219978 105.2540014  32.6183122  47.0361277 105.9815042
  23.4239992  47.7859978 117.7540014  23.4939992  48.4369978 118.4520014
  22.5329992  47.8889978 117.4190014  23.3131802  47.8889757 117.8042249
  30.2089992  53.6879978 109.4120014  30.6829992  53.9839978 110.1900014
  29.6459992  54.4269978 109.1790014  30.1977361  53.8282721 109.4868611
  24.7429992  53.6589978 119.2880014  24.7509992  53.5229978 118.3410014
  23.8269992  53.5419978 119.5400014  24.6202528  53.6245463 119.1923243
  36.1819992  38.7019978 105.7900014  35.2819992  38.8409978 106.0850014
  36.4339992  39.5329978 105.3880014  36.0928683  38.8334055 105.7760232
  24.2479992  47.4889978 107.7640014  23.9559992  48.2569978 107.2730014
  23.5729992  46.8299978 107.6010014  24.1168497  47.5049745 107.6748260
  37.3709992  53.0679978 104.1660014  37.4439992  54.0069978 104.3370014
  38.2759992  52.7629978 104.1100014  37.5034158  53.1553061 104.1818392
  20.3409992  49.8519978 116.5790014  19.8389992  49.8239978 115.7640014
  20.3459992  48.9469978 116.8880014  20.2730416  49.7257368 116.5093766
  20.0909992  52.6329978 113.4630014  21.0369992  52.4879978 113.4440014
  19.9779992  53.4169978 114.0000014  20.2053578  52.7191697 113.5330317
  38.2889992  53.2989978 119.1450014  38.2389992  52.3429978 119.1080014
  37.4619992  53.5659978 119.5460014  38.1703987  53.2045174 119.1941446
  29.2669992  52.8729978 118.0210014  29.3549992  53.6989978 118.4960014
  28.4039992  52.5429978 118.2700014  29.1623357  52.9415468 118.1197653
  29.6819992  56.6449978 107.8270014  29.6059992  56.5239978 106.8810014
  29.7139992  57.5939978 107.9460014  29.6759156  56.7567530 107.7135048
  23.3349992  55.4339978 109.6080014  23.4869992  55.0859978 110.4870014
  22.4839992  55.0769978 109.3530014  23.2407899  55.3381738 109.6937340
  32.7829992  55.7989978 104.8290014  33.1579992  55.0549978 104.3590014
  32.7879992  55.5289978 105.7480014  32.8350024  55.6606950 104.8887987
  32.4519992  55.7249978 107.5790014  31.5169992  55.8249978 107.7570014
  32.7319992  55.0149978 108.1570014  32.3618173  55.6427239 107.6814998
  35.4409992  44.7919978 119.6250014  35.0329992  45.2719978 118.9050014
  35.4809992  43.8859978 119.3170014  35.3905476  44.7353160 119.4848247
  22.5899992  51.1759978 117.6220014  22.8059992  50.8139978 118.4810014
  21.7339992  50.8009978 117.4120014  22.5039354  51.0757906 117.7112160
  25.2079992  39.6459978 113.6170014  24.3469992  39.5589978 113.2100014
  25.1859992  40.5019978 114.0450014  25.0870411  39.7497884 113.6190857
  29.8709992  39.3679978 116.9920014  30.2909992  38.9529978 117.7450014
  28.9379992  39.1889978 117.1090014  29.8023736  39.2869910 117.1108968
  33.1979992  43.1229978 117.8450014  32.6839992  42.9979978 118.6430014
  33.0419992  44.0359978 117.6010014  33.1066967  43.2292123 117.9210937
  29.5329992  41.8599978 104.2770014  29.2789992  41.8789978 105.2000014
  29.2759992  40.9889978 103.9760014  29.4635133  41.7448110 104.3625082
  25.2989992  44.6109978 114.7120014  24.6579992  44.5709978 115.4210014
  25.3369992  45.5379978 114.4750014  25.2163670  44.7307795 114.7770550
  25.2959992  44.8319978 109.6240014  24.4039992  44.4919978 109.5660014
  25.7469992  44.4549978 108.8690014  25.2346815  44.7343762 109.5139203
  30.8319992  45.2479978 108.4410014  30.4229992  46.0629978 108.1500014
  31.5519992  45.1079978 107.8270014  30.8734013  45.3406571 108.3180875
  29.9339992  45.4239978 119.9290014  29.3709992  44.7189978 120.2500014
  30.7599992  45.3029978 120.3970014  29.9686674  45.3112165 120.0361751
  31.8369992  44.6939978 111.2550014  31.6409992  45.2999978 110.5400014
  32.0179992  43.8609978 110.8210014  31.8346584  44.6642513 111.0984212
  23.0489992  44.9319978 116.5790014  23.0109992  45.3319978 117.4480014
  22.5589992  44.1149978 116.6700014  22.9775621  44.8762510 116.7101377
  19.6579992  42.0479978 110.4300014  20.2879992  42.0189978 111.1490014
  20.1069992  41.6229978 109.7000014  19.8050692  41.9865316 110.4297771
  20.9319992  42.7939978 105.8540014  21.4059992  43.3849978 105.2690014
  20.2139992  43.3239978 106.2010014  20.8998640  42.9465511 105.8207969
  31.1009992  46.3319978 115.9270014  31.4239992  45.7009978 115.2840014
  30.6599992  45.7979978 116.5870014  31.0855789  46.1733522 115.9282232
  27.8779992  42.2599978 110.7110014  26.9669992  42.3169978 110.9990014
  28.3829992  42.1999978 111.5210014  27.8215387  42.2596870 110.8600646
  22.7059992  43.8889978 109.5370014  21.8169992  43.9879978 109.1970014
  23.0029992  43.0469978 109.1910014  22.6244177  43.7887687 109.4436940
  26.3589992  43.8889978 107.1940014  27.2909992  44.0179978 107.3720014
  26.1439992  44.5579978 106.5440014  26.4574472  43.9970806 107.1304891
  32.2829992  41.4949978 113.9750014  31.6059992  41.6259978 114.6390014
  31.7979992  41.3399978 113.1650014  32.1247265  41.4919659 113.9563397
  35.5709992  57.1659978 120.2520014  35.7699992  57.5899978 119.4170014
  36.2259992  57.5099978 120.8590014  35.6868501  57.2706091 120.2197097
  23.1689992  49.6399978 119.8600014  23.9009992  49.8949978 120.4210014
  22.3879992  49.8449978 120.3750014  23.1637684  49.7026468 120.0064782
  29.1979992  45.0469978 112.5980014  29.7619992  44.5009978 112.0510014
  29.0499992  44.5259978 113.3860014  29.2552575  44.9016552 112.6296987
  24.1999992  41.1839978 109.0160014  23.8829992  40.2809978 108.9810014
  24.9809992  41.1859978 108.4630014  24.2622307  41.0606951 108.9364314
  27.8239992  43.4359978 115.0120014  26.9889992  43.8899978 115.1220014
  28.3479992  43.7119978 115.7640014  27.7805070  43.5354666 115.1287152
  28.3689992  49.6489978 106.6960014  27.6239992  49.1409978 106.3740014
  28.2339992  49.6979978 107.6430014  28.2489047  49.5861596 106.7798845
  35.5189992  48.7819978 115.4830014  36.1599992  49.2379978 114.9390014
  34.6879992  48.8949978 115.0210014  35.4945171  48.8597502 115.3460237
  29.8879992  49.8329978 117.9330014  29.5419992  49.4509978 118.7400014
  29.6879992  50.7659978 118.0050014  29.8136523  49.9069095 118.0530735
  32.9849992  44.3299978 106.5560014  33.8769992  44.1919978 106.8750014
  33.0409992  45.1209978 106.0200014  33.1147107  44.4180526 106.5272091
  23.4929992  48.9439978 112.4660014  24.2379992  48.9409978 111.8650014
  23.5709992  48.1199978 112.9480014  23.6054158  48.8322916 112.4489153
  20.5009992  47.4039978 117.7810014  20.7239992  46.9859978 118.6130014
  19.8989992  46.7919978 117.3580014  20.4501260  47.2639933 117.8377320
  27.5179992  46.9209978 119.9940014  27.2219992  46.7559978 119.0990014
  28.4489992  46.7009978 119.9830014  27.6033982  46.8686578 119.8700045
  32.1379992  52.2949978 117.8840014  31.2379992  52.4779978 117.6160014
  32.1719992  52.5539978 118.8050014  32.0192909  52.3550815 117.9717852
  37.8699992  44.5389978 106.2510014  37.3149992  44.1429978 105.5790014
  37.9699992  45.4499978 105.9730014  37.8075888  44.6078990 106.1215206
  37.8329992  50.3399978 119.0880014  36.9819992  50.5779978 118.7210014
  38.4229992  50.3229978 118.3350014  37.7962408  50.3702966 118.9358879
  36.1649992  53.3249978 106.7160014  35.7919992  52.4999978 107.0250014
  36.4419992  53.1419978 105.8190014  36.1513871  53.1872441 106.6369677
  33.3249992  48.1329978 113.7370014  32.3969992  47.9019978 113.7100014
  33.7759992  47.3559978 113.4070014  33.2588165  47.9962774 113.6886790
  25.8679992  52.4619978 109.8700014  26.3959992  53.2349978 109.6700014
  24.9879992  52.6859978 109.5690014  25.8213176  52.5983161 109.8018409
  27.2959992  50.1249978 109.4470014  27.0549992  51.0499978 109.4880014
  26.5549992  49.6659978 109.8430014  27.1628390  50.1896403 109.5061404
  27.8099992  54.2739978 115.7620014  28.1729992  55.1279978 115.5280014
  28.3419992  53.9819978 116.5020014  27.9316090  54.3514058 115.8300219
  25.9789992  55.1459978 108.9920014  25.0289992  55.2519978 109.0430014
  26.3309992  55.9669978 109.3370014  25.8965480  55.2714438 109.0455999
  31.3539992  50.3729978 115.4620014  30.9289992  50.1449978 116.2890014
  31.9349992  49.6339978 115.2800014  31.3743930  50.2419843 115.5504731
  34.0129992  54.9249978 117.9320014  33.4109992  54.3689978 117.4360014
  34.2939992  55.5919978 117.3060014  33.9686829  54.9391613 117.7795443
  22.1349992  42.1579978 117.3390014  21.2429992  42.4959978 117.2720014
  22.0369992  41.3019978 117.7570014  21.9994965  42.0886499 117.3863044
  34.4229992  49.9739978 106.7630014  34.1459992  49.2459978 107.3190014
  35.3509992  50.0929978 106.9680014  34.5104499  49.8904213 106.8668044
  21.7869992  53.9619978 115.7740014  22.0039992  53.0299978 115.7430014
  22.0329992  54.2369978 116.6570014  21.8499809  53.8715686 115.8891690
  27.6479992  52.4139978 102.9830014  27.8869992  51.6649978 102.4360014
  27.3789992  52.0259978 103.8160014  27.6443233  52.2591853 103.0207809
  26.5849992  51.9839978 105.4400014  26.7319992  51.4639978 106.2300014
  26.5819992  52.8909978 105.7460014  26.6047300  52.0353964 105.5895895
  23.0379992  49.2359978 105.9500014  22.3519992  49.5889978 106.5170014
  23.5609992  49.9989978 105.7040014  23.0149033  49.3873746 105.9942661
  30.8699992  41.8989978 116.2290014  31.5689992  41.9729978 116.8790014
  30.4889992  41.0339978 116.3830014  30.9142097  41.7922389 116.3387997
  29.3229992  53.6809978 106.1890014  28.5059992  54.1779978 106.2410014
  29.8519992  54.1569978 105.5490014  29.2828508  53.8132543 106.1096035
  28.8539992  43.2789978 108.1610014  29.6659992  43.7829978 108.2070014
  28.6099992  43.1339978 109.0750014  28.9321467  43.3283749 108.2908575
  29.3899992  44.2649978 117.3460014  29.5089992  44.8389978 118.1030014
  30.0449992  43.5769978 117.4600014  29.4949146  44.2505574 117.4651314
  29.7379992  40.3599978 109.0990014  29.3909992  40.9769978 109.7440014
  30.3969992  40.8609978 108.6180014  29.7795949  40.5121099 109.1222271
  26.6609992  54.7249978 106.1710014  26.8219992  55.5249978 105.6700014
  26.4639992  55.0319978 107.0560014  26.6563919  54.8759129 106.2221006
  25.3959992  41.4229978 105.7860014  25.3119992  42.3109978 106.1330014
  26.2859992  41.1579978 106.0180014  25.5048163  41.5087179 105.8648596
  35.5939992  42.1719978 118.1810014  34.6779992  42.4339978 118.0930014
  35.9299992  42.1689978 117.2840014  35.5139789  42.2074626 118.0477847
  34.1969992  45.9219978 112.2760014  33.3989992  45.5069978 111.9480014
  34.6419992  45.2319978 112.7670014  34.1479684  45.7718628 112.2975227
  35.2829992  55.1779978 113.8990014  35.1269992  55.8569978 113.2420014
  36.2159992  55.2499978 114.1020014  35.3877387  55.2806390 113.8365342
  22.7779992  39.2959978 112.6360014  22.5489992  39.3549978 111.7080014
  22.3359992  38.5049978 112.9420014  22.6868801  39.1970540 112.5504729
  21.7089992  53.2369978 108.7960014  20.8759992  53.7089978 108.8240014
  22.2539992  53.7469978 108.1980014  21.6687590  53.3705897 108.7189194
  20.9969992  55.8489978 120.1260014  21.5369992  55.6329978 120.8860014
  20.5159992  55.0439978 119.9370014  21.0058613  55.7105400 120.2044782
  25.5939992  54.7689978 121.7470014  26.3619992  54.3099978 122.0880014
  25.5729992  54.5429978 120.8170014  25.6962135  54.6756668 121.6679491
  32.1709992  53.1489978 120.4760014  31.8199992  52.2919978 120.7190014
  32.8969992  53.2909978 121.0830014  32.2211590  53.0510178 120.5912907
  20.9039992  49.6599978 121.0810014  21.0479992  48.7579978 120.7940014
  20.1319992  49.9459978 120.5930014  20.8193303  49.5753243 120.9757908
  27.5589992  49.6289978 120.5130014  27.2309992  49.8999978 119.6560014
  27.7109992  48.6879978 120.4260014  27.5346030  49.5388973 120.3837945
  33.2939992  49.5449978 117.8970014  34.0389992  50.1339978 117.7770014
  32.5369992  50.1269978 117.9600014  33.2935205  49.7041997 117.8891119
  21.7369992  46.8599978 120.5010014  22.1449992  46.0029978 120.3800014
  21.4759992  46.8739978 121.4220014  21.7576016  46.7445119 120.6089192
  26.3949992  47.9759978 105.5190014  25.9349992  47.4919978 106.2050014
  26.6499992  47.3069978 104.8830014  26.3665038  47.8193689 105.5269447
  25.6839992  45.8689978 117.8750014  25.0649992  46.5429978 118.1550014
  26.0279992  46.1899978 117.0420014  25.6457605  46.0047198 117.8006707
  27.4659992  46.2189978 103.7810014  27.2849992  46.0639978 102.8540014
  28.4159992  46.3269978 103.8260014  27.5696566  46.2123669 103.6600929
  30.7029992  48.3399978 121.1520014  31.6569992  48.4239978 121.1250014
  30.5429992  47.6279978 121.7720014  30.8117182  48.2552842 121.2320733
  26.0229992  43.2239978 118.9570014  26.1729992  42.4949978 118.3550014
  26.0249992  44.0009978 118.3980014  26.0437967  43.2292708 118.7990541
  26.4359992  41.5929978 116.4500014  26.9709992  42.0449978 115.7980014
  25.5829992  41.4849978 116.0270014  26.3940374  41.6402665 116.3036710
  28.0169992  47.0329978 116.6890014  28.7679992  46.8769978 116.1160014
  27.6779992  47.8849978 116.4140014  28.0739587  47.1268138 116.5734078
  32.4329992  44.8479978 121.7180014  32.6249992  43.9169978 121.6060014
  33.2909992  45.2729978 121.7080014  32.5752269  44.7779928 121.7013192
  33.7499992  47.6369978 119.7950014  33.4679992  48.3459978 119.2180014
  34.6919992  47.5639978 119.6440014  33.8387656  47.7243128 119.6954809
  24.5019992  44.4219978 120.8690014  23.7339992  43.8889978 120.6590014
  25.1799992  44.1119978 120.2690014  24.4886973  44.3072375 120.7591796
  27.2409992  39.0499978 116.8810014  27.1429992  39.9959978 116.7760014
  26.4989992  38.6769978 116.4060014  27.1271913  39.1291813 116.8023539
  28.5049992  43.3709978 120.4450014  28.2699992  43.1519978 121.3470014
  27.7219992  43.1639978 119.9350014  28.3669219  43.3130066 120.4995852
  31.2209992  42.4989978 119.5210014  30.2729992  42.5309978 119.6530014
  31.5329992  41.8729978 120.1740014  31.1335190  42.4187262 119.6273564
  32.8549992  41.1329978 121.5260014  32.7579992  40.1809978 121.5200014
  32.5329992  41.4009978 122.3860014  32.7981761  41.0389744 121.6414936
  22.6819992  42.3419978 120.5730014  22.8939992  41.6359978 119.9630014
  22.5709992  41.9049978 121.4170014  22.6960269  42.1861921 120.6035873
  27.4629992  38.3439978 119.5530014  28.1749992  37.7039978 119.5390014
  27.3619992  38.6099978 118.6390014  27.5467261  38.2924190 119.4275537
  27.8169992  40.0259978 121.6060014  27.6849992  39.5509978 120.7860014
  27.2169992  40.7709978 121.5510014  27.7179070  40.0615789 121.4863251
  27.3629992  56.9089978 104.7830014  28.2959992  57.0669978 104.9260014
  27.0989992  57.5849978 104.1580014  27.4549308  57.0219104 104.7181396
  19.5799992  56.9389978 109.3430014  18.9329992  56.4769978 108.8100014
  19.9349992  56.2669978 109.9250014  19.5394506  56.7849503 109.3487341
  20.4499992  55.0189978 111.1470014  20.1159992  54.1389978 111.3190014
  20.6729992  55.3649978 112.0120014  20.4343721  54.9451938 111.2874168
  37.9989992  55.8289978 114.1280014  37.9769992  56.0139978 115.0670014
  38.6889992  56.3969978 113.7870014  38.0893439  55.9311887 114.2104791
  37.5619992  55.3959978 117.0500014  37.0749992  54.6609978 116.6790014
  38.1109992  55.0019978 117.7280014  37.5695247  55.2421057 117.0908461
  36.0129992  51.1859978 121.6880014  35.1469992  51.0809978 122.0820014
  36.3889992  51.9439978 122.1340014  35.9453401  51.2741708 121.8022620
  37.3139992  49.4419978 107.2020014  38.1639992  49.8629978 107.3290014
  37.3189992  48.7019978 107.8090014  37.4311143  49.3996094 107.3014750
  37.7079992  47.4959978 109.0260014  36.9819992  47.0159978 109.4230014
  38.2899992  47.7009978 109.7580014  37.6871635  47.4579166 109.1793748
  37.4669992  50.2809978 113.9730014  38.3009992  49.9029978 113.6930014
  37.5789992  51.2239978 113.8540014  37.5962522  50.3567742 113.9186020
  35.9539992  53.1589978 116.2800014  35.3059992  53.4839978 116.9060014
  35.4359992  52.7179978 115.6060014  35.7954168  53.1438523 116.2745307
  35.4949992  46.0169978 109.5890014  35.3449992  45.0719978 109.5680014
  35.1409992  46.2979978 110.4320014  35.4265527  45.9255605 109.7001859
  20.5299992  48.0949978 113.5990014  20.7149992  48.0129978 112.6630014
  21.3799992  47.9709978 114.0230014  20.6700916  48.0670393 113.5282896
  36.3509992  47.9869978 119.2270014  36.9339992  47.2519978 119.4190014
  36.9149992  48.7589978 119.2740014  36.5069781  47.9908145 119.2596164
  37.8479992  45.8899978 119.9120014  36.9849992  45.5109978 119.7460014
  38.4519992  45.1509978 119.8380014  37.8115944  45.7382978 119.8792984
  35.2059992  43.5989978 108.0510014  35.4849992  42.6919978 108.1750014
  35.9649992  44.0329978 107.6620014  35.3468619  43.5334502 108.0153795
  35.8169992  44.1809978 113.4870014  36.7499992  44.3929978 113.4530014
  35.5819992  44.2819978 114.4090014  35.9128308  44.2236503 113.6070214
  35.8469992  44.9179978 116.2630014  35.0039992  45.1859978 116.6290014
  36.2889992  45.7399978 116.0520014  35.7914138  45.0658273 116.2845518
  20.1279992  43.3649978 119.7400014  21.0469992  43.2429978 119.9760014
  19.6779992  42.6149978 120.1290014  20.1931148  43.2468751 119.8249408
  38.1299992  38.8979978 121.6160014  38.4789992  38.2439978 121.0110014
  38.2769992  39.7349978 121.1770014  38.1977355  38.9216067 121.4736564
  35.8189992  40.8619978 108.0990014  36.0009992  40.4129978 108.9250014
  35.2189992  40.2779978 107.6360014  35.7627529  40.7216131 108.1493619
  21.3489992  41.6779978 112.6310014  21.7939992  40.8859978 112.9330014
  21.8149992  42.3939978 113.0620014  21.4729059  41.6664474 112.7306079
  19.6529992  44.6769978 113.7000014  20.1449992  44.4559978 112.9090014
  20.0149992  45.5169978 113.9810014  19.7692923  44.7603468 113.6297407
  37.6489992  41.0069978 119.9660014  36.7319992  41.2779978 119.9300014
  37.7719992  40.4719978 119.1820014  37.5400828  40.9717700 119.8550785
  37.6859992  40.9299978 104.6270014  38.0979992  40.2089978 104.1520014
  38.3669992  41.5989978 104.6860014  37.8345900  40.9217306 104.5699038
  19.9669992  40.9349978 107.7540014  19.0419992  41.1429978 107.6250014
  20.4209992  41.4189978 107.0650014  19.9016374  41.0289949 107.6430957
  34.7369992  55.9189978 109.7000014  35.3899992  55.5709978 109.0920014
  35.2479992  56.4069978 110.3460014  34.8952777  55.9373815 109.7042047
  19.9299992  39.6729978 116.0990014  19.2649992  39.4269978 116.7420014
  19.4869992  40.2949978 115.5210014  19.7790937  39.7233614 116.1089379
  22.1219992  52.8479978 120.2430014  21.3009992  53.0229978 119.7830014
  21.8699992  52.7749978 121.1640014  21.9756173  52.8620794 120.3044972
  25.0759992  53.8219978 116.5020014  24.6519992  54.6319978 116.2190014
  25.9809992  53.9079978 116.2000014  25.1402433  53.9443331 116.4225377
  29.3879992  55.2209978 119.4610014  29.5719992  54.8879978 120.3390014
  30.2339992  55.5309978 119.1390014  29.5276484  55.2172979 119.5377617
  31.7329992  56.5069978 118.7050014  32.4099992  55.8739978 118.4650014
  32.0539992  56.9079978 119.5120014  31.8691323  56.4745691 118.7813158
  36.6499992  39.0969978 117.7850014  35.8369992  39.4219978 117.3970014
  36.8829992  38.3359978 117.2520014  36.5702566  39.0386559 117.6599213
  22.4779992  57.0789978 116.5490014  21.7579992  57.5189978 116.0980014
  22.1129992  56.8279978 117.3980014  22.3299796  57.1053824 116.6019329
  24.9449992  56.6789978 115.5790014  24.0809992  56.7509978 115.9830014
  24.8899992  57.2259978 114.7950014  24.8191942  56.7627849 115.5284000
  29.6559992  56.5669978 114.7540014  29.1989992  57.0959978 114.1000014
  29.8189992  57.1699978 115.4800014  29.6154476  56.7209140 114.7625499
  31.9839992  55.4449978 115.6990014  31.0789992  55.6099978 115.4340014
  32.4119992  56.2979978 115.6340014  31.9180700  55.5829529 115.6539520
  34.5879992  57.0149978 115.9940014  34.4059992  57.9309978 115.7840014
  34.7649992  56.6039978 115.1480014  34.5869907  57.0849741 115.8507883
  21.8929992  55.7019978 113.4590014  21.8749992  55.2759978 114.3170014
  22.6979992  55.3829978 113.0510014  21.9993221  55.6007233 113.5210225
  24.0339992  54.4119978 112.1140014  23.8149992  53.4949978 112.2840014
  24.8579992  54.5519978 112.5800014  24.1154702  54.3055511 112.2002527
  26.5709992  54.8819978 112.9630014  26.7839992  53.9939978 112.6760014
  26.6359992  54.8469978 113.9180014  26.6089075  54.7558307 113.0527373
  30.0799992  40.5459978 112.1070014  29.4059992  39.9159978 112.3630014
  30.6439992  40.0619978 111.5040014  30.0640384  40.3943708 112.0605020
  35.2229992  38.6529978 112.2200014  35.8259992  39.2009978 111.7180014
  34.3529992  38.9719978 111.9800014  35.1879190  38.7711041 112.1188679
  36.9499992  39.7919978 110.5530014  37.5609992  39.2779978 110.0270014
  37.3319992  40.6689978 110.5770014  37.0854475  39.8401323 110.4841208
  22.4069992  39.1799978 109.9290014  21.6299992  38.9449978 109.4220014
  22.9369992  38.3829978 109.9380014  22.3723451  39.0401268 109.8608627
  21.2429992  38.9779978 105.7330014  21.6819992  39.5889978 105.1410014
  20.6089992  39.5159978 106.2070014  21.2173859  39.1344064 105.7160305
  26.9859992  39.1059978 109.7430014  27.8599992  39.4949978 109.7130014
  26.8499992  38.8909978 110.6650014  27.0873207  39.1301923 109.8636509
  32.5429992  39.1359978 111.3920014  32.6189992  39.2319978 110.4430014
  32.2679992  38.2289978 111.5210014  32.5162042  39.0264241 111.2793811
  21.1439992  54.9259978 106.6310014  20.4589992  54.8879978 105.9630014
  21.1479992  55.8389978 106.9190014  21.0508174  55.0441998 106.5785310
  28.1299992  41.1869978 106.6330014  28.3079992  40.5399978 107.3150014
  28.0759992  42.0209978 107.1000014  28.1471025  41.2110504 106.7896433
  36.7169992  55.6979978 107.7070014  36.5229992  54.9499978 107.1420014
  36.6779992  56.4559978 107.1240014  36.6851645  55.6980786 107.5508148
  22.3639992  39.6939978 119.4470014  21.9979992  38.9279978 119.8900014
  23.2769992  39.7229978 119.7340014  22.4373225  39.5931906 119.5463459
  24.3369992  39.0439978 120.9830014  25.2359992  38.7699978 120.7980014
  23.9509992  38.3019978 121.4470014  24.4077237  38.9061508 121.0204710
  32.7589992  38.3769978 121.1650014  32.8349992  37.9509978 122.0190014
  33.6519992  38.3899978 120.8220014  32.8902267  38.3203952 121.2355932
  35.9349992  54.4499978 119.8570014  35.1529992  54.2629978 119.3380014
  35.8629992  55.3789978 120.0750014  35.8180863  54.5500221 119.8153574
  50.3409992  48.3359978 109.8880014  50.4299992  49.2799978 109.7560014
  49.7029992  48.0609978 109.2300014  50.2669062  48.4279812 109.7809641
  49.2739992  47.5909978 113.3070014  49.2359992  46.9449978 114.0120014
  48.9519992  47.1239978 112.5360014  49.2252679  47.4394276 113.2992921
  41.6419992  47.2049978 114.9000014  41.6839992  46.5799978 115.6230014
  42.3449992  47.8289978 115.0820014  41.7427345  47.2037873 115.0235274
  52.9799992  50.5299978 111.6090014  52.5389992  49.8099978 112.0590014
  52.9669992  51.2509978 112.2380014  52.9177960  50.5288329 111.7557567
  42.5659992  51.6549978 113.4350014  42.1959992  50.8529978 113.0650014
  43.5069992  51.4869978 113.4810014  42.6425984  51.5224638 113.3905603
  39.1759992  45.3149978 108.8280014  38.7279992  46.1609978 108.8090014
  38.6149992  44.7359978 108.3120014  39.0389603  45.3523674 108.7556720
  39.8859992  47.4769978 110.9540014  40.0999992  46.7069978 111.4810014
  40.6239992  47.5669978 110.3500014  40.0149652  47.3838012 110.9445212
  50.0919992  55.6339978 111.8210014  50.7109992  54.9579978 111.5470014
  49.8829992  55.4159978 112.7290014  50.1486232  55.5117938 111.9062517
  47.6629992  50.0229978 113.7130014  47.9669992  49.3369978 113.1190014
  48.3849992  50.1419978 114.3310014  47.8021152  49.9452189 113.7152123
  56.3259992  41.6249978 114.5740014  56.3759992  42.2349978 115.3100014
  56.7519992  42.0859978 113.8510014  56.3904108  41.7707709 114.5770112
  50.8039992  44.4169978 114.0410014  50.9469992  43.4709978 114.0610014
  50.6979992  44.6239978 113.1120014  50.8092509  44.3154813 113.9182231
  43.9589992  42.5189978 111.3130014  44.0019992  43.3789978 110.8950014
  43.5009992  41.9669978 110.6790014  43.9029815  42.5620621 111.1701197
  51.6809992  42.6499978 109.7140014  52.3279992  42.3209978 110.3390014
  52.1909992  43.1669978 109.0910014  51.8384317  42.6749227 109.7152167
  40.5789992  44.9159978 112.0750014  41.2329992  44.3659978 112.5070014
  40.6029992  44.6419978 111.1580014  40.6717199  44.8037167 112.0101668
  45.7359992  46.4659978 111.2900014  46.3519992  45.9389978 111.8000014
  45.1489992  45.8259978 110.8870014  45.7409239  46.3074117 111.3052952
  56.7179992  43.1029978 116.8100014  56.0289992  43.7609978 116.7140014
  56.7329992  42.9049978 117.7460014  56.6256740  43.1663243 116.9234630
  42.7689992  41.4369978 115.3870014  42.5499992  41.9669978 114.6210014
  42.1009992  41.6629978 116.0340014  42.6487001  41.5401154 115.3696064
  50.1379992  50.9369978 108.9310014  49.8429992  50.6139978 108.0800014
  49.8139992  51.8369978 108.9720014  50.0537983  51.0144026 108.8199771
  45.3379992  49.1119978 115.6750014  44.5979992  49.7109978 115.7780014
  46.0519992  49.6659978 115.3590014  45.3333288  49.2687356 115.6463805
  53.4449992  41.9409978 111.6940014  53.2299992  41.1749978 112.2270014
  54.1009992  42.4129978 112.2070014  53.5042673  41.9000728 111.8361990
  42.3629992  43.3289978 113.3390014  42.9769992  43.9619978 113.7130014
  42.8749992  42.8569978 112.6830014  42.5162277  43.3517352 113.3014279
  43.7459992  51.0769978 116.4620014  43.7399992  51.9559978 116.0840014
  42.8919992  50.9929978 116.8870014  43.6297925  51.1859535 116.4676887
  39.8669992  50.7479978 107.2440014  39.5949992  50.9769978 106.3550014
  39.9119992  51.5849978 107.7040014  39.8358709  50.8926058 107.1846107
  53.4919992  52.3689978 113.9560014  52.5499992  52.4279978 114.1180014
  53.7679992  53.2749978 113.8190014  53.4005865  52.4995288 113.9596192
  53.7919992  40.6559978 115.3740014  53.0559992  41.2659978 115.3360014
  54.4759992  41.0709978 114.8470014  53.7835506  40.7956400 115.2976051
  46.7959992  38.7419978 112.8400014  46.6779992  37.7939978 112.7850014
  45.9409992  39.0749978 113.1130014  46.6642679  38.6571926 112.8693720
  51.7439992  54.1499978 110.5820014  52.1689992  53.4429978 110.0970014
  52.0609992  54.9519978 110.1650014  51.8450266  54.1615190 110.4592479
  52.9039992  52.0509978 109.0900014  52.6459992  51.3609978 108.4790014
  52.9749992  51.6079978 109.9360014  52.8782837  51.8967106 109.1206912
  54.5899992  50.6179978 117.5680014  54.7289992  50.0259978 116.8280014
  54.7569992  51.4909978 117.2110014  54.6315562  50.6549896 117.4186283
  49.0619992  47.5799978 107.3400014  48.3509992  48.1149978 106.9880014
  49.7529992  47.6349978 106.6800014  49.0580751  47.6606777 107.2025858
  56.4309992  46.9579978 115.6340014  55.7789992  47.6519978 115.7230014
  56.8969992  47.1679978 114.8240014  56.4045937  47.0815019 115.5367533
  52.4679992  47.7889978 108.2920014  51.7359992  48.0179978 108.8650014
  52.9149992  47.0759978 108.7470014  52.4282753  47.7238972 108.4319715
  52.3649992  45.9639978 117.3600014  52.4449992  46.7269978 117.9310014
  51.7639992  46.2429978 116.6690014  52.2947245  46.1062630 117.3448424
  44.1129992  48.4199978 110.1740014  43.7829992  48.0489978 109.3560014
  44.7019992  47.7489978 110.5210014  44.1473970  48.2786063 110.1089404
  45.4799992  51.8479978 112.8560014  45.3849992  51.2689978 112.0990014
  46.2089992  51.4769978 113.3520014  45.5656161  51.7185891 112.8195209
  44.4799992  47.1879978 113.8080014  45.0449992  47.3099978 113.0450014
  44.7989992  47.8259978 114.4470014  44.6003977  47.2908851 113.7899424
  50.7889992  52.6919978 114.5420014  50.5489992  53.3539978 115.1900014
  50.5909992  51.8569978 114.9670014  50.7293826  52.6698115 114.6881566
  45.3599992  51.5879978 118.5250014  45.0489992  52.3699978 118.9800014
  44.7099992  51.4349978 117.8390014  45.2295538  51.6744087 118.4945898
  51.3389992  46.9519978 105.9770014  51.9179992  47.1019978 106.7240014
  51.7529992  47.4219978 105.2540014  51.4743122  47.0361277 105.9815042
  42.2799992  47.7859978 117.7540014  42.3499992  48.4369978 118.4520014
  41.3889992  47.8889978 117.4190014  42.1691802  47.8889757 117.8042249
  49.0649992  53.6879978 109.4120014  49.5389992  53.9839978 110.1900014
  48.5019992  54.4269978 109.1790014  49.0537361  53.8282721 109.4868611
  43.5989992  53.6589978 119.2880014  43.6069992  53.5229978 118.3410014
  42.6829992  53.5419978 119.5400014  43.4762528  53.6245463 119.1923243
  43.1039992  47.4889978 107.7640014  42.8119992  48.2569978 107.2730014
  42.4289992  46.8299978 107.6010014  42.9728497  47.5049745 107.6748260
  39.1969992  49.8519978 116.5790014  38.6949992  49.8239978 115.7640014
  39.2019992  48.9469978 116.8880014  39.1290416  49.7257368 116.5093766
  38.9469992  52.6329978 113.4630014  39.8929992  52.4879978 113.4440014
  38.8339992  53.4169978 114.0000014  39.0613578  52.7191697 113.5330317
  57.1449992  53.2989978 119.1450014  57.0949992  52.3429978 119.1080014
  56.3179992  53.5659978 119.5460014  57.0263987  53.2045174 119.1941446
  48.1229992  52.8729978 118.0210014  48.2109992  53.6989978 118.4960014
  47.2599992  52.5429978 118.2700014  48.0183357  52.9415468 118.1197653
  48.5379992  56.6449978 107.8270014  48.4619992  56.5239978 106.8810014
  48.5699992  57.5939978 107.9460014  48.5319156  56.7567530 107.7135048
  42.1909992  55.4339978 109.6080014  42.3429992  55.0859978 110.4870014
  41.3399992  55.0769978 109.3530014  42.0967899  55.3381738 109.6937340
  51.6389992  55.7989978 104.8290014  52.0139992  55.0549978 104.3590014
  51.6439992  55.5289978 105.7480014  51.6910024  55.6606950 104.8887987
  51.3079992  55.7249978 107.5790014  50.3729992  55.8249978 107.7570014
  51.5879992  55.0149978 108.1570014  51.2178173  55.6427239 107.6814998
  54.2969992  44.7919978 119.6250014  53.8889992  45.2719978 118.9050014
  54.3369992  43.8859978 119.3170014  54.2465476  44.7353160 119.4848247
  41.4459992  51.1759978 117.6220014  41.6619992  50.8139978 118.4810014
  40.5899992  50.8009978 117.4120014  41.3599354  51.0757906 117.7112160
  44.0639992  39.6459978 113.6170014  43.2029992  39.5589978 113.2100014
  44.0419992  40.5019978 114.0450014  43.9430411  39.7497884 113.6190857
  48.7269992  39.3679978 116.9920014  49.1469992  38.9529978 117.7450014
  47.7939992  39.1889978 117.1090014  48.6583736  39.2869910 117.1108968
  52.0539992  43.1229978 117.8450014  51.5399992  42.9979978 118.6430014
  51.8979992  44.0359978 117.6010014  51.9626967  43.2292123 117.9210937
  44.1549992  44.6109978 114.7120014  43.5139992  44.5709978 115.4210014
  44.1929992  45.5379978 114.4750014  44.0723670  44.7307795 114.7770550
  44.1519992  44.8319978 109.6240014  43.2599992  44.4919978 109.5660014
  44.6029992  44.4549978 108.8690014  44.0906815  44.7343762 109.5139203
  49.6879992  45.2479978 108.4410014  49.2789992  46.0629978 108.1500014
  50.4079992  45.1079978 107.8270014  49.7294013  45.3406571 108.3180875
  48.7899992  45.4239978 119.9290014  48.2269992  44.7189978 120.2500014
  49.6159992  45.3029978 120.3970014  48.8246674  45.3112165 120.0361751
  50.6929992  44.6939978 111.2550014  50.4969992  45.2999978 110.5400014
  50.8739992  43.8609978 110.8210014  50.6906584  44.6642513 111.0984212
  41.9049992  44.9319978 116.5790014  41.8669992  45.3319978 117.4480014
  41.4149992  44.1149978 116.6700014  41.8335621  44.8762510 116.7101377
  45.2709992  42.3059978 103.3780014  44.8399992  41.8609978 104.1080014
  44.5529992  42.6769978 102.8660014  45.1149363  42.2952968 103.4086211
  38.5139992  42.0479978 110.4300014  39.1439992  42.0189978 111.1490014
  38.9629992  41.6229978 109.7000014  38.6610692  41.9865316 110.4297771
  39.7879992  42.7939978 105.8540014  40.2619992  43.3849978 105.2690014
  39.0699992  43.3239978 106.2010014  39.7558640  42.9465511 105.8207969
  49.9569992  46.3319978 115.9270014  50.2799992  45.7009978 115.2840014
  49.5159992  45.7979978 116.5870014  49.9415789  46.1733522 115.9282232
  46.7339992  42.2599978 110.7110014  45.8229992  42.3169978 110.9990014
  47.2389992  42.1999978 111.5210014  46.6775387  42.2596870 110.8600646
  41.5619992  43.8889978 109.5370014  40.6729992  43.9879978 109.1970014
  41.8589992  43.0469978 109.1910014  41.4804177  43.7887687 109.4436940
  45.2149992  43.8889978 107.1940014  46.1469992  44.0179978 107.3720014
  44.9999992  44.5579978 106.5440014  45.3134472  43.9970806 107.1304891
  51.1389992  41.4949978 113.9750014  50.4619992  41.6259978 114.6390014
  50.6539992  41.3399978 113.1650014  50.9807265  41.4919659 113.9563397
  43.8889992  45.0829978 104.7610014  43.3469992  44.7039978 104.0690014
  44.7229992  45.2779978 104.3320014  43.9275159  45.0575076 104.6084419
  54.4269992  57.1659978 120.2520014  54.6259992  57.5899978 119.4170014
  55.0819992  57.5099978 120.8590014  54.5428501  57.2706091 120.2197097
  42.0249992  49.6399978 119.8600014  42.7569992  49.8949978 120.4210014
  41.2439992  49.8449978 120.3750014  42.0197684  49.7026468 120.0064782
  48.0539992  45.0469978 112.5980014  48.6179992  44.5009978 112.0510014
  47.9059992  44.5259978 113.3860014  48.1112575  44.9016552 112.6296987
  43.0559992  41.1839978 109.0160014  42.7389992  40.2809978 108.9810014
  43.8369992  41.1859978 108.4630014  43.1182307  41.0606951 108.9364314
  46.6799992  43.4359978 115.0120014  45.8449992  43.8899978 115.1220014
  47.2039992  43.7119978 115.7640014  46.6365070  43.5354665 115.1287152
  47.2249992  49.6489978 106.6960014  46.4799992  49.1409978 106.3740014
  47.0899992  49.6979978 107.6430014  47.1049047  49.5861596 106.7798845
  54.3749992  48.7819978 115.4830014  55.0159992  49.2379978 114.9390014
  53.5439992  48.8949978 115.0210014  54.3505171  48.8597502 115.3460237
  48.7439992  49.8329978 117.9330014  48.3979992  49.4509978 118.7400014
  48.5439992  50.7659978 118.0050014  48.6696523  49.9069095 118.0530735
  42.3489992  48.9439978 112.4660014  43.0939992  48.9409978 111.8650014
  42.4269992  48.1199978 112.9480014  42.4614158  48.8322916 112.4489153
  49.3499992  51.1069978 105.7220014  49.0549992  51.9339978 106.1030014
  48.6469992  50.4879978 105.9180014  49.2145471  51.1365227 105.8006698
  39.3569992  47.4039978 117.7810014  39.5799992  46.9859978 118.6130014
  38.7549992  46.7919978 117.3580014  39.3061260  47.2639933 117.8377320
  46.3739992  46.9209978 119.9940014  46.0779992  46.7559978 119.0990014
  47.3049992  46.7009978 119.9830014  46.4593982  46.8686578 119.8700045
  50.9939992  52.2949978 117.8840014  50.0939992  52.4779978 117.6160014
  51.0279992  52.5539978 118.8050014  50.8752909  52.3550815 117.9717852
  56.7259992  44.5389978 106.2510014  56.1709992  44.1429978 105.5790014
  56.8259992  45.4499978 105.9730014  56.6635888  44.6078990 106.1215206
  56.6889992  50.3399978 119.0880014  55.8379992  50.5779978 118.7210014
  57.2789992  50.3229978 118.3350014  56.6522408  50.3702966 118.9358879
  55.0209992  53.3249978 106.7160014  54.6479992  52.4999978 107.0250014
  55.2979992  53.1419978 105.8190014  55.0073871  53.1872441 106.6369677
  52.1809992  48.1329978 113.7370014  51.2529992  47.9019978 113.7100014
  52.6319992  47.3559978 113.4070014  52.1148165  47.9962774 113.6886790
  44.7239992  52.4619978 109.8700014  45.2519992  53.2349978 109.6700014
  43.8439992  52.6859978 109.5690014  44.6773176  52.5983161 109.8018409
  46.1519992  50.1249978 109.4470014  45.9109992  51.0499978 109.4880014
  45.4109992  49.6659978 109.8430014  46.0188390  50.1896403 109.5061404
  46.6659992  54.2739978 115.7620014  47.0289992  55.1279978 115.5280014
  47.1979992  53.9819978 116.5020014  46.7876090  54.3514058 115.8300219
  44.8349992  55.1459978 108.9920014  43.8849992  55.2519978 109.0430014
  45.1869992  55.9669978 109.3370014  44.7525480  55.2714438 109.0455999
  50.2099992  50.3729978 115.4620014  49.7849992  50.1449978 116.2890014
  50.7909992  49.6339978 115.2800014  50.2303930  50.2419843 115.5504732
  52.8689992  54.9249978 117.9320014  52.2669992  54.3689978 117.4360014
  53.1499992  55.5919978 117.3060014  52.8246829  54.9391613 117.7795443
  40.9909992  42.1579978 117.3390014  40.0989992  42.4959978 117.2720014
  40.8929992  41.3019978 117.7570014  40.8554965  42.0886499 117.3863044
  53.2789992  49.9739978 106.7630014  53.0019992  49.2459978 107.3190014
  54.2069992  50.0929978 106.9680014  53.3664499  49.8904213 106.8668044
  40.6429992  53.9619978 115.7740014  40.8599992  53.0299978 115.7430014
  40.8889992  54.2369978 116.6570014  40.7059809  53.8715686 115.8891690
  45.4409992  51.9839978 105.4400014  45.5879992  51.4639978 106.2300014
  45.4379992  52.8909978 105.7460014  45.4607300  52.0353964 105.5895895
  41.8939992  49.2359978 105.9500014  41.2079992  49.5889978 106.5170014
  42.4169992  49.9989978 105.7040014  41.8709033  49.3873746 105.9942661
  49.7259992  41.8989978 116.2290014  50.4249992  41.9729978 116.8790014
  49.3449992  41.0339978 116.3830014  49.7702097  41.7922389 116.3387997
  50.5099992  41.5509978 107.3260014  50.7299992  42.0219978 106.5230014
  51.0689992  41.9449978 107.9960014  50.6156730  41.6687432 107.3065906
  47.7099992  43.2789978 108.1610014  48.5219992  43.7829978 108.2070014
  47.4659992  43.1339978 109.0750014  47.7881467  43.3283749 108.2908575
  48.2459992  44.2649978 117.3460014  48.3649992  44.8389978 118.1030014
  48.9009992  43.5769978 117.4600014  48.3509146  44.2505574 117.4651313
  48.5939992  40.3599978 109.0990014  48.2469992  40.9769978 109.7440014
  49.2529992  40.8609978 108.6180014  48.6355949  40.5121099 109.1222271
  44.2519992  41.4229978 105.7860014  44.1679992  42.3109978 106.1330014
  45.1419992  41.1579978 106.0180014  44.3608163  41.5087179 105.8648596
  54.4499992  42.1719978 118.1810014  53.5339992  42.4339978 118.0930014
  54.7859992  42.1689978 117.2840014  54.3699789  42.2074626 118.0477847
  53.0529992  45.9219978 112.2760014  52.2549992  45.5069978 111.9480014
  53.4979992  45.2319978 112.7670014  53.0039684  45.7718628 112.2975227
  42.5099992  51.8499978 104.8470014  43.1019992  52.5499978 105.1230014
  42.9689992  51.4169978 104.1270014  42.6530791  51.8872908 104.7874607
  54.1389992  55.1779978 113.8990014  53.9829992  55.8569978 113.2420014
  55.0719992  55.2499978 114.1020014  54.2437387  55.2806390 113.8365342
  41.6339992  39.2959978 112.6360014  41.4049992  39.3549978 111.7080014
  41.1919992  38.5049978 112.9420014  41.5428801  39.1970540 112.5504729
  40.5649992  53.2369978 108.7960014  39.7319992  53.7089978 108.8240014
  41.1099992  53.7469978 108.1980014  40.5247590  53.3705897 108.7189194
  39.8529992  55.8489978 120.1260014  40.3929992  55.6329978 120.8860014
  39.3719992  55.0439978 119.9370014  39.8618613  55.7105400 120.2044782
  44.4499992  54.7689978 121.7470014  45.2179992  54.3099978 122.0880014
  44.4289992  54.5429978 120.8170014  44.5522135  54.6756668 121.6679491
  51.0269992  53.1489978 120.4760014  50.6759992  52.2919978 120.7190014
  51.7529992  53.2909978 121.0830014  51.0771590  53.0510178 120.5912907
  53.1469992  54.0939978 103.3560014  53.4299992  53.2989978 103.8080014
  53.8859992  54.3269978 102.7950014  53.2856956  54.0167031 103.3419821
  39.7599992  49.6599978 121.0810014  39.9039992  48.7579978 120.7940014
  38.9879992  49.9459978 120.5930014  39.6753303  49.5753243 120.9757908
  46.4149992  49.6289978 120.5130014  46.0869992  49.8999978 119.6560014
  46.5669992  48.6879978 120.4260014  46.3906030  49.5388973 120.3837945
  52.1499992  49.5449978 117.8970014  52.8949992  50.1339978 117.7770014
  51.3929992  50.1269978 117.9600014  52.1495205  49.7041997 117.8891119
  40.5929992  46.8599978 120.5010014  41.0009992  46.0029978 120.3800014
  40.3319992  46.8739978 121.4220014  40.6136016  46.7445119 120.6089192
  45.2509992  47.9759978 105.5190014  44.7909992  47.4919978 106.2050014
  45.5059992  47.3069978 104.8830014  45.2225038  47.8193689 105.5269447
  44.5399992  45.8689978 117.8750014  43.9209992  46.5429978 118.1550014
  44.8839992  46.1899978 117.0420014  44.5017605  46.0047198 117.8006707
  46.3219992  46.2189978 103.7810014  46.1409992  46.0639978 102.8540014
  47.2719992  46.3269978 103.8260014  46.4256566  46.2123669 103.6600929
  49.5589992  48.3399978 121.1520014  50.5129992  48.4239978 121.1250014
  49.3989992  47.6279978 121.7720014  49.6677182  48.2552842 121.2320733
  44.8789992  43.2239978 118.9570014  45.0289992  42.4949978 118.3550014
  44.8809992  44.0009978 118.3980014  44.8997967  43.2292708 118.7990541
  45.2919992  41.5929978 116.4500014  45.8269992  42.0449978 115.7980014
  44.4389992  41.4849978 116.0270014  45.2500374  41.6402665 116.3036710
  46.8729992  47.0329978 116.6890014  47.6239992  46.8769978 116.1160014
  46.5339992  47.8849978 116.4140014  46.9299587  47.1268138 116.5734078
  51.2889992  44.8479978 121.7180014  51.4809992  43.9169978 121.6060014
  52.1469992  45.2729978 121.7080014  51.4312269  44.7779928 121.7013192
  52.6059992  47.6369978 119.7950014  52.3239992  48.3459978 119.2180014
  53.5479992  47.5639978 119.6440014  52.6947656  47.7243128 119.6954809
  43.3579992  44.4219978 120.8690014  42.5899992  43.8889978 120.6590014
  44.0359992  44.1119978 120.2690014  43.3446973  44.3072375 120.7591796
  46.0969992  39.0499978 116.8810014  45.9989992  39.9959978 116.7760014
  45.3549992  38.6769978 116.4060014  45.9831913  39.1291813 116.8023539
  47.3609992  43.3709978 120.4450014  47.1259992  43.1519978 121.3470014
  46.5779992  43.1639978 119.9350014  47.2229219  43.3130066 120.4995852
  50.0769992  42.4989978 119.5210014  49.1289992  42.5309978 119.6530014
  50.3889992  41.8729978 120.1740014  49.9895190  42.4187262 119.6273564
  51.7109992  41.1329978 121.5260014  51.6139992  40.1809978 121.5200014
  51.3889992  41.4009978 122.3860014  51.6541761  41.0389744 121.6414936
  41.5379992  42.3419978 120.5730014  41.7499992  41.6359978 119.9630014
  41.4269992  41.9049978 121.4170014  41.5520269  42.1861921 120.6035873
  46.3189992  38.3439978 119.5530014  47.0309992  37.7039978 119.5390014
  46.2179992  38.6099978 118.6390014  46.4027261  38.2924190 119.4275537
  46.6729992  40.0259978 121.6060014  46.5409992  39.5509978 120.7860014
  46.0729992  40.7709978 121.5510014  46.5739070  40.0615789 121.4863251
  38.4359992  56.9389978 109.3430014  37.7889992  56.4769978 108.8100014
  38.7909992  56.2669978 109.9250014  38.3954506  56.7849503 109.3487341
  39.3059992  55.0189978 111.1470014  38.9719992  54.1389978 111.3190014
  39.5289992  55.3649978 112.0120014  39.2903721  54.9451938 111.2874168
  56.8549992  55.8289978 114.1280014  56.8329992  56.0139978 115.0670014
  57.5449992  56.3969978 113.7870014  56.9453439  55.9311887 114.2104791
  56.4179992  55.3959978 117.0500014  55.9309992  54.6609978 116.6790014
  56.9669992  55.0019978 117.7280014  56.4255247  55.2421057 117.0908461
  54.8689992  51.1859978 121.6880014  54.0029992  51.0809978 122.0820014
  55.2449992  51.9439978 122.1340014  54.8013401  51.2741708 121.8022620
  56.1699992  49.4419978 107.2020014  57.0199992  49.8629978 107.3290014
  56.1749992  48.7019978 107.8090014  56.2871143  49.3996094 107.3014750
  56.5639992  47.4959978 109.0260014  55.8379992  47.0159978 109.4230014
  57.1459992  47.7009978 109.7580014  56.5431635  47.4579166 109.1793748
  56.3229992  50.2809978 113.9730014  57.1569992  49.9029978 113.6930014
  56.4349992  51.2239978 113.8540014  56.4522522  50.3567742 113.9186020
  54.8099992  53.1589978 116.2800014  54.1619992  53.4839978 116.9060014
  54.2919992  52.7179978 115.6060014  54.6514168  53.1438523 116.2745307
  54.3509992  46.0169978 109.5890014  54.2009992  45.0719978 109.5680014
  53.9969992  46.2979978 110.4320014  54.2825527  45.9255605 109.7001859
  39.3859992  48.0949978 113.5990014  39.5709992  48.0129978 112.6630014
  40.2359992  47.9709978 114.0230014  39.5260916  48.0670393 113.5282896
  55.2069992  47.9869978 119.2270014  55.7899992  47.2519978 119.4190014
  55.7709992  48.7589978 119.2740014  55.3629781  47.9908145 119.2596164
  56.7039992  45.8899978 119.9120014  55.8409992  45.5109978 119.7460014
  57.3079992  45.1509978 119.8380014  56.6675944  45.7382978 119.8792984
  54.0619992  43.5989978 108.0510014  54.3409992  42.6919978 108.1750014
  54.8209992  44.0329978 107.6620014  54.2028619  43.5334502 108.0153795
  54.6729992  44.1809978 113.4870014  55.6059992  44.3929978 113.4530014
  54.4379992  44.2819978 114.4090014  54.7688308  44.2236503 113.6070214
  54.7029992  44.9179978 116.2630014  53.8599992  45.1859978 116.6290014
  55.1449992  45.7399978 116.0520014  54.6474138  45.0658273 116.2845518
  38.9839992  43.3649978 119.7400014  39.9029992  43.2429978 119.9760014
  38.5339992  42.6149978 120.1290014  39.0491148  43.2468751 119.8249408
  56.9859992  38.8979978 121.6160014  57.3349992  38.2439978 121.0110014
  57.1329992  39.7349978 121.1770014  57.0537355  38.9216067 121.4736564
  54.6749992  40.8619978 108.0990014  54.8569992  40.4129978 108.9250014
  54.0749992  40.2779978 107.6360014  54.6187529  40.7216131 108.1493619
  40.2049992  41.6779978 112.6310014  40.6499992  40.8859978 112.9330014
  40.6709992  42.3939978 113.0620014  40.3289059  41.6664474 112.7306079
  38.5089992  44.6769978 113.7000014  39.0009992  44.4559978 112.9090014
  38.8709992  45.5169978 113.9810014  38.6252923  44.7603468 113.6297407
  56.5049992  41.0069978 119.9660014  55.5879992  41.2779978 119.9300014
  56.6279992  40.4719978 119.1820014  56.3960828  40.9717700 119.8550785
  38.8229992  40.9349978 107.7540014  37.8979992  41.1429978 107.6250014
  39.2769992  41.4189978 107.0650014  38.7576374  41.0289949 107.6430957
  53.5929992  55.9189978 109.7000014  54.2459992  55.5709978 109.0920014
  54.1039992  56.4069978 110.3460014  53.7512777  55.9373815 109.7042047
  38.7859992  39.6729978 116.0990014  38.1209992  39.4269978 116.7420014
  38.3429992  40.2949978 115.5210014  38.6350937  39.7233614 116.1089379
  40.9779992  52.8479978 120.2430014  40.1569992  53.0229978 119.7830014
  40.7259992  52.7749978 121.1640014  40.8316173  52.8620794 120.3044972
  43.9319992  53.8219978 116.5020014  43.5079992  54.6319978 116.2190014
  44.8369992  53.9079978 116.2000014  43.9962433  53.9443331 116.4225377
  48.2439992  55.2209978 119.4610014  48.4279992  54.8879978 120.3390014
  49.0899992  55.5309978 119.1390014  48.3836484  55.2172979 119.5377617
  50.5889992  56.5069978 118.7050014  51.2659992  55.8739978 118.4650014
  50.9099992  56.9079978 119.5120014  50.7251323  56.4745691 118.7813158
  55.5059992  39.0969978 117.7850014  54.6929992  39.4219978 117.3970014
  55.7389992  38.3359978 117.2520014  55.4262566  39.0386559 117.6599213
  41.3339992  57.0789978 116.5490014  40.6139992  57.5189978 116.0980014
  40.9689992  56.8279978 117.3980014  41.1859796  57.1053824 116.6019329
  43.8009992  56.6789978 115.5790014  42.9369992  56.7509978 115.9830014
  43.7459992  57.2259978 114.7950014  43.6751942  56.7627849 115.5284000
  48.5119992  56.5669978 114.7540014  48.0549992  57.0959978 114.1000014
  48.6749992  57.1699978 115.4800014  48.4714476  56.7209140 114.7625499
  50.8399992  55.4449978 115.6990014  49.9349992  55.6099978 115.4340014
  51.2679992  56.2979978 115.6340014  50.7740700  55.5829529 115.6539520
  53.4439992  57.0149978 115.9940014  53.2619992  57.9309978 115.7840014
  53.6209992  56.6039978 115.1480014  53.4429907  57.0849741 115.8507883
  40.7489992  55.7019978 113.4590014  40.7309992  55.2759978 114.3170014
  41.5539992  55.3829978 113.0510014  40.8553221  55.6007233 113.5210225
  42.8899992  54.4119978 112.1140014  42.6709992  53.4949978 112.2840014
  43.7139992  54.5519978 112.5800014  42.9714702  54.3055511 112.2002527
  45.4269992  54.8819978 112.9630014  45.6399992  53.9939978 112.6760014
  45.4919992  54.8469978 113.9180014  45.4649075  54.7558307 113.0527373
  48.9359992  40.5459978 112.1070014  48.2619992  39.9159978 112.3630014
  49.4999992  40.0619978 111.5040014  48.9200384  40.3943708 112.0605020
  54.0789992  38.6529978 112.2200014  54.6819992  39.2009978 111.7180014
  53.2089992  38.9719978 111.9800014  54.0439190  38.7711041 112.1188679
  55.8059992  39.7919978 110.5530014  56.4169992  39.2779978 110.0270014
  56.1879992  40.6689978 110.5770014  55.9414475  39.8401323 110.4841208
  41.2629992  39.1799978 109.9290014  40.4859992  38.9449978 109.4220014
  41.7929992  38.3829978 109.9380014  41.2283451  39.0401268 109.8608627
  45.8419992  39.1059978 109.7430014  46.7159992  39.4949978 109.7130014
  45.7059992  38.8909978 110.6650014  45.9433207  39.1301923 109.8636509
  51.3989992  39.1359978 111.3920014  51.4749992  39.2319978 110.4430014
  51.1239992  38.2289978 111.5210014  51.3722042  39.0264241 111.2793811
  52.7519992  39.1619978 107.0840014  52.0489992  39.7769978 106.8750014
  52.3069992  38.3249978 107.2160014  52.5956292  39.1330085 107.0732439
  41.9599992  40.8939978 104.1750014  42.4509992  40.2639978 103.6480014
  42.5829992  41.1899978 104.8390014  42.1115062  40.8476770 104.1925438
  55.5729992  55.6979978 107.7070014  55.3789992  54.9499978 107.1420014
  55.5339992  56.4559978 107.1240014  55.5411645  55.6980786 107.5508148
  41.2199992  39.6939978 119.4470014  40.8539992  38.9279978 119.8900014
  42.1329992  39.7229978 119.7340014  41.2933225  39.5931906 119.5463459
  43.1929992  39.0439978 120.9830014  44.0919992  38.7699978 120.7980014
  42.8069992  38.3019978 121.4470014  43.2637237  38.9061508 121.0204710
  51.6149992  38.3769978 121.1650014  51.6909992  37.9509978 122.0190014
  52.5079992  38.3899978 120.8220014  51.7462267  38.3203952 121.2355932
  54.7909992  54.4499978 119.8570014  54.0089992  54.2629978 119.3380014
  54.7189992  55.3789978 120.0750014  54.6740863  54.5500221 119.8153574
  69.1969992  48.3359978 109.8880014  69.2859992  49.2799978 109.7560014
  68.5589992  48.0609978 109.2300014  69.1229062  48.4279812 109.7809641
  68.1299992  47.5909978 113.3070014  68.0919992  46.9449978 114.0120014
  67.8079992  47.1239978 112.5360014  68.0812679  47.4394276 113.2992921
  60.4979992  47.2049978 114.9000014  60.5399992  46.5799978 115.6230014
  61.2009992  47.8289978 115.0820014  60.5987345  47.2037873 115.0235274
  71.8359992  50.5299978 111.6090014  71.3949992  49.8099978 112.0590014
  71.8229992  51.2509978 112.2380014  71.7737960  50.5288329 111.7557567
  61.4219992  51.6549978 113.4350014  61.0519992  50.8529978 113.0650014
  62.3629992  51.4869978 113.4810014  61.4985984  51.5224638 113.3905603
  58.0319992  45.3149978 108.8280014  57.5839992  46.1609978 108.8090014
  57.4709992  44.7359978 108.3120014  57.8949603  45.3523674 108.7556720
  58.7419992  47.4769978 110.9540014  58.9559992  46.7069978 111.4810014
  59.4799992  47.5669978 110.3500014  58.8709652  47.3838012 110.9445212
  68.9479992  55.6339978 111.8210014  69.5669992  54.9579978 111.5470014
  68.7389992  55.4159978 112.7290014  69.0046232  55.5117938 111.9062517
  66.5189992  50.0229978 113.7130014  66.8229992  49.3369978 113.1190014
  67.2409992  50.1419978 114.3310014  66.6581152  49.9452189 113.7152124
  75.1819992  41.6249978 114.5740014  75.2319992  42.2349978 115.3100014
  75.6079992  42.0859978 113.8510014  75.2464108  41.7707709 114.5770112
  69.6599992  44.4169978 114.0410014  69.8029992  43.4709978 114.0610014
  69.5539992  44.6239978 113.1120014  69.6652509  44.3154813 113.9182231
  62.8149992  42.5189978 111.3130014  62.8579992  43.3789978 110.8950014
  62.3569992  41.9669978 110.6790014  62.7589815  42.5620621 111.1701197
  70.5369992  42.6499978 109.7140014  71.1839992  42.3209978 110.3390014
  71.0469992  43.1669978 109.0910014  70.6944317  42.6749227 109.7152167
  59.4349992  44.9159978 112.0750014  60.0889992  44.3659978 112.5070014
  59.4589992  44.6419978 111.1580014  59.5277199  44.8037167 112.0101668
  64.5919992  46.4659978 111.2900014  65.2079992  45.9389978 111.8000014
  64.0049992  45.8259978 110.8870014  64.5969239  46.3074117 111.3052952
  75.5739992  43.1029978 116.8100014  74.8849992  43.7609978 116.7140014
  75.5889992  42.9049978 117.7460014  75.4816740  43.1663243 116.9234630
  61.6249992  41.4369978 115.3870014  61.4059992  41.9669978 114.6210014
  60.9569992  41.6629978 116.0340014  61.5047001  41.5401154 115.3696064
  68.9939992  50.9369978 108.9310014  68.6989992  50.6139978 108.0800014
  68.6699992  51.8369978 108.9720014  68.9097983  51.0144026 108.8199771
  64.1939992  49.1119978 115.6750014  63.4539992  49.7109978 115.7780014
  64.9079992  49.6659978 115.3590014  64.1893288  49.2687356 115.6463805
  72.3009992  41.9409978 111.6940014  72.0859992  41.1749978 112.2270014
  72.9569992  42.4129978 112.2070014  72.3602673  41.9000728 111.8361990
  61.2189992  43.3289978 113.3390014  61.8329992  43.9619978 113.7130014
  61.7309992  42.8569978 112.6830014  61.3722277  43.3517352 113.3014279
  62.6019992  51.0769978 116.4620014  62.5959992  51.9559978 116.0840014
  61.7479992  50.9929978 116.8870014  62.4857925  51.1859535 116.4676887
  58.7229992  50.7479978 107.2440014  58.4509992  50.9769978 106.3550014
  58.7679992  51.5849978 107.7040014  58.6918709  50.8926058 107.1846107
  72.3479992  52.3689978 113.9560014  71.4059992  52.4279978 114.1180014
  72.6239992  53.2749978 113.8190014  72.2565865  52.4995288 113.9596192
  72.6479992  40.6559978 115.3740014  71.9119992  41.2659978 115.3360014
  73.3319992  41.0709978 114.8470014  72.6395506  40.7956400 115.2976051
  65.6519992  38.7419978 112.8400014  65.5339992  37.7939978 112.7850014
  64.7969992  39.0749978 113.1130014  65.5202679  38.6571926 112.8693720
  70.5999992  54.1499978 110.5820014  71.0249992  53.4429978 110.0970014
  70.9169992  54.9519978 110.1650014  70.7010266  54.1615190 110.4592479
  71.7599992  52.0509978 109.0900014  71.5019992  51.3609978 108.4790014
  71.8309992  51.6079978 109.9360014  71.7342837  51.8967106 109.1206912
  73.4459992  50.6179978 117.5680014  73.5849992  50.0259978 116.8280014
  73.6129992  51.4909978 117.2110014  73.4875562  50.6549896 117.4186283
  67.9179992  47.5799978 107.3400014  67.2069992  48.1149978 106.9880014
  68.6089992  47.6349978 106.6800014  67.9140751  47.6606777 107.2025858
  75.2869992  46.9579978 115.6340014  74.6349992  47.6519978 115.7230014
  75.7529992  47.1679978 114.8240014  75.2605937  47.0815019 115.5367533
  71.3239992  47.7889978 108.2920014  70.5919992  48.0179978 108.8650014
  71.7709992  47.0759978 108.7470014  71.2842753  47.7238972 108.4319715
  71.2209992  45.9639978 117.3600014  71.3009992  46.7269978 117.9310014
  70.6199992  46.2429978 116.6690014  71.1507245  46.1062630 117.3448424
  62.9689992  48.4199978 110.1740014  62.6389992  48.0489978 109.3560014
  63.5579992  47.7489978 110.5210014  63.0033970  48.2786063 110.1089404
  64.3359992  51.8479978 112.8560014  64.2409992  51.2689978 112.0990014
  65.0649992  51.4769978 113.3520014  64.4216161  51.7185891 112.8195209
  63.3359992  47.1879978 113.8080014  63.9009992  47.3099978 113.0450014
  63.6549992  47.8259978 114.4470014  63.4563977  47.2908851 113.7899424
  69.6449992  52.6919978 114.5420014  69.4049992  53.3539978 115.1900014
  69.4469992  51.8569978 114.9670014  69.5853826  52.6698115 114.6881566
  64.2159992  51.5879978 118.5250014  63.9049992  52.3699978 118.9800014
  63.5659992  51.4349978 117.8390014  64.0855538  51.6744087 118.4945898
  70.1949992  46.9519978 105.9770014  70.7739992  47.1019978 106.7240014
  70.6089992  47.4219978 105.2540014  70.3303122  47.0361277 105.9815042
  61.1359992  47.7859978 117.7540014  61.2059992  48.4369978 118.4520014
  60.2449992  47.8889978 117.4190014  61.0251802  47.8889757 117.8042249
  67.9209992  53.6879978 109.4120014  68.3949992  53.9839978 110.1900014
  67.3579992  54.4269978 109.1790014  67.9097361  53.8282721 109.4868611
  62.4549992  53.6589978 119.2880014  62.4629992  53.5229978 118.3410014
  61.5389992  53.5419978 119.5400014  62.3322528  53.6245463 119.1923243
  73.8939992  38.7019978 105.7900014  72.9939992  38.8409978 106.0850014
  74.1459992  39.5329978 105.3880014  73.8048683  38.8334055 105.7760232
  61.9599992  47.4889978 107.7640014  61.6679992  48.2569978 107.2730014
  61.2849992  46.8299978 107.6010014  61.8288497  47.5049745 107.6748260
  58.0529992  49.8519978 116.5790014  57.5509992  49.8239978 115.7640014
  58.0579992  48.9469978 116.8880014  57.9850416  49.7257368 116.5093766
  57.8029992  52.6329978 113.4630014  58.7489992  52.4879978 113.4440014
  57.6899992  53.4169978 114.0000014  57.9173578  52.7191697 113.5330317
  76.0009992  53.2989978 119.1450014  75.9509992  52.3429978 119.1080014
  75.1739992  53.5659978 119.5460014  75.8823987  53.2045174 119.1941446
  66.9789992  52.8729978 118.0210014  67.0669992  53.6989978 118.4960014
  66.1159992  52.5429978 118.2700014  66.8743357  52.9415468 118.1197653
  67.3939992  56.6449978 107.8270014  67.3179992  56.5239978 106.8810014
  67.4259992  57.5939978 107.9460014  67.3879156  56.7567530 107.7135048
  61.0469992  55.4339978 109.6080014  61.1989992  55.0859978 110.4870014
  60.1959992  55.0769978 109.3530014  60.9527899  55.3381738 109.6937340
  73.1529992  44.7919978 119.6250014  72.7449992  45.2719978 118.9050014
  73.1929992  43.8859978 119.3170014  73.1025476  44.7353160 119.4848247
  60.3019992  51.1759978 117.6220014  60.5179992  50.8139978 118.4810014
  59.4459992  50.8009978 117.4120014  60.2159354  51.0757906 117.7112160
  62.9199992  39.6459978 113.6170014  62.0589992  39.5589978 113.2100014
  62.8979992  40.5019978 114.0450014  62.7990411  39.7497884 113.6190857
  67.5829992  39.3679978 116.9920014  68.0029992  38.9529978 117.7450014
  66.6499992  39.1889978 117.1090014  67.5143736  39.2869910 117.1108968
  70.9099992  43.1229978 117.8450014  70.3959992  42.9979978 118.6430014
  70.7539992  44.0359978 117.6010014  70.8186967  43.2292123 117.9210937
  67.2449992  41.8599978 104.2770014  66.9909992  41.8789978 105.2000014
  66.9879992  40.9889978 103.9760014  67.1755133  41.7448110 104.3625082
  63.0109992  44.6109978 114.7120014  62.3699992  44.5709978 115.4210014
  63.0489992  45.5379978 114.4750014  62.9283670  44.7307795 114.7770550
  63.0079992  44.8319978 109.6240014  62.1159992  44.4919978 109.5660014
  63.4589992  44.4549978 108.8690014  62.9466815  44.7343762 109.5139203
  68.5439992  45.2479978 108.4410014  68.1349992  46.0629978 108.1500014
  69.2639992  45.1079978 107.8270014  68.5854013  45.3406571 108.3180875
  67.6459992  45.4239978 119.9290014  67.0829992  44.7189978 120.2500014
  68.4719992  45.3029978 120.3970014  67.6806674  45.3112165 120.0361751
  69.5489992  44.6939978 111.2550014  69.3529992  45.2999978 110.5400014
  69.7299992  43.8609978 110.8210014  69.5466584  44.6642513 111.0984212
  60.7609992  44.9319978 116.5790014  60.7229992  45.3319978 117.4480014
  60.2709992  44.1149978 116.6700014  60.6895621  44.8762510 116.7101377
  57.3699992  42.0479978 110.4300014  57.9999992  42.0189978 111.1490014
  57.8189992  41.6229978 109.7000014  57.5170692  41.9865316 110.4297771
  58.6439992  42.7939978 105.8540014  59.1179992  43.3849978 105.2690014
  57.9259992  43.3239978 106.2010014  58.6118640  42.9465511 105.8207969
  68.8129992  46.3319978 115.9270014  69.1359992  45.7009978 115.2840014
  68.3719992  45.7979978 116.5870014  68.7975789  46.1733522 115.9282232
  65.5899992  42.2599978 110.7110014  64.6789992  42.3169978 110.9990014
  66.0949992  42.1999978 111.5210014  65.5335387  42.2596870 110.8600646
  60.4179992  43.8889978 109.5370014  59.5289992  43.9879978 109.1970014
  60.7149992  43.0469978 109.1910014  60.3364177  43.7887687 109.4436940
  64.0709992  43.8889978 107.1940014  65.0029992  44.0179978 107.3720014
  63.8559992  44.5579978 106.5440014  64.1694472  43.9970806 107.1304891
  69.9949992  41.4949978 113.9750014  69.3179992  41.6259978 114.6390014
  69.5099992  41.3399978 113.1650014  69.8367265  41.4919659 113.9563397
  73.2829992  57.1659978 120.2520014  73.4819992  57.5899978 119.4170014
  73.9379992  57.5099978 120.8590014  73.3988501  57.2706091 120.2197097
  60.8809992  49.6399978 119.8600014  61.6129992  49.8949978 120.4210014
  60.0999992  49.8449978 120.3750014  60.8757684  49.7026468 120.0064782
  66.9099992  45.0469978 112.5980014  67.4739992  44.5009978 112.0510014
  66.7619992  44.5259978 113.3860014  66.9672575  44.9016552 112.6296987
  61.9119992  41.1839978 109.0160014  61.5949992  40.2809978 108.9810014
  62.6929992  41.1859978 108.4630014  61.9742307  41.0606951 108.9364314
  65.5359992  43.4359978 115.0120014  64.7009992  43.8899978 115.1220014
  66.0599992  43.7119978 115.7640014  65.4925070  43.5354666 115.1287152
  66.0809992  49.6489978 106.6960014  65.3359992  49.1409978 106.3740014
  65.9459992  49.6979978 107.6430014  65.9609047  49.5861596 106.7798845
  73.2309992  48.7819978 115.4830014  73.8719992  49.2379978 114.9390014
  72.3999992  48.8949978 115.0210014  73.2065171  48.8597502 115.3460237
  67.5999992  49.8329978 117.9330014  67.2539992  49.4509978 118.7400014
  67.3999992  50.7659978 118.0050014  67.5256523  49.9069095 118.0530735
  61.2049992  48.9439978 112.4660014  61.9499992  48.9409978 111.8650014
  61.2829992  48.1199978 112.9480014  61.3174158  48.8322916 112.4489153
  68.2059992  51.1069978 105.7220014  67.9109992  51.9339978 106.1030014
  67.5029992  50.4879978 105.9180014  68.0705471  51.1365227 105.8006698
  58.2129992  47.4039978 117.7810014  58.4359992  46.9859978 118.6130014
  57.6109992  46.7919978 117.3580014  58.1621260  47.2639933 117.8377320
  65.2299992  46.9209978 119.9940014  64.9339992  46.7559978 119.0990014
  66.1609992  46.7009978 119.9830014  65.3153982  46.8686578 119.8700045
  69.8499992  52.2949978 117.8840014  68.9499992  52.4779978 117.6160014
  69.8839992  52.5539978 118.8050014  69.7312909  52.3550815 117.9717852
  75.5449992  50.3399978 119.0880014  74.6939992  50.5779978 118.7210014
  76.1349992  50.3229978 118.3350014  75.5082408  50.3702966 118.9358879
  73.8769992  53.3249978 106.7160014  73.5039992  52.4999978 107.0250014
  74.1539992  53.1419978 105.8190014  73.8633871  53.1872441 106.6369677
  71.0369992  48.1329978 113.7370014  70.1089992  47.9019978 113.7100014
  71.4879992  47.3559978 113.4070014  70.9708165  47.9962774 113.6886790
  63.5799992  52.4619978 109.8700014  64.1079992  53.2349978 109.6700014
  62.6999992  52.6859978 109.5690014  63.5333176  52.5983161 109.8018409
  65.0079992  50.1249978 109.4470014  64.7669992  51.0499978 109.4880014
  64.2669992  49.6659978 109.8430014  64.8748390  50.1896403 109.5061404
  65.5219992  54.2739978 115.7620014  65.8849992  55.1279978 115.5280014
  66.0539992  53.9819978 116.5020014  65.6436090  54.3514058 115.8300219
  63.6909992  55.1459978 108.9920014  62.7409992  55.2519978 109.0430014
  64.0429992  55.9669978 109.3370014  63.6085480  55.2714438 109.0455999
  69.0659992  50.3729978 115.4620014  68.6409992  50.1449978 116.2890014
  69.6469992  49.6339978 115.2800014  69.0863930  50.2419843 115.5504732
  71.2689992  51.3019978 104.5360014  71.6229992  50.9219978 105.3410014
  70.3209992  51.2079978 104.6230014  71.1891820  51.2373091 104.6578714
  71.7249992  54.9249978 117.9320014  71.1229992  54.3689978 117.4360014
  72.0059992  55.5919978 117.3060014  71.6806829  54.9391613 117.7795443
  59.8469992  42.1579978 117.3390014  58.9549992  42.4959978 117.2720014
  59.7489992  41.3019978 117.7570014  59.7114965  42.0886499 117.3863044
  72.1349992  49.9739978 106.7630014  71.8579992  49.2459978 107.3190014
  73.0629992  50.0929978 106.9680014  72.2224499  49.8904213 106.8668044
  59.4989992  53.9619978 115.7740014  59.7159992  53.0299978 115.7430014
  59.7449992  54.2369978 116.6570014  59.5619809  53.8715686 115.8891691
  64.2969992  51.9839978 105.4400014  64.4439992  51.4639978 106.2300014
  64.2939992  52.8909978 105.7460014  64.3167300  52.0353964 105.5895895
  60.7499992  49.2359978 105.9500014  60.0639992  49.5889978 106.5170014
  61.2729992  49.9989978 105.7040014  60.7269033  49.3873746 105.9942661
  68.5819992  41.8989978 116.2290014  69.2809992  41.9729978 116.8790014
  68.2009992  41.0339978 116.3830014  68.6262097  41.7922389 116.3387997
  69.3659992  41.5509978 107.3260014  69.5859992  42.0219978 106.5230014
  69.9249992  41.9449978 107.9960014  69.4716730  41.6687432 107.3065906
  66.5659992  43.2789978 108.1610014  67.3779992  43.7829978 108.2070014
  66.3219992  43.1339978 109.0750014  66.6441467  43.3283749 108.2908575
  67.1019992  44.2649978 117.3460014  67.2209992  44.8389978 118.1030014
  67.7569992  43.5769978 117.4600014  67.2069146  44.2505574 117.4651314
  67.4499992  40.3599978 109.0990014  67.1029992  40.9769978 109.7440014
  68.1089992  40.8609978 108.6180014  67.4915949  40.5121099 109.1222271
  64.3729992  54.7249978 106.1710014  64.5339992  55.5249978 105.6700014
  64.1759992  55.0319978 107.0560014  64.3683919  54.8759129 106.2221006
  63.1079992  41.4229978 105.7860014  63.0239992  42.3109978 106.1330014
  63.9979992  41.1579978 106.0180014  63.2168163  41.5087179 105.8648596
  73.3059992  42.1719978 118.1810014  72.3899992  42.4339978 118.0930014
  73.6419992  42.1689978 117.2840014  73.2259789  42.2074626 118.0477847
  71.9089992  45.9219978 112.2760014  71.1109992  45.5069978 111.9480014
  72.3539992  45.2319978 112.7670014  71.8599684  45.7718628 112.2975227
  61.3659992  51.8499978 104.8470014  61.9579992  52.5499978 105.1230014
  61.8249992  51.4169978 104.1270014  61.5090791  51.8872908 104.7874607
  59.6819992  44.5149978 103.9630014  59.6369992  45.4539978 104.1410014
  58.7939992  44.2789978 103.6930014  59.5558555  44.6116874 103.9508939
  72.9949992  55.1779978 113.8990014  72.8389992  55.8569978 113.2420014
  73.9279992  55.2499978 114.1020014  73.0997387  55.2806390 113.8365342
  60.4899992  39.2959978 112.6360014  60.2609992  39.3549978 111.7080014
  60.0479992  38.5049978 112.9420014  60.3988801  39.1970540 112.5504729
  59.4209992  53.2369978 108.7960014  58.5879992  53.7089978 108.8240014
  59.9659992  53.7469978 108.1980014  59.3807590  53.3705897 108.7189194
  58.7089992  55.8489978 120.1260014  59.2489992  55.6329978 120.8860014
  58.2279992  55.0439978 119.9370014  58.7178613  55.7105400 120.2044782
  63.3059992  54.7689978 121.7470014  64.0739992  54.3099978 122.0880014
  63.2849992  54.5429978 120.8170014  63.4082135  54.6756668 121.6679491
  69.8829992  53.1489978 120.4760014  69.5319992  52.2919978 120.7190014
  70.6089992  53.2909978 121.0830014  69.9331590  53.0510178 120.5912907
  58.6159992  49.6599978 121.0810014  58.7599992  48.7579978 120.7940014
  57.8439992  49.9459978 120.5930014  58.5313303  49.5753243 120.9757908
  65.2709992  49.6289978 120.5130014  64.9429992  49.8999978 119.6560014
  65.4229992  48.6879978 120.4260014  65.2466030  49.5388973 120.3837945
  68.3099992  51.0499978 102.9490014  68.0409992  51.2309978 103.8500014
  68.1029992  50.1249978 102.8180014  68.2452000  50.9496774 103.0545693
  71.0059992  49.5449978 117.8970014  71.7509992  50.1339978 117.7770014
  70.2489992  50.1269978 117.9600014  71.0055205  49.7041997 117.8891119
  59.4489992  46.8599978 120.5010014  59.8569992  46.0029978 120.3800014
  59.1879992  46.8739978 121.4220014  59.4696016  46.7445119 120.6089192
  63.3959992  45.8689978 117.8750014  62.7769992  46.5429978 118.1550014
  63.7399992  46.1899978 117.0420014  63.3577605  46.0047198 117.8006707
  68.4149992  48.3399978 121.1520014  69.3689992  48.4239978 121.1250014
  68.2549992  47.6279978 121.7720014  68.5237182  48.2552842 121.2320733
  63.7349992  43.2239978 118.9570014  63.8849992  42.4949978 118.3550014
  63.7369992  44.0009978 118.3980014  63.7557967  43.2292708 118.7990541
  64.1479992  41.5929978 116.4500014  64.6829992  42.0449978 115.7980014
  63.2949992  41.4849978 116.0270014  64.1060374  41.6402665 116.3036710
  65.7289992  47.0329978 116.6890014  66.4799992  46.8769978 116.1160014
  65.3899992  47.8849978 116.4140014  65.7859587  47.1268138 116.5734078
  70.1449992  44.8479978 121.7180014  70.3369992  43.9169978 121.6060014
  71.0029992  45.2729978 121.7080014  70.2872269  44.7779928 121.7013192
  71.4619992  47.6369978 119.7950014  71.1799992  48.3459978 119.2180014
  72.4039992  47.5639978 119.6440014  71.5507656  47.7243128 119.6954809
  62.2139992  44.4219978 120.8690014  61.4459992  43.8889978 120.6590014
  62.8919992  44.1119978 120.2690014  62.2006973  44.3072375 120.7591796
  64.9529992  39.0499978 116.8810014  64.8549992  39.9959978 116.7760014
  64.2109992  38.6769978 116.4060014  64.8391913  39.1291813 116.8023539
  66.2169992  43.3709978 120.4450014  65.9819992  43.1519978 121.3470014
  65.4339992  43.1639978 119.9350014  66.0789219  43.3130066 120.4995852
  68.9329992  42.4989978 119.5210014  67.9849992  42.5309978 119.6530014
  69.2449992  41.8729978 120.1740014  68.8455190  42.4187262 119.6273564
  70.5669992  41.1329978 121.5260014  70.4699992  40.1809978 121.5200014
  70.2449992  41.4009978 122.3860014  70.5101761  41.0389744 121.6414936
  60.3939992  42.3419978 120.5730014  60.6059992  41.6359978 119.9630014
  60.2829992  41.9049978 121.4170014  60.4080269  42.1861921 120.6035873
  65.1749992  38.3439978 119.5530014  65.8869992  37.7039978 119.5390014
  65.0739992  38.6099978 118.6390014  65.2587261  38.2924190 119.4275537
  65.5289992  40.0259978 121.6060014  65.3969992  39.5509978 120.7860014
  64.9289992  40.7709978 121.5510014  65.4299070  40.0615789 121.4863251
  65.0749992  56.9089978 104.7830014  66.0079992  57.0669978 104.9260014
  64.8109992  57.5849978 104.1580014  65.1669308  57.0219104 104.7181396
  57.2919992  56.9389978 109.3430014  56.6449992  56.4769978 108.8100014
  57.6469992  56.2669978 109.9250014  57.2514506  56.7849503 109.3487341
  58.1619992  55.0189978 111.1470014  57.8279992  54.1389978 111.3190014
  58.3849992  55.3649978 112.0120014  58.1463721  54.9451938 111.2874168
  75.7109992  55.8289978 114.1280014  75.6889992  56.0139978 115.0670014
  76.4009992  56.3969978 113.7870014  75.8013439  55.9311887 114.2104791
  75.2739992  55.3959978 117.0500014  74.7869992  54.6609978 116.6790014
  75.8229992  55.0019978 117.7280014  75.2815247  55.2421057 117.0908461
  73.7249992  51.1859978 121.6880014  72.8589992  51.0809978 122.0820014
  74.1009992  51.9439978 122.1340014  73.6573401  51.2741708 121.8022620
  75.0259992  49.4419978 107.2020014  75.8759992  49.8629978 107.3290014
  75.0309992  48.7019978 107.8090014  75.1431143  49.3996094 107.3014750
  75.4199992  47.4959978 109.0260014  74.6939992  47.0159978 109.4230014
  76.0019992  47.7009978 109.7580014  75.3991635  47.4579166 109.1793748
  75.1789992  50.2809978 113.9730014  76.0129992  49.9029978 113.6930014
  75.2909992  51.2239978 113.8540014  75.3082522  50.3567742 113.9186020
  73.6659992  53.1589978 116.2800014  73.0179992  53.4839978 116.9060014
  73.1479992  52.7179978 115.6060014  73.5074168  53.1438523 116.2745307
  75.6889992  47.3969978 105.4170014  75.1669992  47.7529978 104.6980014
  75.6559992  48.0719978 106.0950014  75.6130699  47.5369848 105.4102129
  73.2069992  46.0169978 109.5890014  73.0569992  45.0719978 109.5680014
  72.8529992  46.2979978 110.4320014  73.1385527  45.9255605 109.7001859
  58.2419992  48.0949978 113.5990014  58.4269992  48.0129978 112.6630014
  59.0919992  47.9709978 114.0230014  58.3820916  48.0670393 113.5282896
  74.0629992  47.9869978 119.2270014  74.6459992  47.2519978 119.4190014
  74.6269992  48.7589978 119.2740014  74.2189781  47.9908145 119.2596164
  75.5599992  45.8899978 119.9120014  74.6969992  45.5109978 119.7460014
  76.1639992  45.1509978 119.8380014  75.5235944  45.7382978 119.8792984
  72.9179992  43.5989978 108.0510014  73.1969992  42.6919978 108.1750014
  73.6769992  44.0329978 107.6620014  73.0588619  43.5334502 108.0153795
  73.5289992  44.1809978 113.4870014  74.4619992  44.3929978 113.4530014
  73.2939992  44.2819978 114.4090014  73.6248308  44.2236503 113.6070214
  73.5589992  44.9179978 116.2630014  72.7159992  45.1859978 116.6290014
  74.0009992  45.7399978 116.0520014  73.5034138  45.0658273 116.2845518
  57.8399992  43.3649978 119.7400014  58.7589992  43.2429978 119.9760014
  57.3899992  42.6149978 120.1290014  57.9051148  43.2468751 119.8249408
  75.8419992  38.8979978 121.6160014  76.1909992  38.2439978 121.0110014
  75.9889992  39.7349978 121.1770014  75.9097355  38.9216067 121.4736564
  73.5309992  40.8619978 108.0990014  73.7129992  40.4129978 108.9250014
  72.9309992  40.2779978 107.6360014  73.4747529  40.7216131 108.1493619
  59.0609992  41.6779978 112.6310014  59.5059992  40.8859978 112.9330014
  59.5269992  42.3939978 113.0620014  59.1849059  41.6664474 112.7306079
  57.3649992  44.6769978 113.7000014  57.8569992  44.4559978 112.9090014
  57.7269992  45.5169978 113.9810014  57.4812923  44.7603468 113.6297407
  75.3609992  41.0069978 119.9660014  74.4439992  41.2779978 119.9300014
  75.4839992  40.4719978 119.1820014  75.2520828  40.9717700 119.8550785
  75.3979992  40.9299978 104.6270014  75.8099992  40.2089978 104.1520014
  76.0789992  41.5989978 104.6860014  75.5465900  40.9217306 104.5699038
  72.4489992  55.9189978 109.7000014  73.1019992  55.5709978 109.0920014
  72.9599992  56.4069978 110.3460014  72.6072777  55.9373815 109.7042047
  57.6419992  39.6729978 116.0990014  56.9769992  39.4269978 116.7420014
  57.1989992  40.2949978 115.5210014  57.4910937  39.7233614 116.1089379
  59.8339992  52.8479978 120.2430014  59.0129992  53.0229978 119.7830014
  59.5819992  52.7749978 121.1640014  59.6876173  52.8620794 120.3044972
  62.7879992  53.8219978 116.5020014  62.3639992  54.6319978 116.2190014
  63.6929992  53.9079978 116.2000014  62.8522433  53.9443331 116.4225377
  67.0999992  55.2209978 119.4610014  67.2839992  54.8879978 120.3390014
  67.9459992  55.5309978 119.1390014  67.2396484  55.2172979 119.5377617
  69.4449992  56.5069978 118.7050014  70.1219992  55.8739978 118.4650014
  69.7659992  56.9079978 119.5120014  69.5811323  56.4745691 118.7813158
  74.3619992  39.0969978 117.7850014  73.5489992  39.4219978 117.3970014
  74.5949992  38.3359978 117.2520014  74.2822566  39.0386559 117.6599213
  60.1899992  57.0789978 116.5490014  59.4699992  57.5189978 116.0980014
  59.8249992  56.8279978 117.3980014  60.0419796  57.1053824 116.6019329
  62.6569992  56.6789978 115.5790014  61.7929992  56.7509978 115.9830014
  62.6019992  57.2259978 114.7950014  62.5311942  56.7627849 115.5284000
  67.3679992  56.5669978 114.7540014  66.9109992  57.0959978 114.1000014
  67.5309992  57.1699978 115.4800014  67.3274476  56.7209140 114.7625499
  69.6959992  55.4449978 115.6990014  68.7909992  55.6099978 115.4340014
  70.1239992  56.2979978 115.6340014  69.6300700  55.5829529 115.6539520
  72.2999992  57.0149978 115.9940014  72.1179992  57.9309978 115.7840014
  72.4769992  56.6039978 115.1480014  72.2989907  57.0849741 115.8507883
  59.6049992  55.7019978 113.4590014  59.5869992  55.2759978 114.3170014
  60.4099992  55.3829978 113.0510014  59.7113221  55.6007233 113.5210225
  61.7459992  54.4119978 112.1140014  61.5269992  53.4949978 112.2840014
  62.5699992  54.5519978 112.5800014  61.8274702  54.3055511 112.2002527
  64.2829992  54.8819978 112.9630014  64.4959992  53.9939978 112.6760014
  64.3479992  54.8469978 113.9180014  64.3209075  54.7558307 113.0527373
  67.7919992  40.5459978 112.1070014  67.1179992  39.9159978 112.3630014
  68.3559992  40.0619978 111.5040014  67.7760384  40.3943708 112.0605020
  72.9349992  38.6529978 112.2200014  73.5379992  39.2009978 111.7180014
  72.0649992  38.9719978 111.9800014  72.8999190  38.7711041 112.1188679
  74.6619992  39.7919978 110.5530014  75.2729992  39.2779978 110.0270014
  75.0439992  40.6689978 110.5770014  74.7974475  39.8401323 110.4841208
  60.1189992  39.1799978 109.9290014  59.3419992  38.9449978 109.4220014
  60.6489992  38.3829978 109.9380014  60.0843451  39.0401268 109.8608627
  58.9549992  38.9779978 105.7330014  59.3939992  39.5889978 105.1410014
  58.3209992  39.5159978 106.2070014  58.9293859  39.1344064 105.7160305
  64.6979992  39.1059978 109.7430014  65.5719992  39.4949978 109.7130014
  64.5619992  38.8909978 110.6650014  64.7993207  39.1301923 109.8636509
  70.2549992  39.1359978 111.3920014  70.3309992  39.2319978 110.4430014
  69.9799992  38.2289978 111.5210014  70.2282042  39.0264241 111.2793811
  71.6079992  39.1619978 107.0840014  70.9049992  39.7769978 106.8750014
  71.1629992  38.3249978 107.2160014  71.4516292  39.1330085 107.0732439
  58.8559992  54.9259978 106.6310014  58.1709992  54.8879978 105.9630014
  58.8599992  55.8389978 106.9190014  58.7628174  55.0441998 106.5785310
  65.8419992  41.1869978 106.6330014  66.0199992  40.5399978 107.3150014
  65.7879992  42.0209978 107.1000014  65.8591025  41.2110504 106.7896433
  60.0759992  39.6939978 119.4470014  59.7099992  38.9279978 119.8900014
  60.9889992  39.7229978 119.7340014  60.1493225  39.5931906 119.5463459
  62.0489992  39.0439978 120.9830014  62.9479992  38.7699978 120.7980014
  61.6629992  38.3019978 121.4470014  62.1197237  38.9061508 121.0204710
  70.4709992  38.3769978 121.1650014  70.5469992  37.9509978 122.0190014
  71.3639992  38.3899978 120.8220014  70.6022267  38.3203952 121.2355932
  73.6469992  54.4499978 119.8570014  72.8649992  54.2629978 119.3380014
  73.5749992  55.3789978 120.0750014  73.5300863  54.5500221 119.8153574
  88.0529992  48.3359978 109.8880014  88.1419992  49.2799978 109.7560014
  87.4149992  48.0609978 109.2300014  87.9789062  48.4279812 109.7809641
  86.9859992  47.5909978 113.3070014  86.9479992  46.9449978 114.0120014
  86.6639992  47.1239978 112.5360014  86.9372679  47.4394276 113.2992921
  79.3539992  47.2049978 114.9000014  79.3959992  46.5799978 115.6230014
  80.0569992  47.8289978 115.0820014  79.4547345  47.2037873 115.0235274
  90.6919992  50.5299978 111.6090014  90.2509992  49.8099978 112.0590014
  90.6789992  51.2509978 112.2380014  90.6297960  50.5288329 111.7557567
  80.2779992  51.6549978 113.4350014  79.9079992  50.8529978 113.0650014
  81.2189992  51.4869978 113.4810014  80.3545984  51.5224638 113.3905603
  76.8879992  45.3149978 108.8280014  76.4399992  46.1609978 108.8090014
  76.3269992  44.7359978 108.3120014  76.7509603  45.3523674 108.7556720
  77.5979992  47.4769978 110.9540014  77.8119992  46.7069978 111.4810014
  78.3359992  47.5669978 110.3500014  77.7269652  47.3838012 110.9445212
  85.3749992  50.0229978 113.7130014  85.6789992  49.3369978 113.1190014
  86.0969992  50.1419978 114.3310014  85.5141152  49.9452189 113.7152123
  94.0379992  41.6249978 114.5740014  94.0879992  42.2349978 115.3100014
  94.4639992  42.0859978 113.8510014  94.1024108  41.7707709 114.5770112
  88.5159992  44.4169978 114.0410014  88.6589992  43.4709978 114.0610014
  88.4099992  44.6239978 113.1120014  88.5212509  44.3154813 113.9182231
  81.6709992  42.5189978 111.3130014  81.7139992  43.3789978 110.8950014
  81.2129992  41.9669978 110.6790014  81.6149815  42.5620621 111.1701197
  89.3929992  42.6499978 109.7140014  90.0399992  42.3209978 110.3390014
  89.9029992  43.1669978 109.0910014  89.5504317  42.6749227 109.7152167
  78.2909992  44.9159978 112.0750014  78.9449992  44.3659978 112.5070014
  78.3149992  44.6419978 111.1580014  78.3837199  44.8037167 112.0101668
  94.4299992  43.1029978 116.8100014  93.7409992  43.7609978 116.7140014
  94.4449992  42.9049978 117.7460014  94.3376740  43.1663243 116.9234630
  80.4809992  41.4369978 115.3870014  80.2619992  41.9669978 114.6210014
  79.8129992  41.6629978 116.0340014  80.3607001  41.5401154 115.3696064
  83.0499992  49.1119978 115.6750014  82.3099992  49.7109978 115.7780014
  83.7639992  49.6659978 115.3590014  83.0453288  49.2687356 115.6463805
  91.1569992  41.9409978 111.6940014  90.9419992  41.1749978 112.2270014
  91.8129992  42.4129978 112.2070014  91.2162673  41.9000728 111.8361990
  80.0749992  43.3289978 113.3390014  80.6889992  43.9619978 113.7130014
  80.5869992  42.8569978 112.6830014  80.2282277  43.3517352 113.3014279
  81.4579992  51.0769978 116.4620014  81.4519992  51.9559978 116.0840014
  80.6039992  50.9929978 116.8870014  81.3417925  51.1859535 116.4676887
  77.5789992  50.7479978 107.2440014  77.3069992  50.9769978 106.3550014
  77.6239992  51.5849978 107.7040014  77.5478709  50.8926058 107.1846107
  91.2039992  52.3689978 113.9560014  90.2619992  52.4279978 114.1180014
  91.4799992  53.2749978 113.8190014  91.1125865  52.4995288 113.9596192
  91.5039992  40.6559978 115.3740014  90.7679992  41.2659978 115.3360014
  92.1879992  41.0709978 114.8470014  91.4955506  40.7956400 115.2976051
  84.5079992  38.7419978 112.8400014  84.3899992  37.7939978 112.7850014
  83.6529992  39.0749978 113.1130014  84.3762679  38.6571926 112.8693720
  89.4559992  54.1499978 110.5820014  89.8809992  53.4429978 110.0970014
  89.7729992  54.9519978 110.1650014  89.5570266  54.1615190 110.4592479
  92.3019992  50.6179978 117.5680014  92.4409992  50.0259978 116.8280014
  92.4689992  51.4909978 117.2110014  92.3435562  50.6549896 117.4186283
  94.1429992  46.9579978 115.6340014  93.4909992  47.6519978 115.7230014
  94.6089992  47.1679978 114.8240014  94.1165937  47.0815019 115.5367533
  90.0769992  45.9639978 117.3600014  90.1569992  46.7269978 117.9310014
  89.4759992  46.2429978 116.6690014  90.0067245  46.1062630 117.3448424
  81.8249992  48.4199978 110.1740014  81.4949992  48.0489978 109.3560014
  82.4139992  47.7489978 110.5210014  81.8593970  48.2786063 110.1089404
  83.1919992  51.8479978 112.8560014  83.0969992  51.2689978 112.0990014
  83.9209992  51.4769978 113.3520014  83.2776161  51.7185891 112.8195209
  82.1919992  47.1879978 113.8080014  82.7569992  47.3099978 113.0450014
  82.5109992  47.8259978 114.4470014  82.3123977  47.2908851 113.7899424
  88.5009992  52.6919978 114.5420014  88.2609992  53.3539978 115.1900014
  88.3029992  51.8569978 114.9670014  88.4413826  52.6698115 114.6881566
  83.0719992  51.5879978 118.5250014  82.7609992  52.3699978 118.9800014
  82.4219992  51.4349978 117.8390014  82.9415538  51.6744087 118.4945898
  79.9919992  47.7859978 117.7540014  80.0619992  48.4369978 118.4520014
  79.1009992  47.8889978 117.4190014  79.8811802  47.8889757 117.8042249
  81.3109992  53.6589978 119.2880014  81.3189992  53.5229978 118.3410014
  80.3949992  53.5419978 119.5400014  81.1882528  53.6245463 119.1923243
  92.7499992  38.7019978 105.7900014  91.8499992  38.8409978 106.0850014
  93.0019992  39.5329978 105.3880014  92.6608683  38.8334055 105.7760232
  80.8159992  47.4889978 107.7640014  80.5239992  48.2569978 107.2730014
  80.1409992  46.8299978 107.6010014  80.6848497  47.5049745 107.6748260
  76.9089992  49.8519978 116.5790014  76.4069992  49.8239978 115.7640014
  76.9139992  48.9469978 116.8880014  76.8410416  49.7257368 116.5093766
  76.6589992  52.6329978 113.4630014  77.6049992  52.4879978 113.4440014
  76.5459992  53.4169978 114.0000014  76.7733578  52.7191697 113.5330317
  94.8569992  53.2989978 119.1450014  94.8069992  52.3429978 119.1080014
  94.0299992  53.5659978 119.5460014  94.7383987  53.2045174 119.1941446
  85.8349992  52.8729978 118.0210014  85.9229992  53.6989978 118.4960014
  84.9719992  52.5429978 118.2700014  85.7303357  52.9415468 118.1197653
  79.9029992  55.4339978 109.6080014  80.0549992  55.0859978 110.4870014
  79.0519992  55.0769978 109.3530014  79.8087899  55.3381738 109.6937340
  92.0089992  44.7919978 119.6250014  91.6009992  45.2719978 118.9050014
  92.0489992  43.8859978 119.3170014  91.9585476  44.7353160 119.4848247
  79.1579992  51.1759978 117.6220014  79.3739992  50.8139978 118.4810014
  78.3019992  50.8009978 117.4120014  79.0719354  51.0757906 117.7112160
  81.7759992  39.6459978 113.6170014  80.9149992  39.5589978 113.2100014
  81.7539992  40.5019978 114.0450014  81.6550411  39.7497884 113.6190857
  86.4389992  39.3679978 116.9920014  86.8589992  38.9529978 117.7450014
  85.5059992  39.1889978 117.1090014  86.3703736  39.2869910 117.1108968
  89.7659992  43.1229978 117.8450014  89.2519992  42.9979978 118.6430014
  89.6099992  44.0359978 117.6010014  89.6746967  43.2292123 117.9210937
  81.8669992  44.6109978 114.7120014  81.2259992  44.5709978 115.4210014
  81.9049992  45.5379978 114.4750014  81.7843670  44.7307795 114.7770550
  86.5019992  45.4239978 119.9290014  85.9389992  44.7189978 120.2500014
  87.3279992  45.3029978 120.3970014  86.5366674  45.3112165 120.0361751
  88.4049992  44.6939978 111.2550014  88.2089992  45.2999978 110.5400014
  88.5859992  43.8609978 110.8210014  88.4026584  44.6642513 111.0984212
  79.6169992  44.9319978 116.5790014  79.5789992  45.3319978 117.4480014
  79.1269992  44.1149978 116.6700014  79.5455621  44.8762510 116.7101377
  76.2259992  42.0479978 110.4300014  76.8559992  42.0189978 111.1490014
  76.6749992  41.6229978 109.7000014  76.3730692  41.9865316 110.4297771
  87.6689992  46.3319978 115.9270014  87.9919992  45.7009978 115.2840014
  87.2279992  45.7979978 116.5870014  87.6535789  46.1733522 115.9282232
  84.4459992  42.2599978 110.7110014  83.5349992  42.3169978 110.9990014
  84.9509992  42.1999978 111.5210014  84.3895387  42.2596870 110.8600646
  79.2739992  43.8889978 109.5370014  78.3849992  43.9879978 109.1970014
  79.5709992  43.0469978 109.1910014  79.1924177  43.7887687 109.4436940
  82.9269992  43.8889978 107.1940014  83.8589992  44.0179978 107.3720014
  82.7119992  44.5579978 106.5440014  83.0254472  43.9970806 107.1304891
  88.8509992  41.4949978 113.9750014  88.1739992  41.6259978 114.6390014
  88.3659992  41.3399978 113.1650014  88.6927265  41.4919659 113.9563397
  81.6009992  45.0829978 104.7610014  81.0589992  44.7039978 104.0690014
  82.4349992  45.2779978 104.3320014  81.6395159  45.0575076 104.6084419
  92.1389992  57.1659978 120.2520014  92.3379992  57.5899978 119.4170014
  92.7939992  57.5099978 120.8590014  92.2548501  57.2706091 120.2197097
  79.7369992  49.6399978 119.8600014  80.4689992  49.8949978 120.4210014
  78.9559992  49.8449978 120.3750014  79.7317684  49.7026468 120.0064782
  85.7659992  45.0469978 112.5980014  86.3299992  44.5009978 112.0510014
  85.6179992  44.5259978 113.3860014  85.8232575  44.9016552 112.6296987
  80.7679992  41.1839978 109.0160014  80.4509992  40.2809978 108.9810014
  81.5489992  41.1859978 108.4630014  80.8302307  41.0606951 108.9364314
  84.3919992  43.4359978 115.0120014  83.5569992  43.8899978 115.1220014
  84.9159992  43.7119978 115.7640014  84.3485070  43.5354665 115.1287152
  92.0869992  48.7819978 115.4830014  92.7279992  49.2379978 114.9390014
  91.2559992  48.8949978 115.0210014  92.0625171  48.8597502 115.3460237
  86.4559992  49.8329978 117.9330014  86.1099992  49.4509978 118.7400014
  86.2559992  50.7659978 118.0050014  86.3816523  49.9069095 118.0530735
  89.5529992  44.3299978 106.5560014  90.4449992  44.1919978 106.8750014
  89.6089992  45.1209978 106.0200014  89.6827107  44.4180526 106.5272091
  80.0609992  48.9439978 112.4660014  80.8059992  48.9409978 111.8650014
  80.1389992  48.1199978 112.9480014  80.1734158  48.8322916 112.4489153
  77.0689992  47.4039978 117.7810014  77.2919992  46.9859978 118.6130014
  76.4669992  46.7919978 117.3580014  77.0181260  47.2639933 117.8377320
  84.0859992  46.9209978 119.9940014  83.7899992  46.7559978 119.0990014
  85.0169992  46.7009978 119.9830014  84.1713982  46.8686578 119.8700045
  88.7059992  52.2949978 117.8840014  87.8059992  52.4779978 117.6160014
  88.7399992  52.5539978 118.8050014  88.5872909  52.3550815 117.9717852
  94.4379992  44.5389978 106.2510014  93.8829992  44.1429978 105.5790014
  94.5379992  45.4499978 105.9730014  94.3755888  44.6078990 106.1215206
  94.4009992  50.3399978 119.0880014  93.5499992  50.5779978 118.7210014
  94.9909992  50.3229978 118.3350014  94.3642408  50.3702966 118.9358879
  89.8929992  48.1329978 113.7370014  88.9649992  47.9019978 113.7100014
  90.3439992  47.3559978 113.4070014  89.8268165  47.9962774 113.6886790
  82.4359992  52.4619978 109.8700014  82.9639992  53.2349978 109.6700014
  81.5559992  52.6859978 109.5690014  82.3893176  52.5983161 109.8018409
  78.1909992  47.3239978 104.4580014  78.8069992  47.9509978 104.8370014
  77.3289992  47.6399978 104.7290014  78.1588195  47.4525798 104.5465386
  84.3779992  54.2739978 115.7620014  84.7409992  55.1279978 115.5280014
  84.9099992  53.9819978 116.5020014  84.4996090  54.3514058 115.8300219
  87.9219992  50.3729978 115.4620014  87.4969992  50.1449978 116.2890014
  88.5029992  49.6339978 115.2800014  87.9423930  50.2419843 115.5504732
  90.5809992  54.9249978 117.9320014  89.9789992  54.3689978 117.4360014
  90.8619992  55.5919978 117.3060014  90.5366829  54.9391613 117.7795443
  94.6289992  55.7809978 104.7370014  95.3729992  56.3669978 104.5970014
  93.9349992  56.3499978 105.0710014  94.6370201  55.9380603 104.7629772
  78.7029992  42.1579978 117.3390014  77.8109992  42.4959978 117.2720014
  78.6049992  41.3019978 117.7570014  78.5674965  42.0886499 117.3863044
  78.3549992  53.9619978 115.7740014  78.5719992  53.0299978 115.7430014
  78.6009992  54.2369978 116.6570014  78.4179809  53.8715686 115.8891691
  79.6059992  49.2359978 105.9500014  78.9199992  49.5889978 106.5170014
  80.1289992  49.9989978 105.7040014  79.5829033  49.3873746 105.9942661
  87.4379992  41.8989978 116.2290014  88.1369992  41.9729978 116.8790014
  87.0569992  41.0339978 116.3830014  87.4822097  41.7922389 116.3387997
  88.2219992  41.5509978 107.3260014  88.4419992  42.0219978 106.5230014
  88.7809992  41.9449978 107.9960014  88.3276730  41.6687432 107.3065906
  85.4219992  43.2789978 108.1610014  86.2339992  43.7829978 108.2070014
  85.1779992  43.1339978 109.0750014  85.5001467  43.3283749 108.2908575
  85.9579992  44.2649978 117.3460014  86.0769992  44.8389978 118.1030014
  86.6129992  43.5769978 117.4600014  86.0629146  44.2505574 117.4651314
  86.3059992  40.3599978 109.0990014  85.9589992  40.9769978 109.7440014
  86.9649992  40.8609978 108.6180014  86.3475949  40.5121099 109.1222271
  81.9639992  41.4229978 105.7860014  81.8799992  42.3109978 106.1330014
  82.8539992  41.1579978 106.0180014  82.0728163  41.5087179 105.8648596
  92.1619992  42.1719978 118.1810014  91.2459992  42.4339978 118.0930014
  92.4979992  42.1689978 117.2840014  92.0819789  42.2074626 118.0477847
  90.7649992  45.9219978 112.2760014  89.9669992  45.5069978 111.9480014
  91.2099992  45.2319978 112.7670014  90.7159684  45.7718628 112.2975227
  91.8509992  55.1779978 113.8990014  91.6949992  55.8569978 113.2420014
  92.7839992  55.2499978 114.1020014  91.9557387  55.2806390 113.8365342
  79.3459992  39.2959978 112.6360014  79.1169992  39.3549978 111.7080014
  78.9039992  38.5049978 112.9420014  79.2548801  39.1970540 112.5504729
  78.2769992  53.2369978 108.7960014  77.4439992  53.7089978 108.8240014
  78.8219992  53.7469978 108.1980014  78.2367590  53.3705897 108.7189194
  77.5649992  55.8489978 120.1260014  78.1049992  55.6329978 120.8860014
  77.0839992  55.0439978 119.9370014  77.5738613  55.7105400 120.2044782
  82.1619992  54.7689978 121.7470014  82.9299992  54.3099978 122.0880014
  82.1409992  54.5429978 120.8170014  82.2642135  54.6756668 121.6679491
  88.7389992  53.1489978 120.4760014  88.3879992  52.2919978 120.7190014
  89.4649992  53.2909978 121.0830014  88.7891590  53.0510178 120.5912907
  77.4719992  49.6599978 121.0810014  77.6159992  48.7579978 120.7940014
  76.6999992  49.9459978 120.5930014  77.3873303  49.5753243 120.9757908
  81.8129992  50.0029978 103.2130014  81.8779992  49.2089978 103.7440014
  82.4659992  49.8849978 102.5230014  81.9101754  49.8783337 103.1924259
  84.1269992  49.6289978 120.5130014  83.7989992  49.8999978 119.6560014
  84.2789992  48.6879978 120.4260014  84.1026030  49.5388973 120.3837945
  89.8619992  49.5449978 117.8970014  90.6069992  50.1339978 117.7770014
  89.1049992  50.1269978 117.9600014  89.8615205  49.7041997 117.8891119
  78.3049992  46.8599978 120.5010014  78.7129992  46.0029978 120.3800014
  78.0439992  46.8739978 121.4220014  78.3256016  46.7445119 120.6089192
  82.2519992  45.8689978 117.8750014  81.6329992  46.5429978 118.1550014
  82.5959992  46.1899978 117.0420014  82.2137605  46.0047198 117.8006707
  87.2709992  48.3399978 121.1520014  88.2249992  48.4239978 121.1250014
  87.1109992  47.6279978 121.7720014  87.3797182  48.2552842 121.2320733
  82.5909992  43.2239978 118.9570014  82.7409992  42.4949978 118.3550014
  82.5929992  44.0009978 118.3980014  82.6117967  43.2292708 118.7990541
  83.0039992  41.5929978 116.4500014  83.5389992  42.0449978 115.7980014
  82.1509992  41.4849978 116.0270014  82.9620374  41.6402665 116.3036710
  84.5849992  47.0329978 116.6890014  85.3359992  46.8769978 116.1160014
  84.2459992  47.8849978 116.4140014  84.6419587  47.1268138 116.5734078
  89.0009992  44.8479978 121.7180014  89.1929992  43.9169978 121.6060014
  89.8589992  45.2729978 121.7080014  89.1432269  44.7779928 121.7013192
  90.3179992  47.6369978 119.7950014  90.0359992  48.3459978 119.2180014
  91.2599992  47.5639978 119.6440014  90.4067656  47.7243128 119.6954809
  81.0699992  44.4219978 120.8690014  80.3019992  43.8889978 120.6590014
  81.7479992  44.1119978 120.2690014  81.0566973  44.3072375 120.7591796
  83.8089992  39.0499978 116.8810014  83.7109992  39.9959978 116.7760014
  83.0669992  38.6769978 116.4060014  83.6951913  39.1291813 116.8023539
  85.0729992  43.3709978 120.4450014  84.8379992  43.1519978 121.3470014
  84.2899992  43.1639978 119.9350014  84.9349219  43.3130066 120.4995852
  87.7889992  42.4989978 119.5210014  86.8409992  42.5309978 119.6530014
  88.1009992  41.8729978 120.1740014  87.7015190  42.4187262 119.6273564
  89.4229992  41.1329978 121.5260014  89.3259992  40.1809978 121.5200014
  89.1009992  41.4009978 122.3860014  89.3661761  41.0389744 121.6414936
  79.2499992  42.3419978 120.5730014  79.4619992  41.6359978 119.9630014
  79.1389992  41.9049978 121.4170014  79.2640269  42.1861921 120.6035873
  84.0309992  38.3439978 119.5530014  84.7429992  37.7039978 119.5390014
  83.9299992  38.6099978 118.6390014  84.1147261  38.2924190 119.4275537
  84.3849992  40.0259978 121.6060014  84.2529992  39.5509978 120.7860014
  83.7849992  40.7709978 121.5510014  84.2859070  40.0615789 121.4863251
  76.1479992  56.9389978 109.3430014  75.5009992  56.4769978 108.8100014
  76.5029992  56.2669978 109.9250014  76.1074506  56.7849503 109.3487341
  77.0179992  55.0189978 111.1470014  76.6839992  54.1389978 111.3190014
  77.2409992  55.3649978 112.0120014  77.0023721  54.9451938 111.2874168
  94.5669992  55.8289978 114.1280014  94.5449992  56.0139978 115.0670014
  95.2569992  56.3969978 113.7870014  94.6573439  55.9311887 114.2104791
  94.1299992  55.3959978 117.0500014  93.6429992  54.6609978 116.6790014
  94.6789992  55.0019978 117.7280014  94.1375247  55.2421057 117.0908461
  92.5809992  51.1859978 121.6880014  91.7149992  51.0809978 122.0820014
  92.9569992  51.9439978 122.1340014  92.5133401  51.2741708 121.8022620
  94.2759992  47.4959978 109.0260014  93.5499992  47.0159978 109.4230014
  94.8579992  47.7009978 109.7580014  94.2551635  47.4579166 109.1793748
  94.0349992  50.2809978 113.9730014  94.8689992  49.9029978 113.6930014
  94.1469992  51.2239978 113.8540014  94.1642522  50.3567742 113.9186020
  92.5219992  53.1589978 116.2800014  91.8739992  53.4839978 116.9060014
  92.0039992  52.7179978 115.6060014  92.3634168  53.1438523 116.2745307
  94.5449992  47.3969978 105.4170014  94.0229992  47.7529978 104.6980014
  94.5119992  48.0719978 106.0950014  94.4690699  47.5369848 105.4102129
  92.0629992  46.0169978 109.5890014  91.9129992  45.0719978 109.5680014
  91.7089992  46.2979978 110.4320014  91.9945527  45.9255605 109.7001859
  77.0979992  48.0949978 113.5990014  77.2829992  48.0129978 112.6630014
  77.9479992  47.9709978 114.0230014  77.2380916  48.0670393 113.5282896
  92.9189992  47.9869978 119.2270014  93.5019992  47.2519978 119.4190014
  93.4829992  48.7589978 119.2740014  93.0749781  47.9908145 119.2596164
  94.4159992  45.8899978 119.9120014  93.5529992  45.5109978 119.7460014
  95.0199992  45.1509978 119.8380014  94.3795944  45.7382978 119.8792984
  91.7739992  43.5989978 108.0510014  92.0529992  42.6919978 108.1750014
  92.5329992  44.0329978 107.6620014  91.9148619  43.5334502 108.0153795
  92.3849992  44.1809978 113.4870014  93.3179992  44.3929978 113.4530014
  92.1499992  44.2819978 114.4090014  92.4808308  44.2236503 113.6070214
  92.4149992  44.9179978 116.2630014  91.5719992  45.1859978 116.6290014
  92.8569992  45.7399978 116.0520014  92.3594138  45.0658273 116.2845518
  76.6959992  43.3649978 119.7400014  77.6149992  43.2429978 119.9760014
  76.2459992  42.6149978 120.1290014  76.7611148  43.2468751 119.8249408
  94.6979992  38.8979978 121.6160014  95.0469992  38.2439978 121.0110014
  94.8449992  39.7349978 121.1770014  94.7657355  38.9216067 121.4736564
  92.3869992  40.8619978 108.0990014  92.5689992  40.4129978 108.9250014
  91.7869992  40.2779978 107.6360014  92.3307529  40.7216131 108.1493619
  77.9169992  41.6779978 112.6310014  78.3619992  40.8859978 112.9330014
  78.3829992  42.3939978 113.0620014  78.0409059  41.6664474 112.7306079
  76.2209992  44.6769978 113.7000014  76.7129992  44.4559978 112.9090014
  76.5829992  45.5169978 113.9810014  76.3372923  44.7603468 113.6297407
  94.2169992  41.0069978 119.9660014  93.2999992  41.2779978 119.9300014
  94.3399992  40.4719978 119.1820014  94.1080828  40.9717700 119.8550785
  76.5349992  40.9349978 107.7540014  75.6099992  41.1429978 107.6250014
  76.9889992  41.4189978 107.0650014  76.4696374  41.0289949 107.6430957
  91.3049992  55.9189978 109.7000014  91.9579992  55.5709978 109.0920014
  91.8159992  56.4069978 110.3460014  91.4632777  55.9373815 109.7042047
  76.4979992  39.6729978 116.0990014  75.8329992  39.4269978 116.7420014
  76.0549992  40.2949978 115.5210014  76.3470937  39.7233614 116.1089379
  78.6899992  52.8479978 120.2430014  77.8689992  53.0229978 119.7830014
  78.4379992  52.7749978 121.1640014  78.5436173  52.8620794 120.3044972
  81.6439992  53.8219978 116.5020014  81.2199992  54.6319978 116.2190014
  82.5489992  53.9079978 116.2000014  81.7082433  53.9443331 116.4225377
  85.9559992  55.2209978 119.4610014  86.1399992  54.8879978 120.3390014
  86.8019992  55.5309978 119.1390014  86.0956484  55.2172979 119.5377617
  88.3009992  56.5069978 118.7050014  88.9779992  55.8739978 118.4650014
  88.6219992  56.9079978 119.5120014  88.4371323  56.4745691 118.7813158
  93.2179992  39.0969978 117.7850014  92.4049992  39.4219978 117.3970014
  93.4509992  38.3359978 117.2520014  93.1382566  39.0386559 117.6599213
  79.0459992  57.0789978 116.5490014  78.3259992  57.5189978 116.0980014
  78.6809992  56.8279978 117.3980014  78.8979796  57.1053824 116.6019329
  81.5129992  56.6789978 115.5790014  80.6489992  56.7509978 115.9830014
  81.4579992  57.2259978 114.7950014  81.3871942  56.7627849 115.5284000
  86.2239992  56.5669978 114.7540014  85.7669992  57.0959978 114.1000014
  86.3869992  57.1699978 115.4800014  86.1834476  56.7209140 114.7625499
  88.5519992  55.4449978 115.6990014  87.6469992  55.6099978 115.4340014
  88.9799992  56.2979978 115.6340014  88.4860700  55.5829529 115.6539520
  91.1559992  57.0149978 115.9940014  90.9739992  57.9309978 115.7840014
  91.3329992  56.6039978 115.1480014  91.1549907  57.0849741 115.8507883
  78.4609992  55.7019978 113.4590014  78.4429992  55.2759978 114.3170014
  79.2659992  55.3829978 113.0510014  78.5673221  55.6007233 113.5210225
  80.6019992  54.4119978 112.1140014  80.3829992  53.4949978 112.2840014
  81.4259992  54.5519978 112.5800014  80.6834702  54.3055511 112.2002527
  83.1389992  54.8819978 112.9630014  83.3519992  53.9939978 112.6760014
  83.2039992  54.8469978 113.9180014  83.1769075  54.7558307 113.0527373
  86.6479992  40.5459978 112.1070014  85.9739992  39.9159978 112.3630014
  87.2119992  40.0619978 111.5040014  86.6320384  40.3943708 112.0605020
  91.7909992  38.6529978 112.2200014  92.3939992  39.2009978 111.7180014
  90.9209992  38.9719978 111.9800014  91.7559190  38.7711041 112.1188679
  93.5179992  39.7919978 110.5530014  94.1289992  39.2779978 110.0270014
  93.8999992  40.6689978 110.5770014  93.6534475  39.8401323 110.4841208
  78.9749992  39.1799978 109.9290014  78.1979992  38.9449978 109.4220014
  79.5049992  38.3829978 109.9380014  78.9403451  39.0401268 109.8608627
  77.8109992  38.9779978 105.7330014  78.2499992  39.5889978 105.1410014
  77.1769992  39.5159978 106.2070014  77.7853859  39.1344064 105.7160305
  83.5539992  39.1059978 109.7430014  84.4279992  39.4949978 109.7130014
  83.4179992  38.8909978 110.6650014  83.6553207  39.1301923 109.8636509
  89.1109992  39.1359978 111.3920014  89.1869992  39.2319978 110.4430014
  88.8359992  38.2289978 111.5210014  89.0842042  39.0264241 111.2793811
  90.4639992  39.1619978 107.0840014  89.7609992  39.7769978 106.8750014
  90.0189992  38.3249978 107.2160014  90.3076292  39.1330085 107.0732439
  84.6979992  41.1869978 106.6330014  84.8759992  40.5399978 107.3150014
  84.6439992  42.0209978 107.1000014  84.7151025  41.2110504 106.7896433
  93.2849992  55.6979978 107.7070014  93.0909992  54.9499978 107.1420014
  93.2459992  56.4559978 107.1240014  93.2531645  55.6980786 107.5508148
  78.9319992  39.6939978 119.4470014  78.5659992  38.9279978 119.8900014
  79.8449992  39.7229978 119.7340014  79.0053225  39.5931906 119.5463459
  80.9049992  39.0439978 120.9830014  81.8039992  38.7699978 120.7980014
  80.5189992  38.3019978 121.4470014  80.9757237  38.9061508 121.0204710
  89.3269992  38.3769978 121.1650014  89.4029992  37.9509978 122.0190014
  90.2199992  38.3899978 120.8220014  89.4582267  38.3203952 121.2355932
  92.5029992  54.4499978 119.8570014  91.7209992  54.2629978 119.3380014
  92.4309992  55.3789978 120.0750014  92.3860863  54.5500221 119.8153574
 106.9089992  48.3359978 109.8880014 106.9979992  49.2799978 109.7560014
 106.2709992  48.0609978 109.2300014 106.8349062  48.4279812 109.7809641
 105.8419992  47.5909978 113.3070014 105.8039992  46.9449978 114.0120014
 105.5199992  47.1239978 112.5360014 105.7932679  47.4394276 113.2992921
  98.2099992  47.2049978 114.9000014  98.2519992  46.5799978 115.6230014
  98.9129992  47.8289978 115.0820014  98.3107345  47.2037873 115.0235274
 109.5479992  50.5299978 111.6090014 109.1069992  49.8099978 112.0590014
 109.5349992  51.2509978 112.2380014 109.4857960  50.5288329 111.7557567
  99.1339992  51.6549978 113.4350014  98.7639992  50.8529978 113.0650014
 100.0749992  51.4869978 113.4810014  99.2105984  51.5224638 113.3905603
  95.7439992  45.3149978 108.8280014  95.2959992  46.1609978 108.8090014
  95.1829992  44.7359978 108.3120014  95.6069603  45.3523674 108.7556720
  96.4539992  47.4769978 110.9540014  96.6679992  46.7069978 111.4810014
  97.1919992  47.5669978 110.3500014  96.5829652  47.3838012 110.9445212
 106.6599992  55.6339978 111.8210014 107.2789992  54.9579978 111.5470014
 106.4509992  55.4159978 112.7290014 106.7166232  55.5117938 111.9062517
 104.2309992  50.0229978 113.7130014 104.5349992  49.3369978 113.1190014
 104.9529992  50.1419978 114.3310014 104.3701152  49.9452189 113.7152124
 112.8939992  41.6249978 114.5740014 112.9439992  42.2349978 115.3100014
 113.3199992  42.0859978 113.8510014 112.9584108  41.7707709 114.5770112
 107.3719992  44.4169978 114.0410014 107.5149992  43.4709978 114.0610014
 107.2659992  44.6239978 113.1120014 107.3772509  44.3154813 113.9182231
 100.5269992  42.5189978 111.3130014 100.5699992  43.3789978 110.8950014
 100.0689992  41.9669978 110.6790014 100.4709815  42.5620621 111.1701197
 108.2489992  42.6499978 109.7140014 108.8959992  42.3209978 110.3390014
 108.7589992  43.1669978 109.0910014 108.4064317  42.6749227 109.7152167
  97.1469992  44.9159978 112.0750014  97.8009992  44.3659978 112.5070014
  97.1709992  44.6419978 111.1580014  97.2397199  44.8037167 112.0101668
 102.3039992  46.4659978 111.2900014 102.9199992  45.9389978 111.8000014
 101.7169992  45.8259978 110.8870014 102.3089239  46.3074117 111.3052952
 113.2859992  43.1029978 116.8100014 112.5969992  43.7609978 116.7140014
 113.3009992  42.9049978 117.7460014 113.1936740  43.1663243 116.9234630
  99.3369992  41.4369978 115.3870014  99.1179992  41.9669978 114.6210014
  98.6689992  41.6629978 116.0340014  99.2167001  41.5401154 115.3696064
 106.7059992  50.9369978 108.9310014 106.4109992  50.6139978 108.0800014
 106.3819992  51.8369978 108.9720014 106.6217983  51.0144026 108.8199771
 101.9059992  49.1119978 115.6750014 101.1659992  49.7109978 115.7780014
 102.6199992  49.6659978 115.3590014 101.9013288  49.2687356 115.6463805
 110.0129992  41.9409978 111.6940014 109.7979992  41.1749978 112.2270014
 110.6689992  42.4129978 112.2070014 110.0722673  41.9000728 111.8361990
  98.9309992  43.3289978 113.3390014  99.5449992  43.9619978 113.7130014
  99.4429992  42.8569978 112.6830014  99.0842277  43.3517352 113.3014279
 100.3139992  51.0769978 116.4620014 100.3079992  51.9559978 116.0840014
  99.4599992  50.9929978 116.8870014 100.1977925  51.1859535 116.4676887
 110.0599992  52.3689978 113.9560014 109.1179992  52.4279978 114.1180014
 110.3359992  53.2749978 113.8190014 109.9685865  52.4995288 113.9596192
 110.3599992  40.6559978 115.3740014 109.6239992  41.2659978 115.3360014
 111.0439992  41.0709978 114.8470014 110.3515506  40.7956400 115.2976051
 103.3639992  38.7419978 112.8400014 103.2459992  37.7939978 112.7850014
 102.5089992  39.0749978 113.1130014 103.2322679  38.6571926 112.8693720
 108.3119992  54.1499978 110.5820014 108.7369992  53.4429978 110.0970014
 108.6289992  54.9519978 110.1650014 108.4130266  54.1615190 110.4592479
 109.4719992  52.0509978 109.0900014 109.2139992  51.3609978 108.4790014
 109.5429992  51.6079978 109.9360014 109.4462837  51.8967106 109.1206912
 111.1579992  50.6179978 117.5680014 111.2969992  50.0259978 116.8280014
 111.3249992  51.4909978 117.2110014 111.1995562  50.6549896 117.4186283
 105.6299992  47.5799978 107.3400014 104.9189992  48.1149978 106.9880014
 106.3209992  47.6349978 106.6800014 105.6260751  47.6606777 107.2025858
 112.9989992  46.9579978 115.6340014 112.3469992  47.6519978 115.7230014
 113.4649992  47.1679978 114.8240014 112.9725937  47.0815019 115.5367533
 109.0359992  47.7889978 108.2920014 108.3039992  48.0179978 108.8650014
 109.4829992  47.0759978 108.7470014 108.9962753  47.7238972 108.4319715
 108.9329992  45.9639978 117.3600014 109.0129992  46.7269978 117.9310014
 108.3319992  46.2429978 116.6690014 108.8627245  46.1062630 117.3448424
 100.6809992  48.4199978 110.1740014 100.3509992  48.0489978 109.3560014
 101.2699992  47.7489978 110.5210014 100.7153970  48.2786063 110.1089404
 102.0479992  51.8479978 112.8560014 101.9529992  51.2689978 112.0990014
 102.7769992  51.4769978 113.3520014 102.1336161  51.7185891 112.8195209
 101.0479992  47.1879978 113.8080014 101.6129992  47.3099978 113.0450014
 101.3669992  47.8259978 114.4470014 101.1683977  47.2908851 113.7899424
 107.3569992  52.6919978 114.5420014 107.1169992  53.3539978 115.1900014
 107.1589992  51.8569978 114.9670014 107.2973826  52.6698115 114.6881566
 101.9279992  51.5879978 118.5250014 101.6169992  52.3699978 118.9800014
 101.2779992  51.4349978 117.8390014 101.7975538  51.6744087 118.4945898
 107.9069992  46.9519978 105.9770014 108.4859992  47.1019978 106.7240014
 108.3209992  47.4219978 105.2540014 108.0423122  47.0361277 105.9815042
  98.8479992  47.7859978 117.7540014  98.9179992  48.4369978 118.4520014
  97.9569992  47.8889978 117.4190014  98.7371802  47.8889757 117.8042249
 105.6329992  53.6879978 109.4120014 106.1069992  53.9839978 110.1900014
 105.0699992  54.4269978 109.1790014 105.6217361  53.8282721 109.4868611
 100.1669992  53.6589978 119.2880014 100.1749992  53.5229978 118.3410014
  99.2509992  53.5419978 119.5400014 100.0442528  53.6245463 119.1923243
 111.6059992  38.7019978 105.7900014 110.7059992  38.8409978 106.0850014
 111.8579992  39.5329978 105.3880014 111.5168683  38.8334055 105.7760232
  99.6719992  47.4889978 107.7640014  99.3799992  48.2569978 107.2730014
  98.9969992  46.8299978 107.6010014  99.5408497  47.5049745 107.6748260
  95.7649992  49.8519978 116.5790014  95.2629992  49.8239978 115.7640014
  95.7699992  48.9469978 116.8880014  95.6970416  49.7257368 116.5093766
  95.5149992  52.6329978 113.4630014  96.4609992  52.4879978 113.4440014
  95.4019992  53.4169978 114.0000014  95.6293578  52.7191697 113.5330317
 113.7129992  53.2989978 119.1450014 113.6629992  52.3429978 119.1080014
 112.8859992  53.5659978 119.5460014 113.5943987  53.2045174 119.1941446
 104.6909992  52.8729978 118.0210014 104.7789992  53.6989978 118.4960014
 103.8279992  52.5429978 118.2700014 104.5863357  52.9415468 118.1197653
 105.1059992  56.6449978 107.8270014 105.0299992  56.5239978 106.8810014
 105.1379992  57.5939978 107.9460014 105.0999156  56.7567530 107.7135048
  98.7589992  55.4339978 109.6080014  98.9109992  55.0859978 110.4870014
  97.9079992  55.0769978 109.3530014  98.6647899  55.3381738 109.6937340
 108.2069992  55.7989978 104.8290014 108.5819992  55.0549978 104.3590014
 108.2119992  55.5289978 105.7480014 108.2590024  55.6606950 104.8887987
 107.8759992  55.7249978 107.5790014 106.9409992  55.8249978 107.7570014
 108.1559992  55.0149978 108.1570014 107.7858173  55.6427239 107.6814998
 110.8649992  44.7919978 119.6250014 110.4569992  45.2719978 118.9050014
 110.9049992  43.8859978 119.3170014 110.8145476  44.7353160 119.4848247
  98.0139992  51.1759978 117.6220014  98.2299992  50.8139978 118.4810014
  97.1579992  50.8009978 117.4120014  97.9279354  51.0757906 117.7112160
 100.6319992  39.6459978 113.6170014  99.7709992  39.5589978 113.2100014
 100.6099992  40.5019978 114.0450014 100.5110411  39.7497884 113.6190857
 105.2949992  39.3679978 116.9920014 105.7149992  38.9529978 117.7450014
 104.3619992  39.1889978 117.1090014 105.2263736  39.2869910 117.1108968
 108.6219992  43.1229978 117.8450014 108.1079992  42.9979978 118.6430014
 108.4659992  44.0359978 117.6010014 108.5306967  43.2292123 117.9210937
 104.9569992  41.8599978 104.2770014 104.7029992  41.8789978 105.2000014
 104.6999992  40.9889978 103.9760014 104.8875133  41.7448110 104.3625082
 100.7229992  44.6109978 114.7120014 100.0819992  44.5709978 115.4210014
 100.7609992  45.5379978 114.4750014 100.6403670  44.7307795 114.7770550
 100.7199992  44.8319978 109.6240014  99.8279992  44.4919978 109.5660014
 101.1709992  44.4549978 108.8690014 100.6586815  44.7343762 109.5139203
 106.2559992  45.2479978 108.4410014 105.8469992  46.0629978 108.1500014
 106.9759992  45.1079978 107.8270014 106.2974013  45.3406571 108.3180875
 105.3579992  45.4239978 119.9290014 104.7949992  44.7189978 120.2500014
 106.1839992  45.3029978 120.3970014 105.3926674  45.3112165 120.0361751
 107.2609992  44.6939978 111.2550014 107.0649992  45.2999978 110.5400014
 107.4419992  43.8609978 110.8210014 107.2586584  44.6642513 111.0984212
  98.4729992  44.9319978 116.5790014  98.4349992  45.3319978 117.4480014
  97.9829992  44.1149978 116.6700014  98.4015621  44.8762510 116.7101377
 101.8389992  42.3059978 103.3780014 101.4079992  41.8609978 104.1080014
 101.1209992  42.6769978 102.8660014 101.6829363  42.2952968 103.4086211
  95.0819992  42.0479978 110.4300014  95.7119992  42.0189978 111.1490014
  95.5309992  41.6229978 109.7000014  95.2290692  41.9865316 110.4297771
 106.5249992  46.3319978 115.9270014 106.8479992  45.7009978 115.2840014
 106.0839992  45.7979978 116.5870014 106.5095789  46.1733522 115.9282232
 103.3019992  42.2599978 110.7110014 102.3909992  42.3169978 110.9990014
 103.8069992  42.1999978 111.5210014 103.2455387  42.2596870 110.8600646
  98.1299992  43.8889978 109.5370014  97.2409992  43.9879978 109.1970014
  98.4269992  43.0469978 109.1910014  98.0484177  43.7887687 109.4436940
 101.7829992  43.8889978 107.1940014 102.7149992  44.0179978 107.3720014
 101.5679992  44.5579978 106.5440014 101.8814472  43.9970806 107.1304891
 107.7069992  41.4949978 113.9750014 107.0299992  41.6259978 114.6390014
 107.2219992  41.3399978 113.1650014 107.5487265  41.4919659 113.9563397
 100.4569992  45.0829978 104.7610014  99.9149992  44.7039978 104.0690014
 101.2909992  45.2779978 104.3320014 100.4955159  45.0575076 104.6084419
 110.9949992  57.1659978 120.2520014 111.1939992  57.5899978 119.4170014
 111.6499992  57.5099978 120.8590014 111.1108501  57.2706091 120.2197097
  98.5929992  49.6399978 119.8600014  99.3249992  49.8949978 120.4210014
  97.8119992  49.8449978 120.3750014  98.5877684  49.7026468 120.0064782
 104.6219992  45.0469978 112.5980014 105.1859992  44.5009978 112.0510014
 104.4739992  44.5259978 113.3860014 104.6792575  44.9016552 112.6296987
  99.6239992  41.1839978 109.0160014  99.3069992  40.2809978 108.9810014
 100.4049992  41.1859978 108.4630014  99.6862307  41.0606951 108.9364314
 103.2479992  43.4359978 115.0120014 102.4129992  43.8899978 115.1220014
 103.7719992  43.7119978 115.7640014 103.2045070  43.5354666 115.1287152
 103.7929992  49.6489978 106.6960014 103.0479992  49.1409978 106.3740014
 103.6579992  49.6979978 107.6430014 103.6729047  49.5861596 106.7798845
 110.9429992  48.7819978 115.4830014 111.5839992  49.2379978 114.9390014
 110.1119992  48.8949978 115.0210014 110.9185171  48.8597502 115.3460237
 107.6899992  42.4629978 104.8960014 106.7519992  42.5739978 104.7440014
 107.9879992  43.3189978 105.2020014 107.6016402  42.5940621 104.9165571
 105.3119992  49.8329978 117.9330014 104.9659992  49.4509978 118.7400014
 105.1119992  50.7659978 118.0050014 105.2376523  49.9069095 118.0530735
 108.4089992  44.3299978 106.5560014 109.3009992  44.1919978 106.8750014
 108.4649992  45.1209978 106.0200014 108.5387107  44.4180526 106.5272091
  98.9169992  48.9439978 112.4660014  99.6619992  48.9409978 111.8650014
  98.9949992  48.1199978 112.9480014  99.0294158  48.8322916 112.4489153
 105.9179992  51.1069978 105.7220014 105.6229992  51.9339978 106.1030014
 105.2149992  50.4879978 105.9180014 105.7825471  51.1365227 105.8006698
  95.9249992  47.4039978 117.7810014  96.1479992  46.9859978 118.6130014
  95.3229992  46.7919978 117.3580014  95.8741260  47.2639933 117.8377320
 102.9419992  46.9209978 119.9940014 102.6459992  46.7559978 119.0990014
 103.8729992  46.7009978 119.9830014 103.0273982  46.8686578 119.8700045
 107.5619992  52.2949978 117.8840014 106.6619992  52.4779978 117.6160014
 107.5959992  52.5539978 118.8050014 107.4432909  52.3550815 117.9717852
 113.2569992  50.3399978 119.0880014 112.4059992  50.5779978 118.7210014
 113.8469992  50.3229978 118.3350014 113.2202408  50.3702966 118.9358879
 108.7489992  48.1329978 113.7370014 107.8209992  47.9019978 113.7100014
 109.1999992  47.3559978 113.4070014 108.6828165  47.9962774 113.6886790
 101.2919992  52.4619978 109.8700014 101.8199992  53.2349978 109.6700014
 100.4119992  52.6859978 109.5690014 101.2453176  52.5983161 109.8018409
  97.0469992  47.3239978 104.4580014  97.6629992  47.9509978 104.8370014
  96.1849992  47.6399978 104.7290014  97.0148195  47.4525798 104.5465386
 102.7199992  50.1249978 109.4470014 102.4789992  51.0499978 109.4880014
 101.9789992  49.6659978 109.8430014 102.5868390  50.1896403 109.5061404
 103.2339992  54.2739978 115.7620014 103.5969992  55.1279978 115.5280014
 103.7659992  53.9819978 116.5020014 103.3556090  54.3514058 115.8300219
 101.4029992  55.1459978 108.9920014 100.4529992  55.2519978 109.0430014
 101.7549992  55.9669978 109.3370014 101.3205480  55.2714438 109.0455999
 106.7779992  50.3729978 115.4620014 106.3529992  50.1449978 116.2890014
 107.3589992  49.6339978 115.2800014 106.7983930  50.2419843 115.5504731
 109.4369992  54.9249978 117.9320014 108.8349992  54.3689978 117.4360014
 109.7179992  55.5919978 117.3060014 109.3926829  54.9391613 117.7795443
  97.5589992  42.1579978 117.3390014  96.6669992  42.4959978 117.2720014
  97.4609992  41.3019978 117.7570014  97.4234965  42.0886499 117.3863044
 109.8469992  49.9739978 106.7630014 109.5699992  49.2459978 107.3190014
 110.7749992  50.0929978 106.9680014 109.9344499  49.8904213 106.8668044
  97.2109992  53.9619978 115.7740014  97.4279992  53.0299978 115.7430014
  97.4569992  54.2369978 116.6570014  97.2739809  53.8715686 115.8891691
 102.0089992  51.9839978 105.4400014 102.1559992  51.4639978 106.2300014
 102.0059992  52.8909978 105.7460014 102.0287300  52.0353964 105.5895895
  98.4619992  49.2359978 105.9500014  97.7759992  49.5889978 106.5170014
  98.9849992  49.9989978 105.7040014  98.4389033  49.3873746 105.9942661
 106.2939992  41.8989978 116.2290014 106.9929992  41.9729978 116.8790014
 105.9129992  41.0339978 116.3830014 106.3382097  41.7922389 116.3387997
 107.0779992  41.5509978 107.3260014 107.2979992  42.0219978 106.5230014
 107.6369992  41.9449978 107.9960014 107.1836730  41.6687432 107.3065906
 104.7469992  53.6809978 106.1890014 103.9299992  54.1779978 106.2410014
 105.2759992  54.1569978 105.5490014 104.7068508  53.8132543 106.1096035
 104.2779992  43.2789978 108.1610014 105.0899992  43.7829978 108.2070014
 104.0339992  43.1339978 109.0750014 104.3561467  43.3283749 108.2908575
 104.8139992  44.2649978 117.3460014 104.9329992  44.8389978 118.1030014
 105.4689992  43.5769978 117.4600014 104.9189146  44.2505574 117.4651313
 105.1619992  40.3599978 109.0990014 104.8149992  40.9769978 109.7440014
 105.8209992  40.8609978 108.6180014 105.2035949  40.5121099 109.1222271
 102.0849992  54.7249978 106.1710014 102.2459992  55.5249978 105.6700014
 101.8879992  55.0319978 107.0560014 102.0803919  54.8759129 106.2221006
 100.8199992  41.4229978 105.7860014 100.7359992  42.3109978 106.1330014
 101.7099992  41.1579978 106.0180014 100.9288163  41.5087179 105.8648596
 111.0179992  42.1719978 118.1810014 110.1019992  42.4339978 118.0930014
 111.3539992  42.1689978 117.2840014 110.9379789  42.2074626 118.0477847
 109.6209992  45.9219978 112.2760014 108.8229992  45.5069978 111.9480014
 110.0659992  45.2319978 112.7670014 109.5719684  45.7718628 112.2975227
  99.0779992  51.8499978 104.8470014  99.6699992  52.5499978 105.1230014
  99.5369992  51.4169978 104.1270014  99.2210791  51.8872908 104.7874607
  97.3939992  44.5149978 103.9630014  97.3489992  45.4539978 104.1410014
  96.5059992  44.2789978 103.6930014  97.2678555  44.6116874 103.9508939
 110.7069992  55.1779978 113.8990014 110.5509992  55.8569978 113.2420014
 111.6399992  55.2499978 114.1020014 110.8117387  55.2806390 113.8365342
  98.2019992  39.2959978 112.6360014  97.9729992  39.3549978 111.7080014
  97.7599992  38.5049978 112.9420014  98.1108801  39.1970540 112.5504729
  97.1329992  53.2369978 108.7960014  96.2999992  53.7089978 108.8240014
  97.6779992  53.7469978 108.1980014  97.0927590  53.3705897 108.7189194
  96.4209992  55.8489978 120.1260014  96.9609992  55.6329978 120.8860014
  95.9399992  55.0439978 119.9370014  96.4298613  55.7105400 120.2044782
 101.0179992  54.7689978 121.7470014 101.7859992  54.3099978 122.0880014
 100.9969992  54.5429978 120.8170014 101.1202135  54.6756668 121.6679491
 107.5949992  53.1489978 120.4760014 107.2439992  52.2919978 120.7190014
 108.3209992  53.2909978 121.0830014 107.6451590  53.0510178 120.5912907
  96.3279992  49.6599978 121.0810014  96.4719992  48.7579978 120.7940014
  95.5559992  49.9459978 120.5930014  96.2433303  49.5753243 120.9757908
 102.9829992  49.6289978 120.5130014 102.6549992  49.8999978 119.6560014
 103.1349992  48.6879978 120.4260014 102.9586030  49.5388973 120.3837945
 106.0219992  51.0499978 102.9490014 105.7529992  51.2309978 103.8500014
 105.8149992  50.1249978 102.8180014 105.9572000  50.9496774 103.0545693
 108.7179992  49.5449978 117.8970014 109.4629992  50.1339978 117.7770014
 107.9609992  50.1269978 117.9600014 108.7175205  49.7041997 117.8891119
  97.1609992  46.8599978 120.5010014  97.5689992  46.0029978 120.3800014
  96.8999992  46.8739978 121.4220014  97.1816016  46.7445119 120.6089192
 101.8189992  47.9759978 105.5190014 101.3589992  47.4919978 106.2050014
 102.0739992  47.3069978 104.8830014 101.7905038  47.8193689 105.5269447
 101.1079992  45.8689978 117.8750014 100.4889992  46.5429978 118.1550014
 101.4519992  46.1899978 117.0420014 101.0697605  46.0047198 117.8006707
 106.1269992  48.3399978 121.1520014 107.0809992  48.4239978 121.1250014
 105.9669992  47.6279978 121.7720014 106.2357182  48.2552842 121.2320733
 101.4469992  43.2239978 118.9570014 101.5969992  42.4949978 118.3550014
 101.4489992  44.0009978 118.3980014 101.4677967  43.2292708 118.7990541
 101.8599992  41.5929978 116.4500014 102.3949992  42.0449978 115.7980014
 101.0069992  41.4849978 116.0270014 101.8180374  41.6402665 116.3036710
 103.4409992  47.0329978 116.6890014 104.1919992  46.8769978 116.1160014
 103.1019992  47.8849978 116.4140014 103.4979587  47.1268138 116.5734078
 107.8569992  44.8479978 121.7180014 108.0489992  43.9169978 121.6060014
 108.7149992  45.2729978 121.7080014 107.9992269  44.7779928 121.7013192
 109.1739992  47.6369978 119.7950014 108.8919992  48.3459978 119.2180014
 110.1159992  47.5639978 119.6440014 109.2627656  47.7243128 119.6954809
  99.9259992  44.4219978 120.8690014  99.1579992  43.8889978 120.6590014
 100.6039992  44.1119978 120.2690014  99.9126973  44.3072375 120.7591796
 102.6649992  39.0499978 116.8810014 102.5669992  39.9959978 116.7760014
 101.9229992  38.6769978 116.4060014 102.5511913  39.1291813 116.8023539
 103.9289992  43.3709978 120.4450014 103.6939992  43.1519978 121.3470014
 103.1459992  43.1639978 119.9350014 103.7909219  43.3130066 120.4995852
 106.6449992  42.4989978 119.5210014 105.6969992  42.5309978 119.6530014
 106.9569992  41.8729978 120.1740014 106.5575190  42.4187262 119.6273564
 108.2789992  41.1329978 121.5260014 108.1819992  40.1809978 121.5200014
 107.9569992  41.4009978 122.3860014 108.2221761  41.0389744 121.6414936
  98.1059992  42.3419978 120.5730014  98.3179992  41.6359978 119.9630014
  97.9949992  41.9049978 121.4170014  98.1200269  42.1861921 120.6035873
 102.8869992  38.3439978 119.5530014 103.5989992  37.7039978 119.5390014
 102.7859992  38.6099978 118.6390014 102.9707261  38.2924190 119.4275537
 103.2409992  40.0259978 121.6060014 103.1089992  39.5509978 120.7860014
 102.6409992  40.7709978 121.5510014 103.1419070  40.0615789 121.4863251
  95.0039992  56.9389978 109.3430014  94.3569992  56.4769978 108.8100014
  95.3589992  56.2669978 109.9250014  94.9634506  56.7849503 109.3487341
  95.8739992  55.0189978 111.1470014  95.5399992  54.1389978 111.3190014
  96.0969992  55.3649978 112.0120014  95.8583721  54.9451938 111.2874168
 113.4229992  55.8289978 114.1280014 113.4009992  56.0139978 115.0670014
 114.1129992  56.3969978 113.7870014 113.5133439  55.9311887 114.2104791
 112.9859992  55.3959978 117.0500014 112.4989992  54.6609978 116.6790014
 113.5349992  55.0019978 117.7280014 112.9935247  55.2421057 117.0908461
 111.4369992  51.1859978 121.6880014 110.5709992  51.0809978 122.0820014
 111.8129992  51.9439978 122.1340014 111.3693401  51.2741708 121.8022620
 112.7379992  49.4419978 107.2020014 113.5879992  49.8629978 107.3290014
 112.7429992  48.7019978 107.8090014 112.8551143  49.3996094 107.3014750
 113.1319992  47.4959978 109.0260014 112.4059992  47.0159978 109.4230014
 113.7139992  47.7009978 109.7580014 113.1111635  47.4579166 109.1793748
 112.8909992  50.2809978 113.9730014 113.7249992  49.9029978 113.6930014
 113.0029992  51.2239978 113.8540014 113.0202522  50.3567742 113.9186020
 111.3779992  53.1589978 116.2800014 110.7299992  53.4839978 116.9060014
 110.8599992  52.7179978 115.6060014 111.2194168  53.1438523 116.2745307
 113.4009992  47.3969978 105.4170014 112.8789992  47.7529978 104.6980014
 113.3679992  48.0719978 106.0950014 113.3250699  47.5369848 105.4102129
 110.9189992  46.0169978 109.5890014 110.7689992  45.0719978 109.5680014
 110.5649992  46.2979978 110.4320014 110.8505527  45.9255605 109.7001859
  95.9539992  48.0949978 113.5990014  96.1389992  48.0129978 112.6630014
  96.8039992  47.9709978 114.0230014  96.0940916  48.0670393 113.5282896
 111.7749992  47.9869978 119.2270014 112.3579992  47.2519978 119.4190014
 112.3389992  48.7589978 119.2740014 111.9309781  47.9908145 119.2596164
 113.2719992  45.8899978 119.9120014 112.4089992  45.5109978 119.7460014
 113.8759992  45.1509978 119.8380014 113.2355944  45.7382978 119.8792984
 110.6299992  43.5989978 108.0510014 110.9089992  42.6919978 108.1750014
 111.3889992  44.0329978 107.6620014 110.7708619  43.5334502 108.0153795
 111.2409992  44.1809978 113.4870014 112.1739992  44.3929978 113.4530014
 111.0059992  44.2819978 114.4090014 111.3368308  44.2236503 113.6070214
 111.2709992  44.9179978 116.2630014 110.4279992  45.1859978 116.6290014
 111.7129992  45.7399978 116.0520014 111.2154138  45.0658273 116.2845518
  95.5519992  43.3649978 119.7400014  96.4709992  43.2429978 119.9760014
  95.1019992  42.6149978 120.1290014  95.6171148  43.2468751 119.8249408
 113.5539992  38.8979978 121.6160014 113.9029992  38.2439978 121.0110014
 113.7009992  39.7349978 121.1770014 113.6217355  38.9216067 121.4736564
 111.2429992  40.8619978 108.0990014 111.4249992  40.4129978 108.9250014
 110.6429992  40.2779978 107.6360014 111.1867529  40.7216131 108.1493619
  96.7729992  41.6779978 112.6310014  97.2179992  40.8859978 112.9330014
  97.2389992  42.3939978 113.0620014  96.8969059  41.6664474 112.7306079
  95.0769992  44.6769978 113.7000014  95.5689992  44.4559978 112.9090014
  95.4389992  45.5169978 113.9810014  95.1932923  44.7603468 113.6297407
 113.0729992  41.0069978 119.9660014 112.1559992  41.2779978 119.9300014
 113.1959992  40.4719978 119.1820014 112.9640828  40.9717700 119.8550785
 110.1609992  55.9189978 109.7000014 110.8139992  55.5709978 109.0920014
 110.6719992  56.4069978 110.3460014 110.3192777  55.9373815 109.7042047
  95.3539992  39.6729978 116.0990014  94.6889992  39.4269978 116.7420014
  94.9109992  40.2949978 115.5210014  95.2030937  39.7233614 116.1089379
  97.5459992  52.8479978 120.2430014  96.7249992  53.0229978 119.7830014
  97.2939992  52.7749978 121.1640014  97.3996173  52.8620794 120.3044972
 100.4999992  53.8219978 116.5020014 100.0759992  54.6319978 116.2190014
 101.4049992  53.9079978 116.2000014 100.5642433  53.9443331 116.4225377
 104.8119992  55.2209978 119.4610014 104.9959992  54.8879978 120.3390014
 105.6579992  55.5309978 119.1390014 104.9516484  55.2172979 119.5377617
 107.1569992  56.5069978 118.7050014 107.8339992  55.8739978 118.4650014
 107.4779992  56.9079978 119.5120014 107.2931323  56.4745691 118.7813158
 112.0739992  39.0969978 117.7850014 111.2609992  39.4219978 117.3970014
 112.3069992  38.3359978 117.2520014 111.9942566  39.0386559 117.6599213
  97.9019992  57.0789978 116.5490014  97.1819992  57.5189978 116.0980014
  97.5369992  56.8279978 117.3980014  97.7539796  57.1053824 116.6019329
 100.3689992  56.6789978 115.5790014  99.5049992  56.7509978 115.9830014
 100.3139992  57.2259978 114.7950014 100.2431942  56.7627849 115.5284000
 105.0799992  56.5669978 114.7540014 104.6229992  57.0959978 114.1000014
 105.2429992  57.1699978 115.4800014 105.0394476  56.7209140 114.7625499
 107.4079992  55.4449978 115.6990014 106.5029992  55.6099978 115.4340014
 107.8359992  56.2979978 115.6340014 107.3420700  55.5829529 115.6539520
 110.0119992  57.0149978 115.9940014 109.8299992  57.9309978 115.7840014
 110.1889992  56.6039978 115.1480014 110.0109907  57.0849741 115.8507883
  97.3169992  55.7019978 113.4590014  97.2989992  55.2759978 114.3170014
  98.1219992  55.3829978 113.0510014  97.4233221  55.6007233 113.5210225
  99.4579992  54.4119978 112.1140014  99.2389992  53.4949978 112.2840014
 100.2819992  54.5519978 112.5800014  99.5394702  54.3055511 112.2002527
 101.9949992  54.8819978 112.9630014 102.2079992  53.9939978 112.6760014
 102.0599992  54.8469978 113.9180014 102.0329075  54.7558307 113.0527373
 105.5039992  40.5459978 112.1070014 104.8299992  39.9159978 112.3630014
 106.0679992  40.0619978 111.5040014 105.4880384  40.3943708 112.0605020
 110.6469992  38.6529978 112.2200014 111.2499992  39.2009978 111.7180014
 109.7769992  38.9719978 111.9800014 110.6119190  38.7711041 112.1188679
 112.3739992  39.7919978 110.5530014 112.9849992  39.2779978 110.0270014
 112.7559992  40.6689978 110.5770014 112.5094475  39.8401323 110.4841208
  97.8309992  39.1799978 109.9290014  97.0539992  38.9449978 109.4220014
  98.3609992  38.3829978 109.9380014  97.7963451  39.0401268 109.8608627
 102.4099992  39.1059978 109.7430014 103.2839992  39.4949978 109.7130014
 102.2739992  38.8909978 110.6650014 102.5113207  39.1301923 109.8636509
 107.9669992  39.1359978 111.3920014 108.0429992  39.2319978 110.4430014
 107.6919992  38.2289978 111.5210014 107.9402042  39.0264241 111.2793811
 109.3199992  39.1619978 107.0840014 108.6169992  39.7769978 106.8750014
 108.8749992  38.3249978 107.2160014 109.1636292  39.1330085 107.0732439
  96.5679992  54.9259978 106.6310014  95.8829992  54.8879978 105.9630014
  96.5719992  55.8389978 106.9190014  96.4748174  55.0441998 106.5785310
 103.5539992  41.1869978 106.6330014 103.7319992  40.5399978 107.3150014
 103.4999992  42.0209978 107.1000014 103.5711025  41.2110504 106.7896433
 105.4319992  56.1349978 105.0280014 106.2979992  56.5019978 104.8500014
 105.1859992  55.6959978 104.2140014 105.5172097  56.1258525 104.8936019
 112.1409992  55.6979978 107.7070014 111.9469992  54.9499978 107.1420014
 112.1019992  56.4559978 107.1240014 112.1091645  55.6980786 107.5508148
  97.7879992  39.6939978 119.4470014  97.4219992  38.9279978 119.8900014
  98.7009992  39.7229978 119.7340014  97.8613225  39.5931906 119.5463459
  99.7609992  39.0439978 120.9830014 100.6599992  38.7699978 120.7980014
  99.3749992  38.3019978 121.4470014  99.8317237  38.9061508 121.0204710
 108.1829992  38.3769978 121.1650014 108.2589992  37.9509978 122.0190014
 109.0759992  38.3899978 120.8220014 108.3142267  38.3203952 121.2355932
 111.3589992  54.4499978 119.8570014 110.5769992  54.2629978 119.3380014
 111.2869992  55.3789978 120.0750014 111.2420863  54.5500221 119.8153574
 125.7649992  48.3359978 109.8880014 125.8539992  49.2799978 109.7560014
 125.1269992  48.0609978 109.2300014 125.6909062  48.4279812 109.7809641
 124.6979992  47.5909978 113.3070014 124.6599992  46.9449978 114.0120014
 124.3759992  47.1239978 112.5360014 124.6492679  47.4394276 113.2992921
 117.0659992  47.2049978 114.9000014 117.1079992  46.5799978 115.6230014
 117.7689992  47.8289978 115.0820014 117.1667345  47.2037873 115.0235274
 128.4039992  50.5299978 111.6090014 127.9629992  49.8099978 112.0590014
 128.3909992  51.2509978 112.2380014 128.3417960  50.5288329 111.7557567
 117.9899992  51.6549978 113.4350014 117.6199992  50.8529978 113.0650014
 118.9309992  51.4869978 113.4810014 118.0665984  51.5224638 113.3905603
 114.5999992  45.3149978 108.8280014 114.1519992  46.1609978 108.8090014
 114.0389992  44.7359978 108.3120014 114.4629603  45.3523674 108.7556720
 115.3099992  47.4769978 110.9540014 115.5239992  46.7069978 111.4810014
 116.0479992  47.5669978 110.3500014 115.4389652  47.3838012 110.9445212
 125.5159992  55.6339978 111.8210014 126.1349992  54.9579978 111.5470014
 125.3069992  55.4159978 112.7290014 125.5726232  55.5117938 111.9062517
 123.0869992  50.0229978 113.7130014 123.3909992  49.3369978 113.1190014
 123.8089992  50.1419978 114.3310014 123.2261152  49.9452189 113.7152123
 131.7499992  41.6249978 114.5740014 131.7999992  42.2349978 115.3100014
 132.1759992  42.0859978 113.8510014 131.8144108  41.7707709 114.5770112
 126.2279992  44.4169978 114.0410014 126.3709992  43.4709978 114.0610014
 126.1219992  44.6239978 113.1120014 126.2332509  44.3154813 113.9182231
 119.3829992  42.5189978 111.3130014 119.4259992  43.3789978 110.8950014
 118.9249992  41.9669978 110.6790014 119.3269815  42.5620621 111.1701197
 127.1049992  42.6499978 109.7140014 127.7519992  42.3209978 110.3390014
 127.6149992  43.1669978 109.0910014 127.2624317  42.6749227 109.7152167
 116.0029992  44.9159978 112.0750014 116.6569992  44.3659978 112.5070014
 116.0269992  44.6419978 111.1580014 116.0957199  44.8037167 112.0101668
 121.1599992  46.4659978 111.2900014 121.7759992  45.9389978 111.8000014
 120.5729992  45.8259978 110.8870014 121.1649239  46.3074117 111.3052952
 132.1419992  43.1029978 116.8100014 131.4529992  43.7609978 116.7140014
 132.1569992  42.9049978 117.7460014 132.0496740  43.1663243 116.9234630
 118.1929992  41.4369978 115.3870014 117.9739992  41.9669978 114.6210014
 117.5249992  41.6629978 116.0340014 118.0727001  41.5401154 115.3696064
 125.5619992  50.9369978 108.9310014 125.2669992  50.6139978 108.0800014
 125.2379992  51.8369978 108.9720014 125.4777983  51.0144026 108.8199771
 120.7619992  49.1119978 115.6750014 120.0219992  49.7109978 115.7780014
 121.4759992  49.6659978 115.3590014 120.7573288  49.2687356 115.6463805
 128.8689992  41.9409978 111.6940014 128.6539992  41.1749978 112.2270014
 129.5249992  42.4129978 112.2070014 128.9282673  41.9000728 111.8361990
 117.7869992  43.3289978 113.3390014 118.4009992  43.9619978 113.7130014
 118.2989992  42.8569978 112.6830014 117.9402277  43.3517352 113.3014279
 119.1699992  51.0769978 116.4620014 119.1639992  51.9559978 116.0840014
 118.3159992  50.9929978 116.8870014 119.0537925  51.1859535 116.4676887
 115.2909992  50.7479978 107.2440014 115.0189992  50.9769978 106.3550014
 115.3359992  51.5849978 107.7040014 115.2598709  50.8926058 107.1846107
 128.9159992  52.3689978 113.9560014 127.9739992  52.4279978 114.1180014
 129.1919992  53.2749978 113.8190014 128.8245865  52.4995288 113.9596192
 129.2159992  40.6559978 115.3740014 128.4799992  41.2659978 115.3360014
 129.8999992  41.0709978 114.8470014 129.2075506  40.7956400 115.2976051
 122.2199992  38.7419978 112.8400014 122.1019992  37.7939978 112.7850014
 121.3649992  39.0749978 113.1130014 122.0882679  38.6571926 112.8693720
 127.1679992  54.1499978 110.5820014 127.5929992  53.4429978 110.0970014
 127.4849992  54.9519978 110.1650014 127.2690266  54.1615190 110.4592479
 128.3279992  52.0509978 109.0900014 128.0699992  51.3609978 108.4790014
 128.3989992  51.6079978 109.9360014 128.3022837  51.8967106 109.1206912
 130.0139992  50.6179978 117.5680014 130.1529992  50.0259978 116.8280014
 130.1809992  51.4909978 117.2110014 130.0555562  50.6549896 117.4186283
 124.4859992  47.5799978 107.3400014 123.7749992  48.1149978 106.9880014
 125.1769992  47.6349978 106.6800014 124.4820751  47.6606777 107.2025858
 124.5399992  46.0369978 104.3790014 125.2409992  46.0599978 105.0300014
 124.8419992  45.4089978 103.7230014 124.6768282  45.9552339 104.3794496
 131.8549992  46.9579978 115.6340014 131.2029992  47.6519978 115.7230014
 132.3209992  47.1679978 114.8240014 131.8285937  47.0815019 115.5367533
 127.8919992  47.7889978 108.2920014 127.1599992  48.0179978 108.8650014
 128.3389992  47.0759978 108.7470014 127.8522753  47.7238972 108.4319715
 127.7889992  45.9639978 117.3600014 127.8689992  46.7269978 117.9310014
 127.1879992  46.2429978 116.6690014 127.7187245  46.1062630 117.3448424
 119.5369992  48.4199978 110.1740014 119.2069992  48.0489978 109.3560014
 120.1259992  47.7489978 110.5210014 119.5713970  48.2786063 110.1089404
 120.9039992  51.8479978 112.8560014 120.8089992  51.2689978 112.0990014
 121.6329992  51.4769978 113.3520014 120.9896161  51.7185891 112.8195209
 119.9039992  47.1879978 113.8080014 120.4689992  47.3099978 113.0450014
 120.2229992  47.8259978 114.4470014 120.0243977  47.2908851 113.7899424
 126.2129992  52.6919978 114.5420014 125.9729992  53.3539978 115.1900014
 126.0149992  51.8569978 114.9670014 126.1533826  52.6698115 114.6881566
 120.7839992  51.5879978 118.5250014 120.4729992  52.3699978 118.9800014
 120.1339992  51.4349978 117.8390014 120.6535538  51.6744087 118.4945898
 126.7629992  46.9519978 105.9770014 127.3419992  47.1019978 106.7240014
 127.1769992  47.4219978 105.2540014 126.8983122  47.0361277 105.9815042
 117.7039992  47.7859978 117.7540014 117.7739992  48.4369978 118.4520014
 116.8129992  47.8889978 117.4190014 117.5931802  47.8889757 117.8042249
 124.4889992  53.6879978 109.4120014 124.9629992  53.9839978 110.1900014
 123.9259992  54.4269978 109.1790014 124.4777361  53.8282721 109.4868611
 119.0229992  53.6589978 119.2880014 119.0309992  53.5229978 118.3410014
 118.1069992  53.5419978 119.5400014 118.9002528  53.6245463 119.1923243
 130.4619992  38.7019978 105.7900014 129.5619992  38.8409978 106.0850014
 130.7139992  39.5329978 105.3880014 130.3728683  38.8334055 105.7760232
 118.5279992  47.4889978 107.7640014 118.2359992  48.2569978 107.2730014
 117.8529992  46.8299978 107.6010014 118.3968497  47.5049745 107.6748260
 131.6509992  53.0679978 104.1660014 131.7239992  54.0069978 104.3370014
 132.5559992  52.7629978 104.1100014 131.7834158  53.1553061 104.1818392
 114.6209992  49.8519978 116.5790014 114.1189992  49.8239978 115.7640014
 114.6259992  48.9469978 116.8880014 114.5530416  49.7257368 116.5093766
 114.3709992  52.6329978 113.4630014 115.3169992  52.4879978 113.4440014
 114.2579992  53.4169978 114.0000014 114.4853578  52.7191697 113.5330317
 132.5689992  53.2989978 119.1450014 132.5189992  52.3429978 119.1080014
 131.7419992  53.5659978 119.5460014 132.4503987  53.2045174 119.1941446
 123.5469992  52.8729978 118.0210014 123.6349992  53.6989978 118.4960014
 122.6839992  52.5429978 118.2700014 123.4423357  52.9415468 118.1197653
 123.9619992  56.6449978 107.8270014 123.8859992  56.5239978 106.8810014
 123.9939992  57.5939978 107.9460014 123.9559156  56.7567530 107.7135048
 117.6149992  55.4339978 109.6080014 117.7669992  55.0859978 110.4870014
 116.7639992  55.0769978 109.3530014 117.5207899  55.3381738 109.6937340
 126.7319992  55.7249978 107.5790014 125.7969992  55.8249978 107.7570014
 127.0119992  55.0149978 108.1570014 126.6418173  55.6427239 107.6814998
 129.7209992  44.7919978 119.6250014 129.3129992  45.2719978 118.9050014
 129.7609992  43.8859978 119.3170014 129.6705476  44.7353160 119.4848247
 116.8699992  51.1759978 117.6220014 117.0859992  50.8139978 118.4810014
 116.0139992  50.8009978 117.4120014 116.7839354  51.0757906 117.7112160
 119.4879992  39.6459978 113.6170014 118.6269992  39.5589978 113.2100014
 119.4659992  40.5019978 114.0450014 119.3670411  39.7497884 113.6190857
 124.1509992  39.3679978 116.9920014 124.5709992  38.9529978 117.7450014
 123.2179992  39.1889978 117.1090014 124.0823736  39.2869910 117.1108968
 127.4779992  43.1229978 117.8450014 126.9639992  42.9979978 118.6430014
 127.3219992  44.0359978 117.6010014 127.3866967  43.2292123 117.9210937
 119.5789992  44.6109978 114.7120014 118.9379992  44.5709978 115.4210014
 119.6169992  45.5379978 114.4750014 119.4963670  44.7307795 114.7770550
 119.5759992  44.8319978 109.6240014 118.6839992  44.4919978 109.5660014
 120.0269992  44.4549978 108.8690014 119.5146815  44.7343762 109.5139203
 125.1119992  45.2479978 108.4410014 124.7029992  46.0629978 108.1500014
 125.8319992  45.1079978 107.8270014 125.1534013  45.3406571 108.3180875
 124.2139992  45.4239978 119.9290014 123.6509992  44.7189978 120.2500014
 125.0399992  45.3029978 120.3970014 124.2486674  45.3112165 120.0361751
 126.1169992  44.6939978 111.2550014 125.9209992  45.2999978 110.5400014
 126.2979992  43.8609978 110.8210014 126.1146584  44.6642513 111.0984212
 117.3289992  44.9319978 116.5790014 117.2909992  45.3319978 117.4480014
 116.8389992  44.1149978 116.6700014 117.2575621  44.8762510 116.7101377
 113.9379992  42.0479978 110.4300014 114.5679992  42.0189978 111.1490014
 114.3869992  41.6229978 109.7000014 114.0850692  41.9865316 110.4297771
 125.3809992  46.3319978 115.9270014 125.7039992  45.7009978 115.2840014
 124.9399992  45.7979978 116.5870014 125.3655789  46.1733522 115.9282232
 122.1579992  42.2599978 110.7110014 121.2469992  42.3169978 110.9990014
 122.6629992  42.1999978 111.5210014 122.1015387  42.2596870 110.8600646
 116.9859992  43.8889978 109.5370014 116.0969992  43.9879978 109.1970014
 117.2829992  43.0469978 109.1910014 116.9044177  43.7887687 109.4436940
 126.5629992  41.4949978 113.9750014 125.8859992  41.6259978 114.6390014
 126.0779992  41.3399978 113.1650014 126.4047265  41.4919659 113.9563397
 129.8509992  57.1659978 120.2520014 130.0499992  57.5899978 119.4170014
 130.5059992  57.5099978 120.8590014 129.9668501  57.2706091 120.2197097
 117.4489992  49.6399978 119.8600014 118.1809992  49.8949978 120.4210014
 116.6679992  49.8449978 120.3750014 117.4437684  49.7026468 120.0064782
 123.4779992  45.0469978 112.5980014 124.0419992  44.5009978 112.0510014
 123.3299992  44.5259978 113.3860014 123.5352575  44.9016552 112.6296987
 118.4799992  41.1839978 109.0160014 118.1629992  40.2809978 108.9810014
 119.2609992  41.1859978 108.4630014 118.5422307  41.0606951 108.9364314
 122.1039992  43.4359978 115.0120014 121.2689992  43.8899978 115.1220014
 122.6279992  43.7119978 115.7640014 122.0605070  43.5354666 115.1287152
 122.6489992  49.6489978 106.6960014 121.9039992  49.1409978 106.3740014
 122.5139992  49.6979978 107.6430014 122.5289047  49.5861596 106.7798845
 129.7989992  48.7819978 115.4830014 130.4399992  49.2379978 114.9390014
 128.9679992  48.8949978 115.0210014 129.7745171  48.8597502 115.3460237
 126.5459992  42.4629978 104.8960014 125.6079992  42.5739978 104.7440014
 126.8439992  43.3189978 105.2020014 126.4576402  42.5940621 104.9165571
 124.1679992  49.8329978 117.9330014 123.8219992  49.4509978 118.7400014
 123.9679992  50.7659978 118.0050014 124.0936523  49.9069095 118.0530735
 127.2649992  44.3299978 106.5560014 128.1569992  44.1919978 106.8750014
 127.3209992  45.1209978 106.0200014 127.3947107  44.4180526 106.5272091
 117.7729992  48.9439978 112.4660014 118.5179992  48.9409978 111.8650014
 117.8509992  48.1199978 112.9480014 117.8854158  48.8322916 112.4489153
 124.7739992  51.1069978 105.7220014 124.4789992  51.9339978 106.1030014
 124.0709992  50.4879978 105.9180014 124.6385471  51.1365227 105.8006698
 114.7809992  47.4039978 117.7810014 115.0039992  46.9859978 118.6130014
 114.1789992  46.7919978 117.3580014 114.7301260  47.2639933 117.8377320
 121.7979992  46.9209978 119.9940014 121.5019992  46.7559978 119.0990014
 122.7289992  46.7009978 119.9830014 121.8833982  46.8686578 119.8700045
 126.4179992  52.2949978 117.8840014 125.5179992  52.4779978 117.6160014
 126.4519992  52.5539978 118.8050014 126.2992909  52.3550815 117.9717852
 132.1499992  44.5389978 106.2510014 131.5949992  44.1429978 105.5790014
 132.2499992  45.4499978 105.9730014 132.0875888  44.6078990 106.1215206
 132.1129992  50.3399978 119.0880014 131.2619992  50.5779978 118.7210014
 132.7029992  50.3229978 118.3350014 132.0762408  50.3702966 118.9358879
 130.4449992  53.3249978 106.7160014 130.0719992  52.4999978 107.0250014
 130.7219992  53.1419978 105.8190014 130.4313871  53.1872441 106.6369677
 127.6049992  48.1329978 113.7370014 126.6769992  47.9019978 113.7100014
 128.0559992  47.3559978 113.4070014 127.5388165  47.9962774 113.6886790
 120.1479992  52.4619978 109.8700014 120.6759992  53.2349978 109.6700014
 119.2679992  52.6859978 109.5690014 120.1013176  52.5983161 109.8018409
 115.9029992  47.3239978 104.4580014 116.5189992  47.9509978 104.8370014
 115.0409992  47.6399978 104.7290014 115.8708195  47.4525798 104.5465386
 121.5759992  50.1249978 109.4470014 121.3349992  51.0499978 109.4880014
 120.8349992  49.6659978 109.8430014 121.4428390  50.1896403 109.5061404
 122.0899992  54.2739978 115.7620014 122.4529992  55.1279978 115.5280014
 122.6219992  53.9819978 116.5020014 122.2116090  54.3514058 115.8300219
 120.2589992  55.1459978 108.9920014 119.3089992  55.2519978 109.0430014
 120.6109992  55.9669978 109.3370014 120.1765480  55.2714438 109.0455999
 125.6339992  50.3729978 115.4620014 125.2089992  50.1449978 116.2890014
 126.2149992  49.6339978 115.2800014 125.6543930  50.2419843 115.5504731
 128.2929992  54.9249978 117.9320014 127.6909992  54.3689978 117.4360014
 128.5739992  55.5919978 117.3060014 128.2486829  54.9391613 117.7795443
 116.4149992  42.1579978 117.3390014 115.5229992  42.4959978 117.2720014
 116.3169992  41.3019978 117.7570014 116.2794965  42.0886499 117.3863044
 116.0669992  53.9619978 115.7740014 116.2839992  53.0299978 115.7430014
 116.3129992  54.2369978 116.6570014 116.1299809  53.8715686 115.8891690
 117.3179992  49.2359978 105.9500014 116.6319992  49.5889978 106.5170014
 117.8409992  49.9989978 105.7040014 117.2949033  49.3873746 105.9942661
 125.1499992  41.8989978 116.2290014 125.8489992  41.9729978 116.8790014
 124.7689992  41.0339978 116.3830014 125.1942097  41.7922389 116.3387997
 125.9339992  41.5509978 107.3260014 126.1539992  42.0219978 106.5230014
 126.4929992  41.9449978 107.9960014 126.0396730  41.6687432 107.3065906
 123.6029992  53.6809978 106.1890014 122.7859992  54.1779978 106.2410014
 124.1319992  54.1569978 105.5490014 123.5628508  53.8132543 106.1096035
 123.1339992  43.2789978 108.1610014 123.9459992  43.7829978 108.2070014
 122.8899992  43.1339978 109.0750014 123.2121467  43.3283749 108.2908575
 123.6699992  44.2649978 117.3460014 123.7889992  44.8389978 118.1030014
 124.3249992  43.5769978 117.4600014 123.7749146  44.2505574 117.4651314
 124.0179992  40.3599978 109.0990014 123.6709992  40.9769978 109.7440014
 124.6769992  40.8609978 108.6180014 124.0595949  40.5121099 109.1222271
 120.9409992  54.7249978 106.1710014 121.1019992  55.5249978 105.6700014
 120.7439992  55.0319978 107.0560014 120.9363919  54.8759129 106.2221006
 129.8739992  42.1719978 118.1810014 128.9579992  42.4339978 118.0930014
 130.2099992  42.1689978 117.2840014 129.7939789  42.2074626 118.0477847
 128.4769992  45.9219978 112.2760014 127.6789992  45.5069978 111.9480014
 128.9219992  45.2319978 112.7670014 128.4279684  45.7718628 112.2975227
 129.5629992  55.1779978 113.8990014 129.4069992  55.8569978 113.2420014
 130.4959992  55.2499978 114.1020014 129.6677387  55.2806390 113.8365342
 117.0579992  39.2959978 112.6360014 116.8289992  39.3549978 111.7080014
 116.6159992  38.5049978 112.9420014 116.9668801  39.1970540 112.5504729
 115.9889992  53.2369978 108.7960014 115.1559992  53.7089978 108.8240014
 116.5339992  53.7469978 108.1980014 115.9487590  53.3705897 108.7189194
 115.2769992  55.8489978 120.1260014 115.8169992  55.6329978 120.8860014
 114.7959992  55.0439978 119.9370014 115.2858613  55.7105400 120.2044782
 119.8739992  54.7689978 121.7470014 120.6419992  54.3099978 122.0880014
 119.8529992  54.5429978 120.8170014 119.9762135  54.6756668 121.6679491
 126.4509992  53.1489978 120.4760014 126.0999992  52.2919978 120.7190014
 127.1769992  53.2909978 121.0830014 126.5011590  53.0510178 120.5912907
 115.1839992  49.6599978 121.0810014 115.3279992  48.7579978 120.7940014
 114.4119992  49.9459978 120.5930014 115.0993303  49.5753243 120.9757908
 121.8389992  49.6289978 120.5130014 121.5109992  49.8999978 119.6560014
 121.9909992  48.6879978 120.4260014 121.8146030  49.5388973 120.3837945
 124.8779992  51.0499978 102.9490014 124.6089992  51.2309978 103.8500014
 124.6709992  50.1249978 102.8180014 124.8132000  50.9496774 103.0545693
 127.5739992  49.5449978 117.8970014 128.3189992  50.1339978 117.7770014
 126.8169992  50.1269978 117.9600014 127.5735205  49.7041997 117.8891119
 116.0169992  46.8599978 120.5010014 116.4249992  46.0029978 120.3800014
 115.7559992  46.8739978 121.4220014 116.0376016  46.7445119 120.6089192
 120.6749992  47.9759978 105.5190014 120.2149992  47.4919978 106.2050014
 120.9299992  47.3069978 104.8830014 120.6465038  47.8193689 105.5269447
 119.9639992  45.8689978 117.8750014 119.3449992  46.5429978 118.1550014
 120.3079992  46.1899978 117.0420014 119.9257605  46.0047198 117.8006707
 124.9829992  48.3399978 121.1520014 125.9369992  48.4239978 121.1250014
 124.8229992  47.6279978 121.7720014 125.0917182  48.2552842 121.2320733
 120.3029992  43.2239978 118.9570014 120.4529992  42.4949978 118.3550014
 120.3049992  44.0009978 118.3980014 120.3237967  43.2292708 118.7990541
 120.7159992  41.5929978 116.4500014 121.2509992  42.0449978 115.7980014
 119.8629992  41.4849978 116.0270014 120.6740374  41.6402665 116.3036710
 122.2969992  47.0329978 116.6890014 123.0479992  46.8769978 116.1160014
 121.9579992  47.8849978 116.4140014 122.3539587  47.1268138 116.5734078
 126.7129992  44.8479978 121.7180014 126.9049992  43.9169978 121.6060014
 127.5709992  45.2729978 121.7080014 126.8552269  44.7779928 121.7013192
 128.0299992  47.6369978 119.7950014 127.7479992  48.3459978 119.2180014
 128.9719992  47.5639978 119.6440014 128.1187656  47.7243128 119.6954809
 118.7819992  44.4219978 120.8690014 118.0139992  43.8889978 120.6590014
 119.4599992  44.1119978 120.2690014 118.7686973  44.3072375 120.7591796
 121.5209992  39.0499978 116.8810014 121.4229992  39.9959978 116.7760014
 120.7789992  38.6769978 116.4060014 121.4071913  39.1291813 116.8023539
 122.7849992  43.3709978 120.4450014 122.5499992  43.1519978 121.3470014
 122.0019992  43.1639978 119.9350014 122.6469219  43.3130066 120.4995852
 125.5009992  42.4989978 119.5210014 124.5529992  42.5309978 119.6530014
 125.8129992  41.8729978 120.1740014 125.4135190  42.4187262 119.6273564
 127.1349992  41.1329978 121.5260014 127.0379992  40.1809978 121.5200014
 126.8129992  41.4009978 122.3860014 127.0781761  41.0389744 121.6414936
 116.9619992  42.3419978 120.5730014 117.1739992  41.6359978 119.9630014
 116.8509992  41.9049978 121.4170014 116.9760269  42.1861921 120.6035873
 121.7429992  38.3439978 119.5530014 122.4549992  37.7039978 119.5390014
 121.6419992  38.6099978 118.6390014 121.8267261  38.2924190 119.4275537
 122.0969992  40.0259978 121.6060014 121.9649992  39.5509978 120.7860014
 121.4969992  40.7709978 121.5510014 121.9979070  40.0615789 121.4863251
 121.6429992  56.9089978 104.7830014 122.5759992  57.0669978 104.9260014
 121.3789992  57.5849978 104.1580014 121.7349308  57.0219104 104.7181396
 113.8599992  56.9389978 109.3430014 113.2129992  56.4769978 108.8100014
 114.2149992  56.2669978 109.9250014 113.8194506  56.7849503 109.3487341
 114.7299992  55.0189978 111.1470014 114.3959992  54.1389978 111.3190014
 114.9529992  55.3649978 112.0120014 114.7143721  54.9451938 111.2874168
 132.2789992  55.8289978 114.1280014 132.2569992  56.0139978 115.0670014
 132.9689992  56.3969978 113.7870014 132.3693439  55.9311887 114.2104791
 131.8419992  55.3959978 117.0500014 131.3549992  54.6609978 116.6790014
 132.3909992  55.0019978 117.7280014 131.8495247  55.2421057 117.0908461
 130.2929992  51.1859978 121.6880014 129.4269992  51.0809978 122.0820014
 130.6689992  51.9439978 122.1340014 130.2253401  51.2741708 121.8022620
 131.5939992  49.4419978 107.2020014 132.4439992  49.8629978 107.3290014
 131.5989992  48.7019978 107.8090014 131.7111143  49.3996094 107.3014750
 131.9879992  47.4959978 109.0260014 131.2619992  47.0159978 109.4230014
 132.5699992  47.7009978 109.7580014 131.9671635  47.4579166 109.1793748
 131.7469992  50.2809978 113.9730014 132.5809992  49.9029978 113.6930014
 131.8589992  51.2239978 113.8540014 131.8762522  50.3567742 113.9186020
 130.2339992  53.1589978 116.2800014 129.5859992  53.4839978 116.9060014
 129.7159992  52.7179978 115.6060014 130.0754168  53.1438523 116.2745307
 129.7749992  46.0169978 109.5890014 129.6249992  45.0719978 109.5680014
 129.4209992  46.2979978 110.4320014 129.7065527  45.9255605 109.7001859
 114.8099992  48.0949978 113.5990014 114.9949992  48.0129978 112.6630014
 115.6599992  47.9709978 114.0230014 114.9500916  48.0670393 113.5282896
 130.6309992  47.9869978 119.2270014 131.2139992  47.2519978 119.4190014
 131.1949992  48.7589978 119.2740014 130.7869781  47.9908145 119.2596164
 132.1279992  45.8899978 119.9120014 131.2649992  45.5109978 119.7460014
 132.7319992  45.1509978 119.8380014 132.0915944  45.7382978 119.8792984
 129.4859992  43.5989978 108.0510014 129.7649992  42.6919978 108.1750014
 130.2449992  44.0329978 107.6620014 129.6268619  43.5334502 108.0153795
 130.0969992  44.1809978 113.4870014 131.0299992  44.3929978 113.4530014
 129.8619992  44.2819978 114.4090014 130.1928308  44.2236503 113.6070214
 130.1269992  44.9179978 116.2630014 129.2839992  45.1859978 116.6290014
 130.5689992  45.7399978 116.0520014 130.0714138  45.0658273 116.2845518
 114.4079992  43.3649978 119.7400014 115.3269992  43.2429978 119.9760014
 113.9579992  42.6149978 120.1290014 114.4731148  43.2468751 119.8249408
 132.4099992  38.8979978 121.6160014 132.7589992  38.2439978 121.0110014
 132.5569992  39.7349978 121.1770014 132.4777355  38.9216067 121.4736564
 130.0989992  40.8619978 108.0990014 130.2809992  40.4129978 108.9250014
 129.4989992  40.2779978 107.6360014 130.0427529  40.7216131 108.1493619
 115.6289992  41.6779978 112.6310014 116.0739992  40.8859978 112.9330014
 116.0949992  42.3939978 113.0620014 115.7529059  41.6664474 112.7306079
 113.9329992  44.6769978 113.7000014 114.4249992  44.4559978 112.9090014
 114.2949992  45.5169978 113.9810014 114.0492923  44.7603468 113.6297407
 131.9289992  41.0069978 119.9660014 131.0119992  41.2779978 119.9300014
 132.0519992  40.4719978 119.1820014 131.8200828  40.9717700 119.8550785
 114.2469992  40.9349978 107.7540014 113.3219992  41.1429978 107.6250014
 114.7009992  41.4189978 107.0650014 114.1816374  41.0289949 107.6430957
 129.0169992  55.9189978 109.7000014 129.6699992  55.5709978 109.0920014
 129.5279992  56.4069978 110.3460014 129.1752777  55.9373815 109.7042047
 114.2099992  39.6729978 116.0990014 113.5449992  39.4269978 116.7420014
 113.7669992  40.2949978 115.5210014 114.0590937  39.7233614 116.1089379
 116.4019992  52.8479978 120.2430014 115.5809992  53.0229978 119.7830014
 116.1499992  52.7749978 121.1640014 116.2556173  52.8620794 120.3044972
 119.3559992  53.8219978 116.5020014 118.9319992  54.6319978 116.2190014
 120.2609992  53.9079978 116.2000014 119.4202433  53.9443331 116.4225377
 123.6679992  55.2209978 119.4610014 123.8519992  54.8879978 120.3390014
 124.5139992  55.5309978 119.1390014 123.8076484  55.2172979 119.5377617
 126.0129992  56.5069978 118.7050014 126.6899992  55.8739978 118.4650014
 126.3339992  56.9079978 119.5120014 126.1491323  56.4745691 118.7813158
 130.9299992  39.0969978 117.7850014 130.1169992  39.4219978 117.3970014
 131.1629992  38.3359978 117.2520014 130.8502566  39.0386559 117.6599213
 116.7579992  57.0789978 116.5490014 116.0379992  57.5189978 116.0980014
 116.3929992  56.8279978 117.3980014 116.6099796  57.1053824 116.6019329
 119.2249992  56.6789978 115.5790014 118.3609992  56.7509978 115.9830014
 119.1699992  57.2259978 114.7950014 119.0991942  56.7627849 115.5284000
 123.9359992  56.5669978 114.7540014 123.4789992  57.0959978 114.1000014
 124.0989992  57.1699978 115.4800014 123.8954476  56.7209140 114.7625499
 126.2639992  55.4449978 115.6990014 125.3589992  55.6099978 115.4340014
 126.6919992  56.2979978 115.6340014 126.1980700  55.5829529 115.6539520
 128.8679992  57.0149978 115.9940014 128.6859992  57.9309978 115.7840014
 129.0449992  56.6039978 115.1480014 128.8669907  57.0849741 115.8507883
 116.1729992  55.7019978 113.4590014 116.1549992  55.2759978 114.3170014
 116.9779992  55.3829978 113.0510014 116.2793221  55.6007233 113.5210225
 118.3139992  54.4119978 112.1140014 118.0949992  53.4949978 112.2840014
 119.1379992  54.5519978 112.5800014 118.3954702  54.3055511 112.2002527
 120.8509992  54.8819978 112.9630014 121.0639992  53.9939978 112.6760014
 120.9159992  54.8469978 113.9180014 120.8889075  54.7558307 113.0527373
 124.3599992  40.5459978 112.1070014 123.6859992  39.9159978 112.3630014
 124.9239992  40.0619978 111.5040014 124.3440384  40.3943708 112.0605020
 129.5029992  38.6529978 112.2200014 130.1059992  39.2009978 111.7180014
 128.6329992  38.9719978 111.9800014 129.4679190  38.7711041 112.1188679
 131.2299992  39.7919978 110.5530014 131.8409992  39.2779978 110.0270014
 131.6119992  40.6689978 110.5770014 131.3654475  39.8401323 110.4841208
 116.6869992  39.1799978 109.9290014 115.9099992  38.9449978 109.4220014
 117.2169992  38.3829978 109.9380014 116.6523451  39.0401268 109.8608627
 115.5229992  38.9779978 105.7330014 115.9619992  39.5889978 105.1410014
 114.8889992  39.5159978 106.2070014 115.4973859  39.1344064 105.7160305
 121.2659992  39.1059978 109.7430014 122.1399992  39.4949978 109.7130014
 121.1299992  38.8909978 110.6650014 121.3673207  39.1301923 109.8636509
 126.8229992  39.1359978 111.3920014 126.8989992  39.2319978 110.4430014
 126.5479992  38.2289978 111.5210014 126.7962042  39.0264241 111.2793811
 128.1759992  39.1619978 107.0840014 127.4729992  39.7769978 106.8750014
 127.7309992  38.3249978 107.2160014 128.0196292  39.1330085 107.0732439
 115.4239992  54.9259978 106.6310014 114.7389992  54.8879978 105.9630014
 115.4279992  55.8389978 106.9190014 115.3308174  55.0441998 106.5785310
 117.3839992  40.8939978 104.1750014 117.8749992  40.2639978 103.6480014
 118.0069992  41.1899978 104.8390014 117.5355062  40.8476770 104.1925438
 122.4099992  41.1869978 106.6330014 122.5879992  40.5399978 107.3150014
 122.3559992  42.0209978 107.1000014 122.4271025  41.2110504 106.7896433
 130.9969992  55.6979978 107.7070014 130.8029992  54.9499978 107.1420014
 130.9579992  56.4559978 107.1240014 130.9651645  55.6980786 107.5508148
 116.6439992  39.6939978 119.4470014 116.2779992  38.9279978 119.8900014
 117.5569992  39.7229978 119.7340014 116.7173225  39.5931906 119.5463459
 118.6169992  39.0439978 120.9830014 119.5159992  38.7699978 120.7980014
 118.2309992  38.3019978 121.4470014 118.6877237  38.9061508 121.0204710
 127.0389992  38.3769978 121.1650014 127.1149992  37.9509978 122.0190014
 127.9319992  38.3899978 120.8220014 127.1702267  38.3203952 121.2355932
 130.2149992  54.4499978 119.8570014 129.4329992  54.2629978 119.3380014
 130.1429992  55.3789978 120.0750014 130.0980863  54.5500221 119.8153574
 144.6209992  48.3359978 109.8880014 144.7099992  49.2799978 109.7560014
 143.9829992  48.0609978 109.2300014 144.5469062  48.4279812 109.7809641
 143.5539992  47.5909978 113.3070014 143.5159992  46.9449978 114.0120014
 143.2319992  47.1239978 112.5360014 143.5052679  47.4394276 113.2992921
 135.9219992  47.2049978 114.9000014 135.9639992  46.5799978 115.6230014
 136.6249992  47.8289978 115.0820014 136.0227345  47.2037873 115.0235274
 136.8459992  51.6549978 113.4350014 136.4759992  50.8529978 113.0650014
 137.7869992  51.4869978 113.4810014 136.9225984  51.5224638 113.3905603
 133.4559992  45.3149978 108.8280014 133.0079992  46.1609978 108.8090014
 132.8949992  44.7359978 108.3120014 133.3189603  45.3523674 108.7556720
 134.1659992  47.4769978 110.9540014 134.3799992  46.7069978 111.4810014
 134.9039992  47.5669978 110.3500014 134.2949652  47.3838012 110.9445212
 144.3719992  55.6339978 111.8210014 144.9909992  54.9579978 111.5470014
 144.1629992  55.4159978 112.7290014 144.4286232  55.5117938 111.9062517
 141.9429992  50.0229978 113.7130014 142.2469992  49.3369978 113.1190014
 142.6649992  50.1419978 114.3310014 142.0821152  49.9452189 113.7152123
 145.0839992  44.4169978 114.0410014 145.2269992  43.4709978 114.0610014
 144.9779992  44.6239978 113.1120014 145.0892509  44.3154813 113.9182231
 138.2389992  42.5189978 111.3130014 138.2819992  43.3789978 110.8950014
 137.7809992  41.9669978 110.6790014 138.1829815  42.5620621 111.1701197
 134.8589992  44.9159978 112.0750014 135.5129992  44.3659978 112.5070014
 134.8829992  44.6419978 111.1580014 134.9517199  44.8037167 112.0101668
 140.0159992  46.4659978 111.2900014 140.6319992  45.9389978 111.8000014
 139.4289992  45.8259978 110.8870014 140.0209239  46.3074117 111.3052952
 137.0489992  41.4369978 115.3870014 136.8299992  41.9669978 114.6210014
 136.3809992  41.6629978 116.0340014 136.9287001  41.5401154 115.3696064
 144.4179992  50.9369978 108.9310014 144.1229992  50.6139978 108.0800014
 144.0939992  51.8369978 108.9720014 144.3337983  51.0144026 108.8199771
 139.6179992  49.1119978 115.6750014 138.8779992  49.7109978 115.7780014
 140.3319992  49.6659978 115.3590014 139.6133288  49.2687356 115.6463805
 136.6429992  43.3289978 113.3390014 137.2569992  43.9619978 113.7130014
 137.1549992  42.8569978 112.6830014 136.7962277  43.3517352 113.3014279
 138.0259992  51.0769978 116.4620014 138.0199992  51.9559978 116.0840014
 137.1719992  50.9929978 116.8870014 137.9097925  51.1859535 116.4676887
 134.1469992  50.7479978 107.2440014 133.8749992  50.9769978 106.3550014
 134.1919992  51.5849978 107.7040014 134.1158709  50.8926058 107.1846107
 141.0759992  38.7419978 112.8400014 140.9579992  37.7939978 112.7850014
 140.2209992  39.0749978 113.1130014 140.9442679  38.6571926 112.8693720
 143.3419992  47.5799978 107.3400014 142.6309992  48.1149978 106.9880014
 144.0329992  47.6349978 106.6800014 143.3380751  47.6606777 107.2025858
 143.3959992  46.0369978 104.3790014 144.0969992  46.0599978 105.0300014
 143.6979992  45.4089978 103.7230014 143.5328282  45.9552339 104.3794496
 138.3929992  48.4199978 110.1740014 138.0629992  48.0489978 109.3560014
 138.9819992  47.7489978 110.5210014 138.4273970  48.2786063 110.1089404
 139.7599992  51.8479978 112.8560014 139.6649992  51.2689978 112.0990014
 140.4889992  51.4769978 113.3520014 139.8456161  51.7185891 112.8195209
 138.7599992  47.1879978 113.8080014 139.3249992  47.3099978 113.0450014
 139.0789992  47.8259978 114.4470014 138.8803977  47.2908851 113.7899424
 145.0689992  52.6919978 114.5420014 144.8289992  53.3539978 115.1900014
 144.8709992  51.8569978 114.9670014 145.0093826  52.6698115 114.6881566
 139.6399992  51.5879978 118.5250014 139.3289992  52.3699978 118.9800014
 138.9899992  51.4349978 117.8390014 139.5095538  51.6744087 118.4945898
 136.5599992  47.7859978 117.7540014 136.6299992  48.4369978 118.4520014
 135.6689992  47.8889978 117.4190014 136.4491802  47.8889757 117.8042249
 143.3449992  53.6879978 109.4120014 143.8189992  53.9839978 110.1900014
 142.7819992  54.4269978 109.1790014 143.3337361  53.8282721 109.4868611
 137.8789992  53.6589978 119.2880014 137.8869992  53.5229978 118.3410014
 136.9629992  53.5419978 119.5400014 137.7562528  53.6245463 119.1923243
 137.3839992  47.4889978 107.7640014 137.0919992  48.2569978 107.2730014
 136.7089992  46.8299978 107.6010014 137.2528497  47.5049745 107.6748260
 133.4769992  49.8519978 116.5790014 132.9749992  49.8239978 115.7640014
 133.4819992  48.9469978 116.8880014 133.4090416  49.7257368 116.5093766
 133.2269992  52.6329978 113.4630014 134.1729992  52.4879978 113.4440014
 133.1139992  53.4169978 114.0000014 133.3413578  52.7191697 113.5330317
 142.4029992  52.8729978 118.0210014 142.4909992  53.6989978 118.4960014
 141.5399992  52.5429978 118.2700014 142.2983357  52.9415468 118.1197653
 142.8179992  56.6449978 107.8270014 142.7419992  56.5239978 106.8810014
 142.8499992  57.5939978 107.9460014 142.8119156  56.7567530 107.7135048
 136.4709992  55.4339978 109.6080014 136.6229992  55.0859978 110.4870014
 135.6199992  55.0769978 109.3530014 136.3767899  55.3381738 109.6937340
 135.7259992  51.1759978 117.6220014 135.9419992  50.8139978 118.4810014
 134.8699992  50.8009978 117.4120014 135.6399354  51.0757906 117.7112160
 138.3439992  39.6459978 113.6170014 137.4829992  39.5589978 113.2100014
 138.3219992  40.5019978 114.0450014 138.2230411  39.7497884 113.6190857
 143.0069992  39.3679978 116.9920014 143.4269992  38.9529978 117.7450014
 142.0739992  39.1889978 117.1090014 142.9383736  39.2869910 117.1108968
 142.6689992  41.8599978 104.2770014 142.4149992  41.8789978 105.2000014
 142.4119992  40.9889978 103.9760014 142.5995133  41.7448110 104.3625082
 138.4349992  44.6109978 114.7120014 137.7939992  44.5709978 115.4210014
 138.4729992  45.5379978 114.4750014 138.3523670  44.7307795 114.7770550
 138.4319992  44.8319978 109.6240014 137.5399992  44.4919978 109.5660014
 138.8829992  44.4549978 108.8690014 138.3706815  44.7343762 109.5139203
 143.9679992  45.2479978 108.4410014 143.5589992  46.0629978 108.1500014
 144.6879992  45.1079978 107.8270014 144.0094013  45.3406571 108.3180875
 143.0699992  45.4239978 119.9290014 142.5069992  44.7189978 120.2500014
 143.8959992  45.3029978 120.3970014 143.1046674  45.3112165 120.0361751
 144.9729992  44.6939978 111.2550014 144.7769992  45.2999978 110.5400014
 145.1539992  43.8609978 110.8210014 144.9706584  44.6642513 111.0984212
 136.1849992  44.9319978 116.5790014 136.1469992  45.3319978 117.4480014
 135.6949992  44.1149978 116.6700014 136.1135621  44.8762510 116.7101377
 132.7939992  42.0479978 110.4300014 133.4239992  42.0189978 111.1490014
 133.2429992  41.6229978 109.7000014 132.9410692  41.9865316 110.4297771
 134.0679992  42.7939978 105.8540014 134.5419992  43.3849978 105.2690014
 133.3499992  43.3239978 106.2010014 134.0358640  42.9465511 105.8207969
 144.2369992  46.3319978 115.9270014 144.5599992  45.7009978 115.2840014
 143.7959992  45.7979978 116.5870014 144.2215789  46.1733522 115.9282232
 141.0139992  42.2599978 110.7110014 140.1029992  42.3169978 110.9990014
 141.5189992  42.1999978 111.5210014 140.9575387  42.2596870 110.8600646
 135.8419992  43.8889978 109.5370014 134.9529992  43.9879978 109.1970014
 136.1389992  43.0469978 109.1910014 135.7604177  43.7887687 109.4436940
 139.4949992  43.8889978 107.1940014 140.4269992  44.0179978 107.3720014
 139.2799992  44.5579978 106.5440014 139.5934472  43.9970806 107.1304891
 145.4189992  41.4949978 113.9750014 144.7419992  41.6259978 114.6390014
 144.9339992  41.3399978 113.1650014 145.2607265  41.4919659 113.9563397
 138.1689992  45.0829978 104.7610014 137.6269992  44.7039978 104.0690014
 139.0029992  45.2779978 104.3320014 138.2075159  45.0575076 104.6084419
 136.3049992  49.6399978 119.8600014 137.0369992  49.8949978 120.4210014
 135.5239992  49.8449978 120.3750014 136.2997684  49.7026468 120.0064782
 142.3339992  45.0469978 112.5980014 142.8979992  44.5009978 112.0510014
 142.1859992  44.5259978 113.3860014 142.3912575  44.9016552 112.6296987
 137.3359992  41.1839978 109.0160014 137.0189992  40.2809978 108.9810014
 138.1169992  41.1859978 108.4630014 137.3982307  41.0606951 108.9364314
 140.9599992  43.4359978 115.0120014 140.1249992  43.8899978 115.1220014
 141.4839992  43.7119978 115.7640014 140.9165070  43.5354666 115.1287152
 141.5049992  49.6489978 106.6960014 140.7599992  49.1409978 106.3740014
 141.3699992  49.6979978 107.6430014 141.3849047  49.5861596 106.7798845
 145.4019992  42.4629978 104.8960014 144.4639992  42.5739978 104.7440014
 145.6999992  43.3189978 105.2020014 145.3136402  42.5940621 104.9165571
 143.0239992  49.8329978 117.9330014 142.6779992  49.4509978 118.7400014
 142.8239992  50.7659978 118.0050014 142.9496523  49.9069095 118.0530735
 136.6289992  48.9439978 112.4660014 137.3739992  48.9409978 111.8650014
 136.7069992  48.1199978 112.9480014 136.7414158  48.8322916 112.4489153
 133.6369992  47.4039978 117.7810014 133.8599992  46.9859978 118.6130014
 133.0349992  46.7919978 117.3580014 133.5861260  47.2639933 117.8377320
 140.6539992  46.9209978 119.9940014 140.3579992  46.7559978 119.0990014
 141.5849992  46.7009978 119.9830014 140.7393982  46.8686578 119.8700045
 145.2739992  52.2949978 117.8840014 144.3739992  52.4779978 117.6160014
 145.3079992  52.5539978 118.8050014 145.1552909  52.3550815 117.9717852
 139.0039992  52.4619978 109.8700014 139.5319992  53.2349978 109.6700014
 138.1239992  52.6859978 109.5690014 138.9573176  52.5983161 109.8018409
 140.4319992  50.1249978 109.4470014 140.1909992  51.0499978 109.4880014
 139.6909992  49.6659978 109.8430014 140.2988390  50.1896403 109.5061404
 140.9459992  54.2739978 115.7620014 141.3089992  55.1279978 115.5280014
 141.4779992  53.9819978 116.5020014 141.0676090  54.3514058 115.8300219
 139.1149992  55.1459978 108.9920014 138.1649992  55.2519978 109.0430014
 139.4669992  55.9669978 109.3370014 139.0325480  55.2714438 109.0455999
 144.4899992  50.3729978 115.4620014 144.0649992  50.1449978 116.2890014
 145.0709992  49.6339978 115.2800014 144.5103930  50.2419843 115.5504732
 135.2709992  42.1579978 117.3390014 134.3789992  42.4959978 117.2720014
 135.1729992  41.3019978 117.7570014 135.1354965  42.0886499 117.3863044
 134.9229992  53.9619978 115.7740014 135.1399992  53.0299978 115.7430014
 135.1689992  54.2369978 116.6570014 134.9859809  53.8715686 115.8891690
 139.7209992  51.9839978 105.4400014 139.8679992  51.4639978 106.2300014
 139.7179992  52.8909978 105.7460014 139.7407300  52.0353964 105.5895895
 136.1739992  49.2359978 105.9500014 135.4879992  49.5889978 106.5170014
 136.6969992  49.9989978 105.7040014 136.1509033  49.3873746 105.9942661
 144.0059992  41.8989978 116.2290014 144.7049992  41.9729978 116.8790014
 143.6249992  41.0339978 116.3830014 144.0502097  41.7922389 116.3387997
 144.7899992  41.5509978 107.3260014 145.0099992  42.0219978 106.5230014
 145.3489992  41.9449978 107.9960014 144.8956730  41.6687432 107.3065906
 141.9899992  43.2789978 108.1610014 142.8019992  43.7829978 108.2070014
 141.7459992  43.1339978 109.0750014 142.0681467  43.3283749 108.2908575
 142.5259992  44.2649978 117.3460014 142.6449992  44.8389978 118.1030014
 143.1809992  43.5769978 117.4600014 142.6309146  44.2505574 117.4651314
 142.8739992  40.3599978 109.0990014 142.5269992  40.9769978 109.7440014
 143.5329992  40.8609978 108.6180014 142.9155949  40.5121099 109.1222271
 139.7969992  54.7249978 106.1710014 139.9579992  55.5249978 105.6700014
 139.5999992  55.0319978 107.0560014 139.7923919  54.8759129 106.2221006
 138.5319992  41.4229978 105.7860014 138.4479992  42.3109978 106.1330014
 139.4219992  41.1579978 106.0180014 138.6408163  41.5087179 105.8648596
 136.7899992  51.8499978 104.8470014 137.3819992  52.5499978 105.1230014
 137.2489992  51.4169978 104.1270014 136.9330791  51.8872908 104.7874607
 135.9139992  39.2959978 112.6360014 135.6849992  39.3549978 111.7080014
 135.4719992  38.5049978 112.9420014 135.8228801  39.1970540 112.5504729
 134.8449992  53.2369978 108.7960014 134.0119992  53.7089978 108.8240014
 135.3899992  53.7469978 108.1980014 134.8047590  53.3705897 108.7189194
 134.1329992  55.8489978 120.1260014 134.6729992  55.6329978 120.8860014
 133.6519992  55.0439978 119.9370014 134.1418613  55.7105400 120.2044782
 138.7299992  54.7689978 121.7470014 139.4979992  54.3099978 122.0880014
 138.7089992  54.5429978 120.8170014 138.8322135  54.6756668 121.6679491
 145.3069992  53.1489978 120.4760014 144.9559992  52.2919978 120.7190014
 146.0329992  53.2909978 121.0830014 145.3571590  53.0510178 120.5912907
 134.0399992  49.6599978 121.0810014 134.1839992  48.7579978 120.7940014
 133.2679992  49.9459978 120.5930014 133.9553303  49.5753243 120.9757908
 140.6949992  49.6289978 120.5130014 140.3669992  49.8999978 119.6560014
 140.8469992  48.6879978 120.4260014 140.6706030  49.5388973 120.3837945
 134.8729992  46.8599978 120.5010014 135.2809992  46.0029978 120.3800014
 134.6119992  46.8739978 121.4220014 134.8936016  46.7445119 120.6089192
 139.5309992  47.9759978 105.5190014 139.0709992  47.4919978 106.2050014
 139.7859992  47.3069978 104.8830014 139.5025038  47.8193689 105.5269447
 138.8199992  45.8689978 117.8750014 138.2009992  46.5429978 118.1550014
 139.1639992  46.1899978 117.0420014 138.7817605  46.0047198 117.8006707
 143.8389992  48.3399978 121.1520014 144.7929992  48.4239978 121.1250014
 143.6789992  47.6279978 121.7720014 143.9477182  48.2552842 121.2320733
 139.1589992  43.2239978 118.9570014 139.3089992  42.4949978 118.3550014
 139.1609992  44.0009978 118.3980014 139.1797967  43.2292708 118.7990541
 139.5719992  41.5929978 116.4500014 140.1069992  42.0449978 115.7980014
 138.7189992  41.4849978 116.0270014 139.5300374  41.6402665 116.3036710
 141.1529992  47.0329978 116.6890014 141.9039992  46.8769978 116.1160014
 140.8139992  47.8849978 116.4140014 141.2099587  47.1268138 116.5734078
 145.5689992  44.8479978 121.7180014 145.7609992  43.9169978 121.6060014
 146.4269992  45.2729978 121.7080014 145.7112269  44.7779928 121.7013192
 137.6379992  44.4219978 120.8690014 136.8699992  43.8889978 120.6590014
 138.3159992  44.1119978 120.2690014 137.6246973  44.3072375 120.7591796
 140.3769992  39.0499978 116.8810014 140.2789992  39.9959978 116.7760014
 139.6349992  38.6769978 116.4060014 140.2631913  39.1291813 116.8023539
 141.6409992  43.3709978 120.4450014 141.4059992  43.1519978 121.3470014
 140.8579992  43.1639978 119.9350014 141.5029219  43.3130066 120.4995852
 144.3569992  42.4989978 119.5210014 143.4089992  42.5309978 119.6530014
 144.6689992  41.8729978 120.1740014 144.2695190  42.4187262 119.6273564
 135.8179992  42.3419978 120.5730014 136.0299992  41.6359978 119.9630014
 135.7069992  41.9049978 121.4170014 135.8320269  42.1861921 120.6035873
 140.5989992  38.3439978 119.5530014 141.3109992  37.7039978 119.5390014
 140.4979992  38.6099978 118.6390014 140.6827261  38.2924190 119.4275537
 140.9529992  40.0259978 121.6060014 140.8209992  39.5509978 120.7860014
 140.3529992  40.7709978 121.5510014 140.8539070  40.0615789 121.4863251
 140.4989992  56.9089978 104.7830014 141.4319992  57.0669978 104.9260014
 140.2349992  57.5849978 104.1580014 140.5909308  57.0219104 104.7181396
 134.0669992  51.5459978 104.2650014 134.9809992  51.6249978 104.5390014
 134.0749992  50.8589978 103.5990014 134.1931143  51.4639085 104.2124274
 132.7159992  56.9389978 109.3430014 132.0689992  56.4769978 108.8100014
 133.0709992  56.2669978 109.9250014 132.6754506  56.7849503 109.3487341
 133.5859992  55.0189978 111.1470014 133.2519992  54.1389978 111.3190014
 133.8089992  55.3649978 112.0120014 133.5703721  54.9451938 111.2874168
 133.6659992  48.0949978 113.5990014 133.8509992  48.0129978 112.6630014
 134.5159992  47.9709978 114.0230014 133.8060916  48.0670393 113.5282896
 133.2639992  43.3649978 119.7400014 134.1829992  43.2429978 119.9760014
 132.8139992  42.6149978 120.1290014 133.3291148  43.2468751 119.8249408
 134.4849992  41.6779978 112.6310014 134.9299992  40.8859978 112.9330014
 134.9509992  42.3939978 113.0620014 134.6089059  41.6664474 112.7306079
 132.7889992  44.6769978 113.7000014 133.2809992  44.4559978 112.9090014
 133.1509992  45.5169978 113.9810014 132.9052923  44.7603468 113.6297407
 133.1029992  40.9349978 107.7540014 132.1779992  41.1429978 107.6250014
 133.5569992  41.4189978 107.0650014 133.0376374  41.0289949 107.6430957
 133.0659992  39.6729978 116.0990014 132.4009992  39.4269978 116.7420014
 132.6229992  40.2949978 115.5210014 132.9150937  39.7233614 116.1089379
 135.2579992  52.8479978 120.2430014 134.4369992  53.0229978 119.7830014
 135.0059992  52.7749978 121.1640014 135.1116173  52.8620794 120.3044972
 138.2119992  53.8219978 116.5020014 137.7879992  54.6319978 116.2190014
 139.1169992  53.9079978 116.2000014 138.2762433  53.9443331 116.4225377
 142.5239992  55.2209978 119.4610014 142.7079992  54.8879978 120.3390014
 143.3699992  55.5309978 119.1390014 142.6636484  55.2172979 119.5377617
 144.8689992  56.5069978 118.7050014 145.5459992  55.8739978 118.4650014
 145.1899992  56.9079978 119.5120014 145.0051323  56.4745691 118.7813158
 135.6139992  57.0789978 116.5490014 134.8939992  57.5189978 116.0980014
 135.2489992  56.8279978 117.3980014 135.4659796  57.1053824 116.6019329
 138.0809992  56.6789978 115.5790014 137.2169992  56.7509978 115.9830014
 138.0259992  57.2259978 114.7950014 137.9551942  56.7627849 115.5284000
 142.7919992  56.5669978 114.7540014 142.3349992  57.0959978 114.1000014
 142.9549992  57.1699978 115.4800014 142.7514476  56.7209140 114.7625499
 145.1199992  55.4449978 115.6990014 144.2149992  55.6099978 115.4340014
 145.5479992  56.2979978 115.6340014 145.0540700  55.5829529 115.6539520
 135.0289992  55.7019978 113.4590014 135.0109992  55.2759978 114.3170014
 135.8339992  55.3829978 113.0510014 135.1353221  55.6007233 113.5210225
 137.1699992  54.4119978 112.1140014 136.9509992  53.4949978 112.2840014
 137.9939992  54.5519978 112.5800014 137.2514702  54.3055511 112.2002527
 139.7069992  54.8819978 112.9630014 139.9199992  53.9939978 112.6760014
 139.7719992  54.8469978 113.9180014 139.7449075  54.7558307 113.0527373
 143.2159992  40.5459978 112.1070014 142.5419992  39.9159978 112.3630014
 143.7799992  40.0619978 111.5040014 143.2000384  40.3943708 112.0605020
 135.5429992  39.1799978 109.9290014 134.7659992  38.9449978 109.4220014
 136.0729992  38.3829978 109.9380014 135.5083451  39.0401268 109.8608627
 134.3789992  38.9779978 105.7330014 134.8179992  39.5889978 105.1410014
 133.7449992  39.5159978 106.2070014 134.3533859  39.1344064 105.7160305
 140.1219992  39.1059978 109.7430014 140.9959992  39.4949978 109.7130014
 139.9859992  38.8909978 110.6650014 140.2233207  39.1301923 109.8636509
 141.2659992  41.1869978 106.6330014 141.4439992  40.5399978 107.3150014
 141.2119992  42.0209978 107.1000014 141.2831025  41.2110504 106.7896433
 135.4999992  39.6939978 119.4470014 135.1339992  38.9279978 119.8900014
 136.4129992  39.7229978 119.7340014 135.5733225  39.5931906 119.5463459
 137.4729992  39.0439978 120.9830014 138.3719992  38.7699978 120.7980014
 137.0869992  38.3019978 121.4470014 137.5437237  38.9061508 121.0204710
  12.6289992  67.1919978 109.8880014  12.7179992  68.1359978 109.7560014
  11.9909992  66.9169978 109.2300014  12.5549062  67.2839812 109.7809641
  11.5619992  66.4469978 113.3070014  11.5239992  65.8009978 114.0120014
  11.2399992  65.9799978 112.5360014  11.5132679  66.2954276 113.2992921
   3.9299992  66.0609978 114.9000014   3.9719992  65.4359978 115.6230014
   4.6329992  66.6849978 115.0820014   4.0307345  66.0597873 115.0235274
  15.2679992  69.3859978 111.6090014  14.8269992  68.6659978 112.0590014
  15.2549992  70.1069978 112.2380014  15.2057960  69.3848329 111.7557567
   4.8539992  70.5109978 113.4350014   4.4839992  69.7089978 113.0650014
   5.7949992  70.3429978 113.4810014   4.9305984  70.3784638 113.3905603
   1.4639992  64.1709978 108.8280014   1.0159992  65.0169978 108.8090014
   0.9029992  63.5919978 108.3120014   1.3269603  64.2083674 108.7556720
   2.1739992  66.3329978 110.9540014   2.3879992  65.5629978 111.4810014
   2.9119992  66.4229978 110.3500014   2.3029652  66.2398012 110.9445212
  12.3799992  74.4899978 111.8210014  12.9989992  73.8139978 111.5470014
  12.1709992  74.2719978 112.7290014  12.4366232  74.3677938 111.9062517
   9.9509992  68.8789978 113.7130014  10.2549992  68.1929978 113.1190014
  10.6729992  68.9979978 114.3310014  10.0901152  68.8012189 113.7152123
  18.6139992  60.4809978 114.5740014  18.6639992  61.0909978 115.3100014
  19.0399992  60.9419978 113.8510014  18.6784108  60.6267709 114.5770112
  13.0919992  63.2729978 114.0410014  13.2349992  62.3269978 114.0610014
  12.9859992  63.4799978 113.1120014  13.0972509  63.1714813 113.9182231
   6.2469992  61.3749978 111.3130014   6.2899992  62.2349978 110.8950014
   5.7889992  60.8229978 110.6790014   6.1909815  61.4180621 111.1701197
  13.9689992  61.5059978 109.7140014  14.6159992  61.1769978 110.3390014
  14.4789992  62.0229978 109.0910014  14.1264317  61.5309227 109.7152167
   2.8669992  63.7719978 112.0750014   3.5209992  63.2219978 112.5070014
   2.8909992  63.4979978 111.1580014   2.9597199  63.6597167 112.0101668
   8.0239992  65.3219978 111.2900014   8.6399992  64.7949978 111.8000014
   7.4369992  64.6819978 110.8870014   8.0289239  65.1634117 111.3052952
  19.0059992  61.9589978 116.8100014  18.3169992  62.6169978 116.7140014
  19.0209992  61.7609978 117.7460014  18.9136740  62.0223243 116.9234630
   5.0569992  60.2929978 115.3870014   4.8379992  60.8229978 114.6210014
   4.3889992  60.5189978 116.0340014   4.9367001  60.3961154 115.3696064
  12.4259992  69.7929978 108.9310014  12.1309992  69.4699978 108.0800014
  12.1019992  70.6929978 108.9720014  12.3417983  69.8704026 108.8199771
   7.6259992  67.9679978 115.6750014   6.8859992  68.5669978 115.7780014
   8.3399992  68.5219978 115.3590014   7.6213288  68.1247356 115.6463805
  15.7329992  60.7969978 111.6940014  15.5179992  60.0309978 112.2270014
  16.3889992  61.2689978 112.2070014  15.7922673  60.7560728 111.8361990
   4.6509992  62.1849978 113.3390014   5.2649992  62.8179978 113.7130014
   5.1629992  61.7129978 112.6830014   4.8042277  62.2077352 113.3014279
   6.0339992  69.9329978 116.4620014   6.0279992  70.8119978 116.0840014
   5.1799992  69.8489978 116.8870014   5.9177925  70.0419535 116.4676887
   2.1549992  69.6039978 107.2440014   1.8829992  69.8329978 106.3550014
   2.1999992  70.4409978 107.7040014   2.1238709  69.7486058 107.1846107
  15.7799992  71.2249978 113.9560014  14.8379992  71.2839978 114.1180014
  16.0559992  72.1309978 113.8190014  15.6885865  71.3555288 113.9596192
  16.0799992  59.5119978 115.3740014  15.3439992  60.1219978 115.3360014
  16.7639992  59.9269978 114.8470014  16.0715506  59.6516400 115.2976051
   9.0839992  57.5979978 112.8400014   8.9659992  56.6499978 112.7850014
   8.2289992  57.9309978 113.1130014   8.9522679  57.5131926 112.8693720
  14.0319992  73.0059978 110.5820014  14.4569992  72.2989978 110.0970014
  14.3489992  73.8079978 110.1650014  14.1330266  73.0175190 110.4592479
  15.1919992  70.9069978 109.0900014  14.9339992  70.2169978 108.4790014
  15.2629992  70.4639978 109.9360014  15.1662837  70.7527106 109.1206912
  16.8779992  69.4739978 117.5680014  17.0169992  68.8819978 116.8280014
  17.0449992  70.3469978 117.2110014  16.9195562  69.5109896 117.4186283
  11.3499992  66.4359978 107.3400014  10.6389992  66.9709978 106.9880014
  12.0409992  66.4909978 106.6800014  11.3460751  66.5166777 107.2025858
  18.7189992  65.8139978 115.6340014  18.0669992  66.5079978 115.7230014
  19.1849992  66.0239978 114.8240014  18.6925937  65.9375019 115.5367533
  14.7559992  66.6449978 108.2920014  14.0239992  66.8739978 108.8650014
  15.2029992  65.9319978 108.7470014  14.7162753  66.5798972 108.4319715
  14.6529992  64.8199978 117.3600014  14.7329992  65.5829978 117.9310014
  14.0519992  65.0989978 116.6690014  14.5827245  64.9622630 117.3448424
   6.4009992  67.2759978 110.1740014   6.0709992  66.9049978 109.3560014
   6.9899992  66.6049978 110.5210014   6.4353970  67.1346063 110.1089404
   7.7679992  70.7039978 112.8560014   7.6729992  70.1249978 112.0990014
   8.4969992  70.3329978 113.3520014   7.8536161  70.5745891 112.8195209
   6.7679992  66.0439978 113.8080014   7.3329992  66.1659978 113.0450014
   7.0869992  66.6819978 114.4470014   6.8883977  66.1468851 113.7899424
  13.0769992  71.5479978 114.5420014  12.8369992  72.2099978 115.1900014
  12.8789992  70.7129978 114.9670014  13.0173826  71.5258115 114.6881566
   7.6479992  70.4439978 118.5250014   7.3369992  71.2259978 118.9800014
   6.9979992  70.2909978 117.8390014   7.5175538  70.5304087 118.4945898
  13.6269992  65.8079978 105.9770014  14.2059992  65.9579978 106.7240014
  14.0409992  66.2779978 105.2540014  13.7623122  65.8921277 105.9815042
   4.5679992  66.6419978 117.7540014   4.6379992  67.2929978 118.4520014
   3.6769992  66.7449978 117.4190014   4.4571802  66.7449757 117.8042249
  11.3529992  72.5439978 109.4120014  11.8269992  72.8399978 110.1900014
  10.7899992  73.2829978 109.1790014  11.3417361  72.6842721 109.4868611
   5.8869992  72.5149978 119.2880014   5.8949992  72.3789978 118.3410014
   4.9709992  72.3979978 119.5400014   5.7642528  72.4805463 119.1923243
  17.3259992  57.5579978 105.7900014  16.4259992  57.6969978 106.0850014
  17.5779992  58.3889978 105.3880014  17.2368683  57.6894055 105.7760232
   5.3919992  66.3449978 107.7640014   5.0999992  67.1129978 107.2730014
   4.7169992  65.6859978 107.6010014   5.2608497  66.3609745 107.6748260
   1.4849992  68.7079978 116.5790014   0.9829992  68.6799978 115.7640014
   1.4899992  67.8029978 116.8880014   1.4170416  68.5817368 116.5093766
   1.2349992  71.4889978 113.4630014   2.1809992  71.3439978 113.4440014
   1.1219992  72.2729978 114.0000014   1.3493578  71.5751697 113.5330317
  19.4329992  72.1549978 119.1450014  19.3829992  71.1989978 119.1080014
  18.6059992  72.4219978 119.5460014  19.3143987  72.0605174 119.1941446
  10.4109992  71.7289978 118.0210014  10.4989992  72.5549978 118.4960014
   9.5479992  71.3989978 118.2700014  10.3063357  71.7975468 118.1197653
  10.8259992  75.5009978 107.8270014  10.7499992  75.3799978 106.8810014
  10.8579992  76.4499978 107.9460014  10.8199156  75.6127530 107.7135048
   4.4789992  74.2899978 109.6080014   4.6309992  73.9419978 110.4870014
   3.6279992  73.9329978 109.3530014   4.3847899  74.1941738 109.6937340
  13.5959992  74.5809978 107.5790014  12.6609992  74.6809978 107.7570014
  13.8759992  73.8709978 108.1570014  13.5058173  74.4987239 107.6814998
  16.5849992  63.6479978 119.6250014  16.1769992  64.1279978 118.9050014
  16.6249992  62.7419978 119.3170014  16.5345476  63.5913160 119.4848247
   3.7339992  70.0319978 117.6220014   3.9499992  69.6699978 118.4810014
   2.8779992  69.6569978 117.4120014   3.6479354  69.9317906 117.7112160
   6.3519992  58.5019978 113.6170014   5.4909992  58.4149978 113.2100014
   6.3299992  59.3579978 114.0450014   6.2310411  58.6057884 113.6190857
  11.0149992  58.2239978 116.9920014  11.4349992  57.8089978 117.7450014
  10.0819992  58.0449978 117.1090014  10.9463736  58.1429910 117.1108968
  14.3419992  61.9789978 117.8450014  13.8279992  61.8539978 118.6430014
  14.1859992  62.8919978 117.6010014  14.2506967  62.0852123 117.9210937
  10.6769992  60.7159978 104.2770014  10.4229992  60.7349978 105.2000014
  10.4199992  59.8449978 103.9760014  10.6075133  60.6008110 104.3625082
   6.4429992  63.4669978 114.7120014   5.8019992  63.4269978 115.4210014
   6.4809992  64.3939978 114.4750014   6.3603670  63.5867795 114.7770550
   6.4399992  63.6879978 109.6240014   5.5479992  63.3479978 109.5660014
   6.8909992  63.3109978 108.8690014   6.3786815  63.5903762 109.5139203
  11.9759992  64.1039978 108.4410014  11.5669992  64.9189978 108.1500014
  12.6959992  63.9639978 107.8270014  12.0174013  64.1966571 108.3180875
  11.0779992  64.2799978 119.9290014  10.5149992  63.5749978 120.2500014
  11.9039992  64.1589978 120.3970014  11.1126674  64.1672165 120.0361751
  12.9809992  63.5499978 111.2550014  12.7849992  64.1559978 110.5400014
  13.1619992  62.7169978 110.8210014  12.9786584  63.5202513 111.0984212
   4.1929992  63.7879978 116.5790014   4.1549992  64.1879978 117.4480014
   3.7029992  62.9709978 116.6700014   4.1215621  63.7322510 116.7101377
   7.5589992  61.1619978 103.3780014   7.1279992  60.7169978 104.1080014
   6.8409992  61.5329978 102.8660014   7.4029363  61.1512968 103.4086211
   0.8019992  60.9039978 110.4300014   1.4319992  60.8749978 111.1490014
   1.2509992  60.4789978 109.7000014   0.9490692  60.8425316 110.4297771
   2.0759992  61.6499978 105.8540014   2.5499992  62.2409978 105.2690014
   1.3579992  62.1799978 106.2010014   2.0438640  61.8025511 105.8207969
  12.2449992  65.1879978 115.9270014  12.5679992  64.5569978 115.2840014
  11.8039992  64.6539978 116.5870014  12.2295789  65.0293522 115.9282232
   9.0219992  61.1159978 110.7110014   8.1109992  61.1729978 110.9990014
   9.5269992  61.0559978 111.5210014   8.9655387  61.1156870 110.8600646
   3.8499992  62.7449978 109.5370014   2.9609992  62.8439978 109.1970014
   4.1469992  61.9029978 109.1910014   3.7684177  62.6447687 109.4436940
   7.5029992  62.7449978 107.1940014   8.4349992  62.8739978 107.3720014
   7.2879992  63.4139978 106.5440014   7.6014472  62.8530806 107.1304891
  13.4269992  60.3509978 113.9750014  12.7499992  60.4819978 114.6390014
  12.9419992  60.1959978 113.1650014  13.2687265  60.3479659 113.9563397
   6.1769992  63.9389978 104.7610014   5.6349992  63.5599978 104.0690014
   7.0109992  64.1339978 104.3320014   6.2155159  63.9135076 104.6084419
  16.7149992  76.0219978 120.2520014  16.9139992  76.4459978 119.4170014
  17.3699992  76.3659978 120.8590014  16.8308501  76.1266091 120.2197097
   4.3129992  68.4959978 119.8600014   5.0449992  68.7509978 120.4210014
   3.5319992  68.7009978 120.3750014   4.3077684  68.5586468 120.0064782
  10.3419992  63.9029978 112.5980014  10.9059992  63.3569978 112.0510014
  10.1939992  63.3819978 113.3860014  10.3992575  63.7576552 112.6296987
   5.3439992  60.0399978 109.0160014   5.0269992  59.1369978 108.9810014
   6.1249992  60.0419978 108.4630014   5.4062307  59.9166951 108.9364314
   8.9679992  62.2919978 115.0120014   8.1329992  62.7459978 115.1220014
   9.4919992  62.5679978 115.7640014   8.9245070  62.3914666 115.1287152
   9.5129992  68.5049978 106.6960014   8.7679992  67.9969978 106.3740014
   9.3779992  68.5539978 107.6430014   9.3929047  68.4421596 106.7798845
  16.6629992  67.6379978 115.4830014  17.3039992  68.0939978 114.9390014
  15.8319992  67.7509978 115.0210014  16.6385171  67.7157502 115.3460237
  13.4099992  61.3189978 104.8960014  12.4719992  61.4299978 104.7440014
  13.7079992  62.1749978 105.2020014  13.3216402  61.4500621 104.9165571
  11.0319992  68.6889978 117.9330014  10.6859992  68.3069978 118.7400014
  10.8319992  69.6219978 118.0050014  10.9576523  68.7629095 118.0530735
  14.1289992  63.1859978 106.5560014  15.0209992  63.0479978 106.8750014
  14.1849992  63.9769978 106.0200014  14.2587107  63.2740526 106.5272091
   4.6369992  67.7999978 112.4660014   5.3819992  67.7969978 111.8650014
   4.7149992  66.9759978 112.9480014   4.7494158  67.6882916 112.4489153
  11.6379992  69.9629978 105.7220014  11.3429992  70.7899978 106.1030014
  10.9349992  69.3439978 105.9180014  11.5025471  69.9925227 105.8006698
   1.6449992  66.2599978 117.7810014   1.8679992  65.8419978 118.6130014
   1.0429992  65.6479978 117.3580014   1.5941260  66.1199933 117.8377320
   8.6619992  65.7769978 119.9940014   8.3659992  65.6119978 119.0990014
   9.5929992  65.5569978 119.9830014   8.7473982  65.7246578 119.8700045
  13.2819992  71.1509978 117.8840014  12.3819992  71.3339978 117.6160014
  13.3159992  71.4099978 118.8050014  13.1632909  71.2110815 117.9717852
  19.0139992  63.3949978 106.2510014  18.4589992  62.9989978 105.5790014
  19.1139992  64.3059978 105.9730014  18.9515888  63.4638990 106.1215206
  18.9769992  69.1959978 119.0880014  18.1259992  69.4339978 118.7210014
  19.5669992  69.1789978 118.3350014  18.9402408  69.2262966 118.9358879
  17.3089992  72.1809978 106.7160014  16.9359992  71.3559978 107.0250014
  17.5859992  71.9979978 105.8190014  17.2953871  72.0432441 106.6369677
  14.4689992  66.9889978 113.7370014  13.5409992  66.7579978 113.7100014
  14.9199992  66.2119978 113.4070014  14.4028165  66.8522774 113.6886790
   7.0119992  71.3179978 109.8700014   7.5399992  72.0909978 109.6700014
   6.1319992  71.5419978 109.5690014   6.9653176  71.4543161 109.8018409
   2.7669992  66.1799978 104.4580014   3.3829992  66.8069978 104.8370014
   1.9049992  66.4959978 104.7290014   2.7348195  66.3085798 104.5465386
   8.4399992  68.9809978 109.4470014   8.1989992  69.9059978 109.4880014
   7.6989992  68.5219978 109.8430014   8.3068390  69.0456403 109.5061404
   8.9539992  73.1299978 115.7620014   9.3169992  73.9839978 115.5280014
   9.4859992  72.8379978 116.5020014   9.0756090  73.2074058 115.8300219
   7.1229992  74.0019978 108.9920014   6.1729992  74.1079978 109.0430014
   7.4749992  74.8229978 109.3370014   7.0405480  74.1274438 109.0455999
  12.4979992  69.2289978 115.4620014  12.0729992  69.0009978 116.2890014
  13.0789992  68.4899978 115.2800014  12.5183930  69.0979843 115.5504731
  15.1569992  73.7809978 117.9320014  14.5549992  73.2249978 117.4360014
  15.4379992  74.4479978 117.3060014  15.1126829  73.7951613 117.7795443
  19.2049992  74.6369978 104.7370014  19.9489992  75.2229978 104.5970014
  18.5109992  75.2059978 105.0710014  19.2130201  74.7940603 104.7629772
   3.2789992  61.0139978 117.3390014   2.3869992  61.3519978 117.2720014
   3.1809992  60.1579978 117.7570014   3.1434965  60.9446499 117.3863044
  15.5669992  68.8299978 106.7630014  15.2899992  68.1019978 107.3190014
  16.4949992  68.9489978 106.9680014  15.6544499  68.7464213 106.8668044
   2.9309992  72.8179978 115.7740014   3.1479992  71.8859978 115.7430014
   3.1769992  73.0929978 116.6570014   2.9939809  72.7275686 115.8891691
   7.7289992  70.8399978 105.4400014   7.8759992  70.3199978 106.2300014
   7.7259992  71.7469978 105.7460014   7.7487300  70.8913964 105.5895895
   4.1819992  68.0919978 105.9500014   3.4959992  68.4449978 106.5170014
   4.7049992  68.8549978 105.7040014   4.1589033  68.2433746 105.9942661
  12.0139992  60.7549978 116.2290014  12.7129992  60.8289978 116.8790014
  11.6329992  59.8899978 116.3830014  12.0582097  60.6482389 116.3387997
  12.7979992  60.4069978 107.3260014  13.0179992  60.8779978 106.5230014
  13.3569992  60.8009978 107.9960014  12.9036730  60.5247432 107.3065906
  10.4669992  72.5369978 106.1890014   9.6499992  73.0339978 106.2410014
  10.9959992  73.0129978 105.5490014  10.4268508  72.6692543 106.1096035
   9.9979992  62.1349978 108.1610014  10.8099992  62.6389978 108.2070014
   9.7539992  61.9899978 109.0750014  10.0761467  62.1843749 108.2908575
  10.5339992  63.1209978 117.3460014  10.6529992  63.6949978 118.1030014
  11.1889992  62.4329978 117.4600014  10.6389146  63.1065574 117.4651313
  10.8819992  59.2159978 109.0990014  10.5349992  59.8329978 109.7440014
  11.5409992  59.7169978 108.6180014  10.9235949  59.3681099 109.1222271
   7.8049992  73.5809978 106.1710014   7.9659992  74.3809978 105.6700014
   7.6079992  73.8879978 107.0560014   7.8003919  73.7319129 106.2221006
   6.5399992  60.2789978 105.7860014   6.4559992  61.1669978 106.1330014
   7.4299992  60.0139978 106.0180014   6.6488163  60.3647179 105.8648596
  16.7379992  61.0279978 118.1810014  15.8219992  61.2899978 118.0930014
  17.0739992  61.0249978 117.2840014  16.6579789  61.0634626 118.0477847
  15.3409992  64.7779978 112.2760014  14.5429992  64.3629978 111.9480014
  15.7859992  64.0879978 112.7670014  15.2919684  64.6278628 112.2975227
  16.4269992  74.0339978 113.8990014  16.2709992  74.7129978 113.2420014
  17.3599992  74.1059978 114.1020014  16.5317387  74.1366390 113.8365342
   3.9219992  58.1519978 112.6360014   3.6929992  58.2109978 111.7080014
   3.4799992  57.3609978 112.9420014   3.8308801  58.0530540 112.5504729
   2.8529992  72.0929978 108.7960014   2.0199992  72.5649978 108.8240014
   3.3979992  72.6029978 108.1980014   2.8127590  72.2265897 108.7189194
   2.1409992  74.7049978 120.1260014   2.6809992  74.4889978 120.8860014
   1.6599992  73.8999978 119.9370014   2.1498613  74.5665400 120.2044781
   6.7379992  73.6249978 121.7470014   7.5059992  73.1659978 122.0880014
   6.7169992  73.3989978 120.8170014   6.8402135  73.5316668 121.6679491
  13.3149992  72.0049978 120.4760014  12.9639992  71.1479978 120.7190014
  14.0409992  72.1469978 121.0830014  13.3651590  71.9070178 120.5912907
   2.0479992  68.5159978 121.0810014   2.1919992  67.6139978 120.7940014
   1.2759992  68.8019978 120.5930014   1.9633303  68.4313243 120.9757908
   8.7029992  68.4849978 120.5130014   8.3749992  68.7559978 119.6560014
   8.8549992  67.5439978 120.4260014   8.6786030  68.3948973 120.3837945
  14.4379992  68.4009978 117.8970014  15.1829992  68.9899978 117.7770014
  13.6809992  68.9829978 117.9600014  14.4375205  68.5601997 117.8891119
   2.8809992  65.7159978 120.5010014   3.2889992  64.8589978 120.3800014
   2.6199992  65.7299978 121.4220014   2.9016016  65.6005119 120.6089192
   6.8279992  64.7249978 117.8750014   6.2089992  65.3989978 118.1550014
   7.1719992  65.0459978 117.0420014   6.7897605  64.8607198 117.8006707
  11.8469992  67.1959978 121.1520014  12.8009992  67.2799978 121.1250014
  11.6869992  66.4839978 121.7720014  11.9557182  67.1112842 121.2320733
   7.1669992  62.0799978 118.9570014   7.3169992  61.3509978 118.3550014
   7.1689992  62.8569978 118.3980014   7.1877967  62.0852708 118.7990541
   7.5799992  60.4489978 116.4500014   8.1149992  60.9009978 115.7980014
   6.7269992  60.3409978 116.0270014   7.5380374  60.4962665 116.3036710
   9.1609992  65.8889978 116.6890014   9.9119992  65.7329978 116.1160014
   8.8219992  66.7409978 116.4140014   9.2179587  65.9828138 116.5734078
  13.5769992  63.7039978 121.7180014  13.7689992  62.7729978 121.6060014
  14.4349992  64.1289978 121.7080014  13.7192269  63.6339928 121.7013192
  14.8939992  66.4929978 119.7950014  14.6119992  67.2019978 119.2180014
  15.8359992  66.4199978 119.6440014  14.9827656  66.5803128 119.6954809
   5.6459992  63.2779978 120.8690014   4.8779992  62.7449978 120.6590014
   6.3239992  62.9679978 120.2690014   5.6326973  63.1632375 120.7591796
   8.3849992  57.9059978 116.8810014   8.2869992  58.8519978 116.7760014
   7.6429992  57.5329978 116.4060014   8.2711913  57.9851813 116.8023539
   9.6489992  62.2269978 120.4450014   9.4139992  62.0079978 121.3470014
   8.8659992  62.0199978 119.9350014   9.5109219  62.1690066 120.4995852
  12.3649992  61.3549978 119.5210014  11.4169992  61.3869978 119.6530014
  12.6769992  60.7289978 120.1740014  12.2775190  61.2747262 119.6273564
  13.9989992  59.9889978 121.5260014  13.9019992  59.0369978 121.5200014
  13.6769992  60.2569978 122.3860014  13.9421761  59.8949744 121.6414936
   3.8259992  61.1979978 120.5730014   4.0379992  60.4919978 119.9630014
   3.7149992  60.7609978 121.4170014   3.8400269  61.0421921 120.6035873
   8.6069992  57.1999978 119.5530014   9.3189992  56.5599978 119.5390014
   8.5059992  57.4659978 118.6390014   8.6907261  57.1484190 119.4275537
   8.9609992  58.8819978 121.6060014   8.8289992  58.4069978 120.7860014
   8.3609992  59.6269978 121.5510014   8.8619070  58.9175789 121.4863251
   2.0749992  70.4019978 104.2650014   2.9889992  70.4809978 104.5390014
   2.0829992  69.7149978 103.5990014   2.2011143  70.3199085 104.2124274
   0.7239992  75.7949978 109.3430014   0.0769992  75.3329978 108.8100014
   1.0789992  75.1229978 109.9250014   0.6834506  75.6409503 109.3487341
   1.5939992  73.8749978 111.1470014   1.2599992  72.9949978 111.3190014
   1.8169992  74.2209978 112.0120014   1.5783721  73.8011938 111.2874168
  19.1429992  74.6849978 114.1280014  19.1209992  74.8699978 115.0670014
  19.8329992  75.2529978 113.7870014  19.2333439  74.7871887 114.2104791
  18.7059992  74.2519978 117.0500014  18.2189992  73.5169978 116.6790014
  19.2549992  73.8579978 117.7280014  18.7135247  74.0981057 117.0908461
  17.1569992  70.0419978 121.6880014  16.2909992  69.9369978 122.0820014
  17.5329992  70.7999978 122.1340014  17.0893401  70.1301708 121.8022620
  18.4579992  68.2979978 107.2020014  19.3079992  68.7189978 107.3290014
  18.4629992  67.5579978 107.8090014  18.5751143  68.2556094 107.3014750
  18.8519992  66.3519978 109.0260014  18.1259992  65.8719978 109.4230014
  19.4339992  66.5569978 109.7580014  18.8311635  66.3139166 109.1793748
  18.6109992  69.1369978 113.9730014  19.4449992  68.7589978 113.6930014
  18.7229992  70.0799978 113.8540014  18.7402522  69.2127742 113.9186020
  17.0979992  72.0149978 116.2800014  16.4499992  72.3399978 116.9060014
  16.5799992  71.5739978 115.6060014  16.9394168  71.9998523 116.2745307
  16.6389992  64.8729978 109.5890014  16.4889992  63.9279978 109.5680014
  16.2849992  65.1539978 110.4320014  16.5705527  64.7815605 109.7001859
   1.6739992  66.9509978 113.5990014   1.8589992  66.8689978 112.6630014
   2.5239992  66.8269978 114.0230014   1.8140916  66.9230393 113.5282896
  17.4949992  66.8429978 119.2270014  18.0779992  66.1079978 119.4190014
  18.0589992  67.6149978 119.2740014  17.6509781  66.8468145 119.2596164
  18.9919992  64.7459978 119.9120014  18.1289992  64.3669978 119.7460014
  19.5959992  64.0069978 119.8380014  18.9555944  64.5942978 119.8792984
  16.3499992  62.4549978 108.0510014  16.6289992  61.5479978 108.1750014
  17.1089992  62.8889978 107.6620014  16.4908619  62.3894502 108.0153795
  16.9609992  63.0369978 113.4870014  17.8939992  63.2489978 113.4530014
  16.7259992  63.1379978 114.4090014  17.0568308  63.0796503 113.6070214
  16.9909992  63.7739978 116.2630014  16.1479992  64.0419978 116.6290014
  17.4329992  64.5959978 116.0520014  16.9354138  63.9218273 116.2845518
   1.2719992  62.2209978 119.7400014   2.1909992  62.0989978 119.9760014
   0.8219992  61.4709978 120.1290014   1.3371148  62.1028751 119.8249408
  19.2739992  57.7539978 121.6160014  19.6229992  57.0999978 121.0110014
  19.4209992  58.5909978 121.1770014  19.3417355  57.7776067 121.4736564
  16.9629992  59.7179978 108.0990014  17.1449992  59.2689978 108.9250014
  16.3629992  59.1339978 107.6360014  16.9067529  59.5776131 108.1493619
   2.4929992  60.5339978 112.6310014   2.9379992  59.7419978 112.9330014
   2.9589992  61.2499978 113.0620014   2.6169059  60.5224474 112.7306079
   0.7969992  63.5329978 113.7000014   1.2889992  63.3119978 112.9090014
   1.1589992  64.3729978 113.9810014   0.9132923  63.6163468 113.6297407
  18.7929992  59.8629978 119.9660014  17.8759992  60.1339978 119.9300014
  18.9159992  59.3279978 119.1820014  18.6840828  59.8277700 119.8550785
  18.8299992  59.7859978 104.6270014  19.2419992  59.0649978 104.1520014
  19.5109992  60.4549978 104.6860014  18.9785900  59.7777306 104.5699038
   1.1109992  59.7909978 107.7540014   0.1859992  59.9989978 107.6250014
   1.5649992  60.2749978 107.0650014   1.0456374  59.8849949 107.6430957
  15.8809992  74.7749978 109.7000014  16.5339992  74.4269978 109.0920014
  16.3919992  75.2629978 110.3460014  16.0392777  74.7933815 109.7042047
   1.0739992  58.5289978 116.0990014   0.4089992  58.2829978 116.7420014
   0.6309992  59.1509978 115.5210014   0.9230937  58.5793614 116.1089379
   3.2659992  71.7039978 120.2430014   2.4449992  71.8789978 119.7830014
   3.0139992  71.6309978 121.1640014   3.1196173  71.7180794 120.3044972
   6.2199992  72.6779978 116.5020014   5.7959992  73.4879978 116.2190014
   7.1249992  72.7639978 116.2000014   6.2842433  72.8003331 116.4225377
  10.5319992  74.0769978 119.4610014  10.7159992  73.7439978 120.3390014
  11.3779992  74.3869978 119.1390014  10.6716484  74.0732979 119.5377617
  12.8769992  75.3629978 118.7050014  13.5539992  74.7299978 118.4650014
  13.1979992  75.7639978 119.5120014  13.0131323  75.3305691 118.7813158
  17.7939992  57.9529978 117.7850014  16.9809992  58.2779978 117.3970014
  18.0269992  57.1919978 117.2520014  17.7142566  57.8946559 117.6599213
   3.6219992  75.9349978 116.5490014   2.9019992  76.3749978 116.0980014
   3.2569992  75.6839978 117.3980014   3.4739796  75.9613824 116.6019329
   6.0889992  75.5349978 115.5790014   5.2249992  75.6069978 115.9830014
   6.0339992  76.0819978 114.7950014   5.9631942  75.6187849 115.5284000
  10.7999992  75.4229978 114.7540014  10.3429992  75.9519978 114.1000014
  10.9629992  76.0259978 115.4800014  10.7594476  75.5769140 114.7625499
  13.1279992  74.3009978 115.6990014  12.2229992  74.4659978 115.4340014
  13.5559992  75.1539978 115.6340014  13.0620700  74.4389529 115.6539520
  15.7319992  75.8709978 115.9940014  15.5499992  76.7869978 115.7840014
  15.9089992  75.4599978 115.1480014  15.7309907  75.9409741 115.8507883
   3.0369992  74.5579978 113.4590014   3.0189992  74.1319978 114.3170014
   3.8419992  74.2389978 113.0510014   3.1433221  74.4567233 113.5210225
   5.1779992  73.2679978 112.1140014   4.9589992  72.3509978 112.2840014
   6.0019992  73.4079978 112.5800014   5.2594702  73.1615511 112.2002527
   7.7149992  73.7379978 112.9630014   7.9279992  72.8499978 112.6760014
   7.7799992  73.7029978 113.9180014   7.7529075  73.6118307 113.0527373
  11.2239992  59.4019978 112.1070014  10.5499992  58.7719978 112.3630014
  11.7879992  58.9179978 111.5040014  11.2080384  59.2503708 112.0605020
  16.3669992  57.5089978 112.2200014  16.9699992  58.0569978 111.7180014
  15.4969992  57.8279978 111.9800014  16.3319190  57.6271041 112.1188679
  18.0939992  58.6479978 110.5530014  18.7049992  58.1339978 110.0270014
  18.4759992  59.5249978 110.5770014  18.2294475  58.6961323 110.4841208
   3.5509992  58.0359978 109.9290014   2.7739992  57.8009978 109.4220014
   4.0809992  57.2389978 109.9380014   3.5163451  57.8961268 109.8608627
   2.3869992  57.8339978 105.7330014   2.8259992  58.4449978 105.1410014
   1.7529992  58.3719978 106.2070014   2.3613859  57.9904064 105.7160305
   8.1299992  57.9619978 109.7430014   9.0039992  58.3509978 109.7130014
   7.9939992  57.7469978 110.6650014   8.2313207  57.9861923 109.8636509
  13.6869992  57.9919978 111.3920014  13.7629992  58.0879978 110.4430014
  13.4119992  57.0849978 111.5210014  13.6602042  57.8824241 111.2793811
  15.0399992  58.0179978 107.0840014  14.3369992  58.6329978 106.8750014
  14.5949992  57.1809978 107.2160014  14.8836292  57.9890085 107.0732439
   2.2879992  73.7819978 106.6310014   1.6029992  73.7439978 105.9630014
   2.2919992  74.6949978 106.9190014   2.1948174  73.9001998 106.5785310
   9.2739992  60.0429978 106.6330014   9.4519992  59.3959978 107.3150014
   9.2199992  60.8769978 107.1000014   9.2911025  60.0670504 106.7896433
  17.8609992  74.5539978 107.7070014  17.6669992  73.8059978 107.1420014
  17.8219992  75.3119978 107.1240014  17.8291645  74.5540786 107.5508148
   3.5079992  58.5499978 119.4470014   3.1419992  57.7839978 119.8900014
   4.4209992  58.5789978 119.7340014   3.5813225  58.4491906 119.5463459
   5.4809992  57.8999978 120.9830014   6.3799992  57.6259978 120.7980014
   5.0949992  57.1579978 121.4470014   5.5517237  57.7621508 121.0204710
  13.9029992  57.2329978 121.1650014  13.9789992  56.8069978 122.0190014
  14.7959992  57.2459978 120.8220014  14.0342267  57.1763952 121.2355932
  17.0789992  73.3059978 119.8570014  16.2969992  73.1189978 119.3380014
  17.0069992  74.2349978 120.0750014  16.9620863  73.4060221 119.8153574
  31.4849992  67.1919978 109.8880014  31.5739992  68.1359978 109.7560014
  30.8469992  66.9169978 109.2300014  31.4109062  67.2839812 109.7809641
  30.4179992  66.4469978 113.3070014  30.3799992  65.8009978 114.0120014
  30.0959992  65.9799978 112.5360014  30.3692679  66.2954276 113.2992921
  22.7859992  66.0609978 114.9000014  22.8279992  65.4359978 115.6230014
  23.4889992  66.6849978 115.0820014  22.8867345  66.0597873 115.0235274
  34.1239992  69.3859978 111.6090014  33.6829992  68.6659978 112.0590014
  34.1109992  70.1069978 112.2380014  34.0617960  69.3848329 111.7557567
  23.7099992  70.5109978 113.4350014  23.3399992  69.7089978 113.0650014
  24.6509992  70.3429978 113.4810014  23.7865984  70.3784638 113.3905603
  20.3199992  64.1709978 108.8280014  19.8719992  65.0169978 108.8090014
  19.7589992  63.5919978 108.3120014  20.1829603  64.2083674 108.7556720
  21.0299992  66.3329978 110.9540014  21.2439992  65.5629978 111.4810014
  21.7679992  66.4229978 110.3500014  21.1589652  66.2398012 110.9445212
  31.2359992  74.4899978 111.8210014  31.8549992  73.8139978 111.5470014
  31.0269992  74.2719978 112.7290014  31.2926232  74.3677938 111.9062517
  28.8069992  68.8789978 113.7130014  29.1109992  68.1929978 113.1190014
  29.5289992  68.9979978 114.3310014  28.9461152  68.8012189 113.7152123
  37.4699992  60.4809978 114.5740014  37.5199992  61.0909978 115.3100014
  37.8959992  60.9419978 113.8510014  37.5344108  60.6267709 114.5770112
  31.9479992  63.2729978 114.0410014  32.0909992  62.3269978 114.0610014
  31.8419992  63.4799978 113.1120014  31.9532509  63.1714813 113.9182231
  25.1029992  61.3749978 111.3130014  25.1459992  62.2349978 110.8950014
  24.6449992  60.8229978 110.6790014  25.0469815  61.4180621 111.1701197
  32.8249992  61.5059978 109.7140014  33.4719992  61.1769978 110.3390014
  33.3349992  62.0229978 109.0910014  32.9824317  61.5309227 109.7152167
  21.7229992  63.7719978 112.0750014  22.3769992  63.2219978 112.5070014
  21.7469992  63.4979978 111.1580014  21.8157199  63.6597167 112.0101668
  26.8799992  65.3219978 111.2900014  27.4959992  64.7949978 111.8000014
  26.2929992  64.6819978 110.8870014  26.8849239  65.1634117 111.3052952
  37.8619992  61.9589978 116.8100014  37.1729992  62.6169978 116.7140014
  37.8769992  61.7609978 117.7460014  37.7696741  62.0223243 116.9234630
  23.9129992  60.2929978 115.3870014  23.6939992  60.8229978 114.6210014
  23.2449992  60.5189978 116.0340014  23.7927001  60.3961154 115.3696064
  31.2819992  69.7929978 108.9310014  30.9869992  69.4699978 108.0800014
  30.9579992  70.6929978 108.9720014  31.1977983  69.8704026 108.8199771
  26.4819992  67.9679978 115.6750014  25.7419992  68.5669978 115.7780014
  27.1959992  68.5219978 115.3590014  26.4773288  68.1247356 115.6463805
  34.5889992  60.7969978 111.6940014  34.3739992  60.0309978 112.2270014
  35.2449992  61.2689978 112.2070014  34.6482673  60.7560728 111.8361990
  23.5069992  62.1849978 113.3390014  24.1209992  62.8179978 113.7130014
  24.0189992  61.7129978 112.6830014  23.6602277  62.2077352 113.3014279
  24.8899992  69.9329978 116.4620014  24.8839992  70.8119978 116.0840014
  24.0359992  69.8489978 116.8870014  24.7737925  70.0419535 116.4676887
  21.0109992  69.6039978 107.2440014  20.7389992  69.8329978 106.3550014
  21.0559992  70.4409978 107.7040014  20.9798709  69.7486058 107.1846107
  34.6359992  71.2249978 113.9560014  33.6939992  71.2839978 114.1180014
  34.9119992  72.1309978 113.8190014  34.5445865  71.3555288 113.9596192
  34.9359992  59.5119978 115.3740014  34.1999992  60.1219978 115.3360014
  35.6199992  59.9269978 114.8470014  34.9275506  59.6516400 115.2976051
  27.9399992  57.5979978 112.8400014  27.8219992  56.6499978 112.7850014
  27.0849992  57.9309978 113.1130014  27.8082679  57.5131926 112.8693720
  32.8879992  73.0059978 110.5820014  33.3129992  72.2989978 110.0970014
  33.2049992  73.8079978 110.1650014  32.9890266  73.0175190 110.4592479
  34.0479992  70.9069978 109.0900014  33.7899992  70.2169978 108.4790014
  34.1189992  70.4639978 109.9360014  34.0222837  70.7527106 109.1206912
  35.7339992  69.4739978 117.5680014  35.8729992  68.8819978 116.8280014
  35.9009992  70.3469978 117.2110014  35.7755562  69.5109896 117.4186283
  30.2059992  66.4359978 107.3400014  29.4949992  66.9709978 106.9880014
  30.8969992  66.4909978 106.6800014  30.2020751  66.5166777 107.2025858
  30.2599992  64.8929978 104.3790014  30.9609992  64.9159978 105.0300014
  30.5619992  64.2649978 103.7230014  30.3968282  64.8112339 104.3794496
  37.5749992  65.8139978 115.6340014  36.9229992  66.5079978 115.7230014
  38.0409992  66.0239978 114.8240014  37.5485937  65.9375019 115.5367533
  33.6119992  66.6449978 108.2920014  32.8799992  66.8739978 108.8650014
  34.0589992  65.9319978 108.7470014  33.5722753  66.5798972 108.4319715
  33.5089992  64.8199978 117.3600014  33.5889992  65.5829978 117.9310014
  32.9079992  65.0989978 116.6690014  33.4387245  64.9622630 117.3448424
  25.2569992  67.2759978 110.1740014  24.9269992  66.9049978 109.3560014
  25.8459992  66.6049978 110.5210014  25.2913970  67.1346063 110.1089404
  26.6239992  70.7039978 112.8560014  26.5289992  70.1249978 112.0990014
  27.3529992  70.3329978 113.3520014  26.7096161  70.5745891 112.8195209
  25.6239992  66.0439978 113.8080014  26.1889992  66.1659978 113.0450014
  25.9429992  66.6819978 114.4470014  25.7443977  66.1468851 113.7899424
  31.9329992  71.5479978 114.5420014  31.6929992  72.2099978 115.1900014
  31.7349992  70.7129978 114.9670014  31.8733826  71.5258115 114.6881566
  26.5039992  70.4439978 118.5250014  26.1929992  71.2259978 118.9800014
  25.8539992  70.2909978 117.8390014  26.3735538  70.5304087 118.4945898
  32.4829992  65.8079978 105.9770014  33.0619992  65.9579978 106.7240014
  32.8969992  66.2779978 105.2540014  32.6183122  65.8921277 105.9815042
  23.4239992  66.6419978 117.7540014  23.4939992  67.2929978 118.4520014
  22.5329992  66.7449978 117.4190014  23.3131802  66.7449757 117.8042249
  30.2089992  72.5439978 109.4120014  30.6829992  72.8399978 110.1900014
  29.6459992  73.2829978 109.1790014  30.1977361  72.6842721 109.4868611
  24.7429992  72.5149978 119.2880014  24.7509992  72.3789978 118.3410014
  23.8269992  72.3979978 119.5400014  24.6202528  72.4805463 119.1923243
  36.1819992  57.5579978 105.7900014  35.2819992  57.6969978 106.0850014
  36.4339992  58.3889978 105.3880014  36.0928683  57.6894055 105.7760232
  24.2479992  66.3449978 107.7640014  23.9559992  67.1129978 107.2730014
  23.5729992  65.6859978 107.6010014  24.1168497  66.3609745 107.6748260
  20.3409992  68.7079978 116.5790014  19.8389992  68.6799978 115.7640014
  20.3459992  67.8029978 116.8880014  20.2730416  68.5817368 116.5093766
  20.0909992  71.4889978 113.4630014  21.0369992  71.3439978 113.4440014
  19.9779992  72.2729978 114.0000014  20.2053578  71.5751697 113.5330317
  38.2889992  72.1549978 119.1450014  38.2389992  71.1989978 119.1080014
  37.4619992  72.4219978 119.5460014  38.1703987  72.0605174 119.1941446
  29.2669992  71.7289978 118.0210014  29.3549992  72.5549978 118.4960014
  28.4039992  71.3989978 118.2700014  29.1623357  71.7975468 118.1197653
  29.6819992  75.5009978 107.8270014  29.6059992  75.3799978 106.8810014
  29.7139992  76.4499978 107.9460014  29.6759156  75.6127530 107.7135048
  23.3349992  74.2899978 109.6080014  23.4869992  73.9419978 110.4870014
  22.4839992  73.9329978 109.3530014  23.2407899  74.1941738 109.6937340
  32.7829992  74.6549978 104.8290014  33.1579992  73.9109978 104.3590014
  32.7879992  74.3849978 105.7480014  32.8350024  74.5166950 104.8887987
  32.4519992  74.5809978 107.5790014  31.5169992  74.6809978 107.7570014
  32.7319992  73.8709978 108.1570014  32.3618173  74.4987239 107.6814998
  35.4409992  63.6479978 119.6250014  35.0329992  64.1279978 118.9050014
  35.4809992  62.7419978 119.3170014  35.3905476  63.5913160 119.4848247
  22.5899992  70.0319978 117.6220014  22.8059992  69.6699978 118.4810014
  21.7339992  69.6569978 117.4120014  22.5039354  69.9317906 117.7112160
  25.2079992  58.5019978 113.6170014  24.3469992  58.4149978 113.2100014
  25.1859992  59.3579978 114.0450014  25.0870411  58.6057884 113.6190857
  29.8709992  58.2239978 116.9920014  30.2909992  57.8089978 117.7450014
  28.9379992  58.0449978 117.1090014  29.8023736  58.1429910 117.1108968
  33.1979992  61.9789978 117.8450014  32.6839992  61.8539978 118.6430014
  33.0419992  62.8919978 117.6010014  33.1066967  62.0852123 117.9210937
  25.2989992  63.4669978 114.7120014  24.6579992  63.4269978 115.4210014
  25.3369992  64.3939978 114.4750014  25.2163670  63.5867795 114.7770550
  25.2959992  63.6879978 109.6240014  24.4039992  63.3479978 109.5660014
  25.7469992  63.3109978 108.8690014  25.2346815  63.5903762 109.5139203
  30.8319992  64.1039978 108.4410014  30.4229992  64.9189978 108.1500014
  31.5519992  63.9639978 107.8270014  30.8734013  64.1966571 108.3180875
  29.9339992  64.2799978 119.9290014  29.3709992  63.5749978 120.2500014
  30.7599992  64.1589978 120.3970014  29.9686674  64.1672165 120.0361751
  31.8369992  63.5499978 111.2550014  31.6409992  64.1559978 110.5400014
  32.0179992  62.7169978 110.8210014  31.8346584  63.5202513 111.0984212
  23.0489992  63.7879978 116.5790014  23.0109992  64.1879978 117.4480014
  22.5589992  62.9709978 116.6700014  22.9775621  63.7322510 116.7101377
  19.6579992  60.9039978 110.4300014  20.2879992  60.8749978 111.1490014
  20.1069992  60.4789978 109.7000014  19.8050692  60.8425316 110.4297771
  20.9319992  61.6499978 105.8540014  21.4059992  62.2409978 105.2690014
  20.2139992  62.1799978 106.2010014  20.8998640  61.8025511 105.8207969
  31.1009992  65.1879978 115.9270014  31.4239992  64.5569978 115.2840014
  30.6599992  64.6539978 116.5870014  31.0855789  65.0293522 115.9282232
  27.8779992  61.1159978 110.7110014  26.9669992  61.1729978 110.9990014
  28.3829992  61.0559978 111.5210014  27.8215387  61.1156870 110.8600646
  22.7059992  62.7449978 109.5370014  21.8169992  62.8439978 109.1970014
  23.0029992  61.9029978 109.1910014  22.6244177  62.6447687 109.4436940
  26.3589992  62.7449978 107.1940014  27.2909992  62.8739978 107.3720014
  26.1439992  63.4139978 106.5440014  26.4574472  62.8530806 107.1304891
  32.2829992  60.3509978 113.9750014  31.6059992  60.4819978 114.6390014
  31.7979992  60.1959978 113.1650014  32.1247265  60.3479659 113.9563397
  35.5709992  76.0219978 120.2520014  35.7699992  76.4459978 119.4170014
  36.2259992  76.3659978 120.8590014  35.6868501  76.1266091 120.2197097
  23.1689992  68.4959978 119.8600014  23.9009992  68.7509978 120.4210014
  22.3879992  68.7009978 120.3750014  23.1637684  68.5586468 120.0064782
  29.1979992  63.9029978 112.5980014  29.7619992  63.3569978 112.0510014
  29.0499992  63.3819978 113.3860014  29.2552575  63.7576552 112.6296987
  24.1999992  60.0399978 109.0160014  23.8829992  59.1369978 108.9810014
  24.9809992  60.0419978 108.4630014  24.2622307  59.9166951 108.9364314
  27.8239992  62.2919978 115.0120014  26.9889992  62.7459978 115.1220014
  28.3479992  62.5679978 115.7640014  27.7805070  62.3914666 115.1287152
  28.3689992  68.5049978 106.6960014  27.6239992  67.9969978 106.3740014
  28.2339992  68.5539978 107.6430014  28.2489047  68.4421596 106.7798845
  35.5189992  67.6379978 115.4830014  36.1599992  68.0939978 114.9390014
  34.6879992  67.7509978 115.0210014  35.4945171  67.7157502 115.3460237
  29.8879992  68.6889978 117.9330014  29.5419992  68.3069978 118.7400014
  29.6879992  69.6219978 118.0050014  29.8136523  68.7629095 118.0530735
  32.9849992  63.1859978 106.5560014  33.8769992  63.0479978 106.8750014
  33.0409992  63.9769978 106.0200014  33.1147107  63.2740526 106.5272091
  23.4929992  67.7999978 112.4660014  24.2379992  67.7969978 111.8650014
  23.5709992  66.9759978 112.9480014  23.6054158  67.6882916 112.4489153
  20.5009992  66.2599978 117.7810014  20.7239992  65.8419978 118.6130014
  19.8989992  65.6479978 117.3580014  20.4501260  66.1199933 117.8377320
  27.5179992  65.7769978 119.9940014  27.2219992  65.6119978 119.0990014
  28.4489992  65.5569978 119.9830014  27.6033982  65.7246578 119.8700045
  32.1379992  71.1509978 117.8840014  31.2379992  71.3339978 117.6160014
  32.1719992  71.4099978 118.8050014  32.0192909  71.2110815 117.9717852
  37.8699992  63.3949978 106.2510014  37.3149992  62.9989978 105.5790014
  37.9699992  64.3059978 105.9730014  37.8075888  63.4638990 106.1215206
  37.8329992  69.1959978 119.0880014  36.9819992  69.4339978 118.7210014
  38.4229992  69.1789978 118.3350014  37.7962408  69.2262966 118.9358879
  33.3249992  66.9889978 113.7370014  32.3969992  66.7579978 113.7100014
  33.7759992  66.2119978 113.4070014  33.2588165  66.8522774 113.6886790
  25.8679992  71.3179978 109.8700014  26.3959992  72.0909978 109.6700014
  24.9879992  71.5419978 109.5690014  25.8213176  71.4543161 109.8018409
  21.6229992  66.1799978 104.4580014  22.2389992  66.8069978 104.8370014
  20.7609992  66.4959978 104.7290014  21.5908195  66.3085798 104.5465386
  27.2959992  68.9809978 109.4470014  27.0549992  69.9059978 109.4880014
  26.5549992  68.5219978 109.8430014  27.1628390  69.0456403 109.5061404
  27.8099992  73.1299978 115.7620014  28.1729992  73.9839978 115.5280014
  28.3419992  72.8379978 116.5020014  27.9316090  73.2074058 115.8300219
  25.9789992  74.0019978 108.9920014  25.0289992  74.1079978 109.0430014
  26.3309992  74.8229978 109.3370014  25.8965480  74.1274438 109.0455999
  31.3539992  69.2289978 115.4620014  30.9289992  69.0009978 116.2890014
  31.9349992  68.4899978 115.2800014  31.3743930  69.0979843 115.5504731
  34.0129992  73.7809978 117.9320014  33.4109992  73.2249978 117.4360014
  34.2939992  74.4479978 117.3060014  33.9686829  73.7951613 117.7795443
  22.1349992  61.0139978 117.3390014  21.2429992  61.3519978 117.2720014
  22.0369992  60.1579978 117.7570014  21.9994965  60.9446499 117.3863044
  34.4229992  68.8299978 106.7630014  34.1459992  68.1019978 107.3190014
  35.3509992  68.9489978 106.9680014  34.5104499  68.7464213 106.8668044
  21.7869992  72.8179978 115.7740014  22.0039992  71.8859978 115.7430014
  22.0329992  73.0929978 116.6570014  21.8499809  72.7275686 115.8891691
  27.6479992  71.2699978 102.9830014  27.8869992  70.5209978 102.4360014
  27.3789992  70.8819978 103.8160014  27.6443233  71.1151853 103.0207809
  26.5849992  70.8399978 105.4400014  26.7319992  70.3199978 106.2300014
  26.5819992  71.7469978 105.7460014  26.6047300  70.8913964 105.5895895
  30.8699992  60.7549978 116.2290014  31.5689992  60.8289978 116.8790014
  30.4889992  59.8899978 116.3830014  30.9142097  60.6482389 116.3387997
  31.6539992  60.4069978 107.3260014  31.8739992  60.8779978 106.5230014
  32.2129992  60.8009978 107.9960014  31.7596730  60.5247432 107.3065906
  28.8539992  62.1349978 108.1610014  29.6659992  62.6389978 108.2070014
  28.6099992  61.9899978 109.0750014  28.9321467  62.1843749 108.2908575
  29.3899992  63.1209978 117.3460014  29.5089992  63.6949978 118.1030014
  30.0449992  62.4329978 117.4600014  29.4949146  63.1065574 117.4651314
  29.7379992  59.2159978 109.0990014  29.3909992  59.8329978 109.7440014
  30.3969992  59.7169978 108.6180014  29.7795949  59.3681099 109.1222271
  26.6609992  73.5809978 106.1710014  26.8219992  74.3809978 105.6700014
  26.4639992  73.8879978 107.0560014  26.6563919  73.7319129 106.2221006
  25.3959992  60.2789978 105.7860014  25.3119992  61.1669978 106.1330014
  26.2859992  60.0139978 106.0180014  25.5048163  60.3647179 105.8648596
  35.5939992  61.0279978 118.1810014  34.6779992  61.2899978 118.0930014
  35.9299992  61.0249978 117.2840014  35.5139789  61.0634626 118.0477847
  34.1969992  64.7779978 112.2760014  33.3989992  64.3629978 111.9480014
  34.6419992  64.0879978 112.7670014  34.1479684  64.6278628 112.2975227
  35.2829992  74.0339978 113.8990014  35.1269992  74.7129978 113.2420014
  36.2159992  74.1059978 114.1020014  35.3877387  74.1366390 113.8365342
  22.7779992  58.1519978 112.6360014  22.5489992  58.2109978 111.7080014
  22.3359992  57.3609978 112.9420014  22.6868801  58.0530540 112.5504729
  21.7089992  72.0929978 108.7960014  20.8759992  72.5649978 108.8240014
  22.2539992  72.6029978 108.1980014  21.6687590  72.2265897 108.7189194
  20.9969992  74.7049978 120.1260014  21.5369992  74.4889978 120.8860014
  20.5159992  73.8999978 119.9370014  21.0058613  74.5665400 120.2044782
  25.5939992  73.6249978 121.7470014  26.3619992  73.1659978 122.0880014
  25.5729992  73.3989978 120.8170014  25.6962135  73.5316668 121.6679491
  32.1709992  72.0049978 120.4760014  31.8199992  71.1479978 120.7190014
  32.8969992  72.1469978 121.0830014  32.2211590  71.9070178 120.5912907
  20.9039992  68.5159978 121.0810014  21.0479992  67.6139978 120.7940014
  20.1319992  68.8019978 120.5930014  20.8193303  68.4313243 120.9757908
  25.2449992  68.8589978 103.2130014  25.3099992  68.0649978 103.7440014
  25.8979992  68.7409978 102.5230014  25.3421754  68.7343337 103.1924259
  27.5589992  68.4849978 120.5130014  27.2309992  68.7559978 119.6560014
  27.7109992  67.5439978 120.4260014  27.5346030  68.3948973 120.3837945
  33.2939992  68.4009978 117.8970014  34.0389992  68.9899978 117.7770014
  32.5369992  68.9829978 117.9600014  33.2935205  68.5601997 117.8891119
  21.7369992  65.7159978 120.5010014  22.1449992  64.8589978 120.3800014
  21.4759992  65.7299978 121.4220014  21.7576016  65.6005119 120.6089192
  26.3949992  66.8319978 105.5190014  25.9349992  66.3479978 106.2050014
  26.6499992  66.1629978 104.8830014  26.3665038  66.6753689 105.5269447
  25.6839992  64.7249978 117.8750014  25.0649992  65.3989978 118.1550014
  26.0279992  65.0459978 117.0420014  25.6457605  64.8607198 117.8006707
  27.4659992  65.0749978 103.7810014  27.2849992  64.9199978 102.8540014
  28.4159992  65.1829978 103.8260014  27.5696566  65.0683669 103.6600929
  30.7029992  67.1959978 121.1520014  31.6569992  67.2799978 121.1250014
  30.5429992  66.4839978 121.7720014  30.8117182  67.1112842 121.2320733
  26.0229992  62.0799978 118.9570014  26.1729992  61.3509978 118.3550014
  26.0249992  62.8569978 118.3980014  26.0437967  62.0852708 118.7990541
  26.4359992  60.4489978 116.4500014  26.9709992  60.9009978 115.7980014
  25.5829992  60.3409978 116.0270014  26.3940374  60.4962665 116.3036710
  28.0169992  65.8889978 116.6890014  28.7679992  65.7329978 116.1160014
  27.6779992  66.7409978 116.4140014  28.0739587  65.9828138 116.5734078
  32.4329992  63.7039978 121.7180014  32.6249992  62.7729978 121.6060014
  33.2909992  64.1289978 121.7080014  32.5752269  63.6339928 121.7013192
  33.7499992  66.4929978 119.7950014  33.4679992  67.2019978 119.2180014
  34.6919992  66.4199978 119.6440014  33.8387656  66.5803128 119.6954809
  24.5019992  63.2779978 120.8690014  23.7339992  62.7449978 120.6590014
  25.1799992  62.9679978 120.2690014  24.4886973  63.1632375 120.7591796
  27.2409992  57.9059978 116.8810014  27.1429992  58.8519978 116.7760014
  26.4989992  57.5329978 116.4060014  27.1271913  57.9851813 116.8023539
  28.5049992  62.2269978 120.4450014  28.2699992  62.0079978 121.3470014
  27.7219992  62.0199978 119.9350014  28.3669219  62.1690066 120.4995852
  31.2209992  61.3549978 119.5210014  30.2729992  61.3869978 119.6530014
  31.5329992  60.7289978 120.1740014  31.1335190  61.2747262 119.6273564
  32.8549992  59.9889978 121.5260014  32.7579992  59.0369978 121.5200014
  32.5329992  60.2569978 122.3860014  32.7981761  59.8949744 121.6414936
  22.6819992  61.1979978 120.5730014  22.8939992  60.4919978 119.9630014
  22.5709992  60.7609978 121.4170014  22.6960269  61.0421921 120.6035873
  27.4629992  57.1999978 119.5530014  28.1749992  56.5599978 119.5390014
  27.3619992  57.4659978 118.6390014  27.5467261  57.1484190 119.4275537
  27.8169992  58.8819978 121.6060014  27.6849992  58.4069978 120.7860014
  27.2169992  59.6269978 121.5510014  27.7179070  58.9175789 121.4863251
  19.5799992  75.7949978 109.3430014  18.9329992  75.3329978 108.8100014
  19.9349992  75.1229978 109.9250014  19.5394506  75.6409503 109.3487341
  20.4499992  73.8749978 111.1470014  20.1159992  72.9949978 111.3190014
  20.6729992  74.2209978 112.0120014  20.4343721  73.8011938 111.2874168
  37.9989992  74.6849978 114.1280014  37.9769992  74.8699978 115.0670014
  38.6889992  75.2529978 113.7870014  38.0893439  74.7871887 114.2104791
  37.5619992  74.2519978 117.0500014  37.0749992  73.5169978 116.6790014
  38.1109992  73.8579978 117.7280014  37.5695247  74.0981057 117.0908461
  36.0129992  70.0419978 121.6880014  35.1469992  69.9369978 122.0820014
  36.3889992  70.7999978 122.1340014  35.9453401  70.1301708 121.8022620
  37.3139992  68.2979978 107.2020014  38.1639992  68.7189978 107.3290014
  37.3189992  67.5579978 107.8090014  37.4311143  68.2556094 107.3014750
  37.7079992  66.3519978 109.0260014  36.9819992  65.8719978 109.4230014
  38.2899992  66.5569978 109.7580014  37.6871635  66.3139166 109.1793748
  37.4669992  69.1369978 113.9730014  38.3009992  68.7589978 113.6930014
  37.5789992  70.0799978 113.8540014  37.5962522  69.2127742 113.9186020
  35.9539992  72.0149978 116.2800014  35.3059992  72.3399978 116.9060014
  35.4359992  71.5739978 115.6060014  35.7954168  71.9998523 116.2745307
  35.4949992  64.8729978 109.5890014  35.3449992  63.9279978 109.5680014
  35.1409992  65.1539978 110.4320014  35.4265527  64.7815605 109.7001859
  20.5299992  66.9509978 113.5990014  20.7149992  66.8689978 112.6630014
  21.3799992  66.8269978 114.0230014  20.6700916  66.9230393 113.5282896
  36.3509992  66.8429978 119.2270014  36.9339992  66.1079978 119.4190014
  36.9149992  67.6149978 119.2740014  36.5069781  66.8468145 119.2596164
  37.8479992  64.7459978 119.9120014  36.9849992  64.3669978 119.7460014
  38.4519992  64.0069978 119.8380014  37.8115944  64.5942978 119.8792984
  35.2059992  62.4549978 108.0510014  35.4849992  61.5479978 108.1750014
  35.9649992  62.8889978 107.6620014  35.3468619  62.3894502 108.0153795
  35.8169992  63.0369978 113.4870014  36.7499992  63.2489978 113.4530014
  35.5819992  63.1379978 114.4090014  35.9128308  63.0796503 113.6070214
  35.8469992  63.7739978 116.2630014  35.0039992  64.0419978 116.6290014
  36.2889992  64.5959978 116.0520014  35.7914138  63.9218273 116.2845518
  20.1279992  62.2209978 119.7400014  21.0469992  62.0989978 119.9760014
  19.6779992  61.4709978 120.1290014  20.1931148  62.1028751 119.8249408
  38.1299992  57.7539978 121.6160014  38.4789992  57.0999978 121.0110014
  38.2769992  58.5909978 121.1770014  38.1977355  57.7776067 121.4736564
  35.8189992  59.7179978 108.0990014  36.0009992  59.2689978 108.9250014
  35.2189992  59.1339978 107.6360014  35.7627529  59.5776131 108.1493619
  21.3489992  60.5339978 112.6310014  21.7939992  59.7419978 112.9330014
  21.8149992  61.2499978 113.0620014  21.4729059  60.5224474 112.7306079
  19.6529992  63.5329978 113.7000014  20.1449992  63.3119978 112.9090014
  20.0149992  64.3729978 113.9810014  19.7692923  63.6163468 113.6297407
  37.6489992  59.8629978 119.9660014  36.7319992  60.1339978 119.9300014
  37.7719992  59.3279978 119.1820014  37.5400828  59.8277700 119.8550785
  37.6859992  59.7859978 104.6270014  38.0979992  59.0649978 104.1520014
  38.3669992  60.4549978 104.6860014  37.8345900  59.7777306 104.5699038
  19.9669992  59.7909978 107.7540014  19.0419992  59.9989978 107.6250014
  20.4209992  60.2749978 107.0650014  19.9016374  59.8849949 107.6430957
  34.7369992  74.7749978 109.7000014  35.3899992  74.4269978 109.0920014
  35.2479992  75.2629978 110.3460014  34.8952777  74.7933815 109.7042047
  19.9299992  58.5289978 116.0990014  19.2649992  58.2829978 116.7420014
  19.4869992  59.1509978 115.5210014  19.7790937  58.5793614 116.1089379
  22.1219992  71.7039978 120.2430014  21.3009992  71.8789978 119.7830014
  21.8699992  71.6309978 121.1640014  21.9756173  71.7180794 120.3044972
  25.0759992  72.6779978 116.5020014  24.6519992  73.4879978 116.2190014
  25.9809992  72.7639978 116.2000014  25.1402433  72.8003331 116.4225377
  29.3879992  74.0769978 119.4610014  29.5719992  73.7439978 120.3390014
  30.2339992  74.3869978 119.1390014  29.5276484  74.0732979 119.5377617
  31.7329992  75.3629978 118.7050014  32.4099992  74.7299978 118.4650014
  32.0539992  75.7639978 119.5120014  31.8691323  75.3305691 118.7813158
  36.6499992  57.9529978 117.7850014  35.8369992  58.2779978 117.3970014
  36.8829992  57.1919978 117.2520014  36.5702566  57.8946559 117.6599213
  22.4779992  75.9349978 116.5490014  21.7579992  76.3749978 116.0980014
  22.1129992  75.6839978 117.3980014  22.3299796  75.9613824 116.6019329
  24.9449992  75.5349978 115.5790014  24.0809992  75.6069978 115.9830014
  24.8899992  76.0819978 114.7950014  24.8191942  75.6187850 115.5284000
  29.6559992  75.4229978 114.7540014  29.1989992  75.9519978 114.1000014
  29.8189992  76.0259978 115.4800014  29.6154476  75.5769140 114.7625499
  31.9839992  74.3009978 115.6990014  31.0789992  74.4659978 115.4340014
  32.4119992  75.1539978 115.6340014  31.9180700  74.4389529 115.6539520
  34.5879992  75.8709978 115.9940014  34.4059992  76.7869978 115.7840014
  34.7649992  75.4599978 115.1480014  34.5869907  75.9409741 115.8507883
  21.8929992  74.5579978 113.4590014  21.8749992  74.1319978 114.3170014
  22.6979992  74.2389978 113.0510014  21.9993221  74.4567233 113.5210225
  24.0339992  73.2679978 112.1140014  23.8149992  72.3509978 112.2840014
  24.8579992  73.4079978 112.5800014  24.1154702  73.1615511 112.2002527
  26.5709992  73.7379978 112.9630014  26.7839992  72.8499978 112.6760014
  26.6359992  73.7029978 113.9180014  26.6089075  73.6118307 113.0527373
  30.0799992  59.4019978 112.1070014  29.4059992  58.7719978 112.3630014
  30.6439992  58.9179978 111.5040014  30.0640384  59.2503708 112.0605020
  35.2229992  57.5089978 112.2200014  35.8259992  58.0569978 111.7180014
  34.3529992  57.8279978 111.9800014  35.1879190  57.6271041 112.1188679
  36.9499992  58.6479978 110.5530014  37.5609992  58.1339978 110.0270014
  37.3319992  59.5249978 110.5770014  37.0854475  58.6961323 110.4841208
  22.4069992  58.0359978 109.9290014  21.6299992  57.8009978 109.4220014
  22.9369992  57.2389978 109.9380014  22.3723451  57.8961268 109.8608627
  21.2429992  57.8339978 105.7330014  21.6819992  58.4449978 105.1410014
  20.6089992  58.3719978 106.2070014  21.2173859  57.9904064 105.7160305
  26.9859992  57.9619978 109.7430014  27.8599992  58.3509978 109.7130014
  26.8499992  57.7469978 110.6650014  27.0873207  57.9861923 109.8636509
  32.5429992  57.9919978 111.3920014  32.6189992  58.0879978 110.4430014
  32.2679992  57.0849978 111.5210014  32.5162042  57.8824241 111.2793811
  33.8959992  58.0179978 107.0840014  33.1929992  58.6329978 106.8750014
  33.4509992  57.1809978 107.2160014  33.7396292  57.9890085 107.0732439
  21.1439992  73.7819978 106.6310014  20.4589992  73.7439978 105.9630014
  21.1479992  74.6949978 106.9190014  21.0508174  73.9001998 106.5785310
  36.7169992  74.5539978 107.7070014  36.5229992  73.8059978 107.1420014
  36.6779992  75.3119978 107.1240014  36.6851645  74.5540786 107.5508148
  22.3639992  58.5499978 119.4470014  21.9979992  57.7839978 119.8900014
  23.2769992  58.5789978 119.7340014  22.4373225  58.4491906 119.5463459
  24.3369992  57.8999978 120.9830014  25.2359992  57.6259978 120.7980014
  23.9509992  57.1579978 121.4470014  24.4077237  57.7621508 121.0204710
  32.7589992  57.2329978 121.1650014  32.8349992  56.8069978 122.0190014
  33.6519992  57.2459978 120.8220014  32.8902267  57.1763952 121.2355932
  35.9349992  73.3059978 119.8570014  35.1529992  73.1189978 119.3380014
  35.8629992  74.2349978 120.0750014  35.8180863  73.4060221 119.8153574
  50.3409992  67.1919978 109.8880014  50.4299992  68.1359978 109.7560014
  49.7029992  66.9169978 109.2300014  50.2669062  67.2839812 109.7809641
  49.2739992  66.4469978 113.3070014  49.2359992  65.8009978 114.0120014
  48.9519992  65.9799978 112.5360014  49.2252679  66.2954276 113.2992921
  41.6419992  66.0609978 114.9000014  41.6839992  65.4359978 115.6230014
  42.3449992  66.6849978 115.0820014  41.7427345  66.0597873 115.0235274
  52.9799992  69.3859978 111.6090014  52.5389992  68.6659978 112.0590014
  52.9669992  70.1069978 112.2380014  52.9177960  69.3848329 111.7557567
  42.5659992  70.5109978 113.4350014  42.1959992  69.7089978 113.0650014
  43.5069992  70.3429978 113.4810014  42.6425984  70.3784638 113.3905603
  39.1759992  64.1709978 108.8280014  38.7279992  65.0169978 108.8090014
  38.6149992  63.5919978 108.3120014  39.0389603  64.2083674 108.7556720
  39.8859992  66.3329978 110.9540014  40.0999992  65.5629978 111.4810014
  40.6239992  66.4229978 110.3500014  40.0149652  66.2398012 110.9445212
  50.0919992  74.4899978 111.8210014  50.7109992  73.8139978 111.5470014
  49.8829992  74.2719978 112.7290014  50.1486232  74.3677938 111.9062517
  47.6629992  68.8789978 113.7130014  47.9669992  68.1929978 113.1190014
  48.3849992  68.9979978 114.3310014  47.8021152  68.8012189 113.7152123
  56.3259992  60.4809978 114.5740014  56.3759992  61.0909978 115.3100014
  56.7519992  60.9419978 113.8510014  56.3904108  60.6267709 114.5770112
  50.8039992  63.2729978 114.0410014  50.9469992  62.3269978 114.0610014
  50.6979992  63.4799978 113.1120014  50.8092509  63.1714813 113.9182231
  43.9589992  61.3749978 111.3130014  44.0019992  62.2349978 110.8950014
  43.5009992  60.8229978 110.6790014  43.9029815  61.4180621 111.1701197
  51.6809992  61.5059978 109.7140014  52.3279992  61.1769978 110.3390014
  52.1909992  62.0229978 109.0910014  51.8384317  61.5309227 109.7152167
  40.5789992  63.7719978 112.0750014  41.2329992  63.2219978 112.5070014
  40.6029992  63.4979978 111.1580014  40.6717199  63.6597167 112.0101668
  45.7359992  65.3219978 111.2900014  46.3519992  64.7949978 111.8000014
  45.1489992  64.6819978 110.8870014  45.7409239  65.1634117 111.3052952
  56.7179992  61.9589978 116.8100014  56.0289992  62.6169978 116.7140014
  56.7329992  61.7609978 117.7460014  56.6256741  62.0223243 116.9234630
  42.7689992  60.2929978 115.3870014  42.5499992  60.8229978 114.6210014
  42.1009992  60.5189978 116.0340014  42.6487001  60.3961154 115.3696064
  50.1379992  69.7929978 108.9310014  49.8429992  69.4699978 108.0800014
  49.8139992  70.6929978 108.9720014  50.0537983  69.8704026 108.8199771
  45.3379992  67.9679978 115.6750014  44.5979992  68.5669978 115.7780014
  46.0519992  68.5219978 115.3590014  45.3333288  68.1247356 115.6463805
  53.4449992  60.7969978 111.6940014  53.2299992  60.0309978 112.2270014
  54.1009992  61.2689978 112.2070014  53.5042673  60.7560728 111.8361990
  42.3629992  62.1849978 113.3390014  42.9769992  62.8179978 113.7130014
  42.8749992  61.7129978 112.6830014  42.5162277  62.2077352 113.3014279
  43.7459992  69.9329978 116.4620014  43.7399992  70.8119978 116.0840014
  42.8919992  69.8489978 116.8870014  43.6297925  70.0419535 116.4676887
  39.8669992  69.6039978 107.2440014  39.5949992  69.8329978 106.3550014
  39.9119992  70.4409978 107.7040014  39.8358709  69.7486058 107.1846107
  53.4919992  71.2249978 113.9560014  52.5499992  71.2839978 114.1180014
  53.7679992  72.1309978 113.8190014  53.4005865  71.3555288 113.9596192
  53.7919992  59.5119978 115.3740014  53.0559992  60.1219978 115.3360014
  54.4759992  59.9269978 114.8470014  53.7835506  59.6516400 115.2976051
  46.7959992  57.5979978 112.8400014  46.6779992  56.6499978 112.7850014
  45.9409992  57.9309978 113.1130014  46.6642679  57.5131926 112.8693720
  51.7439992  73.0059978 110.5820014  52.1689992  72.2989978 110.0970014
  52.0609992  73.8079978 110.1650014  51.8450266  73.0175190 110.4592479
  52.9039992  70.9069978 109.0900014  52.6459992  70.2169978 108.4790014
  52.9749992  70.4639978 109.9360014  52.8782837  70.7527106 109.1206912
  54.5899992  69.4739978 117.5680014  54.7289992  68.8819978 116.8280014
  54.7569992  70.3469978 117.2110014  54.6315562  69.5109896 117.4186283
  49.0619992  66.4359978 107.3400014  48.3509992  66.9709978 106.9880014
  49.7529992  66.4909978 106.6800014  49.0580751  66.5166777 107.2025858
  49.1159992  64.8929978 104.3790014  49.8169992  64.9159978 105.0300014
  49.4179992  64.2649978 103.7230014  49.2528282  64.8112339 104.3794496
  56.4309992  65.8139978 115.6340014  55.7789992  66.5079978 115.7230014
  56.8969992  66.0239978 114.8240014  56.4045937  65.9375019 115.5367533
  52.4679992  66.6449978 108.2920014  51.7359992  66.8739978 108.8650014
  52.9149992  65.9319978 108.7470014  52.4282753  66.5798972 108.4319715
  52.3649992  64.8199978 117.3600014  52.4449992  65.5829978 117.9310014
  51.7639992  65.0989978 116.6690014  52.2947245  64.9622630 117.3448424
  44.1129992  67.2759978 110.1740014  43.7829992  66.9049978 109.3560014
  44.7019992  66.6049978 110.5210014  44.1473970  67.1346063 110.1089404
  45.4799992  70.7039978 112.8560014  45.3849992  70.1249978 112.0990014
  46.2089992  70.3329978 113.3520014  45.5656161  70.5745891 112.8195209
  44.4799992  66.0439978 113.8080014  45.0449992  66.1659978 113.0450014
  44.7989992  66.6819978 114.4470014  44.6003977  66.1468851 113.7899424
  50.7889992  71.5479978 114.5420014  50.5489992  72.2099978 115.1900014
  50.5909992  70.7129978 114.9670014  50.7293826  71.5258115 114.6881566
  45.3599992  70.4439978 118.5250014  45.0489992  71.2259978 118.9800014
  44.7099992  70.2909978 117.8390014  45.2295538  70.5304087 118.4945898
  51.3389992  65.8079978 105.9770014  51.9179992  65.9579978 106.7240014
  51.7529992  66.2779978 105.2540014  51.4743122  65.8921277 105.9815042
  42.2799992  66.6419978 117.7540014  42.3499992  67.2929978 118.4520014
  41.3889992  66.7449978 117.4190014  42.1691802  66.7449757 117.8042249
  49.0649992  72.5439978 109.4120014  49.5389992  72.8399978 110.1900014
  48.5019992  73.2829978 109.1790014  49.0537361  72.6842721 109.4868611
  43.5989992  72.5149978 119.2880014  43.6069992  72.3789978 118.3410014
  42.6829992  72.3979978 119.5400014  43.4762528  72.4805463 119.1923243
  55.0379992  57.5579978 105.7900014  54.1379992  57.6969978 106.0850014
  55.2899992  58.3889978 105.3880014  54.9488683  57.6894055 105.7760232
  43.1039992  66.3449978 107.7640014  42.8119992  67.1129978 107.2730014
  42.4289992  65.6859978 107.6010014  42.9728497  66.3609745 107.6748260
  56.2269992  71.9239978 104.1660014  56.2999992  72.8629978 104.3370014
  57.1319992  71.6189978 104.1100014  56.3594158  72.0113061 104.1818392
  39.1969992  68.7079978 116.5790014  38.6949992  68.6799978 115.7640014
  39.2019992  67.8029978 116.8880014  39.1290416  68.5817368 116.5093766
  38.9469992  71.4889978 113.4630014  39.8929992  71.3439978 113.4440014
  38.8339992  72.2729978 114.0000014  39.0613578  71.5751697 113.5330317
  57.1449992  72.1549978 119.1450014  57.0949992  71.1989978 119.1080014
  56.3179992  72.4219978 119.5460014  57.0263987  72.0605174 119.1941446
  48.1229992  71.7289978 118.0210014  48.2109992  72.5549978 118.4960014
  47.2599992  71.3989978 118.2700014  48.0183357  71.7975468 118.1197653
  48.5379992  75.5009978 107.8270014  48.4619992  75.3799978 106.8810014
  48.5699992  76.4499978 107.9460014  48.5319156  75.6127530 107.7135048
  42.1909992  74.2899978 109.6080014  42.3429992  73.9419978 110.4870014
  41.3399992  73.9329978 109.3530014  42.0967899  74.1941738 109.6937340
  51.3079992  74.5809978 107.5790014  50.3729992  74.6809978 107.7570014
  51.5879992  73.8709978 108.1570014  51.2178173  74.4987239 107.6814998
  54.2969992  63.6479978 119.6250014  53.8889992  64.1279978 118.9050014
  54.3369992  62.7419978 119.3170014  54.2465476  63.5913160 119.4848247
  41.4459992  70.0319978 117.6220014  41.6619992  69.6699978 118.4810014
  40.5899992  69.6569978 117.4120014  41.3599354  69.9317906 117.7112160
  44.0639992  58.5019978 113.6170014  43.2029992  58.4149978 113.2100014
  44.0419992  59.3579978 114.0450014  43.9430411  58.6057884 113.6190857
  48.7269992  58.2239978 116.9920014  49.1469992  57.8089978 117.7450014
  47.7939992  58.0449978 117.1090014  48.6583736  58.1429910 117.1108968
  52.0539992  61.9789978 117.8450014  51.5399992  61.8539978 118.6430014
  51.8979992  62.8919978 117.6010014  51.9626967  62.0852123 117.9210937
  44.1549992  63.4669978 114.7120014  43.5139992  63.4269978 115.4210014
  44.1929992  64.3939978 114.4750014  44.0723670  63.5867795 114.7770550
  44.1519992  63.6879978 109.6240014  43.2599992  63.3479978 109.5660014
  44.6029992  63.3109978 108.8690014  44.0906815  63.5903762 109.5139203
  49.6879992  64.1039978 108.4410014  49.2789992  64.9189978 108.1500014
  50.4079992  63.9639978 107.8270014  49.7294013  64.1966571 108.3180875
  48.7899992  64.2799978 119.9290014  48.2269992  63.5749978 120.2500014
  49.6159992  64.1589978 120.3970014  48.8246674  64.1672165 120.0361751
  50.6929992  63.5499978 111.2550014  50.4969992  64.1559978 110.5400014
  50.8739992  62.7169978 110.8210014  50.6906584  63.5202513 111.0984212
  41.9049992  63.7879978 116.5790014  41.8669992  64.1879978 117.4480014
  41.4149992  62.9709978 116.6700014  41.8335621  63.7322510 116.7101377
  38.5139992  60.9039978 110.4300014  39.1439992  60.8749978 111.1490014
  38.9629992  60.4789978 109.7000014  38.6610692  60.8425316 110.4297771
  39.7879992  61.6499978 105.8540014  40.2619992  62.2409978 105.2690014
  39.0699992  62.1799978 106.2010014  39.7558640  61.8025511 105.8207969
  49.9569992  65.1879978 115.9270014  50.2799992  64.5569978 115.2840014
  49.5159992  64.6539978 116.5870014  49.9415789  65.0293522 115.9282232
  46.7339992  61.1159978 110.7110014  45.8229992  61.1729978 110.9990014
  47.2389992  61.0559978 111.5210014  46.6775387  61.1156870 110.8600646
  41.5619992  62.7449978 109.5370014  40.6729992  62.8439978 109.1970014
  41.8589992  61.9029978 109.1910014  41.4804177  62.6447687 109.4436940
  45.2149992  62.7449978 107.1940014  46.1469992  62.8739978 107.3720014
  44.9999992  63.4139978 106.5440014  45.3134472  62.8530806 107.1304891
  51.1389992  60.3509978 113.9750014  50.4619992  60.4819978 114.6390014
  50.6539992  60.1959978 113.1650014  50.9807265  60.3479659 113.9563397
  54.4269992  76.0219978 120.2520014  54.6259992  76.4459978 119.4170014
  55.0819992  76.3659978 120.8590014  54.5428501  76.1266091 120.2197097
  42.0249992  68.4959978 119.8600014  42.7569992  68.7509978 120.4210014
  41.2439992  68.7009978 120.3750014  42.0197684  68.5586468 120.0064782
  48.0539992  63.9029978 112.5980014  48.6179992  63.3569978 112.0510014
  47.9059992  63.3819978 113.3860014  48.1112575  63.7576552 112.6296987
  43.0559992  60.0399978 109.0160014  42.7389992  59.1369978 108.9810014
  43.8369992  60.0419978 108.4630014  43.1182307  59.9166951 108.9364314
  46.6799992  62.2919978 115.0120014  45.8449992  62.7459978 115.1220014
  47.2039992  62.5679978 115.7640014  46.6365070  62.3914665 115.1287152
  47.2249992  68.5049978 106.6960014  46.4799992  67.9969978 106.3740014
  47.0899992  68.5539978 107.6430014  47.1049047  68.4421596 106.7798845
  54.3749992  67.6379978 115.4830014  55.0159992  68.0939978 114.9390014
  53.5439992  67.7509978 115.0210014  54.3505171  67.7157502 115.3460237
  51.1219992  61.3189978 104.8960014  50.1839992  61.4299978 104.7440014
  51.4199992  62.1749978 105.2020014  51.0336402  61.4500621 104.9165571
  48.7439992  68.6889978 117.9330014  48.3979992  68.3069978 118.7400014
  48.5439992  69.6219978 118.0050014  48.6696523  68.7629095 118.0530735
  51.8409992  63.1859978 106.5560014  52.7329992  63.0479978 106.8750014
  51.8969992  63.9769978 106.0200014  51.9707107  63.2740526 106.5272091
  42.3489992  67.7999978 112.4660014  43.0939992  67.7969978 111.8650014
  42.4269992  66.9759978 112.9480014  42.4614158  67.6882916 112.4489153
  49.3499992  69.9629978 105.7220014  49.0549992  70.7899978 106.1030014
  48.6469992  69.3439978 105.9180014  49.2145471  69.9925227 105.8006698
  39.3569992  66.2599978 117.7810014  39.5799992  65.8419978 118.6130014
  38.7549992  65.6479978 117.3580014  39.3061260  66.1199933 117.8377320
  46.3739992  65.7769978 119.9940014  46.0779992  65.6119978 119.0990014
  47.3049992  65.5569978 119.9830014  46.4593982  65.7246578 119.8700045
  50.9939992  71.1509978 117.8840014  50.0939992  71.3339978 117.6160014
  51.0279992  71.4099978 118.8050014  50.8752909  71.2110815 117.9717852
  56.7259992  63.3949978 106.2510014  56.1709992  62.9989978 105.5790014
  56.8259992  64.3059978 105.9730014  56.6635888  63.4638990 106.1215206
  56.6889992  69.1959978 119.0880014  55.8379992  69.4339978 118.7210014
  57.2789992  69.1789978 118.3350014  56.6522408  69.2262966 118.9358879
  55.0209992  72.1809978 106.7160014  54.6479992  71.3559978 107.0250014
  55.2979992  71.9979978 105.8190014  55.0073871  72.0432441 106.6369677
  52.1809992  66.9889978 113.7370014  51.2529992  66.7579978 113.7100014
  52.6319992  66.2119978 113.4070014  52.1148165  66.8522774 113.6886790
  44.7239992  71.3179978 109.8700014  45.2519992  72.0909978 109.6700014
  43.8439992  71.5419978 109.5690014  44.6773176  71.4543161 109.8018409
  46.1519992  68.9809978 109.4470014  45.9109992  69.9059978 109.4880014
  45.4109992  68.5219978 109.8430014  46.0188390  69.0456403 109.5061404
  46.6659992  73.1299978 115.7620014  47.0289992  73.9839978 115.5280014
  47.1979992  72.8379978 116.5020014  46.7876090  73.2074058 115.8300219
  44.8349992  74.0019978 108.9920014  43.8849992  74.1079978 109.0430014
  45.1869992  74.8229978 109.3370014  44.7525480  74.1274438 109.0455999
  50.2099992  69.2289978 115.4620014  49.7849992  69.0009978 116.2890014
  50.7909992  68.4899978 115.2800014  50.2303930  69.0979843 115.5504731
  52.4129992  70.1579978 104.5360014  52.7669992  69.7779978 105.3410014
  51.4649992  70.0639978 104.6230014  52.3331820  70.0933092 104.6578714
  52.8689992  73.7809978 117.9320014  52.2669992  73.2249978 117.4360014
  53.1499992  74.4479978 117.3060014  52.8246829  73.7951613 117.7795443
  40.9909992  61.0139978 117.3390014  40.0989992  61.3519978 117.2720014
  40.8929992  60.1579978 117.7570014  40.8554965  60.9446499 117.3863044
  53.2789992  68.8299978 106.7630014  53.0019992  68.1019978 107.3190014
  54.2069992  68.9489978 106.9680014  53.3664499  68.7464213 106.8668044
  40.6429992  72.8179978 115.7740014  40.8599992  71.8859978 115.7430014
  40.8889992  73.0929978 116.6570014  40.7059809  72.7275686 115.8891691
  41.8939992  68.0919978 105.9500014  41.2079992  68.4449978 106.5170014
  42.4169992  68.8549978 105.7040014  41.8709033  68.2433746 105.9942661
  49.7259992  60.7549978 116.2290014  50.4249992  60.8289978 116.8790014
  49.3449992  59.8899978 116.3830014  49.7702097  60.6482389 116.3387997
  50.5099992  60.4069978 107.3260014  50.7299992  60.8779978 106.5230014
  51.0689992  60.8009978 107.9960014  50.6156730  60.5247432 107.3065906
  48.1789992  72.5369978 106.1890014  47.3619992  73.0339978 106.2410014
  48.7079992  73.0129978 105.5490014  48.1388508  72.6692543 106.1096035
  47.7099992  62.1349978 108.1610014  48.5219992  62.6389978 108.2070014
  47.4659992  61.9899978 109.0750014  47.7881467  62.1843749 108.2908575
  48.2459992  63.1209978 117.3460014  48.3649992  63.6949978 118.1030014
  48.9009992  62.4329978 117.4600014  48.3509146  63.1065574 117.4651314
  48.5939992  59.2159978 109.0990014  48.2469992  59.8329978 109.7440014
  49.2529992  59.7169978 108.6180014  48.6355949  59.3681099 109.1222271
  45.5169992  73.5809978 106.1710014  45.6779992  74.3809978 105.6700014
  45.3199992  73.8879978 107.0560014  45.5123919  73.7319129 106.2221006
  44.2519992  60.2789978 105.7860014  44.1679992  61.1669978 106.1330014
  45.1419992  60.0139978 106.0180014  44.3608163  60.3647179 105.8648596
  54.4499992  61.0279978 118.1810014  53.5339992  61.2899978 118.0930014
  54.7859992  61.0249978 117.2840014  54.3699789  61.0634626 118.0477847
  53.0529992  64.7779978 112.2760014  52.2549992  64.3629978 111.9480014
  53.4979992  64.0879978 112.7670014  53.0039684  64.6278628 112.2975227
  42.5099992  70.7059978 104.8470014  43.1019992  71.4059978 105.1230014
  42.9689992  70.2729978 104.1270014  42.6530791  70.7432908 104.7874607
  54.1389992  74.0339978 113.8990014  53.9829992  74.7129978 113.2420014
  55.0719992  74.1059978 114.1020014  54.2437387  74.1366390 113.8365342
  41.6339992  58.1519978 112.6360014  41.4049992  58.2109978 111.7080014
  41.1919992  57.3609978 112.9420014  41.5428801  58.0530540 112.5504729
  40.5649992  72.0929978 108.7960014  39.7319992  72.5649978 108.8240014
  41.1099992  72.6029978 108.1980014  40.5247590  72.2265897 108.7189194
  39.8529992  74.7049978 120.1260014  40.3929992  74.4889978 120.8860014
  39.3719992  73.8999978 119.9370014  39.8618613  74.5665400 120.2044781
  44.4499992  73.6249978 121.7470014  45.2179992  73.1659978 122.0880014
  44.4289992  73.3989978 120.8170014  44.5522135  73.5316668 121.6679491
  51.0269992  72.0049978 120.4760014  50.6759992  71.1479978 120.7190014
  51.7529992  72.1469978 121.0830014  51.0771590  71.9070178 120.5912907
  39.7599992  68.5159978 121.0810014  39.9039992  67.6139978 120.7940014
  38.9879992  68.8019978 120.5930014  39.6753303  68.4313243 120.9757908
  46.4149992  68.4849978 120.5130014  46.0869992  68.7559978 119.6560014
  46.5669992  67.5439978 120.4260014  46.3906030  68.3948973 120.3837945
  52.1499992  68.4009978 117.8970014  52.8949992  68.9899978 117.7770014
  51.3929992  68.9829978 117.9600014  52.1495205  68.5601997 117.8891119
  40.5929992  65.7159978 120.5010014  41.0009992  64.8589978 120.3800014
  40.3319992  65.7299978 121.4220014  40.6136016  65.6005119 120.6089192
  44.5399992  64.7249978 117.8750014  43.9209992  65.3989978 118.1550014
  44.8839992  65.0459978 117.0420014  44.5017605  64.8607198 117.8006707
  49.5589992  67.1959978 121.1520014  50.5129992  67.2799978 121.1250014
  49.3989992  66.4839978 121.7720014  49.6677182  67.1112842 121.2320733
  44.8789992  62.0799978 118.9570014  45.0289992  61.3509978 118.3550014
  44.8809992  62.8569978 118.3980014  44.8997967  62.0852708 118.7990541
  45.2919992  60.4489978 116.4500014  45.8269992  60.9009978 115.7980014
  44.4389992  60.3409978 116.0270014  45.2500374  60.4962665 116.3036710
  46.8729992  65.8889978 116.6890014  47.6239992  65.7329978 116.1160014
  46.5339992  66.7409978 116.4140014  46.9299587  65.9828138 116.5734078
  51.2889992  63.7039978 121.7180014  51.4809992  62.7729978 121.6060014
  52.1469992  64.1289978 121.7080014  51.4312269  63.6339928 121.7013192
  52.6059992  66.4929978 119.7950014  52.3239992  67.2019978 119.2180014
  53.5479992  66.4199978 119.6440014  52.6947656  66.5803128 119.6954809
  43.3579992  63.2779978 120.8690014  42.5899992  62.7449978 120.6590014
  44.0359992  62.9679978 120.2690014  43.3446973  63.1632375 120.7591796
  46.0969992  57.9059978 116.8810014  45.9989992  58.8519978 116.7760014
  45.3549992  57.5329978 116.4060014  45.9831913  57.9851813 116.8023539
  47.3609992  62.2269978 120.4450014  47.1259992  62.0079978 121.3470014
  46.5779992  62.0199978 119.9350014  47.2229219  62.1690066 120.4995852
  50.0769992  61.3549978 119.5210014  49.1289992  61.3869978 119.6530014
  50.3889992  60.7289978 120.1740014  49.9895190  61.2747262 119.6273564
  51.7109992  59.9889978 121.5260014  51.6139992  59.0369978 121.5200014
  51.3889992  60.2569978 122.3860014  51.6541761  59.8949744 121.6414936
  41.5379992  61.1979978 120.5730014  41.7499992  60.4919978 119.9630014
  41.4269992  60.7609978 121.4170014  41.5520269  61.0421921 120.6035873
  46.3189992  57.1999978 119.5530014  47.0309992  56.5599978 119.5390014
  46.2179992  57.4659978 118.6390014  46.4027261  57.1484190 119.4275537
  46.6729992  58.8819978 121.6060014  46.5409992  58.4069978 120.7860014
  46.0729992  59.6269978 121.5510014  46.5739070  58.9175789 121.4863251
  39.7869992  70.4019978 104.2650014  40.7009992  70.4809978 104.5390014
  39.7949992  69.7149978 103.5990014  39.9131143  70.3199085 104.2124274
  38.4359992  75.7949978 109.3430014  37.7889992  75.3329978 108.8100014
  38.7909992  75.1229978 109.9250014  38.3954506  75.6409503 109.3487341
  39.3059992  73.8749978 111.1470014  38.9719992  72.9949978 111.3190014
  39.5289992  74.2209978 112.0120014  39.2903721  73.8011938 111.2874168
  56.8549992  74.6849978 114.1280014  56.8329992  74.8699978 115.0670014
  57.5449992  75.2529978 113.7870014  56.9453439  74.7871887 114.2104791
  56.4179992  74.2519978 117.0500014  55.9309992  73.5169978 116.6790014
  56.9669992  73.8579978 117.7280014  56.4255247  74.0981057 117.0908461
  54.8689992  70.0419978 121.6880014  54.0029992  69.9369978 122.0820014
  55.2449992  70.7999978 122.1340014  54.8013401  70.1301708 121.8022620
  56.1699992  68.2979978 107.2020014  57.0199992  68.7189978 107.3290014
  56.1749992  67.5579978 107.8090014  56.2871143  68.2556094 107.3014750
  56.5639992  66.3519978 109.0260014  55.8379992  65.8719978 109.4230014
  57.1459992  66.5569978 109.7580014  56.5431635  66.3139166 109.1793748
  56.3229992  69.1369978 113.9730014  57.1569992  68.7589978 113.6930014
  56.4349992  70.0799978 113.8540014  56.4522522  69.2127742 113.9186020
  54.8099992  72.0149978 116.2800014  54.1619992  72.3399978 116.9060014
  54.2919992  71.5739978 115.6060014  54.6514168  71.9998523 116.2745307
  56.8329992  66.2529978 105.4170014  56.3109992  66.6089978 104.6980014
  56.7999992  66.9279978 106.0950014  56.7570699  66.3929848 105.4102129
  54.3509992  64.8729978 109.5890014  54.2009992  63.9279978 109.5680014
  53.9969992  65.1539978 110.4320014  54.2825527  64.7815605 109.7001859
  39.3859992  66.9509978 113.5990014  39.5709992  66.8689978 112.6630014
  40.2359992  66.8269978 114.0230014  39.5260916  66.9230393 113.5282896
  55.2069992  66.8429978 119.2270014  55.7899992  66.1079978 119.4190014
  55.7709992  67.6149978 119.2740014  55.3629781  66.8468145 119.2596164
  56.7039992  64.7459978 119.9120014  55.8409992  64.3669978 119.7460014
  57.3079992  64.0069978 119.8380014  56.6675944  64.5942978 119.8792984
  54.0619992  62.4549978 108.0510014  54.3409992  61.5479978 108.1750014
  54.8209992  62.8889978 107.6620014  54.2028619  62.3894502 108.0153795
  54.6729992  63.0369978 113.4870014  55.6059992  63.2489978 113.4530014
  54.4379992  63.1379978 114.4090014  54.7688308  63.0796503 113.6070214
  54.7029992  63.7739978 116.2630014  53.8599992  64.0419978 116.6290014
  55.1449992  64.5959978 116.0520014  54.6474138  63.9218273 116.2845518
  38.9839992  62.2209978 119.7400014  39.9029992  62.0989978 119.9760014
  38.5339992  61.4709978 120.1290014  39.0491148  62.1028751 119.8249408
  56.9859992  57.7539978 121.6160014  57.3349992  57.0999978 121.0110014
  57.1329992  58.5909978 121.1770014  57.0537355  57.7776067 121.4736564
  54.6749992  59.7179978 108.0990014  54.8569992  59.2689978 108.9250014
  54.0749992  59.1339978 107.6360014  54.6187529  59.5776131 108.1493619
  40.2049992  60.5339978 112.6310014  40.6499992  59.7419978 112.9330014
  40.6709992  61.2499978 113.0620014  40.3289059  60.5224474 112.7306079
  38.5089992  63.5329978 113.7000014  39.0009992  63.3119978 112.9090014
  38.8709992  64.3729978 113.9810014  38.6252923  63.6163468 113.6297407
  56.5049992  59.8629978 119.9660014  55.5879992  60.1339978 119.9300014
  56.6279992  59.3279978 119.1820014  56.3960828  59.8277700 119.8550785
  38.8229992  59.7909978 107.7540014  37.8979992  59.9989978 107.6250014
  39.2769992  60.2749978 107.0650014  38.7576374  59.8849949 107.6430957
  53.5929992  74.7749978 109.7000014  54.2459992  74.4269978 109.0920014
  54.1039992  75.2629978 110.3460014  53.7512777  74.7933815 109.7042047
  38.7859992  58.5289978 116.0990014  38.1209992  58.2829978 116.7420014
  38.3429992  59.1509978 115.5210014  38.6350937  58.5793614 116.1089379
  40.9779992  71.7039978 120.2430014  40.1569992  71.8789978 119.7830014
  40.7259992  71.6309978 121.1640014  40.8316173  71.7180794 120.3044972
  43.9319992  72.6779978 116.5020014  43.5079992  73.4879978 116.2190014
  44.8369992  72.7639978 116.2000014  43.9962433  72.8003331 116.4225377
  48.2439992  74.0769978 119.4610014  48.4279992  73.7439978 120.3390014
  49.0899992  74.3869978 119.1390014  48.3836484  74.0732979 119.5377617
  50.5889992  75.3629978 118.7050014  51.2659992  74.7299978 118.4650014
  50.9099992  75.7639978 119.5120014  50.7251323  75.3305691 118.7813158
  55.5059992  57.9529978 117.7850014  54.6929992  58.2779978 117.3970014
  55.7389992  57.1919978 117.2520014  55.4262566  57.8946559 117.6599213
  41.3339992  75.9349978 116.5490014  40.6139992  76.3749978 116.0980014
  40.9689992  75.6839978 117.3980014  41.1859796  75.9613824 116.6019329
  43.8009992  75.5349978 115.5790014  42.9369992  75.6069978 115.9830014
  43.7459992  76.0819978 114.7950014  43.6751942  75.6187849 115.5284000
  48.5119992  75.4229978 114.7540014  48.0549992  75.9519978 114.1000014
  48.6749992  76.0259978 115.4800014  48.4714476  75.5769140 114.7625499
  50.8399992  74.3009978 115.6990014  49.9349992  74.4659978 115.4340014
  51.2679992  75.1539978 115.6340014  50.7740700  74.4389529 115.6539520
  53.4439992  75.8709978 115.9940014  53.2619992  76.7869978 115.7840014
  53.6209992  75.4599978 115.1480014  53.4429907  75.9409741 115.8507883
  40.7489992  74.5579978 113.4590014  40.7309992  74.1319978 114.3170014
  41.5539992  74.2389978 113.0510014  40.8553221  74.4567233 113.5210225
  42.8899992  73.2679978 112.1140014  42.6709992  72.3509978 112.2840014
  43.7139992  73.4079978 112.5800014  42.9714702  73.1615511 112.2002527
  45.4269992  73.7379978 112.9630014  45.6399992  72.8499978 112.6760014
  45.4919992  73.7029978 113.9180014  45.4649075  73.6118307 113.0527373
  48.9359992  59.4019978 112.1070014  48.2619992  58.7719978 112.3630014
  49.4999992  58.9179978 111.5040014  48.9200384  59.2503708 112.0605020
  54.0789992  57.5089978 112.2200014  54.6819992  58.0569978 111.7180014
  53.2089992  57.8279978 111.9800014  54.0439190  57.6271041 112.1188679
  55.8059992  58.6479978 110.5530014  56.4169992  58.1339978 110.0270014
  56.1879992  59.5249978 110.5770014  55.9414475  58.6961323 110.4841208
  41.2629992  58.0359978 109.9290014  40.4859992  57.8009978 109.4220014
  41.7929992  57.2389978 109.9380014  41.2283451  57.8961268 109.8608627
  45.8419992  57.9619978 109.7430014  46.7159992  58.3509978 109.7130014
  45.7059992  57.7469978 110.6650014  45.9433207  57.9861923 109.8636509
  51.3989992  57.9919978 111.3920014  51.4749992  58.0879978 110.4430014
  51.1239992  57.0849978 111.5210014  51.3722042  57.8824241 111.2793811
  52.7519992  58.0179978 107.0840014  52.0489992  58.6329978 106.8750014
  52.3069992  57.1809978 107.2160014  52.5956292  57.9890085 107.0732439
  39.9999992  73.7819978 106.6310014  39.3149992  73.7439978 105.9630014
  40.0039992  74.6949978 106.9190014  39.9068174  73.9001998 106.5785310
  41.9599992  59.7499978 104.1750014  42.4509992  59.1199978 103.6480014
  42.5829992  60.0459978 104.8390014  42.1115062  59.7036770 104.1925438
  46.9859992  60.0429978 106.6330014  47.1639992  59.3959978 107.3150014
  46.9319992  60.8769978 107.1000014  47.0031025  60.0670504 106.7896433
  55.5729992  74.5539978 107.7070014  55.3789992  73.8059978 107.1420014
  55.5339992  75.3119978 107.1240014  55.5411645  74.5540786 107.5508148
  41.2199992  58.5499978 119.4470014  40.8539992  57.7839978 119.8900014
  42.1329992  58.5789978 119.7340014  41.2933225  58.4491906 119.5463459
  43.1929992  57.8999978 120.9830014  44.0919992  57.6259978 120.7980014
  42.8069992  57.1579978 121.4470014  43.2637237  57.7621508 121.0204710
  41.8179992  74.7019978 103.6560014  41.5499992  74.9879978 104.5290014
  42.5889992  74.1559978 103.8080014  41.8855600  74.6673330 103.7961499
  51.6149992  57.2329978 121.1650014  51.6909992  56.8069978 122.0190014
  52.5079992  57.2459978 120.8220014  51.7462267  57.1763952 121.2355932
  54.7909992  73.3059978 119.8570014  54.0089992  73.1189978 119.3380014
  54.7189992  74.2349978 120.0750014  54.6740863  73.4060221 119.8153574
  69.1969992  67.1919978 109.8880014  69.2859992  68.1359978 109.7560014
  68.5589992  66.9169978 109.2300014  69.1229062  67.2839812 109.7809641
  68.1299992  66.4469978 113.3070014  68.0919992  65.8009978 114.0120014
  67.8079992  65.9799978 112.5360014  68.0812679  66.2954276 113.2992921
  60.4979992  66.0609978 114.9000014  60.5399992  65.4359978 115.6230014
  61.2009992  66.6849978 115.0820014  60.5987345  66.0597873 115.0235274
  71.8359992  69.3859978 111.6090014  71.3949992  68.6659978 112.0590014
  71.8229992  70.1069978 112.2380014  71.7737960  69.3848329 111.7557567
  58.0319992  64.1709978 108.8280014  57.5839992  65.0169978 108.8090014
  57.4709992  63.5919978 108.3120014  57.8949603  64.2083674 108.7556720
  58.7419992  66.3329978 110.9540014  58.9559992  65.5629978 111.4810014
  59.4799992  66.4229978 110.3500014  58.8709652  66.2398012 110.9445212
  68.9479992  74.4899978 111.8210014  69.5669992  73.8139978 111.5470014
  68.7389992  74.2719978 112.7290014  69.0046232  74.3677938 111.9062517
  66.5189992  68.8789978 113.7130014  66.8229992  68.1929978 113.1190014
  67.2409992  68.9979978 114.3310014  66.6581152  68.8012189 113.7152123
  75.1819992  60.4809978 114.5740014  75.2319992  61.0909978 115.3100014
  75.6079992  60.9419978 113.8510014  75.2464108  60.6267709 114.5770112
  69.6599992  63.2729978 114.0410014  69.8029992  62.3269978 114.0610014
  69.5539992  63.4799978 113.1120014  69.6652509  63.1714813 113.9182231
  62.8149992  61.3749978 111.3130014  62.8579992  62.2349978 110.8950014
  62.3569992  60.8229978 110.6790014  62.7589815  61.4180621 111.1701197
  59.4349992  63.7719978 112.0750014  60.0889992  63.2219978 112.5070014
  59.4589992  63.4979978 111.1580014  59.5277199  63.6597167 112.0101668
  64.5919992  65.3219978 111.2900014  65.2079992  64.7949978 111.8000014
  64.0049992  64.6819978 110.8870014  64.5969239  65.1634117 111.3052952
  75.5739992  61.9589978 116.8100014  74.8849992  62.6169978 116.7140014
  75.5889992  61.7609978 117.7460014  75.4816740  62.0223243 116.9234630
  61.6249992  60.2929978 115.3870014  61.4059992  60.8229978 114.6210014
  60.9569992  60.5189978 116.0340014  61.5047001  60.3961154 115.3696064
  68.9939992  69.7929978 108.9310014  68.6989992  69.4699978 108.0800014
  68.6699992  70.6929978 108.9720014  68.9097983  69.8704026 108.8199771
  64.1939992  67.9679978 115.6750014  63.4539992  68.5669978 115.7780014
  64.9079992  68.5219978 115.3590014  64.1893288  68.1247356 115.6463805
  72.3009992  60.7969978 111.6940014  72.0859992  60.0309978 112.2270014
  72.9569992  61.2689978 112.2070014  72.3602673  60.7560728 111.8361990
  61.2189992  62.1849978 113.3390014  61.8329992  62.8179978 113.7130014
  61.7309992  61.7129978 112.6830014  61.3722277  62.2077352 113.3014279
  62.6019992  69.9329978 116.4620014  62.5959992  70.8119978 116.0840014
  61.7479992  69.8489978 116.8870014  62.4857925  70.0419535 116.4676887
  58.7229992  69.6039978 107.2440014  58.4509992  69.8329978 106.3550014
  58.7679992  70.4409978 107.7040014  58.6918709  69.7486058 107.1846107
  72.3479992  71.2249978 113.9560014  71.4059992  71.2839978 114.1180014
  72.6239992  72.1309978 113.8190014  72.2565865  71.3555288 113.9596192
  72.6479992  59.5119978 115.3740014  71.9119992  60.1219978 115.3360014
  73.3319992  59.9269978 114.8470014  72.6395506  59.6516400 115.2976051
  65.6519992  57.5979978 112.8400014  65.5339992  56.6499978 112.7850014
  64.7969992  57.9309978 113.1130014  65.5202679  57.5131926 112.8693720
  70.5999992  73.0059978 110.5820014  71.0249992  72.2989978 110.0970014
  70.9169992  73.8079978 110.1650014  70.7010266  73.0175190 110.4592479
  71.7599992  70.9069978 109.0900014  71.5019992  70.2169978 108.4790014
  71.8309992  70.4639978 109.9360014  71.7342837  70.7527106 109.1206912
  73.4459992  69.4739978 117.5680014  73.5849992  68.8819978 116.8280014
  73.6129992  70.3469978 117.2110014  73.4875562  69.5109896 117.4186283
  67.9179992  66.4359978 107.3400014  67.2069992  66.9709978 106.9880014
  68.6089992  66.4909978 106.6800014  67.9140751  66.5166777 107.2025858
  67.9719992  64.8929978 104.3790014  68.6729992  64.9159978 105.0300014
  68.2739992  64.2649978 103.7230014  68.1088282  64.8112339 104.3794496
  75.2869992  65.8139978 115.6340014  74.6349992  66.5079978 115.7230014
  75.7529992  66.0239978 114.8240014  75.2605937  65.9375019 115.5367533
  71.2209992  64.8199978 117.3600014  71.3009992  65.5829978 117.9310014
  70.6199992  65.0989978 116.6690014  71.1507245  64.9622630 117.3448424
  62.9689992  67.2759978 110.1740014  62.6389992  66.9049978 109.3560014
  63.5579992  66.6049978 110.5210014  63.0033970  67.1346063 110.1089404
  64.3359992  70.7039978 112.8560014  64.2409992  70.1249978 112.0990014
  65.0649992  70.3329978 113.3520014  64.4216161  70.5745891 112.8195209
  63.3359992  66.0439978 113.8080014  63.9009992  66.1659978 113.0450014
  63.6549992  66.6819978 114.4470014  63.4563977  66.1468851 113.7899424
  69.6449992  71.5479978 114.5420014  69.4049992  72.2099978 115.1900014
  69.4469992  70.7129978 114.9670014  69.5853826  71.5258115 114.6881566
  64.2159992  70.4439978 118.5250014  63.9049992  71.2259978 118.9800014
  63.5659992  70.2909978 117.8390014  64.0855538  70.5304087 118.4945898
  61.1359992  66.6419978 117.7540014  61.2059992  67.2929978 118.4520014
  60.2449992  66.7449978 117.4190014  61.0251802  66.7449757 117.8042249
  67.9209992  72.5439978 109.4120014  68.3949992  72.8399978 110.1900014
  67.3579992  73.2829978 109.1790014  67.9097361  72.6842721 109.4868611
  62.4549992  72.5149978 119.2880014  62.4629992  72.3789978 118.3410014
  61.5389992  72.3979978 119.5400014  62.3322528  72.4805463 119.1923243
  61.9599992  66.3449978 107.7640014  61.6679992  67.1129978 107.2730014
  61.2849992  65.6859978 107.6010014  61.8288497  66.3609745 107.6748260
  58.0529992  68.7079978 116.5790014  57.5509992  68.6799978 115.7640014
  58.0579992  67.8029978 116.8880014  57.9850416  68.5817368 116.5093766
  57.8029992  71.4889978 113.4630014  58.7489992  71.3439978 113.4440014
  57.6899992  72.2729978 114.0000014  57.9173578  71.5751697 113.5330317
  76.0009992  72.1549978 119.1450014  75.9509992  71.1989978 119.1080014
  75.1739992  72.4219978 119.5460014  75.8823987  72.0605174 119.1941446
  66.9789992  71.7289978 118.0210014  67.0669992  72.5549978 118.4960014
  66.1159992  71.3989978 118.2700014  66.8743357  71.7975468 118.1197653
  70.1639992  74.5809978 107.5790014  69.2289992  74.6809978 107.7570014
  70.4439992  73.8709978 108.1570014  70.0738173  74.4987239 107.6814998
  73.1529992  63.6479978 119.6250014  72.7449992  64.1279978 118.9050014
  73.1929992  62.7419978 119.3170014  73.1025476  63.5913160 119.4848247
  60.3019992  70.0319978 117.6220014  60.5179992  69.6699978 118.4810014
  59.4459992  69.6569978 117.4120014  60.2159354  69.9317906 117.7112160
  62.9199992  58.5019978 113.6170014  62.0589992  58.4149978 113.2100014
  62.8979992  59.3579978 114.0450014  62.7990411  58.6057884 113.6190857
  67.5829992  58.2239978 116.9920014  68.0029992  57.8089978 117.7450014
  66.6499992  58.0449978 117.1090014  67.5143736  58.1429910 117.1108968
  70.9099992  61.9789978 117.8450014  70.3959992  61.8539978 118.6430014
  70.7539992  62.8919978 117.6010014  70.8186967  62.0852123 117.9210937
  63.0109992  63.4669978 114.7120014  62.3699992  63.4269978 115.4210014
  63.0489992  64.3939978 114.4750014  62.9283670  63.5867795 114.7770550
  63.0079992  63.6879978 109.6240014  62.1159992  63.3479978 109.5660014
  63.4589992  63.3109978 108.8690014  62.9466815  63.5903762 109.5139203
  67.6459992  64.2799978 119.9290014  67.0829992  63.5749978 120.2500014
  68.4719992  64.1589978 120.3970014  67.6806674  64.1672165 120.0361751
  69.5489992  63.5499978 111.2550014  69.3529992  64.1559978 110.5400014
  69.7299992  62.7169978 110.8210014  69.5466584  63.5202513 111.0984212
  60.7609992  63.7879978 116.5790014  60.7229992  64.1879978 117.4480014
  60.2709992  62.9709978 116.6700014  60.6895621  63.7322510 116.7101377
  57.3699992  60.9039978 110.4300014  57.9999992  60.8749978 111.1490014
  57.8189992  60.4789978 109.7000014  57.5170692  60.8425316 110.4297771
  58.6439992  61.6499978 105.8540014  59.1179992  62.2409978 105.2690014
  57.9259992  62.1799978 106.2010014  58.6118640  61.8025511 105.8207969
  68.8129992  65.1879978 115.9270014  69.1359992  64.5569978 115.2840014
  68.3719992  64.6539978 116.5870014  68.7975789  65.0293522 115.9282232
  65.5899992  61.1159978 110.7110014  64.6789992  61.1729978 110.9990014
  66.0949992  61.0559978 111.5210014  65.5335387  61.1156870 110.8600646
  60.4179992  62.7449978 109.5370014  59.5289992  62.8439978 109.1970014
  60.7149992  61.9029978 109.1910014  60.3364177  62.6447687 109.4436940
  69.9949992  60.3509978 113.9750014  69.3179992  60.4819978 114.6390014
  69.5099992  60.1959978 113.1650014  69.8367265  60.3479659 113.9563397
  73.2829992  76.0219978 120.2520014  73.4819992  76.4459978 119.4170014
  73.9379992  76.3659978 120.8590014  73.3988501  76.1266091 120.2197097
  60.8809992  68.4959978 119.8600014  61.6129992  68.7509978 120.4210014
  60.0999992  68.7009978 120.3750014  60.8757684  68.5586468 120.0064782
  66.9099992  63.9029978 112.5980014  67.4739992  63.3569978 112.0510014
  66.7619992  63.3819978 113.3860014  66.9672575  63.7576552 112.6296987
  61.9119992  60.0399978 109.0160014  61.5949992  59.1369978 108.9810014
  62.6929992  60.0419978 108.4630014  61.9742307  59.9166951 108.9364314
  65.5359992  62.2919978 115.0120014  64.7009992  62.7459978 115.1220014
  66.0599992  62.5679978 115.7640014  65.4925070  62.3914666 115.1287152
  66.0809992  68.5049978 106.6960014  65.3359992  67.9969978 106.3740014
  65.9459992  68.5539978 107.6430014  65.9609047  68.4421596 106.7798845
  73.2309992  67.6379978 115.4830014  73.8719992  68.0939978 114.9390014
  72.3999992  67.7509978 115.0210014  73.2065171  67.7157502 115.3460237
  69.9779992  61.3189978 104.8960014  69.0399992  61.4299978 104.7440014
  70.2759992  62.1749978 105.2020014  69.8896402  61.4500621 104.9165571
  67.5999992  68.6889978 117.9330014  67.2539992  68.3069978 118.7400014
  67.3999992  69.6219978 118.0050014  67.5256523  68.7629095 118.0530735
  61.2049992  67.7999978 112.4660014  61.9499992  67.7969978 111.8650014
  61.2829992  66.9759978 112.9480014  61.3174158  67.6882916 112.4489153
  58.2129992  66.2599978 117.7810014  58.4359992  65.8419978 118.6130014
  57.6109992  65.6479978 117.3580014  58.1621260  66.1199933 117.8377320
  65.2299992  65.7769978 119.9940014  64.9339992  65.6119978 119.0990014
  66.1609992  65.5569978 119.9830014  65.3153982  65.7246578 119.8700045
  69.8499992  71.1509978 117.8840014  68.9499992  71.3339978 117.6160014
  69.8839992  71.4099978 118.8050014  69.7312909  71.2110815 117.9717852
  75.5449992  69.1959978 119.0880014  74.6939992  69.4339978 118.7210014
  76.1349992  69.1789978 118.3350014  75.5082408  69.2262966 118.9358879
  71.0369992  66.9889978 113.7370014  70.1089992  66.7579978 113.7100014
  71.4879992  66.2119978 113.4070014  70.9708165  66.8522774 113.6886790
  59.3349992  66.1799978 104.4580014  59.9509992  66.8069978 104.8370014
  58.4729992  66.4959978 104.7290014  59.3028195  66.3085798 104.5465386
  65.0079992  68.9809978 109.4470014  64.7669992  69.9059978 109.4880014
  64.2669992  68.5219978 109.8430014  64.8748390  69.0456403 109.5061404
  69.0659992  69.2289978 115.4620014  68.6409992  69.0009978 116.2890014
  69.6469992  68.4899978 115.2800014  69.0863930  69.0979843 115.5504732
  71.7249992  73.7809978 117.9320014  71.1229992  73.2249978 117.4360014
  72.0059992  74.4479978 117.3060014  71.6806829  73.7951613 117.7795443
  75.7729992  74.6369978 104.7370014  76.5169992  75.2229978 104.5970014
  75.0789992  75.2059978 105.0710014  75.7810201  74.7940603 104.7629772
  59.8469992  61.0139978 117.3390014  58.9549992  61.3519978 117.2720014
  59.7489992  60.1579978 117.7570014  59.7114965  60.9446499 117.3863044
  59.4989992  72.8179978 115.7740014  59.7159992  71.8859978 115.7430014
  59.7449992  73.0929978 116.6570014  59.5619809  72.7275686 115.8891691
  64.2969992  70.8399978 105.4400014  64.4439992  70.3199978 106.2300014
  64.2939992  71.7469978 105.7460014  64.3167300  70.8913964 105.5895895
  60.7499992  68.0919978 105.9500014  60.0639992  68.4449978 106.5170014
  61.2729992  68.8549978 105.7040014  60.7269033  68.2433746 105.9942661
  68.5819992  60.7549978 116.2290014  69.2809992  60.8289978 116.8790014
  68.2009992  59.8899978 116.3830014  68.6262097  60.6482389 116.3387997
  69.3659992  60.4069978 107.3260014  69.5859992  60.8779978 106.5230014
  69.9249992  60.8009978 107.9960014  69.4716730  60.5247432 107.3065906
  66.5659992  62.1349978 108.1610014  67.3779992  62.6389978 108.2070014
  66.3219992  61.9899978 109.0750014  66.6441467  62.1843749 108.2908575
  67.1019992  63.1209978 117.3460014  67.2209992  63.6949978 118.1030014
  67.7569992  62.4329978 117.4600014  67.2069146  63.1065574 117.4651314
  67.4499992  59.2159978 109.0990014  67.1029992  59.8329978 109.7440014
  68.1089992  59.7169978 108.6180014  67.4915949  59.3681099 109.1222271
  73.3059992  61.0279978 118.1810014  72.3899992  61.2899978 118.0930014
  73.6419992  61.0249978 117.2840014  73.2259789  61.0634626 118.0477847
  71.9089992  64.7779978 112.2760014  71.1109992  64.3629978 111.9480014
  72.3539992  64.0879978 112.7670014  71.8599684  64.6278628 112.2975227
  61.3659992  70.7059978 104.8470014  61.9579992  71.4059978 105.1230014
  61.8249992  70.2729978 104.1270014  61.5090791  70.7432908 104.7874607
  59.6819992  63.3709978 103.9630014  59.6369992  64.3099978 104.1410014
  58.7939992  63.1349978 103.6930014  59.5558555  63.4676874 103.9508939
  72.9949992  74.0339978 113.8990014  72.8389992  74.7129978 113.2420014
  73.9279992  74.1059978 114.1020014  73.0997387  74.1366390 113.8365342
  60.4899992  58.1519978 112.6360014  60.2609992  58.2109978 111.7080014
  60.0479992  57.3609978 112.9420014  60.3988801  58.0530540 112.5504729
  59.4209992  72.0929978 108.7960014  58.5879992  72.5649978 108.8240014
  59.9659992  72.6029978 108.1980014  59.3807590  72.2265897 108.7189194
  58.7089992  74.7049978 120.1260014  59.2489992  74.4889978 120.8860014
  58.2279992  73.8999978 119.9370014  58.7178613  74.5665400 120.2044782
  63.3059992  73.6249978 121.7470014  64.0739992  73.1659978 122.0880014
  63.2849992  73.3989978 120.8170014  63.4082135  73.5316668 121.6679491
  69.8829992  72.0049978 120.4760014  69.5319992  71.1479978 120.7190014
  70.6089992  72.1469978 121.0830014  69.9331590  71.9070178 120.5912907
  58.6159992  68.5159978 121.0810014  58.7599992  67.6139978 120.7940014
  57.8439992  68.8019978 120.5930014  58.5313303  68.4313243 120.9757908
  62.9569992  68.8589978 103.2130014  63.0219992  68.0649978 103.7440014
  63.6099992  68.7409978 102.5230014  63.0541754  68.7343337 103.1924259
  65.2709992  68.4849978 120.5130014  64.9429992  68.7559978 119.6560014
  65.4229992  67.5439978 120.4260014  65.2466030  68.3948973 120.3837945
  71.0059992  68.4009978 117.8970014  71.7509992  68.9899978 117.7770014
  70.2489992  68.9829978 117.9600014  71.0055205  68.5601997 117.8891119
  59.4489992  65.7159978 120.5010014  59.8569992  64.8589978 120.3800014
  59.1879992  65.7299978 121.4220014  59.4696016  65.6005119 120.6089192
  64.1069992  66.8319978 105.5190014  63.6469992  66.3479978 106.2050014
  64.3619992  66.1629978 104.8830014  64.0785038  66.6753689 105.5269447
  63.3959992  64.7249978 117.8750014  62.7769992  65.3989978 118.1550014
  63.7399992  65.0459978 117.0420014  63.3577605  64.8607198 117.8006707
  68.4149992  67.1959978 121.1520014  69.3689992  67.2799978 121.1250014
  68.2549992  66.4839978 121.7720014  68.5237182  67.1112842 121.2320733
  63.7349992  62.0799978 118.9570014  63.8849992  61.3509978 118.3550014
  63.7369992  62.8569978 118.3980014  63.7557967  62.0852708 118.7990541
  64.1479992  60.4489978 116.4500014  64.6829992  60.9009978 115.7980014
  63.2949992  60.3409978 116.0270014  64.1060374  60.4962665 116.3036710
  65.7289992  65.8889978 116.6890014  66.4799992  65.7329978 116.1160014
  65.3899992  66.7409978 116.4140014  65.7859587  65.9828138 116.5734078
  70.1449992  63.7039978 121.7180014  70.3369992  62.7729978 121.6060014
  71.0029992  64.1289978 121.7080014  70.2872269  63.6339928 121.7013192
  71.4619992  66.4929978 119.7950014  71.1799992  67.2019978 119.2180014
  72.4039992  66.4199978 119.6440014  71.5507656  66.5803128 119.6954809
  62.2139992  63.2779978 120.8690014  61.4459992  62.7449978 120.6590014
  62.8919992  62.9679978 120.2690014  62.2006973  63.1632375 120.7591796
  64.9529992  57.9059978 116.8810014  64.8549992  58.8519978 116.7760014
  64.2109992  57.5329978 116.4060014  64.8391913  57.9851813 116.8023539
  66.2169992  62.2269978 120.4450014  65.9819992  62.0079978 121.3470014
  65.4339992  62.0199978 119.9350014  66.0789219  62.1690066 120.4995852
  68.9329992  61.3549978 119.5210014  67.9849992  61.3869978 119.6530014
  69.2449992  60.7289978 120.1740014  68.8455190  61.2747262 119.6273564
  70.5669992  59.9889978 121.5260014  70.4699992  59.0369978 121.5200014
  70.2449992  60.2569978 122.3860014  70.5101761  59.8949744 121.6414936
  60.3939992  61.1979978 120.5730014  60.6059992  60.4919978 119.9630014
  60.2829992  60.7609978 121.4170014  60.4080269  61.0421921 120.6035873
  65.1749992  57.1999978 119.5530014  65.8869992  56.5599978 119.5390014
  65.0739992  57.4659978 118.6390014  65.2587261  57.1484190 119.4275537
  65.5289992  58.8819978 121.6060014  65.3969992  58.4069978 120.7860014
  64.9289992  59.6269978 121.5510014  65.4299070  58.9175789 121.4863251
  58.6429992  70.4019978 104.2650014  59.5569992  70.4809978 104.5390014
  58.6509992  69.7149978 103.5990014  58.7691143  70.3199085 104.2124274
  57.2919992  75.7949978 109.3430014  56.6449992  75.3329978 108.8100014
  57.6469992  75.1229978 109.9250014  57.2514506  75.6409503 109.3487341
  58.1619992  73.8749978 111.1470014  57.8279992  72.9949978 111.3190014
  58.3849992  74.2209978 112.0120014  58.1463721  73.8011938 111.2874168
  75.7109992  74.6849978 114.1280014  75.6889992  74.8699978 115.0670014
  76.4009992  75.2529978 113.7870014  75.8013439  74.7871887 114.2104791
  75.2739992  74.2519978 117.0500014  74.7869992  73.5169978 116.6790014
  75.8229992  73.8579978 117.7280014  75.2815247  74.0981057 117.0908461
  73.7249992  70.0419978 121.6880014  72.8589992  69.9369978 122.0820014
  74.1009992  70.7999978 122.1340014  73.6573401  70.1301708 121.8022620
  75.4199992  66.3519978 109.0260014  74.6939992  65.8719978 109.4230014
  76.0019992  66.5569978 109.7580014  75.3991635  66.3139166 109.1793748
  75.1789992  69.1369978 113.9730014  76.0129992  68.7589978 113.6930014
  75.2909992  70.0799978 113.8540014  75.3082522  69.2127742 113.9186020
  73.6659992  72.0149978 116.2800014  73.0179992  72.3399978 116.9060014
  73.1479992  71.5739978 115.6060014  73.5074168  71.9998523 116.2745307
  58.2419992  66.9509978 113.5990014  58.4269992  66.8689978 112.6630014
  59.0919992  66.8269978 114.0230014  58.3820916  66.9230393 113.5282896
  74.0629992  66.8429978 119.2270014  74.6459992  66.1079978 119.4190014
  74.6269992  67.6149978 119.2740014  74.2189781  66.8468145 119.2596164
  75.5599992  64.7459978 119.9120014  74.6969992  64.3669978 119.7460014
  76.1639992  64.0069978 119.8380014  75.5235944  64.5942978 119.8792984
  73.5289992  63.0369978 113.4870014  74.4619992  63.2489978 113.4530014
  73.2939992  63.1379978 114.4090014  73.6248308  63.0796503 113.6070214
  73.5589992  63.7739978 116.2630014  72.7159992  64.0419978 116.6290014
  74.0009992  64.5959978 116.0520014  73.5034138  63.9218273 116.2845518
  57.8399992  62.2209978 119.7400014  58.7589992  62.0989978 119.9760014
  57.3899992  61.4709978 120.1290014  57.9051148  62.1028751 119.8249408
  75.8419992  57.7539978 121.6160014  76.1909992  57.0999978 121.0110014
  75.9889992  58.5909978 121.1770014  75.9097355  57.7776067 121.4736564
  59.0609992  60.5339978 112.6310014  59.5059992  59.7419978 112.9330014
  59.5269992  61.2499978 113.0620014  59.1849059  60.5224474 112.7306079
  57.3649992  63.5329978 113.7000014  57.8569992  63.3119978 112.9090014
  57.7269992  64.3729978 113.9810014  57.4812923  63.6163468 113.6297407
  75.3609992  59.8629978 119.9660014  74.4439992  60.1339978 119.9300014
  75.4839992  59.3279978 119.1820014  75.2520828  59.8277700 119.8550785
  57.6789992  59.7909978 107.7540014  56.7539992  59.9989978 107.6250014
  58.1329992  60.2749978 107.0650014  57.6136374  59.8849949 107.6430957
  72.4489992  74.7749978 109.7000014  73.1019992  74.4269978 109.0920014
  72.9599992  75.2629978 110.3460014  72.6072777  74.7933815 109.7042047
  57.6419992  58.5289978 116.0990014  56.9769992  58.2829978 116.7420014
  57.1989992  59.1509978 115.5210014  57.4910937  58.5793614 116.1089379
  59.8339992  71.7039978 120.2430014  59.0129992  71.8789978 119.7830014
  59.5819992  71.6309978 121.1640014  59.6876173  71.7180794 120.3044972
  62.7879992  72.6779978 116.5020014  62.3639992  73.4879978 116.2190014
  63.6929992  72.7639978 116.2000014  62.8522433  72.8003331 116.4225377
  67.0999992  74.0769978 119.4610014  67.2839992  73.7439978 120.3390014
  67.9459992  74.3869978 119.1390014  67.2396484  74.0732979 119.5377617
  69.4449992  75.3629978 118.7050014  70.1219992  74.7299978 118.4650014
  69.7659992  75.7639978 119.5120014  69.5811323  75.3305691 118.7813158
  74.3619992  57.9529978 117.7850014  73.5489992  58.2779978 117.3970014
  74.5949992  57.1919978 117.2520014  74.2822566  57.8946559 117.6599213
  60.1899992  75.9349978 116.5490014  59.4699992  76.3749978 116.0980014
  59.8249992  75.6839978 117.3980014  60.0419796  75.9613824 116.6019329
  69.6959992  74.3009978 115.6990014  68.7909992  74.4659978 115.4340014
  70.1239992  75.1539978 115.6340014  69.6300700  74.4389529 115.6539520
  72.2999992  75.8709978 115.9940014  72.1179992  76.7869978 115.7840014
  72.4769992  75.4599978 115.1480014  72.2989907  75.9409741 115.8507883
  59.6049992  74.5579978 113.4590014  59.5869992  74.1319978 114.3170014
  60.4099992  74.2389978 113.0510014  59.7113221  74.4567233 113.5210225
  67.7919992  59.4019978 112.1070014  67.1179992  58.7719978 112.3630014
  68.3559992  58.9179978 111.5040014  67.7760384  59.2503708 112.0605020
  72.9349992  57.5089978 112.2200014  73.5379992  58.0569978 111.7180014
  72.0649992  57.8279978 111.9800014  72.8999190  57.6271041 112.1188679
  60.1189992  58.0359978 109.9290014  59.3419992  57.8009978 109.4220014
  60.6489992  57.2389978 109.9380014  60.0843451  57.8961268 109.8608627
  58.9549992  57.8339978 105.7330014  59.3939992  58.4449978 105.1410014
  58.3209992  58.3719978 106.2070014  58.9293859  57.9904064 105.7160305
  64.6979992  57.9619978 109.7430014  65.5719992  58.3509978 109.7130014
  64.5619992  57.7469978 110.6650014  64.7993207  57.9861923 109.8636509
  70.2549992  57.9919978 111.3920014  70.3309992  58.0879978 110.4430014
  69.9799992  57.0849978 111.5210014  70.2282042  57.8824241 111.2793811
  58.8559992  73.7819978 106.6310014  58.1709992  73.7439978 105.9630014
  58.8599992  74.6949978 106.9190014  58.7628174  73.9001998 106.5785310
  65.8419992  60.0429978 106.6330014  66.0199992  59.3959978 107.3150014
  65.7879992  60.8769978 107.1000014  65.8591025  60.0670504 106.7896433
  74.4289992  74.5539978 107.7070014  74.2349992  73.8059978 107.1420014
  74.3899992  75.3119978 107.1240014  74.3971645  74.5540786 107.5508148
  60.0759992  58.5499978 119.4470014  59.7099992  57.7839978 119.8900014
  60.9889992  58.5789978 119.7340014  60.1493225  58.4491906 119.5463459
  62.0489992  57.8999978 120.9830014  62.9479992  57.6259978 120.7980014
  61.6629992  57.1579978 121.4470014  62.1197237  57.7621508 121.0204710
  70.4709992  57.2329978 121.1650014  70.5469992  56.8069978 122.0190014
  71.3639992  57.2459978 120.8220014  70.6022267  57.1763952 121.2355932
  73.6469992  73.3059978 119.8570014  72.8649992  73.1189978 119.3380014
  73.5749992  74.2349978 120.0750014  73.5300863  73.4060221 119.8153574
  88.0529992  67.1919978 109.8880014  88.1419992  68.1359978 109.7560014
  87.4149992  66.9169978 109.2300014  87.9789062  67.2839812 109.7809641
  86.9859992  66.4469978 113.3070014  86.9479992  65.8009978 114.0120014
  86.6639992  65.9799978 112.5360014  86.9372679  66.2954276 113.2992921
  79.3539992  66.0609978 114.9000014  79.3959992  65.4359978 115.6230014
  80.0569992  66.6849978 115.0820014  79.4547345  66.0597873 115.0235274
  90.6919992  69.3859978 111.6090014  90.2509992  68.6659978 112.0590014
  90.6789992  70.1069978 112.2380014  90.6297960  69.3848329 111.7557567
  80.2779992  70.5109978 113.4350014  79.9079992  69.7089978 113.0650014
  81.2189992  70.3429978 113.4810014  80.3545984  70.3784638 113.3905603
  77.5979992  66.3329978 110.9540014  77.8119992  65.5629978 111.4810014
  78.3359992  66.4229978 110.3500014  77.7269652  66.2398012 110.9445212
  87.8039992  74.4899978 111.8210014  88.4229992  73.8139978 111.5470014
  87.5949992  74.2719978 112.7290014  87.8606232  74.3677938 111.9062517
  85.3749992  68.8789978 113.7130014  85.6789992  68.1929978 113.1190014
  86.0969992  68.9979978 114.3310014  85.5141152  68.8012189 113.7152123
  94.0379992  60.4809978 114.5740014  94.0879992  61.0909978 115.3100014
  94.4639992  60.9419978 113.8510014  94.1024108  60.6267709 114.5770112
  88.5159992  63.2729978 114.0410014  88.6589992  62.3269978 114.0610014
  88.4099992  63.4799978 113.1120014  88.5212509  63.1714813 113.9182231
  81.6709992  61.3749978 111.3130014  81.7139992  62.2349978 110.8950014
  81.2129992  60.8229978 110.6790014  81.6149815  61.4180621 111.1701197
  89.3929992  61.5059978 109.7140014  90.0399992  61.1769978 110.3390014
  89.9029992  62.0229978 109.0910014  89.5504317  61.5309227 109.7152167
  78.2909992  63.7719978 112.0750014  78.9449992  63.2219978 112.5070014
  78.3149992  63.4979978 111.1580014  78.3837199  63.6597167 112.0101668
  83.4479992  65.3219978 111.2900014  84.0639992  64.7949978 111.8000014
  82.8609992  64.6819978 110.8870014  83.4529239  65.1634117 111.3052952
  94.4299992  61.9589978 116.8100014  93.7409992  62.6169978 116.7140014
  94.4449992  61.7609978 117.7460014  94.3376741  62.0223243 116.9234630
  80.4809992  60.2929978 115.3870014  80.2619992  60.8229978 114.6210014
  79.8129992  60.5189978 116.0340014  80.3607001  60.3961154 115.3696064
  87.8499992  69.7929978 108.9310014  87.5549992  69.4699978 108.0800014
  87.5259992  70.6929978 108.9720014  87.7657983  69.8704026 108.8199771
  83.0499992  67.9679978 115.6750014  82.3099992  68.5669978 115.7780014
  83.7639992  68.5219978 115.3590014  83.0453288  68.1247356 115.6463805
  91.1569992  60.7969978 111.6940014  90.9419992  60.0309978 112.2270014
  91.8129992  61.2689978 112.2070014  91.2162673  60.7560728 111.8361990
  80.0749992  62.1849978 113.3390014  80.6889992  62.8179978 113.7130014
  80.5869992  61.7129978 112.6830014  80.2282277  62.2077352 113.3014279
  81.4579992  69.9329978 116.4620014  81.4519992  70.8119978 116.0840014
  80.6039992  69.8489978 116.8870014  81.3417925  70.0419535 116.4676887
  91.2039992  71.2249978 113.9560014  90.2619992  71.2839978 114.1180014
  91.4799992  72.1309978 113.8190014  91.1125865  71.3555288 113.9596192
  91.5039992  59.5119978 115.3740014  90.7679992  60.1219978 115.3360014
  92.1879992  59.9269978 114.8470014  91.4955506  59.6516400 115.2976051
  89.4559992  73.0059978 110.5820014  89.8809992  72.2989978 110.0970014
  89.7729992  73.8079978 110.1650014  89.5570266  73.0175190 110.4592479
  90.6159992  70.9069978 109.0900014  90.3579992  70.2169978 108.4790014
  90.6869992  70.4639978 109.9360014  90.5902837  70.7527106 109.1206912
  92.3019992  69.4739978 117.5680014  92.4409992  68.8819978 116.8280014
  92.4689992  70.3469978 117.2110014  92.3435562  69.5109896 117.4186283
  94.1429992  65.8139978 115.6340014  93.4909992  66.5079978 115.7230014
  94.6089992  66.0239978 114.8240014  94.1165937  65.9375019 115.5367533
  90.1799992  66.6449978 108.2920014  89.4479992  66.8739978 108.8650014
  90.6269992  65.9319978 108.7470014  90.1402753  66.5798972 108.4319715
  90.0769992  64.8199978 117.3600014  90.1569992  65.5829978 117.9310014
  89.4759992  65.0989978 116.6690014  90.0067245  64.9622630 117.3448424
  81.8249992  67.2759978 110.1740014  81.4949992  66.9049978 109.3560014
  82.4139992  66.6049978 110.5210014  81.8593970  67.1346063 110.1089404
  83.1919992  70.7039978 112.8560014  83.0969992  70.1249978 112.0990014
  83.9209992  70.3329978 113.3520014  83.2776161  70.5745891 112.8195209
  82.1919992  66.0439978 113.8080014  82.7569992  66.1659978 113.0450014
  82.5109992  66.6819978 114.4470014  82.3123977  66.1468851 113.7899424
  88.5009992  71.5479978 114.5420014  88.2609992  72.2099978 115.1900014
  88.3029992  70.7129978 114.9670014  88.4413826  71.5258115 114.6881566
  83.0719992  70.4439978 118.5250014  82.7609992  71.2259978 118.9800014
  82.4219992  70.2909978 117.8390014  82.9415538  70.5304087 118.4945898
  79.9919992  66.6419978 117.7540014  80.0619992  67.2929978 118.4520014
  79.1009992  66.7449978 117.4190014  79.8811802  66.7449757 117.8042249
  86.7769992  72.5439978 109.4120014  87.2509992  72.8399978 110.1900014
  86.2139992  73.2829978 109.1790014  86.7657361  72.6842721 109.4868611
  81.3109992  72.5149978 119.2880014  81.3189992  72.3789978 118.3410014
  80.3949992  72.3979978 119.5400014  81.1882528  72.4805463 119.1923243
  76.9089992  68.7079978 116.5790014  76.4069992  68.6799978 115.7640014
  76.9139992  67.8029978 116.8880014  76.8410416  68.5817368 116.5093766
  76.6589992  71.4889978 113.4630014  77.6049992  71.3439978 113.4440014
  76.5459992  72.2729978 114.0000014  76.7733578  71.5751697 113.5330317
  94.8569992  72.1549978 119.1450014  94.8069992  71.1989978 119.1080014
  94.0299992  72.4219978 119.5460014  94.7383987  72.0605174 119.1941446
  85.8349992  71.7289978 118.0210014  85.9229992  72.5549978 118.4960014
  84.9719992  71.3989978 118.2700014  85.7303357  71.7975468 118.1197653
  86.2499992  75.5009978 107.8270014  86.1739992  75.3799978 106.8810014
  86.2819992  76.4499978 107.9460014  86.2439156  75.6127530 107.7135048
  79.9029992  74.2899978 109.6080014  80.0549992  73.9419978 110.4870014
  79.0519992  73.9329978 109.3530014  79.8087899  74.1941738 109.6937340
  89.3509992  74.6549978 104.8290014  89.7259992  73.9109978 104.3590014
  89.3559992  74.3849978 105.7480014  89.4030024  74.5166950 104.8887987
  89.0199992  74.5809978 107.5790014  88.0849992  74.6809978 107.7570014
  89.2999992  73.8709978 108.1570014  88.9298173  74.4987239 107.6814998
  92.0089992  63.6479978 119.6250014  91.6009992  64.1279978 118.9050014
  92.0489992  62.7419978 119.3170014  91.9585476  63.5913160 119.4848247
  79.1579992  70.0319978 117.6220014  79.3739992  69.6699978 118.4810014
  78.3019992  69.6569978 117.4120014  79.0719354  69.9317906 117.7112160
  81.7759992  58.5019978 113.6170014  80.9149992  58.4149978 113.2100014
  81.7539992  59.3579978 114.0450014  81.6550411  58.6057884 113.6190857
  86.4389992  58.2239978 116.9920014  86.8589992  57.8089978 117.7450014
  85.5059992  58.0449978 117.1090014  86.3703736  58.1429910 117.1108968
  89.7659992  61.9789978 117.8450014  89.2519992  61.8539978 118.6430014
  89.6099992  62.8919978 117.6010014  89.6746967  62.0852123 117.9210937
  81.8669992  63.4669978 114.7120014  81.2259992  63.4269978 115.4210014
  81.9049992  64.3939978 114.4750014  81.7843670  63.5867795 114.7770550
  81.8639992  63.6879978 109.6240014  80.9719992  63.3479978 109.5660014
  82.3149992  63.3109978 108.8690014  81.8026815  63.5903762 109.5139203
  86.5019992  64.2799978 119.9290014  85.9389992  63.5749978 120.2500014
  87.3279992  64.1589978 120.3970014  86.5366674  64.1672165 120.0361751
  88.4049992  63.5499978 111.2550014  88.2089992  64.1559978 110.5400014
  88.5859992  62.7169978 110.8210014  88.4026584  63.5202513 111.0984212
  79.6169992  63.7879978 116.5790014  79.5789992  64.1879978 117.4480014
  79.1269992  62.9709978 116.6700014  79.5455621  63.7322510 116.7101377
  87.6689992  65.1879978 115.9270014  87.9919992  64.5569978 115.2840014
  87.2279992  64.6539978 116.5870014  87.6535789  65.0293522 115.9282232
  79.2739992  62.7449978 109.5370014  78.3849992  62.8439978 109.1970014
  79.5709992  61.9029978 109.1910014  79.1924177  62.6447687 109.4436940
  88.8509992  60.3509978 113.9750014  88.1739992  60.4819978 114.6390014
  88.3659992  60.1959978 113.1650014  88.6927265  60.3479659 113.9563397
  92.1389992  76.0219978 120.2520014  92.3379992  76.4459978 119.4170014
  92.7939992  76.3659978 120.8590014  92.2548501  76.1266091 120.2197097
  79.7369992  68.4959978 119.8600014  80.4689992  68.7509978 120.4210014
  78.9559992  68.7009978 120.3750014  79.7317684  68.5586468 120.0064782
  85.7659992  63.9029978 112.5980014  86.3299992  63.3569978 112.0510014
  85.6179992  63.3819978 113.3860014  85.8232575  63.7576552 112.6296987
  84.3919992  62.2919978 115.0120014  83.5569992  62.7459978 115.1220014
  84.9159992  62.5679978 115.7640014  84.3485070  62.3914665 115.1287152
  92.0869992  67.6379978 115.4830014  92.7279992  68.0939978 114.9390014
  91.2559992  67.7509978 115.0210014  92.0625171  67.7157502 115.3460237
  86.4559992  68.6889978 117.9330014  86.1099992  68.3069978 118.7400014
  86.2559992  69.6219978 118.0050014  86.3816523  68.7629095 118.0530735
  80.0609992  67.7999978 112.4660014  80.8059992  67.7969978 111.8650014
  80.1389992  66.9759978 112.9480014  80.1734158  67.6882916 112.4489153
  87.0619992  69.9629978 105.7220014  86.7669992  70.7899978 106.1030014
  86.3589992  69.3439978 105.9180014  86.9265471  69.9925227 105.8006698
  77.0689992  66.2599978 117.7810014  77.2919992  65.8419978 118.6130014
  76.4669992  65.6479978 117.3580014  77.0181260  66.1199933 117.8377320
  84.0859992  65.7769978 119.9940014  83.7899992  65.6119978 119.0990014
  85.0169992  65.5569978 119.9830014  84.1713982  65.7246578 119.8700045
  88.7059992  71.1509978 117.8840014  87.8059992  71.3339978 117.6160014
  88.7399992  71.4099978 118.8050014  88.5872909  71.2110815 117.9717852
  94.4379992  63.3949978 106.2510014  93.8829992  62.9989978 105.5790014
  94.5379992  64.3059978 105.9730014  94.3755888  63.4638990 106.1215206
  94.4009992  69.1959978 119.0880014  93.5499992  69.4339978 118.7210014
  94.9909992  69.1789978 118.3350014  94.3642408  69.2262966 118.9358879
  92.7329992  72.1809978 106.7160014  92.3599992  71.3559978 107.0250014
  93.0099992  71.9979978 105.8190014  92.7193871  72.0432441 106.6369677
  89.8929992  66.9889978 113.7370014  88.9649992  66.7579978 113.7100014
  90.3439992  66.2119978 113.4070014  89.8268165  66.8522774 113.6886790
  82.4359992  71.3179978 109.8700014  82.9639992  72.0909978 109.6700014
  81.5559992  71.5419978 109.5690014  82.3893176  71.4543161 109.8018409
  78.1909992  66.1799978 104.4580014  78.8069992  66.8069978 104.8370014
  77.3289992  66.4959978 104.7290014  78.1588195  66.3085798 104.5465386
  83.8639992  68.9809978 109.4470014  83.6229992  69.9059978 109.4880014
  83.1229992  68.5219978 109.8430014  83.7308390  69.0456403 109.5061404
  84.3779992  73.1299978 115.7620014  84.7409992  73.9839978 115.5280014
  84.9099992  72.8379978 116.5020014  84.4996090  73.2074058 115.8300219
  82.5469992  74.0019978 108.9920014  81.5969992  74.1079978 109.0430014
  82.8989992  74.8229978 109.3370014  82.4645480  74.1274438 109.0455999
  87.9219992  69.2289978 115.4620014  87.4969992  69.0009978 116.2890014
  88.5029992  68.4899978 115.2800014  87.9423930  69.0979843 115.5504731
  90.5809992  73.7809978 117.9320014  89.9789992  73.2249978 117.4360014
  90.8619992  74.4479978 117.3060014  90.5366829  73.7951613 117.7795443
  94.6289992  74.6369978 104.7370014  95.3729992  75.2229978 104.5970014
  93.9349992  75.2059978 105.0710014  94.6370201  74.7940603 104.7629772
  78.7029992  61.0139978 117.3390014  77.8109992  61.3519978 117.2720014
  78.6049992  60.1579978 117.7570014  78.5674965  60.9446499 117.3863044
  90.9909992  68.8299978 106.7630014  90.7139992  68.1019978 107.3190014
  91.9189992  68.9489978 106.9680014  91.0784499  68.7464213 106.8668044
  78.3549992  72.8179978 115.7740014  78.5719992  71.8859978 115.7430014
  78.6009992  73.0929978 116.6570014  78.4179809  72.7275686 115.8891691
  83.1529992  70.8399978 105.4400014  83.2999992  70.3199978 106.2300014
  83.1499992  71.7469978 105.7460014  83.1727300  70.8913964 105.5895895
  87.4379992  60.7549978 116.2290014  88.1369992  60.8289978 116.8790014
  87.0569992  59.8899978 116.3830014  87.4822097  60.6482389 116.3387997
  85.8909992  72.5369978 106.1890014  85.0739992  73.0339978 106.2410014
  86.4199992  73.0129978 105.5490014  85.8508508  72.6692543 106.1096035
  85.9579992  63.1209978 117.3460014  86.0769992  63.6949978 118.1030014
  86.6129992  62.4329978 117.4600014  86.0629146  63.1065574 117.4651313
  83.2289992  73.5809978 106.1710014  83.3899992  74.3809978 105.6700014
  83.0319992  73.8879978 107.0560014  83.2243919  73.7319129 106.2221006
  92.1619992  61.0279978 118.1810014  91.2459992  61.2899978 118.0930014
  92.4979992  61.0249978 117.2840014  92.0819789  61.0634626 118.0477847
  90.7649992  64.7779978 112.2760014  89.9669992  64.3629978 111.9480014
  91.2099992  64.0879978 112.7670014  90.7159684  64.6278628 112.2975227
  91.8509992  74.0339978 113.8990014  91.6949992  74.7129978 113.2420014
  92.7839992  74.1059978 114.1020014  91.9557387  74.1366390 113.8365342
  79.3459992  58.1519978 112.6360014  79.1169992  58.2109978 111.7080014
  78.9039992  57.3609978 112.9420014  79.2548801  58.0530540 112.5504729
  78.2769992  72.0929978 108.7960014  77.4439992  72.5649978 108.8240014
  78.8219992  72.6029978 108.1980014  78.2367590  72.2265897 108.7189194
  77.5649992  74.7049978 120.1260014  78.1049992  74.4889978 120.8860014
  77.0839992  73.8999978 119.9370014  77.5738613  74.5665400 120.2044782
  82.1619992  73.6249978 121.7470014  82.9299992  73.1659978 122.0880014
  82.1409992  73.3989978 120.8170014  82.2642135  73.5316668 121.6679491
  86.2539992  73.1329978 103.1220014  85.6099992  72.5019978 103.4430014
  87.0159992  72.6019978 102.8900014  86.2688058  72.9747902 103.1346038
  88.7389992  72.0049978 120.4760014  88.3879992  71.1479978 120.7190014
  89.4649992  72.1469978 121.0830014  88.7891590  71.9070178 120.5912907
  77.4719992  68.5159978 121.0810014  77.6159992  67.6139978 120.7940014
  76.6999992  68.8019978 120.5930014  77.3873303  68.4313243 120.9757908
  84.1269992  68.4849978 120.5130014  83.7989992  68.7559978 119.6560014
  84.2789992  67.5439978 120.4260014  84.1026030  68.3948973 120.3837945
  89.8619992  68.4009978 117.8970014  90.6069992  68.9899978 117.7770014
  89.1049992  68.9829978 117.9600014  89.8615205  68.5601997 117.8891119
  78.3049992  65.7159978 120.5010014  78.7129992  64.8589978 120.3800014
  78.0439992  65.7299978 121.4220014  78.3256016  65.6005119 120.6089192
  82.2519992  64.7249978 117.8750014  81.6329992  65.3989978 118.1550014
  82.5959992  65.0459978 117.0420014  82.2137605  64.8607198 117.8006707
  87.2709992  67.1959978 121.1520014  88.2249992  67.2799978 121.1250014
  87.1109992  66.4839978 121.7720014  87.3797182  67.1112842 121.2320733
  82.5909992  62.0799978 118.9570014  82.7409992  61.3509978 118.3550014
  82.5929992  62.8569978 118.3980014  82.6117967  62.0852708 118.7990541
  83.0039992  60.4489978 116.4500014  83.5389992  60.9009978 115.7980014
  82.1509992  60.3409978 116.0270014  82.9620374  60.4962665 116.3036710
  84.5849992  65.8889978 116.6890014  85.3359992  65.7329978 116.1160014
  84.2459992  66.7409978 116.4140014  84.6419587  65.9828138 116.5734078
  89.0009992  63.7039978 121.7180014  89.1929992  62.7729978 121.6060014
  89.8589992  64.1289978 121.7080014  89.1432269  63.6339928 121.7013192
  90.3179992  66.4929978 119.7950014  90.0359992  67.2019978 119.2180014
  91.2599992  66.4199978 119.6440014  90.4067656  66.5803128 119.6954809
  81.0699992  63.2779978 120.8690014  80.3019992  62.7449978 120.6590014
  81.7479992  62.9679978 120.2690014  81.0566973  63.1632375 120.7591796
  83.8089992  57.9059978 116.8810014  83.7109992  58.8519978 116.7760014
  83.0669992  57.5329978 116.4060014  83.6951913  57.9851813 116.8023539
  85.0729992  62.2269978 120.4450014  84.8379992  62.0079978 121.3470014
  84.2899992  62.0199978 119.9350014  84.9349219  62.1690066 120.4995852
  87.7889992  61.3549978 119.5210014  86.8409992  61.3869978 119.6530014
  88.1009992  60.7289978 120.1740014  87.7015190  61.2747262 119.6273563
  89.4229992  59.9889978 121.5260014  89.3259992  59.0369978 121.5200014
  89.1009992  60.2569978 122.3860014  89.3661761  59.8949744 121.6414936
  79.2499992  61.1979978 120.5730014  79.4619992  60.4919978 119.9630014
  79.1389992  60.7609978 121.4170014  79.2640269  61.0421921 120.6035873
  84.0309992  57.1999978 119.5530014  84.7429992  56.5599978 119.5390014
  83.9299992  57.4659978 118.6390014  84.1147261  57.1484190 119.4275537
  84.3849992  58.8819978 121.6060014  84.2529992  58.4069978 120.7860014
  83.7849992  59.6269978 121.5510014  84.2859070  58.9175789 121.4863251
  83.9309992  75.7649978 104.7830014  84.8639992  75.9229978 104.9260014
  83.6669992  76.4409978 104.1580014  84.0229308  75.8779104 104.7181396
  76.1479992  75.7949978 109.3430014  75.5009992  75.3329978 108.8100014
  76.5029992  75.1229978 109.9250014  76.1074506  75.6409503 109.3487341
  77.0179992  73.8749978 111.1470014  76.6839992  72.9949978 111.3190014
  77.2409992  74.2209978 112.0120014  77.0023721  73.8011938 111.2874168
  94.5669992  74.6849978 114.1280014  94.5449992  74.8699978 115.0670014
  95.2569992  75.2529978 113.7870014  94.6573439  74.7871887 114.2104791
  94.1299992  74.2519978 117.0500014  93.6429992  73.5169978 116.6790014
  94.6789992  73.8579978 117.7280014  94.1375247  74.0981057 117.0908461
  92.5809992  70.0419978 121.6880014  91.7149992  69.9369978 122.0820014
  92.9569992  70.7999978 122.1340014  92.5133401  70.1301708 121.8022620
  93.8819992  68.2979978 107.2020014  94.7319992  68.7189978 107.3290014
  93.8869992  67.5579978 107.8090014  93.9991143  68.2556094 107.3014750
  94.2759992  66.3519978 109.0260014  93.5499992  65.8719978 109.4230014
  94.8579992  66.5569978 109.7580014  94.2551635  66.3139166 109.1793748
  94.0349992  69.1369978 113.9730014  94.8689992  68.7589978 113.6930014
  94.1469992  70.0799978 113.8540014  94.1642522  69.2127742 113.9186020
  92.5219992  72.0149978 116.2800014  91.8739992  72.3399978 116.9060014
  92.0039992  71.5739978 115.6060014  92.3634168  71.9998523 116.2745307
  94.5449992  66.2529978 105.4170014  94.0229992  66.6089978 104.6980014
  94.5119992  66.9279978 106.0950014  94.4690699  66.3929848 105.4102129
  92.0629992  64.8729978 109.5890014  91.9129992  63.9279978 109.5680014
  91.7089992  65.1539978 110.4320014  91.9945527  64.7815605 109.7001859
  77.0979992  66.9509978 113.5990014  77.2829992  66.8689978 112.6630014
  77.9479992  66.8269978 114.0230014  77.2380916  66.9230393 113.5282896
  92.9189992  66.8429978 119.2270014  93.5019992  66.1079978 119.4190014
  93.4829992  67.6149978 119.2740014  93.0749781  66.8468145 119.2596164
  94.4159992  64.7459978 119.9120014  93.5529992  64.3669978 119.7460014
  95.0199992  64.0069978 119.8380014  94.3795944  64.5942978 119.8792984
  91.7739992  62.4549978 108.0510014  92.0529992  61.5479978 108.1750014
  92.5329992  62.8889978 107.6620014  91.9148619  62.3894502 108.0153795
  92.3849992  63.0369978 113.4870014  93.3179992  63.2489978 113.4530014
  92.1499992  63.1379978 114.4090014  92.4808308  63.0796503 113.6070214
  92.4149992  63.7739978 116.2630014  91.5719992  64.0419978 116.6290014
  92.8569992  64.5959978 116.0520014  92.3594138  63.9218273 116.2845518
  76.6959992  62.2209978 119.7400014  77.6149992  62.0989978 119.9760014
  76.2459992  61.4709978 120.1290014  76.7611148  62.1028751 119.8249408
  94.6979992  57.7539978 121.6160014  95.0469992  57.0999978 121.0110014
  94.8449992  58.5909978 121.1770014  94.7657355  57.7776067 121.4736564
  92.3869992  59.7179978 108.0990014  92.5689992  59.2689978 108.9250014
  91.7869992  59.1339978 107.6360014  92.3307529  59.5776131 108.1493619
  77.9169992  60.5339978 112.6310014  78.3619992  59.7419978 112.9330014
  78.3829992  61.2499978 113.0620014  78.0409059  60.5224474 112.7306079
  76.2209992  63.5329978 113.7000014  76.7129992  63.3119978 112.9090014
  76.5829992  64.3729978 113.9810014  76.3372923  63.6163468 113.6297407
  94.2169992  59.8629978 119.9660014  93.2999992  60.1339978 119.9300014
  94.3399992  59.3279978 119.1820014  94.1080828  59.8277700 119.8550785
  91.3049992  74.7749978 109.7000014  91.9579992  74.4269978 109.0920014
  91.8159992  75.2629978 110.3460014  91.4632777  74.7933815 109.7042047
  76.4979992  58.5289978 116.0990014  75.8329992  58.2829978 116.7420014
  76.0549992  59.1509978 115.5210014  76.3470937  58.5793614 116.1089379
  78.6899992  71.7039978 120.2430014  77.8689992  71.8789978 119.7830014
  78.4379992  71.6309978 121.1640014  78.5436173  71.7180794 120.3044972
  81.6439992  72.6779978 116.5020014  81.2199992  73.4879978 116.2190014
  82.5489992  72.7639978 116.2000014  81.7082433  72.8003331 116.4225377
  85.9559992  74.0769978 119.4610014  86.1399992  73.7439978 120.3390014
  86.8019992  74.3869978 119.1390014  86.0956484  74.0732979 119.5377617
  88.3009992  75.3629978 118.7050014  88.9779992  74.7299978 118.4650014
  88.6219992  75.7639978 119.5120014  88.4371323  75.3305691 118.7813158
  93.2179992  57.9529978 117.7850014  92.4049992  58.2779978 117.3970014
  93.4509992  57.1919978 117.2520014  93.1382566  57.8946559 117.6599213
  79.0459992  75.9349978 116.5490014  78.3259992  76.3749978 116.0980014
  78.6809992  75.6839978 117.3980014  78.8979796  75.9613824 116.6019329
  81.5129992  75.5349978 115.5790014  80.6489992  75.6069978 115.9830014
  81.4579992  76.0819978 114.7950014  81.3871942  75.6187849 115.5284000
  86.2239992  75.4229978 114.7540014  85.7669992  75.9519978 114.1000014
  86.3869992  76.0259978 115.4800014  86.1834476  75.5769140 114.7625499
  88.5519992  74.3009978 115.6990014  87.6469992  74.4659978 115.4340014
  88.9799992  75.1539978 115.6340014  88.4860700  74.4389529 115.6539520
  91.1559992  75.8709978 115.9940014  90.9739992  76.7869978 115.7840014
  91.3329992  75.4599978 115.1480014  91.1549907  75.9409741 115.8507883
  78.4609992  74.5579978 113.4590014  78.4429992  74.1319978 114.3170014
  79.2659992  74.2389978 113.0510014  78.5673221  74.4567233 113.5210225
  80.6019992  73.2679978 112.1140014  80.3829992  72.3509978 112.2840014
  81.4259992  73.4079978 112.5800014  80.6834702  73.1615511 112.2002527
  83.1389992  73.7379978 112.9630014  83.3519992  72.8499978 112.6760014
  83.2039992  73.7029978 113.9180014  83.1769075  73.6118307 113.0527373
  91.7909992  57.5089978 112.2200014  92.3939992  58.0569978 111.7180014
  90.9209992  57.8279978 111.9800014  91.7559190  57.6271041 112.1188679
  93.5179992  58.6479978 110.5530014  94.1289992  58.1339978 110.0270014
  93.8999992  59.5249978 110.5770014  93.6534475  58.6961323 110.4841208
  78.9749992  58.0359978 109.9290014  78.1979992  57.8009978 109.4220014
  79.5049992  57.2389978 109.9380014  78.9403451  57.8961268 109.8608627
  77.7119992  73.7819978 106.6310014  77.0269992  73.7439978 105.9630014
  77.7159992  74.6949978 106.9190014  77.6188174  73.9001998 106.5785310
  86.5759992  74.9909978 105.0280014  87.4419992  75.3579978 104.8500014
  86.3299992  74.5519978 104.2140014  86.6612097  74.9818525 104.8936019
  93.2849992  74.5539978 107.7070014  93.0909992  73.8059978 107.1420014
  93.2459992  75.3119978 107.1240014  93.2531645  74.5540786 107.5508148
  78.9319992  58.5499978 119.4470014  78.5659992  57.7839978 119.8900014
  79.8449992  58.5789978 119.7340014  79.0053225  58.4491906 119.5463459
  80.9049992  57.8999978 120.9830014  81.8039992  57.6259978 120.7980014
  80.5189992  57.1579978 121.4470014  80.9757237  57.7621508 121.0204710
  79.5299992  74.7019978 103.6560014  79.2619992  74.9879978 104.5290014
  80.3009992  74.1559978 103.8080014  79.5975600  74.6673330 103.7961499
  89.3269992  57.2329978 121.1650014  89.4029992  56.8069978 122.0190014
  90.2199992  57.2459978 120.8220014  89.4582267  57.1763952 121.2355932
  92.5029992  73.3059978 119.8570014  91.7209992  73.1189978 119.3380014
  92.4309992  74.2349978 120.0750014  92.3860863  73.4060221 119.8153574
 106.9089992  67.1919978 109.8880014 106.9979992  68.1359978 109.7560014
 106.2709992  66.9169978 109.2300014 106.8349062  67.2839812 109.7809641
 105.8419992  66.4469978 113.3070014 105.8039992  65.8009978 114.0120014
 105.5199992  65.9799978 112.5360014 105.7932679  66.2954276 113.2992921
  98.2099992  66.0609978 114.9000014  98.2519992  65.4359978 115.6230014
  98.9129992  66.6849978 115.0820014  98.3107345  66.0597873 115.0235273
 109.5479992  69.3859978 111.6090014 109.1069992  68.6659978 112.0590014
 109.5349992  70.1069978 112.2380014 109.4857960  69.3848329 111.7557567
  99.1339992  70.5109978 113.4350014  98.7639992  69.7089978 113.0650014
 100.0749992  70.3429978 113.4810014  99.2105984  70.3784638 113.3905603
  95.7439992  64.1709978 108.8280014  95.2959992  65.0169978 108.8090014
  95.1829992  63.5919978 108.3120014  95.6069603  64.2083674 108.7556720
  96.4539992  66.3329978 110.9540014  96.6679992  65.5629978 111.4810014
  97.1919992  66.4229978 110.3500014  96.5829652  66.2398012 110.9445212
 106.6599992  74.4899978 111.8210014 107.2789992  73.8139978 111.5470014
 106.4509992  74.2719978 112.7290014 106.7166232  74.3677938 111.9062517
 104.2309992  68.8789978 113.7130014 104.5349992  68.1929978 113.1190014
 104.9529992  68.9979978 114.3310014 104.3701152  68.8012189 113.7152124
 112.8939992  60.4809978 114.5740014 112.9439992  61.0909978 115.3100014
 113.3199992  60.9419978 113.8510014 112.9584108  60.6267709 114.5770112
 107.3719992  63.2729978 114.0410014 107.5149992  62.3269978 114.0610014
 107.2659992  63.4799978 113.1120014 107.3772509  63.1714813 113.9182231
 100.5269992  61.3749978 111.3130014 100.5699992  62.2349978 110.8950014
 100.0689992  60.8229978 110.6790014 100.4709815  61.4180621 111.1701197
 108.2489992  61.5059978 109.7140014 108.8959992  61.1769978 110.3390014
 108.7589992  62.0229978 109.0910014 108.4064317  61.5309227 109.7152167
  97.1469992  63.7719978 112.0750014  97.8009992  63.2219978 112.5070014
  97.1709992  63.4979978 111.1580014  97.2397199  63.6597167 112.0101668
 102.3039992  65.3219978 111.2900014 102.9199992  64.7949978 111.8000014
 101.7169992  64.6819978 110.8870014 102.3089239  65.1634117 111.3052952
 113.2859992  61.9589978 116.8100014 112.5969992  62.6169978 116.7140014
 113.3009992  61.7609978 117.7460014 113.1936741  62.0223243 116.9234630
  99.3369992  60.2929978 115.3870014  99.1179992  60.8229978 114.6210014
  98.6689992  60.5189978 116.0340014  99.2167001  60.3961154 115.3696064
 106.7059992  69.7929978 108.9310014 106.4109992  69.4699978 108.0800014
 106.3819992  70.6929978 108.9720014 106.6217983  69.8704026 108.8199771
 101.9059992  67.9679978 115.6750014 101.1659992  68.5669978 115.7780014
 102.6199992  68.5219978 115.3590014 101.9013288  68.1247356 115.6463805
 110.0129992  60.7969978 111.6940014 109.7979992  60.0309978 112.2270014
 110.6689992  61.2689978 112.2070014 110.0722673  60.7560728 111.8361990
  98.9309992  62.1849978 113.3390014  99.5449992  62.8179978 113.7130014
  99.4429992  61.7129978 112.6830014  99.0842277  62.2077352 113.3014279
 100.3139992  69.9329978 116.4620014 100.3079992  70.8119978 116.0840014
  99.4599992  69.8489978 116.8870014 100.1977925  70.0419535 116.4676887
  96.4349992  69.6039978 107.2440014  96.1629992  69.8329978 106.3550014
  96.4799992  70.4409978 107.7040014  96.4038709  69.7486058 107.1846107
 110.0599992  71.2249978 113.9560014 109.1179992  71.2839978 114.1180014
 110.3359992  72.1309978 113.8190014 109.9685865  71.3555288 113.9596192
 110.3599992  59.5119978 115.3740014 109.6239992  60.1219978 115.3360014
 111.0439992  59.9269978 114.8470014 110.3515506  59.6516400 115.2976051
 103.3639992  57.5979978 112.8400014 103.2459992  56.6499978 112.7850014
 102.5089992  57.9309978 113.1130014 103.2322679  57.5131926 112.8693720
 108.3119992  73.0059978 110.5820014 108.7369992  72.2989978 110.0970014
 108.6289992  73.8079978 110.1650014 108.4130266  73.0175190 110.4592479
 109.4719992  70.9069978 109.0900014 109.2139992  70.2169978 108.4790014
 109.5429992  70.4639978 109.9360014 109.4462837  70.7527106 109.1206912
 111.1579992  69.4739978 117.5680014 111.2969992  68.8819978 116.8280014
 111.3249992  70.3469978 117.2110014 111.1995562  69.5109896 117.4186283
 105.6299992  66.4359978 107.3400014 104.9189992  66.9709978 106.9880014
 106.3209992  66.4909978 106.6800014 105.6260751  66.5166777 107.2025858
 105.6839992  64.8929978 104.3790014 106.3849992  64.9159978 105.0300014
 105.9859992  64.2649978 103.7230014 105.8208282  64.8112339 104.3794496
 112.9989992  65.8139978 115.6340014 112.3469992  66.5079978 115.7230014
 113.4649992  66.0239978 114.8240014 112.9725937  65.9375019 115.5367533
 109.0359992  66.6449978 108.2920014 108.3039992  66.8739978 108.8650014
 109.4829992  65.9319978 108.7470014 108.9962753  66.5798972 108.4319715
 108.9329992  64.8199978 117.3600014 109.0129992  65.5829978 117.9310014
 108.3319992  65.0989978 116.6690014 108.8627245  64.9622630 117.3448424
 100.6809992  67.2759978 110.1740014 100.3509992  66.9049978 109.3560014
 101.2699992  66.6049978 110.5210014 100.7153970  67.1346063 110.1089404
 102.0479992  70.7039978 112.8560014 101.9529992  70.1249978 112.0990014
 102.7769992  70.3329978 113.3520014 102.1336161  70.5745891 112.8195209
 101.0479992  66.0439978 113.8080014 101.6129992  66.1659978 113.0450014
 101.3669992  66.6819978 114.4470014 101.1683977  66.1468851 113.7899424
 107.3569992  71.5479978 114.5420014 107.1169992  72.2099978 115.1900014
 107.1589992  70.7129978 114.9670014 107.2973826  71.5258115 114.6881566
 101.9279992  70.4439978 118.5250014 101.6169992  71.2259978 118.9800014
 101.2779992  70.2909978 117.8390014 101.7975538  70.5304087 118.4945898
 107.9069992  65.8079978 105.9770014 108.4859992  65.9579978 106.7240014
 108.3209992  66.2779978 105.2540014 108.0423122  65.8921277 105.9815042
  98.8479992  66.6419978 117.7540014  98.9179992  67.2929978 118.4520014
  97.9569992  66.7449978 117.4190014  98.7371802  66.7449757 117.8042249
 105.6329992  72.5439978 109.4120014 106.1069992  72.8399978 110.1900014
 105.0699992  73.2829978 109.1790014 105.6217361  72.6842721 109.4868611
 100.1669992  72.5149978 119.2880014 100.1749992  72.3789978 118.3410014
  99.2509992  72.3979978 119.5400014 100.0442528  72.4805463 119.1923243
 111.6059992  57.5579978 105.7900014 110.7059992  57.6969978 106.0850014
 111.8579992  58.3889978 105.3880014 111.5168683  57.6894055 105.7760232
  99.6719992  66.3449978 107.7640014  99.3799992  67.1129978 107.2730014
  98.9969992  65.6859978 107.6010014  99.5408497  66.3609745 107.6748260
 112.7949992  71.9239978 104.1660014 112.8679992  72.8629978 104.3370014
 113.6999992  71.6189978 104.1100014 112.9274158  72.0113061 104.1818392
  95.7649992  68.7079978 116.5790014  95.2629992  68.6799978 115.7640014
  95.7699992  67.8029978 116.8880014  95.6970416  68.5817368 116.5093766
  95.5149992  71.4889978 113.4630014  96.4609992  71.3439978 113.4440014
  95.4019992  72.2729978 114.0000014  95.6293578  71.5751697 113.5330317
 113.7129992  72.1549978 119.1450014 113.6629992  71.1989978 119.1080014
 112.8859992  72.4219978 119.5460014 113.5943987  72.0605174 119.1941446
 104.6909992  71.7289978 118.0210014 104.7789992  72.5549978 118.4960014
 103.8279992  71.3989978 118.2700014 104.5863357  71.7975468 118.1197653
 105.1059992  75.5009978 107.8270014 105.0299992  75.3799978 106.8810014
 105.1379992  76.4499978 107.9460014 105.0999156  75.6127530 107.7135048
  98.7589992  74.2899978 109.6080014  98.9109992  73.9419978 110.4870014
  97.9079992  73.9329978 109.3530014  98.6647899  74.1941738 109.6937340
 107.8759992  74.5809978 107.5790014 106.9409992  74.6809978 107.7570014
 108.1559992  73.8709978 108.1570014 107.7858173  74.4987239 107.6814998
 110.8649992  63.6479978 119.6250014 110.4569992  64.1279978 118.9050014
 110.9049992  62.7419978 119.3170014 110.8145476  63.5913160 119.4848247
  98.0139992  70.0319978 117.6220014  98.2299992  69.6699978 118.4810014
  97.1579992  69.6569978 117.4120014  97.9279354  69.9317906 117.7112160
 100.6319992  58.5019978 113.6170014  99.7709992  58.4149978 113.2100014
 100.6099992  59.3579978 114.0450014 100.5110411  58.6057884 113.6190857
 105.2949992  58.2239978 116.9920014 105.7149992  57.8089978 117.7450014
 104.3619992  58.0449978 117.1090014 105.2263736  58.1429910 117.1108968
 108.6219992  61.9789978 117.8450014 108.1079992  61.8539978 118.6430014
 108.4659992  62.8919978 117.6010014 108.5306967  62.0852123 117.9210937
 109.3839992  66.8399978 103.6070014 109.4259992  66.6179978 102.6770014
 110.2329992  67.2389978 103.7970014 109.5045253  66.8635498 103.5053822
 100.7229992  63.4669978 114.7120014 100.0819992  63.4269978 115.4210014
 100.7609992  64.3939978 114.4750014 100.6403670  63.5867795 114.7770550
 100.7199992  63.6879978 109.6240014  99.8279992  63.3479978 109.5660014
 101.1709992  63.3109978 108.8690014 100.6586815  63.5903762 109.5139203
 106.2559992  64.1039978 108.4410014 105.8469992  64.9189978 108.1500014
 106.9759992  63.9639978 107.8270014 106.2974013  64.1966571 108.3180875
 105.3579992  64.2799978 119.9290014 104.7949992  63.5749978 120.2500014
 106.1839992  64.1589978 120.3970014 105.3926674  64.1672165 120.0361751
 107.2609992  63.5499978 111.2550014 107.0649992  64.1559978 110.5400014
 107.4419992  62.7169978 110.8210014 107.2586584  63.5202513 111.0984212
  98.4729992  63.7879978 116.5790014  98.4349992  64.1879978 117.4480014
  97.9829992  62.9709978 116.6700014  98.4015621  63.7322510 116.7101377
  95.0819992  60.9039978 110.4300014  95.7119992  60.8749978 111.1490014
  95.5309992  60.4789978 109.7000014  95.2290692  60.8425316 110.4297771
  96.3559992  61.6499978 105.8540014  96.8299992  62.2409978 105.2690014
  95.6379992  62.1799978 106.2010014  96.3238640  61.8025511 105.8207969
 106.5249992  65.1879978 115.9270014 106.8479992  64.5569978 115.2840014
 106.0839992  64.6539978 116.5870014 106.5095789  65.0293522 115.9282232
 103.3019992  61.1159978 110.7110014 102.3909992  61.1729978 110.9990014
 103.8069992  61.0559978 111.5210014 103.2455387  61.1156870 110.8600646
  98.1299992  62.7449978 109.5370014  97.2409992  62.8439978 109.1970014
  98.4269992  61.9029978 109.1910014  98.0484177  62.6447687 109.4436940
 101.7829992  62.7449978 107.1940014 102.7149992  62.8739978 107.3720014
 101.5679992  63.4139978 106.5440014 101.8814472  62.8530806 107.1304891
 107.7069992  60.3509978 113.9750014 107.0299992  60.4819978 114.6390014
 107.2219992  60.1959978 113.1650014 107.5487265  60.3479659 113.9563397
 110.9949992  76.0219978 120.2520014 111.1939992  76.4459978 119.4170014
 111.6499992  76.3659978 120.8590014 111.1108501  76.1266091 120.2197097
  98.5929992  68.4959978 119.8600014  99.3249992  68.7509978 120.4210014
  97.8119992  68.7009978 120.3750014  98.5877684  68.5586468 120.0064782
 104.6219992  63.9029978 112.5980014 105.1859992  63.3569978 112.0510014
 104.4739992  63.3819978 113.3860014 104.6792575  63.7576552 112.6296987
  99.6239992  60.0399978 109.0160014  99.3069992  59.1369978 108.9810014
 100.4049992  60.0419978 108.4630014  99.6862307  59.9166951 108.9364314
 103.2479992  62.2919978 115.0120014 102.4129992  62.7459978 115.1220014
 103.7719992  62.5679978 115.7640014 103.2045070  62.3914666 115.1287152
 103.7929992  68.5049978 106.6960014 103.0479992  67.9969978 106.3740014
 103.6579992  68.5539978 107.6430014 103.6729047  68.4421596 106.7798845
 110.9429992  67.6379978 115.4830014 111.5839992  68.0939978 114.9390014
 110.1119992  67.7509978 115.0210014 110.9185171  67.7157502 115.3460237
 105.3119992  68.6889978 117.9330014 104.9659992  68.3069978 118.7400014
 105.1119992  69.6219978 118.0050014 105.2376523  68.7629095 118.0530735
 108.4089992  63.1859978 106.5560014 109.3009992  63.0479978 106.8750014
 108.4649992  63.9769978 106.0200014 108.5387107  63.2740526 106.5272091
  98.9169992  67.7999978 112.4660014  99.6619992  67.7969978 111.8650014
  98.9949992  66.9759978 112.9480014  99.0294158  67.6882916 112.4489153
  95.9249992  66.2599978 117.7810014  96.1479992  65.8419978 118.6130014
  95.3229992  65.6479978 117.3580014  95.8741260  66.1199933 117.8377320
 102.9419992  65.7769978 119.9940014 102.6459992  65.6119978 119.0990014
 103.8729992  65.5569978 119.9830014 103.0273982  65.7246578 119.8700045
 107.5619992  71.1509978 117.8840014 106.6619992  71.3339978 117.6160014
 107.5959992  71.4099978 118.8050014 107.4432909  71.2110815 117.9717852
 113.2939992  63.3949978 106.2510014 112.7389992  62.9989978 105.5790014
 113.3939992  64.3059978 105.9730014 113.2315888  63.4638990 106.1215206
 113.2569992  69.1959978 119.0880014 112.4059992  69.4339978 118.7210014
 113.8469992  69.1789978 118.3350014 113.2202408  69.2262966 118.9358879
 111.5889992  72.1809978 106.7160014 111.2159992  71.3559978 107.0250014
 111.8659992  71.9979978 105.8190014 111.5753871  72.0432441 106.6369677
 108.7489992  66.9889978 113.7370014 107.8209992  66.7579978 113.7100014
 109.1999992  66.2119978 113.4070014 108.6828165  66.8522774 113.6886790
 101.2919992  71.3179978 109.8700014 101.8199992  72.0909978 109.6700014
 100.4119992  71.5419978 109.5690014 101.2453176  71.4543161 109.8018409
 102.7199992  68.9809978 109.4470014 102.4789992  69.9059978 109.4880014
 101.9789992  68.5219978 109.8430014 102.5868390  69.0456403 109.5061404
 103.2339992  73.1299978 115.7620014 103.5969992  73.9839978 115.5280014
 103.7659992  72.8379978 116.5020014 103.3556090  73.2074058 115.8300219
 101.4029992  74.0019978 108.9920014 100.4529992  74.1079978 109.0430014
 101.7549992  74.8229978 109.3370014 101.3205480  74.1274438 109.0455999
 106.7779992  69.2289978 115.4620014 106.3529992  69.0009978 116.2890014
 107.3589992  68.4899978 115.2800014 106.7983930  69.0979843 115.5504731
 109.4369992  73.7809978 117.9320014 108.8349992  73.2249978 117.4360014
 109.7179992  74.4479978 117.3060014 109.3926829  73.7951613 117.7795443
  97.5589992  61.0139978 117.3390014  96.6669992  61.3519978 117.2720014
  97.4609992  60.1579978 117.7570014  97.4234965  60.9446499 117.3863044
 109.8469992  68.8299978 106.7630014 109.5699992  68.1019978 107.3190014
 110.7749992  68.9489978 106.9680014 109.9344499  68.7464213 106.8668044
  97.2109992  72.8179978 115.7740014  97.4279992  71.8859978 115.7430014
  97.4569992  73.0929978 116.6570014  97.2739809  72.7275686 115.8891691
 102.0089992  70.8399978 105.4400014 102.1559992  70.3199978 106.2300014
 102.0059992  71.7469978 105.7460014 102.0287300  70.8913964 105.5895895
  98.4619992  68.0919978 105.9500014  97.7759992  68.4449978 106.5170014
  98.9849992  68.8549978 105.7040014  98.4389033  68.2433746 105.9942661
 106.2939992  60.7549978 116.2290014 106.9929992  60.8289978 116.8790014
 105.9129992  59.8899978 116.3830014 106.3382097  60.6482389 116.3387997
 107.0779992  60.4069978 107.3260014 107.2979992  60.8779978 106.5230014
 107.6369992  60.8009978 107.9960014 107.1836730  60.5247432 107.3065906
 104.7469992  72.5369978 106.1890014 103.9299992  73.0339978 106.2410014
 105.2759992  73.0129978 105.5490014 104.7068508  72.6692543 106.1096035
 104.2779992  62.1349978 108.1610014 105.0899992  62.6389978 108.2070014
 104.0339992  61.9899978 109.0750014 104.3561467  62.1843749 108.2908575
 104.8139992  63.1209978 117.3460014 104.9329992  63.6949978 118.1030014
 105.4689992  62.4329978 117.4600014 104.9189146  63.1065574 117.4651314
 105.1619992  59.2159978 109.0990014 104.8149992  59.8329978 109.7440014
 105.8209992  59.7169978 108.6180014 105.2035949  59.3681099 109.1222271
 102.0849992  73.5809978 106.1710014 102.2459992  74.3809978 105.6700014
 101.8879992  73.8879978 107.0560014 102.0803919  73.7319129 106.2221006
 100.8199992  60.2789978 105.7860014 100.7359992  61.1669978 106.1330014
 101.7099992  60.0139978 106.0180014 100.9288163  60.3647179 105.8648596
 111.0179992  61.0279978 118.1810014 110.1019992  61.2899978 118.0930014
 111.3539992  61.0249978 117.2840014 110.9379789  61.0634626 118.0477847
 109.6209992  64.7779978 112.2760014 108.8229992  64.3629978 111.9480014
 110.0659992  64.0879978 112.7670014 109.5719684  64.6278628 112.2975227
  99.0779992  70.7059978 104.8470014  99.6699992  71.4059978 105.1230014
  99.5369992  70.2729978 104.1270014  99.2210791  70.7432908 104.7874607
 110.7069992  74.0339978 113.8990014 110.5509992  74.7129978 113.2420014
 111.6399992  74.1059978 114.1020014 110.8117387  74.1366390 113.8365342
  98.2019992  58.1519978 112.6360014  97.9729992  58.2109978 111.7080014
  97.7599992  57.3609978 112.9420014  98.1108801  58.0530540 112.5504729
  97.1329992  72.0929978 108.7960014  96.2999992  72.5649978 108.8240014
  97.6779992  72.6029978 108.1980014  97.0927590  72.2265897 108.7189194
  96.4209992  74.7049978 120.1260014  96.9609992  74.4889978 120.8860014
  95.9399992  73.8999978 119.9370014  96.4298613  74.5665400 120.2044782
 101.0179992  73.6249978 121.7470014 101.7859992  73.1659978 122.0880014
 100.9969992  73.3989978 120.8170014 101.1202135  73.5316668 121.6679491
 107.5949992  72.0049978 120.4760014 107.2439992  71.1479978 120.7190014
 108.3209992  72.1469978 121.0830014 107.6451590  71.9070178 120.5912907
  96.3279992  68.5159978 121.0810014  96.4719992  67.6139978 120.7940014
  95.5559992  68.8019978 120.5930014  96.2433303  68.4313243 120.9757908
 100.6689992  68.8589978 103.2130014 100.7339992  68.0649978 103.7440014
 101.3219992  68.7409978 102.5230014 100.7661754  68.7343337 103.1924259
 102.9829992  68.4849978 120.5130014 102.6549992  68.7559978 119.6560014
 103.1349992  67.5439978 120.4260014 102.9586030  68.3948973 120.3837945
 108.7179992  68.4009978 117.8970014 109.4629992  68.9899978 117.7770014
 107.9609992  68.9829978 117.9600014 108.7175205  68.5601997 117.8891119
  97.1609992  65.7159978 120.5010014  97.5689992  64.8589978 120.3800014
  96.8999992  65.7299978 121.4220014  97.1816016  65.6005119 120.6089192
 101.8189992  66.8319978 105.5190014 101.3589992  66.3479978 106.2050014
 102.0739992  66.1629978 104.8830014 101.7905038  66.6753689 105.5269447
 101.1079992  64.7249978 117.8750014 100.4889992  65.3989978 118.1550014
 101.4519992  65.0459978 117.0420014 101.0697605  64.8607198 117.8006707
 106.1269992  67.1959978 121.1520014 107.0809992  67.2799978 121.1250014
 105.9669992  66.4839978 121.7720014 106.2357182  67.1112842 121.2320733
 101.4469992  62.0799978 118.9570014 101.5969992  61.3509978 118.3550014
 101.4489992  62.8569978 118.3980014 101.4677967  62.0852708 118.7990541
 101.8599992  60.4489978 116.4500014 102.3949992  60.9009978 115.7980014
 101.0069992  60.3409978 116.0270014 101.8180374  60.4962665 116.3036710
 103.4409992  65.8889978 116.6890014 104.1919992  65.7329978 116.1160014
 103.1019992  66.7409978 116.4140014 103.4979587  65.9828138 116.5734078
 107.8569992  63.7039978 121.7180014 108.0489992  62.7729978 121.6060014
 108.7149992  64.1289978 121.7080014 107.9992269  63.6339928 121.7013192
 109.1739992  66.4929978 119.7950014 108.8919992  67.2019978 119.2180014
 110.1159992  66.4199978 119.6440014 109.2627656  66.5803128 119.6954809
  99.9259992  63.2779978 120.8690014  99.1579992  62.7449978 120.6590014
 100.6039992  62.9679978 120.2690014  99.9126973  63.1632375 120.7591796
 102.6649992  57.9059978 116.8810014 102.5669992  58.8519978 116.7760014
 101.9229992  57.5329978 116.4060014 102.5511913  57.9851813 116.8023539
 103.9289992  62.2269978 120.4450014 103.6939992  62.0079978 121.3470014
 103.1459992  62.0199978 119.9350014 103.7909219  62.1690066 120.4995852
 106.6449992  61.3549978 119.5210014 105.6969992  61.3869978 119.6530014
 106.9569992  60.7289978 120.1740014 106.5575190  61.2747262 119.6273564
 108.2789992  59.9889978 121.5260014 108.1819992  59.0369978 121.5200014
 107.9569992  60.2569978 122.3860014 108.2221761  59.8949744 121.6414936
  98.1059992  61.1979978 120.5730014  98.3179992  60.4919978 119.9630014
  97.9949992  60.7609978 121.4170014  98.1200269  61.0421921 120.6035873
 102.8869992  57.1999978 119.5530014 103.5989992  56.5599978 119.5390014
 102.7859992  57.4659978 118.6390014 102.9707261  57.1484190 119.4275537
 103.2409992  58.8819978 121.6060014 103.1089992  58.4069978 120.7860014
 102.6409992  59.6269978 121.5510014 103.1419070  58.9175789 121.4863251
 102.7869992  75.7649978 104.7830014 103.7199992  75.9229978 104.9260014
 102.5229992  76.4409978 104.1580014 102.8789308  75.8779104 104.7181396
  96.3549992  70.4019978 104.2650014  97.2689992  70.4809978 104.5390014
  96.3629992  69.7149978 103.5990014  96.4811143  70.3199085 104.2124274
  95.0039992  75.7949978 109.3430014  94.3569992  75.3329978 108.8100014
  95.3589992  75.1229978 109.9250014  94.9634506  75.6409503 109.3487341
  95.8739992  73.8749978 111.1470014  95.5399992  72.9949978 111.3190014
  96.0969992  74.2209978 112.0120014  95.8583721  73.8011938 111.2874168
 113.4229992  74.6849978 114.1280014 113.4009992  74.8699978 115.0670014
 114.1129992  75.2529978 113.7870014 113.5133439  74.7871887 114.2104791
 112.9859992  74.2519978 117.0500014 112.4989992  73.5169978 116.6790014
 113.5349992  73.8579978 117.7280014 112.9935247  74.0981057 117.0908461
 111.4369992  70.0419978 121.6880014 110.5709992  69.9369978 122.0820014
 111.8129992  70.7999978 122.1340014 111.3693401  70.1301708 121.8022620
 112.7379992  68.2979978 107.2020014 113.5879992  68.7189978 107.3290014
 112.7429992  67.5579978 107.8090014 112.8551143  68.2556094 107.3014750
 113.1319992  66.3519978 109.0260014 112.4059992  65.8719978 109.4230014
 113.7139992  66.5569978 109.7580014 113.1111635  66.3139166 109.1793748
 112.8909992  69.1369978 113.9730014 113.7249992  68.7589978 113.6930014
 113.0029992  70.0799978 113.8540014 113.0202522  69.2127742 113.9186020
 111.3779992  72.0149978 116.2800014 110.7299992  72.3399978 116.9060014
 110.8599992  71.5739978 115.6060014 111.2194168  71.9998523 116.2745307
 110.9189992  64.8729978 109.5890014 110.7689992  63.9279978 109.5680014
 110.5649992  65.1539978 110.4320014 110.8505527  64.7815605 109.7001859
  95.9539992  66.9509978 113.5990014  96.1389992  66.8689978 112.6630014
  96.8039992  66.8269978 114.0230014  96.0940916  66.9230393 113.5282896
 111.7749992  66.8429978 119.2270014 112.3579992  66.1079978 119.4190014
 112.3389992  67.6149978 119.2740014 111.9309781  66.8468145 119.2596164
 113.2719992  64.7459978 119.9120014 112.4089992  64.3669978 119.7460014
 113.8759992  64.0069978 119.8380014 113.2355944  64.5942978 119.8792984
 110.6299992  62.4549978 108.0510014 110.9089992  61.5479978 108.1750014
 111.3889992  62.8889978 107.6620014 110.7708619  62.3894502 108.0153795
 111.2409992  63.0369978 113.4870014 112.1739992  63.2489978 113.4530014
 111.0059992  63.1379978 114.4090014 111.3368308  63.0796503 113.6070214
 111.2709992  63.7739978 116.2630014 110.4279992  64.0419978 116.6290014
 111.7129992  64.5959978 116.0520014 111.2154138  63.9218273 116.2845518
  95.5519992  62.2209978 119.7400014  96.4709992  62.0989978 119.9760014
  95.1019992  61.4709978 120.1290014  95.6171148  62.1028751 119.8249408
 113.5539992  57.7539978 121.6160014 113.9029992  57.0999978 121.0110014
 113.7009992  58.5909978 121.1770014 113.6217355  57.7776067 121.4736564
 111.2429992  59.7179978 108.0990014 111.4249992  59.2689978 108.9250014
 110.6429992  59.1339978 107.6360014 111.1867529  59.5776131 108.1493619
  96.7729992  60.5339978 112.6310014  97.2179992  59.7419978 112.9330014
  97.2389992  61.2499978 113.0620014  96.8969059  60.5224474 112.7306079
  95.0769992  63.5329978 113.7000014  95.5689992  63.3119978 112.9090014
  95.4389992  64.3729978 113.9810014  95.1932923  63.6163468 113.6297407
 113.0729992  59.8629978 119.9660014 112.1559992  60.1339978 119.9300014
 113.1959992  59.3279978 119.1820014 112.9640828  59.8277700 119.8550785
 113.1099992  59.7859978 104.6270014 113.5219992  59.0649978 104.1520014
 113.7909992  60.4549978 104.6860014 113.2585900  59.7777306 104.5699038
  95.3909992  59.7909978 107.7540014  94.4659992  59.9989978 107.6250014
  95.8449992  60.2749978 107.0650014  95.3256374  59.8849949 107.6430957
 110.1609992  74.7749978 109.7000014 110.8139992  74.4269978 109.0920014
 110.6719992  75.2629978 110.3460014 110.3192777  74.7933815 109.7042047
  95.3539992  58.5289978 116.0990014  94.6889992  58.2829978 116.7420014
  94.9109992  59.1509978 115.5210014  95.2030937  58.5793614 116.1089379
  97.5459992  71.7039978 120.2430014  96.7249992  71.8789978 119.7830014
  97.2939992  71.6309978 121.1640014  97.3996173  71.7180794 120.3044972
 100.4999992  72.6779978 116.5020014 100.0759992  73.4879978 116.2190014
 101.4049992  72.7639978 116.2000014 100.5642433  72.8003331 116.4225377
 104.8119992  74.0769978 119.4610014 104.9959992  73.7439978 120.3390014
 105.6579992  74.3869978 119.1390014 104.9516484  74.0732979 119.5377617
 107.1569992  75.3629978 118.7050014 107.8339992  74.7299978 118.4650014
 107.4779992  75.7639978 119.5120014 107.2931323  75.3305691 118.7813158
 112.0739992  57.9529978 117.7850014 111.2609992  58.2779978 117.3970014
 112.3069992  57.1919978 117.2520014 111.9942566  57.8946559 117.6599213
  97.9019992  75.9349978 116.5490014  97.1819992  76.3749978 116.0980014
  97.5369992  75.6839978 117.3980014  97.7539796  75.9613824 116.6019329
 100.3689992  75.5349978 115.5790014  99.5049992  75.6069978 115.9830014
 100.3139992  76.0819978 114.7950014 100.2431942  75.6187849 115.5284000
 105.0799992  75.4229978 114.7540014 104.6229992  75.9519978 114.1000014
 105.2429992  76.0259978 115.4800014 105.0394476  75.5769140 114.7625499
 107.4079992  74.3009978 115.6990014 106.5029992  74.4659978 115.4340014
 107.8359992  75.1539978 115.6340014 107.3420700  74.4389529 115.6539520
 110.0119992  75.8709978 115.9940014 109.8299992  76.7869978 115.7840014
 110.1889992  75.4599978 115.1480014 110.0109907  75.9409741 115.8507883
  97.3169992  74.5579978 113.4590014  97.2989992  74.1319978 114.3170014
  98.1219992  74.2389978 113.0510014  97.4233221  74.4567233 113.5210225
  99.4579992  73.2679978 112.1140014  99.2389992  72.3509978 112.2840014
 100.2819992  73.4079978 112.5800014  99.5394702  73.1615511 112.2002527
 101.9949992  73.7379978 112.9630014 102.2079992  72.8499978 112.6760014
 102.0599992  73.7029978 113.9180014 102.0329075  73.6118307 113.0527373
 105.5039992  59.4019978 112.1070014 104.8299992  58.7719978 112.3630014
 106.0679992  58.9179978 111.5040014 105.4880384  59.2503708 112.0605020
 110.6469992  57.5089978 112.2200014 111.2499992  58.0569978 111.7180014
 109.7769992  57.8279978 111.9800014 110.6119190  57.6271041 112.1188679
 112.3739992  58.6479978 110.5530014 112.9849992  58.1339978 110.0270014
 112.7559992  59.5249978 110.5770014 112.5094475  58.6961323 110.4841208
  97.8309992  58.0359978 109.9290014  97.0539992  57.8009978 109.4220014
  98.3609992  57.2389978 109.9380014  97.7963451  57.8961268 109.8608627
  96.6669992  57.8339978 105.7330014  97.1059992  58.4449978 105.1410014
  96.0329992  58.3719978 106.2070014  96.6413859  57.9904064 105.7160305
 102.4099992  57.9619978 109.7430014 103.2839992  58.3509978 109.7130014
 102.2739992  57.7469978 110.6650014 102.5113207  57.9861923 109.8636509
 107.9669992  57.9919978 111.3920014 108.0429992  58.0879978 110.4430014
 107.6919992  57.0849978 111.5210014 107.9402042  57.8824241 111.2793811
 109.3199992  58.0179978 107.0840014 108.6169992  58.6329978 106.8750014
 108.8749992  57.1809978 107.2160014 109.1636292  57.9890085 107.0732439
  96.5679992  73.7819978 106.6310014  95.8829992  73.7439978 105.9630014
  96.5719992  74.6949978 106.9190014  96.4748174  73.9001998 106.5785310
 103.5539992  60.0429978 106.6330014 103.7319992  59.3959978 107.3150014
 103.4999992  60.8769978 107.1000014 103.5711025  60.0670504 106.7896433
 105.4319992  74.9909978 105.0280014 106.2979992  75.3579978 104.8500014
 105.1859992  74.5519978 104.2140014 105.5172097  74.9818525 104.8936019
 112.1409992  74.5539978 107.7070014 111.9469992  73.8059978 107.1420014
 112.1019992  75.3119978 107.1240014 112.1091645  74.5540786 107.5508148
  97.7879992  58.5499978 119.4470014  97.4219992  57.7839978 119.8900014
  98.7009992  58.5789978 119.7340014  97.8613225  58.4491906 119.5463459
  99.7609992  57.8999978 120.9830014 100.6599992  57.6259978 120.7980014
  99.3749992  57.1579978 121.4470014  99.8317237  57.7621508 121.0204710
 108.1829992  57.2329978 121.1650014 108.2589992  56.8069978 122.0190014
 109.0759992  57.2459978 120.8220014 108.3142267  57.1763952 121.2355932
 111.3589992  73.3059978 119.8570014 110.5769992  73.1189978 119.3380014
 111.2869992  74.2349978 120.0750014 111.2420863  73.4060221 119.8153574
 125.7649992  67.1919978 109.8880014 125.8539992  68.1359978 109.7560014
 125.1269992  66.9169978 109.2300014 125.6909062  67.2839812 109.7809641
 124.6979992  66.4469978 113.3070014 124.6599992  65.8009978 114.0120014
 124.3759992  65.9799978 112.5360014 124.6492679  66.2954276 113.2992921
 117.0659992  66.0609978 114.9000014 117.1079992  65.4359978 115.6230014
 117.7689992  66.6849978 115.0820014 117.1667345  66.0597873 115.0235274
 128.4039992  69.3859978 111.6090014 127.9629992  68.6659978 112.0590014
 128.3909992  70.1069978 112.2380014 128.3417960  69.3848329 111.7557567
 117.9899992  70.5109978 113.4350014 117.6199992  69.7089978 113.0650014
 118.9309992  70.3429978 113.4810014 118.0665984  70.3784638 113.3905603
 114.5999992  64.1709978 108.8280014 114.1519992  65.0169978 108.8090014
 114.0389992  63.5919978 108.3120014 114.4629603  64.2083674 108.7556720
 115.3099992  66.3329978 110.9540014 115.5239992  65.5629978 111.4810014
 116.0479992  66.4229978 110.3500014 115.4389652  66.2398012 110.9445212
 125.5159992  74.4899978 111.8210014 126.1349992  73.8139978 111.5470014
 125.3069992  74.2719978 112.7290014 125.5726232  74.3677938 111.9062517
 123.0869992  68.8789978 113.7130014 123.3909992  68.1929978 113.1190014
 123.8089992  68.9979978 114.3310014 123.2261152  68.8012189 113.7152123
 131.7499992  60.4809978 114.5740014 131.7999992  61.0909978 115.3100014
 132.1759992  60.9419978 113.8510014 131.8144108  60.6267709 114.5770112
 126.2279992  63.2729978 114.0410014 126.3709992  62.3269978 114.0610014
 126.1219992  63.4799978 113.1120014 126.2332509  63.1714813 113.9182231
 119.3829992  61.3749978 111.3130014 119.4259992  62.2349978 110.8950014
 118.9249992  60.8229978 110.6790014 119.3269815  61.4180621 111.1701197
 127.1049992  61.5059978 109.7140014 127.7519992  61.1769978 110.3390014
 127.6149992  62.0229978 109.0910014 127.2624317  61.5309227 109.7152167
 116.0029992  63.7719978 112.0750014 116.6569992  63.2219978 112.5070014
 116.0269992  63.4979978 111.1580014 116.0957199  63.6597167 112.0101668
 121.1599992  65.3219978 111.2900014 121.7759992  64.7949978 111.8000014
 120.5729992  64.6819978 110.8870014 121.1649239  65.1634117 111.3052952
 132.1419992  61.9589978 116.8100014 131.4529992  62.6169978 116.7140014
 132.1569992  61.7609978 117.7460014 132.0496741  62.0223243 116.9234630
 118.1929992  60.2929978 115.3870014 117.9739992  60.8229978 114.6210014
 117.5249992  60.5189978 116.0340014 118.0727001  60.3961154 115.3696064
 125.5619992  69.7929978 108.9310014 125.2669992  69.4699978 108.0800014
 125.2379992  70.6929978 108.9720014 125.4777983  69.8704026 108.8199771
 120.7619992  67.9679978 115.6750014 120.0219992  68.5669978 115.7780014
 121.4759992  68.5219978 115.3590014 120.7573288  68.1247356 115.6463805
 128.8689992  60.7969978 111.6940014 128.6539992  60.0309978 112.2270014
 129.5249992  61.2689978 112.2070014 128.9282673  60.7560728 111.8361990
 117.7869992  62.1849978 113.3390014 118.4009992  62.8179978 113.7130014
 118.2989992  61.7129978 112.6830014 117.9402277  62.2077352 113.3014279
 119.1699992  69.9329978 116.4620014 119.1639992  70.8119978 116.0840014
 118.3159992  69.8489978 116.8870014 119.0537925  70.0419535 116.4676887
 115.2909992  69.6039978 107.2440014 115.0189992  69.8329978 106.3550014
 115.3359992  70.4409978 107.7040014 115.2598709  69.7486058 107.1846107
 128.9159992  71.2249978 113.9560014 127.9739992  71.2839978 114.1180014
 129.1919992  72.1309978 113.8190014 128.8245865  71.3555288 113.9596192
 129.2159992  59.5119978 115.3740014 128.4799992  60.1219978 115.3360014
 129.8999992  59.9269978 114.8470014 129.2075506  59.6516400 115.2976051
 122.2199992  57.5979978 112.8400014 122.1019992  56.6499978 112.7850014
 121.3649992  57.9309978 113.1130014 122.0882679  57.5131926 112.8693720
 127.1679992  73.0059978 110.5820014 127.5929992  72.2989978 110.0970014
 127.4849992  73.8079978 110.1650014 127.2690266  73.0175190 110.4592479
 128.3279992  70.9069978 109.0900014 128.0699992  70.2169978 108.4790014
 128.3989992  70.4639978 109.9360014 128.3022837  70.7527106 109.1206912
 130.0139992  69.4739978 117.5680014 130.1529992  68.8819978 116.8280014
 130.1809992  70.3469978 117.2110014 130.0555562  69.5109896 117.4186283
 124.4859992  66.4359978 107.3400014 123.7749992  66.9709978 106.9880014
 125.1769992  66.4909978 106.6800014 124.4820751  66.5166777 107.2025858
 131.8549992  65.8139978 115.6340014 131.2029992  66.5079978 115.7230014
 132.3209992  66.0239978 114.8240014 131.8285937  65.9375019 115.5367533
 127.8919992  66.6449978 108.2920014 127.1599992  66.8739978 108.8650014
 128.3389992  65.9319978 108.7470014 127.8522753  66.5798972 108.4319715
 127.7889992  64.8199978 117.3600014 127.8689992  65.5829978 117.9310014
 127.1879992  65.0989978 116.6690014 127.7187245  64.9622630 117.3448424
 119.5369992  67.2759978 110.1740014 119.2069992  66.9049978 109.3560014
 120.1259992  66.6049978 110.5210014 119.5713970  67.1346063 110.1089404
 120.9039992  70.7039978 112.8560014 120.8089992  70.1249978 112.0990014
 121.6329992  70.3329978 113.3520014 120.9896161  70.5745891 112.8195209
 119.9039992  66.0439978 113.8080014 120.4689992  66.1659978 113.0450014
 120.2229992  66.6819978 114.4470014 120.0243977  66.1468851 113.7899424
 126.2129992  71.5479978 114.5420014 125.9729992  72.2099978 115.1900014
 126.0149992  70.7129978 114.9670014 126.1533826  71.5258115 114.6881566
 120.7839992  70.4439978 118.5250014 120.4729992  71.2259978 118.9800014
 120.1339992  70.2909978 117.8390014 120.6535538  70.5304087 118.4945898
 126.7629992  65.8079978 105.9770014 127.3419992  65.9579978 106.7240014
 127.1769992  66.2779978 105.2540014 126.8983122  65.8921277 105.9815042
 117.7039992  66.6419978 117.7540014 117.7739992  67.2929978 118.4520014
 116.8129992  66.7449978 117.4190014 117.5931802  66.7449757 117.8042249
 124.4889992  72.5439978 109.4120014 124.9629992  72.8399978 110.1900014
 123.9259992  73.2829978 109.1790014 124.4777361  72.6842721 109.4868611
 119.0229992  72.5149978 119.2880014 119.0309992  72.3789978 118.3410014
 118.1069992  72.3979978 119.5400014 118.9002528  72.4805463 119.1923243
 118.5279992  66.3449978 107.7640014 118.2359992  67.1129978 107.2730014
 117.8529992  65.6859978 107.6010014 118.3968497  66.3609745 107.6748260
 114.6209992  68.7079978 116.5790014 114.1189992  68.6799978 115.7640014
 114.6259992  67.8029978 116.8880014 114.5530416  68.5817368 116.5093766
 114.3709992  71.4889978 113.4630014 115.3169992  71.3439978 113.4440014
 114.2579992  72.2729978 114.0000014 114.4853578  71.5751697 113.5330317
 132.5689992  72.1549978 119.1450014 132.5189992  71.1989978 119.1080014
 131.7419992  72.4219978 119.5460014 132.4503987  72.0605174 119.1941446
 123.5469992  71.7289978 118.0210014 123.6349992  72.5549978 118.4960014
 122.6839992  71.3989978 118.2700014 123.4423357  71.7975468 118.1197653
 123.9619992  75.5009978 107.8270014 123.8859992  75.3799978 106.8810014
 123.9939992  76.4499978 107.9460014 123.9559156  75.6127530 107.7135048
 117.6149992  74.2899978 109.6080014 117.7669992  73.9419978 110.4870014
 116.7639992  73.9329978 109.3530014 117.5207899  74.1941738 109.6937340
 126.7319992  74.5809978 107.5790014 125.7969992  74.6809978 107.7570014
 127.0119992  73.8709978 108.1570014 126.6418173  74.4987239 107.6814998
 129.7209992  63.6479978 119.6250014 129.3129992  64.1279978 118.9050014
 129.7609992  62.7419978 119.3170014 129.6705476  63.5913160 119.4848247
 116.8699992  70.0319978 117.6220014 117.0859992  69.6699978 118.4810014
 116.0139992  69.6569978 117.4120014 116.7839354  69.9317906 117.7112160
 119.4879992  58.5019978 113.6170014 118.6269992  58.4149978 113.2100014
 119.4659992  59.3579978 114.0450014 119.3670411  58.6057884 113.6190857
 124.1509992  58.2239978 116.9920014 124.5709992  57.8089978 117.7450014
 123.2179992  58.0449978 117.1090014 124.0823736  58.1429910 117.1108968
 127.4779992  61.9789978 117.8450014 126.9639992  61.8539978 118.6430014
 127.3219992  62.8919978 117.6010014 127.3866967  62.0852123 117.9210937
 119.5789992  63.4669978 114.7120014 118.9379992  63.4269978 115.4210014
 119.6169992  64.3939978 114.4750014 119.4963670  63.5867795 114.7770550
 119.5759992  63.6879978 109.6240014 118.6839992  63.3479978 109.5660014
 120.0269992  63.3109978 108.8690014 119.5146815  63.5903762 109.5139203
 125.1119992  64.1039978 108.4410014 124.7029992  64.9189978 108.1500014
 125.8319992  63.9639978 107.8270014 125.1534013  64.1966571 108.3180875
 124.2139992  64.2799978 119.9290014 123.6509992  63.5749978 120.2500014
 125.0399992  64.1589978 120.3970014 124.2486674  64.1672165 120.0361751
 126.1169992  63.5499978 111.2550014 125.9209992  64.1559978 110.5400014
 126.2979992  62.7169978 110.8210014 126.1146584  63.5202513 111.0984212
 117.3289992  63.7879978 116.5790014 117.2909992  64.1879978 117.4480014
 116.8389992  62.9709978 116.6700014 117.2575621  63.7322510 116.7101377
 120.6949992  61.1619978 103.3780014 120.2639992  60.7169978 104.1080014
 119.9769992  61.5329978 102.8660014 120.5389363  61.1512968 103.4086211
 113.9379992  60.9039978 110.4300014 114.5679992  60.8749978 111.1490014
 114.3869992  60.4789978 109.7000014 114.0850692  60.8425316 110.4297771
 115.2119992  61.6499978 105.8540014 115.6859992  62.2409978 105.2690014
 114.4939992  62.1799978 106.2010014 115.1798640  61.8025511 105.8207969
 125.3809992  65.1879978 115.9270014 125.7039992  64.5569978 115.2840014
 124.9399992  64.6539978 116.5870014 125.3655789  65.0293522 115.9282232
 122.1579992  61.1159978 110.7110014 121.2469992  61.1729978 110.9990014
 122.6629992  61.0559978 111.5210014 122.1015387  61.1156870 110.8600646
 116.9859992  62.7449978 109.5370014 116.0969992  62.8439978 109.1970014
 117.2829992  61.9029978 109.1910014 116.9044177  62.6447687 109.4436940
 120.6389992  62.7449978 107.1940014 121.5709992  62.8739978 107.3720014
 120.4239992  63.4139978 106.5440014 120.7374472  62.8530806 107.1304891
 126.5629992  60.3509978 113.9750014 125.8859992  60.4819978 114.6390014
 126.0779992  60.1959978 113.1650014 126.4047265  60.3479659 113.9563397
 119.3129992  63.9389978 104.7610014 118.7709992  63.5599978 104.0690014
 120.1469992  64.1339978 104.3320014 119.3515159  63.9135076 104.6084419
 129.8509992  76.0219978 120.2520014 130.0499992  76.4459978 119.4170014
 130.5059992  76.3659978 120.8590014 129.9668501  76.1266091 120.2197097
 117.4489992  68.4959978 119.8600014 118.1809992  68.7509978 120.4210014
 116.6679992  68.7009978 120.3750014 117.4437684  68.5586468 120.0064782
 123.4779992  63.9029978 112.5980014 124.0419992  63.3569978 112.0510014
 123.3299992  63.3819978 113.3860014 123.5352575  63.7576552 112.6296987
 118.4799992  60.0399978 109.0160014 118.1629992  59.1369978 108.9810014
 119.2609992  60.0419978 108.4630014 118.5422307  59.9166951 108.9364314
 122.1039992  62.2919978 115.0120014 121.2689992  62.7459978 115.1220014
 122.6279992  62.5679978 115.7640014 122.0605070  62.3914666 115.1287152
 122.6489992  68.5049978 106.6960014 121.9039992  67.9969978 106.3740014
 122.5139992  68.5539978 107.6430014 122.5289047  68.4421596 106.7798845
 129.7989992  67.6379978 115.4830014 130.4399992  68.0939978 114.9390014
 128.9679992  67.7509978 115.0210014 129.7745171  67.7157502 115.3460237
 124.1679992  68.6889978 117.9330014 123.8219992  68.3069978 118.7400014
 123.9679992  69.6219978 118.0050014 124.0936523  68.7629095 118.0530735
 127.2649992  63.1859978 106.5560014 128.1569992  63.0479978 106.8750014
 127.3209992  63.9769978 106.0200014 127.3947107  63.2740526 106.5272091
 117.7729992  67.7999978 112.4660014 118.5179992  67.7969978 111.8650014
 117.8509992  66.9759978 112.9480014 117.8854158  67.6882916 112.4489153
 124.7739992  69.9629978 105.7220014 124.4789992  70.7899978 106.1030014
 124.0709992  69.3439978 105.9180014 124.6385471  69.9925227 105.8006698
 114.7809992  66.2599978 117.7810014 115.0039992  65.8419978 118.6130014
 114.1789992  65.6479978 117.3580014 114.7301260  66.1199933 117.8377320
 121.7979992  65.7769978 119.9940014 121.5019992  65.6119978 119.0990014
 122.7289992  65.5569978 119.9830014 121.8833982  65.7246578 119.8700045
 126.4179992  71.1509978 117.8840014 125.5179992  71.3339978 117.6160014
 126.4519992  71.4099978 118.8050014 126.2992909  71.2110815 117.9717852
 132.1129992  69.1959978 119.0880014 131.2619992  69.4339978 118.7210014
 132.7029992  69.1789978 118.3350014 132.0762408  69.2262966 118.9358879
 127.6049992  66.9889978 113.7370014 126.6769992  66.7579978 113.7100014
 128.0559992  66.2119978 113.4070014 127.5388165  66.8522774 113.6886790
 120.1479992  71.3179978 109.8700014 120.6759992  72.0909978 109.6700014
 119.2679992  71.5419978 109.5690014 120.1013176  71.4543161 109.8018409
 115.9029992  66.1799978 104.4580014 116.5189992  66.8069978 104.8370014
 115.0409992  66.4959978 104.7290014 115.8708195  66.3085798 104.5465386
 121.5759992  68.9809978 109.4470014 121.3349992  69.9059978 109.4880014
 120.8349992  68.5219978 109.8430014 121.4428390  69.0456403 109.5061404
 122.0899992  73.1299978 115.7620014 122.4529992  73.9839978 115.5280014
 122.6219992  72.8379978 116.5020014 122.2116090  73.2074058 115.8300219
 120.2589992  74.0019978 108.9920014 119.3089992  74.1079978 109.0430014
 120.6109992  74.8229978 109.3370014 120.1765480  74.1274438 109.0455999
 125.6339992  69.2289978 115.4620014 125.2089992  69.0009978 116.2890014
 126.2149992  68.4899978 115.2800014 125.6543930  69.0979843 115.5504731
 128.2929992  73.7809978 117.9320014 127.6909992  73.2249978 117.4360014
 128.5739992  74.4479978 117.3060014 128.2486829  73.7951613 117.7795443
 116.4149992  61.0139978 117.3390014 115.5229992  61.3519978 117.2720014
 116.3169992  60.1579978 117.7570014 116.2794965  60.9446499 117.3863044
 128.7029992  68.8299978 106.7630014 128.4259992  68.1019978 107.3190014
 129.6309992  68.9489978 106.9680014 128.7904499  68.7464213 106.8668044
 116.0669992  72.8179978 115.7740014 116.2839992  71.8859978 115.7430014
 116.3129992  73.0929978 116.6570014 116.1299809  72.7275686 115.8891691
 120.8649992  70.8399978 105.4400014 121.0119992  70.3199978 106.2300014
 120.8619992  71.7469978 105.7460014 120.8847300  70.8913964 105.5895895
 117.3179992  68.0919978 105.9500014 116.6319992  68.4449978 106.5170014
 117.8409992  68.8549978 105.7040014 117.2949033  68.2433746 105.9942661
 125.1499992  60.7549978 116.2290014 125.8489992  60.8289978 116.8790014
 124.7689992  59.8899978 116.3830014 125.1942097  60.6482389 116.3387997
 123.1339992  62.1349978 108.1610014 123.9459992  62.6389978 108.2070014
 122.8899992  61.9899978 109.0750014 123.2121467  62.1843749 108.2908575
 123.6699992  63.1209978 117.3460014 123.7889992  63.6949978 118.1030014
 124.3249992  62.4329978 117.4600014 123.7749146  63.1065574 117.4651313
 124.0179992  59.2159978 109.0990014 123.6709992  59.8329978 109.7440014
 124.6769992  59.7169978 108.6180014 124.0595949  59.3681099 109.1222271
 129.8739992  61.0279978 118.1810014 128.9579992  61.2899978 118.0930014
 130.2099992  61.0249978 117.2840014 129.7939789  61.0634626 118.0477847
 128.4769992  64.7779978 112.2760014 127.6789992  64.3629978 111.9480014
 128.9219992  64.0879978 112.7670014 128.4279684  64.6278628 112.2975227
 116.2499992  63.3709978 103.9630014 116.2049992  64.3099978 104.1410014
 115.3619992  63.1349978 103.6930014 116.1238555  63.4676874 103.9508939
 129.5629992  74.0339978 113.8990014 129.4069992  74.7129978 113.2420014
 130.4959992  74.1059978 114.1020014 129.6677387  74.1366390 113.8365342
 117.0579992  58.1519978 112.6360014 116.8289992  58.2109978 111.7080014
 116.6159992  57.3609978 112.9420014 116.9668801  58.0530540 112.5504729
 115.9889992  72.0929978 108.7960014 115.1559992  72.5649978 108.8240014
 116.5339992  72.6029978 108.1980014 115.9487590  72.2265897 108.7189194
 115.2769992  74.7049978 120.1260014 115.8169992  74.4889978 120.8860014
 114.7959992  73.8999978 119.9370014 115.2858613  74.5665400 120.2044781
 119.8739992  73.6249978 121.7470014 120.6419992  73.1659978 122.0880014
 119.8529992  73.3989978 120.8170014 119.9762135  73.5316668 121.6679491
 123.9659992  73.1329978 103.1220014 123.3219992  72.5019978 103.4430014
 124.7279992  72.6019978 102.8900014 123.9808058  72.9747902 103.1346038
 126.4509992  72.0049978 120.4760014 126.0999992  71.1479978 120.7190014
 127.1769992  72.1469978 121.0830014 126.5011590  71.9070178 120.5912907
 115.1839992  68.5159978 121.0810014 115.3279992  67.6139978 120.7940014
 114.4119992  68.8019978 120.5930014 115.0993303  68.4313243 120.9757908
 121.8389992  68.4849978 120.5130014 121.5109992  68.7559978 119.6560014
 121.9909992  67.5439978 120.4260014 121.8146030  68.3948973 120.3837945
 127.5739992  68.4009978 117.8970014 128.3189992  68.9899978 117.7770014
 126.8169992  68.9829978 117.9600014 127.5735205  68.5601997 117.8891119
 116.0169992  65.7159978 120.5010014 116.4249992  64.8589978 120.3800014
 115.7559992  65.7299978 121.4220014 116.0376016  65.6005119 120.6089192
 120.6749992  66.8319978 105.5190014 120.2149992  66.3479978 106.2050014
 120.9299992  66.1629978 104.8830014 120.6465038  66.6753689 105.5269447
 119.9639992  64.7249978 117.8750014 119.3449992  65.3989978 118.1550014
 120.3079992  65.0459978 117.0420014 119.9257605  64.8607198 117.8006707
 124.9829992  67.1959978 121.1520014 125.9369992  67.2799978 121.1250014
 124.8229992  66.4839978 121.7720014 125.0917182  67.1112842 121.2320733
 120.3029992  62.0799978 118.9570014 120.4529992  61.3509978 118.3550014
 120.3049992  62.8569978 118.3980014 120.3237967  62.0852708 118.7990541
 120.7159992  60.4489978 116.4500014 121.2509992  60.9009978 115.7980014
 119.8629992  60.3409978 116.0270014 120.6740374  60.4962665 116.3036710
 122.2969992  65.8889978 116.6890014 123.0479992  65.7329978 116.1160014
 121.9579992  66.7409978 116.4140014 122.3539587  65.9828138 116.5734078
 126.7129992  63.7039978 121.7180014 126.9049992  62.7729978 121.6060014
 127.5709992  64.1289978 121.7080014 126.8552269  63.6339928 121.7013192
 128.0299992  66.4929978 119.7950014 127.7479992  67.2019978 119.2180014
 128.9719992  66.4199978 119.6440014 128.1187656  66.5803128 119.6954809
 118.7819992  63.2779978 120.8690014 118.0139992  62.7449978 120.6590014
 119.4599992  62.9679978 120.2690014 118.7686973  63.1632375 120.7591796
 121.5209992  57.9059978 116.8810014 121.4229992  58.8519978 116.7760014
 120.7789992  57.5329978 116.4060014 121.4071913  57.9851813 116.8023539
 122.7849992  62.2269978 120.4450014 122.5499992  62.0079978 121.3470014
 122.0019992  62.0199978 119.9350014 122.6469219  62.1690066 120.4995852
 125.5009992  61.3549978 119.5210014 124.5529992  61.3869978 119.6530014
 125.8129992  60.7289978 120.1740014 125.4135190  61.2747262 119.6273564
 127.1349992  59.9889978 121.5260014 127.0379992  59.0369978 121.5200014
 126.8129992  60.2569978 122.3860014 127.0781761  59.8949744 121.6414936
 116.9619992  61.1979978 120.5730014 117.1739992  60.4919978 119.9630014
 116.8509992  60.7609978 121.4170014 116.9760269  61.0421921 120.6035873
 121.7429992  57.1999978 119.5530014 122.4549992  56.5599978 119.5390014
 121.6419992  57.4659978 118.6390014 121.8267261  57.1484190 119.4275537
 122.0969992  58.8819978 121.6060014 121.9649992  58.4069978 120.7860014
 121.4969992  59.6269978 121.5510014 121.9979070  58.9175789 121.4863251
 113.8599992  75.7949978 109.3430014 113.2129992  75.3329978 108.8100014
 114.2149992  75.1229978 109.9250014 113.8194506  75.6409503 109.3487341
 114.7299992  73.8749978 111.1470014 114.3959992  72.9949978 111.3190014
 114.9529992  74.2209978 112.0120014 114.7143721  73.8011938 111.2874168
 132.2789992  74.6849978 114.1280014 132.2569992  74.8699978 115.0670014
 132.9689992  75.2529978 113.7870014 132.3693439  74.7871887 114.2104791
 131.8419992  74.2519978 117.0500014 131.3549992  73.5169978 116.6790014
 132.3909992  73.8579978 117.7280014 131.8495247  74.0981057 117.0908461
 130.2929992  70.0419978 121.6880014 129.4269992  69.9369978 122.0820014
 130.6689992  70.7999978 122.1340014 130.2253401  70.1301708 121.8022620
 131.5939992  68.2979978 107.2020014 132.4439992  68.7189978 107.3290014
 131.5989992  67.5579978 107.8090014 131.7111143  68.2556094 107.3014750
 131.9879992  66.3519978 109.0260014 131.2619992  65.8719978 109.4230014
 132.5699992  66.5569978 109.7580014 131.9671635  66.3139166 109.1793748
 131.7469992  69.1369978 113.9730014 132.5809992  68.7589978 113.6930014
 131.8589992  70.0799978 113.8540014 131.8762522  69.2127742 113.9186020
 130.2339992  72.0149978 116.2800014 129.5859992  72.3399978 116.9060014
 129.7159992  71.5739978 115.6060014 130.0754168  71.9998523 116.2745307
 129.7749992  64.8729978 109.5890014 129.6249992  63.9279978 109.5680014
 129.4209992  65.1539978 110.4320014 129.7065527  64.7815605 109.7001859
 114.8099992  66.9509978 113.5990014 114.9949992  66.8689978 112.6630014
 115.6599992  66.8269978 114.0230014 114.9500916  66.9230393 113.5282896
 130.6309992  66.8429978 119.2270014 131.2139992  66.1079978 119.4190014
 131.1949992  67.6149978 119.2740014 130.7869781  66.8468145 119.2596164
 132.1279992  64.7459978 119.9120014 131.2649992  64.3669978 119.7460014
 132.7319992  64.0069978 119.8380014 132.0915944  64.5942978 119.8792984
 129.8529992  60.8999978 103.0850014 130.4639992  60.5289978 103.7220014
 129.0159992  60.4789978 103.2810014 129.8234947  60.7922756 103.1987252
 129.4859992  62.4549978 108.0510014 129.7649992  61.5479978 108.1750014
 130.2449992  62.8889978 107.6620014 129.6268619  62.3894502 108.0153795
 130.0969992  63.0369978 113.4870014 131.0299992  63.2489978 113.4530014
 129.8619992  63.1379978 114.4090014 130.1928308  63.0796503 113.6070214
 130.1269992  63.7739978 116.2630014 129.2839992  64.0419978 116.6290014
 130.5689992  64.5959978 116.0520014 130.0714138  63.9218273 116.2845518
 114.4079992  62.2209978 119.7400014 115.3269992  62.0989978 119.9760014
 113.9579992  61.4709978 120.1290014 114.4731148  62.1028751 119.8249408
 132.4099992  57.7539978 121.6160014 132.7589992  57.0999978 121.0110014
 132.5569992  58.5909978 121.1770014 132.4777355  57.7776067 121.4736564
 130.0989992  59.7179978 108.0990014 130.2809992  59.2689978 108.9250014
 129.4989992  59.1339978 107.6360014 130.0427529  59.5776131 108.1493619
 115.6289992  60.5339978 112.6310014 116.0739992  59.7419978 112.9330014
 116.0949992  61.2499978 113.0620014 115.7529059  60.5224474 112.7306079
 113.9329992  63.5329978 113.7000014 114.4249992  63.3119978 112.9090014
 114.2949992  64.3729978 113.9810014 114.0492923  63.6163468 113.6297407
 131.9289992  59.8629978 119.9660014 131.0119992  60.1339978 119.9300014
 132.0519992  59.3279978 119.1820014 131.8200828  59.8277700 119.8550785
 131.9659992  59.7859978 104.6270014 132.3779992  59.0649978 104.1520014
 132.6469992  60.4549978 104.6860014 132.1145900  59.7777306 104.5699038
 114.2469992  59.7909978 107.7540014 113.3219992  59.9989978 107.6250014
 114.7009992  60.2749978 107.0650014 114.1816374  59.8849949 107.6430957
 129.0169992  74.7749978 109.7000014 129.6699992  74.4269978 109.0920014
 129.5279992  75.2629978 110.3460014 129.1752777  74.7933815 109.7042047
 114.2099992  58.5289978 116.0990014 113.5449992  58.2829978 116.7420014
 113.7669992  59.1509978 115.5210014 114.0590937  58.5793614 116.1089379
 116.4019992  71.7039978 120.2430014 115.5809992  71.8789978 119.7830014
 116.1499992  71.6309978 121.1640014 116.2556173  71.7180794 120.3044972
 119.3559992  72.6779978 116.5020014 118.9319992  73.4879978 116.2190014
 120.2609992  72.7639978 116.2000014 119.4202433  72.8003331 116.4225377
 123.6679992  74.0769978 119.4610014 123.8519992  73.7439978 120.3390014
 124.5139992  74.3869978 119.1390014 123.8076484  74.0732979 119.5377617
 126.0129992  75.3629978 118.7050014 126.6899992  74.7299978 118.4650014
 126.3339992  75.7639978 119.5120014 126.1491323  75.3305691 118.7813158
 130.9299992  57.9529978 117.7850014 130.1169992  58.2779978 117.3970014
 131.1629992  57.1919978 117.2520014 130.8502566  57.8946559 117.6599213
 116.7579992  75.9349978 116.5490014 116.0379992  76.3749978 116.0980014
 116.3929992  75.6839978 117.3980014 116.6099796  75.9613824 116.6019329
 119.2249992  75.5349978 115.5790014 118.3609992  75.6069978 115.9830014
 119.1699992  76.0819978 114.7950014 119.0991942  75.6187849 115.5284000
 123.9359992  75.4229978 114.7540014 123.4789992  75.9519978 114.1000014
 124.0989992  76.0259978 115.4800014 123.8954476  75.5769140 114.7625499
 126.2639992  74.3009978 115.6990014 125.3589992  74.4659978 115.4340014
 126.6919992  75.1539978 115.6340014 126.1980700  74.4389529 115.6539520
 128.8679992  75.8709978 115.9940014 128.6859992  76.7869978 115.7840014
 129.0449992  75.4599978 115.1480014 128.8669907  75.9409741 115.8507883
 116.1729992  74.5579978 113.4590014 116.1549992  74.1319978 114.3170014
 116.9779992  74.2389978 113.0510014 116.2793221  74.4567233 113.5210225
 118.3139992  73.2679978 112.1140014 118.0949992  72.3509978 112.2840014
 119.1379992  73.4079978 112.5800014 118.3954702  73.1615511 112.2002527
 120.8509992  73.7379978 112.9630014 121.0639992  72.8499978 112.6760014
 120.9159992  73.7029978 113.9180014 120.8889075  73.6118307 113.0527373
 124.3599992  59.4019978 112.1070014 123.6859992  58.7719978 112.3630014
 124.9239992  58.9179978 111.5040014 124.3440384  59.2503708 112.0605020
 129.5029992  57.5089978 112.2200014 130.1059992  58.0569978 111.7180014
 128.6329992  57.8279978 111.9800014 129.4679190  57.6271041 112.1188679
 131.2299992  58.6479978 110.5530014 131.8409992  58.1339978 110.0270014
 131.6119992  59.5249978 110.5770014 131.3654475  58.6961323 110.4841208
 116.6869992  58.0359978 109.9290014 115.9099992  57.8009978 109.4220014
 117.2169992  57.2389978 109.9380014 116.6523451  57.8961268 109.8608627
 121.2659992  57.9619978 109.7430014 122.1399992  58.3509978 109.7130014
 121.1299992  57.7469978 110.6650014 121.3673207  57.9861923 109.8636509
 126.8229992  57.9919978 111.3920014 126.8989992  58.0879978 110.4430014
 126.5479992  57.0849978 111.5210014 126.7962042  57.8824241 111.2793811
 115.4239992  73.7819978 106.6310014 114.7389992  73.7439978 105.9630014
 115.4279992  74.6949978 106.9190014 115.3308174  73.9001998 106.5785310
 122.4099992  60.0429978 106.6330014 122.5879992  59.3959978 107.3150014
 122.3559992  60.8769978 107.1000014 122.4271025  60.0670504 106.7896433
 130.9969992  74.5539978 107.7070014 130.8029992  73.8059978 107.1420014
 130.9579992  75.3119978 107.1240014 130.9651645  74.5540786 107.5508148
 116.6439992  58.5499978 119.4470014 116.2779992  57.7839978 119.8900014
 117.5569992  58.5789978 119.7340014 116.7173225  58.4491906 119.5463459
 118.6169992  57.8999978 120.9830014 119.5159992  57.6259978 120.7980014
 118.2309992  57.1579978 121.4470014 118.6877237  57.7621508 121.0204710
 127.0389992  57.2329978 121.1650014 127.1149992  56.8069978 122.0190014
 127.9319992  57.2459978 120.8220014 127.1702267  57.1763952 121.2355932
 130.2149992  73.3059978 119.8570014 129.4329992  73.1189978 119.3380014
 130.1429992  74.2349978 120.0750014 130.0980863  73.4060221 119.8153574
 144.6209992  67.1919978 109.8880014 144.7099992  68.1359978 109.7560014
 143.9829992  66.9169978 109.2300014 144.5469062  67.2839812 109.7809641
 143.5539992  66.4469978 113.3070014 143.5159992  65.8009978 114.0120014
 143.2319992  65.9799978 112.5360014 143.5052679  66.2954276 113.2992921
 135.9219992  66.0609978 114.9000014 135.9639992  65.4359978 115.6230014
 136.6249992  66.6849978 115.0820014 136.0227345  66.0597873 115.0235274
 136.8459992  70.5109978 113.4350014 136.4759992  69.7089978 113.0650014
 137.7869992  70.3429978 113.4810014 136.9225984  70.3784638 113.3905603
 133.4559992  64.1709978 108.8280014 133.0079992  65.0169978 108.8090014
 132.8949992  63.5919978 108.3120014 133.3189603  64.2083674 108.7556720
 134.1659992  66.3329978 110.9540014 134.3799992  65.5629978 111.4810014
 134.9039992  66.4229978 110.3500014 134.2949652  66.2398012 110.9445212
 144.3719992  74.4899978 111.8210014 144.9909992  73.8139978 111.5470014
 144.1629992  74.2719978 112.7290014 144.4286232  74.3677938 111.9062517
 141.9429992  68.8789978 113.7130014 142.2469992  68.1929978 113.1190014
 142.6649992  68.9979978 114.3310014 142.0821152  68.8012189 113.7152123
 145.0839992  63.2729978 114.0410014 145.2269992  62.3269978 114.0610014
 144.9779992  63.4799978 113.1120014 145.0892509  63.1714813 113.9182231
 138.2389992  61.3749978 111.3130014 138.2819992  62.2349978 110.8950014
 137.7809992  60.8229978 110.6790014 138.1829815  61.4180621 111.1701197
 134.8589992  63.7719978 112.0750014 135.5129992  63.2219978 112.5070014
 134.8829992  63.4979978 111.1580014 134.9517199  63.6597167 112.0101668
 140.0159992  65.3219978 111.2900014 140.6319992  64.7949978 111.8000014
 139.4289992  64.6819978 110.8870014 140.0209239  65.1634117 111.3052952
 137.0489992  60.2929978 115.3870014 136.8299992  60.8229978 114.6210014
 136.3809992  60.5189978 116.0340014 136.9287001  60.3961154 115.3696064
 144.4179992  69.7929978 108.9310014 144.1229992  69.4699978 108.0800014
 144.0939992  70.6929978 108.9720014 144.3337983  69.8704026 108.8199771
 139.6179992  67.9679978 115.6750014 138.8779992  68.5669978 115.7780014
 140.3319992  68.5219978 115.3590014 139.6133288  68.1247356 115.6463805
 136.6429992  62.1849978 113.3390014 137.2569992  62.8179978 113.7130014
 137.1549992  61.7129978 112.6830014 136.7962277  62.2077352 113.3014279
 138.0259992  69.9329978 116.4620014 138.0199992  70.8119978 116.0840014
 137.1719992  69.8489978 116.8870014 137.9097925  70.0419535 116.4676887
 134.1469992  69.6039978 107.2440014 133.8749992  69.8329978 106.3550014
 134.1919992  70.4409978 107.7040014 134.1158709  69.7486058 107.1846107
 141.0759992  57.5979978 112.8400014 140.9579992  56.6499978 112.7850014
 140.2209992  57.9309978 113.1130014 140.9442679  57.5131926 112.8693720
 143.3419992  66.4359978 107.3400014 142.6309992  66.9709978 106.9880014
 144.0329992  66.4909978 106.6800014 143.3380751  66.5166777 107.2025858
 143.3959992  64.8929978 104.3790014 144.0969992  64.9159978 105.0300014
 143.6979992  64.2649978 103.7230014 143.5328282  64.8112339 104.3794496
 138.3929992  67.2759978 110.1740014 138.0629992  66.9049978 109.3560014
 138.9819992  66.6049978 110.5210014 138.4273970  67.1346063 110.1089404
 139.7599992  70.7039978 112.8560014 139.6649992  70.1249978 112.0990014
 140.4889992  70.3329978 113.3520014 139.8456161  70.5745891 112.8195209
 138.7599992  66.0439978 113.8080014 139.3249992  66.1659978 113.0450014
 139.0789992  66.6819978 114.4470014 138.8803977  66.1468851 113.7899424
 145.0689992  71.5479978 114.5420014 144.8289992  72.2099978 115.1900014
 144.8709992  70.7129978 114.9670014 145.0093826  71.5258115 114.6881566
 139.6399992  70.4439978 118.5250014 139.3289992  71.2259978 118.9800014
 138.9899992  70.2909978 117.8390014 139.5095538  70.5304087 118.4945898
 136.5599992  66.6419978 117.7540014 136.6299992  67.2929978 118.4520014
 135.6689992  66.7449978 117.4190014 136.4491802  66.7449757 117.8042249
 143.3449992  72.5439978 109.4120014 143.8189992  72.8399978 110.1900014
 142.7819992  73.2829978 109.1790014 143.3337361  72.6842721 109.4868611
 137.8789992  72.5149978 119.2880014 137.8869992  72.3789978 118.3410014
 136.9629992  72.3979978 119.5400014 137.7562528  72.4805463 119.1923243
 137.3839992  66.3449978 107.7640014 137.0919992  67.1129978 107.2730014
 136.7089992  65.6859978 107.6010014 137.2528497  66.3609745 107.6748260
 133.4769992  68.7079978 116.5790014 132.9749992  68.6799978 115.7640014
 133.4819992  67.8029978 116.8880014 133.4090416  68.5817368 116.5093766
 133.2269992  71.4889978 113.4630014 134.1729992  71.3439978 113.4440014
 133.1139992  72.2729978 114.0000014 133.3413578  71.5751697 113.5330317
 142.4029992  71.7289978 118.0210014 142.4909992  72.5549978 118.4960014
 141.5399992  71.3989978 118.2700014 142.2983357  71.7975468 118.1197653
 142.8179992  75.5009978 107.8270014 142.7419992  75.3799978 106.8810014
 142.8499992  76.4499978 107.9460014 142.8119156  75.6127530 107.7135048
 136.4709992  74.2899978 109.6080014 136.6229992  73.9419978 110.4870014
 135.6199992  73.9329978 109.3530014 136.3767899  74.1941738 109.6937340
 135.7259992  70.0319978 117.6220014 135.9419992  69.6699978 118.4810014
 134.8699992  69.6569978 117.4120014 135.6399354  69.9317906 117.7112160
 138.3439992  58.5019978 113.6170014 137.4829992  58.4149978 113.2100014
 138.3219992  59.3579978 114.0450014 138.2230411  58.6057884 113.6190857
 143.0069992  58.2239978 116.9920014 143.4269992  57.8089978 117.7450014
 142.0739992  58.0449978 117.1090014 142.9383736  58.1429910 117.1108968
 138.4349992  63.4669978 114.7120014 137.7939992  63.4269978 115.4210014
 138.4729992  64.3939978 114.4750014 138.3523670  63.5867795 114.7770550
 138.4319992  63.6879978 109.6240014 137.5399992  63.3479978 109.5660014
 138.8829992  63.3109978 108.8690014 138.3706815  63.5903762 109.5139203
 143.9679992  64.1039978 108.4410014 143.5589992  64.9189978 108.1500014
 144.6879992  63.9639978 107.8270014 144.0094013  64.1966571 108.3180875
 143.0699992  64.2799978 119.9290014 142.5069992  63.5749978 120.2500014
 143.8959992  64.1589978 120.3970014 143.1046674  64.1672165 120.0361751
 144.9729992  63.5499978 111.2550014 144.7769992  64.1559978 110.5400014
 145.1539992  62.7169978 110.8210014 144.9706584  63.5202513 111.0984212
 136.1849992  63.7879978 116.5790014 136.1469992  64.1879978 117.4480014
 135.6949992  62.9709978 116.6700014 136.1135621  63.7322510 116.7101377
 132.7939992  60.9039978 110.4300014 133.4239992  60.8749978 111.1490014
 133.2429992  60.4789978 109.7000014 132.9410692  60.8425316 110.4297771
 144.2369992  65.1879978 115.9270014 144.5599992  64.5569978 115.2840014
 143.7959992  64.6539978 116.5870014 144.2215789  65.0293522 115.9282232
 141.0139992  61.1159978 110.7110014 140.1029992  61.1729978 110.9990014
 141.5189992  61.0559978 111.5210014 140.9575387  61.1156870 110.8600646
 135.8419992  62.7449978 109.5370014 134.9529992  62.8439978 109.1970014
 136.1389992  61.9029978 109.1910014 135.7604177  62.6447687 109.4436940
 145.4189992  60.3509978 113.9750014 144.7419992  60.4819978 114.6390014
 144.9339992  60.1959978 113.1650014 145.2607265  60.3479659 113.9563397
 136.3049992  68.4959978 119.8600014 137.0369992  68.7509978 120.4210014
 135.5239992  68.7009978 120.3750014 136.2997684  68.5586468 120.0064782
 142.3339992  63.9029978 112.5980014 142.8979992  63.3569978 112.0510014
 142.1859992  63.3819978 113.3860014 142.3912575  63.7576552 112.6296987
 137.3359992  60.0399978 109.0160014 137.0189992  59.1369978 108.9810014
 138.1169992  60.0419978 108.4630014 137.3982307  59.9166951 108.9364314
 140.9599992  62.2919978 115.0120014 140.1249992  62.7459978 115.1220014
 141.4839992  62.5679978 115.7640014 140.9165070  62.3914666 115.1287152
 141.5049992  68.5049978 106.6960014 140.7599992  67.9969978 106.3740014
 141.3699992  68.5539978 107.6430014 141.3849047  68.4421596 106.7798845
 145.4019992  61.3189978 104.8960014 144.4639992  61.4299978 104.7440014
 145.6999992  62.1749978 105.2020014 145.3136402  61.4500621 104.9165571
 143.0239992  68.6889978 117.9330014 142.6779992  68.3069978 118.7400014
 142.8239992  69.6219978 118.0050014 142.9496523  68.7629095 118.0530735
 136.6289992  67.7999978 112.4660014 137.3739992  67.7969978 111.8650014
 136.7069992  66.9759978 112.9480014 136.7414158  67.6882916 112.4489153
 133.6369992  66.2599978 117.7810014 133.8599992  65.8419978 118.6130014
 133.0349992  65.6479978 117.3580014 133.5861260  66.1199933 117.8377320
 140.6539992  65.7769978 119.9940014 140.3579992  65.6119978 119.0990014
 141.5849992  65.5569978 119.9830014 140.7393982  65.7246578 119.8700045
 145.2739992  71.1509978 117.8840014 144.3739992  71.3339978 117.6160014
 145.3079992  71.4099978 118.8050014 145.1552909  71.2110815 117.9717852
 139.0039992  71.3179978 109.8700014 139.5319992  72.0909978 109.6700014
 138.1239992  71.5419978 109.5690014 138.9573176  71.4543161 109.8018409
 140.4319992  68.9809978 109.4470014 140.1909992  69.9059978 109.4880014
 139.6909992  68.5219978 109.8430014 140.2988390  69.0456403 109.5061404
 140.9459992  73.1299978 115.7620014 141.3089992  73.9839978 115.5280014
 141.4779992  72.8379978 116.5020014 141.0676090  73.2074058 115.8300219
 139.1149992  74.0019978 108.9920014 138.1649992  74.1079978 109.0430014
 139.4669992  74.8229978 109.3370014 139.0325480  74.1274438 109.0455999
 144.4899992  69.2289978 115.4620014 144.0649992  69.0009978 116.2890014
 145.0709992  68.4899978 115.2800014 144.5103930  69.0979843 115.5504731
 135.2709992  61.0139978 117.3390014 134.3789992  61.3519978 117.2720014
 135.1729992  60.1579978 117.7570014 135.1354965  60.9446499 117.3863044
 134.9229992  72.8179978 115.7740014 135.1399992  71.8859978 115.7430014
 135.1689992  73.0929978 116.6570014 134.9859809  72.7275686 115.8891690
 136.1739992  68.0919978 105.9500014 135.4879992  68.4449978 106.5170014
 136.6969992  68.8549978 105.7040014 136.1509033  68.2433746 105.9942661
 144.0059992  60.7549978 116.2290014 144.7049992  60.8289978 116.8790014
 143.6249992  59.8899978 116.3830014 144.0502097  60.6482389 116.3387997
 144.7899992  60.4069978 107.3260014 145.0099992  60.8779978 106.5230014
 145.3489992  60.8009978 107.9960014 144.8956730  60.5247432 107.3065906
 142.4589992  72.5369978 106.1890014 141.6419992  73.0339978 106.2410014
 142.9879992  73.0129978 105.5490014 142.4188508  72.6692543 106.1096035
 141.9899992  62.1349978 108.1610014 142.8019992  62.6389978 108.2070014
 141.7459992  61.9899978 109.0750014 142.0681467  62.1843749 108.2908575
 142.5259992  63.1209978 117.3460014 142.6449992  63.6949978 118.1030014
 143.1809992  62.4329978 117.4600014 142.6309146  63.1065574 117.4651313
 142.8739992  59.2159978 109.0990014 142.5269992  59.8329978 109.7440014
 143.5329992  59.7169978 108.6180014 142.9155949  59.3681099 109.1222271
 135.9139992  58.1519978 112.6360014 135.6849992  58.2109978 111.7080014
 135.4719992  57.3609978 112.9420014 135.8228801  58.0530540 112.5504729
 134.8449992  72.0929978 108.7960014 134.0119992  72.5649978 108.8240014
 135.3899992  72.6029978 108.1980014 134.8047590  72.2265897 108.7189194
 134.1329992  74.7049978 120.1260014 134.6729992  74.4889978 120.8860014
 133.6519992  73.8999978 119.9370014 134.1418613  74.5665400 120.2044782
 138.7299992  73.6249978 121.7470014 139.4979992  73.1659978 122.0880014
 138.7089992  73.3989978 120.8170014 138.8322135  73.5316668 121.6679491
 145.3069992  72.0049978 120.4760014 144.9559992  71.1479978 120.7190014
 146.0329992  72.1469978 121.0830014 145.3571590  71.9070178 120.5912907
 134.0399992  68.5159978 121.0810014 134.1839992  67.6139978 120.7940014
 133.2679992  68.8019978 120.5930014 133.9553303  68.4313243 120.9757908
 140.6949992  68.4849978 120.5130014 140.3669992  68.7559978 119.6560014
 140.8469992  67.5439978 120.4260014 140.6706030  68.3948973 120.3837945
 134.8729992  65.7159978 120.5010014 135.2809992  64.8589978 120.3800014
 134.6119992  65.7299978 121.4220014 134.8936016  65.6005119 120.6089192
 139.5309992  66.8319978 105.5190014 139.0709992  66.3479978 106.2050014
 139.7859992  66.1629978 104.8830014 139.5025038  66.6753689 105.5269447
 138.8199992  64.7249978 117.8750014 138.2009992  65.3989978 118.1550014
 139.1639992  65.0459978 117.0420014 138.7817605  64.8607198 117.8006707
 140.6019992  65.0749978 103.7810014 140.4209992  64.9199978 102.8540014
 141.5519992  65.1829978 103.8260014 140.7056566  65.0683669 103.6600929
 143.8389992  67.1959978 121.1520014 144.7929992  67.2799978 121.1250014
 143.6789992  66.4839978 121.7720014 143.9477182  67.1112842 121.2320733
 139.1589992  62.0799978 118.9570014 139.3089992  61.3509978 118.3550014
 139.1609992  62.8569978 118.3980014 139.1797967  62.0852708 118.7990541
 139.5719992  60.4489978 116.4500014 140.1069992  60.9009978 115.7980014
 138.7189992  60.3409978 116.0270014 139.5300374  60.4962665 116.3036710
 141.1529992  65.8889978 116.6890014 141.9039992  65.7329978 116.1160014
 140.8139992  66.7409978 116.4140014 141.2099587  65.9828138 116.5734078
 145.5689992  63.7039978 121.7180014 145.7609992  62.7729978 121.6060014
 146.4269992  64.1289978 121.7080014 145.7112269  63.6339928 121.7013192
 137.6379992  63.2779978 120.8690014 136.8699992  62.7449978 120.6590014
 138.3159992  62.9679978 120.2690014 137.6246973  63.1632375 120.7591796
 140.3769992  57.9059978 116.8810014 140.2789992  58.8519978 116.7760014
 139.6349992  57.5329978 116.4060014 140.2631913  57.9851813 116.8023539
 141.6409992  62.2269978 120.4450014 141.4059992  62.0079978 121.3470014
 140.8579992  62.0199978 119.9350014 141.5029219  62.1690066 120.4995852
 144.3569992  61.3549978 119.5210014 143.4089992  61.3869978 119.6530014
 144.6689992  60.7289978 120.1740014 144.2695190  61.2747262 119.6273563
 135.8179992  61.1979978 120.5730014 136.0299992  60.4919978 119.9630014
 135.7069992  60.7609978 121.4170014 135.8320269  61.0421921 120.6035873
 140.5989992  57.1999978 119.5530014 141.3109992  56.5599978 119.5390014
 140.4979992  57.4659978 118.6390014 140.6827261  57.1484190 119.4275537
 140.9529992  58.8819978 121.6060014 140.8209992  58.4069978 120.7860014
 140.3529992  59.6269978 121.5510014 140.8539070  58.9175789 121.4863251
 140.4989992  75.7649978 104.7830014 141.4319992  75.9229978 104.9260014
 140.2349992  76.4409978 104.1580014 140.5909308  75.8779104 104.7181396
 134.0669992  70.4019978 104.2650014 134.9809992  70.4809978 104.5390014
 134.0749992  69.7149978 103.5990014 134.1931143  70.3199085 104.2124274
 132.7159992  75.7949978 109.3430014 132.0689992  75.3329978 108.8100014
 133.0709992  75.1229978 109.9250014 132.6754506  75.6409503 109.3487341
 133.5859992  73.8749978 111.1470014 133.2519992  72.9949978 111.3190014
 133.8089992  74.2209978 112.0120014 133.5703721  73.8011938 111.2874168
 133.6659992  66.9509978 113.5990014 133.8509992  66.8689978 112.6630014
 134.5159992  66.8269978 114.0230014 133.8060916  66.9230393 113.5282896
 133.2639992  62.2209978 119.7400014 134.1829992  62.0989978 119.9760014
 132.8139992  61.4709978 120.1290014 133.3291148  62.1028751 119.8249408
 134.4849992  60.5339978 112.6310014 134.9299992  59.7419978 112.9330014
 134.9509992  61.2499978 113.0620014 134.6089059  60.5224474 112.7306079
 132.7889992  63.5329978 113.7000014 133.2809992  63.3119978 112.9090014
 133.1509992  64.3729978 113.9810014 132.9052923  63.6163468 113.6297407
 133.1029992  59.7909978 107.7540014 132.1779992  59.9989978 107.6250014
 133.5569992  60.2749978 107.0650014 133.0376374  59.8849949 107.6430957
 133.0659992  58.5289978 116.0990014 132.4009992  58.2829978 116.7420014
 132.6229992  59.1509978 115.5210014 132.9150937  58.5793614 116.1089379
 135.2579992  71.7039978 120.2430014 134.4369992  71.8789978 119.7830014
 135.0059992  71.6309978 121.1640014 135.1116173  71.7180794 120.3044972
 138.2119992  72.6779978 116.5020014 137.7879992  73.4879978 116.2190014
 139.1169992  72.7639978 116.2000014 138.2762433  72.8003331 116.4225377
 142.5239992  74.0769978 119.4610014 142.7079992  73.7439978 120.3390014
 143.3699992  74.3869978 119.1390014 142.6636484  74.0732979 119.5377617
 144.8689992  75.3629978 118.7050014 145.5459992  74.7299978 118.4650014
 145.1899992  75.7639978 119.5120014 145.0051323  75.3305691 118.7813158
 135.6139992  75.9349978 116.5490014 134.8939992  76.3749978 116.0980014
 135.2489992  75.6839978 117.3980014 135.4659796  75.9613824 116.6019329
 138.0809992  75.5349978 115.5790014 137.2169992  75.6069978 115.9830014
 138.0259992  76.0819978 114.7950014 137.9551942  75.6187849 115.5284000
 142.7919992  75.4229978 114.7540014 142.3349992  75.9519978 114.1000014
 142.9549992  76.0259978 115.4800014 142.7514476  75.5769140 114.7625499
 145.1199992  74.3009978 115.6990014 144.2149992  74.4659978 115.4340014
 145.5479992  75.1539978 115.6340014 145.0540700  74.4389529 115.6539520
 135.0289992  74.5579978 113.4590014 135.0109992  74.1319978 114.3170014
 135.8339992  74.2389978 113.0510014 135.1353221  74.4567233 113.5210225
 137.1699992  73.2679978 112.1140014 136.9509992  72.3509978 112.2840014
 137.9939992  73.4079978 112.5800014 137.2514702  73.1615511 112.2002527
 139.7069992  73.7379978 112.9630014 139.9199992  72.8499978 112.6760014
 139.7719992  73.7029978 113.9180014 139.7449075  73.6118307 113.0527373
 143.2159992  59.4019978 112.1070014 142.5419992  58.7719978 112.3630014
 143.7799992  58.9179978 111.5040014 143.2000384  59.2503708 112.0605020
 135.5429992  58.0359978 109.9290014 134.7659992  57.8009978 109.4220014
 136.0729992  57.2389978 109.9380014 135.5083451  57.8961268 109.8608627
 140.1219992  57.9619978 109.7430014 140.9959992  58.3509978 109.7130014
 139.9859992  57.7469978 110.6650014 140.2233207  57.9861923 109.8636509
 134.2799992  73.7819978 106.6310014 133.5949992  73.7439978 105.9630014
 134.2839992  74.6949978 106.9190014 134.1868174  73.9001998 106.5785310
 141.2659992  60.0429978 106.6330014 141.4439992  59.3959978 107.3150014
 141.2119992  60.8769978 107.1000014 141.2831025  60.0670504 106.7896433
 135.4999992  58.5499978 119.4470014 135.1339992  57.7839978 119.8900014
 136.4129992  58.5789978 119.7340014 135.5733225  58.4491906 119.5463459
 137.4729992  57.8999978 120.9830014 138.3719992  57.6259978 120.7980014
 137.0869992  57.1579978 121.4470014 137.5437237  57.7621508 121.0204710
 136.0979992  74.7019978 103.6560014 135.8299992  74.9879978 104.5290014
 136.8689992  74.1559978 103.8080014 136.1655600  74.6673330 103.7961499
  12.6289992  86.0479978 109.8880014  12.7179992  86.9919978 109.7560014
  11.9909992  85.7729978 109.2300014  12.5549062  86.1399812 109.7809641
  11.5619992  85.3029978 113.3070014  11.5239992  84.6569978 114.0120014
  11.2399992  84.8359978 112.5360014  11.5132679  85.1514276 113.2992921
   3.9299992  84.9169978 114.9000014   3.9719992  84.2919978 115.6230014
   4.6329992  85.5409978 115.0820014   4.0307345  84.9157873 115.0235273
  15.2679992  88.2419978 111.6090014  14.8269992  87.5219978 112.0590014
  15.2549992  88.9629978 112.2380014  15.2057960  88.2408329 111.7557567
   4.8539992  89.3669978 113.4350014   4.4839992  88.5649978 113.0650014
   5.7949992  89.1989978 113.4810014   4.9305984  89.2344638 113.3905603
   1.4639992  83.0269978 108.8280014   1.0159992  83.8729978 108.8090014
   0.9029992  82.4479978 108.3120014   1.3269603  83.0643674 108.7556720
   2.1739992  85.1889978 110.9540014   2.3879992  84.4189978 111.4810014
   2.9119992  85.2789978 110.3500014   2.3029652  85.0958012 110.9445212
  12.3799992  93.3459978 111.8210014  12.9989992  92.6699978 111.5470014
  12.1709992  93.1279978 112.7290014  12.4366232  93.2237938 111.9062517
   9.9509992  87.7349978 113.7130014  10.2549992  87.0489978 113.1190014
  10.6729992  87.8539978 114.3310014  10.0901152  87.6572189 113.7152123
  18.6139992  79.3369978 114.5740014  18.6639992  79.9469978 115.3100014
  19.0399992  79.7979978 113.8510014  18.6784108  79.4827709 114.5770112
  13.0919992  82.1289978 114.0410014  13.2349992  81.1829978 114.0610014
  12.9859992  82.3359978 113.1120014  13.0972509  82.0274813 113.9182231
   6.2469992  80.2309978 111.3130014   6.2899992  81.0909978 110.8950014
   5.7889992  79.6789978 110.6790014   6.1909815  80.2740621 111.1701197
  13.9689992  80.3619978 109.7140014  14.6159992  80.0329978 110.3390014
  14.4789992  80.8789978 109.0910014  14.1264317  80.3869227 109.7152167
   2.8669992  82.6279978 112.0750014   3.5209992  82.0779978 112.5070014
   2.8909992  82.3539978 111.1580014   2.9597199  82.5157167 112.0101668
   8.0239992  84.1779978 111.2900014   8.6399992  83.6509978 111.8000014
   7.4369992  83.5379978 110.8870014   8.0289239  84.0194117 111.3052952
  19.0059992  80.8149978 116.8100014  18.3169992  81.4729978 116.7140014
  19.0209992  80.6169978 117.7460014  18.9136740  80.8783242 116.9234630
   5.0569992  79.1489978 115.3870014   4.8379992  79.6789978 114.6210014
   4.3889992  79.3749978 116.0340014   4.9367001  79.2521154 115.3696064
  12.4259992  88.6489978 108.9310014  12.1309992  88.3259978 108.0800014
  12.1019992  89.5489978 108.9720014  12.3417983  88.7264026 108.8199771
   7.6259992  86.8239978 115.6750014   6.8859992  87.4229978 115.7780014
   8.3399992  87.3779978 115.3590014   7.6213288  86.9807356 115.6463805
  15.7329992  79.6529978 111.6940014  15.5179992  78.8869978 112.2270014
  16.3889992  80.1249978 112.2070014  15.7922673  79.6120728 111.8361990
   4.6509992  81.0409978 113.3390014   5.2649992  81.6739978 113.7130014
   5.1629992  80.5689978 112.6830014   4.8042277  81.0637352 113.3014279
   6.0339992  88.7889978 116.4620014   6.0279992  89.6679978 116.0840014
   5.1799992  88.7049978 116.8870014   5.9177925  88.8979535 116.4676887
   2.1549992  88.4599978 107.2440014   1.8829992  88.6889978 106.3550014
   2.1999992  89.2969978 107.7040014   2.1238709  88.6046058 107.1846107
  15.7799992  90.0809978 113.9560014  14.8379992  90.1399978 114.1180014
  16.0559992  90.9869978 113.8190014  15.6885865  90.2115288 113.9596192
  16.0799992  78.3679978 115.3740014  15.3439992  78.9779978 115.3360014
  16.7639992  78.7829978 114.8470014  16.0715506  78.5076400 115.2976051
   9.0839992  76.4539978 112.8400014   8.9659992  75.5059978 112.7850014
   8.2289992  76.7869978 113.1130014   8.9522679  76.3691926 112.8693720
  14.0319992  91.8619978 110.5820014  14.4569992  91.1549978 110.0970014
  14.3489992  92.6639978 110.1650014  14.1330266  91.8735190 110.4592479
  15.1919992  89.7629978 109.0900014  14.9339992  89.0729978 108.4790014
  15.2629992  89.3199978 109.9360014  15.1662837  89.6087106 109.1206912
  16.8779992  88.3299978 117.5680014  17.0169992  87.7379978 116.8280014
  17.0449992  89.2029978 117.2110014  16.9195562  88.3669896 117.4186283
  11.3499992  85.2919978 107.3400014  10.6389992  85.8269978 106.9880014
  12.0409992  85.3469978 106.6800014  11.3460751  85.3726777 107.2025858
  18.7189992  84.6699978 115.6340014  18.0669992  85.3639978 115.7230014
  19.1849992  84.8799978 114.8240014  18.6925937  84.7935019 115.5367533
  14.7559992  85.5009978 108.2920014  14.0239992  85.7299978 108.8650014
  15.2029992  84.7879978 108.7470014  14.7162753  85.4358972 108.4319715
  14.6529992  83.6759978 117.3600014  14.7329992  84.4389978 117.9310014
  14.0519992  83.9549978 116.6690014  14.5827245  83.8182630 117.3448424
   6.4009992  86.1319978 110.1740014   6.0709992  85.7609978 109.3560014
   6.9899992  85.4609978 110.5210014   6.4353970  85.9906063 110.1089404
   7.7679992  89.5599978 112.8560014   7.6729992  88.9809978 112.0990014
   8.4969992  89.1889978 113.3520014   7.8536161  89.4305891 112.8195209
   6.7679992  84.8999978 113.8080014   7.3329992  85.0219978 113.0450014
   7.0869992  85.5379978 114.4470014   6.8883977  85.0028851 113.7899424
  13.0769992  90.4039978 114.5420014  12.8369992  91.0659978 115.1900014
  12.8789992  89.5689978 114.9670014  13.0173826  90.3818115 114.6881566
   7.6479992  89.2999978 118.5250014   7.3369992  90.0819978 118.9800014
   6.9979992  89.1469978 117.8390014   7.5175538  89.3864087 118.4945898
   4.5679992  85.4979978 117.7540014   4.6379992  86.1489978 118.4520014
   3.6769992  85.6009978 117.4190014   4.4571802  85.6009757 117.8042249
  11.3529992  91.3999978 109.4120014  11.8269992  91.6959978 110.1900014
  10.7899992  92.1389978 109.1790014  11.3417361  91.5402721 109.4868611
   5.8869992  91.3709978 119.2880014   5.8949992  91.2349978 118.3410014
   4.9709992  91.2539978 119.5400014   5.7642528  91.3365463 119.1923243
  17.3259992  76.4139978 105.7900014  16.4259992  76.5529978 106.0850014
  17.5779992  77.2449978 105.3880014  17.2368683  76.5454055 105.7760232
   5.3919992  85.2009978 107.7640014   5.0999992  85.9689978 107.2730014
   4.7169992  84.5419978 107.6010014   5.2608497  85.2169745 107.6748260
   1.4849992  87.5639978 116.5790014   0.9829992  87.5359978 115.7640014
   1.4899992  86.6589978 116.8880014   1.4170416  87.4377368 116.5093766
   1.2349992  90.3449978 113.4630014   2.1809992  90.1999978 113.4440014
   1.1219992  91.1289978 114.0000014   1.3493578  90.4311697 113.5330317
  19.4329992  91.0109978 119.1450014  19.3829992  90.0549978 119.1080014
  18.6059992  91.2779978 119.5460014  19.3143987  90.9165174 119.1941446
  10.4109992  90.5849978 118.0210014  10.4989992  91.4109978 118.4960014
   9.5479992  90.2549978 118.2700014  10.3063357  90.6535468 118.1197653
  10.8259992  94.3569978 107.8270014  10.7499992  94.2359978 106.8810014
  10.8579992  95.3059978 107.9460014  10.8199156  94.4687530 107.7135048
   4.4789992  93.1459978 109.6080014   4.6309992  92.7979978 110.4870014
   3.6279992  92.7889978 109.3530014   4.3847899  93.0501738 109.6937340
  13.9269992  93.5109978 104.8290014  14.3019992  92.7669978 104.3590014
  13.9319992  93.2409978 105.7480014  13.9790024  93.3726950 104.8887987
  13.5959992  93.4369978 107.5790014  12.6609992  93.5369978 107.7570014
  13.8759992  92.7269978 108.1570014  13.5058173  93.3547239 107.6814998
  16.5849992  82.5039978 119.6250014  16.1769992  82.9839978 118.9050014
  16.6249992  81.5979978 119.3170014  16.5345476  82.4473160 119.4848247
   3.7339992  88.8879978 117.6220014   3.9499992  88.5259978 118.4810014
   2.8779992  88.5129978 117.4120014   3.6479354  88.7877906 117.7112160
   6.3519992  77.3579978 113.6170014   5.4909992  77.2709978 113.2100014
   6.3299992  78.2139978 114.0450014   6.2310411  77.4617884 113.6190857
  11.0149992  77.0799978 116.9920014  11.4349992  76.6649978 117.7450014
  10.0819992  76.9009978 117.1090014  10.9463736  76.9989910 117.1108968
  14.3419992  80.8349978 117.8450014  13.8279992  80.7099978 118.6430014
  14.1859992  81.7479978 117.6010014  14.2506967  80.9412123 117.9210937
  15.1039992  85.6959978 103.6070014  15.1459992  85.4739978 102.6770014
  15.9529992  86.0949978 103.7970014  15.2245253  85.7195498 103.5053822
  10.6769992  79.5719978 104.2770014  10.4229992  79.5909978 105.2000014
  10.4199992  78.7009978 103.9760014  10.6075133  79.4568110 104.3625082
   6.4429992  82.3229978 114.7120014   5.8019992  82.2829978 115.4210014
   6.4809992  83.2499978 114.4750014   6.3603670  82.4427795 114.7770550
   6.4399992  82.5439978 109.6240014   5.5479992  82.2039978 109.5660014
   6.8909992  82.1669978 108.8690014   6.3786815  82.4463762 109.5139203
  11.9759992  82.9599978 108.4410014  11.5669992  83.7749978 108.1500014
  12.6959992  82.8199978 107.8270014  12.0174013  83.0526571 108.3180875
  11.0779992  83.1359978 119.9290014  10.5149992  82.4309978 120.2500014
  11.9039992  83.0149978 120.3970014  11.1126674  83.0232165 120.0361751
  12.9809992  82.4059978 111.2550014  12.7849992  83.0119978 110.5400014
  13.1619992  81.5729978 110.8210014  12.9786584  82.3762513 111.0984212
   4.1929992  82.6439978 116.5790014   4.1549992  83.0439978 117.4480014
   3.7029992  81.8269978 116.6700014   4.1215621  82.5882510 116.7101377
   0.8019992  79.7599978 110.4300014   1.4319992  79.7309978 111.1490014
   1.2509992  79.3349978 109.7000014   0.9490692  79.6985316 110.4297771
  12.2449992  84.0439978 115.9270014  12.5679992  83.4129978 115.2840014
  11.8039992  83.5099978 116.5870014  12.2295789  83.8853522 115.9282232
   9.0219992  79.9719978 110.7110014   8.1109992  80.0289978 110.9990014
   9.5269992  79.9119978 111.5210014   8.9655387  79.9716870 110.8600646
   3.8499992  81.6009978 109.5370014   2.9609992  81.6999978 109.1970014
   4.1469992  80.7589978 109.1910014   3.7684177  81.5007687 109.4436940
   7.5029992  81.6009978 107.1940014   8.4349992  81.7299978 107.3720014
   7.2879992  82.2699978 106.5440014   7.6014472  81.7090806 107.1304891
  13.4269992  79.2069978 113.9750014  12.7499992  79.3379978 114.6390014
  12.9419992  79.0519978 113.1650014  13.2687265  79.2039659 113.9563397
  16.7149992  94.8779978 120.2520014  16.9139992  95.3019978 119.4170014
  17.3699992  95.2219978 120.8590014  16.8308501  94.9826091 120.2197097
   4.3129992  87.3519978 119.8600014   5.0449992  87.6069978 120.4210014
   3.5319992  87.5569978 120.3750014   4.3077684  87.4146468 120.0064782
  10.3419992  82.7589978 112.5980014  10.9059992  82.2129978 112.0510014
  10.1939992  82.2379978 113.3860014  10.3992575  82.6136552 112.6296987
   5.3439992  78.8959978 109.0160014   5.0269992  77.9929978 108.9810014
   6.1249992  78.8979978 108.4630014   5.4062307  78.7726951 108.9364314
   8.9679992  81.1479978 115.0120014   8.1329992  81.6019978 115.1220014
   9.4919992  81.4239978 115.7640014   8.9245070  81.2474666 115.1287152
   9.5129992  87.3609978 106.6960014   8.7679992  86.8529978 106.3740014
   9.3779992  87.4099978 107.6430014   9.3929047  87.2981596 106.7798845
  16.6629992  86.4939978 115.4830014  17.3039992  86.9499978 114.9390014
  15.8319992  86.6069978 115.0210014  16.6385171  86.5717502 115.3460237
  11.0319992  87.5449978 117.9330014  10.6859992  87.1629978 118.7400014
  10.8319992  88.4779978 118.0050014  10.9576523  87.6189095 118.0530735
   4.6369992  86.6559978 112.4660014   5.3819992  86.6529978 111.8650014
   4.7149992  85.8319978 112.9480014   4.7494158  86.5442916 112.4489153
  11.6379992  88.8189978 105.7220014  11.3429992  89.6459978 106.1030014
  10.9349992  88.1999978 105.9180014  11.5025471  88.8485227 105.8006698
   1.6449992  85.1159978 117.7810014   1.8679992  84.6979978 118.6130014
   1.0429992  84.5039978 117.3580014   1.5941260  84.9759933 117.8377320
   8.6619992  84.6329978 119.9940014   8.3659992  84.4679978 119.0990014
   9.5929992  84.4129978 119.9830014   8.7473982  84.5806578 119.8700045
  13.2819992  90.0069978 117.8840014  12.3819992  90.1899978 117.6160014
  13.3159992  90.2659978 118.8050014  13.1632909  90.0670815 117.9717852
  19.0139992  82.2509978 106.2510014  18.4589992  81.8549978 105.5790014
  19.1139992  83.1619978 105.9730014  18.9515888  82.3198990 106.1215206
  18.9769992  88.0519978 119.0880014  18.1259992  88.2899978 118.7210014
  19.5669992  88.0349978 118.3350014  18.9402408  88.0822966 118.9358879
  17.3089992  91.0369978 106.7160014  16.9359992  90.2119978 107.0250014
  17.5859992  90.8539978 105.8190014  17.2953871  90.8992441 106.6369677
  14.4689992  85.8449978 113.7370014  13.5409992  85.6139978 113.7100014
  14.9199992  85.0679978 113.4070014  14.4028165  85.7082774 113.6886790
   7.0119992  90.1739978 109.8700014   7.5399992  90.9469978 109.6700014
   6.1319992  90.3979978 109.5690014   6.9653176  90.3103161 109.8018409
   8.4399992  87.8369978 109.4470014   8.1989992  88.7619978 109.4880014
   7.6989992  87.3779978 109.8430014   8.3068390  87.9016403 109.5061404
   8.9539992  91.9859978 115.7620014   9.3169992  92.8399978 115.5280014
   9.4859992  91.6939978 116.5020014   9.0756090  92.0634058 115.8300219
   7.1229992  92.8579978 108.9920014   6.1729992  92.9639978 109.0430014
   7.4749992  93.6789978 109.3370014   7.0405480  92.9834438 109.0455999
  12.4979992  88.0849978 115.4620014  12.0729992  87.8569978 116.2890014
  13.0789992  87.3459978 115.2800014  12.5183930  87.9539843 115.5504732
  15.1569992  92.6369978 117.9320014  14.5549992  92.0809978 117.4360014
  15.4379992  93.3039978 117.3060014  15.1126829  92.6511613 117.7795443
   3.2789992  79.8699978 117.3390014   2.3869992  80.2079978 117.2720014
   3.1809992  79.0139978 117.7570014   3.1434965  79.8006499 117.3863044
  15.5669992  87.6859978 106.7630014  15.2899992  86.9579978 107.3190014
  16.4949992  87.8049978 106.9680014  15.6544499  87.6024213 106.8668044
   2.9309992  91.6739978 115.7740014   3.1479992  90.7419978 115.7430014
   3.1769992  91.9489978 116.6570014   2.9939809  91.5835686 115.8891691
   7.7289992  89.6959978 105.4400014   7.8759992  89.1759978 106.2300014
   7.7259992  90.6029978 105.7460014   7.7487300  89.7473964 105.5895895
   4.1819992  86.9479978 105.9500014   3.4959992  87.3009978 106.5170014
   4.7049992  87.7109978 105.7040014   4.1589033  87.0993746 105.9942661
  12.0139992  79.6109978 116.2290014  12.7129992  79.6849978 116.8790014
  11.6329992  78.7459978 116.3830014  12.0582097  79.5042389 116.3387997
  12.7979992  79.2629978 107.3260014  13.0179992  79.7339978 106.5230014
  13.3569992  79.6569978 107.9960014  12.9036730  79.3807432 107.3065906
  10.4669992  91.3929978 106.1890014   9.6499992  91.8899978 106.2410014
  10.9959992  91.8689978 105.5490014  10.4268508  91.5252543 106.1096035
   9.9979992  80.9909978 108.1610014  10.8099992  81.4949978 108.2070014
   9.7539992  80.8459978 109.0750014  10.0761467  81.0403749 108.2908575
  10.5339992  81.9769978 117.3460014  10.6529992  82.5509978 118.1030014
  11.1889992  81.2889978 117.4600014  10.6389146  81.9625574 117.4651313
  10.8819992  78.0719978 109.0990014  10.5349992  78.6889978 109.7440014
  11.5409992  78.5729978 108.6180014  10.9235949  78.2241099 109.1222271
   7.8049992  92.4369978 106.1710014   7.9659992  93.2369978 105.6700014
   7.6079992  92.7439978 107.0560014   7.8003919  92.5879129 106.2221006
   6.5399992  79.1349978 105.7860014   6.4559992  80.0229978 106.1330014
   7.4299992  78.8699978 106.0180014   6.6488163  79.2207179 105.8648596
  16.7379992  79.8839978 118.1810014  15.8219992  80.1459978 118.0930014
  17.0739992  79.8809978 117.2840014  16.6579789  79.9194626 118.0477847
  15.3409992  83.6339978 112.2760014  14.5429992  83.2189978 111.9480014
  15.7859992  82.9439978 112.7670014  15.2919684  83.4838628 112.2975227
   4.7979992  89.5619978 104.8470014   5.3899992  90.2619978 105.1230014
   5.2569992  89.1289978 104.1270014   4.9410791  89.5992908 104.7874607
  16.4269992  92.8899978 113.8990014  16.2709992  93.5689978 113.2420014
  17.3599992  92.9619978 114.1020014  16.5317387  92.9926390 113.8365342
   3.9219992  77.0079978 112.6360014   3.6929992  77.0669978 111.7080014
   3.4799992  76.2169978 112.9420014   3.8308801  76.9090540 112.5504729
   2.8529992  90.9489978 108.7960014   2.0199992  91.4209978 108.8240014
   3.3979992  91.4589978 108.1980014   2.8127590  91.0825897 108.7189194
   2.1409992  93.5609978 120.1260014   2.6809992  93.3449978 120.8860014
   1.6599992  92.7559978 119.9370014   2.1498613  93.4225400 120.2044782
   6.7379992  92.4809978 121.7470014   7.5059992  92.0219978 122.0880014
   6.7169992  92.2549978 120.8170014   6.8402135  92.3876668 121.6679491
  13.3149992  90.8609978 120.4760014  12.9639992  90.0039978 120.7190014
  14.0409992  91.0029978 121.0830014  13.3651590  90.7630178 120.5912907
   2.0479992  87.3719978 121.0810014   2.1919992  86.4699978 120.7940014
   1.2759992  87.6579978 120.5930014   1.9633303  87.2873243 120.9757908
   8.7029992  87.3409978 120.5130014   8.3749992  87.6119978 119.6560014
   8.8549992  86.3999978 120.4260014   8.6786030  87.2508973 120.3837945
  14.4379992  87.2569978 117.8970014  15.1829992  87.8459978 117.7770014
  13.6809992  87.8389978 117.9600014  14.4375205  87.4161997 117.8891119
   2.8809992  84.5719978 120.5010014   3.2889992  83.7149978 120.3800014
   2.6199992  84.5859978 121.4220014   2.9016016  84.4565119 120.6089192
   7.5389992  85.6879978 105.5190014   7.0789992  85.2039978 106.2050014
   7.7939992  85.0189978 104.8830014   7.5105038  85.5313689 105.5269447
   6.8279992  83.5809978 117.8750014   6.2089992  84.2549978 118.1550014
   7.1719992  83.9019978 117.0420014   6.7897605  83.7167198 117.8006707
   8.6099992  83.9309978 103.7810014   8.4289992  83.7759978 102.8540014
   9.5599992  84.0389978 103.8260014   8.7136566  83.9243669 103.6600929
  11.8469992  86.0519978 121.1520014  12.8009992  86.1359978 121.1250014
  11.6869992  85.3399978 121.7720014  11.9557182  85.9672842 121.2320733
   7.1669992  80.9359978 118.9570014   7.3169992  80.2069978 118.3550014
   7.1689992  81.7129978 118.3980014   7.1877967  80.9412708 118.7990541
   7.5799992  79.3049978 116.4500014   8.1149992  79.7569978 115.7980014
   6.7269992  79.1969978 116.0270014   7.5380374  79.3522665 116.3036710
   9.1609992  84.7449978 116.6890014   9.9119992  84.5889978 116.1160014
   8.8219992  85.5969978 116.4140014   9.2179587  84.8388138 116.5734078
  13.5769992  82.5599978 121.7180014  13.7689992  81.6289978 121.6060014
  14.4349992  82.9849978 121.7080014  13.7192269  82.4899928 121.7013192
  14.8939992  85.3489978 119.7950014  14.6119992  86.0579978 119.2180014
  15.8359992  85.2759978 119.6440014  14.9827656  85.4363128 119.6954809
   5.6459992  82.1339978 120.8690014   4.8779992  81.6009978 120.6590014
   6.3239992  81.8239978 120.2690014   5.6326973  82.0192375 120.7591796
   8.3849992  76.7619978 116.8810014   8.2869992  77.7079978 116.7760014
   7.6429992  76.3889978 116.4060014   8.2711913  76.8411813 116.8023539
   9.6489992  81.0829978 120.4450014   9.4139992  80.8639978 121.3470014
   8.8659992  80.8759978 119.9350014   9.5109219  81.0250066 120.4995852
  12.3649992  80.2109978 119.5210014  11.4169992  80.2429978 119.6530014
  12.6769992  79.5849978 120.1740014  12.2775190  80.1307262 119.6273564
  13.9989992  78.8449978 121.5260014  13.9019992  77.8929978 121.5200014
  13.6769992  79.1129978 122.3860014  13.9421761  78.7509744 121.6414936
   3.8259992  80.0539978 120.5730014   4.0379992  79.3479978 119.9630014
   3.7149992  79.6169978 121.4170014   3.8400269  79.8981921 120.6035873
   8.6069992  76.0559978 119.5530014   9.3189992  75.4159978 119.5390014
   8.5059992  76.3219978 118.6390014   8.6907261  76.0044190 119.4275537
   8.9609992  77.7379978 121.6060014   8.8289992  77.2629978 120.7860014
   8.3609992  78.4829978 121.5510014   8.8619070  77.7735789 121.4863251
   8.5069992  94.6209978 104.7830014   9.4399992  94.7789978 104.9260014
   8.2429992  95.2969978 104.1580014   8.5989308  94.7339104 104.7181396
   2.0749992  89.2579978 104.2650014   2.9889992  89.3369978 104.5390014
   2.0829992  88.5709978 103.5990014   2.2011143  89.1759085 104.2124274
   0.7239992  94.6509978 109.3430014   0.0769992  94.1889978 108.8100014
   1.0789992  93.9789978 109.9250014   0.6834506  94.4969503 109.3487341
   1.5939992  92.7309978 111.1470014   1.2599992  91.8509978 111.3190014
   1.8169992  93.0769978 112.0120014   1.5783721  92.6571938 111.2874168
  19.1429992  93.5409978 114.1280014  19.1209992  93.7259978 115.0670014
  19.8329992  94.1089978 113.7870014  19.2333439  93.6431887 114.2104791
  18.7059992  93.1079978 117.0500014  18.2189992  92.3729978 116.6790014
  19.2549992  92.7139978 117.7280014  18.7135247  92.9541057 117.0908461
  17.1569992  88.8979978 121.6880014  16.2909992  88.7929978 122.0820014
  17.5329992  89.6559978 122.1340014  17.0893401  88.9861708 121.8022620
  18.4579992  87.1539978 107.2020014  19.3079992  87.5749978 107.3290014
  18.4629992  86.4139978 107.8090014  18.5751143  87.1116094 107.3014750
  18.8519992  85.2079978 109.0260014  18.1259992  84.7279978 109.4230014
  19.4339992  85.4129978 109.7580014  18.8311635  85.1699166 109.1793748
  18.6109992  87.9929978 113.9730014  19.4449992  87.6149978 113.6930014
  18.7229992  88.9359978 113.8540014  18.7402522  88.0687742 113.9186020
  17.0979992  90.8709978 116.2800014  16.4499992  91.1959978 116.9060014
  16.5799992  90.4299978 115.6060014  16.9394168  90.8558523 116.2745307
  19.1209992  85.1089978 105.4170014  18.5989992  85.4649978 104.6980014
  19.0879992  85.7839978 106.0950014  19.0450699  85.2489848 105.4102129
  16.6389992  83.7289978 109.5890014  16.4889992  82.7839978 109.5680014
  16.2849992  84.0099978 110.4320014  16.5705527  83.6375605 109.7001859
   1.6739992  85.8069978 113.5990014   1.8589992  85.7249978 112.6630014
   2.5239992  85.6829978 114.0230014   1.8140916  85.7790393 113.5282896
  17.4949992  85.6989978 119.2270014  18.0779992  84.9639978 119.4190014
  18.0589992  86.4709978 119.2740014  17.6509781  85.7028145 119.2596164
  18.9919992  83.6019978 119.9120014  18.1289992  83.2229978 119.7460014
  19.5959992  82.8629978 119.8380014  18.9555944  83.4502978 119.8792984
  16.3499992  81.3109978 108.0510014  16.6289992  80.4039978 108.1750014
  17.1089992  81.7449978 107.6620014  16.4908619  81.2454502 108.0153795
  16.9609992  81.8929978 113.4870014  17.8939992  82.1049978 113.4530014
  16.7259992  81.9939978 114.4090014  17.0568308  81.9356503 113.6070214
  16.9909992  82.6299978 116.2630014  16.1479992  82.8979978 116.6290014
  17.4329992  83.4519978 116.0520014  16.9354138  82.7778273 116.2845518
   1.2719992  81.0769978 119.7400014   2.1909992  80.9549978 119.9760014
   0.8219992  80.3269978 120.1290014   1.3371148  80.9588751 119.8249408
  19.2739992  76.6099978 121.6160014  19.6229992  75.9559978 121.0110014
  19.4209992  77.4469978 121.1770014  19.3417355  76.6336067 121.4736564
  16.9629992  78.5739978 108.0990014  17.1449992  78.1249978 108.9250014
  16.3629992  77.9899978 107.6360014  16.9067529  78.4336131 108.1493619
   2.4929992  79.3899978 112.6310014   2.9379992  78.5979978 112.9330014
   2.9589992  80.1059978 113.0620014   2.6169059  79.3784474 112.7306079
   0.7969992  82.3889978 113.7000014   1.2889992  82.1679978 112.9090014
   1.1589992  83.2289978 113.9810014   0.9132923  82.4723468 113.6297407
  18.7929992  78.7189978 119.9660014  17.8759992  78.9899978 119.9300014
  18.9159992  78.1839978 119.1820014  18.6840828  78.6837700 119.8550785
   1.1109992  78.6469978 107.7540014   0.1859992  78.8549978 107.6250014
   1.5649992  79.1309978 107.0650014   1.0456374  78.7409949 107.6430957
  15.8809992  93.6309978 109.7000014  16.5339992  93.2829978 109.0920014
  16.3919992  94.1189978 110.3460014  16.0392777  93.6493815 109.7042047
   1.0739992  77.3849978 116.0990014   0.4089992  77.1389978 116.7420014
   0.6309992  78.0069978 115.5210014   0.9230937  77.4353614 116.1089379
   3.2659992  90.5599978 120.2430014   2.4449992  90.7349978 119.7830014
   3.0139992  90.4869978 121.1640014   3.1196173  90.5740794 120.3044972
   6.2199992  91.5339978 116.5020014   5.7959992  92.3439978 116.2190014
   7.1249992  91.6199978 116.2000014   6.2842433  91.6563331 116.4225377
  10.5319992  92.9329978 119.4610014  10.7159992  92.5999978 120.3390014
  11.3779992  93.2429978 119.1390014  10.6716484  92.9292979 119.5377617
  12.8769992  94.2189978 118.7050014  13.5539992  93.5859978 118.4650014
  13.1979992  94.6199978 119.5120014  13.0131323  94.1865691 118.7813158
  17.7939992  76.8089978 117.7850014  16.9809992  77.1339978 117.3970014
  18.0269992  76.0479978 117.2520014  17.7142566  76.7506559 117.6599213
   3.6219992  94.7909978 116.5490014   2.9019992  95.2309978 116.0980014
   3.2569992  94.5399978 117.3980014   3.4739796  94.8173824 116.6019329
   6.0889992  94.3909978 115.5790014   5.2249992  94.4629978 115.9830014
   6.0339992  94.9379978 114.7950014   5.9631942  94.4747849 115.5284000
  10.7999992  94.2789978 114.7540014  10.3429992  94.8079978 114.1000014
  10.9629992  94.8819978 115.4800014  10.7594476  94.4329140 114.7625499
  13.1279992  93.1569978 115.6990014  12.2229992  93.3219978 115.4340014
  13.5559992  94.0099978 115.6340014  13.0620700  93.2949529 115.6539520
  15.7319992  94.7269978 115.9940014  15.5499992  95.6429978 115.7840014
  15.9089992  94.3159978 115.1480014  15.7309907  94.7969741 115.8507883
   3.0369992  93.4139978 113.4590014   3.0189992  92.9879978 114.3170014
   3.8419992  93.0949978 113.0510014   3.1433221  93.3127233 113.5210225
   5.1779992  92.1239978 112.1140014   4.9589992  91.2069978 112.2840014
   6.0019992  92.2639978 112.5800014   5.2594702  92.0175511 112.2002527
   7.7149992  92.5939978 112.9630014   7.9279992  91.7059978 112.6760014
   7.7799992  92.5589978 113.9180014   7.7529075  92.4678307 113.0527373
  11.2239992  78.2579978 112.1070014  10.5499992  77.6279978 112.3630014
  11.7879992  77.7739978 111.5040014  11.2080384  78.1063708 112.0605020
  16.3669992  76.3649978 112.2200014  16.9699992  76.9129978 111.7180014
  15.4969992  76.6839978 111.9800014  16.3319190  76.4831041 112.1188679
  18.0939992  77.5039978 110.5530014  18.7049992  76.9899978 110.0270014
  18.4759992  78.3809978 110.5770014  18.2294475  77.5521323 110.4841208
   3.5509992  76.8919978 109.9290014   2.7739992  76.6569978 109.4220014
   4.0809992  76.0949978 109.9380014   3.5163451  76.7521268 109.8608627
   2.3869992  76.6899978 105.7330014   2.8259992  77.3009978 105.1410014
   1.7529992  77.2279978 106.2070014   2.3613859  76.8464064 105.7160305
   8.1299992  76.8179978 109.7430014   9.0039992  77.2069978 109.7130014
   7.9939992  76.6029978 110.6650014   8.2313207  76.8421923 109.8636509
  13.6869992  76.8479978 111.3920014  13.7629992  76.9439978 110.4430014
  13.4119992  75.9409978 111.5210014  13.6602042  76.7384241 111.2793811
  15.0399992  76.8739978 107.0840014  14.3369992  77.4889978 106.8750014
  14.5949992  76.0369978 107.2160014  14.8836292  76.8450085 107.0732439
   4.2479992  78.6059978 104.1750014   4.7389992  77.9759978 103.6480014
   4.8709992  78.9019978 104.8390014   4.3995062  78.5596770 104.1925438
   9.2739992  78.8989978 106.6330014   9.4519992  78.2519978 107.3150014
   9.2199992  79.7329978 107.1000014   9.2911025  78.9230504 106.7896433
  11.1519992  93.8469978 105.0280014  12.0179992  94.2139978 104.8500014
  10.9059992  93.4079978 104.2140014  11.2372097  93.8378525 104.8936019
  17.8609992  93.4099978 107.7070014  17.6669992  92.6619978 107.1420014
  17.8219992  94.1679978 107.1240014  17.8291645  93.4100786 107.5508148
   3.5079992  77.4059978 119.4470014   3.1419992  76.6399978 119.8900014
   4.4209992  77.4349978 119.7340014   3.5813225  77.3051906 119.5463459
   5.4809992  76.7559978 120.9830014   6.3799992  76.4819978 120.7980014
   5.0949992  76.0139978 121.4470014   5.5517237  76.6181508 121.0204710
  13.9029992  76.0889978 121.1650014  13.9789992  75.6629978 122.0190014
  14.7959992  76.1019978 120.8220014  14.0342267  76.0323952 121.2355932
  17.0789992  92.1619978 119.8570014  16.2969992  91.9749978 119.3380014
  17.0069992  93.0909978 120.0750014  16.9620863  92.2620221 119.8153574
  31.4849992  86.0479978 109.8880014  31.5739992  86.9919978 109.7560014
  30.8469992  85.7729978 109.2300014  31.4109062  86.1399812 109.7809641
  30.4179992  85.3029978 113.3070014  30.3799992  84.6569978 114.0120014
  30.0959992  84.8359978 112.5360014  30.3692679  85.1514276 113.2992921
  22.7859992  84.9169978 114.9000014  22.8279992  84.2919978 115.6230014
  23.4889992  85.5409978 115.0820014  22.8867345  84.9157873 115.0235273
  34.1239992  88.2419978 111.6090014  33.6829992  87.5219978 112.0590014
  34.1109992  88.9629978 112.2380014  34.0617960  88.2408329 111.7557567
  23.7099992  89.3669978 113.4350014  23.3399992  88.5649978 113.0650014
  24.6509992  89.1989978 113.4810014  23.7865984  89.2344638 113.3905603
  20.3199992  83.0269978 108.8280014  19.8719992  83.8729978 108.8090014
  19.7589992  82.4479978 108.3120014  20.1829603  83.0643674 108.7556720
  21.0299992  85.1889978 110.9540014  21.2439992  84.4189978 111.4810014
  21.7679992  85.2789978 110.3500014  21.1589652  85.0958012 110.9445212
  31.2359992  93.3459978 111.8210014  31.8549992  92.6699978 111.5470014
  31.0269992  93.1279978 112.7290014  31.2926232  93.2237938 111.9062517
  28.8069992  87.7349978 113.7130014  29.1109992  87.0489978 113.1190014
  29.5289992  87.8539978 114.3310014  28.9461152  87.6572189 113.7152123
  37.4699992  79.3369978 114.5740014  37.5199992  79.9469978 115.3100014
  37.8959992  79.7979978 113.8510014  37.5344108  79.4827709 114.5770112
  31.9479992  82.1289978 114.0410014  32.0909992  81.1829978 114.0610014
  31.8419992  82.3359978 113.1120014  31.9532509  82.0274813 113.9182231
  25.1029992  80.2309978 111.3130014  25.1459992  81.0909978 110.8950014
  24.6449992  79.6789978 110.6790014  25.0469815  80.2740621 111.1701197
  32.8249992  80.3619978 109.7140014  33.4719992  80.0329978 110.3390014
  33.3349992  80.8789978 109.0910014  32.9824317  80.3869227 109.7152167
  21.7229992  82.6279978 112.0750014  22.3769992  82.0779978 112.5070014
  21.7469992  82.3539978 111.1580014  21.8157199  82.5157167 112.0101668
  26.8799992  84.1779978 111.2900014  27.4959992  83.6509978 111.8000014
  26.2929992  83.5379978 110.8870014  26.8849239  84.0194117 111.3052952
  37.8619992  80.8149978 116.8100014  37.1729992  81.4729978 116.7140014
  37.8769992  80.6169978 117.7460014  37.7696740  80.8783243 116.9234630
  23.9129992  79.1489978 115.3870014  23.6939992  79.6789978 114.6210014
  23.2449992  79.3749978 116.0340014  23.7927001  79.2521154 115.3696064
  31.2819992  88.6489978 108.9310014  30.9869992  88.3259978 108.0800014
  30.9579992  89.5489978 108.9720014  31.1977983  88.7264027 108.8199771
  26.4819992  86.8239978 115.6750014  25.7419992  87.4229978 115.7780014
  27.1959992  87.3779978 115.3590014  26.4773288  86.9807356 115.6463805
  34.5889992  79.6529978 111.6940014  34.3739992  78.8869978 112.2270014
  35.2449992  80.1249978 112.2070014  34.6482673  79.6120728 111.8361990
  23.5069992  81.0409978 113.3390014  24.1209992  81.6739978 113.7130014
  24.0189992  80.5689978 112.6830014  23.6602277  81.0637352 113.3014279
  24.8899992  88.7889978 116.4620014  24.8839992  89.6679978 116.0840014
  24.0359992  88.7049978 116.8870014  24.7737925  88.8979535 116.4676887
  21.0109992  88.4599978 107.2440014  20.7389992  88.6889978 106.3550014
  21.0559992  89.2969978 107.7040014  20.9798709  88.6046058 107.1846107
  34.6359992  90.0809978 113.9560014  33.6939992  90.1399978 114.1180014
  34.9119992  90.9869978 113.8190014  34.5445865  90.2115288 113.9596192
  34.9359992  78.3679978 115.3740014  34.1999992  78.9779978 115.3360014
  35.6199992  78.7829978 114.8470014  34.9275506  78.5076400 115.2976051
  27.9399992  76.4539978 112.8400014  27.8219992  75.5059978 112.7850014
  27.0849992  76.7869978 113.1130014  27.8082679  76.3691926 112.8693720
  32.8879992  91.8619978 110.5820014  33.3129992  91.1549978 110.0970014
  33.2049992  92.6639978 110.1650014  32.9890266  91.8735190 110.4592479
  34.0479992  89.7629978 109.0900014  33.7899992  89.0729978 108.4790014
  34.1189992  89.3199978 109.9360014  34.0222837  89.6087106 109.1206912
  35.7339992  88.3299978 117.5680014  35.8729992  87.7379978 116.8280014
  35.9009992  89.2029978 117.2110014  35.7755562  88.3669896 117.4186283
  30.2059992  85.2919978 107.3400014  29.4949992  85.8269978 106.9880014
  30.8969992  85.3469978 106.6800014  30.2020751  85.3726777 107.2025858
  37.5749992  84.6699978 115.6340014  36.9229992  85.3639978 115.7230014
  38.0409992  84.8799978 114.8240014  37.5485937  84.7935019 115.5367533
  33.6119992  85.5009978 108.2920014  32.8799992  85.7299978 108.8650014
  34.0589992  84.7879978 108.7470014  33.5722753  85.4358972 108.4319715
  33.5089992  83.6759978 117.3600014  33.5889992  84.4389978 117.9310014
  32.9079992  83.9549978 116.6690014  33.4387245  83.8182630 117.3448424
  25.2569992  86.1319978 110.1740014  24.9269992  85.7609978 109.3560014
  25.8459992  85.4609978 110.5210014  25.2913970  85.9906063 110.1089404
  26.6239992  89.5599978 112.8560014  26.5289992  88.9809978 112.0990014
  27.3529992  89.1889978 113.3520014  26.7096161  89.4305891 112.8195209
  25.6239992  84.8999978 113.8080014  26.1889992  85.0219978 113.0450014
  25.9429992  85.5379978 114.4470014  25.7443977  85.0028851 113.7899424
  31.9329992  90.4039978 114.5420014  31.6929992  91.0659978 115.1900014
  31.7349992  89.5689978 114.9670014  31.8733826  90.3818115 114.6881566
  26.5039992  89.2999978 118.5250014  26.1929992  90.0819978 118.9800014
  25.8539992  89.1469978 117.8390014  26.3735538  89.3864087 118.4945898
  32.4829992  84.6639978 105.9770014  33.0619992  84.8139978 106.7240014
  32.8969992  85.1339978 105.2540014  32.6183122  84.7481277 105.9815042
  23.4239992  85.4979978 117.7540014  23.4939992  86.1489978 118.4520014
  22.5329992  85.6009978 117.4190014  23.3131802  85.6009757 117.8042249
  30.2089992  91.3999978 109.4120014  30.6829992  91.6959978 110.1900014
  29.6459992  92.1389978 109.1790014  30.1977361  91.5402721 109.4868611
  24.7429992  91.3709978 119.2880014  24.7509992  91.2349978 118.3410014
  23.8269992  91.2539978 119.5400014  24.6202528  91.3365463 119.1923243
  36.1819992  76.4139978 105.7900014  35.2819992  76.5529978 106.0850014
  36.4339992  77.2449978 105.3880014  36.0928683  76.5454055 105.7760232
  24.2479992  85.2009978 107.7640014  23.9559992  85.9689978 107.2730014
  23.5729992  84.5419978 107.6010014  24.1168497  85.2169745 107.6748260
  20.3409992  87.5639978 116.5790014  19.8389992  87.5359978 115.7640014
  20.3459992  86.6589978 116.8880014  20.2730416  87.4377368 116.5093766
  20.0909992  90.3449978 113.4630014  21.0369992  90.1999978 113.4440014
  19.9779992  91.1289978 114.0000014  20.2053578  90.4311697 113.5330317
  38.2889992  91.0109978 119.1450014  38.2389992  90.0549978 119.1080014
  37.4619992  91.2779978 119.5460014  38.1703987  90.9165174 119.1941446
  29.2669992  90.5849978 118.0210014  29.3549992  91.4109978 118.4960014
  28.4039992  90.2549978 118.2700014  29.1623357  90.6535468 118.1197653
  29.6819992  94.3569978 107.8270014  29.6059992  94.2359978 106.8810014
  29.7139992  95.3059978 107.9460014  29.6759156  94.4687530 107.7135048
  23.3349992  93.1459978 109.6080014  23.4869992  92.7979978 110.4870014
  22.4839992  92.7889978 109.3530014  23.2407899  93.0501738 109.6937340
  32.7829992  93.5109978 104.8290014  33.1579992  92.7669978 104.3590014
  32.7879992  93.2409978 105.7480014  32.8350024  93.3726950 104.8887987
  32.4519992  93.4369978 107.5790014  31.5169992  93.5369978 107.7570014
  32.7319992  92.7269978 108.1570014  32.3618173  93.3547239 107.6814998
  35.4409992  82.5039978 119.6250014  35.0329992  82.9839978 118.9050014
  35.4809992  81.5979978 119.3170014  35.3905476  82.4473160 119.4848247
  22.5899992  88.8879978 117.6220014  22.8059992  88.5259978 118.4810014
  21.7339992  88.5129978 117.4120014  22.5039354  88.7877906 117.7112160
  25.2079992  77.3579978 113.6170014  24.3469992  77.2709978 113.2100014
  25.1859992  78.2139978 114.0450014  25.0870411  77.4617884 113.6190857
  29.8709992  77.0799978 116.9920014  30.2909992  76.6649978 117.7450014
  28.9379992  76.9009978 117.1090014  29.8023736  76.9989910 117.1108968
  33.1979992  80.8349978 117.8450014  32.6839992  80.7099978 118.6430014
  33.0419992  81.7479978 117.6010014  33.1066967  80.9412123 117.9210937
  33.9599992  85.6959978 103.6070014  34.0019992  85.4739978 102.6770014
  34.8089992  86.0949978 103.7970014  34.0805253  85.7195498 103.5053822
  25.2989992  82.3229978 114.7120014  24.6579992  82.2829978 115.4210014
  25.3369992  83.2499978 114.4750014  25.2163670  82.4427795 114.7770550
  25.2959992  82.5439978 109.6240014  24.4039992  82.2039978 109.5660014
  25.7469992  82.1669978 108.8690014  25.2346815  82.4463762 109.5139203
  30.8319992  82.9599978 108.4410014  30.4229992  83.7749978 108.1500014
  31.5519992  82.8199978 107.8270014  30.8734013  83.0526571 108.3180875
  29.9339992  83.1359978 119.9290014  29.3709992  82.4309978 120.2500014
  30.7599992  83.0149978 120.3970014  29.9686674  83.0232165 120.0361751
  31.8369992  82.4059978 111.2550014  31.6409992  83.0119978 110.5400014
  32.0179992  81.5729978 110.8210014  31.8346584  82.3762513 111.0984212
  23.0489992  82.6439978 116.5790014  23.0109992  83.0439978 117.4480014
  22.5589992  81.8269978 116.6700014  22.9775621  82.5882510 116.7101377
  19.6579992  79.7599978 110.4300014  20.2879992  79.7309978 111.1490014
  20.1069992  79.3349978 109.7000014  19.8050692  79.6985316 110.4297771
  20.9319992  80.5059978 105.8540014  21.4059992  81.0969978 105.2690014
  20.2139992  81.0359978 106.2010014  20.8998640  80.6585511 105.8207969
  31.1009992  84.0439978 115.9270014  31.4239992  83.4129978 115.2840014
  30.6599992  83.5099978 116.5870014  31.0855789  83.8853522 115.9282232
  27.8779992  79.9719978 110.7110014  26.9669992  80.0289978 110.9990014
  28.3829992  79.9119978 111.5210014  27.8215387  79.9716870 110.8600646
  22.7059992  81.6009978 109.5370014  21.8169992  81.6999978 109.1970014
  23.0029992  80.7589978 109.1910014  22.6244177  81.5007687 109.4436940
  26.3589992  81.6009978 107.1940014  27.2909992  81.7299978 107.3720014
  26.1439992  82.2699978 106.5440014  26.4574472  81.7090806 107.1304891
  32.2829992  79.2069978 113.9750014  31.6059992  79.3379978 114.6390014
  31.7979992  79.0519978 113.1650014  32.1247265  79.2039659 113.9563397
  35.5709992  94.8779978 120.2520014  35.7699992  95.3019978 119.4170014
  36.2259992  95.2219978 120.8590014  35.6868501  94.9826091 120.2197097
  23.1689992  87.3519978 119.8600014  23.9009992  87.6069978 120.4210014
  22.3879992  87.5569978 120.3750014  23.1637684  87.4146468 120.0064782
  29.1979992  82.7589978 112.5980014  29.7619992  82.2129978 112.0510014
  29.0499992  82.2379978 113.3860014  29.2552575  82.6136552 112.6296987
  24.1999992  78.8959978 109.0160014  23.8829992  77.9929978 108.9810014
  24.9809992  78.8979978 108.4630014  24.2622307  78.7726951 108.9364314
  27.8239992  81.1479978 115.0120014  26.9889992  81.6019978 115.1220014
  28.3479992  81.4239978 115.7640014  27.7805070  81.2474666 115.1287152
  28.3689992  87.3609978 106.6960014  27.6239992  86.8529978 106.3740014
  28.2339992  87.4099978 107.6430014  28.2489047  87.2981596 106.7798845
  35.5189992  86.4939978 115.4830014  36.1599992  86.9499978 114.9390014
  34.6879992  86.6069978 115.0210014  35.4945171  86.5717502 115.3460237
  32.2659992  80.1749978 104.8960014  31.3279992  80.2859978 104.7440014
  32.5639992  81.0309978 105.2020014  32.1776402  80.3060621 104.9165571
  29.8879992  87.5449978 117.9330014  29.5419992  87.1629978 118.7400014
  29.6879992  88.4779978 118.0050014  29.8136523  87.6189095 118.0530735
  32.9849992  82.0419978 106.5560014  33.8769992  81.9039978 106.8750014
  33.0409992  82.8329978 106.0200014  33.1147107  82.1300526 106.5272091
  23.4929992  86.6559978 112.4660014  24.2379992  86.6529978 111.8650014
  23.5709992  85.8319978 112.9480014  23.6054158  86.5442916 112.4489153
  30.4939992  88.8189978 105.7220014  30.1989992  89.6459978 106.1030014
  29.7909992  88.1999978 105.9180014  30.3585471  88.8485227 105.8006698
  20.5009992  85.1159978 117.7810014  20.7239992  84.6979978 118.6130014
  19.8989992  84.5039978 117.3580014  20.4501260  84.9759933 117.8377320
  27.5179992  84.6329978 119.9940014  27.2219992  84.4679978 119.0990014
  28.4489992  84.4129978 119.9830014  27.6033982  84.5806578 119.8700045
  32.1379992  90.0069978 117.8840014  31.2379992  90.1899978 117.6160014
  32.1719992  90.2659978 118.8050014  32.0192909  90.0670815 117.9717852
  37.8699992  82.2509978 106.2510014  37.3149992  81.8549978 105.5790014
  37.9699992  83.1619978 105.9730014  37.8075888  82.3198990 106.1215206
  37.8329992  88.0519978 119.0880014  36.9819992  88.2899978 118.7210014
  38.4229992  88.0349978 118.3350014  37.7962408  88.0822966 118.9358879
  36.1649992  91.0369978 106.7160014  35.7919992  90.2119978 107.0250014
  36.4419992  90.8539978 105.8190014  36.1513871  90.8992441 106.6369677
  33.3249992  85.8449978 113.7370014  32.3969992  85.6139978 113.7100014
  33.7759992  85.0679978 113.4070014  33.2588165  85.7082774 113.6886790
  25.8679992  90.1739978 109.8700014  26.3959992  90.9469978 109.6700014
  24.9879992  90.3979978 109.5690014  25.8213176  90.3103161 109.8018409
  27.2959992  87.8369978 109.4470014  27.0549992  88.7619978 109.4880014
  26.5549992  87.3779978 109.8430014  27.1628390  87.9016403 109.5061404
  27.8099992  91.9859978 115.7620014  28.1729992  92.8399978 115.5280014
  28.3419992  91.6939978 116.5020014  27.9316090  92.0634058 115.8300219
  25.9789992  92.8579978 108.9920014  25.0289992  92.9639978 109.0430014
  26.3309992  93.6789978 109.3370014  25.8965480  92.9834438 109.0455999
  31.3539992  88.0849978 115.4620014  30.9289992  87.8569978 116.2890014
  31.9349992  87.3459978 115.2800014  31.3743930  87.9539843 115.5504732
  34.0129992  92.6369978 117.9320014  33.4109992  92.0809978 117.4360014
  34.2939992  93.3039978 117.3060014  33.9686829  92.6511613 117.7795443
  38.0609992  93.4929978 104.7370014  38.8049992  94.0789978 104.5970014
  37.3669992  94.0619978 105.0710014  38.0690201  93.6500603 104.7629772
  22.1349992  79.8699978 117.3390014  21.2429992  80.2079978 117.2720014
  22.0369992  79.0139978 117.7570014  21.9994965  79.8006499 117.3863044
  21.7869992  91.6739978 115.7740014  22.0039992  90.7419978 115.7430014
  22.0329992  91.9489978 116.6570014  21.8499809  91.5835686 115.8891691
  27.6479992  90.1259978 102.9830014  27.8869992  89.3769978 102.4360014
  27.3789992  89.7379978 103.8160014  27.6443233  89.9711853 103.0207809
  26.5849992  89.6959978 105.4400014  26.7319992  89.1759978 106.2300014
  26.5819992  90.6029978 105.7460014  26.6047300  89.7473964 105.5895895
  23.0379992  86.9479978 105.9500014  22.3519992  87.3009978 106.5170014
  23.5609992  87.7109978 105.7040014  23.0149033  87.0993746 105.9942661
  30.8699992  79.6109978 116.2290014  31.5689992  79.6849978 116.8790014
  30.4889992  78.7459978 116.3830014  30.9142097  79.5042389 116.3387997
  31.6539992  79.2629978 107.3260014  31.8739992  79.7339978 106.5230014
  32.2129992  79.6569978 107.9960014  31.7596730  79.3807432 107.3065906
  29.3229992  91.3929978 106.1890014  28.5059992  91.8899978 106.2410014
  29.8519992  91.8689978 105.5490014  29.2828508  91.5252543 106.1096035
  28.8539992  80.9909978 108.1610014  29.6659992  81.4949978 108.2070014
  28.6099992  80.8459978 109.0750014  28.9321467  81.0403749 108.2908575
  29.3899992  81.9769978 117.3460014  29.5089992  82.5509978 118.1030014
  30.0449992  81.2889978 117.4600014  29.4949146  81.9625574 117.4651314
  29.7379992  78.0719978 109.0990014  29.3909992  78.6889978 109.7440014
  30.3969992  78.5729978 108.6180014  29.7795949  78.2241099 109.1222271
  26.6609992  92.4369978 106.1710014  26.8219992  93.2369978 105.6700014
  26.4639992  92.7439978 107.0560014  26.6563919  92.5879129 106.2221006
  35.5939992  79.8839978 118.1810014  34.6779992  80.1459978 118.0930014
  35.9299992  79.8809978 117.2840014  35.5139789  79.9194626 118.0477847
  34.1969992  83.6339978 112.2760014  33.3989992  83.2189978 111.9480014
  34.6419992  82.9439978 112.7670014  34.1479684  83.4838628 112.2975227
  23.6539992  89.5619978 104.8470014  24.2459992  90.2619978 105.1230014
  24.1129992  89.1289978 104.1270014  23.7970791  89.5992908 104.7874607
  35.2829992  92.8899978 113.8990014  35.1269992  93.5689978 113.2420014
  36.2159992  92.9619978 114.1020014  35.3877387  92.9926390 113.8365342
  22.7779992  77.0079978 112.6360014  22.5489992  77.0669978 111.7080014
  22.3359992  76.2169978 112.9420014  22.6868801  76.9090540 112.5504729
  21.7089992  90.9489978 108.7960014  20.8759992  91.4209978 108.8240014
  22.2539992  91.4589978 108.1980014  21.6687590  91.0825897 108.7189194
  20.9969992  93.5609978 120.1260014  21.5369992  93.3449978 120.8860014
  20.5159992  92.7559978 119.9370014  21.0058613  93.4225400 120.2044782
  25.5939992  92.4809978 121.7470014  26.3619992  92.0219978 122.0880014
  25.5729992  92.2549978 120.8170014  25.6962135  92.3876668 121.6679491
  32.1709992  90.8609978 120.4760014  31.8199992  90.0039978 120.7190014
  32.8969992  91.0029978 121.0830014  32.2211590  90.7630178 120.5912907
  20.9039992  87.3719978 121.0810014  21.0479992  86.4699978 120.7940014
  20.1319992  87.6579978 120.5930014  20.8193303  87.2873243 120.9757908
  27.5589992  87.3409978 120.5130014  27.2309992  87.6119978 119.6560014
  27.7109992  86.3999978 120.4260014  27.5346030  87.2508973 120.3837945
  33.2939992  87.2569978 117.8970014  34.0389992  87.8459978 117.7770014
  32.5369992  87.8389978 117.9600014  33.2935205  87.4161997 117.8891119
  21.7369992  84.5719978 120.5010014  22.1449992  83.7149978 120.3800014
  21.4759992  84.5859978 121.4220014  21.7576016  84.4565119 120.6089192
  25.6839992  83.5809978 117.8750014  25.0649992  84.2549978 118.1550014
  26.0279992  83.9019978 117.0420014  25.6457605  83.7167198 117.8006707
  30.7029992  86.0519978 121.1520014  31.6569992  86.1359978 121.1250014
  30.5429992  85.3399978 121.7720014  30.8117182  85.9672842 121.2320733
  26.0229992  80.9359978 118.9570014  26.1729992  80.2069978 118.3550014
  26.0249992  81.7129978 118.3980014  26.0437967  80.9412708 118.7990541
  26.4359992  79.3049978 116.4500014  26.9709992  79.7569978 115.7980014
  25.5829992  79.1969978 116.0270014  26.3940374  79.3522665 116.3036710
  28.0169992  84.7449978 116.6890014  28.7679992  84.5889978 116.1160014
  27.6779992  85.5969978 116.4140014  28.0739587  84.8388138 116.5734078
  32.4329992  82.5599978 121.7180014  32.6249992  81.6289978 121.6060014
  33.2909992  82.9849978 121.7080014  32.5752269  82.4899928 121.7013192
  33.7499992  85.3489978 119.7950014  33.4679992  86.0579978 119.2180014
  34.6919992  85.2759978 119.6440014  33.8387656  85.4363128 119.6954809
  24.5019992  82.1339978 120.8690014  23.7339992  81.6009978 120.6590014
  25.1799992  81.8239978 120.2690014  24.4886973  82.0192375 120.7591796
  27.2409992  76.7619978 116.8810014  27.1429992  77.7079978 116.7760014
  26.4989992  76.3889978 116.4060014  27.1271913  76.8411813 116.8023539
  28.5049992  81.0829978 120.4450014  28.2699992  80.8639978 121.3470014
  27.7219992  80.8759978 119.9350014  28.3669219  81.0250066 120.4995852
  31.2209992  80.2109978 119.5210014  30.2729992  80.2429978 119.6530014
  31.5329992  79.5849978 120.1740014  31.1335190  80.1307262 119.6273564
  32.8549992  78.8449978 121.5260014  32.7579992  77.8929978 121.5200014
  32.5329992  79.1129978 122.3860014  32.7981761  78.7509744 121.6414936
  22.6819992  80.0539978 120.5730014  22.8939992  79.3479978 119.9630014
  22.5709992  79.6169978 121.4170014  22.6960269  79.8981921 120.6035873
  27.4629992  76.0559978 119.5530014  28.1749992  75.4159978 119.5390014
  27.3619992  76.3219978 118.6390014  27.5467261  76.0044190 119.4275537
  27.8169992  77.7379978 121.6060014  27.6849992  77.2629978 120.7860014
  27.2169992  78.4829978 121.5510014  27.7179070  77.7735789 121.4863251
  19.5799992  94.6509978 109.3430014  18.9329992  94.1889978 108.8100014
  19.9349992  93.9789978 109.9250014  19.5394506  94.4969503 109.3487341
  20.4499992  92.7309978 111.1470014  20.1159992  91.8509978 111.3190014
  20.6729992  93.0769978 112.0120014  20.4343721  92.6571938 111.2874168
  37.9989992  93.5409978 114.1280014  37.9769992  93.7259978 115.0670014
  38.6889992  94.1089978 113.7870014  38.0893439  93.6431887 114.2104791
  37.5619992  93.1079978 117.0500014  37.0749992  92.3729978 116.6790014
  38.1109992  92.7139978 117.7280014  37.5695247  92.9541057 117.0908461
  36.0129992  88.8979978 121.6880014  35.1469992  88.7929978 122.0820014
  36.3889992  89.6559978 122.1340014  35.9453401  88.9861708 121.8022620
  37.3139992  87.1539978 107.2020014  38.1639992  87.5749978 107.3290014
  37.3189992  86.4139978 107.8090014  37.4311143  87.1116094 107.3014750
  37.7079992  85.2079978 109.0260014  36.9819992  84.7279978 109.4230014
  38.2899992  85.4129978 109.7580014  37.6871635  85.1699166 109.1793748
  37.4669992  87.9929978 113.9730014  38.3009992  87.6149978 113.6930014
  37.5789992  88.9359978 113.8540014  37.5962522  88.0687742 113.9186020
  35.9539992  90.8709978 116.2800014  35.3059992  91.1959978 116.9060014
  35.4359992  90.4299978 115.6060014  35.7954168  90.8558523 116.2745307
  37.9769992  85.1089978 105.4170014  37.4549992  85.4649978 104.6980014
  37.9439992  85.7839978 106.0950014  37.9010699  85.2489848 105.4102129
  35.4949992  83.7289978 109.5890014  35.3449992  82.7839978 109.5680014
  35.1409992  84.0099978 110.4320014  35.4265527  83.6375605 109.7001859
  20.5299992  85.8069978 113.5990014  20.7149992  85.7249978 112.6630014
  21.3799992  85.6829978 114.0230014  20.6700916  85.7790393 113.5282896
  36.3509992  85.6989978 119.2270014  36.9339992  84.9639978 119.4190014
  36.9149992  86.4709978 119.2740014  36.5069781  85.7028145 119.2596164
  37.8479992  83.6019978 119.9120014  36.9849992  83.2229978 119.7460014
  38.4519992  82.8629978 119.8380014  37.8115944  83.4502978 119.8792984
  35.2059992  81.3109978 108.0510014  35.4849992  80.4039978 108.1750014
  35.9649992  81.7449978 107.6620014  35.3468619  81.2454502 108.0153795
  35.8169992  81.8929978 113.4870014  36.7499992  82.1049978 113.4530014
  35.5819992  81.9939978 114.4090014  35.9128308  81.9356503 113.6070214
  35.8469992  82.6299978 116.2630014  35.0039992  82.8979978 116.6290014
  36.2889992  83.4519978 116.0520014  35.7914138  82.7778273 116.2845518
  20.1279992  81.0769978 119.7400014  21.0469992  80.9549978 119.9760014
  19.6779992  80.3269978 120.1290014  20.1931148  80.9588751 119.8249408
  38.1299992  76.6099978 121.6160014  38.4789992  75.9559978 121.0110014
  38.2769992  77.4469978 121.1770014  38.1977355  76.6336067 121.4736564
  35.8189992  78.5739978 108.0990014  36.0009992  78.1249978 108.9250014
  35.2189992  77.9899978 107.6360014  35.7627529  78.4336131 108.1493619
  21.3489992  79.3899978 112.6310014  21.7939992  78.5979978 112.9330014
  21.8149992  80.1059978 113.0620014  21.4729059  79.3784474 112.7306079
  19.6529992  82.3889978 113.7000014  20.1449992  82.1679978 112.9090014
  20.0149992  83.2289978 113.9810014  19.7692923  82.4723468 113.6297407
  37.6489992  78.7189978 119.9660014  36.7319992  78.9899978 119.9300014
  37.7719992  78.1839978 119.1820014  37.5400828  78.6837700 119.8550785
  19.9669992  78.6469978 107.7540014  19.0419992  78.8549978 107.6250014
  20.4209992  79.1309978 107.0650014  19.9016374  78.7409949 107.6430957
  34.7369992  93.6309978 109.7000014  35.3899992  93.2829978 109.0920014
  35.2479992  94.1189978 110.3460014  34.8952777  93.6493815 109.7042047
  19.9299992  77.3849978 116.0990014  19.2649992  77.1389978 116.7420014
  19.4869992  78.0069978 115.5210014  19.7790937  77.4353614 116.1089379
  22.1219992  90.5599978 120.2430014  21.3009992  90.7349978 119.7830014
  21.8699992  90.4869978 121.1640014  21.9756173  90.5740794 120.3044972
  25.0759992  91.5339978 116.5020014  24.6519992  92.3439978 116.2190014
  25.9809992  91.6199978 116.2000014  25.1402433  91.6563331 116.4225377
  29.3879992  92.9329978 119.4610014  29.5719992  92.5999978 120.3390014
  30.2339992  93.2429978 119.1390014  29.5276484  92.9292979 119.5377617
  31.7329992  94.2189978 118.7050014  32.4099992  93.5859978 118.4650014
  32.0539992  94.6199978 119.5120014  31.8691323  94.1865691 118.7813158
  36.6499992  76.8089978 117.7850014  35.8369992  77.1339978 117.3970014
  36.8829992  76.0479978 117.2520014  36.5702566  76.7506559 117.6599213
  22.4779992  94.7909978 116.5490014  21.7579992  95.2309978 116.0980014
  22.1129992  94.5399978 117.3980014  22.3299796  94.8173824 116.6019329
  24.9449992  94.3909978 115.5790014  24.0809992  94.4629978 115.9830014
  24.8899992  94.9379978 114.7950014  24.8191942  94.4747849 115.5284000
  29.6559992  94.2789978 114.7540014  29.1989992  94.8079978 114.1000014
  29.8189992  94.8819978 115.4800014  29.6154476  94.4329140 114.7625499
  31.9839992  93.1569978 115.6990014  31.0789992  93.3219978 115.4340014
  32.4119992  94.0099978 115.6340014  31.9180700  93.2949529 115.6539520
  34.5879992  94.7269978 115.9940014  34.4059992  95.6429978 115.7840014
  34.7649992  94.3159978 115.1480014  34.5869907  94.7969741 115.8507883
  21.8929992  93.4139978 113.4590014  21.8749992  92.9879978 114.3170014
  22.6979992  93.0949978 113.0510014  21.9993221  93.3127233 113.5210225
  24.0339992  92.1239978 112.1140014  23.8149992  91.2069978 112.2840014
  24.8579992  92.2639978 112.5800014  24.1154702  92.0175511 112.2002527
  26.5709992  92.5939978 112.9630014  26.7839992  91.7059978 112.6760014
  26.6359992  92.5589978 113.9180014  26.6089075  92.4678307 113.0527373
  30.0799992  78.2579978 112.1070014  29.4059992  77.6279978 112.3630014
  30.6439992  77.7739978 111.5040014  30.0640384  78.1063708 112.0605020
  35.2229992  76.3649978 112.2200014  35.8259992  76.9129978 111.7180014
  34.3529992  76.6839978 111.9800014  35.1879190  76.4831041 112.1188679
  36.9499992  77.5039978 110.5530014  37.5609992  76.9899978 110.0270014
  37.3319992  78.3809978 110.5770014  37.0854475  77.5521323 110.4841208
  22.4069992  76.8919978 109.9290014  21.6299992  76.6569978 109.4220014
  22.9369992  76.0949978 109.9380014  22.3723451  76.7521268 109.8608627
  21.2429992  76.6899978 105.7330014  21.6819992  77.3009978 105.1410014
  20.6089992  77.2279978 106.2070014  21.2173859  76.8464064 105.7160305
  26.9859992  76.8179978 109.7430014  27.8599992  77.2069978 109.7130014
  26.8499992  76.6029978 110.6650014  27.0873207  76.8421923 109.8636509
  32.5429992  76.8479978 111.3920014  32.6189992  76.9439978 110.4430014
  32.2679992  75.9409978 111.5210014  32.5162042  76.7384241 111.2793811
  33.8959992  76.8739978 107.0840014  33.1929992  77.4889978 106.8750014
  33.4509992  76.0369978 107.2160014  33.7396292  76.8450085 107.0732439
  21.1439992  92.6379978 106.6310014  20.4589992  92.5999978 105.9630014
  21.1479992  93.5509978 106.9190014  21.0508174  92.7561998 106.5785310
  28.1299992  78.8989978 106.6330014  28.3079992  78.2519978 107.3150014
  28.0759992  79.7329978 107.1000014  28.1471025  78.9230504 106.7896433
  30.0079992  93.8469978 105.0280014  30.8739992  94.2139978 104.8500014
  29.7619992  93.4079978 104.2140014  30.0932097  93.8378525 104.8936019
  36.7169992  93.4099978 107.7070014  36.5229992  92.6619978 107.1420014
  36.6779992  94.1679978 107.1240014  36.6851645  93.4100786 107.5508148
  22.3639992  77.4059978 119.4470014  21.9979992  76.6399978 119.8900014
  23.2769992  77.4349978 119.7340014  22.4373225  77.3051906 119.5463459
  24.3369992  76.7559978 120.9830014  25.2359992  76.4819978 120.7980014
  23.9509992  76.0139978 121.4470014  24.4077237  76.6181508 121.0204710
  32.7589992  76.0889978 121.1650014  32.8349992  75.6629978 122.0190014
  33.6519992  76.1019978 120.8220014  32.8902267  76.0323952 121.2355932
  35.9349992  92.1619978 119.8570014  35.1529992  91.9749978 119.3380014
  35.8629992  93.0909978 120.0750014  35.8180863  92.2620221 119.8153574
  50.3409992  86.0479978 109.8880014  50.4299992  86.9919978 109.7560014
  49.7029992  85.7729978 109.2300014  50.2669061  86.1399812 109.7809641
  49.2739992  85.3029978 113.3070014  49.2359992  84.6569978 114.0120014
  48.9519992  84.8359978 112.5360014  49.2252679  85.1514276 113.2992921
  41.6419992  84.9169978 114.9000014  41.6839992  84.2919978 115.6230014
  42.3449992  85.5409978 115.0820014  41.7427345  84.9157873 115.0235273
  52.9799992  88.2419978 111.6090014  52.5389992  87.5219978 112.0590014
  52.9669992  88.9629978 112.2380014  52.9177960  88.2408329 111.7557567
  42.5659992  89.3669978 113.4350014  42.1959992  88.5649978 113.0650014
  43.5069992  89.1989978 113.4810014  42.6425984  89.2344638 113.3905603
  39.1759992  83.0269978 108.8280014  38.7279992  83.8729978 108.8090014
  38.6149992  82.4479978 108.3120014  39.0389603  83.0643674 108.7556720
  39.8859992  85.1889978 110.9540014  40.0999992  84.4189978 111.4810014
  40.6239992  85.2789978 110.3500014  40.0149652  85.0958012 110.9445212
  50.0919992  93.3459978 111.8210014  50.7109992  92.6699978 111.5470014
  49.8829992  93.1279978 112.7290014  50.1486232  93.2237938 111.9062517
  47.6629992  87.7349978 113.7130014  47.9669992  87.0489978 113.1190014
  48.3849992  87.8539978 114.3310014  47.8021152  87.6572189 113.7152123
  56.3259992  79.3369978 114.5740014  56.3759992  79.9469978 115.3100014
  56.7519992  79.7979978 113.8510014  56.3904108  79.4827709 114.5770112
  50.8039992  82.1289978 114.0410014  50.9469992  81.1829978 114.0610014
  50.6979992  82.3359978 113.1120014  50.8092509  82.0274813 113.9182231
  43.9589992  80.2309978 111.3130014  44.0019992  81.0909978 110.8950014
  43.5009992  79.6789978 110.6790014  43.9029815  80.2740621 111.1701197
  51.6809992  80.3619978 109.7140014  52.3279992  80.0329978 110.3390014
  52.1909992  80.8789978 109.0910014  51.8384317  80.3869227 109.7152167
  40.5789992  82.6279978 112.0750014  41.2329992  82.0779978 112.5070014
  40.6029992  82.3539978 111.1580014  40.6717199  82.5157167 112.0101668
  45.7359992  84.1779978 111.2900014  46.3519992  83.6509978 111.8000014
  45.1489992  83.5379978 110.8870014  45.7409239  84.0194117 111.3052952
  56.7179992  80.8149978 116.8100014  56.0289992  81.4729978 116.7140014
  56.7329992  80.6169978 117.7460014  56.6256740  80.8783243 116.9234630
  42.7689992  79.1489978 115.3870014  42.5499992  79.6789978 114.6210014
  42.1009992  79.3749978 116.0340014  42.6487001  79.2521154 115.3696064
  50.1379992  88.6489978 108.9310014  49.8429992  88.3259978 108.0800014
  49.8139992  89.5489978 108.9720014  50.0537983  88.7264027 108.8199771
  45.3379992  86.8239978 115.6750014  44.5979992  87.4229978 115.7780014
  46.0519992  87.3779978 115.3590014  45.3333288  86.9807356 115.6463805
  53.4449992  79.6529978 111.6940014  53.2299992  78.8869978 112.2270014
  54.1009992  80.1249978 112.2070014  53.5042673  79.6120728 111.8361990
  42.3629992  81.0409978 113.3390014  42.9769992  81.6739978 113.7130014
  42.8749992  80.5689978 112.6830014  42.5162277  81.0637352 113.3014279
  43.7459992  88.7889978 116.4620014  43.7399992  89.6679978 116.0840014
  42.8919992  88.7049978 116.8870014  43.6297925  88.8979535 116.4676887
  39.8669992  88.4599978 107.2440014  39.5949992  88.6889978 106.3550014
  39.9119992  89.2969978 107.7040014  39.8358709  88.6046058 107.1846107
  53.4919992  90.0809978 113.9560014  52.5499992  90.1399978 114.1180014
  53.7679992  90.9869978 113.8190014  53.4005865  90.2115288 113.9596192
  53.7919992  78.3679978 115.3740014  53.0559992  78.9779978 115.3360014
  54.4759992  78.7829978 114.8470014  53.7835506  78.5076400 115.2976051
  46.7959992  76.4539978 112.8400014  46.6779992  75.5059978 112.7850014
  45.9409992  76.7869978 113.1130014  46.6642679  76.3691926 112.8693720
  51.7439992  91.8619978 110.5820014  52.1689992  91.1549978 110.0970014
  52.0609992  92.6639978 110.1650014  51.8450266  91.8735190 110.4592479
  52.9039992  89.7629978 109.0900014  52.6459992  89.0729978 108.4790014
  52.9749992  89.3199978 109.9360014  52.8782837  89.6087106 109.1206912
  54.5899992  88.3299978 117.5680014  54.7289992  87.7379978 116.8280014
  54.7569992  89.2029978 117.2110014  54.6315562  88.3669896 117.4186283
  56.4309992  84.6699978 115.6340014  55.7789992  85.3639978 115.7230014
  56.8969992  84.8799978 114.8240014  56.4045937  84.7935019 115.5367533
  52.4679992  85.5009978 108.2920014  51.7359992  85.7299978 108.8650014
  52.9149992  84.7879978 108.7470014  52.4282753  85.4358972 108.4319715
  52.3649992  83.6759978 117.3600014  52.4449992  84.4389978 117.9310014
  51.7639992  83.9549978 116.6690014  52.2947245  83.8182630 117.3448424
  44.1129992  86.1319978 110.1740014  43.7829992  85.7609978 109.3560014
  44.7019992  85.4609978 110.5210014  44.1473970  85.9906063 110.1089404
  45.4799992  89.5599978 112.8560014  45.3849992  88.9809978 112.0990014
  46.2089992  89.1889978 113.3520014  45.5656161  89.4305891 112.8195209
  44.4799992  84.8999978 113.8080014  45.0449992  85.0219978 113.0450014
  44.7989992  85.5379978 114.4470014  44.6003977  85.0028851 113.7899424
  50.7889992  90.4039978 114.5420014  50.5489992  91.0659978 115.1900014
  50.5909992  89.5689978 114.9670014  50.7293826  90.3818115 114.6881566
  45.3599992  89.2999978 118.5250014  45.0489992  90.0819978 118.9800014
  44.7099992  89.1469978 117.8390014  45.2295538  89.3864087 118.4945898
  42.2799992  85.4979978 117.7540014  42.3499992  86.1489978 118.4520014
  41.3889992  85.6009978 117.4190014  42.1691802  85.6009757 117.8042249
  49.0649992  91.3999978 109.4120014  49.5389992  91.6959978 110.1900014
  48.5019992  92.1389978 109.1790014  49.0537361  91.5402721 109.4868611
  43.5989992  91.3709978 119.2880014  43.6069992  91.2349978 118.3410014
  42.6829992  91.2539978 119.5400014  43.4762528  91.3365463 119.1923243
  55.0379992  76.4139978 105.7900014  54.1379992  76.5529978 106.0850014
  55.2899992  77.2449978 105.3880014  54.9488683  76.5454055 105.7760232
  43.1039992  85.2009978 107.7640014  42.8119992  85.9689978 107.2730014
  42.4289992  84.5419978 107.6010014  42.9728497  85.2169745 107.6748260
  39.1969992  87.5639978 116.5790014  38.6949992  87.5359978 115.7640014
  39.2019992  86.6589978 116.8880014  39.1290416  87.4377368 116.5093766
  38.9469992  90.3449978 113.4630014  39.8929992  90.1999978 113.4440014
  38.8339992  91.1289978 114.0000014  39.0613578  90.4311697 113.5330317
  57.1449992  91.0109978 119.1450014  57.0949992  90.0549978 119.1080014
  56.3179992  91.2779978 119.5460014  57.0263987  90.9165174 119.1941446
  48.1229992  90.5849978 118.0210014  48.2109992  91.4109978 118.4960014
  47.2599992  90.2549978 118.2700014  48.0183357  90.6535468 118.1197653
  48.5379992  94.3569978 107.8270014  48.4619992  94.2359978 106.8810014
  48.5699992  95.3059978 107.9460014  48.5319156  94.4687530 107.7135048
  42.1909992  93.1459978 109.6080014  42.3429992  92.7979978 110.4870014
  41.3399992  92.7889978 109.3530014  42.0967899  93.0501738 109.6937340
  51.3079992  93.4369978 107.5790014  50.3729992  93.5369978 107.7570014
  51.5879992  92.7269978 108.1570014  51.2178173  93.3547239 107.6814998
  54.2969992  82.5039978 119.6250014  53.8889992  82.9839978 118.9050014
  54.3369992  81.5979978 119.3170014  54.2465476  82.4473160 119.4848247
  41.4459992  88.8879978 117.6220014  41.6619992  88.5259978 118.4810014
  40.5899992  88.5129978 117.4120014  41.3599354  88.7877906 117.7112160
  44.0639992  77.3579978 113.6170014  43.2029992  77.2709978 113.2100014
  44.0419992  78.2139978 114.0450014  43.9430411  77.4617884 113.6190857
  48.7269992  77.0799978 116.9920014  49.1469992  76.6649978 117.7450014
  47.7939992  76.9009978 117.1090014  48.6583736  76.9989910 117.1108968
  52.0539992  80.8349978 117.8450014  51.5399992  80.7099978 118.6430014
  51.8979992  81.7479978 117.6010014  51.9626967  80.9412123 117.9210937
  48.3889992  79.5719978 104.2770014  48.1349992  79.5909978 105.2000014
  48.1319992  78.7009978 103.9760014  48.3195133  79.4568110 104.3625082
  44.1549992  82.3229978 114.7120014  43.5139992  82.2829978 115.4210014
  44.1929992  83.2499978 114.4750014  44.0723670  82.4427795 114.7770550
  44.1519992  82.5439978 109.6240014  43.2599992  82.2039978 109.5660014
  44.6029992  82.1669978 108.8690014  44.0906815  82.4463762 109.5139203
  49.6879992  82.9599978 108.4410014  49.2789992  83.7749978 108.1500014
  50.4079992  82.8199978 107.8270014  49.7294013  83.0526571 108.3180875
  48.7899992  83.1359978 119.9290014  48.2269992  82.4309978 120.2500014
  49.6159992  83.0149978 120.3970014  48.8246674  83.0232165 120.0361751
  50.6929992  82.4059978 111.2550014  50.4969992  83.0119978 110.5400014
  50.8739992  81.5729978 110.8210014  50.6906584  82.3762513 111.0984212
  41.9049992  82.6439978 116.5790014  41.8669992  83.0439978 117.4480014
  41.4149992  81.8269978 116.6700014  41.8335621  82.5882510 116.7101377
  38.5139992  79.7599978 110.4300014  39.1439992  79.7309978 111.1490014
  38.9629992  79.3349978 109.7000014  38.6610692  79.6985316 110.4297771
  39.7879992  80.5059978 105.8540014  40.2619992  81.0969978 105.2690014
  39.0699992  81.0359978 106.2010014  39.7558640  80.6585511 105.8207969
  49.9569992  84.0439978 115.9270014  50.2799992  83.4129978 115.2840014
  49.5159992  83.5099978 116.5870014  49.9415789  83.8853522 115.9282232
  46.7339992  79.9719978 110.7110014  45.8229992  80.0289978 110.9990014
  47.2389992  79.9119978 111.5210014  46.6775387  79.9716870 110.8600646
  41.5619992  81.6009978 109.5370014  40.6729992  81.6999978 109.1970014
  41.8589992  80.7589978 109.1910014  41.4804177  81.5007687 109.4436940
  51.1389992  79.2069978 113.9750014  50.4619992  79.3379978 114.6390014
  50.6539992  79.0519978 113.1650014  50.9807265  79.2039659 113.9563397
  43.8889992  82.7949978 104.7610014  43.3469992  82.4159978 104.0690014
  44.7229992  82.9899978 104.3320014  43.9275159  82.7695076 104.6084419
  54.4269992  94.8779978 120.2520014  54.6259992  95.3019978 119.4170014
  55.0819992  95.2219978 120.8590014  54.5428501  94.9826091 120.2197097
  42.0249992  87.3519978 119.8600014  42.7569992  87.6069978 120.4210014
  41.2439992  87.5569978 120.3750014  42.0197684  87.4146468 120.0064782
  48.0539992  82.7589978 112.5980014  48.6179992  82.2129978 112.0510014
  47.9059992  82.2379978 113.3860014  48.1112575  82.6136552 112.6296987
  43.0559992  78.8959978 109.0160014  42.7389992  77.9929978 108.9810014
  43.8369992  78.8979978 108.4630014  43.1182307  78.7726951 108.9364314
  46.6799992  81.1479978 115.0120014  45.8449992  81.6019978 115.1220014
  47.2039992  81.4239978 115.7640014  46.6365070  81.2474665 115.1287152
  47.2249992  87.3609978 106.6960014  46.4799992  86.8529978 106.3740014
  47.0899992  87.4099978 107.6430014  47.1049047  87.2981596 106.7798845
  54.3749992  86.4939978 115.4830014  55.0159992  86.9499978 114.9390014
  53.5439992  86.6069978 115.0210014  54.3505171  86.5717502 115.3460237
  51.1219992  80.1749978 104.8960014  50.1839992  80.2859978 104.7440014
  51.4199992  81.0309978 105.2020014  51.0336402  80.3060621 104.9165571
  48.7439992  87.5449978 117.9330014  48.3979992  87.1629978 118.7400014
  48.5439992  88.4779978 118.0050014  48.6696523  87.6189095 118.0530735
  51.8409992  82.0419978 106.5560014  52.7329992  81.9039978 106.8750014
  51.8969992  82.8329978 106.0200014  51.9707107  82.1300526 106.5272091
  42.3489992  86.6559978 112.4660014  43.0939992  86.6529978 111.8650014
  42.4269992  85.8319978 112.9480014  42.4614158  86.5442916 112.4489153
  49.3499992  88.8189978 105.7220014  49.0549992  89.6459978 106.1030014
  48.6469992  88.1999978 105.9180014  49.2145471  88.8485227 105.8006698
  39.3569992  85.1159978 117.7810014  39.5799992  84.6979978 118.6130014
  38.7549992  84.5039978 117.3580014  39.3061260  84.9759933 117.8377320
  46.3739992  84.6329978 119.9940014  46.0779992  84.4679978 119.0990014
  47.3049992  84.4129978 119.9830014  46.4593982  84.5806578 119.8700045
  50.9939992  90.0069978 117.8840014  50.0939992  90.1899978 117.6160014
  51.0279992  90.2659978 118.8050014  50.8752909  90.0670815 117.9717852
  56.6889992  88.0519978 119.0880014  55.8379992  88.2899978 118.7210014
  57.2789992  88.0349978 118.3350014  56.6522408  88.0822966 118.9358879
  55.0209992  91.0369978 106.7160014  54.6479992  90.2119978 107.0250014
  55.2979992  90.8539978 105.8190014  55.0073871  90.8992441 106.6369677
  52.1809992  85.8449978 113.7370014  51.2529992  85.6139978 113.7100014
  52.6319992  85.0679978 113.4070014  52.1148165  85.7082774 113.6886790
  44.7239992  90.1739978 109.8700014  45.2519992  90.9469978 109.6700014
  43.8439992  90.3979978 109.5690014  44.6773176  90.3103161 109.8018409
  46.1519992  87.8369978 109.4470014  45.9109992  88.7619978 109.4880014
  45.4109992  87.3779978 109.8430014  46.0188390  87.9016403 109.5061404
  46.6659992  91.9859978 115.7620014  47.0289992  92.8399978 115.5280014
  47.1979992  91.6939978 116.5020014  46.7876090  92.0634058 115.8300219
  44.8349992  92.8579978 108.9920014  43.8849992  92.9639978 109.0430014
  45.1869992  93.6789978 109.3370014  44.7525480  92.9834438 109.0455999
  50.2099992  88.0849978 115.4620014  49.7849992  87.8569978 116.2890014
  50.7909992  87.3459978 115.2800014  50.2303930  87.9539843 115.5504732
  52.4129992  89.0139978 104.5360014  52.7669992  88.6339978 105.3410014
  51.4649992  88.9199978 104.6230014  52.3331820  88.9493092 104.6578714
  52.8689992  92.6369978 117.9320014  52.2669992  92.0809978 117.4360014
  53.1499992  93.3039978 117.3060014  52.8246829  92.6511613 117.7795443
  40.9909992  79.8699978 117.3390014  40.0989992  80.2079978 117.2720014
  40.8929992  79.0139978 117.7570014  40.8554965  79.8006499 117.3863044
  53.2789992  87.6859978 106.7630014  53.0019992  86.9579978 107.3190014
  54.2069992  87.8049978 106.9680014  53.3664499  87.6024213 106.8668044
  40.6429992  91.6739978 115.7740014  40.8599992  90.7419978 115.7430014
  40.8889992  91.9489978 116.6570014  40.7059809  91.5835686 115.8891691
  46.5039992  90.1259978 102.9830014  46.7429992  89.3769978 102.4360014
  46.2349992  89.7379978 103.8160014  46.5003233  89.9711853 103.0207809
  45.4409992  89.6959978 105.4400014  45.5879992  89.1759978 106.2300014
  45.4379992  90.6029978 105.7460014  45.4607300  89.7473964 105.5895895
  49.7259992  79.6109978 116.2290014  50.4249992  79.6849978 116.8790014
  49.3449992  78.7459978 116.3830014  49.7702097  79.5042389 116.3387997
  50.5099992  79.2629978 107.3260014  50.7299992  79.7339978 106.5230014
  51.0689992  79.6569978 107.9960014  50.6156730  79.3807432 107.3065906
  48.1789992  91.3929978 106.1890014  47.3619992  91.8899978 106.2410014
  48.7079992  91.8689978 105.5490014  48.1388508  91.5252543 106.1096035
  47.7099992  80.9909978 108.1610014  48.5219992  81.4949978 108.2070014
  47.4659992  80.8459978 109.0750014  47.7881467  81.0403749 108.2908575
  48.2459992  81.9769978 117.3460014  48.3649992  82.5509978 118.1030014
  48.9009992  81.2889978 117.4600014  48.3509146  81.9625574 117.4651314
  48.5939992  78.0719978 109.0990014  48.2469992  78.6889978 109.7440014
  49.2529992  78.5729978 108.6180014  48.6355949  78.2241099 109.1222271
  45.5169992  92.4369978 106.1710014  45.6779992  93.2369978 105.6700014
  45.3199992  92.7439978 107.0560014  45.5123919  92.5879129 106.2221006
  54.4499992  79.8839978 118.1810014  53.5339992  80.1459978 118.0930014
  54.7859992  79.8809978 117.2840014  54.3699789  79.9194626 118.0477847
  53.0529992  83.6339978 112.2760014  52.2549992  83.2189978 111.9480014
  53.4979992  82.9439978 112.7670014  53.0039684  83.4838628 112.2975227
  40.8259992  82.2269978 103.9630014  40.7809992  83.1659978 104.1410014
  39.9379992  81.9909978 103.6930014  40.6998555  82.3236874 103.9508939
  54.1389992  92.8899978 113.8990014  53.9829992  93.5689978 113.2420014
  55.0719992  92.9619978 114.1020014  54.2437387  92.9926390 113.8365342
  41.6339992  77.0079978 112.6360014  41.4049992  77.0669978 111.7080014
  41.1919992  76.2169978 112.9420014  41.5428801  76.9090540 112.5504729
  40.5649992  90.9489978 108.7960014  39.7319992  91.4209978 108.8240014
  41.1099992  91.4589978 108.1980014  40.5247590  91.0825897 108.7189194
  39.8529992  93.5609978 120.1260014  40.3929992  93.3449978 120.8860014
  39.3719992  92.7559978 119.9370014  39.8618613  93.4225400 120.2044782
  44.4499992  92.4809978 121.7470014  45.2179992  92.0219978 122.0880014
  44.4289992  92.2549978 120.8170014  44.5522135  92.3876668 121.6679491
  51.0269992  90.8609978 120.4760014  50.6759992  90.0039978 120.7190014
  51.7529992  91.0029978 121.0830014  51.0771590  90.7630178 120.5912907
  39.7599992  87.3719978 121.0810014  39.9039992  86.4699978 120.7940014
  38.9879992  87.6579978 120.5930014  39.6753303  87.2873243 120.9757908
  46.4149992  87.3409978 120.5130014  46.0869992  87.6119978 119.6560014
  46.5669992  86.3999978 120.4260014  46.3906030  87.2508973 120.3837945
  52.1499992  87.2569978 117.8970014  52.8949992  87.8459978 117.7770014
  51.3929992  87.8389978 117.9600014  52.1495205  87.4161997 117.8891119
  40.5929992  84.5719978 120.5010014  41.0009992  83.7149978 120.3800014
  40.3319992  84.5859978 121.4220014  40.6136016  84.4565119 120.6089192
  45.2509992  85.6879978 105.5190014  44.7909992  85.2039978 106.2050014
  45.5059992  85.0189978 104.8830014  45.2225038  85.5313689 105.5269447
  44.5399992  83.5809978 117.8750014  43.9209992  84.2549978 118.1550014
  44.8839992  83.9019978 117.0420014  44.5017605  83.7167198 117.8006707
  49.5589992  86.0519978 121.1520014  50.5129992  86.1359978 121.1250014
  49.3989992  85.3399978 121.7720014  49.6677182  85.9672842 121.2320733
  44.8789992  80.9359978 118.9570014  45.0289992  80.2069978 118.3550014
  44.8809992  81.7129978 118.3980014  44.8997967  80.9412708 118.7990541
  45.2919992  79.3049978 116.4500014  45.8269992  79.7569978 115.7980014
  44.4389992  79.1969978 116.0270014  45.2500374  79.3522665 116.3036710
  46.8729992  84.7449978 116.6890014  47.6239992  84.5889978 116.1160014
  46.5339992  85.5969978 116.4140014  46.9299587  84.8388138 116.5734078
  51.2889992  82.5599978 121.7180014  51.4809992  81.6289978 121.6060014
  52.1469992  82.9849978 121.7080014  51.4312269  82.4899928 121.7013192
  52.6059992  85.3489978 119.7950014  52.3239992  86.0579978 119.2180014
  53.5479992  85.2759978 119.6440014  52.6947656  85.4363128 119.6954809
  43.3579992  82.1339978 120.8690014  42.5899992  81.6009978 120.6590014
  44.0359992  81.8239978 120.2690014  43.3446973  82.0192375 120.7591796
  46.0969992  76.7619978 116.8810014  45.9989992  77.7079978 116.7760014
  45.3549992  76.3889978 116.4060014  45.9831913  76.8411813 116.8023539
  47.3609992  81.0829978 120.4450014  47.1259992  80.8639978 121.3470014
  46.5779992  80.8759978 119.9350014  47.2229219  81.0250066 120.4995852
  50.0769992  80.2109978 119.5210014  49.1289992  80.2429978 119.6530014
  50.3889992  79.5849978 120.1740014  49.9895190  80.1307262 119.6273564
  51.7109992  78.8449978 121.5260014  51.6139992  77.8929978 121.5200014
  51.3889992  79.1129978 122.3860014  51.6541761  78.7509744 121.6414936
  41.5379992  80.0539978 120.5730014  41.7499992  79.3479978 119.9630014
  41.4269992  79.6169978 121.4170014  41.5520269  79.8981921 120.6035873
  46.3189992  76.0559978 119.5530014  47.0309992  75.4159978 119.5390014
  46.2179992  76.3219978 118.6390014  46.4027261  76.0044190 119.4275537
  46.6729992  77.7379978 121.6060014  46.5409992  77.2629978 120.7860014
  46.0729992  78.4829978 121.5510014  46.5739070  77.7735789 121.4863251
  38.4359992  94.6509978 109.3430014  37.7889992  94.1889978 108.8100014
  38.7909992  93.9789978 109.9250014  38.3954506  94.4969503 109.3487341
  39.3059992  92.7309978 111.1470014  38.9719992  91.8509978 111.3190014
  39.5289992  93.0769978 112.0120014  39.2903721  92.6571938 111.2874168
  56.8549992  93.5409978 114.1280014  56.8329992  93.7259978 115.0670014
  57.5449992  94.1089978 113.7870014  56.9453439  93.6431887 114.2104791
  56.4179992  93.1079978 117.0500014  55.9309992  92.3729978 116.6790014
  56.9669992  92.7139978 117.7280014  56.4255247  92.9541057 117.0908461
  54.8689992  88.8979978 121.6880014  54.0029992  88.7929978 122.0820014
  55.2449992  89.6559978 122.1340014  54.8013401  88.9861708 121.8022620
  56.1699992  87.1539978 107.2020014  57.0199992  87.5749978 107.3290014
  56.1749992  86.4139978 107.8090014  56.2871143  87.1116094 107.3014750
  56.5639992  85.2079978 109.0260014  55.8379992  84.7279978 109.4230014
  57.1459992  85.4129978 109.7580014  56.5431635  85.1699166 109.1793748
  56.3229992  87.9929978 113.9730014  57.1569992  87.6149978 113.6930014
  56.4349992  88.9359978 113.8540014  56.4522522  88.0687742 113.9186020
  54.8099992  90.8709978 116.2800014  54.1619992  91.1959978 116.9060014
  54.2919992  90.4299978 115.6060014  54.6514168  90.8558523 116.2745307
  54.3509992  83.7289978 109.5890014  54.2009992  82.7839978 109.5680014
  53.9969992  84.0099978 110.4320014  54.2825527  83.6375605 109.7001859
  39.3859992  85.8069978 113.5990014  39.5709992  85.7249978 112.6630014
  40.2359992  85.6829978 114.0230014  39.5260916  85.7790393 113.5282896
  55.2069992  85.6989978 119.2270014  55.7899992  84.9639978 119.4190014
  55.7709992  86.4709978 119.2740014  55.3629781  85.7028145 119.2596164
  56.7039992  83.6019978 119.9120014  55.8409992  83.2229978 119.7460014
  57.3079992  82.8629978 119.8380014  56.6675944  83.4502978 119.8792984
  54.4289992  79.7559978 103.0850014  55.0399992  79.3849978 103.7220014
  53.5919992  79.3349978 103.2810014  54.3994947  79.6482755 103.1987252
  54.0619992  81.3109978 108.0510014  54.3409992  80.4039978 108.1750014
  54.8209992  81.7449978 107.6620014  54.2028619  81.2454502 108.0153795
  54.6729992  81.8929978 113.4870014  55.6059992  82.1049978 113.4530014
  54.4379992  81.9939978 114.4090014  54.7688308  81.9356503 113.6070214
  54.7029992  82.6299978 116.2630014  53.8599992  82.8979978 116.6290014
  55.1449992  83.4519978 116.0520014  54.6474138  82.7778273 116.2845518
  38.9839992  81.0769978 119.7400014  39.9029992  80.9549978 119.9760014
  38.5339992  80.3269978 120.1290014  39.0491148  80.9588751 119.8249408
  56.9859992  76.6099978 121.6160014  57.3349992  75.9559978 121.0110014
  57.1329992  77.4469978 121.1770014  57.0537355  76.6336067 121.4736564
  54.6749992  78.5739978 108.0990014  54.8569992  78.1249978 108.9250014
  54.0749992  77.9899978 107.6360014  54.6187529  78.4336131 108.1493619
  40.2049992  79.3899978 112.6310014  40.6499992  78.5979978 112.9330014
  40.6709992  80.1059978 113.0620014  40.3289059  79.3784474 112.7306079
  38.5089992  82.3889978 113.7000014  39.0009992  82.1679978 112.9090014
  38.8709992  83.2289978 113.9810014  38.6252923  82.4723468 113.6297407
  56.5049992  78.7189978 119.9660014  55.5879992  78.9899978 119.9300014
  56.6279992  78.1839978 119.1820014  56.3960828  78.6837700 119.8550785
  38.8229992  78.6469978 107.7540014  37.8979992  78.8549978 107.6250014
  39.2769992  79.1309978 107.0650014  38.7576374  78.7409949 107.6430957
  53.5929992  93.6309978 109.7000014  54.2459992  93.2829978 109.0920014
  54.1039992  94.1189978 110.3460014  53.7512777  93.6493815 109.7042047
  38.7859992  77.3849978 116.0990014  38.1209992  77.1389978 116.7420014
  38.3429992  78.0069978 115.5210014  38.6350937  77.4353614 116.1089379
  40.9779992  90.5599978 120.2430014  40.1569992  90.7349978 119.7830014
  40.7259992  90.4869978 121.1640014  40.8316173  90.5740794 120.3044972
  43.9319992  91.5339978 116.5020014  43.5079992  92.3439978 116.2190014
  44.8369992  91.6199978 116.2000014  43.9962433  91.6563331 116.4225377
  48.2439992  92.9329978 119.4610014  48.4279992  92.5999978 120.3390014
  49.0899992  93.2429978 119.1390014  48.3836484  92.9292979 119.5377617
  50.5889992  94.2189978 118.7050014  51.2659992  93.5859978 118.4650014
  50.9099992  94.6199978 119.5120014  50.7251323  94.1865691 118.7813158
  55.5059992  76.8089978 117.7850014  54.6929992  77.1339978 117.3970014
  55.7389992  76.0479978 117.2520014  55.4262566  76.7506559 117.6599213
  41.3339992  94.7909978 116.5490014  40.6139992  95.2309978 116.0980014
  40.9689992  94.5399978 117.3980014  41.1859796  94.8173824 116.6019329
  43.8009992  94.3909978 115.5790014  42.9369992  94.4629978 115.9830014
  43.7459992  94.9379978 114.7950014  43.6751942  94.4747849 115.5284000
  48.5119992  94.2789978 114.7540014  48.0549992  94.8079978 114.1000014
  48.6749992  94.8819978 115.4800014  48.4714476  94.4329140 114.7625499
  50.8399992  93.1569978 115.6990014  49.9349992  93.3219978 115.4340014
  51.2679992  94.0099978 115.6340014  50.7740700  93.2949529 115.6539520
  53.4439992  94.7269978 115.9940014  53.2619992  95.6429978 115.7840014
  53.6209992  94.3159978 115.1480014  53.4429907  94.7969741 115.8507883
  40.7489992  93.4139978 113.4590014  40.7309992  92.9879978 114.3170014
  41.5539992  93.0949978 113.0510014  40.8553221  93.3127233 113.5210225
  42.8899992  92.1239978 112.1140014  42.6709992  91.2069978 112.2840014
  43.7139992  92.2639978 112.5800014  42.9714702  92.0175511 112.2002527
  45.4269992  92.5939978 112.9630014  45.6399992  91.7059978 112.6760014
  45.4919992  92.5589978 113.9180014  45.4649075  92.4678307 113.0527373
  48.9359992  78.2579978 112.1070014  48.2619992  77.6279978 112.3630014
  49.4999992  77.7739978 111.5040014  48.9200384  78.1063708 112.0605020
  54.0789992  76.3649978 112.2200014  54.6819992  76.9129978 111.7180014
  53.2089992  76.6839978 111.9800014  54.0439190  76.4831041 112.1188679
  55.8059992  77.5039978 110.5530014  56.4169992  76.9899978 110.0270014
  56.1879992  78.3809978 110.5770014  55.9414475  77.5521323 110.4841208
  41.2629992  76.8919978 109.9290014  40.4859992  76.6569978 109.4220014
  41.7929992  76.0949978 109.9380014  41.2283451  76.7521268 109.8608627
  40.0989992  76.6899978 105.7330014  40.5379992  77.3009978 105.1410014
  39.4649992  77.2279978 106.2070014  40.0733859  76.8464064 105.7160305
  45.8419992  76.8179978 109.7430014  46.7159992  77.2069978 109.7130014
  45.7059992  76.6029978 110.6650014  45.9433207  76.8421923 109.8636509
  51.3989992  76.8479978 111.3920014  51.4749992  76.9439978 110.4430014
  51.1239992  75.9409978 111.5210014  51.3722042  76.7384241 111.2793811
  52.7519992  76.8739978 107.0840014  52.0489992  77.4889978 106.8750014
  52.3069992  76.0369978 107.2160014  52.5956292  76.8450085 107.0732439
  39.9999992  92.6379978 106.6310014  39.3149992  92.5999978 105.9630014
  40.0039992  93.5509978 106.9190014  39.9068174  92.7561998 106.5785310
  55.5729992  93.4099978 107.7070014  55.3789992  92.6619978 107.1420014
  55.5339992  94.1679978 107.1240014  55.5411645  93.4100786 107.5508148
  41.2199992  77.4059978 119.4470014  40.8539992  76.6399978 119.8900014
  42.1329992  77.4349978 119.7340014  41.2933225  77.3051906 119.5463459
  43.1929992  76.7559978 120.9830014  44.0919992  76.4819978 120.7980014
  42.8069992  76.0139978 121.4470014  43.2637237  76.6181508 121.0204710
  51.6149992  76.0889978 121.1650014  51.6909992  75.6629978 122.0190014
  52.5079992  76.1019978 120.8220014  51.7462267  76.0323952 121.2355932
  54.7909992  92.1619978 119.8570014  54.0089992  91.9749978 119.3380014
  54.7189992  93.0909978 120.0750014  54.6740863  92.2620221 119.8153574
  69.1969992  86.0479978 109.8880014  69.2859992  86.9919978 109.7560014
  68.5589992  85.7729978 109.2300014  69.1229062  86.1399812 109.7809641
  60.4979992  84.9169978 114.9000014  60.5399992  84.2919978 115.6230014
  61.2009992  85.5409978 115.0820014  60.5987345  84.9157873 115.0235274
  61.4219992  89.3669978 113.4350014  61.0519992  88.5649978 113.0650014
  62.3629992  89.1989978 113.4810014  61.4985984  89.2344638 113.3905603
  58.0319992  83.0269978 108.8280014  57.5839992  83.8729978 108.8090014
  57.4709992  82.4479978 108.3120014  57.8949603  83.0643674 108.7556720
  58.7419992  85.1889978 110.9540014  58.9559992  84.4189978 111.4810014
  59.4799992  85.2789978 110.3500014  58.8709652  85.0958012 110.9445212
  68.9479992  93.3459978 111.8210014  69.5669992  92.6699978 111.5470014
  68.7389992  93.1279978 112.7290014  69.0046232  93.2237938 111.9062517
  66.5189992  87.7349978 113.7130014  66.8229992  87.0489978 113.1190014
  67.2409992  87.8539978 114.3310014  66.6581152  87.6572189 113.7152124
  75.1819992  79.3369978 114.5740014  75.2319992  79.9469978 115.3100014
  75.6079992  79.7979978 113.8510014  75.2464108  79.4827709 114.5770112
  62.8149992  80.2309978 111.3130014  62.8579992  81.0909978 110.8950014
  62.3569992  79.6789978 110.6790014  62.7589815  80.2740621 111.1701197
  59.4349992  82.6279978 112.0750014  60.0889992  82.0779978 112.5070014
  59.4589992  82.3539978 111.1580014  59.5277199  82.5157167 112.0101668
  64.5919992  84.1779978 111.2900014  65.2079992  83.6509978 111.8000014
  64.0049992  83.5379978 110.8870014  64.5969239  84.0194117 111.3052952
  75.5739992  80.8149978 116.8100014  74.8849992  81.4729978 116.7140014
  75.5889992  80.6169978 117.7460014  75.4816740  80.8783243 116.9234630
  61.6249992  79.1489978 115.3870014  61.4059992  79.6789978 114.6210014
  60.9569992  79.3749978 116.0340014  61.5047001  79.2521154 115.3696064
  68.9939992  88.6489978 108.9310014  68.6989992  88.3259978 108.0800014
  68.6699992  89.5489978 108.9720014  68.9097983  88.7264026 108.8199771
  64.1939992  86.8239978 115.6750014  63.4539992  87.4229978 115.7780014
  64.9079992  87.3779978 115.3590014  64.1893288  86.9807356 115.6463805
  61.2189992  81.0409978 113.3390014  61.8329992  81.6739978 113.7130014
  61.7309992  80.5689978 112.6830014  61.3722277  81.0637352 113.3014279
  62.6019992  88.7889978 116.4620014  62.5959992  89.6679978 116.0840014
  61.7479992  88.7049978 116.8870014  62.4857925  88.8979535 116.4676887
  58.7229992  88.4599978 107.2440014  58.4509992  88.6889978 106.3550014
  58.7679992  89.2969978 107.7040014  58.6918709  88.6046058 107.1846107
  72.3479992  90.0809978 113.9560014  71.4059992  90.1399978 114.1180014
  72.6239992  90.9869978 113.8190014  72.2565865  90.2115288 113.9596192
  72.6479992  78.3679978 115.3740014  71.9119992  78.9779978 115.3360014
  73.3319992  78.7829978 114.8470014  72.6395506  78.5076400 115.2976051
  70.5999992  91.8619978 110.5820014  71.0249992  91.1549978 110.0970014
  70.9169992  92.6639978 110.1650014  70.7010266  91.8735190 110.4592479
  71.7599992  89.7629978 109.0900014  71.5019992  89.0729978 108.4790014
  71.8309992  89.3199978 109.9360014  71.7342837  89.6087106 109.1206912
  73.4459992  88.3299978 117.5680014  73.5849992  87.7379978 116.8280014
  73.6129992  89.2029978 117.2110014  73.4875562  88.3669896 117.4186283
  75.2869992  84.6699978 115.6340014  74.6349992  85.3639978 115.7230014
  75.7529992  84.8799978 114.8240014  75.2605937  84.7935019 115.5367533
  71.2209992  83.6759978 117.3600014  71.3009992  84.4389978 117.9310014
  70.6199992  83.9549978 116.6690014  71.1507245  83.8182630 117.3448424
  62.9689992  86.1319978 110.1740014  62.6389992  85.7609978 109.3560014
  63.5579992  85.4609978 110.5210014  63.0033970  85.9906063 110.1089404
  64.3359992  89.5599978 112.8560014  64.2409992  88.9809978 112.0990014
  65.0649992  89.1889978 113.3520014  64.4216161  89.4305891 112.8195209
  63.3359992  84.8999978 113.8080014  63.9009992  85.0219978 113.0450014
  63.6549992  85.5379978 114.4470014  63.4563977  85.0028851 113.7899424
  69.6449992  90.4039978 114.5420014  69.4049992  91.0659978 115.1900014
  69.4469992  89.5689978 114.9670014  69.5853826  90.3818115 114.6881566
  64.2159992  89.2999978 118.5250014  63.9049992  90.0819978 118.9800014
  63.5659992  89.1469978 117.8390014  64.0855538  89.3864087 118.4945898
  61.1359992  85.4979978 117.7540014  61.2059992  86.1489978 118.4520014
  60.2449992  85.6009978 117.4190014  61.0251802  85.6009757 117.8042249
  67.9209992  91.3999978 109.4120014  68.3949992  91.6959978 110.1900014
  67.3579992  92.1389978 109.1790014  67.9097361  91.5402721 109.4868611
  62.4549992  91.3709978 119.2880014  62.4629992  91.2349978 118.3410014
  61.5389992  91.2539978 119.5400014  62.3322528  91.3365463 119.1923243
  75.0829992  90.7799978 104.1660014  75.1559992  91.7189978 104.3370014
  75.9879992  90.4749978 104.1100014  75.2154158  90.8673061 104.1818392
  58.0529992  87.5639978 116.5790014  57.5509992  87.5359978 115.7640014
  58.0579992  86.6589978 116.8880014  57.9850416  87.4377368 116.5093766
  57.8029992  90.3449978 113.4630014  58.7489992  90.1999978 113.4440014
  57.6899992  91.1289978 114.0000014  57.9173578  90.4311697 113.5330317
  76.0009992  91.0109978 119.1450014  75.9509992  90.0549978 119.1080014
  75.1739992  91.2779978 119.5460014  75.8823987  90.9165174 119.1941446
  66.9789992  90.5849978 118.0210014  67.0669992  91.4109978 118.4960014
  66.1159992  90.2549978 118.2700014  66.8743357  90.6535468 118.1197653
  67.3939992  94.3569978 107.8270014  67.3179992  94.2359978 106.8810014
  67.4259992  95.3059978 107.9460014  67.3879156  94.4687530 107.7135048
  61.0469992  93.1459978 109.6080014  61.1989992  92.7979978 110.4870014
  60.1959992  92.7889978 109.3530014  60.9527899  93.0501738 109.6937340
  70.4949992  93.5109978 104.8290014  70.8699992  92.7669978 104.3590014
  70.4999992  93.2409978 105.7480014  70.5470024  93.3726950 104.8887987
  70.1639992  93.4369978 107.5790014  69.2289992  93.5369978 107.7570014
  70.4439992  92.7269978 108.1570014  70.0738173  93.3547239 107.6814998
  73.1529992  82.5039978 119.6250014  72.7449992  82.9839978 118.9050014
  73.1929992  81.5979978 119.3170014  73.1025476  82.4473160 119.4848247
  60.3019992  88.8879978 117.6220014  60.5179992  88.5259978 118.4810014
  59.4459992  88.5129978 117.4120014  60.2159354  88.7877906 117.7112160
  67.5829992  77.0799978 116.9920014  68.0029992  76.6649978 117.7450014
  66.6499992  76.9009978 117.1090014  67.5143736  76.9989910 117.1108968
  70.9099992  80.8349978 117.8450014  70.3959992  80.7099978 118.6430014
  70.7539992  81.7479978 117.6010014  70.8186967  80.9412123 117.9210937
  63.0109992  82.3229978 114.7120014  62.3699992  82.2829978 115.4210014
  63.0489992  83.2499978 114.4750014  62.9283670  82.4427795 114.7770550
  63.0079992  82.5439978 109.6240014  62.1159992  82.2039978 109.5660014
  63.4589992  82.1669978 108.8690014  62.9466815  82.4463762 109.5139203
  67.6459992  83.1359978 119.9290014  67.0829992  82.4309978 120.2500014
  68.4719992  83.0149978 120.3970014  67.6806674  83.0232165 120.0361751
  60.7609992  82.6439978 116.5790014  60.7229992  83.0439978 117.4480014
  60.2709992  81.8269978 116.6700014  60.6895621  82.5882510 116.7101377
  57.3699992  79.7599978 110.4300014  57.9999992  79.7309978 111.1490014
  57.8189992  79.3349978 109.7000014  57.5170692  79.6985316 110.4297771
  58.6439992  80.5059978 105.8540014  59.1179992  81.0969978 105.2690014
  57.9259992  81.0359978 106.2010014  58.6118640  80.6585511 105.8207969
  68.8129992  84.0439978 115.9270014  69.1359992  83.4129978 115.2840014
  68.3719992  83.5099978 116.5870014  68.7975789  83.8853522 115.9282232
  69.9949992  79.2069978 113.9750014  69.3179992  79.3379978 114.6390014
  69.5099992  79.0519978 113.1650014  69.8367265  79.2039659 113.9563397
  73.2829992  94.8779978 120.2520014  73.4819992  95.3019978 119.4170014
  73.9379992  95.2219978 120.8590014  73.3988501  94.9826091 120.2197097
  60.8809992  87.3519978 119.8600014  61.6129992  87.6069978 120.4210014
  60.0999992  87.5569978 120.3750014  60.8757684  87.4146468 120.0064782
  65.5359992  81.1479978 115.0120014  64.7009992  81.6019978 115.1220014
  66.0599992  81.4239978 115.7640014  65.4925070  81.2474666 115.1287152
  66.0809992  87.3609978 106.6960014  65.3359992  86.8529978 106.3740014
  65.9459992  87.4099978 107.6430014  65.9609047  87.2981596 106.7798845
  69.9779992  80.1749978 104.8960014  69.0399992  80.2859978 104.7440014
  70.2759992  81.0309978 105.2020014  69.8896402  80.3060621 104.9165571
  67.5999992  87.5449978 117.9330014  67.2539992  87.1629978 118.7400014
  67.3999992  88.4779978 118.0050014  67.5256523  87.6189095 118.0530735
  61.2049992  86.6559978 112.4660014  61.9499992  86.6529978 111.8650014
  61.2829992  85.8319978 112.9480014  61.3174158  86.5442916 112.4489153
  58.2129992  85.1159978 117.7810014  58.4359992  84.6979978 118.6130014
  57.6109992  84.5039978 117.3580014  58.1621260  84.9759933 117.8377320
  65.2299992  84.6329978 119.9940014  64.9339992  84.4679978 119.0990014
  66.1609992  84.4129978 119.9830014  65.3153982  84.5806578 119.8700045
  69.8499992  90.0069978 117.8840014  68.9499992  90.1899978 117.6160014
  69.8839992  90.2659978 118.8050014  69.7312909  90.0670815 117.9717852
  75.5449992  88.0519978 119.0880014  74.6939992  88.2899978 118.7210014
  76.1349992  88.0349978 118.3350014  75.5082408  88.0822966 118.9358879
  73.8769992  91.0369978 106.7160014  73.5039992  90.2119978 107.0250014
  74.1539992  90.8539978 105.8190014  73.8633871  90.8992441 106.6369677
  63.5799992  90.1739978 109.8700014  64.1079992  90.9469978 109.6700014
  62.6999992  90.3979978 109.5690014  63.5333176  90.3103161 109.8018409
  65.0079992  87.8369978 109.4470014  64.7669992  88.7619978 109.4880014
  64.2669992  87.3779978 109.8430014  64.8748390  87.9016403 109.5061404
  65.5219992  91.9859978 115.7620014  65.8849992  92.8399978 115.5280014
  66.0539992  91.6939978 116.5020014  65.6436090  92.0634058 115.8300219
  63.6909992  92.8579978 108.9920014  62.7409992  92.9639978 109.0430014
  64.0429992  93.6789978 109.3370014  63.6085480  92.9834438 109.0455999
  69.0659992  88.0849978 115.4620014  68.6409992  87.8569978 116.2890014
  69.6469992  87.3459978 115.2800014  69.0863930  87.9539843 115.5504732
  71.7249992  92.6369978 117.9320014  71.1229992  92.0809978 117.4360014
  72.0059992  93.3039978 117.3060014  71.6806829  92.6511613 117.7795443
  75.7729992  93.4929978 104.7370014  76.5169992  94.0789978 104.5970014
  75.0789992  94.0619978 105.0710014  75.7810201  93.6500603 104.7629772
  59.8469992  79.8699978 117.3390014  58.9549992  80.2079978 117.2720014
  59.7489992  79.0139978 117.7570014  59.7114965  79.8006499 117.3863044
  59.4989992  91.6739978 115.7740014  59.7159992  90.7419978 115.7430014
  59.7449992  91.9489978 116.6570014  59.5619809  91.5835686 115.8891690
  68.5819992  79.6109978 116.2290014  69.2809992  79.6849978 116.8790014
  68.2009992  78.7459978 116.3830014  68.6262097  79.5042389 116.3387997
  67.1019992  81.9769978 117.3460014  67.2209992  82.5509978 118.1030014
  67.7569992  81.2889978 117.4600014  67.2069146  81.9625574 117.4651314
  73.3059992  79.8839978 118.1810014  72.3899992  80.1459978 118.0930014
  73.6419992  79.8809978 117.2840014  73.2259789  79.9194626 118.0477847
  61.3659992  89.5619978 104.8470014  61.9579992  90.2619978 105.1230014
  61.8249992  89.1289978 104.1270014  61.5090791  89.5992908 104.7874607
  72.9949992  92.8899978 113.8990014  72.8389992  93.5689978 113.2420014
  73.9279992  92.9619978 114.1020014  73.0997387  92.9926390 113.8365342
  60.4899992  77.0079978 112.6360014  60.2609992  77.0669978 111.7080014
  60.0479992  76.2169978 112.9420014  60.3988801  76.9090540 112.5504729
  59.4209992  90.9489978 108.7960014  58.5879992  91.4209978 108.8240014
  59.9659992  91.4589978 108.1980014  59.3807590  91.0825897 108.7189194
  58.7089992  93.5609978 120.1260014  59.2489992  93.3449978 120.8860014
  58.2279992  92.7559978 119.9370014  58.7178613  93.4225400 120.2044782
  63.3059992  92.4809978 121.7470014  64.0739992  92.0219978 122.0880014
  63.2849992  92.2549978 120.8170014  63.4082135  92.3876668 121.6679491
  69.8829992  90.8609978 120.4760014  69.5319992  90.0039978 120.7190014
  70.6089992  91.0029978 121.0830014  69.9331590  90.7630178 120.5912907
  72.0029992  91.8059978 103.3560014  72.2859992  91.0109978 103.8080014
  72.7419992  92.0389978 102.7950014  72.1416956  91.7287031 103.3419822
  58.6159992  87.3719978 121.0810014  58.7599992  86.4699978 120.7940014
  57.8439992  87.6579978 120.5930014  58.5313303  87.2873243 120.9757908
  65.2709992  87.3409978 120.5130014  64.9429992  87.6119978 119.6560014
  65.4229992  86.3999978 120.4260014  65.2466030  87.2508973 120.3837945
  71.0059992  87.2569978 117.8970014  71.7509992  87.8459978 117.7770014
  70.2489992  87.8389978 117.9600014  71.0055205  87.4161997 117.8891119
  59.4489992  84.5719978 120.5010014  59.8569992  83.7149978 120.3800014
  59.1879992  84.5859978 121.4220014  59.4696016  84.4565119 120.6089192
  63.3959992  83.5809978 117.8750014  62.7769992  84.2549978 118.1550014
  63.7399992  83.9019978 117.0420014  63.3577605  83.7167198 117.8006707
  68.4149992  86.0519978 121.1520014  69.3689992  86.1359978 121.1250014
  68.2549992  85.3399978 121.7720014  68.5237182  85.9672842 121.2320733
  63.7349992  80.9359978 118.9570014  63.8849992  80.2069978 118.3550014
  63.7369992  81.7129978 118.3980014  63.7557967  80.9412708 118.7990541
  64.1479992  79.3049978 116.4500014  64.6829992  79.7569978 115.7980014
  63.2949992  79.1969978 116.0270014  64.1060374  79.3522665 116.3036710
  65.7289992  84.7449978 116.6890014  66.4799992  84.5889978 116.1160014
  65.3899992  85.5969978 116.4140014  65.7859587  84.8388138 116.5734078
  70.1449992  82.5599978 121.7180014  70.3369992  81.6289978 121.6060014
  71.0029992  82.9849978 121.7080014  70.2872269  82.4899928 121.7013192
  71.4619992  85.3489978 119.7950014  71.1799992  86.0579978 119.2180014
  72.4039992  85.2759978 119.6440014  71.5507656  85.4363128 119.6954809
  62.2139992  82.1339978 120.8690014  61.4459992  81.6009978 120.6590014
  62.8919992  81.8239978 120.2690014  62.2006973  82.0192375 120.7591796
  64.9529992  76.7619978 116.8810014  64.8549992  77.7079978 116.7760014
  64.2109992  76.3889978 116.4060014  64.8391913  76.8411813 116.8023539
  66.2169992  81.0829978 120.4450014  65.9819992  80.8639978 121.3470014
  65.4339992  80.8759978 119.9350014  66.0789219  81.0250066 120.4995852
  68.9329992  80.2109978 119.5210014  67.9849992  80.2429978 119.6530014
  69.2449992  79.5849978 120.1740014  68.8455190  80.1307262 119.6273564
  70.5669992  78.8449978 121.5260014  70.4699992  77.8929978 121.5200014
  70.2449992  79.1129978 122.3860014  70.5101761  78.7509744 121.6414936
  60.3939992  80.0539978 120.5730014  60.6059992  79.3479978 119.9630014
  60.2829992  79.6169978 121.4170014  60.4080269  79.8981921 120.6035873
  65.1749992  76.0559978 119.5530014  65.8869992  75.4159978 119.5390014
  65.0739992  76.3219978 118.6390014  65.2587261  76.0044190 119.4275537
  65.5289992  77.7379978 121.6060014  65.3969992  77.2629978 120.7860014
  64.9289992  78.4829978 121.5510014  65.4299070  77.7735789 121.4863251
  57.2919992  94.6509978 109.3430014  56.6449992  94.1889978 108.8100014
  57.6469992  93.9789978 109.9250014  57.2514506  94.4969503 109.3487341
  58.1619992  92.7309978 111.1470014  57.8279992  91.8509978 111.3190014
  58.3849992  93.0769978 112.0120014  58.1463721  92.6571938 111.2874168
  75.7109992  93.5409978 114.1280014  75.6889992  93.7259978 115.0670014
  76.4009992  94.1089978 113.7870014  75.8013439  93.6431887 114.2104791
  75.2739992  93.1079978 117.0500014  74.7869992  92.3729978 116.6790014
  75.8229992  92.7139978 117.7280014  75.2815247  92.9541057 117.0908461
  73.7249992  88.8979978 121.6880014  72.8589992  88.7929978 122.0820014
  74.1009992  89.6559978 122.1340014  73.6573401  88.9861708 121.8022620
  75.1789992  87.9929978 113.9730014  76.0129992  87.6149978 113.6930014
  75.2909992  88.9359978 113.8540014  75.3082522  88.0687742 113.9186020
  73.6659992  90.8709978 116.2800014  73.0179992  91.1959978 116.9060014
  73.1479992  90.4299978 115.6060014  73.5074168  90.8558523 116.2745307
  58.2419992  85.8069978 113.5990014  58.4269992  85.7249978 112.6630014
  59.0919992  85.6829978 114.0230014  58.3820916  85.7790393 113.5282896
  74.0629992  85.6989978 119.2270014  74.6459992  84.9639978 119.4190014
  74.6269992  86.4709978 119.2740014  74.2189781  85.7028145 119.2596164
  75.5599992  83.6019978 119.9120014  74.6969992  83.2229978 119.7460014
  76.1639992  82.8629978 119.8380014  75.5235944  83.4502978 119.8792984
  73.5289992  81.8929978 113.4870014  74.4619992  82.1049978 113.4530014
  73.2939992  81.9939978 114.4090014  73.6248308  81.9356503 113.6070214
  73.5589992  82.6299978 116.2630014  72.7159992  82.8979978 116.6290014
  74.0009992  83.4519978 116.0520014  73.5034138  82.7778273 116.2845518
  57.8399992  81.0769978 119.7400014  58.7589992  80.9549978 119.9760014
  57.3899992  80.3269978 120.1290014  57.9051148  80.9588751 119.8249408
  75.8419992  76.6099978 121.6160014  76.1909992  75.9559978 121.0110014
  75.9889992  77.4469978 121.1770014  75.9097355  76.6336067 121.4736564
  59.0609992  79.3899978 112.6310014  59.5059992  78.5979978 112.9330014
  59.5269992  80.1059978 113.0620014  59.1849059  79.3784474 112.7306079
  57.3649992  82.3889978 113.7000014  57.8569992  82.1679978 112.9090014
  57.7269992  83.2289978 113.9810014  57.4812923  82.4723468 113.6297407
  75.3609992  78.7189978 119.9660014  74.4439992  78.9899978 119.9300014
  75.4839992  78.1839978 119.1820014  75.2520828  78.6837700 119.8550785
  57.6789992  78.6469978 107.7540014  56.7539992  78.8549978 107.6250014
  58.1329992  79.1309978 107.0650014  57.6136374  78.7409949 107.6430957
  72.4489992  93.6309978 109.7000014  73.1019992  93.2829978 109.0920014
  72.9599992  94.1189978 110.3460014  72.6072777  93.6493815 109.7042047
  57.6419992  77.3849978 116.0990014  56.9769992  77.1389978 116.7420014
  57.1989992  78.0069978 115.5210014  57.4910937  77.4353614 116.1089379
  59.8339992  90.5599978 120.2430014  59.0129992  90.7349978 119.7830014
  59.5819992  90.4869978 121.1640014  59.6876173  90.5740794 120.3044972
  62.7879992  91.5339978 116.5020014  62.3639992  92.3439978 116.2190014
  63.6929992  91.6199978 116.2000014  62.8522433  91.6563331 116.4225377
  67.0999992  92.9329978 119.4610014  67.2839992  92.5999978 120.3390014
  67.9459992  93.2429978 119.1390014  67.2396484  92.9292979 119.5377617
  69.4449992  94.2189978 118.7050014  70.1219992  93.5859978 118.4650014
  69.7659992  94.6199978 119.5120014  69.5811323  94.1865691 118.7813158
  74.3619992  76.8089978 117.7850014  73.5489992  77.1339978 117.3970014
  74.5949992  76.0479978 117.2520014  74.2822566  76.7506559 117.6599213
  60.1899992  94.7909978 116.5490014  59.4699992  95.2309978 116.0980014
  59.8249992  94.5399978 117.3980014  60.0419796  94.8173824 116.6019329
  62.6569992  94.3909978 115.5790014  61.7929992  94.4629978 115.9830014
  62.6019992  94.9379978 114.7950014  62.5311942  94.4747849 115.5284000
  67.3679992  94.2789978 114.7540014  66.9109992  94.8079978 114.1000014
  67.5309992  94.8819978 115.4800014  67.3274476  94.4329140 114.7625499
  69.6959992  93.1569978 115.6990014  68.7909992  93.3219978 115.4340014
  70.1239992  94.0099978 115.6340014  69.6300700  93.2949529 115.6539520
  72.2999992  94.7269978 115.9940014  72.1179992  95.6429978 115.7840014
  72.4769992  94.3159978 115.1480014  72.2989907  94.7969741 115.8507883
  59.6049992  93.4139978 113.4590014  59.5869992  92.9879978 114.3170014
  60.4099992  93.0949978 113.0510014  59.7113221  93.3127233 113.5210225
  61.7459992  92.1239978 112.1140014  61.5269992  91.2069978 112.2840014
  62.5699992  92.2639978 112.5800014  61.8274702  92.0175511 112.2002527
  64.2829992  92.5939978 112.9630014  64.4959992  91.7059978 112.6760014
  64.3479992  92.5589978 113.9180014  64.3209075  92.4678307 113.0527373
  72.9349992  76.3649978 112.2200014  73.5379992  76.9129978 111.7180014
  72.0649992  76.6839978 111.9800014  72.8999190  76.4831041 112.1188679
  74.6619992  77.5039978 110.5530014  75.2729992  76.9899978 110.0270014
  75.0439992  78.3809978 110.5770014  74.7974475  77.5521323 110.4841208
  60.1189992  76.8919978 109.9290014  59.3419992  76.6569978 109.4220014
  60.6489992  76.0949978 109.9380014  60.0843451  76.7521268 109.8608627
  70.2549992  76.8479978 111.3920014  70.3309992  76.9439978 110.4430014
  69.9799992  75.9409978 111.5210014  70.2282042  76.7384241 111.2793811
  74.4289992  93.4099978 107.7070014  74.2349992  92.6619978 107.1420014
  74.3899992  94.1679978 107.1240014  74.3971645  93.4100786 107.5508148
  60.0759992  77.4059978 119.4470014  59.7099992  76.6399978 119.8900014
  60.9889992  77.4349978 119.7340014  60.1493225  77.3051906 119.5463459
  62.0489992  76.7559978 120.9830014  62.9479992  76.4819978 120.7980014
  61.6629992  76.0139978 121.4470014  62.1197237  76.6181508 121.0204710
  70.4709992  76.0889978 121.1650014  70.5469992  75.6629978 122.0190014
  71.3639992  76.1019978 120.8220014  70.6022267  76.0323952 121.2355932
  73.6469992  92.1619978 119.8570014  72.8649992  91.9749978 119.3380014
  73.5749992  93.0909978 120.0750014  73.5300863  92.2620221 119.8153574
  86.9859992  85.3029978 113.3070014  86.9479992  84.6569978 114.0120014
  86.6639992  84.8359978 112.5360014  86.9372679  85.1514276 113.2992921
  79.3539992  84.9169978 114.9000014  79.3959992  84.2919978 115.6230014
  80.0569992  85.5409978 115.0820014  79.4547345  84.9157873 115.0235274
  80.2779992  89.3669978 113.4350014  79.9079992  88.5649978 113.0650014
  81.2189992  89.1989978 113.4810014  80.3545984  89.2344638 113.3905603
  76.8879992  83.0269978 108.8280014  76.4399992  83.8729978 108.8090014
  76.3269992  82.4479978 108.3120014  76.7509603  83.0643674 108.7556720
  77.5979992  85.1889978 110.9540014  77.8119992  84.4189978 111.4810014
  78.3359992  85.2789978 110.3500014  77.7269652  85.0958012 110.9445212
  87.8039992  93.3459978 111.8210014  88.4229992  92.6699978 111.5470014
  87.5949992  93.1279978 112.7290014  87.8606232  93.2237938 111.9062517
  85.3749992  87.7349978 113.7130014  85.6789992  87.0489978 113.1190014
  86.0969992  87.8539978 114.3310014  85.5141152  87.6572189 113.7152123
  94.0379992  79.3369978 114.5740014  94.0879992  79.9469978 115.3100014
  94.4639992  79.7979978 113.8510014  94.1024108  79.4827709 114.5770112
  88.5159992  82.1289978 114.0410014  88.6589992  81.1829978 114.0610014
  88.4099992  82.3359978 113.1120014  88.5212509  82.0274813 113.9182231
  81.6709992  80.2309978 111.3130014  81.7139992  81.0909978 110.8950014
  81.2129992  79.6789978 110.6790014  81.6149815  80.2740621 111.1701197
  89.3929992  80.3619978 109.7140014  90.0399992  80.0329978 110.3390014
  89.9029992  80.8789978 109.0910014  89.5504317  80.3869227 109.7152167
  78.2909992  82.6279978 112.0750014  78.9449992  82.0779978 112.5070014
  78.3149992  82.3539978 111.1580014  78.3837199  82.5157167 112.0101668
  83.4479992  84.1779978 111.2900014  84.0639992  83.6509978 111.8000014
  82.8609992  83.5379978 110.8870014  83.4529239  84.0194117 111.3052952
  94.4299992  80.8149978 116.8100014  93.7409992  81.4729978 116.7140014
  94.4449992  80.6169978 117.7460014  94.3376740  80.8783243 116.9234630
  80.4809992  79.1489978 115.3870014  80.2619992  79.6789978 114.6210014
  79.8129992  79.3749978 116.0340014  80.3607001  79.2521154 115.3696064
  83.0499992  86.8239978 115.6750014  82.3099992  87.4229978 115.7780014
  83.7639992  87.3779978 115.3590014  83.0453288  86.9807356 115.6463805
  91.1569992  79.6529978 111.6940014  90.9419992  78.8869978 112.2270014
  91.8129992  80.1249978 112.2070014  91.2162673  79.6120728 111.8361990
  80.0749992  81.0409978 113.3390014  80.6889992  81.6739978 113.7130014
  80.5869992  80.5689978 112.6830014  80.2282277  81.0637352 113.3014279
  81.4579992  88.7889978 116.4620014  81.4519992  89.6679978 116.0840014
  80.6039992  88.7049978 116.8870014  81.3417925  88.8979535 116.4676887
  77.5789992  88.4599978 107.2440014  77.3069992  88.6889978 106.3550014
  77.6239992  89.2969978 107.7040014  77.5478709  88.6046058 107.1846107
  91.5039992  78.3679978 115.3740014  90.7679992  78.9779978 115.3360014
  92.1879992  78.7829978 114.8470014  91.4955506  78.5076400 115.2976051
  84.5079992  76.4539978 112.8400014  84.3899992  75.5059978 112.7850014
  83.6529992  76.7869978 113.1130014  84.3762679  76.3691926 112.8693720
  92.3019992  88.3299978 117.5680014  92.4409992  87.7379978 116.8280014
  92.4689992  89.2029978 117.2110014  92.3435562  88.3669896 117.4186283
  94.1429992  84.6699978 115.6340014  93.4909992  85.3639978 115.7230014
  94.6089992  84.8799978 114.8240014  94.1165937  84.7935019 115.5367533
  90.0769992  83.6759978 117.3600014  90.1569992  84.4389978 117.9310014
  89.4759992  83.9549978 116.6690014  90.0067245  83.8182630 117.3448424
  83.1919992  89.5599978 112.8560014  83.0969992  88.9809978 112.0990014
  83.9209992  89.1889978 113.3520014  83.2776161  89.4305891 112.8195209
  82.1919992  84.8999978 113.8080014  82.7569992  85.0219978 113.0450014
  82.5109992  85.5379978 114.4470014  82.3123977  85.0028851 113.7899424
  83.0719992  89.2999978 118.5250014  82.7609992  90.0819978 118.9800014
  82.4219992  89.1469978 117.8390014  82.9415538  89.3864087 118.4945898
  79.9919992  85.4979978 117.7540014  80.0619992  86.1489978 118.4520014
  79.1009992  85.6009978 117.4190014  79.8811802  85.6009757 117.8042249
  81.3109992  91.3709978 119.2880014  81.3189992  91.2349978 118.3410014
  80.3949992  91.2539978 119.5400014  81.1882528  91.3365463 119.1923243
  92.7499992  76.4139978 105.7900014  91.8499992  76.5529978 106.0850014
  93.0019992  77.2449978 105.3880014  92.6608683  76.5454055 105.7760232
  76.9089992  87.5639978 116.5790014  76.4069992  87.5359978 115.7640014
  76.9139992  86.6589978 116.8880014  76.8410416  87.4377368 116.5093766
  76.6589992  90.3449978 113.4630014  77.6049992  90.1999978 113.4440014
  76.5459992  91.1289978 114.0000014  76.7733578  90.4311697 113.5330317
  94.8569992  91.0109978 119.1450014  94.8069992  90.0549978 119.1080014
  94.0299992  91.2779978 119.5460014  94.7383987  90.9165174 119.1941446
  85.8349992  90.5849978 118.0210014  85.9229992  91.4109978 118.4960014
  84.9719992  90.2549978 118.2700014  85.7303357  90.6535468 118.1197653
  86.2499992  94.3569978 107.8270014  86.1739992  94.2359978 106.8810014
  86.2819992  95.3059978 107.9460014  86.2439156  94.4687530 107.7135048
  79.9029992  93.1459978 109.6080014  80.0549992  92.7979978 110.4870014
  79.0519992  92.7889978 109.3530014  79.8087899  93.0501738 109.6937340
  89.0199992  93.4369978 107.5790014  88.0849992  93.5369978 107.7570014
  89.2999992  92.7269978 108.1570014  88.9298173  93.3547239 107.6814998
  92.0089992  82.5039978 119.6250014  91.6009992  82.9839978 118.9050014
  92.0489992  81.5979978 119.3170014  91.9585476  82.4473160 119.4848247
  79.1579992  88.8879978 117.6220014  79.3739992  88.5259978 118.4810014
  78.3019992  88.5129978 117.4120014  79.0719354  88.7877906 117.7112160
  81.7759992  77.3579978 113.6170014  80.9149992  77.2709978 113.2100014
  81.7539992  78.2139978 114.0450014  81.6550411  77.4617884 113.6190857
  86.4389992  77.0799978 116.9920014  86.8589992  76.6649978 117.7450014
  85.5059992  76.9009978 117.1090014  86.3703736  76.9989910 117.1108968
  89.7659992  80.8349978 117.8450014  89.2519992  80.7099978 118.6430014
  89.6099992  81.7479978 117.6010014  89.6746967  80.9412123 117.9210937
  86.1009992  79.5719978 104.2770014  85.8469992  79.5909978 105.2000014
  85.8439992  78.7009978 103.9760014  86.0315133  79.4568110 104.3625082
  81.8669992  82.3229978 114.7120014  81.2259992  82.2829978 115.4210014
  81.9049992  83.2499978 114.4750014  81.7843670  82.4427795 114.7770550
  81.8639992  82.5439978 109.6240014  80.9719992  82.2039978 109.5660014
  82.3149992  82.1669978 108.8690014  81.8026815  82.4463762 109.5139203
  87.3999992  82.9599978 108.4410014  86.9909992  83.7749978 108.1500014
  88.1199992  82.8199978 107.8270014  87.4414013  83.0526571 108.3180875
  86.5019992  83.1359978 119.9290014  85.9389992  82.4309978 120.2500014
  87.3279992  83.0149978 120.3970014  86.5366674  83.0232165 120.0361751
  88.4049992  82.4059978 111.2550014  88.2089992  83.0119978 110.5400014
  88.5859992  81.5729978 110.8210014  88.4026584  82.3762513 111.0984212
  79.6169992  82.6439978 116.5790014  79.5789992  83.0439978 117.4480014
  79.1269992  81.8269978 116.6700014  79.5455621  82.5882510 116.7101377
  82.9829992  80.0179978 103.3780014  82.5519992  79.5729978 104.1080014
  82.2649992  80.3889978 102.8660014  82.8269363  80.0072968 103.4086211
  76.2259992  79.7599978 110.4300014  76.8559992  79.7309978 111.1490014
  76.6749992  79.3349978 109.7000014  76.3730692  79.6985316 110.4297771
  77.4999992  80.5059978 105.8540014  77.9739992  81.0969978 105.2690014
  76.7819992  81.0359978 106.2010014  77.4678640  80.6585511 105.8207969
  87.6689992  84.0439978 115.9270014  87.9919992  83.4129978 115.2840014
  87.2279992  83.5099978 116.5870014  87.6535789  83.8853522 115.9282232
  84.4459992  79.9719978 110.7110014  83.5349992  80.0289978 110.9990014
  84.9509992  79.9119978 111.5210014  84.3895387  79.9716870 110.8600646
  79.2739992  81.6009978 109.5370014  78.3849992  81.6999978 109.1970014
  79.5709992  80.7589978 109.1910014  79.1924177  81.5007687 109.4436940
  82.9269992  81.6009978 107.1940014  83.8589992  81.7299978 107.3720014
  82.7119992  82.2699978 106.5440014  83.0254472  81.7090806 107.1304891
  88.8509992  79.2069978 113.9750014  88.1739992  79.3379978 114.6390014
  88.3659992  79.0519978 113.1650014  88.6927265  79.2039659 113.9563397
  81.6009992  82.7949978 104.7610014  81.0589992  82.4159978 104.0690014
  82.4349992  82.9899978 104.3320014  81.6395159  82.7695076 104.6084419
  92.1389992  94.8779978 120.2520014  92.3379992  95.3019978 119.4170014
  92.7939992  95.2219978 120.8590014  92.2548501  94.9826091 120.2197097
  79.7369992  87.3519978 119.8600014  80.4689992  87.6069978 120.4210014
  78.9559992  87.5569978 120.3750014  79.7317684  87.4146468 120.0064782
  85.7659992  82.7589978 112.5980014  86.3299992  82.2129978 112.0510014
  85.6179992  82.2379978 113.3860014  85.8232575  82.6136552 112.6296987
  80.7679992  78.8959978 109.0160014  80.4509992  77.9929978 108.9810014
  81.5489992  78.8979978 108.4630014  80.8302307  78.7726951 108.9364314
  84.3919992  81.1479978 115.0120014  83.5569992  81.6019978 115.1220014
  84.9159992  81.4239978 115.7640014  84.3485070  81.2474665 115.1287152
  88.8339992  80.1749978 104.8960014  87.8959992  80.2859978 104.7440014
  89.1319992  81.0309978 105.2020014  88.7456402  80.3060621 104.9165571
  86.4559992  87.5449978 117.9330014  86.1099992  87.1629978 118.7400014
  86.2559992  88.4779978 118.0050014  86.3816523  87.6189095 118.0530735
  80.0609992  86.6559978 112.4660014  80.8059992  86.6529978 111.8650014
  80.1389992  85.8319978 112.9480014  80.1734158  86.5442916 112.4489153
  77.0689992  85.1159978 117.7810014  77.2919992  84.6979978 118.6130014
  76.4669992  84.5039978 117.3580014  77.0181260  84.9759933 117.8377320
  84.0859992  84.6329978 119.9940014  83.7899992  84.4679978 119.0990014
  85.0169992  84.4129978 119.9830014  84.1713982  84.5806578 119.8700045
  88.7059992  90.0069978 117.8840014  87.8059992  90.1899978 117.6160014
  88.7399992  90.2659978 118.8050014  88.5872909  90.0670815 117.9717852
  94.4379992  82.2509978 106.2510014  93.8829992  81.8549978 105.5790014
  94.5379992  83.1619978 105.9730014  94.3755888  82.3198990 106.1215206
  94.4009992  88.0519978 119.0880014  93.5499992  88.2899978 118.7210014
  94.9909992  88.0349978 118.3350014  94.3642408  88.0822966 118.9358879
  89.8929992  85.8449978 113.7370014  88.9649992  85.6139978 113.7100014
  90.3439992  85.0679978 113.4070014  89.8268165  85.7082774 113.6886790
  82.4359992  90.1739978 109.8700014  82.9639992  90.9469978 109.6700014
  81.5559992  90.3979978 109.5690014  82.3893176  90.3103161 109.8018409
  84.3779992  91.9859978 115.7620014  84.7409992  92.8399978 115.5280014
  84.9099992  91.6939978 116.5020014  84.4996090  92.0634058 115.8300219
  82.5469992  92.8579978 108.9920014  81.5969992  92.9639978 109.0430014
  82.8989992  93.6789978 109.3370014  82.4645480  92.9834438 109.0455999
  87.9219992  88.0849978 115.4620014  87.4969992  87.8569978 116.2890014
  88.5029992  87.3459978 115.2800014  87.9423930  87.9539843 115.5504732
  90.5809992  92.6369978 117.9320014  89.9789992  92.0809978 117.4360014
  90.8619992  93.3039978 117.3060014  90.5366829  92.6511613 117.7795443
  94.6289992  93.4929978 104.7370014  95.3729992  94.0789978 104.5970014
  93.9349992  94.0619978 105.0710014  94.6370201  93.6500603 104.7629772
  78.7029992  79.8699978 117.3390014  77.8109992  80.2079978 117.2720014
  78.6049992  79.0139978 117.7570014  78.5674965  79.8006499 117.3863044
  78.3549992  91.6739978 115.7740014  78.5719992  90.7419978 115.7430014
  78.6009992  91.9489978 116.6570014  78.4179809  91.5835686 115.8891690
  87.4379992  79.6109978 116.2290014  88.1369992  79.6849978 116.8790014
  87.0569992  78.7459978 116.3830014  87.4822097  79.5042389 116.3387997
  88.2219992  79.2629978 107.3260014  88.4419992  79.7339978 106.5230014
  88.7809992  79.6569978 107.9960014  88.3276730  79.3807432 107.3065906
  85.4219992  80.9909978 108.1610014  86.2339992  81.4949978 108.2070014
  85.1779992  80.8459978 109.0750014  85.5001467  81.0403749 108.2908575
  85.9579992  81.9769978 117.3460014  86.0769992  82.5509978 118.1030014
  86.6129992  81.2889978 117.4600014  86.0629146  81.9625574 117.4651313
  86.3059992  78.0719978 109.0990014  85.9589992  78.6889978 109.7440014
  86.9649992  78.5729978 108.6180014  86.3475949  78.2241099 109.1222271
  81.9639992  79.1349978 105.7860014  81.8799992  80.0229978 106.1330014
  82.8539992  78.8699978 106.0180014  82.0728163  79.2207179 105.8648596
  92.1619992  79.8839978 118.1810014  91.2459992  80.1459978 118.0930014
  92.4979992  79.8809978 117.2840014  92.0819789  79.9194626 118.0477847
  90.7649992  83.6339978 112.2760014  89.9669992  83.2189978 111.9480014
  91.2099992  82.9439978 112.7670014  90.7159684  83.4838628 112.2975227
  91.8509992  92.8899978 113.8990014  91.6949992  93.5689978 113.2420014
  92.7839992  92.9619978 114.1020014  91.9557387  92.9926390 113.8365342
  79.3459992  77.0079978 112.6360014  79.1169992  77.0669978 111.7080014
  78.9039992  76.2169978 112.9420014  79.2548801  76.9090540 112.5504729
  78.2769992  90.9489978 108.7960014  77.4439992  91.4209978 108.8240014
  78.8219992  91.4589978 108.1980014  78.2367590  91.0825897 108.7189194
  77.5649992  93.5609978 120.1260014  78.1049992  93.3449978 120.8860014
  77.0839992  92.7559978 119.9370014  77.5738613  93.4225400 120.2044782
  82.1619992  92.4809978 121.7470014  82.9299992  92.0219978 122.0880014
  82.1409992  92.2549978 120.8170014  82.2642135  92.3876668 121.6679491
  88.7389992  90.8609978 120.4760014  88.3879992  90.0039978 120.7190014
  89.4649992  91.0029978 121.0830014  88.7891590  90.7630178 120.5912907
  77.4719992  87.3719978 121.0810014  77.6159992  86.4699978 120.7940014
  76.6999992  87.6579978 120.5930014  77.3873303  87.2873243 120.9757908
  84.1269992  87.3409978 120.5130014  83.7989992  87.6119978 119.6560014
  84.2789992  86.3999978 120.4260014  84.1026030  87.2508973 120.3837945
  89.8619992  87.2569978 117.8970014  90.6069992  87.8459978 117.7770014
  89.1049992  87.8389978 117.9600014  89.8615205  87.4161997 117.8891119
  78.3049992  84.5719978 120.5010014  78.7129992  83.7149978 120.3800014
  78.0439992  84.5859978 121.4220014  78.3256016  84.4565119 120.6089192
  82.2519992  83.5809978 117.8750014  81.6329992  84.2549978 118.1550014
  82.5959992  83.9019978 117.0420014  82.2137605  83.7167198 117.8006707
  87.2709992  86.0519978 121.1520014  88.2249992  86.1359978 121.1250014
  87.1109992  85.3399978 121.7720014  87.3797182  85.9672842 121.2320733
  82.5909992  80.9359978 118.9570014  82.7409992  80.2069978 118.3550014
  82.5929992  81.7129978 118.3980014  82.6117967  80.9412708 118.7990541
  83.0039992  79.3049978 116.4500014  83.5389992  79.7569978 115.7980014
  82.1509992  79.1969978 116.0270014  82.9620374  79.3522665 116.3036710
  84.5849992  84.7449978 116.6890014  85.3359992  84.5889978 116.1160014
  84.2459992  85.5969978 116.4140014  84.6419587  84.8388138 116.5734078
  89.0009992  82.5599978 121.7180014  89.1929992  81.6289978 121.6060014
  89.8589992  82.9849978 121.7080014  89.1432269  82.4899928 121.7013192
  90.3179992  85.3489978 119.7950014  90.0359992  86.0579978 119.2180014
  91.2599992  85.2759978 119.6440014  90.4067656  85.4363128 119.6954809
  81.0699992  82.1339978 120.8690014  80.3019992  81.6009978 120.6590014
  81.7479992  81.8239978 120.2690014  81.0566973  82.0192375 120.7591796
  83.8089992  76.7619978 116.8810014  83.7109992  77.7079978 116.7760014
  83.0669992  76.3889978 116.4060014  83.6951913  76.8411813 116.8023539
  85.0729992  81.0829978 120.4450014  84.8379992  80.8639978 121.3470014
  84.2899992  80.8759978 119.9350014  84.9349219  81.0250066 120.4995852
  87.7889992  80.2109978 119.5210014  86.8409992  80.2429978 119.6530014
  88.1009992  79.5849978 120.1740014  87.7015190  80.1307262 119.6273564
  89.4229992  78.8449978 121.5260014  89.3259992  77.8929978 121.5200014
  89.1009992  79.1129978 122.3860014  89.3661761  78.7509744 121.6414936
  79.2499992  80.0539978 120.5730014  79.4619992  79.3479978 119.9630014
  79.1389992  79.6169978 121.4170014  79.2640269  79.8981921 120.6035873
  84.0309992  76.0559978 119.5530014  84.7429992  75.4159978 119.5390014
  83.9299992  76.3219978 118.6390014  84.1147261  76.0044190 119.4275537
  84.3849992  77.7379978 121.6060014  84.2529992  77.2629978 120.7860014
  83.7849992  78.4829978 121.5510014  84.2859070  77.7735789 121.4863251
  77.4989992  89.2579978 104.2650014  78.4129992  89.3369978 104.5390014
  77.5069992  88.5709978 103.5990014  77.6251143  89.1759085 104.2124274
  76.1479992  94.6509978 109.3430014  75.5009992  94.1889978 108.8100014
  76.5029992  93.9789978 109.9250014  76.1074506  94.4969503 109.3487341
  77.0179992  92.7309978 111.1470014  76.6839992  91.8509978 111.3190014
  77.2409992  93.0769978 112.0120014  77.0023721  92.6571938 111.2874168
  94.5669992  93.5409978 114.1280014  94.5449992  93.7259978 115.0670014
  95.2569992  94.1089978 113.7870014  94.6573439  93.6431887 114.2104791
  94.1299992  93.1079978 117.0500014  93.6429992  92.3729978 116.6790014
  94.6789992  92.7139978 117.7280014  94.1375247  92.9541057 117.0908461
  92.5809992  88.8979978 121.6880014  91.7149992  88.7929978 122.0820014
  92.9569992  89.6559978 122.1340014  92.5133401  88.9861708 121.8022620
  92.5219992  90.8709978 116.2800014  91.8739992  91.1959978 116.9060014
  92.0039992  90.4299978 115.6060014  92.3634168  90.8558523 116.2745307
  94.5449992  85.1089978 105.4170014  94.0229992  85.4649978 104.6980014
  94.5119992  85.7839978 106.0950014  94.4690699  85.2489848 105.4102129
  92.0629992  83.7289978 109.5890014  91.9129992  82.7839978 109.5680014
  91.7089992  84.0099978 110.4320014  91.9945527  83.6375605 109.7001859
  77.0979992  85.8069978 113.5990014  77.2829992  85.7249978 112.6630014
  77.9479992  85.6829978 114.0230014  77.2380916  85.7790393 113.5282896
  92.9189992  85.6989978 119.2270014  93.5019992  84.9639978 119.4190014
  93.4829992  86.4709978 119.2740014  93.0749781  85.7028145 119.2596164
  94.4159992  83.6019978 119.9120014  93.5529992  83.2229978 119.7460014
  95.0199992  82.8629978 119.8380014  94.3795944  83.4502978 119.8792984
  91.7739992  81.3109978 108.0510014  92.0529992  80.4039978 108.1750014
  92.5329992  81.7449978 107.6620014  91.9148619  81.2454502 108.0153795
  92.3849992  81.8929978 113.4870014  93.3179992  82.1049978 113.4530014
  92.1499992  81.9939978 114.4090014  92.4808308  81.9356503 113.6070214
  92.4149992  82.6299978 116.2630014  91.5719992  82.8979978 116.6290014
  92.8569992  83.4519978 116.0520014  92.3594138  82.7778273 116.2845518
  76.6959992  81.0769978 119.7400014  77.6149992  80.9549978 119.9760014
  76.2459992  80.3269978 120.1290014  76.7611148  80.9588751 119.8249408
  94.6979992  76.6099978 121.6160014  95.0469992  75.9559978 121.0110014
  94.8449992  77.4469978 121.1770014  94.7657355  76.6336067 121.4736564
  92.3869992  78.5739978 108.0990014  92.5689992  78.1249978 108.9250014
  91.7869992  77.9899978 107.6360014  92.3307529  78.4336131 108.1493619
  77.9169992  79.3899978 112.6310014  78.3619992  78.5979978 112.9330014
  78.3829992  80.1059978 113.0620014  78.0409059  79.3784474 112.7306079
  76.2209992  82.3889978 113.7000014  76.7129992  82.1679978 112.9090014
  76.5829992  83.2289978 113.9810014  76.3372923  82.4723468 113.6297407
  94.2169992  78.7189978 119.9660014  93.2999992  78.9899978 119.9300014
  94.3399992  78.1839978 119.1820014  94.1080828  78.6837700 119.8550785
  76.5349992  78.6469978 107.7540014  75.6099992  78.8549978 107.6250014
  76.9889992  79.1309978 107.0650014  76.4696374  78.7409949 107.6430957
  76.4979992  77.3849978 116.0990014  75.8329992  77.1389978 116.7420014
  76.0549992  78.0069978 115.5210014  76.3470937  77.4353614 116.1089379
  78.6899992  90.5599978 120.2430014  77.8689992  90.7349978 119.7830014
  78.4379992  90.4869978 121.1640014  78.5436173  90.5740794 120.3044972
  81.6439992  91.5339978 116.5020014  81.2199992  92.3439978 116.2190014
  82.5489992  91.6199978 116.2000014  81.7082433  91.6563331 116.4225377
  85.9559992  92.9329978 119.4610014  86.1399992  92.5999978 120.3390014
  86.8019992  93.2429978 119.1390014  86.0956484  92.9292979 119.5377617
  88.3009992  94.2189978 118.7050014  88.9779992  93.5859978 118.4650014
  88.6219992  94.6199978 119.5120014  88.4371323  94.1865691 118.7813158
  93.2179992  76.8089978 117.7850014  92.4049992  77.1339978 117.3970014
  93.4509992  76.0479978 117.2520014  93.1382566  76.7506559 117.6599213
  79.0459992  94.7909978 116.5490014  78.3259992  95.2309978 116.0980014
  78.6809992  94.5399978 117.3980014  78.8979796  94.8173824 116.6019329
  81.5129992  94.3909978 115.5790014  80.6489992  94.4629978 115.9830014
  81.4579992  94.9379978 114.7950014  81.3871942  94.4747849 115.5284000
  86.2239992  94.2789978 114.7540014  85.7669992  94.8079978 114.1000014
  86.3869992  94.8819978 115.4800014  86.1834476  94.4329140 114.7625499
  88.5519992  93.1569978 115.6990014  87.6469992  93.3219978 115.4340014
  88.9799992  94.0099978 115.6340014  88.4860700  93.2949529 115.6539520
  91.1559992  94.7269978 115.9940014  90.9739992  95.6429978 115.7840014
  91.3329992  94.3159978 115.1480014  91.1549907  94.7969741 115.8507883
  78.4609992  93.4139978 113.4590014  78.4429992  92.9879978 114.3170014
  79.2659992  93.0949978 113.0510014  78.5673221  93.3127233 113.5210225
  80.6019992  92.1239978 112.1140014  80.3829992  91.2069978 112.2840014
  81.4259992  92.2639978 112.5800014  80.6834702  92.0175511 112.2002527
  83.1389992  92.5939978 112.9630014  83.3519992  91.7059978 112.6760014
  83.2039992  92.5589978 113.9180014  83.1769075  92.4678307 113.0527373
  86.6479992  78.2579978 112.1070014  85.9739992  77.6279978 112.3630014
  87.2119992  77.7739978 111.5040014  86.6320384  78.1063708 112.0605020
  91.7909992  76.3649978 112.2200014  92.3939992  76.9129978 111.7180014
  90.9209992  76.6839978 111.9800014  91.7559190  76.4831041 112.1188679
  93.5179992  77.5039978 110.5530014  94.1289992  76.9899978 110.0270014
  93.8999992  78.3809978 110.5770014  93.6534475  77.5521323 110.4841208
  78.9749992  76.8919978 109.9290014  78.1979992  76.6569978 109.4220014
  79.5049992  76.0949978 109.9380014  78.9403451  76.7521268 109.8608627
  77.8109992  76.6899978 105.7330014  78.2499992  77.3009978 105.1410014
  77.1769992  77.2279978 106.2070014  77.7853859  76.8464064 105.7160305
  83.5539992  76.8179978 109.7430014  84.4279992  77.2069978 109.7130014
  83.4179992  76.6029978 110.6650014  83.6553207  76.8421923 109.8636509
  89.1109992  76.8479978 111.3920014  89.1869992  76.9439978 110.4430014
  88.8359992  75.9409978 111.5210014  89.0842042  76.7384241 111.2793811
  90.4639992  76.8739978 107.0840014  89.7609992  77.4889978 106.8750014
  90.0189992  76.0369978 107.2160014  90.3076292  76.8450085 107.0732439
  77.7119992  92.6379978 106.6310014  77.0269992  92.5999978 105.9630014
  77.7159992  93.5509978 106.9190014  77.6188174  92.7561998 106.5785310
  79.6719992  78.6059978 104.1750014  80.1629992  77.9759978 103.6480014
  80.2949992  78.9019978 104.8390014  79.8235062  78.5596770 104.1925438
  84.6979992  78.8989978 106.6330014  84.8759992  78.2519978 107.3150014
  84.6439992  79.7329978 107.1000014  84.7151025  78.9230504 106.7896433
  78.9319992  77.4059978 119.4470014  78.5659992  76.6399978 119.8900014
  79.8449992  77.4349978 119.7340014  79.0053225  77.3051906 119.5463459
  80.9049992  76.7559978 120.9830014  81.8039992  76.4819978 120.7980014
  80.5189992  76.0139978 121.4470014  80.9757237  76.6181508 121.0204710
  89.3269992  76.0889978 121.1650014  89.4029992  75.6629978 122.0190014
  90.2199992  76.1019978 120.8220014  89.4582267  76.0323952 121.2355932
  92.5029992  92.1619978 119.8570014  91.7209992  91.9749978 119.3380014
  92.4309992  93.0909978 120.0750014  92.3860863  92.2620221 119.8153574
 106.9089992  86.0479978 109.8880014 106.9979992  86.9919978 109.7560014
 106.2709992  85.7729978 109.2300014 106.8349062  86.1399812 109.7809641
 105.8419992  85.3029978 113.3070014 105.8039992  84.6569978 114.0120014
 105.5199992  84.8359978 112.5360014 105.7932679  85.1514276 113.2992921
  98.2099992  84.9169978 114.9000014  98.2519992  84.2919978 115.6230014
  98.9129992  85.5409978 115.0820014  98.3107345  84.9157873 115.0235274
 109.5479992  88.2419978 111.6090014 109.1069992  87.5219978 112.0590014
 109.5349992  88.9629978 112.2380014 109.4857960  88.2408329 111.7557567
  99.1339992  89.3669978 113.4350014  98.7639992  88.5649978 113.0650014
 100.0749992  89.1989978 113.4810014  99.2105984  89.2344638 113.3905603
  95.7439992  83.0269978 108.8280014  95.2959992  83.8729978 108.8090014
  95.1829992  82.4479978 108.3120014  95.6069603  83.0643674 108.7556720
 106.6599992  93.3459978 111.8210014 107.2789992  92.6699978 111.5470014
 106.4509992  93.1279978 112.7290014 106.7166232  93.2237938 111.9062517
 104.2309992  87.7349978 113.7130014 104.5349992  87.0489978 113.1190014
 104.9529992  87.8539978 114.3310014 104.3701152  87.6572189 113.7152124
 112.8939992  79.3369978 114.5740014 112.9439992  79.9469978 115.3100014
 113.3199992  79.7979978 113.8510014 112.9584108  79.4827709 114.5770112
 107.3719992  82.1289978 114.0410014 107.5149992  81.1829978 114.0610014
 107.2659992  82.3359978 113.1120014 107.3772509  82.0274813 113.9182231
 100.5269992  80.2309978 111.3130014 100.5699992  81.0909978 110.8950014
 100.0689992  79.6789978 110.6790014 100.4709815  80.2740621 111.1701197
 108.2489992  80.3619978 109.7140014 108.8959992  80.0329978 110.3390014
 108.7589992  80.8789978 109.0910014 108.4064317  80.3869227 109.7152167
  97.1469992  82.6279978 112.0750014  97.8009992  82.0779978 112.5070014
  97.1709992  82.3539978 111.1580014  97.2397199  82.5157167 112.0101668
 102.3039992  84.1779978 111.2900014 102.9199992  83.6509978 111.8000014
 101.7169992  83.5379978 110.8870014 102.3089239  84.0194117 111.3052952
 113.2859992  80.8149978 116.8100014 112.5969992  81.4729978 116.7140014
 113.3009992  80.6169978 117.7460014 113.1936740  80.8783243 116.9234630
  99.3369992  79.1489978 115.3870014  99.1179992  79.6789978 114.6210014
  98.6689992  79.3749978 116.0340014  99.2167001  79.2521154 115.3696064
 106.7059992  88.6489978 108.9310014 106.4109992  88.3259978 108.0800014
 106.3819992  89.5489978 108.9720014 106.6217983  88.7264027 108.8199771
 101.9059992  86.8239978 115.6750014 101.1659992  87.4229978 115.7780014
 102.6199992  87.3779978 115.3590014 101.9013288  86.9807356 115.6463805
 110.0129992  79.6529978 111.6940014 109.7979992  78.8869978 112.2270014
 110.6689992  80.1249978 112.2070014 110.0722673  79.6120728 111.8361990
  98.9309992  81.0409978 113.3390014  99.5449992  81.6739978 113.7130014
  99.4429992  80.5689978 112.6830014  99.0842277  81.0637352 113.3014279
 100.3139992  88.7889978 116.4620014 100.3079992  89.6679978 116.0840014
  99.4599992  88.7049978 116.8870014 100.1977925  88.8979535 116.4676887
  96.4349992  88.4599978 107.2440014  96.1629992  88.6889978 106.3550014
  96.4799992  89.2969978 107.7040014  96.4038709  88.6046058 107.1846107
 110.0599992  90.0809978 113.9560014 109.1179992  90.1399978 114.1180014
 110.3359992  90.9869978 113.8190014 109.9685865  90.2115288 113.9596192
 110.3599992  78.3679978 115.3740014 109.6239992  78.9779978 115.3360014
 111.0439992  78.7829978 114.8470014 110.3515506  78.5076400 115.2976051
 103.3639992  76.4539978 112.8400014 103.2459992  75.5059978 112.7850014
 102.5089992  76.7869978 113.1130014 103.2322679  76.3691926 112.8693720
 108.3119992  91.8619978 110.5820014 108.7369992  91.1549978 110.0970014
 108.6289992  92.6639978 110.1650014 108.4130266  91.8735190 110.4592479
 109.4719992  89.7629978 109.0900014 109.2139992  89.0729978 108.4790014
 109.5429992  89.3199978 109.9360014 109.4462837  89.6087106 109.1206912
 111.1579992  88.3299978 117.5680014 111.2969992  87.7379978 116.8280014
 111.3249992  89.2029978 117.2110014 111.1995562  88.3669896 117.4186283
 105.6299992  85.2919978 107.3400014 104.9189992  85.8269978 106.9880014
 106.3209992  85.3469978 106.6800014 105.6260751  85.3726777 107.2025858
 112.9989992  84.6699978 115.6340014 112.3469992  85.3639978 115.7230014
 113.4649992  84.8799978 114.8240014 112.9725937  84.7935019 115.5367533
 109.0359992  85.5009978 108.2920014 108.3039992  85.7299978 108.8650014
 109.4829992  84.7879978 108.7470014 108.9962753  85.4358972 108.4319715
 108.9329992  83.6759978 117.3600014 109.0129992  84.4389978 117.9310014
 108.3319992  83.9549978 116.6690014 108.8627245  83.8182630 117.3448424
 100.6809992  86.1319978 110.1740014 100.3509992  85.7609978 109.3560014
 101.2699992  85.4609978 110.5210014 100.7153970  85.9906063 110.1089404
 102.0479992  89.5599978 112.8560014 101.9529992  88.9809978 112.0990014
 102.7769992  89.1889978 113.3520014 102.1336161  89.4305891 112.8195209
 101.0479992  84.8999978 113.8080014 101.6129992  85.0219978 113.0450014
 101.3669992  85.5379978 114.4470014 101.1683977  85.0028851 113.7899424
 107.3569992  90.4039978 114.5420014 107.1169992  91.0659978 115.1900014
 107.1589992  89.5689978 114.9670014 107.2973826  90.3818115 114.6881566
 101.9279992  89.2999978 118.5250014 101.6169992  90.0819978 118.9800014
 101.2779992  89.1469978 117.8390014 101.7975538  89.3864087 118.4945898
  98.8479992  85.4979978 117.7540014  98.9179992  86.1489978 118.4520014
  97.9569992  85.6009978 117.4190014  98.7371802  85.6009757 117.8042249
 105.6329992  91.3999978 109.4120014 106.1069992  91.6959978 110.1900014
 105.0699992  92.1389978 109.1790014 105.6217361  91.5402721 109.4868611
 100.1669992  91.3709978 119.2880014 100.1749992  91.2349978 118.3410014
  99.2509992  91.2539978 119.5400014 100.0442528  91.3365463 119.1923243
 111.6059992  76.4139978 105.7900014 110.7059992  76.5529978 106.0850014
 111.8579992  77.2449978 105.3880014 111.5168683  76.5454055 105.7760232
  99.6719992  85.2009978 107.7640014  99.3799992  85.9689978 107.2730014
  98.9969992  84.5419978 107.6010014  99.5408497  85.2169745 107.6748260
 112.7949992  90.7799978 104.1660014 112.8679992  91.7189978 104.3370014
 113.6999992  90.4749978 104.1100014 112.9274158  90.8673061 104.1818392
  95.7649992  87.5639978 116.5790014  95.2629992  87.5359978 115.7640014
  95.7699992  86.6589978 116.8880014  95.6970416  87.4377368 116.5093766
  95.5149992  90.3449978 113.4630014  96.4609992  90.1999978 113.4440014
  95.4019992  91.1289978 114.0000014  95.6293578  90.4311697 113.5330317
 113.7129992  91.0109978 119.1450014 113.6629992  90.0549978 119.1080014
 112.8859992  91.2779978 119.5460014 113.5943987  90.9165174 119.1941446
 104.6909992  90.5849978 118.0210014 104.7789992  91.4109978 118.4960014
 103.8279992  90.2549978 118.2700014 104.5863357  90.6535468 118.1197653
 105.1059992  94.3569978 107.8270014 105.0299992  94.2359978 106.8810014
 105.1379992  95.3059978 107.9460014 105.0999156  94.4687530 107.7135048
  98.7589992  93.1459978 109.6080014  98.9109992  92.7979978 110.4870014
  97.9079992  92.7889978 109.3530014  98.6647899  93.0501738 109.6937340
 107.8759992  93.4369978 107.5790014 106.9409992  93.5369978 107.7570014
 108.1559992  92.7269978 108.1570014 107.7858173  93.3547239 107.6814998
 110.8649992  82.5039978 119.6250014 110.4569992  82.9839978 118.9050014
 110.9049992  81.5979978 119.3170014 110.8145476  82.4473160 119.4848247
  98.0139992  88.8879978 117.6220014  98.2299992  88.5259978 118.4810014
  97.1579992  88.5129978 117.4120014  97.9279354  88.7877906 117.7112160
 100.6319992  77.3579978 113.6170014  99.7709992  77.2709978 113.2100014
 100.6099992  78.2139978 114.0450014 100.5110411  77.4617884 113.6190857
 105.2949992  77.0799978 116.9920014 105.7149992  76.6649978 117.7450014
 104.3619992  76.9009978 117.1090014 105.2263736  76.9989910 117.1108968
 108.6219992  80.8349978 117.8450014 108.1079992  80.7099978 118.6430014
 108.4659992  81.7479978 117.6010014 108.5306967  80.9412123 117.9210937
 100.7229992  82.3229978 114.7120014 100.0819992  82.2829978 115.4210014
 100.7609992  83.2499978 114.4750014 100.6403670  82.4427795 114.7770550
 100.7199992  82.5439978 109.6240014  99.8279992  82.2039978 109.5660014
 101.1709992  82.1669978 108.8690014 100.6586815  82.4463762 109.5139203
 106.2559992  82.9599978 108.4410014 105.8469992  83.7749978 108.1500014
 106.9759992  82.8199978 107.8270014 106.2974013  83.0526571 108.3180875
 105.3579992  83.1359978 119.9290014 104.7949992  82.4309978 120.2500014
 106.1839992  83.0149978 120.3970014 105.3926674  83.0232165 120.0361751
 107.2609992  82.4059978 111.2550014 107.0649992  83.0119978 110.5400014
 107.4419992  81.5729978 110.8210014 107.2586584  82.3762513 111.0984212
  98.4729992  82.6439978 116.5790014  98.4349992  83.0439978 117.4480014
  97.9829992  81.8269978 116.6700014  98.4015621  82.5882510 116.7101377
  95.0819992  79.7599978 110.4300014  95.7119992  79.7309978 111.1490014
  95.5309992  79.3349978 109.7000014  95.2290692  79.6985316 110.4297771
  96.3559992  80.5059978 105.8540014  96.8299992  81.0969978 105.2690014
  95.6379992  81.0359978 106.2010014  96.3238640  80.6585511 105.8207969
 106.5249992  84.0439978 115.9270014 106.8479992  83.4129978 115.2840014
 106.0839992  83.5099978 116.5870014 106.5095789  83.8853522 115.9282232
 103.3019992  79.9719978 110.7110014 102.3909992  80.0289978 110.9990014
 103.8069992  79.9119978 111.5210014 103.2455387  79.9716870 110.8600646
  98.1299992  81.6009978 109.5370014  97.2409992  81.6999978 109.1970014
  98.4269992  80.7589978 109.1910014  98.0484177  81.5007687 109.4436940
 101.7829992  81.6009978 107.1940014 102.7149992  81.7299978 107.3720014
 101.5679992  82.2699978 106.5440014 101.8814472  81.7090806 107.1304891
 107.7069992  79.2069978 113.9750014 107.0299992  79.3379978 114.6390014
 107.2219992  79.0519978 113.1650014 107.5487265  79.2039659 113.9563397
 110.9949992  94.8779978 120.2520014 111.1939992  95.3019978 119.4170014
 111.6499992  95.2219978 120.8590014 111.1108501  94.9826091 120.2197097
  98.5929992  87.3519978 119.8600014  99.3249992  87.6069978 120.4210014
  97.8119992  87.5569978 120.3750014  98.5877684  87.4146468 120.0064782
 104.6219992  82.7589978 112.5980014 105.1859992  82.2129978 112.0510014
 104.4739992  82.2379978 113.3860014 104.6792575  82.6136552 112.6296987
  99.6239992  78.8959978 109.0160014  99.3069992  77.9929978 108.9810014
 100.4049992  78.8979978 108.4630014  99.6862307  78.7726951 108.9364314
 103.2479992  81.1479978 115.0120014 102.4129992  81.6019978 115.1220014
 103.7719992  81.4239978 115.7640014 103.2045070  81.2474666 115.1287152
 110.9429992  86.4939978 115.4830014 111.5839992  86.9499978 114.9390014
 110.1119992  86.6069978 115.0210014 110.9185171  86.5717502 115.3460237
 105.3119992  87.5449978 117.9330014 104.9659992  87.1629978 118.7400014
 105.1119992  88.4779978 118.0050014 105.2376523  87.6189095 118.0530735
  98.9169992  86.6559978 112.4660014  99.6619992  86.6529978 111.8650014
  98.9949992  85.8319978 112.9480014  99.0294158  86.5442916 112.4489153
  95.9249992  85.1159978 117.7810014  96.1479992  84.6979978 118.6130014
  95.3229992  84.5039978 117.3580014  95.8741260  84.9759933 117.8377320
 102.9419992  84.6329978 119.9940014 102.6459992  84.4679978 119.0990014
 103.8729992  84.4129978 119.9830014 103.0273982  84.5806578 119.8700045
 107.5619992  90.0069978 117.8840014 106.6619992  90.1899978 117.6160014
 107.5959992  90.2659978 118.8050014 107.4432909  90.0670815 117.9717852
 113.2939992  82.2509978 106.2510014 112.7389992  81.8549978 105.5790014
 113.3939992  83.1619978 105.9730014 113.2315888  82.3198990 106.1215206
 113.2569992  88.0519978 119.0880014 112.4059992  88.2899978 118.7210014
 113.8469992  88.0349978 118.3350014 113.2202408  88.0822966 118.9358879
 111.5889992  91.0369978 106.7160014 111.2159992  90.2119978 107.0250014
 111.8659992  90.8539978 105.8190014 111.5753871  90.8992441 106.6369677
 108.7489992  85.8449978 113.7370014 107.8209992  85.6139978 113.7100014
 109.1999992  85.0679978 113.4070014 108.6828165  85.7082774 113.6886790
 101.2919992  90.1739978 109.8700014 101.8199992  90.9469978 109.6700014
 100.4119992  90.3979978 109.5690014 101.2453176  90.3103161 109.8018409
  97.0469992  85.0359978 104.4580014  97.6629992  85.6629978 104.8370014
  96.1849992  85.3519978 104.7290014  97.0148195  85.1645798 104.5465386
 102.7199992  87.8369978 109.4470014 102.4789992  88.7619978 109.4880014
 101.9789992  87.3779978 109.8430014 102.5868390  87.9016403 109.5061404
 103.2339992  91.9859978 115.7620014 103.5969992  92.8399978 115.5280014
 103.7659992  91.6939978 116.5020014 103.3556090  92.0634058 115.8300219
 101.4029992  92.8579978 108.9920014 100.4529992  92.9639978 109.0430014
 101.7549992  93.6789978 109.3370014 101.3205480  92.9834438 109.0455999
 106.7779992  88.0849978 115.4620014 106.3529992  87.8569978 116.2890014
 107.3589992  87.3459978 115.2800014 106.7983930  87.9539843 115.5504732
 109.4369992  92.6369978 117.9320014 108.8349992  92.0809978 117.4360014
 109.7179992  93.3039978 117.3060014 109.3926829  92.6511613 117.7795443
  97.5589992  79.8699978 117.3390014  96.6669992  80.2079978 117.2720014
  97.4609992  79.0139978 117.7570014  97.4234965  79.8006499 117.3863044
 109.8469992  87.6859978 106.7630014 109.5699992  86.9579978 107.3190014
 110.7749992  87.8049978 106.9680014 109.9344499  87.6024213 106.8668044
  97.2109992  91.6739978 115.7740014  97.4279992  90.7419978 115.7430014
  97.4569992  91.9489978 116.6570014  97.2739809  91.5835686 115.8891690
  98.4619992  86.9479978 105.9500014  97.7759992  87.3009978 106.5170014
  98.9849992  87.7109978 105.7040014  98.4389033  87.0993746 105.9942661
 106.2939992  79.6109978 116.2290014 106.9929992  79.6849978 116.8790014
 105.9129992  78.7459978 116.3830014 106.3382097  79.5042389 116.3387997
 107.0779992  79.2629978 107.3260014 107.2979992  79.7339978 106.5230014
 107.6369992  79.6569978 107.9960014 107.1836730  79.3807432 107.3065906
 104.7469992  91.3929978 106.1890014 103.9299992  91.8899978 106.2410014
 105.2759992  91.8689978 105.5490014 104.7068508  91.5252543 106.1096035
 104.2779992  80.9909978 108.1610014 105.0899992  81.4949978 108.2070014
 104.0339992  80.8459978 109.0750014 104.3561467  81.0403749 108.2908575
 104.8139992  81.9769978 117.3460014 104.9329992  82.5509978 118.1030014
 105.4689992  81.2889978 117.4600014 104.9189146  81.9625574 117.4651314
 105.1619992  78.0719978 109.0990014 104.8149992  78.6889978 109.7440014
 105.8209992  78.5729978 108.6180014 105.2035949  78.2241099 109.1222271
 100.8199992  79.1349978 105.7860014 100.7359992  80.0229978 106.1330014
 101.7099992  78.8699978 106.0180014 100.9288163  79.2207179 105.8648596
 111.0179992  79.8839978 118.1810014 110.1019992  80.1459978 118.0930014
 111.3539992  79.8809978 117.2840014 110.9379789  79.9194626 118.0477847
 109.6209992  83.6339978 112.2760014 108.8229992  83.2189978 111.9480014
 110.0659992  82.9439978 112.7670014 109.5719684  83.4838628 112.2975227
  99.0779992  89.5619978 104.8470014  99.6699992  90.2619978 105.1230014
  99.5369992  89.1289978 104.1270014  99.2210791  89.5992908 104.7874607
  97.3939992  82.2269978 103.9630014  97.3489992  83.1659978 104.1410014
  96.5059992  81.9909978 103.6930014  97.2678555  82.3236874 103.9508939
 110.7069992  92.8899978 113.8990014 110.5509992  93.5689978 113.2420014
 111.6399992  92.9619978 114.1020014 110.8117387  92.9926390 113.8365342
  98.2019992  77.0079978 112.6360014  97.9729992  77.0669978 111.7080014
  97.7599992  76.2169978 112.9420014  98.1108801  76.9090540 112.5504729
  97.1329992  90.9489978 108.7960014  96.2999992  91.4209978 108.8240014
  97.6779992  91.4589978 108.1980014  97.0927590  91.0825897 108.7189194
  96.4209992  93.5609978 120.1260014  96.9609992  93.3449978 120.8860014
  95.9399992  92.7559978 119.9370014  96.4298613  93.4225400 120.2044782
 101.0179992  92.4809978 121.7470014 101.7859992  92.0219978 122.0880014
 100.9969992  92.2549978 120.8170014 101.1202135  92.3876668 121.6679491
 107.5949992  90.8609978 120.4760014 107.2439992  90.0039978 120.7190014
 108.3209992  91.0029978 121.0830014 107.6451590  90.7630178 120.5912907
  96.3279992  87.3719978 121.0810014  96.4719992  86.4699978 120.7940014
  95.5559992  87.6579978 120.5930014  96.2433303  87.2873243 120.9757908
 102.9829992  87.3409978 120.5130014 102.6549992  87.6119978 119.6560014
 103.1349992  86.3999978 120.4260014 102.9586030  87.2508973 120.3837945
 108.7179992  87.2569978 117.8970014 109.4629992  87.8459978 117.7770014
 107.9609992  87.8389978 117.9600014 108.7175205  87.4161997 117.8891119
  97.1609992  84.5719978 120.5010014  97.5689992  83.7149978 120.3800014
  96.8999992  84.5859978 121.4220014  97.1816016  84.4565119 120.6089192
 101.8189992  85.6879978 105.5190014 101.3589992  85.2039978 106.2050014
 102.0739992  85.0189978 104.8830014 101.7905038  85.5313689 105.5269447
 101.1079992  83.5809978 117.8750014 100.4889992  84.2549978 118.1550014
 101.4519992  83.9019978 117.0420014 101.0697605  83.7167198 117.8006707
 106.1269992  86.0519978 121.1520014 107.0809992  86.1359978 121.1250014
 105.9669992  85.3399978 121.7720014 106.2357182  85.9672842 121.2320733
 101.4469992  80.9359978 118.9570014 101.5969992  80.2069978 118.3550014
 101.4489992  81.7129978 118.3980014 101.4677967  80.9412708 118.7990541
 101.8599992  79.3049978 116.4500014 102.3949992  79.7569978 115.7980014
 101.0069992  79.1969978 116.0270014 101.8180374  79.3522665 116.3036710
 103.4409992  84.7449978 116.6890014 104.1919992  84.5889978 116.1160014
 103.1019992  85.5969978 116.4140014 103.4979587  84.8388138 116.5734078
 107.8569992  82.5599978 121.7180014 108.0489992  81.6289978 121.6060014
 108.7149992  82.9849978 121.7080014 107.9992269  82.4899928 121.7013192
 109.1739992  85.3489978 119.7950014 108.8919992  86.0579978 119.2180014
 110.1159992  85.2759978 119.6440014 109.2627656  85.4363128 119.6954809
  99.9259992  82.1339978 120.8690014  99.1579992  81.6009978 120.6590014
 100.6039992  81.8239978 120.2690014  99.9126973  82.0192375 120.7591796
 102.6649992  76.7619978 116.8810014 102.5669992  77.7079978 116.7760014
 101.9229992  76.3889978 116.4060014 102.5511913  76.8411813 116.8023539
 103.9289992  81.0829978 120.4450014 103.6939992  80.8639978 121.3470014
 103.1459992  80.8759978 119.9350014 103.7909219  81.0250066 120.4995852
 106.6449992  80.2109978 119.5210014 105.6969992  80.2429978 119.6530014
 106.9569992  79.5849978 120.1740014 106.5575190  80.1307262 119.6273564
 108.2789992  78.8449978 121.5260014 108.1819992  77.8929978 121.5200014
 107.9569992  79.1129978 122.3860014 108.2221761  78.7509744 121.6414936
  98.1059992  80.0539978 120.5730014  98.3179992  79.3479978 119.9630014
  97.9949992  79.6169978 121.4170014  98.1200269  79.8981921 120.6035873
 102.8869992  76.0559978 119.5530014 103.5989992  75.4159978 119.5390014
 102.7859992  76.3219978 118.6390014 102.9707261  76.0044190 119.4275537
 103.2409992  77.7379978 121.6060014 103.1089992  77.2629978 120.7860014
 102.6409992  78.4829978 121.5510014 103.1419070  77.7735789 121.4863251
  96.3549992  89.2579978 104.2650014  97.2689992  89.3369978 104.5390014
  96.3629992  88.5709978 103.5990014  96.4811143  89.1759085 104.2124274
  95.0039992  94.6509978 109.3430014  94.3569992  94.1889978 108.8100014
  95.3589992  93.9789978 109.9250014  94.9634506  94.4969503 109.3487341
  95.8739992  92.7309978 111.1470014  95.5399992  91.8509978 111.3190014
  96.0969992  93.0769978 112.0120014  95.8583721  92.6571938 111.2874168
 113.4229992  93.5409978 114.1280014 113.4009992  93.7259978 115.0670014
 114.1129992  94.1089978 113.7870014 113.5133439  93.6431887 114.2104791
 112.9859992  93.1079978 117.0500014 112.4989992  92.3729978 116.6790014
 113.5349992  92.7139978 117.7280014 112.9935247  92.9541057 117.0908461
 111.4369992  88.8979978 121.6880014 110.5709992  88.7929978 122.0820014
 111.8129992  89.6559978 122.1340014 111.3693401  88.9861708 121.8022620
 112.7379992  87.1539978 107.2020014 113.5879992  87.5749978 107.3290014
 112.7429992  86.4139978 107.8090014 112.8551143  87.1116094 107.3014750
 113.1319992  85.2079978 109.0260014 112.4059992  84.7279978 109.4230014
 113.7139992  85.4129978 109.7580014 113.1111635  85.1699166 109.1793748
 112.8909992  87.9929978 113.9730014 113.7249992  87.6149978 113.6930014
 113.0029992  88.9359978 113.8540014 113.0202522  88.0687742 113.9186020
 111.3779992  90.8709978 116.2800014 110.7299992  91.1959978 116.9060014
 110.8599992  90.4299978 115.6060014 111.2194168  90.8558523 116.2745307
 113.4009992  85.1089978 105.4170014 112.8789992  85.4649978 104.6980014
 113.3679992  85.7839978 106.0950014 113.3250699  85.2489848 105.4102129
 111.7499992  82.3479978 103.9680014 111.8459992  83.0149978 103.2880014
 111.6099992  81.5329978 103.4860014 111.7442063  82.3290667 103.8098377
 110.9189992  83.7289978 109.5890014 110.7689992  82.7839978 109.5680014
 110.5649992  84.0099978 110.4320014 110.8505527  83.6375605 109.7001859
 111.7749992  85.6989978 119.2270014 112.3579992  84.9639978 119.4190014
 112.3389992  86.4709978 119.2740014 111.9309781  85.7028145 119.2596164
 113.2719992  83.6019978 119.9120014 112.4089992  83.2229978 119.7460014
 113.8759992  82.8629978 119.8380014 113.2355944  83.4502978 119.8792984
 110.6299992  81.3109978 108.0510014 110.9089992  80.4039978 108.1750014
 111.3889992  81.7449978 107.6620014 110.7708619  81.2454502 108.0153795
 111.2409992  81.8929978 113.4870014 112.1739992  82.1049978 113.4530014
 111.0059992  81.9939978 114.4090014 111.3368308  81.9356503 113.6070214
 111.2709992  82.6299978 116.2630014 110.4279992  82.8979978 116.6290014
 111.7129992  83.4519978 116.0520014 111.2154138  82.7778273 116.2845518
  95.5519992  81.0769978 119.7400014  96.4709992  80.9549978 119.9760014
  95.1019992  80.3269978 120.1290014  95.6171148  80.9588751 119.8249408
 113.5539992  76.6099978 121.6160014 113.9029992  75.9559978 121.0110014
 113.7009992  77.4469978 121.1770014 113.6217355  76.6336067 121.4736564
 111.2429992  78.5739978 108.0990014 111.4249992  78.1249978 108.9250014
 110.6429992  77.9899978 107.6360014 111.1867529  78.4336131 108.1493619
  96.7729992  79.3899978 112.6310014  97.2179992  78.5979978 112.9330014
  97.2389992  80.1059978 113.0620014  96.8969059  79.3784474 112.7306079
  95.0769992  82.3889978 113.7000014  95.5689992  82.1679978 112.9090014
  95.4389992  83.2289978 113.9810014  95.1932923  82.4723468 113.6297407
 113.0729992  78.7189978 119.9660014 112.1559992  78.9899978 119.9300014
 113.1959992  78.1839978 119.1820014 112.9640828  78.6837700 119.8550785
  95.3909992  78.6469978 107.7540014  94.4659992  78.8549978 107.6250014
  95.8449992  79.1309978 107.0650014  95.3256374  78.7409949 107.6430957
 110.1609992  93.6309978 109.7000014 110.8139992  93.2829978 109.0920014
 110.6719992  94.1189978 110.3460014 110.3192777  93.6493815 109.7042047
  95.3539992  77.3849978 116.0990014  94.6889992  77.1389978 116.7420014
  94.9109992  78.0069978 115.5210014  95.2030937  77.4353614 116.1089379
  97.5459992  90.5599978 120.2430014  96.7249992  90.7349978 119.7830014
  97.2939992  90.4869978 121.1640014  97.3996173  90.5740794 120.3044972
 100.4999992  91.5339978 116.5020014 100.0759992  92.3439978 116.2190014
 101.4049992  91.6199978 116.2000014 100.5642433  91.6563331 116.4225377
 104.8119992  92.9329978 119.4610014 104.9959992  92.5999978 120.3390014
 105.6579992  93.2429978 119.1390014 104.9516484  92.9292979 119.5377617
 107.1569992  94.2189978 118.7050014 107.8339992  93.5859978 118.4650014
 107.4779992  94.6199978 119.5120014 107.2931323  94.1865691 118.7813158
 112.0739992  76.8089978 117.7850014 111.2609992  77.1339978 117.3970014
 112.3069992  76.0479978 117.2520014 111.9942566  76.7506559 117.6599213
  97.9019992  94.7909978 116.5490014  97.1819992  95.2309978 116.0980014
  97.5369992  94.5399978 117.3980014  97.7539796  94.8173824 116.6019329
 100.3689992  94.3909978 115.5790014  99.5049992  94.4629978 115.9830014
 100.3139992  94.9379978 114.7950014 100.2431942  94.4747849 115.5284000
 105.0799992  94.2789978 114.7540014 104.6229992  94.8079978 114.1000014
 105.2429992  94.8819978 115.4800014 105.0394476  94.4329140 114.7625499
 107.4079992  93.1569978 115.6990014 106.5029992  93.3219978 115.4340014
 107.8359992  94.0099978 115.6340014 107.3420700  93.2949529 115.6539520
 110.0119992  94.7269978 115.9940014 109.8299992  95.6429978 115.7840014
 110.1889992  94.3159978 115.1480014 110.0109907  94.7969741 115.8507883
  97.3169992  93.4139978 113.4590014  97.2989992  92.9879978 114.3170014
  98.1219992  93.0949978 113.0510014  97.4233221  93.3127233 113.5210225
  99.4579992  92.1239978 112.1140014  99.2389992  91.2069978 112.2840014
 100.2819992  92.2639978 112.5800014  99.5394702  92.0175511 112.2002527
 101.9949992  92.5939978 112.9630014 102.2079992  91.7059978 112.6760014
 102.0599992  92.5589978 113.9180014 102.0329075  92.4678307 113.0527373
 105.5039992  78.2579978 112.1070014 104.8299992  77.6279978 112.3630014
 106.0679992  77.7739978 111.5040014 105.4880384  78.1063708 112.0605020
 110.6469992  76.3649978 112.2200014 111.2499992  76.9129978 111.7180014
 109.7769992  76.6839978 111.9800014 110.6119190  76.4831041 112.1188679
 112.3739992  77.5039978 110.5530014 112.9849992  76.9899978 110.0270014
 112.7559992  78.3809978 110.5770014 112.5094475  77.5521323 110.4841208
  97.8309992  76.8919978 109.9290014  97.0539992  76.6569978 109.4220014
  98.3609992  76.0949978 109.9380014  97.7963451  76.7521268 109.8608627
 102.4099992  76.8179978 109.7430014 103.2839992  77.2069978 109.7130014
 102.2739992  76.6029978 110.6650014 102.5113207  76.8421923 109.8636509
 107.9669992  76.8479978 111.3920014 108.0429992  76.9439978 110.4430014
 107.6919992  75.9409978 111.5210014 107.9402042  76.7384241 111.2793811
 109.3199992  76.8739978 107.0840014 108.6169992  77.4889978 106.8750014
 108.8749992  76.0369978 107.2160014 109.1636292  76.8450085 107.0732439
  96.5679992  92.6379978 106.6310014  95.8829992  92.5999978 105.9630014
  96.5719992  93.5509978 106.9190014  96.4748174  92.7561998 106.5785310
 103.5539992  78.8989978 106.6330014 103.7319992  78.2519978 107.3150014
 103.4999992  79.7329978 107.1000014 103.5711025  78.9230504 106.7896433
 105.4319992  93.8469978 105.0280014 106.2979992  94.2139978 104.8500014
 105.1859992  93.4079978 104.2140014 105.5172097  93.8378525 104.8936019
 112.1409992  93.4099978 107.7070014 111.9469992  92.6619978 107.1420014
 112.1019992  94.1679978 107.1240014 112.1091645  93.4100786 107.5508148
  97.7879992  77.4059978 119.4470014  97.4219992  76.6399978 119.8900014
  98.7009992  77.4349978 119.7340014  97.8613225  77.3051906 119.5463459
  99.7609992  76.7559978 120.9830014 100.6599992  76.4819978 120.7980014
  99.3749992  76.0139978 121.4470014  99.8317237  76.6181508 121.0204710
 108.1829992  76.0889978 121.1650014 108.2589992  75.6629978 122.0190014
 109.0759992  76.1019978 120.8220014 108.3142267  76.0323952 121.2355932
 111.3589992  92.1619978 119.8570014 110.5769992  91.9749978 119.3380014
 111.2869992  93.0909978 120.0750014 111.2420863  92.2620221 119.8153574
 125.7649992  86.0479978 109.8880014 125.8539992  86.9919978 109.7560014
 125.1269992  85.7729978 109.2300014 125.6909062  86.1399812 109.7809641
 124.6979992  85.3029978 113.3070014 124.6599992  84.6569978 114.0120014
 124.3759992  84.8359978 112.5360014 124.6492679  85.1514276 113.2992921
 117.0659992  84.9169978 114.9000014 117.1079992  84.2919978 115.6230014
 117.7689992  85.5409978 115.0820014 117.1667345  84.9157873 115.0235273
 128.4039992  88.2419978 111.6090014 127.9629992  87.5219978 112.0590014
 128.3909992  88.9629978 112.2380014 128.3417960  88.2408329 111.7557567
 117.9899992  89.3669978 113.4350014 117.6199992  88.5649978 113.0650014
 118.9309992  89.1989978 113.4810014 118.0665984  89.2344638 113.3905603
 114.5999992  83.0269978 108.8280014 114.1519992  83.8729978 108.8090014
 114.0389992  82.4479978 108.3120014 114.4629603  83.0643674 108.7556720
 115.3099992  85.1889978 110.9540014 115.5239992  84.4189978 111.4810014
 116.0479992  85.2789978 110.3500014 115.4389652  85.0958012 110.9445212
 125.5159992  93.3459978 111.8210014 126.1349992  92.6699978 111.5470014
 125.3069992  93.1279978 112.7290014 125.5726232  93.2237938 111.9062517
 123.0869992  87.7349978 113.7130014 123.3909992  87.0489978 113.1190014
 123.8089992  87.8539978 114.3310014 123.2261152  87.6572189 113.7152123
 131.7499992  79.3369978 114.5740014 131.7999992  79.9469978 115.3100014
 132.1759992  79.7979978 113.8510014 131.8144108  79.4827709 114.5770112
 126.2279992  82.1289978 114.0410014 126.3709992  81.1829978 114.0610014
 126.1219992  82.3359978 113.1120014 126.2332509  82.0274813 113.9182231
 119.3829992  80.2309978 111.3130014 119.4259992  81.0909978 110.8950014
 118.9249992  79.6789978 110.6790014 119.3269815  80.2740621 111.1701197
 127.1049992  80.3619978 109.7140014 127.7519992  80.0329978 110.3390014
 127.6149992  80.8789978 109.0910014 127.2624317  80.3869227 109.7152167
 116.0029992  82.6279978 112.0750014 116.6569992  82.0779978 112.5070014
 116.0269992  82.3539978 111.1580014 116.0957199  82.5157167 112.0101668
 121.1599992  84.1779978 111.2900014 121.7759992  83.6509978 111.8000014
 120.5729992  83.5379978 110.8870014 121.1649239  84.0194117 111.3052952
 132.1419992  80.8149978 116.8100014 131.4529992  81.4729978 116.7140014
 132.1569992  80.6169978 117.7460014 132.0496740  80.8783243 116.9234630
 118.1929992  79.1489978 115.3870014 117.9739992  79.6789978 114.6210014
 117.5249992  79.3749978 116.0340014 118.0727001  79.2521154 115.3696064
 125.5619992  88.6489978 108.9310014 125.2669992  88.3259978 108.0800014
 125.2379992  89.5489978 108.9720014 125.4777983  88.7264027 108.8199771
 120.7619992  86.8239978 115.6750014 120.0219992  87.4229978 115.7780014
 121.4759992  87.3779978 115.3590014 120.7573288  86.9807356 115.6463805
 128.8689992  79.6529978 111.6940014 128.6539992  78.8869978 112.2270014
 129.5249992  80.1249978 112.2070014 128.9282673  79.6120728 111.8361990
 117.7869992  81.0409978 113.3390014 118.4009992  81.6739978 113.7130014
 118.2989992  80.5689978 112.6830014 117.9402277  81.0637352 113.3014279
 119.1699992  88.7889978 116.4620014 119.1639992  89.6679978 116.0840014
 118.3159992  88.7049978 116.8870014 119.0537925  88.8979535 116.4676887
 115.2909992  88.4599978 107.2440014 115.0189992  88.6889978 106.3550014
 115.3359992  89.2969978 107.7040014 115.2598709  88.6046058 107.1846107
 128.9159992  90.0809978 113.9560014 127.9739992  90.1399978 114.1180014
 129.1919992  90.9869978 113.8190014 128.8245865  90.2115288 113.9596192
 129.2159992  78.3679978 115.3740014 128.4799992  78.9779978 115.3360014
 129.8999992  78.7829978 114.8470014 129.2075506  78.5076400 115.2976051
 122.2199992  76.4539978 112.8400014 122.1019992  75.5059978 112.7850014
 121.3649992  76.7869978 113.1130014 122.0882679  76.3691926 112.8693720
 127.1679992  91.8619978 110.5820014 127.5929992  91.1549978 110.0970014
 127.4849992  92.6639978 110.1650014 127.2690266  91.8735190 110.4592479
 128.3279992  89.7629978 109.0900014 128.0699992  89.0729978 108.4790014
 128.3989992  89.3199978 109.9360014 128.3022837  89.6087106 109.1206912
 130.0139992  88.3299978 117.5680014 130.1529992  87.7379978 116.8280014
 130.1809992  89.2029978 117.2110014 130.0555562  88.3669896 117.4186283
 124.4859992  85.2919978 107.3400014 123.7749992  85.8269978 106.9880014
 125.1769992  85.3469978 106.6800014 124.4820751  85.3726777 107.2025858
 131.8549992  84.6699978 115.6340014 131.2029992  85.3639978 115.7230014
 132.3209992  84.8799978 114.8240014 131.8285937  84.7935019 115.5367533
 127.8919992  85.5009978 108.2920014 127.1599992  85.7299978 108.8650014
 128.3389992  84.7879978 108.7470014 127.8522753  85.4358972 108.4319715
 127.7889992  83.6759978 117.3600014 127.8689992  84.4389978 117.9310014
 127.1879992  83.9549978 116.6690014 127.7187245  83.8182630 117.3448424
 119.5369992  86.1319978 110.1740014 119.2069992  85.7609978 109.3560014
 120.1259992  85.4609978 110.5210014 119.5713970  85.9906063 110.1089404
 120.9039992  89.5599978 112.8560014 120.8089992  88.9809978 112.0990014
 121.6329992  89.1889978 113.3520014 120.9896161  89.4305891 112.8195209
 119.9039992  84.8999978 113.8080014 120.4689992  85.0219978 113.0450014
 120.2229992  85.5379978 114.4470014 120.0243977  85.0028851 113.7899424
 126.2129992  90.4039978 114.5420014 125.9729992  91.0659978 115.1900014
 126.0149992  89.5689978 114.9670014 126.1533826  90.3818115 114.6881566
 120.7839992  89.2999978 118.5250014 120.4729992  90.0819978 118.9800014
 120.1339992  89.1469978 117.8390014 120.6535538  89.3864087 118.4945898
 117.7039992  85.4979978 117.7540014 117.7739992  86.1489978 118.4520014
 116.8129992  85.6009978 117.4190014 117.5931802  85.6009757 117.8042249
 124.4889992  91.3999978 109.4120014 124.9629992  91.6959978 110.1900014
 123.9259992  92.1389978 109.1790014 124.4777361  91.5402721 109.4868611
 119.0229992  91.3709978 119.2880014 119.0309992  91.2349978 118.3410014
 118.1069992  91.2539978 119.5400014 118.9002528  91.3365463 119.1923243
 130.4619992  76.4139978 105.7900014 129.5619992  76.5529978 106.0850014
 130.7139992  77.2449978 105.3880014 130.3728683  76.5454055 105.7760232
 118.5279992  85.2009978 107.7640014 118.2359992  85.9689978 107.2730014
 117.8529992  84.5419978 107.6010014 118.3968497  85.2169745 107.6748260
 114.6209992  87.5639978 116.5790014 114.1189992  87.5359978 115.7640014
 114.6259992  86.6589978 116.8880014 114.5530416  87.4377368 116.5093766
 114.3709992  90.3449978 113.4630014 115.3169992  90.1999978 113.4440014
 114.2579992  91.1289978 114.0000014 114.4853578  90.4311697 113.5330317
 132.5689992  91.0109978 119.1450014 132.5189992  90.0549978 119.1080014
 131.7419992  91.2779978 119.5460014 132.4503987  90.9165174 119.1941446
 123.5469992  90.5849978 118.0210014 123.6349992  91.4109978 118.4960014
 122.6839992  90.2549978 118.2700014 123.4423357  90.6535468 118.1197653
 123.9619992  94.3569978 107.8270014 123.8859992  94.2359978 106.8810014
 123.9939992  95.3059978 107.9460014 123.9559156  94.4687530 107.7135048
 117.6149992  93.1459978 109.6080014 117.7669992  92.7979978 110.4870014
 116.7639992  92.7889978 109.3530014 117.5207899  93.0501738 109.6937340
 127.0629992  93.5109978 104.8290014 127.4379992  92.7669978 104.3590014
 127.0679992  93.2409978 105.7480014 127.1150024  93.3726950 104.8887987
 126.7319992  93.4369978 107.5790014 125.7969992  93.5369978 107.7570014
 127.0119992  92.7269978 108.1570014 126.6418173  93.3547239 107.6814998
 129.7209992  82.5039978 119.6250014 129.3129992  82.9839978 118.9050014
 129.7609992  81.5979978 119.3170014 129.6705476  82.4473160 119.4848247
 116.8699992  88.8879978 117.6220014 117.0859992  88.5259978 118.4810014
 116.0139992  88.5129978 117.4120014 116.7839354  88.7877906 117.7112160
 119.4879992  77.3579978 113.6170014 118.6269992  77.2709978 113.2100014
 119.4659992  78.2139978 114.0450014 119.3670411  77.4617884 113.6190857
 124.1509992  77.0799978 116.9920014 124.5709992  76.6649978 117.7450014
 123.2179992  76.9009978 117.1090014 124.0823736  76.9989910 117.1108968
 127.4779992  80.8349978 117.8450014 126.9639992  80.7099978 118.6430014
 127.3219992  81.7479978 117.6010014 127.3866967  80.9412123 117.9210937
 123.8129992  79.5719978 104.2770014 123.5589992  79.5909978 105.2000014
 123.5559992  78.7009978 103.9760014 123.7435133  79.4568110 104.3625082
 119.5789992  82.3229978 114.7120014 118.9379992  82.2829978 115.4210014
 119.6169992  83.2499978 114.4750014 119.4963670  82.4427795 114.7770550
 119.5759992  82.5439978 109.6240014 118.6839992  82.2039978 109.5660014
 120.0269992  82.1669978 108.8690014 119.5146815  82.4463762 109.5139203
 125.1119992  82.9599978 108.4410014 124.7029992  83.7749978 108.1500014
 125.8319992  82.8199978 107.8270014 125.1534013  83.0526571 108.3180875
 124.2139992  83.1359978 119.9290014 123.6509992  82.4309978 120.2500014
 125.0399992  83.0149978 120.3970014 124.2486674  83.0232165 120.0361751
 126.1169992  82.4059978 111.2550014 125.9209992  83.0119978 110.5400014
 126.2979992  81.5729978 110.8210014 126.1146584  82.3762513 111.0984212
 117.3289992  82.6439978 116.5790014 117.2909992  83.0439978 117.4480014
 116.8389992  81.8269978 116.6700014 117.2575621  82.5882510 116.7101377
 120.6949992  80.0179978 103.3780014 120.2639992  79.5729978 104.1080014
 119.9769992  80.3889978 102.8660014 120.5389363  80.0072968 103.4086211
 113.9379992  79.7599978 110.4300014 114.5679992  79.7309978 111.1490014
 114.3869992  79.3349978 109.7000014 114.0850692  79.6985316 110.4297771
 115.2119992  80.5059978 105.8540014 115.6859992  81.0969978 105.2690014
 114.4939992  81.0359978 106.2010014 115.1798640  80.6585511 105.8207969
 125.3809992  84.0439978 115.9270014 125.7039992  83.4129978 115.2840014
 124.9399992  83.5099978 116.5870014 125.3655789  83.8853522 115.9282232
 122.1579992  79.9719978 110.7110014 121.2469992  80.0289978 110.9990014
 122.6629992  79.9119978 111.5210014 122.1015387  79.9716870 110.8600646
 116.9859992  81.6009978 109.5370014 116.0969992  81.6999978 109.1970014
 117.2829992  80.7589978 109.1910014 116.9044177  81.5007687 109.4436940
 120.6389992  81.6009978 107.1940014 121.5709992  81.7299978 107.3720014
 120.4239992  82.2699978 106.5440014 120.7374472  81.7090806 107.1304891
 126.5629992  79.2069978 113.9750014 125.8859992  79.3379978 114.6390014
 126.0779992  79.0519978 113.1650014 126.4047265  79.2039659 113.9563397
 129.8509992  94.8779978 120.2520014 130.0499992  95.3019978 119.4170014
 130.5059992  95.2219978 120.8590014 129.9668501  94.9826091 120.2197097
 117.4489992  87.3519978 119.8600014 118.1809992  87.6069978 120.4210014
 116.6679992  87.5569978 120.3750014 117.4437684  87.4146468 120.0064782
 123.4779992  82.7589978 112.5980014 124.0419992  82.2129978 112.0510014
 123.3299992  82.2379978 113.3860014 123.5352575  82.6136552 112.6296987
 118.4799992  78.8959978 109.0160014 118.1629992  77.9929978 108.9810014
 119.2609992  78.8979978 108.4630014 118.5422307  78.7726951 108.9364314
 122.1039992  81.1479978 115.0120014 121.2689992  81.6019978 115.1220014
 122.6279992  81.4239978 115.7640014 122.0605070  81.2474666 115.1287152
 122.6489992  87.3609978 106.6960014 121.9039992  86.8529978 106.3740014
 122.5139992  87.4099978 107.6430014 122.5289047  87.2981596 106.7798845
 129.7989992  86.4939978 115.4830014 130.4399992  86.9499978 114.9390014
 128.9679992  86.6069978 115.0210014 129.7745171  86.5717502 115.3460237
 124.1679992  87.5449978 117.9330014 123.8219992  87.1629978 118.7400014
 123.9679992  88.4779978 118.0050014 124.0936523  87.6189095 118.0530735
 127.2649992  82.0419978 106.5560014 128.1569992  81.9039978 106.8750014
 127.3209992  82.8329978 106.0200014 127.3947107  82.1300526 106.5272091
 117.7729992  86.6559978 112.4660014 118.5179992  86.6529978 111.8650014
 117.8509992  85.8319978 112.9480014 117.8854158  86.5442916 112.4489153
 114.7809992  85.1159978 117.7810014 115.0039992  84.6979978 118.6130014
 114.1789992  84.5039978 117.3580014 114.7301260  84.9759933 117.8377320
 121.7979992  84.6329978 119.9940014 121.5019992  84.4679978 119.0990014
 122.7289992  84.4129978 119.9830014 121.8833982  84.5806578 119.8700045
 126.4179992  90.0069978 117.8840014 125.5179992  90.1899978 117.6160014
 126.4519992  90.2659978 118.8050014 126.2992909  90.0670815 117.9717852
 132.1499992  82.2509978 106.2510014 131.5949992  81.8549978 105.5790014
 132.2499992  83.1619978 105.9730014 132.0875888  82.3198990 106.1215206
 132.1129992  88.0519978 119.0880014 131.2619992  88.2899978 118.7210014
 132.7029992  88.0349978 118.3350014 132.0762408  88.0822966 118.9358879
 130.4449992  91.0369978 106.7160014 130.0719992  90.2119978 107.0250014
 130.7219992  90.8539978 105.8190014 130.4313871  90.8992441 106.6369677
 127.6049992  85.8449978 113.7370014 126.6769992  85.6139978 113.7100014
 128.0559992  85.0679978 113.4070014 127.5388165  85.7082774 113.6886790
 120.1479992  90.1739978 109.8700014 120.6759992  90.9469978 109.6700014
 119.2679992  90.3979978 109.5690014 120.1013176  90.3103161 109.8018409
 121.5759992  87.8369978 109.4470014 121.3349992  88.7619978 109.4880014
 120.8349992  87.3779978 109.8430014 121.4428390  87.9016403 109.5061404
 122.0899992  91.9859978 115.7620014 122.4529992  92.8399978 115.5280014
 122.6219992  91.6939978 116.5020014 122.2116090  92.0634058 115.8300219
 120.2589992  92.8579978 108.9920014 119.3089992  92.9639978 109.0430014
 120.6109992  93.6789978 109.3370014 120.1765480  92.9834438 109.0455999
 125.6339992  88.0849978 115.4620014 125.2089992  87.8569978 116.2890014
 126.2149992  87.3459978 115.2800014 125.6543930  87.9539843 115.5504732
 128.2929992  92.6369978 117.9320014 127.6909992  92.0809978 117.4360014
 128.5739992  93.3039978 117.3060014 128.2486829  92.6511613 117.7795443
 116.4149992  79.8699978 117.3390014 115.5229992  80.2079978 117.2720014
 116.3169992  79.0139978 117.7570014 116.2794965  79.8006499 117.3863044
 128.7029992  87.6859978 106.7630014 128.4259992  86.9579978 107.3190014
 129.6309992  87.8049978 106.9680014 128.7904499  87.6024213 106.8668044
 116.0669992  91.6739978 115.7740014 116.2839992  90.7419978 115.7430014
 116.3129992  91.9489978 116.6570014 116.1299809  91.5835686 115.8891691
 125.1499992  79.6109978 116.2290014 125.8489992  79.6849978 116.8790014
 124.7689992  78.7459978 116.3830014 125.1942097  79.5042389 116.3387997
 125.9339992  79.2629978 107.3260014 126.1539992  79.7339978 106.5230014
 126.4929992  79.6569978 107.9960014 126.0396730  79.3807432 107.3065906
 123.1339992  80.9909978 108.1610014 123.9459992  81.4949978 108.2070014
 122.8899992  80.8459978 109.0750014 123.2121467  81.0403749 108.2908575
 123.6699992  81.9769978 117.3460014 123.7889992  82.5509978 118.1030014
 124.3249992  81.2889978 117.4600014 123.7749146  81.9625574 117.4651313
 124.0179992  78.0719978 109.0990014 123.6709992  78.6889978 109.7440014
 124.6769992  78.5729978 108.6180014 124.0595949  78.2241099 109.1222271
 119.6759992  79.1349978 105.7860014 119.5919992  80.0229978 106.1330014
 120.5659992  78.8699978 106.0180014 119.7848163  79.2207179 105.8648596
 129.8739992  79.8839978 118.1810014 128.9579992  80.1459978 118.0930014
 130.2099992  79.8809978 117.2840014 129.7939789  79.9194626 118.0477847
 128.4769992  83.6339978 112.2760014 127.6789992  83.2189978 111.9480014
 128.9219992  82.9439978 112.7670014 128.4279684  83.4838628 112.2975227
 116.2499992  82.2269978 103.9630014 116.2049992  83.1659978 104.1410014
 115.3619992  81.9909978 103.6930014 116.1238555  82.3236874 103.9508939
 129.5629992  92.8899978 113.8990014 129.4069992  93.5689978 113.2420014
 130.4959992  92.9619978 114.1020014 129.6677387  92.9926390 113.8365342
 117.0579992  77.0079978 112.6360014 116.8289992  77.0669978 111.7080014
 116.6159992  76.2169978 112.9420014 116.9668801  76.9090540 112.5504729
 115.9889992  90.9489978 108.7960014 115.1559992  91.4209978 108.8240014
 116.5339992  91.4589978 108.1980014 115.9487590  91.0825897 108.7189194
 115.2769992  93.5609978 120.1260014 115.8169992  93.3449978 120.8860014
 114.7959992  92.7559978 119.9370014 115.2858613  93.4225400 120.2044782
 119.8739992  92.4809978 121.7470014 120.6419992  92.0219978 122.0880014
 119.8529992  92.2549978 120.8170014 119.9762135  92.3876668 121.6679491
 126.4509992  90.8609978 120.4760014 126.0999992  90.0039978 120.7190014
 127.1769992  91.0029978 121.0830014 126.5011590  90.7630178 120.5912907
 115.1839992  87.3719978 121.0810014 115.3279992  86.4699978 120.7940014
 114.4119992  87.6579978 120.5930014 115.0993303  87.2873243 120.9757908
 121.8389992  87.3409978 120.5130014 121.5109992  87.6119978 119.6560014
 121.9909992  86.3999978 120.4260014 121.8146030  87.2508973 120.3837945
 127.5739992  87.2569978 117.8970014 128.3189992  87.8459978 117.7770014
 126.8169992  87.8389978 117.9600014 127.5735205  87.4161997 117.8891119
 116.0169992  84.5719978 120.5010014 116.4249992  83.7149978 120.3800014
 115.7559992  84.5859978 121.4220014 116.0376016  84.4565119 120.6089192
 120.6749992  85.6879978 105.5190014 120.2149992  85.2039978 106.2050014
 120.9299992  85.0189978 104.8830014 120.6465038  85.5313689 105.5269447
 119.9639992  83.5809978 117.8750014 119.3449992  84.2549978 118.1550014
 120.3079992  83.9019978 117.0420014 119.9257605  83.7167198 117.8006707
 124.9829992  86.0519978 121.1520014 125.9369992  86.1359978 121.1250014
 124.8229992  85.3399978 121.7720014 125.0917182  85.9672842 121.2320733
 120.3029992  80.9359978 118.9570014 120.4529992  80.2069978 118.3550014
 120.3049992  81.7129978 118.3980014 120.3237967  80.9412708 118.7990541
 120.7159992  79.3049978 116.4500014 121.2509992  79.7569978 115.7980014
 119.8629992  79.1969978 116.0270014 120.6740374  79.3522665 116.3036710
 122.2969992  84.7449978 116.6890014 123.0479992  84.5889978 116.1160014
 121.9579992  85.5969978 116.4140014 122.3539587  84.8388138 116.5734078
 126.7129992  82.5599978 121.7180014 126.9049992  81.6289978 121.6060014
 127.5709992  82.9849978 121.7080014 126.8552269  82.4899928 121.7013192
 128.0299992  85.3489978 119.7950014 127.7479992  86.0579978 119.2180014
 128.9719992  85.2759978 119.6440014 128.1187656  85.4363128 119.6954809
 118.7819992  82.1339978 120.8690014 118.0139992  81.6009978 120.6590014
 119.4599992  81.8239978 120.2690014 118.7686973  82.0192375 120.7591796
 121.5209992  76.7619978 116.8810014 121.4229992  77.7079978 116.7760014
 120.7789992  76.3889978 116.4060014 121.4071913  76.8411813 116.8023539
 122.7849992  81.0829978 120.4450014 122.5499992  80.8639978 121.3470014
 122.0019992  80.8759978 119.9350014 122.6469219  81.0250066 120.4995852
 125.5009992  80.2109978 119.5210014 124.5529992  80.2429978 119.6530014
 125.8129992  79.5849978 120.1740014 125.4135190  80.1307262 119.6273564
 127.1349992  78.8449978 121.5260014 127.0379992  77.8929978 121.5200014
 126.8129992  79.1129978 122.3860014 127.0781761  78.7509744 121.6414936
 116.9619992  80.0539978 120.5730014 117.1739992  79.3479978 119.9630014
 116.8509992  79.6169978 121.4170014 116.9760269  79.8981921 120.6035873
 121.7429992  76.0559978 119.5530014 122.4549992  75.4159978 119.5390014
 121.6419992  76.3219978 118.6390014 121.8267261  76.0044190 119.4275537
 122.0969992  77.7379978 121.6060014 121.9649992  77.2629978 120.7860014
 121.4969992  78.4829978 121.5510014 121.9979070  77.7735789 121.4863251
 121.6429992  94.6209978 104.7830014 122.5759992  94.7789978 104.9260014
 121.3789992  95.2969978 104.1580014 121.7349308  94.7339104 104.7181396
 115.2109992  89.2579978 104.2650014 116.1249992  89.3369978 104.5390014
 115.2189992  88.5709978 103.5990014 115.3371143  89.1759085 104.2124274
 113.8599992  94.6509978 109.3430014 113.2129992  94.1889978 108.8100014
 114.2149992  93.9789978 109.9250014 113.8194506  94.4969503 109.3487341
 114.7299992  92.7309978 111.1470014 114.3959992  91.8509978 111.3190014
 114.9529992  93.0769978 112.0120014 114.7143721  92.6571938 111.2874168
 132.2789992  93.5409978 114.1280014 132.2569992  93.7259978 115.0670014
 132.9689992  94.1089978 113.7870014 132.3693439  93.6431887 114.2104791
 131.8419992  93.1079978 117.0500014 131.3549992  92.3729978 116.6790014
 132.3909992  92.7139978 117.7280014 131.8495247  92.9541057 117.0908461
 130.2929992  88.8979978 121.6880014 129.4269992  88.7929978 122.0820014
 130.6689992  89.6559978 122.1340014 130.2253401  88.9861708 121.8022620
 131.5939992  87.1539978 107.2020014 132.4439992  87.5749978 107.3290014
 131.5989992  86.4139978 107.8090014 131.7111143  87.1116094 107.3014750
 131.9879992  85.2079978 109.0260014 131.2619992  84.7279978 109.4230014
 132.5699992  85.4129978 109.7580014 131.9671635  85.1699166 109.1793748
 131.7469992  87.9929978 113.9730014 132.5809992  87.6149978 113.6930014
 131.8589992  88.9359978 113.8540014 131.8762522  88.0687742 113.9186020
 130.2339992  90.8709978 116.2800014 129.5859992  91.1959978 116.9060014
 129.7159992  90.4299978 115.6060014 130.0754168  90.8558523 116.2745307
 132.2569992  85.1089978 105.4170014 131.7349992  85.4649978 104.6980014
 132.2239992  85.7839978 106.0950014 132.1810699  85.2489848 105.4102129
 130.6059992  82.3479978 103.9680014 130.7019992  83.0149978 103.2880014
 130.4659992  81.5329978 103.4860014 130.6002063  82.3290667 103.8098377
 129.7749992  83.7289978 109.5890014 129.6249992  82.7839978 109.5680014
 129.4209992  84.0099978 110.4320014 129.7065527  83.6375605 109.7001859
 114.8099992  85.8069978 113.5990014 114.9949992  85.7249978 112.6630014
 115.6599992  85.6829978 114.0230014 114.9500916  85.7790393 113.5282896
 130.6309992  85.6989978 119.2270014 131.2139992  84.9639978 119.4190014
 131.1949992  86.4709978 119.2740014 130.7869781  85.7028145 119.2596164
 132.1279992  83.6019978 119.9120014 131.2649992  83.2229978 119.7460014
 132.7319992  82.8629978 119.8380014 132.0915944  83.4502978 119.8792984
 129.4859992  81.3109978 108.0510014 129.7649992  80.4039978 108.1750014
 130.2449992  81.7449978 107.6620014 129.6268619  81.2454502 108.0153795
 130.0969992  81.8929978 113.4870014 131.0299992  82.1049978 113.4530014
 129.8619992  81.9939978 114.4090014 130.1928308  81.9356503 113.6070214
 130.1269992  82.6299978 116.2630014 129.2839992  82.8979978 116.6290014
 130.5689992  83.4519978 116.0520014 130.0714138  82.7778273 116.2845518
 114.4079992  81.0769978 119.7400014 115.3269992  80.9549978 119.9760014
 113.9579992  80.3269978 120.1290014 114.4731148  80.9588751 119.8249408
 132.4099992  76.6099978 121.6160014 132.7589992  75.9559978 121.0110014
 132.5569992  77.4469978 121.1770014 132.4777355  76.6336067 121.4736564
 130.0989992  78.5739978 108.0990014 130.2809992  78.1249978 108.9250014
 129.4989992  77.9899978 107.6360014 130.0427529  78.4336131 108.1493619
 115.6289992  79.3899978 112.6310014 116.0739992  78.5979978 112.9330014
 116.0949992  80.1059978 113.0620014 115.7529059  79.3784474 112.7306079
 113.9329992  82.3889978 113.7000014 114.4249992  82.1679978 112.9090014
 114.2949992  83.2289978 113.9810014 114.0492923  82.4723468 113.6297407
 131.9289992  78.7189978 119.9660014 131.0119992  78.9899978 119.9300014
 132.0519992  78.1839978 119.1820014 131.8200828  78.6837700 119.8550785
 114.2469992  78.6469978 107.7540014 113.3219992  78.8549978 107.6250014
 114.7009992  79.1309978 107.0650014 114.1816374  78.7409949 107.6430957
 129.0169992  93.6309978 109.7000014 129.6699992  93.2829978 109.0920014
 129.5279992  94.1189978 110.3460014 129.1752777  93.6493815 109.7042047
 114.2099992  77.3849978 116.0990014 113.5449992  77.1389978 116.7420014
 113.7669992  78.0069978 115.5210014 114.0590937  77.4353614 116.1089379
 116.4019992  90.5599978 120.2430014 115.5809992  90.7349978 119.7830014
 116.1499992  90.4869978 121.1640014 116.2556173  90.5740794 120.3044972
 119.3559992  91.5339978 116.5020014 118.9319992  92.3439978 116.2190014
 120.2609992  91.6199978 116.2000014 119.4202433  91.6563331 116.4225377
 123.6679992  92.9329978 119.4610014 123.8519992  92.5999978 120.3390014
 124.5139992  93.2429978 119.1390014 123.8076484  92.9292979 119.5377617
 126.0129992  94.2189978 118.7050014 126.6899992  93.5859978 118.4650014
 126.3339992  94.6199978 119.5120014 126.1491323  94.1865691 118.7813158
 130.9299992  76.8089978 117.7850014 130.1169992  77.1339978 117.3970014
 131.1629992  76.0479978 117.2520014 130.8502566  76.7506559 117.6599213
 116.7579992  94.7909978 116.5490014 116.0379992  95.2309978 116.0980014
 116.3929992  94.5399978 117.3980014 116.6099796  94.8173824 116.6019329
 119.2249992  94.3909978 115.5790014 118.3609992  94.4629978 115.9830014
 119.1699992  94.9379978 114.7950014 119.0991942  94.4747849 115.5284000
 123.9359992  94.2789978 114.7540014 123.4789992  94.8079978 114.1000014
 124.0989992  94.8819978 115.4800014 123.8954476  94.4329140 114.7625499
 126.2639992  93.1569978 115.6990014 125.3589992  93.3219978 115.4340014
 126.6919992  94.0099978 115.6340014 126.1980700  93.2949529 115.6539520
 128.8679992  94.7269978 115.9940014 128.6859992  95.6429978 115.7840014
 129.0449992  94.3159978 115.1480014 128.8669907  94.7969741 115.8507883
 116.1729992  93.4139978 113.4590014 116.1549992  92.9879978 114.3170014
 116.9779992  93.0949978 113.0510014 116.2793221  93.3127233 113.5210225
 118.3139992  92.1239978 112.1140014 118.0949992  91.2069978 112.2840014
 119.1379992  92.2639978 112.5800014 118.3954702  92.0175511 112.2002527
 120.8509992  92.5939978 112.9630014 121.0639992  91.7059978 112.6760014
 120.9159992  92.5589978 113.9180014 120.8889075  92.4678307 113.0527373
 124.3599992  78.2579978 112.1070014 123.6859992  77.6279978 112.3630014
 124.9239992  77.7739978 111.5040014 124.3440384  78.1063708 112.0605020
 129.5029992  76.3649978 112.2200014 130.1059992  76.9129978 111.7180014
 128.6329992  76.6839978 111.9800014 129.4679190  76.4831041 112.1188679
 131.2299992  77.5039978 110.5530014 131.8409992  76.9899978 110.0270014
 131.6119992  78.3809978 110.5770014 131.3654475  77.5521323 110.4841208
 116.6869992  76.8919978 109.9290014 115.9099992  76.6569978 109.4220014
 117.2169992  76.0949978 109.9380014 116.6523451  76.7521268 109.8608627
 121.2659992  76.8179978 109.7430014 122.1399992  77.2069978 109.7130014
 121.1299992  76.6029978 110.6650014 121.3673207  76.8421923 109.8636509
 126.8229992  76.8479978 111.3920014 126.8989992  76.9439978 110.4430014
 126.5479992  75.9409978 111.5210014 126.7962042  76.7384241 111.2793811
 128.1759992  76.8739978 107.0840014 127.4729992  77.4889978 106.8750014
 127.7309992  76.0369978 107.2160014 128.0196292  76.8450085 107.0732439
 115.4239992  92.6379978 106.6310014 114.7389992  92.5999978 105.9630014
 115.4279992  93.5509978 106.9190014 115.3308174  92.7561998 106.5785310
 117.3839992  78.6059978 104.1750014 117.8749992  77.9759978 103.6480014
 118.0069992  78.9019978 104.8390014 117.5355062  78.5596770 104.1925438
 122.4099992  78.8989978 106.6330014 122.5879992  78.2519978 107.3150014
 122.3559992  79.7329978 107.1000014 122.4271025  78.9230504 106.7896433
 130.9969992  93.4099978 107.7070014 130.8029992  92.6619978 107.1420014
 130.9579992  94.1679978 107.1240014 130.9651645  93.4100786 107.5508148
 116.6439992  77.4059978 119.4470014 116.2779992  76.6399978 119.8900014
 117.5569992  77.4349978 119.7340014 116.7173225  77.3051906 119.5463459
 118.6169992  76.7559978 120.9830014 119.5159992  76.4819978 120.7980014
 118.2309992  76.0139978 121.4470014 118.6877237  76.6181508 121.0204710
 127.0389992  76.0889978 121.1650014 127.1149992  75.6629978 122.0190014
 127.9319992  76.1019978 120.8220014 127.1702267  76.0323952 121.2355932
 130.2149992  92.1619978 119.8570014 129.4329992  91.9749978 119.3380014
 130.1429992  93.0909978 120.0750014 130.0980863  92.2620221 119.8153574
 144.6209992  86.0479978 109.8880014 144.7099992  86.9919978 109.7560014
 143.9829992  85.7729978 109.2300014 144.5469062  86.1399812 109.7809641
 143.5539992  85.3029978 113.3070014 143.5159992  84.6569978 114.0120014
 143.2319992  84.8359978 112.5360014 143.5052679  85.1514276 113.2992921
 135.9219992  84.9169978 114.9000014 135.9639992  84.2919978 115.6230014
 136.6249992  85.5409978 115.0820014 136.0227345  84.9157873 115.0235273
 136.8459992  89.3669978 113.4350014 136.4759992  88.5649978 113.0650014
 137.7869992  89.1989978 113.4810014 136.9225984  89.2344638 113.3905603
 133.4559992  83.0269978 108.8280014 133.0079992  83.8729978 108.8090014
 132.8949992  82.4479978 108.3120014 133.3189603  83.0643674 108.7556720
 134.1659992  85.1889978 110.9540014 134.3799992  84.4189978 111.4810014
 134.9039992  85.2789978 110.3500014 134.2949652  85.0958012 110.9445212
 144.3719992  93.3459978 111.8210014 144.9909992  92.6699978 111.5470014
 144.1629992  93.1279978 112.7290014 144.4286232  93.2237938 111.9062517
 141.9429992  87.7349978 113.7130014 142.2469992  87.0489978 113.1190014
 142.6649992  87.8539978 114.3310014 142.0821152  87.6572189 113.7152123
 145.0839992  82.1289978 114.0410014 145.2269992  81.1829978 114.0610014
 144.9779992  82.3359978 113.1120014 145.0892509  82.0274813 113.9182231
 138.2389992  80.2309978 111.3130014 138.2819992  81.0909978 110.8950014
 137.7809992  79.6789978 110.6790014 138.1829815  80.2740621 111.1701197
 134.8589992  82.6279978 112.0750014 135.5129992  82.0779978 112.5070014
 134.8829992  82.3539978 111.1580014 134.9517199  82.5157167 112.0101668
 140.0159992  84.1779978 111.2900014 140.6319992  83.6509978 111.8000014
 139.4289992  83.5379978 110.8870014 140.0209239  84.0194117 111.3052952
 137.0489992  79.1489978 115.3870014 136.8299992  79.6789978 114.6210014
 136.3809992  79.3749978 116.0340014 136.9287001  79.2521154 115.3696064
 144.4179992  88.6489978 108.9310014 144.1229992  88.3259978 108.0800014
 144.0939992  89.5489978 108.9720014 144.3337983  88.7264027 108.8199771
 139.6179992  86.8239978 115.6750014 138.8779992  87.4229978 115.7780014
 140.3319992  87.3779978 115.3590014 139.6133288  86.9807356 115.6463805
 136.6429992  81.0409978 113.3390014 137.2569992  81.6739978 113.7130014
 137.1549992  80.5689978 112.6830014 136.7962277  81.0637352 113.3014279
 138.0259992  88.7889978 116.4620014 138.0199992  89.6679978 116.0840014
 137.1719992  88.7049978 116.8870014 137.9097925  88.8979535 116.4676887
 134.1469992  88.4599978 107.2440014 133.8749992  88.6889978 106.3550014
 134.1919992  89.2969978 107.7040014 134.1158709  88.6046058 107.1846107
 141.0759992  76.4539978 112.8400014 140.9579992  75.5059978 112.7850014
 140.2209992  76.7869978 113.1130014 140.9442679  76.3691926 112.8693719
 143.3419992  85.2919978 107.3400014 142.6309992  85.8269978 106.9880014
 144.0329992  85.3469978 106.6800014 143.3380751  85.3726777 107.2025858
 138.3929992  86.1319978 110.1740014 138.0629992  85.7609978 109.3560014
 138.9819992  85.4609978 110.5210014 138.4273970  85.9906063 110.1089404
 139.7599992  89.5599978 112.8560014 139.6649992  88.9809978 112.0990014
 140.4889992  89.1889978 113.3520014 139.8456161  89.4305891 112.8195209
 138.7599992  84.8999978 113.8080014 139.3249992  85.0219978 113.0450014
 139.0789992  85.5379978 114.4470014 138.8803977  85.0028851 113.7899424
 145.0689992  90.4039978 114.5420014 144.8289992  91.0659978 115.1900014
 144.8709992  89.5689978 114.9670014 145.0093826  90.3818115 114.6881566
 139.6399992  89.2999978 118.5250014 139.3289992  90.0819978 118.9800014
 138.9899992  89.1469978 117.8390014 139.5095538  89.3864087 118.4945898
 136.5599992  85.4979978 117.7540014 136.6299992  86.1489978 118.4520014
 135.6689992  85.6009978 117.4190014 136.4491802  85.6009757 117.8042249
 143.3449992  91.3999978 109.4120014 143.8189992  91.6959978 110.1900014
 142.7819992  92.1389978 109.1790014 143.3337361  91.5402721 109.4868611
 137.8789992  91.3709978 119.2880014 137.8869992  91.2349978 118.3410014
 136.9629992  91.2539978 119.5400014 137.7562528  91.3365463 119.1923243
 137.3839992  85.2009978 107.7640014 137.0919992  85.9689978 107.2730014
 136.7089992  84.5419978 107.6010014 137.2528497  85.2169745 107.6748260
 133.4769992  87.5639978 116.5790014 132.9749992  87.5359978 115.7640014
 133.4819992  86.6589978 116.8880014 133.4090416  87.4377368 116.5093766
 133.2269992  90.3449978 113.4630014 134.1729992  90.1999978 113.4440014
 133.1139992  91.1289978 114.0000014 133.3413578  90.4311697 113.5330317
 142.4029992  90.5849978 118.0210014 142.4909992  91.4109978 118.4960014
 141.5399992  90.2549978 118.2700014 142.2983357  90.6535468 118.1197653
 142.8179992  94.3569978 107.8270014 142.7419992  94.2359978 106.8810014
 142.8499992  95.3059978 107.9460014 142.8119156  94.4687530 107.7135048
 136.4709992  93.1459978 109.6080014 136.6229992  92.7979978 110.4870014
 135.6199992  92.7889978 109.3530014 136.3767899  93.0501738 109.6937340
 135.7259992  88.8879978 117.6220014 135.9419992  88.5259978 118.4810014
 134.8699992  88.5129978 117.4120014 135.6399354  88.7877906 117.7112160
 138.3439992  77.3579978 113.6170014 137.4829992  77.2709978 113.2100014
 138.3219992  78.2139978 114.0450014 138.2230411  77.4617884 113.6190857
 143.0069992  77.0799978 116.9920014 143.4269992  76.6649978 117.7450014
 142.0739992  76.9009978 117.1090014 142.9383736  76.9989910 117.1108968
 138.4349992  82.3229978 114.7120014 137.7939992  82.2829978 115.4210014
 138.4729992  83.2499978 114.4750014 138.3523670  82.4427795 114.7770550
 138.4319992  82.5439978 109.6240014 137.5399992  82.2039978 109.5660014
 138.8829992  82.1669978 108.8690014 138.3706815  82.4463762 109.5139203
 143.9679992  82.9599978 108.4410014 143.5589992  83.7749978 108.1500014
 144.6879992  82.8199978 107.8270014 144.0094013  83.0526571 108.3180875
 143.0699992  83.1359978 119.9290014 142.5069992  82.4309978 120.2500014
 143.8959992  83.0149978 120.3970014 143.1046674  83.0232165 120.0361751
 144.9729992  82.4059978 111.2550014 144.7769992  83.0119978 110.5400014
 145.1539992  81.5729978 110.8210014 144.9706584  82.3762513 111.0984212
 136.1849992  82.6439978 116.5790014 136.1469992  83.0439978 117.4480014
 135.6949992  81.8269978 116.6700014 136.1135621  82.5882510 116.7101377
 132.7939992  79.7599978 110.4300014 133.4239992  79.7309978 111.1490014
 133.2429992  79.3349978 109.7000014 132.9410692  79.6985316 110.4297771
 134.0679992  80.5059978 105.8540014 134.5419992  81.0969978 105.2690014
 133.3499992  81.0359978 106.2010014 134.0358640  80.6585511 105.8207969
 144.2369992  84.0439978 115.9270014 144.5599992  83.4129978 115.2840014
 143.7959992  83.5099978 116.5870014 144.2215789  83.8853522 115.9282232
 141.0139992  79.9719978 110.7110014 140.1029992  80.0289978 110.9990014
 141.5189992  79.9119978 111.5210014 140.9575387  79.9716870 110.8600646
 135.8419992  81.6009978 109.5370014 134.9529992  81.6999978 109.1970014
 136.1389992  80.7589978 109.1910014 135.7604177  81.5007687 109.4436940
 139.4949992  81.6009978 107.1940014 140.4269992  81.7299978 107.3720014
 139.2799992  82.2699978 106.5440014 139.5934472  81.7090806 107.1304891
 145.4189992  79.2069978 113.9750014 144.7419992  79.3379978 114.6390014
 144.9339992  79.0519978 113.1650014 145.2607265  79.2039659 113.9563397
 136.3049992  87.3519978 119.8600014 137.0369992  87.6069978 120.4210014
 135.5239992  87.5569978 120.3750014 136.2997684  87.4146468 120.0064782
 142.3339992  82.7589978 112.5980014 142.8979992  82.2129978 112.0510014
 142.1859992  82.2379978 113.3860014 142.3912575  82.6136552 112.6296987
 137.3359992  78.8959978 109.0160014 137.0189992  77.9929978 108.9810014
 138.1169992  78.8979978 108.4630014 137.3982307  78.7726951 108.9364314
 140.9599992  81.1479978 115.0120014 140.1249992  81.6019978 115.1220014
 141.4839992  81.4239978 115.7640014 140.9165070  81.2474666 115.1287152
 141.5049992  87.3609978 106.6960014 140.7599992  86.8529978 106.3740014
 141.3699992  87.4099978 107.6430014 141.3849047  87.2981596 106.7798845
 145.4019992  80.1749978 104.8960014 144.4639992  80.2859978 104.7440014
 145.6999992  81.0309978 105.2020014 145.3136402  80.3060621 104.9165571
 143.0239992  87.5449978 117.9330014 142.6779992  87.1629978 118.7400014
 142.8239992  88.4779978 118.0050014 142.9496523  87.6189095 118.0530735
 136.6289992  86.6559978 112.4660014 137.3739992  86.6529978 111.8650014
 136.7069992  85.8319978 112.9480014 136.7414158  86.5442916 112.4489153
 143.6299992  88.8189978 105.7220014 143.3349992  89.6459978 106.1030014
 142.9269992  88.1999978 105.9180014 143.4945471  88.8485227 105.8006698
 133.6369992  85.1159978 117.7810014 133.8599992  84.6979978 118.6130014
 133.0349992  84.5039978 117.3580014 133.5861260  84.9759933 117.8377320
 140.6539992  84.6329978 119.9940014 140.3579992  84.4679978 119.0990014
 141.5849992  84.4129978 119.9830014 140.7393982  84.5806578 119.8700045
 145.2739992  90.0069978 117.8840014 144.3739992  90.1899978 117.6160014
 145.3079992  90.2659978 118.8050014 145.1552909  90.0670815 117.9717852
 139.0039992  90.1739978 109.8700014 139.5319992  90.9469978 109.6700014
 138.1239992  90.3979978 109.5690014 138.9573176  90.3103161 109.8018409
 140.4319992  87.8369978 109.4470014 140.1909992  88.7619978 109.4880014
 139.6909992  87.3779978 109.8430014 140.2988390  87.9016403 109.5061404
 140.9459992  91.9859978 115.7620014 141.3089992  92.8399978 115.5280014
 141.4779992  91.6939978 116.5020014 141.0676090  92.0634058 115.8300219
 139.1149992  92.8579978 108.9920014 138.1649992  92.9639978 109.0430014
 139.4669992  93.6789978 109.3370014 139.0325480  92.9834438 109.0455999
 144.4899992  88.0849978 115.4620014 144.0649992  87.8569978 116.2890014
 145.0709992  87.3459978 115.2800014 144.5103930  87.9539843 115.5504732
 135.2709992  79.8699978 117.3390014 134.3789992  80.2079978 117.2720014
 135.1729992  79.0139978 117.7570014 135.1354965  79.8006499 117.3863044
 134.9229992  91.6739978 115.7740014 135.1399992  90.7419978 115.7430014
 135.1689992  91.9489978 116.6570014 134.9859809  91.5835686 115.8891690
 140.7839992  90.1259978 102.9830014 141.0229992  89.3769978 102.4360014
 140.5149992  89.7379978 103.8160014 140.7803233  89.9711853 103.0207809
 139.7209992  89.6959978 105.4400014 139.8679992  89.1759978 106.2300014
 139.7179992  90.6029978 105.7460014 139.7407300  89.7473964 105.5895895
 136.1739992  86.9479978 105.9500014 135.4879992  87.3009978 106.5170014
 136.6969992  87.7109978 105.7040014 136.1509033  87.0993746 105.9942661
 144.0059992  79.6109978 116.2290014 144.7049992  79.6849978 116.8790014
 143.6249992  78.7459978 116.3830014 144.0502097  79.5042389 116.3387997
 144.7899992  79.2629978 107.3260014 145.0099992  79.7339978 106.5230014
 145.3489992  79.6569978 107.9960014 144.8956730  79.3807432 107.3065906
 142.4589992  91.3929978 106.1890014 141.6419992  91.8899978 106.2410014
 142.9879992  91.8689978 105.5490014 142.4188508  91.5252543 106.1096035
 141.9899992  80.9909978 108.1610014 142.8019992  81.4949978 108.2070014
 141.7459992  80.8459978 109.0750014 142.0681467  81.0403749 108.2908575
 142.5259992  81.9769978 117.3460014 142.6449992  82.5509978 118.1030014
 143.1809992  81.2889978 117.4600014 142.6309146  81.9625574 117.4651313
 142.8739992  78.0719978 109.0990014 142.5269992  78.6889978 109.7440014
 143.5329992  78.5729978 108.6180014 142.9155949  78.2241099 109.1222271
 139.7969992  92.4369978 106.1710014 139.9579992  93.2369978 105.6700014
 139.5999992  92.7439978 107.0560014 139.7923919  92.5879129 106.2221006
 138.5319992  79.1349978 105.7860014 138.4479992  80.0229978 106.1330014
 139.4219992  78.8699978 106.0180014 138.6408163  79.2207179 105.8648596
 136.7899992  89.5619978 104.8470014 137.3819992  90.2619978 105.1230014
 137.2489992  89.1289978 104.1270014 136.9330791  89.5992908 104.7874607
 135.9139992  77.0079978 112.6360014 135.6849992  77.0669978 111.7080014
 135.4719992  76.2169978 112.9420014 135.8228801  76.9090540 112.5504729
 134.8449992  90.9489978 108.7960014 134.0119992  91.4209978 108.8240014
 135.3899992  91.4589978 108.1980014 134.8047590  91.0825897 108.7189194
 134.1329992  93.5609978 120.1260014 134.6729992  93.3449978 120.8860014
 133.6519992  92.7559978 119.9370014 134.1418613  93.4225400 120.2044782
 138.7299992  92.4809978 121.7470014 139.4979992  92.0219978 122.0880014
 138.7089992  92.2549978 120.8170014 138.8322135  92.3876668 121.6679491
 142.8219992  91.9889978 103.1220014 142.1779992  91.3579978 103.4430014
 143.5839992  91.4579978 102.8900014 142.8368058  91.8307902 103.1346038
 145.3069992  90.8609978 120.4760014 144.9559992  90.0039978 120.7190014
 146.0329992  91.0029978 121.0830014 145.3571590  90.7630178 120.5912907
 134.0399992  87.3719978 121.0810014 134.1839992  86.4699978 120.7940014
 133.2679992  87.6579978 120.5930014 133.9553303  87.2873243 120.9757908
 140.6949992  87.3409978 120.5130014 140.3669992  87.6119978 119.6560014
 140.8469992  86.3999978 120.4260014 140.6706030  87.2508973 120.3837945
 143.7339992  88.7619978 102.9490014 143.4649992  88.9429978 103.8500014
 143.5269992  87.8369978 102.8180014 143.6692000  88.6616774 103.0545693
 134.8729992  84.5719978 120.5010014 135.2809992  83.7149978 120.3800014
 134.6119992  84.5859978 121.4220014 134.8936016  84.4565119 120.6089192
 138.8199992  83.5809978 117.8750014 138.2009992  84.2549978 118.1550014
 139.1639992  83.9019978 117.0420014 138.7817605  83.7167198 117.8006707
 143.8389992  86.0519978 121.1520014 144.7929992  86.1359978 121.1250014
 143.6789992  85.3399978 121.7720014 143.9477182  85.9672842 121.2320733
 139.1589992  80.9359978 118.9570014 139.3089992  80.2069978 118.3550014
 139.1609992  81.7129978 118.3980014 139.1797967  80.9412708 118.7990541
 139.5719992  79.3049978 116.4500014 140.1069992  79.7569978 115.7980014
 138.7189992  79.1969978 116.0270014 139.5300374  79.3522665 116.3036710
 141.1529992  84.7449978 116.6890014 141.9039992  84.5889978 116.1160014
 140.8139992  85.5969978 116.4140014 141.2099587  84.8388138 116.5734078
 145.5689992  82.5599978 121.7180014 145.7609992  81.6289978 121.6060014
 146.4269992  82.9849978 121.7080014 145.7112269  82.4899928 121.7013192
 137.6379992  82.1339978 120.8690014 136.8699992  81.6009978 120.6590014
 138.3159992  81.8239978 120.2690014 137.6246973  82.0192375 120.7591796
 140.3769992  76.7619978 116.8810014 140.2789992  77.7079978 116.7760014
 139.6349992  76.3889978 116.4060014 140.2631913  76.8411813 116.8023539
 141.6409992  81.0829978 120.4450014 141.4059992  80.8639978 121.3470014
 140.8579992  80.8759978 119.9350014 141.5029219  81.0250066 120.4995852
 144.3569992  80.2109978 119.5210014 143.4089992  80.2429978 119.6530014
 144.6689992  79.5849978 120.1740014 144.2695190  80.1307262 119.6273563
 135.8179992  80.0539978 120.5730014 136.0299992  79.3479978 119.9630014
 135.7069992  79.6169978 121.4170014 135.8320269  79.8981921 120.6035873
 140.5989992  76.0559978 119.5530014 141.3109992  75.4159978 119.5390014
 140.4979992  76.3219978 118.6390014 140.6827261  76.0044190 119.4275537
 140.9529992  77.7379978 121.6060014 140.8209992  77.2629978 120.7860014
 140.3529992  78.4829978 121.5510014 140.8539070  77.7735789 121.4863251
 140.4989992  94.6209978 104.7830014 141.4319992  94.7789978 104.9260014
 140.2349992  95.2969978 104.1580014 140.5909308  94.7339104 104.7181396
 132.7159992  94.6509978 109.3430014 132.0689992  94.1889978 108.8100014
 133.0709992  93.9789978 109.9250014 132.6754506  94.4969503 109.3487341
 133.5859992  92.7309978 111.1470014 133.2519992  91.8509978 111.3190014
 133.8089992  93.0769978 112.0120014 133.5703721  92.6571938 111.2874168
 133.6659992  85.8069978 113.5990014 133.8509992  85.7249978 112.6630014
 134.5159992  85.6829978 114.0230014 133.8060916  85.7790393 113.5282896
 133.2639992  81.0769978 119.7400014 134.1829992  80.9549978 119.9760014
 132.8139992  80.3269978 120.1290014 133.3291148  80.9588751 119.8249408
 134.4849992  79.3899978 112.6310014 134.9299992  78.5979978 112.9330014
 134.9509992  80.1059978 113.0620014 134.6089059  79.3784474 112.7306079
 132.7889992  82.3889978 113.7000014 133.2809992  82.1679978 112.9090014
 133.1509992  83.2289978 113.9810014 132.9052923  82.4723468 113.6297407
 133.1029992  78.6469978 107.7540014 132.1779992  78.8549978 107.6250014
 133.5569992  79.1309978 107.0650014 133.0376374  78.7409949 107.6430957
 133.0659992  77.3849978 116.0990014 132.4009992  77.1389978 116.7420014
 132.6229992  78.0069978 115.5210014 132.9150937  77.4353614 116.1089379
 135.2579992  90.5599978 120.2430014 134.4369992  90.7349978 119.7830014
 135.0059992  90.4869978 121.1640014 135.1116173  90.5740794 120.3044972
 138.2119992  91.5339978 116.5020014 137.7879992  92.3439978 116.2190014
 139.1169992  91.6199978 116.2000014 138.2762433  91.6563331 116.4225377
 142.5239992  92.9329978 119.4610014 142.7079992  92.5999978 120.3390014
 143.3699992  93.2429978 119.1390014 142.6636484  92.9292979 119.5377617
 144.8689992  94.2189978 118.7050014 145.5459992  93.5859978 118.4650014
 145.1899992  94.6199978 119.5120014 145.0051323  94.1865691 118.7813158
 135.6139992  94.7909978 116.5490014 134.8939992  95.2309978 116.0980014
 135.2489992  94.5399978 117.3980014 135.4659796  94.8173824 116.6019329
 138.0809992  94.3909978 115.5790014 137.2169992  94.4629978 115.9830014
 138.0259992  94.9379978 114.7950014 137.9551942  94.4747849 115.5284000
 142.7919992  94.2789978 114.7540014 142.3349992  94.8079978 114.1000014
 142.9549992  94.8819978 115.4800014 142.7514476  94.4329140 114.7625499
 145.1199992  93.1569978 115.6990014 144.2149992  93.3219978 115.4340014
 145.5479992  94.0099978 115.6340014 145.0540700  93.2949529 115.6539520
 135.0289992  93.4139978 113.4590014 135.0109992  92.9879978 114.3170014
 135.8339992  93.0949978 113.0510014 135.1353221  93.3127233 113.5210225
 137.1699992  92.1239978 112.1140014 136.9509992  91.2069978 112.2840014
 137.9939992  92.2639978 112.5800014 137.2514702  92.0175511 112.2002527
 139.7069992  92.5939978 112.9630014 139.9199992  91.7059978 112.6760014
 139.7719992  92.5589978 113.9180014 139.7449075  92.4678307 113.0527373
 143.2159992  78.2579978 112.1070014 142.5419992  77.6279978 112.3630014
 143.7799992  77.7739978 111.5040014 143.2000384  78.1063708 112.0605020
 135.5429992  76.8919978 109.9290014 134.7659992  76.6569978 109.4220014
 136.0729992  76.0949978 109.9380014 135.5083451  76.7521268 109.8608627
 134.3789992  76.6899978 105.7330014 134.8179992  77.3009978 105.1410014
 133.7449992  77.2279978 106.2070014 134.3533859  76.8464064 105.7160305
 140.1219992  76.8179978 109.7430014 140.9959992  77.2069978 109.7130014
 139.9859992  76.6029978 110.6650014 140.2233207  76.8421923 109.8636509
 134.2799992  92.6379978 106.6310014 133.5949992  92.5999978 105.9630014
 134.2839992  93.5509978 106.9190014 134.1868174  92.7561998 106.5785310
 141.2659992  78.8989978 106.6330014 141.4439992  78.2519978 107.3150014
 141.2119992  79.7329978 107.1000014 141.2831025  78.9230504 106.7896433
 143.1439992  93.8469978 105.0280014 144.0099992  94.2139978 104.8500014
 142.8979992  93.4079978 104.2140014 143.2292097  93.8378525 104.8936019
 135.4999992  77.4059978 119.4470014 135.1339992  76.6399978 119.8900014
 136.4129992  77.4349978 119.7340014 135.5733225  77.3051906 119.5463459
 137.4729992  76.7559978 120.9830014 138.3719992  76.4819978 120.7980014
 137.0869992  76.0139978 121.4470014 137.5437237  76.6181508 121.0204710
  12.6289992 104.9039978 109.8880014  12.7179992 105.8479978 109.7560014
  11.9909992 104.6289978 109.2300014  12.5549062 104.9959812 109.7809641
  11.5619992 104.1589978 113.3070014  11.5239992 103.5129978 114.0120014
  11.2399992 103.6919978 112.5360014  11.5132679 104.0074276 113.2992921
   3.9299992 103.7729978 114.9000014   3.9719992 103.1479978 115.6230014
   4.6329992 104.3969978 115.0820014   4.0307345 103.7717873 115.0235273
  15.2679992 107.0979978 111.6090014  14.8269992 106.3779978 112.0590014
  15.2549992 107.8189978 112.2380014  15.2057960 107.0968329 111.7557567
   4.8539992 108.2229978 113.4350014   4.4839992 107.4209978 113.0650014
   5.7949992 108.0549978 113.4810014   4.9305984 108.0904638 113.3905603
   1.4639992 101.8829978 108.8280014   1.0159992 102.7289978 108.8090014
   0.9029992 101.3039978 108.3120014   1.3269603 101.9203674 108.7556720
   2.1739992 104.0449978 110.9540014   2.3879992 103.2749978 111.4810014
   2.9119992 104.1349978 110.3500014   2.3029652 103.9518012 110.9445212
  12.3799992 112.2019978 111.8210014  12.9989992 111.5259978 111.5470014
  12.1709992 111.9839978 112.7290014  12.4366232 112.0797938 111.9062517
   9.9509992 106.5909978 113.7130014  10.2549992 105.9049978 113.1190014
  10.6729992 106.7099978 114.3310014  10.0901152 106.5132189 113.7152123
  18.6139992  98.1929978 114.5740014  18.6639992  98.8029978 115.3100014
  19.0399992  98.6539978 113.8510014  18.6784108  98.3387709 114.5770112
  13.0919992 100.9849978 114.0410014  13.2349992 100.0389978 114.0610014
  12.9859992 101.1919978 113.1120014  13.0972509 100.8834813 113.9182231
   6.2469992  99.0869978 111.3130014   6.2899992  99.9469978 110.8950014
   5.7889992  98.5349978 110.6790014   6.1909815  99.1300621 111.1701197
  13.9689992  99.2179978 109.7140014  14.6159992  98.8889978 110.3390014
  14.4789992  99.7349978 109.0910014  14.1264317  99.2429227 109.7152167
   2.8669992 101.4839978 112.0750014   3.5209992 100.9339978 112.5070014
   2.8909992 101.2099978 111.1580014   2.9597199 101.3717167 112.0101668
   8.0239992 103.0339978 111.2900014   8.6399992 102.5069978 111.8000014
   7.4369992 102.3939978 110.8870014   8.0289239 102.8754117 111.3052952
  19.0059992  99.6709978 116.8100014  18.3169992 100.3289978 116.7140014
  19.0209992  99.4729978 117.7460014  18.9136741  99.7343243 116.9234630
   5.0569992  98.0049978 115.3870014   4.8379992  98.5349978 114.6210014
   4.3889992  98.2309978 116.0340014   4.9367001  98.1081154 115.3696064
  12.4259992 107.5049978 108.9310014  12.1309992 107.1819978 108.0800014
  12.1019992 108.4049978 108.9720014  12.3417983 107.5824026 108.8199771
   7.6259992 105.6799978 115.6750014   6.8859992 106.2789978 115.7780014
   8.3399992 106.2339978 115.3590014   7.6213288 105.8367356 115.6463805
  15.7329992  98.5089978 111.6940014  15.5179992  97.7429978 112.2270014
  16.3889992  98.9809978 112.2070014  15.7922673  98.4680728 111.8361990
   4.6509992  99.8969978 113.3390014   5.2649992 100.5299978 113.7130014
   5.1629992  99.4249978 112.6830014   4.8042277  99.9197352 113.3014279
   6.0339992 107.6449978 116.4620014   6.0279992 108.5239978 116.0840014
   5.1799992 107.5609978 116.8870014   5.9177925 107.7539535 116.4676887
   2.1549992 107.3159978 107.2440014   1.8829992 107.5449978 106.3550014
   2.1999992 108.1529978 107.7040014   2.1238709 107.4606058 107.1846107
  15.7799992 108.9369978 113.9560014  14.8379992 108.9959978 114.1180014
  16.0559992 109.8429978 113.8190014  15.6885865 109.0675288 113.9596192
  16.0799992  97.2239978 115.3740014  15.3439992  97.8339978 115.3360014
  16.7639992  97.6389978 114.8470014  16.0715506  97.3636400 115.2976051
   9.0839992  95.3099978 112.8400014   8.9659992  94.3619978 112.7850014
   8.2289992  95.6429978 113.1130014   8.9522679  95.2251926 112.8693720
  14.0319992 110.7179978 110.5820014  14.4569992 110.0109978 110.0970014
  14.3489992 111.5199978 110.1650014  14.1330266 110.7295190 110.4592479
  15.1919992 108.6189978 109.0900014  14.9339992 107.9289978 108.4790014
  15.2629992 108.1759978 109.9360014  15.1662837 108.4647106 109.1206912
  16.8779992 107.1859978 117.5680014  17.0169992 106.5939978 116.8280014
  17.0449992 108.0589978 117.2110014  16.9195562 107.2229896 117.4186283
  11.3499992 104.1479978 107.3400014  10.6389992 104.6829978 106.9880014
  12.0409992 104.2029978 106.6800014  11.3460751 104.2286777 107.2025858
  18.7189992 103.5259978 115.6340014  18.0669992 104.2199978 115.7230014
  19.1849992 103.7359978 114.8240014  18.6925937 103.6495019 115.5367533
  14.7559992 104.3569978 108.2920014  14.0239992 104.5859978 108.8650014
  15.2029992 103.6439978 108.7470014  14.7162753 104.2918972 108.4319715
  14.6529992 102.5319978 117.3600014  14.7329992 103.2949978 117.9310014
  14.0519992 102.8109978 116.6690014  14.5827245 102.6742630 117.3448424
   6.4009992 104.9879978 110.1740014   6.0709992 104.6169978 109.3560014
   6.9899992 104.3169978 110.5210014   6.4353970 104.8466063 110.1089404
   7.7679992 108.4159978 112.8560014   7.6729992 107.8369978 112.0990014
   8.4969992 108.0449978 113.3520014   7.8536161 108.2865891 112.8195209
   6.7679992 103.7559978 113.8080014   7.3329992 103.8779978 113.0450014
   7.0869992 104.3939978 114.4470014   6.8883977 103.8588851 113.7899424
  13.0769992 109.2599978 114.5420014  12.8369992 109.9219978 115.1900014
  12.8789992 108.4249978 114.9670014  13.0173826 109.2378115 114.6881566
   7.6479992 108.1559978 118.5250014   7.3369992 108.9379978 118.9800014
   6.9979992 108.0029978 117.8390014   7.5175538 108.2424087 118.4945898
   4.5679992 104.3539978 117.7540014   4.6379992 105.0049978 118.4520014
   3.6769992 104.4569978 117.4190014   4.4571802 104.4569757 117.8042249
  11.3529992 110.2559978 109.4120014  11.8269992 110.5519978 110.1900014
  10.7899992 110.9949978 109.1790014  11.3417361 110.3962721 109.4868611
   5.8869992 110.2269978 119.2880014   5.8949992 110.0909978 118.3410014
   4.9709992 110.1099978 119.5400014   5.7642528 110.1925463 119.1923243
   5.3919992 104.0569978 107.7640014   5.0999992 104.8249978 107.2730014
   4.7169992 103.3979978 107.6010014   5.2608497 104.0729745 107.6748260
  18.5149992 109.6359978 104.1660014  18.5879992 110.5749978 104.3370014
  19.4199992 109.3309978 104.1100014  18.6474158 109.7233061 104.1818392
   1.4849992 106.4199978 116.5790014   0.9829992 106.3919978 115.7640014
   1.4899992 105.5149978 116.8880014   1.4170416 106.2937368 116.5093766
   1.2349992 109.2009978 113.4630014   2.1809992 109.0559978 113.4440014
   1.1219992 109.9849978 114.0000014   1.3493578 109.2871697 113.5330317
  19.4329992 109.8669978 119.1450014  19.3829992 108.9109978 119.1080014
  18.6059992 110.1339978 119.5460014  19.3143987 109.7725174 119.1941446
  10.4109992 109.4409978 118.0210014  10.4989992 110.2669978 118.4960014
   9.5479992 109.1109978 118.2700014  10.3063357 109.5095468 118.1197653
  10.8259992 113.2129978 107.8270014  10.7499992 113.0919978 106.8810014
  10.8579992 114.1619978 107.9460014  10.8199156 113.3247530 107.7135048
   4.4789992 112.0019978 109.6080014   4.6309992 111.6539978 110.4870014
   3.6279992 111.6449978 109.3530014   4.3847899 111.9061738 109.6937340
  13.5959992 112.2929978 107.5790014  12.6609992 112.3929978 107.7570014
  13.8759992 111.5829978 108.1570014  13.5058173 112.2107239 107.6814998
  16.5849992 101.3599978 119.6250014  16.1769992 101.8399978 118.9050014
  16.6249992 100.4539978 119.3170014  16.5345476 101.3033160 119.4848247
   3.7339992 107.7439978 117.6220014   3.9499992 107.3819978 118.4810014
   2.8779992 107.3689978 117.4120014   3.6479354 107.6437906 117.7112160
   6.3519992  96.2139978 113.6170014   5.4909992  96.1269978 113.2100014
   6.3299992  97.0699978 114.0450014   6.2310411  96.3177884 113.6190857
  11.0149992  95.9359978 116.9920014  11.4349992  95.5209978 117.7450014
  10.0819992  95.7569978 117.1090014  10.9463736  95.8549910 117.1108968
  14.3419992  99.6909978 117.8450014  13.8279992  99.5659978 118.6430014
  14.1859992 100.6039978 117.6010014  14.2506967  99.7972123 117.9210937
   6.4429992 101.1789978 114.7120014   5.8019992 101.1389978 115.4210014
   6.4809992 102.1059978 114.4750014   6.3603670 101.2987795 114.7770550
   6.4399992 101.3999978 109.6240014   5.5479992 101.0599978 109.5660014
   6.8909992 101.0229978 108.8690014   6.3786815 101.3023762 109.5139203
  11.9759992 101.8159978 108.4410014  11.5669992 102.6309978 108.1500014
  12.6959992 101.6759978 107.8270014  12.0174013 101.9086571 108.3180875
  11.0779992 101.9919978 119.9290014  10.5149992 101.2869978 120.2500014
  11.9039992 101.8709978 120.3970014  11.1126674 101.8792165 120.0361751
  12.9809992 101.2619978 111.2550014  12.7849992 101.8679978 110.5400014
  13.1619992 100.4289978 110.8210014  12.9786584 101.2322513 111.0984212
   4.1929992 101.4999978 116.5790014   4.1549992 101.8999978 117.4480014
   3.7029992 100.6829978 116.6700014   4.1215621 101.4442510 116.7101377
   0.8019992  98.6159978 110.4300014   1.4319992  98.5869978 111.1490014
   1.2509992  98.1909978 109.7000014   0.9490692  98.5545316 110.4297771
   2.0759992  99.3619978 105.8540014   2.5499992  99.9529978 105.2690014
   1.3579992  99.8919978 106.2010014   2.0438640  99.5145511 105.8207969
  12.2449992 102.8999978 115.9270014  12.5679992 102.2689978 115.2840014
  11.8039992 102.3659978 116.5870014  12.2295789 102.7413522 115.9282232
   9.0219992  98.8279978 110.7110014   8.1109992  98.8849978 110.9990014
   9.5269992  98.7679978 111.5210014   8.9655387  98.8276870 110.8600646
   3.8499992 100.4569978 109.5370014   2.9609992 100.5559978 109.1970014
   4.1469992  99.6149978 109.1910014   3.7684177 100.3567687 109.4436940
   7.5029992 100.4569978 107.1940014   8.4349992 100.5859978 107.3720014
   7.2879992 101.1259978 106.5440014   7.6014472 100.5650806 107.1304891
  13.4269992  98.0629978 113.9750014  12.7499992  98.1939978 114.6390014
  12.9419992  97.9079978 113.1650014  13.2687265  98.0599659 113.9563397
   6.1769992 101.6509978 104.7610014   5.6349992 101.2719978 104.0690014
   7.0109992 101.8459978 104.3320014   6.2155159 101.6255076 104.6084419
  16.7149992 113.7339978 120.2520014  16.9139992 114.1579978 119.4170014
  17.3699992 114.0779978 120.8590014  16.8308501 113.8386091 120.2197097
   4.3129992 106.2079978 119.8600014   5.0449992 106.4629978 120.4210014
   3.5319992 106.4129978 120.3750014   4.3077684 106.2706468 120.0064782
  10.3419992 101.6149978 112.5980014  10.9059992 101.0689978 112.0510014
  10.1939992 101.0939978 113.3860014  10.3992575 101.4696552 112.6296987
   5.3439992  97.7519978 109.0160014   5.0269992  96.8489978 108.9810014
   6.1249992  97.7539978 108.4630014   5.4062307  97.6286951 108.9364314
   8.9679992 100.0039978 115.0120014   8.1329992 100.4579978 115.1220014
   9.4919992 100.2799978 115.7640014   8.9245070 100.1034666 115.1287152
   9.5129992 106.2169978 106.6960014   8.7679992 105.7089978 106.3740014
   9.3779992 106.2659978 107.6430014   9.3929047 106.1541596 106.7798845
  16.6629992 105.3499978 115.4830014  17.3039992 105.8059978 114.9390014
  15.8319992 105.4629978 115.0210014  16.6385171 105.4277502 115.3460237
  13.4099992  99.0309978 104.8960014  12.4719992  99.1419978 104.7440014
  13.7079992  99.8869978 105.2020014  13.3216402  99.1620621 104.9165571
  11.0319992 106.4009978 117.9330014  10.6859992 106.0189978 118.7400014
  10.8319992 107.3339978 118.0050014  10.9576523 106.4749095 118.0530735
  14.1289992 100.8979978 106.5560014  15.0209992 100.7599978 106.8750014
  14.1849992 101.6889978 106.0200014  14.2587107 100.9860526 106.5272091
   4.6369992 105.5119978 112.4660014   5.3819992 105.5089978 111.8650014
   4.7149992 104.6879978 112.9480014   4.7494159 105.4002916 112.4489153
  11.6379992 107.6749978 105.7220014  11.3429992 108.5019978 106.1030014
  10.9349992 107.0559978 105.9180014  11.5025471 107.7045227 105.8006698
   1.6449992 103.9719978 117.7810014   1.8679992 103.5539978 118.6130014
   1.0429992 103.3599978 117.3580014   1.5941260 103.8319933 117.8377320
   8.6619992 103.4889978 119.9940014   8.3659992 103.3239978 119.0990014
   9.5929992 103.2689978 119.9830014   8.7473982 103.4366578 119.8700045
  13.2819992 108.8629978 117.8840014  12.3819992 109.0459978 117.6160014
  13.3159992 109.1219978 118.8050014  13.1632909 108.9230815 117.9717852
  19.0139992 101.1069978 106.2510014  18.4589992 100.7109978 105.5790014
  19.1139992 102.0179978 105.9730014  18.9515888 101.1758990 106.1215206
  18.9769992 106.9079978 119.0880014  18.1259992 107.1459978 118.7210014
  19.5669992 106.8909978 118.3350014  18.9402408 106.9382966 118.9358879
  17.3089992 109.8929978 106.7160014  16.9359992 109.0679978 107.0250014
  17.5859992 109.7099978 105.8190014  17.2953871 109.7552441 106.6369677
  14.4689992 104.7009978 113.7370014  13.5409992 104.4699978 113.7100014
  14.9199992 103.9239978 113.4070014  14.4028165 104.5642774 113.6886790
   7.0119992 109.0299978 109.8700014   7.5399992 109.8029978 109.6700014
   6.1319992 109.2539978 109.5690014   6.9653176 109.1663161 109.8018409
   2.7669992 103.8919978 104.4580014   3.3829992 104.5189978 104.8370014
   1.9049992 104.2079978 104.7290014   2.7348195 104.0205798 104.5465386
   8.4399992 106.6929978 109.4470014   8.1989992 107.6179978 109.4880014
   7.6989992 106.2339978 109.8430014   8.3068390 106.7576403 109.5061404
   8.9539992 110.8419978 115.7620014   9.3169992 111.6959978 115.5280014
   9.4859992 110.5499978 116.5020014   9.0756090 110.9194058 115.8300219
   7.1229992 111.7139978 108.9920014   6.1729992 111.8199978 109.0430014
   7.4749992 112.5349978 109.3370014   7.0405480 111.8394438 109.0455999
  12.4979992 106.9409978 115.4620014  12.0729992 106.7129978 116.2890014
  13.0789992 106.2019978 115.2800014  12.5183930 106.8099843 115.5504731
  15.1569992 111.4929978 117.9320014  14.5549992 110.9369978 117.4360014
  15.4379992 112.1599978 117.3060014  15.1126829 111.5071613 117.7795443
  19.2049992 112.3489978 104.7370014  19.9489992 112.9349978 104.5970014
  18.5109992 112.9179978 105.0710014  19.2130201 112.5060603 104.7629772
   3.2789992  98.7259978 117.3390014   2.3869992  99.0639978 117.2720014
   3.1809992  97.8699978 117.7570014   3.1434965  98.6566499 117.3863044
  15.5669992 106.5419978 106.7630014  15.2899992 105.8139978 107.3190014
  16.4949992 106.6609978 106.9680014  15.6544499 106.4584213 106.8668044
   2.9309992 110.5299978 115.7740014   3.1479992 109.5979978 115.7430014
   3.1769992 110.8049978 116.6570014   2.9939809 110.4395686 115.8891690
   7.7289992 108.5519978 105.4400014   7.8759992 108.0319978 106.2300014
   7.7259992 109.4589978 105.7460014   7.7487300 108.6033964 105.5895895
  12.0139992  98.4669978 116.2290014  12.7129992  98.5409978 116.8790014
  11.6329992  97.6019978 116.3830014  12.0582097  98.3602389 116.3387997
  12.7979992  98.1189978 107.3260014  13.0179992  98.5899978 106.5230014
  13.3569992  98.5129978 107.9960014  12.9036730  98.2367432 107.3065906
  10.4669992 110.2489978 106.1890014   9.6499992 110.7459978 106.2410014
  10.9959992 110.7249978 105.5490014  10.4268508 110.3812543 106.1096035
   9.9979992  99.8469978 108.1610014  10.8099992 100.3509978 108.2070014
   9.7539992  99.7019978 109.0750014  10.0761467  99.8963749 108.2908575
  10.5339992 100.8329978 117.3460014  10.6529992 101.4069978 118.1030014
  11.1889992 100.1449978 117.4600014  10.6389146 100.8185574 117.4651314
  10.8819992  96.9279978 109.0990014  10.5349992  97.5449978 109.7440014
  11.5409992  97.4289978 108.6180014  10.9235949  97.0801099 109.1222271
   7.8049992 111.2929978 106.1710014   7.9659992 112.0929978 105.6700014
   7.6079992 111.5999978 107.0560014   7.8003919 111.4439129 106.2221006
   6.5399992  97.9909978 105.7860014   6.4559992  98.8789978 106.1330014
   7.4299992  97.7259978 106.0180014   6.6488163  98.0767179 105.8648596
  16.7379992  98.7399978 118.1810014  15.8219992  99.0019978 118.0930014
  17.0739992  98.7369978 117.2840014  16.6579789  98.7754626 118.0477847
  15.3409992 102.4899978 112.2760014  14.5429992 102.0749978 111.9480014
  15.7859992 101.7999978 112.7670014  15.2919684 102.3398628 112.2975227
   3.1139992 101.0829978 103.9630014   3.0689992 102.0219978 104.1410014
   2.2259992 100.8469978 103.6930014   2.9878555 101.1796874 103.9508939
  16.4269992 111.7459978 113.8990014  16.2709992 112.4249978 113.2420014
  17.3599992 111.8179978 114.1020014  16.5317387 111.8486390 113.8365342
   3.9219992  95.8639978 112.6360014   3.6929992  95.9229978 111.7080014
   3.4799992  95.0729978 112.9420014   3.8308801  95.7650540 112.5504729
   2.8529992 109.8049978 108.7960014   2.0199992 110.2769978 108.8240014
   3.3979992 110.3149978 108.1980014   2.8127590 109.9385897 108.7189194
   2.1409992 112.4169978 120.1260014   2.6809992 112.2009978 120.8860014
   1.6599992 111.6119978 119.9370014   2.1498613 112.2785400 120.2044782
   6.7379992 111.3369978 121.7470014   7.5059992 110.8779978 122.0880014
   6.7169992 111.1109978 120.8170014   6.8402135 111.2436668 121.6679491
  13.3149992 109.7169978 120.4760014  12.9639992 108.8599978 120.7190014
  14.0409992 109.8589978 121.0830014  13.3651590 109.6190178 120.5912907
   2.0479992 106.2279978 121.0810014   2.1919992 105.3259978 120.7940014
   1.2759992 106.5139978 120.5930014   1.9633303 106.1433243 120.9757908
   8.7029992 106.1969978 120.5130014   8.3749992 106.4679978 119.6560014
   8.8549992 105.2559978 120.4260014   8.6786030 106.1068973 120.3837945
  11.7419992 107.6179978 102.9490014  11.4729992 107.7989978 103.8500014
  11.5349992 106.6929978 102.8180014  11.6772000 107.5176774 103.0545693
  14.4379992 106.1129978 117.8970014  15.1829992 106.7019978 117.7770014
  13.6809992 106.6949978 117.9600014  14.4375205 106.2721997 117.8891119
   2.8809992 103.4279978 120.5010014   3.2889992 102.5709978 120.3800014
   2.6199992 103.4419978 121.4220014   2.9016016 103.3125119 120.6089192
   7.5389992 104.5439978 105.5190014   7.0789992 104.0599978 106.2050014
   7.7939992 103.8749978 104.8830014   7.5105038 104.3873689 105.5269447
   6.8279992 102.4369978 117.8750014   6.2089992 103.1109978 118.1550014
   7.1719992 102.7579978 117.0420014   6.7897605 102.5727198 117.8006707
  11.8469992 104.9079978 121.1520014  12.8009992 104.9919978 121.1250014
  11.6869992 104.1959978 121.7720014  11.9557182 104.8232842 121.2320733
   7.1669992  99.7919978 118.9570014   7.3169992  99.0629978 118.3550014
   7.1689992 100.5689978 118.3980014   7.1877967  99.7972708 118.7990541
   7.5799992  98.1609978 116.4500014   8.1149992  98.6129978 115.7980014
   6.7269992  98.0529978 116.0270014   7.5380374  98.2082665 116.3036710
   9.1609992 103.6009978 116.6890014   9.9119992 103.4449978 116.1160014
   8.8219992 104.4529978 116.4140014   9.2179587 103.6948138 116.5734078
  13.5769992 101.4159978 121.7180014  13.7689992 100.4849978 121.6060014
  14.4349992 101.8409978 121.7080014  13.7192269 101.3459928 121.7013192
  14.8939992 104.2049978 119.7950014  14.6119992 104.9139978 119.2180014
  15.8359992 104.1319978 119.6440014  14.9827656 104.2923128 119.6954809
   5.6459992 100.9899978 120.8690014   4.8779992 100.4569978 120.6590014
   6.3239992 100.6799978 120.2690014   5.6326973 100.8752375 120.7591796
   8.3849992  95.6179978 116.8810014   8.2869992  96.5639978 116.7760014
   7.6429992  95.2449978 116.4060014   8.2711913  95.6971813 116.8023539
   9.6489992  99.9389978 120.4450014   9.4139992  99.7199978 121.3470014
   8.8659992  99.7319978 119.9350014   9.5109219  99.8810066 120.4995852
  12.3649992  99.0669978 119.5210014  11.4169992  99.0989978 119.6530014
  12.6769992  98.4409978 120.1740014  12.2775190  98.9867262 119.6273564
  13.9989992  97.7009978 121.5260014  13.9019992  96.7489978 121.5200014
  13.6769992  97.9689978 122.3860014  13.9421761  97.6069744 121.6414936
   3.8259992  98.9099978 120.5730014   4.0379992  98.2039978 119.9630014
   3.7149992  98.4729978 121.4170014   3.8400269  98.7541921 120.6035873
   8.6069992  94.9119978 119.5530014   9.3189992  94.2719978 119.5390014
   8.5059992  95.1779978 118.6390014   8.6907261  94.8604190 119.4275537
   8.9609992  96.5939978 121.6060014   8.8289992  96.1189978 120.7860014
   8.3609992  97.3389978 121.5510014   8.8619070  96.6295789 121.4863251
   0.7239992 113.5069978 109.3430014   0.0769992 113.0449978 108.8100014
   1.0789992 112.8349978 109.9250014   0.6834506 113.3529503 109.3487341
   1.5939992 111.5869978 111.1470014   1.2599992 110.7069978 111.3190014
   1.8169992 111.9329978 112.0120014   1.5783721 111.5131938 111.2874168
  19.1429992 112.3969978 114.1280014  19.1209992 112.5819978 115.0670014
  19.8329992 112.9649978 113.7870014  19.2333439 112.4991887 114.2104791
  18.7059992 111.9639978 117.0500014  18.2189992 111.2289978 116.6790014
  19.2549992 111.5699978 117.7280014  18.7135247 111.8101057 117.0908461
  17.1569992 107.7539978 121.6880014  16.2909992 107.6489978 122.0820014
  17.5329992 108.5119978 122.1340014  17.0893401 107.8421708 121.8022620
  18.4579992 106.0099978 107.2020014  19.3079992 106.4309978 107.3290014
  18.4629992 105.2699978 107.8090014  18.5751143 105.9676094 107.3014750
  18.8519992 104.0639978 109.0260014  18.1259992 103.5839978 109.4230014
  19.4339992 104.2689978 109.7580014  18.8311635 104.0259166 109.1793748
  18.6109992 106.8489978 113.9730014  19.4449992 106.4709978 113.6930014
  18.7229992 107.7919978 113.8540014  18.7402522 106.9247742 113.9186020
  17.0979992 109.7269978 116.2800014  16.4499992 110.0519978 116.9060014
  16.5799992 109.2859978 115.6060014  16.9394168 109.7118523 116.2745307
  19.1209992 103.9649978 105.4170014  18.5989992 104.3209978 104.6980014
  19.0879992 104.6399978 106.0950014  19.0450699 104.1049848 105.4102129
  17.4699992 101.2039978 103.9680014  17.5659992 101.8709978 103.2880014
  17.3299992 100.3889978 103.4860014  17.4642063 101.1850667 103.8098377
  16.6389992 102.5849978 109.5890014  16.4889992 101.6399978 109.5680014
  16.2849992 102.8659978 110.4320014  16.5705527 102.4935605 109.7001859
   1.6739992 104.6629978 113.5990014   1.8589992 104.5809978 112.6630014
   2.5239992 104.5389978 114.0230014   1.8140916 104.6350393 113.5282896
  17.4949992 104.5549978 119.2270014  18.0779992 103.8199978 119.4190014
  18.0589992 105.3269978 119.2740014  17.6509781 104.5588145 119.2596164
  18.9919992 102.4579978 119.9120014  18.1289992 102.0789978 119.7460014
  19.5959992 101.7189978 119.8380014  18.9555944 102.3062978 119.8792984
  16.3499992 100.1669978 108.0510014  16.6289992  99.2599978 108.1750014
  17.1089992 100.6009978 107.6620014  16.4908619 100.1014502 108.0153795
  16.9609992 100.7489978 113.4870014  17.8939992 100.9609978 113.4530014
  16.7259992 100.8499978 114.4090014  17.0568308 100.7916503 113.6070214
  16.9909992 101.4859978 116.2630014  16.1479992 101.7539978 116.6290014
  17.4329992 102.3079978 116.0520014  16.9354138 101.6338273 116.2845518
   1.2719992  99.9329978 119.7400014   2.1909992  99.8109978 119.9760014
   0.8219992  99.1829978 120.1290014   1.3371148  99.8148751 119.8249408
  19.2739992  95.4659978 121.6160014  19.6229992  94.8119978 121.0110014
  19.4209992  96.3029978 121.1770014  19.3417355  95.4896067 121.4736564
  16.9629992  97.4299978 108.0990014  17.1449992  96.9809978 108.9250014
  16.3629992  96.8459978 107.6360014  16.9067529  97.2896131 108.1493619
   2.4929992  98.2459978 112.6310014   2.9379992  97.4539978 112.9330014
   2.9589992  98.9619978 113.0620014   2.6169059  98.2344474 112.7306079
   0.7969992 101.2449978 113.7000014   1.2889992 101.0239978 112.9090014
   1.1589992 102.0849978 113.9810014   0.9132923 101.3283468 113.6297407
  18.7929992  97.5749978 119.9660014  17.8759992  97.8459978 119.9300014
  18.9159992  97.0399978 119.1820014  18.6840828  97.5397700 119.8550785
   1.1109992  97.5029978 107.7540014   0.1859992  97.7109978 107.6250014
   1.5649992  97.9869978 107.0650014   1.0456374  97.5969949 107.6430957
  15.8809992 112.4869978 109.7000014  16.5339992 112.1389978 109.0920014
  16.3919992 112.9749978 110.3460014  16.0392777 112.5053815 109.7042047
   1.0739992  96.2409978 116.0990014   0.4089992  95.9949978 116.7420014
   0.6309992  96.8629978 115.5210014   0.9230937  96.2913614 116.1089379
   3.2659992 109.4159978 120.2430014   2.4449992 109.5909978 119.7830014
   3.0139992 109.3429978 121.1640014   3.1196173 109.4300794 120.3044972
   6.2199992 110.3899978 116.5020014   5.7959992 111.1999978 116.2190014
   7.1249992 110.4759978 116.2000014   6.2842433 110.5123331 116.4225377
  10.5319992 111.7889978 119.4610014  10.7159992 111.4559978 120.3390014
  11.3779992 112.0989978 119.1390014  10.6716484 111.7852979 119.5377617
  12.8769992 113.0749978 118.7050014  13.5539992 112.4419978 118.4650014
  13.1979992 113.4759978 119.5120014  13.0131323 113.0425691 118.7813158
  17.7939992  95.6649978 117.7850014  16.9809992  95.9899978 117.3970014
  18.0269992  94.9039978 117.2520014  17.7142566  95.6066559 117.6599213
   3.6219992 113.6469978 116.5490014   2.9019992 114.0869978 116.0980014
   3.2569992 113.3959978 117.3980014   3.4739796 113.6733824 116.6019329
   6.0889992 113.2469978 115.5790014   5.2249992 113.3189978 115.9830014
   6.0339992 113.7939978 114.7950014   5.9631942 113.3307849 115.5284000
  10.7999992 113.1349978 114.7540014  10.3429992 113.6639978 114.1000014
  10.9629992 113.7379978 115.4800014  10.7594476 113.2889140 114.7625499
  13.1279992 112.0129978 115.6990014  12.2229992 112.1779978 115.4340014
  13.5559992 112.8659978 115.6340014  13.0620700 112.1509529 115.6539520
  15.7319992 113.5829978 115.9940014  15.5499992 114.4989978 115.7840014
  15.9089992 113.1719978 115.1480014  15.7309907 113.6529741 115.8507883
   3.0369992 112.2699978 113.4590014   3.0189992 111.8439978 114.3170014
   3.8419992 111.9509978 113.0510014   3.1433221 112.1687233 113.5210225
   5.1779992 110.9799978 112.1140014   4.9589992 110.0629978 112.2840014
   6.0019992 111.1199978 112.5800014   5.2594702 110.8735511 112.2002527
   7.7149992 111.4499978 112.9630014   7.9279992 110.5619978 112.6760014
   7.7799992 111.4149978 113.9180014   7.7529075 111.3238307 113.0527373
  11.2239992  97.1139978 112.1070014  10.5499992  96.4839978 112.3630014
  11.7879992  96.6299978 111.5040014  11.2080384  96.9623708 112.0605020
  16.3669992  95.2209978 112.2200014  16.9699992  95.7689978 111.7180014
  15.4969992  95.5399978 111.9800014  16.3319190  95.3391041 112.1188679
  18.0939992  96.3599978 110.5530014  18.7049992  95.8459978 110.0270014
  18.4759992  97.2369978 110.5770014  18.2294475  96.4081323 110.4841208
   3.5509992  95.7479978 109.9290014   2.7739992  95.5129978 109.4220014
   4.0809992  94.9509978 109.9380014   3.5163451  95.6081268 109.8608627
   8.1299992  95.6739978 109.7430014   9.0039992  96.0629978 109.7130014
   7.9939992  95.4589978 110.6650014   8.2313207  95.6981923 109.8636509
  13.6869992  95.7039978 111.3920014  13.7629992  95.7999978 110.4430014
  13.4119992  94.7969978 111.5210014  13.6602042  95.5944241 111.2793811
  15.0399992  95.7299978 107.0840014  14.3369992  96.3449978 106.8750014
  14.5949992  94.8929978 107.2160014  14.8836292  95.7010085 107.0732439
   2.2879992 111.4939978 106.6310014   1.6029992 111.4559978 105.9630014
   2.2919992 112.4069978 106.9190014   2.1948174 111.6121998 106.5785310
   4.2479992  97.4619978 104.1750014   4.7389992  96.8319978 103.6480014
   4.8709992  97.7579978 104.8390014   4.3995062  97.4156770 104.1925438
   9.2739992  97.7549978 106.6330014   9.4519992  97.1079978 107.3150014
   9.2199992  98.5889978 107.1000014   9.2911025  97.7790504 106.7896433
  17.8609992 112.2659978 107.7070014  17.6669992 111.5179978 107.1420014
  17.8219992 113.0239978 107.1240014  17.8291645 112.2660786 107.5508148
   3.5079992  96.2619978 119.4470014   3.1419992  95.4959978 119.8900014
   4.4209992  96.2909978 119.7340014   3.5813225  96.1611906 119.5463459
   5.4809992  95.6119978 120.9830014   6.3799992  95.3379978 120.7980014
   5.0949992  94.8699978 121.4470014   5.5517237  95.4741508 121.0204710
  13.9029992  94.9449978 121.1650014  13.9789992  94.5189978 122.0190014
  14.7959992  94.9579978 120.8220014  14.0342267  94.8883952 121.2355932
  17.0789992 111.0179978 119.8570014  16.2969992 110.8309978 119.3380014
  17.0069992 111.9469978 120.0750014  16.9620863 111.1180221 119.8153574
  31.4849992 104.9039978 109.8880014  31.5739992 105.8479978 109.7560014
  30.8469992 104.6289978 109.2300014  31.4109062 104.9959812 109.7809641
  30.4179992 104.1589978 113.3070014  30.3799992 103.5129978 114.0120014
  30.0959992 103.6919978 112.5360014  30.3692679 104.0074276 113.2992921
  22.7859992 103.7729978 114.9000014  22.8279992 103.1479978 115.6230014
  23.4889992 104.3969978 115.0820014  22.8867345 103.7717873 115.0235273
  34.1239992 107.0979978 111.6090014  33.6829992 106.3779978 112.0590014
  34.1109992 107.8189978 112.2380014  34.0617960 107.0968329 111.7557567
  23.7099992 108.2229978 113.4350014  23.3399992 107.4209978 113.0650014
  24.6509992 108.0549978 113.4810014  23.7865984 108.0904638 113.3905603
  20.3199992 101.8829978 108.8280014  19.8719992 102.7289978 108.8090014
  19.7589992 101.3039978 108.3120014  20.1829603 101.9203674 108.7556720
  21.0299992 104.0449978 110.9540014  21.2439992 103.2749978 111.4810014
  21.7679992 104.1349978 110.3500014  21.1589652 103.9518012 110.9445212
  31.2359992 112.2019978 111.8210014  31.8549992 111.5259978 111.5470014
  31.0269992 111.9839978 112.7290014  31.2926232 112.0797938 111.9062517
  28.8069992 106.5909978 113.7130014  29.1109992 105.9049978 113.1190014
  29.5289992 106.7099978 114.3310014  28.9461152 106.5132189 113.7152123
  37.4699992  98.1929978 114.5740014  37.5199992  98.8029978 115.3100014
  37.8959992  98.6539978 113.8510014  37.5344108  98.3387709 114.5770112
  31.9479992 100.9849978 114.0410014  32.0909992 100.0389978 114.0610014
  31.8419992 101.1919978 113.1120014  31.9532509 100.8834813 113.9182231
  25.1029992  99.0869978 111.3130014  25.1459992  99.9469978 110.8950014
  24.6449992  98.5349978 110.6790014  25.0469815  99.1300621 111.1701197
  32.8249992  99.2179978 109.7140014  33.4719992  98.8889978 110.3390014
  33.3349992  99.7349978 109.0910014  32.9824317  99.2429227 109.7152167
  21.7229992 101.4839978 112.0750014  22.3769992 100.9339978 112.5070014
  21.7469992 101.2099978 111.1580014  21.8157199 101.3717167 112.0101668
  26.8799992 103.0339978 111.2900014  27.4959992 102.5069978 111.8000014
  26.2929992 102.3939978 110.8870014  26.8849239 102.8754117 111.3052952
  37.8619992  99.6709978 116.8100014  37.1729992 100.3289978 116.7140014
  37.8769992  99.4729978 117.7460014  37.7696740  99.7343242 116.9234630
  23.9129992  98.0049978 115.3870014  23.6939992  98.5349978 114.6210014
  23.2449992  98.2309978 116.0340014  23.7927001  98.1081154 115.3696064
  31.2819992 107.5049978 108.9310014  30.9869992 107.1819978 108.0800014
  30.9579992 108.4049978 108.9720014  31.1977983 107.5824026 108.8199771
  26.4819992 105.6799978 115.6750014  25.7419992 106.2789978 115.7780014
  27.1959992 106.2339978 115.3590014  26.4773288 105.8367356 115.6463805
  34.5889992  98.5089978 111.6940014  34.3739992  97.7429978 112.2270014
  35.2449992  98.9809978 112.2070014  34.6482673  98.4680728 111.8361990
  23.5069992  99.8969978 113.3390014  24.1209992 100.5299978 113.7130014
  24.0189992  99.4249978 112.6830014  23.6602277  99.9197352 113.3014279
  24.8899992 107.6449978 116.4620014  24.8839992 108.5239978 116.0840014
  24.0359992 107.5609978 116.8870014  24.7737925 107.7539535 116.4676887
  21.0109992 107.3159978 107.2440014  20.7389992 107.5449978 106.3550014
  21.0559992 108.1529978 107.7040014  20.9798709 107.4606058 107.1846107
  34.6359992 108.9369978 113.9560014  33.6939992 108.9959978 114.1180014
  34.9119992 109.8429978 113.8190014  34.5445865 109.0675288 113.9596192
  34.9359992  97.2239978 115.3740014  34.1999992  97.8339978 115.3360014
  35.6199992  97.6389978 114.8470014  34.9275506  97.3636400 115.2976051
  27.9399992  95.3099978 112.8400014  27.8219992  94.3619978 112.7850014
  27.0849992  95.6429978 113.1130014  27.8082679  95.2251926 112.8693720
  32.8879992 110.7179978 110.5820014  33.3129992 110.0109978 110.0970014
  33.2049992 111.5199978 110.1650014  32.9890266 110.7295190 110.4592479
  34.0479992 108.6189978 109.0900014  33.7899992 107.9289978 108.4790014
  34.1189992 108.1759978 109.9360014  34.0222837 108.4647106 109.1206912
  35.7339992 107.1859978 117.5680014  35.8729992 106.5939978 116.8280014
  35.9009992 108.0589978 117.2110014  35.7755562 107.2229896 117.4186283
  30.2059992 104.1479978 107.3400014  29.4949992 104.6829978 106.9880014
  30.8969992 104.2029978 106.6800014  30.2020751 104.2286777 107.2025858
  37.5749992 103.5259978 115.6340014  36.9229992 104.2199978 115.7230014
  38.0409992 103.7359978 114.8240014  37.5485937 103.6495019 115.5367533
  33.6119992 104.3569978 108.2920014  32.8799992 104.5859978 108.8650014
  34.0589992 103.6439978 108.7470014  33.5722753 104.2918972 108.4319715
  33.5089992 102.5319978 117.3600014  33.5889992 103.2949978 117.9310014
  32.9079992 102.8109978 116.6690014  33.4387245 102.6742630 117.3448424
  25.2569992 104.9879978 110.1740014  24.9269992 104.6169978 109.3560014
  25.8459992 104.3169978 110.5210014  25.2913970 104.8466063 110.1089404
  26.6239992 108.4159978 112.8560014  26.5289992 107.8369978 112.0990014
  27.3529992 108.0449978 113.3520014  26.7096161 108.2865891 112.8195209
  25.6239992 103.7559978 113.8080014  26.1889992 103.8779978 113.0450014
  25.9429992 104.3939978 114.4470014  25.7443977 103.8588851 113.7899424
  31.9329992 109.2599978 114.5420014  31.6929992 109.9219978 115.1900014
  31.7349992 108.4249978 114.9670014  31.8733826 109.2378115 114.6881566
  26.5039992 108.1559978 118.5250014  26.1929992 108.9379978 118.9800014
  25.8539992 108.0029978 117.8390014  26.3735538 108.2424087 118.4945898
  32.4829992 103.5199978 105.9770014  33.0619992 103.6699978 106.7240014
  32.8969992 103.9899978 105.2540014  32.6183122 103.6041277 105.9815042
  23.4239992 104.3539978 117.7540014  23.4939992 105.0049978 118.4520014
  22.5329992 104.4569978 117.4190014  23.3131802 104.4569757 117.8042249
  30.2089992 110.2559978 109.4120014  30.6829992 110.5519978 110.1900014
  29.6459992 110.9949978 109.1790014  30.1977361 110.3962721 109.4868611
  24.7429992 110.2269978 119.2880014  24.7509992 110.0909978 118.3410014
  23.8269992 110.1099978 119.5400014  24.6202528 110.1925463 119.1923243
  36.1819992  95.2699978 105.7900014  35.2819992  95.4089978 106.0850014
  36.4339992  96.1009978 105.3880014  36.0928683  95.4014055 105.7760232
  24.2479992 104.0569978 107.7640014  23.9559992 104.8249978 107.2730014
  23.5729992 103.3979978 107.6010014  24.1168497 104.0729745 107.6748260
  37.3709992 109.6359978 104.1660014  37.4439992 110.5749978 104.3370014
  38.2759992 109.3309978 104.1100014  37.5034158 109.7233061 104.1818392
  20.3409992 106.4199978 116.5790014  19.8389992 106.3919978 115.7640014
  20.3459992 105.5149978 116.8880014  20.2730416 106.2937368 116.5093766
  20.0909992 109.2009978 113.4630014  21.0369992 109.0559978 113.4440014
  19.9779992 109.9849978 114.0000014  20.2053578 109.2871697 113.5330317
  38.2889992 109.8669978 119.1450014  38.2389992 108.9109978 119.1080014
  37.4619992 110.1339978 119.5460014  38.1703987 109.7725174 119.1941446
  29.2669992 109.4409978 118.0210014  29.3549992 110.2669978 118.4960014
  28.4039992 109.1109978 118.2700014  29.1623357 109.5095468 118.1197653
  29.6819992 113.2129978 107.8270014  29.6059992 113.0919978 106.8810014
  29.7139992 114.1619978 107.9460014  29.6759156 113.3247530 107.7135048
  23.3349992 112.0019978 109.6080014  23.4869992 111.6539978 110.4870014
  22.4839992 111.6449978 109.3530014  23.2407899 111.9061738 109.6937340
  32.4519992 112.2929978 107.5790014  31.5169992 112.3929978 107.7570014
  32.7319992 111.5829978 108.1570014  32.3618173 112.2107239 107.6814998
  35.4409992 101.3599978 119.6250014  35.0329992 101.8399978 118.9050014
  35.4809992 100.4539978 119.3170014  35.3905476 101.3033160 119.4848247
  22.5899992 107.7439978 117.6220014  22.8059992 107.3819978 118.4810014
  21.7339992 107.3689978 117.4120014  22.5039354 107.6437906 117.7112160
  25.2079992  96.2139978 113.6170014  24.3469992  96.1269978 113.2100014
  25.1859992  97.0699978 114.0450014  25.0870411  96.3177884 113.6190857
  29.8709992  95.9359978 116.9920014  30.2909992  95.5209978 117.7450014
  28.9379992  95.7569978 117.1090014  29.8023736  95.8549910 117.1108968
  33.1979992  99.6909978 117.8450014  32.6839992  99.5659978 118.6430014
  33.0419992 100.6039978 117.6010014  33.1066967  99.7972123 117.9210937
  25.2989992 101.1789978 114.7120014  24.6579992 101.1389978 115.4210014
  25.3369992 102.1059978 114.4750014  25.2163670 101.2987795 114.7770550
  25.2959992 101.3999978 109.6240014  24.4039992 101.0599978 109.5660014
  25.7469992 101.0229978 108.8690014  25.2346815 101.3023762 109.5139203
  30.8319992 101.8159978 108.4410014  30.4229992 102.6309978 108.1500014
  31.5519992 101.6759978 107.8270014  30.8734013 101.9086571 108.3180875
  29.9339992 101.9919978 119.9290014  29.3709992 101.2869978 120.2500014
  30.7599992 101.8709978 120.3970014  29.9686674 101.8792165 120.0361751
  31.8369992 101.2619978 111.2550014  31.6409992 101.8679978 110.5400014
  32.0179992 100.4289978 110.8210014  31.8346584 101.2322513 111.0984212
  23.0489992 101.4999978 116.5790014  23.0109992 101.8999978 117.4480014
  22.5589992 100.6829978 116.6700014  22.9775621 101.4442510 116.7101377
  19.6579992  98.6159978 110.4300014  20.2879992  98.5869978 111.1490014
  20.1069992  98.1909978 109.7000014  19.8050692  98.5545316 110.4297771
  20.9319992  99.3619978 105.8540014  21.4059992  99.9529978 105.2690014
  20.2139992  99.8919978 106.2010014  20.8998640  99.5145511 105.8207969
  31.1009992 102.8999978 115.9270014  31.4239992 102.2689978 115.2840014
  30.6599992 102.3659978 116.5870014  31.0855789 102.7413522 115.9282232
  27.8779992  98.8279978 110.7110014  26.9669992  98.8849978 110.9990014
  28.3829992  98.7679978 111.5210014  27.8215387  98.8276870 110.8600646
  22.7059992 100.4569978 109.5370014  21.8169992 100.5559978 109.1970014
  23.0029992  99.6149978 109.1910014  22.6244177 100.3567687 109.4436940
  26.3589992 100.4569978 107.1940014  27.2909992 100.5859978 107.3720014
  26.1439992 101.1259978 106.5440014  26.4574472 100.5650806 107.1304891
  32.2829992  98.0629978 113.9750014  31.6059992  98.1939978 114.6390014
  31.7979992  97.9079978 113.1650014  32.1247265  98.0599659 113.9563397
  35.5709992 113.7339978 120.2520014  35.7699992 114.1579978 119.4170014
  36.2259992 114.0779978 120.8590014  35.6868501 113.8386091 120.2197097
  23.1689992 106.2079978 119.8600014  23.9009992 106.4629978 120.4210014
  22.3879992 106.4129978 120.3750014  23.1637684 106.2706468 120.0064782
  29.1979992 101.6149978 112.5980014  29.7619992 101.0689978 112.0510014
  29.0499992 101.0939978 113.3860014  29.2552575 101.4696552 112.6296987
  24.1999992  97.7519978 109.0160014  23.8829992  96.8489978 108.9810014
  24.9809992  97.7539978 108.4630014  24.2622307  97.6286951 108.9364314
  27.8239992 100.0039978 115.0120014  26.9889992 100.4579978 115.1220014
  28.3479992 100.2799978 115.7640014  27.7805070 100.1034666 115.1287152
  28.3689992 106.2169978 106.6960014  27.6239992 105.7089978 106.3740014
  28.2339992 106.2659978 107.6430014  28.2489047 106.1541596 106.7798845
  35.5189992 105.3499978 115.4830014  36.1599992 105.8059978 114.9390014
  34.6879992 105.4629978 115.0210014  35.4945171 105.4277502 115.3460237
  29.8879992 106.4009978 117.9330014  29.5419992 106.0189978 118.7400014
  29.6879992 107.3339978 118.0050014  29.8136523 106.4749095 118.0530735
  32.9849992 100.8979978 106.5560014  33.8769992 100.7599978 106.8750014
  33.0409992 101.6889978 106.0200014  33.1147107 100.9860526 106.5272091
  23.4929992 105.5119978 112.4660014  24.2379992 105.5089978 111.8650014
  23.5709992 104.6879978 112.9480014  23.6054158 105.4002916 112.4489153
  30.4939992 107.6749978 105.7220014  30.1989992 108.5019978 106.1030014
  29.7909992 107.0559978 105.9180014  30.3585471 107.7045227 105.8006698
  20.5009992 103.9719978 117.7810014  20.7239992 103.5539978 118.6130014
  19.8989992 103.3599978 117.3580014  20.4501260 103.8319933 117.8377320
  27.5179992 103.4889978 119.9940014  27.2219992 103.3239978 119.0990014
  28.4489992 103.2689978 119.9830014  27.6033982 103.4366578 119.8700045
  32.1379992 108.8629978 117.8840014  31.2379992 109.0459978 117.6160014
  32.1719992 109.1219978 118.8050014  32.0192909 108.9230815 117.9717852
  37.8699992 101.1069978 106.2510014  37.3149992 100.7109978 105.5790014
  37.9699992 102.0179978 105.9730014  37.8075888 101.1758990 106.1215206
  37.8329992 106.9079978 119.0880014  36.9819992 107.1459978 118.7210014
  38.4229992 106.8909978 118.3350014  37.7962408 106.9382966 118.9358879
  36.1649992 109.8929978 106.7160014  35.7919992 109.0679978 107.0250014
  36.4419992 109.7099978 105.8190014  36.1513871 109.7552441 106.6369677
  33.3249992 104.7009978 113.7370014  32.3969992 104.4699978 113.7100014
  33.7759992 103.9239978 113.4070014  33.2588165 104.5642774 113.6886790
  25.8679992 109.0299978 109.8700014  26.3959992 109.8029978 109.6700014
  24.9879992 109.2539978 109.5690014  25.8213176 109.1663161 109.8018409
  27.2959992 106.6929978 109.4470014  27.0549992 107.6179978 109.4880014
  26.5549992 106.2339978 109.8430014  27.1628390 106.7576403 109.5061404
  27.8099992 110.8419978 115.7620014  28.1729992 111.6959978 115.5280014
  28.3419992 110.5499978 116.5020014  27.9316090 110.9194058 115.8300219
  25.9789992 111.7139978 108.9920014  25.0289992 111.8199978 109.0430014
  26.3309992 112.5349978 109.3370014  25.8965480 111.8394438 109.0455999
  31.3539992 106.9409978 115.4620014  30.9289992 106.7129978 116.2890014
  31.9349992 106.2019978 115.2800014  31.3743930 106.8099843 115.5504732
  34.0129992 111.4929978 117.9320014  33.4109992 110.9369978 117.4360014
  34.2939992 112.1599978 117.3060014  33.9686829 111.5071613 117.7795443
  22.1349992  98.7259978 117.3390014  21.2429992  99.0639978 117.2720014
  22.0369992  97.8699978 117.7570014  21.9994965  98.6566499 117.3863044
  34.4229992 106.5419978 106.7630014  34.1459992 105.8139978 107.3190014
  35.3509992 106.6609978 106.9680014  34.5104499 106.4584213 106.8668044
  21.7869992 110.5299978 115.7740014  22.0039992 109.5979978 115.7430014
  22.0329992 110.8049978 116.6570014  21.8499809 110.4395686 115.8891690
  26.5849992 108.5519978 105.4400014  26.7319992 108.0319978 106.2300014
  26.5819992 109.4589978 105.7460014  26.6047300 108.6033964 105.5895895
  23.0379992 105.8039978 105.9500014  22.3519992 106.1569978 106.5170014
  23.5609992 106.5669978 105.7040014  23.0149033 105.9553746 105.9942661
  30.8699992  98.4669978 116.2290014  31.5689992  98.5409978 116.8790014
  30.4889992  97.6019978 116.3830014  30.9142097  98.3602389 116.3387997
  31.6539992  98.1189978 107.3260014  31.8739992  98.5899978 106.5230014
  32.2129992  98.5129978 107.9960014  31.7596730  98.2367432 107.3065906
  29.3229992 110.2489978 106.1890014  28.5059992 110.7459978 106.2410014
  29.8519992 110.7249978 105.5490014  29.2828508 110.3812543 106.1096035
  28.8539992  99.8469978 108.1610014  29.6659992 100.3509978 108.2070014
  28.6099992  99.7019978 109.0750014  28.9321467  99.8963749 108.2908575
  29.3899992 100.8329978 117.3460014  29.5089992 101.4069978 118.1030014
  30.0449992 100.1449978 117.4600014  29.4949146 100.8185574 117.4651314
  29.7379992  96.9279978 109.0990014  29.3909992  97.5449978 109.7440014
  30.3969992  97.4289978 108.6180014  29.7795949  97.0801099 109.1222271
  26.6609992 111.2929978 106.1710014  26.8219992 112.0929978 105.6700014
  26.4639992 111.5999978 107.0560014  26.6563919 111.4439129 106.2221006
  25.3959992  97.9909978 105.7860014  25.3119992  98.8789978 106.1330014
  26.2859992  97.7259978 106.0180014  25.5048163  98.0767179 105.8648596
  35.5939992  98.7399978 118.1810014  34.6779992  99.0019978 118.0930014
  35.9299992  98.7369978 117.2840014  35.5139789  98.7754626 118.0477847
  34.1969992 102.4899978 112.2760014  33.3989992 102.0749978 111.9480014
  34.6419992 101.7999978 112.7670014  34.1479684 102.3398628 112.2975227
  35.2829992 111.7459978 113.8990014  35.1269992 112.4249978 113.2420014
  36.2159992 111.8179978 114.1020014  35.3877387 111.8486390 113.8365342
  22.7779992  95.8639978 112.6360014  22.5489992  95.9229978 111.7080014
  22.3359992  95.0729978 112.9420014  22.6868801  95.7650540 112.5504729
  21.7089992 109.8049978 108.7960014  20.8759992 110.2769978 108.8240014
  22.2539992 110.3149978 108.1980014  21.6687590 109.9385897 108.7189194
  20.9969992 112.4169978 120.1260014  21.5369992 112.2009978 120.8860014
  20.5159992 111.6119978 119.9370014  21.0058613 112.2785400 120.2044782
  25.5939992 111.3369978 121.7470014  26.3619992 110.8779978 122.0880014
  25.5729992 111.1109978 120.8170014  25.6962135 111.2436668 121.6679491
  32.1709992 109.7169978 120.4760014  31.8199992 108.8599978 120.7190014
  32.8969992 109.8589978 121.0830014  32.2211590 109.6190178 120.5912907
  20.9039992 106.2279978 121.0810014  21.0479992 105.3259978 120.7940014
  20.1319992 106.5139978 120.5930014  20.8193303 106.1433243 120.9757908
  27.5589992 106.1969978 120.5130014  27.2309992 106.4679978 119.6560014
  27.7109992 105.2559978 120.4260014  27.5346030 106.1068973 120.3837945
  33.2939992 106.1129978 117.8970014  34.0389992 106.7019978 117.7770014
  32.5369992 106.6949978 117.9600014  33.2935205 106.2721997 117.8891119
  21.7369992 103.4279978 120.5010014  22.1449992 102.5709978 120.3800014
  21.4759992 103.4419978 121.4220014  21.7576016 103.3125119 120.6089192
  26.3949992 104.5439978 105.5190014  25.9349992 104.0599978 106.2050014
  26.6499992 103.8749978 104.8830014  26.3665038 104.3873689 105.5269447
  25.6839992 102.4369978 117.8750014  25.0649992 103.1109978 118.1550014
  26.0279992 102.7579978 117.0420014  25.6457605 102.5727198 117.8006707
  30.7029992 104.9079978 121.1520014  31.6569992 104.9919978 121.1250014
  30.5429992 104.1959978 121.7720014  30.8117182 104.8232842 121.2320733
  26.0229992  99.7919978 118.9570014  26.1729992  99.0629978 118.3550014
  26.0249992 100.5689978 118.3980014  26.0437967  99.7972708 118.7990541
  26.4359992  98.1609978 116.4500014  26.9709992  98.6129978 115.7980014
  25.5829992  98.0529978 116.0270014  26.3940374  98.2082665 116.3036710
  28.0169992 103.6009978 116.6890014  28.7679992 103.4449978 116.1160014
  27.6779992 104.4529978 116.4140014  28.0739587 103.6948138 116.5734078
  32.4329992 101.4159978 121.7180014  32.6249992 100.4849978 121.6060014
  33.2909992 101.8409978 121.7080014  32.5752269 101.3459928 121.7013192
  33.7499992 104.2049978 119.7950014  33.4679992 104.9139978 119.2180014
  34.6919992 104.1319978 119.6440014  33.8387656 104.2923128 119.6954809
  24.5019992 100.9899978 120.8690014  23.7339992 100.4569978 120.6590014
  25.1799992 100.6799978 120.2690014  24.4886973 100.8752375 120.7591796
  27.2409992  95.6179978 116.8810014  27.1429992  96.5639978 116.7760014
  26.4989992  95.2449978 116.4060014  27.1271913  95.6971813 116.8023539
  28.5049992  99.9389978 120.4450014  28.2699992  99.7199978 121.3470014
  27.7219992  99.7319978 119.9350014  28.3669219  99.8810066 120.4995852
  31.2209992  99.0669978 119.5210014  30.2729992  99.0989978 119.6530014
  31.5329992  98.4409978 120.1740014  31.1335190  98.9867262 119.6273564
  32.8549992  97.7009978 121.5260014  32.7579992  96.7489978 121.5200014
  32.5329992  97.9689978 122.3860014  32.7981761  97.6069744 121.6414936
  22.6819992  98.9099978 120.5730014  22.8939992  98.2039978 119.9630014
  22.5709992  98.4729978 121.4170014  22.6960269  98.7541921 120.6035873
  27.4629992  94.9119978 119.5530014  28.1749992  94.2719978 119.5390014
  27.3619992  95.1779978 118.6390014  27.5467261  94.8604190 119.4275537
  27.8169992  96.5939978 121.6060014  27.6849992  96.1189978 120.7860014
  27.2169992  97.3389978 121.5510014  27.7179070  96.6295789 121.4863251
  19.5799992 113.5069978 109.3430014  18.9329992 113.0449978 108.8100014
  19.9349992 112.8349978 109.9250014  19.5394506 113.3529503 109.3487341
  20.4499992 111.5869978 111.1470014  20.1159992 110.7069978 111.3190014
  20.6729992 111.9329978 112.0120014  20.4343721 111.5131938 111.2874168
  37.9989992 112.3969978 114.1280014  37.9769992 112.5819978 115.0670014
  38.6889992 112.9649978 113.7870014  38.0893439 112.4991887 114.2104791
  37.5619992 111.9639978 117.0500014  37.0749992 111.2289978 116.6790014
  38.1109992 111.5699978 117.7280014  37.5695247 111.8101057 117.0908461
  36.0129992 107.7539978 121.6880014  35.1469992 107.6489978 122.0820014
  36.3889992 108.5119978 122.1340014  35.9453401 107.8421708 121.8022620
  37.3139992 106.0099978 107.2020014  38.1639992 106.4309978 107.3290014
  37.3189992 105.2699978 107.8090014  37.4311143 105.9676094 107.3014750
  37.7079992 104.0639978 109.0260014  36.9819992 103.5839978 109.4230014
  38.2899992 104.2689978 109.7580014  37.6871635 104.0259166 109.1793748
  37.4669992 106.8489978 113.9730014  38.3009992 106.4709978 113.6930014
  37.5789992 107.7919978 113.8540014  37.5962522 106.9247742 113.9186020
  35.9539992 109.7269978 116.2800014  35.3059992 110.0519978 116.9060014
  35.4359992 109.2859978 115.6060014  35.7954168 109.7118523 116.2745307
  37.9769992 103.9649978 105.4170014  37.4549992 104.3209978 104.6980014
  37.9439992 104.6399978 106.0950014  37.9010699 104.1049848 105.4102129
  36.3259992 101.2039978 103.9680014  36.4219992 101.8709978 103.2880014
  36.1859992 100.3889978 103.4860014  36.3202063 101.1850667 103.8098377
  35.4949992 102.5849978 109.5890014  35.3449992 101.6399978 109.5680014
  35.1409992 102.8659978 110.4320014  35.4265527 102.4935605 109.7001859
  20.5299992 104.6629978 113.5990014  20.7149992 104.5809978 112.6630014
  21.3799992 104.5389978 114.0230014  20.6700916 104.6350393 113.5282896
  36.3509992 104.5549978 119.2270014  36.9339992 103.8199978 119.4190014
  36.9149992 105.3269978 119.2740014  36.5069781 104.5588145 119.2596164
  37.8479992 102.4579978 119.9120014  36.9849992 102.0789978 119.7460014
  38.4519992 101.7189978 119.8380014  37.8115944 102.3062978 119.8792984
  35.2059992 100.1669978 108.0510014  35.4849992  99.2599978 108.1750014
  35.9649992 100.6009978 107.6620014  35.3468619 100.1014502 108.0153795
  35.8169992 100.7489978 113.4870014  36.7499992 100.9609978 113.4530014
  35.5819992 100.8499978 114.4090014  35.9128308 100.7916503 113.6070214
  35.8469992 101.4859978 116.2630014  35.0039992 101.7539978 116.6290014
  36.2889992 102.3079978 116.0520014  35.7914138 101.6338273 116.2845518
  20.1279992  99.9329978 119.7400014  21.0469992  99.8109978 119.9760014
  19.6779992  99.1829978 120.1290014  20.1931148  99.8148751 119.8249408
  38.1299992  95.4659978 121.6160014  38.4789992  94.8119978 121.0110014
  38.2769992  96.3029978 121.1770014  38.1977355  95.4896067 121.4736564
  35.8189992  97.4299978 108.0990014  36.0009992  96.9809978 108.9250014
  35.2189992  96.8459978 107.6360014  35.7627529  97.2896131 108.1493619
  21.3489992  98.2459978 112.6310014  21.7939992  97.4539978 112.9330014
  21.8149992  98.9619978 113.0620014  21.4729059  98.2344474 112.7306079
  19.6529992 101.2449978 113.7000014  20.1449992 101.0239978 112.9090014
  20.0149992 102.0849978 113.9810014  19.7692923 101.3283468 113.6297407
  37.6489992  97.5749978 119.9660014  36.7319992  97.8459978 119.9300014
  37.7719992  97.0399978 119.1820014  37.5400828  97.5397700 119.8550785
  37.6859992  97.4979978 104.6270014  38.0979992  96.7769978 104.1520014
  38.3669992  98.1669978 104.6860014  37.8345900  97.4897306 104.5699038
  34.7369992 112.4869978 109.7000014  35.3899992 112.1389978 109.0920014
  35.2479992 112.9749978 110.3460014  34.8952777 112.5053815 109.7042047
  19.9299992  96.2409978 116.0990014  19.2649992  95.9949978 116.7420014
  19.4869992  96.8629978 115.5210014  19.7790937  96.2913614 116.1089379
  22.1219992 109.4159978 120.2430014  21.3009992 109.5909978 119.7830014
  21.8699992 109.3429978 121.1640014  21.9756173 109.4300794 120.3044972
  25.0759992 110.3899978 116.5020014  24.6519992 111.1999978 116.2190014
  25.9809992 110.4759978 116.2000014  25.1402433 110.5123331 116.4225377
  29.3879992 111.7889978 119.4610014  29.5719992 111.4559978 120.3390014
  30.2339992 112.0989978 119.1390014  29.5276484 111.7852979 119.5377617
  31.7329992 113.0749978 118.7050014  32.4099992 112.4419978 118.4650014
  32.0539992 113.4759978 119.5120014  31.8691323 113.0425691 118.7813158
  36.6499992  95.6649978 117.7850014  35.8369992  95.9899978 117.3970014
  36.8829992  94.9039978 117.2520014  36.5702566  95.6066559 117.6599213
  22.4779992 113.6469978 116.5490014  21.7579992 114.0869978 116.0980014
  22.1129992 113.3959978 117.3980014  22.3299796 113.6733824 116.6019329
  24.9449992 113.2469978 115.5790014  24.0809992 113.3189978 115.9830014
  24.8899992 113.7939978 114.7950014  24.8191942 113.3307849 115.5284000
  29.6559992 113.1349978 114.7540014  29.1989992 113.6639978 114.1000014
  29.8189992 113.7379978 115.4800014  29.6154476 113.2889140 114.7625499
  31.9839992 112.0129978 115.6990014  31.0789992 112.1779978 115.4340014
  32.4119992 112.8659978 115.6340014  31.9180700 112.1509529 115.6539520
  34.5879992 113.5829978 115.9940014  34.4059992 114.4989978 115.7840014
  34.7649992 113.1719978 115.1480014  34.5869907 113.6529741 115.8507883
  21.8929992 112.2699978 113.4590014  21.8749992 111.8439978 114.3170014
  22.6979992 111.9509978 113.0510014  21.9993221 112.1687233 113.5210225
  24.0339992 110.9799978 112.1140014  23.8149992 110.0629978 112.2840014
  24.8579992 111.1199978 112.5800014  24.1154702 110.8735511 112.2002527
  26.5709992 111.4499978 112.9630014  26.7839992 110.5619978 112.6760014
  26.6359992 111.4149978 113.9180014  26.6089075 111.3238307 113.0527373
  30.0799992  97.1139978 112.1070014  29.4059992  96.4839978 112.3630014
  30.6439992  96.6299978 111.5040014  30.0640384  96.9623708 112.0605020
  35.2229992  95.2209978 112.2200014  35.8259992  95.7689978 111.7180014
  34.3529992  95.5399978 111.9800014  35.1879190  95.3391041 112.1188679
  36.9499992  96.3599978 110.5530014  37.5609992  95.8459978 110.0270014
  37.3319992  97.2369978 110.5770014  37.0854475  96.4081323 110.4841208
  22.4069992  95.7479978 109.9290014  21.6299992  95.5129978 109.4220014
  22.9369992  94.9509978 109.9380014  22.3723451  95.6081268 109.8608627
  21.2429992  95.5459978 105.7330014  21.6819992  96.1569978 105.1410014
  20.6089992  96.0839978 106.2070014  21.2173859  95.7024064 105.7160305
  26.9859992  95.6739978 109.7430014  27.8599992  96.0629978 109.7130014
  26.8499992  95.4589978 110.6650014  27.0873207  95.6981923 109.8636509
  32.5429992  95.7039978 111.3920014  32.6189992  95.7999978 110.4430014
  32.2679992  94.7969978 111.5210014  32.5162042  95.5944241 111.2793811
  33.8959992  95.7299978 107.0840014  33.1929992  96.3449978 106.8750014
  33.4509992  94.8929978 107.2160014  33.7396292  95.7010085 107.0732439
  21.1439992 111.4939978 106.6310014  20.4589992 111.4559978 105.9630014
  21.1479992 112.4069978 106.9190014  21.0508174 111.6121998 106.5785310
  28.1299992  97.7549978 106.6330014  28.3079992  97.1079978 107.3150014
  28.0759992  98.5889978 107.1000014  28.1471025  97.7790504 106.7896433
  30.0079992 112.7029978 105.0280014  30.8739992 113.0699978 104.8500014
  29.7619992 112.2639978 104.2140014  30.0932097 112.6938525 104.8936019
  36.7169992 112.2659978 107.7070014  36.5229992 111.5179978 107.1420014
  36.6779992 113.0239978 107.1240014  36.6851645 112.2660786 107.5508148
  22.3639992  96.2619978 119.4470014  21.9979992  95.4959978 119.8900014
  23.2769992  96.2909978 119.7340014  22.4373225  96.1611906 119.5463459
  24.3369992  95.6119978 120.9830014  25.2359992  95.3379978 120.7980014
  23.9509992  94.8699978 121.4470014  24.4077237  95.4741508 121.0204710
  32.7589992  94.9449978 121.1650014  32.8349992  94.5189978 122.0190014
  33.6519992  94.9579978 120.8220014  32.8902267  94.8883952 121.2355932
  35.9349992 111.0179978 119.8570014  35.1529992 110.8309978 119.3380014
  35.8629992 111.9469978 120.0750014  35.8180863 111.1180221 119.8153574
  50.3409992 104.9039978 109.8880014  50.4299992 105.8479978 109.7560014
  49.7029992 104.6289978 109.2300014  50.2669061 104.9959812 109.7809641
  49.2739992 104.1589978 113.3070014  49.2359992 103.5129978 114.0120014
  48.9519992 103.6919978 112.5360014  49.2252679 104.0074276 113.2992921
  41.6419992 103.7729978 114.9000014  41.6839992 103.1479978 115.6230014
  42.3449992 104.3969978 115.0820014  41.7427345 103.7717873 115.0235273
  52.9799992 107.0979978 111.6090014  52.5389992 106.3779978 112.0590014
  52.9669992 107.8189978 112.2380014  52.9177960 107.0968329 111.7557567
  42.5659992 108.2229978 113.4350014  42.1959992 107.4209978 113.0650014
  43.5069992 108.0549978 113.4810014  42.6425984 108.0904638 113.3905603
  39.1759992 101.8829978 108.8280014  38.7279992 102.7289978 108.8090014
  38.6149992 101.3039978 108.3120014  39.0389603 101.9203674 108.7556720
  39.8859992 104.0449978 110.9540014  40.0999992 103.2749978 111.4810014
  40.6239992 104.1349978 110.3500014  40.0149652 103.9518012 110.9445212
  50.0919992 112.2019978 111.8210014  50.7109992 111.5259978 111.5470014
  49.8829992 111.9839978 112.7290014  50.1486232 112.0797938 111.9062517
  47.6629992 106.5909978 113.7130014  47.9669992 105.9049978 113.1190014
  48.3849992 106.7099978 114.3310014  47.8021152 106.5132189 113.7152123
  56.3259992  98.1929978 114.5740014  56.3759992  98.8029978 115.3100014
  56.7519992  98.6539978 113.8510014  56.3904108  98.3387709 114.5770112
  50.8039992 100.9849978 114.0410014  50.9469992 100.0389978 114.0610014
  50.6979992 101.1919978 113.1120014  50.8092509 100.8834813 113.9182231
  43.9589992  99.0869978 111.3130014  44.0019992  99.9469978 110.8950014
  43.5009992  98.5349978 110.6790014  43.9029815  99.1300621 111.1701197
  51.6809992  99.2179978 109.7140014  52.3279992  98.8889978 110.3390014
  52.1909992  99.7349978 109.0910014  51.8384317  99.2429227 109.7152167
  40.5789992 101.4839978 112.0750014  41.2329992 100.9339978 112.5070014
  40.6029992 101.2099978 111.1580014  40.6717199 101.3717167 112.0101668
  45.7359992 103.0339978 111.2900014  46.3519992 102.5069978 111.8000014
  45.1489992 102.3939978 110.8870014  45.7409239 102.8754117 111.3052952
  56.7179992  99.6709978 116.8100014  56.0289992 100.3289978 116.7140014
  56.7329992  99.4729978 117.7460014  56.6256740  99.7343242 116.9234630
  42.7689992  98.0049978 115.3870014  42.5499992  98.5349978 114.6210014
  42.1009992  98.2309978 116.0340014  42.6487001  98.1081154 115.3696064
  50.1379992 107.5049978 108.9310014  49.8429992 107.1819978 108.0800014
  49.8139992 108.4049978 108.9720014  50.0537983 107.5824026 108.8199771
  45.3379992 105.6799978 115.6750014  44.5979992 106.2789978 115.7780014
  46.0519992 106.2339978 115.3590014  45.3333288 105.8367356 115.6463805
  53.4449992  98.5089978 111.6940014  53.2299992  97.7429978 112.2270014
  54.1009992  98.9809978 112.2070014  53.5042673  98.4680728 111.8361990
  42.3629992  99.8969978 113.3390014  42.9769992 100.5299978 113.7130014
  42.8749992  99.4249978 112.6830014  42.5162277  99.9197352 113.3014279
  43.7459992 107.6449978 116.4620014  43.7399992 108.5239978 116.0840014
  42.8919992 107.5609978 116.8870014  43.6297925 107.7539535 116.4676887
  39.8669992 107.3159978 107.2440014  39.5949992 107.5449978 106.3550014
  39.9119992 108.1529978 107.7040014  39.8358709 107.4606058 107.1846107
  53.4919992 108.9369978 113.9560014  52.5499992 108.9959978 114.1180014
  53.7679992 109.8429978 113.8190014  53.4005865 109.0675288 113.9596192
  53.7919992  97.2239978 115.3740014  53.0559992  97.8339978 115.3360014
  54.4759992  97.6389978 114.8470014  53.7835506  97.3636400 115.2976051
  46.7959992  95.3099978 112.8400014  46.6779992  94.3619978 112.7850014
  45.9409992  95.6429978 113.1130014  46.6642679  95.2251926 112.8693720
  51.7439992 110.7179978 110.5820014  52.1689992 110.0109978 110.0970014
  52.0609992 111.5199978 110.1650014  51.8450266 110.7295190 110.4592479
  52.9039992 108.6189978 109.0900014  52.6459992 107.9289978 108.4790014
  52.9749992 108.1759978 109.9360014  52.8782837 108.4647106 109.1206912
  54.5899992 107.1859978 117.5680014  54.7289992 106.5939978 116.8280014
  54.7569992 108.0589978 117.2110014  54.6315562 107.2229896 117.4186283
  49.0619992 104.1479978 107.3400014  48.3509992 104.6829978 106.9880014
  49.7529992 104.2029978 106.6800014  49.0580751 104.2286777 107.2025858
  56.4309992 103.5259978 115.6340014  55.7789992 104.2199978 115.7230014
  56.8969992 103.7359978 114.8240014  56.4045937 103.6495019 115.5367533
  52.4679992 104.3569978 108.2920014  51.7359992 104.5859978 108.8650014
  52.9149992 103.6439978 108.7470014  52.4282753 104.2918972 108.4319715
  52.3649992 102.5319978 117.3600014  52.4449992 103.2949978 117.9310014
  51.7639992 102.8109978 116.6690014  52.2947245 102.6742630 117.3448424
  44.1129992 104.9879978 110.1740014  43.7829992 104.6169978 109.3560014
  44.7019992 104.3169978 110.5210014  44.1473970 104.8466063 110.1089404
  45.4799992 108.4159978 112.8560014  45.3849992 107.8369978 112.0990014
  46.2089992 108.0449978 113.3520014  45.5656161 108.2865891 112.8195209
  44.4799992 103.7559978 113.8080014  45.0449992 103.8779978 113.0450014
  44.7989992 104.3939978 114.4470014  44.6003977 103.8588851 113.7899424
  50.7889992 109.2599978 114.5420014  50.5489992 109.9219978 115.1900014
  50.5909992 108.4249978 114.9670014  50.7293826 109.2378115 114.6881566
  45.3599992 108.1559978 118.5250014  45.0489992 108.9379978 118.9800014
  44.7099992 108.0029978 117.8390014  45.2295538 108.2424087 118.4945898
  51.3389992 103.5199978 105.9770014  51.9179992 103.6699978 106.7240014
  51.7529992 103.9899978 105.2540014  51.4743122 103.6041277 105.9815042
  42.2799992 104.3539978 117.7540014  42.3499992 105.0049978 118.4520014
  41.3889992 104.4569978 117.4190014  42.1691802 104.4569757 117.8042249
  49.0649992 110.2559978 109.4120014  49.5389992 110.5519978 110.1900014
  48.5019992 110.9949978 109.1790014  49.0537361 110.3962721 109.4868611
  43.5989992 110.2269978 119.2880014  43.6069992 110.0909978 118.3410014
  42.6829992 110.1099978 119.5400014  43.4762528 110.1925463 119.1923243
  55.0379992  95.2699978 105.7900014  54.1379992  95.4089978 106.0850014
  55.2899992  96.1009978 105.3880014  54.9488683  95.4014055 105.7760232
  43.1039992 104.0569978 107.7640014  42.8119992 104.8249978 107.2730014
  42.4289992 103.3979978 107.6010014  42.9728497 104.0729745 107.6748260
  39.1969992 106.4199978 116.5790014  38.6949992 106.3919978 115.7640014
  39.2019992 105.5149978 116.8880014  39.1290416 106.2937368 116.5093766
  38.9469992 109.2009978 113.4630014  39.8929992 109.0559978 113.4440014
  38.8339992 109.9849978 114.0000014  39.0613578 109.2871697 113.5330317
  57.1449992 109.8669978 119.1450014  57.0949992 108.9109978 119.1080014
  56.3179992 110.1339978 119.5460014  57.0263987 109.7725174 119.1941446
  48.1229992 109.4409978 118.0210014  48.2109992 110.2669978 118.4960014
  47.2599992 109.1109978 118.2700014  48.0183357 109.5095468 118.1197653
  48.5379992 113.2129978 107.8270014  48.4619992 113.0919978 106.8810014
  48.5699992 114.1619978 107.9460014  48.5319156 113.3247530 107.7135048
  42.1909992 112.0019978 109.6080014  42.3429992 111.6539978 110.4870014
  41.3399992 111.6449978 109.3530014  42.0967899 111.9061738 109.6937340
  51.6389992 112.3669978 104.8290014  52.0139992 111.6229978 104.3590014
  51.6439992 112.0969978 105.7480014  51.6910024 112.2286950 104.8887987
  51.3079992 112.2929978 107.5790014  50.3729992 112.3929978 107.7570014
  51.5879992 111.5829978 108.1570014  51.2178173 112.2107239 107.6814998
  54.2969992 101.3599978 119.6250014  53.8889992 101.8399978 118.9050014
  54.3369992 100.4539978 119.3170014  54.2465476 101.3033160 119.4848247
  41.4459992 107.7439978 117.6220014  41.6619992 107.3819978 118.4810014
  40.5899992 107.3689978 117.4120014  41.3599354 107.6437906 117.7112160
  44.0639992  96.2139978 113.6170014  43.2029992  96.1269978 113.2100014
  44.0419992  97.0699978 114.0450014  43.9430411  96.3177884 113.6190857
  48.7269992  95.9359978 116.9920014  49.1469992  95.5209978 117.7450014
  47.7939992  95.7569978 117.1090014  48.6583736  95.8549910 117.1108968
  52.0539992  99.6909978 117.8450014  51.5399992  99.5659978 118.6430014
  51.8979992 100.6039978 117.6010014  51.9626967  99.7972123 117.9210937
  44.1549992 101.1789978 114.7120014  43.5139992 101.1389978 115.4210014
  44.1929992 102.1059978 114.4750014  44.0723670 101.2987795 114.7770550
  44.1519992 101.3999978 109.6240014  43.2599992 101.0599978 109.5660014
  44.6029992 101.0229978 108.8690014  44.0906815 101.3023762 109.5139203
  49.6879992 101.8159978 108.4410014  49.2789992 102.6309978 108.1500014
  50.4079992 101.6759978 107.8270014  49.7294013 101.9086571 108.3180875
  48.7899992 101.9919978 119.9290014  48.2269992 101.2869978 120.2500014
  49.6159992 101.8709978 120.3970014  48.8246674 101.8792165 120.0361751
  50.6929992 101.2619978 111.2550014  50.4969992 101.8679978 110.5400014
  50.8739992 100.4289978 110.8210014  50.6906584 101.2322513 111.0984212
  41.9049992 101.4999978 116.5790014  41.8669992 101.8999978 117.4480014
  41.4149992 100.6829978 116.6700014  41.8335621 101.4442510 116.7101377
  38.5139992  98.6159978 110.4300014  39.1439992  98.5869978 111.1490014
  38.9629992  98.1909978 109.7000014  38.6610692  98.5545316 110.4297771
  39.7879992  99.3619978 105.8540014  40.2619992  99.9529978 105.2690014
  39.0699992  99.8919978 106.2010014  39.7558640  99.5145511 105.8207969
  49.9569992 102.8999978 115.9270014  50.2799992 102.2689978 115.2840014
  49.5159992 102.3659978 116.5870014  49.9415789 102.7413522 115.9282232
  46.7339992  98.8279978 110.7110014  45.8229992  98.8849978 110.9990014
  47.2389992  98.7679978 111.5210014  46.6775387  98.8276870 110.8600646
  41.5619992 100.4569978 109.5370014  40.6729992 100.5559978 109.1970014
  41.8589992  99.6149978 109.1910014  41.4804177 100.3567687 109.4436940
  45.2149992 100.4569978 107.1940014  46.1469992 100.5859978 107.3720014
  44.9999992 101.1259978 106.5440014  45.3134472 100.5650806 107.1304891
  51.1389992  98.0629978 113.9750014  50.4619992  98.1939978 114.6390014
  50.6539992  97.9079978 113.1650014  50.9807265  98.0599659 113.9563397
  43.8889992 101.6509978 104.7610014  43.3469992 101.2719978 104.0690014
  44.7229992 101.8459978 104.3320014  43.9275159 101.6255076 104.6084419
  54.4269992 113.7339978 120.2520014  54.6259992 114.1579978 119.4170014
  55.0819992 114.0779978 120.8590014  54.5428501 113.8386091 120.2197097
  42.0249992 106.2079978 119.8600014  42.7569992 106.4629978 120.4210014
  41.2439992 106.4129978 120.3750014  42.0197684 106.2706468 120.0064782
  48.0539992 101.6149978 112.5980014  48.6179992 101.0689978 112.0510014
  47.9059992 101.0939978 113.3860014  48.1112575 101.4696552 112.6296987
  43.0559992  97.7519978 109.0160014  42.7389992  96.8489978 108.9810014
  43.8369992  97.7539978 108.4630014  43.1182307  97.6286951 108.9364314
  46.6799992 100.0039978 115.0120014  45.8449992 100.4579978 115.1220014
  47.2039992 100.2799978 115.7640014  46.6365070 100.1034665 115.1287152
  47.2249992 106.2169978 106.6960014  46.4799992 105.7089978 106.3740014
  47.0899992 106.2659978 107.6430014  47.1049047 106.1541596 106.7798845
  54.3749992 105.3499978 115.4830014  55.0159992 105.8059978 114.9390014
  53.5439992 105.4629978 115.0210014  54.3505171 105.4277502 115.3460237
  48.7439992 106.4009978 117.9330014  48.3979992 106.0189978 118.7400014
  48.5439992 107.3339978 118.0050014  48.6696523 106.4749095 118.0530735
  51.8409992 100.8979978 106.5560014  52.7329992 100.7599978 106.8750014
  51.8969992 101.6889978 106.0200014  51.9707107 100.9860526 106.5272091
  42.3489992 105.5119978 112.4660014  43.0939992 105.5089978 111.8650014
  42.4269992 104.6879978 112.9480014  42.4614158 105.4002916 112.4489153
  49.3499992 107.6749978 105.7220014  49.0549992 108.5019978 106.1030014
  48.6469992 107.0559978 105.9180014  49.2145471 107.7045227 105.8006698
  39.3569992 103.9719978 117.7810014  39.5799992 103.5539978 118.6130014
  38.7549992 103.3599978 117.3580014  39.3061260 103.8319933 117.8377320
  46.3739992 103.4889978 119.9940014  46.0779992 103.3239978 119.0990014
  47.3049992 103.2689978 119.9830014  46.4593982 103.4366578 119.8700045
  50.9939992 108.8629978 117.8840014  50.0939992 109.0459978 117.6160014
  51.0279992 109.1219978 118.8050014  50.8752909 108.9230815 117.9717852
  56.7259992 101.1069978 106.2510014  56.1709992 100.7109978 105.5790014
  56.8259992 102.0179978 105.9730014  56.6635888 101.1758990 106.1215206
  56.6889992 106.9079978 119.0880014  55.8379992 107.1459978 118.7210014
  57.2789992 106.8909978 118.3350014  56.6522408 106.9382966 118.9358879
  55.0209992 109.8929978 106.7160014  54.6479992 109.0679978 107.0250014
  55.2979992 109.7099978 105.8190014  55.0073871 109.7552441 106.6369677
  52.1809992 104.7009978 113.7370014  51.2529992 104.4699978 113.7100014
  52.6319992 103.9239978 113.4070014  52.1148165 104.5642774 113.6886790
  44.7239992 109.0299978 109.8700014  45.2519992 109.8029978 109.6700014
  43.8439992 109.2539978 109.5690014  44.6773176 109.1663161 109.8018409
  46.1519992 106.6929978 109.4470014  45.9109992 107.6179978 109.4880014
  45.4109992 106.2339978 109.8430014  46.0188390 106.7576403 109.5061404
  46.6659992 110.8419978 115.7620014  47.0289992 111.6959978 115.5280014
  47.1979992 110.5499978 116.5020014  46.7876090 110.9194058 115.8300219
  44.8349992 111.7139978 108.9920014  43.8849992 111.8199978 109.0430014
  45.1869992 112.5349978 109.3370014  44.7525480 111.8394438 109.0455999
  50.2099992 106.9409978 115.4620014  49.7849992 106.7129978 116.2890014
  50.7909992 106.2019978 115.2800014  50.2303930 106.8099843 115.5504731
  52.8689992 111.4929978 117.9320014  52.2669992 110.9369978 117.4360014
  53.1499992 112.1599978 117.3060014  52.8246829 111.5071613 117.7795443
  56.9169992 112.3489978 104.7370014  57.6609992 112.9349978 104.5970014
  56.2229992 112.9179978 105.0710014  56.9250201 112.5060603 104.7629772
  40.9909992  98.7259978 117.3390014  40.0989992  99.0639978 117.2720014
  40.8929992  97.8699978 117.7570014  40.8554965  98.6566499 117.3863044
  53.2789992 106.5419978 106.7630014  53.0019992 105.8139978 107.3190014
  54.2069992 106.6609978 106.9680014  53.3664499 106.4584213 106.8668044
  40.6429992 110.5299978 115.7740014  40.8599992 109.5979978 115.7430014
  40.8889992 110.8049978 116.6570014  40.7059809 110.4395686 115.8891690
  49.7259992  98.4669978 116.2290014  50.4249992  98.5409978 116.8790014
  49.3449992  97.6019978 116.3830014  49.7702097  98.3602389 116.3387997
  50.5099992  98.1189978 107.3260014  50.7299992  98.5899978 106.5230014
  51.0689992  98.5129978 107.9960014  50.6156730  98.2367432 107.3065906
  47.7099992  99.8469978 108.1610014  48.5219992 100.3509978 108.2070014
  47.4659992  99.7019978 109.0750014  47.7881467  99.8963749 108.2908575
  48.2459992 100.8329978 117.3460014  48.3649992 101.4069978 118.1030014
  48.9009992 100.1449978 117.4600014  48.3509146 100.8185574 117.4651314
  48.5939992  96.9279978 109.0990014  48.2469992  97.5449978 109.7440014
  49.2529992  97.4289978 108.6180014  48.6355949  97.0801099 109.1222271
  54.4499992  98.7399978 118.1810014  53.5339992  99.0019978 118.0930014
  54.7859992  98.7369978 117.2840014  54.3699789  98.7754626 118.0477847
  53.0529992 102.4899978 112.2760014  52.2549992 102.0749978 111.9480014
  53.4979992 101.7999978 112.7670014  53.0039684 102.3398628 112.2975227
  42.5099992 108.4179978 104.8470014  43.1019992 109.1179978 105.1230014
  42.9689992 107.9849978 104.1270014  42.6530791 108.4552908 104.7874607
  40.8259992 101.0829978 103.9630014  40.7809992 102.0219978 104.1410014
  39.9379992 100.8469978 103.6930014  40.6998555 101.1796874 103.9508939
  54.1389992 111.7459978 113.8990014  53.9829992 112.4249978 113.2420014
  55.0719992 111.8179978 114.1020014  54.2437387 111.8486390 113.8365342
  41.6339992  95.8639978 112.6360014  41.4049992  95.9229978 111.7080014
  41.1919992  95.0729978 112.9420014  41.5428801  95.7650540 112.5504729
  40.5649992 109.8049978 108.7960014  39.7319992 110.2769978 108.8240014
  41.1099992 110.3149978 108.1980014  40.5247590 109.9385897 108.7189194
  39.8529992 112.4169978 120.1260014  40.3929992 112.2009978 120.8860014
  39.3719992 111.6119978 119.9370014  39.8618613 112.2785400 120.2044782
  44.4499992 111.3369978 121.7470014  45.2179992 110.8779978 122.0880014
  44.4289992 111.1109978 120.8170014  44.5522135 111.2436668 121.6679491
  51.0269992 109.7169978 120.4760014  50.6759992 108.8599978 120.7190014
  51.7529992 109.8589978 121.0830014  51.0771590 109.6190178 120.5912907
  39.7599992 106.2279978 121.0810014  39.9039992 105.3259978 120.7940014
  38.9879992 106.5139978 120.5930014  39.6753303 106.1433243 120.9757908
  46.4149992 106.1969978 120.5130014  46.0869992 106.4679978 119.6560014
  46.5669992 105.2559978 120.4260014  46.3906030 106.1068973 120.3837945
  52.1499992 106.1129978 117.8970014  52.8949992 106.7019978 117.7770014
  51.3929992 106.6949978 117.9600014  52.1495205 106.2721997 117.8891119
  40.5929992 103.4279978 120.5010014  41.0009992 102.5709978 120.3800014
  40.3319992 103.4419978 121.4220014  40.6136016 103.3125119 120.6089192
  45.2509992 104.5439978 105.5190014  44.7909992 104.0599978 106.2050014
  45.5059992 103.8749978 104.8830014  45.2225038 104.3873689 105.5269447
  44.5399992 102.4369978 117.8750014  43.9209992 103.1109978 118.1550014
  44.8839992 102.7579978 117.0420014  44.5017605 102.5727198 117.8006707
  49.5589992 104.9079978 121.1520014  50.5129992 104.9919978 121.1250014
  49.3989992 104.1959978 121.7720014  49.6677182 104.8232842 121.2320733
  44.8789992  99.7919978 118.9570014  45.0289992  99.0629978 118.3550014
  44.8809992 100.5689978 118.3980014  44.8997967  99.7972708 118.7990541
  45.2919992  98.1609978 116.4500014  45.8269992  98.6129978 115.7980014
  44.4389992  98.0529978 116.0270014  45.2500374  98.2082665 116.3036710
  46.8729992 103.6009978 116.6890014  47.6239992 103.4449978 116.1160014
  46.5339992 104.4529978 116.4140014  46.9299587 103.6948138 116.5734078
  51.2889992 101.4159978 121.7180014  51.4809992 100.4849978 121.6060014
  52.1469992 101.8409978 121.7080014  51.4312269 101.3459928 121.7013192
  52.6059992 104.2049978 119.7950014  52.3239992 104.9139978 119.2180014
  53.5479992 104.1319978 119.6440014  52.6947656 104.2923128 119.6954809
  43.3579992 100.9899978 120.8690014  42.5899992 100.4569978 120.6590014
  44.0359992 100.6799978 120.2690014  43.3446973 100.8752375 120.7591796
  46.0969992  95.6179978 116.8810014  45.9989992  96.5639978 116.7760014
  45.3549992  95.2449978 116.4060014  45.9831913  95.6971813 116.8023539
  47.3609992  99.9389978 120.4450014  47.1259992  99.7199978 121.3470014
  46.5779992  99.7319978 119.9350014  47.2229219  99.8810066 120.4995852
  50.0769992  99.0669978 119.5210014  49.1289992  99.0989978 119.6530014
  50.3889992  98.4409978 120.1740014  49.9895190  98.9867262 119.6273564
  51.7109992  97.7009978 121.5260014  51.6139992  96.7489978 121.5200014
  51.3889992  97.9689978 122.3860014  51.6541761  97.6069744 121.6414936
  41.5379992  98.9099978 120.5730014  41.7499992  98.2039978 119.9630014
  41.4269992  98.4729978 121.4170014  41.5520269  98.7541921 120.6035873
  46.3189992  94.9119978 119.5530014  47.0309992  94.2719978 119.5390014
  46.2179992  95.1779978 118.6390014  46.4027261  94.8604190 119.4275537
  46.6729992  96.5939978 121.6060014  46.5409992  96.1189978 120.7860014
  46.0729992  97.3389978 121.5510014  46.5739070  96.6295789 121.4863251
  38.4359992 113.5069978 109.3430014  37.7889992 113.0449978 108.8100014
  38.7909992 112.8349978 109.9250014  38.3954506 113.3529503 109.3487341
  39.3059992 111.5869978 111.1470014  38.9719992 110.7069978 111.3190014
  39.5289992 111.9329978 112.0120014  39.2903721 111.5131938 111.2874168
  56.8549992 112.3969978 114.1280014  56.8329992 112.5819978 115.0670014
  57.5449992 112.9649978 113.7870014  56.9453439 112.4991887 114.2104791
  56.4179992 111.9639978 117.0500014  55.9309992 111.2289978 116.6790014
  56.9669992 111.5699978 117.7280014  56.4255247 111.8101057 117.0908461
  54.8689992 107.7539978 121.6880014  54.0029992 107.6489978 122.0820014
  55.2449992 108.5119978 122.1340014  54.8013401 107.8421708 121.8022620
  56.1699992 106.0099978 107.2020014  57.0199992 106.4309978 107.3290014
  56.1749992 105.2699978 107.8090014  56.2871143 105.9676094 107.3014750
  56.5639992 104.0639978 109.0260014  55.8379992 103.5839978 109.4230014
  57.1459992 104.2689978 109.7580014  56.5431635 104.0259166 109.1793748
  56.3229992 106.8489978 113.9730014  57.1569992 106.4709978 113.6930014
  56.4349992 107.7919978 113.8540014  56.4522522 106.9247742 113.9186020
  54.8099992 109.7269978 116.2800014  54.1619992 110.0519978 116.9060014
  54.2919992 109.2859978 115.6060014  54.6514168 109.7118523 116.2745307
  56.8329992 103.9649978 105.4170014  56.3109992 104.3209978 104.6980014
  56.7999992 104.6399978 106.0950014  56.7570699 104.1049848 105.4102129
  54.3509992 102.5849978 109.5890014  54.2009992 101.6399978 109.5680014
  53.9969992 102.8659978 110.4320014  54.2825527 102.4935605 109.7001859
  39.3859992 104.6629978 113.5990014  39.5709992 104.5809978 112.6630014
  40.2359992 104.5389978 114.0230014  39.5260916 104.6350393 113.5282896
  55.2069992 104.5549978 119.2270014  55.7899992 103.8199978 119.4190014
  55.7709992 105.3269978 119.2740014  55.3629781 104.5588145 119.2596164
  56.7039992 102.4579978 119.9120014  55.8409992 102.0789978 119.7460014
  57.3079992 101.7189978 119.8380014  56.6675944 102.3062978 119.8792984
  54.0619992 100.1669978 108.0510014  54.3409992  99.2599978 108.1750014
  54.8209992 100.6009978 107.6620014  54.2028619 100.1014502 108.0153795
  54.6729992 100.7489978 113.4870014  55.6059992 100.9609978 113.4530014
  54.4379992 100.8499978 114.4090014  54.7688308 100.7916503 113.6070214
  54.7029992 101.4859978 116.2630014  53.8599992 101.7539978 116.6290014
  55.1449992 102.3079978 116.0520014  54.6474138 101.6338273 116.2845518
  38.9839992  99.9329978 119.7400014  39.9029992  99.8109978 119.9760014
  38.5339992  99.1829978 120.1290014  39.0491148  99.8148751 119.8249408
  56.9859992  95.4659978 121.6160014  57.3349992  94.8119978 121.0110014
  57.1329992  96.3029978 121.1770014  57.0537355  95.4896067 121.4736564
  54.6749992  97.4299978 108.0990014  54.8569992  96.9809978 108.9250014
  54.0749992  96.8459978 107.6360014  54.6187529  97.2896131 108.1493619
  40.2049992  98.2459978 112.6310014  40.6499992  97.4539978 112.9330014
  40.6709992  98.9619978 113.0620014  40.3289059  98.2344474 112.7306079
  38.5089992 101.2449978 113.7000014  39.0009992 101.0239978 112.9090014
  38.8709992 102.0849978 113.9810014  38.6252923 101.3283468 113.6297407
  56.5049992  97.5749978 119.9660014  55.5879992  97.8459978 119.9300014
  56.6279992  97.0399978 119.1820014  56.3960828  97.5397700 119.8550785
  38.8229992  97.5029978 107.7540014  37.8979992  97.7109978 107.6250014
  39.2769992  97.9869978 107.0650014  38.7576374  97.5969949 107.6430957
  53.5929992 112.4869978 109.7000014  54.2459992 112.1389978 109.0920014
  54.1039992 112.9749978 110.3460014  53.7512777 112.5053815 109.7042047
  38.7859992  96.2409978 116.0990014  38.1209992  95.9949978 116.7420014
  38.3429992  96.8629978 115.5210014  38.6350937  96.2913614 116.1089379
  40.9779992 109.4159978 120.2430014  40.1569992 109.5909978 119.7830014
  40.7259992 109.3429978 121.1640014  40.8316173 109.4300794 120.3044972
  43.9319992 110.3899978 116.5020014  43.5079992 111.1999978 116.2190014
  44.8369992 110.4759978 116.2000014  43.9962433 110.5123331 116.4225377
  48.2439992 111.7889978 119.4610014  48.4279992 111.4559978 120.3390014
  49.0899992 112.0989978 119.1390014  48.3836484 111.7852979 119.5377617
  50.5889992 113.0749978 118.7050014  51.2659992 112.4419978 118.4650014
  50.9099992 113.4759978 119.5120014  50.7251323 113.0425691 118.7813158
  55.5059992  95.6649978 117.7850014  54.6929992  95.9899978 117.3970014
  55.7389992  94.9039978 117.2520014  55.4262566  95.6066559 117.6599213
  41.3339992 113.6469978 116.5490014  40.6139992 114.0869978 116.0980014
  40.9689992 113.3959978 117.3980014  41.1859796 113.6733824 116.6019329
  43.8009992 113.2469978 115.5790014  42.9369992 113.3189978 115.9830014
  43.7459992 113.7939978 114.7950014  43.6751942 113.3307849 115.5284000
  48.5119992 113.1349978 114.7540014  48.0549992 113.6639978 114.1000014
  48.6749992 113.7379978 115.4800014  48.4714476 113.2889140 114.7625499
  50.8399992 112.0129978 115.6990014  49.9349992 112.1779978 115.4340014
  51.2679992 112.8659978 115.6340014  50.7740700 112.1509529 115.6539520
  53.4439992 113.5829978 115.9940014  53.2619992 114.4989978 115.7840014
  53.6209992 113.1719978 115.1480014  53.4429907 113.6529741 115.8507883
  40.7489992 112.2699978 113.4590014  40.7309992 111.8439978 114.3170014
  41.5539992 111.9509978 113.0510014  40.8553221 112.1687233 113.5210225
  42.8899992 110.9799978 112.1140014  42.6709992 110.0629978 112.2840014
  43.7139992 111.1199978 112.5800014  42.9714702 110.8735511 112.2002527
  45.4269992 111.4499978 112.9630014  45.6399992 110.5619978 112.6760014
  45.4919992 111.4149978 113.9180014  45.4649075 111.3238307 113.0527373
  48.9359992  97.1139978 112.1070014  48.2619992  96.4839978 112.3630014
  49.4999992  96.6299978 111.5040014  48.9200384  96.9623708 112.0605020
  54.0789992  95.2209978 112.2200014  54.6819992  95.7689978 111.7180014
  53.2089992  95.5399978 111.9800014  54.0439190  95.3391041 112.1188679
  55.8059992  96.3599978 110.5530014  56.4169992  95.8459978 110.0270014
  56.1879992  97.2369978 110.5770014  55.9414475  96.4081323 110.4841208
  41.2629992  95.7479978 109.9290014  40.4859992  95.5129978 109.4220014
  41.7929992  94.9509978 109.9380014  41.2283451  95.6081268 109.8608627
  40.0989992  95.5459978 105.7330014  40.5379992  96.1569978 105.1410014
  39.4649992  96.0839978 106.2070014  40.0733859  95.7024064 105.7160305
  45.8419992  95.6739978 109.7430014  46.7159992  96.0629978 109.7130014
  45.7059992  95.4589978 110.6650014  45.9433207  95.6981923 109.8636509
  51.3989992  95.7039978 111.3920014  51.4749992  95.7999978 110.4430014
  51.1239992  94.7969978 111.5210014  51.3722042  95.5944241 111.2793811
  52.7519992  95.7299978 107.0840014  52.0489992  96.3449978 106.8750014
  52.3069992  94.8929978 107.2160014  52.5956292  95.7010085 107.0732439
  39.9999992 111.4939978 106.6310014  39.3149992 111.4559978 105.9630014
  40.0039992 112.4069978 106.9190014  39.9068174 111.6121998 106.5785310
  46.9859992  97.7549978 106.6330014  47.1639992  97.1079978 107.3150014
  46.9319992  98.5889978 107.1000014  47.0031025  97.7790504 106.7896433
  48.8639992 112.7029978 105.0280014  49.7299992 113.0699978 104.8500014
  48.6179992 112.2639978 104.2140014  48.9492097 112.6938525 104.8936019
  55.5729992 112.2659978 107.7070014  55.3789992 111.5179978 107.1420014
  55.5339992 113.0239978 107.1240014  55.5411645 112.2660786 107.5508148
  41.2199992  96.2619978 119.4470014  40.8539992  95.4959978 119.8900014
  42.1329992  96.2909978 119.7340014  41.2933225  96.1611906 119.5463459
  43.1929992  95.6119978 120.9830014  44.0919992  95.3379978 120.7980014
  42.8069992  94.8699978 121.4470014  43.2637237  95.4741508 121.0204710
  41.8179992 112.4139978 103.6560014  41.5499992 112.6999978 104.5290014
  42.5889992 111.8679978 103.8080014  41.8855600 112.3793330 103.7961499
  51.6149992  94.9449978 121.1650014  51.6909992  94.5189978 122.0190014
  52.5079992  94.9579978 120.8220014  51.7462267  94.8883952 121.2355932
  54.7909992 111.0179978 119.8570014  54.0089992 110.8309978 119.3380014
  54.7189992 111.9469978 120.0750014  54.6740863 111.1180221 119.8153574
  69.1969992 104.9039978 109.8880014  69.2859992 105.8479978 109.7560014
  68.5589992 104.6289978 109.2300014  69.1229062 104.9959812 109.7809641
  68.1299992 104.1589978 113.3070014  68.0919992 103.5129978 114.0120014
  67.8079992 103.6919978 112.5360014  68.0812679 104.0074276 113.2992921
  60.4979992 103.7729978 114.9000014  60.5399992 103.1479978 115.6230014
  61.2009992 104.3969978 115.0820014  60.5987345 103.7717873 115.0235274
  71.8359992 107.0979978 111.6090014  71.3949992 106.3779978 112.0590014
  71.8229992 107.8189978 112.2380014  71.7737960 107.0968329 111.7557567
  61.4219992 108.2229978 113.4350014  61.0519992 107.4209978 113.0650014
  62.3629992 108.0549978 113.4810014  61.4985984 108.0904638 113.3905603
  58.0319992 101.8829978 108.8280014  57.5839992 102.7289978 108.8090014
  57.4709992 101.3039978 108.3120014  57.8949603 101.9203674 108.7556720
  58.7419992 104.0449978 110.9540014  58.9559992 103.2749978 111.4810014
  59.4799992 104.1349978 110.3500014  58.8709652 103.9518012 110.9445212
  68.9479992 112.2019978 111.8210014  69.5669992 111.5259978 111.5470014
  68.7389992 111.9839978 112.7290014  69.0046232 112.0797938 111.9062517
  66.5189992 106.5909978 113.7130014  66.8229992 105.9049978 113.1190014
  67.2409992 106.7099978 114.3310014  66.6581152 106.5132189 113.7152124
  75.1819992  98.1929978 114.5740014  75.2319992  98.8029978 115.3100014
  75.6079992  98.6539978 113.8510014  75.2464108  98.3387709 114.5770112
  69.6599992 100.9849978 114.0410014  69.8029992 100.0389978 114.0610014
  69.5539992 101.1919978 113.1120014  69.6652509 100.8834813 113.9182231
  62.8149992  99.0869978 111.3130014  62.8579992  99.9469978 110.8950014
  62.3569992  98.5349978 110.6790014  62.7589815  99.1300621 111.1701197
  70.5369992  99.2179978 109.7140014  71.1839992  98.8889978 110.3390014
  71.0469992  99.7349978 109.0910014  70.6944317  99.2429227 109.7152167
  59.4349992 101.4839978 112.0750014  60.0889992 100.9339978 112.5070014
  59.4589992 101.2099978 111.1580014  59.5277199 101.3717167 112.0101668
  64.5919992 103.0339978 111.2900014  65.2079992 102.5069978 111.8000014
  64.0049992 102.3939978 110.8870014  64.5969239 102.8754117 111.3052952
  75.5739992  99.6709978 116.8100014  74.8849992 100.3289978 116.7140014
  75.5889992  99.4729978 117.7460014  75.4816740  99.7343243 116.9234630
  61.6249992  98.0049978 115.3870014  61.4059992  98.5349978 114.6210014
  60.9569992  98.2309978 116.0340014  61.5047001  98.1081154 115.3696064
  68.9939992 107.5049978 108.9310014  68.6989992 107.1819978 108.0800014
  68.6699992 108.4049978 108.9720014  68.9097983 107.5824026 108.8199771
  64.1939992 105.6799978 115.6750014  63.4539992 106.2789978 115.7780014
  64.9079992 106.2339978 115.3590014  64.1893288 105.8367356 115.6463805
  72.3009992  98.5089978 111.6940014  72.0859992  97.7429978 112.2270014
  72.9569992  98.9809978 112.2070014  72.3602673  98.4680728 111.8361990
  61.2189992  99.8969978 113.3390014  61.8329992 100.5299978 113.7130014
  61.7309992  99.4249978 112.6830014  61.3722277  99.9197352 113.3014279
  62.6019992 107.6449978 116.4620014  62.5959992 108.5239978 116.0840014
  61.7479992 107.5609978 116.8870014  62.4857925 107.7539535 116.4676887
  58.7229992 107.3159978 107.2440014  58.4509992 107.5449978 106.3550014
  58.7679992 108.1529978 107.7040014  58.6918709 107.4606058 107.1846107
  72.3479992 108.9369978 113.9560014  71.4059992 108.9959978 114.1180014
  72.6239992 109.8429978 113.8190014  72.2565865 109.0675288 113.9596192
  72.6479992  97.2239978 115.3740014  71.9119992  97.8339978 115.3360014
  73.3319992  97.6389978 114.8470014  72.6395506  97.3636400 115.2976051
  65.6519992  95.3099978 112.8400014  65.5339992  94.3619978 112.7850014
  64.7969992  95.6429978 113.1130014  65.5202679  95.2251926 112.8693720
  70.5999992 110.7179978 110.5820014  71.0249992 110.0109978 110.0970014
  70.9169992 111.5199978 110.1650014  70.7010266 110.7295190 110.4592479
  71.7599992 108.6189978 109.0900014  71.5019992 107.9289978 108.4790014
  71.8309992 108.1759978 109.9360014  71.7342837 108.4647106 109.1206912
  73.4459992 107.1859978 117.5680014  73.5849992 106.5939978 116.8280014
  73.6129992 108.0589978 117.2110014  73.4875562 107.2229896 117.4186283
  67.9179992 104.1479978 107.3400014  67.2069992 104.6829978 106.9880014
  68.6089992 104.2029978 106.6800014  67.9140751 104.2286777 107.2025858
  75.2869992 103.5259978 115.6340014  74.6349992 104.2199978 115.7230014
  75.7529992 103.7359978 114.8240014  75.2605937 103.6495019 115.5367533
  71.3239992 104.3569978 108.2920014  70.5919992 104.5859978 108.8650014
  71.7709992 103.6439978 108.7470014  71.2842753 104.2918972 108.4319715
  71.2209992 102.5319978 117.3600014  71.3009992 103.2949978 117.9310014
  70.6199992 102.8109978 116.6690014  71.1507245 102.6742630 117.3448424
  62.9689992 104.9879978 110.1740014  62.6389992 104.6169978 109.3560014
  63.5579992 104.3169978 110.5210014  63.0033970 104.8466063 110.1089404
  64.3359992 108.4159978 112.8560014  64.2409992 107.8369978 112.0990014
  65.0649992 108.0449978 113.3520014  64.4216161 108.2865891 112.8195209
  63.3359992 103.7559978 113.8080014  63.9009992 103.8779978 113.0450014
  63.6549992 104.3939978 114.4470014  63.4563977 103.8588851 113.7899424
  69.6449992 109.2599978 114.5420014  69.4049992 109.9219978 115.1900014
  69.4469992 108.4249978 114.9670014  69.5853826 109.2378115 114.6881566
  64.2159992 108.1559978 118.5250014  63.9049992 108.9379978 118.9800014
  63.5659992 108.0029978 117.8390014  64.0855538 108.2424087 118.4945898
  70.1949992 103.5199978 105.9770014  70.7739992 103.6699978 106.7240014
  70.6089992 103.9899978 105.2540014  70.3303122 103.6041277 105.9815042
  61.1359992 104.3539978 117.7540014  61.2059992 105.0049978 118.4520014
  60.2449992 104.4569978 117.4190014  61.0251802 104.4569757 117.8042249
  67.9209992 110.2559978 109.4120014  68.3949992 110.5519978 110.1900014
  67.3579992 110.9949978 109.1790014  67.9097361 110.3962721 109.4868611
  62.4549992 110.2269978 119.2880014  62.4629992 110.0909978 118.3410014
  61.5389992 110.1099978 119.5400014  62.3322528 110.1925463 119.1923243
  61.9599992 104.0569978 107.7640014  61.6679992 104.8249978 107.2730014
  61.2849992 103.3979978 107.6010014  61.8288497 104.0729745 107.6748260
  58.0529992 106.4199978 116.5790014  57.5509992 106.3919978 115.7640014
  58.0579992 105.5149978 116.8880014  57.9850416 106.2937368 116.5093766
  57.8029992 109.2009978 113.4630014  58.7489992 109.0559978 113.4440014
  57.6899992 109.9849978 114.0000014  57.9173578 109.2871697 113.5330317
  76.0009992 109.8669978 119.1450014  75.9509992 108.9109978 119.1080014
  75.1739992 110.1339978 119.5460014  75.8823987 109.7725174 119.1941446
  66.9789992 109.4409978 118.0210014  67.0669992 110.2669978 118.4960014
  66.1159992 109.1109978 118.2700014  66.8743357 109.5095468 118.1197653
  67.3939992 113.2129978 107.8270014  67.3179992 113.0919978 106.8810014
  67.4259992 114.1619978 107.9460014  67.3879156 113.3247530 107.7135048
  61.0469992 112.0019978 109.6080014  61.1989992 111.6539978 110.4870014
  60.1959992 111.6449978 109.3530014  60.9527899 111.9061738 109.6937340
  70.1639992 112.2929978 107.5790014  69.2289992 112.3929978 107.7570014
  70.4439992 111.5829978 108.1570014  70.0738173 112.2107239 107.6814998
  73.1529992 101.3599978 119.6250014  72.7449992 101.8399978 118.9050014
  73.1929992 100.4539978 119.3170014  73.1025476 101.3033160 119.4848247
  60.3019992 107.7439978 117.6220014  60.5179992 107.3819978 118.4810014
  59.4459992 107.3689978 117.4120014  60.2159354 107.6437906 117.7112160
  62.9199992  96.2139978 113.6170014  62.0589992  96.1269978 113.2100014
  62.8979992  97.0699978 114.0450014  62.7990411  96.3177884 113.6190857
  67.5829992  95.9359978 116.9920014  68.0029992  95.5209978 117.7450014
  66.6499992  95.7569978 117.1090014  67.5143736  95.8549910 117.1108968
  70.9099992  99.6909978 117.8450014  70.3959992  99.5659978 118.6430014
  70.7539992 100.6039978 117.6010014  70.8186967  99.7972123 117.9210937
  63.0109992 101.1789978 114.7120014  62.3699992 101.1389978 115.4210014
  63.0489992 102.1059978 114.4750014  62.9283670 101.2987795 114.7770550
  63.0079992 101.3999978 109.6240014  62.1159992 101.0599978 109.5660014
  63.4589992 101.0229978 108.8690014  62.9466815 101.3023762 109.5139203
  68.5439992 101.8159978 108.4410014  68.1349992 102.6309978 108.1500014
  69.2639992 101.6759978 107.8270014  68.5854013 101.9086571 108.3180875
  67.6459992 101.9919978 119.9290014  67.0829992 101.2869978 120.2500014
  68.4719992 101.8709978 120.3970014  67.6806674 101.8792165 120.0361751
  69.5489992 101.2619978 111.2550014  69.3529992 101.8679978 110.5400014
  69.7299992 100.4289978 110.8210014  69.5466584 101.2322513 111.0984212
  60.7609992 101.4999978 116.5790014  60.7229992 101.8999978 117.4480014
  60.2709992 100.6829978 116.6700014  60.6895621 101.4442510 116.7101377
  57.3699992  98.6159978 110.4300014  57.9999992  98.5869978 111.1490014
  57.8189992  98.1909978 109.7000014  57.5170692  98.5545316 110.4297771
  68.8129992 102.8999978 115.9270014  69.1359992 102.2689978 115.2840014
  68.3719992 102.3659978 116.5870014  68.7975789 102.7413522 115.9282232
  65.5899992  98.8279978 110.7110014  64.6789992  98.8849978 110.9990014
  66.0949992  98.7679978 111.5210014  65.5335387  98.8276870 110.8600646
  60.4179992 100.4569978 109.5370014  59.5289992 100.5559978 109.1970014
  60.7149992  99.6149978 109.1910014  60.3364177 100.3567687 109.4436940
  64.0709992 100.4569978 107.1940014  65.0029992 100.5859978 107.3720014
  63.8559992 101.1259978 106.5440014  64.1694472 100.5650806 107.1304891
  69.9949992  98.0629978 113.9750014  69.3179992  98.1939978 114.6390014
  69.5099992  97.9079978 113.1650014  69.8367265  98.0599659 113.9563397
  73.2829992 113.7339978 120.2520014  73.4819992 114.1579978 119.4170014
  73.9379992 114.0779978 120.8590014  73.3988501 113.8386091 120.2197097
  60.8809992 106.2079978 119.8600014  61.6129992 106.4629978 120.4210014
  60.0999992 106.4129978 120.3750014  60.8757684 106.2706468 120.0064782
  66.9099992 101.6149978 112.5980014  67.4739992 101.0689978 112.0510014
  66.7619992 101.0939978 113.3860014  66.9672575 101.4696552 112.6296987
  61.9119992  97.7519978 109.0160014  61.5949992  96.8489978 108.9810014
  62.6929992  97.7539978 108.4630014  61.9742307  97.6286951 108.9364314
  65.5359992 100.0039978 115.0120014  64.7009992 100.4579978 115.1220014
  66.0599992 100.2799978 115.7640014  65.4925070 100.1034666 115.1287152
  66.0809992 106.2169978 106.6960014  65.3359992 105.7089978 106.3740014
  65.9459992 106.2659978 107.6430014  65.9609047 106.1541596 106.7798845
  73.2309992 105.3499978 115.4830014  73.8719992 105.8059978 114.9390014
  72.3999992 105.4629978 115.0210014  73.2065171 105.4277502 115.3460237
  69.9779992  99.0309978 104.8960014  69.0399992  99.1419978 104.7440014
  70.2759992  99.8869978 105.2020014  69.8896402  99.1620621 104.9165571
  67.5999992 106.4009978 117.9330014  67.2539992 106.0189978 118.7400014
  67.3999992 107.3339978 118.0050014  67.5256523 106.4749095 118.0530735
  70.6969992 100.8979978 106.5560014  71.5889992 100.7599978 106.8750014
  70.7529992 101.6889978 106.0200014  70.8267107 100.9860526 106.5272091
  61.2049992 105.5119978 112.4660014  61.9499992 105.5089978 111.8650014
  61.2829992 104.6879978 112.9480014  61.3174159 105.4002916 112.4489153
  68.2059992 107.6749978 105.7220014  67.9109992 108.5019978 106.1030014
  67.5029992 107.0559978 105.9180014  68.0705471 107.7045227 105.8006698
  58.2129992 103.9719978 117.7810014  58.4359992 103.5539978 118.6130014
  57.6109992 103.3599978 117.3580014  58.1621260 103.8319933 117.8377320
  65.2299992 103.4889978 119.9940014  64.9339992 103.3239978 119.0990014
  66.1609992 103.2689978 119.9830014  65.3153982 103.4366578 119.8700045
  69.8499992 108.8629978 117.8840014  68.9499992 109.0459978 117.6160014
  69.8839992 109.1219978 118.8050014  69.7312909 108.9230815 117.9717852
  75.5819992 101.1069978 106.2510014  75.0269992 100.7109978 105.5790014
  75.6819992 102.0179978 105.9730014  75.5195888 101.1758990 106.1215206
  75.5449992 106.9079978 119.0880014  74.6939992 107.1459978 118.7210014
  76.1349992 106.8909978 118.3350014  75.5082408 106.9382966 118.9358879
  73.8769992 109.8929978 106.7160014  73.5039992 109.0679978 107.0250014
  74.1539992 109.7099978 105.8190014  73.8633871 109.7552441 106.6369677
  71.0369992 104.7009978 113.7370014  70.1089992 104.4699978 113.7100014
  71.4879992 103.9239978 113.4070014  70.9708165 104.5642774 113.6886790
  63.5799992 109.0299978 109.8700014  64.1079992 109.8029978 109.6700014
  62.6999992 109.2539978 109.5690014  63.5333176 109.1663161 109.8018409
  59.3349992 103.8919978 104.4580014  59.9509992 104.5189978 104.8370014
  58.4729992 104.2079978 104.7290014  59.3028195 104.0205798 104.5465386
  65.0079992 106.6929978 109.4470014  64.7669992 107.6179978 109.4880014
  64.2669992 106.2339978 109.8430014  64.8748390 106.7576403 109.5061404
  65.5219992 110.8419978 115.7620014  65.8849992 111.6959978 115.5280014
  66.0539992 110.5499978 116.5020014  65.6436090 110.9194058 115.8300219
  63.6909992 111.7139978 108.9920014  62.7409992 111.8199978 109.0430014
  64.0429992 112.5349978 109.3370014  63.6085480 111.8394438 109.0455999
  69.0659992 106.9409978 115.4620014  68.6409992 106.7129978 116.2890014
  69.6469992 106.2019978 115.2800014  69.0863930 106.8099843 115.5504731
  71.7249992 111.4929978 117.9320014  71.1229992 110.9369978 117.4360014
  72.0059992 112.1599978 117.3060014  71.6806829 111.5071613 117.7795443
  59.8469992  98.7259978 117.3390014  58.9549992  99.0639978 117.2720014
  59.7489992  97.8699978 117.7570014  59.7114965  98.6566499 117.3863044
  72.1349992 106.5419978 106.7630014  71.8579992 105.8139978 107.3190014
  73.0629992 106.6609978 106.9680014  72.2224499 106.4584213 106.8668044
  59.4989992 110.5299978 115.7740014  59.7159992 109.5979978 115.7430014
  59.7449992 110.8049978 116.6570014  59.5619809 110.4395686 115.8891690
  68.5819992  98.4669978 116.2290014  69.2809992  98.5409978 116.8790014
  68.2009992  97.6019978 116.3830014  68.6262097  98.3602389 116.3387997
  69.3659992  98.1189978 107.3260014  69.5859992  98.5899978 106.5230014
  69.9249992  98.5129978 107.9960014  69.4716730  98.2367432 107.3065906
  67.0349992 110.2489978 106.1890014  66.2179992 110.7459978 106.2410014
  67.5639992 110.7249978 105.5490014  66.9948508 110.3812543 106.1096035
  66.5659992  99.8469978 108.1610014  67.3779992 100.3509978 108.2070014
  66.3219992  99.7019978 109.0750014  66.6441467  99.8963749 108.2908575
  67.1019992 100.8329978 117.3460014  67.2209992 101.4069978 118.1030014
  67.7569992 100.1449978 117.4600014  67.2069146 100.8185574 117.4651314
  67.4499992  96.9279978 109.0990014  67.1029992  97.5449978 109.7440014
  68.1089992  97.4289978 108.6180014  67.4915949  97.0801099 109.1222271
  64.3729992 111.2929978 106.1710014  64.5339992 112.0929978 105.6700014
  64.1759992 111.5999978 107.0560014  64.3683919 111.4439129 106.2221006
  63.1079992  97.9909978 105.7860014  63.0239992  98.8789978 106.1330014
  63.9979992  97.7259978 106.0180014  63.2168163  98.0767179 105.8648596
  73.3059992  98.7399978 118.1810014  72.3899992  99.0019978 118.0930014
  73.6419992  98.7369978 117.2840014  73.2259789  98.7754626 118.0477847
  71.9089992 102.4899978 112.2760014  71.1109992 102.0749978 111.9480014
  72.3539992 101.7999978 112.7670014  71.8599684 102.3398628 112.2975227
  72.9949992 111.7459978 113.8990014  72.8389992 112.4249978 113.2420014
  73.9279992 111.8179978 114.1020014  73.0997387 111.8486390 113.8365342
  60.4899992  95.8639978 112.6360014  60.2609992  95.9229978 111.7080014
  60.0479992  95.0729978 112.9420014  60.3988801  95.7650540 112.5504729
  59.4209992 109.8049978 108.7960014  58.5879992 110.2769978 108.8240014
  59.9659992 110.3149978 108.1980014  59.3807590 109.9385897 108.7189194
  58.7089992 112.4169978 120.1260014  59.2489992 112.2009978 120.8860014
  58.2279992 111.6119978 119.9370014  58.7178613 112.2785400 120.2044782
  63.3059992 111.3369978 121.7470014  64.0739992 110.8779978 122.0880014
  63.2849992 111.1109978 120.8170014  63.4082135 111.2436668 121.6679491
  67.3979992 110.8449978 103.1220014  66.7539992 110.2139978 103.4430014
  68.1599992 110.3139978 102.8900014  67.4128058 110.6867902 103.1346038
  69.8829992 109.7169978 120.4760014  69.5319992 108.8599978 120.7190014
  70.6089992 109.8589978 121.0830014  69.9331590 109.6190178 120.5912907
  58.6159992 106.2279978 121.0810014  58.7599992 105.3259978 120.7940014
  57.8439992 106.5139978 120.5930014  58.5313303 106.1433243 120.9757908
  65.2709992 106.1969978 120.5130014  64.9429992 106.4679978 119.6560014
  65.4229992 105.2559978 120.4260014  65.2466030 106.1068973 120.3837945
  68.3099992 107.6179978 102.9490014  68.0409992 107.7989978 103.8500014
  68.1029992 106.6929978 102.8180014  68.2452000 107.5176774 103.0545693
  71.0059992 106.1129978 117.8970014  71.7509992 106.7019978 117.7770014
  70.2489992 106.6949978 117.9600014  71.0055205 106.2721997 117.8891119
  59.4489992 103.4279978 120.5010014  59.8569992 102.5709978 120.3800014
  59.1879992 103.4419978 121.4220014  59.4696016 103.3125119 120.6089192
  63.3959992 102.4369978 117.8750014  62.7769992 103.1109978 118.1550014
  63.7399992 102.7579978 117.0420014  63.3577605 102.5727198 117.8006707
  68.4149992 104.9079978 121.1520014  69.3689992 104.9919978 121.1250014
  68.2549992 104.1959978 121.7720014  68.5237182 104.8232842 121.2320733
  63.7349992  99.7919978 118.9570014  63.8849992  99.0629978 118.3550014
  63.7369992 100.5689978 118.3980014  63.7557967  99.7972708 118.7990541
  64.1479992  98.1609978 116.4500014  64.6829992  98.6129978 115.7980014
  63.2949992  98.0529978 116.0270014  64.1060374  98.2082665 116.3036710
  65.7289992 103.6009978 116.6890014  66.4799992 103.4449978 116.1160014
  65.3899992 104.4529978 116.4140014  65.7859587 103.6948138 116.5734078
  70.1449992 101.4159978 121.7180014  70.3369992 100.4849978 121.6060014
  71.0029992 101.8409978 121.7080014  70.2872269 101.3459928 121.7013192
  71.4619992 104.2049978 119.7950014  71.1799992 104.9139978 119.2180014
  72.4039992 104.1319978 119.6440014  71.5507656 104.2923128 119.6954809
  62.2139992 100.9899978 120.8690014  61.4459992 100.4569978 120.6590014
  62.8919992 100.6799978 120.2690014  62.2006973 100.8752375 120.7591796
  64.9529992  95.6179978 116.8810014  64.8549992  96.5639978 116.7760014
  64.2109992  95.2449978 116.4060014  64.8391913  95.6971813 116.8023539
  66.2169992  99.9389978 120.4450014  65.9819992  99.7199978 121.3470014
  65.4339992  99.7319978 119.9350014  66.0789219  99.8810066 120.4995852
  68.9329992  99.0669978 119.5210014  67.9849992  99.0989978 119.6530014
  69.2449992  98.4409978 120.1740014  68.8455190  98.9867262 119.6273564
  70.5669992  97.7009978 121.5260014  70.4699992  96.7489978 121.5200014
  70.2449992  97.9689978 122.3860014  70.5101761  97.6069744 121.6414936
  60.3939992  98.9099978 120.5730014  60.6059992  98.2039978 119.9630014
  60.2829992  98.4729978 121.4170014  60.4080269  98.7541921 120.6035873
  65.1749992  94.9119978 119.5530014  65.8869992  94.2719978 119.5390014
  65.0739992  95.1779978 118.6390014  65.2587261  94.8604190 119.4275537
  65.5289992  96.5939978 121.6060014  65.3969992  96.1189978 120.7860014
  64.9289992  97.3389978 121.5510014  65.4299070  96.6295789 121.4863251
  65.0749992 113.4769978 104.7830014  66.0079992 113.6349978 104.9260014
  64.8109992 114.1529978 104.1580014  65.1669308 113.5899104 104.7181396
  57.2919992 113.5069978 109.3430014  56.6449992 113.0449978 108.8100014
  57.6469992 112.8349978 109.9250014  57.2514506 113.3529503 109.3487341
  58.1619992 111.5869978 111.1470014  57.8279992 110.7069978 111.3190014
  58.3849992 111.9329978 112.0120014  58.1463721 111.5131938 111.2874168
  75.7109992 112.3969978 114.1280014  75.6889992 112.5819978 115.0670014
  76.4009992 112.9649978 113.7870014  75.8013439 112.4991887 114.2104791
  75.2739992 111.9639978 117.0500014  74.7869992 111.2289978 116.6790014
  75.8229992 111.5699978 117.7280014  75.2815247 111.8101057 117.0908461
  73.7249992 107.7539978 121.6880014  72.8589992 107.6489978 122.0820014
  74.1009992 108.5119978 122.1340014  73.6573401 107.8421708 121.8022620
  75.0259992 106.0099978 107.2020014  75.8759992 106.4309978 107.3290014
  75.0309992 105.2699978 107.8090014  75.1431143 105.9676094 107.3014750
  75.4199992 104.0639978 109.0260014  74.6939992 103.5839978 109.4230014
  76.0019992 104.2689978 109.7580014  75.3991635 104.0259166 109.1793748
  75.1789992 106.8489978 113.9730014  76.0129992 106.4709978 113.6930014
  75.2909992 107.7919978 113.8540014  75.3082522 106.9247742 113.9186020
  73.6659992 109.7269978 116.2800014  73.0179992 110.0519978 116.9060014
  73.1479992 109.2859978 115.6060014  73.5074168 109.7118523 116.2745307
  74.0379992 101.2039978 103.9680014  74.1339992 101.8709978 103.2880014
  73.8979992 100.3889978 103.4860014  74.0322063 101.1850667 103.8098377
  73.2069992 102.5849978 109.5890014  73.0569992 101.6399978 109.5680014
  72.8529992 102.8659978 110.4320014  73.1385527 102.4935605 109.7001859
  58.2419992 104.6629978 113.5990014  58.4269992 104.5809978 112.6630014
  59.0919992 104.5389978 114.0230014  58.3820916 104.6350393 113.5282896
  74.0629992 104.5549978 119.2270014  74.6459992 103.8199978 119.4190014
  74.6269992 105.3269978 119.2740014  74.2189781 104.5588145 119.2596164
  75.5599992 102.4579978 119.9120014  74.6969992 102.0789978 119.7460014
  76.1639992 101.7189978 119.8380014  75.5235944 102.3062978 119.8792984
  72.9179992 100.1669978 108.0510014  73.1969992  99.2599978 108.1750014
  73.6769992 100.6009978 107.6620014  73.0588619 100.1014502 108.0153795
  73.5289992 100.7489978 113.4870014  74.4619992 100.9609978 113.4530014
  73.2939992 100.8499978 114.4090014  73.6248308 100.7916503 113.6070214
  73.5589992 101.4859978 116.2630014  72.7159992 101.7539978 116.6290014
  74.0009992 102.3079978 116.0520014  73.5034138 101.6338273 116.2845518
  57.8399992  99.9329978 119.7400014  58.7589992  99.8109978 119.9760014
  57.3899992  99.1829978 120.1290014  57.9051148  99.8148751 119.8249408
  75.8419992  95.4659978 121.6160014  76.1909992  94.8119978 121.0110014
  75.9889992  96.3029978 121.1770014  75.9097355  95.4896067 121.4736564
  73.5309992  97.4299978 108.0990014  73.7129992  96.9809978 108.9250014
  72.9309992  96.8459978 107.6360014  73.4747529  97.2896131 108.1493619
  59.0609992  98.2459978 112.6310014  59.5059992  97.4539978 112.9330014
  59.5269992  98.9619978 113.0620014  59.1849059  98.2344474 112.7306079
  57.3649992 101.2449978 113.7000014  57.8569992 101.0239978 112.9090014
  57.7269992 102.0849978 113.9810014  57.4812923 101.3283468 113.6297407
  75.3609992  97.5749978 119.9660014  74.4439992  97.8459978 119.9300014
  75.4839992  97.0399978 119.1820014  75.2520828  97.5397700 119.8550785
  57.6789992  97.5029978 107.7540014  56.7539992  97.7109978 107.6250014
  58.1329992  97.9869978 107.0650014  57.6136374  97.5969949 107.6430957
  72.4489992 112.4869978 109.7000014  73.1019992 112.1389978 109.0920014
  72.9599992 112.9749978 110.3460014  72.6072777 112.5053815 109.7042047
  57.6419992  96.2409978 116.0990014  56.9769992  95.9949978 116.7420014
  57.1989992  96.8629978 115.5210014  57.4910937  96.2913614 116.1089379
  59.8339992 109.4159978 120.2430014  59.0129992 109.5909978 119.7830014
  59.5819992 109.3429978 121.1640014  59.6876173 109.4300794 120.3044972
  62.7879992 110.3899978 116.5020014  62.3639992 111.1999978 116.2190014
  63.6929992 110.4759978 116.2000014  62.8522433 110.5123331 116.4225377
  67.0999992 111.7889978 119.4610014  67.2839992 111.4559978 120.3390014
  67.9459992 112.0989978 119.1390014  67.2396484 111.7852979 119.5377617
  69.4449992 113.0749978 118.7050014  70.1219992 112.4419978 118.4650014
  69.7659992 113.4759978 119.5120014  69.5811323 113.0425691 118.7813158
  74.3619992  95.6649978 117.7850014  73.5489992  95.9899978 117.3970014
  74.5949992  94.9039978 117.2520014  74.2822566  95.6066559 117.6599213
  60.1899992 113.6469978 116.5490014  59.4699992 114.0869978 116.0980014
  59.8249992 113.3959978 117.3980014  60.0419796 113.6733824 116.6019329
  62.6569992 113.2469978 115.5790014  61.7929992 113.3189978 115.9830014
  62.6019992 113.7939978 114.7950014  62.5311942 113.3307849 115.5284000
  67.3679992 113.1349978 114.7540014  66.9109992 113.6639978 114.1000014
  67.5309992 113.7379978 115.4800014  67.3274476 113.2889140 114.7625499
  69.6959992 112.0129978 115.6990014  68.7909992 112.1779978 115.4340014
  70.1239992 112.8659978 115.6340014  69.6300700 112.1509529 115.6539520
  72.2999992 113.5829978 115.9940014  72.1179992 114.4989978 115.7840014
  72.4769992 113.1719978 115.1480014  72.2989907 113.6529741 115.8507883
  59.6049992 112.2699978 113.4590014  59.5869992 111.8439978 114.3170014
  60.4099992 111.9509978 113.0510014  59.7113221 112.1687233 113.5210225
  61.7459992 110.9799978 112.1140014  61.5269992 110.0629978 112.2840014
  62.5699992 111.1199978 112.5800014  61.8274702 110.8735511 112.2002527
  64.2829992 111.4499978 112.9630014  64.4959992 110.5619978 112.6760014
  64.3479992 111.4149978 113.9180014  64.3209075 111.3238307 113.0527373
  67.7919992  97.1139978 112.1070014  67.1179992  96.4839978 112.3630014
  68.3559992  96.6299978 111.5040014  67.7760384  96.9623708 112.0605020
  72.9349992  95.2209978 112.2200014  73.5379992  95.7689978 111.7180014
  72.0649992  95.5399978 111.9800014  72.8999190  95.3391041 112.1188679
  74.6619992  96.3599978 110.5530014  75.2729992  95.8459978 110.0270014
  75.0439992  97.2369978 110.5770014  74.7974475  96.4081323 110.4841208
  60.1189992  95.7479978 109.9290014  59.3419992  95.5129978 109.4220014
  60.6489992  94.9509978 109.9380014  60.0843451  95.6081268 109.8608627
  58.9549992  95.5459978 105.7330014  59.3939992  96.1569978 105.1410014
  58.3209992  96.0839978 106.2070014  58.9293859  95.7024064 105.7160305
  64.6979992  95.6739978 109.7430014  65.5719992  96.0629978 109.7130014
  64.5619992  95.4589978 110.6650014  64.7993207  95.6981923 109.8636509
  70.2549992  95.7039978 111.3920014  70.3309992  95.7999978 110.4430014
  69.9799992  94.7969978 111.5210014  70.2282042  95.5944241 111.2793811
  71.6079992  95.7299978 107.0840014  70.9049992  96.3449978 106.8750014
  71.1629992  94.8929978 107.2160014  71.4516292  95.7010085 107.0732439
  58.8559992 111.4939978 106.6310014  58.1709992 111.4559978 105.9630014
  58.8599992 112.4069978 106.9190014  58.7628174 111.6121998 106.5785310
  65.8419992  97.7549978 106.6330014  66.0199992  97.1079978 107.3150014
  65.7879992  98.5889978 107.1000014  65.8591025  97.7790504 106.7896433
  74.4289992 112.2659978 107.7070014  74.2349992 111.5179978 107.1420014
  74.3899992 113.0239978 107.1240014  74.3971645 112.2660786 107.5508148
  60.0759992  96.2619978 119.4470014  59.7099992  95.4959978 119.8900014
  60.9889992  96.2909978 119.7340014  60.1493225  96.1611906 119.5463459
  62.0489992  95.6119978 120.9830014  62.9479992  95.3379978 120.7980014
  61.6629992  94.8699978 121.4470014  62.1197237  95.4741508 121.0204710
  60.6739992 112.4139978 103.6560014  60.4059992 112.6999978 104.5290014
  61.4449992 111.8679978 103.8080014  60.7415600 112.3793330 103.7961499
  70.4709992  94.9449978 121.1650014  70.5469992  94.5189978 122.0190014
  71.3639992  94.9579978 120.8220014  70.6022267  94.8883952 121.2355932
  73.6469992 111.0179978 119.8570014  72.8649992 110.8309978 119.3380014
  73.5749992 111.9469978 120.0750014  73.5300863 111.1180221 119.8153574
  88.0529992 104.9039978 109.8880014  88.1419992 105.8479978 109.7560014
  87.4149992 104.6289978 109.2300014  87.9789062 104.9959812 109.7809641
  86.9859992 104.1589978 113.3070014  86.9479992 103.5129978 114.0120014
  86.6639992 103.6919978 112.5360014  86.9372679 104.0074276 113.2992921
  79.3539992 103.7729978 114.9000014  79.3959992 103.1479978 115.6230014
  80.0569992 104.3969978 115.0820014  79.4547345 103.7717873 115.0235274
  90.6919992 107.0979978 111.6090014  90.2509992 106.3779978 112.0590014
  90.6789992 107.8189978 112.2380014  90.6297960 107.0968329 111.7557567
  80.2779992 108.2229978 113.4350014  79.9079992 107.4209978 113.0650014
  81.2189992 108.0549978 113.4810014  80.3545984 108.0904638 113.3905603
  76.8879992 101.8829978 108.8280014  76.4399992 102.7289978 108.8090014
  76.3269992 101.3039978 108.3120014  76.7509603 101.9203674 108.7556720
  77.5979992 104.0449978 110.9540014  77.8119992 103.2749978 111.4810014
  78.3359992 104.1349978 110.3500014  77.7269652 103.9518012 110.9445212
  87.8039992 112.2019978 111.8210014  88.4229992 111.5259978 111.5470014
  87.5949992 111.9839978 112.7290014  87.8606232 112.0797938 111.9062517
  85.3749992 106.5909978 113.7130014  85.6789992 105.9049978 113.1190014
  86.0969992 106.7099978 114.3310014  85.5141152 106.5132189 113.7152123
  94.0379992  98.1929978 114.5740014  94.0879992  98.8029978 115.3100014
  94.4639992  98.6539978 113.8510014  94.1024108  98.3387709 114.5770112
  88.5159992 100.9849978 114.0410014  88.6589992 100.0389978 114.0610014
  88.4099992 101.1919978 113.1120014  88.5212509 100.8834813 113.9182231
  81.6709992  99.0869978 111.3130014  81.7139992  99.9469978 110.8950014
  81.2129992  98.5349978 110.6790014  81.6149815  99.1300621 111.1701197
  89.3929992  99.2179978 109.7140014  90.0399992  98.8889978 110.3390014
  89.9029992  99.7349978 109.0910014  89.5504317  99.2429227 109.7152167
  78.2909992 101.4839978 112.0750014  78.9449992 100.9339978 112.5070014
  78.3149992 101.2099978 111.1580014  78.3837199 101.3717167 112.0101668
  83.4479992 103.0339978 111.2900014  84.0639992 102.5069978 111.8000014
  82.8609992 102.3939978 110.8870014  83.4529239 102.8754117 111.3052952
  94.4299992  99.6709978 116.8100014  93.7409992 100.3289978 116.7140014
  94.4449992  99.4729978 117.7460014  94.3376740  99.7343242 116.9234630
  80.4809992  98.0049978 115.3870014  80.2619992  98.5349978 114.6210014
  79.8129992  98.2309978 116.0340014  80.3607001  98.1081154 115.3696064
  87.8499992 107.5049978 108.9310014  87.5549992 107.1819978 108.0800014
  87.5259992 108.4049978 108.9720014  87.7657983 107.5824026 108.8199771
  83.0499992 105.6799978 115.6750014  82.3099992 106.2789978 115.7780014
  83.7639992 106.2339978 115.3590014  83.0453288 105.8367356 115.6463805
  91.1569992  98.5089978 111.6940014  90.9419992  97.7429978 112.2270014
  91.8129992  98.9809978 112.2070014  91.2162673  98.4680728 111.8361990
  80.0749992  99.8969978 113.3390014  80.6889992 100.5299978 113.7130014
  80.5869992  99.4249978 112.6830014  80.2282277  99.9197352 113.3014279
  81.4579992 107.6449978 116.4620014  81.4519992 108.5239978 116.0840014
  80.6039992 107.5609978 116.8870014  81.3417925 107.7539535 116.4676887
  77.5789992 107.3159978 107.2440014  77.3069992 107.5449978 106.3550014
  77.6239992 108.1529978 107.7040014  77.5478709 107.4606058 107.1846107
  91.2039992 108.9369978 113.9560014  90.2619992 108.9959978 114.1180014
  91.4799992 109.8429978 113.8190014  91.1125865 109.0675288 113.9596192
  91.5039992  97.2239978 115.3740014  90.7679992  97.8339978 115.3360014
  92.1879992  97.6389978 114.8470014  91.4955506  97.3636400 115.2976051
  84.5079992  95.3099978 112.8400014  84.3899992  94.3619978 112.7850014
  83.6529992  95.6429978 113.1130014  84.3762679  95.2251926 112.8693720
  89.4559992 110.7179978 110.5820014  89.8809992 110.0109978 110.0970014
  89.7729992 111.5199978 110.1650014  89.5570266 110.7295190 110.4592479
  90.6159992 108.6189978 109.0900014  90.3579992 107.9289978 108.4790014
  90.6869992 108.1759978 109.9360014  90.5902837 108.4647106 109.1206912
  92.3019992 107.1859978 117.5680014  92.4409992 106.5939978 116.8280014
  92.4689992 108.0589978 117.2110014  92.3435562 107.2229896 117.4186283
  86.7739992 104.1479978 107.3400014  86.0629992 104.6829978 106.9880014
  87.4649992 104.2029978 106.6800014  86.7700751 104.2286777 107.2025858
  94.1429992 103.5259978 115.6340014  93.4909992 104.2199978 115.7230014
  94.6089992 103.7359978 114.8240014  94.1165937 103.6495019 115.5367533
  90.1799992 104.3569978 108.2920014  89.4479992 104.5859978 108.8650014
  90.6269992 103.6439978 108.7470014  90.1402753 104.2918972 108.4319715
  90.0769992 102.5319978 117.3600014  90.1569992 103.2949978 117.9310014
  89.4759992 102.8109978 116.6690014  90.0067245 102.6742630 117.3448424
  81.8249992 104.9879978 110.1740014  81.4949992 104.6169978 109.3560014
  82.4139992 104.3169978 110.5210014  81.8593970 104.8466063 110.1089404
  83.1919992 108.4159978 112.8560014  83.0969992 107.8369978 112.0990014
  83.9209992 108.0449978 113.3520014  83.2776161 108.2865891 112.8195209
  82.1919992 103.7559978 113.8080014  82.7569992 103.8779978 113.0450014
  82.5109992 104.3939978 114.4470014  82.3123977 103.8588851 113.7899424
  88.5009992 109.2599978 114.5420014  88.2609992 109.9219978 115.1900014
  88.3029992 108.4249978 114.9670014  88.4413826 109.2378115 114.6881566
  83.0719992 108.1559978 118.5250014  82.7609992 108.9379978 118.9800014
  82.4219992 108.0029978 117.8390014  82.9415538 108.2424087 118.4945898
  79.9919992 104.3539978 117.7540014  80.0619992 105.0049978 118.4520014
  79.1009992 104.4569978 117.4190014  79.8811802 104.4569757 117.8042249
  86.7769992 110.2559978 109.4120014  87.2509992 110.5519978 110.1900014
  86.2139992 110.9949978 109.1790014  86.7657361 110.3962721 109.4868611
  81.3109992 110.2269978 119.2880014  81.3189992 110.0909978 118.3410014
  80.3949992 110.1099978 119.5400014  81.1882528 110.1925463 119.1923243
  92.7499992  95.2699978 105.7900014  91.8499992  95.4089978 106.0850014
  93.0019992  96.1009978 105.3880014  92.6608683  95.4014055 105.7760232
  80.8159992 104.0569978 107.7640014  80.5239992 104.8249978 107.2730014
  80.1409992 103.3979978 107.6010014  80.6848497 104.0729745 107.6748260
  76.9089992 106.4199978 116.5790014  76.4069992 106.3919978 115.7640014
  76.9139992 105.5149978 116.8880014  76.8410416 106.2937368 116.5093766
  76.6589992 109.2009978 113.4630014  77.6049992 109.0559978 113.4440014
  76.5459992 109.9849978 114.0000014  76.7733578 109.2871697 113.5330317
  94.8569992 109.8669978 119.1450014  94.8069992 108.9109978 119.1080014
  94.0299992 110.1339978 119.5460014  94.7383987 109.7725174 119.1941446
  85.8349992 109.4409978 118.0210014  85.9229992 110.2669978 118.4960014
  84.9719992 109.1109978 118.2700014  85.7303357 109.5095468 118.1197653
  86.2499992 113.2129978 107.8270014  86.1739992 113.0919978 106.8810014
  86.2819992 114.1619978 107.9460014  86.2439156 113.3247530 107.7135048
  79.9029992 112.0019978 109.6080014  80.0549992 111.6539978 110.4870014
  79.0519992 111.6449978 109.3530014  79.8087899 111.9061738 109.6937340
  89.3509992 112.3669978 104.8290014  89.7259992 111.6229978 104.3590014
  89.3559992 112.0969978 105.7480014  89.4030024 112.2286950 104.8887987
  89.0199992 112.2929978 107.5790014  88.0849992 112.3929978 107.7570014
  89.2999992 111.5829978 108.1570014  88.9298173 112.2107239 107.6814998
  92.0089992 101.3599978 119.6250014  91.6009992 101.8399978 118.9050014
  92.0489992 100.4539978 119.3170014  91.9585476 101.3033160 119.4848247
  79.1579992 107.7439978 117.6220014  79.3739992 107.3819978 118.4810014
  78.3019992 107.3689978 117.4120014  79.0719354 107.6437906 117.7112160
  81.7759992  96.2139978 113.6170014  80.9149992  96.1269978 113.2100014
  81.7539992  97.0699978 114.0450014  81.6550411  96.3177884 113.6190857
  86.4389992  95.9359978 116.9920014  86.8589992  95.5209978 117.7450014
  85.5059992  95.7569978 117.1090014  86.3703736  95.8549910 117.1108968
  89.7659992  99.6909978 117.8450014  89.2519992  99.5659978 118.6430014
  89.6099992 100.6039978 117.6010014  89.6746967  99.7972123 117.9210937
  81.8669992 101.1789978 114.7120014  81.2259992 101.1389978 115.4210014
  81.9049992 102.1059978 114.4750014  81.7843670 101.2987795 114.7770550
  81.8639992 101.3999978 109.6240014  80.9719992 101.0599978 109.5660014
  82.3149992 101.0229978 108.8690014  81.8026815 101.3023762 109.5139203
  87.3999992 101.8159978 108.4410014  86.9909992 102.6309978 108.1500014
  88.1199992 101.6759978 107.8270014  87.4414013 101.9086571 108.3180875
  86.5019992 101.9919978 119.9290014  85.9389992 101.2869978 120.2500014
  87.3279992 101.8709978 120.3970014  86.5366674 101.8792165 120.0361751
  88.4049992 101.2619978 111.2550014  88.2089992 101.8679978 110.5400014
  88.5859992 100.4289978 110.8210014  88.4026584 101.2322513 111.0984212
  79.6169992 101.4999978 116.5790014  79.5789992 101.8999978 117.4480014
  79.1269992 100.6829978 116.6700014  79.5455621 101.4442510 116.7101377
  76.2259992  98.6159978 110.4300014  76.8559992  98.5869978 111.1490014
  76.6749992  98.1909978 109.7000014  76.3730692  98.5545316 110.4297771
  87.6689992 102.8999978 115.9270014  87.9919992 102.2689978 115.2840014
  87.2279992 102.3659978 116.5870014  87.6535789 102.7413522 115.9282232
  84.4459992  98.8279978 110.7110014  83.5349992  98.8849978 110.9990014
  84.9509992  98.7679978 111.5210014  84.3895387  98.8276870 110.8600646
  79.2739992 100.4569978 109.5370014  78.3849992 100.5559978 109.1970014
  79.5709992  99.6149978 109.1910014  79.1924177 100.3567687 109.4436940
  82.9269992 100.4569978 107.1940014  83.8589992 100.5859978 107.3720014
  82.7119992 101.1259978 106.5440014  83.0254472 100.5650806 107.1304891
  88.8509992  98.0629978 113.9750014  88.1739992  98.1939978 114.6390014
  88.3659992  97.9079978 113.1650014  88.6927265  98.0599659 113.9563397
  92.1389992 113.7339978 120.2520014  92.3379992 114.1579978 119.4170014
  92.7939992 114.0779978 120.8590014  92.2548501 113.8386091 120.2197097
  79.7369992 106.2079978 119.8600014  80.4689992 106.4629978 120.4210014
  78.9559992 106.4129978 120.3750014  79.7317684 106.2706468 120.0064782
  85.7659992 101.6149978 112.5980014  86.3299992 101.0689978 112.0510014
  85.6179992 101.0939978 113.3860014  85.8232575 101.4696552 112.6296987
  80.7679992  97.7519978 109.0160014  80.4509992  96.8489978 108.9810014
  81.5489992  97.7539978 108.4630014  80.8302307  97.6286951 108.9364314
  84.3919992 100.0039978 115.0120014  83.5569992 100.4579978 115.1220014
  84.9159992 100.2799978 115.7640014  84.3485070 100.1034666 115.1287152
  84.9369992 106.2169978 106.6960014  84.1919992 105.7089978 106.3740014
  84.8019992 106.2659978 107.6430014  84.8169047 106.1541596 106.7798845
  92.0869992 105.3499978 115.4830014  92.7279992 105.8059978 114.9390014
  91.2559992 105.4629978 115.0210014  92.0625171 105.4277502 115.3460237
  86.4559992 106.4009978 117.9330014  86.1099992 106.0189978 118.7400014
  86.2559992 107.3339978 118.0050014  86.3816523 106.4749095 118.0530735
  80.0609992 105.5119978 112.4660014  80.8059992 105.5089978 111.8650014
  80.1389992 104.6879978 112.9480014  80.1734158 105.4002916 112.4489153
  77.0689992 103.9719978 117.7810014  77.2919992 103.5539978 118.6130014
  76.4669992 103.3599978 117.3580014  77.0181260 103.8319933 117.8377320
  84.0859992 103.4889978 119.9940014  83.7899992 103.3239978 119.0990014
  85.0169992 103.2689978 119.9830014  84.1713982 103.4366578 119.8700045
  88.7059992 108.8629978 117.8840014  87.8059992 109.0459978 117.6160014
  88.7399992 109.1219978 118.8050014  88.5872909 108.9230815 117.9717852
  94.4379992 101.1069978 106.2510014  93.8829992 100.7109978 105.5790014
  94.5379992 102.0179978 105.9730014  94.3755888 101.1758990 106.1215206
  94.4009992 106.9079978 119.0880014  93.5499992 107.1459978 118.7210014
  94.9909992 106.8909978 118.3350014  94.3642408 106.9382966 118.9358879
  92.7329992 109.8929978 106.7160014  92.3599992 109.0679978 107.0250014
  93.0099992 109.7099978 105.8190014  92.7193871 109.7552441 106.6369677
  89.8929992 104.7009978 113.7370014  88.9649992 104.4699978 113.7100014
  90.3439992 103.9239978 113.4070014  89.8268165 104.5642774 113.6886790
  82.4359992 109.0299978 109.8700014  82.9639992 109.8029978 109.6700014
  81.5559992 109.2539978 109.5690014  82.3893176 109.1663161 109.8018409
  78.1909992 103.8919978 104.4580014  78.8069992 104.5189978 104.8370014
  77.3289992 104.2079978 104.7290014  78.1588195 104.0205798 104.5465386
  83.8639992 106.6929978 109.4470014  83.6229992 107.6179978 109.4880014
  83.1229992 106.2339978 109.8430014  83.7308390 106.7576403 109.5061404
  84.3779992 110.8419978 115.7620014  84.7409992 111.6959978 115.5280014
  84.9099992 110.5499978 116.5020014  84.4996090 110.9194058 115.8300219
  82.5469992 111.7139978 108.9920014  81.5969992 111.8199978 109.0430014
  82.8989992 112.5349978 109.3370014  82.4645480 111.8394438 109.0455999
  87.9219992 106.9409978 115.4620014  87.4969992 106.7129978 116.2890014
  88.5029992 106.2019978 115.2800014  87.9423930 106.8099843 115.5504731
  90.1249992 107.8699978 104.5360014  90.4789992 107.4899978 105.3410014
  89.1769992 107.7759978 104.6230014  90.0451820 107.8053092 104.6578714
  90.5809992 111.4929978 117.9320014  89.9789992 110.9369978 117.4360014
  90.8619992 112.1599978 117.3060014  90.5366829 111.5071613 117.7795443
  78.7029992  98.7259978 117.3390014  77.8109992  99.0639978 117.2720014
  78.6049992  97.8699978 117.7570014  78.5674965  98.6566499 117.3863044
  90.9909992 106.5419978 106.7630014  90.7139992 105.8139978 107.3190014
  91.9189992 106.6609978 106.9680014  91.0784499 106.4584213 106.8668044
  78.3549992 110.5299978 115.7740014  78.5719992 109.5979978 115.7430014
  78.6009992 110.8049978 116.6570014  78.4179809 110.4395686 115.8891690
  79.6059992 105.8039978 105.9500014  78.9199992 106.1569978 106.5170014
  80.1289992 106.5669978 105.7040014  79.5829033 105.9553746 105.9942661
  87.4379992  98.4669978 116.2290014  88.1369992  98.5409978 116.8790014
  87.0569992  97.6019978 116.3830014  87.4822097  98.3602389 116.3387997
  88.2219992  98.1189978 107.3260014  88.4419992  98.5899978 106.5230014
  88.7809992  98.5129978 107.9960014  88.3276730  98.2367432 107.3065906
  85.4219992  99.8469978 108.1610014  86.2339992 100.3509978 108.2070014
  85.1779992  99.7019978 109.0750014  85.5001467  99.8963749 108.2908575
  85.9579992 100.8329978 117.3460014  86.0769992 101.4069978 118.1030014
  86.6129992 100.1449978 117.4600014  86.0629146 100.8185574 117.4651314
  86.3059992  96.9279978 109.0990014  85.9589992  97.5449978 109.7440014
  86.9649992  97.4289978 108.6180014  86.3475949  97.0801099 109.1222271
  83.2289992 111.2929978 106.1710014  83.3899992 112.0929978 105.6700014
  83.0319992 111.5999978 107.0560014  83.2243919 111.4439129 106.2221006
  92.1619992  98.7399978 118.1810014  91.2459992  99.0019978 118.0930014
  92.4979992  98.7369978 117.2840014  92.0819789  98.7754626 118.0477847
  90.7649992 102.4899978 112.2760014  89.9669992 102.0749978 111.9480014
  91.2099992 101.7999978 112.7670014  90.7159684 102.3398628 112.2975227
  91.8509992 111.7459978 113.8990014  91.6949992 112.4249978 113.2420014
  92.7839992 111.8179978 114.1020014  91.9557387 111.8486390 113.8365342
  79.3459992  95.8639978 112.6360014  79.1169992  95.9229978 111.7080014
  78.9039992  95.0729978 112.9420014  79.2548801  95.7650540 112.5504729
  78.2769992 109.8049978 108.7960014  77.4439992 110.2769978 108.8240014
  78.8219992 110.3149978 108.1980014  78.2367590 109.9385897 108.7189194
  77.5649992 112.4169978 120.1260014  78.1049992 112.2009978 120.8860014
  77.0839992 111.6119978 119.9370014  77.5738613 112.2785400 120.2044782
  82.1619992 111.3369978 121.7470014  82.9299992 110.8779978 122.0880014
  82.1409992 111.1109978 120.8170014  82.2642135 111.2436668 121.6679491
  88.7389992 109.7169978 120.4760014  88.3879992 108.8599978 120.7190014
  89.4649992 109.8589978 121.0830014  88.7891590 109.6190178 120.5912907
  77.4719992 106.2279978 121.0810014  77.6159992 105.3259978 120.7940014
  76.6999992 106.5139978 120.5930014  77.3873303 106.1433243 120.9757908
  84.1269992 106.1969978 120.5130014  83.7989992 106.4679978 119.6560014
  84.2789992 105.2559978 120.4260014  84.1026030 106.1068973 120.3837945
  89.8619992 106.1129978 117.8970014  90.6069992 106.7019978 117.7770014
  89.1049992 106.6949978 117.9600014  89.8615205 106.2721997 117.8891119
  78.3049992 103.4279978 120.5010014  78.7129992 102.5709978 120.3800014
  78.0439992 103.4419978 121.4220014  78.3256016 103.3125119 120.6089192
  82.9629992 104.5439978 105.5190014  82.5029992 104.0599978 106.2050014
  83.2179992 103.8749978 104.8830014  82.9345038 104.3873689 105.5269447
  82.2519992 102.4369978 117.8750014  81.6329992 103.1109978 118.1550014
  82.5959992 102.7579978 117.0420014  82.2137605 102.5727198 117.8006707
  87.2709992 104.9079978 121.1520014  88.2249992 104.9919978 121.1250014
  87.1109992 104.1959978 121.7720014  87.3797182 104.8232842 121.2320733
  82.5909992  99.7919978 118.9570014  82.7409992  99.0629978 118.3550014
  82.5929992 100.5689978 118.3980014  82.6117967  99.7972708 118.7990541
  83.0039992  98.1609978 116.4500014  83.5389992  98.6129978 115.7980014
  82.1509992  98.0529978 116.0270014  82.9620374  98.2082665 116.3036710
  84.5849992 103.6009978 116.6890014  85.3359992 103.4449978 116.1160014
  84.2459992 104.4529978 116.4140014  84.6419587 103.6948138 116.5734078
  89.0009992 101.4159978 121.7180014  89.1929992 100.4849978 121.6060014
  89.8589992 101.8409978 121.7080014  89.1432269 101.3459928 121.7013192
  90.3179992 104.2049978 119.7950014  90.0359992 104.9139978 119.2180014
  91.2599992 104.1319978 119.6440014  90.4067656 104.2923128 119.6954809
  81.0699992 100.9899978 120.8690014  80.3019992 100.4569978 120.6590014
  81.7479992 100.6799978 120.2690014  81.0566973 100.8752375 120.7591796
  83.8089992  95.6179978 116.8810014  83.7109992  96.5639978 116.7760014
  83.0669992  95.2449978 116.4060014  83.6951913  95.6971813 116.8023539
  85.0729992  99.9389978 120.4450014  84.8379992  99.7199978 121.3470014
  84.2899992  99.7319978 119.9350014  84.9349219  99.8810066 120.4995852
  87.7889992  99.0669978 119.5210014  86.8409992  99.0989978 119.6530014
  88.1009992  98.4409978 120.1740014  87.7015190  98.9867262 119.6273563
  89.4229992  97.7009978 121.5260014  89.3259992  96.7489978 121.5200014
  89.1009992  97.9689978 122.3860014  89.3661761  97.6069744 121.6414936
  79.2499992  98.9099978 120.5730014  79.4619992  98.2039978 119.9630014
  79.1389992  98.4729978 121.4170014  79.2640269  98.7541921 120.6035873
  84.0309992  94.9119978 119.5530014  84.7429992  94.2719978 119.5390014
  83.9299992  95.1779978 118.6390014  84.1147261  94.8604190 119.4275537
  84.3849992  96.5939978 121.6060014  84.2529992  96.1189978 120.7860014
  83.7849992  97.3389978 121.5510014  84.2859070  96.6295789 121.4863251
  76.1479992 113.5069978 109.3430014  75.5009992 113.0449978 108.8100014
  76.5029992 112.8349978 109.9250014  76.1074506 113.3529503 109.3487341
  77.0179992 111.5869978 111.1470014  76.6839992 110.7069978 111.3190014
  77.2409992 111.9329978 112.0120014  77.0023721 111.5131938 111.2874168
  94.5669992 112.3969978 114.1280014  94.5449992 112.5819978 115.0670014
  95.2569992 112.9649978 113.7870014  94.6573439 112.4991887 114.2104791
  94.1299992 111.9639978 117.0500014  93.6429992 111.2289978 116.6790014
  94.6789992 111.5699978 117.7280014  94.1375247 111.8101057 117.0908461
  92.5809992 107.7539978 121.6880014  91.7149992 107.6489978 122.0820014
  92.9569992 108.5119978 122.1340014  92.5133401 107.8421708 121.8022620
  93.8819992 106.0099978 107.2020014  94.7319992 106.4309978 107.3290014
  93.8869992 105.2699978 107.8090014  93.9991143 105.9676094 107.3014750
  94.2759992 104.0639978 109.0260014  93.5499992 103.5839978 109.4230014
  94.8579992 104.2689978 109.7580014  94.2551635 104.0259166 109.1793748
  94.0349992 106.8489978 113.9730014  94.8689992 106.4709978 113.6930014
  94.1469992 107.7919978 113.8540014  94.1642522 106.9247742 113.9186020
  92.5219992 109.7269978 116.2800014  91.8739992 110.0519978 116.9060014
  92.0039992 109.2859978 115.6060014  92.3634168 109.7118523 116.2745307
  94.5449992 103.9649978 105.4170014  94.0229992 104.3209978 104.6980014
  94.5119992 104.6399978 106.0950014  94.4690699 104.1049848 105.4102129
  92.0629992 102.5849978 109.5890014  91.9129992 101.6399978 109.5680014
  91.7089992 102.8659978 110.4320014  91.9945527 102.4935605 109.7001859
  77.0979992 104.6629978 113.5990014  77.2829992 104.5809978 112.6630014
  77.9479992 104.5389978 114.0230014  77.2380916 104.6350393 113.5282896
  92.9189992 104.5549978 119.2270014  93.5019992 103.8199978 119.4190014
  93.4829992 105.3269978 119.2740014  93.0749781 104.5588145 119.2596164
  94.4159992 102.4579978 119.9120014  93.5529992 102.0789978 119.7460014
  95.0199992 101.7189978 119.8380014  94.3795944 102.3062978 119.8792984
  91.7739992 100.1669978 108.0510014  92.0529992  99.2599978 108.1750014
  92.5329992 100.6009978 107.6620014  91.9148619 100.1014502 108.0153795
  92.3849992 100.7489978 113.4870014  93.3179992 100.9609978 113.4530014
  92.1499992 100.8499978 114.4090014  92.4808308 100.7916503 113.6070214
  92.4149992 101.4859978 116.2630014  91.5719992 101.7539978 116.6290014
  92.8569992 102.3079978 116.0520014  92.3594138 101.6338273 116.2845518
  76.6959992  99.9329978 119.7400014  77.6149992  99.8109978 119.9760014
  76.2459992  99.1829978 120.1290014  76.7611148  99.8148751 119.8249408
  94.6979992  95.4659978 121.6160014  95.0469992  94.8119978 121.0110014
  94.8449992  96.3029978 121.1770014  94.7657355  95.4896067 121.4736564
  92.3869992  97.4299978 108.0990014  92.5689992  96.9809978 108.9250014
  91.7869992  96.8459978 107.6360014  92.3307529  97.2896131 108.1493619
  77.9169992  98.2459978 112.6310014  78.3619992  97.4539978 112.9330014
  78.3829992  98.9619978 113.0620014  78.0409059  98.2344474 112.7306079
  76.2209992 101.2449978 113.7000014  76.7129992 101.0239978 112.9090014
  76.5829992 102.0849978 113.9810014  76.3372923 101.3283468 113.6297407
  94.2169992  97.5749978 119.9660014  93.2999992  97.8459978 119.9300014
  94.3399992  97.0399978 119.1820014  94.1080828  97.5397700 119.8550785
  94.2539992  97.4979978 104.6270014  94.6659992  96.7769978 104.1520014
  94.9349992  98.1669978 104.6860014  94.4025900  97.4897306 104.5699038
  76.5349992  97.5029978 107.7540014  75.6099992  97.7109978 107.6250014
  76.9889992  97.9869978 107.0650014  76.4696374  97.5969949 107.6430957
  91.3049992 112.4869978 109.7000014  91.9579992 112.1389978 109.0920014
  91.8159992 112.9749978 110.3460014  91.4632777 112.5053815 109.7042047
  76.4979992  96.2409978 116.0990014  75.8329992  95.9949978 116.7420014
  76.0549992  96.8629978 115.5210014  76.3470937  96.2913614 116.1089379
  78.6899992 109.4159978 120.2430014  77.8689992 109.5909978 119.7830014
  78.4379992 109.3429978 121.1640014  78.5436173 109.4300794 120.3044972
  81.6439992 110.3899978 116.5020014  81.2199992 111.1999978 116.2190014
  82.5489992 110.4759978 116.2000014  81.7082433 110.5123331 116.4225377
  85.9559992 111.7889978 119.4610014  86.1399992 111.4559978 120.3390014
  86.8019992 112.0989978 119.1390014  86.0956484 111.7852979 119.5377617
  88.3009992 113.0749978 118.7050014  88.9779992 112.4419978 118.4650014
  88.6219992 113.4759978 119.5120014  88.4371323 113.0425691 118.7813158
  93.2179992  95.6649978 117.7850014  92.4049992  95.9899978 117.3970014
  93.4509992  94.9039978 117.2520014  93.1382566  95.6066559 117.6599213
  79.0459992 113.6469978 116.5490014  78.3259992 114.0869978 116.0980014
  78.6809992 113.3959978 117.3980014  78.8979796 113.6733824 116.6019329
  81.5129992 113.2469978 115.5790014  80.6489992 113.3189978 115.9830014
  81.4579992 113.7939978 114.7950014  81.3871942 113.3307849 115.5284000
  86.2239992 113.1349978 114.7540014  85.7669992 113.6639978 114.1000014
  86.3869992 113.7379978 115.4800014  86.1834476 113.2889140 114.7625499
  88.5519992 112.0129978 115.6990014  87.6469992 112.1779978 115.4340014
  88.9799992 112.8659978 115.6340014  88.4860700 112.1509529 115.6539520
  91.1559992 113.5829978 115.9940014  90.9739992 114.4989978 115.7840014
  91.3329992 113.1719978 115.1480014  91.1549907 113.6529741 115.8507883
  78.4609992 112.2699978 113.4590014  78.4429992 111.8439978 114.3170014
  79.2659992 111.9509978 113.0510014  78.5673221 112.1687233 113.5210225
  80.6019992 110.9799978 112.1140014  80.3829992 110.0629978 112.2840014
  81.4259992 111.1199978 112.5800014  80.6834702 110.8735511 112.2002527
  83.1389992 111.4499978 112.9630014  83.3519992 110.5619978 112.6760014
  83.2039992 111.4149978 113.9180014  83.1769075 111.3238307 113.0527373
  86.6479992  97.1139978 112.1070014  85.9739992  96.4839978 112.3630014
  87.2119992  96.6299978 111.5040014  86.6320384  96.9623708 112.0605020
  91.7909992  95.2209978 112.2200014  92.3939992  95.7689978 111.7180014
  90.9209992  95.5399978 111.9800014  91.7559190  95.3391041 112.1188679
  93.5179992  96.3599978 110.5530014  94.1289992  95.8459978 110.0270014
  93.8999992  97.2369978 110.5770014  93.6534475  96.4081323 110.4841208
  78.9749992  95.7479978 109.9290014  78.1979992  95.5129978 109.4220014
  79.5049992  94.9509978 109.9380014  78.9403451  95.6081268 109.8608627
  83.5539992  95.6739978 109.7430014  84.4279992  96.0629978 109.7130014
  83.4179992  95.4589978 110.6650014  83.6553207  95.6981923 109.8636509
  89.1109992  95.7039978 111.3920014  89.1869992  95.7999978 110.4430014
  88.8359992  94.7969978 111.5210014  89.0842042  95.5944241 111.2793811
  90.4639992  95.7299978 107.0840014  89.7609992  96.3449978 106.8750014
  90.0189992  94.8929978 107.2160014  90.3076292  95.7010085 107.0732439
  77.7119992 111.4939978 106.6310014  77.0269992 111.4559978 105.9630014
  77.7159992 112.4069978 106.9190014  77.6188174 111.6121998 106.5785310
  79.6719992  97.4619978 104.1750014  80.1629992  96.8319978 103.6480014
  80.2949992  97.7579978 104.8390014  79.8235062  97.4156770 104.1925438
  84.6979992  97.7549978 106.6330014  84.8759992  97.1079978 107.3150014
  84.6439992  98.5889978 107.1000014  84.7151025  97.7790504 106.7896433
  86.5759992 112.7029978 105.0280014  87.4419992 113.0699978 104.8500014
  86.3299992 112.2639978 104.2140014  86.6612097 112.6938525 104.8936019
  93.2849992 112.2659978 107.7070014  93.0909992 111.5179978 107.1420014
  93.2459992 113.0239978 107.1240014  93.2531645 112.2660786 107.5508148
  78.9319992  96.2619978 119.4470014  78.5659992  95.4959978 119.8900014
  79.8449992  96.2909978 119.7340014  79.0053225  96.1611906 119.5463459
  80.9049992  95.6119978 120.9830014  81.8039992  95.3379978 120.7980014
  80.5189992  94.8699978 121.4470014  80.9757237  95.4741508 121.0204710
  89.3269992  94.9449978 121.1650014  89.4029992  94.5189978 122.0190014
  90.2199992  94.9579978 120.8220014  89.4582267  94.8883952 121.2355932
  92.5029992 111.0179978 119.8570014  91.7209992 110.8309978 119.3380014
  92.4309992 111.9469978 120.0750014  92.3860863 111.1180221 119.8153574
 106.9089992 104.9039978 109.8880014 106.9979992 105.8479978 109.7560014
 106.2709992 104.6289978 109.2300014 106.8349062 104.9959812 109.7809641
 105.8419992 104.1589978 113.3070014 105.8039992 103.5129978 114.0120014
 105.5199992 103.6919978 112.5360014 105.7932679 104.0074276 113.2992921
  98.2099992 103.7729978 114.9000014  98.2519992 103.1479978 115.6230014
  98.9129992 104.3969978 115.0820014  98.3107345 103.7717873 115.0235274
 109.5479992 107.0979978 111.6090014 109.1069992 106.3779978 112.0590014
 109.5349992 107.8189978 112.2380014 109.4857960 107.0968329 111.7557567
  99.1339992 108.2229978 113.4350014  98.7639992 107.4209978 113.0650014
 100.0749992 108.0549978 113.4810014  99.2105984 108.0904638 113.3905603
  95.7439992 101.8829978 108.8280014  95.2959992 102.7289978 108.8090014
  95.1829992 101.3039978 108.3120014  95.6069603 101.9203674 108.7556720
  96.4539992 104.0449978 110.9540014  96.6679992 103.2749978 111.4810014
  97.1919992 104.1349978 110.3500014  96.5829652 103.9518012 110.9445212
 106.6599992 112.2019978 111.8210014 107.2789992 111.5259978 111.5470014
 106.4509992 111.9839978 112.7290014 106.7166232 112.0797938 111.9062517
 104.2309992 106.5909978 113.7130014 104.5349992 105.9049978 113.1190014
 104.9529992 106.7099978 114.3310014 104.3701152 106.5132189 113.7152124
 112.8939992  98.1929978 114.5740014 112.9439992  98.8029978 115.3100014
 113.3199992  98.6539978 113.8510014 112.9584108  98.3387709 114.5770112
 107.3719992 100.9849978 114.0410014 107.5149992 100.0389978 114.0610014
 107.2659992 101.1919978 113.1120014 107.3772509 100.8834813 113.9182231
 100.5269992  99.0869978 111.3130014 100.5699992  99.9469978 110.8950014
 100.0689992  98.5349978 110.6790014 100.4709815  99.1300621 111.1701197
 108.2489992  99.2179978 109.7140014 108.8959992  98.8889978 110.3390014
 108.7589992  99.7349978 109.0910014 108.4064317  99.2429227 109.7152167
  97.1469992 101.4839978 112.0750014  97.8009992 100.9339978 112.5070014
  97.1709992 101.2099978 111.1580014  97.2397199 101.3717167 112.0101668
 102.3039992 103.0339978 111.2900014 102.9199992 102.5069978 111.8000014
 101.7169992 102.3939978 110.8870014 102.3089239 102.8754117 111.3052952
 113.2859992  99.6709978 116.8100014 112.5969992 100.3289978 116.7140014
 113.3009992  99.4729978 117.7460014 113.1936740  99.7343242 116.9234630
  99.3369992  98.0049978 115.3870014  99.1179992  98.5349978 114.6210014
  98.6689992  98.2309978 116.0340014  99.2167001  98.1081154 115.3696064
 106.7059992 107.5049978 108.9310014 106.4109992 107.1819978 108.0800014
 106.3819992 108.4049978 108.9720014 106.6217983 107.5824026 108.8199771
 101.9059992 105.6799978 115.6750014 101.1659992 106.2789978 115.7780014
 102.6199992 106.2339978 115.3590014 101.9013288 105.8367356 115.6463805
 110.0129992  98.5089978 111.6940014 109.7979992  97.7429978 112.2270014
 110.6689992  98.9809978 112.2070014 110.0722673  98.4680728 111.8361990
  98.9309992  99.8969978 113.3390014  99.5449992 100.5299978 113.7130014
  99.4429992  99.4249978 112.6830014  99.0842277  99.9197352 113.3014279
 100.3139992 107.6449978 116.4620014 100.3079992 108.5239978 116.0840014
  99.4599992 107.5609978 116.8870014 100.1977925 107.7539535 116.4676887
  96.4349992 107.3159978 107.2440014  96.1629992 107.5449978 106.3550014
  96.4799992 108.1529978 107.7040014  96.4038709 107.4606058 107.1846107
 110.0599992 108.9369978 113.9560014 109.1179992 108.9959978 114.1180014
 110.3359992 109.8429978 113.8190014 109.9685865 109.0675288 113.9596192
 110.3599992  97.2239978 115.3740014 109.6239992  97.8339978 115.3360014
 111.0439992  97.6389978 114.8470014 110.3515506  97.3636400 115.2976051
 103.3639992  95.3099978 112.8400014 103.2459992  94.3619978 112.7850014
 102.5089992  95.6429978 113.1130014 103.2322679  95.2251926 112.8693720
 108.3119992 110.7179978 110.5820014 108.7369992 110.0109978 110.0970014
 108.6289992 111.5199978 110.1650014 108.4130266 110.7295190 110.4592479
 109.4719992 108.6189978 109.0900014 109.2139992 107.9289978 108.4790014
 109.5429992 108.1759978 109.9360014 109.4462837 108.4647106 109.1206912
 111.1579992 107.1859978 117.5680014 111.2969992 106.5939978 116.8280014
 111.3249992 108.0589978 117.2110014 111.1995562 107.2229896 117.4186283
 105.6299992 104.1479978 107.3400014 104.9189992 104.6829978 106.9880014
 106.3209992 104.2029978 106.6800014 105.6260751 104.2286777 107.2025858
 112.9989992 103.5259978 115.6340014 112.3469992 104.2199978 115.7230014
 113.4649992 103.7359978 114.8240014 112.9725937 103.6495019 115.5367533
 109.0359992 104.3569978 108.2920014 108.3039992 104.5859978 108.8650014
 109.4829992 103.6439978 108.7470014 108.9962753 104.2918972 108.4319715
 108.9329992 102.5319978 117.3600014 109.0129992 103.2949978 117.9310014
 108.3319992 102.8109978 116.6690014 108.8627245 102.6742630 117.3448424
 100.6809992 104.9879978 110.1740014 100.3509992 104.6169978 109.3560014
 101.2699992 104.3169978 110.5210014 100.7153970 104.8466063 110.1089404
 102.0479992 108.4159978 112.8560014 101.9529992 107.8369978 112.0990014
 102.7769992 108.0449978 113.3520014 102.1336161 108.2865891 112.8195209
 101.0479992 103.7559978 113.8080014 101.6129992 103.8779978 113.0450014
 101.3669992 104.3939978 114.4470014 101.1683977 103.8588851 113.7899424
 107.3569992 109.2599978 114.5420014 107.1169992 109.9219978 115.1900014
 107.1589992 108.4249978 114.9670014 107.2973826 109.2378115 114.6881566
 101.9279992 108.1559978 118.5250014 101.6169992 108.9379978 118.9800014
 101.2779992 108.0029978 117.8390014 101.7975538 108.2424087 118.4945898
 107.9069992 103.5199978 105.9770014 108.4859992 103.6699978 106.7240014
 108.3209992 103.9899978 105.2540014 108.0423122 103.6041277 105.9815042
  98.8479992 104.3539978 117.7540014  98.9179992 105.0049978 118.4520014
  97.9569992 104.4569978 117.4190014  98.7371802 104.4569757 117.8042249
 105.6329992 110.2559978 109.4120014 106.1069992 110.5519978 110.1900014
 105.0699992 110.9949978 109.1790014 105.6217361 110.3962721 109.4868611
 100.1669992 110.2269978 119.2880014 100.1749992 110.0909978 118.3410014
  99.2509992 110.1099978 119.5400014 100.0442528 110.1925463 119.1923243
 111.6059992  95.2699978 105.7900014 110.7059992  95.4089978 106.0850014
 111.8579992  96.1009978 105.3880014 111.5168683  95.4014055 105.7760232
  99.6719992 104.0569978 107.7640014  99.3799992 104.8249978 107.2730014
  98.9969992 103.3979978 107.6010014  99.5408497 104.0729745 107.6748260
  95.7649992 106.4199978 116.5790014  95.2629992 106.3919978 115.7640014
  95.7699992 105.5149978 116.8880014  95.6970416 106.2937368 116.5093766
  95.5149992 109.2009978 113.4630014  96.4609992 109.0559978 113.4440014
  95.4019992 109.9849978 114.0000014  95.6293578 109.2871697 113.5330317
 113.7129992 109.8669978 119.1450014 113.6629992 108.9109978 119.1080014
 112.8859992 110.1339978 119.5460014 113.5943987 109.7725174 119.1941446
 104.6909992 109.4409978 118.0210014 104.7789992 110.2669978 118.4960014
 103.8279992 109.1109978 118.2700014 104.5863357 109.5095468 118.1197653
 105.1059992 113.2129978 107.8270014 105.0299992 113.0919978 106.8810014
 105.1379992 114.1619978 107.9460014 105.0999156 113.3247530 107.7135048
  98.7589992 112.0019978 109.6080014  98.9109992 111.6539978 110.4870014
  97.9079992 111.6449978 109.3530014  98.6647899 111.9061738 109.6937340
 107.8759992 112.2929978 107.5790014 106.9409992 112.3929978 107.7570014
 108.1559992 111.5829978 108.1570014 107.7858173 112.2107239 107.6814998
 110.8649992 101.3599978 119.6250014 110.4569992 101.8399978 118.9050014
 110.9049992 100.4539978 119.3170014 110.8145476 101.3033160 119.4848247
  98.0139992 107.7439978 117.6220014  98.2299992 107.3819978 118.4810014
  97.1579992 107.3689978 117.4120014  97.9279354 107.6437906 117.7112160
 100.6319992  96.2139978 113.6170014  99.7709992  96.1269978 113.2100014
 100.6099992  97.0699978 114.0450014 100.5110411  96.3177884 113.6190857
 105.2949992  95.9359978 116.9920014 105.7149992  95.5209978 117.7450014
 104.3619992  95.7569978 117.1090014 105.2263736  95.8549910 117.1108968
 108.6219992  99.6909978 117.8450014 108.1079992  99.5659978 118.6430014
 108.4659992 100.6039978 117.6010014 108.5306967  99.7972123 117.9210937
 109.3839992 104.5519978 103.6070014 109.4259992 104.3299978 102.6770014
 110.2329992 104.9509978 103.7970014 109.5045253 104.5755498 103.5053822
 100.7229992 101.1789978 114.7120014 100.0819992 101.1389978 115.4210014
 100.7609992 102.1059978 114.4750014 100.6403670 101.2987795 114.7770550
 100.7199992 101.3999978 109.6240014  99.8279992 101.0599978 109.5660014
 101.1709992 101.0229978 108.8690014 100.6586815 101.3023762 109.5139203
 106.2559992 101.8159978 108.4410014 105.8469992 102.6309978 108.1500014
 106.9759992 101.6759978 107.8270014 106.2974013 101.9086571 108.3180875
 105.3579992 101.9919978 119.9290014 104.7949992 101.2869978 120.2500014
 106.1839992 101.8709978 120.3970014 105.3926674 101.8792165 120.0361751
 107.2609992 101.2619978 111.2550014 107.0649992 101.8679978 110.5400014
 107.4419992 100.4289978 110.8210014 107.2586584 101.2322513 111.0984212
  98.4729992 101.4999978 116.5790014  98.4349992 101.8999978 117.4480014
  97.9829992 100.6829978 116.6700014  98.4015621 101.4442510 116.7101377
  95.0819992  98.6159978 110.4300014  95.7119992  98.5869978 111.1490014
  95.5309992  98.1909978 109.7000014  95.2290692  98.5545316 110.4297771
  96.3559992  99.3619978 105.8540014  96.8299992  99.9529978 105.2690014
  95.6379992  99.8919978 106.2010014  96.3238640  99.5145511 105.8207969
 106.5249992 102.8999978 115.9270014 106.8479992 102.2689978 115.2840014
 106.0839992 102.3659978 116.5870014 106.5095789 102.7413522 115.9282232
 103.3019992  98.8279978 110.7110014 102.3909992  98.8849978 110.9990014
 103.8069992  98.7679978 111.5210014 103.2455387  98.8276870 110.8600646
  98.1299992 100.4569978 109.5370014  97.2409992 100.5559978 109.1970014
  98.4269992  99.6149978 109.1910014  98.0484177 100.3567687 109.4436940
 101.7829992 100.4569978 107.1940014 102.7149992 100.5859978 107.3720014
 101.5679992 101.1259978 106.5440014 101.8814472 100.5650806 107.1304891
 107.7069992  98.0629978 113.9750014 107.0299992  98.1939978 114.6390014
 107.2219992  97.9079978 113.1650014 107.5487265  98.0599659 113.9563397
 100.4569992 101.6509978 104.7610014  99.9149992 101.2719978 104.0690014
 101.2909992 101.8459978 104.3320014 100.4955159 101.6255076 104.6084419
 110.9949992 113.7339978 120.2520014 111.1939992 114.1579978 119.4170014
 111.6499992 114.0779978 120.8590014 111.1108501 113.8386091 120.2197097
  98.5929992 106.2079978 119.8600014  99.3249992 106.4629978 120.4210014
  97.8119992 106.4129978 120.3750014  98.5877684 106.2706468 120.0064782
 104.6219992 101.6149978 112.5980014 105.1859992 101.0689978 112.0510014
 104.4739992 101.0939978 113.3860014 104.6792575 101.4696552 112.6296987
  99.6239992  97.7519978 109.0160014  99.3069992  96.8489978 108.9810014
 100.4049992  97.7539978 108.4630014  99.6862307  97.6286951 108.9364314
 103.2479992 100.0039978 115.0120014 102.4129992 100.4579978 115.1220014
 103.7719992 100.2799978 115.7640014 103.2045070 100.1034666 115.1287152
 103.7929992 106.2169978 106.6960014 103.0479992 105.7089978 106.3740014
 103.6579992 106.2659978 107.6430014 103.6729047 106.1541596 106.7798845
 110.9429992 105.3499978 115.4830014 111.5839992 105.8059978 114.9390014
 110.1119992 105.4629978 115.0210014 110.9185171 105.4277502 115.3460237
 107.6899992  99.0309978 104.8960014 106.7519992  99.1419978 104.7440014
 107.9879992  99.8869978 105.2020014 107.6016402  99.1620621 104.9165571
 105.3119992 106.4009978 117.9330014 104.9659992 106.0189978 118.7400014
 105.1119992 107.3339978 118.0050014 105.2376523 106.4749095 118.0530735
 108.4089992 100.8979978 106.5560014 109.3009992 100.7599978 106.8750014
 108.4649992 101.6889978 106.0200014 108.5387107 100.9860526 106.5272091
  98.9169992 105.5119978 112.4660014  99.6619992 105.5089978 111.8650014
  98.9949992 104.6879978 112.9480014  99.0294158 105.4002916 112.4489153
  95.9249992 103.9719978 117.7810014  96.1479992 103.5539978 118.6130014
  95.3229992 103.3599978 117.3580014  95.8741260 103.8319933 117.8377320
 102.9419992 103.4889978 119.9940014 102.6459992 103.3239978 119.0990014
 103.8729992 103.2689978 119.9830014 103.0273982 103.4366578 119.8700045
 107.5619992 108.8629978 117.8840014 106.6619992 109.0459978 117.6160014
 107.5959992 109.1219978 118.8050014 107.4432909 108.9230815 117.9717852
 113.2569992 106.9079978 119.0880014 112.4059992 107.1459978 118.7210014
 113.8469992 106.8909978 118.3350014 113.2202408 106.9382966 118.9358879
 111.5889992 109.8929978 106.7160014 111.2159992 109.0679978 107.0250014
 111.8659992 109.7099978 105.8190014 111.5753871 109.7552441 106.6369677
 108.7489992 104.7009978 113.7370014 107.8209992 104.4699978 113.7100014
 109.1999992 103.9239978 113.4070014 108.6828165 104.5642774 113.6886790
 101.2919992 109.0299978 109.8700014 101.8199992 109.8029978 109.6700014
 100.4119992 109.2539978 109.5690014 101.2453176 109.1663161 109.8018409
 102.7199992 106.6929978 109.4470014 102.4789992 107.6179978 109.4880014
 101.9789992 106.2339978 109.8430014 102.5868390 106.7576403 109.5061404
 103.2339992 110.8419978 115.7620014 103.5969992 111.6959978 115.5280014
 103.7659992 110.5499978 116.5020014 103.3556090 110.9194058 115.8300219
 101.4029992 111.7139978 108.9920014 100.4529992 111.8199978 109.0430014
 101.7549992 112.5349978 109.3370014 101.3205480 111.8394438 109.0455999
 106.7779992 106.9409978 115.4620014 106.3529992 106.7129978 116.2890014
 107.3589992 106.2019978 115.2800014 106.7983930 106.8099843 115.5504732
 108.9809992 107.8699978 104.5360014 109.3349992 107.4899978 105.3410014
 108.0329992 107.7759978 104.6230014 108.9011820 107.8053092 104.6578714
 109.4369992 111.4929978 117.9320014 108.8349992 110.9369978 117.4360014
 109.7179992 112.1599978 117.3060014 109.3926829 111.5071613 117.7795443
 113.4849992 112.3489978 104.7370014 114.2289992 112.9349978 104.5970014
 112.7909992 112.9179978 105.0710014 113.4930201 112.5060603 104.7629772
  97.5589992  98.7259978 117.3390014  96.6669992  99.0639978 117.2720014
  97.4609992  97.8699978 117.7570014  97.4234965  98.6566499 117.3863044
 109.8469992 106.5419978 106.7630014 109.5699992 105.8139978 107.3190014
 110.7749992 106.6609978 106.9680014 109.9344499 106.4584213 106.8668044
  97.2109992 110.5299978 115.7740014  97.4279992 109.5979978 115.7430014
  97.4569992 110.8049978 116.6570014  97.2739809 110.4395686 115.8891690
  98.4619992 105.8039978 105.9500014  97.7759992 106.1569978 106.5170014
  98.9849992 106.5669978 105.7040014  98.4389033 105.9553746 105.9942661
 106.2939992  98.4669978 116.2290014 106.9929992  98.5409978 116.8790014
 105.9129992  97.6019978 116.3830014 106.3382097  98.3602389 116.3387997
 107.0779992  98.1189978 107.3260014 107.2979992  98.5899978 106.5230014
 107.6369992  98.5129978 107.9960014 107.1836730  98.2367432 107.3065906
 104.7469992 110.2489978 106.1890014 103.9299992 110.7459978 106.2410014
 105.2759992 110.7249978 105.5490014 104.7068508 110.3812543 106.1096035
 104.2779992  99.8469978 108.1610014 105.0899992 100.3509978 108.2070014
 104.0339992  99.7019978 109.0750014 104.3561467  99.8963749 108.2908575
 104.8139992 100.8329978 117.3460014 104.9329992 101.4069978 118.1030014
 105.4689992 100.1449978 117.4600014 104.9189146 100.8185574 117.4651314
 105.1619992  96.9279978 109.0990014 104.8149992  97.5449978 109.7440014
 105.8209992  97.4289978 108.6180014 105.2035949  97.0801099 109.1222271
 111.0179992  98.7399978 118.1810014 110.1019992  99.0019978 118.0930014
 111.3539992  98.7369978 117.2840014 110.9379789  98.7754626 118.0477847
 109.6209992 102.4899978 112.2760014 108.8229992 102.0749978 111.9480014
 110.0659992 101.7999978 112.7670014 109.5719684 102.3398628 112.2975227
  97.3939992 101.0829978 103.9630014  97.3489992 102.0219978 104.1410014
  96.5059992 100.8469978 103.6930014  97.2678555 101.1796874 103.9508939
 110.7069992 111.7459978 113.8990014 110.5509992 112.4249978 113.2420014
 111.6399992 111.8179978 114.1020014 110.8117387 111.8486390 113.8365342
  98.2019992  95.8639978 112.6360014  97.9729992  95.9229978 111.7080014
  97.7599992  95.0729978 112.9420014  98.1108801  95.7650540 112.5504729
  97.1329992 109.8049978 108.7960014  96.2999992 110.2769978 108.8240014
  97.6779992 110.3149978 108.1980014  97.0927590 109.9385897 108.7189194
  96.4209992 112.4169978 120.1260014  96.9609992 112.2009978 120.8860014
  95.9399992 111.6119978 119.9370014  96.4298613 112.2785400 120.2044782
 101.0179992 111.3369978 121.7470014 101.7859992 110.8779978 122.0880014
 100.9969992 111.1109978 120.8170014 101.1202135 111.2436668 121.6679491
 107.5949992 109.7169978 120.4760014 107.2439992 108.8599978 120.7190014
 108.3209992 109.8589978 121.0830014 107.6451590 109.6190178 120.5912907
  96.3279992 106.2279978 121.0810014  96.4719992 105.3259978 120.7940014
  95.5559992 106.5139978 120.5930014  96.2433303 106.1433243 120.9757908
 102.9829992 106.1969978 120.5130014 102.6549992 106.4679978 119.6560014
 103.1349992 105.2559978 120.4260014 102.9586030 106.1068973 120.3837945
 108.7179992 106.1129978 117.8970014 109.4629992 106.7019978 117.7770014
 107.9609992 106.6949978 117.9600014 108.7175205 106.2721997 117.8891119
  97.1609992 103.4279978 120.5010014  97.5689992 102.5709978 120.3800014
  96.8999992 103.4419978 121.4220014  97.1816016 103.3125119 120.6089192
 101.8189992 104.5439978 105.5190014 101.3589992 104.0599978 106.2050014
 102.0739992 103.8749978 104.8830014 101.7905038 104.3873689 105.5269447
 101.1079992 102.4369978 117.8750014 100.4889992 103.1109978 118.1550014
 101.4519992 102.7579978 117.0420014 101.0697605 102.5727198 117.8006707
 106.1269992 104.9079978 121.1520014 107.0809992 104.9919978 121.1250014
 105.9669992 104.1959978 121.7720014 106.2357182 104.8232842 121.2320733
 101.4469992  99.7919978 118.9570014 101.5969992  99.0629978 118.3550014
 101.4489992 100.5689978 118.3980014 101.4677967  99.7972708 118.7990541
 101.8599992  98.1609978 116.4500014 102.3949992  98.6129978 115.7980014
 101.0069992  98.0529978 116.0270014 101.8180374  98.2082665 116.3036710
 103.4409992 103.6009978 116.6890014 104.1919992 103.4449978 116.1160014
 103.1019992 104.4529978 116.4140014 103.4979587 103.6948138 116.5734078
 107.8569992 101.4159978 121.7180014 108.0489992 100.4849978 121.6060014
 108.7149992 101.8409978 121.7080014 107.9992269 101.3459928 121.7013192
 109.1739992 104.2049978 119.7950014 108.8919992 104.9139978 119.2180014
 110.1159992 104.1319978 119.6440014 109.2627656 104.2923128 119.6954809
  99.9259992 100.9899978 120.8690014  99.1579992 100.4569978 120.6590014
 100.6039992 100.6799978 120.2690014  99.9126973 100.8752375 120.7591796
 102.6649992  95.6179978 116.8810014 102.5669992  96.5639978 116.7760014
 101.9229992  95.2449978 116.4060014 102.5511913  95.6971813 116.8023539
 103.9289992  99.9389978 120.4450014 103.6939992  99.7199978 121.3470014
 103.1459992  99.7319978 119.9350014 103.7909219  99.8810066 120.4995852
 106.6449992  99.0669978 119.5210014 105.6969992  99.0989978 119.6530014
 106.9569992  98.4409978 120.1740014 106.5575190  98.9867262 119.6273564
 108.2789992  97.7009978 121.5260014 108.1819992  96.7489978 121.5200014
 107.9569992  97.9689978 122.3860014 108.2221761  97.6069744 121.6414936
  98.1059992  98.9099978 120.5730014  98.3179992  98.2039978 119.9630014
  97.9949992  98.4729978 121.4170014  98.1200269  98.7541921 120.6035873
 102.8869992  94.9119978 119.5530014 103.5989992  94.2719978 119.5390014
 102.7859992  95.1779978 118.6390014 102.9707261  94.8604190 119.4275537
 103.2409992  96.5939978 121.6060014 103.1089992  96.1189978 120.7860014
 102.6409992  97.3389978 121.5510014 103.1419070  96.6295789 121.4863251
  95.0039992 113.5069978 109.3430014  94.3569992 113.0449978 108.8100014
  95.3589992 112.8349978 109.9250014  94.9634506 113.3529503 109.3487341
  95.8739992 111.5869978 111.1470014  95.5399992 110.7069978 111.3190014
  96.0969992 111.9329978 112.0120014  95.8583721 111.5131938 111.2874168
 113.4229992 112.3969978 114.1280014 113.4009992 112.5819978 115.0670014
 114.1129992 112.9649978 113.7870014 113.5133439 112.4991887 114.2104791
 112.9859992 111.9639978 117.0500014 112.4989992 111.2289978 116.6790014
 113.5349992 111.5699978 117.7280014 112.9935247 111.8101057 117.0908461
 111.4369992 107.7539978 121.6880014 110.5709992 107.6489978 122.0820014
 111.8129992 108.5119978 122.1340014 111.3693401 107.8421708 121.8022620
 112.7379992 106.0099978 107.2020014 113.5879992 106.4309978 107.3290014
 112.7429992 105.2699978 107.8090014 112.8551143 105.9676094 107.3014750
 113.1319992 104.0639978 109.0260014 112.4059992 103.5839978 109.4230014
 113.7139992 104.2689978 109.7580014 113.1111635 104.0259166 109.1793748
 112.8909992 106.8489978 113.9730014 113.7249992 106.4709978 113.6930014
 113.0029992 107.7919978 113.8540014 113.0202522 106.9247742 113.9186020
 111.3779992 109.7269978 116.2800014 110.7299992 110.0519978 116.9060014
 110.8599992 109.2859978 115.6060014 111.2194168 109.7118523 116.2745307
 110.9189992 102.5849978 109.5890014 110.7689992 101.6399978 109.5680014
 110.5649992 102.8659978 110.4320014 110.8505527 102.4935605 109.7001859
  95.9539992 104.6629978 113.5990014  96.1389992 104.5809978 112.6630014
  96.8039992 104.5389978 114.0230014  96.0940916 104.6350393 113.5282896
 111.7749992 104.5549978 119.2270014 112.3579992 103.8199978 119.4190014
 112.3389992 105.3269978 119.2740014 111.9309781 104.5588145 119.2596164
 113.2719992 102.4579978 119.9120014 112.4089992 102.0789978 119.7460014
 113.8759992 101.7189978 119.8380014 113.2355944 102.3062978 119.8792984
 110.9969992  98.6119978 103.0850014 111.6079992  98.2409978 103.7220014
 110.1599992  98.1909978 103.2810014 110.9674947  98.5042756 103.1987252
 110.6299992 100.1669978 108.0510014 110.9089992  99.2599978 108.1750014
 111.3889992 100.6009978 107.6620014 110.7708619 100.1014502 108.0153795
 111.2409992 100.7489978 113.4870014 112.1739992 100.9609978 113.4530014
 111.0059992 100.8499978 114.4090014 111.3368308 100.7916503 113.6070214
 111.2709992 101.4859978 116.2630014 110.4279992 101.7539978 116.6290014
 111.7129992 102.3079978 116.0520014 111.2154138 101.6338273 116.2845518
  95.5519992  99.9329978 119.7400014  96.4709992  99.8109978 119.9760014
  95.1019992  99.1829978 120.1290014  95.6171148  99.8148751 119.8249408
 113.5539992  95.4659978 121.6160014 113.9029992  94.8119978 121.0110014
 113.7009992  96.3029978 121.1770014 113.6217355  95.4896067 121.4736564
 111.2429992  97.4299978 108.0990014 111.4249992  96.9809978 108.9250014
 110.6429992  96.8459978 107.6360014 111.1867529  97.2896131 108.1493619
  96.7729992  98.2459978 112.6310014  97.2179992  97.4539978 112.9330014
  97.2389992  98.9619978 113.0620014  96.8969059  98.2344474 112.7306079
  95.0769992 101.2449978 113.7000014  95.5689992 101.0239978 112.9090014
  95.4389992 102.0849978 113.9810014  95.1932923 101.3283468 113.6297407
 113.0729992  97.5749978 119.9660014 112.1559992  97.8459978 119.9300014
 113.1959992  97.0399978 119.1820014 112.9640828  97.5397700 119.8550785
 113.1099992  97.4979978 104.6270014 113.5219992  96.7769978 104.1520014
 113.7909992  98.1669978 104.6860014 113.2585900  97.4897306 104.5699038
  95.3909992  97.5029978 107.7540014  94.4659992  97.7109978 107.6250014
  95.8449992  97.9869978 107.0650014  95.3256374  97.5969949 107.6430957
 110.1609992 112.4869978 109.7000014 110.8139992 112.1389978 109.0920014
 110.6719992 112.9749978 110.3460014 110.3192777 112.5053815 109.7042047
  95.3539992  96.2409978 116.0990014  94.6889992  95.9949978 116.7420014
  94.9109992  96.8629978 115.5210014  95.2030937  96.2913614 116.1089379
  97.5459992 109.4159978 120.2430014  96.7249992 109.5909978 119.7830014
  97.2939992 109.3429978 121.1640014  97.3996173 109.4300794 120.3044972
 100.4999992 110.3899978 116.5020014 100.0759992 111.1999978 116.2190014
 101.4049992 110.4759978 116.2000014 100.5642433 110.5123331 116.4225377
 104.8119992 111.7889978 119.4610014 104.9959992 111.4559978 120.3390014
 105.6579992 112.0989978 119.1390014 104.9516484 111.7852979 119.5377617
 107.1569992 113.0749978 118.7050014 107.8339992 112.4419978 118.4650014
 107.4779992 113.4759978 119.5120014 107.2931323 113.0425691 118.7813158
 112.0739992  95.6649978 117.7850014 111.2609992  95.9899978 117.3970014
 112.3069992  94.9039978 117.2520014 111.9942566  95.6066559 117.6599213
  97.9019992 113.6469978 116.5490014  97.1819992 114.0869978 116.0980014
  97.5369992 113.3959978 117.3980014  97.7539796 113.6733824 116.6019329
 100.3689992 113.2469978 115.5790014  99.5049992 113.3189978 115.9830014
 100.3139992 113.7939978 114.7950014 100.2431942 113.3307849 115.5284000
 105.0799992 113.1349978 114.7540014 104.6229992 113.6639978 114.1000014
 105.2429992 113.7379978 115.4800014 105.0394476 113.2889140 114.7625499
 107.4079992 112.0129978 115.6990014 106.5029992 112.1779978 115.4340014
 107.8359992 112.8659978 115.6340014 107.3420700 112.1509529 115.6539520
 110.0119992 113.5829978 115.9940014 109.8299992 114.4989978 115.7840014
 110.1889992 113.1719978 115.1480014 110.0109907 113.6529741 115.8507883
  97.3169992 112.2699978 113.4590014  97.2989992 111.8439978 114.3170014
  98.1219992 111.9509978 113.0510014  97.4233221 112.1687233 113.5210225
  99.4579992 110.9799978 112.1140014  99.2389992 110.0629978 112.2840014
 100.2819992 111.1199978 112.5800014  99.5394702 110.8735511 112.2002527
 101.9949992 111.4499978 112.9630014 102.2079992 110.5619978 112.6760014
 102.0599992 111.4149978 113.9180014 102.0329075 111.3238307 113.0527373
 105.5039992  97.1139978 112.1070014 104.8299992  96.4839978 112.3630014
 106.0679992  96.6299978 111.5040014 105.4880384  96.9623708 112.0605020
 110.6469992  95.2209978 112.2200014 111.2499992  95.7689978 111.7180014
 109.7769992  95.5399978 111.9800014 110.6119190  95.3391041 112.1188679
 112.3739992  96.3599978 110.5530014 112.9849992  95.8459978 110.0270014
 112.7559992  97.2369978 110.5770014 112.5094475  96.4081323 110.4841208
  97.8309992  95.7479978 109.9290014  97.0539992  95.5129978 109.4220014
  98.3609992  94.9509978 109.9380014  97.7963451  95.6081268 109.8608627
  96.6669992  95.5459978 105.7330014  97.1059992  96.1569978 105.1410014
  96.0329992  96.0839978 106.2070014  96.6413859  95.7024064 105.7160305
 102.4099992  95.6739978 109.7430014 103.2839992  96.0629978 109.7130014
 102.2739992  95.4589978 110.6650014 102.5113207  95.6981923 109.8636509
 107.9669992  95.7039978 111.3920014 108.0429992  95.7999978 110.4430014
 107.6919992  94.7969978 111.5210014 107.9402042  95.5944241 111.2793811
 109.3199992  95.7299978 107.0840014 108.6169992  96.3449978 106.8750014
 108.8749992  94.8929978 107.2160014 109.1636292  95.7010085 107.0732439
  96.5679992 111.4939978 106.6310014  95.8829992 111.4559978 105.9630014
  96.5719992 112.4069978 106.9190014  96.4748174 111.6121998 106.5785310
 103.5539992  97.7549978 106.6330014 103.7319992  97.1079978 107.3150014
 103.4999992  98.5889978 107.1000014 103.5711025  97.7790504 106.7896433
 105.4319992 112.7029978 105.0280014 106.2979992 113.0699978 104.8500014
 105.1859992 112.2639978 104.2140014 105.5172097 112.6938525 104.8936019
 112.1409992 112.2659978 107.7070014 111.9469992 111.5179978 107.1420014
 112.1019992 113.0239978 107.1240014 112.1091645 112.2660786 107.5508148
  97.7879992  96.2619978 119.4470014  97.4219992  95.4959978 119.8900014
  98.7009992  96.2909978 119.7340014  97.8613225  96.1611906 119.5463459
  99.7609992  95.6119978 120.9830014 100.6599992  95.3379978 120.7980014
  99.3749992  94.8699978 121.4470014  99.8317237  95.4741508 121.0204710
 108.1829992  94.9449978 121.1650014 108.2589992  94.5189978 122.0190014
 109.0759992  94.9579978 120.8220014 108.3142267  94.8883952 121.2355932
 111.3589992 111.0179978 119.8570014 110.5769992 110.8309978 119.3380014
 111.2869992 111.9469978 120.0750014 111.2420863 111.1180221 119.8153574
 125.7649992 104.9039978 109.8880014 125.8539992 105.8479978 109.7560014
 125.1269992 104.6289978 109.2300014 125.6909062 104.9959812 109.7809641
 124.6979992 104.1589978 113.3070014 124.6599992 103.5129978 114.0120014
 124.3759992 103.6919978 112.5360014 124.6492679 104.0074276 113.2992921
 117.0659992 103.7729978 114.9000014 117.1079992 103.1479978 115.6230014
 117.7689992 104.3969978 115.0820014 117.1667345 103.7717873 115.0235273
 128.4039992 107.0979978 111.6090014 127.9629992 106.3779978 112.0590014
 128.3909992 107.8189978 112.2380014 128.3417960 107.0968329 111.7557567
 117.9899992 108.2229978 113.4350014 117.6199992 107.4209978 113.0650014
 118.9309992 108.0549978 113.4810014 118.0665984 108.0904638 113.3905603
 114.5999992 101.8829978 108.8280014 114.1519992 102.7289978 108.8090014
 114.0389992 101.3039978 108.3120014 114.4629603 101.9203674 108.7556720
 115.3099992 104.0449978 110.9540014 115.5239992 103.2749978 111.4810014
 116.0479992 104.1349978 110.3500014 115.4389652 103.9518012 110.9445212
 125.5159992 112.2019978 111.8210014 126.1349992 111.5259978 111.5470014
 125.3069992 111.9839978 112.7290014 125.5726232 112.0797938 111.9062517
 123.0869992 106.5909978 113.7130014 123.3909992 105.9049978 113.1190014
 123.8089992 106.7099978 114.3310014 123.2261152 106.5132189 113.7152123
 131.7499992  98.1929978 114.5740014 131.7999992  98.8029978 115.3100014
 132.1759992  98.6539978 113.8510014 131.8144108  98.3387709 114.5770112
 126.2279992 100.9849978 114.0410014 126.3709992 100.0389978 114.0610014
 126.1219992 101.1919978 113.1120014 126.2332509 100.8834813 113.9182231
 119.3829992  99.0869978 111.3130014 119.4259992  99.9469978 110.8950014
 118.9249992  98.5349978 110.6790014 119.3269815  99.1300621 111.1701197
 127.1049992  99.2179978 109.7140014 127.7519992  98.8889978 110.3390014
 127.6149992  99.7349978 109.0910014 127.2624317  99.2429227 109.7152167
 116.0029992 101.4839978 112.0750014 116.6569992 100.9339978 112.5070014
 116.0269992 101.2099978 111.1580014 116.0957199 101.3717167 112.0101668
 121.1599992 103.0339978 111.2900014 121.7759992 102.5069978 111.8000014
 120.5729992 102.3939978 110.8870014 121.1649239 102.8754117 111.3052952
 132.1419992  99.6709978 116.8100014 131.4529992 100.3289978 116.7140014
 132.1569992  99.4729978 117.7460014 132.0496740  99.7343242 116.9234630
 118.1929992  98.0049978 115.3870014 117.9739992  98.5349978 114.6210014
 117.5249992  98.2309978 116.0340014 118.0727001  98.1081154 115.3696064
 125.5619992 107.5049978 108.9310014 125.2669992 107.1819978 108.0800014
 125.2379992 108.4049978 108.9720014 125.4777983 107.5824026 108.8199771
 120.7619992 105.6799978 115.6750014 120.0219992 106.2789978 115.7780014
 121.4759992 106.2339978 115.3590014 120.7573288 105.8367356 115.6463805
 128.8689992  98.5089978 111.6940014 128.6539992  97.7429978 112.2270014
 129.5249992  98.9809978 112.2070014 128.9282673  98.4680728 111.8361990
 117.7869992  99.8969978 113.3390014 118.4009992 100.5299978 113.7130014
 118.2989992  99.4249978 112.6830014 117.9402277  99.9197352 113.3014279
 119.1699992 107.6449978 116.4620014 119.1639992 108.5239978 116.0840014
 118.3159992 107.5609978 116.8870014 119.0537925 107.7539535 116.4676887
 115.2909992 107.3159978 107.2440014 115.0189992 107.5449978 106.3550014
 115.3359992 108.1529978 107.7040014 115.2598709 107.4606058 107.1846107
 128.9159992 108.9369978 113.9560014 127.9739992 108.9959978 114.1180014
 129.1919992 109.8429978 113.8190014 128.8245865 109.0675288 113.9596192
 129.2159992  97.2239978 115.3740014 128.4799992  97.8339978 115.3360014
 129.8999992  97.6389978 114.8470014 129.2075506  97.3636400 115.2976051
 122.2199992  95.3099978 112.8400014 122.1019992  94.3619978 112.7850014
 121.3649992  95.6429978 113.1130014 122.0882679  95.2251926 112.8693720
 127.1679992 110.7179978 110.5820014 127.5929992 110.0109978 110.0970014
 127.4849992 111.5199978 110.1650014 127.2690266 110.7295190 110.4592479
 128.3279992 108.6189978 109.0900014 128.0699992 107.9289978 108.4790014
 128.3989992 108.1759978 109.9360014 128.3022837 108.4647106 109.1206912
 130.0139992 107.1859978 117.5680014 130.1529992 106.5939978 116.8280014
 130.1809992 108.0589978 117.2110014 130.0555562 107.2229896 117.4186283
 124.4859992 104.1479978 107.3400014 123.7749992 104.6829978 106.9880014
 125.1769992 104.2029978 106.6800014 124.4820751 104.2286777 107.2025858
 124.5399992 102.6049978 104.3790014 125.2409992 102.6279978 105.0300014
 124.8419992 101.9769978 103.7230014 124.6768282 102.5232339 104.3794496
 131.8549992 103.5259978 115.6340014 131.2029992 104.2199978 115.7230014
 132.3209992 103.7359978 114.8240014 131.8285937 103.6495019 115.5367533
 127.8919992 104.3569978 108.2920014 127.1599992 104.5859978 108.8650014
 128.3389992 103.6439978 108.7470014 127.8522753 104.2918972 108.4319715
 127.7889992 102.5319978 117.3600014 127.8689992 103.2949978 117.9310014
 127.1879992 102.8109978 116.6690014 127.7187245 102.6742630 117.3448424
 119.5369992 104.9879978 110.1740014 119.2069992 104.6169978 109.3560014
 120.1259992 104.3169978 110.5210014 119.5713970 104.8466063 110.1089404
 120.9039992 108.4159978 112.8560014 120.8089992 107.8369978 112.0990014
 121.6329992 108.0449978 113.3520014 120.9896161 108.2865891 112.8195209
 119.9039992 103.7559978 113.8080014 120.4689992 103.8779978 113.0450014
 120.2229992 104.3939978 114.4470014 120.0243977 103.8588851 113.7899424
 126.2129992 109.2599978 114.5420014 125.9729992 109.9219978 115.1900014
 126.0149992 108.4249978 114.9670014 126.1533826 109.2378115 114.6881566
 120.7839992 108.1559978 118.5250014 120.4729992 108.9379978 118.9800014
 120.1339992 108.0029978 117.8390014 120.6535538 108.2424087 118.4945898
 117.7039992 104.3539978 117.7540014 117.7739992 105.0049978 118.4520014
 116.8129992 104.4569978 117.4190014 117.5931802 104.4569757 117.8042249
 124.4889992 110.2559978 109.4120014 124.9629992 110.5519978 110.1900014
 123.9259992 110.9949978 109.1790014 124.4777361 110.3962721 109.4868611
 119.0229992 110.2269978 119.2880014 119.0309992 110.0909978 118.3410014
 118.1069992 110.1099978 119.5400014 118.9002528 110.1925463 119.1923243
 118.5279992 104.0569978 107.7640014 118.2359992 104.8249978 107.2730014
 117.8529992 103.3979978 107.6010014 118.3968497 104.0729745 107.6748260
 131.6509992 109.6359978 104.1660014 131.7239992 110.5749978 104.3370014
 132.5559992 109.3309978 104.1100014 131.7834158 109.7233061 104.1818392
 114.6209992 106.4199978 116.5790014 114.1189992 106.3919978 115.7640014
 114.6259992 105.5149978 116.8880014 114.5530416 106.2937368 116.5093766
 114.3709992 109.2009978 113.4630014 115.3169992 109.0559978 113.4440014
 114.2579992 109.9849978 114.0000014 114.4853578 109.2871697 113.5330317
 132.5689992 109.8669978 119.1450014 132.5189992 108.9109978 119.1080014
 131.7419992 110.1339978 119.5460014 132.4503987 109.7725174 119.1941446
 123.5469992 109.4409978 118.0210014 123.6349992 110.2669978 118.4960014
 122.6839992 109.1109978 118.2700014 123.4423357 109.5095468 118.1197653
 123.9619992 113.2129978 107.8270014 123.8859992 113.0919978 106.8810014
 123.9939992 114.1619978 107.9460014 123.9559156 113.3247530 107.7135048
 117.6149992 112.0019978 109.6080014 117.7669992 111.6539978 110.4870014
 116.7639992 111.6449978 109.3530014 117.5207899 111.9061738 109.6937340
 126.7319992 112.2929978 107.5790014 125.7969992 112.3929978 107.7570014
 127.0119992 111.5829978 108.1570014 126.6418173 112.2107239 107.6814998
 129.7209992 101.3599978 119.6250014 129.3129992 101.8399978 118.9050014
 129.7609992 100.4539978 119.3170014 129.6705476 101.3033160 119.4848247
 116.8699992 107.7439978 117.6220014 117.0859992 107.3819978 118.4810014
 116.0139992 107.3689978 117.4120014 116.7839354 107.6437906 117.7112160
 119.4879992  96.2139978 113.6170014 118.6269992  96.1269978 113.2100014
 119.4659992  97.0699978 114.0450014 119.3670411  96.3177884 113.6190857
 124.1509992  95.9359978 116.9920014 124.5709992  95.5209978 117.7450014
 123.2179992  95.7569978 117.1090014 124.0823736  95.8549910 117.1108968
 127.4779992  99.6909978 117.8450014 126.9639992  99.5659978 118.6430014
 127.3219992 100.6039978 117.6010014 127.3866967  99.7972123 117.9210937
 119.5789992 101.1789978 114.7120014 118.9379992 101.1389978 115.4210014
 119.6169992 102.1059978 114.4750014 119.4963670 101.2987795 114.7770550
 119.5759992 101.3999978 109.6240014 118.6839992 101.0599978 109.5660014
 120.0269992 101.0229978 108.8690014 119.5146815 101.3023762 109.5139203
 125.1119992 101.8159978 108.4410014 124.7029992 102.6309978 108.1500014
 125.8319992 101.6759978 107.8270014 125.1534013 101.9086571 108.3180875
 124.2139992 101.9919978 119.9290014 123.6509992 101.2869978 120.2500014
 125.0399992 101.8709978 120.3970014 124.2486674 101.8792165 120.0361751
 126.1169992 101.2619978 111.2550014 125.9209992 101.8679978 110.5400014
 126.2979992 100.4289978 110.8210014 126.1146584 101.2322513 111.0984212
 117.3289992 101.4999978 116.5790014 117.2909992 101.8999978 117.4480014
 116.8389992 100.6829978 116.6700014 117.2575621 101.4442510 116.7101377
 113.9379992  98.6159978 110.4300014 114.5679992  98.5869978 111.1490014
 114.3869992  98.1909978 109.7000014 114.0850692  98.5545316 110.4297771
 115.2119992  99.3619978 105.8540014 115.6859992  99.9529978 105.2690014
 114.4939992  99.8919978 106.2010014 115.1798640  99.5145511 105.8207969
 125.3809992 102.8999978 115.9270014 125.7039992 102.2689978 115.2840014
 124.9399992 102.3659978 116.5870014 125.3655789 102.7413522 115.9282232
 122.1579992  98.8279978 110.7110014 121.2469992  98.8849978 110.9990014
 122.6629992  98.7679978 111.5210014 122.1015387  98.8276870 110.8600646
 116.9859992 100.4569978 109.5370014 116.0969992 100.5559978 109.1970014
 117.2829992  99.6149978 109.1910014 116.9044177 100.3567687 109.4436940
 120.6389992 100.4569978 107.1940014 121.5709992 100.5859978 107.3720014
 120.4239992 101.1259978 106.5440014 120.7374472 100.5650806 107.1304891
 126.5629992  98.0629978 113.9750014 125.8859992  98.1939978 114.6390014
 126.0779992  97.9079978 113.1650014 126.4047265  98.0599659 113.9563397
 129.8509992 113.7339978 120.2520014 130.0499992 114.1579978 119.4170014
 130.5059992 114.0779978 120.8590014 129.9668501 113.8386091 120.2197097
 117.4489992 106.2079978 119.8600014 118.1809992 106.4629978 120.4210014
 116.6679992 106.4129978 120.3750014 117.4437684 106.2706468 120.0064782
 123.4779992 101.6149978 112.5980014 124.0419992 101.0689978 112.0510014
 123.3299992 101.0939978 113.3860014 123.5352575 101.4696552 112.6296987
 118.4799992  97.7519978 109.0160014 118.1629992  96.8489978 108.9810014
 119.2609992  97.7539978 108.4630014 118.5422307  97.6286951 108.9364314
 122.1039992 100.0039978 115.0120014 121.2689992 100.4579978 115.1220014
 122.6279992 100.2799978 115.7640014 122.0605070 100.1034666 115.1287152
 122.6489992 106.2169978 106.6960014 121.9039992 105.7089978 106.3740014
 122.5139992 106.2659978 107.6430014 122.5289047 106.1541596 106.7798845
 129.7989992 105.3499978 115.4830014 130.4399992 105.8059978 114.9390014
 128.9679992 105.4629978 115.0210014 129.7745171 105.4277502 115.3460237
 126.5459992  99.0309978 104.8960014 125.6079992  99.1419978 104.7440014
 126.8439992  99.8869978 105.2020014 126.4576402  99.1620621 104.9165571
 124.1679992 106.4009978 117.9330014 123.8219992 106.0189978 118.7400014
 123.9679992 107.3339978 118.0050014 124.0936523 106.4749095 118.0530735
 127.2649992 100.8979978 106.5560014 128.1569992 100.7599978 106.8750014
 127.3209992 101.6889978 106.0200014 127.3947107 100.9860526 106.5272091
 117.7729992 105.5119978 112.4660014 118.5179992 105.5089978 111.8650014
 117.8509992 104.6879978 112.9480014 117.8854158 105.4002916 112.4489153
 114.7809992 103.9719978 117.7810014 115.0039992 103.5539978 118.6130014
 114.1789992 103.3599978 117.3580014 114.7301260 103.8319933 117.8377320
 121.7979992 103.4889978 119.9940014 121.5019992 103.3239978 119.0990014
 122.7289992 103.2689978 119.9830014 121.8833982 103.4366578 119.8700045
 126.4179992 108.8629978 117.8840014 125.5179992 109.0459978 117.6160014
 126.4519992 109.1219978 118.8050014 126.2992909 108.9230815 117.9717852
 132.1499992 101.1069978 106.2510014 131.5949992 100.7109978 105.5790014
 132.2499992 102.0179978 105.9730014 132.0875888 101.1758990 106.1215206
 132.1129992 106.9079978 119.0880014 131.2619992 107.1459978 118.7210014
 132.7029992 106.8909978 118.3350014 132.0762408 106.9382966 118.9358879
 130.4449992 109.8929978 106.7160014 130.0719992 109.0679978 107.0250014
 130.7219992 109.7099978 105.8190014 130.4313871 109.7552441 106.6369677
 127.6049992 104.7009978 113.7370014 126.6769992 104.4699978 113.7100014
 128.0559992 103.9239978 113.4070014 127.5388165 104.5642774 113.6886790
 120.1479992 109.0299978 109.8700014 120.6759992 109.8029978 109.6700014
 119.2679992 109.2539978 109.5690014 120.1013176 109.1663161 109.8018409
 121.5759992 106.6929978 109.4470014 121.3349992 107.6179978 109.4880014
 120.8349992 106.2339978 109.8430014 121.4428390 106.7576403 109.5061404
 122.0899992 110.8419978 115.7620014 122.4529992 111.6959978 115.5280014
 122.6219992 110.5499978 116.5020014 122.2116090 110.9194058 115.8300219
 120.2589992 111.7139978 108.9920014 119.3089992 111.8199978 109.0430014
 120.6109992 112.5349978 109.3370014 120.1765480 111.8394438 109.0455999
 125.6339992 106.9409978 115.4620014 125.2089992 106.7129978 116.2890014
 126.2149992 106.2019978 115.2800014 125.6543930 106.8099843 115.5504732
 128.2929992 111.4929978 117.9320014 127.6909992 110.9369978 117.4360014
 128.5739992 112.1599978 117.3060014 128.2486829 111.5071613 117.7795443
 116.4149992  98.7259978 117.3390014 115.5229992  99.0639978 117.2720014
 116.3169992  97.8699978 117.7570014 116.2794965  98.6566499 117.3863044
 116.0669992 110.5299978 115.7740014 116.2839992 109.5979978 115.7430014
 116.3129992 110.8049978 116.6570014 116.1299809 110.4395686 115.8891690
 117.3179992 105.8039978 105.9500014 116.6319992 106.1569978 106.5170014
 117.8409992 106.5669978 105.7040014 117.2949033 105.9553746 105.9942661
 125.1499992  98.4669978 116.2290014 125.8489992  98.5409978 116.8790014
 124.7689992  97.6019978 116.3830014 125.1942097  98.3602389 116.3387997
 125.9339992  98.1189978 107.3260014 126.1539992  98.5899978 106.5230014
 126.4929992  98.5129978 107.9960014 126.0396730  98.2367432 107.3065906
 123.6029992 110.2489978 106.1890014 122.7859992 110.7459978 106.2410014
 124.1319992 110.7249978 105.5490014 123.5628508 110.3812543 106.1096035
 123.1339992  99.8469978 108.1610014 123.9459992 100.3509978 108.2070014
 122.8899992  99.7019978 109.0750014 123.2121467  99.8963749 108.2908575
 123.6699992 100.8329978 117.3460014 123.7889992 101.4069978 118.1030014
 124.3249992 100.1449978 117.4600014 123.7749146 100.8185574 117.4651314
 124.0179992  96.9279978 109.0990014 123.6709992  97.5449978 109.7440014
 124.6769992  97.4289978 108.6180014 124.0595949  97.0801099 109.1222271
 120.9409992 111.2929978 106.1710014 121.1019992 112.0929978 105.6700014
 120.7439992 111.5999978 107.0560014 120.9363919 111.4439129 106.2221006
 119.6759992  97.9909978 105.7860014 119.5919992  98.8789978 106.1330014
 120.5659992  97.7259978 106.0180014 119.7848163  98.0767179 105.8648596
 129.8739992  98.7399978 118.1810014 128.9579992  99.0019978 118.0930014
 130.2099992  98.7369978 117.2840014 129.7939789  98.7754626 118.0477847
 128.4769992 102.4899978 112.2760014 127.6789992 102.0749978 111.9480014
 128.9219992 101.7999978 112.7670014 128.4279684 102.3398628 112.2975227
 129.5629992 111.7459978 113.8990014 129.4069992 112.4249978 113.2420014
 130.4959992 111.8179978 114.1020014 129.6677387 111.8486390 113.8365342
 117.0579992  95.8639978 112.6360014 116.8289992  95.9229978 111.7080014
 116.6159992  95.0729978 112.9420014 116.9668801  95.7650540 112.5504729
 115.9889992 109.8049978 108.7960014 115.1559992 110.2769978 108.8240014
 116.5339992 110.3149978 108.1980014 115.9487590 109.9385897 108.7189194
 115.2769992 112.4169978 120.1260014 115.8169992 112.2009978 120.8860014
 114.7959992 111.6119978 119.9370014 115.2858613 112.2785400 120.2044782
 119.8739992 111.3369978 121.7470014 120.6419992 110.8779978 122.0880014
 119.8529992 111.1109978 120.8170014 119.9762135 111.2436668 121.6679491
 123.9659992 110.8449978 103.1220014 123.3219992 110.2139978 103.4430014
 124.7279992 110.3139978 102.8900014 123.9808058 110.6867902 103.1346038
 126.4509992 109.7169978 120.4760014 126.0999992 108.8599978 120.7190014
 127.1769992 109.8589978 121.0830014 126.5011590 109.6190178 120.5912907
 115.1839992 106.2279978 121.0810014 115.3279992 105.3259978 120.7940014
 114.4119992 106.5139978 120.5930014 115.0993303 106.1433243 120.9757908
 121.8389992 106.1969978 120.5130014 121.5109992 106.4679978 119.6560014
 121.9909992 105.2559978 120.4260014 121.8146030 106.1068973 120.3837945
 127.5739992 106.1129978 117.8970014 128.3189992 106.7019978 117.7770014
 126.8169992 106.6949978 117.9600014 127.5735205 106.2721997 117.8891119
 116.0169992 103.4279978 120.5010014 116.4249992 102.5709978 120.3800014
 115.7559992 103.4419978 121.4220014 116.0376016 103.3125119 120.6089192
 120.6749992 104.5439978 105.5190014 120.2149992 104.0599978 106.2050014
 120.9299992 103.8749978 104.8830014 120.6465038 104.3873689 105.5269447
 119.9639992 102.4369978 117.8750014 119.3449992 103.1109978 118.1550014
 120.3079992 102.7579978 117.0420014 119.9257605 102.5727198 117.8006707
 124.9829992 104.9079978 121.1520014 125.9369992 104.9919978 121.1250014
 124.8229992 104.1959978 121.7720014 125.0917182 104.8232842 121.2320733
 131.1359992 105.1409978 103.2270014 130.8619992 104.7169978 102.4140014
 131.1749992 106.0729978 103.0100014 131.1037716 105.2088827 103.0864286
 120.3029992  99.7919978 118.9570014 120.4529992  99.0629978 118.3550014
 120.3049992 100.5689978 118.3980014 120.3237967  99.7972708 118.7990541
 120.7159992  98.1609978 116.4500014 121.2509992  98.6129978 115.7980014
 119.8629992  98.0529978 116.0270014 120.6740374  98.2082665 116.3036710
 122.2969992 103.6009978 116.6890014 123.0479992 103.4449978 116.1160014
 121.9579992 104.4529978 116.4140014 122.3539587 103.6948138 116.5734078
 126.7129992 101.4159978 121.7180014 126.9049992 100.4849978 121.6060014
 127.5709992 101.8409978 121.7080014 126.8552269 101.3459928 121.7013192
 128.0299992 104.2049978 119.7950014 127.7479992 104.9139978 119.2180014
 128.9719992 104.1319978 119.6440014 128.1187656 104.2923128 119.6954809
 118.7819992 100.9899978 120.8690014 118.0139992 100.4569978 120.6590014
 119.4599992 100.6799978 120.2690014 118.7686973 100.8752375 120.7591796
 121.5209992  95.6179978 116.8810014 121.4229992  96.5639978 116.7760014
 120.7789992  95.2449978 116.4060014 121.4071913  95.6971813 116.8023539
 122.7849992  99.9389978 120.4450014 122.5499992  99.7199978 121.3470014
 122.0019992  99.7319978 119.9350014 122.6469219  99.8810066 120.4995852
 125.5009992  99.0669978 119.5210014 124.5529992  99.0989978 119.6530014
 125.8129992  98.4409978 120.1740014 125.4135190  98.9867262 119.6273564
 127.1349992  97.7009978 121.5260014 127.0379992  96.7489978 121.5200014
 126.8129992  97.9689978 122.3860014 127.0781761  97.6069744 121.6414936
 116.9619992  98.9099978 120.5730014 117.1739992  98.2039978 119.9630014
 116.8509992  98.4729978 121.4170014 116.9760269  98.7541921 120.6035873
 121.7429992  94.9119978 119.5530014 122.4549992  94.2719978 119.5390014
 121.6419992  95.1779978 118.6390014 121.8267261  94.8604190 119.4275537
 122.0969992  96.5939978 121.6060014 121.9649992  96.1189978 120.7860014
 121.4969992  97.3389978 121.5510014 121.9979070  96.6295789 121.4863251
 121.6429992 113.4769978 104.7830014 122.5759992 113.6349978 104.9260014
 121.3789992 114.1529978 104.1580014 121.7349308 113.5899104 104.7181396
 113.8599992 113.5069978 109.3430014 113.2129992 113.0449978 108.8100014
 114.2149992 112.8349978 109.9250014 113.8194506 113.3529503 109.3487341
 114.7299992 111.5869978 111.1470014 114.3959992 110.7069978 111.3190014
 114.9529992 111.9329978 112.0120014 114.7143721 111.5131938 111.2874168
 132.2789992 112.3969978 114.1280014 132.2569992 112.5819978 115.0670014
 132.9689992 112.9649978 113.7870014 132.3693439 112.4991887 114.2104791
 131.8419992 111.9639978 117.0500014 131.3549992 111.2289978 116.6790014
 132.3909992 111.5699978 117.7280014 131.8495247 111.8101057 117.0908461
 130.2929992 107.7539978 121.6880014 129.4269992 107.6489978 122.0820014
 130.6689992 108.5119978 122.1340014 130.2253401 107.8421708 121.8022620
 131.5939992 106.0099978 107.2020014 132.4439992 106.4309978 107.3290014
 131.5989992 105.2699978 107.8090014 131.7111143 105.9676094 107.3014750
 131.9879992 104.0639978 109.0260014 131.2619992 103.5839978 109.4230014
 132.5699992 104.2689978 109.7580014 131.9671635 104.0259166 109.1793748
 131.7469992 106.8489978 113.9730014 132.5809992 106.4709978 113.6930014
 131.8589992 107.7919978 113.8540014 131.8762522 106.9247742 113.9186020
 130.2339992 109.7269978 116.2800014 129.5859992 110.0519978 116.9060014
 129.7159992 109.2859978 115.6060014 130.0754168 109.7118523 116.2745307
 132.2569992 103.9649978 105.4170014 131.7349992 104.3209978 104.6980014
 132.2239992 104.6399978 106.0950014 132.1810699 104.1049848 105.4102129
 130.6059992 101.2039978 103.9680014 130.7019992 101.8709978 103.2880014
 130.4659992 100.3889978 103.4860014 130.6002063 101.1850667 103.8098377
 129.7749992 102.5849978 109.5890014 129.6249992 101.6399978 109.5680014
 129.4209992 102.8659978 110.4320014 129.7065527 102.4935605 109.7001859
 114.8099992 104.6629978 113.5990014 114.9949992 104.5809978 112.6630014
 115.6599992 104.5389978 114.0230014 114.9500916 104.6350393 113.5282896
 130.6309992 104.5549978 119.2270014 131.2139992 103.8199978 119.4190014
 131.1949992 105.3269978 119.2740014 130.7869781 104.5588145 119.2596164
 132.1279992 102.4579978 119.9120014 131.2649992 102.0789978 119.7460014
 132.7319992 101.7189978 119.8380014 132.0915944 102.3062978 119.8792984
 129.4859992 100.1669978 108.0510014 129.7649992  99.2599978 108.1750014
 130.2449992 100.6009978 107.6620014 129.6268619 100.1014502 108.0153795
 130.0969992 100.7489978 113.4870014 131.0299992 100.9609978 113.4530014
 129.8619992 100.8499978 114.4090014 130.1928308 100.7916503 113.6070214
 130.1269992 101.4859978 116.2630014 129.2839992 101.7539978 116.6290014
 130.5689992 102.3079978 116.0520014 130.0714138 101.6338273 116.2845518
 114.4079992  99.9329978 119.7400014 115.3269992  99.8109978 119.9760014
 113.9579992  99.1829978 120.1290014 114.4731148  99.8148751 119.8249408
 132.4099992  95.4659978 121.6160014 132.7589992  94.8119978 121.0110014
 132.5569992  96.3029978 121.1770014 132.4777355  95.4896067 121.4736564
 130.0989992  97.4299978 108.0990014 130.2809992  96.9809978 108.9250014
 129.4989992  96.8459978 107.6360014 130.0427529  97.2896131 108.1493619
 115.6289992  98.2459978 112.6310014 116.0739992  97.4539978 112.9330014
 116.0949992  98.9619978 113.0620014 115.7529059  98.2344474 112.7306079
 113.9329992 101.2449978 113.7000014 114.4249992 101.0239978 112.9090014
 114.2949992 102.0849978 113.9810014 114.0492923 101.3283468 113.6297407
 131.9289992  97.5749978 119.9660014 131.0119992  97.8459978 119.9300014
 132.0519992  97.0399978 119.1820014 131.8200828  97.5397700 119.8550785
 114.2469992  97.5029978 107.7540014 113.3219992  97.7109978 107.6250014
 114.7009992  97.9869978 107.0650014 114.1816374  97.5969949 107.6430957
 129.0169992 112.4869978 109.7000014 129.6699992 112.1389978 109.0920014
 129.5279992 112.9749978 110.3460014 129.1752777 112.5053815 109.7042047
 114.2099992  96.2409978 116.0990014 113.5449992  95.9949978 116.7420014
 113.7669992  96.8629978 115.5210014 114.0590937  96.2913614 116.1089379
 116.4019992 109.4159978 120.2430014 115.5809992 109.5909978 119.7830014
 116.1499992 109.3429978 121.1640014 116.2556173 109.4300794 120.3044972
 119.3559992 110.3899978 116.5020014 118.9319992 111.1999978 116.2190014
 120.2609992 110.4759978 116.2000014 119.4202433 110.5123331 116.4225377
 123.6679992 111.7889978 119.4610014 123.8519992 111.4559978 120.3390014
 124.5139992 112.0989978 119.1390014 123.8076484 111.7852979 119.5377617
 126.0129992 113.0749978 118.7050014 126.6899992 112.4419978 118.4650014
 126.3339992 113.4759978 119.5120014 126.1491323 113.0425691 118.7813158
 130.9299992  95.6649978 117.7850014 130.1169992  95.9899978 117.3970014
 131.1629992  94.9039978 117.2520014 130.8502566  95.6066559 117.6599213
 116.7579992 113.6469978 116.5490014 116.0379992 114.0869978 116.0980014
 116.3929992 113.3959978 117.3980014 116.6099796 113.6733824 116.6019329
 119.2249992 113.2469978 115.5790014 118.3609992 113.3189978 115.9830014
 119.1699992 113.7939978 114.7950014 119.0991942 113.3307849 115.5284000
 123.9359992 113.1349978 114.7540014 123.4789992 113.6639978 114.1000014
 124.0989992 113.7379978 115.4800014 123.8954476 113.2889140 114.7625499
 126.2639992 112.0129978 115.6990014 125.3589992 112.1779978 115.4340014
 126.6919992 112.8659978 115.6340014 126.1980700 112.1509529 115.6539520
 128.8679992 113.5829978 115.9940014 128.6859992 114.4989978 115.7840014
 129.0449992 113.1719978 115.1480014 128.8669907 113.6529741 115.8507883
 116.1729992 112.2699978 113.4590014 116.1549992 111.8439978 114.3170014
 116.9779992 111.9509978 113.0510014 116.2793221 112.1687233 113.5210225
 118.3139992 110.9799978 112.1140014 118.0949992 110.0629978 112.2840014
 119.1379992 111.1199978 112.5800014 118.3954702 110.8735511 112.2002527
 120.8509992 111.4499978 112.9630014 121.0639992 110.5619978 112.6760014
 120.9159992 111.4149978 113.9180014 120.8889075 111.3238307 113.0527373
 124.3599992  97.1139978 112.1070014 123.6859992  96.4839978 112.3630014
 124.9239992  96.6299978 111.5040014 124.3440384  96.9623708 112.0605020
 129.5029992  95.2209978 112.2200014 130.1059992  95.7689978 111.7180014
 128.6329992  95.5399978 111.9800014 129.4679190  95.3391041 112.1188679
 131.2299992  96.3599978 110.5530014 131.8409992  95.8459978 110.0270014
 131.6119992  97.2369978 110.5770014 131.3654475  96.4081323 110.4841208
 116.6869992  95.7479978 109.9290014 115.9099992  95.5129978 109.4220014
 117.2169992  94.9509978 109.9380014 116.6523451  95.6081268 109.8608627
 121.2659992  95.6739978 109.7430014 122.1399992  96.0629978 109.7130014
 121.1299992  95.4589978 110.6650014 121.3673207  95.6981923 109.8636509
 126.8229992  95.7039978 111.3920014 126.8989992  95.7999978 110.4430014
 126.5479992  94.7969978 111.5210014 126.7962042  95.5944241 111.2793811
 128.1759992  95.7299978 107.0840014 127.4729992  96.3449978 106.8750014
 127.7309992  94.8929978 107.2160014 128.0196292  95.7010085 107.0732439
 115.4239992 111.4939978 106.6310014 114.7389992 111.4559978 105.9630014
 115.4279992 112.4069978 106.9190014 115.3308174 111.6121998 106.5785310
 122.4099992  97.7549978 106.6330014 122.5879992  97.1079978 107.3150014
 122.3559992  98.5889978 107.1000014 122.4271025  97.7790504 106.7896433
 130.9969992 112.2659978 107.7070014 130.8029992 111.5179978 107.1420014
 130.9579992 113.0239978 107.1240014 130.9651645 112.2660786 107.5508148
 116.6439992  96.2619978 119.4470014 116.2779992  95.4959978 119.8900014
 117.5569992  96.2909978 119.7340014 116.7173225  96.1611906 119.5463459
 118.6169992  95.6119978 120.9830014 119.5159992  95.3379978 120.7980014
 118.2309992  94.8699978 121.4470014 118.6877237  95.4741508 121.0204710
 127.0389992  94.9449978 121.1650014 127.1149992  94.5189978 122.0190014
 127.9319992  94.9579978 120.8220014 127.1702267  94.8883952 121.2355932
 130.2149992 111.0179978 119.8570014 129.4329992 110.8309978 119.3380014
 130.1429992 111.9469978 120.0750014 130.0980863 111.1180221 119.8153574
 144.6209992 104.9039978 109.8880014 144.7099992 105.8479978 109.7560014
 143.9829992 104.6289978 109.2300014 144.5469062 104.9959812 109.7809641
 143.5539992 104.1589978 113.3070014 143.5159992 103.5129978 114.0120014
 143.2319992 103.6919978 112.5360014 143.5052679 104.0074276 113.2992921
 135.9219992 103.7729978 114.9000014 135.9639992 103.1479978 115.6230014
 136.6249992 104.3969978 115.0820014 136.0227345 103.7717873 115.0235273
 136.8459992 108.2229978 113.4350014 136.4759992 107.4209978 113.0650014
 137.7869992 108.0549978 113.4810014 136.9225984 108.0904638 113.3905603
 133.4559992 101.8829978 108.8280014 133.0079992 102.7289978 108.8090014
 132.8949992 101.3039978 108.3120014 133.3189603 101.9203674 108.7556720
 134.1659992 104.0449978 110.9540014 134.3799992 103.2749978 111.4810014
 134.9039992 104.1349978 110.3500014 134.2949652 103.9518012 110.9445212
 144.3719992 112.2019978 111.8210014 144.9909992 111.5259978 111.5470014
 144.1629992 111.9839978 112.7290014 144.4286232 112.0797938 111.9062517
 141.9429992 106.5909978 113.7130014 142.2469992 105.9049978 113.1190014
 142.6649992 106.7099978 114.3310014 142.0821152 106.5132189 113.7152123
 145.0839992 100.9849978 114.0410014 145.2269992 100.0389978 114.0610014
 144.9779992 101.1919978 113.1120014 145.0892509 100.8834813 113.9182231
 138.2389992  99.0869978 111.3130014 138.2819992  99.9469978 110.8950014
 137.7809992  98.5349978 110.6790014 138.1829815  99.1300621 111.1701197
 134.8589992 101.4839978 112.0750014 135.5129992 100.9339978 112.5070014
 134.8829992 101.2099978 111.1580014 134.9517199 101.3717167 112.0101668
 140.0159992 103.0339978 111.2900014 140.6319992 102.5069978 111.8000014
 139.4289992 102.3939978 110.8870014 140.0209239 102.8754117 111.3052952
 137.0489992  98.0049978 115.3870014 136.8299992  98.5349978 114.6210014
 136.3809992  98.2309978 116.0340014 136.9287001  98.1081154 115.3696064
 144.4179992 107.5049978 108.9310014 144.1229992 107.1819978 108.0800014
 144.0939992 108.4049978 108.9720014 144.3337983 107.5824026 108.8199771
 139.6179992 105.6799978 115.6750014 138.8779992 106.2789978 115.7780014
 140.3319992 106.2339978 115.3590014 139.6133288 105.8367356 115.6463805
 136.6429992  99.8969978 113.3390014 137.2569992 100.5299978 113.7130014
 137.1549992  99.4249978 112.6830014 136.7962277  99.9197352 113.3014279
 138.0259992 107.6449978 116.4620014 138.0199992 108.5239978 116.0840014
 137.1719992 107.5609978 116.8870014 137.9097925 107.7539535 116.4676887
 134.1469992 107.3159978 107.2440014 133.8749992 107.5449978 106.3550014
 134.1919992 108.1529978 107.7040014 134.1158709 107.4606058 107.1846107
 141.0759992  95.3099978 112.8400014 140.9579992  94.3619978 112.7850014
 140.2209992  95.6429978 113.1130014 140.9442679  95.2251926 112.8693720
 143.3419992 104.1479978 107.3400014 142.6309992 104.6829978 106.9880014
 144.0329992 104.2029978 106.6800014 143.3380751 104.2286777 107.2025858
 138.3929992 104.9879978 110.1740014 138.0629992 104.6169978 109.3560014
 138.9819992 104.3169978 110.5210014 138.4273970 104.8466063 110.1089404
 139.7599992 108.4159978 112.8560014 139.6649992 107.8369978 112.0990014
 140.4889992 108.0449978 113.3520014 139.8456161 108.2865891 112.8195209
 138.7599992 103.7559978 113.8080014 139.3249992 103.8779978 113.0450014
 139.0789992 104.3939978 114.4470014 138.8803977 103.8588851 113.7899424
 145.0689992 109.2599978 114.5420014 144.8289992 109.9219978 115.1900014
 144.8709992 108.4249978 114.9670014 145.0093826 109.2378115 114.6881566
 139.6399992 108.1559978 118.5250014 139.3289992 108.9379978 118.9800014
 138.9899992 108.0029978 117.8390014 139.5095538 108.2424087 118.4945898
 136.5599992 104.3539978 117.7540014 136.6299992 105.0049978 118.4520014
 135.6689992 104.4569978 117.4190014 136.4491802 104.4569757 117.8042249
 143.3449992 110.2559978 109.4120014 143.8189992 110.5519978 110.1900014
 142.7819992 110.9949978 109.1790014 143.3337361 110.3962721 109.4868611
 137.8789992 110.2269978 119.2880014 137.8869992 110.0909978 118.3410014
 136.9629992 110.1099978 119.5400014 137.7562528 110.1925463 119.1923243
 137.3839992 104.0569978 107.7640014 137.0919992 104.8249978 107.2730014
 136.7089992 103.3979978 107.6010014 137.2528497 104.0729745 107.6748260
 133.4769992 106.4199978 116.5790014 132.9749992 106.3919978 115.7640014
 133.4819992 105.5149978 116.8880014 133.4090416 106.2937368 116.5093766
 133.2269992 109.2009978 113.4630014 134.1729992 109.0559978 113.4440014
 133.1139992 109.9849978 114.0000014 133.3413578 109.2871697 113.5330317
 142.4029992 109.4409978 118.0210014 142.4909992 110.2669978 118.4960014
 141.5399992 109.1109978 118.2700014 142.2983357 109.5095468 118.1197653
 142.8179992 113.2129978 107.8270014 142.7419992 113.0919978 106.8810014
 142.8499992 114.1619978 107.9460014 142.8119156 113.3247530 107.7135048
 136.4709992 112.0019978 109.6080014 136.6229992 111.6539978 110.4870014
 135.6199992 111.6449978 109.3530014 136.3767899 111.9061738 109.6937340
 135.7259992 107.7439978 117.6220014 135.9419992 107.3819978 118.4810014
 134.8699992 107.3689978 117.4120014 135.6399354 107.6437906 117.7112160
 138.3439992  96.2139978 113.6170014 137.4829992  96.1269978 113.2100014
 138.3219992  97.0699978 114.0450014 138.2230411  96.3177884 113.6190857
 143.0069992  95.9359978 116.9920014 143.4269992  95.5209978 117.7450014
 142.0739992  95.7569978 117.1090014 142.9383736  95.8549910 117.1108968
 142.6689992  98.4279978 104.2770014 142.4149992  98.4469978 105.2000014
 142.4119992  97.5569978 103.9760014 142.5995133  98.3128110 104.3625082
 138.4349992 101.1789978 114.7120014 137.7939992 101.1389978 115.4210014
 138.4729992 102.1059978 114.4750014 138.3523670 101.2987795 114.7770550
 138.4319992 101.3999978 109.6240014 137.5399992 101.0599978 109.5660014
 138.8829992 101.0229978 108.8690014 138.3706815 101.3023762 109.5139203
 143.9679992 101.8159978 108.4410014 143.5589992 102.6309978 108.1500014
 144.6879992 101.6759978 107.8270014 144.0094013 101.9086571 108.3180875
 143.0699992 101.9919978 119.9290014 142.5069992 101.2869978 120.2500014
 143.8959992 101.8709978 120.3970014 143.1046674 101.8792165 120.0361751
 144.9729992 101.2619978 111.2550014 144.7769992 101.8679978 110.5400014
 145.1539992 100.4289978 110.8210014 144.9706584 101.2322513 111.0984212
 136.1849992 101.4999978 116.5790014 136.1469992 101.8999978 117.4480014
 135.6949992 100.6829978 116.6700014 136.1135621 101.4442510 116.7101377
 139.5509992  98.8739978 103.3780014 139.1199992  98.4289978 104.1080014
 138.8329992  99.2449978 102.8660014 139.3949363  98.8632968 103.4086211
 132.7939992  98.6159978 110.4300014 133.4239992  98.5869978 111.1490014
 133.2429992  98.1909978 109.7000014 132.9410692  98.5545316 110.4297771
 134.0679992  99.3619978 105.8540014 134.5419992  99.9529978 105.2690014
 133.3499992  99.8919978 106.2010014 134.0358640  99.5145511 105.8207969
 144.2369992 102.8999978 115.9270014 144.5599992 102.2689978 115.2840014
 143.7959992 102.3659978 116.5870014 144.2215789 102.7413522 115.9282232
 141.0139992  98.8279978 110.7110014 140.1029992  98.8849978 110.9990014
 141.5189992  98.7679978 111.5210014 140.9575387  98.8276870 110.8600646
 135.8419992 100.4569978 109.5370014 134.9529992 100.5559978 109.1970014
 136.1389992  99.6149978 109.1910014 135.7604177 100.3567687 109.4436940
 139.4949992 100.4569978 107.1940014 140.4269992 100.5859978 107.3720014
 139.2799992 101.1259978 106.5440014 139.5934472 100.5650806 107.1304891
 145.4189992  98.0629978 113.9750014 144.7419992  98.1939978 114.6390014
 144.9339992  97.9079978 113.1650014 145.2607265  98.0599659 113.9563397
 136.3049992 106.2079978 119.8600014 137.0369992 106.4629978 120.4210014
 135.5239992 106.4129978 120.3750014 136.2997684 106.2706468 120.0064782
 142.3339992 101.6149978 112.5980014 142.8979992 101.0689978 112.0510014
 142.1859992 101.0939978 113.3860014 142.3912575 101.4696552 112.6296987
 137.3359992  97.7519978 109.0160014 137.0189992  96.8489978 108.9810014
 138.1169992  97.7539978 108.4630014 137.3982307  97.6286951 108.9364314
 140.9599992 100.0039978 115.0120014 140.1249992 100.4579978 115.1220014
 141.4839992 100.2799978 115.7640014 140.9165070 100.1034665 115.1287152
 141.5049992 106.2169978 106.6960014 140.7599992 105.7089978 106.3740014
 141.3699992 106.2659978 107.6430014 141.3849047 106.1541596 106.7798845
 145.4019992  99.0309978 104.8960014 144.4639992  99.1419978 104.7440014
 145.6999992  99.8869978 105.2020014 145.3136402  99.1620621 104.9165571
 143.0239992 106.4009978 117.9330014 142.6779992 106.0189978 118.7400014
 142.8239992 107.3339978 118.0050014 142.9496523 106.4749095 118.0530735
 136.6289992 105.5119978 112.4660014 137.3739992 105.5089978 111.8650014
 136.7069992 104.6879978 112.9480014 136.7414158 105.4002916 112.4489153
 143.6299992 107.6749978 105.7220014 143.3349992 108.5019978 106.1030014
 142.9269992 107.0559978 105.9180014 143.4945471 107.7045227 105.8006698
 133.6369992 103.9719978 117.7810014 133.8599992 103.5539978 118.6130014
 133.0349992 103.3599978 117.3580014 133.5861260 103.8319933 117.8377320
 140.6539992 103.4889978 119.9940014 140.3579992 103.3239978 119.0990014
 141.5849992 103.2689978 119.9830014 140.7393982 103.4366578 119.8700045
 145.2739992 108.8629978 117.8840014 144.3739992 109.0459978 117.6160014
 145.3079992 109.1219978 118.8050014 145.1552909 108.9230815 117.9717852
 139.0039992 109.0299978 109.8700014 139.5319992 109.8029978 109.6700014
 138.1239992 109.2539978 109.5690014 138.9573176 109.1663161 109.8018409
 140.4319992 106.6929978 109.4470014 140.1909992 107.6179978 109.4880014
 139.6909992 106.2339978 109.8430014 140.2988390 106.7576403 109.5061404
 140.9459992 110.8419978 115.7620014 141.3089992 111.6959978 115.5280014
 141.4779992 110.5499978 116.5020014 141.0676090 110.9194058 115.8300219
 139.1149992 111.7139978 108.9920014 138.1649992 111.8199978 109.0430014
 139.4669992 112.5349978 109.3370014 139.0325480 111.8394438 109.0455999
 144.4899992 106.9409978 115.4620014 144.0649992 106.7129978 116.2890014
 145.0709992 106.2019978 115.2800014 144.5103930 106.8099843 115.5504731
 135.2709992  98.7259978 117.3390014 134.3789992  99.0639978 117.2720014
 135.1729992  97.8699978 117.7570014 135.1354965  98.6566499 117.3863044
 134.9229992 110.5299978 115.7740014 135.1399992 109.5979978 115.7430014
 135.1689992 110.8049978 116.6570014 134.9859809 110.4395686 115.8891691
 139.7209992 108.5519978 105.4400014 139.8679992 108.0319978 106.2300014
 139.7179992 109.4589978 105.7460014 139.7407300 108.6033964 105.5895895
 136.1739992 105.8039978 105.9500014 135.4879992 106.1569978 106.5170014
 136.6969992 106.5669978 105.7040014 136.1509033 105.9553746 105.9942661
 144.0059992  98.4669978 116.2290014 144.7049992  98.5409978 116.8790014
 143.6249992  97.6019978 116.3830014 144.0502097  98.3602389 116.3387997
 144.7899992  98.1189978 107.3260014 145.0099992  98.5899978 106.5230014
 145.3489992  98.5129978 107.9960014 144.8956730  98.2367432 107.3065906
 141.9899992  99.8469978 108.1610014 142.8019992 100.3509978 108.2070014
 141.7459992  99.7019978 109.0750014 142.0681467  99.8963749 108.2908575
 142.5259992 100.8329978 117.3460014 142.6449992 101.4069978 118.1030014
 143.1809992 100.1449978 117.4600014 142.6309146 100.8185574 117.4651314
 142.8739992  96.9279978 109.0990014 142.5269992  97.5449978 109.7440014
 143.5329992  97.4289978 108.6180014 142.9155949  97.0801099 109.1222271
 138.5319992  97.9909978 105.7860014 138.4479992  98.8789978 106.1330014
 139.4219992  97.7259978 106.0180014 138.6408163  98.0767179 105.8648596
 136.7899992 108.4179978 104.8470014 137.3819992 109.1179978 105.1230014
 137.2489992 107.9849978 104.1270014 136.9330791 108.4552908 104.7874607
 135.9139992  95.8639978 112.6360014 135.6849992  95.9229978 111.7080014
 135.4719992  95.0729978 112.9420014 135.8228801  95.7650540 112.5504729
 134.8449992 109.8049978 108.7960014 134.0119992 110.2769978 108.8240014
 135.3899992 110.3149978 108.1980014 134.8047590 109.9385897 108.7189194
 134.1329992 112.4169978 120.1260014 134.6729992 112.2009978 120.8860014
 133.6519992 111.6119978 119.9370014 134.1418613 112.2785400 120.2044782
 138.7299992 111.3369978 121.7470014 139.4979992 110.8779978 122.0880014
 138.7089992 111.1109978 120.8170014 138.8322135 111.2436668 121.6679491
 145.3069992 109.7169978 120.4760014 144.9559992 108.8599978 120.7190014
 146.0329992 109.8589978 121.0830014 145.3571590 109.6190178 120.5912907
 134.0399992 106.2279978 121.0810014 134.1839992 105.3259978 120.7940014
 133.2679992 106.5139978 120.5930014 133.9553303 106.1433243 120.9757908
 138.3809992 106.5709978 103.2130014 138.4459992 105.7769978 103.7440014
 139.0339992 106.4529978 102.5230014 138.4781754 106.4463337 103.1924259
 140.6949992 106.1969978 120.5130014 140.3669992 106.4679978 119.6560014
 140.8469992 105.2559978 120.4260014 140.6706030 106.1068973 120.3837945
 134.8729992 103.4279978 120.5010014 135.2809992 102.5709978 120.3800014
 134.6119992 103.4419978 121.4220014 134.8936016 103.3125119 120.6089192
 138.8199992 102.4369978 117.8750014 138.2009992 103.1109978 118.1550014
 139.1639992 102.7579978 117.0420014 138.7817605 102.5727198 117.8006707
 143.8389992 104.9079978 121.1520014 144.7929992 104.9919978 121.1250014
 143.6789992 104.1959978 121.7720014 143.9477182 104.8232842 121.2320733
 139.1589992  99.7919978 118.9570014 139.3089992  99.0629978 118.3550014
 139.1609992 100.5689978 118.3980014 139.1797967  99.7972708 118.7990541
 139.5719992  98.1609978 116.4500014 140.1069992  98.6129978 115.7980014
 138.7189992  98.0529978 116.0270014 139.5300374  98.2082665 116.3036710
 141.1529992 103.6009978 116.6890014 141.9039992 103.4449978 116.1160014
 140.8139992 104.4529978 116.4140014 141.2099587 103.6948138 116.5734078
 145.5689992 101.4159978 121.7180014 145.7609992 100.4849978 121.6060014
 146.4269992 101.8409978 121.7080014 145.7112269 101.3459928 121.7013192
 137.6379992 100.9899978 120.8690014 136.8699992 100.4569978 120.6590014
 138.3159992 100.6799978 120.2690014 137.6246973 100.8752375 120.7591796
 140.3769992  95.6179978 116.8810014 140.2789992  96.5639978 116.7760014
 139.6349992  95.2449978 116.4060014 140.2631913  95.6971813 116.8023539
 141.6409992  99.9389978 120.4450014 141.4059992  99.7199978 121.3470014
 140.8579992  99.7319978 119.9350014 141.5029219  99.8810066 120.4995852
 144.3569992  99.0669978 119.5210014 143.4089992  99.0989978 119.6530014
 144.6689992  98.4409978 120.1740014 144.2695190  98.9867262 119.6273563
 135.8179992  98.9099978 120.5730014 136.0299992  98.2039978 119.9630014
 135.7069992  98.4729978 121.4170014 135.8320269  98.7541921 120.6035873
 140.5989992  94.9119978 119.5530014 141.3109992  94.2719978 119.5390014
 140.4979992  95.1779978 118.6390014 140.6827261  94.8604190 119.4275537
 140.9529992  96.5939978 121.6060014 140.8209992  96.1189978 120.7860014
 140.3529992  97.3389978 121.5510014 140.8539070  96.6295789 121.4863251
 134.0669992 108.1139978 104.2650014 134.9809992 108.1929978 104.5390014
 134.0749992 107.4269978 103.5990014 134.1931143 108.0319085 104.2124274
 132.7159992 113.5069978 109.3430014 132.0689992 113.0449978 108.8100014
 133.0709992 112.8349978 109.9250014 132.6754506 113.3529503 109.3487341
 133.5859992 111.5869978 111.1470014 133.2519992 110.7069978 111.3190014
 133.8089992 111.9329978 112.0120014 133.5703721 111.5131938 111.2874168
 133.6659992 104.6629978 113.5990014 133.8509992 104.5809978 112.6630014
 134.5159992 104.5389978 114.0230014 133.8060916 104.6350393 113.5282896
 133.2639992  99.9329978 119.7400014 134.1829992  99.8109978 119.9760014
 132.8139992  99.1829978 120.1290014 133.3291148  99.8148751 119.8249408
 134.4849992  98.2459978 112.6310014 134.9299992  97.4539978 112.9330014
 134.9509992  98.9619978 113.0620014 134.6089059  98.2344474 112.7306079
 132.7889992 101.2449978 113.7000014 133.2809992 101.0239978 112.9090014
 133.1509992 102.0849978 113.9810014 132.9052923 101.3283468 113.6297407
 133.1029992  97.5029978 107.7540014 132.1779992  97.7109978 107.6250014
 133.5569992  97.9869978 107.0650014 133.0376374  97.5969949 107.6430957
 133.0659992  96.2409978 116.0990014 132.4009992  95.9949978 116.7420014
 132.6229992  96.8629978 115.5210014 132.9150937  96.2913614 116.1089379
 135.2579992 109.4159978 120.2430014 134.4369992 109.5909978 119.7830014
 135.0059992 109.3429978 121.1640014 135.1116173 109.4300794 120.3044972
 138.2119992 110.3899978 116.5020014 137.7879992 111.1999978 116.2190014
 139.1169992 110.4759978 116.2000014 138.2762433 110.5123331 116.4225377
 142.5239992 111.7889978 119.4610014 142.7079992 111.4559978 120.3390014
 143.3699992 112.0989978 119.1390014 142.6636484 111.7852979 119.5377617
 144.8689992 113.0749978 118.7050014 145.5459992 112.4419978 118.4650014
 145.1899992 113.4759978 119.5120014 145.0051323 113.0425691 118.7813158
 135.6139992 113.6469978 116.5490014 134.8939992 114.0869978 116.0980014
 135.2489992 113.3959978 117.3980014 135.4659796 113.6733824 116.6019329
 138.0809992 113.2469978 115.5790014 137.2169992 113.3189978 115.9830014
 138.0259992 113.7939978 114.7950014 137.9551942 113.3307849 115.5284000
 142.7919992 113.1349978 114.7540014 142.3349992 113.6639978 114.1000014
 142.9549992 113.7379978 115.4800014 142.7514476 113.2889140 114.7625499
 145.1199992 112.0129978 115.6990014 144.2149992 112.1779978 115.4340014
 145.5479992 112.8659978 115.6340014 145.0540700 112.1509529 115.6539520
 135.0289992 112.2699978 113.4590014 135.0109992 111.8439978 114.3170014
 135.8339992 111.9509978 113.0510014 135.1353221 112.1687233 113.5210225
 137.1699992 110.9799978 112.1140014 136.9509992 110.0629978 112.2840014
 137.9939992 111.1199978 112.5800014 137.2514702 110.8735511 112.2002527
 139.7069992 111.4499978 112.9630014 139.9199992 110.5619978 112.6760014
 139.7719992 111.4149978 113.9180014 139.7449075 111.3238307 113.0527373
 143.2159992  97.1139978 112.1070014 142.5419992  96.4839978 112.3630014
 143.7799992  96.6299978 111.5040014 143.2000384  96.9623708 112.0605020
 135.5429992  95.7479978 109.9290014 134.7659992  95.5129978 109.4220014
 136.0729992  94.9509978 109.9380014 135.5083451  95.6081268 109.8608627
 140.1219992  95.6739978 109.7430014 140.9959992  96.0629978 109.7130014
 139.9859992  95.4589978 110.6650014 140.2233207  95.6981923 109.8636509
 141.2659992  97.7549978 106.6330014 141.4439992  97.1079978 107.3150014
 141.2119992  98.5889978 107.1000014 141.2831025  97.7790504 106.7896433
 135.4999992  96.2619978 119.4470014 135.1339992  95.4959978 119.8900014
 136.4129992  96.2909978 119.7340014 135.5733225  96.1611906 119.5463459
 137.4729992  95.6119978 120.9830014 138.3719992  95.3379978 120.7980014
 137.0869992  94.8699978 121.4470014 137.5437237  95.4741508 121.0204710
  12.6289992 123.7599978 109.8880014  12.7179992 124.7039978 109.7560014
  11.9909992 123.4849978 109.2300014  12.5549061 123.8519812 109.7809641
  11.5619992 123.0149978 113.3070014  11.5239992 122.3689978 114.0120014
  11.2399992 122.5479978 112.5360014  11.5132679 122.8634276 113.2992921
   3.9299992 122.6289978 114.9000014   3.9719992 122.0039978 115.6230014
   4.6329992 123.2529978 115.0820014   4.0307345 122.6277873 115.0235274
  15.2679992 125.9539978 111.6090014  14.8269992 125.2339978 112.0590014
  15.2549992 126.6749978 112.2380014  15.2057960 125.9528329 111.7557567
   4.8539992 127.0789978 113.4350014   4.4839992 126.2769978 113.0650014
   5.7949992 126.9109978 113.4810014   4.9305984 126.9464638 113.3905603
   1.4639992 120.7389978 108.8280014   1.0159992 121.5849978 108.8090014
   0.9029992 120.1599978 108.3120014   1.3269603 120.7763674 108.7556720
   2.1739992 122.9009978 110.9540014   2.3879992 122.1309978 111.4810014
   2.9119992 122.9909978 110.3500014   2.3029652 122.8078012 110.9445212
  12.3799992 131.0579978 111.8210014  12.9989992 130.3819978 111.5470014
  12.1709992 130.8399978 112.7290014  12.4366232 130.9357938 111.9062517
   9.9509992 125.4469978 113.7130014  10.2549992 124.7609978 113.1190014
  10.6729992 125.5659978 114.3310014  10.0901152 125.3692189 113.7152123
  18.6139992 117.0489978 114.5740014  18.6639992 117.6589978 115.3100014
  19.0399992 117.5099978 113.8510014  18.6784108 117.1947709 114.5770112
  13.0919992 119.8409978 114.0410014  13.2349992 118.8949978 114.0610014
  12.9859992 120.0479978 113.1120014  13.0972509 119.7394813 113.9182231
   6.2469992 117.9429978 111.3130014   6.2899992 118.8029978 110.8950014
   5.7889992 117.3909978 110.6790014   6.1909815 117.9860621 111.1701197
  13.9689992 118.0739978 109.7140014  14.6159992 117.7449978 110.3390014
  14.4789992 118.5909978 109.0910014  14.1264317 118.0989227 109.7152167
   2.8669992 120.3399978 112.0750014   3.5209992 119.7899978 112.5070014
   2.8909992 120.0659978 111.1580014   2.9597199 120.2277167 112.0101668
   8.0239992 121.8899978 111.2900014   8.6399992 121.3629978 111.8000014
   7.4369992 121.2499978 110.8870014   8.0289239 121.7314117 111.3052952
  19.0059992 118.5269978 116.8100014  18.3169992 119.1849978 116.7140014
  19.0209992 118.3289978 117.7460014  18.9136741 118.5903243 116.9234630
   5.0569992 116.8609978 115.3870014   4.8379992 117.3909978 114.6210014
   4.3889992 117.0869978 116.0340014   4.9367001 116.9641154 115.3696064
  12.4259992 126.3609978 108.9310014  12.1309992 126.0379978 108.0800014
  12.1019992 127.2609978 108.9720014  12.3417983 126.4384026 108.8199771
   7.6259992 124.5359978 115.6750014   6.8859992 125.1349978 115.7780014
   8.3399992 125.0899978 115.3590014   7.6213288 124.6927356 115.6463805
  15.7329992 117.3649978 111.6940014  15.5179992 116.5989978 112.2270014
  16.3889992 117.8369978 112.2070014  15.7922673 117.3240728 111.8361990
   4.6509992 118.7529978 113.3390014   5.2649992 119.3859978 113.7130014
   5.1629992 118.2809978 112.6830014   4.8042277 118.7757352 113.3014279
   6.0339992 126.5009978 116.4620014   6.0279992 127.3799978 116.0840014
   5.1799992 126.4169978 116.8870014   5.9177925 126.6099535 116.4676887
  15.7799992 127.7929978 113.9560014  14.8379992 127.8519978 114.1180014
  16.0559992 128.6989978 113.8190014  15.6885865 127.9235288 113.9596192
  16.0799992 116.0799978 115.3740014  15.3439992 116.6899978 115.3360014
  16.7639992 116.4949978 114.8470014  16.0715506 116.2196400 115.2976051
   9.0839992 114.1659978 112.8400014   8.9659992 113.2179978 112.7850014
   8.2289992 114.4989978 113.1130014   8.9522679 114.0811926 112.8693720
  14.0319992 129.5739978 110.5820014  14.4569992 128.8669978 110.0970014
  14.3489992 130.3759978 110.1650014  14.1330266 129.5855190 110.4592479
  15.1919992 127.4749978 109.0900014  14.9339992 126.7849978 108.4790014
  15.2629992 127.0319978 109.9360014  15.1662837 127.3207106 109.1206912
  16.8779992 126.0419978 117.5680014  17.0169992 125.4499978 116.8280014
  17.0449992 126.9149978 117.2110014  16.9195562 126.0789896 117.4186283
  11.3499992 123.0039978 107.3400014  10.6389992 123.5389978 106.9880014
  12.0409992 123.0589978 106.6800014  11.3460751 123.0846777 107.2025858
  18.7189992 122.3819978 115.6340014  18.0669992 123.0759978 115.7230014
  19.1849992 122.5919978 114.8240014  18.6925937 122.5055019 115.5367533
  14.7559992 123.2129978 108.2920014  14.0239992 123.4419978 108.8650014
  15.2029992 122.4999978 108.7470014  14.7162753 123.1478972 108.4319715
  14.6529992 121.3879978 117.3600014  14.7329992 122.1509978 117.9310014
  14.0519992 121.6669978 116.6690014  14.5827245 121.5302630 117.3448424
   6.4009992 123.8439978 110.1740014   6.0709992 123.4729978 109.3560014
   6.9899992 123.1729978 110.5210014   6.4353970 123.7026063 110.1089404
   7.7679992 127.2719978 112.8560014   7.6729992 126.6929978 112.0990014
   8.4969992 126.9009978 113.3520014   7.8536161 127.1425891 112.8195209
   6.7679992 122.6119978 113.8080014   7.3329992 122.7339978 113.0450014
   7.0869992 123.2499978 114.4470014   6.8883977 122.7148851 113.7899424
  13.0769992 128.1159978 114.5420014  12.8369992 128.7779978 115.1900014
  12.8789992 127.2809978 114.9670014  13.0173826 128.0938115 114.6881566
   7.6479992 127.0119978 118.5250014   7.3369992 127.7939978 118.9800014
   6.9979992 126.8589978 117.8390014   7.5175538 127.0984087 118.4945898
  13.6269992 122.3759978 105.9770014  14.2059992 122.5259978 106.7240014
  14.0409992 122.8459978 105.2540014  13.7623122 122.4601277 105.9815042
   4.5679992 123.2099978 117.7540014   4.6379992 123.8609978 118.4520014
   3.6769992 123.3129978 117.4190014   4.4571802 123.3129757 117.8042249
  11.3529992 129.1119978 109.4120014  11.8269992 129.4079978 110.1900014
  10.7899992 129.8509978 109.1790014  11.3417361 129.2522721 109.4868611
   5.8869992 129.0829978 119.2880014   5.8949992 128.9469978 118.3410014
   4.9709992 128.9659978 119.5400014   5.7642528 129.0485463 119.1923243
   5.3919992 122.9129978 107.7640014   5.0999992 123.6809978 107.2730014
   4.7169992 122.2539978 107.6010014   5.2608497 122.9289745 107.6748260
   1.4849992 125.2759978 116.5790014   0.9829992 125.2479978 115.7640014
   1.4899992 124.3709978 116.8880014   1.4170416 125.1497368 116.5093766
   1.2349992 128.0569978 113.4630014   2.1809992 127.9119978 113.4440014
   1.1219992 128.8409978 114.0000014   1.3493578 128.1431697 113.5330317
  19.4329992 128.7229978 119.1450014  19.3829992 127.7669978 119.1080014
  18.6059992 128.9899978 119.5460014  19.3143987 128.6285174 119.1941446
  10.4109992 128.2969978 118.0210014  10.4989992 129.1229978 118.4960014
   9.5479992 127.9669978 118.2700014  10.3063357 128.3655468 118.1197653
  10.8259992 132.0689978 107.8270014  10.7499992 131.9479978 106.8810014
  10.8579992 133.0179978 107.9460014  10.8199156 132.1807530 107.7135048
   4.4789992 130.8579978 109.6080014   4.6309992 130.5099978 110.4870014
   3.6279992 130.5009978 109.3530014   4.3847899 130.7621738 109.6937340
  13.9269992 131.2229978 104.8290014  14.3019992 130.4789978 104.3590014
  13.9319992 130.9529978 105.7480014  13.9790024 131.0846950 104.8887987
  13.5959992 131.1489978 107.5790014  12.6609992 131.2489978 107.7570014
  13.8759992 130.4389978 108.1570014  13.5058173 131.0667239 107.6814998
  16.5849992 120.2159978 119.6250014  16.1769992 120.6959978 118.9050014
  16.6249992 119.3099978 119.3170014  16.5345476 120.1593160 119.4848247
   3.7339992 126.5999978 117.6220014   3.9499992 126.2379978 118.4810014
   2.8779992 126.2249978 117.4120014   3.6479354 126.4997906 117.7112160
   6.3519992 115.0699978 113.6170014   5.4909992 114.9829978 113.2100014
   6.3299992 115.9259978 114.0450014   6.2310411 115.1737884 113.6190857
  11.0149992 114.7919978 116.9920014  11.4349992 114.3769978 117.7450014
  10.0819992 114.6129978 117.1090014  10.9463736 114.7109910 117.1108968
  14.3419992 118.5469978 117.8450014  13.8279992 118.4219978 118.6430014
  14.1859992 119.4599978 117.6010014  14.2506967 118.6532123 117.9210937
  10.6769992 117.2839978 104.2770014  10.4229992 117.3029978 105.2000014
  10.4199992 116.4129978 103.9760014  10.6075133 117.1688110 104.3625082
   6.4429992 120.0349978 114.7120014   5.8019992 119.9949978 115.4210014
   6.4809992 120.9619978 114.4750014   6.3603670 120.1547795 114.7770550
   6.4399992 120.2559978 109.6240014   5.5479992 119.9159978 109.5660014
   6.8909992 119.8789978 108.8690014   6.3786815 120.1583762 109.5139203
  11.9759992 120.6719978 108.4410014  11.5669992 121.4869978 108.1500014
  12.6959992 120.5319978 107.8270014  12.0174013 120.7646571 108.3180875
  11.0779992 120.8479978 119.9290014  10.5149992 120.1429978 120.2500014
  11.9039992 120.7269978 120.3970014  11.1126674 120.7352165 120.0361751
  12.9809992 120.1179978 111.2550014  12.7849992 120.7239978 110.5400014
  13.1619992 119.2849978 110.8210014  12.9786584 120.0882513 111.0984212
   4.1929992 120.3559978 116.5790014   4.1549992 120.7559978 117.4480014
   3.7029992 119.5389978 116.6700014   4.1215621 120.3002510 116.7101377
   7.5589992 117.7299978 103.3780014   7.1279992 117.2849978 104.1080014
   6.8409992 118.1009978 102.8660014   7.4029363 117.7192968 103.4086211
   0.8019992 117.4719978 110.4300014   1.4319992 117.4429978 111.1490014
   1.2509992 117.0469978 109.7000014   0.9490692 117.4105316 110.4297771
   2.0759992 118.2179978 105.8540014   2.5499992 118.8089978 105.2690014
   1.3579992 118.7479978 106.2010014   2.0438640 118.3705511 105.8207969
  12.2449992 121.7559978 115.9270014  12.5679992 121.1249978 115.2840014
  11.8039992 121.2219978 116.5870014  12.2295789 121.5973522 115.9282232
   9.0219992 117.6839978 110.7110014   8.1109992 117.7409978 110.9990014
   9.5269992 117.6239978 111.5210014   8.9655387 117.6836870 110.8600646
   3.8499992 119.3129978 109.5370014   2.9609992 119.4119978 109.1970014
   4.1469992 118.4709978 109.1910014   3.7684177 119.2127687 109.4436940
   7.5029992 119.3129978 107.1940014   8.4349992 119.4419978 107.3720014
   7.2879992 119.9819978 106.5440014   7.6014472 119.4210806 107.1304891
  13.4269992 116.9189978 113.9750014  12.7499992 117.0499978 114.6390014
  12.9419992 116.7639978 113.1650014  13.2687265 116.9159659 113.9563397
  16.7149992 132.5899978 120.2520014  16.9139992 133.0139978 119.4170014
  17.3699992 132.9339978 120.8590014  16.8308501 132.6946091 120.2197097
   4.3129992 125.0639978 119.8600014   5.0449992 125.3189978 120.4210014
   3.5319992 125.2689978 120.3750014   4.3077684 125.1266468 120.0064782
  10.3419992 120.4709978 112.5980014  10.9059992 119.9249978 112.0510014
  10.1939992 119.9499978 113.3860014  10.3992575 120.3256552 112.6296987
   5.3439992 116.6079978 109.0160014   5.0269992 115.7049978 108.9810014
   6.1249992 116.6099978 108.4630014   5.4062307 116.4846951 108.9364314
   8.9679992 118.8599978 115.0120014   8.1329992 119.3139978 115.1220014
   9.4919992 119.1359978 115.7640014   8.9245070 118.9594666 115.1287152
   9.5129992 125.0729978 106.6960014   8.7679992 124.5649978 106.3740014
   9.3779992 125.1219978 107.6430014   9.3929047 125.0101596 106.7798845
  16.6629992 124.2059978 115.4830014  17.3039992 124.6619978 114.9390014
  15.8319992 124.3189978 115.0210014  16.6385171 124.2837502 115.3460237
  13.4099992 117.8869978 104.8960014  12.4719992 117.9979978 104.7440014
  13.7079992 118.7429978 105.2020014  13.3216402 118.0180621 104.9165571
  11.0319992 125.2569978 117.9330014  10.6859992 124.8749978 118.7400014
  10.8319992 126.1899978 118.0050014  10.9576523 125.3309095 118.0530735
  14.1289992 119.7539978 106.5560014  15.0209992 119.6159978 106.8750014
  14.1849992 120.5449978 106.0200014  14.2587107 119.8420526 106.5272091
   4.6369992 124.3679978 112.4660014   5.3819992 124.3649978 111.8650014
   4.7149992 123.5439978 112.9480014   4.7494159 124.2562916 112.4489153
  11.6379992 126.5309978 105.7220014  11.3429992 127.3579978 106.1030014
  10.9349992 125.9119978 105.9180014  11.5025471 126.5605227 105.8006698
   1.6449992 122.8279978 117.7810014   1.8679992 122.4099978 118.6130014
   1.0429992 122.2159978 117.3580014   1.5941260 122.6879933 117.8377320
   8.6619992 122.3449978 119.9940014   8.3659992 122.1799978 119.0990014
   9.5929992 122.1249978 119.9830014   8.7473982 122.2926578 119.8700045
  13.2819992 127.7189978 117.8840014  12.3819992 127.9019978 117.6160014
  13.3159992 127.9779978 118.8050014  13.1632909 127.7790815 117.9717852
  18.9769992 125.7639978 119.0880014  18.1259992 126.0019978 118.7210014
  19.5669992 125.7469978 118.3350014  18.9402408 125.7942966 118.9358879
  14.4689992 123.5569978 113.7370014  13.5409992 123.3259978 113.7100014
  14.9199992 122.7799978 113.4070014  14.4028165 123.4202774 113.6886790
   7.0119992 127.8859978 109.8700014   7.5399992 128.6589978 109.6700014
   6.1319992 128.1099978 109.5690014   6.9653176 128.0223161 109.8018409
   8.4399992 125.5489978 109.4470014   8.1989992 126.4739978 109.4880014
   7.6989992 125.0899978 109.8430014   8.3068390 125.6136403 109.5061404
   8.9539992 129.6979978 115.7620014   9.3169992 130.5519978 115.5280014
   9.4859992 129.4059978 116.5020014   9.0756090 129.7754058 115.8300219
   7.1229992 130.5699978 108.9920014   6.1729992 130.6759978 109.0430014
   7.4749992 131.3909978 109.3370014   7.0405480 130.6954438 109.0455999
  12.4979992 125.7969978 115.4620014  12.0729992 125.5689978 116.2890014
  13.0789992 125.0579978 115.2800014  12.5183930 125.6659843 115.5504732
  15.1569992 130.3489978 117.9320014  14.5549992 129.7929978 117.4360014
  15.4379992 131.0159978 117.3060014  15.1126829 130.3631613 117.7795443
   3.2789992 117.5819978 117.3390014   2.3869992 117.9199978 117.2720014
   3.1809992 116.7259978 117.7570014   3.1434965 117.5126499 117.3863044
  15.5669992 125.3979978 106.7630014  15.2899992 124.6699978 107.3190014
  16.4949992 125.5169978 106.9680014  15.6544499 125.3144213 106.8668044
   2.9309992 129.3859978 115.7740014   3.1479992 128.4539978 115.7430014
   3.1769992 129.6609978 116.6570014   2.9939809 129.2955686 115.8891690
   7.7289992 127.4079978 105.4400014   7.8759992 126.8879978 106.2300014
   7.7259992 128.3149978 105.7460014   7.7487300 127.4593964 105.5895895
  12.0139992 117.3229978 116.2290014  12.7129992 117.3969978 116.8790014
  11.6329992 116.4579978 116.3830014  12.0582097 117.2162389 116.3387997
  12.7979992 116.9749978 107.3260014  13.0179992 117.4459978 106.5230014
  13.3569992 117.3689978 107.9960014  12.9036730 117.0927432 107.3065906
  10.4669992 129.1049978 106.1890014   9.6499992 129.6019978 106.2410014
  10.9959992 129.5809978 105.5490014  10.4268508 129.2372543 106.1096035
   9.9979992 118.7029978 108.1610014  10.8099992 119.2069978 108.2070014
   9.7539992 118.5579978 109.0750014  10.0761467 118.7523749 108.2908575
  10.5339992 119.6889978 117.3460014  10.6529992 120.2629978 118.1030014
  11.1889992 119.0009978 117.4600014  10.6389146 119.6745574 117.4651314
  10.8819992 115.7839978 109.0990014  10.5349992 116.4009978 109.7440014
  11.5409992 116.2849978 108.6180014  10.9235949 115.9361099 109.1222271
   7.8049992 130.1489978 106.1710014   7.9659992 130.9489978 105.6700014
   7.6079992 130.4559978 107.0560014   7.8003919 130.2999129 106.2221006
   6.5399992 116.8469978 105.7860014   6.4559992 117.7349978 106.1330014
   7.4299992 116.5819978 106.0180014   6.6488163 116.9327179 105.8648596
  16.7379992 117.5959978 118.1810014  15.8219992 117.8579978 118.0930014
  17.0739992 117.5929978 117.2840014  16.6579789 117.6314626 118.0477847
  15.3409992 121.3459978 112.2760014  14.5429992 120.9309978 111.9480014
  15.7859992 120.6559978 112.7670014  15.2919684 121.1958628 112.2975227
   4.7979992 127.2739978 104.8470014   5.3899992 127.9739978 105.1230014
   5.2569992 126.8409978 104.1270014   4.9410791 127.3112908 104.7874607
   3.1139992 119.9389978 103.9630014   3.0689992 120.8779978 104.1410014
   2.2259992 119.7029978 103.6930014   2.9878555 120.0356874 103.9508939
  16.4269992 130.6019978 113.8990014  16.2709992 131.2809978 113.2420014
  17.3599992 130.6739978 114.1020014  16.5317387 130.7046390 113.8365342
   3.9219992 114.7199978 112.6360014   3.6929992 114.7789978 111.7080014
   3.4799992 113.9289978 112.9420014   3.8308801 114.6210540 112.5504729
   2.8529992 128.6609978 108.7960014   2.0199992 129.1329978 108.8240014
   3.3979992 129.1709978 108.1980014   2.8127590 128.7945897 108.7189194
   2.1409992 131.2729978 120.1260014   2.6809992 131.0569978 120.8860014
   1.6599992 130.4679978 119.9370014   2.1498613 131.1345400 120.2044782
   6.7379992 130.1929978 121.7470014   7.5059992 129.7339978 122.0880014
   6.7169992 129.9669978 120.8170014   6.8402135 130.0996668 121.6679491
  13.3149992 128.5729978 120.4760014  12.9639992 127.7159978 120.7190014
  14.0409992 128.7149978 121.0830014  13.3651590 128.4750178 120.5912907
   2.0479992 125.0839978 121.0810014   2.1919992 124.1819978 120.7940014
   1.2759992 125.3699978 120.5930014   1.9633303 124.9993243 120.9757908
   8.7029992 125.0529978 120.5130014   8.3749992 125.3239978 119.6560014
   8.8549992 124.1119978 120.4260014   8.6786030 124.9628973 120.3837945
  11.7419992 126.4739978 102.9490014  11.4729992 126.6549978 103.8500014
  11.5349992 125.5489978 102.8180014  11.6772000 126.3736774 103.0545693
  14.4379992 124.9689978 117.8970014  15.1829992 125.5579978 117.7770014
  13.6809992 125.5509978 117.9600014  14.4375205 125.1281997 117.8891119
   2.8809992 122.2839978 120.5010014   3.2889992 121.4269978 120.3800014
   2.6199992 122.2979978 121.4220014   2.9016016 122.1685119 120.6089192
   6.8279992 121.2929978 117.8750014   6.2089992 121.9669978 118.1550014
   7.1719992 121.6139978 117.0420014   6.7897605 121.4287198 117.8006707
  11.8469992 123.7639978 121.1520014  12.8009992 123.8479978 121.1250014
  11.6869992 123.0519978 121.7720014  11.9557182 123.6792842 121.2320733
   7.1669992 118.6479978 118.9570014   7.3169992 117.9189978 118.3550014
   7.1689992 119.4249978 118.3980014   7.1877967 118.6532708 118.7990541
   7.5799992 117.0169978 116.4500014   8.1149992 117.4689978 115.7980014
   6.7269992 116.9089978 116.0270014   7.5380374 117.0642665 116.3036710
   9.1609992 122.4569978 116.6890014   9.9119992 122.3009978 116.1160014
   8.8219992 123.3089978 116.4140014   9.2179587 122.5508138 116.5734078
  13.5769992 120.2719978 121.7180014  13.7689992 119.3409978 121.6060014
  14.4349992 120.6969978 121.7080014  13.7192269 120.2019928 121.7013192
  14.8939992 123.0609978 119.7950014  14.6119992 123.7699978 119.2180014
  15.8359992 122.9879978 119.6440014  14.9827656 123.1483128 119.6954809
   5.6459992 119.8459978 120.8690014   4.8779992 119.3129978 120.6590014
   6.3239992 119.5359978 120.2690014   5.6326973 119.7312375 120.7591796
   8.3849992 114.4739978 116.8810014   8.2869992 115.4199978 116.7760014
   7.6429992 114.1009978 116.4060014   8.2711913 114.5531813 116.8023539
   9.6489992 118.7949978 120.4450014   9.4139992 118.5759978 121.3470014
   8.8659992 118.5879978 119.9350014   9.5109219 118.7370066 120.4995852
  12.3649992 117.9229978 119.5210014  11.4169992 117.9549978 119.6530014
  12.6769992 117.2969978 120.1740014  12.2775190 117.8427262 119.6273564
  13.9989992 116.5569978 121.5260014  13.9019992 115.6049978 121.5200014
  13.6769992 116.8249978 122.3860014  13.9421761 116.4629744 121.6414936
   3.8259992 117.7659978 120.5730014   4.0379992 117.0599978 119.9630014
   3.7149992 117.3289978 121.4170014   3.8400269 117.6101921 120.6035873
   8.6069992 113.7679978 119.5530014   9.3189992 113.1279978 119.5390014
   8.5059992 114.0339978 118.6390014   8.6907261 113.7164190 119.4275537
   8.9609992 115.4499978 121.6060014   8.8289992 114.9749978 120.7860014
   8.3609992 116.1949978 121.5510014   8.8619070 115.4855789 121.4863251
   0.7239992 132.3629978 109.3430014   0.0769992 131.9009978 108.8100014
   1.0789992 131.6909978 109.9250014   0.6834506 132.2089503 109.3487341
   1.5939992 130.4429978 111.1470014   1.2599992 129.5629978 111.3190014
   1.8169992 130.7889978 112.0120014   1.5783721 130.3691938 111.2874168
  19.1429992 131.2529978 114.1280014  19.1209992 131.4379978 115.0670014
  19.8329992 131.8209978 113.7870014  19.2333439 131.3551887 114.2104791
  18.7059992 130.8199978 117.0500014  18.2189992 130.0849978 116.6790014
  19.2549992 130.4259978 117.7280014  18.7135247 130.6661057 117.0908461
  17.1569992 126.6099978 121.6880014  16.2909992 126.5049978 122.0820014
  17.5329992 127.3679978 122.1340014  17.0893401 126.6981708 121.8022620
  18.4579992 124.8659978 107.2020014  19.3079992 125.2869978 107.3290014
  18.4629992 124.1259978 107.8090014  18.5751143 124.8236094 107.3014750
  18.8519992 122.9199978 109.0260014  18.1259992 122.4399978 109.4230014
  19.4339992 123.1249978 109.7580014  18.8311635 122.8819166 109.1793748
  18.6109992 125.7049978 113.9730014  19.4449992 125.3269978 113.6930014
  18.7229992 126.6479978 113.8540014  18.7402522 125.7807742 113.9186020
  17.0979992 128.5829978 116.2800014  16.4499992 128.9079978 116.9060014
  16.5799992 128.1419978 115.6060014  16.9394168 128.5678523 116.2745307
  19.1209992 122.8209978 105.4170014  18.5989992 123.1769978 104.6980014
  19.0879992 123.4959978 106.0950014  19.0450699 122.9609848 105.4102129
  16.6389992 121.4409978 109.5890014  16.4889992 120.4959978 109.5680014
  16.2849992 121.7219978 110.4320014  16.5705527 121.3495605 109.7001859
   1.6739992 123.5189978 113.5990014   1.8589992 123.4369978 112.6630014
   2.5239992 123.3949978 114.0230014   1.8140916 123.4910393 113.5282896
  17.4949992 123.4109978 119.2270014  18.0779992 122.6759978 119.4190014
  18.0589992 124.1829978 119.2740014  17.6509781 123.4148145 119.2596164
  18.9919992 121.3139978 119.9120014  18.1289992 120.9349978 119.7460014
  19.5959992 120.5749978 119.8380014  18.9555944 121.1622978 119.8792984
  16.3499992 119.0229978 108.0510014  16.6289992 118.1159978 108.1750014
  17.1089992 119.4569978 107.6620014  16.4908619 118.9574502 108.0153795
  16.9609992 119.6049978 113.4870014  17.8939992 119.8169978 113.4530014
  16.7259992 119.7059978 114.4090014  17.0568308 119.6476503 113.6070214
  16.9909992 120.3419978 116.2630014  16.1479992 120.6099978 116.6290014
  17.4329992 121.1639978 116.0520014  16.9354138 120.4898273 116.2845518
   1.2719992 118.7889978 119.7400014   2.1909992 118.6669978 119.9760014
   0.8219992 118.0389978 120.1290014   1.3371148 118.6708751 119.8249408
  19.2739992 114.3219978 121.6160014  19.6229992 113.6679978 121.0110014
  19.4209992 115.1589978 121.1770014  19.3417355 114.3456067 121.4736564
  16.9629992 116.2859978 108.0990014  17.1449992 115.8369978 108.9250014
  16.3629992 115.7019978 107.6360014  16.9067529 116.1456131 108.1493619
   2.4929992 117.1019978 112.6310014   2.9379992 116.3099978 112.9330014
   2.9589992 117.8179978 113.0620014   2.6169059 117.0904474 112.7306079
   0.7969992 120.1009978 113.7000014   1.2889992 119.8799978 112.9090014
   1.1589992 120.9409978 113.9810014   0.9132923 120.1843468 113.6297407
  18.7929992 116.4309978 119.9660014  17.8759992 116.7019978 119.9300014
  18.9159992 115.8959978 119.1820014  18.6840828 116.3957700 119.8550785
   1.1109992 116.3589978 107.7540014   0.1859992 116.5669978 107.6250014
   1.5649992 116.8429978 107.0650014   1.0456374 116.4529949 107.6430957
  15.8809992 131.3429978 109.7000014  16.5339992 130.9949978 109.0920014
  16.3919992 131.8309978 110.3460014  16.0392777 131.3613815 109.7042047
   1.0739992 115.0969978 116.0990014   0.4089992 114.8509978 116.7420014
   0.6309992 115.7189978 115.5210014   0.9230937 115.1473614 116.1089379
   3.2659992 128.2719978 120.2430014   2.4449992 128.4469978 119.7830014
   3.0139992 128.1989978 121.1640014   3.1196173 128.2860794 120.3044972
   6.2199992 129.2459978 116.5020014   5.7959992 130.0559978 116.2190014
   7.1249992 129.3319978 116.2000014   6.2842433 129.3683331 116.4225377
  10.5319992 130.6449978 119.4610014  10.7159992 130.3119978 120.3390014
  11.3779992 130.9549978 119.1390014  10.6716484 130.6412979 119.5377617
  12.8769992 131.9309978 118.7050014  13.5539992 131.2979978 118.4650014
  13.1979992 132.3319978 119.5120014  13.0131323 131.8985691 118.7813158
  17.7939992 114.5209978 117.7850014  16.9809992 114.8459978 117.3970014
  18.0269992 113.7599978 117.2520014  17.7142566 114.4626559 117.6599213
   3.6219992 132.5029978 116.5490014   2.9019992 132.9429978 116.0980014
   3.2569992 132.2519978 117.3980014   3.4739796 132.5293824 116.6019329
   6.0889992 132.1029978 115.5790014   5.2249992 132.1749978 115.9830014
   6.0339992 132.6499978 114.7950014   5.9631942 132.1867849 115.5284000
  10.7999992 131.9909978 114.7540014  10.3429992 132.5199978 114.1000014
  10.9629992 132.5939978 115.4800014  10.7594476 132.1449140 114.7625499
  13.1279992 130.8689978 115.6990014  12.2229992 131.0339978 115.4340014
  13.5559992 131.7219978 115.6340014  13.0620700 131.0069529 115.6539520
  15.7319992 132.4389978 115.9940014  15.5499992 133.3549978 115.7840014
  15.9089992 132.0279978 115.1480014  15.7309907 132.5089741 115.8507883
   3.0369992 131.1259978 113.4590014   3.0189992 130.6999978 114.3170014
   3.8419992 130.8069978 113.0510014   3.1433221 131.0247233 113.5210225
   5.1779992 129.8359978 112.1140014   4.9589992 128.9189978 112.2840014
   6.0019992 129.9759978 112.5800014   5.2594702 129.7295511 112.2002527
   7.7149992 130.3059978 112.9630014   7.9279992 129.4179978 112.6760014
   7.7799992 130.2709978 113.9180014   7.7529075 130.1798307 113.0527373
  11.2239992 115.9699978 112.1070014  10.5499992 115.3399978 112.3630014
  11.7879992 115.4859978 111.5040014  11.2080384 115.8183708 112.0605020
  16.3669992 114.0769978 112.2200014  16.9699992 114.6249978 111.7180014
  15.4969992 114.3959978 111.9800014  16.3319190 114.1951041 112.1188679
  18.0939992 115.2159978 110.5530014  18.7049992 114.7019978 110.0270014
  18.4759992 116.0929978 110.5770014  18.2294475 115.2641323 110.4841208
   3.5509992 114.6039978 109.9290014   2.7739992 114.3689978 109.4220014
   4.0809992 113.8069978 109.9380014   3.5163451 114.4641268 109.8608627
   2.3869992 114.4019978 105.7330014   2.8259992 115.0129978 105.1410014
   1.7529992 114.9399978 106.2070014   2.3613859 114.5584064 105.7160305
   8.1299992 114.5299978 109.7430014   9.0039992 114.9189978 109.7130014
   7.9939992 114.3149978 110.6650014   8.2313207 114.5541923 109.8636509
  13.6869992 114.5599978 111.3920014  13.7629992 114.6559978 110.4430014
  13.4119992 113.6529978 111.5210014  13.6602042 114.4504241 111.2793811
   2.2879992 130.3499978 106.6310014   1.6029992 130.3119978 105.9630014
   2.2919992 131.2629978 106.9190014   2.1948174 130.4681998 106.5785310
   9.2739992 116.6109978 106.6330014   9.4519992 115.9639978 107.3150014
   9.2199992 117.4449978 107.1000014   9.2911025 116.6350504 106.7896433
  17.8609992 131.1219978 107.7070014  17.6669992 130.3739978 107.1420014
  17.8219992 131.8799978 107.1240014  17.8291645 131.1220786 107.5508148
   3.5079992 115.1179978 119.4470014   3.1419992 114.3519978 119.8900014
   4.4209992 115.1469978 119.7340014   3.5813225 115.0171906 119.5463459
   5.4809992 114.4679978 120.9830014   6.3799992 114.1939978 120.7980014
   5.0949992 113.7259978 121.4470014   5.5517237 114.3301508 121.0204710
   4.1059992 131.2699978 103.6560014   3.8379992 131.5559978 104.5290014
   4.8769992 130.7239978 103.8080014   4.1735600 131.2353330 103.7961499
  13.9029992 113.8009978 121.1650014  13.9789992 113.3749978 122.0190014
  14.7959992 113.8139978 120.8220014  14.0342267 113.7443952 121.2355932
  17.0789992 129.8739978 119.8570014  16.2969992 129.6869978 119.3380014
  17.0069992 130.8029978 120.0750014  16.9620863 129.9740221 119.8153574
  31.4849992 123.7599978 109.8880014  31.5739992 124.7039978 109.7560014
  30.8469992 123.4849978 109.2300014  31.4109062 123.8519812 109.7809641
  30.4179992 123.0149978 113.3070014  30.3799992 122.3689978 114.0120014
  30.0959992 122.5479978 112.5360014  30.3692679 122.8634276 113.2992921
  22.7859992 122.6289978 114.9000014  22.8279992 122.0039978 115.6230014
  23.4889992 123.2529978 115.0820014  22.8867345 122.6277873 115.0235274
  34.1239992 125.9539978 111.6090014  33.6829992 125.2339978 112.0590014
  34.1109992 126.6749978 112.2380014  34.0617960 125.9528329 111.7557567
  23.7099992 127.0789978 113.4350014  23.3399992 126.2769978 113.0650014
  24.6509992 126.9109978 113.4810014  23.7865984 126.9464638 113.3905603
  20.3199992 120.7389978 108.8280014  19.8719992 121.5849978 108.8090014
  19.7589992 120.1599978 108.3120014  20.1829603 120.7763674 108.7556720
  21.0299992 122.9009978 110.9540014  21.2439992 122.1309978 111.4810014
  21.7679992 122.9909978 110.3500014  21.1589652 122.8078012 110.9445212
  31.2359992 131.0579978 111.8210014  31.8549992 130.3819978 111.5470014
  31.0269992 130.8399978 112.7290014  31.2926232 130.9357938 111.9062517
  28.8069992 125.4469978 113.7130014  29.1109992 124.7609978 113.1190014
  29.5289992 125.5659978 114.3310014  28.9461152 125.3692189 113.7152123
  37.4699992 117.0489978 114.5740014  37.5199992 117.6589978 115.3100014
  37.8959992 117.5099978 113.8510014  37.5344108 117.1947709 114.5770112
  31.9479992 119.8409978 114.0410014  32.0909992 118.8949978 114.0610014
  31.8419992 120.0479978 113.1120014  31.9532509 119.7394813 113.9182231
  25.1029992 117.9429978 111.3130014  25.1459992 118.8029978 110.8950014
  24.6449992 117.3909978 110.6790014  25.0469815 117.9860621 111.1701197
  32.8249992 118.0739978 109.7140014  33.4719992 117.7449978 110.3390014
  33.3349992 118.5909978 109.0910014  32.9824317 118.0989227 109.7152167
  21.7229992 120.3399978 112.0750014  22.3769992 119.7899978 112.5070014
  21.7469992 120.0659978 111.1580014  21.8157199 120.2277167 112.0101668
  26.8799992 121.8899978 111.2900014  27.4959992 121.3629978 111.8000014
  26.2929992 121.2499978 110.8870014  26.8849239 121.7314117 111.3052952
  37.8619992 118.5269978 116.8100014  37.1729992 119.1849978 116.7140014
  37.8769992 118.3289978 117.7460014  37.7696740 118.5903242 116.9234630
  23.9129992 116.8609978 115.3870014  23.6939992 117.3909978 114.6210014
  23.2449992 117.0869978 116.0340014  23.7927001 116.9641154 115.3696064
  31.2819992 126.3609978 108.9310014  30.9869992 126.0379978 108.0800014
  30.9579992 127.2609978 108.9720014  31.1977983 126.4384026 108.8199771
  26.4819992 124.5359978 115.6750014  25.7419992 125.1349978 115.7780014
  27.1959992 125.0899978 115.3590014  26.4773288 124.6927356 115.6463805
  34.5889992 117.3649978 111.6940014  34.3739992 116.5989978 112.2270014
  35.2449992 117.8369978 112.2070014  34.6482673 117.3240728 111.8361990
  23.5069992 118.7529978 113.3390014  24.1209992 119.3859978 113.7130014
  24.0189992 118.2809978 112.6830014  23.6602277 118.7757352 113.3014279
  24.8899992 126.5009978 116.4620014  24.8839992 127.3799978 116.0840014
  24.0359992 126.4169978 116.8870014  24.7737925 126.6099535 116.4676887
  21.0109992 126.1719978 107.2440014  20.7389992 126.4009978 106.3550014
  21.0559992 127.0089978 107.7040014  20.9798709 126.3166058 107.1846107
  34.6359992 127.7929978 113.9560014  33.6939992 127.8519978 114.1180014
  34.9119992 128.6989978 113.8190014  34.5445865 127.9235288 113.9596192
  34.9359992 116.0799978 115.3740014  34.1999992 116.6899978 115.3360014
  35.6199992 116.4949978 114.8470014  34.9275506 116.2196400 115.2976051
  27.9399992 114.1659978 112.8400014  27.8219992 113.2179978 112.7850014
  27.0849992 114.4989978 113.1130014  27.8082679 114.0811926 112.8693720
  32.8879992 129.5739978 110.5820014  33.3129992 128.8669978 110.0970014
  33.2049992 130.3759978 110.1650014  32.9890266 129.5855190 110.4592479
  34.0479992 127.4749978 109.0900014  33.7899992 126.7849978 108.4790014
  34.1189992 127.0319978 109.9360014  34.0222837 127.3207106 109.1206912
  35.7339992 126.0419978 117.5680014  35.8729992 125.4499978 116.8280014
  35.9009992 126.9149978 117.2110014  35.7755562 126.0789896 117.4186283
  30.2059992 123.0039978 107.3400014  29.4949992 123.5389978 106.9880014
  30.8969992 123.0589978 106.6800014  30.2020751 123.0846777 107.2025858
  30.2599992 121.4609978 104.3790014  30.9609992 121.4839978 105.0300014
  30.5619992 120.8329978 103.7230014  30.3968282 121.3792339 104.3794496
  37.5749992 122.3819978 115.6340014  36.9229992 123.0759978 115.7230014
  38.0409992 122.5919978 114.8240014  37.5485937 122.5055019 115.5367533
  33.6119992 123.2129978 108.2920014  32.8799992 123.4419978 108.8650014
  34.0589992 122.4999978 108.7470014  33.5722753 123.1478972 108.4319715
  33.5089992 121.3879978 117.3600014  33.5889992 122.1509978 117.9310014
  32.9079992 121.6669978 116.6690014  33.4387245 121.5302630 117.3448424
  25.2569992 123.8439978 110.1740014  24.9269992 123.4729978 109.3560014
  25.8459992 123.1729978 110.5210014  25.2913970 123.7026063 110.1089404
  26.6239992 127.2719978 112.8560014  26.5289992 126.6929978 112.0990014
  27.3529992 126.9009978 113.3520014  26.7096161 127.1425891 112.8195209
  25.6239992 122.6119978 113.8080014  26.1889992 122.7339978 113.0450014
  25.9429992 123.2499978 114.4470014  25.7443977 122.7148851 113.7899424
  31.9329992 128.1159978 114.5420014  31.6929992 128.7779978 115.1900014
  31.7349992 127.2809978 114.9670014  31.8733826 128.0938115 114.6881566
  26.5039992 127.0119978 118.5250014  26.1929992 127.7939978 118.9800014
  25.8539992 126.8589978 117.8390014  26.3735538 127.0984087 118.4945898
  23.4239992 123.2099978 117.7540014  23.4939992 123.8609978 118.4520014
  22.5329992 123.3129978 117.4190014  23.3131802 123.3129757 117.8042249
  30.2089992 129.1119978 109.4120014  30.6829992 129.4079978 110.1900014
  29.6459992 129.8509978 109.1790014  30.1977361 129.2522721 109.4868611
  24.7429992 129.0829978 119.2880014  24.7509992 128.9469978 118.3410014
  23.8269992 128.9659978 119.5400014  24.6202528 129.0485463 119.1923243
  24.2479992 122.9129978 107.7640014  23.9559992 123.6809978 107.2730014
  23.5729992 122.2539978 107.6010014  24.1168497 122.9289745 107.6748260
  37.3709992 128.4919978 104.1660014  37.4439992 129.4309978 104.3370014
  38.2759992 128.1869978 104.1100014  37.5034158 128.5793061 104.1818392
  20.3409992 125.2759978 116.5790014  19.8389992 125.2479978 115.7640014
  20.3459992 124.3709978 116.8880014  20.2730416 125.1497368 116.5093766
  20.0909992 128.0569978 113.4630014  21.0369992 127.9119978 113.4440014
  19.9779992 128.8409978 114.0000014  20.2053578 128.1431697 113.5330317
  38.2889992 128.7229978 119.1450014  38.2389992 127.7669978 119.1080014
  37.4619992 128.9899978 119.5460014  38.1703987 128.6285174 119.1941446
  29.2669992 128.2969978 118.0210014  29.3549992 129.1229978 118.4960014
  28.4039992 127.9669978 118.2700014  29.1623357 128.3655468 118.1197653
  29.6819992 132.0689978 107.8270014  29.6059992 131.9479978 106.8810014
  29.7139992 133.0179978 107.9460014  29.6759156 132.1807530 107.7135048
  23.3349992 130.8579978 109.6080014  23.4869992 130.5099978 110.4870014
  22.4839992 130.5009978 109.3530014  23.2407899 130.7621738 109.6937340
  32.4519992 131.1489978 107.5790014  31.5169992 131.2489978 107.7570014
  32.7319992 130.4389978 108.1570014  32.3618173 131.0667239 107.6814998
  35.4409992 120.2159978 119.6250014  35.0329992 120.6959978 118.9050014
  35.4809992 119.3099978 119.3170014  35.3905476 120.1593160 119.4848247
  22.5899992 126.5999978 117.6220014  22.8059992 126.2379978 118.4810014
  21.7339992 126.2249978 117.4120014  22.5039354 126.4997906 117.7112160
  25.2079992 115.0699978 113.6170014  24.3469992 114.9829978 113.2100014
  25.1859992 115.9259978 114.0450014  25.0870411 115.1737884 113.6190857
  29.8709992 114.7919978 116.9920014  30.2909992 114.3769978 117.7450014
  28.9379992 114.6129978 117.1090014  29.8023736 114.7109910 117.1108968
  33.1979992 118.5469978 117.8450014  32.6839992 118.4219978 118.6430014
  33.0419992 119.4599978 117.6010014  33.1066967 118.6532123 117.9210937
  25.2989992 120.0349978 114.7120014  24.6579992 119.9949978 115.4210014
  25.3369992 120.9619978 114.4750014  25.2163670 120.1547795 114.7770550
  25.2959992 120.2559978 109.6240014  24.4039992 119.9159978 109.5660014
  25.7469992 119.8789978 108.8690014  25.2346815 120.1583762 109.5139203
  30.8319992 120.6719978 108.4410014  30.4229992 121.4869978 108.1500014
  31.5519992 120.5319978 107.8270014  30.8734013 120.7646571 108.3180875
  29.9339992 120.8479978 119.9290014  29.3709992 120.1429978 120.2500014
  30.7599992 120.7269978 120.3970014  29.9686674 120.7352165 120.0361751
  31.8369992 120.1179978 111.2550014  31.6409992 120.7239978 110.5400014
  32.0179992 119.2849978 110.8210014  31.8346584 120.0882513 111.0984212
  23.0489992 120.3559978 116.5790014  23.0109992 120.7559978 117.4480014
  22.5589992 119.5389978 116.6700014  22.9775621 120.3002510 116.7101377
  19.6579992 117.4719978 110.4300014  20.2879992 117.4429978 111.1490014
  20.1069992 117.0469978 109.7000014  19.8050692 117.4105316 110.4297771
  31.1009992 121.7559978 115.9270014  31.4239992 121.1249978 115.2840014
  30.6599992 121.2219978 116.5870014  31.0855789 121.5973522 115.9282232
  27.8779992 117.6839978 110.7110014  26.9669992 117.7409978 110.9990014
  28.3829992 117.6239978 111.5210014  27.8215387 117.6836870 110.8600646
  22.7059992 119.3129978 109.5370014  21.8169992 119.4119978 109.1970014
  23.0029992 118.4709978 109.1910014  22.6244177 119.2127687 109.4436940
  26.3589992 119.3129978 107.1940014  27.2909992 119.4419978 107.3720014
  26.1439992 119.9819978 106.5440014  26.4574472 119.4210806 107.1304891
  32.2829992 116.9189978 113.9750014  31.6059992 117.0499978 114.6390014
  31.7979992 116.7639978 113.1650014  32.1247265 116.9159659 113.9563397
  25.0329992 120.5069978 104.7610014  24.4909992 120.1279978 104.0690014
  25.8669992 120.7019978 104.3320014  25.0715159 120.4815076 104.6084419
  35.5709992 132.5899978 120.2520014  35.7699992 133.0139978 119.4170014
  36.2259992 132.9339978 120.8590014  35.6868501 132.6946091 120.2197097
  23.1689992 125.0639978 119.8600014  23.9009992 125.3189978 120.4210014
  22.3879992 125.2689978 120.3750014  23.1637684 125.1266468 120.0064782
  29.1979992 120.4709978 112.5980014  29.7619992 119.9249978 112.0510014
  29.0499992 119.9499978 113.3860014  29.2552575 120.3256552 112.6296987
  24.1999992 116.6079978 109.0160014  23.8829992 115.7049978 108.9810014
  24.9809992 116.6099978 108.4630014  24.2622307 116.4846951 108.9364314
  27.8239992 118.8599978 115.0120014  26.9889992 119.3139978 115.1220014
  28.3479992 119.1359978 115.7640014  27.7805070 118.9594666 115.1287152
  28.3689992 125.0729978 106.6960014  27.6239992 124.5649978 106.3740014
  28.2339992 125.1219978 107.6430014  28.2489047 125.0101596 106.7798845
  35.5189992 124.2059978 115.4830014  36.1599992 124.6619978 114.9390014
  34.6879992 124.3189978 115.0210014  35.4945171 124.2837502 115.3460237
  29.8879992 125.2569978 117.9330014  29.5419992 124.8749978 118.7400014
  29.6879992 126.1899978 118.0050014  29.8136523 125.3309095 118.0530735
  23.4929992 124.3679978 112.4660014  24.2379992 124.3649978 111.8650014
  23.5709992 123.5439978 112.9480014  23.6054158 124.2562916 112.4489153
  30.4939992 126.5309978 105.7220014  30.1989992 127.3579978 106.1030014
  29.7909992 125.9119978 105.9180014  30.3585471 126.5605227 105.8006698
  20.5009992 122.8279978 117.7810014  20.7239992 122.4099978 118.6130014
  19.8989992 122.2159978 117.3580014  20.4501260 122.6879933 117.8377320
  27.5179992 122.3449978 119.9940014  27.2219992 122.1799978 119.0990014
  28.4489992 122.1249978 119.9830014  27.6033982 122.2926578 119.8700045
  32.1379992 127.7189978 117.8840014  31.2379992 127.9019978 117.6160014
  32.1719992 127.9779978 118.8050014  32.0192909 127.7790815 117.9717852
  37.8699992 119.9629978 106.2510014  37.3149992 119.5669978 105.5790014
  37.9699992 120.8739978 105.9730014  37.8075888 120.0318990 106.1215206
  37.8329992 125.7639978 119.0880014  36.9819992 126.0019978 118.7210014
  38.4229992 125.7469978 118.3350014  37.7962408 125.7942966 118.9358879
  36.1649992 128.7489978 106.7160014  35.7919992 127.9239978 107.0250014
  36.4419992 128.5659978 105.8190014  36.1513871 128.6112441 106.6369677
  33.3249992 123.5569978 113.7370014  32.3969992 123.3259978 113.7100014
  33.7759992 122.7799978 113.4070014  33.2588165 123.4202774 113.6886790
  25.8679992 127.8859978 109.8700014  26.3959992 128.6589978 109.6700014
  24.9879992 128.1099978 109.5690014  25.8213176 128.0223161 109.8018409
  27.2959992 125.5489978 109.4470014  27.0549992 126.4739978 109.4880014
  26.5549992 125.0899978 109.8430014  27.1628390 125.6136403 109.5061404
  27.8099992 129.6979978 115.7620014  28.1729992 130.5519978 115.5280014
  28.3419992 129.4059978 116.5020014  27.9316090 129.7754058 115.8300219
  25.9789992 130.5699978 108.9920014  25.0289992 130.6759978 109.0430014
  26.3309992 131.3909978 109.3370014  25.8965480 130.6954438 109.0455999
  31.3539992 125.7969978 115.4620014  30.9289992 125.5689978 116.2890014
  31.9349992 125.0579978 115.2800014  31.3743930 125.6659843 115.5504732
  33.5569992 126.7259978 104.5360014  33.9109992 126.3459978 105.3410014
  32.6089992 126.6319978 104.6230014  33.4771820 126.6613092 104.6578714
  34.0129992 130.3489978 117.9320014  33.4109992 129.7929978 117.4360014
  34.2939992 131.0159978 117.3060014  33.9686829 130.3631613 117.7795443
  38.0609992 131.2049978 104.7370014  38.8049992 131.7909978 104.5970014
  37.3669992 131.7739978 105.0710014  38.0690201 131.3620603 104.7629772
  22.1349992 117.5819978 117.3390014  21.2429992 117.9199978 117.2720014
  22.0369992 116.7259978 117.7570014  21.9994965 117.5126499 117.3863044
  34.4229992 125.3979978 106.7630014  34.1459992 124.6699978 107.3190014
  35.3509992 125.5169978 106.9680014  34.5104499 125.3144213 106.8668044
  21.7869992 129.3859978 115.7740014  22.0039992 128.4539978 115.7430014
  22.0329992 129.6609978 116.6570014  21.8499809 129.2955686 115.8891690
  23.0379992 124.6599978 105.9500014  22.3519992 125.0129978 106.5170014
  23.5609992 125.4229978 105.7040014  23.0149033 124.8113746 105.9942661
  30.8699992 117.3229978 116.2290014  31.5689992 117.3969978 116.8790014
  30.4889992 116.4579978 116.3830014  30.9142097 117.2162389 116.3387997
  31.6539992 116.9749978 107.3260014  31.8739992 117.4459978 106.5230014
  32.2129992 117.3689978 107.9960014  31.7596730 117.0927432 107.3065906
  29.3229992 129.1049978 106.1890014  28.5059992 129.6019978 106.2410014
  29.8519992 129.5809978 105.5490014  29.2828508 129.2372543 106.1096035
  28.8539992 118.7029978 108.1610014  29.6659992 119.2069978 108.2070014
  28.6099992 118.5579978 109.0750014  28.9321467 118.7523749 108.2908575
  29.3899992 119.6889978 117.3460014  29.5089992 120.2629978 118.1030014
  30.0449992 119.0009978 117.4600014  29.4949146 119.6745574 117.4651314
  29.7379992 115.7839978 109.0990014  29.3909992 116.4009978 109.7440014
  30.3969992 116.2849978 108.6180014  29.7795949 115.9361099 109.1222271
  26.6609992 130.1489978 106.1710014  26.8219992 130.9489978 105.6700014
  26.4639992 130.4559978 107.0560014  26.6563919 130.2999129 106.2221006
  25.3959992 116.8469978 105.7860014  25.3119992 117.7349978 106.1330014
  26.2859992 116.5819978 106.0180014  25.5048163 116.9327179 105.8648596
  35.5939992 117.5959978 118.1810014  34.6779992 117.8579978 118.0930014
  35.9299992 117.5929978 117.2840014  35.5139789 117.6314626 118.0477847
  34.1969992 121.3459978 112.2760014  33.3989992 120.9309978 111.9480014
  34.6419992 120.6559978 112.7670014  34.1479684 121.1958628 112.2975227
  23.6539992 127.2739978 104.8470014  24.2459992 127.9739978 105.1230014
  24.1129992 126.8409978 104.1270014  23.7970791 127.3112908 104.7874607
  35.2829992 130.6019978 113.8990014  35.1269992 131.2809978 113.2420014
  36.2159992 130.6739978 114.1020014  35.3877387 130.7046390 113.8365342
  22.7779992 114.7199978 112.6360014  22.5489992 114.7789978 111.7080014
  22.3359992 113.9289978 112.9420014  22.6868801 114.6210540 112.5504729
  21.7089992 128.6609978 108.7960014  20.8759992 129.1329978 108.8240014
  22.2539992 129.1709978 108.1980014  21.6687590 128.7945897 108.7189194
  20.9969992 131.2729978 120.1260014  21.5369992 131.0569978 120.8860014
  20.5159992 130.4679978 119.9370014  21.0058613 131.1345400 120.2044782
  25.5939992 130.1929978 121.7470014  26.3619992 129.7339978 122.0880014
  25.5729992 129.9669978 120.8170014  25.6962135 130.0996668 121.6679491
  32.1709992 128.5729978 120.4760014  31.8199992 127.7159978 120.7190014
  32.8969992 128.7149978 121.0830014  32.2211590 128.4750178 120.5912907
  20.9039992 125.0839978 121.0810014  21.0479992 124.1819978 120.7940014
  20.1319992 125.3699978 120.5930014  20.8193303 124.9993243 120.9757908
  27.5589992 125.0529978 120.5130014  27.2309992 125.3239978 119.6560014
  27.7109992 124.1119978 120.4260014  27.5346030 124.9628973 120.3837945
  30.5979992 126.4739978 102.9490014  30.3289992 126.6549978 103.8500014
  30.3909992 125.5489978 102.8180014  30.5332000 126.3736774 103.0545693
  33.2939992 124.9689978 117.8970014  34.0389992 125.5579978 117.7770014
  32.5369992 125.5509978 117.9600014  33.2935205 125.1281997 117.8891119
  21.7369992 122.2839978 120.5010014  22.1449992 121.4269978 120.3800014
  21.4759992 122.2979978 121.4220014  21.7576016 122.1685119 120.6089192
  25.6839992 121.2929978 117.8750014  25.0649992 121.9669978 118.1550014
  26.0279992 121.6139978 117.0420014  25.6457605 121.4287198 117.8006707
  30.7029992 123.7639978 121.1520014  31.6569992 123.8479978 121.1250014
  30.5429992 123.0519978 121.7720014  30.8117182 123.6792842 121.2320733
  26.0229992 118.6479978 118.9570014  26.1729992 117.9189978 118.3550014
  26.0249992 119.4249978 118.3980014  26.0437967 118.6532708 118.7990541
  26.4359992 117.0169978 116.4500014  26.9709992 117.4689978 115.7980014
  25.5829992 116.9089978 116.0270014  26.3940374 117.0642665 116.3036710
  28.0169992 122.4569978 116.6890014  28.7679992 122.3009978 116.1160014
  27.6779992 123.3089978 116.4140014  28.0739587 122.5508138 116.5734078
  32.4329992 120.2719978 121.7180014  32.6249992 119.3409978 121.6060014
  33.2909992 120.6969978 121.7080014  32.5752269 120.2019928 121.7013192
  33.7499992 123.0609978 119.7950014  33.4679992 123.7699978 119.2180014
  34.6919992 122.9879978 119.6440014  33.8387656 123.1483128 119.6954809
  24.5019992 119.8459978 120.8690014  23.7339992 119.3129978 120.6590014
  25.1799992 119.5359978 120.2690014  24.4886973 119.7312375 120.7591796
  27.2409992 114.4739978 116.8810014  27.1429992 115.4199978 116.7760014
  26.4989992 114.1009978 116.4060014  27.1271913 114.5531813 116.8023539
  28.5049992 118.7949978 120.4450014  28.2699992 118.5759978 121.3470014
  27.7219992 118.5879978 119.9350014  28.3669219 118.7370066 120.4995852
  31.2209992 117.9229978 119.5210014  30.2729992 117.9549978 119.6530014
  31.5329992 117.2969978 120.1740014  31.1335190 117.8427262 119.6273563
  32.8549992 116.5569978 121.5260014  32.7579992 115.6049978 121.5200014
  32.5329992 116.8249978 122.3860014  32.7981761 116.4629744 121.6414936
  22.6819992 117.7659978 120.5730014  22.8939992 117.0599978 119.9630014
  22.5709992 117.3289978 121.4170014  22.6960269 117.6101921 120.6035873
  27.4629992 113.7679978 119.5530014  28.1749992 113.1279978 119.5390014
  27.3619992 114.0339978 118.6390014  27.5467261 113.7164190 119.4275537
  27.8169992 115.4499978 121.6060014  27.6849992 114.9749978 120.7860014
  27.2169992 116.1949978 121.5510014  27.7179070 115.4855789 121.4863251
  20.9309992 126.9699978 104.2650014  21.8449992 127.0489978 104.5390014
  20.9389992 126.2829978 103.5990014  21.0571143 126.8879085 104.2124274
  19.5799992 132.3629978 109.3430014  18.9329992 131.9009978 108.8100014
  19.9349992 131.6909978 109.9250014  19.5394506 132.2089503 109.3487341
  20.4499992 130.4429978 111.1470014  20.1159992 129.5629978 111.3190014
  20.6729992 130.7889978 112.0120014  20.4343721 130.3691938 111.2874168
  37.9989992 131.2529978 114.1280014  37.9769992 131.4379978 115.0670014
  38.6889992 131.8209978 113.7870014  38.0893439 131.3551887 114.2104791
  37.5619992 130.8199978 117.0500014  37.0749992 130.0849978 116.6790014
  38.1109992 130.4259978 117.7280014  37.5695247 130.6661057 117.0908461
  36.0129992 126.6099978 121.6880014  35.1469992 126.5049978 122.0820014
  36.3889992 127.3679978 122.1340014  35.9453401 126.6981708 121.8022620
  37.3139992 124.8659978 107.2020014  38.1639992 125.2869978 107.3290014
  37.3189992 124.1259978 107.8090014  37.4311143 124.8236094 107.3014750
  37.7079992 122.9199978 109.0260014  36.9819992 122.4399978 109.4230014
  38.2899992 123.1249978 109.7580014  37.6871635 122.8819166 109.1793748
  37.4669992 125.7049978 113.9730014  38.3009992 125.3269978 113.6930014
  37.5789992 126.6479978 113.8540014  37.5962522 125.7807742 113.9186020
  35.9539992 128.5829978 116.2800014  35.3059992 128.9079978 116.9060014
  35.4359992 128.1419978 115.6060014  35.7954168 128.5678523 116.2745307
  37.9769992 122.8209978 105.4170014  37.4549992 123.1769978 104.6980014
  37.9439992 123.4959978 106.0950014  37.9010699 122.9609848 105.4102129
  35.4949992 121.4409978 109.5890014  35.3449992 120.4959978 109.5680014
  35.1409992 121.7219978 110.4320014  35.4265527 121.3495605 109.7001859
  20.5299992 123.5189978 113.5990014  20.7149992 123.4369978 112.6630014
  21.3799992 123.3949978 114.0230014  20.6700916 123.4910393 113.5282896
  36.3509992 123.4109978 119.2270014  36.9339992 122.6759978 119.4190014
  36.9149992 124.1829978 119.2740014  36.5069781 123.4148145 119.2596164
  37.8479992 121.3139978 119.9120014  36.9849992 120.9349978 119.7460014
  38.4519992 120.5749978 119.8380014  37.8115944 121.1622978 119.8792984
  35.2059992 119.0229978 108.0510014  35.4849992 118.1159978 108.1750014
  35.9649992 119.4569978 107.6620014  35.3468619 118.9574502 108.0153795
  35.8169992 119.6049978 113.4870014  36.7499992 119.8169978 113.4530014
  35.5819992 119.7059978 114.4090014  35.9128308 119.6476503 113.6070214
  35.8469992 120.3419978 116.2630014  35.0039992 120.6099978 116.6290014
  36.2889992 121.1639978 116.0520014  35.7914138 120.4898273 116.2845518
  20.1279992 118.7889978 119.7400014  21.0469992 118.6669978 119.9760014
  19.6779992 118.0389978 120.1290014  20.1931148 118.6708751 119.8249408
  38.1299992 114.3219978 121.6160014  38.4789992 113.6679978 121.0110014
  38.2769992 115.1589978 121.1770014  38.1977355 114.3456067 121.4736564
  35.8189992 116.2859978 108.0990014  36.0009992 115.8369978 108.9250014
  35.2189992 115.7019978 107.6360014  35.7627529 116.1456131 108.1493619
  21.3489992 117.1019978 112.6310014  21.7939992 116.3099978 112.9330014
  21.8149992 117.8179978 113.0620014  21.4729059 117.0904474 112.7306079
  19.6529992 120.1009978 113.7000014  20.1449992 119.8799978 112.9090014
  20.0149992 120.9409978 113.9810014  19.7692923 120.1843468 113.6297407
  37.6489992 116.4309978 119.9660014  36.7319992 116.7019978 119.9300014
  37.7719992 115.8959978 119.1820014  37.5400828 116.3957700 119.8550785
  19.9669992 116.3589978 107.7540014  19.0419992 116.5669978 107.6250014
  20.4209992 116.8429978 107.0650014  19.9016374 116.4529949 107.6430957
  34.7369992 131.3429978 109.7000014  35.3899992 130.9949978 109.0920014
  35.2479992 131.8309978 110.3460014  34.8952777 131.3613815 109.7042047
  19.9299992 115.0969978 116.0990014  19.2649992 114.8509978 116.7420014
  19.4869992 115.7189978 115.5210014  19.7790937 115.1473614 116.1089379
  22.1219992 128.2719978 120.2430014  21.3009992 128.4469978 119.7830014
  21.8699992 128.1989978 121.1640014  21.9756173 128.2860794 120.3044972
  25.0759992 129.2459978 116.5020014  24.6519992 130.0559978 116.2190014
  25.9809992 129.3319978 116.2000014  25.1402433 129.3683331 116.4225377
  29.3879992 130.6449978 119.4610014  29.5719992 130.3119978 120.3390014
  30.2339992 130.9549978 119.1390014  29.5276484 130.6412979 119.5377617
  31.7329992 131.9309978 118.7050014  32.4099992 131.2979978 118.4650014
  32.0539992 132.3319978 119.5120014  31.8691323 131.8985691 118.7813158
  36.6499992 114.5209978 117.7850014  35.8369992 114.8459978 117.3970014
  36.8829992 113.7599978 117.2520014  36.5702566 114.4626559 117.6599213
  22.4779992 132.5029978 116.5490014  21.7579992 132.9429978 116.0980014
  22.1129992 132.2519978 117.3980014  22.3299796 132.5293824 116.6019329
  24.9449992 132.1029978 115.5790014  24.0809992 132.1749978 115.9830014
  24.8899992 132.6499978 114.7950014  24.8191942 132.1867849 115.5284000
  29.6559992 131.9909978 114.7540014  29.1989992 132.5199978 114.1000014
  29.8189992 132.5939978 115.4800014  29.6154476 132.1449140 114.7625499
  31.9839992 130.8689978 115.6990014  31.0789992 131.0339978 115.4340014
  32.4119992 131.7219978 115.6340014  31.9180700 131.0069529 115.6539520
  34.5879992 132.4389978 115.9940014  34.4059992 133.3549978 115.7840014
  34.7649992 132.0279978 115.1480014  34.5869907 132.5089741 115.8507883
  21.8929992 131.1259978 113.4590014  21.8749992 130.6999978 114.3170014
  22.6979992 130.8069978 113.0510014  21.9993221 131.0247233 113.5210225
  24.0339992 129.8359978 112.1140014  23.8149992 128.9189978 112.2840014
  24.8579992 129.9759978 112.5800014  24.1154702 129.7295511 112.2002527
  26.5709992 130.3059978 112.9630014  26.7839992 129.4179978 112.6760014
  26.6359992 130.2709978 113.9180014  26.6089075 130.1798307 113.0527373
  30.0799992 115.9699978 112.1070014  29.4059992 115.3399978 112.3630014
  30.6439992 115.4859978 111.5040014  30.0640384 115.8183708 112.0605020
  35.2229992 114.0769978 112.2200014  35.8259992 114.6249978 111.7180014
  34.3529992 114.3959978 111.9800014  35.1879190 114.1951041 112.1188679
  36.9499992 115.2159978 110.5530014  37.5609992 114.7019978 110.0270014
  37.3319992 116.0929978 110.5770014  37.0854475 115.2641323 110.4841208
  22.4069992 114.6039978 109.9290014  21.6299992 114.3689978 109.4220014
  22.9369992 113.8069978 109.9380014  22.3723451 114.4641268 109.8608627
  21.2429992 114.4019978 105.7330014  21.6819992 115.0129978 105.1410014
  20.6089992 114.9399978 106.2070014  21.2173859 114.5584064 105.7160305
  26.9859992 114.5299978 109.7430014  27.8599992 114.9189978 109.7130014
  26.8499992 114.3149978 110.6650014  27.0873207 114.5541923 109.8636509
  32.5429992 114.5599978 111.3920014  32.6189992 114.6559978 110.4430014
  32.2679992 113.6529978 111.5210014  32.5162042 114.4504241 111.2793811
  33.8959992 114.5859978 107.0840014  33.1929992 115.2009978 106.8750014
  33.4509992 113.7489978 107.2160014  33.7396292 114.5570085 107.0732439
  21.1439992 130.3499978 106.6310014  20.4589992 130.3119978 105.9630014
  21.1479992 131.2629978 106.9190014  21.0508174 130.4681998 106.5785310
  23.1039992 116.3179978 104.1750014  23.5949992 115.6879978 103.6480014
  23.7269992 116.6139978 104.8390014  23.2555062 116.2716770 104.1925438
  28.1299992 116.6109978 106.6330014  28.3079992 115.9639978 107.3150014
  28.0759992 117.4449978 107.1000014  28.1471025 116.6350504 106.7896433
  36.7169992 131.1219978 107.7070014  36.5229992 130.3739978 107.1420014
  36.6779992 131.8799978 107.1240014  36.6851645 131.1220786 107.5508148
  22.3639992 115.1179978 119.4470014  21.9979992 114.3519978 119.8900014
  23.2769992 115.1469978 119.7340014  22.4373225 115.0171906 119.5463459
  24.3369992 114.4679978 120.9830014  25.2359992 114.1939978 120.7980014
  23.9509992 113.7259978 121.4470014  24.4077237 114.3301508 121.0204710
  22.9619992 131.2699978 103.6560014  22.6939992 131.5559978 104.5290014
  23.7329992 130.7239978 103.8080014  23.0295600 131.2353330 103.7961499
  32.7589992 113.8009978 121.1650014  32.8349992 113.3749978 122.0190014
  33.6519992 113.8139978 120.8220014  32.8902267 113.7443952 121.2355932
  35.9349992 129.8739978 119.8570014  35.1529992 129.6869978 119.3380014
  35.8629992 130.8029978 120.0750014  35.8180863 129.9740221 119.8153574
  50.3409992 123.7599978 109.8880014  50.4299992 124.7039978 109.7560014
  49.7029992 123.4849978 109.2300014  50.2669062 123.8519812 109.7809641
  49.2739992 123.0149978 113.3070014  49.2359992 122.3689978 114.0120014
  48.9519992 122.5479978 112.5360014  49.2252679 122.8634276 113.2992921
  41.6419992 122.6289978 114.9000014  41.6839992 122.0039978 115.6230014
  42.3449992 123.2529978 115.0820014  41.7427345 122.6277873 115.0235274
  52.9799992 125.9539978 111.6090014  52.5389992 125.2339978 112.0590014
  52.9669992 126.6749978 112.2380014  52.9177960 125.9528329 111.7557567
  42.5659992 127.0789978 113.4350014  42.1959992 126.2769978 113.0650014
  43.5069992 126.9109978 113.4810014  42.6425984 126.9464638 113.3905603
  39.1759992 120.7389978 108.8280014  38.7279992 121.5849978 108.8090014
  38.6149992 120.1599978 108.3120014  39.0389603 120.7763674 108.7556720
  39.8859992 122.9009978 110.9540014  40.0999992 122.1309978 111.4810014
  40.6239992 122.9909978 110.3500014  40.0149652 122.8078012 110.9445212
  50.0919992 131.0579978 111.8210014  50.7109992 130.3819978 111.5470014
  49.8829992 130.8399978 112.7290014  50.1486232 130.9357938 111.9062517
  47.6629992 125.4469978 113.7130014  47.9669992 124.7609978 113.1190014
  48.3849992 125.5659978 114.3310014  47.8021152 125.3692189 113.7152123
  56.3259992 117.0489978 114.5740014  56.3759992 117.6589978 115.3100014
  56.7519992 117.5099978 113.8510014  56.3904108 117.1947709 114.5770112
  50.8039992 119.8409978 114.0410014  50.9469992 118.8949978 114.0610014
  50.6979992 120.0479978 113.1120014  50.8092509 119.7394813 113.9182231
  43.9589992 117.9429978 111.3130014  44.0019992 118.8029978 110.8950014
  43.5009992 117.3909978 110.6790014  43.9029815 117.9860621 111.1701197
  51.6809992 118.0739978 109.7140014  52.3279992 117.7449978 110.3390014
  52.1909992 118.5909978 109.0910014  51.8384317 118.0989227 109.7152167
  40.5789992 120.3399978 112.0750014  41.2329992 119.7899978 112.5070014
  40.6029992 120.0659978 111.1580014  40.6717199 120.2277167 112.0101668
  45.7359992 121.8899978 111.2900014  46.3519992 121.3629978 111.8000014
  45.1489992 121.2499978 110.8870014  45.7409239 121.7314117 111.3052952
  56.7179992 118.5269978 116.8100014  56.0289992 119.1849978 116.7140014
  56.7329992 118.3289978 117.7460014  56.6256740 118.5903242 116.9234630
  42.7689992 116.8609978 115.3870014  42.5499992 117.3909978 114.6210014
  42.1009992 117.0869978 116.0340014  42.6487001 116.9641154 115.3696064
  50.1379992 126.3609978 108.9310014  49.8429992 126.0379978 108.0800014
  49.8139992 127.2609978 108.9720014  50.0537983 126.4384026 108.8199771
  45.3379992 124.5359978 115.6750014  44.5979992 125.1349978 115.7780014
  46.0519992 125.0899978 115.3590014  45.3333288 124.6927356 115.6463805
  53.4449992 117.3649978 111.6940014  53.2299992 116.5989978 112.2270014
  54.1009992 117.8369978 112.2070014  53.5042673 117.3240728 111.8361990
  42.3629992 118.7529978 113.3390014  42.9769992 119.3859978 113.7130014
  42.8749992 118.2809978 112.6830014  42.5162277 118.7757352 113.3014279
  43.7459992 126.5009978 116.4620014  43.7399992 127.3799978 116.0840014
  42.8919992 126.4169978 116.8870014  43.6297925 126.6099535 116.4676887
  39.8669992 126.1719978 107.2440014  39.5949992 126.4009978 106.3550014
  39.9119992 127.0089978 107.7040014  39.8358709 126.3166058 107.1846107
  53.4919992 127.7929978 113.9560014  52.5499992 127.8519978 114.1180014
  53.7679992 128.6989978 113.8190014  53.4005865 127.9235288 113.9596192
  53.7919992 116.0799978 115.3740014  53.0559992 116.6899978 115.3360014
  54.4759992 116.4949978 114.8470014  53.7835506 116.2196400 115.2976051
  46.7959992 114.1659978 112.8400014  46.6779992 113.2179978 112.7850014
  45.9409992 114.4989978 113.1130014  46.6642679 114.0811926 112.8693720
  51.7439992 129.5739978 110.5820014  52.1689992 128.8669978 110.0970014
  52.0609992 130.3759978 110.1650014  51.8450266 129.5855190 110.4592479
  52.9039992 127.4749978 109.0900014  52.6459992 126.7849978 108.4790014
  52.9749992 127.0319978 109.9360014  52.8782837 127.3207106 109.1206912
  54.5899992 126.0419978 117.5680014  54.7289992 125.4499978 116.8280014
  54.7569992 126.9149978 117.2110014  54.6315562 126.0789896 117.4186283
  49.0619992 123.0039978 107.3400014  48.3509992 123.5389978 106.9880014
  49.7529992 123.0589978 106.6800014  49.0580751 123.0846777 107.2025858
  49.1159992 121.4609978 104.3790014  49.8169992 121.4839978 105.0300014
  49.4179992 120.8329978 103.7230014  49.2528282 121.3792339 104.3794496
  56.4309992 122.3819978 115.6340014  55.7789992 123.0759978 115.7230014
  56.8969992 122.5919978 114.8240014  56.4045937 122.5055019 115.5367533
  52.4679992 123.2129978 108.2920014  51.7359992 123.4419978 108.8650014
  52.9149992 122.4999978 108.7470014  52.4282753 123.1478972 108.4319715
  52.3649992 121.3879978 117.3600014  52.4449992 122.1509978 117.9310014
  51.7639992 121.6669978 116.6690014  52.2947245 121.5302630 117.3448424
  44.1129992 123.8439978 110.1740014  43.7829992 123.4729978 109.3560014
  44.7019992 123.1729978 110.5210014  44.1473970 123.7026063 110.1089404
  45.4799992 127.2719978 112.8560014  45.3849992 126.6929978 112.0990014
  46.2089992 126.9009978 113.3520014  45.5656161 127.1425891 112.8195209
  44.4799992 122.6119978 113.8080014  45.0449992 122.7339978 113.0450014
  44.7989992 123.2499978 114.4470014  44.6003977 122.7148851 113.7899424
  50.7889992 128.1159978 114.5420014  50.5489992 128.7779978 115.1900014
  50.5909992 127.2809978 114.9670014  50.7293826 128.0938115 114.6881566
  45.3599992 127.0119978 118.5250014  45.0489992 127.7939978 118.9800014
  44.7099992 126.8589978 117.8390014  45.2295538 127.0984087 118.4945898
  51.3389992 122.3759978 105.9770014  51.9179992 122.5259978 106.7240014
  51.7529992 122.8459978 105.2540014  51.4743122 122.4601277 105.9815042
  42.2799992 123.2099978 117.7540014  42.3499992 123.8609978 118.4520014
  41.3889992 123.3129978 117.4190014  42.1691802 123.3129757 117.8042249
  49.0649992 129.1119978 109.4120014  49.5389992 129.4079978 110.1900014
  48.5019992 129.8509978 109.1790014  49.0537361 129.2522721 109.4868611
  43.5989992 129.0829978 119.2880014  43.6069992 128.9469978 118.3410014
  42.6829992 128.9659978 119.5400014  43.4762528 129.0485463 119.1923243
  55.0379992 114.1259978 105.7900014  54.1379992 114.2649978 106.0850014
  55.2899992 114.9569978 105.3880014  54.9488683 114.2574055 105.7760232
  43.1039992 122.9129978 107.7640014  42.8119992 123.6809978 107.2730014
  42.4289992 122.2539978 107.6010014  42.9728497 122.9289745 107.6748260
  39.1969992 125.2759978 116.5790014  38.6949992 125.2479978 115.7640014
  39.2019992 124.3709978 116.8880014  39.1290416 125.1497368 116.5093766
  38.9469992 128.0569978 113.4630014  39.8929992 127.9119978 113.4440014
  38.8339992 128.8409978 114.0000014  39.0613578 128.1431697 113.5330317
  57.1449992 128.7229978 119.1450014  57.0949992 127.7669978 119.1080014
  56.3179992 128.9899978 119.5460014  57.0263987 128.6285174 119.1941446
  48.1229992 128.2969978 118.0210014  48.2109992 129.1229978 118.4960014
  47.2599992 127.9669978 118.2700014  48.0183357 128.3655468 118.1197653
  48.5379992 132.0689978 107.8270014  48.4619992 131.9479978 106.8810014
  48.5699992 133.0179978 107.9460014  48.5319156 132.1807530 107.7135048
  42.1909992 130.8579978 109.6080014  42.3429992 130.5099978 110.4870014
  41.3399992 130.5009978 109.3530014  42.0967899 130.7621738 109.6937340
  51.6389992 131.2229978 104.8290014  52.0139992 130.4789978 104.3590014
  51.6439992 130.9529978 105.7480014  51.6910024 131.0846950 104.8887987
  51.3079992 131.1489978 107.5790014  50.3729992 131.2489978 107.7570014
  51.5879992 130.4389978 108.1570014  51.2178173 131.0667239 107.6814998
  54.2969992 120.2159978 119.6250014  53.8889992 120.6959978 118.9050014
  54.3369992 119.3099978 119.3170014  54.2465476 120.1593160 119.4848247
  41.4459992 126.5999978 117.6220014  41.6619992 126.2379978 118.4810014
  40.5899992 126.2249978 117.4120014  41.3599354 126.4997906 117.7112160
  44.0639992 115.0699978 113.6170014  43.2029992 114.9829978 113.2100014
  44.0419992 115.9259978 114.0450014  43.9430411 115.1737884 113.6190857
  48.7269992 114.7919978 116.9920014  49.1469992 114.3769978 117.7450014
  47.7939992 114.6129978 117.1090014  48.6583736 114.7109910 117.1108968
  52.0539992 118.5469978 117.8450014  51.5399992 118.4219978 118.6430014
  51.8979992 119.4599978 117.6010014  51.9626967 118.6532123 117.9210937
  44.1549992 120.0349978 114.7120014  43.5139992 119.9949978 115.4210014
  44.1929992 120.9619978 114.4750014  44.0723670 120.1547795 114.7770550
  44.1519992 120.2559978 109.6240014  43.2599992 119.9159978 109.5660014
  44.6029992 119.8789978 108.8690014  44.0906815 120.1583762 109.5139203
  49.6879992 120.6719978 108.4410014  49.2789992 121.4869978 108.1500014
  50.4079992 120.5319978 107.8270014  49.7294013 120.7646571 108.3180875
  48.7899992 120.8479978 119.9290014  48.2269992 120.1429978 120.2500014
  49.6159992 120.7269978 120.3970014  48.8246674 120.7352165 120.0361751
  50.6929992 120.1179978 111.2550014  50.4969992 120.7239978 110.5400014
  50.8739992 119.2849978 110.8210014  50.6906584 120.0882513 111.0984212
  41.9049992 120.3559978 116.5790014  41.8669992 120.7559978 117.4480014
  41.4149992 119.5389978 116.6700014  41.8335621 120.3002510 116.7101377
  38.5139992 117.4719978 110.4300014  39.1439992 117.4429978 111.1490014
  38.9629992 117.0469978 109.7000014  38.6610692 117.4105316 110.4297771
  39.7879992 118.2179978 105.8540014  40.2619992 118.8089978 105.2690014
  39.0699992 118.7479978 106.2010014  39.7558640 118.3705511 105.8207969
  49.9569992 121.7559978 115.9270014  50.2799992 121.1249978 115.2840014
  49.5159992 121.2219978 116.5870014  49.9415789 121.5973522 115.9282232
  46.7339992 117.6839978 110.7110014  45.8229992 117.7409978 110.9990014
  47.2389992 117.6239978 111.5210014  46.6775387 117.6836870 110.8600646
  41.5619992 119.3129978 109.5370014  40.6729992 119.4119978 109.1970014
  41.8589992 118.4709978 109.1910014  41.4804177 119.2127687 109.4436940
  45.2149992 119.3129978 107.1940014  46.1469992 119.4419978 107.3720014
  44.9999992 119.9819978 106.5440014  45.3134472 119.4210806 107.1304891
  51.1389992 116.9189978 113.9750014  50.4619992 117.0499978 114.6390014
  50.6539992 116.7639978 113.1650014  50.9807265 116.9159659 113.9563397
  54.4269992 132.5899978 120.2520014  54.6259992 133.0139978 119.4170014
  55.0819992 132.9339978 120.8590014  54.5428501 132.6946091 120.2197097
  42.0249992 125.0639978 119.8600014  42.7569992 125.3189978 120.4210014
  41.2439992 125.2689978 120.3750014  42.0197684 125.1266468 120.0064782
  48.0539992 120.4709978 112.5980014  48.6179992 119.9249978 112.0510014
  47.9059992 119.9499978 113.3860014  48.1112575 120.3256552 112.6296987
  43.0559992 116.6079978 109.0160014  42.7389992 115.7049978 108.9810014
  43.8369992 116.6099978 108.4630014  43.1182307 116.4846951 108.9364314
  46.6799992 118.8599978 115.0120014  45.8449992 119.3139978 115.1220014
  47.2039992 119.1359978 115.7640014  46.6365070 118.9594666 115.1287152
  47.2249992 125.0729978 106.6960014  46.4799992 124.5649978 106.3740014
  47.0899992 125.1219978 107.6430014  47.1049047 125.0101596 106.7798845
  54.3749992 124.2059978 115.4830014  55.0159992 124.6619978 114.9390014
  53.5439992 124.3189978 115.0210014  54.3505171 124.2837502 115.3460237
  48.7439992 125.2569978 117.9330014  48.3979992 124.8749978 118.7400014
  48.5439992 126.1899978 118.0050014  48.6696523 125.3309095 118.0530735
  51.8409992 119.7539978 106.5560014  52.7329992 119.6159978 106.8750014
  51.8969992 120.5449978 106.0200014  51.9707107 119.8420526 106.5272091
  42.3489992 124.3679978 112.4660014  43.0939992 124.3649978 111.8650014
  42.4269992 123.5439978 112.9480014  42.4614158 124.2562916 112.4489153
  39.3569992 122.8279978 117.7810014  39.5799992 122.4099978 118.6130014
  38.7549992 122.2159978 117.3580014  39.3061260 122.6879933 117.8377320
  46.3739992 122.3449978 119.9940014  46.0779992 122.1799978 119.0990014
  47.3049992 122.1249978 119.9830014  46.4593982 122.2926578 119.8700045
  50.9939992 127.7189978 117.8840014  50.0939992 127.9019978 117.6160014
  51.0279992 127.9779978 118.8050014  50.8752909 127.7790815 117.9717852
  56.7259992 119.9629978 106.2510014  56.1709992 119.5669978 105.5790014
  56.8259992 120.8739978 105.9730014  56.6635888 120.0318990 106.1215206
  56.6889992 125.7639978 119.0880014  55.8379992 126.0019978 118.7210014
  57.2789992 125.7469978 118.3350014  56.6522408 125.7942966 118.9358879
  55.0209992 128.7489978 106.7160014  54.6479992 127.9239978 107.0250014
  55.2979992 128.5659978 105.8190014  55.0073871 128.6112441 106.6369677
  52.1809992 123.5569978 113.7370014  51.2529992 123.3259978 113.7100014
  52.6319992 122.7799978 113.4070014  52.1148165 123.4202774 113.6886790
  44.7239992 127.8859978 109.8700014  45.2519992 128.6589978 109.6700014
  43.8439992 128.1099978 109.5690014  44.6773176 128.0223161 109.8018409
  46.1519992 125.5489978 109.4470014  45.9109992 126.4739978 109.4880014
  45.4109992 125.0899978 109.8430014  46.0188390 125.6136403 109.5061404
  46.6659992 129.6979978 115.7620014  47.0289992 130.5519978 115.5280014
  47.1979992 129.4059978 116.5020014  46.7876090 129.7754058 115.8300219
  44.8349992 130.5699978 108.9920014  43.8849992 130.6759978 109.0430014
  45.1869992 131.3909978 109.3370014  44.7525480 130.6954438 109.0455999
  50.2099992 125.7969978 115.4620014  49.7849992 125.5689978 116.2890014
  50.7909992 125.0579978 115.2800014  50.2303930 125.6659843 115.5504732
  52.4129992 126.7259978 104.5360014  52.7669992 126.3459978 105.3410014
  51.4649992 126.6319978 104.6230014  52.3331820 126.6613092 104.6578714
  52.8689992 130.3489978 117.9320014  52.2669992 129.7929978 117.4360014
  53.1499992 131.0159978 117.3060014  52.8246829 130.3631613 117.7795443
  56.9169992 131.2049978 104.7370014  57.6609992 131.7909978 104.5970014
  56.2229992 131.7739978 105.0710014  56.9250201 131.3620603 104.7629772
  40.9909992 117.5819978 117.3390014  40.0989992 117.9199978 117.2720014
  40.8929992 116.7259978 117.7570014  40.8554965 117.5126499 117.3863044
  53.2789992 125.3979978 106.7630014  53.0019992 124.6699978 107.3190014
  54.2069992 125.5169978 106.9680014  53.3664499 125.3144213 106.8668044
  40.6429992 129.3859978 115.7740014  40.8599992 128.4539978 115.7430014
  40.8889992 129.6609978 116.6570014  40.7059809 129.2955686 115.8891690
  45.4409992 127.4079978 105.4400014  45.5879992 126.8879978 106.2300014
  45.4379992 128.3149978 105.7460014  45.4607300 127.4593964 105.5895895
  41.8939992 124.6599978 105.9500014  41.2079992 125.0129978 106.5170014
  42.4169992 125.4229978 105.7040014  41.8709033 124.8113746 105.9942661
  49.7259992 117.3229978 116.2290014  50.4249992 117.3969978 116.8790014
  49.3449992 116.4579978 116.3830014  49.7702097 117.2162389 116.3387997
  50.5099992 116.9749978 107.3260014  50.7299992 117.4459978 106.5230014
  51.0689992 117.3689978 107.9960014  50.6156730 117.0927432 107.3065906
  47.7099992 118.7029978 108.1610014  48.5219992 119.2069978 108.2070014
  47.4659992 118.5579978 109.0750014  47.7881467 118.7523749 108.2908575
  48.2459992 119.6889978 117.3460014  48.3649992 120.2629978 118.1030014
  48.9009992 119.0009978 117.4600014  48.3509146 119.6745574 117.4651313
  48.5939992 115.7839978 109.0990014  48.2469992 116.4009978 109.7440014
  49.2529992 116.2849978 108.6180014  48.6355949 115.9361099 109.1222271
  45.5169992 130.1489978 106.1710014  45.6779992 130.9489978 105.6700014
  45.3199992 130.4559978 107.0560014  45.5123919 130.2999129 106.2221006
  44.2519992 116.8469978 105.7860014  44.1679992 117.7349978 106.1330014
  45.1419992 116.5819978 106.0180014  44.3608163 116.9327179 105.8648596
  54.4499992 117.5959978 118.1810014  53.5339992 117.8579978 118.0930014
  54.7859992 117.5929978 117.2840014  54.3699789 117.6314626 118.0477847
  53.0529992 121.3459978 112.2760014  52.2549992 120.9309978 111.9480014
  53.4979992 120.6559978 112.7670014  53.0039684 121.1958628 112.2975227
  54.1389992 130.6019978 113.8990014  53.9829992 131.2809978 113.2420014
  55.0719992 130.6739978 114.1020014  54.2437387 130.7046390 113.8365342
  41.6339992 114.7199978 112.6360014  41.4049992 114.7789978 111.7080014
  41.1919992 113.9289978 112.9420014  41.5428801 114.6210540 112.5504729
  40.5649992 128.6609978 108.7960014  39.7319992 129.1329978 108.8240014
  41.1099992 129.1709978 108.1980014  40.5247590 128.7945897 108.7189194
  39.8529992 131.2729978 120.1260014  40.3929992 131.0569978 120.8860014
  39.3719992 130.4679978 119.9370014  39.8618613 131.1345400 120.2044782
  44.4499992 130.1929978 121.7470014  45.2179992 129.7339978 122.0880014
  44.4289992 129.9669978 120.8170014  44.5522135 130.0996668 121.6679491
  51.0269992 128.5729978 120.4760014  50.6759992 127.7159978 120.7190014
  51.7529992 128.7149978 121.0830014  51.0771590 128.4750178 120.5912907
  53.1469992 129.5179978 103.3560014  53.4299992 128.7229978 103.8080014
  53.8859992 129.7509978 102.7950014  53.2856956 129.4407031 103.3419821
  39.7599992 125.0839978 121.0810014  39.9039992 124.1819978 120.7940014
  38.9879992 125.3699978 120.5930014  39.6753303 124.9993243 120.9757908
  46.4149992 125.0529978 120.5130014  46.0869992 125.3239978 119.6560014
  46.5669992 124.1119978 120.4260014  46.3906030 124.9628973 120.3837945
  52.1499992 124.9689978 117.8970014  52.8949992 125.5579978 117.7770014
  51.3929992 125.5509978 117.9600014  52.1495205 125.1281997 117.8891119
  40.5929992 122.2839978 120.5010014  41.0009992 121.4269978 120.3800014
  40.3319992 122.2979978 121.4220014  40.6136016 122.1685119 120.6089192
  45.2509992 123.3999978 105.5190014  44.7909992 122.9159978 106.2050014
  45.5059992 122.7309978 104.8830014  45.2225038 123.2433689 105.5269447
  44.5399992 121.2929978 117.8750014  43.9209992 121.9669978 118.1550014
  44.8839992 121.6139978 117.0420014  44.5017605 121.4287198 117.8006707
  49.5589992 123.7639978 121.1520014  50.5129992 123.8479978 121.1250014
  49.3989992 123.0519978 121.7720014  49.6677182 123.6792842 121.2320733
  44.8789992 118.6479978 118.9570014  45.0289992 117.9189978 118.3550014
  44.8809992 119.4249978 118.3980014  44.8997967 118.6532708 118.7990541
  45.2919992 117.0169978 116.4500014  45.8269992 117.4689978 115.7980014
  44.4389992 116.9089978 116.0270014  45.2500374 117.0642665 116.3036710
  46.8729992 122.4569978 116.6890014  47.6239992 122.3009978 116.1160014
  46.5339992 123.3089978 116.4140014  46.9299587 122.5508138 116.5734078
  51.2889992 120.2719978 121.7180014  51.4809992 119.3409978 121.6060014
  52.1469992 120.6969978 121.7080014  51.4312269 120.2019928 121.7013192
  52.6059992 123.0609978 119.7950014  52.3239992 123.7699978 119.2180014
  53.5479992 122.9879978 119.6440014  52.6947656 123.1483128 119.6954809
  43.3579992 119.8459978 120.8690014  42.5899992 119.3129978 120.6590014
  44.0359992 119.5359978 120.2690014  43.3446973 119.7312375 120.7591796
  46.0969992 114.4739978 116.8810014  45.9989992 115.4199978 116.7760014
  45.3549992 114.1009978 116.4060014  45.9831913 114.5531813 116.8023539
  47.3609992 118.7949978 120.4450014  47.1259992 118.5759978 121.3470014
  46.5779992 118.5879978 119.9350014  47.2229219 118.7370066 120.4995852
  50.0769992 117.9229978 119.5210014  49.1289992 117.9549978 119.6530014
  50.3889992 117.2969978 120.1740014  49.9895190 117.8427262 119.6273563
  51.7109992 116.5569978 121.5260014  51.6139992 115.6049978 121.5200014
  51.3889992 116.8249978 122.3860014  51.6541761 116.4629744 121.6414936
  41.5379992 117.7659978 120.5730014  41.7499992 117.0599978 119.9630014
  41.4269992 117.3289978 121.4170014  41.5520269 117.6101921 120.6035873
  46.3189992 113.7679978 119.5530014  47.0309992 113.1279978 119.5390014
  46.2179992 114.0339978 118.6390014  46.4027261 113.7164190 119.4275537
  46.6729992 115.4499978 121.6060014  46.5409992 114.9749978 120.7860014
  46.0729992 116.1949978 121.5510014  46.5739070 115.4855789 121.4863251
  38.4359992 132.3629978 109.3430014  37.7889992 131.9009978 108.8100014
  38.7909992 131.6909978 109.9250014  38.3954506 132.2089503 109.3487341
  39.3059992 130.4429978 111.1470014  38.9719992 129.5629978 111.3190014
  39.5289992 130.7889978 112.0120014  39.2903721 130.3691938 111.2874168
  56.8549992 131.2529978 114.1280014  56.8329992 131.4379978 115.0670014
  57.5449992 131.8209978 113.7870014  56.9453439 131.3551887 114.2104791
  56.4179992 130.8199978 117.0500014  55.9309992 130.0849978 116.6790014
  56.9669992 130.4259978 117.7280014  56.4255247 130.6661057 117.0908461
  54.8689992 126.6099978 121.6880014  54.0029992 126.5049978 122.0820014
  55.2449992 127.3679978 122.1340014  54.8013401 126.6981708 121.8022620
  56.1699992 124.8659978 107.2020014  57.0199992 125.2869978 107.3290014
  56.1749992 124.1259978 107.8090014  56.2871143 124.8236094 107.3014750
  56.5639992 122.9199978 109.0260014  55.8379992 122.4399978 109.4230014
  57.1459992 123.1249978 109.7580014  56.5431635 122.8819166 109.1793748
  56.3229992 125.7049978 113.9730014  57.1569992 125.3269978 113.6930014
  56.4349992 126.6479978 113.8540014  56.4522522 125.7807742 113.9186020
  54.8099992 128.5829978 116.2800014  54.1619992 128.9079978 116.9060014
  54.2919992 128.1419978 115.6060014  54.6514168 128.5678523 116.2745307
  54.3509992 121.4409978 109.5890014  54.2009992 120.4959978 109.5680014
  53.9969992 121.7219978 110.4320014  54.2825527 121.3495605 109.7001859
  39.3859992 123.5189978 113.5990014  39.5709992 123.4369978 112.6630014
  40.2359992 123.3949978 114.0230014  39.5260916 123.4910393 113.5282896
  55.2069992 123.4109978 119.2270014  55.7899992 122.6759978 119.4190014
  55.7709992 124.1829978 119.2740014  55.3629781 123.4148145 119.2596164
  56.7039992 121.3139978 119.9120014  55.8409992 120.9349978 119.7460014
  57.3079992 120.5749978 119.8380014  56.6675944 121.1622978 119.8792984
  54.0619992 119.0229978 108.0510014  54.3409992 118.1159978 108.1750014
  54.8209992 119.4569978 107.6620014  54.2028619 118.9574502 108.0153795
  54.6729992 119.6049978 113.4870014  55.6059992 119.8169978 113.4530014
  54.4379992 119.7059978 114.4090014  54.7688308 119.6476503 113.6070214
  54.7029992 120.3419978 116.2630014  53.8599992 120.6099978 116.6290014
  55.1449992 121.1639978 116.0520014  54.6474138 120.4898273 116.2845518
  38.9839992 118.7889978 119.7400014  39.9029992 118.6669978 119.9760014
  38.5339992 118.0389978 120.1290014  39.0491148 118.6708751 119.8249408
  56.9859992 114.3219978 121.6160014  57.3349992 113.6679978 121.0110014
  57.1329992 115.1589978 121.1770014  57.0537355 114.3456067 121.4736564
  54.6749992 116.2859978 108.0990014  54.8569992 115.8369978 108.9250014
  54.0749992 115.7019978 107.6360014  54.6187529 116.1456131 108.1493619
  40.2049992 117.1019978 112.6310014  40.6499992 116.3099978 112.9330014
  40.6709992 117.8179978 113.0620014  40.3289059 117.0904474 112.7306079
  38.5089992 120.1009978 113.7000014  39.0009992 119.8799978 112.9090014
  38.8709992 120.9409978 113.9810014  38.6252923 120.1843468 113.6297407
  56.5049992 116.4309978 119.9660014  55.5879992 116.7019978 119.9300014
  56.6279992 115.8959978 119.1820014  56.3960828 116.3957700 119.8550785
  38.8229992 116.3589978 107.7540014  37.8979992 116.5669978 107.6250014
  39.2769992 116.8429978 107.0650014  38.7576374 116.4529949 107.6430957
  53.5929992 131.3429978 109.7000014  54.2459992 130.9949978 109.0920014
  54.1039992 131.8309978 110.3460014  53.7512777 131.3613815 109.7042047
  38.7859992 115.0969978 116.0990014  38.1209992 114.8509978 116.7420014
  38.3429992 115.7189978 115.5210014  38.6350937 115.1473614 116.1089379
  40.9779992 128.2719978 120.2430014  40.1569992 128.4469978 119.7830014
  40.7259992 128.1989978 121.1640014  40.8316173 128.2860794 120.3044972
  43.9319992 129.2459978 116.5020014  43.5079992 130.0559978 116.2190014
  44.8369992 129.3319978 116.2000014  43.9962433 129.3683331 116.4225377
  48.2439992 130.6449978 119.4610014  48.4279992 130.3119978 120.3390014
  49.0899992 130.9549978 119.1390014  48.3836484 130.6412979 119.5377617
  50.5889992 131.9309978 118.7050014  51.2659992 131.2979978 118.4650014
  50.9099992 132.3319978 119.5120014  50.7251323 131.8985691 118.7813158
  55.5059992 114.5209978 117.7850014  54.6929992 114.8459978 117.3970014
  55.7389992 113.7599978 117.2520014  55.4262566 114.4626559 117.6599213
  41.3339992 132.5029978 116.5490014  40.6139992 132.9429978 116.0980014
  40.9689992 132.2519978 117.3980014  41.1859796 132.5293824 116.6019329
  43.8009992 132.1029978 115.5790014  42.9369992 132.1749978 115.9830014
  43.7459992 132.6499978 114.7950014  43.6751942 132.1867849 115.5284000
  48.5119992 131.9909978 114.7540014  48.0549992 132.5199978 114.1000014
  48.6749992 132.5939978 115.4800014  48.4714476 132.1449140 114.7625499
  50.8399992 130.8689978 115.6990014  49.9349992 131.0339978 115.4340014
  51.2679992 131.7219978 115.6340014  50.7740700 131.0069529 115.6539520
  53.4439992 132.4389978 115.9940014  53.2619992 133.3549978 115.7840014
  53.6209992 132.0279978 115.1480014  53.4429907 132.5089741 115.8507883
  40.7489992 131.1259978 113.4590014  40.7309992 130.6999978 114.3170014
  41.5539992 130.8069978 113.0510014  40.8553221 131.0247233 113.5210225
  42.8899992 129.8359978 112.1140014  42.6709992 128.9189978 112.2840014
  43.7139992 129.9759978 112.5800014  42.9714702 129.7295511 112.2002527
  45.4269992 130.3059978 112.9630014  45.6399992 129.4179978 112.6760014
  45.4919992 130.2709978 113.9180014  45.4649075 130.1798307 113.0527373
  48.9359992 115.9699978 112.1070014  48.2619992 115.3399978 112.3630014
  49.4999992 115.4859978 111.5040014  48.9200384 115.8183708 112.0605020
  54.0789992 114.0769978 112.2200014  54.6819992 114.6249978 111.7180014
  53.2089992 114.3959978 111.9800014  54.0439190 114.1951041 112.1188679
  55.8059992 115.2159978 110.5530014  56.4169992 114.7019978 110.0270014
  56.1879992 116.0929978 110.5770014  55.9414475 115.2641323 110.4841208
  41.2629992 114.6039978 109.9290014  40.4859992 114.3689978 109.4220014
  41.7929992 113.8069978 109.9380014  41.2283451 114.4641268 109.8608627
  40.0989992 114.4019978 105.7330014  40.5379992 115.0129978 105.1410014
  39.4649992 114.9399978 106.2070014  40.0733859 114.5584064 105.7160305
  45.8419992 114.5299978 109.7430014  46.7159992 114.9189978 109.7130014
  45.7059992 114.3149978 110.6650014  45.9433207 114.5541923 109.8636509
  51.3989992 114.5599978 111.3920014  51.4749992 114.6559978 110.4430014
  51.1239992 113.6529978 111.5210014  51.3722042 114.4504241 111.2793811
  52.7519992 114.5859978 107.0840014  52.0489992 115.2009978 106.8750014
  52.3069992 113.7489978 107.2160014  52.5956292 114.5570085 107.0732439
  39.9999992 130.3499978 106.6310014  39.3149992 130.3119978 105.9630014
  40.0039992 131.2629978 106.9190014  39.9068174 130.4681998 106.5785310
  41.9599992 116.3179978 104.1750014  42.4509992 115.6879978 103.6480014
  42.5829992 116.6139978 104.8390014  42.1115062 116.2716770 104.1925438
  46.9859992 116.6109978 106.6330014  47.1639992 115.9639978 107.3150014
  46.9319992 117.4449978 107.1000014  47.0031025 116.6350504 106.7896433
  48.8639992 131.5589978 105.0280014  49.7299992 131.9259978 104.8500014
  48.6179992 131.1199978 104.2140014  48.9492097 131.5498525 104.8936019
  55.5729992 131.1219978 107.7070014  55.3789992 130.3739978 107.1420014
  55.5339992 131.8799978 107.1240014  55.5411645 131.1220786 107.5508148
  41.2199992 115.1179978 119.4470014  40.8539992 114.3519978 119.8900014
  42.1329992 115.1469978 119.7340014  41.2933225 115.0171906 119.5463459
  43.1929992 114.4679978 120.9830014  44.0919992 114.1939978 120.7980014
  42.8069992 113.7259978 121.4470014  43.2637237 114.3301508 121.0204710
  51.6149992 113.8009978 121.1650014  51.6909992 113.3749978 122.0190014
  52.5079992 113.8139978 120.8220014  51.7462267 113.7443952 121.2355932
  54.7909992 129.8739978 119.8570014  54.0089992 129.6869978 119.3380014
  54.7189992 130.8029978 120.0750014  54.6740863 129.9740221 119.8153574
  69.1969992 123.7599978 109.8880014  69.2859992 124.7039978 109.7560014
  68.5589992 123.4849978 109.2300014  69.1229062 123.8519812 109.7809641
  68.1299992 123.0149978 113.3070014  68.0919992 122.3689978 114.0120014
  67.8079992 122.5479978 112.5360014  68.0812679 122.8634276 113.2992921
  60.4979992 122.6289978 114.9000014  60.5399992 122.0039978 115.6230014
  61.2009992 123.2529978 115.0820014  60.5987345 122.6277873 115.0235274
  71.8359992 125.9539978 111.6090014  71.3949992 125.2339978 112.0590014
  71.8229992 126.6749978 112.2380014  71.7737960 125.9528329 111.7557567
  61.4219992 127.0789978 113.4350014  61.0519992 126.2769978 113.0650014
  62.3629992 126.9109978 113.4810014  61.4985984 126.9464638 113.3905603
  58.0319992 120.7389978 108.8280014  57.5839992 121.5849978 108.8090014
  57.4709992 120.1599978 108.3120014  57.8949603 120.7763674 108.7556720
  58.7419992 122.9009978 110.9540014  58.9559992 122.1309978 111.4810014
  59.4799992 122.9909978 110.3500014  58.8709652 122.8078012 110.9445212
  68.9479992 131.0579978 111.8210014  69.5669992 130.3819978 111.5470014
  68.7389992 130.8399978 112.7290014  69.0046232 130.9357938 111.9062517
  66.5189992 125.4469978 113.7130014  66.8229992 124.7609978 113.1190014
  67.2409992 125.5659978 114.3310014  66.6581152 125.3692189 113.7152124
  75.1819992 117.0489978 114.5740014  75.2319992 117.6589978 115.3100014
  75.6079992 117.5099978 113.8510014  75.2464108 117.1947709 114.5770112
  69.6599992 119.8409978 114.0410014  69.8029992 118.8949978 114.0610014
  69.5539992 120.0479978 113.1120014  69.6652509 119.7394813 113.9182231
  62.8149992 117.9429978 111.3130014  62.8579992 118.8029978 110.8950014
  62.3569992 117.3909978 110.6790014  62.7589815 117.9860621 111.1701197
  70.5369992 118.0739978 109.7140014  71.1839992 117.7449978 110.3390014
  71.0469992 118.5909978 109.0910014  70.6944317 118.0989227 109.7152167
  59.4349992 120.3399978 112.0750014  60.0889992 119.7899978 112.5070014
  59.4589992 120.0659978 111.1580014  59.5277199 120.2277167 112.0101668
  64.5919992 121.8899978 111.2900014  65.2079992 121.3629978 111.8000014
  64.0049992 121.2499978 110.8870014  64.5969239 121.7314117 111.3052952
  75.5739992 118.5269978 116.8100014  74.8849992 119.1849978 116.7140014
  75.5889992 118.3289978 117.7460014  75.4816740 118.5903243 116.9234630
  61.6249992 116.8609978 115.3870014  61.4059992 117.3909978 114.6210014
  60.9569992 117.0869978 116.0340014  61.5047001 116.9641154 115.3696064
  68.9939992 126.3609978 108.9310014  68.6989992 126.0379978 108.0800014
  68.6699992 127.2609978 108.9720014  68.9097983 126.4384026 108.8199771
  64.1939992 124.5359978 115.6750014  63.4539992 125.1349978 115.7780014
  64.9079992 125.0899978 115.3590014  64.1893288 124.6927356 115.6463805
  72.3009992 117.3649978 111.6940014  72.0859992 116.5989978 112.2270014
  72.9569992 117.8369978 112.2070014  72.3602673 117.3240728 111.8361990
  61.2189992 118.7529978 113.3390014  61.8329992 119.3859978 113.7130014
  61.7309992 118.2809978 112.6830014  61.3722277 118.7757352 113.3014279
  62.6019992 126.5009978 116.4620014  62.5959992 127.3799978 116.0840014
  61.7479992 126.4169978 116.8870014  62.4857925 126.6099535 116.4676887
  72.3479992 127.7929978 113.9560014  71.4059992 127.8519978 114.1180014
  72.6239992 128.6989978 113.8190014  72.2565865 127.9235288 113.9596192
  72.6479992 116.0799978 115.3740014  71.9119992 116.6899978 115.3360014
  73.3319992 116.4949978 114.8470014  72.6395506 116.2196400 115.2976051
  65.6519992 114.1659978 112.8400014  65.5339992 113.2179978 112.7850014
  64.7969992 114.4989978 113.1130014  65.5202679 114.0811926 112.8693720
  70.5999992 129.5739978 110.5820014  71.0249992 128.8669978 110.0970014
  70.9169992 130.3759978 110.1650014  70.7010266 129.5855190 110.4592479
  71.7599992 127.4749978 109.0900014  71.5019992 126.7849978 108.4790014
  71.8309992 127.0319978 109.9360014  71.7342837 127.3207106 109.1206912
  73.4459992 126.0419978 117.5680014  73.5849992 125.4499978 116.8280014
  73.6129992 126.9149978 117.2110014  73.4875562 126.0789896 117.4186283
  67.9179992 123.0039978 107.3400014  67.2069992 123.5389978 106.9880014
  68.6089992 123.0589978 106.6800014  67.9140751 123.0846777 107.2025858
  75.2869992 122.3819978 115.6340014  74.6349992 123.0759978 115.7230014
  75.7529992 122.5919978 114.8240014  75.2605937 122.5055019 115.5367533
  71.3239992 123.2129978 108.2920014  70.5919992 123.4419978 108.8650014
  71.7709992 122.4999978 108.7470014  71.2842753 123.1478972 108.4319715
  71.2209992 121.3879978 117.3600014  71.3009992 122.1509978 117.9310014
  70.6199992 121.6669978 116.6690014  71.1507245 121.5302630 117.3448424
  62.9689992 123.8439978 110.1740014  62.6389992 123.4729978 109.3560014
  63.5579992 123.1729978 110.5210014  63.0033970 123.7026063 110.1089404
  64.3359992 127.2719978 112.8560014  64.2409992 126.6929978 112.0990014
  65.0649992 126.9009978 113.3520014  64.4216161 127.1425891 112.8195209
  63.3359992 122.6119978 113.8080014  63.9009992 122.7339978 113.0450014
  63.6549992 123.2499978 114.4470014  63.4563977 122.7148851 113.7899424
  69.6449992 128.1159978 114.5420014  69.4049992 128.7779978 115.1900014
  69.4469992 127.2809978 114.9670014  69.5853826 128.0938115 114.6881566
  64.2159992 127.0119978 118.5250014  63.9049992 127.7939978 118.9800014
  63.5659992 126.8589978 117.8390014  64.0855538 127.0984087 118.4945898
  70.1949992 122.3759978 105.9770014  70.7739992 122.5259978 106.7240014
  70.6089992 122.8459978 105.2540014  70.3303122 122.4601277 105.9815042
  61.1359992 123.2099978 117.7540014  61.2059992 123.8609978 118.4520014
  60.2449992 123.3129978 117.4190014  61.0251802 123.3129757 117.8042249
  67.9209992 129.1119978 109.4120014  68.3949992 129.4079978 110.1900014
  67.3579992 129.8509978 109.1790014  67.9097361 129.2522721 109.4868611
  62.4549992 129.0829978 119.2880014  62.4629992 128.9469978 118.3410014
  61.5389992 128.9659978 119.5400014  62.3322528 129.0485463 119.1923243
  61.9599992 122.9129978 107.7640014  61.6679992 123.6809978 107.2730014
  61.2849992 122.2539978 107.6010014  61.8288497 122.9289745 107.6748260
  58.0529992 125.2759978 116.5790014  57.5509992 125.2479978 115.7640014
  58.0579992 124.3709978 116.8880014  57.9850416 125.1497368 116.5093766
  57.8029992 128.0569978 113.4630014  58.7489992 127.9119978 113.4440014
  57.6899992 128.8409978 114.0000014  57.9173578 128.1431697 113.5330317
  76.0009992 128.7229978 119.1450014  75.9509992 127.7669978 119.1080014
  75.1739992 128.9899978 119.5460014  75.8823987 128.6285174 119.1941446
  66.9789992 128.2969978 118.0210014  67.0669992 129.1229978 118.4960014
  66.1159992 127.9669978 118.2700014  66.8743357 128.3655468 118.1197653
  67.3939992 132.0689978 107.8270014  67.3179992 131.9479978 106.8810014
  67.4259992 133.0179978 107.9460014  67.3879156 132.1807530 107.7135048
  61.0469992 130.8579978 109.6080014  61.1989992 130.5099978 110.4870014
  60.1959992 130.5009978 109.3530014  60.9527899 130.7621738 109.6937340
  70.4949992 131.2229978 104.8290014  70.8699992 130.4789978 104.3590014
  70.4999992 130.9529978 105.7480014  70.5470024 131.0846950 104.8887987
  70.1639992 131.1489978 107.5790014  69.2289992 131.2489978 107.7570014
  70.4439992 130.4389978 108.1570014  70.0738173 131.0667239 107.6814998
  73.1529992 120.2159978 119.6250014  72.7449992 120.6959978 118.9050014
  73.1929992 119.3099978 119.3170014  73.1025476 120.1593160 119.4848247
  60.3019992 126.5999978 117.6220014  60.5179992 126.2379978 118.4810014
  59.4459992 126.2249978 117.4120014  60.2159354 126.4997906 117.7112160
  62.9199992 115.0699978 113.6170014  62.0589992 114.9829978 113.2100014
  62.8979992 115.9259978 114.0450014  62.7990411 115.1737884 113.6190857
  67.5829992 114.7919978 116.9920014  68.0029992 114.3769978 117.7450014
  66.6499992 114.6129978 117.1090014  67.5143736 114.7109910 117.1108968
  70.9099992 118.5469978 117.8450014  70.3959992 118.4219978 118.6430014
  70.7539992 119.4599978 117.6010014  70.8186967 118.6532123 117.9210937
  67.2449992 117.2839978 104.2770014  66.9909992 117.3029978 105.2000014
  66.9879992 116.4129978 103.9760014  67.1755133 117.1688110 104.3625082
  63.0109992 120.0349978 114.7120014  62.3699992 119.9949978 115.4210014
  63.0489992 120.9619978 114.4750014  62.9283670 120.1547795 114.7770550
  63.0079992 120.2559978 109.6240014  62.1159992 119.9159978 109.5660014
  63.4589992 119.8789978 108.8690014  62.9466815 120.1583762 109.5139203
  68.5439992 120.6719978 108.4410014  68.1349992 121.4869978 108.1500014
  69.2639992 120.5319978 107.8270014  68.5854013 120.7646571 108.3180875
  67.6459992 120.8479978 119.9290014  67.0829992 120.1429978 120.2500014
  68.4719992 120.7269978 120.3970014  67.6806674 120.7352165 120.0361751
  69.5489992 120.1179978 111.2550014  69.3529992 120.7239978 110.5400014
  69.7299992 119.2849978 110.8210014  69.5466584 120.0882513 111.0984212
  60.7609992 120.3559978 116.5790014  60.7229992 120.7559978 117.4480014
  60.2709992 119.5389978 116.6700014  60.6895621 120.3002510 116.7101377
  57.3699992 117.4719978 110.4300014  57.9999992 117.4429978 111.1490014
  57.8189992 117.0469978 109.7000014  57.5170692 117.4105316 110.4297771
  68.8129992 121.7559978 115.9270014  69.1359992 121.1249978 115.2840014
  68.3719992 121.2219978 116.5870014  68.7975789 121.5973522 115.9282232
  65.5899992 117.6839978 110.7110014  64.6789992 117.7409978 110.9990014
  66.0949992 117.6239978 111.5210014  65.5335387 117.6836870 110.8600646
  60.4179992 119.3129978 109.5370014  59.5289992 119.4119978 109.1970014
  60.7149992 118.4709978 109.1910014  60.3364177 119.2127687 109.4436940
  64.0709992 119.3129978 107.1940014  65.0029992 119.4419978 107.3720014
  63.8559992 119.9819978 106.5440014  64.1694472 119.4210806 107.1304891
  69.9949992 116.9189978 113.9750014  69.3179992 117.0499978 114.6390014
  69.5099992 116.7639978 113.1650014  69.8367265 116.9159659 113.9563397
  73.2829992 132.5899978 120.2520014  73.4819992 133.0139978 119.4170014
  73.9379992 132.9339978 120.8590014  73.3988501 132.6946091 120.2197097
  60.8809992 125.0639978 119.8600014  61.6129992 125.3189978 120.4210014
  60.0999992 125.2689978 120.3750014  60.8757684 125.1266468 120.0064782
  66.9099992 120.4709978 112.5980014  67.4739992 119.9249978 112.0510014
  66.7619992 119.9499978 113.3860014  66.9672575 120.3256552 112.6296987
  61.9119992 116.6079978 109.0160014  61.5949992 115.7049978 108.9810014
  62.6929992 116.6099978 108.4630014  61.9742307 116.4846951 108.9364314
  65.5359992 118.8599978 115.0120014  64.7009992 119.3139978 115.1220014
  66.0599992 119.1359978 115.7640014  65.4925070 118.9594666 115.1287152
  66.0809992 125.0729978 106.6960014  65.3359992 124.5649978 106.3740014
  65.9459992 125.1219978 107.6430014  65.9609047 125.0101596 106.7798845
  73.2309992 124.2059978 115.4830014  73.8719992 124.6619978 114.9390014
  72.3999992 124.3189978 115.0210014  73.2065171 124.2837502 115.3460237
  69.9779992 117.8869978 104.8960014  69.0399992 117.9979978 104.7440014
  70.2759992 118.7429978 105.2020014  69.8896402 118.0180621 104.9165571
  67.5999992 125.2569978 117.9330014  67.2539992 124.8749978 118.7400014
  67.3999992 126.1899978 118.0050014  67.5256523 125.3309095 118.0530735
  70.6969992 119.7539978 106.5560014  71.5889992 119.6159978 106.8750014
  70.7529992 120.5449978 106.0200014  70.8267107 119.8420526 106.5272091
  61.2049992 124.3679978 112.4660014  61.9499992 124.3649978 111.8650014
  61.2829992 123.5439978 112.9480014  61.3174158 124.2562916 112.4489153
  68.2059992 126.5309978 105.7220014  67.9109992 127.3579978 106.1030014
  67.5029992 125.9119978 105.9180014  68.0705471 126.5605227 105.8006698
  58.2129992 122.8279978 117.7810014  58.4359992 122.4099978 118.6130014
  57.6109992 122.2159978 117.3580014  58.1621260 122.6879933 117.8377320
  65.2299992 122.3449978 119.9940014  64.9339992 122.1799978 119.0990014
  66.1609992 122.1249978 119.9830014  65.3153982 122.2926578 119.8700045
  69.8499992 127.7189978 117.8840014  68.9499992 127.9019978 117.6160014
  69.8839992 127.9779978 118.8050014  69.7312909 127.7790815 117.9717852
  75.5449992 125.7639978 119.0880014  74.6939992 126.0019978 118.7210014
  76.1349992 125.7469978 118.3350014  75.5082408 125.7942966 118.9358879
  73.8769992 128.7489978 106.7160014  73.5039992 127.9239978 107.0250014
  74.1539992 128.5659978 105.8190014  73.8633871 128.6112441 106.6369677
  71.0369992 123.5569978 113.7370014  70.1089992 123.3259978 113.7100014
  71.4879992 122.7799978 113.4070014  70.9708165 123.4202774 113.6886790
  63.5799992 127.8859978 109.8700014  64.1079992 128.6589978 109.6700014
  62.6999992 128.1099978 109.5690014  63.5333176 128.0223161 109.8018409
  65.0079992 125.5489978 109.4470014  64.7669992 126.4739978 109.4880014
  64.2669992 125.0899978 109.8430014  64.8748390 125.6136403 109.5061404
  65.5219992 129.6979978 115.7620014  65.8849992 130.5519978 115.5280014
  66.0539992 129.4059978 116.5020014  65.6436090 129.7754058 115.8300219
  63.6909992 130.5699978 108.9920014  62.7409992 130.6759978 109.0430014
  64.0429992 131.3909978 109.3370014  63.6085480 130.6954438 109.0455999
  69.0659992 125.7969978 115.4620014  68.6409992 125.5689978 116.2890014
  69.6469992 125.0579978 115.2800014  69.0863930 125.6659843 115.5504732
  71.7249992 130.3489978 117.9320014  71.1229992 129.7929978 117.4360014
  72.0059992 131.0159978 117.3060014  71.6806829 130.3631613 117.7795443
  59.8469992 117.5819978 117.3390014  58.9549992 117.9199978 117.2720014
  59.7489992 116.7259978 117.7570014  59.7114965 117.5126499 117.3863044
  72.1349992 125.3979978 106.7630014  71.8579992 124.6699978 107.3190014
  73.0629992 125.5169978 106.9680014  72.2224499 125.3144213 106.8668044
  59.4989992 129.3859978 115.7740014  59.7159992 128.4539978 115.7430014
  59.7449992 129.6609978 116.6570014  59.5619809 129.2955686 115.8891690
  64.2969992 127.4079978 105.4400014  64.4439992 126.8879978 106.2300014
  64.2939992 128.3149978 105.7460014  64.3167300 127.4593964 105.5895895
  68.5819992 117.3229978 116.2290014  69.2809992 117.3969978 116.8790014
  68.2009992 116.4579978 116.3830014  68.6262097 117.2162389 116.3387997
  69.3659992 116.9749978 107.3260014  69.5859992 117.4459978 106.5230014
  69.9249992 117.3689978 107.9960014  69.4716730 117.0927432 107.3065906
  67.0349992 129.1049978 106.1890014  66.2179992 129.6019978 106.2410014
  67.5639992 129.5809978 105.5490014  66.9948508 129.2372543 106.1096035
  66.5659992 118.7029978 108.1610014  67.3779992 119.2069978 108.2070014
  66.3219992 118.5579978 109.0750014  66.6441467 118.7523749 108.2908575
  67.1019992 119.6889978 117.3460014  67.2209992 120.2629978 118.1030014
  67.7569992 119.0009978 117.4600014  67.2069146 119.6745574 117.4651314
  67.4499992 115.7839978 109.0990014  67.1029992 116.4009978 109.7440014
  68.1089992 116.2849978 108.6180014  67.4915949 115.9361099 109.1222271
  64.3729992 130.1489978 106.1710014  64.5339992 130.9489978 105.6700014
  64.1759992 130.4559978 107.0560014  64.3683919 130.2999129 106.2221006
  63.1079992 116.8469978 105.7860014  63.0239992 117.7349978 106.1330014
  63.9979992 116.5819978 106.0180014  63.2168163 116.9327179 105.8648596
  73.3059992 117.5959978 118.1810014  72.3899992 117.8579978 118.0930014
  73.6419992 117.5929978 117.2840014  73.2259789 117.6314626 118.0477847
  71.9089992 121.3459978 112.2760014  71.1109992 120.9309978 111.9480014
  72.3539992 120.6559978 112.7670014  71.8599684 121.1958628 112.2975227
  61.3659992 127.2739978 104.8470014  61.9579992 127.9739978 105.1230014
  61.8249992 126.8409978 104.1270014  61.5090791 127.3112908 104.7874607
  72.9949992 130.6019978 113.8990014  72.8389992 131.2809978 113.2420014
  73.9279992 130.6739978 114.1020014  73.0997387 130.7046390 113.8365342
  60.4899992 114.7199978 112.6360014  60.2609992 114.7789978 111.7080014
  60.0479992 113.9289978 112.9420014  60.3988801 114.6210540 112.5504729
  59.4209992 128.6609978 108.7960014  58.5879992 129.1329978 108.8240014
  59.9659992 129.1709978 108.1980014  59.3807590 128.7945897 108.7189194
  58.7089992 131.2729978 120.1260014  59.2489992 131.0569978 120.8860014
  58.2279992 130.4679978 119.9370014  58.7178613 131.1345400 120.2044782
  63.3059992 130.1929978 121.7470014  64.0739992 129.7339978 122.0880014
  63.2849992 129.9669978 120.8170014  63.4082135 130.0996668 121.6679491
  69.8829992 128.5729978 120.4760014  69.5319992 127.7159978 120.7190014
  70.6089992 128.7149978 121.0830014  69.9331590 128.4750178 120.5912907
  58.6159992 125.0839978 121.0810014  58.7599992 124.1819978 120.7940014
  57.8439992 125.3699978 120.5930014  58.5313303 124.9993243 120.9757908
  62.9569992 125.4269978 103.2130014  63.0219992 124.6329978 103.7440014
  63.6099992 125.3089978 102.5230014  63.0541754 125.3023337 103.1924259
  65.2709992 125.0529978 120.5130014  64.9429992 125.3239978 119.6560014
  65.4229992 124.1119978 120.4260014  65.2466030 124.9628973 120.3837945
  71.0059992 124.9689978 117.8970014  71.7509992 125.5579978 117.7770014
  70.2489992 125.5509978 117.9600014  71.0055205 125.1281997 117.8891119
  59.4489992 122.2839978 120.5010014  59.8569992 121.4269978 120.3800014
  59.1879992 122.2979978 121.4220014  59.4696016 122.1685119 120.6089192
  63.3959992 121.2929978 117.8750014  62.7769992 121.9669978 118.1550014
  63.7399992 121.6139978 117.0420014  63.3577605 121.4287198 117.8006707
  68.4149992 123.7639978 121.1520014  69.3689992 123.8479978 121.1250014
  68.2549992 123.0519978 121.7720014  68.5237182 123.6792842 121.2320733
  63.7349992 118.6479978 118.9570014  63.8849992 117.9189978 118.3550014
  63.7369992 119.4249978 118.3980014  63.7557967 118.6532708 118.7990541
  64.1479992 117.0169978 116.4500014  64.6829992 117.4689978 115.7980014
  63.2949992 116.9089978 116.0270014  64.1060374 117.0642665 116.3036710
  65.7289992 122.4569978 116.6890014  66.4799992 122.3009978 116.1160014
  65.3899992 123.3089978 116.4140014  65.7859587 122.5508138 116.5734078
  70.1449992 120.2719978 121.7180014  70.3369992 119.3409978 121.6060014
  71.0029992 120.6969978 121.7080014  70.2872269 120.2019928 121.7013192
  71.4619992 123.0609978 119.7950014  71.1799992 123.7699978 119.2180014
  72.4039992 122.9879978 119.6440014  71.5507656 123.1483128 119.6954809
  62.2139992 119.8459978 120.8690014  61.4459992 119.3129978 120.6590014
  62.8919992 119.5359978 120.2690014  62.2006973 119.7312375 120.7591796
  64.9529992 114.4739978 116.8810014  64.8549992 115.4199978 116.7760014
  64.2109992 114.1009978 116.4060014  64.8391913 114.5531813 116.8023539
  66.2169992 118.7949978 120.4450014  65.9819992 118.5759978 121.3470014
  65.4339992 118.5879978 119.9350014  66.0789219 118.7370066 120.4995852
  68.9329992 117.9229978 119.5210014  67.9849992 117.9549978 119.6530014
  69.2449992 117.2969978 120.1740014  68.8455190 117.8427262 119.6273564
  70.5669992 116.5569978 121.5260014  70.4699992 115.6049978 121.5200014
  70.2449992 116.8249978 122.3860014  70.5101761 116.4629744 121.6414936
  60.3939992 117.7659978 120.5730014  60.6059992 117.0599978 119.9630014
  60.2829992 117.3289978 121.4170014  60.4080269 117.6101921 120.6035873
  65.1749992 113.7679978 119.5530014  65.8869992 113.1279978 119.5390014
  65.0739992 114.0339978 118.6390014  65.2587261 113.7164190 119.4275537
  65.5289992 115.4499978 121.6060014  65.3969992 114.9749978 120.7860014
  64.9289992 116.1949978 121.5510014  65.4299070 115.4855789 121.4863251
  57.2919992 132.3629978 109.3430014  56.6449992 131.9009978 108.8100014
  57.6469992 131.6909978 109.9250014  57.2514506 132.2089503 109.3487341
  58.1619992 130.4429978 111.1470014  57.8279992 129.5629978 111.3190014
  58.3849992 130.7889978 112.0120014  58.1463721 130.3691938 111.2874168
  75.7109992 131.2529978 114.1280014  75.6889992 131.4379978 115.0670014
  76.4009992 131.8209978 113.7870014  75.8013439 131.3551887 114.2104791
  75.2739992 130.8199978 117.0500014  74.7869992 130.0849978 116.6790014
  75.8229992 130.4259978 117.7280014  75.2815247 130.6661057 117.0908461
  73.7249992 126.6099978 121.6880014  72.8589992 126.5049978 122.0820014
  74.1009992 127.3679978 122.1340014  73.6573401 126.6981708 121.8022620
  75.0259992 124.8659978 107.2020014  75.8759992 125.2869978 107.3290014
  75.0309992 124.1259978 107.8090014  75.1431143 124.8236094 107.3014750
  75.4199992 122.9199978 109.0260014  74.6939992 122.4399978 109.4230014
  76.0019992 123.1249978 109.7580014  75.3991635 122.8819166 109.1793748
  75.1789992 125.7049978 113.9730014  76.0129992 125.3269978 113.6930014
  75.2909992 126.6479978 113.8540014  75.3082522 125.7807742 113.9186020
  73.6659992 128.5829978 116.2800014  73.0179992 128.9079978 116.9060014
  73.1479992 128.1419978 115.6060014  73.5074168 128.5678523 116.2745307
  73.2069992 121.4409978 109.5890014  73.0569992 120.4959978 109.5680014
  72.8529992 121.7219978 110.4320014  73.1385527 121.3495605 109.7001859
  58.2419992 123.5189978 113.5990014  58.4269992 123.4369978 112.6630014
  59.0919992 123.3949978 114.0230014  58.3820916 123.4910393 113.5282896
  74.0629992 123.4109978 119.2270014  74.6459992 122.6759978 119.4190014
  74.6269992 124.1829978 119.2740014  74.2189781 123.4148145 119.2596164
  75.5599992 121.3139978 119.9120014  74.6969992 120.9349978 119.7460014
  76.1639992 120.5749978 119.8380014  75.5235944 121.1622978 119.8792984
  72.9179992 119.0229978 108.0510014  73.1969992 118.1159978 108.1750014
  73.6769992 119.4569978 107.6620014  73.0588619 118.9574502 108.0153795
  73.5289992 119.6049978 113.4870014  74.4619992 119.8169978 113.4530014
  73.2939992 119.7059978 114.4090014  73.6248308 119.6476503 113.6070214
  73.5589992 120.3419978 116.2630014  72.7159992 120.6099978 116.6290014
  74.0009992 121.1639978 116.0520014  73.5034138 120.4898273 116.2845518
  57.8399992 118.7889978 119.7400014  58.7589992 118.6669978 119.9760014
  57.3899992 118.0389978 120.1290014  57.9051148 118.6708751 119.8249408
  75.8419992 114.3219978 121.6160014  76.1909992 113.6679978 121.0110014
  75.9889992 115.1589978 121.1770014  75.9097355 114.3456067 121.4736564
  73.5309992 116.2859978 108.0990014  73.7129992 115.8369978 108.9250014
  72.9309992 115.7019978 107.6360014  73.4747529 116.1456131 108.1493619
  59.0609992 117.1019978 112.6310014  59.5059992 116.3099978 112.9330014
  59.5269992 117.8179978 113.0620014  59.1849059 117.0904474 112.7306079
  57.3649992 120.1009978 113.7000014  57.8569992 119.8799978 112.9090014
  57.7269992 120.9409978 113.9810014  57.4812923 120.1843468 113.6297407
  75.3609992 116.4309978 119.9660014  74.4439992 116.7019978 119.9300014
  75.4839992 115.8959978 119.1820014  75.2520828 116.3957700 119.8550785
  57.6789992 116.3589978 107.7540014  56.7539992 116.5669978 107.6250014
  58.1329992 116.8429978 107.0650014  57.6136374 116.4529949 107.6430957
  72.4489992 131.3429978 109.7000014  73.1019992 130.9949978 109.0920014
  72.9599992 131.8309978 110.3460014  72.6072777 131.3613815 109.7042047
  57.6419992 115.0969978 116.0990014  56.9769992 114.8509978 116.7420014
  57.1989992 115.7189978 115.5210014  57.4910937 115.1473614 116.1089379
  59.8339992 128.2719978 120.2430014  59.0129992 128.4469978 119.7830014
  59.5819992 128.1989978 121.1640014  59.6876173 128.2860794 120.3044972
  62.7879992 129.2459978 116.5020014  62.3639992 130.0559978 116.2190014
  63.6929992 129.3319978 116.2000014  62.8522433 129.3683331 116.4225377
  67.0999992 130.6449978 119.4610014  67.2839992 130.3119978 120.3390014
  67.9459992 130.9549978 119.1390014  67.2396484 130.6412979 119.5377617
  69.4449992 131.9309978 118.7050014  70.1219992 131.2979978 118.4650014
  69.7659992 132.3319978 119.5120014  69.5811323 131.8985691 118.7813158
  74.3619992 114.5209978 117.7850014  73.5489992 114.8459978 117.3970014
  74.5949992 113.7599978 117.2520014  74.2822566 114.4626559 117.6599213
  60.1899992 132.5029978 116.5490014  59.4699992 132.9429978 116.0980014
  59.8249992 132.2519978 117.3980014  60.0419796 132.5293824 116.6019329
  62.6569992 132.1029978 115.5790014  61.7929992 132.1749978 115.9830014
  62.6019992 132.6499978 114.7950014  62.5311942 132.1867849 115.5284000
  67.3679992 131.9909978 114.7540014  66.9109992 132.5199978 114.1000014
  67.5309992 132.5939978 115.4800014  67.3274476 132.1449140 114.7625499
  69.6959992 130.8689978 115.6990014  68.7909992 131.0339978 115.4340014
  70.1239992 131.7219978 115.6340014  69.6300700 131.0069529 115.6539520
  72.2999992 132.4389978 115.9940014  72.1179992 133.3549978 115.7840014
  72.4769992 132.0279978 115.1480014  72.2989907 132.5089741 115.8507883
  59.6049992 131.1259978 113.4590014  59.5869992 130.6999978 114.3170014
  60.4099992 130.8069978 113.0510014  59.7113221 131.0247233 113.5210225
  61.7459992 129.8359978 112.1140014  61.5269992 128.9189978 112.2840014
  62.5699992 129.9759978 112.5800014  61.8274702 129.7295511 112.2002527
  64.2829992 130.3059978 112.9630014  64.4959992 129.4179978 112.6760014
  64.3479992 130.2709978 113.9180014  64.3209075 130.1798307 113.0527373
  67.7919992 115.9699978 112.1070014  67.1179992 115.3399978 112.3630014
  68.3559992 115.4859978 111.5040014  67.7760384 115.8183708 112.0605020
  72.9349992 114.0769978 112.2200014  73.5379992 114.6249978 111.7180014
  72.0649992 114.3959978 111.9800014  72.8999190 114.1951041 112.1188679
  74.6619992 115.2159978 110.5530014  75.2729992 114.7019978 110.0270014
  75.0439992 116.0929978 110.5770014  74.7974475 115.2641323 110.4841208
  60.1189992 114.6039978 109.9290014  59.3419992 114.3689978 109.4220014
  60.6489992 113.8069978 109.9380014  60.0843451 114.4641268 109.8608627
  64.6979992 114.5299978 109.7430014  65.5719992 114.9189978 109.7130014
  64.5619992 114.3149978 110.6650014  64.7993207 114.5541923 109.8636509
  70.2549992 114.5599978 111.3920014  70.3309992 114.6559978 110.4430014
  69.9799992 113.6529978 111.5210014  70.2282042 114.4504241 111.2793811
  71.6079992 114.5859978 107.0840014  70.9049992 115.2009978 106.8750014
  71.1629992 113.7489978 107.2160014  71.4516292 114.5570085 107.0732439
  58.8559992 130.3499978 106.6310014  58.1709992 130.3119978 105.9630014
  58.8599992 131.2629978 106.9190014  58.7628174 130.4681998 106.5785310
  65.8419992 116.6109978 106.6330014  66.0199992 115.9639978 107.3150014
  65.7879992 117.4449978 107.1000014  65.8591025 116.6350504 106.7896433
  74.4289992 131.1219978 107.7070014  74.2349992 130.3739978 107.1420014
  74.3899992 131.8799978 107.1240014  74.3971645 131.1220786 107.5508148
  60.0759992 115.1179978 119.4470014  59.7099992 114.3519978 119.8900014
  60.9889992 115.1469978 119.7340014  60.1493225 115.0171906 119.5463459
  62.0489992 114.4679978 120.9830014  62.9479992 114.1939978 120.7980014
  61.6629992 113.7259978 121.4470014  62.1197237 114.3301508 121.0204710
  70.4709992 113.8009978 121.1650014  70.5469992 113.3749978 122.0190014
  71.3639992 113.8139978 120.8220014  70.6022267 113.7443952 121.2355932
  73.6469992 129.8739978 119.8570014  72.8649992 129.6869978 119.3380014
  73.5749992 130.8029978 120.0750014  73.5300863 129.9740221 119.8153574
  88.0529992 123.7599978 109.8880014  88.1419992 124.7039978 109.7560014
  87.4149992 123.4849978 109.2300014  87.9789062 123.8519812 109.7809641
  86.9859992 123.0149978 113.3070014  86.9479992 122.3689978 114.0120014
  86.6639992 122.5479978 112.5360014  86.9372679 122.8634276 113.2992921
  79.3539992 122.6289978 114.9000014  79.3959992 122.0039978 115.6230014
  80.0569992 123.2529978 115.0820014  79.4547345 122.6277873 115.0235274
  90.6919992 125.9539978 111.6090014  90.2509992 125.2339978 112.0590014
  90.6789992 126.6749978 112.2380014  90.6297960 125.9528329 111.7557567
  80.2779992 127.0789978 113.4350014  79.9079992 126.2769978 113.0650014
  81.2189992 126.9109978 113.4810014  80.3545984 126.9464638 113.3905603
  76.8879992 120.7389978 108.8280014  76.4399992 121.5849978 108.8090014
  76.3269992 120.1599978 108.3120014  76.7509603 120.7763674 108.7556720
  77.5979992 122.9009978 110.9540014  77.8119992 122.1309978 111.4810014
  78.3359992 122.9909978 110.3500014  77.7269652 122.8078012 110.9445212
  87.8039992 131.0579978 111.8210014  88.4229992 130.3819978 111.5470014
  87.5949992 130.8399978 112.7290014  87.8606232 130.9357938 111.9062517
  85.3749992 125.4469978 113.7130014  85.6789992 124.7609978 113.1190014
  86.0969992 125.5659978 114.3310014  85.5141152 125.3692189 113.7152123
  94.0379992 117.0489978 114.5740014  94.0879992 117.6589978 115.3100014
  94.4639992 117.5099978 113.8510014  94.1024108 117.1947709 114.5770112
  88.5159992 119.8409978 114.0410014  88.6589992 118.8949978 114.0610014
  88.4099992 120.0479978 113.1120014  88.5212509 119.7394813 113.9182231
  81.6709992 117.9429978 111.3130014  81.7139992 118.8029978 110.8950014
  81.2129992 117.3909978 110.6790014  81.6149815 117.9860621 111.1701197
  89.3929992 118.0739978 109.7140014  90.0399992 117.7449978 110.3390014
  89.9029992 118.5909978 109.0910014  89.5504317 118.0989227 109.7152167
  78.2909992 120.3399978 112.0750014  78.9449992 119.7899978 112.5070014
  78.3149992 120.0659978 111.1580014  78.3837199 120.2277167 112.0101668
  83.4479992 121.8899978 111.2900014  84.0639992 121.3629978 111.8000014
  82.8609992 121.2499978 110.8870014  83.4529239 121.7314117 111.3052952
  94.4299992 118.5269978 116.8100014  93.7409992 119.1849978 116.7140014
  94.4449992 118.3289978 117.7460014  94.3376740 118.5903242 116.9234630
  80.4809992 116.8609978 115.3870014  80.2619992 117.3909978 114.6210014
  79.8129992 117.0869978 116.0340014  80.3607001 116.9641154 115.3696064
  87.8499992 126.3609978 108.9310014  87.5549992 126.0379978 108.0800014
  87.5259992 127.2609978 108.9720014  87.7657983 126.4384026 108.8199771
  83.0499992 124.5359978 115.6750014  82.3099992 125.1349978 115.7780014
  83.7639992 125.0899978 115.3590014  83.0453288 124.6927356 115.6463805
  91.1569992 117.3649978 111.6940014  90.9419992 116.5989978 112.2270014
  91.8129992 117.8369978 112.2070014  91.2162673 117.3240728 111.8361990
  80.0749992 118.7529978 113.3390014  80.6889992 119.3859978 113.7130014
  80.5869992 118.2809978 112.6830014  80.2282277 118.7757352 113.3014279
  81.4579992 126.5009978 116.4620014  81.4519992 127.3799978 116.0840014
  80.6039992 126.4169978 116.8870014  81.3417925 126.6099535 116.4676887
  77.5789992 126.1719978 107.2440014  77.3069992 126.4009978 106.3550014
  77.6239992 127.0089978 107.7040014  77.5478709 126.3166058 107.1846107
  91.2039992 127.7929978 113.9560014  90.2619992 127.8519978 114.1180014
  91.4799992 128.6989978 113.8190014  91.1125865 127.9235288 113.9596192
  91.5039992 116.0799978 115.3740014  90.7679992 116.6899978 115.3360014
  92.1879992 116.4949978 114.8470014  91.4955506 116.2196400 115.2976051
  84.5079992 114.1659978 112.8400014  84.3899992 113.2179978 112.7850014
  83.6529992 114.4989978 113.1130014  84.3762679 114.0811926 112.8693720
  89.4559992 129.5739978 110.5820014  89.8809992 128.8669978 110.0970014
  89.7729992 130.3759978 110.1650014  89.5570266 129.5855190 110.4592479
  90.6159992 127.4749978 109.0900014  90.3579992 126.7849978 108.4790014
  90.6869992 127.0319978 109.9360014  90.5902837 127.3207106 109.1206912
  92.3019992 126.0419978 117.5680014  92.4409992 125.4499978 116.8280014
  92.4689992 126.9149978 117.2110014  92.3435562 126.0789896 117.4186283
  86.7739992 123.0039978 107.3400014  86.0629992 123.5389978 106.9880014
  87.4649992 123.0589978 106.6800014  86.7700751 123.0846777 107.2025858
  86.8279992 121.4609978 104.3790014  87.5289992 121.4839978 105.0300014
  87.1299992 120.8329978 103.7230014  86.9648282 121.3792339 104.3794496
  94.1429992 122.3819978 115.6340014  93.4909992 123.0759978 115.7230014
  94.6089992 122.5919978 114.8240014  94.1165937 122.5055019 115.5367533
  90.1799992 123.2129978 108.2920014  89.4479992 123.4419978 108.8650014
  90.6269992 122.4999978 108.7470014  90.1402753 123.1478972 108.4319715
  90.0769992 121.3879978 117.3600014  90.1569992 122.1509978 117.9310014
  89.4759992 121.6669978 116.6690014  90.0067245 121.5302630 117.3448424
  81.8249992 123.8439978 110.1740014  81.4949992 123.4729978 109.3560014
  82.4139992 123.1729978 110.5210014  81.8593970 123.7026063 110.1089404
  83.1919992 127.2719978 112.8560014  83.0969992 126.6929978 112.0990014
  83.9209992 126.9009978 113.3520014  83.2776161 127.1425891 112.8195209
  82.1919992 122.6119978 113.8080014  82.7569992 122.7339978 113.0450014
  82.5109992 123.2499978 114.4470014  82.3123977 122.7148851 113.7899424
  88.5009992 128.1159978 114.5420014  88.2609992 128.7779978 115.1900014
  88.3029992 127.2809978 114.9670014  88.4413826 128.0938115 114.6881566
  83.0719992 127.0119978 118.5250014  82.7609992 127.7939978 118.9800014
  82.4219992 126.8589978 117.8390014  82.9415538 127.0984087 118.4945898
  79.9919992 123.2099978 117.7540014  80.0619992 123.8609978 118.4520014
  79.1009992 123.3129978 117.4190014  79.8811802 123.3129757 117.8042249
  86.7769992 129.1119978 109.4120014  87.2509992 129.4079978 110.1900014
  86.2139992 129.8509978 109.1790014  86.7657361 129.2522721 109.4868611
  81.3109992 129.0829978 119.2880014  81.3189992 128.9469978 118.3410014
  80.3949992 128.9659978 119.5400014  81.1882528 129.0485463 119.1923243
  92.7499992 114.1259978 105.7900014  91.8499992 114.2649978 106.0850014
  93.0019992 114.9569978 105.3880014  92.6608683 114.2574055 105.7760232
  80.8159992 122.9129978 107.7640014  80.5239992 123.6809978 107.2730014
  80.1409992 122.2539978 107.6010014  80.6848497 122.9289745 107.6748260
  76.9089992 125.2759978 116.5790014  76.4069992 125.2479978 115.7640014
  76.9139992 124.3709978 116.8880014  76.8410416 125.1497368 116.5093766
  76.6589992 128.0569978 113.4630014  77.6049992 127.9119978 113.4440014
  76.5459992 128.8409978 114.0000014  76.7733578 128.1431697 113.5330317
  94.8569992 128.7229978 119.1450014  94.8069992 127.7669978 119.1080014
  94.0299992 128.9899978 119.5460014  94.7383987 128.6285174 119.1941446
  85.8349992 128.2969978 118.0210014  85.9229992 129.1229978 118.4960014
  84.9719992 127.9669978 118.2700014  85.7303357 128.3655468 118.1197653
  86.2499992 132.0689978 107.8270014  86.1739992 131.9479978 106.8810014
  86.2819992 133.0179978 107.9460014  86.2439156 132.1807530 107.7135048
  79.9029992 130.8579978 109.6080014  80.0549992 130.5099978 110.4870014
  79.0519992 130.5009978 109.3530014  79.8087899 130.7621738 109.6937340
  89.0199992 131.1489978 107.5790014  88.0849992 131.2489978 107.7570014
  89.2999992 130.4389978 108.1570014  88.9298173 131.0667239 107.6814998
  92.0089992 120.2159978 119.6250014  91.6009992 120.6959978 118.9050014
  92.0489992 119.3099978 119.3170014  91.9585476 120.1593160 119.4848247
  79.1579992 126.5999978 117.6220014  79.3739992 126.2379978 118.4810014
  78.3019992 126.2249978 117.4120014  79.0719354 126.4997906 117.7112160
  81.7759992 115.0699978 113.6170014  80.9149992 114.9829978 113.2100014
  81.7539992 115.9259978 114.0450014  81.6550411 115.1737884 113.6190857
  86.4389992 114.7919978 116.9920014  86.8589992 114.3769978 117.7450014
  85.5059992 114.6129978 117.1090014  86.3703736 114.7109910 117.1108968
  89.7659992 118.5469978 117.8450014  89.2519992 118.4219978 118.6430014
  89.6099992 119.4599978 117.6010014  89.6746967 118.6532123 117.9210937
  81.8669992 120.0349978 114.7120014  81.2259992 119.9949978 115.4210014
  81.9049992 120.9619978 114.4750014  81.7843670 120.1547795 114.7770550
  81.8639992 120.2559978 109.6240014  80.9719992 119.9159978 109.5660014
  82.3149992 119.8789978 108.8690014  81.8026815 120.1583762 109.5139203
  87.3999992 120.6719978 108.4410014  86.9909992 121.4869978 108.1500014
  88.1199992 120.5319978 107.8270014  87.4414013 120.7646571 108.3180875
  86.5019992 120.8479978 119.9290014  85.9389992 120.1429978 120.2500014
  87.3279992 120.7269978 120.3970014  86.5366674 120.7352165 120.0361751
  88.4049992 120.1179978 111.2550014  88.2089992 120.7239978 110.5400014
  88.5859992 119.2849978 110.8210014  88.4026584 120.0882513 111.0984212
  79.6169992 120.3559978 116.5790014  79.5789992 120.7559978 117.4480014
  79.1269992 119.5389978 116.6700014  79.5455621 120.3002510 116.7101377
  76.2259992 117.4719978 110.4300014  76.8559992 117.4429978 111.1490014
  76.6749992 117.0469978 109.7000014  76.3730692 117.4105316 110.4297771
  87.6689992 121.7559978 115.9270014  87.9919992 121.1249978 115.2840014
  87.2279992 121.2219978 116.5870014  87.6535789 121.5973522 115.9282232
  84.4459992 117.6839978 110.7110014  83.5349992 117.7409978 110.9990014
  84.9509992 117.6239978 111.5210014  84.3895387 117.6836870 110.8600646
  79.2739992 119.3129978 109.5370014  78.3849992 119.4119978 109.1970014
  79.5709992 118.4709978 109.1910014  79.1924177 119.2127687 109.4436940
  82.9269992 119.3129978 107.1940014  83.8589992 119.4419978 107.3720014
  82.7119992 119.9819978 106.5440014  83.0254472 119.4210806 107.1304891
  88.8509992 116.9189978 113.9750014  88.1739992 117.0499978 114.6390014
  88.3659992 116.7639978 113.1650014  88.6927265 116.9159659 113.9563397
  92.1389992 132.5899978 120.2520014  92.3379992 133.0139978 119.4170014
  92.7939992 132.9339978 120.8590014  92.2548501 132.6946091 120.2197097
  79.7369992 125.0639978 119.8600014  80.4689992 125.3189978 120.4210014
  78.9559992 125.2689978 120.3750014  79.7317684 125.1266468 120.0064782
  85.7659992 120.4709978 112.5980014  86.3299992 119.9249978 112.0510014
  85.6179992 119.9499978 113.3860014  85.8232575 120.3256552 112.6296987
  80.7679992 116.6079978 109.0160014  80.4509992 115.7049978 108.9810014
  81.5489992 116.6099978 108.4630014  80.8302307 116.4846951 108.9364314
  84.3919992 118.8599978 115.0120014  83.5569992 119.3139978 115.1220014
  84.9159992 119.1359978 115.7640014  84.3485070 118.9594666 115.1287152
  84.9369992 125.0729978 106.6960014  84.1919992 124.5649978 106.3740014
  84.8019992 125.1219978 107.6430014  84.8169047 125.0101596 106.7798845
  92.0869992 124.2059978 115.4830014  92.7279992 124.6619978 114.9390014
  91.2559992 124.3189978 115.0210014  92.0625171 124.2837502 115.3460237
  88.8339992 117.8869978 104.8960014  87.8959992 117.9979978 104.7440014
  89.1319992 118.7429978 105.2020014  88.7456402 118.0180621 104.9165571
  86.4559992 125.2569978 117.9330014  86.1099992 124.8749978 118.7400014
  86.2559992 126.1899978 118.0050014  86.3816523 125.3309095 118.0530735
  89.5529992 119.7539978 106.5560014  90.4449992 119.6159978 106.8750014
  89.6089992 120.5449978 106.0200014  89.6827107 119.8420526 106.5272091
  80.0609992 124.3679978 112.4660014  80.8059992 124.3649978 111.8650014
  80.1389992 123.5439978 112.9480014  80.1734158 124.2562916 112.4489153
  87.0619992 126.5309978 105.7220014  86.7669992 127.3579978 106.1030014
  86.3589992 125.9119978 105.9180014  86.9265471 126.5605227 105.8006698
  77.0689992 122.8279978 117.7810014  77.2919992 122.4099978 118.6130014
  76.4669992 122.2159978 117.3580014  77.0181260 122.6879933 117.8377320
  84.0859992 122.3449978 119.9940014  83.7899992 122.1799978 119.0990014
  85.0169992 122.1249978 119.9830014  84.1713982 122.2926578 119.8700045
  88.7059992 127.7189978 117.8840014  87.8059992 127.9019978 117.6160014
  88.7399992 127.9779978 118.8050014  88.5872909 127.7790815 117.9717852
  94.4379992 119.9629978 106.2510014  93.8829992 119.5669978 105.5790014
  94.5379992 120.8739978 105.9730014  94.3755888 120.0318990 106.1215206
  94.4009992 125.7639978 119.0880014  93.5499992 126.0019978 118.7210014
  94.9909992 125.7469978 118.3350014  94.3642408 125.7942966 118.9358879
  92.7329992 128.7489978 106.7160014  92.3599992 127.9239978 107.0250014
  93.0099992 128.5659978 105.8190014  92.7193871 128.6112441 106.6369677
  89.8929992 123.5569978 113.7370014  88.9649992 123.3259978 113.7100014
  90.3439992 122.7799978 113.4070014  89.8268165 123.4202774 113.6886790
  82.4359992 127.8859978 109.8700014  82.9639992 128.6589978 109.6700014
  81.5559992 128.1099978 109.5690014  82.3893176 128.0223161 109.8018409
  83.8639992 125.5489978 109.4470014  83.6229992 126.4739978 109.4880014
  83.1229992 125.0899978 109.8430014  83.7308390 125.6136403 109.5061404
  84.3779992 129.6979978 115.7620014  84.7409992 130.5519978 115.5280014
  84.9099992 129.4059978 116.5020014  84.4996090 129.7754058 115.8300219
  82.5469992 130.5699978 108.9920014  81.5969992 130.6759978 109.0430014
  82.8989992 131.3909978 109.3370014  82.4645480 130.6954438 109.0455999
  87.9219992 125.7969978 115.4620014  87.4969992 125.5689978 116.2890014
  88.5029992 125.0579978 115.2800014  87.9423930 125.6659843 115.5504732
  90.1249992 126.7259978 104.5360014  90.4789992 126.3459978 105.3410014
  89.1769992 126.6319978 104.6230014  90.0451820 126.6613092 104.6578714
  90.5809992 130.3489978 117.9320014  89.9789992 129.7929978 117.4360014
  90.8619992 131.0159978 117.3060014  90.5366829 130.3631613 117.7795443
  94.6289992 131.2049978 104.7370014  95.3729992 131.7909978 104.5970014
  93.9349992 131.7739978 105.0710014  94.6370201 131.3620603 104.7629772
  78.7029992 117.5819978 117.3390014  77.8109992 117.9199978 117.2720014
  78.6049992 116.7259978 117.7570014  78.5674965 117.5126499 117.3863044
  78.3549992 129.3859978 115.7740014  78.5719992 128.4539978 115.7430014
  78.6009992 129.6609978 116.6570014  78.4179809 129.2955686 115.8891690
  79.6059992 124.6599978 105.9500014  78.9199992 125.0129978 106.5170014
  80.1289992 125.4229978 105.7040014  79.5829033 124.8113746 105.9942661
  87.4379992 117.3229978 116.2290014  88.1369992 117.3969978 116.8790014
  87.0569992 116.4579978 116.3830014  87.4822097 117.2162389 116.3387997
  88.2219992 116.9749978 107.3260014  88.4419992 117.4459978 106.5230014
  88.7809992 117.3689978 107.9960014  88.3276730 117.0927432 107.3065906
  85.8909992 129.1049978 106.1890014  85.0739992 129.6019978 106.2410014
  86.4199992 129.5809978 105.5490014  85.8508508 129.2372543 106.1096035
  85.4219992 118.7029978 108.1610014  86.2339992 119.2069978 108.2070014
  85.1779992 118.5579978 109.0750014  85.5001467 118.7523749 108.2908575
  85.9579992 119.6889978 117.3460014  86.0769992 120.2629978 118.1030014
  86.6129992 119.0009978 117.4600014  86.0629146 119.6745574 117.4651314
  86.3059992 115.7839978 109.0990014  85.9589992 116.4009978 109.7440014
  86.9649992 116.2849978 108.6180014  86.3475950 115.9361099 109.1222271
  83.2289992 130.1489978 106.1710014  83.3899992 130.9489978 105.6700014
  83.0319992 130.4559978 107.0560014  83.2243919 130.2999129 106.2221006
  92.1619992 117.5959978 118.1810014  91.2459992 117.8579978 118.0930014
  92.4979992 117.5929978 117.2840014  92.0819789 117.6314626 118.0477847
  90.7649992 121.3459978 112.2760014  89.9669992 120.9309978 111.9480014
  91.2099992 120.6559978 112.7670014  90.7159684 121.1958628 112.2975227
  91.8509992 130.6019978 113.8990014  91.6949992 131.2809978 113.2420014
  92.7839992 130.6739978 114.1020014  91.9557387 130.7046390 113.8365342
  79.3459992 114.7199978 112.6360014  79.1169992 114.7789978 111.7080014
  78.9039992 113.9289978 112.9420014  79.2548801 114.6210540 112.5504729
  78.2769992 128.6609978 108.7960014  77.4439992 129.1329978 108.8240014
  78.8219992 129.1709978 108.1980014  78.2367590 128.7945897 108.7189194
  77.5649992 131.2729978 120.1260014  78.1049992 131.0569978 120.8860014
  77.0839992 130.4679978 119.9370014  77.5738613 131.1345400 120.2044781
  82.1619992 130.1929978 121.7470014  82.9299992 129.7339978 122.0880014
  82.1409992 129.9669978 120.8170014  82.2642135 130.0996668 121.6679491
  88.7389992 128.5729978 120.4760014  88.3879992 127.7159978 120.7190014
  89.4649992 128.7149978 121.0830014  88.7891590 128.4750178 120.5912907
  90.8589992 129.5179978 103.3560014  91.1419992 128.7229978 103.8080014
  91.5979992 129.7509978 102.7950014  90.9976956 129.4407031 103.3419821
  77.4719992 125.0839978 121.0810014  77.6159992 124.1819978 120.7940014
  76.6999992 125.3699978 120.5930014  77.3873303 124.9993243 120.9757908
  84.1269992 125.0529978 120.5130014  83.7989992 125.3239978 119.6560014
  84.2789992 124.1119978 120.4260014  84.1026030 124.9628973 120.3837945
  87.1659992 126.4739978 102.9490014  86.8969992 126.6549978 103.8500014
  86.9589992 125.5489978 102.8180014  87.1012000 126.3736774 103.0545693
  89.8619992 124.9689978 117.8970014  90.6069992 125.5579978 117.7770014
  89.1049992 125.5509978 117.9600014  89.8615205 125.1281997 117.8891119
  78.3049992 122.2839978 120.5010014  78.7129992 121.4269978 120.3800014
  78.0439992 122.2979978 121.4220014  78.3256016 122.1685119 120.6089192
  82.9629992 123.3999978 105.5190014  82.5029992 122.9159978 106.2050014
  83.2179992 122.7309978 104.8830014  82.9345038 123.2433689 105.5269447
  82.2519992 121.2929978 117.8750014  81.6329992 121.9669978 118.1550014
  82.5959992 121.6139978 117.0420014  82.2137605 121.4287198 117.8006707
  84.0339992 121.6429978 103.7810014  83.8529992 121.4879978 102.8540014
  84.9839992 121.7509978 103.8260014  84.1376566 121.6363669 103.6600929
  87.2709992 123.7639978 121.1520014  88.2249992 123.8479978 121.1250014
  87.1109992 123.0519978 121.7720014  87.3797182 123.6792842 121.2320733
  82.5909992 118.6479978 118.9570014  82.7409992 117.9189978 118.3550014
  82.5929992 119.4249978 118.3980014  82.6117967 118.6532708 118.7990541
  83.0039992 117.0169978 116.4500014  83.5389992 117.4689978 115.7980014
  82.1509992 116.9089978 116.0270014  82.9620374 117.0642665 116.3036710
  84.5849992 122.4569978 116.6890014  85.3359992 122.3009978 116.1160014
  84.2459992 123.3089978 116.4140014  84.6419587 122.5508138 116.5734078
  89.0009992 120.2719978 121.7180014  89.1929992 119.3409978 121.6060014
  89.8589992 120.6969978 121.7080014  89.1432269 120.2019928 121.7013192
  90.3179992 123.0609978 119.7950014  90.0359992 123.7699978 119.2180014
  91.2599992 122.9879978 119.6440014  90.4067656 123.1483128 119.6954809
  81.0699992 119.8459978 120.8690014  80.3019992 119.3129978 120.6590014
  81.7479992 119.5359978 120.2690014  81.0566973 119.7312375 120.7591796
  83.8089992 114.4739978 116.8810014  83.7109992 115.4199978 116.7760014
  83.0669992 114.1009978 116.4060014  83.6951913 114.5531813 116.8023539
  85.0729992 118.7949978 120.4450014  84.8379992 118.5759978 121.3470014
  84.2899992 118.5879978 119.9350014  84.9349219 118.7370066 120.4995852
  87.7889992 117.9229978 119.5210014  86.8409992 117.9549978 119.6530014
  88.1009992 117.2969978 120.1740014  87.7015190 117.8427262 119.6273564
  89.4229992 116.5569978 121.5260014  89.3259992 115.6049978 121.5200014
  89.1009992 116.8249978 122.3860014  89.3661761 116.4629744 121.6414936
  79.2499992 117.7659978 120.5730014  79.4619992 117.0599978 119.9630014
  79.1389992 117.3289978 121.4170014  79.2640269 117.6101921 120.6035873
  84.0309992 113.7679978 119.5530014  84.7429992 113.1279978 119.5390014
  83.9299992 114.0339978 118.6390014  84.1147261 113.7164190 119.4275537
  84.3849992 115.4499978 121.6060014  84.2529992 114.9749978 120.7860014
  83.7849992 116.1949978 121.5510014  84.2859070 115.4855789 121.4863251
  77.4989992 126.9699978 104.2650014  78.4129992 127.0489978 104.5390014
  77.5069992 126.2829978 103.5990014  77.6251143 126.8879085 104.2124274
  76.1479992 132.3629978 109.3430014  75.5009992 131.9009978 108.8100014
  76.5029992 131.6909978 109.9250014  76.1074506 132.2089503 109.3487341
  77.0179992 130.4429978 111.1470014  76.6839992 129.5629978 111.3190014
  77.2409992 130.7889978 112.0120014  77.0023721 130.3691938 111.2874168
  94.5669992 131.2529978 114.1280014  94.5449992 131.4379978 115.0670014
  95.2569992 131.8209978 113.7870014  94.6573439 131.3551887 114.2104791
  94.1299992 130.8199978 117.0500014  93.6429992 130.0849978 116.6790014
  94.6789992 130.4259978 117.7280014  94.1375247 130.6661057 117.0908461
  92.5809992 126.6099978 121.6880014  91.7149992 126.5049978 122.0820014
  92.9569992 127.3679978 122.1340014  92.5133401 126.6981708 121.8022620
  93.8819992 124.8659978 107.2020014  94.7319992 125.2869978 107.3290014
  93.8869992 124.1259978 107.8090014  93.9991143 124.8236094 107.3014750
  94.2759992 122.9199978 109.0260014  93.5499992 122.4399978 109.4230014
  94.8579992 123.1249978 109.7580014  94.2551635 122.8819166 109.1793748
  94.0349992 125.7049978 113.9730014  94.8689992 125.3269978 113.6930014
  94.1469992 126.6479978 113.8540014  94.1642522 125.7807742 113.9186020
  92.5219992 128.5829978 116.2800014  91.8739992 128.9079978 116.9060014
  92.0039992 128.1419978 115.6060014  92.3634168 128.5678523 116.2745307
  92.0629992 121.4409978 109.5890014  91.9129992 120.4959978 109.5680014
  91.7089992 121.7219978 110.4320014  91.9945527 121.3495605 109.7001859
  77.0979992 123.5189978 113.5990014  77.2829992 123.4369978 112.6630014
  77.9479992 123.3949978 114.0230014  77.2380916 123.4910393 113.5282896
  92.9189992 123.4109978 119.2270014  93.5019992 122.6759978 119.4190014
  93.4829992 124.1829978 119.2740014  93.0749781 123.4148145 119.2596164
  94.4159992 121.3139978 119.9120014  93.5529992 120.9349978 119.7460014
  95.0199992 120.5749978 119.8380014  94.3795944 121.1622978 119.8792984
  91.7739992 119.0229978 108.0510014  92.0529992 118.1159978 108.1750014
  92.5329992 119.4569978 107.6620014  91.9148619 118.9574502 108.0153795
  92.3849992 119.6049978 113.4870014  93.3179992 119.8169978 113.4530014
  92.1499992 119.7059978 114.4090014  92.4808308 119.6476503 113.6070214
  92.4149992 120.3419978 116.2630014  91.5719992 120.6099978 116.6290014
  92.8569992 121.1639978 116.0520014  92.3594138 120.4898273 116.2845518
  76.6959992 118.7889978 119.7400014  77.6149992 118.6669978 119.9760014
  76.2459992 118.0389978 120.1290014  76.7611148 118.6708751 119.8249408
  94.6979992 114.3219978 121.6160014  95.0469992 113.6679978 121.0110014
  94.8449992 115.1589978 121.1770014  94.7657355 114.3456067 121.4736564
  92.3869992 116.2859978 108.0990014  92.5689992 115.8369978 108.9250014
  91.7869992 115.7019978 107.6360014  92.3307529 116.1456131 108.1493619
  77.9169992 117.1019978 112.6310014  78.3619992 116.3099978 112.9330014
  78.3829992 117.8179978 113.0620014  78.0409059 117.0904474 112.7306079
  76.2209992 120.1009978 113.7000014  76.7129992 119.8799978 112.9090014
  76.5829992 120.9409978 113.9810014  76.3372923 120.1843468 113.6297407
  94.2169992 116.4309978 119.9660014  93.2999992 116.7019978 119.9300014
  94.3399992 115.8959978 119.1820014  94.1080828 116.3957700 119.8550785
  76.5349992 116.3589978 107.7540014  75.6099992 116.5669978 107.6250014
  76.9889992 116.8429978 107.0650014  76.4696374 116.4529949 107.6430957
  91.3049992 131.3429978 109.7000014  91.9579992 130.9949978 109.0920014
  91.8159992 131.8309978 110.3460014  91.4632777 131.3613815 109.7042047
  76.4979992 115.0969978 116.0990014  75.8329992 114.8509978 116.7420014
  76.0549992 115.7189978 115.5210014  76.3470937 115.1473614 116.1089379
  78.6899992 128.2719978 120.2430014  77.8689992 128.4469978 119.7830014
  78.4379992 128.1989978 121.1640014  78.5436173 128.2860794 120.3044972
  81.6439992 129.2459978 116.5020014  81.2199992 130.0559978 116.2190014
  82.5489992 129.3319978 116.2000014  81.7082433 129.3683331 116.4225377
  85.9559992 130.6449978 119.4610014  86.1399992 130.3119978 120.3390014
  86.8019992 130.9549978 119.1390014  86.0956484 130.6412979 119.5377617
  88.3009992 131.9309978 118.7050014  88.9779992 131.2979978 118.4650014
  88.6219992 132.3319978 119.5120014  88.4371323 131.8985691 118.7813158
  93.2179992 114.5209978 117.7850014  92.4049992 114.8459978 117.3970014
  93.4509992 113.7599978 117.2520014  93.1382566 114.4626559 117.6599213
  79.0459992 132.5029978 116.5490014  78.3259992 132.9429978 116.0980014
  78.6809992 132.2519978 117.3980014  78.8979796 132.5293824 116.6019329
  81.5129992 132.1029978 115.5790014  80.6489992 132.1749978 115.9830014
  81.4579992 132.6499978 114.7950014  81.3871942 132.1867849 115.5284000
  86.2239992 131.9909978 114.7540014  85.7669992 132.5199978 114.1000014
  86.3869992 132.5939978 115.4800014  86.1834476 132.1449140 114.7625499
  88.5519992 130.8689978 115.6990014  87.6469992 131.0339978 115.4340014
  88.9799992 131.7219978 115.6340014  88.4860700 131.0069529 115.6539520
  91.1559992 132.4389978 115.9940014  90.9739992 133.3549978 115.7840014
  91.3329992 132.0279978 115.1480014  91.1549907 132.5089741 115.8507883
  78.4609992 131.1259978 113.4590014  78.4429992 130.6999978 114.3170014
  79.2659992 130.8069978 113.0510014  78.5673221 131.0247233 113.5210225
  80.6019992 129.8359978 112.1140014  80.3829992 128.9189978 112.2840014
  81.4259992 129.9759978 112.5800014  80.6834702 129.7295511 112.2002527
  83.1389992 130.3059978 112.9630014  83.3519992 129.4179978 112.6760014
  83.2039992 130.2709978 113.9180014  83.1769075 130.1798307 113.0527373
  86.6479992 115.9699978 112.1070014  85.9739992 115.3399978 112.3630014
  87.2119992 115.4859978 111.5040014  86.6320384 115.8183708 112.0605020
  91.7909992 114.0769978 112.2200014  92.3939992 114.6249978 111.7180014
  90.9209992 114.3959978 111.9800014  91.7559190 114.1951041 112.1188679
  93.5179992 115.2159978 110.5530014  94.1289992 114.7019978 110.0270014
  93.8999992 116.0929978 110.5770014  93.6534475 115.2641323 110.4841208
  78.9749992 114.6039978 109.9290014  78.1979992 114.3689978 109.4220014
  79.5049992 113.8069978 109.9380014  78.9403451 114.4641268 109.8608627
  77.8109992 114.4019978 105.7330014  78.2499992 115.0129978 105.1410014
  77.1769992 114.9399978 106.2070014  77.7853859 114.5584064 105.7160305
  83.5539992 114.5299978 109.7430014  84.4279992 114.9189978 109.7130014
  83.4179992 114.3149978 110.6650014  83.6553207 114.5541923 109.8636509
  89.1109992 114.5599978 111.3920014  89.1869992 114.6559978 110.4430014
  88.8359992 113.6529978 111.5210014  89.0842042 114.4504241 111.2793811
  90.4639992 114.5859978 107.0840014  89.7609992 115.2009978 106.8750014
  90.0189992 113.7489978 107.2160014  90.3076292 114.5570085 107.0732439
  77.7119992 130.3499978 106.6310014  77.0269992 130.3119978 105.9630014
  77.7159992 131.2629978 106.9190014  77.6188174 130.4681998 106.5785310
  93.2849992 131.1219978 107.7070014  93.0909992 130.3739978 107.1420014
  93.2459992 131.8799978 107.1240014  93.2531645 131.1220786 107.5508148
  78.9319992 115.1179978 119.4470014  78.5659992 114.3519978 119.8900014
  79.8449992 115.1469978 119.7340014  79.0053225 115.0171906 119.5463459
  80.9049992 114.4679978 120.9830014  81.8039992 114.1939978 120.7980014
  80.5189992 113.7259978 121.4470014  80.9757237 114.3301508 121.0204710
  89.3269992 113.8009978 121.1650014  89.4029992 113.3749978 122.0190014
  90.2199992 113.8139978 120.8220014  89.4582267 113.7443952 121.2355932
  92.5029992 129.8739978 119.8570014  91.7209992 129.6869978 119.3380014
  92.4309992 130.8029978 120.0750014  92.3860863 129.9740221 119.8153574
 106.9089992 123.7599978 109.8880014 106.9979992 124.7039978 109.7560014
 106.2709992 123.4849978 109.2300014 106.8349062 123.8519812 109.7809641
 105.8419992 123.0149978 113.3070014 105.8039992 122.3689978 114.0120014
 105.5199992 122.5479978 112.5360014 105.7932679 122.8634276 113.2992921
  98.2099992 122.6289978 114.9000014  98.2519992 122.0039978 115.6230014
  98.9129992 123.2529978 115.0820014  98.3107345 122.6277873 115.0235274
 109.5479992 125.9539978 111.6090014 109.1069992 125.2339978 112.0590014
 109.5349992 126.6749978 112.2380014 109.4857960 125.9528329 111.7557567
  99.1339992 127.0789978 113.4350014  98.7639992 126.2769978 113.0650014
 100.0749992 126.9109978 113.4810014  99.2105984 126.9464638 113.3905603
  95.7439992 120.7389978 108.8280014  95.2959992 121.5849978 108.8090014
  95.1829992 120.1599978 108.3120014  95.6069603 120.7763674 108.7556720
  96.4539992 122.9009978 110.9540014  96.6679992 122.1309978 111.4810014
  97.1919992 122.9909978 110.3500014  96.5829652 122.8078012 110.9445212
 106.6599992 131.0579978 111.8210014 107.2789992 130.3819978 111.5470014
 106.4509992 130.8399978 112.7290014 106.7166232 130.9357938 111.9062517
 104.2309992 125.4469978 113.7130014 104.5349992 124.7609978 113.1190014
 104.9529992 125.5659978 114.3310014 104.3701152 125.3692189 113.7152124
 112.8939992 117.0489978 114.5740014 112.9439992 117.6589978 115.3100014
 113.3199992 117.5099978 113.8510014 112.9584108 117.1947709 114.5770112
 107.3719992 119.8409978 114.0410014 107.5149992 118.8949978 114.0610014
 107.2659992 120.0479978 113.1120014 107.3772509 119.7394813 113.9182231
 100.5269992 117.9429978 111.3130014 100.5699992 118.8029978 110.8950014
 100.0689992 117.3909978 110.6790014 100.4709815 117.9860621 111.1701197
 108.2489992 118.0739978 109.7140014 108.8959992 117.7449978 110.3390014
 108.7589992 118.5909978 109.0910014 108.4064317 118.0989227 109.7152167
  97.1469992 120.3399978 112.0750014  97.8009992 119.7899978 112.5070014
  97.1709992 120.0659978 111.1580014  97.2397199 120.2277167 112.0101668
 102.3039992 121.8899978 111.2900014 102.9199992 121.3629978 111.8000014
 101.7169992 121.2499978 110.8870014 102.3089239 121.7314117 111.3052952
 113.2859992 118.5269978 116.8100014 112.5969992 119.1849978 116.7140014
 113.3009992 118.3289978 117.7460014 113.1936740 118.5903242 116.9234630
  99.3369992 116.8609978 115.3870014  99.1179992 117.3909978 114.6210014
  98.6689992 117.0869978 116.0340014  99.2167001 116.9641154 115.3696064
 106.7059992 126.3609978 108.9310014 106.4109992 126.0379978 108.0800014
 106.3819992 127.2609978 108.9720014 106.6217983 126.4384026 108.8199771
 101.9059992 124.5359978 115.6750014 101.1659992 125.1349978 115.7780014
 102.6199992 125.0899978 115.3590014 101.9013288 124.6927356 115.6463805
 110.0129992 117.3649978 111.6940014 109.7979992 116.5989978 112.2270014
 110.6689992 117.8369978 112.2070014 110.0722673 117.3240728 111.8361990
  98.9309992 118.7529978 113.3390014  99.5449992 119.3859978 113.7130014
  99.4429992 118.2809978 112.6830014  99.0842277 118.7757352 113.3014279
 100.3139992 126.5009978 116.4620014 100.3079992 127.3799978 116.0840014
  99.4599992 126.4169978 116.8870014 100.1977925 126.6099535 116.4676887
  96.4349992 126.1719978 107.2440014  96.1629992 126.4009978 106.3550014
  96.4799992 127.0089978 107.7040014  96.4038709 126.3166058 107.1846107
 110.0599992 127.7929978 113.9560014 109.1179992 127.8519978 114.1180014
 110.3359992 128.6989978 113.8190014 109.9685865 127.9235288 113.9596192
 110.3599992 116.0799978 115.3740014 109.6239992 116.6899978 115.3360014
 111.0439992 116.4949978 114.8470014 110.3515506 116.2196400 115.2976051
 103.3639992 114.1659978 112.8400014 103.2459992 113.2179978 112.7850014
 102.5089992 114.4989978 113.1130014 103.2322679 114.0811926 112.8693720
 108.3119992 129.5739978 110.5820014 108.7369992 128.8669978 110.0970014
 108.6289992 130.3759978 110.1650014 108.4130266 129.5855190 110.4592479
 109.4719992 127.4749978 109.0900014 109.2139992 126.7849978 108.4790014
 109.5429992 127.0319978 109.9360014 109.4462837 127.3207106 109.1206912
 111.1579992 126.0419978 117.5680014 111.2969992 125.4499978 116.8280014
 111.3249992 126.9149978 117.2110014 111.1995562 126.0789896 117.4186283
 105.6299992 123.0039978 107.3400014 104.9189992 123.5389978 106.9880014
 106.3209992 123.0589978 106.6800014 105.6260751 123.0846777 107.2025858
 105.6839992 121.4609978 104.3790014 106.3849992 121.4839978 105.0300014
 105.9859992 120.8329978 103.7230014 105.8208282 121.3792339 104.3794496
 112.9989992 122.3819978 115.6340014 112.3469992 123.0759978 115.7230014
 113.4649992 122.5919978 114.8240014 112.9725937 122.5055019 115.5367533
 109.0359992 123.2129978 108.2920014 108.3039992 123.4419978 108.8650014
 109.4829992 122.4999978 108.7470014 108.9962753 123.1478972 108.4319715
 108.9329992 121.3879978 117.3600014 109.0129992 122.1509978 117.9310014
 108.3319992 121.6669978 116.6690014 108.8627245 121.5302630 117.3448424
 100.6809992 123.8439978 110.1740014 100.3509992 123.4729978 109.3560014
 101.2699992 123.1729978 110.5210014 100.7153970 123.7026063 110.1089404
 102.0479992 127.2719978 112.8560014 101.9529992 126.6929978 112.0990014
 102.7769992 126.9009978 113.3520014 102.1336161 127.1425891 112.8195209
 101.0479992 122.6119978 113.8080014 101.6129992 122.7339978 113.0450014
 101.3669992 123.2499978 114.4470014 101.1683977 122.7148851 113.7899424
 107.3569992 128.1159978 114.5420014 107.1169992 128.7779978 115.1900014
 107.1589992 127.2809978 114.9670014 107.2973826 128.0938115 114.6881566
 101.9279992 127.0119978 118.5250014 101.6169992 127.7939978 118.9800014
 101.2779992 126.8589978 117.8390014 101.7975538 127.0984087 118.4945898
 107.9069992 122.3759978 105.9770014 108.4859992 122.5259978 106.7240014
 108.3209992 122.8459978 105.2540014 108.0423122 122.4601277 105.9815042
  98.8479992 123.2099978 117.7540014  98.9179992 123.8609978 118.4520014
  97.9569992 123.3129978 117.4190014  98.7371802 123.3129757 117.8042249
 105.6329992 129.1119978 109.4120014 106.1069992 129.4079978 110.1900014
 105.0699992 129.8509978 109.1790014 105.6217361 129.2522721 109.4868611
 100.1669992 129.0829978 119.2880014 100.1749992 128.9469978 118.3410014
  99.2509992 128.9659978 119.5400014 100.0442528 129.0485463 119.1923243
 111.6059992 114.1259978 105.7900014 110.7059992 114.2649978 106.0850014
 111.8579992 114.9569978 105.3880014 111.5168683 114.2574055 105.7760232
  99.6719992 122.9129978 107.7640014  99.3799992 123.6809978 107.2730014
  98.9969992 122.2539978 107.6010014  99.5408497 122.9289745 107.6748260
 112.7949992 128.4919978 104.1660014 112.8679992 129.4309978 104.3370014
 113.6999992 128.1869978 104.1100014 112.9274158 128.5793061 104.1818392
  95.7649992 125.2759978 116.5790014  95.2629992 125.2479978 115.7640014
  95.7699992 124.3709978 116.8880014  95.6970416 125.1497368 116.5093766
  95.5149992 128.0569978 113.4630014  96.4609992 127.9119978 113.4440014
  95.4019992 128.8409978 114.0000014  95.6293578 128.1431697 113.5330317
 113.7129992 128.7229978 119.1450014 113.6629992 127.7669978 119.1080014
 112.8859992 128.9899978 119.5460014 113.5943987 128.6285174 119.1941446
 104.6909992 128.2969978 118.0210014 104.7789992 129.1229978 118.4960014
 103.8279992 127.9669978 118.2700014 104.5863357 128.3655468 118.1197653
 105.1059992 132.0689978 107.8270014 105.0299992 131.9479978 106.8810014
 105.1379992 133.0179978 107.9460014 105.0999156 132.1807530 107.7135048
  98.7589992 130.8579978 109.6080014  98.9109992 130.5099978 110.4870014
  97.9079992 130.5009978 109.3530014  98.6647899 130.7621738 109.6937340
 108.2069992 131.2229978 104.8290014 108.5819992 130.4789978 104.3590014
 108.2119992 130.9529978 105.7480014 108.2590024 131.0846950 104.8887987
 107.8759992 131.1489978 107.5790014 106.9409992 131.2489978 107.7570014
 108.1559992 130.4389978 108.1570014 107.7858173 131.0667239 107.6814998
 110.8649992 120.2159978 119.6250014 110.4569992 120.6959978 118.9050014
 110.9049992 119.3099978 119.3170014 110.8145476 120.1593160 119.4848247
  98.0139992 126.5999978 117.6220014  98.2299992 126.2379978 118.4810014
  97.1579992 126.2249978 117.4120014  97.9279354 126.4997906 117.7112160
 100.6319992 115.0699978 113.6170014  99.7709992 114.9829978 113.2100014
 100.6099992 115.9259978 114.0450014 100.5110411 115.1737884 113.6190857
 105.2949992 114.7919978 116.9920014 105.7149992 114.3769978 117.7450014
 104.3619992 114.6129978 117.1090014 105.2263736 114.7109910 117.1108968
 108.6219992 118.5469978 117.8450014 108.1079992 118.4219978 118.6430014
 108.4659992 119.4599978 117.6010014 108.5306967 118.6532123 117.9210937
 104.9569992 117.2839978 104.2770014 104.7029992 117.3029978 105.2000014
 104.6999992 116.4129978 103.9760014 104.8875133 117.1688110 104.3625082
 100.7229992 120.0349978 114.7120014 100.0819992 119.9949978 115.4210014
 100.7609992 120.9619978 114.4750014 100.6403670 120.1547795 114.7770550
 100.7199992 120.2559978 109.6240014  99.8279992 119.9159978 109.5660014
 101.1709992 119.8789978 108.8690014 100.6586815 120.1583762 109.5139203
 106.2559992 120.6719978 108.4410014 105.8469992 121.4869978 108.1500014
 106.9759992 120.5319978 107.8270014 106.2974013 120.7646571 108.3180875
 105.3579992 120.8479978 119.9290014 104.7949992 120.1429978 120.2500014
 106.1839992 120.7269978 120.3970014 105.3926674 120.7352165 120.0361751
 107.2609992 120.1179978 111.2550014 107.0649992 120.7239978 110.5400014
 107.4419992 119.2849978 110.8210014 107.2586584 120.0882513 111.0984212
  98.4729992 120.3559978 116.5790014  98.4349992 120.7559978 117.4480014
  97.9829992 119.5389978 116.6700014  98.4015621 120.3002510 116.7101377
  95.0819992 117.4719978 110.4300014  95.7119992 117.4429978 111.1490014
  95.5309992 117.0469978 109.7000014  95.2290692 117.4105316 110.4297771
 106.5249992 121.7559978 115.9270014 106.8479992 121.1249978 115.2840014
 106.0839992 121.2219978 116.5870014 106.5095789 121.5973522 115.9282232
 103.3019992 117.6839978 110.7110014 102.3909992 117.7409978 110.9990014
 103.8069992 117.6239978 111.5210014 103.2455387 117.6836870 110.8600646
  98.1299992 119.3129978 109.5370014  97.2409992 119.4119978 109.1970014
  98.4269992 118.4709978 109.1910014  98.0484177 119.2127687 109.4436940
 101.7829992 119.3129978 107.1940014 102.7149992 119.4419978 107.3720014
 101.5679992 119.9819978 106.5440014 101.8814472 119.4210806 107.1304891
 107.7069992 116.9189978 113.9750014 107.0299992 117.0499978 114.6390014
 107.2219992 116.7639978 113.1650014 107.5487265 116.9159659 113.9563397
 110.9949992 132.5899978 120.2520014 111.1939992 133.0139978 119.4170014
 111.6499992 132.9339978 120.8590014 111.1108501 132.6946091 120.2197097
  98.5929992 125.0639978 119.8600014  99.3249992 125.3189978 120.4210014
  97.8119992 125.2689978 120.3750014  98.5877684 125.1266468 120.0064782
 104.6219992 120.4709978 112.5980014 105.1859992 119.9249978 112.0510014
 104.4739992 119.9499978 113.3860014 104.6792575 120.3256552 112.6296987
  99.6239992 116.6079978 109.0160014  99.3069992 115.7049978 108.9810014
 100.4049992 116.6099978 108.4630014  99.6862307 116.4846951 108.9364314
 103.2479992 118.8599978 115.0120014 102.4129992 119.3139978 115.1220014
 103.7719992 119.1359978 115.7640014 103.2045070 118.9594666 115.1287152
 103.7929992 125.0729978 106.6960014 103.0479992 124.5649978 106.3740014
 103.6579992 125.1219978 107.6430014 103.6729047 125.0101596 106.7798845
 110.9429992 124.2059978 115.4830014 111.5839992 124.6619978 114.9390014
 110.1119992 124.3189978 115.0210014 110.9185171 124.2837502 115.3460237
 105.3119992 125.2569978 117.9330014 104.9659992 124.8749978 118.7400014
 105.1119992 126.1899978 118.0050014 105.2376523 125.3309095 118.0530735
  98.9169992 124.3679978 112.4660014  99.6619992 124.3649978 111.8650014
  98.9949992 123.5439978 112.9480014  99.0294158 124.2562916 112.4489153
  95.9249992 122.8279978 117.7810014  96.1479992 122.4099978 118.6130014
  95.3229992 122.2159978 117.3580014  95.8741260 122.6879933 117.8377320
 102.9419992 122.3449978 119.9940014 102.6459992 122.1799978 119.0990014
 103.8729992 122.1249978 119.9830014 103.0273982 122.2926578 119.8700045
 107.5619992 127.7189978 117.8840014 106.6619992 127.9019978 117.6160014
 107.5959992 127.9779978 118.8050014 107.4432909 127.7790815 117.9717852
 113.2939992 119.9629978 106.2510014 112.7389992 119.5669978 105.5790014
 113.3939992 120.8739978 105.9730014 113.2315888 120.0318990 106.1215206
 113.2569992 125.7639978 119.0880014 112.4059992 126.0019978 118.7210014
 113.8469992 125.7469978 118.3350014 113.2202408 125.7942966 118.9358879
 111.5889992 128.7489978 106.7160014 111.2159992 127.9239978 107.0250014
 111.8659992 128.5659978 105.8190014 111.5753871 128.6112441 106.6369677
 108.7489992 123.5569978 113.7370014 107.8209992 123.3259978 113.7100014
 109.1999992 122.7799978 113.4070014 108.6828165 123.4202774 113.6886790
 101.2919992 127.8859978 109.8700014 101.8199992 128.6589978 109.6700014
 100.4119992 128.1099978 109.5690014 101.2453176 128.0223161 109.8018409
 102.7199992 125.5489978 109.4470014 102.4789992 126.4739978 109.4880014
 101.9789992 125.0899978 109.8430014 102.5868390 125.6136403 109.5061404
 103.2339992 129.6979978 115.7620014 103.5969992 130.5519978 115.5280014
 103.7659992 129.4059978 116.5020014 103.3556090 129.7754058 115.8300219
 101.4029992 130.5699978 108.9920014 100.4529992 130.6759978 109.0430014
 101.7549992 131.3909978 109.3370014 101.3205480 130.6954438 109.0455999
 106.7779992 125.7969978 115.4620014 106.3529992 125.5689978 116.2890014
 107.3589992 125.0579978 115.2800014 106.7983930 125.6659843 115.5504732
 109.4369992 130.3489978 117.9320014 108.8349992 129.7929978 117.4360014
 109.7179992 131.0159978 117.3060014 109.3926829 130.3631613 117.7795443
 113.4849992 131.2049978 104.7370014 114.2289992 131.7909978 104.5970014
 112.7909992 131.7739978 105.0710014 113.4930201 131.3620603 104.7629772
  97.5589992 117.5819978 117.3390014  96.6669992 117.9199978 117.2720014
  97.4609992 116.7259978 117.7570014  97.4234965 117.5126499 117.3863044
 109.8469992 125.3979978 106.7630014 109.5699992 124.6699978 107.3190014
 110.7749992 125.5169978 106.9680014 109.9344499 125.3144213 106.8668044
  97.2109992 129.3859978 115.7740014  97.4279992 128.4539978 115.7430014
  97.4569992 129.6609978 116.6570014  97.2739809 129.2955686 115.8891690
  98.4619992 124.6599978 105.9500014  97.7759992 125.0129978 106.5170014
  98.9849992 125.4229978 105.7040014  98.4389033 124.8113746 105.9942661
 106.2939992 117.3229978 116.2290014 106.9929992 117.3969978 116.8790014
 105.9129992 116.4579978 116.3830014 106.3382097 117.2162389 116.3387997
 107.0779992 116.9749978 107.3260014 107.2979992 117.4459978 106.5230014
 107.6369992 117.3689978 107.9960014 107.1836730 117.0927432 107.3065906
 104.7469992 129.1049978 106.1890014 103.9299992 129.6019978 106.2410014
 105.2759992 129.5809978 105.5490014 104.7068508 129.2372543 106.1096035
 104.2779992 118.7029978 108.1610014 105.0899992 119.2069978 108.2070014
 104.0339992 118.5579978 109.0750014 104.3561467 118.7523749 108.2908575
 104.8139992 119.6889978 117.3460014 104.9329992 120.2629978 118.1030014
 105.4689992 119.0009978 117.4600014 104.9189146 119.6745574 117.4651313
 105.1619992 115.7839978 109.0990014 104.8149992 116.4009978 109.7440014
 105.8209992 116.2849978 108.6180014 105.2035949 115.9361099 109.1222271
 102.0849992 130.1489978 106.1710014 102.2459992 130.9489978 105.6700014
 101.8879992 130.4559978 107.0560014 102.0803919 130.2999129 106.2221006
 100.8199992 116.8469978 105.7860014 100.7359992 117.7349978 106.1330014
 101.7099992 116.5819978 106.0180014 100.9288163 116.9327179 105.8648596
 111.0179992 117.5959978 118.1810014 110.1019992 117.8579978 118.0930014
 111.3539992 117.5929978 117.2840014 110.9379789 117.6314626 118.0477847
 109.6209992 121.3459978 112.2760014 108.8229992 120.9309978 111.9480014
 110.0659992 120.6559978 112.7670014 109.5719684 121.1958628 112.2975227
 110.7069992 130.6019978 113.8990014 110.5509992 131.2809978 113.2420014
 111.6399992 130.6739978 114.1020014 110.8117387 130.7046390 113.8365342
  98.2019992 114.7199978 112.6360014  97.9729992 114.7789978 111.7080014
  97.7599992 113.9289978 112.9420014  98.1108801 114.6210540 112.5504729
  97.1329992 128.6609978 108.7960014  96.2999992 129.1329978 108.8240014
  97.6779992 129.1709978 108.1980014  97.0927590 128.7945897 108.7189194
  96.4209992 131.2729978 120.1260014  96.9609992 131.0569978 120.8860014
  95.9399992 130.4679978 119.9370014  96.4298613 131.1345400 120.2044782
 101.0179992 130.1929978 121.7470014 101.7859992 129.7339978 122.0880014
 100.9969992 129.9669978 120.8170014 101.1202135 130.0996668 121.6679491
 107.5949992 128.5729978 120.4760014 107.2439992 127.7159978 120.7190014
 108.3209992 128.7149978 121.0830014 107.6451590 128.4750178 120.5912907
  96.3279992 125.0839978 121.0810014  96.4719992 124.1819978 120.7940014
  95.5559992 125.3699978 120.5930014  96.2433303 124.9993243 120.9757908
 102.9829992 125.0529978 120.5130014 102.6549992 125.3239978 119.6560014
 103.1349992 124.1119978 120.4260014 102.9586030 124.9628973 120.3837945
 108.7179992 124.9689978 117.8970014 109.4629992 125.5579978 117.7770014
 107.9609992 125.5509978 117.9600014 108.7175205 125.1281997 117.8891119
  97.1609992 122.2839978 120.5010014  97.5689992 121.4269978 120.3800014
  96.8999992 122.2979978 121.4220014  97.1816016 122.1685119 120.6089192
 101.1079992 121.2929978 117.8750014 100.4889992 121.9669978 118.1550014
 101.4519992 121.6139978 117.0420014 101.0697605 121.4287198 117.8006707
 106.1269992 123.7639978 121.1520014 107.0809992 123.8479978 121.1250014
 105.9669992 123.0519978 121.7720014 106.2357182 123.6792842 121.2320733
 101.4469992 118.6479978 118.9570014 101.5969992 117.9189978 118.3550014
 101.4489992 119.4249978 118.3980014 101.4677967 118.6532708 118.7990541
 101.8599992 117.0169978 116.4500014 102.3949992 117.4689978 115.7980014
 101.0069992 116.9089978 116.0270014 101.8180374 117.0642665 116.3036710
 103.4409992 122.4569978 116.6890014 104.1919992 122.3009978 116.1160014
 103.1019992 123.3089978 116.4140014 103.4979587 122.5508138 116.5734078
 107.8569992 120.2719978 121.7180014 108.0489992 119.3409978 121.6060014
 108.7149992 120.6969978 121.7080014 107.9992269 120.2019928 121.7013192
 109.1739992 123.0609978 119.7950014 108.8919992 123.7699978 119.2180014
 110.1159992 122.9879978 119.6440014 109.2627656 123.1483128 119.6954809
  99.9259992 119.8459978 120.8690014  99.1579992 119.3129978 120.6590014
 100.6039992 119.5359978 120.2690014  99.9126973 119.7312375 120.7591796
 102.6649992 114.4739978 116.8810014 102.5669992 115.4199978 116.7760014
 101.9229992 114.1009978 116.4060014 102.5511913 114.5531813 116.8023539
 103.9289992 118.7949978 120.4450014 103.6939992 118.5759978 121.3470014
 103.1459992 118.5879978 119.9350014 103.7909219 118.7370066 120.4995852
 106.6449992 117.9229978 119.5210014 105.6969992 117.9549978 119.6530014
 106.9569992 117.2969978 120.1740014 106.5575190 117.8427262 119.6273563
 108.2789992 116.5569978 121.5260014 108.1819992 115.6049978 121.5200014
 107.9569992 116.8249978 122.3860014 108.2221761 116.4629744 121.6414936
  98.1059992 117.7659978 120.5730014  98.3179992 117.0599978 119.9630014
  97.9949992 117.3289978 121.4170014  98.1200269 117.6101921 120.6035873
 102.8869992 113.7679978 119.5530014 103.5989992 113.1279978 119.5390014
 102.7859992 114.0339978 118.6390014 102.9707261 113.7164190 119.4275537
 103.2409992 115.4499978 121.6060014 103.1089992 114.9749978 120.7860014
 102.6409992 116.1949978 121.5510014 103.1419070 115.4855789 121.4863251
 102.7869992 132.3329978 104.7830014 103.7199992 132.4909978 104.9260014
 102.5229992 133.0089978 104.1580014 102.8789308 132.4459104 104.7181396
  95.0039992 132.3629978 109.3430014  94.3569992 131.9009978 108.8100014
  95.3589992 131.6909978 109.9250014  94.9634506 132.2089503 109.3487341
  95.8739992 130.4429978 111.1470014  95.5399992 129.5629978 111.3190014
  96.0969992 130.7889978 112.0120014  95.8583721 130.3691938 111.2874168
 113.4229992 131.2529978 114.1280014 113.4009992 131.4379978 115.0670014
 114.1129992 131.8209978 113.7870014 113.5133439 131.3551887 114.2104791
 112.9859992 130.8199978 117.0500014 112.4989992 130.0849978 116.6790014
 113.5349992 130.4259978 117.7280014 112.9935247 130.6661057 117.0908461
 111.4369992 126.6099978 121.6880014 110.5709992 126.5049978 122.0820014
 111.8129992 127.3679978 122.1340014 111.3693401 126.6981708 121.8022620
 112.7379992 124.8659978 107.2020014 113.5879992 125.2869978 107.3290014
 112.7429992 124.1259978 107.8090014 112.8551143 124.8236094 107.3014750
 113.1319992 122.9199978 109.0260014 112.4059992 122.4399978 109.4230014
 113.7139992 123.1249978 109.7580014 113.1111635 122.8819166 109.1793748
 112.8909992 125.7049978 113.9730014 113.7249992 125.3269978 113.6930014
 113.0029992 126.6479978 113.8540014 113.0202522 125.7807742 113.9186020
 111.3779992 128.5829978 116.2800014 110.7299992 128.9079978 116.9060014
 110.8599992 128.1419978 115.6060014 111.2194168 128.5678523 116.2745307
 113.4009992 122.8209978 105.4170014 112.8789992 123.1769978 104.6980014
 113.3679992 123.4959978 106.0950014 113.3250699 122.9609848 105.4102129
 110.9189992 121.4409978 109.5890014 110.7689992 120.4959978 109.5680014
 110.5649992 121.7219978 110.4320014 110.8505527 121.3495605 109.7001859
  95.9539992 123.5189978 113.5990014  96.1389992 123.4369978 112.6630014
  96.8039992 123.3949978 114.0230014  96.0940916 123.4910393 113.5282896
 111.7749992 123.4109978 119.2270014 112.3579992 122.6759978 119.4190014
 112.3389992 124.1829978 119.2740014 111.9309781 123.4148145 119.2596164
 113.2719992 121.3139978 119.9120014 112.4089992 120.9349978 119.7460014
 113.8759992 120.5749978 119.8380014 113.2355944 121.1622978 119.8792984
 110.6299992 119.0229978 108.0510014 110.9089992 118.1159978 108.1750014
 111.3889992 119.4569978 107.6620014 110.7708619 118.9574502 108.0153795
 111.2409992 119.6049978 113.4870014 112.1739992 119.8169978 113.4530014
 111.0059992 119.7059978 114.4090014 111.3368308 119.6476503 113.6070214
 111.2709992 120.3419978 116.2630014 110.4279992 120.6099978 116.6290014
 111.7129992 121.1639978 116.0520014 111.2154138 120.4898273 116.2845518
  95.5519992 118.7889978 119.7400014  96.4709992 118.6669978 119.9760014
  95.1019992 118.0389978 120.1290014  95.6171148 118.6708751 119.8249408
 113.5539992 114.3219978 121.6160014 113.9029992 113.6679978 121.0110014
 113.7009992 115.1589978 121.1770014 113.6217355 114.3456067 121.4736564
 111.2429992 116.2859978 108.0990014 111.4249992 115.8369978 108.9250014
 110.6429992 115.7019978 107.6360014 111.1867529 116.1456131 108.1493619
  96.7729992 117.1019978 112.6310014  97.2179992 116.3099978 112.9330014
  97.2389992 117.8179978 113.0620014  96.8969059 117.0904474 112.7306079
  95.0769992 120.1009978 113.7000014  95.5689992 119.8799978 112.9090014
  95.4389992 120.9409978 113.9810014  95.1932923 120.1843468 113.6297407
 113.0729992 116.4309978 119.9660014 112.1559992 116.7019978 119.9300014
 113.1959992 115.8959978 119.1820014 112.9640828 116.3957700 119.8550785
 113.1099992 116.3539978 104.6270014 113.5219992 115.6329978 104.1520014
 113.7909992 117.0229978 104.6860014 113.2585900 116.3457306 104.5699038
  95.3909992 116.3589978 107.7540014  94.4659992 116.5669978 107.6250014
  95.8449992 116.8429978 107.0650014  95.3256374 116.4529949 107.6430957
 110.1609992 131.3429978 109.7000014 110.8139992 130.9949978 109.0920014
 110.6719992 131.8309978 110.3460014 110.3192777 131.3613815 109.7042047
  95.3539992 115.0969978 116.0990014  94.6889992 114.8509978 116.7420014
  94.9109992 115.7189978 115.5210014  95.2030937 115.1473614 116.1089379
  97.5459992 128.2719978 120.2430014  96.7249992 128.4469978 119.7830014
  97.2939992 128.1989978 121.1640014  97.3996173 128.2860794 120.3044972
 100.4999992 129.2459978 116.5020014 100.0759992 130.0559978 116.2190014
 101.4049992 129.3319978 116.2000014 100.5642433 129.3683331 116.4225377
 104.8119992 130.6449978 119.4610014 104.9959992 130.3119978 120.3390014
 105.6579992 130.9549978 119.1390014 104.9516484 130.6412979 119.5377617
 107.1569992 131.9309978 118.7050014 107.8339992 131.2979978 118.4650014
 107.4779992 132.3319978 119.5120014 107.2931323 131.8985691 118.7813158
 112.0739992 114.5209978 117.7850014 111.2609992 114.8459978 117.3970014
 112.3069992 113.7599978 117.2520014 111.9942566 114.4626559 117.6599213
  97.9019992 132.5029978 116.5490014  97.1819992 132.9429978 116.0980014
  97.5369992 132.2519978 117.3980014  97.7539796 132.5293824 116.6019329
 100.3689992 132.1029978 115.5790014  99.5049992 132.1749978 115.9830014
 100.3139992 132.6499978 114.7950014 100.2431942 132.1867849 115.5284000
 105.0799992 131.9909978 114.7540014 104.6229992 132.5199978 114.1000014
 105.2429992 132.5939978 115.4800014 105.0394476 132.1449140 114.7625499
 107.4079992 130.8689978 115.6990014 106.5029992 131.0339978 115.4340014
 107.8359992 131.7219978 115.6340014 107.3420700 131.0069529 115.6539520
 110.0119992 132.4389978 115.9940014 109.8299992 133.3549978 115.7840014
 110.1889992 132.0279978 115.1480014 110.0109907 132.5089741 115.8507883
  97.3169992 131.1259978 113.4590014  97.2989992 130.6999978 114.3170014
  98.1219992 130.8069978 113.0510014  97.4233221 131.0247233 113.5210225
  99.4579992 129.8359978 112.1140014  99.2389992 128.9189978 112.2840014
 100.2819992 129.9759978 112.5800014  99.5394702 129.7295511 112.2002527
 101.9949992 130.3059978 112.9630014 102.2079992 129.4179978 112.6760014
 102.0599992 130.2709978 113.9180014 102.0329075 130.1798307 113.0527373
 105.5039992 115.9699978 112.1070014 104.8299992 115.3399978 112.3630014
 106.0679992 115.4859978 111.5040014 105.4880384 115.8183708 112.0605020
 110.6469992 114.0769978 112.2200014 111.2499992 114.6249978 111.7180014
 109.7769992 114.3959978 111.9800014 110.6119190 114.1951041 112.1188679
 112.3739992 115.2159978 110.5530014 112.9849992 114.7019978 110.0270014
 112.7559992 116.0929978 110.5770014 112.5094475 115.2641323 110.4841208
  97.8309992 114.6039978 109.9290014  97.0539992 114.3689978 109.4220014
  98.3609992 113.8069978 109.9380014  97.7963451 114.4641268 109.8608627
 102.4099992 114.5299978 109.7430014 103.2839992 114.9189978 109.7130014
 102.2739992 114.3149978 110.6650014 102.5113207 114.5541923 109.8636509
 107.9669992 114.5599978 111.3920014 108.0429992 114.6559978 110.4430014
 107.6919992 113.6529978 111.5210014 107.9402042 114.4504241 111.2793811
 109.3199992 114.5859978 107.0840014 108.6169992 115.2009978 106.8750014
 108.8749992 113.7489978 107.2160014 109.1636292 114.5570085 107.0732439
  96.5679992 130.3499978 106.6310014  95.8829992 130.3119978 105.9630014
  96.5719992 131.2629978 106.9190014  96.4748174 130.4681998 106.5785310
 103.5539992 116.6109978 106.6330014 103.7319992 115.9639978 107.3150014
 103.4999992 117.4449978 107.1000014 103.5711025 116.6350504 106.7896433
 105.4319992 131.5589978 105.0280014 106.2979992 131.9259978 104.8500014
 105.1859992 131.1199978 104.2140014 105.5172097 131.5498525 104.8936019
 112.1409992 131.1219978 107.7070014 111.9469992 130.3739978 107.1420014
 112.1019992 131.8799978 107.1240014 112.1091645 131.1220786 107.5508148
  97.7879992 115.1179978 119.4470014  97.4219992 114.3519978 119.8900014
  98.7009992 115.1469978 119.7340014  97.8613225 115.0171906 119.5463459
  99.7609992 114.4679978 120.9830014 100.6599992 114.1939978 120.7980014
  99.3749992 113.7259978 121.4470014  99.8317237 114.3301508 121.0204710
 108.1829992 113.8009978 121.1650014 108.2589992 113.3749978 122.0190014
 109.0759992 113.8139978 120.8220014 108.3142267 113.7443952 121.2355932
 111.3589992 129.8739978 119.8570014 110.5769992 129.6869978 119.3380014
 111.2869992 130.8029978 120.0750014 111.2420863 129.9740221 119.8153574
 125.7649992 123.7599978 109.8880014 125.8539992 124.7039978 109.7560014
 125.1269992 123.4849978 109.2300014 125.6909062 123.8519812 109.7809641
 124.6979992 123.0149978 113.3070014 124.6599992 122.3689978 114.0120014
 124.3759992 122.5479978 112.5360014 124.6492679 122.8634276 113.2992921
 117.0659992 122.6289978 114.9000014 117.1079992 122.0039978 115.6230014
 117.7689992 123.2529978 115.0820014 117.1667345 122.6277873 115.0235274
 128.4039992 125.9539978 111.6090014 127.9629992 125.2339978 112.0590014
 128.3909992 126.6749978 112.2380014 128.3417960 125.9528329 111.7557567
 117.9899992 127.0789978 113.4350014 117.6199992 126.2769978 113.0650014
 118.9309992 126.9109978 113.4810014 118.0665984 126.9464638 113.3905603
 114.5999992 120.7389978 108.8280014 114.1519992 121.5849978 108.8090014
 114.0389992 120.1599978 108.3120014 114.4629603 120.7763674 108.7556720
 115.3099992 122.9009978 110.9540014 115.5239992 122.1309978 111.4810014
 116.0479992 122.9909978 110.3500014 115.4389652 122.8078012 110.9445212
 125.5159992 131.0579978 111.8210014 126.1349992 130.3819978 111.5470014
 125.3069992 130.8399978 112.7290014 125.5726232 130.9357938 111.9062517
 123.0869992 125.4469978 113.7130014 123.3909992 124.7609978 113.1190014
 123.8089992 125.5659978 114.3310014 123.2261152 125.3692189 113.7152123
 131.7499992 117.0489978 114.5740014 131.7999992 117.6589978 115.3100014
 132.1759992 117.5099978 113.8510014 131.8144108 117.1947709 114.5770112
 126.2279992 119.8409978 114.0410014 126.3709992 118.8949978 114.0610014
 126.1219992 120.0479978 113.1120014 126.2332509 119.7394813 113.9182231
 119.3829992 117.9429978 111.3130014 119.4259992 118.8029978 110.8950014
 118.9249992 117.3909978 110.6790014 119.3269815 117.9860621 111.1701197
 127.1049992 118.0739978 109.7140014 127.7519992 117.7449978 110.3390014
 127.6149992 118.5909978 109.0910014 127.2624317 118.0989227 109.7152167
 116.0029992 120.3399978 112.0750014 116.6569992 119.7899978 112.5070014
 116.0269992 120.0659978 111.1580014 116.0957199 120.2277167 112.0101668
 121.1599992 121.8899978 111.2900014 121.7759992 121.3629978 111.8000014
 120.5729992 121.2499978 110.8870014 121.1649239 121.7314117 111.3052952
 132.1419992 118.5269978 116.8100014 131.4529992 119.1849978 116.7140014
 132.1569992 118.3289978 117.7460014 132.0496740 118.5903242 116.9234630
 118.1929992 116.8609978 115.3870014 117.9739992 117.3909978 114.6210014
 117.5249992 117.0869978 116.0340014 118.0727001 116.9641154 115.3696064
 125.5619992 126.3609978 108.9310014 125.2669992 126.0379978 108.0800014
 125.2379992 127.2609978 108.9720014 125.4777983 126.4384026 108.8199771
 120.7619992 124.5359978 115.6750014 120.0219992 125.1349978 115.7780014
 121.4759992 125.0899978 115.3590014 120.7573288 124.6927356 115.6463805
 128.8689992 117.3649978 111.6940014 128.6539992 116.5989978 112.2270014
 129.5249992 117.8369978 112.2070014 128.9282673 117.3240728 111.8361990
 117.7869992 118.7529978 113.3390014 118.4009992 119.3859978 113.7130014
 118.2989992 118.2809978 112.6830014 117.9402277 118.7757352 113.3014279
 119.1699992 126.5009978 116.4620014 119.1639992 127.3799978 116.0840014
 118.3159992 126.4169978 116.8870014 119.0537925 126.6099535 116.4676887
 115.2909992 126.1719978 107.2440014 115.0189992 126.4009978 106.3550014
 115.3359992 127.0089978 107.7040014 115.2598709 126.3166058 107.1846107
 128.9159992 127.7929978 113.9560014 127.9739992 127.8519978 114.1180014
 129.1919992 128.6989978 113.8190014 128.8245865 127.9235288 113.9596192
 129.2159992 116.0799978 115.3740014 128.4799992 116.6899978 115.3360014
 129.8999992 116.4949978 114.8470014 129.2075506 116.2196400 115.2976051
 122.2199992 114.1659978 112.8400014 122.1019992 113.2179978 112.7850014
 121.3649992 114.4989978 113.1130014 122.0882679 114.0811926 112.8693720
 127.1679992 129.5739978 110.5820014 127.5929992 128.8669978 110.0970014
 127.4849992 130.3759978 110.1650014 127.2690266 129.5855190 110.4592479
 128.3279992 127.4749978 109.0900014 128.0699992 126.7849978 108.4790014
 128.3989992 127.0319978 109.9360014 128.3022837 127.3207106 109.1206912
 130.0139992 126.0419978 117.5680014 130.1529992 125.4499978 116.8280014
 130.1809992 126.9149978 117.2110014 130.0555562 126.0789896 117.4186283
 124.4859992 123.0039978 107.3400014 123.7749992 123.5389978 106.9880014
 125.1769992 123.0589978 106.6800014 124.4820751 123.0846777 107.2025858
 131.8549992 122.3819978 115.6340014 131.2029992 123.0759978 115.7230014
 132.3209992 122.5919978 114.8240014 131.8285937 122.5055019 115.5367533
 127.8919992 123.2129978 108.2920014 127.1599992 123.4419978 108.8650014
 128.3389992 122.4999978 108.7470014 127.8522753 123.1478972 108.4319715
 127.7889992 121.3879978 117.3600014 127.8689992 122.1509978 117.9310014
 127.1879992 121.6669978 116.6690014 127.7187245 121.5302630 117.3448424
 119.5369992 123.8439978 110.1740014 119.2069992 123.4729978 109.3560014
 120.1259992 123.1729978 110.5210014 119.5713970 123.7026063 110.1089404
 120.9039992 127.2719978 112.8560014 120.8089992 126.6929978 112.0990014
 121.6329992 126.9009978 113.3520014 120.9896161 127.1425891 112.8195209
 119.9039992 122.6119978 113.8080014 120.4689992 122.7339978 113.0450014
 120.2229992 123.2499978 114.4470014 120.0243977 122.7148851 113.7899424
 126.2129992 128.1159978 114.5420014 125.9729992 128.7779978 115.1900014
 126.0149992 127.2809978 114.9670014 126.1533826 128.0938115 114.6881566
 120.7839992 127.0119978 118.5250014 120.4729992 127.7939978 118.9800014
 120.1339992 126.8589978 117.8390014 120.6535538 127.0984087 118.4945898
 126.7629992 122.3759978 105.9770014 127.3419992 122.5259978 106.7240014
 127.1769992 122.8459978 105.2540014 126.8983122 122.4601277 105.9815042
 117.7039992 123.2099978 117.7540014 117.7739992 123.8609978 118.4520014
 116.8129992 123.3129978 117.4190014 117.5931802 123.3129757 117.8042249
 124.4889992 129.1119978 109.4120014 124.9629992 129.4079978 110.1900014
 123.9259992 129.8509978 109.1790014 124.4777361 129.2522721 109.4868611
 119.0229992 129.0829978 119.2880014 119.0309992 128.9469978 118.3410014
 118.1069992 128.9659978 119.5400014 118.9002528 129.0485463 119.1923243
 130.4619992 114.1259978 105.7900014 129.5619992 114.2649978 106.0850014
 130.7139992 114.9569978 105.3880014 130.3728683 114.2574055 105.7760232
 118.5279992 122.9129978 107.7640014 118.2359992 123.6809978 107.2730014
 117.8529992 122.2539978 107.6010014 118.3968497 122.9289745 107.6748260
 114.6209992 125.2759978 116.5790014 114.1189992 125.2479978 115.7640014
 114.6259992 124.3709978 116.8880014 114.5530416 125.1497368 116.5093766
 114.3709992 128.0569978 113.4630014 115.3169992 127.9119978 113.4440014
 114.2579992 128.8409978 114.0000014 114.4853578 128.1431697 113.5330317
 132.5689992 128.7229978 119.1450014 132.5189992 127.7669978 119.1080014
 131.7419992 128.9899978 119.5460014 132.4503987 128.6285174 119.1941446
 123.5469992 128.2969978 118.0210014 123.6349992 129.1229978 118.4960014
 122.6839992 127.9669978 118.2700014 123.4423357 128.3655468 118.1197653
 123.9619992 132.0689978 107.8270014 123.8859992 131.9479978 106.8810014
 123.9939992 133.0179978 107.9460014 123.9559156 132.1807530 107.7135048
 117.6149992 130.8579978 109.6080014 117.7669992 130.5099978 110.4870014
 116.7639992 130.5009978 109.3530014 117.5207899 130.7621738 109.6937340
 126.7319992 131.1489978 107.5790014 125.7969992 131.2489978 107.7570014
 127.0119992 130.4389978 108.1570014 126.6418173 131.0667239 107.6814998
 129.7209992 120.2159978 119.6250014 129.3129992 120.6959978 118.9050014
 129.7609992 119.3099978 119.3170014 129.6705476 120.1593160 119.4848247
 116.8699992 126.5999978 117.6220014 117.0859992 126.2379978 118.4810014
 116.0139992 126.2249978 117.4120014 116.7839354 126.4997906 117.7112160
 119.4879992 115.0699978 113.6170014 118.6269992 114.9829978 113.2100014
 119.4659992 115.9259978 114.0450014 119.3670411 115.1737884 113.6190857
 124.1509992 114.7919978 116.9920014 124.5709992 114.3769978 117.7450014
 123.2179992 114.6129978 117.1090014 124.0823736 114.7109910 117.1108968
 127.4779992 118.5469978 117.8450014 126.9639992 118.4219978 118.6430014
 127.3219992 119.4599978 117.6010014 127.3866967 118.6532123 117.9210937
 128.2399992 123.4079978 103.6070014 128.2819992 123.1859978 102.6770014
 129.0889992 123.8069978 103.7970014 128.3605253 123.4315498 103.5053822
 123.8129992 117.2839978 104.2770014 123.5589992 117.3029978 105.2000014
 123.5559992 116.4129978 103.9760014 123.7435133 117.1688110 104.3625082
 119.5789992 120.0349978 114.7120014 118.9379992 119.9949978 115.4210014
 119.6169992 120.9619978 114.4750014 119.4963670 120.1547795 114.7770550
 119.5759992 120.2559978 109.6240014 118.6839992 119.9159978 109.5660014
 120.0269992 119.8789978 108.8690014 119.5146815 120.1583762 109.5139203
 125.1119992 120.6719978 108.4410014 124.7029992 121.4869978 108.1500014
 125.8319992 120.5319978 107.8270014 125.1534013 120.7646571 108.3180875
 124.2139992 120.8479978 119.9290014 123.6509992 120.1429978 120.2500014
 125.0399992 120.7269978 120.3970014 124.2486674 120.7352165 120.0361751
 126.1169992 120.1179978 111.2550014 125.9209992 120.7239978 110.5400014
 126.2979992 119.2849978 110.8210014 126.1146584 120.0882513 111.0984212
 117.3289992 120.3559978 116.5790014 117.2909992 120.7559978 117.4480014
 116.8389992 119.5389978 116.6700014 117.2575621 120.3002510 116.7101377
 113.9379992 117.4719978 110.4300014 114.5679992 117.4429978 111.1490014
 114.3869992 117.0469978 109.7000014 114.0850692 117.4105316 110.4297771
 115.2119992 118.2179978 105.8540014 115.6859992 118.8089978 105.2690014
 114.4939992 118.7479978 106.2010014 115.1798640 118.3705511 105.8207969
 125.3809992 121.7559978 115.9270014 125.7039992 121.1249978 115.2840014
 124.9399992 121.2219978 116.5870014 125.3655789 121.5973522 115.9282232
 122.1579992 117.6839978 110.7110014 121.2469992 117.7409978 110.9990014
 122.6629992 117.6239978 111.5210014 122.1015387 117.6836870 110.8600646
 116.9859992 119.3129978 109.5370014 116.0969992 119.4119978 109.1970014
 117.2829992 118.4709978 109.1910014 116.9044177 119.2127687 109.4436940
 120.6389992 119.3129978 107.1940014 121.5709992 119.4419978 107.3720014
 120.4239992 119.9819978 106.5440014 120.7374472 119.4210806 107.1304891
 126.5629992 116.9189978 113.9750014 125.8859992 117.0499978 114.6390014
 126.0779992 116.7639978 113.1650014 126.4047265 116.9159659 113.9563397
 119.3129992 120.5069978 104.7610014 118.7709992 120.1279978 104.0690014
 120.1469992 120.7019978 104.3320014 119.3515159 120.4815076 104.6084419
 129.8509992 132.5899978 120.2520014 130.0499992 133.0139978 119.4170014
 130.5059992 132.9339978 120.8590014 129.9668501 132.6946091 120.2197097
 117.4489992 125.0639978 119.8600014 118.1809992 125.3189978 120.4210014
 116.6679992 125.2689978 120.3750014 117.4437684 125.1266468 120.0064782
 123.4779992 120.4709978 112.5980014 124.0419992 119.9249978 112.0510014
 123.3299992 119.9499978 113.3860014 123.5352575 120.3256552 112.6296987
 118.4799992 116.6079978 109.0160014 118.1629992 115.7049978 108.9810014
 119.2609992 116.6099978 108.4630014 118.5422307 116.4846951 108.9364314
 122.1039992 118.8599978 115.0120014 121.2689992 119.3139978 115.1220014
 122.6279992 119.1359978 115.7640014 122.0605070 118.9594666 115.1287152
 129.7989992 124.2059978 115.4830014 130.4399992 124.6619978 114.9390014
 128.9679992 124.3189978 115.0210014 129.7745171 124.2837502 115.3460237
 126.5459992 117.8869978 104.8960014 125.6079992 117.9979978 104.7440014
 126.8439992 118.7429978 105.2020014 126.4576402 118.0180621 104.9165571
 124.1679992 125.2569978 117.9330014 123.8219992 124.8749978 118.7400014
 123.9679992 126.1899978 118.0050014 124.0936523 125.3309095 118.0530735
 127.2649992 119.7539978 106.5560014 128.1569992 119.6159978 106.8750014
 127.3209992 120.5449978 106.0200014 127.3947107 119.8420526 106.5272091
 117.7729992 124.3679978 112.4660014 118.5179992 124.3649978 111.8650014
 117.8509992 123.5439978 112.9480014 117.8854158 124.2562916 112.4489153
 114.7809992 122.8279978 117.7810014 115.0039992 122.4099978 118.6130014
 114.1789992 122.2159978 117.3580014 114.7301260 122.6879933 117.8377320
 121.7979992 122.3449978 119.9940014 121.5019992 122.1799978 119.0990014
 122.7289992 122.1249978 119.9830014 121.8833982 122.2926578 119.8700045
 126.4179992 127.7189978 117.8840014 125.5179992 127.9019978 117.6160014
 126.4519992 127.9779978 118.8050014 126.2992909 127.7790815 117.9717852
 132.1499992 119.9629978 106.2510014 131.5949992 119.5669978 105.5790014
 132.2499992 120.8739978 105.9730014 132.0875888 120.0318990 106.1215206
 132.1129992 125.7639978 119.0880014 131.2619992 126.0019978 118.7210014
 132.7029992 125.7469978 118.3350014 132.0762408 125.7942966 118.9358879
 127.6049992 123.5569978 113.7370014 126.6769992 123.3259978 113.7100014
 128.0559992 122.7799978 113.4070014 127.5388165 123.4202774 113.6886790
 120.1479992 127.8859978 109.8700014 120.6759992 128.6589978 109.6700014
 119.2679992 128.1099978 109.5690014 120.1013176 128.0223161 109.8018409
 115.9029992 122.7479978 104.4580014 116.5189992 123.3749978 104.8370014
 115.0409992 123.0639978 104.7290014 115.8708195 122.8765798 104.5465386
 121.5759992 125.5489978 109.4470014 121.3349992 126.4739978 109.4880014
 120.8349992 125.0899978 109.8430014 121.4428390 125.6136403 109.5061404
 122.0899992 129.6979978 115.7620014 122.4529992 130.5519978 115.5280014
 122.6219992 129.4059978 116.5020014 122.2116090 129.7754058 115.8300219
 120.2589992 130.5699978 108.9920014 119.3089992 130.6759978 109.0430014
 120.6109992 131.3909978 109.3370014 120.1765480 130.6954438 109.0455999
 125.6339992 125.7969978 115.4620014 125.2089992 125.5689978 116.2890014
 126.2149992 125.0579978 115.2800014 125.6543930 125.6659843 115.5504732
 128.2929992 130.3489978 117.9320014 127.6909992 129.7929978 117.4360014
 128.5739992 131.0159978 117.3060014 128.2486829 130.3631613 117.7795443
 116.4149992 117.5819978 117.3390014 115.5229992 117.9199978 117.2720014
 116.3169992 116.7259978 117.7570014 116.2794965 117.5126499 117.3863044
 128.7029992 125.3979978 106.7630014 128.4259992 124.6699978 107.3190014
 129.6309992 125.5169978 106.9680014 128.7904499 125.3144213 106.8668044
 116.0669992 129.3859978 115.7740014 116.2839992 128.4539978 115.7430014
 116.3129992 129.6609978 116.6570014 116.1299809 129.2955686 115.8891690
 120.8649992 127.4079978 105.4400014 121.0119992 126.8879978 106.2300014
 120.8619992 128.3149978 105.7460014 120.8847300 127.4593964 105.5895895
 117.3179992 124.6599978 105.9500014 116.6319992 125.0129978 106.5170014
 117.8409992 125.4229978 105.7040014 117.2949033 124.8113746 105.9942661
 125.1499992 117.3229978 116.2290014 125.8489992 117.3969978 116.8790014
 124.7689992 116.4579978 116.3830014 125.1942097 117.2162389 116.3387997
 125.9339992 116.9749978 107.3260014 126.1539992 117.4459978 106.5230014
 126.4929992 117.3689978 107.9960014 126.0396730 117.0927432 107.3065906
 123.6029992 129.1049978 106.1890014 122.7859992 129.6019978 106.2410014
 124.1319992 129.5809978 105.5490014 123.5628508 129.2372543 106.1096035
 123.1339992 118.7029978 108.1610014 123.9459992 119.2069978 108.2070014
 122.8899992 118.5579978 109.0750014 123.2121467 118.7523749 108.2908575
 123.6699992 119.6889978 117.3460014 123.7889992 120.2629978 118.1030014
 124.3249992 119.0009978 117.4600014 123.7749146 119.6745574 117.4651314
 124.0179992 115.7839978 109.0990014 123.6709992 116.4009978 109.7440014
 124.6769992 116.2849978 108.6180014 124.0595949 115.9361099 109.1222271
 129.8739992 117.5959978 118.1810014 128.9579992 117.8579978 118.0930014
 130.2099992 117.5929978 117.2840014 129.7939789 117.6314626 118.0477847
 128.4769992 121.3459978 112.2760014 127.6789992 120.9309978 111.9480014
 128.9219992 120.6559978 112.7670014 128.4279684 121.1958628 112.2975227
 129.5629992 130.6019978 113.8990014 129.4069992 131.2809978 113.2420014
 130.4959992 130.6739978 114.1020014 129.6677387 130.7046390 113.8365342
 117.0579992 114.7199978 112.6360014 116.8289992 114.7789978 111.7080014
 116.6159992 113.9289978 112.9420014 116.9668801 114.6210540 112.5504729
 115.9889992 128.6609978 108.7960014 115.1559992 129.1329978 108.8240014
 116.5339992 129.1709978 108.1980014 115.9487590 128.7945897 108.7189194
 115.2769992 131.2729978 120.1260014 115.8169992 131.0569978 120.8860014
 114.7959992 130.4679978 119.9370014 115.2858613 131.1345400 120.2044782
 119.8739992 130.1929978 121.7470014 120.6419992 129.7339978 122.0880014
 119.8529992 129.9669978 120.8170014 119.9762135 130.0996668 121.6679491
 126.4509992 128.5729978 120.4760014 126.0999992 127.7159978 120.7190014
 127.1769992 128.7149978 121.0830014 126.5011590 128.4750178 120.5912907
 115.1839992 125.0839978 121.0810014 115.3279992 124.1819978 120.7940014
 114.4119992 125.3699978 120.5930014 115.0993303 124.9993243 120.9757908
 121.8389992 125.0529978 120.5130014 121.5109992 125.3239978 119.6560014
 121.9909992 124.1119978 120.4260014 121.8146030 124.9628973 120.3837945
 127.5739992 124.9689978 117.8970014 128.3189992 125.5579978 117.7770014
 126.8169992 125.5509978 117.9600014 127.5735205 125.1281997 117.8891119
 116.0169992 122.2839978 120.5010014 116.4249992 121.4269978 120.3800014
 115.7559992 122.2979978 121.4220014 116.0376016 122.1685119 120.6089192
 120.6749992 123.3999978 105.5190014 120.2149992 122.9159978 106.2050014
 120.9299992 122.7309978 104.8830014 120.6465038 123.2433689 105.5269447
 119.9639992 121.2929978 117.8750014 119.3449992 121.9669978 118.1550014
 120.3079992 121.6139978 117.0420014 119.9257605 121.4287198 117.8006707
 124.9829992 123.7639978 121.1520014 125.9369992 123.8479978 121.1250014
 124.8229992 123.0519978 121.7720014 125.0917182 123.6792842 121.2320733
 120.3029992 118.6479978 118.9570014 120.4529992 117.9189978 118.3550014
 120.3049992 119.4249978 118.3980014 120.3237967 118.6532708 118.7990541
 120.7159992 117.0169978 116.4500014 121.2509992 117.4689978 115.7980014
 119.8629992 116.9089978 116.0270014 120.6740374 117.0642665 116.3036710
 122.2969992 122.4569978 116.6890014 123.0479992 122.3009978 116.1160014
 121.9579992 123.3089978 116.4140014 122.3539587 122.5508138 116.5734078
 126.7129992 120.2719978 121.7180014 126.9049992 119.3409978 121.6060014
 127.5709992 120.6969978 121.7080014 126.8552269 120.2019928 121.7013192
 128.0299992 123.0609978 119.7950014 127.7479992 123.7699978 119.2180014
 128.9719992 122.9879978 119.6440014 128.1187656 123.1483128 119.6954809
 118.7819992 119.8459978 120.8690014 118.0139992 119.3129978 120.6590014
 119.4599992 119.5359978 120.2690014 118.7686973 119.7312375 120.7591796
 121.5209992 114.4739978 116.8810014 121.4229992 115.4199978 116.7760014
 120.7789992 114.1009978 116.4060014 121.4071913 114.5531813 116.8023539
 122.7849992 118.7949978 120.4450014 122.5499992 118.5759978 121.3470014
 122.0019992 118.5879978 119.9350014 122.6469219 118.7370066 120.4995852
 125.5009992 117.9229978 119.5210014 124.5529992 117.9549978 119.6530014
 125.8129992 117.2969978 120.1740014 125.4135190 117.8427262 119.6273563
 127.1349992 116.5569978 121.5260014 127.0379992 115.6049978 121.5200014
 126.8129992 116.8249978 122.3860014 127.0781761 116.4629744 121.6414936
 116.9619992 117.7659978 120.5730014 117.1739992 117.0599978 119.9630014
 116.8509992 117.3289978 121.4170014 116.9760269 117.6101921 120.6035873
 121.7429992 113.7679978 119.5530014 122.4549992 113.1279978 119.5390014
 121.6419992 114.0339978 118.6390014 121.8267261 113.7164190 119.4275537
 122.0969992 115.4499978 121.6060014 121.9649992 114.9749978 120.7860014
 121.4969992 116.1949978 121.5510014 121.9979070 115.4855789 121.4863251
 113.8599992 132.3629978 109.3430014 113.2129992 131.9009978 108.8100014
 114.2149992 131.6909978 109.9250014 113.8194506 132.2089503 109.3487341
 114.7299992 130.4429978 111.1470014 114.3959992 129.5629978 111.3190014
 114.9529992 130.7889978 112.0120014 114.7143721 130.3691938 111.2874168
 132.2789992 131.2529978 114.1280014 132.2569992 131.4379978 115.0670014
 132.9689992 131.8209978 113.7870014 132.3693439 131.3551887 114.2104791
 131.8419992 130.8199978 117.0500014 131.3549992 130.0849978 116.6790014
 132.3909992 130.4259978 117.7280014 131.8495247 130.6661057 117.0908461
 130.2929992 126.6099978 121.6880014 129.4269992 126.5049978 122.0820014
 130.6689992 127.3679978 122.1340014 130.2253401 126.6981708 121.8022620
 131.5939992 124.8659978 107.2020014 132.4439992 125.2869978 107.3290014
 131.5989992 124.1259978 107.8090014 131.7111143 124.8236094 107.3014750
 131.9879992 122.9199978 109.0260014 131.2619992 122.4399978 109.4230014
 132.5699992 123.1249978 109.7580014 131.9671635 122.8819166 109.1793748
 131.7469992 125.7049978 113.9730014 132.5809992 125.3269978 113.6930014
 131.8589992 126.6479978 113.8540014 131.8762522 125.7807742 113.9186020
 130.2339992 128.5829978 116.2800014 129.5859992 128.9079978 116.9060014
 129.7159992 128.1419978 115.6060014 130.0754168 128.5678523 116.2745307
 129.7749992 121.4409978 109.5890014 129.6249992 120.4959978 109.5680014
 129.4209992 121.7219978 110.4320014 129.7065527 121.3495605 109.7001859
 114.8099992 123.5189978 113.5990014 114.9949992 123.4369978 112.6630014
 115.6599992 123.3949978 114.0230014 114.9500916 123.4910393 113.5282896
 130.6309992 123.4109978 119.2270014 131.2139992 122.6759978 119.4190014
 131.1949992 124.1829978 119.2740014 130.7869781 123.4148145 119.2596164
 132.1279992 121.3139978 119.9120014 131.2649992 120.9349978 119.7460014
 132.7319992 120.5749978 119.8380014 132.0915944 121.1622978 119.8792984
 129.4859992 119.0229978 108.0510014 129.7649992 118.1159978 108.1750014
 130.2449992 119.4569978 107.6620014 129.6268619 118.9574502 108.0153795
 130.0969992 119.6049978 113.4870014 131.0299992 119.8169978 113.4530014
 129.8619992 119.7059978 114.4090014 130.1928308 119.6476503 113.6070214
 130.1269992 120.3419978 116.2630014 129.2839992 120.6099978 116.6290014
 130.5689992 121.1639978 116.0520014 130.0714138 120.4898273 116.2845518
 114.4079992 118.7889978 119.7400014 115.3269992 118.6669978 119.9760014
 113.9579992 118.0389978 120.1290014 114.4731148 118.6708751 119.8249408
 132.4099992 114.3219978 121.6160014 132.7589992 113.6679978 121.0110014
 132.5569992 115.1589978 121.1770014 132.4777355 114.3456067 121.4736564
 130.0989992 116.2859978 108.0990014 130.2809992 115.8369978 108.9250014
 129.4989992 115.7019978 107.6360014 130.0427529 116.1456131 108.1493619
 115.6289992 117.1019978 112.6310014 116.0739992 116.3099978 112.9330014
 116.0949992 117.8179978 113.0620014 115.7529059 117.0904474 112.7306079
 113.9329992 120.1009978 113.7000014 114.4249992 119.8799978 112.9090014
 114.2949992 120.9409978 113.9810014 114.0492923 120.1843468 113.6297407
 131.9289992 116.4309978 119.9660014 131.0119992 116.7019978 119.9300014
 132.0519992 115.8959978 119.1820014 131.8200828 116.3957700 119.8550785
 114.2469992 116.3589978 107.7540014 113.3219992 116.5669978 107.6250014
 114.7009992 116.8429978 107.0650014 114.1816374 116.4529949 107.6430957
 129.0169992 131.3429978 109.7000014 129.6699992 130.9949978 109.0920014
 129.5279992 131.8309978 110.3460014 129.1752777 131.3613815 109.7042047
 114.2099992 115.0969978 116.0990014 113.5449992 114.8509978 116.7420014
 113.7669992 115.7189978 115.5210014 114.0590937 115.1473614 116.1089379
 116.4019992 128.2719978 120.2430014 115.5809992 128.4469978 119.7830014
 116.1499992 128.1989978 121.1640014 116.2556173 128.2860794 120.3044972
 119.3559992 129.2459978 116.5020014 118.9319992 130.0559978 116.2190014
 120.2609992 129.3319978 116.2000014 119.4202433 129.3683331 116.4225377
 123.6679992 130.6449978 119.4610014 123.8519992 130.3119978 120.3390014
 124.5139992 130.9549978 119.1390014 123.8076484 130.6412979 119.5377617
 126.0129992 131.9309978 118.7050014 126.6899992 131.2979978 118.4650014
 126.3339992 132.3319978 119.5120014 126.1491323 131.8985691 118.7813158
 130.9299992 114.5209978 117.7850014 130.1169992 114.8459978 117.3970014
 131.1629992 113.7599978 117.2520014 130.8502566 114.4626559 117.6599213
 116.7579992 132.5029978 116.5490014 116.0379992 132.9429978 116.0980014
 116.3929992 132.2519978 117.3980014 116.6099796 132.5293824 116.6019329
 119.2249992 132.1029978 115.5790014 118.3609992 132.1749978 115.9830014
 119.1699992 132.6499978 114.7950014 119.0991942 132.1867849 115.5284000
 123.9359992 131.9909978 114.7540014 123.4789992 132.5199978 114.1000014
 124.0989992 132.5939978 115.4800014 123.8954476 132.1449140 114.7625499
 126.2639992 130.8689978 115.6990014 125.3589992 131.0339978 115.4340014
 126.6919992 131.7219978 115.6340014 126.1980700 131.0069529 115.6539520
 128.8679992 132.4389978 115.9940014 128.6859992 133.3549978 115.7840014
 129.0449992 132.0279978 115.1480014 128.8669907 132.5089741 115.8507883
 116.1729992 131.1259978 113.4590014 116.1549992 130.6999978 114.3170014
 116.9779992 130.8069978 113.0510014 116.2793221 131.0247233 113.5210225
 118.3139992 129.8359978 112.1140014 118.0949992 128.9189978 112.2840014
 119.1379992 129.9759978 112.5800014 118.3954702 129.7295511 112.2002527
 120.8509992 130.3059978 112.9630014 121.0639992 129.4179978 112.6760014
 120.9159992 130.2709978 113.9180014 120.8889075 130.1798307 113.0527373
 124.3599992 115.9699978 112.1070014 123.6859992 115.3399978 112.3630014
 124.9239992 115.4859978 111.5040014 124.3440384 115.8183708 112.0605020
 129.5029992 114.0769978 112.2200014 130.1059992 114.6249978 111.7180014
 128.6329992 114.3959978 111.9800014 129.4679190 114.1951041 112.1188679
 131.2299992 115.2159978 110.5530014 131.8409992 114.7019978 110.0270014
 131.6119992 116.0929978 110.5770014 131.3654475 115.2641323 110.4841208
 116.6869992 114.6039978 109.9290014 115.9099992 114.3689978 109.4220014
 117.2169992 113.8069978 109.9380014 116.6523451 114.4641268 109.8608627
 115.5229992 114.4019978 105.7330014 115.9619992 115.0129978 105.1410014
 114.8889992 114.9399978 106.2070014 115.4973859 114.5584064 105.7160305
 121.2659992 114.5299978 109.7430014 122.1399992 114.9189978 109.7130014
 121.1299992 114.3149978 110.6650014 121.3673207 114.5541923 109.8636509
 126.8229992 114.5599978 111.3920014 126.8989992 114.6559978 110.4430014
 126.5479992 113.6529978 111.5210014 126.7962042 114.4504241 111.2793811
 128.1759992 114.5859978 107.0840014 127.4729992 115.2009978 106.8750014
 127.7309992 113.7489978 107.2160014 128.0196292 114.5570085 107.0732439
 115.4239992 130.3499978 106.6310014 114.7389992 130.3119978 105.9630014
 115.4279992 131.2629978 106.9190014 115.3308174 130.4681998 106.5785310
 122.4099992 116.6109978 106.6330014 122.5879992 115.9639978 107.3150014
 122.3559992 117.4449978 107.1000014 122.4271025 116.6350504 106.7896433
 124.2879992 131.5589978 105.0280014 125.1539992 131.9259978 104.8500014
 124.0419992 131.1199978 104.2140014 124.3732097 131.5498525 104.8936019
 130.9969992 131.1219978 107.7070014 130.8029992 130.3739978 107.1420014
 130.9579992 131.8799978 107.1240014 130.9651645 131.1220786 107.5508148
 116.6439992 115.1179978 119.4470014 116.2779992 114.3519978 119.8900014
 117.5569992 115.1469978 119.7340014 116.7173225 115.0171906 119.5463459
 118.6169992 114.4679978 120.9830014 119.5159992 114.1939978 120.7980014
 118.2309992 113.7259978 121.4470014 118.6877237 114.3301508 121.0204710
 127.0389992 113.8009978 121.1650014 127.1149992 113.3749978 122.0190014
 127.9319992 113.8139978 120.8220014 127.1702267 113.7443952 121.2355932
 130.2149992 129.8739978 119.8570014 129.4329992 129.6869978 119.3380014
 130.1429992 130.8029978 120.0750014 130.0980863 129.9740221 119.8153574
 144.6209992 123.7599978 109.8880014 144.7099992 124.7039978 109.7560014
 143.9829992 123.4849978 109.2300014 144.5469062 123.8519812 109.7809641
 143.5539992 123.0149978 113.3070014 143.5159992 122.3689978 114.0120014
 143.2319992 122.5479978 112.5360014 143.5052679 122.8634276 113.2992921
 135.9219992 122.6289978 114.9000014 135.9639992 122.0039978 115.6230014
 136.6249992 123.2529978 115.0820014 136.0227345 122.6277873 115.0235274
 136.8459992 127.0789978 113.4350014 136.4759992 126.2769978 113.0650014
 137.7869992 126.9109978 113.4810014 136.9225984 126.9464638 113.3905603
 133.4559992 120.7389978 108.8280014 133.0079992 121.5849978 108.8090014
 132.8949992 120.1599978 108.3120014 133.3189603 120.7763674 108.7556720
 134.1659992 122.9009978 110.9540014 134.3799992 122.1309978 111.4810014
 134.9039992 122.9909978 110.3500014 134.2949652 122.8078012 110.9445212
 144.3719992 131.0579978 111.8210014 144.9909992 130.3819978 111.5470014
 144.1629992 130.8399978 112.7290014 144.4286232 130.9357938 111.9062517
 141.9429992 125.4469978 113.7130014 142.2469992 124.7609978 113.1190014
 142.6649992 125.5659978 114.3310014 142.0821152 125.3692189 113.7152123
 145.0839992 119.8409978 114.0410014 145.2269992 118.8949978 114.0610014
 144.9779992 120.0479978 113.1120014 145.0892509 119.7394813 113.9182231
 138.2389992 117.9429978 111.3130014 138.2819992 118.8029978 110.8950014
 137.7809992 117.3909978 110.6790014 138.1829815 117.9860621 111.1701197
 134.8589992 120.3399978 112.0750014 135.5129992 119.7899978 112.5070014
 134.8829992 120.0659978 111.1580014 134.9517199 120.2277167 112.0101668
 140.0159992 121.8899978 111.2900014 140.6319992 121.3629978 111.8000014
 139.4289992 121.2499978 110.8870014 140.0209239 121.7314117 111.3052952
 137.0489992 116.8609978 115.3870014 136.8299992 117.3909978 114.6210014
 136.3809992 117.0869978 116.0340014 136.9287001 116.9641154 115.3696064
 144.4179992 126.3609978 108.9310014 144.1229992 126.0379978 108.0800014
 144.0939992 127.2609978 108.9720014 144.3337983 126.4384026 108.8199771
 139.6179992 124.5359978 115.6750014 138.8779992 125.1349978 115.7780014
 140.3319992 125.0899978 115.3590014 139.6133288 124.6927356 115.6463805
 136.6429992 118.7529978 113.3390014 137.2569992 119.3859978 113.7130014
 137.1549992 118.2809978 112.6830014 136.7962277 118.7757352 113.3014279
 138.0259992 126.5009978 116.4620014 138.0199992 127.3799978 116.0840014
 137.1719992 126.4169978 116.8870014 137.9097925 126.6099535 116.4676887
 134.1469992 126.1719978 107.2440014 133.8749992 126.4009978 106.3550014
 134.1919992 127.0089978 107.7040014 134.1158709 126.3166058 107.1846107
 141.0759992 114.1659978 112.8400014 140.9579992 113.2179978 112.7850014
 140.2209992 114.4989978 113.1130014 140.9442679 114.0811926 112.8693720
 143.3419992 123.0039978 107.3400014 142.6309992 123.5389978 106.9880014
 144.0329992 123.0589978 106.6800014 143.3380751 123.0846777 107.2025858
 138.3929992 123.8439978 110.1740014 138.0629992 123.4729978 109.3560014
 138.9819992 123.1729978 110.5210014 138.4273970 123.7026063 110.1089404
 139.7599992 127.2719978 112.8560014 139.6649992 126.6929978 112.0990014
 140.4889992 126.9009978 113.3520014 139.8456161 127.1425891 112.8195209
 138.7599992 122.6119978 113.8080014 139.3249992 122.7339978 113.0450014
 139.0789992 123.2499978 114.4470014 138.8803977 122.7148851 113.7899424
 145.0689992 128.1159978 114.5420014 144.8289992 128.7779978 115.1900014
 144.8709992 127.2809978 114.9670014 145.0093826 128.0938115 114.6881566
 139.6399992 127.0119978 118.5250014 139.3289992 127.7939978 118.9800014
 138.9899992 126.8589978 117.8390014 139.5095538 127.0984087 118.4945898
 136.5599992 123.2099978 117.7540014 136.6299992 123.8609978 118.4520014
 135.6689992 123.3129978 117.4190014 136.4491802 123.3129757 117.8042249
 143.3449992 129.1119978 109.4120014 143.8189992 129.4079978 110.1900014
 142.7819992 129.8509978 109.1790014 143.3337361 129.2522721 109.4868611
 137.8789992 129.0829978 119.2880014 137.8869992 128.9469978 118.3410014
 136.9629992 128.9659978 119.5400014 137.7562528 129.0485463 119.1923243
 137.3839992 122.9129978 107.7640014 137.0919992 123.6809978 107.2730014
 136.7089992 122.2539978 107.6010014 137.2528497 122.9289745 107.6748260
 133.4769992 125.2759978 116.5790014 132.9749992 125.2479978 115.7640014
 133.4819992 124.3709978 116.8880014 133.4090416 125.1497368 116.5093766
 133.2269992 128.0569978 113.4630014 134.1729992 127.9119978 113.4440014
 133.1139992 128.8409978 114.0000014 133.3413578 128.1431697 113.5330317
 142.4029992 128.2969978 118.0210014 142.4909992 129.1229978 118.4960014
 141.5399992 127.9669978 118.2700014 142.2983357 128.3655468 118.1197653
 142.8179992 132.0689978 107.8270014 142.7419992 131.9479978 106.8810014
 142.8499992 133.0179978 107.9460014 142.8119156 132.1807530 107.7135048
 136.4709992 130.8579978 109.6080014 136.6229992 130.5099978 110.4870014
 135.6199992 130.5009978 109.3530014 136.3767899 130.7621738 109.6937340
 135.7259992 126.5999978 117.6220014 135.9419992 126.2379978 118.4810014
 134.8699992 126.2249978 117.4120014 135.6399354 126.4997906 117.7112160
 138.3439992 115.0699978 113.6170014 137.4829992 114.9829978 113.2100014
 138.3219992 115.9259978 114.0450014 138.2230411 115.1737884 113.6190857
 143.0069992 114.7919978 116.9920014 143.4269992 114.3769978 117.7450014
 142.0739992 114.6129978 117.1090014 142.9383736 114.7109910 117.1108968
 138.4349992 120.0349978 114.7120014 137.7939992 119.9949978 115.4210014
 138.4729992 120.9619978 114.4750014 138.3523670 120.1547795 114.7770550
 138.4319992 120.2559978 109.6240014 137.5399992 119.9159978 109.5660014
 138.8829992 119.8789978 108.8690014 138.3706815 120.1583762 109.5139203
 143.9679992 120.6719978 108.4410014 143.5589992 121.4869978 108.1500014
 144.6879992 120.5319978 107.8270014 144.0094013 120.7646571 108.3180875
 143.0699992 120.8479978 119.9290014 142.5069992 120.1429978 120.2500014
 143.8959992 120.7269978 120.3970014 143.1046674 120.7352165 120.0361751
 144.9729992 120.1179978 111.2550014 144.7769992 120.7239978 110.5400014
 145.1539992 119.2849978 110.8210014 144.9706584 120.0882513 111.0984212
 136.1849992 120.3559978 116.5790014 136.1469992 120.7559978 117.4480014
 135.6949992 119.5389978 116.6700014 136.1135621 120.3002510 116.7101377
 132.7939992 117.4719978 110.4300014 133.4239992 117.4429978 111.1490014
 133.2429992 117.0469978 109.7000014 132.9410692 117.4105316 110.4297771
 134.0679992 118.2179978 105.8540014 134.5419992 118.8089978 105.2690014
 133.3499992 118.7479978 106.2010014 134.0358640 118.3705511 105.8207969
 144.2369992 121.7559978 115.9270014 144.5599992 121.1249978 115.2840014
 143.7959992 121.2219978 116.5870014 144.2215789 121.5973522 115.9282232
 141.0139992 117.6839978 110.7110014 140.1029992 117.7409978 110.9990014
 141.5189992 117.6239978 111.5210014 140.9575387 117.6836870 110.8600646
 135.8419992 119.3129978 109.5370014 134.9529992 119.4119978 109.1970014
 136.1389992 118.4709978 109.1910014 135.7604177 119.2127687 109.4436940
 139.4949992 119.3129978 107.1940014 140.4269992 119.4419978 107.3720014
 139.2799992 119.9819978 106.5440014 139.5934472 119.4210806 107.1304891
 145.4189992 116.9189978 113.9750014 144.7419992 117.0499978 114.6390014
 144.9339992 116.7639978 113.1650014 145.2607265 116.9159659 113.9563397
 138.1689992 120.5069978 104.7610014 137.6269992 120.1279978 104.0690014
 139.0029992 120.7019978 104.3320014 138.2075159 120.4815076 104.6084419
 136.3049992 125.0639978 119.8600014 137.0369992 125.3189978 120.4210014
 135.5239992 125.2689978 120.3750014 136.2997684 125.1266468 120.0064782
 142.3339992 120.4709978 112.5980014 142.8979992 119.9249978 112.0510014
 142.1859992 119.9499978 113.3860014 142.3912575 120.3256552 112.6296987
 137.3359992 116.6079978 109.0160014 137.0189992 115.7049978 108.9810014
 138.1169992 116.6099978 108.4630014 137.3982307 116.4846951 108.9364314
 140.9599992 118.8599978 115.0120014 140.1249992 119.3139978 115.1220014
 141.4839992 119.1359978 115.7640014 140.9165070 118.9594666 115.1287152
 141.5049992 125.0729978 106.6960014 140.7599992 124.5649978 106.3740014
 141.3699992 125.1219978 107.6430014 141.3849047 125.0101596 106.7798845
 145.4019992 117.8869978 104.8960014 144.4639992 117.9979978 104.7440014
 145.6999992 118.7429978 105.2020014 145.3136402 118.0180621 104.9165571
 143.0239992 125.2569978 117.9330014 142.6779992 124.8749978 118.7400014
 142.8239992 126.1899978 118.0050014 142.9496523 125.3309095 118.0530735
 136.6289992 124.3679978 112.4660014 137.3739992 124.3649978 111.8650014
 136.7069992 123.5439978 112.9480014 136.7414158 124.2562916 112.4489153
 143.6299992 126.5309978 105.7220014 143.3349992 127.3579978 106.1030014
 142.9269992 125.9119978 105.9180014 143.4945471 126.5605227 105.8006698
 133.6369992 122.8279978 117.7810014 133.8599992 122.4099978 118.6130014
 133.0349992 122.2159978 117.3580014 133.5861260 122.6879933 117.8377320
 140.6539992 122.3449978 119.9940014 140.3579992 122.1799978 119.0990014
 141.5849992 122.1249978 119.9830014 140.7393982 122.2926578 119.8700045
 145.2739992 127.7189978 117.8840014 144.3739992 127.9019978 117.6160014
 145.3079992 127.9779978 118.8050014 145.1552909 127.7790815 117.9717852
 139.0039992 127.8859978 109.8700014 139.5319992 128.6589978 109.6700014
 138.1239992 128.1099978 109.5690014 138.9573176 128.0223161 109.8018409
 140.4319992 125.5489978 109.4470014 140.1909992 126.4739978 109.4880014
 139.6909992 125.0899978 109.8430014 140.2988390 125.6136403 109.5061404
 140.9459992 129.6979978 115.7620014 141.3089992 130.5519978 115.5280014
 141.4779992 129.4059978 116.5020014 141.0676090 129.7754058 115.8300219
 139.1149992 130.5699978 108.9920014 138.1649992 130.6759978 109.0430014
 139.4669992 131.3909978 109.3370014 139.0325480 130.6954438 109.0455999
 144.4899992 125.7969978 115.4620014 144.0649992 125.5689978 116.2890014
 145.0709992 125.0579978 115.2800014 144.5103930 125.6659843 115.5504732
 135.2709992 117.5819978 117.3390014 134.3789992 117.9199978 117.2720014
 135.1729992 116.7259978 117.7570014 135.1354965 117.5126499 117.3863044
 134.9229992 129.3859978 115.7740014 135.1399992 128.4539978 115.7430014
 135.1689992 129.6609978 116.6570014 134.9859809 129.2955686 115.8891691
 139.7209992 127.4079978 105.4400014 139.8679992 126.8879978 106.2300014
 139.7179992 128.3149978 105.7460014 139.7407300 127.4593964 105.5895895
 144.0059992 117.3229978 116.2290014 144.7049992 117.3969978 116.8790014
 143.6249992 116.4579978 116.3830014 144.0502097 117.2162389 116.3387997
 144.7899992 116.9749978 107.3260014 145.0099992 117.4459978 106.5230014
 145.3489992 117.3689978 107.9960014 144.8956730 117.0927432 107.3065906
 142.4589992 129.1049978 106.1890014 141.6419992 129.6019978 106.2410014
 142.9879992 129.5809978 105.5490014 142.4188508 129.2372543 106.1096035
 141.9899992 118.7029978 108.1610014 142.8019992 119.2069978 108.2070014
 141.7459992 118.5579978 109.0750014 142.0681467 118.7523749 108.2908575
 142.5259992 119.6889978 117.3460014 142.6449992 120.2629978 118.1030014
 143.1809992 119.0009978 117.4600014 142.6309146 119.6745574 117.4651314
 142.8739992 115.7839978 109.0990014 142.5269992 116.4009978 109.7440014
 143.5329992 116.2849978 108.6180014 142.9155949 115.9361099 109.1222271
 139.7969992 130.1489978 106.1710014 139.9579992 130.9489978 105.6700014
 139.5999992 130.4559978 107.0560014 139.7923919 130.2999129 106.2221006
 135.9139992 114.7199978 112.6360014 135.6849992 114.7789978 111.7080014
 135.4719992 113.9289978 112.9420014 135.8228801 114.6210540 112.5504729
 134.8449992 128.6609978 108.7960014 134.0119992 129.1329978 108.8240014
 135.3899992 129.1709978 108.1980014 134.8047590 128.7945897 108.7189194
 134.1329992 131.2729978 120.1260014 134.6729992 131.0569978 120.8860014
 133.6519992 130.4679978 119.9370014 134.1418613 131.1345400 120.2044782
 138.7299992 130.1929978 121.7470014 139.4979992 129.7339978 122.0880014
 138.7089992 129.9669978 120.8170014 138.8322135 130.0996668 121.6679491
 142.8219992 129.7009978 103.1220014 142.1779992 129.0699978 103.4430014
 143.5839992 129.1699978 102.8900014 142.8368058 129.5427902 103.1346038
 145.3069992 128.5729978 120.4760014 144.9559992 127.7159978 120.7190014
 146.0329992 128.7149978 121.0830014 145.3571590 128.4750178 120.5912907
 134.0399992 125.0839978 121.0810014 134.1839992 124.1819978 120.7940014
 133.2679992 125.3699978 120.5930014 133.9553303 124.9993243 120.9757908
 140.6949992 125.0529978 120.5130014 140.3669992 125.3239978 119.6560014
 140.8469992 124.1119978 120.4260014 140.6706030 124.9628973 120.3837945
 143.7339992 126.4739978 102.9490014 143.4649992 126.6549978 103.8500014
 143.5269992 125.5489978 102.8180014 143.6692000 126.3736774 103.0545693
 134.8729992 122.2839978 120.5010014 135.2809992 121.4269978 120.3800014
 134.6119992 122.2979978 121.4220014 134.8936016 122.1685119 120.6089192
 139.5309992 123.3999978 105.5190014 139.0709992 122.9159978 106.2050014
 139.7859992 122.7309978 104.8830014 139.5025038 123.2433689 105.5269447
 138.8199992 121.2929978 117.8750014 138.2009992 121.9669978 118.1550014
 139.1639992 121.6139978 117.0420014 138.7817605 121.4287198 117.8006707
 143.8389992 123.7639978 121.1520014 144.7929992 123.8479978 121.1250014
 143.6789992 123.0519978 121.7720014 143.9477182 123.6792842 121.2320733
 139.1589992 118.6479978 118.9570014 139.3089992 117.9189978 118.3550014
 139.1609992 119.4249978 118.3980014 139.1797967 118.6532708 118.7990541
 139.5719992 117.0169978 116.4500014 140.1069992 117.4689978 115.7980014
 138.7189992 116.9089978 116.0270014 139.5300374 117.0642665 116.3036710
 141.1529992 122.4569978 116.6890014 141.9039992 122.3009978 116.1160014
 140.8139992 123.3089978 116.4140014 141.2099587 122.5508138 116.5734078
 145.5689992 120.2719978 121.7180014 145.7609992 119.3409978 121.6060014
 146.4269992 120.6969978 121.7080014 145.7112269 120.2019928 121.7013192
 137.6379992 119.8459978 120.8690014 136.8699992 119.3129978 120.6590014
 138.3159992 119.5359978 120.2690014 137.6246973 119.7312375 120.7591796
 140.3769992 114.4739978 116.8810014 140.2789992 115.4199978 116.7760014
 139.6349992 114.1009978 116.4060014 140.2631913 114.5531813 116.8023539
 141.6409992 118.7949978 120.4450014 141.4059992 118.5759978 121.3470014
 140.8579992 118.5879978 119.9350014 141.5029219 118.7370066 120.4995852
 144.3569992 117.9229978 119.5210014 143.4089992 117.9549978 119.6530014
 144.6689992 117.2969978 120.1740014 144.2695190 117.8427262 119.6273563
 135.8179992 117.7659978 120.5730014 136.0299992 117.0599978 119.9630014
 135.7069992 117.3289978 121.4170014 135.8320269 117.6101921 120.6035873
 140.5989992 113.7679978 119.5530014 141.3109992 113.1279978 119.5390014
 140.4979992 114.0339978 118.6390014 140.6827261 113.7164190 119.4275537
 140.9529992 115.4499978 121.6060014 140.8209992 114.9749978 120.7860014
 140.3529992 116.1949978 121.5510014 140.8539070 115.4855789 121.4863251
 132.7159992 132.3629978 109.3430014 132.0689992 131.9009978 108.8100014
 133.0709992 131.6909978 109.9250014 132.6754506 132.2089503 109.3487341
 133.5859992 130.4429978 111.1470014 133.2519992 129.5629978 111.3190014
 133.8089992 130.7889978 112.0120014 133.5703721 130.3691938 111.2874168
 133.6659992 123.5189978 113.5990014 133.8509992 123.4369978 112.6630014
 134.5159992 123.3949978 114.0230014 133.8060916 123.4910393 113.5282896
 133.2639992 118.7889978 119.7400014 134.1829992 118.6669978 119.9760014
 132.8139992 118.0389978 120.1290014 133.3291148 118.6708751 119.8249408
 134.4849992 117.1019978 112.6310014 134.9299992 116.3099978 112.9330014
 134.9509992 117.8179978 113.0620014 134.6089059 117.0904474 112.7306079
 132.7889992 120.1009978 113.7000014 133.2809992 119.8799978 112.9090014
 133.1509992 120.9409978 113.9810014 132.9052923 120.1843468 113.6297407
 133.1029992 116.3589978 107.7540014 132.1779992 116.5669978 107.6250014
 133.5569992 116.8429978 107.0650014 133.0376374 116.4529949 107.6430957
 133.0659992 115.0969978 116.0990014 132.4009992 114.8509978 116.7420014
 132.6229992 115.7189978 115.5210014 132.9150937 115.1473614 116.1089379
 135.2579992 128.2719978 120.2430014 134.4369992 128.4469978 119.7830014
 135.0059992 128.1989978 121.1640014 135.1116173 128.2860794 120.3044972
 138.2119992 129.2459978 116.5020014 137.7879992 130.0559978 116.2190014
 139.1169992 129.3319978 116.2000014 138.2762433 129.3683331 116.4225377
 142.5239992 130.6449978 119.4610014 142.7079992 130.3119978 120.3390014
 143.3699992 130.9549978 119.1390014 142.6636484 130.6412979 119.5377617
 144.8689992 131.9309978 118.7050014 145.5459992 131.2979978 118.4650014
 145.1899992 132.3319978 119.5120014 145.0051323 131.8985691 118.7813158
 135.6139992 132.5029978 116.5490014 134.8939992 132.9429978 116.0980014
 135.2489992 132.2519978 117.3980014 135.4659796 132.5293824 116.6019329
 138.0809992 132.1029978 115.5790014 137.2169992 132.1749978 115.9830014
 138.0259992 132.6499978 114.7950014 137.9551942 132.1867849 115.5284000
 142.7919992 131.9909978 114.7540014 142.3349992 132.5199978 114.1000014
 142.9549992 132.5939978 115.4800014 142.7514476 132.1449140 114.7625499
 145.1199992 130.8689978 115.6990014 144.2149992 131.0339978 115.4340014
 145.5479992 131.7219978 115.6340014 145.0540700 131.0069529 115.6539520
 135.0289992 131.1259978 113.4590014 135.0109992 130.6999978 114.3170014
 135.8339992 130.8069978 113.0510014 135.1353221 131.0247233 113.5210225
 137.1699992 129.8359978 112.1140014 136.9509992 128.9189978 112.2840014
 137.9939992 129.9759978 112.5800014 137.2514702 129.7295511 112.2002527
 139.7069992 130.3059978 112.9630014 139.9199992 129.4179978 112.6760014
 139.7719992 130.2709978 113.9180014 139.7449075 130.1798307 113.0527373
 143.2159992 115.9699978 112.1070014 142.5419992 115.3399978 112.3630014
 143.7799992 115.4859978 111.5040014 143.2000384 115.8183708 112.0605020
 135.5429992 114.6039978 109.9290014 134.7659992 114.3689978 109.4220014
 136.0729992 113.8069978 109.9380014 135.5083451 114.4641268 109.8608627
 140.1219992 114.5299978 109.7430014 140.9959992 114.9189978 109.7130014
 139.9859992 114.3149978 110.6650014 140.2233207 114.5541923 109.8636509
 134.2799992 130.3499978 106.6310014 133.5949992 130.3119978 105.9630014
 134.2839992 131.2629978 106.9190014 134.1868174 130.4681998 106.5785310
 135.4999992 115.1179978 119.4470014 135.1339992 114.3519978 119.8900014
 136.4129992 115.1469978 119.7340014 135.5733225 115.0171906 119.5463459
 137.4729992 114.4679978 120.9830014 138.3719992 114.1939978 120.7980014
 137.0869992 113.7259978 121.4470014 137.5437237 114.3301508 121.0204710
  12.6289992 142.6159978 109.8880014  12.7179992 143.5599978 109.7560014
  11.9909992 142.3409978 109.2300014  12.5549062 142.7079812 109.7809641
  11.5619992 141.8709978 113.3070014  11.5239992 141.2249978 114.0120014
  11.2399992 141.4039978 112.5360014  11.5132679 141.7194276 113.2992921
   3.9299992 141.4849978 114.9000014   3.9719992 140.8599978 115.6230014
   4.6329992 142.1089978 115.0820014   4.0307345 141.4837873 115.0235274
  15.2679992 144.8099978 111.6090014  14.8269992 144.0899978 112.0590014
  15.2549992 145.5309978 112.2380014  15.2057960 144.8088329 111.7557567
   1.4639992 139.5949978 108.8280014   1.0159992 140.4409978 108.8090014
   0.9029992 139.0159978 108.3120014   1.3269603 139.6323674 108.7556720
   2.1739992 141.7569978 110.9540014   2.3879992 140.9869978 111.4810014
   2.9119992 141.8469978 110.3500014   2.3029652 141.6638012 110.9445212
   9.9509992 144.3029978 113.7130014  10.2549992 143.6169978 113.1190014
  10.6729992 144.4219978 114.3310014  10.0901152 144.2252189 113.7152123
  18.6139992 135.9049978 114.5740014  18.6639992 136.5149978 115.3100014
  19.0399992 136.3659978 113.8510014  18.6784108 136.0507709 114.5770112
  13.0919992 138.6969978 114.0410014  13.2349992 137.7509978 114.0610014
  12.9859992 138.9039978 113.1120014  13.0972509 138.5954813 113.9182231
   6.2469992 136.7989978 111.3130014   6.2899992 137.6589978 110.8950014
   5.7889992 136.2469978 110.6790014   6.1909815 136.8420621 111.1701197
  13.9689992 136.9299978 109.7140014  14.6159992 136.6009978 110.3390014
  14.4789992 137.4469978 109.0910014  14.1264317 136.9549227 109.7152167
   2.8669992 139.1959978 112.0750014   3.5209992 138.6459978 112.5070014
   2.8909992 138.9219978 111.1580014   2.9597199 139.0837167 112.0101668
   8.0239992 140.7459978 111.2900014   8.6399992 140.2189978 111.8000014
   7.4369992 140.1059978 110.8870014   8.0289239 140.5874117 111.3052952
  19.0059992 137.3829978 116.8100014  18.3169992 138.0409978 116.7140014
  19.0209992 137.1849978 117.7460014  18.9136741 137.4463243 116.9234630
   5.0569992 135.7169978 115.3870014   4.8379992 136.2469978 114.6210014
   4.3889992 135.9429978 116.0340014   4.9367001 135.8201154 115.3696064
  12.4259992 145.2169978 108.9310014  12.1309992 144.8939978 108.0800014
  12.1019992 146.1169978 108.9720014  12.3417983 145.2944026 108.8199771
   7.6259992 143.3919978 115.6750014   6.8859992 143.9909978 115.7780014
   8.3399992 143.9459978 115.3590014   7.6213288 143.5487356 115.6463805
  15.7329992 136.2209978 111.6940014  15.5179992 135.4549978 112.2270014
  16.3889992 136.6929978 112.2070014  15.7922673 136.1800728 111.8361990
   4.6509992 137.6089978 113.3390014   5.2649992 138.2419978 113.7130014
   5.1629992 137.1369978 112.6830014   4.8042277 137.6317352 113.3014279
   6.0339992 145.3569978 116.4620014   6.0279992 146.2359978 116.0840014
   5.1799992 145.2729978 116.8870014   5.9177925 145.4659535 116.4676887
   2.1549992 145.0279978 107.2440014   1.8829992 145.2569978 106.3550014
   2.1999992 145.8649978 107.7040014   2.1238709 145.1726058 107.1846107
  16.0799992 134.9359978 115.3740014  15.3439992 135.5459978 115.3360014
  16.7639992 135.3509978 114.8470014  16.0715506 135.0756400 115.2976051
   9.0839992 133.0219978 112.8400014   8.9659992 132.0739978 112.7850014
   8.2289992 133.3549978 113.1130014   8.9522679 132.9371926 112.8693720
  16.8779992 144.8979978 117.5680014  17.0169992 144.3059978 116.8280014
  17.0449992 145.7709978 117.2110014  16.9195562 144.9349896 117.4186283
  11.3499992 141.8599978 107.3400014  10.6389992 142.3949978 106.9880014
  12.0409992 141.9149978 106.6800014  11.3460751 141.9406777 107.2025858
  11.4039992 140.3169978 104.3790014  12.1049992 140.3399978 105.0300014
  11.7059992 139.6889978 103.7230014  11.5408282 140.2352339 104.3794496
  18.7189992 141.2379978 115.6340014  18.0669992 141.9319978 115.7230014
  19.1849992 141.4479978 114.8240014  18.6925937 141.3615019 115.5367533
  14.7559992 142.0689978 108.2920014  14.0239992 142.2979978 108.8650014
  15.2029992 141.3559978 108.7470014  14.7162753 142.0038972 108.4319715
  14.6529992 140.2439978 117.3600014  14.7329992 141.0069978 117.9310014
  14.0519992 140.5229978 116.6690014  14.5827245 140.3862630 117.3448424
   6.4009992 142.6999978 110.1740014   6.0709992 142.3289978 109.3560014
   6.9899992 142.0289978 110.5210014   6.4353970 142.5586063 110.1089404
   6.7679992 141.4679978 113.8080014   7.3329992 141.5899978 113.0450014
   7.0869992 142.1059978 114.4470014   6.8883977 141.5708851 113.7899424
  13.6269992 141.2319978 105.9770014  14.2059992 141.3819978 106.7240014
  14.0409992 141.7019978 105.2540014  13.7623122 141.3161277 105.9815042
   4.5679992 142.0659978 117.7540014   4.6379992 142.7169978 118.4520014
   3.6769992 142.1689978 117.4190014   4.4571802 142.1689757 117.8042249
  17.3259992 132.9819978 105.7900014  16.4259992 133.1209978 106.0850014
  17.5779992 133.8129978 105.3880014  17.2368683 133.1134055 105.7760232
   5.3919992 141.7689978 107.7640014   5.0999992 142.5369978 107.2730014
   4.7169992 141.1099978 107.6010014   5.2608497 141.7849745 107.6748260
   1.4849992 144.1319978 116.5790014   0.9829992 144.1039978 115.7640014
   1.4899992 143.2269978 116.8880014   1.4170416 144.0057368 116.5093766
  16.5849992 139.0719978 119.6250014  16.1769992 139.5519978 118.9050014
  16.6249992 138.1659978 119.3170014  16.5345476 139.0153160 119.4848247
   3.7339992 145.4559978 117.6220014   3.9499992 145.0939978 118.4810014
   2.8779992 145.0809978 117.4120014   3.6479354 145.3557906 117.7112160
   6.3519992 133.9259978 113.6170014   5.4909992 133.8389978 113.2100014
   6.3299992 134.7819978 114.0450014   6.2310411 134.0297884 113.6190857
  11.0149992 133.6479978 116.9920014  11.4349992 133.2329978 117.7450014
  10.0819992 133.4689978 117.1090014  10.9463736 133.5669910 117.1108968
  14.3419992 137.4029978 117.8450014  13.8279992 137.2779978 118.6430014
  14.1859992 138.3159978 117.6010014  14.2506967 137.5092123 117.9210937
  15.1039992 142.2639978 103.6070014  15.1459992 142.0419978 102.6770014
  15.9529992 142.6629978 103.7970014  15.2245253 142.2875498 103.5053822
  10.6769992 136.1399978 104.2770014  10.4229992 136.1589978 105.2000014
  10.4199992 135.2689978 103.9760014  10.6075133 136.0248110 104.3625082
   6.4429992 138.8909978 114.7120014   5.8019992 138.8509978 115.4210014
   6.4809992 139.8179978 114.4750014   6.3603670 139.0107795 114.7770550
   6.4399992 139.1119978 109.6240014   5.5479992 138.7719978 109.5660014
   6.8909992 138.7349978 108.8690014   6.3786815 139.0143762 109.5139203
  11.9759992 139.5279978 108.4410014  11.5669992 140.3429978 108.1500014
  12.6959992 139.3879978 107.8270014  12.0174013 139.6206571 108.3180875
  11.0779992 139.7039978 119.9290014  10.5149992 138.9989978 120.2500014
  11.9039992 139.5829978 120.3970014  11.1126674 139.5912165 120.0361751
  12.9809992 138.9739978 111.2550014  12.7849992 139.5799978 110.5400014
  13.1619992 138.1409978 110.8210014  12.9786584 138.9442513 111.0984212
   4.1929992 139.2119978 116.5790014   4.1549992 139.6119978 117.4480014
   3.7029992 138.3949978 116.6700014   4.1215621 139.1562510 116.7101377
   0.8019992 136.3279978 110.4300014   1.4319992 136.2989978 111.1490014
   1.2509992 135.9029978 109.7000014   0.9490692 136.2665316 110.4297771
   2.0759992 137.0739978 105.8540014   2.5499992 137.6649978 105.2690014
   1.3579992 137.6039978 106.2010014   2.0438640 137.2265511 105.8207969
  12.2449992 140.6119978 115.9270014  12.5679992 139.9809978 115.2840014
  11.8039992 140.0779978 116.5870014  12.2295789 140.4533522 115.9282232
   9.0219992 136.5399978 110.7110014   8.1109992 136.5969978 110.9990014
   9.5269992 136.4799978 111.5210014   8.9655387 136.5396870 110.8600646
   3.8499992 138.1689978 109.5370014   2.9609992 138.2679978 109.1970014
   4.1469992 137.3269978 109.1910014   3.7684177 138.0687687 109.4436940
  13.4269992 135.7749978 113.9750014  12.7499992 135.9059978 114.6390014
  12.9419992 135.6199978 113.1650014  13.2687265 135.7719659 113.9563397
   4.3129992 143.9199978 119.8600014   5.0449992 144.1749978 120.4210014
   3.5319992 144.1249978 120.3750014   4.3077684 143.9826468 120.0064782
  10.3419992 139.3269978 112.5980014  10.9059992 138.7809978 112.0510014
  10.1939992 138.8059978 113.3860014  10.3992575 139.1816552 112.6296987
   5.3439992 135.4639978 109.0160014   5.0269992 134.5609978 108.9810014
   6.1249992 135.4659978 108.4630014   5.4062307 135.3406951 108.9364314
   8.9679992 137.7159978 115.0120014   8.1329992 138.1699978 115.1220014
   9.4919992 137.9919978 115.7640014   8.9245070 137.8154666 115.1287152
  16.6629992 143.0619978 115.4830014  17.3039992 143.5179978 114.9390014
  15.8319992 143.1749978 115.0210014  16.6385171 143.1397502 115.3460237
  13.4099992 136.7429978 104.8960014  12.4719992 136.8539978 104.7440014
  13.7079992 137.5989978 105.2020014  13.3216402 136.8740621 104.9165571
  11.0319992 144.1129978 117.9330014  10.6859992 143.7309978 118.7400014
  10.8319992 145.0459978 118.0050014  10.9576523 144.1869095 118.0530735
  14.1289992 138.6099978 106.5560014  15.0209992 138.4719978 106.8750014
  14.1849992 139.4009978 106.0200014  14.2587107 138.6980526 106.5272091
   4.6369992 143.2239978 112.4660014   5.3819992 143.2209978 111.8650014
   4.7149992 142.3999978 112.9480014   4.7494158 143.1122916 112.4489153
   1.6449992 141.6839978 117.7810014   1.8679992 141.2659978 118.6130014
   1.0429992 141.0719978 117.3580014   1.5941260 141.5439933 117.8377320
   8.6619992 141.2009978 119.9940014   8.3659992 141.0359978 119.0990014
   9.5929992 140.9809978 119.9830014   8.7473982 141.1486578 119.8700045
  19.0139992 138.8189978 106.2510014  18.4589992 138.4229978 105.5790014
  19.1139992 139.7299978 105.9730014  18.9515888 138.8878990 106.1215206
  18.9769992 144.6199978 119.0880014  18.1259992 144.8579978 118.7210014
  19.5669992 144.6029978 118.3350014  18.9402408 144.6502966 118.9358879
  14.4689992 142.4129978 113.7370014  13.5409992 142.1819978 113.7100014
  14.9199992 141.6359978 113.4070014  14.4028165 142.2762774 113.6886790
   2.7669992 141.6039978 104.4580014   3.3829992 142.2309978 104.8370014
   1.9049992 141.9199978 104.7290014   2.7348195 141.7325798 104.5465386
   8.4399992 144.4049978 109.4470014   8.1989992 145.3299978 109.4880014
   7.6989992 143.9459978 109.8430014   8.3068390 144.4696403 109.5061404
  12.4979992 144.6529978 115.4620014  12.0729992 144.4249978 116.2890014
  13.0789992 143.9139978 115.2800014  12.5183930 144.5219843 115.5504732
   3.2789992 136.4379978 117.3390014   2.3869992 136.7759978 117.2720014
   3.1809992 135.5819978 117.7570014   3.1434965 136.3686499 117.3863044
  15.5669992 144.2539978 106.7630014  15.2899992 143.5259978 107.3190014
  16.4949992 144.3729978 106.9680014  15.6544499 144.1704213 106.8668044
   4.1819992 143.5159978 105.9500014   3.4959992 143.8689978 106.5170014
   4.7049992 144.2789978 105.7040014   4.1589033 143.6673746 105.9942661
  12.0139992 136.1789978 116.2290014  12.7129992 136.2529978 116.8790014
  11.6329992 135.3139978 116.3830014  12.0582097 136.0722389 116.3387997
  12.7979992 135.8309978 107.3260014  13.0179992 136.3019978 106.5230014
  13.3569992 136.2249978 107.9960014  12.9036730 135.9487432 107.3065906
   9.9979992 137.5589978 108.1610014  10.8099992 138.0629978 108.2070014
   9.7539992 137.4139978 109.0750014  10.0761467 137.6083749 108.2908575
  10.5339992 138.5449978 117.3460014  10.6529992 139.1189978 118.1030014
  11.1889992 137.8569978 117.4600014  10.6389146 138.5305574 117.4651314
  10.8819992 134.6399978 109.0990014  10.5349992 135.2569978 109.7440014
  11.5409992 135.1409978 108.6180014  10.9235949 134.7921099 109.1222271
  16.7379992 136.4519978 118.1810014  15.8219992 136.7139978 118.0930014
  17.0739992 136.4489978 117.2840014  16.6579789 136.4874626 118.0477847
  15.3409992 140.2019978 112.2760014  14.5429992 139.7869978 111.9480014
  15.7859992 139.5119978 112.7670014  15.2919684 140.0518628 112.2975227
   3.9219992 133.5759978 112.6360014   3.6929992 133.6349978 111.7080014
   3.4799992 132.7849978 112.9420014   3.8308801 133.4770540 112.5504729
   2.0479992 143.9399978 121.0810014   2.1919992 143.0379978 120.7940014
   1.2759992 144.2259978 120.5930014   1.9633303 143.8553243 120.9757908
   6.3889992 144.2829978 103.2130014   6.4539992 143.4889978 103.7440014
   7.0419992 144.1649978 102.5230014   6.4861754 144.1583337 103.1924259
   8.7029992 143.9089978 120.5130014   8.3749992 144.1799978 119.6560014
   8.8549992 142.9679978 120.4260014   8.6786030 143.8188973 120.3837945
  14.4379992 143.8249978 117.8970014  15.1829992 144.4139978 117.7770014
  13.6809992 144.4069978 117.9600014  14.4375205 143.9841997 117.8891119
   2.8809992 141.1399978 120.5010014   3.2889992 140.2829978 120.3800014
   2.6199992 141.1539978 121.4220014   2.9016016 141.0245119 120.6089192
   7.5389992 142.2559978 105.5190014   7.0789992 141.7719978 106.2050014
   7.7939992 141.5869978 104.8830014   7.5105038 142.0993689 105.5269447
   6.8279992 140.1489978 117.8750014   6.2089992 140.8229978 118.1550014
   7.1719992 140.4699978 117.0420014   6.7897605 140.2847198 117.8006707
  11.8469992 142.6199978 121.1520014  12.8009992 142.7039978 121.1250014
  11.6869992 141.9079978 121.7720014  11.9557182 142.5352842 121.2320733
   7.1669992 137.5039978 118.9570014   7.3169992 136.7749978 118.3550014
   7.1689992 138.2809978 118.3980014   7.1877967 137.5092708 118.7990541
   7.5799992 135.8729978 116.4500014   8.1149992 136.3249978 115.7980014
   6.7269992 135.7649978 116.0270014   7.5380374 135.9202665 116.3036710
   9.1609992 141.3129978 116.6890014   9.9119992 141.1569978 116.1160014
   8.8219992 142.1649978 116.4140014   9.2179587 141.4068138 116.5734078
  13.5769992 139.1279978 121.7180014  13.7689992 138.1969978 121.6060014
  14.4349992 139.5529978 121.7080014  13.7192269 139.0579928 121.7013192
  14.8939992 141.9169978 119.7950014  14.6119992 142.6259978 119.2180014
  15.8359992 141.8439978 119.6440014  14.9827656 142.0043128 119.6954809
   5.6459992 138.7019978 120.8690014   4.8779992 138.1689978 120.6590014
   6.3239992 138.3919978 120.2690014   5.6326973 138.5872375 120.7591796
   8.3849992 133.3299978 116.8810014   8.2869992 134.2759978 116.7760014
   7.6429992 132.9569978 116.4060014   8.2711913 133.4091813 116.8023539
   9.6489992 137.6509978 120.4450014   9.4139992 137.4319978 121.3470014
   8.8659992 137.4439978 119.9350014   9.5109219 137.5930066 120.4995852
  12.3649992 136.7789978 119.5210014  11.4169992 136.8109978 119.6530014
  12.6769992 136.1529978 120.1740014  12.2775190 136.6987262 119.6273564
  13.9989992 135.4129978 121.5260014  13.9019992 134.4609978 121.5200014
  13.6769992 135.6809978 122.3860014  13.9421761 135.3189744 121.6414936
   3.8259992 136.6219978 120.5730014   4.0379992 135.9159978 119.9630014
   3.7149992 136.1849978 121.4170014   3.8400269 136.4661921 120.6035873
   8.6069992 132.6239978 119.5530014   9.3189992 131.9839978 119.5390014
   8.5059992 132.8899978 118.6390014   8.6907261 132.5724190 119.4275537
   8.9609992 134.3059978 121.6060014   8.8289992 133.8309978 120.7860014
   8.3609992 135.0509978 121.5510014   8.8619070 134.3415789 121.4863251
  17.1569992 145.4659978 121.6880014  16.2909992 145.3609978 122.0820014
  17.5329992 146.2239978 122.1340014  17.0893401 145.5541708 121.8022620
  18.4579992 143.7219978 107.2020014  19.3079992 144.1429978 107.3290014
  18.4629992 142.9819978 107.8090014  18.5751143 143.6796094 107.3014750
  18.8519992 141.7759978 109.0260014  18.1259992 141.2959978 109.4230014
  19.4339992 141.9809978 109.7580014  18.8311635 141.7379166 109.1793748
  18.6109992 144.5609978 113.9730014  19.4449992 144.1829978 113.6930014
  18.7229992 145.5039978 113.8540014  18.7402522 144.6367742 113.9186020
  17.4699992 138.9159978 103.9680014  17.5659992 139.5829978 103.2880014
  17.3299992 138.1009978 103.4860014  17.4642063 138.8970667 103.8098377
  16.6389992 140.2969978 109.5890014  16.4889992 139.3519978 109.5680014
  16.2849992 140.5779978 110.4320014  16.5705527 140.2055605 109.7001859
   1.6739992 142.3749978 113.5990014   1.8589992 142.2929978 112.6630014
   2.5239992 142.2509978 114.0230014   1.8140916 142.3470393 113.5282896
  17.4949992 142.2669978 119.2270014  18.0779992 141.5319978 119.4190014
  18.0589992 143.0389978 119.2740014  17.6509781 142.2708145 119.2596164
  18.9919992 140.1699978 119.9120014  18.1289992 139.7909978 119.7460014
  19.5959992 139.4309978 119.8380014  18.9555944 140.0182978 119.8792984
  16.7169992 136.3239978 103.0850014  17.3279992 135.9529978 103.7220014
  15.8799992 135.9029978 103.2810014  16.6874947 136.2162756 103.1987252
  16.3499992 137.8789978 108.0510014  16.6289992 136.9719978 108.1750014
  17.1089992 138.3129978 107.6620014  16.4908619 137.8134502 108.0153795
  16.9609992 138.4609978 113.4870014  17.8939992 138.6729978 113.4530014
  16.7259992 138.5619978 114.4090014  17.0568308 138.5036503 113.6070214
  16.9909992 139.1979978 116.2630014  16.1479992 139.4659978 116.6290014
  17.4329992 140.0199978 116.0520014  16.9354138 139.3458273 116.2845518
   1.2719992 137.6449978 119.7400014   2.1909992 137.5229978 119.9760014
   0.8219992 136.8949978 120.1290014   1.3371148 137.5268751 119.8249408
  19.2739992 133.1779978 121.6160014  19.6229992 132.5239978 121.0110014
  19.4209992 134.0149978 121.1770014  19.3417355 133.2016067 121.4736564
  16.9629992 135.1419978 108.0990014  17.1449992 134.6929978 108.9250014
  16.3629992 134.5579978 107.6360014  16.9067529 135.0016131 108.1493619
   2.4929992 135.9579978 112.6310014   2.9379992 135.1659978 112.9330014
   2.9589992 136.6739978 113.0620014   2.6169059 135.9464474 112.7306079
   0.7969992 138.9569978 113.7000014   1.2889992 138.7359978 112.9090014
   1.1589992 139.7969978 113.9810014   0.9132923 139.0403468 113.6297407
  18.7929992 135.2869978 119.9660014  17.8759992 135.5579978 119.9300014
  18.9159992 134.7519978 119.1820014  18.6840828 135.2517700 119.8550785
   1.1109992 135.2149978 107.7540014   0.1859992 135.4229978 107.6250014
   1.5649992 135.6989978 107.0650014   1.0456374 135.3089949 107.6430957
   1.0739992 133.9529978 116.0990014   0.4089992 133.7069978 116.7420014
   0.6309992 134.5749978 115.5210014   0.9230937 134.0033614 116.1089379
  17.7939992 133.3769978 117.7850014  16.9809992 133.7019978 117.3970014
  18.0269992 132.6159978 117.2520014  17.7142566 133.3186559 117.6599213
  11.2239992 134.8259978 112.1070014  10.5499992 134.1959978 112.3630014
  11.7879992 134.3419978 111.5040014  11.2080384 134.6743708 112.0605020
  16.3669992 132.9329978 112.2200014  16.9699992 133.4809978 111.7180014
  15.4969992 133.2519978 111.9800014  16.3319190 133.0511041 112.1188679
  18.0939992 134.0719978 110.5530014  18.7049992 133.5579978 110.0270014
  18.4759992 134.9489978 110.5770014  18.2294475 134.1201323 110.4841208
   3.5509992 133.4599978 109.9290014   2.7739992 133.2249978 109.4220014
   4.0809992 132.6629978 109.9380014   3.5163451 133.3201268 109.8608627
   2.3869992 133.2579978 105.7330014   2.8259992 133.8689978 105.1410014
   1.7529992 133.7959978 106.2070014   2.3613859 133.4144064 105.7160305
   8.1299992 133.3859978 109.7430014   9.0039992 133.7749978 109.7130014
   7.9939992 133.1709978 110.6650014   8.2313207 133.4101923 109.8636509
  13.6869992 133.4159978 111.3920014  13.7629992 133.5119978 110.4430014
  13.4119992 132.5089978 111.5210014  13.6602042 133.3064241 111.2793811
  15.0399992 133.4419978 107.0840014  14.3369992 134.0569978 106.8750014
  14.5949992 132.6049978 107.2160014  14.8836292 133.4130085 107.0732439
   4.2479992 135.1739978 104.1750014   4.7389992 134.5439978 103.6480014
   4.8709992 135.4699978 104.8390014   4.3995062 135.1276770 104.1925438
   9.2739992 135.4669978 106.6330014   9.4519992 134.8199978 107.3150014
   9.2199992 136.3009978 107.1000014   9.2911025 135.4910504 106.7896433
   3.5079992 133.9739978 119.4470014   3.1419992 133.2079978 119.8900014
   4.4209992 134.0029978 119.7340014   3.5813225 133.8731906 119.5463459
   5.4809992 133.3239978 120.9830014   6.3799992 133.0499978 120.7980014
   5.0949992 132.5819978 121.4470014   5.5517237 133.1861508 121.0204710
  13.9029992 132.6569978 121.1650014  13.9789992 132.2309978 122.0190014
  14.7959992 132.6699978 120.8220014  14.0342267 132.6003952 121.2355932
  31.4849992 142.6159978 109.8880014  31.5739992 143.5599978 109.7560014
  30.8469992 142.3409978 109.2300014  31.4109062 142.7079812 109.7809641
  30.4179992 141.8709978 113.3070014  30.3799992 141.2249978 114.0120014
  30.0959992 141.4039978 112.5360014  30.3692679 141.7194276 113.2992921
  22.7859992 141.4849978 114.9000014  22.8279992 140.8599978 115.6230014
  23.4889992 142.1089978 115.0820014  22.8867345 141.4837873 115.0235274
  34.1239992 144.8099978 111.6090014  33.6829992 144.0899978 112.0590014
  34.1109992 145.5309978 112.2380014  34.0617960 144.8088329 111.7557567
  20.3199992 139.5949978 108.8280014  19.8719992 140.4409978 108.8090014
  19.7589992 139.0159978 108.3120014  20.1829603 139.6323674 108.7556720
  21.0299992 141.7569978 110.9540014  21.2439992 140.9869978 111.4810014
  21.7679992 141.8469978 110.3500014  21.1589652 141.6638012 110.9445212
  28.8069992 144.3029978 113.7130014  29.1109992 143.6169978 113.1190014
  29.5289992 144.4219978 114.3310014  28.9461152 144.2252189 113.7152123
  37.4699992 135.9049978 114.5740014  37.5199992 136.5149978 115.3100014
  37.8959992 136.3659978 113.8510014  37.5344108 136.0507709 114.5770112
  31.9479992 138.6969978 114.0410014  32.0909992 137.7509978 114.0610014
  31.8419992 138.9039978 113.1120014  31.9532509 138.5954813 113.9182231
  25.1029992 136.7989978 111.3130014  25.1459992 137.6589978 110.8950014
  24.6449992 136.2469978 110.6790014  25.0469815 136.8420621 111.1701197
  32.8249992 136.9299978 109.7140014  33.4719992 136.6009978 110.3390014
  33.3349992 137.4469978 109.0910014  32.9824317 136.9549227 109.7152167
  21.7229992 139.1959978 112.0750014  22.3769992 138.6459978 112.5070014
  21.7469992 138.9219978 111.1580014  21.8157199 139.0837167 112.0101668
  26.8799992 140.7459978 111.2900014  27.4959992 140.2189978 111.8000014
  26.2929992 140.1059978 110.8870014  26.8849239 140.5874117 111.3052952
  37.8619992 137.3829978 116.8100014  37.1729992 138.0409978 116.7140014
  37.8769992 137.1849978 117.7460014  37.7696740 137.4463243 116.9234630
  23.9129992 135.7169978 115.3870014  23.6939992 136.2469978 114.6210014
  23.2449992 135.9429978 116.0340014  23.7927001 135.8201154 115.3696064
  31.2819992 145.2169978 108.9310014  30.9869992 144.8939978 108.0800014
  30.9579992 146.1169978 108.9720014  31.1977983 145.2944027 108.8199771
  26.4819992 143.3919978 115.6750014  25.7419992 143.9909978 115.7780014
  27.1959992 143.9459978 115.3590014  26.4773288 143.5487356 115.6463805
  34.5889992 136.2209978 111.6940014  34.3739992 135.4549978 112.2270014
  35.2449992 136.6929978 112.2070014  34.6482673 136.1800728 111.8361990
  23.5069992 137.6089978 113.3390014  24.1209992 138.2419978 113.7130014
  24.0189992 137.1369978 112.6830014  23.6602277 137.6317352 113.3014279
  24.8899992 145.3569978 116.4620014  24.8839992 146.2359978 116.0840014
  24.0359992 145.2729978 116.8870014  24.7737925 145.4659535 116.4676887
  21.0109992 145.0279978 107.2440014  20.7389992 145.2569978 106.3550014
  21.0559992 145.8649978 107.7040014  20.9798709 145.1726058 107.1846107
  34.9359992 134.9359978 115.3740014  34.1999992 135.5459978 115.3360014
  35.6199992 135.3509978 114.8470014  34.9275506 135.0756400 115.2976051
  27.9399992 133.0219978 112.8400014  27.8219992 132.0739978 112.7850014
  27.0849992 133.3549978 113.1130014  27.8082679 132.9371926 112.8693720
  35.7339992 144.8979978 117.5680014  35.8729992 144.3059978 116.8280014
  35.9009992 145.7709978 117.2110014  35.7755562 144.9349896 117.4186283
  37.5749992 141.2379978 115.6340014  36.9229992 141.9319978 115.7230014
  38.0409992 141.4479978 114.8240014  37.5485937 141.3615019 115.5367533
  33.6119992 142.0689978 108.2920014  32.8799992 142.2979978 108.8650014
  34.0589992 141.3559978 108.7470014  33.5722753 142.0038972 108.4319715
  33.5089992 140.2439978 117.3600014  33.5889992 141.0069978 117.9310014
  32.9079992 140.5229978 116.6690014  33.4387245 140.3862630 117.3448424
  25.2569992 142.6999978 110.1740014  24.9269992 142.3289978 109.3560014
  25.8459992 142.0289978 110.5210014  25.2913970 142.5586063 110.1089404
  25.6239992 141.4679978 113.8080014  26.1889992 141.5899978 113.0450014
  25.9429992 142.1059978 114.4470014  25.7443977 141.5708851 113.7899424
  32.4829992 141.2319978 105.9770014  33.0619992 141.3819978 106.7240014
  32.8969992 141.7019978 105.2540014  32.6183122 141.3161277 105.9815042
  23.4239992 142.0659978 117.7540014  23.4939992 142.7169978 118.4520014
  22.5329992 142.1689978 117.4190014  23.3131802 142.1689757 117.8042249
  36.1819992 132.9819978 105.7900014  35.2819992 133.1209978 106.0850014
  36.4339992 133.8129978 105.3880014  36.0928683 133.1134055 105.7760232
  24.2479992 141.7689978 107.7640014  23.9559992 142.5369978 107.2730014
  23.5729992 141.1099978 107.6010014  24.1168497 141.7849745 107.6748260
  20.3409992 144.1319978 116.5790014  19.8389992 144.1039978 115.7640014
  20.3459992 143.2269978 116.8880014  20.2730416 144.0057368 116.5093766
  35.4409992 139.0719978 119.6250014  35.0329992 139.5519978 118.9050014
  35.4809992 138.1659978 119.3170014  35.3905476 139.0153160 119.4848247
  22.5899992 145.4559978 117.6220014  22.8059992 145.0939978 118.4810014
  21.7339992 145.0809978 117.4120014  22.5039354 145.3557906 117.7112160
  25.2079992 133.9259978 113.6170014  24.3469992 133.8389978 113.2100014
  25.1859992 134.7819978 114.0450014  25.0870411 134.0297884 113.6190857
  29.8709992 133.6479978 116.9920014  30.2909992 133.2329978 117.7450014
  28.9379992 133.4689978 117.1090014  29.8023736 133.5669910 117.1108968
  33.1979992 137.4029978 117.8450014  32.6839992 137.2779978 118.6430014
  33.0419992 138.3159978 117.6010014  33.1066967 137.5092123 117.9210937
  33.9599992 142.2639978 103.6070014  34.0019992 142.0419978 102.6770014
  34.8089992 142.6629978 103.7970014  34.0805253 142.2875498 103.5053822
  29.5329992 136.1399978 104.2770014  29.2789992 136.1589978 105.2000014
  29.2759992 135.2689978 103.9760014  29.4635133 136.0248110 104.3625082
  25.2989992 138.8909978 114.7120014  24.6579992 138.8509978 115.4210014
  25.3369992 139.8179978 114.4750014  25.2163670 139.0107795 114.7770550
  25.2959992 139.1119978 109.6240014  24.4039992 138.7719978 109.5660014
  25.7469992 138.7349978 108.8690014  25.2346815 139.0143762 109.5139203
  30.8319992 139.5279978 108.4410014  30.4229992 140.3429978 108.1500014
  31.5519992 139.3879978 107.8270014  30.8734013 139.6206571 108.3180875
  29.9339992 139.7039978 119.9290014  29.3709992 138.9989978 120.2500014
  30.7599992 139.5829978 120.3970014  29.9686674 139.5912165 120.0361751
  31.8369992 138.9739978 111.2550014  31.6409992 139.5799978 110.5400014
  32.0179992 138.1409978 110.8210014  31.8346584 138.9442513 111.0984212
  23.0489992 139.2119978 116.5790014  23.0109992 139.6119978 117.4480014
  22.5589992 138.3949978 116.6700014  22.9775621 139.1562510 116.7101377
  19.6579992 136.3279978 110.4300014  20.2879992 136.2989978 111.1490014
  20.1069992 135.9029978 109.7000014  19.8050692 136.2665316 110.4297771
  31.1009992 140.6119978 115.9270014  31.4239992 139.9809978 115.2840014
  30.6599992 140.0779978 116.5870014  31.0855789 140.4533522 115.9282232
  27.8779992 136.5399978 110.7110014  26.9669992 136.5969978 110.9990014
  28.3829992 136.4799978 111.5210014  27.8215387 136.5396870 110.8600646
  22.7059992 138.1689978 109.5370014  21.8169992 138.2679978 109.1970014
  23.0029992 137.3269978 109.1910014  22.6244177 138.0687687 109.4436940
  26.3589992 138.1689978 107.1940014  27.2909992 138.2979978 107.3720014
  26.1439992 138.8379978 106.5440014  26.4574472 138.2770806 107.1304891
  32.2829992 135.7749978 113.9750014  31.6059992 135.9059978 114.6390014
  31.7979992 135.6199978 113.1650014  32.1247265 135.7719659 113.9563397
  25.0329992 139.3629978 104.7610014  24.4909992 138.9839978 104.0690014
  25.8669992 139.5579978 104.3320014  25.0715159 139.3375076 104.6084419
  23.1689992 143.9199978 119.8600014  23.9009992 144.1749978 120.4210014
  22.3879992 144.1249978 120.3750014  23.1637684 143.9826468 120.0064782
  29.1979992 139.3269978 112.5980014  29.7619992 138.7809978 112.0510014
  29.0499992 138.8059978 113.3860014  29.2552575 139.1816552 112.6296987
  24.1999992 135.4639978 109.0160014  23.8829992 134.5609978 108.9810014
  24.9809992 135.4659978 108.4630014  24.2622307 135.3406951 108.9364314
  27.8239992 137.7159978 115.0120014  26.9889992 138.1699978 115.1220014
  28.3479992 137.9919978 115.7640014  27.7805070 137.8154665 115.1287152
  28.3689992 143.9289978 106.6960014  27.6239992 143.4209978 106.3740014
  28.2339992 143.9779978 107.6430014  28.2489047 143.8661596 106.7798845
  35.5189992 143.0619978 115.4830014  36.1599992 143.5179978 114.9390014
  34.6879992 143.1749978 115.0210014  35.4945171 143.1397502 115.3460237
  32.2659992 136.7429978 104.8960014  31.3279992 136.8539978 104.7440014
  32.5639992 137.5989978 105.2020014  32.1776402 136.8740621 104.9165571
  29.8879992 144.1129978 117.9330014  29.5419992 143.7309978 118.7400014
  29.6879992 145.0459978 118.0050014  29.8136523 144.1869095 118.0530735
  32.9849992 138.6099978 106.5560014  33.8769992 138.4719978 106.8750014
  33.0409992 139.4009978 106.0200014  33.1147107 138.6980526 106.5272091
  23.4929992 143.2239978 112.4660014  24.2379992 143.2209978 111.8650014
  23.5709992 142.3999978 112.9480014  23.6054158 143.1122916 112.4489153
  30.4939992 145.3869978 105.7220014  30.1989992 146.2139978 106.1030014
  29.7909992 144.7679978 105.9180014  30.3585471 145.4165227 105.8006698
  20.5009992 141.6839978 117.7810014  20.7239992 141.2659978 118.6130014
  19.8989992 141.0719978 117.3580014  20.4501260 141.5439933 117.8377320
  27.5179992 141.2009978 119.9940014  27.2219992 141.0359978 119.0990014
  28.4489992 140.9809978 119.9830014  27.6033982 141.1486578 119.8700045
  37.8329992 144.6199978 119.0880014  36.9819992 144.8579978 118.7210014
  38.4229992 144.6029978 118.3350014  37.7962408 144.6502966 118.9358879
  33.3249992 142.4129978 113.7370014  32.3969992 142.1819978 113.7100014
  33.7759992 141.6359978 113.4070014  33.2588165 142.2762774 113.6886790
  27.2959992 144.4049978 109.4470014  27.0549992 145.3299978 109.4880014
  26.5549992 143.9459978 109.8430014  27.1628390 144.4696403 109.5061404
  31.3539992 144.6529978 115.4620014  30.9289992 144.4249978 116.2890014
  31.9349992 143.9139978 115.2800014  31.3743930 144.5219843 115.5504732
  22.1349992 136.4379978 117.3390014  21.2429992 136.7759978 117.2720014
  22.0369992 135.5819978 117.7570014  21.9994965 136.3686499 117.3863044
  34.4229992 144.2539978 106.7630014  34.1459992 143.5259978 107.3190014
  35.3509992 144.3729978 106.9680014  34.5104499 144.1704213 106.8668044
  30.8699992 136.1789978 116.2290014  31.5689992 136.2529978 116.8790014
  30.4889992 135.3139978 116.3830014  30.9142097 136.0722389 116.3387997
  31.6539992 135.8309978 107.3260014  31.8739992 136.3019978 106.5230014
  32.2129992 136.2249978 107.9960014  31.7596730 135.9487432 107.3065906
  28.8539992 137.5589978 108.1610014  29.6659992 138.0629978 108.2070014
  28.6099992 137.4139978 109.0750014  28.9321467 137.6083749 108.2908575
  29.3899992 138.5449978 117.3460014  29.5089992 139.1189978 118.1030014
  30.0449992 137.8569978 117.4600014  29.4949146 138.5305574 117.4651314
  29.7379992 134.6399978 109.0990014  29.3909992 135.2569978 109.7440014
  30.3969992 135.1409978 108.6180014  29.7795949 134.7921099 109.1222271
  25.3959992 135.7029978 105.7860014  25.3119992 136.5909978 106.1330014
  26.2859992 135.4379978 106.0180014  25.5048163 135.7887179 105.8648596
  35.5939992 136.4519978 118.1810014  34.6779992 136.7139978 118.0930014
  35.9299992 136.4489978 117.2840014  35.5139789 136.4874626 118.0477847
  34.1969992 140.2019978 112.2760014  33.3989992 139.7869978 111.9480014
  34.6419992 139.5119978 112.7670014  34.1479684 140.0518628 112.2975227
  22.7779992 133.5759978 112.6360014  22.5489992 133.6349978 111.7080014
  22.3359992 132.7849978 112.9420014  22.6868801 133.4770540 112.5504729
  20.9039992 143.9399978 121.0810014  21.0479992 143.0379978 120.7940014
  20.1319992 144.2259978 120.5930014  20.8193303 143.8553243 120.9757908
  25.2449992 144.2829978 103.2130014  25.3099992 143.4889978 103.7440014
  25.8979992 144.1649978 102.5230014  25.3421754 144.1583337 103.1924259
  27.5589992 143.9089978 120.5130014  27.2309992 144.1799978 119.6560014
  27.7109992 142.9679978 120.4260014  27.5346030 143.8188973 120.3837945
  30.5979992 145.3299978 102.9490014  30.3289992 145.5109978 103.8500014
  30.3909992 144.4049978 102.8180014  30.5332000 145.2296774 103.0545693
  33.2939992 143.8249978 117.8970014  34.0389992 144.4139978 117.7770014
  32.5369992 144.4069978 117.9600014  33.2935205 143.9841997 117.8891119
  21.7369992 141.1399978 120.5010014  22.1449992 140.2829978 120.3800014
  21.4759992 141.1539978 121.4220014  21.7576016 141.0245119 120.6089192
  26.3949992 142.2559978 105.5190014  25.9349992 141.7719978 106.2050014
  26.6499992 141.5869978 104.8830014  26.3665038 142.0993689 105.5269447
  25.6839992 140.1489978 117.8750014  25.0649992 140.8229978 118.1550014
  26.0279992 140.4699978 117.0420014  25.6457605 140.2847198 117.8006707
  30.7029992 142.6199978 121.1520014  31.6569992 142.7039978 121.1250014
  30.5429992 141.9079978 121.7720014  30.8117182 142.5352842 121.2320733
  36.8559992 142.8529978 103.2270014  36.5819992 142.4289978 102.4140014
  36.8949992 143.7849978 103.0100014  36.8237716 142.9208827 103.0864286
  26.0229992 137.5039978 118.9570014  26.1729992 136.7749978 118.3550014
  26.0249992 138.2809978 118.3980014  26.0437967 137.5092708 118.7990541
  26.4359992 135.8729978 116.4500014  26.9709992 136.3249978 115.7980014
  25.5829992 135.7649978 116.0270014  26.3940374 135.9202665 116.3036710
  28.0169992 141.3129978 116.6890014  28.7679992 141.1569978 116.1160014
  27.6779992 142.1649978 116.4140014  28.0739587 141.4068138 116.5734078
  32.4329992 139.1279978 121.7180014  32.6249992 138.1969978 121.6060014
  33.2909992 139.5529978 121.7080014  32.5752269 139.0579928 121.7013192
  33.7499992 141.9169978 119.7950014  33.4679992 142.6259978 119.2180014
  34.6919992 141.8439978 119.6440014  33.8387656 142.0043128 119.6954809
  24.5019992 138.7019978 120.8690014  23.7339992 138.1689978 120.6590014
  25.1799992 138.3919978 120.2690014  24.4886973 138.5872375 120.7591796
  27.2409992 133.3299978 116.8810014  27.1429992 134.2759978 116.7760014
  26.4989992 132.9569978 116.4060014  27.1271913 133.4091813 116.8023539
  28.5049992 137.6509978 120.4450014  28.2699992 137.4319978 121.3470014
  27.7219992 137.4439978 119.9350014  28.3669219 137.5930066 120.4995852
  31.2209992 136.7789978 119.5210014  30.2729992 136.8109978 119.6530014
  31.5329992 136.1529978 120.1740014  31.1335190 136.6987262 119.6273564
  32.8549992 135.4129978 121.5260014  32.7579992 134.4609978 121.5200014
  32.5329992 135.6809978 122.3860014  32.7981761 135.3189744 121.6414936
  22.6819992 136.6219978 120.5730014  22.8939992 135.9159978 119.9630014
  22.5709992 136.1849978 121.4170014  22.6960269 136.4661921 120.6035873
  27.4629992 132.6239978 119.5530014  28.1749992 131.9839978 119.5390014
  27.3619992 132.8899978 118.6390014  27.5467261 132.5724190 119.4275537
  27.8169992 134.3059978 121.6060014  27.6849992 133.8309978 120.7860014
  27.2169992 135.0509978 121.5510014  27.7179070 134.3415789 121.4863251
  36.0129992 145.4659978 121.6880014  35.1469992 145.3609978 122.0820014
  36.3889992 146.2239978 122.1340014  35.9453401 145.5541708 121.8022620
  37.3139992 143.7219978 107.2020014  38.1639992 144.1429978 107.3290014
  37.3189992 142.9819978 107.8090014  37.4311143 143.6796094 107.3014750
  37.7079992 141.7759978 109.0260014  36.9819992 141.2959978 109.4230014
  38.2899992 141.9809978 109.7580014  37.6871635 141.7379166 109.1793748
  37.4669992 144.5609978 113.9730014  38.3009992 144.1829978 113.6930014
  37.5789992 145.5039978 113.8540014  37.5962522 144.6367742 113.9186020
  37.9769992 141.6769978 105.4170014  37.4549992 142.0329978 104.6980014
  37.9439992 142.3519978 106.0950014  37.9010699 141.8169848 105.4102129
  35.4949992 140.2969978 109.5890014  35.3449992 139.3519978 109.5680014
  35.1409992 140.5779978 110.4320014  35.4265527 140.2055605 109.7001859
  20.5299992 142.3749978 113.5990014  20.7149992 142.2929978 112.6630014
  21.3799992 142.2509978 114.0230014  20.6700916 142.3470393 113.5282896
  36.3509992 142.2669978 119.2270014  36.9339992 141.5319978 119.4190014
  36.9149992 143.0389978 119.2740014  36.5069781 142.2708145 119.2596164
  37.8479992 140.1699978 119.9120014  36.9849992 139.7909978 119.7460014
  38.4519992 139.4309978 119.8380014  37.8115944 140.0182978 119.8792984
  35.2059992 137.8789978 108.0510014  35.4849992 136.9719978 108.1750014
  35.9649992 138.3129978 107.6620014  35.3468619 137.8134502 108.0153795
  35.8169992 138.4609978 113.4870014  36.7499992 138.6729978 113.4530014
  35.5819992 138.5619978 114.4090014  35.9128308 138.5036503 113.6070214
  35.8469992 139.1979978 116.2630014  35.0039992 139.4659978 116.6290014
  36.2889992 140.0199978 116.0520014  35.7914138 139.3458273 116.2845518
  20.1279992 137.6449978 119.7400014  21.0469992 137.5229978 119.9760014
  19.6779992 136.8949978 120.1290014  20.1931148 137.5268751 119.8249408
  38.1299992 133.1779978 121.6160014  38.4789992 132.5239978 121.0110014
  38.2769992 134.0149978 121.1770014  38.1977355 133.2016067 121.4736564
  35.8189992 135.1419978 108.0990014  36.0009992 134.6929978 108.9250014
  35.2189992 134.5579978 107.6360014  35.7627529 135.0016131 108.1493619
  21.3489992 135.9579978 112.6310014  21.7939992 135.1659978 112.9330014
  21.8149992 136.6739978 113.0620014  21.4729059 135.9464474 112.7306079
  19.6529992 138.9569978 113.7000014  20.1449992 138.7359978 112.9090014
  20.0149992 139.7969978 113.9810014  19.7692923 139.0403468 113.6297407
  37.6489992 135.2869978 119.9660014  36.7319992 135.5579978 119.9300014
  37.7719992 134.7519978 119.1820014  37.5400828 135.2517700 119.8550785
  19.9669992 135.2149978 107.7540014  19.0419992 135.4229978 107.6250014
  20.4209992 135.6989978 107.0650014  19.9016374 135.3089949 107.6430957
  19.9299992 133.9529978 116.0990014  19.2649992 133.7069978 116.7420014
  19.4869992 134.5749978 115.5210014  19.7790937 134.0033614 116.1089379
  36.6499992 133.3769978 117.7850014  35.8369992 133.7019978 117.3970014
  36.8829992 132.6159978 117.2520014  36.5702566 133.3186559 117.6599213
  30.0799992 134.8259978 112.1070014  29.4059992 134.1959978 112.3630014
  30.6439992 134.3419978 111.5040014  30.0640384 134.6743708 112.0605020
  35.2229992 132.9329978 112.2200014  35.8259992 133.4809978 111.7180014
  34.3529992 133.2519978 111.9800014  35.1879190 133.0511041 112.1188679
  36.9499992 134.0719978 110.5530014  37.5609992 133.5579978 110.0270014
  37.3319992 134.9489978 110.5770014  37.0854475 134.1201323 110.4841208
  22.4069992 133.4599978 109.9290014  21.6299992 133.2249978 109.4220014
  22.9369992 132.6629978 109.9380014  22.3723451 133.3201268 109.8608627
  21.2429992 133.2579978 105.7330014  21.6819992 133.8689978 105.1410014
  20.6089992 133.7959978 106.2070014  21.2173859 133.4144064 105.7160305
  26.9859992 133.3859978 109.7430014  27.8599992 133.7749978 109.7130014
  26.8499992 133.1709978 110.6650014  27.0873207 133.4101923 109.8636509
  32.5429992 133.4159978 111.3920014  32.6189992 133.5119978 110.4430014
  32.2679992 132.5089978 111.5210014  32.5162042 133.3064241 111.2793811
  33.8959992 133.4419978 107.0840014  33.1929992 134.0569978 106.8750014
  33.4509992 132.6049978 107.2160014  33.7396292 133.4130085 107.0732439
  28.1299992 135.4669978 106.6330014  28.3079992 134.8199978 107.3150014
  28.0759992 136.3009978 107.1000014  28.1471025 135.4910504 106.7896433
  22.3639992 133.9739978 119.4470014  21.9979992 133.2079978 119.8900014
  23.2769992 134.0029978 119.7340014  22.4373225 133.8731906 119.5463459
  24.3369992 133.3239978 120.9830014  25.2359992 133.0499978 120.7980014
  23.9509992 132.5819978 121.4470014  24.4077237 133.1861508 121.0204710
  32.7589992 132.6569978 121.1650014  32.8349992 132.2309978 122.0190014
  33.6519992 132.6699978 120.8220014  32.8902267 132.6003952 121.2355932
  50.3409992 142.6159978 109.8880014  50.4299992 143.5599978 109.7560014
  49.7029992 142.3409978 109.2300014  50.2669062 142.7079812 109.7809641
  49.2739992 141.8709978 113.3070014  49.2359992 141.2249978 114.0120014
  48.9519992 141.4039978 112.5360014  49.2252679 141.7194276 113.2992921
  41.6419992 141.4849978 114.9000014  41.6839992 140.8599978 115.6230014
  42.3449992 142.1089978 115.0820014  41.7427345 141.4837873 115.0235274
  52.9799992 144.8099978 111.6090014  52.5389992 144.0899978 112.0590014
  52.9669992 145.5309978 112.2380014  52.9177960 144.8088329 111.7557567
  39.1759992 139.5949978 108.8280014  38.7279992 140.4409978 108.8090014
  38.6149992 139.0159978 108.3120014  39.0389603 139.6323674 108.7556720
  39.8859992 141.7569978 110.9540014  40.0999992 140.9869978 111.4810014
  40.6239992 141.8469978 110.3500014  40.0149652 141.6638012 110.9445212
  47.6629992 144.3029978 113.7130014  47.9669992 143.6169978 113.1190014
  48.3849992 144.4219978 114.3310014  47.8021152 144.2252189 113.7152123
  56.3259992 135.9049978 114.5740014  56.3759992 136.5149978 115.3100014
  56.7519992 136.3659978 113.8510014  56.3904108 136.0507709 114.5770112
  50.8039992 138.6969978 114.0410014  50.9469992 137.7509978 114.0610014
  50.6979992 138.9039978 113.1120014  50.8092509 138.5954813 113.9182231
  43.9589992 136.7989978 111.3130014  44.0019992 137.6589978 110.8950014
  43.5009992 136.2469978 110.6790014  43.9029815 136.8420621 111.1701197
  51.6809992 136.9299978 109.7140014  52.3279992 136.6009978 110.3390014
  52.1909992 137.4469978 109.0910014  51.8384317 136.9549227 109.7152167
  40.5789992 139.1959978 112.0750014  41.2329992 138.6459978 112.5070014
  40.6029992 138.9219978 111.1580014  40.6717199 139.0837167 112.0101668
  45.7359992 140.7459978 111.2900014  46.3519992 140.2189978 111.8000014
  45.1489992 140.1059978 110.8870014  45.7409239 140.5874117 111.3052952
  56.7179992 137.3829978 116.8100014  56.0289992 138.0409978 116.7140014
  56.7329992 137.1849978 117.7460014  56.6256740 137.4463243 116.9234630
  42.7689992 135.7169978 115.3870014  42.5499992 136.2469978 114.6210014
  42.1009992 135.9429978 116.0340014  42.6487001 135.8201154 115.3696064
  50.1379992 145.2169978 108.9310014  49.8429992 144.8939978 108.0800014
  49.8139992 146.1169978 108.9720014  50.0537983 145.2944026 108.8199771
  45.3379992 143.3919978 115.6750014  44.5979992 143.9909978 115.7780014
  46.0519992 143.9459978 115.3590014  45.3333288 143.5487356 115.6463805
  53.4449992 136.2209978 111.6940014  53.2299992 135.4549978 112.2270014
  54.1009992 136.6929978 112.2070014  53.5042673 136.1800728 111.8361990
  42.3629992 137.6089978 113.3390014  42.9769992 138.2419978 113.7130014
  42.8749992 137.1369978 112.6830014  42.5162277 137.6317352 113.3014279
  43.7459992 145.3569978 116.4620014  43.7399992 146.2359978 116.0840014
  42.8919992 145.2729978 116.8870014  43.6297925 145.4659535 116.4676887
  39.8669992 145.0279978 107.2440014  39.5949992 145.2569978 106.3550014
  39.9119992 145.8649978 107.7040014  39.8358709 145.1726058 107.1846107
  53.7919992 134.9359978 115.3740014  53.0559992 135.5459978 115.3360014
  54.4759992 135.3509978 114.8470014  53.7835506 135.0756400 115.2976051
  46.7959992 133.0219978 112.8400014  46.6779992 132.0739978 112.7850014
  45.9409992 133.3549978 113.1130014  46.6642679 132.9371926 112.8693720
  54.5899992 144.8979978 117.5680014  54.7289992 144.3059978 116.8280014
  54.7569992 145.7709978 117.2110014  54.6315562 144.9349896 117.4186283
  49.0619992 141.8599978 107.3400014  48.3509992 142.3949978 106.9880014
  49.7529992 141.9149978 106.6800014  49.0580751 141.9406777 107.2025858
  49.1159992 140.3169978 104.3790014  49.8169992 140.3399978 105.0300014
  49.4179992 139.6889978 103.7230014  49.2528282 140.2352339 104.3794496
  56.4309992 141.2379978 115.6340014  55.7789992 141.9319978 115.7230014
  56.8969992 141.4479978 114.8240014  56.4045937 141.3615019 115.5367533
  52.4679992 142.0689978 108.2920014  51.7359992 142.2979978 108.8650014
  52.9149992 141.3559978 108.7470014  52.4282753 142.0038972 108.4319715
  52.3649992 140.2439978 117.3600014  52.4449992 141.0069978 117.9310014
  51.7639992 140.5229978 116.6690014  52.2947245 140.3862630 117.3448424
  44.1129992 142.6999978 110.1740014  43.7829992 142.3289978 109.3560014
  44.7019992 142.0289978 110.5210014  44.1473970 142.5586063 110.1089404
  44.4799992 141.4679978 113.8080014  45.0449992 141.5899978 113.0450014
  44.7989992 142.1059978 114.4470014  44.6003977 141.5708851 113.7899424
  51.3389992 141.2319978 105.9770014  51.9179992 141.3819978 106.7240014
  51.7529992 141.7019978 105.2540014  51.4743122 141.3161277 105.9815042
  42.2799992 142.0659978 117.7540014  42.3499992 142.7169978 118.4520014
  41.3889992 142.1689978 117.4190014  42.1691802 142.1689757 117.8042249
  43.1039992 141.7689978 107.7640014  42.8119992 142.5369978 107.2730014
  42.4289992 141.1099978 107.6010014  42.9728497 141.7849745 107.6748260
  39.1969992 144.1319978 116.5790014  38.6949992 144.1039978 115.7640014
  39.2019992 143.2269978 116.8880014  39.1290416 144.0057368 116.5093766
  54.2969992 139.0719978 119.6250014  53.8889992 139.5519978 118.9050014
  54.3369992 138.1659978 119.3170014  54.2465476 139.0153160 119.4848247
  41.4459992 145.4559978 117.6220014  41.6619992 145.0939978 118.4810014
  40.5899992 145.0809978 117.4120014  41.3599354 145.3557906 117.7112160
  44.0639992 133.9259978 113.6170014  43.2029992 133.8389978 113.2100014
  44.0419992 134.7819978 114.0450014  43.9430411 134.0297884 113.6190857
  48.7269992 133.6479978 116.9920014  49.1469992 133.2329978 117.7450014
  47.7939992 133.4689978 117.1090014  48.6583736 133.5669910 117.1108968
  52.0539992 137.4029978 117.8450014  51.5399992 137.2779978 118.6430014
  51.8979992 138.3159978 117.6010014  51.9626967 137.5092123 117.9210937
  44.1549992 138.8909978 114.7120014  43.5139992 138.8509978 115.4210014
  44.1929992 139.8179978 114.4750014  44.0723670 139.0107795 114.7770550
  44.1519992 139.1119978 109.6240014  43.2599992 138.7719978 109.5660014
  44.6029992 138.7349978 108.8690014  44.0906815 139.0143762 109.5139203
  49.6879992 139.5279978 108.4410014  49.2789992 140.3429978 108.1500014
  50.4079992 139.3879978 107.8270014  49.7294013 139.6206571 108.3180875
  48.7899992 139.7039978 119.9290014  48.2269992 138.9989978 120.2500014
  49.6159992 139.5829978 120.3970014  48.8246674 139.5912165 120.0361751
  50.6929992 138.9739978 111.2550014  50.4969992 139.5799978 110.5400014
  50.8739992 138.1409978 110.8210014  50.6906584 138.9442513 111.0984212
  41.9049992 139.2119978 116.5790014  41.8669992 139.6119978 117.4480014
  41.4149992 138.3949978 116.6700014  41.8335621 139.1562510 116.7101377
  38.5139992 136.3279978 110.4300014  39.1439992 136.2989978 111.1490014
  38.9629992 135.9029978 109.7000014  38.6610692 136.2665316 110.4297771
  49.9569992 140.6119978 115.9270014  50.2799992 139.9809978 115.2840014
  49.5159992 140.0779978 116.5870014  49.9415789 140.4533522 115.9282232
  46.7339992 136.5399978 110.7110014  45.8229992 136.5969978 110.9990014
  47.2389992 136.4799978 111.5210014  46.6775387 136.5396870 110.8600646
  41.5619992 138.1689978 109.5370014  40.6729992 138.2679978 109.1970014
  41.8589992 137.3269978 109.1910014  41.4804177 138.0687687 109.4436940
  45.2149992 138.1689978 107.1940014  46.1469992 138.2979978 107.3720014
  44.9999992 138.8379978 106.5440014  45.3134472 138.2770806 107.1304891
  51.1389992 135.7749978 113.9750014  50.4619992 135.9059978 114.6390014
  50.6539992 135.6199978 113.1650014  50.9807265 135.7719659 113.9563397
  43.8889992 139.3629978 104.7610014  43.3469992 138.9839978 104.0690014
  44.7229992 139.5579978 104.3320014  43.9275159 139.3375076 104.6084419
  42.0249992 143.9199978 119.8600014  42.7569992 144.1749978 120.4210014
  41.2439992 144.1249978 120.3750014  42.0197684 143.9826468 120.0064782
  48.0539992 139.3269978 112.5980014  48.6179992 138.7809978 112.0510014
  47.9059992 138.8059978 113.3860014  48.1112575 139.1816552 112.6296987
  43.0559992 135.4639978 109.0160014  42.7389992 134.5609978 108.9810014
  43.8369992 135.4659978 108.4630014  43.1182307 135.3406951 108.9364314
  46.6799992 137.7159978 115.0120014  45.8449992 138.1699978 115.1220014
  47.2039992 137.9919978 115.7640014  46.6365070 137.8154666 115.1287152
  47.2249992 143.9289978 106.6960014  46.4799992 143.4209978 106.3740014
  47.0899992 143.9779978 107.6430014  47.1049047 143.8661596 106.7798845
  54.3749992 143.0619978 115.4830014  55.0159992 143.5179978 114.9390014
  53.5439992 143.1749978 115.0210014  54.3505171 143.1397502 115.3460237
  48.7439992 144.1129978 117.9330014  48.3979992 143.7309978 118.7400014
  48.5439992 145.0459978 118.0050014  48.6696523 144.1869095 118.0530735
  51.8409992 138.6099978 106.5560014  52.7329992 138.4719978 106.8750014
  51.8969992 139.4009978 106.0200014  51.9707107 138.6980526 106.5272091
  42.3489992 143.2239978 112.4660014  43.0939992 143.2209978 111.8650014
  42.4269992 142.3999978 112.9480014  42.4614158 143.1122916 112.4489153
  49.3499992 145.3869978 105.7220014  49.0549992 146.2139978 106.1030014
  48.6469992 144.7679978 105.9180014  49.2145471 145.4165227 105.8006698
  39.3569992 141.6839978 117.7810014  39.5799992 141.2659978 118.6130014
  38.7549992 141.0719978 117.3580014  39.3061260 141.5439933 117.8377320
  46.3739992 141.2009978 119.9940014  46.0779992 141.0359978 119.0990014
  47.3049992 140.9809978 119.9830014  46.4593982 141.1486578 119.8700045
  56.7259992 138.8189978 106.2510014  56.1709992 138.4229978 105.5790014
  56.8259992 139.7299978 105.9730014  56.6635888 138.8878990 106.1215206
  56.6889992 144.6199978 119.0880014  55.8379992 144.8579978 118.7210014
  57.2789992 144.6029978 118.3350014  56.6522408 144.6502966 118.9358879
  52.1809992 142.4129978 113.7370014  51.2529992 142.1819978 113.7100014
  52.6319992 141.6359978 113.4070014  52.1148165 142.2762774 113.6886790
  40.4789992 141.6039978 104.4580014  41.0949992 142.2309978 104.8370014
  39.6169992 141.9199978 104.7290014  40.4468195 141.7325798 104.5465386
  46.1519992 144.4049978 109.4470014  45.9109992 145.3299978 109.4880014
  45.4109992 143.9459978 109.8430014  46.0188390 144.4696403 109.5061404
  50.2099992 144.6529978 115.4620014  49.7849992 144.4249978 116.2890014
  50.7909992 143.9139978 115.2800014  50.2303930 144.5219843 115.5504731
  40.9909992 136.4379978 117.3390014  40.0989992 136.7759978 117.2720014
  40.8929992 135.5819978 117.7570014  40.8554965 136.3686499 117.3863044
  53.2789992 144.2539978 106.7630014  53.0019992 143.5259978 107.3190014
  54.2069992 144.3729978 106.9680014  53.3664499 144.1704213 106.8668044
  41.8939992 143.5159978 105.9500014  41.2079992 143.8689978 106.5170014
  42.4169992 144.2789978 105.7040014  41.8709033 143.6673746 105.9942661
  49.7259992 136.1789978 116.2290014  50.4249992 136.2529978 116.8790014
  49.3449992 135.3139978 116.3830014  49.7702097 136.0722389 116.3387997
  50.5099992 135.8309978 107.3260014  50.7299992 136.3019978 106.5230014
  51.0689992 136.2249978 107.9960014  50.6156730 135.9487432 107.3065906
  47.7099992 137.5589978 108.1610014  48.5219992 138.0629978 108.2070014
  47.4659992 137.4139978 109.0750014  47.7881467 137.6083749 108.2908575
  48.2459992 138.5449978 117.3460014  48.3649992 139.1189978 118.1030014
  48.9009992 137.8569978 117.4600014  48.3509146 138.5305574 117.4651313
  48.5939992 134.6399978 109.0990014  48.2469992 135.2569978 109.7440014
  49.2529992 135.1409978 108.6180014  48.6355949 134.7921099 109.1222271
  54.4499992 136.4519978 118.1810014  53.5339992 136.7139978 118.0930014
  54.7859992 136.4489978 117.2840014  54.3699789 136.4874626 118.0477847
  53.0529992 140.2019978 112.2760014  52.2549992 139.7869978 111.9480014
  53.4979992 139.5119978 112.7670014  53.0039684 140.0518628 112.2975227
  41.6339992 133.5759978 112.6360014  41.4049992 133.6349978 111.7080014
  41.1919992 132.7849978 112.9420014  41.5428801 133.4770540 112.5504729
  39.7599992 143.9399978 121.0810014  39.9039992 143.0379978 120.7940014
  38.9879992 144.2259978 120.5930014  39.6753303 143.8553243 120.9757908
  46.4149992 143.9089978 120.5130014  46.0869992 144.1799978 119.6560014
  46.5669992 142.9679978 120.4260014  46.3906030 143.8188973 120.3837945
  52.1499992 143.8249978 117.8970014  52.8949992 144.4139978 117.7770014
  51.3929992 144.4069978 117.9600014  52.1495205 143.9841997 117.8891119
  40.5929992 141.1399978 120.5010014  41.0009992 140.2829978 120.3800014
  40.3319992 141.1539978 121.4220014  40.6136016 141.0245119 120.6089192
  45.2509992 142.2559978 105.5190014  44.7909992 141.7719978 106.2050014
  45.5059992 141.5869978 104.8830014  45.2225038 142.0993689 105.5269447
  44.5399992 140.1489978 117.8750014  43.9209992 140.8229978 118.1550014
  44.8839992 140.4699978 117.0420014  44.5017605 140.2847198 117.8006707
  49.5589992 142.6199978 121.1520014  50.5129992 142.7039978 121.1250014
  49.3989992 141.9079978 121.7720014  49.6677182 142.5352842 121.2320733
  44.8789992 137.5039978 118.9570014  45.0289992 136.7749978 118.3550014
  44.8809992 138.2809978 118.3980014  44.8997967 137.5092708 118.7990541
  45.2919992 135.8729978 116.4500014  45.8269992 136.3249978 115.7980014
  44.4389992 135.7649978 116.0270014  45.2500374 135.9202665 116.3036710
  46.8729992 141.3129978 116.6890014  47.6239992 141.1569978 116.1160014
  46.5339992 142.1649978 116.4140014  46.9299587 141.4068138 116.5734078
  51.2889992 139.1279978 121.7180014  51.4809992 138.1969978 121.6060014
  52.1469992 139.5529978 121.7080014  51.4312269 139.0579928 121.7013192
  52.6059992 141.9169978 119.7950014  52.3239992 142.6259978 119.2180014
  53.5479992 141.8439978 119.6440014  52.6947656 142.0043128 119.6954809
  43.3579992 138.7019978 120.8690014  42.5899992 138.1689978 120.6590014
  44.0359992 138.3919978 120.2690014  43.3446973 138.5872375 120.7591796
  46.0969992 133.3299978 116.8810014  45.9989992 134.2759978 116.7760014
  45.3549992 132.9569978 116.4060014  45.9831913 133.4091813 116.8023539
  47.3609992 137.6509978 120.4450014  47.1259992 137.4319978 121.3470014
  46.5779992 137.4439978 119.9350014  47.2229219 137.5930066 120.4995852
  50.0769992 136.7789978 119.5210014  49.1289992 136.8109978 119.6530014
  50.3889992 136.1529978 120.1740014  49.9895190 136.6987262 119.6273564
  51.7109992 135.4129978 121.5260014  51.6139992 134.4609978 121.5200014
  51.3889992 135.6809978 122.3860014  51.6541761 135.3189744 121.6414936
  41.5379992 136.6219978 120.5730014  41.7499992 135.9159978 119.9630014
  41.4269992 136.1849978 121.4170014  41.5520269 136.4661921 120.6035873
  46.3189992 132.6239978 119.5530014  47.0309992 131.9839978 119.5390014
  46.2179992 132.8899978 118.6390014  46.4027261 132.5724190 119.4275537
  46.6729992 134.3059978 121.6060014  46.5409992 133.8309978 120.7860014
  46.0729992 135.0509978 121.5510014  46.5739070 134.3415789 121.4863251
  54.8689992 145.4659978 121.6880014  54.0029992 145.3609978 122.0820014
  55.2449992 146.2239978 122.1340014  54.8013401 145.5541708 121.8022620
  56.1699992 143.7219978 107.2020014  57.0199992 144.1429978 107.3290014
  56.1749992 142.9819978 107.8090014  56.2871143 143.6796094 107.3014750
  56.5639992 141.7759978 109.0260014  55.8379992 141.2959978 109.4230014
  57.1459992 141.9809978 109.7580014  56.5431635 141.7379166 109.1793748
  56.3229992 144.5609978 113.9730014  57.1569992 144.1829978 113.6930014
  56.4349992 145.5039978 113.8540014  56.4522522 144.6367742 113.9186020
  55.1819992 138.9159978 103.9680014  55.2779992 139.5829978 103.2880014
  55.0419992 138.1009978 103.4860014  55.1762063 138.8970667 103.8098377
  54.3509992 140.2969978 109.5890014  54.2009992 139.3519978 109.5680014
  53.9969992 140.5779978 110.4320014  54.2825527 140.2055605 109.7001859
  39.3859992 142.3749978 113.5990014  39.5709992 142.2929978 112.6630014
  40.2359992 142.2509978 114.0230014  39.5260916 142.3470393 113.5282896
  55.2069992 142.2669978 119.2270014  55.7899992 141.5319978 119.4190014
  55.7709992 143.0389978 119.2740014  55.3629781 142.2708145 119.2596164
  56.7039992 140.1699978 119.9120014  55.8409992 139.7909978 119.7460014
  57.3079992 139.4309978 119.8380014  56.6675944 140.0182978 119.8792984
  54.0619992 137.8789978 108.0510014  54.3409992 136.9719978 108.1750014
  54.8209992 138.3129978 107.6620014  54.2028619 137.8134502 108.0153795
  54.6729992 138.4609978 113.4870014  55.6059992 138.6729978 113.4530014
  54.4379992 138.5619978 114.4090014  54.7688308 138.5036503 113.6070214
  54.7029992 139.1979978 116.2630014  53.8599992 139.4659978 116.6290014
  55.1449992 140.0199978 116.0520014  54.6474138 139.3458273 116.2845518
  38.9839992 137.6449978 119.7400014  39.9029992 137.5229978 119.9760014
  38.5339992 136.8949978 120.1290014  39.0491148 137.5268751 119.8249408
  56.9859992 133.1779978 121.6160014  57.3349992 132.5239978 121.0110014
  57.1329992 134.0149978 121.1770014  57.0537355 133.2016067 121.4736564
  54.6749992 135.1419978 108.0990014  54.8569992 134.6929978 108.9250014
  54.0749992 134.5579978 107.6360014  54.6187529 135.0016131 108.1493619
  40.2049992 135.9579978 112.6310014  40.6499992 135.1659978 112.9330014
  40.6709992 136.6739978 113.0620014  40.3289059 135.9464474 112.7306079
  38.5089992 138.9569978 113.7000014  39.0009992 138.7359978 112.9090014
  38.8709992 139.7969978 113.9810014  38.6252923 139.0403468 113.6297407
  56.5049992 135.2869978 119.9660014  55.5879992 135.5579978 119.9300014
  56.6279992 134.7519978 119.1820014  56.3960828 135.2517700 119.8550785
  38.8229992 135.2149978 107.7540014  37.8979992 135.4229978 107.6250014
  39.2769992 135.6989978 107.0650014  38.7576374 135.3089949 107.6430957
  38.7859992 133.9529978 116.0990014  38.1209992 133.7069978 116.7420014
  38.3429992 134.5749978 115.5210014  38.6350937 134.0033614 116.1089379
  55.5059992 133.3769978 117.7850014  54.6929992 133.7019978 117.3970014
  55.7389992 132.6159978 117.2520014  55.4262566 133.3186559 117.6599213
  48.9359992 134.8259978 112.1070014  48.2619992 134.1959978 112.3630014
  49.4999992 134.3419978 111.5040014  48.9200384 134.6743708 112.0605020
  54.0789992 132.9329978 112.2200014  54.6819992 133.4809978 111.7180014
  53.2089992 133.2519978 111.9800014  54.0439190 133.0511041 112.1188679
  55.8059992 134.0719978 110.5530014  56.4169992 133.5579978 110.0270014
  56.1879992 134.9489978 110.5770014  55.9414475 134.1201323 110.4841208
  41.2629992 133.4599978 109.9290014  40.4859992 133.2249978 109.4220014
  41.7929992 132.6629978 109.9380014  41.2283451 133.3201268 109.8608627
  40.0989992 133.2579978 105.7330014  40.5379992 133.8689978 105.1410014
  39.4649992 133.7959978 106.2070014  40.0733859 133.4144064 105.7160305
  45.8419992 133.3859978 109.7430014  46.7159992 133.7749978 109.7130014
  45.7059992 133.1709978 110.6650014  45.9433207 133.4101923 109.8636509
  51.3989992 133.4159978 111.3920014  51.4749992 133.5119978 110.4430014
  51.1239992 132.5089978 111.5210014  51.3722042 133.3064241 111.2793811
  52.7519992 133.4419978 107.0840014  52.0489992 134.0569978 106.8750014
  52.3069992 132.6049978 107.2160014  52.5956292 133.4130085 107.0732439
  41.9599992 135.1739978 104.1750014  42.4509992 134.5439978 103.6480014
  42.5829992 135.4699978 104.8390014  42.1115062 135.1276770 104.1925438
  41.2199992 133.9739978 119.4470014  40.8539992 133.2079978 119.8900014
  42.1329992 134.0029978 119.7340014  41.2933225 133.8731906 119.5463459
  43.1929992 133.3239978 120.9830014  44.0919992 133.0499978 120.7980014
  42.8069992 132.5819978 121.4470014  43.2637237 133.1861508 121.0204710
  51.6149992 132.6569978 121.1650014  51.6909992 132.2309978 122.0190014
  52.5079992 132.6699978 120.8220014  51.7462267 132.6003952 121.2355932
  69.1969992 142.6159978 109.8880014  69.2859992 143.5599978 109.7560014
  68.5589992 142.3409978 109.2300014  69.1229062 142.7079812 109.7809641
  68.1299992 141.8709978 113.3070014  68.0919992 141.2249978 114.0120014
  67.8079992 141.4039978 112.5360014  68.0812679 141.7194276 113.2992921
  60.4979992 141.4849978 114.9000014  60.5399992 140.8599978 115.6230014
  61.2009992 142.1089978 115.0820014  60.5987345 141.4837873 115.0235273
  71.8359992 144.8099978 111.6090014  71.3949992 144.0899978 112.0590014
  71.8229992 145.5309978 112.2380014  71.7737960 144.8088329 111.7557567
  58.0319992 139.5949978 108.8280014  57.5839992 140.4409978 108.8090014
  57.4709992 139.0159978 108.3120014  57.8949603 139.6323674 108.7556720
  58.7419992 141.7569978 110.9540014  58.9559992 140.9869978 111.4810014
  59.4799992 141.8469978 110.3500014  58.8709652 141.6638012 110.9445212
  66.5189992 144.3029978 113.7130014  66.8229992 143.6169978 113.1190014
  67.2409992 144.4219978 114.3310014  66.6581152 144.2252189 113.7152123
  75.1819992 135.9049978 114.5740014  75.2319992 136.5149978 115.3100014
  75.6079992 136.3659978 113.8510014  75.2464108 136.0507709 114.5770112
  69.6599992 138.6969978 114.0410014  69.8029992 137.7509978 114.0610014
  69.5539992 138.9039978 113.1120014  69.6652509 138.5954813 113.9182231
  62.8149992 136.7989978 111.3130014  62.8579992 137.6589978 110.8950014
  62.3569992 136.2469978 110.6790014  62.7589815 136.8420621 111.1701197
  70.5369992 136.9299978 109.7140014  71.1839992 136.6009978 110.3390014
  71.0469992 137.4469978 109.0910014  70.6944317 136.9549227 109.7152167
  59.4349992 139.1959978 112.0750014  60.0889992 138.6459978 112.5070014
  59.4589992 138.9219978 111.1580014  59.5277199 139.0837167 112.0101668
  64.5919992 140.7459978 111.2900014  65.2079992 140.2189978 111.8000014
  64.0049992 140.1059978 110.8870014  64.5969239 140.5874117 111.3052952
  75.5739992 137.3829978 116.8100014  74.8849992 138.0409978 116.7140014
  75.5889992 137.1849978 117.7460014  75.4816740 137.4463243 116.9234630
  61.6249992 135.7169978 115.3870014  61.4059992 136.2469978 114.6210014
  60.9569992 135.9429978 116.0340014  61.5047001 135.8201154 115.3696064
  68.9939992 145.2169978 108.9310014  68.6989992 144.8939978 108.0800014
  68.6699992 146.1169978 108.9720014  68.9097983 145.2944026 108.8199771
  64.1939992 143.3919978 115.6750014  63.4539992 143.9909978 115.7780014
  64.9079992 143.9459978 115.3590014  64.1893288 143.5487356 115.6463805
  72.3009992 136.2209978 111.6940014  72.0859992 135.4549978 112.2270014
  72.9569992 136.6929978 112.2070014  72.3602673 136.1800728 111.8361990
  61.2189992 137.6089978 113.3390014  61.8329992 138.2419978 113.7130014
  61.7309992 137.1369978 112.6830014  61.3722277 137.6317352 113.3014279
  62.6019992 145.3569978 116.4620014  62.5959992 146.2359978 116.0840014
  61.7479992 145.2729978 116.8870014  62.4857925 145.4659535 116.4676887
  58.7229992 145.0279978 107.2440014  58.4509992 145.2569978 106.3550014
  58.7679992 145.8649978 107.7040014  58.6918709 145.1726058 107.1846107
  72.6479992 134.9359978 115.3740014  71.9119992 135.5459978 115.3360014
  73.3319992 135.3509978 114.8470014  72.6395506 135.0756400 115.2976051
  65.6519992 133.0219978 112.8400014  65.5339992 132.0739978 112.7850014
  64.7969992 133.3549978 113.1130014  65.5202679 132.9371926 112.8693720
  73.4459992 144.8979978 117.5680014  73.5849992 144.3059978 116.8280014
  73.6129992 145.7709978 117.2110014  73.4875562 144.9349896 117.4186283
  67.9179992 141.8599978 107.3400014  67.2069992 142.3949978 106.9880014
  68.6089992 141.9149978 106.6800014  67.9140751 141.9406777 107.2025858
  75.2869992 141.2379978 115.6340014  74.6349992 141.9319978 115.7230014
  75.7529992 141.4479978 114.8240014  75.2605937 141.3615019 115.5367533
  71.3239992 142.0689978 108.2920014  70.5919992 142.2979978 108.8650014
  71.7709992 141.3559978 108.7470014  71.2842753 142.0038972 108.4319715
  71.2209992 140.2439978 117.3600014  71.3009992 141.0069978 117.9310014
  70.6199992 140.5229978 116.6690014  71.1507245 140.3862630 117.3448424
  62.9689992 142.6999978 110.1740014  62.6389992 142.3289978 109.3560014
  63.5579992 142.0289978 110.5210014  63.0033970 142.5586063 110.1089404
  63.3359992 141.4679978 113.8080014  63.9009992 141.5899978 113.0450014
  63.6549992 142.1059978 114.4470014  63.4563977 141.5708851 113.7899424
  70.1949992 141.2319978 105.9770014  70.7739992 141.3819978 106.7240014
  70.6089992 141.7019978 105.2540014  70.3303122 141.3161277 105.9815042
  61.1359992 142.0659978 117.7540014  61.2059992 142.7169978 118.4520014
  60.2449992 142.1689978 117.4190014  61.0251802 142.1689757 117.8042249
  73.8939992 132.9819978 105.7900014  72.9939992 133.1209978 106.0850014
  74.1459992 133.8129978 105.3880014  73.8048683 133.1134055 105.7760232
  61.9599992 141.7689978 107.7640014  61.6679992 142.5369978 107.2730014
  61.2849992 141.1099978 107.6010014  61.8288497 141.7849745 107.6748260
  58.0529992 144.1319978 116.5790014  57.5509992 144.1039978 115.7640014
  58.0579992 143.2269978 116.8880014  57.9850416 144.0057368 116.5093766
  73.1529992 139.0719978 119.6250014  72.7449992 139.5519978 118.9050014
  73.1929992 138.1659978 119.3170014  73.1025476 139.0153160 119.4848247
  60.3019992 145.4559978 117.6220014  60.5179992 145.0939978 118.4810014
  59.4459992 145.0809978 117.4120014  60.2159354 145.3557906 117.7112160
  62.9199992 133.9259978 113.6170014  62.0589992 133.8389978 113.2100014
  62.8979992 134.7819978 114.0450014  62.7990411 134.0297884 113.6190857
  67.5829992 133.6479978 116.9920014  68.0029992 133.2329978 117.7450014
  66.6499992 133.4689978 117.1090014  67.5143736 133.5669910 117.1108968
  70.9099992 137.4029978 117.8450014  70.3959992 137.2779978 118.6430014
  70.7539992 138.3159978 117.6010014  70.8186967 137.5092123 117.9210937
  71.6719992 142.2639978 103.6070014  71.7139992 142.0419978 102.6770014
  72.5209992 142.6629978 103.7970014  71.7925253 142.2875498 103.5053822
  63.0109992 138.8909978 114.7120014  62.3699992 138.8509978 115.4210014
  63.0489992 139.8179978 114.4750014  62.9283670 139.0107795 114.7770550
  63.0079992 139.1119978 109.6240014  62.1159992 138.7719978 109.5660014
  63.4589992 138.7349978 108.8690014  62.9466815 139.0143762 109.5139203
  68.5439992 139.5279978 108.4410014  68.1349992 140.3429978 108.1500014
  69.2639992 139.3879978 107.8270014  68.5854013 139.6206571 108.3180875
  67.6459992 139.7039978 119.9290014  67.0829992 138.9989978 120.2500014
  68.4719992 139.5829978 120.3970014  67.6806674 139.5912165 120.0361751
  69.5489992 138.9739978 111.2550014  69.3529992 139.5799978 110.5400014
  69.7299992 138.1409978 110.8210014  69.5466584 138.9442513 111.0984212
  60.7609992 139.2119978 116.5790014  60.7229992 139.6119978 117.4480014
  60.2709992 138.3949978 116.6700014  60.6895621 139.1562510 116.7101377
  57.3699992 136.3279978 110.4300014  57.9999992 136.2989978 111.1490014
  57.8189992 135.9029978 109.7000014  57.5170692 136.2665316 110.4297771
  58.6439992 137.0739978 105.8540014  59.1179992 137.6649978 105.2690014
  57.9259992 137.6039978 106.2010014  58.6118640 137.2265511 105.8207969
  68.8129992 140.6119978 115.9270014  69.1359992 139.9809978 115.2840014
  68.3719992 140.0779978 116.5870014  68.7975789 140.4533522 115.9282232
  65.5899992 136.5399978 110.7110014  64.6789992 136.5969978 110.9990014
  66.0949992 136.4799978 111.5210014  65.5335387 136.5396870 110.8600646
  60.4179992 138.1689978 109.5370014  59.5289992 138.2679978 109.1970014
  60.7149992 137.3269978 109.1910014  60.3364177 138.0687687 109.4436940
  64.0709992 138.1689978 107.1940014  65.0029992 138.2979978 107.3720014
  63.8559992 138.8379978 106.5440014  64.1694472 138.2770806 107.1304891
  69.9949992 135.7749978 113.9750014  69.3179992 135.9059978 114.6390014
  69.5099992 135.6199978 113.1650014  69.8367265 135.7719659 113.9563397
  60.8809992 143.9199978 119.8600014  61.6129992 144.1749978 120.4210014
  60.0999992 144.1249978 120.3750014  60.8757684 143.9826468 120.0064782
  66.9099992 139.3269978 112.5980014  67.4739992 138.7809978 112.0510014
  66.7619992 138.8059978 113.3860014  66.9672575 139.1816552 112.6296987
  61.9119992 135.4639978 109.0160014  61.5949992 134.5609978 108.9810014
  62.6929992 135.4659978 108.4630014  61.9742307 135.3406951 108.9364314
  65.5359992 137.7159978 115.0120014  64.7009992 138.1699978 115.1220014
  66.0599992 137.9919978 115.7640014  65.4925070 137.8154666 115.1287152
  66.0809992 143.9289978 106.6960014  65.3359992 143.4209978 106.3740014
  65.9459992 143.9779978 107.6430014  65.9609047 143.8661596 106.7798845
  73.2309992 143.0619978 115.4830014  73.8719992 143.5179978 114.9390014
  72.3999992 143.1749978 115.0210014  73.2065171 143.1397502 115.3460237
  67.5999992 144.1129978 117.9330014  67.2539992 143.7309978 118.7400014
  67.3999992 145.0459978 118.0050014  67.5256523 144.1869095 118.0530735
  70.6969992 138.6099978 106.5560014  71.5889992 138.4719978 106.8750014
  70.7529992 139.4009978 106.0200014  70.8267107 138.6980526 106.5272091
  61.2049992 143.2239978 112.4660014  61.9499992 143.2209978 111.8650014
  61.2829992 142.3999978 112.9480014  61.3174158 143.1122916 112.4489153
  68.2059992 145.3869978 105.7220014  67.9109992 146.2139978 106.1030014
  67.5029992 144.7679978 105.9180014  68.0705471 145.4165227 105.8006698
  58.2129992 141.6839978 117.7810014  58.4359992 141.2659978 118.6130014
  57.6109992 141.0719978 117.3580014  58.1621260 141.5439933 117.8377320
  65.2299992 141.2009978 119.9940014  64.9339992 141.0359978 119.0990014
  66.1609992 140.9809978 119.9830014  65.3153982 141.1486578 119.8700045
  75.5819992 138.8189978 106.2510014  75.0269992 138.4229978 105.5790014
  75.6819992 139.7299978 105.9730014  75.5195888 138.8878990 106.1215206
  75.5449992 144.6199978 119.0880014  74.6939992 144.8579978 118.7210014
  76.1349992 144.6029978 118.3350014  75.5082409 144.6502966 118.9358879
  71.0369992 142.4129978 113.7370014  70.1089992 142.1819978 113.7100014
  71.4879992 141.6359978 113.4070014  70.9708165 142.2762774 113.6886790
  65.0079992 144.4049978 109.4470014  64.7669992 145.3299978 109.4880014
  64.2669992 143.9459978 109.8430014  64.8748390 144.4696403 109.5061404
  69.0659992 144.6529978 115.4620014  68.6409992 144.4249978 116.2890014
  69.6469992 143.9139978 115.2800014  69.0863930 144.5219843 115.5504732
  59.8469992 136.4379978 117.3390014  58.9549992 136.7759978 117.2720014
  59.7489992 135.5819978 117.7570014  59.7114965 136.3686499 117.3863044
  72.1349992 144.2539978 106.7630014  71.8579992 143.5259978 107.3190014
  73.0629992 144.3729978 106.9680014  72.2224499 144.1704213 106.8668044
  60.7499992 143.5159978 105.9500014  60.0639992 143.8689978 106.5170014
  61.2729992 144.2789978 105.7040014  60.7269033 143.6673746 105.9942661
  68.5819992 136.1789978 116.2290014  69.2809992 136.2529978 116.8790014
  68.2009992 135.3139978 116.3830014  68.6262097 136.0722389 116.3387997
  66.5659992 137.5589978 108.1610014  67.3779992 138.0629978 108.2070014
  66.3219992 137.4139978 109.0750014  66.6441467 137.6083749 108.2908575
  67.1019992 138.5449978 117.3460014  67.2209992 139.1189978 118.1030014
  67.7569992 137.8569978 117.4600014  67.2069146 138.5305574 117.4651314
  67.4499992 134.6399978 109.0990014  67.1029992 135.2569978 109.7440014
  68.1089992 135.1409978 108.6180014  67.4915949 134.7921099 109.1222271
  63.1079992 135.7029978 105.7860014  63.0239992 136.5909978 106.1330014
  63.9979992 135.4379978 106.0180014  63.2168163 135.7887179 105.8648596
  73.3059992 136.4519978 118.1810014  72.3899992 136.7139978 118.0930014
  73.6419992 136.4489978 117.2840014  73.2259789 136.4874626 118.0477847
  71.9089992 140.2019978 112.2760014  71.1109992 139.7869978 111.9480014
  72.3539992 139.5119978 112.7670014  71.8599684 140.0518628 112.2975227
  60.4899992 133.5759978 112.6360014  60.2609992 133.6349978 111.7080014
  60.0479992 132.7849978 112.9420014  60.3988801 133.4770540 112.5504729
  58.6159992 143.9399978 121.0810014  58.7599992 143.0379978 120.7940014
  57.8439992 144.2259978 120.5930014  58.5313303 143.8553243 120.9757908
  65.2709992 143.9089978 120.5130014  64.9429992 144.1799978 119.6560014
  65.4229992 142.9679978 120.4260014  65.2466030 143.8188973 120.3837945
  71.0059992 143.8249978 117.8970014  71.7509992 144.4139978 117.7770014
  70.2489992 144.4069978 117.9600014  71.0055205 143.9841997 117.8891119
  59.4489992 141.1399978 120.5010014  59.8569992 140.2829978 120.3800014
  59.1879992 141.1539978 121.4220014  59.4696016 141.0245119 120.6089192
  64.1069992 142.2559978 105.5190014  63.6469992 141.7719978 106.2050014
  64.3619992 141.5869978 104.8830014  64.0785038 142.0993689 105.5269447
  63.3959992 140.1489978 117.8750014  62.7769992 140.8229978 118.1550014
  63.7399992 140.4699978 117.0420014  63.3577605 140.2847198 117.8006707
  68.4149992 142.6199978 121.1520014  69.3689992 142.7039978 121.1250014
  68.2549992 141.9079978 121.7720014  68.5237182 142.5352842 121.2320733
  63.7349992 137.5039978 118.9570014  63.8849992 136.7749978 118.3550014
  63.7369992 138.2809978 118.3980014  63.7557967 137.5092708 118.7990541
  64.1479992 135.8729978 116.4500014  64.6829992 136.3249978 115.7980014
  63.2949992 135.7649978 116.0270014  64.1060374 135.9202665 116.3036710
  65.7289992 141.3129978 116.6890014  66.4799992 141.1569978 116.1160014
  65.3899992 142.1649978 116.4140014  65.7859587 141.4068138 116.5734078
  70.1449992 139.1279978 121.7180014  70.3369992 138.1969978 121.6060014
  71.0029992 139.5529978 121.7080014  70.2872269 139.0579928 121.7013192
  71.4619992 141.9169978 119.7950014  71.1799992 142.6259978 119.2180014
  72.4039992 141.8439978 119.6440014  71.5507656 142.0043128 119.6954809
  62.2139992 138.7019978 120.8690014  61.4459992 138.1689978 120.6590014
  62.8919992 138.3919978 120.2690014  62.2006973 138.5872375 120.7591796
  64.9529992 133.3299978 116.8810014  64.8549992 134.2759978 116.7760014
  64.2109992 132.9569978 116.4060014  64.8391913 133.4091813 116.8023539
  66.2169992 137.6509978 120.4450014  65.9819992 137.4319978 121.3470014
  65.4339992 137.4439978 119.9350014  66.0789219 137.5930066 120.4995852
  68.9329992 136.7789978 119.5210014  67.9849992 136.8109978 119.6530014
  69.2449992 136.1529978 120.1740014  68.8455190 136.6987262 119.6273564
  70.5669992 135.4129978 121.5260014  70.4699992 134.4609978 121.5200014
  70.2449992 135.6809978 122.3860014  70.5101761 135.3189744 121.6414936
  60.3939992 136.6219978 120.5730014  60.6059992 135.9159978 119.9630014
  60.2829992 136.1849978 121.4170014  60.4080269 136.4661921 120.6035873
  65.1749992 132.6239978 119.5530014  65.8869992 131.9839978 119.5390014
  65.0739992 132.8899978 118.6390014  65.2587261 132.5724190 119.4275537
  65.5289992 134.3059978 121.6060014  65.3969992 133.8309978 120.7860014
  64.9289992 135.0509978 121.5510014  65.4299070 134.3415789 121.4863251
  73.7249992 145.4659978 121.6880014  72.8589992 145.3609978 122.0820014
  74.1009992 146.2239978 122.1340014  73.6573401 145.5541708 121.8022620
  75.0259992 143.7219978 107.2020014  75.8759992 144.1429978 107.3290014
  75.0309992 142.9819978 107.8090014  75.1431143 143.6796094 107.3014750
  75.4199992 141.7759978 109.0260014  74.6939992 141.2959978 109.4230014
  76.0019992 141.9809978 109.7580014  75.3991635 141.7379166 109.1793748
  75.1789992 144.5609978 113.9730014  76.0129992 144.1829978 113.6930014
  75.2909992 145.5039978 113.8540014  75.3082522 144.6367742 113.9186020
  75.6889992 141.6769978 105.4170014  75.1669992 142.0329978 104.6980014
  75.6559992 142.3519978 106.0950014  75.6130699 141.8169848 105.4102129
  74.0379992 138.9159978 103.9680014  74.1339992 139.5829978 103.2880014
  73.8979992 138.1009978 103.4860014  74.0322063 138.8970667 103.8098377
  73.2069992 140.2969978 109.5890014  73.0569992 139.3519978 109.5680014
  72.8529992 140.5779978 110.4320014  73.1385527 140.2055605 109.7001859
  58.2419992 142.3749978 113.5990014  58.4269992 142.2929978 112.6630014
  59.0919992 142.2509978 114.0230014  58.3820916 142.3470393 113.5282896
  74.0629992 142.2669978 119.2270014  74.6459992 141.5319978 119.4190014
  74.6269992 143.0389978 119.2740014  74.2189781 142.2708145 119.2596164
  75.5599992 140.1699978 119.9120014  74.6969992 139.7909978 119.7460014
  76.1639992 139.4309978 119.8380014  75.5235944 140.0182978 119.8792984
  72.9179992 137.8789978 108.0510014  73.1969992 136.9719978 108.1750014
  73.6769992 138.3129978 107.6620014  73.0588619 137.8134502 108.0153795
  73.5289992 138.4609978 113.4870014  74.4619992 138.6729978 113.4530014
  73.2939992 138.5619978 114.4090014  73.6248308 138.5036503 113.6070214
  73.5589992 139.1979978 116.2630014  72.7159992 139.4659978 116.6290014
  74.0009992 140.0199978 116.0520014  73.5034138 139.3458273 116.2845518
  57.8399992 137.6449978 119.7400014  58.7589992 137.5229978 119.9760014
  57.3899992 136.8949978 120.1290014  57.9051148 137.5268751 119.8249408
  75.8419992 133.1779978 121.6160014  76.1909992 132.5239978 121.0110014
  75.9889992 134.0149978 121.1770014  75.9097355 133.2016067 121.4736564
  73.5309992 135.1419978 108.0990014  73.7129992 134.6929978 108.9250014
  72.9309992 134.5579978 107.6360014  73.4747529 135.0016131 108.1493619
  59.0609992 135.9579978 112.6310014  59.5059992 135.1659978 112.9330014
  59.5269992 136.6739978 113.0620014  59.1849059 135.9464474 112.7306079
  57.3649992 138.9569978 113.7000014  57.8569992 138.7359978 112.9090014
  57.7269992 139.7969978 113.9810014  57.4812923 139.0403468 113.6297407
  75.3609992 135.2869978 119.9660014  74.4439992 135.5579978 119.9300014
  75.4839992 134.7519978 119.1820014  75.2520828 135.2517700 119.8550785
  75.3979992 135.2099978 104.6270014  75.8099992 134.4889978 104.1520014
  76.0789992 135.8789978 104.6860014  75.5465900 135.2017306 104.5699038
  57.6789992 135.2149978 107.7540014  56.7539992 135.4229978 107.6250014
  58.1329992 135.6989978 107.0650014  57.6136374 135.3089949 107.6430957
  57.6419992 133.9529978 116.0990014  56.9769992 133.7069978 116.7420014
  57.1989992 134.5749978 115.5210014  57.4910937 134.0033614 116.1089379
  74.3619992 133.3769978 117.7850014  73.5489992 133.7019978 117.3970014
  74.5949992 132.6159978 117.2520014  74.2822566 133.3186559 117.6599213
  67.7919992 134.8259978 112.1070014  67.1179992 134.1959978 112.3630014
  68.3559992 134.3419978 111.5040014  67.7760384 134.6743708 112.0605020
  72.9349992 132.9329978 112.2200014  73.5379992 133.4809978 111.7180014
  72.0649992 133.2519978 111.9800014  72.8999190 133.0511041 112.1188679
  74.6619992 134.0719978 110.5530014  75.2729992 133.5579978 110.0270014
  75.0439992 134.9489978 110.5770014  74.7974475 134.1201323 110.4841208
  60.1189992 133.4599978 109.9290014  59.3419992 133.2249978 109.4220014
  60.6489992 132.6629978 109.9380014  60.0843451 133.3201268 109.8608627
  58.9549992 133.2579978 105.7330014  59.3939992 133.8689978 105.1410014
  58.3209992 133.7959978 106.2070014  58.9293859 133.4144064 105.7160305
  64.6979992 133.3859978 109.7430014  65.5719992 133.7749978 109.7130014
  64.5619992 133.1709978 110.6650014  64.7993207 133.4101923 109.8636509
  70.2549992 133.4159978 111.3920014  70.3309992 133.5119978 110.4430014
  69.9799992 132.5089978 111.5210014  70.2282042 133.3064241 111.2793811
  60.8159992 135.1739978 104.1750014  61.3069992 134.5439978 103.6480014
  61.4389992 135.4699978 104.8390014  60.9675062 135.1276770 104.1925438
  65.8419992 135.4669978 106.6330014  66.0199992 134.8199978 107.3150014
  65.7879992 136.3009978 107.1000014  65.8591025 135.4910504 106.7896433
  60.0759992 133.9739978 119.4470014  59.7099992 133.2079978 119.8900014
  60.9889992 134.0029978 119.7340014  60.1493225 133.8731906 119.5463459
  62.0489992 133.3239978 120.9830014  62.9479992 133.0499978 120.7980014
  61.6629992 132.5819978 121.4470014  62.1197237 133.1861508 121.0204710
  70.4709992 132.6569978 121.1650014  70.5469992 132.2309978 122.0190014
  71.3639992 132.6699978 120.8220014  70.6022267 132.6003952 121.2355932
  88.0529992 142.6159978 109.8880014  88.1419992 143.5599978 109.7560014
  87.4149992 142.3409978 109.2300014  87.9789062 142.7079812 109.7809641
  86.9859992 141.8709978 113.3070014  86.9479992 141.2249978 114.0120014
  86.6639992 141.4039978 112.5360014  86.9372679 141.7194276 113.2992921
  79.3539992 141.4849978 114.9000014  79.3959992 140.8599978 115.6230014
  80.0569992 142.1089978 115.0820014  79.4547345 141.4837873 115.0235273
  90.6919992 144.8099978 111.6090014  90.2509992 144.0899978 112.0590014
  90.6789992 145.5309978 112.2380014  90.6297960 144.8088329 111.7557567
  76.8879992 139.5949978 108.8280014  76.4399992 140.4409978 108.8090014
  76.3269992 139.0159978 108.3120014  76.7509603 139.6323674 108.7556720
  77.5979992 141.7569978 110.9540014  77.8119992 140.9869978 111.4810014
  78.3359992 141.8469978 110.3500014  77.7269652 141.6638012 110.9445212
  85.3749992 144.3029978 113.7130014  85.6789992 143.6169978 113.1190014
  86.0969992 144.4219978 114.3310014  85.5141152 144.2252189 113.7152123
  94.0379992 135.9049978 114.5740014  94.0879992 136.5149978 115.3100014
  94.4639992 136.3659978 113.8510014  94.1024108 136.0507709 114.5770112
  88.5159992 138.6969978 114.0410014  88.6589992 137.7509978 114.0610014
  88.4099992 138.9039978 113.1120014  88.5212509 138.5954813 113.9182231
  81.6709992 136.7989978 111.3130014  81.7139992 137.6589978 110.8950014
  81.2129992 136.2469978 110.6790014  81.6149815 136.8420621 111.1701197
  89.3929992 136.9299978 109.7140014  90.0399992 136.6009978 110.3390014
  89.9029992 137.4469978 109.0910014  89.5504317 136.9549227 109.7152167
  78.2909992 139.1959978 112.0750014  78.9449992 138.6459978 112.5070014
  78.3149992 138.9219978 111.1580014  78.3837199 139.0837167 112.0101668
  83.4479992 140.7459978 111.2900014  84.0639992 140.2189978 111.8000014
  82.8609992 140.1059978 110.8870014  83.4529239 140.5874117 111.3052952
  94.4299992 137.3829978 116.8100014  93.7409992 138.0409978 116.7140014
  94.4449992 137.1849978 117.7460014  94.3376740 137.4463243 116.9234630
  80.4809992 135.7169978 115.3870014  80.2619992 136.2469978 114.6210014
  79.8129992 135.9429978 116.0340014  80.3607001 135.8201154 115.3696064
  87.8499992 145.2169978 108.9310014  87.5549992 144.8939978 108.0800014
  87.5259992 146.1169978 108.9720014  87.7657983 145.2944026 108.8199771
  83.0499992 143.3919978 115.6750014  82.3099992 143.9909978 115.7780014
  83.7639992 143.9459978 115.3590014  83.0453288 143.5487356 115.6463805
  91.1569992 136.2209978 111.6940014  90.9419992 135.4549978 112.2270014
  91.8129992 136.6929978 112.2070014  91.2162673 136.1800728 111.8361990
  80.0749992 137.6089978 113.3390014  80.6889992 138.2419978 113.7130014
  80.5869992 137.1369978 112.6830014  80.2282277 137.6317352 113.3014279
  81.4579992 145.3569978 116.4620014  81.4519992 146.2359978 116.0840014
  80.6039992 145.2729978 116.8870014  81.3417925 145.4659535 116.4676887
  77.5789992 145.0279978 107.2440014  77.3069992 145.2569978 106.3550014
  77.6239992 145.8649978 107.7040014  77.5478709 145.1726058 107.1846107
  91.5039992 134.9359978 115.3740014  90.7679992 135.5459978 115.3360014
  92.1879992 135.3509978 114.8470014  91.4955506 135.0756400 115.2976051
  84.5079992 133.0219978 112.8400014  84.3899992 132.0739978 112.7850014
  83.6529992 133.3549978 113.1130014  84.3762679 132.9371926 112.8693720
  92.3019992 144.8979978 117.5680014  92.4409992 144.3059978 116.8280014
  92.4689992 145.7709978 117.2110014  92.3435562 144.9349896 117.4186283
  86.7739992 141.8599978 107.3400014  86.0629992 142.3949978 106.9880014
  87.4649992 141.9149978 106.6800014  86.7700751 141.9406777 107.2025858
  94.1429992 141.2379978 115.6340014  93.4909992 141.9319978 115.7230014
  94.6089992 141.4479978 114.8240014  94.1165937 141.3615019 115.5367533
  90.1799992 142.0689978 108.2920014  89.4479992 142.2979978 108.8650014
  90.6269992 141.3559978 108.7470014  90.1402753 142.0038972 108.4319715
  90.0769992 140.2439978 117.3600014  90.1569992 141.0069978 117.9310014
  89.4759992 140.5229978 116.6690014  90.0067245 140.3862630 117.3448424
  81.8249992 142.6999978 110.1740014  81.4949992 142.3289978 109.3560014
  82.4139992 142.0289978 110.5210014  81.8593970 142.5586063 110.1089404
  82.1919992 141.4679978 113.8080014  82.7569992 141.5899978 113.0450014
  82.5109992 142.1059978 114.4470014  82.3123977 141.5708851 113.7899424
  89.0509992 141.2319978 105.9770014  89.6299992 141.3819978 106.7240014
  89.4649992 141.7019978 105.2540014  89.1863122 141.3161277 105.9815042
  79.9919992 142.0659978 117.7540014  80.0619992 142.7169978 118.4520014
  79.1009992 142.1689978 117.4190014  79.8811802 142.1689757 117.8042249
  92.7499992 132.9819978 105.7900014  91.8499992 133.1209978 106.0850014
  93.0019992 133.8129978 105.3880014  92.6608683 133.1134055 105.7760232
  80.8159992 141.7689978 107.7640014  80.5239992 142.5369978 107.2730014
  80.1409992 141.1099978 107.6010014  80.6848497 141.7849745 107.6748260
  76.9089992 144.1319978 116.5790014  76.4069992 144.1039978 115.7640014
  76.9139992 143.2269978 116.8880014  76.8410416 144.0057368 116.5093766
  92.0089992 139.0719978 119.6250014  91.6009992 139.5519978 118.9050014
  92.0489992 138.1659978 119.3170014  91.9585476 139.0153160 119.4848247
  79.1579992 145.4559978 117.6220014  79.3739992 145.0939978 118.4810014
  78.3019992 145.0809978 117.4120014  79.0719354 145.3557906 117.7112160
  81.7759992 133.9259978 113.6170014  80.9149992 133.8389978 113.2100014
  81.7539992 134.7819978 114.0450014  81.6550411 134.0297884 113.6190857
  86.4389992 133.6479978 116.9920014  86.8589992 133.2329978 117.7450014
  85.5059992 133.4689978 117.1090014  86.3703736 133.5669910 117.1108968
  89.7659992 137.4029978 117.8450014  89.2519992 137.2779978 118.6430014
  89.6099992 138.3159978 117.6010014  89.6746967 137.5092123 117.9210937
  90.5279992 142.2639978 103.6070014  90.5699992 142.0419978 102.6770014
  91.3769992 142.6629978 103.7970014  90.6485253 142.2875498 103.5053822
  86.1009992 136.1399978 104.2770014  85.8469992 136.1589978 105.2000014
  85.8439992 135.2689978 103.9760014  86.0315133 136.0248110 104.3625082
  81.8669992 138.8909978 114.7120014  81.2259992 138.8509978 115.4210014
  81.9049992 139.8179978 114.4750014  81.7843670 139.0107795 114.7770550
  81.8639992 139.1119978 109.6240014  80.9719992 138.7719978 109.5660014
  82.3149992 138.7349978 108.8690014  81.8026815 139.0143762 109.5139203
  87.3999992 139.5279978 108.4410014  86.9909992 140.3429978 108.1500014
  88.1199992 139.3879978 107.8270014  87.4414013 139.6206571 108.3180875
  86.5019992 139.7039978 119.9290014  85.9389992 138.9989978 120.2500014
  87.3279992 139.5829978 120.3970014  86.5366674 139.5912165 120.0361751
  88.4049992 138.9739978 111.2550014  88.2089992 139.5799978 110.5400014
  88.5859992 138.1409978 110.8210014  88.4026584 138.9442513 111.0984212
  79.6169992 139.2119978 116.5790014  79.5789992 139.6119978 117.4480014
  79.1269992 138.3949978 116.6700014  79.5455621 139.1562510 116.7101377
  82.9829992 136.5859978 103.3780014  82.5519992 136.1409978 104.1080014
  82.2649992 136.9569978 102.8660014  82.8269363 136.5752968 103.4086211
  76.2259992 136.3279978 110.4300014  76.8559992 136.2989978 111.1490014
  76.6749992 135.9029978 109.7000014  76.3730692 136.2665316 110.4297771
  77.4999992 137.0739978 105.8540014  77.9739992 137.6649978 105.2690014
  76.7819992 137.6039978 106.2010014  77.4678640 137.2265511 105.8207969
  87.6689992 140.6119978 115.9270014  87.9919992 139.9809978 115.2840014
  87.2279992 140.0779978 116.5870014  87.6535789 140.4533522 115.9282232
  84.4459992 136.5399978 110.7110014  83.5349992 136.5969978 110.9990014
  84.9509992 136.4799978 111.5210014  84.3895387 136.5396870 110.8600646
  79.2739992 138.1689978 109.5370014  78.3849992 138.2679978 109.1970014
  79.5709992 137.3269978 109.1910014  79.1924177 138.0687687 109.4436940
  82.9269992 138.1689978 107.1940014  83.8589992 138.2979978 107.3720014
  82.7119992 138.8379978 106.5440014  83.0254472 138.2770806 107.1304891
  88.8509992 135.7749978 113.9750014  88.1739992 135.9059978 114.6390014
  88.3659992 135.6199978 113.1650014  88.6927265 135.7719659 113.9563397
  79.7369992 143.9199978 119.8600014  80.4689992 144.1749978 120.4210014
  78.9559992 144.1249978 120.3750014  79.7317684 143.9826468 120.0064782
  85.7659992 139.3269978 112.5980014  86.3299992 138.7809978 112.0510014
  85.6179992 138.8059978 113.3860014  85.8232575 139.1816552 112.6296987
  80.7679992 135.4639978 109.0160014  80.4509992 134.5609978 108.9810014
  81.5489992 135.4659978 108.4630014  80.8302307 135.3406951 108.9364314
  84.3919992 137.7159978 115.0120014  83.5569992 138.1699978 115.1220014
  84.9159992 137.9919978 115.7640014  84.3485070 137.8154666 115.1287152
  84.9369992 143.9289978 106.6960014  84.1919992 143.4209978 106.3740014
  84.8019992 143.9779978 107.6430014  84.8169047 143.8661596 106.7798845
  92.0869992 143.0619978 115.4830014  92.7279992 143.5179978 114.9390014
  91.2559992 143.1749978 115.0210014  92.0625171 143.1397502 115.3460237
  86.4559992 144.1129978 117.9330014  86.1099992 143.7309978 118.7400014
  86.2559992 145.0459978 118.0050014  86.3816523 144.1869095 118.0530735
  89.5529992 138.6099978 106.5560014  90.4449992 138.4719978 106.8750014
  89.6089992 139.4009978 106.0200014  89.6827107 138.6980526 106.5272091
  80.0609992 143.2239978 112.4660014  80.8059992 143.2209978 111.8650014
  80.1389992 142.3999978 112.9480014  80.1734158 143.1122916 112.4489153
  87.0619992 145.3869978 105.7220014  86.7669992 146.2139978 106.1030014
  86.3589992 144.7679978 105.9180014  86.9265471 145.4165227 105.8006698
  77.0689992 141.6839978 117.7810014  77.2919992 141.2659978 118.6130014
  76.4669992 141.0719978 117.3580014  77.0181260 141.5439933 117.8377320
  84.0859992 141.2009978 119.9940014  83.7899992 141.0359978 119.0990014
  85.0169992 140.9809978 119.9830014  84.1713982 141.1486578 119.8700045
  94.4379992 138.8189978 106.2510014  93.8829992 138.4229978 105.5790014
  94.5379992 139.7299978 105.9730014  94.3755888 138.8878990 106.1215206
  94.4009992 144.6199978 119.0880014  93.5499992 144.8579978 118.7210014
  94.9909992 144.6029978 118.3350014  94.3642408 144.6502966 118.9358879
  89.8929992 142.4129978 113.7370014  88.9649992 142.1819978 113.7100014
  90.3439992 141.6359978 113.4070014  89.8268165 142.2762774 113.6886790
  83.8639992 144.4049978 109.4470014  83.6229992 145.3299978 109.4880014
  83.1229992 143.9459978 109.8430014  83.7308390 144.4696403 109.5061404
  87.9219992 144.6529978 115.4620014  87.4969992 144.4249978 116.2890014
  88.5029992 143.9139978 115.2800014  87.9423930 144.5219843 115.5504731
  78.7029992 136.4379978 117.3390014  77.8109992 136.7759978 117.2720014
  78.6049992 135.5819978 117.7570014  78.5674965 136.3686499 117.3863044
  90.9909992 144.2539978 106.7630014  90.7139992 143.5259978 107.3190014
  91.9189992 144.3729978 106.9680014  91.0784499 144.1704213 106.8668044
  79.6059992 143.5159978 105.9500014  78.9199992 143.8689978 106.5170014
  80.1289992 144.2789978 105.7040014  79.5829033 143.6673746 105.9942661
  87.4379992 136.1789978 116.2290014  88.1369992 136.2529978 116.8790014
  87.0569992 135.3139978 116.3830014  87.4822097 136.0722389 116.3387997
  88.2219992 135.8309978 107.3260014  88.4419992 136.3019978 106.5230014
  88.7809992 136.2249978 107.9960014  88.3276730 135.9487432 107.3065906
  85.4219992 137.5589978 108.1610014  86.2339992 138.0629978 108.2070014
  85.1779992 137.4139978 109.0750014  85.5001467 137.6083749 108.2908575
  85.9579992 138.5449978 117.3460014  86.0769992 139.1189978 118.1030014
  86.6129992 137.8569978 117.4600014  86.0629146 138.5305574 117.4651314
  86.3059992 134.6399978 109.0990014  85.9589992 135.2569978 109.7440014
  86.9649992 135.1409978 108.6180014  86.3475949 134.7921099 109.1222271
  92.1619992 136.4519978 118.1810014  91.2459992 136.7139978 118.0930014
  92.4979992 136.4489978 117.2840014  92.0819789 136.4874626 118.0477847
  90.7649992 140.2019978 112.2760014  89.9669992 139.7869978 111.9480014
  91.2099992 139.5119978 112.7670014  90.7159684 140.0518628 112.2975227
  79.3459992 133.5759978 112.6360014  79.1169992 133.6349978 111.7080014
  78.9039992 132.7849978 112.9420014  79.2548801 133.4770540 112.5504729
  77.4719992 143.9399978 121.0810014  77.6159992 143.0379978 120.7940014
  76.6999992 144.2259978 120.5930014  77.3873303 143.8553243 120.9757908
  84.1269992 143.9089978 120.5130014  83.7989992 144.1799978 119.6560014
  84.2789992 142.9679978 120.4260014  84.1026030 143.8188973 120.3837945
  87.1659992 145.3299978 102.9490014  86.8969992 145.5109978 103.8500014
  86.9589992 144.4049978 102.8180014  87.1012000 145.2296774 103.0545693
  89.8619992 143.8249978 117.8970014  90.6069992 144.4139978 117.7770014
  89.1049992 144.4069978 117.9600014  89.8615205 143.9841997 117.8891119
  78.3049992 141.1399978 120.5010014  78.7129992 140.2829978 120.3800014
  78.0439992 141.1539978 121.4220014  78.3256016 141.0245119 120.6089192
  82.9629992 142.2559978 105.5190014  82.5029992 141.7719978 106.2050014
  83.2179992 141.5869978 104.8830014  82.9345038 142.0993689 105.5269447
  82.2519992 140.1489978 117.8750014  81.6329992 140.8229978 118.1550014
  82.5959992 140.4699978 117.0420014  82.2137605 140.2847198 117.8006707
  87.2709992 142.6199978 121.1520014  88.2249992 142.7039978 121.1250014
  87.1109992 141.9079978 121.7720014  87.3797182 142.5352842 121.2320733
  93.4239992 142.8529978 103.2270014  93.1499992 142.4289978 102.4140014
  93.4629992 143.7849978 103.0100014  93.3917716 142.9208827 103.0864286
  82.5909992 137.5039978 118.9570014  82.7409992 136.7749978 118.3550014
  82.5929992 138.2809978 118.3980014  82.6117967 137.5092708 118.7990541
  83.0039992 135.8729978 116.4500014  83.5389992 136.3249978 115.7980014
  82.1509992 135.7649978 116.0270014  82.9620374 135.9202665 116.3036710
  84.5849992 141.3129978 116.6890014  85.3359992 141.1569978 116.1160014
  84.2459992 142.1649978 116.4140014  84.6419587 141.4068138 116.5734078
  89.0009992 139.1279978 121.7180014  89.1929992 138.1969978 121.6060014
  89.8589992 139.5529978 121.7080014  89.1432269 139.0579928 121.7013192
  90.3179992 141.9169978 119.7950014  90.0359992 142.6259978 119.2180014
  91.2599992 141.8439978 119.6440014  90.4067656 142.0043128 119.6954809
  81.0699992 138.7019978 120.8690014  80.3019992 138.1689978 120.6590014
  81.7479992 138.3919978 120.2690014  81.0566973 138.5872375 120.7591796
  83.8089992 133.3299978 116.8810014  83.7109992 134.2759978 116.7760014
  83.0669992 132.9569978 116.4060014  83.6951913 133.4091813 116.8023539
  85.0729992 137.6509978 120.4450014  84.8379992 137.4319978 121.3470014
  84.2899992 137.4439978 119.9350014  84.9349219 137.5930066 120.4995852
  87.7889992 136.7789978 119.5210014  86.8409992 136.8109978 119.6530014
  88.1009992 136.1529978 120.1740014  87.7015190 136.6987262 119.6273564
  89.4229992 135.4129978 121.5260014  89.3259992 134.4609978 121.5200014
  89.1009992 135.6809978 122.3860014  89.3661761 135.3189744 121.6414936
  79.2499992 136.6219978 120.5730014  79.4619992 135.9159978 119.9630014
  79.1389992 136.1849978 121.4170014  79.2640269 136.4661921 120.6035873
  84.0309992 132.6239978 119.5530014  84.7429992 131.9839978 119.5390014
  83.9299992 132.8899978 118.6390014  84.1147261 132.5724190 119.4275537
  84.3849992 134.3059978 121.6060014  84.2529992 133.8309978 120.7860014
  83.7849992 135.0509978 121.5510014  84.2859070 134.3415789 121.4863251
  92.5809992 145.4659978 121.6880014  91.7149992 145.3609978 122.0820014
  92.9569992 146.2239978 122.1340014  92.5133401 145.5541708 121.8022620
  93.8819992 143.7219978 107.2020014  94.7319992 144.1429978 107.3290014
  93.8869992 142.9819978 107.8090014  93.9991143 143.6796094 107.3014750
  94.2759992 141.7759978 109.0260014  93.5499992 141.2959978 109.4230014
  94.8579992 141.9809978 109.7580014  94.2551635 141.7379166 109.1793748
  94.0349992 144.5609978 113.9730014  94.8689992 144.1829978 113.6930014
  94.1469992 145.5039978 113.8540014  94.1642522 144.6367742 113.9186020
  94.5449992 141.6769978 105.4170014  94.0229992 142.0329978 104.6980014
  94.5119992 142.3519978 106.0950014  94.4690699 141.8169848 105.4102129
  92.0629992 140.2969978 109.5890014  91.9129992 139.3519978 109.5680014
  91.7089992 140.5779978 110.4320014  91.9945527 140.2055605 109.7001859
  77.0979992 142.3749978 113.5990014  77.2829992 142.2929978 112.6630014
  77.9479992 142.2509978 114.0230014  77.2380916 142.3470393 113.5282896
  92.9189992 142.2669978 119.2270014  93.5019992 141.5319978 119.4190014
  93.4829992 143.0389978 119.2740014  93.0749781 142.2708145 119.2596164
  94.4159992 140.1699978 119.9120014  93.5529992 139.7909978 119.7460014
  95.0199992 139.4309978 119.8380014  94.3795944 140.0182978 119.8792984
  91.7739992 137.8789978 108.0510014  92.0529992 136.9719978 108.1750014
  92.5329992 138.3129978 107.6620014  91.9148619 137.8134502 108.0153795
  92.3849992 138.4609978 113.4870014  93.3179992 138.6729978 113.4530014
  92.1499992 138.5619978 114.4090014  92.4808308 138.5036503 113.6070214
  92.4149992 139.1979978 116.2630014  91.5719992 139.4659978 116.6290014
  92.8569992 140.0199978 116.0520014  92.3594138 139.3458273 116.2845518
  76.6959992 137.6449978 119.7400014  77.6149992 137.5229978 119.9760014
  76.2459992 136.8949978 120.1290014  76.7611148 137.5268751 119.8249408
  94.6979992 133.1779978 121.6160014  95.0469992 132.5239978 121.0110014
  94.8449992 134.0149978 121.1770014  94.7657355 133.2016067 121.4736564
  92.3869992 135.1419978 108.0990014  92.5689992 134.6929978 108.9250014
  91.7869992 134.5579978 107.6360014  92.3307529 135.0016131 108.1493619
  77.9169992 135.9579978 112.6310014  78.3619992 135.1659978 112.9330014
  78.3829992 136.6739978 113.0620014  78.0409059 135.9464474 112.7306079
  76.2209992 138.9569978 113.7000014  76.7129992 138.7359978 112.9090014
  76.5829992 139.7969978 113.9810014  76.3372923 139.0403468 113.6297407
  94.2169992 135.2869978 119.9660014  93.2999992 135.5579978 119.9300014
  94.3399992 134.7519978 119.1820014  94.1080828 135.2517700 119.8550785
  76.5349992 135.2149978 107.7540014  75.6099992 135.4229978 107.6250014
  76.9889992 135.6989978 107.0650014  76.4696374 135.3089949 107.6430957
  76.4979992 133.9529978 116.0990014  75.8329992 133.7069978 116.7420014
  76.0549992 134.5749978 115.5210014  76.3470937 134.0033614 116.1089379
  93.2179992 133.3769978 117.7850014  92.4049992 133.7019978 117.3970014
  93.4509992 132.6159978 117.2520014  93.1382566 133.3186559 117.6599213
  86.6479992 134.8259978 112.1070014  85.9739992 134.1959978 112.3630014
  87.2119992 134.3419978 111.5040014  86.6320384 134.6743708 112.0605020
  91.7909992 132.9329978 112.2200014  92.3939992 133.4809978 111.7180014
  90.9209992 133.2519978 111.9800014  91.7559190 133.0511041 112.1188679
  93.5179992 134.0719978 110.5530014  94.1289992 133.5579978 110.0270014
  93.8999992 134.9489978 110.5770014  93.6534475 134.1201323 110.4841208
  78.9749992 133.4599978 109.9290014  78.1979992 133.2249978 109.4220014
  79.5049992 132.6629978 109.9380014  78.9403451 133.3201268 109.8608627
  77.8109992 133.2579978 105.7330014  78.2499992 133.8689978 105.1410014
  77.1769992 133.7959978 106.2070014  77.7853859 133.4144064 105.7160305
  83.5539992 133.3859978 109.7430014  84.4279992 133.7749978 109.7130014
  83.4179992 133.1709978 110.6650014  83.6553207 133.4101923 109.8636509
  89.1109992 133.4159978 111.3920014  89.1869992 133.5119978 110.4430014
  88.8359992 132.5089978 111.5210014  89.0842042 133.3064241 111.2793811
  90.4639992 133.4419978 107.0840014  89.7609992 134.0569978 106.8750014
  90.0189992 132.6049978 107.2160014  90.3076292 133.4130085 107.0732439
  84.6979992 135.4669978 106.6330014  84.8759992 134.8199978 107.3150014
  84.6439992 136.3009978 107.1000014  84.7151025 135.4910504 106.7896433
  78.9319992 133.9739978 119.4470014  78.5659992 133.2079978 119.8900014
  79.8449992 134.0029978 119.7340014  79.0053225 133.8731906 119.5463459
  80.9049992 133.3239978 120.9830014  81.8039992 133.0499978 120.7980014
  80.5189992 132.5819978 121.4470014  80.9757237 133.1861508 121.0204710
  89.3269992 132.6569978 121.1650014  89.4029992 132.2309978 122.0190014
  90.2199992 132.6699978 120.8220014  89.4582267 132.6003952 121.2355932
 106.9089992 142.6159978 109.8880014 106.9979992 143.5599978 109.7560014
 106.2709992 142.3409978 109.2300014 106.8349062 142.7079812 109.7809641
 105.8419992 141.8709978 113.3070014 105.8039992 141.2249978 114.0120014
 105.5199992 141.4039978 112.5360014 105.7932679 141.7194276 113.2992921
  98.2099992 141.4849978 114.9000014  98.2519992 140.8599978 115.6230014
  98.9129992 142.1089978 115.0820014  98.3107345 141.4837873 115.0235274
 109.5479992 144.8099978 111.6090014 109.1069992 144.0899978 112.0590014
 109.5349992 145.5309978 112.2380014 109.4857960 144.8088329 111.7557567
  95.7439992 139.5949978 108.8280014  95.2959992 140.4409978 108.8090014
  95.1829992 139.0159978 108.3120014  95.6069603 139.6323674 108.7556720
  96.4539992 141.7569978 110.9540014  96.6679992 140.9869978 111.4810014
  97.1919992 141.8469978 110.3500014  96.5829652 141.6638012 110.9445212
 104.2309992 144.3029978 113.7130014 104.5349992 143.6169978 113.1190014
 104.9529992 144.4219978 114.3310014 104.3701152 144.2252189 113.7152123
 112.8939992 135.9049978 114.5740014 112.9439992 136.5149978 115.3100014
 113.3199992 136.3659978 113.8510014 112.9584108 136.0507709 114.5770112
 107.3719992 138.6969978 114.0410014 107.5149992 137.7509978 114.0610014
 107.2659992 138.9039978 113.1120014 107.3772509 138.5954813 113.9182231
 100.5269992 136.7989978 111.3130014 100.5699992 137.6589978 110.8950014
 100.0689992 136.2469978 110.6790014 100.4709815 136.8420621 111.1701197
 108.2489992 136.9299978 109.7140014 108.8959992 136.6009978 110.3390014
 108.7589992 137.4469978 109.0910014 108.4064317 136.9549227 109.7152167
  97.1469992 139.1959978 112.0750014  97.8009992 138.6459978 112.5070014
  97.1709992 138.9219978 111.1580014  97.2397199 139.0837167 112.0101668
 102.3039992 140.7459978 111.2900014 102.9199992 140.2189978 111.8000014
 101.7169992 140.1059978 110.8870014 102.3089239 140.5874117 111.3052952
 113.2859992 137.3829978 116.8100014 112.5969992 138.0409978 116.7140014
 113.3009992 137.1849978 117.7460014 113.1936740 137.4463243 116.9234630
  99.3369992 135.7169978 115.3870014  99.1179992 136.2469978 114.6210014
  98.6689992 135.9429978 116.0340014  99.2167001 135.8201154 115.3696064
 106.7059992 145.2169978 108.9310014 106.4109992 144.8939978 108.0800014
 106.3819992 146.1169978 108.9720014 106.6217983 145.2944027 108.8199771
 101.9059992 143.3919978 115.6750014 101.1659992 143.9909978 115.7780014
 102.6199992 143.9459978 115.3590014 101.9013288 143.5487356 115.6463805
 110.0129992 136.2209978 111.6940014 109.7979992 135.4549978 112.2270014
 110.6689992 136.6929978 112.2070014 110.0722673 136.1800728 111.8361990
  98.9309992 137.6089978 113.3390014  99.5449992 138.2419978 113.7130014
  99.4429992 137.1369978 112.6830014  99.0842277 137.6317352 113.3014279
 100.3139992 145.3569978 116.4620014 100.3079992 146.2359978 116.0840014
  99.4599992 145.2729978 116.8870014 100.1977925 145.4659535 116.4676887
  96.4349992 145.0279978 107.2440014  96.1629992 145.2569978 106.3550014
  96.4799992 145.8649978 107.7040014  96.4038709 145.1726058 107.1846107
 110.3599992 134.9359978 115.3740014 109.6239992 135.5459978 115.3360014
 111.0439992 135.3509978 114.8470014 110.3515506 135.0756400 115.2976051
 103.3639992 133.0219978 112.8400014 103.2459992 132.0739978 112.7850014
 102.5089992 133.3549978 113.1130014 103.2322679 132.9371926 112.8693720
 111.1579992 144.8979978 117.5680014 111.2969992 144.3059978 116.8280014
 111.3249992 145.7709978 117.2110014 111.1995562 144.9349896 117.4186283
 105.6299992 141.8599978 107.3400014 104.9189992 142.3949978 106.9880014
 106.3209992 141.9149978 106.6800014 105.6260751 141.9406777 107.2025858
 112.9989992 141.2379978 115.6340014 112.3469992 141.9319978 115.7230014
 113.4649992 141.4479978 114.8240014 112.9725937 141.3615019 115.5367533
 109.0359992 142.0689978 108.2920014 108.3039992 142.2979978 108.8650014
 109.4829992 141.3559978 108.7470014 108.9962753 142.0038972 108.4319715
 108.9329992 140.2439978 117.3600014 109.0129992 141.0069978 117.9310014
 108.3319992 140.5229978 116.6690014 108.8627245 140.3862630 117.3448424
 100.6809992 142.6999978 110.1740014 100.3509992 142.3289978 109.3560014
 101.2699992 142.0289978 110.5210014 100.7153970 142.5586063 110.1089404
 101.0479992 141.4679978 113.8080014 101.6129992 141.5899978 113.0450014
 101.3669992 142.1059978 114.4470014 101.1683977 141.5708851 113.7899424
  98.8479992 142.0659978 117.7540014  98.9179992 142.7169978 118.4520014
  97.9569992 142.1689978 117.4190014  98.7371802 142.1689757 117.8042249
 111.6059992 132.9819978 105.7900014 110.7059992 133.1209978 106.0850014
 111.8579992 133.8129978 105.3880014 111.5168683 133.1134055 105.7760232
  99.6719992 141.7689978 107.7640014  99.3799992 142.5369978 107.2730014
  98.9969992 141.1099978 107.6010014  99.5408497 141.7849745 107.6748260
  95.7649992 144.1319978 116.5790014  95.2629992 144.1039978 115.7640014
  95.7699992 143.2269978 116.8880014  95.6970416 144.0057368 116.5093766
 110.8649992 139.0719978 119.6250014 110.4569992 139.5519978 118.9050014
 110.9049992 138.1659978 119.3170014 110.8145476 139.0153160 119.4848247
  98.0139992 145.4559978 117.6220014  98.2299992 145.0939978 118.4810014
  97.1579992 145.0809978 117.4120014  97.9279354 145.3557906 117.7112160
 100.6319992 133.9259978 113.6170014  99.7709992 133.8389978 113.2100014
 100.6099992 134.7819978 114.0450014 100.5110411 134.0297884 113.6190857
 105.2949992 133.6479978 116.9920014 105.7149992 133.2329978 117.7450014
 104.3619992 133.4689978 117.1090014 105.2263736 133.5669910 117.1108968
 108.6219992 137.4029978 117.8450014 108.1079992 137.2779978 118.6430014
 108.4659992 138.3159978 117.6010014 108.5306967 137.5092123 117.9210937
 100.7229992 138.8909978 114.7120014 100.0819992 138.8509978 115.4210014
 100.7609992 139.8179978 114.4750014 100.6403670 139.0107795 114.7770550
 100.7199992 139.1119978 109.6240014  99.8279992 138.7719978 109.5660014
 101.1709992 138.7349978 108.8690014 100.6586815 139.0143762 109.5139203
 106.2559992 139.5279978 108.4410014 105.8469992 140.3429978 108.1500014
 106.9759992 139.3879978 107.8270014 106.2974013 139.6206571 108.3180875
 105.3579992 139.7039978 119.9290014 104.7949992 138.9989978 120.2500014
 106.1839992 139.5829978 120.3970014 105.3926674 139.5912165 120.0361751
 107.2609992 138.9739978 111.2550014 107.0649992 139.5799978 110.5400014
 107.4419992 138.1409978 110.8210014 107.2586584 138.9442513 111.0984212
  98.4729992 139.2119978 116.5790014  98.4349992 139.6119978 117.4480014
  97.9829992 138.3949978 116.6700014  98.4015621 139.1562510 116.7101377
  95.0819992 136.3279978 110.4300014  95.7119992 136.2989978 111.1490014
  95.5309992 135.9029978 109.7000014  95.2290692 136.2665316 110.4297771
 106.5249992 140.6119978 115.9270014 106.8479992 139.9809978 115.2840014
 106.0839992 140.0779978 116.5870014 106.5095789 140.4533522 115.9282232
 103.3019992 136.5399978 110.7110014 102.3909992 136.5969978 110.9990014
 103.8069992 136.4799978 111.5210014 103.2455387 136.5396870 110.8600646
  98.1299992 138.1689978 109.5370014  97.2409992 138.2679978 109.1970014
  98.4269992 137.3269978 109.1910014  98.0484177 138.0687687 109.4436940
 101.7829992 138.1689978 107.1940014 102.7149992 138.2979978 107.3720014
 101.5679992 138.8379978 106.5440014 101.8814472 138.2770806 107.1304891
 107.7069992 135.7749978 113.9750014 107.0299992 135.9059978 114.6390014
 107.2219992 135.6199978 113.1650014 107.5487265 135.7719659 113.9563397
 100.4569992 139.3629978 104.7610014  99.9149992 138.9839978 104.0690014
 101.2909992 139.5579978 104.3320014 100.4955159 139.3375076 104.6084419
  98.5929992 143.9199978 119.8600014  99.3249992 144.1749978 120.4210014
  97.8119992 144.1249978 120.3750014  98.5877684 143.9826468 120.0064782
 104.6219992 139.3269978 112.5980014 105.1859992 138.7809978 112.0510014
 104.4739992 138.8059978 113.3860014 104.6792575 139.1816552 112.6296987
  99.6239992 135.4639978 109.0160014  99.3069992 134.5609978 108.9810014
 100.4049992 135.4659978 108.4630014  99.6862307 135.3406951 108.9364314
 103.2479992 137.7159978 115.0120014 102.4129992 138.1699978 115.1220014
 103.7719992 137.9919978 115.7640014 103.2045070 137.8154665 115.1287152
 103.7929992 143.9289978 106.6960014 103.0479992 143.4209978 106.3740014
 103.6579992 143.9779978 107.6430014 103.6729047 143.8661596 106.7798845
 110.9429992 143.0619978 115.4830014 111.5839992 143.5179978 114.9390014
 110.1119992 143.1749978 115.0210014 110.9185171 143.1397502 115.3460237
 107.6899992 136.7429978 104.8960014 106.7519992 136.8539978 104.7440014
 107.9879992 137.5989978 105.2020014 107.6016402 136.8740621 104.9165571
 105.3119992 144.1129978 117.9330014 104.9659992 143.7309978 118.7400014
 105.1119992 145.0459978 118.0050014 105.2376523 144.1869095 118.0530735
 108.4089992 138.6099978 106.5560014 109.3009992 138.4719978 106.8750014
 108.4649992 139.4009978 106.0200014 108.5387107 138.6980526 106.5272091
  98.9169992 143.2239978 112.4660014  99.6619992 143.2209978 111.8650014
  98.9949992 142.3999978 112.9480014  99.0294158 143.1122916 112.4489153
 105.9179992 145.3869978 105.7220014 105.6229992 146.2139978 106.1030014
 105.2149992 144.7679978 105.9180014 105.7825471 145.4165227 105.8006698
  95.9249992 141.6839978 117.7810014  96.1479992 141.2659978 118.6130014
  95.3229992 141.0719978 117.3580014  95.8741260 141.5439933 117.8377320
 102.9419992 141.2009978 119.9940014 102.6459992 141.0359978 119.0990014
 103.8729992 140.9809978 119.9830014 103.0273982 141.1486578 119.8700045
 113.2939992 138.8189978 106.2510014 112.7389992 138.4229978 105.5790014
 113.3939992 139.7299978 105.9730014 113.2315888 138.8878990 106.1215206
 113.2569992 144.6199978 119.0880014 112.4059992 144.8579978 118.7210014
 113.8469992 144.6029978 118.3350014 113.2202408 144.6502966 118.9358879
 108.7489992 142.4129978 113.7370014 107.8209992 142.1819978 113.7100014
 109.1999992 141.6359978 113.4070014 108.6828165 142.2762774 113.6886790
  97.0469992 141.6039978 104.4580014  97.6629992 142.2309978 104.8370014
  96.1849992 141.9199978 104.7290014  97.0148195 141.7325798 104.5465386
 102.7199992 144.4049978 109.4470014 102.4789992 145.3299978 109.4880014
 101.9789992 143.9459978 109.8430014 102.5868390 144.4696403 109.5061404
 106.7779992 144.6529978 115.4620014 106.3529992 144.4249978 116.2890014
 107.3589992 143.9139978 115.2800014 106.7983930 144.5219843 115.5504732
  97.5589992 136.4379978 117.3390014  96.6669992 136.7759978 117.2720014
  97.4609992 135.5819978 117.7570014  97.4234965 136.3686499 117.3863044
 109.8469992 144.2539978 106.7630014 109.5699992 143.5259978 107.3190014
 110.7749992 144.3729978 106.9680014 109.9344499 144.1704213 106.8668044
  98.4619992 143.5159978 105.9500014  97.7759992 143.8689978 106.5170014
  98.9849992 144.2789978 105.7040014  98.4389033 143.6673746 105.9942661
 106.2939992 136.1789978 116.2290014 106.9929992 136.2529978 116.8790014
 105.9129992 135.3139978 116.3830014 106.3382097 136.0722389 116.3387997
 107.0779992 135.8309978 107.3260014 107.2979992 136.3019978 106.5230014
 107.6369992 136.2249978 107.9960014 107.1836730 135.9487432 107.3065906
 104.2779992 137.5589978 108.1610014 105.0899992 138.0629978 108.2070014
 104.0339992 137.4139978 109.0750014 104.3561467 137.6083749 108.2908575
 104.8139992 138.5449978 117.3460014 104.9329992 139.1189978 118.1030014
 105.4689992 137.8569978 117.4600014 104.9189146 138.5305574 117.4651313
 105.1619992 134.6399978 109.0990014 104.8149992 135.2569978 109.7440014
 105.8209992 135.1409978 108.6180014 105.2035949 134.7921099 109.1222271
 100.8199992 135.7029978 105.7860014 100.7359992 136.5909978 106.1330014
 101.7099992 135.4379978 106.0180014 100.9288163 135.7887179 105.8648596
 111.0179992 136.4519978 118.1810014 110.1019992 136.7139978 118.0930014
 111.3539992 136.4489978 117.2840014 110.9379789 136.4874626 118.0477847
 109.6209992 140.2019978 112.2760014 108.8229992 139.7869978 111.9480014
 110.0659992 139.5119978 112.7670014 109.5719684 140.0518628 112.2975227
  98.2019992 133.5759978 112.6360014  97.9729992 133.6349978 111.7080014
  97.7599992 132.7849978 112.9420014  98.1108801 133.4770540 112.5504729
  96.3279992 143.9399978 121.0810014  96.4719992 143.0379978 120.7940014
  95.5559992 144.2259978 120.5930014  96.2433303 143.8553243 120.9757908
 102.9829992 143.9089978 120.5130014 102.6549992 144.1799978 119.6560014
 103.1349992 142.9679978 120.4260014 102.9586030 143.8188973 120.3837945
 106.0219992 145.3299978 102.9490014 105.7529992 145.5109978 103.8500014
 105.8149992 144.4049978 102.8180014 105.9572000 145.2296774 103.0545693
 108.7179992 143.8249978 117.8970014 109.4629992 144.4139978 117.7770014
 107.9609992 144.4069978 117.9600014 108.7175205 143.9841997 117.8891119
  97.1609992 141.1399978 120.5010014  97.5689992 140.2829978 120.3800014
  96.8999992 141.1539978 121.4220014  97.1816016 141.0245119 120.6089192
 101.1079992 140.1489978 117.8750014 100.4889992 140.8229978 118.1550014
 101.4519992 140.4699978 117.0420014 101.0697605 140.2847198 117.8006707
 106.1269992 142.6199978 121.1520014 107.0809992 142.7039978 121.1250014
 105.9669992 141.9079978 121.7720014 106.2357182 142.5352842 121.2320733
 101.4469992 137.5039978 118.9570014 101.5969992 136.7749978 118.3550014
 101.4489992 138.2809978 118.3980014 101.4677967 137.5092708 118.7990541
 101.8599992 135.8729978 116.4500014 102.3949992 136.3249978 115.7980014
 101.0069992 135.7649978 116.0270014 101.8180374 135.9202665 116.3036710
 103.4409992 141.3129978 116.6890014 104.1919992 141.1569978 116.1160014
 103.1019992 142.1649978 116.4140014 103.4979587 141.4068138 116.5734078
 107.8569992 139.1279978 121.7180014 108.0489992 138.1969978 121.6060014
 108.7149992 139.5529978 121.7080014 107.9992269 139.0579928 121.7013192
 109.1739992 141.9169978 119.7950014 108.8919992 142.6259978 119.2180014
 110.1159992 141.8439978 119.6440014 109.2627656 142.0043128 119.6954809
  99.9259992 138.7019978 120.8690014  99.1579992 138.1689978 120.6590014
 100.6039992 138.3919978 120.2690014  99.9126973 138.5872375 120.7591796
 102.6649992 133.3299978 116.8810014 102.5669992 134.2759978 116.7760014
 101.9229992 132.9569978 116.4060014 102.5511913 133.4091813 116.8023539
 103.9289992 137.6509978 120.4450014 103.6939992 137.4319978 121.3470014
 103.1459992 137.4439978 119.9350014 103.7909219 137.5930066 120.4995852
 106.6449992 136.7789978 119.5210014 105.6969992 136.8109978 119.6530014
 106.9569992 136.1529978 120.1740014 106.5575190 136.6987262 119.6273564
 108.2789992 135.4129978 121.5260014 108.1819992 134.4609978 121.5200014
 107.9569992 135.6809978 122.3860014 108.2221761 135.3189744 121.6414936
  98.1059992 136.6219978 120.5730014  98.3179992 135.9159978 119.9630014
  97.9949992 136.1849978 121.4170014  98.1200269 136.4661921 120.6035873
 102.8869992 132.6239978 119.5530014 103.5989992 131.9839978 119.5390014
 102.7859992 132.8899978 118.6390014 102.9707261 132.5724190 119.4275537
 103.2409992 134.3059978 121.6060014 103.1089992 133.8309978 120.7860014
 102.6409992 135.0509978 121.5510014 103.1419070 134.3415789 121.4863251
 111.4369992 145.4659978 121.6880014 110.5709992 145.3609978 122.0820014
 111.8129992 146.2239978 122.1340014 111.3693401 145.5541708 121.8022620
 112.7379992 143.7219978 107.2020014 113.5879992 144.1429978 107.3290014
 112.7429992 142.9819978 107.8090014 112.8551143 143.6796094 107.3014750
 113.1319992 141.7759978 109.0260014 112.4059992 141.2959978 109.4230014
 113.7139992 141.9809978 109.7580014 113.1111635 141.7379166 109.1793748
 112.8909992 144.5609978 113.9730014 113.7249992 144.1829978 113.6930014
 113.0029992 145.5039978 113.8540014 113.0202522 144.6367742 113.9186020
 113.4009992 141.6769978 105.4170014 112.8789992 142.0329978 104.6980014
 113.3679992 142.3519978 106.0950014 113.3250699 141.8169848 105.4102129
 111.7499992 138.9159978 103.9680014 111.8459992 139.5829978 103.2880014
 111.6099992 138.1009978 103.4860014 111.7442063 138.8970667 103.8098377
 110.9189992 140.2969978 109.5890014 110.7689992 139.3519978 109.5680014
 110.5649992 140.5779978 110.4320014 110.8505527 140.2055605 109.7001859
  95.9539992 142.3749978 113.5990014  96.1389992 142.2929978 112.6630014
  96.8039992 142.2509978 114.0230014  96.0940916 142.3470393 113.5282896
 111.7749992 142.2669978 119.2270014 112.3579992 141.5319978 119.4190014
 112.3389992 143.0389978 119.2740014 111.9309781 142.2708145 119.2596164
 113.2719992 140.1699978 119.9120014 112.4089992 139.7909978 119.7460014
 113.8759992 139.4309978 119.8380014 113.2355944 140.0182978 119.8792984
 110.6299992 137.8789978 108.0510014 110.9089992 136.9719978 108.1750014
 111.3889992 138.3129978 107.6620014 110.7708619 137.8134502 108.0153795
 111.2409992 138.4609978 113.4870014 112.1739992 138.6729978 113.4530014
 111.0059992 138.5619978 114.4090014 111.3368308 138.5036503 113.6070214
 111.2709992 139.1979978 116.2630014 110.4279992 139.4659978 116.6290014
 111.7129992 140.0199978 116.0520014 111.2154138 139.3458273 116.2845518
  95.5519992 137.6449978 119.7400014  96.4709992 137.5229978 119.9760014
  95.1019992 136.8949978 120.1290014  95.6171148 137.5268751 119.8249408
 113.5539992 133.1779978 121.6160014 113.9029992 132.5239978 121.0110014
 113.7009992 134.0149978 121.1770014 113.6217355 133.2016067 121.4736564
 111.2429992 135.1419978 108.0990014 111.4249992 134.6929978 108.9250014
 110.6429992 134.5579978 107.6360014 111.1867529 135.0016131 108.1493619
  96.7729992 135.9579978 112.6310014  97.2179992 135.1659978 112.9330014
  97.2389992 136.6739978 113.0620014  96.8969059 135.9464474 112.7306079
  95.0769992 138.9569978 113.7000014  95.5689992 138.7359978 112.9090014
  95.4389992 139.7969978 113.9810014  95.1932923 139.0403468 113.6297407
 113.0729992 135.2869978 119.9660014 112.1559992 135.5579978 119.9300014
 113.1959992 134.7519978 119.1820014 112.9640828 135.2517700 119.8550785
  95.3909992 135.2149978 107.7540014  94.4659992 135.4229978 107.6250014
  95.8449992 135.6989978 107.0650014  95.3256374 135.3089949 107.6430957
  95.3539992 133.9529978 116.0990014  94.6889992 133.7069978 116.7420014
  94.9109992 134.5749978 115.5210014  95.2030937 134.0033614 116.1089379
 112.0739992 133.3769978 117.7850014 111.2609992 133.7019978 117.3970014
 112.3069992 132.6159978 117.2520014 111.9942566 133.3186559 117.6599213
 105.5039992 134.8259978 112.1070014 104.8299992 134.1959978 112.3630014
 106.0679992 134.3419978 111.5040014 105.4880384 134.6743708 112.0605020
 110.6469992 132.9329978 112.2200014 111.2499992 133.4809978 111.7180014
 109.7769992 133.2519978 111.9800014 110.6119190 133.0511041 112.1188679
 112.3739992 134.0719978 110.5530014 112.9849992 133.5579978 110.0270014
 112.7559992 134.9489978 110.5770014 112.5094475 134.1201323 110.4841208
  97.8309992 133.4599978 109.9290014  97.0539992 133.2249978 109.4220014
  98.3609992 132.6629978 109.9380014  97.7963451 133.3201268 109.8608627
  96.6669992 133.2579978 105.7330014  97.1059992 133.8689978 105.1410014
  96.0329992 133.7959978 106.2070014  96.6413859 133.4144064 105.7160305
 102.4099992 133.3859978 109.7430014 103.2839992 133.7749978 109.7130014
 102.2739992 133.1709978 110.6650014 102.5113207 133.4101923 109.8636509
 107.9669992 133.4159978 111.3920014 108.0429992 133.5119978 110.4430014
 107.6919992 132.5089978 111.5210014 107.9402042 133.3064241 111.2793811
 109.3199992 133.4419978 107.0840014 108.6169992 134.0569978 106.8750014
 108.8749992 132.6049978 107.2160014 109.1636292 133.4130085 107.0732439
 103.5539992 135.4669978 106.6330014 103.7319992 134.8199978 107.3150014
 103.4999992 136.3009978 107.1000014 103.5711025 135.4910504 106.7896433
  97.7879992 133.9739978 119.4470014  97.4219992 133.2079978 119.8900014
  98.7009992 134.0029978 119.7340014  97.8613225 133.8731906 119.5463459
  99.7609992 133.3239978 120.9830014 100.6599992 133.0499978 120.7980014
  99.3749992 132.5819978 121.4470014  99.8317237 133.1861508 121.0204710
 108.1829992 132.6569978 121.1650014 108.2589992 132.2309978 122.0190014
 109.0759992 132.6699978 120.8220014 108.3142267 132.6003952 121.2355932
 125.7649992 142.6159978 109.8880014 125.8539992 143.5599978 109.7560014
 125.1269992 142.3409978 109.2300014 125.6909062 142.7079812 109.7809641
 124.6979992 141.8709978 113.3070014 124.6599992 141.2249978 114.0120014
 124.3759992 141.4039978 112.5360014 124.6492679 141.7194276 113.2992921
 117.0659992 141.4849978 114.9000014 117.1079992 140.8599978 115.6230014
 117.7689992 142.1089978 115.0820014 117.1667345 141.4837873 115.0235274
 128.4039992 144.8099978 111.6090014 127.9629992 144.0899978 112.0590014
 128.3909992 145.5309978 112.2380014 128.3417960 144.8088329 111.7557567
 114.5999992 139.5949978 108.8280014 114.1519992 140.4409978 108.8090014
 114.0389992 139.0159978 108.3120014 114.4629603 139.6323674 108.7556720
 115.3099992 141.7569978 110.9540014 115.5239992 140.9869978 111.4810014
 116.0479992 141.8469978 110.3500014 115.4389652 141.6638012 110.9445212
 123.0869992 144.3029978 113.7130014 123.3909992 143.6169978 113.1190014
 123.8089992 144.4219978 114.3310014 123.2261152 144.2252189 113.7152123
 131.7499992 135.9049978 114.5740014 131.7999992 136.5149978 115.3100014
 132.1759992 136.3659978 113.8510014 131.8144108 136.0507709 114.5770112
 126.2279992 138.6969978 114.0410014 126.3709992 137.7509978 114.0610014
 126.1219992 138.9039978 113.1120014 126.2332509 138.5954813 113.9182231
 119.3829992 136.7989978 111.3130014 119.4259992 137.6589978 110.8950014
 118.9249992 136.2469978 110.6790014 119.3269815 136.8420621 111.1701197
 127.1049992 136.9299978 109.7140014 127.7519992 136.6009978 110.3390014
 127.6149992 137.4469978 109.0910014 127.2624317 136.9549227 109.7152167
 116.0029992 139.1959978 112.0750014 116.6569992 138.6459978 112.5070014
 116.0269992 138.9219978 111.1580014 116.0957199 139.0837167 112.0101668
 121.1599992 140.7459978 111.2900014 121.7759992 140.2189978 111.8000014
 120.5729992 140.1059978 110.8870014 121.1649239 140.5874117 111.3052952
 132.1419992 137.3829978 116.8100014 131.4529992 138.0409978 116.7140014
 132.1569992 137.1849978 117.7460014 132.0496740 137.4463243 116.9234630
 118.1929992 135.7169978 115.3870014 117.9739992 136.2469978 114.6210014
 117.5249992 135.9429978 116.0340014 118.0727001 135.8201154 115.3696064
 125.5619992 145.2169978 108.9310014 125.2669992 144.8939978 108.0800014
 125.2379992 146.1169978 108.9720014 125.4777983 145.2944027 108.8199771
 120.7619992 143.3919978 115.6750014 120.0219992 143.9909978 115.7780014
 121.4759992 143.9459978 115.3590014 120.7573288 143.5487356 115.6463805
 128.8689992 136.2209978 111.6940014 128.6539992 135.4549978 112.2270014
 129.5249992 136.6929978 112.2070014 128.9282673 136.1800728 111.8361990
 117.7869992 137.6089978 113.3390014 118.4009992 138.2419978 113.7130014
 118.2989992 137.1369978 112.6830014 117.9402277 137.6317352 113.3014279
 119.1699992 145.3569978 116.4620014 119.1639992 146.2359978 116.0840014
 118.3159992 145.2729978 116.8870014 119.0537925 145.4659535 116.4676887
 115.2909992 145.0279978 107.2440014 115.0189992 145.2569978 106.3550014
 115.3359992 145.8649978 107.7040014 115.2598709 145.1726058 107.1846107
 129.2159992 134.9359978 115.3740014 128.4799992 135.5459978 115.3360014
 129.8999992 135.3509978 114.8470014 129.2075506 135.0756400 115.2976051
 122.2199992 133.0219978 112.8400014 122.1019992 132.0739978 112.7850014
 121.3649992 133.3549978 113.1130014 122.0882679 132.9371926 112.8693720
 130.0139992 144.8979978 117.5680014 130.1529992 144.3059978 116.8280014
 130.1809992 145.7709978 117.2110014 130.0555562 144.9349896 117.4186283
 124.4859992 141.8599978 107.3400014 123.7749992 142.3949978 106.9880014
 125.1769992 141.9149978 106.6800014 124.4820751 141.9406777 107.2025858
 131.8549992 141.2379978 115.6340014 131.2029992 141.9319978 115.7230014
 132.3209992 141.4479978 114.8240014 131.8285937 141.3615019 115.5367533
 127.8919992 142.0689978 108.2920014 127.1599992 142.2979978 108.8650014
 128.3389992 141.3559978 108.7470014 127.8522753 142.0038972 108.4319715
 127.7889992 140.2439978 117.3600014 127.8689992 141.0069978 117.9310014
 127.1879992 140.5229978 116.6690014 127.7187245 140.3862630 117.3448424
 119.5369992 142.6999978 110.1740014 119.2069992 142.3289978 109.3560014
 120.1259992 142.0289978 110.5210014 119.5713970 142.5586063 110.1089404
 119.9039992 141.4679978 113.8080014 120.4689992 141.5899978 113.0450014
 120.2229992 142.1059978 114.4470014 120.0243977 141.5708851 113.7899424
 126.7629992 141.2319978 105.9770014 127.3419992 141.3819978 106.7240014
 127.1769992 141.7019978 105.2540014 126.8983122 141.3161277 105.9815042
 117.7039992 142.0659978 117.7540014 117.7739992 142.7169978 118.4520014
 116.8129992 142.1689978 117.4190014 117.5931802 142.1689757 117.8042249
 130.4619992 132.9819978 105.7900014 129.5619992 133.1209978 106.0850014
 130.7139992 133.8129978 105.3880014 130.3728683 133.1134055 105.7760232
 118.5279992 141.7689978 107.7640014 118.2359992 142.5369978 107.2730014
 117.8529992 141.1099978 107.6010014 118.3968497 141.7849745 107.6748260
 114.6209992 144.1319978 116.5790014 114.1189992 144.1039978 115.7640014
 114.6259992 143.2269978 116.8880014 114.5530416 144.0057368 116.5093766
 129.7209992 139.0719978 119.6250014 129.3129992 139.5519978 118.9050014
 129.7609992 138.1659978 119.3170014 129.6705476 139.0153160 119.4848247
 116.8699992 145.4559978 117.6220014 117.0859992 145.0939978 118.4810014
 116.0139992 145.0809978 117.4120014 116.7839354 145.3557906 117.7112160
 119.4879992 133.9259978 113.6170014 118.6269992 133.8389978 113.2100014
 119.4659992 134.7819978 114.0450014 119.3670411 134.0297884 113.6190857
 124.1509992 133.6479978 116.9920014 124.5709992 133.2329978 117.7450014
 123.2179992 133.4689978 117.1090014 124.0823736 133.5669910 117.1108968
 127.4779992 137.4029978 117.8450014 126.9639992 137.2779978 118.6430014
 127.3219992 138.3159978 117.6010014 127.3866967 137.5092123 117.9210937
 128.2399992 142.2639978 103.6070014 128.2819992 142.0419978 102.6770014
 129.0889992 142.6629978 103.7970014 128.3605253 142.2875498 103.5053822
 123.8129992 136.1399978 104.2770014 123.5589992 136.1589978 105.2000014
 123.5559992 135.2689978 103.9760014 123.7435133 136.0248110 104.3625082
 119.5789992 138.8909978 114.7120014 118.9379992 138.8509978 115.4210014
 119.6169992 139.8179978 114.4750014 119.4963670 139.0107795 114.7770550
 119.5759992 139.1119978 109.6240014 118.6839992 138.7719978 109.5660014
 120.0269992 138.7349978 108.8690014 119.5146815 139.0143762 109.5139203
 125.1119992 139.5279978 108.4410014 124.7029992 140.3429978 108.1500014
 125.8319992 139.3879978 107.8270014 125.1534013 139.6206571 108.3180875
 124.2139992 139.7039978 119.9290014 123.6509992 138.9989978 120.2500014
 125.0399992 139.5829978 120.3970014 124.2486674 139.5912165 120.0361751
 126.1169992 138.9739978 111.2550014 125.9209992 139.5799978 110.5400014
 126.2979992 138.1409978 110.8210014 126.1146584 138.9442513 111.0984212
 117.3289992 139.2119978 116.5790014 117.2909992 139.6119978 117.4480014
 116.8389992 138.3949978 116.6700014 117.2575621 139.1562510 116.7101377
 120.6949992 136.5859978 103.3780014 120.2639992 136.1409978 104.1080014
 119.9769992 136.9569978 102.8660014 120.5389363 136.5752968 103.4086211
 113.9379992 136.3279978 110.4300014 114.5679992 136.2989978 111.1490014
 114.3869992 135.9029978 109.7000014 114.0850692 136.2665316 110.4297771
 115.2119992 137.0739978 105.8540014 115.6859992 137.6649978 105.2690014
 114.4939992 137.6039978 106.2010014 115.1798640 137.2265511 105.8207969
 125.3809992 140.6119978 115.9270014 125.7039992 139.9809978 115.2840014
 124.9399992 140.0779978 116.5870014 125.3655789 140.4533522 115.9282232
 122.1579992 136.5399978 110.7110014 121.2469992 136.5969978 110.9990014
 122.6629992 136.4799978 111.5210014 122.1015387 136.5396870 110.8600646
 116.9859992 138.1689978 109.5370014 116.0969992 138.2679978 109.1970014
 117.2829992 137.3269978 109.1910014 116.9044177 138.0687687 109.4436940
 120.6389992 138.1689978 107.1940014 121.5709992 138.2979978 107.3720014
 120.4239992 138.8379978 106.5440014 120.7374472 138.2770806 107.1304891
 126.5629992 135.7749978 113.9750014 125.8859992 135.9059978 114.6390014
 126.0779992 135.6199978 113.1650014 126.4047265 135.7719659 113.9563397
 117.4489992 143.9199978 119.8600014 118.1809992 144.1749978 120.4210014
 116.6679992 144.1249978 120.3750014 117.4437684 143.9826468 120.0064782
 123.4779992 139.3269978 112.5980014 124.0419992 138.7809978 112.0510014
 123.3299992 138.8059978 113.3860014 123.5352575 139.1816552 112.6296987
 118.4799992 135.4639978 109.0160014 118.1629992 134.5609978 108.9810014
 119.2609992 135.4659978 108.4630014 118.5422307 135.3406951 108.9364314
 122.1039992 137.7159978 115.0120014 121.2689992 138.1699978 115.1220014
 122.6279992 137.9919978 115.7640014 122.0605070 137.8154665 115.1287152
 122.6489992 143.9289978 106.6960014 121.9039992 143.4209978 106.3740014
 122.5139992 143.9779978 107.6430014 122.5289047 143.8661596 106.7798845
 129.7989992 143.0619978 115.4830014 130.4399992 143.5179978 114.9390014
 128.9679992 143.1749978 115.0210014 129.7745171 143.1397502 115.3460237
 124.1679992 144.1129978 117.9330014 123.8219992 143.7309978 118.7400014
 123.9679992 145.0459978 118.0050014 124.0936523 144.1869095 118.0530735
 127.2649992 138.6099978 106.5560014 128.1569992 138.4719978 106.8750014
 127.3209992 139.4009978 106.0200014 127.3947107 138.6980526 106.5272091
 117.7729992 143.2239978 112.4660014 118.5179992 143.2209978 111.8650014
 117.8509992 142.3999978 112.9480014 117.8854158 143.1122916 112.4489153
 124.7739992 145.3869978 105.7220014 124.4789992 146.2139978 106.1030014
 124.0709992 144.7679978 105.9180014 124.6385471 145.4165227 105.8006698
 114.7809992 141.6839978 117.7810014 115.0039992 141.2659978 118.6130014
 114.1789992 141.0719978 117.3580014 114.7301260 141.5439933 117.8377320
 121.7979992 141.2009978 119.9940014 121.5019992 141.0359978 119.0990014
 122.7289992 140.9809978 119.9830014 121.8833982 141.1486578 119.8700045
 132.1499992 138.8189978 106.2510014 131.5949992 138.4229978 105.5790014
 132.2499992 139.7299978 105.9730014 132.0875888 138.8878990 106.1215206
 132.1129992 144.6199978 119.0880014 131.2619992 144.8579978 118.7210014
 132.7029992 144.6029978 118.3350014 132.0762408 144.6502966 118.9358879
 127.6049992 142.4129978 113.7370014 126.6769992 142.1819978 113.7100014
 128.0559992 141.6359978 113.4070014 127.5388165 142.2762774 113.6886790
 115.9029992 141.6039978 104.4580014 116.5189992 142.2309978 104.8370014
 115.0409992 141.9199978 104.7290014 115.8708195 141.7325798 104.5465386
 121.5759992 144.4049978 109.4470014 121.3349992 145.3299978 109.4880014
 120.8349992 143.9459978 109.8430014 121.4428390 144.4696403 109.5061404
 125.6339992 144.6529978 115.4620014 125.2089992 144.4249978 116.2890014
 126.2149992 143.9139978 115.2800014 125.6543930 144.5219843 115.5504732
 116.4149992 136.4379978 117.3390014 115.5229992 136.7759978 117.2720014
 116.3169992 135.5819978 117.7570014 116.2794965 136.3686499 117.3863044
 128.7029992 144.2539978 106.7630014 128.4259992 143.5259978 107.3190014
 129.6309992 144.3729978 106.9680014 128.7904499 144.1704213 106.8668044
 117.3179992 143.5159978 105.9500014 116.6319992 143.8689978 106.5170014
 117.8409992 144.2789978 105.7040014 117.2949033 143.6673746 105.9942661
 125.1499992 136.1789978 116.2290014 125.8489992 136.2529978 116.8790014
 124.7689992 135.3139978 116.3830014 125.1942097 136.0722389 116.3387997
 125.9339992 135.8309978 107.3260014 126.1539992 136.3019978 106.5230014
 126.4929992 136.2249978 107.9960014 126.0396730 135.9487432 107.3065906
 123.1339992 137.5589978 108.1610014 123.9459992 138.0629978 108.2070014
 122.8899992 137.4139978 109.0750014 123.2121467 137.6083749 108.2908575
 123.6699992 138.5449978 117.3460014 123.7889992 139.1189978 118.1030014
 124.3249992 137.8569978 117.4600014 123.7749146 138.5305574 117.4651314
 124.0179992 134.6399978 109.0990014 123.6709992 135.2569978 109.7440014
 124.6769992 135.1409978 108.6180014 124.0595949 134.7921099 109.1222271
 119.6759992 135.7029978 105.7860014 119.5919992 136.5909978 106.1330014
 120.5659992 135.4379978 106.0180014 119.7848163 135.7887179 105.8648596
 129.8739992 136.4519978 118.1810014 128.9579992 136.7139978 118.0930014
 130.2099992 136.4489978 117.2840014 129.7939789 136.4874626 118.0477847
 128.4769992 140.2019978 112.2760014 127.6789992 139.7869978 111.9480014
 128.9219992 139.5119978 112.7670014 128.4279684 140.0518628 112.2975227
 117.0579992 133.5759978 112.6360014 116.8289992 133.6349978 111.7080014
 116.6159992 132.7849978 112.9420014 116.9668801 133.4770540 112.5504729
 115.1839992 143.9399978 121.0810014 115.3279992 143.0379978 120.7940014
 114.4119992 144.2259978 120.5930014 115.0993303 143.8553243 120.9757908
 121.8389992 143.9089978 120.5130014 121.5109992 144.1799978 119.6560014
 121.9909992 142.9679978 120.4260014 121.8146030 143.8188973 120.3837945
 124.8779992 145.3299978 102.9490014 124.6089992 145.5109978 103.8500014
 124.6709992 144.4049978 102.8180014 124.8132000 145.2296774 103.0545693
 127.5739992 143.8249978 117.8970014 128.3189992 144.4139978 117.7770014
 126.8169992 144.4069978 117.9600014 127.5735205 143.9841997 117.8891119
 116.0169992 141.1399978 120.5010014 116.4249992 140.2829978 120.3800014
 115.7559992 141.1539978 121.4220014 116.0376016 141.0245119 120.6089192
 119.9639992 140.1489978 117.8750014 119.3449992 140.8229978 118.1550014
 120.3079992 140.4699978 117.0420014 119.9257605 140.2847198 117.8006707
 124.9829992 142.6199978 121.1520014 125.9369992 142.7039978 121.1250014
 124.8229992 141.9079978 121.7720014 125.0917182 142.5352842 121.2320733
 120.3029992 137.5039978 118.9570014 120.4529992 136.7749978 118.3550014
 120.3049992 138.2809978 118.3980014 120.3237967 137.5092708 118.7990541
 120.7159992 135.8729978 116.4500014 121.2509992 136.3249978 115.7980014
 119.8629992 135.7649978 116.0270014 120.6740374 135.9202665 116.3036710
 122.2969992 141.3129978 116.6890014 123.0479992 141.1569978 116.1160014
 121.9579992 142.1649978 116.4140014 122.3539587 141.4068138 116.5734078
 126.7129992 139.1279978 121.7180014 126.9049992 138.1969978 121.6060014
 127.5709992 139.5529978 121.7080014 126.8552269 139.0579928 121.7013192
 128.0299992 141.9169978 119.7950014 127.7479992 142.6259978 119.2180014
 128.9719992 141.8439978 119.6440014 128.1187656 142.0043128 119.6954809
 118.7819992 138.7019978 120.8690014 118.0139992 138.1689978 120.6590014
 119.4599992 138.3919978 120.2690014 118.7686973 138.5872375 120.7591796
 121.5209992 133.3299978 116.8810014 121.4229992 134.2759978 116.7760014
 120.7789992 132.9569978 116.4060014 121.4071913 133.4091813 116.8023539
 122.7849992 137.6509978 120.4450014 122.5499992 137.4319978 121.3470014
 122.0019992 137.4439978 119.9350014 122.6469219 137.5930066 120.4995852
 125.5009992 136.7789978 119.5210014 124.5529992 136.8109978 119.6530014
 125.8129992 136.1529978 120.1740014 125.4135190 136.6987262 119.6273564
 127.1349992 135.4129978 121.5260014 127.0379992 134.4609978 121.5200014
 126.8129992 135.6809978 122.3860014 127.0781761 135.3189744 121.6414936
 116.9619992 136.6219978 120.5730014 117.1739992 135.9159978 119.9630014
 116.8509992 136.1849978 121.4170014 116.9760269 136.4661921 120.6035873
 121.7429992 132.6239978 119.5530014 122.4549992 131.9839978 119.5390014
 121.6419992 132.8899978 118.6390014 121.8267261 132.5724190 119.4275537
 122.0969992 134.3059978 121.6060014 121.9649992 133.8309978 120.7860014
 121.4969992 135.0509978 121.5510014 121.9979070 134.3415789 121.4863251
 130.2929992 145.4659978 121.6880014 129.4269992 145.3609978 122.0820014
 130.6689992 146.2239978 122.1340014 130.2253401 145.5541708 121.8022620
 131.5939992 143.7219978 107.2020014 132.4439992 144.1429978 107.3290014
 131.5989992 142.9819978 107.8090014 131.7111143 143.6796094 107.3014750
 131.9879992 141.7759978 109.0260014 131.2619992 141.2959978 109.4230014
 132.5699992 141.9809978 109.7580014 131.9671635 141.7379166 109.1793748
 131.7469992 144.5609978 113.9730014 132.5809992 144.1829978 113.6930014
 131.8589992 145.5039978 113.8540014 131.8762522 144.6367742 113.9186020
 132.2569992 141.6769978 105.4170014 131.7349992 142.0329978 104.6980014
 132.2239992 142.3519978 106.0950014 132.1810699 141.8169848 105.4102129
 129.7749992 140.2969978 109.5890014 129.6249992 139.3519978 109.5680014
 129.4209992 140.5779978 110.4320014 129.7065527 140.2055605 109.7001859
 114.8099992 142.3749978 113.5990014 114.9949992 142.2929978 112.6630014
 115.6599992 142.2509978 114.0230014 114.9500916 142.3470393 113.5282896
 130.6309992 142.2669978 119.2270014 131.2139992 141.5319978 119.4190014
 131.1949992 143.0389978 119.2740014 130.7869781 142.2708145 119.2596164
 132.1279992 140.1699978 119.9120014 131.2649992 139.7909978 119.7460014
 132.7319992 139.4309978 119.8380014 132.0915944 140.0182978 119.8792984
 129.4859992 137.8789978 108.0510014 129.7649992 136.9719978 108.1750014
 130.2449992 138.3129978 107.6620014 129.6268619 137.8134502 108.0153795
 130.0969992 138.4609978 113.4870014 131.0299992 138.6729978 113.4530014
 129.8619992 138.5619978 114.4090014 130.1928308 138.5036503 113.6070214
 130.1269992 139.1979978 116.2630014 129.2839992 139.4659978 116.6290014
 130.5689992 140.0199978 116.0520014 130.0714138 139.3458273 116.2845518
 114.4079992 137.6449978 119.7400014 115.3269992 137.5229978 119.9760014
 113.9579992 136.8949978 120.1290014 114.4731148 137.5268751 119.8249408
 132.4099992 133.1779978 121.6160014 132.7589992 132.5239978 121.0110014
 132.5569992 134.0149978 121.1770014 132.4777355 133.2016067 121.4736564
 130.0989992 135.1419978 108.0990014 130.2809992 134.6929978 108.9250014
 129.4989992 134.5579978 107.6360014 130.0427529 135.0016131 108.1493619
 115.6289992 135.9579978 112.6310014 116.0739992 135.1659978 112.9330014
 116.0949992 136.6739978 113.0620014 115.7529059 135.9464474 112.7306079
 113.9329992 138.9569978 113.7000014 114.4249992 138.7359978 112.9090014
 114.2949992 139.7969978 113.9810014 114.0492923 139.0403468 113.6297407
 131.9289992 135.2869978 119.9660014 131.0119992 135.5579978 119.9300014
 132.0519992 134.7519978 119.1820014 131.8200828 135.2517700 119.8550785
 114.2469992 135.2149978 107.7540014 113.3219992 135.4229978 107.6250014
 114.7009992 135.6989978 107.0650014 114.1816374 135.3089949 107.6430957
 114.2099992 133.9529978 116.0990014 113.5449992 133.7069978 116.7420014
 113.7669992 134.5749978 115.5210014 114.0590937 134.0033614 116.1089379
 130.9299992 133.3769978 117.7850014 130.1169992 133.7019978 117.3970014
 131.1629992 132.6159978 117.2520014 130.8502566 133.3186559 117.6599213
 124.3599992 134.8259978 112.1070014 123.6859992 134.1959978 112.3630014
 124.9239992 134.3419978 111.5040014 124.3440384 134.6743708 112.0605020
 129.5029992 132.9329978 112.2200014 130.1059992 133.4809978 111.7180014
 128.6329992 133.2519978 111.9800014 129.4679190 133.0511041 112.1188679
 131.2299992 134.0719978 110.5530014 131.8409992 133.5579978 110.0270014
 131.6119992 134.9489978 110.5770014 131.3654475 134.1201323 110.4841208
 116.6869992 133.4599978 109.9290014 115.9099992 133.2249978 109.4220014
 117.2169992 132.6629978 109.9380014 116.6523451 133.3201268 109.8608627
 115.5229992 133.2579978 105.7330014 115.9619992 133.8689978 105.1410014
 114.8889992 133.7959978 106.2070014 115.4973859 133.4144064 105.7160305
 121.2659992 133.3859978 109.7430014 122.1399992 133.7749978 109.7130014
 121.1299992 133.1709978 110.6650014 121.3673207 133.4101923 109.8636509
 126.8229992 133.4159978 111.3920014 126.8989992 133.5119978 110.4430014
 126.5479992 132.5089978 111.5210014 126.7962042 133.3064241 111.2793811
 128.1759992 133.4419978 107.0840014 127.4729992 134.0569978 106.8750014
 127.7309992 132.6049978 107.2160014 128.0196292 133.4130085 107.0732439
 117.3839992 135.1739978 104.1750014 117.8749992 134.5439978 103.6480014
 118.0069992 135.4699978 104.8390014 117.5355062 135.1276770 104.1925438
 122.4099992 135.4669978 106.6330014 122.5879992 134.8199978 107.3150014
 122.3559992 136.3009978 107.1000014 122.4271025 135.4910504 106.7896433
 116.6439992 133.9739978 119.4470014 116.2779992 133.2079978 119.8900014
 117.5569992 134.0029978 119.7340014 116.7173225 133.8731906 119.5463459
 118.6169992 133.3239978 120.9830014 119.5159992 133.0499978 120.7980014
 118.2309992 132.5819978 121.4470014 118.6877237 133.1861508 121.0204710
 127.0389992 132.6569978 121.1650014 127.1149992 132.2309978 122.0190014
 127.9319992 132.6699978 120.8220014 127.1702267 132.6003952 121.2355932
 144.6209992 142.6159978 109.8880014 144.7099992 143.5599978 109.7560014
 143.9829992 142.3409978 109.2300014 144.5469062 142.7079812 109.7809641
 143.5539992 141.8709978 113.3070014 143.5159992 141.2249978 114.0120014
 143.2319992 141.4039978 112.5360014 143.5052679 141.7194276 113.2992921
 135.9219992 141.4849978 114.9000014 135.9639992 140.8599978 115.6230014
 136.6249992 142.1089978 115.0820014 136.0227345 141.4837873 115.0235274
 133.4559992 139.5949978 108.8280014 133.0079992 140.4409978 108.8090014
 132.8949992 139.0159978 108.3120014 133.3189603 139.6323674 108.7556720
 134.1659992 141.7569978 110.9540014 134.3799992 140.9869978 111.4810014
 134.9039992 141.8469978 110.3500014 134.2949652 141.6638012 110.9445212
 141.9429992 144.3029978 113.7130014 142.2469992 143.6169978 113.1190014
 142.6649992 144.4219978 114.3310014 142.0821152 144.2252189 113.7152123
 145.0839992 138.6969978 114.0410014 145.2269992 137.7509978 114.0610014
 144.9779992 138.9039978 113.1120014 145.0892509 138.5954813 113.9182231
 138.2389992 136.7989978 111.3130014 138.2819992 137.6589978 110.8950014
 137.7809992 136.2469978 110.6790014 138.1829815 136.8420621 111.1701197
 134.8589992 139.1959978 112.0750014 135.5129992 138.6459978 112.5070014
 134.8829992 138.9219978 111.1580014 134.9517199 139.0837167 112.0101668
 140.0159992 140.7459978 111.2900014 140.6319992 140.2189978 111.8000014
 139.4289992 140.1059978 110.8870014 140.0209239 140.5874117 111.3052952
 137.0489992 135.7169978 115.3870014 136.8299992 136.2469978 114.6210014
 136.3809992 135.9429978 116.0340014 136.9287001 135.8201154 115.3696064
 144.4179992 145.2169978 108.9310014 144.1229992 144.8939978 108.0800014
 144.0939992 146.1169978 108.9720014 144.3337983 145.2944027 108.8199771
 139.6179992 143.3919978 115.6750014 138.8779992 143.9909978 115.7780014
 140.3319992 143.9459978 115.3590014 139.6133288 143.5487356 115.6463805
 136.6429992 137.6089978 113.3390014 137.2569992 138.2419978 113.7130014
 137.1549992 137.1369978 112.6830014 136.7962277 137.6317352 113.3014279
 138.0259992 145.3569978 116.4620014 138.0199992 146.2359978 116.0840014
 137.1719992 145.2729978 116.8870014 137.9097925 145.4659535 116.4676887
 134.1469992 145.0279978 107.2440014 133.8749992 145.2569978 106.3550014
 134.1919992 145.8649978 107.7040014 134.1158709 145.1726058 107.1846107
 141.0759992 133.0219978 112.8400014 140.9579992 132.0739978 112.7850014
 140.2209992 133.3549978 113.1130014 140.9442679 132.9371926 112.8693720
 143.3419992 141.8599978 107.3400014 142.6309992 142.3949978 106.9880014
 144.0329992 141.9149978 106.6800014 143.3380751 141.9406777 107.2025858
 138.3929992 142.6999978 110.1740014 138.0629992 142.3289978 109.3560014
 138.9819992 142.0289978 110.5210014 138.4273970 142.5586063 110.1089404
 138.7599992 141.4679978 113.8080014 139.3249992 141.5899978 113.0450014
 139.0789992 142.1059978 114.4470014 138.8803977 141.5708851 113.7899424
 136.5599992 142.0659978 117.7540014 136.6299992 142.7169978 118.4520014
 135.6689992 142.1689978 117.4190014 136.4491802 142.1689757 117.8042249
 137.3839992 141.7689978 107.7640014 137.0919992 142.5369978 107.2730014
 136.7089992 141.1099978 107.6010014 137.2528497 141.7849745 107.6748260
 133.4769992 144.1319978 116.5790014 132.9749992 144.1039978 115.7640014
 133.4819992 143.2269978 116.8880014 133.4090416 144.0057368 116.5093766
 135.7259992 145.4559978 117.6220014 135.9419992 145.0939978 118.4810014
 134.8699992 145.0809978 117.4120014 135.6399354 145.3557906 117.7112160
 138.3439992 133.9259978 113.6170014 137.4829992 133.8389978 113.2100014
 138.3219992 134.7819978 114.0450014 138.2230411 134.0297884 113.6190857
 143.0069992 133.6479978 116.9920014 143.4269992 133.2329978 117.7450014
 142.0739992 133.4689978 117.1090014 142.9383736 133.5669910 117.1108968
 138.4349992 138.8909978 114.7120014 137.7939992 138.8509978 115.4210014
 138.4729992 139.8179978 114.4750014 138.3523670 139.0107795 114.7770550
 138.4319992 139.1119978 109.6240014 137.5399992 138.7719978 109.5660014
 138.8829992 138.7349978 108.8690014 138.3706815 139.0143762 109.5139203
 143.9679992 139.5279978 108.4410014 143.5589992 140.3429978 108.1500014
 144.6879992 139.3879978 107.8270014 144.0094013 139.6206571 108.3180875
 143.0699992 139.7039978 119.9290014 142.5069992 138.9989978 120.2500014
 143.8959992 139.5829978 120.3970014 143.1046674 139.5912165 120.0361751
 144.9729992 138.9739978 111.2550014 144.7769992 139.5799978 110.5400014
 145.1539992 138.1409978 110.8210014 144.9706584 138.9442513 111.0984212
 136.1849992 139.2119978 116.5790014 136.1469992 139.6119978 117.4480014
 135.6949992 138.3949978 116.6700014 136.1135621 139.1562510 116.7101377
 139.5509992 136.5859978 103.3780014 139.1199992 136.1409978 104.1080014
 138.8329992 136.9569978 102.8660014 139.3949363 136.5752968 103.4086211
 132.7939992 136.3279978 110.4300014 133.4239992 136.2989978 111.1490014
 133.2429992 135.9029978 109.7000014 132.9410692 136.2665316 110.4297771
 134.0679992 137.0739978 105.8540014 134.5419992 137.6649978 105.2690014
 133.3499992 137.6039978 106.2010014 134.0358640 137.2265511 105.8207969
 144.2369992 140.6119978 115.9270014 144.5599992 139.9809978 115.2840014
 143.7959992 140.0779978 116.5870014 144.2215789 140.4533522 115.9282232
 141.0139992 136.5399978 110.7110014 140.1029992 136.5969978 110.9990014
 141.5189992 136.4799978 111.5210014 140.9575387 136.5396870 110.8600646
 135.8419992 138.1689978 109.5370014 134.9529992 138.2679978 109.1970014
 136.1389992 137.3269978 109.1910014 135.7604177 138.0687687 109.4436940
 139.4949992 138.1689978 107.1940014 140.4269992 138.2979978 107.3720014
 139.2799992 138.8379978 106.5440014 139.5934472 138.2770806 107.1304891
 145.4189992 135.7749978 113.9750014 144.7419992 135.9059978 114.6390014
 144.9339992 135.6199978 113.1650014 145.2607265 135.7719659 113.9563397
 138.1689992 139.3629978 104.7610014 137.6269992 138.9839978 104.0690014
 139.0029992 139.5579978 104.3320014 138.2075159 139.3375076 104.6084419
 136.3049992 143.9199978 119.8600014 137.0369992 144.1749978 120.4210014
 135.5239992 144.1249978 120.3750014 136.2997684 143.9826468 120.0064782
 142.3339992 139.3269978 112.5980014 142.8979992 138.7809978 112.0510014
 142.1859992 138.8059978 113.3860014 142.3912575 139.1816552 112.6296987
 137.3359992 135.4639978 109.0160014 137.0189992 134.5609978 108.9810014
 138.1169992 135.4659978 108.4630014 137.3982307 135.3406951 108.9364314
 140.9599992 137.7159978 115.0120014 140.1249992 138.1699978 115.1220014
 141.4839992 137.9919978 115.7640014 140.9165070 137.8154666 115.1287152
 141.5049992 143.9289978 106.6960014 140.7599992 143.4209978 106.3740014
 141.3699992 143.9779978 107.6430014 141.3849047 143.8661596 106.7798845
 145.4019992 136.7429978 104.8960014 144.4639992 136.8539978 104.7440014
 145.6999992 137.5989978 105.2020014 145.3136402 136.8740621 104.9165571
 143.0239992 144.1129978 117.9330014 142.6779992 143.7309978 118.7400014
 142.8239992 145.0459978 118.0050014 142.9496523 144.1869095 118.0530735
 136.6289992 143.2239978 112.4660014 137.3739992 143.2209978 111.8650014
 136.7069992 142.3999978 112.9480014 136.7414158 143.1122916 112.4489153
 133.6369992 141.6839978 117.7810014 133.8599992 141.2659978 118.6130014
 133.0349992 141.0719978 117.3580014 133.5861260 141.5439933 117.8377320
 140.6539992 141.2009978 119.9940014 140.3579992 141.0359978 119.0990014
 141.5849992 140.9809978 119.9830014 140.7393982 141.1486578 119.8700045
 134.7589992 141.6039978 104.4580014 135.3749992 142.2309978 104.8370014
 133.8969992 141.9199978 104.7290014 134.7268195 141.7325798 104.5465386
 140.4319992 144.4049978 109.4470014 140.1909992 145.3299978 109.4880014
 139.6909992 143.9459978 109.8430014 140.2988390 144.4696403 109.5061404
 144.4899992 144.6529978 115.4620014 144.0649992 144.4249978 116.2890014
 145.0709992 143.9139978 115.2800014 144.5103930 144.5219843 115.5504732
 135.2709992 136.4379978 117.3390014 134.3789992 136.7759978 117.2720014
 135.1729992 135.5819978 117.7570014 135.1354965 136.3686499 117.3863044
 136.1739992 143.5159978 105.9500014 135.4879992 143.8689978 106.5170014
 136.6969992 144.2789978 105.7040014 136.1509033 143.6673746 105.9942661
 144.0059992 136.1789978 116.2290014 144.7049992 136.2529978 116.8790014
 143.6249992 135.3139978 116.3830014 144.0502097 136.0722389 116.3387997
 144.7899992 135.8309978 107.3260014 145.0099992 136.3019978 106.5230014
 145.3489992 136.2249978 107.9960014 144.8956730 135.9487432 107.3065906
 141.9899992 137.5589978 108.1610014 142.8019992 138.0629978 108.2070014
 141.7459992 137.4139978 109.0750014 142.0681467 137.6083749 108.2908575
 142.5259992 138.5449978 117.3460014 142.6449992 139.1189978 118.1030014
 143.1809992 137.8569978 117.4600014 142.6309146 138.5305574 117.4651314
 142.8739992 134.6399978 109.0990014 142.5269992 135.2569978 109.7440014
 143.5329992 135.1409978 108.6180014 142.9155949 134.7921099 109.1222271
 138.5319992 135.7029978 105.7860014 138.4479992 136.5909978 106.1330014
 139.4219992 135.4379978 106.0180014 138.6408163 135.7887179 105.8648596
 135.9139992 133.5759978 112.6360014 135.6849992 133.6349978 111.7080014
 135.4719992 132.7849978 112.9420014 135.8228801 133.4770540 112.5504729
 134.0399992 143.9399978 121.0810014 134.1839992 143.0379978 120.7940014
 133.2679992 144.2259978 120.5930014 133.9553303 143.8553243 120.9757908
 138.3809992 144.2829978 103.2130014 138.4459992 143.4889978 103.7440014
 139.0339992 144.1649978 102.5230014 138.4781754 144.1583337 103.1924259
 140.6949992 143.9089978 120.5130014 140.3669992 144.1799978 119.6560014
 140.8469992 142.9679978 120.4260014 140.6706030 143.8188973 120.3837945
 134.8729992 141.1399978 120.5010014 135.2809992 140.2829978 120.3800014
 134.6119992 141.1539978 121.4220014 134.8936016 141.0245119 120.6089192
 139.5309992 142.2559978 105.5190014 139.0709992 141.7719978 106.2050014
 139.7859992 141.5869978 104.8830014 139.5025038 142.0993689 105.5269447
 138.8199992 140.1489978 117.8750014 138.2009992 140.8229978 118.1550014
 139.1639992 140.4699978 117.0420014 138.7817605 140.2847198 117.8006707
 143.8389992 142.6199978 121.1520014 144.7929992 142.7039978 121.1250014
 143.6789992 141.9079978 121.7720014 143.9477182 142.5352842 121.2320733
 139.1589992 137.5039978 118.9570014 139.3089992 136.7749978 118.3550014
 139.1609992 138.2809978 118.3980014 139.1797967 137.5092708 118.7990541
 139.5719992 135.8729978 116.4500014 140.1069992 136.3249978 115.7980014
 138.7189992 135.7649978 116.0270014 139.5300374 135.9202665 116.3036710
 141.1529992 141.3129978 116.6890014 141.9039992 141.1569978 116.1160014
 140.8139992 142.1649978 116.4140014 141.2099587 141.4068138 116.5734078
 145.5689992 139.1279978 121.7180014 145.7609992 138.1969978 121.6060014
 146.4269992 139.5529978 121.7080014 145.7112269 139.0579928 121.7013192
 137.6379992 138.7019978 120.8690014 136.8699992 138.1689978 120.6590014
 138.3159992 138.3919978 120.2690014 137.6246973 138.5872375 120.7591796
 140.3769992 133.3299978 116.8810014 140.2789992 134.2759978 116.7760014
 139.6349992 132.9569978 116.4060014 140.2631913 133.4091813 116.8023539
 141.6409992 137.6509978 120.4450014 141.4059992 137.4319978 121.3470014
 140.8579992 137.4439978 119.9350014 141.5029219 137.5930066 120.4995852
 144.3569992 136.7789978 119.5210014 143.4089992 136.8109978 119.6530014
 144.6689992 136.1529978 120.1740014 144.2695190 136.6987262 119.6273564
 135.8179992 136.6219978 120.5730014 136.0299992 135.9159978 119.9630014
 135.7069992 136.1849978 121.4170014 135.8320269 136.4661921 120.6035873
 140.5989992 132.6239978 119.5530014 141.3109992 131.9839978 119.5390014
 140.4979992 132.8899978 118.6390014 140.6827261 132.5724190 119.4275537
 140.9529992 134.3059978 121.6060014 140.8209992 133.8309978 120.7860014
 140.3529992 135.0509978 121.5510014 140.8539070 134.3415789 121.4863251
 133.6659992 142.3749978 113.5990014 133.8509992 142.2929978 112.6630014
 134.5159992 142.2509978 114.0230014 133.8060916 142.3470393 113.5282896
 133.2639992 137.6449978 119.7400014 134.1829992 137.5229978 119.9760014
 132.8139992 136.8949978 120.1290014 133.3291148 137.5268751 119.8249408
 134.4849992 135.9579978 112.6310014 134.9299992 135.1659978 112.9330014
 134.9509992 136.6739978 113.0620014 134.6089059 135.9464474 112.7306079
 132.7889992 138.9569978 113.7000014 133.2809992 138.7359978 112.9090014
 133.1509992 139.7969978 113.9810014 132.9052923 139.0403468 113.6297407
 133.1029992 135.2149978 107.7540014 132.1779992 135.4229978 107.6250014
 133.5569992 135.6989978 107.0650014 133.0376374 135.3089949 107.6430957
 133.0659992 133.9529978 116.0990014 132.4009992 133.7069978 116.7420014
 132.6229992 134.5749978 115.5210014 132.9150937 134.0033614 116.1089379
 143.2159992 134.8259978 112.1070014 142.5419992 134.1959978 112.3630014
 143.7799992 134.3419978 111.5040014 143.2000384 134.6743708 112.0605020
 135.5429992 133.4599978 109.9290014 134.7659992 133.2249978 109.4220014
 136.0729992 132.6629978 109.9380014 135.5083451 133.3201268 109.8608627
 134.3789992 133.2579978 105.7330014 134.8179992 133.8689978 105.1410014
 133.7449992 133.7959978 106.2070014 134.3533859 133.4144064 105.7160305
 140.1219992 133.3859978 109.7430014 140.9959992 133.7749978 109.7130014
 139.9859992 133.1709978 110.6650014 140.2233207 133.4101923 109.8636509
 141.2659992 135.4669978 106.6330014 141.4439992 134.8199978 107.3150014
 141.2119992 136.3009978 107.1000014 141.2831025 135.4910504 106.7896433
 135.4999992 133.9739978 119.4470014 135.1339992 133.2079978 119.8900014
 136.4129992 134.0029978 119.7340014 135.5733225 133.8731906 119.5463459
 137.4729992 133.3239978 120.9830014 138.3719992 133.0499978 120.7980014
 137.0869992 132.5819978 121.4470014 137.5437237 133.1861508 121.0204710
  12.6289992  10.6239978 128.7440014  12.7179992  11.5679978 128.6120014
  11.9909992  10.3489978 128.0860014  12.5549062  10.7159812 128.6369641
  11.5619992   9.8789978 132.1630014  11.5239992   9.2329978 132.8680014
  11.2399992   9.4119978 131.3920014  11.5132679   9.7274276 132.1552921
   3.9299992   9.4929978 133.7560014   3.9719992   8.8679978 134.4790014
   4.6329992  10.1169978 133.9380014   4.0307345   9.4917873 133.8795274
  15.2679992  12.8179978 130.4650014  14.8269992  12.0979978 130.9150014
  15.2549992  13.5389978 131.0940014  15.2057960  12.8168329 130.6117567
   4.8539992  13.9429978 132.2910014   4.4839992  13.1409978 131.9210014
   5.7949992  13.7749978 132.3370014   4.9305984  13.8104638 132.2465603
   1.4639992   7.6029978 127.6840014   1.0159992   8.4489978 127.6650014
   0.9029992   7.0239978 127.1680014   1.3269603   7.6403674 127.6116720
   2.1739992   9.7649978 129.8100014   2.3879992   8.9949978 130.3370014
   2.9119992   9.8549978 129.2060014   2.3029652   9.6718012 129.8005212
  12.3799992  17.9219978 130.6770014  12.9989992  17.2459978 130.4030014
  12.1709992  17.7039978 131.5850014  12.4366232  17.7997938 130.7622517
   9.9509992  12.3109978 132.5690014  10.2549992  11.6249978 131.9750014
  10.6729992  12.4299978 133.1870014  10.0901152  12.2332189 132.5712123
  18.6139992   3.9129978 133.4300014  18.6639992   4.5229978 134.1660014
  19.0399992   4.3739978 132.7070014  18.6784108   4.0587709 133.4330112
  13.0919992   6.7049978 132.8970014  13.2349992   5.7589978 132.9170014
  12.9859992   6.9119978 131.9680014  13.0972509   6.6034813 132.7742231
   6.2469992   4.8069978 130.1690014   6.2899992   5.6669978 129.7510014
   5.7889992   4.2549978 129.5350014   6.1909815   4.8500621 130.0261197
  13.9689992   4.9379978 128.5700014  14.6159992   4.6089978 129.1950014
  14.4789992   5.4549978 127.9470014  14.1264317   4.9629227 128.5712167
   2.8669992   7.2039978 130.9310014   3.5209992   6.6539978 131.3630014
   2.8909992   6.9299978 130.0140014   2.9597199   7.0917167 130.8661668
   8.0239992   8.7539978 130.1460014   8.6399992   8.2269978 130.6560014
   7.4369992   8.1139978 129.7430014   8.0289239   8.5954117 130.1612952
  19.0059992   5.3909978 135.6660014  18.3169992   6.0489978 135.5700014
  19.0209992   5.1929978 136.6020014  18.9136741   5.4543243 135.7794630
   5.0569992   3.7249978 134.2430014   4.8379992   4.2549978 133.4770014
   4.3889992   3.9509978 134.8900014   4.9367001   3.8281154 134.2256064
  12.4259992  13.2249978 127.7870014  12.1309992  12.9019978 126.9360014
  12.1019992  14.1249978 127.8280014  12.3417983  13.3024026 127.6759771
   7.6259992  11.3999978 134.5310014   6.8859992  11.9989978 134.6340014
   8.3399992  11.9539978 134.2150014   7.6213288  11.5567356 134.5023805
  15.7329992   4.2289978 130.5500014  15.5179992   3.4629978 131.0830014
  16.3889992   4.7009978 131.0630014  15.7922673   4.1880728 130.6921990
   4.6509992   5.6169978 132.1950014   5.2649992   6.2499978 132.5690014
   5.1629992   5.1449978 131.5390014   4.8042277   5.6397352 132.1574279
   6.0339992  13.3649978 135.3180014   6.0279992  14.2439978 134.9400014
   5.1799992  13.2809978 135.7430014   5.9177925  13.4739535 135.3236887
   2.1549992  13.0359978 126.1000014   1.8829992  13.2649978 125.2110014
   2.1999992  13.8729978 126.5600014   2.1238709  13.1806058 126.0406107
  15.7799992  14.6569978 132.8120014  14.8379992  14.7159978 132.9740014
  16.0559992  15.5629978 132.6750014  15.6885865  14.7875288 132.8156192
  16.0799992   2.9439978 134.2300014  15.3439992   3.5539978 134.1920014
  16.7639992   3.3589978 133.7030014  16.0715506   3.0836400 134.1536051
   9.0839992   1.0299978 131.6960014   8.9659992   0.0819978 131.6410014
   8.2289992   1.3629978 131.9690014   8.9522679   0.9451926 131.7253720
  14.0319992  16.4379978 129.4380014  14.4569992  15.7309978 128.9530014
  14.3489992  17.2399978 129.0210014  14.1330266  16.4495190 129.3152479
  15.1919992  14.3389978 127.9460014  14.9339992  13.6489978 127.3350014
  15.2629992  13.8959978 128.7920014  15.1662837  14.1847106 127.9766912
  16.8779992  12.9059978 136.4240014  17.0169992  12.3139978 135.6840014
  17.0449992  13.7789978 136.0670014  16.9195562  12.9429896 136.2746283
  11.3499992   9.8679978 126.1960014  10.6389992  10.4029978 125.8440014
  12.0409992   9.9229978 125.5360014  11.3460751   9.9486777 126.0585858
  11.4039992   8.3249978 123.2350014  12.1049992   8.3479978 123.8860014
  11.7059992   7.6969978 122.5790014  11.5408282   8.2432339 123.2354496
  18.7189992   9.2459978 134.4900014  18.0669992   9.9399978 134.5790014
  19.1849992   9.4559978 133.6800014  18.6925937   9.3695019 134.3927533
  14.7559992  10.0769978 127.1480014  14.0239992  10.3059978 127.7210014
  15.2029992   9.3639978 127.6030014  14.7162753  10.0118972 127.2879715
  14.6529992   8.2519978 136.2160014  14.7329992   9.0149978 136.7870014
  14.0519992   8.5309978 135.5250014  14.5827245   8.3942630 136.2008424
   6.4009992  10.7079978 129.0300014   6.0709992  10.3369978 128.2120014
   6.9899992  10.0369978 129.3770014   6.4353970  10.5666063 128.9649404
   7.7679992  14.1359978 131.7120014   7.6729992  13.5569978 130.9550014
   8.4969992  13.7649978 132.2080014   7.8536161  14.0065891 131.6755209
   6.7679992   9.4759978 132.6640014   7.3329992   9.5979978 131.9010014
   7.0869992  10.1139978 133.3030014   6.8883977   9.5788851 132.6459424
  13.0769992  14.9799978 133.3980014  12.8369992  15.6419978 134.0460014
  12.8789992  14.1449978 133.8230014  13.0173826  14.9578115 133.5441566
   7.6479992  13.8759978 137.3810014   7.3369992  14.6579978 137.8360014
   6.9979992  13.7229978 136.6950014   7.5175538  13.9624087 137.3505898
  13.6269992   9.2399978 124.8330014  14.2059992   9.3899978 125.5800014
  14.0409992   9.7099978 124.1100014  13.7623122   9.3241277 124.8375042
   4.5679992  10.0739978 136.6100014   4.6379992  10.7249978 137.3080014
   3.6769992  10.1769978 136.2750014   4.4571802  10.1769757 136.6602249
  11.3529992  15.9759978 128.2680014  11.8269992  16.2719978 129.0460014
  10.7899992  16.7149978 128.0350014  11.3417361  16.1162721 128.3428611
   5.8869992  15.9469978 138.1440014   5.8949992  15.8109978 137.1970014
   4.9709992  15.8299978 138.3960014   5.7642528  15.9125463 138.0483243
  17.3259992   0.9899978 124.6460014  16.4259992   1.1289978 124.9410014
  17.5779992   1.8209978 124.2440014  17.2368683   1.1214055 124.6320232
   5.3919992   9.7769978 126.6200014   5.0999992  10.5449978 126.1290014
   4.7169992   9.1179978 126.4570014   5.2608497   9.7929745 126.5308260
  18.5149992  15.3559978 123.0220014  18.5879992  16.2949978 123.1930014
  19.4199992  15.0509978 122.9660014  18.6474158  15.4433061 123.0378392
   1.4849992  12.1399978 135.4350014   0.9829992  12.1119978 134.6200014
   1.4899992  11.2349978 135.7440014   1.4170416  12.0137368 135.3653766
   1.2349992  14.9209978 132.3190014   2.1809992  14.7759978 132.3000014
   1.1219992  15.7049978 132.8560014   1.3493578  15.0071697 132.3890317
  19.4329992  15.5869978 138.0010014  19.3829992  14.6309978 137.9640014
  18.6059992  15.8539978 138.4020014  19.3143987  15.4925174 138.0501446
  10.4109992  15.1609978 136.8770014  10.4989992  15.9869978 137.3520014
   9.5479992  14.8309978 137.1260014  10.3063357  15.2295468 136.9757653
  10.8259992  18.9329978 126.6830014  10.7499992  18.8119978 125.7370014
  10.8579992  19.8819978 126.8020014  10.8199156  19.0447530 126.5695048
   4.4789992  17.7219978 128.4640014   4.6309992  17.3739978 129.3430014
   3.6279992  17.3649978 128.2090014   4.3847899  17.6261738 128.5497340
  13.9269992  18.0869978 123.6850014  14.3019992  17.3429978 123.2150014
  13.9319992  17.8169978 124.6040014  13.9790024  17.9486950 123.7447987
  13.5959992  18.0129978 126.4350014  12.6609992  18.1129978 126.6130014
  13.8759992  17.3029978 127.0130014  13.5058173  17.9307239 126.5374998
  16.5849992   7.0799978 138.4810014  16.1769992   7.5599978 137.7610014
  16.6249992   6.1739978 138.1730014  16.5345476   7.0233160 138.3408247
   3.7339992  13.4639978 136.4780014   3.9499992  13.1019978 137.3370014
   2.8779992  13.0889978 136.2680014   3.6479354  13.3637906 136.5672160
   6.3519992   1.9339978 132.4730014   5.4909992   1.8469978 132.0660014
   6.3299992   2.7899978 132.9010014   6.2310411   2.0377884 132.4750857
  11.0149992   1.6559978 135.8480014  11.4349992   1.2409978 136.6010014
  10.0819992   1.4769978 135.9650014  10.9463736   1.5749910 135.9668968
  14.3419992   5.4109978 136.7010014  13.8279992   5.2859978 137.4990014
  14.1859992   6.3239978 136.4570014  14.2506967   5.5172123 136.7770937
  15.1039992  10.2719978 122.4630014  15.1459992  10.0499978 121.5330014
  15.9529992  10.6709978 122.6530014  15.2245253  10.2955498 122.3613822
  10.6769992   4.1479978 123.1330014  10.4229992   4.1669978 124.0560014
  10.4199992   3.2769978 122.8320014  10.6075133   4.0328110 123.2185082
   6.4429992   6.8989978 133.5680014   5.8019992   6.8589978 134.2770014
   6.4809992   7.8259978 133.3310014   6.3603670   7.0187795 133.6330550
   6.4399992   7.1199978 128.4800014   5.5479992   6.7799978 128.4220014
   6.8909992   6.7429978 127.7250014   6.3786815   7.0223762 128.3699203
  11.9759992   7.5359978 127.2970014  11.5669992   8.3509978 127.0060014
  12.6959992   7.3959978 126.6830014  12.0174013   7.6286571 127.1740875
  11.0779992   7.7119978 138.7850014  10.5149992   7.0069978 139.1060014
  11.9039992   7.5909978 139.2530014  11.1126674   7.5992165 138.8921751
  12.9809992   6.9819978 130.1110014  12.7849992   7.5879978 129.3960014
  13.1619992   6.1489978 129.6770014  12.9786584   6.9522513 129.9544212
   4.1929992   7.2199978 135.4350014   4.1549992   7.6199978 136.3040014
   3.7029992   6.4029978 135.5260014   4.1215621   7.1642510 135.5661377
   7.5589992   4.5939978 122.2340014   7.1279992   4.1489978 122.9640014
   6.8409992   4.9649978 121.7220014   7.4029363   4.5832968 122.2646211
   0.8019992   4.3359978 129.2860014   1.4319992   4.3069978 130.0050014
   1.2509992   3.9109978 128.5560014   0.9490692   4.2745316 129.2857771
   2.0759992   5.0819978 124.7100014   2.5499992   5.6729978 124.1250014
   1.3579992   5.6119978 125.0570014   2.0438640   5.2345511 124.6767969
  12.2449992   8.6199978 134.7830014  12.5679992   7.9889978 134.1400014
  11.8039992   8.0859978 135.4430014  12.2295789   8.4613522 134.7842232
   9.0219992   4.5479978 129.5670014   8.1109992   4.6049978 129.8550014
   9.5269992   4.4879978 130.3770014   8.9655387   4.5476870 129.7160646
   3.8499992   6.1769978 128.3930014   2.9609992   6.2759978 128.0530014
   4.1469992   5.3349978 128.0470014   3.7684177   6.0767687 128.2996940
   7.5029992   6.1769978 126.0500014   8.4349992   6.3059978 126.2280014
   7.2879992   6.8459978 125.4000014   7.6014472   6.2850806 125.9864891
  13.4269992   3.7829978 132.8310014  12.7499992   3.9139978 133.4950014
  12.9419992   3.6279978 132.0210014  13.2687265   3.7799659 132.8123397
   6.1769992   7.3709978 123.6170014   5.6349992   6.9919978 122.9250014
   7.0109992   7.5659978 123.1880014   6.2155159   7.3455076 123.4644419
  16.7149992  19.4539978 139.1080014  16.9139992  19.8779978 138.2730014
  17.3699992  19.7979978 139.7150014  16.8308501  19.5586091 139.0757097
   4.3129992  11.9279978 138.7160014   5.0449992  12.1829978 139.2770014
   3.5319992  12.1329978 139.2310014   4.3077684  11.9906468 138.8624782
  10.3419992   7.3349978 131.4540014  10.9059992   6.7889978 130.9070014
  10.1939992   6.8139978 132.2420014  10.3992575   7.1896552 131.4856987
   5.3439992   3.4719978 127.8720014   5.0269992   2.5689978 127.8370014
   6.1249992   3.4739978 127.3190014   5.4062307   3.3486951 127.7924314
   8.9679992   5.7239978 133.8680014   8.1329992   6.1779978 133.9780014
   9.4919992   5.9999978 134.6200014   8.9245070   5.8234666 133.9847152
   9.5129992  11.9369978 125.5520014   8.7679992  11.4289978 125.2300014
   9.3779992  11.9859978 126.4990014   9.3929047  11.8741596 125.6358845
  16.6629992  11.0699978 134.3390014  17.3039992  11.5259978 133.7950014
  15.8319992  11.1829978 133.8770014  16.6385171  11.1477502 134.2020237
  13.4099992   4.7509978 123.7520014  12.4719992   4.8619978 123.6000014
  13.7079992   5.6069978 124.0580014  13.3216402   4.8820621 123.7725571
  11.0319992  12.1209978 136.7890014  10.6859992  11.7389978 137.5960014
  10.8319992  13.0539978 136.8610014  10.9576523  12.1949095 136.9090735
  14.1289992   6.6179978 125.4120014  15.0209992   6.4799978 125.7310014
  14.1849992   7.4089978 124.8760014  14.2587107   6.7060526 125.3832091
   4.6369992  11.2319978 131.3220014   5.3819992  11.2289978 130.7210014
   4.7149992  10.4079978 131.8040014   4.7494158  11.1202916 131.3049153
  11.6379992  13.3949978 124.5780014  11.3429992  14.2219978 124.9590014
  10.9349992  12.7759978 124.7740014  11.5025471  13.4245227 124.6566698
   1.6449992   9.6919978 136.6370014   1.8679992   9.2739978 137.4690014
   1.0429992   9.0799978 136.2140014   1.5941260   9.5519933 136.6937320
   8.6619992   9.2089978 138.8500014   8.3659992   9.0439978 137.9550014
   9.5929992   8.9889978 138.8390014   8.7473982   9.1566578 138.7260045
  13.2819992  14.5829978 136.7400014  12.3819992  14.7659978 136.4720014
  13.3159992  14.8419978 137.6610014  13.1632909  14.6430815 136.8277852
  19.0139992   6.8269978 125.1070014  18.4589992   6.4309978 124.4350014
  19.1139992   7.7379978 124.8290014  18.9515888   6.8958990 124.9775206
  18.9769992  12.6279978 137.9440014  18.1259992  12.8659978 137.5770014
  19.5669992  12.6109978 137.1910014  18.9402408  12.6582966 137.7918879
  17.3089992  15.6129978 125.5720014  16.9359992  14.7879978 125.8810014
  17.5859992  15.4299978 124.6750014  17.2953871  15.4752441 125.4929677
  14.4689992  10.4209978 132.5930014  13.5409992  10.1899978 132.5660014
  14.9199992   9.6439978 132.2630014  14.4028165  10.2842774 132.5446790
   7.0119992  14.7499978 128.7260014   7.5399992  15.5229978 128.5260014
   6.1319992  14.9739978 128.4250014   6.9653176  14.8863161 128.6578409
   2.7669992   9.6119978 123.3140014   3.3829992  10.2389978 123.6930014
   1.9049992   9.9279978 123.5850014   2.7348195   9.7405798 123.4025386
   8.4399992  12.4129978 128.3030014   8.1989992  13.3379978 128.3440014
   7.6989992  11.9539978 128.6990014   8.3068390  12.4776403 128.3621404
   8.9539992  16.5619978 134.6180014   9.3169992  17.4159978 134.3840014
   9.4859992  16.2699978 135.3580014   9.0756090  16.6394058 134.6860219
   7.1229992  17.4339978 127.8480014   6.1729992  17.5399978 127.8990014
   7.4749992  18.2549978 128.1930014   7.0405480  17.5594438 127.9015999
  12.4979992  12.6609978 134.3180014  12.0729992  12.4329978 135.1450014
  13.0789992  11.9219978 134.1360014  12.5183930  12.5299843 134.4064732
  14.7009992  13.5899978 123.3920014  15.0549992  13.2099978 124.1970014
  13.7529992  13.4959978 123.4790014  14.6211820  13.5253092 123.5138714
  15.1569992  17.2129978 136.7880014  14.5549992  16.6569978 136.2920014
  15.4379992  17.8799978 136.1620014  15.1126829  17.2271613 136.6355443
  19.2049992  18.0689978 123.5930014  19.9489992  18.6549978 123.4530014
  18.5109992  18.6379978 123.9270014  19.2130201  18.2260603 123.6189772
   3.2789992   4.4459978 136.1950014   2.3869992   4.7839978 136.1280014
   3.1809992   3.5899978 136.6130014   3.1434965   4.3766499 136.2423044
  15.5669992  12.2619978 125.6190014  15.2899992  11.5339978 126.1750014
  16.4949992  12.3809978 125.8240014  15.6544499  12.1784213 125.7228044
   2.9309992  16.2499978 134.6300014   3.1479992  15.3179978 134.5990014
   3.1769992  16.5249978 135.5130014   2.9939809  16.1595686 134.7451691
   8.7919992  14.7019978 121.8390014   9.0309992  13.9529978 121.2920014
   8.5229992  14.3139978 122.6720014   8.7883233  14.5471853 121.8767809
   7.7289992  14.2719978 124.2960014   7.8759992  13.7519978 125.0860014
   7.7259992  15.1789978 124.6020014   7.7487300  14.3233964 124.4455895
   4.1819992  11.5239978 124.8060014   3.4959992  11.8769978 125.3730014
   4.7049992  12.2869978 124.5600014   4.1589033  11.6753746 124.8502661
  12.0139992   4.1869978 135.0850014  12.7129992   4.2609978 135.7350014
  11.6329992   3.3219978 135.2390014  12.0582097   4.0802389 135.1947997
  12.7979992   3.8389978 126.1820014  13.0179992   4.3099978 125.3790014
  13.3569992   4.2329978 126.8520014  12.9036730   3.9567432 126.1625906
  10.4669992  15.9689978 125.0450014   9.6499992  16.4659978 125.0970014
  10.9959992  16.4449978 124.4050014  10.4268508  16.1012543 124.9656035
   9.9979992   5.5669978 127.0170014  10.8099992   6.0709978 127.0630014
   9.7539992   5.4219978 127.9310014  10.0761467   5.6163749 127.1468575
  10.5339992   6.5529978 136.2020014  10.6529992   7.1269978 136.9590014
  11.1889992   5.8649978 136.3160014  10.6389146   6.5385574 136.3211314
  10.8819992   2.6479978 127.9550014  10.5349992   3.2649978 128.6000014
  11.5409992   3.1489978 127.4740014  10.9235949   2.8001099 127.9782271
   7.8049992  17.0129978 125.0270014   7.9659992  17.8129978 124.5260014
   7.6079992  17.3199978 125.9120014   7.8003919  17.1639129 125.0781006
   6.5399992   3.7109978 124.6420014   6.4559992   4.5989978 124.9890014
   7.4299992   3.4459978 124.8740014   6.6488163   3.7967179 124.7208596
  16.7379992   4.4599978 137.0370014  15.8219992   4.7219978 136.9490014
  17.0739992   4.4569978 136.1400014  16.6579789   4.4954626 136.9037847
  15.3409992   8.2099978 131.1320014  14.5429992   7.7949978 130.8040014
  15.7859992   7.5199978 131.6230014  15.2919684   8.0598628 131.1535227
   4.7979992  14.1379978 123.7030014   5.3899992  14.8379978 123.9790014
   5.2569992  13.7049978 122.9830014   4.9410791  14.1752908 123.6434607
   3.1139992   6.8029978 122.8190014   3.0689992   7.7419978 122.9970014
   2.2259992   6.5669978 122.5490014   2.9878555   6.8996874 122.8068939
  16.4269992  17.4659978 132.7550014  16.2709992  18.1449978 132.0980014
  17.3599992  17.5379978 132.9580014  16.5317387  17.5686390 132.6925342
   3.9219992   1.5839978 131.4920014   3.6929992   1.6429978 130.5640014
   3.4799992   0.7929978 131.7980014   3.8308801   1.4850540 131.4064729
   2.8529992  15.5249978 127.6520014   2.0199992  15.9969978 127.6800014
   3.3979992  16.0349978 127.0540014   2.8127590  15.6585897 127.5749194
   2.1409992  18.1369978 138.9820014   2.6809992  17.9209978 139.7420014
   1.6599992  17.3319978 138.7930014   2.1498613  17.9985400 139.0604782
   6.7379992  17.0569978 140.6030014   7.5059992  16.5979978 140.9440014
   6.7169992  16.8309978 139.6730014   6.8402135  16.9636668 140.5239491
  10.8299992  16.5649978 121.9780014  10.1859992  15.9339978 122.2990014
  11.5919992  16.0339978 121.7460014  10.8448058  16.4067902 121.9906038
  13.3149992  15.4369978 139.3320014  12.9639992  14.5799978 139.5750014
  14.0409992  15.5789978 139.9390014  13.3651590  15.3390178 139.4472907
  15.4349992  16.3819978 122.2120014  15.7179992  15.5869978 122.6640014
  16.1739992  16.6149978 121.6510014  15.5736956  16.3047031 122.1979822
   2.0479992  11.9479978 139.9370014   2.1919992  11.0459978 139.6500014
   1.2759992  12.2339978 139.4490014   1.9633303  11.8633243 139.8317908
   6.3889992  12.2909978 122.0690014   6.4539992  11.4969978 122.6000014
   7.0419992  12.1729978 121.3790014   6.4861754  12.1663337 122.0484259
   8.7029992  11.9169978 139.3690014   8.3749992  12.1879978 138.5120014
   8.8549992  10.9759978 139.2820014   8.6786030  11.8268973 139.2397945
  11.7419992  13.3379978 121.8050014  11.4729992  13.5189978 122.7060014
  11.5349992  12.4129978 121.6740014  11.6772000  13.2376774 121.9105693
  14.4379992  11.8329978 136.7530014  15.1829992  12.4219978 136.6330014
  13.6809992  12.4149978 136.8160014  14.4375205  11.9921997 136.7451119
   2.8809992   9.1479978 139.3570014   3.2889992   8.2909978 139.2360014
   2.6199992   9.1619978 140.2780014   2.9016016   9.0325119 139.4649192
   7.5389992  10.2639978 124.3750014   7.0789992   9.7799978 125.0610014
   7.7939992   9.5949978 123.7390014   7.5105038  10.1073689 124.3829447
   6.8279992   8.1569978 136.7310014   6.2089992   8.8309978 137.0110014
   7.1719992   8.4779978 135.8980014   6.7897605   8.2927198 136.6566707
   8.6099992   8.5069978 122.6370014   8.4289992   8.3519978 121.7100014
   9.5599992   8.6149978 122.6820014   8.7136566   8.5003669 122.5160929
  11.8469992  10.6279978 140.0080014  12.8009992  10.7119978 139.9810014
  11.6869992   9.9159978 140.6280014  11.9557182  10.5432842 140.0880733
  17.9999992  10.8609978 122.0830014  17.7259992  10.4369978 121.2700014
  18.0389992  11.7929978 121.8660014  17.9677716  10.9288827 121.9424286
   7.1669992   5.5119978 137.8130014   7.3169992   4.7829978 137.2110014
   7.1689992   6.2889978 137.2540014   7.1877967   5.5172708 137.6550541
   7.5799992   3.8809978 135.3060014   8.1149992   4.3329978 134.6540014
   6.7269992   3.7729978 134.8830014   7.5380374   3.9282665 135.1596710
   9.1609992   9.3209978 135.5450014   9.9119992   9.1649978 134.9720014
   8.8219992  10.1729978 135.2700014   9.2179587   9.4148138 135.4294078
  13.5769992   7.1359978 140.5740014  13.7689992   6.2049978 140.4620014
  14.4349992   7.5609978 140.5640014  13.7192269   7.0659928 140.5573192
  14.8939992   9.9249978 138.6510014  14.6119992  10.6339978 138.0740014
  15.8359992   9.8519978 138.5000014  14.9827656  10.0123128 138.5514809
   5.6459992   6.7099978 139.7250014   4.8779992   6.1769978 139.5150014
   6.3239992   6.3999978 139.1250014   5.6326973   6.5952375 139.6151796
   8.3849992   1.3379978 135.7370014   8.2869992   2.2839978 135.6320014
   7.6429992   0.9649978 135.2620014   8.2711913   1.4171813 135.6583539
   9.6489992   5.6589978 139.3010014   9.4139992   5.4399978 140.2030014
   8.8659992   5.4519978 138.7910014   9.5109219   5.6010066 139.3555852
  12.3649992   4.7869978 138.3770014  11.4169992   4.8189978 138.5090014
  12.6769992   4.1609978 139.0300014  12.2775190   4.7067262 138.4833564
  13.9989992   3.4209978 140.3820014  13.9019992   2.4689978 140.3760014
  13.6769992   3.6889978 141.2420014  13.9421761   3.3269744 140.4974936
   3.8259992   4.6299978 139.4290014   4.0379992   3.9239978 138.8190014
   3.7149992   4.1929978 140.2730014   3.8400269   4.4741921 139.4595873
   8.6069992   0.6319978 138.4090014   9.3189992  -0.0080022 138.3950014
   8.5059992   0.8979978 137.4950014   8.6907261   0.5804190 138.2835537
   8.9609992   2.3139978 140.4620014   8.8289992   1.8389978 139.6420014
   8.3609992   3.0589978 140.4070014   8.8619070   2.3495789 140.3423251
   8.5069992  19.1969978 123.6390014   9.4399992  19.3549978 123.7820014
   8.2429992  19.8729978 123.0140014   8.5989308  19.3099104 123.5741396
   2.0749992  13.8339978 123.1210014   2.9889992  13.9129978 123.3950014
   2.0829992  13.1469978 122.4550014   2.2011143  13.7519085 123.0684274
   0.7239992  19.2269978 128.1990014   0.0769992  18.7649978 127.6660014
   1.0789992  18.5549978 128.7810014   0.6834506  19.0729503 128.2047341
   1.5939992  17.3069978 130.0030014   1.2599992  16.4269978 130.1750014
   1.8169992  17.6529978 130.8680014   1.5783721  17.2331938 130.1434168
  19.1429992  18.1169978 132.9840014  19.1209992  18.3019978 133.9230014
  19.8329992  18.6849978 132.6430014  19.2333439  18.2191887 133.0664791
  18.7059992  17.6839978 135.9060014  18.2189992  16.9489978 135.5350014
  19.2549992  17.2899978 136.5840014  18.7135247  17.5301057 135.9468461
  17.1569992  13.4739978 140.5440014  16.2909992  13.3689978 140.9380014
  17.5329992  14.2319978 140.9900014  17.0893401  13.5621708 140.6582620
  18.4579992  11.7299978 126.0580014  19.3079992  12.1509978 126.1850014
  18.4629992  10.9899978 126.6650014  18.5751143  11.6876094 126.1574750
  18.8519992   9.7839978 127.8820014  18.1259992   9.3039978 128.2790014
  19.4339992   9.9889978 128.6140014  18.8311635   9.7459166 128.0353748
  18.6109992  12.5689978 132.8290014  19.4449992  12.1909978 132.5490014
  18.7229992  13.5119978 132.7100014  18.7402522  12.6447742 132.7746020
  17.0979992  15.4469978 135.1360014  16.4499992  15.7719978 135.7620014
  16.5799992  15.0059978 134.4620014  16.9394168  15.4318523 135.1305307
  19.1209992   9.6849978 124.2730014  18.5989992  10.0409978 123.5540014
  19.0879992  10.3599978 124.9510014  19.0450699   9.8249848 124.2662129
  17.4699992   6.9239978 122.8240014  17.5659992   7.5909978 122.1440014
  17.3299992   6.1089978 122.3420014  17.4642063   6.9050667 122.6658377
  16.6389992   8.3049978 128.4450014  16.4889992   7.3599978 128.4240014
  16.2849992   8.5859978 129.2880014  16.5705527   8.2135605 128.5561859
   1.6739992  10.3829978 132.4550014   1.8589992  10.3009978 131.5190014
   2.5239992  10.2589978 132.8790014   1.8140916  10.3550393 132.3842896
  17.4949992  10.2749978 138.0830014  18.0779992   9.5399978 138.2750014
  18.0589992  11.0469978 138.1300014  17.6509781  10.2788145 138.1156164
  18.9919992   8.1779978 138.7680014  18.1289992   7.7989978 138.6020014
  19.5959992   7.4389978 138.6940014  18.9555944   8.0262978 138.7352984
  16.7169992   4.3319978 121.9410014  17.3279992   3.9609978 122.5780014
  15.8799992   3.9109978 122.1370014  16.6874947   4.2242756 122.0547252
  16.3499992   5.8869978 126.9070014  16.6289992   4.9799978 127.0310014
  17.1089992   6.3209978 126.5180014  16.4908619   5.8214502 126.8713795
  16.9609992   6.4689978 132.3430014  17.8939992   6.6809978 132.3090014
  16.7259992   6.5699978 133.2650014  17.0568308   6.5116503 132.4630214
  16.9909992   7.2059978 135.1190014  16.1479992   7.4739978 135.4850014
  17.4329992   8.0279978 134.9080014  16.9354138   7.3538273 135.1405518
   1.2719992   5.6529978 138.5960014   2.1909992   5.5309978 138.8320014
   0.8219992   4.9029978 138.9850014   1.3371148   5.5348751 138.6809408
  19.2739992   1.1859978 140.4720014  19.6229992   0.5319978 139.8670014
  19.4209992   2.0229978 140.0330014  19.3417355   1.2096067 140.3296564
  16.9629992   3.1499978 126.9550014  17.1449992   2.7009978 127.7810014
  16.3629992   2.5659978 126.4920014  16.9067529   3.0096131 127.0053619
   2.4929992   3.9659978 131.4870014   2.9379992   3.1739978 131.7890014
   2.9589992   4.6819978 131.9180014   2.6169059   3.9544474 131.5866079
   0.7969992   6.9649978 132.5560014   1.2889992   6.7439978 131.7650014
   1.1589992   7.8049978 132.8370014   0.9132923   7.0483468 132.4857407
  18.7929992   3.2949978 138.8220014  17.8759992   3.5659978 138.7860014
  18.9159992   2.7599978 138.0380014  18.6840828   3.2597700 138.7110785
  18.8299992   3.2179978 123.4830014  19.2419992   2.4969978 123.0080014
  19.5109992   3.8869978 123.5420014  18.9785900   3.2097306 123.4259038
   1.1109992   3.2229978 126.6100014   0.1859992   3.4309978 126.4810014
   1.5649992   3.7069978 125.9210014   1.0456374   3.3169949 126.4990957
  15.8809992  18.2069978 128.5560014  16.5339992  17.8589978 127.9480014
  16.3919992  18.6949978 129.2020014  16.0392777  18.2253815 128.5602047
   1.0739992   1.9609978 134.9550014   0.4089992   1.7149978 135.5980014
   0.6309992   2.5829978 134.3770014   0.9230937   2.0113614 134.9649379
   3.2659992  15.1359978 139.0990014   2.4449992  15.3109978 138.6390014
   3.0139992  15.0629978 140.0200014   3.1196173  15.1500794 139.1604972
   6.2199992  16.1099978 135.3580014   5.7959992  16.9199978 135.0750014
   7.1249992  16.1959978 135.0560014   6.2842433  16.2323331 135.2785377
  10.5319992  17.5089978 138.3170014  10.7159992  17.1759978 139.1950014
  11.3779992  17.8189978 137.9950014  10.6716484  17.5052979 138.3937617
  12.8769992  18.7949978 137.5610014  13.5539992  18.1619978 137.3210014
  13.1979992  19.1959978 138.3680014  13.0131323  18.7625691 137.6373158
  17.7939992   1.3849978 136.6410014  16.9809992   1.7099978 136.2530014
  18.0269992   0.6239978 136.1080014  17.7142566   1.3266559 136.5159213
   3.6219992  19.3669978 135.4050014   2.9019992  19.8069978 134.9540014
   3.2569992  19.1159978 136.2540014   3.4739796  19.3933824 135.4579329
   6.0889992  18.9669978 134.4350014   5.2249992  19.0389978 134.8390014
   6.0339992  19.5139978 133.6510014   5.9631942  19.0507849 134.3844000
  10.7999992  18.8549978 133.6100014  10.3429992  19.3839978 132.9560014
  10.9629992  19.4579978 134.3360014  10.7594476  19.0089140 133.6185499
  13.1279992  17.7329978 134.5550014  12.2229992  17.8979978 134.2900014
  13.5559992  18.5859978 134.4900014  13.0620700  17.8709529 134.5099520
  15.7319992  19.3029978 134.8500014  15.5499992  20.2189978 134.6400014
  15.9089992  18.8919978 134.0040014  15.7309907  19.3729741 134.7067883
   3.0369992  17.9899978 132.3150014   3.0189992  17.5639978 133.1730014
   3.8419992  17.6709978 131.9070014   3.1433221  17.8887233 132.3770225
   5.1779992  16.6999978 130.9700014   4.9589992  15.7829978 131.1400014
   6.0019992  16.8399978 131.4360014   5.2594702  16.5935511 131.0562527
   7.7149992  17.1699978 131.8190014   7.9279992  16.2819978 131.5320014
   7.7799992  17.1349978 132.7740014   7.7529075  17.0438307 131.9087373
  11.2239992   2.8339978 130.9630014  10.5499992   2.2039978 131.2190014
  11.7879992   2.3499978 130.3600014  11.2080384   2.6823708 130.9165020
  16.3669992   0.9409978 131.0760014  16.9699992   1.4889978 130.5740014
  15.4969992   1.2599978 130.8360014  16.3319190   1.0591041 130.9748679
  18.0939992   2.0799978 129.4090014  18.7049992   1.5659978 128.8830014
  18.4759992   2.9569978 129.4330014  18.2294475   2.1281323 129.3401208
   3.5509992   1.4679978 128.7850014   2.7739992   1.2329978 128.2780014
   4.0809992   0.6709978 128.7940014   3.5163451   1.3281268 128.7168627
   2.3869992   1.2659978 124.5890014   2.8259992   1.8769978 123.9970014
   1.7529992   1.8039978 125.0630014   2.3613859   1.4224064 124.5720305
   8.1299992   1.3939978 128.5990014   9.0039992   1.7829978 128.5690014
   7.9939992   1.1789978 129.5210014   8.2313207   1.4181923 128.7196509
  13.6869992   1.4239978 130.2480014  13.7629992   1.5199978 129.2990014
  13.4119992   0.5169978 130.3770014  13.6602042   1.3144241 130.1353811
  15.0399992   1.4499978 125.9400014  14.3369992   2.0649978 125.7310014
  14.5949992   0.6129978 126.0720014  14.8836292   1.4210085 125.9292439
   2.2879992  17.2139978 125.4870014   1.6029992  17.1759978 124.8190014
   2.2919992  18.1269978 125.7750014   2.1948174  17.3321998 125.4345310
   4.2479992   3.1819978 123.0310014   4.7389992   2.5519978 122.5040014
   4.8709992   3.4779978 123.6950014   4.3995062   3.1356770 123.0485438
   9.2739992   3.4749978 125.4890014   9.4519992   2.8279978 126.1710014
   9.2199992   4.3089978 125.9560014   9.2911025   3.4990504 125.6456433
  11.1519992  18.4229978 123.8840014  12.0179992  18.7899978 123.7060014
  10.9059992  17.9839978 123.0700014  11.2372097  18.4138525 123.7496019
  17.8609992  17.9859978 126.5630014  17.6669992  17.2379978 125.9980014
  17.8219992  18.7439978 125.9800014  17.8291645  17.9860786 126.4068148
   3.5079992   1.9819978 138.3030014   3.1419992   1.2159978 138.7460014
   4.4209992   2.0109978 138.5900014   3.5813225   1.8811906 138.4023459
   5.4809992   1.3319978 139.8390014   6.3799992   1.0579978 139.6540014
   5.0949992   0.5899978 140.3030014   5.5517237   1.1941508 139.8764710
   4.1059992  18.1339978 122.5120014   3.8379992  18.4199978 123.3850014
   4.8769992  17.5879978 122.6640014   4.1735600  18.0993330 122.6521499
  13.9029992   0.6649978 140.0210014  13.9789992   0.2389978 140.8750014
  14.7959992   0.6779978 139.6780014  14.0342267   0.6083952 140.0915932
  17.0789992  16.7379978 138.7130014  16.2969992  16.5509978 138.1940014
  17.0069992  17.6669978 138.9310014  16.9620863  16.8380221 138.6713574
  31.4849992  10.6239978 128.7440014  31.5739992  11.5679978 128.6120014
  30.8469992  10.3489978 128.0860014  31.4109062  10.7159812 128.6369641
  30.4179992   9.8789978 132.1630014  30.3799992   9.2329978 132.8680014
  30.0959992   9.4119978 131.3920014  30.3692679   9.7274276 132.1552921
  22.7859992   9.4929978 133.7560014  22.8279992   8.8679978 134.4790014
  23.4889992  10.1169978 133.9380014  22.8867345   9.4917873 133.8795274
  34.1239992  12.8179978 130.4650014  33.6829992  12.0979978 130.9150014
  34.1109992  13.5389978 131.0940014  34.0617960  12.8168329 130.6117567
  23.7099992  13.9429978 132.2910014  23.3399992  13.1409978 131.9210014
  24.6509992  13.7749978 132.3370014  23.7865984  13.8104638 132.2465603
  20.3199992   7.6029978 127.6840014  19.8719992   8.4489978 127.6650014
  19.7589992   7.0239978 127.1680014  20.1829603   7.6403674 127.6116720
  21.0299992   9.7649978 129.8100014  21.2439992   8.9949978 130.3370014
  21.7679992   9.8549978 129.2060014  21.1589652   9.6718012 129.8005212
  31.2359992  17.9219978 130.6770014  31.8549992  17.2459978 130.4030014
  31.0269992  17.7039978 131.5850014  31.2926232  17.7997938 130.7622517
  28.8069992  12.3109978 132.5690014  29.1109992  11.6249978 131.9750014
  29.5289992  12.4299978 133.1870014  28.9461152  12.2332189 132.5712123
  37.4699992   3.9129978 133.4300014  37.5199992   4.5229978 134.1660014
  37.8959992   4.3739978 132.7070014  37.5344108   4.0587709 133.4330112
  31.9479992   6.7049978 132.8970014  32.0909992   5.7589978 132.9170014
  31.8419992   6.9119978 131.9680014  31.9532509   6.6034813 132.7742231
  25.1029992   4.8069978 130.1690014  25.1459992   5.6669978 129.7510014
  24.6449992   4.2549978 129.5350014  25.0469815   4.8500621 130.0261197
  32.8249992   4.9379978 128.5700014  33.4719992   4.6089978 129.1950014
  33.3349992   5.4549978 127.9470014  32.9824317   4.9629227 128.5712167
  21.7229992   7.2039978 130.9310014  22.3769992   6.6539978 131.3630014
  21.7469992   6.9299978 130.0140014  21.8157199   7.0917167 130.8661668
  26.8799992   8.7539978 130.1460014  27.4959992   8.2269978 130.6560014
  26.2929992   8.1139978 129.7430014  26.8849239   8.5954117 130.1612952
  37.8619992   5.3909978 135.6660014  37.1729992   6.0489978 135.5700014
  37.8769992   5.1929978 136.6020014  37.7696740   5.4543242 135.7794630
  23.9129992   3.7249978 134.2430014  23.6939992   4.2549978 133.4770014
  23.2449992   3.9509978 134.8900014  23.7927001   3.8281154 134.2256064
  31.2819992  13.2249978 127.7870014  30.9869992  12.9019978 126.9360014
  30.9579992  14.1249978 127.8280014  31.1977983  13.3024026 127.6759771
  26.4819992  11.3999978 134.5310014  25.7419992  11.9989978 134.6340014
  27.1959992  11.9539978 134.2150014  26.4773288  11.5567356 134.5023805
  34.5889992   4.2289978 130.5500014  34.3739992   3.4629978 131.0830014
  35.2449992   4.7009978 131.0630014  34.6482673   4.1880728 130.6921990
  23.5069992   5.6169978 132.1950014  24.1209992   6.2499978 132.5690014
  24.0189992   5.1449978 131.5390014  23.6602277   5.6397352 132.1574279
  24.8899992  13.3649978 135.3180014  24.8839992  14.2439978 134.9400014
  24.0359992  13.2809978 135.7430014  24.7737925  13.4739535 135.3236887
  21.0109992  13.0359978 126.1000014  20.7389992  13.2649978 125.2110014
  21.0559992  13.8729978 126.5600014  20.9798709  13.1806058 126.0406107
  34.6359992  14.6569978 132.8120014  33.6939992  14.7159978 132.9740014
  34.9119992  15.5629978 132.6750014  34.5445865  14.7875288 132.8156192
  34.9359992   2.9439978 134.2300014  34.1999992   3.5539978 134.1920014
  35.6199992   3.3589978 133.7030014  34.9275506   3.0836400 134.1536051
  27.9399992   1.0299978 131.6960014  27.8219992   0.0819978 131.6410014
  27.0849992   1.3629978 131.9690014  27.8082679   0.9451926 131.7253720
  32.8879992  16.4379978 129.4380014  33.3129992  15.7309978 128.9530014
  33.2049992  17.2399978 129.0210014  32.9890266  16.4495190 129.3152479
  34.0479992  14.3389978 127.9460014  33.7899992  13.6489978 127.3350014
  34.1189992  13.8959978 128.7920014  34.0222837  14.1847106 127.9766912
  35.7339992  12.9059978 136.4240014  35.8729992  12.3139978 135.6840014
  35.9009992  13.7789978 136.0670014  35.7755562  12.9429896 136.2746283
  30.2059992   9.8679978 126.1960014  29.4949992  10.4029978 125.8440014
  30.8969992   9.9229978 125.5360014  30.2020751   9.9486777 126.0585858
  30.2599992   8.3249978 123.2350014  30.9609992   8.3479978 123.8860014
  30.5619992   7.6969978 122.5790014  30.3968282   8.2432339 123.2354496
  37.5749992   9.2459978 134.4900014  36.9229992   9.9399978 134.5790014
  38.0409992   9.4559978 133.6800014  37.5485937   9.3695019 134.3927533
  33.6119992  10.0769978 127.1480014  32.8799992  10.3059978 127.7210014
  34.0589992   9.3639978 127.6030014  33.5722753  10.0118972 127.2879715
  33.5089992   8.2519978 136.2160014  33.5889992   9.0149978 136.7870014
  32.9079992   8.5309978 135.5250014  33.4387245   8.3942630 136.2008424
  25.2569992  10.7079978 129.0300014  24.9269992  10.3369978 128.2120014
  25.8459992  10.0369978 129.3770014  25.2913970  10.5666063 128.9649404
  26.6239992  14.1359978 131.7120014  26.5289992  13.5569978 130.9550014
  27.3529992  13.7649978 132.2080014  26.7096161  14.0065891 131.6755209
  25.6239992   9.4759978 132.6640014  26.1889992   9.5979978 131.9010014
  25.9429992  10.1139978 133.3030014  25.7443977   9.5788851 132.6459424
  31.9329992  14.9799978 133.3980014  31.6929992  15.6419978 134.0460014
  31.7349992  14.1449978 133.8230014  31.8733826  14.9578115 133.5441566
  26.5039992  13.8759978 137.3810014  26.1929992  14.6579978 137.8360014
  25.8539992  13.7229978 136.6950014  26.3735538  13.9624087 137.3505898
  32.4829992   9.2399978 124.8330014  33.0619992   9.3899978 125.5800014
  32.8969992   9.7099978 124.1100014  32.6183122   9.3241277 124.8375042
  23.4239992  10.0739978 136.6100014  23.4939992  10.7249978 137.3080014
  22.5329992  10.1769978 136.2750014  23.3131802  10.1769757 136.6602249
  30.2089992  15.9759978 128.2680014  30.6829992  16.2719978 129.0460014
  29.6459992  16.7149978 128.0350014  30.1977361  16.1162721 128.3428611
  24.7429992  15.9469978 138.1440014  24.7509992  15.8109978 137.1970014
  23.8269992  15.8299978 138.3960014  24.6202528  15.9125463 138.0483243
  36.1819992   0.9899978 124.6460014  35.2819992   1.1289978 124.9410014
  36.4339992   1.8209978 124.2440014  36.0928683   1.1214055 124.6320232
  24.2479992   9.7769978 126.6200014  23.9559992  10.5449978 126.1290014
  23.5729992   9.1179978 126.4570014  24.1168497   9.7929745 126.5308260
  37.3709992  15.3559978 123.0220014  37.4439992  16.2949978 123.1930014
  38.2759992  15.0509978 122.9660014  37.5034158  15.4433061 123.0378392
  20.3409992  12.1399978 135.4350014  19.8389992  12.1119978 134.6200014
  20.3459992  11.2349978 135.7440014  20.2730416  12.0137368 135.3653766
  20.0909992  14.9209978 132.3190014  21.0369992  14.7759978 132.3000014
  19.9779992  15.7049978 132.8560014  20.2053578  15.0071697 132.3890317
  38.2889992  15.5869978 138.0010014  38.2389992  14.6309978 137.9640014
  37.4619992  15.8539978 138.4020014  38.1703987  15.4925174 138.0501446
  29.2669992  15.1609978 136.8770014  29.3549992  15.9869978 137.3520014
  28.4039992  14.8309978 137.1260014  29.1623357  15.2295468 136.9757653
  29.6819992  18.9329978 126.6830014  29.6059992  18.8119978 125.7370014
  29.7139992  19.8819978 126.8020014  29.6759156  19.0447530 126.5695048
  23.3349992  17.7219978 128.4640014  23.4869992  17.3739978 129.3430014
  22.4839992  17.3649978 128.2090014  23.2407899  17.6261738 128.5497340
  32.7829992  18.0869978 123.6850014  33.1579992  17.3429978 123.2150014
  32.7879992  17.8169978 124.6040014  32.8350024  17.9486950 123.7447987
  32.4519992  18.0129978 126.4350014  31.5169992  18.1129978 126.6130014
  32.7319992  17.3029978 127.0130014  32.3618173  17.9307239 126.5374998
  35.4409992   7.0799978 138.4810014  35.0329992   7.5599978 137.7610014
  35.4809992   6.1739978 138.1730014  35.3905476   7.0233160 138.3408247
  22.5899992  13.4639978 136.4780014  22.8059992  13.1019978 137.3370014
  21.7339992  13.0889978 136.2680014  22.5039354  13.3637906 136.5672160
  25.2079992   1.9339978 132.4730014  24.3469992   1.8469978 132.0660014
  25.1859992   2.7899978 132.9010014  25.0870411   2.0377884 132.4750857
  29.8709992   1.6559978 135.8480014  30.2909992   1.2409978 136.6010014
  28.9379992   1.4769978 135.9650014  29.8023736   1.5749910 135.9668968
  33.1979992   5.4109978 136.7010014  32.6839992   5.2859978 137.4990014
  33.0419992   6.3239978 136.4570014  33.1066967   5.5172123 136.7770937
  33.9599992  10.2719978 122.4630014  34.0019992  10.0499978 121.5330014
  34.8089992  10.6709978 122.6530014  34.0805253  10.2955498 122.3613822
  29.5329992   4.1479978 123.1330014  29.2789992   4.1669978 124.0560014
  29.2759992   3.2769978 122.8320014  29.4635133   4.0328110 123.2185082
  25.2989992   6.8989978 133.5680014  24.6579992   6.8589978 134.2770014
  25.3369992   7.8259978 133.3310014  25.2163670   7.0187795 133.6330550
  25.2959992   7.1199978 128.4800014  24.4039992   6.7799978 128.4220014
  25.7469992   6.7429978 127.7250014  25.2346815   7.0223762 128.3699203
  30.8319992   7.5359978 127.2970014  30.4229992   8.3509978 127.0060014
  31.5519992   7.3959978 126.6830014  30.8734013   7.6286571 127.1740875
  29.9339992   7.7119978 138.7850014  29.3709992   7.0069978 139.1060014
  30.7599992   7.5909978 139.2530014  29.9686674   7.5992165 138.8921751
  31.8369992   6.9819978 130.1110014  31.6409992   7.5879978 129.3960014
  32.0179992   6.1489978 129.6770014  31.8346584   6.9522513 129.9544212
  23.0489992   7.2199978 135.4350014  23.0109992   7.6199978 136.3040014
  22.5589992   6.4029978 135.5260014  22.9775621   7.1642510 135.5661377
  26.4149992   4.5939978 122.2340014  25.9839992   4.1489978 122.9640014
  25.6969992   4.9649978 121.7220014  26.2589363   4.5832968 122.2646211
  19.6579992   4.3359978 129.2860014  20.2879992   4.3069978 130.0050014
  20.1069992   3.9109978 128.5560014  19.8050692   4.2745316 129.2857771
  20.9319992   5.0819978 124.7100014  21.4059992   5.6729978 124.1250014
  20.2139992   5.6119978 125.0570014  20.8998640   5.2345511 124.6767969
  31.1009992   8.6199978 134.7830014  31.4239992   7.9889978 134.1400014
  30.6599992   8.0859978 135.4430014  31.0855789   8.4613522 134.7842232
  27.8779992   4.5479978 129.5670014  26.9669992   4.6049978 129.8550014
  28.3829992   4.4879978 130.3770014  27.8215387   4.5476870 129.7160646
  22.7059992   6.1769978 128.3930014  21.8169992   6.2759978 128.0530014
  23.0029992   5.3349978 128.0470014  22.6244177   6.0767687 128.2996940
  26.3589992   6.1769978 126.0500014  27.2909992   6.3059978 126.2280014
  26.1439992   6.8459978 125.4000014  26.4574472   6.2850806 125.9864891
  32.2829992   3.7829978 132.8310014  31.6059992   3.9139978 133.4950014
  31.7979992   3.6279978 132.0210014  32.1247265   3.7799659 132.8123397
  25.0329992   7.3709978 123.6170014  24.4909992   6.9919978 122.9250014
  25.8669992   7.5659978 123.1880014  25.0715159   7.3455076 123.4644419
  35.5709992  19.4539978 139.1080014  35.7699992  19.8779978 138.2730014
  36.2259992  19.7979978 139.7150014  35.6868501  19.5586091 139.0757097
  23.1689992  11.9279978 138.7160014  23.9009992  12.1829978 139.2770014
  22.3879992  12.1329978 139.2310014  23.1637684  11.9906468 138.8624782
  29.1979992   7.3349978 131.4540014  29.7619992   6.7889978 130.9070014
  29.0499992   6.8139978 132.2420014  29.2552575   7.1896552 131.4856987
  24.1999992   3.4719978 127.8720014  23.8829992   2.5689978 127.8370014
  24.9809992   3.4739978 127.3190014  24.2622307   3.3486951 127.7924314
  27.8239992   5.7239978 133.8680014  26.9889992   6.1779978 133.9780014
  28.3479992   5.9999978 134.6200014  27.7805070   5.8234666 133.9847152
  28.3689992  11.9369978 125.5520014  27.6239992  11.4289978 125.2300014
  28.2339992  11.9859978 126.4990014  28.2489047  11.8741596 125.6358845
  35.5189992  11.0699978 134.3390014  36.1599992  11.5259978 133.7950014
  34.6879992  11.1829978 133.8770014  35.4945171  11.1477502 134.2020237
  32.2659992   4.7509978 123.7520014  31.3279992   4.8619978 123.6000014
  32.5639992   5.6069978 124.0580014  32.1776402   4.8820621 123.7725571
  29.8879992  12.1209978 136.7890014  29.5419992  11.7389978 137.5960014
  29.6879992  13.0539978 136.8610014  29.8136523  12.1949095 136.9090735
  32.9849992   6.6179978 125.4120014  33.8769992   6.4799978 125.7310014
  33.0409992   7.4089978 124.8760014  33.1147107   6.7060526 125.3832091
  23.4929992  11.2319978 131.3220014  24.2379992  11.2289978 130.7210014
  23.5709992  10.4079978 131.8040014  23.6054158  11.1202916 131.3049153
  30.4939992  13.3949978 124.5780014  30.1989992  14.2219978 124.9590014
  29.7909992  12.7759978 124.7740014  30.3585471  13.4245227 124.6566698
  20.5009992   9.6919978 136.6370014  20.7239992   9.2739978 137.4690014
  19.8989992   9.0799978 136.2140014  20.4501260   9.5519933 136.6937320
  27.5179992   9.2089978 138.8500014  27.2219992   9.0439978 137.9550014
  28.4489992   8.9889978 138.8390014  27.6033982   9.1566578 138.7260045
  32.1379992  14.5829978 136.7400014  31.2379992  14.7659978 136.4720014
  32.1719992  14.8419978 137.6610014  32.0192909  14.6430815 136.8277852
  37.8699992   6.8269978 125.1070014  37.3149992   6.4309978 124.4350014
  37.9699992   7.7379978 124.8290014  37.8075888   6.8958990 124.9775206
  37.8329992  12.6279978 137.9440014  36.9819992  12.8659978 137.5770014
  38.4229992  12.6109978 137.1910014  37.7962408  12.6582966 137.7918879
  36.1649992  15.6129978 125.5720014  35.7919992  14.7879978 125.8810014
  36.4419992  15.4299978 124.6750014  36.1513871  15.4752441 125.4929677
  33.3249992  10.4209978 132.5930014  32.3969992  10.1899978 132.5660014
  33.7759992   9.6439978 132.2630014  33.2588165  10.2842774 132.5446790
  25.8679992  14.7499978 128.7260014  26.3959992  15.5229978 128.5260014
  24.9879992  14.9739978 128.4250014  25.8213176  14.8863161 128.6578409
  21.6229992   9.6119978 123.3140014  22.2389992  10.2389978 123.6930014
  20.7609992   9.9279978 123.5850014  21.5908195   9.7405798 123.4025386
  27.2959992  12.4129978 128.3030014  27.0549992  13.3379978 128.3440014
  26.5549992  11.9539978 128.6990014  27.1628390  12.4776403 128.3621404
  27.8099992  16.5619978 134.6180014  28.1729992  17.4159978 134.3840014
  28.3419992  16.2699978 135.3580014  27.9316090  16.6394058 134.6860219
  25.9789992  17.4339978 127.8480014  25.0289992  17.5399978 127.8990014
  26.3309992  18.2549978 128.1930014  25.8965480  17.5594438 127.9015999
  31.3539992  12.6609978 134.3180014  30.9289992  12.4329978 135.1450014
  31.9349992  11.9219978 134.1360014  31.3743930  12.5299843 134.4064732
  33.5569992  13.5899978 123.3920014  33.9109992  13.2099978 124.1970014
  32.6089992  13.4959978 123.4790014  33.4771820  13.5253092 123.5138714
  34.0129992  17.2129978 136.7880014  33.4109992  16.6569978 136.2920014
  34.2939992  17.8799978 136.1620014  33.9686829  17.2271613 136.6355443
  38.0609992  18.0689978 123.5930014  38.8049992  18.6549978 123.4530014
  37.3669992  18.6379978 123.9270014  38.0690201  18.2260603 123.6189772
  22.1349992   4.4459978 136.1950014  21.2429992   4.7839978 136.1280014
  22.0369992   3.5899978 136.6130014  21.9994965   4.3766499 136.2423044
  34.4229992  12.2619978 125.6190014  34.1459992  11.5339978 126.1750014
  35.3509992  12.3809978 125.8240014  34.5104499  12.1784213 125.7228044
  21.7869992  16.2499978 134.6300014  22.0039992  15.3179978 134.5990014
  22.0329992  16.5249978 135.5130014  21.8499809  16.1595686 134.7451691
  27.6479992  14.7019978 121.8390014  27.8869992  13.9529978 121.2920014
  27.3789992  14.3139978 122.6720014  27.6443233  14.5471853 121.8767809
  26.5849992  14.2719978 124.2960014  26.7319992  13.7519978 125.0860014
  26.5819992  15.1789978 124.6020014  26.6047300  14.3233964 124.4455895
  23.0379992  11.5239978 124.8060014  22.3519992  11.8769978 125.3730014
  23.5609992  12.2869978 124.5600014  23.0149033  11.6753746 124.8502661
  30.8699992   4.1869978 135.0850014  31.5689992   4.2609978 135.7350014
  30.4889992   3.3219978 135.2390014  30.9142097   4.0802389 135.1947997
  31.6539992   3.8389978 126.1820014  31.8739992   4.3099978 125.3790014
  32.2129992   4.2329978 126.8520014  31.7596730   3.9567432 126.1625906
  29.3229992  15.9689978 125.0450014  28.5059992  16.4659978 125.0970014
  29.8519992  16.4449978 124.4050014  29.2828508  16.1012543 124.9656035
  28.8539992   5.5669978 127.0170014  29.6659992   6.0709978 127.0630014
  28.6099992   5.4219978 127.9310014  28.9321467   5.6163749 127.1468575
  29.3899992   6.5529978 136.2020014  29.5089992   7.1269978 136.9590014
  30.0449992   5.8649978 136.3160014  29.4949146   6.5385574 136.3211314
  29.7379992   2.6479978 127.9550014  29.3909992   3.2649978 128.6000014
  30.3969992   3.1489978 127.4740014  29.7795949   2.8001099 127.9782271
  26.6609992  17.0129978 125.0270014  26.8219992  17.8129978 124.5260014
  26.4639992  17.3199978 125.9120014  26.6563919  17.1639129 125.0781006
  25.3959992   3.7109978 124.6420014  25.3119992   4.5989978 124.9890014
  26.2859992   3.4459978 124.8740014  25.5048163   3.7967179 124.7208596
  35.5939992   4.4599978 137.0370014  34.6779992   4.7219978 136.9490014
  35.9299992   4.4569978 136.1400014  35.5139789   4.4954626 136.9037847
  34.1969992   8.2099978 131.1320014  33.3989992   7.7949978 130.8040014
  34.6419992   7.5199978 131.6230014  34.1479684   8.0598628 131.1535227
  23.6539992  14.1379978 123.7030014  24.2459992  14.8379978 123.9790014
  24.1129992  13.7049978 122.9830014  23.7970791  14.1752908 123.6434607
  21.9699992   6.8029978 122.8190014  21.9249992   7.7419978 122.9970014
  21.0819992   6.5669978 122.5490014  21.8438555   6.8996874 122.8068939
  35.2829992  17.4659978 132.7550014  35.1269992  18.1449978 132.0980014
  36.2159992  17.5379978 132.9580014  35.3877387  17.5686390 132.6925342
  22.7779992   1.5839978 131.4920014  22.5489992   1.6429978 130.5640014
  22.3359992   0.7929978 131.7980014  22.6868801   1.4850540 131.4064729
  21.7089992  15.5249978 127.6520014  20.8759992  15.9969978 127.6800014
  22.2539992  16.0349978 127.0540014  21.6687590  15.6585897 127.5749194
  20.9969992  18.1369978 138.9820014  21.5369992  17.9209978 139.7420014
  20.5159992  17.3319978 138.7930014  21.0058613  17.9985400 139.0604782
  25.5939992  17.0569978 140.6030014  26.3619992  16.5979978 140.9440014
  25.5729992  16.8309978 139.6730014  25.6962135  16.9636668 140.5239491
  29.6859992  16.5649978 121.9780014  29.0419992  15.9339978 122.2990014
  30.4479992  16.0339978 121.7460014  29.7008058  16.4067902 121.9906038
  32.1709992  15.4369978 139.3320014  31.8199992  14.5799978 139.5750014
  32.8969992  15.5789978 139.9390014  32.2211590  15.3390178 139.4472907
  34.2909992  16.3819978 122.2120014  34.5739992  15.5869978 122.6640014
  35.0299992  16.6149978 121.6510014  34.4296956  16.3047031 122.1979822
  20.9039992  11.9479978 139.9370014  21.0479992  11.0459978 139.6500014
  20.1319992  12.2339978 139.4490014  20.8193303  11.8633243 139.8317908
  25.2449992  12.2909978 122.0690014  25.3099992  11.4969978 122.6000014
  25.8979992  12.1729978 121.3790014  25.3421754  12.1663337 122.0484259
  27.5589992  11.9169978 139.3690014  27.2309992  12.1879978 138.5120014
  27.7109992  10.9759978 139.2820014  27.5346030  11.8268973 139.2397945
  30.5979992  13.3379978 121.8050014  30.3289992  13.5189978 122.7060014
  30.3909992  12.4129978 121.6740014  30.5332000  13.2376774 121.9105693
  33.2939992  11.8329978 136.7530014  34.0389992  12.4219978 136.6330014
  32.5369992  12.4149978 136.8160014  33.2935205  11.9921997 136.7451119
  21.7369992   9.1479978 139.3570014  22.1449992   8.2909978 139.2360014
  21.4759992   9.1619978 140.2780014  21.7576016   9.0325119 139.4649192
  26.3949992  10.2639978 124.3750014  25.9349992   9.7799978 125.0610014
  26.6499992   9.5949978 123.7390014  26.3665038  10.1073689 124.3829447
  25.6839992   8.1569978 136.7310014  25.0649992   8.8309978 137.0110014
  26.0279992   8.4779978 135.8980014  25.6457605   8.2927198 136.6566707
  27.4659992   8.5069978 122.6370014  27.2849992   8.3519978 121.7100014
  28.4159992   8.6149978 122.6820014  27.5696566   8.5003669 122.5160929
  30.7029992  10.6279978 140.0080014  31.6569992  10.7119978 139.9810014
  30.5429992   9.9159978 140.6280014  30.8117182  10.5432842 140.0880733
  36.8559992  10.8609978 122.0830014  36.5819992  10.4369978 121.2700014
  36.8949992  11.7929978 121.8660014  36.8237716  10.9288827 121.9424286
  26.0229992   5.5119978 137.8130014  26.1729992   4.7829978 137.2110014
  26.0249992   6.2889978 137.2540014  26.0437967   5.5172708 137.6550541
  26.4359992   3.8809978 135.3060014  26.9709992   4.3329978 134.6540014
  25.5829992   3.7729978 134.8830014  26.3940374   3.9282665 135.1596710
  28.0169992   9.3209978 135.5450014  28.7679992   9.1649978 134.9720014
  27.6779992  10.1729978 135.2700014  28.0739587   9.4148138 135.4294078
  32.4329992   7.1359978 140.5740014  32.6249992   6.2049978 140.4620014
  33.2909992   7.5609978 140.5640014  32.5752269   7.0659928 140.5573192
  33.7499992   9.9249978 138.6510014  33.4679992  10.6339978 138.0740014
  34.6919992   9.8519978 138.5000014  33.8387656  10.0123128 138.5514809
  24.5019992   6.7099978 139.7250014  23.7339992   6.1769978 139.5150014
  25.1799992   6.3999978 139.1250014  24.4886973   6.5952375 139.6151796
  27.2409992   1.3379978 135.7370014  27.1429992   2.2839978 135.6320014
  26.4989992   0.9649978 135.2620014  27.1271913   1.4171813 135.6583539
  28.5049992   5.6589978 139.3010014  28.2699992   5.4399978 140.2030014
  27.7219992   5.4519978 138.7910014  28.3669219   5.6010066 139.3555852
  31.2209992   4.7869978 138.3770014  30.2729992   4.8189978 138.5090014
  31.5329992   4.1609978 139.0300014  31.1335190   4.7067262 138.4833563
  32.8549992   3.4209978 140.3820014  32.7579992   2.4689978 140.3760014
  32.5329992   3.6889978 141.2420014  32.7981761   3.3269744 140.4974936
  22.6819992   4.6299978 139.4290014  22.8939992   3.9239978 138.8190014
  22.5709992   4.1929978 140.2730014  22.6960269   4.4741921 139.4595873
  27.4629992   0.6319978 138.4090014  28.1749992  -0.0080022 138.3950014
  27.3619992   0.8979978 137.4950014  27.5467261   0.5804190 138.2835537
  27.8169992   2.3139978 140.4620014  27.6849992   1.8389978 139.6420014
  27.2169992   3.0589978 140.4070014  27.7179070   2.3495789 140.3423251
  27.3629992  19.1969978 123.6390014  28.2959992  19.3549978 123.7820014
  27.0989992  19.8729978 123.0140014  27.4549308  19.3099104 123.5741396
  20.9309992  13.8339978 123.1210014  21.8449992  13.9129978 123.3950014
  20.9389992  13.1469978 122.4550014  21.0571143  13.7519085 123.0684274
  19.5799992  19.2269978 128.1990014  18.9329992  18.7649978 127.6660014
  19.9349992  18.5549978 128.7810014  19.5394506  19.0729503 128.2047341
  20.4499992  17.3069978 130.0030014  20.1159992  16.4269978 130.1750014
  20.6729992  17.6529978 130.8680014  20.4343721  17.2331938 130.1434168
  37.9989992  18.1169978 132.9840014  37.9769992  18.3019978 133.9230014
  38.6889992  18.6849978 132.6430014  38.0893439  18.2191887 133.0664791
  37.5619992  17.6839978 135.9060014  37.0749992  16.9489978 135.5350014
  38.1109992  17.2899978 136.5840014  37.5695247  17.5301057 135.9468461
  36.0129992  13.4739978 140.5440014  35.1469992  13.3689978 140.9380014
  36.3889992  14.2319978 140.9900014  35.9453401  13.5621708 140.6582620
  37.3139992  11.7299978 126.0580014  38.1639992  12.1509978 126.1850014
  37.3189992  10.9899978 126.6650014  37.4311143  11.6876094 126.1574750
  37.7079992   9.7839978 127.8820014  36.9819992   9.3039978 128.2790014
  38.2899992   9.9889978 128.6140014  37.6871635   9.7459166 128.0353748
  37.4669992  12.5689978 132.8290014  38.3009992  12.1909978 132.5490014
  37.5789992  13.5119978 132.7100014  37.5962522  12.6447742 132.7746020
  35.9539992  15.4469978 135.1360014  35.3059992  15.7719978 135.7620014
  35.4359992  15.0059978 134.4620014  35.7954168  15.4318523 135.1305307
  37.9769992   9.6849978 124.2730014  37.4549992  10.0409978 123.5540014
  37.9439992  10.3599978 124.9510014  37.9010699   9.8249848 124.2662129
  36.3259992   6.9239978 122.8240014  36.4219992   7.5909978 122.1440014
  36.1859992   6.1089978 122.3420014  36.3202063   6.9050667 122.6658377
  35.4949992   8.3049978 128.4450014  35.3449992   7.3599978 128.4240014
  35.1409992   8.5859978 129.2880014  35.4265527   8.2135605 128.5561859
  20.5299992  10.3829978 132.4550014  20.7149992  10.3009978 131.5190014
  21.3799992  10.2589978 132.8790014  20.6700916  10.3550393 132.3842896
  36.3509992  10.2749978 138.0830014  36.9339992   9.5399978 138.2750014
  36.9149992  11.0469978 138.1300014  36.5069781  10.2788145 138.1156164
  37.8479992   8.1779978 138.7680014  36.9849992   7.7989978 138.6020014
  38.4519992   7.4389978 138.6940014  37.8115944   8.0262978 138.7352984
  35.5729992   4.3319978 121.9410014  36.1839992   3.9609978 122.5780014
  34.7359992   3.9109978 122.1370014  35.5434947   4.2242756 122.0547252
  35.2059992   5.8869978 126.9070014  35.4849992   4.9799978 127.0310014
  35.9649992   6.3209978 126.5180014  35.3468619   5.8214502 126.8713795
  35.8169992   6.4689978 132.3430014  36.7499992   6.6809978 132.3090014
  35.5819992   6.5699978 133.2650014  35.9128308   6.5116503 132.4630214
  35.8469992   7.2059978 135.1190014  35.0039992   7.4739978 135.4850014
  36.2889992   8.0279978 134.9080014  35.7914138   7.3538273 135.1405518
  20.1279992   5.6529978 138.5960014  21.0469992   5.5309978 138.8320014
  19.6779992   4.9029978 138.9850014  20.1931148   5.5348751 138.6809408
  38.1299992   1.1859978 140.4720014  38.4789992   0.5319978 139.8670014
  38.2769992   2.0229978 140.0330014  38.1977355   1.2096067 140.3296564
  35.8189992   3.1499978 126.9550014  36.0009992   2.7009978 127.7810014
  35.2189992   2.5659978 126.4920014  35.7627529   3.0096131 127.0053619
  21.3489992   3.9659978 131.4870014  21.7939992   3.1739978 131.7890014
  21.8149992   4.6819978 131.9180014  21.4729059   3.9544474 131.5866079
  19.6529992   6.9649978 132.5560014  20.1449992   6.7439978 131.7650014
  20.0149992   7.8049978 132.8370014  19.7692923   7.0483468 132.4857407
  37.6489992   3.2949978 138.8220014  36.7319992   3.5659978 138.7860014
  37.7719992   2.7599978 138.0380014  37.5400828   3.2597700 138.7110785
  37.6859992   3.2179978 123.4830014  38.0979992   2.4969978 123.0080014
  38.3669992   3.8869978 123.5420014  37.8345900   3.2097306 123.4259038
  19.9669992   3.2229978 126.6100014  19.0419992   3.4309978 126.4810014
  20.4209992   3.7069978 125.9210014  19.9016374   3.3169949 126.4990957
  34.7369992  18.2069978 128.5560014  35.3899992  17.8589978 127.9480014
  35.2479992  18.6949978 129.2020014  34.8952777  18.2253815 128.5602047
  19.9299992   1.9609978 134.9550014  19.2649992   1.7149978 135.5980014
  19.4869992   2.5829978 134.3770014  19.7790937   2.0113614 134.9649379
  22.1219992  15.1359978 139.0990014  21.3009992  15.3109978 138.6390014
  21.8699992  15.0629978 140.0200014  21.9756173  15.1500794 139.1604972
  25.0759992  16.1099978 135.3580014  24.6519992  16.9199978 135.0750014
  25.9809992  16.1959978 135.0560014  25.1402433  16.2323331 135.2785377
  29.3879992  17.5089978 138.3170014  29.5719992  17.1759978 139.1950014
  30.2339992  17.8189978 137.9950014  29.5276484  17.5052979 138.3937617
  31.7329992  18.7949978 137.5610014  32.4099992  18.1619978 137.3210014
  32.0539992  19.1959978 138.3680014  31.8691323  18.7625691 137.6373158
  36.6499992   1.3849978 136.6410014  35.8369992   1.7099978 136.2530014
  36.8829992   0.6239978 136.1080014  36.5702566   1.3266559 136.5159213
  22.4779992  19.3669978 135.4050014  21.7579992  19.8069978 134.9540014
  22.1129992  19.1159978 136.2540014  22.3299796  19.3933824 135.4579329
  24.9449992  18.9669978 134.4350014  24.0809992  19.0389978 134.8390014
  24.8899992  19.5139978 133.6510014  24.8191942  19.0507849 134.3844000
  29.6559992  18.8549978 133.6100014  29.1989992  19.3839978 132.9560014
  29.8189992  19.4579978 134.3360014  29.6154476  19.0089140 133.6185499
  31.9839992  17.7329978 134.5550014  31.0789992  17.8979978 134.2900014
  32.4119992  18.5859978 134.4900014  31.9180700  17.8709529 134.5099520
  34.5879992  19.3029978 134.8500014  34.4059992  20.2189978 134.6400014
  34.7649992  18.8919978 134.0040014  34.5869907  19.3729741 134.7067883
  21.8929992  17.9899978 132.3150014  21.8749992  17.5639978 133.1730014
  22.6979992  17.6709978 131.9070014  21.9993221  17.8887233 132.3770225
  24.0339992  16.6999978 130.9700014  23.8149992  15.7829978 131.1400014
  24.8579992  16.8399978 131.4360014  24.1154702  16.5935511 131.0562527
  26.5709992  17.1699978 131.8190014  26.7839992  16.2819978 131.5320014
  26.6359992  17.1349978 132.7740014  26.6089075  17.0438307 131.9087373
  30.0799992   2.8339978 130.9630014  29.4059992   2.2039978 131.2190014
  30.6439992   2.3499978 130.3600014  30.0640384   2.6823708 130.9165020
  35.2229992   0.9409978 131.0760014  35.8259992   1.4889978 130.5740014
  34.3529992   1.2599978 130.8360014  35.1879190   1.0591041 130.9748679
  36.9499992   2.0799978 129.4090014  37.5609992   1.5659978 128.8830014
  37.3319992   2.9569978 129.4330014  37.0854475   2.1281323 129.3401208
  22.4069992   1.4679978 128.7850014  21.6299992   1.2329978 128.2780014
  22.9369992   0.6709978 128.7940014  22.3723451   1.3281268 128.7168627
  21.2429992   1.2659978 124.5890014  21.6819992   1.8769978 123.9970014
  20.6089992   1.8039978 125.0630014  21.2173859   1.4224064 124.5720305
  26.9859992   1.3939978 128.5990014  27.8599992   1.7829978 128.5690014
  26.8499992   1.1789978 129.5210014  27.0873207   1.4181923 128.7196509
  32.5429992   1.4239978 130.2480014  32.6189992   1.5199978 129.2990014
  32.2679992   0.5169978 130.3770014  32.5162042   1.3144241 130.1353811
  33.8959992   1.4499978 125.9400014  33.1929992   2.0649978 125.7310014
  33.4509992   0.6129978 126.0720014  33.7396292   1.4210085 125.9292439
  21.1439992  17.2139978 125.4870014  20.4589992  17.1759978 124.8190014
  21.1479992  18.1269978 125.7750014  21.0508174  17.3321998 125.4345310
  23.1039992   3.1819978 123.0310014  23.5949992   2.5519978 122.5040014
  23.7269992   3.4779978 123.6950014  23.2555062   3.1356770 123.0485438
  28.1299992   3.4749978 125.4890014  28.3079992   2.8279978 126.1710014
  28.0759992   4.3089978 125.9560014  28.1471025   3.4990504 125.6456433
  30.0079992  18.4229978 123.8840014  30.8739992  18.7899978 123.7060014
  29.7619992  17.9839978 123.0700014  30.0932097  18.4138525 123.7496019
  36.7169992  17.9859978 126.5630014  36.5229992  17.2379978 125.9980014
  36.6779992  18.7439978 125.9800014  36.6851645  17.9860786 126.4068148
  22.3639992   1.9819978 138.3030014  21.9979992   1.2159978 138.7460014
  23.2769992   2.0109978 138.5900014  22.4373225   1.8811906 138.4023459
  24.3369992   1.3319978 139.8390014  25.2359992   1.0579978 139.6540014
  23.9509992   0.5899978 140.3030014  24.4077237   1.1941508 139.8764710
  22.9619992  18.1339978 122.5120014  22.6939992  18.4199978 123.3850014
  23.7329992  17.5879978 122.6640014  23.0295600  18.0993330 122.6521499
  32.7589992   0.6649978 140.0210014  32.8349992   0.2389978 140.8750014
  33.6519992   0.6779978 139.6780014  32.8902267   0.6083952 140.0915932
  35.9349992  16.7379978 138.7130014  35.1529992  16.5509978 138.1940014
  35.8629992  17.6669978 138.9310014  35.8180863  16.8380221 138.6713574
  50.3409992  10.6239978 128.7440014  50.4299992  11.5679978 128.6120014
  49.7029992  10.3489978 128.0860014  50.2669062  10.7159812 128.6369641
  49.2739992   9.8789978 132.1630014  49.2359992   9.2329978 132.8680014
  48.9519992   9.4119978 131.3920014  49.2252679   9.7274276 132.1552921
  41.6419992   9.4929978 133.7560014  41.6839992   8.8679978 134.4790014
  42.3449992  10.1169978 133.9380014  41.7427345   9.4917873 133.8795274
  52.9799992  12.8179978 130.4650014  52.5389992  12.0979978 130.9150014
  52.9669992  13.5389978 131.0940014  52.9177960  12.8168329 130.6117567
  42.5659992  13.9429978 132.2910014  42.1959992  13.1409978 131.9210014
  43.5069992  13.7749978 132.3370014  42.6425984  13.8104638 132.2465603
  39.1759992   7.6029978 127.6840014  38.7279992   8.4489978 127.6650014
  38.6149992   7.0239978 127.1680014  39.0389603   7.6403674 127.6116720
  39.8859992   9.7649978 129.8100014  40.0999992   8.9949978 130.3370014
  40.6239992   9.8549978 129.2060014  40.0149652   9.6718012 129.8005212
  50.0919992  17.9219978 130.6770014  50.7109992  17.2459978 130.4030014
  49.8829992  17.7039978 131.5850014  50.1486232  17.7997938 130.7622517
  47.6629992  12.3109978 132.5690014  47.9669992  11.6249978 131.9750014
  48.3849992  12.4299978 133.1870014  47.8021152  12.2332189 132.5712123
  56.3259992   3.9129978 133.4300014  56.3759992   4.5229978 134.1660014
  56.7519992   4.3739978 132.7070014  56.3904108   4.0587709 133.4330112
  50.8039992   6.7049978 132.8970014  50.9469992   5.7589978 132.9170014
  50.6979992   6.9119978 131.9680014  50.8092509   6.6034813 132.7742231
  43.9589992   4.8069978 130.1690014  44.0019992   5.6669978 129.7510014
  43.5009992   4.2549978 129.5350014  43.9029815   4.8500621 130.0261197
  51.6809992   4.9379978 128.5700014  52.3279992   4.6089978 129.1950014
  52.1909992   5.4549978 127.9470014  51.8384317   4.9629227 128.5712167
  40.5789992   7.2039978 130.9310014  41.2329992   6.6539978 131.3630014
  40.6029992   6.9299978 130.0140014  40.6717199   7.0917167 130.8661668
  45.7359992   8.7539978 130.1460014  46.3519992   8.2269978 130.6560014
  45.1489992   8.1139978 129.7430014  45.7409239   8.5954117 130.1612952
  56.7179992   5.3909978 135.6660014  56.0289992   6.0489978 135.5700014
  56.7329992   5.1929978 136.6020014  56.6256740   5.4543242 135.7794630
  42.7689992   3.7249978 134.2430014  42.5499992   4.2549978 133.4770014
  42.1009992   3.9509978 134.8900014  42.6487001   3.8281154 134.2256064
  50.1379992  13.2249978 127.7870014  49.8429992  12.9019978 126.9360014
  49.8139992  14.1249978 127.8280014  50.0537983  13.3024027 127.6759771
  45.3379992  11.3999978 134.5310014  44.5979992  11.9989978 134.6340014
  46.0519992  11.9539978 134.2150014  45.3333288  11.5567356 134.5023805
  53.4449992   4.2289978 130.5500014  53.2299992   3.4629978 131.0830014
  54.1009992   4.7009978 131.0630014  53.5042673   4.1880728 130.6921990
  42.3629992   5.6169978 132.1950014  42.9769992   6.2499978 132.5690014
  42.8749992   5.1449978 131.5390014  42.5162277   5.6397352 132.1574279
  43.7459992  13.3649978 135.3180014  43.7399992  14.2439978 134.9400014
  42.8919992  13.2809978 135.7430014  43.6297925  13.4739535 135.3236887
  39.8669992  13.0359978 126.1000014  39.5949992  13.2649978 125.2110014
  39.9119992  13.8729978 126.5600014  39.8358709  13.1806058 126.0406107
  53.4919992  14.6569978 132.8120014  52.5499992  14.7159978 132.9740014
  53.7679992  15.5629978 132.6750014  53.4005865  14.7875288 132.8156192
  53.7919992   2.9439978 134.2300014  53.0559992   3.5539978 134.1920014
  54.4759992   3.3589978 133.7030014  53.7835506   3.0836400 134.1536051
  46.7959992   1.0299978 131.6960014  46.6779992   0.0819978 131.6410014
  45.9409992   1.3629978 131.9690014  46.6642679   0.9451926 131.7253720
  51.7439992  16.4379978 129.4380014  52.1689992  15.7309978 128.9530014
  52.0609992  17.2399978 129.0210014  51.8450266  16.4495190 129.3152479
  52.9039992  14.3389978 127.9460014  52.6459992  13.6489978 127.3350014
  52.9749992  13.8959978 128.7920014  52.8782837  14.1847106 127.9766912
  54.5899992  12.9059978 136.4240014  54.7289992  12.3139978 135.6840014
  54.7569992  13.7789978 136.0670014  54.6315562  12.9429896 136.2746283
  49.0619992   9.8679978 126.1960014  48.3509992  10.4029978 125.8440014
  49.7529992   9.9229978 125.5360014  49.0580751   9.9486777 126.0585858
  49.1159992   8.3249978 123.2350014  49.8169992   8.3479978 123.8860014
  49.4179992   7.6969978 122.5790014  49.2528282   8.2432339 123.2354496
  56.4309992   9.2459978 134.4900014  55.7789992   9.9399978 134.5790014
  56.8969992   9.4559978 133.6800014  56.4045937   9.3695019 134.3927533
  52.4679992  10.0769978 127.1480014  51.7359992  10.3059978 127.7210014
  52.9149992   9.3639978 127.6030014  52.4282753  10.0118972 127.2879715
  52.3649992   8.2519978 136.2160014  52.4449992   9.0149978 136.7870014
  51.7639992   8.5309978 135.5250014  52.2947245   8.3942630 136.2008424
  44.1129992  10.7079978 129.0300014  43.7829992  10.3369978 128.2120014
  44.7019992  10.0369978 129.3770014  44.1473970  10.5666063 128.9649404
  45.4799992  14.1359978 131.7120014  45.3849992  13.5569978 130.9550014
  46.2089992  13.7649978 132.2080014  45.5656161  14.0065891 131.6755209
  44.4799992   9.4759978 132.6640014  45.0449992   9.5979978 131.9010014
  44.7989992  10.1139978 133.3030014  44.6003977   9.5788851 132.6459424
  50.7889992  14.9799978 133.3980014  50.5489992  15.6419978 134.0460014
  50.5909992  14.1449978 133.8230014  50.7293826  14.9578115 133.5441566
  45.3599992  13.8759978 137.3810014  45.0489992  14.6579978 137.8360014
  44.7099992  13.7229978 136.6950014  45.2295538  13.9624087 137.3505898
  51.3389992   9.2399978 124.8330014  51.9179992   9.3899978 125.5800014
  51.7529992   9.7099978 124.1100014  51.4743122   9.3241277 124.8375042
  42.2799992  10.0739978 136.6100014  42.3499992  10.7249978 137.3080014
  41.3889992  10.1769978 136.2750014  42.1691802  10.1769757 136.6602249
  49.0649992  15.9759978 128.2680014  49.5389992  16.2719978 129.0460014
  48.5019992  16.7149978 128.0350014  49.0537361  16.1162721 128.3428611
  43.5989992  15.9469978 138.1440014  43.6069992  15.8109978 137.1970014
  42.6829992  15.8299978 138.3960014  43.4762528  15.9125463 138.0483243
  55.0379992   0.9899978 124.6460014  54.1379992   1.1289978 124.9410014
  55.2899992   1.8209978 124.2440014  54.9488683   1.1214055 124.6320232
  43.1039992   9.7769978 126.6200014  42.8119992  10.5449978 126.1290014
  42.4289992   9.1179978 126.4570014  42.9728497   9.7929745 126.5308260
  56.2269992  15.3559978 123.0220014  56.2999992  16.2949978 123.1930014
  57.1319992  15.0509978 122.9660014  56.3594158  15.4433061 123.0378392
  39.1969992  12.1399978 135.4350014  38.6949992  12.1119978 134.6200014
  39.2019992  11.2349978 135.7440014  39.1290416  12.0137368 135.3653766
  38.9469992  14.9209978 132.3190014  39.8929992  14.7759978 132.3000014
  38.8339992  15.7049978 132.8560014  39.0613578  15.0071697 132.3890317
  57.1449992  15.5869978 138.0010014  57.0949992  14.6309978 137.9640014
  56.3179992  15.8539978 138.4020014  57.0263987  15.4925174 138.0501446
  48.1229992  15.1609978 136.8770014  48.2109992  15.9869978 137.3520014
  47.2599992  14.8309978 137.1260014  48.0183357  15.2295468 136.9757653
  48.5379992  18.9329978 126.6830014  48.4619992  18.8119978 125.7370014
  48.5699992  19.8819978 126.8020014  48.5319156  19.0447530 126.5695048
  42.1909992  17.7219978 128.4640014  42.3429992  17.3739978 129.3430014
  41.3399992  17.3649978 128.2090014  42.0967899  17.6261738 128.5497340
  51.6389992  18.0869978 123.6850014  52.0139992  17.3429978 123.2150014
  51.6439992  17.8169978 124.6040014  51.6910024  17.9486950 123.7447987
  51.3079992  18.0129978 126.4350014  50.3729992  18.1129978 126.6130014
  51.5879992  17.3029978 127.0130014  51.2178173  17.9307239 126.5374998
  54.2969992   7.0799978 138.4810014  53.8889992   7.5599978 137.7610014
  54.3369992   6.1739978 138.1730014  54.2465476   7.0233160 138.3408247
  41.4459992  13.4639978 136.4780014  41.6619992  13.1019978 137.3370014
  40.5899992  13.0889978 136.2680014  41.3599354  13.3637906 136.5672160
  44.0639992   1.9339978 132.4730014  43.2029992   1.8469978 132.0660014
  44.0419992   2.7899978 132.9010014  43.9430411   2.0377884 132.4750857
  48.7269992   1.6559978 135.8480014  49.1469992   1.2409978 136.6010014
  47.7939992   1.4769978 135.9650014  48.6583736   1.5749910 135.9668968
  52.0539992   5.4109978 136.7010014  51.5399992   5.2859978 137.4990014
  51.8979992   6.3239978 136.4570014  51.9626967   5.5172123 136.7770937
  52.8159992  10.2719978 122.4630014  52.8579992  10.0499978 121.5330014
  53.6649992  10.6709978 122.6530014  52.9365253  10.2955498 122.3613822
  48.3889992   4.1479978 123.1330014  48.1349992   4.1669978 124.0560014
  48.1319992   3.2769978 122.8320014  48.3195133   4.0328110 123.2185082
  44.1549992   6.8989978 133.5680014  43.5139992   6.8589978 134.2770014
  44.1929992   7.8259978 133.3310014  44.0723670   7.0187795 133.6330550
  44.1519992   7.1199978 128.4800014  43.2599992   6.7799978 128.4220014
  44.6029992   6.7429978 127.7250014  44.0906815   7.0223762 128.3699203
  49.6879992   7.5359978 127.2970014  49.2789992   8.3509978 127.0060014
  50.4079992   7.3959978 126.6830014  49.7294013   7.6286571 127.1740875
  48.7899992   7.7119978 138.7850014  48.2269992   7.0069978 139.1060014
  49.6159992   7.5909978 139.2530014  48.8246674   7.5992165 138.8921751
  50.6929992   6.9819978 130.1110014  50.4969992   7.5879978 129.3960014
  50.8739992   6.1489978 129.6770014  50.6906584   6.9522513 129.9544212
  41.9049992   7.2199978 135.4350014  41.8669992   7.6199978 136.3040014
  41.4149992   6.4029978 135.5260014  41.8335621   7.1642510 135.5661377
  45.2709992   4.5939978 122.2340014  44.8399992   4.1489978 122.9640014
  44.5529992   4.9649978 121.7220014  45.1149363   4.5832968 122.2646211
  38.5139992   4.3359978 129.2860014  39.1439992   4.3069978 130.0050014
  38.9629992   3.9109978 128.5560014  38.6610692   4.2745316 129.2857771
  39.7879992   5.0819978 124.7100014  40.2619992   5.6729978 124.1250014
  39.0699992   5.6119978 125.0570014  39.7558640   5.2345511 124.6767969
  49.9569992   8.6199978 134.7830014  50.2799992   7.9889978 134.1400014
  49.5159992   8.0859978 135.4430014  49.9415789   8.4613522 134.7842232
  46.7339992   4.5479978 129.5670014  45.8229992   4.6049978 129.8550014
  47.2389992   4.4879978 130.3770014  46.6775387   4.5476870 129.7160646
  41.5619992   6.1769978 128.3930014  40.6729992   6.2759978 128.0530014
  41.8589992   5.3349978 128.0470014  41.4804177   6.0767687 128.2996940
  45.2149992   6.1769978 126.0500014  46.1469992   6.3059978 126.2280014
  44.9999992   6.8459978 125.4000014  45.3134472   6.2850806 125.9864891
  51.1389992   3.7829978 132.8310014  50.4619992   3.9139978 133.4950014
  50.6539992   3.6279978 132.0210014  50.9807265   3.7799659 132.8123397
  43.8889992   7.3709978 123.6170014  43.3469992   6.9919978 122.9250014
  44.7229992   7.5659978 123.1880014  43.9275159   7.3455076 123.4644419
  54.4269992  19.4539978 139.1080014  54.6259992  19.8779978 138.2730014
  55.0819992  19.7979978 139.7150014  54.5428501  19.5586091 139.0757097
  42.0249992  11.9279978 138.7160014  42.7569992  12.1829978 139.2770014
  41.2439992  12.1329978 139.2310014  42.0197684  11.9906468 138.8624782
  48.0539992   7.3349978 131.4540014  48.6179992   6.7889978 130.9070014
  47.9059992   6.8139978 132.2420014  48.1112575   7.1896552 131.4856987
  43.0559992   3.4719978 127.8720014  42.7389992   2.5689978 127.8370014
  43.8369992   3.4739978 127.3190014  43.1182307   3.3486951 127.7924314
  46.6799992   5.7239978 133.8680014  45.8449992   6.1779978 133.9780014
  47.2039992   5.9999978 134.6200014  46.6365070   5.8234666 133.9847152
  47.2249992  11.9369978 125.5520014  46.4799992  11.4289978 125.2300014
  47.0899992  11.9859978 126.4990014  47.1049047  11.8741596 125.6358845
  54.3749992  11.0699978 134.3390014  55.0159992  11.5259978 133.7950014
  53.5439992  11.1829978 133.8770014  54.3505171  11.1477502 134.2020237
  51.1219992   4.7509978 123.7520014  50.1839992   4.8619978 123.6000014
  51.4199992   5.6069978 124.0580014  51.0336402   4.8820621 123.7725571
  48.7439992  12.1209978 136.7890014  48.3979992  11.7389978 137.5960014
  48.5439992  13.0539978 136.8610014  48.6696523  12.1949095 136.9090735
  51.8409992   6.6179978 125.4120014  52.7329992   6.4799978 125.7310014
  51.8969992   7.4089978 124.8760014  51.9707107   6.7060526 125.3832091
  42.3489992  11.2319978 131.3220014  43.0939992  11.2289978 130.7210014
  42.4269992  10.4079978 131.8040014  42.4614158  11.1202916 131.3049153
  49.3499992  13.3949978 124.5780014  49.0549992  14.2219978 124.9590014
  48.6469992  12.7759978 124.7740014  49.2145471  13.4245227 124.6566698
  39.3569992   9.6919978 136.6370014  39.5799992   9.2739978 137.4690014
  38.7549992   9.0799978 136.2140014  39.3061260   9.5519933 136.6937320
  46.3739992   9.2089978 138.8500014  46.0779992   9.0439978 137.9550014
  47.3049992   8.9889978 138.8390014  46.4593982   9.1566578 138.7260045
  50.9939992  14.5829978 136.7400014  50.0939992  14.7659978 136.4720014
  51.0279992  14.8419978 137.6610014  50.8752909  14.6430815 136.8277852
  56.7259992   6.8269978 125.1070014  56.1709992   6.4309978 124.4350014
  56.8259992   7.7379978 124.8290014  56.6635888   6.8958990 124.9775206
  56.6889992  12.6279978 137.9440014  55.8379992  12.8659978 137.5770014
  57.2789992  12.6109978 137.1910014  56.6522408  12.6582966 137.7918879
  55.0209992  15.6129978 125.5720014  54.6479992  14.7879978 125.8810014
  55.2979992  15.4299978 124.6750014  55.0073871  15.4752441 125.4929677
  52.1809992  10.4209978 132.5930014  51.2529992  10.1899978 132.5660014
  52.6319992   9.6439978 132.2630014  52.1148165  10.2842774 132.5446790
  44.7239992  14.7499978 128.7260014  45.2519992  15.5229978 128.5260014
  43.8439992  14.9739978 128.4250014  44.6773176  14.8863161 128.6578409
  40.4789992   9.6119978 123.3140014  41.0949992  10.2389978 123.6930014
  39.6169992   9.9279978 123.5850014  40.4468195   9.7405798 123.4025386
  46.1519992  12.4129978 128.3030014  45.9109992  13.3379978 128.3440014
  45.4109992  11.9539978 128.6990014  46.0188390  12.4776403 128.3621404
  46.6659992  16.5619978 134.6180014  47.0289992  17.4159978 134.3840014
  47.1979992  16.2699978 135.3580014  46.7876090  16.6394058 134.6860219
  44.8349992  17.4339978 127.8480014  43.8849992  17.5399978 127.8990014
  45.1869992  18.2549978 128.1930014  44.7525480  17.5594438 127.9015999
  50.2099992  12.6609978 134.3180014  49.7849992  12.4329978 135.1450014
  50.7909992  11.9219978 134.1360014  50.2303930  12.5299843 134.4064731
  52.4129992  13.5899978 123.3920014  52.7669992  13.2099978 124.1970014
  51.4649992  13.4959978 123.4790014  52.3331820  13.5253092 123.5138714
  52.8689992  17.2129978 136.7880014  52.2669992  16.6569978 136.2920014
  53.1499992  17.8799978 136.1620014  52.8246829  17.2271613 136.6355443
  56.9169992  18.0689978 123.5930014  57.6609992  18.6549978 123.4530014
  56.2229992  18.6379978 123.9270014  56.9250201  18.2260603 123.6189772
  40.9909992   4.4459978 136.1950014  40.0989992   4.7839978 136.1280014
  40.8929992   3.5899978 136.6130014  40.8554965   4.3766499 136.2423044
  53.2789992  12.2619978 125.6190014  53.0019992  11.5339978 126.1750014
  54.2069992  12.3809978 125.8240014  53.3664499  12.1784213 125.7228044
  40.6429992  16.2499978 134.6300014  40.8599992  15.3179978 134.5990014
  40.8889992  16.5249978 135.5130014  40.7059809  16.1595686 134.7451691
  46.5039992  14.7019978 121.8390014  46.7429992  13.9529978 121.2920014
  46.2349992  14.3139978 122.6720014  46.5003233  14.5471853 121.8767809
  45.4409992  14.2719978 124.2960014  45.5879992  13.7519978 125.0860014
  45.4379992  15.1789978 124.6020014  45.4607300  14.3233964 124.4455895
  41.8939992  11.5239978 124.8060014  41.2079992  11.8769978 125.3730014
  42.4169992  12.2869978 124.5600014  41.8709033  11.6753746 124.8502661
  49.7259992   4.1869978 135.0850014  50.4249992   4.2609978 135.7350014
  49.3449992   3.3219978 135.2390014  49.7702097   4.0802389 135.1947997
  50.5099992   3.8389978 126.1820014  50.7299992   4.3099978 125.3790014
  51.0689992   4.2329978 126.8520014  50.6156730   3.9567432 126.1625906
  48.1789992  15.9689978 125.0450014  47.3619992  16.4659978 125.0970014
  48.7079992  16.4449978 124.4050014  48.1388508  16.1012543 124.9656035
  47.7099992   5.5669978 127.0170014  48.5219992   6.0709978 127.0630014
  47.4659992   5.4219978 127.9310014  47.7881467   5.6163749 127.1468575
  48.2459992   6.5529978 136.2020014  48.3649992   7.1269978 136.9590014
  48.9009992   5.8649978 136.3160014  48.3509146   6.5385574 136.3211313
  48.5939992   2.6479978 127.9550014  48.2469992   3.2649978 128.6000014
  49.2529992   3.1489978 127.4740014  48.6355949   2.8001099 127.9782271
  45.5169992  17.0129978 125.0270014  45.6779992  17.8129978 124.5260014
  45.3199992  17.3199978 125.9120014  45.5123919  17.1639129 125.0781006
  44.2519992   3.7109978 124.6420014  44.1679992   4.5989978 124.9890014
  45.1419992   3.4459978 124.8740014  44.3608163   3.7967179 124.7208596
  54.4499992   4.4599978 137.0370014  53.5339992   4.7219978 136.9490014
  54.7859992   4.4569978 136.1400014  54.3699789   4.4954626 136.9037847
  53.0529992   8.2099978 131.1320014  52.2549992   7.7949978 130.8040014
  53.4979992   7.5199978 131.6230014  53.0039684   8.0598628 131.1535227
  42.5099992  14.1379978 123.7030014  43.1019992  14.8379978 123.9790014
  42.9689992  13.7049978 122.9830014  42.6530791  14.1752908 123.6434607
  40.8259992   6.8029978 122.8190014  40.7809992   7.7419978 122.9970014
  39.9379992   6.5669978 122.5490014  40.6998555   6.8996874 122.8068939
  54.1389992  17.4659978 132.7550014  53.9829992  18.1449978 132.0980014
  55.0719992  17.5379978 132.9580014  54.2437387  17.5686390 132.6925342
  41.6339992   1.5839978 131.4920014  41.4049992   1.6429978 130.5640014
  41.1919992   0.7929978 131.7980014  41.5428801   1.4850540 131.4064729
  40.5649992  15.5249978 127.6520014  39.7319992  15.9969978 127.6800014
  41.1099992  16.0349978 127.0540014  40.5247590  15.6585897 127.5749194
  39.8529992  18.1369978 138.9820014  40.3929992  17.9209978 139.7420014
  39.3719992  17.3319978 138.7930014  39.8618613  17.9985400 139.0604782
  44.4499992  17.0569978 140.6030014  45.2179992  16.5979978 140.9440014
  44.4289992  16.8309978 139.6730014  44.5522135  16.9636668 140.5239491
  48.5419992  16.5649978 121.9780014  47.8979992  15.9339978 122.2990014
  49.3039992  16.0339978 121.7460014  48.5568058  16.4067902 121.9906038
  51.0269992  15.4369978 139.3320014  50.6759992  14.5799978 139.5750014
  51.7529992  15.5789978 139.9390014  51.0771590  15.3390178 139.4472907
  53.1469992  16.3819978 122.2120014  53.4299992  15.5869978 122.6640014
  53.8859992  16.6149978 121.6510014  53.2856956  16.3047031 122.1979822
  39.7599992  11.9479978 139.9370014  39.9039992  11.0459978 139.6500014
  38.9879992  12.2339978 139.4490014  39.6753303  11.8633243 139.8317908
  44.1009992  12.2909978 122.0690014  44.1659992  11.4969978 122.6000014
  44.7539992  12.1729978 121.3790014  44.1981754  12.1663337 122.0484259
  46.4149992  11.9169978 139.3690014  46.0869992  12.1879978 138.5120014
  46.5669992  10.9759978 139.2820014  46.3906030  11.8268973 139.2397945
  49.4539992  13.3379978 121.8050014  49.1849992  13.5189978 122.7060014
  49.2469992  12.4129978 121.6740014  49.3892000  13.2376774 121.9105693
  52.1499992  11.8329978 136.7530014  52.8949992  12.4219978 136.6330014
  51.3929992  12.4149978 136.8160014  52.1495205  11.9921997 136.7451119
  40.5929992   9.1479978 139.3570014  41.0009992   8.2909978 139.2360014
  40.3319992   9.1619978 140.2780014  40.6136016   9.0325119 139.4649192
  45.2509992  10.2639978 124.3750014  44.7909992   9.7799978 125.0610014
  45.5059992   9.5949978 123.7390014  45.2225038  10.1073689 124.3829447
  44.5399992   8.1569978 136.7310014  43.9209992   8.8309978 137.0110014
  44.8839992   8.4779978 135.8980014  44.5017605   8.2927198 136.6566707
  46.3219992   8.5069978 122.6370014  46.1409992   8.3519978 121.7100014
  47.2719992   8.6149978 122.6820014  46.4256566   8.5003669 122.5160929
  49.5589992  10.6279978 140.0080014  50.5129992  10.7119978 139.9810014
  49.3989992   9.9159978 140.6280014  49.6677182  10.5432842 140.0880733
  55.7119992  10.8609978 122.0830014  55.4379992  10.4369978 121.2700014
  55.7509992  11.7929978 121.8660014  55.6797716  10.9288827 121.9424286
  44.8789992   5.5119978 137.8130014  45.0289992   4.7829978 137.2110014
  44.8809992   6.2889978 137.2540014  44.8997967   5.5172708 137.6550541
  45.2919992   3.8809978 135.3060014  45.8269992   4.3329978 134.6540014
  44.4389992   3.7729978 134.8830014  45.2500374   3.9282665 135.1596710
  46.8729992   9.3209978 135.5450014  47.6239992   9.1649978 134.9720014
  46.5339992  10.1729978 135.2700014  46.9299587   9.4148138 135.4294078
  51.2889992   7.1359978 140.5740014  51.4809992   6.2049978 140.4620014
  52.1469992   7.5609978 140.5640014  51.4312269   7.0659928 140.5573192
  52.6059992   9.9249978 138.6510014  52.3239992  10.6339978 138.0740014
  53.5479992   9.8519978 138.5000014  52.6947656  10.0123128 138.5514809
  43.3579992   6.7099978 139.7250014  42.5899992   6.1769978 139.5150014
  44.0359992   6.3999978 139.1250014  43.3446973   6.5952375 139.6151796
  46.0969992   1.3379978 135.7370014  45.9989992   2.2839978 135.6320014
  45.3549992   0.9649978 135.2620014  45.9831913   1.4171813 135.6583539
  47.3609992   5.6589978 139.3010014  47.1259992   5.4399978 140.2030014
  46.5779992   5.4519978 138.7910014  47.2229219   5.6010066 139.3555852
  50.0769992   4.7869978 138.3770014  49.1289992   4.8189978 138.5090014
  50.3889992   4.1609978 139.0300014  49.9895190   4.7067262 138.4833563
  51.7109992   3.4209978 140.3820014  51.6139992   2.4689978 140.3760014
  51.3889992   3.6889978 141.2420014  51.6541761   3.3269744 140.4974936
  41.5379992   4.6299978 139.4290014  41.7499992   3.9239978 138.8190014
  41.4269992   4.1929978 140.2730014  41.5520269   4.4741921 139.4595873
  46.3189992   0.6319978 138.4090014  47.0309992  -0.0080022 138.3950014
  46.2179992   0.8979978 137.4950014  46.4027261   0.5804190 138.2835537
  46.6729992   2.3139978 140.4620014  46.5409992   1.8389978 139.6420014
  46.0729992   3.0589978 140.4070014  46.5739070   2.3495789 140.3423251
  46.2189992  19.1969978 123.6390014  47.1519992  19.3549978 123.7820014
  45.9549992  19.8729978 123.0140014  46.3109308  19.3099104 123.5741396
  39.7869992  13.8339978 123.1210014  40.7009992  13.9129978 123.3950014
  39.7949992  13.1469978 122.4550014  39.9131143  13.7519085 123.0684274
  38.4359992  19.2269978 128.1990014  37.7889992  18.7649978 127.6660014
  38.7909992  18.5549978 128.7810014  38.3954506  19.0729503 128.2047341
  39.3059992  17.3069978 130.0030014  38.9719992  16.4269978 130.1750014
  39.5289992  17.6529978 130.8680014  39.2903721  17.2331938 130.1434168
  56.8549992  18.1169978 132.9840014  56.8329992  18.3019978 133.9230014
  57.5449992  18.6849978 132.6430014  56.9453439  18.2191887 133.0664791
  56.4179992  17.6839978 135.9060014  55.9309992  16.9489978 135.5350014
  56.9669992  17.2899978 136.5840014  56.4255247  17.5301057 135.9468461
  54.8689992  13.4739978 140.5440014  54.0029992  13.3689978 140.9380014
  55.2449992  14.2319978 140.9900014  54.8013401  13.5621708 140.6582620
  56.1699992  11.7299978 126.0580014  57.0199992  12.1509978 126.1850014
  56.1749992  10.9899978 126.6650014  56.2871143  11.6876094 126.1574750
  56.5639992   9.7839978 127.8820014  55.8379992   9.3039978 128.2790014
  57.1459992   9.9889978 128.6140014  56.5431635   9.7459166 128.0353748
  56.3229992  12.5689978 132.8290014  57.1569992  12.1909978 132.5490014
  56.4349992  13.5119978 132.7100014  56.4522522  12.6447742 132.7746020
  54.8099992  15.4469978 135.1360014  54.1619992  15.7719978 135.7620014
  54.2919992  15.0059978 134.4620014  54.6514168  15.4318523 135.1305307
  56.8329992   9.6849978 124.2730014  56.3109992  10.0409978 123.5540014
  56.7999992  10.3599978 124.9510014  56.7570699   9.8249848 124.2662129
  55.1819992   6.9239978 122.8240014  55.2779992   7.5909978 122.1440014
  55.0419992   6.1089978 122.3420014  55.1762063   6.9050667 122.6658377
  54.3509992   8.3049978 128.4450014  54.2009992   7.3599978 128.4240014
  53.9969992   8.5859978 129.2880014  54.2825527   8.2135605 128.5561859
  39.3859992  10.3829978 132.4550014  39.5709992  10.3009978 131.5190014
  40.2359992  10.2589978 132.8790014  39.5260916  10.3550393 132.3842896
  55.2069992  10.2749978 138.0830014  55.7899992   9.5399978 138.2750014
  55.7709992  11.0469978 138.1300014  55.3629781  10.2788145 138.1156164
  56.7039992   8.1779978 138.7680014  55.8409992   7.7989978 138.6020014
  57.3079992   7.4389978 138.6940014  56.6675944   8.0262978 138.7352984
  54.4289992   4.3319978 121.9410014  55.0399992   3.9609978 122.5780014
  53.5919992   3.9109978 122.1370014  54.3994947   4.2242756 122.0547252
  54.0619992   5.8869978 126.9070014  54.3409992   4.9799978 127.0310014
  54.8209992   6.3209978 126.5180014  54.2028619   5.8214502 126.8713795
  54.6729992   6.4689978 132.3430014  55.6059992   6.6809978 132.3090014
  54.4379992   6.5699978 133.2650014  54.7688308   6.5116503 132.4630214
  54.7029992   7.2059978 135.1190014  53.8599992   7.4739978 135.4850014
  55.1449992   8.0279978 134.9080014  54.6474138   7.3538273 135.1405518
  38.9839992   5.6529978 138.5960014  39.9029992   5.5309978 138.8320014
  38.5339992   4.9029978 138.9850014  39.0491148   5.5348751 138.6809408
  56.9859992   1.1859978 140.4720014  57.3349992   0.5319978 139.8670014
  57.1329992   2.0229978 140.0330014  57.0537355   1.2096067 140.3296564
  54.6749992   3.1499978 126.9550014  54.8569992   2.7009978 127.7810014
  54.0749992   2.5659978 126.4920014  54.6187529   3.0096131 127.0053619
  40.2049992   3.9659978 131.4870014  40.6499992   3.1739978 131.7890014
  40.6709992   4.6819978 131.9180014  40.3289059   3.9544474 131.5866079
  38.5089992   6.9649978 132.5560014  39.0009992   6.7439978 131.7650014
  38.8709992   7.8049978 132.8370014  38.6252923   7.0483468 132.4857407
  56.5049992   3.2949978 138.8220014  55.5879992   3.5659978 138.7860014
  56.6279992   2.7599978 138.0380014  56.3960828   3.2597700 138.7110785
  56.5419992   3.2179978 123.4830014  56.9539992   2.4969978 123.0080014
  57.2229992   3.8869978 123.5420014  56.6905900   3.2097306 123.4259038
  38.8229992   3.2229978 126.6100014  37.8979992   3.4309978 126.4810014
  39.2769992   3.7069978 125.9210014  38.7576374   3.3169949 126.4990957
  53.5929992  18.2069978 128.5560014  54.2459992  17.8589978 127.9480014
  54.1039992  18.6949978 129.2020014  53.7512777  18.2253815 128.5602047
  38.7859992   1.9609978 134.9550014  38.1209992   1.7149978 135.5980014
  38.3429992   2.5829978 134.3770014  38.6350937   2.0113614 134.9649379
  40.9779992  15.1359978 139.0990014  40.1569992  15.3109978 138.6390014
  40.7259992  15.0629978 140.0200014  40.8316173  15.1500794 139.1604972
  43.9319992  16.1099978 135.3580014  43.5079992  16.9199978 135.0750014
  44.8369992  16.1959978 135.0560014  43.9962433  16.2323331 135.2785377
  48.2439992  17.5089978 138.3170014  48.4279992  17.1759978 139.1950014
  49.0899992  17.8189978 137.9950014  48.3836484  17.5052979 138.3937617
  50.5889992  18.7949978 137.5610014  51.2659992  18.1619978 137.3210014
  50.9099992  19.1959978 138.3680014  50.7251323  18.7625691 137.6373158
  55.5059992   1.3849978 136.6410014  54.6929992   1.7099978 136.2530014
  55.7389992   0.6239978 136.1080014  55.4262566   1.3266559 136.5159213
  41.3339992  19.3669978 135.4050014  40.6139992  19.8069978 134.9540014
  40.9689992  19.1159978 136.2540014  41.1859796  19.3933824 135.4579329
  43.8009992  18.9669978 134.4350014  42.9369992  19.0389978 134.8390014
  43.7459992  19.5139978 133.6510014  43.6751942  19.0507849 134.3844000
  48.5119992  18.8549978 133.6100014  48.0549992  19.3839978 132.9560014
  48.6749992  19.4579978 134.3360014  48.4714476  19.0089140 133.6185499
  50.8399992  17.7329978 134.5550014  49.9349992  17.8979978 134.2900014
  51.2679992  18.5859978 134.4900014  50.7740700  17.8709529 134.5099520
  53.4439992  19.3029978 134.8500014  53.2619992  20.2189978 134.6400014
  53.6209992  18.8919978 134.0040014  53.4429907  19.3729741 134.7067883
  40.7489992  17.9899978 132.3150014  40.7309992  17.5639978 133.1730014
  41.5539992  17.6709978 131.9070014  40.8553221  17.8887233 132.3770225
  42.8899992  16.6999978 130.9700014  42.6709992  15.7829978 131.1400014
  43.7139992  16.8399978 131.4360014  42.9714702  16.5935511 131.0562527
  45.4269992  17.1699978 131.8190014  45.6399992  16.2819978 131.5320014
  45.4919992  17.1349978 132.7740014  45.4649075  17.0438307 131.9087373
  48.9359992   2.8339978 130.9630014  48.2619992   2.2039978 131.2190014
  49.4999992   2.3499978 130.3600014  48.9200384   2.6823708 130.9165020
  54.0789992   0.9409978 131.0760014  54.6819992   1.4889978 130.5740014
  53.2089992   1.2599978 130.8360014  54.0439190   1.0591041 130.9748679
  55.8059992   2.0799978 129.4090014  56.4169992   1.5659978 128.8830014
  56.1879992   2.9569978 129.4330014  55.9414475   2.1281323 129.3401208
  41.2629992   1.4679978 128.7850014  40.4859992   1.2329978 128.2780014
  41.7929992   0.6709978 128.7940014  41.2283451   1.3281268 128.7168627
  40.0989992   1.2659978 124.5890014  40.5379992   1.8769978 123.9970014
  39.4649992   1.8039978 125.0630014  40.0733859   1.4224064 124.5720305
  45.8419992   1.3939978 128.5990014  46.7159992   1.7829978 128.5690014
  45.7059992   1.1789978 129.5210014  45.9433207   1.4181923 128.7196509
  51.3989992   1.4239978 130.2480014  51.4749992   1.5199978 129.2990014
  51.1239992   0.5169978 130.3770014  51.3722042   1.3144241 130.1353811
  52.7519992   1.4499978 125.9400014  52.0489992   2.0649978 125.7310014
  52.3069992   0.6129978 126.0720014  52.5956292   1.4210085 125.9292439
  39.9999992  17.2139978 125.4870014  39.3149992  17.1759978 124.8190014
  40.0039992  18.1269978 125.7750014  39.9068174  17.3321998 125.4345310
  41.9599992   3.1819978 123.0310014  42.4509992   2.5519978 122.5040014
  42.5829992   3.4779978 123.6950014  42.1115062   3.1356770 123.0485438
  46.9859992   3.4749978 125.4890014  47.1639992   2.8279978 126.1710014
  46.9319992   4.3089978 125.9560014  47.0031025   3.4990504 125.6456433
  48.8639992  18.4229978 123.8840014  49.7299992  18.7899978 123.7060014
  48.6179992  17.9839978 123.0700014  48.9492097  18.4138525 123.7496019
  55.5729992  17.9859978 126.5630014  55.3789992  17.2379978 125.9980014
  55.5339992  18.7439978 125.9800014  55.5411645  17.9860786 126.4068148
  41.2199992   1.9819978 138.3030014  40.8539992   1.2159978 138.7460014
  42.1329992   2.0109978 138.5900014  41.2933225   1.8811906 138.4023459
  43.1929992   1.3319978 139.8390014  44.0919992   1.0579978 139.6540014
  42.8069992   0.5899978 140.3030014  43.2637237   1.1941508 139.8764710
  41.8179992  18.1339978 122.5120014  41.5499992  18.4199978 123.3850014
  42.5889992  17.5879978 122.6640014  41.8855600  18.0993330 122.6521499
  51.6149992   0.6649978 140.0210014  51.6909992   0.2389978 140.8750014
  52.5079992   0.6779978 139.6780014  51.7462267   0.6083952 140.0915932
  54.7909992  16.7379978 138.7130014  54.0089992  16.5509978 138.1940014
  54.7189992  17.6669978 138.9310014  54.6740863  16.8380221 138.6713574
  69.1969992  10.6239978 128.7440014  69.2859992  11.5679978 128.6120014
  68.5589992  10.3489978 128.0860014  69.1229062  10.7159812 128.6369641
  68.1299992   9.8789978 132.1630014  68.0919992   9.2329978 132.8680014
  67.8079992   9.4119978 131.3920014  68.0812679   9.7274276 132.1552921
  60.4979992   9.4929978 133.7560014  60.5399992   8.8679978 134.4790014
  61.2009992  10.1169978 133.9380014  60.5987345   9.4917873 133.8795274
  71.8359992  12.8179978 130.4650014  71.3949992  12.0979978 130.9150014
  71.8229992  13.5389978 131.0940014  71.7737960  12.8168329 130.6117567
  61.4219992  13.9429978 132.2910014  61.0519992  13.1409978 131.9210014
  62.3629992  13.7749978 132.3370014  61.4985984  13.8104638 132.2465603
  58.0319992   7.6029978 127.6840014  57.5839992   8.4489978 127.6650014
  57.4709992   7.0239978 127.1680014  57.8949603   7.6403674 127.6116720
  58.7419992   9.7649978 129.8100014  58.9559992   8.9949978 130.3370014
  59.4799992   9.8549978 129.2060014  58.8709652   9.6718012 129.8005212
  68.9479992  17.9219978 130.6770014  69.5669992  17.2459978 130.4030014
  68.7389992  17.7039978 131.5850014  69.0046232  17.7997938 130.7622517
  66.5189992  12.3109978 132.5690014  66.8229992  11.6249978 131.9750014
  67.2409992  12.4299978 133.1870014  66.6581152  12.2332189 132.5712123
  75.1819992   3.9129978 133.4300014  75.2319992   4.5229978 134.1660014
  75.6079992   4.3739978 132.7070014  75.2464108   4.0587709 133.4330112
  69.6599992   6.7049978 132.8970014  69.8029992   5.7589978 132.9170014
  69.5539992   6.9119978 131.9680014  69.6652509   6.6034813 132.7742231
  62.8149992   4.8069978 130.1690014  62.8579992   5.6669978 129.7510014
  62.3569992   4.2549978 129.5350014  62.7589815   4.8500621 130.0261197
  70.5369992   4.9379978 128.5700014  71.1839992   4.6089978 129.1950014
  71.0469992   5.4549978 127.9470014  70.6944317   4.9629227 128.5712167
  59.4349992   7.2039978 130.9310014  60.0889992   6.6539978 131.3630014
  59.4589992   6.9299978 130.0140014  59.5277199   7.0917167 130.8661668
  64.5919992   8.7539978 130.1460014  65.2079992   8.2269978 130.6560014
  64.0049992   8.1139978 129.7430014  64.5969239   8.5954117 130.1612952
  75.5739992   5.3909978 135.6660014  74.8849992   6.0489978 135.5700014
  75.5889992   5.1929978 136.6020014  75.4816741   5.4543243 135.7794630
  61.6249992   3.7249978 134.2430014  61.4059992   4.2549978 133.4770014
  60.9569992   3.9509978 134.8900014  61.5047001   3.8281154 134.2256064
  68.9939992  13.2249978 127.7870014  68.6989992  12.9019978 126.9360014
  68.6699992  14.1249978 127.8280014  68.9097983  13.3024026 127.6759771
  64.1939992  11.3999978 134.5310014  63.4539992  11.9989978 134.6340014
  64.9079992  11.9539978 134.2150014  64.1893288  11.5567356 134.5023805
  72.3009992   4.2289978 130.5500014  72.0859992   3.4629978 131.0830014
  72.9569992   4.7009978 131.0630014  72.3602673   4.1880728 130.6921990
  61.2189992   5.6169978 132.1950014  61.8329992   6.2499978 132.5690014
  61.7309992   5.1449978 131.5390014  61.3722277   5.6397352 132.1574279
  62.6019992  13.3649978 135.3180014  62.5959992  14.2439978 134.9400014
  61.7479992  13.2809978 135.7430014  62.4857925  13.4739535 135.3236887
  58.7229992  13.0359978 126.1000014  58.4509992  13.2649978 125.2110014
  58.7679992  13.8729978 126.5600014  58.6918709  13.1806058 126.0406107
  72.3479992  14.6569978 132.8120014  71.4059992  14.7159978 132.9740014
  72.6239992  15.5629978 132.6750014  72.2565865  14.7875288 132.8156192
  72.6479992   2.9439978 134.2300014  71.9119992   3.5539978 134.1920014
  73.3319992   3.3589978 133.7030014  72.6395506   3.0836400 134.1536051
  65.6519992   1.0299978 131.6960014  65.5339992   0.0819978 131.6410014
  64.7969992   1.3629978 131.9690014  65.5202679   0.9451926 131.7253720
  70.5999992  16.4379978 129.4380014  71.0249992  15.7309978 128.9530014
  70.9169992  17.2399978 129.0210014  70.7010266  16.4495190 129.3152479
  71.7599992  14.3389978 127.9460014  71.5019992  13.6489978 127.3350014
  71.8309992  13.8959978 128.7920014  71.7342837  14.1847106 127.9766912
  73.4459992  12.9059978 136.4240014  73.5849992  12.3139978 135.6840014
  73.6129992  13.7789978 136.0670014  73.4875562  12.9429896 136.2746283
  67.9179992   9.8679978 126.1960014  67.2069992  10.4029978 125.8440014
  68.6089992   9.9229978 125.5360014  67.9140751   9.9486777 126.0585858
  67.9719992   8.3249978 123.2350014  68.6729992   8.3479978 123.8860014
  68.2739992   7.6969978 122.5790014  68.1088282   8.2432339 123.2354496
  75.2869992   9.2459978 134.4900014  74.6349992   9.9399978 134.5790014
  75.7529992   9.4559978 133.6800014  75.2605937   9.3695019 134.3927533
  71.3239992  10.0769978 127.1480014  70.5919992  10.3059978 127.7210014
  71.7709992   9.3639978 127.6030014  71.2842753  10.0118972 127.2879715
  71.2209992   8.2519978 136.2160014  71.3009992   9.0149978 136.7870014
  70.6199992   8.5309978 135.5250014  71.1507245   8.3942630 136.2008424
  62.9689992  10.7079978 129.0300014  62.6389992  10.3369978 128.2120014
  63.5579992  10.0369978 129.3770014  63.0033970  10.5666063 128.9649404
  64.3359992  14.1359978 131.7120014  64.2409992  13.5569978 130.9550014
  65.0649992  13.7649978 132.2080014  64.4216161  14.0065891 131.6755209
  63.3359992   9.4759978 132.6640014  63.9009992   9.5979978 131.9010014
  63.6549992  10.1139978 133.3030014  63.4563977   9.5788851 132.6459424
  69.6449992  14.9799978 133.3980014  69.4049992  15.6419978 134.0460014
  69.4469992  14.1449978 133.8230014  69.5853826  14.9578115 133.5441566
  64.2159992  13.8759978 137.3810014  63.9049992  14.6579978 137.8360014
  63.5659992  13.7229978 136.6950014  64.0855538  13.9624087 137.3505898
  70.1949992   9.2399978 124.8330014  70.7739992   9.3899978 125.5800014
  70.6089992   9.7099978 124.1100014  70.3303122   9.3241277 124.8375042
  61.1359992  10.0739978 136.6100014  61.2059992  10.7249978 137.3080014
  60.2449992  10.1769978 136.2750014  61.0251802  10.1769757 136.6602249
  67.9209992  15.9759978 128.2680014  68.3949992  16.2719978 129.0460014
  67.3579992  16.7149978 128.0350014  67.9097361  16.1162721 128.3428611
  62.4549992  15.9469978 138.1440014  62.4629992  15.8109978 137.1970014
  61.5389992  15.8299978 138.3960014  62.3322528  15.9125463 138.0483243
  73.8939992   0.9899978 124.6460014  72.9939992   1.1289978 124.9410014
  74.1459992   1.8209978 124.2440014  73.8048683   1.1214055 124.6320232
  61.9599992   9.7769978 126.6200014  61.6679992  10.5449978 126.1290014
  61.2849992   9.1179978 126.4570014  61.8288497   9.7929745 126.5308260
  75.0829992  15.3559978 123.0220014  75.1559992  16.2949978 123.1930014
  75.9879992  15.0509978 122.9660014  75.2154158  15.4433061 123.0378392
  58.0529992  12.1399978 135.4350014  57.5509992  12.1119978 134.6200014
  58.0579992  11.2349978 135.7440014  57.9850416  12.0137368 135.3653766
  57.8029992  14.9209978 132.3190014  58.7489992  14.7759978 132.3000014
  57.6899992  15.7049978 132.8560014  57.9173578  15.0071697 132.3890317
  76.0009992  15.5869978 138.0010014  75.9509992  14.6309978 137.9640014
  75.1739992  15.8539978 138.4020014  75.8823987  15.4925174 138.0501446
  66.9789992  15.1609978 136.8770014  67.0669992  15.9869978 137.3520014
  66.1159992  14.8309978 137.1260014  66.8743357  15.2295468 136.9757653
  67.3939992  18.9329978 126.6830014  67.3179992  18.8119978 125.7370014
  67.4259992  19.8819978 126.8020014  67.3879156  19.0447530 126.5695048
  61.0469992  17.7219978 128.4640014  61.1989992  17.3739978 129.3430014
  60.1959992  17.3649978 128.2090014  60.9527899  17.6261738 128.5497340
  70.4949992  18.0869978 123.6850014  70.8699992  17.3429978 123.2150014
  70.4999992  17.8169978 124.6040014  70.5470024  17.9486950 123.7447987
  70.1639992  18.0129978 126.4350014  69.2289992  18.1129978 126.6130014
  70.4439992  17.3029978 127.0130014  70.0738173  17.9307239 126.5374998
  73.1529992   7.0799978 138.4810014  72.7449992   7.5599978 137.7610014
  73.1929992   6.1739978 138.1730014  73.1025476   7.0233160 138.3408247
  60.3019992  13.4639978 136.4780014  60.5179992  13.1019978 137.3370014
  59.4459992  13.0889978 136.2680014  60.2159354  13.3637906 136.5672160
  62.9199992   1.9339978 132.4730014  62.0589992   1.8469978 132.0660014
  62.8979992   2.7899978 132.9010014  62.7990411   2.0377884 132.4750857
  67.5829992   1.6559978 135.8480014  68.0029992   1.2409978 136.6010014
  66.6499992   1.4769978 135.9650014  67.5143736   1.5749910 135.9668968
  70.9099992   5.4109978 136.7010014  70.3959992   5.2859978 137.4990014
  70.7539992   6.3239978 136.4570014  70.8186967   5.5172123 136.7770937
  71.6719992  10.2719978 122.4630014  71.7139992  10.0499978 121.5330014
  72.5209992  10.6709978 122.6530014  71.7925253  10.2955498 122.3613822
  67.2449992   4.1479978 123.1330014  66.9909992   4.1669978 124.0560014
  66.9879992   3.2769978 122.8320014  67.1755133   4.0328110 123.2185082
  63.0109992   6.8989978 133.5680014  62.3699992   6.8589978 134.2770014
  63.0489992   7.8259978 133.3310014  62.9283670   7.0187795 133.6330550
  63.0079992   7.1199978 128.4800014  62.1159992   6.7799978 128.4220014
  63.4589992   6.7429978 127.7250014  62.9466815   7.0223762 128.3699203
  68.5439992   7.5359978 127.2970014  68.1349992   8.3509978 127.0060014
  69.2639992   7.3959978 126.6830014  68.5854013   7.6286571 127.1740875
  67.6459992   7.7119978 138.7850014  67.0829992   7.0069978 139.1060014
  68.4719992   7.5909978 139.2530014  67.6806674   7.5992165 138.8921751
  69.5489992   6.9819978 130.1110014  69.3529992   7.5879978 129.3960014
  69.7299992   6.1489978 129.6770014  69.5466584   6.9522513 129.9544212
  60.7609992   7.2199978 135.4350014  60.7229992   7.6199978 136.3040014
  60.2709992   6.4029978 135.5260014  60.6895621   7.1642510 135.5661377
  64.1269992   4.5939978 122.2340014  63.6959992   4.1489978 122.9640014
  63.4089992   4.9649978 121.7220014  63.9709363   4.5832968 122.2646211
  57.3699992   4.3359978 129.2860014  57.9999992   4.3069978 130.0050014
  57.8189992   3.9109978 128.5560014  57.5170692   4.2745316 129.2857771
  58.6439992   5.0819978 124.7100014  59.1179992   5.6729978 124.1250014
  57.9259992   5.6119978 125.0570014  58.6118640   5.2345511 124.6767969
  68.8129992   8.6199978 134.7830014  69.1359992   7.9889978 134.1400014
  68.3719992   8.0859978 135.4430014  68.7975789   8.4613522 134.7842232
  65.5899992   4.5479978 129.5670014  64.6789992   4.6049978 129.8550014
  66.0949992   4.4879978 130.3770014  65.5335387   4.5476870 129.7160646
  60.4179992   6.1769978 128.3930014  59.5289992   6.2759978 128.0530014
  60.7149992   5.3349978 128.0470014  60.3364177   6.0767687 128.2996940
  64.0709992   6.1769978 126.0500014  65.0029992   6.3059978 126.2280014
  63.8559992   6.8459978 125.4000014  64.1694472   6.2850806 125.9864891
  69.9949992   3.7829978 132.8310014  69.3179992   3.9139978 133.4950014
  69.5099992   3.6279978 132.0210014  69.8367265   3.7799659 132.8123397
  62.7449992   7.3709978 123.6170014  62.2029992   6.9919978 122.9250014
  63.5789992   7.5659978 123.1880014  62.7835159   7.3455076 123.4644419
  73.2829992  19.4539978 139.1080014  73.4819992  19.8779978 138.2730014
  73.9379992  19.7979978 139.7150014  73.3988501  19.5586091 139.0757097
  60.8809992  11.9279978 138.7160014  61.6129992  12.1829978 139.2770014
  60.0999992  12.1329978 139.2310014  60.8757684  11.9906468 138.8624782
  66.9099992   7.3349978 131.4540014  67.4739992   6.7889978 130.9070014
  66.7619992   6.8139978 132.2420014  66.9672575   7.1896552 131.4856987
  61.9119992   3.4719978 127.8720014  61.5949992   2.5689978 127.8370014
  62.6929992   3.4739978 127.3190014  61.9742307   3.3486951 127.7924314
  65.5359992   5.7239978 133.8680014  64.7009992   6.1779978 133.9780014
  66.0599992   5.9999978 134.6200014  65.4925070   5.8234666 133.9847152
  66.0809992  11.9369978 125.5520014  65.3359992  11.4289978 125.2300014
  65.9459992  11.9859978 126.4990014  65.9609047  11.8741596 125.6358845
  73.2309992  11.0699978 134.3390014  73.8719992  11.5259978 133.7950014
  72.3999992  11.1829978 133.8770014  73.2065171  11.1477502 134.2020237
  69.9779992   4.7509978 123.7520014  69.0399992   4.8619978 123.6000014
  70.2759992   5.6069978 124.0580014  69.8896402   4.8820621 123.7725571
  67.5999992  12.1209978 136.7890014  67.2539992  11.7389978 137.5960014
  67.3999992  13.0539978 136.8610014  67.5256523  12.1949095 136.9090735
  70.6969992   6.6179978 125.4120014  71.5889992   6.4799978 125.7310014
  70.7529992   7.4089978 124.8760014  70.8267107   6.7060526 125.3832091
  61.2049992  11.2319978 131.3220014  61.9499992  11.2289978 130.7210014
  61.2829992  10.4079978 131.8040014  61.3174159  11.1202916 131.3049153
  68.2059992  13.3949978 124.5780014  67.9109992  14.2219978 124.9590014
  67.5029992  12.7759978 124.7740014  68.0705471  13.4245227 124.6566698
  58.2129992   9.6919978 136.6370014  58.4359992   9.2739978 137.4690014
  57.6109992   9.0799978 136.2140014  58.1621260   9.5519933 136.6937320
  65.2299992   9.2089978 138.8500014  64.9339992   9.0439978 137.9550014
  66.1609992   8.9889978 138.8390014  65.3153982   9.1566578 138.7260045
  69.8499992  14.5829978 136.7400014  68.9499992  14.7659978 136.4720014
  69.8839992  14.8419978 137.6610014  69.7312909  14.6430815 136.8277852
  75.5819992   6.8269978 125.1070014  75.0269992   6.4309978 124.4350014
  75.6819992   7.7379978 124.8290014  75.5195888   6.8958990 124.9775206
  75.5449992  12.6279978 137.9440014  74.6939992  12.8659978 137.5770014
  76.1349992  12.6109978 137.1910014  75.5082408  12.6582966 137.7918879
  73.8769992  15.6129978 125.5720014  73.5039992  14.7879978 125.8810014
  74.1539992  15.4299978 124.6750014  73.8633871  15.4752441 125.4929677
  71.0369992  10.4209978 132.5930014  70.1089992  10.1899978 132.5660014
  71.4879992   9.6439978 132.2630014  70.9708165  10.2842774 132.5446790
  63.5799992  14.7499978 128.7260014  64.1079992  15.5229978 128.5260014
  62.6999992  14.9739978 128.4250014  63.5333176  14.8863161 128.6578409
  59.3349992   9.6119978 123.3140014  59.9509992  10.2389978 123.6930014
  58.4729992   9.9279978 123.5850014  59.3028195   9.7405798 123.4025386
  65.0079992  12.4129978 128.3030014  64.7669992  13.3379978 128.3440014
  64.2669992  11.9539978 128.6990014  64.8748390  12.4776403 128.3621404
  65.5219992  16.5619978 134.6180014  65.8849992  17.4159978 134.3840014
  66.0539992  16.2699978 135.3580014  65.6436090  16.6394058 134.6860219
  63.6909992  17.4339978 127.8480014  62.7409992  17.5399978 127.8990014
  64.0429992  18.2549978 128.1930014  63.6085480  17.5594438 127.9015999
  69.0659992  12.6609978 134.3180014  68.6409992  12.4329978 135.1450014
  69.6469992  11.9219978 134.1360014  69.0863930  12.5299843 134.4064731
  71.2689992  13.5899978 123.3920014  71.6229992  13.2099978 124.1970014
  70.3209992  13.4959978 123.4790014  71.1891820  13.5253091 123.5138714
  71.7249992  17.2129978 136.7880014  71.1229992  16.6569978 136.2920014
  72.0059992  17.8799978 136.1620014  71.6806829  17.2271613 136.6355443
  75.7729992  18.0689978 123.5930014  76.5169992  18.6549978 123.4530014
  75.0789992  18.6379978 123.9270014  75.7810201  18.2260603 123.6189772
  59.8469992   4.4459978 136.1950014  58.9549992   4.7839978 136.1280014
  59.7489992   3.5899978 136.6130014  59.7114965   4.3766499 136.2423044
  72.1349992  12.2619978 125.6190014  71.8579992  11.5339978 126.1750014
  73.0629992  12.3809978 125.8240014  72.2224499  12.1784213 125.7228044
  59.4989992  16.2499978 134.6300014  59.7159992  15.3179978 134.5990014
  59.7449992  16.5249978 135.5130014  59.5619809  16.1595686 134.7451691
  65.3599992  14.7019978 121.8390014  65.5989992  13.9529978 121.2920014
  65.0909992  14.3139978 122.6720014  65.3563233  14.5471853 121.8767809
  64.2969992  14.2719978 124.2960014  64.4439992  13.7519978 125.0860014
  64.2939992  15.1789978 124.6020014  64.3167300  14.3233964 124.4455895
  60.7499992  11.5239978 124.8060014  60.0639992  11.8769978 125.3730014
  61.2729992  12.2869978 124.5600014  60.7269033  11.6753746 124.8502661
  68.5819992   4.1869978 135.0850014  69.2809992   4.2609978 135.7350014
  68.2009992   3.3219978 135.2390014  68.6262097   4.0802389 135.1947997
  69.3659992   3.8389978 126.1820014  69.5859992   4.3099978 125.3790014
  69.9249992   4.2329978 126.8520014  69.4716730   3.9567432 126.1625906
  67.0349992  15.9689978 125.0450014  66.2179992  16.4659978 125.0970014
  67.5639992  16.4449978 124.4050014  66.9948508  16.1012543 124.9656035
  66.5659992   5.5669978 127.0170014  67.3779992   6.0709978 127.0630014
  66.3219992   5.4219978 127.9310014  66.6441467   5.6163749 127.1468575
  67.1019992   6.5529978 136.2020014  67.2209992   7.1269978 136.9590014
  67.7569992   5.8649978 136.3160014  67.2069146   6.5385574 136.3211314
  67.4499992   2.6479978 127.9550014  67.1029992   3.2649978 128.6000014
  68.1089992   3.1489978 127.4740014  67.4915949   2.8001099 127.9782271
  64.3729992  17.0129978 125.0270014  64.5339992  17.8129978 124.5260014
  64.1759992  17.3199978 125.9120014  64.3683919  17.1639129 125.0781006
  63.1079992   3.7109978 124.6420014  63.0239992   4.5989978 124.9890014
  63.9979992   3.4459978 124.8740014  63.2168163   3.7967179 124.7208596
  73.3059992   4.4599978 137.0370014  72.3899992   4.7219978 136.9490014
  73.6419992   4.4569978 136.1400014  73.2259789   4.4954626 136.9037847
  71.9089992   8.2099978 131.1320014  71.1109992   7.7949978 130.8040014
  72.3539992   7.5199978 131.6230014  71.8599684   8.0598628 131.1535227
  61.3659992  14.1379978 123.7030014  61.9579992  14.8379978 123.9790014
  61.8249992  13.7049978 122.9830014  61.5090791  14.1752908 123.6434607
  59.6819992   6.8029978 122.8190014  59.6369992   7.7419978 122.9970014
  58.7939992   6.5669978 122.5490014  59.5558555   6.8996874 122.8068939
  72.9949992  17.4659978 132.7550014  72.8389992  18.1449978 132.0980014
  73.9279992  17.5379978 132.9580014  73.0997387  17.5686390 132.6925342
  60.4899992   1.5839978 131.4920014  60.2609992   1.6429978 130.5640014
  60.0479992   0.7929978 131.7980014  60.3988801   1.4850540 131.4064729
  59.4209992  15.5249978 127.6520014  58.5879992  15.9969978 127.6800014
  59.9659992  16.0349978 127.0540014  59.3807590  15.6585897 127.5749194
  58.7089992  18.1369978 138.9820014  59.2489992  17.9209978 139.7420014
  58.2279992  17.3319978 138.7930014  58.7178613  17.9985400 139.0604782
  63.3059992  17.0569978 140.6030014  64.0739992  16.5979978 140.9440014
  63.2849992  16.8309978 139.6730014  63.4082135  16.9636668 140.5239491
  67.3979992  16.5649978 121.9780014  66.7539992  15.9339978 122.2990014
  68.1599992  16.0339978 121.7460014  67.4128058  16.4067902 121.9906038
  69.8829992  15.4369978 139.3320014  69.5319992  14.5799978 139.5750014
  70.6089992  15.5789978 139.9390014  69.9331590  15.3390178 139.4472907
  72.0029992  16.3819978 122.2120014  72.2859992  15.5869978 122.6640014
  72.7419992  16.6149978 121.6510014  72.1416956  16.3047031 122.1979822
  58.6159992  11.9479978 139.9370014  58.7599992  11.0459978 139.6500014
  57.8439992  12.2339978 139.4490014  58.5313303  11.8633243 139.8317908
  62.9569992  12.2909978 122.0690014  63.0219992  11.4969978 122.6000014
  63.6099992  12.1729978 121.3790014  63.0541754  12.1663337 122.0484259
  65.2709992  11.9169978 139.3690014  64.9429992  12.1879978 138.5120014
  65.4229992  10.9759978 139.2820014  65.2466030  11.8268973 139.2397945
  68.3099992  13.3379978 121.8050014  68.0409992  13.5189978 122.7060014
  68.1029992  12.4129978 121.6740014  68.2452000  13.2376774 121.9105693
  71.0059992  11.8329978 136.7530014  71.7509992  12.4219978 136.6330014
  70.2489992  12.4149978 136.8160014  71.0055205  11.9921997 136.7451119
  59.4489992   9.1479978 139.3570014  59.8569992   8.2909978 139.2360014
  59.1879992   9.1619978 140.2780014  59.4696016   9.0325119 139.4649192
  64.1069992  10.2639978 124.3750014  63.6469992   9.7799978 125.0610014
  64.3619992   9.5949978 123.7390014  64.0785038  10.1073689 124.3829447
  63.3959992   8.1569978 136.7310014  62.7769992   8.8309978 137.0110014
  63.7399992   8.4779978 135.8980014  63.3577605   8.2927198 136.6566707
  65.1779992   8.5069978 122.6370014  64.9969992   8.3519978 121.7100014
  66.1279992   8.6149978 122.6820014  65.2816566   8.5003669 122.5160929
  68.4149992  10.6279978 140.0080014  69.3689992  10.7119978 139.9810014
  68.2549992   9.9159978 140.6280014  68.5237182  10.5432842 140.0880733
  74.5679992  10.8609978 122.0830014  74.2939992  10.4369978 121.2700014
  74.6069992  11.7929978 121.8660014  74.5357716  10.9288827 121.9424286
  63.7349992   5.5119978 137.8130014  63.8849992   4.7829978 137.2110014
  63.7369992   6.2889978 137.2540014  63.7557967   5.5172708 137.6550541
  64.1479992   3.8809978 135.3060014  64.6829992   4.3329978 134.6540014
  63.2949992   3.7729978 134.8830014  64.1060374   3.9282665 135.1596710
  65.7289992   9.3209978 135.5450014  66.4799992   9.1649978 134.9720014
  65.3899992  10.1729978 135.2700014  65.7859587   9.4148138 135.4294078
  70.1449992   7.1359978 140.5740014  70.3369992   6.2049978 140.4620014
  71.0029992   7.5609978 140.5640014  70.2872269   7.0659928 140.5573192
  71.4619992   9.9249978 138.6510014  71.1799992  10.6339978 138.0740014
  72.4039992   9.8519978 138.5000014  71.5507656  10.0123128 138.5514809
  62.2139992   6.7099978 139.7250014  61.4459992   6.1769978 139.5150014
  62.8919992   6.3999978 139.1250014  62.2006973   6.5952375 139.6151796
  64.9529992   1.3379978 135.7370014  64.8549992   2.2839978 135.6320014
  64.2109992   0.9649978 135.2620014  64.8391913   1.4171813 135.6583539
  66.2169992   5.6589978 139.3010014  65.9819992   5.4399978 140.2030014
  65.4339992   5.4519978 138.7910014  66.0789219   5.6010066 139.3555852
  68.9329992   4.7869978 138.3770014  67.9849992   4.8189978 138.5090014
  69.2449992   4.1609978 139.0300014  68.8455190   4.7067262 138.4833564
  70.5669992   3.4209978 140.3820014  70.4699992   2.4689978 140.3760014
  70.2449992   3.6889978 141.2420014  70.5101761   3.3269744 140.4974936
  60.3939992   4.6299978 139.4290014  60.6059992   3.9239978 138.8190014
  60.2829992   4.1929978 140.2730014  60.4080269   4.4741921 139.4595873
  65.1749992   0.6319978 138.4090014  65.8869992  -0.0080022 138.3950014
  65.0739992   0.8979978 137.4950014  65.2587261   0.5804190 138.2835537
  65.5289992   2.3139978 140.4620014  65.3969992   1.8389978 139.6420014
  64.9289992   3.0589978 140.4070014  65.4299070   2.3495789 140.3423251
  65.0749992  19.1969978 123.6390014  66.0079992  19.3549978 123.7820014
  64.8109992  19.8729978 123.0140014  65.1669308  19.3099104 123.5741396
  58.6429992  13.8339978 123.1210014  59.5569992  13.9129978 123.3950014
  58.6509992  13.1469978 122.4550014  58.7691143  13.7519085 123.0684274
  57.2919992  19.2269978 128.1990014  56.6449992  18.7649978 127.6660014
  57.6469992  18.5549978 128.7810014  57.2514506  19.0729503 128.2047341
  58.1619992  17.3069978 130.0030014  57.8279992  16.4269978 130.1750014
  58.3849992  17.6529978 130.8680014  58.1463721  17.2331938 130.1434168
  75.7109992  18.1169978 132.9840014  75.6889992  18.3019978 133.9230014
  76.4009992  18.6849978 132.6430014  75.8013439  18.2191887 133.0664791
  75.2739992  17.6839978 135.9060014  74.7869992  16.9489978 135.5350014
  75.8229992  17.2899978 136.5840014  75.2815247  17.5301057 135.9468461
  73.7249992  13.4739978 140.5440014  72.8589992  13.3689978 140.9380014
  74.1009992  14.2319978 140.9900014  73.6573401  13.5621708 140.6582620
  75.0259992  11.7299978 126.0580014  75.8759992  12.1509978 126.1850014
  75.0309992  10.9899978 126.6650014  75.1431143  11.6876094 126.1574750
  75.4199992   9.7839978 127.8820014  74.6939992   9.3039978 128.2790014
  76.0019992   9.9889978 128.6140014  75.3991635   9.7459166 128.0353748
  75.1789992  12.5689978 132.8290014  76.0129992  12.1909978 132.5490014
  75.2909992  13.5119978 132.7100014  75.3082522  12.6447742 132.7746020
  73.6659992  15.4469978 135.1360014  73.0179992  15.7719978 135.7620014
  73.1479992  15.0059978 134.4620014  73.5074168  15.4318523 135.1305307
  75.6889992   9.6849978 124.2730014  75.1669992  10.0409978 123.5540014
  75.6559992  10.3599978 124.9510014  75.6130699   9.8249848 124.2662129
  74.0379992   6.9239978 122.8240014  74.1339992   7.5909978 122.1440014
  73.8979992   6.1089978 122.3420014  74.0322063   6.9050667 122.6658377
  73.2069992   8.3049978 128.4450014  73.0569992   7.3599978 128.4240014
  72.8529992   8.5859978 129.2880014  73.1385527   8.2135605 128.5561859
  58.2419992  10.3829978 132.4550014  58.4269992  10.3009978 131.5190014
  59.0919992  10.2589978 132.8790014  58.3820916  10.3550393 132.3842896
  74.0629992  10.2749978 138.0830014  74.6459992   9.5399978 138.2750014
  74.6269992  11.0469978 138.1300014  74.2189781  10.2788145 138.1156164
  75.5599992   8.1779978 138.7680014  74.6969992   7.7989978 138.6020014
  76.1639992   7.4389978 138.6940014  75.5235944   8.0262978 138.7352984
  73.2849992   4.3319978 121.9410014  73.8959992   3.9609978 122.5780014
  72.4479992   3.9109978 122.1370014  73.2554947   4.2242756 122.0547252
  72.9179992   5.8869978 126.9070014  73.1969992   4.9799978 127.0310014
  73.6769992   6.3209978 126.5180014  73.0588619   5.8214502 126.8713795
  73.5289992   6.4689978 132.3430014  74.4619992   6.6809978 132.3090014
  73.2939992   6.5699978 133.2650014  73.6248308   6.5116503 132.4630214
  73.5589992   7.2059978 135.1190014  72.7159992   7.4739978 135.4850014
  74.0009992   8.0279978 134.9080014  73.5034138   7.3538273 135.1405518
  57.8399992   5.6529978 138.5960014  58.7589992   5.5309978 138.8320014
  57.3899992   4.9029978 138.9850014  57.9051148   5.5348751 138.6809408
  75.8419992   1.1859978 140.4720014  76.1909992   0.5319978 139.8670014
  75.9889992   2.0229978 140.0330014  75.9097355   1.2096067 140.3296564
  73.5309992   3.1499978 126.9550014  73.7129992   2.7009978 127.7810014
  72.9309992   2.5659978 126.4920014  73.4747529   3.0096131 127.0053619
  59.0609992   3.9659978 131.4870014  59.5059992   3.1739978 131.7890014
  59.5269992   4.6819978 131.9180014  59.1849059   3.9544474 131.5866079
  57.3649992   6.9649978 132.5560014  57.8569992   6.7439978 131.7650014
  57.7269992   7.8049978 132.8370014  57.4812923   7.0483468 132.4857407
  75.3609992   3.2949978 138.8220014  74.4439992   3.5659978 138.7860014
  75.4839992   2.7599978 138.0380014  75.2520828   3.2597700 138.7110785
  75.3979992   3.2179978 123.4830014  75.8099992   2.4969978 123.0080014
  76.0789992   3.8869978 123.5420014  75.5465900   3.2097306 123.4259038
  57.6789992   3.2229978 126.6100014  56.7539992   3.4309978 126.4810014
  58.1329992   3.7069978 125.9210014  57.6136374   3.3169949 126.4990957
  72.4489992  18.2069978 128.5560014  73.1019992  17.8589978 127.9480014
  72.9599992  18.6949978 129.2020014  72.6072777  18.2253815 128.5602047
  57.6419992   1.9609978 134.9550014  56.9769992   1.7149978 135.5980014
  57.1989992   2.5829978 134.3770014  57.4910937   2.0113614 134.9649379
  59.8339992  15.1359978 139.0990014  59.0129992  15.3109978 138.6390014
  59.5819992  15.0629978 140.0200014  59.6876173  15.1500794 139.1604972
  62.7879992  16.1099978 135.3580014  62.3639992  16.9199978 135.0750014
  63.6929992  16.1959978 135.0560014  62.8522433  16.2323331 135.2785377
  67.0999992  17.5089978 138.3170014  67.2839992  17.1759978 139.1950014
  67.9459992  17.8189978 137.9950014  67.2396484  17.5052979 138.3937617
  69.4449992  18.7949978 137.5610014  70.1219992  18.1619978 137.3210014
  69.7659992  19.1959978 138.3680014  69.5811323  18.7625691 137.6373158
  74.3619992   1.3849978 136.6410014  73.5489992   1.7099978 136.2530014
  74.5949992   0.6239978 136.1080014  74.2822566   1.3266559 136.5159213
  60.1899992  19.3669978 135.4050014  59.4699992  19.8069978 134.9540014
  59.8249992  19.1159978 136.2540014  60.0419796  19.3933824 135.4579329
  62.6569992  18.9669978 134.4350014  61.7929992  19.0389978 134.8390014
  62.6019992  19.5139978 133.6510014  62.5311942  19.0507849 134.3844000
  67.3679992  18.8549978 133.6100014  66.9109992  19.3839978 132.9560014
  67.5309992  19.4579978 134.3360014  67.3274476  19.0089140 133.6185499
  69.6959992  17.7329978 134.5550014  68.7909992  17.8979978 134.2900014
  70.1239992  18.5859978 134.4900014  69.6300700  17.8709529 134.5099520
  72.2999992  19.3029978 134.8500014  72.1179992  20.2189978 134.6400014
  72.4769992  18.8919978 134.0040014  72.2989907  19.3729741 134.7067883
  59.6049992  17.9899978 132.3150014  59.5869992  17.5639978 133.1730014
  60.4099992  17.6709978 131.9070014  59.7113221  17.8887233 132.3770225
  61.7459992  16.6999978 130.9700014  61.5269992  15.7829978 131.1400014
  62.5699992  16.8399978 131.4360014  61.8274702  16.5935511 131.0562527
  64.2829992  17.1699978 131.8190014  64.4959992  16.2819978 131.5320014
  64.3479992  17.1349978 132.7740014  64.3209075  17.0438307 131.9087373
  67.7919992   2.8339978 130.9630014  67.1179992   2.2039978 131.2190014
  68.3559992   2.3499978 130.3600014  67.7760384   2.6823708 130.9165020
  72.9349992   0.9409978 131.0760014  73.5379992   1.4889978 130.5740014
  72.0649992   1.2599978 130.8360014  72.8999190   1.0591041 130.9748679
  74.6619992   2.0799978 129.4090014  75.2729992   1.5659978 128.8830014
  75.0439992   2.9569978 129.4330014  74.7974475   2.1281323 129.3401208
  60.1189992   1.4679978 128.7850014  59.3419992   1.2329978 128.2780014
  60.6489992   0.6709978 128.7940014  60.0843451   1.3281268 128.7168627
  58.9549992   1.2659978 124.5890014  59.3939992   1.8769978 123.9970014
  58.3209992   1.8039978 125.0630014  58.9293859   1.4224064 124.5720305
  64.6979992   1.3939978 128.5990014  65.5719992   1.7829978 128.5690014
  64.5619992   1.1789978 129.5210014  64.7993207   1.4181923 128.7196509
  70.2549992   1.4239978 130.2480014  70.3309992   1.5199978 129.2990014
  69.9799992   0.5169978 130.3770014  70.2282042   1.3144241 130.1353811
  71.6079992   1.4499978 125.9400014  70.9049992   2.0649978 125.7310014
  71.1629992   0.6129978 126.0720014  71.4516292   1.4210085 125.9292439
  58.8559992  17.2139978 125.4870014  58.1709992  17.1759978 124.8190014
  58.8599992  18.1269978 125.7750014  58.7628174  17.3321998 125.4345310
  60.8159992   3.1819978 123.0310014  61.3069992   2.5519978 122.5040014
  61.4389992   3.4779978 123.6950014  60.9675062   3.1356770 123.0485438
  65.8419992   3.4749978 125.4890014  66.0199992   2.8279978 126.1710014
  65.7879992   4.3089978 125.9560014  65.8591025   3.4990504 125.6456433
  67.7199992  18.4229978 123.8840014  68.5859992  18.7899978 123.7060014
  67.4739992  17.9839978 123.0700014  67.8052097  18.4138525 123.7496019
  74.4289992  17.9859978 126.5630014  74.2349992  17.2379978 125.9980014
  74.3899992  18.7439978 125.9800014  74.3971645  17.9860786 126.4068148
  60.0759992   1.9819978 138.3030014  59.7099992   1.2159978 138.7460014
  60.9889992   2.0109978 138.5900014  60.1493225   1.8811906 138.4023459
  62.0489992   1.3319978 139.8390014  62.9479992   1.0579978 139.6540014
  61.6629992   0.5899978 140.3030014  62.1197237   1.1941508 139.8764710
  60.6739992  18.1339978 122.5120014  60.4059992  18.4199978 123.3850014
  61.4449992  17.5879978 122.6640014  60.7415600  18.0993330 122.6521499
  70.4709992   0.6649978 140.0210014  70.5469992   0.2389978 140.8750014
  71.3639992   0.6779978 139.6780014  70.6022267   0.6083952 140.0915932
  73.6469992  16.7379978 138.7130014  72.8649992  16.5509978 138.1940014
  73.5749992  17.6669978 138.9310014  73.5300863  16.8380221 138.6713574
  88.0529992  10.6239978 128.7440014  88.1419992  11.5679978 128.6120014
  87.4149992  10.3489978 128.0860014  87.9789062  10.7159812 128.6369641
  86.9859992   9.8789978 132.1630014  86.9479992   9.2329978 132.8680014
  86.6639992   9.4119978 131.3920014  86.9372679   9.7274276 132.1552921
  79.3539992   9.4929978 133.7560014  79.3959992   8.8679978 134.4790014
  80.0569992  10.1169978 133.9380014  79.4547345   9.4917873 133.8795274
  90.6919992  12.8179978 130.4650014  90.2509992  12.0979978 130.9150014
  90.6789992  13.5389978 131.0940014  90.6297960  12.8168329 130.6117567
  80.2779992  13.9429978 132.2910014  79.9079992  13.1409978 131.9210014
  81.2189992  13.7749978 132.3370014  80.3545984  13.8104638 132.2465603
  76.8879992   7.6029978 127.6840014  76.4399992   8.4489978 127.6650014
  76.3269992   7.0239978 127.1680014  76.7509603   7.6403674 127.6116720
  77.5979992   9.7649978 129.8100014  77.8119992   8.9949978 130.3370014
  78.3359992   9.8549978 129.2060014  77.7269652   9.6718012 129.8005212
  87.8039992  17.9219978 130.6770014  88.4229992  17.2459978 130.4030014
  87.5949992  17.7039978 131.5850014  87.8606232  17.7997938 130.7622517
  85.3749992  12.3109978 132.5690014  85.6789992  11.6249978 131.9750014
  86.0969992  12.4299978 133.1870014  85.5141152  12.2332189 132.5712123
  94.0379992   3.9129978 133.4300014  94.0879992   4.5229978 134.1660014
  94.4639992   4.3739978 132.7070014  94.1024108   4.0587709 133.4330112
  88.5159992   6.7049978 132.8970014  88.6589992   5.7589978 132.9170014
  88.4099992   6.9119978 131.9680014  88.5212509   6.6034813 132.7742231
  81.6709992   4.8069978 130.1690014  81.7139992   5.6669978 129.7510014
  81.2129992   4.2549978 129.5350014  81.6149815   4.8500621 130.0261197
  89.3929992   4.9379978 128.5700014  90.0399992   4.6089978 129.1950014
  89.9029992   5.4549978 127.9470014  89.5504317   4.9629227 128.5712167
  78.2909992   7.2039978 130.9310014  78.9449992   6.6539978 131.3630014
  78.3149992   6.9299978 130.0140014  78.3837199   7.0917167 130.8661668
  83.4479992   8.7539978 130.1460014  84.0639992   8.2269978 130.6560014
  82.8609992   8.1139978 129.7430014  83.4529239   8.5954117 130.1612952
  94.4299992   5.3909978 135.6660014  93.7409992   6.0489978 135.5700014
  94.4449992   5.1929978 136.6020014  94.3376740   5.4543242 135.7794630
  80.4809992   3.7249978 134.2430014  80.2619992   4.2549978 133.4770014
  79.8129992   3.9509978 134.8900014  80.3607001   3.8281154 134.2256064
  87.8499992  13.2249978 127.7870014  87.5549992  12.9019978 126.9360014
  87.5259992  14.1249978 127.8280014  87.7657983  13.3024026 127.6759771
  83.0499992  11.3999978 134.5310014  82.3099992  11.9989978 134.6340014
  83.7639992  11.9539978 134.2150014  83.0453288  11.5567356 134.5023805
  91.1569992   4.2289978 130.5500014  90.9419992   3.4629978 131.0830014
  91.8129992   4.7009978 131.0630014  91.2162673   4.1880728 130.6921990
  80.0749992   5.6169978 132.1950014  80.6889992   6.2499978 132.5690014
  80.5869992   5.1449978 131.5390014  80.2282277   5.6397352 132.1574279
  81.4579992  13.3649978 135.3180014  81.4519992  14.2439978 134.9400014
  80.6039992  13.2809978 135.7430014  81.3417925  13.4739535 135.3236887
  77.5789992  13.0359978 126.1000014  77.3069992  13.2649978 125.2110014
  77.6239992  13.8729978 126.5600014  77.5478709  13.1806058 126.0406107
  91.2039992  14.6569978 132.8120014  90.2619992  14.7159978 132.9740014
  91.4799992  15.5629978 132.6750014  91.1125865  14.7875288 132.8156192
  91.5039992   2.9439978 134.2300014  90.7679992   3.5539978 134.1920014
  92.1879992   3.3589978 133.7030014  91.4955506   3.0836400 134.1536051
  84.5079992   1.0299978 131.6960014  84.3899992   0.0819978 131.6410014
  83.6529992   1.3629978 131.9690014  84.3762679   0.9451926 131.7253720
  89.4559992  16.4379978 129.4380014  89.8809992  15.7309978 128.9530014
  89.7729992  17.2399978 129.0210014  89.5570266  16.4495190 129.3152479
  90.6159992  14.3389978 127.9460014  90.3579992  13.6489978 127.3350014
  90.6869992  13.8959978 128.7920014  90.5902837  14.1847106 127.9766912
  92.3019992  12.9059978 136.4240014  92.4409992  12.3139978 135.6840014
  92.4689992  13.7789978 136.0670014  92.3435562  12.9429896 136.2746283
  86.7739992   9.8679978 126.1960014  86.0629992  10.4029978 125.8440014
  87.4649992   9.9229978 125.5360014  86.7700751   9.9486777 126.0585858
  86.8279992   8.3249978 123.2350014  87.5289992   8.3479978 123.8860014
  87.1299992   7.6969978 122.5790014  86.9648282   8.2432339 123.2354496
  94.1429992   9.2459978 134.4900014  93.4909992   9.9399978 134.5790014
  94.6089992   9.4559978 133.6800014  94.1165937   9.3695019 134.3927533
  90.1799992  10.0769978 127.1480014  89.4479992  10.3059978 127.7210014
  90.6269992   9.3639978 127.6030014  90.1402753  10.0118972 127.2879715
  90.0769992   8.2519978 136.2160014  90.1569992   9.0149978 136.7870014
  89.4759992   8.5309978 135.5250014  90.0067245   8.3942630 136.2008424
  81.8249992  10.7079978 129.0300014  81.4949992  10.3369978 128.2120014
  82.4139992  10.0369978 129.3770014  81.8593970  10.5666063 128.9649404
  83.1919992  14.1359978 131.7120014  83.0969992  13.5569978 130.9550014
  83.9209992  13.7649978 132.2080014  83.2776161  14.0065891 131.6755209
  82.1919992   9.4759978 132.6640014  82.7569992   9.5979978 131.9010014
  82.5109992  10.1139978 133.3030014  82.3123977   9.5788851 132.6459424
  88.5009992  14.9799978 133.3980014  88.2609992  15.6419978 134.0460014
  88.3029992  14.1449978 133.8230014  88.4413826  14.9578115 133.5441566
  83.0719992  13.8759978 137.3810014  82.7609992  14.6579978 137.8360014
  82.4219992  13.7229978 136.6950014  82.9415538  13.9624087 137.3505898
  89.0509992   9.2399978 124.8330014  89.6299992   9.3899978 125.5800014
  89.4649992   9.7099978 124.1100014  89.1863122   9.3241277 124.8375042
  79.9919992  10.0739978 136.6100014  80.0619992  10.7249978 137.3080014
  79.1009992  10.1769978 136.2750014  79.8811802  10.1769757 136.6602249
  86.7769992  15.9759978 128.2680014  87.2509992  16.2719978 129.0460014
  86.2139992  16.7149978 128.0350014  86.7657361  16.1162721 128.3428611
  81.3109992  15.9469978 138.1440014  81.3189992  15.8109978 137.1970014
  80.3949992  15.8299978 138.3960014  81.1882528  15.9125463 138.0483243
  92.7499992   0.9899978 124.6460014  91.8499992   1.1289978 124.9410014
  93.0019992   1.8209978 124.2440014  92.6608683   1.1214055 124.6320232
  80.8159992   9.7769978 126.6200014  80.5239992  10.5449978 126.1290014
  80.1409992   9.1179978 126.4570014  80.6848497   9.7929745 126.5308260
  93.9389992  15.3559978 123.0220014  94.0119992  16.2949978 123.1930014
  94.8439992  15.0509978 122.9660014  94.0714158  15.4433061 123.0378392
  76.9089992  12.1399978 135.4350014  76.4069992  12.1119978 134.6200014
  76.9139992  11.2349978 135.7440014  76.8410416  12.0137368 135.3653766
  76.6589992  14.9209978 132.3190014  77.6049992  14.7759978 132.3000014
  76.5459992  15.7049978 132.8560014  76.7733578  15.0071697 132.3890317
  94.8569992  15.5869978 138.0010014  94.8069992  14.6309978 137.9640014
  94.0299992  15.8539978 138.4020014  94.7383987  15.4925174 138.0501446
  85.8349992  15.1609978 136.8770014  85.9229992  15.9869978 137.3520014
  84.9719992  14.8309978 137.1260014  85.7303357  15.2295468 136.9757653
  86.2499992  18.9329978 126.6830014  86.1739992  18.8119978 125.7370014
  86.2819992  19.8819978 126.8020014  86.2439156  19.0447530 126.5695048
  79.9029992  17.7219978 128.4640014  80.0549992  17.3739978 129.3430014
  79.0519992  17.3649978 128.2090014  79.8087899  17.6261738 128.5497340
  89.3509992  18.0869978 123.6850014  89.7259992  17.3429978 123.2150014
  89.3559992  17.8169978 124.6040014  89.4030024  17.9486950 123.7447987
  89.0199992  18.0129978 126.4350014  88.0849992  18.1129978 126.6130014
  89.2999992  17.3029978 127.0130014  88.9298173  17.9307239 126.5374998
  92.0089992   7.0799978 138.4810014  91.6009992   7.5599978 137.7610014
  92.0489992   6.1739978 138.1730014  91.9585476   7.0233160 138.3408247
  79.1579992  13.4639978 136.4780014  79.3739992  13.1019978 137.3370014
  78.3019992  13.0889978 136.2680014  79.0719354  13.3637906 136.5672160
  81.7759992   1.9339978 132.4730014  80.9149992   1.8469978 132.0660014
  81.7539992   2.7899978 132.9010014  81.6550411   2.0377884 132.4750857
  86.4389992   1.6559978 135.8480014  86.8589992   1.2409978 136.6010014
  85.5059992   1.4769978 135.9650014  86.3703736   1.5749910 135.9668968
  89.7659992   5.4109978 136.7010014  89.2519992   5.2859978 137.4990014
  89.6099992   6.3239978 136.4570014  89.6746967   5.5172123 136.7770937
  90.5279992  10.2719978 122.4630014  90.5699992  10.0499978 121.5330014
  91.3769992  10.6709978 122.6530014  90.6485253  10.2955498 122.3613822
  86.1009992   4.1479978 123.1330014  85.8469992   4.1669978 124.0560014
  85.8439992   3.2769978 122.8320014  86.0315133   4.0328110 123.2185082
  81.8669992   6.8989978 133.5680014  81.2259992   6.8589978 134.2770014
  81.9049992   7.8259978 133.3310014  81.7843670   7.0187795 133.6330550
  81.8639992   7.1199978 128.4800014  80.9719992   6.7799978 128.4220014
  82.3149992   6.7429978 127.7250014  81.8026815   7.0223762 128.3699203
  87.3999992   7.5359978 127.2970014  86.9909992   8.3509978 127.0060014
  88.1199992   7.3959978 126.6830014  87.4414013   7.6286571 127.1740875
  86.5019992   7.7119978 138.7850014  85.9389992   7.0069978 139.1060014
  87.3279992   7.5909978 139.2530014  86.5366674   7.5992165 138.8921751
  88.4049992   6.9819978 130.1110014  88.2089992   7.5879978 129.3960014
  88.5859992   6.1489978 129.6770014  88.4026584   6.9522513 129.9544212
  79.6169992   7.2199978 135.4350014  79.5789992   7.6199978 136.3040014
  79.1269992   6.4029978 135.5260014  79.5455621   7.1642510 135.5661377
  82.9829992   4.5939978 122.2340014  82.5519992   4.1489978 122.9640014
  82.2649992   4.9649978 121.7220014  82.8269363   4.5832968 122.2646211
  76.2259992   4.3359978 129.2860014  76.8559992   4.3069978 130.0050014
  76.6749992   3.9109978 128.5560014  76.3730692   4.2745316 129.2857771
  77.4999992   5.0819978 124.7100014  77.9739992   5.6729978 124.1250014
  76.7819992   5.6119978 125.0570014  77.4678640   5.2345511 124.6767969
  87.6689992   8.6199978 134.7830014  87.9919992   7.9889978 134.1400014
  87.2279992   8.0859978 135.4430014  87.6535789   8.4613522 134.7842232
  84.4459992   4.5479978 129.5670014  83.5349992   4.6049978 129.8550014
  84.9509992   4.4879978 130.3770014  84.3895387   4.5476870 129.7160646
  79.2739992   6.1769978 128.3930014  78.3849992   6.2759978 128.0530014
  79.5709992   5.3349978 128.0470014  79.1924177   6.0767687 128.2996940
  82.9269992   6.1769978 126.0500014  83.8589992   6.3059978 126.2280014
  82.7119992   6.8459978 125.4000014  83.0254472   6.2850806 125.9864891
  88.8509992   3.7829978 132.8310014  88.1739992   3.9139978 133.4950014
  88.3659992   3.6279978 132.0210014  88.6927265   3.7799659 132.8123397
  81.6009992   7.3709978 123.6170014  81.0589992   6.9919978 122.9250014
  82.4349992   7.5659978 123.1880014  81.6395159   7.3455076 123.4644419
  92.1389992  19.4539978 139.1080014  92.3379992  19.8779978 138.2730014
  92.7939992  19.7979978 139.7150014  92.2548501  19.5586091 139.0757097
  79.7369992  11.9279978 138.7160014  80.4689992  12.1829978 139.2770014
  78.9559992  12.1329978 139.2310014  79.7317684  11.9906468 138.8624782
  85.7659992   7.3349978 131.4540014  86.3299992   6.7889978 130.9070014
  85.6179992   6.8139978 132.2420014  85.8232575   7.1896552 131.4856987
  80.7679992   3.4719978 127.8720014  80.4509992   2.5689978 127.8370014
  81.5489992   3.4739978 127.3190014  80.8302307   3.3486951 127.7924314
  84.3919992   5.7239978 133.8680014  83.5569992   6.1779978 133.9780014
  84.9159992   5.9999978 134.6200014  84.3485070   5.8234666 133.9847152
  84.9369992  11.9369978 125.5520014  84.1919992  11.4289978 125.2300014
  84.8019992  11.9859978 126.4990014  84.8169047  11.8741596 125.6358845
  92.0869992  11.0699978 134.3390014  92.7279992  11.5259978 133.7950014
  91.2559992  11.1829978 133.8770014  92.0625171  11.1477502 134.2020237
  88.8339992   4.7509978 123.7520014  87.8959992   4.8619978 123.6000014
  89.1319992   5.6069978 124.0580014  88.7456402   4.8820621 123.7725571
  86.4559992  12.1209978 136.7890014  86.1099992  11.7389978 137.5960014
  86.2559992  13.0539978 136.8610014  86.3816523  12.1949095 136.9090735
  89.5529992   6.6179978 125.4120014  90.4449992   6.4799978 125.7310014
  89.6089992   7.4089978 124.8760014  89.6827107   6.7060526 125.3832091
  80.0609992  11.2319978 131.3220014  80.8059992  11.2289978 130.7210014
  80.1389992  10.4079978 131.8040014  80.1734158  11.1202916 131.3049153
  87.0619992  13.3949978 124.5780014  86.7669992  14.2219978 124.9590014
  86.3589992  12.7759978 124.7740014  86.9265471  13.4245227 124.6566698
  77.0689992   9.6919978 136.6370014  77.2919992   9.2739978 137.4690014
  76.4669992   9.0799978 136.2140014  77.0181260   9.5519933 136.6937320
  84.0859992   9.2089978 138.8500014  83.7899992   9.0439978 137.9550014
  85.0169992   8.9889978 138.8390014  84.1713982   9.1566578 138.7260045
  88.7059992  14.5829978 136.7400014  87.8059992  14.7659978 136.4720014
  88.7399992  14.8419978 137.6610014  88.5872909  14.6430815 136.8277852
  94.4379992   6.8269978 125.1070014  93.8829992   6.4309978 124.4350014
  94.5379992   7.7379978 124.8290014  94.3755888   6.8958990 124.9775206
  94.4009992  12.6279978 137.9440014  93.5499992  12.8659978 137.5770014
  94.9909992  12.6109978 137.1910014  94.3642408  12.6582966 137.7918879
  92.7329992  15.6129978 125.5720014  92.3599992  14.7879978 125.8810014
  93.0099992  15.4299978 124.6750014  92.7193871  15.4752441 125.4929677
  89.8929992  10.4209978 132.5930014  88.9649992  10.1899978 132.5660014
  90.3439992   9.6439978 132.2630014  89.8268165  10.2842774 132.5446790
  82.4359992  14.7499978 128.7260014  82.9639992  15.5229978 128.5260014
  81.5559992  14.9739978 128.4250014  82.3893176  14.8863161 128.6578409
  78.1909992   9.6119978 123.3140014  78.8069992  10.2389978 123.6930014
  77.3289992   9.9279978 123.5850014  78.1588195   9.7405798 123.4025386
  83.8639992  12.4129978 128.3030014  83.6229992  13.3379978 128.3440014
  83.1229992  11.9539978 128.6990014  83.7308390  12.4776403 128.3621404
  84.3779992  16.5619978 134.6180014  84.7409992  17.4159978 134.3840014
  84.9099992  16.2699978 135.3580014  84.4996090  16.6394058 134.6860219
  82.5469992  17.4339978 127.8480014  81.5969992  17.5399978 127.8990014
  82.8989992  18.2549978 128.1930014  82.4645480  17.5594438 127.9015999
  87.9219992  12.6609978 134.3180014  87.4969992  12.4329978 135.1450014
  88.5029992  11.9219978 134.1360014  87.9423930  12.5299843 134.4064731
  90.1249992  13.5899978 123.3920014  90.4789992  13.2099978 124.1970014
  89.1769992  13.4959978 123.4790014  90.0451820  13.5253092 123.5138714
  90.5809992  17.2129978 136.7880014  89.9789992  16.6569978 136.2920014
  90.8619992  17.8799978 136.1620014  90.5366829  17.2271613 136.6355443
  94.6289992  18.0689978 123.5930014  95.3729992  18.6549978 123.4530014
  93.9349992  18.6379978 123.9270014  94.6370201  18.2260603 123.6189772
  78.7029992   4.4459978 136.1950014  77.8109992   4.7839978 136.1280014
  78.6049992   3.5899978 136.6130014  78.5674965   4.3766499 136.2423044
  90.9909992  12.2619978 125.6190014  90.7139992  11.5339978 126.1750014
  91.9189992  12.3809978 125.8240014  91.0784499  12.1784213 125.7228044
  78.3549992  16.2499978 134.6300014  78.5719992  15.3179978 134.5990014
  78.6009992  16.5249978 135.5130014  78.4179809  16.1595686 134.7451691
  84.2159992  14.7019978 121.8390014  84.4549992  13.9529978 121.2920014
  83.9469992  14.3139978 122.6720014  84.2123233  14.5471853 121.8767809
  83.1529992  14.2719978 124.2960014  83.2999992  13.7519978 125.0860014
  83.1499992  15.1789978 124.6020014  83.1727300  14.3233964 124.4455895
  79.6059992  11.5239978 124.8060014  78.9199992  11.8769978 125.3730014
  80.1289992  12.2869978 124.5600014  79.5829033  11.6753746 124.8502661
  87.4379992   4.1869978 135.0850014  88.1369992   4.2609978 135.7350014
  87.0569992   3.3219978 135.2390014  87.4822097   4.0802389 135.1947997
  88.2219992   3.8389978 126.1820014  88.4419992   4.3099978 125.3790014
  88.7809992   4.2329978 126.8520014  88.3276730   3.9567432 126.1625906
  85.8909992  15.9689978 125.0450014  85.0739992  16.4659978 125.0970014
  86.4199992  16.4449978 124.4050014  85.8508508  16.1012543 124.9656035
  85.4219992   5.5669978 127.0170014  86.2339992   6.0709978 127.0630014
  85.1779992   5.4219978 127.9310014  85.5001467   5.6163749 127.1468575
  85.9579992   6.5529978 136.2020014  86.0769992   7.1269978 136.9590014
  86.6129992   5.8649978 136.3160014  86.0629146   6.5385574 136.3211314
  86.3059992   2.6479978 127.9550014  85.9589992   3.2649978 128.6000014
  86.9649992   3.1489978 127.4740014  86.3475949   2.8001099 127.9782271
  83.2289992  17.0129978 125.0270014  83.3899992  17.8129978 124.5260014
  83.0319992  17.3199978 125.9120014  83.2243919  17.1639129 125.0781006
  81.9639992   3.7109978 124.6420014  81.8799992   4.5989978 124.9890014
  82.8539992   3.4459978 124.8740014  82.0728163   3.7967179 124.7208596
  92.1619992   4.4599978 137.0370014  91.2459992   4.7219978 136.9490014
  92.4979992   4.4569978 136.1400014  92.0819789   4.4954626 136.9037847
  90.7649992   8.2099978 131.1320014  89.9669992   7.7949978 130.8040014
  91.2099992   7.5199978 131.6230014  90.7159684   8.0598628 131.1535227
  80.2219992  14.1379978 123.7030014  80.8139992  14.8379978 123.9790014
  80.6809992  13.7049978 122.9830014  80.3650791  14.1752908 123.6434607
  78.5379992   6.8029978 122.8190014  78.4929992   7.7419978 122.9970014
  77.6499992   6.5669978 122.5490014  78.4118555   6.8996874 122.8068939
  91.8509992  17.4659978 132.7550014  91.6949992  18.1449978 132.0980014
  92.7839992  17.5379978 132.9580014  91.9557387  17.5686390 132.6925342
  79.3459992   1.5839978 131.4920014  79.1169992   1.6429978 130.5640014
  78.9039992   0.7929978 131.7980014  79.2548801   1.4850540 131.4064729
  78.2769992  15.5249978 127.6520014  77.4439992  15.9969978 127.6800014
  78.8219992  16.0349978 127.0540014  78.2367590  15.6585897 127.5749194
  77.5649992  18.1369978 138.9820014  78.1049992  17.9209978 139.7420014
  77.0839992  17.3319978 138.7930014  77.5738613  17.9985400 139.0604782
  82.1619992  17.0569978 140.6030014  82.9299992  16.5979978 140.9440014
  82.1409992  16.8309978 139.6730014  82.2642135  16.9636668 140.5239491
  86.2539992  16.5649978 121.9780014  85.6099992  15.9339978 122.2990014
  87.0159992  16.0339978 121.7460014  86.2688058  16.4067902 121.9906038
  88.7389992  15.4369978 139.3320014  88.3879992  14.5799978 139.5750014
  89.4649992  15.5789978 139.9390014  88.7891590  15.3390178 139.4472907
  90.8589992  16.3819978 122.2120014  91.1419992  15.5869978 122.6640014
  91.5979992  16.6149978 121.6510014  90.9976956  16.3047031 122.1979822
  77.4719992  11.9479978 139.9370014  77.6159992  11.0459978 139.6500014
  76.6999992  12.2339978 139.4490014  77.3873303  11.8633243 139.8317908
  81.8129992  12.2909978 122.0690014  81.8779992  11.4969978 122.6000014
  82.4659992  12.1729978 121.3790014  81.9101754  12.1663337 122.0484259
  84.1269992  11.9169978 139.3690014  83.7989992  12.1879978 138.5120014
  84.2789992  10.9759978 139.2820014  84.1026030  11.8268973 139.2397945
  87.1659992  13.3379978 121.8050014  86.8969992  13.5189978 122.7060014
  86.9589992  12.4129978 121.6740014  87.1012000  13.2376774 121.9105693
  89.8619992  11.8329978 136.7530014  90.6069992  12.4219978 136.6330014
  89.1049992  12.4149978 136.8160014  89.8615205  11.9921997 136.7451119
  78.3049992   9.1479978 139.3570014  78.7129992   8.2909978 139.2360014
  78.0439992   9.1619978 140.2780014  78.3256016   9.0325119 139.4649192
  82.9629992  10.2639978 124.3750014  82.5029992   9.7799978 125.0610014
  83.2179992   9.5949978 123.7390014  82.9345038  10.1073689 124.3829447
  82.2519992   8.1569978 136.7310014  81.6329992   8.8309978 137.0110014
  82.5959992   8.4779978 135.8980014  82.2137605   8.2927198 136.6566707
  84.0339992   8.5069978 122.6370014  83.8529992   8.3519978 121.7100014
  84.9839992   8.6149978 122.6820014  84.1376566   8.5003669 122.5160929
  87.2709992  10.6279978 140.0080014  88.2249992  10.7119978 139.9810014
  87.1109992   9.9159978 140.6280014  87.3797182  10.5432842 140.0880733
  93.4239992  10.8609978 122.0830014  93.1499992  10.4369978 121.2700014
  93.4629992  11.7929978 121.8660014  93.3917716  10.9288827 121.9424286
  82.5909992   5.5119978 137.8130014  82.7409992   4.7829978 137.2110014
  82.5929992   6.2889978 137.2540014  82.6117967   5.5172708 137.6550541
  83.0039992   3.8809978 135.3060014  83.5389992   4.3329978 134.6540014
  82.1509992   3.7729978 134.8830014  82.9620374   3.9282665 135.1596710
  84.5849992   9.3209978 135.5450014  85.3359992   9.1649978 134.9720014
  84.2459992  10.1729978 135.2700014  84.6419587   9.4148138 135.4294078
  89.0009992   7.1359978 140.5740014  89.1929992   6.2049978 140.4620014
  89.8589992   7.5609978 140.5640014  89.1432269   7.0659928 140.5573192
  90.3179992   9.9249978 138.6510014  90.0359992  10.6339978 138.0740014
  91.2599992   9.8519978 138.5000014  90.4067656  10.0123128 138.5514809
  81.0699992   6.7099978 139.7250014  80.3019992   6.1769978 139.5150014
  81.7479992   6.3999978 139.1250014  81.0566973   6.5952375 139.6151796
  83.8089992   1.3379978 135.7370014  83.7109992   2.2839978 135.6320014
  83.0669992   0.9649978 135.2620014  83.6951913   1.4171813 135.6583539
  85.0729992   5.6589978 139.3010014  84.8379992   5.4399978 140.2030014
  84.2899992   5.4519978 138.7910014  84.9349219   5.6010066 139.3555852
  87.7889992   4.7869978 138.3770014  86.8409992   4.8189978 138.5090014
  88.1009992   4.1609978 139.0300014  87.7015190   4.7067262 138.4833564
  89.4229992   3.4209978 140.3820014  89.3259992   2.4689978 140.3760014
  89.1009992   3.6889978 141.2420014  89.3661761   3.3269744 140.4974936
  79.2499992   4.6299978 139.4290014  79.4619992   3.9239978 138.8190014
  79.1389992   4.1929978 140.2730014  79.2640269   4.4741921 139.4595873
  84.0309992   0.6319978 138.4090014  84.7429992  -0.0080022 138.3950014
  83.9299992   0.8979978 137.4950014  84.1147261   0.5804190 138.2835537
  84.3849992   2.3139978 140.4620014  84.2529992   1.8389978 139.6420014
  83.7849992   3.0589978 140.4070014  84.2859070   2.3495789 140.3423251
  83.9309992  19.1969978 123.6390014  84.8639992  19.3549978 123.7820014
  83.6669992  19.8729978 123.0140014  84.0229308  19.3099104 123.5741396
  77.4989992  13.8339978 123.1210014  78.4129992  13.9129978 123.3950014
  77.5069992  13.1469978 122.4550014  77.6251143  13.7519085 123.0684274
  76.1479992  19.2269978 128.1990014  75.5009992  18.7649978 127.6660014
  76.5029992  18.5549978 128.7810014  76.1074506  19.0729503 128.2047341
  77.0179992  17.3069978 130.0030014  76.6839992  16.4269978 130.1750014
  77.2409992  17.6529978 130.8680014  77.0023721  17.2331938 130.1434168
  94.5669992  18.1169978 132.9840014  94.5449992  18.3019978 133.9230014
  95.2569992  18.6849978 132.6430014  94.6573439  18.2191887 133.0664791
  94.1299992  17.6839978 135.9060014  93.6429992  16.9489978 135.5350014
  94.6789992  17.2899978 136.5840014  94.1375247  17.5301057 135.9468461
  92.5809992  13.4739978 140.5440014  91.7149992  13.3689978 140.9380014
  92.9569992  14.2319978 140.9900014  92.5133401  13.5621708 140.6582620
  93.8819992  11.7299978 126.0580014  94.7319992  12.1509978 126.1850014
  93.8869992  10.9899978 126.6650014  93.9991143  11.6876094 126.1574750
  94.2759992   9.7839978 127.8820014  93.5499992   9.3039978 128.2790014
  94.8579992   9.9889978 128.6140014  94.2551635   9.7459166 128.0353748
  94.0349992  12.5689978 132.8290014  94.8689992  12.1909978 132.5490014
  94.1469992  13.5119978 132.7100014  94.1642522  12.6447742 132.7746020
  92.5219992  15.4469978 135.1360014  91.8739992  15.7719978 135.7620014
  92.0039992  15.0059978 134.4620014  92.3634168  15.4318523 135.1305307
  94.5449992   9.6849978 124.2730014  94.0229992  10.0409978 123.5540014
  94.5119992  10.3599978 124.9510014  94.4690699   9.8249848 124.2662129
  92.8939992   6.9239978 122.8240014  92.9899992   7.5909978 122.1440014
  92.7539992   6.1089978 122.3420014  92.8882063   6.9050667 122.6658377
  92.0629992   8.3049978 128.4450014  91.9129992   7.3599978 128.4240014
  91.7089992   8.5859978 129.2880014  91.9945527   8.2135605 128.5561859
  77.0979992  10.3829978 132.4550014  77.2829992  10.3009978 131.5190014
  77.9479992  10.2589978 132.8790014  77.2380916  10.3550393 132.3842896
  92.9189992  10.2749978 138.0830014  93.5019992   9.5399978 138.2750014
  93.4829992  11.0469978 138.1300014  93.0749781  10.2788145 138.1156164
  94.4159992   8.1779978 138.7680014  93.5529992   7.7989978 138.6020014
  95.0199992   7.4389978 138.6940014  94.3795944   8.0262978 138.7352984
  92.1409992   4.3319978 121.9410014  92.7519992   3.9609978 122.5780014
  91.3039992   3.9109978 122.1370014  92.1114947   4.2242756 122.0547252
  91.7739992   5.8869978 126.9070014  92.0529992   4.9799978 127.0310014
  92.5329992   6.3209978 126.5180014  91.9148619   5.8214502 126.8713795
  92.3849992   6.4689978 132.3430014  93.3179992   6.6809978 132.3090014
  92.1499992   6.5699978 133.2650014  92.4808308   6.5116503 132.4630214
  92.4149992   7.2059978 135.1190014  91.5719992   7.4739978 135.4850014
  92.8569992   8.0279978 134.9080014  92.3594138   7.3538273 135.1405518
  76.6959992   5.6529978 138.5960014  77.6149992   5.5309978 138.8320014
  76.2459992   4.9029978 138.9850014  76.7611148   5.5348751 138.6809408
  94.6979992   1.1859978 140.4720014  95.0469992   0.5319978 139.8670014
  94.8449992   2.0229978 140.0330014  94.7657355   1.2096067 140.3296564
  92.3869992   3.1499978 126.9550014  92.5689992   2.7009978 127.7810014
  91.7869992   2.5659978 126.4920014  92.3307529   3.0096131 127.0053619
  77.9169992   3.9659978 131.4870014  78.3619992   3.1739978 131.7890014
  78.3829992   4.6819978 131.9180014  78.0409059   3.9544474 131.5866079
  76.2209992   6.9649978 132.5560014  76.7129992   6.7439978 131.7650014
  76.5829992   7.8049978 132.8370014  76.3372923   7.0483468 132.4857407
  94.2169992   3.2949978 138.8220014  93.2999992   3.5659978 138.7860014
  94.3399992   2.7599978 138.0380014  94.1080828   3.2597700 138.7110785
  94.2539992   3.2179978 123.4830014  94.6659992   2.4969978 123.0080014
  94.9349992   3.8869978 123.5420014  94.4025900   3.2097306 123.4259038
  76.5349992   3.2229978 126.6100014  75.6099992   3.4309978 126.4810014
  76.9889992   3.7069978 125.9210014  76.4696374   3.3169949 126.4990957
  91.3049992  18.2069978 128.5560014  91.9579992  17.8589978 127.9480014
  91.8159992  18.6949978 129.2020014  91.4632777  18.2253815 128.5602047
  76.4979992   1.9609978 134.9550014  75.8329992   1.7149978 135.5980014
  76.0549992   2.5829978 134.3770014  76.3470937   2.0113614 134.9649379
  78.6899992  15.1359978 139.0990014  77.8689992  15.3109978 138.6390014
  78.4379992  15.0629978 140.0200014  78.5436173  15.1500794 139.1604972
  81.6439992  16.1099978 135.3580014  81.2199992  16.9199978 135.0750014
  82.5489992  16.1959978 135.0560014  81.7082433  16.2323331 135.2785377
  85.9559992  17.5089978 138.3170014  86.1399992  17.1759978 139.1950014
  86.8019992  17.8189978 137.9950014  86.0956484  17.5052979 138.3937617
  88.3009992  18.7949978 137.5610014  88.9779992  18.1619978 137.3210014
  88.6219992  19.1959978 138.3680014  88.4371323  18.7625691 137.6373158
  93.2179992   1.3849978 136.6410014  92.4049992   1.7099978 136.2530014
  93.4509992   0.6239978 136.1080014  93.1382566   1.3266559 136.5159213
  79.0459992  19.3669978 135.4050014  78.3259992  19.8069978 134.9540014
  78.6809992  19.1159978 136.2540014  78.8979796  19.3933824 135.4579329
  81.5129992  18.9669978 134.4350014  80.6489992  19.0389978 134.8390014
  81.4579992  19.5139978 133.6510014  81.3871942  19.0507849 134.3844000
  86.2239992  18.8549978 133.6100014  85.7669992  19.3839978 132.9560014
  86.3869992  19.4579978 134.3360014  86.1834476  19.0089140 133.6185499
  88.5519992  17.7329978 134.5550014  87.6469992  17.8979978 134.2900014
  88.9799992  18.5859978 134.4900014  88.4860700  17.8709529 134.5099520
  91.1559992  19.3029978 134.8500014  90.9739992  20.2189978 134.6400014
  91.3329992  18.8919978 134.0040014  91.1549907  19.3729741 134.7067883
  78.4609992  17.9899978 132.3150014  78.4429992  17.5639978 133.1730014
  79.2659992  17.6709978 131.9070014  78.5673221  17.8887233 132.3770225
  80.6019992  16.6999978 130.9700014  80.3829992  15.7829978 131.1400014
  81.4259992  16.8399978 131.4360014  80.6834702  16.5935511 131.0562527
  83.1389992  17.1699978 131.8190014  83.3519992  16.2819978 131.5320014
  83.2039992  17.1349978 132.7740014  83.1769075  17.0438307 131.9087373
  86.6479992   2.8339978 130.9630014  85.9739992   2.2039978 131.2190014
  87.2119992   2.3499978 130.3600014  86.6320384   2.6823708 130.9165020
  91.7909992   0.9409978 131.0760014  92.3939992   1.4889978 130.5740014
  90.9209992   1.2599978 130.8360014  91.7559190   1.0591041 130.9748679
  93.5179992   2.0799978 129.4090014  94.1289992   1.5659978 128.8830014
  93.8999992   2.9569978 129.4330014  93.6534475   2.1281323 129.3401208
  78.9749992   1.4679978 128.7850014  78.1979992   1.2329978 128.2780014
  79.5049992   0.6709978 128.7940014  78.9403451   1.3281268 128.7168627
  77.8109992   1.2659978 124.5890014  78.2499992   1.8769978 123.9970014
  77.1769992   1.8039978 125.0630014  77.7853859   1.4224064 124.5720305
  83.5539992   1.3939978 128.5990014  84.4279992   1.7829978 128.5690014
  83.4179992   1.1789978 129.5210014  83.6553207   1.4181923 128.7196509
  89.1109992   1.4239978 130.2480014  89.1869992   1.5199978 129.2990014
  88.8359992   0.5169978 130.3770014  89.0842042   1.3144241 130.1353811
  90.4639992   1.4499978 125.9400014  89.7609992   2.0649978 125.7310014
  90.0189992   0.6129978 126.0720014  90.3076292   1.4210085 125.9292439
  77.7119992  17.2139978 125.4870014  77.0269992  17.1759978 124.8190014
  77.7159992  18.1269978 125.7750014  77.6188174  17.3321998 125.4345310
  79.6719992   3.1819978 123.0310014  80.1629992   2.5519978 122.5040014
  80.2949992   3.4779978 123.6950014  79.8235062   3.1356770 123.0485438
  84.6979992   3.4749978 125.4890014  84.8759992   2.8279978 126.1710014
  84.6439992   4.3089978 125.9560014  84.7151025   3.4990504 125.6456433
  86.5759992  18.4229978 123.8840014  87.4419992  18.7899978 123.7060014
  86.3299992  17.9839978 123.0700014  86.6612097  18.4138525 123.7496019
  93.2849992  17.9859978 126.5630014  93.0909992  17.2379978 125.9980014
  93.2459992  18.7439978 125.9800014  93.2531645  17.9860786 126.4068148
  78.9319992   1.9819978 138.3030014  78.5659992   1.2159978 138.7460014
  79.8449992   2.0109978 138.5900014  79.0053225   1.8811906 138.4023459
  80.9049992   1.3319978 139.8390014  81.8039992   1.0579978 139.6540014
  80.5189992   0.5899978 140.3030014  80.9757237   1.1941508 139.8764710
  79.5299992  18.1339978 122.5120014  79.2619992  18.4199978 123.3850014
  80.3009992  17.5879978 122.6640014  79.5975600  18.0993330 122.6521499
  89.3269992   0.6649978 140.0210014  89.4029992   0.2389978 140.8750014
  90.2199992   0.6779978 139.6780014  89.4582267   0.6083952 140.0915932
  92.5029992  16.7379978 138.7130014  91.7209992  16.5509978 138.1940014
  92.4309992  17.6669978 138.9310014  92.3860863  16.8380221 138.6713574
 106.9089992  10.6239978 128.7440014 106.9979992  11.5679978 128.6120014
 106.2709992  10.3489978 128.0860014 106.8349062  10.7159812 128.6369641
 105.8419992   9.8789978 132.1630014 105.8039992   9.2329978 132.8680014
 105.5199992   9.4119978 131.3920014 105.7932679   9.7274276 132.1552921
  98.2099992   9.4929978 133.7560014  98.2519992   8.8679978 134.4790014
  98.9129992  10.1169978 133.9380014  98.3107345   9.4917873 133.8795274
 109.5479992  12.8179978 130.4650014 109.1069992  12.0979978 130.9150014
 109.5349992  13.5389978 131.0940014 109.4857960  12.8168329 130.6117567
  99.1339992  13.9429978 132.2910014  98.7639992  13.1409978 131.9210014
 100.0749992  13.7749978 132.3370014  99.2105984  13.8104638 132.2465603
  95.7439992   7.6029978 127.6840014  95.2959992   8.4489978 127.6650014
  95.1829992   7.0239978 127.1680014  95.6069603   7.6403674 127.6116720
  96.4539992   9.7649978 129.8100014  96.6679992   8.9949978 130.3370014
  97.1919992   9.8549978 129.2060014  96.5829652   9.6718012 129.8005212
 106.6599992  17.9219978 130.6770014 107.2789992  17.2459978 130.4030014
 106.4509992  17.7039978 131.5850014 106.7166232  17.7997938 130.7622517
 104.2309992  12.3109978 132.5690014 104.5349992  11.6249978 131.9750014
 104.9529992  12.4299978 133.1870014 104.3701152  12.2332189 132.5712124
 112.8939992   3.9129978 133.4300014 112.9439992   4.5229978 134.1660014
 113.3199992   4.3739978 132.7070014 112.9584108   4.0587709 133.4330112
 107.3719992   6.7049978 132.8970014 107.5149992   5.7589978 132.9170014
 107.2659992   6.9119978 131.9680014 107.3772509   6.6034813 132.7742231
 100.5269992   4.8069978 130.1690014 100.5699992   5.6669978 129.7510014
 100.0689992   4.2549978 129.5350014 100.4709815   4.8500621 130.0261197
 108.2489992   4.9379978 128.5700014 108.8959992   4.6089978 129.1950014
 108.7589992   5.4549978 127.9470014 108.4064317   4.9629227 128.5712167
  97.1469992   7.2039978 130.9310014  97.8009992   6.6539978 131.3630014
  97.1709992   6.9299978 130.0140014  97.2397199   7.0917167 130.8661668
 102.3039992   8.7539978 130.1460014 102.9199992   8.2269978 130.6560014
 101.7169992   8.1139978 129.7430014 102.3089239   8.5954117 130.1612952
 113.2859992   5.3909978 135.6660014 112.5969992   6.0489978 135.5700014
 113.3009992   5.1929978 136.6020014 113.1936740   5.4543242 135.7794630
  99.3369992   3.7249978 134.2430014  99.1179992   4.2549978 133.4770014
  98.6689992   3.9509978 134.8900014  99.2167001   3.8281154 134.2256064
 106.7059992  13.2249978 127.7870014 106.4109992  12.9019978 126.9360014
 106.3819992  14.1249978 127.8280014 106.6217983  13.3024026 127.6759771
 101.9059992  11.3999978 134.5310014 101.1659992  11.9989978 134.6340014
 102.6199992  11.9539978 134.2150014 101.9013288  11.5567356 134.5023805
 110.0129992   4.2289978 130.5500014 109.7979992   3.4629978 131.0830014
 110.6689992   4.7009978 131.0630014 110.0722673   4.1880728 130.6921990
  98.9309992   5.6169978 132.1950014  99.5449992   6.2499978 132.5690014
  99.4429992   5.1449978 131.5390014  99.0842277   5.6397352 132.1574279
 100.3139992  13.3649978 135.3180014 100.3079992  14.2439978 134.9400014
  99.4599992  13.2809978 135.7430014 100.1977925  13.4739535 135.3236887
  96.4349992  13.0359978 126.1000014  96.1629992  13.2649978 125.2110014
  96.4799992  13.8729978 126.5600014  96.4038709  13.1806058 126.0406107
 110.0599992  14.6569978 132.8120014 109.1179992  14.7159978 132.9740014
 110.3359992  15.5629978 132.6750014 109.9685865  14.7875288 132.8156192
 110.3599992   2.9439978 134.2300014 109.6239992   3.5539978 134.1920014
 111.0439992   3.3589978 133.7030014 110.3515506   3.0836400 134.1536051
 103.3639992   1.0299978 131.6960014 103.2459992   0.0819978 131.6410014
 102.5089992   1.3629978 131.9690014 103.2322679   0.9451926 131.7253720
 108.3119992  16.4379978 129.4380014 108.7369992  15.7309978 128.9530014
 108.6289992  17.2399978 129.0210014 108.4130266  16.4495190 129.3152479
 109.4719992  14.3389978 127.9460014 109.2139992  13.6489978 127.3350014
 109.5429992  13.8959978 128.7920014 109.4462837  14.1847106 127.9766912
 111.1579992  12.9059978 136.4240014 111.2969992  12.3139978 135.6840014
 111.3249992  13.7789978 136.0670014 111.1995562  12.9429896 136.2746283
 105.6299992   9.8679978 126.1960014 104.9189992  10.4029978 125.8440014
 106.3209992   9.9229978 125.5360014 105.6260751   9.9486777 126.0585858
 105.6839992   8.3249978 123.2350014 106.3849992   8.3479978 123.8860014
 105.9859992   7.6969978 122.5790014 105.8208282   8.2432339 123.2354496
 112.9989992   9.2459978 134.4900014 112.3469992   9.9399978 134.5790014
 113.4649992   9.4559978 133.6800014 112.9725937   9.3695019 134.3927533
 109.0359992  10.0769978 127.1480014 108.3039992  10.3059978 127.7210014
 109.4829992   9.3639978 127.6030014 108.9962753  10.0118972 127.2879715
 108.9329992   8.2519978 136.2160014 109.0129992   9.0149978 136.7870014
 108.3319992   8.5309978 135.5250014 108.8627245   8.3942630 136.2008424
 100.6809992  10.7079978 129.0300014 100.3509992  10.3369978 128.2120014
 101.2699992  10.0369978 129.3770014 100.7153970  10.5666063 128.9649404
 102.0479992  14.1359978 131.7120014 101.9529992  13.5569978 130.9550014
 102.7769992  13.7649978 132.2080014 102.1336161  14.0065891 131.6755209
 101.0479992   9.4759978 132.6640014 101.6129992   9.5979978 131.9010014
 101.3669992  10.1139978 133.3030014 101.1683977   9.5788851 132.6459424
 107.3569992  14.9799978 133.3980014 107.1169992  15.6419978 134.0460014
 107.1589992  14.1449978 133.8230014 107.2973826  14.9578115 133.5441566
 101.9279992  13.8759978 137.3810014 101.6169992  14.6579978 137.8360014
 101.2779992  13.7229978 136.6950014 101.7975538  13.9624087 137.3505898
 107.9069992   9.2399978 124.8330014 108.4859992   9.3899978 125.5800014
 108.3209992   9.7099978 124.1100014 108.0423122   9.3241277 124.8375042
  98.8479992  10.0739978 136.6100014  98.9179992  10.7249978 137.3080014
  97.9569992  10.1769978 136.2750014  98.7371802  10.1769757 136.6602249
 105.6329992  15.9759978 128.2680014 106.1069992  16.2719978 129.0460014
 105.0699992  16.7149978 128.0350014 105.6217361  16.1162721 128.3428611
 100.1669992  15.9469978 138.1440014 100.1749992  15.8109978 137.1970014
  99.2509992  15.8299978 138.3960014 100.0442528  15.9125463 138.0483243
 111.6059992   0.9899978 124.6460014 110.7059992   1.1289978 124.9410014
 111.8579992   1.8209978 124.2440014 111.5168683   1.1214055 124.6320232
  99.6719992   9.7769978 126.6200014  99.3799992  10.5449978 126.1290014
  98.9969992   9.1179978 126.4570014  99.5408497   9.7929745 126.5308260
 112.7949992  15.3559978 123.0220014 112.8679992  16.2949978 123.1930014
 113.6999992  15.0509978 122.9660014 112.9274158  15.4433061 123.0378392
  95.7649992  12.1399978 135.4350014  95.2629992  12.1119978 134.6200014
  95.7699992  11.2349978 135.7440014  95.6970416  12.0137368 135.3653766
  95.5149992  14.9209978 132.3190014  96.4609992  14.7759978 132.3000014
  95.4019992  15.7049978 132.8560014  95.6293578  15.0071697 132.3890317
 113.7129992  15.5869978 138.0010014 113.6629992  14.6309978 137.9640014
 112.8859992  15.8539978 138.4020014 113.5943987  15.4925174 138.0501446
 104.6909992  15.1609978 136.8770014 104.7789992  15.9869978 137.3520014
 103.8279992  14.8309978 137.1260014 104.5863357  15.2295468 136.9757653
 105.1059992  18.9329978 126.6830014 105.0299992  18.8119978 125.7370014
 105.1379992  19.8819978 126.8020014 105.0999156  19.0447530 126.5695048
  98.7589992  17.7219978 128.4640014  98.9109992  17.3739978 129.3430014
  97.9079992  17.3649978 128.2090014  98.6647899  17.6261738 128.5497340
 108.2069992  18.0869978 123.6850014 108.5819992  17.3429978 123.2150014
 108.2119992  17.8169978 124.6040014 108.2590024  17.9486950 123.7447987
 107.8759992  18.0129978 126.4350014 106.9409992  18.1129978 126.6130014
 108.1559992  17.3029978 127.0130014 107.7858173  17.9307239 126.5374998
 110.8649992   7.0799978 138.4810014 110.4569992   7.5599978 137.7610014
 110.9049992   6.1739978 138.1730014 110.8145476   7.0233160 138.3408247
  98.0139992  13.4639978 136.4780014  98.2299992  13.1019978 137.3370014
  97.1579992  13.0889978 136.2680014  97.9279354  13.3637906 136.5672160
 100.6319992   1.9339978 132.4730014  99.7709992   1.8469978 132.0660014
 100.6099992   2.7899978 132.9010014 100.5110411   2.0377884 132.4750857
 105.2949992   1.6559978 135.8480014 105.7149992   1.2409978 136.6010014
 104.3619992   1.4769978 135.9650014 105.2263736   1.5749910 135.9668968
 108.6219992   5.4109978 136.7010014 108.1079992   5.2859978 137.4990014
 108.4659992   6.3239978 136.4570014 108.5306967   5.5172123 136.7770937
 109.3839992  10.2719978 122.4630014 109.4259992  10.0499978 121.5330014
 110.2329992  10.6709978 122.6530014 109.5045253  10.2955498 122.3613822
 104.9569992   4.1479978 123.1330014 104.7029992   4.1669978 124.0560014
 104.6999992   3.2769978 122.8320014 104.8875133   4.0328110 123.2185082
 100.7229992   6.8989978 133.5680014 100.0819992   6.8589978 134.2770014
 100.7609992   7.8259978 133.3310014 100.6403670   7.0187795 133.6330550
 100.7199992   7.1199978 128.4800014  99.8279992   6.7799978 128.4220014
 101.1709992   6.7429978 127.7250014 100.6586815   7.0223762 128.3699203
 106.2559992   7.5359978 127.2970014 105.8469992   8.3509978 127.0060014
 106.9759992   7.3959978 126.6830014 106.2974013   7.6286571 127.1740875
 105.3579992   7.7119978 138.7850014 104.7949992   7.0069978 139.1060014
 106.1839992   7.5909978 139.2530014 105.3926674   7.5992165 138.8921751
 107.2609992   6.9819978 130.1110014 107.0649992   7.5879978 129.3960014
 107.4419992   6.1489978 129.6770014 107.2586584   6.9522513 129.9544212
  98.4729992   7.2199978 135.4350014  98.4349992   7.6199978 136.3040014
  97.9829992   6.4029978 135.5260014  98.4015621   7.1642510 135.5661377
 101.8389992   4.5939978 122.2340014 101.4079992   4.1489978 122.9640014
 101.1209992   4.9649978 121.7220014 101.6829363   4.5832968 122.2646211
  95.0819992   4.3359978 129.2860014  95.7119992   4.3069978 130.0050014
  95.5309992   3.9109978 128.5560014  95.2290692   4.2745316 129.2857771
  96.3559992   5.0819978 124.7100014  96.8299992   5.6729978 124.1250014
  95.6379992   5.6119978 125.0570014  96.3238640   5.2345511 124.6767969
 106.5249992   8.6199978 134.7830014 106.8479992   7.9889978 134.1400014
 106.0839992   8.0859978 135.4430014 106.5095789   8.4613522 134.7842232
 103.3019992   4.5479978 129.5670014 102.3909992   4.6049978 129.8550014
 103.8069992   4.4879978 130.3770014 103.2455387   4.5476870 129.7160646
  98.1299992   6.1769978 128.3930014  97.2409992   6.2759978 128.0530014
  98.4269992   5.3349978 128.0470014  98.0484177   6.0767687 128.2996940
 101.7829992   6.1769978 126.0500014 102.7149992   6.3059978 126.2280014
 101.5679992   6.8459978 125.4000014 101.8814472   6.2850806 125.9864891
 107.7069992   3.7829978 132.8310014 107.0299992   3.9139978 133.4950014
 107.2219992   3.6279978 132.0210014 107.5487265   3.7799659 132.8123397
 100.4569992   7.3709978 123.6170014  99.9149992   6.9919978 122.9250014
 101.2909992   7.5659978 123.1880014 100.4955159   7.3455076 123.4644419
 110.9949992  19.4539978 139.1080014 111.1939992  19.8779978 138.2730014
 111.6499992  19.7979978 139.7150014 111.1108501  19.5586091 139.0757097
  98.5929992  11.9279978 138.7160014  99.3249992  12.1829978 139.2770014
  97.8119992  12.1329978 139.2310014  98.5877684  11.9906468 138.8624782
 104.6219992   7.3349978 131.4540014 105.1859992   6.7889978 130.9070014
 104.4739992   6.8139978 132.2420014 104.6792575   7.1896552 131.4856987
  99.6239992   3.4719978 127.8720014  99.3069992   2.5689978 127.8370014
 100.4049992   3.4739978 127.3190014  99.6862307   3.3486951 127.7924314
 103.2479992   5.7239978 133.8680014 102.4129992   6.1779978 133.9780014
 103.7719992   5.9999978 134.6200014 103.2045070   5.8234666 133.9847152
 103.7929992  11.9369978 125.5520014 103.0479992  11.4289978 125.2300014
 103.6579992  11.9859978 126.4990014 103.6729047  11.8741596 125.6358845
 110.9429992  11.0699978 134.3390014 111.5839992  11.5259978 133.7950014
 110.1119992  11.1829978 133.8770014 110.9185171  11.1477502 134.2020237
 107.6899992   4.7509978 123.7520014 106.7519992   4.8619978 123.6000014
 107.9879992   5.6069978 124.0580014 107.6016402   4.8820621 123.7725571
 105.3119992  12.1209978 136.7890014 104.9659992  11.7389978 137.5960014
 105.1119992  13.0539978 136.8610014 105.2376523  12.1949095 136.9090735
 108.4089992   6.6179978 125.4120014 109.3009992   6.4799978 125.7310014
 108.4649992   7.4089978 124.8760014 108.5387107   6.7060526 125.3832091
  98.9169992  11.2319978 131.3220014  99.6619992  11.2289978 130.7210014
  98.9949992  10.4079978 131.8040014  99.0294158  11.1202916 131.3049153
 105.9179992  13.3949978 124.5780014 105.6229992  14.2219978 124.9590014
 105.2149992  12.7759978 124.7740014 105.7825471  13.4245227 124.6566698
  95.9249992   9.6919978 136.6370014  96.1479992   9.2739978 137.4690014
  95.3229992   9.0799978 136.2140014  95.8741260   9.5519933 136.6937320
 102.9419992   9.2089978 138.8500014 102.6459992   9.0439978 137.9550014
 103.8729992   8.9889978 138.8390014 103.0273982   9.1566578 138.7260045
 107.5619992  14.5829978 136.7400014 106.6619992  14.7659978 136.4720014
 107.5959992  14.8419978 137.6610014 107.4432909  14.6430815 136.8277852
 113.2939992   6.8269978 125.1070014 112.7389992   6.4309978 124.4350014
 113.3939992   7.7379978 124.8290014 113.2315888   6.8958990 124.9775206
 113.2569992  12.6279978 137.9440014 112.4059992  12.8659978 137.5770014
 113.8469992  12.6109978 137.1910014 113.2202408  12.6582966 137.7918879
 111.5889992  15.6129978 125.5720014 111.2159992  14.7879978 125.8810014
 111.8659992  15.4299978 124.6750014 111.5753871  15.4752441 125.4929677
 108.7489992  10.4209978 132.5930014 107.8209992  10.1899978 132.5660014
 109.1999992   9.6439978 132.2630014 108.6828165  10.2842774 132.5446790
 101.2919992  14.7499978 128.7260014 101.8199992  15.5229978 128.5260014
 100.4119992  14.9739978 128.4250014 101.2453176  14.8863161 128.6578409
  97.0469992   9.6119978 123.3140014  97.6629992  10.2389978 123.6930014
  96.1849992   9.9279978 123.5850014  97.0148195   9.7405798 123.4025386
 102.7199992  12.4129978 128.3030014 102.4789992  13.3379978 128.3440014
 101.9789992  11.9539978 128.6990014 102.5868390  12.4776403 128.3621404
 103.2339992  16.5619978 134.6180014 103.5969992  17.4159978 134.3840014
 103.7659992  16.2699978 135.3580014 103.3556090  16.6394058 134.6860219
 101.4029992  17.4339978 127.8480014 100.4529992  17.5399978 127.8990014
 101.7549992  18.2549978 128.1930014 101.3205480  17.5594438 127.9015999
 106.7779992  12.6609978 134.3180014 106.3529992  12.4329978 135.1450014
 107.3589992  11.9219978 134.1360014 106.7983930  12.5299843 134.4064732
 108.9809992  13.5899978 123.3920014 109.3349992  13.2099978 124.1970014
 108.0329992  13.4959978 123.4790014 108.9011820  13.5253092 123.5138714
 109.4369992  17.2129978 136.7880014 108.8349992  16.6569978 136.2920014
 109.7179992  17.8799978 136.1620014 109.3926829  17.2271613 136.6355443
 113.4849992  18.0689978 123.5930014 114.2289992  18.6549978 123.4530014
 112.7909992  18.6379978 123.9270014 113.4930201  18.2260603 123.6189772
  97.5589992   4.4459978 136.1950014  96.6669992   4.7839978 136.1280014
  97.4609992   3.5899978 136.6130014  97.4234965   4.3766499 136.2423044
 109.8469992  12.2619978 125.6190014 109.5699992  11.5339978 126.1750014
 110.7749992  12.3809978 125.8240014 109.9344499  12.1784213 125.7228044
  97.2109992  16.2499978 134.6300014  97.4279992  15.3179978 134.5990014
  97.4569992  16.5249978 135.5130014  97.2739809  16.1595686 134.7451691
 103.0719992  14.7019978 121.8390014 103.3109992  13.9529978 121.2920014
 102.8029992  14.3139978 122.6720014 103.0683233  14.5471853 121.8767809
 102.0089992  14.2719978 124.2960014 102.1559992  13.7519978 125.0860014
 102.0059992  15.1789978 124.6020014 102.0287300  14.3233964 124.4455895
  98.4619992  11.5239978 124.8060014  97.7759992  11.8769978 125.3730014
  98.9849992  12.2869978 124.5600014  98.4389033  11.6753746 124.8502661
 106.2939992   4.1869978 135.0850014 106.9929992   4.2609978 135.7350014
 105.9129992   3.3219978 135.2390014 106.3382097   4.0802389 135.1947997
 107.0779992   3.8389978 126.1820014 107.2979992   4.3099978 125.3790014
 107.6369992   4.2329978 126.8520014 107.1836730   3.9567432 126.1625906
 104.7469992  15.9689978 125.0450014 103.9299992  16.4659978 125.0970014
 105.2759992  16.4449978 124.4050014 104.7068508  16.1012543 124.9656035
 104.2779992   5.5669978 127.0170014 105.0899992   6.0709978 127.0630014
 104.0339992   5.4219978 127.9310014 104.3561467   5.6163749 127.1468575
 104.8139992   6.5529978 136.2020014 104.9329992   7.1269978 136.9590014
 105.4689992   5.8649978 136.3160014 104.9189146   6.5385574 136.3211313
 105.1619992   2.6479978 127.9550014 104.8149992   3.2649978 128.6000014
 105.8209992   3.1489978 127.4740014 105.2035949   2.8001099 127.9782271
 102.0849992  17.0129978 125.0270014 102.2459992  17.8129978 124.5260014
 101.8879992  17.3199978 125.9120014 102.0803919  17.1639129 125.0781006
 100.8199992   3.7109978 124.6420014 100.7359992   4.5989978 124.9890014
 101.7099992   3.4459978 124.8740014 100.9288163   3.7967179 124.7208596
 111.0179992   4.4599978 137.0370014 110.1019992   4.7219978 136.9490014
 111.3539992   4.4569978 136.1400014 110.9379789   4.4954626 136.9037847
 109.6209992   8.2099978 131.1320014 108.8229992   7.7949978 130.8040014
 110.0659992   7.5199978 131.6230014 109.5719684   8.0598628 131.1535227
  99.0779992  14.1379978 123.7030014  99.6699992  14.8379978 123.9790014
  99.5369992  13.7049978 122.9830014  99.2210791  14.1752908 123.6434607
  97.3939992   6.8029978 122.8190014  97.3489992   7.7419978 122.9970014
  96.5059992   6.5669978 122.5490014  97.2678555   6.8996874 122.8068939
 110.7069992  17.4659978 132.7550014 110.5509992  18.1449978 132.0980014
 111.6399992  17.5379978 132.9580014 110.8117387  17.5686390 132.6925342
  98.2019992   1.5839978 131.4920014  97.9729992   1.6429978 130.5640014
  97.7599992   0.7929978 131.7980014  98.1108801   1.4850540 131.4064729
  97.1329992  15.5249978 127.6520014  96.2999992  15.9969978 127.6800014
  97.6779992  16.0349978 127.0540014  97.0927590  15.6585897 127.5749194
  96.4209992  18.1369978 138.9820014  96.9609992  17.9209978 139.7420014
  95.9399992  17.3319978 138.7930014  96.4298613  17.9985400 139.0604782
 101.0179992  17.0569978 140.6030014 101.7859992  16.5979978 140.9440014
 100.9969992  16.8309978 139.6730014 101.1202135  16.9636668 140.5239491
 105.1099992  16.5649978 121.9780014 104.4659992  15.9339978 122.2990014
 105.8719992  16.0339978 121.7460014 105.1248058  16.4067902 121.9906038
 107.5949992  15.4369978 139.3320014 107.2439992  14.5799978 139.5750014
 108.3209992  15.5789978 139.9390014 107.6451590  15.3390178 139.4472907
 109.7149992  16.3819978 122.2120014 109.9979992  15.5869978 122.6640014
 110.4539992  16.6149978 121.6510014 109.8536956  16.3047031 122.1979822
  96.3279992  11.9479978 139.9370014  96.4719992  11.0459978 139.6500014
  95.5559992  12.2339978 139.4490014  96.2433303  11.8633243 139.8317908
 100.6689992  12.2909978 122.0690014 100.7339992  11.4969978 122.6000014
 101.3219992  12.1729978 121.3790014 100.7661754  12.1663337 122.0484259
 102.9829992  11.9169978 139.3690014 102.6549992  12.1879978 138.5120014
 103.1349992  10.9759978 139.2820014 102.9586030  11.8268973 139.2397945
 106.0219992  13.3379978 121.8050014 105.7529992  13.5189978 122.7060014
 105.8149992  12.4129978 121.6740014 105.9572000  13.2376774 121.9105693
 108.7179992  11.8329978 136.7530014 109.4629992  12.4219978 136.6330014
 107.9609992  12.4149978 136.8160014 108.7175205  11.9921997 136.7451119
  97.1609992   9.1479978 139.3570014  97.5689992   8.2909978 139.2360014
  96.8999992   9.1619978 140.2780014  97.1816016   9.0325119 139.4649192
 101.8189992  10.2639978 124.3750014 101.3589992   9.7799978 125.0610014
 102.0739992   9.5949978 123.7390014 101.7905038  10.1073689 124.3829447
 101.1079992   8.1569978 136.7310014 100.4889992   8.8309978 137.0110014
 101.4519992   8.4779978 135.8980014 101.0697605   8.2927198 136.6566707
 102.8899992   8.5069978 122.6370014 102.7089992   8.3519978 121.7100014
 103.8399992   8.6149978 122.6820014 102.9936566   8.5003669 122.5160929
 106.1269992  10.6279978 140.0080014 107.0809992  10.7119978 139.9810014
 105.9669992   9.9159978 140.6280014 106.2357182  10.5432842 140.0880733
 112.2799992  10.8609978 122.0830014 112.0059992  10.4369978 121.2700014
 112.3189992  11.7929978 121.8660014 112.2477716  10.9288827 121.9424286
 101.4469992   5.5119978 137.8130014 101.5969992   4.7829978 137.2110014
 101.4489992   6.2889978 137.2540014 101.4677967   5.5172708 137.6550541
 101.8599992   3.8809978 135.3060014 102.3949992   4.3329978 134.6540014
 101.0069992   3.7729978 134.8830014 101.8180374   3.9282665 135.1596710
 103.4409992   9.3209978 135.5450014 104.1919992   9.1649978 134.9720014
 103.1019992  10.1729978 135.2700014 103.4979587   9.4148138 135.4294078
 107.8569992   7.1359978 140.5740014 108.0489992   6.2049978 140.4620014
 108.7149992   7.5609978 140.5640014 107.9992269   7.0659928 140.5573192
 109.1739992   9.9249978 138.6510014 108.8919992  10.6339978 138.0740014
 110.1159992   9.8519978 138.5000014 109.2627656  10.0123128 138.5514809
  99.9259992   6.7099978 139.7250014  99.1579992   6.1769978 139.5150014
 100.6039992   6.3999978 139.1250014  99.9126973   6.5952375 139.6151796
 102.6649992   1.3379978 135.7370014 102.5669992   2.2839978 135.6320014
 101.9229992   0.9649978 135.2620014 102.5511913   1.4171813 135.6583539
 103.9289992   5.6589978 139.3010014 103.6939992   5.4399978 140.2030014
 103.1459992   5.4519978 138.7910014 103.7909219   5.6010066 139.3555852
 106.6449992   4.7869978 138.3770014 105.6969992   4.8189978 138.5090014
 106.9569992   4.1609978 139.0300014 106.5575190   4.7067262 138.4833563
 108.2789992   3.4209978 140.3820014 108.1819992   2.4689978 140.3760014
 107.9569992   3.6889978 141.2420014 108.2221761   3.3269744 140.4974936
  98.1059992   4.6299978 139.4290014  98.3179992   3.9239978 138.8190014
  97.9949992   4.1929978 140.2730014  98.1200269   4.4741921 139.4595873
 102.8869992   0.6319978 138.4090014 103.5989992  -0.0080022 138.3950014
 102.7859992   0.8979978 137.4950014 102.9707261   0.5804190 138.2835537
 103.2409992   2.3139978 140.4620014 103.1089992   1.8389978 139.6420014
 102.6409992   3.0589978 140.4070014 103.1419070   2.3495789 140.3423251
 102.7869992  19.1969978 123.6390014 103.7199992  19.3549978 123.7820014
 102.5229992  19.8729978 123.0140014 102.8789308  19.3099104 123.5741396
  96.3549992  13.8339978 123.1210014  97.2689992  13.9129978 123.3950014
  96.3629992  13.1469978 122.4550014  96.4811143  13.7519085 123.0684274
  95.0039992  19.2269978 128.1990014  94.3569992  18.7649978 127.6660014
  95.3589992  18.5549978 128.7810014  94.9634506  19.0729503 128.2047341
  95.8739992  17.3069978 130.0030014  95.5399992  16.4269978 130.1750014
  96.0969992  17.6529978 130.8680014  95.8583721  17.2331938 130.1434168
 113.4229992  18.1169978 132.9840014 113.4009992  18.3019978 133.9230014
 114.1129992  18.6849978 132.6430014 113.5133439  18.2191887 133.0664791
 112.9859992  17.6839978 135.9060014 112.4989992  16.9489978 135.5350014
 113.5349992  17.2899978 136.5840014 112.9935247  17.5301057 135.9468461
 111.4369992  13.4739978 140.5440014 110.5709992  13.3689978 140.9380014
 111.8129992  14.2319978 140.9900014 111.3693401  13.5621708 140.6582620
 112.7379992  11.7299978 126.0580014 113.5879992  12.1509978 126.1850014
 112.7429992  10.9899978 126.6650014 112.8551143  11.6876094 126.1574750
 113.1319992   9.7839978 127.8820014 112.4059992   9.3039978 128.2790014
 113.7139992   9.9889978 128.6140014 113.1111635   9.7459166 128.0353748
 112.8909992  12.5689978 132.8290014 113.7249992  12.1909978 132.5490014
 113.0029992  13.5119978 132.7100014 113.0202522  12.6447742 132.7746020
 111.3779992  15.4469978 135.1360014 110.7299992  15.7719978 135.7620014
 110.8599992  15.0059978 134.4620014 111.2194168  15.4318523 135.1305307
 113.4009992   9.6849978 124.2730014 112.8789992  10.0409978 123.5540014
 113.3679992  10.3599978 124.9510014 113.3250699   9.8249848 124.2662129
 111.7499992   6.9239978 122.8240014 111.8459992   7.5909978 122.1440014
 111.6099992   6.1089978 122.3420014 111.7442063   6.9050667 122.6658377
 110.9189992   8.3049978 128.4450014 110.7689992   7.3599978 128.4240014
 110.5649992   8.5859978 129.2880014 110.8505527   8.2135605 128.5561859
  95.9539992  10.3829978 132.4550014  96.1389992  10.3009978 131.5190014
  96.8039992  10.2589978 132.8790014  96.0940916  10.3550393 132.3842896
 111.7749992  10.2749978 138.0830014 112.3579992   9.5399978 138.2750014
 112.3389992  11.0469978 138.1300014 111.9309781  10.2788145 138.1156164
 113.2719992   8.1779978 138.7680014 112.4089992   7.7989978 138.6020014
 113.8759992   7.4389978 138.6940014 113.2355944   8.0262978 138.7352984
 110.9969992   4.3319978 121.9410014 111.6079992   3.9609978 122.5780014
 110.1599992   3.9109978 122.1370014 110.9674947   4.2242756 122.0547252
 110.6299992   5.8869978 126.9070014 110.9089992   4.9799978 127.0310014
 111.3889992   6.3209978 126.5180014 110.7708619   5.8214502 126.8713795
 111.2409992   6.4689978 132.3430014 112.1739992   6.6809978 132.3090014
 111.0059992   6.5699978 133.2650014 111.3368308   6.5116503 132.4630214
 111.2709992   7.2059978 135.1190014 110.4279992   7.4739978 135.4850014
 111.7129992   8.0279978 134.9080014 111.2154138   7.3538273 135.1405518
  95.5519992   5.6529978 138.5960014  96.4709992   5.5309978 138.8320014
  95.1019992   4.9029978 138.9850014  95.6171148   5.5348751 138.6809408
 113.5539992   1.1859978 140.4720014 113.9029992   0.5319978 139.8670014
 113.7009992   2.0229978 140.0330014 113.6217355   1.2096067 140.3296564
 111.2429992   3.1499978 126.9550014 111.4249992   2.7009978 127.7810014
 110.6429992   2.5659978 126.4920014 111.1867529   3.0096131 127.0053619
  96.7729992   3.9659978 131.4870014  97.2179992   3.1739978 131.7890014
  97.2389992   4.6819978 131.9180014  96.8969059   3.9544474 131.5866079
  95.0769992   6.9649978 132.5560014  95.5689992   6.7439978 131.7650014
  95.4389992   7.8049978 132.8370014  95.1932923   7.0483468 132.4857407
 113.0729992   3.2949978 138.8220014 112.1559992   3.5659978 138.7860014
 113.1959992   2.7599978 138.0380014 112.9640828   3.2597700 138.7110785
 113.1099992   3.2179978 123.4830014 113.5219992   2.4969978 123.0080014
 113.7909992   3.8869978 123.5420014 113.2585900   3.2097306 123.4259038
  95.3909992   3.2229978 126.6100014  94.4659992   3.4309978 126.4810014
  95.8449992   3.7069978 125.9210014  95.3256374   3.3169949 126.4990957
 110.1609992  18.2069978 128.5560014 110.8139992  17.8589978 127.9480014
 110.6719992  18.6949978 129.2020014 110.3192777  18.2253815 128.5602047
  95.3539992   1.9609978 134.9550014  94.6889992   1.7149978 135.5980014
  94.9109992   2.5829978 134.3770014  95.2030937   2.0113614 134.9649379
  97.5459992  15.1359978 139.0990014  96.7249992  15.3109978 138.6390014
  97.2939992  15.0629978 140.0200014  97.3996173  15.1500794 139.1604972
 100.4999992  16.1099978 135.3580014 100.0759992  16.9199978 135.0750014
 101.4049992  16.1959978 135.0560014 100.5642433  16.2323331 135.2785377
 104.8119992  17.5089978 138.3170014 104.9959992  17.1759978 139.1950014
 105.6579992  17.8189978 137.9950014 104.9516484  17.5052979 138.3937617
 107.1569992  18.7949978 137.5610014 107.8339992  18.1619978 137.3210014
 107.4779992  19.1959978 138.3680014 107.2931323  18.7625691 137.6373158
 112.0739992   1.3849978 136.6410014 111.2609992   1.7099978 136.2530014
 112.3069992   0.6239978 136.1080014 111.9942566   1.3266559 136.5159213
  97.9019992  19.3669978 135.4050014  97.1819992  19.8069978 134.9540014
  97.5369992  19.1159978 136.2540014  97.7539796  19.3933824 135.4579329
 100.3689992  18.9669978 134.4350014  99.5049992  19.0389978 134.8390014
 100.3139992  19.5139978 133.6510014 100.2431942  19.0507849 134.3844000
 105.0799992  18.8549978 133.6100014 104.6229992  19.3839978 132.9560014
 105.2429992  19.4579978 134.3360014 105.0394476  19.0089140 133.6185499
 107.4079992  17.7329978 134.5550014 106.5029992  17.8979978 134.2900014
 107.8359992  18.5859978 134.4900014 107.3420700  17.8709529 134.5099520
 110.0119992  19.3029978 134.8500014 109.8299992  20.2189978 134.6400014
 110.1889992  18.8919978 134.0040014 110.0109907  19.3729741 134.7067883
  97.3169992  17.9899978 132.3150014  97.2989992  17.5639978 133.1730014
  98.1219992  17.6709978 131.9070014  97.4233221  17.8887233 132.3770225
  99.4579992  16.6999978 130.9700014  99.2389992  15.7829978 131.1400014
 100.2819992  16.8399978 131.4360014  99.5394702  16.5935511 131.0562527
 101.9949992  17.1699978 131.8190014 102.2079992  16.2819978 131.5320014
 102.0599992  17.1349978 132.7740014 102.0329075  17.0438307 131.9087373
 105.5039992   2.8339978 130.9630014 104.8299992   2.2039978 131.2190014
 106.0679992   2.3499978 130.3600014 105.4880384   2.6823708 130.9165020
 110.6469992   0.9409978 131.0760014 111.2499992   1.4889978 130.5740014
 109.7769992   1.2599978 130.8360014 110.6119190   1.0591041 130.9748679
 112.3739992   2.0799978 129.4090014 112.9849992   1.5659978 128.8830014
 112.7559992   2.9569978 129.4330014 112.5094475   2.1281323 129.3401208
  97.8309992   1.4679978 128.7850014  97.0539992   1.2329978 128.2780014
  98.3609992   0.6709978 128.7940014  97.7963451   1.3281268 128.7168627
  96.6669992   1.2659978 124.5890014  97.1059992   1.8769978 123.9970014
  96.0329992   1.8039978 125.0630014  96.6413859   1.4224064 124.5720305
 102.4099992   1.3939978 128.5990014 103.2839992   1.7829978 128.5690014
 102.2739992   1.1789978 129.5210014 102.5113207   1.4181923 128.7196509
 107.9669992   1.4239978 130.2480014 108.0429992   1.5199978 129.2990014
 107.6919992   0.5169978 130.3770014 107.9402042   1.3144241 130.1353811
 109.3199992   1.4499978 125.9400014 108.6169992   2.0649978 125.7310014
 108.8749992   0.6129978 126.0720014 109.1636292   1.4210085 125.9292439
  96.5679992  17.2139978 125.4870014  95.8829992  17.1759978 124.8190014
  96.5719992  18.1269978 125.7750014  96.4748174  17.3321998 125.4345310
  98.5279992   3.1819978 123.0310014  99.0189992   2.5519978 122.5040014
  99.1509992   3.4779978 123.6950014  98.6795062   3.1356770 123.0485438
 103.5539992   3.4749978 125.4890014 103.7319992   2.8279978 126.1710014
 103.4999992   4.3089978 125.9560014 103.5711025   3.4990504 125.6456433
 105.4319992  18.4229978 123.8840014 106.2979992  18.7899978 123.7060014
 105.1859992  17.9839978 123.0700014 105.5172097  18.4138525 123.7496019
 112.1409992  17.9859978 126.5630014 111.9469992  17.2379978 125.9980014
 112.1019992  18.7439978 125.9800014 112.1091645  17.9860786 126.4068148
  97.7879992   1.9819978 138.3030014  97.4219992   1.2159978 138.7460014
  98.7009992   2.0109978 138.5900014  97.8613225   1.8811906 138.4023459
  99.7609992   1.3319978 139.8390014 100.6599992   1.0579978 139.6540014
  99.3749992   0.5899978 140.3030014  99.8317237   1.1941508 139.8764710
  98.3859992  18.1339978 122.5120014  98.1179992  18.4199978 123.3850014
  99.1569992  17.5879978 122.6640014  98.4535600  18.0993330 122.6521499
 108.1829992   0.6649978 140.0210014 108.2589992   0.2389978 140.8750014
 109.0759992   0.6779978 139.6780014 108.3142267   0.6083952 140.0915932
 111.3589992  16.7379978 138.7130014 110.5769992  16.5509978 138.1940014
 111.2869992  17.6669978 138.9310014 111.2420863  16.8380221 138.6713574
 125.7649992  10.6239978 128.7440014 125.8539992  11.5679978 128.6120014
 125.1269992  10.3489978 128.0860014 125.6909062  10.7159812 128.6369641
 124.6979992   9.8789978 132.1630014 124.6599992   9.2329978 132.8680014
 124.3759992   9.4119978 131.3920014 124.6492679   9.7274276 132.1552921
 117.0659992   9.4929978 133.7560014 117.1079992   8.8679978 134.4790014
 117.7689992  10.1169978 133.9380014 117.1667345   9.4917873 133.8795274
 128.4039992  12.8179978 130.4650014 127.9629992  12.0979978 130.9150014
 128.3909992  13.5389978 131.0940014 128.3417960  12.8168329 130.6117567
 117.9899992  13.9429978 132.2910014 117.6199992  13.1409978 131.9210014
 118.9309992  13.7749978 132.3370014 118.0665984  13.8104638 132.2465603
 114.5999992   7.6029978 127.6840014 114.1519992   8.4489978 127.6650014
 114.0389992   7.0239978 127.1680014 114.4629603   7.6403674 127.6116720
 115.3099992   9.7649978 129.8100014 115.5239992   8.9949978 130.3370014
 116.0479992   9.8549978 129.2060014 115.4389652   9.6718012 129.8005212
 125.5159992  17.9219978 130.6770014 126.1349992  17.2459978 130.4030014
 125.3069992  17.7039978 131.5850014 125.5726232  17.7997938 130.7622517
 123.0869992  12.3109978 132.5690014 123.3909992  11.6249978 131.9750014
 123.8089992  12.4299978 133.1870014 123.2261152  12.2332189 132.5712123
 131.7499992   3.9129978 133.4300014 131.7999992   4.5229978 134.1660014
 132.1759992   4.3739978 132.7070014 131.8144108   4.0587709 133.4330112
 126.2279992   6.7049978 132.8970014 126.3709992   5.7589978 132.9170014
 126.1219992   6.9119978 131.9680014 126.2332509   6.6034813 132.7742231
 119.3829992   4.8069978 130.1690014 119.4259992   5.6669978 129.7510014
 118.9249992   4.2549978 129.5350014 119.3269815   4.8500621 130.0261197
 127.1049992   4.9379978 128.5700014 127.7519992   4.6089978 129.1950014
 127.6149992   5.4549978 127.9470014 127.2624317   4.9629227 128.5712167
 116.0029992   7.2039978 130.9310014 116.6569992   6.6539978 131.3630014
 116.0269992   6.9299978 130.0140014 116.0957199   7.0917167 130.8661668
 121.1599992   8.7539978 130.1460014 121.7759992   8.2269978 130.6560014
 120.5729992   8.1139978 129.7430014 121.1649239   8.5954117 130.1612952
 132.1419992   5.3909978 135.6660014 131.4529992   6.0489978 135.5700014
 132.1569992   5.1929978 136.6020014 132.0496740   5.4543242 135.7794630
 118.1929992   3.7249978 134.2430014 117.9739992   4.2549978 133.4770014
 117.5249992   3.9509978 134.8900014 118.0727001   3.8281154 134.2256064
 125.5619992  13.2249978 127.7870014 125.2669992  12.9019978 126.9360014
 125.2379992  14.1249978 127.8280014 125.4777983  13.3024026 127.6759771
 120.7619992  11.3999978 134.5310014 120.0219992  11.9989978 134.6340014
 121.4759992  11.9539978 134.2150014 120.7573288  11.5567356 134.5023805
 128.8689992   4.2289978 130.5500014 128.6539992   3.4629978 131.0830014
 129.5249992   4.7009978 131.0630014 128.9282673   4.1880728 130.6921990
 117.7869992   5.6169978 132.1950014 118.4009992   6.2499978 132.5690014
 118.2989992   5.1449978 131.5390014 117.9402277   5.6397352 132.1574279
 119.1699992  13.3649978 135.3180014 119.1639992  14.2439978 134.9400014
 118.3159992  13.2809978 135.7430014 119.0537925  13.4739535 135.3236887
 115.2909992  13.0359978 126.1000014 115.0189992  13.2649978 125.2110014
 115.3359992  13.8729978 126.5600014 115.2598709  13.1806058 126.0406107
 128.9159992  14.6569978 132.8120014 127.9739992  14.7159978 132.9740014
 129.1919992  15.5629978 132.6750014 128.8245865  14.7875288 132.8156192
 129.2159992   2.9439978 134.2300014 128.4799992   3.5539978 134.1920014
 129.8999992   3.3589978 133.7030014 129.2075506   3.0836400 134.1536051
 122.2199992   1.0299978 131.6960014 122.1019992   0.0819978 131.6410014
 121.3649992   1.3629978 131.9690014 122.0882679   0.9451926 131.7253720
 127.1679992  16.4379978 129.4380014 127.5929992  15.7309978 128.9530014
 127.4849992  17.2399978 129.0210014 127.2690266  16.4495190 129.3152479
 128.3279992  14.3389978 127.9460014 128.0699992  13.6489978 127.3350014
 128.3989992  13.8959978 128.7920014 128.3022837  14.1847106 127.9766912
 130.0139992  12.9059978 136.4240014 130.1529992  12.3139978 135.6840014
 130.1809992  13.7789978 136.0670014 130.0555562  12.9429896 136.2746283
 124.4859992   9.8679978 126.1960014 123.7749992  10.4029978 125.8440014
 125.1769992   9.9229978 125.5360014 124.4820751   9.9486777 126.0585858
 124.5399992   8.3249978 123.2350014 125.2409992   8.3479978 123.8860014
 124.8419992   7.6969978 122.5790014 124.6768282   8.2432339 123.2354496
 131.8549992   9.2459978 134.4900014 131.2029992   9.9399978 134.5790014
 132.3209992   9.4559978 133.6800014 131.8285937   9.3695019 134.3927533
 127.8919992  10.0769978 127.1480014 127.1599992  10.3059978 127.7210014
 128.3389992   9.3639978 127.6030014 127.8522753  10.0118972 127.2879715
 127.7889992   8.2519978 136.2160014 127.8689992   9.0149978 136.7870014
 127.1879992   8.5309978 135.5250014 127.7187245   8.3942630 136.2008424
 119.5369992  10.7079978 129.0300014 119.2069992  10.3369978 128.2120014
 120.1259992  10.0369978 129.3770014 119.5713970  10.5666063 128.9649404
 120.9039992  14.1359978 131.7120014 120.8089992  13.5569978 130.9550014
 121.6329992  13.7649978 132.2080014 120.9896161  14.0065891 131.6755209
 119.9039992   9.4759978 132.6640014 120.4689992   9.5979978 131.9010014
 120.2229992  10.1139978 133.3030014 120.0243977   9.5788851 132.6459424
 126.2129992  14.9799978 133.3980014 125.9729992  15.6419978 134.0460014
 126.0149992  14.1449978 133.8230014 126.1533826  14.9578115 133.5441566
 120.7839992  13.8759978 137.3810014 120.4729992  14.6579978 137.8360014
 120.1339992  13.7229978 136.6950014 120.6535538  13.9624087 137.3505898
 126.7629992   9.2399978 124.8330014 127.3419992   9.3899978 125.5800014
 127.1769992   9.7099978 124.1100014 126.8983122   9.3241277 124.8375042
 117.7039992  10.0739978 136.6100014 117.7739992  10.7249978 137.3080014
 116.8129992  10.1769978 136.2750014 117.5931802  10.1769757 136.6602249
 124.4889992  15.9759978 128.2680014 124.9629992  16.2719978 129.0460014
 123.9259992  16.7149978 128.0350014 124.4777361  16.1162721 128.3428611
 119.0229992  15.9469978 138.1440014 119.0309992  15.8109978 137.1970014
 118.1069992  15.8299978 138.3960014 118.9002528  15.9125463 138.0483243
 130.4619992   0.9899978 124.6460014 129.5619992   1.1289978 124.9410014
 130.7139992   1.8209978 124.2440014 130.3728683   1.1214055 124.6320232
 118.5279992   9.7769978 126.6200014 118.2359992  10.5449978 126.1290014
 117.8529992   9.1179978 126.4570014 118.3968497   9.7929745 126.5308260
 131.6509992  15.3559978 123.0220014 131.7239992  16.2949978 123.1930014
 132.5559992  15.0509978 122.9660014 131.7834158  15.4433061 123.0378392
 114.6209992  12.1399978 135.4350014 114.1189992  12.1119978 134.6200014
 114.6259992  11.2349978 135.7440014 114.5530416  12.0137368 135.3653766
 114.3709992  14.9209978 132.3190014 115.3169992  14.7759978 132.3000014
 114.2579992  15.7049978 132.8560014 114.4853578  15.0071697 132.3890317
 132.5689992  15.5869978 138.0010014 132.5189992  14.6309978 137.9640014
 131.7419992  15.8539978 138.4020014 132.4503987  15.4925174 138.0501446
 123.5469992  15.1609978 136.8770014 123.6349992  15.9869978 137.3520014
 122.6839992  14.8309978 137.1260014 123.4423357  15.2295468 136.9757653
 123.9619992  18.9329978 126.6830014 123.8859992  18.8119978 125.7370014
 123.9939992  19.8819978 126.8020014 123.9559156  19.0447530 126.5695048
 117.6149992  17.7219978 128.4640014 117.7669992  17.3739978 129.3430014
 116.7639992  17.3649978 128.2090014 117.5207899  17.6261738 128.5497340
 127.0629992  18.0869978 123.6850014 127.4379992  17.3429978 123.2150014
 127.0679992  17.8169978 124.6040014 127.1150024  17.9486950 123.7447987
 126.7319992  18.0129978 126.4350014 125.7969992  18.1129978 126.6130014
 127.0119992  17.3029978 127.0130014 126.6418173  17.9307239 126.5374998
 129.7209992   7.0799978 138.4810014 129.3129992   7.5599978 137.7610014
 129.7609992   6.1739978 138.1730014 129.6705476   7.0233160 138.3408247
 116.8699992  13.4639978 136.4780014 117.0859992  13.1019978 137.3370014
 116.0139992  13.0889978 136.2680014 116.7839354  13.3637906 136.5672160
 119.4879992   1.9339978 132.4730014 118.6269992   1.8469978 132.0660014
 119.4659992   2.7899978 132.9010014 119.3670411   2.0377884 132.4750857
 124.1509992   1.6559978 135.8480014 124.5709992   1.2409978 136.6010014
 123.2179992   1.4769978 135.9650014 124.0823736   1.5749910 135.9668968
 127.4779992   5.4109978 136.7010014 126.9639992   5.2859978 137.4990014
 127.3219992   6.3239978 136.4570014 127.3866967   5.5172123 136.7770937
 128.2399992  10.2719978 122.4630014 128.2819992  10.0499978 121.5330014
 129.0889992  10.6709978 122.6530014 128.3605253  10.2955498 122.3613822
 123.8129992   4.1479978 123.1330014 123.5589992   4.1669978 124.0560014
 123.5559992   3.2769978 122.8320014 123.7435133   4.0328110 123.2185082
 119.5789992   6.8989978 133.5680014 118.9379992   6.8589978 134.2770014
 119.6169992   7.8259978 133.3310014 119.4963670   7.0187795 133.6330550
 119.5759992   7.1199978 128.4800014 118.6839992   6.7799978 128.4220014
 120.0269992   6.7429978 127.7250014 119.5146815   7.0223762 128.3699203
 125.1119992   7.5359978 127.2970014 124.7029992   8.3509978 127.0060014
 125.8319992   7.3959978 126.6830014 125.1534013   7.6286571 127.1740875
 124.2139992   7.7119978 138.7850014 123.6509992   7.0069978 139.1060014
 125.0399992   7.5909978 139.2530014 124.2486674   7.5992165 138.8921751
 126.1169992   6.9819978 130.1110014 125.9209992   7.5879978 129.3960014
 126.2979992   6.1489978 129.6770014 126.1146584   6.9522513 129.9544212
 117.3289992   7.2199978 135.4350014 117.2909992   7.6199978 136.3040014
 116.8389992   6.4029978 135.5260014 117.2575621   7.1642510 135.5661377
 120.6949992   4.5939978 122.2340014 120.2639992   4.1489978 122.9640014
 119.9769992   4.9649978 121.7220014 120.5389363   4.5832968 122.2646211
 113.9379992   4.3359978 129.2860014 114.5679992   4.3069978 130.0050014
 114.3869992   3.9109978 128.5560014 114.0850692   4.2745316 129.2857771
 115.2119992   5.0819978 124.7100014 115.6859992   5.6729978 124.1250014
 114.4939992   5.6119978 125.0570014 115.1798640   5.2345511 124.6767969
 125.3809992   8.6199978 134.7830014 125.7039992   7.9889978 134.1400014
 124.9399992   8.0859978 135.4430014 125.3655789   8.4613522 134.7842232
 122.1579992   4.5479978 129.5670014 121.2469992   4.6049978 129.8550014
 122.6629992   4.4879978 130.3770014 122.1015387   4.5476870 129.7160646
 116.9859992   6.1769978 128.3930014 116.0969992   6.2759978 128.0530014
 117.2829992   5.3349978 128.0470014 116.9044177   6.0767687 128.2996940
 120.6389992   6.1769978 126.0500014 121.5709992   6.3059978 126.2280014
 120.4239992   6.8459978 125.4000014 120.7374472   6.2850806 125.9864891
 126.5629992   3.7829978 132.8310014 125.8859992   3.9139978 133.4950014
 126.0779992   3.6279978 132.0210014 126.4047265   3.7799659 132.8123397
 119.3129992   7.3709978 123.6170014 118.7709992   6.9919978 122.9250014
 120.1469992   7.5659978 123.1880014 119.3515159   7.3455076 123.4644419
 129.8509992  19.4539978 139.1080014 130.0499992  19.8779978 138.2730014
 130.5059992  19.7979978 139.7150014 129.9668501  19.5586091 139.0757097
 117.4489992  11.9279978 138.7160014 118.1809992  12.1829978 139.2770014
 116.6679992  12.1329978 139.2310014 117.4437684  11.9906468 138.8624782
 123.4779992   7.3349978 131.4540014 124.0419992   6.7889978 130.9070014
 123.3299992   6.8139978 132.2420014 123.5352575   7.1896552 131.4856987
 118.4799992   3.4719978 127.8720014 118.1629992   2.5689978 127.8370014
 119.2609992   3.4739978 127.3190014 118.5422307   3.3486951 127.7924314
 122.1039992   5.7239978 133.8680014 121.2689992   6.1779978 133.9780014
 122.6279992   5.9999978 134.6200014 122.0605070   5.8234666 133.9847152
 122.6489992  11.9369978 125.5520014 121.9039992  11.4289978 125.2300014
 122.5139992  11.9859978 126.4990014 122.5289047  11.8741596 125.6358845
 129.7989992  11.0699978 134.3390014 130.4399992  11.5259978 133.7950014
 128.9679992  11.1829978 133.8770014 129.7745171  11.1477502 134.2020237
 126.5459992   4.7509978 123.7520014 125.6079992   4.8619978 123.6000014
 126.8439992   5.6069978 124.0580014 126.4576402   4.8820621 123.7725571
 124.1679992  12.1209978 136.7890014 123.8219992  11.7389978 137.5960014
 123.9679992  13.0539978 136.8610014 124.0936523  12.1949095 136.9090735
 127.2649992   6.6179978 125.4120014 128.1569992   6.4799978 125.7310014
 127.3209992   7.4089978 124.8760014 127.3947107   6.7060526 125.3832091
 117.7729992  11.2319978 131.3220014 118.5179992  11.2289978 130.7210014
 117.8509992  10.4079978 131.8040014 117.8854158  11.1202916 131.3049153
 124.7739992  13.3949978 124.5780014 124.4789992  14.2219978 124.9590014
 124.0709992  12.7759978 124.7740014 124.6385471  13.4245227 124.6566698
 114.7809992   9.6919978 136.6370014 115.0039992   9.2739978 137.4690014
 114.1789992   9.0799978 136.2140014 114.7301260   9.5519933 136.6937320
 121.7979992   9.2089978 138.8500014 121.5019992   9.0439978 137.9550014
 122.7289992   8.9889978 138.8390014 121.8833982   9.1566578 138.7260045
 126.4179992  14.5829978 136.7400014 125.5179992  14.7659978 136.4720014
 126.4519992  14.8419978 137.6610014 126.2992909  14.6430815 136.8277852
 132.1499992   6.8269978 125.1070014 131.5949992   6.4309978 124.4350014
 132.2499992   7.7379978 124.8290014 132.0875888   6.8958990 124.9775206
 132.1129992  12.6279978 137.9440014 131.2619992  12.8659978 137.5770014
 132.7029992  12.6109978 137.1910014 132.0762408  12.6582966 137.7918879
 130.4449992  15.6129978 125.5720014 130.0719992  14.7879978 125.8810014
 130.7219992  15.4299978 124.6750014 130.4313871  15.4752441 125.4929677
 127.6049992  10.4209978 132.5930014 126.6769992  10.1899978 132.5660014
 128.0559992   9.6439978 132.2630014 127.5388165  10.2842774 132.5446790
 120.1479992  14.7499978 128.7260014 120.6759992  15.5229978 128.5260014
 119.2679992  14.9739978 128.4250014 120.1013176  14.8863161 128.6578409
 115.9029992   9.6119978 123.3140014 116.5189992  10.2389978 123.6930014
 115.0409992   9.9279978 123.5850014 115.8708195   9.7405798 123.4025386
 121.5759992  12.4129978 128.3030014 121.3349992  13.3379978 128.3440014
 120.8349992  11.9539978 128.6990014 121.4428390  12.4776403 128.3621404
 122.0899992  16.5619978 134.6180014 122.4529992  17.4159978 134.3840014
 122.6219992  16.2699978 135.3580014 122.2116090  16.6394058 134.6860219
 120.2589992  17.4339978 127.8480014 119.3089992  17.5399978 127.8990014
 120.6109992  18.2549978 128.1930014 120.1765480  17.5594438 127.9015999
 125.6339992  12.6609978 134.3180014 125.2089992  12.4329978 135.1450014
 126.2149992  11.9219978 134.1360014 125.6543930  12.5299843 134.4064732
 127.8369992  13.5899978 123.3920014 128.1909992  13.2099978 124.1970014
 126.8889992  13.4959978 123.4790014 127.7571820  13.5253092 123.5138714
 128.2929992  17.2129978 136.7880014 127.6909992  16.6569978 136.2920014
 128.5739992  17.8799978 136.1620014 128.2486829  17.2271613 136.6355443
 132.3409992  18.0689978 123.5930014 133.0849992  18.6549978 123.4530014
 131.6469992  18.6379978 123.9270014 132.3490201  18.2260603 123.6189772
 116.4149992   4.4459978 136.1950014 115.5229992   4.7839978 136.1280014
 116.3169992   3.5899978 136.6130014 116.2794965   4.3766499 136.2423044
 128.7029992  12.2619978 125.6190014 128.4259992  11.5339978 126.1750014
 129.6309992  12.3809978 125.8240014 128.7904499  12.1784213 125.7228044
 116.0669992  16.2499978 134.6300014 116.2839992  15.3179978 134.5990014
 116.3129992  16.5249978 135.5130014 116.1299809  16.1595686 134.7451691
 121.9279992  14.7019978 121.8390014 122.1669992  13.9529978 121.2920014
 121.6589992  14.3139978 122.6720014 121.9243233  14.5471853 121.8767809
 120.8649992  14.2719978 124.2960014 121.0119992  13.7519978 125.0860014
 120.8619992  15.1789978 124.6020014 120.8847300  14.3233964 124.4455895
 117.3179992  11.5239978 124.8060014 116.6319992  11.8769978 125.3730014
 117.8409992  12.2869978 124.5600014 117.2949033  11.6753746 124.8502661
 125.1499992   4.1869978 135.0850014 125.8489992   4.2609978 135.7350014
 124.7689992   3.3219978 135.2390014 125.1942097   4.0802389 135.1947997
 125.9339992   3.8389978 126.1820014 126.1539992   4.3099978 125.3790014
 126.4929992   4.2329978 126.8520014 126.0396730   3.9567432 126.1625906
 123.6029992  15.9689978 125.0450014 122.7859992  16.4659978 125.0970014
 124.1319992  16.4449978 124.4050014 123.5628508  16.1012543 124.9656035
 123.1339992   5.5669978 127.0170014 123.9459992   6.0709978 127.0630014
 122.8899992   5.4219978 127.9310014 123.2121467   5.6163749 127.1468575
 123.6699992   6.5529978 136.2020014 123.7889992   7.1269978 136.9590014
 124.3249992   5.8649978 136.3160014 123.7749146   6.5385574 136.3211314
 124.0179992   2.6479978 127.9550014 123.6709992   3.2649978 128.6000014
 124.6769992   3.1489978 127.4740014 124.0595949   2.8001099 127.9782271
 120.9409992  17.0129978 125.0270014 121.1019992  17.8129978 124.5260014
 120.7439992  17.3199978 125.9120014 120.9363919  17.1639129 125.0781006
 119.6759992   3.7109978 124.6420014 119.5919992   4.5989978 124.9890014
 120.5659992   3.4459978 124.8740014 119.7848163   3.7967179 124.7208596
 129.8739992   4.4599978 137.0370014 128.9579992   4.7219978 136.9490014
 130.2099992   4.4569978 136.1400014 129.7939789   4.4954626 136.9037847
 128.4769992   8.2099978 131.1320014 127.6789992   7.7949978 130.8040014
 128.9219992   7.5199978 131.6230014 128.4279684   8.0598628 131.1535227
 117.9339992  14.1379978 123.7030014 118.5259992  14.8379978 123.9790014
 118.3929992  13.7049978 122.9830014 118.0770791  14.1752908 123.6434607
 116.2499992   6.8029978 122.8190014 116.2049992   7.7419978 122.9970014
 115.3619992   6.5669978 122.5490014 116.1238555   6.8996874 122.8068939
 129.5629992  17.4659978 132.7550014 129.4069992  18.1449978 132.0980014
 130.4959992  17.5379978 132.9580014 129.6677387  17.5686390 132.6925342
 117.0579992   1.5839978 131.4920014 116.8289992   1.6429978 130.5640014
 116.6159992   0.7929978 131.7980014 116.9668801   1.4850540 131.4064729
 115.9889992  15.5249978 127.6520014 115.1559992  15.9969978 127.6800014
 116.5339992  16.0349978 127.0540014 115.9487590  15.6585897 127.5749194
 115.2769992  18.1369978 138.9820014 115.8169992  17.9209978 139.7420014
 114.7959992  17.3319978 138.7930014 115.2858613  17.9985400 139.0604782
 119.8739992  17.0569978 140.6030014 120.6419992  16.5979978 140.9440014
 119.8529992  16.8309978 139.6730014 119.9762135  16.9636668 140.5239491
 123.9659992  16.5649978 121.9780014 123.3219992  15.9339978 122.2990014
 124.7279992  16.0339978 121.7460014 123.9808058  16.4067902 121.9906038
 126.4509992  15.4369978 139.3320014 126.0999992  14.5799978 139.5750014
 127.1769992  15.5789978 139.9390014 126.5011590  15.3390178 139.4472907
 128.5709992  16.3819978 122.2120014 128.8539992  15.5869978 122.6640014
 129.3099992  16.6149978 121.6510014 128.7096956  16.3047031 122.1979822
 115.1839992  11.9479978 139.9370014 115.3279992  11.0459978 139.6500014
 114.4119992  12.2339978 139.4490014 115.0993303  11.8633243 139.8317908
 119.5249992  12.2909978 122.0690014 119.5899992  11.4969978 122.6000014
 120.1779992  12.1729978 121.3790014 119.6221754  12.1663337 122.0484259
 121.8389992  11.9169978 139.3690014 121.5109992  12.1879978 138.5120014
 121.9909992  10.9759978 139.2820014 121.8146030  11.8268973 139.2397945
 124.8779992  13.3379978 121.8050014 124.6089992  13.5189978 122.7060014
 124.6709992  12.4129978 121.6740014 124.8132000  13.2376774 121.9105693
 127.5739992  11.8329978 136.7530014 128.3189992  12.4219978 136.6330014
 126.8169992  12.4149978 136.8160014 127.5735205  11.9921997 136.7451119
 116.0169992   9.1479978 139.3570014 116.4249992   8.2909978 139.2360014
 115.7559992   9.1619978 140.2780014 116.0376016   9.0325119 139.4649192
 120.6749992  10.2639978 124.3750014 120.2149992   9.7799978 125.0610014
 120.9299992   9.5949978 123.7390014 120.6465038  10.1073689 124.3829447
 119.9639992   8.1569978 136.7310014 119.3449992   8.8309978 137.0110014
 120.3079992   8.4779978 135.8980014 119.9257605   8.2927198 136.6566707
 121.7459992   8.5069978 122.6370014 121.5649992   8.3519978 121.7100014
 122.6959992   8.6149978 122.6820014 121.8496566   8.5003669 122.5160929
 124.9829992  10.6279978 140.0080014 125.9369992  10.7119978 139.9810014
 124.8229992   9.9159978 140.6280014 125.0917182  10.5432842 140.0880733
 131.1359992  10.8609978 122.0830014 130.8619992  10.4369978 121.2700014
 131.1749992  11.7929978 121.8660014 131.1037716  10.9288827 121.9424286
 120.3029992   5.5119978 137.8130014 120.4529992   4.7829978 137.2110014
 120.3049992   6.2889978 137.2540014 120.3237967   5.5172708 137.6550541
 120.7159992   3.8809978 135.3060014 121.2509992   4.3329978 134.6540014
 119.8629992   3.7729978 134.8830014 120.6740374   3.9282665 135.1596710
 122.2969992   9.3209978 135.5450014 123.0479992   9.1649978 134.9720014
 121.9579992  10.1729978 135.2700014 122.3539587   9.4148138 135.4294078
 126.7129992   7.1359978 140.5740014 126.9049992   6.2049978 140.4620014
 127.5709992   7.5609978 140.5640014 126.8552269   7.0659928 140.5573192
 128.0299992   9.9249978 138.6510014 127.7479992  10.6339978 138.0740014
 128.9719992   9.8519978 138.5000014 128.1187656  10.0123128 138.5514809
 118.7819992   6.7099978 139.7250014 118.0139992   6.1769978 139.5150014
 119.4599992   6.3999978 139.1250014 118.7686973   6.5952375 139.6151796
 121.5209992   1.3379978 135.7370014 121.4229992   2.2839978 135.6320014
 120.7789992   0.9649978 135.2620014 121.4071913   1.4171813 135.6583539
 122.7849992   5.6589978 139.3010014 122.5499992   5.4399978 140.2030014
 122.0019992   5.4519978 138.7910014 122.6469219   5.6010066 139.3555852
 125.5009992   4.7869978 138.3770014 124.5529992   4.8189978 138.5090014
 125.8129992   4.1609978 139.0300014 125.4135190   4.7067262 138.4833563
 127.1349992   3.4209978 140.3820014 127.0379992   2.4689978 140.3760014
 126.8129992   3.6889978 141.2420014 127.0781761   3.3269744 140.4974936
 116.9619992   4.6299978 139.4290014 117.1739992   3.9239978 138.8190014
 116.8509992   4.1929978 140.2730014 116.9760269   4.4741921 139.4595873
 121.7429992   0.6319978 138.4090014 122.4549992  -0.0080022 138.3950014
 121.6419992   0.8979978 137.4950014 121.8267261   0.5804190 138.2835537
 122.0969992   2.3139978 140.4620014 121.9649992   1.8389978 139.6420014
 121.4969992   3.0589978 140.4070014 121.9979070   2.3495789 140.3423251
 121.6429992  19.1969978 123.6390014 122.5759992  19.3549978 123.7820014
 121.3789992  19.8729978 123.0140014 121.7349308  19.3099104 123.5741396
 115.2109992  13.8339978 123.1210014 116.1249992  13.9129978 123.3950014
 115.2189992  13.1469978 122.4550014 115.3371143  13.7519085 123.0684274
 113.8599992  19.2269978 128.1990014 113.2129992  18.7649978 127.6660014
 114.2149992  18.5549978 128.7810014 113.8194506  19.0729503 128.2047341
 114.7299992  17.3069978 130.0030014 114.3959992  16.4269978 130.1750014
 114.9529992  17.6529978 130.8680014 114.7143721  17.2331938 130.1434168
 132.2789992  18.1169978 132.9840014 132.2569992  18.3019978 133.9230014
 132.9689992  18.6849978 132.6430014 132.3693439  18.2191887 133.0664791
 131.8419992  17.6839978 135.9060014 131.3549992  16.9489978 135.5350014
 132.3909992  17.2899978 136.5840014 131.8495247  17.5301057 135.9468461
 130.2929992  13.4739978 140.5440014 129.4269992  13.3689978 140.9380014
 130.6689992  14.2319978 140.9900014 130.2253401  13.5621708 140.6582620
 131.5939992  11.7299978 126.0580014 132.4439992  12.1509978 126.1850014
 131.5989992  10.9899978 126.6650014 131.7111143  11.6876094 126.1574750
 131.9879992   9.7839978 127.8820014 131.2619992   9.3039978 128.2790014
 132.5699992   9.9889978 128.6140014 131.9671635   9.7459166 128.0353748
 131.7469992  12.5689978 132.8290014 132.5809992  12.1909978 132.5490014
 131.8589992  13.5119978 132.7100014 131.8762522  12.6447742 132.7746020
 130.2339992  15.4469978 135.1360014 129.5859992  15.7719978 135.7620014
 129.7159992  15.0059978 134.4620014 130.0754168  15.4318523 135.1305307
 132.2569992   9.6849978 124.2730014 131.7349992  10.0409978 123.5540014
 132.2239992  10.3599978 124.9510014 132.1810699   9.8249848 124.2662129
 130.6059992   6.9239978 122.8240014 130.7019992   7.5909978 122.1440014
 130.4659992   6.1089978 122.3420014 130.6002063   6.9050667 122.6658377
 129.7749992   8.3049978 128.4450014 129.6249992   7.3599978 128.4240014
 129.4209992   8.5859978 129.2880014 129.7065527   8.2135605 128.5561859
 114.8099992  10.3829978 132.4550014 114.9949992  10.3009978 131.5190014
 115.6599992  10.2589978 132.8790014 114.9500916  10.3550393 132.3842896
 130.6309992  10.2749978 138.0830014 131.2139992   9.5399978 138.2750014
 131.1949992  11.0469978 138.1300014 130.7869781  10.2788145 138.1156164
 132.1279992   8.1779978 138.7680014 131.2649992   7.7989978 138.6020014
 132.7319992   7.4389978 138.6940014 132.0915944   8.0262978 138.7352984
 129.8529992   4.3319978 121.9410014 130.4639992   3.9609978 122.5780014
 129.0159992   3.9109978 122.1370014 129.8234947   4.2242756 122.0547252
 129.4859992   5.8869978 126.9070014 129.7649992   4.9799978 127.0310014
 130.2449992   6.3209978 126.5180014 129.6268619   5.8214502 126.8713795
 130.0969992   6.4689978 132.3430014 131.0299992   6.6809978 132.3090014
 129.8619992   6.5699978 133.2650014 130.1928308   6.5116503 132.4630214
 130.1269992   7.2059978 135.1190014 129.2839992   7.4739978 135.4850014
 130.5689992   8.0279978 134.9080014 130.0714138   7.3538273 135.1405518
 114.4079992   5.6529978 138.5960014 115.3269992   5.5309978 138.8320014
 113.9579992   4.9029978 138.9850014 114.4731148   5.5348751 138.6809408
 132.4099992   1.1859978 140.4720014 132.7589992   0.5319978 139.8670014
 132.5569992   2.0229978 140.0330014 132.4777355   1.2096067 140.3296564
 130.0989992   3.1499978 126.9550014 130.2809992   2.7009978 127.7810014
 129.4989992   2.5659978 126.4920014 130.0427529   3.0096131 127.0053619
 115.6289992   3.9659978 131.4870014 116.0739992   3.1739978 131.7890014
 116.0949992   4.6819978 131.9180014 115.7529059   3.9544474 131.5866079
 113.9329992   6.9649978 132.5560014 114.4249992   6.7439978 131.7650014
 114.2949992   7.8049978 132.8370014 114.0492923   7.0483468 132.4857407
 131.9289992   3.2949978 138.8220014 131.0119992   3.5659978 138.7860014
 132.0519992   2.7599978 138.0380014 131.8200828   3.2597700 138.7110785
 131.9659992   3.2179978 123.4830014 132.3779992   2.4969978 123.0080014
 132.6469992   3.8869978 123.5420014 132.1145900   3.2097306 123.4259038
 114.2469992   3.2229978 126.6100014 113.3219992   3.4309978 126.4810014
 114.7009992   3.7069978 125.9210014 114.1816374   3.3169949 126.4990957
 129.0169992  18.2069978 128.5560014 129.6699992  17.8589978 127.9480014
 129.5279992  18.6949978 129.2020014 129.1752777  18.2253815 128.5602047
 114.2099992   1.9609978 134.9550014 113.5449992   1.7149978 135.5980014
 113.7669992   2.5829978 134.3770014 114.0590937   2.0113614 134.9649379
 116.4019992  15.1359978 139.0990014 115.5809992  15.3109978 138.6390014
 116.1499992  15.0629978 140.0200014 116.2556173  15.1500794 139.1604972
 119.3559992  16.1099978 135.3580014 118.9319992  16.9199978 135.0750014
 120.2609992  16.1959978 135.0560014 119.4202433  16.2323331 135.2785377
 123.6679992  17.5089978 138.3170014 123.8519992  17.1759978 139.1950014
 124.5139992  17.8189978 137.9950014 123.8076484  17.5052979 138.3937617
 126.0129992  18.7949978 137.5610014 126.6899992  18.1619978 137.3210014
 126.3339992  19.1959978 138.3680014 126.1491323  18.7625691 137.6373158
 130.9299992   1.3849978 136.6410014 130.1169992   1.7099978 136.2530014
 131.1629992   0.6239978 136.1080014 130.8502566   1.3266559 136.5159213
 116.7579992  19.3669978 135.4050014 116.0379992  19.8069978 134.9540014
 116.3929992  19.1159978 136.2540014 116.6099796  19.3933824 135.4579329
 119.2249992  18.9669978 134.4350014 118.3609992  19.0389978 134.8390014
 119.1699992  19.5139978 133.6510014 119.0991942  19.0507849 134.3844000
 123.9359992  18.8549978 133.6100014 123.4789992  19.3839978 132.9560014
 124.0989992  19.4579978 134.3360014 123.8954476  19.0089140 133.6185499
 126.2639992  17.7329978 134.5550014 125.3589992  17.8979978 134.2900014
 126.6919992  18.5859978 134.4900014 126.1980700  17.8709529 134.5099520
 128.8679992  19.3029978 134.8500014 128.6859992  20.2189978 134.6400014
 129.0449992  18.8919978 134.0040014 128.8669907  19.3729741 134.7067883
 116.1729992  17.9899978 132.3150014 116.1549992  17.5639978 133.1730014
 116.9779992  17.6709978 131.9070014 116.2793221  17.8887233 132.3770225
 118.3139992  16.6999978 130.9700014 118.0949992  15.7829978 131.1400014
 119.1379992  16.8399978 131.4360014 118.3954702  16.5935511 131.0562527
 120.8509992  17.1699978 131.8190014 121.0639992  16.2819978 131.5320014
 120.9159992  17.1349978 132.7740014 120.8889075  17.0438307 131.9087373
 124.3599992   2.8339978 130.9630014 123.6859992   2.2039978 131.2190014
 124.9239992   2.3499978 130.3600014 124.3440384   2.6823708 130.9165020
 129.5029992   0.9409978 131.0760014 130.1059992   1.4889978 130.5740014
 128.6329992   1.2599978 130.8360014 129.4679190   1.0591041 130.9748679
 131.2299992   2.0799978 129.4090014 131.8409992   1.5659978 128.8830014
 131.6119992   2.9569978 129.4330014 131.3654475   2.1281323 129.3401208
 116.6869992   1.4679978 128.7850014 115.9099992   1.2329978 128.2780014
 117.2169992   0.6709978 128.7940014 116.6523451   1.3281268 128.7168627
 115.5229992   1.2659978 124.5890014 115.9619992   1.8769978 123.9970014
 114.8889992   1.8039978 125.0630014 115.4973859   1.4224064 124.5720305
 121.2659992   1.3939978 128.5990014 122.1399992   1.7829978 128.5690014
 121.1299992   1.1789978 129.5210014 121.3673207   1.4181923 128.7196509
 126.8229992   1.4239978 130.2480014 126.8989992   1.5199978 129.2990014
 126.5479992   0.5169978 130.3770014 126.7962042   1.3144241 130.1353811
 128.1759992   1.4499978 125.9400014 127.4729992   2.0649978 125.7310014
 127.7309992   0.6129978 126.0720014 128.0196292   1.4210085 125.9292439
 115.4239992  17.2139978 125.4870014 114.7389992  17.1759978 124.8190014
 115.4279992  18.1269978 125.7750014 115.3308174  17.3321998 125.4345310
 117.3839992   3.1819978 123.0310014 117.8749992   2.5519978 122.5040014
 118.0069992   3.4779978 123.6950014 117.5355062   3.1356770 123.0485438
 122.4099992   3.4749978 125.4890014 122.5879992   2.8279978 126.1710014
 122.3559992   4.3089978 125.9560014 122.4271025   3.4990504 125.6456433
 124.2879992  18.4229978 123.8840014 125.1539992  18.7899978 123.7060014
 124.0419992  17.9839978 123.0700014 124.3732097  18.4138525 123.7496019
 130.9969992  17.9859978 126.5630014 130.8029992  17.2379978 125.9980014
 130.9579992  18.7439978 125.9800014 130.9651645  17.9860786 126.4068148
 116.6439992   1.9819978 138.3030014 116.2779992   1.2159978 138.7460014
 117.5569992   2.0109978 138.5900014 116.7173225   1.8811906 138.4023459
 118.6169992   1.3319978 139.8390014 119.5159992   1.0579978 139.6540014
 118.2309992   0.5899978 140.3030014 118.6877237   1.1941508 139.8764710
 117.2419992  18.1339978 122.5120014 116.9739992  18.4199978 123.3850014
 118.0129992  17.5879978 122.6640014 117.3095600  18.0993330 122.6521499
 127.0389992   0.6649978 140.0210014 127.1149992   0.2389978 140.8750014
 127.9319992   0.6779978 139.6780014 127.1702267   0.6083952 140.0915932
 130.2149992  16.7379978 138.7130014 129.4329992  16.5509978 138.1940014
 130.1429992  17.6669978 138.9310014 130.0980863  16.8380221 138.6713574
 144.6209992  10.6239978 128.7440014 144.7099992  11.5679978 128.6120014
 143.9829992  10.3489978 128.0860014 144.5469062  10.7159812 128.6369641
 143.5539992   9.8789978 132.1630014 143.5159992   9.2329978 132.8680014
 143.2319992   9.4119978 131.3920014 143.5052679   9.7274276 132.1552921
 135.9219992   9.4929978 133.7560014 135.9639992   8.8679978 134.4790014
 136.6249992  10.1169978 133.9380014 136.0227345   9.4917873 133.8795274
 136.8459992  13.9429978 132.2910014 136.4759992  13.1409978 131.9210014
 137.7869992  13.7749978 132.3370014 136.9225984  13.8104638 132.2465603
 133.4559992   7.6029978 127.6840014 133.0079992   8.4489978 127.6650014
 132.8949992   7.0239978 127.1680014 133.3189603   7.6403674 127.6116720
 134.1659992   9.7649978 129.8100014 134.3799992   8.9949978 130.3370014
 134.9039992   9.8549978 129.2060014 134.2949652   9.6718012 129.8005212
 144.3719992  17.9219978 130.6770014 144.9909992  17.2459978 130.4030014
 144.1629992  17.7039978 131.5850014 144.4286232  17.7997938 130.7622517
 141.9429992  12.3109978 132.5690014 142.2469992  11.6249978 131.9750014
 142.6649992  12.4299978 133.1870014 142.0821152  12.2332189 132.5712123
 145.0839992   6.7049978 132.8970014 145.2269992   5.7589978 132.9170014
 144.9779992   6.9119978 131.9680014 145.0892509   6.6034813 132.7742231
 138.2389992   4.8069978 130.1690014 138.2819992   5.6669978 129.7510014
 137.7809992   4.2549978 129.5350014 138.1829815   4.8500621 130.0261197
 134.8589992   7.2039978 130.9310014 135.5129992   6.6539978 131.3630014
 134.8829992   6.9299978 130.0140014 134.9517199   7.0917167 130.8661668
 140.0159992   8.7539978 130.1460014 140.6319992   8.2269978 130.6560014
 139.4289992   8.1139978 129.7430014 140.0209239   8.5954117 130.1612952
 137.0489992   3.7249978 134.2430014 136.8299992   4.2549978 133.4770014
 136.3809992   3.9509978 134.8900014 136.9287001   3.8281154 134.2256064
 144.4179992  13.2249978 127.7870014 144.1229992  12.9019978 126.9360014
 144.0939992  14.1249978 127.8280014 144.3337983  13.3024026 127.6759771
 139.6179992  11.3999978 134.5310014 138.8779992  11.9989978 134.6340014
 140.3319992  11.9539978 134.2150014 139.6133288  11.5567356 134.5023805
 136.6429992   5.6169978 132.1950014 137.2569992   6.2499978 132.5690014
 137.1549992   5.1449978 131.5390014 136.7962277   5.6397352 132.1574279
 138.0259992  13.3649978 135.3180014 138.0199992  14.2439978 134.9400014
 137.1719992  13.2809978 135.7430014 137.9097925  13.4739535 135.3236887
 134.1469992  13.0359978 126.1000014 133.8749992  13.2649978 125.2110014
 134.1919992  13.8729978 126.5600014 134.1158709  13.1806058 126.0406107
 141.0759992   1.0299978 131.6960014 140.9579992   0.0819978 131.6410014
 140.2209992   1.3629978 131.9690014 140.9442679   0.9451926 131.7253720
 143.3419992   9.8679978 126.1960014 142.6309992  10.4029978 125.8440014
 144.0329992   9.9229978 125.5360014 143.3380751   9.9486777 126.0585858
 143.3959992   8.3249978 123.2350014 144.0969992   8.3479978 123.8860014
 143.6979992   7.6969978 122.5790014 143.5328282   8.2432339 123.2354496
 138.3929992  10.7079978 129.0300014 138.0629992  10.3369978 128.2120014
 138.9819992  10.0369978 129.3770014 138.4273970  10.5666063 128.9649404
 139.7599992  14.1359978 131.7120014 139.6649992  13.5569978 130.9550014
 140.4889992  13.7649978 132.2080014 139.8456161  14.0065891 131.6755209
 138.7599992   9.4759978 132.6640014 139.3249992   9.5979978 131.9010014
 139.0789992  10.1139978 133.3030014 138.8803977   9.5788851 132.6459424
 145.0689992  14.9799978 133.3980014 144.8289992  15.6419978 134.0460014
 144.8709992  14.1449978 133.8230014 145.0093826  14.9578115 133.5441566
 139.6399992  13.8759978 137.3810014 139.3289992  14.6579978 137.8360014
 138.9899992  13.7229978 136.6950014 139.5095538  13.9624087 137.3505898
 136.5599992  10.0739978 136.6100014 136.6299992  10.7249978 137.3080014
 135.6689992  10.1769978 136.2750014 136.4491802  10.1769757 136.6602249
 143.3449992  15.9759978 128.2680014 143.8189992  16.2719978 129.0460014
 142.7819992  16.7149978 128.0350014 143.3337361  16.1162721 128.3428611
 137.8789992  15.9469978 138.1440014 137.8869992  15.8109978 137.1970014
 136.9629992  15.8299978 138.3960014 137.7562528  15.9125463 138.0483243
 137.3839992   9.7769978 126.6200014 137.0919992  10.5449978 126.1290014
 136.7089992   9.1179978 126.4570014 137.2528497   9.7929745 126.5308260
 133.4769992  12.1399978 135.4350014 132.9749992  12.1119978 134.6200014
 133.4819992  11.2349978 135.7440014 133.4090416  12.0137368 135.3653766
 133.2269992  14.9209978 132.3190014 134.1729992  14.7759978 132.3000014
 133.1139992  15.7049978 132.8560014 133.3413578  15.0071697 132.3890317
 142.4029992  15.1609978 136.8770014 142.4909992  15.9869978 137.3520014
 141.5399992  14.8309978 137.1260014 142.2983357  15.2295468 136.9757653
 142.8179992  18.9329978 126.6830014 142.7419992  18.8119978 125.7370014
 142.8499992  19.8819978 126.8020014 142.8119156  19.0447530 126.5695048
 136.4709992  17.7219978 128.4640014 136.6229992  17.3739978 129.3430014
 135.6199992  17.3649978 128.2090014 136.3767899  17.6261738 128.5497340
 135.7259992  13.4639978 136.4780014 135.9419992  13.1019978 137.3370014
 134.8699992  13.0889978 136.2680014 135.6399354  13.3637906 136.5672160
 138.3439992   1.9339978 132.4730014 137.4829992   1.8469978 132.0660014
 138.3219992   2.7899978 132.9010014 138.2230411   2.0377884 132.4750857
 143.0069992   1.6559978 135.8480014 143.4269992   1.2409978 136.6010014
 142.0739992   1.4769978 135.9650014 142.9383736   1.5749910 135.9668968
 142.6689992   4.1479978 123.1330014 142.4149992   4.1669978 124.0560014
 142.4119992   3.2769978 122.8320014 142.5995133   4.0328110 123.2185082
 138.4349992   6.8989978 133.5680014 137.7939992   6.8589978 134.2770014
 138.4729992   7.8259978 133.3310014 138.3523670   7.0187795 133.6330550
 138.4319992   7.1199978 128.4800014 137.5399992   6.7799978 128.4220014
 138.8829992   6.7429978 127.7250014 138.3706815   7.0223762 128.3699203
 143.9679992   7.5359978 127.2970014 143.5589992   8.3509978 127.0060014
 144.6879992   7.3959978 126.6830014 144.0094013   7.6286571 127.1740875
 143.0699992   7.7119978 138.7850014 142.5069992   7.0069978 139.1060014
 143.8959992   7.5909978 139.2530014 143.1046674   7.5992165 138.8921751
 144.9729992   6.9819978 130.1110014 144.7769992   7.5879978 129.3960014
 145.1539992   6.1489978 129.6770014 144.9706584   6.9522513 129.9544212
 136.1849992   7.2199978 135.4350014 136.1469992   7.6199978 136.3040014
 135.6949992   6.4029978 135.5260014 136.1135621   7.1642510 135.5661377
 139.5509992   4.5939978 122.2340014 139.1199992   4.1489978 122.9640014
 138.8329992   4.9649978 121.7220014 139.3949363   4.5832968 122.2646211
 132.7939992   4.3359978 129.2860014 133.4239992   4.3069978 130.0050014
 133.2429992   3.9109978 128.5560014 132.9410692   4.2745316 129.2857771
 134.0679992   5.0819978 124.7100014 134.5419992   5.6729978 124.1250014
 133.3499992   5.6119978 125.0570014 134.0358640   5.2345511 124.6767969
 144.2369992   8.6199978 134.7830014 144.5599992   7.9889978 134.1400014
 143.7959992   8.0859978 135.4430014 144.2215789   8.4613522 134.7842232
 141.0139992   4.5479978 129.5670014 140.1029992   4.6049978 129.8550014
 141.5189992   4.4879978 130.3770014 140.9575387   4.5476870 129.7160646
 135.8419992   6.1769978 128.3930014 134.9529992   6.2759978 128.0530014
 136.1389992   5.3349978 128.0470014 135.7604177   6.0767687 128.2996940
 139.4949992   6.1769978 126.0500014 140.4269992   6.3059978 126.2280014
 139.2799992   6.8459978 125.4000014 139.5934472   6.2850806 125.9864891
 145.4189992   3.7829978 132.8310014 144.7419992   3.9139978 133.4950014
 144.9339992   3.6279978 132.0210014 145.2607265   3.7799659 132.8123397
 138.1689992   7.3709978 123.6170014 137.6269992   6.9919978 122.9250014
 139.0029992   7.5659978 123.1880014 138.2075159   7.3455076 123.4644419
 136.3049992  11.9279978 138.7160014 137.0369992  12.1829978 139.2770014
 135.5239992  12.1329978 139.2310014 136.2997684  11.9906468 138.8624782
 142.3339992   7.3349978 131.4540014 142.8979992   6.7889978 130.9070014
 142.1859992   6.8139978 132.2420014 142.3912575   7.1896552 131.4856987
 137.3359992   3.4719978 127.8720014 137.0189992   2.5689978 127.8370014
 138.1169992   3.4739978 127.3190014 137.3982307   3.3486951 127.7924314
 140.9599992   5.7239978 133.8680014 140.1249992   6.1779978 133.9780014
 141.4839992   5.9999978 134.6200014 140.9165070   5.8234666 133.9847152
 141.5049992  11.9369978 125.5520014 140.7599992  11.4289978 125.2300014
 141.3699992  11.9859978 126.4990014 141.3849047  11.8741596 125.6358845
 145.4019992   4.7509978 123.7520014 144.4639992   4.8619978 123.6000014
 145.6999992   5.6069978 124.0580014 145.3136402   4.8820621 123.7725571
 143.0239992  12.1209978 136.7890014 142.6779992  11.7389978 137.5960014
 142.8239992  13.0539978 136.8610014 142.9496523  12.1949095 136.9090735
 136.6289992  11.2319978 131.3220014 137.3739992  11.2289978 130.7210014
 136.7069992  10.4079978 131.8040014 136.7414158  11.1202916 131.3049153
 143.6299992  13.3949978 124.5780014 143.3349992  14.2219978 124.9590014
 142.9269992  12.7759978 124.7740014 143.4945471  13.4245227 124.6566698
 133.6369992   9.6919978 136.6370014 133.8599992   9.2739978 137.4690014
 133.0349992   9.0799978 136.2140014 133.5861260   9.5519933 136.6937320
 140.6539992   9.2089978 138.8500014 140.3579992   9.0439978 137.9550014
 141.5849992   8.9889978 138.8390014 140.7393982   9.1566578 138.7260045
 145.2739992  14.5829978 136.7400014 144.3739992  14.7659978 136.4720014
 145.3079992  14.8419978 137.6610014 145.1552909  14.6430815 136.8277852
 139.0039992  14.7499978 128.7260014 139.5319992  15.5229978 128.5260014
 138.1239992  14.9739978 128.4250014 138.9573176  14.8863161 128.6578409
 134.7589992   9.6119978 123.3140014 135.3749992  10.2389978 123.6930014
 133.8969992   9.9279978 123.5850014 134.7268195   9.7405798 123.4025386
 140.4319992  12.4129978 128.3030014 140.1909992  13.3379978 128.3440014
 139.6909992  11.9539978 128.6990014 140.2988390  12.4776403 128.3621404
 140.9459992  16.5619978 134.6180014 141.3089992  17.4159978 134.3840014
 141.4779992  16.2699978 135.3580014 141.0676090  16.6394058 134.6860219
 139.1149992  17.4339978 127.8480014 138.1649992  17.5399978 127.8990014
 139.4669992  18.2549978 128.1930014 139.0325480  17.5594438 127.9015999
 144.4899992  12.6609978 134.3180014 144.0649992  12.4329978 135.1450014
 145.0709992  11.9219978 134.1360014 144.5103930  12.5299843 134.4064732
 135.2709992   4.4459978 136.1950014 134.3789992   4.7839978 136.1280014
 135.1729992   3.5899978 136.6130014 135.1354965   4.3766499 136.2423044
 134.9229992  16.2499978 134.6300014 135.1399992  15.3179978 134.5990014
 135.1689992  16.5249978 135.5130014 134.9859809  16.1595686 134.7451690
 140.7839992  14.7019978 121.8390014 141.0229992  13.9529978 121.2920014
 140.5149992  14.3139978 122.6720014 140.7803233  14.5471853 121.8767809
 139.7209992  14.2719978 124.2960014 139.8679992  13.7519978 125.0860014
 139.7179992  15.1789978 124.6020014 139.7407300  14.3233964 124.4455895
 136.1739992  11.5239978 124.8060014 135.4879992  11.8769978 125.3730014
 136.6969992  12.2869978 124.5600014 136.1509033  11.6753746 124.8502661
 144.0059992   4.1869978 135.0850014 144.7049992   4.2609978 135.7350014
 143.6249992   3.3219978 135.2390014 144.0502097   4.0802389 135.1947997
 144.7899992   3.8389978 126.1820014 145.0099992   4.3099978 125.3790014
 145.3489992   4.2329978 126.8520014 144.8956730   3.9567432 126.1625906
 142.4589992  15.9689978 125.0450014 141.6419992  16.4659978 125.0970014
 142.9879992  16.4449978 124.4050014 142.4188508  16.1012543 124.9656035
 141.9899992   5.5669978 127.0170014 142.8019992   6.0709978 127.0630014
 141.7459992   5.4219978 127.9310014 142.0681467   5.6163749 127.1468575
 142.5259992   6.5529978 136.2020014 142.6449992   7.1269978 136.9590014
 143.1809992   5.8649978 136.3160014 142.6309146   6.5385574 136.3211314
 142.8739992   2.6479978 127.9550014 142.5269992   3.2649978 128.6000014
 143.5329992   3.1489978 127.4740014 142.9155949   2.8001099 127.9782271
 139.7969992  17.0129978 125.0270014 139.9579992  17.8129978 124.5260014
 139.5999992  17.3199978 125.9120014 139.7923919  17.1639129 125.0781006
 138.5319992   3.7109978 124.6420014 138.4479992   4.5989978 124.9890014
 139.4219992   3.4459978 124.8740014 138.6408163   3.7967179 124.7208596
 136.7899992  14.1379978 123.7030014 137.3819992  14.8379978 123.9790014
 137.2489992  13.7049978 122.9830014 136.9330791  14.1752908 123.6434607
 135.1059992   6.8029978 122.8190014 135.0609992   7.7419978 122.9970014
 134.2179992   6.5669978 122.5490014 134.9798555   6.8996874 122.8068939
 135.9139992   1.5839978 131.4920014 135.6849992   1.6429978 130.5640014
 135.4719992   0.7929978 131.7980014 135.8228801   1.4850540 131.4064729
 134.8449992  15.5249978 127.6520014 134.0119992  15.9969978 127.6800014
 135.3899992  16.0349978 127.0540014 134.8047590  15.6585897 127.5749194
 134.1329992  18.1369978 138.9820014 134.6729992  17.9209978 139.7420014
 133.6519992  17.3319978 138.7930014 134.1418613  17.9985400 139.0604782
 138.7299992  17.0569978 140.6030014 139.4979992  16.5979978 140.9440014
 138.7089992  16.8309978 139.6730014 138.8322135  16.9636668 140.5239491
 142.8219992  16.5649978 121.9780014 142.1779992  15.9339978 122.2990014
 143.5839992  16.0339978 121.7460014 142.8368058  16.4067902 121.9906038
 145.3069992  15.4369978 139.3320014 144.9559992  14.5799978 139.5750014
 146.0329992  15.5789978 139.9390014 145.3571590  15.3390178 139.4472907
 134.0399992  11.9479978 139.9370014 134.1839992  11.0459978 139.6500014
 133.2679992  12.2339978 139.4490014 133.9553303  11.8633243 139.8317908
 138.3809992  12.2909978 122.0690014 138.4459992  11.4969978 122.6000014
 139.0339992  12.1729978 121.3790014 138.4781754  12.1663337 122.0484259
 140.6949992  11.9169978 139.3690014 140.3669992  12.1879978 138.5120014
 140.8469992  10.9759978 139.2820014 140.6706030  11.8268973 139.2397945
 143.7339992  13.3379978 121.8050014 143.4649992  13.5189978 122.7060014
 143.5269992  12.4129978 121.6740014 143.6692000  13.2376774 121.9105693
 134.8729992   9.1479978 139.3570014 135.2809992   8.2909978 139.2360014
 134.6119992   9.1619978 140.2780014 134.8936016   9.0325119 139.4649192
 139.5309992  10.2639978 124.3750014 139.0709992   9.7799978 125.0610014
 139.7859992   9.5949978 123.7390014 139.5025038  10.1073689 124.3829447
 138.8199992   8.1569978 136.7310014 138.2009992   8.8309978 137.0110014
 139.1639992   8.4779978 135.8980014 138.7817605   8.2927198 136.6566707
 140.6019992   8.5069978 122.6370014 140.4209992   8.3519978 121.7100014
 141.5519992   8.6149978 122.6820014 140.7056566   8.5003669 122.5160929
 143.8389992  10.6279978 140.0080014 144.7929992  10.7119978 139.9810014
 143.6789992   9.9159978 140.6280014 143.9477182  10.5432842 140.0880733
 139.1589992   5.5119978 137.8130014 139.3089992   4.7829978 137.2110014
 139.1609992   6.2889978 137.2540014 139.1797967   5.5172708 137.6550541
 139.5719992   3.8809978 135.3060014 140.1069992   4.3329978 134.6540014
 138.7189992   3.7729978 134.8830014 139.5300374   3.9282665 135.1596710
 141.1529992   9.3209978 135.5450014 141.9039992   9.1649978 134.9720014
 140.8139992  10.1729978 135.2700014 141.2099587   9.4148138 135.4294078
 145.5689992   7.1359978 140.5740014 145.7609992   6.2049978 140.4620014
 146.4269992   7.5609978 140.5640014 145.7112269   7.0659928 140.5573192
 137.6379992   6.7099978 139.7250014 136.8699992   6.1769978 139.5150014
 138.3159992   6.3999978 139.1250014 137.6246973   6.5952375 139.6151796
 140.3769992   1.3379978 135.7370014 140.2789992   2.2839978 135.6320014
 139.6349992   0.9649978 135.2620014 140.2631913   1.4171813 135.6583539
 141.6409992   5.6589978 139.3010014 141.4059992   5.4399978 140.2030014
 140.8579992   5.4519978 138.7910014 141.5029219   5.6010066 139.3555852
 144.3569992   4.7869978 138.3770014 143.4089992   4.8189978 138.5090014
 144.6689992   4.1609978 139.0300014 144.2695190   4.7067262 138.4833563
 135.8179992   4.6299978 139.4290014 136.0299992   3.9239978 138.8190014
 135.7069992   4.1929978 140.2730014 135.8320269   4.4741921 139.4595873
 140.5989992   0.6319978 138.4090014 141.3109992  -0.0080022 138.3950014
 140.4979992   0.8979978 137.4950014 140.6827261   0.5804190 138.2835537
 140.9529992   2.3139978 140.4620014 140.8209992   1.8389978 139.6420014
 140.3529992   3.0589978 140.4070014 140.8539070   2.3495789 140.3423251
 140.4989992  19.1969978 123.6390014 141.4319992  19.3549978 123.7820014
 140.2349992  19.8729978 123.0140014 140.5909308  19.3099104 123.5741396
 134.0669992  13.8339978 123.1210014 134.9809992  13.9129978 123.3950014
 134.0749992  13.1469978 122.4550014 134.1931143  13.7519085 123.0684274
 132.7159992  19.2269978 128.1990014 132.0689992  18.7649978 127.6660014
 133.0709992  18.5549978 128.7810014 132.6754506  19.0729503 128.2047341
 133.5859992  17.3069978 130.0030014 133.2519992  16.4269978 130.1750014
 133.8089992  17.6529978 130.8680014 133.5703721  17.2331938 130.1434168
 133.6659992  10.3829978 132.4550014 133.8509992  10.3009978 131.5190014
 134.5159992  10.2589978 132.8790014 133.8060916  10.3550393 132.3842896
 133.2639992   5.6529978 138.5960014 134.1829992   5.5309978 138.8320014
 132.8139992   4.9029978 138.9850014 133.3291148   5.5348751 138.6809408
 134.4849992   3.9659978 131.4870014 134.9299992   3.1739978 131.7890014
 134.9509992   4.6819978 131.9180014 134.6089059   3.9544474 131.5866079
 132.7889992   6.9649978 132.5560014 133.2809992   6.7439978 131.7650014
 133.1509992   7.8049978 132.8370014 132.9052923   7.0483468 132.4857407
 133.1029992   3.2229978 126.6100014 132.1779992   3.4309978 126.4810014
 133.5569992   3.7069978 125.9210014 133.0376374   3.3169949 126.4990957
 133.0659992   1.9609978 134.9550014 132.4009992   1.7149978 135.5980014
 132.6229992   2.5829978 134.3770014 132.9150937   2.0113614 134.9649379
 135.2579992  15.1359978 139.0990014 134.4369992  15.3109978 138.6390014
 135.0059992  15.0629978 140.0200014 135.1116173  15.1500794 139.1604972
 138.2119992  16.1099978 135.3580014 137.7879992  16.9199978 135.0750014
 139.1169992  16.1959978 135.0560014 138.2762433  16.2323331 135.2785377
 142.5239992  17.5089978 138.3170014 142.7079992  17.1759978 139.1950014
 143.3699992  17.8189978 137.9950014 142.6636484  17.5052979 138.3937617
 144.8689992  18.7949978 137.5610014 145.5459992  18.1619978 137.3210014
 145.1899992  19.1959978 138.3680014 145.0051323  18.7625691 137.6373158
 135.6139992  19.3669978 135.4050014 134.8939992  19.8069978 134.9540014
 135.2489992  19.1159978 136.2540014 135.4659796  19.3933824 135.4579329
 138.0809992  18.9669978 134.4350014 137.2169992  19.0389978 134.8390014
 138.0259992  19.5139978 133.6510014 137.9551942  19.0507849 134.3844000
 142.7919992  18.8549978 133.6100014 142.3349992  19.3839978 132.9560014
 142.9549992  19.4579978 134.3360014 142.7514476  19.0089140 133.6185499
 145.1199992  17.7329978 134.5550014 144.2149992  17.8979978 134.2900014
 145.5479992  18.5859978 134.4900014 145.0540700  17.8709529 134.5099520
 135.0289992  17.9899978 132.3150014 135.0109992  17.5639978 133.1730014
 135.8339992  17.6709978 131.9070014 135.1353221  17.8887233 132.3770225
 137.1699992  16.6999978 130.9700014 136.9509992  15.7829978 131.1400014
 137.9939992  16.8399978 131.4360014 137.2514702  16.5935511 131.0562527
 139.7069992  17.1699978 131.8190014 139.9199992  16.2819978 131.5320014
 139.7719992  17.1349978 132.7740014 139.7449075  17.0438307 131.9087373
 143.2159992   2.8339978 130.9630014 142.5419992   2.2039978 131.2190014
 143.7799992   2.3499978 130.3600014 143.2000384   2.6823708 130.9165020
 135.5429992   1.4679978 128.7850014 134.7659992   1.2329978 128.2780014
 136.0729992   0.6709978 128.7940014 135.5083451   1.3281268 128.7168627
 134.3789992   1.2659978 124.5890014 134.8179992   1.8769978 123.9970014
 133.7449992   1.8039978 125.0630014 134.3533859   1.4224064 124.5720305
 140.1219992   1.3939978 128.5990014 140.9959992   1.7829978 128.5690014
 139.9859992   1.1789978 129.5210014 140.2233207   1.4181923 128.7196509
 134.2799992  17.2139978 125.4870014 133.5949992  17.1759978 124.8190014
 134.2839992  18.1269978 125.7750014 134.1868174  17.3321998 125.4345310
 136.2399992   3.1819978 123.0310014 136.7309992   2.5519978 122.5040014
 136.8629992   3.4779978 123.6950014 136.3915062   3.1356770 123.0485438
 141.2659992   3.4749978 125.4890014 141.4439992   2.8279978 126.1710014
 141.2119992   4.3089978 125.9560014 141.2831025   3.4990504 125.6456433
 143.1439992  18.4229978 123.8840014 144.0099992  18.7899978 123.7060014
 142.8979992  17.9839978 123.0700014 143.2292097  18.4138525 123.7496019
 135.4999992   1.9819978 138.3030014 135.1339992   1.2159978 138.7460014
 136.4129992   2.0109978 138.5900014 135.5733225   1.8811906 138.4023459
 137.4729992   1.3319978 139.8390014 138.3719992   1.0579978 139.6540014
 137.0869992   0.5899978 140.3030014 137.5437237   1.1941508 139.8764710
 136.0979992  18.1339978 122.5120014 135.8299992  18.4199978 123.3850014
 136.8689992  17.5879978 122.6640014 136.1655600  18.0993330 122.6521499
  12.6289992  29.4799978 128.7440014  12.7179992  30.4239978 128.6120014
  11.9909992  29.2049978 128.0860014  12.5549062  29.5719812 128.6369641
  11.5619992  28.7349978 132.1630014  11.5239992  28.0889978 132.8680014
  11.2399992  28.2679978 131.3920014  11.5132679  28.5834276 132.1552921
   3.9299992  28.3489978 133.7560014   3.9719992  27.7239978 134.4790014
   4.6329992  28.9729978 133.9380014   4.0307345  28.3477873 133.8795274
  15.2679992  31.6739978 130.4650014  14.8269992  30.9539978 130.9150014
  15.2549992  32.3949978 131.0940014  15.2057960  31.6728329 130.6117567
   4.8539992  32.7989978 132.2910014   4.4839992  31.9969978 131.9210014
   5.7949992  32.6309978 132.3370014   4.9305984  32.6664638 132.2465603
   1.4639992  26.4589978 127.6840014   1.0159992  27.3049978 127.6650014
   0.9029992  25.8799978 127.1680014   1.3269603  26.4963674 127.6116720
   2.1739992  28.6209978 129.8100014   2.3879992  27.8509978 130.3370014
   2.9119992  28.7109978 129.2060014   2.3029652  28.5278012 129.8005212
  12.3799992  36.7779978 130.6770014  12.9989992  36.1019978 130.4030014
  12.1709992  36.5599978 131.5850014  12.4366232  36.6557938 130.7622517
   9.9509992  31.1669978 132.5690014  10.2549992  30.4809978 131.9750014
  10.6729992  31.2859978 133.1870014  10.0901152  31.0892189 132.5712123
  18.6139992  22.7689978 133.4300014  18.6639992  23.3789978 134.1660014
  19.0399992  23.2299978 132.7070014  18.6784108  22.9147709 133.4330112
  13.0919992  25.5609978 132.8970014  13.2349992  24.6149978 132.9170014
  12.9859992  25.7679978 131.9680014  13.0972509  25.4594813 132.7742231
   6.2469992  23.6629978 130.1690014   6.2899992  24.5229978 129.7510014
   5.7889992  23.1109978 129.5350014   6.1909815  23.7060621 130.0261197
  13.9689992  23.7939978 128.5700014  14.6159992  23.4649978 129.1950014
  14.4789992  24.3109978 127.9470014  14.1264317  23.8189227 128.5712167
   2.8669992  26.0599978 130.9310014   3.5209992  25.5099978 131.3630014
   2.8909992  25.7859978 130.0140014   2.9597199  25.9477167 130.8661668
   8.0239992  27.6099978 130.1460014   8.6399992  27.0829978 130.6560014
   7.4369992  26.9699978 129.7430014   8.0289239  27.4514117 130.1612952
  19.0059992  24.2469978 135.6660014  18.3169992  24.9049978 135.5700014
  19.0209992  24.0489978 136.6020014  18.9136740  24.3103243 135.7794630
   5.0569992  22.5809978 134.2430014   4.8379992  23.1109978 133.4770014
   4.3889992  22.8069978 134.8900014   4.9367001  22.6841154 134.2256064
  12.4259992  32.0809978 127.7870014  12.1309992  31.7579978 126.9360014
  12.1019992  32.9809978 127.8280014  12.3417983  32.1584026 127.6759771
   7.6259992  30.2559978 134.5310014   6.8859992  30.8549978 134.6340014
   8.3399992  30.8099978 134.2150014   7.6213288  30.4127356 134.5023805
  15.7329992  23.0849978 130.5500014  15.5179992  22.3189978 131.0830014
  16.3889992  23.5569978 131.0630014  15.7922673  23.0440728 130.6921990
   4.6509992  24.4729978 132.1950014   5.2649992  25.1059978 132.5690014
   5.1629992  24.0009978 131.5390014   4.8042277  24.4957352 132.1574279
   6.0339992  32.2209978 135.3180014   6.0279992  33.0999978 134.9400014
   5.1799992  32.1369978 135.7430014   5.9177925  32.3299535 135.3236887
   2.1549992  31.8919978 126.1000014   1.8829992  32.1209978 125.2110014
   2.1999992  32.7289978 126.5600014   2.1238709  32.0366058 126.0406107
  15.7799992  33.5129978 132.8120014  14.8379992  33.5719978 132.9740014
  16.0559992  34.4189978 132.6750014  15.6885865  33.6435288 132.8156192
  16.0799992  21.7999978 134.2300014  15.3439992  22.4099978 134.1920014
  16.7639992  22.2149978 133.7030014  16.0715506  21.9396400 134.1536051
   9.0839992  19.8859978 131.6960014   8.9659992  18.9379978 131.6410014
   8.2289992  20.2189978 131.9690014   8.9522679  19.8011926 131.7253720
  14.0319992  35.2939978 129.4380014  14.4569992  34.5869978 128.9530014
  14.3489992  36.0959978 129.0210014  14.1330266  35.3055190 129.3152479
  15.1919992  33.1949978 127.9460014  14.9339992  32.5049978 127.3350014
  15.2629992  32.7519978 128.7920014  15.1662837  33.0407106 127.9766912
  16.8779992  31.7619978 136.4240014  17.0169992  31.1699978 135.6840014
  17.0449992  32.6349978 136.0670014  16.9195562  31.7989896 136.2746283
  11.3499992  28.7239978 126.1960014  10.6389992  29.2589978 125.8440014
  12.0409992  28.7789978 125.5360014  11.3460751  28.8046777 126.0585858
  11.4039992  27.1809978 123.2350014  12.1049992  27.2039978 123.8860014
  11.7059992  26.5529978 122.5790014  11.5408282  27.0992339 123.2354496
  18.7189992  28.1019978 134.4900014  18.0669992  28.7959978 134.5790014
  19.1849992  28.3119978 133.6800014  18.6925937  28.2255019 134.3927533
  14.7559992  28.9329978 127.1480014  14.0239992  29.1619978 127.7210014
  15.2029992  28.2199978 127.6030014  14.7162753  28.8678972 127.2879715
  14.6529992  27.1079978 136.2160014  14.7329992  27.8709978 136.7870014
  14.0519992  27.3869978 135.5250014  14.5827245  27.2502630 136.2008424
   6.4009992  29.5639978 129.0300014   6.0709992  29.1929978 128.2120014
   6.9899992  28.8929978 129.3770014   6.4353970  29.4226063 128.9649404
   7.7679992  32.9919978 131.7120014   7.6729992  32.4129978 130.9550014
   8.4969992  32.6209978 132.2080014   7.8536161  32.8625891 131.6755209
   6.7679992  28.3319978 132.6640014   7.3329992  28.4539978 131.9010014
   7.0869992  28.9699978 133.3030014   6.8883977  28.4348851 132.6459424
  13.0769992  33.8359978 133.3980014  12.8369992  34.4979978 134.0460014
  12.8789992  33.0009978 133.8230014  13.0173826  33.8138115 133.5441566
   7.6479992  32.7319978 137.3810014   7.3369992  33.5139978 137.8360014
   6.9979992  32.5789978 136.6950014   7.5175538  32.8184087 137.3505898
  13.6269992  28.0959978 124.8330014  14.2059992  28.2459978 125.5800014
  14.0409992  28.5659978 124.1100014  13.7623122  28.1801277 124.8375042
   4.5679992  28.9299978 136.6100014   4.6379992  29.5809978 137.3080014
   3.6769992  29.0329978 136.2750014   4.4571802  29.0329757 136.6602249
  11.3529992  34.8319978 128.2680014  11.8269992  35.1279978 129.0460014
  10.7899992  35.5709978 128.0350014  11.3417361  34.9722721 128.3428611
   5.8869992  34.8029978 138.1440014   5.8949992  34.6669978 137.1970014
   4.9709992  34.6859978 138.3960014   5.7642528  34.7685463 138.0483243
  17.3259992  19.8459978 124.6460014  16.4259992  19.9849978 124.9410014
  17.5779992  20.6769978 124.2440014  17.2368683  19.9774055 124.6320232
   5.3919992  28.6329978 126.6200014   5.0999992  29.4009978 126.1290014
   4.7169992  27.9739978 126.4570014   5.2608497  28.6489745 126.5308260
  18.5149992  34.2119978 123.0220014  18.5879992  35.1509978 123.1930014
  19.4199992  33.9069978 122.9660014  18.6474158  34.2993061 123.0378392
   1.4849992  30.9959978 135.4350014   0.9829992  30.9679978 134.6200014
   1.4899992  30.0909978 135.7440014   1.4170416  30.8697368 135.3653766
   1.2349992  33.7769978 132.3190014   2.1809992  33.6319978 132.3000014
   1.1219992  34.5609978 132.8560014   1.3493578  33.8631697 132.3890317
  19.4329992  34.4429978 138.0010014  19.3829992  33.4869978 137.9640014
  18.6059992  34.7099978 138.4020014  19.3143987  34.3485174 138.0501446
  10.4109992  34.0169978 136.8770014  10.4989992  34.8429978 137.3520014
   9.5479992  33.6869978 137.1260014  10.3063357  34.0855468 136.9757653
  10.8259992  37.7889978 126.6830014  10.7499992  37.6679978 125.7370014
  10.8579992  38.7379978 126.8020014  10.8199156  37.9007530 126.5695048
   4.4789992  36.5779978 128.4640014   4.6309992  36.2299978 129.3430014
   3.6279992  36.2209978 128.2090014   4.3847899  36.4821738 128.5497340
  13.9269992  36.9429978 123.6850014  14.3019992  36.1989978 123.2150014
  13.9319992  36.6729978 124.6040014  13.9790024  36.8046950 123.7447987
  13.5959992  36.8689978 126.4350014  12.6609992  36.9689978 126.6130014
  13.8759992  36.1589978 127.0130014  13.5058173  36.7867239 126.5374998
  16.5849992  25.9359978 138.4810014  16.1769992  26.4159978 137.7610014
  16.6249992  25.0299978 138.1730014  16.5345476  25.8793160 138.3408247
   3.7339992  32.3199978 136.4780014   3.9499992  31.9579978 137.3370014
   2.8779992  31.9449978 136.2680014   3.6479354  32.2197906 136.5672160
   6.3519992  20.7899978 132.4730014   5.4909992  20.7029978 132.0660014
   6.3299992  21.6459978 132.9010014   6.2310411  20.8937884 132.4750857
  11.0149992  20.5119978 135.8480014  11.4349992  20.0969978 136.6010014
  10.0819992  20.3329978 135.9650014  10.9463736  20.4309910 135.9668968
  14.3419992  24.2669978 136.7010014  13.8279992  24.1419978 137.4990014
  14.1859992  25.1799978 136.4570014  14.2506967  24.3732123 136.7770937
  15.1039992  29.1279978 122.4630014  15.1459992  28.9059978 121.5330014
  15.9529992  29.5269978 122.6530014  15.2245253  29.1515498 122.3613822
  10.6769992  23.0039978 123.1330014  10.4229992  23.0229978 124.0560014
  10.4199992  22.1329978 122.8320014  10.6075133  22.8888110 123.2185082
   6.4429992  25.7549978 133.5680014   5.8019992  25.7149978 134.2770014
   6.4809992  26.6819978 133.3310014   6.3603670  25.8747795 133.6330550
   6.4399992  25.9759978 128.4800014   5.5479992  25.6359978 128.4220014
   6.8909992  25.5989978 127.7250014   6.3786815  25.8783762 128.3699203
  11.9759992  26.3919978 127.2970014  11.5669992  27.2069978 127.0060014
  12.6959992  26.2519978 126.6830014  12.0174013  26.4846571 127.1740875
  11.0779992  26.5679978 138.7850014  10.5149992  25.8629978 139.1060014
  11.9039992  26.4469978 139.2530014  11.1126674  26.4552165 138.8921751
  12.9809992  25.8379978 130.1110014  12.7849992  26.4439978 129.3960014
  13.1619992  25.0049978 129.6770014  12.9786584  25.8082513 129.9544212
   4.1929992  26.0759978 135.4350014   4.1549992  26.4759978 136.3040014
   3.7029992  25.2589978 135.5260014   4.1215621  26.0202510 135.5661377
   7.5589992  23.4499978 122.2340014   7.1279992  23.0049978 122.9640014
   6.8409992  23.8209978 121.7220014   7.4029363  23.4392968 122.2646211
   0.8019992  23.1919978 129.2860014   1.4319992  23.1629978 130.0050014
   1.2509992  22.7669978 128.5560014   0.9490692  23.1305316 129.2857771
   2.0759992  23.9379978 124.7100014   2.5499992  24.5289978 124.1250014
   1.3579992  24.4679978 125.0570014   2.0438640  24.0905511 124.6767969
  12.2449992  27.4759978 134.7830014  12.5679992  26.8449978 134.1400014
  11.8039992  26.9419978 135.4430014  12.2295789  27.3173522 134.7842232
   9.0219992  23.4039978 129.5670014   8.1109992  23.4609978 129.8550014
   9.5269992  23.3439978 130.3770014   8.9655387  23.4036870 129.7160646
   3.8499992  25.0329978 128.3930014   2.9609992  25.1319978 128.0530014
   4.1469992  24.1909978 128.0470014   3.7684177  24.9327687 128.2996940
   7.5029992  25.0329978 126.0500014   8.4349992  25.1619978 126.2280014
   7.2879992  25.7019978 125.4000014   7.6014472  25.1410806 125.9864891
  13.4269992  22.6389978 132.8310014  12.7499992  22.7699978 133.4950014
  12.9419992  22.4839978 132.0210014  13.2687265  22.6359659 132.8123397
   6.1769992  26.2269978 123.6170014   5.6349992  25.8479978 122.9250014
   7.0109992  26.4219978 123.1880014   6.2155159  26.2015076 123.4644419
  16.7149992  38.3099978 139.1080014  16.9139992  38.7339978 138.2730014
  17.3699992  38.6539978 139.7150014  16.8308501  38.4146091 139.0757097
   4.3129992  30.7839978 138.7160014   5.0449992  31.0389978 139.2770014
   3.5319992  30.9889978 139.2310014   4.3077684  30.8466468 138.8624782
  10.3419992  26.1909978 131.4540014  10.9059992  25.6449978 130.9070014
  10.1939992  25.6699978 132.2420014  10.3992575  26.0456552 131.4856987
   5.3439992  22.3279978 127.8720014   5.0269992  21.4249978 127.8370014
   6.1249992  22.3299978 127.3190014   5.4062307  22.2046951 127.7924314
   8.9679992  24.5799978 133.8680014   8.1329992  25.0339978 133.9780014
   9.4919992  24.8559978 134.6200014   8.9245070  24.6794666 133.9847152
   9.5129992  30.7929978 125.5520014   8.7679992  30.2849978 125.2300014
   9.3779992  30.8419978 126.4990014   9.3929047  30.7301596 125.6358845
  16.6629992  29.9259978 134.3390014  17.3039992  30.3819978 133.7950014
  15.8319992  30.0389978 133.8770014  16.6385171  30.0037502 134.2020237
  13.4099992  23.6069978 123.7520014  12.4719992  23.7179978 123.6000014
  13.7079992  24.4629978 124.0580014  13.3216402  23.7380621 123.7725571
  11.0319992  30.9769978 136.7890014  10.6859992  30.5949978 137.5960014
  10.8319992  31.9099978 136.8610014  10.9576523  31.0509095 136.9090735
  14.1289992  25.4739978 125.4120014  15.0209992  25.3359978 125.7310014
  14.1849992  26.2649978 124.8760014  14.2587107  25.5620526 125.3832091
   4.6369992  30.0879978 131.3220014   5.3819992  30.0849978 130.7210014
   4.7149992  29.2639978 131.8040014   4.7494158  29.9762916 131.3049153
  11.6379992  32.2509978 124.5780014  11.3429992  33.0779978 124.9590014
  10.9349992  31.6319978 124.7740014  11.5025471  32.2805227 124.6566698
   1.6449992  28.5479978 136.6370014   1.8679992  28.1299978 137.4690014
   1.0429992  27.9359978 136.2140014   1.5941260  28.4079933 136.6937320
   8.6619992  28.0649978 138.8500014   8.3659992  27.8999978 137.9550014
   9.5929992  27.8449978 138.8390014   8.7473982  28.0126578 138.7260045
  13.2819992  33.4389978 136.7400014  12.3819992  33.6219978 136.4720014
  13.3159992  33.6979978 137.6610014  13.1632909  33.4990815 136.8277852
  19.0139992  25.6829978 125.1070014  18.4589992  25.2869978 124.4350014
  19.1139992  26.5939978 124.8290014  18.9515888  25.7518990 124.9775206
  18.9769992  31.4839978 137.9440014  18.1259992  31.7219978 137.5770014
  19.5669992  31.4669978 137.1910014  18.9402408  31.5142966 137.7918879
  17.3089992  34.4689978 125.5720014  16.9359992  33.6439978 125.8810014
  17.5859992  34.2859978 124.6750014  17.2953871  34.3312441 125.4929677
  14.4689992  29.2769978 132.5930014  13.5409992  29.0459978 132.5660014
  14.9199992  28.4999978 132.2630014  14.4028165  29.1402774 132.5446790
   7.0119992  33.6059978 128.7260014   7.5399992  34.3789978 128.5260014
   6.1319992  33.8299978 128.4250014   6.9653176  33.7423161 128.6578409
   2.7669992  28.4679978 123.3140014   3.3829992  29.0949978 123.6930014
   1.9049992  28.7839978 123.5850014   2.7348195  28.5965798 123.4025386
   8.4399992  31.2689978 128.3030014   8.1989992  32.1939978 128.3440014
   7.6989992  30.8099978 128.6990014   8.3068390  31.3336403 128.3621404
   8.9539992  35.4179978 134.6180014   9.3169992  36.2719978 134.3840014
   9.4859992  35.1259978 135.3580014   9.0756090  35.4954058 134.6860219
   7.1229992  36.2899978 127.8480014   6.1729992  36.3959978 127.8990014
   7.4749992  37.1109978 128.1930014   7.0405480  36.4154438 127.9015999
  12.4979992  31.5169978 134.3180014  12.0729992  31.2889978 135.1450014
  13.0789992  30.7779978 134.1360014  12.5183930  31.3859843 134.4064732
  14.7009992  32.4459978 123.3920014  15.0549992  32.0659978 124.1970014
  13.7529992  32.3519978 123.4790014  14.6211820  32.3813092 123.5138714
  15.1569992  36.0689978 136.7880014  14.5549992  35.5129978 136.2920014
  15.4379992  36.7359978 136.1620014  15.1126829  36.0831613 136.6355443
  19.2049992  36.9249978 123.5930014  19.9489992  37.5109978 123.4530014
  18.5109992  37.4939978 123.9270014  19.2130201  37.0820603 123.6189772
   3.2789992  23.3019978 136.1950014   2.3869992  23.6399978 136.1280014
   3.1809992  22.4459978 136.6130014   3.1434965  23.2326499 136.2423044
  15.5669992  31.1179978 125.6190014  15.2899992  30.3899978 126.1750014
  16.4949992  31.2369978 125.8240014  15.6544499  31.0344213 125.7228044
   2.9309992  35.1059978 134.6300014   3.1479992  34.1739978 134.5990014
   3.1769992  35.3809978 135.5130014   2.9939809  35.0155686 134.7451691
   8.7919992  33.5579978 121.8390014   9.0309992  32.8089978 121.2920014
   8.5229992  33.1699978 122.6720014   8.7883233  33.4031853 121.8767809
   7.7289992  33.1279978 124.2960014   7.8759992  32.6079978 125.0860014
   7.7259992  34.0349978 124.6020014   7.7487300  33.1793964 124.4455895
   4.1819992  30.3799978 124.8060014   3.4959992  30.7329978 125.3730014
   4.7049992  31.1429978 124.5600014   4.1589033  30.5313746 124.8502661
  12.0139992  23.0429978 135.0850014  12.7129992  23.1169978 135.7350014
  11.6329992  22.1779978 135.2390014  12.0582097  22.9362389 135.1947997
  12.7979992  22.6949978 126.1820014  13.0179992  23.1659978 125.3790014
  13.3569992  23.0889978 126.8520014  12.9036730  22.8127432 126.1625906
  10.4669992  34.8249978 125.0450014   9.6499992  35.3219978 125.0970014
  10.9959992  35.3009978 124.4050014  10.4268508  34.9572543 124.9656035
   9.9979992  24.4229978 127.0170014  10.8099992  24.9269978 127.0630014
   9.7539992  24.2779978 127.9310014  10.0761467  24.4723749 127.1468575
  10.5339992  25.4089978 136.2020014  10.6529992  25.9829978 136.9590014
  11.1889992  24.7209978 136.3160014  10.6389146  25.3945574 136.3211314
  10.8819992  21.5039978 127.9550014  10.5349992  22.1209978 128.6000014
  11.5409992  22.0049978 127.4740014  10.9235949  21.6561099 127.9782271
   7.8049992  35.8689978 125.0270014   7.9659992  36.6689978 124.5260014
   7.6079992  36.1759978 125.9120014   7.8003919  36.0199129 125.0781006
   6.5399992  22.5669978 124.6420014   6.4559992  23.4549978 124.9890014
   7.4299992  22.3019978 124.8740014   6.6488163  22.6527179 124.7208596
  16.7379992  23.3159978 137.0370014  15.8219992  23.5779978 136.9490014
  17.0739992  23.3129978 136.1400014  16.6579789  23.3514626 136.9037847
  15.3409992  27.0659978 131.1320014  14.5429992  26.6509978 130.8040014
  15.7859992  26.3759978 131.6230014  15.2919684  26.9158628 131.1535227
   4.7979992  32.9939978 123.7030014   5.3899992  33.6939978 123.9790014
   5.2569992  32.5609978 122.9830014   4.9410791  33.0312908 123.6434607
   3.1139992  25.6589978 122.8190014   3.0689992  26.5979978 122.9970014
   2.2259992  25.4229978 122.5490014   2.9878555  25.7556874 122.8068939
  16.4269992  36.3219978 132.7550014  16.2709992  37.0009978 132.0980014
  17.3599992  36.3939978 132.9580014  16.5317387  36.4246390 132.6925342
   3.9219992  20.4399978 131.4920014   3.6929992  20.4989978 130.5640014
   3.4799992  19.6489978 131.7980014   3.8308801  20.3410540 131.4064729
   2.8529992  34.3809978 127.6520014   2.0199992  34.8529978 127.6800014
   3.3979992  34.8909978 127.0540014   2.8127590  34.5145897 127.5749194
   2.1409992  36.9929978 138.9820014   2.6809992  36.7769978 139.7420014
   1.6599992  36.1879978 138.7930014   2.1498613  36.8545400 139.0604782
   6.7379992  35.9129978 140.6030014   7.5059992  35.4539978 140.9440014
   6.7169992  35.6869978 139.6730014   6.8402135  35.8196668 140.5239491
  10.8299992  35.4209978 121.9780014  10.1859992  34.7899978 122.2990014
  11.5919992  34.8899978 121.7460014  10.8448058  35.2627902 121.9906038
  13.3149992  34.2929978 139.3320014  12.9639992  33.4359978 139.5750014
  14.0409992  34.4349978 139.9390014  13.3651590  34.1950178 139.4472907
  15.4349992  35.2379978 122.2120014  15.7179992  34.4429978 122.6640014
  16.1739992  35.4709978 121.6510014  15.5736956  35.1607031 122.1979822
   2.0479992  30.8039978 139.9370014   2.1919992  29.9019978 139.6500014
   1.2759992  31.0899978 139.4490014   1.9633303  30.7193243 139.8317908
   6.3889992  31.1469978 122.0690014   6.4539992  30.3529978 122.6000014
   7.0419992  31.0289978 121.3790014   6.4861754  31.0223337 122.0484259
   8.7029992  30.7729978 139.3690014   8.3749992  31.0439978 138.5120014
   8.8549992  29.8319978 139.2820014   8.6786030  30.6828973 139.2397945
  11.7419992  32.1939978 121.8050014  11.4729992  32.3749978 122.7060014
  11.5349992  31.2689978 121.6740014  11.6772000  32.0936774 121.9105693
  14.4379992  30.6889978 136.7530014  15.1829992  31.2779978 136.6330014
  13.6809992  31.2709978 136.8160014  14.4375205  30.8481997 136.7451119
   2.8809992  28.0039978 139.3570014   3.2889992  27.1469978 139.2360014
   2.6199992  28.0179978 140.2780014   2.9016016  27.8885119 139.4649192
   7.5389992  29.1199978 124.3750014   7.0789992  28.6359978 125.0610014
   7.7939992  28.4509978 123.7390014   7.5105038  28.9633689 124.3829447
   6.8279992  27.0129978 136.7310014   6.2089992  27.6869978 137.0110014
   7.1719992  27.3339978 135.8980014   6.7897605  27.1487198 136.6566707
   8.6099992  27.3629978 122.6370014   8.4289992  27.2079978 121.7100014
   9.5599992  27.4709978 122.6820014   8.7136566  27.3563669 122.5160929
  11.8469992  29.4839978 140.0080014  12.8009992  29.5679978 139.9810014
  11.6869992  28.7719978 140.6280014  11.9557182  29.3992842 140.0880733
  17.9999992  29.7169978 122.0830014  17.7259992  29.2929978 121.2700014
  18.0389992  30.6489978 121.8660014  17.9677716  29.7848827 121.9424286
   7.1669992  24.3679978 137.8130014   7.3169992  23.6389978 137.2110014
   7.1689992  25.1449978 137.2540014   7.1877967  24.3732708 137.6550541
   7.5799992  22.7369978 135.3060014   8.1149992  23.1889978 134.6540014
   6.7269992  22.6289978 134.8830014   7.5380374  22.7842665 135.1596710
   9.1609992  28.1769978 135.5450014   9.9119992  28.0209978 134.9720014
   8.8219992  29.0289978 135.2700014   9.2179587  28.2708138 135.4294078
  13.5769992  25.9919978 140.5740014  13.7689992  25.0609978 140.4620014
  14.4349992  26.4169978 140.5640014  13.7192269  25.9219928 140.5573192
  14.8939992  28.7809978 138.6510014  14.6119992  29.4899978 138.0740014
  15.8359992  28.7079978 138.5000014  14.9827656  28.8683128 138.5514809
   5.6459992  25.5659978 139.7250014   4.8779992  25.0329978 139.5150014
   6.3239992  25.2559978 139.1250014   5.6326973  25.4512375 139.6151796
   8.3849992  20.1939978 135.7370014   8.2869992  21.1399978 135.6320014
   7.6429992  19.8209978 135.2620014   8.2711913  20.2731813 135.6583539
   9.6489992  24.5149978 139.3010014   9.4139992  24.2959978 140.2030014
   8.8659992  24.3079978 138.7910014   9.5109219  24.4570066 139.3555852
  12.3649992  23.6429978 138.3770014  11.4169992  23.6749978 138.5090014
  12.6769992  23.0169978 139.0300014  12.2775190  23.5627262 138.4833564
  13.9989992  22.2769978 140.3820014  13.9019992  21.3249978 140.3760014
  13.6769992  22.5449978 141.2420014  13.9421761  22.1829744 140.4974936
   3.8259992  23.4859978 139.4290014   4.0379992  22.7799978 138.8190014
   3.7149992  23.0489978 140.2730014   3.8400269  23.3301921 139.4595873
   8.6069992  19.4879978 138.4090014   9.3189992  18.8479978 138.3950014
   8.5059992  19.7539978 137.4950014   8.6907261  19.4364190 138.2835537
   8.9609992  21.1699978 140.4620014   8.8289992  20.6949978 139.6420014
   8.3609992  21.9149978 140.4070014   8.8619070  21.2055789 140.3423251
   8.5069992  38.0529978 123.6390014   9.4399992  38.2109978 123.7820014
   8.2429992  38.7289978 123.0140014   8.5989308  38.1659104 123.5741396
   2.0749992  32.6899978 123.1210014   2.9889992  32.7689978 123.3950014
   2.0829992  32.0029978 122.4550014   2.2011143  32.6079085 123.0684274
   0.7239992  38.0829978 128.1990014   0.0769992  37.6209978 127.6660014
   1.0789992  37.4109978 128.7810014   0.6834506  37.9289503 128.2047341
   1.5939992  36.1629978 130.0030014   1.2599992  35.2829978 130.1750014
   1.8169992  36.5089978 130.8680014   1.5783721  36.0891938 130.1434168
  19.1429992  36.9729978 132.9840014  19.1209992  37.1579978 133.9230014
  19.8329992  37.5409978 132.6430014  19.2333439  37.0751887 133.0664791
  18.7059992  36.5399978 135.9060014  18.2189992  35.8049978 135.5350014
  19.2549992  36.1459978 136.5840014  18.7135247  36.3861057 135.9468461
  17.1569992  32.3299978 140.5440014  16.2909992  32.2249978 140.9380014
  17.5329992  33.0879978 140.9900014  17.0893401  32.4181708 140.6582620
  18.4579992  30.5859978 126.0580014  19.3079992  31.0069978 126.1850014
  18.4629992  29.8459978 126.6650014  18.5751143  30.5436094 126.1574750
  18.8519992  28.6399978 127.8820014  18.1259992  28.1599978 128.2790014
  19.4339992  28.8449978 128.6140014  18.8311635  28.6019166 128.0353748
  18.6109992  31.4249978 132.8290014  19.4449992  31.0469978 132.5490014
  18.7229992  32.3679978 132.7100014  18.7402522  31.5007742 132.7746020
  17.0979992  34.3029978 135.1360014  16.4499992  34.6279978 135.7620014
  16.5799992  33.8619978 134.4620014  16.9394168  34.2878523 135.1305307
  19.1209992  28.5409978 124.2730014  18.5989992  28.8969978 123.5540014
  19.0879992  29.2159978 124.9510014  19.0450699  28.6809848 124.2662129
  17.4699992  25.7799978 122.8240014  17.5659992  26.4469978 122.1440014
  17.3299992  24.9649978 122.3420014  17.4642063  25.7610667 122.6658377
  16.6389992  27.1609978 128.4450014  16.4889992  26.2159978 128.4240014
  16.2849992  27.4419978 129.2880014  16.5705527  27.0695605 128.5561859
   1.6739992  29.2389978 132.4550014   1.8589992  29.1569978 131.5190014
   2.5239992  29.1149978 132.8790014   1.8140916  29.2110393 132.3842896
  17.4949992  29.1309978 138.0830014  18.0779992  28.3959978 138.2750014
  18.0589992  29.9029978 138.1300014  17.6509781  29.1348145 138.1156164
  18.9919992  27.0339978 138.7680014  18.1289992  26.6549978 138.6020014
  19.5959992  26.2949978 138.6940014  18.9555944  26.8822978 138.7352984
  16.7169992  23.1879978 121.9410014  17.3279992  22.8169978 122.5780014
  15.8799992  22.7669978 122.1370014  16.6874947  23.0802756 122.0547252
  16.3499992  24.7429978 126.9070014  16.6289992  23.8359978 127.0310014
  17.1089992  25.1769978 126.5180014  16.4908619  24.6774502 126.8713795
  16.9609992  25.3249978 132.3430014  17.8939992  25.5369978 132.3090014
  16.7259992  25.4259978 133.2650014  17.0568308  25.3676503 132.4630214
  16.9909992  26.0619978 135.1190014  16.1479992  26.3299978 135.4850014
  17.4329992  26.8839978 134.9080014  16.9354138  26.2098273 135.1405518
   1.2719992  24.5089978 138.5960014   2.1909992  24.3869978 138.8320014
   0.8219992  23.7589978 138.9850014   1.3371148  24.3908751 138.6809408
  19.2739992  20.0419978 140.4720014  19.6229992  19.3879978 139.8670014
  19.4209992  20.8789978 140.0330014  19.3417355  20.0656067 140.3296564
  16.9629992  22.0059978 126.9550014  17.1449992  21.5569978 127.7810014
  16.3629992  21.4219978 126.4920014  16.9067529  21.8656131 127.0053619
   2.4929992  22.8219978 131.4870014   2.9379992  22.0299978 131.7890014
   2.9589992  23.5379978 131.9180014   2.6169059  22.8104474 131.5866079
   0.7969992  25.8209978 132.5560014   1.2889992  25.5999978 131.7650014
   1.1589992  26.6609978 132.8370014   0.9132923  25.9043468 132.4857407
  18.7929992  22.1509978 138.8220014  17.8759992  22.4219978 138.7860014
  18.9159992  21.6159978 138.0380014  18.6840828  22.1157700 138.7110785
  18.8299992  22.0739978 123.4830014  19.2419992  21.3529978 123.0080014
  19.5109992  22.7429978 123.5420014  18.9785900  22.0657306 123.4259038
   1.1109992  22.0789978 126.6100014   0.1859992  22.2869978 126.4810014
   1.5649992  22.5629978 125.9210014   1.0456374  22.1729949 126.4990957
  15.8809992  37.0629978 128.5560014  16.5339992  36.7149978 127.9480014
  16.3919992  37.5509978 129.2020014  16.0392777  37.0813815 128.5602047
   1.0739992  20.8169978 134.9550014   0.4089992  20.5709978 135.5980014
   0.6309992  21.4389978 134.3770014   0.9230937  20.8673614 134.9649379
   3.2659992  33.9919978 139.0990014   2.4449992  34.1669978 138.6390014
   3.0139992  33.9189978 140.0200014   3.1196173  34.0060794 139.1604972
   6.2199992  34.9659978 135.3580014   5.7959992  35.7759978 135.0750014
   7.1249992  35.0519978 135.0560014   6.2842433  35.0883331 135.2785377
  10.5319992  36.3649978 138.3170014  10.7159992  36.0319978 139.1950014
  11.3779992  36.6749978 137.9950014  10.6716484  36.3612979 138.3937617
  12.8769992  37.6509978 137.5610014  13.5539992  37.0179978 137.3210014
  13.1979992  38.0519978 138.3680014  13.0131323  37.6185691 137.6373158
  17.7939992  20.2409978 136.6410014  16.9809992  20.5659978 136.2530014
  18.0269992  19.4799978 136.1080014  17.7142566  20.1826559 136.5159213
   3.6219992  38.2229978 135.4050014   2.9019992  38.6629978 134.9540014
   3.2569992  37.9719978 136.2540014   3.4739796  38.2493824 135.4579329
   6.0889992  37.8229978 134.4350014   5.2249992  37.8949978 134.8390014
   6.0339992  38.3699978 133.6510014   5.9631942  37.9067849 134.3844000
  10.7999992  37.7109978 133.6100014  10.3429992  38.2399978 132.9560014
  10.9629992  38.3139978 134.3360014  10.7594476  37.8649140 133.6185499
  13.1279992  36.5889978 134.5550014  12.2229992  36.7539978 134.2900014
  13.5559992  37.4419978 134.4900014  13.0620700  36.7269529 134.5099520
  15.7319992  38.1589978 134.8500014  15.5499992  39.0749978 134.6400014
  15.9089992  37.7479978 134.0040014  15.7309907  38.2289741 134.7067883
   3.0369992  36.8459978 132.3150014   3.0189992  36.4199978 133.1730014
   3.8419992  36.5269978 131.9070014   3.1433221  36.7447233 132.3770225
   5.1779992  35.5559978 130.9700014   4.9589992  34.6389978 131.1400014
   6.0019992  35.6959978 131.4360014   5.2594702  35.4495511 131.0562527
   7.7149992  36.0259978 131.8190014   7.9279992  35.1379978 131.5320014
   7.7799992  35.9909978 132.7740014   7.7529075  35.8998307 131.9087373
  11.2239992  21.6899978 130.9630014  10.5499992  21.0599978 131.2190014
  11.7879992  21.2059978 130.3600014  11.2080384  21.5383708 130.9165020
  16.3669992  19.7969978 131.0760014  16.9699992  20.3449978 130.5740014
  15.4969992  20.1159978 130.8360014  16.3319190  19.9151041 130.9748679
  18.0939992  20.9359978 129.4090014  18.7049992  20.4219978 128.8830014
  18.4759992  21.8129978 129.4330014  18.2294475  20.9841323 129.3401208
   3.5509992  20.3239978 128.7850014   2.7739992  20.0889978 128.2780014
   4.0809992  19.5269978 128.7940014   3.5163451  20.1841268 128.7168627
   2.3869992  20.1219978 124.5890014   2.8259992  20.7329978 123.9970014
   1.7529992  20.6599978 125.0630014   2.3613859  20.2784064 124.5720305
   8.1299992  20.2499978 128.5990014   9.0039992  20.6389978 128.5690014
   7.9939992  20.0349978 129.5210014   8.2313207  20.2741923 128.7196509
  13.6869992  20.2799978 130.2480014  13.7629992  20.3759978 129.2990014
  13.4119992  19.3729978 130.3770014  13.6602042  20.1704241 130.1353811
  15.0399992  20.3059978 125.9400014  14.3369992  20.9209978 125.7310014
  14.5949992  19.4689978 126.0720014  14.8836292  20.2770085 125.9292439
   2.2879992  36.0699978 125.4870014   1.6029992  36.0319978 124.8190014
   2.2919992  36.9829978 125.7750014   2.1948174  36.1881998 125.4345310
   4.2479992  22.0379978 123.0310014   4.7389992  21.4079978 122.5040014
   4.8709992  22.3339978 123.6950014   4.3995062  21.9916770 123.0485438
   9.2739992  22.3309978 125.4890014   9.4519992  21.6839978 126.1710014
   9.2199992  23.1649978 125.9560014   9.2911025  22.3550504 125.6456433
  11.1519992  37.2789978 123.8840014  12.0179992  37.6459978 123.7060014
  10.9059992  36.8399978 123.0700014  11.2372097  37.2698525 123.7496019
  17.8609992  36.8419978 126.5630014  17.6669992  36.0939978 125.9980014
  17.8219992  37.5999978 125.9800014  17.8291645  36.8420786 126.4068148
   3.5079992  20.8379978 138.3030014   3.1419992  20.0719978 138.7460014
   4.4209992  20.8669978 138.5900014   3.5813225  20.7371906 138.4023459
   5.4809992  20.1879978 139.8390014   6.3799992  19.9139978 139.6540014
   5.0949992  19.4459978 140.3030014   5.5517237  20.0501508 139.8764710
   4.1059992  36.9899978 122.5120014   3.8379992  37.2759978 123.3850014
   4.8769992  36.4439978 122.6640014   4.1735600  36.9553330 122.6521499
  13.9029992  19.5209978 140.0210014  13.9789992  19.0949978 140.8750014
  14.7959992  19.5339978 139.6780014  14.0342267  19.4643952 140.0915932
  17.0789992  35.5939978 138.7130014  16.2969992  35.4069978 138.1940014
  17.0069992  36.5229978 138.9310014  16.9620863  35.6940221 138.6713574
  31.4849992  29.4799978 128.7440014  31.5739992  30.4239978 128.6120014
  30.8469992  29.2049978 128.0860014  31.4109062  29.5719812 128.6369641
  30.4179992  28.7349978 132.1630014  30.3799992  28.0889978 132.8680014
  30.0959992  28.2679978 131.3920014  30.3692679  28.5834276 132.1552921
  22.7859992  28.3489978 133.7560014  22.8279992  27.7239978 134.4790014
  23.4889992  28.9729978 133.9380014  22.8867345  28.3477873 133.8795274
  34.1239992  31.6739978 130.4650014  33.6829992  30.9539978 130.9150014
  34.1109992  32.3949978 131.0940014  34.0617960  31.6728329 130.6117567
  23.7099992  32.7989978 132.2910014  23.3399992  31.9969978 131.9210014
  24.6509992  32.6309978 132.3370014  23.7865984  32.6664638 132.2465603
  20.3199992  26.4589978 127.6840014  19.8719992  27.3049978 127.6650014
  19.7589992  25.8799978 127.1680014  20.1829603  26.4963674 127.6116720
  21.0299992  28.6209978 129.8100014  21.2439992  27.8509978 130.3370014
  21.7679992  28.7109978 129.2060014  21.1589652  28.5278012 129.8005212
  31.2359992  36.7779978 130.6770014  31.8549992  36.1019978 130.4030014
  31.0269992  36.5599978 131.5850014  31.2926232  36.6557938 130.7622517
  28.8069992  31.1669978 132.5690014  29.1109992  30.4809978 131.9750014
  29.5289992  31.2859978 133.1870014  28.9461152  31.0892189 132.5712123
  37.4699992  22.7689978 133.4300014  37.5199992  23.3789978 134.1660014
  37.8959992  23.2299978 132.7070014  37.5344108  22.9147709 133.4330112
  31.9479992  25.5609978 132.8970014  32.0909992  24.6149978 132.9170014
  31.8419992  25.7679978 131.9680014  31.9532509  25.4594813 132.7742231
  25.1029992  23.6629978 130.1690014  25.1459992  24.5229978 129.7510014
  24.6449992  23.1109978 129.5350014  25.0469815  23.7060621 130.0261197
  32.8249992  23.7939978 128.5700014  33.4719992  23.4649978 129.1950014
  33.3349992  24.3109978 127.9470014  32.9824317  23.8189227 128.5712167
  21.7229992  26.0599978 130.9310014  22.3769992  25.5099978 131.3630014
  21.7469992  25.7859978 130.0140014  21.8157199  25.9477167 130.8661668
  26.8799992  27.6099978 130.1460014  27.4959992  27.0829978 130.6560014
  26.2929992  26.9699978 129.7430014  26.8849239  27.4514117 130.1612952
  37.8619992  24.2469978 135.6660014  37.1729992  24.9049978 135.5700014
  37.8769992  24.0489978 136.6020014  37.7696740  24.3103243 135.7794630
  23.9129992  22.5809978 134.2430014  23.6939992  23.1109978 133.4770014
  23.2449992  22.8069978 134.8900014  23.7927001  22.6841154 134.2256064
  31.2819992  32.0809978 127.7870014  30.9869992  31.7579978 126.9360014
  30.9579992  32.9809978 127.8280014  31.1977983  32.1584026 127.6759771
  26.4819992  30.2559978 134.5310014  25.7419992  30.8549978 134.6340014
  27.1959992  30.8099978 134.2150014  26.4773288  30.4127356 134.5023805
  34.5889992  23.0849978 130.5500014  34.3739992  22.3189978 131.0830014
  35.2449992  23.5569978 131.0630014  34.6482673  23.0440728 130.6921990
  23.5069992  24.4729978 132.1950014  24.1209992  25.1059978 132.5690014
  24.0189992  24.0009978 131.5390014  23.6602277  24.4957352 132.1574279
  24.8899992  32.2209978 135.3180014  24.8839992  33.0999978 134.9400014
  24.0359992  32.1369978 135.7430014  24.7737925  32.3299535 135.3236887
  21.0109992  31.8919978 126.1000014  20.7389992  32.1209978 125.2110014
  21.0559992  32.7289978 126.5600014  20.9798709  32.0366058 126.0406107
  34.6359992  33.5129978 132.8120014  33.6939992  33.5719978 132.9740014
  34.9119992  34.4189978 132.6750014  34.5445865  33.6435288 132.8156192
  34.9359992  21.7999978 134.2300014  34.1999992  22.4099978 134.1920014
  35.6199992  22.2149978 133.7030014  34.9275506  21.9396400 134.1536051
  27.9399992  19.8859978 131.6960014  27.8219992  18.9379978 131.6410014
  27.0849992  20.2189978 131.9690014  27.8082679  19.8011926 131.7253720
  32.8879992  35.2939978 129.4380014  33.3129992  34.5869978 128.9530014
  33.2049992  36.0959978 129.0210014  32.9890266  35.3055190 129.3152479
  34.0479992  33.1949978 127.9460014  33.7899992  32.5049978 127.3350014
  34.1189992  32.7519978 128.7920014  34.0222837  33.0407106 127.9766912
  35.7339992  31.7619978 136.4240014  35.8729992  31.1699978 135.6840014
  35.9009992  32.6349978 136.0670014  35.7755562  31.7989896 136.2746283
  30.2059992  28.7239978 126.1960014  29.4949992  29.2589978 125.8440014
  30.8969992  28.7789978 125.5360014  30.2020751  28.8046777 126.0585858
  30.2599992  27.1809978 123.2350014  30.9609992  27.2039978 123.8860014
  30.5619992  26.5529978 122.5790014  30.3968282  27.0992339 123.2354496
  37.5749992  28.1019978 134.4900014  36.9229992  28.7959978 134.5790014
  38.0409992  28.3119978 133.6800014  37.5485937  28.2255019 134.3927533
  33.6119992  28.9329978 127.1480014  32.8799992  29.1619978 127.7210014
  34.0589992  28.2199978 127.6030014  33.5722753  28.8678972 127.2879715
  33.5089992  27.1079978 136.2160014  33.5889992  27.8709978 136.7870014
  32.9079992  27.3869978 135.5250014  33.4387245  27.2502630 136.2008424
  25.2569992  29.5639978 129.0300014  24.9269992  29.1929978 128.2120014
  25.8459992  28.8929978 129.3770014  25.2913970  29.4226063 128.9649404
  26.6239992  32.9919978 131.7120014  26.5289992  32.4129978 130.9550014
  27.3529992  32.6209978 132.2080014  26.7096161  32.8625891 131.6755209
  25.6239992  28.3319978 132.6640014  26.1889992  28.4539978 131.9010014
  25.9429992  28.9699978 133.3030014  25.7443977  28.4348851 132.6459424
  31.9329992  33.8359978 133.3980014  31.6929992  34.4979978 134.0460014
  31.7349992  33.0009978 133.8230014  31.8733826  33.8138115 133.5441566
  26.5039992  32.7319978 137.3810014  26.1929992  33.5139978 137.8360014
  25.8539992  32.5789978 136.6950014  26.3735538  32.8184087 137.3505898
  32.4829992  28.0959978 124.8330014  33.0619992  28.2459978 125.5800014
  32.8969992  28.5659978 124.1100014  32.6183122  28.1801277 124.8375042
  23.4239992  28.9299978 136.6100014  23.4939992  29.5809978 137.3080014
  22.5329992  29.0329978 136.2750014  23.3131802  29.0329757 136.6602249
  30.2089992  34.8319978 128.2680014  30.6829992  35.1279978 129.0460014
  29.6459992  35.5709978 128.0350014  30.1977361  34.9722721 128.3428611
  24.7429992  34.8029978 138.1440014  24.7509992  34.6669978 137.1970014
  23.8269992  34.6859978 138.3960014  24.6202528  34.7685463 138.0483243
  36.1819992  19.8459978 124.6460014  35.2819992  19.9849978 124.9410014
  36.4339992  20.6769978 124.2440014  36.0928683  19.9774055 124.6320232
  24.2479992  28.6329978 126.6200014  23.9559992  29.4009978 126.1290014
  23.5729992  27.9739978 126.4570014  24.1168497  28.6489745 126.5308260
  37.3709992  34.2119978 123.0220014  37.4439992  35.1509978 123.1930014
  38.2759992  33.9069978 122.9660014  37.5034158  34.2993061 123.0378392
  20.3409992  30.9959978 135.4350014  19.8389992  30.9679978 134.6200014
  20.3459992  30.0909978 135.7440014  20.2730416  30.8697368 135.3653766
  20.0909992  33.7769978 132.3190014  21.0369992  33.6319978 132.3000014
  19.9779992  34.5609978 132.8560014  20.2053578  33.8631697 132.3890317
  38.2889992  34.4429978 138.0010014  38.2389992  33.4869978 137.9640014
  37.4619992  34.7099978 138.4020014  38.1703987  34.3485174 138.0501446
  29.2669992  34.0169978 136.8770014  29.3549992  34.8429978 137.3520014
  28.4039992  33.6869978 137.1260014  29.1623357  34.0855468 136.9757653
  29.6819992  37.7889978 126.6830014  29.6059992  37.6679978 125.7370014
  29.7139992  38.7379978 126.8020014  29.6759156  37.9007530 126.5695048
  23.3349992  36.5779978 128.4640014  23.4869992  36.2299978 129.3430014
  22.4839992  36.2209978 128.2090014  23.2407899  36.4821738 128.5497340
  32.7829992  36.9429978 123.6850014  33.1579992  36.1989978 123.2150014
  32.7879992  36.6729978 124.6040014  32.8350024  36.8046950 123.7447987
  32.4519992  36.8689978 126.4350014  31.5169992  36.9689978 126.6130014
  32.7319992  36.1589978 127.0130014  32.3618173  36.7867239 126.5374998
  35.4409992  25.9359978 138.4810014  35.0329992  26.4159978 137.7610014
  35.4809992  25.0299978 138.1730014  35.3905476  25.8793160 138.3408247
  22.5899992  32.3199978 136.4780014  22.8059992  31.9579978 137.3370014
  21.7339992  31.9449978 136.2680014  22.5039354  32.2197906 136.5672160
  25.2079992  20.7899978 132.4730014  24.3469992  20.7029978 132.0660014
  25.1859992  21.6459978 132.9010014  25.0870411  20.8937884 132.4750857
  29.8709992  20.5119978 135.8480014  30.2909992  20.0969978 136.6010014
  28.9379992  20.3329978 135.9650014  29.8023736  20.4309910 135.9668968
  33.1979992  24.2669978 136.7010014  32.6839992  24.1419978 137.4990014
  33.0419992  25.1799978 136.4570014  33.1066967  24.3732123 136.7770937
  33.9599992  29.1279978 122.4630014  34.0019992  28.9059978 121.5330014
  34.8089992  29.5269978 122.6530014  34.0805253  29.1515498 122.3613822
  29.5329992  23.0039978 123.1330014  29.2789992  23.0229978 124.0560014
  29.2759992  22.1329978 122.8320014  29.4635133  22.8888110 123.2185082
  25.2989992  25.7549978 133.5680014  24.6579992  25.7149978 134.2770014
  25.3369992  26.6819978 133.3310014  25.2163670  25.8747795 133.6330550
  25.2959992  25.9759978 128.4800014  24.4039992  25.6359978 128.4220014
  25.7469992  25.5989978 127.7250014  25.2346815  25.8783762 128.3699203
  30.8319992  26.3919978 127.2970014  30.4229992  27.2069978 127.0060014
  31.5519992  26.2519978 126.6830014  30.8734013  26.4846571 127.1740875
  29.9339992  26.5679978 138.7850014  29.3709992  25.8629978 139.1060014
  30.7599992  26.4469978 139.2530014  29.9686674  26.4552165 138.8921751
  31.8369992  25.8379978 130.1110014  31.6409992  26.4439978 129.3960014
  32.0179992  25.0049978 129.6770014  31.8346584  25.8082513 129.9544212
  23.0489992  26.0759978 135.4350014  23.0109992  26.4759978 136.3040014
  22.5589992  25.2589978 135.5260014  22.9775621  26.0202510 135.5661377
  26.4149992  23.4499978 122.2340014  25.9839992  23.0049978 122.9640014
  25.6969992  23.8209978 121.7220014  26.2589363  23.4392968 122.2646211
  19.6579992  23.1919978 129.2860014  20.2879992  23.1629978 130.0050014
  20.1069992  22.7669978 128.5560014  19.8050692  23.1305316 129.2857771
  20.9319992  23.9379978 124.7100014  21.4059992  24.5289978 124.1250014
  20.2139992  24.4679978 125.0570014  20.8998640  24.0905511 124.6767969
  31.1009992  27.4759978 134.7830014  31.4239992  26.8449978 134.1400014
  30.6599992  26.9419978 135.4430014  31.0855789  27.3173522 134.7842232
  27.8779992  23.4039978 129.5670014  26.9669992  23.4609978 129.8550014
  28.3829992  23.3439978 130.3770014  27.8215387  23.4036870 129.7160646
  22.7059992  25.0329978 128.3930014  21.8169992  25.1319978 128.0530014
  23.0029992  24.1909978 128.0470014  22.6244177  24.9327687 128.2996940
  26.3589992  25.0329978 126.0500014  27.2909992  25.1619978 126.2280014
  26.1439992  25.7019978 125.4000014  26.4574472  25.1410806 125.9864891
  32.2829992  22.6389978 132.8310014  31.6059992  22.7699978 133.4950014
  31.7979992  22.4839978 132.0210014  32.1247265  22.6359659 132.8123397
  25.0329992  26.2269978 123.6170014  24.4909992  25.8479978 122.9250014
  25.8669992  26.4219978 123.1880014  25.0715159  26.2015076 123.4644419
  35.5709992  38.3099978 139.1080014  35.7699992  38.7339978 138.2730014
  36.2259992  38.6539978 139.7150014  35.6868501  38.4146091 139.0757097
  23.1689992  30.7839978 138.7160014  23.9009992  31.0389978 139.2770014
  22.3879992  30.9889978 139.2310014  23.1637684  30.8466468 138.8624782
  29.1979992  26.1909978 131.4540014  29.7619992  25.6449978 130.9070014
  29.0499992  25.6699978 132.2420014  29.2552575  26.0456552 131.4856987
  24.1999992  22.3279978 127.8720014  23.8829992  21.4249978 127.8370014
  24.9809992  22.3299978 127.3190014  24.2622307  22.2046951 127.7924314
  27.8239992  24.5799978 133.8680014  26.9889992  25.0339978 133.9780014
  28.3479992  24.8559978 134.6200014  27.7805070  24.6794666 133.9847152
  28.3689992  30.7929978 125.5520014  27.6239992  30.2849978 125.2300014
  28.2339992  30.8419978 126.4990014  28.2489047  30.7301596 125.6358845
  35.5189992  29.9259978 134.3390014  36.1599992  30.3819978 133.7950014
  34.6879992  30.0389978 133.8770014  35.4945171  30.0037502 134.2020237
  32.2659992  23.6069978 123.7520014  31.3279992  23.7179978 123.6000014
  32.5639992  24.4629978 124.0580014  32.1776402  23.7380621 123.7725571
  29.8879992  30.9769978 136.7890014  29.5419992  30.5949978 137.5960014
  29.6879992  31.9099978 136.8610014  29.8136523  31.0509095 136.9090735
  32.9849992  25.4739978 125.4120014  33.8769992  25.3359978 125.7310014
  33.0409992  26.2649978 124.8760014  33.1147107  25.5620526 125.3832091
  23.4929992  30.0879978 131.3220014  24.2379992  30.0849978 130.7210014
  23.5709992  29.2639978 131.8040014  23.6054158  29.9762916 131.3049153
  30.4939992  32.2509978 124.5780014  30.1989992  33.0779978 124.9590014
  29.7909992  31.6319978 124.7740014  30.3585471  32.2805227 124.6566698
  20.5009992  28.5479978 136.6370014  20.7239992  28.1299978 137.4690014
  19.8989992  27.9359978 136.2140014  20.4501260  28.4079933 136.6937320
  27.5179992  28.0649978 138.8500014  27.2219992  27.8999978 137.9550014
  28.4489992  27.8449978 138.8390014  27.6033982  28.0126578 138.7260045
  32.1379992  33.4389978 136.7400014  31.2379992  33.6219978 136.4720014
  32.1719992  33.6979978 137.6610014  32.0192909  33.4990815 136.8277852
  37.8699992  25.6829978 125.1070014  37.3149992  25.2869978 124.4350014
  37.9699992  26.5939978 124.8290014  37.8075888  25.7518990 124.9775206
  37.8329992  31.4839978 137.9440014  36.9819992  31.7219978 137.5770014
  38.4229992  31.4669978 137.1910014  37.7962408  31.5142966 137.7918879
  36.1649992  34.4689978 125.5720014  35.7919992  33.6439978 125.8810014
  36.4419992  34.2859978 124.6750014  36.1513871  34.3312441 125.4929677
  33.3249992  29.2769978 132.5930014  32.3969992  29.0459978 132.5660014
  33.7759992  28.4999978 132.2630014  33.2588165  29.1402774 132.5446790
  25.8679992  33.6059978 128.7260014  26.3959992  34.3789978 128.5260014
  24.9879992  33.8299978 128.4250014  25.8213176  33.7423161 128.6578409
  21.6229992  28.4679978 123.3140014  22.2389992  29.0949978 123.6930014
  20.7609992  28.7839978 123.5850014  21.5908195  28.5965798 123.4025386
  27.2959992  31.2689978 128.3030014  27.0549992  32.1939978 128.3440014
  26.5549992  30.8099978 128.6990014  27.1628390  31.3336403 128.3621404
  27.8099992  35.4179978 134.6180014  28.1729992  36.2719978 134.3840014
  28.3419992  35.1259978 135.3580014  27.9316090  35.4954058 134.6860219
  25.9789992  36.2899978 127.8480014  25.0289992  36.3959978 127.8990014
  26.3309992  37.1109978 128.1930014  25.8965480  36.4154438 127.9015999
  31.3539992  31.5169978 134.3180014  30.9289992  31.2889978 135.1450014
  31.9349992  30.7779978 134.1360014  31.3743930  31.3859843 134.4064732
  33.5569992  32.4459978 123.3920014  33.9109992  32.0659978 124.1970014
  32.6089992  32.3519978 123.4790014  33.4771820  32.3813092 123.5138714
  34.0129992  36.0689978 136.7880014  33.4109992  35.5129978 136.2920014
  34.2939992  36.7359978 136.1620014  33.9686829  36.0831613 136.6355443
  38.0609992  36.9249978 123.5930014  38.8049992  37.5109978 123.4530014
  37.3669992  37.4939978 123.9270014  38.0690201  37.0820603 123.6189772
  22.1349992  23.3019978 136.1950014  21.2429992  23.6399978 136.1280014
  22.0369992  22.4459978 136.6130014  21.9994965  23.2326499 136.2423044
  34.4229992  31.1179978 125.6190014  34.1459992  30.3899978 126.1750014
  35.3509992  31.2369978 125.8240014  34.5104499  31.0344213 125.7228044
  21.7869992  35.1059978 134.6300014  22.0039992  34.1739978 134.5990014
  22.0329992  35.3809978 135.5130014  21.8499809  35.0155686 134.7451691
  27.6479992  33.5579978 121.8390014  27.8869992  32.8089978 121.2920014
  27.3789992  33.1699978 122.6720014  27.6443233  33.4031853 121.8767809
  26.5849992  33.1279978 124.2960014  26.7319992  32.6079978 125.0860014
  26.5819992  34.0349978 124.6020014  26.6047300  33.1793964 124.4455895
  23.0379992  30.3799978 124.8060014  22.3519992  30.7329978 125.3730014
  23.5609992  31.1429978 124.5600014  23.0149033  30.5313746 124.8502661
  30.8699992  23.0429978 135.0850014  31.5689992  23.1169978 135.7350014
  30.4889992  22.1779978 135.2390014  30.9142097  22.9362389 135.1947997
  31.6539992  22.6949978 126.1820014  31.8739992  23.1659978 125.3790014
  32.2129992  23.0889978 126.8520014  31.7596730  22.8127432 126.1625906
  29.3229992  34.8249978 125.0450014  28.5059992  35.3219978 125.0970014
  29.8519992  35.3009978 124.4050014  29.2828508  34.9572543 124.9656035
  28.8539992  24.4229978 127.0170014  29.6659992  24.9269978 127.0630014
  28.6099992  24.2779978 127.9310014  28.9321467  24.4723749 127.1468575
  29.3899992  25.4089978 136.2020014  29.5089992  25.9829978 136.9590014
  30.0449992  24.7209978 136.3160014  29.4949146  25.3945574 136.3211314
  29.7379992  21.5039978 127.9550014  29.3909992  22.1209978 128.6000014
  30.3969992  22.0049978 127.4740014  29.7795949  21.6561099 127.9782271
  26.6609992  35.8689978 125.0270014  26.8219992  36.6689978 124.5260014
  26.4639992  36.1759978 125.9120014  26.6563919  36.0199129 125.0781006
  25.3959992  22.5669978 124.6420014  25.3119992  23.4549978 124.9890014
  26.2859992  22.3019978 124.8740014  25.5048163  22.6527179 124.7208596
  35.5939992  23.3159978 137.0370014  34.6779992  23.5779978 136.9490014
  35.9299992  23.3129978 136.1400014  35.5139789  23.3514626 136.9037847
  34.1969992  27.0659978 131.1320014  33.3989992  26.6509978 130.8040014
  34.6419992  26.3759978 131.6230014  34.1479684  26.9158628 131.1535227
  23.6539992  32.9939978 123.7030014  24.2459992  33.6939978 123.9790014
  24.1129992  32.5609978 122.9830014  23.7970791  33.0312908 123.6434607
  21.9699992  25.6589978 122.8190014  21.9249992  26.5979978 122.9970014
  21.0819992  25.4229978 122.5490014  21.8438555  25.7556874 122.8068939
  35.2829992  36.3219978 132.7550014  35.1269992  37.0009978 132.0980014
  36.2159992  36.3939978 132.9580014  35.3877387  36.4246390 132.6925342
  22.7779992  20.4399978 131.4920014  22.5489992  20.4989978 130.5640014
  22.3359992  19.6489978 131.7980014  22.6868801  20.3410540 131.4064729
  21.7089992  34.3809978 127.6520014  20.8759992  34.8529978 127.6800014
  22.2539992  34.8909978 127.0540014  21.6687590  34.5145897 127.5749194
  20.9969992  36.9929978 138.9820014  21.5369992  36.7769978 139.7420014
  20.5159992  36.1879978 138.7930014  21.0058613  36.8545400 139.0604782
  25.5939992  35.9129978 140.6030014  26.3619992  35.4539978 140.9440014
  25.5729992  35.6869978 139.6730014  25.6962135  35.8196668 140.5239491
  29.6859992  35.4209978 121.9780014  29.0419992  34.7899978 122.2990014
  30.4479992  34.8899978 121.7460014  29.7008058  35.2627902 121.9906038
  32.1709992  34.2929978 139.3320014  31.8199992  33.4359978 139.5750014
  32.8969992  34.4349978 139.9390014  32.2211590  34.1950178 139.4472907
  34.2909992  35.2379978 122.2120014  34.5739992  34.4429978 122.6640014
  35.0299992  35.4709978 121.6510014  34.4296956  35.1607031 122.1979822
  20.9039992  30.8039978 139.9370014  21.0479992  29.9019978 139.6500014
  20.1319992  31.0899978 139.4490014  20.8193303  30.7193243 139.8317908
  25.2449992  31.1469978 122.0690014  25.3099992  30.3529978 122.6000014
  25.8979992  31.0289978 121.3790014  25.3421754  31.0223337 122.0484259
  27.5589992  30.7729978 139.3690014  27.2309992  31.0439978 138.5120014
  27.7109992  29.8319978 139.2820014  27.5346030  30.6828973 139.2397945
  30.5979992  32.1939978 121.8050014  30.3289992  32.3749978 122.7060014
  30.3909992  31.2689978 121.6740014  30.5332000  32.0936774 121.9105693
  33.2939992  30.6889978 136.7530014  34.0389992  31.2779978 136.6330014
  32.5369992  31.2709978 136.8160014  33.2935205  30.8481997 136.7451119
  21.7369992  28.0039978 139.3570014  22.1449992  27.1469978 139.2360014
  21.4759992  28.0179978 140.2780014  21.7576016  27.8885119 139.4649192
  26.3949992  29.1199978 124.3750014  25.9349992  28.6359978 125.0610014
  26.6499992  28.4509978 123.7390014  26.3665038  28.9633689 124.3829447
  25.6839992  27.0129978 136.7310014  25.0649992  27.6869978 137.0110014
  26.0279992  27.3339978 135.8980014  25.6457605  27.1487198 136.6566707
  27.4659992  27.3629978 122.6370014  27.2849992  27.2079978 121.7100014
  28.4159992  27.4709978 122.6820014  27.5696566  27.3563669 122.5160929
  30.7029992  29.4839978 140.0080014  31.6569992  29.5679978 139.9810014
  30.5429992  28.7719978 140.6280014  30.8117182  29.3992842 140.0880733
  36.8559992  29.7169978 122.0830014  36.5819992  29.2929978 121.2700014
  36.8949992  30.6489978 121.8660014  36.8237716  29.7848827 121.9424286
  26.0229992  24.3679978 137.8130014  26.1729992  23.6389978 137.2110014
  26.0249992  25.1449978 137.2540014  26.0437967  24.3732708 137.6550541
  26.4359992  22.7369978 135.3060014  26.9709992  23.1889978 134.6540014
  25.5829992  22.6289978 134.8830014  26.3940374  22.7842665 135.1596710
  28.0169992  28.1769978 135.5450014  28.7679992  28.0209978 134.9720014
  27.6779992  29.0289978 135.2700014  28.0739587  28.2708138 135.4294078
  32.4329992  25.9919978 140.5740014  32.6249992  25.0609978 140.4620014
  33.2909992  26.4169978 140.5640014  32.5752269  25.9219928 140.5573192
  33.7499992  28.7809978 138.6510014  33.4679992  29.4899978 138.0740014
  34.6919992  28.7079978 138.5000014  33.8387656  28.8683128 138.5514809
  24.5019992  25.5659978 139.7250014  23.7339992  25.0329978 139.5150014
  25.1799992  25.2559978 139.1250014  24.4886973  25.4512375 139.6151796
  27.2409992  20.1939978 135.7370014  27.1429992  21.1399978 135.6320014
  26.4989992  19.8209978 135.2620014  27.1271913  20.2731813 135.6583539
  28.5049992  24.5149978 139.3010014  28.2699992  24.2959978 140.2030014
  27.7219992  24.3079978 138.7910014  28.3669219  24.4570066 139.3555852
  31.2209992  23.6429978 138.3770014  30.2729992  23.6749978 138.5090014
  31.5329992  23.0169978 139.0300014  31.1335190  23.5627262 138.4833564
  32.8549992  22.2769978 140.3820014  32.7579992  21.3249978 140.3760014
  32.5329992  22.5449978 141.2420014  32.7981761  22.1829744 140.4974936
  22.6819992  23.4859978 139.4290014  22.8939992  22.7799978 138.8190014
  22.5709992  23.0489978 140.2730014  22.6960269  23.3301921 139.4595873
  27.4629992  19.4879978 138.4090014  28.1749992  18.8479978 138.3950014
  27.3619992  19.7539978 137.4950014  27.5467261  19.4364190 138.2835537
  27.8169992  21.1699978 140.4620014  27.6849992  20.6949978 139.6420014
  27.2169992  21.9149978 140.4070014  27.7179070  21.2055789 140.3423251
  27.3629992  38.0529978 123.6390014  28.2959992  38.2109978 123.7820014
  27.0989992  38.7289978 123.0140014  27.4549308  38.1659104 123.5741396
  20.9309992  32.6899978 123.1210014  21.8449992  32.7689978 123.3950014
  20.9389992  32.0029978 122.4550014  21.0571143  32.6079085 123.0684274
  19.5799992  38.0829978 128.1990014  18.9329992  37.6209978 127.6660014
  19.9349992  37.4109978 128.7810014  19.5394506  37.9289503 128.2047341
  20.4499992  36.1629978 130.0030014  20.1159992  35.2829978 130.1750014
  20.6729992  36.5089978 130.8680014  20.4343721  36.0891938 130.1434168
  37.9989992  36.9729978 132.9840014  37.9769992  37.1579978 133.9230014
  38.6889992  37.5409978 132.6430014  38.0893439  37.0751887 133.0664791
  37.5619992  36.5399978 135.9060014  37.0749992  35.8049978 135.5350014
  38.1109992  36.1459978 136.5840014  37.5695247  36.3861057 135.9468461
  36.0129992  32.3299978 140.5440014  35.1469992  32.2249978 140.9380014
  36.3889992  33.0879978 140.9900014  35.9453401  32.4181708 140.6582620
  37.3139992  30.5859978 126.0580014  38.1639992  31.0069978 126.1850014
  37.3189992  29.8459978 126.6650014  37.4311143  30.5436094 126.1574750
  37.7079992  28.6399978 127.8820014  36.9819992  28.1599978 128.2790014
  38.2899992  28.8449978 128.6140014  37.6871635  28.6019166 128.0353748
  37.4669992  31.4249978 132.8290014  38.3009992  31.0469978 132.5490014
  37.5789992  32.3679978 132.7100014  37.5962522  31.5007742 132.7746020
  35.9539992  34.3029978 135.1360014  35.3059992  34.6279978 135.7620014
  35.4359992  33.8619978 134.4620014  35.7954168  34.2878523 135.1305307
  37.9769992  28.5409978 124.2730014  37.4549992  28.8969978 123.5540014
  37.9439992  29.2159978 124.9510014  37.9010699  28.6809848 124.2662129
  36.3259992  25.7799978 122.8240014  36.4219992  26.4469978 122.1440014
  36.1859992  24.9649978 122.3420014  36.3202063  25.7610667 122.6658377
  35.4949992  27.1609978 128.4450014  35.3449992  26.2159978 128.4240014
  35.1409992  27.4419978 129.2880014  35.4265527  27.0695605 128.5561859
  20.5299992  29.2389978 132.4550014  20.7149992  29.1569978 131.5190014
  21.3799992  29.1149978 132.8790014  20.6700916  29.2110393 132.3842896
  36.3509992  29.1309978 138.0830014  36.9339992  28.3959978 138.2750014
  36.9149992  29.9029978 138.1300014  36.5069781  29.1348145 138.1156164
  37.8479992  27.0339978 138.7680014  36.9849992  26.6549978 138.6020014
  38.4519992  26.2949978 138.6940014  37.8115944  26.8822978 138.7352984
  35.5729992  23.1879978 121.9410014  36.1839992  22.8169978 122.5780014
  34.7359992  22.7669978 122.1370014  35.5434947  23.0802756 122.0547252
  35.2059992  24.7429978 126.9070014  35.4849992  23.8359978 127.0310014
  35.9649992  25.1769978 126.5180014  35.3468619  24.6774502 126.8713795
  35.8169992  25.3249978 132.3430014  36.7499992  25.5369978 132.3090014
  35.5819992  25.4259978 133.2650014  35.9128308  25.3676503 132.4630214
  35.8469992  26.0619978 135.1190014  35.0039992  26.3299978 135.4850014
  36.2889992  26.8839978 134.9080014  35.7914138  26.2098273 135.1405518
  20.1279992  24.5089978 138.5960014  21.0469992  24.3869978 138.8320014
  19.6779992  23.7589978 138.9850014  20.1931148  24.3908751 138.6809408
  38.1299992  20.0419978 140.4720014  38.4789992  19.3879978 139.8670014
  38.2769992  20.8789978 140.0330014  38.1977355  20.0656067 140.3296564
  35.8189992  22.0059978 126.9550014  36.0009992  21.5569978 127.7810014
  35.2189992  21.4219978 126.4920014  35.7627529  21.8656131 127.0053619
  21.3489992  22.8219978 131.4870014  21.7939992  22.0299978 131.7890014
  21.8149992  23.5379978 131.9180014  21.4729059  22.8104474 131.5866079
  19.6529992  25.8209978 132.5560014  20.1449992  25.5999978 131.7650014
  20.0149992  26.6609978 132.8370014  19.7692923  25.9043468 132.4857407
  37.6489992  22.1509978 138.8220014  36.7319992  22.4219978 138.7860014
  37.7719992  21.6159978 138.0380014  37.5400828  22.1157700 138.7110785
  37.6859992  22.0739978 123.4830014  38.0979992  21.3529978 123.0080014
  38.3669992  22.7429978 123.5420014  37.8345900  22.0657306 123.4259038
  19.9669992  22.0789978 126.6100014  19.0419992  22.2869978 126.4810014
  20.4209992  22.5629978 125.9210014  19.9016374  22.1729949 126.4990957
  34.7369992  37.0629978 128.5560014  35.3899992  36.7149978 127.9480014
  35.2479992  37.5509978 129.2020014  34.8952777  37.0813815 128.5602047
  19.9299992  20.8169978 134.9550014  19.2649992  20.5709978 135.5980014
  19.4869992  21.4389978 134.3770014  19.7790937  20.8673614 134.9649379
  22.1219992  33.9919978 139.0990014  21.3009992  34.1669978 138.6390014
  21.8699992  33.9189978 140.0200014  21.9756173  34.0060794 139.1604972
  25.0759992  34.9659978 135.3580014  24.6519992  35.7759978 135.0750014
  25.9809992  35.0519978 135.0560014  25.1402433  35.0883331 135.2785377
  29.3879992  36.3649978 138.3170014  29.5719992  36.0319978 139.1950014
  30.2339992  36.6749978 137.9950014  29.5276484  36.3612979 138.3937617
  31.7329992  37.6509978 137.5610014  32.4099992  37.0179978 137.3210014
  32.0539992  38.0519978 138.3680014  31.8691323  37.6185691 137.6373158
  36.6499992  20.2409978 136.6410014  35.8369992  20.5659978 136.2530014
  36.8829992  19.4799978 136.1080014  36.5702566  20.1826559 136.5159213
  22.4779992  38.2229978 135.4050014  21.7579992  38.6629978 134.9540014
  22.1129992  37.9719978 136.2540014  22.3299796  38.2493824 135.4579329
  24.9449992  37.8229978 134.4350014  24.0809992  37.8949978 134.8390014
  24.8899992  38.3699978 133.6510014  24.8191942  37.9067849 134.3844000
  29.6559992  37.7109978 133.6100014  29.1989992  38.2399978 132.9560014
  29.8189992  38.3139978 134.3360014  29.6154476  37.8649140 133.6185499
  31.9839992  36.5889978 134.5550014  31.0789992  36.7539978 134.2900014
  32.4119992  37.4419978 134.4900014  31.9180700  36.7269529 134.5099520
  34.5879992  38.1589978 134.8500014  34.4059992  39.0749978 134.6400014
  34.7649992  37.7479978 134.0040014  34.5869907  38.2289741 134.7067883
  21.8929992  36.8459978 132.3150014  21.8749992  36.4199978 133.1730014
  22.6979992  36.5269978 131.9070014  21.9993221  36.7447233 132.3770225
  24.0339992  35.5559978 130.9700014  23.8149992  34.6389978 131.1400014
  24.8579992  35.6959978 131.4360014  24.1154702  35.4495511 131.0562527
  26.5709992  36.0259978 131.8190014  26.7839992  35.1379978 131.5320014
  26.6359992  35.9909978 132.7740014  26.6089075  35.8998307 131.9087373
  30.0799992  21.6899978 130.9630014  29.4059992  21.0599978 131.2190014
  30.6439992  21.2059978 130.3600014  30.0640384  21.5383708 130.9165020
  35.2229992  19.7969978 131.0760014  35.8259992  20.3449978 130.5740014
  34.3529992  20.1159978 130.8360014  35.1879190  19.9151041 130.9748679
  36.9499992  20.9359978 129.4090014  37.5609992  20.4219978 128.8830014
  37.3319992  21.8129978 129.4330014  37.0854475  20.9841323 129.3401208
  22.4069992  20.3239978 128.7850014  21.6299992  20.0889978 128.2780014
  22.9369992  19.5269978 128.7940014  22.3723451  20.1841268 128.7168627
  21.2429992  20.1219978 124.5890014  21.6819992  20.7329978 123.9970014
  20.6089992  20.6599978 125.0630014  21.2173859  20.2784064 124.5720305
  26.9859992  20.2499978 128.5990014  27.8599992  20.6389978 128.5690014
  26.8499992  20.0349978 129.5210014  27.0873207  20.2741923 128.7196509
  32.5429992  20.2799978 130.2480014  32.6189992  20.3759978 129.2990014
  32.2679992  19.3729978 130.3770014  32.5162042  20.1704241 130.1353811
  33.8959992  20.3059978 125.9400014  33.1929992  20.9209978 125.7310014
  33.4509992  19.4689978 126.0720014  33.7396292  20.2770085 125.9292439
  21.1439992  36.0699978 125.4870014  20.4589992  36.0319978 124.8190014
  21.1479992  36.9829978 125.7750014  21.0508174  36.1881998 125.4345310
  23.1039992  22.0379978 123.0310014  23.5949992  21.4079978 122.5040014
  23.7269992  22.3339978 123.6950014  23.2555062  21.9916770 123.0485438
  28.1299992  22.3309978 125.4890014  28.3079992  21.6839978 126.1710014
  28.0759992  23.1649978 125.9560014  28.1471025  22.3550504 125.6456433
  30.0079992  37.2789978 123.8840014  30.8739992  37.6459978 123.7060014
  29.7619992  36.8399978 123.0700014  30.0932097  37.2698525 123.7496019
  36.7169992  36.8419978 126.5630014  36.5229992  36.0939978 125.9980014
  36.6779992  37.5999978 125.9800014  36.6851645  36.8420786 126.4068148
  22.3639992  20.8379978 138.3030014  21.9979992  20.0719978 138.7460014
  23.2769992  20.8669978 138.5900014  22.4373225  20.7371906 138.4023459
  24.3369992  20.1879978 139.8390014  25.2359992  19.9139978 139.6540014
  23.9509992  19.4459978 140.3030014  24.4077237  20.0501508 139.8764710
  22.9619992  36.9899978 122.5120014  22.6939992  37.2759978 123.3850014
  23.7329992  36.4439978 122.6640014  23.0295600  36.9553330 122.6521499
  32.7589992  19.5209978 140.0210014  32.8349992  19.0949978 140.8750014
  33.6519992  19.5339978 139.6780014  32.8902267  19.4643952 140.0915932
  35.9349992  35.5939978 138.7130014  35.1529992  35.4069978 138.1940014
  35.8629992  36.5229978 138.9310014  35.8180863  35.6940221 138.6713574
  50.3409992  29.4799978 128.7440014  50.4299992  30.4239978 128.6120014
  49.7029992  29.2049978 128.0860014  50.2669062  29.5719812 128.6369641
  49.2739992  28.7349978 132.1630014  49.2359992  28.0889978 132.8680014
  48.9519992  28.2679978 131.3920014  49.2252679  28.5834276 132.1552921
  41.6419992  28.3489978 133.7560014  41.6839992  27.7239978 134.4790014
  42.3449992  28.9729978 133.9380014  41.7427345  28.3477873 133.8795274
  52.9799992  31.6739978 130.4650014  52.5389992  30.9539978 130.9150014
  52.9669992  32.3949978 131.0940014  52.9177960  31.6728329 130.6117567
  42.5659992  32.7989978 132.2910014  42.1959992  31.9969978 131.9210014
  43.5069992  32.6309978 132.3370014  42.6425984  32.6664638 132.2465603
  39.1759992  26.4589978 127.6840014  38.7279992  27.3049978 127.6650014
  38.6149992  25.8799978 127.1680014  39.0389603  26.4963674 127.6116720
  39.8859992  28.6209978 129.8100014  40.0999992  27.8509978 130.3370014
  40.6239992  28.7109978 129.2060014  40.0149652  28.5278012 129.8005212
  50.0919992  36.7779978 130.6770014  50.7109992  36.1019978 130.4030014
  49.8829992  36.5599978 131.5850014  50.1486232  36.6557938 130.7622517
  47.6629992  31.1669978 132.5690014  47.9669992  30.4809978 131.9750014
  48.3849992  31.2859978 133.1870014  47.8021152  31.0892189 132.5712123
  56.3259992  22.7689978 133.4300014  56.3759992  23.3789978 134.1660014
  56.7519992  23.2299978 132.7070014  56.3904108  22.9147709 133.4330112
  50.8039992  25.5609978 132.8970014  50.9469992  24.6149978 132.9170014
  50.6979992  25.7679978 131.9680014  50.8092509  25.4594813 132.7742231
  43.9589992  23.6629978 130.1690014  44.0019992  24.5229978 129.7510014
  43.5009992  23.1109978 129.5350014  43.9029815  23.7060621 130.0261197
  51.6809992  23.7939978 128.5700014  52.3279992  23.4649978 129.1950014
  52.1909992  24.3109978 127.9470014  51.8384317  23.8189227 128.5712167
  40.5789992  26.0599978 130.9310014  41.2329992  25.5099978 131.3630014
  40.6029992  25.7859978 130.0140014  40.6717199  25.9477167 130.8661668
  45.7359992  27.6099978 130.1460014  46.3519992  27.0829978 130.6560014
  45.1489992  26.9699978 129.7430014  45.7409239  27.4514117 130.1612952
  56.7179992  24.2469978 135.6660014  56.0289992  24.9049978 135.5700014
  56.7329992  24.0489978 136.6020014  56.6256740  24.3103243 135.7794630
  42.7689992  22.5809978 134.2430014  42.5499992  23.1109978 133.4770014
  42.1009992  22.8069978 134.8900014  42.6487001  22.6841154 134.2256064
  50.1379992  32.0809978 127.7870014  49.8429992  31.7579978 126.9360014
  49.8139992  32.9809978 127.8280014  50.0537983  32.1584027 127.6759771
  45.3379992  30.2559978 134.5310014  44.5979992  30.8549978 134.6340014
  46.0519992  30.8099978 134.2150014  45.3333288  30.4127356 134.5023805
  53.4449992  23.0849978 130.5500014  53.2299992  22.3189978 131.0830014
  54.1009992  23.5569978 131.0630014  53.5042673  23.0440728 130.6921990
  42.3629992  24.4729978 132.1950014  42.9769992  25.1059978 132.5690014
  42.8749992  24.0009978 131.5390014  42.5162277  24.4957352 132.1574279
  43.7459992  32.2209978 135.3180014  43.7399992  33.0999978 134.9400014
  42.8919992  32.1369978 135.7430014  43.6297925  32.3299535 135.3236887
  39.8669992  31.8919978 126.1000014  39.5949992  32.1209978 125.2110014
  39.9119992  32.7289978 126.5600014  39.8358709  32.0366058 126.0406107
  53.4919992  33.5129978 132.8120014  52.5499992  33.5719978 132.9740014
  53.7679992  34.4189978 132.6750014  53.4005865  33.6435288 132.8156192
  53.7919992  21.7999978 134.2300014  53.0559992  22.4099978 134.1920014
  54.4759992  22.2149978 133.7030014  53.7835506  21.9396400 134.1536051
  46.7959992  19.8859978 131.6960014  46.6779992  18.9379978 131.6410014
  45.9409992  20.2189978 131.9690014  46.6642679  19.8011926 131.7253720
  51.7439992  35.2939978 129.4380014  52.1689992  34.5869978 128.9530014
  52.0609992  36.0959978 129.0210014  51.8450266  35.3055190 129.3152479
  52.9039992  33.1949978 127.9460014  52.6459992  32.5049978 127.3350014
  52.9749992  32.7519978 128.7920014  52.8782837  33.0407106 127.9766912
  54.5899992  31.7619978 136.4240014  54.7289992  31.1699978 135.6840014
  54.7569992  32.6349978 136.0670014  54.6315562  31.7989896 136.2746283
  49.0619992  28.7239978 126.1960014  48.3509992  29.2589978 125.8440014
  49.7529992  28.7789978 125.5360014  49.0580751  28.8046777 126.0585858
  49.1159992  27.1809978 123.2350014  49.8169992  27.2039978 123.8860014
  49.4179992  26.5529978 122.5790014  49.2528282  27.0992339 123.2354496
  56.4309992  28.1019978 134.4900014  55.7789992  28.7959978 134.5790014
  56.8969992  28.3119978 133.6800014  56.4045937  28.2255019 134.3927533
  52.4679992  28.9329978 127.1480014  51.7359992  29.1619978 127.7210014
  52.9149992  28.2199978 127.6030014  52.4282753  28.8678972 127.2879715
  52.3649992  27.1079978 136.2160014  52.4449992  27.8709978 136.7870014
  51.7639992  27.3869978 135.5250014  52.2947245  27.2502630 136.2008424
  44.1129992  29.5639978 129.0300014  43.7829992  29.1929978 128.2120014
  44.7019992  28.8929978 129.3770014  44.1473970  29.4226063 128.9649404
  45.4799992  32.9919978 131.7120014  45.3849992  32.4129978 130.9550014
  46.2089992  32.6209978 132.2080014  45.5656161  32.8625891 131.6755209
  44.4799992  28.3319978 132.6640014  45.0449992  28.4539978 131.9010014
  44.7989992  28.9699978 133.3030014  44.6003977  28.4348851 132.6459424
  50.7889992  33.8359978 133.3980014  50.5489992  34.4979978 134.0460014
  50.5909992  33.0009978 133.8230014  50.7293826  33.8138115 133.5441566
  45.3599992  32.7319978 137.3810014  45.0489992  33.5139978 137.8360014
  44.7099992  32.5789978 136.6950014  45.2295538  32.8184087 137.3505898
  51.3389992  28.0959978 124.8330014  51.9179992  28.2459978 125.5800014
  51.7529992  28.5659978 124.1100014  51.4743122  28.1801277 124.8375042
  42.2799992  28.9299978 136.6100014  42.3499992  29.5809978 137.3080014
  41.3889992  29.0329978 136.2750014  42.1691802  29.0329757 136.6602249
  49.0649992  34.8319978 128.2680014  49.5389992  35.1279978 129.0460014
  48.5019992  35.5709978 128.0350014  49.0537361  34.9722721 128.3428611
  43.5989992  34.8029978 138.1440014  43.6069992  34.6669978 137.1970014
  42.6829992  34.6859978 138.3960014  43.4762528  34.7685463 138.0483243
  55.0379992  19.8459978 124.6460014  54.1379992  19.9849978 124.9410014
  55.2899992  20.6769978 124.2440014  54.9488683  19.9774055 124.6320232
  43.1039992  28.6329978 126.6200014  42.8119992  29.4009978 126.1290014
  42.4289992  27.9739978 126.4570014  42.9728497  28.6489745 126.5308260
  56.2269992  34.2119978 123.0220014  56.2999992  35.1509978 123.1930014
  57.1319992  33.9069978 122.9660014  56.3594158  34.2993061 123.0378392
  39.1969992  30.9959978 135.4350014  38.6949992  30.9679978 134.6200014
  39.2019992  30.0909978 135.7440014  39.1290416  30.8697368 135.3653766
  38.9469992  33.7769978 132.3190014  39.8929992  33.6319978 132.3000014
  38.8339992  34.5609978 132.8560014  39.0613578  33.8631697 132.3890317
  57.1449992  34.4429978 138.0010014  57.0949992  33.4869978 137.9640014
  56.3179992  34.7099978 138.4020014  57.0263987  34.3485174 138.0501446
  48.1229992  34.0169978 136.8770014  48.2109992  34.8429978 137.3520014
  47.2599992  33.6869978 137.1260014  48.0183357  34.0855468 136.9757653
  48.5379992  37.7889978 126.6830014  48.4619992  37.6679978 125.7370014
  48.5699992  38.7379978 126.8020014  48.5319156  37.9007530 126.5695048
  42.1909992  36.5779978 128.4640014  42.3429992  36.2299978 129.3430014
  41.3399992  36.2209978 128.2090014  42.0967899  36.4821738 128.5497340
  51.6389992  36.9429978 123.6850014  52.0139992  36.1989978 123.2150014
  51.6439992  36.6729978 124.6040014  51.6910024  36.8046950 123.7447987
  51.3079992  36.8689978 126.4350014  50.3729992  36.9689978 126.6130014
  51.5879992  36.1589978 127.0130014  51.2178173  36.7867239 126.5374998
  54.2969992  25.9359978 138.4810014  53.8889992  26.4159978 137.7610014
  54.3369992  25.0299978 138.1730014  54.2465476  25.8793160 138.3408247
  41.4459992  32.3199978 136.4780014  41.6619992  31.9579978 137.3370014
  40.5899992  31.9449978 136.2680014  41.3599354  32.2197906 136.5672160
  44.0639992  20.7899978 132.4730014  43.2029992  20.7029978 132.0660014
  44.0419992  21.6459978 132.9010014  43.9430411  20.8937884 132.4750857
  48.7269992  20.5119978 135.8480014  49.1469992  20.0969978 136.6010014
  47.7939992  20.3329978 135.9650014  48.6583736  20.4309910 135.9668968
  52.0539992  24.2669978 136.7010014  51.5399992  24.1419978 137.4990014
  51.8979992  25.1799978 136.4570014  51.9626967  24.3732123 136.7770937
  52.8159992  29.1279978 122.4630014  52.8579992  28.9059978 121.5330014
  53.6649992  29.5269978 122.6530014  52.9365253  29.1515498 122.3613822
  48.3889992  23.0039978 123.1330014  48.1349992  23.0229978 124.0560014
  48.1319992  22.1329978 122.8320014  48.3195133  22.8888110 123.2185082
  44.1549992  25.7549978 133.5680014  43.5139992  25.7149978 134.2770014
  44.1929992  26.6819978 133.3310014  44.0723670  25.8747795 133.6330550
  44.1519992  25.9759978 128.4800014  43.2599992  25.6359978 128.4220014
  44.6029992  25.5989978 127.7250014  44.0906815  25.8783762 128.3699203
  49.6879992  26.3919978 127.2970014  49.2789992  27.2069978 127.0060014
  50.4079992  26.2519978 126.6830014  49.7294013  26.4846571 127.1740875
  48.7899992  26.5679978 138.7850014  48.2269992  25.8629978 139.1060014
  49.6159992  26.4469978 139.2530014  48.8246674  26.4552165 138.8921751
  50.6929992  25.8379978 130.1110014  50.4969992  26.4439978 129.3960014
  50.8739992  25.0049978 129.6770014  50.6906584  25.8082513 129.9544212
  41.9049992  26.0759978 135.4350014  41.8669992  26.4759978 136.3040014
  41.4149992  25.2589978 135.5260014  41.8335621  26.0202510 135.5661377
  45.2709992  23.4499978 122.2340014  44.8399992  23.0049978 122.9640014
  44.5529992  23.8209978 121.7220014  45.1149363  23.4392968 122.2646211
  38.5139992  23.1919978 129.2860014  39.1439992  23.1629978 130.0050014
  38.9629992  22.7669978 128.5560014  38.6610692  23.1305316 129.2857771
  39.7879992  23.9379978 124.7100014  40.2619992  24.5289978 124.1250014
  39.0699992  24.4679978 125.0570014  39.7558640  24.0905511 124.6767969
  49.9569992  27.4759978 134.7830014  50.2799992  26.8449978 134.1400014
  49.5159992  26.9419978 135.4430014  49.9415789  27.3173522 134.7842232
  46.7339992  23.4039978 129.5670014  45.8229992  23.4609978 129.8550014
  47.2389992  23.3439978 130.3770014  46.6775387  23.4036870 129.7160646
  41.5619992  25.0329978 128.3930014  40.6729992  25.1319978 128.0530014
  41.8589992  24.1909978 128.0470014  41.4804177  24.9327687 128.2996940
  45.2149992  25.0329978 126.0500014  46.1469992  25.1619978 126.2280014
  44.9999992  25.7019978 125.4000014  45.3134472  25.1410806 125.9864891
  51.1389992  22.6389978 132.8310014  50.4619992  22.7699978 133.4950014
  50.6539992  22.4839978 132.0210014  50.9807265  22.6359659 132.8123397
  43.8889992  26.2269978 123.6170014  43.3469992  25.8479978 122.9250014
  44.7229992  26.4219978 123.1880014  43.9275159  26.2015076 123.4644419
  54.4269992  38.3099978 139.1080014  54.6259992  38.7339978 138.2730014
  55.0819992  38.6539978 139.7150014  54.5428501  38.4146091 139.0757097
  42.0249992  30.7839978 138.7160014  42.7569992  31.0389978 139.2770014
  41.2439992  30.9889978 139.2310014  42.0197684  30.8466468 138.8624782
  48.0539992  26.1909978 131.4540014  48.6179992  25.6449978 130.9070014
  47.9059992  25.6699978 132.2420014  48.1112575  26.0456552 131.4856987
  43.0559992  22.3279978 127.8720014  42.7389992  21.4249978 127.8370014
  43.8369992  22.3299978 127.3190014  43.1182307  22.2046951 127.7924314
  46.6799992  24.5799978 133.8680014  45.8449992  25.0339978 133.9780014
  47.2039992  24.8559978 134.6200014  46.6365070  24.6794666 133.9847152
  47.2249992  30.7929978 125.5520014  46.4799992  30.2849978 125.2300014
  47.0899992  30.8419978 126.4990014  47.1049047  30.7301596 125.6358845
  54.3749992  29.9259978 134.3390014  55.0159992  30.3819978 133.7950014
  53.5439992  30.0389978 133.8770014  54.3505171  30.0037502 134.2020237
  51.1219992  23.6069978 123.7520014  50.1839992  23.7179978 123.6000014
  51.4199992  24.4629978 124.0580014  51.0336402  23.7380621 123.7725571
  48.7439992  30.9769978 136.7890014  48.3979992  30.5949978 137.5960014
  48.5439992  31.9099978 136.8610014  48.6696523  31.0509095 136.9090735
  51.8409992  25.4739978 125.4120014  52.7329992  25.3359978 125.7310014
  51.8969992  26.2649978 124.8760014  51.9707107  25.5620526 125.3832091
  42.3489992  30.0879978 131.3220014  43.0939992  30.0849978 130.7210014
  42.4269992  29.2639978 131.8040014  42.4614158  29.9762916 131.3049153
  49.3499992  32.2509978 124.5780014  49.0549992  33.0779978 124.9590014
  48.6469992  31.6319978 124.7740014  49.2145471  32.2805227 124.6566698
  39.3569992  28.5479978 136.6370014  39.5799992  28.1299978 137.4690014
  38.7549992  27.9359978 136.2140014  39.3061260  28.4079933 136.6937320
  46.3739992  28.0649978 138.8500014  46.0779992  27.8999978 137.9550014
  47.3049992  27.8449978 138.8390014  46.4593982  28.0126578 138.7260045
  50.9939992  33.4389978 136.7400014  50.0939992  33.6219978 136.4720014
  51.0279992  33.6979978 137.6610014  50.8752909  33.4990815 136.8277852
  56.7259992  25.6829978 125.1070014  56.1709992  25.2869978 124.4350014
  56.8259992  26.5939978 124.8290014  56.6635888  25.7518990 124.9775206
  56.6889992  31.4839978 137.9440014  55.8379992  31.7219978 137.5770014
  57.2789992  31.4669978 137.1910014  56.6522408  31.5142966 137.7918879
  55.0209992  34.4689978 125.5720014  54.6479992  33.6439978 125.8810014
  55.2979992  34.2859978 124.6750014  55.0073871  34.3312441 125.4929677
  52.1809992  29.2769978 132.5930014  51.2529992  29.0459978 132.5660014
  52.6319992  28.4999978 132.2630014  52.1148165  29.1402774 132.5446790
  44.7239992  33.6059978 128.7260014  45.2519992  34.3789978 128.5260014
  43.8439992  33.8299978 128.4250014  44.6773176  33.7423161 128.6578409
  40.4789992  28.4679978 123.3140014  41.0949992  29.0949978 123.6930014
  39.6169992  28.7839978 123.5850014  40.4468195  28.5965798 123.4025386
  46.1519992  31.2689978 128.3030014  45.9109992  32.1939978 128.3440014
  45.4109992  30.8099978 128.6990014  46.0188390  31.3336403 128.3621404
  46.6659992  35.4179978 134.6180014  47.0289992  36.2719978 134.3840014
  47.1979992  35.1259978 135.3580014  46.7876090  35.4954058 134.6860219
  44.8349992  36.2899978 127.8480014  43.8849992  36.3959978 127.8990014
  45.1869992  37.1109978 128.1930014  44.7525480  36.4154438 127.9015999
  50.2099992  31.5169978 134.3180014  49.7849992  31.2889978 135.1450014
  50.7909992  30.7779978 134.1360014  50.2303930  31.3859843 134.4064731
  52.4129992  32.4459978 123.3920014  52.7669992  32.0659978 124.1970014
  51.4649992  32.3519978 123.4790014  52.3331820  32.3813092 123.5138714
  52.8689992  36.0689978 136.7880014  52.2669992  35.5129978 136.2920014
  53.1499992  36.7359978 136.1620014  52.8246829  36.0831613 136.6355443
  56.9169992  36.9249978 123.5930014  57.6609992  37.5109978 123.4530014
  56.2229992  37.4939978 123.9270014  56.9250201  37.0820603 123.6189772
  40.9909992  23.3019978 136.1950014  40.0989992  23.6399978 136.1280014
  40.8929992  22.4459978 136.6130014  40.8554965  23.2326499 136.2423044
  53.2789992  31.1179978 125.6190014  53.0019992  30.3899978 126.1750014
  54.2069992  31.2369978 125.8240014  53.3664499  31.0344213 125.7228044
  40.6429992  35.1059978 134.6300014  40.8599992  34.1739978 134.5990014
  40.8889992  35.3809978 135.5130014  40.7059809  35.0155686 134.7451691
  46.5039992  33.5579978 121.8390014  46.7429992  32.8089978 121.2920014
  46.2349992  33.1699978 122.6720014  46.5003233  33.4031853 121.8767809
  45.4409992  33.1279978 124.2960014  45.5879992  32.6079978 125.0860014
  45.4379992  34.0349978 124.6020014  45.4607300  33.1793964 124.4455895
  41.8939992  30.3799978 124.8060014  41.2079992  30.7329978 125.3730014
  42.4169992  31.1429978 124.5600014  41.8709033  30.5313746 124.8502661
  49.7259992  23.0429978 135.0850014  50.4249992  23.1169978 135.7350014
  49.3449992  22.1779978 135.2390014  49.7702097  22.9362389 135.1947997
  50.5099992  22.6949978 126.1820014  50.7299992  23.1659978 125.3790014
  51.0689992  23.0889978 126.8520014  50.6156730  22.8127432 126.1625906
  48.1789992  34.8249978 125.0450014  47.3619992  35.3219978 125.0970014
  48.7079992  35.3009978 124.4050014  48.1388508  34.9572543 124.9656035
  47.7099992  24.4229978 127.0170014  48.5219992  24.9269978 127.0630014
  47.4659992  24.2779978 127.9310014  47.7881467  24.4723749 127.1468575
  48.2459992  25.4089978 136.2020014  48.3649992  25.9829978 136.9590014
  48.9009992  24.7209978 136.3160014  48.3509146  25.3945574 136.3211313
  48.5939992  21.5039978 127.9550014  48.2469992  22.1209978 128.6000014
  49.2529992  22.0049978 127.4740014  48.6355949  21.6561099 127.9782271
  45.5169992  35.8689978 125.0270014  45.6779992  36.6689978 124.5260014
  45.3199992  36.1759978 125.9120014  45.5123919  36.0199129 125.0781006
  44.2519992  22.5669978 124.6420014  44.1679992  23.4549978 124.9890014
  45.1419992  22.3019978 124.8740014  44.3608163  22.6527179 124.7208596
  54.4499992  23.3159978 137.0370014  53.5339992  23.5779978 136.9490014
  54.7859992  23.3129978 136.1400014  54.3699789  23.3514626 136.9037847
  53.0529992  27.0659978 131.1320014  52.2549992  26.6509978 130.8040014
  53.4979992  26.3759978 131.6230014  53.0039684  26.9158628 131.1535227
  42.5099992  32.9939978 123.7030014  43.1019992  33.6939978 123.9790014
  42.9689992  32.5609978 122.9830014  42.6530791  33.0312908 123.6434607
  40.8259992  25.6589978 122.8190014  40.7809992  26.5979978 122.9970014
  39.9379992  25.4229978 122.5490014  40.6998555  25.7556874 122.8068939
  54.1389992  36.3219978 132.7550014  53.9829992  37.0009978 132.0980014
  55.0719992  36.3939978 132.9580014  54.2437387  36.4246390 132.6925342
  41.6339992  20.4399978 131.4920014  41.4049992  20.4989978 130.5640014
  41.1919992  19.6489978 131.7980014  41.5428801  20.3410540 131.4064729
  40.5649992  34.3809978 127.6520014  39.7319992  34.8529978 127.6800014
  41.1099992  34.8909978 127.0540014  40.5247590  34.5145897 127.5749194
  39.8529992  36.9929978 138.9820014  40.3929992  36.7769978 139.7420014
  39.3719992  36.1879978 138.7930014  39.8618613  36.8545400 139.0604782
  44.4499992  35.9129978 140.6030014  45.2179992  35.4539978 140.9440014
  44.4289992  35.6869978 139.6730014  44.5522135  35.8196668 140.5239491
  48.5419992  35.4209978 121.9780014  47.8979992  34.7899978 122.2990014
  49.3039992  34.8899978 121.7460014  48.5568058  35.2627902 121.9906038
  51.0269992  34.2929978 139.3320014  50.6759992  33.4359978 139.5750014
  51.7529992  34.4349978 139.9390014  51.0771590  34.1950178 139.4472907
  53.1469992  35.2379978 122.2120014  53.4299992  34.4429978 122.6640014
  53.8859992  35.4709978 121.6510014  53.2856956  35.1607031 122.1979822
  39.7599992  30.8039978 139.9370014  39.9039992  29.9019978 139.6500014
  38.9879992  31.0899978 139.4490014  39.6753303  30.7193243 139.8317908
  44.1009992  31.1469978 122.0690014  44.1659992  30.3529978 122.6000014
  44.7539992  31.0289978 121.3790014  44.1981754  31.0223337 122.0484259
  46.4149992  30.7729978 139.3690014  46.0869992  31.0439978 138.5120014
  46.5669992  29.8319978 139.2820014  46.3906030  30.6828973 139.2397945
  49.4539992  32.1939978 121.8050014  49.1849992  32.3749978 122.7060014
  49.2469992  31.2689978 121.6740014  49.3892000  32.0936774 121.9105693
  52.1499992  30.6889978 136.7530014  52.8949992  31.2779978 136.6330014
  51.3929992  31.2709978 136.8160014  52.1495205  30.8481997 136.7451119
  40.5929992  28.0039978 139.3570014  41.0009992  27.1469978 139.2360014
  40.3319992  28.0179978 140.2780014  40.6136016  27.8885119 139.4649192
  45.2509992  29.1199978 124.3750014  44.7909992  28.6359978 125.0610014
  45.5059992  28.4509978 123.7390014  45.2225038  28.9633689 124.3829447
  44.5399992  27.0129978 136.7310014  43.9209992  27.6869978 137.0110014
  44.8839992  27.3339978 135.8980014  44.5017605  27.1487198 136.6566707
  46.3219992  27.3629978 122.6370014  46.1409992  27.2079978 121.7100014
  47.2719992  27.4709978 122.6820014  46.4256566  27.3563669 122.5160929
  49.5589992  29.4839978 140.0080014  50.5129992  29.5679978 139.9810014
  49.3989992  28.7719978 140.6280014  49.6677182  29.3992842 140.0880733
  55.7119992  29.7169978 122.0830014  55.4379992  29.2929978 121.2700014
  55.7509992  30.6489978 121.8660014  55.6797716  29.7848827 121.9424286
  44.8789992  24.3679978 137.8130014  45.0289992  23.6389978 137.2110014
  44.8809992  25.1449978 137.2540014  44.8997967  24.3732708 137.6550541
  45.2919992  22.7369978 135.3060014  45.8269992  23.1889978 134.6540014
  44.4389992  22.6289978 134.8830014  45.2500374  22.7842665 135.1596710
  46.8729992  28.1769978 135.5450014  47.6239992  28.0209978 134.9720014
  46.5339992  29.0289978 135.2700014  46.9299587  28.2708138 135.4294078
  51.2889992  25.9919978 140.5740014  51.4809992  25.0609978 140.4620014
  52.1469992  26.4169978 140.5640014  51.4312269  25.9219928 140.5573192
  52.6059992  28.7809978 138.6510014  52.3239992  29.4899978 138.0740014
  53.5479992  28.7079978 138.5000014  52.6947656  28.8683128 138.5514809
  43.3579992  25.5659978 139.7250014  42.5899992  25.0329978 139.5150014
  44.0359992  25.2559978 139.1250014  43.3446973  25.4512375 139.6151796
  46.0969992  20.1939978 135.7370014  45.9989992  21.1399978 135.6320014
  45.3549992  19.8209978 135.2620014  45.9831913  20.2731813 135.6583539
  47.3609992  24.5149978 139.3010014  47.1259992  24.2959978 140.2030014
  46.5779992  24.3079978 138.7910014  47.2229219  24.4570066 139.3555852
  50.0769992  23.6429978 138.3770014  49.1289992  23.6749978 138.5090014
  50.3889992  23.0169978 139.0300014  49.9895190  23.5627262 138.4833564
  51.7109992  22.2769978 140.3820014  51.6139992  21.3249978 140.3760014
  51.3889992  22.5449978 141.2420014  51.6541761  22.1829744 140.4974936
  41.5379992  23.4859978 139.4290014  41.7499992  22.7799978 138.8190014
  41.4269992  23.0489978 140.2730014  41.5520269  23.3301921 139.4595873
  46.3189992  19.4879978 138.4090014  47.0309992  18.8479978 138.3950014
  46.2179992  19.7539978 137.4950014  46.4027261  19.4364190 138.2835537
  46.6729992  21.1699978 140.4620014  46.5409992  20.6949978 139.6420014
  46.0729992  21.9149978 140.4070014  46.5739070  21.2055789 140.3423251
  46.2189992  38.0529978 123.6390014  47.1519992  38.2109978 123.7820014
  45.9549992  38.7289978 123.0140014  46.3109308  38.1659104 123.5741396
  39.7869992  32.6899978 123.1210014  40.7009992  32.7689978 123.3950014
  39.7949992  32.0029978 122.4550014  39.9131143  32.6079085 123.0684274
  38.4359992  38.0829978 128.1990014  37.7889992  37.6209978 127.6660014
  38.7909992  37.4109978 128.7810014  38.3954506  37.9289503 128.2047341
  39.3059992  36.1629978 130.0030014  38.9719992  35.2829978 130.1750014
  39.5289992  36.5089978 130.8680014  39.2903721  36.0891938 130.1434168
  56.8549992  36.9729978 132.9840014  56.8329992  37.1579978 133.9230014
  57.5449992  37.5409978 132.6430014  56.9453439  37.0751887 133.0664791
  56.4179992  36.5399978 135.9060014  55.9309992  35.8049978 135.5350014
  56.9669992  36.1459978 136.5840014  56.4255247  36.3861057 135.9468461
  54.8689992  32.3299978 140.5440014  54.0029992  32.2249978 140.9380014
  55.2449992  33.0879978 140.9900014  54.8013401  32.4181708 140.6582620
  56.1699992  30.5859978 126.0580014  57.0199992  31.0069978 126.1850014
  56.1749992  29.8459978 126.6650014  56.2871143  30.5436094 126.1574750
  56.5639992  28.6399978 127.8820014  55.8379992  28.1599978 128.2790014
  57.1459992  28.8449978 128.6140014  56.5431635  28.6019166 128.0353748
  56.3229992  31.4249978 132.8290014  57.1569992  31.0469978 132.5490014
  56.4349992  32.3679978 132.7100014  56.4522522  31.5007742 132.7746020
  54.8099992  34.3029978 135.1360014  54.1619992  34.6279978 135.7620014
  54.2919992  33.8619978 134.4620014  54.6514168  34.2878523 135.1305307
  56.8329992  28.5409978 124.2730014  56.3109992  28.8969978 123.5540014
  56.7999992  29.2159978 124.9510014  56.7570699  28.6809848 124.2662129
  55.1819992  25.7799978 122.8240014  55.2779992  26.4469978 122.1440014
  55.0419992  24.9649978 122.3420014  55.1762063  25.7610667 122.6658377
  54.3509992  27.1609978 128.4450014  54.2009992  26.2159978 128.4240014
  53.9969992  27.4419978 129.2880014  54.2825527  27.0695605 128.5561859
  39.3859992  29.2389978 132.4550014  39.5709992  29.1569978 131.5190014
  40.2359992  29.1149978 132.8790014  39.5260916  29.2110393 132.3842896
  55.2069992  29.1309978 138.0830014  55.7899992  28.3959978 138.2750014
  55.7709992  29.9029978 138.1300014  55.3629781  29.1348145 138.1156164
  56.7039992  27.0339978 138.7680014  55.8409992  26.6549978 138.6020014
  57.3079992  26.2949978 138.6940014  56.6675944  26.8822978 138.7352984
  54.4289992  23.1879978 121.9410014  55.0399992  22.8169978 122.5780014
  53.5919992  22.7669978 122.1370014  54.3994947  23.0802756 122.0547252
  54.0619992  24.7429978 126.9070014  54.3409992  23.8359978 127.0310014
  54.8209992  25.1769978 126.5180014  54.2028619  24.6774502 126.8713795
  54.6729992  25.3249978 132.3430014  55.6059992  25.5369978 132.3090014
  54.4379992  25.4259978 133.2650014  54.7688308  25.3676503 132.4630214
  54.7029992  26.0619978 135.1190014  53.8599992  26.3299978 135.4850014
  55.1449992  26.8839978 134.9080014  54.6474138  26.2098273 135.1405518
  38.9839992  24.5089978 138.5960014  39.9029992  24.3869978 138.8320014
  38.5339992  23.7589978 138.9850014  39.0491148  24.3908751 138.6809408
  56.9859992  20.0419978 140.4720014  57.3349992  19.3879978 139.8670014
  57.1329992  20.8789978 140.0330014  57.0537355  20.0656067 140.3296564
  54.6749992  22.0059978 126.9550014  54.8569992  21.5569978 127.7810014
  54.0749992  21.4219978 126.4920014  54.6187529  21.8656131 127.0053619
  40.2049992  22.8219978 131.4870014  40.6499992  22.0299978 131.7890014
  40.6709992  23.5379978 131.9180014  40.3289059  22.8104474 131.5866079
  38.5089992  25.8209978 132.5560014  39.0009992  25.5999978 131.7650014
  38.8709992  26.6609978 132.8370014  38.6252923  25.9043468 132.4857407
  56.5049992  22.1509978 138.8220014  55.5879992  22.4219978 138.7860014
  56.6279992  21.6159978 138.0380014  56.3960828  22.1157700 138.7110785
  56.5419992  22.0739978 123.4830014  56.9539992  21.3529978 123.0080014
  57.2229992  22.7429978 123.5420014  56.6905900  22.0657306 123.4259038
  38.8229992  22.0789978 126.6100014  37.8979992  22.2869978 126.4810014
  39.2769992  22.5629978 125.9210014  38.7576374  22.1729949 126.4990957
  53.5929992  37.0629978 128.5560014  54.2459992  36.7149978 127.9480014
  54.1039992  37.5509978 129.2020014  53.7512777  37.0813815 128.5602047
  38.7859992  20.8169978 134.9550014  38.1209992  20.5709978 135.5980014
  38.3429992  21.4389978 134.3770014  38.6350937  20.8673614 134.9649379
  40.9779992  33.9919978 139.0990014  40.1569992  34.1669978 138.6390014
  40.7259992  33.9189978 140.0200014  40.8316173  34.0060794 139.1604972
  43.9319992  34.9659978 135.3580014  43.5079992  35.7759978 135.0750014
  44.8369992  35.0519978 135.0560014  43.9962433  35.0883331 135.2785377
  48.2439992  36.3649978 138.3170014  48.4279992  36.0319978 139.1950014
  49.0899992  36.6749978 137.9950014  48.3836484  36.3612979 138.3937617
  50.5889992  37.6509978 137.5610014  51.2659992  37.0179978 137.3210014
  50.9099992  38.0519978 138.3680014  50.7251323  37.6185691 137.6373158
  55.5059992  20.2409978 136.6410014  54.6929992  20.5659978 136.2530014
  55.7389992  19.4799978 136.1080014  55.4262566  20.1826559 136.5159213
  41.3339992  38.2229978 135.4050014  40.6139992  38.6629978 134.9540014
  40.9689992  37.9719978 136.2540014  41.1859796  38.2493824 135.4579329
  43.8009992  37.8229978 134.4350014  42.9369992  37.8949978 134.8390014
  43.7459992  38.3699978 133.6510014  43.6751942  37.9067849 134.3844000
  48.5119992  37.7109978 133.6100014  48.0549992  38.2399978 132.9560014
  48.6749992  38.3139978 134.3360014  48.4714476  37.8649140 133.6185499
  50.8399992  36.5889978 134.5550014  49.9349992  36.7539978 134.2900014
  51.2679992  37.4419978 134.4900014  50.7740700  36.7269529 134.5099520
  53.4439992  38.1589978 134.8500014  53.2619992  39.0749978 134.6400014
  53.6209992  37.7479978 134.0040014  53.4429907  38.2289741 134.7067883
  40.7489992  36.8459978 132.3150014  40.7309992  36.4199978 133.1730014
  41.5539992  36.5269978 131.9070014  40.8553221  36.7447233 132.3770225
  42.8899992  35.5559978 130.9700014  42.6709992  34.6389978 131.1400014
  43.7139992  35.6959978 131.4360014  42.9714702  35.4495511 131.0562527
  45.4269992  36.0259978 131.8190014  45.6399992  35.1379978 131.5320014
  45.4919992  35.9909978 132.7740014  45.4649075  35.8998307 131.9087373
  48.9359992  21.6899978 130.9630014  48.2619992  21.0599978 131.2190014
  49.4999992  21.2059978 130.3600014  48.9200384  21.5383708 130.9165020
  54.0789992  19.7969978 131.0760014  54.6819992  20.3449978 130.5740014
  53.2089992  20.1159978 130.8360014  54.0439190  19.9151041 130.9748679
  55.8059992  20.9359978 129.4090014  56.4169992  20.4219978 128.8830014
  56.1879992  21.8129978 129.4330014  55.9414475  20.9841323 129.3401208
  41.2629992  20.3239978 128.7850014  40.4859992  20.0889978 128.2780014
  41.7929992  19.5269978 128.7940014  41.2283451  20.1841268 128.7168627
  40.0989992  20.1219978 124.5890014  40.5379992  20.7329978 123.9970014
  39.4649992  20.6599978 125.0630014  40.0733859  20.2784064 124.5720305
  45.8419992  20.2499978 128.5990014  46.7159992  20.6389978 128.5690014
  45.7059992  20.0349978 129.5210014  45.9433207  20.2741923 128.7196509
  51.3989992  20.2799978 130.2480014  51.4749992  20.3759978 129.2990014
  51.1239992  19.3729978 130.3770014  51.3722042  20.1704241 130.1353811
  52.7519992  20.3059978 125.9400014  52.0489992  20.9209978 125.7310014
  52.3069992  19.4689978 126.0720014  52.5956292  20.2770085 125.9292439
  39.9999992  36.0699978 125.4870014  39.3149992  36.0319978 124.8190014
  40.0039992  36.9829978 125.7750014  39.9068174  36.1881998 125.4345310
  41.9599992  22.0379978 123.0310014  42.4509992  21.4079978 122.5040014
  42.5829992  22.3339978 123.6950014  42.1115062  21.9916770 123.0485438
  46.9859992  22.3309978 125.4890014  47.1639992  21.6839978 126.1710014
  46.9319992  23.1649978 125.9560014  47.0031025  22.3550504 125.6456433
  48.8639992  37.2789978 123.8840014  49.7299992  37.6459978 123.7060014
  48.6179992  36.8399978 123.0700014  48.9492097  37.2698525 123.7496019
  55.5729992  36.8419978 126.5630014  55.3789992  36.0939978 125.9980014
  55.5339992  37.5999978 125.9800014  55.5411645  36.8420786 126.4068148
  41.2199992  20.8379978 138.3030014  40.8539992  20.0719978 138.7460014
  42.1329992  20.8669978 138.5900014  41.2933225  20.7371906 138.4023459
  43.1929992  20.1879978 139.8390014  44.0919992  19.9139978 139.6540014
  42.8069992  19.4459978 140.3030014  43.2637237  20.0501508 139.8764710
  41.8179992  36.9899978 122.5120014  41.5499992  37.2759978 123.3850014
  42.5889992  36.4439978 122.6640014  41.8855600  36.9553330 122.6521499
  51.6149992  19.5209978 140.0210014  51.6909992  19.0949978 140.8750014
  52.5079992  19.5339978 139.6780014  51.7462267  19.4643952 140.0915932
  54.7909992  35.5939978 138.7130014  54.0089992  35.4069978 138.1940014
  54.7189992  36.5229978 138.9310014  54.6740863  35.6940221 138.6713574
  69.1969992  29.4799978 128.7440014  69.2859992  30.4239978 128.6120014
  68.5589992  29.2049978 128.0860014  69.1229062  29.5719812 128.6369641
  68.1299992  28.7349978 132.1630014  68.0919992  28.0889978 132.8680014
  67.8079992  28.2679978 131.3920014  68.0812679  28.5834276 132.1552921
  60.4979992  28.3489978 133.7560014  60.5399992  27.7239978 134.4790014
  61.2009992  28.9729978 133.9380014  60.5987345  28.3477873 133.8795274
  71.8359992  31.6739978 130.4650014  71.3949992  30.9539978 130.9150014
  71.8229992  32.3949978 131.0940014  71.7737960  31.6728329 130.6117567
  61.4219992  32.7989978 132.2910014  61.0519992  31.9969978 131.9210014
  62.3629992  32.6309978 132.3370014  61.4985984  32.6664638 132.2465603
  58.0319992  26.4589978 127.6840014  57.5839992  27.3049978 127.6650014
  57.4709992  25.8799978 127.1680014  57.8949603  26.4963674 127.6116720
  58.7419992  28.6209978 129.8100014  58.9559992  27.8509978 130.3370014
  59.4799992  28.7109978 129.2060014  58.8709652  28.5278012 129.8005212
  68.9479992  36.7779978 130.6770014  69.5669992  36.1019978 130.4030014
  68.7389992  36.5599978 131.5850014  69.0046232  36.6557938 130.7622517
  66.5189992  31.1669978 132.5690014  66.8229992  30.4809978 131.9750014
  67.2409992  31.2859978 133.1870014  66.6581152  31.0892189 132.5712123
  75.1819992  22.7689978 133.4300014  75.2319992  23.3789978 134.1660014
  75.6079992  23.2299978 132.7070014  75.2464108  22.9147709 133.4330112
  69.6599992  25.5609978 132.8970014  69.8029992  24.6149978 132.9170014
  69.5539992  25.7679978 131.9680014  69.6652509  25.4594813 132.7742231
  62.8149992  23.6629978 130.1690014  62.8579992  24.5229978 129.7510014
  62.3569992  23.1109978 129.5350014  62.7589815  23.7060621 130.0261197
  70.5369992  23.7939978 128.5700014  71.1839992  23.4649978 129.1950014
  71.0469992  24.3109978 127.9470014  70.6944317  23.8189227 128.5712167
  59.4349992  26.0599978 130.9310014  60.0889992  25.5099978 131.3630014
  59.4589992  25.7859978 130.0140014  59.5277199  25.9477167 130.8661668
  64.5919992  27.6099978 130.1460014  65.2079992  27.0829978 130.6560014
  64.0049992  26.9699978 129.7430014  64.5969239  27.4514117 130.1612952
  75.5739992  24.2469978 135.6660014  74.8849992  24.9049978 135.5700014
  75.5889992  24.0489978 136.6020014  75.4816740  24.3103242 135.7794630
  61.6249992  22.5809978 134.2430014  61.4059992  23.1109978 133.4770014
  60.9569992  22.8069978 134.8900014  61.5047001  22.6841154 134.2256064
  68.9939992  32.0809978 127.7870014  68.6989992  31.7579978 126.9360014
  68.6699992  32.9809978 127.8280014  68.9097983  32.1584026 127.6759771
  64.1939992  30.2559978 134.5310014  63.4539992  30.8549978 134.6340014
  64.9079992  30.8099978 134.2150014  64.1893288  30.4127356 134.5023805
  72.3009992  23.0849978 130.5500014  72.0859992  22.3189978 131.0830014
  72.9569992  23.5569978 131.0630014  72.3602673  23.0440728 130.6921990
  61.2189992  24.4729978 132.1950014  61.8329992  25.1059978 132.5690014
  61.7309992  24.0009978 131.5390014  61.3722277  24.4957352 132.1574279
  62.6019992  32.2209978 135.3180014  62.5959992  33.0999978 134.9400014
  61.7479992  32.1369978 135.7430014  62.4857925  32.3299535 135.3236887
  58.7229992  31.8919978 126.1000014  58.4509992  32.1209978 125.2110014
  58.7679992  32.7289978 126.5600014  58.6918709  32.0366058 126.0406107
  72.3479992  33.5129978 132.8120014  71.4059992  33.5719978 132.9740014
  72.6239992  34.4189978 132.6750014  72.2565865  33.6435288 132.8156192
  72.6479992  21.7999978 134.2300014  71.9119992  22.4099978 134.1920014
  73.3319992  22.2149978 133.7030014  72.6395506  21.9396400 134.1536051
  65.6519992  19.8859978 131.6960014  65.5339992  18.9379978 131.6410014
  64.7969992  20.2189978 131.9690014  65.5202679  19.8011926 131.7253720
  70.5999992  35.2939978 129.4380014  71.0249992  34.5869978 128.9530014
  70.9169992  36.0959978 129.0210014  70.7010266  35.3055190 129.3152479
  71.7599992  33.1949978 127.9460014  71.5019992  32.5049978 127.3350014
  71.8309992  32.7519978 128.7920014  71.7342837  33.0407106 127.9766912
  73.4459992  31.7619978 136.4240014  73.5849992  31.1699978 135.6840014
  73.6129992  32.6349978 136.0670014  73.4875562  31.7989896 136.2746283
  67.9179992  28.7239978 126.1960014  67.2069992  29.2589978 125.8440014
  68.6089992  28.7789978 125.5360014  67.9140751  28.8046777 126.0585858
  67.9719992  27.1809978 123.2350014  68.6729992  27.2039978 123.8860014
  68.2739992  26.5529978 122.5790014  68.1088282  27.0992339 123.2354496
  75.2869992  28.1019978 134.4900014  74.6349992  28.7959978 134.5790014
  75.7529992  28.3119978 133.6800014  75.2605937  28.2255019 134.3927533
  71.3239992  28.9329978 127.1480014  70.5919992  29.1619978 127.7210014
  71.7709992  28.2199978 127.6030014  71.2842753  28.8678972 127.2879715
  71.2209992  27.1079978 136.2160014  71.3009992  27.8709978 136.7870014
  70.6199992  27.3869978 135.5250014  71.1507245  27.2502630 136.2008424
  62.9689992  29.5639978 129.0300014  62.6389992  29.1929978 128.2120014
  63.5579992  28.8929978 129.3770014  63.0033970  29.4226063 128.9649404
  64.3359992  32.9919978 131.7120014  64.2409992  32.4129978 130.9550014
  65.0649992  32.6209978 132.2080014  64.4216161  32.8625891 131.6755209
  63.3359992  28.3319978 132.6640014  63.9009992  28.4539978 131.9010014
  63.6549992  28.9699978 133.3030014  63.4563977  28.4348851 132.6459424
  69.6449992  33.8359978 133.3980014  69.4049992  34.4979978 134.0460014
  69.4469992  33.0009978 133.8230014  69.5853826  33.8138115 133.5441566
  64.2159992  32.7319978 137.3810014  63.9049992  33.5139978 137.8360014
  63.5659992  32.5789978 136.6950014  64.0855538  32.8184087 137.3505898
  70.1949992  28.0959978 124.8330014  70.7739992  28.2459978 125.5800014
  70.6089992  28.5659978 124.1100014  70.3303122  28.1801277 124.8375042
  61.1359992  28.9299978 136.6100014  61.2059992  29.5809978 137.3080014
  60.2449992  29.0329978 136.2750014  61.0251802  29.0329757 136.6602249
  67.9209992  34.8319978 128.2680014  68.3949992  35.1279978 129.0460014
  67.3579992  35.5709978 128.0350014  67.9097361  34.9722721 128.3428611
  62.4549992  34.8029978 138.1440014  62.4629992  34.6669978 137.1970014
  61.5389992  34.6859978 138.3960014  62.3322528  34.7685463 138.0483243
  73.8939992  19.8459978 124.6460014  72.9939992  19.9849978 124.9410014
  74.1459992  20.6769978 124.2440014  73.8048683  19.9774055 124.6320232
  61.9599992  28.6329978 126.6200014  61.6679992  29.4009978 126.1290014
  61.2849992  27.9739978 126.4570014  61.8288497  28.6489745 126.5308260
  75.0829992  34.2119978 123.0220014  75.1559992  35.1509978 123.1930014
  75.9879992  33.9069978 122.9660014  75.2154158  34.2993061 123.0378392
  58.0529992  30.9959978 135.4350014  57.5509992  30.9679978 134.6200014
  58.0579992  30.0909978 135.7440014  57.9850416  30.8697368 135.3653766
  57.8029992  33.7769978 132.3190014  58.7489992  33.6319978 132.3000014
  57.6899992  34.5609978 132.8560014  57.9173578  33.8631697 132.3890317
  76.0009992  34.4429978 138.0010014  75.9509992  33.4869978 137.9640014
  75.1739992  34.7099978 138.4020014  75.8823987  34.3485174 138.0501446
  66.9789992  34.0169978 136.8770014  67.0669992  34.8429978 137.3520014
  66.1159992  33.6869978 137.1260014  66.8743357  34.0855468 136.9757653
  67.3939992  37.7889978 126.6830014  67.3179992  37.6679978 125.7370014
  67.4259992  38.7379978 126.8020014  67.3879156  37.9007530 126.5695048
  61.0469992  36.5779978 128.4640014  61.1989992  36.2299978 129.3430014
  60.1959992  36.2209978 128.2090014  60.9527899  36.4821738 128.5497340
  70.4949992  36.9429978 123.6850014  70.8699992  36.1989978 123.2150014
  70.4999992  36.6729978 124.6040014  70.5470024  36.8046950 123.7447987
  70.1639992  36.8689978 126.4350014  69.2289992  36.9689978 126.6130014
  70.4439992  36.1589978 127.0130014  70.0738173  36.7867239 126.5374998
  73.1529992  25.9359978 138.4810014  72.7449992  26.4159978 137.7610014
  73.1929992  25.0299978 138.1730014  73.1025476  25.8793160 138.3408247
  60.3019992  32.3199978 136.4780014  60.5179992  31.9579978 137.3370014
  59.4459992  31.9449978 136.2680014  60.2159354  32.2197906 136.5672160
  62.9199992  20.7899978 132.4730014  62.0589992  20.7029978 132.0660014
  62.8979992  21.6459978 132.9010014  62.7990411  20.8937884 132.4750857
  67.5829992  20.5119978 135.8480014  68.0029992  20.0969978 136.6010014
  66.6499992  20.3329978 135.9650014  67.5143736  20.4309910 135.9668968
  70.9099992  24.2669978 136.7010014  70.3959992  24.1419978 137.4990014
  70.7539992  25.1799978 136.4570014  70.8186967  24.3732123 136.7770937
  71.6719992  29.1279978 122.4630014  71.7139992  28.9059978 121.5330014
  72.5209992  29.5269978 122.6530014  71.7925253  29.1515498 122.3613822
  67.2449992  23.0039978 123.1330014  66.9909992  23.0229978 124.0560014
  66.9879992  22.1329978 122.8320014  67.1755133  22.8888110 123.2185082
  63.0109992  25.7549978 133.5680014  62.3699992  25.7149978 134.2770014
  63.0489992  26.6819978 133.3310014  62.9283670  25.8747795 133.6330550
  63.0079992  25.9759978 128.4800014  62.1159992  25.6359978 128.4220014
  63.4589992  25.5989978 127.7250014  62.9466815  25.8783762 128.3699203
  68.5439992  26.3919978 127.2970014  68.1349992  27.2069978 127.0060014
  69.2639992  26.2519978 126.6830014  68.5854013  26.4846571 127.1740875
  67.6459992  26.5679978 138.7850014  67.0829992  25.8629978 139.1060014
  68.4719992  26.4469978 139.2530014  67.6806674  26.4552165 138.8921751
  69.5489992  25.8379978 130.1110014  69.3529992  26.4439978 129.3960014
  69.7299992  25.0049978 129.6770014  69.5466584  25.8082513 129.9544212
  60.7609992  26.0759978 135.4350014  60.7229992  26.4759978 136.3040014
  60.2709992  25.2589978 135.5260014  60.6895621  26.0202510 135.5661377
  64.1269992  23.4499978 122.2340014  63.6959992  23.0049978 122.9640014
  63.4089992  23.8209978 121.7220014  63.9709363  23.4392968 122.2646211
  57.3699992  23.1919978 129.2860014  57.9999992  23.1629978 130.0050014
  57.8189992  22.7669978 128.5560014  57.5170692  23.1305316 129.2857771
  58.6439992  23.9379978 124.7100014  59.1179992  24.5289978 124.1250014
  57.9259992  24.4679978 125.0570014  58.6118640  24.0905511 124.6767969
  68.8129992  27.4759978 134.7830014  69.1359992  26.8449978 134.1400014
  68.3719992  26.9419978 135.4430014  68.7975789  27.3173522 134.7842232
  65.5899992  23.4039978 129.5670014  64.6789992  23.4609978 129.8550014
  66.0949992  23.3439978 130.3770014  65.5335387  23.4036870 129.7160646
  60.4179992  25.0329978 128.3930014  59.5289992  25.1319978 128.0530014
  60.7149992  24.1909978 128.0470014  60.3364177  24.9327687 128.2996940
  64.0709992  25.0329978 126.0500014  65.0029992  25.1619978 126.2280014
  63.8559992  25.7019978 125.4000014  64.1694472  25.1410806 125.9864891
  69.9949992  22.6389978 132.8310014  69.3179992  22.7699978 133.4950014
  69.5099992  22.4839978 132.0210014  69.8367265  22.6359659 132.8123397
  62.7449992  26.2269978 123.6170014  62.2029992  25.8479978 122.9250014
  63.5789992  26.4219978 123.1880014  62.7835159  26.2015076 123.4644419
  73.2829992  38.3099978 139.1080014  73.4819992  38.7339978 138.2730014
  73.9379992  38.6539978 139.7150014  73.3988501  38.4146091 139.0757097
  60.8809992  30.7839978 138.7160014  61.6129992  31.0389978 139.2770014
  60.0999992  30.9889978 139.2310014  60.8757684  30.8466468 138.8624782
  66.9099992  26.1909978 131.4540014  67.4739992  25.6449978 130.9070014
  66.7619992  25.6699978 132.2420014  66.9672575  26.0456552 131.4856987
  61.9119992  22.3279978 127.8720014  61.5949992  21.4249978 127.8370014
  62.6929992  22.3299978 127.3190014  61.9742307  22.2046951 127.7924314
  65.5359992  24.5799978 133.8680014  64.7009992  25.0339978 133.9780014
  66.0599992  24.8559978 134.6200014  65.4925070  24.6794666 133.9847152
  66.0809992  30.7929978 125.5520014  65.3359992  30.2849978 125.2300014
  65.9459992  30.8419978 126.4990014  65.9609047  30.7301596 125.6358845
  73.2309992  29.9259978 134.3390014  73.8719992  30.3819978 133.7950014
  72.3999992  30.0389978 133.8770014  73.2065171  30.0037502 134.2020237
  69.9779992  23.6069978 123.7520014  69.0399992  23.7179978 123.6000014
  70.2759992  24.4629978 124.0580014  69.8896402  23.7380621 123.7725571
  67.5999992  30.9769978 136.7890014  67.2539992  30.5949978 137.5960014
  67.3999992  31.9099978 136.8610014  67.5256523  31.0509095 136.9090735
  70.6969992  25.4739978 125.4120014  71.5889992  25.3359978 125.7310014
  70.7529992  26.2649978 124.8760014  70.8267107  25.5620526 125.3832091
  61.2049992  30.0879978 131.3220014  61.9499992  30.0849978 130.7210014
  61.2829992  29.2639978 131.8040014  61.3174159  29.9762916 131.3049153
  68.2059992  32.2509978 124.5780014  67.9109992  33.0779978 124.9590014
  67.5029992  31.6319978 124.7740014  68.0705471  32.2805227 124.6566698
  58.2129992  28.5479978 136.6370014  58.4359992  28.1299978 137.4690014
  57.6109992  27.9359978 136.2140014  58.1621260  28.4079933 136.6937320
  65.2299992  28.0649978 138.8500014  64.9339992  27.8999978 137.9550014
  66.1609992  27.8449978 138.8390014  65.3153982  28.0126578 138.7260045
  69.8499992  33.4389978 136.7400014  68.9499992  33.6219978 136.4720014
  69.8839992  33.6979978 137.6610014  69.7312909  33.4990815 136.8277852
  75.5819992  25.6829978 125.1070014  75.0269992  25.2869978 124.4350014
  75.6819992  26.5939978 124.8290014  75.5195888  25.7518990 124.9775206
  75.5449992  31.4839978 137.9440014  74.6939992  31.7219978 137.5770014
  76.1349992  31.4669978 137.1910014  75.5082408  31.5142966 137.7918879
  73.8769992  34.4689978 125.5720014  73.5039992  33.6439978 125.8810014
  74.1539992  34.2859978 124.6750014  73.8633871  34.3312441 125.4929677
  71.0369992  29.2769978 132.5930014  70.1089992  29.0459978 132.5660014
  71.4879992  28.4999978 132.2630014  70.9708165  29.1402774 132.5446790
  63.5799992  33.6059978 128.7260014  64.1079992  34.3789978 128.5260014
  62.6999992  33.8299978 128.4250014  63.5333176  33.7423161 128.6578409
  59.3349992  28.4679978 123.3140014  59.9509992  29.0949978 123.6930014
  58.4729992  28.7839978 123.5850014  59.3028195  28.5965798 123.4025386
  65.0079992  31.2689978 128.3030014  64.7669992  32.1939978 128.3440014
  64.2669992  30.8099978 128.6990014  64.8748390  31.3336403 128.3621404
  65.5219992  35.4179978 134.6180014  65.8849992  36.2719978 134.3840014
  66.0539992  35.1259978 135.3580014  65.6436090  35.4954058 134.6860219
  63.6909992  36.2899978 127.8480014  62.7409992  36.3959978 127.8990014
  64.0429992  37.1109978 128.1930014  63.6085480  36.4154438 127.9015999
  69.0659992  31.5169978 134.3180014  68.6409992  31.2889978 135.1450014
  69.6469992  30.7779978 134.1360014  69.0863930  31.3859843 134.4064731
  71.2689992  32.4459978 123.3920014  71.6229992  32.0659978 124.1970014
  70.3209992  32.3519978 123.4790014  71.1891820  32.3813092 123.5138714
  71.7249992  36.0689978 136.7880014  71.1229992  35.5129978 136.2920014
  72.0059992  36.7359978 136.1620014  71.6806829  36.0831613 136.6355443
  75.7729992  36.9249978 123.5930014  76.5169992  37.5109978 123.4530014
  75.0789992  37.4939978 123.9270014  75.7810201  37.0820603 123.6189772
  59.8469992  23.3019978 136.1950014  58.9549992  23.6399978 136.1280014
  59.7489992  22.4459978 136.6130014  59.7114965  23.2326499 136.2423044
  72.1349992  31.1179978 125.6190014  71.8579992  30.3899978 126.1750014
  73.0629992  31.2369978 125.8240014  72.2224499  31.0344213 125.7228044
  59.4989992  35.1059978 134.6300014  59.7159992  34.1739978 134.5990014
  59.7449992  35.3809978 135.5130014  59.5619809  35.0155686 134.7451691
  65.3599992  33.5579978 121.8390014  65.5989992  32.8089978 121.2920014
  65.0909992  33.1699978 122.6720014  65.3563233  33.4031853 121.8767809
  64.2969992  33.1279978 124.2960014  64.4439992  32.6079978 125.0860014
  64.2939992  34.0349978 124.6020014  64.3167300  33.1793964 124.4455895
  60.7499992  30.3799978 124.8060014  60.0639992  30.7329978 125.3730014
  61.2729992  31.1429978 124.5600014  60.7269033  30.5313746 124.8502661
  68.5819992  23.0429978 135.0850014  69.2809992  23.1169978 135.7350014
  68.2009992  22.1779978 135.2390014  68.6262097  22.9362389 135.1947997
  69.3659992  22.6949978 126.1820014  69.5859992  23.1659978 125.3790014
  69.9249992  23.0889978 126.8520014  69.4716730  22.8127432 126.1625906
  67.0349992  34.8249978 125.0450014  66.2179992  35.3219978 125.0970014
  67.5639992  35.3009978 124.4050014  66.9948508  34.9572543 124.9656035
  66.5659992  24.4229978 127.0170014  67.3779992  24.9269978 127.0630014
  66.3219992  24.2779978 127.9310014  66.6441467  24.4723749 127.1468575
  67.1019992  25.4089978 136.2020014  67.2209992  25.9829978 136.9590014
  67.7569992  24.7209978 136.3160014  67.2069146  25.3945574 136.3211314
  67.4499992  21.5039978 127.9550014  67.1029992  22.1209978 128.6000014
  68.1089992  22.0049978 127.4740014  67.4915949  21.6561099 127.9782271
  64.3729992  35.8689978 125.0270014  64.5339992  36.6689978 124.5260014
  64.1759992  36.1759978 125.9120014  64.3683919  36.0199129 125.0781006
  63.1079992  22.5669978 124.6420014  63.0239992  23.4549978 124.9890014
  63.9979992  22.3019978 124.8740014  63.2168163  22.6527179 124.7208596
  73.3059992  23.3159978 137.0370014  72.3899992  23.5779978 136.9490014
  73.6419992  23.3129978 136.1400014  73.2259789  23.3514626 136.9037847
  71.9089992  27.0659978 131.1320014  71.1109992  26.6509978 130.8040014
  72.3539992  26.3759978 131.6230014  71.8599684  26.9158628 131.1535227
  61.3659992  32.9939978 123.7030014  61.9579992  33.6939978 123.9790014
  61.8249992  32.5609978 122.9830014  61.5090791  33.0312908 123.6434607
  59.6819992  25.6589978 122.8190014  59.6369992  26.5979978 122.9970014
  58.7939992  25.4229978 122.5490014  59.5558555  25.7556874 122.8068939
  72.9949992  36.3219978 132.7550014  72.8389992  37.0009978 132.0980014
  73.9279992  36.3939978 132.9580014  73.0997387  36.4246390 132.6925342
  60.4899992  20.4399978 131.4920014  60.2609992  20.4989978 130.5640014
  60.0479992  19.6489978 131.7980014  60.3988801  20.3410540 131.4064729
  59.4209992  34.3809978 127.6520014  58.5879992  34.8529978 127.6800014
  59.9659992  34.8909978 127.0540014  59.3807590  34.5145897 127.5749194
  58.7089992  36.9929978 138.9820014  59.2489992  36.7769978 139.7420014
  58.2279992  36.1879978 138.7930014  58.7178613  36.8545400 139.0604782
  63.3059992  35.9129978 140.6030014  64.0739992  35.4539978 140.9440014
  63.2849992  35.6869978 139.6730014  63.4082135  35.8196668 140.5239491
  67.3979992  35.4209978 121.9780014  66.7539992  34.7899978 122.2990014
  68.1599992  34.8899978 121.7460014  67.4128058  35.2627902 121.9906038
  69.8829992  34.2929978 139.3320014  69.5319992  33.4359978 139.5750014
  70.6089992  34.4349978 139.9390014  69.9331590  34.1950178 139.4472907
  72.0029992  35.2379978 122.2120014  72.2859992  34.4429978 122.6640014
  72.7419992  35.4709978 121.6510014  72.1416956  35.1607031 122.1979822
  58.6159992  30.8039978 139.9370014  58.7599992  29.9019978 139.6500014
  57.8439992  31.0899978 139.4490014  58.5313303  30.7193243 139.8317908
  62.9569992  31.1469978 122.0690014  63.0219992  30.3529978 122.6000014
  63.6099992  31.0289978 121.3790014  63.0541754  31.0223337 122.0484259
  65.2709992  30.7729978 139.3690014  64.9429992  31.0439978 138.5120014
  65.4229992  29.8319978 139.2820014  65.2466030  30.6828973 139.2397945
  68.3099992  32.1939978 121.8050014  68.0409992  32.3749978 122.7060014
  68.1029992  31.2689978 121.6740014  68.2452000  32.0936774 121.9105693
  71.0059992  30.6889978 136.7530014  71.7509992  31.2779978 136.6330014
  70.2489992  31.2709978 136.8160014  71.0055205  30.8481997 136.7451119
  59.4489992  28.0039978 139.3570014  59.8569992  27.1469978 139.2360014
  59.1879992  28.0179978 140.2780014  59.4696016  27.8885119 139.4649192
  64.1069992  29.1199978 124.3750014  63.6469992  28.6359978 125.0610014
  64.3619992  28.4509978 123.7390014  64.0785038  28.9633689 124.3829447
  63.3959992  27.0129978 136.7310014  62.7769992  27.6869978 137.0110014
  63.7399992  27.3339978 135.8980014  63.3577605  27.1487198 136.6566707
  65.1779992  27.3629978 122.6370014  64.9969992  27.2079978 121.7100014
  66.1279992  27.4709978 122.6820014  65.2816566  27.3563669 122.5160929
  68.4149992  29.4839978 140.0080014  69.3689992  29.5679978 139.9810014
  68.2549992  28.7719978 140.6280014  68.5237182  29.3992842 140.0880733
  74.5679992  29.7169978 122.0830014  74.2939992  29.2929978 121.2700014
  74.6069992  30.6489978 121.8660014  74.5357716  29.7848827 121.9424286
  63.7349992  24.3679978 137.8130014  63.8849992  23.6389978 137.2110014
  63.7369992  25.1449978 137.2540014  63.7557967  24.3732708 137.6550541
  64.1479992  22.7369978 135.3060014  64.6829992  23.1889978 134.6540014
  63.2949992  22.6289978 134.8830014  64.1060374  22.7842665 135.1596710
  65.7289992  28.1769978 135.5450014  66.4799992  28.0209978 134.9720014
  65.3899992  29.0289978 135.2700014  65.7859587  28.2708138 135.4294078
  70.1449992  25.9919978 140.5740014  70.3369992  25.0609978 140.4620014
  71.0029992  26.4169978 140.5640014  70.2872269  25.9219928 140.5573192
  71.4619992  28.7809978 138.6510014  71.1799992  29.4899978 138.0740014
  72.4039992  28.7079978 138.5000014  71.5507656  28.8683128 138.5514809
  62.2139992  25.5659978 139.7250014  61.4459992  25.0329978 139.5150014
  62.8919992  25.2559978 139.1250014  62.2006973  25.4512375 139.6151796
  64.9529992  20.1939978 135.7370014  64.8549992  21.1399978 135.6320014
  64.2109992  19.8209978 135.2620014  64.8391913  20.2731813 135.6583539
  66.2169992  24.5149978 139.3010014  65.9819992  24.2959978 140.2030014
  65.4339992  24.3079978 138.7910014  66.0789219  24.4570066 139.3555852
  68.9329992  23.6429978 138.3770014  67.9849992  23.6749978 138.5090014
  69.2449992  23.0169978 139.0300014  68.8455190  23.5627262 138.4833564
  70.5669992  22.2769978 140.3820014  70.4699992  21.3249978 140.3760014
  70.2449992  22.5449978 141.2420014  70.5101761  22.1829744 140.4974936
  60.3939992  23.4859978 139.4290014  60.6059992  22.7799978 138.8190014
  60.2829992  23.0489978 140.2730014  60.4080269  23.3301921 139.4595873
  65.1749992  19.4879978 138.4090014  65.8869992  18.8479978 138.3950014
  65.0739992  19.7539978 137.4950014  65.2587261  19.4364190 138.2835537
  65.5289992  21.1699978 140.4620014  65.3969992  20.6949978 139.6420014
  64.9289992  21.9149978 140.4070014  65.4299070  21.2055789 140.3423251
  65.0749992  38.0529978 123.6390014  66.0079992  38.2109978 123.7820014
  64.8109992  38.7289978 123.0140014  65.1669308  38.1659104 123.5741396
  58.6429992  32.6899978 123.1210014  59.5569992  32.7689978 123.3950014
  58.6509992  32.0029978 122.4550014  58.7691143  32.6079085 123.0684274
  57.2919992  38.0829978 128.1990014  56.6449992  37.6209978 127.6660014
  57.6469992  37.4109978 128.7810014  57.2514506  37.9289503 128.2047341
  58.1619992  36.1629978 130.0030014  57.8279992  35.2829978 130.1750014
  58.3849992  36.5089978 130.8680014  58.1463721  36.0891938 130.1434168
  75.7109992  36.9729978 132.9840014  75.6889992  37.1579978 133.9230014
  76.4009992  37.5409978 132.6430014  75.8013439  37.0751887 133.0664791
  75.2739992  36.5399978 135.9060014  74.7869992  35.8049978 135.5350014
  75.8229992  36.1459978 136.5840014  75.2815247  36.3861057 135.9468461
  73.7249992  32.3299978 140.5440014  72.8589992  32.2249978 140.9380014
  74.1009992  33.0879978 140.9900014  73.6573401  32.4181708 140.6582620
  75.0259992  30.5859978 126.0580014  75.8759992  31.0069978 126.1850014
  75.0309992  29.8459978 126.6650014  75.1431143  30.5436094 126.1574750
  75.4199992  28.6399978 127.8820014  74.6939992  28.1599978 128.2790014
  76.0019992  28.8449978 128.6140014  75.3991635  28.6019166 128.0353748
  75.1789992  31.4249978 132.8290014  76.0129992  31.0469978 132.5490014
  75.2909992  32.3679978 132.7100014  75.3082522  31.5007742 132.7746020
  73.6659992  34.3029978 135.1360014  73.0179992  34.6279978 135.7620014
  73.1479992  33.8619978 134.4620014  73.5074168  34.2878523 135.1305307
  75.6889992  28.5409978 124.2730014  75.1669992  28.8969978 123.5540014
  75.6559992  29.2159978 124.9510014  75.6130699  28.6809848 124.2662129
  74.0379992  25.7799978 122.8240014  74.1339992  26.4469978 122.1440014
  73.8979992  24.9649978 122.3420014  74.0322063  25.7610667 122.6658377
  73.2069992  27.1609978 128.4450014  73.0569992  26.2159978 128.4240014
  72.8529992  27.4419978 129.2880014  73.1385527  27.0695605 128.5561859
  58.2419992  29.2389978 132.4550014  58.4269992  29.1569978 131.5190014
  59.0919992  29.1149978 132.8790014  58.3820916  29.2110393 132.3842896
  74.0629992  29.1309978 138.0830014  74.6459992  28.3959978 138.2750014
  74.6269992  29.9029978 138.1300014  74.2189781  29.1348145 138.1156164
  75.5599992  27.0339978 138.7680014  74.6969992  26.6549978 138.6020014
  76.1639992  26.2949978 138.6940014  75.5235944  26.8822978 138.7352984
  73.2849992  23.1879978 121.9410014  73.8959992  22.8169978 122.5780014
  72.4479992  22.7669978 122.1370014  73.2554947  23.0802756 122.0547252
  72.9179992  24.7429978 126.9070014  73.1969992  23.8359978 127.0310014
  73.6769992  25.1769978 126.5180014  73.0588619  24.6774502 126.8713795
  73.5289992  25.3249978 132.3430014  74.4619992  25.5369978 132.3090014
  73.2939992  25.4259978 133.2650014  73.6248308  25.3676503 132.4630214
  73.5589992  26.0619978 135.1190014  72.7159992  26.3299978 135.4850014
  74.0009992  26.8839978 134.9080014  73.5034138  26.2098273 135.1405518
  57.8399992  24.5089978 138.5960014  58.7589992  24.3869978 138.8320014
  57.3899992  23.7589978 138.9850014  57.9051148  24.3908751 138.6809408
  75.8419992  20.0419978 140.4720014  76.1909992  19.3879978 139.8670014
  75.9889992  20.8789978 140.0330014  75.9097355  20.0656067 140.3296564
  73.5309992  22.0059978 126.9550014  73.7129992  21.5569978 127.7810014
  72.9309992  21.4219978 126.4920014  73.4747529  21.8656131 127.0053619
  59.0609992  22.8219978 131.4870014  59.5059992  22.0299978 131.7890014
  59.5269992  23.5379978 131.9180014  59.1849059  22.8104474 131.5866079
  57.3649992  25.8209978 132.5560014  57.8569992  25.5999978 131.7650014
  57.7269992  26.6609978 132.8370014  57.4812923  25.9043468 132.4857407
  75.3609992  22.1509978 138.8220014  74.4439992  22.4219978 138.7860014
  75.4839992  21.6159978 138.0380014  75.2520828  22.1157700 138.7110785
  75.3979992  22.0739978 123.4830014  75.8099992  21.3529978 123.0080014
  76.0789992  22.7429978 123.5420014  75.5465900  22.0657306 123.4259038
  57.6789992  22.0789978 126.6100014  56.7539992  22.2869978 126.4810014
  58.1329992  22.5629978 125.9210014  57.6136374  22.1729949 126.4990957
  72.4489992  37.0629978 128.5560014  73.1019992  36.7149978 127.9480014
  72.9599992  37.5509978 129.2020014  72.6072777  37.0813815 128.5602047
  57.6419992  20.8169978 134.9550014  56.9769992  20.5709978 135.5980014
  57.1989992  21.4389978 134.3770014  57.4910937  20.8673614 134.9649379
  59.8339992  33.9919978 139.0990014  59.0129992  34.1669978 138.6390014
  59.5819992  33.9189978 140.0200014  59.6876173  34.0060794 139.1604972
  62.7879992  34.9659978 135.3580014  62.3639992  35.7759978 135.0750014
  63.6929992  35.0519978 135.0560014  62.8522433  35.0883331 135.2785377
  67.0999992  36.3649978 138.3170014  67.2839992  36.0319978 139.1950014
  67.9459992  36.6749978 137.9950014  67.2396484  36.3612979 138.3937617
  69.4449992  37.6509978 137.5610014  70.1219992  37.0179978 137.3210014
  69.7659992  38.0519978 138.3680014  69.5811323  37.6185691 137.6373158
  74.3619992  20.2409978 136.6410014  73.5489992  20.5659978 136.2530014
  74.5949992  19.4799978 136.1080014  74.2822566  20.1826559 136.5159213
  60.1899992  38.2229978 135.4050014  59.4699992  38.6629978 134.9540014
  59.8249992  37.9719978 136.2540014  60.0419796  38.2493824 135.4579329
  62.6569992  37.8229978 134.4350014  61.7929992  37.8949978 134.8390014
  62.6019992  38.3699978 133.6510014  62.5311942  37.9067849 134.3844000
  67.3679992  37.7109978 133.6100014  66.9109992  38.2399978 132.9560014
  67.5309992  38.3139978 134.3360014  67.3274476  37.8649140 133.6185499
  69.6959992  36.5889978 134.5550014  68.7909992  36.7539978 134.2900014
  70.1239992  37.4419978 134.4900014  69.6300700  36.7269529 134.5099520
  72.2999992  38.1589978 134.8500014  72.1179992  39.0749978 134.6400014
  72.4769992  37.7479978 134.0040014  72.2989907  38.2289741 134.7067883
  59.6049992  36.8459978 132.3150014  59.5869992  36.4199978 133.1730014
  60.4099992  36.5269978 131.9070014  59.7113221  36.7447233 132.3770225
  61.7459992  35.5559978 130.9700014  61.5269992  34.6389978 131.1400014
  62.5699992  35.6959978 131.4360014  61.8274702  35.4495511 131.0562527
  64.2829992  36.0259978 131.8190014  64.4959992  35.1379978 131.5320014
  64.3479992  35.9909978 132.7740014  64.3209075  35.8998307 131.9087373
  67.7919992  21.6899978 130.9630014  67.1179992  21.0599978 131.2190014
  68.3559992  21.2059978 130.3600014  67.7760384  21.5383708 130.9165020
  72.9349992  19.7969978 131.0760014  73.5379992  20.3449978 130.5740014
  72.0649992  20.1159978 130.8360014  72.8999190  19.9151041 130.9748679
  74.6619992  20.9359978 129.4090014  75.2729992  20.4219978 128.8830014
  75.0439992  21.8129978 129.4330014  74.7974475  20.9841323 129.3401208
  60.1189992  20.3239978 128.7850014  59.3419992  20.0889978 128.2780014
  60.6489992  19.5269978 128.7940014  60.0843451  20.1841268 128.7168627
  58.9549992  20.1219978 124.5890014  59.3939992  20.7329978 123.9970014
  58.3209992  20.6599978 125.0630014  58.9293859  20.2784064 124.5720305
  64.6979992  20.2499978 128.5990014  65.5719992  20.6389978 128.5690014
  64.5619992  20.0349978 129.5210014  64.7993207  20.2741923 128.7196509
  70.2549992  20.2799978 130.2480014  70.3309992  20.3759978 129.2990014
  69.9799992  19.3729978 130.3770014  70.2282042  20.1704241 130.1353811
  71.6079992  20.3059978 125.9400014  70.9049992  20.9209978 125.7310014
  71.1629992  19.4689978 126.0720014  71.4516292  20.2770085 125.9292439
  58.8559992  36.0699978 125.4870014  58.1709992  36.0319978 124.8190014
  58.8599992  36.9829978 125.7750014  58.7628174  36.1881998 125.4345310
  60.8159992  22.0379978 123.0310014  61.3069992  21.4079978 122.5040014
  61.4389992  22.3339978 123.6950014  60.9675062  21.9916770 123.0485438
  65.8419992  22.3309978 125.4890014  66.0199992  21.6839978 126.1710014
  65.7879992  23.1649978 125.9560014  65.8591025  22.3550504 125.6456433
  67.7199992  37.2789978 123.8840014  68.5859992  37.6459978 123.7060014
  67.4739992  36.8399978 123.0700014  67.8052097  37.2698525 123.7496019
  74.4289992  36.8419978 126.5630014  74.2349992  36.0939978 125.9980014
  74.3899992  37.5999978 125.9800014  74.3971645  36.8420786 126.4068148
  60.0759992  20.8379978 138.3030014  59.7099992  20.0719978 138.7460014
  60.9889992  20.8669978 138.5900014  60.1493225  20.7371906 138.4023459
  62.0489992  20.1879978 139.8390014  62.9479992  19.9139978 139.6540014
  61.6629992  19.4459978 140.3030014  62.1197237  20.0501508 139.8764710
  60.6739992  36.9899978 122.5120014  60.4059992  37.2759978 123.3850014
  61.4449992  36.4439978 122.6640014  60.7415600  36.9553330 122.6521499
  70.4709992  19.5209978 140.0210014  70.5469992  19.0949978 140.8750014
  71.3639992  19.5339978 139.6780014  70.6022267  19.4643952 140.0915932
  73.6469992  35.5939978 138.7130014  72.8649992  35.4069978 138.1940014
  73.5749992  36.5229978 138.9310014  73.5300863  35.6940221 138.6713574
  88.0529992  29.4799978 128.7440014  88.1419992  30.4239978 128.6120014
  87.4149992  29.2049978 128.0860014  87.9789062  29.5719812 128.6369641
  86.9859992  28.7349978 132.1630014  86.9479992  28.0889978 132.8680014
  86.6639992  28.2679978 131.3920014  86.9372679  28.5834276 132.1552921
  79.3539992  28.3489978 133.7560014  79.3959992  27.7239978 134.4790014
  80.0569992  28.9729978 133.9380014  79.4547345  28.3477873 133.8795274
  90.6919992  31.6739978 130.4650014  90.2509992  30.9539978 130.9150014
  90.6789992  32.3949978 131.0940014  90.6297960  31.6728329 130.6117567
  80.2779992  32.7989978 132.2910014  79.9079992  31.9969978 131.9210014
  81.2189992  32.6309978 132.3370014  80.3545984  32.6664638 132.2465603
  76.8879992  26.4589978 127.6840014  76.4399992  27.3049978 127.6650014
  76.3269992  25.8799978 127.1680014  76.7509603  26.4963674 127.6116720
  77.5979992  28.6209978 129.8100014  77.8119992  27.8509978 130.3370014
  78.3359992  28.7109978 129.2060014  77.7269652  28.5278012 129.8005212
  87.8039992  36.7779978 130.6770014  88.4229992  36.1019978 130.4030014
  87.5949992  36.5599978 131.5850014  87.8606232  36.6557938 130.7622517
  85.3749992  31.1669978 132.5690014  85.6789992  30.4809978 131.9750014
  86.0969992  31.2859978 133.1870014  85.5141152  31.0892189 132.5712123
  94.0379992  22.7689978 133.4300014  94.0879992  23.3789978 134.1660014
  94.4639992  23.2299978 132.7070014  94.1024108  22.9147709 133.4330112
  88.5159992  25.5609978 132.8970014  88.6589992  24.6149978 132.9170014
  88.4099992  25.7679978 131.9680014  88.5212509  25.4594813 132.7742231
  81.6709992  23.6629978 130.1690014  81.7139992  24.5229978 129.7510014
  81.2129992  23.1109978 129.5350014  81.6149815  23.7060621 130.0261197
  89.3929992  23.7939978 128.5700014  90.0399992  23.4649978 129.1950014
  89.9029992  24.3109978 127.9470014  89.5504317  23.8189227 128.5712167
  78.2909992  26.0599978 130.9310014  78.9449992  25.5099978 131.3630014
  78.3149992  25.7859978 130.0140014  78.3837199  25.9477167 130.8661668
  83.4479992  27.6099978 130.1460014  84.0639992  27.0829978 130.6560014
  82.8609992  26.9699978 129.7430014  83.4529239  27.4514117 130.1612952
  94.4299992  24.2469978 135.6660014  93.7409992  24.9049978 135.5700014
  94.4449992  24.0489978 136.6020014  94.3376740  24.3103243 135.7794630
  80.4809992  22.5809978 134.2430014  80.2619992  23.1109978 133.4770014
  79.8129992  22.8069978 134.8900014  80.3607001  22.6841154 134.2256064
  87.8499992  32.0809978 127.7870014  87.5549992  31.7579978 126.9360014
  87.5259992  32.9809978 127.8280014  87.7657983  32.1584026 127.6759771
  83.0499992  30.2559978 134.5310014  82.3099992  30.8549978 134.6340014
  83.7639992  30.8099978 134.2150014  83.0453288  30.4127356 134.5023805
  91.1569992  23.0849978 130.5500014  90.9419992  22.3189978 131.0830014
  91.8129992  23.5569978 131.0630014  91.2162673  23.0440728 130.6921990
  80.0749992  24.4729978 132.1950014  80.6889992  25.1059978 132.5690014
  80.5869992  24.0009978 131.5390014  80.2282277  24.4957352 132.1574279
  81.4579992  32.2209978 135.3180014  81.4519992  33.0999978 134.9400014
  80.6039992  32.1369978 135.7430014  81.3417925  32.3299535 135.3236887
  77.5789992  31.8919978 126.1000014  77.3069992  32.1209978 125.2110014
  77.6239992  32.7289978 126.5600014  77.5478709  32.0366058 126.0406107
  91.2039992  33.5129978 132.8120014  90.2619992  33.5719978 132.9740014
  91.4799992  34.4189978 132.6750014  91.1125865  33.6435288 132.8156192
  91.5039992  21.7999978 134.2300014  90.7679992  22.4099978 134.1920014
  92.1879992  22.2149978 133.7030014  91.4955506  21.9396400 134.1536051
  84.5079992  19.8859978 131.6960014  84.3899992  18.9379978 131.6410014
  83.6529992  20.2189978 131.9690014  84.3762679  19.8011926 131.7253720
  89.4559992  35.2939978 129.4380014  89.8809992  34.5869978 128.9530014
  89.7729992  36.0959978 129.0210014  89.5570266  35.3055190 129.3152479
  90.6159992  33.1949978 127.9460014  90.3579992  32.5049978 127.3350014
  90.6869992  32.7519978 128.7920014  90.5902837  33.0407106 127.9766912
  92.3019992  31.7619978 136.4240014  92.4409992  31.1699978 135.6840014
  92.4689992  32.6349978 136.0670014  92.3435562  31.7989896 136.2746283
  86.7739992  28.7239978 126.1960014  86.0629992  29.2589978 125.8440014
  87.4649992  28.7789978 125.5360014  86.7700751  28.8046777 126.0585858
  86.8279992  27.1809978 123.2350014  87.5289992  27.2039978 123.8860014
  87.1299992  26.5529978 122.5790014  86.9648282  27.0992339 123.2354496
  94.1429992  28.1019978 134.4900014  93.4909992  28.7959978 134.5790014
  94.6089992  28.3119978 133.6800014  94.1165937  28.2255019 134.3927533
  90.1799992  28.9329978 127.1480014  89.4479992  29.1619978 127.7210014
  90.6269992  28.2199978 127.6030014  90.1402753  28.8678972 127.2879715
  90.0769992  27.1079978 136.2160014  90.1569992  27.8709978 136.7870014
  89.4759992  27.3869978 135.5250014  90.0067245  27.2502630 136.2008424
  81.8249992  29.5639978 129.0300014  81.4949992  29.1929978 128.2120014
  82.4139992  28.8929978 129.3770014  81.8593970  29.4226063 128.9649404
  83.1919992  32.9919978 131.7120014  83.0969992  32.4129978 130.9550014
  83.9209992  32.6209978 132.2080014  83.2776161  32.8625891 131.6755209
  82.1919992  28.3319978 132.6640014  82.7569992  28.4539978 131.9010014
  82.5109992  28.9699978 133.3030014  82.3123977  28.4348851 132.6459424
  88.5009992  33.8359978 133.3980014  88.2609992  34.4979978 134.0460014
  88.3029992  33.0009978 133.8230014  88.4413826  33.8138115 133.5441566
  83.0719992  32.7319978 137.3810014  82.7609992  33.5139978 137.8360014
  82.4219992  32.5789978 136.6950014  82.9415538  32.8184087 137.3505898
  89.0509992  28.0959978 124.8330014  89.6299992  28.2459978 125.5800014
  89.4649992  28.5659978 124.1100014  89.1863122  28.1801277 124.8375042
  79.9919992  28.9299978 136.6100014  80.0619992  29.5809978 137.3080014
  79.1009992  29.0329978 136.2750014  79.8811802  29.0329757 136.6602249
  86.7769992  34.8319978 128.2680014  87.2509992  35.1279978 129.0460014
  86.2139992  35.5709978 128.0350014  86.7657361  34.9722721 128.3428611
  81.3109992  34.8029978 138.1440014  81.3189992  34.6669978 137.1970014
  80.3949992  34.6859978 138.3960014  81.1882528  34.7685463 138.0483243
  92.7499992  19.8459978 124.6460014  91.8499992  19.9849978 124.9410014
  93.0019992  20.6769978 124.2440014  92.6608683  19.9774055 124.6320232
  80.8159992  28.6329978 126.6200014  80.5239992  29.4009978 126.1290014
  80.1409992  27.9739978 126.4570014  80.6848497  28.6489745 126.5308260
  93.9389992  34.2119978 123.0220014  94.0119992  35.1509978 123.1930014
  94.8439992  33.9069978 122.9660014  94.0714158  34.2993061 123.0378392
  76.9089992  30.9959978 135.4350014  76.4069992  30.9679978 134.6200014
  76.9139992  30.0909978 135.7440014  76.8410416  30.8697368 135.3653766
  76.6589992  33.7769978 132.3190014  77.6049992  33.6319978 132.3000014
  76.5459992  34.5609978 132.8560014  76.7733578  33.8631697 132.3890317
  94.8569992  34.4429978 138.0010014  94.8069992  33.4869978 137.9640014
  94.0299992  34.7099978 138.4020014  94.7383987  34.3485174 138.0501446
  85.8349992  34.0169978 136.8770014  85.9229992  34.8429978 137.3520014
  84.9719992  33.6869978 137.1260014  85.7303357  34.0855468 136.9757653
  86.2499992  37.7889978 126.6830014  86.1739992  37.6679978 125.7370014
  86.2819992  38.7379978 126.8020014  86.2439156  37.9007530 126.5695048
  79.9029992  36.5779978 128.4640014  80.0549992  36.2299978 129.3430014
  79.0519992  36.2209978 128.2090014  79.8087899  36.4821738 128.5497340
  89.3509992  36.9429978 123.6850014  89.7259992  36.1989978 123.2150014
  89.3559992  36.6729978 124.6040014  89.4030024  36.8046950 123.7447987
  89.0199992  36.8689978 126.4350014  88.0849992  36.9689978 126.6130014
  89.2999992  36.1589978 127.0130014  88.9298173  36.7867239 126.5374998
  92.0089992  25.9359978 138.4810014  91.6009992  26.4159978 137.7610014
  92.0489992  25.0299978 138.1730014  91.9585476  25.8793160 138.3408247
  79.1579992  32.3199978 136.4780014  79.3739992  31.9579978 137.3370014
  78.3019992  31.9449978 136.2680014  79.0719354  32.2197906 136.5672160
  81.7759992  20.7899978 132.4730014  80.9149992  20.7029978 132.0660014
  81.7539992  21.6459978 132.9010014  81.6550411  20.8937884 132.4750857
  86.4389992  20.5119978 135.8480014  86.8589992  20.0969978 136.6010014
  85.5059992  20.3329978 135.9650014  86.3703736  20.4309910 135.9668968
  89.7659992  24.2669978 136.7010014  89.2519992  24.1419978 137.4990014
  89.6099992  25.1799978 136.4570014  89.6746967  24.3732123 136.7770937
  90.5279992  29.1279978 122.4630014  90.5699992  28.9059978 121.5330014
  91.3769992  29.5269978 122.6530014  90.6485253  29.1515498 122.3613822
  86.1009992  23.0039978 123.1330014  85.8469992  23.0229978 124.0560014
  85.8439992  22.1329978 122.8320014  86.0315133  22.8888110 123.2185082
  81.8669992  25.7549978 133.5680014  81.2259992  25.7149978 134.2770014
  81.9049992  26.6819978 133.3310014  81.7843670  25.8747795 133.6330550
  81.8639992  25.9759978 128.4800014  80.9719992  25.6359978 128.4220014
  82.3149992  25.5989978 127.7250014  81.8026815  25.8783762 128.3699203
  87.3999992  26.3919978 127.2970014  86.9909992  27.2069978 127.0060014
  88.1199992  26.2519978 126.6830014  87.4414013  26.4846571 127.1740875
  86.5019992  26.5679978 138.7850014  85.9389992  25.8629978 139.1060014
  87.3279992  26.4469978 139.2530014  86.5366674  26.4552165 138.8921751
  88.4049992  25.8379978 130.1110014  88.2089992  26.4439978 129.3960014
  88.5859992  25.0049978 129.6770014  88.4026584  25.8082513 129.9544212
  79.6169992  26.0759978 135.4350014  79.5789992  26.4759978 136.3040014
  79.1269992  25.2589978 135.5260014  79.5455621  26.0202510 135.5661377
  82.9829992  23.4499978 122.2340014  82.5519992  23.0049978 122.9640014
  82.2649992  23.8209978 121.7220014  82.8269363  23.4392968 122.2646211
  76.2259992  23.1919978 129.2860014  76.8559992  23.1629978 130.0050014
  76.6749992  22.7669978 128.5560014  76.3730692  23.1305316 129.2857771
  77.4999992  23.9379978 124.7100014  77.9739992  24.5289978 124.1250014
  76.7819992  24.4679978 125.0570014  77.4678640  24.0905511 124.6767969
  87.6689992  27.4759978 134.7830014  87.9919992  26.8449978 134.1400014
  87.2279992  26.9419978 135.4430014  87.6535789  27.3173522 134.7842232
  84.4459992  23.4039978 129.5670014  83.5349992  23.4609978 129.8550014
  84.9509992  23.3439978 130.3770014  84.3895387  23.4036870 129.7160646
  79.2739992  25.0329978 128.3930014  78.3849992  25.1319978 128.0530014
  79.5709992  24.1909978 128.0470014  79.1924177  24.9327687 128.2996940
  82.9269992  25.0329978 126.0500014  83.8589992  25.1619978 126.2280014
  82.7119992  25.7019978 125.4000014  83.0254472  25.1410806 125.9864891
  88.8509992  22.6389978 132.8310014  88.1739992  22.7699978 133.4950014
  88.3659992  22.4839978 132.0210014  88.6927265  22.6359659 132.8123397
  81.6009992  26.2269978 123.6170014  81.0589992  25.8479978 122.9250014
  82.4349992  26.4219978 123.1880014  81.6395159  26.2015076 123.4644419
  92.1389992  38.3099978 139.1080014  92.3379992  38.7339978 138.2730014
  92.7939992  38.6539978 139.7150014  92.2548501  38.4146091 139.0757097
  79.7369992  30.7839978 138.7160014  80.4689992  31.0389978 139.2770014
  78.9559992  30.9889978 139.2310014  79.7317684  30.8466468 138.8624782
  85.7659992  26.1909978 131.4540014  86.3299992  25.6449978 130.9070014
  85.6179992  25.6699978 132.2420014  85.8232575  26.0456552 131.4856987
  80.7679992  22.3279978 127.8720014  80.4509992  21.4249978 127.8370014
  81.5489992  22.3299978 127.3190014  80.8302307  22.2046951 127.7924314
  84.3919992  24.5799978 133.8680014  83.5569992  25.0339978 133.9780014
  84.9159992  24.8559978 134.6200014  84.3485070  24.6794666 133.9847152
  84.9369992  30.7929978 125.5520014  84.1919992  30.2849978 125.2300014
  84.8019992  30.8419978 126.4990014  84.8169047  30.7301596 125.6358845
  92.0869992  29.9259978 134.3390014  92.7279992  30.3819978 133.7950014
  91.2559992  30.0389978 133.8770014  92.0625171  30.0037502 134.2020237
  88.8339992  23.6069978 123.7520014  87.8959992  23.7179978 123.6000014
  89.1319992  24.4629978 124.0580014  88.7456402  23.7380621 123.7725571
  86.4559992  30.9769978 136.7890014  86.1099992  30.5949978 137.5960014
  86.2559992  31.9099978 136.8610014  86.3816523  31.0509095 136.9090735
  89.5529992  25.4739978 125.4120014  90.4449992  25.3359978 125.7310014
  89.6089992  26.2649978 124.8760014  89.6827107  25.5620526 125.3832091
  80.0609992  30.0879978 131.3220014  80.8059992  30.0849978 130.7210014
  80.1389992  29.2639978 131.8040014  80.1734158  29.9762916 131.3049153
  87.0619992  32.2509978 124.5780014  86.7669992  33.0779978 124.9590014
  86.3589992  31.6319978 124.7740014  86.9265471  32.2805227 124.6566698
  77.0689992  28.5479978 136.6370014  77.2919992  28.1299978 137.4690014
  76.4669992  27.9359978 136.2140014  77.0181260  28.4079933 136.6937320
  84.0859992  28.0649978 138.8500014  83.7899992  27.8999978 137.9550014
  85.0169992  27.8449978 138.8390014  84.1713982  28.0126578 138.7260045
  88.7059992  33.4389978 136.7400014  87.8059992  33.6219978 136.4720014
  88.7399992  33.6979978 137.6610014  88.5872909  33.4990815 136.8277852
  94.4379992  25.6829978 125.1070014  93.8829992  25.2869978 124.4350014
  94.5379992  26.5939978 124.8290014  94.3755888  25.7518990 124.9775206
  94.4009992  31.4839978 137.9440014  93.5499992  31.7219978 137.5770014
  94.9909992  31.4669978 137.1910014  94.3642408  31.5142966 137.7918879
  92.7329992  34.4689978 125.5720014  92.3599992  33.6439978 125.8810014
  93.0099992  34.2859978 124.6750014  92.7193871  34.3312441 125.4929677
  89.8929992  29.2769978 132.5930014  88.9649992  29.0459978 132.5660014
  90.3439992  28.4999978 132.2630014  89.8268165  29.1402774 132.5446790
  82.4359992  33.6059978 128.7260014  82.9639992  34.3789978 128.5260014
  81.5559992  33.8299978 128.4250014  82.3893176  33.7423161 128.6578409
  78.1909992  28.4679978 123.3140014  78.8069992  29.0949978 123.6930014
  77.3289992  28.7839978 123.5850014  78.1588195  28.5965798 123.4025386
  83.8639992  31.2689978 128.3030014  83.6229992  32.1939978 128.3440014
  83.1229992  30.8099978 128.6990014  83.7308390  31.3336403 128.3621404
  84.3779992  35.4179978 134.6180014  84.7409992  36.2719978 134.3840014
  84.9099992  35.1259978 135.3580014  84.4996090  35.4954058 134.6860219
  82.5469992  36.2899978 127.8480014  81.5969992  36.3959978 127.8990014
  82.8989992  37.1109978 128.1930014  82.4645480  36.4154438 127.9015999
  87.9219992  31.5169978 134.3180014  87.4969992  31.2889978 135.1450014
  88.5029992  30.7779978 134.1360014  87.9423930  31.3859843 134.4064731
  90.1249992  32.4459978 123.3920014  90.4789992  32.0659978 124.1970014
  89.1769992  32.3519978 123.4790014  90.0451820  32.3813092 123.5138714
  90.5809992  36.0689978 136.7880014  89.9789992  35.5129978 136.2920014
  90.8619992  36.7359978 136.1620014  90.5366829  36.0831613 136.6355443
  94.6289992  36.9249978 123.5930014  95.3729992  37.5109978 123.4530014
  93.9349992  37.4939978 123.9270014  94.6370201  37.0820603 123.6189772
  78.7029992  23.3019978 136.1950014  77.8109992  23.6399978 136.1280014
  78.6049992  22.4459978 136.6130014  78.5674965  23.2326499 136.2423044
  90.9909992  31.1179978 125.6190014  90.7139992  30.3899978 126.1750014
  91.9189992  31.2369978 125.8240014  91.0784499  31.0344213 125.7228044
  78.3549992  35.1059978 134.6300014  78.5719992  34.1739978 134.5990014
  78.6009992  35.3809978 135.5130014  78.4179809  35.0155686 134.7451691
  84.2159992  33.5579978 121.8390014  84.4549992  32.8089978 121.2920014
  83.9469992  33.1699978 122.6720014  84.2123233  33.4031853 121.8767809
  83.1529992  33.1279978 124.2960014  83.2999992  32.6079978 125.0860014
  83.1499992  34.0349978 124.6020014  83.1727300  33.1793964 124.4455895
  79.6059992  30.3799978 124.8060014  78.9199992  30.7329978 125.3730014
  80.1289992  31.1429978 124.5600014  79.5829033  30.5313746 124.8502661
  87.4379992  23.0429978 135.0850014  88.1369992  23.1169978 135.7350014
  87.0569992  22.1779978 135.2390014  87.4822097  22.9362389 135.1947997
  88.2219992  22.6949978 126.1820014  88.4419992  23.1659978 125.3790014
  88.7809992  23.0889978 126.8520014  88.3276730  22.8127432 126.1625906
  85.8909992  34.8249978 125.0450014  85.0739992  35.3219978 125.0970014
  86.4199992  35.3009978 124.4050014  85.8508508  34.9572543 124.9656035
  85.4219992  24.4229978 127.0170014  86.2339992  24.9269978 127.0630014
  85.1779992  24.2779978 127.9310014  85.5001467  24.4723749 127.1468575
  85.9579992  25.4089978 136.2020014  86.0769992  25.9829978 136.9590014
  86.6129992  24.7209978 136.3160014  86.0629146  25.3945574 136.3211314
  86.3059992  21.5039978 127.9550014  85.9589992  22.1209978 128.6000014
  86.9649992  22.0049978 127.4740014  86.3475949  21.6561099 127.9782271
  83.2289992  35.8689978 125.0270014  83.3899992  36.6689978 124.5260014
  83.0319992  36.1759978 125.9120014  83.2243919  36.0199129 125.0781006
  81.9639992  22.5669978 124.6420014  81.8799992  23.4549978 124.9890014
  82.8539992  22.3019978 124.8740014  82.0728163  22.6527179 124.7208596
  92.1619992  23.3159978 137.0370014  91.2459992  23.5779978 136.9490014
  92.4979992  23.3129978 136.1400014  92.0819789  23.3514626 136.9037847
  90.7649992  27.0659978 131.1320014  89.9669992  26.6509978 130.8040014
  91.2099992  26.3759978 131.6230014  90.7159684  26.9158628 131.1535227
  80.2219992  32.9939978 123.7030014  80.8139992  33.6939978 123.9790014
  80.6809992  32.5609978 122.9830014  80.3650791  33.0312908 123.6434607
  78.5379992  25.6589978 122.8190014  78.4929992  26.5979978 122.9970014
  77.6499992  25.4229978 122.5490014  78.4118555  25.7556874 122.8068939
  91.8509992  36.3219978 132.7550014  91.6949992  37.0009978 132.0980014
  92.7839992  36.3939978 132.9580014  91.9557387  36.4246390 132.6925342
  79.3459992  20.4399978 131.4920014  79.1169992  20.4989978 130.5640014
  78.9039992  19.6489978 131.7980014  79.2548801  20.3410540 131.4064729
  78.2769992  34.3809978 127.6520014  77.4439992  34.8529978 127.6800014
  78.8219992  34.8909978 127.0540014  78.2367590  34.5145897 127.5749194
  77.5649992  36.9929978 138.9820014  78.1049992  36.7769978 139.7420014
  77.0839992  36.1879978 138.7930014  77.5738613  36.8545400 139.0604782
  82.1619992  35.9129978 140.6030014  82.9299992  35.4539978 140.9440014
  82.1409992  35.6869978 139.6730014  82.2642135  35.8196668 140.5239491
  86.2539992  35.4209978 121.9780014  85.6099992  34.7899978 122.2990014
  87.0159992  34.8899978 121.7460014  86.2688058  35.2627902 121.9906038
  88.7389992  34.2929978 139.3320014  88.3879992  33.4359978 139.5750014
  89.4649992  34.4349978 139.9390014  88.7891590  34.1950178 139.4472907
  90.8589992  35.2379978 122.2120014  91.1419992  34.4429978 122.6640014
  91.5979992  35.4709978 121.6510014  90.9976956  35.1607031 122.1979822
  77.4719992  30.8039978 139.9370014  77.6159992  29.9019978 139.6500014
  76.6999992  31.0899978 139.4490014  77.3873303  30.7193243 139.8317908
  81.8129992  31.1469978 122.0690014  81.8779992  30.3529978 122.6000014
  82.4659992  31.0289978 121.3790014  81.9101754  31.0223337 122.0484259
  84.1269992  30.7729978 139.3690014  83.7989992  31.0439978 138.5120014
  84.2789992  29.8319978 139.2820014  84.1026030  30.6828973 139.2397945
  87.1659992  32.1939978 121.8050014  86.8969992  32.3749978 122.7060014
  86.9589992  31.2689978 121.6740014  87.1012000  32.0936774 121.9105693
  89.8619992  30.6889978 136.7530014  90.6069992  31.2779978 136.6330014
  89.1049992  31.2709978 136.8160014  89.8615205  30.8481997 136.7451119
  78.3049992  28.0039978 139.3570014  78.7129992  27.1469978 139.2360014
  78.0439992  28.0179978 140.2780014  78.3256016  27.8885119 139.4649192
  82.9629992  29.1199978 124.3750014  82.5029992  28.6359978 125.0610014
  83.2179992  28.4509978 123.7390014  82.9345038  28.9633689 124.3829447
  82.2519992  27.0129978 136.7310014  81.6329992  27.6869978 137.0110014
  82.5959992  27.3339978 135.8980014  82.2137605  27.1487198 136.6566707
  84.0339992  27.3629978 122.6370014  83.8529992  27.2079978 121.7100014
  84.9839992  27.4709978 122.6820014  84.1376566  27.3563669 122.5160929
  87.2709992  29.4839978 140.0080014  88.2249992  29.5679978 139.9810014
  87.1109992  28.7719978 140.6280014  87.3797182  29.3992842 140.0880733
  93.4239992  29.7169978 122.0830014  93.1499992  29.2929978 121.2700014
  93.4629992  30.6489978 121.8660014  93.3917716  29.7848827 121.9424286
  82.5909992  24.3679978 137.8130014  82.7409992  23.6389978 137.2110014
  82.5929992  25.1449978 137.2540014  82.6117967  24.3732708 137.6550541
  83.0039992  22.7369978 135.3060014  83.5389992  23.1889978 134.6540014
  82.1509992  22.6289978 134.8830014  82.9620374  22.7842665 135.1596710
  84.5849992  28.1769978 135.5450014  85.3359992  28.0209978 134.9720014
  84.2459992  29.0289978 135.2700014  84.6419587  28.2708138 135.4294078
  89.0009992  25.9919978 140.5740014  89.1929992  25.0609978 140.4620014
  89.8589992  26.4169978 140.5640014  89.1432269  25.9219928 140.5573192
  90.3179992  28.7809978 138.6510014  90.0359992  29.4899978 138.0740014
  91.2599992  28.7079978 138.5000014  90.4067656  28.8683128 138.5514809
  81.0699992  25.5659978 139.7250014  80.3019992  25.0329978 139.5150014
  81.7479992  25.2559978 139.1250014  81.0566973  25.4512375 139.6151796
  83.8089992  20.1939978 135.7370014  83.7109992  21.1399978 135.6320014
  83.0669992  19.8209978 135.2620014  83.6951913  20.2731813 135.6583539
  85.0729992  24.5149978 139.3010014  84.8379992  24.2959978 140.2030014
  84.2899992  24.3079978 138.7910014  84.9349219  24.4570066 139.3555852
  87.7889992  23.6429978 138.3770014  86.8409992  23.6749978 138.5090014
  88.1009992  23.0169978 139.0300014  87.7015190  23.5627262 138.4833564
  89.4229992  22.2769978 140.3820014  89.3259992  21.3249978 140.3760014
  89.1009992  22.5449978 141.2420014  89.3661761  22.1829744 140.4974936
  79.2499992  23.4859978 139.4290014  79.4619992  22.7799978 138.8190014
  79.1389992  23.0489978 140.2730014  79.2640269  23.3301921 139.4595873
  84.0309992  19.4879978 138.4090014  84.7429992  18.8479978 138.3950014
  83.9299992  19.7539978 137.4950014  84.1147261  19.4364190 138.2835537
  84.3849992  21.1699978 140.4620014  84.2529992  20.6949978 139.6420014
  83.7849992  21.9149978 140.4070014  84.2859070  21.2055789 140.3423251
  83.9309992  38.0529978 123.6390014  84.8639992  38.2109978 123.7820014
  83.6669992  38.7289978 123.0140014  84.0229308  38.1659104 123.5741396
  77.4989992  32.6899978 123.1210014  78.4129992  32.7689978 123.3950014
  77.5069992  32.0029978 122.4550014  77.6251143  32.6079085 123.0684274
  76.1479992  38.0829978 128.1990014  75.5009992  37.6209978 127.6660014
  76.5029992  37.4109978 128.7810014  76.1074506  37.9289503 128.2047341
  77.0179992  36.1629978 130.0030014  76.6839992  35.2829978 130.1750014
  77.2409992  36.5089978 130.8680014  77.0023721  36.0891938 130.1434168
  94.5669992  36.9729978 132.9840014  94.5449992  37.1579978 133.9230014
  95.2569992  37.5409978 132.6430014  94.6573439  37.0751887 133.0664791
  94.1299992  36.5399978 135.9060014  93.6429992  35.8049978 135.5350014
  94.6789992  36.1459978 136.5840014  94.1375247  36.3861057 135.9468461
  92.5809992  32.3299978 140.5440014  91.7149992  32.2249978 140.9380014
  92.9569992  33.0879978 140.9900014  92.5133401  32.4181708 140.6582620
  93.8819992  30.5859978 126.0580014  94.7319992  31.0069978 126.1850014
  93.8869992  29.8459978 126.6650014  93.9991143  30.5436094 126.1574750
  94.2759992  28.6399978 127.8820014  93.5499992  28.1599978 128.2790014
  94.8579992  28.8449978 128.6140014  94.2551635  28.6019166 128.0353748
  94.0349992  31.4249978 132.8290014  94.8689992  31.0469978 132.5490014
  94.1469992  32.3679978 132.7100014  94.1642522  31.5007742 132.7746020
  92.5219992  34.3029978 135.1360014  91.8739992  34.6279978 135.7620014
  92.0039992  33.8619978 134.4620014  92.3634168  34.2878523 135.1305307
  94.5449992  28.5409978 124.2730014  94.0229992  28.8969978 123.5540014
  94.5119992  29.2159978 124.9510014  94.4690699  28.6809848 124.2662129
  92.8939992  25.7799978 122.8240014  92.9899992  26.4469978 122.1440014
  92.7539992  24.9649978 122.3420014  92.8882063  25.7610667 122.6658377
  92.0629992  27.1609978 128.4450014  91.9129992  26.2159978 128.4240014
  91.7089992  27.4419978 129.2880014  91.9945527  27.0695605 128.5561859
  77.0979992  29.2389978 132.4550014  77.2829992  29.1569978 131.5190014
  77.9479992  29.1149978 132.8790014  77.2380916  29.2110393 132.3842896
  92.9189992  29.1309978 138.0830014  93.5019992  28.3959978 138.2750014
  93.4829992  29.9029978 138.1300014  93.0749781  29.1348145 138.1156164
  94.4159992  27.0339978 138.7680014  93.5529992  26.6549978 138.6020014
  95.0199992  26.2949978 138.6940014  94.3795944  26.8822978 138.7352984
  92.1409992  23.1879978 121.9410014  92.7519992  22.8169978 122.5780014
  91.3039992  22.7669978 122.1370014  92.1114947  23.0802756 122.0547252
  91.7739992  24.7429978 126.9070014  92.0529992  23.8359978 127.0310014
  92.5329992  25.1769978 126.5180014  91.9148619  24.6774502 126.8713795
  92.3849992  25.3249978 132.3430014  93.3179992  25.5369978 132.3090014
  92.1499992  25.4259978 133.2650014  92.4808308  25.3676503 132.4630214
  92.4149992  26.0619978 135.1190014  91.5719992  26.3299978 135.4850014
  92.8569992  26.8839978 134.9080014  92.3594138  26.2098273 135.1405518
  76.6959992  24.5089978 138.5960014  77.6149992  24.3869978 138.8320014
  76.2459992  23.7589978 138.9850014  76.7611148  24.3908751 138.6809408
  94.6979992  20.0419978 140.4720014  95.0469992  19.3879978 139.8670014
  94.8449992  20.8789978 140.0330014  94.7657355  20.0656067 140.3296564
  92.3869992  22.0059978 126.9550014  92.5689992  21.5569978 127.7810014
  91.7869992  21.4219978 126.4920014  92.3307529  21.8656131 127.0053619
  77.9169992  22.8219978 131.4870014  78.3619992  22.0299978 131.7890014
  78.3829992  23.5379978 131.9180014  78.0409059  22.8104474 131.5866079
  76.2209992  25.8209978 132.5560014  76.7129992  25.5999978 131.7650014
  76.5829992  26.6609978 132.8370014  76.3372923  25.9043468 132.4857407
  94.2169992  22.1509978 138.8220014  93.2999992  22.4219978 138.7860014
  94.3399992  21.6159978 138.0380014  94.1080828  22.1157700 138.7110785
  94.2539992  22.0739978 123.4830014  94.6659992  21.3529978 123.0080014
  94.9349992  22.7429978 123.5420014  94.4025900  22.0657306 123.4259038
  76.5349992  22.0789978 126.6100014  75.6099992  22.2869978 126.4810014
  76.9889992  22.5629978 125.9210014  76.4696374  22.1729949 126.4990957
  91.3049992  37.0629978 128.5560014  91.9579992  36.7149978 127.9480014
  91.8159992  37.5509978 129.2020014  91.4632777  37.0813815 128.5602047
  76.4979992  20.8169978 134.9550014  75.8329992  20.5709978 135.5980014
  76.0549992  21.4389978 134.3770014  76.3470937  20.8673614 134.9649379
  78.6899992  33.9919978 139.0990014  77.8689992  34.1669978 138.6390014
  78.4379992  33.9189978 140.0200014  78.5436173  34.0060794 139.1604972
  81.6439992  34.9659978 135.3580014  81.2199992  35.7759978 135.0750014
  82.5489992  35.0519978 135.0560014  81.7082433  35.0883331 135.2785377
  85.9559992  36.3649978 138.3170014  86.1399992  36.0319978 139.1950014
  86.8019992  36.6749978 137.9950014  86.0956484  36.3612979 138.3937617
  88.3009992  37.6509978 137.5610014  88.9779992  37.0179978 137.3210014
  88.6219992  38.0519978 138.3680014  88.4371323  37.6185691 137.6373158
  93.2179992  20.2409978 136.6410014  92.4049992  20.5659978 136.2530014
  93.4509992  19.4799978 136.1080014  93.1382566  20.1826559 136.5159213
  79.0459992  38.2229978 135.4050014  78.3259992  38.6629978 134.9540014
  78.6809992  37.9719978 136.2540014  78.8979796  38.2493824 135.4579329
  81.5129992  37.8229978 134.4350014  80.6489992  37.8949978 134.8390014
  81.4579992  38.3699978 133.6510014  81.3871942  37.9067849 134.3844000
  86.2239992  37.7109978 133.6100014  85.7669992  38.2399978 132.9560014
  86.3869992  38.3139978 134.3360014  86.1834476  37.8649140 133.6185499
  88.5519992  36.5889978 134.5550014  87.6469992  36.7539978 134.2900014
  88.9799992  37.4419978 134.4900014  88.4860700  36.7269529 134.5099520
  91.1559992  38.1589978 134.8500014  90.9739992  39.0749978 134.6400014
  91.3329992  37.7479978 134.0040014  91.1549907  38.2289741 134.7067883
  78.4609992  36.8459978 132.3150014  78.4429992  36.4199978 133.1730014
  79.2659992  36.5269978 131.9070014  78.5673221  36.7447233 132.3770225
  80.6019992  35.5559978 130.9700014  80.3829992  34.6389978 131.1400014
  81.4259992  35.6959978 131.4360014  80.6834702  35.4495511 131.0562527
  83.1389992  36.0259978 131.8190014  83.3519992  35.1379978 131.5320014
  83.2039992  35.9909978 132.7740014  83.1769075  35.8998307 131.9087373
  86.6479992  21.6899978 130.9630014  85.9739992  21.0599978 131.2190014
  87.2119992  21.2059978 130.3600014  86.6320384  21.5383708 130.9165020
  91.7909992  19.7969978 131.0760014  92.3939992  20.3449978 130.5740014
  90.9209992  20.1159978 130.8360014  91.7559190  19.9151041 130.9748679
  93.5179992  20.9359978 129.4090014  94.1289992  20.4219978 128.8830014
  93.8999992  21.8129978 129.4330014  93.6534475  20.9841323 129.3401208
  78.9749992  20.3239978 128.7850014  78.1979992  20.0889978 128.2780014
  79.5049992  19.5269978 128.7940014  78.9403451  20.1841268 128.7168627
  77.8109992  20.1219978 124.5890014  78.2499992  20.7329978 123.9970014
  77.1769992  20.6599978 125.0630014  77.7853859  20.2784064 124.5720305
  83.5539992  20.2499978 128.5990014  84.4279992  20.6389978 128.5690014
  83.4179992  20.0349978 129.5210014  83.6553207  20.2741923 128.7196509
  89.1109992  20.2799978 130.2480014  89.1869992  20.3759978 129.2990014
  88.8359992  19.3729978 130.3770014  89.0842042  20.1704241 130.1353811
  90.4639992  20.3059978 125.9400014  89.7609992  20.9209978 125.7310014
  90.0189992  19.4689978 126.0720014  90.3076292  20.2770085 125.9292439
  77.7119992  36.0699978 125.4870014  77.0269992  36.0319978 124.8190014
  77.7159992  36.9829978 125.7750014  77.6188174  36.1881998 125.4345310
  79.6719992  22.0379978 123.0310014  80.1629992  21.4079978 122.5040014
  80.2949992  22.3339978 123.6950014  79.8235062  21.9916770 123.0485438
  84.6979992  22.3309978 125.4890014  84.8759992  21.6839978 126.1710014
  84.6439992  23.1649978 125.9560014  84.7151025  22.3550504 125.6456433
  86.5759992  37.2789978 123.8840014  87.4419992  37.6459978 123.7060014
  86.3299992  36.8399978 123.0700014  86.6612097  37.2698525 123.7496019
  93.2849992  36.8419978 126.5630014  93.0909992  36.0939978 125.9980014
  93.2459992  37.5999978 125.9800014  93.2531645  36.8420786 126.4068148
  78.9319992  20.8379978 138.3030014  78.5659992  20.0719978 138.7460014
  79.8449992  20.8669978 138.5900014  79.0053225  20.7371906 138.4023459
  80.9049992  20.1879978 139.8390014  81.8039992  19.9139978 139.6540014
  80.5189992  19.4459978 140.3030014  80.9757237  20.0501508 139.8764710
  79.5299992  36.9899978 122.5120014  79.2619992  37.2759978 123.3850014
  80.3009992  36.4439978 122.6640014  79.5975600  36.9553330 122.6521499
  89.3269992  19.5209978 140.0210014  89.4029992  19.0949978 140.8750014
  90.2199992  19.5339978 139.6780014  89.4582267  19.4643952 140.0915932
  92.5029992  35.5939978 138.7130014  91.7209992  35.4069978 138.1940014
  92.4309992  36.5229978 138.9310014  92.3860863  35.6940221 138.6713574
 106.9089992  29.4799978 128.7440014 106.9979992  30.4239978 128.6120014
 106.2709992  29.2049978 128.0860014 106.8349062  29.5719812 128.6369641
 105.8419992  28.7349978 132.1630014 105.8039992  28.0889978 132.8680014
 105.5199992  28.2679978 131.3920014 105.7932679  28.5834276 132.1552921
  98.2099992  28.3489978 133.7560014  98.2519992  27.7239978 134.4790014
  98.9129992  28.9729978 133.9380014  98.3107345  28.3477873 133.8795274
 109.5479992  31.6739978 130.4650014 109.1069992  30.9539978 130.9150014
 109.5349992  32.3949978 131.0940014 109.4857960  31.6728329 130.6117567
  99.1339992  32.7989978 132.2910014  98.7639992  31.9969978 131.9210014
 100.0749992  32.6309978 132.3370014  99.2105984  32.6664638 132.2465603
  95.7439992  26.4589978 127.6840014  95.2959992  27.3049978 127.6650014
  95.1829992  25.8799978 127.1680014  95.6069603  26.4963674 127.6116720
  96.4539992  28.6209978 129.8100014  96.6679992  27.8509978 130.3370014
  97.1919992  28.7109978 129.2060014  96.5829652  28.5278012 129.8005212
 106.6599992  36.7779978 130.6770014 107.2789992  36.1019978 130.4030014
 106.4509992  36.5599978 131.5850014 106.7166232  36.6557938 130.7622517
 104.2309992  31.1669978 132.5690014 104.5349992  30.4809978 131.9750014
 104.9529992  31.2859978 133.1870014 104.3701152  31.0892189 132.5712124
 112.8939992  22.7689978 133.4300014 112.9439992  23.3789978 134.1660014
 113.3199992  23.2299978 132.7070014 112.9584108  22.9147709 133.4330112
 107.3719992  25.5609978 132.8970014 107.5149992  24.6149978 132.9170014
 107.2659992  25.7679978 131.9680014 107.3772509  25.4594813 132.7742231
 100.5269992  23.6629978 130.1690014 100.5699992  24.5229978 129.7510014
 100.0689992  23.1109978 129.5350014 100.4709815  23.7060621 130.0261197
 108.2489992  23.7939978 128.5700014 108.8959992  23.4649978 129.1950014
 108.7589992  24.3109978 127.9470014 108.4064317  23.8189227 128.5712167
  97.1469992  26.0599978 130.9310014  97.8009992  25.5099978 131.3630014
  97.1709992  25.7859978 130.0140014  97.2397199  25.9477167 130.8661668
 102.3039992  27.6099978 130.1460014 102.9199992  27.0829978 130.6560014
 101.7169992  26.9699978 129.7430014 102.3089239  27.4514117 130.1612952
 113.2859992  24.2469978 135.6660014 112.5969992  24.9049978 135.5700014
 113.3009992  24.0489978 136.6020014 113.1936740  24.3103243 135.7794630
  99.3369992  22.5809978 134.2430014  99.1179992  23.1109978 133.4770014
  98.6689992  22.8069978 134.8900014  99.2167001  22.6841154 134.2256064
 106.7059992  32.0809978 127.7870014 106.4109992  31.7579978 126.9360014
 106.3819992  32.9809978 127.8280014 106.6217983  32.1584026 127.6759771
 101.9059992  30.2559978 134.5310014 101.1659992  30.8549978 134.6340014
 102.6199992  30.8099978 134.2150014 101.9013288  30.4127356 134.5023805
 110.0129992  23.0849978 130.5500014 109.7979992  22.3189978 131.0830014
 110.6689992  23.5569978 131.0630014 110.0722673  23.0440728 130.6921990
  98.9309992  24.4729978 132.1950014  99.5449992  25.1059978 132.5690014
  99.4429992  24.0009978 131.5390014  99.0842277  24.4957352 132.1574279
 100.3139992  32.2209978 135.3180014 100.3079992  33.0999978 134.9400014
  99.4599992  32.1369978 135.7430014 100.1977925  32.3299535 135.3236887
  96.4349992  31.8919978 126.1000014  96.1629992  32.1209978 125.2110014
  96.4799992  32.7289978 126.5600014  96.4038709  32.0366058 126.0406107
 110.0599992  33.5129978 132.8120014 109.1179992  33.5719978 132.9740014
 110.3359992  34.4189978 132.6750014 109.9685865  33.6435288 132.8156192
 110.3599992  21.7999978 134.2300014 109.6239992  22.4099978 134.1920014
 111.0439992  22.2149978 133.7030014 110.3515506  21.9396400 134.1536051
 103.3639992  19.8859978 131.6960014 103.2459992  18.9379978 131.6410014
 102.5089992  20.2189978 131.9690014 103.2322679  19.8011926 131.7253720
 108.3119992  35.2939978 129.4380014 108.7369992  34.5869978 128.9530014
 108.6289992  36.0959978 129.0210014 108.4130266  35.3055190 129.3152479
 109.4719992  33.1949978 127.9460014 109.2139992  32.5049978 127.3350014
 109.5429992  32.7519978 128.7920014 109.4462837  33.0407106 127.9766912
 111.1579992  31.7619978 136.4240014 111.2969992  31.1699978 135.6840014
 111.3249992  32.6349978 136.0670014 111.1995562  31.7989896 136.2746283
 105.6299992  28.7239978 126.1960014 104.9189992  29.2589978 125.8440014
 106.3209992  28.7789978 125.5360014 105.6260751  28.8046777 126.0585858
 105.6839992  27.1809978 123.2350014 106.3849992  27.2039978 123.8860014
 105.9859992  26.5529978 122.5790014 105.8208282  27.0992339 123.2354496
 112.9989992  28.1019978 134.4900014 112.3469992  28.7959978 134.5790014
 113.4649992  28.3119978 133.6800014 112.9725937  28.2255019 134.3927533
 109.0359992  28.9329978 127.1480014 108.3039992  29.1619978 127.7210014
 109.4829992  28.2199978 127.6030014 108.9962753  28.8678972 127.2879715
 108.9329992  27.1079978 136.2160014 109.0129992  27.8709978 136.7870014
 108.3319992  27.3869978 135.5250014 108.8627245  27.2502630 136.2008424
 100.6809992  29.5639978 129.0300014 100.3509992  29.1929978 128.2120014
 101.2699992  28.8929978 129.3770014 100.7153970  29.4226063 128.9649404
 102.0479992  32.9919978 131.7120014 101.9529992  32.4129978 130.9550014
 102.7769992  32.6209978 132.2080014 102.1336161  32.8625891 131.6755209
 101.0479992  28.3319978 132.6640014 101.6129992  28.4539978 131.9010014
 101.3669992  28.9699978 133.3030014 101.1683977  28.4348851 132.6459424
 107.3569992  33.8359978 133.3980014 107.1169992  34.4979978 134.0460014
 107.1589992  33.0009978 133.8230014 107.2973826  33.8138115 133.5441566
 101.9279992  32.7319978 137.3810014 101.6169992  33.5139978 137.8360014
 101.2779992  32.5789978 136.6950014 101.7975538  32.8184087 137.3505898
 107.9069992  28.0959978 124.8330014 108.4859992  28.2459978 125.5800014
 108.3209992  28.5659978 124.1100014 108.0423122  28.1801277 124.8375042
  98.8479992  28.9299978 136.6100014  98.9179992  29.5809978 137.3080014
  97.9569992  29.0329978 136.2750014  98.7371802  29.0329757 136.6602249
 105.6329992  34.8319978 128.2680014 106.1069992  35.1279978 129.0460014
 105.0699992  35.5709978 128.0350014 105.6217361  34.9722721 128.3428611
 100.1669992  34.8029978 138.1440014 100.1749992  34.6669978 137.1970014
  99.2509992  34.6859978 138.3960014 100.0442528  34.7685463 138.0483243
 111.6059992  19.8459978 124.6460014 110.7059992  19.9849978 124.9410014
 111.8579992  20.6769978 124.2440014 111.5168683  19.9774055 124.6320232
  99.6719992  28.6329978 126.6200014  99.3799992  29.4009978 126.1290014
  98.9969992  27.9739978 126.4570014  99.5408497  28.6489745 126.5308260
 112.7949992  34.2119978 123.0220014 112.8679992  35.1509978 123.1930014
 113.6999992  33.9069978 122.9660014 112.9274158  34.2993061 123.0378392
  95.7649992  30.9959978 135.4350014  95.2629992  30.9679978 134.6200014
  95.7699992  30.0909978 135.7440014  95.6970416  30.8697368 135.3653766
  95.5149992  33.7769978 132.3190014  96.4609992  33.6319978 132.3000014
  95.4019992  34.5609978 132.8560014  95.6293578  33.8631697 132.3890317
 113.7129992  34.4429978 138.0010014 113.6629992  33.4869978 137.9640014
 112.8859992  34.7099978 138.4020014 113.5943987  34.3485174 138.0501446
 104.6909992  34.0169978 136.8770014 104.7789992  34.8429978 137.3520014
 103.8279992  33.6869978 137.1260014 104.5863357  34.0855468 136.9757653
 105.1059992  37.7889978 126.6830014 105.0299992  37.6679978 125.7370014
 105.1379992  38.7379978 126.8020014 105.0999156  37.9007530 126.5695048
  98.7589992  36.5779978 128.4640014  98.9109992  36.2299978 129.3430014
  97.9079992  36.2209978 128.2090014  98.6647899  36.4821738 128.5497340
 108.2069992  36.9429978 123.6850014 108.5819992  36.1989978 123.2150014
 108.2119992  36.6729978 124.6040014 108.2590024  36.8046950 123.7447987
 107.8759992  36.8689978 126.4350014 106.9409992  36.9689978 126.6130014
 108.1559992  36.1589978 127.0130014 107.7858173  36.7867239 126.5374998
 110.8649992  25.9359978 138.4810014 110.4569992  26.4159978 137.7610014
 110.9049992  25.0299978 138.1730014 110.8145476  25.8793160 138.3408247
  98.0139992  32.3199978 136.4780014  98.2299992  31.9579978 137.3370014
  97.1579992  31.9449978 136.2680014  97.9279354  32.2197906 136.5672160
 100.6319992  20.7899978 132.4730014  99.7709992  20.7029978 132.0660014
 100.6099992  21.6459978 132.9010014 100.5110411  20.8937884 132.4750857
 105.2949992  20.5119978 135.8480014 105.7149992  20.0969978 136.6010014
 104.3619992  20.3329978 135.9650014 105.2263736  20.4309910 135.9668968
 108.6219992  24.2669978 136.7010014 108.1079992  24.1419978 137.4990014
 108.4659992  25.1799978 136.4570014 108.5306967  24.3732123 136.7770937
 109.3839992  29.1279978 122.4630014 109.4259992  28.9059978 121.5330014
 110.2329992  29.5269978 122.6530014 109.5045253  29.1515498 122.3613822
 104.9569992  23.0039978 123.1330014 104.7029992  23.0229978 124.0560014
 104.6999992  22.1329978 122.8320014 104.8875133  22.8888110 123.2185082
 100.7229992  25.7549978 133.5680014 100.0819992  25.7149978 134.2770014
 100.7609992  26.6819978 133.3310014 100.6403670  25.8747795 133.6330550
 100.7199992  25.9759978 128.4800014  99.8279992  25.6359978 128.4220014
 101.1709992  25.5989978 127.7250014 100.6586815  25.8783762 128.3699203
 106.2559992  26.3919978 127.2970014 105.8469992  27.2069978 127.0060014
 106.9759992  26.2519978 126.6830014 106.2974013  26.4846571 127.1740875
 105.3579992  26.5679978 138.7850014 104.7949992  25.8629978 139.1060014
 106.1839992  26.4469978 139.2530014 105.3926674  26.4552165 138.8921751
 107.2609992  25.8379978 130.1110014 107.0649992  26.4439978 129.3960014
 107.4419992  25.0049978 129.6770014 107.2586584  25.8082513 129.9544212
  98.4729992  26.0759978 135.4350014  98.4349992  26.4759978 136.3040014
  97.9829992  25.2589978 135.5260014  98.4015621  26.0202510 135.5661377
 101.8389992  23.4499978 122.2340014 101.4079992  23.0049978 122.9640014
 101.1209992  23.8209978 121.7220014 101.6829363  23.4392968 122.2646211
  95.0819992  23.1919978 129.2860014  95.7119992  23.1629978 130.0050014
  95.5309992  22.7669978 128.5560014  95.2290692  23.1305316 129.2857771
  96.3559992  23.9379978 124.7100014  96.8299992  24.5289978 124.1250014
  95.6379992  24.4679978 125.0570014  96.3238640  24.0905511 124.6767969
 106.5249992  27.4759978 134.7830014 106.8479992  26.8449978 134.1400014
 106.0839992  26.9419978 135.4430014 106.5095789  27.3173522 134.7842232
 103.3019992  23.4039978 129.5670014 102.3909992  23.4609978 129.8550014
 103.8069992  23.3439978 130.3770014 103.2455387  23.4036870 129.7160646
  98.1299992  25.0329978 128.3930014  97.2409992  25.1319978 128.0530014
  98.4269992  24.1909978 128.0470014  98.0484177  24.9327687 128.2996940
 101.7829992  25.0329978 126.0500014 102.7149992  25.1619978 126.2280014
 101.5679992  25.7019978 125.4000014 101.8814472  25.1410806 125.9864891
 107.7069992  22.6389978 132.8310014 107.0299992  22.7699978 133.4950014
 107.2219992  22.4839978 132.0210014 107.5487265  22.6359659 132.8123397
 100.4569992  26.2269978 123.6170014  99.9149992  25.8479978 122.9250014
 101.2909992  26.4219978 123.1880014 100.4955159  26.2015076 123.4644419
 110.9949992  38.3099978 139.1080014 111.1939992  38.7339978 138.2730014
 111.6499992  38.6539978 139.7150014 111.1108501  38.4146091 139.0757097
  98.5929992  30.7839978 138.7160014  99.3249992  31.0389978 139.2770014
  97.8119992  30.9889978 139.2310014  98.5877684  30.8466468 138.8624782
 104.6219992  26.1909978 131.4540014 105.1859992  25.6449978 130.9070014
 104.4739992  25.6699978 132.2420014 104.6792575  26.0456552 131.4856987
  99.6239992  22.3279978 127.8720014  99.3069992  21.4249978 127.8370014
 100.4049992  22.3299978 127.3190014  99.6862307  22.2046951 127.7924314
 103.2479992  24.5799978 133.8680014 102.4129992  25.0339978 133.9780014
 103.7719992  24.8559978 134.6200014 103.2045070  24.6794666 133.9847152
 103.7929992  30.7929978 125.5520014 103.0479992  30.2849978 125.2300014
 103.6579992  30.8419978 126.4990014 103.6729047  30.7301596 125.6358845
 110.9429992  29.9259978 134.3390014 111.5839992  30.3819978 133.7950014
 110.1119992  30.0389978 133.8770014 110.9185171  30.0037502 134.2020237
 107.6899992  23.6069978 123.7520014 106.7519992  23.7179978 123.6000014
 107.9879992  24.4629978 124.0580014 107.6016402  23.7380621 123.7725571
 105.3119992  30.9769978 136.7890014 104.9659992  30.5949978 137.5960014
 105.1119992  31.9099978 136.8610014 105.2376523  31.0509095 136.9090735
 108.4089992  25.4739978 125.4120014 109.3009992  25.3359978 125.7310014
 108.4649992  26.2649978 124.8760014 108.5387107  25.5620526 125.3832091
  98.9169992  30.0879978 131.3220014  99.6619992  30.0849978 130.7210014
  98.9949992  29.2639978 131.8040014  99.0294158  29.9762916 131.3049153
 105.9179992  32.2509978 124.5780014 105.6229992  33.0779978 124.9590014
 105.2149992  31.6319978 124.7740014 105.7825471  32.2805227 124.6566698
  95.9249992  28.5479978 136.6370014  96.1479992  28.1299978 137.4690014
  95.3229992  27.9359978 136.2140014  95.8741260  28.4079933 136.6937320
 102.9419992  28.0649978 138.8500014 102.6459992  27.8999978 137.9550014
 103.8729992  27.8449978 138.8390014 103.0273982  28.0126578 138.7260045
 107.5619992  33.4389978 136.7400014 106.6619992  33.6219978 136.4720014
 107.5959992  33.6979978 137.6610014 107.4432909  33.4990815 136.8277852
 113.2939992  25.6829978 125.1070014 112.7389992  25.2869978 124.4350014
 113.3939992  26.5939978 124.8290014 113.2315888  25.7518990 124.9775206
 113.2569992  31.4839978 137.9440014 112.4059992  31.7219978 137.5770014
 113.8469992  31.4669978 137.1910014 113.2202408  31.5142966 137.7918879
 111.5889992  34.4689978 125.5720014 111.2159992  33.6439978 125.8810014
 111.8659992  34.2859978 124.6750014 111.5753871  34.3312441 125.4929677
 108.7489992  29.2769978 132.5930014 107.8209992  29.0459978 132.5660014
 109.1999992  28.4999978 132.2630014 108.6828165  29.1402774 132.5446790
 101.2919992  33.6059978 128.7260014 101.8199992  34.3789978 128.5260014
 100.4119992  33.8299978 128.4250014 101.2453176  33.7423161 128.6578409
  97.0469992  28.4679978 123.3140014  97.6629992  29.0949978 123.6930014
  96.1849992  28.7839978 123.5850014  97.0148195  28.5965798 123.4025386
 102.7199992  31.2689978 128.3030014 102.4789992  32.1939978 128.3440014
 101.9789992  30.8099978 128.6990014 102.5868390  31.3336403 128.3621404
 103.2339992  35.4179978 134.6180014 103.5969992  36.2719978 134.3840014
 103.7659992  35.1259978 135.3580014 103.3556090  35.4954058 134.6860219
 101.4029992  36.2899978 127.8480014 100.4529992  36.3959978 127.8990014
 101.7549992  37.1109978 128.1930014 101.3205480  36.4154438 127.9015999
 106.7779992  31.5169978 134.3180014 106.3529992  31.2889978 135.1450014
 107.3589992  30.7779978 134.1360014 106.7983930  31.3859843 134.4064732
 108.9809992  32.4459978 123.3920014 109.3349992  32.0659978 124.1970014
 108.0329992  32.3519978 123.4790014 108.9011820  32.3813092 123.5138714
 109.4369992  36.0689978 136.7880014 108.8349992  35.5129978 136.2920014
 109.7179992  36.7359978 136.1620014 109.3926829  36.0831613 136.6355443
 113.4849992  36.9249978 123.5930014 114.2289992  37.5109978 123.4530014
 112.7909992  37.4939978 123.9270014 113.4930201  37.0820603 123.6189772
  97.5589992  23.3019978 136.1950014  96.6669992  23.6399978 136.1280014
  97.4609992  22.4459978 136.6130014  97.4234965  23.2326499 136.2423044
 109.8469992  31.1179978 125.6190014 109.5699992  30.3899978 126.1750014
 110.7749992  31.2369978 125.8240014 109.9344499  31.0344213 125.7228044
  97.2109992  35.1059978 134.6300014  97.4279992  34.1739978 134.5990014
  97.4569992  35.3809978 135.5130014  97.2739809  35.0155686 134.7451691
 103.0719992  33.5579978 121.8390014 103.3109992  32.8089978 121.2920014
 102.8029992  33.1699978 122.6720014 103.0683233  33.4031853 121.8767809
 102.0089992  33.1279978 124.2960014 102.1559992  32.6079978 125.0860014
 102.0059992  34.0349978 124.6020014 102.0287300  33.1793964 124.4455895
  98.4619992  30.3799978 124.8060014  97.7759992  30.7329978 125.3730014
  98.9849992  31.1429978 124.5600014  98.4389033  30.5313746 124.8502661
 106.2939992  23.0429978 135.0850014 106.9929992  23.1169978 135.7350014
 105.9129992  22.1779978 135.2390014 106.3382097  22.9362389 135.1947997
 107.0779992  22.6949978 126.1820014 107.2979992  23.1659978 125.3790014
 107.6369992  23.0889978 126.8520014 107.1836730  22.8127432 126.1625906
 104.7469992  34.8249978 125.0450014 103.9299992  35.3219978 125.0970014
 105.2759992  35.3009978 124.4050014 104.7068508  34.9572543 124.9656035
 104.2779992  24.4229978 127.0170014 105.0899992  24.9269978 127.0630014
 104.0339992  24.2779978 127.9310014 104.3561467  24.4723749 127.1468575
 104.8139992  25.4089978 136.2020014 104.9329992  25.9829978 136.9590014
 105.4689992  24.7209978 136.3160014 104.9189146  25.3945574 136.3211313
 105.1619992  21.5039978 127.9550014 104.8149992  22.1209978 128.6000014
 105.8209992  22.0049978 127.4740014 105.2035949  21.6561099 127.9782271
 102.0849992  35.8689978 125.0270014 102.2459992  36.6689978 124.5260014
 101.8879992  36.1759978 125.9120014 102.0803919  36.0199129 125.0781006
 100.8199992  22.5669978 124.6420014 100.7359992  23.4549978 124.9890014
 101.7099992  22.3019978 124.8740014 100.9288163  22.6527179 124.7208596
 111.0179992  23.3159978 137.0370014 110.1019992  23.5779978 136.9490014
 111.3539992  23.3129978 136.1400014 110.9379789  23.3514626 136.9037847
 109.6209992  27.0659978 131.1320014 108.8229992  26.6509978 130.8040014
 110.0659992  26.3759978 131.6230014 109.5719684  26.9158628 131.1535227
  99.0779992  32.9939978 123.7030014  99.6699992  33.6939978 123.9790014
  99.5369992  32.5609978 122.9830014  99.2210791  33.0312908 123.6434607
  97.3939992  25.6589978 122.8190014  97.3489992  26.5979978 122.9970014
  96.5059992  25.4229978 122.5490014  97.2678555  25.7556874 122.8068939
 110.7069992  36.3219978 132.7550014 110.5509992  37.0009978 132.0980014
 111.6399992  36.3939978 132.9580014 110.8117387  36.4246390 132.6925342
  98.2019992  20.4399978 131.4920014  97.9729992  20.4989978 130.5640014
  97.7599992  19.6489978 131.7980014  98.1108801  20.3410540 131.4064729
  97.1329992  34.3809978 127.6520014  96.2999992  34.8529978 127.6800014
  97.6779992  34.8909978 127.0540014  97.0927590  34.5145897 127.5749194
  96.4209992  36.9929978 138.9820014  96.9609992  36.7769978 139.7420014
  95.9399992  36.1879978 138.7930014  96.4298613  36.8545400 139.0604782
 101.0179992  35.9129978 140.6030014 101.7859992  35.4539978 140.9440014
 100.9969992  35.6869978 139.6730014 101.1202135  35.8196668 140.5239491
 105.1099992  35.4209978 121.9780014 104.4659992  34.7899978 122.2990014
 105.8719992  34.8899978 121.7460014 105.1248058  35.2627902 121.9906038
 107.5949992  34.2929978 139.3320014 107.2439992  33.4359978 139.5750014
 108.3209992  34.4349978 139.9390014 107.6451590  34.1950178 139.4472907
 109.7149992  35.2379978 122.2120014 109.9979992  34.4429978 122.6640014
 110.4539992  35.4709978 121.6510014 109.8536956  35.1607031 122.1979822
  96.3279992  30.8039978 139.9370014  96.4719992  29.9019978 139.6500014
  95.5559992  31.0899978 139.4490014  96.2433303  30.7193243 139.8317908
 100.6689992  31.1469978 122.0690014 100.7339992  30.3529978 122.6000014
 101.3219992  31.0289978 121.3790014 100.7661754  31.0223337 122.0484259
 102.9829992  30.7729978 139.3690014 102.6549992  31.0439978 138.5120014
 103.1349992  29.8319978 139.2820014 102.9586030  30.6828973 139.2397945
 106.0219992  32.1939978 121.8050014 105.7529992  32.3749978 122.7060014
 105.8149992  31.2689978 121.6740014 105.9572000  32.0936774 121.9105693
 108.7179992  30.6889978 136.7530014 109.4629992  31.2779978 136.6330014
 107.9609992  31.2709978 136.8160014 108.7175205  30.8481997 136.7451119
  97.1609992  28.0039978 139.3570014  97.5689992  27.1469978 139.2360014
  96.8999992  28.0179978 140.2780014  97.1816016  27.8885119 139.4649192
 101.8189992  29.1199978 124.3750014 101.3589992  28.6359978 125.0610014
 102.0739992  28.4509978 123.7390014 101.7905038  28.9633689 124.3829447
 101.1079992  27.0129978 136.7310014 100.4889992  27.6869978 137.0110014
 101.4519992  27.3339978 135.8980014 101.0697605  27.1487198 136.6566707
 102.8899992  27.3629978 122.6370014 102.7089992  27.2079978 121.7100014
 103.8399992  27.4709978 122.6820014 102.9936566  27.3563669 122.5160929
 106.1269992  29.4839978 140.0080014 107.0809992  29.5679978 139.9810014
 105.9669992  28.7719978 140.6280014 106.2357182  29.3992842 140.0880733
 112.2799992  29.7169978 122.0830014 112.0059992  29.2929978 121.2700014
 112.3189992  30.6489978 121.8660014 112.2477716  29.7848827 121.9424286
 101.4469992  24.3679978 137.8130014 101.5969992  23.6389978 137.2110014
 101.4489992  25.1449978 137.2540014 101.4677967  24.3732708 137.6550541
 101.8599992  22.7369978 135.3060014 102.3949992  23.1889978 134.6540014
 101.0069992  22.6289978 134.8830014 101.8180374  22.7842665 135.1596710
 103.4409992  28.1769978 135.5450014 104.1919992  28.0209978 134.9720014
 103.1019992  29.0289978 135.2700014 103.4979587  28.2708138 135.4294078
 107.8569992  25.9919978 140.5740014 108.0489992  25.0609978 140.4620014
 108.7149992  26.4169978 140.5640014 107.9992269  25.9219928 140.5573192
 109.1739992  28.7809978 138.6510014 108.8919992  29.4899978 138.0740014
 110.1159992  28.7079978 138.5000014 109.2627656  28.8683128 138.5514809
  99.9259992  25.5659978 139.7250014  99.1579992  25.0329978 139.5150014
 100.6039992  25.2559978 139.1250014  99.9126973  25.4512375 139.6151796
 102.6649992  20.1939978 135.7370014 102.5669992  21.1399978 135.6320014
 101.9229992  19.8209978 135.2620014 102.5511913  20.2731813 135.6583539
 103.9289992  24.5149978 139.3010014 103.6939992  24.2959978 140.2030014
 103.1459992  24.3079978 138.7910014 103.7909219  24.4570066 139.3555852
 106.6449992  23.6429978 138.3770014 105.6969992  23.6749978 138.5090014
 106.9569992  23.0169978 139.0300014 106.5575190  23.5627262 138.4833564
 108.2789992  22.2769978 140.3820014 108.1819992  21.3249978 140.3760014
 107.9569992  22.5449978 141.2420014 108.2221761  22.1829744 140.4974936
  98.1059992  23.4859978 139.4290014  98.3179992  22.7799978 138.8190014
  97.9949992  23.0489978 140.2730014  98.1200269  23.3301921 139.4595873
 102.8869992  19.4879978 138.4090014 103.5989992  18.8479978 138.3950014
 102.7859992  19.7539978 137.4950014 102.9707261  19.4364190 138.2835537
 103.2409992  21.1699978 140.4620014 103.1089992  20.6949978 139.6420014
 102.6409992  21.9149978 140.4070014 103.1419070  21.2055789 140.3423251
 102.7869992  38.0529978 123.6390014 103.7199992  38.2109978 123.7820014
 102.5229992  38.7289978 123.0140014 102.8789308  38.1659104 123.5741396
  96.3549992  32.6899978 123.1210014  97.2689992  32.7689978 123.3950014
  96.3629992  32.0029978 122.4550014  96.4811143  32.6079085 123.0684274
  95.0039992  38.0829978 128.1990014  94.3569992  37.6209978 127.6660014
  95.3589992  37.4109978 128.7810014  94.9634506  37.9289503 128.2047341
  95.8739992  36.1629978 130.0030014  95.5399992  35.2829978 130.1750014
  96.0969992  36.5089978 130.8680014  95.8583721  36.0891938 130.1434168
 113.4229992  36.9729978 132.9840014 113.4009992  37.1579978 133.9230014
 114.1129992  37.5409978 132.6430014 113.5133439  37.0751887 133.0664791
 112.9859992  36.5399978 135.9060014 112.4989992  35.8049978 135.5350014
 113.5349992  36.1459978 136.5840014 112.9935247  36.3861057 135.9468461
 111.4369992  32.3299978 140.5440014 110.5709992  32.2249978 140.9380014
 111.8129992  33.0879978 140.9900014 111.3693401  32.4181708 140.6582620
 112.7379992  30.5859978 126.0580014 113.5879992  31.0069978 126.1850014
 112.7429992  29.8459978 126.6650014 112.8551143  30.5436094 126.1574750
 113.1319992  28.6399978 127.8820014 112.4059992  28.1599978 128.2790014
 113.7139992  28.8449978 128.6140014 113.1111635  28.6019166 128.0353748
 112.8909992  31.4249978 132.8290014 113.7249992  31.0469978 132.5490014
 113.0029992  32.3679978 132.7100014 113.0202522  31.5007742 132.7746020
 111.3779992  34.3029978 135.1360014 110.7299992  34.6279978 135.7620014
 110.8599992  33.8619978 134.4620014 111.2194168  34.2878523 135.1305307
 113.4009992  28.5409978 124.2730014 112.8789992  28.8969978 123.5540014
 113.3679992  29.2159978 124.9510014 113.3250699  28.6809848 124.2662129
 111.7499992  25.7799978 122.8240014 111.8459992  26.4469978 122.1440014
 111.6099992  24.9649978 122.3420014 111.7442063  25.7610667 122.6658377
 110.9189992  27.1609978 128.4450014 110.7689992  26.2159978 128.4240014
 110.5649992  27.4419978 129.2880014 110.8505527  27.0695605 128.5561859
  95.9539992  29.2389978 132.4550014  96.1389992  29.1569978 131.5190014
  96.8039992  29.1149978 132.8790014  96.0940916  29.2110393 132.3842896
 111.7749992  29.1309978 138.0830014 112.3579992  28.3959978 138.2750014
 112.3389992  29.9029978 138.1300014 111.9309781  29.1348145 138.1156164
 113.2719992  27.0339978 138.7680014 112.4089992  26.6549978 138.6020014
 113.8759992  26.2949978 138.6940014 113.2355944  26.8822978 138.7352984
 110.9969992  23.1879978 121.9410014 111.6079992  22.8169978 122.5780014
 110.1599992  22.7669978 122.1370014 110.9674947  23.0802756 122.0547252
 110.6299992  24.7429978 126.9070014 110.9089992  23.8359978 127.0310014
 111.3889992  25.1769978 126.5180014 110.7708619  24.6774502 126.8713795
 111.2409992  25.3249978 132.3430014 112.1739992  25.5369978 132.3090014
 111.0059992  25.4259978 133.2650014 111.3368308  25.3676503 132.4630214
 111.2709992  26.0619978 135.1190014 110.4279992  26.3299978 135.4850014
 111.7129992  26.8839978 134.9080014 111.2154138  26.2098273 135.1405518
  95.5519992  24.5089978 138.5960014  96.4709992  24.3869978 138.8320014
  95.1019992  23.7589978 138.9850014  95.6171148  24.3908751 138.6809408
 113.5539992  20.0419978 140.4720014 113.9029992  19.3879978 139.8670014
 113.7009992  20.8789978 140.0330014 113.6217355  20.0656067 140.3296564
 111.2429992  22.0059978 126.9550014 111.4249992  21.5569978 127.7810014
 110.6429992  21.4219978 126.4920014 111.1867529  21.8656131 127.0053619
  96.7729992  22.8219978 131.4870014  97.2179992  22.0299978 131.7890014
  97.2389992  23.5379978 131.9180014  96.8969059  22.8104474 131.5866079
  95.0769992  25.8209978 132.5560014  95.5689992  25.5999978 131.7650014
  95.4389992  26.6609978 132.8370014  95.1932923  25.9043468 132.4857407
 113.0729992  22.1509978 138.8220014 112.1559992  22.4219978 138.7860014
 113.1959992  21.6159978 138.0380014 112.9640828  22.1157700 138.7110785
 113.1099992  22.0739978 123.4830014 113.5219992  21.3529978 123.0080014
 113.7909992  22.7429978 123.5420014 113.2585900  22.0657306 123.4259038
  95.3909992  22.0789978 126.6100014  94.4659992  22.2869978 126.4810014
  95.8449992  22.5629978 125.9210014  95.3256374  22.1729949 126.4990957
 110.1609992  37.0629978 128.5560014 110.8139992  36.7149978 127.9480014
 110.6719992  37.5509978 129.2020014 110.3192777  37.0813815 128.5602047
  95.3539992  20.8169978 134.9550014  94.6889992  20.5709978 135.5980014
  94.9109992  21.4389978 134.3770014  95.2030937  20.8673614 134.9649379
  97.5459992  33.9919978 139.0990014  96.7249992  34.1669978 138.6390014
  97.2939992  33.9189978 140.0200014  97.3996173  34.0060794 139.1604972
 100.4999992  34.9659978 135.3580014 100.0759992  35.7759978 135.0750014
 101.4049992  35.0519978 135.0560014 100.5642433  35.0883331 135.2785377
 104.8119992  36.3649978 138.3170014 104.9959992  36.0319978 139.1950014
 105.6579992  36.6749978 137.9950014 104.9516484  36.3612979 138.3937617
 107.1569992  37.6509978 137.5610014 107.8339992  37.0179978 137.3210014
 107.4779992  38.0519978 138.3680014 107.2931323  37.6185691 137.6373158
 112.0739992  20.2409978 136.6410014 111.2609992  20.5659978 136.2530014
 112.3069992  19.4799978 136.1080014 111.9942566  20.1826559 136.5159213
  97.9019992  38.2229978 135.4050014  97.1819992  38.6629978 134.9540014
  97.5369992  37.9719978 136.2540014  97.7539796  38.2493824 135.4579329
 100.3689992  37.8229978 134.4350014  99.5049992  37.8949978 134.8390014
 100.3139992  38.3699978 133.6510014 100.2431942  37.9067849 134.3844000
 105.0799992  37.7109978 133.6100014 104.6229992  38.2399978 132.9560014
 105.2429992  38.3139978 134.3360014 105.0394476  37.8649140 133.6185499
 107.4079992  36.5889978 134.5550014 106.5029992  36.7539978 134.2900014
 107.8359992  37.4419978 134.4900014 107.3420700  36.7269529 134.5099520
 110.0119992  38.1589978 134.8500014 109.8299992  39.0749978 134.6400014
 110.1889992  37.7479978 134.0040014 110.0109907  38.2289741 134.7067883
  97.3169992  36.8459978 132.3150014  97.2989992  36.4199978 133.1730014
  98.1219992  36.5269978 131.9070014  97.4233221  36.7447233 132.3770225
  99.4579992  35.5559978 130.9700014  99.2389992  34.6389978 131.1400014
 100.2819992  35.6959978 131.4360014  99.5394702  35.4495511 131.0562527
 101.9949992  36.0259978 131.8190014 102.2079992  35.1379978 131.5320014
 102.0599992  35.9909978 132.7740014 102.0329075  35.8998307 131.9087373
 105.5039992  21.6899978 130.9630014 104.8299992  21.0599978 131.2190014
 106.0679992  21.2059978 130.3600014 105.4880384  21.5383708 130.9165020
 110.6469992  19.7969978 131.0760014 111.2499992  20.3449978 130.5740014
 109.7769992  20.1159978 130.8360014 110.6119190  19.9151041 130.9748679
 112.3739992  20.9359978 129.4090014 112.9849992  20.4219978 128.8830014
 112.7559992  21.8129978 129.4330014 112.5094475  20.9841323 129.3401208
  97.8309992  20.3239978 128.7850014  97.0539992  20.0889978 128.2780014
  98.3609992  19.5269978 128.7940014  97.7963451  20.1841268 128.7168627
  96.6669992  20.1219978 124.5890014  97.1059992  20.7329978 123.9970014
  96.0329992  20.6599978 125.0630014  96.6413859  20.2784064 124.5720305
 102.4099992  20.2499978 128.5990014 103.2839992  20.6389978 128.5690014
 102.2739992  20.0349978 129.5210014 102.5113207  20.2741923 128.7196509
 107.9669992  20.2799978 130.2480014 108.0429992  20.3759978 129.2990014
 107.6919992  19.3729978 130.3770014 107.9402042  20.1704241 130.1353811
 109.3199992  20.3059978 125.9400014 108.6169992  20.9209978 125.7310014
 108.8749992  19.4689978 126.0720014 109.1636292  20.2770085 125.9292439
  96.5679992  36.0699978 125.4870014  95.8829992  36.0319978 124.8190014
  96.5719992  36.9829978 125.7750014  96.4748174  36.1881998 125.4345310
  98.5279992  22.0379978 123.0310014  99.0189992  21.4079978 122.5040014
  99.1509992  22.3339978 123.6950014  98.6795062  21.9916770 123.0485438
 103.5539992  22.3309978 125.4890014 103.7319992  21.6839978 126.1710014
 103.4999992  23.1649978 125.9560014 103.5711025  22.3550504 125.6456433
 105.4319992  37.2789978 123.8840014 106.2979992  37.6459978 123.7060014
 105.1859992  36.8399978 123.0700014 105.5172097  37.2698525 123.7496019
 112.1409992  36.8419978 126.5630014 111.9469992  36.0939978 125.9980014
 112.1019992  37.5999978 125.9800014 112.1091645  36.8420786 126.4068148
  97.7879992  20.8379978 138.3030014  97.4219992  20.0719978 138.7460014
  98.7009992  20.8669978 138.5900014  97.8613225  20.7371906 138.4023459
  99.7609992  20.1879978 139.8390014 100.6599992  19.9139978 139.6540014
  99.3749992  19.4459978 140.3030014  99.8317237  20.0501508 139.8764710
  98.3859992  36.9899978 122.5120014  98.1179992  37.2759978 123.3850014
  99.1569992  36.4439978 122.6640014  98.4535600  36.9553330 122.6521499
 108.1829992  19.5209978 140.0210014 108.2589992  19.0949978 140.8750014
 109.0759992  19.5339978 139.6780014 108.3142267  19.4643952 140.0915932
 111.3589992  35.5939978 138.7130014 110.5769992  35.4069978 138.1940014
 111.2869992  36.5229978 138.9310014 111.2420863  35.6940221 138.6713574
 125.7649992  29.4799978 128.7440014 125.8539992  30.4239978 128.6120014
 125.1269992  29.2049978 128.0860014 125.6909062  29.5719812 128.6369641
 124.6979992  28.7349978 132.1630014 124.6599992  28.0889978 132.8680014
 124.3759992  28.2679978 131.3920014 124.6492679  28.5834276 132.1552921
 117.0659992  28.3489978 133.7560014 117.1079992  27.7239978 134.4790014
 117.7689992  28.9729978 133.9380014 117.1667345  28.3477873 133.8795274
 128.4039992  31.6739978 130.4650014 127.9629992  30.9539978 130.9150014
 128.3909992  32.3949978 131.0940014 128.3417960  31.6728329 130.6117567
 117.9899992  32.7989978 132.2910014 117.6199992  31.9969978 131.9210014
 118.9309992  32.6309978 132.3370014 118.0665984  32.6664638 132.2465603
 114.5999992  26.4589978 127.6840014 114.1519992  27.3049978 127.6650014
 114.0389992  25.8799978 127.1680014 114.4629603  26.4963674 127.6116720
 115.3099992  28.6209978 129.8100014 115.5239992  27.8509978 130.3370014
 116.0479992  28.7109978 129.2060014 115.4389652  28.5278012 129.8005212
 125.5159992  36.7779978 130.6770014 126.1349992  36.1019978 130.4030014
 125.3069992  36.5599978 131.5850014 125.5726232  36.6557938 130.7622517
 123.0869992  31.1669978 132.5690014 123.3909992  30.4809978 131.9750014
 123.8089992  31.2859978 133.1870014 123.2261152  31.0892189 132.5712123
 131.7499992  22.7689978 133.4300014 131.7999992  23.3789978 134.1660014
 132.1759992  23.2299978 132.7070014 131.8144108  22.9147709 133.4330112
 126.2279992  25.5609978 132.8970014 126.3709992  24.6149978 132.9170014
 126.1219992  25.7679978 131.9680014 126.2332509  25.4594813 132.7742231
 119.3829992  23.6629978 130.1690014 119.4259992  24.5229978 129.7510014
 118.9249992  23.1109978 129.5350014 119.3269815  23.7060621 130.0261197
 127.1049992  23.7939978 128.5700014 127.7519992  23.4649978 129.1950014
 127.6149992  24.3109978 127.9470014 127.2624317  23.8189227 128.5712167
 116.0029992  26.0599978 130.9310014 116.6569992  25.5099978 131.3630014
 116.0269992  25.7859978 130.0140014 116.0957199  25.9477167 130.8661668
 121.1599992  27.6099978 130.1460014 121.7759992  27.0829978 130.6560014
 120.5729992  26.9699978 129.7430014 121.1649239  27.4514117 130.1612952
 132.1419992  24.2469978 135.6660014 131.4529992  24.9049978 135.5700014
 132.1569992  24.0489978 136.6020014 132.0496740  24.3103243 135.7794630
 118.1929992  22.5809978 134.2430014 117.9739992  23.1109978 133.4770014
 117.5249992  22.8069978 134.8900014 118.0727001  22.6841154 134.2256064
 125.5619992  32.0809978 127.7870014 125.2669992  31.7579978 126.9360014
 125.2379992  32.9809978 127.8280014 125.4777983  32.1584026 127.6759771
 120.7619992  30.2559978 134.5310014 120.0219992  30.8549978 134.6340014
 121.4759992  30.8099978 134.2150014 120.7573288  30.4127356 134.5023805
 128.8689992  23.0849978 130.5500014 128.6539992  22.3189978 131.0830014
 129.5249992  23.5569978 131.0630014 128.9282673  23.0440728 130.6921990
 117.7869992  24.4729978 132.1950014 118.4009992  25.1059978 132.5690014
 118.2989992  24.0009978 131.5390014 117.9402277  24.4957352 132.1574279
 119.1699992  32.2209978 135.3180014 119.1639992  33.0999978 134.9400014
 118.3159992  32.1369978 135.7430014 119.0537925  32.3299535 135.3236887
 115.2909992  31.8919978 126.1000014 115.0189992  32.1209978 125.2110014
 115.3359992  32.7289978 126.5600014 115.2598709  32.0366058 126.0406107
 128.9159992  33.5129978 132.8120014 127.9739992  33.5719978 132.9740014
 129.1919992  34.4189978 132.6750014 128.8245865  33.6435288 132.8156192
 129.2159992  21.7999978 134.2300014 128.4799992  22.4099978 134.1920014
 129.8999992  22.2149978 133.7030014 129.2075506  21.9396400 134.1536051
 122.2199992  19.8859978 131.6960014 122.1019992  18.9379978 131.6410014
 121.3649992  20.2189978 131.9690014 122.0882679  19.8011926 131.7253720
 127.1679992  35.2939978 129.4380014 127.5929992  34.5869978 128.9530014
 127.4849992  36.0959978 129.0210014 127.2690266  35.3055190 129.3152479
 128.3279992  33.1949978 127.9460014 128.0699992  32.5049978 127.3350014
 128.3989992  32.7519978 128.7920014 128.3022837  33.0407106 127.9766912
 130.0139992  31.7619978 136.4240014 130.1529992  31.1699978 135.6840014
 130.1809992  32.6349978 136.0670014 130.0555562  31.7989896 136.2746283
 124.4859992  28.7239978 126.1960014 123.7749992  29.2589978 125.8440014
 125.1769992  28.7789978 125.5360014 124.4820751  28.8046777 126.0585858
 124.5399992  27.1809978 123.2350014 125.2409992  27.2039978 123.8860014
 124.8419992  26.5529978 122.5790014 124.6768282  27.0992339 123.2354496
 131.8549992  28.1019978 134.4900014 131.2029992  28.7959978 134.5790014
 132.3209992  28.3119978 133.6800014 131.8285937  28.2255019 134.3927533
 127.8919992  28.9329978 127.1480014 127.1599992  29.1619978 127.7210014
 128.3389992  28.2199978 127.6030014 127.8522753  28.8678972 127.2879715
 127.7889992  27.1079978 136.2160014 127.8689992  27.8709978 136.7870014
 127.1879992  27.3869978 135.5250014 127.7187245  27.2502630 136.2008424
 119.5369992  29.5639978 129.0300014 119.2069992  29.1929978 128.2120014
 120.1259992  28.8929978 129.3770014 119.5713970  29.4226063 128.9649404
 120.9039992  32.9919978 131.7120014 120.8089992  32.4129978 130.9550014
 121.6329992  32.6209978 132.2080014 120.9896161  32.8625891 131.6755209
 119.9039992  28.3319978 132.6640014 120.4689992  28.4539978 131.9010014
 120.2229992  28.9699978 133.3030014 120.0243977  28.4348851 132.6459424
 126.2129992  33.8359978 133.3980014 125.9729992  34.4979978 134.0460014
 126.0149992  33.0009978 133.8230014 126.1533826  33.8138115 133.5441566
 120.7839992  32.7319978 137.3810014 120.4729992  33.5139978 137.8360014
 120.1339992  32.5789978 136.6950014 120.6535538  32.8184087 137.3505898
 126.7629992  28.0959978 124.8330014 127.3419992  28.2459978 125.5800014
 127.1769992  28.5659978 124.1100014 126.8983122  28.1801277 124.8375042
 117.7039992  28.9299978 136.6100014 117.7739992  29.5809978 137.3080014
 116.8129992  29.0329978 136.2750014 117.5931802  29.0329757 136.6602249
 124.4889992  34.8319978 128.2680014 124.9629992  35.1279978 129.0460014
 123.9259992  35.5709978 128.0350014 124.4777361  34.9722721 128.3428611
 119.0229992  34.8029978 138.1440014 119.0309992  34.6669978 137.1970014
 118.1069992  34.6859978 138.3960014 118.9002528  34.7685463 138.0483243
 130.4619992  19.8459978 124.6460014 129.5619992  19.9849978 124.9410014
 130.7139992  20.6769978 124.2440014 130.3728683  19.9774055 124.6320232
 118.5279992  28.6329978 126.6200014 118.2359992  29.4009978 126.1290014
 117.8529992  27.9739978 126.4570014 118.3968497  28.6489745 126.5308260
 131.6509992  34.2119978 123.0220014 131.7239992  35.1509978 123.1930014
 132.5559992  33.9069978 122.9660014 131.7834158  34.2993061 123.0378392
 114.6209992  30.9959978 135.4350014 114.1189992  30.9679978 134.6200014
 114.6259992  30.0909978 135.7440014 114.5530416  30.8697368 135.3653766
 114.3709992  33.7769978 132.3190014 115.3169992  33.6319978 132.3000014
 114.2579992  34.5609978 132.8560014 114.4853578  33.8631697 132.3890317
 132.5689992  34.4429978 138.0010014 132.5189992  33.4869978 137.9640014
 131.7419992  34.7099978 138.4020014 132.4503987  34.3485174 138.0501446
 123.5469992  34.0169978 136.8770014 123.6349992  34.8429978 137.3520014
 122.6839992  33.6869978 137.1260014 123.4423357  34.0855468 136.9757653
 123.9619992  37.7889978 126.6830014 123.8859992  37.6679978 125.7370014
 123.9939992  38.7379978 126.8020014 123.9559156  37.9007530 126.5695048
 117.6149992  36.5779978 128.4640014 117.7669992  36.2299978 129.3430014
 116.7639992  36.2209978 128.2090014 117.5207899  36.4821738 128.5497340
 127.0629992  36.9429978 123.6850014 127.4379992  36.1989978 123.2150014
 127.0679992  36.6729978 124.6040014 127.1150024  36.8046950 123.7447987
 126.7319992  36.8689978 126.4350014 125.7969992  36.9689978 126.6130014
 127.0119992  36.1589978 127.0130014 126.6418173  36.7867239 126.5374998
 129.7209992  25.9359978 138.4810014 129.3129992  26.4159978 137.7610014
 129.7609992  25.0299978 138.1730014 129.6705476  25.8793160 138.3408247
 116.8699992  32.3199978 136.4780014 117.0859992  31.9579978 137.3370014
 116.0139992  31.9449978 136.2680014 116.7839354  32.2197906 136.5672160
 119.4879992  20.7899978 132.4730014 118.6269992  20.7029978 132.0660014
 119.4659992  21.6459978 132.9010014 119.3670411  20.8937884 132.4750857
 124.1509992  20.5119978 135.8480014 124.5709992  20.0969978 136.6010014
 123.2179992  20.3329978 135.9650014 124.0823736  20.4309910 135.9668968
 127.4779992  24.2669978 136.7010014 126.9639992  24.1419978 137.4990014
 127.3219992  25.1799978 136.4570014 127.3866967  24.3732123 136.7770937
 128.2399992  29.1279978 122.4630014 128.2819992  28.9059978 121.5330014
 129.0889992  29.5269978 122.6530014 128.3605253  29.1515498 122.3613822
 123.8129992  23.0039978 123.1330014 123.5589992  23.0229978 124.0560014
 123.5559992  22.1329978 122.8320014 123.7435133  22.8888110 123.2185082
 119.5789992  25.7549978 133.5680014 118.9379992  25.7149978 134.2770014
 119.6169992  26.6819978 133.3310014 119.4963670  25.8747795 133.6330550
 119.5759992  25.9759978 128.4800014 118.6839992  25.6359978 128.4220014
 120.0269992  25.5989978 127.7250014 119.5146815  25.8783762 128.3699203
 125.1119992  26.3919978 127.2970014 124.7029992  27.2069978 127.0060014
 125.8319992  26.2519978 126.6830014 125.1534013  26.4846571 127.1740875
 124.2139992  26.5679978 138.7850014 123.6509992  25.8629978 139.1060014
 125.0399992  26.4469978 139.2530014 124.2486674  26.4552165 138.8921751
 126.1169992  25.8379978 130.1110014 125.9209992  26.4439978 129.3960014
 126.2979992  25.0049978 129.6770014 126.1146584  25.8082513 129.9544212
 117.3289992  26.0759978 135.4350014 117.2909992  26.4759978 136.3040014
 116.8389992  25.2589978 135.5260014 117.2575621  26.0202510 135.5661377
 120.6949992  23.4499978 122.2340014 120.2639992  23.0049978 122.9640014
 119.9769992  23.8209978 121.7220014 120.5389363  23.4392968 122.2646211
 113.9379992  23.1919978 129.2860014 114.5679992  23.1629978 130.0050014
 114.3869992  22.7669978 128.5560014 114.0850692  23.1305316 129.2857771
 115.2119992  23.9379978 124.7100014 115.6859992  24.5289978 124.1250014
 114.4939992  24.4679978 125.0570014 115.1798640  24.0905511 124.6767969
 125.3809992  27.4759978 134.7830014 125.7039992  26.8449978 134.1400014
 124.9399992  26.9419978 135.4430014 125.3655789  27.3173522 134.7842232
 122.1579992  23.4039978 129.5670014 121.2469992  23.4609978 129.8550014
 122.6629992  23.3439978 130.3770014 122.1015387  23.4036870 129.7160646
 116.9859992  25.0329978 128.3930014 116.0969992  25.1319978 128.0530014
 117.2829992  24.1909978 128.0470014 116.9044177  24.9327687 128.2996940
 120.6389992  25.0329978 126.0500014 121.5709992  25.1619978 126.2280014
 120.4239992  25.7019978 125.4000014 120.7374472  25.1410806 125.9864891
 126.5629992  22.6389978 132.8310014 125.8859992  22.7699978 133.4950014
 126.0779992  22.4839978 132.0210014 126.4047265  22.6359659 132.8123397
 119.3129992  26.2269978 123.6170014 118.7709992  25.8479978 122.9250014
 120.1469992  26.4219978 123.1880014 119.3515159  26.2015076 123.4644419
 129.8509992  38.3099978 139.1080014 130.0499992  38.7339978 138.2730014
 130.5059992  38.6539978 139.7150014 129.9668501  38.4146091 139.0757097
 117.4489992  30.7839978 138.7160014 118.1809992  31.0389978 139.2770014
 116.6679992  30.9889978 139.2310014 117.4437684  30.8466468 138.8624782
 123.4779992  26.1909978 131.4540014 124.0419992  25.6449978 130.9070014
 123.3299992  25.6699978 132.2420014 123.5352575  26.0456552 131.4856987
 118.4799992  22.3279978 127.8720014 118.1629992  21.4249978 127.8370014
 119.2609992  22.3299978 127.3190014 118.5422307  22.2046951 127.7924314
 122.1039992  24.5799978 133.8680014 121.2689992  25.0339978 133.9780014
 122.6279992  24.8559978 134.6200014 122.0605070  24.6794666 133.9847152
 122.6489992  30.7929978 125.5520014 121.9039992  30.2849978 125.2300014
 122.5139992  30.8419978 126.4990014 122.5289047  30.7301596 125.6358845
 129.7989992  29.9259978 134.3390014 130.4399992  30.3819978 133.7950014
 128.9679992  30.0389978 133.8770014 129.7745171  30.0037502 134.2020237
 126.5459992  23.6069978 123.7520014 125.6079992  23.7179978 123.6000014
 126.8439992  24.4629978 124.0580014 126.4576402  23.7380621 123.7725571
 124.1679992  30.9769978 136.7890014 123.8219992  30.5949978 137.5960014
 123.9679992  31.9099978 136.8610014 124.0936523  31.0509095 136.9090735
 127.2649992  25.4739978 125.4120014 128.1569992  25.3359978 125.7310014
 127.3209992  26.2649978 124.8760014 127.3947107  25.5620526 125.3832091
 117.7729992  30.0879978 131.3220014 118.5179992  30.0849978 130.7210014
 117.8509992  29.2639978 131.8040014 117.8854158  29.9762916 131.3049153
 124.7739992  32.2509978 124.5780014 124.4789992  33.0779978 124.9590014
 124.0709992  31.6319978 124.7740014 124.6385471  32.2805227 124.6566698
 114.7809992  28.5479978 136.6370014 115.0039992  28.1299978 137.4690014
 114.1789992  27.9359978 136.2140014 114.7301260  28.4079933 136.6937320
 121.7979992  28.0649978 138.8500014 121.5019992  27.8999978 137.9550014
 122.7289992  27.8449978 138.8390014 121.8833982  28.0126578 138.7260045
 126.4179992  33.4389978 136.7400014 125.5179992  33.6219978 136.4720014
 126.4519992  33.6979978 137.6610014 126.2992909  33.4990815 136.8277852
 132.1499992  25.6829978 125.1070014 131.5949992  25.2869978 124.4350014
 132.2499992  26.5939978 124.8290014 132.0875888  25.7518990 124.9775206
 132.1129992  31.4839978 137.9440014 131.2619992  31.7219978 137.5770014
 132.7029992  31.4669978 137.1910014 132.0762408  31.5142966 137.7918879
 130.4449992  34.4689978 125.5720014 130.0719992  33.6439978 125.8810014
 130.7219992  34.2859978 124.6750014 130.4313871  34.3312441 125.4929677
 127.6049992  29.2769978 132.5930014 126.6769992  29.0459978 132.5660014
 128.0559992  28.4999978 132.2630014 127.5388165  29.1402774 132.5446790
 120.1479992  33.6059978 128.7260014 120.6759992  34.3789978 128.5260014
 119.2679992  33.8299978 128.4250014 120.1013176  33.7423161 128.6578409
 115.9029992  28.4679978 123.3140014 116.5189992  29.0949978 123.6930014
 115.0409992  28.7839978 123.5850014 115.8708195  28.5965798 123.4025386
 121.5759992  31.2689978 128.3030014 121.3349992  32.1939978 128.3440014
 120.8349992  30.8099978 128.6990014 121.4428390  31.3336403 128.3621404
 122.0899992  35.4179978 134.6180014 122.4529992  36.2719978 134.3840014
 122.6219992  35.1259978 135.3580014 122.2116090  35.4954058 134.6860219
 120.2589992  36.2899978 127.8480014 119.3089992  36.3959978 127.8990014
 120.6109992  37.1109978 128.1930014 120.1765480  36.4154438 127.9015999
 125.6339992  31.5169978 134.3180014 125.2089992  31.2889978 135.1450014
 126.2149992  30.7779978 134.1360014 125.6543930  31.3859843 134.4064732
 127.8369992  32.4459978 123.3920014 128.1909992  32.0659978 124.1970014
 126.8889992  32.3519978 123.4790014 127.7571820  32.3813092 123.5138714
 128.2929992  36.0689978 136.7880014 127.6909992  35.5129978 136.2920014
 128.5739992  36.7359978 136.1620014 128.2486829  36.0831613 136.6355443
 132.3409992  36.9249978 123.5930014 133.0849992  37.5109978 123.4530014
 131.6469992  37.4939978 123.9270014 132.3490201  37.0820603 123.6189772
 116.4149992  23.3019978 136.1950014 115.5229992  23.6399978 136.1280014
 116.3169992  22.4459978 136.6130014 116.2794965  23.2326499 136.2423044
 128.7029992  31.1179978 125.6190014 128.4259992  30.3899978 126.1750014
 129.6309992  31.2369978 125.8240014 128.7904499  31.0344213 125.7228044
 116.0669992  35.1059978 134.6300014 116.2839992  34.1739978 134.5990014
 116.3129992  35.3809978 135.5130014 116.1299809  35.0155686 134.7451691
 121.9279992  33.5579978 121.8390014 122.1669992  32.8089978 121.2920014
 121.6589992  33.1699978 122.6720014 121.9243233  33.4031853 121.8767809
 120.8649992  33.1279978 124.2960014 121.0119992  32.6079978 125.0860014
 120.8619992  34.0349978 124.6020014 120.8847300  33.1793964 124.4455895
 117.3179992  30.3799978 124.8060014 116.6319992  30.7329978 125.3730014
 117.8409992  31.1429978 124.5600014 117.2949033  30.5313746 124.8502661
 125.1499992  23.0429978 135.0850014 125.8489992  23.1169978 135.7350014
 124.7689992  22.1779978 135.2390014 125.1942097  22.9362389 135.1947997
 125.9339992  22.6949978 126.1820014 126.1539992  23.1659978 125.3790014
 126.4929992  23.0889978 126.8520014 126.0396730  22.8127432 126.1625906
 123.6029992  34.8249978 125.0450014 122.7859992  35.3219978 125.0970014
 124.1319992  35.3009978 124.4050014 123.5628508  34.9572543 124.9656035
 123.1339992  24.4229978 127.0170014 123.9459992  24.9269978 127.0630014
 122.8899992  24.2779978 127.9310014 123.2121467  24.4723749 127.1468575
 123.6699992  25.4089978 136.2020014 123.7889992  25.9829978 136.9590014
 124.3249992  24.7209978 136.3160014 123.7749146  25.3945574 136.3211314
 124.0179992  21.5039978 127.9550014 123.6709992  22.1209978 128.6000014
 124.6769992  22.0049978 127.4740014 124.0595949  21.6561099 127.9782271
 120.9409992  35.8689978 125.0270014 121.1019992  36.6689978 124.5260014
 120.7439992  36.1759978 125.9120014 120.9363919  36.0199129 125.0781006
 119.6759992  22.5669978 124.6420014 119.5919992  23.4549978 124.9890014
 120.5659992  22.3019978 124.8740014 119.7848163  22.6527179 124.7208596
 129.8739992  23.3159978 137.0370014 128.9579992  23.5779978 136.9490014
 130.2099992  23.3129978 136.1400014 129.7939789  23.3514626 136.9037847
 128.4769992  27.0659978 131.1320014 127.6789992  26.6509978 130.8040014
 128.9219992  26.3759978 131.6230014 128.4279684  26.9158628 131.1535227
 117.9339992  32.9939978 123.7030014 118.5259992  33.6939978 123.9790014
 118.3929992  32.5609978 122.9830014 118.0770791  33.0312908 123.6434607
 116.2499992  25.6589978 122.8190014 116.2049992  26.5979978 122.9970014
 115.3619992  25.4229978 122.5490014 116.1238555  25.7556874 122.8068939
 129.5629992  36.3219978 132.7550014 129.4069992  37.0009978 132.0980014
 130.4959992  36.3939978 132.9580014 129.6677387  36.4246390 132.6925342
 117.0579992  20.4399978 131.4920014 116.8289992  20.4989978 130.5640014
 116.6159992  19.6489978 131.7980014 116.9668801  20.3410540 131.4064729
 115.9889992  34.3809978 127.6520014 115.1559992  34.8529978 127.6800014
 116.5339992  34.8909978 127.0540014 115.9487590  34.5145897 127.5749194
 115.2769992  36.9929978 138.9820014 115.8169992  36.7769978 139.7420014
 114.7959992  36.1879978 138.7930014 115.2858613  36.8545400 139.0604782
 119.8739992  35.9129978 140.6030014 120.6419992  35.4539978 140.9440014
 119.8529992  35.6869978 139.6730014 119.9762135  35.8196668 140.5239491
 123.9659992  35.4209978 121.9780014 123.3219992  34.7899978 122.2990014
 124.7279992  34.8899978 121.7460014 123.9808058  35.2627902 121.9906038
 126.4509992  34.2929978 139.3320014 126.0999992  33.4359978 139.5750014
 127.1769992  34.4349978 139.9390014 126.5011590  34.1950178 139.4472907
 128.5709992  35.2379978 122.2120014 128.8539992  34.4429978 122.6640014
 129.3099992  35.4709978 121.6510014 128.7096956  35.1607031 122.1979822
 115.1839992  30.8039978 139.9370014 115.3279992  29.9019978 139.6500014
 114.4119992  31.0899978 139.4490014 115.0993303  30.7193243 139.8317908
 119.5249992  31.1469978 122.0690014 119.5899992  30.3529978 122.6000014
 120.1779992  31.0289978 121.3790014 119.6221754  31.0223337 122.0484259
 121.8389992  30.7729978 139.3690014 121.5109992  31.0439978 138.5120014
 121.9909992  29.8319978 139.2820014 121.8146030  30.6828973 139.2397945
 124.8779992  32.1939978 121.8050014 124.6089992  32.3749978 122.7060014
 124.6709992  31.2689978 121.6740014 124.8132000  32.0936774 121.9105693
 127.5739992  30.6889978 136.7530014 128.3189992  31.2779978 136.6330014
 126.8169992  31.2709978 136.8160014 127.5735205  30.8481997 136.7451119
 116.0169992  28.0039978 139.3570014 116.4249992  27.1469978 139.2360014
 115.7559992  28.0179978 140.2780014 116.0376016  27.8885119 139.4649192
 120.6749992  29.1199978 124.3750014 120.2149992  28.6359978 125.0610014
 120.9299992  28.4509978 123.7390014 120.6465038  28.9633689 124.3829447
 119.9639992  27.0129978 136.7310014 119.3449992  27.6869978 137.0110014
 120.3079992  27.3339978 135.8980014 119.9257605  27.1487198 136.6566707
 121.7459992  27.3629978 122.6370014 121.5649992  27.2079978 121.7100014
 122.6959992  27.4709978 122.6820014 121.8496566  27.3563669 122.5160929
 124.9829992  29.4839978 140.0080014 125.9369992  29.5679978 139.9810014
 124.8229992  28.7719978 140.6280014 125.0917182  29.3992842 140.0880733
 131.1359992  29.7169978 122.0830014 130.8619992  29.2929978 121.2700014
 131.1749992  30.6489978 121.8660014 131.1037716  29.7848827 121.9424286
 120.3029992  24.3679978 137.8130014 120.4529992  23.6389978 137.2110014
 120.3049992  25.1449978 137.2540014 120.3237967  24.3732708 137.6550541
 120.7159992  22.7369978 135.3060014 121.2509992  23.1889978 134.6540014
 119.8629992  22.6289978 134.8830014 120.6740374  22.7842665 135.1596710
 122.2969992  28.1769978 135.5450014 123.0479992  28.0209978 134.9720014
 121.9579992  29.0289978 135.2700014 122.3539587  28.2708138 135.4294078
 126.7129992  25.9919978 140.5740014 126.9049992  25.0609978 140.4620014
 127.5709992  26.4169978 140.5640014 126.8552269  25.9219928 140.5573192
 128.0299992  28.7809978 138.6510014 127.7479992  29.4899978 138.0740014
 128.9719992  28.7079978 138.5000014 128.1187656  28.8683128 138.5514809
 118.7819992  25.5659978 139.7250014 118.0139992  25.0329978 139.5150014
 119.4599992  25.2559978 139.1250014 118.7686973  25.4512375 139.6151796
 121.5209992  20.1939978 135.7370014 121.4229992  21.1399978 135.6320014
 120.7789992  19.8209978 135.2620014 121.4071913  20.2731813 135.6583539
 122.7849992  24.5149978 139.3010014 122.5499992  24.2959978 140.2030014
 122.0019992  24.3079978 138.7910014 122.6469219  24.4570066 139.3555852
 125.5009992  23.6429978 138.3770014 124.5529992  23.6749978 138.5090014
 125.8129992  23.0169978 139.0300014 125.4135190  23.5627262 138.4833564
 127.1349992  22.2769978 140.3820014 127.0379992  21.3249978 140.3760014
 126.8129992  22.5449978 141.2420014 127.0781761  22.1829744 140.4974936
 116.9619992  23.4859978 139.4290014 117.1739992  22.7799978 138.8190014
 116.8509992  23.0489978 140.2730014 116.9760269  23.3301921 139.4595873
 121.7429992  19.4879978 138.4090014 122.4549992  18.8479978 138.3950014
 121.6419992  19.7539978 137.4950014 121.8267261  19.4364190 138.2835537
 122.0969992  21.1699978 140.4620014 121.9649992  20.6949978 139.6420014
 121.4969992  21.9149978 140.4070014 121.9979070  21.2055789 140.3423251
 121.6429992  38.0529978 123.6390014 122.5759992  38.2109978 123.7820014
 121.3789992  38.7289978 123.0140014 121.7349308  38.1659104 123.5741396
 115.2109992  32.6899978 123.1210014 116.1249992  32.7689978 123.3950014
 115.2189992  32.0029978 122.4550014 115.3371143  32.6079085 123.0684274
 113.8599992  38.0829978 128.1990014 113.2129992  37.6209978 127.6660014
 114.2149992  37.4109978 128.7810014 113.8194506  37.9289503 128.2047341
 114.7299992  36.1629978 130.0030014 114.3959992  35.2829978 130.1750014
 114.9529992  36.5089978 130.8680014 114.7143721  36.0891938 130.1434168
 132.2789992  36.9729978 132.9840014 132.2569992  37.1579978 133.9230014
 132.9689992  37.5409978 132.6430014 132.3693439  37.0751887 133.0664791
 131.8419992  36.5399978 135.9060014 131.3549992  35.8049978 135.5350014
 132.3909992  36.1459978 136.5840014 131.8495247  36.3861057 135.9468461
 130.2929992  32.3299978 140.5440014 129.4269992  32.2249978 140.9380014
 130.6689992  33.0879978 140.9900014 130.2253401  32.4181708 140.6582620
 131.5939992  30.5859978 126.0580014 132.4439992  31.0069978 126.1850014
 131.5989992  29.8459978 126.6650014 131.7111143  30.5436094 126.1574750
 131.9879992  28.6399978 127.8820014 131.2619992  28.1599978 128.2790014
 132.5699992  28.8449978 128.6140014 131.9671635  28.6019166 128.0353748
 131.7469992  31.4249978 132.8290014 132.5809992  31.0469978 132.5490014
 131.8589992  32.3679978 132.7100014 131.8762522  31.5007742 132.7746020
 130.2339992  34.3029978 135.1360014 129.5859992  34.6279978 135.7620014
 129.7159992  33.8619978 134.4620014 130.0754168  34.2878523 135.1305307
 132.2569992  28.5409978 124.2730014 131.7349992  28.8969978 123.5540014
 132.2239992  29.2159978 124.9510014 132.1810699  28.6809848 124.2662129
 130.6059992  25.7799978 122.8240014 130.7019992  26.4469978 122.1440014
 130.4659992  24.9649978 122.3420014 130.6002063  25.7610667 122.6658377
 129.7749992  27.1609978 128.4450014 129.6249992  26.2159978 128.4240014
 129.4209992  27.4419978 129.2880014 129.7065527  27.0695605 128.5561859
 114.8099992  29.2389978 132.4550014 114.9949992  29.1569978 131.5190014
 115.6599992  29.1149978 132.8790014 114.9500916  29.2110393 132.3842896
 130.6309992  29.1309978 138.0830014 131.2139992  28.3959978 138.2750014
 131.1949992  29.9029978 138.1300014 130.7869781  29.1348145 138.1156164
 132.1279992  27.0339978 138.7680014 131.2649992  26.6549978 138.6020014
 132.7319992  26.2949978 138.6940014 132.0915944  26.8822978 138.7352984
 129.8529992  23.1879978 121.9410014 130.4639992  22.8169978 122.5780014
 129.0159992  22.7669978 122.1370014 129.8234947  23.0802756 122.0547252
 129.4859992  24.7429978 126.9070014 129.7649992  23.8359978 127.0310014
 130.2449992  25.1769978 126.5180014 129.6268619  24.6774502 126.8713795
 130.0969992  25.3249978 132.3430014 131.0299992  25.5369978 132.3090014
 129.8619992  25.4259978 133.2650014 130.1928308  25.3676503 132.4630214
 130.1269992  26.0619978 135.1190014 129.2839992  26.3299978 135.4850014
 130.5689992  26.8839978 134.9080014 130.0714138  26.2098273 135.1405518
 114.4079992  24.5089978 138.5960014 115.3269992  24.3869978 138.8320014
 113.9579992  23.7589978 138.9850014 114.4731148  24.3908751 138.6809408
 132.4099992  20.0419978 140.4720014 132.7589992  19.3879978 139.8670014
 132.5569992  20.8789978 140.0330014 132.4777355  20.0656067 140.3296564
 130.0989992  22.0059978 126.9550014 130.2809992  21.5569978 127.7810014
 129.4989992  21.4219978 126.4920014 130.0427529  21.8656131 127.0053619
 115.6289992  22.8219978 131.4870014 116.0739992  22.0299978 131.7890014
 116.0949992  23.5379978 131.9180014 115.7529059  22.8104474 131.5866079
 113.9329992  25.8209978 132.5560014 114.4249992  25.5999978 131.7650014
 114.2949992  26.6609978 132.8370014 114.0492923  25.9043468 132.4857407
 131.9289992  22.1509978 138.8220014 131.0119992  22.4219978 138.7860014
 132.0519992  21.6159978 138.0380014 131.8200828  22.1157700 138.7110785
 131.9659992  22.0739978 123.4830014 132.3779992  21.3529978 123.0080014
 132.6469992  22.7429978 123.5420014 132.1145900  22.0657306 123.4259038
 114.2469992  22.0789978 126.6100014 113.3219992  22.2869978 126.4810014
 114.7009992  22.5629978 125.9210014 114.1816374  22.1729949 126.4990957
 129.0169992  37.0629978 128.5560014 129.6699992  36.7149978 127.9480014
 129.5279992  37.5509978 129.2020014 129.1752777  37.0813815 128.5602047
 114.2099992  20.8169978 134.9550014 113.5449992  20.5709978 135.5980014
 113.7669992  21.4389978 134.3770014 114.0590937  20.8673614 134.9649379
 116.4019992  33.9919978 139.0990014 115.5809992  34.1669978 138.6390014
 116.1499992  33.9189978 140.0200014 116.2556173  34.0060794 139.1604972
 119.3559992  34.9659978 135.3580014 118.9319992  35.7759978 135.0750014
 120.2609992  35.0519978 135.0560014 119.4202433  35.0883331 135.2785377
 123.6679992  36.3649978 138.3170014 123.8519992  36.0319978 139.1950014
 124.5139992  36.6749978 137.9950014 123.8076484  36.3612979 138.3937617
 126.0129992  37.6509978 137.5610014 126.6899992  37.0179978 137.3210014
 126.3339992  38.0519978 138.3680014 126.1491323  37.6185691 137.6373158
 130.9299992  20.2409978 136.6410014 130.1169992  20.5659978 136.2530014
 131.1629992  19.4799978 136.1080014 130.8502566  20.1826559 136.5159213
 116.7579992  38.2229978 135.4050014 116.0379992  38.6629978 134.9540014
 116.3929992  37.9719978 136.2540014 116.6099796  38.2493824 135.4579329
 119.2249992  37.8229978 134.4350014 118.3609992  37.8949978 134.8390014
 119.1699992  38.3699978 133.6510014 119.0991942  37.9067849 134.3844000
 123.9359992  37.7109978 133.6100014 123.4789992  38.2399978 132.9560014
 124.0989992  38.3139978 134.3360014 123.8954476  37.8649140 133.6185499
 126.2639992  36.5889978 134.5550014 125.3589992  36.7539978 134.2900014
 126.6919992  37.4419978 134.4900014 126.1980700  36.7269529 134.5099520
 128.8679992  38.1589978 134.8500014 128.6859992  39.0749978 134.6400014
 129.0449992  37.7479978 134.0040014 128.8669907  38.2289741 134.7067883
 116.1729992  36.8459978 132.3150014 116.1549992  36.4199978 133.1730014
 116.9779992  36.5269978 131.9070014 116.2793221  36.7447233 132.3770225
 118.3139992  35.5559978 130.9700014 118.0949992  34.6389978 131.1400014
 119.1379992  35.6959978 131.4360014 118.3954702  35.4495511 131.0562527
 120.8509992  36.0259978 131.8190014 121.0639992  35.1379978 131.5320014
 120.9159992  35.9909978 132.7740014 120.8889075  35.8998307 131.9087373
 124.3599992  21.6899978 130.9630014 123.6859992  21.0599978 131.2190014
 124.9239992  21.2059978 130.3600014 124.3440384  21.5383708 130.9165020
 129.5029992  19.7969978 131.0760014 130.1059992  20.3449978 130.5740014
 128.6329992  20.1159978 130.8360014 129.4679190  19.9151041 130.9748679
 131.2299992  20.9359978 129.4090014 131.8409992  20.4219978 128.8830014
 131.6119992  21.8129978 129.4330014 131.3654475  20.9841323 129.3401208
 116.6869992  20.3239978 128.7850014 115.9099992  20.0889978 128.2780014
 117.2169992  19.5269978 128.7940014 116.6523451  20.1841268 128.7168627
 115.5229992  20.1219978 124.5890014 115.9619992  20.7329978 123.9970014
 114.8889992  20.6599978 125.0630014 115.4973859  20.2784064 124.5720305
 121.2659992  20.2499978 128.5990014 122.1399992  20.6389978 128.5690014
 121.1299992  20.0349978 129.5210014 121.3673207  20.2741923 128.7196509
 126.8229992  20.2799978 130.2480014 126.8989992  20.3759978 129.2990014
 126.5479992  19.3729978 130.3770014 126.7962042  20.1704241 130.1353811
 128.1759992  20.3059978 125.9400014 127.4729992  20.9209978 125.7310014
 127.7309992  19.4689978 126.0720014 128.0196292  20.2770085 125.9292439
 115.4239992  36.0699978 125.4870014 114.7389992  36.0319978 124.8190014
 115.4279992  36.9829978 125.7750014 115.3308174  36.1881998 125.4345310
 117.3839992  22.0379978 123.0310014 117.8749992  21.4079978 122.5040014
 118.0069992  22.3339978 123.6950014 117.5355062  21.9916770 123.0485438
 122.4099992  22.3309978 125.4890014 122.5879992  21.6839978 126.1710014
 122.3559992  23.1649978 125.9560014 122.4271025  22.3550504 125.6456433
 124.2879992  37.2789978 123.8840014 125.1539992  37.6459978 123.7060014
 124.0419992  36.8399978 123.0700014 124.3732097  37.2698525 123.7496019
 130.9969992  36.8419978 126.5630014 130.8029992  36.0939978 125.9980014
 130.9579992  37.5999978 125.9800014 130.9651645  36.8420786 126.4068148
 116.6439992  20.8379978 138.3030014 116.2779992  20.0719978 138.7460014
 117.5569992  20.8669978 138.5900014 116.7173225  20.7371906 138.4023459
 118.6169992  20.1879978 139.8390014 119.5159992  19.9139978 139.6540014
 118.2309992  19.4459978 140.3030014 118.6877237  20.0501508 139.8764710
 117.2419992  36.9899978 122.5120014 116.9739992  37.2759978 123.3850014
 118.0129992  36.4439978 122.6640014 117.3095600  36.9553330 122.6521499
 127.0389992  19.5209978 140.0210014 127.1149992  19.0949978 140.8750014
 127.9319992  19.5339978 139.6780014 127.1702267  19.4643952 140.0915932
 130.2149992  35.5939978 138.7130014 129.4329992  35.4069978 138.1940014
 130.1429992  36.5229978 138.9310014 130.0980863  35.6940221 138.6713574
 144.6209992  29.4799978 128.7440014 144.7099992  30.4239978 128.6120014
 143.9829992  29.2049978 128.0860014 144.5469062  29.5719812 128.6369641
 143.5539992  28.7349978 132.1630014 143.5159992  28.0889978 132.8680014
 143.2319992  28.2679978 131.3920014 143.5052679  28.5834276 132.1552921
 135.9219992  28.3489978 133.7560014 135.9639992  27.7239978 134.4790014
 136.6249992  28.9729978 133.9380014 136.0227345  28.3477873 133.8795274
 136.8459992  32.7989978 132.2910014 136.4759992  31.9969978 131.9210014
 137.7869992  32.6309978 132.3370014 136.9225984  32.6664638 132.2465603
 133.4559992  26.4589978 127.6840014 133.0079992  27.3049978 127.6650014
 132.8949992  25.8799978 127.1680014 133.3189603  26.4963674 127.6116720
 134.1659992  28.6209978 129.8100014 134.3799992  27.8509978 130.3370014
 134.9039992  28.7109978 129.2060014 134.2949652  28.5278012 129.8005212
 144.3719992  36.7779978 130.6770014 144.9909992  36.1019978 130.4030014
 144.1629992  36.5599978 131.5850014 144.4286232  36.6557938 130.7622517
 141.9429992  31.1669978 132.5690014 142.2469992  30.4809978 131.9750014
 142.6649992  31.2859978 133.1870014 142.0821152  31.0892189 132.5712123
 145.0839992  25.5609978 132.8970014 145.2269992  24.6149978 132.9170014
 144.9779992  25.7679978 131.9680014 145.0892509  25.4594813 132.7742231
 138.2389992  23.6629978 130.1690014 138.2819992  24.5229978 129.7510014
 137.7809992  23.1109978 129.5350014 138.1829815  23.7060621 130.0261197
 134.8589992  26.0599978 130.9310014 135.5129992  25.5099978 131.3630014
 134.8829992  25.7859978 130.0140014 134.9517199  25.9477167 130.8661668
 140.0159992  27.6099978 130.1460014 140.6319992  27.0829978 130.6560014
 139.4289992  26.9699978 129.7430014 140.0209239  27.4514117 130.1612952
 137.0489992  22.5809978 134.2430014 136.8299992  23.1109978 133.4770014
 136.3809992  22.8069978 134.8900014 136.9287001  22.6841154 134.2256064
 144.4179992  32.0809978 127.7870014 144.1229992  31.7579978 126.9360014
 144.0939992  32.9809978 127.8280014 144.3337983  32.1584026 127.6759771
 139.6179992  30.2559978 134.5310014 138.8779992  30.8549978 134.6340014
 140.3319992  30.8099978 134.2150014 139.6133288  30.4127356 134.5023805
 136.6429992  24.4729978 132.1950014 137.2569992  25.1059978 132.5690014
 137.1549992  24.0009978 131.5390014 136.7962277  24.4957352 132.1574279
 138.0259992  32.2209978 135.3180014 138.0199992  33.0999978 134.9400014
 137.1719992  32.1369978 135.7430014 137.9097925  32.3299535 135.3236887
 134.1469992  31.8919978 126.1000014 133.8749992  32.1209978 125.2110014
 134.1919992  32.7289978 126.5600014 134.1158709  32.0366058 126.0406107
 141.0759992  19.8859978 131.6960014 140.9579992  18.9379978 131.6410014
 140.2209992  20.2189978 131.9690014 140.9442679  19.8011926 131.7253720
 143.3419992  28.7239978 126.1960014 142.6309992  29.2589978 125.8440014
 144.0329992  28.7789978 125.5360014 143.3380751  28.8046777 126.0585858
 143.3959992  27.1809978 123.2350014 144.0969992  27.2039978 123.8860014
 143.6979992  26.5529978 122.5790014 143.5328282  27.0992339 123.2354496
 138.3929992  29.5639978 129.0300014 138.0629992  29.1929978 128.2120014
 138.9819992  28.8929978 129.3770014 138.4273970  29.4226063 128.9649404
 139.7599992  32.9919978 131.7120014 139.6649992  32.4129978 130.9550014
 140.4889992  32.6209978 132.2080014 139.8456161  32.8625891 131.6755209
 138.7599992  28.3319978 132.6640014 139.3249992  28.4539978 131.9010014
 139.0789992  28.9699978 133.3030014 138.8803977  28.4348851 132.6459424
 145.0689992  33.8359978 133.3980014 144.8289992  34.4979978 134.0460014
 144.8709992  33.0009978 133.8230014 145.0093826  33.8138115 133.5441566
 139.6399992  32.7319978 137.3810014 139.3289992  33.5139978 137.8360014
 138.9899992  32.5789978 136.6950014 139.5095538  32.8184087 137.3505898
 136.5599992  28.9299978 136.6100014 136.6299992  29.5809978 137.3080014
 135.6689992  29.0329978 136.2750014 136.4491802  29.0329757 136.6602249
 143.3449992  34.8319978 128.2680014 143.8189992  35.1279978 129.0460014
 142.7819992  35.5709978 128.0350014 143.3337361  34.9722721 128.3428611
 137.8789992  34.8029978 138.1440014 137.8869992  34.6669978 137.1970014
 136.9629992  34.6859978 138.3960014 137.7562528  34.7685463 138.0483243
 137.3839992  28.6329978 126.6200014 137.0919992  29.4009978 126.1290014
 136.7089992  27.9739978 126.4570014 137.2528497  28.6489745 126.5308260
 133.4769992  30.9959978 135.4350014 132.9749992  30.9679978 134.6200014
 133.4819992  30.0909978 135.7440014 133.4090416  30.8697368 135.3653766
 133.2269992  33.7769978 132.3190014 134.1729992  33.6319978 132.3000014
 133.1139992  34.5609978 132.8560014 133.3413578  33.8631697 132.3890317
 142.4029992  34.0169978 136.8770014 142.4909992  34.8429978 137.3520014
 141.5399992  33.6869978 137.1260014 142.2983357  34.0855468 136.9757653
 142.8179992  37.7889978 126.6830014 142.7419992  37.6679978 125.7370014
 142.8499992  38.7379978 126.8020014 142.8119156  37.9007530 126.5695048
 136.4709992  36.5779978 128.4640014 136.6229992  36.2299978 129.3430014
 135.6199992  36.2209978 128.2090014 136.3767899  36.4821738 128.5497340
 135.7259992  32.3199978 136.4780014 135.9419992  31.9579978 137.3370014
 134.8699992  31.9449978 136.2680014 135.6399354  32.2197906 136.5672160
 138.3439992  20.7899978 132.4730014 137.4829992  20.7029978 132.0660014
 138.3219992  21.6459978 132.9010014 138.2230411  20.8937884 132.4750857
 143.0069992  20.5119978 135.8480014 143.4269992  20.0969978 136.6010014
 142.0739992  20.3329978 135.9650014 142.9383736  20.4309910 135.9668968
 142.6689992  23.0039978 123.1330014 142.4149992  23.0229978 124.0560014
 142.4119992  22.1329978 122.8320014 142.5995133  22.8888110 123.2185082
 138.4349992  25.7549978 133.5680014 137.7939992  25.7149978 134.2770014
 138.4729992  26.6819978 133.3310014 138.3523670  25.8747795 133.6330550
 138.4319992  25.9759978 128.4800014 137.5399992  25.6359978 128.4220014
 138.8829992  25.5989978 127.7250014 138.3706815  25.8783762 128.3699203
 143.9679992  26.3919978 127.2970014 143.5589992  27.2069978 127.0060014
 144.6879992  26.2519978 126.6830014 144.0094013  26.4846571 127.1740875
 143.0699992  26.5679978 138.7850014 142.5069992  25.8629978 139.1060014
 143.8959992  26.4469978 139.2530014 143.1046674  26.4552165 138.8921751
 144.9729992  25.8379978 130.1110014 144.7769992  26.4439978 129.3960014
 145.1539992  25.0049978 129.6770014 144.9706584  25.8082513 129.9544212
 136.1849992  26.0759978 135.4350014 136.1469992  26.4759978 136.3040014
 135.6949992  25.2589978 135.5260014 136.1135621  26.0202510 135.5661377
 139.5509992  23.4499978 122.2340014 139.1199992  23.0049978 122.9640014
 138.8329992  23.8209978 121.7220014 139.3949363  23.4392968 122.2646211
 132.7939992  23.1919978 129.2860014 133.4239992  23.1629978 130.0050014
 133.2429992  22.7669978 128.5560014 132.9410692  23.1305316 129.2857771
 134.0679992  23.9379978 124.7100014 134.5419992  24.5289978 124.1250014
 133.3499992  24.4679978 125.0570014 134.0358640  24.0905511 124.6767969
 144.2369992  27.4759978 134.7830014 144.5599992  26.8449978 134.1400014
 143.7959992  26.9419978 135.4430014 144.2215789  27.3173522 134.7842232
 141.0139992  23.4039978 129.5670014 140.1029992  23.4609978 129.8550014
 141.5189992  23.3439978 130.3770014 140.9575387  23.4036870 129.7160646
 135.8419992  25.0329978 128.3930014 134.9529992  25.1319978 128.0530014
 136.1389992  24.1909978 128.0470014 135.7604177  24.9327687 128.2996940
 139.4949992  25.0329978 126.0500014 140.4269992  25.1619978 126.2280014
 139.2799992  25.7019978 125.4000014 139.5934472  25.1410806 125.9864891
 145.4189992  22.6389978 132.8310014 144.7419992  22.7699978 133.4950014
 144.9339992  22.4839978 132.0210014 145.2607265  22.6359659 132.8123397
 138.1689992  26.2269978 123.6170014 137.6269992  25.8479978 122.9250014
 139.0029992  26.4219978 123.1880014 138.2075159  26.2015076 123.4644419
 136.3049992  30.7839978 138.7160014 137.0369992  31.0389978 139.2770014
 135.5239992  30.9889978 139.2310014 136.2997684  30.8466468 138.8624782
 142.3339992  26.1909978 131.4540014 142.8979992  25.6449978 130.9070014
 142.1859992  25.6699978 132.2420014 142.3912575  26.0456552 131.4856987
 137.3359992  22.3279978 127.8720014 137.0189992  21.4249978 127.8370014
 138.1169992  22.3299978 127.3190014 137.3982307  22.2046951 127.7924314
 140.9599992  24.5799978 133.8680014 140.1249992  25.0339978 133.9780014
 141.4839992  24.8559978 134.6200014 140.9165070  24.6794666 133.9847152
 141.5049992  30.7929978 125.5520014 140.7599992  30.2849978 125.2300014
 141.3699992  30.8419978 126.4990014 141.3849047  30.7301596 125.6358845
 145.4019992  23.6069978 123.7520014 144.4639992  23.7179978 123.6000014
 145.6999992  24.4629978 124.0580014 145.3136402  23.7380621 123.7725571
 143.0239992  30.9769978 136.7890014 142.6779992  30.5949978 137.5960014
 142.8239992  31.9099978 136.8610014 142.9496523  31.0509095 136.9090735
 136.6289992  30.0879978 131.3220014 137.3739992  30.0849978 130.7210014
 136.7069992  29.2639978 131.8040014 136.7414158  29.9762916 131.3049153
 143.6299992  32.2509978 124.5780014 143.3349992  33.0779978 124.9590014
 142.9269992  31.6319978 124.7740014 143.4945471  32.2805227 124.6566698
 133.6369992  28.5479978 136.6370014 133.8599992  28.1299978 137.4690014
 133.0349992  27.9359978 136.2140014 133.5861260  28.4079933 136.6937320
 140.6539992  28.0649978 138.8500014 140.3579992  27.8999978 137.9550014
 141.5849992  27.8449978 138.8390014 140.7393982  28.0126578 138.7260045
 145.2739992  33.4389978 136.7400014 144.3739992  33.6219978 136.4720014
 145.3079992  33.6979978 137.6610014 145.1552909  33.4990815 136.8277852
 139.0039992  33.6059978 128.7260014 139.5319992  34.3789978 128.5260014
 138.1239992  33.8299978 128.4250014 138.9573176  33.7423161 128.6578409
 134.7589992  28.4679978 123.3140014 135.3749992  29.0949978 123.6930014
 133.8969992  28.7839978 123.5850014 134.7268195  28.5965798 123.4025386
 140.4319992  31.2689978 128.3030014 140.1909992  32.1939978 128.3440014
 139.6909992  30.8099978 128.6990014 140.2988390  31.3336403 128.3621404
 140.9459992  35.4179978 134.6180014 141.3089992  36.2719978 134.3840014
 141.4779992  35.1259978 135.3580014 141.0676090  35.4954058 134.6860219
 139.1149992  36.2899978 127.8480014 138.1649992  36.3959978 127.8990014
 139.4669992  37.1109978 128.1930014 139.0325480  36.4154438 127.9015999
 144.4899992  31.5169978 134.3180014 144.0649992  31.2889978 135.1450014
 145.0709992  30.7779978 134.1360014 144.5103930  31.3859843 134.4064732
 135.2709992  23.3019978 136.1950014 134.3789992  23.6399978 136.1280014
 135.1729992  22.4459978 136.6130014 135.1354965  23.2326499 136.2423044
 134.9229992  35.1059978 134.6300014 135.1399992  34.1739978 134.5990014
 135.1689992  35.3809978 135.5130014 134.9859809  35.0155686 134.7451690
 140.7839992  33.5579978 121.8390014 141.0229992  32.8089978 121.2920014
 140.5149992  33.1699978 122.6720014 140.7803233  33.4031853 121.8767809
 139.7209992  33.1279978 124.2960014 139.8679992  32.6079978 125.0860014
 139.7179992  34.0349978 124.6020014 139.7407300  33.1793964 124.4455895
 136.1739992  30.3799978 124.8060014 135.4879992  30.7329978 125.3730014
 136.6969992  31.1429978 124.5600014 136.1509033  30.5313746 124.8502661
 144.0059992  23.0429978 135.0850014 144.7049992  23.1169978 135.7350014
 143.6249992  22.1779978 135.2390014 144.0502097  22.9362389 135.1947997
 144.7899992  22.6949978 126.1820014 145.0099992  23.1659978 125.3790014
 145.3489992  23.0889978 126.8520014 144.8956730  22.8127432 126.1625906
 142.4589992  34.8249978 125.0450014 141.6419992  35.3219978 125.0970014
 142.9879992  35.3009978 124.4050014 142.4188508  34.9572543 124.9656035
 141.9899992  24.4229978 127.0170014 142.8019992  24.9269978 127.0630014
 141.7459992  24.2779978 127.9310014 142.0681467  24.4723749 127.1468575
 142.5259992  25.4089978 136.2020014 142.6449992  25.9829978 136.9590014
 143.1809992  24.7209978 136.3160014 142.6309146  25.3945574 136.3211314
 142.8739992  21.5039978 127.9550014 142.5269992  22.1209978 128.6000014
 143.5329992  22.0049978 127.4740014 142.9155949  21.6561099 127.9782271
 139.7969992  35.8689978 125.0270014 139.9579992  36.6689978 124.5260014
 139.5999992  36.1759978 125.9120014 139.7923919  36.0199129 125.0781006
 138.5319992  22.5669978 124.6420014 138.4479992  23.4549978 124.9890014
 139.4219992  22.3019978 124.8740014 138.6408163  22.6527179 124.7208596
 136.7899992  32.9939978 123.7030014 137.3819992  33.6939978 123.9790014
 137.2489992  32.5609978 122.9830014 136.9330791  33.0312908 123.6434607
 135.1059992  25.6589978 122.8190014 135.0609992  26.5979978 122.9970014
 134.2179992  25.4229978 122.5490014 134.9798555  25.7556874 122.8068939
 135.9139992  20.4399978 131.4920014 135.6849992  20.4989978 130.5640014
 135.4719992  19.6489978 131.7980014 135.8228801  20.3410540 131.4064729
 134.8449992  34.3809978 127.6520014 134.0119992  34.8529978 127.6800014
 135.3899992  34.8909978 127.0540014 134.8047590  34.5145897 127.5749194
 134.1329992  36.9929978 138.9820014 134.6729992  36.7769978 139.7420014
 133.6519992  36.1879978 138.7930014 134.1418613  36.8545400 139.0604782
 138.7299992  35.9129978 140.6030014 139.4979992  35.4539978 140.9440014
 138.7089992  35.6869978 139.6730014 138.8322135  35.8196668 140.5239491
 142.8219992  35.4209978 121.9780014 142.1779992  34.7899978 122.2990014
 143.5839992  34.8899978 121.7460014 142.8368058  35.2627902 121.9906038
 145.3069992  34.2929978 139.3320014 144.9559992  33.4359978 139.5750014
 146.0329992  34.4349978 139.9390014 145.3571590  34.1950178 139.4472907
 134.0399992  30.8039978 139.9370014 134.1839992  29.9019978 139.6500014
 133.2679992  31.0899978 139.4490014 133.9553303  30.7193243 139.8317908
 138.3809992  31.1469978 122.0690014 138.4459992  30.3529978 122.6000014
 139.0339992  31.0289978 121.3790014 138.4781754  31.0223337 122.0484259
 140.6949992  30.7729978 139.3690014 140.3669992  31.0439978 138.5120014
 140.8469992  29.8319978 139.2820014 140.6706030  30.6828973 139.2397945
 143.7339992  32.1939978 121.8050014 143.4649992  32.3749978 122.7060014
 143.5269992  31.2689978 121.6740014 143.6692000  32.0936774 121.9105693
 134.8729992  28.0039978 139.3570014 135.2809992  27.1469978 139.2360014
 134.6119992  28.0179978 140.2780014 134.8936016  27.8885119 139.4649192
 139.5309992  29.1199978 124.3750014 139.0709992  28.6359978 125.0610014
 139.7859992  28.4509978 123.7390014 139.5025038  28.9633689 124.3829447
 138.8199992  27.0129978 136.7310014 138.2009992  27.6869978 137.0110014
 139.1639992  27.3339978 135.8980014 138.7817605  27.1487198 136.6566707
 140.6019992  27.3629978 122.6370014 140.4209992  27.2079978 121.7100014
 141.5519992  27.4709978 122.6820014 140.7056566  27.3563669 122.5160929
 143.8389992  29.4839978 140.0080014 144.7929992  29.5679978 139.9810014
 143.6789992  28.7719978 140.6280014 143.9477182  29.3992842 140.0880733
 139.1589992  24.3679978 137.8130014 139.3089992  23.6389978 137.2110014
 139.1609992  25.1449978 137.2540014 139.1797967  24.3732708 137.6550541
 139.5719992  22.7369978 135.3060014 140.1069992  23.1889978 134.6540014
 138.7189992  22.6289978 134.8830014 139.5300374  22.7842665 135.1596710
 141.1529992  28.1769978 135.5450014 141.9039992  28.0209978 134.9720014
 140.8139992  29.0289978 135.2700014 141.2099587  28.2708138 135.4294078
 145.5689992  25.9919978 140.5740014 145.7609992  25.0609978 140.4620014
 146.4269992  26.4169978 140.5640014 145.7112269  25.9219928 140.5573192
 137.6379992  25.5659978 139.7250014 136.8699992  25.0329978 139.5150014
 138.3159992  25.2559978 139.1250014 137.6246973  25.4512375 139.6151796
 140.3769992  20.1939978 135.7370014 140.2789992  21.1399978 135.6320014
 139.6349992  19.8209978 135.2620014 140.2631913  20.2731813 135.6583539
 141.6409992  24.5149978 139.3010014 141.4059992  24.2959978 140.2030014
 140.8579992  24.3079978 138.7910014 141.5029219  24.4570066 139.3555852
 144.3569992  23.6429978 138.3770014 143.4089992  23.6749978 138.5090014
 144.6689992  23.0169978 139.0300014 144.2695190  23.5627262 138.4833564
 135.8179992  23.4859978 139.4290014 136.0299992  22.7799978 138.8190014
 135.7069992  23.0489978 140.2730014 135.8320269  23.3301921 139.4595873
 140.5989992  19.4879978 138.4090014 141.3109992  18.8479978 138.3950014
 140.4979992  19.7539978 137.4950014 140.6827261  19.4364190 138.2835537
 140.9529992  21.1699978 140.4620014 140.8209992  20.6949978 139.6420014
 140.3529992  21.9149978 140.4070014 140.8539070  21.2055789 140.3423251
 140.4989992  38.0529978 123.6390014 141.4319992  38.2109978 123.7820014
 140.2349992  38.7289978 123.0140014 140.5909308  38.1659104 123.5741396
 134.0669992  32.6899978 123.1210014 134.9809992  32.7689978 123.3950014
 134.0749992  32.0029978 122.4550014 134.1931143  32.6079085 123.0684274
 132.7159992  38.0829978 128.1990014 132.0689992  37.6209978 127.6660014
 133.0709992  37.4109978 128.7810014 132.6754506  37.9289503 128.2047341
 133.5859992  36.1629978 130.0030014 133.2519992  35.2829978 130.1750014
 133.8089992  36.5089978 130.8680014 133.5703721  36.0891938 130.1434168
 133.6659992  29.2389978 132.4550014 133.8509992  29.1569978 131.5190014
 134.5159992  29.1149978 132.8790014 133.8060916  29.2110393 132.3842896
 133.2639992  24.5089978 138.5960014 134.1829992  24.3869978 138.8320014
 132.8139992  23.7589978 138.9850014 133.3291148  24.3908751 138.6809408
 134.4849992  22.8219978 131.4870014 134.9299992  22.0299978 131.7890014
 134.9509992  23.5379978 131.9180014 134.6089059  22.8104474 131.5866079
 132.7889992  25.8209978 132.5560014 133.2809992  25.5999978 131.7650014
 133.1509992  26.6609978 132.8370014 132.9052923  25.9043468 132.4857407
 133.1029992  22.0789978 126.6100014 132.1779992  22.2869978 126.4810014
 133.5569992  22.5629978 125.9210014 133.0376374  22.1729949 126.4990957
 133.0659992  20.8169978 134.9550014 132.4009992  20.5709978 135.5980014
 132.6229992  21.4389978 134.3770014 132.9150937  20.8673614 134.9649379
 135.2579992  33.9919978 139.0990014 134.4369992  34.1669978 138.6390014
 135.0059992  33.9189978 140.0200014 135.1116173  34.0060794 139.1604972
 138.2119992  34.9659978 135.3580014 137.7879992  35.7759978 135.0750014
 139.1169992  35.0519978 135.0560014 138.2762433  35.0883331 135.2785377
 142.5239992  36.3649978 138.3170014 142.7079992  36.0319978 139.1950014
 143.3699992  36.6749978 137.9950014 142.6636484  36.3612979 138.3937617
 144.8689992  37.6509978 137.5610014 145.5459992  37.0179978 137.3210014
 145.1899992  38.0519978 138.3680014 145.0051323  37.6185691 137.6373158
 135.6139992  38.2229978 135.4050014 134.8939992  38.6629978 134.9540014
 135.2489992  37.9719978 136.2540014 135.4659796  38.2493824 135.4579329
 138.0809992  37.8229978 134.4350014 137.2169992  37.8949978 134.8390014
 138.0259992  38.3699978 133.6510014 137.9551942  37.9067849 134.3844000
 142.7919992  37.7109978 133.6100014 142.3349992  38.2399978 132.9560014
 142.9549992  38.3139978 134.3360014 142.7514476  37.8649140 133.6185499
 145.1199992  36.5889978 134.5550014 144.2149992  36.7539978 134.2900014
 145.5479992  37.4419978 134.4900014 145.0540700  36.7269529 134.5099520
 135.0289992  36.8459978 132.3150014 135.0109992  36.4199978 133.1730014
 135.8339992  36.5269978 131.9070014 135.1353221  36.7447233 132.3770225
 137.1699992  35.5559978 130.9700014 136.9509992  34.6389978 131.1400014
 137.9939992  35.6959978 131.4360014 137.2514702  35.4495511 131.0562527
 139.7069992  36.0259978 131.8190014 139.9199992  35.1379978 131.5320014
 139.7719992  35.9909978 132.7740014 139.7449075  35.8998307 131.9087373
 143.2159992  21.6899978 130.9630014 142.5419992  21.0599978 131.2190014
 143.7799992  21.2059978 130.3600014 143.2000384  21.5383708 130.9165020
 135.5429992  20.3239978 128.7850014 134.7659992  20.0889978 128.2780014
 136.0729992  19.5269978 128.7940014 135.5083451  20.1841268 128.7168627
 134.3789992  20.1219978 124.5890014 134.8179992  20.7329978 123.9970014
 133.7449992  20.6599978 125.0630014 134.3533859  20.2784064 124.5720305
 140.1219992  20.2499978 128.5990014 140.9959992  20.6389978 128.5690014
 139.9859992  20.0349978 129.5210014 140.2233207  20.2741923 128.7196509
 134.2799992  36.0699978 125.4870014 133.5949992  36.0319978 124.8190014
 134.2839992  36.9829978 125.7750014 134.1868174  36.1881998 125.4345310
 136.2399992  22.0379978 123.0310014 136.7309992  21.4079978 122.5040014
 136.8629992  22.3339978 123.6950014 136.3915062  21.9916770 123.0485438
 141.2659992  22.3309978 125.4890014 141.4439992  21.6839978 126.1710014
 141.2119992  23.1649978 125.9560014 141.2831025  22.3550504 125.6456433
 143.1439992  37.2789978 123.8840014 144.0099992  37.6459978 123.7060014
 142.8979992  36.8399978 123.0700014 143.2292097  37.2698525 123.7496019
 135.4999992  20.8379978 138.3030014 135.1339992  20.0719978 138.7460014
 136.4129992  20.8669978 138.5900014 135.5733225  20.7371906 138.4023459
 137.4729992  20.1879978 139.8390014 138.3719992  19.9139978 139.6540014
 137.0869992  19.4459978 140.3030014 137.5437237  20.0501508 139.8764710
 136.0979992  36.9899978 122.5120014 135.8299992  37.2759978 123.3850014
 136.8689992  36.4439978 122.6640014 136.1655600  36.9553330 122.6521499
  12.6289992  48.3359978 128.7440014  12.7179992  49.2799978 128.6120014
  11.9909992  48.0609978 128.0860014  12.5549062  48.4279812 128.6369641
  11.5619992  47.5909978 132.1630014  11.5239992  46.9449978 132.8680014
  11.2399992  47.1239978 131.3920014  11.5132679  47.4394276 132.1552921
   3.9299992  47.2049978 133.7560014   3.9719992  46.5799978 134.4790014
   4.6329992  47.8289978 133.9380014   4.0307345  47.2037873 133.8795274
  15.2679992  50.5299978 130.4650014  14.8269992  49.8099978 130.9150014
  15.2549992  51.2509978 131.0940014  15.2057960  50.5288329 130.6117567
   4.8539992  51.6549978 132.2910014   4.4839992  50.8529978 131.9210014
   5.7949992  51.4869978 132.3370014   4.9305984  51.5224638 132.2465603
   1.4639992  45.3149978 127.6840014   1.0159992  46.1609978 127.6650014
   0.9029992  44.7359978 127.1680014   1.3269603  45.3523674 127.6116720
   2.1739992  47.4769978 129.8100014   2.3879992  46.7069978 130.3370014
   2.9119992  47.5669978 129.2060014   2.3029652  47.3838012 129.8005212
  12.3799992  55.6339978 130.6770014  12.9989992  54.9579978 130.4030014
  12.1709992  55.4159978 131.5850014  12.4366232  55.5117938 130.7622517
   9.9509992  50.0229978 132.5690014  10.2549992  49.3369978 131.9750014
  10.6729992  50.1419978 133.1870014  10.0901152  49.9452189 132.5712123
  18.6139992  41.6249978 133.4300014  18.6639992  42.2349978 134.1660014
  19.0399992  42.0859978 132.7070014  18.6784108  41.7707709 133.4330112
  13.0919992  44.4169978 132.8970014  13.2349992  43.4709978 132.9170014
  12.9859992  44.6239978 131.9680014  13.0972509  44.3154813 132.7742231
   6.2469992  42.5189978 130.1690014   6.2899992  43.3789978 129.7510014
   5.7889992  41.9669978 129.5350014   6.1909815  42.5620621 130.0261197
  13.9689992  42.6499978 128.5700014  14.6159992  42.3209978 129.1950014
  14.4789992  43.1669978 127.9470014  14.1264317  42.6749227 128.5712167
   2.8669992  44.9159978 130.9310014   3.5209992  44.3659978 131.3630014
   2.8909992  44.6419978 130.0140014   2.9597199  44.8037167 130.8661668
   8.0239992  46.4659978 130.1460014   8.6399992  45.9389978 130.6560014
   7.4369992  45.8259978 129.7430014   8.0289239  46.3074117 130.1612952
  19.0059992  43.1029978 135.6660014  18.3169992  43.7609978 135.5700014
  19.0209992  42.9049978 136.6020014  18.9136741  43.1663243 135.7794630
   5.0569992  41.4369978 134.2430014   4.8379992  41.9669978 133.4770014
   4.3889992  41.6629978 134.8900014   4.9367001  41.5401154 134.2256064
  12.4259992  50.9369978 127.7870014  12.1309992  50.6139978 126.9360014
  12.1019992  51.8369978 127.8280014  12.3417983  51.0144026 127.6759771
   7.6259992  49.1119978 134.5310014   6.8859992  49.7109978 134.6340014
   8.3399992  49.6659978 134.2150014   7.6213288  49.2687356 134.5023805
  15.7329992  41.9409978 130.5500014  15.5179992  41.1749978 131.0830014
  16.3889992  42.4129978 131.0630014  15.7922673  41.9000728 130.6921990
   4.6509992  43.3289978 132.1950014   5.2649992  43.9619978 132.5690014
   5.1629992  42.8569978 131.5390014   4.8042277  43.3517352 132.1574279
   6.0339992  51.0769978 135.3180014   6.0279992  51.9559978 134.9400014
   5.1799992  50.9929978 135.7430014   5.9177925  51.1859535 135.3236887
   2.1549992  50.7479978 126.1000014   1.8829992  50.9769978 125.2110014
   2.1999992  51.5849978 126.5600014   2.1238709  50.8926058 126.0406107
  15.7799992  52.3689978 132.8120014  14.8379992  52.4279978 132.9740014
  16.0559992  53.2749978 132.6750014  15.6885865  52.4995288 132.8156192
  16.0799992  40.6559978 134.2300014  15.3439992  41.2659978 134.1920014
  16.7639992  41.0709978 133.7030014  16.0715506  40.7956400 134.1536051
   9.0839992  38.7419978 131.6960014   8.9659992  37.7939978 131.6410014
   8.2289992  39.0749978 131.9690014   8.9522679  38.6571926 131.7253720
  14.0319992  54.1499978 129.4380014  14.4569992  53.4429978 128.9530014
  14.3489992  54.9519978 129.0210014  14.1330266  54.1615190 129.3152479
  15.1919992  52.0509978 127.9460014  14.9339992  51.3609978 127.3350014
  15.2629992  51.6079978 128.7920014  15.1662837  51.8967106 127.9766912
  16.8779992  50.6179978 136.4240014  17.0169992  50.0259978 135.6840014
  17.0449992  51.4909978 136.0670014  16.9195562  50.6549896 136.2746283
  11.3499992  47.5799978 126.1960014  10.6389992  48.1149978 125.8440014
  12.0409992  47.6349978 125.5360014  11.3460751  47.6606777 126.0585858
  11.4039992  46.0369978 123.2350014  12.1049992  46.0599978 123.8860014
  11.7059992  45.4089978 122.5790014  11.5408282  45.9552339 123.2354496
  18.7189992  46.9579978 134.4900014  18.0669992  47.6519978 134.5790014
  19.1849992  47.1679978 133.6800014  18.6925937  47.0815019 134.3927533
  14.7559992  47.7889978 127.1480014  14.0239992  48.0179978 127.7210014
  15.2029992  47.0759978 127.6030014  14.7162753  47.7238972 127.2879715
  14.6529992  45.9639978 136.2160014  14.7329992  46.7269978 136.7870014
  14.0519992  46.2429978 135.5250014  14.5827245  46.1062630 136.2008424
   6.4009992  48.4199978 129.0300014   6.0709992  48.0489978 128.2120014
   6.9899992  47.7489978 129.3770014   6.4353970  48.2786063 128.9649404
   7.7679992  51.8479978 131.7120014   7.6729992  51.2689978 130.9550014
   8.4969992  51.4769978 132.2080014   7.8536161  51.7185891 131.6755209
   6.7679992  47.1879978 132.6640014   7.3329992  47.3099978 131.9010014
   7.0869992  47.8259978 133.3030014   6.8883977  47.2908851 132.6459424
  13.0769992  52.6919978 133.3980014  12.8369992  53.3539978 134.0460014
  12.8789992  51.8569978 133.8230014  13.0173826  52.6698115 133.5441566
   7.6479992  51.5879978 137.3810014   7.3369992  52.3699978 137.8360014
   6.9979992  51.4349978 136.6950014   7.5175538  51.6744087 137.3505898
  13.6269992  46.9519978 124.8330014  14.2059992  47.1019978 125.5800014
  14.0409992  47.4219978 124.1100014  13.7623122  47.0361277 124.8375042
   4.5679992  47.7859978 136.6100014   4.6379992  48.4369978 137.3080014
   3.6769992  47.8889978 136.2750014   4.4571802  47.8889757 136.6602249
  11.3529992  53.6879978 128.2680014  11.8269992  53.9839978 129.0460014
  10.7899992  54.4269978 128.0350014  11.3417361  53.8282721 128.3428611
   5.8869992  53.6589978 138.1440014   5.8949992  53.5229978 137.1970014
   4.9709992  53.5419978 138.3960014   5.7642528  53.6245463 138.0483243
  17.3259992  38.7019978 124.6460014  16.4259992  38.8409978 124.9410014
  17.5779992  39.5329978 124.2440014  17.2368683  38.8334055 124.6320232
   5.3919992  47.4889978 126.6200014   5.0999992  48.2569978 126.1290014
   4.7169992  46.8299978 126.4570014   5.2608497  47.5049745 126.5308260
  18.5149992  53.0679978 123.0220014  18.5879992  54.0069978 123.1930014
  19.4199992  52.7629978 122.9660014  18.6474158  53.1553061 123.0378392
   1.4849992  49.8519978 135.4350014   0.9829992  49.8239978 134.6200014
   1.4899992  48.9469978 135.7440014   1.4170416  49.7257368 135.3653766
   1.2349992  52.6329978 132.3190014   2.1809992  52.4879978 132.3000014
   1.1219992  53.4169978 132.8560014   1.3493578  52.7191697 132.3890317
  19.4329992  53.2989978 138.0010014  19.3829992  52.3429978 137.9640014
  18.6059992  53.5659978 138.4020014  19.3143987  53.2045174 138.0501446
  10.4109992  52.8729978 136.8770014  10.4989992  53.6989978 137.3520014
   9.5479992  52.5429978 137.1260014  10.3063357  52.9415468 136.9757653
  10.8259992  56.6449978 126.6830014  10.7499992  56.5239978 125.7370014
  10.8579992  57.5939978 126.8020014  10.8199156  56.7567530 126.5695048
   4.4789992  55.4339978 128.4640014   4.6309992  55.0859978 129.3430014
   3.6279992  55.0769978 128.2090014   4.3847899  55.3381738 128.5497340
  13.9269992  55.7989978 123.6850014  14.3019992  55.0549978 123.2150014
  13.9319992  55.5289978 124.6040014  13.9790024  55.6606950 123.7447987
  13.5959992  55.7249978 126.4350014  12.6609992  55.8249978 126.6130014
  13.8759992  55.0149978 127.0130014  13.5058173  55.6427239 126.5374998
  16.5849992  44.7919978 138.4810014  16.1769992  45.2719978 137.7610014
  16.6249992  43.8859978 138.1730014  16.5345476  44.7353160 138.3408247
   3.7339992  51.1759978 136.4780014   3.9499992  50.8139978 137.3370014
   2.8779992  50.8009978 136.2680014   3.6479354  51.0757906 136.5672160
   6.3519992  39.6459978 132.4730014   5.4909992  39.5589978 132.0660014
   6.3299992  40.5019978 132.9010014   6.2310411  39.7497884 132.4750857
  11.0149992  39.3679978 135.8480014  11.4349992  38.9529978 136.6010014
  10.0819992  39.1889978 135.9650014  10.9463736  39.2869910 135.9668968
  14.3419992  43.1229978 136.7010014  13.8279992  42.9979978 137.4990014
  14.1859992  44.0359978 136.4570014  14.2506967  43.2292123 136.7770937
  15.1039992  47.9839978 122.4630014  15.1459992  47.7619978 121.5330014
  15.9529992  48.3829978 122.6530014  15.2245253  48.0075498 122.3613822
  10.6769992  41.8599978 123.1330014  10.4229992  41.8789978 124.0560014
  10.4199992  40.9889978 122.8320014  10.6075133  41.7448110 123.2185082
   6.4429992  44.6109978 133.5680014   5.8019992  44.5709978 134.2770014
   6.4809992  45.5379978 133.3310014   6.3603670  44.7307795 133.6330550
   6.4399992  44.8319978 128.4800014   5.5479992  44.4919978 128.4220014
   6.8909992  44.4549978 127.7250014   6.3786815  44.7343762 128.3699203
  11.9759992  45.2479978 127.2970014  11.5669992  46.0629978 127.0060014
  12.6959992  45.1079978 126.6830014  12.0174013  45.3406571 127.1740875
  11.0779992  45.4239978 138.7850014  10.5149992  44.7189978 139.1060014
  11.9039992  45.3029978 139.2530014  11.1126674  45.3112165 138.8921751
  12.9809992  44.6939978 130.1110014  12.7849992  45.2999978 129.3960014
  13.1619992  43.8609978 129.6770014  12.9786584  44.6642513 129.9544212
   4.1929992  44.9319978 135.4350014   4.1549992  45.3319978 136.3040014
   3.7029992  44.1149978 135.5260014   4.1215621  44.8762510 135.5661377
   7.5589992  42.3059978 122.2340014   7.1279992  41.8609978 122.9640014
   6.8409992  42.6769978 121.7220014   7.4029363  42.2952968 122.2646211
   0.8019992  42.0479978 129.2860014   1.4319992  42.0189978 130.0050014
   1.2509992  41.6229978 128.5560014   0.9490692  41.9865316 129.2857771
   2.0759992  42.7939978 124.7100014   2.5499992  43.3849978 124.1250014
   1.3579992  43.3239978 125.0570014   2.0438640  42.9465511 124.6767969
  12.2449992  46.3319978 134.7830014  12.5679992  45.7009978 134.1400014
  11.8039992  45.7979978 135.4430014  12.2295789  46.1733522 134.7842232
   9.0219992  42.2599978 129.5670014   8.1109992  42.3169978 129.8550014
   9.5269992  42.1999978 130.3770014   8.9655387  42.2596870 129.7160646
   3.8499992  43.8889978 128.3930014   2.9609992  43.9879978 128.0530014
   4.1469992  43.0469978 128.0470014   3.7684177  43.7887687 128.2996940
   7.5029992  43.8889978 126.0500014   8.4349992  44.0179978 126.2280014
   7.2879992  44.5579978 125.4000014   7.6014472  43.9970806 125.9864891
  13.4269992  41.4949978 132.8310014  12.7499992  41.6259978 133.4950014
  12.9419992  41.3399978 132.0210014  13.2687265  41.4919659 132.8123397
   6.1769992  45.0829978 123.6170014   5.6349992  44.7039978 122.9250014
   7.0109992  45.2779978 123.1880014   6.2155159  45.0575076 123.4644419
  16.7149992  57.1659978 139.1080014  16.9139992  57.5899978 138.2730014
  17.3699992  57.5099978 139.7150014  16.8308501  57.2706091 139.0757097
   4.3129992  49.6399978 138.7160014   5.0449992  49.8949978 139.2770014
   3.5319992  49.8449978 139.2310014   4.3077684  49.7026468 138.8624782
  10.3419992  45.0469978 131.4540014  10.9059992  44.5009978 130.9070014
  10.1939992  44.5259978 132.2420014  10.3992575  44.9016552 131.4856987
   5.3439992  41.1839978 127.8720014   5.0269992  40.2809978 127.8370014
   6.1249992  41.1859978 127.3190014   5.4062307  41.0606951 127.7924314
   8.9679992  43.4359978 133.8680014   8.1329992  43.8899978 133.9780014
   9.4919992  43.7119978 134.6200014   8.9245070  43.5354666 133.9847152
   9.5129992  49.6489978 125.5520014   8.7679992  49.1409978 125.2300014
   9.3779992  49.6979978 126.4990014   9.3929047  49.5861596 125.6358845
  16.6629992  48.7819978 134.3390014  17.3039992  49.2379978 133.7950014
  15.8319992  48.8949978 133.8770014  16.6385171  48.8597502 134.2020237
  13.4099992  42.4629978 123.7520014  12.4719992  42.5739978 123.6000014
  13.7079992  43.3189978 124.0580014  13.3216402  42.5940621 123.7725571
  11.0319992  49.8329978 136.7890014  10.6859992  49.4509978 137.5960014
  10.8319992  50.7659978 136.8610014  10.9576523  49.9069095 136.9090735
  14.1289992  44.3299978 125.4120014  15.0209992  44.1919978 125.7310014
  14.1849992  45.1209978 124.8760014  14.2587107  44.4180526 125.3832091
   4.6369992  48.9439978 131.3220014   5.3819992  48.9409978 130.7210014
   4.7149992  48.1199978 131.8040014   4.7494158  48.8322916 131.3049153
  11.6379992  51.1069978 124.5780014  11.3429992  51.9339978 124.9590014
  10.9349992  50.4879978 124.7740014  11.5025471  51.1365227 124.6566698
   1.6449992  47.4039978 136.6370014   1.8679992  46.9859978 137.4690014
   1.0429992  46.7919978 136.2140014   1.5941260  47.2639933 136.6937320
   8.6619992  46.9209978 138.8500014   8.3659992  46.7559978 137.9550014
   9.5929992  46.7009978 138.8390014   8.7473982  46.8686578 138.7260045
  13.2819992  52.2949978 136.7400014  12.3819992  52.4779978 136.4720014
  13.3159992  52.5539978 137.6610014  13.1632909  52.3550815 136.8277852
  19.0139992  44.5389978 125.1070014  18.4589992  44.1429978 124.4350014
  19.1139992  45.4499978 124.8290014  18.9515888  44.6078990 124.9775206
  18.9769992  50.3399978 137.9440014  18.1259992  50.5779978 137.5770014
  19.5669992  50.3229978 137.1910014  18.9402408  50.3702966 137.7918879
  17.3089992  53.3249978 125.5720014  16.9359992  52.4999978 125.8810014
  17.5859992  53.1419978 124.6750014  17.2953871  53.1872441 125.4929677
  14.4689992  48.1329978 132.5930014  13.5409992  47.9019978 132.5660014
  14.9199992  47.3559978 132.2630014  14.4028165  47.9962774 132.5446790
   7.0119992  52.4619978 128.7260014   7.5399992  53.2349978 128.5260014
   6.1319992  52.6859978 128.4250014   6.9653176  52.5983161 128.6578409
   2.7669992  47.3239978 123.3140014   3.3829992  47.9509978 123.6930014
   1.9049992  47.6399978 123.5850014   2.7348195  47.4525798 123.4025386
   8.4399992  50.1249978 128.3030014   8.1989992  51.0499978 128.3440014
   7.6989992  49.6659978 128.6990014   8.3068390  50.1896403 128.3621404
   8.9539992  54.2739978 134.6180014   9.3169992  55.1279978 134.3840014
   9.4859992  53.9819978 135.3580014   9.0756090  54.3514058 134.6860219
   7.1229992  55.1459978 127.8480014   6.1729992  55.2519978 127.8990014
   7.4749992  55.9669978 128.1930014   7.0405480  55.2714438 127.9015999
  12.4979992  50.3729978 134.3180014  12.0729992  50.1449978 135.1450014
  13.0789992  49.6339978 134.1360014  12.5183930  50.2419843 134.4064732
  14.7009992  51.3019978 123.3920014  15.0549992  50.9219978 124.1970014
  13.7529992  51.2079978 123.4790014  14.6211820  51.2373092 123.5138714
  15.1569992  54.9249978 136.7880014  14.5549992  54.3689978 136.2920014
  15.4379992  55.5919978 136.1620014  15.1126829  54.9391613 136.6355443
  19.2049992  55.7809978 123.5930014  19.9489992  56.3669978 123.4530014
  18.5109992  56.3499978 123.9270014  19.2130201  55.9380603 123.6189772
   3.2789992  42.1579978 136.1950014   2.3869992  42.4959978 136.1280014
   3.1809992  41.3019978 136.6130014   3.1434965  42.0886499 136.2423044
  15.5669992  49.9739978 125.6190014  15.2899992  49.2459978 126.1750014
  16.4949992  50.0929978 125.8240014  15.6544499  49.8904213 125.7228044
   2.9309992  53.9619978 134.6300014   3.1479992  53.0299978 134.5990014
   3.1769992  54.2369978 135.5130014   2.9939809  53.8715686 134.7451691
   8.7919992  52.4139978 121.8390014   9.0309992  51.6649978 121.2920014
   8.5229992  52.0259978 122.6720014   8.7883233  52.2591853 121.8767809
   7.7289992  51.9839978 124.2960014   7.8759992  51.4639978 125.0860014
   7.7259992  52.8909978 124.6020014   7.7487300  52.0353964 124.4455895
   4.1819992  49.2359978 124.8060014   3.4959992  49.5889978 125.3730014
   4.7049992  49.9989978 124.5600014   4.1589033  49.3873746 124.8502661
  12.0139992  41.8989978 135.0850014  12.7129992  41.9729978 135.7350014
  11.6329992  41.0339978 135.2390014  12.0582097  41.7922389 135.1947997
  12.7979992  41.5509978 126.1820014  13.0179992  42.0219978 125.3790014
  13.3569992  41.9449978 126.8520014  12.9036730  41.6687432 126.1625906
  10.4669992  53.6809978 125.0450014   9.6499992  54.1779978 125.0970014
  10.9959992  54.1569978 124.4050014  10.4268508  53.8132543 124.9656035
   9.9979992  43.2789978 127.0170014  10.8099992  43.7829978 127.0630014
   9.7539992  43.1339978 127.9310014  10.0761467  43.3283749 127.1468575
  10.5339992  44.2649978 136.2020014  10.6529992  44.8389978 136.9590014
  11.1889992  43.5769978 136.3160014  10.6389146  44.2505574 136.3211314
  10.8819992  40.3599978 127.9550014  10.5349992  40.9769978 128.6000014
  11.5409992  40.8609978 127.4740014  10.9235949  40.5121099 127.9782271
   7.8049992  54.7249978 125.0270014   7.9659992  55.5249978 124.5260014
   7.6079992  55.0319978 125.9120014   7.8003919  54.8759129 125.0781006
   6.5399992  41.4229978 124.6420014   6.4559992  42.3109978 124.9890014
   7.4299992  41.1579978 124.8740014   6.6488163  41.5087179 124.7208596
  16.7379992  42.1719978 137.0370014  15.8219992  42.4339978 136.9490014
  17.0739992  42.1689978 136.1400014  16.6579789  42.2074626 136.9037847
  15.3409992  45.9219978 131.1320014  14.5429992  45.5069978 130.8040014
  15.7859992  45.2319978 131.6230014  15.2919684  45.7718628 131.1535227
   4.7979992  51.8499978 123.7030014   5.3899992  52.5499978 123.9790014
   5.2569992  51.4169978 122.9830014   4.9410791  51.8872908 123.6434607
   3.1139992  44.5149978 122.8190014   3.0689992  45.4539978 122.9970014
   2.2259992  44.2789978 122.5490014   2.9878555  44.6116874 122.8068939
  16.4269992  55.1779978 132.7550014  16.2709992  55.8569978 132.0980014
  17.3599992  55.2499978 132.9580014  16.5317387  55.2806390 132.6925342
   3.9219992  39.2959978 131.4920014   3.6929992  39.3549978 130.5640014
   3.4799992  38.5049978 131.7980014   3.8308801  39.1970540 131.4064729
   2.8529992  53.2369978 127.6520014   2.0199992  53.7089978 127.6800014
   3.3979992  53.7469978 127.0540014   2.8127590  53.3705897 127.5749194
   2.1409992  55.8489978 138.9820014   2.6809992  55.6329978 139.7420014
   1.6599992  55.0439978 138.7930014   2.1498613  55.7105400 139.0604782
   6.7379992  54.7689978 140.6030014   7.5059992  54.3099978 140.9440014
   6.7169992  54.5429978 139.6730014   6.8402135  54.6756668 140.5239491
  10.8299992  54.2769978 121.9780014  10.1859992  53.6459978 122.2990014
  11.5919992  53.7459978 121.7460014  10.8448058  54.1187902 121.9906038
  13.3149992  53.1489978 139.3320014  12.9639992  52.2919978 139.5750014
  14.0409992  53.2909978 139.9390014  13.3651590  53.0510178 139.4472907
  15.4349992  54.0939978 122.2120014  15.7179992  53.2989978 122.6640014
  16.1739992  54.3269978 121.6510014  15.5736956  54.0167031 122.1979822
   2.0479992  49.6599978 139.9370014   2.1919992  48.7579978 139.6500014
   1.2759992  49.9459978 139.4490014   1.9633303  49.5753243 139.8317908
   6.3889992  50.0029978 122.0690014   6.4539992  49.2089978 122.6000014
   7.0419992  49.8849978 121.3790014   6.4861754  49.8783337 122.0484259
   8.7029992  49.6289978 139.3690014   8.3749992  49.8999978 138.5120014
   8.8549992  48.6879978 139.2820014   8.6786030  49.5388973 139.2397945
  11.7419992  51.0499978 121.8050014  11.4729992  51.2309978 122.7060014
  11.5349992  50.1249978 121.6740014  11.6772000  50.9496774 121.9105693
  14.4379992  49.5449978 136.7530014  15.1829992  50.1339978 136.6330014
  13.6809992  50.1269978 136.8160014  14.4375205  49.7041997 136.7451119
   2.8809992  46.8599978 139.3570014   3.2889992  46.0029978 139.2360014
   2.6199992  46.8739978 140.2780014   2.9016016  46.7445119 139.4649192
   7.5389992  47.9759978 124.3750014   7.0789992  47.4919978 125.0610014
   7.7939992  47.3069978 123.7390014   7.5105038  47.8193689 124.3829447
   6.8279992  45.8689978 136.7310014   6.2089992  46.5429978 137.0110014
   7.1719992  46.1899978 135.8980014   6.7897605  46.0047198 136.6566707
   8.6099992  46.2189978 122.6370014   8.4289992  46.0639978 121.7100014
   9.5599992  46.3269978 122.6820014   8.7136566  46.2123669 122.5160929
  11.8469992  48.3399978 140.0080014  12.8009992  48.4239978 139.9810014
  11.6869992  47.6279978 140.6280014  11.9557182  48.2552842 140.0880733
  17.9999992  48.5729978 122.0830014  17.7259992  48.1489978 121.2700014
  18.0389992  49.5049978 121.8660014  17.9677716  48.6408827 121.9424286
   7.1669992  43.2239978 137.8130014   7.3169992  42.4949978 137.2110014
   7.1689992  44.0009978 137.2540014   7.1877967  43.2292708 137.6550541
   7.5799992  41.5929978 135.3060014   8.1149992  42.0449978 134.6540014
   6.7269992  41.4849978 134.8830014   7.5380374  41.6402665 135.1596710
   9.1609992  47.0329978 135.5450014   9.9119992  46.8769978 134.9720014
   8.8219992  47.8849978 135.2700014   9.2179587  47.1268138 135.4294078
  13.5769992  44.8479978 140.5740014  13.7689992  43.9169978 140.4620014
  14.4349992  45.2729978 140.5640014  13.7192269  44.7779928 140.5573192
  14.8939992  47.6369978 138.6510014  14.6119992  48.3459978 138.0740014
  15.8359992  47.5639978 138.5000014  14.9827656  47.7243128 138.5514809
   5.6459992  44.4219978 139.7250014   4.8779992  43.8889978 139.5150014
   6.3239992  44.1119978 139.1250014   5.6326973  44.3072375 139.6151796
   8.3849992  39.0499978 135.7370014   8.2869992  39.9959978 135.6320014
   7.6429992  38.6769978 135.2620014   8.2711913  39.1291813 135.6583539
   9.6489992  43.3709978 139.3010014   9.4139992  43.1519978 140.2030014
   8.8659992  43.1639978 138.7910014   9.5109219  43.3130066 139.3555852
  12.3649992  42.4989978 138.3770014  11.4169992  42.5309978 138.5090014
  12.6769992  41.8729978 139.0300014  12.2775190  42.4187262 138.4833564
  13.9989992  41.1329978 140.3820014  13.9019992  40.1809978 140.3760014
  13.6769992  41.4009978 141.2420014  13.9421761  41.0389744 140.4974936
   3.8259992  42.3419978 139.4290014   4.0379992  41.6359978 138.8190014
   3.7149992  41.9049978 140.2730014   3.8400269  42.1861921 139.4595873
   8.6069992  38.3439978 138.4090014   9.3189992  37.7039978 138.3950014
   8.5059992  38.6099978 137.4950014   8.6907261  38.2924190 138.2835537
   8.9609992  40.0259978 140.4620014   8.8289992  39.5509978 139.6420014
   8.3609992  40.7709978 140.4070014   8.8619070  40.0615789 140.3423251
   8.5069992  56.9089978 123.6390014   9.4399992  57.0669978 123.7820014
   8.2429992  57.5849978 123.0140014   8.5989308  57.0219104 123.5741396
   2.0749992  51.5459978 123.1210014   2.9889992  51.6249978 123.3950014
   2.0829992  50.8589978 122.4550014   2.2011143  51.4639085 123.0684274
   0.7239992  56.9389978 128.1990014   0.0769992  56.4769978 127.6660014
   1.0789992  56.2669978 128.7810014   0.6834506  56.7849503 128.2047341
   1.5939992  55.0189978 130.0030014   1.2599992  54.1389978 130.1750014
   1.8169992  55.3649978 130.8680014   1.5783721  54.9451938 130.1434168
  19.1429992  55.8289978 132.9840014  19.1209992  56.0139978 133.9230014
  19.8329992  56.3969978 132.6430014  19.2333439  55.9311887 133.0664791
  18.7059992  55.3959978 135.9060014  18.2189992  54.6609978 135.5350014
  19.2549992  55.0019978 136.5840014  18.7135247  55.2421057 135.9468461
  17.1569992  51.1859978 140.5440014  16.2909992  51.0809978 140.9380014
  17.5329992  51.9439978 140.9900014  17.0893401  51.2741708 140.6582620
  18.4579992  49.4419978 126.0580014  19.3079992  49.8629978 126.1850014
  18.4629992  48.7019978 126.6650014  18.5751143  49.3996094 126.1574750
  18.8519992  47.4959978 127.8820014  18.1259992  47.0159978 128.2790014
  19.4339992  47.7009978 128.6140014  18.8311635  47.4579166 128.0353748
  18.6109992  50.2809978 132.8290014  19.4449992  49.9029978 132.5490014
  18.7229992  51.2239978 132.7100014  18.7402522  50.3567742 132.7746020
  17.0979992  53.1589978 135.1360014  16.4499992  53.4839978 135.7620014
  16.5799992  52.7179978 134.4620014  16.9394168  53.1438523 135.1305307
  19.1209992  47.3969978 124.2730014  18.5989992  47.7529978 123.5540014
  19.0879992  48.0719978 124.9510014  19.0450699  47.5369848 124.2662129
  17.4699992  44.6359978 122.8240014  17.5659992  45.3029978 122.1440014
  17.3299992  43.8209978 122.3420014  17.4642063  44.6170667 122.6658377
  16.6389992  46.0169978 128.4450014  16.4889992  45.0719978 128.4240014
  16.2849992  46.2979978 129.2880014  16.5705527  45.9255605 128.5561859
   1.6739992  48.0949978 132.4550014   1.8589992  48.0129978 131.5190014
   2.5239992  47.9709978 132.8790014   1.8140916  48.0670393 132.3842896
  17.4949992  47.9869978 138.0830014  18.0779992  47.2519978 138.2750014
  18.0589992  48.7589978 138.1300014  17.6509781  47.9908145 138.1156164
  18.9919992  45.8899978 138.7680014  18.1289992  45.5109978 138.6020014
  19.5959992  45.1509978 138.6940014  18.9555944  45.7382978 138.7352984
  16.7169992  42.0439978 121.9410014  17.3279992  41.6729978 122.5780014
  15.8799992  41.6229978 122.1370014  16.6874947  41.9362756 122.0547252
  16.3499992  43.5989978 126.9070014  16.6289992  42.6919978 127.0310014
  17.1089992  44.0329978 126.5180014  16.4908619  43.5334502 126.8713795
  16.9609992  44.1809978 132.3430014  17.8939992  44.3929978 132.3090014
  16.7259992  44.2819978 133.2650014  17.0568308  44.2236503 132.4630214
  16.9909992  44.9179978 135.1190014  16.1479992  45.1859978 135.4850014
  17.4329992  45.7399978 134.9080014  16.9354138  45.0658273 135.1405518
   1.2719992  43.3649978 138.5960014   2.1909992  43.2429978 138.8320014
   0.8219992  42.6149978 138.9850014   1.3371148  43.2468751 138.6809408
  19.2739992  38.8979978 140.4720014  19.6229992  38.2439978 139.8670014
  19.4209992  39.7349978 140.0330014  19.3417355  38.9216067 140.3296564
  16.9629992  40.8619978 126.9550014  17.1449992  40.4129978 127.7810014
  16.3629992  40.2779978 126.4920014  16.9067529  40.7216131 127.0053619
   2.4929992  41.6779978 131.4870014   2.9379992  40.8859978 131.7890014
   2.9589992  42.3939978 131.9180014   2.6169059  41.6664474 131.5866079
   0.7969992  44.6769978 132.5560014   1.2889992  44.4559978 131.7650014
   1.1589992  45.5169978 132.8370014   0.9132923  44.7603468 132.4857407
  18.7929992  41.0069978 138.8220014  17.8759992  41.2779978 138.7860014
  18.9159992  40.4719978 138.0380014  18.6840828  40.9717700 138.7110785
  18.8299992  40.9299978 123.4830014  19.2419992  40.2089978 123.0080014
  19.5109992  41.5989978 123.5420014  18.9785900  40.9217306 123.4259038
   1.1109992  40.9349978 126.6100014   0.1859992  41.1429978 126.4810014
   1.5649992  41.4189978 125.9210014   1.0456374  41.0289949 126.4990957
  15.8809992  55.9189978 128.5560014  16.5339992  55.5709978 127.9480014
  16.3919992  56.4069978 129.2020014  16.0392777  55.9373815 128.5602047
   1.0739992  39.6729978 134.9550014   0.4089992  39.4269978 135.5980014
   0.6309992  40.2949978 134.3770014   0.9230937  39.7233614 134.9649379
   3.2659992  52.8479978 139.0990014   2.4449992  53.0229978 138.6390014
   3.0139992  52.7749978 140.0200014   3.1196173  52.8620794 139.1604972
   6.2199992  53.8219978 135.3580014   5.7959992  54.6319978 135.0750014
   7.1249992  53.9079978 135.0560014   6.2842433  53.9443331 135.2785377
  10.5319992  55.2209978 138.3170014  10.7159992  54.8879978 139.1950014
  11.3779992  55.5309978 137.9950014  10.6716484  55.2172979 138.3937617
  12.8769992  56.5069978 137.5610014  13.5539992  55.8739978 137.3210014
  13.1979992  56.9079978 138.3680014  13.0131323  56.4745691 137.6373158
  17.7939992  39.0969978 136.6410014  16.9809992  39.4219978 136.2530014
  18.0269992  38.3359978 136.1080014  17.7142566  39.0386559 136.5159213
   3.6219992  57.0789978 135.4050014   2.9019992  57.5189978 134.9540014
   3.2569992  56.8279978 136.2540014   3.4739796  57.1053824 135.4579329
   6.0889992  56.6789978 134.4350014   5.2249992  56.7509978 134.8390014
   6.0339992  57.2259978 133.6510014   5.9631942  56.7627849 134.3844000
  10.7999992  56.5669978 133.6100014  10.3429992  57.0959978 132.9560014
  10.9629992  57.1699978 134.3360014  10.7594476  56.7209140 133.6185499
  13.1279992  55.4449978 134.5550014  12.2229992  55.6099978 134.2900014
  13.5559992  56.2979978 134.4900014  13.0620700  55.5829529 134.5099520
  15.7319992  57.0149978 134.8500014  15.5499992  57.9309978 134.6400014
  15.9089992  56.6039978 134.0040014  15.7309907  57.0849741 134.7067883
   3.0369992  55.7019978 132.3150014   3.0189992  55.2759978 133.1730014
   3.8419992  55.3829978 131.9070014   3.1433221  55.6007233 132.3770225
   5.1779992  54.4119978 130.9700014   4.9589992  53.4949978 131.1400014
   6.0019992  54.5519978 131.4360014   5.2594702  54.3055511 131.0562527
   7.7149992  54.8819978 131.8190014   7.9279992  53.9939978 131.5320014
   7.7799992  54.8469978 132.7740014   7.7529075  54.7558307 131.9087373
  11.2239992  40.5459978 130.9630014  10.5499992  39.9159978 131.2190014
  11.7879992  40.0619978 130.3600014  11.2080384  40.3943708 130.9165020
  16.3669992  38.6529978 131.0760014  16.9699992  39.2009978 130.5740014
  15.4969992  38.9719978 130.8360014  16.3319190  38.7711041 130.9748679
  18.0939992  39.7919978 129.4090014  18.7049992  39.2779978 128.8830014
  18.4759992  40.6689978 129.4330014  18.2294475  39.8401323 129.3401208
   3.5509992  39.1799978 128.7850014   2.7739992  38.9449978 128.2780014
   4.0809992  38.3829978 128.7940014   3.5163451  39.0401268 128.7168627
   2.3869992  38.9779978 124.5890014   2.8259992  39.5889978 123.9970014
   1.7529992  39.5159978 125.0630014   2.3613859  39.1344064 124.5720305
   8.1299992  39.1059978 128.5990014   9.0039992  39.4949978 128.5690014
   7.9939992  38.8909978 129.5210014   8.2313207  39.1301923 128.7196509
  13.6869992  39.1359978 130.2480014  13.7629992  39.2319978 129.2990014
  13.4119992  38.2289978 130.3770014  13.6602042  39.0264241 130.1353811
  15.0399992  39.1619978 125.9400014  14.3369992  39.7769978 125.7310014
  14.5949992  38.3249978 126.0720014  14.8836292  39.1330085 125.9292439
   2.2879992  54.9259978 125.4870014   1.6029992  54.8879978 124.8190014
   2.2919992  55.8389978 125.7750014   2.1948174  55.0441998 125.4345310
   4.2479992  40.8939978 123.0310014   4.7389992  40.2639978 122.5040014
   4.8709992  41.1899978 123.6950014   4.3995062  40.8476770 123.0485438
   9.2739992  41.1869978 125.4890014   9.4519992  40.5399978 126.1710014
   9.2199992  42.0209978 125.9560014   9.2911025  41.2110504 125.6456433
  11.1519992  56.1349978 123.8840014  12.0179992  56.5019978 123.7060014
  10.9059992  55.6959978 123.0700014  11.2372097  56.1258525 123.7496019
  17.8609992  55.6979978 126.5630014  17.6669992  54.9499978 125.9980014
  17.8219992  56.4559978 125.9800014  17.8291645  55.6980786 126.4068148
   3.5079992  39.6939978 138.3030014   3.1419992  38.9279978 138.7460014
   4.4209992  39.7229978 138.5900014   3.5813225  39.5931906 138.4023459
   5.4809992  39.0439978 139.8390014   6.3799992  38.7699978 139.6540014
   5.0949992  38.3019978 140.3030014   5.5517237  38.9061508 139.8764710
   4.1059992  55.8459978 122.5120014   3.8379992  56.1319978 123.3850014
   4.8769992  55.2999978 122.6640014   4.1735600  55.8113330 122.6521499
  13.9029992  38.3769978 140.0210014  13.9789992  37.9509978 140.8750014
  14.7959992  38.3899978 139.6780014  14.0342267  38.3203952 140.0915932
  17.0789992  54.4499978 138.7130014  16.2969992  54.2629978 138.1940014
  17.0069992  55.3789978 138.9310014  16.9620863  54.5500221 138.6713574
  31.4849992  48.3359978 128.7440014  31.5739992  49.2799978 128.6120014
  30.8469992  48.0609978 128.0860014  31.4109062  48.4279812 128.6369641
  30.4179992  47.5909978 132.1630014  30.3799992  46.9449978 132.8680014
  30.0959992  47.1239978 131.3920014  30.3692679  47.4394276 132.1552921
  22.7859992  47.2049978 133.7560014  22.8279992  46.5799978 134.4790014
  23.4889992  47.8289978 133.9380014  22.8867345  47.2037873 133.8795274
  34.1239992  50.5299978 130.4650014  33.6829992  49.8099978 130.9150014
  34.1109992  51.2509978 131.0940014  34.0617960  50.5288329 130.6117567
  23.7099992  51.6549978 132.2910014  23.3399992  50.8529978 131.9210014
  24.6509992  51.4869978 132.3370014  23.7865984  51.5224638 132.2465603
  20.3199992  45.3149978 127.6840014  19.8719992  46.1609978 127.6650014
  19.7589992  44.7359978 127.1680014  20.1829603  45.3523674 127.6116720
  21.0299992  47.4769978 129.8100014  21.2439992  46.7069978 130.3370014
  21.7679992  47.5669978 129.2060014  21.1589652  47.3838012 129.8005212
  31.2359992  55.6339978 130.6770014  31.8549992  54.9579978 130.4030014
  31.0269992  55.4159978 131.5850014  31.2926232  55.5117938 130.7622517
  28.8069992  50.0229978 132.5690014  29.1109992  49.3369978 131.9750014
  29.5289992  50.1419978 133.1870014  28.9461152  49.9452189 132.5712123
  37.4699992  41.6249978 133.4300014  37.5199992  42.2349978 134.1660014
  37.8959992  42.0859978 132.7070014  37.5344108  41.7707709 133.4330112
  31.9479992  44.4169978 132.8970014  32.0909992  43.4709978 132.9170014
  31.8419992  44.6239978 131.9680014  31.9532509  44.3154813 132.7742231
  25.1029992  42.5189978 130.1690014  25.1459992  43.3789978 129.7510014
  24.6449992  41.9669978 129.5350014  25.0469815  42.5620621 130.0261197
  32.8249992  42.6499978 128.5700014  33.4719992  42.3209978 129.1950014
  33.3349992  43.1669978 127.9470014  32.9824317  42.6749227 128.5712167
  21.7229992  44.9159978 130.9310014  22.3769992  44.3659978 131.3630014
  21.7469992  44.6419978 130.0140014  21.8157199  44.8037167 130.8661668
  26.8799992  46.4659978 130.1460014  27.4959992  45.9389978 130.6560014
  26.2929992  45.8259978 129.7430014  26.8849239  46.3074117 130.1612952
  37.8619992  43.1029978 135.6660014  37.1729992  43.7609978 135.5700014
  37.8769992  42.9049978 136.6020014  37.7696740  43.1663242 135.7794630
  23.9129992  41.4369978 134.2430014  23.6939992  41.9669978 133.4770014
  23.2449992  41.6629978 134.8900014  23.7927001  41.5401154 134.2256064
  31.2819992  50.9369978 127.7870014  30.9869992  50.6139978 126.9360014
  30.9579992  51.8369978 127.8280014  31.1977983  51.0144026 127.6759771
  26.4819992  49.1119978 134.5310014  25.7419992  49.7109978 134.6340014
  27.1959992  49.6659978 134.2150014  26.4773288  49.2687356 134.5023805
  34.5889992  41.9409978 130.5500014  34.3739992  41.1749978 131.0830014
  35.2449992  42.4129978 131.0630014  34.6482673  41.9000728 130.6921990
  23.5069992  43.3289978 132.1950014  24.1209992  43.9619978 132.5690014
  24.0189992  42.8569978 131.5390014  23.6602277  43.3517352 132.1574279
  24.8899992  51.0769978 135.3180014  24.8839992  51.9559978 134.9400014
  24.0359992  50.9929978 135.7430014  24.7737925  51.1859535 135.3236887
  21.0109992  50.7479978 126.1000014  20.7389992  50.9769978 125.2110014
  21.0559992  51.5849978 126.5600014  20.9798709  50.8926058 126.0406107
  34.6359992  52.3689978 132.8120014  33.6939992  52.4279978 132.9740014
  34.9119992  53.2749978 132.6750014  34.5445865  52.4995288 132.8156192
  34.9359992  40.6559978 134.2300014  34.1999992  41.2659978 134.1920014
  35.6199992  41.0709978 133.7030014  34.9275506  40.7956400 134.1536051
  27.9399992  38.7419978 131.6960014  27.8219992  37.7939978 131.6410014
  27.0849992  39.0749978 131.9690014  27.8082679  38.6571926 131.7253720
  32.8879992  54.1499978 129.4380014  33.3129992  53.4429978 128.9530014
  33.2049992  54.9519978 129.0210014  32.9890266  54.1615190 129.3152479
  34.0479992  52.0509978 127.9460014  33.7899992  51.3609978 127.3350014
  34.1189992  51.6079978 128.7920014  34.0222837  51.8967106 127.9766912
  35.7339992  50.6179978 136.4240014  35.8729992  50.0259978 135.6840014
  35.9009992  51.4909978 136.0670014  35.7755562  50.6549896 136.2746283
  30.2059992  47.5799978 126.1960014  29.4949992  48.1149978 125.8440014
  30.8969992  47.6349978 125.5360014  30.2020751  47.6606777 126.0585858
  30.2599992  46.0369978 123.2350014  30.9609992  46.0599978 123.8860014
  30.5619992  45.4089978 122.5790014  30.3968282  45.9552339 123.2354496
  37.5749992  46.9579978 134.4900014  36.9229992  47.6519978 134.5790014
  38.0409992  47.1679978 133.6800014  37.5485937  47.0815019 134.3927533
  33.6119992  47.7889978 127.1480014  32.8799992  48.0179978 127.7210014
  34.0589992  47.0759978 127.6030014  33.5722753  47.7238972 127.2879715
  33.5089992  45.9639978 136.2160014  33.5889992  46.7269978 136.7870014
  32.9079992  46.2429978 135.5250014  33.4387245  46.1062630 136.2008424
  25.2569992  48.4199978 129.0300014  24.9269992  48.0489978 128.2120014
  25.8459992  47.7489978 129.3770014  25.2913970  48.2786063 128.9649404
  26.6239992  51.8479978 131.7120014  26.5289992  51.2689978 130.9550014
  27.3529992  51.4769978 132.2080014  26.7096161  51.7185891 131.6755209
  25.6239992  47.1879978 132.6640014  26.1889992  47.3099978 131.9010014
  25.9429992  47.8259978 133.3030014  25.7443977  47.2908851 132.6459424
  31.9329992  52.6919978 133.3980014  31.6929992  53.3539978 134.0460014
  31.7349992  51.8569978 133.8230014  31.8733826  52.6698115 133.5441566
  26.5039992  51.5879978 137.3810014  26.1929992  52.3699978 137.8360014
  25.8539992  51.4349978 136.6950014  26.3735538  51.6744087 137.3505898
  32.4829992  46.9519978 124.8330014  33.0619992  47.1019978 125.5800014
  32.8969992  47.4219978 124.1100014  32.6183122  47.0361277 124.8375042
  23.4239992  47.7859978 136.6100014  23.4939992  48.4369978 137.3080014
  22.5329992  47.8889978 136.2750014  23.3131802  47.8889757 136.6602249
  30.2089992  53.6879978 128.2680014  30.6829992  53.9839978 129.0460014
  29.6459992  54.4269978 128.0350014  30.1977361  53.8282721 128.3428611
  24.7429992  53.6589978 138.1440014  24.7509992  53.5229978 137.1970014
  23.8269992  53.5419978 138.3960014  24.6202528  53.6245463 138.0483243
  36.1819992  38.7019978 124.6460014  35.2819992  38.8409978 124.9410014
  36.4339992  39.5329978 124.2440014  36.0928683  38.8334055 124.6320232
  24.2479992  47.4889978 126.6200014  23.9559992  48.2569978 126.1290014
  23.5729992  46.8299978 126.4570014  24.1168497  47.5049745 126.5308260
  37.3709992  53.0679978 123.0220014  37.4439992  54.0069978 123.1930014
  38.2759992  52.7629978 122.9660014  37.5034158  53.1553061 123.0378392
  20.3409992  49.8519978 135.4350014  19.8389992  49.8239978 134.6200014
  20.3459992  48.9469978 135.7440014  20.2730416  49.7257368 135.3653766
  20.0909992  52.6329978 132.3190014  21.0369992  52.4879978 132.3000014
  19.9779992  53.4169978 132.8560014  20.2053578  52.7191697 132.3890317
  38.2889992  53.2989978 138.0010014  38.2389992  52.3429978 137.9640014
  37.4619992  53.5659978 138.4020014  38.1703987  53.2045174 138.0501446
  29.2669992  52.8729978 136.8770014  29.3549992  53.6989978 137.3520014
  28.4039992  52.5429978 137.1260014  29.1623357  52.9415468 136.9757653
  29.6819992  56.6449978 126.6830014  29.6059992  56.5239978 125.7370014
  29.7139992  57.5939978 126.8020014  29.6759156  56.7567530 126.5695048
  23.3349992  55.4339978 128.4640014  23.4869992  55.0859978 129.3430014
  22.4839992  55.0769978 128.2090014  23.2407899  55.3381738 128.5497340
  32.7829992  55.7989978 123.6850014  33.1579992  55.0549978 123.2150014
  32.7879992  55.5289978 124.6040014  32.8350024  55.6606950 123.7447987
  32.4519992  55.7249978 126.4350014  31.5169992  55.8249978 126.6130014
  32.7319992  55.0149978 127.0130014  32.3618173  55.6427239 126.5374998
  35.4409992  44.7919978 138.4810014  35.0329992  45.2719978 137.7610014
  35.4809992  43.8859978 138.1730014  35.3905476  44.7353160 138.3408247
  22.5899992  51.1759978 136.4780014  22.8059992  50.8139978 137.3370014
  21.7339992  50.8009978 136.2680014  22.5039354  51.0757906 136.5672160
  25.2079992  39.6459978 132.4730014  24.3469992  39.5589978 132.0660014
  25.1859992  40.5019978 132.9010014  25.0870411  39.7497884 132.4750857
  29.8709992  39.3679978 135.8480014  30.2909992  38.9529978 136.6010014
  28.9379992  39.1889978 135.9650014  29.8023736  39.2869910 135.9668968
  33.1979992  43.1229978 136.7010014  32.6839992  42.9979978 137.4990014
  33.0419992  44.0359978 136.4570014  33.1066967  43.2292123 136.7770937
  33.9599992  47.9839978 122.4630014  34.0019992  47.7619978 121.5330014
  34.8089992  48.3829978 122.6530014  34.0805253  48.0075498 122.3613822
  29.5329992  41.8599978 123.1330014  29.2789992  41.8789978 124.0560014
  29.2759992  40.9889978 122.8320014  29.4635133  41.7448110 123.2185082
  25.2989992  44.6109978 133.5680014  24.6579992  44.5709978 134.2770014
  25.3369992  45.5379978 133.3310014  25.2163670  44.7307795 133.6330550
  25.2959992  44.8319978 128.4800014  24.4039992  44.4919978 128.4220014
  25.7469992  44.4549978 127.7250014  25.2346815  44.7343762 128.3699203
  30.8319992  45.2479978 127.2970014  30.4229992  46.0629978 127.0060014
  31.5519992  45.1079978 126.6830014  30.8734013  45.3406571 127.1740875
  29.9339992  45.4239978 138.7850014  29.3709992  44.7189978 139.1060014
  30.7599992  45.3029978 139.2530014  29.9686674  45.3112165 138.8921751
  31.8369992  44.6939978 130.1110014  31.6409992  45.2999978 129.3960014
  32.0179992  43.8609978 129.6770014  31.8346584  44.6642513 129.9544212
  23.0489992  44.9319978 135.4350014  23.0109992  45.3319978 136.3040014
  22.5589992  44.1149978 135.5260014  22.9775621  44.8762510 135.5661377
  26.4149992  42.3059978 122.2340014  25.9839992  41.8609978 122.9640014
  25.6969992  42.6769978 121.7220014  26.2589363  42.2952968 122.2646211
  19.6579992  42.0479978 129.2860014  20.2879992  42.0189978 130.0050014
  20.1069992  41.6229978 128.5560014  19.8050692  41.9865316 129.2857771
  20.9319992  42.7939978 124.7100014  21.4059992  43.3849978 124.1250014
  20.2139992  43.3239978 125.0570014  20.8998640  42.9465511 124.6767969
  31.1009992  46.3319978 134.7830014  31.4239992  45.7009978 134.1400014
  30.6599992  45.7979978 135.4430014  31.0855789  46.1733522 134.7842232
  27.8779992  42.2599978 129.5670014  26.9669992  42.3169978 129.8550014
  28.3829992  42.1999978 130.3770014  27.8215387  42.2596870 129.7160646
  22.7059992  43.8889978 128.3930014  21.8169992  43.9879978 128.0530014
  23.0029992  43.0469978 128.0470014  22.6244177  43.7887687 128.2996940
  26.3589992  43.8889978 126.0500014  27.2909992  44.0179978 126.2280014
  26.1439992  44.5579978 125.4000014  26.4574472  43.9970806 125.9864891
  32.2829992  41.4949978 132.8310014  31.6059992  41.6259978 133.4950014
  31.7979992  41.3399978 132.0210014  32.1247265  41.4919659 132.8123397
  25.0329992  45.0829978 123.6170014  24.4909992  44.7039978 122.9250014
  25.8669992  45.2779978 123.1880014  25.0715159  45.0575076 123.4644419
  35.5709992  57.1659978 139.1080014  35.7699992  57.5899978 138.2730014
  36.2259992  57.5099978 139.7150014  35.6868501  57.2706091 139.0757097
  23.1689992  49.6399978 138.7160014  23.9009992  49.8949978 139.2770014
  22.3879992  49.8449978 139.2310014  23.1637684  49.7026468 138.8624782
  29.1979992  45.0469978 131.4540014  29.7619992  44.5009978 130.9070014
  29.0499992  44.5259978 132.2420014  29.2552575  44.9016552 131.4856987
  24.1999992  41.1839978 127.8720014  23.8829992  40.2809978 127.8370014
  24.9809992  41.1859978 127.3190014  24.2622307  41.0606951 127.7924314
  27.8239992  43.4359978 133.8680014  26.9889992  43.8899978 133.9780014
  28.3479992  43.7119978 134.6200014  27.7805070  43.5354666 133.9847152
  28.3689992  49.6489978 125.5520014  27.6239992  49.1409978 125.2300014
  28.2339992  49.6979978 126.4990014  28.2489047  49.5861596 125.6358845
  35.5189992  48.7819978 134.3390014  36.1599992  49.2379978 133.7950014
  34.6879992  48.8949978 133.8770014  35.4945171  48.8597502 134.2020237
  32.2659992  42.4629978 123.7520014  31.3279992  42.5739978 123.6000014
  32.5639992  43.3189978 124.0580014  32.1776402  42.5940621 123.7725571
  29.8879992  49.8329978 136.7890014  29.5419992  49.4509978 137.5960014
  29.6879992  50.7659978 136.8610014  29.8136523  49.9069095 136.9090735
  32.9849992  44.3299978 125.4120014  33.8769992  44.1919978 125.7310014
  33.0409992  45.1209978 124.8760014  33.1147107  44.4180526 125.3832091
  23.4929992  48.9439978 131.3220014  24.2379992  48.9409978 130.7210014
  23.5709992  48.1199978 131.8040014  23.6054158  48.8322916 131.3049153
  30.4939992  51.1069978 124.5780014  30.1989992  51.9339978 124.9590014
  29.7909992  50.4879978 124.7740014  30.3585471  51.1365227 124.6566698
  20.5009992  47.4039978 136.6370014  20.7239992  46.9859978 137.4690014
  19.8989992  46.7919978 136.2140014  20.4501260  47.2639933 136.6937320
  27.5179992  46.9209978 138.8500014  27.2219992  46.7559978 137.9550014
  28.4489992  46.7009978 138.8390014  27.6033982  46.8686578 138.7260045
  32.1379992  52.2949978 136.7400014  31.2379992  52.4779978 136.4720014
  32.1719992  52.5539978 137.6610014  32.0192909  52.3550815 136.8277852
  37.8699992  44.5389978 125.1070014  37.3149992  44.1429978 124.4350014
  37.9699992  45.4499978 124.8290014  37.8075888  44.6078990 124.9775206
  37.8329992  50.3399978 137.9440014  36.9819992  50.5779978 137.5770014
  38.4229992  50.3229978 137.1910014  37.7962408  50.3702966 137.7918879
  36.1649992  53.3249978 125.5720014  35.7919992  52.4999978 125.8810014
  36.4419992  53.1419978 124.6750014  36.1513871  53.1872441 125.4929677
  33.3249992  48.1329978 132.5930014  32.3969992  47.9019978 132.5660014
  33.7759992  47.3559978 132.2630014  33.2588165  47.9962774 132.5446790
  25.8679992  52.4619978 128.7260014  26.3959992  53.2349978 128.5260014
  24.9879992  52.6859978 128.4250014  25.8213176  52.5983161 128.6578409
  21.6229992  47.3239978 123.3140014  22.2389992  47.9509978 123.6930014
  20.7609992  47.6399978 123.5850014  21.5908195  47.4525798 123.4025386
  27.2959992  50.1249978 128.3030014  27.0549992  51.0499978 128.3440014
  26.5549992  49.6659978 128.6990014  27.1628390  50.1896403 128.3621404
  27.8099992  54.2739978 134.6180014  28.1729992  55.1279978 134.3840014
  28.3419992  53.9819978 135.3580014  27.9316090  54.3514058 134.6860219
  25.9789992  55.1459978 127.8480014  25.0289992  55.2519978 127.8990014
  26.3309992  55.9669978 128.1930014  25.8965480  55.2714438 127.9015999
  31.3539992  50.3729978 134.3180014  30.9289992  50.1449978 135.1450014
  31.9349992  49.6339978 134.1360014  31.3743930  50.2419843 134.4064732
  33.5569992  51.3019978 123.3920014  33.9109992  50.9219978 124.1970014
  32.6089992  51.2079978 123.4790014  33.4771820  51.2373092 123.5138714
  34.0129992  54.9249978 136.7880014  33.4109992  54.3689978 136.2920014
  34.2939992  55.5919978 136.1620014  33.9686829  54.9391613 136.6355443
  38.0609992  55.7809978 123.5930014  38.8049992  56.3669978 123.4530014
  37.3669992  56.3499978 123.9270014  38.0690201  55.9380603 123.6189772
  22.1349992  42.1579978 136.1950014  21.2429992  42.4959978 136.1280014
  22.0369992  41.3019978 136.6130014  21.9994965  42.0886499 136.2423044
  34.4229992  49.9739978 125.6190014  34.1459992  49.2459978 126.1750014
  35.3509992  50.0929978 125.8240014  34.5104499  49.8904213 125.7228044
  21.7869992  53.9619978 134.6300014  22.0039992  53.0299978 134.5990014
  22.0329992  54.2369978 135.5130014  21.8499809  53.8715686 134.7451691
  27.6479992  52.4139978 121.8390014  27.8869992  51.6649978 121.2920014
  27.3789992  52.0259978 122.6720014  27.6443233  52.2591853 121.8767809
  26.5849992  51.9839978 124.2960014  26.7319992  51.4639978 125.0860014
  26.5819992  52.8909978 124.6020014  26.6047300  52.0353964 124.4455895
  23.0379992  49.2359978 124.8060014  22.3519992  49.5889978 125.3730014
  23.5609992  49.9989978 124.5600014  23.0149033  49.3873746 124.8502661
  30.8699992  41.8989978 135.0850014  31.5689992  41.9729978 135.7350014
  30.4889992  41.0339978 135.2390014  30.9142097  41.7922389 135.1947997
  31.6539992  41.5509978 126.1820014  31.8739992  42.0219978 125.3790014
  32.2129992  41.9449978 126.8520014  31.7596730  41.6687432 126.1625906
  29.3229992  53.6809978 125.0450014  28.5059992  54.1779978 125.0970014
  29.8519992  54.1569978 124.4050014  29.2828508  53.8132543 124.9656035
  28.8539992  43.2789978 127.0170014  29.6659992  43.7829978 127.0630014
  28.6099992  43.1339978 127.9310014  28.9321467  43.3283749 127.1468575
  29.3899992  44.2649978 136.2020014  29.5089992  44.8389978 136.9590014
  30.0449992  43.5769978 136.3160014  29.4949146  44.2505574 136.3211314
  29.7379992  40.3599978 127.9550014  29.3909992  40.9769978 128.6000014
  30.3969992  40.8609978 127.4740014  29.7795949  40.5121099 127.9782271
  26.6609992  54.7249978 125.0270014  26.8219992  55.5249978 124.5260014
  26.4639992  55.0319978 125.9120014  26.6563919  54.8759129 125.0781006
  25.3959992  41.4229978 124.6420014  25.3119992  42.3109978 124.9890014
  26.2859992  41.1579978 124.8740014  25.5048163  41.5087179 124.7208596
  35.5939992  42.1719978 137.0370014  34.6779992  42.4339978 136.9490014
  35.9299992  42.1689978 136.1400014  35.5139789  42.2074626 136.9037847
  34.1969992  45.9219978 131.1320014  33.3989992  45.5069978 130.8040014
  34.6419992  45.2319978 131.6230014  34.1479684  45.7718628 131.1535227
  23.6539992  51.8499978 123.7030014  24.2459992  52.5499978 123.9790014
  24.1129992  51.4169978 122.9830014  23.7970791  51.8872908 123.6434607
  21.9699992  44.5149978 122.8190014  21.9249992  45.4539978 122.9970014
  21.0819992  44.2789978 122.5490014  21.8438555  44.6116874 122.8068939
  35.2829992  55.1779978 132.7550014  35.1269992  55.8569978 132.0980014
  36.2159992  55.2499978 132.9580014  35.3877387  55.2806390 132.6925342
  22.7779992  39.2959978 131.4920014  22.5489992  39.3549978 130.5640014
  22.3359992  38.5049978 131.7980014  22.6868801  39.1970540 131.4064729
  21.7089992  53.2369978 127.6520014  20.8759992  53.7089978 127.6800014
  22.2539992  53.7469978 127.0540014  21.6687590  53.3705897 127.5749194
  20.9969992  55.8489978 138.9820014  21.5369992  55.6329978 139.7420014
  20.5159992  55.0439978 138.7930014  21.0058613  55.7105400 139.0604782
  25.5939992  54.7689978 140.6030014  26.3619992  54.3099978 140.9440014
  25.5729992  54.5429978 139.6730014  25.6962135  54.6756668 140.5239491
  29.6859992  54.2769978 121.9780014  29.0419992  53.6459978 122.2990014
  30.4479992  53.7459978 121.7460014  29.7008058  54.1187902 121.9906038
  32.1709992  53.1489978 139.3320014  31.8199992  52.2919978 139.5750014
  32.8969992  53.2909978 139.9390014  32.2211590  53.0510178 139.4472907
  34.2909992  54.0939978 122.2120014  34.5739992  53.2989978 122.6640014
  35.0299992  54.3269978 121.6510014  34.4296956  54.0167031 122.1979822
  20.9039992  49.6599978 139.9370014  21.0479992  48.7579978 139.6500014
  20.1319992  49.9459978 139.4490014  20.8193303  49.5753243 139.8317908
  25.2449992  50.0029978 122.0690014  25.3099992  49.2089978 122.6000014
  25.8979992  49.8849978 121.3790014  25.3421754  49.8783337 122.0484259
  27.5589992  49.6289978 139.3690014  27.2309992  49.8999978 138.5120014
  27.7109992  48.6879978 139.2820014  27.5346030  49.5388973 139.2397945
  30.5979992  51.0499978 121.8050014  30.3289992  51.2309978 122.7060014
  30.3909992  50.1249978 121.6740014  30.5332000  50.9496774 121.9105693
  33.2939992  49.5449978 136.7530014  34.0389992  50.1339978 136.6330014
  32.5369992  50.1269978 136.8160014  33.2935205  49.7041997 136.7451119
  21.7369992  46.8599978 139.3570014  22.1449992  46.0029978 139.2360014
  21.4759992  46.8739978 140.2780014  21.7576016  46.7445119 139.4649192
  26.3949992  47.9759978 124.3750014  25.9349992  47.4919978 125.0610014
  26.6499992  47.3069978 123.7390014  26.3665038  47.8193689 124.3829447
  25.6839992  45.8689978 136.7310014  25.0649992  46.5429978 137.0110014
  26.0279992  46.1899978 135.8980014  25.6457605  46.0047198 136.6566707
  27.4659992  46.2189978 122.6370014  27.2849992  46.0639978 121.7100014
  28.4159992  46.3269978 122.6820014  27.5696566  46.2123669 122.5160929
  30.7029992  48.3399978 140.0080014  31.6569992  48.4239978 139.9810014
  30.5429992  47.6279978 140.6280014  30.8117182  48.2552842 140.0880733
  36.8559992  48.5729978 122.0830014  36.5819992  48.1489978 121.2700014
  36.8949992  49.5049978 121.8660014  36.8237716  48.6408827 121.9424286
  26.0229992  43.2239978 137.8130014  26.1729992  42.4949978 137.2110014
  26.0249992  44.0009978 137.2540014  26.0437967  43.2292708 137.6550541
  26.4359992  41.5929978 135.3060014  26.9709992  42.0449978 134.6540014
  25.5829992  41.4849978 134.8830014  26.3940374  41.6402665 135.1596710
  28.0169992  47.0329978 135.5450014  28.7679992  46.8769978 134.9720014
  27.6779992  47.8849978 135.2700014  28.0739587  47.1268138 135.4294078
  32.4329992  44.8479978 140.5740014  32.6249992  43.9169978 140.4620014
  33.2909992  45.2729978 140.5640014  32.5752269  44.7779928 140.5573192
  33.7499992  47.6369978 138.6510014  33.4679992  48.3459978 138.0740014
  34.6919992  47.5639978 138.5000014  33.8387656  47.7243128 138.5514809
  24.5019992  44.4219978 139.7250014  23.7339992  43.8889978 139.5150014
  25.1799992  44.1119978 139.1250014  24.4886973  44.3072375 139.6151796
  27.2409992  39.0499978 135.7370014  27.1429992  39.9959978 135.6320014
  26.4989992  38.6769978 135.2620014  27.1271913  39.1291813 135.6583539
  28.5049992  43.3709978 139.3010014  28.2699992  43.1519978 140.2030014
  27.7219992  43.1639978 138.7910014  28.3669219  43.3130066 139.3555852
  31.2209992  42.4989978 138.3770014  30.2729992  42.5309978 138.5090014
  31.5329992  41.8729978 139.0300014  31.1335190  42.4187262 138.4833564
  32.8549992  41.1329978 140.3820014  32.7579992  40.1809978 140.3760014
  32.5329992  41.4009978 141.2420014  32.7981761  41.0389744 140.4974936
  22.6819992  42.3419978 139.4290014  22.8939992  41.6359978 138.8190014
  22.5709992  41.9049978 140.2730014  22.6960269  42.1861921 139.4595873
  27.4629992  38.3439978 138.4090014  28.1749992  37.7039978 138.3950014
  27.3619992  38.6099978 137.4950014  27.5467261  38.2924190 138.2835537
  27.8169992  40.0259978 140.4620014  27.6849992  39.5509978 139.6420014
  27.2169992  40.7709978 140.4070014  27.7179070  40.0615789 140.3423251
  27.3629992  56.9089978 123.6390014  28.2959992  57.0669978 123.7820014
  27.0989992  57.5849978 123.0140014  27.4549308  57.0219104 123.5741396
  20.9309992  51.5459978 123.1210014  21.8449992  51.6249978 123.3950014
  20.9389992  50.8589978 122.4550014  21.0571143  51.4639085 123.0684274
  19.5799992  56.9389978 128.1990014  18.9329992  56.4769978 127.6660014
  19.9349992  56.2669978 128.7810014  19.5394506  56.7849503 128.2047341
  20.4499992  55.0189978 130.0030014  20.1159992  54.1389978 130.1750014
  20.6729992  55.3649978 130.8680014  20.4343721  54.9451938 130.1434168
  37.9989992  55.8289978 132.9840014  37.9769992  56.0139978 133.9230014
  38.6889992  56.3969978 132.6430014  38.0893439  55.9311887 133.0664791
  37.5619992  55.3959978 135.9060014  37.0749992  54.6609978 135.5350014
  38.1109992  55.0019978 136.5840014  37.5695247  55.2421057 135.9468461
  36.0129992  51.1859978 140.5440014  35.1469992  51.0809978 140.9380014
  36.3889992  51.9439978 140.9900014  35.9453401  51.2741708 140.6582620
  37.3139992  49.4419978 126.0580014  38.1639992  49.8629978 126.1850014
  37.3189992  48.7019978 126.6650014  37.4311143  49.3996094 126.1574750
  37.7079992  47.4959978 127.8820014  36.9819992  47.0159978 128.2790014
  38.2899992  47.7009978 128.6140014  37.6871635  47.4579166 128.0353748
  37.4669992  50.2809978 132.8290014  38.3009992  49.9029978 132.5490014
  37.5789992  51.2239978 132.7100014  37.5962522  50.3567742 132.7746020
  35.9539992  53.1589978 135.1360014  35.3059992  53.4839978 135.7620014
  35.4359992  52.7179978 134.4620014  35.7954168  53.1438523 135.1305307
  37.9769992  47.3969978 124.2730014  37.4549992  47.7529978 123.5540014
  37.9439992  48.0719978 124.9510014  37.9010699  47.5369848 124.2662129
  36.3259992  44.6359978 122.8240014  36.4219992  45.3029978 122.1440014
  36.1859992  43.8209978 122.3420014  36.3202063  44.6170667 122.6658377
  35.4949992  46.0169978 128.4450014  35.3449992  45.0719978 128.4240014
  35.1409992  46.2979978 129.2880014  35.4265527  45.9255605 128.5561859
  20.5299992  48.0949978 132.4550014  20.7149992  48.0129978 131.5190014
  21.3799992  47.9709978 132.8790014  20.6700916  48.0670393 132.3842896
  36.3509992  47.9869978 138.0830014  36.9339992  47.2519978 138.2750014
  36.9149992  48.7589978 138.1300014  36.5069781  47.9908145 138.1156164
  37.8479992  45.8899978 138.7680014  36.9849992  45.5109978 138.6020014
  38.4519992  45.1509978 138.6940014  37.8115944  45.7382978 138.7352984
  35.5729992  42.0439978 121.9410014  36.1839992  41.6729978 122.5780014
  34.7359992  41.6229978 122.1370014  35.5434947  41.9362756 122.0547252
  35.2059992  43.5989978 126.9070014  35.4849992  42.6919978 127.0310014
  35.9649992  44.0329978 126.5180014  35.3468619  43.5334502 126.8713795
  35.8169992  44.1809978 132.3430014  36.7499992  44.3929978 132.3090014
  35.5819992  44.2819978 133.2650014  35.9128308  44.2236503 132.4630214
  35.8469992  44.9179978 135.1190014  35.0039992  45.1859978 135.4850014
  36.2889992  45.7399978 134.9080014  35.7914138  45.0658273 135.1405518
  20.1279992  43.3649978 138.5960014  21.0469992  43.2429978 138.8320014
  19.6779992  42.6149978 138.9850014  20.1931148  43.2468751 138.6809408
  38.1299992  38.8979978 140.4720014  38.4789992  38.2439978 139.8670014
  38.2769992  39.7349978 140.0330014  38.1977355  38.9216067 140.3296564
  35.8189992  40.8619978 126.9550014  36.0009992  40.4129978 127.7810014
  35.2189992  40.2779978 126.4920014  35.7627529  40.7216131 127.0053619
  21.3489992  41.6779978 131.4870014  21.7939992  40.8859978 131.7890014
  21.8149992  42.3939978 131.9180014  21.4729059  41.6664474 131.5866079
  19.6529992  44.6769978 132.5560014  20.1449992  44.4559978 131.7650014
  20.0149992  45.5169978 132.8370014  19.7692923  44.7603468 132.4857407
  37.6489992  41.0069978 138.8220014  36.7319992  41.2779978 138.7860014
  37.7719992  40.4719978 138.0380014  37.5400828  40.9717700 138.7110785
  37.6859992  40.9299978 123.4830014  38.0979992  40.2089978 123.0080014
  38.3669992  41.5989978 123.5420014  37.8345900  40.9217306 123.4259038
  19.9669992  40.9349978 126.6100014  19.0419992  41.1429978 126.4810014
  20.4209992  41.4189978 125.9210014  19.9016374  41.0289949 126.4990957
  34.7369992  55.9189978 128.5560014  35.3899992  55.5709978 127.9480014
  35.2479992  56.4069978 129.2020014  34.8952777  55.9373815 128.5602047
  19.9299992  39.6729978 134.9550014  19.2649992  39.4269978 135.5980014
  19.4869992  40.2949978 134.3770014  19.7790937  39.7233614 134.9649379
  22.1219992  52.8479978 139.0990014  21.3009992  53.0229978 138.6390014
  21.8699992  52.7749978 140.0200014  21.9756173  52.8620794 139.1604972
  25.0759992  53.8219978 135.3580014  24.6519992  54.6319978 135.0750014
  25.9809992  53.9079978 135.0560014  25.1402433  53.9443331 135.2785377
  29.3879992  55.2209978 138.3170014  29.5719992  54.8879978 139.1950014
  30.2339992  55.5309978 137.9950014  29.5276484  55.2172979 138.3937617
  31.7329992  56.5069978 137.5610014  32.4099992  55.8739978 137.3210014
  32.0539992  56.9079978 138.3680014  31.8691323  56.4745691 137.6373158
  36.6499992  39.0969978 136.6410014  35.8369992  39.4219978 136.2530014
  36.8829992  38.3359978 136.1080014  36.5702566  39.0386559 136.5159213
  22.4779992  57.0789978 135.4050014  21.7579992  57.5189978 134.9540014
  22.1129992  56.8279978 136.2540014  22.3299796  57.1053824 135.4579329
  24.9449992  56.6789978 134.4350014  24.0809992  56.7509978 134.8390014
  24.8899992  57.2259978 133.6510014  24.8191942  56.7627849 134.3844000
  29.6559992  56.5669978 133.6100014  29.1989992  57.0959978 132.9560014
  29.8189992  57.1699978 134.3360014  29.6154476  56.7209140 133.6185499
  31.9839992  55.4449978 134.5550014  31.0789992  55.6099978 134.2900014
  32.4119992  56.2979978 134.4900014  31.9180700  55.5829529 134.5099520
  34.5879992  57.0149978 134.8500014  34.4059992  57.9309978 134.6400014
  34.7649992  56.6039978 134.0040014  34.5869907  57.0849741 134.7067883
  21.8929992  55.7019978 132.3150014  21.8749992  55.2759978 133.1730014
  22.6979992  55.3829978 131.9070014  21.9993221  55.6007233 132.3770225
  24.0339992  54.4119978 130.9700014  23.8149992  53.4949978 131.1400014
  24.8579992  54.5519978 131.4360014  24.1154702  54.3055511 131.0562527
  26.5709992  54.8819978 131.8190014  26.7839992  53.9939978 131.5320014
  26.6359992  54.8469978 132.7740014  26.6089075  54.7558307 131.9087373
  30.0799992  40.5459978 130.9630014  29.4059992  39.9159978 131.2190014
  30.6439992  40.0619978 130.3600014  30.0640384  40.3943708 130.9165020
  35.2229992  38.6529978 131.0760014  35.8259992  39.2009978 130.5740014
  34.3529992  38.9719978 130.8360014  35.1879190  38.7711041 130.9748679
  36.9499992  39.7919978 129.4090014  37.5609992  39.2779978 128.8830014
  37.3319992  40.6689978 129.4330014  37.0854475  39.8401323 129.3401208
  22.4069992  39.1799978 128.7850014  21.6299992  38.9449978 128.2780014
  22.9369992  38.3829978 128.7940014  22.3723451  39.0401268 128.7168627
  21.2429992  38.9779978 124.5890014  21.6819992  39.5889978 123.9970014
  20.6089992  39.5159978 125.0630014  21.2173859  39.1344064 124.5720305
  26.9859992  39.1059978 128.5990014  27.8599992  39.4949978 128.5690014
  26.8499992  38.8909978 129.5210014  27.0873207  39.1301923 128.7196509
  32.5429992  39.1359978 130.2480014  32.6189992  39.2319978 129.2990014
  32.2679992  38.2289978 130.3770014  32.5162042  39.0264241 130.1353811
  33.8959992  39.1619978 125.9400014  33.1929992  39.7769978 125.7310014
  33.4509992  38.3249978 126.0720014  33.7396292  39.1330085 125.9292439
  21.1439992  54.9259978 125.4870014  20.4589992  54.8879978 124.8190014
  21.1479992  55.8389978 125.7750014  21.0508174  55.0441998 125.4345310
  23.1039992  40.8939978 123.0310014  23.5949992  40.2639978 122.5040014
  23.7269992  41.1899978 123.6950014  23.2555062  40.8476770 123.0485438
  28.1299992  41.1869978 125.4890014  28.3079992  40.5399978 126.1710014
  28.0759992  42.0209978 125.9560014  28.1471025  41.2110504 125.6456433
  30.0079992  56.1349978 123.8840014  30.8739992  56.5019978 123.7060014
  29.7619992  55.6959978 123.0700014  30.0932097  56.1258525 123.7496019
  36.7169992  55.6979978 126.5630014  36.5229992  54.9499978 125.9980014
  36.6779992  56.4559978 125.9800014  36.6851645  55.6980786 126.4068148
  22.3639992  39.6939978 138.3030014  21.9979992  38.9279978 138.7460014
  23.2769992  39.7229978 138.5900014  22.4373225  39.5931906 138.4023459
  24.3369992  39.0439978 139.8390014  25.2359992  38.7699978 139.6540014
  23.9509992  38.3019978 140.3030014  24.4077237  38.9061508 139.8764710
  22.9619992  55.8459978 122.5120014  22.6939992  56.1319978 123.3850014
  23.7329992  55.2999978 122.6640014  23.0295600  55.8113330 122.6521499
  32.7589992  38.3769978 140.0210014  32.8349992  37.9509978 140.8750014
  33.6519992  38.3899978 139.6780014  32.8902267  38.3203952 140.0915932
  35.9349992  54.4499978 138.7130014  35.1529992  54.2629978 138.1940014
  35.8629992  55.3789978 138.9310014  35.8180863  54.5500221 138.6713574
  50.3409992  48.3359978 128.7440014  50.4299992  49.2799978 128.6120014
  49.7029992  48.0609978 128.0860014  50.2669062  48.4279812 128.6369641
  49.2739992  47.5909978 132.1630014  49.2359992  46.9449978 132.8680014
  48.9519992  47.1239978 131.3920014  49.2252679  47.4394276 132.1552921
  41.6419992  47.2049978 133.7560014  41.6839992  46.5799978 134.4790014
  42.3449992  47.8289978 133.9380014  41.7427345  47.2037873 133.8795274
  52.9799992  50.5299978 130.4650014  52.5389992  49.8099978 130.9150014
  52.9669992  51.2509978 131.0940014  52.9177960  50.5288329 130.6117567
  42.5659992  51.6549978 132.2910014  42.1959992  50.8529978 131.9210014
  43.5069992  51.4869978 132.3370014  42.6425984  51.5224638 132.2465603
  39.1759992  45.3149978 127.6840014  38.7279992  46.1609978 127.6650014
  38.6149992  44.7359978 127.1680014  39.0389603  45.3523674 127.6116720
  39.8859992  47.4769978 129.8100014  40.0999992  46.7069978 130.3370014
  40.6239992  47.5669978 129.2060014  40.0149652  47.3838012 129.8005212
  50.0919992  55.6339978 130.6770014  50.7109992  54.9579978 130.4030014
  49.8829992  55.4159978 131.5850014  50.1486232  55.5117938 130.7622517
  47.6629992  50.0229978 132.5690014  47.9669992  49.3369978 131.9750014
  48.3849992  50.1419978 133.1870014  47.8021152  49.9452189 132.5712123
  56.3259992  41.6249978 133.4300014  56.3759992  42.2349978 134.1660014
  56.7519992  42.0859978 132.7070014  56.3904108  41.7707709 133.4330112
  50.8039992  44.4169978 132.8970014  50.9469992  43.4709978 132.9170014
  50.6979992  44.6239978 131.9680014  50.8092509  44.3154813 132.7742231
  43.9589992  42.5189978 130.1690014  44.0019992  43.3789978 129.7510014
  43.5009992  41.9669978 129.5350014  43.9029815  42.5620621 130.0261197
  51.6809992  42.6499978 128.5700014  52.3279992  42.3209978 129.1950014
  52.1909992  43.1669978 127.9470014  51.8384317  42.6749227 128.5712167
  40.5789992  44.9159978 130.9310014  41.2329992  44.3659978 131.3630014
  40.6029992  44.6419978 130.0140014  40.6717199  44.8037167 130.8661668
  45.7359992  46.4659978 130.1460014  46.3519992  45.9389978 130.6560014
  45.1489992  45.8259978 129.7430014  45.7409239  46.3074117 130.1612952
  56.7179992  43.1029978 135.6660014  56.0289992  43.7609978 135.5700014
  56.7329992  42.9049978 136.6020014  56.6256740  43.1663242 135.7794630
  42.7689992  41.4369978 134.2430014  42.5499992  41.9669978 133.4770014
  42.1009992  41.6629978 134.8900014  42.6487001  41.5401154 134.2256064
  50.1379992  50.9369978 127.7870014  49.8429992  50.6139978 126.9360014
  49.8139992  51.8369978 127.8280014  50.0537983  51.0144027 127.6759771
  45.3379992  49.1119978 134.5310014  44.5979992  49.7109978 134.6340014
  46.0519992  49.6659978 134.2150014  45.3333288  49.2687356 134.5023805
  53.4449992  41.9409978 130.5500014  53.2299992  41.1749978 131.0830014
  54.1009992  42.4129978 131.0630014  53.5042673  41.9000728 130.6921990
  42.3629992  43.3289978 132.1950014  42.9769992  43.9619978 132.5690014
  42.8749992  42.8569978 131.5390014  42.5162277  43.3517352 132.1574279
  43.7459992  51.0769978 135.3180014  43.7399992  51.9559978 134.9400014
  42.8919992  50.9929978 135.7430014  43.6297925  51.1859535 135.3236887
  39.8669992  50.7479978 126.1000014  39.5949992  50.9769978 125.2110014
  39.9119992  51.5849978 126.5600014  39.8358709  50.8926058 126.0406107
  53.4919992  52.3689978 132.8120014  52.5499992  52.4279978 132.9740014
  53.7679992  53.2749978 132.6750014  53.4005865  52.4995288 132.8156192
  53.7919992  40.6559978 134.2300014  53.0559992  41.2659978 134.1920014
  54.4759992  41.0709978 133.7030014  53.7835506  40.7956400 134.1536051
  46.7959992  38.7419978 131.6960014  46.6779992  37.7939978 131.6410014
  45.9409992  39.0749978 131.9690014  46.6642679  38.6571926 131.7253720
  51.7439992  54.1499978 129.4380014  52.1689992  53.4429978 128.9530014
  52.0609992  54.9519978 129.0210014  51.8450266  54.1615190 129.3152479
  52.9039992  52.0509978 127.9460014  52.6459992  51.3609978 127.3350014
  52.9749992  51.6079978 128.7920014  52.8782837  51.8967106 127.9766912
  54.5899992  50.6179978 136.4240014  54.7289992  50.0259978 135.6840014
  54.7569992  51.4909978 136.0670014  54.6315562  50.6549896 136.2746283
  49.0619992  47.5799978 126.1960014  48.3509992  48.1149978 125.8440014
  49.7529992  47.6349978 125.5360014  49.0580751  47.6606777 126.0585858
  49.1159992  46.0369978 123.2350014  49.8169992  46.0599978 123.8860014
  49.4179992  45.4089978 122.5790014  49.2528282  45.9552339 123.2354496
  56.4309992  46.9579978 134.4900014  55.7789992  47.6519978 134.5790014
  56.8969992  47.1679978 133.6800014  56.4045937  47.0815019 134.3927533
  52.4679992  47.7889978 127.1480014  51.7359992  48.0179978 127.7210014
  52.9149992  47.0759978 127.6030014  52.4282753  47.7238972 127.2879715
  52.3649992  45.9639978 136.2160014  52.4449992  46.7269978 136.7870014
  51.7639992  46.2429978 135.5250014  52.2947245  46.1062630 136.2008424
  44.1129992  48.4199978 129.0300014  43.7829992  48.0489978 128.2120014
  44.7019992  47.7489978 129.3770014  44.1473970  48.2786063 128.9649404
  45.4799992  51.8479978 131.7120014  45.3849992  51.2689978 130.9550014
  46.2089992  51.4769978 132.2080014  45.5656161  51.7185891 131.6755209
  44.4799992  47.1879978 132.6640014  45.0449992  47.3099978 131.9010014
  44.7989992  47.8259978 133.3030014  44.6003977  47.2908851 132.6459424
  50.7889992  52.6919978 133.3980014  50.5489992  53.3539978 134.0460014
  50.5909992  51.8569978 133.8230014  50.7293826  52.6698115 133.5441566
  45.3599992  51.5879978 137.3810014  45.0489992  52.3699978 137.8360014
  44.7099992  51.4349978 136.6950014  45.2295538  51.6744087 137.3505898
  51.3389992  46.9519978 124.8330014  51.9179992  47.1019978 125.5800014
  51.7529992  47.4219978 124.1100014  51.4743122  47.0361277 124.8375042
  42.2799992  47.7859978 136.6100014  42.3499992  48.4369978 137.3080014
  41.3889992  47.8889978 136.2750014  42.1691802  47.8889757 136.6602249
  49.0649992  53.6879978 128.2680014  49.5389992  53.9839978 129.0460014
  48.5019992  54.4269978 128.0350014  49.0537361  53.8282721 128.3428611
  43.5989992  53.6589978 138.1440014  43.6069992  53.5229978 137.1970014
  42.6829992  53.5419978 138.3960014  43.4762528  53.6245463 138.0483243
  55.0379992  38.7019978 124.6460014  54.1379992  38.8409978 124.9410014
  55.2899992  39.5329978 124.2440014  54.9488683  38.8334055 124.6320232
  43.1039992  47.4889978 126.6200014  42.8119992  48.2569978 126.1290014
  42.4289992  46.8299978 126.4570014  42.9728497  47.5049745 126.5308260
  56.2269992  53.0679978 123.0220014  56.2999992  54.0069978 123.1930014
  57.1319992  52.7629978 122.9660014  56.3594158  53.1553061 123.0378392
  39.1969992  49.8519978 135.4350014  38.6949992  49.8239978 134.6200014
  39.2019992  48.9469978 135.7440014  39.1290416  49.7257368 135.3653766
  38.9469992  52.6329978 132.3190014  39.8929992  52.4879978 132.3000014
  38.8339992  53.4169978 132.8560014  39.0613578  52.7191697 132.3890317
  57.1449992  53.2989978 138.0010014  57.0949992  52.3429978 137.9640014
  56.3179992  53.5659978 138.4020014  57.0263987  53.2045174 138.0501446
  48.1229992  52.8729978 136.8770014  48.2109992  53.6989978 137.3520014
  47.2599992  52.5429978 137.1260014  48.0183357  52.9415468 136.9757653
  48.5379992  56.6449978 126.6830014  48.4619992  56.5239978 125.7370014
  48.5699992  57.5939978 126.8020014  48.5319156  56.7567530 126.5695048
  42.1909992  55.4339978 128.4640014  42.3429992  55.0859978 129.3430014
  41.3399992  55.0769978 128.2090014  42.0967899  55.3381738 128.5497340
  51.6389992  55.7989978 123.6850014  52.0139992  55.0549978 123.2150014
  51.6439992  55.5289978 124.6040014  51.6910024  55.6606950 123.7447987
  51.3079992  55.7249978 126.4350014  50.3729992  55.8249978 126.6130014
  51.5879992  55.0149978 127.0130014  51.2178173  55.6427239 126.5374998
  54.2969992  44.7919978 138.4810014  53.8889992  45.2719978 137.7610014
  54.3369992  43.8859978 138.1730014  54.2465476  44.7353160 138.3408247
  41.4459992  51.1759978 136.4780014  41.6619992  50.8139978 137.3370014
  40.5899992  50.8009978 136.2680014  41.3599354  51.0757906 136.5672160
  44.0639992  39.6459978 132.4730014  43.2029992  39.5589978 132.0660014
  44.0419992  40.5019978 132.9010014  43.9430411  39.7497884 132.4750857
  48.7269992  39.3679978 135.8480014  49.1469992  38.9529978 136.6010014
  47.7939992  39.1889978 135.9650014  48.6583736  39.2869910 135.9668968
  52.0539992  43.1229978 136.7010014  51.5399992  42.9979978 137.4990014
  51.8979992  44.0359978 136.4570014  51.9626967  43.2292123 136.7770937
  52.8159992  47.9839978 122.4630014  52.8579992  47.7619978 121.5330014
  53.6649992  48.3829978 122.6530014  52.9365253  48.0075498 122.3613822
  48.3889992  41.8599978 123.1330014  48.1349992  41.8789978 124.0560014
  48.1319992  40.9889978 122.8320014  48.3195133  41.7448110 123.2185082
  44.1549992  44.6109978 133.5680014  43.5139992  44.5709978 134.2770014
  44.1929992  45.5379978 133.3310014  44.0723670  44.7307795 133.6330550
  44.1519992  44.8319978 128.4800014  43.2599992  44.4919978 128.4220014
  44.6029992  44.4549978 127.7250014  44.0906815  44.7343762 128.3699203
  49.6879992  45.2479978 127.2970014  49.2789992  46.0629978 127.0060014
  50.4079992  45.1079978 126.6830014  49.7294013  45.3406571 127.1740875
  48.7899992  45.4239978 138.7850014  48.2269992  44.7189978 139.1060014
  49.6159992  45.3029978 139.2530014  48.8246674  45.3112165 138.8921751
  50.6929992  44.6939978 130.1110014  50.4969992  45.2999978 129.3960014
  50.8739992  43.8609978 129.6770014  50.6906584  44.6642513 129.9544212
  41.9049992  44.9319978 135.4350014  41.8669992  45.3319978 136.3040014
  41.4149992  44.1149978 135.5260014  41.8335621  44.8762510 135.5661377
  45.2709992  42.3059978 122.2340014  44.8399992  41.8609978 122.9640014
  44.5529992  42.6769978 121.7220014  45.1149363  42.2952968 122.2646211
  38.5139992  42.0479978 129.2860014  39.1439992  42.0189978 130.0050014
  38.9629992  41.6229978 128.5560014  38.6610692  41.9865316 129.2857771
  39.7879992  42.7939978 124.7100014  40.2619992  43.3849978 124.1250014
  39.0699992  43.3239978 125.0570014  39.7558640  42.9465511 124.6767969
  49.9569992  46.3319978 134.7830014  50.2799992  45.7009978 134.1400014
  49.5159992  45.7979978 135.4430014  49.9415789  46.1733522 134.7842232
  46.7339992  42.2599978 129.5670014  45.8229992  42.3169978 129.8550014
  47.2389992  42.1999978 130.3770014  46.6775387  42.2596870 129.7160646
  41.5619992  43.8889978 128.3930014  40.6729992  43.9879978 128.0530014
  41.8589992  43.0469978 128.0470014  41.4804177  43.7887687 128.2996940
  45.2149992  43.8889978 126.0500014  46.1469992  44.0179978 126.2280014
  44.9999992  44.5579978 125.4000014  45.3134472  43.9970806 125.9864891
  51.1389992  41.4949978 132.8310014  50.4619992  41.6259978 133.4950014
  50.6539992  41.3399978 132.0210014  50.9807265  41.4919659 132.8123397
  43.8889992  45.0829978 123.6170014  43.3469992  44.7039978 122.9250014
  44.7229992  45.2779978 123.1880014  43.9275159  45.0575076 123.4644419
  54.4269992  57.1659978 139.1080014  54.6259992  57.5899978 138.2730014
  55.0819992  57.5099978 139.7150014  54.5428501  57.2706091 139.0757097
  42.0249992  49.6399978 138.7160014  42.7569992  49.8949978 139.2770014
  41.2439992  49.8449978 139.2310014  42.0197684  49.7026468 138.8624782
  48.0539992  45.0469978 131.4540014  48.6179992  44.5009978 130.9070014
  47.9059992  44.5259978 132.2420014  48.1112575  44.9016552 131.4856987
  43.0559992  41.1839978 127.8720014  42.7389992  40.2809978 127.8370014
  43.8369992  41.1859978 127.3190014  43.1182307  41.0606951 127.7924314
  46.6799992  43.4359978 133.8680014  45.8449992  43.8899978 133.9780014
  47.2039992  43.7119978 134.6200014  46.6365070  43.5354665 133.9847152
  47.2249992  49.6489978 125.5520014  46.4799992  49.1409978 125.2300014
  47.0899992  49.6979978 126.4990014  47.1049047  49.5861596 125.6358845
  54.3749992  48.7819978 134.3390014  55.0159992  49.2379978 133.7950014
  53.5439992  48.8949978 133.8770014  54.3505171  48.8597502 134.2020237
  51.1219992  42.4629978 123.7520014  50.1839992  42.5739978 123.6000014
  51.4199992  43.3189978 124.0580014  51.0336402  42.5940621 123.7725571
  48.7439992  49.8329978 136.7890014  48.3979992  49.4509978 137.5960014
  48.5439992  50.7659978 136.8610014  48.6696523  49.9069095 136.9090735
  51.8409992  44.3299978 125.4120014  52.7329992  44.1919978 125.7310014
  51.8969992  45.1209978 124.8760014  51.9707107  44.4180526 125.3832091
  42.3489992  48.9439978 131.3220014  43.0939992  48.9409978 130.7210014
  42.4269992  48.1199978 131.8040014  42.4614158  48.8322916 131.3049153
  49.3499992  51.1069978 124.5780014  49.0549992  51.9339978 124.9590014
  48.6469992  50.4879978 124.7740014  49.2145471  51.1365227 124.6566698
  39.3569992  47.4039978 136.6370014  39.5799992  46.9859978 137.4690014
  38.7549992  46.7919978 136.2140014  39.3061260  47.2639933 136.6937320
  46.3739992  46.9209978 138.8500014  46.0779992  46.7559978 137.9550014
  47.3049992  46.7009978 138.8390014  46.4593982  46.8686578 138.7260045
  50.9939992  52.2949978 136.7400014  50.0939992  52.4779978 136.4720014
  51.0279992  52.5539978 137.6610014  50.8752909  52.3550815 136.8277852
  56.7259992  44.5389978 125.1070014  56.1709992  44.1429978 124.4350014
  56.8259992  45.4499978 124.8290014  56.6635888  44.6078990 124.9775206
  56.6889992  50.3399978 137.9440014  55.8379992  50.5779978 137.5770014
  57.2789992  50.3229978 137.1910014  56.6522408  50.3702966 137.7918879
  55.0209992  53.3249978 125.5720014  54.6479992  52.4999978 125.8810014
  55.2979992  53.1419978 124.6750014  55.0073871  53.1872441 125.4929677
  52.1809992  48.1329978 132.5930014  51.2529992  47.9019978 132.5660014
  52.6319992  47.3559978 132.2630014  52.1148165  47.9962774 132.5446790
  44.7239992  52.4619978 128.7260014  45.2519992  53.2349978 128.5260014
  43.8439992  52.6859978 128.4250014  44.6773176  52.5983161 128.6578409
  40.4789992  47.3239978 123.3140014  41.0949992  47.9509978 123.6930014
  39.6169992  47.6399978 123.5850014  40.4468195  47.4525798 123.4025386
  46.1519992  50.1249978 128.3030014  45.9109992  51.0499978 128.3440014
  45.4109992  49.6659978 128.6990014  46.0188390  50.1896403 128.3621404
  46.6659992  54.2739978 134.6180014  47.0289992  55.1279978 134.3840014
  47.1979992  53.9819978 135.3580014  46.7876090  54.3514058 134.6860219
  44.8349992  55.1459978 127.8480014  43.8849992  55.2519978 127.8990014
  45.1869992  55.9669978 128.1930014  44.7525480  55.2714438 127.9015999
  50.2099992  50.3729978 134.3180014  49.7849992  50.1449978 135.1450014
  50.7909992  49.6339978 134.1360014  50.2303930  50.2419843 134.4064732
  52.4129992  51.3019978 123.3920014  52.7669992  50.9219978 124.1970014
  51.4649992  51.2079978 123.4790014  52.3331820  51.2373092 123.5138714
  52.8689992  54.9249978 136.7880014  52.2669992  54.3689978 136.2920014
  53.1499992  55.5919978 136.1620014  52.8246829  54.9391613 136.6355443
  56.9169992  55.7809978 123.5930014  57.6609992  56.3669978 123.4530014
  56.2229992  56.3499978 123.9270014  56.9250201  55.9380603 123.6189772
  40.9909992  42.1579978 136.1950014  40.0989992  42.4959978 136.1280014
  40.8929992  41.3019978 136.6130014  40.8554965  42.0886499 136.2423044
  53.2789992  49.9739978 125.6190014  53.0019992  49.2459978 126.1750014
  54.2069992  50.0929978 125.8240014  53.3664499  49.8904213 125.7228044
  40.6429992  53.9619978 134.6300014  40.8599992  53.0299978 134.5990014
  40.8889992  54.2369978 135.5130014  40.7059809  53.8715686 134.7451691
  46.5039992  52.4139978 121.8390014  46.7429992  51.6649978 121.2920014
  46.2349992  52.0259978 122.6720014  46.5003233  52.2591853 121.8767809
  45.4409992  51.9839978 124.2960014  45.5879992  51.4639978 125.0860014
  45.4379992  52.8909978 124.6020014  45.4607300  52.0353964 124.4455895
  41.8939992  49.2359978 124.8060014  41.2079992  49.5889978 125.3730014
  42.4169992  49.9989978 124.5600014  41.8709033  49.3873746 124.8502661
  49.7259992  41.8989978 135.0850014  50.4249992  41.9729978 135.7350014
  49.3449992  41.0339978 135.2390014  49.7702097  41.7922389 135.1947997
  50.5099992  41.5509978 126.1820014  50.7299992  42.0219978 125.3790014
  51.0689992  41.9449978 126.8520014  50.6156730  41.6687432 126.1625906
  48.1789992  53.6809978 125.0450014  47.3619992  54.1779978 125.0970014
  48.7079992  54.1569978 124.4050014  48.1388508  53.8132543 124.9656035
  47.7099992  43.2789978 127.0170014  48.5219992  43.7829978 127.0630014
  47.4659992  43.1339978 127.9310014  47.7881467  43.3283749 127.1468575
  48.2459992  44.2649978 136.2020014  48.3649992  44.8389978 136.9590014
  48.9009992  43.5769978 136.3160014  48.3509146  44.2505574 136.3211313
  48.5939992  40.3599978 127.9550014  48.2469992  40.9769978 128.6000014
  49.2529992  40.8609978 127.4740014  48.6355949  40.5121099 127.9782271
  45.5169992  54.7249978 125.0270014  45.6779992  55.5249978 124.5260014
  45.3199992  55.0319978 125.9120014  45.5123919  54.8759129 125.0781006
  44.2519992  41.4229978 124.6420014  44.1679992  42.3109978 124.9890014
  45.1419992  41.1579978 124.8740014  44.3608163  41.5087179 124.7208596
  54.4499992  42.1719978 137.0370014  53.5339992  42.4339978 136.9490014
  54.7859992  42.1689978 136.1400014  54.3699789  42.2074626 136.9037847
  53.0529992  45.9219978 131.1320014  52.2549992  45.5069978 130.8040014
  53.4979992  45.2319978 131.6230014  53.0039684  45.7718628 131.1535227
  42.5099992  51.8499978 123.7030014  43.1019992  52.5499978 123.9790014
  42.9689992  51.4169978 122.9830014  42.6530791  51.8872908 123.6434607
  40.8259992  44.5149978 122.8190014  40.7809992  45.4539978 122.9970014
  39.9379992  44.2789978 122.5490014  40.6998555  44.6116874 122.8068939
  54.1389992  55.1779978 132.7550014  53.9829992  55.8569978 132.0980014
  55.0719992  55.2499978 132.9580014  54.2437387  55.2806390 132.6925342
  41.6339992  39.2959978 131.4920014  41.4049992  39.3549978 130.5640014
  41.1919992  38.5049978 131.7980014  41.5428801  39.1970540 131.4064729
  40.5649992  53.2369978 127.6520014  39.7319992  53.7089978 127.6800014
  41.1099992  53.7469978 127.0540014  40.5247590  53.3705897 127.5749194
  39.8529992  55.8489978 138.9820014  40.3929992  55.6329978 139.7420014
  39.3719992  55.0439978 138.7930014  39.8618613  55.7105400 139.0604782
  44.4499992  54.7689978 140.6030014  45.2179992  54.3099978 140.9440014
  44.4289992  54.5429978 139.6730014  44.5522135  54.6756668 140.5239491
  48.5419992  54.2769978 121.9780014  47.8979992  53.6459978 122.2990014
  49.3039992  53.7459978 121.7460014  48.5568058  54.1187902 121.9906038
  51.0269992  53.1489978 139.3320014  50.6759992  52.2919978 139.5750014
  51.7529992  53.2909978 139.9390014  51.0771590  53.0510178 139.4472907
  53.1469992  54.0939978 122.2120014  53.4299992  53.2989978 122.6640014
  53.8859992  54.3269978 121.6510014  53.2856956  54.0167031 122.1979822
  39.7599992  49.6599978 139.9370014  39.9039992  48.7579978 139.6500014
  38.9879992  49.9459978 139.4490014  39.6753303  49.5753243 139.8317908
  44.1009992  50.0029978 122.0690014  44.1659992  49.2089978 122.6000014
  44.7539992  49.8849978 121.3790014  44.1981754  49.8783337 122.0484259
  46.4149992  49.6289978 139.3690014  46.0869992  49.8999978 138.5120014
  46.5669992  48.6879978 139.2820014  46.3906030  49.5388973 139.2397945
  49.4539992  51.0499978 121.8050014  49.1849992  51.2309978 122.7060014
  49.2469992  50.1249978 121.6740014  49.3892000  50.9496774 121.9105693
  52.1499992  49.5449978 136.7530014  52.8949992  50.1339978 136.6330014
  51.3929992  50.1269978 136.8160014  52.1495205  49.7041997 136.7451119
  40.5929992  46.8599978 139.3570014  41.0009992  46.0029978 139.2360014
  40.3319992  46.8739978 140.2780014  40.6136016  46.7445119 139.4649192
  45.2509992  47.9759978 124.3750014  44.7909992  47.4919978 125.0610014
  45.5059992  47.3069978 123.7390014  45.2225038  47.8193689 124.3829447
  44.5399992  45.8689978 136.7310014  43.9209992  46.5429978 137.0110014
  44.8839992  46.1899978 135.8980014  44.5017605  46.0047198 136.6566707
  46.3219992  46.2189978 122.6370014  46.1409992  46.0639978 121.7100014
  47.2719992  46.3269978 122.6820014  46.4256566  46.2123669 122.5160929
  49.5589992  48.3399978 140.0080014  50.5129992  48.4239978 139.9810014
  49.3989992  47.6279978 140.6280014  49.6677182  48.2552842 140.0880733
  55.7119992  48.5729978 122.0830014  55.4379992  48.1489978 121.2700014
  55.7509992  49.5049978 121.8660014  55.6797716  48.6408827 121.9424286
  44.8789992  43.2239978 137.8130014  45.0289992  42.4949978 137.2110014
  44.8809992  44.0009978 137.2540014  44.8997967  43.2292708 137.6550541
  45.2919992  41.5929978 135.3060014  45.8269992  42.0449978 134.6540014
  44.4389992  41.4849978 134.8830014  45.2500374  41.6402665 135.1596710
  46.8729992  47.0329978 135.5450014  47.6239992  46.8769978 134.9720014
  46.5339992  47.8849978 135.2700014  46.9299587  47.1268138 135.4294078
  51.2889992  44.8479978 140.5740014  51.4809992  43.9169978 140.4620014
  52.1469992  45.2729978 140.5640014  51.4312269  44.7779928 140.5573192
  52.6059992  47.6369978 138.6510014  52.3239992  48.3459978 138.0740014
  53.5479992  47.5639978 138.5000014  52.6947656  47.7243128 138.5514809
  43.3579992  44.4219978 139.7250014  42.5899992  43.8889978 139.5150014
  44.0359992  44.1119978 139.1250014  43.3446973  44.3072375 139.6151796
  46.0969992  39.0499978 135.7370014  45.9989992  39.9959978 135.6320014
  45.3549992  38.6769978 135.2620014  45.9831913  39.1291813 135.6583539
  47.3609992  43.3709978 139.3010014  47.1259992  43.1519978 140.2030014
  46.5779992  43.1639978 138.7910014  47.2229219  43.3130066 139.3555852
  50.0769992  42.4989978 138.3770014  49.1289992  42.5309978 138.5090014
  50.3889992  41.8729978 139.0300014  49.9895190  42.4187262 138.4833564
  51.7109992  41.1329978 140.3820014  51.6139992  40.1809978 140.3760014
  51.3889992  41.4009978 141.2420014  51.6541761  41.0389744 140.4974936
  41.5379992  42.3419978 139.4290014  41.7499992  41.6359978 138.8190014
  41.4269992  41.9049978 140.2730014  41.5520269  42.1861921 139.4595873
  46.3189992  38.3439978 138.4090014  47.0309992  37.7039978 138.3950014
  46.2179992  38.6099978 137.4950014  46.4027261  38.2924190 138.2835537
  46.6729992  40.0259978 140.4620014  46.5409992  39.5509978 139.6420014
  46.0729992  40.7709978 140.4070014  46.5739070  40.0615789 140.3423251
  46.2189992  56.9089978 123.6390014  47.1519992  57.0669978 123.7820014
  45.9549992  57.5849978 123.0140014  46.3109308  57.0219104 123.5741396
  39.7869992  51.5459978 123.1210014  40.7009992  51.6249978 123.3950014
  39.7949992  50.8589978 122.4550014  39.9131143  51.4639085 123.0684274
  38.4359992  56.9389978 128.1990014  37.7889992  56.4769978 127.6660014
  38.7909992  56.2669978 128.7810014  38.3954506  56.7849503 128.2047341
  39.3059992  55.0189978 130.0030014  38.9719992  54.1389978 130.1750014
  39.5289992  55.3649978 130.8680014  39.2903721  54.9451938 130.1434168
  56.8549992  55.8289978 132.9840014  56.8329992  56.0139978 133.9230014
  57.5449992  56.3969978 132.6430014  56.9453439  55.9311887 133.0664791
  56.4179992  55.3959978 135.9060014  55.9309992  54.6609978 135.5350014
  56.9669992  55.0019978 136.5840014  56.4255247  55.2421057 135.9468461
  54.8689992  51.1859978 140.5440014  54.0029992  51.0809978 140.9380014
  55.2449992  51.9439978 140.9900014  54.8013401  51.2741708 140.6582620
  56.1699992  49.4419978 126.0580014  57.0199992  49.8629978 126.1850014
  56.1749992  48.7019978 126.6650014  56.2871143  49.3996094 126.1574750
  56.5639992  47.4959978 127.8820014  55.8379992  47.0159978 128.2790014
  57.1459992  47.7009978 128.6140014  56.5431635  47.4579166 128.0353748
  56.3229992  50.2809978 132.8290014  57.1569992  49.9029978 132.5490014
  56.4349992  51.2239978 132.7100014  56.4522522  50.3567742 132.7746020
  54.8099992  53.1589978 135.1360014  54.1619992  53.4839978 135.7620014
  54.2919992  52.7179978 134.4620014  54.6514168  53.1438523 135.1305307
  56.8329992  47.3969978 124.2730014  56.3109992  47.7529978 123.5540014
  56.7999992  48.0719978 124.9510014  56.7570699  47.5369848 124.2662129
  55.1819992  44.6359978 122.8240014  55.2779992  45.3029978 122.1440014
  55.0419992  43.8209978 122.3420014  55.1762063  44.6170667 122.6658377
  54.3509992  46.0169978 128.4450014  54.2009992  45.0719978 128.4240014
  53.9969992  46.2979978 129.2880014  54.2825527  45.9255605 128.5561859
  39.3859992  48.0949978 132.4550014  39.5709992  48.0129978 131.5190014
  40.2359992  47.9709978 132.8790014  39.5260916  48.0670393 132.3842896
  55.2069992  47.9869978 138.0830014  55.7899992  47.2519978 138.2750014
  55.7709992  48.7589978 138.1300014  55.3629781  47.9908145 138.1156164
  56.7039992  45.8899978 138.7680014  55.8409992  45.5109978 138.6020014
  57.3079992  45.1509978 138.6940014  56.6675944  45.7382978 138.7352984
  54.4289992  42.0439978 121.9410014  55.0399992  41.6729978 122.5780014
  53.5919992  41.6229978 122.1370014  54.3994947  41.9362756 122.0547252
  54.0619992  43.5989978 126.9070014  54.3409992  42.6919978 127.0310014
  54.8209992  44.0329978 126.5180014  54.2028619  43.5334502 126.8713795
  54.6729992  44.1809978 132.3430014  55.6059992  44.3929978 132.3090014
  54.4379992  44.2819978 133.2650014  54.7688308  44.2236503 132.4630214
  54.7029992  44.9179978 135.1190014  53.8599992  45.1859978 135.4850014
  55.1449992  45.7399978 134.9080014  54.6474138  45.0658273 135.1405518
  38.9839992  43.3649978 138.5960014  39.9029992  43.2429978 138.8320014
  38.5339992  42.6149978 138.9850014  39.0491148  43.2468751 138.6809408
  56.9859992  38.8979978 140.4720014  57.3349992  38.2439978 139.8670014
  57.1329992  39.7349978 140.0330014  57.0537355  38.9216067 140.3296564
  54.6749992  40.8619978 126.9550014  54.8569992  40.4129978 127.7810014
  54.0749992  40.2779978 126.4920014  54.6187529  40.7216131 127.0053619
  40.2049992  41.6779978 131.4870014  40.6499992  40.8859978 131.7890014
  40.6709992  42.3939978 131.9180014  40.3289059  41.6664474 131.5866079
  38.5089992  44.6769978 132.5560014  39.0009992  44.4559978 131.7650014
  38.8709992  45.5169978 132.8370014  38.6252923  44.7603468 132.4857407
  56.5049992  41.0069978 138.8220014  55.5879992  41.2779978 138.7860014
  56.6279992  40.4719978 138.0380014  56.3960828  40.9717700 138.7110785
  56.5419992  40.9299978 123.4830014  56.9539992  40.2089978 123.0080014
  57.2229992  41.5989978 123.5420014  56.6905900  40.9217306 123.4259038
  38.8229992  40.9349978 126.6100014  37.8979992  41.1429978 126.4810014
  39.2769992  41.4189978 125.9210014  38.7576374  41.0289949 126.4990957
  53.5929992  55.9189978 128.5560014  54.2459992  55.5709978 127.9480014
  54.1039992  56.4069978 129.2020014  53.7512777  55.9373815 128.5602047
  38.7859992  39.6729978 134.9550014  38.1209992  39.4269978 135.5980014
  38.3429992  40.2949978 134.3770014  38.6350937  39.7233614 134.9649379
  40.9779992  52.8479978 139.0990014  40.1569992  53.0229978 138.6390014
  40.7259992  52.7749978 140.0200014  40.8316173  52.8620794 139.1604972
  43.9319992  53.8219978 135.3580014  43.5079992  54.6319978 135.0750014
  44.8369992  53.9079978 135.0560014  43.9962433  53.9443331 135.2785377
  48.2439992  55.2209978 138.3170014  48.4279992  54.8879978 139.1950014
  49.0899992  55.5309978 137.9950014  48.3836484  55.2172979 138.3937617
  50.5889992  56.5069978 137.5610014  51.2659992  55.8739978 137.3210014
  50.9099992  56.9079978 138.3680014  50.7251323  56.4745691 137.6373158
  55.5059992  39.0969978 136.6410014  54.6929992  39.4219978 136.2530014
  55.7389992  38.3359978 136.1080014  55.4262566  39.0386559 136.5159213
  41.3339992  57.0789978 135.4050014  40.6139992  57.5189978 134.9540014
  40.9689992  56.8279978 136.2540014  41.1859796  57.1053824 135.4579329
  43.8009992  56.6789978 134.4350014  42.9369992  56.7509978 134.8390014
  43.7459992  57.2259978 133.6510014  43.6751942  56.7627849 134.3844000
  48.5119992  56.5669978 133.6100014  48.0549992  57.0959978 132.9560014
  48.6749992  57.1699978 134.3360014  48.4714476  56.7209140 133.6185499
  50.8399992  55.4449978 134.5550014  49.9349992  55.6099978 134.2900014
  51.2679992  56.2979978 134.4900014  50.7740700  55.5829529 134.5099520
  53.4439992  57.0149978 134.8500014  53.2619992  57.9309978 134.6400014
  53.6209992  56.6039978 134.0040014  53.4429907  57.0849741 134.7067883
  40.7489992  55.7019978 132.3150014  40.7309992  55.2759978 133.1730014
  41.5539992  55.3829978 131.9070014  40.8553221  55.6007233 132.3770225
  42.8899992  54.4119978 130.9700014  42.6709992  53.4949978 131.1400014
  43.7139992  54.5519978 131.4360014  42.9714702  54.3055511 131.0562527
  45.4269992  54.8819978 131.8190014  45.6399992  53.9939978 131.5320014
  45.4919992  54.8469978 132.7740014  45.4649075  54.7558307 131.9087373
  48.9359992  40.5459978 130.9630014  48.2619992  39.9159978 131.2190014
  49.4999992  40.0619978 130.3600014  48.9200384  40.3943708 130.9165020
  54.0789992  38.6529978 131.0760014  54.6819992  39.2009978 130.5740014
  53.2089992  38.9719978 130.8360014  54.0439190  38.7711041 130.9748679
  55.8059992  39.7919978 129.4090014  56.4169992  39.2779978 128.8830014
  56.1879992  40.6689978 129.4330014  55.9414475  39.8401323 129.3401208
  41.2629992  39.1799978 128.7850014  40.4859992  38.9449978 128.2780014
  41.7929992  38.3829978 128.7940014  41.2283451  39.0401268 128.7168627
  40.0989992  38.9779978 124.5890014  40.5379992  39.5889978 123.9970014
  39.4649992  39.5159978 125.0630014  40.0733859  39.1344064 124.5720305
  45.8419992  39.1059978 128.5990014  46.7159992  39.4949978 128.5690014
  45.7059992  38.8909978 129.5210014  45.9433207  39.1301923 128.7196509
  51.3989992  39.1359978 130.2480014  51.4749992  39.2319978 129.2990014
  51.1239992  38.2289978 130.3770014  51.3722042  39.0264241 130.1353811
  52.7519992  39.1619978 125.9400014  52.0489992  39.7769978 125.7310014
  52.3069992  38.3249978 126.0720014  52.5956292  39.1330085 125.9292439
  39.9999992  54.9259978 125.4870014  39.3149992  54.8879978 124.8190014
  40.0039992  55.8389978 125.7750014  39.9068174  55.0441998 125.4345310
  41.9599992  40.8939978 123.0310014  42.4509992  40.2639978 122.5040014
  42.5829992  41.1899978 123.6950014  42.1115062  40.8476770 123.0485438
  46.9859992  41.1869978 125.4890014  47.1639992  40.5399978 126.1710014
  46.9319992  42.0209978 125.9560014  47.0031025  41.2110504 125.6456433
  48.8639992  56.1349978 123.8840014  49.7299992  56.5019978 123.7060014
  48.6179992  55.6959978 123.0700014  48.9492097  56.1258525 123.7496019
  55.5729992  55.6979978 126.5630014  55.3789992  54.9499978 125.9980014
  55.5339992  56.4559978 125.9800014  55.5411645  55.6980786 126.4068148
  41.2199992  39.6939978 138.3030014  40.8539992  38.9279978 138.7460014
  42.1329992  39.7229978 138.5900014  41.2933225  39.5931906 138.4023459
  43.1929992  39.0439978 139.8390014  44.0919992  38.7699978 139.6540014
  42.8069992  38.3019978 140.3030014  43.2637237  38.9061508 139.8764710
  41.8179992  55.8459978 122.5120014  41.5499992  56.1319978 123.3850014
  42.5889992  55.2999978 122.6640014  41.8855600  55.8113330 122.6521499
  51.6149992  38.3769978 140.0210014  51.6909992  37.9509978 140.8750014
  52.5079992  38.3899978 139.6780014  51.7462267  38.3203952 140.0915932
  54.7909992  54.4499978 138.7130014  54.0089992  54.2629978 138.1940014
  54.7189992  55.3789978 138.9310014  54.6740863  54.5500221 138.6713574
  69.1969992  48.3359978 128.7440014  69.2859992  49.2799978 128.6120014
  68.5589992  48.0609978 128.0860014  69.1229062  48.4279812 128.6369641
  68.1299992  47.5909978 132.1630014  68.0919992  46.9449978 132.8680014
  67.8079992  47.1239978 131.3920014  68.0812679  47.4394276 132.1552921
  60.4979992  47.2049978 133.7560014  60.5399992  46.5799978 134.4790014
  61.2009992  47.8289978 133.9380014  60.5987345  47.2037873 133.8795274
  71.8359992  50.5299978 130.4650014  71.3949992  49.8099978 130.9150014
  71.8229992  51.2509978 131.0940014  71.7737960  50.5288329 130.6117567
  61.4219992  51.6549978 132.2910014  61.0519992  50.8529978 131.9210014
  62.3629992  51.4869978 132.3370014  61.4985984  51.5224638 132.2465603
  58.0319992  45.3149978 127.6840014  57.5839992  46.1609978 127.6650014
  57.4709992  44.7359978 127.1680014  57.8949603  45.3523674 127.6116720
  58.7419992  47.4769978 129.8100014  58.9559992  46.7069978 130.3370014
  59.4799992  47.5669978 129.2060014  58.8709652  47.3838012 129.8005212
  68.9479992  55.6339978 130.6770014  69.5669992  54.9579978 130.4030014
  68.7389992  55.4159978 131.5850014  69.0046232  55.5117938 130.7622517
  66.5189992  50.0229978 132.5690014  66.8229992  49.3369978 131.9750014
  67.2409992  50.1419978 133.1870014  66.6581152  49.9452189 132.5712123
  75.1819992  41.6249978 133.4300014  75.2319992  42.2349978 134.1660014
  75.6079992  42.0859978 132.7070014  75.2464108  41.7707709 133.4330112
  69.6599992  44.4169978 132.8970014  69.8029992  43.4709978 132.9170014
  69.5539992  44.6239978 131.9680014  69.6652509  44.3154813 132.7742231
  62.8149992  42.5189978 130.1690014  62.8579992  43.3789978 129.7510014
  62.3569992  41.9669978 129.5350014  62.7589815  42.5620621 130.0261197
  70.5369992  42.6499978 128.5700014  71.1839992  42.3209978 129.1950014
  71.0469992  43.1669978 127.9470014  70.6944317  42.6749227 128.5712167
  59.4349992  44.9159978 130.9310014  60.0889992  44.3659978 131.3630014
  59.4589992  44.6419978 130.0140014  59.5277199  44.8037167 130.8661668
  64.5919992  46.4659978 130.1460014  65.2079992  45.9389978 130.6560014
  64.0049992  45.8259978 129.7430014  64.5969239  46.3074117 130.1612952
  75.5739992  43.1029978 135.6660014  74.8849992  43.7609978 135.5700014
  75.5889992  42.9049978 136.6020014  75.4816741  43.1663243 135.7794630
  61.6249992  41.4369978 134.2430014  61.4059992  41.9669978 133.4770014
  60.9569992  41.6629978 134.8900014  61.5047001  41.5401154 134.2256064
  68.9939992  50.9369978 127.7870014  68.6989992  50.6139978 126.9360014
  68.6699992  51.8369978 127.8280014  68.9097983  51.0144026 127.6759771
  64.1939992  49.1119978 134.5310014  63.4539992  49.7109978 134.6340014
  64.9079992  49.6659978 134.2150014  64.1893288  49.2687356 134.5023805
  72.3009992  41.9409978 130.5500014  72.0859992  41.1749978 131.0830014
  72.9569992  42.4129978 131.0630014  72.3602673  41.9000728 130.6921990
  61.2189992  43.3289978 132.1950014  61.8329992  43.9619978 132.5690014
  61.7309992  42.8569978 131.5390014  61.3722277  43.3517352 132.1574279
  62.6019992  51.0769978 135.3180014  62.5959992  51.9559978 134.9400014
  61.7479992  50.9929978 135.7430014  62.4857925  51.1859535 135.3236887
  58.7229992  50.7479978 126.1000014  58.4509992  50.9769978 125.2110014
  58.7679992  51.5849978 126.5600014  58.6918709  50.8926058 126.0406107
  72.3479992  52.3689978 132.8120014  71.4059992  52.4279978 132.9740014
  72.6239992  53.2749978 132.6750014  72.2565865  52.4995288 132.8156192
  72.6479992  40.6559978 134.2300014  71.9119992  41.2659978 134.1920014
  73.3319992  41.0709978 133.7030014  72.6395506  40.7956400 134.1536051
  65.6519992  38.7419978 131.6960014  65.5339992  37.7939978 131.6410014
  64.7969992  39.0749978 131.9690014  65.5202679  38.6571926 131.7253720
  70.5999992  54.1499978 129.4380014  71.0249992  53.4429978 128.9530014
  70.9169992  54.9519978 129.0210014  70.7010266  54.1615190 129.3152479
  71.7599992  52.0509978 127.9460014  71.5019992  51.3609978 127.3350014
  71.8309992  51.6079978 128.7920014  71.7342837  51.8967106 127.9766912
  73.4459992  50.6179978 136.4240014  73.5849992  50.0259978 135.6840014
  73.6129992  51.4909978 136.0670014  73.4875562  50.6549896 136.2746283
  67.9179992  47.5799978 126.1960014  67.2069992  48.1149978 125.8440014
  68.6089992  47.6349978 125.5360014  67.9140751  47.6606777 126.0585858
  67.9719992  46.0369978 123.2350014  68.6729992  46.0599978 123.8860014
  68.2739992  45.4089978 122.5790014  68.1088282  45.9552339 123.2354496
  75.2869992  46.9579978 134.4900014  74.6349992  47.6519978 134.5790014
  75.7529992  47.1679978 133.6800014  75.2605937  47.0815019 134.3927533
  71.3239992  47.7889978 127.1480014  70.5919992  48.0179978 127.7210014
  71.7709992  47.0759978 127.6030014  71.2842753  47.7238972 127.2879715
  71.2209992  45.9639978 136.2160014  71.3009992  46.7269978 136.7870014
  70.6199992  46.2429978 135.5250014  71.1507245  46.1062630 136.2008424
  62.9689992  48.4199978 129.0300014  62.6389992  48.0489978 128.2120014
  63.5579992  47.7489978 129.3770014  63.0033970  48.2786063 128.9649404
  64.3359992  51.8479978 131.7120014  64.2409992  51.2689978 130.9550014
  65.0649992  51.4769978 132.2080014  64.4216161  51.7185891 131.6755209
  63.3359992  47.1879978 132.6640014  63.9009992  47.3099978 131.9010014
  63.6549992  47.8259978 133.3030014  63.4563977  47.2908851 132.6459424
  69.6449992  52.6919978 133.3980014  69.4049992  53.3539978 134.0460014
  69.4469992  51.8569978 133.8230014  69.5853826  52.6698115 133.5441566
  64.2159992  51.5879978 137.3810014  63.9049992  52.3699978 137.8360014
  63.5659992  51.4349978 136.6950014  64.0855538  51.6744087 137.3505898
  70.1949992  46.9519978 124.8330014  70.7739992  47.1019978 125.5800014
  70.6089992  47.4219978 124.1100014  70.3303122  47.0361277 124.8375042
  61.1359992  47.7859978 136.6100014  61.2059992  48.4369978 137.3080014
  60.2449992  47.8889978 136.2750014  61.0251802  47.8889757 136.6602249
  67.9209992  53.6879978 128.2680014  68.3949992  53.9839978 129.0460014
  67.3579992  54.4269978 128.0350014  67.9097361  53.8282721 128.3428611
  62.4549992  53.6589978 138.1440014  62.4629992  53.5229978 137.1970014
  61.5389992  53.5419978 138.3960014  62.3322528  53.6245463 138.0483243
  73.8939992  38.7019978 124.6460014  72.9939992  38.8409978 124.9410014
  74.1459992  39.5329978 124.2440014  73.8048683  38.8334055 124.6320232
  61.9599992  47.4889978 126.6200014  61.6679992  48.2569978 126.1290014
  61.2849992  46.8299978 126.4570014  61.8288497  47.5049745 126.5308260
  75.0829992  53.0679978 123.0220014  75.1559992  54.0069978 123.1930014
  75.9879992  52.7629978 122.9660014  75.2154158  53.1553061 123.0378392
  58.0529992  49.8519978 135.4350014  57.5509992  49.8239978 134.6200014
  58.0579992  48.9469978 135.7440014  57.9850416  49.7257368 135.3653766
  57.8029992  52.6329978 132.3190014  58.7489992  52.4879978 132.3000014
  57.6899992  53.4169978 132.8560014  57.9173578  52.7191697 132.3890317
  76.0009992  53.2989978 138.0010014  75.9509992  52.3429978 137.9640014
  75.1739992  53.5659978 138.4020014  75.8823987  53.2045174 138.0501446
  66.9789992  52.8729978 136.8770014  67.0669992  53.6989978 137.3520014
  66.1159992  52.5429978 137.1260014  66.8743357  52.9415468 136.9757653
  67.3939992  56.6449978 126.6830014  67.3179992  56.5239978 125.7370014
  67.4259992  57.5939978 126.8020014  67.3879156  56.7567530 126.5695048
  61.0469992  55.4339978 128.4640014  61.1989992  55.0859978 129.3430014
  60.1959992  55.0769978 128.2090014  60.9527899  55.3381738 128.5497340
  70.4949992  55.7989978 123.6850014  70.8699992  55.0549978 123.2150014
  70.4999992  55.5289978 124.6040014  70.5470024  55.6606950 123.7447987
  70.1639992  55.7249978 126.4350014  69.2289992  55.8249978 126.6130014
  70.4439992  55.0149978 127.0130014  70.0738173  55.6427239 126.5374998
  73.1529992  44.7919978 138.4810014  72.7449992  45.2719978 137.7610014
  73.1929992  43.8859978 138.1730014  73.1025476  44.7353160 138.3408247
  60.3019992  51.1759978 136.4780014  60.5179992  50.8139978 137.3370014
  59.4459992  50.8009978 136.2680014  60.2159354  51.0757906 136.5672160
  62.9199992  39.6459978 132.4730014  62.0589992  39.5589978 132.0660014
  62.8979992  40.5019978 132.9010014  62.7990411  39.7497884 132.4750857
  67.5829992  39.3679978 135.8480014  68.0029992  38.9529978 136.6010014
  66.6499992  39.1889978 135.9650014  67.5143736  39.2869910 135.9668968
  70.9099992  43.1229978 136.7010014  70.3959992  42.9979978 137.4990014
  70.7539992  44.0359978 136.4570014  70.8186967  43.2292123 136.7770937
  71.6719992  47.9839978 122.4630014  71.7139992  47.7619978 121.5330014
  72.5209992  48.3829978 122.6530014  71.7925253  48.0075498 122.3613822
  67.2449992  41.8599978 123.1330014  66.9909992  41.8789978 124.0560014
  66.9879992  40.9889978 122.8320014  67.1755133  41.7448110 123.2185082
  63.0109992  44.6109978 133.5680014  62.3699992  44.5709978 134.2770014
  63.0489992  45.5379978 133.3310014  62.9283670  44.7307795 133.6330550
  63.0079992  44.8319978 128.4800014  62.1159992  44.4919978 128.4220014
  63.4589992  44.4549978 127.7250014  62.9466815  44.7343762 128.3699203
  68.5439992  45.2479978 127.2970014  68.1349992  46.0629978 127.0060014
  69.2639992  45.1079978 126.6830014  68.5854013  45.3406571 127.1740875
  67.6459992  45.4239978 138.7850014  67.0829992  44.7189978 139.1060014
  68.4719992  45.3029978 139.2530014  67.6806674  45.3112165 138.8921751
  69.5489992  44.6939978 130.1110014  69.3529992  45.2999978 129.3960014
  69.7299992  43.8609978 129.6770014  69.5466584  44.6642513 129.9544212
  60.7609992  44.9319978 135.4350014  60.7229992  45.3319978 136.3040014
  60.2709992  44.1149978 135.5260014  60.6895621  44.8762510 135.5661377
  64.1269992  42.3059978 122.2340014  63.6959992  41.8609978 122.9640014
  63.4089992  42.6769978 121.7220014  63.9709363  42.2952968 122.2646211
  57.3699992  42.0479978 129.2860014  57.9999992  42.0189978 130.0050014
  57.8189992  41.6229978 128.5560014  57.5170692  41.9865316 129.2857771
  58.6439992  42.7939978 124.7100014  59.1179992  43.3849978 124.1250014
  57.9259992  43.3239978 125.0570014  58.6118640  42.9465511 124.6767969
  68.8129992  46.3319978 134.7830014  69.1359992  45.7009978 134.1400014
  68.3719992  45.7979978 135.4430014  68.7975789  46.1733522 134.7842232
  65.5899992  42.2599978 129.5670014  64.6789992  42.3169978 129.8550014
  66.0949992  42.1999978 130.3770014  65.5335387  42.2596870 129.7160646
  60.4179992  43.8889978 128.3930014  59.5289992  43.9879978 128.0530014
  60.7149992  43.0469978 128.0470014  60.3364177  43.7887687 128.2996940
  64.0709992  43.8889978 126.0500014  65.0029992  44.0179978 126.2280014
  63.8559992  44.5579978 125.4000014  64.1694472  43.9970806 125.9864891
  69.9949992  41.4949978 132.8310014  69.3179992  41.6259978 133.4950014
  69.5099992  41.3399978 132.0210014  69.8367265  41.4919659 132.8123397
  62.7449992  45.0829978 123.6170014  62.2029992  44.7039978 122.9250014
  63.5789992  45.2779978 123.1880014  62.7835159  45.0575076 123.4644419
  73.2829992  57.1659978 139.1080014  73.4819992  57.5899978 138.2730014
  73.9379992  57.5099978 139.7150014  73.3988501  57.2706091 139.0757097
  60.8809992  49.6399978 138.7160014  61.6129992  49.8949978 139.2770014
  60.0999992  49.8449978 139.2310014  60.8757684  49.7026468 138.8624782
  66.9099992  45.0469978 131.4540014  67.4739992  44.5009978 130.9070014
  66.7619992  44.5259978 132.2420014  66.9672575  44.9016552 131.4856987
  61.9119992  41.1839978 127.8720014  61.5949992  40.2809978 127.8370014
  62.6929992  41.1859978 127.3190014  61.9742307  41.0606951 127.7924314
  65.5359992  43.4359978 133.8680014  64.7009992  43.8899978 133.9780014
  66.0599992  43.7119978 134.6200014  65.4925070  43.5354666 133.9847152
  66.0809992  49.6489978 125.5520014  65.3359992  49.1409978 125.2300014
  65.9459992  49.6979978 126.4990014  65.9609047  49.5861596 125.6358845
  73.2309992  48.7819978 134.3390014  73.8719992  49.2379978 133.7950014
  72.3999992  48.8949978 133.8770014  73.2065171  48.8597502 134.2020237
  69.9779992  42.4629978 123.7520014  69.0399992  42.5739978 123.6000014
  70.2759992  43.3189978 124.0580014  69.8896402  42.5940621 123.7725571
  67.5999992  49.8329978 136.7890014  67.2539992  49.4509978 137.5960014
  67.3999992  50.7659978 136.8610014  67.5256523  49.9069095 136.9090735
  70.6969992  44.3299978 125.4120014  71.5889992  44.1919978 125.7310014
  70.7529992  45.1209978 124.8760014  70.8267107  44.4180526 125.3832091
  61.2049992  48.9439978 131.3220014  61.9499992  48.9409978 130.7210014
  61.2829992  48.1199978 131.8040014  61.3174159  48.8322916 131.3049153
  68.2059992  51.1069978 124.5780014  67.9109992  51.9339978 124.9590014
  67.5029992  50.4879978 124.7740014  68.0705471  51.1365227 124.6566698
  58.2129992  47.4039978 136.6370014  58.4359992  46.9859978 137.4690014
  57.6109992  46.7919978 136.2140014  58.1621260  47.2639933 136.6937320
  65.2299992  46.9209978 138.8500014  64.9339992  46.7559978 137.9550014
  66.1609992  46.7009978 138.8390014  65.3153982  46.8686578 138.7260045
  69.8499992  52.2949978 136.7400014  68.9499992  52.4779978 136.4720014
  69.8839992  52.5539978 137.6610014  69.7312909  52.3550815 136.8277852
  75.5819992  44.5389978 125.1070014  75.0269992  44.1429978 124.4350014
  75.6819992  45.4499978 124.8290014  75.5195888  44.6078990 124.9775206
  75.5449992  50.3399978 137.9440014  74.6939992  50.5779978 137.5770014
  76.1349992  50.3229978 137.1910014  75.5082408  50.3702966 137.7918879
  73.8769992  53.3249978 125.5720014  73.5039992  52.4999978 125.8810014
  74.1539992  53.1419978 124.6750014  73.8633871  53.1872441 125.4929677
  71.0369992  48.1329978 132.5930014  70.1089992  47.9019978 132.5660014
  71.4879992  47.3559978 132.2630014  70.9708165  47.9962774 132.5446790
  63.5799992  52.4619978 128.7260014  64.1079992  53.2349978 128.5260014
  62.6999992  52.6859978 128.4250014  63.5333176  52.5983161 128.6578409
  59.3349992  47.3239978 123.3140014  59.9509992  47.9509978 123.6930014
  58.4729992  47.6399978 123.5850014  59.3028195  47.4525798 123.4025386
  65.0079992  50.1249978 128.3030014  64.7669992  51.0499978 128.3440014
  64.2669992  49.6659978 128.6990014  64.8748390  50.1896403 128.3621404
  65.5219992  54.2739978 134.6180014  65.8849992  55.1279978 134.3840014
  66.0539992  53.9819978 135.3580014  65.6436090  54.3514058 134.6860219
  63.6909992  55.1459978 127.8480014  62.7409992  55.2519978 127.8990014
  64.0429992  55.9669978 128.1930014  63.6085480  55.2714438 127.9015999
  69.0659992  50.3729978 134.3180014  68.6409992  50.1449978 135.1450014
  69.6469992  49.6339978 134.1360014  69.0863930  50.2419843 134.4064731
  71.2689992  51.3019978 123.3920014  71.6229992  50.9219978 124.1970014
  70.3209992  51.2079978 123.4790014  71.1891820  51.2373092 123.5138714
  71.7249992  54.9249978 136.7880014  71.1229992  54.3689978 136.2920014
  72.0059992  55.5919978 136.1620014  71.6806829  54.9391613 136.6355443
  75.7729992  55.7809978 123.5930014  76.5169992  56.3669978 123.4530014
  75.0789992  56.3499978 123.9270014  75.7810201  55.9380603 123.6189772
  59.8469992  42.1579978 136.1950014  58.9549992  42.4959978 136.1280014
  59.7489992  41.3019978 136.6130014  59.7114965  42.0886499 136.2423044
  72.1349992  49.9739978 125.6190014  71.8579992  49.2459978 126.1750014
  73.0629992  50.0929978 125.8240014  72.2224499  49.8904213 125.7228044
  59.4989992  53.9619978 134.6300014  59.7159992  53.0299978 134.5990014
  59.7449992  54.2369978 135.5130014  59.5619809  53.8715686 134.7451691
  65.3599992  52.4139978 121.8390014  65.5989992  51.6649978 121.2920014
  65.0909992  52.0259978 122.6720014  65.3563233  52.2591853 121.8767809
  64.2969992  51.9839978 124.2960014  64.4439992  51.4639978 125.0860014
  64.2939992  52.8909978 124.6020014  64.3167300  52.0353964 124.4455895
  60.7499992  49.2359978 124.8060014  60.0639992  49.5889978 125.3730014
  61.2729992  49.9989978 124.5600014  60.7269033  49.3873746 124.8502661
  68.5819992  41.8989978 135.0850014  69.2809992  41.9729978 135.7350014
  68.2009992  41.0339978 135.2390014  68.6262097  41.7922389 135.1947997
  69.3659992  41.5509978 126.1820014  69.5859992  42.0219978 125.3790014
  69.9249992  41.9449978 126.8520014  69.4716730  41.6687432 126.1625906
  67.0349992  53.6809978 125.0450014  66.2179992  54.1779978 125.0970014
  67.5639992  54.1569978 124.4050014  66.9948508  53.8132543 124.9656035
  66.5659992  43.2789978 127.0170014  67.3779992  43.7829978 127.0630014
  66.3219992  43.1339978 127.9310014  66.6441467  43.3283749 127.1468575
  67.1019992  44.2649978 136.2020014  67.2209992  44.8389978 136.9590014
  67.7569992  43.5769978 136.3160014  67.2069146  44.2505574 136.3211314
  67.4499992  40.3599978 127.9550014  67.1029992  40.9769978 128.6000014
  68.1089992  40.8609978 127.4740014  67.4915950  40.5121099 127.9782271
  64.3729992  54.7249978 125.0270014  64.5339992  55.5249978 124.5260014
  64.1759992  55.0319978 125.9120014  64.3683919  54.8759129 125.0781006
  63.1079992  41.4229978 124.6420014  63.0239992  42.3109978 124.9890014
  63.9979992  41.1579978 124.8740014  63.2168163  41.5087179 124.7208596
  73.3059992  42.1719978 137.0370014  72.3899992  42.4339978 136.9490014
  73.6419992  42.1689978 136.1400014  73.2259789  42.2074626 136.9037847
  71.9089992  45.9219978 131.1320014  71.1109992  45.5069978 130.8040014
  72.3539992  45.2319978 131.6230014  71.8599684  45.7718628 131.1535227
  61.3659992  51.8499978 123.7030014  61.9579992  52.5499978 123.9790014
  61.8249992  51.4169978 122.9830014  61.5090791  51.8872908 123.6434607
  59.6819992  44.5149978 122.8190014  59.6369992  45.4539978 122.9970014
  58.7939992  44.2789978 122.5490014  59.5558555  44.6116874 122.8068939
  72.9949992  55.1779978 132.7550014  72.8389992  55.8569978 132.0980014
  73.9279992  55.2499978 132.9580014  73.0997387  55.2806390 132.6925342
  60.4899992  39.2959978 131.4920014  60.2609992  39.3549978 130.5640014
  60.0479992  38.5049978 131.7980014  60.3988801  39.1970540 131.4064729
  59.4209992  53.2369978 127.6520014  58.5879992  53.7089978 127.6800014
  59.9659992  53.7469978 127.0540014  59.3807590  53.3705897 127.5749194
  58.7089992  55.8489978 138.9820014  59.2489992  55.6329978 139.7420014
  58.2279992  55.0439978 138.7930014  58.7178613  55.7105400 139.0604782
  63.3059992  54.7689978 140.6030014  64.0739992  54.3099978 140.9440014
  63.2849992  54.5429978 139.6730014  63.4082135  54.6756668 140.5239491
  67.3979992  54.2769978 121.9780014  66.7539992  53.6459978 122.2990014
  68.1599992  53.7459978 121.7460014  67.4128058  54.1187902 121.9906038
  69.8829992  53.1489978 139.3320014  69.5319992  52.2919978 139.5750014
  70.6089992  53.2909978 139.9390014  69.9331590  53.0510178 139.4472907
  72.0029992  54.0939978 122.2120014  72.2859992  53.2989978 122.6640014
  72.7419992  54.3269978 121.6510014  72.1416956  54.0167031 122.1979822
  58.6159992  49.6599978 139.9370014  58.7599992  48.7579978 139.6500014
  57.8439992  49.9459978 139.4490014  58.5313303  49.5753243 139.8317908
  62.9569992  50.0029978 122.0690014  63.0219992  49.2089978 122.6000014
  63.6099992  49.8849978 121.3790014  63.0541754  49.8783337 122.0484259
  65.2709992  49.6289978 139.3690014  64.9429992  49.8999978 138.5120014
  65.4229992  48.6879978 139.2820014  65.2466030  49.5388973 139.2397945
  68.3099992  51.0499978 121.8050014  68.0409992  51.2309978 122.7060014
  68.1029992  50.1249978 121.6740014  68.2452000  50.9496774 121.9105693
  71.0059992  49.5449978 136.7530014  71.7509992  50.1339978 136.6330014
  70.2489992  50.1269978 136.8160014  71.0055205  49.7041997 136.7451119
  59.4489992  46.8599978 139.3570014  59.8569992  46.0029978 139.2360014
  59.1879992  46.8739978 140.2780014  59.4696016  46.7445119 139.4649192
  64.1069992  47.9759978 124.3750014  63.6469992  47.4919978 125.0610014
  64.3619992  47.3069978 123.7390014  64.0785038  47.8193689 124.3829447
  63.3959992  45.8689978 136.7310014  62.7769992  46.5429978 137.0110014
  63.7399992  46.1899978 135.8980014  63.3577605  46.0047198 136.6566707
  65.1779992  46.2189978 122.6370014  64.9969992  46.0639978 121.7100014
  66.1279992  46.3269978 122.6820014  65.2816566  46.2123669 122.5160929
  68.4149992  48.3399978 140.0080014  69.3689992  48.4239978 139.9810014
  68.2549992  47.6279978 140.6280014  68.5237182  48.2552842 140.0880733
  74.5679992  48.5729978 122.0830014  74.2939992  48.1489978 121.2700014
  74.6069992  49.5049978 121.8660014  74.5357716  48.6408827 121.9424286
  63.7349992  43.2239978 137.8130014  63.8849992  42.4949978 137.2110014
  63.7369992  44.0009978 137.2540014  63.7557967  43.2292708 137.6550541
  64.1479992  41.5929978 135.3060014  64.6829992  42.0449978 134.6540014
  63.2949992  41.4849978 134.8830014  64.1060374  41.6402665 135.1596710
  65.7289992  47.0329978 135.5450014  66.4799992  46.8769978 134.9720014
  65.3899992  47.8849978 135.2700014  65.7859587  47.1268138 135.4294078
  70.1449992  44.8479978 140.5740014  70.3369992  43.9169978 140.4620014
  71.0029992  45.2729978 140.5640014  70.2872269  44.7779928 140.5573192
  71.4619992  47.6369978 138.6510014  71.1799992  48.3459978 138.0740014
  72.4039992  47.5639978 138.5000014  71.5507656  47.7243128 138.5514809
  62.2139992  44.4219978 139.7250014  61.4459992  43.8889978 139.5150014
  62.8919992  44.1119978 139.1250014  62.2006973  44.3072375 139.6151796
  64.9529992  39.0499978 135.7370014  64.8549992  39.9959978 135.6320014
  64.2109992  38.6769978 135.2620014  64.8391913  39.1291813 135.6583539
  66.2169992  43.3709978 139.3010014  65.9819992  43.1519978 140.2030014
  65.4339992  43.1639978 138.7910014  66.0789219  43.3130066 139.3555852
  68.9329992  42.4989978 138.3770014  67.9849992  42.5309978 138.5090014
  69.2449992  41.8729978 139.0300014  68.8455190  42.4187262 138.4833564
  70.5669992  41.1329978 140.3820014  70.4699992  40.1809978 140.3760014
  70.2449992  41.4009978 141.2420014  70.5101761  41.0389744 140.4974936
  60.3939992  42.3419978 139.4290014  60.6059992  41.6359978 138.8190014
  60.2829992  41.9049978 140.2730014  60.4080269  42.1861921 139.4595873
  65.1749992  38.3439978 138.4090014  65.8869992  37.7039978 138.3950014
  65.0739992  38.6099978 137.4950014  65.2587261  38.2924190 138.2835537
  65.5289992  40.0259978 140.4620014  65.3969992  39.5509978 139.6420014
  64.9289992  40.7709978 140.4070014  65.4299070  40.0615789 140.3423251
  65.0749992  56.9089978 123.6390014  66.0079992  57.0669978 123.7820014
  64.8109992  57.5849978 123.0140014  65.1669308  57.0219104 123.5741396
  58.6429992  51.5459978 123.1210014  59.5569992  51.6249978 123.3950014
  58.6509992  50.8589978 122.4550014  58.7691143  51.4639085 123.0684274
  57.2919992  56.9389978 128.1990014  56.6449992  56.4769978 127.6660014
  57.6469992  56.2669978 128.7810014  57.2514506  56.7849503 128.2047341
  58.1619992  55.0189978 130.0030014  57.8279992  54.1389978 130.1750014
  58.3849992  55.3649978 130.8680014  58.1463721  54.9451938 130.1434168
  75.7109992  55.8289978 132.9840014  75.6889992  56.0139978 133.9230014
  76.4009992  56.3969978 132.6430014  75.8013439  55.9311887 133.0664791
  75.2739992  55.3959978 135.9060014  74.7869992  54.6609978 135.5350014
  75.8229992  55.0019978 136.5840014  75.2815247  55.2421057 135.9468461
  73.7249992  51.1859978 140.5440014  72.8589992  51.0809978 140.9380014
  74.1009992  51.9439978 140.9900014  73.6573401  51.2741708 140.6582620
  75.0259992  49.4419978 126.0580014  75.8759992  49.8629978 126.1850014
  75.0309992  48.7019978 126.6650014  75.1431143  49.3996094 126.1574750
  75.4199992  47.4959978 127.8820014  74.6939992  47.0159978 128.2790014
  76.0019992  47.7009978 128.6140014  75.3991635  47.4579166 128.0353748
  75.1789992  50.2809978 132.8290014  76.0129992  49.9029978 132.5490014
  75.2909992  51.2239978 132.7100014  75.3082522  50.3567742 132.7746020
  73.6659992  53.1589978 135.1360014  73.0179992  53.4839978 135.7620014
  73.1479992  52.7179978 134.4620014  73.5074168  53.1438523 135.1305307
  75.6889992  47.3969978 124.2730014  75.1669992  47.7529978 123.5540014
  75.6559992  48.0719978 124.9510014  75.6130699  47.5369848 124.2662129
  74.0379992  44.6359978 122.8240014  74.1339992  45.3029978 122.1440014
  73.8979992  43.8209978 122.3420014  74.0322063  44.6170667 122.6658377
  73.2069992  46.0169978 128.4450014  73.0569992  45.0719978 128.4240014
  72.8529992  46.2979978 129.2880014  73.1385527  45.9255605 128.5561859
  58.2419992  48.0949978 132.4550014  58.4269992  48.0129978 131.5190014
  59.0919992  47.9709978 132.8790014  58.3820916  48.0670393 132.3842896
  74.0629992  47.9869978 138.0830014  74.6459992  47.2519978 138.2750014
  74.6269992  48.7589978 138.1300014  74.2189781  47.9908145 138.1156164
  75.5599992  45.8899978 138.7680014  74.6969992  45.5109978 138.6020014
  76.1639992  45.1509978 138.6940014  75.5235944  45.7382978 138.7352984
  73.2849992  42.0439978 121.9410014  73.8959992  41.6729978 122.5780014
  72.4479992  41.6229978 122.1370014  73.2554947  41.9362756 122.0547252
  72.9179992  43.5989978 126.9070014  73.1969992  42.6919978 127.0310014
  73.6769992  44.0329978 126.5180014  73.0588619  43.5334502 126.8713795
  73.5289992  44.1809978 132.3430014  74.4619992  44.3929978 132.3090014
  73.2939992  44.2819978 133.2650014  73.6248308  44.2236503 132.4630214
  73.5589992  44.9179978 135.1190014  72.7159992  45.1859978 135.4850014
  74.0009992  45.7399978 134.9080014  73.5034138  45.0658273 135.1405518
  57.8399992  43.3649978 138.5960014  58.7589992  43.2429978 138.8320014
  57.3899992  42.6149978 138.9850014  57.9051148  43.2468751 138.6809408
  75.8419992  38.8979978 140.4720014  76.1909992  38.2439978 139.8670014
  75.9889992  39.7349978 140.0330014  75.9097355  38.9216067 140.3296564
  73.5309992  40.8619978 126.9550014  73.7129992  40.4129978 127.7810014
  72.9309992  40.2779978 126.4920014  73.4747529  40.7216131 127.0053619
  59.0609992  41.6779978 131.4870014  59.5059992  40.8859978 131.7890014
  59.5269992  42.3939978 131.9180014  59.1849059  41.6664474 131.5866079
  57.3649992  44.6769978 132.5560014  57.8569992  44.4559978 131.7650014
  57.7269992  45.5169978 132.8370014  57.4812923  44.7603468 132.4857407
  75.3609992  41.0069978 138.8220014  74.4439992  41.2779978 138.7860014
  75.4839992  40.4719978 138.0380014  75.2520828  40.9717700 138.7110785
  75.3979992  40.9299978 123.4830014  75.8099992  40.2089978 123.0080014
  76.0789992  41.5989978 123.5420014  75.5465900  40.9217306 123.4259038
  57.6789992  40.9349978 126.6100014  56.7539992  41.1429978 126.4810014
  58.1329992  41.4189978 125.9210014  57.6136374  41.0289949 126.4990957
  72.4489992  55.9189978 128.5560014  73.1019992  55.5709978 127.9480014
  72.9599992  56.4069978 129.2020014  72.6072777  55.9373815 128.5602047
  57.6419992  39.6729978 134.9550014  56.9769992  39.4269978 135.5980014
  57.1989992  40.2949978 134.3770014  57.4910937  39.7233614 134.9649379
  59.8339992  52.8479978 139.0990014  59.0129992  53.0229978 138.6390014
  59.5819992  52.7749978 140.0200014  59.6876173  52.8620794 139.1604972
  62.7879992  53.8219978 135.3580014  62.3639992  54.6319978 135.0750014
  63.6929992  53.9079978 135.0560014  62.8522433  53.9443331 135.2785377
  67.0999992  55.2209978 138.3170014  67.2839992  54.8879978 139.1950014
  67.9459992  55.5309978 137.9950014  67.2396484  55.2172979 138.3937617
  69.4449992  56.5069978 137.5610014  70.1219992  55.8739978 137.3210014
  69.7659992  56.9079978 138.3680014  69.5811323  56.4745691 137.6373158
  74.3619992  39.0969978 136.6410014  73.5489992  39.4219978 136.2530014
  74.5949992  38.3359978 136.1080014  74.2822566  39.0386559 136.5159213
  60.1899992  57.0789978 135.4050014  59.4699992  57.5189978 134.9540014
  59.8249992  56.8279978 136.2540014  60.0419796  57.1053824 135.4579329
  62.6569992  56.6789978 134.4350014  61.7929992  56.7509978 134.8390014
  62.6019992  57.2259978 133.6510014  62.5311942  56.7627849 134.3844000
  67.3679992  56.5669978 133.6100014  66.9109992  57.0959978 132.9560014
  67.5309992  57.1699978 134.3360014  67.3274476  56.7209140 133.6185499
  69.6959992  55.4449978 134.5550014  68.7909992  55.6099978 134.2900014
  70.1239992  56.2979978 134.4900014  69.6300700  55.5829529 134.5099520
  72.2999992  57.0149978 134.8500014  72.1179992  57.9309978 134.6400014
  72.4769992  56.6039978 134.0040014  72.2989907  57.0849741 134.7067883
  59.6049992  55.7019978 132.3150014  59.5869992  55.2759978 133.1730014
  60.4099992  55.3829978 131.9070014  59.7113221  55.6007233 132.3770225
  61.7459992  54.4119978 130.9700014  61.5269992  53.4949978 131.1400014
  62.5699992  54.5519978 131.4360014  61.8274702  54.3055511 131.0562527
  64.2829992  54.8819978 131.8190014  64.4959992  53.9939978 131.5320014
  64.3479992  54.8469978 132.7740014  64.3209075  54.7558307 131.9087373
  67.7919992  40.5459978 130.9630014  67.1179992  39.9159978 131.2190014
  68.3559992  40.0619978 130.3600014  67.7760384  40.3943708 130.9165020
  72.9349992  38.6529978 131.0760014  73.5379992  39.2009978 130.5740014
  72.0649992  38.9719978 130.8360014  72.8999190  38.7711041 130.9748679
  74.6619992  39.7919978 129.4090014  75.2729992  39.2779978 128.8830014
  75.0439992  40.6689978 129.4330014  74.7974475  39.8401323 129.3401208
  60.1189992  39.1799978 128.7850014  59.3419992  38.9449978 128.2780014
  60.6489992  38.3829978 128.7940014  60.0843451  39.0401268 128.7168627
  58.9549992  38.9779978 124.5890014  59.3939992  39.5889978 123.9970014
  58.3209992  39.5159978 125.0630014  58.9293859  39.1344064 124.5720305
  64.6979992  39.1059978 128.5990014  65.5719992  39.4949978 128.5690014
  64.5619992  38.8909978 129.5210014  64.7993207  39.1301923 128.7196509
  70.2549992  39.1359978 130.2480014  70.3309992  39.2319978 129.2990014
  69.9799992  38.2289978 130.3770014  70.2282042  39.0264241 130.1353811
  71.6079992  39.1619978 125.9400014  70.9049992  39.7769978 125.7310014
  71.1629992  38.3249978 126.0720014  71.4516292  39.1330085 125.9292439
  58.8559992  54.9259978 125.4870014  58.1709992  54.8879978 124.8190014
  58.8599992  55.8389978 125.7750014  58.7628174  55.0441998 125.4345310
  60.8159992  40.8939978 123.0310014  61.3069992  40.2639978 122.5040014
  61.4389992  41.1899978 123.6950014  60.9675062  40.8476770 123.0485438
  65.8419992  41.1869978 125.4890014  66.0199992  40.5399978 126.1710014
  65.7879992  42.0209978 125.9560014  65.8591025  41.2110504 125.6456433
  67.7199992  56.1349978 123.8840014  68.5859992  56.5019978 123.7060014
  67.4739992  55.6959978 123.0700014  67.8052097  56.1258525 123.7496019
  74.4289992  55.6979978 126.5630014  74.2349992  54.9499978 125.9980014
  74.3899992  56.4559978 125.9800014  74.3971645  55.6980786 126.4068148
  60.0759992  39.6939978 138.3030014  59.7099992  38.9279978 138.7460014
  60.9889992  39.7229978 138.5900014  60.1493225  39.5931906 138.4023459
  62.0489992  39.0439978 139.8390014  62.9479992  38.7699978 139.6540014
  61.6629992  38.3019978 140.3030014  62.1197237  38.9061508 139.8764710
  60.6739992  55.8459978 122.5120014  60.4059992  56.1319978 123.3850014
  61.4449992  55.2999978 122.6640014  60.7415600  55.8113330 122.6521499
  70.4709992  38.3769978 140.0210014  70.5469992  37.9509978 140.8750014
  71.3639992  38.3899978 139.6780014  70.6022267  38.3203952 140.0915932
  73.6469992  54.4499978 138.7130014  72.8649992  54.2629978 138.1940014
  73.5749992  55.3789978 138.9310014  73.5300863  54.5500221 138.6713574
  88.0529992  48.3359978 128.7440014  88.1419992  49.2799978 128.6120014
  87.4149992  48.0609978 128.0860014  87.9789062  48.4279812 128.6369641
  86.9859992  47.5909978 132.1630014  86.9479992  46.9449978 132.8680014
  86.6639992  47.1239978 131.3920014  86.9372679  47.4394276 132.1552921
  79.3539992  47.2049978 133.7560014  79.3959992  46.5799978 134.4790014
  80.0569992  47.8289978 133.9380014  79.4547345  47.2037873 133.8795274
  90.6919992  50.5299978 130.4650014  90.2509992  49.8099978 130.9150014
  90.6789992  51.2509978 131.0940014  90.6297960  50.5288329 130.6117567
  80.2779992  51.6549978 132.2910014  79.9079992  50.8529978 131.9210014
  81.2189992  51.4869978 132.3370014  80.3545984  51.5224638 132.2465603
  76.8879992  45.3149978 127.6840014  76.4399992  46.1609978 127.6650014
  76.3269992  44.7359978 127.1680014  76.7509603  45.3523674 127.6116720
  77.5979992  47.4769978 129.8100014  77.8119992  46.7069978 130.3370014
  78.3359992  47.5669978 129.2060014  77.7269652  47.3838012 129.8005212
  87.8039992  55.6339978 130.6770014  88.4229992  54.9579978 130.4030014
  87.5949992  55.4159978 131.5850014  87.8606232  55.5117938 130.7622517
  85.3749992  50.0229978 132.5690014  85.6789992  49.3369978 131.9750014
  86.0969992  50.1419978 133.1870014  85.5141152  49.9452189 132.5712123
  94.0379992  41.6249978 133.4300014  94.0879992  42.2349978 134.1660014
  94.4639992  42.0859978 132.7070014  94.1024108  41.7707709 133.4330112
  88.5159992  44.4169978 132.8970014  88.6589992  43.4709978 132.9170014
  88.4099992  44.6239978 131.9680014  88.5212509  44.3154813 132.7742231
  81.6709992  42.5189978 130.1690014  81.7139992  43.3789978 129.7510014
  81.2129992  41.9669978 129.5350014  81.6149815  42.5620621 130.0261197
  89.3929992  42.6499978 128.5700014  90.0399992  42.3209978 129.1950014
  89.9029992  43.1669978 127.9470014  89.5504317  42.6749227 128.5712167
  78.2909992  44.9159978 130.9310014  78.9449992  44.3659978 131.3630014
  78.3149992  44.6419978 130.0140014  78.3837199  44.8037167 130.8661668
  83.4479992  46.4659978 130.1460014  84.0639992  45.9389978 130.6560014
  82.8609992  45.8259978 129.7430014  83.4529239  46.3074117 130.1612952
  94.4299992  43.1029978 135.6660014  93.7409992  43.7609978 135.5700014
  94.4449992  42.9049978 136.6020014  94.3376740  43.1663242 135.7794630
  80.4809992  41.4369978 134.2430014  80.2619992  41.9669978 133.4770014
  79.8129992  41.6629978 134.8900014  80.3607001  41.5401154 134.2256064
  87.8499992  50.9369978 127.7870014  87.5549992  50.6139978 126.9360014
  87.5259992  51.8369978 127.8280014  87.7657983  51.0144026 127.6759771
  83.0499992  49.1119978 134.5310014  82.3099992  49.7109978 134.6340014
  83.7639992  49.6659978 134.2150014  83.0453288  49.2687356 134.5023805
  91.1569992  41.9409978 130.5500014  90.9419992  41.1749978 131.0830014
  91.8129992  42.4129978 131.0630014  91.2162673  41.9000728 130.6921990
  80.0749992  43.3289978 132.1950014  80.6889992  43.9619978 132.5690014
  80.5869992  42.8569978 131.5390014  80.2282277  43.3517352 132.1574279
  81.4579992  51.0769978 135.3180014  81.4519992  51.9559978 134.9400014
  80.6039992  50.9929978 135.7430014  81.3417925  51.1859535 135.3236887
  77.5789992  50.7479978 126.1000014  77.3069992  50.9769978 125.2110014
  77.6239992  51.5849978 126.5600014  77.5478709  50.8926058 126.0406107
  91.2039992  52.3689978 132.8120014  90.2619992  52.4279978 132.9740014
  91.4799992  53.2749978 132.6750014  91.1125865  52.4995288 132.8156192
  91.5039992  40.6559978 134.2300014  90.7679992  41.2659978 134.1920014
  92.1879992  41.0709978 133.7030014  91.4955506  40.7956400 134.1536051
  84.5079992  38.7419978 131.6960014  84.3899992  37.7939978 131.6410014
  83.6529992  39.0749978 131.9690014  84.3762679  38.6571926 131.7253720
  89.4559992  54.1499978 129.4380014  89.8809992  53.4429978 128.9530014
  89.7729992  54.9519978 129.0210014  89.5570266  54.1615190 129.3152479
  90.6159992  52.0509978 127.9460014  90.3579992  51.3609978 127.3350014
  90.6869992  51.6079978 128.7920014  90.5902837  51.8967106 127.9766912
  92.3019992  50.6179978 136.4240014  92.4409992  50.0259978 135.6840014
  92.4689992  51.4909978 136.0670014  92.3435562  50.6549896 136.2746283
  86.7739992  47.5799978 126.1960014  86.0629992  48.1149978 125.8440014
  87.4649992  47.6349978 125.5360014  86.7700751  47.6606777 126.0585858
  86.8279992  46.0369978 123.2350014  87.5289992  46.0599978 123.8860014
  87.1299992  45.4089978 122.5790014  86.9648282  45.9552339 123.2354496
  94.1429992  46.9579978 134.4900014  93.4909992  47.6519978 134.5790014
  94.6089992  47.1679978 133.6800014  94.1165937  47.0815019 134.3927533
  90.1799992  47.7889978 127.1480014  89.4479992  48.0179978 127.7210014
  90.6269992  47.0759978 127.6030014  90.1402753  47.7238972 127.2879715
  90.0769992  45.9639978 136.2160014  90.1569992  46.7269978 136.7870014
  89.4759992  46.2429978 135.5250014  90.0067245  46.1062630 136.2008424
  81.8249992  48.4199978 129.0300014  81.4949992  48.0489978 128.2120014
  82.4139992  47.7489978 129.3770014  81.8593970  48.2786063 128.9649404
  83.1919992  51.8479978 131.7120014  83.0969992  51.2689978 130.9550014
  83.9209992  51.4769978 132.2080014  83.2776161  51.7185891 131.6755209
  82.1919992  47.1879978 132.6640014  82.7569992  47.3099978 131.9010014
  82.5109992  47.8259978 133.3030014  82.3123977  47.2908851 132.6459424
  88.5009992  52.6919978 133.3980014  88.2609992  53.3539978 134.0460014
  88.3029992  51.8569978 133.8230014  88.4413826  52.6698115 133.5441566
  83.0719992  51.5879978 137.3810014  82.7609992  52.3699978 137.8360014
  82.4219992  51.4349978 136.6950014  82.9415538  51.6744087 137.3505898
  89.0509992  46.9519978 124.8330014  89.6299992  47.1019978 125.5800014
  89.4649992  47.4219978 124.1100014  89.1863122  47.0361277 124.8375042
  79.9919992  47.7859978 136.6100014  80.0619992  48.4369978 137.3080014
  79.1009992  47.8889978 136.2750014  79.8811802  47.8889757 136.6602249
  86.7769992  53.6879978 128.2680014  87.2509992  53.9839978 129.0460014
  86.2139992  54.4269978 128.0350014  86.7657361  53.8282721 128.3428611
  81.3109992  53.6589978 138.1440014  81.3189992  53.5229978 137.1970014
  80.3949992  53.5419978 138.3960014  81.1882528  53.6245463 138.0483243
  92.7499992  38.7019978 124.6460014  91.8499992  38.8409978 124.9410014
  93.0019992  39.5329978 124.2440014  92.6608683  38.8334055 124.6320232
  80.8159992  47.4889978 126.6200014  80.5239992  48.2569978 126.1290014
  80.1409992  46.8299978 126.4570014  80.6848497  47.5049745 126.5308260
  93.9389992  53.0679978 123.0220014  94.0119992  54.0069978 123.1930014
  94.8439992  52.7629978 122.9660014  94.0714158  53.1553061 123.0378392
  76.9089992  49.8519978 135.4350014  76.4069992  49.8239978 134.6200014
  76.9139992  48.9469978 135.7440014  76.8410416  49.7257368 135.3653766
  76.6589992  52.6329978 132.3190014  77.6049992  52.4879978 132.3000014
  76.5459992  53.4169978 132.8560014  76.7733578  52.7191697 132.3890317
  94.8569992  53.2989978 138.0010014  94.8069992  52.3429978 137.9640014
  94.0299992  53.5659978 138.4020014  94.7383987  53.2045174 138.0501446
  85.8349992  52.8729978 136.8770014  85.9229992  53.6989978 137.3520014
  84.9719992  52.5429978 137.1260014  85.7303357  52.9415468 136.9757653
  86.2499992  56.6449978 126.6830014  86.1739992  56.5239978 125.7370014
  86.2819992  57.5939978 126.8020014  86.2439156  56.7567530 126.5695048
  79.9029992  55.4339978 128.4640014  80.0549992  55.0859978 129.3430014
  79.0519992  55.0769978 128.2090014  79.8087899  55.3381738 128.5497340
  89.3509992  55.7989978 123.6850014  89.7259992  55.0549978 123.2150014
  89.3559992  55.5289978 124.6040014  89.4030024  55.6606950 123.7447987
  89.0199992  55.7249978 126.4350014  88.0849992  55.8249978 126.6130014
  89.2999992  55.0149978 127.0130014  88.9298173  55.6427239 126.5374998
  92.0089992  44.7919978 138.4810014  91.6009992  45.2719978 137.7610014
  92.0489992  43.8859978 138.1730014  91.9585476  44.7353160 138.3408247
  79.1579992  51.1759978 136.4780014  79.3739992  50.8139978 137.3370014
  78.3019992  50.8009978 136.2680014  79.0719354  51.0757906 136.5672160
  81.7759992  39.6459978 132.4730014  80.9149992  39.5589978 132.0660014
  81.7539992  40.5019978 132.9010014  81.6550411  39.7497884 132.4750857
  86.4389992  39.3679978 135.8480014  86.8589992  38.9529978 136.6010014
  85.5059992  39.1889978 135.9650014  86.3703736  39.2869910 135.9668968
  89.7659992  43.1229978 136.7010014  89.2519992  42.9979978 137.4990014
  89.6099992  44.0359978 136.4570014  89.6746967  43.2292123 136.7770937
  90.5279992  47.9839978 122.4630014  90.5699992  47.7619978 121.5330014
  91.3769992  48.3829978 122.6530014  90.6485253  48.0075498 122.3613822
  86.1009992  41.8599978 123.1330014  85.8469992  41.8789978 124.0560014
  85.8439992  40.9889978 122.8320014  86.0315133  41.7448110 123.2185082
  81.8669992  44.6109978 133.5680014  81.2259992  44.5709978 134.2770014
  81.9049992  45.5379978 133.3310014  81.7843670  44.7307795 133.6330550
  81.8639992  44.8319978 128.4800014  80.9719992  44.4919978 128.4220014
  82.3149992  44.4549978 127.7250014  81.8026815  44.7343762 128.3699203
  87.3999992  45.2479978 127.2970014  86.9909992  46.0629978 127.0060014
  88.1199992  45.1079978 126.6830014  87.4414013  45.3406571 127.1740875
  86.5019992  45.4239978 138.7850014  85.9389992  44.7189978 139.1060014
  87.3279992  45.3029978 139.2530014  86.5366674  45.3112165 138.8921751
  88.4049992  44.6939978 130.1110014  88.2089992  45.2999978 129.3960014
  88.5859992  43.8609978 129.6770014  88.4026584  44.6642513 129.9544212
  79.6169992  44.9319978 135.4350014  79.5789992  45.3319978 136.3040014
  79.1269992  44.1149978 135.5260014  79.5455621  44.8762510 135.5661377
  82.9829992  42.3059978 122.2340014  82.5519992  41.8609978 122.9640014
  82.2649992  42.6769978 121.7220014  82.8269363  42.2952968 122.2646211
  76.2259992  42.0479978 129.2860014  76.8559992  42.0189978 130.0050014
  76.6749992  41.6229978 128.5560014  76.3730692  41.9865316 129.2857771
  77.4999992  42.7939978 124.7100014  77.9739992  43.3849978 124.1250014
  76.7819992  43.3239978 125.0570014  77.4678640  42.9465511 124.6767969
  87.6689992  46.3319978 134.7830014  87.9919992  45.7009978 134.1400014
  87.2279992  45.7979978 135.4430014  87.6535789  46.1733522 134.7842232
  84.4459992  42.2599978 129.5670014  83.5349992  42.3169978 129.8550014
  84.9509992  42.1999978 130.3770014  84.3895387  42.2596870 129.7160646
  79.2739992  43.8889978 128.3930014  78.3849992  43.9879978 128.0530014
  79.5709992  43.0469978 128.0470014  79.1924177  43.7887687 128.2996940
  82.9269992  43.8889978 126.0500014  83.8589992  44.0179978 126.2280014
  82.7119992  44.5579978 125.4000014  83.0254472  43.9970806 125.9864891
  88.8509992  41.4949978 132.8310014  88.1739992  41.6259978 133.4950014
  88.3659992  41.3399978 132.0210014  88.6927265  41.4919659 132.8123397
  81.6009992  45.0829978 123.6170014  81.0589992  44.7039978 122.9250014
  82.4349992  45.2779978 123.1880014  81.6395159  45.0575076 123.4644419
  92.1389992  57.1659978 139.1080014  92.3379992  57.5899978 138.2730014
  92.7939992  57.5099978 139.7150014  92.2548501  57.2706091 139.0757097
  79.7369992  49.6399978 138.7160014  80.4689992  49.8949978 139.2770014
  78.9559992  49.8449978 139.2310014  79.7317684  49.7026468 138.8624782
  85.7659992  45.0469978 131.4540014  86.3299992  44.5009978 130.9070014
  85.6179992  44.5259978 132.2420014  85.8232575  44.9016552 131.4856987
  80.7679992  41.1839978 127.8720014  80.4509992  40.2809978 127.8370014
  81.5489992  41.1859978 127.3190014  80.8302307  41.0606951 127.7924314
  84.3919992  43.4359978 133.8680014  83.5569992  43.8899978 133.9780014
  84.9159992  43.7119978 134.6200014  84.3485070  43.5354666 133.9847152
  84.9369992  49.6489978 125.5520014  84.1919992  49.1409978 125.2300014
  84.8019992  49.6979978 126.4990014  84.8169047  49.5861596 125.6358845
  92.0869992  48.7819978 134.3390014  92.7279992  49.2379978 133.7950014
  91.2559992  48.8949978 133.8770014  92.0625171  48.8597502 134.2020237
  88.8339992  42.4629978 123.7520014  87.8959992  42.5739978 123.6000014
  89.1319992  43.3189978 124.0580014  88.7456402  42.5940621 123.7725571
  86.4559992  49.8329978 136.7890014  86.1099992  49.4509978 137.5960014
  86.2559992  50.7659978 136.8610014  86.3816523  49.9069095 136.9090735
  89.5529992  44.3299978 125.4120014  90.4449992  44.1919978 125.7310014
  89.6089992  45.1209978 124.8760014  89.6827107  44.4180526 125.3832091
  80.0609992  48.9439978 131.3220014  80.8059992  48.9409978 130.7210014
  80.1389992  48.1199978 131.8040014  80.1734158  48.8322916 131.3049153
  87.0619992  51.1069978 124.5780014  86.7669992  51.9339978 124.9590014
  86.3589992  50.4879978 124.7740014  86.9265471  51.1365227 124.6566698
  77.0689992  47.4039978 136.6370014  77.2919992  46.9859978 137.4690014
  76.4669992  46.7919978 136.2140014  77.0181260  47.2639933 136.6937320
  84.0859992  46.9209978 138.8500014  83.7899992  46.7559978 137.9550014
  85.0169992  46.7009978 138.8390014  84.1713982  46.8686578 138.7260045
  88.7059992  52.2949978 136.7400014  87.8059992  52.4779978 136.4720014
  88.7399992  52.5539978 137.6610014  88.5872909  52.3550815 136.8277852
  94.4379992  44.5389978 125.1070014  93.8829992  44.1429978 124.4350014
  94.5379992  45.4499978 124.8290014  94.3755888  44.6078990 124.9775206
  94.4009992  50.3399978 137.9440014  93.5499992  50.5779978 137.5770014
  94.9909992  50.3229978 137.1910014  94.3642408  50.3702966 137.7918879
  92.7329992  53.3249978 125.5720014  92.3599992  52.4999978 125.8810014
  93.0099992  53.1419978 124.6750014  92.7193871  53.1872441 125.4929677
  89.8929992  48.1329978 132.5930014  88.9649992  47.9019978 132.5660014
  90.3439992  47.3559978 132.2630014  89.8268165  47.9962774 132.5446790
  82.4359992  52.4619978 128.7260014  82.9639992  53.2349978 128.5260014
  81.5559992  52.6859978 128.4250014  82.3893176  52.5983161 128.6578409
  78.1909992  47.3239978 123.3140014  78.8069992  47.9509978 123.6930014
  77.3289992  47.6399978 123.5850014  78.1588195  47.4525798 123.4025386
  83.8639992  50.1249978 128.3030014  83.6229992  51.0499978 128.3440014
  83.1229992  49.6659978 128.6990014  83.7308390  50.1896403 128.3621404
  84.3779992  54.2739978 134.6180014  84.7409992  55.1279978 134.3840014
  84.9099992  53.9819978 135.3580014  84.4996090  54.3514058 134.6860219
  82.5469992  55.1459978 127.8480014  81.5969992  55.2519978 127.8990014
  82.8989992  55.9669978 128.1930014  82.4645480  55.2714438 127.9015999
  87.9219992  50.3729978 134.3180014  87.4969992  50.1449978 135.1450014
  88.5029992  49.6339978 134.1360014  87.9423930  50.2419843 134.4064732
  90.1249992  51.3019978 123.3920014  90.4789992  50.9219978 124.1970014
  89.1769992  51.2079978 123.4790014  90.0451820  51.2373092 123.5138714
  90.5809992  54.9249978 136.7880014  89.9789992  54.3689978 136.2920014
  90.8619992  55.5919978 136.1620014  90.5366829  54.9391613 136.6355443
  94.6289992  55.7809978 123.5930014  95.3729992  56.3669978 123.4530014
  93.9349992  56.3499978 123.9270014  94.6370201  55.9380603 123.6189772
  78.7029992  42.1579978 136.1950014  77.8109992  42.4959978 136.1280014
  78.6049992  41.3019978 136.6130014  78.5674965  42.0886499 136.2423044
  90.9909992  49.9739978 125.6190014  90.7139992  49.2459978 126.1750014
  91.9189992  50.0929978 125.8240014  91.0784499  49.8904213 125.7228044
  78.3549992  53.9619978 134.6300014  78.5719992  53.0299978 134.5990014
  78.6009992  54.2369978 135.5130014  78.4179809  53.8715686 134.7451691
  84.2159992  52.4139978 121.8390014  84.4549992  51.6649978 121.2920014
  83.9469992  52.0259978 122.6720014  84.2123233  52.2591853 121.8767809
  83.1529992  51.9839978 124.2960014  83.2999992  51.4639978 125.0860014
  83.1499992  52.8909978 124.6020014  83.1727300  52.0353964 124.4455895
  79.6059992  49.2359978 124.8060014  78.9199992  49.5889978 125.3730014
  80.1289992  49.9989978 124.5600014  79.5829033  49.3873746 124.8502661
  87.4379992  41.8989978 135.0850014  88.1369992  41.9729978 135.7350014
  87.0569992  41.0339978 135.2390014  87.4822097  41.7922389 135.1947997
  88.2219992  41.5509978 126.1820014  88.4419992  42.0219978 125.3790014
  88.7809992  41.9449978 126.8520014  88.3276730  41.6687432 126.1625906
  85.8909992  53.6809978 125.0450014  85.0739992  54.1779978 125.0970014
  86.4199992  54.1569978 124.4050014  85.8508508  53.8132543 124.9656035
  85.4219992  43.2789978 127.0170014  86.2339992  43.7829978 127.0630014
  85.1779992  43.1339978 127.9310014  85.5001467  43.3283749 127.1468575
  85.9579992  44.2649978 136.2020014  86.0769992  44.8389978 136.9590014
  86.6129992  43.5769978 136.3160014  86.0629146  44.2505574 136.3211314
  86.3059992  40.3599978 127.9550014  85.9589992  40.9769978 128.6000014
  86.9649992  40.8609978 127.4740014  86.3475949  40.5121099 127.9782271
  83.2289992  54.7249978 125.0270014  83.3899992  55.5249978 124.5260014
  83.0319992  55.0319978 125.9120014  83.2243919  54.8759129 125.0781006
  81.9639992  41.4229978 124.6420014  81.8799992  42.3109978 124.9890014
  82.8539992  41.1579978 124.8740014  82.0728163  41.5087179 124.7208596
  92.1619992  42.1719978 137.0370014  91.2459992  42.4339978 136.9490014
  92.4979992  42.1689978 136.1400014  92.0819789  42.2074626 136.9037847
  90.7649992  45.9219978 131.1320014  89.9669992  45.5069978 130.8040014
  91.2099992  45.2319978 131.6230014  90.7159684  45.7718628 131.1535227
  80.2219992  51.8499978 123.7030014  80.8139992  52.5499978 123.9790014
  80.6809992  51.4169978 122.9830014  80.3650791  51.8872908 123.6434607
  78.5379992  44.5149978 122.8190014  78.4929992  45.4539978 122.9970014
  77.6499992  44.2789978 122.5490014  78.4118555  44.6116874 122.8068939
  91.8509992  55.1779978 132.7550014  91.6949992  55.8569978 132.0980014
  92.7839992  55.2499978 132.9580014  91.9557387  55.2806390 132.6925342
  79.3459992  39.2959978 131.4920014  79.1169992  39.3549978 130.5640014
  78.9039992  38.5049978 131.7980014  79.2548801  39.1970540 131.4064729
  78.2769992  53.2369978 127.6520014  77.4439992  53.7089978 127.6800014
  78.8219992  53.7469978 127.0540014  78.2367590  53.3705897 127.5749194
  77.5649992  55.8489978 138.9820014  78.1049992  55.6329978 139.7420014
  77.0839992  55.0439978 138.7930014  77.5738613  55.7105400 139.0604782
  82.1619992  54.7689978 140.6030014  82.9299992  54.3099978 140.9440014
  82.1409992  54.5429978 139.6730014  82.2642135  54.6756668 140.5239491
  86.2539992  54.2769978 121.9780014  85.6099992  53.6459978 122.2990014
  87.0159992  53.7459978 121.7460014  86.2688058  54.1187902 121.9906038
  88.7389992  53.1489978 139.3320014  88.3879992  52.2919978 139.5750014
  89.4649992  53.2909978 139.9390014  88.7891590  53.0510178 139.4472907
  90.8589992  54.0939978 122.2120014  91.1419992  53.2989978 122.6640014
  91.5979992  54.3269978 121.6510014  90.9976956  54.0167031 122.1979822
  77.4719992  49.6599978 139.9370014  77.6159992  48.7579978 139.6500014
  76.6999992  49.9459978 139.4490014  77.3873303  49.5753243 139.8317908
  81.8129992  50.0029978 122.0690014  81.8779992  49.2089978 122.6000014
  82.4659992  49.8849978 121.3790014  81.9101754  49.8783337 122.0484259
  84.1269992  49.6289978 139.3690014  83.7989992  49.8999978 138.5120014
  84.2789992  48.6879978 139.2820014  84.1026030  49.5388973 139.2397945
  87.1659992  51.0499978 121.8050014  86.8969992  51.2309978 122.7060014
  86.9589992  50.1249978 121.6740014  87.1012000  50.9496774 121.9105693
  89.8619992  49.5449978 136.7530014  90.6069992  50.1339978 136.6330014
  89.1049992  50.1269978 136.8160014  89.8615205  49.7041997 136.7451119
  78.3049992  46.8599978 139.3570014  78.7129992  46.0029978 139.2360014
  78.0439992  46.8739978 140.2780014  78.3256016  46.7445119 139.4649192
  82.9629992  47.9759978 124.3750014  82.5029992  47.4919978 125.0610014
  83.2179992  47.3069978 123.7390014  82.9345038  47.8193689 124.3829447
  82.2519992  45.8689978 136.7310014  81.6329992  46.5429978 137.0110014
  82.5959992  46.1899978 135.8980014  82.2137605  46.0047198 136.6566707
  84.0339992  46.2189978 122.6370014  83.8529992  46.0639978 121.7100014
  84.9839992  46.3269978 122.6820014  84.1376566  46.2123669 122.5160929
  87.2709992  48.3399978 140.0080014  88.2249992  48.4239978 139.9810014
  87.1109992  47.6279978 140.6280014  87.3797182  48.2552842 140.0880733
  93.4239992  48.5729978 122.0830014  93.1499992  48.1489978 121.2700014
  93.4629992  49.5049978 121.8660014  93.3917716  48.6408827 121.9424286
  82.5909992  43.2239978 137.8130014  82.7409992  42.4949978 137.2110014
  82.5929992  44.0009978 137.2540014  82.6117967  43.2292708 137.6550541
  83.0039992  41.5929978 135.3060014  83.5389992  42.0449978 134.6540014
  82.1509992  41.4849978 134.8830014  82.9620374  41.6402665 135.1596710
  84.5849992  47.0329978 135.5450014  85.3359992  46.8769978 134.9720014
  84.2459992  47.8849978 135.2700014  84.6419587  47.1268138 135.4294078
  89.0009992  44.8479978 140.5740014  89.1929992  43.9169978 140.4620014
  89.8589992  45.2729978 140.5640014  89.1432269  44.7779928 140.5573192
  90.3179992  47.6369978 138.6510014  90.0359992  48.3459978 138.0740014
  91.2599992  47.5639978 138.5000014  90.4067656  47.7243128 138.5514809
  81.0699992  44.4219978 139.7250014  80.3019992  43.8889978 139.5150014
  81.7479992  44.1119978 139.1250014  81.0566973  44.3072375 139.6151796
  83.8089992  39.0499978 135.7370014  83.7109992  39.9959978 135.6320014
  83.0669992  38.6769978 135.2620014  83.6951913  39.1291813 135.6583539
  85.0729992  43.3709978 139.3010014  84.8379992  43.1519978 140.2030014
  84.2899992  43.1639978 138.7910014  84.9349219  43.3130066 139.3555852
  87.7889992  42.4989978 138.3770014  86.8409992  42.5309978 138.5090014
  88.1009992  41.8729978 139.0300014  87.7015190  42.4187262 138.4833564
  89.4229992  41.1329978 140.3820014  89.3259992  40.1809978 140.3760014
  89.1009992  41.4009978 141.2420014  89.3661761  41.0389744 140.4974936
  79.2499992  42.3419978 139.4290014  79.4619992  41.6359978 138.8190014
  79.1389992  41.9049978 140.2730014  79.2640269  42.1861921 139.4595873
  84.0309992  38.3439978 138.4090014  84.7429992  37.7039978 138.3950014
  83.9299992  38.6099978 137.4950014  84.1147261  38.2924190 138.2835537
  84.3849992  40.0259978 140.4620014  84.2529992  39.5509978 139.6420014
  83.7849992  40.7709978 140.4070014  84.2859070  40.0615789 140.3423251
  83.9309992  56.9089978 123.6390014  84.8639992  57.0669978 123.7820014
  83.6669992  57.5849978 123.0140014  84.0229308  57.0219104 123.5741396
  77.4989992  51.5459978 123.1210014  78.4129992  51.6249978 123.3950014
  77.5069992  50.8589978 122.4550014  77.6251143  51.4639085 123.0684274
  76.1479992  56.9389978 128.1990014  75.5009992  56.4769978 127.6660014
  76.5029992  56.2669978 128.7810014  76.1074506  56.7849503 128.2047341
  77.0179992  55.0189978 130.0030014  76.6839992  54.1389978 130.1750014
  77.2409992  55.3649978 130.8680014  77.0023721  54.9451938 130.1434168
  94.5669992  55.8289978 132.9840014  94.5449992  56.0139978 133.9230014
  95.2569992  56.3969978 132.6430014  94.6573439  55.9311887 133.0664791
  94.1299992  55.3959978 135.9060014  93.6429992  54.6609978 135.5350014
  94.6789992  55.0019978 136.5840014  94.1375247  55.2421057 135.9468461
  92.5809992  51.1859978 140.5440014  91.7149992  51.0809978 140.9380014
  92.9569992  51.9439978 140.9900014  92.5133401  51.2741708 140.6582620
  93.8819992  49.4419978 126.0580014  94.7319992  49.8629978 126.1850014
  93.8869992  48.7019978 126.6650014  93.9991143  49.3996094 126.1574750
  94.2759992  47.4959978 127.8820014  93.5499992  47.0159978 128.2790014
  94.8579992  47.7009978 128.6140014  94.2551635  47.4579166 128.0353748
  94.0349992  50.2809978 132.8290014  94.8689992  49.9029978 132.5490014
  94.1469992  51.2239978 132.7100014  94.1642522  50.3567742 132.7746020
  92.5219992  53.1589978 135.1360014  91.8739992  53.4839978 135.7620014
  92.0039992  52.7179978 134.4620014  92.3634168  53.1438523 135.1305307
  94.5449992  47.3969978 124.2730014  94.0229992  47.7529978 123.5540014
  94.5119992  48.0719978 124.9510014  94.4690699  47.5369848 124.2662129
  92.8939992  44.6359978 122.8240014  92.9899992  45.3029978 122.1440014
  92.7539992  43.8209978 122.3420014  92.8882063  44.6170667 122.6658377
  92.0629992  46.0169978 128.4450014  91.9129992  45.0719978 128.4240014
  91.7089992  46.2979978 129.2880014  91.9945527  45.9255605 128.5561859
  77.0979992  48.0949978 132.4550014  77.2829992  48.0129978 131.5190014
  77.9479992  47.9709978 132.8790014  77.2380916  48.0670393 132.3842896
  92.9189992  47.9869978 138.0830014  93.5019992  47.2519978 138.2750014
  93.4829992  48.7589978 138.1300014  93.0749781  47.9908145 138.1156164
  94.4159992  45.8899978 138.7680014  93.5529992  45.5109978 138.6020014
  95.0199992  45.1509978 138.6940014  94.3795944  45.7382978 138.7352984
  92.1409992  42.0439978 121.9410014  92.7519992  41.6729978 122.5780014
  91.3039992  41.6229978 122.1370014  92.1114947  41.9362756 122.0547252
  91.7739992  43.5989978 126.9070014  92.0529992  42.6919978 127.0310014
  92.5329992  44.0329978 126.5180014  91.9148619  43.5334502 126.8713795
  92.3849992  44.1809978 132.3430014  93.3179992  44.3929978 132.3090014
  92.1499992  44.2819978 133.2650014  92.4808308  44.2236503 132.4630214
  92.4149992  44.9179978 135.1190014  91.5719992  45.1859978 135.4850014
  92.8569992  45.7399978 134.9080014  92.3594138  45.0658273 135.1405518
  76.6959992  43.3649978 138.5960014  77.6149992  43.2429978 138.8320014
  76.2459992  42.6149978 138.9850014  76.7611148  43.2468751 138.6809408
  94.6979992  38.8979978 140.4720014  95.0469992  38.2439978 139.8670014
  94.8449992  39.7349978 140.0330014  94.7657355  38.9216067 140.3296564
  92.3869992  40.8619978 126.9550014  92.5689992  40.4129978 127.7810014
  91.7869992  40.2779978 126.4920014  92.3307529  40.7216131 127.0053619
  77.9169992  41.6779978 131.4870014  78.3619992  40.8859978 131.7890014
  78.3829992  42.3939978 131.9180014  78.0409059  41.6664474 131.5866079
  76.2209992  44.6769978 132.5560014  76.7129992  44.4559978 131.7650014
  76.5829992  45.5169978 132.8370014  76.3372923  44.7603468 132.4857407
  94.2169992  41.0069978 138.8220014  93.2999992  41.2779978 138.7860014
  94.3399992  40.4719978 138.0380014  94.1080828  40.9717700 138.7110785
  94.2539992  40.9299978 123.4830014  94.6659992  40.2089978 123.0080014
  94.9349992  41.5989978 123.5420014  94.4025900  40.9217306 123.4259038
  76.5349992  40.9349978 126.6100014  75.6099992  41.1429978 126.4810014
  76.9889992  41.4189978 125.9210014  76.4696374  41.0289949 126.4990957
  91.3049992  55.9189978 128.5560014  91.9579992  55.5709978 127.9480014
  91.8159992  56.4069978 129.2020014  91.4632777  55.9373815 128.5602047
  76.4979992  39.6729978 134.9550014  75.8329992  39.4269978 135.5980014
  76.0549992  40.2949978 134.3770014  76.3470937  39.7233614 134.9649379
  78.6899992  52.8479978 139.0990014  77.8689992  53.0229978 138.6390014
  78.4379992  52.7749978 140.0200014  78.5436173  52.8620794 139.1604972
  81.6439992  53.8219978 135.3580014  81.2199992  54.6319978 135.0750014
  82.5489992  53.9079978 135.0560014  81.7082433  53.9443331 135.2785377
  85.9559992  55.2209978 138.3170014  86.1399992  54.8879978 139.1950014
  86.8019992  55.5309978 137.9950014  86.0956484  55.2172979 138.3937617
  88.3009992  56.5069978 137.5610014  88.9779992  55.8739978 137.3210014
  88.6219992  56.9079978 138.3680014  88.4371323  56.4745691 137.6373158
  93.2179992  39.0969978 136.6410014  92.4049992  39.4219978 136.2530014
  93.4509992  38.3359978 136.1080014  93.1382566  39.0386559 136.5159213
  79.0459992  57.0789978 135.4050014  78.3259992  57.5189978 134.9540014
  78.6809992  56.8279978 136.2540014  78.8979796  57.1053824 135.4579329
  81.5129992  56.6789978 134.4350014  80.6489992  56.7509978 134.8390014
  81.4579992  57.2259978 133.6510014  81.3871942  56.7627849 134.3844000
  86.2239992  56.5669978 133.6100014  85.7669992  57.0959978 132.9560014
  86.3869992  57.1699978 134.3360014  86.1834476  56.7209140 133.6185499
  88.5519992  55.4449978 134.5550014  87.6469992  55.6099978 134.2900014
  88.9799992  56.2979978 134.4900014  88.4860700  55.5829529 134.5099520
  91.1559992  57.0149978 134.8500014  90.9739992  57.9309978 134.6400014
  91.3329992  56.6039978 134.0040014  91.1549907  57.0849741 134.7067883
  78.4609992  55.7019978 132.3150014  78.4429992  55.2759978 133.1730014
  79.2659992  55.3829978 131.9070014  78.5673221  55.6007233 132.3770225
  80.6019992  54.4119978 130.9700014  80.3829992  53.4949978 131.1400014
  81.4259992  54.5519978 131.4360014  80.6834702  54.3055511 131.0562527
  83.1389992  54.8819978 131.8190014  83.3519992  53.9939978 131.5320014
  83.2039992  54.8469978 132.7740014  83.1769075  54.7558307 131.9087373
  86.6479992  40.5459978 130.9630014  85.9739992  39.9159978 131.2190014
  87.2119992  40.0619978 130.3600014  86.6320384  40.3943708 130.9165020
  91.7909992  38.6529978 131.0760014  92.3939992  39.2009978 130.5740014
  90.9209992  38.9719978 130.8360014  91.7559190  38.7711041 130.9748679
  93.5179992  39.7919978 129.4090014  94.1289992  39.2779978 128.8830014
  93.8999992  40.6689978 129.4330014  93.6534475  39.8401323 129.3401208
  78.9749992  39.1799978 128.7850014  78.1979992  38.9449978 128.2780014
  79.5049992  38.3829978 128.7940014  78.9403451  39.0401268 128.7168627
  77.8109992  38.9779978 124.5890014  78.2499992  39.5889978 123.9970014
  77.1769992  39.5159978 125.0630014  77.7853859  39.1344064 124.5720305
  83.5539992  39.1059978 128.5990014  84.4279992  39.4949978 128.5690014
  83.4179992  38.8909978 129.5210014  83.6553207  39.1301923 128.7196509
  89.1109992  39.1359978 130.2480014  89.1869992  39.2319978 129.2990014
  88.8359992  38.2289978 130.3770014  89.0842042  39.0264241 130.1353811
  90.4639992  39.1619978 125.9400014  89.7609992  39.7769978 125.7310014
  90.0189992  38.3249978 126.0720014  90.3076292  39.1330085 125.9292439
  77.7119992  54.9259978 125.4870014  77.0269992  54.8879978 124.8190014
  77.7159992  55.8389978 125.7750014  77.6188174  55.0441998 125.4345310
  79.6719992  40.8939978 123.0310014  80.1629992  40.2639978 122.5040014
  80.2949992  41.1899978 123.6950014  79.8235062  40.8476770 123.0485438
  84.6979992  41.1869978 125.4890014  84.8759992  40.5399978 126.1710014
  84.6439992  42.0209978 125.9560014  84.7151025  41.2110504 125.6456433
  86.5759992  56.1349978 123.8840014  87.4419992  56.5019978 123.7060014
  86.3299992  55.6959978 123.0700014  86.6612097  56.1258525 123.7496019
  93.2849992  55.6979978 126.5630014  93.0909992  54.9499978 125.9980014
  93.2459992  56.4559978 125.9800014  93.2531645  55.6980786 126.4068148
  78.9319992  39.6939978 138.3030014  78.5659992  38.9279978 138.7460014
  79.8449992  39.7229978 138.5900014  79.0053225  39.5931906 138.4023459
  80.9049992  39.0439978 139.8390014  81.8039992  38.7699978 139.6540014
  80.5189992  38.3019978 140.3030014  80.9757237  38.9061508 139.8764710
  79.5299992  55.8459978 122.5120014  79.2619992  56.1319978 123.3850014
  80.3009992  55.2999978 122.6640014  79.5975600  55.8113330 122.6521499
  89.3269992  38.3769978 140.0210014  89.4029992  37.9509978 140.8750014
  90.2199992  38.3899978 139.6780014  89.4582267  38.3203952 140.0915932
  92.5029992  54.4499978 138.7130014  91.7209992  54.2629978 138.1940014
  92.4309992  55.3789978 138.9310014  92.3860863  54.5500221 138.6713574
 106.9089992  48.3359978 128.7440014 106.9979992  49.2799978 128.6120014
 106.2709992  48.0609978 128.0860014 106.8349062  48.4279812 128.6369641
 105.8419992  47.5909978 132.1630014 105.8039992  46.9449978 132.8680014
 105.5199992  47.1239978 131.3920014 105.7932679  47.4394276 132.1552921
  98.2099992  47.2049978 133.7560014  98.2519992  46.5799978 134.4790014
  98.9129992  47.8289978 133.9380014  98.3107345  47.2037873 133.8795274
 109.5479992  50.5299978 130.4650014 109.1069992  49.8099978 130.9150014
 109.5349992  51.2509978 131.0940014 109.4857960  50.5288329 130.6117567
  99.1339992  51.6549978 132.2910014  98.7639992  50.8529978 131.9210014
 100.0749992  51.4869978 132.3370014  99.2105984  51.5224638 132.2465603
  95.7439992  45.3149978 127.6840014  95.2959992  46.1609978 127.6650014
  95.1829992  44.7359978 127.1680014  95.6069603  45.3523674 127.6116720
  96.4539992  47.4769978 129.8100014  96.6679992  46.7069978 130.3370014
  97.1919992  47.5669978 129.2060014  96.5829652  47.3838012 129.8005212
 106.6599992  55.6339978 130.6770014 107.2789992  54.9579978 130.4030014
 106.4509992  55.4159978 131.5850014 106.7166232  55.5117938 130.7622517
 104.2309992  50.0229978 132.5690014 104.5349992  49.3369978 131.9750014
 104.9529992  50.1419978 133.1870014 104.3701152  49.9452189 132.5712124
 112.8939992  41.6249978 133.4300014 112.9439992  42.2349978 134.1660014
 113.3199992  42.0859978 132.7070014 112.9584108  41.7707709 133.4330112
 107.3719992  44.4169978 132.8970014 107.5149992  43.4709978 132.9170014
 107.2659992  44.6239978 131.9680014 107.3772509  44.3154813 132.7742231
 100.5269992  42.5189978 130.1690014 100.5699992  43.3789978 129.7510014
 100.0689992  41.9669978 129.5350014 100.4709815  42.5620621 130.0261197
 108.2489992  42.6499978 128.5700014 108.8959992  42.3209978 129.1950014
 108.7589992  43.1669978 127.9470014 108.4064317  42.6749227 128.5712167
  97.1469992  44.9159978 130.9310014  97.8009992  44.3659978 131.3630014
  97.1709992  44.6419978 130.0140014  97.2397199  44.8037167 130.8661668
 102.3039992  46.4659978 130.1460014 102.9199992  45.9389978 130.6560014
 101.7169992  45.8259978 129.7430014 102.3089239  46.3074117 130.1612952
 113.2859992  43.1029978 135.6660014 112.5969992  43.7609978 135.5700014
 113.3009992  42.9049978 136.6020014 113.1936740  43.1663242 135.7794630
  99.3369992  41.4369978 134.2430014  99.1179992  41.9669978 133.4770014
  98.6689992  41.6629978 134.8900014  99.2167001  41.5401154 134.2256064
 106.7059992  50.9369978 127.7870014 106.4109992  50.6139978 126.9360014
 106.3819992  51.8369978 127.8280014 106.6217983  51.0144026 127.6759771
 101.9059992  49.1119978 134.5310014 101.1659992  49.7109978 134.6340014
 102.6199992  49.6659978 134.2150014 101.9013288  49.2687356 134.5023805
 110.0129992  41.9409978 130.5500014 109.7979992  41.1749978 131.0830014
 110.6689992  42.4129978 131.0630014 110.0722673  41.9000728 130.6921990
  98.9309992  43.3289978 132.1950014  99.5449992  43.9619978 132.5690014
  99.4429992  42.8569978 131.5390014  99.0842277  43.3517352 132.1574279
 100.3139992  51.0769978 135.3180014 100.3079992  51.9559978 134.9400014
  99.4599992  50.9929978 135.7430014 100.1977925  51.1859535 135.3236887
  96.4349992  50.7479978 126.1000014  96.1629992  50.9769978 125.2110014
  96.4799992  51.5849978 126.5600014  96.4038709  50.8926058 126.0406107
 110.0599992  52.3689978 132.8120014 109.1179992  52.4279978 132.9740014
 110.3359992  53.2749978 132.6750014 109.9685865  52.4995288 132.8156192
 110.3599992  40.6559978 134.2300014 109.6239992  41.2659978 134.1920014
 111.0439992  41.0709978 133.7030014 110.3515506  40.7956400 134.1536051
 103.3639992  38.7419978 131.6960014 103.2459992  37.7939978 131.6410014
 102.5089992  39.0749978 131.9690014 103.2322679  38.6571926 131.7253720
 108.3119992  54.1499978 129.4380014 108.7369992  53.4429978 128.9530014
 108.6289992  54.9519978 129.0210014 108.4130266  54.1615190 129.3152479
 109.4719992  52.0509978 127.9460014 109.2139992  51.3609978 127.3350014
 109.5429992  51.6079978 128.7920014 109.4462837  51.8967106 127.9766912
 111.1579992  50.6179978 136.4240014 111.2969992  50.0259978 135.6840014
 111.3249992  51.4909978 136.0670014 111.1995562  50.6549896 136.2746283
 105.6299992  47.5799978 126.1960014 104.9189992  48.1149978 125.8440014
 106.3209992  47.6349978 125.5360014 105.6260751  47.6606777 126.0585858
 105.6839992  46.0369978 123.2350014 106.3849992  46.0599978 123.8860014
 105.9859992  45.4089978 122.5790014 105.8208282  45.9552339 123.2354496
 112.9989992  46.9579978 134.4900014 112.3469992  47.6519978 134.5790014
 113.4649992  47.1679978 133.6800014 112.9725937  47.0815019 134.3927533
 109.0359992  47.7889978 127.1480014 108.3039992  48.0179978 127.7210014
 109.4829992  47.0759978 127.6030014 108.9962753  47.7238972 127.2879715
 108.9329992  45.9639978 136.2160014 109.0129992  46.7269978 136.7870014
 108.3319992  46.2429978 135.5250014 108.8627245  46.1062630 136.2008424
 100.6809992  48.4199978 129.0300014 100.3509992  48.0489978 128.2120014
 101.2699992  47.7489978 129.3770014 100.7153970  48.2786063 128.9649404
 102.0479992  51.8479978 131.7120014 101.9529992  51.2689978 130.9550014
 102.7769992  51.4769978 132.2080014 102.1336161  51.7185891 131.6755209
 101.0479992  47.1879978 132.6640014 101.6129992  47.3099978 131.9010014
 101.3669992  47.8259978 133.3030014 101.1683977  47.2908851 132.6459424
 107.3569992  52.6919978 133.3980014 107.1169992  53.3539978 134.0460014
 107.1589992  51.8569978 133.8230014 107.2973826  52.6698115 133.5441566
 101.9279992  51.5879978 137.3810014 101.6169992  52.3699978 137.8360014
 101.2779992  51.4349978 136.6950014 101.7975538  51.6744087 137.3505898
 107.9069992  46.9519978 124.8330014 108.4859992  47.1019978 125.5800014
 108.3209992  47.4219978 124.1100014 108.0423122  47.0361277 124.8375042
  98.8479992  47.7859978 136.6100014  98.9179992  48.4369978 137.3080014
  97.9569992  47.8889978 136.2750014  98.7371802  47.8889757 136.6602249
 105.6329992  53.6879978 128.2680014 106.1069992  53.9839978 129.0460014
 105.0699992  54.4269978 128.0350014 105.6217361  53.8282721 128.3428611
 100.1669992  53.6589978 138.1440014 100.1749992  53.5229978 137.1970014
  99.2509992  53.5419978 138.3960014 100.0442528  53.6245463 138.0483243
 111.6059992  38.7019978 124.6460014 110.7059992  38.8409978 124.9410014
 111.8579992  39.5329978 124.2440014 111.5168683  38.8334055 124.6320232
  99.6719992  47.4889978 126.6200014  99.3799992  48.2569978 126.1290014
  98.9969992  46.8299978 126.4570014  99.5408497  47.5049745 126.5308260
 112.7949992  53.0679978 123.0220014 112.8679992  54.0069978 123.1930014
 113.6999992  52.7629978 122.9660014 112.9274158  53.1553061 123.0378392
  95.7649992  49.8519978 135.4350014  95.2629992  49.8239978 134.6200014
  95.7699992  48.9469978 135.7440014  95.6970416  49.7257368 135.3653766
  95.5149992  52.6329978 132.3190014  96.4609992  52.4879978 132.3000014
  95.4019992  53.4169978 132.8560014  95.6293578  52.7191697 132.3890317
 113.7129992  53.2989978 138.0010014 113.6629992  52.3429978 137.9640014
 112.8859992  53.5659978 138.4020014 113.5943987  53.2045174 138.0501446
 104.6909992  52.8729978 136.8770014 104.7789992  53.6989978 137.3520014
 103.8279992  52.5429978 137.1260014 104.5863357  52.9415468 136.9757653
 105.1059992  56.6449978 126.6830014 105.0299992  56.5239978 125.7370014
 105.1379992  57.5939978 126.8020014 105.0999156  56.7567530 126.5695048
  98.7589992  55.4339978 128.4640014  98.9109992  55.0859978 129.3430014
  97.9079992  55.0769978 128.2090014  98.6647899  55.3381738 128.5497340
 108.2069992  55.7989978 123.6850014 108.5819992  55.0549978 123.2150014
 108.2119992  55.5289978 124.6040014 108.2590024  55.6606950 123.7447987
 107.8759992  55.7249978 126.4350014 106.9409992  55.8249978 126.6130014
 108.1559992  55.0149978 127.0130014 107.7858173  55.6427239 126.5374998
 110.8649992  44.7919978 138.4810014 110.4569992  45.2719978 137.7610014
 110.9049992  43.8859978 138.1730014 110.8145476  44.7353160 138.3408247
  98.0139992  51.1759978 136.4780014  98.2299992  50.8139978 137.3370014
  97.1579992  50.8009978 136.2680014  97.9279354  51.0757906 136.5672160
 100.6319992  39.6459978 132.4730014  99.7709992  39.5589978 132.0660014
 100.6099992  40.5019978 132.9010014 100.5110411  39.7497884 132.4750857
 105.2949992  39.3679978 135.8480014 105.7149992  38.9529978 136.6010014
 104.3619992  39.1889978 135.9650014 105.2263736  39.2869910 135.9668968
 108.6219992  43.1229978 136.7010014 108.1079992  42.9979978 137.4990014
 108.4659992  44.0359978 136.4570014 108.5306967  43.2292123 136.7770937
 109.3839992  47.9839978 122.4630014 109.4259992  47.7619978 121.5330014
 110.2329992  48.3829978 122.6530014 109.5045253  48.0075498 122.3613822
 104.9569992  41.8599978 123.1330014 104.7029992  41.8789978 124.0560014
 104.6999992  40.9889978 122.8320014 104.8875133  41.7448110 123.2185082
 100.7229992  44.6109978 133.5680014 100.0819992  44.5709978 134.2770014
 100.7609992  45.5379978 133.3310014 100.6403670  44.7307795 133.6330550
 100.7199992  44.8319978 128.4800014  99.8279992  44.4919978 128.4220014
 101.1709992  44.4549978 127.7250014 100.6586815  44.7343762 128.3699203
 106.2559992  45.2479978 127.2970014 105.8469992  46.0629978 127.0060014
 106.9759992  45.1079978 126.6830014 106.2974013  45.3406571 127.1740875
 105.3579992  45.4239978 138.7850014 104.7949992  44.7189978 139.1060014
 106.1839992  45.3029978 139.2530014 105.3926674  45.3112165 138.8921751
 107.2609992  44.6939978 130.1110014 107.0649992  45.2999978 129.3960014
 107.4419992  43.8609978 129.6770014 107.2586584  44.6642513 129.9544212
  98.4729992  44.9319978 135.4350014  98.4349992  45.3319978 136.3040014
  97.9829992  44.1149978 135.5260014  98.4015621  44.8762510 135.5661377
 101.8389992  42.3059978 122.2340014 101.4079992  41.8609978 122.9640014
 101.1209992  42.6769978 121.7220014 101.6829363  42.2952968 122.2646211
  95.0819992  42.0479978 129.2860014  95.7119992  42.0189978 130.0050014
  95.5309992  41.6229978 128.5560014  95.2290692  41.9865316 129.2857771
  96.3559992  42.7939978 124.7100014  96.8299992  43.3849978 124.1250014
  95.6379992  43.3239978 125.0570014  96.3238640  42.9465511 124.6767969
 106.5249992  46.3319978 134.7830014 106.8479992  45.7009978 134.1400014
 106.0839992  45.7979978 135.4430014 106.5095789  46.1733522 134.7842232
 103.3019992  42.2599978 129.5670014 102.3909992  42.3169978 129.8550014
 103.8069992  42.1999978 130.3770014 103.2455387  42.2596870 129.7160646
  98.1299992  43.8889978 128.3930014  97.2409992  43.9879978 128.0530014
  98.4269992  43.0469978 128.0470014  98.0484177  43.7887687 128.2996940
 101.7829992  43.8889978 126.0500014 102.7149992  44.0179978 126.2280014
 101.5679992  44.5579978 125.4000014 101.8814472  43.9970806 125.9864891
 107.7069992  41.4949978 132.8310014 107.0299992  41.6259978 133.4950014
 107.2219992  41.3399978 132.0210014 107.5487265  41.4919659 132.8123397
 100.4569992  45.0829978 123.6170014  99.9149992  44.7039978 122.9250014
 101.2909992  45.2779978 123.1880014 100.4955159  45.0575076 123.4644419
 110.9949992  57.1659978 139.1080014 111.1939992  57.5899978 138.2730014
 111.6499992  57.5099978 139.7150014 111.1108501  57.2706091 139.0757097
  98.5929992  49.6399978 138.7160014  99.3249992  49.8949978 139.2770014
  97.8119992  49.8449978 139.2310014  98.5877684  49.7026468 138.8624782
 104.6219992  45.0469978 131.4540014 105.1859992  44.5009978 130.9070014
 104.4739992  44.5259978 132.2420014 104.6792575  44.9016552 131.4856987
  99.6239992  41.1839978 127.8720014  99.3069992  40.2809978 127.8370014
 100.4049992  41.1859978 127.3190014  99.6862307  41.0606951 127.7924314
 103.2479992  43.4359978 133.8680014 102.4129992  43.8899978 133.9780014
 103.7719992  43.7119978 134.6200014 103.2045070  43.5354666 133.9847152
 103.7929992  49.6489978 125.5520014 103.0479992  49.1409978 125.2300014
 103.6579992  49.6979978 126.4990014 103.6729047  49.5861596 125.6358845
 110.9429992  48.7819978 134.3390014 111.5839992  49.2379978 133.7950014
 110.1119992  48.8949978 133.8770014 110.9185171  48.8597502 134.2020237
 107.6899992  42.4629978 123.7520014 106.7519992  42.5739978 123.6000014
 107.9879992  43.3189978 124.0580014 107.6016402  42.5940621 123.7725571
 105.3119992  49.8329978 136.7890014 104.9659992  49.4509978 137.5960014
 105.1119992  50.7659978 136.8610014 105.2376523  49.9069095 136.9090735
 108.4089992  44.3299978 125.4120014 109.3009992  44.1919978 125.7310014
 108.4649992  45.1209978 124.8760014 108.5387107  44.4180526 125.3832091
  98.9169992  48.9439978 131.3220014  99.6619992  48.9409978 130.7210014
  98.9949992  48.1199978 131.8040014  99.0294158  48.8322916 131.3049153
 105.9179992  51.1069978 124.5780014 105.6229992  51.9339978 124.9590014
 105.2149992  50.4879978 124.7740014 105.7825471  51.1365227 124.6566698
  95.9249992  47.4039978 136.6370014  96.1479992  46.9859978 137.4690014
  95.3229992  46.7919978 136.2140014  95.8741260  47.2639933 136.6937320
 102.9419992  46.9209978 138.8500014 102.6459992  46.7559978 137.9550014
 103.8729992  46.7009978 138.8390014 103.0273982  46.8686578 138.7260045
 107.5619992  52.2949978 136.7400014 106.6619992  52.4779978 136.4720014
 107.5959992  52.5539978 137.6610014 107.4432909  52.3550815 136.8277852
 113.2939992  44.5389978 125.1070014 112.7389992  44.1429978 124.4350014
 113.3939992  45.4499978 124.8290014 113.2315888  44.6078990 124.9775206
 113.2569992  50.3399978 137.9440014 112.4059992  50.5779978 137.5770014
 113.8469992  50.3229978 137.1910014 113.2202408  50.3702966 137.7918879
 111.5889992  53.3249978 125.5720014 111.2159992  52.4999978 125.8810014
 111.8659992  53.1419978 124.6750014 111.5753871  53.1872441 125.4929677
 108.7489992  48.1329978 132.5930014 107.8209992  47.9019978 132.5660014
 109.1999992  47.3559978 132.2630014 108.6828165  47.9962774 132.5446790
 101.2919992  52.4619978 128.7260014 101.8199992  53.2349978 128.5260014
 100.4119992  52.6859978 128.4250014 101.2453176  52.5983161 128.6578409
  97.0469992  47.3239978 123.3140014  97.6629992  47.9509978 123.6930014
  96.1849992  47.6399978 123.5850014  97.0148195  47.4525798 123.4025386
 102.7199992  50.1249978 128.3030014 102.4789992  51.0499978 128.3440014
 101.9789992  49.6659978 128.6990014 102.5868390  50.1896403 128.3621404
 103.2339992  54.2739978 134.6180014 103.5969992  55.1279978 134.3840014
 103.7659992  53.9819978 135.3580014 103.3556090  54.3514058 134.6860219
 101.4029992  55.1459978 127.8480014 100.4529992  55.2519978 127.8990014
 101.7549992  55.9669978 128.1930014 101.3205480  55.2714438 127.9015999
 106.7779992  50.3729978 134.3180014 106.3529992  50.1449978 135.1450014
 107.3589992  49.6339978 134.1360014 106.7983930  50.2419843 134.4064732
 108.9809992  51.3019978 123.3920014 109.3349992  50.9219978 124.1970014
 108.0329992  51.2079978 123.4790014 108.9011820  51.2373092 123.5138714
 109.4369992  54.9249978 136.7880014 108.8349992  54.3689978 136.2920014
 109.7179992  55.5919978 136.1620014 109.3926829  54.9391613 136.6355443
 113.4849992  55.7809978 123.5930014 114.2289992  56.3669978 123.4530014
 112.7909992  56.3499978 123.9270014 113.4930201  55.9380603 123.6189772
  97.5589992  42.1579978 136.1950014  96.6669992  42.4959978 136.1280014
  97.4609992  41.3019978 136.6130014  97.4234965  42.0886499 136.2423044
 109.8469992  49.9739978 125.6190014 109.5699992  49.2459978 126.1750014
 110.7749992  50.0929978 125.8240014 109.9344499  49.8904213 125.7228044
  97.2109992  53.9619978 134.6300014  97.4279992  53.0299978 134.5990014
  97.4569992  54.2369978 135.5130014  97.2739809  53.8715686 134.7451691
 103.0719992  52.4139978 121.8390014 103.3109992  51.6649978 121.2920014
 102.8029992  52.0259978 122.6720014 103.0683233  52.2591853 121.8767809
 102.0089992  51.9839978 124.2960014 102.1559992  51.4639978 125.0860014
 102.0059992  52.8909978 124.6020014 102.0287300  52.0353964 124.4455895
  98.4619992  49.2359978 124.8060014  97.7759992  49.5889978 125.3730014
  98.9849992  49.9989978 124.5600014  98.4389033  49.3873746 124.8502661
 106.2939992  41.8989978 135.0850014 106.9929992  41.9729978 135.7350014
 105.9129992  41.0339978 135.2390014 106.3382097  41.7922389 135.1947997
 107.0779992  41.5509978 126.1820014 107.2979992  42.0219978 125.3790014
 107.6369992  41.9449978 126.8520014 107.1836730  41.6687432 126.1625906
 104.7469992  53.6809978 125.0450014 103.9299992  54.1779978 125.0970014
 105.2759992  54.1569978 124.4050014 104.7068508  53.8132543 124.9656035
 104.2779992  43.2789978 127.0170014 105.0899992  43.7829978 127.0630014
 104.0339992  43.1339978 127.9310014 104.3561467  43.3283749 127.1468575
 104.8139992  44.2649978 136.2020014 104.9329992  44.8389978 136.9590014
 105.4689992  43.5769978 136.3160014 104.9189146  44.2505574 136.3211313
 105.1619992  40.3599978 127.9550014 104.8149992  40.9769978 128.6000014
 105.8209992  40.8609978 127.4740014 105.2035950  40.5121099 127.9782271
 102.0849992  54.7249978 125.0270014 102.2459992  55.5249978 124.5260014
 101.8879992  55.0319978 125.9120014 102.0803919  54.8759129 125.0781006
 100.8199992  41.4229978 124.6420014 100.7359992  42.3109978 124.9890014
 101.7099992  41.1579978 124.8740014 100.9288163  41.5087179 124.7208596
 111.0179992  42.1719978 137.0370014 110.1019992  42.4339978 136.9490014
 111.3539992  42.1689978 136.1400014 110.9379789  42.2074626 136.9037847
 109.6209992  45.9219978 131.1320014 108.8229992  45.5069978 130.8040014
 110.0659992  45.2319978 131.6230014 109.5719684  45.7718628 131.1535227
  99.0779992  51.8499978 123.7030014  99.6699992  52.5499978 123.9790014
  99.5369992  51.4169978 122.9830014  99.2210791  51.8872908 123.6434607
  97.3939992  44.5149978 122.8190014  97.3489992  45.4539978 122.9970014
  96.5059992  44.2789978 122.5490014  97.2678555  44.6116874 122.8068939
 110.7069992  55.1779978 132.7550014 110.5509992  55.8569978 132.0980014
 111.6399992  55.2499978 132.9580014 110.8117387  55.2806390 132.6925342
  98.2019992  39.2959978 131.4920014  97.9729992  39.3549978 130.5640014
  97.7599992  38.5049978 131.7980014  98.1108801  39.1970540 131.4064729
  97.1329992  53.2369978 127.6520014  96.2999992  53.7089978 127.6800014
  97.6779992  53.7469978 127.0540014  97.0927590  53.3705897 127.5749194
  96.4209992  55.8489978 138.9820014  96.9609992  55.6329978 139.7420014
  95.9399992  55.0439978 138.7930014  96.4298613  55.7105400 139.0604782
 101.0179992  54.7689978 140.6030014 101.7859992  54.3099978 140.9440014
 100.9969992  54.5429978 139.6730014 101.1202135  54.6756668 140.5239491
 105.1099992  54.2769978 121.9780014 104.4659992  53.6459978 122.2990014
 105.8719992  53.7459978 121.7460014 105.1248058  54.1187902 121.9906038
 107.5949992  53.1489978 139.3320014 107.2439992  52.2919978 139.5750014
 108.3209992  53.2909978 139.9390014 107.6451590  53.0510178 139.4472907
 109.7149992  54.0939978 122.2120014 109.9979992  53.2989978 122.6640014
 110.4539992  54.3269978 121.6510014 109.8536956  54.0167031 122.1979822
  96.3279992  49.6599978 139.9370014  96.4719992  48.7579978 139.6500014
  95.5559992  49.9459978 139.4490014  96.2433303  49.5753243 139.8317908
 100.6689992  50.0029978 122.0690014 100.7339992  49.2089978 122.6000014
 101.3219992  49.8849978 121.3790014 100.7661754  49.8783337 122.0484259
 102.9829992  49.6289978 139.3690014 102.6549992  49.8999978 138.5120014
 103.1349992  48.6879978 139.2820014 102.9586030  49.5388973 139.2397945
 106.0219992  51.0499978 121.8050014 105.7529992  51.2309978 122.7060014
 105.8149992  50.1249978 121.6740014 105.9572000  50.9496774 121.9105693
 108.7179992  49.5449978 136.7530014 109.4629992  50.1339978 136.6330014
 107.9609992  50.1269978 136.8160014 108.7175205  49.7041997 136.7451119
  97.1609992  46.8599978 139.3570014  97.5689992  46.0029978 139.2360014
  96.8999992  46.8739978 140.2780014  97.1816016  46.7445119 139.4649192
 101.8189992  47.9759978 124.3750014 101.3589992  47.4919978 125.0610014
 102.0739992  47.3069978 123.7390014 101.7905038  47.8193689 124.3829447
 101.1079992  45.8689978 136.7310014 100.4889992  46.5429978 137.0110014
 101.4519992  46.1899978 135.8980014 101.0697605  46.0047198 136.6566707
 102.8899992  46.2189978 122.6370014 102.7089992  46.0639978 121.7100014
 103.8399992  46.3269978 122.6820014 102.9936566  46.2123669 122.5160929
 106.1269992  48.3399978 140.0080014 107.0809992  48.4239978 139.9810014
 105.9669992  47.6279978 140.6280014 106.2357182  48.2552842 140.0880733
 112.2799992  48.5729978 122.0830014 112.0059992  48.1489978 121.2700014
 112.3189992  49.5049978 121.8660014 112.2477716  48.6408827 121.9424286
 101.4469992  43.2239978 137.8130014 101.5969992  42.4949978 137.2110014
 101.4489992  44.0009978 137.2540014 101.4677967  43.2292708 137.6550541
 101.8599992  41.5929978 135.3060014 102.3949992  42.0449978 134.6540014
 101.0069992  41.4849978 134.8830014 101.8180374  41.6402665 135.1596710
 103.4409992  47.0329978 135.5450014 104.1919992  46.8769978 134.9720014
 103.1019992  47.8849978 135.2700014 103.4979587  47.1268138 135.4294078
 107.8569992  44.8479978 140.5740014 108.0489992  43.9169978 140.4620014
 108.7149992  45.2729978 140.5640014 107.9992269  44.7779928 140.5573192
 109.1739992  47.6369978 138.6510014 108.8919992  48.3459978 138.0740014
 110.1159992  47.5639978 138.5000014 109.2627656  47.7243128 138.5514809
  99.9259992  44.4219978 139.7250014  99.1579992  43.8889978 139.5150014
 100.6039992  44.1119978 139.1250014  99.9126973  44.3072375 139.6151796
 102.6649992  39.0499978 135.7370014 102.5669992  39.9959978 135.6320014
 101.9229992  38.6769978 135.2620014 102.5511913  39.1291813 135.6583539
 103.9289992  43.3709978 139.3010014 103.6939992  43.1519978 140.2030014
 103.1459992  43.1639978 138.7910014 103.7909219  43.3130066 139.3555852
 106.6449992  42.4989978 138.3770014 105.6969992  42.5309978 138.5090014
 106.9569992  41.8729978 139.0300014 106.5575190  42.4187262 138.4833564
 108.2789992  41.1329978 140.3820014 108.1819992  40.1809978 140.3760014
 107.9569992  41.4009978 141.2420014 108.2221761  41.0389744 140.4974936
  98.1059992  42.3419978 139.4290014  98.3179992  41.6359978 138.8190014
  97.9949992  41.9049978 140.2730014  98.1200269  42.1861921 139.4595873
 102.8869992  38.3439978 138.4090014 103.5989992  37.7039978 138.3950014
 102.7859992  38.6099978 137.4950014 102.9707261  38.2924190 138.2835537
 103.2409992  40.0259978 140.4620014 103.1089992  39.5509978 139.6420014
 102.6409992  40.7709978 140.4070014 103.1419070  40.0615789 140.3423251
 102.7869992  56.9089978 123.6390014 103.7199992  57.0669978 123.7820014
 102.5229992  57.5849978 123.0140014 102.8789308  57.0219104 123.5741396
  96.3549992  51.5459978 123.1210014  97.2689992  51.6249978 123.3950014
  96.3629992  50.8589978 122.4550014  96.4811143  51.4639085 123.0684274
  95.0039992  56.9389978 128.1990014  94.3569992  56.4769978 127.6660014
  95.3589992  56.2669978 128.7810014  94.9634506  56.7849503 128.2047341
  95.8739992  55.0189978 130.0030014  95.5399992  54.1389978 130.1750014
  96.0969992  55.3649978 130.8680014  95.8583721  54.9451938 130.1434168
 113.4229992  55.8289978 132.9840014 113.4009992  56.0139978 133.9230014
 114.1129992  56.3969978 132.6430014 113.5133439  55.9311887 133.0664791
 112.9859992  55.3959978 135.9060014 112.4989992  54.6609978 135.5350014
 113.5349992  55.0019978 136.5840014 112.9935247  55.2421057 135.9468461
 111.4369992  51.1859978 140.5440014 110.5709992  51.0809978 140.9380014
 111.8129992  51.9439978 140.9900014 111.3693401  51.2741708 140.6582620
 112.7379992  49.4419978 126.0580014 113.5879992  49.8629978 126.1850014
 112.7429992  48.7019978 126.6650014 112.8551143  49.3996094 126.1574750
 113.1319992  47.4959978 127.8820014 112.4059992  47.0159978 128.2790014
 113.7139992  47.7009978 128.6140014 113.1111635  47.4579166 128.0353748
 112.8909992  50.2809978 132.8290014 113.7249992  49.9029978 132.5490014
 113.0029992  51.2239978 132.7100014 113.0202522  50.3567742 132.7746020
 111.3779992  53.1589978 135.1360014 110.7299992  53.4839978 135.7620014
 110.8599992  52.7179978 134.4620014 111.2194168  53.1438523 135.1305307
 113.4009992  47.3969978 124.2730014 112.8789992  47.7529978 123.5540014
 113.3679992  48.0719978 124.9510014 113.3250699  47.5369848 124.2662129
 111.7499992  44.6359978 122.8240014 111.8459992  45.3029978 122.1440014
 111.6099992  43.8209978 122.3420014 111.7442063  44.6170667 122.6658377
 110.9189992  46.0169978 128.4450014 110.7689992  45.0719978 128.4240014
 110.5649992  46.2979978 129.2880014 110.8505527  45.9255605 128.5561859
  95.9539992  48.0949978 132.4550014  96.1389992  48.0129978 131.5190014
  96.8039992  47.9709978 132.8790014  96.0940916  48.0670393 132.3842896
 111.7749992  47.9869978 138.0830014 112.3579992  47.2519978 138.2750014
 112.3389992  48.7589978 138.1300014 111.9309781  47.9908145 138.1156164
 113.2719992  45.8899978 138.7680014 112.4089992  45.5109978 138.6020014
 113.8759992  45.1509978 138.6940014 113.2355944  45.7382978 138.7352984
 110.9969992  42.0439978 121.9410014 111.6079992  41.6729978 122.5780014
 110.1599992  41.6229978 122.1370014 110.9674947  41.9362756 122.0547252
 110.6299992  43.5989978 126.9070014 110.9089992  42.6919978 127.0310014
 111.3889992  44.0329978 126.5180014 110.7708619  43.5334502 126.8713795
 111.2409992  44.1809978 132.3430014 112.1739992  44.3929978 132.3090014
 111.0059992  44.2819978 133.2650014 111.3368308  44.2236503 132.4630214
 111.2709992  44.9179978 135.1190014 110.4279992  45.1859978 135.4850014
 111.7129992  45.7399978 134.9080014 111.2154138  45.0658273 135.1405518
  95.5519992  43.3649978 138.5960014  96.4709992  43.2429978 138.8320014
  95.1019992  42.6149978 138.9850014  95.6171148  43.2468751 138.6809408
 113.5539992  38.8979978 140.4720014 113.9029992  38.2439978 139.8670014
 113.7009992  39.7349978 140.0330014 113.6217355  38.9216067 140.3296564
 111.2429992  40.8619978 126.9550014 111.4249992  40.4129978 127.7810014
 110.6429992  40.2779978 126.4920014 111.1867529  40.7216131 127.0053619
  96.7729992  41.6779978 131.4870014  97.2179992  40.8859978 131.7890014
  97.2389992  42.3939978 131.9180014  96.8969059  41.6664474 131.5866079
  95.0769992  44.6769978 132.5560014  95.5689992  44.4559978 131.7650014
  95.4389992  45.5169978 132.8370014  95.1932923  44.7603468 132.4857407
 113.0729992  41.0069978 138.8220014 112.1559992  41.2779978 138.7860014
 113.1959992  40.4719978 138.0380014 112.9640828  40.9717700 138.7110785
 113.1099992  40.9299978 123.4830014 113.5219992  40.2089978 123.0080014
 113.7909992  41.5989978 123.5420014 113.2585900  40.9217306 123.4259038
  95.3909992  40.9349978 126.6100014  94.4659992  41.1429978 126.4810014
  95.8449992  41.4189978 125.9210014  95.3256374  41.0289949 126.4990957
 110.1609992  55.9189978 128.5560014 110.8139992  55.5709978 127.9480014
 110.6719992  56.4069978 129.2020014 110.3192777  55.9373815 128.5602047
  95.3539992  39.6729978 134.9550014  94.6889992  39.4269978 135.5980014
  94.9109992  40.2949978 134.3770014  95.2030937  39.7233614 134.9649379
  97.5459992  52.8479978 139.0990014  96.7249992  53.0229978 138.6390014
  97.2939992  52.7749978 140.0200014  97.3996173  52.8620794 139.1604972
 100.4999992  53.8219978 135.3580014 100.0759992  54.6319978 135.0750014
 101.4049992  53.9079978 135.0560014 100.5642433  53.9443331 135.2785377
 104.8119992  55.2209978 138.3170014 104.9959992  54.8879978 139.1950014
 105.6579992  55.5309978 137.9950014 104.9516484  55.2172979 138.3937617
 107.1569992  56.5069978 137.5610014 107.8339992  55.8739978 137.3210014
 107.4779992  56.9079978 138.3680014 107.2931323  56.4745691 137.6373158
 112.0739992  39.0969978 136.6410014 111.2609992  39.4219978 136.2530014
 112.3069992  38.3359978 136.1080014 111.9942566  39.0386559 136.5159213
  97.9019992  57.0789978 135.4050014  97.1819992  57.5189978 134.9540014
  97.5369992  56.8279978 136.2540014  97.7539796  57.1053824 135.4579329
 100.3689992  56.6789978 134.4350014  99.5049992  56.7509978 134.8390014
 100.3139992  57.2259978 133.6510014 100.2431942  56.7627849 134.3844000
 105.0799992  56.5669978 133.6100014 104.6229992  57.0959978 132.9560014
 105.2429992  57.1699978 134.3360014 105.0394476  56.7209140 133.6185499
 107.4079992  55.4449978 134.5550014 106.5029992  55.6099978 134.2900014
 107.8359992  56.2979978 134.4900014 107.3420700  55.5829529 134.5099520
 110.0119992  57.0149978 134.8500014 109.8299992  57.9309978 134.6400014
 110.1889992  56.6039978 134.0040014 110.0109907  57.0849741 134.7067883
  97.3169992  55.7019978 132.3150014  97.2989992  55.2759978 133.1730014
  98.1219992  55.3829978 131.9070014  97.4233221  55.6007233 132.3770225
  99.4579992  54.4119978 130.9700014  99.2389992  53.4949978 131.1400014
 100.2819992  54.5519978 131.4360014  99.5394702  54.3055511 131.0562527
 101.9949992  54.8819978 131.8190014 102.2079992  53.9939978 131.5320014
 102.0599992  54.8469978 132.7740014 102.0329075  54.7558307 131.9087373
 105.5039992  40.5459978 130.9630014 104.8299992  39.9159978 131.2190014
 106.0679992  40.0619978 130.3600014 105.4880384  40.3943708 130.9165020
 110.6469992  38.6529978 131.0760014 111.2499992  39.2009978 130.5740014
 109.7769992  38.9719978 130.8360014 110.6119190  38.7711041 130.9748679
 112.3739992  39.7919978 129.4090014 112.9849992  39.2779978 128.8830014
 112.7559992  40.6689978 129.4330014 112.5094475  39.8401323 129.3401208
  97.8309992  39.1799978 128.7850014  97.0539992  38.9449978 128.2780014
  98.3609992  38.3829978 128.7940014  97.7963451  39.0401268 128.7168627
  96.6669992  38.9779978 124.5890014  97.1059992  39.5889978 123.9970014
  96.0329992  39.5159978 125.0630014  96.6413859  39.1344064 124.5720305
 102.4099992  39.1059978 128.5990014 103.2839992  39.4949978 128.5690014
 102.2739992  38.8909978 129.5210014 102.5113207  39.1301923 128.7196509
 107.9669992  39.1359978 130.2480014 108.0429992  39.2319978 129.2990014
 107.6919992  38.2289978 130.3770014 107.9402042  39.0264241 130.1353811
 109.3199992  39.1619978 125.9400014 108.6169992  39.7769978 125.7310014
 108.8749992  38.3249978 126.0720014 109.1636292  39.1330085 125.9292439
  96.5679992  54.9259978 125.4870014  95.8829992  54.8879978 124.8190014
  96.5719992  55.8389978 125.7750014  96.4748174  55.0441998 125.4345310
  98.5279992  40.8939978 123.0310014  99.0189992  40.2639978 122.5040014
  99.1509992  41.1899978 123.6950014  98.6795062  40.8476770 123.0485438
 103.5539992  41.1869978 125.4890014 103.7319992  40.5399978 126.1710014
 103.4999992  42.0209978 125.9560014 103.5711025  41.2110504 125.6456433
 105.4319992  56.1349978 123.8840014 106.2979992  56.5019978 123.7060014
 105.1859992  55.6959978 123.0700014 105.5172097  56.1258525 123.7496019
 112.1409992  55.6979978 126.5630014 111.9469992  54.9499978 125.9980014
 112.1019992  56.4559978 125.9800014 112.1091645  55.6980786 126.4068148
  97.7879992  39.6939978 138.3030014  97.4219992  38.9279978 138.7460014
  98.7009992  39.7229978 138.5900014  97.8613225  39.5931906 138.4023459
  99.7609992  39.0439978 139.8390014 100.6599992  38.7699978 139.6540014
  99.3749992  38.3019978 140.3030014  99.8317237  38.9061508 139.8764710
  98.3859992  55.8459978 122.5120014  98.1179992  56.1319978 123.3850014
  99.1569992  55.2999978 122.6640014  98.4535600  55.8113330 122.6521499
 108.1829992  38.3769978 140.0210014 108.2589992  37.9509978 140.8750014
 109.0759992  38.3899978 139.6780014 108.3142267  38.3203952 140.0915932
 111.3589992  54.4499978 138.7130014 110.5769992  54.2629978 138.1940014
 111.2869992  55.3789978 138.9310014 111.2420863  54.5500221 138.6713574
 125.7649992  48.3359978 128.7440014 125.8539992  49.2799978 128.6120014
 125.1269992  48.0609978 128.0860014 125.6909062  48.4279812 128.6369641
 124.6979992  47.5909978 132.1630014 124.6599992  46.9449978 132.8680014
 124.3759992  47.1239978 131.3920014 124.6492679  47.4394276 132.1552921
 117.0659992  47.2049978 133.7560014 117.1079992  46.5799978 134.4790014
 117.7689992  47.8289978 133.9380014 117.1667345  47.2037873 133.8795274
 128.4039992  50.5299978 130.4650014 127.9629992  49.8099978 130.9150014
 128.3909992  51.2509978 131.0940014 128.3417960  50.5288329 130.6117567
 117.9899992  51.6549978 132.2910014 117.6199992  50.8529978 131.9210014
 118.9309992  51.4869978 132.3370014 118.0665984  51.5224638 132.2465603
 114.5999992  45.3149978 127.6840014 114.1519992  46.1609978 127.6650014
 114.0389992  44.7359978 127.1680014 114.4629603  45.3523674 127.6116720
 115.3099992  47.4769978 129.8100014 115.5239992  46.7069978 130.3370014
 116.0479992  47.5669978 129.2060014 115.4389652  47.3838012 129.8005212
 125.5159992  55.6339978 130.6770014 126.1349992  54.9579978 130.4030014
 125.3069992  55.4159978 131.5850014 125.5726232  55.5117938 130.7622517
 123.0869992  50.0229978 132.5690014 123.3909992  49.3369978 131.9750014
 123.8089992  50.1419978 133.1870014 123.2261152  49.9452189 132.5712123
 131.7499992  41.6249978 133.4300014 131.7999992  42.2349978 134.1660014
 132.1759992  42.0859978 132.7070014 131.8144108  41.7707709 133.4330112
 126.2279992  44.4169978 132.8970014 126.3709992  43.4709978 132.9170014
 126.1219992  44.6239978 131.9680014 126.2332509  44.3154813 132.7742231
 119.3829992  42.5189978 130.1690014 119.4259992  43.3789978 129.7510014
 118.9249992  41.9669978 129.5350014 119.3269815  42.5620621 130.0261197
 127.1049992  42.6499978 128.5700014 127.7519992  42.3209978 129.1950014
 127.6149992  43.1669978 127.9470014 127.2624317  42.6749227 128.5712167
 116.0029992  44.9159978 130.9310014 116.6569992  44.3659978 131.3630014
 116.0269992  44.6419978 130.0140014 116.0957199  44.8037167 130.8661668
 121.1599992  46.4659978 130.1460014 121.7759992  45.9389978 130.6560014
 120.5729992  45.8259978 129.7430014 121.1649239  46.3074117 130.1612952
 132.1419992  43.1029978 135.6660014 131.4529992  43.7609978 135.5700014
 132.1569992  42.9049978 136.6020014 132.0496740  43.1663242 135.7794630
 118.1929992  41.4369978 134.2430014 117.9739992  41.9669978 133.4770014
 117.5249992  41.6629978 134.8900014 118.0727001  41.5401154 134.2256064
 125.5619992  50.9369978 127.7870014 125.2669992  50.6139978 126.9360014
 125.2379992  51.8369978 127.8280014 125.4777983  51.0144026 127.6759771
 120.7619992  49.1119978 134.5310014 120.0219992  49.7109978 134.6340014
 121.4759992  49.6659978 134.2150014 120.7573288  49.2687356 134.5023805
 128.8689992  41.9409978 130.5500014 128.6539992  41.1749978 131.0830014
 129.5249992  42.4129978 131.0630014 128.9282673  41.9000728 130.6921990
 117.7869992  43.3289978 132.1950014 118.4009992  43.9619978 132.5690014
 118.2989992  42.8569978 131.5390014 117.9402277  43.3517352 132.1574279
 119.1699992  51.0769978 135.3180014 119.1639992  51.9559978 134.9400014
 118.3159992  50.9929978 135.7430014 119.0537925  51.1859535 135.3236887
 115.2909992  50.7479978 126.1000014 115.0189992  50.9769978 125.2110014
 115.3359992  51.5849978 126.5600014 115.2598709  50.8926058 126.0406107
 128.9159992  52.3689978 132.8120014 127.9739992  52.4279978 132.9740014
 129.1919992  53.2749978 132.6750014 128.8245865  52.4995288 132.8156192
 129.2159992  40.6559978 134.2300014 128.4799992  41.2659978 134.1920014
 129.8999992  41.0709978 133.7030014 129.2075506  40.7956400 134.1536051
 122.2199992  38.7419978 131.6960014 122.1019992  37.7939978 131.6410014
 121.3649992  39.0749978 131.9690014 122.0882679  38.6571926 131.7253720
 127.1679992  54.1499978 129.4380014 127.5929992  53.4429978 128.9530014
 127.4849992  54.9519978 129.0210014 127.2690266  54.1615190 129.3152479
 128.3279992  52.0509978 127.9460014 128.0699992  51.3609978 127.3350014
 128.3989992  51.6079978 128.7920014 128.3022837  51.8967106 127.9766912
 130.0139992  50.6179978 136.4240014 130.1529992  50.0259978 135.6840014
 130.1809992  51.4909978 136.0670014 130.0555562  50.6549896 136.2746283
 124.4859992  47.5799978 126.1960014 123.7749992  48.1149978 125.8440014
 125.1769992  47.6349978 125.5360014 124.4820751  47.6606777 126.0585858
 124.5399992  46.0369978 123.2350014 125.2409992  46.0599978 123.8860014
 124.8419992  45.4089978 122.5790014 124.6768282  45.9552339 123.2354496
 131.8549992  46.9579978 134.4900014 131.2029992  47.6519978 134.5790014
 132.3209992  47.1679978 133.6800014 131.8285937  47.0815019 134.3927533
 127.8919992  47.7889978 127.1480014 127.1599992  48.0179978 127.7210014
 128.3389992  47.0759978 127.6030014 127.8522753  47.7238972 127.2879715
 127.7889992  45.9639978 136.2160014 127.8689992  46.7269978 136.7870014
 127.1879992  46.2429978 135.5250014 127.7187245  46.1062630 136.2008424
 119.5369992  48.4199978 129.0300014 119.2069992  48.0489978 128.2120014
 120.1259992  47.7489978 129.3770014 119.5713970  48.2786063 128.9649404
 120.9039992  51.8479978 131.7120014 120.8089992  51.2689978 130.9550014
 121.6329992  51.4769978 132.2080014 120.9896161  51.7185891 131.6755209
 119.9039992  47.1879978 132.6640014 120.4689992  47.3099978 131.9010014
 120.2229992  47.8259978 133.3030014 120.0243977  47.2908851 132.6459424
 126.2129992  52.6919978 133.3980014 125.9729992  53.3539978 134.0460014
 126.0149992  51.8569978 133.8230014 126.1533826  52.6698115 133.5441566
 120.7839992  51.5879978 137.3810014 120.4729992  52.3699978 137.8360014
 120.1339992  51.4349978 136.6950014 120.6535538  51.6744087 137.3505898
 126.7629992  46.9519978 124.8330014 127.3419992  47.1019978 125.5800014
 127.1769992  47.4219978 124.1100014 126.8983122  47.0361277 124.8375042
 117.7039992  47.7859978 136.6100014 117.7739992  48.4369978 137.3080014
 116.8129992  47.8889978 136.2750014 117.5931802  47.8889757 136.6602249
 124.4889992  53.6879978 128.2680014 124.9629992  53.9839978 129.0460014
 123.9259992  54.4269978 128.0350014 124.4777361  53.8282721 128.3428611
 119.0229992  53.6589978 138.1440014 119.0309992  53.5229978 137.1970014
 118.1069992  53.5419978 138.3960014 118.9002528  53.6245463 138.0483243
 130.4619992  38.7019978 124.6460014 129.5619992  38.8409978 124.9410014
 130.7139992  39.5329978 124.2440014 130.3728683  38.8334055 124.6320232
 118.5279992  47.4889978 126.6200014 118.2359992  48.2569978 126.1290014
 117.8529992  46.8299978 126.4570014 118.3968497  47.5049745 126.5308260
 131.6509992  53.0679978 123.0220014 131.7239992  54.0069978 123.1930014
 132.5559992  52.7629978 122.9660014 131.7834158  53.1553061 123.0378392
 114.6209992  49.8519978 135.4350014 114.1189992  49.8239978 134.6200014
 114.6259992  48.9469978 135.7440014 114.5530416  49.7257368 135.3653766
 114.3709992  52.6329978 132.3190014 115.3169992  52.4879978 132.3000014
 114.2579992  53.4169978 132.8560014 114.4853578  52.7191697 132.3890317
 132.5689992  53.2989978 138.0010014 132.5189992  52.3429978 137.9640014
 131.7419992  53.5659978 138.4020014 132.4503987  53.2045174 138.0501446
 123.5469992  52.8729978 136.8770014 123.6349992  53.6989978 137.3520014
 122.6839992  52.5429978 137.1260014 123.4423357  52.9415468 136.9757653
 123.9619992  56.6449978 126.6830014 123.8859992  56.5239978 125.7370014
 123.9939992  57.5939978 126.8020014 123.9559156  56.7567530 126.5695048
 117.6149992  55.4339978 128.4640014 117.7669992  55.0859978 129.3430014
 116.7639992  55.0769978 128.2090014 117.5207899  55.3381738 128.5497340
 127.0629992  55.7989978 123.6850014 127.4379992  55.0549978 123.2150014
 127.0679992  55.5289978 124.6040014 127.1150024  55.6606950 123.7447987
 126.7319992  55.7249978 126.4350014 125.7969992  55.8249978 126.6130014
 127.0119992  55.0149978 127.0130014 126.6418173  55.6427239 126.5374998
 129.7209992  44.7919978 138.4810014 129.3129992  45.2719978 137.7610014
 129.7609992  43.8859978 138.1730014 129.6705476  44.7353160 138.3408247
 116.8699992  51.1759978 136.4780014 117.0859992  50.8139978 137.3370014
 116.0139992  50.8009978 136.2680014 116.7839354  51.0757906 136.5672160
 119.4879992  39.6459978 132.4730014 118.6269992  39.5589978 132.0660014
 119.4659992  40.5019978 132.9010014 119.3670411  39.7497884 132.4750857
 124.1509992  39.3679978 135.8480014 124.5709992  38.9529978 136.6010014
 123.2179992  39.1889978 135.9650014 124.0823736  39.2869910 135.9668968
 127.4779992  43.1229978 136.7010014 126.9639992  42.9979978 137.4990014
 127.3219992  44.0359978 136.4570014 127.3866967  43.2292123 136.7770937
 128.2399992  47.9839978 122.4630014 128.2819992  47.7619978 121.5330014
 129.0889992  48.3829978 122.6530014 128.3605253  48.0075498 122.3613822
 123.8129992  41.8599978 123.1330014 123.5589992  41.8789978 124.0560014
 123.5559992  40.9889978 122.8320014 123.7435133  41.7448110 123.2185082
 119.5789992  44.6109978 133.5680014 118.9379992  44.5709978 134.2770014
 119.6169992  45.5379978 133.3310014 119.4963670  44.7307795 133.6330550
 119.5759992  44.8319978 128.4800014 118.6839992  44.4919978 128.4220014
 120.0269992  44.4549978 127.7250014 119.5146815  44.7343762 128.3699203
 125.1119992  45.2479978 127.2970014 124.7029992  46.0629978 127.0060014
 125.8319992  45.1079978 126.6830014 125.1534013  45.3406571 127.1740875
 124.2139992  45.4239978 138.7850014 123.6509992  44.7189978 139.1060014
 125.0399992  45.3029978 139.2530014 124.2486674  45.3112165 138.8921751
 126.1169992  44.6939978 130.1110014 125.9209992  45.2999978 129.3960014
 126.2979992  43.8609978 129.6770014 126.1146584  44.6642513 129.9544212
 117.3289992  44.9319978 135.4350014 117.2909992  45.3319978 136.3040014
 116.8389992  44.1149978 135.5260014 117.2575621  44.8762510 135.5661377
 120.6949992  42.3059978 122.2340014 120.2639992  41.8609978 122.9640014
 119.9769992  42.6769978 121.7220014 120.5389363  42.2952968 122.2646211
 113.9379992  42.0479978 129.2860014 114.5679992  42.0189978 130.0050014
 114.3869992  41.6229978 128.5560014 114.0850692  41.9865316 129.2857771
 115.2119992  42.7939978 124.7100014 115.6859992  43.3849978 124.1250014
 114.4939992  43.3239978 125.0570014 115.1798640  42.9465511 124.6767969
 125.3809992  46.3319978 134.7830014 125.7039992  45.7009978 134.1400014
 124.9399992  45.7979978 135.4430014 125.3655789  46.1733522 134.7842232
 122.1579992  42.2599978 129.5670014 121.2469992  42.3169978 129.8550014
 122.6629992  42.1999978 130.3770014 122.1015387  42.2596870 129.7160646
 116.9859992  43.8889978 128.3930014 116.0969992  43.9879978 128.0530014
 117.2829992  43.0469978 128.0470014 116.9044177  43.7887687 128.2996940
 120.6389992  43.8889978 126.0500014 121.5709992  44.0179978 126.2280014
 120.4239992  44.5579978 125.4000014 120.7374472  43.9970806 125.9864891
 126.5629992  41.4949978 132.8310014 125.8859992  41.6259978 133.4950014
 126.0779992  41.3399978 132.0210014 126.4047265  41.4919659 132.8123397
 119.3129992  45.0829978 123.6170014 118.7709992  44.7039978 122.9250014
 120.1469992  45.2779978 123.1880014 119.3515159  45.0575076 123.4644419
 129.8509992  57.1659978 139.1080014 130.0499992  57.5899978 138.2730014
 130.5059992  57.5099978 139.7150014 129.9668501  57.2706091 139.0757097
 117.4489992  49.6399978 138.7160014 118.1809992  49.8949978 139.2770014
 116.6679992  49.8449978 139.2310014 117.4437684  49.7026468 138.8624782
 123.4779992  45.0469978 131.4540014 124.0419992  44.5009978 130.9070014
 123.3299992  44.5259978 132.2420014 123.5352575  44.9016552 131.4856987
 118.4799992  41.1839978 127.8720014 118.1629992  40.2809978 127.8370014
 119.2609992  41.1859978 127.3190014 118.5422307  41.0606951 127.7924314
 122.1039992  43.4359978 133.8680014 121.2689992  43.8899978 133.9780014
 122.6279992  43.7119978 134.6200014 122.0605070  43.5354666 133.9847152
 122.6489992  49.6489978 125.5520014 121.9039992  49.1409978 125.2300014
 122.5139992  49.6979978 126.4990014 122.5289047  49.5861596 125.6358845
 129.7989992  48.7819978 134.3390014 130.4399992  49.2379978 133.7950014
 128.9679992  48.8949978 133.8770014 129.7745171  48.8597502 134.2020237
 126.5459992  42.4629978 123.7520014 125.6079992  42.5739978 123.6000014
 126.8439992  43.3189978 124.0580014 126.4576402  42.5940621 123.7725571
 124.1679992  49.8329978 136.7890014 123.8219992  49.4509978 137.5960014
 123.9679992  50.7659978 136.8610014 124.0936523  49.9069095 136.9090735
 127.2649992  44.3299978 125.4120014 128.1569992  44.1919978 125.7310014
 127.3209992  45.1209978 124.8760014 127.3947107  44.4180526 125.3832091
 117.7729992  48.9439978 131.3220014 118.5179992  48.9409978 130.7210014
 117.8509992  48.1199978 131.8040014 117.8854158  48.8322916 131.3049153
 124.7739992  51.1069978 124.5780014 124.4789992  51.9339978 124.9590014
 124.0709992  50.4879978 124.7740014 124.6385471  51.1365227 124.6566698
 114.7809992  47.4039978 136.6370014 115.0039992  46.9859978 137.4690014
 114.1789992  46.7919978 136.2140014 114.7301260  47.2639933 136.6937320
 121.7979992  46.9209978 138.8500014 121.5019992  46.7559978 137.9550014
 122.7289992  46.7009978 138.8390014 121.8833982  46.8686578 138.7260045
 126.4179992  52.2949978 136.7400014 125.5179992  52.4779978 136.4720014
 126.4519992  52.5539978 137.6610014 126.2992909  52.3550815 136.8277852
 132.1499992  44.5389978 125.1070014 131.5949992  44.1429978 124.4350014
 132.2499992  45.4499978 124.8290014 132.0875888  44.6078990 124.9775206
 132.1129992  50.3399978 137.9440014 131.2619992  50.5779978 137.5770014
 132.7029992  50.3229978 137.1910014 132.0762408  50.3702966 137.7918879
 130.4449992  53.3249978 125.5720014 130.0719992  52.4999978 125.8810014
 130.7219992  53.1419978 124.6750014 130.4313871  53.1872441 125.4929677
 127.6049992  48.1329978 132.5930014 126.6769992  47.9019978 132.5660014
 128.0559992  47.3559978 132.2630014 127.5388165  47.9962774 132.5446790
 120.1479992  52.4619978 128.7260014 120.6759992  53.2349978 128.5260014
 119.2679992  52.6859978 128.4250014 120.1013176  52.5983161 128.6578409
 115.9029992  47.3239978 123.3140014 116.5189992  47.9509978 123.6930014
 115.0409992  47.6399978 123.5850014 115.8708195  47.4525798 123.4025386
 121.5759992  50.1249978 128.3030014 121.3349992  51.0499978 128.3440014
 120.8349992  49.6659978 128.6990014 121.4428390  50.1896403 128.3621404
 122.0899992  54.2739978 134.6180014 122.4529992  55.1279978 134.3840014
 122.6219992  53.9819978 135.3580014 122.2116090  54.3514058 134.6860219
 120.2589992  55.1459978 127.8480014 119.3089992  55.2519978 127.8990014
 120.6109992  55.9669978 128.1930014 120.1765480  55.2714438 127.9015999
 125.6339992  50.3729978 134.3180014 125.2089992  50.1449978 135.1450014
 126.2149992  49.6339978 134.1360014 125.6543930  50.2419843 134.4064732
 127.8369992  51.3019978 123.3920014 128.1909992  50.9219978 124.1970014
 126.8889992  51.2079978 123.4790014 127.7571820  51.2373092 123.5138714
 128.2929992  54.9249978 136.7880014 127.6909992  54.3689978 136.2920014
 128.5739992  55.5919978 136.1620014 128.2486829  54.9391613 136.6355443
 132.3409992  55.7809978 123.5930014 133.0849992  56.3669978 123.4530014
 131.6469992  56.3499978 123.9270014 132.3490201  55.9380603 123.6189772
 116.4149992  42.1579978 136.1950014 115.5229992  42.4959978 136.1280014
 116.3169992  41.3019978 136.6130014 116.2794965  42.0886499 136.2423044
 128.7029992  49.9739978 125.6190014 128.4259992  49.2459978 126.1750014
 129.6309992  50.0929978 125.8240014 128.7904499  49.8904213 125.7228044
 116.0669992  53.9619978 134.6300014 116.2839992  53.0299978 134.5990014
 116.3129992  54.2369978 135.5130014 116.1299809  53.8715686 134.7451691
 121.9279992  52.4139978 121.8390014 122.1669992  51.6649978 121.2920014
 121.6589992  52.0259978 122.6720014 121.9243233  52.2591853 121.8767809
 120.8649992  51.9839978 124.2960014 121.0119992  51.4639978 125.0860014
 120.8619992  52.8909978 124.6020014 120.8847300  52.0353964 124.4455895
 117.3179992  49.2359978 124.8060014 116.6319992  49.5889978 125.3730014
 117.8409992  49.9989978 124.5600014 117.2949033  49.3873746 124.8502661
 125.1499992  41.8989978 135.0850014 125.8489992  41.9729978 135.7350014
 124.7689992  41.0339978 135.2390014 125.1942097  41.7922389 135.1947997
 125.9339992  41.5509978 126.1820014 126.1539992  42.0219978 125.3790014
 126.4929992  41.9449978 126.8520014 126.0396730  41.6687432 126.1625906
 123.6029992  53.6809978 125.0450014 122.7859992  54.1779978 125.0970014
 124.1319992  54.1569978 124.4050014 123.5628508  53.8132543 124.9656035
 123.1339992  43.2789978 127.0170014 123.9459992  43.7829978 127.0630014
 122.8899992  43.1339978 127.9310014 123.2121467  43.3283749 127.1468575
 123.6699992  44.2649978 136.2020014 123.7889992  44.8389978 136.9590014
 124.3249992  43.5769978 136.3160014 123.7749146  44.2505574 136.3211314
 124.0179992  40.3599978 127.9550014 123.6709992  40.9769978 128.6000014
 124.6769992  40.8609978 127.4740014 124.0595949  40.5121099 127.9782271
 120.9409992  54.7249978 125.0270014 121.1019992  55.5249978 124.5260014
 120.7439992  55.0319978 125.9120014 120.9363919  54.8759129 125.0781006
 119.6759992  41.4229978 124.6420014 119.5919992  42.3109978 124.9890014
 120.5659992  41.1579978 124.8740014 119.7848163  41.5087179 124.7208596
 129.8739992  42.1719978 137.0370014 128.9579992  42.4339978 136.9490014
 130.2099992  42.1689978 136.1400014 129.7939789  42.2074626 136.9037847
 128.4769992  45.9219978 131.1320014 127.6789992  45.5069978 130.8040014
 128.9219992  45.2319978 131.6230014 128.4279684  45.7718628 131.1535227
 117.9339992  51.8499978 123.7030014 118.5259992  52.5499978 123.9790014
 118.3929992  51.4169978 122.9830014 118.0770791  51.8872908 123.6434607
 116.2499992  44.5149978 122.8190014 116.2049992  45.4539978 122.9970014
 115.3619992  44.2789978 122.5490014 116.1238555  44.6116874 122.8068939
 129.5629992  55.1779978 132.7550014 129.4069992  55.8569978 132.0980014
 130.4959992  55.2499978 132.9580014 129.6677387  55.2806390 132.6925342
 117.0579992  39.2959978 131.4920014 116.8289992  39.3549978 130.5640014
 116.6159992  38.5049978 131.7980014 116.9668801  39.1970540 131.4064729
 115.9889992  53.2369978 127.6520014 115.1559992  53.7089978 127.6800014
 116.5339992  53.7469978 127.0540014 115.9487590  53.3705897 127.5749194
 115.2769992  55.8489978 138.9820014 115.8169992  55.6329978 139.7420014
 114.7959992  55.0439978 138.7930014 115.2858613  55.7105400 139.0604782
 119.8739992  54.7689978 140.6030014 120.6419992  54.3099978 140.9440014
 119.8529992  54.5429978 139.6730014 119.9762135  54.6756668 140.5239491
 123.9659992  54.2769978 121.9780014 123.3219992  53.6459978 122.2990014
 124.7279992  53.7459978 121.7460014 123.9808058  54.1187902 121.9906038
 126.4509992  53.1489978 139.3320014 126.0999992  52.2919978 139.5750014
 127.1769992  53.2909978 139.9390014 126.5011590  53.0510178 139.4472907
 128.5709992  54.0939978 122.2120014 128.8539992  53.2989978 122.6640014
 129.3099992  54.3269978 121.6510014 128.7096956  54.0167031 122.1979822
 115.1839992  49.6599978 139.9370014 115.3279992  48.7579978 139.6500014
 114.4119992  49.9459978 139.4490014 115.0993303  49.5753243 139.8317908
 119.5249992  50.0029978 122.0690014 119.5899992  49.2089978 122.6000014
 120.1779992  49.8849978 121.3790014 119.6221754  49.8783337 122.0484259
 121.8389992  49.6289978 139.3690014 121.5109992  49.8999978 138.5120014
 121.9909992  48.6879978 139.2820014 121.8146030  49.5388973 139.2397945
 124.8779992  51.0499978 121.8050014 124.6089992  51.2309978 122.7060014
 124.6709992  50.1249978 121.6740014 124.8132000  50.9496774 121.9105693
 127.5739992  49.5449978 136.7530014 128.3189992  50.1339978 136.6330014
 126.8169992  50.1269978 136.8160014 127.5735205  49.7041997 136.7451119
 116.0169992  46.8599978 139.3570014 116.4249992  46.0029978 139.2360014
 115.7559992  46.8739978 140.2780014 116.0376016  46.7445119 139.4649192
 120.6749992  47.9759978 124.3750014 120.2149992  47.4919978 125.0610014
 120.9299992  47.3069978 123.7390014 120.6465038  47.8193689 124.3829447
 119.9639992  45.8689978 136.7310014 119.3449992  46.5429978 137.0110014
 120.3079992  46.1899978 135.8980014 119.9257605  46.0047198 136.6566707
 121.7459992  46.2189978 122.6370014 121.5649992  46.0639978 121.7100014
 122.6959992  46.3269978 122.6820014 121.8496566  46.2123669 122.5160929
 124.9829992  48.3399978 140.0080014 125.9369992  48.4239978 139.9810014
 124.8229992  47.6279978 140.6280014 125.0917182  48.2552842 140.0880733
 131.1359992  48.5729978 122.0830014 130.8619992  48.1489978 121.2700014
 131.1749992  49.5049978 121.8660014 131.1037716  48.6408827 121.9424286
 120.3029992  43.2239978 137.8130014 120.4529992  42.4949978 137.2110014
 120.3049992  44.0009978 137.2540014 120.3237967  43.2292708 137.6550541
 120.7159992  41.5929978 135.3060014 121.2509992  42.0449978 134.6540014
 119.8629992  41.4849978 134.8830014 120.6740374  41.6402665 135.1596710
 122.2969992  47.0329978 135.5450014 123.0479992  46.8769978 134.9720014
 121.9579992  47.8849978 135.2700014 122.3539587  47.1268138 135.4294078
 126.7129992  44.8479978 140.5740014 126.9049992  43.9169978 140.4620014
 127.5709992  45.2729978 140.5640014 126.8552269  44.7779928 140.5573192
 128.0299992  47.6369978 138.6510014 127.7479992  48.3459978 138.0740014
 128.9719992  47.5639978 138.5000014 128.1187656  47.7243128 138.5514809
 118.7819992  44.4219978 139.7250014 118.0139992  43.8889978 139.5150014
 119.4599992  44.1119978 139.1250014 118.7686973  44.3072375 139.6151796
 121.5209992  39.0499978 135.7370014 121.4229992  39.9959978 135.6320014
 120.7789992  38.6769978 135.2620014 121.4071913  39.1291813 135.6583539
 122.7849992  43.3709978 139.3010014 122.5499992  43.1519978 140.2030014
 122.0019992  43.1639978 138.7910014 122.6469219  43.3130066 139.3555852
 125.5009992  42.4989978 138.3770014 124.5529992  42.5309978 138.5090014
 125.8129992  41.8729978 139.0300014 125.4135190  42.4187262 138.4833564
 127.1349992  41.1329978 140.3820014 127.0379992  40.1809978 140.3760014
 126.8129992  41.4009978 141.2420014 127.0781761  41.0389744 140.4974936
 116.9619992  42.3419978 139.4290014 117.1739992  41.6359978 138.8190014
 116.8509992  41.9049978 140.2730014 116.9760269  42.1861921 139.4595873
 121.7429992  38.3439978 138.4090014 122.4549992  37.7039978 138.3950014
 121.6419992  38.6099978 137.4950014 121.8267261  38.2924190 138.2835537
 122.0969992  40.0259978 140.4620014 121.9649992  39.5509978 139.6420014
 121.4969992  40.7709978 140.4070014 121.9979070  40.0615789 140.3423251
 121.6429992  56.9089978 123.6390014 122.5759992  57.0669978 123.7820014
 121.3789992  57.5849978 123.0140014 121.7349308  57.0219104 123.5741396
 115.2109992  51.5459978 123.1210014 116.1249992  51.6249978 123.3950014
 115.2189992  50.8589978 122.4550014 115.3371143  51.4639085 123.0684274
 113.8599992  56.9389978 128.1990014 113.2129992  56.4769978 127.6660014
 114.2149992  56.2669978 128.7810014 113.8194506  56.7849503 128.2047341
 114.7299992  55.0189978 130.0030014 114.3959992  54.1389978 130.1750014
 114.9529992  55.3649978 130.8680014 114.7143721  54.9451938 130.1434168
 132.2789992  55.8289978 132.9840014 132.2569992  56.0139978 133.9230014
 132.9689992  56.3969978 132.6430014 132.3693439  55.9311887 133.0664791
 131.8419992  55.3959978 135.9060014 131.3549992  54.6609978 135.5350014
 132.3909992  55.0019978 136.5840014 131.8495247  55.2421057 135.9468461
 130.2929992  51.1859978 140.5440014 129.4269992  51.0809978 140.9380014
 130.6689992  51.9439978 140.9900014 130.2253401  51.2741708 140.6582620
 131.5939992  49.4419978 126.0580014 132.4439992  49.8629978 126.1850014
 131.5989992  48.7019978 126.6650014 131.7111143  49.3996094 126.1574750
 131.9879992  47.4959978 127.8820014 131.2619992  47.0159978 128.2790014
 132.5699992  47.7009978 128.6140014 131.9671635  47.4579166 128.0353748
 131.7469992  50.2809978 132.8290014 132.5809992  49.9029978 132.5490014
 131.8589992  51.2239978 132.7100014 131.8762522  50.3567742 132.7746020
 130.2339992  53.1589978 135.1360014 129.5859992  53.4839978 135.7620014
 129.7159992  52.7179978 134.4620014 130.0754168  53.1438523 135.1305307
 132.2569992  47.3969978 124.2730014 131.7349992  47.7529978 123.5540014
 132.2239992  48.0719978 124.9510014 132.1810699  47.5369848 124.2662129
 130.6059992  44.6359978 122.8240014 130.7019992  45.3029978 122.1440014
 130.4659992  43.8209978 122.3420014 130.6002063  44.6170667 122.6658377
 129.7749992  46.0169978 128.4450014 129.6249992  45.0719978 128.4240014
 129.4209992  46.2979978 129.2880014 129.7065527  45.9255605 128.5561859
 114.8099992  48.0949978 132.4550014 114.9949992  48.0129978 131.5190014
 115.6599992  47.9709978 132.8790014 114.9500916  48.0670393 132.3842896
 130.6309992  47.9869978 138.0830014 131.2139992  47.2519978 138.2750014
 131.1949992  48.7589978 138.1300014 130.7869781  47.9908145 138.1156164
 132.1279992  45.8899978 138.7680014 131.2649992  45.5109978 138.6020014
 132.7319992  45.1509978 138.6940014 132.0915944  45.7382978 138.7352984
 129.8529992  42.0439978 121.9410014 130.4639992  41.6729978 122.5780014
 129.0159992  41.6229978 122.1370014 129.8234947  41.9362756 122.0547252
 129.4859992  43.5989978 126.9070014 129.7649992  42.6919978 127.0310014
 130.2449992  44.0329978 126.5180014 129.6268619  43.5334502 126.8713795
 130.0969992  44.1809978 132.3430014 131.0299992  44.3929978 132.3090014
 129.8619992  44.2819978 133.2650014 130.1928308  44.2236503 132.4630214
 130.1269992  44.9179978 135.1190014 129.2839992  45.1859978 135.4850014
 130.5689992  45.7399978 134.9080014 130.0714138  45.0658273 135.1405518
 114.4079992  43.3649978 138.5960014 115.3269992  43.2429978 138.8320014
 113.9579992  42.6149978 138.9850014 114.4731148  43.2468751 138.6809408
 132.4099992  38.8979978 140.4720014 132.7589992  38.2439978 139.8670014
 132.5569992  39.7349978 140.0330014 132.4777355  38.9216067 140.3296564
 130.0989992  40.8619978 126.9550014 130.2809992  40.4129978 127.7810014
 129.4989992  40.2779978 126.4920014 130.0427529  40.7216131 127.0053619
 115.6289992  41.6779978 131.4870014 116.0739992  40.8859978 131.7890014
 116.0949992  42.3939978 131.9180014 115.7529059  41.6664474 131.5866079
 113.9329992  44.6769978 132.5560014 114.4249992  44.4559978 131.7650014
 114.2949992  45.5169978 132.8370014 114.0492923  44.7603468 132.4857407
 131.9289992  41.0069978 138.8220014 131.0119992  41.2779978 138.7860014
 132.0519992  40.4719978 138.0380014 131.8200828  40.9717700 138.7110785
 131.9659992  40.9299978 123.4830014 132.3779992  40.2089978 123.0080014
 132.6469992  41.5989978 123.5420014 132.1145900  40.9217306 123.4259038
 114.2469992  40.9349978 126.6100014 113.3219992  41.1429978 126.4810014
 114.7009992  41.4189978 125.9210014 114.1816374  41.0289949 126.4990957
 129.0169992  55.9189978 128.5560014 129.6699992  55.5709978 127.9480014
 129.5279992  56.4069978 129.2020014 129.1752777  55.9373815 128.5602047
 114.2099992  39.6729978 134.9550014 113.5449992  39.4269978 135.5980014
 113.7669992  40.2949978 134.3770014 114.0590937  39.7233614 134.9649379
 116.4019992  52.8479978 139.0990014 115.5809992  53.0229978 138.6390014
 116.1499992  52.7749978 140.0200014 116.2556173  52.8620794 139.1604972
 119.3559992  53.8219978 135.3580014 118.9319992  54.6319978 135.0750014
 120.2609992  53.9079978 135.0560014 119.4202433  53.9443331 135.2785377
 123.6679992  55.2209978 138.3170014 123.8519992  54.8879978 139.1950014
 124.5139992  55.5309978 137.9950014 123.8076484  55.2172979 138.3937617
 126.0129992  56.5069978 137.5610014 126.6899992  55.8739978 137.3210014
 126.3339992  56.9079978 138.3680014 126.1491323  56.4745691 137.6373158
 130.9299992  39.0969978 136.6410014 130.1169992  39.4219978 136.2530014
 131.1629992  38.3359978 136.1080014 130.8502566  39.0386559 136.5159213
 116.7579992  57.0789978 135.4050014 116.0379992  57.5189978 134.9540014
 116.3929992  56.8279978 136.2540014 116.6099796  57.1053824 135.4579329
 119.2249992  56.6789978 134.4350014 118.3609992  56.7509978 134.8390014
 119.1699992  57.2259978 133.6510014 119.0991942  56.7627849 134.3844000
 123.9359992  56.5669978 133.6100014 123.4789992  57.0959978 132.9560014
 124.0989992  57.1699978 134.3360014 123.8954476  56.7209140 133.6185499
 126.2639992  55.4449978 134.5550014 125.3589992  55.6099978 134.2900014
 126.6919992  56.2979978 134.4900014 126.1980700  55.5829529 134.5099520
 128.8679992  57.0149978 134.8500014 128.6859992  57.9309978 134.6400014
 129.0449992  56.6039978 134.0040014 128.8669907  57.0849741 134.7067883
 116.1729992  55.7019978 132.3150014 116.1549992  55.2759978 133.1730014
 116.9779992  55.3829978 131.9070014 116.2793221  55.6007233 132.3770225
 118.3139992  54.4119978 130.9700014 118.0949992  53.4949978 131.1400014
 119.1379992  54.5519978 131.4360014 118.3954702  54.3055511 131.0562527
 120.8509992  54.8819978 131.8190014 121.0639992  53.9939978 131.5320014
 120.9159992  54.8469978 132.7740014 120.8889075  54.7558307 131.9087373
 124.3599992  40.5459978 130.9630014 123.6859992  39.9159978 131.2190014
 124.9239992  40.0619978 130.3600014 124.3440384  40.3943708 130.9165020
 129.5029992  38.6529978 131.0760014 130.1059992  39.2009978 130.5740014
 128.6329992  38.9719978 130.8360014 129.4679190  38.7711041 130.9748679
 131.2299992  39.7919978 129.4090014 131.8409992  39.2779978 128.8830014
 131.6119992  40.6689978 129.4330014 131.3654475  39.8401323 129.3401208
 116.6869992  39.1799978 128.7850014 115.9099992  38.9449978 128.2780014
 117.2169992  38.3829978 128.7940014 116.6523451  39.0401268 128.7168627
 115.5229992  38.9779978 124.5890014 115.9619992  39.5889978 123.9970014
 114.8889992  39.5159978 125.0630014 115.4973859  39.1344064 124.5720305
 121.2659992  39.1059978 128.5990014 122.1399992  39.4949978 128.5690014
 121.1299992  38.8909978 129.5210014 121.3673207  39.1301923 128.7196509
 126.8229992  39.1359978 130.2480014 126.8989992  39.2319978 129.2990014
 126.5479992  38.2289978 130.3770014 126.7962042  39.0264241 130.1353811
 128.1759992  39.1619978 125.9400014 127.4729992  39.7769978 125.7310014
 127.7309992  38.3249978 126.0720014 128.0196292  39.1330085 125.9292439
 115.4239992  54.9259978 125.4870014 114.7389992  54.8879978 124.8190014
 115.4279992  55.8389978 125.7750014 115.3308174  55.0441998 125.4345310
 117.3839992  40.8939978 123.0310014 117.8749992  40.2639978 122.5040014
 118.0069992  41.1899978 123.6950014 117.5355062  40.8476770 123.0485438
 122.4099992  41.1869978 125.4890014 122.5879992  40.5399978 126.1710014
 122.3559992  42.0209978 125.9560014 122.4271025  41.2110504 125.6456433
 124.2879992  56.1349978 123.8840014 125.1539992  56.5019978 123.7060014
 124.0419992  55.6959978 123.0700014 124.3732097  56.1258525 123.7496019
 130.9969992  55.6979978 126.5630014 130.8029992  54.9499978 125.9980014
 130.9579992  56.4559978 125.9800014 130.9651645  55.6980786 126.4068148
 116.6439992  39.6939978 138.3030014 116.2779992  38.9279978 138.7460014
 117.5569992  39.7229978 138.5900014 116.7173225  39.5931906 138.4023459
 118.6169992  39.0439978 139.8390014 119.5159992  38.7699978 139.6540014
 118.2309992  38.3019978 140.3030014 118.6877237  38.9061508 139.8764710
 117.2419992  55.8459978 122.5120014 116.9739992  56.1319978 123.3850014
 118.0129992  55.2999978 122.6640014 117.3095600  55.8113330 122.6521499
 127.0389992  38.3769978 140.0210014 127.1149992  37.9509978 140.8750014
 127.9319992  38.3899978 139.6780014 127.1702267  38.3203952 140.0915932
 130.2149992  54.4499978 138.7130014 129.4329992  54.2629978 138.1940014
 130.1429992  55.3789978 138.9310014 130.0980863  54.5500221 138.6713574
 144.6209992  48.3359978 128.7440014 144.7099992  49.2799978 128.6120014
 143.9829992  48.0609978 128.0860014 144.5469062  48.4279812 128.6369641
 143.5539992  47.5909978 132.1630014 143.5159992  46.9449978 132.8680014
 143.2319992  47.1239978 131.3920014 143.5052679  47.4394276 132.1552921
 135.9219992  47.2049978 133.7560014 135.9639992  46.5799978 134.4790014
 136.6249992  47.8289978 133.9380014 136.0227345  47.2037873 133.8795274
 136.8459992  51.6549978 132.2910014 136.4759992  50.8529978 131.9210014
 137.7869992  51.4869978 132.3370014 136.9225984  51.5224638 132.2465603
 133.4559992  45.3149978 127.6840014 133.0079992  46.1609978 127.6650014
 132.8949992  44.7359978 127.1680014 133.3189603  45.3523674 127.6116720
 134.1659992  47.4769978 129.8100014 134.3799992  46.7069978 130.3370014
 134.9039992  47.5669978 129.2060014 134.2949652  47.3838012 129.8005212
 144.3719992  55.6339978 130.6770014 144.9909992  54.9579978 130.4030014
 144.1629992  55.4159978 131.5850014 144.4286232  55.5117938 130.7622517
 141.9429992  50.0229978 132.5690014 142.2469992  49.3369978 131.9750014
 142.6649992  50.1419978 133.1870014 142.0821152  49.9452189 132.5712123
 145.0839992  44.4169978 132.8970014 145.2269992  43.4709978 132.9170014
 144.9779992  44.6239978 131.9680014 145.0892509  44.3154813 132.7742231
 138.2389992  42.5189978 130.1690014 138.2819992  43.3789978 129.7510014
 137.7809992  41.9669978 129.5350014 138.1829815  42.5620621 130.0261197
 134.8589992  44.9159978 130.9310014 135.5129992  44.3659978 131.3630014
 134.8829992  44.6419978 130.0140014 134.9517199  44.8037167 130.8661668
 140.0159992  46.4659978 130.1460014 140.6319992  45.9389978 130.6560014
 139.4289992  45.8259978 129.7430014 140.0209239  46.3074117 130.1612952
 137.0489992  41.4369978 134.2430014 136.8299992  41.9669978 133.4770014
 136.3809992  41.6629978 134.8900014 136.9287001  41.5401154 134.2256064
 144.4179992  50.9369978 127.7870014 144.1229992  50.6139978 126.9360014
 144.0939992  51.8369978 127.8280014 144.3337983  51.0144026 127.6759771
 139.6179992  49.1119978 134.5310014 138.8779992  49.7109978 134.6340014
 140.3319992  49.6659978 134.2150014 139.6133288  49.2687356 134.5023805
 136.6429992  43.3289978 132.1950014 137.2569992  43.9619978 132.5690014
 137.1549992  42.8569978 131.5390014 136.7962277  43.3517352 132.1574279
 138.0259992  51.0769978 135.3180014 138.0199992  51.9559978 134.9400014
 137.1719992  50.9929978 135.7430014 137.9097925  51.1859535 135.3236887
 134.1469992  50.7479978 126.1000014 133.8749992  50.9769978 125.2110014
 134.1919992  51.5849978 126.5600014 134.1158709  50.8926058 126.0406107
 141.0759992  38.7419978 131.6960014 140.9579992  37.7939978 131.6410014
 140.2209992  39.0749978 131.9690014 140.9442679  38.6571926 131.7253720
 143.3419992  47.5799978 126.1960014 142.6309992  48.1149978 125.8440014
 144.0329992  47.6349978 125.5360014 143.3380751  47.6606777 126.0585858
 143.3959992  46.0369978 123.2350014 144.0969992  46.0599978 123.8860014
 143.6979992  45.4089978 122.5790014 143.5328282  45.9552339 123.2354496
 138.3929992  48.4199978 129.0300014 138.0629992  48.0489978 128.2120014
 138.9819992  47.7489978 129.3770014 138.4273970  48.2786063 128.9649404
 139.7599992  51.8479978 131.7120014 139.6649992  51.2689978 130.9550014
 140.4889992  51.4769978 132.2080014 139.8456161  51.7185891 131.6755209
 138.7599992  47.1879978 132.6640014 139.3249992  47.3099978 131.9010014
 139.0789992  47.8259978 133.3030014 138.8803977  47.2908851 132.6459424
 145.0689992  52.6919978 133.3980014 144.8289992  53.3539978 134.0460014
 144.8709992  51.8569978 133.8230014 145.0093826  52.6698115 133.5441566
 139.6399992  51.5879978 137.3810014 139.3289992  52.3699978 137.8360014
 138.9899992  51.4349978 136.6950014 139.5095538  51.6744087 137.3505898
 136.5599992  47.7859978 136.6100014 136.6299992  48.4369978 137.3080014
 135.6689992  47.8889978 136.2750014 136.4491802  47.8889757 136.6602249
 143.3449992  53.6879978 128.2680014 143.8189992  53.9839978 129.0460014
 142.7819992  54.4269978 128.0350014 143.3337361  53.8282721 128.3428611
 137.8789992  53.6589978 138.1440014 137.8869992  53.5229978 137.1970014
 136.9629992  53.5419978 138.3960014 137.7562528  53.6245463 138.0483243
 137.3839992  47.4889978 126.6200014 137.0919992  48.2569978 126.1290014
 136.7089992  46.8299978 126.4570014 137.2528497  47.5049745 126.5308260
 133.4769992  49.8519978 135.4350014 132.9749992  49.8239978 134.6200014
 133.4819992  48.9469978 135.7440014 133.4090416  49.7257368 135.3653766
 133.2269992  52.6329978 132.3190014 134.1729992  52.4879978 132.3000014
 133.1139992  53.4169978 132.8560014 133.3413578  52.7191697 132.3890317
 142.4029992  52.8729978 136.8770014 142.4909992  53.6989978 137.3520014
 141.5399992  52.5429978 137.1260014 142.2983357  52.9415468 136.9757653
 142.8179992  56.6449978 126.6830014 142.7419992  56.5239978 125.7370014
 142.8499992  57.5939978 126.8020014 142.8119156  56.7567530 126.5695048
 136.4709992  55.4339978 128.4640014 136.6229992  55.0859978 129.3430014
 135.6199992  55.0769978 128.2090014 136.3767899  55.3381738 128.5497340
 135.7259992  51.1759978 136.4780014 135.9419992  50.8139978 137.3370014
 134.8699992  50.8009978 136.2680014 135.6399354  51.0757906 136.5672160
 138.3439992  39.6459978 132.4730014 137.4829992  39.5589978 132.0660014
 138.3219992  40.5019978 132.9010014 138.2230411  39.7497884 132.4750857
 143.0069992  39.3679978 135.8480014 143.4269992  38.9529978 136.6010014
 142.0739992  39.1889978 135.9650014 142.9383736  39.2869910 135.9668968
 142.6689992  41.8599978 123.1330014 142.4149992  41.8789978 124.0560014
 142.4119992  40.9889978 122.8320014 142.5995133  41.7448110 123.2185082
 138.4349992  44.6109978 133.5680014 137.7939992  44.5709978 134.2770014
 138.4729992  45.5379978 133.3310014 138.3523670  44.7307795 133.6330550
 138.4319992  44.8319978 128.4800014 137.5399992  44.4919978 128.4220014
 138.8829992  44.4549978 127.7250014 138.3706815  44.7343762 128.3699203
 143.9679992  45.2479978 127.2970014 143.5589992  46.0629978 127.0060014
 144.6879992  45.1079978 126.6830014 144.0094013  45.3406571 127.1740875
 143.0699992  45.4239978 138.7850014 142.5069992  44.7189978 139.1060014
 143.8959992  45.3029978 139.2530014 143.1046674  45.3112165 138.8921751
 144.9729992  44.6939978 130.1110014 144.7769992  45.2999978 129.3960014
 145.1539992  43.8609978 129.6770014 144.9706584  44.6642513 129.9544212
 136.1849992  44.9319978 135.4350014 136.1469992  45.3319978 136.3040014
 135.6949992  44.1149978 135.5260014 136.1135621  44.8762510 135.5661377
 139.5509992  42.3059978 122.2340014 139.1199992  41.8609978 122.9640014
 138.8329992  42.6769978 121.7220014 139.3949363  42.2952968 122.2646211
 132.7939992  42.0479978 129.2860014 133.4239992  42.0189978 130.0050014
 133.2429992  41.6229978 128.5560014 132.9410692  41.9865316 129.2857771
 134.0679992  42.7939978 124.7100014 134.5419992  43.3849978 124.1250014
 133.3499992  43.3239978 125.0570014 134.0358640  42.9465511 124.6767969
 144.2369992  46.3319978 134.7830014 144.5599992  45.7009978 134.1400014
 143.7959992  45.7979978 135.4430014 144.2215789  46.1733522 134.7842232
 141.0139992  42.2599978 129.5670014 140.1029992  42.3169978 129.8550014
 141.5189992  42.1999978 130.3770014 140.9575387  42.2596870 129.7160646
 135.8419992  43.8889978 128.3930014 134.9529992  43.9879978 128.0530014
 136.1389992  43.0469978 128.0470014 135.7604177  43.7887687 128.2996940
 139.4949992  43.8889978 126.0500014 140.4269992  44.0179978 126.2280014
 139.2799992  44.5579978 125.4000014 139.5934472  43.9970806 125.9864891
 145.4189992  41.4949978 132.8310014 144.7419992  41.6259978 133.4950014
 144.9339992  41.3399978 132.0210014 145.2607265  41.4919659 132.8123397
 138.1689992  45.0829978 123.6170014 137.6269992  44.7039978 122.9250014
 139.0029992  45.2779978 123.1880014 138.2075159  45.0575076 123.4644419
 136.3049992  49.6399978 138.7160014 137.0369992  49.8949978 139.2770014
 135.5239992  49.8449978 139.2310014 136.2997684  49.7026468 138.8624782
 142.3339992  45.0469978 131.4540014 142.8979992  44.5009978 130.9070014
 142.1859992  44.5259978 132.2420014 142.3912575  44.9016552 131.4856987
 137.3359992  41.1839978 127.8720014 137.0189992  40.2809978 127.8370014
 138.1169992  41.1859978 127.3190014 137.3982307  41.0606951 127.7924314
 140.9599992  43.4359978 133.8680014 140.1249992  43.8899978 133.9780014
 141.4839992  43.7119978 134.6200014 140.9165070  43.5354666 133.9847152
 141.5049992  49.6489978 125.5520014 140.7599992  49.1409978 125.2300014
 141.3699992  49.6979978 126.4990014 141.3849047  49.5861596 125.6358845
 145.4019992  42.4629978 123.7520014 144.4639992  42.5739978 123.6000014
 145.6999992  43.3189978 124.0580014 145.3136402  42.5940621 123.7725571
 143.0239992  49.8329978 136.7890014 142.6779992  49.4509978 137.5960014
 142.8239992  50.7659978 136.8610014 142.9496523  49.9069095 136.9090735
 136.6289992  48.9439978 131.3220014 137.3739992  48.9409978 130.7210014
 136.7069992  48.1199978 131.8040014 136.7414158  48.8322916 131.3049153
 143.6299992  51.1069978 124.5780014 143.3349992  51.9339978 124.9590014
 142.9269992  50.4879978 124.7740014 143.4945471  51.1365227 124.6566698
 133.6369992  47.4039978 136.6370014 133.8599992  46.9859978 137.4690014
 133.0349992  46.7919978 136.2140014 133.5861260  47.2639933 136.6937320
 140.6539992  46.9209978 138.8500014 140.3579992  46.7559978 137.9550014
 141.5849992  46.7009978 138.8390014 140.7393982  46.8686578 138.7260045
 145.2739992  52.2949978 136.7400014 144.3739992  52.4779978 136.4720014
 145.3079992  52.5539978 137.6610014 145.1552909  52.3550815 136.8277852
 139.0039992  52.4619978 128.7260014 139.5319992  53.2349978 128.5260014
 138.1239992  52.6859978 128.4250014 138.9573176  52.5983161 128.6578409
 134.7589992  47.3239978 123.3140014 135.3749992  47.9509978 123.6930014
 133.8969992  47.6399978 123.5850014 134.7268195  47.4525798 123.4025386
 140.4319992  50.1249978 128.3030014 140.1909992  51.0499978 128.3440014
 139.6909992  49.6659978 128.6990014 140.2988390  50.1896403 128.3621404
 140.9459992  54.2739978 134.6180014 141.3089992  55.1279978 134.3840014
 141.4779992  53.9819978 135.3580014 141.0676090  54.3514058 134.6860219
 139.1149992  55.1459978 127.8480014 138.1649992  55.2519978 127.8990014
 139.4669992  55.9669978 128.1930014 139.0325480  55.2714438 127.9015999
 144.4899992  50.3729978 134.3180014 144.0649992  50.1449978 135.1450014
 145.0709992  49.6339978 134.1360014 144.5103930  50.2419843 134.4064732
 135.2709992  42.1579978 136.1950014 134.3789992  42.4959978 136.1280014
 135.1729992  41.3019978 136.6130014 135.1354965  42.0886499 136.2423044
 134.9229992  53.9619978 134.6300014 135.1399992  53.0299978 134.5990014
 135.1689992  54.2369978 135.5130014 134.9859809  53.8715686 134.7451691
 140.7839992  52.4139978 121.8390014 141.0229992  51.6649978 121.2920014
 140.5149992  52.0259978 122.6720014 140.7803233  52.2591853 121.8767809
 139.7209992  51.9839978 124.2960014 139.8679992  51.4639978 125.0860014
 139.7179992  52.8909978 124.6020014 139.7407300  52.0353964 124.4455895
 136.1739992  49.2359978 124.8060014 135.4879992  49.5889978 125.3730014
 136.6969992  49.9989978 124.5600014 136.1509033  49.3873746 124.8502661
 144.0059992  41.8989978 135.0850014 144.7049992  41.9729978 135.7350014
 143.6249992  41.0339978 135.2390014 144.0502097  41.7922389 135.1947997
 144.7899992  41.5509978 126.1820014 145.0099992  42.0219978 125.3790014
 145.3489992  41.9449978 126.8520014 144.8956730  41.6687432 126.1625906
 142.4589992  53.6809978 125.0450014 141.6419992  54.1779978 125.0970014
 142.9879992  54.1569978 124.4050014 142.4188508  53.8132543 124.9656035
 141.9899992  43.2789978 127.0170014 142.8019992  43.7829978 127.0630014
 141.7459992  43.1339978 127.9310014 142.0681467  43.3283749 127.1468575
 142.5259992  44.2649978 136.2020014 142.6449992  44.8389978 136.9590014
 143.1809992  43.5769978 136.3160014 142.6309146  44.2505574 136.3211314
 142.8739992  40.3599978 127.9550014 142.5269992  40.9769978 128.6000014
 143.5329992  40.8609978 127.4740014 142.9155949  40.5121099 127.9782271
 139.7969992  54.7249978 125.0270014 139.9579992  55.5249978 124.5260014
 139.5999992  55.0319978 125.9120014 139.7923919  54.8759129 125.0781006
 138.5319992  41.4229978 124.6420014 138.4479992  42.3109978 124.9890014
 139.4219992  41.1579978 124.8740014 138.6408163  41.5087179 124.7208596
 136.7899992  51.8499978 123.7030014 137.3819992  52.5499978 123.9790014
 137.2489992  51.4169978 122.9830014 136.9330791  51.8872908 123.6434607
 135.1059992  44.5149978 122.8190014 135.0609992  45.4539978 122.9970014
 134.2179992  44.2789978 122.5490014 134.9798555  44.6116874 122.8068939
 135.9139992  39.2959978 131.4920014 135.6849992  39.3549978 130.5640014
 135.4719992  38.5049978 131.7980014 135.8228801  39.1970540 131.4064729
 134.8449992  53.2369978 127.6520014 134.0119992  53.7089978 127.6800014
 135.3899992  53.7469978 127.0540014 134.8047590  53.3705897 127.5749194
 134.1329992  55.8489978 138.9820014 134.6729992  55.6329978 139.7420014
 133.6519992  55.0439978 138.7930014 134.1418613  55.7105400 139.0604782
 138.7299992  54.7689978 140.6030014 139.4979992  54.3099978 140.9440014
 138.7089992  54.5429978 139.6730014 138.8322135  54.6756668 140.5239491
 142.8219992  54.2769978 121.9780014 142.1779992  53.6459978 122.2990014
 143.5839992  53.7459978 121.7460014 142.8368058  54.1187902 121.9906038
 145.3069992  53.1489978 139.3320014 144.9559992  52.2919978 139.5750014
 146.0329992  53.2909978 139.9390014 145.3571590  53.0510178 139.4472907
 134.0399992  49.6599978 139.9370014 134.1839992  48.7579978 139.6500014
 133.2679992  49.9459978 139.4490014 133.9553303  49.5753243 139.8317908
 138.3809992  50.0029978 122.0690014 138.4459992  49.2089978 122.6000014
 139.0339992  49.8849978 121.3790014 138.4781754  49.8783337 122.0484259
 140.6949992  49.6289978 139.3690014 140.3669992  49.8999978 138.5120014
 140.8469992  48.6879978 139.2820014 140.6706030  49.5388973 139.2397945
 143.7339992  51.0499978 121.8050014 143.4649992  51.2309978 122.7060014
 143.5269992  50.1249978 121.6740014 143.6692000  50.9496774 121.9105693
 134.8729992  46.8599978 139.3570014 135.2809992  46.0029978 139.2360014
 134.6119992  46.8739978 140.2780014 134.8936016  46.7445119 139.4649192
 139.5309992  47.9759978 124.3750014 139.0709992  47.4919978 125.0610014
 139.7859992  47.3069978 123.7390014 139.5025038  47.8193689 124.3829447
 138.8199992  45.8689978 136.7310014 138.2009992  46.5429978 137.0110014
 139.1639992  46.1899978 135.8980014 138.7817605  46.0047198 136.6566707
 140.6019992  46.2189978 122.6370014 140.4209992  46.0639978 121.7100014
 141.5519992  46.3269978 122.6820014 140.7056566  46.2123669 122.5160929
 143.8389992  48.3399978 140.0080014 144.7929992  48.4239978 139.9810014
 143.6789992  47.6279978 140.6280014 143.9477182  48.2552842 140.0880733
 139.1589992  43.2239978 137.8130014 139.3089992  42.4949978 137.2110014
 139.1609992  44.0009978 137.2540014 139.1797967  43.2292708 137.6550541
 139.5719992  41.5929978 135.3060014 140.1069992  42.0449978 134.6540014
 138.7189992  41.4849978 134.8830014 139.5300374  41.6402665 135.1596710
 141.1529992  47.0329978 135.5450014 141.9039992  46.8769978 134.9720014
 140.8139992  47.8849978 135.2700014 141.2099587  47.1268138 135.4294078
 145.5689992  44.8479978 140.5740014 145.7609992  43.9169978 140.4620014
 146.4269992  45.2729978 140.5640014 145.7112269  44.7779928 140.5573192
 137.6379992  44.4219978 139.7250014 136.8699992  43.8889978 139.5150014
 138.3159992  44.1119978 139.1250014 137.6246973  44.3072375 139.6151796
 140.3769992  39.0499978 135.7370014 140.2789992  39.9959978 135.6320014
 139.6349992  38.6769978 135.2620014 140.2631913  39.1291813 135.6583539
 141.6409992  43.3709978 139.3010014 141.4059992  43.1519978 140.2030014
 140.8579992  43.1639978 138.7910014 141.5029219  43.3130066 139.3555852
 144.3569992  42.4989978 138.3770014 143.4089992  42.5309978 138.5090014
 144.6689992  41.8729978 139.0300014 144.2695190  42.4187262 138.4833564
 135.8179992  42.3419978 139.4290014 136.0299992  41.6359978 138.8190014
 135.7069992  41.9049978 140.2730014 135.8320269  42.1861921 139.4595873
 140.5989992  38.3439978 138.4090014 141.3109992  37.7039978 138.3950014
 140.4979992  38.6099978 137.4950014 140.6827261  38.2924190 138.2835537
 140.9529992  40.0259978 140.4620014 140.8209992  39.5509978 139.6420014
 140.3529992  40.7709978 140.4070014 140.8539070  40.0615789 140.3423251
 140.4989992  56.9089978 123.6390014 141.4319992  57.0669978 123.7820014
 140.2349992  57.5849978 123.0140014 140.5909308  57.0219104 123.5741396
 134.0669992  51.5459978 123.1210014 134.9809992  51.6249978 123.3950014
 134.0749992  50.8589978 122.4550014 134.1931143  51.4639085 123.0684274
 132.7159992  56.9389978 128.1990014 132.0689992  56.4769978 127.6660014
 133.0709992  56.2669978 128.7810014 132.6754506  56.7849503 128.2047341
 133.5859992  55.0189978 130.0030014 133.2519992  54.1389978 130.1750014
 133.8089992  55.3649978 130.8680014 133.5703721  54.9451938 130.1434168
 133.6659992  48.0949978 132.4550014 133.8509992  48.0129978 131.5190014
 134.5159992  47.9709978 132.8790014 133.8060916  48.0670393 132.3842896
 133.2639992  43.3649978 138.5960014 134.1829992  43.2429978 138.8320014
 132.8139992  42.6149978 138.9850014 133.3291148  43.2468751 138.6809408
 134.4849992  41.6779978 131.4870014 134.9299992  40.8859978 131.7890014
 134.9509992  42.3939978 131.9180014 134.6089059  41.6664474 131.5866079
 132.7889992  44.6769978 132.5560014 133.2809992  44.4559978 131.7650014
 133.1509992  45.5169978 132.8370014 132.9052923  44.7603468 132.4857407
 133.1029992  40.9349978 126.6100014 132.1779992  41.1429978 126.4810014
 133.5569992  41.4189978 125.9210014 133.0376374  41.0289949 126.4990957
 133.0659992  39.6729978 134.9550014 132.4009992  39.4269978 135.5980014
 132.6229992  40.2949978 134.3770014 132.9150937  39.7233614 134.9649379
 135.2579992  52.8479978 139.0990014 134.4369992  53.0229978 138.6390014
 135.0059992  52.7749978 140.0200014 135.1116173  52.8620794 139.1604972
 138.2119992  53.8219978 135.3580014 137.7879992  54.6319978 135.0750014
 139.1169992  53.9079978 135.0560014 138.2762433  53.9443331 135.2785377
 142.5239992  55.2209978 138.3170014 142.7079992  54.8879978 139.1950014
 143.3699992  55.5309978 137.9950014 142.6636484  55.2172979 138.3937617
 144.8689992  56.5069978 137.5610014 145.5459992  55.8739978 137.3210014
 145.1899992  56.9079978 138.3680014 145.0051323  56.4745691 137.6373158
 135.6139992  57.0789978 135.4050014 134.8939992  57.5189978 134.9540014
 135.2489992  56.8279978 136.2540014 135.4659796  57.1053824 135.4579329
 138.0809992  56.6789978 134.4350014 137.2169992  56.7509978 134.8390014
 138.0259992  57.2259978 133.6510014 137.9551942  56.7627849 134.3844000
 142.7919992  56.5669978 133.6100014 142.3349992  57.0959978 132.9560014
 142.9549992  57.1699978 134.3360014 142.7514476  56.7209140 133.6185499
 145.1199992  55.4449978 134.5550014 144.2149992  55.6099978 134.2900014
 145.5479992  56.2979978 134.4900014 145.0540700  55.5829529 134.5099520
 135.0289992  55.7019978 132.3150014 135.0109992  55.2759978 133.1730014
 135.8339992  55.3829978 131.9070014 135.1353221  55.6007233 132.3770225
 137.1699992  54.4119978 130.9700014 136.9509992  53.4949978 131.1400014
 137.9939992  54.5519978 131.4360014 137.2514702  54.3055511 131.0562527
 139.7069992  54.8819978 131.8190014 139.9199992  53.9939978 131.5320014
 139.7719992  54.8469978 132.7740014 139.7449075  54.7558307 131.9087373
 143.2159992  40.5459978 130.9630014 142.5419992  39.9159978 131.2190014
 143.7799992  40.0619978 130.3600014 143.2000384  40.3943708 130.9165020
 135.5429992  39.1799978 128.7850014 134.7659992  38.9449978 128.2780014
 136.0729992  38.3829978 128.7940014 135.5083451  39.0401268 128.7168627
 134.3789992  38.9779978 124.5890014 134.8179992  39.5889978 123.9970014
 133.7449992  39.5159978 125.0630014 134.3533859  39.1344064 124.5720305
 140.1219992  39.1059978 128.5990014 140.9959992  39.4949978 128.5690014
 139.9859992  38.8909978 129.5210014 140.2233207  39.1301923 128.7196509
 134.2799992  54.9259978 125.4870014 133.5949992  54.8879978 124.8190014
 134.2839992  55.8389978 125.7750014 134.1868174  55.0441998 125.4345310
 136.2399992  40.8939978 123.0310014 136.7309992  40.2639978 122.5040014
 136.8629992  41.1899978 123.6950014 136.3915062  40.8476770 123.0485438
 141.2659992  41.1869978 125.4890014 141.4439992  40.5399978 126.1710014
 141.2119992  42.0209978 125.9560014 141.2831025  41.2110504 125.6456433
 143.1439992  56.1349978 123.8840014 144.0099992  56.5019978 123.7060014
 142.8979992  55.6959978 123.0700014 143.2292097  56.1258525 123.7496019
 135.4999992  39.6939978 138.3030014 135.1339992  38.9279978 138.7460014
 136.4129992  39.7229978 138.5900014 135.5733225  39.5931906 138.4023459
 137.4729992  39.0439978 139.8390014 138.3719992  38.7699978 139.6540014
 137.0869992  38.3019978 140.3030014 137.5437237  38.9061508 139.8764710
 136.0979992  55.8459978 122.5120014 135.8299992  56.1319978 123.3850014
 136.8689992  55.2999978 122.6640014 136.1655600  55.8113330 122.6521499
  12.6289992  67.1919978 128.7440014  12.7179992  68.1359978 128.6120014
  11.9909992  66.9169978 128.0860014  12.5549062  67.2839812 128.6369641
  11.5619992  66.4469978 132.1630014  11.5239992  65.8009978 132.8680014
  11.2399992  65.9799978 131.3920014  11.5132679  66.2954276 132.1552921
   3.9299992  66.0609978 133.7560014   3.9719992  65.4359978 134.4790014
   4.6329992  66.6849978 133.9380014   4.0307345  66.0597873 133.8795274
  15.2679992  69.3859978 130.4650014  14.8269992  68.6659978 130.9150014
  15.2549992  70.1069978 131.0940014  15.2057960  69.3848329 130.6117567
   4.8539992  70.5109978 132.2910014   4.4839992  69.7089978 131.9210014
   5.7949992  70.3429978 132.3370014   4.9305984  70.3784638 132.2465603
   1.4639992  64.1709978 127.6840014   1.0159992  65.0169978 127.6650014
   0.9029992  63.5919978 127.1680014   1.3269603  64.2083674 127.6116720
   2.1739992  66.3329978 129.8100014   2.3879992  65.5629978 130.3370014
   2.9119992  66.4229978 129.2060014   2.3029652  66.2398012 129.8005212
  12.3799992  74.4899978 130.6770014  12.9989992  73.8139978 130.4030014
  12.1709992  74.2719978 131.5850014  12.4366232  74.3677938 130.7622517
   9.9509992  68.8789978 132.5690014  10.2549992  68.1929978 131.9750014
  10.6729992  68.9979978 133.1870014  10.0901152  68.8012189 132.5712123
  18.6139992  60.4809978 133.4300014  18.6639992  61.0909978 134.1660014
  19.0399992  60.9419978 132.7070014  18.6784108  60.6267709 133.4330112
  13.0919992  63.2729978 132.8970014  13.2349992  62.3269978 132.9170014
  12.9859992  63.4799978 131.9680014  13.0972509  63.1714813 132.7742231
   6.2469992  61.3749978 130.1690014   6.2899992  62.2349978 129.7510014
   5.7889992  60.8229978 129.5350014   6.1909815  61.4180621 130.0261197
  13.9689992  61.5059978 128.5700014  14.6159992  61.1769978 129.1950014
  14.4789992  62.0229978 127.9470014  14.1264317  61.5309227 128.5712167
   2.8669992  63.7719978 130.9310014   3.5209992  63.2219978 131.3630014
   2.8909992  63.4979978 130.0140014   2.9597199  63.6597167 130.8661668
   8.0239992  65.3219978 130.1460014   8.6399992  64.7949978 130.6560014
   7.4369992  64.6819978 129.7430014   8.0289239  65.1634117 130.1612952
  19.0059992  61.9589978 135.6660014  18.3169992  62.6169978 135.5700014
  19.0209992  61.7609978 136.6020014  18.9136740  62.0223242 135.7794630
   5.0569992  60.2929978 134.2430014   4.8379992  60.8229978 133.4770014
   4.3889992  60.5189978 134.8900014   4.9367001  60.3961154 134.2256064
  12.4259992  69.7929978 127.7870014  12.1309992  69.4699978 126.9360014
  12.1019992  70.6929978 127.8280014  12.3417983  69.8704026 127.6759771
   7.6259992  67.9679978 134.5310014   6.8859992  68.5669978 134.6340014
   8.3399992  68.5219978 134.2150014   7.6213288  68.1247356 134.5023805
  15.7329992  60.7969978 130.5500014  15.5179992  60.0309978 131.0830014
  16.3889992  61.2689978 131.0630014  15.7922673  60.7560728 130.6921990
   4.6509992  62.1849978 132.1950014   5.2649992  62.8179978 132.5690014
   5.1629992  61.7129978 131.5390014   4.8042277  62.2077352 132.1574279
   6.0339992  69.9329978 135.3180014   6.0279992  70.8119978 134.9400014
   5.1799992  69.8489978 135.7430014   5.9177925  70.0419535 135.3236887
   2.1549992  69.6039978 126.1000014   1.8829992  69.8329978 125.2110014
   2.1999992  70.4409978 126.5600014   2.1238709  69.7486058 126.0406107
  15.7799992  71.2249978 132.8120014  14.8379992  71.2839978 132.9740014
  16.0559992  72.1309978 132.6750014  15.6885865  71.3555288 132.8156192
  16.0799992  59.5119978 134.2300014  15.3439992  60.1219978 134.1920014
  16.7639992  59.9269978 133.7030014  16.0715506  59.6516400 134.1536051
   9.0839992  57.5979978 131.6960014   8.9659992  56.6499978 131.6410014
   8.2289992  57.9309978 131.9690014   8.9522679  57.5131926 131.7253720
  14.0319992  73.0059978 129.4380014  14.4569992  72.2989978 128.9530014
  14.3489992  73.8079978 129.0210014  14.1330266  73.0175190 129.3152479
  15.1919992  70.9069978 127.9460014  14.9339992  70.2169978 127.3350014
  15.2629992  70.4639978 128.7920014  15.1662837  70.7527106 127.9766912
  16.8779992  69.4739978 136.4240014  17.0169992  68.8819978 135.6840014
  17.0449992  70.3469978 136.0670014  16.9195562  69.5109896 136.2746283
  11.3499992  66.4359978 126.1960014  10.6389992  66.9709978 125.8440014
  12.0409992  66.4909978 125.5360014  11.3460751  66.5166777 126.0585858
  11.4039992  64.8929978 123.2350014  12.1049992  64.9159978 123.8860014
  11.7059992  64.2649978 122.5790014  11.5408282  64.8112339 123.2354496
  18.7189992  65.8139978 134.4900014  18.0669992  66.5079978 134.5790014
  19.1849992  66.0239978 133.6800014  18.6925937  65.9375019 134.3927533
  14.7559992  66.6449978 127.1480014  14.0239992  66.8739978 127.7210014
  15.2029992  65.9319978 127.6030014  14.7162753  66.5798972 127.2879715
  14.6529992  64.8199978 136.2160014  14.7329992  65.5829978 136.7870014
  14.0519992  65.0989978 135.5250014  14.5827245  64.9622630 136.2008424
   6.4009992  67.2759978 129.0300014   6.0709992  66.9049978 128.2120014
   6.9899992  66.6049978 129.3770014   6.4353970  67.1346063 128.9649404
   7.7679992  70.7039978 131.7120014   7.6729992  70.1249978 130.9550014
   8.4969992  70.3329978 132.2080014   7.8536161  70.5745891 131.6755209
   6.7679992  66.0439978 132.6640014   7.3329992  66.1659978 131.9010014
   7.0869992  66.6819978 133.3030014   6.8883977  66.1468851 132.6459424
  13.0769992  71.5479978 133.3980014  12.8369992  72.2099978 134.0460014
  12.8789992  70.7129978 133.8230014  13.0173826  71.5258115 133.5441566
   7.6479992  70.4439978 137.3810014   7.3369992  71.2259978 137.8360014
   6.9979992  70.2909978 136.6950014   7.5175538  70.5304087 137.3505898
  13.6269992  65.8079978 124.8330014  14.2059992  65.9579978 125.5800014
  14.0409992  66.2779978 124.1100014  13.7623122  65.8921277 124.8375042
   4.5679992  66.6419978 136.6100014   4.6379992  67.2929978 137.3080014
   3.6769992  66.7449978 136.2750014   4.4571802  66.7449757 136.6602249
  11.3529992  72.5439978 128.2680014  11.8269992  72.8399978 129.0460014
  10.7899992  73.2829978 128.0350014  11.3417361  72.6842721 128.3428611
   5.8869992  72.5149978 138.1440014   5.8949992  72.3789978 137.1970014
   4.9709992  72.3979978 138.3960014   5.7642528  72.4805463 138.0483243
  17.3259992  57.5579978 124.6460014  16.4259992  57.6969978 124.9410014
  17.5779992  58.3889978 124.2440014  17.2368683  57.6894055 124.6320232
   5.3919992  66.3449978 126.6200014   5.0999992  67.1129978 126.1290014
   4.7169992  65.6859978 126.4570014   5.2608497  66.3609745 126.5308260
  18.5149992  71.9239978 123.0220014  18.5879992  72.8629978 123.1930014
  19.4199992  71.6189978 122.9660014  18.6474158  72.0113061 123.0378392
   1.4849992  68.7079978 135.4350014   0.9829992  68.6799978 134.6200014
   1.4899992  67.8029978 135.7440014   1.4170416  68.5817368 135.3653766
   1.2349992  71.4889978 132.3190014   2.1809992  71.3439978 132.3000014
   1.1219992  72.2729978 132.8560014   1.3493578  71.5751697 132.3890317
  19.4329992  72.1549978 138.0010014  19.3829992  71.1989978 137.9640014
  18.6059992  72.4219978 138.4020014  19.3143987  72.0605174 138.0501446
  10.4109992  71.7289978 136.8770014  10.4989992  72.5549978 137.3520014
   9.5479992  71.3989978 137.1260014  10.3063357  71.7975468 136.9757653
  10.8259992  75.5009978 126.6830014  10.7499992  75.3799978 125.7370014
  10.8579992  76.4499978 126.8020014  10.8199156  75.6127530 126.5695048
   4.4789992  74.2899978 128.4640014   4.6309992  73.9419978 129.3430014
   3.6279992  73.9329978 128.2090014   4.3847899  74.1941738 128.5497340
  13.9269992  74.6549978 123.6850014  14.3019992  73.9109978 123.2150014
  13.9319992  74.3849978 124.6040014  13.9790024  74.5166950 123.7447987
  13.5959992  74.5809978 126.4350014  12.6609992  74.6809978 126.6130014
  13.8759992  73.8709978 127.0130014  13.5058173  74.4987239 126.5374998
  16.5849992  63.6479978 138.4810014  16.1769992  64.1279978 137.7610014
  16.6249992  62.7419978 138.1730014  16.5345476  63.5913160 138.3408247
   3.7339992  70.0319978 136.4780014   3.9499992  69.6699978 137.3370014
   2.8779992  69.6569978 136.2680014   3.6479354  69.9317906 136.5672160
   6.3519992  58.5019978 132.4730014   5.4909992  58.4149978 132.0660014
   6.3299992  59.3579978 132.9010014   6.2310411  58.6057884 132.4750857
  11.0149992  58.2239978 135.8480014  11.4349992  57.8089978 136.6010014
  10.0819992  58.0449978 135.9650014  10.9463736  58.1429910 135.9668968
  14.3419992  61.9789978 136.7010014  13.8279992  61.8539978 137.4990014
  14.1859992  62.8919978 136.4570014  14.2506967  62.0852123 136.7770937
  15.1039992  66.8399978 122.4630014  15.1459992  66.6179978 121.5330014
  15.9529992  67.2389978 122.6530014  15.2245253  66.8635498 122.3613822
  10.6769992  60.7159978 123.1330014  10.4229992  60.7349978 124.0560014
  10.4199992  59.8449978 122.8320014  10.6075133  60.6008110 123.2185082
   6.4429992  63.4669978 133.5680014   5.8019992  63.4269978 134.2770014
   6.4809992  64.3939978 133.3310014   6.3603670  63.5867795 133.6330550
   6.4399992  63.6879978 128.4800014   5.5479992  63.3479978 128.4220014
   6.8909992  63.3109978 127.7250014   6.3786815  63.5903762 128.3699203
  11.9759992  64.1039978 127.2970014  11.5669992  64.9189978 127.0060014
  12.6959992  63.9639978 126.6830014  12.0174013  64.1966571 127.1740875
  11.0779992  64.2799978 138.7850014  10.5149992  63.5749978 139.1060014
  11.9039992  64.1589978 139.2530014  11.1126674  64.1672165 138.8921751
  12.9809992  63.5499978 130.1110014  12.7849992  64.1559978 129.3960014
  13.1619992  62.7169978 129.6770014  12.9786584  63.5202513 129.9544212
   4.1929992  63.7879978 135.4350014   4.1549992  64.1879978 136.3040014
   3.7029992  62.9709978 135.5260014   4.1215621  63.7322510 135.5661377
   7.5589992  61.1619978 122.2340014   7.1279992  60.7169978 122.9640014
   6.8409992  61.5329978 121.7220014   7.4029363  61.1512968 122.2646211
   0.8019992  60.9039978 129.2860014   1.4319992  60.8749978 130.0050014
   1.2509992  60.4789978 128.5560014   0.9490692  60.8425316 129.2857771
   2.0759992  61.6499978 124.7100014   2.5499992  62.2409978 124.1250014
   1.3579992  62.1799978 125.0570014   2.0438640  61.8025511 124.6767969
  12.2449992  65.1879978 134.7830014  12.5679992  64.5569978 134.1400014
  11.8039992  64.6539978 135.4430014  12.2295789  65.0293522 134.7842232
   9.0219992  61.1159978 129.5670014   8.1109992  61.1729978 129.8550014
   9.5269992  61.0559978 130.3770014   8.9655387  61.1156870 129.7160646
   3.8499992  62.7449978 128.3930014   2.9609992  62.8439978 128.0530014
   4.1469992  61.9029978 128.0470014   3.7684177  62.6447687 128.2996940
   7.5029992  62.7449978 126.0500014   8.4349992  62.8739978 126.2280014
   7.2879992  63.4139978 125.4000014   7.6014472  62.8530806 125.9864891
  13.4269992  60.3509978 132.8310014  12.7499992  60.4819978 133.4950014
  12.9419992  60.1959978 132.0210014  13.2687265  60.3479659 132.8123397
   6.1769992  63.9389978 123.6170014   5.6349992  63.5599978 122.9250014
   7.0109992  64.1339978 123.1880014   6.2155159  63.9135076 123.4644419
  16.7149992  76.0219978 139.1080014  16.9139992  76.4459978 138.2730014
  17.3699992  76.3659978 139.7150014  16.8308501  76.1266091 139.0757097
   4.3129992  68.4959978 138.7160014   5.0449992  68.7509978 139.2770014
   3.5319992  68.7009978 139.2310014   4.3077684  68.5586468 138.8624782
  10.3419992  63.9029978 131.4540014  10.9059992  63.3569978 130.9070014
  10.1939992  63.3819978 132.2420014  10.3992575  63.7576552 131.4856987
   5.3439992  60.0399978 127.8720014   5.0269992  59.1369978 127.8370014
   6.1249992  60.0419978 127.3190014   5.4062307  59.9166951 127.7924314
   8.9679992  62.2919978 133.8680014   8.1329992  62.7459978 133.9780014
   9.4919992  62.5679978 134.6200014   8.9245070  62.3914666 133.9847152
   9.5129992  68.5049978 125.5520014   8.7679992  67.9969978 125.2300014
   9.3779992  68.5539978 126.4990014   9.3929047  68.4421596 125.6358845
  16.6629992  67.6379978 134.3390014  17.3039992  68.0939978 133.7950014
  15.8319992  67.7509978 133.8770014  16.6385171  67.7157502 134.2020237
  13.4099992  61.3189978 123.7520014  12.4719992  61.4299978 123.6000014
  13.7079992  62.1749978 124.0580014  13.3216402  61.4500621 123.7725571
  11.0319992  68.6889978 136.7890014  10.6859992  68.3069978 137.5960014
  10.8319992  69.6219978 136.8610014  10.9576523  68.7629095 136.9090735
  14.1289992  63.1859978 125.4120014  15.0209992  63.0479978 125.7310014
  14.1849992  63.9769978 124.8760014  14.2587107  63.2740526 125.3832091
   4.6369992  67.7999978 131.3220014   5.3819992  67.7969978 130.7210014
   4.7149992  66.9759978 131.8040014   4.7494158  67.6882916 131.3049153
  11.6379992  69.9629978 124.5780014  11.3429992  70.7899978 124.9590014
  10.9349992  69.3439978 124.7740014  11.5025471  69.9925227 124.6566698
   1.6449992  66.2599978 136.6370014   1.8679992  65.8419978 137.4690014
   1.0429992  65.6479978 136.2140014   1.5941260  66.1199933 136.6937320
   8.6619992  65.7769978 138.8500014   8.3659992  65.6119978 137.9550014
   9.5929992  65.5569978 138.8390014   8.7473982  65.7246578 138.7260045
  13.2819992  71.1509978 136.7400014  12.3819992  71.3339978 136.4720014
  13.3159992  71.4099978 137.6610014  13.1632909  71.2110815 136.8277852
  19.0139992  63.3949978 125.1070014  18.4589992  62.9989978 124.4350014
  19.1139992  64.3059978 124.8290014  18.9515888  63.4638990 124.9775206
  18.9769992  69.1959978 137.9440014  18.1259992  69.4339978 137.5770014
  19.5669992  69.1789978 137.1910014  18.9402408  69.2262966 137.7918879
  17.3089992  72.1809978 125.5720014  16.9359992  71.3559978 125.8810014
  17.5859992  71.9979978 124.6750014  17.2953871  72.0432441 125.4929677
  14.4689992  66.9889978 132.5930014  13.5409992  66.7579978 132.5660014
  14.9199992  66.2119978 132.2630014  14.4028165  66.8522774 132.5446790
   7.0119992  71.3179978 128.7260014   7.5399992  72.0909978 128.5260014
   6.1319992  71.5419978 128.4250014   6.9653176  71.4543161 128.6578409
   2.7669992  66.1799978 123.3140014   3.3829992  66.8069978 123.6930014
   1.9049992  66.4959978 123.5850014   2.7348195  66.3085798 123.4025386
   8.4399992  68.9809978 128.3030014   8.1989992  69.9059978 128.3440014
   7.6989992  68.5219978 128.6990014   8.3068390  69.0456403 128.3621404
   8.9539992  73.1299978 134.6180014   9.3169992  73.9839978 134.3840014
   9.4859992  72.8379978 135.3580014   9.0756090  73.2074058 134.6860219
   7.1229992  74.0019978 127.8480014   6.1729992  74.1079978 127.8990014
   7.4749992  74.8229978 128.1930014   7.0405480  74.1274438 127.9015999
  12.4979992  69.2289978 134.3180014  12.0729992  69.0009978 135.1450014
  13.0789992  68.4899978 134.1360014  12.5183930  69.0979843 134.4064732
  14.7009992  70.1579978 123.3920014  15.0549992  69.7779978 124.1970014
  13.7529992  70.0639978 123.4790014  14.6211820  70.0933092 123.5138714
  15.1569992  73.7809978 136.7880014  14.5549992  73.2249978 136.2920014
  15.4379992  74.4479978 136.1620014  15.1126829  73.7951613 136.6355443
  19.2049992  74.6369978 123.5930014  19.9489992  75.2229978 123.4530014
  18.5109992  75.2059978 123.9270014  19.2130201  74.7940603 123.6189772
   3.2789992  61.0139978 136.1950014   2.3869992  61.3519978 136.1280014
   3.1809992  60.1579978 136.6130014   3.1434965  60.9446499 136.2423044
  15.5669992  68.8299978 125.6190014  15.2899992  68.1019978 126.1750014
  16.4949992  68.9489978 125.8240014  15.6544499  68.7464213 125.7228044
   2.9309992  72.8179978 134.6300014   3.1479992  71.8859978 134.5990014
   3.1769992  73.0929978 135.5130014   2.9939809  72.7275686 134.7451691
   8.7919992  71.2699978 121.8390014   9.0309992  70.5209978 121.2920014
   8.5229992  70.8819978 122.6720014   8.7883233  71.1151853 121.8767809
   7.7289992  70.8399978 124.2960014   7.8759992  70.3199978 125.0860014
   7.7259992  71.7469978 124.6020014   7.7487300  70.8913964 124.4455895
   4.1819992  68.0919978 124.8060014   3.4959992  68.4449978 125.3730014
   4.7049992  68.8549978 124.5600014   4.1589033  68.2433746 124.8502661
  12.0139992  60.7549978 135.0850014  12.7129992  60.8289978 135.7350014
  11.6329992  59.8899978 135.2390014  12.0582097  60.6482389 135.1947997
  12.7979992  60.4069978 126.1820014  13.0179992  60.8779978 125.3790014
  13.3569992  60.8009978 126.8520014  12.9036730  60.5247432 126.1625906
  10.4669992  72.5369978 125.0450014   9.6499992  73.0339978 125.0970014
  10.9959992  73.0129978 124.4050014  10.4268508  72.6692543 124.9656035
   9.9979992  62.1349978 127.0170014  10.8099992  62.6389978 127.0630014
   9.7539992  61.9899978 127.9310014  10.0761467  62.1843749 127.1468575
  10.5339992  63.1209978 136.2020014  10.6529992  63.6949978 136.9590014
  11.1889992  62.4329978 136.3160014  10.6389146  63.1065574 136.3211313
  10.8819992  59.2159978 127.9550014  10.5349992  59.8329978 128.6000014
  11.5409992  59.7169978 127.4740014  10.9235949  59.3681099 127.9782271
   7.8049992  73.5809978 125.0270014   7.9659992  74.3809978 124.5260014
   7.6079992  73.8879978 125.9120014   7.8003919  73.7319129 125.0781006
   6.5399992  60.2789978 124.6420014   6.4559992  61.1669978 124.9890014
   7.4299992  60.0139978 124.8740014   6.6488163  60.3647179 124.7208596
  16.7379992  61.0279978 137.0370014  15.8219992  61.2899978 136.9490014
  17.0739992  61.0249978 136.1400014  16.6579789  61.0634626 136.9037847
  15.3409992  64.7779978 131.1320014  14.5429992  64.3629978 130.8040014
  15.7859992  64.0879978 131.6230014  15.2919684  64.6278628 131.1535227
   4.7979992  70.7059978 123.7030014   5.3899992  71.4059978 123.9790014
   5.2569992  70.2729978 122.9830014   4.9410791  70.7432908 123.6434607
   3.1139992  63.3709978 122.8190014   3.0689992  64.3099978 122.9970014
   2.2259992  63.1349978 122.5490014   2.9878555  63.4676874 122.8068939
  16.4269992  74.0339978 132.7550014  16.2709992  74.7129978 132.0980014
  17.3599992  74.1059978 132.9580014  16.5317387  74.1366390 132.6925342
   3.9219992  58.1519978 131.4920014   3.6929992  58.2109978 130.5640014
   3.4799992  57.3609978 131.7980014   3.8308801  58.0530540 131.4064729
   2.8529992  72.0929978 127.6520014   2.0199992  72.5649978 127.6800014
   3.3979992  72.6029978 127.0540014   2.8127590  72.2265897 127.5749194
   2.1409992  74.7049978 138.9820014   2.6809992  74.4889978 139.7420014
   1.6599992  73.8999978 138.7930014   2.1498613  74.5665400 139.0604782
   6.7379992  73.6249978 140.6030014   7.5059992  73.1659978 140.9440014
   6.7169992  73.3989978 139.6730014   6.8402135  73.5316668 140.5239491
  10.8299992  73.1329978 121.9780014  10.1859992  72.5019978 122.2990014
  11.5919992  72.6019978 121.7460014  10.8448058  72.9747902 121.9906038
  13.3149992  72.0049978 139.3320014  12.9639992  71.1479978 139.5750014
  14.0409992  72.1469978 139.9390014  13.3651590  71.9070178 139.4472907
  15.4349992  72.9499978 122.2120014  15.7179992  72.1549978 122.6640014
  16.1739992  73.1829978 121.6510014  15.5736956  72.8727031 122.1979822
   2.0479992  68.5159978 139.9370014   2.1919992  67.6139978 139.6500014
   1.2759992  68.8019978 139.4490014   1.9633303  68.4313243 139.8317908
   6.3889992  68.8589978 122.0690014   6.4539992  68.0649978 122.6000014
   7.0419992  68.7409978 121.3790014   6.4861754  68.7343337 122.0484259
   8.7029992  68.4849978 139.3690014   8.3749992  68.7559978 138.5120014
   8.8549992  67.5439978 139.2820014   8.6786030  68.3948973 139.2397945
  11.7419992  69.9059978 121.8050014  11.4729992  70.0869978 122.7060014
  11.5349992  68.9809978 121.6740014  11.6772000  69.8056774 121.9105693
  14.4379992  68.4009978 136.7530014  15.1829992  68.9899978 136.6330014
  13.6809992  68.9829978 136.8160014  14.4375205  68.5601997 136.7451119
   2.8809992  65.7159978 139.3570014   3.2889992  64.8589978 139.2360014
   2.6199992  65.7299978 140.2780014   2.9016016  65.6005119 139.4649192
   7.5389992  66.8319978 124.3750014   7.0789992  66.3479978 125.0610014
   7.7939992  66.1629978 123.7390014   7.5105038  66.6753689 124.3829447
   6.8279992  64.7249978 136.7310014   6.2089992  65.3989978 137.0110014
   7.1719992  65.0459978 135.8980014   6.7897605  64.8607198 136.6566707
   8.6099992  65.0749978 122.6370014   8.4289992  64.9199978 121.7100014
   9.5599992  65.1829978 122.6820014   8.7136566  65.0683669 122.5160929
  11.8469992  67.1959978 140.0080014  12.8009992  67.2799978 139.9810014
  11.6869992  66.4839978 140.6280014  11.9557182  67.1112842 140.0880733
  17.9999992  67.4289978 122.0830014  17.7259992  67.0049978 121.2700014
  18.0389992  68.3609978 121.8660014  17.9677716  67.4968827 121.9424286
   7.1669992  62.0799978 137.8130014   7.3169992  61.3509978 137.2110014
   7.1689992  62.8569978 137.2540014   7.1877967  62.0852708 137.6550541
   7.5799992  60.4489978 135.3060014   8.1149992  60.9009978 134.6540014
   6.7269992  60.3409978 134.8830014   7.5380374  60.4962665 135.1596710
   9.1609992  65.8889978 135.5450014   9.9119992  65.7329978 134.9720014
   8.8219992  66.7409978 135.2700014   9.2179587  65.9828138 135.4294078
  13.5769992  63.7039978 140.5740014  13.7689992  62.7729978 140.4620014
  14.4349992  64.1289978 140.5640014  13.7192269  63.6339928 140.5573192
  14.8939992  66.4929978 138.6510014  14.6119992  67.2019978 138.0740014
  15.8359992  66.4199978 138.5000014  14.9827656  66.5803128 138.5514809
   5.6459992  63.2779978 139.7250014   4.8779992  62.7449978 139.5150014
   6.3239992  62.9679978 139.1250014   5.6326973  63.1632375 139.6151796
   8.3849992  57.9059978 135.7370014   8.2869992  58.8519978 135.6320014
   7.6429992  57.5329978 135.2620014   8.2711913  57.9851813 135.6583539
   9.6489992  62.2269978 139.3010014   9.4139992  62.0079978 140.2030014
   8.8659992  62.0199978 138.7910014   9.5109219  62.1690066 139.3555852
  12.3649992  61.3549978 138.3770014  11.4169992  61.3869978 138.5090014
  12.6769992  60.7289978 139.0300014  12.2775190  61.2747262 138.4833564
  13.9989992  59.9889978 140.3820014  13.9019992  59.0369978 140.3760014
  13.6769992  60.2569978 141.2420014  13.9421761  59.8949744 140.4974936
   3.8259992  61.1979978 139.4290014   4.0379992  60.4919978 138.8190014
   3.7149992  60.7609978 140.2730014   3.8400269  61.0421921 139.4595873
   8.6069992  57.1999978 138.4090014   9.3189992  56.5599978 138.3950014
   8.5059992  57.4659978 137.4950014   8.6907261  57.1484190 138.2835537
   8.9609992  58.8819978 140.4620014   8.8289992  58.4069978 139.6420014
   8.3609992  59.6269978 140.4070014   8.8619070  58.9175789 140.3423251
   8.5069992  75.7649978 123.6390014   9.4399992  75.9229978 123.7820014
   8.2429992  76.4409978 123.0140014   8.5989308  75.8779104 123.5741396
   2.0749992  70.4019978 123.1210014   2.9889992  70.4809978 123.3950014
   2.0829992  69.7149978 122.4550014   2.2011143  70.3199085 123.0684274
   0.7239992  75.7949978 128.1990014   0.0769992  75.3329978 127.6660014
   1.0789992  75.1229978 128.7810014   0.6834506  75.6409503 128.2047341
   1.5939992  73.8749978 130.0030014   1.2599992  72.9949978 130.1750014
   1.8169992  74.2209978 130.8680014   1.5783721  73.8011938 130.1434168
  19.1429992  74.6849978 132.9840014  19.1209992  74.8699978 133.9230014
  19.8329992  75.2529978 132.6430014  19.2333439  74.7871887 133.0664791
  18.7059992  74.2519978 135.9060014  18.2189992  73.5169978 135.5350014
  19.2549992  73.8579978 136.5840014  18.7135247  74.0981057 135.9468461
  17.1569992  70.0419978 140.5440014  16.2909992  69.9369978 140.9380014
  17.5329992  70.7999978 140.9900014  17.0893401  70.1301708 140.6582620
  18.4579992  68.2979978 126.0580014  19.3079992  68.7189978 126.1850014
  18.4629992  67.5579978 126.6650014  18.5751143  68.2556094 126.1574750
  18.8519992  66.3519978 127.8820014  18.1259992  65.8719978 128.2790014
  19.4339992  66.5569978 128.6140014  18.8311635  66.3139166 128.0353748
  18.6109992  69.1369978 132.8290014  19.4449992  68.7589978 132.5490014
  18.7229992  70.0799978 132.7100014  18.7402522  69.2127742 132.7746020
  17.0979992  72.0149978 135.1360014  16.4499992  72.3399978 135.7620014
  16.5799992  71.5739978 134.4620014  16.9394168  71.9998523 135.1305307
  19.1209992  66.2529978 124.2730014  18.5989992  66.6089978 123.5540014
  19.0879992  66.9279978 124.9510014  19.0450699  66.3929848 124.2662129
  17.4699992  63.4919978 122.8240014  17.5659992  64.1589978 122.1440014
  17.3299992  62.6769978 122.3420014  17.4642063  63.4730667 122.6658377
  16.6389992  64.8729978 128.4450014  16.4889992  63.9279978 128.4240014
  16.2849992  65.1539978 129.2880014  16.5705527  64.7815605 128.5561859
   1.6739992  66.9509978 132.4550014   1.8589992  66.8689978 131.5190014
   2.5239992  66.8269978 132.8790014   1.8140916  66.9230393 132.3842896
  17.4949992  66.8429978 138.0830014  18.0779992  66.1079978 138.2750014
  18.0589992  67.6149978 138.1300014  17.6509781  66.8468145 138.1156164
  18.9919992  64.7459978 138.7680014  18.1289992  64.3669978 138.6020014
  19.5959992  64.0069978 138.6940014  18.9555944  64.5942978 138.7352984
  16.7169992  60.8999978 121.9410014  17.3279992  60.5289978 122.5780014
  15.8799992  60.4789978 122.1370014  16.6874947  60.7922756 122.0547252
  16.3499992  62.4549978 126.9070014  16.6289992  61.5479978 127.0310014
  17.1089992  62.8889978 126.5180014  16.4908619  62.3894502 126.8713795
  16.9609992  63.0369978 132.3430014  17.8939992  63.2489978 132.3090014
  16.7259992  63.1379978 133.2650014  17.0568308  63.0796503 132.4630214
  16.9909992  63.7739978 135.1190014  16.1479992  64.0419978 135.4850014
  17.4329992  64.5959978 134.9080014  16.9354138  63.9218273 135.1405518
   1.2719992  62.2209978 138.5960014   2.1909992  62.0989978 138.8320014
   0.8219992  61.4709978 138.9850014   1.3371148  62.1028751 138.6809408
  19.2739992  57.7539978 140.4720014  19.6229992  57.0999978 139.8670014
  19.4209992  58.5909978 140.0330014  19.3417355  57.7776067 140.3296564
  16.9629992  59.7179978 126.9550014  17.1449992  59.2689978 127.7810014
  16.3629992  59.1339978 126.4920014  16.9067529  59.5776131 127.0053619
   2.4929992  60.5339978 131.4870014   2.9379992  59.7419978 131.7890014
   2.9589992  61.2499978 131.9180014   2.6169059  60.5224474 131.5866079
   0.7969992  63.5329978 132.5560014   1.2889992  63.3119978 131.7650014
   1.1589992  64.3729978 132.8370014   0.9132923  63.6163468 132.4857407
  18.7929992  59.8629978 138.8220014  17.8759992  60.1339978 138.7860014
  18.9159992  59.3279978 138.0380014  18.6840828  59.8277700 138.7110785
  18.8299992  59.7859978 123.4830014  19.2419992  59.0649978 123.0080014
  19.5109992  60.4549978 123.5420014  18.9785900  59.7777306 123.4259038
   1.1109992  59.7909978 126.6100014   0.1859992  59.9989978 126.4810014
   1.5649992  60.2749978 125.9210014   1.0456374  59.8849949 126.4990957
  15.8809992  74.7749978 128.5560014  16.5339992  74.4269978 127.9480014
  16.3919992  75.2629978 129.2020014  16.0392777  74.7933815 128.5602047
   1.0739992  58.5289978 134.9550014   0.4089992  58.2829978 135.5980014
   0.6309992  59.1509978 134.3770014   0.9230937  58.5793614 134.9649379
   3.2659992  71.7039978 139.0990014   2.4449992  71.8789978 138.6390014
   3.0139992  71.6309978 140.0200014   3.1196173  71.7180794 139.1604972
   6.2199992  72.6779978 135.3580014   5.7959992  73.4879978 135.0750014
   7.1249992  72.7639978 135.0560014   6.2842433  72.8003331 135.2785377
  10.5319992  74.0769978 138.3170014  10.7159992  73.7439978 139.1950014
  11.3779992  74.3869978 137.9950014  10.6716484  74.0732979 138.3937617
  12.8769992  75.3629978 137.5610014  13.5539992  74.7299978 137.3210014
  13.1979992  75.7639978 138.3680014  13.0131323  75.3305691 137.6373158
  17.7939992  57.9529978 136.6410014  16.9809992  58.2779978 136.2530014
  18.0269992  57.1919978 136.1080014  17.7142566  57.8946559 136.5159213
   3.6219992  75.9349978 135.4050014   2.9019992  76.3749978 134.9540014
   3.2569992  75.6839978 136.2540014   3.4739796  75.9613824 135.4579329
   6.0889992  75.5349978 134.4350014   5.2249992  75.6069978 134.8390014
   6.0339992  76.0819978 133.6510014   5.9631942  75.6187849 134.3844000
  10.7999992  75.4229978 133.6100014  10.3429992  75.9519978 132.9560014
  10.9629992  76.0259978 134.3360014  10.7594476  75.5769140 133.6185499
  13.1279992  74.3009978 134.5550014  12.2229992  74.4659978 134.2900014
  13.5559992  75.1539978 134.4900014  13.0620700  74.4389529 134.5099520
  15.7319992  75.8709978 134.8500014  15.5499992  76.7869978 134.6400014
  15.9089992  75.4599978 134.0040014  15.7309907  75.9409741 134.7067883
   3.0369992  74.5579978 132.3150014   3.0189992  74.1319978 133.1730014
   3.8419992  74.2389978 131.9070014   3.1433221  74.4567233 132.3770225
   5.1779992  73.2679978 130.9700014   4.9589992  72.3509978 131.1400014
   6.0019992  73.4079978 131.4360014   5.2594702  73.1615511 131.0562527
   7.7149992  73.7379978 131.8190014   7.9279992  72.8499978 131.5320014
   7.7799992  73.7029978 132.7740014   7.7529075  73.6118307 131.9087373
  11.2239992  59.4019978 130.9630014  10.5499992  58.7719978 131.2190014
  11.7879992  58.9179978 130.3600014  11.2080384  59.2503708 130.9165020
  16.3669992  57.5089978 131.0760014  16.9699992  58.0569978 130.5740014
  15.4969992  57.8279978 130.8360014  16.3319190  57.6271041 130.9748679
  18.0939992  58.6479978 129.4090014  18.7049992  58.1339978 128.8830014
  18.4759992  59.5249978 129.4330014  18.2294475  58.6961323 129.3401208
   3.5509992  58.0359978 128.7850014   2.7739992  57.8009978 128.2780014
   4.0809992  57.2389978 128.7940014   3.5163451  57.8961268 128.7168627
   2.3869992  57.8339978 124.5890014   2.8259992  58.4449978 123.9970014
   1.7529992  58.3719978 125.0630014   2.3613859  57.9904064 124.5720305
   8.1299992  57.9619978 128.5990014   9.0039992  58.3509978 128.5690014
   7.9939992  57.7469978 129.5210014   8.2313207  57.9861923 128.7196509
  13.6869992  57.9919978 130.2480014  13.7629992  58.0879978 129.2990014
  13.4119992  57.0849978 130.3770014  13.6602042  57.8824241 130.1353811
  15.0399992  58.0179978 125.9400014  14.3369992  58.6329978 125.7310014
  14.5949992  57.1809978 126.0720014  14.8836292  57.9890085 125.9292439
   2.2879992  73.7819978 125.4870014   1.6029992  73.7439978 124.8190014
   2.2919992  74.6949978 125.7750014   2.1948174  73.9001998 125.4345310
   4.2479992  59.7499978 123.0310014   4.7389992  59.1199978 122.5040014
   4.8709992  60.0459978 123.6950014   4.3995062  59.7036770 123.0485438
   9.2739992  60.0429978 125.4890014   9.4519992  59.3959978 126.1710014
   9.2199992  60.8769978 125.9560014   9.2911025  60.0670504 125.6456433
  11.1519992  74.9909978 123.8840014  12.0179992  75.3579978 123.7060014
  10.9059992  74.5519978 123.0700014  11.2372097  74.9818525 123.7496019
  17.8609992  74.5539978 126.5630014  17.6669992  73.8059978 125.9980014
  17.8219992  75.3119978 125.9800014  17.8291645  74.5540786 126.4068148
   3.5079992  58.5499978 138.3030014   3.1419992  57.7839978 138.7460014
   4.4209992  58.5789978 138.5900014   3.5813225  58.4491906 138.4023459
   5.4809992  57.8999978 139.8390014   6.3799992  57.6259978 139.6540014
   5.0949992  57.1579978 140.3030014   5.5517237  57.7621508 139.8764710
   4.1059992  74.7019978 122.5120014   3.8379992  74.9879978 123.3850014
   4.8769992  74.1559978 122.6640014   4.1735600  74.6673330 122.6521499
  13.9029992  57.2329978 140.0210014  13.9789992  56.8069978 140.8750014
  14.7959992  57.2459978 139.6780014  14.0342267  57.1763952 140.0915932
  17.0789992  73.3059978 138.7130014  16.2969992  73.1189978 138.1940014
  17.0069992  74.2349978 138.9310014  16.9620863  73.4060221 138.6713574
  31.4849992  67.1919978 128.7440014  31.5739992  68.1359978 128.6120014
  30.8469992  66.9169978 128.0860014  31.4109062  67.2839812 128.6369641
  30.4179992  66.4469978 132.1630014  30.3799992  65.8009978 132.8680014
  30.0959992  65.9799978 131.3920014  30.3692679  66.2954276 132.1552921
  22.7859992  66.0609978 133.7560014  22.8279992  65.4359978 134.4790014
  23.4889992  66.6849978 133.9380014  22.8867345  66.0597873 133.8795274
  34.1239992  69.3859978 130.4650014  33.6829992  68.6659978 130.9150014
  34.1109992  70.1069978 131.0940014  34.0617960  69.3848329 130.6117567
  23.7099992  70.5109978 132.2910014  23.3399992  69.7089978 131.9210014
  24.6509992  70.3429978 132.3370014  23.7865984  70.3784638 132.2465603
  20.3199992  64.1709978 127.6840014  19.8719992  65.0169978 127.6650014
  19.7589992  63.5919978 127.1680014  20.1829603  64.2083674 127.6116720
  21.0299992  66.3329978 129.8100014  21.2439992  65.5629978 130.3370014
  21.7679992  66.4229978 129.2060014  21.1589652  66.2398012 129.8005212
  31.2359992  74.4899978 130.6770014  31.8549992  73.8139978 130.4030014
  31.0269992  74.2719978 131.5850014  31.2926232  74.3677938 130.7622517
  28.8069992  68.8789978 132.5690014  29.1109992  68.1929978 131.9750014
  29.5289992  68.9979978 133.1870014  28.9461152  68.8012189 132.5712123
  37.4699992  60.4809978 133.4300014  37.5199992  61.0909978 134.1660014
  37.8959992  60.9419978 132.7070014  37.5344108  60.6267709 133.4330112
  31.9479992  63.2729978 132.8970014  32.0909992  62.3269978 132.9170014
  31.8419992  63.4799978 131.9680014  31.9532509  63.1714813 132.7742231
  25.1029992  61.3749978 130.1690014  25.1459992  62.2349978 129.7510014
  24.6449992  60.8229978 129.5350014  25.0469815  61.4180621 130.0261197
  32.8249992  61.5059978 128.5700014  33.4719992  61.1769978 129.1950014
  33.3349992  62.0229978 127.9470014  32.9824317  61.5309227 128.5712167
  21.7229992  63.7719978 130.9310014  22.3769992  63.2219978 131.3630014
  21.7469992  63.4979978 130.0140014  21.8157199  63.6597167 130.8661668
  26.8799992  65.3219978 130.1460014  27.4959992  64.7949978 130.6560014
  26.2929992  64.6819978 129.7430014  26.8849239  65.1634117 130.1612952
  37.8619992  61.9589978 135.6660014  37.1729992  62.6169978 135.5700014
  37.8769992  61.7609978 136.6020014  37.7696740  62.0223243 135.7794630
  23.9129992  60.2929978 134.2430014  23.6939992  60.8229978 133.4770014
  23.2449992  60.5189978 134.8900014  23.7927001  60.3961154 134.2256064
  31.2819992  69.7929978 127.7870014  30.9869992  69.4699978 126.9360014
  30.9579992  70.6929978 127.8280014  31.1977983  69.8704027 127.6759771
  26.4819992  67.9679978 134.5310014  25.7419992  68.5669978 134.6340014
  27.1959992  68.5219978 134.2150014  26.4773288  68.1247356 134.5023805
  34.5889992  60.7969978 130.5500014  34.3739992  60.0309978 131.0830014
  35.2449992  61.2689978 131.0630014  34.6482673  60.7560728 130.6921990
  23.5069992  62.1849978 132.1950014  24.1209992  62.8179978 132.5690014
  24.0189992  61.7129978 131.5390014  23.6602277  62.2077352 132.1574279
  24.8899992  69.9329978 135.3180014  24.8839992  70.8119978 134.9400014
  24.0359992  69.8489978 135.7430014  24.7737925  70.0419535 135.3236887
  21.0109992  69.6039978 126.1000014  20.7389992  69.8329978 125.2110014
  21.0559992  70.4409978 126.5600014  20.9798709  69.7486058 126.0406107
  34.6359992  71.2249978 132.8120014  33.6939992  71.2839978 132.9740014
  34.9119992  72.1309978 132.6750014  34.5445865  71.3555288 132.8156192
  34.9359992  59.5119978 134.2300014  34.1999992  60.1219978 134.1920014
  35.6199992  59.9269978 133.7030014  34.9275506  59.6516400 134.1536051
  27.9399992  57.5979978 131.6960014  27.8219992  56.6499978 131.6410014
  27.0849992  57.9309978 131.9690014  27.8082679  57.5131926 131.7253720
  32.8879992  73.0059978 129.4380014  33.3129992  72.2989978 128.9530014
  33.2049992  73.8079978 129.0210014  32.9890266  73.0175190 129.3152479
  34.0479992  70.9069978 127.9460014  33.7899992  70.2169978 127.3350014
  34.1189992  70.4639978 128.7920014  34.0222837  70.7527106 127.9766912
  35.7339992  69.4739978 136.4240014  35.8729992  68.8819978 135.6840014
  35.9009992  70.3469978 136.0670014  35.7755562  69.5109896 136.2746283
  30.2059992  66.4359978 126.1960014  29.4949992  66.9709978 125.8440014
  30.8969992  66.4909978 125.5360014  30.2020751  66.5166777 126.0585858
  30.2599992  64.8929978 123.2350014  30.9609992  64.9159978 123.8860014
  30.5619992  64.2649978 122.5790014  30.3968282  64.8112339 123.2354496
  37.5749992  65.8139978 134.4900014  36.9229992  66.5079978 134.5790014
  38.0409992  66.0239978 133.6800014  37.5485937  65.9375019 134.3927533
  33.6119992  66.6449978 127.1480014  32.8799992  66.8739978 127.7210014
  34.0589992  65.9319978 127.6030014  33.5722753  66.5798972 127.2879715
  33.5089992  64.8199978 136.2160014  33.5889992  65.5829978 136.7870014
  32.9079992  65.0989978 135.5250014  33.4387245  64.9622630 136.2008424
  25.2569992  67.2759978 129.0300014  24.9269992  66.9049978 128.2120014
  25.8459992  66.6049978 129.3770014  25.2913970  67.1346063 128.9649404
  26.6239992  70.7039978 131.7120014  26.5289992  70.1249978 130.9550014
  27.3529992  70.3329978 132.2080014  26.7096161  70.5745891 131.6755209
  25.6239992  66.0439978 132.6640014  26.1889992  66.1659978 131.9010014
  25.9429992  66.6819978 133.3030014  25.7443977  66.1468851 132.6459424
  31.9329992  71.5479978 133.3980014  31.6929992  72.2099978 134.0460014
  31.7349992  70.7129978 133.8230014  31.8733826  71.5258115 133.5441566
  26.5039992  70.4439978 137.3810014  26.1929992  71.2259978 137.8360014
  25.8539992  70.2909978 136.6950014  26.3735538  70.5304087 137.3505898
  32.4829992  65.8079978 124.8330014  33.0619992  65.9579978 125.5800014
  32.8969992  66.2779978 124.1100014  32.6183122  65.8921277 124.8375042
  23.4239992  66.6419978 136.6100014  23.4939992  67.2929978 137.3080014
  22.5329992  66.7449978 136.2750014  23.3131802  66.7449757 136.6602249
  30.2089992  72.5439978 128.2680014  30.6829992  72.8399978 129.0460014
  29.6459992  73.2829978 128.0350014  30.1977361  72.6842721 128.3428611
  24.7429992  72.5149978 138.1440014  24.7509992  72.3789978 137.1970014
  23.8269992  72.3979978 138.3960014  24.6202528  72.4805463 138.0483243
  36.1819992  57.5579978 124.6460014  35.2819992  57.6969978 124.9410014
  36.4339992  58.3889978 124.2440014  36.0928683  57.6894055 124.6320232
  24.2479992  66.3449978 126.6200014  23.9559992  67.1129978 126.1290014
  23.5729992  65.6859978 126.4570014  24.1168497  66.3609745 126.5308260
  37.3709992  71.9239978 123.0220014  37.4439992  72.8629978 123.1930014
  38.2759992  71.6189978 122.9660014  37.5034158  72.0113061 123.0378392
  20.3409992  68.7079978 135.4350014  19.8389992  68.6799978 134.6200014
  20.3459992  67.8029978 135.7440014  20.2730416  68.5817368 135.3653766
  20.0909992  71.4889978 132.3190014  21.0369992  71.3439978 132.3000014
  19.9779992  72.2729978 132.8560014  20.2053578  71.5751697 132.3890317
  38.2889992  72.1549978 138.0010014  38.2389992  71.1989978 137.9640014
  37.4619992  72.4219978 138.4020014  38.1703987  72.0605174 138.0501446
  29.2669992  71.7289978 136.8770014  29.3549992  72.5549978 137.3520014
  28.4039992  71.3989978 137.1260014  29.1623357  71.7975468 136.9757653
  29.6819992  75.5009978 126.6830014  29.6059992  75.3799978 125.7370014
  29.7139992  76.4499978 126.8020014  29.6759156  75.6127530 126.5695048
  23.3349992  74.2899978 128.4640014  23.4869992  73.9419978 129.3430014
  22.4839992  73.9329978 128.2090014  23.2407899  74.1941738 128.5497340
  32.7829992  74.6549978 123.6850014  33.1579992  73.9109978 123.2150014
  32.7879992  74.3849978 124.6040014  32.8350024  74.5166950 123.7447987
  32.4519992  74.5809978 126.4350014  31.5169992  74.6809978 126.6130014
  32.7319992  73.8709978 127.0130014  32.3618173  74.4987239 126.5374998
  35.4409992  63.6479978 138.4810014  35.0329992  64.1279978 137.7610014
  35.4809992  62.7419978 138.1730014  35.3905476  63.5913160 138.3408247
  22.5899992  70.0319978 136.4780014  22.8059992  69.6699978 137.3370014
  21.7339992  69.6569978 136.2680014  22.5039354  69.9317906 136.5672160
  25.2079992  58.5019978 132.4730014  24.3469992  58.4149978 132.0660014
  25.1859992  59.3579978 132.9010014  25.0870411  58.6057884 132.4750857
  29.8709992  58.2239978 135.8480014  30.2909992  57.8089978 136.6010014
  28.9379992  58.0449978 135.9650014  29.8023736  58.1429910 135.9668968
  33.1979992  61.9789978 136.7010014  32.6839992  61.8539978 137.4990014
  33.0419992  62.8919978 136.4570014  33.1066967  62.0852123 136.7770937
  33.9599992  66.8399978 122.4630014  34.0019992  66.6179978 121.5330014
  34.8089992  67.2389978 122.6530014  34.0805253  66.8635498 122.3613822
  29.5329992  60.7159978 123.1330014  29.2789992  60.7349978 124.0560014
  29.2759992  59.8449978 122.8320014  29.4635133  60.6008110 123.2185082
  25.2989992  63.4669978 133.5680014  24.6579992  63.4269978 134.2770014
  25.3369992  64.3939978 133.3310014  25.2163670  63.5867795 133.6330550
  25.2959992  63.6879978 128.4800014  24.4039992  63.3479978 128.4220014
  25.7469992  63.3109978 127.7250014  25.2346815  63.5903762 128.3699203
  30.8319992  64.1039978 127.2970014  30.4229992  64.9189978 127.0060014
  31.5519992  63.9639978 126.6830014  30.8734013  64.1966571 127.1740875
  29.9339992  64.2799978 138.7850014  29.3709992  63.5749978 139.1060014
  30.7599992  64.1589978 139.2530014  29.9686674  64.1672165 138.8921751
  31.8369992  63.5499978 130.1110014  31.6409992  64.1559978 129.3960014
  32.0179992  62.7169978 129.6770014  31.8346584  63.5202513 129.9544212
  23.0489992  63.7879978 135.4350014  23.0109992  64.1879978 136.3040014
  22.5589992  62.9709978 135.5260014  22.9775621  63.7322510 135.5661377
  26.4149992  61.1619978 122.2340014  25.9839992  60.7169978 122.9640014
  25.6969992  61.5329978 121.7220014  26.2589363  61.1512968 122.2646211
  19.6579992  60.9039978 129.2860014  20.2879992  60.8749978 130.0050014
  20.1069992  60.4789978 128.5560014  19.8050692  60.8425316 129.2857771
  20.9319992  61.6499978 124.7100014  21.4059992  62.2409978 124.1250014
  20.2139992  62.1799978 125.0570014  20.8998640  61.8025511 124.6767969
  31.1009992  65.1879978 134.7830014  31.4239992  64.5569978 134.1400014
  30.6599992  64.6539978 135.4430014  31.0855789  65.0293522 134.7842232
  27.8779992  61.1159978 129.5670014  26.9669992  61.1729978 129.8550014
  28.3829992  61.0559978 130.3770014  27.8215387  61.1156870 129.7160646
  22.7059992  62.7449978 128.3930014  21.8169992  62.8439978 128.0530014
  23.0029992  61.9029978 128.0470014  22.6244177  62.6447687 128.2996940
  26.3589992  62.7449978 126.0500014  27.2909992  62.8739978 126.2280014
  26.1439992  63.4139978 125.4000014  26.4574472  62.8530806 125.9864891
  32.2829992  60.3509978 132.8310014  31.6059992  60.4819978 133.4950014
  31.7979992  60.1959978 132.0210014  32.1247265  60.3479659 132.8123397
  25.0329992  63.9389978 123.6170014  24.4909992  63.5599978 122.9250014
  25.8669992  64.1339978 123.1880014  25.0715159  63.9135076 123.4644419
  35.5709992  76.0219978 139.1080014  35.7699992  76.4459978 138.2730014
  36.2259992  76.3659978 139.7150014  35.6868501  76.1266091 139.0757097
  23.1689992  68.4959978 138.7160014  23.9009992  68.7509978 139.2770014
  22.3879992  68.7009978 139.2310014  23.1637684  68.5586468 138.8624782
  29.1979992  63.9029978 131.4540014  29.7619992  63.3569978 130.9070014
  29.0499992  63.3819978 132.2420014  29.2552575  63.7576552 131.4856987
  24.1999992  60.0399978 127.8720014  23.8829992  59.1369978 127.8370014
  24.9809992  60.0419978 127.3190014  24.2622307  59.9166951 127.7924314
  27.8239992  62.2919978 133.8680014  26.9889992  62.7459978 133.9780014
  28.3479992  62.5679978 134.6200014  27.7805070  62.3914666 133.9847152
  28.3689992  68.5049978 125.5520014  27.6239992  67.9969978 125.2300014
  28.2339992  68.5539978 126.4990014  28.2489047  68.4421596 125.6358845
  35.5189992  67.6379978 134.3390014  36.1599992  68.0939978 133.7950014
  34.6879992  67.7509978 133.8770014  35.4945171  67.7157502 134.2020237
  32.2659992  61.3189978 123.7520014  31.3279992  61.4299978 123.6000014
  32.5639992  62.1749978 124.0580014  32.1776402  61.4500621 123.7725571
  29.8879992  68.6889978 136.7890014  29.5419992  68.3069978 137.5960014
  29.6879992  69.6219978 136.8610014  29.8136523  68.7629095 136.9090735
  32.9849992  63.1859978 125.4120014  33.8769992  63.0479978 125.7310014
  33.0409992  63.9769978 124.8760014  33.1147107  63.2740526 125.3832091
  23.4929992  67.7999978 131.3220014  24.2379992  67.7969978 130.7210014
  23.5709992  66.9759978 131.8040014  23.6054158  67.6882916 131.3049153
  30.4939992  69.9629978 124.5780014  30.1989992  70.7899978 124.9590014
  29.7909992  69.3439978 124.7740014  30.3585471  69.9925227 124.6566698
  20.5009992  66.2599978 136.6370014  20.7239992  65.8419978 137.4690014
  19.8989992  65.6479978 136.2140014  20.4501260  66.1199933 136.6937320
  27.5179992  65.7769978 138.8500014  27.2219992  65.6119978 137.9550014
  28.4489992  65.5569978 138.8390014  27.6033982  65.7246578 138.7260045
  32.1379992  71.1509978 136.7400014  31.2379992  71.3339978 136.4720014
  32.1719992  71.4099978 137.6610014  32.0192909  71.2110815 136.8277852
  37.8699992  63.3949978 125.1070014  37.3149992  62.9989978 124.4350014
  37.9699992  64.3059978 124.8290014  37.8075888  63.4638990 124.9775206
  37.8329992  69.1959978 137.9440014  36.9819992  69.4339978 137.5770014
  38.4229992  69.1789978 137.1910014  37.7962408  69.2262966 137.7918879
  36.1649992  72.1809978 125.5720014  35.7919992  71.3559978 125.8810014
  36.4419992  71.9979978 124.6750014  36.1513871  72.0432441 125.4929677
  33.3249992  66.9889978 132.5930014  32.3969992  66.7579978 132.5660014
  33.7759992  66.2119978 132.2630014  33.2588165  66.8522774 132.5446790
  25.8679992  71.3179978 128.7260014  26.3959992  72.0909978 128.5260014
  24.9879992  71.5419978 128.4250014  25.8213176  71.4543161 128.6578409
  21.6229992  66.1799978 123.3140014  22.2389992  66.8069978 123.6930014
  20.7609992  66.4959978 123.5850014  21.5908195  66.3085798 123.4025386
  27.2959992  68.9809978 128.3030014  27.0549992  69.9059978 128.3440014
  26.5549992  68.5219978 128.6990014  27.1628390  69.0456403 128.3621404
  27.8099992  73.1299978 134.6180014  28.1729992  73.9839978 134.3840014
  28.3419992  72.8379978 135.3580014  27.9316090  73.2074058 134.6860219
  25.9789992  74.0019978 127.8480014  25.0289992  74.1079978 127.8990014
  26.3309992  74.8229978 128.1930014  25.8965480  74.1274438 127.9015999
  31.3539992  69.2289978 134.3180014  30.9289992  69.0009978 135.1450014
  31.9349992  68.4899978 134.1360014  31.3743930  69.0979843 134.4064732
  33.5569992  70.1579978 123.3920014  33.9109992  69.7779978 124.1970014
  32.6089992  70.0639978 123.4790014  33.4771820  70.0933092 123.5138714
  34.0129992  73.7809978 136.7880014  33.4109992  73.2249978 136.2920014
  34.2939992  74.4479978 136.1620014  33.9686829  73.7951613 136.6355443
  38.0609992  74.6369978 123.5930014  38.8049992  75.2229978 123.4530014
  37.3669992  75.2059978 123.9270014  38.0690201  74.7940603 123.6189772
  22.1349992  61.0139978 136.1950014  21.2429992  61.3519978 136.1280014
  22.0369992  60.1579978 136.6130014  21.9994965  60.9446499 136.2423044
  34.4229992  68.8299978 125.6190014  34.1459992  68.1019978 126.1750014
  35.3509992  68.9489978 125.8240014  34.5104499  68.7464213 125.7228044
  21.7869992  72.8179978 134.6300014  22.0039992  71.8859978 134.5990014
  22.0329992  73.0929978 135.5130014  21.8499809  72.7275686 134.7451691
  27.6479992  71.2699978 121.8390014  27.8869992  70.5209978 121.2920014
  27.3789992  70.8819978 122.6720014  27.6443233  71.1151853 121.8767809
  26.5849992  70.8399978 124.2960014  26.7319992  70.3199978 125.0860014
  26.5819992  71.7469978 124.6020014  26.6047300  70.8913964 124.4455895
  23.0379992  68.0919978 124.8060014  22.3519992  68.4449978 125.3730014
  23.5609992  68.8549978 124.5600014  23.0149033  68.2433746 124.8502661
  30.8699992  60.7549978 135.0850014  31.5689992  60.8289978 135.7350014
  30.4889992  59.8899978 135.2390014  30.9142097  60.6482389 135.1947997
  31.6539992  60.4069978 126.1820014  31.8739992  60.8779978 125.3790014
  32.2129992  60.8009978 126.8520014  31.7596730  60.5247432 126.1625906
  29.3229992  72.5369978 125.0450014  28.5059992  73.0339978 125.0970014
  29.8519992  73.0129978 124.4050014  29.2828508  72.6692543 124.9656035
  28.8539992  62.1349978 127.0170014  29.6659992  62.6389978 127.0630014
  28.6099992  61.9899978 127.9310014  28.9321467  62.1843749 127.1468575
  29.3899992  63.1209978 136.2020014  29.5089992  63.6949978 136.9590014
  30.0449992  62.4329978 136.3160014  29.4949146  63.1065574 136.3211314
  29.7379992  59.2159978 127.9550014  29.3909992  59.8329978 128.6000014
  30.3969992  59.7169978 127.4740014  29.7795949  59.3681099 127.9782271
  26.6609992  73.5809978 125.0270014  26.8219992  74.3809978 124.5260014
  26.4639992  73.8879978 125.9120014  26.6563919  73.7319129 125.0781006
  25.3959992  60.2789978 124.6420014  25.3119992  61.1669978 124.9890014
  26.2859992  60.0139978 124.8740014  25.5048163  60.3647179 124.7208596
  35.5939992  61.0279978 137.0370014  34.6779992  61.2899978 136.9490014
  35.9299992  61.0249978 136.1400014  35.5139789  61.0634626 136.9037847
  34.1969992  64.7779978 131.1320014  33.3989992  64.3629978 130.8040014
  34.6419992  64.0879978 131.6230014  34.1479684  64.6278628 131.1535227
  23.6539992  70.7059978 123.7030014  24.2459992  71.4059978 123.9790014
  24.1129992  70.2729978 122.9830014  23.7970791  70.7432908 123.6434607
  21.9699992  63.3709978 122.8190014  21.9249992  64.3099978 122.9970014
  21.0819992  63.1349978 122.5490014  21.8438555  63.4676874 122.8068939
  35.2829992  74.0339978 132.7550014  35.1269992  74.7129978 132.0980014
  36.2159992  74.1059978 132.9580014  35.3877387  74.1366390 132.6925342
  22.7779992  58.1519978 131.4920014  22.5489992  58.2109978 130.5640014
  22.3359992  57.3609978 131.7980014  22.6868801  58.0530540 131.4064729
  21.7089992  72.0929978 127.6520014  20.8759992  72.5649978 127.6800014
  22.2539992  72.6029978 127.0540014  21.6687590  72.2265897 127.5749194
  20.9969992  74.7049978 138.9820014  21.5369992  74.4889978 139.7420014
  20.5159992  73.8999978 138.7930014  21.0058613  74.5665400 139.0604782
  25.5939992  73.6249978 140.6030014  26.3619992  73.1659978 140.9440014
  25.5729992  73.3989978 139.6730014  25.6962135  73.5316668 140.5239491
  29.6859992  73.1329978 121.9780014  29.0419992  72.5019978 122.2990014
  30.4479992  72.6019978 121.7460014  29.7008058  72.9747902 121.9906038
  32.1709992  72.0049978 139.3320014  31.8199992  71.1479978 139.5750014
  32.8969992  72.1469978 139.9390014  32.2211590  71.9070178 139.4472907
  34.2909992  72.9499978 122.2120014  34.5739992  72.1549978 122.6640014
  35.0299992  73.1829978 121.6510014  34.4296956  72.8727031 122.1979821
  20.9039992  68.5159978 139.9370014  21.0479992  67.6139978 139.6500014
  20.1319992  68.8019978 139.4490014  20.8193303  68.4313243 139.8317908
  25.2449992  68.8589978 122.0690014  25.3099992  68.0649978 122.6000014
  25.8979992  68.7409978 121.3790014  25.3421754  68.7343337 122.0484259
  27.5589992  68.4849978 139.3690014  27.2309992  68.7559978 138.5120014
  27.7109992  67.5439978 139.2820014  27.5346030  68.3948973 139.2397945
  30.5979992  69.9059978 121.8050014  30.3289992  70.0869978 122.7060014
  30.3909992  68.9809978 121.6740014  30.5332000  69.8056774 121.9105693
  33.2939992  68.4009978 136.7530014  34.0389992  68.9899978 136.6330014
  32.5369992  68.9829978 136.8160014  33.2935205  68.5601997 136.7451119
  21.7369992  65.7159978 139.3570014  22.1449992  64.8589978 139.2360014
  21.4759992  65.7299978 140.2780014  21.7576016  65.6005119 139.4649192
  26.3949992  66.8319978 124.3750014  25.9349992  66.3479978 125.0610014
  26.6499992  66.1629978 123.7390014  26.3665038  66.6753689 124.3829447
  25.6839992  64.7249978 136.7310014  25.0649992  65.3989978 137.0110014
  26.0279992  65.0459978 135.8980014  25.6457605  64.8607198 136.6566707
  27.4659992  65.0749978 122.6370014  27.2849992  64.9199978 121.7100014
  28.4159992  65.1829978 122.6820014  27.5696566  65.0683669 122.5160929
  30.7029992  67.1959978 140.0080014  31.6569992  67.2799978 139.9810014
  30.5429992  66.4839978 140.6280014  30.8117182  67.1112842 140.0880733
  36.8559992  67.4289978 122.0830014  36.5819992  67.0049978 121.2700014
  36.8949992  68.3609978 121.8660014  36.8237716  67.4968827 121.9424286
  26.0229992  62.0799978 137.8130014  26.1729992  61.3509978 137.2110014
  26.0249992  62.8569978 137.2540014  26.0437967  62.0852708 137.6550541
  26.4359992  60.4489978 135.3060014  26.9709992  60.9009978 134.6540014
  25.5829992  60.3409978 134.8830014  26.3940374  60.4962665 135.1596710
  28.0169992  65.8889978 135.5450014  28.7679992  65.7329978 134.9720014
  27.6779992  66.7409978 135.2700014  28.0739587  65.9828138 135.4294078
  32.4329992  63.7039978 140.5740014  32.6249992  62.7729978 140.4620014
  33.2909992  64.1289978 140.5640014  32.5752269  63.6339928 140.5573192
  33.7499992  66.4929978 138.6510014  33.4679992  67.2019978 138.0740014
  34.6919992  66.4199978 138.5000014  33.8387656  66.5803128 138.5514809
  24.5019992  63.2779978 139.7250014  23.7339992  62.7449978 139.5150014
  25.1799992  62.9679978 139.1250014  24.4886973  63.1632375 139.6151796
  27.2409992  57.9059978 135.7370014  27.1429992  58.8519978 135.6320014
  26.4989992  57.5329978 135.2620014  27.1271913  57.9851813 135.6583539
  28.5049992  62.2269978 139.3010014  28.2699992  62.0079978 140.2030014
  27.7219992  62.0199978 138.7910014  28.3669219  62.1690066 139.3555852
  31.2209992  61.3549978 138.3770014  30.2729992  61.3869978 138.5090014
  31.5329992  60.7289978 139.0300014  31.1335190  61.2747262 138.4833564
  32.8549992  59.9889978 140.3820014  32.7579992  59.0369978 140.3760014
  32.5329992  60.2569978 141.2420014  32.7981761  59.8949744 140.4974936
  22.6819992  61.1979978 139.4290014  22.8939992  60.4919978 138.8190014
  22.5709992  60.7609978 140.2730014  22.6960269  61.0421921 139.4595873
  27.4629992  57.1999978 138.4090014  28.1749992  56.5599978 138.3950014
  27.3619992  57.4659978 137.4950014  27.5467261  57.1484190 138.2835537
  27.8169992  58.8819978 140.4620014  27.6849992  58.4069978 139.6420014
  27.2169992  59.6269978 140.4070014  27.7179070  58.9175789 140.3423251
  27.3629992  75.7649978 123.6390014  28.2959992  75.9229978 123.7820014
  27.0989992  76.4409978 123.0140014  27.4549308  75.8779104 123.5741396
  20.9309992  70.4019978 123.1210014  21.8449992  70.4809978 123.3950014
  20.9389992  69.7149978 122.4550014  21.0571143  70.3199085 123.0684274
  19.5799992  75.7949978 128.1990014  18.9329992  75.3329978 127.6660014
  19.9349992  75.1229978 128.7810014  19.5394506  75.6409503 128.2047341
  20.4499992  73.8749978 130.0030014  20.1159992  72.9949978 130.1750014
  20.6729992  74.2209978 130.8680014  20.4343721  73.8011938 130.1434168
  37.9989992  74.6849978 132.9840014  37.9769992  74.8699978 133.9230014
  38.6889992  75.2529978 132.6430014  38.0893439  74.7871887 133.0664791
  37.5619992  74.2519978 135.9060014  37.0749992  73.5169978 135.5350014
  38.1109992  73.8579978 136.5840014  37.5695247  74.0981057 135.9468461
  36.0129992  70.0419978 140.5440014  35.1469992  69.9369978 140.9380014
  36.3889992  70.7999978 140.9900014  35.9453401  70.1301708 140.6582620
  37.3139992  68.2979978 126.0580014  38.1639992  68.7189978 126.1850014
  37.3189992  67.5579978 126.6650014  37.4311143  68.2556094 126.1574750
  37.7079992  66.3519978 127.8820014  36.9819992  65.8719978 128.2790014
  38.2899992  66.5569978 128.6140014  37.6871635  66.3139166 128.0353748
  37.4669992  69.1369978 132.8290014  38.3009992  68.7589978 132.5490014
  37.5789992  70.0799978 132.7100014  37.5962522  69.2127742 132.7746020
  35.9539992  72.0149978 135.1360014  35.3059992  72.3399978 135.7620014
  35.4359992  71.5739978 134.4620014  35.7954168  71.9998523 135.1305307
  37.9769992  66.2529978 124.2730014  37.4549992  66.6089978 123.5540014
  37.9439992  66.9279978 124.9510014  37.9010699  66.3929848 124.2662129
  36.3259992  63.4919978 122.8240014  36.4219992  64.1589978 122.1440014
  36.1859992  62.6769978 122.3420014  36.3202063  63.4730667 122.6658377
  35.4949992  64.8729978 128.4450014  35.3449992  63.9279978 128.4240014
  35.1409992  65.1539978 129.2880014  35.4265527  64.7815605 128.5561859
  20.5299992  66.9509978 132.4550014  20.7149992  66.8689978 131.5190014
  21.3799992  66.8269978 132.8790014  20.6700916  66.9230393 132.3842896
  36.3509992  66.8429978 138.0830014  36.9339992  66.1079978 138.2750014
  36.9149992  67.6149978 138.1300014  36.5069781  66.8468145 138.1156164
  37.8479992  64.7459978 138.7680014  36.9849992  64.3669978 138.6020014
  38.4519992  64.0069978 138.6940014  37.8115944  64.5942978 138.7352984
  35.5729992  60.8999978 121.9410014  36.1839992  60.5289978 122.5780014
  34.7359992  60.4789978 122.1370014  35.5434947  60.7922756 122.0547252
  35.2059992  62.4549978 126.9070014  35.4849992  61.5479978 127.0310014
  35.9649992  62.8889978 126.5180014  35.3468619  62.3894502 126.8713795
  35.8169992  63.0369978 132.3430014  36.7499992  63.2489978 132.3090014
  35.5819992  63.1379978 133.2650014  35.9128308  63.0796503 132.4630214
  35.8469992  63.7739978 135.1190014  35.0039992  64.0419978 135.4850014
  36.2889992  64.5959978 134.9080014  35.7914138  63.9218273 135.1405518
  20.1279992  62.2209978 138.5960014  21.0469992  62.0989978 138.8320014
  19.6779992  61.4709978 138.9850014  20.1931148  62.1028751 138.6809408
  38.1299992  57.7539978 140.4720014  38.4789992  57.0999978 139.8670014
  38.2769992  58.5909978 140.0330014  38.1977355  57.7776067 140.3296564
  35.8189992  59.7179978 126.9550014  36.0009992  59.2689978 127.7810014
  35.2189992  59.1339978 126.4920014  35.7627529  59.5776131 127.0053619
  21.3489992  60.5339978 131.4870014  21.7939992  59.7419978 131.7890014
  21.8149992  61.2499978 131.9180014  21.4729059  60.5224474 131.5866079
  19.6529992  63.5329978 132.5560014  20.1449992  63.3119978 131.7650014
  20.0149992  64.3729978 132.8370014  19.7692923  63.6163468 132.4857407
  37.6489992  59.8629978 138.8220014  36.7319992  60.1339978 138.7860014
  37.7719992  59.3279978 138.0380014  37.5400828  59.8277700 138.7110785
  37.6859992  59.7859978 123.4830014  38.0979992  59.0649978 123.0080014
  38.3669992  60.4549978 123.5420014  37.8345900  59.7777306 123.4259038
  19.9669992  59.7909978 126.6100014  19.0419992  59.9989978 126.4810014
  20.4209992  60.2749978 125.9210014  19.9016374  59.8849949 126.4990957
  34.7369992  74.7749978 128.5560014  35.3899992  74.4269978 127.9480014
  35.2479992  75.2629978 129.2020014  34.8952777  74.7933815 128.5602047
  19.9299992  58.5289978 134.9550014  19.2649992  58.2829978 135.5980014
  19.4869992  59.1509978 134.3770014  19.7790937  58.5793614 134.9649379
  22.1219992  71.7039978 139.0990014  21.3009992  71.8789978 138.6390014
  21.8699992  71.6309978 140.0200014  21.9756173  71.7180794 139.1604972
  25.0759992  72.6779978 135.3580014  24.6519992  73.4879978 135.0750014
  25.9809992  72.7639978 135.0560014  25.1402433  72.8003331 135.2785377
  29.3879992  74.0769978 138.3170014  29.5719992  73.7439978 139.1950014
  30.2339992  74.3869978 137.9950014  29.5276484  74.0732979 138.3937617
  31.7329992  75.3629978 137.5610014  32.4099992  74.7299978 137.3210014
  32.0539992  75.7639978 138.3680014  31.8691323  75.3305691 137.6373158
  36.6499992  57.9529978 136.6410014  35.8369992  58.2779978 136.2530014
  36.8829992  57.1919978 136.1080014  36.5702566  57.8946559 136.5159213
  22.4779992  75.9349978 135.4050014  21.7579992  76.3749978 134.9540014
  22.1129992  75.6839978 136.2540014  22.3299796  75.9613824 135.4579329
  24.9449992  75.5349978 134.4350014  24.0809992  75.6069978 134.8390014
  24.8899992  76.0819978 133.6510014  24.8191942  75.6187849 134.3844000
  29.6559992  75.4229978 133.6100014  29.1989992  75.9519978 132.9560014
  29.8189992  76.0259978 134.3360014  29.6154476  75.5769140 133.6185499
  31.9839992  74.3009978 134.5550014  31.0789992  74.4659978 134.2900014
  32.4119992  75.1539978 134.4900014  31.9180700  74.4389529 134.5099520
  34.5879992  75.8709978 134.8500014  34.4059992  76.7869978 134.6400014
  34.7649992  75.4599978 134.0040014  34.5869907  75.9409741 134.7067883
  21.8929992  74.5579978 132.3150014  21.8749992  74.1319978 133.1730014
  22.6979992  74.2389978 131.9070014  21.9993221  74.4567233 132.3770225
  24.0339992  73.2679978 130.9700014  23.8149992  72.3509978 131.1400014
  24.8579992  73.4079978 131.4360014  24.1154702  73.1615511 131.0562527
  26.5709992  73.7379978 131.8190014  26.7839992  72.8499978 131.5320014
  26.6359992  73.7029978 132.7740014  26.6089075  73.6118307 131.9087373
  30.0799992  59.4019978 130.9630014  29.4059992  58.7719978 131.2190014
  30.6439992  58.9179978 130.3600014  30.0640384  59.2503708 130.9165020
  35.2229992  57.5089978 131.0760014  35.8259992  58.0569978 130.5740014
  34.3529992  57.8279978 130.8360014  35.1879190  57.6271041 130.9748679
  36.9499992  58.6479978 129.4090014  37.5609992  58.1339978 128.8830014
  37.3319992  59.5249978 129.4330014  37.0854475  58.6961323 129.3401208
  22.4069992  58.0359978 128.7850014  21.6299992  57.8009978 128.2780014
  22.9369992  57.2389978 128.7940014  22.3723451  57.8961268 128.7168627
  21.2429992  57.8339978 124.5890014  21.6819992  58.4449978 123.9970014
  20.6089992  58.3719978 125.0630014  21.2173859  57.9904064 124.5720305
  26.9859992  57.9619978 128.5990014  27.8599992  58.3509978 128.5690014
  26.8499992  57.7469978 129.5210014  27.0873207  57.9861923 128.7196509
  32.5429992  57.9919978 130.2480014  32.6189992  58.0879978 129.2990014
  32.2679992  57.0849978 130.3770014  32.5162042  57.8824241 130.1353811
  33.8959992  58.0179978 125.9400014  33.1929992  58.6329978 125.7310014
  33.4509992  57.1809978 126.0720014  33.7396292  57.9890085 125.9292439
  21.1439992  73.7819978 125.4870014  20.4589992  73.7439978 124.8190014
  21.1479992  74.6949978 125.7750014  21.0508174  73.9001998 125.4345310
  23.1039992  59.7499978 123.0310014  23.5949992  59.1199978 122.5040014
  23.7269992  60.0459978 123.6950014  23.2555062  59.7036770 123.0485438
  28.1299992  60.0429978 125.4890014  28.3079992  59.3959978 126.1710014
  28.0759992  60.8769978 125.9560014  28.1471025  60.0670504 125.6456433
  30.0079992  74.9909978 123.8840014  30.8739992  75.3579978 123.7060014
  29.7619992  74.5519978 123.0700014  30.0932097  74.9818525 123.7496019
  36.7169992  74.5539978 126.5630014  36.5229992  73.8059978 125.9980014
  36.6779992  75.3119978 125.9800014  36.6851645  74.5540786 126.4068148
  22.3639992  58.5499978 138.3030014  21.9979992  57.7839978 138.7460014
  23.2769992  58.5789978 138.5900014  22.4373225  58.4491906 138.4023459
  24.3369992  57.8999978 139.8390014  25.2359992  57.6259978 139.6540014
  23.9509992  57.1579978 140.3030014  24.4077237  57.7621508 139.8764710
  22.9619992  74.7019978 122.5120014  22.6939992  74.9879978 123.3850014
  23.7329992  74.1559978 122.6640014  23.0295600  74.6673330 122.6521499
  32.7589992  57.2329978 140.0210014  32.8349992  56.8069978 140.8750014
  33.6519992  57.2459978 139.6780014  32.8902267  57.1763952 140.0915932
  35.9349992  73.3059978 138.7130014  35.1529992  73.1189978 138.1940014
  35.8629992  74.2349978 138.9310014  35.8180863  73.4060221 138.6713574
  50.3409992  67.1919978 128.7440014  50.4299992  68.1359978 128.6120014
  49.7029992  66.9169978 128.0860014  50.2669062  67.2839812 128.6369641
  49.2739992  66.4469978 132.1630014  49.2359992  65.8009978 132.8680014
  48.9519992  65.9799978 131.3920014  49.2252679  66.2954276 132.1552921
  41.6419992  66.0609978 133.7560014  41.6839992  65.4359978 134.4790014
  42.3449992  66.6849978 133.9380014  41.7427345  66.0597873 133.8795274
  52.9799992  69.3859978 130.4650014  52.5389992  68.6659978 130.9150014
  52.9669992  70.1069978 131.0940014  52.9177960  69.3848329 130.6117567
  42.5659992  70.5109978 132.2910014  42.1959992  69.7089978 131.9210014
  43.5069992  70.3429978 132.3370014  42.6425984  70.3784638 132.2465603
  39.1759992  64.1709978 127.6840014  38.7279992  65.0169978 127.6650014
  38.6149992  63.5919978 127.1680014  39.0389603  64.2083674 127.6116720
  39.8859992  66.3329978 129.8100014  40.0999992  65.5629978 130.3370014
  40.6239992  66.4229978 129.2060014  40.0149652  66.2398012 129.8005212
  50.0919992  74.4899978 130.6770014  50.7109992  73.8139978 130.4030014
  49.8829992  74.2719978 131.5850014  50.1486232  74.3677938 130.7622517
  47.6629992  68.8789978 132.5690014  47.9669992  68.1929978 131.9750014
  48.3849992  68.9979978 133.1870014  47.8021152  68.8012189 132.5712123
  56.3259992  60.4809978 133.4300014  56.3759992  61.0909978 134.1660014
  56.7519992  60.9419978 132.7070014  56.3904108  60.6267709 133.4330112
  50.8039992  63.2729978 132.8970014  50.9469992  62.3269978 132.9170014
  50.6979992  63.4799978 131.9680014  50.8092509  63.1714813 132.7742231
  43.9589992  61.3749978 130.1690014  44.0019992  62.2349978 129.7510014
  43.5009992  60.8229978 129.5350014  43.9029815  61.4180621 130.0261197
  51.6809992  61.5059978 128.5700014  52.3279992  61.1769978 129.1950014
  52.1909992  62.0229978 127.9470014  51.8384317  61.5309227 128.5712167
  40.5789992  63.7719978 130.9310014  41.2329992  63.2219978 131.3630014
  40.6029992  63.4979978 130.0140014  40.6717199  63.6597167 130.8661668
  45.7359992  65.3219978 130.1460014  46.3519992  64.7949978 130.6560014
  45.1489992  64.6819978 129.7430014  45.7409239  65.1634117 130.1612952
  56.7179992  61.9589978 135.6660014  56.0289992  62.6169978 135.5700014
  56.7329992  61.7609978 136.6020014  56.6256740  62.0223243 135.7794630
  42.7689992  60.2929978 134.2430014  42.5499992  60.8229978 133.4770014
  42.1009992  60.5189978 134.8900014  42.6487001  60.3961154 134.2256064
  50.1379992  69.7929978 127.7870014  49.8429992  69.4699978 126.9360014
  49.8139992  70.6929978 127.8280014  50.0537983  69.8704027 127.6759771
  45.3379992  67.9679978 134.5310014  44.5979992  68.5669978 134.6340014
  46.0519992  68.5219978 134.2150014  45.3333288  68.1247356 134.5023805
  53.4449992  60.7969978 130.5500014  53.2299992  60.0309978 131.0830014
  54.1009992  61.2689978 131.0630014  53.5042673  60.7560728 130.6921990
  42.3629992  62.1849978 132.1950014  42.9769992  62.8179978 132.5690014
  42.8749992  61.7129978 131.5390014  42.5162277  62.2077352 132.1574279
  43.7459992  69.9329978 135.3180014  43.7399992  70.8119978 134.9400014
  42.8919992  69.8489978 135.7430014  43.6297925  70.0419535 135.3236887
  39.8669992  69.6039978 126.1000014  39.5949992  69.8329978 125.2110014
  39.9119992  70.4409978 126.5600014  39.8358709  69.7486058 126.0406107
  53.4919992  71.2249978 132.8120014  52.5499992  71.2839978 132.9740014
  53.7679992  72.1309978 132.6750014  53.4005865  71.3555288 132.8156192
  53.7919992  59.5119978 134.2300014  53.0559992  60.1219978 134.1920014
  54.4759992  59.9269978 133.7030014  53.7835506  59.6516400 134.1536051
  46.7959992  57.5979978 131.6960014  46.6779992  56.6499978 131.6410014
  45.9409992  57.9309978 131.9690014  46.6642679  57.5131926 131.7253720
  51.7439992  73.0059978 129.4380014  52.1689992  72.2989978 128.9530014
  52.0609992  73.8079978 129.0210014  51.8450266  73.0175190 129.3152479
  52.9039992  70.9069978 127.9460014  52.6459992  70.2169978 127.3350014
  52.9749992  70.4639978 128.7920014  52.8782837  70.7527106 127.9766912
  54.5899992  69.4739978 136.4240014  54.7289992  68.8819978 135.6840014
  54.7569992  70.3469978 136.0670014  54.6315562  69.5109896 136.2746283
  49.0619992  66.4359978 126.1960014  48.3509992  66.9709978 125.8440014
  49.7529992  66.4909978 125.5360014  49.0580751  66.5166777 126.0585858
  49.1159992  64.8929978 123.2350014  49.8169992  64.9159978 123.8860014
  49.4179992  64.2649978 122.5790014  49.2528282  64.8112339 123.2354496
  56.4309992  65.8139978 134.4900014  55.7789992  66.5079978 134.5790014
  56.8969992  66.0239978 133.6800014  56.4045937  65.9375019 134.3927533
  52.4679992  66.6449978 127.1480014  51.7359992  66.8739978 127.7210014
  52.9149992  65.9319978 127.6030014  52.4282753  66.5798972 127.2879715
  52.3649992  64.8199978 136.2160014  52.4449992  65.5829978 136.7870014
  51.7639992  65.0989978 135.5250014  52.2947245  64.9622630 136.2008424
  44.1129992  67.2759978 129.0300014  43.7829992  66.9049978 128.2120014
  44.7019992  66.6049978 129.3770014  44.1473970  67.1346063 128.9649404
  45.4799992  70.7039978 131.7120014  45.3849992  70.1249978 130.9550014
  46.2089992  70.3329978 132.2080014  45.5656161  70.5745891 131.6755209
  44.4799992  66.0439978 132.6640014  45.0449992  66.1659978 131.9010014
  44.7989992  66.6819978 133.3030014  44.6003977  66.1468851 132.6459424
  50.7889992  71.5479978 133.3980014  50.5489992  72.2099978 134.0460014
  50.5909992  70.7129978 133.8230014  50.7293826  71.5258115 133.5441566
  45.3599992  70.4439978 137.3810014  45.0489992  71.2259978 137.8360014
  44.7099992  70.2909978 136.6950014  45.2295538  70.5304087 137.3505898
  51.3389992  65.8079978 124.8330014  51.9179992  65.9579978 125.5800014
  51.7529992  66.2779978 124.1100014  51.4743122  65.8921277 124.8375042
  42.2799992  66.6419978 136.6100014  42.3499992  67.2929978 137.3080014
  41.3889992  66.7449978 136.2750014  42.1691802  66.7449757 136.6602249
  49.0649992  72.5439978 128.2680014  49.5389992  72.8399978 129.0460014
  48.5019992  73.2829978 128.0350014  49.0537361  72.6842721 128.3428611
  43.5989992  72.5149978 138.1440014  43.6069992  72.3789978 137.1970014
  42.6829992  72.3979978 138.3960014  43.4762528  72.4805463 138.0483243
  55.0379992  57.5579978 124.6460014  54.1379992  57.6969978 124.9410014
  55.2899992  58.3889978 124.2440014  54.9488683  57.6894055 124.6320232
  43.1039992  66.3449978 126.6200014  42.8119992  67.1129978 126.1290014
  42.4289992  65.6859978 126.4570014  42.9728497  66.3609745 126.5308260
  56.2269992  71.9239978 123.0220014  56.2999992  72.8629978 123.1930014
  57.1319992  71.6189978 122.9660014  56.3594158  72.0113061 123.0378392
  39.1969992  68.7079978 135.4350014  38.6949992  68.6799978 134.6200014
  39.2019992  67.8029978 135.7440014  39.1290416  68.5817368 135.3653766
  38.9469992  71.4889978 132.3190014  39.8929992  71.3439978 132.3000014
  38.8339992  72.2729978 132.8560014  39.0613578  71.5751697 132.3890317
  57.1449992  72.1549978 138.0010014  57.0949992  71.1989978 137.9640014
  56.3179992  72.4219978 138.4020014  57.0263987  72.0605174 138.0501446
  48.1229992  71.7289978 136.8770014  48.2109992  72.5549978 137.3520014
  47.2599992  71.3989978 137.1260014  48.0183357  71.7975468 136.9757653
  48.5379992  75.5009978 126.6830014  48.4619992  75.3799978 125.7370014
  48.5699992  76.4499978 126.8020014  48.5319156  75.6127530 126.5695048
  42.1909992  74.2899978 128.4640014  42.3429992  73.9419978 129.3430014
  41.3399992  73.9329978 128.2090014  42.0967899  74.1941738 128.5497340
  51.6389992  74.6549978 123.6850014  52.0139992  73.9109978 123.2150014
  51.6439992  74.3849978 124.6040014  51.6910024  74.5166950 123.7447987
  51.3079992  74.5809978 126.4350014  50.3729992  74.6809978 126.6130014
  51.5879992  73.8709978 127.0130014  51.2178173  74.4987239 126.5374998
  54.2969992  63.6479978 138.4810014  53.8889992  64.1279978 137.7610014
  54.3369992  62.7419978 138.1730014  54.2465476  63.5913160 138.3408247
  41.4459992  70.0319978 136.4780014  41.6619992  69.6699978 137.3370014
  40.5899992  69.6569978 136.2680014  41.3599354  69.9317906 136.5672160
  44.0639992  58.5019978 132.4730014  43.2029992  58.4149978 132.0660014
  44.0419992  59.3579978 132.9010014  43.9430411  58.6057884 132.4750857
  48.7269992  58.2239978 135.8480014  49.1469992  57.8089978 136.6010014
  47.7939992  58.0449978 135.9650014  48.6583736  58.1429910 135.9668968
  52.0539992  61.9789978 136.7010014  51.5399992  61.8539978 137.4990014
  51.8979992  62.8919978 136.4570014  51.9626967  62.0852123 136.7770937
  52.8159992  66.8399978 122.4630014  52.8579992  66.6179978 121.5330014
  53.6649992  67.2389978 122.6530014  52.9365253  66.8635498 122.3613822
  48.3889992  60.7159978 123.1330014  48.1349992  60.7349978 124.0560014
  48.1319992  59.8449978 122.8320014  48.3195133  60.6008110 123.2185082
  44.1549992  63.4669978 133.5680014  43.5139992  63.4269978 134.2770014
  44.1929992  64.3939978 133.3310014  44.0723670  63.5867795 133.6330550
  44.1519992  63.6879978 128.4800014  43.2599992  63.3479978 128.4220014
  44.6029992  63.3109978 127.7250014  44.0906815  63.5903762 128.3699203
  49.6879992  64.1039978 127.2970014  49.2789992  64.9189978 127.0060014
  50.4079992  63.9639978 126.6830014  49.7294013  64.1966571 127.1740875
  48.7899992  64.2799978 138.7850014  48.2269992  63.5749978 139.1060014
  49.6159992  64.1589978 139.2530014  48.8246674  64.1672165 138.8921751
  50.6929992  63.5499978 130.1110014  50.4969992  64.1559978 129.3960014
  50.8739992  62.7169978 129.6770014  50.6906584  63.5202513 129.9544212
  41.9049992  63.7879978 135.4350014  41.8669992  64.1879978 136.3040014
  41.4149992  62.9709978 135.5260014  41.8335621  63.7322510 135.5661377
  45.2709992  61.1619978 122.2340014  44.8399992  60.7169978 122.9640014
  44.5529992  61.5329978 121.7220014  45.1149363  61.1512968 122.2646211
  38.5139992  60.9039978 129.2860014  39.1439992  60.8749978 130.0050014
  38.9629992  60.4789978 128.5560014  38.6610692  60.8425316 129.2857771
  39.7879992  61.6499978 124.7100014  40.2619992  62.2409978 124.1250014
  39.0699992  62.1799978 125.0570014  39.7558640  61.8025511 124.6767969
  49.9569992  65.1879978 134.7830014  50.2799992  64.5569978 134.1400014
  49.5159992  64.6539978 135.4430014  49.9415789  65.0293522 134.7842232
  46.7339992  61.1159978 129.5670014  45.8229992  61.1729978 129.8550014
  47.2389992  61.0559978 130.3770014  46.6775387  61.1156870 129.7160646
  41.5619992  62.7449978 128.3930014  40.6729992  62.8439978 128.0530014
  41.8589992  61.9029978 128.0470014  41.4804177  62.6447687 128.2996940
  45.2149992  62.7449978 126.0500014  46.1469992  62.8739978 126.2280014
  44.9999992  63.4139978 125.4000014  45.3134472  62.8530806 125.9864891
  51.1389992  60.3509978 132.8310014  50.4619992  60.4819978 133.4950014
  50.6539992  60.1959978 132.0210014  50.9807265  60.3479659 132.8123397
  43.8889992  63.9389978 123.6170014  43.3469992  63.5599978 122.9250014
  44.7229992  64.1339978 123.1880014  43.9275159  63.9135076 123.4644419
  54.4269992  76.0219978 139.1080014  54.6259992  76.4459978 138.2730014
  55.0819992  76.3659978 139.7150014  54.5428501  76.1266091 139.0757097
  42.0249992  68.4959978 138.7160014  42.7569992  68.7509978 139.2770014
  41.2439992  68.7009978 139.2310014  42.0197684  68.5586468 138.8624782
  48.0539992  63.9029978 131.4540014  48.6179992  63.3569978 130.9070014
  47.9059992  63.3819978 132.2420014  48.1112575  63.7576552 131.4856987
  43.0559992  60.0399978 127.8720014  42.7389992  59.1369978 127.8370014
  43.8369992  60.0419978 127.3190014  43.1182307  59.9166951 127.7924314
  46.6799992  62.2919978 133.8680014  45.8449992  62.7459978 133.9780014
  47.2039992  62.5679978 134.6200014  46.6365070  62.3914665 133.9847152
  47.2249992  68.5049978 125.5520014  46.4799992  67.9969978 125.2300014
  47.0899992  68.5539978 126.4990014  47.1049047  68.4421596 125.6358845
  54.3749992  67.6379978 134.3390014  55.0159992  68.0939978 133.7950014
  53.5439992  67.7509978 133.8770014  54.3505171  67.7157502 134.2020237
  51.1219992  61.3189978 123.7520014  50.1839992  61.4299978 123.6000014
  51.4199992  62.1749978 124.0580014  51.0336402  61.4500621 123.7725571
  48.7439992  68.6889978 136.7890014  48.3979992  68.3069978 137.5960014
  48.5439992  69.6219978 136.8610014  48.6696523  68.7629095 136.9090735
  51.8409992  63.1859978 125.4120014  52.7329992  63.0479978 125.7310014
  51.8969992  63.9769978 124.8760014  51.9707107  63.2740526 125.3832091
  42.3489992  67.7999978 131.3220014  43.0939992  67.7969978 130.7210014
  42.4269992  66.9759978 131.8040014  42.4614158  67.6882916 131.3049153
  49.3499992  69.9629978 124.5780014  49.0549992  70.7899978 124.9590014
  48.6469992  69.3439978 124.7740014  49.2145471  69.9925227 124.6566698
  39.3569992  66.2599978 136.6370014  39.5799992  65.8419978 137.4690014
  38.7549992  65.6479978 136.2140014  39.3061260  66.1199933 136.6937320
  46.3739992  65.7769978 138.8500014  46.0779992  65.6119978 137.9550014
  47.3049992  65.5569978 138.8390014  46.4593982  65.7246578 138.7260045
  50.9939992  71.1509978 136.7400014  50.0939992  71.3339978 136.4720014
  51.0279992  71.4099978 137.6610014  50.8752909  71.2110815 136.8277852
  56.7259992  63.3949978 125.1070014  56.1709992  62.9989978 124.4350014
  56.8259992  64.3059978 124.8290014  56.6635888  63.4638990 124.9775206
  56.6889992  69.1959978 137.9440014  55.8379992  69.4339978 137.5770014
  57.2789992  69.1789978 137.1910014  56.6522408  69.2262966 137.7918879
  55.0209992  72.1809978 125.5720014  54.6479992  71.3559978 125.8810014
  55.2979992  71.9979978 124.6750014  55.0073871  72.0432441 125.4929677
  52.1809992  66.9889978 132.5930014  51.2529992  66.7579978 132.5660014
  52.6319992  66.2119978 132.2630014  52.1148165  66.8522774 132.5446790
  44.7239992  71.3179978 128.7260014  45.2519992  72.0909978 128.5260014
  43.8439992  71.5419978 128.4250014  44.6773176  71.4543161 128.6578409
  40.4789992  66.1799978 123.3140014  41.0949992  66.8069978 123.6930014
  39.6169992  66.4959978 123.5850014  40.4468195  66.3085798 123.4025386
  46.1519992  68.9809978 128.3030014  45.9109992  69.9059978 128.3440014
  45.4109992  68.5219978 128.6990014  46.0188390  69.0456403 128.3621404
  46.6659992  73.1299978 134.6180014  47.0289992  73.9839978 134.3840014
  47.1979992  72.8379978 135.3580014  46.7876090  73.2074058 134.6860219
  44.8349992  74.0019978 127.8480014  43.8849992  74.1079978 127.8990014
  45.1869992  74.8229978 128.1930014  44.7525480  74.1274438 127.9015999
  50.2099992  69.2289978 134.3180014  49.7849992  69.0009978 135.1450014
  50.7909992  68.4899978 134.1360014  50.2303930  69.0979843 134.4064732
  52.4129992  70.1579978 123.3920014  52.7669992  69.7779978 124.1970014
  51.4649992  70.0639978 123.4790014  52.3331820  70.0933092 123.5138714
  52.8689992  73.7809978 136.7880014  52.2669992  73.2249978 136.2920014
  53.1499992  74.4479978 136.1620014  52.8246829  73.7951613 136.6355443
  56.9169992  74.6369978 123.5930014  57.6609992  75.2229978 123.4530014
  56.2229992  75.2059978 123.9270014  56.9250201  74.7940603 123.6189772
  40.9909992  61.0139978 136.1950014  40.0989992  61.3519978 136.1280014
  40.8929992  60.1579978 136.6130014  40.8554965  60.9446499 136.2423044
  53.2789992  68.8299978 125.6190014  53.0019992  68.1019978 126.1750014
  54.2069992  68.9489978 125.8240014  53.3664499  68.7464213 125.7228044
  40.6429992  72.8179978 134.6300014  40.8599992  71.8859978 134.5990014
  40.8889992  73.0929978 135.5130014  40.7059809  72.7275686 134.7451691
  46.5039992  71.2699978 121.8390014  46.7429992  70.5209978 121.2920014
  46.2349992  70.8819978 122.6720014  46.5003233  71.1151853 121.8767809
  45.4409992  70.8399978 124.2960014  45.5879992  70.3199978 125.0860014
  45.4379992  71.7469978 124.6020014  45.4607300  70.8913964 124.4455895
  41.8939992  68.0919978 124.8060014  41.2079992  68.4449978 125.3730014
  42.4169992  68.8549978 124.5600014  41.8709033  68.2433746 124.8502661
  49.7259992  60.7549978 135.0850014  50.4249992  60.8289978 135.7350014
  49.3449992  59.8899978 135.2390014  49.7702097  60.6482389 135.1947997
  50.5099992  60.4069978 126.1820014  50.7299992  60.8779978 125.3790014
  51.0689992  60.8009978 126.8520014  50.6156730  60.5247432 126.1625906
  48.1789992  72.5369978 125.0450014  47.3619992  73.0339978 125.0970014
  48.7079992  73.0129978 124.4050014  48.1388508  72.6692543 124.9656035
  47.7099992  62.1349978 127.0170014  48.5219992  62.6389978 127.0630014
  47.4659992  61.9899978 127.9310014  47.7881467  62.1843749 127.1468575
  48.2459992  63.1209978 136.2020014  48.3649992  63.6949978 136.9590014
  48.9009992  62.4329978 136.3160014  48.3509146  63.1065574 136.3211314
  48.5939992  59.2159978 127.9550014  48.2469992  59.8329978 128.6000014
  49.2529992  59.7169978 127.4740014  48.6355949  59.3681099 127.9782271
  45.5169992  73.5809978 125.0270014  45.6779992  74.3809978 124.5260014
  45.3199992  73.8879978 125.9120014  45.5123919  73.7319129 125.0781006
  44.2519992  60.2789978 124.6420014  44.1679992  61.1669978 124.9890014
  45.1419992  60.0139978 124.8740014  44.3608163  60.3647179 124.7208596
  54.4499992  61.0279978 137.0370014  53.5339992  61.2899978 136.9490014
  54.7859992  61.0249978 136.1400014  54.3699789  61.0634626 136.9037847
  53.0529992  64.7779978 131.1320014  52.2549992  64.3629978 130.8040014
  53.4979992  64.0879978 131.6230014  53.0039684  64.6278628 131.1535227
  42.5099992  70.7059978 123.7030014  43.1019992  71.4059978 123.9790014
  42.9689992  70.2729978 122.9830014  42.6530791  70.7432908 123.6434607
  40.8259992  63.3709978 122.8190014  40.7809992  64.3099978 122.9970014
  39.9379992  63.1349978 122.5490014  40.6998555  63.4676874 122.8068939
  54.1389992  74.0339978 132.7550014  53.9829992  74.7129978 132.0980014
  55.0719992  74.1059978 132.9580014  54.2437387  74.1366390 132.6925342
  41.6339992  58.1519978 131.4920014  41.4049992  58.2109978 130.5640014
  41.1919992  57.3609978 131.7980014  41.5428801  58.0530540 131.4064729
  40.5649992  72.0929978 127.6520014  39.7319992  72.5649978 127.6800014
  41.1099992  72.6029978 127.0540014  40.5247590  72.2265897 127.5749194
  39.8529992  74.7049978 138.9820014  40.3929992  74.4889978 139.7420014
  39.3719992  73.8999978 138.7930014  39.8618613  74.5665400 139.0604782
  44.4499992  73.6249978 140.6030014  45.2179992  73.1659978 140.9440014
  44.4289992  73.3989978 139.6730014  44.5522135  73.5316668 140.5239491
  48.5419992  73.1329978 121.9780014  47.8979992  72.5019978 122.2990014
  49.3039992  72.6019978 121.7460014  48.5568058  72.9747902 121.9906038
  51.0269992  72.0049978 139.3320014  50.6759992  71.1479978 139.5750014
  51.7529992  72.1469978 139.9390014  51.0771590  71.9070178 139.4472907
  53.1469992  72.9499978 122.2120014  53.4299992  72.1549978 122.6640014
  53.8859992  73.1829978 121.6510014  53.2856956  72.8727031 122.1979822
  39.7599992  68.5159978 139.9370014  39.9039992  67.6139978 139.6500014
  38.9879992  68.8019978 139.4490014  39.6753303  68.4313243 139.8317908
  44.1009992  68.8589978 122.0690014  44.1659992  68.0649978 122.6000014
  44.7539992  68.7409978 121.3790014  44.1981754  68.7343337 122.0484259
  46.4149992  68.4849978 139.3690014  46.0869992  68.7559978 138.5120014
  46.5669992  67.5439978 139.2820014  46.3906030  68.3948973 139.2397945
  49.4539992  69.9059978 121.8050014  49.1849992  70.0869978 122.7060014
  49.2469992  68.9809978 121.6740014  49.3892000  69.8056774 121.9105693
  52.1499992  68.4009978 136.7530014  52.8949992  68.9899978 136.6330014
  51.3929992  68.9829978 136.8160014  52.1495205  68.5601997 136.7451119
  40.5929992  65.7159978 139.3570014  41.0009992  64.8589978 139.2360014
  40.3319992  65.7299978 140.2780014  40.6136016  65.6005119 139.4649192
  45.2509992  66.8319978 124.3750014  44.7909992  66.3479978 125.0610014
  45.5059992  66.1629978 123.7390014  45.2225038  66.6753689 124.3829447
  44.5399992  64.7249978 136.7310014  43.9209992  65.3989978 137.0110014
  44.8839992  65.0459978 135.8980014  44.5017605  64.8607198 136.6566707
  46.3219992  65.0749978 122.6370014  46.1409992  64.9199978 121.7100014
  47.2719992  65.1829978 122.6820014  46.4256566  65.0683669 122.5160929
  49.5589992  67.1959978 140.0080014  50.5129992  67.2799978 139.9810014
  49.3989992  66.4839978 140.6280014  49.6677182  67.1112842 140.0880733
  55.7119992  67.4289978 122.0830014  55.4379992  67.0049978 121.2700014
  55.7509992  68.3609978 121.8660014  55.6797716  67.4968827 121.9424286
  44.8789992  62.0799978 137.8130014  45.0289992  61.3509978 137.2110014
  44.8809992  62.8569978 137.2540014  44.8997967  62.0852708 137.6550541
  45.2919992  60.4489978 135.3060014  45.8269992  60.9009978 134.6540014
  44.4389992  60.3409978 134.8830014  45.2500374  60.4962665 135.1596710
  46.8729992  65.8889978 135.5450014  47.6239992  65.7329978 134.9720014
  46.5339992  66.7409978 135.2700014  46.9299587  65.9828138 135.4294078
  51.2889992  63.7039978 140.5740014  51.4809992  62.7729978 140.4620014
  52.1469992  64.1289978 140.5640014  51.4312269  63.6339928 140.5573192
  52.6059992  66.4929978 138.6510014  52.3239992  67.2019978 138.0740014
  53.5479992  66.4199978 138.5000014  52.6947656  66.5803128 138.5514809
  43.3579992  63.2779978 139.7250014  42.5899992  62.7449978 139.5150014
  44.0359992  62.9679978 139.1250014  43.3446973  63.1632375 139.6151796
  46.0969992  57.9059978 135.7370014  45.9989992  58.8519978 135.6320014
  45.3549992  57.5329978 135.2620014  45.9831913  57.9851813 135.6583539
  47.3609992  62.2269978 139.3010014  47.1259992  62.0079978 140.2030014
  46.5779992  62.0199978 138.7910014  47.2229219  62.1690066 139.3555852
  50.0769992  61.3549978 138.3770014  49.1289992  61.3869978 138.5090014
  50.3889992  60.7289978 139.0300014  49.9895190  61.2747262 138.4833564
  51.7109992  59.9889978 140.3820014  51.6139992  59.0369978 140.3760014
  51.3889992  60.2569978 141.2420014  51.6541761  59.8949744 140.4974936
  41.5379992  61.1979978 139.4290014  41.7499992  60.4919978 138.8190014
  41.4269992  60.7609978 140.2730014  41.5520269  61.0421921 139.4595873
  46.3189992  57.1999978 138.4090014  47.0309992  56.5599978 138.3950014
  46.2179992  57.4659978 137.4950014  46.4027261  57.1484190 138.2835537
  46.6729992  58.8819978 140.4620014  46.5409992  58.4069978 139.6420014
  46.0729992  59.6269978 140.4070014  46.5739070  58.9175789 140.3423251
  46.2189992  75.7649978 123.6390014  47.1519992  75.9229978 123.7820014
  45.9549992  76.4409978 123.0140014  46.3109308  75.8779104 123.5741396
  39.7869992  70.4019978 123.1210014  40.7009992  70.4809978 123.3950014
  39.7949992  69.7149978 122.4550014  39.9131143  70.3199085 123.0684274
  38.4359992  75.7949978 128.1990014  37.7889992  75.3329978 127.6660014
  38.7909992  75.1229978 128.7810014  38.3954506  75.6409503 128.2047341
  39.3059992  73.8749978 130.0030014  38.9719992  72.9949978 130.1750014
  39.5289992  74.2209978 130.8680014  39.2903721  73.8011938 130.1434168
  56.8549992  74.6849978 132.9840014  56.8329992  74.8699978 133.9230014
  57.5449992  75.2529978 132.6430014  56.9453439  74.7871887 133.0664791
  56.4179992  74.2519978 135.9060014  55.9309992  73.5169978 135.5350014
  56.9669992  73.8579978 136.5840014  56.4255247  74.0981057 135.9468461
  54.8689992  70.0419978 140.5440014  54.0029992  69.9369978 140.9380014
  55.2449992  70.7999978 140.9900014  54.8013401  70.1301708 140.6582620
  56.1699992  68.2979978 126.0580014  57.0199992  68.7189978 126.1850014
  56.1749992  67.5579978 126.6650014  56.2871143  68.2556094 126.1574750
  56.5639992  66.3519978 127.8820014  55.8379992  65.8719978 128.2790014
  57.1459992  66.5569978 128.6140014  56.5431635  66.3139166 128.0353748
  56.3229992  69.1369978 132.8290014  57.1569992  68.7589978 132.5490014
  56.4349992  70.0799978 132.7100014  56.4522522  69.2127742 132.7746020
  54.8099992  72.0149978 135.1360014  54.1619992  72.3399978 135.7620014
  54.2919992  71.5739978 134.4620014  54.6514168  71.9998523 135.1305307
  56.8329992  66.2529978 124.2730014  56.3109992  66.6089978 123.5540014
  56.7999992  66.9279978 124.9510014  56.7570699  66.3929848 124.2662129
  55.1819992  63.4919978 122.8240014  55.2779992  64.1589978 122.1440014
  55.0419992  62.6769978 122.3420014  55.1762063  63.4730667 122.6658377
  54.3509992  64.8729978 128.4450014  54.2009992  63.9279978 128.4240014
  53.9969992  65.1539978 129.2880014  54.2825527  64.7815605 128.5561859
  39.3859992  66.9509978 132.4550014  39.5709992  66.8689978 131.5190014
  40.2359992  66.8269978 132.8790014  39.5260916  66.9230393 132.3842896
  55.2069992  66.8429978 138.0830014  55.7899992  66.1079978 138.2750014
  55.7709992  67.6149978 138.1300014  55.3629781  66.8468145 138.1156164
  56.7039992  64.7459978 138.7680014  55.8409992  64.3669978 138.6020014
  57.3079992  64.0069978 138.6940014  56.6675944  64.5942978 138.7352984
  54.4289992  60.8999978 121.9410014  55.0399992  60.5289978 122.5780014
  53.5919992  60.4789978 122.1370014  54.3994947  60.7922756 122.0547252
  54.0619992  62.4549978 126.9070014  54.3409992  61.5479978 127.0310014
  54.8209992  62.8889978 126.5180014  54.2028619  62.3894502 126.8713795
  54.6729992  63.0369978 132.3430014  55.6059992  63.2489978 132.3090014
  54.4379992  63.1379978 133.2650014  54.7688308  63.0796503 132.4630214
  54.7029992  63.7739978 135.1190014  53.8599992  64.0419978 135.4850014
  55.1449992  64.5959978 134.9080014  54.6474138  63.9218273 135.1405518
  38.9839992  62.2209978 138.5960014  39.9029992  62.0989978 138.8320014
  38.5339992  61.4709978 138.9850014  39.0491148  62.1028751 138.6809408
  56.9859992  57.7539978 140.4720014  57.3349992  57.0999978 139.8670014
  57.1329992  58.5909978 140.0330014  57.0537355  57.7776067 140.3296564
  54.6749992  59.7179978 126.9550014  54.8569992  59.2689978 127.7810014
  54.0749992  59.1339978 126.4920014  54.6187529  59.5776131 127.0053619
  40.2049992  60.5339978 131.4870014  40.6499992  59.7419978 131.7890014
  40.6709992  61.2499978 131.9180014  40.3289059  60.5224474 131.5866079
  38.5089992  63.5329978 132.5560014  39.0009992  63.3119978 131.7650014
  38.8709992  64.3729978 132.8370014  38.6252923  63.6163468 132.4857407
  56.5049992  59.8629978 138.8220014  55.5879992  60.1339978 138.7860014
  56.6279992  59.3279978 138.0380014  56.3960828  59.8277700 138.7110785
  56.5419992  59.7859978 123.4830014  56.9539992  59.0649978 123.0080014
  57.2229992  60.4549978 123.5420014  56.6905900  59.7777306 123.4259038
  38.8229992  59.7909978 126.6100014  37.8979992  59.9989978 126.4810014
  39.2769992  60.2749978 125.9210014  38.7576374  59.8849949 126.4990957
  53.5929992  74.7749978 128.5560014  54.2459992  74.4269978 127.9480014
  54.1039992  75.2629978 129.2020014  53.7512777  74.7933815 128.5602047
  38.7859992  58.5289978 134.9550014  38.1209992  58.2829978 135.5980014
  38.3429992  59.1509978 134.3770014  38.6350937  58.5793614 134.9649379
  40.9779992  71.7039978 139.0990014  40.1569992  71.8789978 138.6390014
  40.7259992  71.6309978 140.0200014  40.8316173  71.7180794 139.1604972
  43.9319992  72.6779978 135.3580014  43.5079992  73.4879978 135.0750014
  44.8369992  72.7639978 135.0560014  43.9962433  72.8003331 135.2785377
  48.2439992  74.0769978 138.3170014  48.4279992  73.7439978 139.1950014
  49.0899992  74.3869978 137.9950014  48.3836484  74.0732979 138.3937617
  50.5889992  75.3629978 137.5610014  51.2659992  74.7299978 137.3210014
  50.9099992  75.7639978 138.3680014  50.7251323  75.3305691 137.6373158
  55.5059992  57.9529978 136.6410014  54.6929992  58.2779978 136.2530014
  55.7389992  57.1919978 136.1080014  55.4262566  57.8946559 136.5159213
  41.3339992  75.9349978 135.4050014  40.6139992  76.3749978 134.9540014
  40.9689992  75.6839978 136.2540014  41.1859796  75.9613824 135.4579329
  43.8009992  75.5349978 134.4350014  42.9369992  75.6069978 134.8390014
  43.7459992  76.0819978 133.6510014  43.6751942  75.6187849 134.3844000
  48.5119992  75.4229978 133.6100014  48.0549992  75.9519978 132.9560014
  48.6749992  76.0259978 134.3360014  48.4714476  75.5769140 133.6185499
  50.8399992  74.3009978 134.5550014  49.9349992  74.4659978 134.2900014
  51.2679992  75.1539978 134.4900014  50.7740700  74.4389529 134.5099520
  53.4439992  75.8709978 134.8500014  53.2619992  76.7869978 134.6400014
  53.6209992  75.4599978 134.0040014  53.4429907  75.9409741 134.7067883
  40.7489992  74.5579978 132.3150014  40.7309992  74.1319978 133.1730014
  41.5539992  74.2389978 131.9070014  40.8553221  74.4567233 132.3770225
  42.8899992  73.2679978 130.9700014  42.6709992  72.3509978 131.1400014
  43.7139992  73.4079978 131.4360014  42.9714702  73.1615511 131.0562527
  45.4269992  73.7379978 131.8190014  45.6399992  72.8499978 131.5320014
  45.4919992  73.7029978 132.7740014  45.4649075  73.6118307 131.9087373
  48.9359992  59.4019978 130.9630014  48.2619992  58.7719978 131.2190014
  49.4999992  58.9179978 130.3600014  48.9200384  59.2503708 130.9165020
  54.0789992  57.5089978 131.0760014  54.6819992  58.0569978 130.5740014
  53.2089992  57.8279978 130.8360014  54.0439190  57.6271041 130.9748679
  55.8059992  58.6479978 129.4090014  56.4169992  58.1339978 128.8830014
  56.1879992  59.5249978 129.4330014  55.9414475  58.6961323 129.3401208
  41.2629992  58.0359978 128.7850014  40.4859992  57.8009978 128.2780014
  41.7929992  57.2389978 128.7940014  41.2283451  57.8961268 128.7168627
  40.0989992  57.8339978 124.5890014  40.5379992  58.4449978 123.9970014
  39.4649992  58.3719978 125.0630014  40.0733859  57.9904064 124.5720305
  45.8419992  57.9619978 128.5990014  46.7159992  58.3509978 128.5690014
  45.7059992  57.7469978 129.5210014  45.9433207  57.9861923 128.7196509
  51.3989992  57.9919978 130.2480014  51.4749992  58.0879978 129.2990014
  51.1239992  57.0849978 130.3770014  51.3722042  57.8824241 130.1353811
  52.7519992  58.0179978 125.9400014  52.0489992  58.6329978 125.7310014
  52.3069992  57.1809978 126.0720014  52.5956292  57.9890085 125.9292439
  39.9999992  73.7819978 125.4870014  39.3149992  73.7439978 124.8190014
  40.0039992  74.6949978 125.7750014  39.9068174  73.9001998 125.4345310
  41.9599992  59.7499978 123.0310014  42.4509992  59.1199978 122.5040014
  42.5829992  60.0459978 123.6950014  42.1115062  59.7036770 123.0485438
  46.9859992  60.0429978 125.4890014  47.1639992  59.3959978 126.1710014
  46.9319992  60.8769978 125.9560014  47.0031025  60.0670504 125.6456433
  48.8639992  74.9909978 123.8840014  49.7299992  75.3579978 123.7060014
  48.6179992  74.5519978 123.0700014  48.9492097  74.9818525 123.7496019
  55.5729992  74.5539978 126.5630014  55.3789992  73.8059978 125.9980014
  55.5339992  75.3119978 125.9800014  55.5411645  74.5540786 126.4068148
  41.2199992  58.5499978 138.3030014  40.8539992  57.7839978 138.7460014
  42.1329992  58.5789978 138.5900014  41.2933225  58.4491906 138.4023459
  43.1929992  57.8999978 139.8390014  44.0919992  57.6259978 139.6540014
  42.8069992  57.1579978 140.3030014  43.2637237  57.7621508 139.8764710
  41.8179992  74.7019978 122.5120014  41.5499992  74.9879978 123.3850014
  42.5889992  74.1559978 122.6640014  41.8855600  74.6673330 122.6521499
  51.6149992  57.2329978 140.0210014  51.6909992  56.8069978 140.8750014
  52.5079992  57.2459978 139.6780014  51.7462267  57.1763952 140.0915932
  54.7909992  73.3059978 138.7130014  54.0089992  73.1189978 138.1940014
  54.7189992  74.2349978 138.9310014  54.6740863  73.4060221 138.6713574
  69.1969992  67.1919978 128.7440014  69.2859992  68.1359978 128.6120014
  68.5589992  66.9169978 128.0860014  69.1229062  67.2839812 128.6369641
  68.1299992  66.4469978 132.1630014  68.0919992  65.8009978 132.8680014
  67.8079992  65.9799978 131.3920014  68.0812679  66.2954276 132.1552921
  60.4979992  66.0609978 133.7560014  60.5399992  65.4359978 134.4790014
  61.2009992  66.6849978 133.9380014  60.5987345  66.0597873 133.8795274
  71.8359992  69.3859978 130.4650014  71.3949992  68.6659978 130.9150014
  71.8229992  70.1069978 131.0940014  71.7737960  69.3848329 130.6117567
  61.4219992  70.5109978 132.2910014  61.0519992  69.7089978 131.9210014
  62.3629992  70.3429978 132.3370014  61.4985984  70.3784638 132.2465603
  58.0319992  64.1709978 127.6840014  57.5839992  65.0169978 127.6650014
  57.4709992  63.5919978 127.1680014  57.8949603  64.2083674 127.6116720
  58.7419992  66.3329978 129.8100014  58.9559992  65.5629978 130.3370014
  59.4799992  66.4229978 129.2060014  58.8709652  66.2398012 129.8005212
  68.9479992  74.4899978 130.6770014  69.5669992  73.8139978 130.4030014
  68.7389992  74.2719978 131.5850014  69.0046232  74.3677938 130.7622517
  66.5189992  68.8789978 132.5690014  66.8229992  68.1929978 131.9750014
  67.2409992  68.9979978 133.1870014  66.6581152  68.8012189 132.5712123
  75.1819992  60.4809978 133.4300014  75.2319992  61.0909978 134.1660014
  75.6079992  60.9419978 132.7070014  75.2464108  60.6267709 133.4330112
  69.6599992  63.2729978 132.8970014  69.8029992  62.3269978 132.9170014
  69.5539992  63.4799978 131.9680014  69.6652509  63.1714813 132.7742231
  62.8149992  61.3749978 130.1690014  62.8579992  62.2349978 129.7510014
  62.3569992  60.8229978 129.5350014  62.7589815  61.4180621 130.0261197
  70.5369992  61.5059978 128.5700014  71.1839992  61.1769978 129.1950014
  71.0469992  62.0229978 127.9470014  70.6944317  61.5309227 128.5712167
  59.4349992  63.7719978 130.9310014  60.0889992  63.2219978 131.3630014
  59.4589992  63.4979978 130.0140014  59.5277199  63.6597167 130.8661668
  64.5919992  65.3219978 130.1460014  65.2079992  64.7949978 130.6560014
  64.0049992  64.6819978 129.7430014  64.5969239  65.1634117 130.1612952
  75.5739992  61.9589978 135.6660014  74.8849992  62.6169978 135.5700014
  75.5889992  61.7609978 136.6020014  75.4816740  62.0223243 135.7794630
  61.6249992  60.2929978 134.2430014  61.4059992  60.8229978 133.4770014
  60.9569992  60.5189978 134.8900014  61.5047001  60.3961154 134.2256064
  68.9939992  69.7929978 127.7870014  68.6989992  69.4699978 126.9360014
  68.6699992  70.6929978 127.8280014  68.9097983  69.8704026 127.6759771
  64.1939992  67.9679978 134.5310014  63.4539992  68.5669978 134.6340014
  64.9079992  68.5219978 134.2150014  64.1893288  68.1247356 134.5023805
  72.3009992  60.7969978 130.5500014  72.0859992  60.0309978 131.0830014
  72.9569992  61.2689978 131.0630014  72.3602673  60.7560728 130.6921990
  61.2189992  62.1849978 132.1950014  61.8329992  62.8179978 132.5690014
  61.7309992  61.7129978 131.5390014  61.3722277  62.2077352 132.1574279
  62.6019992  69.9329978 135.3180014  62.5959992  70.8119978 134.9400014
  61.7479992  69.8489978 135.7430014  62.4857925  70.0419535 135.3236887
  58.7229992  69.6039978 126.1000014  58.4509992  69.8329978 125.2110014
  58.7679992  70.4409978 126.5600014  58.6918709  69.7486058 126.0406107
  72.3479992  71.2249978 132.8120014  71.4059992  71.2839978 132.9740014
  72.6239992  72.1309978 132.6750014  72.2565865  71.3555288 132.8156192
  72.6479992  59.5119978 134.2300014  71.9119992  60.1219978 134.1920014
  73.3319992  59.9269978 133.7030014  72.6395506  59.6516400 134.1536051
  65.6519992  57.5979978 131.6960014  65.5339992  56.6499978 131.6410014
  64.7969992  57.9309978 131.9690014  65.5202679  57.5131926 131.7253720
  70.5999992  73.0059978 129.4380014  71.0249992  72.2989978 128.9530014
  70.9169992  73.8079978 129.0210014  70.7010266  73.0175190 129.3152479
  71.7599992  70.9069978 127.9460014  71.5019992  70.2169978 127.3350014
  71.8309992  70.4639978 128.7920014  71.7342837  70.7527106 127.9766912
  73.4459992  69.4739978 136.4240014  73.5849992  68.8819978 135.6840014
  73.6129992  70.3469978 136.0670014  73.4875562  69.5109896 136.2746283
  67.9179992  66.4359978 126.1960014  67.2069992  66.9709978 125.8440014
  68.6089992  66.4909978 125.5360014  67.9140751  66.5166777 126.0585858
  67.9719992  64.8929978 123.2350014  68.6729992  64.9159978 123.8860014
  68.2739992  64.2649978 122.5790014  68.1088282  64.8112339 123.2354496
  75.2869992  65.8139978 134.4900014  74.6349992  66.5079978 134.5790014
  75.7529992  66.0239978 133.6800014  75.2605937  65.9375019 134.3927533
  71.3239992  66.6449978 127.1480014  70.5919992  66.8739978 127.7210014
  71.7709992  65.9319978 127.6030014  71.2842753  66.5798972 127.2879715
  71.2209992  64.8199978 136.2160014  71.3009992  65.5829978 136.7870014
  70.6199992  65.0989978 135.5250014  71.1507245  64.9622630 136.2008424
  62.9689992  67.2759978 129.0300014  62.6389992  66.9049978 128.2120014
  63.5579992  66.6049978 129.3770014  63.0033970  67.1346063 128.9649404
  64.3359992  70.7039978 131.7120014  64.2409992  70.1249978 130.9550014
  65.0649992  70.3329978 132.2080014  64.4216161  70.5745891 131.6755209
  63.3359992  66.0439978 132.6640014  63.9009992  66.1659978 131.9010014
  63.6549992  66.6819978 133.3030014  63.4563977  66.1468851 132.6459424
  69.6449992  71.5479978 133.3980014  69.4049992  72.2099978 134.0460014
  69.4469992  70.7129978 133.8230014  69.5853826  71.5258115 133.5441566
  64.2159992  70.4439978 137.3810014  63.9049992  71.2259978 137.8360014
  63.5659992  70.2909978 136.6950014  64.0855538  70.5304087 137.3505898
  70.1949992  65.8079978 124.8330014  70.7739992  65.9579978 125.5800014
  70.6089992  66.2779978 124.1100014  70.3303122  65.8921277 124.8375042
  61.1359992  66.6419978 136.6100014  61.2059992  67.2929978 137.3080014
  60.2449992  66.7449978 136.2750014  61.0251802  66.7449757 136.6602249
  67.9209992  72.5439978 128.2680014  68.3949992  72.8399978 129.0460014
  67.3579992  73.2829978 128.0350014  67.9097361  72.6842721 128.3428611
  62.4549992  72.5149978 138.1440014  62.4629992  72.3789978 137.1970014
  61.5389992  72.3979978 138.3960014  62.3322528  72.4805463 138.0483243
  73.8939992  57.5579978 124.6460014  72.9939992  57.6969978 124.9410014
  74.1459992  58.3889978 124.2440014  73.8048683  57.6894055 124.6320232
  61.9599992  66.3449978 126.6200014  61.6679992  67.1129978 126.1290014
  61.2849992  65.6859978 126.4570014  61.8288497  66.3609745 126.5308260
  75.0829992  71.9239978 123.0220014  75.1559992  72.8629978 123.1930014
  75.9879992  71.6189978 122.9660014  75.2154158  72.0113061 123.0378392
  58.0529992  68.7079978 135.4350014  57.5509992  68.6799978 134.6200014
  58.0579992  67.8029978 135.7440014  57.9850416  68.5817368 135.3653766
  57.8029992  71.4889978 132.3190014  58.7489992  71.3439978 132.3000014
  57.6899992  72.2729978 132.8560014  57.9173578  71.5751697 132.3890317
  76.0009992  72.1549978 138.0010014  75.9509992  71.1989978 137.9640014
  75.1739992  72.4219978 138.4020014  75.8823987  72.0605174 138.0501446
  66.9789992  71.7289978 136.8770014  67.0669992  72.5549978 137.3520014
  66.1159992  71.3989978 137.1260014  66.8743357  71.7975468 136.9757653
  67.3939992  75.5009978 126.6830014  67.3179992  75.3799978 125.7370014
  67.4259992  76.4499978 126.8020014  67.3879156  75.6127530 126.5695048
  61.0469992  74.2899978 128.4640014  61.1989992  73.9419978 129.3430014
  60.1959992  73.9329978 128.2090014  60.9527899  74.1941738 128.5497340
  70.4949992  74.6549978 123.6850014  70.8699992  73.9109978 123.2150014
  70.4999992  74.3849978 124.6040014  70.5470024  74.5166950 123.7447987
  70.1639992  74.5809978 126.4350014  69.2289992  74.6809978 126.6130014
  70.4439992  73.8709978 127.0130014  70.0738173  74.4987239 126.5374998
  73.1529992  63.6479978 138.4810014  72.7449992  64.1279978 137.7610014
  73.1929992  62.7419978 138.1730014  73.1025476  63.5913160 138.3408247
  60.3019992  70.0319978 136.4780014  60.5179992  69.6699978 137.3370014
  59.4459992  69.6569978 136.2680014  60.2159354  69.9317906 136.5672160
  62.9199992  58.5019978 132.4730014  62.0589992  58.4149978 132.0660014
  62.8979992  59.3579978 132.9010014  62.7990411  58.6057884 132.4750857
  67.5829992  58.2239978 135.8480014  68.0029992  57.8089978 136.6010014
  66.6499992  58.0449978 135.9650014  67.5143736  58.1429910 135.9668968
  70.9099992  61.9789978 136.7010014  70.3959992  61.8539978 137.4990014
  70.7539992  62.8919978 136.4570014  70.8186967  62.0852123 136.7770937
  71.6719992  66.8399978 122.4630014  71.7139992  66.6179978 121.5330014
  72.5209992  67.2389978 122.6530014  71.7925253  66.8635498 122.3613822
  67.2449992  60.7159978 123.1330014  66.9909992  60.7349978 124.0560014
  66.9879992  59.8449978 122.8320014  67.1755133  60.6008110 123.2185082
  63.0109992  63.4669978 133.5680014  62.3699992  63.4269978 134.2770014
  63.0489992  64.3939978 133.3310014  62.9283670  63.5867795 133.6330550
  63.0079992  63.6879978 128.4800014  62.1159992  63.3479978 128.4220014
  63.4589992  63.3109978 127.7250014  62.9466815  63.5903762 128.3699203
  68.5439992  64.1039978 127.2970014  68.1349992  64.9189978 127.0060014
  69.2639992  63.9639978 126.6830014  68.5854013  64.1966571 127.1740875
  67.6459992  64.2799978 138.7850014  67.0829992  63.5749978 139.1060014
  68.4719992  64.1589978 139.2530014  67.6806674  64.1672165 138.8921751
  69.5489992  63.5499978 130.1110014  69.3529992  64.1559978 129.3960014
  69.7299992  62.7169978 129.6770014  69.5466584  63.5202513 129.9544212
  60.7609992  63.7879978 135.4350014  60.7229992  64.1879978 136.3040014
  60.2709992  62.9709978 135.5260014  60.6895621  63.7322510 135.5661377
  64.1269992  61.1619978 122.2340014  63.6959992  60.7169978 122.9640014
  63.4089992  61.5329978 121.7220014  63.9709363  61.1512968 122.2646211
  57.3699992  60.9039978 129.2860014  57.9999992  60.8749978 130.0050014
  57.8189992  60.4789978 128.5560014  57.5170692  60.8425316 129.2857771
  58.6439992  61.6499978 124.7100014  59.1179992  62.2409978 124.1250014
  57.9259992  62.1799978 125.0570014  58.6118640  61.8025511 124.6767969
  68.8129992  65.1879978 134.7830014  69.1359992  64.5569978 134.1400014
  68.3719992  64.6539978 135.4430014  68.7975789  65.0293522 134.7842232
  65.5899992  61.1159978 129.5670014  64.6789992  61.1729978 129.8550014
  66.0949992  61.0559978 130.3770014  65.5335387  61.1156870 129.7160646
  60.4179992  62.7449978 128.3930014  59.5289992  62.8439978 128.0530014
  60.7149992  61.9029978 128.0470014  60.3364177  62.6447687 128.2996940
  64.0709992  62.7449978 126.0500014  65.0029992  62.8739978 126.2280014
  63.8559992  63.4139978 125.4000014  64.1694472  62.8530806 125.9864891
  69.9949992  60.3509978 132.8310014  69.3179992  60.4819978 133.4950014
  69.5099992  60.1959978 132.0210014  69.8367265  60.3479659 132.8123397
  62.7449992  63.9389978 123.6170014  62.2029992  63.5599978 122.9250014
  63.5789992  64.1339978 123.1880014  62.7835159  63.9135076 123.4644419
  73.2829992  76.0219978 139.1080014  73.4819992  76.4459978 138.2730014
  73.9379992  76.3659978 139.7150014  73.3988501  76.1266091 139.0757097
  60.8809992  68.4959978 138.7160014  61.6129992  68.7509978 139.2770014
  60.0999992  68.7009978 139.2310014  60.8757684  68.5586468 138.8624782
  66.9099992  63.9029978 131.4540014  67.4739992  63.3569978 130.9070014
  66.7619992  63.3819978 132.2420014  66.9672575  63.7576552 131.4856987
  61.9119992  60.0399978 127.8720014  61.5949992  59.1369978 127.8370014
  62.6929992  60.0419978 127.3190014  61.9742307  59.9166951 127.7924314
  65.5359992  62.2919978 133.8680014  64.7009992  62.7459978 133.9780014
  66.0599992  62.5679978 134.6200014  65.4925070  62.3914666 133.9847152
  66.0809992  68.5049978 125.5520014  65.3359992  67.9969978 125.2300014
  65.9459992  68.5539978 126.4990014  65.9609047  68.4421596 125.6358845
  73.2309992  67.6379978 134.3390014  73.8719992  68.0939978 133.7950014
  72.3999992  67.7509978 133.8770014  73.2065171  67.7157502 134.2020237
  69.9779992  61.3189978 123.7520014  69.0399992  61.4299978 123.6000014
  70.2759992  62.1749978 124.0580014  69.8896402  61.4500621 123.7725571
  67.5999992  68.6889978 136.7890014  67.2539992  68.3069978 137.5960014
  67.3999992  69.6219978 136.8610014  67.5256523  68.7629095 136.9090735
  70.6969992  63.1859978 125.4120014  71.5889992  63.0479978 125.7310014
  70.7529992  63.9769978 124.8760014  70.8267107  63.2740526 125.3832091
  61.2049992  67.7999978 131.3220014  61.9499992  67.7969978 130.7210014
  61.2829992  66.9759978 131.8040014  61.3174158  67.6882916 131.3049153
  68.2059992  69.9629978 124.5780014  67.9109992  70.7899978 124.9590014
  67.5029992  69.3439978 124.7740014  68.0705471  69.9925227 124.6566698
  58.2129992  66.2599978 136.6370014  58.4359992  65.8419978 137.4690014
  57.6109992  65.6479978 136.2140014  58.1621260  66.1199933 136.6937320
  65.2299992  65.7769978 138.8500014  64.9339992  65.6119978 137.9550014
  66.1609992  65.5569978 138.8390014  65.3153982  65.7246578 138.7260045
  69.8499992  71.1509978 136.7400014  68.9499992  71.3339978 136.4720014
  69.8839992  71.4099978 137.6610014  69.7312909  71.2110815 136.8277852
  75.5819992  63.3949978 125.1070014  75.0269992  62.9989978 124.4350014
  75.6819992  64.3059978 124.8290014  75.5195888  63.4638990 124.9775206
  75.5449992  69.1959978 137.9440014  74.6939992  69.4339978 137.5770014
  76.1349992  69.1789978 137.1910014  75.5082408  69.2262966 137.7918879
  73.8769992  72.1809978 125.5720014  73.5039992  71.3559978 125.8810014
  74.1539992  71.9979978 124.6750014  73.8633871  72.0432441 125.4929677
  71.0369992  66.9889978 132.5930014  70.1089992  66.7579978 132.5660014
  71.4879992  66.2119978 132.2630014  70.9708165  66.8522774 132.5446790
  63.5799992  71.3179978 128.7260014  64.1079992  72.0909978 128.5260014
  62.6999992  71.5419978 128.4250014  63.5333176  71.4543161 128.6578409
  59.3349992  66.1799978 123.3140014  59.9509992  66.8069978 123.6930014
  58.4729992  66.4959978 123.5850014  59.3028195  66.3085798 123.4025386
  65.0079992  68.9809978 128.3030014  64.7669992  69.9059978 128.3440014
  64.2669992  68.5219978 128.6990014  64.8748390  69.0456403 128.3621404
  65.5219992  73.1299978 134.6180014  65.8849992  73.9839978 134.3840014
  66.0539992  72.8379978 135.3580014  65.6436090  73.2074058 134.6860219
  63.6909992  74.0019978 127.8480014  62.7409992  74.1079978 127.8990014
  64.0429992  74.8229978 128.1930014  63.6085480  74.1274438 127.9015999
  69.0659992  69.2289978 134.3180014  68.6409992  69.0009978 135.1450014
  69.6469992  68.4899978 134.1360014  69.0863930  69.0979843 134.4064732
  71.2689992  70.1579978 123.3920014  71.6229992  69.7779978 124.1970014
  70.3209992  70.0639978 123.4790014  71.1891820  70.0933092 123.5138714
  71.7249992  73.7809978 136.7880014  71.1229992  73.2249978 136.2920014
  72.0059992  74.4479978 136.1620014  71.6806829  73.7951613 136.6355443
  75.7729992  74.6369978 123.5930014  76.5169992  75.2229978 123.4530014
  75.0789992  75.2059978 123.9270014  75.7810201  74.7940603 123.6189772
  59.8469992  61.0139978 136.1950014  58.9549992  61.3519978 136.1280014
  59.7489992  60.1579978 136.6130014  59.7114965  60.9446499 136.2423044
  72.1349992  68.8299978 125.6190014  71.8579992  68.1019978 126.1750014
  73.0629992  68.9489978 125.8240014  72.2224499  68.7464213 125.7228044
  59.4989992  72.8179978 134.6300014  59.7159992  71.8859978 134.5990014
  59.7449992  73.0929978 135.5130014  59.5619809  72.7275686 134.7451691
  65.3599992  71.2699978 121.8390014  65.5989992  70.5209978 121.2920014
  65.0909992  70.8819978 122.6720014  65.3563233  71.1151853 121.8767809
  64.2969992  70.8399978 124.2960014  64.4439992  70.3199978 125.0860014
  64.2939992  71.7469978 124.6020014  64.3167300  70.8913964 124.4455895
  60.7499992  68.0919978 124.8060014  60.0639992  68.4449978 125.3730014
  61.2729992  68.8549978 124.5600014  60.7269033  68.2433746 124.8502661
  68.5819992  60.7549978 135.0850014  69.2809992  60.8289978 135.7350014
  68.2009992  59.8899978 135.2390014  68.6262097  60.6482389 135.1947997
  69.3659992  60.4069978 126.1820014  69.5859992  60.8779978 125.3790014
  69.9249992  60.8009978 126.8520014  69.4716730  60.5247432 126.1625906
  67.0349992  72.5369978 125.0450014  66.2179992  73.0339978 125.0970014
  67.5639992  73.0129978 124.4050014  66.9948508  72.6692543 124.9656035
  66.5659992  62.1349978 127.0170014  67.3779992  62.6389978 127.0630014
  66.3219992  61.9899978 127.9310014  66.6441467  62.1843749 127.1468575
  67.1019992  63.1209978 136.2020014  67.2209992  63.6949978 136.9590014
  67.7569992  62.4329978 136.3160014  67.2069146  63.1065574 136.3211314
  67.4499992  59.2159978 127.9550014  67.1029992  59.8329978 128.6000014
  68.1089992  59.7169978 127.4740014  67.4915950  59.3681099 127.9782271
  64.3729992  73.5809978 125.0270014  64.5339992  74.3809978 124.5260014
  64.1759992  73.8879978 125.9120014  64.3683919  73.7319129 125.0781006
  63.1079992  60.2789978 124.6420014  63.0239992  61.1669978 124.9890014
  63.9979992  60.0139978 124.8740014  63.2168163  60.3647179 124.7208596
  73.3059992  61.0279978 137.0370014  72.3899992  61.2899978 136.9490014
  73.6419992  61.0249978 136.1400014  73.2259789  61.0634626 136.9037847
  71.9089992  64.7779978 131.1320014  71.1109992  64.3629978 130.8040014
  72.3539992  64.0879978 131.6230014  71.8599684  64.6278628 131.1535227
  61.3659992  70.7059978 123.7030014  61.9579992  71.4059978 123.9790014
  61.8249992  70.2729978 122.9830014  61.5090791  70.7432908 123.6434607
  59.6819992  63.3709978 122.8190014  59.6369992  64.3099978 122.9970014
  58.7939992  63.1349978 122.5490014  59.5558555  63.4676874 122.8068939
  72.9949992  74.0339978 132.7550014  72.8389992  74.7129978 132.0980014
  73.9279992  74.1059978 132.9580014  73.0997387  74.1366390 132.6925342
  60.4899992  58.1519978 131.4920014  60.2609992  58.2109978 130.5640014
  60.0479992  57.3609978 131.7980014  60.3988801  58.0530540 131.4064729
  59.4209992  72.0929978 127.6520014  58.5879992  72.5649978 127.6800014
  59.9659992  72.6029978 127.0540014  59.3807590  72.2265897 127.5749194
  58.7089992  74.7049978 138.9820014  59.2489992  74.4889978 139.7420014
  58.2279992  73.8999978 138.7930014  58.7178613  74.5665400 139.0604782
  63.3059992  73.6249978 140.6030014  64.0739992  73.1659978 140.9440014
  63.2849992  73.3989978 139.6730014  63.4082135  73.5316668 140.5239491
  67.3979992  73.1329978 121.9780014  66.7539992  72.5019978 122.2990014
  68.1599992  72.6019978 121.7460014  67.4128058  72.9747902 121.9906038
  69.8829992  72.0049978 139.3320014  69.5319992  71.1479978 139.5750014
  70.6089992  72.1469978 139.9390014  69.9331590  71.9070178 139.4472907
  72.0029992  72.9499978 122.2120014  72.2859992  72.1549978 122.6640014
  72.7419992  73.1829978 121.6510014  72.1416956  72.8727031 122.1979822
  58.6159992  68.5159978 139.9370014  58.7599992  67.6139978 139.6500014
  57.8439992  68.8019978 139.4490014  58.5313303  68.4313243 139.8317908
  62.9569992  68.8589978 122.0690014  63.0219992  68.0649978 122.6000014
  63.6099992  68.7409978 121.3790014  63.0541754  68.7343337 122.0484259
  65.2709992  68.4849978 139.3690014  64.9429992  68.7559978 138.5120014
  65.4229992  67.5439978 139.2820014  65.2466030  68.3948973 139.2397945
  68.3099992  69.9059978 121.8050014  68.0409992  70.0869978 122.7060014
  68.1029992  68.9809978 121.6740014  68.2452000  69.8056774 121.9105693
  71.0059992  68.4009978 136.7530014  71.7509992  68.9899978 136.6330014
  70.2489992  68.9829978 136.8160014  71.0055205  68.5601997 136.7451119
  59.4489992  65.7159978 139.3570014  59.8569992  64.8589978 139.2360014
  59.1879992  65.7299978 140.2780014  59.4696016  65.6005119 139.4649192
  64.1069992  66.8319978 124.3750014  63.6469992  66.3479978 125.0610014
  64.3619992  66.1629978 123.7390014  64.0785038  66.6753689 124.3829447
  63.3959992  64.7249978 136.7310014  62.7769992  65.3989978 137.0110014
  63.7399992  65.0459978 135.8980014  63.3577605  64.8607198 136.6566707
  65.1779992  65.0749978 122.6370014  64.9969992  64.9199978 121.7100014
  66.1279992  65.1829978 122.6820014  65.2816566  65.0683669 122.5160929
  68.4149992  67.1959978 140.0080014  69.3689992  67.2799978 139.9810014
  68.2549992  66.4839978 140.6280014  68.5237182  67.1112842 140.0880733
  74.5679992  67.4289978 122.0830014  74.2939992  67.0049978 121.2700014
  74.6069992  68.3609978 121.8660014  74.5357716  67.4968827 121.9424286
  63.7349992  62.0799978 137.8130014  63.8849992  61.3509978 137.2110014
  63.7369992  62.8569978 137.2540014  63.7557967  62.0852708 137.6550541
  64.1479992  60.4489978 135.3060014  64.6829992  60.9009978 134.6540014
  63.2949992  60.3409978 134.8830014  64.1060374  60.4962665 135.1596710
  65.7289992  65.8889978 135.5450014  66.4799992  65.7329978 134.9720014
  65.3899992  66.7409978 135.2700014  65.7859587  65.9828138 135.4294078
  70.1449992  63.7039978 140.5740014  70.3369992  62.7729978 140.4620014
  71.0029992  64.1289978 140.5640014  70.2872269  63.6339928 140.5573192
  71.4619992  66.4929978 138.6510014  71.1799992  67.2019978 138.0740014
  72.4039992  66.4199978 138.5000014  71.5507656  66.5803128 138.5514809
  62.2139992  63.2779978 139.7250014  61.4459992  62.7449978 139.5150014
  62.8919992  62.9679978 139.1250014  62.2006973  63.1632375 139.6151796
  64.9529992  57.9059978 135.7370014  64.8549992  58.8519978 135.6320014
  64.2109992  57.5329978 135.2620014  64.8391913  57.9851813 135.6583539
  66.2169992  62.2269978 139.3010014  65.9819992  62.0079978 140.2030014
  65.4339992  62.0199978 138.7910014  66.0789219  62.1690066 139.3555852
  68.9329992  61.3549978 138.3770014  67.9849992  61.3869978 138.5090014
  69.2449992  60.7289978 139.0300014  68.8455190  61.2747262 138.4833564
  70.5669992  59.9889978 140.3820014  70.4699992  59.0369978 140.3760014
  70.2449992  60.2569978 141.2420014  70.5101761  59.8949744 140.4974936
  60.3939992  61.1979978 139.4290014  60.6059992  60.4919978 138.8190014
  60.2829992  60.7609978 140.2730014  60.4080269  61.0421921 139.4595873
  65.1749992  57.1999978 138.4090014  65.8869992  56.5599978 138.3950014
  65.0739992  57.4659978 137.4950014  65.2587261  57.1484190 138.2835537
  65.5289992  58.8819978 140.4620014  65.3969992  58.4069978 139.6420014
  64.9289992  59.6269978 140.4070014  65.4299070  58.9175789 140.3423251
  65.0749992  75.7649978 123.6390014  66.0079992  75.9229978 123.7820014
  64.8109992  76.4409978 123.0140014  65.1669308  75.8779104 123.5741396
  58.6429992  70.4019978 123.1210014  59.5569992  70.4809978 123.3950014
  58.6509992  69.7149978 122.4550014  58.7691143  70.3199085 123.0684274
  57.2919992  75.7949978 128.1990014  56.6449992  75.3329978 127.6660014
  57.6469992  75.1229978 128.7810014  57.2514506  75.6409503 128.2047341
  58.1619992  73.8749978 130.0030014  57.8279992  72.9949978 130.1750014
  58.3849992  74.2209978 130.8680014  58.1463721  73.8011938 130.1434168
  75.7109992  74.6849978 132.9840014  75.6889992  74.8699978 133.9230014
  76.4009992  75.2529978 132.6430014  75.8013439  74.7871887 133.0664791
  75.2739992  74.2519978 135.9060014  74.7869992  73.5169978 135.5350014
  75.8229992  73.8579978 136.5840014  75.2815247  74.0981057 135.9468461
  73.7249992  70.0419978 140.5440014  72.8589992  69.9369978 140.9380014
  74.1009992  70.7999978 140.9900014  73.6573401  70.1301708 140.6582620
  75.0259992  68.2979978 126.0580014  75.8759992  68.7189978 126.1850014
  75.0309992  67.5579978 126.6650014  75.1431143  68.2556094 126.1574750
  75.4199992  66.3519978 127.8820014  74.6939992  65.8719978 128.2790014
  76.0019992  66.5569978 128.6140014  75.3991635  66.3139166 128.0353748
  75.1789992  69.1369978 132.8290014  76.0129992  68.7589978 132.5490014
  75.2909992  70.0799978 132.7100014  75.3082522  69.2127742 132.7746020
  73.6659992  72.0149978 135.1360014  73.0179992  72.3399978 135.7620014
  73.1479992  71.5739978 134.4620014  73.5074168  71.9998523 135.1305307
  75.6889992  66.2529978 124.2730014  75.1669992  66.6089978 123.5540014
  75.6559992  66.9279978 124.9510014  75.6130699  66.3929848 124.2662129
  74.0379992  63.4919978 122.8240014  74.1339992  64.1589978 122.1440014
  73.8979992  62.6769978 122.3420014  74.0322063  63.4730667 122.6658377
  73.2069992  64.8729978 128.4450014  73.0569992  63.9279978 128.4240014
  72.8529992  65.1539978 129.2880014  73.1385527  64.7815605 128.5561859
  58.2419992  66.9509978 132.4550014  58.4269992  66.8689978 131.5190014
  59.0919992  66.8269978 132.8790014  58.3820916  66.9230393 132.3842896
  74.0629992  66.8429978 138.0830014  74.6459992  66.1079978 138.2750014
  74.6269992  67.6149978 138.1300014  74.2189781  66.8468145 138.1156164
  75.5599992  64.7459978 138.7680014  74.6969992  64.3669978 138.6020014
  76.1639992  64.0069978 138.6940014  75.5235944  64.5942978 138.7352984
  73.2849992  60.8999978 121.9410014  73.8959992  60.5289978 122.5780014
  72.4479992  60.4789978 122.1370014  73.2554947  60.7922756 122.0547252
  72.9179992  62.4549978 126.9070014  73.1969992  61.5479978 127.0310014
  73.6769992  62.8889978 126.5180014  73.0588619  62.3894502 126.8713795
  73.5289992  63.0369978 132.3430014  74.4619992  63.2489978 132.3090014
  73.2939992  63.1379978 133.2650014  73.6248308  63.0796503 132.4630214
  73.5589992  63.7739978 135.1190014  72.7159992  64.0419978 135.4850014
  74.0009992  64.5959978 134.9080014  73.5034138  63.9218273 135.1405518
  57.8399992  62.2209978 138.5960014  58.7589992  62.0989978 138.8320014
  57.3899992  61.4709978 138.9850014  57.9051148  62.1028751 138.6809408
  75.8419992  57.7539978 140.4720014  76.1909992  57.0999978 139.8670014
  75.9889992  58.5909978 140.0330014  75.9097355  57.7776067 140.3296564
  73.5309992  59.7179978 126.9550014  73.7129992  59.2689978 127.7810014
  72.9309992  59.1339978 126.4920014  73.4747529  59.5776131 127.0053619
  59.0609992  60.5339978 131.4870014  59.5059992  59.7419978 131.7890014
  59.5269992  61.2499978 131.9180014  59.1849059  60.5224474 131.5866079
  57.3649992  63.5329978 132.5560014  57.8569992  63.3119978 131.7650014
  57.7269992  64.3729978 132.8370014  57.4812923  63.6163468 132.4857407
  75.3609992  59.8629978 138.8220014  74.4439992  60.1339978 138.7860014
  75.4839992  59.3279978 138.0380014  75.2520828  59.8277700 138.7110785
  75.3979992  59.7859978 123.4830014  75.8099992  59.0649978 123.0080014
  76.0789992  60.4549978 123.5420014  75.5465900  59.7777306 123.4259038
  57.6789992  59.7909978 126.6100014  56.7539992  59.9989978 126.4810014
  58.1329992  60.2749978 125.9210014  57.6136374  59.8849949 126.4990957
  72.4489992  74.7749978 128.5560014  73.1019992  74.4269978 127.9480014
  72.9599992  75.2629978 129.2020014  72.6072777  74.7933815 128.5602047
  57.6419992  58.5289978 134.9550014  56.9769992  58.2829978 135.5980014
  57.1989992  59.1509978 134.3770014  57.4910937  58.5793614 134.9649379
  59.8339992  71.7039978 139.0990014  59.0129992  71.8789978 138.6390014
  59.5819992  71.6309978 140.0200014  59.6876173  71.7180794 139.1604972
  62.7879992  72.6779978 135.3580014  62.3639992  73.4879978 135.0750014
  63.6929992  72.7639978 135.0560014  62.8522433  72.8003331 135.2785377
  67.0999992  74.0769978 138.3170014  67.2839992  73.7439978 139.1950014
  67.9459992  74.3869978 137.9950014  67.2396484  74.0732979 138.3937617
  69.4449992  75.3629978 137.5610014  70.1219992  74.7299978 137.3210014
  69.7659992  75.7639978 138.3680014  69.5811323  75.3305691 137.6373158
  74.3619992  57.9529978 136.6410014  73.5489992  58.2779978 136.2530014
  74.5949992  57.1919978 136.1080014  74.2822566  57.8946559 136.5159213
  60.1899992  75.9349978 135.4050014  59.4699992  76.3749978 134.9540014
  59.8249992  75.6839978 136.2540014  60.0419796  75.9613824 135.4579329
  62.6569992  75.5349978 134.4350014  61.7929992  75.6069978 134.8390014
  62.6019992  76.0819978 133.6510014  62.5311942  75.6187849 134.3844000
  67.3679992  75.4229978 133.6100014  66.9109992  75.9519978 132.9560014
  67.5309992  76.0259978 134.3360014  67.3274476  75.5769140 133.6185499
  69.6959992  74.3009978 134.5550014  68.7909992  74.4659978 134.2900014
  70.1239992  75.1539978 134.4900014  69.6300700  74.4389529 134.5099520
  72.2999992  75.8709978 134.8500014  72.1179992  76.7869978 134.6400014
  72.4769992  75.4599978 134.0040014  72.2989907  75.9409741 134.7067883
  59.6049992  74.5579978 132.3150014  59.5869992  74.1319978 133.1730014
  60.4099992  74.2389978 131.9070014  59.7113221  74.4567233 132.3770225
  61.7459992  73.2679978 130.9700014  61.5269992  72.3509978 131.1400014
  62.5699992  73.4079978 131.4360014  61.8274702  73.1615511 131.0562527
  64.2829992  73.7379978 131.8190014  64.4959992  72.8499978 131.5320014
  64.3479992  73.7029978 132.7740014  64.3209075  73.6118307 131.9087373
  67.7919992  59.4019978 130.9630014  67.1179992  58.7719978 131.2190014
  68.3559992  58.9179978 130.3600014  67.7760384  59.2503708 130.9165020
  72.9349992  57.5089978 131.0760014  73.5379992  58.0569978 130.5740014
  72.0649992  57.8279978 130.8360014  72.8999190  57.6271041 130.9748679
  74.6619992  58.6479978 129.4090014  75.2729992  58.1339978 128.8830014
  75.0439992  59.5249978 129.4330014  74.7974475  58.6961323 129.3401208
  60.1189992  58.0359978 128.7850014  59.3419992  57.8009978 128.2780014
  60.6489992  57.2389978 128.7940014  60.0843451  57.8961268 128.7168627
  58.9549992  57.8339978 124.5890014  59.3939992  58.4449978 123.9970014
  58.3209992  58.3719978 125.0630014  58.9293859  57.9904064 124.5720305
  64.6979992  57.9619978 128.5990014  65.5719992  58.3509978 128.5690014
  64.5619992  57.7469978 129.5210014  64.7993207  57.9861923 128.7196509
  70.2549992  57.9919978 130.2480014  70.3309992  58.0879978 129.2990014
  69.9799992  57.0849978 130.3770014  70.2282042  57.8824241 130.1353811
  71.6079992  58.0179978 125.9400014  70.9049992  58.6329978 125.7310014
  71.1629992  57.1809978 126.0720014  71.4516292  57.9890085 125.9292439
  58.8559992  73.7819978 125.4870014  58.1709992  73.7439978 124.8190014
  58.8599992  74.6949978 125.7750014  58.7628174  73.9001998 125.4345310
  60.8159992  59.7499978 123.0310014  61.3069992  59.1199978 122.5040014
  61.4389992  60.0459978 123.6950014  60.9675062  59.7036770 123.0485438
  65.8419992  60.0429978 125.4890014  66.0199992  59.3959978 126.1710014
  65.7879992  60.8769978 125.9560014  65.8591025  60.0670504 125.6456433
  67.7199992  74.9909978 123.8840014  68.5859992  75.3579978 123.7060014
  67.4739992  74.5519978 123.0700014  67.8052097  74.9818525 123.7496019
  74.4289992  74.5539978 126.5630014  74.2349992  73.8059978 125.9980014
  74.3899992  75.3119978 125.9800014  74.3971645  74.5540786 126.4068148
  60.0759992  58.5499978 138.3030014  59.7099992  57.7839978 138.7460014
  60.9889992  58.5789978 138.5900014  60.1493225  58.4491906 138.4023459
  62.0489992  57.8999978 139.8390014  62.9479992  57.6259978 139.6540014
  61.6629992  57.1579978 140.3030014  62.1197237  57.7621508 139.8764710
  60.6739992  74.7019978 122.5120014  60.4059992  74.9879978 123.3850014
  61.4449992  74.1559978 122.6640014  60.7415600  74.6673330 122.6521499
  70.4709992  57.2329978 140.0210014  70.5469992  56.8069978 140.8750014
  71.3639992  57.2459978 139.6780014  70.6022267  57.1763952 140.0915932
  73.6469992  73.3059978 138.7130014  72.8649992  73.1189978 138.1940014
  73.5749992  74.2349978 138.9310014  73.5300863  73.4060221 138.6713574
  88.0529992  67.1919978 128.7440014  88.1419992  68.1359978 128.6120014
  87.4149992  66.9169978 128.0860014  87.9789061  67.2839812 128.6369641
  86.9859992  66.4469978 132.1630014  86.9479992  65.8009978 132.8680014
  86.6639992  65.9799978 131.3920014  86.9372679  66.2954276 132.1552921
  79.3539992  66.0609978 133.7560014  79.3959992  65.4359978 134.4790014
  80.0569992  66.6849978 133.9380014  79.4547345  66.0597873 133.8795274
  90.6919992  69.3859978 130.4650014  90.2509992  68.6659978 130.9150014
  90.6789992  70.1069978 131.0940014  90.6297960  69.3848329 130.6117567
  80.2779992  70.5109978 132.2910014  79.9079992  69.7089978 131.9210014
  81.2189992  70.3429978 132.3370014  80.3545984  70.3784638 132.2465603
  76.8879992  64.1709978 127.6840014  76.4399992  65.0169978 127.6650014
  76.3269992  63.5919978 127.1680014  76.7509603  64.2083674 127.6116720
  77.5979992  66.3329978 129.8100014  77.8119992  65.5629978 130.3370014
  78.3359992  66.4229978 129.2060014  77.7269652  66.2398012 129.8005212
  87.8039992  74.4899978 130.6770014  88.4229992  73.8139978 130.4030014
  87.5949992  74.2719978 131.5850014  87.8606232  74.3677938 130.7622517
  85.3749992  68.8789978 132.5690014  85.6789992  68.1929978 131.9750014
  86.0969992  68.9979978 133.1870014  85.5141152  68.8012189 132.5712123
  94.0379992  60.4809978 133.4300014  94.0879992  61.0909978 134.1660014
  94.4639992  60.9419978 132.7070014  94.1024108  60.6267709 133.4330112
  88.5159992  63.2729978 132.8970014  88.6589992  62.3269978 132.9170014
  88.4099992  63.4799978 131.9680014  88.5212509  63.1714813 132.7742231
  81.6709992  61.3749978 130.1690014  81.7139992  62.2349978 129.7510014
  81.2129992  60.8229978 129.5350014  81.6149815  61.4180621 130.0261197
  89.3929992  61.5059978 128.5700014  90.0399992  61.1769978 129.1950014
  89.9029992  62.0229978 127.9470014  89.5504317  61.5309227 128.5712167
  78.2909992  63.7719978 130.9310014  78.9449992  63.2219978 131.3630014
  78.3149992  63.4979978 130.0140014  78.3837199  63.6597167 130.8661668
  83.4479992  65.3219978 130.1460014  84.0639992  64.7949978 130.6560014
  82.8609992  64.6819978 129.7430014  83.4529239  65.1634117 130.1612952
  94.4299992  61.9589978 135.6660014  93.7409992  62.6169978 135.5700014
  94.4449992  61.7609978 136.6020014  94.3376740  62.0223243 135.7794630
  80.4809992  60.2929978 134.2430014  80.2619992  60.8229978 133.4770014
  79.8129992  60.5189978 134.8900014  80.3607001  60.3961154 134.2256064
  87.8499992  69.7929978 127.7870014  87.5549992  69.4699978 126.9360014
  87.5259992  70.6929978 127.8280014  87.7657983  69.8704026 127.6759771
  83.0499992  67.9679978 134.5310014  82.3099992  68.5669978 134.6340014
  83.7639992  68.5219978 134.2150014  83.0453288  68.1247356 134.5023805
  91.1569992  60.7969978 130.5500014  90.9419992  60.0309978 131.0830014
  91.8129992  61.2689978 131.0630014  91.2162673  60.7560728 130.6921990
  80.0749992  62.1849978 132.1950014  80.6889992  62.8179978 132.5690014
  80.5869992  61.7129978 131.5390014  80.2282277  62.2077352 132.1574279
  81.4579992  69.9329978 135.3180014  81.4519992  70.8119978 134.9400014
  80.6039992  69.8489978 135.7430014  81.3417925  70.0419535 135.3236887
  77.5789992  69.6039978 126.1000014  77.3069992  69.8329978 125.2110014
  77.6239992  70.4409978 126.5600014  77.5478709  69.7486058 126.0406107
  91.2039992  71.2249978 132.8120014  90.2619992  71.2839978 132.9740014
  91.4799992  72.1309978 132.6750014  91.1125865  71.3555288 132.8156192
  91.5039992  59.5119978 134.2300014  90.7679992  60.1219978 134.1920014
  92.1879992  59.9269978 133.7030014  91.4955506  59.6516400 134.1536051
  84.5079992  57.5979978 131.6960014  84.3899992  56.6499978 131.6410014
  83.6529992  57.9309978 131.9690014  84.3762679  57.5131926 131.7253720
  89.4559992  73.0059978 129.4380014  89.8809992  72.2989978 128.9530014
  89.7729992  73.8079978 129.0210014  89.5570266  73.0175190 129.3152479
  90.6159992  70.9069978 127.9460014  90.3579992  70.2169978 127.3350014
  90.6869992  70.4639978 128.7920014  90.5902837  70.7527106 127.9766912
  92.3019992  69.4739978 136.4240014  92.4409992  68.8819978 135.6840014
  92.4689992  70.3469978 136.0670014  92.3435562  69.5109896 136.2746283
  86.7739992  66.4359978 126.1960014  86.0629992  66.9709978 125.8440014
  87.4649992  66.4909978 125.5360014  86.7700751  66.5166777 126.0585858
  86.8279992  64.8929978 123.2350014  87.5289992  64.9159978 123.8860014
  87.1299992  64.2649978 122.5790014  86.9648282  64.8112339 123.2354496
  94.1429992  65.8139978 134.4900014  93.4909992  66.5079978 134.5790014
  94.6089992  66.0239978 133.6800014  94.1165937  65.9375019 134.3927533
  90.1799992  66.6449978 127.1480014  89.4479992  66.8739978 127.7210014
  90.6269992  65.9319978 127.6030014  90.1402753  66.5798972 127.2879715
  90.0769992  64.8199978 136.2160014  90.1569992  65.5829978 136.7870014
  89.4759992  65.0989978 135.5250014  90.0067245  64.9622630 136.2008424
  81.8249992  67.2759978 129.0300014  81.4949992  66.9049978 128.2120014
  82.4139992  66.6049978 129.3770014  81.8593970  67.1346063 128.9649404
  83.1919992  70.7039978 131.7120014  83.0969992  70.1249978 130.9550014
  83.9209992  70.3329978 132.2080014  83.2776161  70.5745891 131.6755209
  82.1919992  66.0439978 132.6640014  82.7569992  66.1659978 131.9010014
  82.5109992  66.6819978 133.3030014  82.3123977  66.1468851 132.6459424
  88.5009992  71.5479978 133.3980014  88.2609992  72.2099978 134.0460014
  88.3029992  70.7129978 133.8230014  88.4413826  71.5258115 133.5441566
  83.0719992  70.4439978 137.3810014  82.7609992  71.2259978 137.8360014
  82.4219992  70.2909978 136.6950014  82.9415538  70.5304087 137.3505898
  89.0509992  65.8079978 124.8330014  89.6299992  65.9579978 125.5800014
  89.4649992  66.2779978 124.1100014  89.1863122  65.8921277 124.8375042
  79.9919992  66.6419978 136.6100014  80.0619992  67.2929978 137.3080014
  79.1009992  66.7449978 136.2750014  79.8811802  66.7449757 136.6602249
  86.7769992  72.5439978 128.2680014  87.2509992  72.8399978 129.0460014
  86.2139992  73.2829978 128.0350014  86.7657361  72.6842721 128.3428611
  81.3109992  72.5149978 138.1440014  81.3189992  72.3789978 137.1970014
  80.3949992  72.3979978 138.3960014  81.1882528  72.4805463 138.0483243
  92.7499992  57.5579978 124.6460014  91.8499992  57.6969978 124.9410014
  93.0019992  58.3889978 124.2440014  92.6608683  57.6894055 124.6320232
  80.8159992  66.3449978 126.6200014  80.5239992  67.1129978 126.1290014
  80.1409992  65.6859978 126.4570014  80.6848497  66.3609745 126.5308260
  93.9389992  71.9239978 123.0220014  94.0119992  72.8629978 123.1930014
  94.8439992  71.6189978 122.9660014  94.0714158  72.0113061 123.0378392
  76.9089992  68.7079978 135.4350014  76.4069992  68.6799978 134.6200014
  76.9139992  67.8029978 135.7440014  76.8410416  68.5817368 135.3653766
  76.6589992  71.4889978 132.3190014  77.6049992  71.3439978 132.3000014
  76.5459992  72.2729978 132.8560014  76.7733578  71.5751697 132.3890317
  94.8569992  72.1549978 138.0010014  94.8069992  71.1989978 137.9640014
  94.0299992  72.4219978 138.4020014  94.7383987  72.0605174 138.0501446
  85.8349992  71.7289978 136.8770014  85.9229992  72.5549978 137.3520014
  84.9719992  71.3989978 137.1260014  85.7303357  71.7975468 136.9757653
  86.2499992  75.5009978 126.6830014  86.1739992  75.3799978 125.7370014
  86.2819992  76.4499978 126.8020014  86.2439156  75.6127530 126.5695048
  79.9029992  74.2899978 128.4640014  80.0549992  73.9419978 129.3430014
  79.0519992  73.9329978 128.2090014  79.8087899  74.1941738 128.5497340
  89.3509992  74.6549978 123.6850014  89.7259992  73.9109978 123.2150014
  89.3559992  74.3849978 124.6040014  89.4030024  74.5166950 123.7447987
  89.0199992  74.5809978 126.4350014  88.0849992  74.6809978 126.6130014
  89.2999992  73.8709978 127.0130014  88.9298173  74.4987239 126.5374998
  92.0089992  63.6479978 138.4810014  91.6009992  64.1279978 137.7610014
  92.0489992  62.7419978 138.1730014  91.9585476  63.5913160 138.3408247
  79.1579992  70.0319978 136.4780014  79.3739992  69.6699978 137.3370014
  78.3019992  69.6569978 136.2680014  79.0719354  69.9317906 136.5672160
  81.7759992  58.5019978 132.4730014  80.9149992  58.4149978 132.0660014
  81.7539992  59.3579978 132.9010014  81.6550411  58.6057884 132.4750857
  86.4389992  58.2239978 135.8480014  86.8589992  57.8089978 136.6010014
  85.5059992  58.0449978 135.9650014  86.3703736  58.1429910 135.9668968
  89.7659992  61.9789978 136.7010014  89.2519992  61.8539978 137.4990014
  89.6099992  62.8919978 136.4570014  89.6746967  62.0852123 136.7770937
  90.5279992  66.8399978 122.4630014  90.5699992  66.6179978 121.5330014
  91.3769992  67.2389978 122.6530014  90.6485253  66.8635498 122.3613822
  86.1009992  60.7159978 123.1330014  85.8469992  60.7349978 124.0560014
  85.8439992  59.8449978 122.8320014  86.0315133  60.6008110 123.2185082
  81.8669992  63.4669978 133.5680014  81.2259992  63.4269978 134.2770014
  81.9049992  64.3939978 133.3310014  81.7843670  63.5867795 133.6330550
  81.8639992  63.6879978 128.4800014  80.9719992  63.3479978 128.4220014
  82.3149992  63.3109978 127.7250014  81.8026815  63.5903762 128.3699203
  87.3999992  64.1039978 127.2970014  86.9909992  64.9189978 127.0060014
  88.1199992  63.9639978 126.6830014  87.4414013  64.1966571 127.1740875
  86.5019992  64.2799978 138.7850014  85.9389992  63.5749978 139.1060014
  87.3279992  64.1589978 139.2530014  86.5366674  64.1672165 138.8921751
  88.4049992  63.5499978 130.1110014  88.2089992  64.1559978 129.3960014
  88.5859992  62.7169978 129.6770014  88.4026584  63.5202513 129.9544212
  79.6169992  63.7879978 135.4350014  79.5789992  64.1879978 136.3040014
  79.1269992  62.9709978 135.5260014  79.5455621  63.7322510 135.5661377
  82.9829992  61.1619978 122.2340014  82.5519992  60.7169978 122.9640014
  82.2649992  61.5329978 121.7220014  82.8269363  61.1512968 122.2646211
  76.2259992  60.9039978 129.2860014  76.8559992  60.8749978 130.0050014
  76.6749992  60.4789978 128.5560014  76.3730692  60.8425316 129.2857771
  77.4999992  61.6499978 124.7100014  77.9739992  62.2409978 124.1250014
  76.7819992  62.1799978 125.0570014  77.4678640  61.8025511 124.6767969
  87.6689992  65.1879978 134.7830014  87.9919992  64.5569978 134.1400014
  87.2279992  64.6539978 135.4430014  87.6535789  65.0293522 134.7842232
  84.4459992  61.1159978 129.5670014  83.5349992  61.1729978 129.8550014
  84.9509992  61.0559978 130.3770014  84.3895387  61.1156870 129.7160646
  79.2739992  62.7449978 128.3930014  78.3849992  62.8439978 128.0530014
  79.5709992  61.9029978 128.0470014  79.1924177  62.6447687 128.2996940
  82.9269992  62.7449978 126.0500014  83.8589992  62.8739978 126.2280014
  82.7119992  63.4139978 125.4000014  83.0254472  62.8530806 125.9864891
  88.8509992  60.3509978 132.8310014  88.1739992  60.4819978 133.4950014
  88.3659992  60.1959978 132.0210014  88.6927265  60.3479659 132.8123397
  81.6009992  63.9389978 123.6170014  81.0589992  63.5599978 122.9250014
  82.4349992  64.1339978 123.1880014  81.6395159  63.9135076 123.4644419
  92.1389992  76.0219978 139.1080014  92.3379992  76.4459978 138.2730014
  92.7939992  76.3659978 139.7150014  92.2548501  76.1266091 139.0757097
  79.7369992  68.4959978 138.7160014  80.4689992  68.7509978 139.2770014
  78.9559992  68.7009978 139.2310014  79.7317684  68.5586468 138.8624782
  85.7659992  63.9029978 131.4540014  86.3299992  63.3569978 130.9070014
  85.6179992  63.3819978 132.2420014  85.8232575  63.7576552 131.4856987
  80.7679992  60.0399978 127.8720014  80.4509992  59.1369978 127.8370014
  81.5489992  60.0419978 127.3190014  80.8302307  59.9166951 127.7924314
  84.3919992  62.2919978 133.8680014  83.5569992  62.7459978 133.9780014
  84.9159992  62.5679978 134.6200014  84.3485070  62.3914666 133.9847152
  84.9369992  68.5049978 125.5520014  84.1919992  67.9969978 125.2300014
  84.8019992  68.5539978 126.4990014  84.8169047  68.4421596 125.6358845
  92.0869992  67.6379978 134.3390014  92.7279992  68.0939978 133.7950014
  91.2559992  67.7509978 133.8770014  92.0625171  67.7157502 134.2020237
  88.8339992  61.3189978 123.7520014  87.8959992  61.4299978 123.6000014
  89.1319992  62.1749978 124.0580014  88.7456402  61.4500621 123.7725571
  86.4559992  68.6889978 136.7890014  86.1099992  68.3069978 137.5960014
  86.2559992  69.6219978 136.8610014  86.3816523  68.7629095 136.9090735
  89.5529992  63.1859978 125.4120014  90.4449992  63.0479978 125.7310014
  89.6089992  63.9769978 124.8760014  89.6827107  63.2740526 125.3832091
  80.0609992  67.7999978 131.3220014  80.8059992  67.7969978 130.7210014
  80.1389992  66.9759978 131.8040014  80.1734158  67.6882916 131.3049153
  87.0619992  69.9629978 124.5780014  86.7669992  70.7899978 124.9590014
  86.3589992  69.3439978 124.7740014  86.9265471  69.9925227 124.6566698
  77.0689992  66.2599978 136.6370014  77.2919992  65.8419978 137.4690014
  76.4669992  65.6479978 136.2140014  77.0181260  66.1199933 136.6937320
  84.0859992  65.7769978 138.8500014  83.7899992  65.6119978 137.9550014
  85.0169992  65.5569978 138.8390014  84.1713982  65.7246578 138.7260045
  88.7059992  71.1509978 136.7400014  87.8059992  71.3339978 136.4720014
  88.7399992  71.4099978 137.6610014  88.5872909  71.2110815 136.8277852
  94.4379992  63.3949978 125.1070014  93.8829992  62.9989978 124.4350014
  94.5379992  64.3059978 124.8290014  94.3755888  63.4638990 124.9775206
  94.4009992  69.1959978 137.9440014  93.5499992  69.4339978 137.5770014
  94.9909992  69.1789978 137.1910014  94.3642408  69.2262966 137.7918879
  92.7329992  72.1809978 125.5720014  92.3599992  71.3559978 125.8810014
  93.0099992  71.9979978 124.6750014  92.7193871  72.0432441 125.4929677
  89.8929992  66.9889978 132.5930014  88.9649992  66.7579978 132.5660014
  90.3439992  66.2119978 132.2630014  89.8268165  66.8522774 132.5446790
  82.4359992  71.3179978 128.7260014  82.9639992  72.0909978 128.5260014
  81.5559992  71.5419978 128.4250014  82.3893176  71.4543161 128.6578409
  78.1909992  66.1799978 123.3140014  78.8069992  66.8069978 123.6930014
  77.3289992  66.4959978 123.5850014  78.1588195  66.3085798 123.4025386
  83.8639992  68.9809978 128.3030014  83.6229992  69.9059978 128.3440014
  83.1229992  68.5219978 128.6990014  83.7308390  69.0456403 128.3621404
  84.3779992  73.1299978 134.6180014  84.7409992  73.9839978 134.3840014
  84.9099992  72.8379978 135.3580014  84.4996090  73.2074058 134.6860219
  82.5469992  74.0019978 127.8480014  81.5969992  74.1079978 127.8990014
  82.8989992  74.8229978 128.1930014  82.4645480  74.1274438 127.9015999
  87.9219992  69.2289978 134.3180014  87.4969992  69.0009978 135.1450014
  88.5029992  68.4899978 134.1360014  87.9423930  69.0979843 134.4064732
  90.1249992  70.1579978 123.3920014  90.4789992  69.7779978 124.1970014
  89.1769992  70.0639978 123.4790014  90.0451820  70.0933092 123.5138714
  90.5809992  73.7809978 136.7880014  89.9789992  73.2249978 136.2920014
  90.8619992  74.4479978 136.1620014  90.5366829  73.7951613 136.6355443
  94.6289992  74.6369978 123.5930014  95.3729992  75.2229978 123.4530014
  93.9349992  75.2059978 123.9270014  94.6370201  74.7940603 123.6189772
  78.7029992  61.0139978 136.1950014  77.8109992  61.3519978 136.1280014
  78.6049992  60.1579978 136.6130014  78.5674965  60.9446499 136.2423044
  90.9909992  68.8299978 125.6190014  90.7139992  68.1019978 126.1750014
  91.9189992  68.9489978 125.8240014  91.0784499  68.7464213 125.7228044
  78.3549992  72.8179978 134.6300014  78.5719992  71.8859978 134.5990014
  78.6009992  73.0929978 135.5130014  78.4179809  72.7275686 134.7451691
  84.2159992  71.2699978 121.8390014  84.4549992  70.5209978 121.2920014
  83.9469992  70.8819978 122.6720014  84.2123233  71.1151853 121.8767809
  83.1529992  70.8399978 124.2960014  83.2999992  70.3199978 125.0860014
  83.1499992  71.7469978 124.6020014  83.1727300  70.8913964 124.4455895
  79.6059992  68.0919978 124.8060014  78.9199992  68.4449978 125.3730014
  80.1289992  68.8549978 124.5600014  79.5829033  68.2433746 124.8502661
  87.4379992  60.7549978 135.0850014  88.1369992  60.8289978 135.7350014
  87.0569992  59.8899978 135.2390014  87.4822097  60.6482389 135.1947997
  88.2219992  60.4069978 126.1820014  88.4419992  60.8779978 125.3790014
  88.7809992  60.8009978 126.8520014  88.3276730  60.5247432 126.1625906
  85.8909992  72.5369978 125.0450014  85.0739992  73.0339978 125.0970014
  86.4199992  73.0129978 124.4050014  85.8508508  72.6692543 124.9656035
  85.4219992  62.1349978 127.0170014  86.2339992  62.6389978 127.0630014
  85.1779992  61.9899978 127.9310014  85.5001467  62.1843749 127.1468575
  85.9579992  63.1209978 136.2020014  86.0769992  63.6949978 136.9590014
  86.6129992  62.4329978 136.3160014  86.0629146  63.1065574 136.3211313
  86.3059992  59.2159978 127.9550014  85.9589992  59.8329978 128.6000014
  86.9649992  59.7169978 127.4740014  86.3475949  59.3681099 127.9782271
  83.2289992  73.5809978 125.0270014  83.3899992  74.3809978 124.5260014
  83.0319992  73.8879978 125.9120014  83.2243919  73.7319129 125.0781006
  81.9639992  60.2789978 124.6420014  81.8799992  61.1669978 124.9890014
  82.8539992  60.0139978 124.8740014  82.0728163  60.3647179 124.7208596
  92.1619992  61.0279978 137.0370014  91.2459992  61.2899978 136.9490014
  92.4979992  61.0249978 136.1400014  92.0819789  61.0634626 136.9037847
  90.7649992  64.7779978 131.1320014  89.9669992  64.3629978 130.8040014
  91.2099992  64.0879978 131.6230014  90.7159684  64.6278628 131.1535227
  80.2219992  70.7059978 123.7030014  80.8139992  71.4059978 123.9790014
  80.6809992  70.2729978 122.9830014  80.3650791  70.7432908 123.6434607
  78.5379992  63.3709978 122.8190014  78.4929992  64.3099978 122.9970014
  77.6499992  63.1349978 122.5490014  78.4118555  63.4676874 122.8068939
  91.8509992  74.0339978 132.7550014  91.6949992  74.7129978 132.0980014
  92.7839992  74.1059978 132.9580014  91.9557387  74.1366390 132.6925342
  79.3459992  58.1519978 131.4920014  79.1169992  58.2109978 130.5640014
  78.9039992  57.3609978 131.7980014  79.2548801  58.0530540 131.4064729
  78.2769992  72.0929978 127.6520014  77.4439992  72.5649978 127.6800014
  78.8219992  72.6029978 127.0540014  78.2367590  72.2265897 127.5749194
  77.5649992  74.7049978 138.9820014  78.1049992  74.4889978 139.7420014
  77.0839992  73.8999978 138.7930014  77.5738613  74.5665400 139.0604782
  82.1619992  73.6249978 140.6030014  82.9299992  73.1659978 140.9440014
  82.1409992  73.3989978 139.6730014  82.2642135  73.5316668 140.5239491
  86.2539992  73.1329978 121.9780014  85.6099992  72.5019978 122.2990014
  87.0159992  72.6019978 121.7460014  86.2688058  72.9747902 121.9906038
  88.7389992  72.0049978 139.3320014  88.3879992  71.1479978 139.5750014
  89.4649992  72.1469978 139.9390014  88.7891590  71.9070178 139.4472907
  90.8589992  72.9499978 122.2120014  91.1419992  72.1549978 122.6640014
  91.5979992  73.1829978 121.6510014  90.9976956  72.8727031 122.1979822
  77.4719992  68.5159978 139.9370014  77.6159992  67.6139978 139.6500014
  76.6999992  68.8019978 139.4490014  77.3873303  68.4313243 139.8317908
  81.8129992  68.8589978 122.0690014  81.8779992  68.0649978 122.6000014
  82.4659992  68.7409978 121.3790014  81.9101754  68.7343337 122.0484259
  84.1269992  68.4849978 139.3690014  83.7989992  68.7559978 138.5120014
  84.2789992  67.5439978 139.2820014  84.1026030  68.3948973 139.2397945
  87.1659992  69.9059978 121.8050014  86.8969992  70.0869978 122.7060014
  86.9589992  68.9809978 121.6740014  87.1012000  69.8056774 121.9105693
  89.8619992  68.4009978 136.7530014  90.6069992  68.9899978 136.6330014
  89.1049992  68.9829978 136.8160014  89.8615205  68.5601997 136.7451119
  78.3049992  65.7159978 139.3570014  78.7129992  64.8589978 139.2360014
  78.0439992  65.7299978 140.2780014  78.3256016  65.6005119 139.4649192
  82.9629992  66.8319978 124.3750014  82.5029992  66.3479978 125.0610014
  83.2179992  66.1629978 123.7390014  82.9345038  66.6753689 124.3829447
  82.2519992  64.7249978 136.7310014  81.6329992  65.3989978 137.0110014
  82.5959992  65.0459978 135.8980014  82.2137605  64.8607198 136.6566707
  84.0339992  65.0749978 122.6370014  83.8529992  64.9199978 121.7100014
  84.9839992  65.1829978 122.6820014  84.1376566  65.0683669 122.5160929
  87.2709992  67.1959978 140.0080014  88.2249992  67.2799978 139.9810014
  87.1109992  66.4839978 140.6280014  87.3797182  67.1112842 140.0880733
  93.4239992  67.4289978 122.0830014  93.1499992  67.0049978 121.2700014
  93.4629992  68.3609978 121.8660014  93.3917716  67.4968827 121.9424286
  82.5909992  62.0799978 137.8130014  82.7409992  61.3509978 137.2110014
  82.5929992  62.8569978 137.2540014  82.6117967  62.0852708 137.6550541
  83.0039992  60.4489978 135.3060014  83.5389992  60.9009978 134.6540014
  82.1509992  60.3409978 134.8830014  82.9620374  60.4962665 135.1596710
  84.5849992  65.8889978 135.5450014  85.3359992  65.7329978 134.9720014
  84.2459992  66.7409978 135.2700014  84.6419587  65.9828138 135.4294078
  89.0009992  63.7039978 140.5740014  89.1929992  62.7729978 140.4620014
  89.8589992  64.1289978 140.5640014  89.1432269  63.6339928 140.5573192
  90.3179992  66.4929978 138.6510014  90.0359992  67.2019978 138.0740014
  91.2599992  66.4199978 138.5000014  90.4067656  66.5803128 138.5514809
  81.0699992  63.2779978 139.7250014  80.3019992  62.7449978 139.5150014
  81.7479992  62.9679978 139.1250014  81.0566973  63.1632375 139.6151796
  83.8089992  57.9059978 135.7370014  83.7109992  58.8519978 135.6320014
  83.0669992  57.5329978 135.2620014  83.6951913  57.9851813 135.6583539
  85.0729992  62.2269978 139.3010014  84.8379992  62.0079978 140.2030014
  84.2899992  62.0199978 138.7910014  84.9349219  62.1690066 139.3555852
  87.7889992  61.3549978 138.3770014  86.8409992  61.3869978 138.5090014
  88.1009992  60.7289978 139.0300014  87.7015190  61.2747262 138.4833563
  89.4229992  59.9889978 140.3820014  89.3259992  59.0369978 140.3760014
  89.1009992  60.2569978 141.2420014  89.3661761  59.8949744 140.4974936
  79.2499992  61.1979978 139.4290014  79.4619992  60.4919978 138.8190014
  79.1389992  60.7609978 140.2730014  79.2640269  61.0421921 139.4595873
  84.0309992  57.1999978 138.4090014  84.7429992  56.5599978 138.3950014
  83.9299992  57.4659978 137.4950014  84.1147261  57.1484190 138.2835537
  84.3849992  58.8819978 140.4620014  84.2529992  58.4069978 139.6420014
  83.7849992  59.6269978 140.4070014  84.2859070  58.9175789 140.3423251
  83.9309992  75.7649978 123.6390014  84.8639992  75.9229978 123.7820014
  83.6669992  76.4409978 123.0140014  84.0229308  75.8779104 123.5741396
  77.4989992  70.4019978 123.1210014  78.4129992  70.4809978 123.3950014
  77.5069992  69.7149978 122.4550014  77.6251143  70.3199085 123.0684274
  76.1479992  75.7949978 128.1990014  75.5009992  75.3329978 127.6660014
  76.5029992  75.1229978 128.7810014  76.1074506  75.6409503 128.2047341
  77.0179992  73.8749978 130.0030014  76.6839992  72.9949978 130.1750014
  77.2409992  74.2209978 130.8680014  77.0023721  73.8011938 130.1434168
  94.5669992  74.6849978 132.9840014  94.5449992  74.8699978 133.9230014
  95.2569992  75.2529978 132.6430014  94.6573439  74.7871887 133.0664791
  94.1299992  74.2519978 135.9060014  93.6429992  73.5169978 135.5350014
  94.6789992  73.8579978 136.5840014  94.1375247  74.0981057 135.9468461
  92.5809992  70.0419978 140.5440014  91.7149992  69.9369978 140.9380014
  92.9569992  70.7999978 140.9900014  92.5133401  70.1301708 140.6582620
  93.8819992  68.2979978 126.0580014  94.7319992  68.7189978 126.1850014
  93.8869992  67.5579978 126.6650014  93.9991143  68.2556094 126.1574750
  94.2759992  66.3519978 127.8820014  93.5499992  65.8719978 128.2790014
  94.8579992  66.5569978 128.6140014  94.2551635  66.3139166 128.0353748
  94.0349992  69.1369978 132.8290014  94.8689992  68.7589978 132.5490014
  94.1469992  70.0799978 132.7100014  94.1642522  69.2127742 132.7746020
  92.5219992  72.0149978 135.1360014  91.8739992  72.3399978 135.7620014
  92.0039992  71.5739978 134.4620014  92.3634168  71.9998523 135.1305307
  94.5449992  66.2529978 124.2730014  94.0229992  66.6089978 123.5540014
  94.5119992  66.9279978 124.9510014  94.4690699  66.3929848 124.2662129
  92.8939992  63.4919978 122.8240014  92.9899992  64.1589978 122.1440014
  92.7539992  62.6769978 122.3420014  92.8882063  63.4730667 122.6658377
  92.0629992  64.8729978 128.4450014  91.9129992  63.9279978 128.4240014
  91.7089992  65.1539978 129.2880014  91.9945527  64.7815605 128.5561859
  77.0979992  66.9509978 132.4550014  77.2829992  66.8689978 131.5190014
  77.9479992  66.8269978 132.8790014  77.2380916  66.9230393 132.3842896
  92.9189992  66.8429978 138.0830014  93.5019992  66.1079978 138.2750014
  93.4829992  67.6149978 138.1300014  93.0749781  66.8468145 138.1156164
  94.4159992  64.7459978 138.7680014  93.5529992  64.3669978 138.6020014
  95.0199992  64.0069978 138.6940014  94.3795944  64.5942978 138.7352984
  92.1409992  60.8999978 121.9410014  92.7519992  60.5289978 122.5780014
  91.3039992  60.4789978 122.1370014  92.1114947  60.7922756 122.0547252
  91.7739992  62.4549978 126.9070014  92.0529992  61.5479978 127.0310014
  92.5329992  62.8889978 126.5180014  91.9148619  62.3894502 126.8713795
  92.3849992  63.0369978 132.3430014  93.3179992  63.2489978 132.3090014
  92.1499992  63.1379978 133.2650014  92.4808308  63.0796503 132.4630214
  92.4149992  63.7739978 135.1190014  91.5719992  64.0419978 135.4850014
  92.8569992  64.5959978 134.9080014  92.3594138  63.9218273 135.1405518
  76.6959992  62.2209978 138.5960014  77.6149992  62.0989978 138.8320014
  76.2459992  61.4709978 138.9850014  76.7611148  62.1028751 138.6809408
  94.6979992  57.7539978 140.4720014  95.0469992  57.0999978 139.8670014
  94.8449992  58.5909978 140.0330014  94.7657355  57.7776067 140.3296564
  92.3869992  59.7179978 126.9550014  92.5689992  59.2689978 127.7810014
  91.7869992  59.1339978 126.4920014  92.3307529  59.5776131 127.0053619
  77.9169992  60.5339978 131.4870014  78.3619992  59.7419978 131.7890014
  78.3829992  61.2499978 131.9180014  78.0409059  60.5224474 131.5866079
  76.2209992  63.5329978 132.5560014  76.7129992  63.3119978 131.7650014
  76.5829992  64.3729978 132.8370014  76.3372923  63.6163468 132.4857407
  94.2169992  59.8629978 138.8220014  93.2999992  60.1339978 138.7860014
  94.3399992  59.3279978 138.0380014  94.1080828  59.8277700 138.7110785
  94.2539992  59.7859978 123.4830014  94.6659992  59.0649978 123.0080014
  94.9349992  60.4549978 123.5420014  94.4025900  59.7777306 123.4259038
  76.5349992  59.7909978 126.6100014  75.6099992  59.9989978 126.4810014
  76.9889992  60.2749978 125.9210014  76.4696374  59.8849949 126.4990957
  91.3049992  74.7749978 128.5560014  91.9579992  74.4269978 127.9480014
  91.8159992  75.2629978 129.2020014  91.4632777  74.7933815 128.5602047
  76.4979992  58.5289978 134.9550014  75.8329992  58.2829978 135.5980014
  76.0549992  59.1509978 134.3770014  76.3470937  58.5793614 134.9649379
  78.6899992  71.7039978 139.0990014  77.8689992  71.8789978 138.6390014
  78.4379992  71.6309978 140.0200014  78.5436173  71.7180794 139.1604972
  81.6439992  72.6779978 135.3580014  81.2199992  73.4879978 135.0750014
  82.5489992  72.7639978 135.0560014  81.7082433  72.8003331 135.2785377
  85.9559992  74.0769978 138.3170014  86.1399992  73.7439978 139.1950014
  86.8019992  74.3869978 137.9950014  86.0956484  74.0732979 138.3937617
  88.3009992  75.3629978 137.5610014  88.9779992  74.7299978 137.3210014
  88.6219992  75.7639978 138.3680014  88.4371323  75.3305691 137.6373158
  93.2179992  57.9529978 136.6410014  92.4049992  58.2779978 136.2530014
  93.4509992  57.1919978 136.1080014  93.1382566  57.8946559 136.5159213
  79.0459992  75.9349978 135.4050014  78.3259992  76.3749978 134.9540014
  78.6809992  75.6839978 136.2540014  78.8979796  75.9613824 135.4579329
  81.5129992  75.5349978 134.4350014  80.6489992  75.6069978 134.8390014
  81.4579992  76.0819978 133.6510014  81.3871942  75.6187849 134.3844000
  86.2239992  75.4229978 133.6100014  85.7669992  75.9519978 132.9560014
  86.3869992  76.0259978 134.3360014  86.1834476  75.5769140 133.6185499
  88.5519992  74.3009978 134.5550014  87.6469992  74.4659978 134.2900014
  88.9799992  75.1539978 134.4900014  88.4860700  74.4389529 134.5099520
  91.1559992  75.8709978 134.8500014  90.9739992  76.7869978 134.6400014
  91.3329992  75.4599978 134.0040014  91.1549907  75.9409741 134.7067883
  78.4609992  74.5579978 132.3150014  78.4429992  74.1319978 133.1730014
  79.2659992  74.2389978 131.9070014  78.5673221  74.4567233 132.3770225
  80.6019992  73.2679978 130.9700014  80.3829992  72.3509978 131.1400014
  81.4259992  73.4079978 131.4360014  80.6834702  73.1615511 131.0562527
  83.1389992  73.7379978 131.8190014  83.3519992  72.8499978 131.5320014
  83.2039992  73.7029978 132.7740014  83.1769075  73.6118307 131.9087373
  86.6479992  59.4019978 130.9630014  85.9739992  58.7719978 131.2190014
  87.2119992  58.9179978 130.3600014  86.6320384  59.2503708 130.9165020
  91.7909992  57.5089978 131.0760014  92.3939992  58.0569978 130.5740014
  90.9209992  57.8279978 130.8360014  91.7559190  57.6271041 130.9748679
  93.5179992  58.6479978 129.4090014  94.1289992  58.1339978 128.8830014
  93.8999992  59.5249978 129.4330014  93.6534475  58.6961323 129.3401208
  78.9749992  58.0359978 128.7850014  78.1979992  57.8009978 128.2780014
  79.5049992  57.2389978 128.7940014  78.9403451  57.8961268 128.7168627
  77.8109992  57.8339978 124.5890014  78.2499992  58.4449978 123.9970014
  77.1769992  58.3719978 125.0630014  77.7853859  57.9904064 124.5720305
  83.5539992  57.9619978 128.5990014  84.4279992  58.3509978 128.5690014
  83.4179992  57.7469978 129.5210014  83.6553207  57.9861923 128.7196509
  89.1109992  57.9919978 130.2480014  89.1869992  58.0879978 129.2990014
  88.8359992  57.0849978 130.3770014  89.0842042  57.8824241 130.1353811
  90.4639992  58.0179978 125.9400014  89.7609992  58.6329978 125.7310014
  90.0189992  57.1809978 126.0720014  90.3076292  57.9890085 125.9292439
  77.7119992  73.7819978 125.4870014  77.0269992  73.7439978 124.8190014
  77.7159992  74.6949978 125.7750014  77.6188174  73.9001998 125.4345310
  79.6719992  59.7499978 123.0310014  80.1629992  59.1199978 122.5040014
  80.2949992  60.0459978 123.6950014  79.8235062  59.7036770 123.0485438
  84.6979992  60.0429978 125.4890014  84.8759992  59.3959978 126.1710014
  84.6439992  60.8769978 125.9560014  84.7151025  60.0670504 125.6456433
  86.5759992  74.9909978 123.8840014  87.4419992  75.3579978 123.7060014
  86.3299992  74.5519978 123.0700014  86.6612097  74.9818525 123.7496019
  93.2849992  74.5539978 126.5630014  93.0909992  73.8059978 125.9980014
  93.2459992  75.3119978 125.9800014  93.2531645  74.5540786 126.4068148
  78.9319992  58.5499978 138.3030014  78.5659992  57.7839978 138.7460014
  79.8449992  58.5789978 138.5900014  79.0053225  58.4491906 138.4023459
  80.9049992  57.8999978 139.8390014  81.8039992  57.6259978 139.6540014
  80.5189992  57.1579978 140.3030014  80.9757237  57.7621508 139.8764710
  79.5299992  74.7019978 122.5120014  79.2619992  74.9879978 123.3850014
  80.3009992  74.1559978 122.6640014  79.5975600  74.6673330 122.6521499
  89.3269992  57.2329978 140.0210014  89.4029992  56.8069978 140.8750014
  90.2199992  57.2459978 139.6780014  89.4582267  57.1763952 140.0915932
  92.5029992  73.3059978 138.7130014  91.7209992  73.1189978 138.1940014
  92.4309992  74.2349978 138.9310014  92.3860863  73.4060221 138.6713574
 106.9089992  67.1919978 128.7440014 106.9979992  68.1359978 128.6120014
 106.2709992  66.9169978 128.0860014 106.8349062  67.2839812 128.6369641
 105.8419992  66.4469978 132.1630014 105.8039992  65.8009978 132.8680014
 105.5199992  65.9799978 131.3920014 105.7932679  66.2954276 132.1552921
  98.2099992  66.0609978 133.7560014  98.2519992  65.4359978 134.4790014
  98.9129992  66.6849978 133.9380014  98.3107345  66.0597873 133.8795273
 109.5479992  69.3859978 130.4650014 109.1069992  68.6659978 130.9150014
 109.5349992  70.1069978 131.0940014 109.4857960  69.3848329 130.6117567
  99.1339992  70.5109978 132.2910014  98.7639992  69.7089978 131.9210014
 100.0749992  70.3429978 132.3370014  99.2105984  70.3784638 132.2465603
  95.7439992  64.1709978 127.6840014  95.2959992  65.0169978 127.6650014
  95.1829992  63.5919978 127.1680014  95.6069603  64.2083674 127.6116720
  96.4539992  66.3329978 129.8100014  96.6679992  65.5629978 130.3370014
  97.1919992  66.4229978 129.2060014  96.5829652  66.2398012 129.8005212
 106.6599992  74.4899978 130.6770014 107.2789992  73.8139978 130.4030014
 106.4509992  74.2719978 131.5850014 106.7166232  74.3677938 130.7622517
 104.2309992  68.8789978 132.5690014 104.5349992  68.1929978 131.9750014
 104.9529992  68.9979978 133.1870014 104.3701152  68.8012189 132.5712124
 112.8939992  60.4809978 133.4300014 112.9439992  61.0909978 134.1660014
 113.3199992  60.9419978 132.7070014 112.9584108  60.6267709 133.4330112
 107.3719992  63.2729978 132.8970014 107.5149992  62.3269978 132.9170014
 107.2659992  63.4799978 131.9680014 107.3772509  63.1714813 132.7742231
 100.5269992  61.3749978 130.1690014 100.5699992  62.2349978 129.7510014
 100.0689992  60.8229978 129.5350014 100.4709815  61.4180621 130.0261197
 108.2489992  61.5059978 128.5700014 108.8959992  61.1769978 129.1950014
 108.7589992  62.0229978 127.9470014 108.4064317  61.5309227 128.5712167
  97.1469992  63.7719978 130.9310014  97.8009992  63.2219978 131.3630014
  97.1709992  63.4979978 130.0140014  97.2397199  63.6597167 130.8661668
 102.3039992  65.3219978 130.1460014 102.9199992  64.7949978 130.6560014
 101.7169992  64.6819978 129.7430014 102.3089239  65.1634117 130.1612952
 113.2859992  61.9589978 135.6660014 112.5969992  62.6169978 135.5700014
 113.3009992  61.7609978 136.6020014 113.1936740  62.0223243 135.7794630
  99.3369992  60.2929978 134.2430014  99.1179992  60.8229978 133.4770014
  98.6689992  60.5189978 134.8900014  99.2167001  60.3961154 134.2256064
 106.7059992  69.7929978 127.7870014 106.4109992  69.4699978 126.9360014
 106.3819992  70.6929978 127.8280014 106.6217983  69.8704027 127.6759771
 101.9059992  67.9679978 134.5310014 101.1659992  68.5669978 134.6340014
 102.6199992  68.5219978 134.2150014 101.9013288  68.1247356 134.5023805
 110.0129992  60.7969978 130.5500014 109.7979992  60.0309978 131.0830014
 110.6689992  61.2689978 131.0630014 110.0722673  60.7560728 130.6921990
  98.9309992  62.1849978 132.1950014  99.5449992  62.8179978 132.5690014
  99.4429992  61.7129978 131.5390014  99.0842277  62.2077352 132.1574279
 100.3139992  69.9329978 135.3180014 100.3079992  70.8119978 134.9400014
  99.4599992  69.8489978 135.7430014 100.1977925  70.0419535 135.3236887
  96.4349992  69.6039978 126.1000014  96.1629992  69.8329978 125.2110014
  96.4799992  70.4409978 126.5600014  96.4038709  69.7486058 126.0406107
 110.0599992  71.2249978 132.8120014 109.1179992  71.2839978 132.9740014
 110.3359992  72.1309978 132.6750014 109.9685865  71.3555288 132.8156192
 110.3599992  59.5119978 134.2300014 109.6239992  60.1219978 134.1920014
 111.0439992  59.9269978 133.7030014 110.3515506  59.6516400 134.1536051
 103.3639992  57.5979978 131.6960014 103.2459992  56.6499978 131.6410014
 102.5089992  57.9309978 131.9690014 103.2322679  57.5131926 131.7253720
 108.3119992  73.0059978 129.4380014 108.7369992  72.2989978 128.9530014
 108.6289992  73.8079978 129.0210014 108.4130266  73.0175190 129.3152479
 109.4719992  70.9069978 127.9460014 109.2139992  70.2169978 127.3350014
 109.5429992  70.4639978 128.7920014 109.4462837  70.7527106 127.9766912
 111.1579992  69.4739978 136.4240014 111.2969992  68.8819978 135.6840014
 111.3249992  70.3469978 136.0670014 111.1995562  69.5109896 136.2746283
 105.6299992  66.4359978 126.1960014 104.9189992  66.9709978 125.8440014
 106.3209992  66.4909978 125.5360014 105.6260751  66.5166777 126.0585858
 105.6839992  64.8929978 123.2350014 106.3849992  64.9159978 123.8860014
 105.9859992  64.2649978 122.5790014 105.8208282  64.8112339 123.2354496
 112.9989992  65.8139978 134.4900014 112.3469992  66.5079978 134.5790014
 113.4649992  66.0239978 133.6800014 112.9725937  65.9375019 134.3927533
 109.0359992  66.6449978 127.1480014 108.3039992  66.8739978 127.7210014
 109.4829992  65.9319978 127.6030014 108.9962753  66.5798972 127.2879715
 108.9329992  64.8199978 136.2160014 109.0129992  65.5829978 136.7870014
 108.3319992  65.0989978 135.5250014 108.8627245  64.9622630 136.2008424
 100.6809992  67.2759978 129.0300014 100.3509992  66.9049978 128.2120014
 101.2699992  66.6049978 129.3770014 100.7153970  67.1346063 128.9649404
 102.0479992  70.7039978 131.7120014 101.9529992  70.1249978 130.9550014
 102.7769992  70.3329978 132.2080014 102.1336161  70.5745891 131.6755209
 101.0479992  66.0439978 132.6640014 101.6129992  66.1659978 131.9010014
 101.3669992  66.6819978 133.3030014 101.1683977  66.1468851 132.6459424
 107.3569992  71.5479978 133.3980014 107.1169992  72.2099978 134.0460014
 107.1589992  70.7129978 133.8230014 107.2973826  71.5258115 133.5441566
 101.9279992  70.4439978 137.3810014 101.6169992  71.2259978 137.8360014
 101.2779992  70.2909978 136.6950014 101.7975538  70.5304087 137.3505898
 107.9069992  65.8079978 124.8330014 108.4859992  65.9579978 125.5800014
 108.3209992  66.2779978 124.1100014 108.0423122  65.8921277 124.8375042
  98.8479992  66.6419978 136.6100014  98.9179992  67.2929978 137.3080014
  97.9569992  66.7449978 136.2750014  98.7371802  66.7449757 136.6602249
 105.6329992  72.5439978 128.2680014 106.1069992  72.8399978 129.0460014
 105.0699992  73.2829978 128.0350014 105.6217361  72.6842721 128.3428611
 100.1669992  72.5149978 138.1440014 100.1749992  72.3789978 137.1970014
  99.2509992  72.3979978 138.3960014 100.0442528  72.4805463 138.0483243
 111.6059992  57.5579978 124.6460014 110.7059992  57.6969978 124.9410014
 111.8579992  58.3889978 124.2440014 111.5168683  57.6894055 124.6320232
  99.6719992  66.3449978 126.6200014  99.3799992  67.1129978 126.1290014
  98.9969992  65.6859978 126.4570014  99.5408497  66.3609745 126.5308260
 112.7949992  71.9239978 123.0220014 112.8679992  72.8629978 123.1930014
 113.6999992  71.6189978 122.9660014 112.9274158  72.0113061 123.0378392
  95.7649992  68.7079978 135.4350014  95.2629992  68.6799978 134.6200014
  95.7699992  67.8029978 135.7440014  95.6970416  68.5817368 135.3653766
  95.5149992  71.4889978 132.3190014  96.4609992  71.3439978 132.3000014
  95.4019992  72.2729978 132.8560014  95.6293578  71.5751697 132.3890317
 113.7129992  72.1549978 138.0010014 113.6629992  71.1989978 137.9640014
 112.8859992  72.4219978 138.4020014 113.5943987  72.0605174 138.0501446
 104.6909992  71.7289978 136.8770014 104.7789992  72.5549978 137.3520014
 103.8279992  71.3989978 137.1260014 104.5863357  71.7975468 136.9757653
 105.1059992  75.5009978 126.6830014 105.0299992  75.3799978 125.7370014
 105.1379992  76.4499978 126.8020014 105.0999156  75.6127530 126.5695048
  98.7589992  74.2899978 128.4640014  98.9109992  73.9419978 129.3430014
  97.9079992  73.9329978 128.2090014  98.6647899  74.1941738 128.5497340
 108.2069992  74.6549978 123.6850014 108.5819992  73.9109978 123.2150014
 108.2119992  74.3849978 124.6040014 108.2590024  74.5166950 123.7447987
 107.8759992  74.5809978 126.4350014 106.9409992  74.6809978 126.6130014
 108.1559992  73.8709978 127.0130014 107.7858173  74.4987239 126.5374998
 110.8649992  63.6479978 138.4810014 110.4569992  64.1279978 137.7610014
 110.9049992  62.7419978 138.1730014 110.8145476  63.5913160 138.3408247
  98.0139992  70.0319978 136.4780014  98.2299992  69.6699978 137.3370014
  97.1579992  69.6569978 136.2680014  97.9279354  69.9317906 136.5672160
 100.6319992  58.5019978 132.4730014  99.7709992  58.4149978 132.0660014
 100.6099992  59.3579978 132.9010014 100.5110411  58.6057884 132.4750857
 105.2949992  58.2239978 135.8480014 105.7149992  57.8089978 136.6010014
 104.3619992  58.0449978 135.9650014 105.2263736  58.1429910 135.9668968
 108.6219992  61.9789978 136.7010014 108.1079992  61.8539978 137.4990014
 108.4659992  62.8919978 136.4570014 108.5306967  62.0852123 136.7770937
 109.3839992  66.8399978 122.4630014 109.4259992  66.6179978 121.5330014
 110.2329992  67.2389978 122.6530014 109.5045253  66.8635498 122.3613822
 104.9569992  60.7159978 123.1330014 104.7029992  60.7349978 124.0560014
 104.6999992  59.8449978 122.8320014 104.8875133  60.6008110 123.2185082
 100.7229992  63.4669978 133.5680014 100.0819992  63.4269978 134.2770014
 100.7609992  64.3939978 133.3310014 100.6403670  63.5867795 133.6330550
 100.7199992  63.6879978 128.4800014  99.8279992  63.3479978 128.4220014
 101.1709992  63.3109978 127.7250014 100.6586815  63.5903762 128.3699203
 106.2559992  64.1039978 127.2970014 105.8469992  64.9189978 127.0060014
 106.9759992  63.9639978 126.6830014 106.2974013  64.1966571 127.1740875
 105.3579992  64.2799978 138.7850014 104.7949992  63.5749978 139.1060014
 106.1839992  64.1589978 139.2530014 105.3926674  64.1672165 138.8921751
 107.2609992  63.5499978 130.1110014 107.0649992  64.1559978 129.3960014
 107.4419992  62.7169978 129.6770014 107.2586584  63.5202513 129.9544212
  98.4729992  63.7879978 135.4350014  98.4349992  64.1879978 136.3040014
  97.9829992  62.9709978 135.5260014  98.4015621  63.7322510 135.5661377
 101.8389992  61.1619978 122.2340014 101.4079992  60.7169978 122.9640014
 101.1209992  61.5329978 121.7220014 101.6829363  61.1512968 122.2646211
  95.0819992  60.9039978 129.2860014  95.7119992  60.8749978 130.0050014
  95.5309992  60.4789978 128.5560014  95.2290692  60.8425316 129.2857771
  96.3559992  61.6499978 124.7100014  96.8299992  62.2409978 124.1250014
  95.6379992  62.1799978 125.0570014  96.3238640  61.8025511 124.6767969
 106.5249992  65.1879978 134.7830014 106.8479992  64.5569978 134.1400014
 106.0839992  64.6539978 135.4430014 106.5095789  65.0293522 134.7842232
 103.3019992  61.1159978 129.5670014 102.3909992  61.1729978 129.8550014
 103.8069992  61.0559978 130.3770014 103.2455387  61.1156870 129.7160646
  98.1299992  62.7449978 128.3930014  97.2409992  62.8439978 128.0530014
  98.4269992  61.9029978 128.0470014  98.0484177  62.6447687 128.2996940
 101.7829992  62.7449978 126.0500014 102.7149992  62.8739978 126.2280014
 101.5679992  63.4139978 125.4000014 101.8814472  62.8530806 125.9864891
 107.7069992  60.3509978 132.8310014 107.0299992  60.4819978 133.4950014
 107.2219992  60.1959978 132.0210014 107.5487265  60.3479659 132.8123397
 100.4569992  63.9389978 123.6170014  99.9149992  63.5599978 122.9250014
 101.2909992  64.1339978 123.1880014 100.4955159  63.9135076 123.4644419
 110.9949992  76.0219978 139.1080014 111.1939992  76.4459978 138.2730014
 111.6499992  76.3659978 139.7150014 111.1108501  76.1266091 139.0757097
  98.5929992  68.4959978 138.7160014  99.3249992  68.7509978 139.2770014
  97.8119992  68.7009978 139.2310014  98.5877684  68.5586468 138.8624782
 104.6219992  63.9029978 131.4540014 105.1859992  63.3569978 130.9070014
 104.4739992  63.3819978 132.2420014 104.6792575  63.7576552 131.4856987
  99.6239992  60.0399978 127.8720014  99.3069992  59.1369978 127.8370014
 100.4049992  60.0419978 127.3190014  99.6862307  59.9166951 127.7924314
 103.2479992  62.2919978 133.8680014 102.4129992  62.7459978 133.9780014
 103.7719992  62.5679978 134.6200014 103.2045070  62.3914666 133.9847152
 103.7929992  68.5049978 125.5520014 103.0479992  67.9969978 125.2300014
 103.6579992  68.5539978 126.4990014 103.6729047  68.4421596 125.6358845
 110.9429992  67.6379978 134.3390014 111.5839992  68.0939978 133.7950014
 110.1119992  67.7509978 133.8770014 110.9185171  67.7157502 134.2020237
 107.6899992  61.3189978 123.7520014 106.7519992  61.4299978 123.6000014
 107.9879992  62.1749978 124.0580014 107.6016402  61.4500621 123.7725571
 105.3119992  68.6889978 136.7890014 104.9659992  68.3069978 137.5960014
 105.1119992  69.6219978 136.8610014 105.2376523  68.7629095 136.9090735
 108.4089992  63.1859978 125.4120014 109.3009992  63.0479978 125.7310014
 108.4649992  63.9769978 124.8760014 108.5387107  63.2740526 125.3832091
  98.9169992  67.7999978 131.3220014  99.6619992  67.7969978 130.7210014
  98.9949992  66.9759978 131.8040014  99.0294158  67.6882916 131.3049153
 105.9179992  69.9629978 124.5780014 105.6229992  70.7899978 124.9590014
 105.2149992  69.3439978 124.7740014 105.7825471  69.9925227 124.6566698
  95.9249992  66.2599978 136.6370014  96.1479992  65.8419978 137.4690014
  95.3229992  65.6479978 136.2140014  95.8741260  66.1199933 136.6937320
 102.9419992  65.7769978 138.8500014 102.6459992  65.6119978 137.9550014
 103.8729992  65.5569978 138.8390014 103.0273982  65.7246578 138.7260045
 107.5619992  71.1509978 136.7400014 106.6619992  71.3339978 136.4720014
 107.5959992  71.4099978 137.6610014 107.4432909  71.2110815 136.8277852
 113.2939992  63.3949978 125.1070014 112.7389992  62.9989978 124.4350014
 113.3939992  64.3059978 124.8290014 113.2315888  63.4638990 124.9775206
 113.2569992  69.1959978 137.9440014 112.4059992  69.4339978 137.5770014
 113.8469992  69.1789978 137.1910014 113.2202408  69.2262966 137.7918879
 111.5889992  72.1809978 125.5720014 111.2159992  71.3559978 125.8810014
 111.8659992  71.9979978 124.6750014 111.5753871  72.0432441 125.4929677
 108.7489992  66.9889978 132.5930014 107.8209992  66.7579978 132.5660014
 109.1999992  66.2119978 132.2630014 108.6828165  66.8522774 132.5446790
 101.2919992  71.3179978 128.7260014 101.8199992  72.0909978 128.5260014
 100.4119992  71.5419978 128.4250014 101.2453176  71.4543161 128.6578409
  97.0469992  66.1799978 123.3140014  97.6629992  66.8069978 123.6930014
  96.1849992  66.4959978 123.5850014  97.0148195  66.3085798 123.4025386
 102.7199992  68.9809978 128.3030014 102.4789992  69.9059978 128.3440014
 101.9789992  68.5219978 128.6990014 102.5868390  69.0456403 128.3621404
 103.2339992  73.1299978 134.6180014 103.5969992  73.9839978 134.3840014
 103.7659992  72.8379978 135.3580014 103.3556090  73.2074058 134.6860219
 101.4029992  74.0019978 127.8480014 100.4529992  74.1079978 127.8990014
 101.7549992  74.8229978 128.1930014 101.3205480  74.1274438 127.9015999
 106.7779992  69.2289978 134.3180014 106.3529992  69.0009978 135.1450014
 107.3589992  68.4899978 134.1360014 106.7983930  69.0979843 134.4064732
 108.9809992  70.1579978 123.3920014 109.3349992  69.7779978 124.1970014
 108.0329992  70.0639978 123.4790014 108.9011820  70.0933092 123.5138714
 109.4369992  73.7809978 136.7880014 108.8349992  73.2249978 136.2920014
 109.7179992  74.4479978 136.1620014 109.3926829  73.7951613 136.6355443
 113.4849992  74.6369978 123.5930014 114.2289992  75.2229978 123.4530014
 112.7909992  75.2059978 123.9270014 113.4930201  74.7940603 123.6189772
  97.5589992  61.0139978 136.1950014  96.6669992  61.3519978 136.1280014
  97.4609992  60.1579978 136.6130014  97.4234965  60.9446499 136.2423044
 109.8469992  68.8299978 125.6190014 109.5699992  68.1019978 126.1750014
 110.7749992  68.9489978 125.8240014 109.9344499  68.7464213 125.7228044
  97.2109992  72.8179978 134.6300014  97.4279992  71.8859978 134.5990014
  97.4569992  73.0929978 135.5130014  97.2739809  72.7275686 134.7451691
 103.0719992  71.2699978 121.8390014 103.3109992  70.5209978 121.2920014
 102.8029992  70.8819978 122.6720014 103.0683233  71.1151853 121.8767809
 102.0089992  70.8399978 124.2960014 102.1559992  70.3199978 125.0860014
 102.0059992  71.7469978 124.6020014 102.0287300  70.8913964 124.4455895
  98.4619992  68.0919978 124.8060014  97.7759992  68.4449978 125.3730014
  98.9849992  68.8549978 124.5600014  98.4389033  68.2433746 124.8502661
 106.2939992  60.7549978 135.0850014 106.9929992  60.8289978 135.7350014
 105.9129992  59.8899978 135.2390014 106.3382097  60.6482389 135.1947997
 107.0779992  60.4069978 126.1820014 107.2979992  60.8779978 125.3790014
 107.6369992  60.8009978 126.8520014 107.1836730  60.5247432 126.1625906
 104.7469992  72.5369978 125.0450014 103.9299992  73.0339978 125.0970014
 105.2759992  73.0129978 124.4050014 104.7068508  72.6692543 124.9656035
 104.2779992  62.1349978 127.0170014 105.0899992  62.6389978 127.0630014
 104.0339992  61.9899978 127.9310014 104.3561467  62.1843749 127.1468575
 104.8139992  63.1209978 136.2020014 104.9329992  63.6949978 136.9590014
 105.4689992  62.4329978 136.3160014 104.9189146  63.1065574 136.3211314
 105.1619992  59.2159978 127.9550014 104.8149992  59.8329978 128.6000014
 105.8209992  59.7169978 127.4740014 105.2035949  59.3681099 127.9782271
 102.0849992  73.5809978 125.0270014 102.2459992  74.3809978 124.5260014
 101.8879992  73.8879978 125.9120014 102.0803919  73.7319129 125.0781006
 100.8199992  60.2789978 124.6420014 100.7359992  61.1669978 124.9890014
 101.7099992  60.0139978 124.8740014 100.9288163  60.3647179 124.7208596
 111.0179992  61.0279978 137.0370014 110.1019992  61.2899978 136.9490014
 111.3539992  61.0249978 136.1400014 110.9379789  61.0634626 136.9037847
 109.6209992  64.7779978 131.1320014 108.8229992  64.3629978 130.8040014
 110.0659992  64.0879978 131.6230014 109.5719684  64.6278628 131.1535227
  99.0779992  70.7059978 123.7030014  99.6699992  71.4059978 123.9790014
  99.5369992  70.2729978 122.9830014  99.2210791  70.7432908 123.6434607
  97.3939992  63.3709978 122.8190014  97.3489992  64.3099978 122.9970014
  96.5059992  63.1349978 122.5490014  97.2678555  63.4676874 122.8068939
 110.7069992  74.0339978 132.7550014 110.5509992  74.7129978 132.0980014
 111.6399992  74.1059978 132.9580014 110.8117387  74.1366390 132.6925342
  98.2019992  58.1519978 131.4920014  97.9729992  58.2109978 130.5640014
  97.7599992  57.3609978 131.7980014  98.1108801  58.0530540 131.4064729
  97.1329992  72.0929978 127.6520014  96.2999992  72.5649978 127.6800014
  97.6779992  72.6029978 127.0540014  97.0927590  72.2265897 127.5749194
  96.4209992  74.7049978 138.9820014  96.9609992  74.4889978 139.7420014
  95.9399992  73.8999978 138.7930014  96.4298613  74.5665400 139.0604782
 101.0179992  73.6249978 140.6030014 101.7859992  73.1659978 140.9440014
 100.9969992  73.3989978 139.6730014 101.1202135  73.5316668 140.5239491
 105.1099992  73.1329978 121.9780014 104.4659992  72.5019978 122.2990014
 105.8719992  72.6019978 121.7460014 105.1248058  72.9747902 121.9906038
 107.5949992  72.0049978 139.3320014 107.2439992  71.1479978 139.5750014
 108.3209992  72.1469978 139.9390014 107.6451590  71.9070178 139.4472907
 109.7149992  72.9499978 122.2120014 109.9979992  72.1549978 122.6640014
 110.4539992  73.1829978 121.6510014 109.8536956  72.8727031 122.1979822
  96.3279992  68.5159978 139.9370014  96.4719992  67.6139978 139.6500014
  95.5559992  68.8019978 139.4490014  96.2433303  68.4313243 139.8317908
 100.6689992  68.8589978 122.0690014 100.7339992  68.0649978 122.6000014
 101.3219992  68.7409978 121.3790014 100.7661754  68.7343337 122.0484259
 102.9829992  68.4849978 139.3690014 102.6549992  68.7559978 138.5120014
 103.1349992  67.5439978 139.2820014 102.9586030  68.3948973 139.2397945
 106.0219992  69.9059978 121.8050014 105.7529992  70.0869978 122.7060014
 105.8149992  68.9809978 121.6740014 105.9572000  69.8056774 121.9105693
 108.7179992  68.4009978 136.7530014 109.4629992  68.9899978 136.6330014
 107.9609992  68.9829978 136.8160014 108.7175205  68.5601997 136.7451119
  97.1609992  65.7159978 139.3570014  97.5689992  64.8589978 139.2360014
  96.8999992  65.7299978 140.2780014  97.1816016  65.6005119 139.4649192
 101.8189992  66.8319978 124.3750014 101.3589992  66.3479978 125.0610014
 102.0739992  66.1629978 123.7390014 101.7905038  66.6753689 124.3829447
 101.1079992  64.7249978 136.7310014 100.4889992  65.3989978 137.0110014
 101.4519992  65.0459978 135.8980014 101.0697605  64.8607198 136.6566707
 102.8899992  65.0749978 122.6370014 102.7089992  64.9199978 121.7100014
 103.8399992  65.1829978 122.6820014 102.9936566  65.0683669 122.5160929
 106.1269992  67.1959978 140.0080014 107.0809992  67.2799978 139.9810014
 105.9669992  66.4839978 140.6280014 106.2357182  67.1112842 140.0880733
 112.2799992  67.4289978 122.0830014 112.0059992  67.0049978 121.2700014
 112.3189992  68.3609978 121.8660014 112.2477716  67.4968827 121.9424286
 101.4469992  62.0799978 137.8130014 101.5969992  61.3509978 137.2110014
 101.4489992  62.8569978 137.2540014 101.4677967  62.0852708 137.6550541
 101.8599992  60.4489978 135.3060014 102.3949992  60.9009978 134.6540014
 101.0069992  60.3409978 134.8830014 101.8180374  60.4962665 135.1596710
 103.4409992  65.8889978 135.5450014 104.1919992  65.7329978 134.9720014
 103.1019992  66.7409978 135.2700014 103.4979587  65.9828138 135.4294078
 107.8569992  63.7039978 140.5740014 108.0489992  62.7729978 140.4620014
 108.7149992  64.1289978 140.5640014 107.9992269  63.6339928 140.5573192
 109.1739992  66.4929978 138.6510014 108.8919992  67.2019978 138.0740014
 110.1159992  66.4199978 138.5000014 109.2627656  66.5803128 138.5514809
  99.9259992  63.2779978 139.7250014  99.1579992  62.7449978 139.5150014
 100.6039992  62.9679978 139.1250014  99.9126973  63.1632375 139.6151796
 102.6649992  57.9059978 135.7370014 102.5669992  58.8519978 135.6320014
 101.9229992  57.5329978 135.2620014 102.5511913  57.9851813 135.6583539
 103.9289992  62.2269978 139.3010014 103.6939992  62.0079978 140.2030014
 103.1459992  62.0199978 138.7910014 103.7909219  62.1690066 139.3555852
 106.6449992  61.3549978 138.3770014 105.6969992  61.3869978 138.5090014
 106.9569992  60.7289978 139.0300014 106.5575190  61.2747262 138.4833564
 108.2789992  59.9889978 140.3820014 108.1819992  59.0369978 140.3760014
 107.9569992  60.2569978 141.2420014 108.2221761  59.8949744 140.4974936
  98.1059992  61.1979978 139.4290014  98.3179992  60.4919978 138.8190014
  97.9949992  60.7609978 140.2730014  98.1200269  61.0421921 139.4595873
 102.8869992  57.1999978 138.4090014 103.5989992  56.5599978 138.3950014
 102.7859992  57.4659978 137.4950014 102.9707261  57.1484190 138.2835537
 103.2409992  58.8819978 140.4620014 103.1089992  58.4069978 139.6420014
 102.6409992  59.6269978 140.4070014 103.1419070  58.9175789 140.3423251
 102.7869992  75.7649978 123.6390014 103.7199992  75.9229978 123.7820014
 102.5229992  76.4409978 123.0140014 102.8789308  75.8779104 123.5741396
  96.3549992  70.4019978 123.1210014  97.2689992  70.4809978 123.3950014
  96.3629992  69.7149978 122.4550014  96.4811143  70.3199085 123.0684274
  95.0039992  75.7949978 128.1990014  94.3569992  75.3329978 127.6660014
  95.3589992  75.1229978 128.7810014  94.9634506  75.6409503 128.2047341
  95.8739992  73.8749978 130.0030014  95.5399992  72.9949978 130.1750014
  96.0969992  74.2209978 130.8680014  95.8583721  73.8011938 130.1434168
 113.4229992  74.6849978 132.9840014 113.4009992  74.8699978 133.9230014
 114.1129992  75.2529978 132.6430014 113.5133439  74.7871887 133.0664791
 112.9859992  74.2519978 135.9060014 112.4989992  73.5169978 135.5350014
 113.5349992  73.8579978 136.5840014 112.9935247  74.0981057 135.9468461
 111.4369992  70.0419978 140.5440014 110.5709992  69.9369978 140.9380014
 111.8129992  70.7999978 140.9900014 111.3693401  70.1301708 140.6582620
 112.7379992  68.2979978 126.0580014 113.5879992  68.7189978 126.1850014
 112.7429992  67.5579978 126.6650014 112.8551143  68.2556094 126.1574750
 113.1319992  66.3519978 127.8820014 112.4059992  65.8719978 128.2790014
 113.7139992  66.5569978 128.6140014 113.1111635  66.3139166 128.0353748
 112.8909992  69.1369978 132.8290014 113.7249992  68.7589978 132.5490014
 113.0029992  70.0799978 132.7100014 113.0202522  69.2127742 132.7746020
 111.3779992  72.0149978 135.1360014 110.7299992  72.3399978 135.7620014
 110.8599992  71.5739978 134.4620014 111.2194168  71.9998523 135.1305307
 113.4009992  66.2529978 124.2730014 112.8789992  66.6089978 123.5540014
 113.3679992  66.9279978 124.9510014 113.3250699  66.3929848 124.2662129
 111.7499992  63.4919978 122.8240014 111.8459992  64.1589978 122.1440014
 111.6099992  62.6769978 122.3420014 111.7442063  63.4730667 122.6658377
 110.9189992  64.8729978 128.4450014 110.7689992  63.9279978 128.4240014
 110.5649992  65.1539978 129.2880014 110.8505527  64.7815605 128.5561859
  95.9539992  66.9509978 132.4550014  96.1389992  66.8689978 131.5190014
  96.8039992  66.8269978 132.8790014  96.0940916  66.9230393 132.3842896
 111.7749992  66.8429978 138.0830014 112.3579992  66.1079978 138.2750014
 112.3389992  67.6149978 138.1300014 111.9309781  66.8468145 138.1156164
 113.2719992  64.7459978 138.7680014 112.4089992  64.3669978 138.6020014
 113.8759992  64.0069978 138.6940014 113.2355944  64.5942978 138.7352984
 110.9969992  60.8999978 121.9410014 111.6079992  60.5289978 122.5780014
 110.1599992  60.4789978 122.1370014 110.9674947  60.7922756 122.0547252
 110.6299992  62.4549978 126.9070014 110.9089992  61.5479978 127.0310014
 111.3889992  62.8889978 126.5180014 110.7708619  62.3894502 126.8713795
 111.2409992  63.0369978 132.3430014 112.1739992  63.2489978 132.3090014
 111.0059992  63.1379978 133.2650014 111.3368308  63.0796503 132.4630214
 111.2709992  63.7739978 135.1190014 110.4279992  64.0419978 135.4850014
 111.7129992  64.5959978 134.9080014 111.2154138  63.9218273 135.1405518
  95.5519992  62.2209978 138.5960014  96.4709992  62.0989978 138.8320014
  95.1019992  61.4709978 138.9850014  95.6171148  62.1028751 138.6809408
 113.5539992  57.7539978 140.4720014 113.9029992  57.0999978 139.8670014
 113.7009992  58.5909978 140.0330014 113.6217355  57.7776067 140.3296564
 111.2429992  59.7179978 126.9550014 111.4249992  59.2689978 127.7810014
 110.6429992  59.1339978 126.4920014 111.1867529  59.5776131 127.0053619
  96.7729992  60.5339978 131.4870014  97.2179992  59.7419978 131.7890014
  97.2389992  61.2499978 131.9180014  96.8969059  60.5224474 131.5866079
  95.0769992  63.5329978 132.5560014  95.5689992  63.3119978 131.7650014
  95.4389992  64.3729978 132.8370014  95.1932923  63.6163468 132.4857407
 113.0729992  59.8629978 138.8220014 112.1559992  60.1339978 138.7860014
 113.1959992  59.3279978 138.0380014 112.9640828  59.8277700 138.7110785
 113.1099992  59.7859978 123.4830014 113.5219992  59.0649978 123.0080014
 113.7909992  60.4549978 123.5420014 113.2585900  59.7777306 123.4259038
  95.3909992  59.7909978 126.6100014  94.4659992  59.9989978 126.4810014
  95.8449992  60.2749978 125.9210014  95.3256374  59.8849949 126.4990957
 110.1609992  74.7749978 128.5560014 110.8139992  74.4269978 127.9480014
 110.6719992  75.2629978 129.2020014 110.3192777  74.7933815 128.5602047
  95.3539992  58.5289978 134.9550014  94.6889992  58.2829978 135.5980014
  94.9109992  59.1509978 134.3770014  95.2030937  58.5793614 134.9649379
  97.5459992  71.7039978 139.0990014  96.7249992  71.8789978 138.6390014
  97.2939992  71.6309978 140.0200014  97.3996173  71.7180794 139.1604972
 100.4999992  72.6779978 135.3580014 100.0759992  73.4879978 135.0750014
 101.4049992  72.7639978 135.0560014 100.5642433  72.8003331 135.2785377
 104.8119992  74.0769978 138.3170014 104.9959992  73.7439978 139.1950014
 105.6579992  74.3869978 137.9950014 104.9516484  74.0732979 138.3937617
 107.1569992  75.3629978 137.5610014 107.8339992  74.7299978 137.3210014
 107.4779992  75.7639978 138.3680014 107.2931323  75.3305691 137.6373158
 112.0739992  57.9529978 136.6410014 111.2609992  58.2779978 136.2530014
 112.3069992  57.1919978 136.1080014 111.9942566  57.8946559 136.5159213
  97.9019992  75.9349978 135.4050014  97.1819992  76.3749978 134.9540014
  97.5369992  75.6839978 136.2540014  97.7539796  75.9613824 135.4579329
 100.3689992  75.5349978 134.4350014  99.5049992  75.6069978 134.8390014
 100.3139992  76.0819978 133.6510014 100.2431942  75.6187849 134.3844000
 105.0799992  75.4229978 133.6100014 104.6229992  75.9519978 132.9560014
 105.2429992  76.0259978 134.3360014 105.0394476  75.5769140 133.6185499
 107.4079992  74.3009978 134.5550014 106.5029992  74.4659978 134.2900014
 107.8359992  75.1539978 134.4900014 107.3420700  74.4389529 134.5099520
 110.0119992  75.8709978 134.8500014 109.8299992  76.7869978 134.6400014
 110.1889992  75.4599978 134.0040014 110.0109907  75.9409741 134.7067883
  97.3169992  74.5579978 132.3150014  97.2989992  74.1319978 133.1730014
  98.1219992  74.2389978 131.9070014  97.4233221  74.4567233 132.3770225
  99.4579992  73.2679978 130.9700014  99.2389992  72.3509978 131.1400014
 100.2819992  73.4079978 131.4360014  99.5394702  73.1615511 131.0562527
 101.9949992  73.7379978 131.8190014 102.2079992  72.8499978 131.5320014
 102.0599992  73.7029978 132.7740014 102.0329075  73.6118307 131.9087373
 105.5039992  59.4019978 130.9630014 104.8299992  58.7719978 131.2190014
 106.0679992  58.9179978 130.3600014 105.4880384  59.2503708 130.9165020
 110.6469992  57.5089978 131.0760014 111.2499992  58.0569978 130.5740014
 109.7769992  57.8279978 130.8360014 110.6119190  57.6271041 130.9748679
 112.3739992  58.6479978 129.4090014 112.9849992  58.1339978 128.8830014
 112.7559992  59.5249978 129.4330014 112.5094475  58.6961323 129.3401208
  97.8309992  58.0359978 128.7850014  97.0539992  57.8009978 128.2780014
  98.3609992  57.2389978 128.7940014  97.7963451  57.8961268 128.7168627
  96.6669992  57.8339978 124.5890014  97.1059992  58.4449978 123.9970014
  96.0329992  58.3719978 125.0630014  96.6413859  57.9904064 124.5720305
 102.4099992  57.9619978 128.5990014 103.2839992  58.3509978 128.5690014
 102.2739992  57.7469978 129.5210014 102.5113207  57.9861923 128.7196509
 107.9669992  57.9919978 130.2480014 108.0429992  58.0879978 129.2990014
 107.6919992  57.0849978 130.3770014 107.9402042  57.8824241 130.1353811
 109.3199992  58.0179978 125.9400014 108.6169992  58.6329978 125.7310014
 108.8749992  57.1809978 126.0720014 109.1636292  57.9890085 125.9292439
  96.5679992  73.7819978 125.4870014  95.8829992  73.7439978 124.8190014
  96.5719992  74.6949978 125.7750014  96.4748174  73.9001998 125.4345310
  98.5279992  59.7499978 123.0310014  99.0189992  59.1199978 122.5040014
  99.1509992  60.0459978 123.6950014  98.6795062  59.7036770 123.0485438
 103.5539992  60.0429978 125.4890014 103.7319992  59.3959978 126.1710014
 103.4999992  60.8769978 125.9560014 103.5711025  60.0670504 125.6456433
 105.4319992  74.9909978 123.8840014 106.2979992  75.3579978 123.7060014
 105.1859992  74.5519978 123.0700014 105.5172097  74.9818525 123.7496019
 112.1409992  74.5539978 126.5630014 111.9469992  73.8059978 125.9980014
 112.1019992  75.3119978 125.9800014 112.1091645  74.5540786 126.4068148
  97.7879992  58.5499978 138.3030014  97.4219992  57.7839978 138.7460014
  98.7009992  58.5789978 138.5900014  97.8613225  58.4491906 138.4023459
  99.7609992  57.8999978 139.8390014 100.6599992  57.6259978 139.6540014
  99.3749992  57.1579978 140.3030014  99.8317237  57.7621508 139.8764710
  98.3859992  74.7019978 122.5120014  98.1179992  74.9879978 123.3850014
  99.1569992  74.1559978 122.6640014  98.4535600  74.6673330 122.6521499
 108.1829992  57.2329978 140.0210014 108.2589992  56.8069978 140.8750014
 109.0759992  57.2459978 139.6780014 108.3142267  57.1763952 140.0915932
 111.3589992  73.3059978 138.7130014 110.5769992  73.1189978 138.1940014
 111.2869992  74.2349978 138.9310014 111.2420863  73.4060221 138.6713574
 125.7649992  67.1919978 128.7440014 125.8539992  68.1359978 128.6120014
 125.1269992  66.9169978 128.0860014 125.6909062  67.2839812 128.6369641
 124.6979992  66.4469978 132.1630014 124.6599992  65.8009978 132.8680014
 124.3759992  65.9799978 131.3920014 124.6492679  66.2954276 132.1552921
 117.0659992  66.0609978 133.7560014 117.1079992  65.4359978 134.4790014
 117.7689992  66.6849978 133.9380014 117.1667345  66.0597873 133.8795274
 128.4039992  69.3859978 130.4650014 127.9629992  68.6659978 130.9150014
 128.3909992  70.1069978 131.0940014 128.3417960  69.3848329 130.6117567
 117.9899992  70.5109978 132.2910014 117.6199992  69.7089978 131.9210014
 118.9309992  70.3429978 132.3370014 118.0665984  70.3784638 132.2465603
 114.5999992  64.1709978 127.6840014 114.1519992  65.0169978 127.6650014
 114.0389992  63.5919978 127.1680014 114.4629603  64.2083674 127.6116720
 115.3099992  66.3329978 129.8100014 115.5239992  65.5629978 130.3370014
 116.0479992  66.4229978 129.2060014 115.4389652  66.2398012 129.8005212
 125.5159992  74.4899978 130.6770014 126.1349992  73.8139978 130.4030014
 125.3069992  74.2719978 131.5850014 125.5726232  74.3677938 130.7622517
 123.0869992  68.8789978 132.5690014 123.3909992  68.1929978 131.9750014
 123.8089992  68.9979978 133.1870014 123.2261152  68.8012189 132.5712123
 131.7499992  60.4809978 133.4300014 131.7999992  61.0909978 134.1660014
 132.1759992  60.9419978 132.7070014 131.8144108  60.6267709 133.4330112
 126.2279992  63.2729978 132.8970014 126.3709992  62.3269978 132.9170014
 126.1219992  63.4799978 131.9680014 126.2332509  63.1714813 132.7742231
 119.3829992  61.3749978 130.1690014 119.4259992  62.2349978 129.7510014
 118.9249992  60.8229978 129.5350014 119.3269815  61.4180621 130.0261197
 127.1049992  61.5059978 128.5700014 127.7519992  61.1769978 129.1950014
 127.6149992  62.0229978 127.9470014 127.2624317  61.5309227 128.5712167
 116.0029992  63.7719978 130.9310014 116.6569992  63.2219978 131.3630014
 116.0269992  63.4979978 130.0140014 116.0957199  63.6597167 130.8661668
 121.1599992  65.3219978 130.1460014 121.7759992  64.7949978 130.6560014
 120.5729992  64.6819978 129.7430014 121.1649239  65.1634117 130.1612952
 132.1419992  61.9589978 135.6660014 131.4529992  62.6169978 135.5700014
 132.1569992  61.7609978 136.6020014 132.0496740  62.0223243 135.7794630
 118.1929992  60.2929978 134.2430014 117.9739992  60.8229978 133.4770014
 117.5249992  60.5189978 134.8900014 118.0727001  60.3961154 134.2256064
 125.5619992  69.7929978 127.7870014 125.2669992  69.4699978 126.9360014
 125.2379992  70.6929978 127.8280014 125.4777983  69.8704027 127.6759771
 120.7619992  67.9679978 134.5310014 120.0219992  68.5669978 134.6340014
 121.4759992  68.5219978 134.2150014 120.7573288  68.1247356 134.5023805
 128.8689992  60.7969978 130.5500014 128.6539992  60.0309978 131.0830014
 129.5249992  61.2689978 131.0630014 128.9282673  60.7560728 130.6921990
 117.7869992  62.1849978 132.1950014 118.4009992  62.8179978 132.5690014
 118.2989992  61.7129978 131.5390014 117.9402277  62.2077352 132.1574279
 119.1699992  69.9329978 135.3180014 119.1639992  70.8119978 134.9400014
 118.3159992  69.8489978 135.7430014 119.0537925  70.0419535 135.3236887
 115.2909992  69.6039978 126.1000014 115.0189992  69.8329978 125.2110014
 115.3359992  70.4409978 126.5600014 115.2598709  69.7486058 126.0406107
 128.9159992  71.2249978 132.8120014 127.9739992  71.2839978 132.9740014
 129.1919992  72.1309978 132.6750014 128.8245865  71.3555288 132.8156192
 129.2159992  59.5119978 134.2300014 128.4799992  60.1219978 134.1920014
 129.8999992  59.9269978 133.7030014 129.2075506  59.6516400 134.1536051
 122.2199992  57.5979978 131.6960014 122.1019992  56.6499978 131.6410014
 121.3649992  57.9309978 131.9690014 122.0882679  57.5131926 131.7253720
 127.1679992  73.0059978 129.4380014 127.5929992  72.2989978 128.9530014
 127.4849992  73.8079978 129.0210014 127.2690266  73.0175190 129.3152479
 128.3279992  70.9069978 127.9460014 128.0699992  70.2169978 127.3350014
 128.3989992  70.4639978 128.7920014 128.3022837  70.7527106 127.9766912
 130.0139992  69.4739978 136.4240014 130.1529992  68.8819978 135.6840014
 130.1809992  70.3469978 136.0670014 130.0555562  69.5109896 136.2746283
 124.4859992  66.4359978 126.1960014 123.7749992  66.9709978 125.8440014
 125.1769992  66.4909978 125.5360014 124.4820751  66.5166777 126.0585858
 124.5399992  64.8929978 123.2350014 125.2409992  64.9159978 123.8860014
 124.8419992  64.2649978 122.5790014 124.6768282  64.8112339 123.2354496
 131.8549992  65.8139978 134.4900014 131.2029992  66.5079978 134.5790014
 132.3209992  66.0239978 133.6800014 131.8285937  65.9375019 134.3927533
 127.8919992  66.6449978 127.1480014 127.1599992  66.8739978 127.7210014
 128.3389992  65.9319978 127.6030014 127.8522753  66.5798972 127.2879715
 127.7889992  64.8199978 136.2160014 127.8689992  65.5829978 136.7870014
 127.1879992  65.0989978 135.5250014 127.7187245  64.9622630 136.2008424
 119.5369992  67.2759978 129.0300014 119.2069992  66.9049978 128.2120014
 120.1259992  66.6049978 129.3770014 119.5713970  67.1346063 128.9649404
 120.9039992  70.7039978 131.7120014 120.8089992  70.1249978 130.9550014
 121.6329992  70.3329978 132.2080014 120.9896161  70.5745891 131.6755209
 119.9039992  66.0439978 132.6640014 120.4689992  66.1659978 131.9010014
 120.2229992  66.6819978 133.3030014 120.0243977  66.1468851 132.6459424
 126.2129992  71.5479978 133.3980014 125.9729992  72.2099978 134.0460014
 126.0149992  70.7129978 133.8230014 126.1533826  71.5258115 133.5441566
 120.7839992  70.4439978 137.3810014 120.4729992  71.2259978 137.8360014
 120.1339992  70.2909978 136.6950014 120.6535538  70.5304087 137.3505898
 126.7629992  65.8079978 124.8330014 127.3419992  65.9579978 125.5800014
 127.1769992  66.2779978 124.1100014 126.8983122  65.8921277 124.8375042
 117.7039992  66.6419978 136.6100014 117.7739992  67.2929978 137.3080014
 116.8129992  66.7449978 136.2750014 117.5931802  66.7449757 136.6602249
 124.4889992  72.5439978 128.2680014 124.9629992  72.8399978 129.0460014
 123.9259992  73.2829978 128.0350014 124.4777361  72.6842721 128.3428611
 119.0229992  72.5149978 138.1440014 119.0309992  72.3789978 137.1970014
 118.1069992  72.3979978 138.3960014 118.9002528  72.4805463 138.0483243
 130.4619992  57.5579978 124.6460014 129.5619992  57.6969978 124.9410014
 130.7139992  58.3889978 124.2440014 130.3728683  57.6894055 124.6320232
 118.5279992  66.3449978 126.6200014 118.2359992  67.1129978 126.1290014
 117.8529992  65.6859978 126.4570014 118.3968497  66.3609745 126.5308260
 131.6509992  71.9239978 123.0220014 131.7239992  72.8629978 123.1930014
 132.5559992  71.6189978 122.9660014 131.7834158  72.0113061 123.0378392
 114.6209992  68.7079978 135.4350014 114.1189992  68.6799978 134.6200014
 114.6259992  67.8029978 135.7440014 114.5530416  68.5817368 135.3653766
 114.3709992  71.4889978 132.3190014 115.3169992  71.3439978 132.3000014
 114.2579992  72.2729978 132.8560014 114.4853578  71.5751697 132.3890317
 132.5689992  72.1549978 138.0010014 132.5189992  71.1989978 137.9640014
 131.7419992  72.4219978 138.4020014 132.4503987  72.0605174 138.0501446
 123.5469992  71.7289978 136.8770014 123.6349992  72.5549978 137.3520014
 122.6839992  71.3989978 137.1260014 123.4423357  71.7975468 136.9757653
 123.9619992  75.5009978 126.6830014 123.8859992  75.3799978 125.7370014
 123.9939992  76.4499978 126.8020014 123.9559156  75.6127530 126.5695048
 117.6149992  74.2899978 128.4640014 117.7669992  73.9419978 129.3430014
 116.7639992  73.9329978 128.2090014 117.5207899  74.1941738 128.5497340
 127.0629992  74.6549978 123.6850014 127.4379992  73.9109978 123.2150014
 127.0679992  74.3849978 124.6040014 127.1150024  74.5166950 123.7447987
 126.7319992  74.5809978 126.4350014 125.7969992  74.6809978 126.6130014
 127.0119992  73.8709978 127.0130014 126.6418173  74.4987239 126.5374998
 129.7209992  63.6479978 138.4810014 129.3129992  64.1279978 137.7610014
 129.7609992  62.7419978 138.1730014 129.6705476  63.5913160 138.3408247
 116.8699992  70.0319978 136.4780014 117.0859992  69.6699978 137.3370014
 116.0139992  69.6569978 136.2680014 116.7839354  69.9317906 136.5672160
 119.4879992  58.5019978 132.4730014 118.6269992  58.4149978 132.0660014
 119.4659992  59.3579978 132.9010014 119.3670411  58.6057884 132.4750857
 124.1509992  58.2239978 135.8480014 124.5709992  57.8089978 136.6010014
 123.2179992  58.0449978 135.9650014 124.0823736  58.1429910 135.9668968
 127.4779992  61.9789978 136.7010014 126.9639992  61.8539978 137.4990014
 127.3219992  62.8919978 136.4570014 127.3866967  62.0852123 136.7770937
 128.2399992  66.8399978 122.4630014 128.2819992  66.6179978 121.5330014
 129.0889992  67.2389978 122.6530014 128.3605253  66.8635498 122.3613822
 123.8129992  60.7159978 123.1330014 123.5589992  60.7349978 124.0560014
 123.5559992  59.8449978 122.8320014 123.7435133  60.6008110 123.2185082
 119.5789992  63.4669978 133.5680014 118.9379992  63.4269978 134.2770014
 119.6169992  64.3939978 133.3310014 119.4963670  63.5867795 133.6330550
 119.5759992  63.6879978 128.4800014 118.6839992  63.3479978 128.4220014
 120.0269992  63.3109978 127.7250014 119.5146815  63.5903762 128.3699203
 125.1119992  64.1039978 127.2970014 124.7029992  64.9189978 127.0060014
 125.8319992  63.9639978 126.6830014 125.1534013  64.1966571 127.1740875
 124.2139992  64.2799978 138.7850014 123.6509992  63.5749978 139.1060014
 125.0399992  64.1589978 139.2530014 124.2486674  64.1672165 138.8921751
 126.1169992  63.5499978 130.1110014 125.9209992  64.1559978 129.3960014
 126.2979992  62.7169978 129.6770014 126.1146584  63.5202513 129.9544212
 117.3289992  63.7879978 135.4350014 117.2909992  64.1879978 136.3040014
 116.8389992  62.9709978 135.5260014 117.2575621  63.7322510 135.5661377
 120.6949992  61.1619978 122.2340014 120.2639992  60.7169978 122.9640014
 119.9769992  61.5329978 121.7220014 120.5389363  61.1512968 122.2646211
 113.9379992  60.9039978 129.2860014 114.5679992  60.8749978 130.0050014
 114.3869992  60.4789978 128.5560014 114.0850692  60.8425316 129.2857771
 115.2119992  61.6499978 124.7100014 115.6859992  62.2409978 124.1250014
 114.4939992  62.1799978 125.0570014 115.1798640  61.8025511 124.6767969
 125.3809992  65.1879978 134.7830014 125.7039992  64.5569978 134.1400014
 124.9399992  64.6539978 135.4430014 125.3655789  65.0293522 134.7842232
 122.1579992  61.1159978 129.5670014 121.2469992  61.1729978 129.8550014
 122.6629992  61.0559978 130.3770014 122.1015387  61.1156870 129.7160646
 116.9859992  62.7449978 128.3930014 116.0969992  62.8439978 128.0530014
 117.2829992  61.9029978 128.0470014 116.9044177  62.6447687 128.2996940
 120.6389992  62.7449978 126.0500014 121.5709992  62.8739978 126.2280014
 120.4239992  63.4139978 125.4000014 120.7374472  62.8530806 125.9864891
 126.5629992  60.3509978 132.8310014 125.8859992  60.4819978 133.4950014
 126.0779992  60.1959978 132.0210014 126.4047265  60.3479659 132.8123397
 119.3129992  63.9389978 123.6170014 118.7709992  63.5599978 122.9250014
 120.1469992  64.1339978 123.1880014 119.3515159  63.9135076 123.4644419
 129.8509992  76.0219978 139.1080014 130.0499992  76.4459978 138.2730014
 130.5059992  76.3659978 139.7150014 129.9668501  76.1266091 139.0757097
 117.4489992  68.4959978 138.7160014 118.1809992  68.7509978 139.2770014
 116.6679992  68.7009978 139.2310014 117.4437684  68.5586468 138.8624782
 123.4779992  63.9029978 131.4540014 124.0419992  63.3569978 130.9070014
 123.3299992  63.3819978 132.2420014 123.5352575  63.7576552 131.4856987
 118.4799992  60.0399978 127.8720014 118.1629992  59.1369978 127.8370014
 119.2609992  60.0419978 127.3190014 118.5422307  59.9166951 127.7924314
 122.1039992  62.2919978 133.8680014 121.2689992  62.7459978 133.9780014
 122.6279992  62.5679978 134.6200014 122.0605070  62.3914666 133.9847152
 122.6489992  68.5049978 125.5520014 121.9039992  67.9969978 125.2300014
 122.5139992  68.5539978 126.4990014 122.5289047  68.4421596 125.6358845
 129.7989992  67.6379978 134.3390014 130.4399992  68.0939978 133.7950014
 128.9679992  67.7509978 133.8770014 129.7745171  67.7157502 134.2020237
 126.5459992  61.3189978 123.7520014 125.6079992  61.4299978 123.6000014
 126.8439992  62.1749978 124.0580014 126.4576402  61.4500621 123.7725571
 124.1679992  68.6889978 136.7890014 123.8219992  68.3069978 137.5960014
 123.9679992  69.6219978 136.8610014 124.0936523  68.7629095 136.9090735
 127.2649992  63.1859978 125.4120014 128.1569992  63.0479978 125.7310014
 127.3209992  63.9769978 124.8760014 127.3947107  63.2740526 125.3832091
 117.7729992  67.7999978 131.3220014 118.5179992  67.7969978 130.7210014
 117.8509992  66.9759978 131.8040014 117.8854158  67.6882916 131.3049153
 124.7739992  69.9629978 124.5780014 124.4789992  70.7899978 124.9590014
 124.0709992  69.3439978 124.7740014 124.6385471  69.9925227 124.6566698
 114.7809992  66.2599978 136.6370014 115.0039992  65.8419978 137.4690014
 114.1789992  65.6479978 136.2140014 114.7301260  66.1199933 136.6937320
 121.7979992  65.7769978 138.8500014 121.5019992  65.6119978 137.9550014
 122.7289992  65.5569978 138.8390014 121.8833982  65.7246578 138.7260045
 126.4179992  71.1509978 136.7400014 125.5179992  71.3339978 136.4720014
 126.4519992  71.4099978 137.6610014 126.2992909  71.2110815 136.8277852
 132.1499992  63.3949978 125.1070014 131.5949992  62.9989978 124.4350014
 132.2499992  64.3059978 124.8290014 132.0875888  63.4638990 124.9775206
 132.1129992  69.1959978 137.9440014 131.2619992  69.4339978 137.5770014
 132.7029992  69.1789978 137.1910014 132.0762408  69.2262966 137.7918879
 130.4449992  72.1809978 125.5720014 130.0719992  71.3559978 125.8810014
 130.7219992  71.9979978 124.6750014 130.4313871  72.0432441 125.4929677
 127.6049992  66.9889978 132.5930014 126.6769992  66.7579978 132.5660014
 128.0559992  66.2119978 132.2630014 127.5388165  66.8522774 132.5446790
 120.1479992  71.3179978 128.7260014 120.6759992  72.0909978 128.5260014
 119.2679992  71.5419978 128.4250014 120.1013176  71.4543161 128.6578409
 115.9029992  66.1799978 123.3140014 116.5189992  66.8069978 123.6930014
 115.0409992  66.4959978 123.5850014 115.8708195  66.3085798 123.4025386
 121.5759992  68.9809978 128.3030014 121.3349992  69.9059978 128.3440014
 120.8349992  68.5219978 128.6990014 121.4428390  69.0456403 128.3621404
 122.0899992  73.1299978 134.6180014 122.4529992  73.9839978 134.3840014
 122.6219992  72.8379978 135.3580014 122.2116090  73.2074058 134.6860219
 120.2589992  74.0019978 127.8480014 119.3089992  74.1079978 127.8990014
 120.6109992  74.8229978 128.1930014 120.1765480  74.1274438 127.9015999
 125.6339992  69.2289978 134.3180014 125.2089992  69.0009978 135.1450014
 126.2149992  68.4899978 134.1360014 125.6543930  69.0979843 134.4064732
 127.8369992  70.1579978 123.3920014 128.1909992  69.7779978 124.1970014
 126.8889992  70.0639978 123.4790014 127.7571820  70.0933092 123.5138714
 128.2929992  73.7809978 136.7880014 127.6909992  73.2249978 136.2920014
 128.5739992  74.4479978 136.1620014 128.2486829  73.7951613 136.6355443
 132.3409992  74.6369978 123.5930014 133.0849992  75.2229978 123.4530014
 131.6469992  75.2059978 123.9270014 132.3490201  74.7940603 123.6189772
 116.4149992  61.0139978 136.1950014 115.5229992  61.3519978 136.1280014
 116.3169992  60.1579978 136.6130014 116.2794965  60.9446499 136.2423044
 128.7029992  68.8299978 125.6190014 128.4259992  68.1019978 126.1750014
 129.6309992  68.9489978 125.8240014 128.7904499  68.7464213 125.7228044
 116.0669992  72.8179978 134.6300014 116.2839992  71.8859978 134.5990014
 116.3129992  73.0929978 135.5130014 116.1299809  72.7275686 134.7451691
 121.9279992  71.2699978 121.8390014 122.1669992  70.5209978 121.2920014
 121.6589992  70.8819978 122.6720014 121.9243233  71.1151853 121.8767809
 120.8649992  70.8399978 124.2960014 121.0119992  70.3199978 125.0860014
 120.8619992  71.7469978 124.6020014 120.8847300  70.8913964 124.4455895
 117.3179992  68.0919978 124.8060014 116.6319992  68.4449978 125.3730014
 117.8409992  68.8549978 124.5600014 117.2949033  68.2433746 124.8502661
 125.1499992  60.7549978 135.0850014 125.8489992  60.8289978 135.7350014
 124.7689992  59.8899978 135.2390014 125.1942097  60.6482389 135.1947997
 125.9339992  60.4069978 126.1820014 126.1539992  60.8779978 125.3790014
 126.4929992  60.8009978 126.8520014 126.0396730  60.5247432 126.1625906
 123.6029992  72.5369978 125.0450014 122.7859992  73.0339978 125.0970014
 124.1319992  73.0129978 124.4050014 123.5628508  72.6692543 124.9656035
 123.1339992  62.1349978 127.0170014 123.9459992  62.6389978 127.0630014
 122.8899992  61.9899978 127.9310014 123.2121467  62.1843749 127.1468575
 123.6699992  63.1209978 136.2020014 123.7889992  63.6949978 136.9590014
 124.3249992  62.4329978 136.3160014 123.7749146  63.1065574 136.3211313
 124.0179992  59.2159978 127.9550014 123.6709992  59.8329978 128.6000014
 124.6769992  59.7169978 127.4740014 124.0595949  59.3681099 127.9782271
 120.9409992  73.5809978 125.0270014 121.1019992  74.3809978 124.5260014
 120.7439992  73.8879978 125.9120014 120.9363919  73.7319129 125.0781006
 119.6759992  60.2789978 124.6420014 119.5919992  61.1669978 124.9890014
 120.5659992  60.0139978 124.8740014 119.7848163  60.3647179 124.7208596
 129.8739992  61.0279978 137.0370014 128.9579992  61.2899978 136.9490014
 130.2099992  61.0249978 136.1400014 129.7939789  61.0634626 136.9037847
 128.4769992  64.7779978 131.1320014 127.6789992  64.3629978 130.8040014
 128.9219992  64.0879978 131.6230014 128.4279684  64.6278628 131.1535227
 117.9339992  70.7059978 123.7030014 118.5259992  71.4059978 123.9790014
 118.3929992  70.2729978 122.9830014 118.0770791  70.7432908 123.6434607
 116.2499992  63.3709978 122.8190014 116.2049992  64.3099978 122.9970014
 115.3619992  63.1349978 122.5490014 116.1238555  63.4676874 122.8068939
 129.5629992  74.0339978 132.7550014 129.4069992  74.7129978 132.0980014
 130.4959992  74.1059978 132.9580014 129.6677387  74.1366390 132.6925342
 117.0579992  58.1519978 131.4920014 116.8289992  58.2109978 130.5640014
 116.6159992  57.3609978 131.7980014 116.9668801  58.0530540 131.4064729
 115.9889992  72.0929978 127.6520014 115.1559992  72.5649978 127.6800014
 116.5339992  72.6029978 127.0540014 115.9487590  72.2265897 127.5749194
 115.2769992  74.7049978 138.9820014 115.8169992  74.4889978 139.7420014
 114.7959992  73.8999978 138.7930014 115.2858613  74.5665400 139.0604782
 119.8739992  73.6249978 140.6030014 120.6419992  73.1659978 140.9440014
 119.8529992  73.3989978 139.6730014 119.9762135  73.5316668 140.5239491
 123.9659992  73.1329978 121.9780014 123.3219992  72.5019978 122.2990014
 124.7279992  72.6019978 121.7460014 123.9808058  72.9747902 121.9906038
 126.4509992  72.0049978 139.3320014 126.0999992  71.1479978 139.5750014
 127.1769992  72.1469978 139.9390014 126.5011590  71.9070178 139.4472907
 128.5709992  72.9499978 122.2120014 128.8539992  72.1549978 122.6640014
 129.3099992  73.1829978 121.6510014 128.7096956  72.8727031 122.1979821
 115.1839992  68.5159978 139.9370014 115.3279992  67.6139978 139.6500014
 114.4119992  68.8019978 139.4490014 115.0993303  68.4313243 139.8317908
 119.5249992  68.8589978 122.0690014 119.5899992  68.0649978 122.6000014
 120.1779992  68.7409978 121.3790014 119.6221754  68.7343337 122.0484259
 121.8389992  68.4849978 139.3690014 121.5109992  68.7559978 138.5120014
 121.9909992  67.5439978 139.2820014 121.8146030  68.3948973 139.2397945
 124.8779992  69.9059978 121.8050014 124.6089992  70.0869978 122.7060014
 124.6709992  68.9809978 121.6740014 124.8132000  69.8056774 121.9105693
 127.5739992  68.4009978 136.7530014 128.3189992  68.9899978 136.6330014
 126.8169992  68.9829978 136.8160014 127.5735205  68.5601997 136.7451119
 116.0169992  65.7159978 139.3570014 116.4249992  64.8589978 139.2360014
 115.7559992  65.7299978 140.2780014 116.0376016  65.6005119 139.4649192
 120.6749992  66.8319978 124.3750014 120.2149992  66.3479978 125.0610014
 120.9299992  66.1629978 123.7390014 120.6465038  66.6753689 124.3829447
 119.9639992  64.7249978 136.7310014 119.3449992  65.3989978 137.0110014
 120.3079992  65.0459978 135.8980014 119.9257605  64.8607198 136.6566707
 121.7459992  65.0749978 122.6370014 121.5649992  64.9199978 121.7100014
 122.6959992  65.1829978 122.6820014 121.8496566  65.0683669 122.5160929
 124.9829992  67.1959978 140.0080014 125.9369992  67.2799978 139.9810014
 124.8229992  66.4839978 140.6280014 125.0917182  67.1112842 140.0880733
 131.1359992  67.4289978 122.0830014 130.8619992  67.0049978 121.2700014
 131.1749992  68.3609978 121.8660014 131.1037716  67.4968827 121.9424286
 120.3029992  62.0799978 137.8130014 120.4529992  61.3509978 137.2110014
 120.3049992  62.8569978 137.2540014 120.3237967  62.0852708 137.6550541
 120.7159992  60.4489978 135.3060014 121.2509992  60.9009978 134.6540014
 119.8629992  60.3409978 134.8830014 120.6740374  60.4962665 135.1596710
 122.2969992  65.8889978 135.5450014 123.0479992  65.7329978 134.9720014
 121.9579992  66.7409978 135.2700014 122.3539587  65.9828138 135.4294078
 126.7129992  63.7039978 140.5740014 126.9049992  62.7729978 140.4620014
 127.5709992  64.1289978 140.5640014 126.8552269  63.6339928 140.5573192
 128.0299992  66.4929978 138.6510014 127.7479992  67.2019978 138.0740014
 128.9719992  66.4199978 138.5000014 128.1187656  66.5803128 138.5514809
 118.7819992  63.2779978 139.7250014 118.0139992  62.7449978 139.5150014
 119.4599992  62.9679978 139.1250014 118.7686973  63.1632375 139.6151796
 121.5209992  57.9059978 135.7370014 121.4229992  58.8519978 135.6320014
 120.7789992  57.5329978 135.2620014 121.4071913  57.9851813 135.6583539
 122.7849992  62.2269978 139.3010014 122.5499992  62.0079978 140.2030014
 122.0019992  62.0199978 138.7910014 122.6469219  62.1690066 139.3555852
 125.5009992  61.3549978 138.3770014 124.5529992  61.3869978 138.5090014
 125.8129992  60.7289978 139.0300014 125.4135190  61.2747262 138.4833564
 127.1349992  59.9889978 140.3820014 127.0379992  59.0369978 140.3760014
 126.8129992  60.2569978 141.2420014 127.0781761  59.8949744 140.4974936
 116.9619992  61.1979978 139.4290014 117.1739992  60.4919978 138.8190014
 116.8509992  60.7609978 140.2730014 116.9760269  61.0421921 139.4595873
 121.7429992  57.1999978 138.4090014 122.4549992  56.5599978 138.3950014
 121.6419992  57.4659978 137.4950014 121.8267261  57.1484190 138.2835537
 122.0969992  58.8819978 140.4620014 121.9649992  58.4069978 139.6420014
 121.4969992  59.6269978 140.4070014 121.9979070  58.9175789 140.3423251
 121.6429992  75.7649978 123.6390014 122.5759992  75.9229978 123.7820014
 121.3789992  76.4409978 123.0140014 121.7349308  75.8779104 123.5741396
 115.2109992  70.4019978 123.1210014 116.1249992  70.4809978 123.3950014
 115.2189992  69.7149978 122.4550014 115.3371143  70.3199085 123.0684274
 113.8599992  75.7949978 128.1990014 113.2129992  75.3329978 127.6660014
 114.2149992  75.1229978 128.7810014 113.8194506  75.6409503 128.2047341
 114.7299992  73.8749978 130.0030014 114.3959992  72.9949978 130.1750014
 114.9529992  74.2209978 130.8680014 114.7143721  73.8011938 130.1434168
 132.2789992  74.6849978 132.9840014 132.2569992  74.8699978 133.9230014
 132.9689992  75.2529978 132.6430014 132.3693439  74.7871887 133.0664791
 131.8419992  74.2519978 135.9060014 131.3549992  73.5169978 135.5350014
 132.3909992  73.8579978 136.5840014 131.8495247  74.0981057 135.9468461
 130.2929992  70.0419978 140.5440014 129.4269992  69.9369978 140.9380014
 130.6689992  70.7999978 140.9900014 130.2253401  70.1301708 140.6582620
 131.5939992  68.2979978 126.0580014 132.4439992  68.7189978 126.1850014
 131.5989992  67.5579978 126.6650014 131.7111143  68.2556094 126.1574750
 131.9879992  66.3519978 127.8820014 131.2619992  65.8719978 128.2790014
 132.5699992  66.5569978 128.6140014 131.9671635  66.3139166 128.0353748
 131.7469992  69.1369978 132.8290014 132.5809992  68.7589978 132.5490014
 131.8589992  70.0799978 132.7100014 131.8762522  69.2127742 132.7746020
 130.2339992  72.0149978 135.1360014 129.5859992  72.3399978 135.7620014
 129.7159992  71.5739978 134.4620014 130.0754168  71.9998523 135.1305307
 132.2569992  66.2529978 124.2730014 131.7349992  66.6089978 123.5540014
 132.2239992  66.9279978 124.9510014 132.1810699  66.3929848 124.2662129
 130.6059992  63.4919978 122.8240014 130.7019992  64.1589978 122.1440014
 130.4659992  62.6769978 122.3420014 130.6002063  63.4730667 122.6658377
 129.7749992  64.8729978 128.4450014 129.6249992  63.9279978 128.4240014
 129.4209992  65.1539978 129.2880014 129.7065527  64.7815605 128.5561859
 114.8099992  66.9509978 132.4550014 114.9949992  66.8689978 131.5190014
 115.6599992  66.8269978 132.8790014 114.9500916  66.9230393 132.3842896
 130.6309992  66.8429978 138.0830014 131.2139992  66.1079978 138.2750014
 131.1949992  67.6149978 138.1300014 130.7869781  66.8468145 138.1156164
 132.1279992  64.7459978 138.7680014 131.2649992  64.3669978 138.6020014
 132.7319992  64.0069978 138.6940014 132.0915944  64.5942978 138.7352984
 129.8529992  60.8999978 121.9410014 130.4639992  60.5289978 122.5780014
 129.0159992  60.4789978 122.1370014 129.8234947  60.7922756 122.0547252
 129.4859992  62.4549978 126.9070014 129.7649992  61.5479978 127.0310014
 130.2449992  62.8889978 126.5180014 129.6268619  62.3894502 126.8713795
 130.0969992  63.0369978 132.3430014 131.0299992  63.2489978 132.3090014
 129.8619992  63.1379978 133.2650014 130.1928308  63.0796503 132.4630214
 130.1269992  63.7739978 135.1190014 129.2839992  64.0419978 135.4850014
 130.5689992  64.5959978 134.9080014 130.0714138  63.9218273 135.1405518
 114.4079992  62.2209978 138.5960014 115.3269992  62.0989978 138.8320014
 113.9579992  61.4709978 138.9850014 114.4731148  62.1028751 138.6809408
 132.4099992  57.7539978 140.4720014 132.7589992  57.0999978 139.8670014
 132.5569992  58.5909978 140.0330014 132.4777355  57.7776067 140.3296564
 130.0989992  59.7179978 126.9550014 130.2809992  59.2689978 127.7810014
 129.4989992  59.1339978 126.4920014 130.0427529  59.5776131 127.0053619
 115.6289992  60.5339978 131.4870014 116.0739992  59.7419978 131.7890014
 116.0949992  61.2499978 131.9180014 115.7529059  60.5224474 131.5866079
 113.9329992  63.5329978 132.5560014 114.4249992  63.3119978 131.7650014
 114.2949992  64.3729978 132.8370014 114.0492923  63.6163468 132.4857407
 131.9289992  59.8629978 138.8220014 131.0119992  60.1339978 138.7860014
 132.0519992  59.3279978 138.0380014 131.8200828  59.8277700 138.7110785
 131.9659992  59.7859978 123.4830014 132.3779992  59.0649978 123.0080014
 132.6469992  60.4549978 123.5420014 132.1145900  59.7777306 123.4259038
 114.2469992  59.7909978 126.6100014 113.3219992  59.9989978 126.4810014
 114.7009992  60.2749978 125.9210014 114.1816374  59.8849949 126.4990957
 129.0169992  74.7749978 128.5560014 129.6699992  74.4269978 127.9480014
 129.5279992  75.2629978 129.2020014 129.1752777  74.7933815 128.5602047
 114.2099992  58.5289978 134.9550014 113.5449992  58.2829978 135.5980014
 113.7669992  59.1509978 134.3770014 114.0590937  58.5793614 134.9649379
 116.4019992  71.7039978 139.0990014 115.5809992  71.8789978 138.6390014
 116.1499992  71.6309978 140.0200014 116.2556173  71.7180794 139.1604972
 119.3559992  72.6779978 135.3580014 118.9319992  73.4879978 135.0750014
 120.2609992  72.7639978 135.0560014 119.4202433  72.8003331 135.2785377
 123.6679992  74.0769978 138.3170014 123.8519992  73.7439978 139.1950014
 124.5139992  74.3869978 137.9950014 123.8076484  74.0732979 138.3937617
 126.0129992  75.3629978 137.5610014 126.6899992  74.7299978 137.3210014
 126.3339992  75.7639978 138.3680014 126.1491323  75.3305691 137.6373158
 130.9299992  57.9529978 136.6410014 130.1169992  58.2779978 136.2530014
 131.1629992  57.1919978 136.1080014 130.8502566  57.8946559 136.5159213
 116.7579992  75.9349978 135.4050014 116.0379992  76.3749978 134.9540014
 116.3929992  75.6839978 136.2540014 116.6099796  75.9613824 135.4579329
 119.2249992  75.5349978 134.4350014 118.3609992  75.6069978 134.8390014
 119.1699992  76.0819978 133.6510014 119.0991942  75.6187849 134.3844000
 123.9359992  75.4229978 133.6100014 123.4789992  75.9519978 132.9560014
 124.0989992  76.0259978 134.3360014 123.8954476  75.5769140 133.6185499
 126.2639992  74.3009978 134.5550014 125.3589992  74.4659978 134.2900014
 126.6919992  75.1539978 134.4900014 126.1980700  74.4389529 134.5099520
 128.8679992  75.8709978 134.8500014 128.6859992  76.7869978 134.6400014
 129.0449992  75.4599978 134.0040014 128.8669907  75.9409741 134.7067883
 116.1729992  74.5579978 132.3150014 116.1549992  74.1319978 133.1730014
 116.9779992  74.2389978 131.9070014 116.2793221  74.4567233 132.3770225
 118.3139992  73.2679978 130.9700014 118.0949992  72.3509978 131.1400014
 119.1379992  73.4079978 131.4360014 118.3954702  73.1615511 131.0562527
 120.8509992  73.7379978 131.8190014 121.0639992  72.8499978 131.5320014
 120.9159992  73.7029978 132.7740014 120.8889075  73.6118307 131.9087373
 124.3599992  59.4019978 130.9630014 123.6859992  58.7719978 131.2190014
 124.9239992  58.9179978 130.3600014 124.3440384  59.2503708 130.9165020
 129.5029992  57.5089978 131.0760014 130.1059992  58.0569978 130.5740014
 128.6329992  57.8279978 130.8360014 129.4679190  57.6271041 130.9748679
 131.2299992  58.6479978 129.4090014 131.8409992  58.1339978 128.8830014
 131.6119992  59.5249978 129.4330014 131.3654475  58.6961323 129.3401208
 116.6869992  58.0359978 128.7850014 115.9099992  57.8009978 128.2780014
 117.2169992  57.2389978 128.7940014 116.6523451  57.8961268 128.7168627
 115.5229992  57.8339978 124.5890014 115.9619992  58.4449978 123.9970014
 114.8889992  58.3719978 125.0630014 115.4973859  57.9904064 124.5720305
 121.2659992  57.9619978 128.5990014 122.1399992  58.3509978 128.5690014
 121.1299992  57.7469978 129.5210014 121.3673207  57.9861923 128.7196509
 126.8229992  57.9919978 130.2480014 126.8989992  58.0879978 129.2990014
 126.5479992  57.0849978 130.3770014 126.7962042  57.8824241 130.1353811
 128.1759992  58.0179978 125.9400014 127.4729992  58.6329978 125.7310014
 127.7309992  57.1809978 126.0720014 128.0196292  57.9890085 125.9292439
 115.4239992  73.7819978 125.4870014 114.7389992  73.7439978 124.8190014
 115.4279992  74.6949978 125.7750014 115.3308174  73.9001998 125.4345310
 117.3839992  59.7499978 123.0310014 117.8749992  59.1199978 122.5040014
 118.0069992  60.0459978 123.6950014 117.5355062  59.7036770 123.0485438
 122.4099992  60.0429978 125.4890014 122.5879992  59.3959978 126.1710014
 122.3559992  60.8769978 125.9560014 122.4271025  60.0670504 125.6456433
 124.2879992  74.9909978 123.8840014 125.1539992  75.3579978 123.7060014
 124.0419992  74.5519978 123.0700014 124.3732097  74.9818525 123.7496019
 130.9969992  74.5539978 126.5630014 130.8029992  73.8059978 125.9980014
 130.9579992  75.3119978 125.9800014 130.9651645  74.5540786 126.4068148
 116.6439992  58.5499978 138.3030014 116.2779992  57.7839978 138.7460014
 117.5569992  58.5789978 138.5900014 116.7173225  58.4491906 138.4023459
 118.6169992  57.8999978 139.8390014 119.5159992  57.6259978 139.6540014
 118.2309992  57.1579978 140.3030014 118.6877237  57.7621508 139.8764710
 117.2419992  74.7019978 122.5120014 116.9739992  74.9879978 123.3850014
 118.0129992  74.1559978 122.6640014 117.3095600  74.6673330 122.6521499
 127.0389992  57.2329978 140.0210014 127.1149992  56.8069978 140.8750014
 127.9319992  57.2459978 139.6780014 127.1702267  57.1763952 140.0915932
 130.2149992  73.3059978 138.7130014 129.4329992  73.1189978 138.1940014
 130.1429992  74.2349978 138.9310014 130.0980863  73.4060221 138.6713574
 144.6209992  67.1919978 128.7440014 144.7099992  68.1359978 128.6120014
 143.9829992  66.9169978 128.0860014 144.5469062  67.2839812 128.6369641
 143.5539992  66.4469978 132.1630014 143.5159992  65.8009978 132.8680014
 143.2319992  65.9799978 131.3920014 143.5052679  66.2954276 132.1552921
 135.9219992  66.0609978 133.7560014 135.9639992  65.4359978 134.4790014
 136.6249992  66.6849978 133.9380014 136.0227345  66.0597873 133.8795274
 136.8459992  70.5109978 132.2910014 136.4759992  69.7089978 131.9210014
 137.7869992  70.3429978 132.3370014 136.9225984  70.3784638 132.2465603
 133.4559992  64.1709978 127.6840014 133.0079992  65.0169978 127.6650014
 132.8949992  63.5919978 127.1680014 133.3189603  64.2083674 127.6116720
 134.1659992  66.3329978 129.8100014 134.3799992  65.5629978 130.3370014
 134.9039992  66.4229978 129.2060014 134.2949652  66.2398012 129.8005212
 144.3719992  74.4899978 130.6770014 144.9909992  73.8139978 130.4030014
 144.1629992  74.2719978 131.5850014 144.4286232  74.3677938 130.7622517
 141.9429992  68.8789978 132.5690014 142.2469992  68.1929978 131.9750014
 142.6649992  68.9979978 133.1870014 142.0821152  68.8012189 132.5712123
 145.0839992  63.2729978 132.8970014 145.2269992  62.3269978 132.9170014
 144.9779992  63.4799978 131.9680014 145.0892509  63.1714813 132.7742231
 138.2389992  61.3749978 130.1690014 138.2819992  62.2349978 129.7510014
 137.7809992  60.8229978 129.5350014 138.1829815  61.4180621 130.0261197
 134.8589992  63.7719978 130.9310014 135.5129992  63.2219978 131.3630014
 134.8829992  63.4979978 130.0140014 134.9517199  63.6597167 130.8661668
 140.0159992  65.3219978 130.1460014 140.6319992  64.7949978 130.6560014
 139.4289992  64.6819978 129.7430014 140.0209239  65.1634117 130.1612952
 137.0489992  60.2929978 134.2430014 136.8299992  60.8229978 133.4770014
 136.3809992  60.5189978 134.8900014 136.9287001  60.3961154 134.2256064
 144.4179992  69.7929978 127.7870014 144.1229992  69.4699978 126.9360014
 144.0939992  70.6929978 127.8280014 144.3337983  69.8704027 127.6759771
 139.6179992  67.9679978 134.5310014 138.8779992  68.5669978 134.6340014
 140.3319992  68.5219978 134.2150014 139.6133288  68.1247356 134.5023805
 136.6429992  62.1849978 132.1950014 137.2569992  62.8179978 132.5690014
 137.1549992  61.7129978 131.5390014 136.7962277  62.2077352 132.1574279
 138.0259992  69.9329978 135.3180014 138.0199992  70.8119978 134.9400014
 137.1719992  69.8489978 135.7430014 137.9097925  70.0419535 135.3236887
 134.1469992  69.6039978 126.1000014 133.8749992  69.8329978 125.2110014
 134.1919992  70.4409978 126.5600014 134.1158709  69.7486058 126.0406107
 141.0759992  57.5979978 131.6960014 140.9579992  56.6499978 131.6410014
 140.2209992  57.9309978 131.9690014 140.9442679  57.5131926 131.7253720
 143.3419992  66.4359978 126.1960014 142.6309992  66.9709978 125.8440014
 144.0329992  66.4909978 125.5360014 143.3380751  66.5166777 126.0585858
 143.3959992  64.8929978 123.2350014 144.0969992  64.9159978 123.8860014
 143.6979992  64.2649978 122.5790014 143.5328282  64.8112339 123.2354496
 138.3929992  67.2759978 129.0300014 138.0629992  66.9049978 128.2120014
 138.9819992  66.6049978 129.3770014 138.4273970  67.1346063 128.9649404
 139.7599992  70.7039978 131.7120014 139.6649992  70.1249978 130.9550014
 140.4889992  70.3329978 132.2080014 139.8456161  70.5745891 131.6755209
 138.7599992  66.0439978 132.6640014 139.3249992  66.1659978 131.9010014
 139.0789992  66.6819978 133.3030014 138.8803977  66.1468851 132.6459424
 145.0689992  71.5479978 133.3980014 144.8289992  72.2099978 134.0460014
 144.8709992  70.7129978 133.8230014 145.0093826  71.5258115 133.5441566
 139.6399992  70.4439978 137.3810014 139.3289992  71.2259978 137.8360014
 138.9899992  70.2909978 136.6950014 139.5095538  70.5304087 137.3505898
 136.5599992  66.6419978 136.6100014 136.6299992  67.2929978 137.3080014
 135.6689992  66.7449978 136.2750014 136.4491802  66.7449757 136.6602249
 143.3449992  72.5439978 128.2680014 143.8189992  72.8399978 129.0460014
 142.7819992  73.2829978 128.0350014 143.3337361  72.6842721 128.3428611
 137.8789992  72.5149978 138.1440014 137.8869992  72.3789978 137.1970014
 136.9629992  72.3979978 138.3960014 137.7562528  72.4805463 138.0483243
 137.3839992  66.3449978 126.6200014 137.0919992  67.1129978 126.1290014
 136.7089992  65.6859978 126.4570014 137.2528497  66.3609745 126.5308260
 133.4769992  68.7079978 135.4350014 132.9749992  68.6799978 134.6200014
 133.4819992  67.8029978 135.7440014 133.4090416  68.5817368 135.3653766
 133.2269992  71.4889978 132.3190014 134.1729992  71.3439978 132.3000014
 133.1139992  72.2729978 132.8560014 133.3413578  71.5751697 132.3890317
 142.4029992  71.7289978 136.8770014 142.4909992  72.5549978 137.3520014
 141.5399992  71.3989978 137.1260014 142.2983357  71.7975468 136.9757653
 142.8179992  75.5009978 126.6830014 142.7419992  75.3799978 125.7370014
 142.8499992  76.4499978 126.8020014 142.8119156  75.6127530 126.5695048
 136.4709992  74.2899978 128.4640014 136.6229992  73.9419978 129.3430014
 135.6199992  73.9329978 128.2090014 136.3767899  74.1941738 128.5497340
 135.7259992  70.0319978 136.4780014 135.9419992  69.6699978 137.3370014
 134.8699992  69.6569978 136.2680014 135.6399354  69.9317906 136.5672160
 138.3439992  58.5019978 132.4730014 137.4829992  58.4149978 132.0660014
 138.3219992  59.3579978 132.9010014 138.2230411  58.6057884 132.4750857
 143.0069992  58.2239978 135.8480014 143.4269992  57.8089978 136.6010014
 142.0739992  58.0449978 135.9650014 142.9383736  58.1429910 135.9668968
 142.6689992  60.7159978 123.1330014 142.4149992  60.7349978 124.0560014
 142.4119992  59.8449978 122.8320014 142.5995133  60.6008110 123.2185082
 138.4349992  63.4669978 133.5680014 137.7939992  63.4269978 134.2770014
 138.4729992  64.3939978 133.3310014 138.3523670  63.5867795 133.6330550
 138.4319992  63.6879978 128.4800014 137.5399992  63.3479978 128.4220014
 138.8829992  63.3109978 127.7250014 138.3706815  63.5903762 128.3699203
 143.9679992  64.1039978 127.2970014 143.5589992  64.9189978 127.0060014
 144.6879992  63.9639978 126.6830014 144.0094013  64.1966571 127.1740875
 143.0699992  64.2799978 138.7850014 142.5069992  63.5749978 139.1060014
 143.8959992  64.1589978 139.2530014 143.1046674  64.1672165 138.8921751
 144.9729992  63.5499978 130.1110014 144.7769992  64.1559978 129.3960014
 145.1539992  62.7169978 129.6770014 144.9706584  63.5202513 129.9544212
 136.1849992  63.7879978 135.4350014 136.1469992  64.1879978 136.3040014
 135.6949992  62.9709978 135.5260014 136.1135621  63.7322510 135.5661377
 139.5509992  61.1619978 122.2340014 139.1199992  60.7169978 122.9640014
 138.8329992  61.5329978 121.7220014 139.3949363  61.1512968 122.2646211
 132.7939992  60.9039978 129.2860014 133.4239992  60.8749978 130.0050014
 133.2429992  60.4789978 128.5560014 132.9410692  60.8425316 129.2857771
 134.0679992  61.6499978 124.7100014 134.5419992  62.2409978 124.1250014
 133.3499992  62.1799978 125.0570014 134.0358640  61.8025511 124.6767969
 144.2369992  65.1879978 134.7830014 144.5599992  64.5569978 134.1400014
 143.7959992  64.6539978 135.4430014 144.2215789  65.0293522 134.7842232
 141.0139992  61.1159978 129.5670014 140.1029992  61.1729978 129.8550014
 141.5189992  61.0559978 130.3770014 140.9575387  61.1156870 129.7160646
 135.8419992  62.7449978 128.3930014 134.9529992  62.8439978 128.0530014
 136.1389992  61.9029978 128.0470014 135.7604177  62.6447687 128.2996940
 139.4949992  62.7449978 126.0500014 140.4269992  62.8739978 126.2280014
 139.2799992  63.4139978 125.4000014 139.5934472  62.8530806 125.9864891
 145.4189992  60.3509978 132.8310014 144.7419992  60.4819978 133.4950014
 144.9339992  60.1959978 132.0210014 145.2607265  60.3479659 132.8123397
 138.1689992  63.9389978 123.6170014 137.6269992  63.5599978 122.9250014
 139.0029992  64.1339978 123.1880014 138.2075159  63.9135076 123.4644419
 136.3049992  68.4959978 138.7160014 137.0369992  68.7509978 139.2770014
 135.5239992  68.7009978 139.2310014 136.2997684  68.5586468 138.8624782
 142.3339992  63.9029978 131.4540014 142.8979992  63.3569978 130.9070014
 142.1859992  63.3819978 132.2420014 142.3912575  63.7576552 131.4856987
 137.3359992  60.0399978 127.8720014 137.0189992  59.1369978 127.8370014
 138.1169992  60.0419978 127.3190014 137.3982307  59.9166951 127.7924314
 140.9599992  62.2919978 133.8680014 140.1249992  62.7459978 133.9780014
 141.4839992  62.5679978 134.6200014 140.9165070  62.3914666 133.9847152
 141.5049992  68.5049978 125.5520014 140.7599992  67.9969978 125.2300014
 141.3699992  68.5539978 126.4990014 141.3849047  68.4421596 125.6358845
 145.4019992  61.3189978 123.7520014 144.4639992  61.4299978 123.6000014
 145.6999992  62.1749978 124.0580014 145.3136402  61.4500621 123.7725571
 143.0239992  68.6889978 136.7890014 142.6779992  68.3069978 137.5960014
 142.8239992  69.6219978 136.8610014 142.9496523  68.7629095 136.9090735
 136.6289992  67.7999978 131.3220014 137.3739992  67.7969978 130.7210014
 136.7069992  66.9759978 131.8040014 136.7414158  67.6882916 131.3049153
 143.6299992  69.9629978 124.5780014 143.3349992  70.7899978 124.9590014
 142.9269992  69.3439978 124.7740014 143.4945471  69.9925227 124.6566698
 133.6369992  66.2599978 136.6370014 133.8599992  65.8419978 137.4690014
 133.0349992  65.6479978 136.2140014 133.5861260  66.1199933 136.6937320
 140.6539992  65.7769978 138.8500014 140.3579992  65.6119978 137.9550014
 141.5849992  65.5569978 138.8390014 140.7393982  65.7246578 138.7260045
 145.2739992  71.1509978 136.7400014 144.3739992  71.3339978 136.4720014
 145.3079992  71.4099978 137.6610014 145.1552909  71.2110815 136.8277852
 139.0039992  71.3179978 128.7260014 139.5319992  72.0909978 128.5260014
 138.1239992  71.5419978 128.4250014 138.9573176  71.4543161 128.6578409
 134.7589992  66.1799978 123.3140014 135.3749992  66.8069978 123.6930014
 133.8969992  66.4959978 123.5850014 134.7268195  66.3085798 123.4025386
 140.4319992  68.9809978 128.3030014 140.1909992  69.9059978 128.3440014
 139.6909992  68.5219978 128.6990014 140.2988390  69.0456403 128.3621404
 140.9459992  73.1299978 134.6180014 141.3089992  73.9839978 134.3840014
 141.4779992  72.8379978 135.3580014 141.0676090  73.2074058 134.6860219
 139.1149992  74.0019978 127.8480014 138.1649992  74.1079978 127.8990014
 139.4669992  74.8229978 128.1930014 139.0325480  74.1274438 127.9015999
 144.4899992  69.2289978 134.3180014 144.0649992  69.0009978 135.1450014
 145.0709992  68.4899978 134.1360014 144.5103930  69.0979843 134.4064732
 135.2709992  61.0139978 136.1950014 134.3789992  61.3519978 136.1280014
 135.1729992  60.1579978 136.6130014 135.1354965  60.9446499 136.2423044
 134.9229992  72.8179978 134.6300014 135.1399992  71.8859978 134.5990014
 135.1689992  73.0929978 135.5130014 134.9859809  72.7275686 134.7451690
 140.7839992  71.2699978 121.8390014 141.0229992  70.5209978 121.2920014
 140.5149992  70.8819978 122.6720014 140.7803233  71.1151853 121.8767809
 139.7209992  70.8399978 124.2960014 139.8679992  70.3199978 125.0860014
 139.7179992  71.7469978 124.6020014 139.7407300  70.8913964 124.4455895
 136.1739992  68.0919978 124.8060014 135.4879992  68.4449978 125.3730014
 136.6969992  68.8549978 124.5600014 136.1509033  68.2433746 124.8502661
 144.0059992  60.7549978 135.0850014 144.7049992  60.8289978 135.7350014
 143.6249992  59.8899978 135.2390014 144.0502097  60.6482389 135.1947997
 144.7899992  60.4069978 126.1820014 145.0099992  60.8779978 125.3790014
 145.3489992  60.8009978 126.8520014 144.8956730  60.5247432 126.1625906
 142.4589992  72.5369978 125.0450014 141.6419992  73.0339978 125.0970014
 142.9879992  73.0129978 124.4050014 142.4188508  72.6692543 124.9656035
 141.9899992  62.1349978 127.0170014 142.8019992  62.6389978 127.0630014
 141.7459992  61.9899978 127.9310014 142.0681467  62.1843749 127.1468575
 142.5259992  63.1209978 136.2020014 142.6449992  63.6949978 136.9590014
 143.1809992  62.4329978 136.3160014 142.6309146  63.1065574 136.3211313
 142.8739992  59.2159978 127.9550014 142.5269992  59.8329978 128.6000014
 143.5329992  59.7169978 127.4740014 142.9155949  59.3681099 127.9782271
 139.7969992  73.5809978 125.0270014 139.9579992  74.3809978 124.5260014
 139.5999992  73.8879978 125.9120014 139.7923919  73.7319129 125.0781006
 138.5319992  60.2789978 124.6420014 138.4479992  61.1669978 124.9890014
 139.4219992  60.0139978 124.8740014 138.6408163  60.3647179 124.7208596
 136.7899992  70.7059978 123.7030014 137.3819992  71.4059978 123.9790014
 137.2489992  70.2729978 122.9830014 136.9330791  70.7432908 123.6434607
 135.1059992  63.3709978 122.8190014 135.0609992  64.3099978 122.9970014
 134.2179992  63.1349978 122.5490014 134.9798555  63.4676874 122.8068939
 135.9139992  58.1519978 131.4920014 135.6849992  58.2109978 130.5640014
 135.4719992  57.3609978 131.7980014 135.8228801  58.0530540 131.4064729
 134.8449992  72.0929978 127.6520014 134.0119992  72.5649978 127.6800014
 135.3899992  72.6029978 127.0540014 134.8047590  72.2265897 127.5749194
 134.1329992  74.7049978 138.9820014 134.6729992  74.4889978 139.7420014
 133.6519992  73.8999978 138.7930014 134.1418613  74.5665400 139.0604782
 138.7299992  73.6249978 140.6030014 139.4979992  73.1659978 140.9440014
 138.7089992  73.3989978 139.6730014 138.8322135  73.5316668 140.5239491
 142.8219992  73.1329978 121.9780014 142.1779992  72.5019978 122.2990014
 143.5839992  72.6019978 121.7460014 142.8368058  72.9747902 121.9906038
 145.3069992  72.0049978 139.3320014 144.9559992  71.1479978 139.5750014
 146.0329992  72.1469978 139.9390014 145.3571590  71.9070178 139.4472907
 134.0399992  68.5159978 139.9370014 134.1839992  67.6139978 139.6500014
 133.2679992  68.8019978 139.4490014 133.9553303  68.4313243 139.8317908
 138.3809992  68.8589978 122.0690014 138.4459992  68.0649978 122.6000014
 139.0339992  68.7409978 121.3790014 138.4781754  68.7343337 122.0484259
 140.6949992  68.4849978 139.3690014 140.3669992  68.7559978 138.5120014
 140.8469992  67.5439978 139.2820014 140.6706030  68.3948973 139.2397945
 143.7339992  69.9059978 121.8050014 143.4649992  70.0869978 122.7060014
 143.5269992  68.9809978 121.6740014 143.6692000  69.8056774 121.9105693
 134.8729992  65.7159978 139.3570014 135.2809992  64.8589978 139.2360014
 134.6119992  65.7299978 140.2780014 134.8936016  65.6005119 139.4649192
 139.5309992  66.8319978 124.3750014 139.0709992  66.3479978 125.0610014
 139.7859992  66.1629978 123.7390014 139.5025038  66.6753689 124.3829447
 138.8199992  64.7249978 136.7310014 138.2009992  65.3989978 137.0110014
 139.1639992  65.0459978 135.8980014 138.7817605  64.8607198 136.6566707
 140.6019992  65.0749978 122.6370014 140.4209992  64.9199978 121.7100014
 141.5519992  65.1829978 122.6820014 140.7056566  65.0683669 122.5160929
 143.8389992  67.1959978 140.0080014 144.7929992  67.2799978 139.9810014
 143.6789992  66.4839978 140.6280014 143.9477182  67.1112842 140.0880733
 139.1589992  62.0799978 137.8130014 139.3089992  61.3509978 137.2110014
 139.1609992  62.8569978 137.2540014 139.1797967  62.0852708 137.6550541
 139.5719992  60.4489978 135.3060014 140.1069992  60.9009978 134.6540014
 138.7189992  60.3409978 134.8830014 139.5300374  60.4962665 135.1596710
 141.1529992  65.8889978 135.5450014 141.9039992  65.7329978 134.9720014
 140.8139992  66.7409978 135.2700014 141.2099587  65.9828138 135.4294078
 145.5689992  63.7039978 140.5740014 145.7609992  62.7729978 140.4620014
 146.4269992  64.1289978 140.5640014 145.7112269  63.6339928 140.5573192
 137.6379992  63.2779978 139.7250014 136.8699992  62.7449978 139.5150014
 138.3159992  62.9679978 139.1250014 137.6246973  63.1632375 139.6151796
 140.3769992  57.9059978 135.7370014 140.2789992  58.8519978 135.6320014
 139.6349992  57.5329978 135.2620014 140.2631913  57.9851813 135.6583539
 141.6409992  62.2269978 139.3010014 141.4059992  62.0079978 140.2030014
 140.8579992  62.0199978 138.7910014 141.5029219  62.1690066 139.3555852
 144.3569992  61.3549978 138.3770014 143.4089992  61.3869978 138.5090014
 144.6689992  60.7289978 139.0300014 144.2695190  61.2747262 138.4833563
 135.8179992  61.1979978 139.4290014 136.0299992  60.4919978 138.8190014
 135.7069992  60.7609978 140.2730014 135.8320269  61.0421921 139.4595873
 140.5989992  57.1999978 138.4090014 141.3109992  56.5599978 138.3950014
 140.4979992  57.4659978 137.4950014 140.6827261  57.1484190 138.2835537
 140.9529992  58.8819978 140.4620014 140.8209992  58.4069978 139.6420014
 140.3529992  59.6269978 140.4070014 140.8539070  58.9175789 140.3423251
 140.4989992  75.7649978 123.6390014 141.4319992  75.9229978 123.7820014
 140.2349992  76.4409978 123.0140014 140.5909308  75.8779104 123.5741396
 134.0669992  70.4019978 123.1210014 134.9809992  70.4809978 123.3950014
 134.0749992  69.7149978 122.4550014 134.1931143  70.3199085 123.0684274
 132.7159992  75.7949978 128.1990014 132.0689992  75.3329978 127.6660014
 133.0709992  75.1229978 128.7810014 132.6754506  75.6409503 128.2047341
 133.5859992  73.8749978 130.0030014 133.2519992  72.9949978 130.1750014
 133.8089992  74.2209978 130.8680014 133.5703721  73.8011938 130.1434168
 133.6659992  66.9509978 132.4550014 133.8509992  66.8689978 131.5190014
 134.5159992  66.8269978 132.8790014 133.8060916  66.9230393 132.3842896
 133.2639992  62.2209978 138.5960014 134.1829992  62.0989978 138.8320014
 132.8139992  61.4709978 138.9850014 133.3291148  62.1028751 138.6809408
 134.4849992  60.5339978 131.4870014 134.9299992  59.7419978 131.7890014
 134.9509992  61.2499978 131.9180014 134.6089059  60.5224474 131.5866079
 132.7889992  63.5329978 132.5560014 133.2809992  63.3119978 131.7650014
 133.1509992  64.3729978 132.8370014 132.9052923  63.6163468 132.4857407
 133.1029992  59.7909978 126.6100014 132.1779992  59.9989978 126.4810014
 133.5569992  60.2749978 125.9210014 133.0376374  59.8849949 126.4990957
 133.0659992  58.5289978 134.9550014 132.4009992  58.2829978 135.5980014
 132.6229992  59.1509978 134.3770014 132.9150937  58.5793614 134.9649379
 135.2579992  71.7039978 139.0990014 134.4369992  71.8789978 138.6390014
 135.0059992  71.6309978 140.0200014 135.1116173  71.7180794 139.1604972
 138.2119992  72.6779978 135.3580014 137.7879992  73.4879978 135.0750014
 139.1169992  72.7639978 135.0560014 138.2762433  72.8003331 135.2785377
 142.5239992  74.0769978 138.3170014 142.7079992  73.7439978 139.1950014
 143.3699992  74.3869978 137.9950014 142.6636484  74.0732979 138.3937617
 144.8689992  75.3629978 137.5610014 145.5459992  74.7299978 137.3210014
 145.1899992  75.7639978 138.3680014 145.0051323  75.3305691 137.6373158
 135.6139992  75.9349978 135.4050014 134.8939992  76.3749978 134.9540014
 135.2489992  75.6839978 136.2540014 135.4659796  75.9613824 135.4579329
 138.0809992  75.5349978 134.4350014 137.2169992  75.6069978 134.8390014
 138.0259992  76.0819978 133.6510014 137.9551942  75.6187849 134.3844000
 142.7919992  75.4229978 133.6100014 142.3349992  75.9519978 132.9560014
 142.9549992  76.0259978 134.3360014 142.7514476  75.5769140 133.6185499
 145.1199992  74.3009978 134.5550014 144.2149992  74.4659978 134.2900014
 145.5479992  75.1539978 134.4900014 145.0540700  74.4389529 134.5099520
 135.0289992  74.5579978 132.3150014 135.0109992  74.1319978 133.1730014
 135.8339992  74.2389978 131.9070014 135.1353221  74.4567233 132.3770225
 137.1699992  73.2679978 130.9700014 136.9509992  72.3509978 131.1400014
 137.9939992  73.4079978 131.4360014 137.2514702  73.1615511 131.0562527
 139.7069992  73.7379978 131.8190014 139.9199992  72.8499978 131.5320014
 139.7719992  73.7029978 132.7740014 139.7449075  73.6118307 131.9087373
 143.2159992  59.4019978 130.9630014 142.5419992  58.7719978 131.2190014
 143.7799992  58.9179978 130.3600014 143.2000384  59.2503708 130.9165020
 135.5429992  58.0359978 128.7850014 134.7659992  57.8009978 128.2780014
 136.0729992  57.2389978 128.7940014 135.5083451  57.8961268 128.7168627
 134.3789992  57.8339978 124.5890014 134.8179992  58.4449978 123.9970014
 133.7449992  58.3719978 125.0630014 134.3533859  57.9904064 124.5720305
 140.1219992  57.9619978 128.5990014 140.9959992  58.3509978 128.5690014
 139.9859992  57.7469978 129.5210014 140.2233207  57.9861923 128.7196509
 134.2799992  73.7819978 125.4870014 133.5949992  73.7439978 124.8190014
 134.2839992  74.6949978 125.7750014 134.1868174  73.9001998 125.4345310
 136.2399992  59.7499978 123.0310014 136.7309992  59.1199978 122.5040014
 136.8629992  60.0459978 123.6950014 136.3915062  59.7036770 123.0485438
 141.2659992  60.0429978 125.4890014 141.4439992  59.3959978 126.1710014
 141.2119992  60.8769978 125.9560014 141.2831025  60.0670504 125.6456433
 143.1439992  74.9909978 123.8840014 144.0099992  75.3579978 123.7060014
 142.8979992  74.5519978 123.0700014 143.2292097  74.9818525 123.7496019
 135.4999992  58.5499978 138.3030014 135.1339992  57.7839978 138.7460014
 136.4129992  58.5789978 138.5900014 135.5733225  58.4491906 138.4023459
 137.4729992  57.8999978 139.8390014 138.3719992  57.6259978 139.6540014
 137.0869992  57.1579978 140.3030014 137.5437237  57.7621508 139.8764710
 136.0979992  74.7019978 122.5120014 135.8299992  74.9879978 123.3850014
 136.8689992  74.1559978 122.6640014 136.1655600  74.6673330 122.6521499
  12.6289992  86.0479978 128.7440014  12.7179992  86.9919978 128.6120014
  11.9909992  85.7729978 128.0860014  12.5549062  86.1399812 128.6369641
  11.5619992  85.3029978 132.1630014  11.5239992  84.6569978 132.8680014
  11.2399992  84.8359978 131.3920014  11.5132679  85.1514276 132.1552921
   3.9299992  84.9169978 133.7560014   3.9719992  84.2919978 134.4790014
   4.6329992  85.5409978 133.9380014   4.0307345  84.9157873 133.8795273
  15.2679992  88.2419978 130.4650014  14.8269992  87.5219978 130.9150014
  15.2549992  88.9629978 131.0940014  15.2057960  88.2408329 130.6117567
   4.8539992  89.3669978 132.2910014   4.4839992  88.5649978 131.9210014
   5.7949992  89.1989978 132.3370014   4.9305984  89.2344638 132.2465603
   1.4639992  83.0269978 127.6840014   1.0159992  83.8729978 127.6650014
   0.9029992  82.4479978 127.1680014   1.3269603  83.0643674 127.6116720
   2.1739992  85.1889978 129.8100014   2.3879992  84.4189978 130.3370014
   2.9119992  85.2789978 129.2060014   2.3029652  85.0958012 129.8005212
  12.3799992  93.3459978 130.6770014  12.9989992  92.6699978 130.4030014
  12.1709992  93.1279978 131.5850014  12.4366232  93.2237938 130.7622517
   9.9509992  87.7349978 132.5690014  10.2549992  87.0489978 131.9750014
  10.6729992  87.8539978 133.1870014  10.0901152  87.6572189 132.5712123
  18.6139992  79.3369978 133.4300014  18.6639992  79.9469978 134.1660014
  19.0399992  79.7979978 132.7070014  18.6784108  79.4827709 133.4330112
  13.0919992  82.1289978 132.8970014  13.2349992  81.1829978 132.9170014
  12.9859992  82.3359978 131.9680014  13.0972509  82.0274813 132.7742231
   6.2469992  80.2309978 130.1690014   6.2899992  81.0909978 129.7510014
   5.7889992  79.6789978 129.5350014   6.1909815  80.2740621 130.0261197
  13.9689992  80.3619978 128.5700014  14.6159992  80.0329978 129.1950014
  14.4789992  80.8789978 127.9470014  14.1264317  80.3869227 128.5712167
   2.8669992  82.6279978 130.9310014   3.5209992  82.0779978 131.3630014
   2.8909992  82.3539978 130.0140014   2.9597199  82.5157167 130.8661668
   8.0239992  84.1779978 130.1460014   8.6399992  83.6509978 130.6560014
   7.4369992  83.5379978 129.7430014   8.0289239  84.0194117 130.1612952
  19.0059992  80.8149978 135.6660014  18.3169992  81.4729978 135.5700014
  19.0209992  80.6169978 136.6020014  18.9136740  80.8783242 135.7794630
   5.0569992  79.1489978 134.2430014   4.8379992  79.6789978 133.4770014
   4.3889992  79.3749978 134.8900014   4.9367001  79.2521154 134.2256064
  12.4259992  88.6489978 127.7870014  12.1309992  88.3259978 126.9360014
  12.1019992  89.5489978 127.8280014  12.3417983  88.7264026 127.6759771
   7.6259992  86.8239978 134.5310014   6.8859992  87.4229978 134.6340014
   8.3399992  87.3779978 134.2150014   7.6213288  86.9807356 134.5023805
  15.7329992  79.6529978 130.5500014  15.5179992  78.8869978 131.0830014
  16.3889992  80.1249978 131.0630014  15.7922673  79.6120728 130.6921990
   4.6509992  81.0409978 132.1950014   5.2649992  81.6739978 132.5690014
   5.1629992  80.5689978 131.5390014   4.8042277  81.0637352 132.1574279
   6.0339992  88.7889978 135.3180014   6.0279992  89.6679978 134.9400014
   5.1799992  88.7049978 135.7430014   5.9177925  88.8979535 135.3236887
   2.1549992  88.4599978 126.1000014   1.8829992  88.6889978 125.2110014
   2.1999992  89.2969978 126.5600014   2.1238709  88.6046058 126.0406107
  15.7799992  90.0809978 132.8120014  14.8379992  90.1399978 132.9740014
  16.0559992  90.9869978 132.6750014  15.6885865  90.2115288 132.8156192
  16.0799992  78.3679978 134.2300014  15.3439992  78.9779978 134.1920014
  16.7639992  78.7829978 133.7030014  16.0715506  78.5076400 134.1536051
   9.0839992  76.4539978 131.6960014   8.9659992  75.5059978 131.6410014
   8.2289992  76.7869978 131.9690014   8.9522679  76.3691926 131.7253720
  14.0319992  91.8619978 129.4380014  14.4569992  91.1549978 128.9530014
  14.3489992  92.6639978 129.0210014  14.1330266  91.8735190 129.3152479
  15.1919992  89.7629978 127.9460014  14.9339992  89.0729978 127.3350014
  15.2629992  89.3199978 128.7920014  15.1662837  89.6087106 127.9766912
  16.8779992  88.3299978 136.4240014  17.0169992  87.7379978 135.6840014
  17.0449992  89.2029978 136.0670014  16.9195562  88.3669896 136.2746283
  11.3499992  85.2919978 126.1960014  10.6389992  85.8269978 125.8440014
  12.0409992  85.3469978 125.5360014  11.3460751  85.3726777 126.0585858
  11.4039992  83.7489978 123.2350014  12.1049992  83.7719978 123.8860014
  11.7059992  83.1209978 122.5790014  11.5408282  83.6672339 123.2354496
  18.7189992  84.6699978 134.4900014  18.0669992  85.3639978 134.5790014
  19.1849992  84.8799978 133.6800014  18.6925937  84.7935019 134.3927533
  14.7559992  85.5009978 127.1480014  14.0239992  85.7299978 127.7210014
  15.2029992  84.7879978 127.6030014  14.7162753  85.4358972 127.2879715
  14.6529992  83.6759978 136.2160014  14.7329992  84.4389978 136.7870014
  14.0519992  83.9549978 135.5250014  14.5827245  83.8182630 136.2008424
   6.4009992  86.1319978 129.0300014   6.0709992  85.7609978 128.2120014
   6.9899992  85.4609978 129.3770014   6.4353970  85.9906063 128.9649404
   7.7679992  89.5599978 131.7120014   7.6729992  88.9809978 130.9550014
   8.4969992  89.1889978 132.2080014   7.8536161  89.4305891 131.6755209
   6.7679992  84.8999978 132.6640014   7.3329992  85.0219978 131.9010014
   7.0869992  85.5379978 133.3030014   6.8883977  85.0028851 132.6459424
  13.0769992  90.4039978 133.3980014  12.8369992  91.0659978 134.0460014
  12.8789992  89.5689978 133.8230014  13.0173826  90.3818115 133.5441566
   7.6479992  89.2999978 137.3810014   7.3369992  90.0819978 137.8360014
   6.9979992  89.1469978 136.6950014   7.5175538  89.3864087 137.3505898
  13.6269992  84.6639978 124.8330014  14.2059992  84.8139978 125.5800014
  14.0409992  85.1339978 124.1100014  13.7623122  84.7481277 124.8375042
   4.5679992  85.4979978 136.6100014   4.6379992  86.1489978 137.3080014
   3.6769992  85.6009978 136.2750014   4.4571802  85.6009757 136.6602249
  11.3529992  91.3999978 128.2680014  11.8269992  91.6959978 129.0460014
  10.7899992  92.1389978 128.0350014  11.3417361  91.5402721 128.3428611
   5.8869992  91.3709978 138.1440014   5.8949992  91.2349978 137.1970014
   4.9709992  91.2539978 138.3960014   5.7642528  91.3365463 138.0483243
  17.3259992  76.4139978 124.6460014  16.4259992  76.5529978 124.9410014
  17.5779992  77.2449978 124.2440014  17.2368683  76.5454055 124.6320232
   5.3919992  85.2009978 126.6200014   5.0999992  85.9689978 126.1290014
   4.7169992  84.5419978 126.4570014   5.2608497  85.2169745 126.5308260
  18.5149992  90.7799978 123.0220014  18.5879992  91.7189978 123.1930014
  19.4199992  90.4749978 122.9660014  18.6474158  90.8673061 123.0378392
   1.4849992  87.5639978 135.4350014   0.9829992  87.5359978 134.6200014
   1.4899992  86.6589978 135.7440014   1.4170416  87.4377368 135.3653766
   1.2349992  90.3449978 132.3190014   2.1809992  90.1999978 132.3000014
   1.1219992  91.1289978 132.8560014   1.3493578  90.4311697 132.3890317
  19.4329992  91.0109978 138.0010014  19.3829992  90.0549978 137.9640014
  18.6059992  91.2779978 138.4020014  19.3143987  90.9165174 138.0501446
  10.4109992  90.5849978 136.8770014  10.4989992  91.4109978 137.3520014
   9.5479992  90.2549978 137.1260014  10.3063357  90.6535468 136.9757653
  10.8259992  94.3569978 126.6830014  10.7499992  94.2359978 125.7370014
  10.8579992  95.3059978 126.8020014  10.8199156  94.4687530 126.5695048
   4.4789992  93.1459978 128.4640014   4.6309992  92.7979978 129.3430014
   3.6279992  92.7889978 128.2090014   4.3847899  93.0501738 128.5497340
  13.9269992  93.5109978 123.6850014  14.3019992  92.7669978 123.2150014
  13.9319992  93.2409978 124.6040014  13.9790024  93.3726950 123.7447987
  13.5959992  93.4369978 126.4350014  12.6609992  93.5369978 126.6130014
  13.8759992  92.7269978 127.0130014  13.5058173  93.3547239 126.5374998
  16.5849992  82.5039978 138.4810014  16.1769992  82.9839978 137.7610014
  16.6249992  81.5979978 138.1730014  16.5345476  82.4473160 138.3408247
   3.7339992  88.8879978 136.4780014   3.9499992  88.5259978 137.3370014
   2.8779992  88.5129978 136.2680014   3.6479354  88.7877906 136.5672160
   6.3519992  77.3579978 132.4730014   5.4909992  77.2709978 132.0660014
   6.3299992  78.2139978 132.9010014   6.2310411  77.4617884 132.4750857
  11.0149992  77.0799978 135.8480014  11.4349992  76.6649978 136.6010014
  10.0819992  76.9009978 135.9650014  10.9463736  76.9989910 135.9668968
  14.3419992  80.8349978 136.7010014  13.8279992  80.7099978 137.4990014
  14.1859992  81.7479978 136.4570014  14.2506967  80.9412123 136.7770937
  15.1039992  85.6959978 122.4630014  15.1459992  85.4739978 121.5330014
  15.9529992  86.0949978 122.6530014  15.2245253  85.7195498 122.3613822
  10.6769992  79.5719978 123.1330014  10.4229992  79.5909978 124.0560014
  10.4199992  78.7009978 122.8320014  10.6075133  79.4568110 123.2185082
   6.4429992  82.3229978 133.5680014   5.8019992  82.2829978 134.2770014
   6.4809992  83.2499978 133.3310014   6.3603670  82.4427795 133.6330550
   6.4399992  82.5439978 128.4800014   5.5479992  82.2039978 128.4220014
   6.8909992  82.1669978 127.7250014   6.3786815  82.4463762 128.3699203
  11.9759992  82.9599978 127.2970014  11.5669992  83.7749978 127.0060014
  12.6959992  82.8199978 126.6830014  12.0174013  83.0526571 127.1740875
  11.0779992  83.1359978 138.7850014  10.5149992  82.4309978 139.1060014
  11.9039992  83.0149978 139.2530014  11.1126674  83.0232165 138.8921751
  12.9809992  82.4059978 130.1110014  12.7849992  83.0119978 129.3960014
  13.1619992  81.5729978 129.6770014  12.9786584  82.3762513 129.9544212
   4.1929992  82.6439978 135.4350014   4.1549992  83.0439978 136.3040014
   3.7029992  81.8269978 135.5260014   4.1215621  82.5882510 135.5661377
   7.5589992  80.0179978 122.2340014   7.1279992  79.5729978 122.9640014
   6.8409992  80.3889978 121.7220014   7.4029363  80.0072968 122.2646211
   0.8019992  79.7599978 129.2860014   1.4319992  79.7309978 130.0050014
   1.2509992  79.3349978 128.5560014   0.9490692  79.6985316 129.2857771
   2.0759992  80.5059978 124.7100014   2.5499992  81.0969978 124.1250014
   1.3579992  81.0359978 125.0570014   2.0438640  80.6585511 124.6767969
  12.2449992  84.0439978 134.7830014  12.5679992  83.4129978 134.1400014
  11.8039992  83.5099978 135.4430014  12.2295789  83.8853522 134.7842232
   9.0219992  79.9719978 129.5670014   8.1109992  80.0289978 129.8550014
   9.5269992  79.9119978 130.3770014   8.9655387  79.9716870 129.7160646
   3.8499992  81.6009978 128.3930014   2.9609992  81.6999978 128.0530014
   4.1469992  80.7589978 128.0470014   3.7684177  81.5007687 128.2996940
   7.5029992  81.6009978 126.0500014   8.4349992  81.7299978 126.2280014
   7.2879992  82.2699978 125.4000014   7.6014472  81.7090806 125.9864891
  13.4269992  79.2069978 132.8310014  12.7499992  79.3379978 133.4950014
  12.9419992  79.0519978 132.0210014  13.2687265  79.2039659 132.8123397
   6.1769992  82.7949978 123.6170014   5.6349992  82.4159978 122.9250014
   7.0109992  82.9899978 123.1880014   6.2155159  82.7695076 123.4644419
  16.7149992  94.8779978 139.1080014  16.9139992  95.3019978 138.2730014
  17.3699992  95.2219978 139.7150014  16.8308501  94.9826091 139.0757097
   4.3129992  87.3519978 138.7160014   5.0449992  87.6069978 139.2770014
   3.5319992  87.5569978 139.2310014   4.3077684  87.4146468 138.8624782
  10.3419992  82.7589978 131.4540014  10.9059992  82.2129978 130.9070014
  10.1939992  82.2379978 132.2420014  10.3992575  82.6136552 131.4856987
   5.3439992  78.8959978 127.8720014   5.0269992  77.9929978 127.8370014
   6.1249992  78.8979978 127.3190014   5.4062307  78.7726951 127.7924314
   8.9679992  81.1479978 133.8680014   8.1329992  81.6019978 133.9780014
   9.4919992  81.4239978 134.6200014   8.9245070  81.2474666 133.9847152
   9.5129992  87.3609978 125.5520014   8.7679992  86.8529978 125.2300014
   9.3779992  87.4099978 126.4990014   9.3929047  87.2981596 125.6358845
  16.6629992  86.4939978 134.3390014  17.3039992  86.9499978 133.7950014
  15.8319992  86.6069978 133.8770014  16.6385171  86.5717502 134.2020237
  13.4099992  80.1749978 123.7520014  12.4719992  80.2859978 123.6000014
  13.7079992  81.0309978 124.0580014  13.3216402  80.3060621 123.7725571
  11.0319992  87.5449978 136.7890014  10.6859992  87.1629978 137.5960014
  10.8319992  88.4779978 136.8610014  10.9576523  87.6189095 136.9090735
  14.1289992  82.0419978 125.4120014  15.0209992  81.9039978 125.7310014
  14.1849992  82.8329978 124.8760014  14.2587107  82.1300526 125.3832091
   4.6369992  86.6559978 131.3220014   5.3819992  86.6529978 130.7210014
   4.7149992  85.8319978 131.8040014   4.7494158  86.5442916 131.3049153
  11.6379992  88.8189978 124.5780014  11.3429992  89.6459978 124.9590014
  10.9349992  88.1999978 124.7740014  11.5025471  88.8485227 124.6566698
   1.6449992  85.1159978 136.6370014   1.8679992  84.6979978 137.4690014
   1.0429992  84.5039978 136.2140014   1.5941260  84.9759933 136.6937320
   8.6619992  84.6329978 138.8500014   8.3659992  84.4679978 137.9550014
   9.5929992  84.4129978 138.8390014   8.7473982  84.5806578 138.7260045
  13.2819992  90.0069978 136.7400014  12.3819992  90.1899978 136.4720014
  13.3159992  90.2659978 137.6610014  13.1632909  90.0670815 136.8277852
  19.0139992  82.2509978 125.1070014  18.4589992  81.8549978 124.4350014
  19.1139992  83.1619978 124.8290014  18.9515888  82.3198990 124.9775206
  18.9769992  88.0519978 137.9440014  18.1259992  88.2899978 137.5770014
  19.5669992  88.0349978 137.1910014  18.9402408  88.0822966 137.7918879
  17.3089992  91.0369978 125.5720014  16.9359992  90.2119978 125.8810014
  17.5859992  90.8539978 124.6750014  17.2953871  90.8992441 125.4929677
  14.4689992  85.8449978 132.5930014  13.5409992  85.6139978 132.5660014
  14.9199992  85.0679978 132.2630014  14.4028165  85.7082774 132.5446790
   7.0119992  90.1739978 128.7260014   7.5399992  90.9469978 128.5260014
   6.1319992  90.3979978 128.4250014   6.9653176  90.3103161 128.6578409
   2.7669992  85.0359978 123.3140014   3.3829992  85.6629978 123.6930014
   1.9049992  85.3519978 123.5850014   2.7348195  85.1645798 123.4025386
   8.4399992  87.8369978 128.3030014   8.1989992  88.7619978 128.3440014
   7.6989992  87.3779978 128.6990014   8.3068390  87.9016403 128.3621404
   8.9539992  91.9859978 134.6180014   9.3169992  92.8399978 134.3840014
   9.4859992  91.6939978 135.3580014   9.0756090  92.0634058 134.6860219
   7.1229992  92.8579978 127.8480014   6.1729992  92.9639978 127.8990014
   7.4749992  93.6789978 128.1930014   7.0405480  92.9834438 127.9015999
  12.4979992  88.0849978 134.3180014  12.0729992  87.8569978 135.1450014
  13.0789992  87.3459978 134.1360014  12.5183930  87.9539843 134.4064732
  14.7009992  89.0139978 123.3920014  15.0549992  88.6339978 124.1970014
  13.7529992  88.9199978 123.4790014  14.6211820  88.9493092 123.5138714
  15.1569992  92.6369978 136.7880014  14.5549992  92.0809978 136.2920014
  15.4379992  93.3039978 136.1620014  15.1126829  92.6511613 136.6355443
  19.2049992  93.4929978 123.5930014  19.9489992  94.0789978 123.4530014
  18.5109992  94.0619978 123.9270014  19.2130201  93.6500603 123.6189772
   3.2789992  79.8699978 136.1950014   2.3869992  80.2079978 136.1280014
   3.1809992  79.0139978 136.6130014   3.1434965  79.8006499 136.2423044
  15.5669992  87.6859978 125.6190014  15.2899992  86.9579978 126.1750014
  16.4949992  87.8049978 125.8240014  15.6544499  87.6024213 125.7228044
   2.9309992  91.6739978 134.6300014   3.1479992  90.7419978 134.5990014
   3.1769992  91.9489978 135.5130014   2.9939809  91.5835686 134.7451691
   8.7919992  90.1259978 121.8390014   9.0309992  89.3769978 121.2920014
   8.5229992  89.7379978 122.6720014   8.7883233  89.9711853 121.8767809
   7.7289992  89.6959978 124.2960014   7.8759992  89.1759978 125.0860014
   7.7259992  90.6029978 124.6020014   7.7487300  89.7473964 124.4455895
   4.1819992  86.9479978 124.8060014   3.4959992  87.3009978 125.3730014
   4.7049992  87.7109978 124.5600014   4.1589033  87.0993746 124.8502661
  12.0139992  79.6109978 135.0850014  12.7129992  79.6849978 135.7350014
  11.6329992  78.7459978 135.2390014  12.0582097  79.5042389 135.1947997
  12.7979992  79.2629978 126.1820014  13.0179992  79.7339978 125.3790014
  13.3569992  79.6569978 126.8520014  12.9036730  79.3807432 126.1625906
  10.4669992  91.3929978 125.0450014   9.6499992  91.8899978 125.0970014
  10.9959992  91.8689978 124.4050014  10.4268508  91.5252543 124.9656035
   9.9979992  80.9909978 127.0170014  10.8099992  81.4949978 127.0630014
   9.7539992  80.8459978 127.9310014  10.0761467  81.0403749 127.1468575
  10.5339992  81.9769978 136.2020014  10.6529992  82.5509978 136.9590014
  11.1889992  81.2889978 136.3160014  10.6389146  81.9625574 136.3211313
  10.8819992  78.0719978 127.9550014  10.5349992  78.6889978 128.6000014
  11.5409992  78.5729978 127.4740014  10.9235949  78.2241099 127.9782271
   7.8049992  92.4369978 125.0270014   7.9659992  93.2369978 124.5260014
   7.6079992  92.7439978 125.9120014   7.8003919  92.5879129 125.0781006
   6.5399992  79.1349978 124.6420014   6.4559992  80.0229978 124.9890014
   7.4299992  78.8699978 124.8740014   6.6488163  79.2207179 124.7208596
  16.7379992  79.8839978 137.0370014  15.8219992  80.1459978 136.9490014
  17.0739992  79.8809978 136.1400014  16.6579789  79.9194626 136.9037847
  15.3409992  83.6339978 131.1320014  14.5429992  83.2189978 130.8040014
  15.7859992  82.9439978 131.6230014  15.2919684  83.4838628 131.1535227
   4.7979992  89.5619978 123.7030014   5.3899992  90.2619978 123.9790014
   5.2569992  89.1289978 122.9830014   4.9410791  89.5992908 123.6434607
   3.1139992  82.2269978 122.8190014   3.0689992  83.1659978 122.9970014
   2.2259992  81.9909978 122.5490014   2.9878555  82.3236874 122.8068939
  16.4269992  92.8899978 132.7550014  16.2709992  93.5689978 132.0980014
  17.3599992  92.9619978 132.9580014  16.5317387  92.9926390 132.6925342
   3.9219992  77.0079978 131.4920014   3.6929992  77.0669978 130.5640014
   3.4799992  76.2169978 131.7980014   3.8308801  76.9090540 131.4064729
   2.8529992  90.9489978 127.6520014   2.0199992  91.4209978 127.6800014
   3.3979992  91.4589978 127.0540014   2.8127590  91.0825897 127.5749194
   2.1409992  93.5609978 138.9820014   2.6809992  93.3449978 139.7420014
   1.6599992  92.7559978 138.7930014   2.1498613  93.4225400 139.0604782
   6.7379992  92.4809978 140.6030014   7.5059992  92.0219978 140.9440014
   6.7169992  92.2549978 139.6730014   6.8402135  92.3876668 140.5239491
  10.8299992  91.9889978 121.9780014  10.1859992  91.3579978 122.2990014
  11.5919992  91.4579978 121.7460014  10.8448058  91.8307902 121.9906038
  13.3149992  90.8609978 139.3320014  12.9639992  90.0039978 139.5750014
  14.0409992  91.0029978 139.9390014  13.3651590  90.7630178 139.4472907
  15.4349992  91.8059978 122.2120014  15.7179992  91.0109978 122.6640014
  16.1739992  92.0389978 121.6510014  15.5736956  91.7287031 122.1979821
   2.0479992  87.3719978 139.9370014   2.1919992  86.4699978 139.6500014
   1.2759992  87.6579978 139.4490014   1.9633303  87.2873243 139.8317908
   6.3889992  87.7149978 122.0690014   6.4539992  86.9209978 122.6000014
   7.0419992  87.5969978 121.3790014   6.4861754  87.5903337 122.0484259
   8.7029992  87.3409978 139.3690014   8.3749992  87.6119978 138.5120014
   8.8549992  86.3999978 139.2820014   8.6786030  87.2508973 139.2397945
  11.7419992  88.7619978 121.8050014  11.4729992  88.9429978 122.7060014
  11.5349992  87.8369978 121.6740014  11.6772000  88.6616774 121.9105693
  14.4379992  87.2569978 136.7530014  15.1829992  87.8459978 136.6330014
  13.6809992  87.8389978 136.8160014  14.4375205  87.4161997 136.7451119
   2.8809992  84.5719978 139.3570014   3.2889992  83.7149978 139.2360014
   2.6199992  84.5859978 140.2780014   2.9016016  84.4565119 139.4649192
   7.5389992  85.6879978 124.3750014   7.0789992  85.2039978 125.0610014
   7.7939992  85.0189978 123.7390014   7.5105038  85.5313689 124.3829447
   6.8279992  83.5809978 136.7310014   6.2089992  84.2549978 137.0110014
   7.1719992  83.9019978 135.8980014   6.7897605  83.7167198 136.6566707
   8.6099992  83.9309978 122.6370014   8.4289992  83.7759978 121.7100014
   9.5599992  84.0389978 122.6820014   8.7136566  83.9243669 122.5160929
  11.8469992  86.0519978 140.0080014  12.8009992  86.1359978 139.9810014
  11.6869992  85.3399978 140.6280014  11.9557182  85.9672842 140.0880733
  17.9999992  86.2849978 122.0830014  17.7259992  85.8609978 121.2700014
  18.0389992  87.2169978 121.8660014  17.9677716  86.3528827 121.9424286
   7.1669992  80.9359978 137.8130014   7.3169992  80.2069978 137.2110014
   7.1689992  81.7129978 137.2540014   7.1877967  80.9412708 137.6550541
   7.5799992  79.3049978 135.3060014   8.1149992  79.7569978 134.6540014
   6.7269992  79.1969978 134.8830014   7.5380374  79.3522665 135.1596710
   9.1609992  84.7449978 135.5450014   9.9119992  84.5889978 134.9720014
   8.8219992  85.5969978 135.2700014   9.2179587  84.8388138 135.4294078
  13.5769992  82.5599978 140.5740014  13.7689992  81.6289978 140.4620014
  14.4349992  82.9849978 140.5640014  13.7192269  82.4899928 140.5573192
  14.8939992  85.3489978 138.6510014  14.6119992  86.0579978 138.0740014
  15.8359992  85.2759978 138.5000014  14.9827656  85.4363128 138.5514809
   5.6459992  82.1339978 139.7250014   4.8779992  81.6009978 139.5150014
   6.3239992  81.8239978 139.1250014   5.6326973  82.0192375 139.6151796
   8.3849992  76.7619978 135.7370014   8.2869992  77.7079978 135.6320014
   7.6429992  76.3889978 135.2620014   8.2711913  76.8411813 135.6583539
   9.6489992  81.0829978 139.3010014   9.4139992  80.8639978 140.2030014
   8.8659992  80.8759978 138.7910014   9.5109219  81.0250066 139.3555852
  12.3649992  80.2109978 138.3770014  11.4169992  80.2429978 138.5090014
  12.6769992  79.5849978 139.0300014  12.2775190  80.1307262 138.4833564
  13.9989992  78.8449978 140.3820014  13.9019992  77.8929978 140.3760014
  13.6769992  79.1129978 141.2420014  13.9421761  78.7509744 140.4974936
   3.8259992  80.0539978 139.4290014   4.0379992  79.3479978 138.8190014
   3.7149992  79.6169978 140.2730014   3.8400269  79.8981921 139.4595873
   8.6069992  76.0559978 138.4090014   9.3189992  75.4159978 138.3950014
   8.5059992  76.3219978 137.4950014   8.6907261  76.0044190 138.2835537
   8.9609992  77.7379978 140.4620014   8.8289992  77.2629978 139.6420014
   8.3609992  78.4829978 140.4070014   8.8619070  77.7735789 140.3423251
   8.5069992  94.6209978 123.6390014   9.4399992  94.7789978 123.7820014
   8.2429992  95.2969978 123.0140014   8.5989308  94.7339104 123.5741396
   2.0749992  89.2579978 123.1210014   2.9889992  89.3369978 123.3950014
   2.0829992  88.5709978 122.4550014   2.2011143  89.1759085 123.0684274
   0.7239992  94.6509978 128.1990014   0.0769992  94.1889978 127.6660014
   1.0789992  93.9789978 128.7810014   0.6834506  94.4969503 128.2047341
   1.5939992  92.7309978 130.0030014   1.2599992  91.8509978 130.1750014
   1.8169992  93.0769978 130.8680014   1.5783721  92.6571938 130.1434168
  19.1429992  93.5409978 132.9840014  19.1209992  93.7259978 133.9230014
  19.8329992  94.1089978 132.6430014  19.2333439  93.6431887 133.0664791
  18.7059992  93.1079978 135.9060014  18.2189992  92.3729978 135.5350014
  19.2549992  92.7139978 136.5840014  18.7135247  92.9541057 135.9468461
  17.1569992  88.8979978 140.5440014  16.2909992  88.7929978 140.9380014
  17.5329992  89.6559978 140.9900014  17.0893401  88.9861708 140.6582620
  18.4579992  87.1539978 126.0580014  19.3079992  87.5749978 126.1850014
  18.4629992  86.4139978 126.6650014  18.5751143  87.1116094 126.1574750
  18.8519992  85.2079978 127.8820014  18.1259992  84.7279978 128.2790014
  19.4339992  85.4129978 128.6140014  18.8311635  85.1699166 128.0353748
  18.6109992  87.9929978 132.8290014  19.4449992  87.6149978 132.5490014
  18.7229992  88.9359978 132.7100014  18.7402522  88.0687742 132.7746020
  17.0979992  90.8709978 135.1360014  16.4499992  91.1959978 135.7620014
  16.5799992  90.4299978 134.4620014  16.9394168  90.8558523 135.1305307
  19.1209992  85.1089978 124.2730014  18.5989992  85.4649978 123.5540014
  19.0879992  85.7839978 124.9510014  19.0450699  85.2489848 124.2662129
  17.4699992  82.3479978 122.8240014  17.5659992  83.0149978 122.1440014
  17.3299992  81.5329978 122.3420014  17.4642063  82.3290667 122.6658377
  16.6389992  83.7289978 128.4450014  16.4889992  82.7839978 128.4240014
  16.2849992  84.0099978 129.2880014  16.5705527  83.6375605 128.5561859
   1.6739992  85.8069978 132.4550014   1.8589992  85.7249978 131.5190014
   2.5239992  85.6829978 132.8790014   1.8140916  85.7790393 132.3842896
  17.4949992  85.6989978 138.0830014  18.0779992  84.9639978 138.2750014
  18.0589992  86.4709978 138.1300014  17.6509781  85.7028145 138.1156164
  18.9919992  83.6019978 138.7680014  18.1289992  83.2229978 138.6020014
  19.5959992  82.8629978 138.6940014  18.9555944  83.4502978 138.7352984
  16.7169992  79.7559978 121.9410014  17.3279992  79.3849978 122.5780014
  15.8799992  79.3349978 122.1370014  16.6874947  79.6482756 122.0547252
  16.3499992  81.3109978 126.9070014  16.6289992  80.4039978 127.0310014
  17.1089992  81.7449978 126.5180014  16.4908619  81.2454502 126.8713795
  16.9609992  81.8929978 132.3430014  17.8939992  82.1049978 132.3090014
  16.7259992  81.9939978 133.2650014  17.0568308  81.9356503 132.4630214
  16.9909992  82.6299978 135.1190014  16.1479992  82.8979978 135.4850014
  17.4329992  83.4519978 134.9080014  16.9354138  82.7778273 135.1405518
   1.2719992  81.0769978 138.5960014   2.1909992  80.9549978 138.8320014
   0.8219992  80.3269978 138.9850014   1.3371148  80.9588751 138.6809408
  19.2739992  76.6099978 140.4720014  19.6229992  75.9559978 139.8670014
  19.4209992  77.4469978 140.0330014  19.3417355  76.6336067 140.3296564
  16.9629992  78.5739978 126.9550014  17.1449992  78.1249978 127.7810014
  16.3629992  77.9899978 126.4920014  16.9067529  78.4336131 127.0053619
   2.4929992  79.3899978 131.4870014   2.9379992  78.5979978 131.7890014
   2.9589992  80.1059978 131.9180014   2.6169059  79.3784474 131.5866079
   0.7969992  82.3889978 132.5560014   1.2889992  82.1679978 131.7650014
   1.1589992  83.2289978 132.8370014   0.9132923  82.4723468 132.4857407
  18.7929992  78.7189978 138.8220014  17.8759992  78.9899978 138.7860014
  18.9159992  78.1839978 138.0380014  18.6840828  78.6837700 138.7110785
  18.8299992  78.6419978 123.4830014  19.2419992  77.9209978 123.0080014
  19.5109992  79.3109978 123.5420014  18.9785900  78.6337306 123.4259038
   1.1109992  78.6469978 126.6100014   0.1859992  78.8549978 126.4810014
   1.5649992  79.1309978 125.9210014   1.0456374  78.7409949 126.4990957
  15.8809992  93.6309978 128.5560014  16.5339992  93.2829978 127.9480014
  16.3919992  94.1189978 129.2020014  16.0392777  93.6493815 128.5602047
   1.0739992  77.3849978 134.9550014   0.4089992  77.1389978 135.5980014
   0.6309992  78.0069978 134.3770014   0.9230937  77.4353614 134.9649379
   3.2659992  90.5599978 139.0990014   2.4449992  90.7349978 138.6390014
   3.0139992  90.4869978 140.0200014   3.1196173  90.5740794 139.1604972
   6.2199992  91.5339978 135.3580014   5.7959992  92.3439978 135.0750014
   7.1249992  91.6199978 135.0560014   6.2842433  91.6563331 135.2785377
  10.5319992  92.9329978 138.3170014  10.7159992  92.5999978 139.1950014
  11.3779992  93.2429978 137.9950014  10.6716484  92.9292979 138.3937617
  12.8769992  94.2189978 137.5610014  13.5539992  93.5859978 137.3210014
  13.1979992  94.6199978 138.3680014  13.0131323  94.1865691 137.6373158
  17.7939992  76.8089978 136.6410014  16.9809992  77.1339978 136.2530014
  18.0269992  76.0479978 136.1080014  17.7142566  76.7506559 136.5159213
   3.6219992  94.7909978 135.4050014   2.9019992  95.2309978 134.9540014
   3.2569992  94.5399978 136.2540014   3.4739796  94.8173824 135.4579329
   6.0889992  94.3909978 134.4350014   5.2249992  94.4629978 134.8390014
   6.0339992  94.9379978 133.6510014   5.9631942  94.4747849 134.3844000
  10.7999992  94.2789978 133.6100014  10.3429992  94.8079978 132.9560014
  10.9629992  94.8819978 134.3360014  10.7594476  94.4329140 133.6185499
  13.1279992  93.1569978 134.5550014  12.2229992  93.3219978 134.2900014
  13.5559992  94.0099978 134.4900014  13.0620700  93.2949529 134.5099520
  15.7319992  94.7269978 134.8500014  15.5499992  95.6429978 134.6400014
  15.9089992  94.3159978 134.0040014  15.7309907  94.7969741 134.7067883
   3.0369992  93.4139978 132.3150014   3.0189992  92.9879978 133.1730014
   3.8419992  93.0949978 131.9070014   3.1433221  93.3127233 132.3770225
   5.1779992  92.1239978 130.9700014   4.9589992  91.2069978 131.1400014
   6.0019992  92.2639978 131.4360014   5.2594702  92.0175511 131.0562527
   7.7149992  92.5939978 131.8190014   7.9279992  91.7059978 131.5320014
   7.7799992  92.5589978 132.7740014   7.7529075  92.4678307 131.9087373
  11.2239992  78.2579978 130.9630014  10.5499992  77.6279978 131.2190014
  11.7879992  77.7739978 130.3600014  11.2080384  78.1063708 130.9165020
  16.3669992  76.3649978 131.0760014  16.9699992  76.9129978 130.5740014
  15.4969992  76.6839978 130.8360014  16.3319190  76.4831041 130.9748679
  18.0939992  77.5039978 129.4090014  18.7049992  76.9899978 128.8830014
  18.4759992  78.3809978 129.4330014  18.2294475  77.5521323 129.3401208
   3.5509992  76.8919978 128.7850014   2.7739992  76.6569978 128.2780014
   4.0809992  76.0949978 128.7940014   3.5163451  76.7521268 128.7168627
   2.3869992  76.6899978 124.5890014   2.8259992  77.3009978 123.9970014
   1.7529992  77.2279978 125.0630014   2.3613859  76.8464064 124.5720305
   8.1299992  76.8179978 128.5990014   9.0039992  77.2069978 128.5690014
   7.9939992  76.6029978 129.5210014   8.2313207  76.8421923 128.7196509
  13.6869992  76.8479978 130.2480014  13.7629992  76.9439978 129.2990014
  13.4119992  75.9409978 130.3770014  13.6602042  76.7384241 130.1353811
  15.0399992  76.8739978 125.9400014  14.3369992  77.4889978 125.7310014
  14.5949992  76.0369978 126.0720014  14.8836292  76.8450085 125.9292439
   2.2879992  92.6379978 125.4870014   1.6029992  92.5999978 124.8190014
   2.2919992  93.5509978 125.7750014   2.1948174  92.7561998 125.4345310
   4.2479992  78.6059978 123.0310014   4.7389992  77.9759978 122.5040014
   4.8709992  78.9019978 123.6950014   4.3995062  78.5596770 123.0485438
   9.2739992  78.8989978 125.4890014   9.4519992  78.2519978 126.1710014
   9.2199992  79.7329978 125.9560014   9.2911025  78.9230504 125.6456433
  11.1519992  93.8469978 123.8840014  12.0179992  94.2139978 123.7060014
  10.9059992  93.4079978 123.0700014  11.2372097  93.8378525 123.7496019
  17.8609992  93.4099978 126.5630014  17.6669992  92.6619978 125.9980014
  17.8219992  94.1679978 125.9800014  17.8291645  93.4100786 126.4068148
   3.5079992  77.4059978 138.3030014   3.1419992  76.6399978 138.7460014
   4.4209992  77.4349978 138.5900014   3.5813225  77.3051906 138.4023459
   5.4809992  76.7559978 139.8390014   6.3799992  76.4819978 139.6540014
   5.0949992  76.0139978 140.3030014   5.5517237  76.6181508 139.8764710
   4.1059992  93.5579978 122.5120014   3.8379992  93.8439978 123.3850014
   4.8769992  93.0119978 122.6640014   4.1735600  93.5233330 122.6521499
  13.9029992  76.0889978 140.0210014  13.9789992  75.6629978 140.8750014
  14.7959992  76.1019978 139.6780014  14.0342267  76.0323952 140.0915932
  17.0789992  92.1619978 138.7130014  16.2969992  91.9749978 138.1940014
  17.0069992  93.0909978 138.9310014  16.9620863  92.2620221 138.6713574
  31.4849992  86.0479978 128.7440014  31.5739992  86.9919978 128.6120014
  30.8469992  85.7729978 128.0860014  31.4109062  86.1399812 128.6369641
  30.4179992  85.3029978 132.1630014  30.3799992  84.6569978 132.8680014
  30.0959992  84.8359978 131.3920014  30.3692679  85.1514276 132.1552921
  22.7859992  84.9169978 133.7560014  22.8279992  84.2919978 134.4790014
  23.4889992  85.5409978 133.9380014  22.8867345  84.9157873 133.8795273
  34.1239992  88.2419978 130.4650014  33.6829992  87.5219978 130.9150014
  34.1109992  88.9629978 131.0940014  34.0617960  88.2408329 130.6117567
  23.7099992  89.3669978 132.2910014  23.3399992  88.5649978 131.9210014
  24.6509992  89.1989978 132.3370014  23.7865984  89.2344638 132.2465603
  20.3199992  83.0269978 127.6840014  19.8719992  83.8729978 127.6650014
  19.7589992  82.4479978 127.1680014  20.1829603  83.0643674 127.6116720
  21.0299992  85.1889978 129.8100014  21.2439992  84.4189978 130.3370014
  21.7679992  85.2789978 129.2060014  21.1589652  85.0958012 129.8005212
  31.2359992  93.3459978 130.6770014  31.8549992  92.6699978 130.4030014
  31.0269992  93.1279978 131.5850014  31.2926232  93.2237938 130.7622517
  28.8069992  87.7349978 132.5690014  29.1109992  87.0489978 131.9750014
  29.5289992  87.8539978 133.1870014  28.9461152  87.6572189 132.5712123
  37.4699992  79.3369978 133.4300014  37.5199992  79.9469978 134.1660014
  37.8959992  79.7979978 132.7070014  37.5344108  79.4827709 133.4330112
  31.9479992  82.1289978 132.8970014  32.0909992  81.1829978 132.9170014
  31.8419992  82.3359978 131.9680014  31.9532509  82.0274813 132.7742231
  25.1029992  80.2309978 130.1690014  25.1459992  81.0909978 129.7510014
  24.6449992  79.6789978 129.5350014  25.0469815  80.2740621 130.0261197
  32.8249992  80.3619978 128.5700014  33.4719992  80.0329978 129.1950014
  33.3349992  80.8789978 127.9470014  32.9824317  80.3869227 128.5712167
  21.7229992  82.6279978 130.9310014  22.3769992  82.0779978 131.3630014
  21.7469992  82.3539978 130.0140014  21.8157199  82.5157167 130.8661668
  26.8799992  84.1779978 130.1460014  27.4959992  83.6509978 130.6560014
  26.2929992  83.5379978 129.7430014  26.8849239  84.0194117 130.1612952
  37.8619992  80.8149978 135.6660014  37.1729992  81.4729978 135.5700014
  37.8769992  80.6169978 136.6020014  37.7696740  80.8783243 135.7794630
  23.9129992  79.1489978 134.2430014  23.6939992  79.6789978 133.4770014
  23.2449992  79.3749978 134.8900014  23.7927001  79.2521154 134.2256064
  31.2819992  88.6489978 127.7870014  30.9869992  88.3259978 126.9360014
  30.9579992  89.5489978 127.8280014  31.1977983  88.7264027 127.6759771
  26.4819992  86.8239978 134.5310014  25.7419992  87.4229978 134.6340014
  27.1959992  87.3779978 134.2150014  26.4773288  86.9807356 134.5023805
  34.5889992  79.6529978 130.5500014  34.3739992  78.8869978 131.0830014
  35.2449992  80.1249978 131.0630014  34.6482673  79.6120728 130.6921990
  23.5069992  81.0409978 132.1950014  24.1209992  81.6739978 132.5690014
  24.0189992  80.5689978 131.5390014  23.6602277  81.0637352 132.1574279
  24.8899992  88.7889978 135.3180014  24.8839992  89.6679978 134.9400014
  24.0359992  88.7049978 135.7430014  24.7737925  88.8979535 135.3236887
  21.0109992  88.4599978 126.1000014  20.7389992  88.6889978 125.2110014
  21.0559992  89.2969978 126.5600014  20.9798709  88.6046058 126.0406107
  34.6359992  90.0809978 132.8120014  33.6939992  90.1399978 132.9740014
  34.9119992  90.9869978 132.6750014  34.5445865  90.2115288 132.8156192
  34.9359992  78.3679978 134.2300014  34.1999992  78.9779978 134.1920014
  35.6199992  78.7829978 133.7030014  34.9275506  78.5076400 134.1536051
  27.9399992  76.4539978 131.6960014  27.8219992  75.5059978 131.6410014
  27.0849992  76.7869978 131.9690014  27.8082679  76.3691926 131.7253720
  32.8879992  91.8619978 129.4380014  33.3129992  91.1549978 128.9530014
  33.2049992  92.6639978 129.0210014  32.9890266  91.8735190 129.3152479
  34.0479992  89.7629978 127.9460014  33.7899992  89.0729978 127.3350014
  34.1189992  89.3199978 128.7920014  34.0222837  89.6087106 127.9766912
  35.7339992  88.3299978 136.4240014  35.8729992  87.7379978 135.6840014
  35.9009992  89.2029978 136.0670014  35.7755562  88.3669896 136.2746283
  30.2059992  85.2919978 126.1960014  29.4949992  85.8269978 125.8440014
  30.8969992  85.3469978 125.5360014  30.2020751  85.3726777 126.0585858
  30.2599992  83.7489978 123.2350014  30.9609992  83.7719978 123.8860014
  30.5619992  83.1209978 122.5790014  30.3968282  83.6672339 123.2354496
  37.5749992  84.6699978 134.4900014  36.9229992  85.3639978 134.5790014
  38.0409992  84.8799978 133.6800014  37.5485937  84.7935019 134.3927533
  33.6119992  85.5009978 127.1480014  32.8799992  85.7299978 127.7210014
  34.0589992  84.7879978 127.6030014  33.5722753  85.4358972 127.2879715
  33.5089992  83.6759978 136.2160014  33.5889992  84.4389978 136.7870014
  32.9079992  83.9549978 135.5250014  33.4387245  83.8182630 136.2008424
  25.2569992  86.1319978 129.0300014  24.9269992  85.7609978 128.2120014
  25.8459992  85.4609978 129.3770014  25.2913970  85.9906063 128.9649404
  26.6239992  89.5599978 131.7120014  26.5289992  88.9809978 130.9550014
  27.3529992  89.1889978 132.2080014  26.7096161  89.4305891 131.6755209
  25.6239992  84.8999978 132.6640014  26.1889992  85.0219978 131.9010014
  25.9429992  85.5379978 133.3030014  25.7443977  85.0028851 132.6459424
  31.9329992  90.4039978 133.3980014  31.6929992  91.0659978 134.0460014
  31.7349992  89.5689978 133.8230014  31.8733826  90.3818115 133.5441566
  26.5039992  89.2999978 137.3810014  26.1929992  90.0819978 137.8360014
  25.8539992  89.1469978 136.6950014  26.3735538  89.3864087 137.3505898
  32.4829992  84.6639978 124.8330014  33.0619992  84.8139978 125.5800014
  32.8969992  85.1339978 124.1100014  32.6183122  84.7481277 124.8375042
  23.4239992  85.4979978 136.6100014  23.4939992  86.1489978 137.3080014
  22.5329992  85.6009978 136.2750014  23.3131802  85.6009757 136.6602249
  30.2089992  91.3999978 128.2680014  30.6829992  91.6959978 129.0460014
  29.6459992  92.1389978 128.0350014  30.1977361  91.5402721 128.3428611
  24.7429992  91.3709978 138.1440014  24.7509992  91.2349978 137.1970014
  23.8269992  91.2539978 138.3960014  24.6202528  91.3365463 138.0483243
  36.1819992  76.4139978 124.6460014  35.2819992  76.5529978 124.9410014
  36.4339992  77.2449978 124.2440014  36.0928683  76.5454055 124.6320232
  24.2479992  85.2009978 126.6200014  23.9559992  85.9689978 126.1290014
  23.5729992  84.5419978 126.4570014  24.1168497  85.2169745 126.5308260
  37.3709992  90.7799978 123.0220014  37.4439992  91.7189978 123.1930014
  38.2759992  90.4749978 122.9660014  37.5034158  90.8673061 123.0378392
  20.3409992  87.5639978 135.4350014  19.8389992  87.5359978 134.6200014
  20.3459992  86.6589978 135.7440014  20.2730416  87.4377368 135.3653766
  20.0909992  90.3449978 132.3190014  21.0369992  90.1999978 132.3000014
  19.9779992  91.1289978 132.8560014  20.2053578  90.4311697 132.3890317
  38.2889992  91.0109978 138.0010014  38.2389992  90.0549978 137.9640014
  37.4619992  91.2779978 138.4020014  38.1703987  90.9165174 138.0501446
  29.2669992  90.5849978 136.8770014  29.3549992  91.4109978 137.3520014
  28.4039992  90.2549978 137.1260014  29.1623357  90.6535468 136.9757653
  29.6819992  94.3569978 126.6830014  29.6059992  94.2359978 125.7370014
  29.7139992  95.3059978 126.8020014  29.6759156  94.4687530 126.5695048
  23.3349992  93.1459978 128.4640014  23.4869992  92.7979978 129.3430014
  22.4839992  92.7889978 128.2090014  23.2407899  93.0501738 128.5497340
  32.7829992  93.5109978 123.6850014  33.1579992  92.7669978 123.2150014
  32.7879992  93.2409978 124.6040014  32.8350024  93.3726950 123.7447987
  32.4519992  93.4369978 126.4350014  31.5169992  93.5369978 126.6130014
  32.7319992  92.7269978 127.0130014  32.3618173  93.3547239 126.5374998
  35.4409992  82.5039978 138.4810014  35.0329992  82.9839978 137.7610014
  35.4809992  81.5979978 138.1730014  35.3905476  82.4473160 138.3408247
  22.5899992  88.8879978 136.4780014  22.8059992  88.5259978 137.3370014
  21.7339992  88.5129978 136.2680014  22.5039354  88.7877906 136.5672160
  25.2079992  77.3579978 132.4730014  24.3469992  77.2709978 132.0660014
  25.1859992  78.2139978 132.9010014  25.0870411  77.4617884 132.4750857
  29.8709992  77.0799978 135.8480014  30.2909992  76.6649978 136.6010014
  28.9379992  76.9009978 135.9650014  29.8023736  76.9989910 135.9668968
  33.1979992  80.8349978 136.7010014  32.6839992  80.7099978 137.4990014
  33.0419992  81.7479978 136.4570014  33.1066967  80.9412123 136.7770937
  33.9599992  85.6959978 122.4630014  34.0019992  85.4739978 121.5330014
  34.8089992  86.0949978 122.6530014  34.0805253  85.7195498 122.3613822
  29.5329992  79.5719978 123.1330014  29.2789992  79.5909978 124.0560014
  29.2759992  78.7009978 122.8320014  29.4635133  79.4568110 123.2185082
  25.2989992  82.3229978 133.5680014  24.6579992  82.2829978 134.2770014
  25.3369992  83.2499978 133.3310014  25.2163670  82.4427795 133.6330550
  25.2959992  82.5439978 128.4800014  24.4039992  82.2039978 128.4220014
  25.7469992  82.1669978 127.7250014  25.2346815  82.4463762 128.3699203
  30.8319992  82.9599978 127.2970014  30.4229992  83.7749978 127.0060014
  31.5519992  82.8199978 126.6830014  30.8734013  83.0526571 127.1740875
  29.9339992  83.1359978 138.7850014  29.3709992  82.4309978 139.1060014
  30.7599992  83.0149978 139.2530014  29.9686674  83.0232165 138.8921751
  31.8369992  82.4059978 130.1110014  31.6409992  83.0119978 129.3960014
  32.0179992  81.5729978 129.6770014  31.8346584  82.3762513 129.9544212
  23.0489992  82.6439978 135.4350014  23.0109992  83.0439978 136.3040014
  22.5589992  81.8269978 135.5260014  22.9775621  82.5882510 135.5661377
  26.4149992  80.0179978 122.2340014  25.9839992  79.5729978 122.9640014
  25.6969992  80.3889978 121.7220014  26.2589363  80.0072968 122.2646211
  19.6579992  79.7599978 129.2860014  20.2879992  79.7309978 130.0050014
  20.1069992  79.3349978 128.5560014  19.8050692  79.6985316 129.2857771
  20.9319992  80.5059978 124.7100014  21.4059992  81.0969978 124.1250014
  20.2139992  81.0359978 125.0570014  20.8998640  80.6585511 124.6767969
  31.1009992  84.0439978 134.7830014  31.4239992  83.4129978 134.1400014
  30.6599992  83.5099978 135.4430014  31.0855789  83.8853522 134.7842232
  27.8779992  79.9719978 129.5670014  26.9669992  80.0289978 129.8550014
  28.3829992  79.9119978 130.3770014  27.8215387  79.9716870 129.7160646
  22.7059992  81.6009978 128.3930014  21.8169992  81.6999978 128.0530014
  23.0029992  80.7589978 128.0470014  22.6244177  81.5007687 128.2996940
  26.3589992  81.6009978 126.0500014  27.2909992  81.7299978 126.2280014
  26.1439992  82.2699978 125.4000014  26.4574472  81.7090806 125.9864891
  32.2829992  79.2069978 132.8310014  31.6059992  79.3379978 133.4950014
  31.7979992  79.0519978 132.0210014  32.1247265  79.2039659 132.8123397
  25.0329992  82.7949978 123.6170014  24.4909992  82.4159978 122.9250014
  25.8669992  82.9899978 123.1880014  25.0715159  82.7695076 123.4644419
  35.5709992  94.8779978 139.1080014  35.7699992  95.3019978 138.2730014
  36.2259992  95.2219978 139.7150014  35.6868501  94.9826091 139.0757097
  23.1689992  87.3519978 138.7160014  23.9009992  87.6069978 139.2770014
  22.3879992  87.5569978 139.2310014  23.1637684  87.4146468 138.8624782
  29.1979992  82.7589978 131.4540014  29.7619992  82.2129978 130.9070014
  29.0499992  82.2379978 132.2420014  29.2552575  82.6136552 131.4856987
  24.1999992  78.8959978 127.8720014  23.8829992  77.9929978 127.8370014
  24.9809992  78.8979978 127.3190014  24.2622307  78.7726951 127.7924314
  27.8239992  81.1479978 133.8680014  26.9889992  81.6019978 133.9780014
  28.3479992  81.4239978 134.6200014  27.7805070  81.2474666 133.9847152
  28.3689992  87.3609978 125.5520014  27.6239992  86.8529978 125.2300014
  28.2339992  87.4099978 126.4990014  28.2489047  87.2981596 125.6358845
  35.5189992  86.4939978 134.3390014  36.1599992  86.9499978 133.7950014
  34.6879992  86.6069978 133.8770014  35.4945171  86.5717502 134.2020237
  32.2659992  80.1749978 123.7520014  31.3279992  80.2859978 123.6000014
  32.5639992  81.0309978 124.0580014  32.1776402  80.3060621 123.7725571
  29.8879992  87.5449978 136.7890014  29.5419992  87.1629978 137.5960014
  29.6879992  88.4779978 136.8610014  29.8136523  87.6189095 136.9090735
  32.9849992  82.0419978 125.4120014  33.8769992  81.9039978 125.7310014
  33.0409992  82.8329978 124.8760014  33.1147107  82.1300526 125.3832091
  23.4929992  86.6559978 131.3220014  24.2379992  86.6529978 130.7210014
  23.5709992  85.8319978 131.8040014  23.6054158  86.5442916 131.3049153
  30.4939992  88.8189978 124.5780014  30.1989992  89.6459978 124.9590014
  29.7909992  88.1999978 124.7740014  30.3585471  88.8485227 124.6566698
  20.5009992  85.1159978 136.6370014  20.7239992  84.6979978 137.4690014
  19.8989992  84.5039978 136.2140014  20.4501260  84.9759933 136.6937320
  27.5179992  84.6329978 138.8500014  27.2219992  84.4679978 137.9550014
  28.4489992  84.4129978 138.8390014  27.6033982  84.5806578 138.7260045
  32.1379992  90.0069978 136.7400014  31.2379992  90.1899978 136.4720014
  32.1719992  90.2659978 137.6610014  32.0192909  90.0670815 136.8277852
  37.8699992  82.2509978 125.1070014  37.3149992  81.8549978 124.4350014
  37.9699992  83.1619978 124.8290014  37.8075888  82.3198990 124.9775206
  37.8329992  88.0519978 137.9440014  36.9819992  88.2899978 137.5770014
  38.4229992  88.0349978 137.1910014  37.7962408  88.0822966 137.7918879
  36.1649992  91.0369978 125.5720014  35.7919992  90.2119978 125.8810014
  36.4419992  90.8539978 124.6750014  36.1513871  90.8992441 125.4929677
  33.3249992  85.8449978 132.5930014  32.3969992  85.6139978 132.5660014
  33.7759992  85.0679978 132.2630014  33.2588165  85.7082774 132.5446790
  25.8679992  90.1739978 128.7260014  26.3959992  90.9469978 128.5260014
  24.9879992  90.3979978 128.4250014  25.8213176  90.3103161 128.6578409
  21.6229992  85.0359978 123.3140014  22.2389992  85.6629978 123.6930014
  20.7609992  85.3519978 123.5850014  21.5908195  85.1645798 123.4025386
  27.2959992  87.8369978 128.3030014  27.0549992  88.7619978 128.3440014
  26.5549992  87.3779978 128.6990014  27.1628390  87.9016403 128.3621404
  27.8099992  91.9859978 134.6180014  28.1729992  92.8399978 134.3840014
  28.3419992  91.6939978 135.3580014  27.9316090  92.0634058 134.6860219
  25.9789992  92.8579978 127.8480014  25.0289992  92.9639978 127.8990014
  26.3309992  93.6789978 128.1930014  25.8965480  92.9834438 127.9015999
  31.3539992  88.0849978 134.3180014  30.9289992  87.8569978 135.1450014
  31.9349992  87.3459978 134.1360014  31.3743930  87.9539843 134.4064732
  33.5569992  89.0139978 123.3920014  33.9109992  88.6339978 124.1970014
  32.6089992  88.9199978 123.4790014  33.4771820  88.9493092 123.5138714
  34.0129992  92.6369978 136.7880014  33.4109992  92.0809978 136.2920014
  34.2939992  93.3039978 136.1620014  33.9686829  92.6511613 136.6355443
  38.0609992  93.4929978 123.5930014  38.8049992  94.0789978 123.4530014
  37.3669992  94.0619978 123.9270014  38.0690201  93.6500603 123.6189772
  22.1349992  79.8699978 136.1950014  21.2429992  80.2079978 136.1280014
  22.0369992  79.0139978 136.6130014  21.9994965  79.8006499 136.2423044
  34.4229992  87.6859978 125.6190014  34.1459992  86.9579978 126.1750014
  35.3509992  87.8049978 125.8240014  34.5104499  87.6024213 125.7228044
  21.7869992  91.6739978 134.6300014  22.0039992  90.7419978 134.5990014
  22.0329992  91.9489978 135.5130014  21.8499809  91.5835686 134.7451691
  27.6479992  90.1259978 121.8390014  27.8869992  89.3769978 121.2920014
  27.3789992  89.7379978 122.6720014  27.6443233  89.9711853 121.8767809
  26.5849992  89.6959978 124.2960014  26.7319992  89.1759978 125.0860014
  26.5819992  90.6029978 124.6020014  26.6047300  89.7473964 124.4455895
  23.0379992  86.9479978 124.8060014  22.3519992  87.3009978 125.3730014
  23.5609992  87.7109978 124.5600014  23.0149033  87.0993746 124.8502661
  30.8699992  79.6109978 135.0850014  31.5689992  79.6849978 135.7350014
  30.4889992  78.7459978 135.2390014  30.9142097  79.5042389 135.1947997
  31.6539992  79.2629978 126.1820014  31.8739992  79.7339978 125.3790014
  32.2129992  79.6569978 126.8520014  31.7596730  79.3807432 126.1625906
  29.3229992  91.3929978 125.0450014  28.5059992  91.8899978 125.0970014
  29.8519992  91.8689978 124.4050014  29.2828508  91.5252543 124.9656035
  28.8539992  80.9909978 127.0170014  29.6659992  81.4949978 127.0630014
  28.6099992  80.8459978 127.9310014  28.9321467  81.0403749 127.1468575
  29.3899992  81.9769978 136.2020014  29.5089992  82.5509978 136.9590014
  30.0449992  81.2889978 136.3160014  29.4949146  81.9625574 136.3211314
  29.7379992  78.0719978 127.9550014  29.3909992  78.6889978 128.6000014
  30.3969992  78.5729978 127.4740014  29.7795949  78.2241099 127.9782271
  26.6609992  92.4369978 125.0270014  26.8219992  93.2369978 124.5260014
  26.4639992  92.7439978 125.9120014  26.6563919  92.5879129 125.0781006
  25.3959992  79.1349978 124.6420014  25.3119992  80.0229978 124.9890014
  26.2859992  78.8699978 124.8740014  25.5048163  79.2207179 124.7208596
  35.5939992  79.8839978 137.0370014  34.6779992  80.1459978 136.9490014
  35.9299992  79.8809978 136.1400014  35.5139789  79.9194626 136.9037847
  34.1969992  83.6339978 131.1320014  33.3989992  83.2189978 130.8040014
  34.6419992  82.9439978 131.6230014  34.1479684  83.4838628 131.1535227
  23.6539992  89.5619978 123.7030014  24.2459992  90.2619978 123.9790014
  24.1129992  89.1289978 122.9830014  23.7970791  89.5992908 123.6434607
  21.9699992  82.2269978 122.8190014  21.9249992  83.1659978 122.9970014
  21.0819992  81.9909978 122.5490014  21.8438555  82.3236874 122.8068939
  35.2829992  92.8899978 132.7550014  35.1269992  93.5689978 132.0980014
  36.2159992  92.9619978 132.9580014  35.3877387  92.9926390 132.6925342
  22.7779992  77.0079978 131.4920014  22.5489992  77.0669978 130.5640014
  22.3359992  76.2169978 131.7980014  22.6868801  76.9090540 131.4064729
  21.7089992  90.9489978 127.6520014  20.8759992  91.4209978 127.6800014
  22.2539992  91.4589978 127.0540014  21.6687590  91.0825897 127.5749194
  20.9969992  93.5609978 138.9820014  21.5369992  93.3449978 139.7420014
  20.5159992  92.7559978 138.7930014  21.0058613  93.4225400 139.0604782
  25.5939992  92.4809978 140.6030014  26.3619992  92.0219978 140.9440014
  25.5729992  92.2549978 139.6730014  25.6962135  92.3876668 140.5239491
  29.6859992  91.9889978 121.9780014  29.0419992  91.3579978 122.2990014
  30.4479992  91.4579978 121.7460014  29.7008058  91.8307902 121.9906038
  32.1709992  90.8609978 139.3320014  31.8199992  90.0039978 139.5750014
  32.8969992  91.0029978 139.9390014  32.2211590  90.7630178 139.4472907
  34.2909992  91.8059978 122.2120014  34.5739992  91.0109978 122.6640014
  35.0299992  92.0389978 121.6510014  34.4296956  91.7287031 122.1979822
  20.9039992  87.3719978 139.9370014  21.0479992  86.4699978 139.6500014
  20.1319992  87.6579978 139.4490014  20.8193303  87.2873243 139.8317908
  25.2449992  87.7149978 122.0690014  25.3099992  86.9209978 122.6000014
  25.8979992  87.5969978 121.3790014  25.3421754  87.5903337 122.0484259
  27.5589992  87.3409978 139.3690014  27.2309992  87.6119978 138.5120014
  27.7109992  86.3999978 139.2820014  27.5346030  87.2508973 139.2397945
  30.5979992  88.7619978 121.8050014  30.3289992  88.9429978 122.7060014
  30.3909992  87.8369978 121.6740014  30.5332000  88.6616774 121.9105693
  33.2939992  87.2569978 136.7530014  34.0389992  87.8459978 136.6330014
  32.5369992  87.8389978 136.8160014  33.2935205  87.4161997 136.7451119
  21.7369992  84.5719978 139.3570014  22.1449992  83.7149978 139.2360014
  21.4759992  84.5859978 140.2780014  21.7576016  84.4565119 139.4649192
  26.3949992  85.6879978 124.3750014  25.9349992  85.2039978 125.0610014
  26.6499992  85.0189978 123.7390014  26.3665038  85.5313689 124.3829447
  25.6839992  83.5809978 136.7310014  25.0649992  84.2549978 137.0110014
  26.0279992  83.9019978 135.8980014  25.6457605  83.7167198 136.6566707
  27.4659992  83.9309978 122.6370014  27.2849992  83.7759978 121.7100014
  28.4159992  84.0389978 122.6820014  27.5696566  83.9243669 122.5160929
  30.7029992  86.0519978 140.0080014  31.6569992  86.1359978 139.9810014
  30.5429992  85.3399978 140.6280014  30.8117182  85.9672842 140.0880733
  36.8559992  86.2849978 122.0830014  36.5819992  85.8609978 121.2700014
  36.8949992  87.2169978 121.8660014  36.8237716  86.3528827 121.9424286
  26.0229992  80.9359978 137.8130014  26.1729992  80.2069978 137.2110014
  26.0249992  81.7129978 137.2540014  26.0437967  80.9412708 137.6550541
  26.4359992  79.3049978 135.3060014  26.9709992  79.7569978 134.6540014
  25.5829992  79.1969978 134.8830014  26.3940374  79.3522665 135.1596710
  28.0169992  84.7449978 135.5450014  28.7679992  84.5889978 134.9720014
  27.6779992  85.5969978 135.2700014  28.0739587  84.8388138 135.4294078
  32.4329992  82.5599978 140.5740014  32.6249992  81.6289978 140.4620014
  33.2909992  82.9849978 140.5640014  32.5752269  82.4899928 140.5573192
  33.7499992  85.3489978 138.6510014  33.4679992  86.0579978 138.0740014
  34.6919992  85.2759978 138.5000014  33.8387656  85.4363128 138.5514809
  24.5019992  82.1339978 139.7250014  23.7339992  81.6009978 139.5150014
  25.1799992  81.8239978 139.1250014  24.4886973  82.0192375 139.6151796
  27.2409992  76.7619978 135.7370014  27.1429992  77.7079978 135.6320014
  26.4989992  76.3889978 135.2620014  27.1271913  76.8411813 135.6583539
  28.5049992  81.0829978 139.3010014  28.2699992  80.8639978 140.2030014
  27.7219992  80.8759978 138.7910014  28.3669219  81.0250066 139.3555852
  31.2209992  80.2109978 138.3770014  30.2729992  80.2429978 138.5090014
  31.5329992  79.5849978 139.0300014  31.1335190  80.1307262 138.4833564
  32.8549992  78.8449978 140.3820014  32.7579992  77.8929978 140.3760014
  32.5329992  79.1129978 141.2420014  32.7981761  78.7509744 140.4974936
  22.6819992  80.0539978 139.4290014  22.8939992  79.3479978 138.8190014
  22.5709992  79.6169978 140.2730014  22.6960269  79.8981921 139.4595873
  27.4629992  76.0559978 138.4090014  28.1749992  75.4159978 138.3950014
  27.3619992  76.3219978 137.4950014  27.5467261  76.0044190 138.2835537
  27.8169992  77.7379978 140.4620014  27.6849992  77.2629978 139.6420014
  27.2169992  78.4829978 140.4070014  27.7179070  77.7735789 140.3423251
  27.3629992  94.6209978 123.6390014  28.2959992  94.7789978 123.7820014
  27.0989992  95.2969978 123.0140014  27.4549308  94.7339104 123.5741396
  20.9309992  89.2579978 123.1210014  21.8449992  89.3369978 123.3950014
  20.9389992  88.5709978 122.4550014  21.0571143  89.1759085 123.0684274
  19.5799992  94.6509978 128.1990014  18.9329992  94.1889978 127.6660014
  19.9349992  93.9789978 128.7810014  19.5394506  94.4969503 128.2047341
  20.4499992  92.7309978 130.0030014  20.1159992  91.8509978 130.1750014
  20.6729992  93.0769978 130.8680014  20.4343721  92.6571938 130.1434168
  37.9989992  93.5409978 132.9840014  37.9769992  93.7259978 133.9230014
  38.6889992  94.1089978 132.6430014  38.0893439  93.6431887 133.0664791
  37.5619992  93.1079978 135.9060014  37.0749992  92.3729978 135.5350014
  38.1109992  92.7139978 136.5840014  37.5695247  92.9541057 135.9468461
  36.0129992  88.8979978 140.5440014  35.1469992  88.7929978 140.9380014
  36.3889992  89.6559978 140.9900014  35.9453401  88.9861708 140.6582620
  37.3139992  87.1539978 126.0580014  38.1639992  87.5749978 126.1850014
  37.3189992  86.4139978 126.6650014  37.4311143  87.1116094 126.1574750
  37.7079992  85.2079978 127.8820014  36.9819992  84.7279978 128.2790014
  38.2899992  85.4129978 128.6140014  37.6871635  85.1699166 128.0353748
  37.4669992  87.9929978 132.8290014  38.3009992  87.6149978 132.5490014
  37.5789992  88.9359978 132.7100014  37.5962522  88.0687742 132.7746020
  35.9539992  90.8709978 135.1360014  35.3059992  91.1959978 135.7620014
  35.4359992  90.4299978 134.4620014  35.7954168  90.8558523 135.1305307
  37.9769992  85.1089978 124.2730014  37.4549992  85.4649978 123.5540014
  37.9439992  85.7839978 124.9510014  37.9010699  85.2489848 124.2662129
  36.3259992  82.3479978 122.8240014  36.4219992  83.0149978 122.1440014
  36.1859992  81.5329978 122.3420014  36.3202063  82.3290667 122.6658377
  35.4949992  83.7289978 128.4450014  35.3449992  82.7839978 128.4240014
  35.1409992  84.0099978 129.2880014  35.4265527  83.6375605 128.5561859
  20.5299992  85.8069978 132.4550014  20.7149992  85.7249978 131.5190014
  21.3799992  85.6829978 132.8790014  20.6700916  85.7790393 132.3842896
  36.3509992  85.6989978 138.0830014  36.9339992  84.9639978 138.2750014
  36.9149992  86.4709978 138.1300014  36.5069781  85.7028145 138.1156164
  37.8479992  83.6019978 138.7680014  36.9849992  83.2229978 138.6020014
  38.4519992  82.8629978 138.6940014  37.8115944  83.4502978 138.7352984
  35.5729992  79.7559978 121.9410014  36.1839992  79.3849978 122.5780014
  34.7359992  79.3349978 122.1370014  35.5434947  79.6482756 122.0547252
  35.2059992  81.3109978 126.9070014  35.4849992  80.4039978 127.0310014
  35.9649992  81.7449978 126.5180014  35.3468619  81.2454502 126.8713795
  35.8169992  81.8929978 132.3430014  36.7499992  82.1049978 132.3090014
  35.5819992  81.9939978 133.2650014  35.9128308  81.9356503 132.4630214
  35.8469992  82.6299978 135.1190014  35.0039992  82.8979978 135.4850014
  36.2889992  83.4519978 134.9080014  35.7914138  82.7778273 135.1405518
  20.1279992  81.0769978 138.5960014  21.0469992  80.9549978 138.8320014
  19.6779992  80.3269978 138.9850014  20.1931148  80.9588751 138.6809408
  38.1299992  76.6099978 140.4720014  38.4789992  75.9559978 139.8670014
  38.2769992  77.4469978 140.0330014  38.1977355  76.6336067 140.3296564
  35.8189992  78.5739978 126.9550014  36.0009992  78.1249978 127.7810014
  35.2189992  77.9899978 126.4920014  35.7627529  78.4336131 127.0053619
  21.3489992  79.3899978 131.4870014  21.7939992  78.5979978 131.7890014
  21.8149992  80.1059978 131.9180014  21.4729059  79.3784474 131.5866079
  19.6529992  82.3889978 132.5560014  20.1449992  82.1679978 131.7650014
  20.0149992  83.2289978 132.8370014  19.7692923  82.4723468 132.4857407
  37.6489992  78.7189978 138.8220014  36.7319992  78.9899978 138.7860014
  37.7719992  78.1839978 138.0380014  37.5400828  78.6837700 138.7110785
  37.6859992  78.6419978 123.4830014  38.0979992  77.9209978 123.0080014
  38.3669992  79.3109978 123.5420014  37.8345900  78.6337306 123.4259038
  19.9669992  78.6469978 126.6100014  19.0419992  78.8549978 126.4810014
  20.4209992  79.1309978 125.9210014  19.9016374  78.7409949 126.4990957
  34.7369992  93.6309978 128.5560014  35.3899992  93.2829978 127.9480014
  35.2479992  94.1189978 129.2020014  34.8952777  93.6493815 128.5602047
  19.9299992  77.3849978 134.9550014  19.2649992  77.1389978 135.5980014
  19.4869992  78.0069978 134.3770014  19.7790937  77.4353614 134.9649379
  22.1219992  90.5599978 139.0990014  21.3009992  90.7349978 138.6390014
  21.8699992  90.4869978 140.0200014  21.9756173  90.5740794 139.1604972
  25.0759992  91.5339978 135.3580014  24.6519992  92.3439978 135.0750014
  25.9809992  91.6199978 135.0560014  25.1402433  91.6563331 135.2785377
  29.3879992  92.9329978 138.3170014  29.5719992  92.5999978 139.1950014
  30.2339992  93.2429978 137.9950014  29.5276484  92.9292979 138.3937617
  31.7329992  94.2189978 137.5610014  32.4099992  93.5859978 137.3210014
  32.0539992  94.6199978 138.3680014  31.8691323  94.1865691 137.6373158
  36.6499992  76.8089978 136.6410014  35.8369992  77.1339978 136.2530014
  36.8829992  76.0479978 136.1080014  36.5702566  76.7506559 136.5159213
  22.4779992  94.7909978 135.4050014  21.7579992  95.2309978 134.9540014
  22.1129992  94.5399978 136.2540014  22.3299796  94.8173824 135.4579329
  24.9449992  94.3909978 134.4350014  24.0809992  94.4629978 134.8390014
  24.8899992  94.9379978 133.6510014  24.8191942  94.4747849 134.3844000
  29.6559992  94.2789978 133.6100014  29.1989992  94.8079978 132.9560014
  29.8189992  94.8819978 134.3360014  29.6154476  94.4329140 133.6185499
  31.9839992  93.1569978 134.5550014  31.0789992  93.3219978 134.2900014
  32.4119992  94.0099978 134.4900014  31.9180700  93.2949529 134.5099520
  34.5879992  94.7269978 134.8500014  34.4059992  95.6429978 134.6400014
  34.7649992  94.3159978 134.0040014  34.5869907  94.7969741 134.7067883
  21.8929992  93.4139978 132.3150014  21.8749992  92.9879978 133.1730014
  22.6979992  93.0949978 131.9070014  21.9993221  93.3127233 132.3770225
  24.0339992  92.1239978 130.9700014  23.8149992  91.2069978 131.1400014
  24.8579992  92.2639978 131.4360014  24.1154702  92.0175511 131.0562527
  26.5709992  92.5939978 131.8190014  26.7839992  91.7059978 131.5320014
  26.6359992  92.5589978 132.7740014  26.6089075  92.4678307 131.9087373
  30.0799992  78.2579978 130.9630014  29.4059992  77.6279978 131.2190014
  30.6439992  77.7739978 130.3600014  30.0640384  78.1063708 130.9165020
  35.2229992  76.3649978 131.0760014  35.8259992  76.9129978 130.5740014
  34.3529992  76.6839978 130.8360014  35.1879190  76.4831041 130.9748679
  36.9499992  77.5039978 129.4090014  37.5609992  76.9899978 128.8830014
  37.3319992  78.3809978 129.4330014  37.0854475  77.5521323 129.3401208
  22.4069992  76.8919978 128.7850014  21.6299992  76.6569978 128.2780014
  22.9369992  76.0949978 128.7940014  22.3723451  76.7521268 128.7168627
  21.2429992  76.6899978 124.5890014  21.6819992  77.3009978 123.9970014
  20.6089992  77.2279978 125.0630014  21.2173859  76.8464064 124.5720305
  26.9859992  76.8179978 128.5990014  27.8599992  77.2069978 128.5690014
  26.8499992  76.6029978 129.5210014  27.0873207  76.8421923 128.7196509
  32.5429992  76.8479978 130.2480014  32.6189992  76.9439978 129.2990014
  32.2679992  75.9409978 130.3770014  32.5162042  76.7384241 130.1353811
  33.8959992  76.8739978 125.9400014  33.1929992  77.4889978 125.7310014
  33.4509992  76.0369978 126.0720014  33.7396292  76.8450085 125.9292439
  21.1439992  92.6379978 125.4870014  20.4589992  92.5999978 124.8190014
  21.1479992  93.5509978 125.7750014  21.0508174  92.7561998 125.4345310
  23.1039992  78.6059978 123.0310014  23.5949992  77.9759978 122.5040014
  23.7269992  78.9019978 123.6950014  23.2555062  78.5596770 123.0485438
  28.1299992  78.8989978 125.4890014  28.3079992  78.2519978 126.1710014
  28.0759992  79.7329978 125.9560014  28.1471025  78.9230504 125.6456433
  30.0079992  93.8469978 123.8840014  30.8739992  94.2139978 123.7060014
  29.7619992  93.4079978 123.0700014  30.0932097  93.8378525 123.7496019
  36.7169992  93.4099978 126.5630014  36.5229992  92.6619978 125.9980014
  36.6779992  94.1679978 125.9800014  36.6851645  93.4100786 126.4068148
  22.3639992  77.4059978 138.3030014  21.9979992  76.6399978 138.7460014
  23.2769992  77.4349978 138.5900014  22.4373225  77.3051906 138.4023459
  24.3369992  76.7559978 139.8390014  25.2359992  76.4819978 139.6540014
  23.9509992  76.0139978 140.3030014  24.4077237  76.6181508 139.8764710
  22.9619992  93.5579978 122.5120014  22.6939992  93.8439978 123.3850014
  23.7329992  93.0119978 122.6640014  23.0295600  93.5233330 122.6521499
  32.7589992  76.0889978 140.0210014  32.8349992  75.6629978 140.8750014
  33.6519992  76.1019978 139.6780014  32.8902267  76.0323952 140.0915932
  35.9349992  92.1619978 138.7130014  35.1529992  91.9749978 138.1940014
  35.8629992  93.0909978 138.9310014  35.8180863  92.2620221 138.6713574
  50.3409992  86.0479978 128.7440014  50.4299992  86.9919978 128.6120014
  49.7029992  85.7729978 128.0860014  50.2669062  86.1399812 128.6369641
  49.2739992  85.3029978 132.1630014  49.2359992  84.6569978 132.8680014
  48.9519992  84.8359978 131.3920014  49.2252679  85.1514276 132.1552921
  41.6419992  84.9169978 133.7560014  41.6839992  84.2919978 134.4790014
  42.3449992  85.5409978 133.9380014  41.7427345  84.9157873 133.8795273
  52.9799992  88.2419978 130.4650014  52.5389992  87.5219978 130.9150014
  52.9669992  88.9629978 131.0940014  52.9177960  88.2408329 130.6117567
  42.5659992  89.3669978 132.2910014  42.1959992  88.5649978 131.9210014
  43.5069992  89.1989978 132.3370014  42.6425984  89.2344638 132.2465603
  39.1759992  83.0269978 127.6840014  38.7279992  83.8729978 127.6650014
  38.6149992  82.4479978 127.1680014  39.0389603  83.0643674 127.6116720
  39.8859992  85.1889978 129.8100014  40.0999992  84.4189978 130.3370014
  40.6239992  85.2789978 129.2060014  40.0149652  85.0958012 129.8005212
  50.0919992  93.3459978 130.6770014  50.7109992  92.6699978 130.4030014
  49.8829992  93.1279978 131.5850014  50.1486232  93.2237938 130.7622517
  47.6629992  87.7349978 132.5690014  47.9669992  87.0489978 131.9750014
  48.3849992  87.8539978 133.1870014  47.8021152  87.6572189 132.5712123
  56.3259992  79.3369978 133.4300014  56.3759992  79.9469978 134.1660014
  56.7519992  79.7979978 132.7070014  56.3904108  79.4827709 133.4330112
  50.8039992  82.1289978 132.8970014  50.9469992  81.1829978 132.9170014
  50.6979992  82.3359978 131.9680014  50.8092509  82.0274813 132.7742231
  43.9589992  80.2309978 130.1690014  44.0019992  81.0909978 129.7510014
  43.5009992  79.6789978 129.5350014  43.9029815  80.2740621 130.0261197
  51.6809992  80.3619978 128.5700014  52.3279992  80.0329978 129.1950014
  52.1909992  80.8789978 127.9470014  51.8384317  80.3869227 128.5712167
  40.5789992  82.6279978 130.9310014  41.2329992  82.0779978 131.3630014
  40.6029992  82.3539978 130.0140014  40.6717199  82.5157167 130.8661668
  45.7359992  84.1779978 130.1460014  46.3519992  83.6509978 130.6560014
  45.1489992  83.5379978 129.7430014  45.7409239  84.0194117 130.1612952
  56.7179992  80.8149978 135.6660014  56.0289992  81.4729978 135.5700014
  56.7329992  80.6169978 136.6020014  56.6256740  80.8783243 135.7794630
  42.7689992  79.1489978 134.2430014  42.5499992  79.6789978 133.4770014
  42.1009992  79.3749978 134.8900014  42.6487001  79.2521154 134.2256064
  50.1379992  88.6489978 127.7870014  49.8429992  88.3259978 126.9360014
  49.8139992  89.5489978 127.8280014  50.0537983  88.7264026 127.6759771
  45.3379992  86.8239978 134.5310014  44.5979992  87.4229978 134.6340014
  46.0519992  87.3779978 134.2150014  45.3333288  86.9807356 134.5023805
  53.4449992  79.6529978 130.5500014  53.2299992  78.8869978 131.0830014
  54.1009992  80.1249978 131.0630014  53.5042673  79.6120728 130.6921990
  42.3629992  81.0409978 132.1950014  42.9769992  81.6739978 132.5690014
  42.8749992  80.5689978 131.5390014  42.5162277  81.0637352 132.1574279
  43.7459992  88.7889978 135.3180014  43.7399992  89.6679978 134.9400014
  42.8919992  88.7049978 135.7430014  43.6297925  88.8979535 135.3236887
  39.8669992  88.4599978 126.1000014  39.5949992  88.6889978 125.2110014
  39.9119992  89.2969978 126.5600014  39.8358709  88.6046058 126.0406107
  53.4919992  90.0809978 132.8120014  52.5499992  90.1399978 132.9740014
  53.7679992  90.9869978 132.6750014  53.4005865  90.2115288 132.8156192
  53.7919992  78.3679978 134.2300014  53.0559992  78.9779978 134.1920014
  54.4759992  78.7829978 133.7030014  53.7835506  78.5076400 134.1536051
  46.7959992  76.4539978 131.6960014  46.6779992  75.5059978 131.6410014
  45.9409992  76.7869978 131.9690014  46.6642679  76.3691926 131.7253720
  51.7439992  91.8619978 129.4380014  52.1689992  91.1549978 128.9530014
  52.0609992  92.6639978 129.0210014  51.8450266  91.8735190 129.3152479
  52.9039992  89.7629978 127.9460014  52.6459992  89.0729978 127.3350014
  52.9749992  89.3199978 128.7920014  52.8782837  89.6087106 127.9766912
  54.5899992  88.3299978 136.4240014  54.7289992  87.7379978 135.6840014
  54.7569992  89.2029978 136.0670014  54.6315562  88.3669896 136.2746283
  49.0619992  85.2919978 126.1960014  48.3509992  85.8269978 125.8440014
  49.7529992  85.3469978 125.5360014  49.0580751  85.3726777 126.0585858
  49.1159992  83.7489978 123.2350014  49.8169992  83.7719978 123.8860014
  49.4179992  83.1209978 122.5790014  49.2528282  83.6672339 123.2354496
  56.4309992  84.6699978 134.4900014  55.7789992  85.3639978 134.5790014
  56.8969992  84.8799978 133.6800014  56.4045937  84.7935019 134.3927533
  52.4679992  85.5009978 127.1480014  51.7359992  85.7299978 127.7210014
  52.9149992  84.7879978 127.6030014  52.4282753  85.4358972 127.2879715
  52.3649992  83.6759978 136.2160014  52.4449992  84.4389978 136.7870014
  51.7639992  83.9549978 135.5250014  52.2947245  83.8182630 136.2008424
  44.1129992  86.1319978 129.0300014  43.7829992  85.7609978 128.2120014
  44.7019992  85.4609978 129.3770014  44.1473970  85.9906063 128.9649404
  45.4799992  89.5599978 131.7120014  45.3849992  88.9809978 130.9550014
  46.2089992  89.1889978 132.2080014  45.5656161  89.4305891 131.6755209
  44.4799992  84.8999978 132.6640014  45.0449992  85.0219978 131.9010014
  44.7989992  85.5379978 133.3030014  44.6003977  85.0028851 132.6459424
  50.7889992  90.4039978 133.3980014  50.5489992  91.0659978 134.0460014
  50.5909992  89.5689978 133.8230014  50.7293826  90.3818115 133.5441566
  45.3599992  89.2999978 137.3810014  45.0489992  90.0819978 137.8360014
  44.7099992  89.1469978 136.6950014  45.2295538  89.3864087 137.3505898
  51.3389992  84.6639978 124.8330014  51.9179992  84.8139978 125.5800014
  51.7529992  85.1339978 124.1100014  51.4743122  84.7481277 124.8375042
  42.2799992  85.4979978 136.6100014  42.3499992  86.1489978 137.3080014
  41.3889992  85.6009978 136.2750014  42.1691802  85.6009757 136.6602249
  49.0649992  91.3999978 128.2680014  49.5389992  91.6959978 129.0460014
  48.5019992  92.1389978 128.0350014  49.0537361  91.5402721 128.3428611
  43.5989992  91.3709978 138.1440014  43.6069992  91.2349978 137.1970014
  42.6829992  91.2539978 138.3960014  43.4762528  91.3365463 138.0483243
  55.0379992  76.4139978 124.6460014  54.1379992  76.5529978 124.9410014
  55.2899992  77.2449978 124.2440014  54.9488683  76.5454055 124.6320232
  43.1039992  85.2009978 126.6200014  42.8119992  85.9689978 126.1290014
  42.4289992  84.5419978 126.4570014  42.9728497  85.2169745 126.5308260
  56.2269992  90.7799978 123.0220014  56.2999992  91.7189978 123.1930014
  57.1319992  90.4749978 122.9660014  56.3594158  90.8673061 123.0378392
  39.1969992  87.5639978 135.4350014  38.6949992  87.5359978 134.6200014
  39.2019992  86.6589978 135.7440014  39.1290416  87.4377368 135.3653766
  38.9469992  90.3449978 132.3190014  39.8929992  90.1999978 132.3000014
  38.8339992  91.1289978 132.8560014  39.0613578  90.4311697 132.3890317
  57.1449992  91.0109978 138.0010014  57.0949992  90.0549978 137.9640014
  56.3179992  91.2779978 138.4020014  57.0263987  90.9165174 138.0501446
  48.1229992  90.5849978 136.8770014  48.2109992  91.4109978 137.3520014
  47.2599992  90.2549978 137.1260014  48.0183357  90.6535468 136.9757653
  48.5379992  94.3569978 126.6830014  48.4619992  94.2359978 125.7370014
  48.5699992  95.3059978 126.8020014  48.5319156  94.4687530 126.5695048
  42.1909992  93.1459978 128.4640014  42.3429992  92.7979978 129.3430014
  41.3399992  92.7889978 128.2090014  42.0967899  93.0501738 128.5497340
  51.6389992  93.5109978 123.6850014  52.0139992  92.7669978 123.2150014
  51.6439992  93.2409978 124.6040014  51.6910024  93.3726950 123.7447987
  51.3079992  93.4369978 126.4350014  50.3729992  93.5369978 126.6130014
  51.5879992  92.7269978 127.0130014  51.2178173  93.3547239 126.5374998
  54.2969992  82.5039978 138.4810014  53.8889992  82.9839978 137.7610014
  54.3369992  81.5979978 138.1730014  54.2465476  82.4473160 138.3408247
  41.4459992  88.8879978 136.4780014  41.6619992  88.5259978 137.3370014
  40.5899992  88.5129978 136.2680014  41.3599354  88.7877906 136.5672160
  44.0639992  77.3579978 132.4730014  43.2029992  77.2709978 132.0660014
  44.0419992  78.2139978 132.9010014  43.9430411  77.4617884 132.4750857
  48.7269992  77.0799978 135.8480014  49.1469992  76.6649978 136.6010014
  47.7939992  76.9009978 135.9650014  48.6583736  76.9989910 135.9668968
  52.0539992  80.8349978 136.7010014  51.5399992  80.7099978 137.4990014
  51.8979992  81.7479978 136.4570014  51.9626967  80.9412123 136.7770937
  52.8159992  85.6959978 122.4630014  52.8579992  85.4739978 121.5330014
  53.6649992  86.0949978 122.6530014  52.9365253  85.7195498 122.3613822
  48.3889992  79.5719978 123.1330014  48.1349992  79.5909978 124.0560014
  48.1319992  78.7009978 122.8320014  48.3195133  79.4568110 123.2185082
  44.1549992  82.3229978 133.5680014  43.5139992  82.2829978 134.2770014
  44.1929992  83.2499978 133.3310014  44.0723670  82.4427795 133.6330550
  44.1519992  82.5439978 128.4800014  43.2599992  82.2039978 128.4220014
  44.6029992  82.1669978 127.7250014  44.0906815  82.4463762 128.3699203
  49.6879992  82.9599978 127.2970014  49.2789992  83.7749978 127.0060014
  50.4079992  82.8199978 126.6830014  49.7294013  83.0526571 127.1740875
  48.7899992  83.1359978 138.7850014  48.2269992  82.4309978 139.1060014
  49.6159992  83.0149978 139.2530014  48.8246674  83.0232165 138.8921751
  50.6929992  82.4059978 130.1110014  50.4969992  83.0119978 129.3960014
  50.8739992  81.5729978 129.6770014  50.6906584  82.3762513 129.9544212
  41.9049992  82.6439978 135.4350014  41.8669992  83.0439978 136.3040014
  41.4149992  81.8269978 135.5260014  41.8335621  82.5882510 135.5661377
  45.2709992  80.0179978 122.2340014  44.8399992  79.5729978 122.9640014
  44.5529992  80.3889978 121.7220014  45.1149363  80.0072968 122.2646211
  38.5139992  79.7599978 129.2860014  39.1439992  79.7309978 130.0050014
  38.9629992  79.3349978 128.5560014  38.6610692  79.6985316 129.2857771
  39.7879992  80.5059978 124.7100014  40.2619992  81.0969978 124.1250014
  39.0699992  81.0359978 125.0570014  39.7558640  80.6585511 124.6767969
  49.9569992  84.0439978 134.7830014  50.2799992  83.4129978 134.1400014
  49.5159992  83.5099978 135.4430014  49.9415789  83.8853522 134.7842232
  46.7339992  79.9719978 129.5670014  45.8229992  80.0289978 129.8550014
  47.2389992  79.9119978 130.3770014  46.6775387  79.9716870 129.7160646
  41.5619992  81.6009978 128.3930014  40.6729992  81.6999978 128.0530014
  41.8589992  80.7589978 128.0470014  41.4804177  81.5007687 128.2996940
  45.2149992  81.6009978 126.0500014  46.1469992  81.7299978 126.2280014
  44.9999992  82.2699978 125.4000014  45.3134472  81.7090806 125.9864891
  51.1389992  79.2069978 132.8310014  50.4619992  79.3379978 133.4950014
  50.6539992  79.0519978 132.0210014  50.9807265  79.2039659 132.8123397
  43.8889992  82.7949978 123.6170014  43.3469992  82.4159978 122.9250014
  44.7229992  82.9899978 123.1880014  43.9275159  82.7695076 123.4644419
  54.4269992  94.8779978 139.1080014  54.6259992  95.3019978 138.2730014
  55.0819992  95.2219978 139.7150014  54.5428501  94.9826091 139.0757097
  42.0249992  87.3519978 138.7160014  42.7569992  87.6069978 139.2770014
  41.2439992  87.5569978 139.2310014  42.0197684  87.4146468 138.8624782
  48.0539992  82.7589978 131.4540014  48.6179992  82.2129978 130.9070014
  47.9059992  82.2379978 132.2420014  48.1112575  82.6136552 131.4856987
  43.0559992  78.8959978 127.8720014  42.7389992  77.9929978 127.8370014
  43.8369992  78.8979978 127.3190014  43.1182307  78.7726951 127.7924314
  46.6799992  81.1479978 133.8680014  45.8449992  81.6019978 133.9780014
  47.2039992  81.4239978 134.6200014  46.6365070  81.2474665 133.9847152
  47.2249992  87.3609978 125.5520014  46.4799992  86.8529978 125.2300014
  47.0899992  87.4099978 126.4990014  47.1049047  87.2981596 125.6358845
  54.3749992  86.4939978 134.3390014  55.0159992  86.9499978 133.7950014
  53.5439992  86.6069978 133.8770014  54.3505171  86.5717502 134.2020237
  51.1219992  80.1749978 123.7520014  50.1839992  80.2859978 123.6000014
  51.4199992  81.0309978 124.0580014  51.0336402  80.3060621 123.7725571
  48.7439992  87.5449978 136.7890014  48.3979992  87.1629978 137.5960014
  48.5439992  88.4779978 136.8610014  48.6696523  87.6189095 136.9090735
  51.8409992  82.0419978 125.4120014  52.7329992  81.9039978 125.7310014
  51.8969992  82.8329978 124.8760014  51.9707107  82.1300526 125.3832091
  42.3489992  86.6559978 131.3220014  43.0939992  86.6529978 130.7210014
  42.4269992  85.8319978 131.8040014  42.4614158  86.5442916 131.3049153
  49.3499992  88.8189978 124.5780014  49.0549992  89.6459978 124.9590014
  48.6469992  88.1999978 124.7740014  49.2145471  88.8485227 124.6566698
  39.3569992  85.1159978 136.6370014  39.5799992  84.6979978 137.4690014
  38.7549992  84.5039978 136.2140014  39.3061260  84.9759933 136.6937320
  46.3739992  84.6329978 138.8500014  46.0779992  84.4679978 137.9550014
  47.3049992  84.4129978 138.8390014  46.4593982  84.5806578 138.7260045
  50.9939992  90.0069978 136.7400014  50.0939992  90.1899978 136.4720014
  51.0279992  90.2659978 137.6610014  50.8752909  90.0670815 136.8277852
  56.7259992  82.2509978 125.1070014  56.1709992  81.8549978 124.4350014
  56.8259992  83.1619978 124.8290014  56.6635888  82.3198990 124.9775206
  56.6889992  88.0519978 137.9440014  55.8379992  88.2899978 137.5770014
  57.2789992  88.0349978 137.1910014  56.6522408  88.0822966 137.7918879
  55.0209992  91.0369978 125.5720014  54.6479992  90.2119978 125.8810014
  55.2979992  90.8539978 124.6750014  55.0073871  90.8992441 125.4929677
  52.1809992  85.8449978 132.5930014  51.2529992  85.6139978 132.5660014
  52.6319992  85.0679978 132.2630014  52.1148165  85.7082774 132.5446790
  44.7239992  90.1739978 128.7260014  45.2519992  90.9469978 128.5260014
  43.8439992  90.3979978 128.4250014  44.6773176  90.3103161 128.6578409
  40.4789992  85.0359978 123.3140014  41.0949992  85.6629978 123.6930014
  39.6169992  85.3519978 123.5850014  40.4468195  85.1645798 123.4025386
  46.1519992  87.8369978 128.3030014  45.9109992  88.7619978 128.3440014
  45.4109992  87.3779978 128.6990014  46.0188390  87.9016403 128.3621404
  46.6659992  91.9859978 134.6180014  47.0289992  92.8399978 134.3840014
  47.1979992  91.6939978 135.3580014  46.7876090  92.0634058 134.6860219
  44.8349992  92.8579978 127.8480014  43.8849992  92.9639978 127.8990014
  45.1869992  93.6789978 128.1930014  44.7525480  92.9834438 127.9015999
  50.2099992  88.0849978 134.3180014  49.7849992  87.8569978 135.1450014
  50.7909992  87.3459978 134.1360014  50.2303930  87.9539843 134.4064732
  52.4129992  89.0139978 123.3920014  52.7669992  88.6339978 124.1970014
  51.4649992  88.9199978 123.4790014  52.3331820  88.9493092 123.5138714
  52.8689992  92.6369978 136.7880014  52.2669992  92.0809978 136.2920014
  53.1499992  93.3039978 136.1620014  52.8246829  92.6511613 136.6355443
  56.9169992  93.4929978 123.5930014  57.6609992  94.0789978 123.4530014
  56.2229992  94.0619978 123.9270014  56.9250201  93.6500603 123.6189772
  40.9909992  79.8699978 136.1950014  40.0989992  80.2079978 136.1280014
  40.8929992  79.0139978 136.6130014  40.8554965  79.8006499 136.2423044
  53.2789992  87.6859978 125.6190014  53.0019992  86.9579978 126.1750014
  54.2069992  87.8049978 125.8240014  53.3664499  87.6024213 125.7228044
  40.6429992  91.6739978 134.6300014  40.8599992  90.7419978 134.5990014
  40.8889992  91.9489978 135.5130014  40.7059809  91.5835686 134.7451691
  46.5039992  90.1259978 121.8390014  46.7429992  89.3769978 121.2920014
  46.2349992  89.7379978 122.6720014  46.5003233  89.9711853 121.8767809
  45.4409992  89.6959978 124.2960014  45.5879992  89.1759978 125.0860014
  45.4379992  90.6029978 124.6020014  45.4607300  89.7473964 124.4455895
  41.8939992  86.9479978 124.8060014  41.2079992  87.3009978 125.3730014
  42.4169992  87.7109978 124.5600014  41.8709033  87.0993746 124.8502661
  49.7259992  79.6109978 135.0850014  50.4249992  79.6849978 135.7350014
  49.3449992  78.7459978 135.2390014  49.7702097  79.5042389 135.1947997
  50.5099992  79.2629978 126.1820014  50.7299992  79.7339978 125.3790014
  51.0689992  79.6569978 126.8520014  50.6156730  79.3807432 126.1625906
  48.1789992  91.3929978 125.0450014  47.3619992  91.8899978 125.0970014
  48.7079992  91.8689978 124.4050014  48.1388508  91.5252543 124.9656035
  47.7099992  80.9909978 127.0170014  48.5219992  81.4949978 127.0630014
  47.4659992  80.8459978 127.9310014  47.7881467  81.0403749 127.1468575
  48.2459992  81.9769978 136.2020014  48.3649992  82.5509978 136.9590014
  48.9009992  81.2889978 136.3160014  48.3509146  81.9625574 136.3211314
  48.5939992  78.0719978 127.9550014  48.2469992  78.6889978 128.6000014
  49.2529992  78.5729978 127.4740014  48.6355949  78.2241099 127.9782271
  45.5169992  92.4369978 125.0270014  45.6779992  93.2369978 124.5260014
  45.3199992  92.7439978 125.9120014  45.5123919  92.5879129 125.0781006
  44.2519992  79.1349978 124.6420014  44.1679992  80.0229978 124.9890014
  45.1419992  78.8699978 124.8740014  44.3608163  79.2207179 124.7208596
  54.4499992  79.8839978 137.0370014  53.5339992  80.1459978 136.9490014
  54.7859992  79.8809978 136.1400014  54.3699789  79.9194626 136.9037847
  53.0529992  83.6339978 131.1320014  52.2549992  83.2189978 130.8040014
  53.4979992  82.9439978 131.6230014  53.0039684  83.4838628 131.1535227
  42.5099992  89.5619978 123.7030014  43.1019992  90.2619978 123.9790014
  42.9689992  89.1289978 122.9830014  42.6530791  89.5992908 123.6434607
  40.8259992  82.2269978 122.8190014  40.7809992  83.1659978 122.9970014
  39.9379992  81.9909978 122.5490014  40.6998555  82.3236874 122.8068939
  54.1389992  92.8899978 132.7550014  53.9829992  93.5689978 132.0980014
  55.0719992  92.9619978 132.9580014  54.2437387  92.9926390 132.6925342
  41.6339992  77.0079978 131.4920014  41.4049992  77.0669978 130.5640014
  41.1919992  76.2169978 131.7980014  41.5428801  76.9090540 131.4064729
  40.5649992  90.9489978 127.6520014  39.7319992  91.4209978 127.6800014
  41.1099992  91.4589978 127.0540014  40.5247590  91.0825897 127.5749194
  39.8529992  93.5609978 138.9820014  40.3929992  93.3449978 139.7420014
  39.3719992  92.7559978 138.7930014  39.8618613  93.4225400 139.0604782
  44.4499992  92.4809978 140.6030014  45.2179992  92.0219978 140.9440014
  44.4289992  92.2549978 139.6730014  44.5522135  92.3876668 140.5239491
  48.5419992  91.9889978 121.9780014  47.8979992  91.3579978 122.2990014
  49.3039992  91.4579978 121.7460014  48.5568058  91.8307902 121.9906038
  51.0269992  90.8609978 139.3320014  50.6759992  90.0039978 139.5750014
  51.7529992  91.0029978 139.9390014  51.0771590  90.7630178 139.4472907
  53.1469992  91.8059978 122.2120014  53.4299992  91.0109978 122.6640014
  53.8859992  92.0389978 121.6510014  53.2856956  91.7287031 122.1979821
  39.7599992  87.3719978 139.9370014  39.9039992  86.4699978 139.6500014
  38.9879992  87.6579978 139.4490014  39.6753303  87.2873243 139.8317908
  44.1009992  87.7149978 122.0690014  44.1659992  86.9209978 122.6000014
  44.7539992  87.5969978 121.3790014  44.1981754  87.5903337 122.0484259
  46.4149992  87.3409978 139.3690014  46.0869992  87.6119978 138.5120014
  46.5669992  86.3999978 139.2820014  46.3906030  87.2508973 139.2397945
  49.4539992  88.7619978 121.8050014  49.1849992  88.9429978 122.7060014
  49.2469992  87.8369978 121.6740014  49.3892000  88.6616774 121.9105693
  52.1499992  87.2569978 136.7530014  52.8949992  87.8459978 136.6330014
  51.3929992  87.8389978 136.8160014  52.1495205  87.4161997 136.7451119
  40.5929992  84.5719978 139.3570014  41.0009992  83.7149978 139.2360014
  40.3319992  84.5859978 140.2780014  40.6136016  84.4565119 139.4649192
  45.2509992  85.6879978 124.3750014  44.7909992  85.2039978 125.0610014
  45.5059992  85.0189978 123.7390014  45.2225038  85.5313689 124.3829447
  44.5399992  83.5809978 136.7310014  43.9209992  84.2549978 137.0110014
  44.8839992  83.9019978 135.8980014  44.5017605  83.7167198 136.6566707
  46.3219992  83.9309978 122.6370014  46.1409992  83.7759978 121.7100014
  47.2719992  84.0389978 122.6820014  46.4256566  83.9243669 122.5160929
  49.5589992  86.0519978 140.0080014  50.5129992  86.1359978 139.9810014
  49.3989992  85.3399978 140.6280014  49.6677182  85.9672842 140.0880733
  55.7119992  86.2849978 122.0830014  55.4379992  85.8609978 121.2700014
  55.7509992  87.2169978 121.8660014  55.6797716  86.3528827 121.9424286
  44.8789992  80.9359978 137.8130014  45.0289992  80.2069978 137.2110014
  44.8809992  81.7129978 137.2540014  44.8997967  80.9412708 137.6550541
  45.2919992  79.3049978 135.3060014  45.8269992  79.7569978 134.6540014
  44.4389992  79.1969978 134.8830014  45.2500374  79.3522665 135.1596710
  46.8729992  84.7449978 135.5450014  47.6239992  84.5889978 134.9720014
  46.5339992  85.5969978 135.2700014  46.9299587  84.8388138 135.4294078
  51.2889992  82.5599978 140.5740014  51.4809992  81.6289978 140.4620014
  52.1469992  82.9849978 140.5640014  51.4312269  82.4899928 140.5573192
  52.6059992  85.3489978 138.6510014  52.3239992  86.0579978 138.0740014
  53.5479992  85.2759978 138.5000014  52.6947656  85.4363128 138.5514809
  43.3579992  82.1339978 139.7250014  42.5899992  81.6009978 139.5150014
  44.0359992  81.8239978 139.1250014  43.3446973  82.0192375 139.6151796
  46.0969992  76.7619978 135.7370014  45.9989992  77.7079978 135.6320014
  45.3549992  76.3889978 135.2620014  45.9831913  76.8411813 135.6583539
  47.3609992  81.0829978 139.3010014  47.1259992  80.8639978 140.2030014
  46.5779992  80.8759978 138.7910014  47.2229219  81.0250066 139.3555852
  50.0769992  80.2109978 138.3770014  49.1289992  80.2429978 138.5090014
  50.3889992  79.5849978 139.0300014  49.9895190  80.1307262 138.4833564
  51.7109992  78.8449978 140.3820014  51.6139992  77.8929978 140.3760014
  51.3889992  79.1129978 141.2420014  51.6541761  78.7509744 140.4974936
  41.5379992  80.0539978 139.4290014  41.7499992  79.3479978 138.8190014
  41.4269992  79.6169978 140.2730014  41.5520269  79.8981921 139.4595873
  46.3189992  76.0559978 138.4090014  47.0309992  75.4159978 138.3950014
  46.2179992  76.3219978 137.4950014  46.4027261  76.0044190 138.2835537
  46.6729992  77.7379978 140.4620014  46.5409992  77.2629978 139.6420014
  46.0729992  78.4829978 140.4070014  46.5739070  77.7735789 140.3423251
  46.2189992  94.6209978 123.6390014  47.1519992  94.7789978 123.7820014
  45.9549992  95.2969978 123.0140014  46.3109308  94.7339104 123.5741396
  39.7869992  89.2579978 123.1210014  40.7009992  89.3369978 123.3950014
  39.7949992  88.5709978 122.4550014  39.9131143  89.1759085 123.0684274
  38.4359992  94.6509978 128.1990014  37.7889992  94.1889978 127.6660014
  38.7909992  93.9789978 128.7810014  38.3954506  94.4969503 128.2047341
  39.3059992  92.7309978 130.0030014  38.9719992  91.8509978 130.1750014
  39.5289992  93.0769978 130.8680014  39.2903721  92.6571938 130.1434168
  56.8549992  93.5409978 132.9840014  56.8329992  93.7259978 133.9230014
  57.5449992  94.1089978 132.6430014  56.9453439  93.6431887 133.0664791
  56.4179992  93.1079978 135.9060014  55.9309992  92.3729978 135.5350014
  56.9669992  92.7139978 136.5840014  56.4255247  92.9541057 135.9468461
  54.8689992  88.8979978 140.5440014  54.0029992  88.7929978 140.9380014
  55.2449992  89.6559978 140.9900014  54.8013401  88.9861708 140.6582620
  56.1699992  87.1539978 126.0580014  57.0199992  87.5749978 126.1850014
  56.1749992  86.4139978 126.6650014  56.2871143  87.1116094 126.1574750
  56.5639992  85.2079978 127.8820014  55.8379992  84.7279978 128.2790014
  57.1459992  85.4129978 128.6140014  56.5431635  85.1699166 128.0353748
  56.3229992  87.9929978 132.8290014  57.1569992  87.6149978 132.5490014
  56.4349992  88.9359978 132.7100014  56.4522522  88.0687742 132.7746020
  54.8099992  90.8709978 135.1360014  54.1619992  91.1959978 135.7620014
  54.2919992  90.4299978 134.4620014  54.6514168  90.8558523 135.1305307
  56.8329992  85.1089978 124.2730014  56.3109992  85.4649978 123.5540014
  56.7999992  85.7839978 124.9510014  56.7570699  85.2489848 124.2662129
  55.1819992  82.3479978 122.8240014  55.2779992  83.0149978 122.1440014
  55.0419992  81.5329978 122.3420014  55.1762063  82.3290667 122.6658377
  54.3509992  83.7289978 128.4450014  54.2009992  82.7839978 128.4240014
  53.9969992  84.0099978 129.2880014  54.2825527  83.6375605 128.5561859
  39.3859992  85.8069978 132.4550014  39.5709992  85.7249978 131.5190014
  40.2359992  85.6829978 132.8790014  39.5260916  85.7790393 132.3842896
  55.2069992  85.6989978 138.0830014  55.7899992  84.9639978 138.2750014
  55.7709992  86.4709978 138.1300014  55.3629781  85.7028145 138.1156164
  56.7039992  83.6019978 138.7680014  55.8409992  83.2229978 138.6020014
  57.3079992  82.8629978 138.6940014  56.6675944  83.4502978 138.7352984
  54.4289992  79.7559978 121.9410014  55.0399992  79.3849978 122.5780014
  53.5919992  79.3349978 122.1370014  54.3994947  79.6482756 122.0547252
  54.0619992  81.3109978 126.9070014  54.3409992  80.4039978 127.0310014
  54.8209992  81.7449978 126.5180014  54.2028619  81.2454502 126.8713795
  54.6729992  81.8929978 132.3430014  55.6059992  82.1049978 132.3090014
  54.4379992  81.9939978 133.2650014  54.7688308  81.9356503 132.4630214
  54.7029992  82.6299978 135.1190014  53.8599992  82.8979978 135.4850014
  55.1449992  83.4519978 134.9080014  54.6474138  82.7778273 135.1405518
  38.9839992  81.0769978 138.5960014  39.9029992  80.9549978 138.8320014
  38.5339992  80.3269978 138.9850014  39.0491148  80.9588751 138.6809408
  56.9859992  76.6099978 140.4720014  57.3349992  75.9559978 139.8670014
  57.1329992  77.4469978 140.0330014  57.0537355  76.6336067 140.3296564
  54.6749992  78.5739978 126.9550014  54.8569992  78.1249978 127.7810014
  54.0749992  77.9899978 126.4920014  54.6187529  78.4336131 127.0053619
  40.2049992  79.3899978 131.4870014  40.6499992  78.5979978 131.7890014
  40.6709992  80.1059978 131.9180014  40.3289059  79.3784474 131.5866079
  38.5089992  82.3889978 132.5560014  39.0009992  82.1679978 131.7650014
  38.8709992  83.2289978 132.8370014  38.6252923  82.4723468 132.4857407
  56.5049992  78.7189978 138.8220014  55.5879992  78.9899978 138.7860014
  56.6279992  78.1839978 138.0380014  56.3960828  78.6837700 138.7110785
  56.5419992  78.6419978 123.4830014  56.9539992  77.9209978 123.0080014
  57.2229992  79.3109978 123.5420014  56.6905900  78.6337306 123.4259038
  38.8229992  78.6469978 126.6100014  37.8979992  78.8549978 126.4810014
  39.2769992  79.1309978 125.9210014  38.7576374  78.7409949 126.4990957
  53.5929992  93.6309978 128.5560014  54.2459992  93.2829978 127.9480014
  54.1039992  94.1189978 129.2020014  53.7512777  93.6493815 128.5602047
  38.7859992  77.3849978 134.9550014  38.1209992  77.1389978 135.5980014
  38.3429992  78.0069978 134.3770014  38.6350937  77.4353614 134.9649379
  40.9779992  90.5599978 139.0990014  40.1569992  90.7349978 138.6390014
  40.7259992  90.4869978 140.0200014  40.8316173  90.5740794 139.1604972
  43.9319992  91.5339978 135.3580014  43.5079992  92.3439978 135.0750014
  44.8369992  91.6199978 135.0560014  43.9962433  91.6563331 135.2785377
  48.2439992  92.9329978 138.3170014  48.4279992  92.5999978 139.1950014
  49.0899992  93.2429978 137.9950014  48.3836484  92.9292979 138.3937617
  50.5889992  94.2189978 137.5610014  51.2659992  93.5859978 137.3210014
  50.9099992  94.6199978 138.3680014  50.7251323  94.1865691 137.6373158
  55.5059992  76.8089978 136.6410014  54.6929992  77.1339978 136.2530014
  55.7389992  76.0479978 136.1080014  55.4262566  76.7506559 136.5159213
  41.3339992  94.7909978 135.4050014  40.6139992  95.2309978 134.9540014
  40.9689992  94.5399978 136.2540014  41.1859796  94.8173824 135.4579329
  43.8009992  94.3909978 134.4350014  42.9369992  94.4629978 134.8390014
  43.7459992  94.9379978 133.6510014  43.6751942  94.4747849 134.3844000
  48.5119992  94.2789978 133.6100014  48.0549992  94.8079978 132.9560014
  48.6749992  94.8819978 134.3360014  48.4714476  94.4329140 133.6185499
  50.8399992  93.1569978 134.5550014  49.9349992  93.3219978 134.2900014
  51.2679992  94.0099978 134.4900014  50.7740700  93.2949529 134.5099520
  53.4439992  94.7269978 134.8500014  53.2619992  95.6429978 134.6400014
  53.6209992  94.3159978 134.0040014  53.4429907  94.7969741 134.7067883
  40.7489992  93.4139978 132.3150014  40.7309992  92.9879978 133.1730014
  41.5539992  93.0949978 131.9070014  40.8553221  93.3127233 132.3770225
  42.8899992  92.1239978 130.9700014  42.6709992  91.2069978 131.1400014
  43.7139992  92.2639978 131.4360014  42.9714702  92.0175511 131.0562527
  45.4269992  92.5939978 131.8190014  45.6399992  91.7059978 131.5320014
  45.4919992  92.5589978 132.7740014  45.4649075  92.4678307 131.9087373
  48.9359992  78.2579978 130.9630014  48.2619992  77.6279978 131.2190014
  49.4999992  77.7739978 130.3600014  48.9200384  78.1063708 130.9165020
  54.0789992  76.3649978 131.0760014  54.6819992  76.9129978 130.5740014
  53.2089992  76.6839978 130.8360014  54.0439190  76.4831041 130.9748679
  55.8059992  77.5039978 129.4090014  56.4169992  76.9899978 128.8830014
  56.1879992  78.3809978 129.4330014  55.9414475  77.5521323 129.3401208
  41.2629992  76.8919978 128.7850014  40.4859992  76.6569978 128.2780014
  41.7929992  76.0949978 128.7940014  41.2283451  76.7521268 128.7168627
  40.0989992  76.6899978 124.5890014  40.5379992  77.3009978 123.9970014
  39.4649992  77.2279978 125.0630014  40.0733859  76.8464064 124.5720305
  45.8419992  76.8179978 128.5990014  46.7159992  77.2069978 128.5690014
  45.7059992  76.6029978 129.5210014  45.9433207  76.8421923 128.7196509
  51.3989992  76.8479978 130.2480014  51.4749992  76.9439978 129.2990014
  51.1239992  75.9409978 130.3770014  51.3722042  76.7384241 130.1353811
  52.7519992  76.8739978 125.9400014  52.0489992  77.4889978 125.7310014
  52.3069992  76.0369978 126.0720014  52.5956292  76.8450085 125.9292439
  39.9999992  92.6379978 125.4870014  39.3149992  92.5999978 124.8190014
  40.0039992  93.5509978 125.7750014  39.9068174  92.7561998 125.4345310
  41.9599992  78.6059978 123.0310014  42.4509992  77.9759978 122.5040014
  42.5829992  78.9019978 123.6950014  42.1115062  78.5596770 123.0485438
  46.9859992  78.8989978 125.4890014  47.1639992  78.2519978 126.1710014
  46.9319992  79.7329978 125.9560014  47.0031025  78.9230504 125.6456433
  48.8639992  93.8469978 123.8840014  49.7299992  94.2139978 123.7060014
  48.6179992  93.4079978 123.0700014  48.9492097  93.8378525 123.7496019
  55.5729992  93.4099978 126.5630014  55.3789992  92.6619978 125.9980014
  55.5339992  94.1679978 125.9800014  55.5411645  93.4100786 126.4068148
  41.2199992  77.4059978 138.3030014  40.8539992  76.6399978 138.7460014
  42.1329992  77.4349978 138.5900014  41.2933225  77.3051906 138.4023459
  43.1929992  76.7559978 139.8390014  44.0919992  76.4819978 139.6540014
  42.8069992  76.0139978 140.3030014  43.2637237  76.6181508 139.8764710
  41.8179992  93.5579978 122.5120014  41.5499992  93.8439978 123.3850014
  42.5889992  93.0119978 122.6640014  41.8855600  93.5233330 122.6521499
  51.6149992  76.0889978 140.0210014  51.6909992  75.6629978 140.8750014
  52.5079992  76.1019978 139.6780014  51.7462267  76.0323952 140.0915932
  54.7909992  92.1619978 138.7130014  54.0089992  91.9749978 138.1940014
  54.7189992  93.0909978 138.9310014  54.6740863  92.2620221 138.6713574
  69.1969992  86.0479978 128.7440014  69.2859992  86.9919978 128.6120014
  68.5589992  85.7729978 128.0860014  69.1229062  86.1399812 128.6369641
  68.1299992  85.3029978 132.1630014  68.0919992  84.6569978 132.8680014
  67.8079992  84.8359978 131.3920014  68.0812679  85.1514276 132.1552921
  60.4979992  84.9169978 133.7560014  60.5399992  84.2919978 134.4790014
  61.2009992  85.5409978 133.9380014  60.5987345  84.9157873 133.8795274
  71.8359992  88.2419978 130.4650014  71.3949992  87.5219978 130.9150014
  71.8229992  88.9629978 131.0940014  71.7737960  88.2408329 130.6117567
  61.4219992  89.3669978 132.2910014  61.0519992  88.5649978 131.9210014
  62.3629992  89.1989978 132.3370014  61.4985984  89.2344638 132.2465603
  58.0319992  83.0269978 127.6840014  57.5839992  83.8729978 127.6650014
  57.4709992  82.4479978 127.1680014  57.8949603  83.0643674 127.6116720
  58.7419992  85.1889978 129.8100014  58.9559992  84.4189978 130.3370014
  59.4799992  85.2789978 129.2060014  58.8709652  85.0958012 129.8005212
  68.9479992  93.3459978 130.6770014  69.5669992  92.6699978 130.4030014
  68.7389992  93.1279978 131.5850014  69.0046232  93.2237938 130.7622517
  66.5189992  87.7349978 132.5690014  66.8229992  87.0489978 131.9750014
  67.2409992  87.8539978 133.1870014  66.6581152  87.6572189 132.5712123
  75.1819992  79.3369978 133.4300014  75.2319992  79.9469978 134.1660014
  75.6079992  79.7979978 132.7070014  75.2464108  79.4827709 133.4330112
  69.6599992  82.1289978 132.8970014  69.8029992  81.1829978 132.9170014
  69.5539992  82.3359978 131.9680014  69.6652509  82.0274813 132.7742231
  62.8149992  80.2309978 130.1690014  62.8579992  81.0909978 129.7510014
  62.3569992  79.6789978 129.5350014  62.7589815  80.2740621 130.0261197
  70.5369992  80.3619978 128.5700014  71.1839992  80.0329978 129.1950014
  71.0469992  80.8789978 127.9470014  70.6944317  80.3869227 128.5712167
  59.4349992  82.6279978 130.9310014  60.0889992  82.0779978 131.3630014
  59.4589992  82.3539978 130.0140014  59.5277199  82.5157167 130.8661668
  64.5919992  84.1779978 130.1460014  65.2079992  83.6509978 130.6560014
  64.0049992  83.5379978 129.7430014  64.5969239  84.0194117 130.1612952
  75.5739992  80.8149978 135.6660014  74.8849992  81.4729978 135.5700014
  75.5889992  80.6169978 136.6020014  75.4816740  80.8783243 135.7794630
  61.6249992  79.1489978 134.2430014  61.4059992  79.6789978 133.4770014
  60.9569992  79.3749978 134.8900014  61.5047001  79.2521154 134.2256064
  68.9939992  88.6489978 127.7870014  68.6989992  88.3259978 126.9360014
  68.6699992  89.5489978 127.8280014  68.9097983  88.7264026 127.6759771
  64.1939992  86.8239978 134.5310014  63.4539992  87.4229978 134.6340014
  64.9079992  87.3779978 134.2150014  64.1893288  86.9807356 134.5023805
  72.3009992  79.6529978 130.5500014  72.0859992  78.8869978 131.0830014
  72.9569992  80.1249978 131.0630014  72.3602673  79.6120728 130.6921990
  61.2189992  81.0409978 132.1950014  61.8329992  81.6739978 132.5690014
  61.7309992  80.5689978 131.5390014  61.3722277  81.0637352 132.1574279
  62.6019992  88.7889978 135.3180014  62.5959992  89.6679978 134.9400014
  61.7479992  88.7049978 135.7430014  62.4857925  88.8979535 135.3236887
  58.7229992  88.4599978 126.1000014  58.4509992  88.6889978 125.2110014
  58.7679992  89.2969978 126.5600014  58.6918709  88.6046058 126.0406107
  72.3479992  90.0809978 132.8120014  71.4059992  90.1399978 132.9740014
  72.6239992  90.9869978 132.6750014  72.2565865  90.2115288 132.8156192
  72.6479992  78.3679978 134.2300014  71.9119992  78.9779978 134.1920014
  73.3319992  78.7829978 133.7030014  72.6395506  78.5076400 134.1536051
  65.6519992  76.4539978 131.6960014  65.5339992  75.5059978 131.6410014
  64.7969992  76.7869978 131.9690014  65.5202679  76.3691926 131.7253720
  70.5999992  91.8619978 129.4380014  71.0249992  91.1549978 128.9530014
  70.9169992  92.6639978 129.0210014  70.7010266  91.8735190 129.3152479
  71.7599992  89.7629978 127.9460014  71.5019992  89.0729978 127.3350014
  71.8309992  89.3199978 128.7920014  71.7342837  89.6087106 127.9766912
  73.4459992  88.3299978 136.4240014  73.5849992  87.7379978 135.6840014
  73.6129992  89.2029978 136.0670014  73.4875562  88.3669896 136.2746283
  67.9179992  85.2919978 126.1960014  67.2069992  85.8269978 125.8440014
  68.6089992  85.3469978 125.5360014  67.9140751  85.3726777 126.0585858
  67.9719992  83.7489978 123.2350014  68.6729992  83.7719978 123.8860014
  68.2739992  83.1209978 122.5790014  68.1088282  83.6672339 123.2354496
  75.2869992  84.6699978 134.4900014  74.6349992  85.3639978 134.5790014
  75.7529992  84.8799978 133.6800014  75.2605937  84.7935019 134.3927533
  71.3239992  85.5009978 127.1480014  70.5919992  85.7299978 127.7210014
  71.7709992  84.7879978 127.6030014  71.2842753  85.4358972 127.2879715
  71.2209992  83.6759978 136.2160014  71.3009992  84.4389978 136.7870014
  70.6199992  83.9549978 135.5250014  71.1507245  83.8182630 136.2008424
  62.9689992  86.1319978 129.0300014  62.6389992  85.7609978 128.2120014
  63.5579992  85.4609978 129.3770014  63.0033970  85.9906063 128.9649404
  64.3359992  89.5599978 131.7120014  64.2409992  88.9809978 130.9550014
  65.0649992  89.1889978 132.2080014  64.4216161  89.4305891 131.6755209
  63.3359992  84.8999978 132.6640014  63.9009992  85.0219978 131.9010014
  63.6549992  85.5379978 133.3030014  63.4563977  85.0028851 132.6459424
  69.6449992  90.4039978 133.3980014  69.4049992  91.0659978 134.0460014
  69.4469992  89.5689978 133.8230014  69.5853826  90.3818115 133.5441566
  64.2159992  89.2999978 137.3810014  63.9049992  90.0819978 137.8360014
  63.5659992  89.1469978 136.6950014  64.0855538  89.3864087 137.3505898
  70.1949992  84.6639978 124.8330014  70.7739992  84.8139978 125.5800014
  70.6089992  85.1339978 124.1100014  70.3303122  84.7481277 124.8375042
  61.1359992  85.4979978 136.6100014  61.2059992  86.1489978 137.3080014
  60.2449992  85.6009978 136.2750014  61.0251802  85.6009757 136.6602249
  67.9209992  91.3999978 128.2680014  68.3949992  91.6959978 129.0460014
  67.3579992  92.1389978 128.0350014  67.9097361  91.5402721 128.3428611
  62.4549992  91.3709978 138.1440014  62.4629992  91.2349978 137.1970014
  61.5389992  91.2539978 138.3960014  62.3322528  91.3365463 138.0483243
  73.8939992  76.4139978 124.6460014  72.9939992  76.5529978 124.9410014
  74.1459992  77.2449978 124.2440014  73.8048683  76.5454055 124.6320232
  61.9599992  85.2009978 126.6200014  61.6679992  85.9689978 126.1290014
  61.2849992  84.5419978 126.4570014  61.8288497  85.2169745 126.5308260
  75.0829992  90.7799978 123.0220014  75.1559992  91.7189978 123.1930014
  75.9879992  90.4749978 122.9660014  75.2154158  90.8673061 123.0378392
  58.0529992  87.5639978 135.4350014  57.5509992  87.5359978 134.6200014
  58.0579992  86.6589978 135.7440014  57.9850416  87.4377368 135.3653766
  57.8029992  90.3449978 132.3190014  58.7489992  90.1999978 132.3000014
  57.6899992  91.1289978 132.8560014  57.9173578  90.4311697 132.3890317
  76.0009992  91.0109978 138.0010014  75.9509992  90.0549978 137.9640014
  75.1739992  91.2779978 138.4020014  75.8823987  90.9165174 138.0501446
  66.9789992  90.5849978 136.8770014  67.0669992  91.4109978 137.3520014
  66.1159992  90.2549978 137.1260014  66.8743357  90.6535468 136.9757653
  67.3939992  94.3569978 126.6830014  67.3179992  94.2359978 125.7370014
  67.4259992  95.3059978 126.8020014  67.3879156  94.4687530 126.5695048
  61.0469992  93.1459978 128.4640014  61.1989992  92.7979978 129.3430014
  60.1959992  92.7889978 128.2090014  60.9527899  93.0501738 128.5497340
  70.4949992  93.5109978 123.6850014  70.8699992  92.7669978 123.2150014
  70.4999992  93.2409978 124.6040014  70.5470024  93.3726950 123.7447987
  70.1639992  93.4369978 126.4350014  69.2289992  93.5369978 126.6130014
  70.4439992  92.7269978 127.0130014  70.0738173  93.3547239 126.5374998
  73.1529992  82.5039978 138.4810014  72.7449992  82.9839978 137.7610014
  73.1929992  81.5979978 138.1730014  73.1025476  82.4473160 138.3408247
  60.3019992  88.8879978 136.4780014  60.5179992  88.5259978 137.3370014
  59.4459992  88.5129978 136.2680014  60.2159354  88.7877906 136.5672160
  62.9199992  77.3579978 132.4730014  62.0589992  77.2709978 132.0660014
  62.8979992  78.2139978 132.9010014  62.7990411  77.4617884 132.4750857
  67.5829992  77.0799978 135.8480014  68.0029992  76.6649978 136.6010014
  66.6499992  76.9009978 135.9650014  67.5143736  76.9989910 135.9668968
  70.9099992  80.8349978 136.7010014  70.3959992  80.7099978 137.4990014
  70.7539992  81.7479978 136.4570014  70.8186967  80.9412123 136.7770937
  71.6719992  85.6959978 122.4630014  71.7139992  85.4739978 121.5330014
  72.5209992  86.0949978 122.6530014  71.7925253  85.7195498 122.3613822
  67.2449992  79.5719978 123.1330014  66.9909992  79.5909978 124.0560014
  66.9879992  78.7009978 122.8320014  67.1755133  79.4568110 123.2185082
  63.0109992  82.3229978 133.5680014  62.3699992  82.2829978 134.2770014
  63.0489992  83.2499978 133.3310014  62.9283670  82.4427795 133.6330550
  63.0079992  82.5439978 128.4800014  62.1159992  82.2039978 128.4220014
  63.4589992  82.1669978 127.7250014  62.9466815  82.4463762 128.3699203
  68.5439992  82.9599978 127.2970014  68.1349992  83.7749978 127.0060014
  69.2639992  82.8199978 126.6830014  68.5854013  83.0526571 127.1740875
  67.6459992  83.1359978 138.7850014  67.0829992  82.4309978 139.1060014
  68.4719992  83.0149978 139.2530014  67.6806674  83.0232165 138.8921751
  69.5489992  82.4059978 130.1110014  69.3529992  83.0119978 129.3960014
  69.7299992  81.5729978 129.6770014  69.5466584  82.3762513 129.9544212
  60.7609992  82.6439978 135.4350014  60.7229992  83.0439978 136.3040014
  60.2709992  81.8269978 135.5260014  60.6895621  82.5882510 135.5661377
  64.1269992  80.0179978 122.2340014  63.6959992  79.5729978 122.9640014
  63.4089992  80.3889978 121.7220014  63.9709363  80.0072968 122.2646211
  57.3699992  79.7599978 129.2860014  57.9999992  79.7309978 130.0050014
  57.8189992  79.3349978 128.5560014  57.5170692  79.6985316 129.2857771
  58.6439992  80.5059978 124.7100014  59.1179992  81.0969978 124.1250014
  57.9259992  81.0359978 125.0570014  58.6118640  80.6585511 124.6767969
  68.8129992  84.0439978 134.7830014  69.1359992  83.4129978 134.1400014
  68.3719992  83.5099978 135.4430014  68.7975789  83.8853522 134.7842232
  65.5899992  79.9719978 129.5670014  64.6789992  80.0289978 129.8550014
  66.0949992  79.9119978 130.3770014  65.5335387  79.9716870 129.7160646
  60.4179992  81.6009978 128.3930014  59.5289992  81.6999978 128.0530014
  60.7149992  80.7589978 128.0470014  60.3364177  81.5007687 128.2996940
  64.0709992  81.6009978 126.0500014  65.0029992  81.7299978 126.2280014
  63.8559992  82.2699978 125.4000014  64.1694472  81.7090806 125.9864891
  69.9949992  79.2069978 132.8310014  69.3179992  79.3379978 133.4950014
  69.5099992  79.0519978 132.0210014  69.8367265  79.2039659 132.8123397
  62.7449992  82.7949978 123.6170014  62.2029992  82.4159978 122.9250014
  63.5789992  82.9899978 123.1880014  62.7835159  82.7695076 123.4644419
  73.2829992  94.8779978 139.1080014  73.4819992  95.3019978 138.2730014
  73.9379992  95.2219978 139.7150014  73.3988501  94.9826091 139.0757097
  60.8809992  87.3519978 138.7160014  61.6129992  87.6069978 139.2770014
  60.0999992  87.5569978 139.2310014  60.8757684  87.4146468 138.8624782
  66.9099992  82.7589978 131.4540014  67.4739992  82.2129978 130.9070014
  66.7619992  82.2379978 132.2420014  66.9672575  82.6136552 131.4856987
  61.9119992  78.8959978 127.8720014  61.5949992  77.9929978 127.8370014
  62.6929992  78.8979978 127.3190014  61.9742307  78.7726951 127.7924314
  65.5359992  81.1479978 133.8680014  64.7009992  81.6019978 133.9780014
  66.0599992  81.4239978 134.6200014  65.4925070  81.2474666 133.9847152
  66.0809992  87.3609978 125.5520014  65.3359992  86.8529978 125.2300014
  65.9459992  87.4099978 126.4990014  65.9609047  87.2981596 125.6358845
  73.2309992  86.4939978 134.3390014  73.8719992  86.9499978 133.7950014
  72.3999992  86.6069978 133.8770014  73.2065171  86.5717502 134.2020237
  69.9779992  80.1749978 123.7520014  69.0399992  80.2859978 123.6000014
  70.2759992  81.0309978 124.0580014  69.8896402  80.3060621 123.7725571
  67.5999992  87.5449978 136.7890014  67.2539992  87.1629978 137.5960014
  67.3999992  88.4779978 136.8610014  67.5256523  87.6189095 136.9090735
  70.6969992  82.0419978 125.4120014  71.5889992  81.9039978 125.7310014
  70.7529992  82.8329978 124.8760014  70.8267107  82.1300526 125.3832091
  61.2049992  86.6559978 131.3220014  61.9499992  86.6529978 130.7210014
  61.2829992  85.8319978 131.8040014  61.3174158  86.5442916 131.3049153
  68.2059992  88.8189978 124.5780014  67.9109992  89.6459978 124.9590014
  67.5029992  88.1999978 124.7740014  68.0705471  88.8485227 124.6566698
  58.2129992  85.1159978 136.6370014  58.4359992  84.6979978 137.4690014
  57.6109992  84.5039978 136.2140014  58.1621260  84.9759933 136.6937320
  65.2299992  84.6329978 138.8500014  64.9339992  84.4679978 137.9550014
  66.1609992  84.4129978 138.8390014  65.3153982  84.5806578 138.7260045
  69.8499992  90.0069978 136.7400014  68.9499992  90.1899978 136.4720014
  69.8839992  90.2659978 137.6610014  69.7312909  90.0670815 136.8277852
  75.5819992  82.2509978 125.1070014  75.0269992  81.8549978 124.4350014
  75.6819992  83.1619978 124.8290014  75.5195888  82.3198990 124.9775206
  75.5449992  88.0519978 137.9440014  74.6939992  88.2899978 137.5770014
  76.1349992  88.0349978 137.1910014  75.5082408  88.0822966 137.7918879
  73.8769992  91.0369978 125.5720014  73.5039992  90.2119978 125.8810014
  74.1539992  90.8539978 124.6750014  73.8633871  90.8992441 125.4929677
  71.0369992  85.8449978 132.5930014  70.1089992  85.6139978 132.5660014
  71.4879992  85.0679978 132.2630014  70.9708165  85.7082774 132.5446790
  63.5799992  90.1739978 128.7260014  64.1079992  90.9469978 128.5260014
  62.6999992  90.3979978 128.4250014  63.5333176  90.3103161 128.6578409
  59.3349992  85.0359978 123.3140014  59.9509992  85.6629978 123.6930014
  58.4729992  85.3519978 123.5850014  59.3028195  85.1645798 123.4025386
  65.0079992  87.8369978 128.3030014  64.7669992  88.7619978 128.3440014
  64.2669992  87.3779978 128.6990014  64.8748390  87.9016403 128.3621404
  65.5219992  91.9859978 134.6180014  65.8849992  92.8399978 134.3840014
  66.0539992  91.6939978 135.3580014  65.6436090  92.0634058 134.6860219
  63.6909992  92.8579978 127.8480014  62.7409992  92.9639978 127.8990014
  64.0429992  93.6789978 128.1930014  63.6085480  92.9834438 127.9015999
  69.0659992  88.0849978 134.3180014  68.6409992  87.8569978 135.1450014
  69.6469992  87.3459978 134.1360014  69.0863930  87.9539843 134.4064732
  71.2689992  89.0139978 123.3920014  71.6229992  88.6339978 124.1970014
  70.3209992  88.9199978 123.4790014  71.1891820  88.9493092 123.5138714
  71.7249992  92.6369978 136.7880014  71.1229992  92.0809978 136.2920014
  72.0059992  93.3039978 136.1620014  71.6806829  92.6511613 136.6355443
  75.7729992  93.4929978 123.5930014  76.5169992  94.0789978 123.4530014
  75.0789992  94.0619978 123.9270014  75.7810201  93.6500603 123.6189772
  59.8469992  79.8699978 136.1950014  58.9549992  80.2079978 136.1280014
  59.7489992  79.0139978 136.6130014  59.7114965  79.8006499 136.2423044
  72.1349992  87.6859978 125.6190014  71.8579992  86.9579978 126.1750014
  73.0629992  87.8049978 125.8240014  72.2224499  87.6024213 125.7228044
  59.4989992  91.6739978 134.6300014  59.7159992  90.7419978 134.5990014
  59.7449992  91.9489978 135.5130014  59.5619809  91.5835686 134.7451691
  65.3599992  90.1259978 121.8390014  65.5989992  89.3769978 121.2920014
  65.0909992  89.7379978 122.6720014  65.3563233  89.9711853 121.8767809
  64.2969992  89.6959978 124.2960014  64.4439992  89.1759978 125.0860014
  64.2939992  90.6029978 124.6020014  64.3167300  89.7473964 124.4455895
  60.7499992  86.9479978 124.8060014  60.0639992  87.3009978 125.3730014
  61.2729992  87.7109978 124.5600014  60.7269033  87.0993746 124.8502661
  68.5819992  79.6109978 135.0850014  69.2809992  79.6849978 135.7350014
  68.2009992  78.7459978 135.2390014  68.6262097  79.5042389 135.1947997
  69.3659992  79.2629978 126.1820014  69.5859992  79.7339978 125.3790014
  69.9249992  79.6569978 126.8520014  69.4716730  79.3807432 126.1625906
  67.0349992  91.3929978 125.0450014  66.2179992  91.8899978 125.0970014
  67.5639992  91.8689978 124.4050014  66.9948508  91.5252543 124.9656035
  66.5659992  80.9909978 127.0170014  67.3779992  81.4949978 127.0630014
  66.3219992  80.8459978 127.9310014  66.6441467  81.0403749 127.1468575
  67.1019992  81.9769978 136.2020014  67.2209992  82.5509978 136.9590014
  67.7569992  81.2889978 136.3160014  67.2069146  81.9625574 136.3211314
  67.4499992  78.0719978 127.9550014  67.1029992  78.6889978 128.6000014
  68.1089992  78.5729978 127.4740014  67.4915949  78.2241099 127.9782271
  64.3729992  92.4369978 125.0270014  64.5339992  93.2369978 124.5260014
  64.1759992  92.7439978 125.9120014  64.3683919  92.5879129 125.0781006
  63.1079992  79.1349978 124.6420014  63.0239992  80.0229978 124.9890014
  63.9979992  78.8699978 124.8740014  63.2168163  79.2207179 124.7208596
  73.3059992  79.8839978 137.0370014  72.3899992  80.1459978 136.9490014
  73.6419992  79.8809978 136.1400014  73.2259789  79.9194626 136.9037847
  71.9089992  83.6339978 131.1320014  71.1109992  83.2189978 130.8040014
  72.3539992  82.9439978 131.6230014  71.8599684  83.4838628 131.1535227
  61.3659992  89.5619978 123.7030014  61.9579992  90.2619978 123.9790014
  61.8249992  89.1289978 122.9830014  61.5090791  89.5992908 123.6434607
  59.6819992  82.2269978 122.8190014  59.6369992  83.1659978 122.9970014
  58.7939992  81.9909978 122.5490014  59.5558555  82.3236874 122.8068939
  72.9949992  92.8899978 132.7550014  72.8389992  93.5689978 132.0980014
  73.9279992  92.9619978 132.9580014  73.0997387  92.9926390 132.6925342
  60.4899992  77.0079978 131.4920014  60.2609992  77.0669978 130.5640014
  60.0479992  76.2169978 131.7980014  60.3988801  76.9090540 131.4064729
  59.4209992  90.9489978 127.6520014  58.5879992  91.4209978 127.6800014
  59.9659992  91.4589978 127.0540014  59.3807590  91.0825897 127.5749194
  58.7089992  93.5609978 138.9820014  59.2489992  93.3449978 139.7420014
  58.2279992  92.7559978 138.7930014  58.7178613  93.4225400 139.0604782
  63.3059992  92.4809978 140.6030014  64.0739992  92.0219978 140.9440014
  63.2849992  92.2549978 139.6730014  63.4082135  92.3876668 140.5239491
  67.3979992  91.9889978 121.9780014  66.7539992  91.3579978 122.2990014
  68.1599992  91.4579978 121.7460014  67.4128058  91.8307902 121.9906038
  69.8829992  90.8609978 139.3320014  69.5319992  90.0039978 139.5750014
  70.6089992  91.0029978 139.9390014  69.9331590  90.7630178 139.4472907
  72.0029992  91.8059978 122.2120014  72.2859992  91.0109978 122.6640014
  72.7419992  92.0389978 121.6510014  72.1416956  91.7287031 122.1979822
  58.6159992  87.3719978 139.9370014  58.7599992  86.4699978 139.6500014
  57.8439992  87.6579978 139.4490014  58.5313303  87.2873243 139.8317908
  62.9569992  87.7149978 122.0690014  63.0219992  86.9209978 122.6000014
  63.6099992  87.5969978 121.3790014  63.0541754  87.5903337 122.0484259
  65.2709992  87.3409978 139.3690014  64.9429992  87.6119978 138.5120014
  65.4229992  86.3999978 139.2820014  65.2466030  87.2508973 139.2397945
  68.3099992  88.7619978 121.8050014  68.0409992  88.9429978 122.7060014
  68.1029992  87.8369978 121.6740014  68.2452000  88.6616774 121.9105693
  71.0059992  87.2569978 136.7530014  71.7509992  87.8459978 136.6330014
  70.2489992  87.8389978 136.8160014  71.0055205  87.4161997 136.7451119
  59.4489992  84.5719978 139.3570014  59.8569992  83.7149978 139.2360014
  59.1879992  84.5859978 140.2780014  59.4696016  84.4565119 139.4649192
  64.1069992  85.6879978 124.3750014  63.6469992  85.2039978 125.0610014
  64.3619992  85.0189978 123.7390014  64.0785038  85.5313689 124.3829447
  63.3959992  83.5809978 136.7310014  62.7769992  84.2549978 137.0110014
  63.7399992  83.9019978 135.8980014  63.3577605  83.7167198 136.6566707
  65.1779992  83.9309978 122.6370014  64.9969992  83.7759978 121.7100014
  66.1279992  84.0389978 122.6820014  65.2816566  83.9243669 122.5160929
  68.4149992  86.0519978 140.0080014  69.3689992  86.1359978 139.9810014
  68.2549992  85.3399978 140.6280014  68.5237182  85.9672842 140.0880733
  74.5679992  86.2849978 122.0830014  74.2939992  85.8609978 121.2700014
  74.6069992  87.2169978 121.8660014  74.5357716  86.3528827 121.9424286
  63.7349992  80.9359978 137.8130014  63.8849992  80.2069978 137.2110014
  63.7369992  81.7129978 137.2540014  63.7557967  80.9412708 137.6550541
  64.1479992  79.3049978 135.3060014  64.6829992  79.7569978 134.6540014
  63.2949992  79.1969978 134.8830014  64.1060374  79.3522665 135.1596710
  65.7289992  84.7449978 135.5450014  66.4799992  84.5889978 134.9720014
  65.3899992  85.5969978 135.2700014  65.7859587  84.8388138 135.4294078
  70.1449992  82.5599978 140.5740014  70.3369992  81.6289978 140.4620014
  71.0029992  82.9849978 140.5640014  70.2872269  82.4899928 140.5573192
  71.4619992  85.3489978 138.6510014  71.1799992  86.0579978 138.0740014
  72.4039992  85.2759978 138.5000014  71.5507656  85.4363128 138.5514809
  62.2139992  82.1339978 139.7250014  61.4459992  81.6009978 139.5150014
  62.8919992  81.8239978 139.1250014  62.2006973  82.0192375 139.6151796
  64.9529992  76.7619978 135.7370014  64.8549992  77.7079978 135.6320014
  64.2109992  76.3889978 135.2620014  64.8391913  76.8411813 135.6583539
  66.2169992  81.0829978 139.3010014  65.9819992  80.8639978 140.2030014
  65.4339992  80.8759978 138.7910014  66.0789219  81.0250066 139.3555852
  68.9329992  80.2109978 138.3770014  67.9849992  80.2429978 138.5090014
  69.2449992  79.5849978 139.0300014  68.8455190  80.1307262 138.4833564
  70.5669992  78.8449978 140.3820014  70.4699992  77.8929978 140.3760014
  70.2449992  79.1129978 141.2420014  70.5101761  78.7509744 140.4974936
  60.3939992  80.0539978 139.4290014  60.6059992  79.3479978 138.8190014
  60.2829992  79.6169978 140.2730014  60.4080269  79.8981921 139.4595873
  65.1749992  76.0559978 138.4090014  65.8869992  75.4159978 138.3950014
  65.0739992  76.3219978 137.4950014  65.2587261  76.0044190 138.2835537
  65.5289992  77.7379978 140.4620014  65.3969992  77.2629978 139.6420014
  64.9289992  78.4829978 140.4070014  65.4299070  77.7735789 140.3423251
  65.0749992  94.6209978 123.6390014  66.0079992  94.7789978 123.7820014
  64.8109992  95.2969978 123.0140014  65.1669308  94.7339104 123.5741396
  58.6429992  89.2579978 123.1210014  59.5569992  89.3369978 123.3950014
  58.6509992  88.5709978 122.4550014  58.7691143  89.1759085 123.0684274
  57.2919992  94.6509978 128.1990014  56.6449992  94.1889978 127.6660014
  57.6469992  93.9789978 128.7810014  57.2514506  94.4969503 128.2047341
  58.1619992  92.7309978 130.0030014  57.8279992  91.8509978 130.1750014
  58.3849992  93.0769978 130.8680014  58.1463721  92.6571938 130.1434168
  75.7109992  93.5409978 132.9840014  75.6889992  93.7259978 133.9230014
  76.4009992  94.1089978 132.6430014  75.8013439  93.6431887 133.0664791
  75.2739992  93.1079978 135.9060014  74.7869992  92.3729978 135.5350014
  75.8229992  92.7139978 136.5840014  75.2815247  92.9541057 135.9468461
  73.7249992  88.8979978 140.5440014  72.8589992  88.7929978 140.9380014
  74.1009992  89.6559978 140.9900014  73.6573401  88.9861708 140.6582620
  75.0259992  87.1539978 126.0580014  75.8759992  87.5749978 126.1850014
  75.0309992  86.4139978 126.6650014  75.1431143  87.1116094 126.1574750
  75.4199992  85.2079978 127.8820014  74.6939992  84.7279978 128.2790014
  76.0019992  85.4129978 128.6140014  75.3991635  85.1699166 128.0353748
  75.1789992  87.9929978 132.8290014  76.0129992  87.6149978 132.5490014
  75.2909992  88.9359978 132.7100014  75.3082522  88.0687742 132.7746020
  73.6659992  90.8709978 135.1360014  73.0179992  91.1959978 135.7620014
  73.1479992  90.4299978 134.4620014  73.5074168  90.8558523 135.1305307
  75.6889992  85.1089978 124.2730014  75.1669992  85.4649978 123.5540014
  75.6559992  85.7839978 124.9510014  75.6130699  85.2489848 124.2662129
  74.0379992  82.3479978 122.8240014  74.1339992  83.0149978 122.1440014
  73.8979992  81.5329978 122.3420014  74.0322063  82.3290667 122.6658377
  73.2069992  83.7289978 128.4450014  73.0569992  82.7839978 128.4240014
  72.8529992  84.0099978 129.2880014  73.1385527  83.6375605 128.5561859
  58.2419992  85.8069978 132.4550014  58.4269992  85.7249978 131.5190014
  59.0919992  85.6829978 132.8790014  58.3820916  85.7790393 132.3842896
  74.0629992  85.6989978 138.0830014  74.6459992  84.9639978 138.2750014
  74.6269992  86.4709978 138.1300014  74.2189781  85.7028145 138.1156164
  75.5599992  83.6019978 138.7680014  74.6969992  83.2229978 138.6020014
  76.1639992  82.8629978 138.6940014  75.5235944  83.4502978 138.7352984
  73.2849992  79.7559978 121.9410014  73.8959992  79.3849978 122.5780014
  72.4479992  79.3349978 122.1370014  73.2554947  79.6482756 122.0547252
  72.9179992  81.3109978 126.9070014  73.1969992  80.4039978 127.0310014
  73.6769992  81.7449978 126.5180014  73.0588619  81.2454502 126.8713795
  73.5289992  81.8929978 132.3430014  74.4619992  82.1049978 132.3090014
  73.2939992  81.9939978 133.2650014  73.6248308  81.9356503 132.4630214
  73.5589992  82.6299978 135.1190014  72.7159992  82.8979978 135.4850014
  74.0009992  83.4519978 134.9080014  73.5034138  82.7778273 135.1405518
  57.8399992  81.0769978 138.5960014  58.7589992  80.9549978 138.8320014
  57.3899992  80.3269978 138.9850014  57.9051148  80.9588751 138.6809408
  75.8419992  76.6099978 140.4720014  76.1909992  75.9559978 139.8670014
  75.9889992  77.4469978 140.0330014  75.9097355  76.6336067 140.3296564
  73.5309992  78.5739978 126.9550014  73.7129992  78.1249978 127.7810014
  72.9309992  77.9899978 126.4920014  73.4747529  78.4336131 127.0053619
  59.0609992  79.3899978 131.4870014  59.5059992  78.5979978 131.7890014
  59.5269992  80.1059978 131.9180014  59.1849059  79.3784474 131.5866079
  57.3649992  82.3889978 132.5560014  57.8569992  82.1679978 131.7650014
  57.7269992  83.2289978 132.8370014  57.4812923  82.4723468 132.4857407
  75.3609992  78.7189978 138.8220014  74.4439992  78.9899978 138.7860014
  75.4839992  78.1839978 138.0380014  75.2520828  78.6837700 138.7110785
  75.3979992  78.6419978 123.4830014  75.8099992  77.9209978 123.0080014
  76.0789992  79.3109978 123.5420014  75.5465900  78.6337306 123.4259038
  57.6789992  78.6469978 126.6100014  56.7539992  78.8549978 126.4810014
  58.1329992  79.1309978 125.9210014  57.6136374  78.7409949 126.4990957
  72.4489992  93.6309978 128.5560014  73.1019992  93.2829978 127.9480014
  72.9599992  94.1189978 129.2020014  72.6072777  93.6493815 128.5602047
  57.6419992  77.3849978 134.9550014  56.9769992  77.1389978 135.5980014
  57.1989992  78.0069978 134.3770014  57.4910937  77.4353614 134.9649379
  59.8339992  90.5599978 139.0990014  59.0129992  90.7349978 138.6390014
  59.5819992  90.4869978 140.0200014  59.6876173  90.5740794 139.1604972
  62.7879992  91.5339978 135.3580014  62.3639992  92.3439978 135.0750014
  63.6929992  91.6199978 135.0560014  62.8522433  91.6563331 135.2785377
  67.0999992  92.9329978 138.3170014  67.2839992  92.5999978 139.1950014
  67.9459992  93.2429978 137.9950014  67.2396484  92.9292979 138.3937617
  69.4449992  94.2189978 137.5610014  70.1219992  93.5859978 137.3210014
  69.7659992  94.6199978 138.3680014  69.5811323  94.1865691 137.6373158
  74.3619992  76.8089978 136.6410014  73.5489992  77.1339978 136.2530014
  74.5949992  76.0479978 136.1080014  74.2822566  76.7506559 136.5159213
  60.1899992  94.7909978 135.4050014  59.4699992  95.2309978 134.9540014
  59.8249992  94.5399978 136.2540014  60.0419796  94.8173824 135.4579329
  62.6569992  94.3909978 134.4350014  61.7929992  94.4629978 134.8390014
  62.6019992  94.9379978 133.6510014  62.5311942  94.4747849 134.3844000
  67.3679992  94.2789978 133.6100014  66.9109992  94.8079978 132.9560014
  67.5309992  94.8819978 134.3360014  67.3274476  94.4329140 133.6185499
  69.6959992  93.1569978 134.5550014  68.7909992  93.3219978 134.2900014
  70.1239992  94.0099978 134.4900014  69.6300700  93.2949529 134.5099520
  72.2999992  94.7269978 134.8500014  72.1179992  95.6429978 134.6400014
  72.4769992  94.3159978 134.0040014  72.2989907  94.7969741 134.7067883
  59.6049992  93.4139978 132.3150014  59.5869992  92.9879978 133.1730014
  60.4099992  93.0949978 131.9070014  59.7113221  93.3127233 132.3770225
  61.7459992  92.1239978 130.9700014  61.5269992  91.2069978 131.1400014
  62.5699992  92.2639978 131.4360014  61.8274702  92.0175511 131.0562527
  64.2829992  92.5939978 131.8190014  64.4959992  91.7059978 131.5320014
  64.3479992  92.5589978 132.7740014  64.3209075  92.4678307 131.9087373
  67.7919992  78.2579978 130.9630014  67.1179992  77.6279978 131.2190014
  68.3559992  77.7739978 130.3600014  67.7760384  78.1063708 130.9165020
  72.9349992  76.3649978 131.0760014  73.5379992  76.9129978 130.5740014
  72.0649992  76.6839978 130.8360014  72.8999190  76.4831041 130.9748679
  74.6619992  77.5039978 129.4090014  75.2729992  76.9899978 128.8830014
  75.0439992  78.3809978 129.4330014  74.7974475  77.5521323 129.3401208
  60.1189992  76.8919978 128.7850014  59.3419992  76.6569978 128.2780014
  60.6489992  76.0949978 128.7940014  60.0843451  76.7521268 128.7168627
  58.9549992  76.6899978 124.5890014  59.3939992  77.3009978 123.9970014
  58.3209992  77.2279978 125.0630014  58.9293859  76.8464064 124.5720305
  64.6979992  76.8179978 128.5990014  65.5719992  77.2069978 128.5690014
  64.5619992  76.6029978 129.5210014  64.7993207  76.8421923 128.7196509
  70.2549992  76.8479978 130.2480014  70.3309992  76.9439978 129.2990014
  69.9799992  75.9409978 130.3770014  70.2282042  76.7384241 130.1353811
  71.6079992  76.8739978 125.9400014  70.9049992  77.4889978 125.7310014
  71.1629992  76.0369978 126.0720014  71.4516292  76.8450085 125.9292439
  58.8559992  92.6379978 125.4870014  58.1709992  92.5999978 124.8190014
  58.8599992  93.5509978 125.7750014  58.7628174  92.7561998 125.4345310
  60.8159992  78.6059978 123.0310014  61.3069992  77.9759978 122.5040014
  61.4389992  78.9019978 123.6950014  60.9675062  78.5596770 123.0485438
  65.8419992  78.8989978 125.4890014  66.0199992  78.2519978 126.1710014
  65.7879992  79.7329978 125.9560014  65.8591025  78.9230504 125.6456433
  67.7199992  93.8469978 123.8840014  68.5859992  94.2139978 123.7060014
  67.4739992  93.4079978 123.0700014  67.8052097  93.8378525 123.7496019
  74.4289992  93.4099978 126.5630014  74.2349992  92.6619978 125.9980014
  74.3899992  94.1679978 125.9800014  74.3971645  93.4100786 126.4068148
  60.0759992  77.4059978 138.3030014  59.7099992  76.6399978 138.7460014
  60.9889992  77.4349978 138.5900014  60.1493225  77.3051906 138.4023459
  62.0489992  76.7559978 139.8390014  62.9479992  76.4819978 139.6540014
  61.6629992  76.0139978 140.3030014  62.1197237  76.6181508 139.8764710
  60.6739992  93.5579978 122.5120014  60.4059992  93.8439978 123.3850014
  61.4449992  93.0119978 122.6640014  60.7415600  93.5233330 122.6521499
  70.4709992  76.0889978 140.0210014  70.5469992  75.6629978 140.8750014
  71.3639992  76.1019978 139.6780014  70.6022267  76.0323952 140.0915932
  73.6469992  92.1619978 138.7130014  72.8649992  91.9749978 138.1940014
  73.5749992  93.0909978 138.9310014  73.5300863  92.2620221 138.6713574
  88.0529992  86.0479978 128.7440014  88.1419992  86.9919978 128.6120014
  87.4149992  85.7729978 128.0860014  87.9789062  86.1399812 128.6369641
  86.9859992  85.3029978 132.1630014  86.9479992  84.6569978 132.8680014
  86.6639992  84.8359978 131.3920014  86.9372679  85.1514276 132.1552921
  79.3539992  84.9169978 133.7560014  79.3959992  84.2919978 134.4790014
  80.0569992  85.5409978 133.9380014  79.4547345  84.9157873 133.8795274
  90.6919992  88.2419978 130.4650014  90.2509992  87.5219978 130.9150014
  90.6789992  88.9629978 131.0940014  90.6297960  88.2408329 130.6117567
  80.2779992  89.3669978 132.2910014  79.9079992  88.5649978 131.9210014
  81.2189992  89.1989978 132.3370014  80.3545984  89.2344638 132.2465603
  76.8879992  83.0269978 127.6840014  76.4399992  83.8729978 127.6650014
  76.3269992  82.4479978 127.1680014  76.7509603  83.0643674 127.6116720
  77.5979992  85.1889978 129.8100014  77.8119992  84.4189978 130.3370014
  78.3359992  85.2789978 129.2060014  77.7269652  85.0958012 129.8005212
  87.8039992  93.3459978 130.6770014  88.4229992  92.6699978 130.4030014
  87.5949992  93.1279978 131.5850014  87.8606232  93.2237938 130.7622517
  85.3749992  87.7349978 132.5690014  85.6789992  87.0489978 131.9750014
  86.0969992  87.8539978 133.1870014  85.5141152  87.6572189 132.5712123
  94.0379992  79.3369978 133.4300014  94.0879992  79.9469978 134.1660014
  94.4639992  79.7979978 132.7070014  94.1024108  79.4827709 133.4330112
  88.5159992  82.1289978 132.8970014  88.6589992  81.1829978 132.9170014
  88.4099992  82.3359978 131.9680014  88.5212509  82.0274813 132.7742231
  81.6709992  80.2309978 130.1690014  81.7139992  81.0909978 129.7510014
  81.2129992  79.6789978 129.5350014  81.6149815  80.2740621 130.0261197
  89.3929992  80.3619978 128.5700014  90.0399992  80.0329978 129.1950014
  89.9029992  80.8789978 127.9470014  89.5504317  80.3869227 128.5712167
  78.2909992  82.6279978 130.9310014  78.9449992  82.0779978 131.3630014
  78.3149992  82.3539978 130.0140014  78.3837199  82.5157167 130.8661668
  83.4479992  84.1779978 130.1460014  84.0639992  83.6509978 130.6560014
  82.8609992  83.5379978 129.7430014  83.4529239  84.0194117 130.1612952
  94.4299992  80.8149978 135.6660014  93.7409992  81.4729978 135.5700014
  94.4449992  80.6169978 136.6020014  94.3376740  80.8783243 135.7794630
  80.4809992  79.1489978 134.2430014  80.2619992  79.6789978 133.4770014
  79.8129992  79.3749978 134.8900014  80.3607001  79.2521154 134.2256064
  87.8499992  88.6489978 127.7870014  87.5549992  88.3259978 126.9360014
  87.5259992  89.5489978 127.8280014  87.7657983  88.7264026 127.6759771
  83.0499992  86.8239978 134.5310014  82.3099992  87.4229978 134.6340014
  83.7639992  87.3779978 134.2150014  83.0453288  86.9807356 134.5023805
  91.1569992  79.6529978 130.5500014  90.9419992  78.8869978 131.0830014
  91.8129992  80.1249978 131.0630014  91.2162673  79.6120728 130.6921990
  80.0749992  81.0409978 132.1950014  80.6889992  81.6739978 132.5690014
  80.5869992  80.5689978 131.5390014  80.2282277  81.0637352 132.1574279
  81.4579992  88.7889978 135.3180014  81.4519992  89.6679978 134.9400014
  80.6039992  88.7049978 135.7430014  81.3417925  88.8979535 135.3236887
  77.5789992  88.4599978 126.1000014  77.3069992  88.6889978 125.2110014
  77.6239992  89.2969978 126.5600014  77.5478709  88.6046058 126.0406107
  91.2039992  90.0809978 132.8120014  90.2619992  90.1399978 132.9740014
  91.4799992  90.9869978 132.6750014  91.1125865  90.2115288 132.8156192
  91.5039992  78.3679978 134.2300014  90.7679992  78.9779978 134.1920014
  92.1879992  78.7829978 133.7030014  91.4955506  78.5076400 134.1536051
  84.5079992  76.4539978 131.6960014  84.3899992  75.5059978 131.6410014
  83.6529992  76.7869978 131.9690014  84.3762679  76.3691926 131.7253720
  89.4559992  91.8619978 129.4380014  89.8809992  91.1549978 128.9530014
  89.7729992  92.6639978 129.0210014  89.5570266  91.8735190 129.3152479
  90.6159992  89.7629978 127.9460014  90.3579992  89.0729978 127.3350014
  90.6869992  89.3199978 128.7920014  90.5902837  89.6087106 127.9766912
  92.3019992  88.3299978 136.4240014  92.4409992  87.7379978 135.6840014
  92.4689992  89.2029978 136.0670014  92.3435562  88.3669896 136.2746283
  86.7739992  85.2919978 126.1960014  86.0629992  85.8269978 125.8440014
  87.4649992  85.3469978 125.5360014  86.7700751  85.3726777 126.0585858
  86.8279992  83.7489978 123.2350014  87.5289992  83.7719978 123.8860014
  87.1299992  83.1209978 122.5790014  86.9648282  83.6672339 123.2354496
  94.1429992  84.6699978 134.4900014  93.4909992  85.3639978 134.5790014
  94.6089992  84.8799978 133.6800014  94.1165937  84.7935019 134.3927533
  90.1799992  85.5009978 127.1480014  89.4479992  85.7299978 127.7210014
  90.6269992  84.7879978 127.6030014  90.1402753  85.4358972 127.2879715
  90.0769992  83.6759978 136.2160014  90.1569992  84.4389978 136.7870014
  89.4759992  83.9549978 135.5250014  90.0067245  83.8182630 136.2008424
  81.8249992  86.1319978 129.0300014  81.4949992  85.7609978 128.2120014
  82.4139992  85.4609978 129.3770014  81.8593970  85.9906063 128.9649404
  83.1919992  89.5599978 131.7120014  83.0969992  88.9809978 130.9550014
  83.9209992  89.1889978 132.2080014  83.2776161  89.4305891 131.6755209
  82.1919992  84.8999978 132.6640014  82.7569992  85.0219978 131.9010014
  82.5109992  85.5379978 133.3030014  82.3123977  85.0028851 132.6459424
  88.5009992  90.4039978 133.3980014  88.2609992  91.0659978 134.0460014
  88.3029992  89.5689978 133.8230014  88.4413826  90.3818115 133.5441566
  83.0719992  89.2999978 137.3810014  82.7609992  90.0819978 137.8360014
  82.4219992  89.1469978 136.6950014  82.9415538  89.3864087 137.3505898
  89.0509992  84.6639978 124.8330014  89.6299992  84.8139978 125.5800014
  89.4649992  85.1339978 124.1100014  89.1863122  84.7481277 124.8375042
  79.9919992  85.4979978 136.6100014  80.0619992  86.1489978 137.3080014
  79.1009992  85.6009978 136.2750014  79.8811802  85.6009757 136.6602249
  86.7769992  91.3999978 128.2680014  87.2509992  91.6959978 129.0460014
  86.2139992  92.1389978 128.0350014  86.7657361  91.5402721 128.3428611
  81.3109992  91.3709978 138.1440014  81.3189992  91.2349978 137.1970014
  80.3949992  91.2539978 138.3960014  81.1882528  91.3365463 138.0483243
  92.7499992  76.4139978 124.6460014  91.8499992  76.5529978 124.9410014
  93.0019992  77.2449978 124.2440014  92.6608683  76.5454055 124.6320232
  80.8159992  85.2009978 126.6200014  80.5239992  85.9689978 126.1290014
  80.1409992  84.5419978 126.4570014  80.6848497  85.2169745 126.5308260
  93.9389992  90.7799978 123.0220014  94.0119992  91.7189978 123.1930014
  94.8439992  90.4749978 122.9660014  94.0714158  90.8673061 123.0378392
  76.9089992  87.5639978 135.4350014  76.4069992  87.5359978 134.6200014
  76.9139992  86.6589978 135.7440014  76.8410416  87.4377368 135.3653766
  76.6589992  90.3449978 132.3190014  77.6049992  90.1999978 132.3000014
  76.5459992  91.1289978 132.8560014  76.7733578  90.4311697 132.3890317
  94.8569992  91.0109978 138.0010014  94.8069992  90.0549978 137.9640014
  94.0299992  91.2779978 138.4020014  94.7383987  90.9165174 138.0501446
  85.8349992  90.5849978 136.8770014  85.9229992  91.4109978 137.3520014
  84.9719992  90.2549978 137.1260014  85.7303357  90.6535468 136.9757653
  86.2499992  94.3569978 126.6830014  86.1739992  94.2359978 125.7370014
  86.2819992  95.3059978 126.8020014  86.2439156  94.4687530 126.5695048
  79.9029992  93.1459978 128.4640014  80.0549992  92.7979978 129.3430014
  79.0519992  92.7889978 128.2090014  79.8087899  93.0501738 128.5497340
  89.3509992  93.5109978 123.6850014  89.7259992  92.7669978 123.2150014
  89.3559992  93.2409978 124.6040014  89.4030024  93.3726950 123.7447987
  89.0199992  93.4369978 126.4350014  88.0849992  93.5369978 126.6130014
  89.2999992  92.7269978 127.0130014  88.9298173  93.3547239 126.5374998
  92.0089992  82.5039978 138.4810014  91.6009992  82.9839978 137.7610014
  92.0489992  81.5979978 138.1730014  91.9585476  82.4473160 138.3408247
  79.1579992  88.8879978 136.4780014  79.3739992  88.5259978 137.3370014
  78.3019992  88.5129978 136.2680014  79.0719354  88.7877906 136.5672160
  81.7759992  77.3579978 132.4730014  80.9149992  77.2709978 132.0660014
  81.7539992  78.2139978 132.9010014  81.6550411  77.4617884 132.4750857
  86.4389992  77.0799978 135.8480014  86.8589992  76.6649978 136.6010014
  85.5059992  76.9009978 135.9650014  86.3703736  76.9989910 135.9668968
  89.7659992  80.8349978 136.7010014  89.2519992  80.7099978 137.4990014
  89.6099992  81.7479978 136.4570014  89.6746967  80.9412123 136.7770937
  90.5279992  85.6959978 122.4630014  90.5699992  85.4739978 121.5330014
  91.3769992  86.0949978 122.6530014  90.6485253  85.7195498 122.3613822
  86.1009992  79.5719978 123.1330014  85.8469992  79.5909978 124.0560014
  85.8439992  78.7009978 122.8320014  86.0315133  79.4568110 123.2185082
  81.8669992  82.3229978 133.5680014  81.2259992  82.2829978 134.2770014
  81.9049992  83.2499978 133.3310014  81.7843670  82.4427795 133.6330550
  81.8639992  82.5439978 128.4800014  80.9719992  82.2039978 128.4220014
  82.3149992  82.1669978 127.7250014  81.8026815  82.4463762 128.3699203
  87.3999992  82.9599978 127.2970014  86.9909992  83.7749978 127.0060014
  88.1199992  82.8199978 126.6830014  87.4414013  83.0526571 127.1740875
  86.5019992  83.1359978 138.7850014  85.9389992  82.4309978 139.1060014
  87.3279992  83.0149978 139.2530014  86.5366674  83.0232165 138.8921751
  88.4049992  82.4059978 130.1110014  88.2089992  83.0119978 129.3960014
  88.5859992  81.5729978 129.6770014  88.4026584  82.3762513 129.9544212
  79.6169992  82.6439978 135.4350014  79.5789992  83.0439978 136.3040014
  79.1269992  81.8269978 135.5260014  79.5455621  82.5882510 135.5661377
  82.9829992  80.0179978 122.2340014  82.5519992  79.5729978 122.9640014
  82.2649992  80.3889978 121.7220014  82.8269363  80.0072968 122.2646211
  76.2259992  79.7599978 129.2860014  76.8559992  79.7309978 130.0050014
  76.6749992  79.3349978 128.5560014  76.3730692  79.6985316 129.2857771
  77.4999992  80.5059978 124.7100014  77.9739992  81.0969978 124.1250014
  76.7819992  81.0359978 125.0570014  77.4678640  80.6585511 124.6767969
  87.6689992  84.0439978 134.7830014  87.9919992  83.4129978 134.1400014
  87.2279992  83.5099978 135.4430014  87.6535789  83.8853522 134.7842232
  84.4459992  79.9719978 129.5670014  83.5349992  80.0289978 129.8550014
  84.9509992  79.9119978 130.3770014  84.3895387  79.9716870 129.7160646
  79.2739992  81.6009978 128.3930014  78.3849992  81.6999978 128.0530014
  79.5709992  80.7589978 128.0470014  79.1924177  81.5007687 128.2996940
  82.9269992  81.6009978 126.0500014  83.8589992  81.7299978 126.2280014
  82.7119992  82.2699978 125.4000014  83.0254472  81.7090806 125.9864891
  88.8509992  79.2069978 132.8310014  88.1739992  79.3379978 133.4950014
  88.3659992  79.0519978 132.0210014  88.6927265  79.2039659 132.8123397
  81.6009992  82.7949978 123.6170014  81.0589992  82.4159978 122.9250014
  82.4349992  82.9899978 123.1880014  81.6395159  82.7695076 123.4644419
  92.1389992  94.8779978 139.1080014  92.3379992  95.3019978 138.2730014
  92.7939992  95.2219978 139.7150014  92.2548501  94.9826091 139.0757097
  79.7369992  87.3519978 138.7160014  80.4689992  87.6069978 139.2770014
  78.9559992  87.5569978 139.2310014  79.7317684  87.4146468 138.8624782
  85.7659992  82.7589978 131.4540014  86.3299992  82.2129978 130.9070014
  85.6179992  82.2379978 132.2420014  85.8232575  82.6136552 131.4856987
  80.7679992  78.8959978 127.8720014  80.4509992  77.9929978 127.8370014
  81.5489992  78.8979978 127.3190014  80.8302307  78.7726951 127.7924314
  84.3919992  81.1479978 133.8680014  83.5569992  81.6019978 133.9780014
  84.9159992  81.4239978 134.6200014  84.3485070  81.2474666 133.9847152
  84.9369992  87.3609978 125.5520014  84.1919992  86.8529978 125.2300014
  84.8019992  87.4099978 126.4990014  84.8169047  87.2981596 125.6358845
  92.0869992  86.4939978 134.3390014  92.7279992  86.9499978 133.7950014
  91.2559992  86.6069978 133.8770014  92.0625171  86.5717502 134.2020237
  88.8339992  80.1749978 123.7520014  87.8959992  80.2859978 123.6000014
  89.1319992  81.0309978 124.0580014  88.7456402  80.3060621 123.7725571
  86.4559992  87.5449978 136.7890014  86.1099992  87.1629978 137.5960014
  86.2559992  88.4779978 136.8610014  86.3816523  87.6189095 136.9090735
  89.5529992  82.0419978 125.4120014  90.4449992  81.9039978 125.7310014
  89.6089992  82.8329978 124.8760014  89.6827107  82.1300526 125.3832091
  80.0609992  86.6559978 131.3220014  80.8059992  86.6529978 130.7210014
  80.1389992  85.8319978 131.8040014  80.1734158  86.5442916 131.3049153
  87.0619992  88.8189978 124.5780014  86.7669992  89.6459978 124.9590014
  86.3589992  88.1999978 124.7740014  86.9265471  88.8485227 124.6566698
  77.0689992  85.1159978 136.6370014  77.2919992  84.6979978 137.4690014
  76.4669992  84.5039978 136.2140014  77.0181260  84.9759933 136.6937320
  84.0859992  84.6329978 138.8500014  83.7899992  84.4679978 137.9550014
  85.0169992  84.4129978 138.8390014  84.1713982  84.5806578 138.7260045
  88.7059992  90.0069978 136.7400014  87.8059992  90.1899978 136.4720014
  88.7399992  90.2659978 137.6610014  88.5872909  90.0670815 136.8277852
  94.4379992  82.2509978 125.1070014  93.8829992  81.8549978 124.4350014
  94.5379992  83.1619978 124.8290014  94.3755888  82.3198990 124.9775206
  94.4009992  88.0519978 137.9440014  93.5499992  88.2899978 137.5770014
  94.9909992  88.0349978 137.1910014  94.3642408  88.0822966 137.7918879
  92.7329992  91.0369978 125.5720014  92.3599992  90.2119978 125.8810014
  93.0099992  90.8539978 124.6750014  92.7193871  90.8992441 125.4929677
  89.8929992  85.8449978 132.5930014  88.9649992  85.6139978 132.5660014
  90.3439992  85.0679978 132.2630014  89.8268165  85.7082774 132.5446790
  82.4359992  90.1739978 128.7260014  82.9639992  90.9469978 128.5260014
  81.5559992  90.3979978 128.4250014  82.3893176  90.3103161 128.6578409
  78.1909992  85.0359978 123.3140014  78.8069992  85.6629978 123.6930014
  77.3289992  85.3519978 123.5850014  78.1588195  85.1645798 123.4025386
  83.8639992  87.8369978 128.3030014  83.6229992  88.7619978 128.3440014
  83.1229992  87.3779978 128.6990014  83.7308390  87.9016403 128.3621404
  84.3779992  91.9859978 134.6180014  84.7409992  92.8399978 134.3840014
  84.9099992  91.6939978 135.3580014  84.4996090  92.0634058 134.6860219
  82.5469992  92.8579978 127.8480014  81.5969992  92.9639978 127.8990014
  82.8989992  93.6789978 128.1930014  82.4645480  92.9834438 127.9015999
  87.9219992  88.0849978 134.3180014  87.4969992  87.8569978 135.1450014
  88.5029992  87.3459978 134.1360014  87.9423930  87.9539843 134.4064732
  90.1249992  89.0139978 123.3920014  90.4789992  88.6339978 124.1970014
  89.1769992  88.9199978 123.4790014  90.0451820  88.9493092 123.5138714
  90.5809992  92.6369978 136.7880014  89.9789992  92.0809978 136.2920014
  90.8619992  93.3039978 136.1620014  90.5366829  92.6511613 136.6355443
  94.6289992  93.4929978 123.5930014  95.3729992  94.0789978 123.4530014
  93.9349992  94.0619978 123.9270014  94.6370201  93.6500603 123.6189772
  78.7029992  79.8699978 136.1950014  77.8109992  80.2079978 136.1280014
  78.6049992  79.0139978 136.6130014  78.5674965  79.8006499 136.2423044
  90.9909992  87.6859978 125.6190014  90.7139992  86.9579978 126.1750014
  91.9189992  87.8049978 125.8240014  91.0784499  87.6024213 125.7228044
  78.3549992  91.6739978 134.6300014  78.5719992  90.7419978 134.5990014
  78.6009992  91.9489978 135.5130014  78.4179809  91.5835686 134.7451691
  84.2159992  90.1259978 121.8390014  84.4549992  89.3769978 121.2920014
  83.9469992  89.7379978 122.6720014  84.2123233  89.9711853 121.8767809
  83.1529992  89.6959978 124.2960014  83.2999992  89.1759978 125.0860014
  83.1499992  90.6029978 124.6020014  83.1727300  89.7473964 124.4455895
  79.6059992  86.9479978 124.8060014  78.9199992  87.3009978 125.3730014
  80.1289992  87.7109978 124.5600014  79.5829033  87.0993746 124.8502661
  87.4379992  79.6109978 135.0850014  88.1369992  79.6849978 135.7350014
  87.0569992  78.7459978 135.2390014  87.4822097  79.5042389 135.1947997
  88.2219992  79.2629978 126.1820014  88.4419992  79.7339978 125.3790014
  88.7809992  79.6569978 126.8520014  88.3276730  79.3807432 126.1625906
  85.8909992  91.3929978 125.0450014  85.0739992  91.8899978 125.0970014
  86.4199992  91.8689978 124.4050014  85.8508508  91.5252543 124.9656035
  85.4219992  80.9909978 127.0170014  86.2339992  81.4949978 127.0630014
  85.1779992  80.8459978 127.9310014  85.5001467  81.0403749 127.1468575
  85.9579992  81.9769978 136.2020014  86.0769992  82.5509978 136.9590014
  86.6129992  81.2889978 136.3160014  86.0629146  81.9625574 136.3211313
  86.3059992  78.0719978 127.9550014  85.9589992  78.6889978 128.6000014
  86.9649992  78.5729978 127.4740014  86.3475949  78.2241099 127.9782271
  83.2289992  92.4369978 125.0270014  83.3899992  93.2369978 124.5260014
  83.0319992  92.7439978 125.9120014  83.2243919  92.5879129 125.0781006
  81.9639992  79.1349978 124.6420014  81.8799992  80.0229978 124.9890014
  82.8539992  78.8699978 124.8740014  82.0728163  79.2207179 124.7208596
  92.1619992  79.8839978 137.0370014  91.2459992  80.1459978 136.9490014
  92.4979992  79.8809978 136.1400014  92.0819789  79.9194626 136.9037847
  90.7649992  83.6339978 131.1320014  89.9669992  83.2189978 130.8040014
  91.2099992  82.9439978 131.6230014  90.7159684  83.4838628 131.1535227
  80.2219992  89.5619978 123.7030014  80.8139992  90.2619978 123.9790014
  80.6809992  89.1289978 122.9830014  80.3650791  89.5992908 123.6434607
  78.5379992  82.2269978 122.8190014  78.4929992  83.1659978 122.9970014
  77.6499992  81.9909978 122.5490014  78.4118555  82.3236874 122.8068939
  91.8509992  92.8899978 132.7550014  91.6949992  93.5689978 132.0980014
  92.7839992  92.9619978 132.9580014  91.9557387  92.9926390 132.6925342
  79.3459992  77.0079978 131.4920014  79.1169992  77.0669978 130.5640014
  78.9039992  76.2169978 131.7980014  79.2548801  76.9090540 131.4064729
  78.2769992  90.9489978 127.6520014  77.4439992  91.4209978 127.6800014
  78.8219992  91.4589978 127.0540014  78.2367590  91.0825897 127.5749194
  77.5649992  93.5609978 138.9820014  78.1049992  93.3449978 139.7420014
  77.0839992  92.7559978 138.7930014  77.5738613  93.4225400 139.0604782
  82.1619992  92.4809978 140.6030014  82.9299992  92.0219978 140.9440014
  82.1409992  92.2549978 139.6730014  82.2642135  92.3876668 140.5239491
  86.2539992  91.9889978 121.9780014  85.6099992  91.3579978 122.2990014
  87.0159992  91.4579978 121.7460014  86.2688058  91.8307902 121.9906038
  88.7389992  90.8609978 139.3320014  88.3879992  90.0039978 139.5750014
  89.4649992  91.0029978 139.9390014  88.7891590  90.7630178 139.4472907
  90.8589992  91.8059978 122.2120014  91.1419992  91.0109978 122.6640014
  91.5979992  92.0389978 121.6510014  90.9976956  91.7287031 122.1979821
  77.4719992  87.3719978 139.9370014  77.6159992  86.4699978 139.6500014
  76.6999992  87.6579978 139.4490014  77.3873303  87.2873243 139.8317908
  81.8129992  87.7149978 122.0690014  81.8779992  86.9209978 122.6000014
  82.4659992  87.5969978 121.3790014  81.9101754  87.5903337 122.0484259
  84.1269992  87.3409978 139.3690014  83.7989992  87.6119978 138.5120014
  84.2789992  86.3999978 139.2820014  84.1026030  87.2508973 139.2397945
  87.1659992  88.7619978 121.8050014  86.8969992  88.9429978 122.7060014
  86.9589992  87.8369978 121.6740014  87.1012000  88.6616774 121.9105693
  89.8619992  87.2569978 136.7530014  90.6069992  87.8459978 136.6330014
  89.1049992  87.8389978 136.8160014  89.8615205  87.4161997 136.7451119
  78.3049992  84.5719978 139.3570014  78.7129992  83.7149978 139.2360014
  78.0439992  84.5859978 140.2780014  78.3256016  84.4565119 139.4649192
  82.9629992  85.6879978 124.3750014  82.5029992  85.2039978 125.0610014
  83.2179992  85.0189978 123.7390014  82.9345038  85.5313689 124.3829447
  82.2519992  83.5809978 136.7310014  81.6329992  84.2549978 137.0110014
  82.5959992  83.9019978 135.8980014  82.2137605  83.7167198 136.6566707
  84.0339992  83.9309978 122.6370014  83.8529992  83.7759978 121.7100014
  84.9839992  84.0389978 122.6820014  84.1376566  83.9243669 122.5160929
  87.2709992  86.0519978 140.0080014  88.2249992  86.1359978 139.9810014
  87.1109992  85.3399978 140.6280014  87.3797182  85.9672842 140.0880733
  93.4239992  86.2849978 122.0830014  93.1499992  85.8609978 121.2700014
  93.4629992  87.2169978 121.8660014  93.3917716  86.3528827 121.9424286
  82.5909992  80.9359978 137.8130014  82.7409992  80.2069978 137.2110014
  82.5929992  81.7129978 137.2540014  82.6117967  80.9412708 137.6550541
  83.0039992  79.3049978 135.3060014  83.5389992  79.7569978 134.6540014
  82.1509992  79.1969978 134.8830014  82.9620374  79.3522665 135.1596710
  84.5849992  84.7449978 135.5450014  85.3359992  84.5889978 134.9720014
  84.2459992  85.5969978 135.2700014  84.6419587  84.8388138 135.4294078
  89.0009992  82.5599978 140.5740014  89.1929992  81.6289978 140.4620014
  89.8589992  82.9849978 140.5640014  89.1432269  82.4899928 140.5573192
  90.3179992  85.3489978 138.6510014  90.0359992  86.0579978 138.0740014
  91.2599992  85.2759978 138.5000014  90.4067656  85.4363128 138.5514809
  81.0699992  82.1339978 139.7250014  80.3019992  81.6009978 139.5150014
  81.7479992  81.8239978 139.1250014  81.0566973  82.0192375 139.6151796
  83.8089992  76.7619978 135.7370014  83.7109992  77.7079978 135.6320014
  83.0669992  76.3889978 135.2620014  83.6951913  76.8411813 135.6583539
  85.0729992  81.0829978 139.3010014  84.8379992  80.8639978 140.2030014
  84.2899992  80.8759978 138.7910014  84.9349219  81.0250066 139.3555852
  87.7889992  80.2109978 138.3770014  86.8409992  80.2429978 138.5090014
  88.1009992  79.5849978 139.0300014  87.7015190  80.1307262 138.4833564
  89.4229992  78.8449978 140.3820014  89.3259992  77.8929978 140.3760014
  89.1009992  79.1129978 141.2420014  89.3661761  78.7509744 140.4974936
  79.2499992  80.0539978 139.4290014  79.4619992  79.3479978 138.8190014
  79.1389992  79.6169978 140.2730014  79.2640269  79.8981921 139.4595873
  84.0309992  76.0559978 138.4090014  84.7429992  75.4159978 138.3950014
  83.9299992  76.3219978 137.4950014  84.1147261  76.0044190 138.2835537
  84.3849992  77.7379978 140.4620014  84.2529992  77.2629978 139.6420014
  83.7849992  78.4829978 140.4070014  84.2859070  77.7735789 140.3423251
  83.9309992  94.6209978 123.6390014  84.8639992  94.7789978 123.7820014
  83.6669992  95.2969978 123.0140014  84.0229308  94.7339104 123.5741396
  77.4989992  89.2579978 123.1210014  78.4129992  89.3369978 123.3950014
  77.5069992  88.5709978 122.4550014  77.6251143  89.1759085 123.0684274
  76.1479992  94.6509978 128.1990014  75.5009992  94.1889978 127.6660014
  76.5029992  93.9789978 128.7810014  76.1074506  94.4969503 128.2047341
  77.0179992  92.7309978 130.0030014  76.6839992  91.8509978 130.1750014
  77.2409992  93.0769978 130.8680014  77.0023721  92.6571938 130.1434168
  94.5669992  93.5409978 132.9840014  94.5449992  93.7259978 133.9230014
  95.2569992  94.1089978 132.6430014  94.6573439  93.6431887 133.0664791
  94.1299992  93.1079978 135.9060014  93.6429992  92.3729978 135.5350014
  94.6789992  92.7139978 136.5840014  94.1375247  92.9541057 135.9468461
  92.5809992  88.8979978 140.5440014  91.7149992  88.7929978 140.9380014
  92.9569992  89.6559978 140.9900014  92.5133401  88.9861708 140.6582620
  93.8819992  87.1539978 126.0580014  94.7319992  87.5749978 126.1850014
  93.8869992  86.4139978 126.6650014  93.9991143  87.1116094 126.1574750
  94.2759992  85.2079978 127.8820014  93.5499992  84.7279978 128.2790014
  94.8579992  85.4129978 128.6140014  94.2551635  85.1699166 128.0353748
  94.0349992  87.9929978 132.8290014  94.8689992  87.6149978 132.5490014
  94.1469992  88.9359978 132.7100014  94.1642522  88.0687742 132.7746020
  92.5219992  90.8709978 135.1360014  91.8739992  91.1959978 135.7620014
  92.0039992  90.4299978 134.4620014  92.3634168  90.8558523 135.1305307
  94.5449992  85.1089978 124.2730014  94.0229992  85.4649978 123.5540014
  94.5119992  85.7839978 124.9510014  94.4690699  85.2489848 124.2662129
  92.8939992  82.3479978 122.8240014  92.9899992  83.0149978 122.1440014
  92.7539992  81.5329978 122.3420014  92.8882063  82.3290667 122.6658377
  92.0629992  83.7289978 128.4450014  91.9129992  82.7839978 128.4240014
  91.7089992  84.0099978 129.2880014  91.9945527  83.6375605 128.5561859
  77.0979992  85.8069978 132.4550014  77.2829992  85.7249978 131.5190014
  77.9479992  85.6829978 132.8790014  77.2380916  85.7790393 132.3842896
  92.9189992  85.6989978 138.0830014  93.5019992  84.9639978 138.2750014
  93.4829992  86.4709978 138.1300014  93.0749781  85.7028145 138.1156164
  94.4159992  83.6019978 138.7680014  93.5529992  83.2229978 138.6020014
  95.0199992  82.8629978 138.6940014  94.3795944  83.4502978 138.7352984
  92.1409992  79.7559978 121.9410014  92.7519992  79.3849978 122.5780014
  91.3039992  79.3349978 122.1370014  92.1114947  79.6482756 122.0547252
  91.7739992  81.3109978 126.9070014  92.0529992  80.4039978 127.0310014
  92.5329992  81.7449978 126.5180014  91.9148619  81.2454502 126.8713795
  92.3849992  81.8929978 132.3430014  93.3179992  82.1049978 132.3090014
  92.1499992  81.9939978 133.2650014  92.4808308  81.9356503 132.4630214
  92.4149992  82.6299978 135.1190014  91.5719992  82.8979978 135.4850014
  92.8569992  83.4519978 134.9080014  92.3594138  82.7778273 135.1405518
  76.6959992  81.0769978 138.5960014  77.6149992  80.9549978 138.8320014
  76.2459992  80.3269978 138.9850014  76.7611148  80.9588751 138.6809408
  94.6979992  76.6099978 140.4720014  95.0469992  75.9559978 139.8670014
  94.8449992  77.4469978 140.0330014  94.7657355  76.6336067 140.3296564
  92.3869992  78.5739978 126.9550014  92.5689992  78.1249978 127.7810014
  91.7869992  77.9899978 126.4920014  92.3307529  78.4336131 127.0053619
  77.9169992  79.3899978 131.4870014  78.3619992  78.5979978 131.7890014
  78.3829992  80.1059978 131.9180014  78.0409059  79.3784474 131.5866079
  76.2209992  82.3889978 132.5560014  76.7129992  82.1679978 131.7650014
  76.5829992  83.2289978 132.8370014  76.3372923  82.4723468 132.4857407
  94.2169992  78.7189978 138.8220014  93.2999992  78.9899978 138.7860014
  94.3399992  78.1839978 138.0380014  94.1080828  78.6837700 138.7110785
  94.2539992  78.6419978 123.4830014  94.6659992  77.9209978 123.0080014
  94.9349992  79.3109978 123.5420014  94.4025900  78.6337306 123.4259038
  76.5349992  78.6469978 126.6100014  75.6099992  78.8549978 126.4810014
  76.9889992  79.1309978 125.9210014  76.4696374  78.7409949 126.4990957
  91.3049992  93.6309978 128.5560014  91.9579992  93.2829978 127.9480014
  91.8159992  94.1189978 129.2020014  91.4632777  93.6493815 128.5602047
  76.4979992  77.3849978 134.9550014  75.8329992  77.1389978 135.5980014
  76.0549992  78.0069978 134.3770014  76.3470937  77.4353614 134.9649379
  78.6899992  90.5599978 139.0990014  77.8689992  90.7349978 138.6390014
  78.4379992  90.4869978 140.0200014  78.5436173  90.5740794 139.1604972
  81.6439992  91.5339978 135.3580014  81.2199992  92.3439978 135.0750014
  82.5489992  91.6199978 135.0560014  81.7082433  91.6563331 135.2785377
  85.9559992  92.9329978 138.3170014  86.1399992  92.5999978 139.1950014
  86.8019992  93.2429978 137.9950014  86.0956484  92.9292979 138.3937617
  88.3009992  94.2189978 137.5610014  88.9779992  93.5859978 137.3210014
  88.6219992  94.6199978 138.3680014  88.4371323  94.1865691 137.6373158
  93.2179992  76.8089978 136.6410014  92.4049992  77.1339978 136.2530014
  93.4509992  76.0479978 136.1080014  93.1382566  76.7506559 136.5159213
  79.0459992  94.7909978 135.4050014  78.3259992  95.2309978 134.9540014
  78.6809992  94.5399978 136.2540014  78.8979796  94.8173824 135.4579329
  81.5129992  94.3909978 134.4350014  80.6489992  94.4629978 134.8390014
  81.4579992  94.9379978 133.6510014  81.3871942  94.4747849 134.3844000
  86.2239992  94.2789978 133.6100014  85.7669992  94.8079978 132.9560014
  86.3869992  94.8819978 134.3360014  86.1834476  94.4329140 133.6185499
  88.5519992  93.1569978 134.5550014  87.6469992  93.3219978 134.2900014
  88.9799992  94.0099978 134.4900014  88.4860700  93.2949529 134.5099520
  91.1559992  94.7269978 134.8500014  90.9739992  95.6429978 134.6400014
  91.3329992  94.3159978 134.0040014  91.1549907  94.7969741 134.7067883
  78.4609992  93.4139978 132.3150014  78.4429992  92.9879978 133.1730014
  79.2659992  93.0949978 131.9070014  78.5673221  93.3127233 132.3770225
  80.6019992  92.1239978 130.9700014  80.3829992  91.2069978 131.1400014
  81.4259992  92.2639978 131.4360014  80.6834702  92.0175511 131.0562527
  83.1389992  92.5939978 131.8190014  83.3519992  91.7059978 131.5320014
  83.2039992  92.5589978 132.7740014  83.1769075  92.4678307 131.9087373
  86.6479992  78.2579978 130.9630014  85.9739992  77.6279978 131.2190014
  87.2119992  77.7739978 130.3600014  86.6320384  78.1063708 130.9165020
  91.7909992  76.3649978 131.0760014  92.3939992  76.9129978 130.5740014
  90.9209992  76.6839978 130.8360014  91.7559190  76.4831041 130.9748679
  93.5179992  77.5039978 129.4090014  94.1289992  76.9899978 128.8830014
  93.8999992  78.3809978 129.4330014  93.6534475  77.5521323 129.3401208
  78.9749992  76.8919978 128.7850014  78.1979992  76.6569978 128.2780014
  79.5049992  76.0949978 128.7940014  78.9403451  76.7521268 128.7168627
  77.8109992  76.6899978 124.5890014  78.2499992  77.3009978 123.9970014
  77.1769992  77.2279978 125.0630014  77.7853859  76.8464064 124.5720305
  83.5539992  76.8179978 128.5990014  84.4279992  77.2069978 128.5690014
  83.4179992  76.6029978 129.5210014  83.6553207  76.8421923 128.7196509
  89.1109992  76.8479978 130.2480014  89.1869992  76.9439978 129.2990014
  88.8359992  75.9409978 130.3770014  89.0842042  76.7384241 130.1353811
  90.4639992  76.8739978 125.9400014  89.7609992  77.4889978 125.7310014
  90.0189992  76.0369978 126.0720014  90.3076292  76.8450085 125.9292439
  77.7119992  92.6379978 125.4870014  77.0269992  92.5999978 124.8190014
  77.7159992  93.5509978 125.7750014  77.6188174  92.7561998 125.4345310
  79.6719992  78.6059978 123.0310014  80.1629992  77.9759978 122.5040014
  80.2949992  78.9019978 123.6950014  79.8235062  78.5596770 123.0485438
  84.6979992  78.8989978 125.4890014  84.8759992  78.2519978 126.1710014
  84.6439992  79.7329978 125.9560014  84.7151025  78.9230504 125.6456433
  86.5759992  93.8469978 123.8840014  87.4419992  94.2139978 123.7060014
  86.3299992  93.4079978 123.0700014  86.6612097  93.8378525 123.7496019
  93.2849992  93.4099978 126.5630014  93.0909992  92.6619978 125.9980014
  93.2459992  94.1679978 125.9800014  93.2531645  93.4100786 126.4068148
  78.9319992  77.4059978 138.3030014  78.5659992  76.6399978 138.7460014
  79.8449992  77.4349978 138.5900014  79.0053225  77.3051906 138.4023459
  80.9049992  76.7559978 139.8390014  81.8039992  76.4819978 139.6540014
  80.5189992  76.0139978 140.3030014  80.9757237  76.6181508 139.8764710
  79.5299992  93.5579978 122.5120014  79.2619992  93.8439978 123.3850014
  80.3009992  93.0119978 122.6640014  79.5975600  93.5233330 122.6521499
  89.3269992  76.0889978 140.0210014  89.4029992  75.6629978 140.8750014
  90.2199992  76.1019978 139.6780014  89.4582267  76.0323952 140.0915932
  92.5029992  92.1619978 138.7130014  91.7209992  91.9749978 138.1940014
  92.4309992  93.0909978 138.9310014  92.3860863  92.2620221 138.6713574
 106.9089992  86.0479978 128.7440014 106.9979992  86.9919978 128.6120014
 106.2709992  85.7729978 128.0860014 106.8349062  86.1399812 128.6369641
 105.8419992  85.3029978 132.1630014 105.8039992  84.6569978 132.8680014
 105.5199992  84.8359978 131.3920014 105.7932679  85.1514276 132.1552921
  98.2099992  84.9169978 133.7560014  98.2519992  84.2919978 134.4790014
  98.9129992  85.5409978 133.9380014  98.3107345  84.9157873 133.8795274
 109.5479992  88.2419978 130.4650014 109.1069992  87.5219978 130.9150014
 109.5349992  88.9629978 131.0940014 109.4857960  88.2408329 130.6117567
  99.1339992  89.3669978 132.2910014  98.7639992  88.5649978 131.9210014
 100.0749992  89.1989978 132.3370014  99.2105984  89.2344638 132.2465603
  95.7439992  83.0269978 127.6840014  95.2959992  83.8729978 127.6650014
  95.1829992  82.4479978 127.1680014  95.6069603  83.0643674 127.6116720
  96.4539992  85.1889978 129.8100014  96.6679992  84.4189978 130.3370014
  97.1919992  85.2789978 129.2060014  96.5829652  85.0958012 129.8005212
 106.6599992  93.3459978 130.6770014 107.2789992  92.6699978 130.4030014
 106.4509992  93.1279978 131.5850014 106.7166232  93.2237938 130.7622517
 104.2309992  87.7349978 132.5690014 104.5349992  87.0489978 131.9750014
 104.9529992  87.8539978 133.1870014 104.3701152  87.6572189 132.5712124
 112.8939992  79.3369978 133.4300014 112.9439992  79.9469978 134.1660014
 113.3199992  79.7979978 132.7070014 112.9584108  79.4827709 133.4330112
 107.3719992  82.1289978 132.8970014 107.5149992  81.1829978 132.9170014
 107.2659992  82.3359978 131.9680014 107.3772509  82.0274813 132.7742231
 100.5269992  80.2309978 130.1690014 100.5699992  81.0909978 129.7510014
 100.0689992  79.6789978 129.5350014 100.4709815  80.2740621 130.0261197
 108.2489992  80.3619978 128.5700014 108.8959992  80.0329978 129.1950014
 108.7589992  80.8789978 127.9470014 108.4064317  80.3869227 128.5712167
  97.1469992  82.6279978 130.9310014  97.8009992  82.0779978 131.3630014
  97.1709992  82.3539978 130.0140014  97.2397199  82.5157167 130.8661668
 102.3039992  84.1779978 130.1460014 102.9199992  83.6509978 130.6560014
 101.7169992  83.5379978 129.7430014 102.3089239  84.0194117 130.1612952
 113.2859992  80.8149978 135.6660014 112.5969992  81.4729978 135.5700014
 113.3009992  80.6169978 136.6020014 113.1936740  80.8783243 135.7794630
  99.3369992  79.1489978 134.2430014  99.1179992  79.6789978 133.4770014
  98.6689992  79.3749978 134.8900014  99.2167001  79.2521154 134.2256064
 106.7059992  88.6489978 127.7870014 106.4109992  88.3259978 126.9360014
 106.3819992  89.5489978 127.8280014 106.6217983  88.7264027 127.6759771
 101.9059992  86.8239978 134.5310014 101.1659992  87.4229978 134.6340014
 102.6199992  87.3779978 134.2150014 101.9013288  86.9807356 134.5023805
 110.0129992  79.6529978 130.5500014 109.7979992  78.8869978 131.0830014
 110.6689992  80.1249978 131.0630014 110.0722673  79.6120728 130.6921990
  98.9309992  81.0409978 132.1950014  99.5449992  81.6739978 132.5690014
  99.4429992  80.5689978 131.5390014  99.0842277  81.0637352 132.1574279
 100.3139992  88.7889978 135.3180014 100.3079992  89.6679978 134.9400014
  99.4599992  88.7049978 135.7430014 100.1977925  88.8979535 135.3236887
  96.4349992  88.4599978 126.1000014  96.1629992  88.6889978 125.2110014
  96.4799992  89.2969978 126.5600014  96.4038709  88.6046058 126.0406107
 110.0599992  90.0809978 132.8120014 109.1179992  90.1399978 132.9740014
 110.3359992  90.9869978 132.6750014 109.9685865  90.2115288 132.8156192
 110.3599992  78.3679978 134.2300014 109.6239992  78.9779978 134.1920014
 111.0439992  78.7829978 133.7030014 110.3515506  78.5076400 134.1536051
 103.3639992  76.4539978 131.6960014 103.2459992  75.5059978 131.6410014
 102.5089992  76.7869978 131.9690014 103.2322679  76.3691926 131.7253720
 108.3119992  91.8619978 129.4380014 108.7369992  91.1549978 128.9530014
 108.6289992  92.6639978 129.0210014 108.4130266  91.8735190 129.3152479
 109.4719992  89.7629978 127.9460014 109.2139992  89.0729978 127.3350014
 109.5429992  89.3199978 128.7920014 109.4462837  89.6087106 127.9766912
 111.1579992  88.3299978 136.4240014 111.2969992  87.7379978 135.6840014
 111.3249992  89.2029978 136.0670014 111.1995562  88.3669896 136.2746283
 105.6299992  85.2919978 126.1960014 104.9189992  85.8269978 125.8440014
 106.3209992  85.3469978 125.5360014 105.6260751  85.3726777 126.0585858
 105.6839992  83.7489978 123.2350014 106.3849992  83.7719978 123.8860014
 105.9859992  83.1209978 122.5790014 105.8208282  83.6672339 123.2354496
 112.9989992  84.6699978 134.4900014 112.3469992  85.3639978 134.5790014
 113.4649992  84.8799978 133.6800014 112.9725937  84.7935019 134.3927533
 109.0359992  85.5009978 127.1480014 108.3039992  85.7299978 127.7210014
 109.4829992  84.7879978 127.6030014 108.9962753  85.4358972 127.2879715
 108.9329992  83.6759978 136.2160014 109.0129992  84.4389978 136.7870014
 108.3319992  83.9549978 135.5250014 108.8627245  83.8182630 136.2008424
 100.6809992  86.1319978 129.0300014 100.3509992  85.7609978 128.2120014
 101.2699992  85.4609978 129.3770014 100.7153970  85.9906063 128.9649404
 102.0479992  89.5599978 131.7120014 101.9529992  88.9809978 130.9550014
 102.7769992  89.1889978 132.2080014 102.1336161  89.4305891 131.6755209
 101.0479992  84.8999978 132.6640014 101.6129992  85.0219978 131.9010014
 101.3669992  85.5379978 133.3030014 101.1683977  85.0028851 132.6459424
 107.3569992  90.4039978 133.3980014 107.1169992  91.0659978 134.0460014
 107.1589992  89.5689978 133.8230014 107.2973826  90.3818115 133.5441566
 101.9279992  89.2999978 137.3810014 101.6169992  90.0819978 137.8360014
 101.2779992  89.1469978 136.6950014 101.7975538  89.3864087 137.3505898
 107.9069992  84.6639978 124.8330014 108.4859992  84.8139978 125.5800014
 108.3209992  85.1339978 124.1100014 108.0423122  84.7481277 124.8375042
  98.8479992  85.4979978 136.6100014  98.9179992  86.1489978 137.3080014
  97.9569992  85.6009978 136.2750014  98.7371802  85.6009757 136.6602249
 105.6329992  91.3999978 128.2680014 106.1069992  91.6959978 129.0460014
 105.0699992  92.1389978 128.0350014 105.6217361  91.5402721 128.3428611
 100.1669992  91.3709978 138.1440014 100.1749992  91.2349978 137.1970014
  99.2509992  91.2539978 138.3960014 100.0442528  91.3365463 138.0483243
 111.6059992  76.4139978 124.6460014 110.7059992  76.5529978 124.9410014
 111.8579992  77.2449978 124.2440014 111.5168683  76.5454055 124.6320232
  99.6719992  85.2009978 126.6200014  99.3799992  85.9689978 126.1290014
  98.9969992  84.5419978 126.4570014  99.5408497  85.2169745 126.5308260
 112.7949992  90.7799978 123.0220014 112.8679992  91.7189978 123.1930014
 113.6999992  90.4749978 122.9660014 112.9274158  90.8673061 123.0378392
  95.7649992  87.5639978 135.4350014  95.2629992  87.5359978 134.6200014
  95.7699992  86.6589978 135.7440014  95.6970416  87.4377368 135.3653766
  95.5149992  90.3449978 132.3190014  96.4609992  90.1999978 132.3000014
  95.4019992  91.1289978 132.8560014  95.6293578  90.4311697 132.3890317
 113.7129992  91.0109978 138.0010014 113.6629992  90.0549978 137.9640014
 112.8859992  91.2779978 138.4020014 113.5943987  90.9165174 138.0501446
 104.6909992  90.5849978 136.8770014 104.7789992  91.4109978 137.3520014
 103.8279992  90.2549978 137.1260014 104.5863357  90.6535468 136.9757653
 105.1059992  94.3569978 126.6830014 105.0299992  94.2359978 125.7370014
 105.1379992  95.3059978 126.8020014 105.0999156  94.4687530 126.5695048
  98.7589992  93.1459978 128.4640014  98.9109992  92.7979978 129.3430014
  97.9079992  92.7889978 128.2090014  98.6647899  93.0501738 128.5497340
 108.2069992  93.5109978 123.6850014 108.5819992  92.7669978 123.2150014
 108.2119992  93.2409978 124.6040014 108.2590024  93.3726950 123.7447987
 107.8759992  93.4369978 126.4350014 106.9409992  93.5369978 126.6130014
 108.1559992  92.7269978 127.0130014 107.7858173  93.3547239 126.5374998
 110.8649992  82.5039978 138.4810014 110.4569992  82.9839978 137.7610014
 110.9049992  81.5979978 138.1730014 110.8145476  82.4473160 138.3408247
  98.0139992  88.8879978 136.4780014  98.2299992  88.5259978 137.3370014
  97.1579992  88.5129978 136.2680014  97.9279354  88.7877906 136.5672160
 100.6319992  77.3579978 132.4730014  99.7709992  77.2709978 132.0660014
 100.6099992  78.2139978 132.9010014 100.5110411  77.4617884 132.4750857
 105.2949992  77.0799978 135.8480014 105.7149992  76.6649978 136.6010014
 104.3619992  76.9009978 135.9650014 105.2263736  76.9989910 135.9668968
 108.6219992  80.8349978 136.7010014 108.1079992  80.7099978 137.4990014
 108.4659992  81.7479978 136.4570014 108.5306967  80.9412123 136.7770937
 109.3839992  85.6959978 122.4630014 109.4259992  85.4739978 121.5330014
 110.2329992  86.0949978 122.6530014 109.5045253  85.7195498 122.3613822
 104.9569992  79.5719978 123.1330014 104.7029992  79.5909978 124.0560014
 104.6999992  78.7009978 122.8320014 104.8875133  79.4568110 123.2185082
 100.7229992  82.3229978 133.5680014 100.0819992  82.2829978 134.2770014
 100.7609992  83.2499978 133.3310014 100.6403670  82.4427795 133.6330550
 100.7199992  82.5439978 128.4800014  99.8279992  82.2039978 128.4220014
 101.1709992  82.1669978 127.7250014 100.6586815  82.4463762 128.3699203
 106.2559992  82.9599978 127.2970014 105.8469992  83.7749978 127.0060014
 106.9759992  82.8199978 126.6830014 106.2974013  83.0526571 127.1740875
 105.3579992  83.1359978 138.7850014 104.7949992  82.4309978 139.1060014
 106.1839992  83.0149978 139.2530014 105.3926674  83.0232165 138.8921751
 107.2609992  82.4059978 130.1110014 107.0649992  83.0119978 129.3960014
 107.4419992  81.5729978 129.6770014 107.2586584  82.3762513 129.9544212
  98.4729992  82.6439978 135.4350014  98.4349992  83.0439978 136.3040014
  97.9829992  81.8269978 135.5260014  98.4015621  82.5882510 135.5661377
 101.8389992  80.0179978 122.2340014 101.4079992  79.5729978 122.9640014
 101.1209992  80.3889978 121.7220014 101.6829363  80.0072968 122.2646211
  95.0819992  79.7599978 129.2860014  95.7119992  79.7309978 130.0050014
  95.5309992  79.3349978 128.5560014  95.2290692  79.6985316 129.2857771
  96.3559992  80.5059978 124.7100014  96.8299992  81.0969978 124.1250014
  95.6379992  81.0359978 125.0570014  96.3238640  80.6585511 124.6767969
 106.5249992  84.0439978 134.7830014 106.8479992  83.4129978 134.1400014
 106.0839992  83.5099978 135.4430014 106.5095789  83.8853522 134.7842232
 103.3019992  79.9719978 129.5670014 102.3909992  80.0289978 129.8550014
 103.8069992  79.9119978 130.3770014 103.2455387  79.9716870 129.7160646
  98.1299992  81.6009978 128.3930014  97.2409992  81.6999978 128.0530014
  98.4269992  80.7589978 128.0470014  98.0484177  81.5007687 128.2996940
 101.7829992  81.6009978 126.0500014 102.7149992  81.7299978 126.2280014
 101.5679992  82.2699978 125.4000014 101.8814472  81.7090806 125.9864891
 107.7069992  79.2069978 132.8310014 107.0299992  79.3379978 133.4950014
 107.2219992  79.0519978 132.0210014 107.5487265  79.2039659 132.8123397
 100.4569992  82.7949978 123.6170014  99.9149992  82.4159978 122.9250014
 101.2909992  82.9899978 123.1880014 100.4955159  82.7695076 123.4644419
 110.9949992  94.8779978 139.1080014 111.1939992  95.3019978 138.2730014
 111.6499992  95.2219978 139.7150014 111.1108501  94.9826091 139.0757097
  98.5929992  87.3519978 138.7160014  99.3249992  87.6069978 139.2770014
  97.8119992  87.5569978 139.2310014  98.5877684  87.4146468 138.8624782
 104.6219992  82.7589978 131.4540014 105.1859992  82.2129978 130.9070014
 104.4739992  82.2379978 132.2420014 104.6792575  82.6136552 131.4856987
  99.6239992  78.8959978 127.8720014  99.3069992  77.9929978 127.8370014
 100.4049992  78.8979978 127.3190014  99.6862307  78.7726951 127.7924314
 103.2479992  81.1479978 133.8680014 102.4129992  81.6019978 133.9780014
 103.7719992  81.4239978 134.6200014 103.2045070  81.2474666 133.9847152
 103.7929992  87.3609978 125.5520014 103.0479992  86.8529978 125.2300014
 103.6579992  87.4099978 126.4990014 103.6729047  87.2981596 125.6358845
 110.9429992  86.4939978 134.3390014 111.5839992  86.9499978 133.7950014
 110.1119992  86.6069978 133.8770014 110.9185171  86.5717502 134.2020237
 107.6899992  80.1749978 123.7520014 106.7519992  80.2859978 123.6000014
 107.9879992  81.0309978 124.0580014 107.6016402  80.3060621 123.7725571
 105.3119992  87.5449978 136.7890014 104.9659992  87.1629978 137.5960014
 105.1119992  88.4779978 136.8610014 105.2376523  87.6189095 136.9090735
 108.4089992  82.0419978 125.4120014 109.3009992  81.9039978 125.7310014
 108.4649992  82.8329978 124.8760014 108.5387107  82.1300526 125.3832091
  98.9169992  86.6559978 131.3220014  99.6619992  86.6529978 130.7210014
  98.9949992  85.8319978 131.8040014  99.0294158  86.5442916 131.3049153
 105.9179992  88.8189978 124.5780014 105.6229992  89.6459978 124.9590014
 105.2149992  88.1999978 124.7740014 105.7825471  88.8485227 124.6566698
  95.9249992  85.1159978 136.6370014  96.1479992  84.6979978 137.4690014
  95.3229992  84.5039978 136.2140014  95.8741260  84.9759933 136.6937320
 102.9419992  84.6329978 138.8500014 102.6459992  84.4679978 137.9550014
 103.8729992  84.4129978 138.8390014 103.0273982  84.5806578 138.7260045
 107.5619992  90.0069978 136.7400014 106.6619992  90.1899978 136.4720014
 107.5959992  90.2659978 137.6610014 107.4432909  90.0670815 136.8277852
 113.2939992  82.2509978 125.1070014 112.7389992  81.8549978 124.4350014
 113.3939992  83.1619978 124.8290014 113.2315888  82.3198990 124.9775206
 113.2569992  88.0519978 137.9440014 112.4059992  88.2899978 137.5770014
 113.8469992  88.0349978 137.1910014 113.2202408  88.0822966 137.7918879
 111.5889992  91.0369978 125.5720014 111.2159992  90.2119978 125.8810014
 111.8659992  90.8539978 124.6750014 111.5753871  90.8992441 125.4929677
 108.7489992  85.8449978 132.5930014 107.8209992  85.6139978 132.5660014
 109.1999992  85.0679978 132.2630014 108.6828165  85.7082774 132.5446790
 101.2919992  90.1739978 128.7260014 101.8199992  90.9469978 128.5260014
 100.4119992  90.3979978 128.4250014 101.2453176  90.3103161 128.6578409
  97.0469992  85.0359978 123.3140014  97.6629992  85.6629978 123.6930014
  96.1849992  85.3519978 123.5850014  97.0148195  85.1645798 123.4025386
 102.7199992  87.8369978 128.3030014 102.4789992  88.7619978 128.3440014
 101.9789992  87.3779978 128.6990014 102.5868390  87.9016403 128.3621404
 103.2339992  91.9859978 134.6180014 103.5969992  92.8399978 134.3840014
 103.7659992  91.6939978 135.3580014 103.3556090  92.0634058 134.6860219
 101.4029992  92.8579978 127.8480014 100.4529992  92.9639978 127.8990014
 101.7549992  93.6789978 128.1930014 101.3205480  92.9834438 127.9015999
 106.7779992  88.0849978 134.3180014 106.3529992  87.8569978 135.1450014
 107.3589992  87.3459978 134.1360014 106.7983930  87.9539843 134.4064732
 108.9809992  89.0139978 123.3920014 109.3349992  88.6339978 124.1970014
 108.0329992  88.9199978 123.4790014 108.9011820  88.9493092 123.5138714
 109.4369992  92.6369978 136.7880014 108.8349992  92.0809978 136.2920014
 109.7179992  93.3039978 136.1620014 109.3926829  92.6511613 136.6355443
 113.4849992  93.4929978 123.5930014 114.2289992  94.0789978 123.4530014
 112.7909992  94.0619978 123.9270014 113.4930201  93.6500603 123.6189772
  97.5589992  79.8699978 136.1950014  96.6669992  80.2079978 136.1280014
  97.4609992  79.0139978 136.6130014  97.4234965  79.8006499 136.2423044
 109.8469992  87.6859978 125.6190014 109.5699992  86.9579978 126.1750014
 110.7749992  87.8049978 125.8240014 109.9344499  87.6024213 125.7228044
  97.2109992  91.6739978 134.6300014  97.4279992  90.7419978 134.5990014
  97.4569992  91.9489978 135.5130014  97.2739809  91.5835686 134.7451691
 103.0719992  90.1259978 121.8390014 103.3109992  89.3769978 121.2920014
 102.8029992  89.7379978 122.6720014 103.0683233  89.9711853 121.8767809
 102.0089992  89.6959978 124.2960014 102.1559992  89.1759978 125.0860014
 102.0059992  90.6029978 124.6020014 102.0287300  89.7473964 124.4455895
  98.4619992  86.9479978 124.8060014  97.7759992  87.3009978 125.3730014
  98.9849992  87.7109978 124.5600014  98.4389033  87.0993746 124.8502661
 106.2939992  79.6109978 135.0850014 106.9929992  79.6849978 135.7350014
 105.9129992  78.7459978 135.2390014 106.3382097  79.5042389 135.1947997
 107.0779992  79.2629978 126.1820014 107.2979992  79.7339978 125.3790014
 107.6369992  79.6569978 126.8520014 107.1836730  79.3807432 126.1625906
 104.7469992  91.3929978 125.0450014 103.9299992  91.8899978 125.0970014
 105.2759992  91.8689978 124.4050014 104.7068508  91.5252543 124.9656035
 104.2779992  80.9909978 127.0170014 105.0899992  81.4949978 127.0630014
 104.0339992  80.8459978 127.9310014 104.3561467  81.0403749 127.1468575
 104.8139992  81.9769978 136.2020014 104.9329992  82.5509978 136.9590014
 105.4689992  81.2889978 136.3160014 104.9189146  81.9625574 136.3211314
 105.1619992  78.0719978 127.9550014 104.8149992  78.6889978 128.6000014
 105.8209992  78.5729978 127.4740014 105.2035949  78.2241099 127.9782271
 102.0849992  92.4369978 125.0270014 102.2459992  93.2369978 124.5260014
 101.8879992  92.7439978 125.9120014 102.0803919  92.5879129 125.0781006
 100.8199992  79.1349978 124.6420014 100.7359992  80.0229978 124.9890014
 101.7099992  78.8699978 124.8740014 100.9288163  79.2207179 124.7208596
 111.0179992  79.8839978 137.0370014 110.1019992  80.1459978 136.9490014
 111.3539992  79.8809978 136.1400014 110.9379789  79.9194626 136.9037847
 109.6209992  83.6339978 131.1320014 108.8229992  83.2189978 130.8040014
 110.0659992  82.9439978 131.6230014 109.5719684  83.4838628 131.1535227
  99.0779992  89.5619978 123.7030014  99.6699992  90.2619978 123.9790014
  99.5369992  89.1289978 122.9830014  99.2210791  89.5992908 123.6434607
  97.3939992  82.2269978 122.8190014  97.3489992  83.1659978 122.9970014
  96.5059992  81.9909978 122.5490014  97.2678555  82.3236874 122.8068939
 110.7069992  92.8899978 132.7550014 110.5509992  93.5689978 132.0980014
 111.6399992  92.9619978 132.9580014 110.8117387  92.9926390 132.6925342
  98.2019992  77.0079978 131.4920014  97.9729992  77.0669978 130.5640014
  97.7599992  76.2169978 131.7980014  98.1108801  76.9090540 131.4064729
  97.1329992  90.9489978 127.6520014  96.2999992  91.4209978 127.6800014
  97.6779992  91.4589978 127.0540014  97.0927590  91.0825897 127.5749194
  96.4209992  93.5609978 138.9820014  96.9609992  93.3449978 139.7420014
  95.9399992  92.7559978 138.7930014  96.4298613  93.4225400 139.0604782
 101.0179992  92.4809978 140.6030014 101.7859992  92.0219978 140.9440014
 100.9969992  92.2549978 139.6730014 101.1202135  92.3876668 140.5239491
 105.1099992  91.9889978 121.9780014 104.4659992  91.3579978 122.2990014
 105.8719992  91.4579978 121.7460014 105.1248058  91.8307902 121.9906038
 107.5949992  90.8609978 139.3320014 107.2439992  90.0039978 139.5750014
 108.3209992  91.0029978 139.9390014 107.6451590  90.7630178 139.4472907
 109.7149992  91.8059978 122.2120014 109.9979992  91.0109978 122.6640014
 110.4539992  92.0389978 121.6510014 109.8536956  91.7287031 122.1979821
  96.3279992  87.3719978 139.9370014  96.4719992  86.4699978 139.6500014
  95.5559992  87.6579978 139.4490014  96.2433303  87.2873243 139.8317908
 100.6689992  87.7149978 122.0690014 100.7339992  86.9209978 122.6000014
 101.3219992  87.5969978 121.3790014 100.7661754  87.5903337 122.0484259
 102.9829992  87.3409978 139.3690014 102.6549992  87.6119978 138.5120014
 103.1349992  86.3999978 139.2820014 102.9586030  87.2508973 139.2397945
 106.0219992  88.7619978 121.8050014 105.7529992  88.9429978 122.7060014
 105.8149992  87.8369978 121.6740014 105.9572000  88.6616774 121.9105693
 108.7179992  87.2569978 136.7530014 109.4629992  87.8459978 136.6330014
 107.9609992  87.8389978 136.8160014 108.7175205  87.4161997 136.7451119
  97.1609992  84.5719978 139.3570014  97.5689992  83.7149978 139.2360014
  96.8999992  84.5859978 140.2780014  97.1816016  84.4565119 139.4649192
 101.8189992  85.6879978 124.3750014 101.3589992  85.2039978 125.0610014
 102.0739992  85.0189978 123.7390014 101.7905038  85.5313689 124.3829447
 101.1079992  83.5809978 136.7310014 100.4889992  84.2549978 137.0110014
 101.4519992  83.9019978 135.8980014 101.0697605  83.7167198 136.6566707
 102.8899992  83.9309978 122.6370014 102.7089992  83.7759978 121.7100014
 103.8399992  84.0389978 122.6820014 102.9936566  83.9243669 122.5160929
 106.1269992  86.0519978 140.0080014 107.0809992  86.1359978 139.9810014
 105.9669992  85.3399978 140.6280014 106.2357182  85.9672842 140.0880733
 112.2799992  86.2849978 122.0830014 112.0059992  85.8609978 121.2700014
 112.3189992  87.2169978 121.8660014 112.2477716  86.3528827 121.9424286
 101.4469992  80.9359978 137.8130014 101.5969992  80.2069978 137.2110014
 101.4489992  81.7129978 137.2540014 101.4677967  80.9412708 137.6550541
 101.8599992  79.3049978 135.3060014 102.3949992  79.7569978 134.6540014
 101.0069992  79.1969978 134.8830014 101.8180374  79.3522665 135.1596710
 103.4409992  84.7449978 135.5450014 104.1919992  84.5889978 134.9720014
 103.1019992  85.5969978 135.2700014 103.4979587  84.8388138 135.4294078
 107.8569992  82.5599978 140.5740014 108.0489992  81.6289978 140.4620014
 108.7149992  82.9849978 140.5640014 107.9992269  82.4899928 140.5573192
 109.1739992  85.3489978 138.6510014 108.8919992  86.0579978 138.0740014
 110.1159992  85.2759978 138.5000014 109.2627656  85.4363128 138.5514809
  99.9259992  82.1339978 139.7250014  99.1579992  81.6009978 139.5150014
 100.6039992  81.8239978 139.1250014  99.9126973  82.0192375 139.6151796
 102.6649992  76.7619978 135.7370014 102.5669992  77.7079978 135.6320014
 101.9229992  76.3889978 135.2620014 102.5511913  76.8411813 135.6583539
 103.9289992  81.0829978 139.3010014 103.6939992  80.8639978 140.2030014
 103.1459992  80.8759978 138.7910014 103.7909219  81.0250066 139.3555852
 106.6449992  80.2109978 138.3770014 105.6969992  80.2429978 138.5090014
 106.9569992  79.5849978 139.0300014 106.5575190  80.1307262 138.4833564
 108.2789992  78.8449978 140.3820014 108.1819992  77.8929978 140.3760014
 107.9569992  79.1129978 141.2420014 108.2221761  78.7509744 140.4974936
  98.1059992  80.0539978 139.4290014  98.3179992  79.3479978 138.8190014
  97.9949992  79.6169978 140.2730014  98.1200269  79.8981921 139.4595873
 102.8869992  76.0559978 138.4090014 103.5989992  75.4159978 138.3950014
 102.7859992  76.3219978 137.4950014 102.9707261  76.0044190 138.2835537
 103.2409992  77.7379978 140.4620014 103.1089992  77.2629978 139.6420014
 102.6409992  78.4829978 140.4070014 103.1419070  77.7735789 140.3423251
 102.7869992  94.6209978 123.6390014 103.7199992  94.7789978 123.7820014
 102.5229992  95.2969978 123.0140014 102.8789308  94.7339104 123.5741396
  96.3549992  89.2579978 123.1210014  97.2689992  89.3369978 123.3950014
  96.3629992  88.5709978 122.4550014  96.4811143  89.1759085 123.0684274
  95.0039992  94.6509978 128.1990014  94.3569992  94.1889978 127.6660014
  95.3589992  93.9789978 128.7810014  94.9634506  94.4969503 128.2047341
  95.8739992  92.7309978 130.0030014  95.5399992  91.8509978 130.1750014
  96.0969992  93.0769978 130.8680014  95.8583721  92.6571938 130.1434168
 113.4229992  93.5409978 132.9840014 113.4009992  93.7259978 133.9230014
 114.1129992  94.1089978 132.6430014 113.5133439  93.6431887 133.0664791
 112.9859992  93.1079978 135.9060014 112.4989992  92.3729978 135.5350014
 113.5349992  92.7139978 136.5840014 112.9935247  92.9541057 135.9468461
 111.4369992  88.8979978 140.5440014 110.5709992  88.7929978 140.9380014
 111.8129992  89.6559978 140.9900014 111.3693401  88.9861708 140.6582620
 112.7379992  87.1539978 126.0580014 113.5879992  87.5749978 126.1850014
 112.7429992  86.4139978 126.6650014 112.8551143  87.1116094 126.1574750
 113.1319992  85.2079978 127.8820014 112.4059992  84.7279978 128.2790014
 113.7139992  85.4129978 128.6140014 113.1111635  85.1699166 128.0353748
 112.8909992  87.9929978 132.8290014 113.7249992  87.6149978 132.5490014
 113.0029992  88.9359978 132.7100014 113.0202522  88.0687742 132.7746020
 111.3779992  90.8709978 135.1360014 110.7299992  91.1959978 135.7620014
 110.8599992  90.4299978 134.4620014 111.2194168  90.8558523 135.1305307
 113.4009992  85.1089978 124.2730014 112.8789992  85.4649978 123.5540014
 113.3679992  85.7839978 124.9510014 113.3250699  85.2489848 124.2662129
 111.7499992  82.3479978 122.8240014 111.8459992  83.0149978 122.1440014
 111.6099992  81.5329978 122.3420014 111.7442063  82.3290667 122.6658377
 110.9189992  83.7289978 128.4450014 110.7689992  82.7839978 128.4240014
 110.5649992  84.0099978 129.2880014 110.8505527  83.6375605 128.5561859
  95.9539992  85.8069978 132.4550014  96.1389992  85.7249978 131.5190014
  96.8039992  85.6829978 132.8790014  96.0940916  85.7790393 132.3842896
 111.7749992  85.6989978 138.0830014 112.3579992  84.9639978 138.2750014
 112.3389992  86.4709978 138.1300014 111.9309781  85.7028145 138.1156164
 113.2719992  83.6019978 138.7680014 112.4089992  83.2229978 138.6020014
 113.8759992  82.8629978 138.6940014 113.2355944  83.4502978 138.7352984
 110.9969992  79.7559978 121.9410014 111.6079992  79.3849978 122.5780014
 110.1599992  79.3349978 122.1370014 110.9674947  79.6482756 122.0547252
 110.6299992  81.3109978 126.9070014 110.9089992  80.4039978 127.0310014
 111.3889992  81.7449978 126.5180014 110.7708619  81.2454502 126.8713795
 111.2409992  81.8929978 132.3430014 112.1739992  82.1049978 132.3090014
 111.0059992  81.9939978 133.2650014 111.3368308  81.9356503 132.4630214
 111.2709992  82.6299978 135.1190014 110.4279992  82.8979978 135.4850014
 111.7129992  83.4519978 134.9080014 111.2154138  82.7778273 135.1405518
  95.5519992  81.0769978 138.5960014  96.4709992  80.9549978 138.8320014
  95.1019992  80.3269978 138.9850014  95.6171148  80.9588751 138.6809408
 113.5539992  76.6099978 140.4720014 113.9029992  75.9559978 139.8670014
 113.7009992  77.4469978 140.0330014 113.6217355  76.6336067 140.3296564
 111.2429992  78.5739978 126.9550014 111.4249992  78.1249978 127.7810014
 110.6429992  77.9899978 126.4920014 111.1867529  78.4336131 127.0053619
  96.7729992  79.3899978 131.4870014  97.2179992  78.5979978 131.7890014
  97.2389992  80.1059978 131.9180014  96.8969059  79.3784474 131.5866079
  95.0769992  82.3889978 132.5560014  95.5689992  82.1679978 131.7650014
  95.4389992  83.2289978 132.8370014  95.1932923  82.4723468 132.4857407
 113.0729992  78.7189978 138.8220014 112.1559992  78.9899978 138.7860014
 113.1959992  78.1839978 138.0380014 112.9640828  78.6837700 138.7110785
 113.1099992  78.6419978 123.4830014 113.5219992  77.9209978 123.0080014
 113.7909992  79.3109978 123.5420014 113.2585900  78.6337306 123.4259038
  95.3909992  78.6469978 126.6100014  94.4659992  78.8549978 126.4810014
  95.8449992  79.1309978 125.9210014  95.3256374  78.7409949 126.4990957
 110.1609992  93.6309978 128.5560014 110.8139992  93.2829978 127.9480014
 110.6719992  94.1189978 129.2020014 110.3192777  93.6493815 128.5602047
  95.3539992  77.3849978 134.9550014  94.6889992  77.1389978 135.5980014
  94.9109992  78.0069978 134.3770014  95.2030937  77.4353614 134.9649379
  97.5459992  90.5599978 139.0990014  96.7249992  90.7349978 138.6390014
  97.2939992  90.4869978 140.0200014  97.3996173  90.5740794 139.1604972
 100.4999992  91.5339978 135.3580014 100.0759992  92.3439978 135.0750014
 101.4049992  91.6199978 135.0560014 100.5642433  91.6563331 135.2785377
 104.8119992  92.9329978 138.3170014 104.9959992  92.5999978 139.1950014
 105.6579992  93.2429978 137.9950014 104.9516484  92.9292979 138.3937617
 107.1569992  94.2189978 137.5610014 107.8339992  93.5859978 137.3210014
 107.4779992  94.6199978 138.3680014 107.2931323  94.1865691 137.6373158
 112.0739992  76.8089978 136.6410014 111.2609992  77.1339978 136.2530014
 112.3069992  76.0479978 136.1080014 111.9942566  76.7506559 136.5159213
  97.9019992  94.7909978 135.4050014  97.1819992  95.2309978 134.9540014
  97.5369992  94.5399978 136.2540014  97.7539796  94.8173824 135.4579329
 100.3689992  94.3909978 134.4350014  99.5049992  94.4629978 134.8390014
 100.3139992  94.9379978 133.6510014 100.2431942  94.4747849 134.3844000
 105.0799992  94.2789978 133.6100014 104.6229992  94.8079978 132.9560014
 105.2429992  94.8819978 134.3360014 105.0394476  94.4329140 133.6185499
 107.4079992  93.1569978 134.5550014 106.5029992  93.3219978 134.2900014
 107.8359992  94.0099978 134.4900014 107.3420700  93.2949529 134.5099520
 110.0119992  94.7269978 134.8500014 109.8299992  95.6429978 134.6400014
 110.1889992  94.3159978 134.0040014 110.0109907  94.7969741 134.7067883
  97.3169992  93.4139978 132.3150014  97.2989992  92.9879978 133.1730014
  98.1219992  93.0949978 131.9070014  97.4233221  93.3127233 132.3770225
  99.4579992  92.1239978 130.9700014  99.2389992  91.2069978 131.1400014
 100.2819992  92.2639978 131.4360014  99.5394702  92.0175511 131.0562527
 101.9949992  92.5939978 131.8190014 102.2079992  91.7059978 131.5320014
 102.0599992  92.5589978 132.7740014 102.0329075  92.4678307 131.9087373
 105.5039992  78.2579978 130.9630014 104.8299992  77.6279978 131.2190014
 106.0679992  77.7739978 130.3600014 105.4880384  78.1063708 130.9165020
 110.6469992  76.3649978 131.0760014 111.2499992  76.9129978 130.5740014
 109.7769992  76.6839978 130.8360014 110.6119190  76.4831041 130.9748679
 112.3739992  77.5039978 129.4090014 112.9849992  76.9899978 128.8830014
 112.7559992  78.3809978 129.4330014 112.5094475  77.5521323 129.3401208
  97.8309992  76.8919978 128.7850014  97.0539992  76.6569978 128.2780014
  98.3609992  76.0949978 128.7940014  97.7963451  76.7521268 128.7168627
  96.6669992  76.6899978 124.5890014  97.1059992  77.3009978 123.9970014
  96.0329992  77.2279978 125.0630014  96.6413859  76.8464064 124.5720305
 102.4099992  76.8179978 128.5990014 103.2839992  77.2069978 128.5690014
 102.2739992  76.6029978 129.5210014 102.5113207  76.8421923 128.7196509
 107.9669992  76.8479978 130.2480014 108.0429992  76.9439978 129.2990014
 107.6919992  75.9409978 130.3770014 107.9402042  76.7384241 130.1353811
 109.3199992  76.8739978 125.9400014 108.6169992  77.4889978 125.7310014
 108.8749992  76.0369978 126.0720014 109.1636292  76.8450085 125.9292439
  96.5679992  92.6379978 125.4870014  95.8829992  92.5999978 124.8190014
  96.5719992  93.5509978 125.7750014  96.4748174  92.7561998 125.4345310
  98.5279992  78.6059978 123.0310014  99.0189992  77.9759978 122.5040014
  99.1509992  78.9019978 123.6950014  98.6795062  78.5596770 123.0485438
 103.5539992  78.8989978 125.4890014 103.7319992  78.2519978 126.1710014
 103.4999992  79.7329978 125.9560014 103.5711025  78.9230504 125.6456433
 105.4319992  93.8469978 123.8840014 106.2979992  94.2139978 123.7060014
 105.1859992  93.4079978 123.0700014 105.5172097  93.8378525 123.7496019
 112.1409992  93.4099978 126.5630014 111.9469992  92.6619978 125.9980014
 112.1019992  94.1679978 125.9800014 112.1091645  93.4100786 126.4068148
  97.7879992  77.4059978 138.3030014  97.4219992  76.6399978 138.7460014
  98.7009992  77.4349978 138.5900014  97.8613225  77.3051906 138.4023459
  99.7609992  76.7559978 139.8390014 100.6599992  76.4819978 139.6540014
  99.3749992  76.0139978 140.3030014  99.8317237  76.6181508 139.8764710
  98.3859992  93.5579978 122.5120014  98.1179992  93.8439978 123.3850014
  99.1569992  93.0119978 122.6640014  98.4535600  93.5233330 122.6521499
 108.1829992  76.0889978 140.0210014 108.2589992  75.6629978 140.8750014
 109.0759992  76.1019978 139.6780014 108.3142267  76.0323952 140.0915932
 111.3589992  92.1619978 138.7130014 110.5769992  91.9749978 138.1940014
 111.2869992  93.0909978 138.9310014 111.2420863  92.2620221 138.6713574
 125.7649992  86.0479978 128.7440014 125.8539992  86.9919978 128.6120014
 125.1269992  85.7729978 128.0860014 125.6909062  86.1399812 128.6369641
 124.6979992  85.3029978 132.1630014 124.6599992  84.6569978 132.8680014
 124.3759992  84.8359978 131.3920014 124.6492679  85.1514276 132.1552921
 117.0659992  84.9169978 133.7560014 117.1079992  84.2919978 134.4790014
 117.7689992  85.5409978 133.9380014 117.1667345  84.9157873 133.8795273
 128.4039992  88.2419978 130.4650014 127.9629992  87.5219978 130.9150014
 128.3909992  88.9629978 131.0940014 128.3417960  88.2408329 130.6117567
 117.9899992  89.3669978 132.2910014 117.6199992  88.5649978 131.9210014
 118.9309992  89.1989978 132.3370014 118.0665984  89.2344638 132.2465603
 114.5999992  83.0269978 127.6840014 114.1519992  83.8729978 127.6650014
 114.0389992  82.4479978 127.1680014 114.4629603  83.0643674 127.6116720
 115.3099992  85.1889978 129.8100014 115.5239992  84.4189978 130.3370014
 116.0479992  85.2789978 129.2060014 115.4389652  85.0958012 129.8005212
 125.5159992  93.3459978 130.6770014 126.1349992  92.6699978 130.4030014
 125.3069992  93.1279978 131.5850014 125.5726232  93.2237938 130.7622517
 123.0869992  87.7349978 132.5690014 123.3909992  87.0489978 131.9750014
 123.8089992  87.8539978 133.1870014 123.2261152  87.6572189 132.5712123
 131.7499992  79.3369978 133.4300014 131.7999992  79.9469978 134.1660014
 132.1759992  79.7979978 132.7070014 131.8144108  79.4827709 133.4330112
 126.2279992  82.1289978 132.8970014 126.3709992  81.1829978 132.9170014
 126.1219992  82.3359978 131.9680014 126.2332509  82.0274813 132.7742231
 119.3829992  80.2309978 130.1690014 119.4259992  81.0909978 129.7510014
 118.9249992  79.6789978 129.5350014 119.3269815  80.2740621 130.0261197
 127.1049992  80.3619978 128.5700014 127.7519992  80.0329978 129.1950014
 127.6149992  80.8789978 127.9470014 127.2624317  80.3869227 128.5712167
 116.0029992  82.6279978 130.9310014 116.6569992  82.0779978 131.3630014
 116.0269992  82.3539978 130.0140014 116.0957199  82.5157167 130.8661668
 121.1599992  84.1779978 130.1460014 121.7759992  83.6509978 130.6560014
 120.5729992  83.5379978 129.7430014 121.1649239  84.0194117 130.1612952
 132.1419992  80.8149978 135.6660014 131.4529992  81.4729978 135.5700014
 132.1569992  80.6169978 136.6020014 132.0496740  80.8783243 135.7794630
 118.1929992  79.1489978 134.2430014 117.9739992  79.6789978 133.4770014
 117.5249992  79.3749978 134.8900014 118.0727001  79.2521154 134.2256064
 125.5619992  88.6489978 127.7870014 125.2669992  88.3259978 126.9360014
 125.2379992  89.5489978 127.8280014 125.4777983  88.7264027 127.6759771
 120.7619992  86.8239978 134.5310014 120.0219992  87.4229978 134.6340014
 121.4759992  87.3779978 134.2150014 120.7573288  86.9807356 134.5023805
 128.8689992  79.6529978 130.5500014 128.6539992  78.8869978 131.0830014
 129.5249992  80.1249978 131.0630014 128.9282673  79.6120728 130.6921990
 117.7869992  81.0409978 132.1950014 118.4009992  81.6739978 132.5690014
 118.2989992  80.5689978 131.5390014 117.9402277  81.0637352 132.1574279
 119.1699992  88.7889978 135.3180014 119.1639992  89.6679978 134.9400014
 118.3159992  88.7049978 135.7430014 119.0537925  88.8979535 135.3236887
 115.2909992  88.4599978 126.1000014 115.0189992  88.6889978 125.2110014
 115.3359992  89.2969978 126.5600014 115.2598709  88.6046058 126.0406107
 128.9159992  90.0809978 132.8120014 127.9739992  90.1399978 132.9740014
 129.1919992  90.9869978 132.6750014 128.8245865  90.2115288 132.8156192
 129.2159992  78.3679978 134.2300014 128.4799992  78.9779978 134.1920014
 129.8999992  78.7829978 133.7030014 129.2075506  78.5076400 134.1536051
 122.2199992  76.4539978 131.6960014 122.1019992  75.5059978 131.6410014
 121.3649992  76.7869978 131.9690014 122.0882679  76.3691926 131.7253720
 127.1679992  91.8619978 129.4380014 127.5929992  91.1549978 128.9530014
 127.4849992  92.6639978 129.0210014 127.2690266  91.8735190 129.3152479
 128.3279992  89.7629978 127.9460014 128.0699992  89.0729978 127.3350014
 128.3989992  89.3199978 128.7920014 128.3022837  89.6087106 127.9766912
 130.0139992  88.3299978 136.4240014 130.1529992  87.7379978 135.6840014
 130.1809992  89.2029978 136.0670014 130.0555562  88.3669896 136.2746283
 124.4859992  85.2919978 126.1960014 123.7749992  85.8269978 125.8440014
 125.1769992  85.3469978 125.5360014 124.4820751  85.3726777 126.0585858
 124.5399992  83.7489978 123.2350014 125.2409992  83.7719978 123.8860014
 124.8419992  83.1209978 122.5790014 124.6768282  83.6672339 123.2354496
 131.8549992  84.6699978 134.4900014 131.2029992  85.3639978 134.5790014
 132.3209992  84.8799978 133.6800014 131.8285937  84.7935019 134.3927533
 127.8919992  85.5009978 127.1480014 127.1599992  85.7299978 127.7210014
 128.3389992  84.7879978 127.6030014 127.8522753  85.4358972 127.2879715
 127.7889992  83.6759978 136.2160014 127.8689992  84.4389978 136.7870014
 127.1879992  83.9549978 135.5250014 127.7187245  83.8182630 136.2008424
 119.5369992  86.1319978 129.0300014 119.2069992  85.7609978 128.2120014
 120.1259992  85.4609978 129.3770014 119.5713970  85.9906063 128.9649404
 120.9039992  89.5599978 131.7120014 120.8089992  88.9809978 130.9550014
 121.6329992  89.1889978 132.2080014 120.9896161  89.4305891 131.6755209
 119.9039992  84.8999978 132.6640014 120.4689992  85.0219978 131.9010014
 120.2229992  85.5379978 133.3030014 120.0243977  85.0028851 132.6459424
 126.2129992  90.4039978 133.3980014 125.9729992  91.0659978 134.0460014
 126.0149992  89.5689978 133.8230014 126.1533826  90.3818115 133.5441566
 120.7839992  89.2999978 137.3810014 120.4729992  90.0819978 137.8360014
 120.1339992  89.1469978 136.6950014 120.6535538  89.3864087 137.3505898
 126.7629992  84.6639978 124.8330014 127.3419992  84.8139978 125.5800014
 127.1769992  85.1339978 124.1100014 126.8983122  84.7481277 124.8375042
 117.7039992  85.4979978 136.6100014 117.7739992  86.1489978 137.3080014
 116.8129992  85.6009978 136.2750014 117.5931802  85.6009757 136.6602249
 124.4889992  91.3999978 128.2680014 124.9629992  91.6959978 129.0460014
 123.9259992  92.1389978 128.0350014 124.4777361  91.5402721 128.3428611
 119.0229992  91.3709978 138.1440014 119.0309992  91.2349978 137.1970014
 118.1069992  91.2539978 138.3960014 118.9002528  91.3365463 138.0483243
 130.4619992  76.4139978 124.6460014 129.5619992  76.5529978 124.9410014
 130.7139992  77.2449978 124.2440014 130.3728683  76.5454055 124.6320232
 118.5279992  85.2009978 126.6200014 118.2359992  85.9689978 126.1290014
 117.8529992  84.5419978 126.4570014 118.3968497  85.2169745 126.5308260
 131.6509992  90.7799978 123.0220014 131.7239992  91.7189978 123.1930014
 132.5559992  90.4749978 122.9660014 131.7834158  90.8673061 123.0378392
 114.6209992  87.5639978 135.4350014 114.1189992  87.5359978 134.6200014
 114.6259992  86.6589978 135.7440014 114.5530416  87.4377368 135.3653766
 114.3709992  90.3449978 132.3190014 115.3169992  90.1999978 132.3000014
 114.2579992  91.1289978 132.8560014 114.4853578  90.4311697 132.3890317
 132.5689992  91.0109978 138.0010014 132.5189992  90.0549978 137.9640014
 131.7419992  91.2779978 138.4020014 132.4503987  90.9165174 138.0501446
 123.5469992  90.5849978 136.8770014 123.6349992  91.4109978 137.3520014
 122.6839992  90.2549978 137.1260014 123.4423357  90.6535468 136.9757653
 123.9619992  94.3569978 126.6830014 123.8859992  94.2359978 125.7370014
 123.9939992  95.3059978 126.8020014 123.9559156  94.4687530 126.5695048
 117.6149992  93.1459978 128.4640014 117.7669992  92.7979978 129.3430014
 116.7639992  92.7889978 128.2090014 117.5207899  93.0501738 128.5497340
 127.0629992  93.5109978 123.6850014 127.4379992  92.7669978 123.2150014
 127.0679992  93.2409978 124.6040014 127.1150024  93.3726950 123.7447987
 126.7319992  93.4369978 126.4350014 125.7969992  93.5369978 126.6130014
 127.0119992  92.7269978 127.0130014 126.6418173  93.3547239 126.5374998
 129.7209992  82.5039978 138.4810014 129.3129992  82.9839978 137.7610014
 129.7609992  81.5979978 138.1730014 129.6705476  82.4473160 138.3408247
 116.8699992  88.8879978 136.4780014 117.0859992  88.5259978 137.3370014
 116.0139992  88.5129978 136.2680014 116.7839354  88.7877906 136.5672160
 119.4879992  77.3579978 132.4730014 118.6269992  77.2709978 132.0660014
 119.4659992  78.2139978 132.9010014 119.3670411  77.4617884 132.4750857
 124.1509992  77.0799978 135.8480014 124.5709992  76.6649978 136.6010014
 123.2179992  76.9009978 135.9650014 124.0823736  76.9989910 135.9668968
 127.4779992  80.8349978 136.7010014 126.9639992  80.7099978 137.4990014
 127.3219992  81.7479978 136.4570014 127.3866967  80.9412123 136.7770937
 128.2399992  85.6959978 122.4630014 128.2819992  85.4739978 121.5330014
 129.0889992  86.0949978 122.6530014 128.3605253  85.7195498 122.3613822
 123.8129992  79.5719978 123.1330014 123.5589992  79.5909978 124.0560014
 123.5559992  78.7009978 122.8320014 123.7435133  79.4568110 123.2185082
 119.5789992  82.3229978 133.5680014 118.9379992  82.2829978 134.2770014
 119.6169992  83.2499978 133.3310014 119.4963670  82.4427795 133.6330550
 119.5759992  82.5439978 128.4800014 118.6839992  82.2039978 128.4220014
 120.0269992  82.1669978 127.7250014 119.5146815  82.4463762 128.3699203
 125.1119992  82.9599978 127.2970014 124.7029992  83.7749978 127.0060014
 125.8319992  82.8199978 126.6830014 125.1534013  83.0526571 127.1740875
 124.2139992  83.1359978 138.7850014 123.6509992  82.4309978 139.1060014
 125.0399992  83.0149978 139.2530014 124.2486674  83.0232165 138.8921751
 126.1169992  82.4059978 130.1110014 125.9209992  83.0119978 129.3960014
 126.2979992  81.5729978 129.6770014 126.1146584  82.3762513 129.9544212
 117.3289992  82.6439978 135.4350014 117.2909992  83.0439978 136.3040014
 116.8389992  81.8269978 135.5260014 117.2575621  82.5882510 135.5661377
 120.6949992  80.0179978 122.2340014 120.2639992  79.5729978 122.9640014
 119.9769992  80.3889978 121.7220014 120.5389363  80.0072968 122.2646211
 113.9379992  79.7599978 129.2860014 114.5679992  79.7309978 130.0050014
 114.3869992  79.3349978 128.5560014 114.0850692  79.6985316 129.2857771
 115.2119992  80.5059978 124.7100014 115.6859992  81.0969978 124.1250014
 114.4939992  81.0359978 125.0570014 115.1798640  80.6585511 124.6767969
 125.3809992  84.0439978 134.7830014 125.7039992  83.4129978 134.1400014
 124.9399992  83.5099978 135.4430014 125.3655789  83.8853522 134.7842232
 122.1579992  79.9719978 129.5670014 121.2469992  80.0289978 129.8550014
 122.6629992  79.9119978 130.3770014 122.1015387  79.9716870 129.7160646
 116.9859992  81.6009978 128.3930014 116.0969992  81.6999978 128.0530014
 117.2829992  80.7589978 128.0470014 116.9044177  81.5007687 128.2996940
 120.6389992  81.6009978 126.0500014 121.5709992  81.7299978 126.2280014
 120.4239992  82.2699978 125.4000014 120.7374472  81.7090806 125.9864891
 126.5629992  79.2069978 132.8310014 125.8859992  79.3379978 133.4950014
 126.0779992  79.0519978 132.0210014 126.4047265  79.2039659 132.8123397
 119.3129992  82.7949978 123.6170014 118.7709992  82.4159978 122.9250014
 120.1469992  82.9899978 123.1880014 119.3515159  82.7695076 123.4644419
 129.8509992  94.8779978 139.1080014 130.0499992  95.3019978 138.2730014
 130.5059992  95.2219978 139.7150014 129.9668501  94.9826091 139.0757097
 117.4489992  87.3519978 138.7160014 118.1809992  87.6069978 139.2770014
 116.6679992  87.5569978 139.2310014 117.4437684  87.4146468 138.8624782
 123.4779992  82.7589978 131.4540014 124.0419992  82.2129978 130.9070014
 123.3299992  82.2379978 132.2420014 123.5352575  82.6136552 131.4856987
 118.4799992  78.8959978 127.8720014 118.1629992  77.9929978 127.8370014
 119.2609992  78.8979978 127.3190014 118.5422307  78.7726951 127.7924314
 122.1039992  81.1479978 133.8680014 121.2689992  81.6019978 133.9780014
 122.6279992  81.4239978 134.6200014 122.0605070  81.2474666 133.9847152
 122.6489992  87.3609978 125.5520014 121.9039992  86.8529978 125.2300014
 122.5139992  87.4099978 126.4990014 122.5289047  87.2981596 125.6358845
 129.7989992  86.4939978 134.3390014 130.4399992  86.9499978 133.7950014
 128.9679992  86.6069978 133.8770014 129.7745171  86.5717502 134.2020237
 126.5459992  80.1749978 123.7520014 125.6079992  80.2859978 123.6000014
 126.8439992  81.0309978 124.0580014 126.4576402  80.3060621 123.7725571
 124.1679992  87.5449978 136.7890014 123.8219992  87.1629978 137.5960014
 123.9679992  88.4779978 136.8610014 124.0936523  87.6189095 136.9090735
 127.2649992  82.0419978 125.4120014 128.1569992  81.9039978 125.7310014
 127.3209992  82.8329978 124.8760014 127.3947107  82.1300526 125.3832091
 117.7729992  86.6559978 131.3220014 118.5179992  86.6529978 130.7210014
 117.8509992  85.8319978 131.8040014 117.8854158  86.5442916 131.3049153
 124.7739992  88.8189978 124.5780014 124.4789992  89.6459978 124.9590014
 124.0709992  88.1999978 124.7740014 124.6385471  88.8485227 124.6566698
 114.7809992  85.1159978 136.6370014 115.0039992  84.6979978 137.4690014
 114.1789992  84.5039978 136.2140014 114.7301260  84.9759933 136.6937320
 121.7979992  84.6329978 138.8500014 121.5019992  84.4679978 137.9550014
 122.7289992  84.4129978 138.8390014 121.8833982  84.5806578 138.7260045
 126.4179992  90.0069978 136.7400014 125.5179992  90.1899978 136.4720014
 126.4519992  90.2659978 137.6610014 126.2992909  90.0670815 136.8277852
 132.1499992  82.2509978 125.1070014 131.5949992  81.8549978 124.4350014
 132.2499992  83.1619978 124.8290014 132.0875888  82.3198990 124.9775206
 132.1129992  88.0519978 137.9440014 131.2619992  88.2899978 137.5770014
 132.7029992  88.0349978 137.1910014 132.0762408  88.0822966 137.7918879
 130.4449992  91.0369978 125.5720014 130.0719992  90.2119978 125.8810014
 130.7219992  90.8539978 124.6750014 130.4313871  90.8992441 125.4929677
 127.6049992  85.8449978 132.5930014 126.6769992  85.6139978 132.5660014
 128.0559992  85.0679978 132.2630014 127.5388165  85.7082774 132.5446790
 120.1479992  90.1739978 128.7260014 120.6759992  90.9469978 128.5260014
 119.2679992  90.3979978 128.4250014 120.1013176  90.3103161 128.6578409
 115.9029992  85.0359978 123.3140014 116.5189992  85.6629978 123.6930014
 115.0409992  85.3519978 123.5850014 115.8708195  85.1645798 123.4025386
 121.5759992  87.8369978 128.3030014 121.3349992  88.7619978 128.3440014
 120.8349992  87.3779978 128.6990014 121.4428390  87.9016403 128.3621404
 122.0899992  91.9859978 134.6180014 122.4529992  92.8399978 134.3840014
 122.6219992  91.6939978 135.3580014 122.2116090  92.0634058 134.6860219
 120.2589992  92.8579978 127.8480014 119.3089992  92.9639978 127.8990014
 120.6109992  93.6789978 128.1930014 120.1765480  92.9834438 127.9015999
 125.6339992  88.0849978 134.3180014 125.2089992  87.8569978 135.1450014
 126.2149992  87.3459978 134.1360014 125.6543930  87.9539843 134.4064732
 127.8369992  89.0139978 123.3920014 128.1909992  88.6339978 124.1970014
 126.8889992  88.9199978 123.4790014 127.7571820  88.9493092 123.5138714
 128.2929992  92.6369978 136.7880014 127.6909992  92.0809978 136.2920014
 128.5739992  93.3039978 136.1620014 128.2486829  92.6511613 136.6355443
 132.3409992  93.4929978 123.5930014 133.0849992  94.0789978 123.4530014
 131.6469992  94.0619978 123.9270014 132.3490201  93.6500603 123.6189772
 116.4149992  79.8699978 136.1950014 115.5229992  80.2079978 136.1280014
 116.3169992  79.0139978 136.6130014 116.2794965  79.8006499 136.2423044
 128.7029992  87.6859978 125.6190014 128.4259992  86.9579978 126.1750014
 129.6309992  87.8049978 125.8240014 128.7904499  87.6024213 125.7228044
 116.0669992  91.6739978 134.6300014 116.2839992  90.7419978 134.5990014
 116.3129992  91.9489978 135.5130014 116.1299809  91.5835686 134.7451691
 121.9279992  90.1259978 121.8390014 122.1669992  89.3769978 121.2920014
 121.6589992  89.7379978 122.6720014 121.9243233  89.9711853 121.8767809
 120.8649992  89.6959978 124.2960014 121.0119992  89.1759978 125.0860014
 120.8619992  90.6029978 124.6020014 120.8847300  89.7473964 124.4455895
 117.3179992  86.9479978 124.8060014 116.6319992  87.3009978 125.3730014
 117.8409992  87.7109978 124.5600014 117.2949033  87.0993746 124.8502661
 125.1499992  79.6109978 135.0850014 125.8489992  79.6849978 135.7350014
 124.7689992  78.7459978 135.2390014 125.1942097  79.5042389 135.1947997
 125.9339992  79.2629978 126.1820014 126.1539992  79.7339978 125.3790014
 126.4929992  79.6569978 126.8520014 126.0396730  79.3807432 126.1625906
 123.6029992  91.3929978 125.0450014 122.7859992  91.8899978 125.0970014
 124.1319992  91.8689978 124.4050014 123.5628508  91.5252543 124.9656035
 123.1339992  80.9909978 127.0170014 123.9459992  81.4949978 127.0630014
 122.8899992  80.8459978 127.9310014 123.2121467  81.0403749 127.1468575
 123.6699992  81.9769978 136.2020014 123.7889992  82.5509978 136.9590014
 124.3249992  81.2889978 136.3160014 123.7749146  81.9625574 136.3211313
 124.0179992  78.0719978 127.9550014 123.6709992  78.6889978 128.6000014
 124.6769992  78.5729978 127.4740014 124.0595949  78.2241099 127.9782271
 120.9409992  92.4369978 125.0270014 121.1019992  93.2369978 124.5260014
 120.7439992  92.7439978 125.9120014 120.9363919  92.5879129 125.0781006
 119.6759992  79.1349978 124.6420014 119.5919992  80.0229978 124.9890014
 120.5659992  78.8699978 124.8740014 119.7848163  79.2207179 124.7208596
 129.8739992  79.8839978 137.0370014 128.9579992  80.1459978 136.9490014
 130.2099992  79.8809978 136.1400014 129.7939789  79.9194626 136.9037847
 128.4769992  83.6339978 131.1320014 127.6789992  83.2189978 130.8040014
 128.9219992  82.9439978 131.6230014 128.4279684  83.4838628 131.1535227
 117.9339992  89.5619978 123.7030014 118.5259992  90.2619978 123.9790014
 118.3929992  89.1289978 122.9830014 118.0770791  89.5992908 123.6434607
 116.2499992  82.2269978 122.8190014 116.2049992  83.1659978 122.9970014
 115.3619992  81.9909978 122.5490014 116.1238555  82.3236874 122.8068939
 129.5629992  92.8899978 132.7550014 129.4069992  93.5689978 132.0980014
 130.4959992  92.9619978 132.9580014 129.6677387  92.9926390 132.6925342
 117.0579992  77.0079978 131.4920014 116.8289992  77.0669978 130.5640014
 116.6159992  76.2169978 131.7980014 116.9668801  76.9090540 131.4064729
 115.9889992  90.9489978 127.6520014 115.1559992  91.4209978 127.6800014
 116.5339992  91.4589978 127.0540014 115.9487590  91.0825897 127.5749194
 115.2769992  93.5609978 138.9820014 115.8169992  93.3449978 139.7420014
 114.7959992  92.7559978 138.7930014 115.2858613  93.4225400 139.0604782
 119.8739992  92.4809978 140.6030014 120.6419992  92.0219978 140.9440014
 119.8529992  92.2549978 139.6730014 119.9762135  92.3876668 140.5239491
 123.9659992  91.9889978 121.9780014 123.3219992  91.3579978 122.2990014
 124.7279992  91.4579978 121.7460014 123.9808058  91.8307902 121.9906038
 126.4509992  90.8609978 139.3320014 126.0999992  90.0039978 139.5750014
 127.1769992  91.0029978 139.9390014 126.5011590  90.7630178 139.4472907
 128.5709992  91.8059978 122.2120014 128.8539992  91.0109978 122.6640014
 129.3099992  92.0389978 121.6510014 128.7096956  91.7287031 122.1979822
 115.1839992  87.3719978 139.9370014 115.3279992  86.4699978 139.6500014
 114.4119992  87.6579978 139.4490014 115.0993303  87.2873243 139.8317908
 119.5249992  87.7149978 122.0690014 119.5899992  86.9209978 122.6000014
 120.1779992  87.5969978 121.3790014 119.6221754  87.5903337 122.0484259
 121.8389992  87.3409978 139.3690014 121.5109992  87.6119978 138.5120014
 121.9909992  86.3999978 139.2820014 121.8146030  87.2508973 139.2397945
 124.8779992  88.7619978 121.8050014 124.6089992  88.9429978 122.7060014
 124.6709992  87.8369978 121.6740014 124.8132000  88.6616774 121.9105693
 127.5739992  87.2569978 136.7530014 128.3189992  87.8459978 136.6330014
 126.8169992  87.8389978 136.8160014 127.5735205  87.4161997 136.7451119
 116.0169992  84.5719978 139.3570014 116.4249992  83.7149978 139.2360014
 115.7559992  84.5859978 140.2780014 116.0376016  84.4565119 139.4649192
 120.6749992  85.6879978 124.3750014 120.2149992  85.2039978 125.0610014
 120.9299992  85.0189978 123.7390014 120.6465038  85.5313689 124.3829447
 119.9639992  83.5809978 136.7310014 119.3449992  84.2549978 137.0110014
 120.3079992  83.9019978 135.8980014 119.9257605  83.7167198 136.6566707
 121.7459992  83.9309978 122.6370014 121.5649992  83.7759978 121.7100014
 122.6959992  84.0389978 122.6820014 121.8496566  83.9243669 122.5160929
 124.9829992  86.0519978 140.0080014 125.9369992  86.1359978 139.9810014
 124.8229992  85.3399978 140.6280014 125.0917182  85.9672842 140.0880733
 131.1359992  86.2849978 122.0830014 130.8619992  85.8609978 121.2700014
 131.1749992  87.2169978 121.8660014 131.1037716  86.3528827 121.9424286
 120.3029992  80.9359978 137.8130014 120.4529992  80.2069978 137.2110014
 120.3049992  81.7129978 137.2540014 120.3237967  80.9412708 137.6550541
 120.7159992  79.3049978 135.3060014 121.2509992  79.7569978 134.6540014
 119.8629992  79.1969978 134.8830014 120.6740374  79.3522665 135.1596710
 122.2969992  84.7449978 135.5450014 123.0479992  84.5889978 134.9720014
 121.9579992  85.5969978 135.2700014 122.3539587  84.8388138 135.4294078
 126.7129992  82.5599978 140.5740014 126.9049992  81.6289978 140.4620014
 127.5709992  82.9849978 140.5640014 126.8552269  82.4899928 140.5573192
 128.0299992  85.3489978 138.6510014 127.7479992  86.0579978 138.0740014
 128.9719992  85.2759978 138.5000014 128.1187656  85.4363128 138.5514809
 118.7819992  82.1339978 139.7250014 118.0139992  81.6009978 139.5150014
 119.4599992  81.8239978 139.1250014 118.7686973  82.0192375 139.6151796
 121.5209992  76.7619978 135.7370014 121.4229992  77.7079978 135.6320014
 120.7789992  76.3889978 135.2620014 121.4071913  76.8411813 135.6583539
 122.7849992  81.0829978 139.3010014 122.5499992  80.8639978 140.2030014
 122.0019992  80.8759978 138.7910014 122.6469219  81.0250066 139.3555852
 125.5009992  80.2109978 138.3770014 124.5529992  80.2429978 138.5090014
 125.8129992  79.5849978 139.0300014 125.4135190  80.1307262 138.4833564
 127.1349992  78.8449978 140.3820014 127.0379992  77.8929978 140.3760014
 126.8129992  79.1129978 141.2420014 127.0781761  78.7509744 140.4974936
 116.9619992  80.0539978 139.4290014 117.1739992  79.3479978 138.8190014
 116.8509992  79.6169978 140.2730014 116.9760269  79.8981921 139.4595873
 121.7429992  76.0559978 138.4090014 122.4549992  75.4159978 138.3950014
 121.6419992  76.3219978 137.4950014 121.8267261  76.0044190 138.2835537
 122.0969992  77.7379978 140.4620014 121.9649992  77.2629978 139.6420014
 121.4969992  78.4829978 140.4070014 121.9979070  77.7735789 140.3423251
 121.6429992  94.6209978 123.6390014 122.5759992  94.7789978 123.7820014
 121.3789992  95.2969978 123.0140014 121.7349308  94.7339104 123.5741396
 115.2109992  89.2579978 123.1210014 116.1249992  89.3369978 123.3950014
 115.2189992  88.5709978 122.4550014 115.3371143  89.1759085 123.0684274
 113.8599992  94.6509978 128.1990014 113.2129992  94.1889978 127.6660014
 114.2149992  93.9789978 128.7810014 113.8194506  94.4969503 128.2047341
 114.7299992  92.7309978 130.0030014 114.3959992  91.8509978 130.1750014
 114.9529992  93.0769978 130.8680014 114.7143721  92.6571938 130.1434168
 132.2789992  93.5409978 132.9840014 132.2569992  93.7259978 133.9230014
 132.9689992  94.1089978 132.6430014 132.3693439  93.6431887 133.0664791
 131.8419992  93.1079978 135.9060014 131.3549992  92.3729978 135.5350014
 132.3909992  92.7139978 136.5840014 131.8495247  92.9541057 135.9468461
 130.2929992  88.8979978 140.5440014 129.4269992  88.7929978 140.9380014
 130.6689992  89.6559978 140.9900014 130.2253401  88.9861708 140.6582620
 131.5939992  87.1539978 126.0580014 132.4439992  87.5749978 126.1850014
 131.5989992  86.4139978 126.6650014 131.7111143  87.1116094 126.1574750
 131.9879992  85.2079978 127.8820014 131.2619992  84.7279978 128.2790014
 132.5699992  85.4129978 128.6140014 131.9671635  85.1699166 128.0353748
 131.7469992  87.9929978 132.8290014 132.5809992  87.6149978 132.5490014
 131.8589992  88.9359978 132.7100014 131.8762522  88.0687742 132.7746020
 130.2339992  90.8709978 135.1360014 129.5859992  91.1959978 135.7620014
 129.7159992  90.4299978 134.4620014 130.0754168  90.8558523 135.1305307
 132.2569992  85.1089978 124.2730014 131.7349992  85.4649978 123.5540014
 132.2239992  85.7839978 124.9510014 132.1810699  85.2489848 124.2662129
 130.6059992  82.3479978 122.8240014 130.7019992  83.0149978 122.1440014
 130.4659992  81.5329978 122.3420014 130.6002063  82.3290667 122.6658377
 129.7749992  83.7289978 128.4450014 129.6249992  82.7839978 128.4240014
 129.4209992  84.0099978 129.2880014 129.7065527  83.6375605 128.5561859
 114.8099992  85.8069978 132.4550014 114.9949992  85.7249978 131.5190014
 115.6599992  85.6829978 132.8790014 114.9500916  85.7790393 132.3842896
 130.6309992  85.6989978 138.0830014 131.2139992  84.9639978 138.2750014
 131.1949992  86.4709978 138.1300014 130.7869781  85.7028145 138.1156164
 132.1279992  83.6019978 138.7680014 131.2649992  83.2229978 138.6020014
 132.7319992  82.8629978 138.6940014 132.0915944  83.4502978 138.7352984
 129.8529992  79.7559978 121.9410014 130.4639992  79.3849978 122.5780014
 129.0159992  79.3349978 122.1370014 129.8234947  79.6482756 122.0547252
 129.4859992  81.3109978 126.9070014 129.7649992  80.4039978 127.0310014
 130.2449992  81.7449978 126.5180014 129.6268619  81.2454502 126.8713795
 130.0969992  81.8929978 132.3430014 131.0299992  82.1049978 132.3090014
 129.8619992  81.9939978 133.2650014 130.1928308  81.9356503 132.4630214
 130.1269992  82.6299978 135.1190014 129.2839992  82.8979978 135.4850014
 130.5689992  83.4519978 134.9080014 130.0714138  82.7778273 135.1405518
 114.4079992  81.0769978 138.5960014 115.3269992  80.9549978 138.8320014
 113.9579992  80.3269978 138.9850014 114.4731148  80.9588751 138.6809408
 132.4099992  76.6099978 140.4720014 132.7589992  75.9559978 139.8670014
 132.5569992  77.4469978 140.0330014 132.4777355  76.6336067 140.3296564
 130.0989992  78.5739978 126.9550014 130.2809992  78.1249978 127.7810014
 129.4989992  77.9899978 126.4920014 130.0427529  78.4336131 127.0053619
 115.6289992  79.3899978 131.4870014 116.0739992  78.5979978 131.7890014
 116.0949992  80.1059978 131.9180014 115.7529059  79.3784474 131.5866079
 113.9329992  82.3889978 132.5560014 114.4249992  82.1679978 131.7650014
 114.2949992  83.2289978 132.8370014 114.0492923  82.4723468 132.4857407
 131.9289992  78.7189978 138.8220014 131.0119992  78.9899978 138.7860014
 132.0519992  78.1839978 138.0380014 131.8200828  78.6837700 138.7110785
 131.9659992  78.6419978 123.4830014 132.3779992  77.9209978 123.0080014
 132.6469992  79.3109978 123.5420014 132.1145900  78.6337306 123.4259038
 114.2469992  78.6469978 126.6100014 113.3219992  78.8549978 126.4810014
 114.7009992  79.1309978 125.9210014 114.1816374  78.7409949 126.4990957
 129.0169992  93.6309978 128.5560014 129.6699992  93.2829978 127.9480014
 129.5279992  94.1189978 129.2020014 129.1752777  93.6493815 128.5602047
 114.2099992  77.3849978 134.9550014 113.5449992  77.1389978 135.5980014
 113.7669992  78.0069978 134.3770014 114.0590937  77.4353614 134.9649379
 116.4019992  90.5599978 139.0990014 115.5809992  90.7349978 138.6390014
 116.1499992  90.4869978 140.0200014 116.2556173  90.5740794 139.1604972
 119.3559992  91.5339978 135.3580014 118.9319992  92.3439978 135.0750014
 120.2609992  91.6199978 135.0560014 119.4202433  91.6563331 135.2785377
 123.6679992  92.9329978 138.3170014 123.8519992  92.5999978 139.1950014
 124.5139992  93.2429978 137.9950014 123.8076484  92.9292979 138.3937617
 126.0129992  94.2189978 137.5610014 126.6899992  93.5859978 137.3210014
 126.3339992  94.6199978 138.3680014 126.1491323  94.1865691 137.6373158
 130.9299992  76.8089978 136.6410014 130.1169992  77.1339978 136.2530014
 131.1629992  76.0479978 136.1080014 130.8502566  76.7506559 136.5159213
 116.7579992  94.7909978 135.4050014 116.0379992  95.2309978 134.9540014
 116.3929992  94.5399978 136.2540014 116.6099796  94.8173824 135.4579329
 119.2249992  94.3909978 134.4350014 118.3609992  94.4629978 134.8390014
 119.1699992  94.9379978 133.6510014 119.0991942  94.4747849 134.3844000
 123.9359992  94.2789978 133.6100014 123.4789992  94.8079978 132.9560014
 124.0989992  94.8819978 134.3360014 123.8954476  94.4329140 133.6185499
 126.2639992  93.1569978 134.5550014 125.3589992  93.3219978 134.2900014
 126.6919992  94.0099978 134.4900014 126.1980700  93.2949529 134.5099520
 128.8679992  94.7269978 134.8500014 128.6859992  95.6429978 134.6400014
 129.0449992  94.3159978 134.0040014 128.8669907  94.7969741 134.7067883
 116.1729992  93.4139978 132.3150014 116.1549992  92.9879978 133.1730014
 116.9779992  93.0949978 131.9070014 116.2793221  93.3127233 132.3770225
 118.3139992  92.1239978 130.9700014 118.0949992  91.2069978 131.1400014
 119.1379992  92.2639978 131.4360014 118.3954702  92.0175511 131.0562527
 120.8509992  92.5939978 131.8190014 121.0639992  91.7059978 131.5320014
 120.9159992  92.5589978 132.7740014 120.8889075  92.4678307 131.9087373
 124.3599992  78.2579978 130.9630014 123.6859992  77.6279978 131.2190014
 124.9239992  77.7739978 130.3600014 124.3440384  78.1063708 130.9165020
 129.5029992  76.3649978 131.0760014 130.1059992  76.9129978 130.5740014
 128.6329992  76.6839978 130.8360014 129.4679190  76.4831041 130.9748679
 131.2299992  77.5039978 129.4090014 131.8409992  76.9899978 128.8830014
 131.6119992  78.3809978 129.4330014 131.3654475  77.5521323 129.3401208
 116.6869992  76.8919978 128.7850014 115.9099992  76.6569978 128.2780014
 117.2169992  76.0949978 128.7940014 116.6523451  76.7521268 128.7168627
 115.5229992  76.6899978 124.5890014 115.9619992  77.3009978 123.9970014
 114.8889992  77.2279978 125.0630014 115.4973859  76.8464064 124.5720305
 121.2659992  76.8179978 128.5990014 122.1399992  77.2069978 128.5690014
 121.1299992  76.6029978 129.5210014 121.3673207  76.8421923 128.7196509
 126.8229992  76.8479978 130.2480014 126.8989992  76.9439978 129.2990014
 126.5479992  75.9409978 130.3770014 126.7962042  76.7384241 130.1353811
 128.1759992  76.8739978 125.9400014 127.4729992  77.4889978 125.7310014
 127.7309992  76.0369978 126.0720014 128.0196292  76.8450085 125.9292439
 115.4239992  92.6379978 125.4870014 114.7389992  92.5999978 124.8190014
 115.4279992  93.5509978 125.7750014 115.3308174  92.7561998 125.4345310
 117.3839992  78.6059978 123.0310014 117.8749992  77.9759978 122.5040014
 118.0069992  78.9019978 123.6950014 117.5355062  78.5596770 123.0485438
 122.4099992  78.8989978 125.4890014 122.5879992  78.2519978 126.1710014
 122.3559992  79.7329978 125.9560014 122.4271025  78.9230504 125.6456433
 124.2879992  93.8469978 123.8840014 125.1539992  94.2139978 123.7060014
 124.0419992  93.4079978 123.0700014 124.3732097  93.8378525 123.7496019
 130.9969992  93.4099978 126.5630014 130.8029992  92.6619978 125.9980014
 130.9579992  94.1679978 125.9800014 130.9651645  93.4100786 126.4068148
 116.6439992  77.4059978 138.3030014 116.2779992  76.6399978 138.7460014
 117.5569992  77.4349978 138.5900014 116.7173225  77.3051906 138.4023459
 118.6169992  76.7559978 139.8390014 119.5159992  76.4819978 139.6540014
 118.2309992  76.0139978 140.3030014 118.6877237  76.6181508 139.8764710
 117.2419992  93.5579978 122.5120014 116.9739992  93.8439978 123.3850014
 118.0129992  93.0119978 122.6640014 117.3095600  93.5233330 122.6521499
 127.0389992  76.0889978 140.0210014 127.1149992  75.6629978 140.8750014
 127.9319992  76.1019978 139.6780014 127.1702267  76.0323952 140.0915932
 130.2149992  92.1619978 138.7130014 129.4329992  91.9749978 138.1940014
 130.1429992  93.0909978 138.9310014 130.0980863  92.2620221 138.6713574
 144.6209992  86.0479978 128.7440014 144.7099992  86.9919978 128.6120014
 143.9829992  85.7729978 128.0860014 144.5469062  86.1399812 128.6369641
 143.5539992  85.3029978 132.1630014 143.5159992  84.6569978 132.8680014
 143.2319992  84.8359978 131.3920014 143.5052679  85.1514276 132.1552921
 135.9219992  84.9169978 133.7560014 135.9639992  84.2919978 134.4790014
 136.6249992  85.5409978 133.9380014 136.0227345  84.9157873 133.8795273
 136.8459992  89.3669978 132.2910014 136.4759992  88.5649978 131.9210014
 137.7869992  89.1989978 132.3370014 136.9225984  89.2344638 132.2465603
 133.4559992  83.0269978 127.6840014 133.0079992  83.8729978 127.6650014
 132.8949992  82.4479978 127.1680014 133.3189603  83.0643674 127.6116720
 134.1659992  85.1889978 129.8100014 134.3799992  84.4189978 130.3370014
 134.9039992  85.2789978 129.2060014 134.2949652  85.0958012 129.8005212
 144.3719992  93.3459978 130.6770014 144.9909992  92.6699978 130.4030014
 144.1629992  93.1279978 131.5850014 144.4286232  93.2237938 130.7622517
 141.9429992  87.7349978 132.5690014 142.2469992  87.0489978 131.9750014
 142.6649992  87.8539978 133.1870014 142.0821152  87.6572189 132.5712123
 145.0839992  82.1289978 132.8970014 145.2269992  81.1829978 132.9170014
 144.9779992  82.3359978 131.9680014 145.0892509  82.0274813 132.7742231
 138.2389992  80.2309978 130.1690014 138.2819992  81.0909978 129.7510014
 137.7809992  79.6789978 129.5350014 138.1829815  80.2740621 130.0261197
 134.8589992  82.6279978 130.9310014 135.5129992  82.0779978 131.3630014
 134.8829992  82.3539978 130.0140014 134.9517199  82.5157167 130.8661668
 140.0159992  84.1779978 130.1460014 140.6319992  83.6509978 130.6560014
 139.4289992  83.5379978 129.7430014 140.0209239  84.0194117 130.1612952
 137.0489992  79.1489978 134.2430014 136.8299992  79.6789978 133.4770014
 136.3809992  79.3749978 134.8900014 136.9287001  79.2521154 134.2256064
 144.4179992  88.6489978 127.7870014 144.1229992  88.3259978 126.9360014
 144.0939992  89.5489978 127.8280014 144.3337983  88.7264027 127.6759771
 139.6179992  86.8239978 134.5310014 138.8779992  87.4229978 134.6340014
 140.3319992  87.3779978 134.2150014 139.6133288  86.9807356 134.5023805
 136.6429992  81.0409978 132.1950014 137.2569992  81.6739978 132.5690014
 137.1549992  80.5689978 131.5390014 136.7962277  81.0637352 132.1574279
 138.0259992  88.7889978 135.3180014 138.0199992  89.6679978 134.9400014
 137.1719992  88.7049978 135.7430014 137.9097925  88.8979535 135.3236887
 134.1469992  88.4599978 126.1000014 133.8749992  88.6889978 125.2110014
 134.1919992  89.2969978 126.5600014 134.1158709  88.6046058 126.0406107
 141.0759992  76.4539978 131.6960014 140.9579992  75.5059978 131.6410014
 140.2209992  76.7869978 131.9690014 140.9442679  76.3691926 131.7253720
 143.3419992  85.2919978 126.1960014 142.6309992  85.8269978 125.8440014
 144.0329992  85.3469978 125.5360014 143.3380751  85.3726777 126.0585858
 143.3959992  83.7489978 123.2350014 144.0969992  83.7719978 123.8860014
 143.6979992  83.1209978 122.5790014 143.5328282  83.6672339 123.2354496
 138.3929992  86.1319978 129.0300014 138.0629992  85.7609978 128.2120014
 138.9819992  85.4609978 129.3770014 138.4273970  85.9906063 128.9649404
 139.7599992  89.5599978 131.7120014 139.6649992  88.9809978 130.9550014
 140.4889992  89.1889978 132.2080014 139.8456161  89.4305891 131.6755209
 138.7599992  84.8999978 132.6640014 139.3249992  85.0219978 131.9010014
 139.0789992  85.5379978 133.3030014 138.8803977  85.0028851 132.6459424
 145.0689992  90.4039978 133.3980014 144.8289992  91.0659978 134.0460014
 144.8709992  89.5689978 133.8230014 145.0093826  90.3818115 133.5441566
 139.6399992  89.2999978 137.3810014 139.3289992  90.0819978 137.8360014
 138.9899992  89.1469978 136.6950014 139.5095538  89.3864087 137.3505898
 136.5599992  85.4979978 136.6100014 136.6299992  86.1489978 137.3080014
 135.6689992  85.6009978 136.2750014 136.4491802  85.6009757 136.6602249
 143.3449992  91.3999978 128.2680014 143.8189992  91.6959978 129.0460014
 142.7819992  92.1389978 128.0350014 143.3337361  91.5402721 128.3428611
 137.8789992  91.3709978 138.1440014 137.8869992  91.2349978 137.1970014
 136.9629992  91.2539978 138.3960014 137.7562528  91.3365463 138.0483243
 137.3839992  85.2009978 126.6200014 137.0919992  85.9689978 126.1290014
 136.7089992  84.5419978 126.4570014 137.2528497  85.2169745 126.5308260
 133.4769992  87.5639978 135.4350014 132.9749992  87.5359978 134.6200014
 133.4819992  86.6589978 135.7440014 133.4090416  87.4377368 135.3653766
 133.2269992  90.3449978 132.3190014 134.1729992  90.1999978 132.3000014
 133.1139992  91.1289978 132.8560014 133.3413578  90.4311697 132.3890317
 142.4029992  90.5849978 136.8770014 142.4909992  91.4109978 137.3520014
 141.5399992  90.2549978 137.1260014 142.2983357  90.6535468 136.9757653
 142.8179992  94.3569978 126.6830014 142.7419992  94.2359978 125.7370014
 142.8499992  95.3059978 126.8020014 142.8119156  94.4687530 126.5695048
 136.4709992  93.1459978 128.4640014 136.6229992  92.7979978 129.3430014
 135.6199992  92.7889978 128.2090014 136.3767899  93.0501738 128.5497340
 135.7259992  88.8879978 136.4780014 135.9419992  88.5259978 137.3370014
 134.8699992  88.5129978 136.2680014 135.6399354  88.7877906 136.5672160
 138.3439992  77.3579978 132.4730014 137.4829992  77.2709978 132.0660014
 138.3219992  78.2139978 132.9010014 138.2230411  77.4617884 132.4750857
 143.0069992  77.0799978 135.8480014 143.4269992  76.6649978 136.6010014
 142.0739992  76.9009978 135.9650014 142.9383736  76.9989910 135.9668968
 142.6689992  79.5719978 123.1330014 142.4149992  79.5909978 124.0560014
 142.4119992  78.7009978 122.8320014 142.5995133  79.4568110 123.2185082
 138.4349992  82.3229978 133.5680014 137.7939992  82.2829978 134.2770014
 138.4729992  83.2499978 133.3310014 138.3523670  82.4427795 133.6330550
 138.4319992  82.5439978 128.4800014 137.5399992  82.2039978 128.4220014
 138.8829992  82.1669978 127.7250014 138.3706815  82.4463762 128.3699203
 143.9679992  82.9599978 127.2970014 143.5589992  83.7749978 127.0060014
 144.6879992  82.8199978 126.6830014 144.0094013  83.0526571 127.1740875
 143.0699992  83.1359978 138.7850014 142.5069992  82.4309978 139.1060014
 143.8959992  83.0149978 139.2530014 143.1046674  83.0232165 138.8921751
 144.9729992  82.4059978 130.1110014 144.7769992  83.0119978 129.3960014
 145.1539992  81.5729978 129.6770014 144.9706584  82.3762513 129.9544212
 136.1849992  82.6439978 135.4350014 136.1469992  83.0439978 136.3040014
 135.6949992  81.8269978 135.5260014 136.1135621  82.5882510 135.5661377
 139.5509992  80.0179978 122.2340014 139.1199992  79.5729978 122.9640014
 138.8329992  80.3889978 121.7220014 139.3949363  80.0072968 122.2646211
 132.7939992  79.7599978 129.2860014 133.4239992  79.7309978 130.0050014
 133.2429992  79.3349978 128.5560014 132.9410692  79.6985316 129.2857771
 134.0679992  80.5059978 124.7100014 134.5419992  81.0969978 124.1250014
 133.3499992  81.0359978 125.0570014 134.0358640  80.6585511 124.6767969
 144.2369992  84.0439978 134.7830014 144.5599992  83.4129978 134.1400014
 143.7959992  83.5099978 135.4430014 144.2215789  83.8853522 134.7842232
 141.0139992  79.9719978 129.5670014 140.1029992  80.0289978 129.8550014
 141.5189992  79.9119978 130.3770014 140.9575387  79.9716870 129.7160646
 135.8419992  81.6009978 128.3930014 134.9529992  81.6999978 128.0530014
 136.1389992  80.7589978 128.0470014 135.7604177  81.5007687 128.2996940
 139.4949992  81.6009978 126.0500014 140.4269992  81.7299978 126.2280014
 139.2799992  82.2699978 125.4000014 139.5934472  81.7090806 125.9864891
 145.4189992  79.2069978 132.8310014 144.7419992  79.3379978 133.4950014
 144.9339992  79.0519978 132.0210014 145.2607265  79.2039659 132.8123397
 138.1689992  82.7949978 123.6170014 137.6269992  82.4159978 122.9250014
 139.0029992  82.9899978 123.1880014 138.2075159  82.7695076 123.4644419
 136.3049992  87.3519978 138.7160014 137.0369992  87.6069978 139.2770014
 135.5239992  87.5569978 139.2310014 136.2997684  87.4146468 138.8624782
 142.3339992  82.7589978 131.4540014 142.8979992  82.2129978 130.9070014
 142.1859992  82.2379978 132.2420014 142.3912575  82.6136552 131.4856987
 137.3359992  78.8959978 127.8720014 137.0189992  77.9929978 127.8370014
 138.1169992  78.8979978 127.3190014 137.3982307  78.7726951 127.7924314
 140.9599992  81.1479978 133.8680014 140.1249992  81.6019978 133.9780014
 141.4839992  81.4239978 134.6200014 140.9165070  81.2474666 133.9847152
 141.5049992  87.3609978 125.5520014 140.7599992  86.8529978 125.2300014
 141.3699992  87.4099978 126.4990014 141.3849047  87.2981596 125.6358845
 145.4019992  80.1749978 123.7520014 144.4639992  80.2859978 123.6000014
 145.6999992  81.0309978 124.0580014 145.3136402  80.3060621 123.7725571
 143.0239992  87.5449978 136.7890014 142.6779992  87.1629978 137.5960014
 142.8239992  88.4779978 136.8610014 142.9496523  87.6189095 136.9090735
 136.6289992  86.6559978 131.3220014 137.3739992  86.6529978 130.7210014
 136.7069992  85.8319978 131.8040014 136.7414158  86.5442916 131.3049153
 143.6299992  88.8189978 124.5780014 143.3349992  89.6459978 124.9590014
 142.9269992  88.1999978 124.7740014 143.4945471  88.8485227 124.6566698
 133.6369992  85.1159978 136.6370014 133.8599992  84.6979978 137.4690014
 133.0349992  84.5039978 136.2140014 133.5861260  84.9759933 136.6937320
 140.6539992  84.6329978 138.8500014 140.3579992  84.4679978 137.9550014
 141.5849992  84.4129978 138.8390014 140.7393982  84.5806578 138.7260045
 145.2739992  90.0069978 136.7400014 144.3739992  90.1899978 136.4720014
 145.3079992  90.2659978 137.6610014 145.1552909  90.0670815 136.8277852
 139.0039992  90.1739978 128.7260014 139.5319992  90.9469978 128.5260014
 138.1239992  90.3979978 128.4250014 138.9573176  90.3103161 128.6578409
 134.7589992  85.0359978 123.3140014 135.3749992  85.6629978 123.6930014
 133.8969992  85.3519978 123.5850014 134.7268195  85.1645798 123.4025386
 140.4319992  87.8369978 128.3030014 140.1909992  88.7619978 128.3440014
 139.6909992  87.3779978 128.6990014 140.2988390  87.9016403 128.3621404
 140.9459992  91.9859978 134.6180014 141.3089992  92.8399978 134.3840014
 141.4779992  91.6939978 135.3580014 141.0676090  92.0634058 134.6860219
 139.1149992  92.8579978 127.8480014 138.1649992  92.9639978 127.8990014
 139.4669992  93.6789978 128.1930014 139.0325480  92.9834438 127.9015999
 144.4899992  88.0849978 134.3180014 144.0649992  87.8569978 135.1450014
 145.0709992  87.3459978 134.1360014 144.5103930  87.9539843 134.4064732
 135.2709992  79.8699978 136.1950014 134.3789992  80.2079978 136.1280014
 135.1729992  79.0139978 136.6130014 135.1354965  79.8006499 136.2423044
 134.9229992  91.6739978 134.6300014 135.1399992  90.7419978 134.5990014
 135.1689992  91.9489978 135.5130014 134.9859809  91.5835686 134.7451691
 140.7839992  90.1259978 121.8390014 141.0229992  89.3769978 121.2920014
 140.5149992  89.7379978 122.6720014 140.7803233  89.9711853 121.8767809
 139.7209992  89.6959978 124.2960014 139.8679992  89.1759978 125.0860014
 139.7179992  90.6029978 124.6020014 139.7407300  89.7473964 124.4455895
 136.1739992  86.9479978 124.8060014 135.4879992  87.3009978 125.3730014
 136.6969992  87.7109978 124.5600014 136.1509033  87.0993746 124.8502661
 144.0059992  79.6109978 135.0850014 144.7049992  79.6849978 135.7350014
 143.6249992  78.7459978 135.2390014 144.0502097  79.5042389 135.1947997
 144.7899992  79.2629978 126.1820014 145.0099992  79.7339978 125.3790014
 145.3489992  79.6569978 126.8520014 144.8956730  79.3807432 126.1625906
 142.4589992  91.3929978 125.0450014 141.6419992  91.8899978 125.0970014
 142.9879992  91.8689978 124.4050014 142.4188508  91.5252543 124.9656035
 141.9899992  80.9909978 127.0170014 142.8019992  81.4949978 127.0630014
 141.7459992  80.8459978 127.9310014 142.0681467  81.0403749 127.1468575
 142.5259992  81.9769978 136.2020014 142.6449992  82.5509978 136.9590014
 143.1809992  81.2889978 136.3160014 142.6309146  81.9625574 136.3211313
 142.8739992  78.0719978 127.9550014 142.5269992  78.6889978 128.6000014
 143.5329992  78.5729978 127.4740014 142.9155949  78.2241099 127.9782271
 139.7969992  92.4369978 125.0270014 139.9579992  93.2369978 124.5260014
 139.5999992  92.7439978 125.9120014 139.7923919  92.5879129 125.0781006
 138.5319992  79.1349978 124.6420014 138.4479992  80.0229978 124.9890014
 139.4219992  78.8699978 124.8740014 138.6408163  79.2207179 124.7208596
 136.7899992  89.5619978 123.7030014 137.3819992  90.2619978 123.9790014
 137.2489992  89.1289978 122.9830014 136.9330791  89.5992908 123.6434607
 135.1059992  82.2269978 122.8190014 135.0609992  83.1659978 122.9970014
 134.2179992  81.9909978 122.5490014 134.9798555  82.3236874 122.8068939
 135.9139992  77.0079978 131.4920014 135.6849992  77.0669978 130.5640014
 135.4719992  76.2169978 131.7980014 135.8228801  76.9090540 131.4064729
 134.8449992  90.9489978 127.6520014 134.0119992  91.4209978 127.6800014
 135.3899992  91.4589978 127.0540014 134.8047590  91.0825897 127.5749194
 134.1329992  93.5609978 138.9820014 134.6729992  93.3449978 139.7420014
 133.6519992  92.7559978 138.7930014 134.1418613  93.4225400 139.0604782
 138.7299992  92.4809978 140.6030014 139.4979992  92.0219978 140.9440014
 138.7089992  92.2549978 139.6730014 138.8322135  92.3876668 140.5239491
 142.8219992  91.9889978 121.9780014 142.1779992  91.3579978 122.2990014
 143.5839992  91.4579978 121.7460014 142.8368058  91.8307902 121.9906038
 145.3069992  90.8609978 139.3320014 144.9559992  90.0039978 139.5750014
 146.0329992  91.0029978 139.9390014 145.3571590  90.7630178 139.4472907
 134.0399992  87.3719978 139.9370014 134.1839992  86.4699978 139.6500014
 133.2679992  87.6579978 139.4490014 133.9553303  87.2873243 139.8317908
 138.3809992  87.7149978 122.0690014 138.4459992  86.9209978 122.6000014
 139.0339992  87.5969978 121.3790014 138.4781754  87.5903337 122.0484259
 140.6949992  87.3409978 139.3690014 140.3669992  87.6119978 138.5120014
 140.8469992  86.3999978 139.2820014 140.6706030  87.2508973 139.2397945
 143.7339992  88.7619978 121.8050014 143.4649992  88.9429978 122.7060014
 143.5269992  87.8369978 121.6740014 143.6692000  88.6616774 121.9105693
 134.8729992  84.5719978 139.3570014 135.2809992  83.7149978 139.2360014
 134.6119992  84.5859978 140.2780014 134.8936016  84.4565119 139.4649192
 139.5309992  85.6879978 124.3750014 139.0709992  85.2039978 125.0610014
 139.7859992  85.0189978 123.7390014 139.5025038  85.5313689 124.3829447
 138.8199992  83.5809978 136.7310014 138.2009992  84.2549978 137.0110014
 139.1639992  83.9019978 135.8980014 138.7817606  83.7167198 136.6566707
 140.6019992  83.9309978 122.6370014 140.4209992  83.7759978 121.7100014
 141.5519992  84.0389978 122.6820014 140.7056566  83.9243669 122.5160929
 143.8389992  86.0519978 140.0080014 144.7929992  86.1359978 139.9810014
 143.6789992  85.3399978 140.6280014 143.9477182  85.9672842 140.0880733
 139.1589992  80.9359978 137.8130014 139.3089992  80.2069978 137.2110014
 139.1609992  81.7129978 137.2540014 139.1797967  80.9412708 137.6550541
 139.5719992  79.3049978 135.3060014 140.1069992  79.7569978 134.6540014
 138.7189992  79.1969978 134.8830014 139.5300374  79.3522665 135.1596710
 141.1529992  84.7449978 135.5450014 141.9039992  84.5889978 134.9720014
 140.8139992  85.5969978 135.2700014 141.2099587  84.8388138 135.4294078
 145.5689992  82.5599978 140.5740014 145.7609992  81.6289978 140.4620014
 146.4269992  82.9849978 140.5640014 145.7112269  82.4899928 140.5573192
 137.6379992  82.1339978 139.7250014 136.8699992  81.6009978 139.5150014
 138.3159992  81.8239978 139.1250014 137.6246973  82.0192375 139.6151796
 140.3769992  76.7619978 135.7370014 140.2789992  77.7079978 135.6320014
 139.6349992  76.3889978 135.2620014 140.2631913  76.8411813 135.6583539
 141.6409992  81.0829978 139.3010014 141.4059992  80.8639978 140.2030014
 140.8579992  80.8759978 138.7910014 141.5029219  81.0250066 139.3555852
 144.3569992  80.2109978 138.3770014 143.4089992  80.2429978 138.5090014
 144.6689992  79.5849978 139.0300014 144.2695190  80.1307262 138.4833563
 135.8179992  80.0539978 139.4290014 136.0299992  79.3479978 138.8190014
 135.7069992  79.6169978 140.2730014 135.8320269  79.8981921 139.4595873
 140.5989992  76.0559978 138.4090014 141.3109992  75.4159978 138.3950014
 140.4979992  76.3219978 137.4950014 140.6827261  76.0044190 138.2835537
 140.9529992  77.7379978 140.4620014 140.8209992  77.2629978 139.6420014
 140.3529992  78.4829978 140.4070014 140.8539070  77.7735789 140.3423251
 140.4989992  94.6209978 123.6390014 141.4319992  94.7789978 123.7820014
 140.2349992  95.2969978 123.0140014 140.5909308  94.7339104 123.5741396
 134.0669992  89.2579978 123.1210014 134.9809992  89.3369978 123.3950014
 134.0749992  88.5709978 122.4550014 134.1931143  89.1759085 123.0684274
 132.7159992  94.6509978 128.1990014 132.0689992  94.1889978 127.6660014
 133.0709992  93.9789978 128.7810014 132.6754506  94.4969503 128.2047341
 133.5859992  92.7309978 130.0030014 133.2519992  91.8509978 130.1750014
 133.8089992  93.0769978 130.8680014 133.5703721  92.6571938 130.1434168
 133.6659992  85.8069978 132.4550014 133.8509992  85.7249978 131.5190014
 134.5159992  85.6829978 132.8790014 133.8060916  85.7790393 132.3842896
 133.2639992  81.0769978 138.5960014 134.1829992  80.9549978 138.8320014
 132.8139992  80.3269978 138.9850014 133.3291148  80.9588751 138.6809408
 134.4849992  79.3899978 131.4870014 134.9299992  78.5979978 131.7890014
 134.9509992  80.1059978 131.9180014 134.6089059  79.3784474 131.5866079
 132.7889992  82.3889978 132.5560014 133.2809992  82.1679978 131.7650014
 133.1509992  83.2289978 132.8370014 132.9052923  82.4723468 132.4857407
 133.1029992  78.6469978 126.6100014 132.1779992  78.8549978 126.4810014
 133.5569992  79.1309978 125.9210014 133.0376374  78.7409949 126.4990957
 133.0659992  77.3849978 134.9550014 132.4009992  77.1389978 135.5980014
 132.6229992  78.0069978 134.3770014 132.9150937  77.4353614 134.9649379
 135.2579992  90.5599978 139.0990014 134.4369992  90.7349978 138.6390014
 135.0059992  90.4869978 140.0200014 135.1116173  90.5740794 139.1604972
 138.2119992  91.5339978 135.3580014 137.7879992  92.3439978 135.0750014
 139.1169992  91.6199978 135.0560014 138.2762433  91.6563331 135.2785377
 142.5239992  92.9329978 138.3170014 142.7079992  92.5999978 139.1950014
 143.3699992  93.2429978 137.9950014 142.6636484  92.9292979 138.3937617
 144.8689992  94.2189978 137.5610014 145.5459992  93.5859978 137.3210014
 145.1899992  94.6199978 138.3680014 145.0051323  94.1865691 137.6373158
 135.6139992  94.7909978 135.4050014 134.8939992  95.2309978 134.9540014
 135.2489992  94.5399978 136.2540014 135.4659796  94.8173824 135.4579329
 138.0809992  94.3909978 134.4350014 137.2169992  94.4629978 134.8390014
 138.0259992  94.9379978 133.6510014 137.9551942  94.4747849 134.3844000
 142.7919992  94.2789978 133.6100014 142.3349992  94.8079978 132.9560014
 142.9549992  94.8819978 134.3360014 142.7514476  94.4329140 133.6185499
 145.1199992  93.1569978 134.5550014 144.2149992  93.3219978 134.2900014
 145.5479992  94.0099978 134.4900014 145.0540700  93.2949529 134.5099520
 135.0289992  93.4139978 132.3150014 135.0109992  92.9879978 133.1730014
 135.8339992  93.0949978 131.9070014 135.1353221  93.3127233 132.3770225
 137.1699992  92.1239978 130.9700014 136.9509992  91.2069978 131.1400014
 137.9939992  92.2639978 131.4360014 137.2514702  92.0175511 131.0562527
 139.7069992  92.5939978 131.8190014 139.9199992  91.7059978 131.5320014
 139.7719992  92.5589978 132.7740014 139.7449075  92.4678307 131.9087373
 143.2159992  78.2579978 130.9630014 142.5419992  77.6279978 131.2190014
 143.7799992  77.7739978 130.3600014 143.2000384  78.1063708 130.9165020
 135.5429992  76.8919978 128.7850014 134.7659992  76.6569978 128.2780014
 136.0729992  76.0949978 128.7940014 135.5083451  76.7521268 128.7168627
 134.3789992  76.6899978 124.5890014 134.8179992  77.3009978 123.9970014
 133.7449992  77.2279978 125.0630014 134.3533859  76.8464064 124.5720305
 140.1219992  76.8179978 128.5990014 140.9959992  77.2069978 128.5690014
 139.9859992  76.6029978 129.5210014 140.2233207  76.8421923 128.7196509
 134.2799992  92.6379978 125.4870014 133.5949992  92.5999978 124.8190014
 134.2839992  93.5509978 125.7750014 134.1868174  92.7561998 125.4345310
 136.2399992  78.6059978 123.0310014 136.7309992  77.9759978 122.5040014
 136.8629992  78.9019978 123.6950014 136.3915062  78.5596770 123.0485438
 141.2659992  78.8989978 125.4890014 141.4439992  78.2519978 126.1710014
 141.2119992  79.7329978 125.9560014 141.2831025  78.9230504 125.6456433
 143.1439992  93.8469978 123.8840014 144.0099992  94.2139978 123.7060014
 142.8979992  93.4079978 123.0700014 143.2292097  93.8378525 123.7496019
 135.4999992  77.4059978 138.3030014 135.1339992  76.6399978 138.7460014
 136.4129992  77.4349978 138.5900014 135.5733225  77.3051906 138.4023459
 137.4729992  76.7559978 139.8390014 138.3719992  76.4819978 139.6540014
 137.0869992  76.0139978 140.3030014 137.5437237  76.6181508 139.8764710
 136.0979992  93.5579978 122.5120014 135.8299992  93.8439978 123.3850014
 136.8689992  93.0119978 122.6640014 136.1655600  93.5233330 122.6521499
  12.6289992 104.9039978 128.7440014  12.7179992 105.8479978 128.6120014
  11.9909992 104.6289978 128.0860014  12.5549062 104.9959812 128.6369641
  11.5619992 104.1589978 132.1630014  11.5239992 103.5129978 132.8680014
  11.2399992 103.6919978 131.3920014  11.5132679 104.0074276 132.1552921
   3.9299992 103.7729978 133.7560014   3.9719992 103.1479978 134.4790014
   4.6329992 104.3969978 133.9380014   4.0307345 103.7717873 133.8795273
  15.2679992 107.0979978 130.4650014  14.8269992 106.3779978 130.9150014
  15.2549992 107.8189978 131.0940014  15.2057960 107.0968329 130.6117567
   4.8539992 108.2229978 132.2910014   4.4839992 107.4209978 131.9210014
   5.7949992 108.0549978 132.3370014   4.9305984 108.0904638 132.2465603
   1.4639992 101.8829978 127.6840014   1.0159992 102.7289978 127.6650014
   0.9029992 101.3039978 127.1680014   1.3269603 101.9203674 127.6116720
   2.1739992 104.0449978 129.8100014   2.3879992 103.2749978 130.3370014
   2.9119992 104.1349978 129.2060014   2.3029652 103.9518012 129.8005212
  12.3799992 112.2019978 130.6770014  12.9989992 111.5259978 130.4030014
  12.1709992 111.9839978 131.5850014  12.4366232 112.0797938 130.7622517
   9.9509992 106.5909978 132.5690014  10.2549992 105.9049978 131.9750014
  10.6729992 106.7099978 133.1870014  10.0901152 106.5132189 132.5712123
  18.6139992  98.1929978 133.4300014  18.6639992  98.8029978 134.1660014
  19.0399992  98.6539978 132.7070014  18.6784108  98.3387709 133.4330112
  13.0919992 100.9849978 132.8970014  13.2349992 100.0389978 132.9170014
  12.9859992 101.1919978 131.9680014  13.0972509 100.8834813 132.7742231
   6.2469992  99.0869978 130.1690014   6.2899992  99.9469978 129.7510014
   5.7889992  98.5349978 129.5350014   6.1909815  99.1300621 130.0261197
  13.9689992  99.2179978 128.5700014  14.6159992  98.8889978 129.1950014
  14.4789992  99.7349978 127.9470014  14.1264317  99.2429227 128.5712167
   2.8669992 101.4839978 130.9310014   3.5209992 100.9339978 131.3630014
   2.8909992 101.2099978 130.0140014   2.9597199 101.3717167 130.8661668
   8.0239992 103.0339978 130.1460014   8.6399992 102.5069978 130.6560014
   7.4369992 102.3939978 129.7430014   8.0289239 102.8754117 130.1612952
  19.0059992  99.6709978 135.6660014  18.3169992 100.3289978 135.5700014
  19.0209992  99.4729978 136.6020014  18.9136740  99.7343243 135.7794630
   5.0569992  98.0049978 134.2430014   4.8379992  98.5349978 133.4770014
   4.3889992  98.2309978 134.8900014   4.9367001  98.1081154 134.2256064
  12.4259992 107.5049978 127.7870014  12.1309992 107.1819978 126.9360014
  12.1019992 108.4049978 127.8280014  12.3417983 107.5824026 127.6759771
   7.6259992 105.6799978 134.5310014   6.8859992 106.2789978 134.6340014
   8.3399992 106.2339978 134.2150014   7.6213288 105.8367356 134.5023805
  15.7329992  98.5089978 130.5500014  15.5179992  97.7429978 131.0830014
  16.3889992  98.9809978 131.0630014  15.7922673  98.4680728 130.6921990
   4.6509992  99.8969978 132.1950014   5.2649992 100.5299978 132.5690014
   5.1629992  99.4249978 131.5390014   4.8042277  99.9197352 132.1574279
   6.0339992 107.6449978 135.3180014   6.0279992 108.5239978 134.9400014
   5.1799992 107.5609978 135.7430014   5.9177925 107.7539535 135.3236887
   2.1549992 107.3159978 126.1000014   1.8829992 107.5449978 125.2110014
   2.1999992 108.1529978 126.5600014   2.1238709 107.4606058 126.0406107
  15.7799992 108.9369978 132.8120014  14.8379992 108.9959978 132.9740014
  16.0559992 109.8429978 132.6750014  15.6885865 109.0675288 132.8156192
  16.0799992  97.2239978 134.2300014  15.3439992  97.8339978 134.1920014
  16.7639992  97.6389978 133.7030014  16.0715506  97.3636400 134.1536051
   9.0839992  95.3099978 131.6960014   8.9659992  94.3619978 131.6410014
   8.2289992  95.6429978 131.9690014   8.9522679  95.2251926 131.7253720
  14.0319992 110.7179978 129.4380014  14.4569992 110.0109978 128.9530014
  14.3489992 111.5199978 129.0210014  14.1330266 110.7295190 129.3152479
  15.1919992 108.6189978 127.9460014  14.9339992 107.9289978 127.3350014
  15.2629992 108.1759978 128.7920014  15.1662837 108.4647106 127.9766912
  16.8779992 107.1859978 136.4240014  17.0169992 106.5939978 135.6840014
  17.0449992 108.0589978 136.0670014  16.9195562 107.2229896 136.2746283
  11.3499992 104.1479978 126.1960014  10.6389992 104.6829978 125.8440014
  12.0409992 104.2029978 125.5360014  11.3460751 104.2286777 126.0585858
  11.4039992 102.6049978 123.2350014  12.1049992 102.6279978 123.8860014
  11.7059992 101.9769978 122.5790014  11.5408282 102.5232339 123.2354496
  18.7189992 103.5259978 134.4900014  18.0669992 104.2199978 134.5790014
  19.1849992 103.7359978 133.6800014  18.6925937 103.6495019 134.3927533
  14.7559992 104.3569978 127.1480014  14.0239992 104.5859978 127.7210014
  15.2029992 103.6439978 127.6030014  14.7162753 104.2918972 127.2879715
  14.6529992 102.5319978 136.2160014  14.7329992 103.2949978 136.7870014
  14.0519992 102.8109978 135.5250014  14.5827245 102.6742630 136.2008424
   6.4009992 104.9879978 129.0300014   6.0709992 104.6169978 128.2120014
   6.9899992 104.3169978 129.3770014   6.4353970 104.8466063 128.9649404
   7.7679992 108.4159978 131.7120014   7.6729992 107.8369978 130.9550014
   8.4969992 108.0449978 132.2080014   7.8536161 108.2865891 131.6755209
   6.7679992 103.7559978 132.6640014   7.3329992 103.8779978 131.9010014
   7.0869992 104.3939978 133.3030014   6.8883977 103.8588851 132.6459424
  13.0769992 109.2599978 133.3980014  12.8369992 109.9219978 134.0460014
  12.8789992 108.4249978 133.8230014  13.0173826 109.2378115 133.5441566
   7.6479992 108.1559978 137.3810014   7.3369992 108.9379978 137.8360014
   6.9979992 108.0029978 136.6950014   7.5175538 108.2424087 137.3505898
  13.6269992 103.5199978 124.8330014  14.2059992 103.6699978 125.5800014
  14.0409992 103.9899978 124.1100014  13.7623122 103.6041277 124.8375042
   4.5679992 104.3539978 136.6100014   4.6379992 105.0049978 137.3080014
   3.6769992 104.4569978 136.2750014   4.4571802 104.4569757 136.6602249
  11.3529992 110.2559978 128.2680014  11.8269992 110.5519978 129.0460014
  10.7899992 110.9949978 128.0350014  11.3417361 110.3962721 128.3428611
   5.8869992 110.2269978 138.1440014   5.8949992 110.0909978 137.1970014
   4.9709992 110.1099978 138.3960014   5.7642528 110.1925463 138.0483243
  17.3259992  95.2699978 124.6460014  16.4259992  95.4089978 124.9410014
  17.5779992  96.1009978 124.2440014  17.2368683  95.4014055 124.6320232
   5.3919992 104.0569978 126.6200014   5.0999992 104.8249978 126.1290014
   4.7169992 103.3979978 126.4570014   5.2608497 104.0729745 126.5308260
  18.5149992 109.6359978 123.0220014  18.5879992 110.5749978 123.1930014
  19.4199992 109.3309978 122.9660014  18.6474158 109.7233061 123.0378392
   1.4849992 106.4199978 135.4350014   0.9829992 106.3919978 134.6200014
   1.4899992 105.5149978 135.7440014   1.4170416 106.2937368 135.3653766
   1.2349992 109.2009978 132.3190014   2.1809992 109.0559978 132.3000014
   1.1219992 109.9849978 132.8560014   1.3493578 109.2871697 132.3890317
  19.4329992 109.8669978 138.0010014  19.3829992 108.9109978 137.9640014
  18.6059992 110.1339978 138.4020014  19.3143987 109.7725174 138.0501446
  10.4109992 109.4409978 136.8770014  10.4989992 110.2669978 137.3520014
   9.5479992 109.1109978 137.1260014  10.3063357 109.5095468 136.9757653
  10.8259992 113.2129978 126.6830014  10.7499992 113.0919978 125.7370014
  10.8579992 114.1619978 126.8020014  10.8199156 113.3247530 126.5695048
   4.4789992 112.0019978 128.4640014   4.6309992 111.6539978 129.3430014
   3.6279992 111.6449978 128.2090014   4.3847899 111.9061738 128.5497340
  13.9269992 112.3669978 123.6850014  14.3019992 111.6229978 123.2150014
  13.9319992 112.0969978 124.6040014  13.9790024 112.2286950 123.7447987
  13.5959992 112.2929978 126.4350014  12.6609992 112.3929978 126.6130014
  13.8759992 111.5829978 127.0130014  13.5058173 112.2107239 126.5374998
  16.5849992 101.3599978 138.4810014  16.1769992 101.8399978 137.7610014
  16.6249992 100.4539978 138.1730014  16.5345476 101.3033160 138.3408247
   3.7339992 107.7439978 136.4780014   3.9499992 107.3819978 137.3370014
   2.8779992 107.3689978 136.2680014   3.6479354 107.6437906 136.5672160
   6.3519992  96.2139978 132.4730014   5.4909992  96.1269978 132.0660014
   6.3299992  97.0699978 132.9010014   6.2310411  96.3177884 132.4750857
  11.0149992  95.9359978 135.8480014  11.4349992  95.5209978 136.6010014
  10.0819992  95.7569978 135.9650014  10.9463736  95.8549910 135.9668968
  14.3419992  99.6909978 136.7010014  13.8279992  99.5659978 137.4990014
  14.1859992 100.6039978 136.4570014  14.2506967  99.7972123 136.7770937
  15.1039992 104.5519978 122.4630014  15.1459992 104.3299978 121.5330014
  15.9529992 104.9509978 122.6530014  15.2245253 104.5755498 122.3613822
  10.6769992  98.4279978 123.1330014  10.4229992  98.4469978 124.0560014
  10.4199992  97.5569978 122.8320014  10.6075133  98.3128110 123.2185082
   6.4429992 101.1789978 133.5680014   5.8019992 101.1389978 134.2770014
   6.4809992 102.1059978 133.3310014   6.3603670 101.2987795 133.6330550
   6.4399992 101.3999978 128.4800014   5.5479992 101.0599978 128.4220014
   6.8909992 101.0229978 127.7250014   6.3786815 101.3023762 128.3699203
  11.9759992 101.8159978 127.2970014  11.5669992 102.6309978 127.0060014
  12.6959992 101.6759978 126.6830014  12.0174013 101.9086571 127.1740875
  11.0779992 101.9919978 138.7850014  10.5149992 101.2869978 139.1060014
  11.9039992 101.8709978 139.2530014  11.1126674 101.8792165 138.8921751
  12.9809992 101.2619978 130.1110014  12.7849992 101.8679978 129.3960014
  13.1619992 100.4289978 129.6770014  12.9786584 101.2322513 129.9544212
   4.1929992 101.4999978 135.4350014   4.1549992 101.8999978 136.3040014
   3.7029992 100.6829978 135.5260014   4.1215621 101.4442510 135.5661377
   7.5589992  98.8739978 122.2340014   7.1279992  98.4289978 122.9640014
   6.8409992  99.2449978 121.7220014   7.4029363  98.8632968 122.2646211
   0.8019992  98.6159978 129.2860014   1.4319992  98.5869978 130.0050014
   1.2509992  98.1909978 128.5560014   0.9490692  98.5545316 129.2857771
   2.0759992  99.3619978 124.7100014   2.5499992  99.9529978 124.1250014
   1.3579992  99.8919978 125.0570014   2.0438640  99.5145511 124.6767969
  12.2449992 102.8999978 134.7830014  12.5679992 102.2689978 134.1400014
  11.8039992 102.3659978 135.4430014  12.2295789 102.7413522 134.7842232
   9.0219992  98.8279978 129.5670014   8.1109992  98.8849978 129.8550014
   9.5269992  98.7679978 130.3770014   8.9655387  98.8276870 129.7160646
   3.8499992 100.4569978 128.3930014   2.9609992 100.5559978 128.0530014
   4.1469992  99.6149978 128.0470014   3.7684177 100.3567687 128.2996940
   7.5029992 100.4569978 126.0500014   8.4349992 100.5859978 126.2280014
   7.2879992 101.1259978 125.4000014   7.6014472 100.5650806 125.9864891
  13.4269992  98.0629978 132.8310014  12.7499992  98.1939978 133.4950014
  12.9419992  97.9079978 132.0210014  13.2687265  98.0599659 132.8123397
   6.1769992 101.6509978 123.6170014   5.6349992 101.2719978 122.9250014
   7.0109992 101.8459978 123.1880014   6.2155159 101.6255076 123.4644419
  16.7149992 113.7339978 139.1080014  16.9139992 114.1579978 138.2730014
  17.3699992 114.0779978 139.7150014  16.8308501 113.8386091 139.0757097
   4.3129992 106.2079978 138.7160014   5.0449992 106.4629978 139.2770014
   3.5319992 106.4129978 139.2310014   4.3077684 106.2706468 138.8624782
  10.3419992 101.6149978 131.4540014  10.9059992 101.0689978 130.9070014
  10.1939992 101.0939978 132.2420014  10.3992575 101.4696552 131.4856987
   5.3439992  97.7519978 127.8720014   5.0269992  96.8489978 127.8370014
   6.1249992  97.7539978 127.3190014   5.4062307  97.6286951 127.7924314
   8.9679992 100.0039978 133.8680014   8.1329992 100.4579978 133.9780014
   9.4919992 100.2799978 134.6200014   8.9245070 100.1034666 133.9847152
   9.5129992 106.2169978 125.5520014   8.7679992 105.7089978 125.2300014
   9.3779992 106.2659978 126.4990014   9.3929047 106.1541596 125.6358845
  16.6629992 105.3499978 134.3390014  17.3039992 105.8059978 133.7950014
  15.8319992 105.4629978 133.8770014  16.6385171 105.4277502 134.2020237
  13.4099992  99.0309978 123.7520014  12.4719992  99.1419978 123.6000014
  13.7079992  99.8869978 124.0580014  13.3216402  99.1620621 123.7725571
  11.0319992 106.4009978 136.7890014  10.6859992 106.0189978 137.5960014
  10.8319992 107.3339978 136.8610014  10.9576523 106.4749095 136.9090735
  14.1289992 100.8979978 125.4120014  15.0209992 100.7599978 125.7310014
  14.1849992 101.6889978 124.8760014  14.2587107 100.9860526 125.3832091
   4.6369992 105.5119978 131.3220014   5.3819992 105.5089978 130.7210014
   4.7149992 104.6879978 131.8040014   4.7494158 105.4002916 131.3049153
  11.6379992 107.6749978 124.5780014  11.3429992 108.5019978 124.9590014
  10.9349992 107.0559978 124.7740014  11.5025471 107.7045227 124.6566698
   1.6449992 103.9719978 136.6370014   1.8679992 103.5539978 137.4690014
   1.0429992 103.3599978 136.2140014   1.5941260 103.8319933 136.6937320
   8.6619992 103.4889978 138.8500014   8.3659992 103.3239978 137.9550014
   9.5929992 103.2689978 138.8390014   8.7473982 103.4366578 138.7260045
  13.2819992 108.8629978 136.7400014  12.3819992 109.0459978 136.4720014
  13.3159992 109.1219978 137.6610014  13.1632909 108.9230815 136.8277852
  19.0139992 101.1069978 125.1070014  18.4589992 100.7109978 124.4350014
  19.1139992 102.0179978 124.8290014  18.9515888 101.1758990 124.9775206
  18.9769992 106.9079978 137.9440014  18.1259992 107.1459978 137.5770014
  19.5669992 106.8909978 137.1910014  18.9402408 106.9382966 137.7918879
  17.3089992 109.8929978 125.5720014  16.9359992 109.0679978 125.8810014
  17.5859992 109.7099978 124.6750014  17.2953871 109.7552441 125.4929677
  14.4689992 104.7009978 132.5930014  13.5409992 104.4699978 132.5660014
  14.9199992 103.9239978 132.2630014  14.4028165 104.5642774 132.5446790
   7.0119992 109.0299978 128.7260014   7.5399992 109.8029978 128.5260014
   6.1319992 109.2539978 128.4250014   6.9653176 109.1663161 128.6578409
   2.7669992 103.8919978 123.3140014   3.3829992 104.5189978 123.6930014
   1.9049992 104.2079978 123.5850014   2.7348195 104.0205798 123.4025386
   8.4399992 106.6929978 128.3030014   8.1989992 107.6179978 128.3440014
   7.6989992 106.2339978 128.6990014   8.3068390 106.7576403 128.3621404
   8.9539992 110.8419978 134.6180014   9.3169992 111.6959978 134.3840014
   9.4859992 110.5499978 135.3580014   9.0756090 110.9194058 134.6860219
   7.1229992 111.7139978 127.8480014   6.1729992 111.8199978 127.8990014
   7.4749992 112.5349978 128.1930014   7.0405480 111.8394438 127.9015999
  12.4979992 106.9409978 134.3180014  12.0729992 106.7129978 135.1450014
  13.0789992 106.2019978 134.1360014  12.5183930 106.8099843 134.4064732
  14.7009992 107.8699978 123.3920014  15.0549992 107.4899978 124.1970014
  13.7529992 107.7759978 123.4790014  14.6211820 107.8053092 123.5138714
  15.1569992 111.4929978 136.7880014  14.5549992 110.9369978 136.2920014
  15.4379992 112.1599978 136.1620014  15.1126829 111.5071613 136.6355443
  19.2049992 112.3489978 123.5930014  19.9489992 112.9349978 123.4530014
  18.5109992 112.9179978 123.9270014  19.2130201 112.5060603 123.6189772
   3.2789992  98.7259978 136.1950014   2.3869992  99.0639978 136.1280014
   3.1809992  97.8699978 136.6130014   3.1434965  98.6566499 136.2423044
  15.5669992 106.5419978 125.6190014  15.2899992 105.8139978 126.1750014
  16.4949992 106.6609978 125.8240014  15.6544499 106.4584213 125.7228044
   2.9309992 110.5299978 134.6300014   3.1479992 109.5979978 134.5990014
   3.1769992 110.8049978 135.5130014   2.9939809 110.4395686 134.7451691
   8.7919992 108.9819978 121.8390014   9.0309992 108.2329978 121.2920014
   8.5229992 108.5939978 122.6720014   8.7883233 108.8271853 121.8767809
   7.7289992 108.5519978 124.2960014   7.8759992 108.0319978 125.0860014
   7.7259992 109.4589978 124.6020014   7.7487300 108.6033964 124.4455895
   4.1819992 105.8039978 124.8060014   3.4959992 106.1569978 125.3730014
   4.7049992 106.5669978 124.5600014   4.1589033 105.9553746 124.8502661
  12.0139992  98.4669978 135.0850014  12.7129992  98.5409978 135.7350014
  11.6329992  97.6019978 135.2390014  12.0582097  98.3602389 135.1947997
  12.7979992  98.1189978 126.1820014  13.0179992  98.5899978 125.3790014
  13.3569992  98.5129978 126.8520014  12.9036730  98.2367432 126.1625906
  10.4669992 110.2489978 125.0450014   9.6499992 110.7459978 125.0970014
  10.9959992 110.7249978 124.4050014  10.4268508 110.3812543 124.9656035
   9.9979992  99.8469978 127.0170014  10.8099992 100.3509978 127.0630014
   9.7539992  99.7019978 127.9310014  10.0761467  99.8963749 127.1468575
  10.5339992 100.8329978 136.2020014  10.6529992 101.4069978 136.9590014
  11.1889992 100.1449978 136.3160014  10.6389146 100.8185574 136.3211314
  10.8819992  96.9279978 127.9550014  10.5349992  97.5449978 128.6000014
  11.5409992  97.4289978 127.4740014  10.9235949  97.0801099 127.9782271
   7.8049992 111.2929978 125.0270014   7.9659992 112.0929978 124.5260014
   7.6079992 111.5999978 125.9120014   7.8003919 111.4439129 125.0781006
   6.5399992  97.9909978 124.6420014   6.4559992  98.8789978 124.9890014
   7.4299992  97.7259978 124.8740014   6.6488163  98.0767179 124.7208596
  16.7379992  98.7399978 137.0370014  15.8219992  99.0019978 136.9490014
  17.0739992  98.7369978 136.1400014  16.6579789  98.7754626 136.9037847
  15.3409992 102.4899978 131.1320014  14.5429992 102.0749978 130.8040014
  15.7859992 101.7999978 131.6230014  15.2919684 102.3398628 131.1535227
   4.7979992 108.4179978 123.7030014   5.3899992 109.1179978 123.9790014
   5.2569992 107.9849978 122.9830014   4.9410791 108.4552908 123.6434607
   3.1139992 101.0829978 122.8190014   3.0689992 102.0219978 122.9970014
   2.2259992 100.8469978 122.5490014   2.9878555 101.1796874 122.8068939
  16.4269992 111.7459978 132.7550014  16.2709992 112.4249978 132.0980014
  17.3599992 111.8179978 132.9580014  16.5317387 111.8486390 132.6925342
   3.9219992  95.8639978 131.4920014   3.6929992  95.9229978 130.5640014
   3.4799992  95.0729978 131.7980014   3.8308801  95.7650540 131.4064729
   2.8529992 109.8049978 127.6520014   2.0199992 110.2769978 127.6800014
   3.3979992 110.3149978 127.0540014   2.8127590 109.9385897 127.5749194
   2.1409992 112.4169978 138.9820014   2.6809992 112.2009978 139.7420014
   1.6599992 111.6119978 138.7930014   2.1498613 112.2785400 139.0604782
   6.7379992 111.3369978 140.6030014   7.5059992 110.8779978 140.9440014
   6.7169992 111.1109978 139.6730014   6.8402135 111.2436668 140.5239491
  10.8299992 110.8449978 121.9780014  10.1859992 110.2139978 122.2990014
  11.5919992 110.3139978 121.7460014  10.8448058 110.6867902 121.9906038
  13.3149992 109.7169978 139.3320014  12.9639992 108.8599978 139.5750014
  14.0409992 109.8589978 139.9390014  13.3651590 109.6190178 139.4472907
  15.4349992 110.6619978 122.2120014  15.7179992 109.8669978 122.6640014
  16.1739992 110.8949978 121.6510014  15.5736956 110.5847031 122.1979822
   2.0479992 106.2279978 139.9370014   2.1919992 105.3259978 139.6500014
   1.2759992 106.5139978 139.4490014   1.9633303 106.1433243 139.8317908
   6.3889992 106.5709978 122.0690014   6.4539992 105.7769978 122.6000014
   7.0419992 106.4529978 121.3790014   6.4861754 106.4463337 122.0484259
   8.7029992 106.1969978 139.3690014   8.3749992 106.4679978 138.5120014
   8.8549992 105.2559978 139.2820014   8.6786030 106.1068973 139.2397945
  11.7419992 107.6179978 121.8050014  11.4729992 107.7989978 122.7060014
  11.5349992 106.6929978 121.6740014  11.6772000 107.5176774 121.9105693
  14.4379992 106.1129978 136.7530014  15.1829992 106.7019978 136.6330014
  13.6809992 106.6949978 136.8160014  14.4375205 106.2721997 136.7451119
   2.8809992 103.4279978 139.3570014   3.2889992 102.5709978 139.2360014
   2.6199992 103.4419978 140.2780014   2.9016016 103.3125119 139.4649192
   7.5389992 104.5439978 124.3750014   7.0789992 104.0599978 125.0610014
   7.7939992 103.8749978 123.7390014   7.5105038 104.3873689 124.3829447
   6.8279992 102.4369978 136.7310014   6.2089992 103.1109978 137.0110014
   7.1719992 102.7579978 135.8980014   6.7897605 102.5727198 136.6566707
   8.6099992 102.7869978 122.6370014   8.4289992 102.6319978 121.7100014
   9.5599992 102.8949978 122.6820014   8.7136566 102.7803669 122.5160929
  11.8469992 104.9079978 140.0080014  12.8009992 104.9919978 139.9810014
  11.6869992 104.1959978 140.6280014  11.9557182 104.8232842 140.0880733
  17.9999992 105.1409978 122.0830014  17.7259992 104.7169978 121.2700014
  18.0389992 106.0729978 121.8660014  17.9677716 105.2088827 121.9424286
   7.1669992  99.7919978 137.8130014   7.3169992  99.0629978 137.2110014
   7.1689992 100.5689978 137.2540014   7.1877967  99.7972708 137.6550541
   7.5799992  98.1609978 135.3060014   8.1149992  98.6129978 134.6540014
   6.7269992  98.0529978 134.8830014   7.5380374  98.2082665 135.1596710
   9.1609992 103.6009978 135.5450014   9.9119992 103.4449978 134.9720014
   8.8219992 104.4529978 135.2700014   9.2179587 103.6948138 135.4294078
  13.5769992 101.4159978 140.5740014  13.7689992 100.4849978 140.4620014
  14.4349992 101.8409978 140.5640014  13.7192269 101.3459928 140.5573192
  14.8939992 104.2049978 138.6510014  14.6119992 104.9139978 138.0740014
  15.8359992 104.1319978 138.5000014  14.9827656 104.2923128 138.5514809
   5.6459992 100.9899978 139.7250014   4.8779992 100.4569978 139.5150014
   6.3239992 100.6799978 139.1250014   5.6326973 100.8752375 139.6151796
   8.3849992  95.6179978 135.7370014   8.2869992  96.5639978 135.6320014
   7.6429992  95.2449978 135.2620014   8.2711913  95.6971813 135.6583539
   9.6489992  99.9389978 139.3010014   9.4139992  99.7199978 140.2030014
   8.8659992  99.7319978 138.7910014   9.5109219  99.8810066 139.3555852
  12.3649992  99.0669978 138.3770014  11.4169992  99.0989978 138.5090014
  12.6769992  98.4409978 139.0300014  12.2775190  98.9867262 138.4833564
  13.9989992  97.7009978 140.3820014  13.9019992  96.7489978 140.3760014
  13.6769992  97.9689978 141.2420014  13.9421761  97.6069744 140.4974936
   3.8259992  98.9099978 139.4290014   4.0379992  98.2039978 138.8190014
   3.7149992  98.4729978 140.2730014   3.8400269  98.7541921 139.4595873
   8.6069992  94.9119978 138.4090014   9.3189992  94.2719978 138.3950014
   8.5059992  95.1779978 137.4950014   8.6907261  94.8604190 138.2835537
   8.9609992  96.5939978 140.4620014   8.8289992  96.1189978 139.6420014
   8.3609992  97.3389978 140.4070014   8.8619070  96.6295789 140.3423251
   8.5069992 113.4769978 123.6390014   9.4399992 113.6349978 123.7820014
   8.2429992 114.1529978 123.0140014   8.5989308 113.5899104 123.5741396
   2.0749992 108.1139978 123.1210014   2.9889992 108.1929978 123.3950014
   2.0829992 107.4269978 122.4550014   2.2011143 108.0319085 123.0684274
   0.7239992 113.5069978 128.1990014   0.0769992 113.0449978 127.6660014
   1.0789992 112.8349978 128.7810014   0.6834506 113.3529503 128.2047341
   1.5939992 111.5869978 130.0030014   1.2599992 110.7069978 130.1750014
   1.8169992 111.9329978 130.8680014   1.5783721 111.5131938 130.1434168
  19.1429992 112.3969978 132.9840014  19.1209992 112.5819978 133.9230014
  19.8329992 112.9649978 132.6430014  19.2333439 112.4991887 133.0664791
  18.7059992 111.9639978 135.9060014  18.2189992 111.2289978 135.5350014
  19.2549992 111.5699978 136.5840014  18.7135247 111.8101057 135.9468461
  17.1569992 107.7539978 140.5440014  16.2909992 107.6489978 140.9380014
  17.5329992 108.5119978 140.9900014  17.0893401 107.8421708 140.6582620
  18.4579992 106.0099978 126.0580014  19.3079992 106.4309978 126.1850014
  18.4629992 105.2699978 126.6650014  18.5751143 105.9676094 126.1574750
  18.8519992 104.0639978 127.8820014  18.1259992 103.5839978 128.2790014
  19.4339992 104.2689978 128.6140014  18.8311635 104.0259166 128.0353748
  18.6109992 106.8489978 132.8290014  19.4449992 106.4709978 132.5490014
  18.7229992 107.7919978 132.7100014  18.7402522 106.9247742 132.7746020
  17.0979992 109.7269978 135.1360014  16.4499992 110.0519978 135.7620014
  16.5799992 109.2859978 134.4620014  16.9394168 109.7118523 135.1305307
  19.1209992 103.9649978 124.2730014  18.5989992 104.3209978 123.5540014
  19.0879992 104.6399978 124.9510014  19.0450699 104.1049848 124.2662129
  17.4699992 101.2039978 122.8240014  17.5659992 101.8709978 122.1440014
  17.3299992 100.3889978 122.3420014  17.4642063 101.1850667 122.6658377
  16.6389992 102.5849978 128.4450014  16.4889992 101.6399978 128.4240014
  16.2849992 102.8659978 129.2880014  16.5705527 102.4935605 128.5561859
   1.6739992 104.6629978 132.4550014   1.8589992 104.5809978 131.5190014
   2.5239992 104.5389978 132.8790014   1.8140916 104.6350393 132.3842896
  17.4949992 104.5549978 138.0830014  18.0779992 103.8199978 138.2750014
  18.0589992 105.3269978 138.1300014  17.6509781 104.5588145 138.1156164
  18.9919992 102.4579978 138.7680014  18.1289992 102.0789978 138.6020014
  19.5959992 101.7189978 138.6940014  18.9555944 102.3062978 138.7352984
  16.7169992  98.6119978 121.9410014  17.3279992  98.2409978 122.5780014
  15.8799992  98.1909978 122.1370014  16.6874947  98.5042756 122.0547252
  16.3499992 100.1669978 126.9070014  16.6289992  99.2599978 127.0310014
  17.1089992 100.6009978 126.5180014  16.4908619 100.1014502 126.8713795
  16.9609992 100.7489978 132.3430014  17.8939992 100.9609978 132.3090014
  16.7259992 100.8499978 133.2650014  17.0568308 100.7916503 132.4630214
  16.9909992 101.4859978 135.1190014  16.1479992 101.7539978 135.4850014
  17.4329992 102.3079978 134.9080014  16.9354138 101.6338273 135.1405518
   1.2719992  99.9329978 138.5960014   2.1909992  99.8109978 138.8320014
   0.8219992  99.1829978 138.9850014   1.3371148  99.8148751 138.6809408
  19.2739992  95.4659978 140.4720014  19.6229992  94.8119978 139.8670014
  19.4209992  96.3029978 140.0330014  19.3417355  95.4896067 140.3296564
  16.9629992  97.4299978 126.9550014  17.1449992  96.9809978 127.7810014
  16.3629992  96.8459978 126.4920014  16.9067529  97.2896131 127.0053619
   2.4929992  98.2459978 131.4870014   2.9379992  97.4539978 131.7890014
   2.9589992  98.9619978 131.9180014   2.6169059  98.2344474 131.5866079
   0.7969992 101.2449978 132.5560014   1.2889992 101.0239978 131.7650014
   1.1589992 102.0849978 132.8370014   0.9132923 101.3283468 132.4857407
  18.7929992  97.5749978 138.8220014  17.8759992  97.8459978 138.7860014
  18.9159992  97.0399978 138.0380014  18.6840828  97.5397700 138.7110785
  18.8299992  97.4979978 123.4830014  19.2419992  96.7769978 123.0080014
  19.5109992  98.1669978 123.5420014  18.9785900  97.4897306 123.4259038
   1.1109992  97.5029978 126.6100014   0.1859992  97.7109978 126.4810014
   1.5649992  97.9869978 125.9210014   1.0456374  97.5969949 126.4990957
  15.8809992 112.4869978 128.5560014  16.5339992 112.1389978 127.9480014
  16.3919992 112.9749978 129.2020014  16.0392777 112.5053815 128.5602047
   1.0739992  96.2409978 134.9550014   0.4089992  95.9949978 135.5980014
   0.6309992  96.8629978 134.3770014   0.9230937  96.2913614 134.9649379
   3.2659992 109.4159978 139.0990014   2.4449992 109.5909978 138.6390014
   3.0139992 109.3429978 140.0200014   3.1196173 109.4300794 139.1604972
   6.2199992 110.3899978 135.3580014   5.7959992 111.1999978 135.0750014
   7.1249992 110.4759978 135.0560014   6.2842433 110.5123331 135.2785377
  10.5319992 111.7889978 138.3170014  10.7159992 111.4559978 139.1950014
  11.3779992 112.0989978 137.9950014  10.6716484 111.7852979 138.3937617
  12.8769992 113.0749978 137.5610014  13.5539992 112.4419978 137.3210014
  13.1979992 113.4759978 138.3680014  13.0131323 113.0425691 137.6373158
  17.7939992  95.6649978 136.6410014  16.9809992  95.9899978 136.2530014
  18.0269992  94.9039978 136.1080014  17.7142566  95.6066559 136.5159213
   3.6219992 113.6469978 135.4050014   2.9019992 114.0869978 134.9540014
   3.2569992 113.3959978 136.2540014   3.4739796 113.6733824 135.4579329
   6.0889992 113.2469978 134.4350014   5.2249992 113.3189978 134.8390014
   6.0339992 113.7939978 133.6510014   5.9631942 113.3307849 134.3844000
  10.7999992 113.1349978 133.6100014  10.3429992 113.6639978 132.9560014
  10.9629992 113.7379978 134.3360014  10.7594476 113.2889140 133.6185499
  13.1279992 112.0129978 134.5550014  12.2229992 112.1779978 134.2900014
  13.5559992 112.8659978 134.4900014  13.0620700 112.1509529 134.5099520
  15.7319992 113.5829978 134.8500014  15.5499992 114.4989978 134.6400014
  15.9089992 113.1719978 134.0040014  15.7309907 113.6529741 134.7067883
   3.0369992 112.2699978 132.3150014   3.0189992 111.8439978 133.1730014
   3.8419992 111.9509978 131.9070014   3.1433221 112.1687233 132.3770225
   5.1779992 110.9799978 130.9700014   4.9589992 110.0629978 131.1400014
   6.0019992 111.1199978 131.4360014   5.2594702 110.8735511 131.0562527
   7.7149992 111.4499978 131.8190014   7.9279992 110.5619978 131.5320014
   7.7799992 111.4149978 132.7740014   7.7529075 111.3238307 131.9087373
  11.2239992  97.1139978 130.9630014  10.5499992  96.4839978 131.2190014
  11.7879992  96.6299978 130.3600014  11.2080384  96.9623708 130.9165020
  16.3669992  95.2209978 131.0760014  16.9699992  95.7689978 130.5740014
  15.4969992  95.5399978 130.8360014  16.3319190  95.3391041 130.9748679
  18.0939992  96.3599978 129.4090014  18.7049992  95.8459978 128.8830014
  18.4759992  97.2369978 129.4330014  18.2294475  96.4081323 129.3401208
   3.5509992  95.7479978 128.7850014   2.7739992  95.5129978 128.2780014
   4.0809992  94.9509978 128.7940014   3.5163451  95.6081268 128.7168627
   2.3869992  95.5459978 124.5890014   2.8259992  96.1569978 123.9970014
   1.7529992  96.0839978 125.0630014   2.3613859  95.7024064 124.5720305
   8.1299992  95.6739978 128.5990014   9.0039992  96.0629978 128.5690014
   7.9939992  95.4589978 129.5210014   8.2313207  95.6981923 128.7196509
  13.6869992  95.7039978 130.2480014  13.7629992  95.7999978 129.2990014
  13.4119992  94.7969978 130.3770014  13.6602042  95.5944241 130.1353811
  15.0399992  95.7299978 125.9400014  14.3369992  96.3449978 125.7310014
  14.5949992  94.8929978 126.0720014  14.8836292  95.7010085 125.9292439
   2.2879992 111.4939978 125.4870014   1.6029992 111.4559978 124.8190014
   2.2919992 112.4069978 125.7750014   2.1948174 111.6121998 125.4345310
   4.2479992  97.4619978 123.0310014   4.7389992  96.8319978 122.5040014
   4.8709992  97.7579978 123.6950014   4.3995062  97.4156770 123.0485438
   9.2739992  97.7549978 125.4890014   9.4519992  97.1079978 126.1710014
   9.2199992  98.5889978 125.9560014   9.2911025  97.7790504 125.6456433
  11.1519992 112.7029978 123.8840014  12.0179992 113.0699978 123.7060014
  10.9059992 112.2639978 123.0700014  11.2372097 112.6938525 123.7496019
  17.8609992 112.2659978 126.5630014  17.6669992 111.5179978 125.9980014
  17.8219992 113.0239978 125.9800014  17.8291645 112.2660786 126.4068148
   3.5079992  96.2619978 138.3030014   3.1419992  95.4959978 138.7460014
   4.4209992  96.2909978 138.5900014   3.5813225  96.1611906 138.4023459
   5.4809992  95.6119978 139.8390014   6.3799992  95.3379978 139.6540014
   5.0949992  94.8699978 140.3030014   5.5517237  95.4741508 139.8764710
   4.1059992 112.4139978 122.5120014   3.8379992 112.6999978 123.3850014
   4.8769992 111.8679978 122.6640014   4.1735600 112.3793330 122.6521499
  13.9029992  94.9449978 140.0210014  13.9789992  94.5189978 140.8750014
  14.7959992  94.9579978 139.6780014  14.0342267  94.8883952 140.0915932
  17.0789992 111.0179978 138.7130014  16.2969992 110.8309978 138.1940014
  17.0069992 111.9469978 138.9310014  16.9620863 111.1180221 138.6713574
  31.4849992 104.9039978 128.7440014  31.5739992 105.8479978 128.6120014
  30.8469992 104.6289978 128.0860014  31.4109062 104.9959812 128.6369641
  30.4179992 104.1589978 132.1630014  30.3799992 103.5129978 132.8680014
  30.0959992 103.6919978 131.3920014  30.3692679 104.0074276 132.1552921
  22.7859992 103.7729978 133.7560014  22.8279992 103.1479978 134.4790014
  23.4889992 104.3969978 133.9380014  22.8867345 103.7717873 133.8795273
  34.1239992 107.0979978 130.4650014  33.6829992 106.3779978 130.9150014
  34.1109992 107.8189978 131.0940014  34.0617960 107.0968329 130.6117567
  23.7099992 108.2229978 132.2910014  23.3399992 107.4209978 131.9210014
  24.6509992 108.0549978 132.3370014  23.7865984 108.0904638 132.2465603
  20.3199992 101.8829978 127.6840014  19.8719992 102.7289978 127.6650014
  19.7589992 101.3039978 127.1680014  20.1829603 101.9203674 127.6116720
  21.0299992 104.0449978 129.8100014  21.2439992 103.2749978 130.3370014
  21.7679992 104.1349978 129.2060014  21.1589652 103.9518012 129.8005212
  31.2359992 112.2019978 130.6770014  31.8549992 111.5259978 130.4030014
  31.0269992 111.9839978 131.5850014  31.2926232 112.0797938 130.7622517
  28.8069992 106.5909978 132.5690014  29.1109992 105.9049978 131.9750014
  29.5289992 106.7099978 133.1870014  28.9461152 106.5132189 132.5712123
  37.4699992  98.1929978 133.4300014  37.5199992  98.8029978 134.1660014
  37.8959992  98.6539978 132.7070014  37.5344108  98.3387709 133.4330112
  31.9479992 100.9849978 132.8970014  32.0909992 100.0389978 132.9170014
  31.8419992 101.1919978 131.9680014  31.9532509 100.8834813 132.7742231
  25.1029992  99.0869978 130.1690014  25.1459992  99.9469978 129.7510014
  24.6449992  98.5349978 129.5350014  25.0469815  99.1300621 130.0261197
  32.8249992  99.2179978 128.5700014  33.4719992  98.8889978 129.1950014
  33.3349992  99.7349978 127.9470014  32.9824317  99.2429227 128.5712167
  21.7229992 101.4839978 130.9310014  22.3769992 100.9339978 131.3630014
  21.7469992 101.2099978 130.0140014  21.8157199 101.3717167 130.8661668
  26.8799992 103.0339978 130.1460014  27.4959992 102.5069978 130.6560014
  26.2929992 102.3939978 129.7430014  26.8849239 102.8754117 130.1612952
  37.8619992  99.6709978 135.6660014  37.1729992 100.3289978 135.5700014
  37.8769992  99.4729978 136.6020014  37.7696740  99.7343243 135.7794630
  23.9129992  98.0049978 134.2430014  23.6939992  98.5349978 133.4770014
  23.2449992  98.2309978 134.8900014  23.7927001  98.1081154 134.2256064
  31.2819992 107.5049978 127.7870014  30.9869992 107.1819978 126.9360014
  30.9579992 108.4049978 127.8280014  31.1977983 107.5824026 127.6759771
  26.4819992 105.6799978 134.5310014  25.7419992 106.2789978 134.6340014
  27.1959992 106.2339978 134.2150014  26.4773288 105.8367356 134.5023805
  34.5889992  98.5089978 130.5500014  34.3739992  97.7429978 131.0830014
  35.2449992  98.9809978 131.0630014  34.6482673  98.4680728 130.6921990
  23.5069992  99.8969978 132.1950014  24.1209992 100.5299978 132.5690014
  24.0189992  99.4249978 131.5390014  23.6602277  99.9197352 132.1574279
  24.8899992 107.6449978 135.3180014  24.8839992 108.5239978 134.9400014
  24.0359992 107.5609978 135.7430014  24.7737925 107.7539535 135.3236887
  21.0109992 107.3159978 126.1000014  20.7389992 107.5449978 125.2110014
  21.0559992 108.1529978 126.5600014  20.9798709 107.4606058 126.0406107
  34.6359992 108.9369978 132.8120014  33.6939992 108.9959978 132.9740014
  34.9119992 109.8429978 132.6750014  34.5445865 109.0675288 132.8156192
  34.9359992  97.2239978 134.2300014  34.1999992  97.8339978 134.1920014
  35.6199992  97.6389978 133.7030014  34.9275506  97.3636400 134.1536051
  27.9399992  95.3099978 131.6960014  27.8219992  94.3619978 131.6410014
  27.0849992  95.6429978 131.9690014  27.8082679  95.2251926 131.7253720
  32.8879992 110.7179978 129.4380014  33.3129992 110.0109978 128.9530014
  33.2049992 111.5199978 129.0210014  32.9890266 110.7295190 129.3152479
  34.0479992 108.6189978 127.9460014  33.7899992 107.9289978 127.3350014
  34.1189992 108.1759978 128.7920014  34.0222837 108.4647106 127.9766912
  35.7339992 107.1859978 136.4240014  35.8729992 106.5939978 135.6840014
  35.9009992 108.0589978 136.0670014  35.7755562 107.2229896 136.2746283
  30.2059992 104.1479978 126.1960014  29.4949992 104.6829978 125.8440014
  30.8969992 104.2029978 125.5360014  30.2020751 104.2286777 126.0585858
  30.2599992 102.6049978 123.2350014  30.9609992 102.6279978 123.8860014
  30.5619992 101.9769978 122.5790014  30.3968282 102.5232339 123.2354496
  37.5749992 103.5259978 134.4900014  36.9229992 104.2199978 134.5790014
  38.0409992 103.7359978 133.6800014  37.5485937 103.6495019 134.3927533
  33.6119992 104.3569978 127.1480014  32.8799992 104.5859978 127.7210014
  34.0589992 103.6439978 127.6030014  33.5722753 104.2918972 127.2879715
  33.5089992 102.5319978 136.2160014  33.5889992 103.2949978 136.7870014
  32.9079992 102.8109978 135.5250014  33.4387245 102.6742630 136.2008424
  25.2569992 104.9879978 129.0300014  24.9269992 104.6169978 128.2120014
  25.8459992 104.3169978 129.3770014  25.2913970 104.8466063 128.9649404
  26.6239992 108.4159978 131.7120014  26.5289992 107.8369978 130.9550014
  27.3529992 108.0449978 132.2080014  26.7096161 108.2865891 131.6755209
  25.6239992 103.7559978 132.6640014  26.1889992 103.8779978 131.9010014
  25.9429992 104.3939978 133.3030014  25.7443977 103.8588851 132.6459424
  31.9329992 109.2599978 133.3980014  31.6929992 109.9219978 134.0460014
  31.7349992 108.4249978 133.8230014  31.8733826 109.2378115 133.5441566
  26.5039992 108.1559978 137.3810014  26.1929992 108.9379978 137.8360014
  25.8539992 108.0029978 136.6950014  26.3735538 108.2424087 137.3505898
  32.4829992 103.5199978 124.8330014  33.0619992 103.6699978 125.5800014
  32.8969992 103.9899978 124.1100014  32.6183122 103.6041277 124.8375042
  23.4239992 104.3539978 136.6100014  23.4939992 105.0049978 137.3080014
  22.5329992 104.4569978 136.2750014  23.3131802 104.4569757 136.6602249
  30.2089992 110.2559978 128.2680014  30.6829992 110.5519978 129.0460014
  29.6459992 110.9949978 128.0350014  30.1977361 110.3962721 128.3428611
  24.7429992 110.2269978 138.1440014  24.7509992 110.0909978 137.1970014
  23.8269992 110.1099978 138.3960014  24.6202528 110.1925463 138.0483243
  36.1819992  95.2699978 124.6460014  35.2819992  95.4089978 124.9410014
  36.4339992  96.1009978 124.2440014  36.0928683  95.4014055 124.6320232
  24.2479992 104.0569978 126.6200014  23.9559992 104.8249978 126.1290014
  23.5729992 103.3979978 126.4570014  24.1168497 104.0729745 126.5308260
  37.3709992 109.6359978 123.0220014  37.4439992 110.5749978 123.1930014
  38.2759992 109.3309978 122.9660014  37.5034158 109.7233061 123.0378392
  20.3409992 106.4199978 135.4350014  19.8389992 106.3919978 134.6200014
  20.3459992 105.5149978 135.7440014  20.2730416 106.2937368 135.3653766
  20.0909992 109.2009978 132.3190014  21.0369992 109.0559978 132.3000014
  19.9779992 109.9849978 132.8560014  20.2053578 109.2871697 132.3890317
  38.2889992 109.8669978 138.0010014  38.2389992 108.9109978 137.9640014
  37.4619992 110.1339978 138.4020014  38.1703987 109.7725174 138.0501446
  29.2669992 109.4409978 136.8770014  29.3549992 110.2669978 137.3520014
  28.4039992 109.1109978 137.1260014  29.1623357 109.5095468 136.9757653
  29.6819992 113.2129978 126.6830014  29.6059992 113.0919978 125.7370014
  29.7139992 114.1619978 126.8020014  29.6759156 113.3247530 126.5695048
  23.3349992 112.0019978 128.4640014  23.4869992 111.6539978 129.3430014
  22.4839992 111.6449978 128.2090014  23.2407899 111.9061738 128.5497340
  32.7829992 112.3669978 123.6850014  33.1579992 111.6229978 123.2150014
  32.7879992 112.0969978 124.6040014  32.8350024 112.2286950 123.7447987
  32.4519992 112.2929978 126.4350014  31.5169992 112.3929978 126.6130014
  32.7319992 111.5829978 127.0130014  32.3618173 112.2107239 126.5374998
  35.4409992 101.3599978 138.4810014  35.0329992 101.8399978 137.7610014
  35.4809992 100.4539978 138.1730014  35.3905476 101.3033160 138.3408247
  22.5899992 107.7439978 136.4780014  22.8059992 107.3819978 137.3370014
  21.7339992 107.3689978 136.2680014  22.5039354 107.6437906 136.5672160
  25.2079992  96.2139978 132.4730014  24.3469992  96.1269978 132.0660014
  25.1859992  97.0699978 132.9010014  25.0870411  96.3177884 132.4750857
  29.8709992  95.9359978 135.8480014  30.2909992  95.5209978 136.6010014
  28.9379992  95.7569978 135.9650014  29.8023736  95.8549910 135.9668968
  33.1979992  99.6909978 136.7010014  32.6839992  99.5659978 137.4990014
  33.0419992 100.6039978 136.4570014  33.1066967  99.7972123 136.7770937
  33.9599992 104.5519978 122.4630014  34.0019992 104.3299978 121.5330014
  34.8089992 104.9509978 122.6530014  34.0805253 104.5755498 122.3613822
  29.5329992  98.4279978 123.1330014  29.2789992  98.4469978 124.0560014
  29.2759992  97.5569978 122.8320014  29.4635133  98.3128110 123.2185082
  25.2989992 101.1789978 133.5680014  24.6579992 101.1389978 134.2770014
  25.3369992 102.1059978 133.3310014  25.2163670 101.2987795 133.6330550
  25.2959992 101.3999978 128.4800014  24.4039992 101.0599978 128.4220014
  25.7469992 101.0229978 127.7250014  25.2346815 101.3023762 128.3699203
  30.8319992 101.8159978 127.2970014  30.4229992 102.6309978 127.0060014
  31.5519992 101.6759978 126.6830014  30.8734013 101.9086571 127.1740875
  29.9339992 101.9919978 138.7850014  29.3709992 101.2869978 139.1060014
  30.7599992 101.8709978 139.2530014  29.9686674 101.8792165 138.8921751
  31.8369992 101.2619978 130.1110014  31.6409992 101.8679978 129.3960014
  32.0179992 100.4289978 129.6770014  31.8346584 101.2322513 129.9544212
  23.0489992 101.4999978 135.4350014  23.0109992 101.8999978 136.3040014
  22.5589992 100.6829978 135.5260014  22.9775621 101.4442510 135.5661377
  26.4149992  98.8739978 122.2340014  25.9839992  98.4289978 122.9640014
  25.6969992  99.2449978 121.7220014  26.2589363  98.8632968 122.2646211
  19.6579992  98.6159978 129.2860014  20.2879992  98.5869978 130.0050014
  20.1069992  98.1909978 128.5560014  19.8050692  98.5545316 129.2857771
  20.9319992  99.3619978 124.7100014  21.4059992  99.9529978 124.1250014
  20.2139992  99.8919978 125.0570014  20.8998640  99.5145511 124.6767969
  31.1009992 102.8999978 134.7830014  31.4239992 102.2689978 134.1400014
  30.6599992 102.3659978 135.4430014  31.0855789 102.7413522 134.7842232
  27.8779992  98.8279978 129.5670014  26.9669992  98.8849978 129.8550014
  28.3829992  98.7679978 130.3770014  27.8215387  98.8276870 129.7160646
  22.7059992 100.4569978 128.3930014  21.8169992 100.5559978 128.0530014
  23.0029992  99.6149978 128.0470014  22.6244177 100.3567687 128.2996940
  26.3589992 100.4569978 126.0500014  27.2909992 100.5859978 126.2280014
  26.1439992 101.1259978 125.4000014  26.4574472 100.5650806 125.9864891
  32.2829992  98.0629978 132.8310014  31.6059992  98.1939978 133.4950014
  31.7979992  97.9079978 132.0210014  32.1247265  98.0599659 132.8123397
  25.0329992 101.6509978 123.6170014  24.4909992 101.2719978 122.9250014
  25.8669992 101.8459978 123.1880014  25.0715159 101.6255076 123.4644419
  35.5709992 113.7339978 139.1080014  35.7699992 114.1579978 138.2730014
  36.2259992 114.0779978 139.7150014  35.6868501 113.8386091 139.0757097
  23.1689992 106.2079978 138.7160014  23.9009992 106.4629978 139.2770014
  22.3879992 106.4129978 139.2310014  23.1637684 106.2706468 138.8624782
  29.1979992 101.6149978 131.4540014  29.7619992 101.0689978 130.9070014
  29.0499992 101.0939978 132.2420014  29.2552575 101.4696552 131.4856987
  24.1999992  97.7519978 127.8720014  23.8829992  96.8489978 127.8370014
  24.9809992  97.7539978 127.3190014  24.2622307  97.6286951 127.7924314
  27.8239992 100.0039978 133.8680014  26.9889992 100.4579978 133.9780014
  28.3479992 100.2799978 134.6200014  27.7805070 100.1034666 133.9847152
  28.3689992 106.2169978 125.5520014  27.6239992 105.7089978 125.2300014
  28.2339992 106.2659978 126.4990014  28.2489047 106.1541596 125.6358845
  35.5189992 105.3499978 134.3390014  36.1599992 105.8059978 133.7950014
  34.6879992 105.4629978 133.8770014  35.4945171 105.4277502 134.2020237
  32.2659992  99.0309978 123.7520014  31.3279992  99.1419978 123.6000014
  32.5639992  99.8869978 124.0580014  32.1776402  99.1620621 123.7725571
  29.8879992 106.4009978 136.7890014  29.5419992 106.0189978 137.5960014
  29.6879992 107.3339978 136.8610014  29.8136523 106.4749095 136.9090735
  32.9849992 100.8979978 125.4120014  33.8769992 100.7599978 125.7310014
  33.0409992 101.6889978 124.8760014  33.1147107 100.9860526 125.3832091
  23.4929992 105.5119978 131.3220014  24.2379992 105.5089978 130.7210014
  23.5709992 104.6879978 131.8040014  23.6054158 105.4002916 131.3049153
  30.4939992 107.6749978 124.5780014  30.1989992 108.5019978 124.9590014
  29.7909992 107.0559978 124.7740014  30.3585471 107.7045227 124.6566698
  20.5009992 103.9719978 136.6370014  20.7239992 103.5539978 137.4690014
  19.8989992 103.3599978 136.2140014  20.4501260 103.8319933 136.6937320
  27.5179992 103.4889978 138.8500014  27.2219992 103.3239978 137.9550014
  28.4489992 103.2689978 138.8390014  27.6033982 103.4366578 138.7260045
  32.1379992 108.8629978 136.7400014  31.2379992 109.0459978 136.4720014
  32.1719992 109.1219978 137.6610014  32.0192909 108.9230815 136.8277852
  37.8699992 101.1069978 125.1070014  37.3149992 100.7109978 124.4350014
  37.9699992 102.0179978 124.8290014  37.8075888 101.1758990 124.9775206
  37.8329992 106.9079978 137.9440014  36.9819992 107.1459978 137.5770014
  38.4229992 106.8909978 137.1910014  37.7962408 106.9382966 137.7918879
  36.1649992 109.8929978 125.5720014  35.7919992 109.0679978 125.8810014
  36.4419992 109.7099978 124.6750014  36.1513871 109.7552441 125.4929677
  33.3249992 104.7009978 132.5930014  32.3969992 104.4699978 132.5660014
  33.7759992 103.9239978 132.2630014  33.2588165 104.5642774 132.5446790
  25.8679992 109.0299978 128.7260014  26.3959992 109.8029978 128.5260014
  24.9879992 109.2539978 128.4250014  25.8213176 109.1663161 128.6578409
  21.6229992 103.8919978 123.3140014  22.2389992 104.5189978 123.6930014
  20.7609992 104.2079978 123.5850014  21.5908195 104.0205798 123.4025386
  27.2959992 106.6929978 128.3030014  27.0549992 107.6179978 128.3440014
  26.5549992 106.2339978 128.6990014  27.1628390 106.7576403 128.3621404
  27.8099992 110.8419978 134.6180014  28.1729992 111.6959978 134.3840014
  28.3419992 110.5499978 135.3580014  27.9316090 110.9194058 134.6860219
  25.9789992 111.7139978 127.8480014  25.0289992 111.8199978 127.8990014
  26.3309992 112.5349978 128.1930014  25.8965480 111.8394438 127.9015999
  31.3539992 106.9409978 134.3180014  30.9289992 106.7129978 135.1450014
  31.9349992 106.2019978 134.1360014  31.3743930 106.8099843 134.4064732
  33.5569992 107.8699978 123.3920014  33.9109992 107.4899978 124.1970014
  32.6089992 107.7759978 123.4790014  33.4771820 107.8053092 123.5138714
  34.0129992 111.4929978 136.7880014  33.4109992 110.9369978 136.2920014
  34.2939992 112.1599978 136.1620014  33.9686829 111.5071613 136.6355443
  38.0609992 112.3489978 123.5930014  38.8049992 112.9349978 123.4530014
  37.3669992 112.9179978 123.9270014  38.0690201 112.5060603 123.6189772
  22.1349992  98.7259978 136.1950014  21.2429992  99.0639978 136.1280014
  22.0369992  97.8699978 136.6130014  21.9994965  98.6566499 136.2423044
  34.4229992 106.5419978 125.6190014  34.1459992 105.8139978 126.1750014
  35.3509992 106.6609978 125.8240014  34.5104499 106.4584213 125.7228044
  21.7869992 110.5299978 134.6300014  22.0039992 109.5979978 134.5990014
  22.0329992 110.8049978 135.5130014  21.8499809 110.4395686 134.7451691
  27.6479992 108.9819978 121.8390014  27.8869992 108.2329978 121.2920014
  27.3789992 108.5939978 122.6720014  27.6443233 108.8271853 121.8767809
  26.5849992 108.5519978 124.2960014  26.7319992 108.0319978 125.0860014
  26.5819992 109.4589978 124.6020014  26.6047300 108.6033964 124.4455895
  23.0379992 105.8039978 124.8060014  22.3519992 106.1569978 125.3730014
  23.5609992 106.5669978 124.5600014  23.0149033 105.9553746 124.8502661
  30.8699992  98.4669978 135.0850014  31.5689992  98.5409978 135.7350014
  30.4889992  97.6019978 135.2390014  30.9142097  98.3602389 135.1947997
  31.6539992  98.1189978 126.1820014  31.8739992  98.5899978 125.3790014
  32.2129992  98.5129978 126.8520014  31.7596730  98.2367432 126.1625906
  29.3229992 110.2489978 125.0450014  28.5059992 110.7459978 125.0970014
  29.8519992 110.7249978 124.4050014  29.2828508 110.3812543 124.9656035
  28.8539992  99.8469978 127.0170014  29.6659992 100.3509978 127.0630014
  28.6099992  99.7019978 127.9310014  28.9321467  99.8963749 127.1468575
  29.3899992 100.8329978 136.2020014  29.5089992 101.4069978 136.9590014
  30.0449992 100.1449978 136.3160014  29.4949146 100.8185574 136.3211314
  29.7379992  96.9279978 127.9550014  29.3909992  97.5449978 128.6000014
  30.3969992  97.4289978 127.4740014  29.7795949  97.0801099 127.9782271
  26.6609992 111.2929978 125.0270014  26.8219992 112.0929978 124.5260014
  26.4639992 111.5999978 125.9120014  26.6563919 111.4439129 125.0781006
  25.3959992  97.9909978 124.6420014  25.3119992  98.8789978 124.9890014
  26.2859992  97.7259978 124.8740014  25.5048163  98.0767179 124.7208596
  35.5939992  98.7399978 137.0370014  34.6779992  99.0019978 136.9490014
  35.9299992  98.7369978 136.1400014  35.5139789  98.7754626 136.9037847
  34.1969992 102.4899978 131.1320014  33.3989992 102.0749978 130.8040014
  34.6419992 101.7999978 131.6230014  34.1479684 102.3398628 131.1535227
  23.6539992 108.4179978 123.7030014  24.2459992 109.1179978 123.9790014
  24.1129992 107.9849978 122.9830014  23.7970791 108.4552908 123.6434607
  21.9699992 101.0829978 122.8190014  21.9249992 102.0219978 122.9970014
  21.0819992 100.8469978 122.5490014  21.8438555 101.1796874 122.8068939
  35.2829992 111.7459978 132.7550014  35.1269992 112.4249978 132.0980014
  36.2159992 111.8179978 132.9580014  35.3877387 111.8486390 132.6925342
  22.7779992  95.8639978 131.4920014  22.5489992  95.9229978 130.5640014
  22.3359992  95.0729978 131.7980014  22.6868801  95.7650540 131.4064729
  21.7089992 109.8049978 127.6520014  20.8759992 110.2769978 127.6800014
  22.2539992 110.3149978 127.0540014  21.6687590 109.9385897 127.5749194
  20.9969992 112.4169978 138.9820014  21.5369992 112.2009978 139.7420014
  20.5159992 111.6119978 138.7930014  21.0058613 112.2785400 139.0604782
  25.5939992 111.3369978 140.6030014  26.3619992 110.8779978 140.9440014
  25.5729992 111.1109978 139.6730014  25.6962135 111.2436668 140.5239491
  29.6859992 110.8449978 121.9780014  29.0419992 110.2139978 122.2990014
  30.4479992 110.3139978 121.7460014  29.7008058 110.6867902 121.9906038
  32.1709992 109.7169978 139.3320014  31.8199992 108.8599978 139.5750014
  32.8969992 109.8589978 139.9390014  32.2211590 109.6190178 139.4472907
  34.2909992 110.6619978 122.2120014  34.5739992 109.8669978 122.6640014
  35.0299992 110.8949978 121.6510014  34.4296956 110.5847031 122.1979822
  20.9039992 106.2279978 139.9370014  21.0479992 105.3259978 139.6500014
  20.1319992 106.5139978 139.4490014  20.8193303 106.1433243 139.8317908
  25.2449992 106.5709978 122.0690014  25.3099992 105.7769978 122.6000014
  25.8979992 106.4529978 121.3790014  25.3421754 106.4463337 122.0484259
  27.5589992 106.1969978 139.3690014  27.2309992 106.4679978 138.5120014
  27.7109992 105.2559978 139.2820014  27.5346030 106.1068973 139.2397945
  30.5979992 107.6179978 121.8050014  30.3289992 107.7989978 122.7060014
  30.3909992 106.6929978 121.6740014  30.5332000 107.5176774 121.9105693
  33.2939992 106.1129978 136.7530014  34.0389992 106.7019978 136.6330014
  32.5369992 106.6949978 136.8160014  33.2935205 106.2721997 136.7451119
  21.7369992 103.4279978 139.3570014  22.1449992 102.5709978 139.2360014
  21.4759992 103.4419978 140.2780014  21.7576016 103.3125119 139.4649192
  26.3949992 104.5439978 124.3750014  25.9349992 104.0599978 125.0610014
  26.6499992 103.8749978 123.7390014  26.3665038 104.3873689 124.3829447
  25.6839992 102.4369978 136.7310014  25.0649992 103.1109978 137.0110014
  26.0279992 102.7579978 135.8980014  25.6457605 102.5727198 136.6566707
  27.4659992 102.7869978 122.6370014  27.2849992 102.6319978 121.7100014
  28.4159992 102.8949978 122.6820014  27.5696566 102.7803669 122.5160929
  30.7029992 104.9079978 140.0080014  31.6569992 104.9919978 139.9810014
  30.5429992 104.1959978 140.6280014  30.8117182 104.8232842 140.0880733
  36.8559992 105.1409978 122.0830014  36.5819992 104.7169978 121.2700014
  36.8949992 106.0729978 121.8660014  36.8237716 105.2088827 121.9424286
  26.0229992  99.7919978 137.8130014  26.1729992  99.0629978 137.2110014
  26.0249992 100.5689978 137.2540014  26.0437967  99.7972708 137.6550541
  26.4359992  98.1609978 135.3060014  26.9709992  98.6129978 134.6540014
  25.5829992  98.0529978 134.8830014  26.3940374  98.2082665 135.1596710
  28.0169992 103.6009978 135.5450014  28.7679992 103.4449978 134.9720014
  27.6779992 104.4529978 135.2700014  28.0739587 103.6948138 135.4294078
  32.4329992 101.4159978 140.5740014  32.6249992 100.4849978 140.4620014
  33.2909992 101.8409978 140.5640014  32.5752269 101.3459928 140.5573192
  33.7499992 104.2049978 138.6510014  33.4679992 104.9139978 138.0740014
  34.6919992 104.1319978 138.5000014  33.8387656 104.2923128 138.5514809
  24.5019992 100.9899978 139.7250014  23.7339992 100.4569978 139.5150014
  25.1799992 100.6799978 139.1250014  24.4886973 100.8752375 139.6151796
  27.2409992  95.6179978 135.7370014  27.1429992  96.5639978 135.6320014
  26.4989992  95.2449978 135.2620014  27.1271913  95.6971813 135.6583539
  28.5049992  99.9389978 139.3010014  28.2699992  99.7199978 140.2030014
  27.7219992  99.7319978 138.7910014  28.3669219  99.8810066 139.3555852
  31.2209992  99.0669978 138.3770014  30.2729992  99.0989978 138.5090014
  31.5329992  98.4409978 139.0300014  31.1335190  98.9867262 138.4833564
  32.8549992  97.7009978 140.3820014  32.7579992  96.7489978 140.3760014
  32.5329992  97.9689978 141.2420014  32.7981761  97.6069744 140.4974936
  22.6819992  98.9099978 139.4290014  22.8939992  98.2039978 138.8190014
  22.5709992  98.4729978 140.2730014  22.6960269  98.7541921 139.4595873
  27.4629992  94.9119978 138.4090014  28.1749992  94.2719978 138.3950014
  27.3619992  95.1779978 137.4950014  27.5467261  94.8604190 138.2835537
  27.8169992  96.5939978 140.4620014  27.6849992  96.1189978 139.6420014
  27.2169992  97.3389978 140.4070014  27.7179070  96.6295789 140.3423251
  27.3629992 113.4769978 123.6390014  28.2959992 113.6349978 123.7820014
  27.0989992 114.1529978 123.0140014  27.4549308 113.5899104 123.5741396
  20.9309992 108.1139978 123.1210014  21.8449992 108.1929978 123.3950014
  20.9389992 107.4269978 122.4550014  21.0571143 108.0319085 123.0684274
  19.5799992 113.5069978 128.1990014  18.9329992 113.0449978 127.6660014
  19.9349992 112.8349978 128.7810014  19.5394506 113.3529503 128.2047341
  20.4499992 111.5869978 130.0030014  20.1159992 110.7069978 130.1750014
  20.6729992 111.9329978 130.8680014  20.4343721 111.5131938 130.1434168
  37.9989992 112.3969978 132.9840014  37.9769992 112.5819978 133.9230014
  38.6889992 112.9649978 132.6430014  38.0893439 112.4991887 133.0664791
  37.5619992 111.9639978 135.9060014  37.0749992 111.2289978 135.5350014
  38.1109992 111.5699978 136.5840014  37.5695247 111.8101057 135.9468461
  36.0129992 107.7539978 140.5440014  35.1469992 107.6489978 140.9380014
  36.3889992 108.5119978 140.9900014  35.9453401 107.8421708 140.6582620
  37.3139992 106.0099978 126.0580014  38.1639992 106.4309978 126.1850014
  37.3189992 105.2699978 126.6650014  37.4311143 105.9676094 126.1574750
  37.7079992 104.0639978 127.8820014  36.9819992 103.5839978 128.2790014
  38.2899992 104.2689978 128.6140014  37.6871635 104.0259166 128.0353748
  37.4669992 106.8489978 132.8290014  38.3009992 106.4709978 132.5490014
  37.5789992 107.7919978 132.7100014  37.5962522 106.9247742 132.7746020
  35.9539992 109.7269978 135.1360014  35.3059992 110.0519978 135.7620014
  35.4359992 109.2859978 134.4620014  35.7954168 109.7118523 135.1305307
  37.9769992 103.9649978 124.2730014  37.4549992 104.3209978 123.5540014
  37.9439992 104.6399978 124.9510014  37.9010699 104.1049848 124.2662129
  36.3259992 101.2039978 122.8240014  36.4219992 101.8709978 122.1440014
  36.1859992 100.3889978 122.3420014  36.3202063 101.1850667 122.6658377
  35.4949992 102.5849978 128.4450014  35.3449992 101.6399978 128.4240014
  35.1409992 102.8659978 129.2880014  35.4265527 102.4935605 128.5561859
  20.5299992 104.6629978 132.4550014  20.7149992 104.5809978 131.5190014
  21.3799992 104.5389978 132.8790014  20.6700916 104.6350393 132.3842896
  36.3509992 104.5549978 138.0830014  36.9339992 103.8199978 138.2750014
  36.9149992 105.3269978 138.1300014  36.5069781 104.5588145 138.1156164
  37.8479992 102.4579978 138.7680014  36.9849992 102.0789978 138.6020014
  38.4519992 101.7189978 138.6940014  37.8115944 102.3062978 138.7352984
  35.5729992  98.6119978 121.9410014  36.1839992  98.2409978 122.5780014
  34.7359992  98.1909978 122.1370014  35.5434947  98.5042756 122.0547252
  35.2059992 100.1669978 126.9070014  35.4849992  99.2599978 127.0310014
  35.9649992 100.6009978 126.5180014  35.3468619 100.1014502 126.8713795
  35.8169992 100.7489978 132.3430014  36.7499992 100.9609978 132.3090014
  35.5819992 100.8499978 133.2650014  35.9128308 100.7916503 132.4630214
  35.8469992 101.4859978 135.1190014  35.0039992 101.7539978 135.4850014
  36.2889992 102.3079978 134.9080014  35.7914138 101.6338273 135.1405518
  20.1279992  99.9329978 138.5960014  21.0469992  99.8109978 138.8320014
  19.6779992  99.1829978 138.9850014  20.1931148  99.8148751 138.6809408
  38.1299992  95.4659978 140.4720014  38.4789992  94.8119978 139.8670014
  38.2769992  96.3029978 140.0330014  38.1977355  95.4896067 140.3296564
  35.8189992  97.4299978 126.9550014  36.0009992  96.9809978 127.7810014
  35.2189992  96.8459978 126.4920014  35.7627529  97.2896131 127.0053619
  21.3489992  98.2459978 131.4870014  21.7939992  97.4539978 131.7890014
  21.8149992  98.9619978 131.9180014  21.4729059  98.2344474 131.5866079
  19.6529992 101.2449978 132.5560014  20.1449992 101.0239978 131.7650014
  20.0149992 102.0849978 132.8370014  19.7692923 101.3283468 132.4857407
  37.6489992  97.5749978 138.8220014  36.7319992  97.8459978 138.7860014
  37.7719992  97.0399978 138.0380014  37.5400828  97.5397700 138.7110785
  37.6859992  97.4979978 123.4830014  38.0979992  96.7769978 123.0080014
  38.3669992  98.1669978 123.5420014  37.8345900  97.4897306 123.4259038
  19.9669992  97.5029978 126.6100014  19.0419992  97.7109978 126.4810014
  20.4209992  97.9869978 125.9210014  19.9016374  97.5969949 126.4990957
  34.7369992 112.4869978 128.5560014  35.3899992 112.1389978 127.9480014
  35.2479992 112.9749978 129.2020014  34.8952777 112.5053815 128.5602047
  19.9299992  96.2409978 134.9550014  19.2649992  95.9949978 135.5980014
  19.4869992  96.8629978 134.3770014  19.7790937  96.2913614 134.9649379
  22.1219992 109.4159978 139.0990014  21.3009992 109.5909978 138.6390014
  21.8699992 109.3429978 140.0200014  21.9756173 109.4300794 139.1604972
  25.0759992 110.3899978 135.3580014  24.6519992 111.1999978 135.0750014
  25.9809992 110.4759978 135.0560014  25.1402433 110.5123331 135.2785377
  29.3879992 111.7889978 138.3170014  29.5719992 111.4559978 139.1950014
  30.2339992 112.0989978 137.9950014  29.5276484 111.7852979 138.3937617
  31.7329992 113.0749978 137.5610014  32.4099992 112.4419978 137.3210014
  32.0539992 113.4759978 138.3680014  31.8691323 113.0425691 137.6373158
  36.6499992  95.6649978 136.6410014  35.8369992  95.9899978 136.2530014
  36.8829992  94.9039978 136.1080014  36.5702566  95.6066559 136.5159213
  22.4779992 113.6469978 135.4050014  21.7579992 114.0869978 134.9540014
  22.1129992 113.3959978 136.2540014  22.3299796 113.6733824 135.4579329
  24.9449992 113.2469978 134.4350014  24.0809992 113.3189978 134.8390014
  24.8899992 113.7939978 133.6510014  24.8191942 113.3307849 134.3844000
  29.6559992 113.1349978 133.6100014  29.1989992 113.6639978 132.9560014
  29.8189992 113.7379978 134.3360014  29.6154476 113.2889140 133.6185499
  31.9839992 112.0129978 134.5550014  31.0789992 112.1779978 134.2900014
  32.4119992 112.8659978 134.4900014  31.9180700 112.1509529 134.5099520
  34.5879992 113.5829978 134.8500014  34.4059992 114.4989978 134.6400014
  34.7649992 113.1719978 134.0040014  34.5869907 113.6529741 134.7067883
  21.8929992 112.2699978 132.3150014  21.8749992 111.8439978 133.1730014
  22.6979992 111.9509978 131.9070014  21.9993221 112.1687233 132.3770225
  24.0339992 110.9799978 130.9700014  23.8149992 110.0629978 131.1400014
  24.8579992 111.1199978 131.4360014  24.1154702 110.8735511 131.0562527
  26.5709992 111.4499978 131.8190014  26.7839992 110.5619978 131.5320014
  26.6359992 111.4149978 132.7740014  26.6089075 111.3238307 131.9087373
  30.0799992  97.1139978 130.9630014  29.4059992  96.4839978 131.2190014
  30.6439992  96.6299978 130.3600014  30.0640384  96.9623708 130.9165020
  35.2229992  95.2209978 131.0760014  35.8259992  95.7689978 130.5740014
  34.3529992  95.5399978 130.8360014  35.1879190  95.3391041 130.9748679
  36.9499992  96.3599978 129.4090014  37.5609992  95.8459978 128.8830014
  37.3319992  97.2369978 129.4330014  37.0854475  96.4081323 129.3401208
  22.4069992  95.7479978 128.7850014  21.6299992  95.5129978 128.2780014
  22.9369992  94.9509978 128.7940014  22.3723451  95.6081268 128.7168627
  21.2429992  95.5459978 124.5890014  21.6819992  96.1569978 123.9970014
  20.6089992  96.0839978 125.0630014  21.2173859  95.7024064 124.5720305
  26.9859992  95.6739978 128.5990014  27.8599992  96.0629978 128.5690014
  26.8499992  95.4589978 129.5210014  27.0873207  95.6981923 128.7196509
  32.5429992  95.7039978 130.2480014  32.6189992  95.7999978 129.2990014
  32.2679992  94.7969978 130.3770014  32.5162042  95.5944241 130.1353811
  33.8959992  95.7299978 125.9400014  33.1929992  96.3449978 125.7310014
  33.4509992  94.8929978 126.0720014  33.7396292  95.7010085 125.9292439
  21.1439992 111.4939978 125.4870014  20.4589992 111.4559978 124.8190014
  21.1479992 112.4069978 125.7750014  21.0508174 111.6121998 125.4345310
  23.1039992  97.4619978 123.0310014  23.5949992  96.8319978 122.5040014
  23.7269992  97.7579978 123.6950014  23.2555062  97.4156770 123.0485438
  28.1299992  97.7549978 125.4890014  28.3079992  97.1079978 126.1710014
  28.0759992  98.5889978 125.9560014  28.1471025  97.7790504 125.6456433
  30.0079992 112.7029978 123.8840014  30.8739992 113.0699978 123.7060014
  29.7619992 112.2639978 123.0700014  30.0932097 112.6938525 123.7496019
  36.7169992 112.2659978 126.5630014  36.5229992 111.5179978 125.9980014
  36.6779992 113.0239978 125.9800014  36.6851645 112.2660786 126.4068148
  22.3639992  96.2619978 138.3030014  21.9979992  95.4959978 138.7460014
  23.2769992  96.2909978 138.5900014  22.4373225  96.1611906 138.4023459
  24.3369992  95.6119978 139.8390014  25.2359992  95.3379978 139.6540014
  23.9509992  94.8699978 140.3030014  24.4077237  95.4741508 139.8764710
  22.9619992 112.4139978 122.5120014  22.6939992 112.6999978 123.3850014
  23.7329992 111.8679978 122.6640014  23.0295600 112.3793330 122.6521499
  32.7589992  94.9449978 140.0210014  32.8349992  94.5189978 140.8750014
  33.6519992  94.9579978 139.6780014  32.8902267  94.8883952 140.0915932
  35.9349992 111.0179978 138.7130014  35.1529992 110.8309978 138.1940014
  35.8629992 111.9469978 138.9310014  35.8180863 111.1180221 138.6713574
  50.3409992 104.9039978 128.7440014  50.4299992 105.8479978 128.6120014
  49.7029992 104.6289978 128.0860014  50.2669062 104.9959812 128.6369641
  49.2739992 104.1589978 132.1630014  49.2359992 103.5129978 132.8680014
  48.9519992 103.6919978 131.3920014  49.2252679 104.0074276 132.1552921
  41.6419992 103.7729978 133.7560014  41.6839992 103.1479978 134.4790014
  42.3449992 104.3969978 133.9380014  41.7427345 103.7717873 133.8795273
  52.9799992 107.0979978 130.4650014  52.5389992 106.3779978 130.9150014
  52.9669992 107.8189978 131.0940014  52.9177960 107.0968329 130.6117567
  42.5659992 108.2229978 132.2910014  42.1959992 107.4209978 131.9210014
  43.5069992 108.0549978 132.3370014  42.6425984 108.0904638 132.2465603
  39.1759992 101.8829978 127.6840014  38.7279992 102.7289978 127.6650014
  38.6149992 101.3039978 127.1680014  39.0389603 101.9203674 127.6116720
  39.8859992 104.0449978 129.8100014  40.0999992 103.2749978 130.3370014
  40.6239992 104.1349978 129.2060014  40.0149652 103.9518012 129.8005212
  50.0919992 112.2019978 130.6770014  50.7109992 111.5259978 130.4030014
  49.8829992 111.9839978 131.5850014  50.1486232 112.0797938 130.7622517
  47.6629992 106.5909978 132.5690014  47.9669992 105.9049978 131.9750014
  48.3849992 106.7099978 133.1870014  47.8021152 106.5132189 132.5712123
  56.3259992  98.1929978 133.4300014  56.3759992  98.8029978 134.1660014
  56.7519992  98.6539978 132.7070014  56.3904108  98.3387709 133.4330112
  50.8039992 100.9849978 132.8970014  50.9469992 100.0389978 132.9170014
  50.6979992 101.1919978 131.9680014  50.8092509 100.8834813 132.7742231
  43.9589992  99.0869978 130.1690014  44.0019992  99.9469978 129.7510014
  43.5009992  98.5349978 129.5350014  43.9029815  99.1300621 130.0261197
  51.6809992  99.2179978 128.5700014  52.3279992  98.8889978 129.1950014
  52.1909992  99.7349978 127.9470014  51.8384317  99.2429227 128.5712167
  40.5789992 101.4839978 130.9310014  41.2329992 100.9339978 131.3630014
  40.6029992 101.2099978 130.0140014  40.6717199 101.3717167 130.8661668
  45.7359992 103.0339978 130.1460014  46.3519992 102.5069978 130.6560014
  45.1489992 102.3939978 129.7430014  45.7409239 102.8754117 130.1612952
  56.7179992  99.6709978 135.6660014  56.0289992 100.3289978 135.5700014
  56.7329992  99.4729978 136.6020014  56.6256740  99.7343243 135.7794630
  42.7689992  98.0049978 134.2430014  42.5499992  98.5349978 133.4770014
  42.1009992  98.2309978 134.8900014  42.6487001  98.1081154 134.2256064
  50.1379992 107.5049978 127.7870014  49.8429992 107.1819978 126.9360014
  49.8139992 108.4049978 127.8280014  50.0537983 107.5824027 127.6759771
  45.3379992 105.6799978 134.5310014  44.5979992 106.2789978 134.6340014
  46.0519992 106.2339978 134.2150014  45.3333288 105.8367356 134.5023805
  53.4449992  98.5089978 130.5500014  53.2299992  97.7429978 131.0830014
  54.1009992  98.9809978 131.0630014  53.5042673  98.4680728 130.6921990
  42.3629992  99.8969978 132.1950014  42.9769992 100.5299978 132.5690014
  42.8749992  99.4249978 131.5390014  42.5162277  99.9197352 132.1574279
  43.7459992 107.6449978 135.3180014  43.7399992 108.5239978 134.9400014
  42.8919992 107.5609978 135.7430014  43.6297925 107.7539535 135.3236887
  39.8669992 107.3159978 126.1000014  39.5949992 107.5449978 125.2110014
  39.9119992 108.1529978 126.5600014  39.8358709 107.4606058 126.0406107
  53.4919992 108.9369978 132.8120014  52.5499992 108.9959978 132.9740014
  53.7679992 109.8429978 132.6750014  53.4005865 109.0675288 132.8156192
  53.7919992  97.2239978 134.2300014  53.0559992  97.8339978 134.1920014
  54.4759992  97.6389978 133.7030014  53.7835506  97.3636400 134.1536051
  46.7959992  95.3099978 131.6960014  46.6779992  94.3619978 131.6410014
  45.9409992  95.6429978 131.9690014  46.6642679  95.2251926 131.7253720
  51.7439992 110.7179978 129.4380014  52.1689992 110.0109978 128.9530014
  52.0609992 111.5199978 129.0210014  51.8450266 110.7295190 129.3152479
  52.9039992 108.6189978 127.9460014  52.6459992 107.9289978 127.3350014
  52.9749992 108.1759978 128.7920014  52.8782837 108.4647106 127.9766912
  54.5899992 107.1859978 136.4240014  54.7289992 106.5939978 135.6840014
  54.7569992 108.0589978 136.0670014  54.6315562 107.2229896 136.2746283
  49.0619992 104.1479978 126.1960014  48.3509992 104.6829978 125.8440014
  49.7529992 104.2029978 125.5360014  49.0580751 104.2286777 126.0585858
  49.1159992 102.6049978 123.2350014  49.8169992 102.6279978 123.8860014
  49.4179992 101.9769978 122.5790014  49.2528282 102.5232339 123.2354496
  56.4309992 103.5259978 134.4900014  55.7789992 104.2199978 134.5790014
  56.8969992 103.7359978 133.6800014  56.4045937 103.6495019 134.3927533
  52.4679992 104.3569978 127.1480014  51.7359992 104.5859978 127.7210014
  52.9149992 103.6439978 127.6030014  52.4282753 104.2918972 127.2879715
  52.3649992 102.5319978 136.2160014  52.4449992 103.2949978 136.7870014
  51.7639992 102.8109978 135.5250014  52.2947245 102.6742630 136.2008424
  44.1129992 104.9879978 129.0300014  43.7829992 104.6169978 128.2120014
  44.7019992 104.3169978 129.3770014  44.1473970 104.8466063 128.9649404
  45.4799992 108.4159978 131.7120014  45.3849992 107.8369978 130.9550014
  46.2089992 108.0449978 132.2080014  45.5656161 108.2865891 131.6755209
  44.4799992 103.7559978 132.6640014  45.0449992 103.8779978 131.9010014
  44.7989992 104.3939978 133.3030014  44.6003977 103.8588851 132.6459424
  50.7889992 109.2599978 133.3980014  50.5489992 109.9219978 134.0460014
  50.5909992 108.4249978 133.8230014  50.7293826 109.2378115 133.5441566
  45.3599992 108.1559978 137.3810014  45.0489992 108.9379978 137.8360014
  44.7099992 108.0029978 136.6950014  45.2295538 108.2424087 137.3505898
  51.3389992 103.5199978 124.8330014  51.9179992 103.6699978 125.5800014
  51.7529992 103.9899978 124.1100014  51.4743122 103.6041277 124.8375042
  42.2799992 104.3539978 136.6100014  42.3499992 105.0049978 137.3080014
  41.3889992 104.4569978 136.2750014  42.1691802 104.4569757 136.6602249
  49.0649992 110.2559978 128.2680014  49.5389992 110.5519978 129.0460014
  48.5019992 110.9949978 128.0350014  49.0537361 110.3962721 128.3428611
  43.5989992 110.2269978 138.1440014  43.6069992 110.0909978 137.1970014
  42.6829992 110.1099978 138.3960014  43.4762528 110.1925463 138.0483243
  55.0379992  95.2699978 124.6460014  54.1379992  95.4089978 124.9410014
  55.2899992  96.1009978 124.2440014  54.9488683  95.4014055 124.6320232
  43.1039992 104.0569978 126.6200014  42.8119992 104.8249978 126.1290014
  42.4289992 103.3979978 126.4570014  42.9728497 104.0729745 126.5308260
  56.2269992 109.6359978 123.0220014  56.2999992 110.5749978 123.1930014
  57.1319992 109.3309978 122.9660014  56.3594158 109.7233061 123.0378392
  39.1969992 106.4199978 135.4350014  38.6949992 106.3919978 134.6200014
  39.2019992 105.5149978 135.7440014  39.1290416 106.2937368 135.3653766
  38.9469992 109.2009978 132.3190014  39.8929992 109.0559978 132.3000014
  38.8339992 109.9849978 132.8560014  39.0613578 109.2871697 132.3890317
  57.1449992 109.8669978 138.0010014  57.0949992 108.9109978 137.9640014
  56.3179992 110.1339978 138.4020014  57.0263987 109.7725174 138.0501446
  48.1229992 109.4409978 136.8770014  48.2109992 110.2669978 137.3520014
  47.2599992 109.1109978 137.1260014  48.0183357 109.5095468 136.9757653
  48.5379992 113.2129978 126.6830014  48.4619992 113.0919978 125.7370014
  48.5699992 114.1619978 126.8020014  48.5319156 113.3247530 126.5695048
  42.1909992 112.0019978 128.4640014  42.3429992 111.6539978 129.3430014
  41.3399992 111.6449978 128.2090014  42.0967899 111.9061738 128.5497340
  51.6389992 112.3669978 123.6850014  52.0139992 111.6229978 123.2150014
  51.6439992 112.0969978 124.6040014  51.6910024 112.2286950 123.7447987
  51.3079992 112.2929978 126.4350014  50.3729992 112.3929978 126.6130014
  51.5879992 111.5829978 127.0130014  51.2178173 112.2107239 126.5374998
  54.2969992 101.3599978 138.4810014  53.8889992 101.8399978 137.7610014
  54.3369992 100.4539978 138.1730014  54.2465476 101.3033160 138.3408247
  41.4459992 107.7439978 136.4780014  41.6619992 107.3819978 137.3370014
  40.5899992 107.3689978 136.2680014  41.3599354 107.6437906 136.5672160
  44.0639992  96.2139978 132.4730014  43.2029992  96.1269978 132.0660014
  44.0419992  97.0699978 132.9010014  43.9430411  96.3177884 132.4750857
  48.7269992  95.9359978 135.8480014  49.1469992  95.5209978 136.6010014
  47.7939992  95.7569978 135.9650014  48.6583736  95.8549910 135.9668968
  52.0539992  99.6909978 136.7010014  51.5399992  99.5659978 137.4990014
  51.8979992 100.6039978 136.4570014  51.9626967  99.7972123 136.7770937
  52.8159992 104.5519978 122.4630014  52.8579992 104.3299978 121.5330014
  53.6649992 104.9509978 122.6530014  52.9365253 104.5755498 122.3613822
  48.3889992  98.4279978 123.1330014  48.1349992  98.4469978 124.0560014
  48.1319992  97.5569978 122.8320014  48.3195133  98.3128110 123.2185082
  44.1549992 101.1789978 133.5680014  43.5139992 101.1389978 134.2770014
  44.1929992 102.1059978 133.3310014  44.0723670 101.2987795 133.6330550
  44.1519992 101.3999978 128.4800014  43.2599992 101.0599978 128.4220014
  44.6029992 101.0229978 127.7250014  44.0906815 101.3023762 128.3699203
  49.6879992 101.8159978 127.2970014  49.2789992 102.6309978 127.0060014
  50.4079992 101.6759978 126.6830014  49.7294013 101.9086571 127.1740875
  48.7899992 101.9919978 138.7850014  48.2269992 101.2869978 139.1060014
  49.6159992 101.8709978 139.2530014  48.8246674 101.8792165 138.8921751
  50.6929992 101.2619978 130.1110014  50.4969992 101.8679978 129.3960014
  50.8739992 100.4289978 129.6770014  50.6906584 101.2322513 129.9544212
  41.9049992 101.4999978 135.4350014  41.8669992 101.8999978 136.3040014
  41.4149992 100.6829978 135.5260014  41.8335621 101.4442510 135.5661377
  45.2709992  98.8739978 122.2340014  44.8399992  98.4289978 122.9640014
  44.5529992  99.2449978 121.7220014  45.1149363  98.8632968 122.2646211
  38.5139992  98.6159978 129.2860014  39.1439992  98.5869978 130.0050014
  38.9629992  98.1909978 128.5560014  38.6610692  98.5545316 129.2857771
  39.7879992  99.3619978 124.7100014  40.2619992  99.9529978 124.1250014
  39.0699992  99.8919978 125.0570014  39.7558640  99.5145511 124.6767969
  49.9569992 102.8999978 134.7830014  50.2799992 102.2689978 134.1400014
  49.5159992 102.3659978 135.4430014  49.9415789 102.7413522 134.7842232
  46.7339992  98.8279978 129.5670014  45.8229992  98.8849978 129.8550014
  47.2389992  98.7679978 130.3770014  46.6775387  98.8276870 129.7160646
  41.5619992 100.4569978 128.3930014  40.6729992 100.5559978 128.0530014
  41.8589992  99.6149978 128.0470014  41.4804177 100.3567687 128.2996940
  45.2149992 100.4569978 126.0500014  46.1469992 100.5859978 126.2280014
  44.9999992 101.1259978 125.4000014  45.3134472 100.5650806 125.9864891
  51.1389992  98.0629978 132.8310014  50.4619992  98.1939978 133.4950014
  50.6539992  97.9079978 132.0210014  50.9807265  98.0599659 132.8123397
  43.8889992 101.6509978 123.6170014  43.3469992 101.2719978 122.9250014
  44.7229992 101.8459978 123.1880014  43.9275159 101.6255076 123.4644419
  54.4269992 113.7339978 139.1080014  54.6259992 114.1579978 138.2730014
  55.0819992 114.0779978 139.7150014  54.5428501 113.8386091 139.0757097
  42.0249992 106.2079978 138.7160014  42.7569992 106.4629978 139.2770014
  41.2439992 106.4129978 139.2310014  42.0197684 106.2706468 138.8624782
  48.0539992 101.6149978 131.4540014  48.6179992 101.0689978 130.9070014
  47.9059992 101.0939978 132.2420014  48.1112575 101.4696552 131.4856987
  43.0559992  97.7519978 127.8720014  42.7389992  96.8489978 127.8370014
  43.8369992  97.7539978 127.3190014  43.1182307  97.6286951 127.7924314
  46.6799992 100.0039978 133.8680014  45.8449992 100.4579978 133.9780014
  47.2039992 100.2799978 134.6200014  46.6365070 100.1034666 133.9847152
  47.2249992 106.2169978 125.5520014  46.4799992 105.7089978 125.2300014
  47.0899992 106.2659978 126.4990014  47.1049047 106.1541596 125.6358845
  54.3749992 105.3499978 134.3390014  55.0159992 105.8059978 133.7950014
  53.5439992 105.4629978 133.8770014  54.3505171 105.4277502 134.2020237
  51.1219992  99.0309978 123.7520014  50.1839992  99.1419978 123.6000014
  51.4199992  99.8869978 124.0580014  51.0336402  99.1620621 123.7725571
  48.7439992 106.4009978 136.7890014  48.3979992 106.0189978 137.5960014
  48.5439992 107.3339978 136.8610014  48.6696523 106.4749095 136.9090735
  51.8409992 100.8979978 125.4120014  52.7329992 100.7599978 125.7310014
  51.8969992 101.6889978 124.8760014  51.9707107 100.9860526 125.3832091
  42.3489992 105.5119978 131.3220014  43.0939992 105.5089978 130.7210014
  42.4269992 104.6879978 131.8040014  42.4614158 105.4002916 131.3049153
  49.3499992 107.6749978 124.5780014  49.0549992 108.5019978 124.9590014
  48.6469992 107.0559978 124.7740014  49.2145471 107.7045227 124.6566698
  39.3569992 103.9719978 136.6370014  39.5799992 103.5539978 137.4690014
  38.7549992 103.3599978 136.2140014  39.3061260 103.8319933 136.6937320
  46.3739992 103.4889978 138.8500014  46.0779992 103.3239978 137.9550014
  47.3049992 103.2689978 138.8390014  46.4593982 103.4366578 138.7260045
  50.9939992 108.8629978 136.7400014  50.0939992 109.0459978 136.4720014
  51.0279992 109.1219978 137.6610014  50.8752909 108.9230815 136.8277852
  56.7259992 101.1069978 125.1070014  56.1709992 100.7109978 124.4350014
  56.8259992 102.0179978 124.8290014  56.6635888 101.1758990 124.9775206
  56.6889992 106.9079978 137.9440014  55.8379992 107.1459978 137.5770014
  57.2789992 106.8909978 137.1910014  56.6522408 106.9382966 137.7918879
  55.0209992 109.8929978 125.5720014  54.6479992 109.0679978 125.8810014
  55.2979992 109.7099978 124.6750014  55.0073871 109.7552441 125.4929677
  52.1809992 104.7009978 132.5930014  51.2529992 104.4699978 132.5660014
  52.6319992 103.9239978 132.2630014  52.1148165 104.5642774 132.5446790
  44.7239992 109.0299978 128.7260014  45.2519992 109.8029978 128.5260014
  43.8439992 109.2539978 128.4250014  44.6773176 109.1663161 128.6578409
  40.4789992 103.8919978 123.3140014  41.0949992 104.5189978 123.6930014
  39.6169992 104.2079978 123.5850014  40.4468195 104.0205798 123.4025386
  46.1519992 106.6929978 128.3030014  45.9109992 107.6179978 128.3440014
  45.4109992 106.2339978 128.6990014  46.0188390 106.7576403 128.3621404
  46.6659992 110.8419978 134.6180014  47.0289992 111.6959978 134.3840014
  47.1979992 110.5499978 135.3580014  46.7876090 110.9194058 134.6860219
  44.8349992 111.7139978 127.8480014  43.8849992 111.8199978 127.8990014
  45.1869992 112.5349978 128.1930014  44.7525480 111.8394438 127.9015999
  50.2099992 106.9409978 134.3180014  49.7849992 106.7129978 135.1450014
  50.7909992 106.2019978 134.1360014  50.2303930 106.8099843 134.4064731
  52.4129992 107.8699978 123.3920014  52.7669992 107.4899978 124.1970014
  51.4649992 107.7759978 123.4790014  52.3331820 107.8053092 123.5138714
  52.8689992 111.4929978 136.7880014  52.2669992 110.9369978 136.2920014
  53.1499992 112.1599978 136.1620014  52.8246829 111.5071613 136.6355443
  56.9169992 112.3489978 123.5930014  57.6609992 112.9349978 123.4530014
  56.2229992 112.9179978 123.9270014  56.9250201 112.5060603 123.6189772
  40.9909992  98.7259978 136.1950014  40.0989992  99.0639978 136.1280014
  40.8929992  97.8699978 136.6130014  40.8554965  98.6566499 136.2423044
  53.2789992 106.5419978 125.6190014  53.0019992 105.8139978 126.1750014
  54.2069992 106.6609978 125.8240014  53.3664499 106.4584213 125.7228044
  40.6429992 110.5299978 134.6300014  40.8599992 109.5979978 134.5990014
  40.8889992 110.8049978 135.5130014  40.7059809 110.4395686 134.7451691
  46.5039992 108.9819978 121.8390014  46.7429992 108.2329978 121.2920014
  46.2349992 108.5939978 122.6720014  46.5003233 108.8271853 121.8767809
  45.4409992 108.5519978 124.2960014  45.5879992 108.0319978 125.0860014
  45.4379992 109.4589978 124.6020014  45.4607300 108.6033964 124.4455895
  41.8939992 105.8039978 124.8060014  41.2079992 106.1569978 125.3730014
  42.4169992 106.5669978 124.5600014  41.8709033 105.9553746 124.8502661
  49.7259992  98.4669978 135.0850014  50.4249992  98.5409978 135.7350014
  49.3449992  97.6019978 135.2390014  49.7702097  98.3602389 135.1947997
  50.5099992  98.1189978 126.1820014  50.7299992  98.5899978 125.3790014
  51.0689992  98.5129978 126.8520014  50.6156730  98.2367432 126.1625906
  48.1789992 110.2489978 125.0450014  47.3619992 110.7459978 125.0970014
  48.7079992 110.7249978 124.4050014  48.1388508 110.3812543 124.9656035
  47.7099992  99.8469978 127.0170014  48.5219992 100.3509978 127.0630014
  47.4659992  99.7019978 127.9310014  47.7881467  99.8963749 127.1468575
  48.2459992 100.8329978 136.2020014  48.3649992 101.4069978 136.9590014
  48.9009992 100.1449978 136.3160014  48.3509146 100.8185574 136.3211314
  48.5939992  96.9279978 127.9550014  48.2469992  97.5449978 128.6000014
  49.2529992  97.4289978 127.4740014  48.6355949  97.0801099 127.9782271
  45.5169992 111.2929978 125.0270014  45.6779992 112.0929978 124.5260014
  45.3199992 111.5999978 125.9120014  45.5123919 111.4439129 125.0781006
  44.2519992  97.9909978 124.6420014  44.1679992  98.8789978 124.9890014
  45.1419992  97.7259978 124.8740014  44.3608163  98.0767179 124.7208596
  54.4499992  98.7399978 137.0370014  53.5339992  99.0019978 136.9490014
  54.7859992  98.7369978 136.1400014  54.3699789  98.7754626 136.9037847
  53.0529992 102.4899978 131.1320014  52.2549992 102.0749978 130.8040014
  53.4979992 101.7999978 131.6230014  53.0039684 102.3398628 131.1535227
  42.5099992 108.4179978 123.7030014  43.1019992 109.1179978 123.9790014
  42.9689992 107.9849978 122.9830014  42.6530791 108.4552908 123.6434607
  40.8259992 101.0829978 122.8190014  40.7809992 102.0219978 122.9970014
  39.9379992 100.8469978 122.5490014  40.6998555 101.1796874 122.8068939
  54.1389992 111.7459978 132.7550014  53.9829992 112.4249978 132.0980014
  55.0719992 111.8179978 132.9580014  54.2437387 111.8486390 132.6925342
  41.6339992  95.8639978 131.4920014  41.4049992  95.9229978 130.5640014
  41.1919992  95.0729978 131.7980014  41.5428801  95.7650540 131.4064729
  40.5649992 109.8049978 127.6520014  39.7319992 110.2769978 127.6800014
  41.1099992 110.3149978 127.0540014  40.5247590 109.9385897 127.5749194
  39.8529992 112.4169978 138.9820014  40.3929992 112.2009978 139.7420014
  39.3719992 111.6119978 138.7930014  39.8618613 112.2785400 139.0604782
  44.4499992 111.3369978 140.6030014  45.2179992 110.8779978 140.9440014
  44.4289992 111.1109978 139.6730014  44.5522135 111.2436668 140.5239491
  48.5419992 110.8449978 121.9780014  47.8979992 110.2139978 122.2990014
  49.3039992 110.3139978 121.7460014  48.5568058 110.6867902 121.9906038
  51.0269992 109.7169978 139.3320014  50.6759992 108.8599978 139.5750014
  51.7529992 109.8589978 139.9390014  51.0771590 109.6190178 139.4472907
  53.1469992 110.6619978 122.2120014  53.4299992 109.8669978 122.6640014
  53.8859992 110.8949978 121.6510014  53.2856956 110.5847031 122.1979822
  39.7599992 106.2279978 139.9370014  39.9039992 105.3259978 139.6500014
  38.9879992 106.5139978 139.4490014  39.6753303 106.1433243 139.8317908
  44.1009992 106.5709978 122.0690014  44.1659992 105.7769978 122.6000014
  44.7539992 106.4529978 121.3790014  44.1981754 106.4463337 122.0484259
  46.4149992 106.1969978 139.3690014  46.0869992 106.4679978 138.5120014
  46.5669992 105.2559978 139.2820014  46.3906030 106.1068973 139.2397945
  49.4539992 107.6179978 121.8050014  49.1849992 107.7989978 122.7060014
  49.2469992 106.6929978 121.6740014  49.3892000 107.5176774 121.9105693
  52.1499992 106.1129978 136.7530014  52.8949992 106.7019978 136.6330014
  51.3929992 106.6949978 136.8160014  52.1495205 106.2721997 136.7451119
  40.5929992 103.4279978 139.3570014  41.0009992 102.5709978 139.2360014
  40.3319992 103.4419978 140.2780014  40.6136016 103.3125119 139.4649192
  45.2509992 104.5439978 124.3750014  44.7909992 104.0599978 125.0610014
  45.5059992 103.8749978 123.7390014  45.2225038 104.3873689 124.3829447
  44.5399992 102.4369978 136.7310014  43.9209992 103.1109978 137.0110014
  44.8839992 102.7579978 135.8980014  44.5017605 102.5727198 136.6566707
  46.3219992 102.7869978 122.6370014  46.1409992 102.6319978 121.7100014
  47.2719992 102.8949978 122.6820014  46.4256566 102.7803669 122.5160929
  49.5589992 104.9079978 140.0080014  50.5129992 104.9919978 139.9810014
  49.3989992 104.1959978 140.6280014  49.6677182 104.8232842 140.0880733
  55.7119992 105.1409978 122.0830014  55.4379992 104.7169978 121.2700014
  55.7509992 106.0729978 121.8660014  55.6797716 105.2088827 121.9424286
  44.8789992  99.7919978 137.8130014  45.0289992  99.0629978 137.2110014
  44.8809992 100.5689978 137.2540014  44.8997967  99.7972708 137.6550541
  45.2919992  98.1609978 135.3060014  45.8269992  98.6129978 134.6540014
  44.4389992  98.0529978 134.8830014  45.2500374  98.2082665 135.1596710
  46.8729992 103.6009978 135.5450014  47.6239992 103.4449978 134.9720014
  46.5339992 104.4529978 135.2700014  46.9299587 103.6948138 135.4294078
  51.2889992 101.4159978 140.5740014  51.4809992 100.4849978 140.4620014
  52.1469992 101.8409978 140.5640014  51.4312269 101.3459928 140.5573192
  52.6059992 104.2049978 138.6510014  52.3239992 104.9139978 138.0740014
  53.5479992 104.1319978 138.5000014  52.6947656 104.2923128 138.5514809
  43.3579992 100.9899978 139.7250014  42.5899992 100.4569978 139.5150014
  44.0359992 100.6799978 139.1250014  43.3446973 100.8752375 139.6151796
  46.0969992  95.6179978 135.7370014  45.9989992  96.5639978 135.6320014
  45.3549992  95.2449978 135.2620014  45.9831913  95.6971813 135.6583539
  47.3609992  99.9389978 139.3010014  47.1259992  99.7199978 140.2030014
  46.5779992  99.7319978 138.7910014  47.2229219  99.8810066 139.3555852
  50.0769992  99.0669978 138.3770014  49.1289992  99.0989978 138.5090014
  50.3889992  98.4409978 139.0300014  49.9895190  98.9867262 138.4833564
  51.7109992  97.7009978 140.3820014  51.6139992  96.7489978 140.3760014
  51.3889992  97.9689978 141.2420014  51.6541761  97.6069744 140.4974936
  41.5379992  98.9099978 139.4290014  41.7499992  98.2039978 138.8190014
  41.4269992  98.4729978 140.2730014  41.5520269  98.7541921 139.4595873
  46.3189992  94.9119978 138.4090014  47.0309992  94.2719978 138.3950014
  46.2179992  95.1779978 137.4950014  46.4027261  94.8604190 138.2835537
  46.6729992  96.5939978 140.4620014  46.5409992  96.1189978 139.6420014
  46.0729992  97.3389978 140.4070014  46.5739070  96.6295789 140.3423251
  46.2189992 113.4769978 123.6390014  47.1519992 113.6349978 123.7820014
  45.9549992 114.1529978 123.0140014  46.3109308 113.5899104 123.5741396
  39.7869992 108.1139978 123.1210014  40.7009992 108.1929978 123.3950014
  39.7949992 107.4269978 122.4550014  39.9131143 108.0319085 123.0684274
  38.4359992 113.5069978 128.1990014  37.7889992 113.0449978 127.6660014
  38.7909992 112.8349978 128.7810014  38.3954506 113.3529503 128.2047341
  39.3059992 111.5869978 130.0030014  38.9719992 110.7069978 130.1750014
  39.5289992 111.9329978 130.8680014  39.2903721 111.5131938 130.1434168
  56.8549992 112.3969978 132.9840014  56.8329992 112.5819978 133.9230014
  57.5449992 112.9649978 132.6430014  56.9453439 112.4991887 133.0664791
  56.4179992 111.9639978 135.9060014  55.9309992 111.2289978 135.5350014
  56.9669992 111.5699978 136.5840014  56.4255247 111.8101057 135.9468461
  54.8689992 107.7539978 140.5440014  54.0029992 107.6489978 140.9380014
  55.2449992 108.5119978 140.9900014  54.8013401 107.8421708 140.6582620
  56.1699992 106.0099978 126.0580014  57.0199992 106.4309978 126.1850014
  56.1749992 105.2699978 126.6650014  56.2871143 105.9676094 126.1574750
  56.5639992 104.0639978 127.8820014  55.8379992 103.5839978 128.2790014
  57.1459992 104.2689978 128.6140014  56.5431635 104.0259166 128.0353748
  56.3229992 106.8489978 132.8290014  57.1569992 106.4709978 132.5490014
  56.4349992 107.7919978 132.7100014  56.4522522 106.9247742 132.7746020
  54.8099992 109.7269978 135.1360014  54.1619992 110.0519978 135.7620014
  54.2919992 109.2859978 134.4620014  54.6514168 109.7118523 135.1305307
  56.8329992 103.9649978 124.2730014  56.3109992 104.3209978 123.5540014
  56.7999992 104.6399978 124.9510014  56.7570699 104.1049848 124.2662129
  55.1819992 101.2039978 122.8240014  55.2779992 101.8709978 122.1440014
  55.0419992 100.3889978 122.3420014  55.1762063 101.1850667 122.6658377
  54.3509992 102.5849978 128.4450014  54.2009992 101.6399978 128.4240014
  53.9969992 102.8659978 129.2880014  54.2825527 102.4935605 128.5561859
  39.3859992 104.6629978 132.4550014  39.5709992 104.5809978 131.5190014
  40.2359992 104.5389978 132.8790014  39.5260916 104.6350393 132.3842896
  55.2069992 104.5549978 138.0830014  55.7899992 103.8199978 138.2750014
  55.7709992 105.3269978 138.1300014  55.3629781 104.5588145 138.1156164
  56.7039992 102.4579978 138.7680014  55.8409992 102.0789978 138.6020014
  57.3079992 101.7189978 138.6940014  56.6675944 102.3062978 138.7352984
  54.4289992  98.6119978 121.9410014  55.0399992  98.2409978 122.5780014
  53.5919992  98.1909978 122.1370014  54.3994947  98.5042756 122.0547252
  54.0619992 100.1669978 126.9070014  54.3409992  99.2599978 127.0310014
  54.8209992 100.6009978 126.5180014  54.2028619 100.1014502 126.8713795
  54.6729992 100.7489978 132.3430014  55.6059992 100.9609978 132.3090014
  54.4379992 100.8499978 133.2650014  54.7688308 100.7916503 132.4630214
  54.7029992 101.4859978 135.1190014  53.8599992 101.7539978 135.4850014
  55.1449992 102.3079978 134.9080014  54.6474138 101.6338273 135.1405518
  38.9839992  99.9329978 138.5960014  39.9029992  99.8109978 138.8320014
  38.5339992  99.1829978 138.9850014  39.0491148  99.8148751 138.6809408
  56.9859992  95.4659978 140.4720014  57.3349992  94.8119978 139.8670014
  57.1329992  96.3029978 140.0330014  57.0537355  95.4896067 140.3296564
  54.6749992  97.4299978 126.9550014  54.8569992  96.9809978 127.7810014
  54.0749992  96.8459978 126.4920014  54.6187529  97.2896131 127.0053619
  40.2049992  98.2459978 131.4870014  40.6499992  97.4539978 131.7890014
  40.6709992  98.9619978 131.9180014  40.3289059  98.2344474 131.5866079
  38.5089992 101.2449978 132.5560014  39.0009992 101.0239978 131.7650014
  38.8709992 102.0849978 132.8370014  38.6252923 101.3283468 132.4857407
  56.5049992  97.5749978 138.8220014  55.5879992  97.8459978 138.7860014
  56.6279992  97.0399978 138.0380014  56.3960828  97.5397700 138.7110785
  56.5419992  97.4979978 123.4830014  56.9539992  96.7769978 123.0080014
  57.2229992  98.1669978 123.5420014  56.6905900  97.4897306 123.4259038
  38.8229992  97.5029978 126.6100014  37.8979992  97.7109978 126.4810014
  39.2769992  97.9869978 125.9210014  38.7576374  97.5969949 126.4990957
  53.5929992 112.4869978 128.5560014  54.2459992 112.1389978 127.9480014
  54.1039992 112.9749978 129.2020014  53.7512777 112.5053815 128.5602047
  38.7859992  96.2409978 134.9550014  38.1209992  95.9949978 135.5980014
  38.3429992  96.8629978 134.3770014  38.6350937  96.2913614 134.9649379
  40.9779992 109.4159978 139.0990014  40.1569992 109.5909978 138.6390014
  40.7259992 109.3429978 140.0200014  40.8316173 109.4300794 139.1604972
  43.9319992 110.3899978 135.3580014  43.5079992 111.1999978 135.0750014
  44.8369992 110.4759978 135.0560014  43.9962433 110.5123331 135.2785377
  48.2439992 111.7889978 138.3170014  48.4279992 111.4559978 139.1950014
  49.0899992 112.0989978 137.9950014  48.3836484 111.7852979 138.3937617
  50.5889992 113.0749978 137.5610014  51.2659992 112.4419978 137.3210014
  50.9099992 113.4759978 138.3680014  50.7251323 113.0425691 137.6373158
  55.5059992  95.6649978 136.6410014  54.6929992  95.9899978 136.2530014
  55.7389992  94.9039978 136.1080014  55.4262566  95.6066559 136.5159213
  41.3339992 113.6469978 135.4050014  40.6139992 114.0869978 134.9540014
  40.9689992 113.3959978 136.2540014  41.1859796 113.6733824 135.4579329
  43.8009992 113.2469978 134.4350014  42.9369992 113.3189978 134.8390014
  43.7459992 113.7939978 133.6510014  43.6751942 113.3307849 134.3844000
  48.5119992 113.1349978 133.6100014  48.0549992 113.6639978 132.9560014
  48.6749992 113.7379978 134.3360014  48.4714476 113.2889140 133.6185499
  50.8399992 112.0129978 134.5550014  49.9349992 112.1779978 134.2900014
  51.2679992 112.8659978 134.4900014  50.7740700 112.1509529 134.5099520
  53.4439992 113.5829978 134.8500014  53.2619992 114.4989978 134.6400014
  53.6209992 113.1719978 134.0040014  53.4429907 113.6529741 134.7067883
  40.7489992 112.2699978 132.3150014  40.7309992 111.8439978 133.1730014
  41.5539992 111.9509978 131.9070014  40.8553221 112.1687233 132.3770225
  42.8899992 110.9799978 130.9700014  42.6709992 110.0629978 131.1400014
  43.7139992 111.1199978 131.4360014  42.9714702 110.8735511 131.0562527
  45.4269992 111.4499978 131.8190014  45.6399992 110.5619978 131.5320014
  45.4919992 111.4149978 132.7740014  45.4649075 111.3238307 131.9087373
  48.9359992  97.1139978 130.9630014  48.2619992  96.4839978 131.2190014
  49.4999992  96.6299978 130.3600014  48.9200384  96.9623708 130.9165020
  54.0789992  95.2209978 131.0760014  54.6819992  95.7689978 130.5740014
  53.2089992  95.5399978 130.8360014  54.0439190  95.3391041 130.9748679
  55.8059992  96.3599978 129.4090014  56.4169992  95.8459978 128.8830014
  56.1879992  97.2369978 129.4330014  55.9414475  96.4081323 129.3401208
  41.2629992  95.7479978 128.7850014  40.4859992  95.5129978 128.2780014
  41.7929992  94.9509978 128.7940014  41.2283451  95.6081268 128.7168627
  40.0989992  95.5459978 124.5890014  40.5379992  96.1569978 123.9970014
  39.4649992  96.0839978 125.0630014  40.0733859  95.7024064 124.5720305
  45.8419992  95.6739978 128.5990014  46.7159992  96.0629978 128.5690014
  45.7059992  95.4589978 129.5210014  45.9433207  95.6981923 128.7196509
  51.3989992  95.7039978 130.2480014  51.4749992  95.7999978 129.2990014
  51.1239992  94.7969978 130.3770014  51.3722042  95.5944241 130.1353811
  52.7519992  95.7299978 125.9400014  52.0489992  96.3449978 125.7310014
  52.3069992  94.8929978 126.0720014  52.5956292  95.7010085 125.9292439
  39.9999992 111.4939978 125.4870014  39.3149992 111.4559978 124.8190014
  40.0039992 112.4069978 125.7750014  39.9068174 111.6121998 125.4345310
  41.9599992  97.4619978 123.0310014  42.4509992  96.8319978 122.5040014
  42.5829992  97.7579978 123.6950014  42.1115062  97.4156770 123.0485438
  46.9859992  97.7549978 125.4890014  47.1639992  97.1079978 126.1710014
  46.9319992  98.5889978 125.9560014  47.0031025  97.7790504 125.6456433
  48.8639992 112.7029978 123.8840014  49.7299992 113.0699978 123.7060014
  48.6179992 112.2639978 123.0700014  48.9492097 112.6938525 123.7496019
  55.5729992 112.2659978 126.5630014  55.3789992 111.5179978 125.9980014
  55.5339992 113.0239978 125.9800014  55.5411645 112.2660786 126.4068148
  41.2199992  96.2619978 138.3030014  40.8539992  95.4959978 138.7460014
  42.1329992  96.2909978 138.5900014  41.2933225  96.1611906 138.4023459
  43.1929992  95.6119978 139.8390014  44.0919992  95.3379978 139.6540014
  42.8069992  94.8699978 140.3030014  43.2637237  95.4741508 139.8764710
  41.8179992 112.4139978 122.5120014  41.5499992 112.6999978 123.3850014
  42.5889992 111.8679978 122.6640014  41.8855600 112.3793330 122.6521499
  51.6149992  94.9449978 140.0210014  51.6909992  94.5189978 140.8750014
  52.5079992  94.9579978 139.6780014  51.7462267  94.8883952 140.0915932
  54.7909992 111.0179978 138.7130014  54.0089992 110.8309978 138.1940014
  54.7189992 111.9469978 138.9310014  54.6740863 111.1180221 138.6713574
  69.1969992 104.9039978 128.7440014  69.2859992 105.8479978 128.6120014
  68.5589992 104.6289978 128.0860014  69.1229062 104.9959812 128.6369641
  68.1299992 104.1589978 132.1630014  68.0919992 103.5129978 132.8680014
  67.8079992 103.6919978 131.3920014  68.0812679 104.0074276 132.1552921
  60.4979992 103.7729978 133.7560014  60.5399992 103.1479978 134.4790014
  61.2009992 104.3969978 133.9380014  60.5987345 103.7717873 133.8795274
  71.8359992 107.0979978 130.4650014  71.3949992 106.3779978 130.9150014
  71.8229992 107.8189978 131.0940014  71.7737960 107.0968329 130.6117567
  61.4219992 108.2229978 132.2910014  61.0519992 107.4209978 131.9210014
  62.3629992 108.0549978 132.3370014  61.4985984 108.0904638 132.2465603
  58.0319992 101.8829978 127.6840014  57.5839992 102.7289978 127.6650014
  57.4709992 101.3039978 127.1680014  57.8949603 101.9203674 127.6116720
  58.7419992 104.0449978 129.8100014  58.9559992 103.2749978 130.3370014
  59.4799992 104.1349978 129.2060014  58.8709652 103.9518012 129.8005212
  68.9479992 112.2019978 130.6770014  69.5669992 111.5259978 130.4030014
  68.7389992 111.9839978 131.5850014  69.0046232 112.0797938 130.7622517
  66.5189992 106.5909978 132.5690014  66.8229992 105.9049978 131.9750014
  67.2409992 106.7099978 133.1870014  66.6581152 106.5132189 132.5712123
  75.1819992  98.1929978 133.4300014  75.2319992  98.8029978 134.1660014
  75.6079992  98.6539978 132.7070014  75.2464108  98.3387709 133.4330112
  69.6599992 100.9849978 132.8970014  69.8029992 100.0389978 132.9170014
  69.5539992 101.1919978 131.9680014  69.6652509 100.8834813 132.7742231
  62.8149992  99.0869978 130.1690014  62.8579992  99.9469978 129.7510014
  62.3569992  98.5349978 129.5350014  62.7589815  99.1300621 130.0261197
  70.5369992  99.2179978 128.5700014  71.1839992  98.8889978 129.1950014
  71.0469992  99.7349978 127.9470014  70.6944317  99.2429227 128.5712167
  59.4349992 101.4839978 130.9310014  60.0889992 100.9339978 131.3630014
  59.4589992 101.2099978 130.0140014  59.5277199 101.3717167 130.8661668
  64.5919992 103.0339978 130.1460014  65.2079992 102.5069978 130.6560014
  64.0049992 102.3939978 129.7430014  64.5969239 102.8754117 130.1612952
  75.5739992  99.6709978 135.6660014  74.8849992 100.3289978 135.5700014
  75.5889992  99.4729978 136.6020014  75.4816740  99.7343242 135.7794630
  61.6249992  98.0049978 134.2430014  61.4059992  98.5349978 133.4770014
  60.9569992  98.2309978 134.8900014  61.5047001  98.1081154 134.2256064
  68.9939992 107.5049978 127.7870014  68.6989992 107.1819978 126.9360014
  68.6699992 108.4049978 127.8280014  68.9097983 107.5824026 127.6759771
  64.1939992 105.6799978 134.5310014  63.4539992 106.2789978 134.6340014
  64.9079992 106.2339978 134.2150014  64.1893288 105.8367356 134.5023805
  72.3009992  98.5089978 130.5500014  72.0859992  97.7429978 131.0830014
  72.9569992  98.9809978 131.0630014  72.3602673  98.4680728 130.6921990
  61.2189992  99.8969978 132.1950014  61.8329992 100.5299978 132.5690014
  61.7309992  99.4249978 131.5390014  61.3722277  99.9197352 132.1574279
  62.6019992 107.6449978 135.3180014  62.5959992 108.5239978 134.9400014
  61.7479992 107.5609978 135.7430014  62.4857925 107.7539535 135.3236887
  58.7229992 107.3159978 126.1000014  58.4509992 107.5449978 125.2110014
  58.7679992 108.1529978 126.5600014  58.6918709 107.4606058 126.0406107
  72.3479992 108.9369978 132.8120014  71.4059992 108.9959978 132.9740014
  72.6239992 109.8429978 132.6750014  72.2565865 109.0675288 132.8156192
  72.6479992  97.2239978 134.2300014  71.9119992  97.8339978 134.1920014
  73.3319992  97.6389978 133.7030014  72.6395506  97.3636400 134.1536051
  65.6519992  95.3099978 131.6960014  65.5339992  94.3619978 131.6410014
  64.7969992  95.6429978 131.9690014  65.5202679  95.2251926 131.7253720
  70.5999992 110.7179978 129.4380014  71.0249992 110.0109978 128.9530014
  70.9169992 111.5199978 129.0210014  70.7010266 110.7295190 129.3152479
  71.7599992 108.6189978 127.9460014  71.5019992 107.9289978 127.3350014
  71.8309992 108.1759978 128.7920014  71.7342837 108.4647106 127.9766912
  73.4459992 107.1859978 136.4240014  73.5849992 106.5939978 135.6840014
  73.6129992 108.0589978 136.0670014  73.4875562 107.2229896 136.2746283
  67.9179992 104.1479978 126.1960014  67.2069992 104.6829978 125.8440014
  68.6089992 104.2029978 125.5360014  67.9140751 104.2286777 126.0585858
  67.9719992 102.6049978 123.2350014  68.6729992 102.6279978 123.8860014
  68.2739992 101.9769978 122.5790014  68.1088282 102.5232339 123.2354496
  75.2869992 103.5259978 134.4900014  74.6349992 104.2199978 134.5790014
  75.7529992 103.7359978 133.6800014  75.2605937 103.6495019 134.3927533
  71.3239992 104.3569978 127.1480014  70.5919992 104.5859978 127.7210014
  71.7709992 103.6439978 127.6030014  71.2842753 104.2918972 127.2879715
  71.2209992 102.5319978 136.2160014  71.3009992 103.2949978 136.7870014
  70.6199992 102.8109978 135.5250014  71.1507245 102.6742630 136.2008424
  62.9689992 104.9879978 129.0300014  62.6389992 104.6169978 128.2120014
  63.5579992 104.3169978 129.3770014  63.0033970 104.8466063 128.9649404
  64.3359992 108.4159978 131.7120014  64.2409992 107.8369978 130.9550014
  65.0649992 108.0449978 132.2080014  64.4216161 108.2865891 131.6755209
  63.3359992 103.7559978 132.6640014  63.9009992 103.8779978 131.9010014
  63.6549992 104.3939978 133.3030014  63.4563977 103.8588851 132.6459424
  69.6449992 109.2599978 133.3980014  69.4049992 109.9219978 134.0460014
  69.4469992 108.4249978 133.8230014  69.5853826 109.2378115 133.5441566
  64.2159992 108.1559978 137.3810014  63.9049992 108.9379978 137.8360014
  63.5659992 108.0029978 136.6950014  64.0855538 108.2424087 137.3505898
  70.1949992 103.5199978 124.8330014  70.7739992 103.6699978 125.5800014
  70.6089992 103.9899978 124.1100014  70.3303122 103.6041277 124.8375042
  61.1359992 104.3539978 136.6100014  61.2059992 105.0049978 137.3080014
  60.2449992 104.4569978 136.2750014  61.0251802 104.4569757 136.6602249
  67.9209992 110.2559978 128.2680014  68.3949992 110.5519978 129.0460014
  67.3579992 110.9949978 128.0350014  67.9097361 110.3962721 128.3428611
  62.4549992 110.2269978 138.1440014  62.4629992 110.0909978 137.1970014
  61.5389992 110.1099978 138.3960014  62.3322528 110.1925463 138.0483243
  73.8939992  95.2699978 124.6460014  72.9939992  95.4089978 124.9410014
  74.1459992  96.1009978 124.2440014  73.8048683  95.4014055 124.6320232
  61.9599992 104.0569978 126.6200014  61.6679992 104.8249978 126.1290014
  61.2849992 103.3979978 126.4570014  61.8288497 104.0729745 126.5308260
  75.0829992 109.6359978 123.0220014  75.1559992 110.5749978 123.1930014
  75.9879992 109.3309978 122.9660014  75.2154158 109.7233061 123.0378392
  58.0529992 106.4199978 135.4350014  57.5509992 106.3919978 134.6200014
  58.0579992 105.5149978 135.7440014  57.9850416 106.2937368 135.3653766
  57.8029992 109.2009978 132.3190014  58.7489992 109.0559978 132.3000014
  57.6899992 109.9849978 132.8560014  57.9173578 109.2871697 132.3890317
  76.0009992 109.8669978 138.0010014  75.9509992 108.9109978 137.9640014
  75.1739992 110.1339978 138.4020014  75.8823987 109.7725174 138.0501446
  66.9789992 109.4409978 136.8770014  67.0669992 110.2669978 137.3520014
  66.1159992 109.1109978 137.1260014  66.8743357 109.5095468 136.9757653
  67.3939992 113.2129978 126.6830014  67.3179992 113.0919978 125.7370014
  67.4259992 114.1619978 126.8020014  67.3879156 113.3247530 126.5695048
  61.0469992 112.0019978 128.4640014  61.1989992 111.6539978 129.3430014
  60.1959992 111.6449978 128.2090014  60.9527899 111.9061738 128.5497340
  70.4949992 112.3669978 123.6850014  70.8699992 111.6229978 123.2150014
  70.4999992 112.0969978 124.6040014  70.5470024 112.2286950 123.7447987
  70.1639992 112.2929978 126.4350014  69.2289992 112.3929978 126.6130014
  70.4439992 111.5829978 127.0130014  70.0738173 112.2107239 126.5374998
  73.1529992 101.3599978 138.4810014  72.7449992 101.8399978 137.7610014
  73.1929992 100.4539978 138.1730014  73.1025476 101.3033160 138.3408247
  60.3019992 107.7439978 136.4780014  60.5179992 107.3819978 137.3370014
  59.4459992 107.3689978 136.2680014  60.2159354 107.6437906 136.5672160
  62.9199992  96.2139978 132.4730014  62.0589992  96.1269978 132.0660014
  62.8979992  97.0699978 132.9010014  62.7990411  96.3177884 132.4750857
  67.5829992  95.9359978 135.8480014  68.0029992  95.5209978 136.6010014
  66.6499992  95.7569978 135.9650014  67.5143736  95.8549910 135.9668968
  70.9099992  99.6909978 136.7010014  70.3959992  99.5659978 137.4990014
  70.7539992 100.6039978 136.4570014  70.8186967  99.7972123 136.7770937
  71.6719992 104.5519978 122.4630014  71.7139992 104.3299978 121.5330014
  72.5209992 104.9509978 122.6530014  71.7925253 104.5755498 122.3613822
  67.2449992  98.4279978 123.1330014  66.9909992  98.4469978 124.0560014
  66.9879992  97.5569978 122.8320014  67.1755133  98.3128110 123.2185082
  63.0109992 101.1789978 133.5680014  62.3699992 101.1389978 134.2770014
  63.0489992 102.1059978 133.3310014  62.9283670 101.2987795 133.6330550
  63.0079992 101.3999978 128.4800014  62.1159992 101.0599978 128.4220014
  63.4589992 101.0229978 127.7250014  62.9466815 101.3023762 128.3699203
  68.5439992 101.8159978 127.2970014  68.1349992 102.6309978 127.0060014
  69.2639992 101.6759978 126.6830014  68.5854013 101.9086571 127.1740875
  67.6459992 101.9919978 138.7850014  67.0829992 101.2869978 139.1060014
  68.4719992 101.8709978 139.2530014  67.6806674 101.8792165 138.8921751
  69.5489992 101.2619978 130.1110014  69.3529992 101.8679978 129.3960014
  69.7299992 100.4289978 129.6770014  69.5466584 101.2322513 129.9544212
  60.7609992 101.4999978 135.4350014  60.7229992 101.8999978 136.3040014
  60.2709992 100.6829978 135.5260014  60.6895621 101.4442510 135.5661377
  64.1269992  98.8739978 122.2340014  63.6959992  98.4289978 122.9640014
  63.4089992  99.2449978 121.7220014  63.9709363  98.8632968 122.2646211
  57.3699992  98.6159978 129.2860014  57.9999992  98.5869978 130.0050014
  57.8189992  98.1909978 128.5560014  57.5170692  98.5545316 129.2857771
  58.6439992  99.3619978 124.7100014  59.1179992  99.9529978 124.1250014
  57.9259992  99.8919978 125.0570014  58.6118640  99.5145511 124.6767969
  68.8129992 102.8999978 134.7830014  69.1359992 102.2689978 134.1400014
  68.3719992 102.3659978 135.4430014  68.7975789 102.7413522 134.7842232
  65.5899992  98.8279978 129.5670014  64.6789992  98.8849978 129.8550014
  66.0949992  98.7679978 130.3770014  65.5335387  98.8276870 129.7160646
  60.4179992 100.4569978 128.3930014  59.5289992 100.5559978 128.0530014
  60.7149992  99.6149978 128.0470014  60.3364177 100.3567687 128.2996940
  64.0709992 100.4569978 126.0500014  65.0029992 100.5859978 126.2280014
  63.8559992 101.1259978 125.4000014  64.1694472 100.5650806 125.9864891
  69.9949992  98.0629978 132.8310014  69.3179992  98.1939978 133.4950014
  69.5099992  97.9079978 132.0210014  69.8367265  98.0599659 132.8123397
  62.7449992 101.6509978 123.6170014  62.2029992 101.2719978 122.9250014
  63.5789992 101.8459978 123.1880014  62.7835159 101.6255076 123.4644419
  73.2829992 113.7339978 139.1080014  73.4819992 114.1579978 138.2730014
  73.9379992 114.0779978 139.7150014  73.3988501 113.8386091 139.0757097
  60.8809992 106.2079978 138.7160014  61.6129992 106.4629978 139.2770014
  60.0999992 106.4129978 139.2310014  60.8757684 106.2706468 138.8624782
  66.9099992 101.6149978 131.4540014  67.4739992 101.0689978 130.9070014
  66.7619992 101.0939978 132.2420014  66.9672575 101.4696552 131.4856987
  61.9119992  97.7519978 127.8720014  61.5949992  96.8489978 127.8370014
  62.6929992  97.7539978 127.3190014  61.9742307  97.6286951 127.7924314
  65.5359992 100.0039978 133.8680014  64.7009992 100.4579978 133.9780014
  66.0599992 100.2799978 134.6200014  65.4925070 100.1034666 133.9847152
  66.0809992 106.2169978 125.5520014  65.3359992 105.7089978 125.2300014
  65.9459992 106.2659978 126.4990014  65.9609047 106.1541596 125.6358845
  73.2309992 105.3499978 134.3390014  73.8719992 105.8059978 133.7950014
  72.3999992 105.4629978 133.8770014  73.2065171 105.4277502 134.2020237
  69.9779992  99.0309978 123.7520014  69.0399992  99.1419978 123.6000014
  70.2759992  99.8869978 124.0580014  69.8896402  99.1620621 123.7725571
  67.5999992 106.4009978 136.7890014  67.2539992 106.0189978 137.5960014
  67.3999992 107.3339978 136.8610014  67.5256523 106.4749095 136.9090735
  70.6969992 100.8979978 125.4120014  71.5889992 100.7599978 125.7310014
  70.7529992 101.6889978 124.8760014  70.8267107 100.9860526 125.3832091
  61.2049992 105.5119978 131.3220014  61.9499992 105.5089978 130.7210014
  61.2829992 104.6879978 131.8040014  61.3174158 105.4002916 131.3049153
  68.2059992 107.6749978 124.5780014  67.9109992 108.5019978 124.9590014
  67.5029992 107.0559978 124.7740014  68.0705471 107.7045227 124.6566698
  58.2129992 103.9719978 136.6370014  58.4359992 103.5539978 137.4690014
  57.6109992 103.3599978 136.2140014  58.1621260 103.8319933 136.6937320
  65.2299992 103.4889978 138.8500014  64.9339992 103.3239978 137.9550014
  66.1609992 103.2689978 138.8390014  65.3153982 103.4366578 138.7260045
  69.8499992 108.8629978 136.7400014  68.9499992 109.0459978 136.4720014
  69.8839992 109.1219978 137.6610014  69.7312909 108.9230815 136.8277852
  75.5819992 101.1069978 125.1070014  75.0269992 100.7109978 124.4350014
  75.6819992 102.0179978 124.8290014  75.5195888 101.1758990 124.9775206
  75.5449992 106.9079978 137.9440014  74.6939992 107.1459978 137.5770014
  76.1349992 106.8909978 137.1910014  75.5082408 106.9382966 137.7918879
  73.8769992 109.8929978 125.5720014  73.5039992 109.0679978 125.8810014
  74.1539992 109.7099978 124.6750014  73.8633871 109.7552441 125.4929677
  71.0369992 104.7009978 132.5930014  70.1089992 104.4699978 132.5660014
  71.4879992 103.9239978 132.2630014  70.9708165 104.5642774 132.5446790
  63.5799992 109.0299978 128.7260014  64.1079992 109.8029978 128.5260014
  62.6999992 109.2539978 128.4250014  63.5333176 109.1663161 128.6578409
  59.3349992 103.8919978 123.3140014  59.9509992 104.5189978 123.6930014
  58.4729992 104.2079978 123.5850014  59.3028195 104.0205798 123.4025386
  65.0079992 106.6929978 128.3030014  64.7669992 107.6179978 128.3440014
  64.2669992 106.2339978 128.6990014  64.8748390 106.7576403 128.3621404
  65.5219992 110.8419978 134.6180014  65.8849992 111.6959978 134.3840014
  66.0539992 110.5499978 135.3580014  65.6436090 110.9194058 134.6860219
  63.6909992 111.7139978 127.8480014  62.7409992 111.8199978 127.8990014
  64.0429992 112.5349978 128.1930014  63.6085480 111.8394438 127.9015999
  69.0659992 106.9409978 134.3180014  68.6409992 106.7129978 135.1450014
  69.6469992 106.2019978 134.1360014  69.0863930 106.8099843 134.4064731
  71.2689992 107.8699978 123.3920014  71.6229992 107.4899978 124.1970014
  70.3209992 107.7759978 123.4790014  71.1891820 107.8053092 123.5138714
  71.7249992 111.4929978 136.7880014  71.1229992 110.9369978 136.2920014
  72.0059992 112.1599978 136.1620014  71.6806829 111.5071613 136.6355443
  75.7729992 112.3489978 123.5930014  76.5169992 112.9349978 123.4530014
  75.0789992 112.9179978 123.9270014  75.7810201 112.5060603 123.6189772
  59.8469992  98.7259978 136.1950014  58.9549992  99.0639978 136.1280014
  59.7489992  97.8699978 136.6130014  59.7114965  98.6566499 136.2423044
  72.1349992 106.5419978 125.6190014  71.8579992 105.8139978 126.1750014
  73.0629992 106.6609978 125.8240014  72.2224499 106.4584213 125.7228044
  59.4989992 110.5299978 134.6300014  59.7159992 109.5979978 134.5990014
  59.7449992 110.8049978 135.5130014  59.5619809 110.4395686 134.7451691
  65.3599992 108.9819978 121.8390014  65.5989992 108.2329978 121.2920014
  65.0909992 108.5939978 122.6720014  65.3563233 108.8271853 121.8767809
  64.2969992 108.5519978 124.2960014  64.4439992 108.0319978 125.0860014
  64.2939992 109.4589978 124.6020014  64.3167300 108.6033964 124.4455895
  60.7499992 105.8039978 124.8060014  60.0639992 106.1569978 125.3730014
  61.2729992 106.5669978 124.5600014  60.7269033 105.9553746 124.8502661
  68.5819992  98.4669978 135.0850014  69.2809992  98.5409978 135.7350014
  68.2009992  97.6019978 135.2390014  68.6262097  98.3602389 135.1947997
  69.3659992  98.1189978 126.1820014  69.5859992  98.5899978 125.3790014
  69.9249992  98.5129978 126.8520014  69.4716730  98.2367432 126.1625906
  67.0349992 110.2489978 125.0450014  66.2179992 110.7459978 125.0970014
  67.5639992 110.7249978 124.4050014  66.9948508 110.3812543 124.9656035
  66.5659992  99.8469978 127.0170014  67.3779992 100.3509978 127.0630014
  66.3219992  99.7019978 127.9310014  66.6441467  99.8963749 127.1468575
  67.1019992 100.8329978 136.2020014  67.2209992 101.4069978 136.9590014
  67.7569992 100.1449978 136.3160014  67.2069146 100.8185574 136.3211314
  67.4499992  96.9279978 127.9550014  67.1029992  97.5449978 128.6000014
  68.1089992  97.4289978 127.4740014  67.4915950  97.0801099 127.9782271
  64.3729992 111.2929978 125.0270014  64.5339992 112.0929978 124.5260014
  64.1759992 111.5999978 125.9120014  64.3683919 111.4439129 125.0781006
  63.1079992  97.9909978 124.6420014  63.0239992  98.8789978 124.9890014
  63.9979992  97.7259978 124.8740014  63.2168163  98.0767179 124.7208596
  73.3059992  98.7399978 137.0370014  72.3899992  99.0019978 136.9490014
  73.6419992  98.7369978 136.1400014  73.2259789  98.7754626 136.9037847
  71.9089992 102.4899978 131.1320014  71.1109992 102.0749978 130.8040014
  72.3539992 101.7999978 131.6230014  71.8599684 102.3398628 131.1535227
  61.3659992 108.4179978 123.7030014  61.9579992 109.1179978 123.9790014
  61.8249992 107.9849978 122.9830014  61.5090791 108.4552908 123.6434607
  59.6819992 101.0829978 122.8190014  59.6369992 102.0219978 122.9970014
  58.7939992 100.8469978 122.5490014  59.5558555 101.1796874 122.8068939
  72.9949992 111.7459978 132.7550014  72.8389992 112.4249978 132.0980014
  73.9279992 111.8179978 132.9580014  73.0997387 111.8486390 132.6925342
  60.4899992  95.8639978 131.4920014  60.2609992  95.9229978 130.5640014
  60.0479992  95.0729978 131.7980014  60.3988801  95.7650540 131.4064729
  59.4209992 109.8049978 127.6520014  58.5879992 110.2769978 127.6800014
  59.9659992 110.3149978 127.0540014  59.3807590 109.9385897 127.5749194
  58.7089992 112.4169978 138.9820014  59.2489992 112.2009978 139.7420014
  58.2279992 111.6119978 138.7930014  58.7178613 112.2785400 139.0604782
  63.3059992 111.3369978 140.6030014  64.0739992 110.8779978 140.9440014
  63.2849992 111.1109978 139.6730014  63.4082135 111.2436668 140.5239491
  67.3979992 110.8449978 121.9780014  66.7539992 110.2139978 122.2990014
  68.1599992 110.3139978 121.7460014  67.4128058 110.6867902 121.9906038
  69.8829992 109.7169978 139.3320014  69.5319992 108.8599978 139.5750014
  70.6089992 109.8589978 139.9390014  69.9331590 109.6190178 139.4472907
  72.0029992 110.6619978 122.2120014  72.2859992 109.8669978 122.6640014
  72.7419992 110.8949978 121.6510014  72.1416956 110.5847031 122.1979821
  58.6159992 106.2279978 139.9370014  58.7599992 105.3259978 139.6500014
  57.8439992 106.5139978 139.4490014  58.5313303 106.1433243 139.8317908
  62.9569992 106.5709978 122.0690014  63.0219992 105.7769978 122.6000014
  63.6099992 106.4529978 121.3790014  63.0541754 106.4463337 122.0484259
  65.2709992 106.1969978 139.3690014  64.9429992 106.4679978 138.5120014
  65.4229992 105.2559978 139.2820014  65.2466030 106.1068973 139.2397945
  68.3099992 107.6179978 121.8050014  68.0409992 107.7989978 122.7060014
  68.1029992 106.6929978 121.6740014  68.2452000 107.5176774 121.9105693
  71.0059992 106.1129978 136.7530014  71.7509992 106.7019978 136.6330014
  70.2489992 106.6949978 136.8160014  71.0055205 106.2721997 136.7451119
  59.4489992 103.4279978 139.3570014  59.8569992 102.5709978 139.2360014
  59.1879992 103.4419978 140.2780014  59.4696016 103.3125119 139.4649192
  64.1069992 104.5439978 124.3750014  63.6469992 104.0599978 125.0610014
  64.3619992 103.8749978 123.7390014  64.0785038 104.3873689 124.3829447
  63.3959992 102.4369978 136.7310014  62.7769992 103.1109978 137.0110014
  63.7399992 102.7579978 135.8980014  63.3577605 102.5727198 136.6566707
  65.1779992 102.7869978 122.6370014  64.9969992 102.6319978 121.7100014
  66.1279992 102.8949978 122.6820014  65.2816566 102.7803669 122.5160929
  68.4149992 104.9079978 140.0080014  69.3689992 104.9919978 139.9810014
  68.2549992 104.1959978 140.6280014  68.5237182 104.8232842 140.0880733
  74.5679992 105.1409978 122.0830014  74.2939992 104.7169978 121.2700014
  74.6069992 106.0729978 121.8660014  74.5357716 105.2088827 121.9424286
  63.7349992  99.7919978 137.8130014  63.8849992  99.0629978 137.2110014
  63.7369992 100.5689978 137.2540014  63.7557967  99.7972708 137.6550541
  64.1479992  98.1609978 135.3060014  64.6829992  98.6129978 134.6540014
  63.2949992  98.0529978 134.8830014  64.1060374  98.2082665 135.1596710
  65.7289992 103.6009978 135.5450014  66.4799992 103.4449978 134.9720014
  65.3899992 104.4529978 135.2700014  65.7859587 103.6948138 135.4294078
  70.1449992 101.4159978 140.5740014  70.3369992 100.4849978 140.4620014
  71.0029992 101.8409978 140.5640014  70.2872269 101.3459928 140.5573192
  71.4619992 104.2049978 138.6510014  71.1799992 104.9139978 138.0740014
  72.4039992 104.1319978 138.5000014  71.5507656 104.2923128 138.5514809
  62.2139992 100.9899978 139.7250014  61.4459992 100.4569978 139.5150014
  62.8919992 100.6799978 139.1250014  62.2006973 100.8752375 139.6151796
  64.9529992  95.6179978 135.7370014  64.8549992  96.5639978 135.6320014
  64.2109992  95.2449978 135.2620014  64.8391913  95.6971813 135.6583539
  66.2169992  99.9389978 139.3010014  65.9819992  99.7199978 140.2030014
  65.4339992  99.7319978 138.7910014  66.0789219  99.8810066 139.3555852
  68.9329992  99.0669978 138.3770014  67.9849992  99.0989978 138.5090014
  69.2449992  98.4409978 139.0300014  68.8455190  98.9867262 138.4833564
  70.5669992  97.7009978 140.3820014  70.4699992  96.7489978 140.3760014
  70.2449992  97.9689978 141.2420014  70.5101761  97.6069744 140.4974936
  60.3939992  98.9099978 139.4290014  60.6059992  98.2039978 138.8190014
  60.2829992  98.4729978 140.2730014  60.4080269  98.7541921 139.4595873
  65.1749992  94.9119978 138.4090014  65.8869992  94.2719978 138.3950014
  65.0739992  95.1779978 137.4950014  65.2587261  94.8604190 138.2835537
  65.5289992  96.5939978 140.4620014  65.3969992  96.1189978 139.6420014
  64.9289992  97.3389978 140.4070014  65.4299070  96.6295789 140.3423251
  65.0749992 113.4769978 123.6390014  66.0079992 113.6349978 123.7820014
  64.8109992 114.1529978 123.0140014  65.1669308 113.5899104 123.5741396
  58.6429992 108.1139978 123.1210014  59.5569992 108.1929978 123.3950014
  58.6509992 107.4269978 122.4550014  58.7691143 108.0319085 123.0684274
  57.2919992 113.5069978 128.1990014  56.6449992 113.0449978 127.6660014
  57.6469992 112.8349978 128.7810014  57.2514506 113.3529503 128.2047341
  58.1619992 111.5869978 130.0030014  57.8279992 110.7069978 130.1750014
  58.3849992 111.9329978 130.8680014  58.1463721 111.5131938 130.1434168
  75.7109992 112.3969978 132.9840014  75.6889992 112.5819978 133.9230014
  76.4009992 112.9649978 132.6430014  75.8013439 112.4991887 133.0664791
  75.2739992 111.9639978 135.9060014  74.7869992 111.2289978 135.5350014
  75.8229992 111.5699978 136.5840014  75.2815247 111.8101057 135.9468461
  73.7249992 107.7539978 140.5440014  72.8589992 107.6489978 140.9380014
  74.1009992 108.5119978 140.9900014  73.6573401 107.8421708 140.6582620
  75.0259992 106.0099978 126.0580014  75.8759992 106.4309978 126.1850014
  75.0309992 105.2699978 126.6650014  75.1431143 105.9676094 126.1574750
  75.4199992 104.0639978 127.8820014  74.6939992 103.5839978 128.2790014
  76.0019992 104.2689978 128.6140014  75.3991635 104.0259166 128.0353748
  75.1789992 106.8489978 132.8290014  76.0129992 106.4709978 132.5490014
  75.2909992 107.7919978 132.7100014  75.3082522 106.9247742 132.7746020
  73.6659992 109.7269978 135.1360014  73.0179992 110.0519978 135.7620014
  73.1479992 109.2859978 134.4620014  73.5074168 109.7118523 135.1305307
  75.6889992 103.9649978 124.2730014  75.1669992 104.3209978 123.5540014
  75.6559992 104.6399978 124.9510014  75.6130699 104.1049848 124.2662129
  74.0379992 101.2039978 122.8240014  74.1339992 101.8709978 122.1440014
  73.8979992 100.3889978 122.3420014  74.0322063 101.1850667 122.6658377
  73.2069992 102.5849978 128.4450014  73.0569992 101.6399978 128.4240014
  72.8529992 102.8659978 129.2880014  73.1385527 102.4935605 128.5561859
  58.2419992 104.6629978 132.4550014  58.4269992 104.5809978 131.5190014
  59.0919992 104.5389978 132.8790014  58.3820916 104.6350393 132.3842896
  74.0629992 104.5549978 138.0830014  74.6459992 103.8199978 138.2750014
  74.6269992 105.3269978 138.1300014  74.2189781 104.5588145 138.1156164
  75.5599992 102.4579978 138.7680014  74.6969992 102.0789978 138.6020014
  76.1639992 101.7189978 138.6940014  75.5235944 102.3062978 138.7352984
  73.2849992  98.6119978 121.9410014  73.8959992  98.2409978 122.5780014
  72.4479992  98.1909978 122.1370014  73.2554947  98.5042756 122.0547252
  72.9179992 100.1669978 126.9070014  73.1969992  99.2599978 127.0310014
  73.6769992 100.6009978 126.5180014  73.0588619 100.1014502 126.8713795
  73.5289992 100.7489978 132.3430014  74.4619992 100.9609978 132.3090014
  73.2939992 100.8499978 133.2650014  73.6248308 100.7916503 132.4630214
  73.5589992 101.4859978 135.1190014  72.7159992 101.7539978 135.4850014
  74.0009992 102.3079978 134.9080014  73.5034138 101.6338273 135.1405518
  57.8399992  99.9329978 138.5960014  58.7589992  99.8109978 138.8320014
  57.3899992  99.1829978 138.9850014  57.9051148  99.8148751 138.6809408
  75.8419992  95.4659978 140.4720014  76.1909992  94.8119978 139.8670014
  75.9889992  96.3029978 140.0330014  75.9097355  95.4896067 140.3296564
  73.5309992  97.4299978 126.9550014  73.7129992  96.9809978 127.7810014
  72.9309992  96.8459978 126.4920014  73.4747529  97.2896131 127.0053619
  59.0609992  98.2459978 131.4870014  59.5059992  97.4539978 131.7890014
  59.5269992  98.9619978 131.9180014  59.1849059  98.2344474 131.5866079
  57.3649992 101.2449978 132.5560014  57.8569992 101.0239978 131.7650014
  57.7269992 102.0849978 132.8370014  57.4812923 101.3283468 132.4857407
  75.3609992  97.5749978 138.8220014  74.4439992  97.8459978 138.7860014
  75.4839992  97.0399978 138.0380014  75.2520828  97.5397700 138.7110785
  75.3979992  97.4979978 123.4830014  75.8099992  96.7769978 123.0080014
  76.0789992  98.1669978 123.5420014  75.5465900  97.4897306 123.4259038
  57.6789992  97.5029978 126.6100014  56.7539992  97.7109978 126.4810014
  58.1329992  97.9869978 125.9210014  57.6136374  97.5969949 126.4990957
  72.4489992 112.4869978 128.5560014  73.1019992 112.1389978 127.9480014
  72.9599992 112.9749978 129.2020014  72.6072777 112.5053815 128.5602047
  57.6419992  96.2409978 134.9550014  56.9769992  95.9949978 135.5980014
  57.1989992  96.8629978 134.3770014  57.4910937  96.2913614 134.9649379
  59.8339992 109.4159978 139.0990014  59.0129992 109.5909978 138.6390014
  59.5819992 109.3429978 140.0200014  59.6876173 109.4300794 139.1604972
  62.7879992 110.3899978 135.3580014  62.3639992 111.1999978 135.0750014
  63.6929992 110.4759978 135.0560014  62.8522433 110.5123331 135.2785377
  67.0999992 111.7889978 138.3170014  67.2839992 111.4559978 139.1950014
  67.9459992 112.0989978 137.9950014  67.2396484 111.7852979 138.3937617
  69.4449992 113.0749978 137.5610014  70.1219992 112.4419978 137.3210014
  69.7659992 113.4759978 138.3680014  69.5811323 113.0425691 137.6373158
  74.3619992  95.6649978 136.6410014  73.5489992  95.9899978 136.2530014
  74.5949992  94.9039978 136.1080014  74.2822566  95.6066559 136.5159213
  60.1899992 113.6469978 135.4050014  59.4699992 114.0869978 134.9540014
  59.8249992 113.3959978 136.2540014  60.0419796 113.6733824 135.4579329
  62.6569992 113.2469978 134.4350014  61.7929992 113.3189978 134.8390014
  62.6019992 113.7939978 133.6510014  62.5311942 113.3307849 134.3844000
  67.3679992 113.1349978 133.6100014  66.9109992 113.6639978 132.9560014
  67.5309992 113.7379978 134.3360014  67.3274476 113.2889140 133.6185499
  69.6959992 112.0129978 134.5550014  68.7909992 112.1779978 134.2900014
  70.1239992 112.8659978 134.4900014  69.6300700 112.1509529 134.5099520
  72.2999992 113.5829978 134.8500014  72.1179992 114.4989978 134.6400014
  72.4769992 113.1719978 134.0040014  72.2989907 113.6529741 134.7067883
  59.6049992 112.2699978 132.3150014  59.5869992 111.8439978 133.1730014
  60.4099992 111.9509978 131.9070014  59.7113221 112.1687233 132.3770225
  61.7459992 110.9799978 130.9700014  61.5269992 110.0629978 131.1400014
  62.5699992 111.1199978 131.4360014  61.8274702 110.8735511 131.0562527
  64.2829992 111.4499978 131.8190014  64.4959992 110.5619978 131.5320014
  64.3479992 111.4149978 132.7740014  64.3209075 111.3238307 131.9087373
  67.7919992  97.1139978 130.9630014  67.1179992  96.4839978 131.2190014
  68.3559992  96.6299978 130.3600014  67.7760384  96.9623708 130.9165020
  72.9349992  95.2209978 131.0760014  73.5379992  95.7689978 130.5740014
  72.0649992  95.5399978 130.8360014  72.8999190  95.3391041 130.9748679
  74.6619992  96.3599978 129.4090014  75.2729992  95.8459978 128.8830014
  75.0439992  97.2369978 129.4330014  74.7974475  96.4081323 129.3401208
  60.1189992  95.7479978 128.7850014  59.3419992  95.5129978 128.2780014
  60.6489992  94.9509978 128.7940014  60.0843451  95.6081268 128.7168627
  58.9549992  95.5459978 124.5890014  59.3939992  96.1569978 123.9970014
  58.3209992  96.0839978 125.0630014  58.9293859  95.7024064 124.5720305
  64.6979992  95.6739978 128.5990014  65.5719992  96.0629978 128.5690014
  64.5619992  95.4589978 129.5210014  64.7993207  95.6981923 128.7196509
  70.2549992  95.7039978 130.2480014  70.3309992  95.7999978 129.2990014
  69.9799992  94.7969978 130.3770014  70.2282042  95.5944241 130.1353811
  71.6079992  95.7299978 125.9400014  70.9049992  96.3449978 125.7310014
  71.1629992  94.8929978 126.0720014  71.4516292  95.7010085 125.9292439
  58.8559992 111.4939978 125.4870014  58.1709992 111.4559978 124.8190014
  58.8599992 112.4069978 125.7750014  58.7628174 111.6121998 125.4345310
  60.8159992  97.4619978 123.0310014  61.3069992  96.8319978 122.5040014
  61.4389992  97.7579978 123.6950014  60.9675062  97.4156770 123.0485438
  65.8419992  97.7549978 125.4890014  66.0199992  97.1079978 126.1710014
  65.7879992  98.5889978 125.9560014  65.8591025  97.7790504 125.6456433
  67.7199992 112.7029978 123.8840014  68.5859992 113.0699978 123.7060014
  67.4739992 112.2639978 123.0700014  67.8052097 112.6938525 123.7496019
  74.4289992 112.2659978 126.5630014  74.2349992 111.5179978 125.9980014
  74.3899992 113.0239978 125.9800014  74.3971645 112.2660786 126.4068148
  60.0759992  96.2619978 138.3030014  59.7099992  95.4959978 138.7460014
  60.9889992  96.2909978 138.5900014  60.1493225  96.1611906 138.4023459
  62.0489992  95.6119978 139.8390014  62.9479992  95.3379978 139.6540014
  61.6629992  94.8699978 140.3030014  62.1197237  95.4741508 139.8764710
  60.6739992 112.4139978 122.5120014  60.4059992 112.6999978 123.3850014
  61.4449992 111.8679978 122.6640014  60.7415600 112.3793330 122.6521499
  70.4709992  94.9449978 140.0210014  70.5469992  94.5189978 140.8750014
  71.3639992  94.9579978 139.6780014  70.6022267  94.8883952 140.0915932
  73.6469992 111.0179978 138.7130014  72.8649992 110.8309978 138.1940014
  73.5749992 111.9469978 138.9310014  73.5300863 111.1180221 138.6713574
  88.0529992 104.9039978 128.7440014  88.1419992 105.8479978 128.6120014
  87.4149992 104.6289978 128.0860014  87.9789062 104.9959812 128.6369641
  86.9859992 104.1589978 132.1630014  86.9479992 103.5129978 132.8680014
  86.6639992 103.6919978 131.3920014  86.9372679 104.0074276 132.1552921
  79.3539992 103.7729978 133.7560014  79.3959992 103.1479978 134.4790014
  80.0569992 104.3969978 133.9380014  79.4547345 103.7717873 133.8795274
  90.6919992 107.0979978 130.4650014  90.2509992 106.3779978 130.9150014
  90.6789992 107.8189978 131.0940014  90.6297960 107.0968329 130.6117567
  80.2779992 108.2229978 132.2910014  79.9079992 107.4209978 131.9210014
  81.2189992 108.0549978 132.3370014  80.3545984 108.0904638 132.2465603
  76.8879992 101.8829978 127.6840014  76.4399992 102.7289978 127.6650014
  76.3269992 101.3039978 127.1680014  76.7509603 101.9203674 127.6116720
  77.5979992 104.0449978 129.8100014  77.8119992 103.2749978 130.3370014
  78.3359992 104.1349978 129.2060014  77.7269652 103.9518012 129.8005212
  87.8039992 112.2019978 130.6770014  88.4229992 111.5259978 130.4030014
  87.5949992 111.9839978 131.5850014  87.8606232 112.0797938 130.7622517
  85.3749992 106.5909978 132.5690014  85.6789992 105.9049978 131.9750014
  86.0969992 106.7099978 133.1870014  85.5141152 106.5132189 132.5712123
  94.0379992  98.1929978 133.4300014  94.0879992  98.8029978 134.1660014
  94.4639992  98.6539978 132.7070014  94.1024108  98.3387709 133.4330112
  88.5159992 100.9849978 132.8970014  88.6589992 100.0389978 132.9170014
  88.4099992 101.1919978 131.9680014  88.5212509 100.8834813 132.7742231
  81.6709992  99.0869978 130.1690014  81.7139992  99.9469978 129.7510014
  81.2129992  98.5349978 129.5350014  81.6149815  99.1300621 130.0261197
  89.3929992  99.2179978 128.5700014  90.0399992  98.8889978 129.1950014
  89.9029992  99.7349978 127.9470014  89.5504317  99.2429227 128.5712167
  78.2909992 101.4839978 130.9310014  78.9449992 100.9339978 131.3630014
  78.3149992 101.2099978 130.0140014  78.3837199 101.3717167 130.8661668
  83.4479992 103.0339978 130.1460014  84.0639992 102.5069978 130.6560014
  82.8609992 102.3939978 129.7430014  83.4529239 102.8754117 130.1612952
  94.4299992  99.6709978 135.6660014  93.7409992 100.3289978 135.5700014
  94.4449992  99.4729978 136.6020014  94.3376740  99.7343243 135.7794630
  80.4809992  98.0049978 134.2430014  80.2619992  98.5349978 133.4770014
  79.8129992  98.2309978 134.8900014  80.3607001  98.1081154 134.2256064
  87.8499992 107.5049978 127.7870014  87.5549992 107.1819978 126.9360014
  87.5259992 108.4049978 127.8280014  87.7657983 107.5824026 127.6759771
  83.0499992 105.6799978 134.5310014  82.3099992 106.2789978 134.6340014
  83.7639992 106.2339978 134.2150014  83.0453288 105.8367356 134.5023805
  91.1569992  98.5089978 130.5500014  90.9419992  97.7429978 131.0830014
  91.8129992  98.9809978 131.0630014  91.2162673  98.4680728 130.6921990
  80.0749992  99.8969978 132.1950014  80.6889992 100.5299978 132.5690014
  80.5869992  99.4249978 131.5390014  80.2282277  99.9197352 132.1574279
  81.4579992 107.6449978 135.3180014  81.4519992 108.5239978 134.9400014
  80.6039992 107.5609978 135.7430014  81.3417925 107.7539535 135.3236887
  77.5789992 107.3159978 126.1000014  77.3069992 107.5449978 125.2110014
  77.6239992 108.1529978 126.5600014  77.5478709 107.4606058 126.0406107
  91.2039992 108.9369978 132.8120014  90.2619992 108.9959978 132.9740014
  91.4799992 109.8429978 132.6750014  91.1125865 109.0675288 132.8156192
  91.5039992  97.2239978 134.2300014  90.7679992  97.8339978 134.1920014
  92.1879992  97.6389978 133.7030014  91.4955506  97.3636400 134.1536051
  84.5079992  95.3099978 131.6960014  84.3899992  94.3619978 131.6410014
  83.6529992  95.6429978 131.9690014  84.3762679  95.2251926 131.7253720
  89.4559992 110.7179978 129.4380014  89.8809992 110.0109978 128.9530014
  89.7729992 111.5199978 129.0210014  89.5570266 110.7295190 129.3152479
  90.6159992 108.6189978 127.9460014  90.3579992 107.9289978 127.3350014
  90.6869992 108.1759978 128.7920014  90.5902837 108.4647106 127.9766912
  92.3019992 107.1859978 136.4240014  92.4409992 106.5939978 135.6840014
  92.4689992 108.0589978 136.0670014  92.3435562 107.2229896 136.2746283
  86.7739992 104.1479978 126.1960014  86.0629992 104.6829978 125.8440014
  87.4649992 104.2029978 125.5360014  86.7700751 104.2286777 126.0585858
  86.8279992 102.6049978 123.2350014  87.5289992 102.6279978 123.8860014
  87.1299992 101.9769978 122.5790014  86.9648282 102.5232339 123.2354496
  94.1429992 103.5259978 134.4900014  93.4909992 104.2199978 134.5790014
  94.6089992 103.7359978 133.6800014  94.1165937 103.6495019 134.3927533
  90.1799992 104.3569978 127.1480014  89.4479992 104.5859978 127.7210014
  90.6269992 103.6439978 127.6030014  90.1402753 104.2918972 127.2879715
  90.0769992 102.5319978 136.2160014  90.1569992 103.2949978 136.7870014
  89.4759992 102.8109978 135.5250014  90.0067245 102.6742630 136.2008424
  81.8249992 104.9879978 129.0300014  81.4949992 104.6169978 128.2120014
  82.4139992 104.3169978 129.3770014  81.8593970 104.8466063 128.9649404
  83.1919992 108.4159978 131.7120014  83.0969992 107.8369978 130.9550014
  83.9209992 108.0449978 132.2080014  83.2776161 108.2865891 131.6755209
  82.1919992 103.7559978 132.6640014  82.7569992 103.8779978 131.9010014
  82.5109992 104.3939978 133.3030014  82.3123977 103.8588851 132.6459424
  88.5009992 109.2599978 133.3980014  88.2609992 109.9219978 134.0460014
  88.3029992 108.4249978 133.8230014  88.4413826 109.2378115 133.5441566
  83.0719992 108.1559978 137.3810014  82.7609992 108.9379978 137.8360014
  82.4219992 108.0029978 136.6950014  82.9415538 108.2424087 137.3505898
  89.0509992 103.5199978 124.8330014  89.6299992 103.6699978 125.5800014
  89.4649992 103.9899978 124.1100014  89.1863122 103.6041277 124.8375042
  79.9919992 104.3539978 136.6100014  80.0619992 105.0049978 137.3080014
  79.1009992 104.4569978 136.2750014  79.8811802 104.4569757 136.6602249
  86.7769992 110.2559978 128.2680014  87.2509992 110.5519978 129.0460014
  86.2139992 110.9949978 128.0350014  86.7657361 110.3962721 128.3428611
  81.3109992 110.2269978 138.1440014  81.3189992 110.0909978 137.1970014
  80.3949992 110.1099978 138.3960014  81.1882528 110.1925463 138.0483243
  92.7499992  95.2699978 124.6460014  91.8499992  95.4089978 124.9410014
  93.0019992  96.1009978 124.2440014  92.6608683  95.4014055 124.6320232
  80.8159992 104.0569978 126.6200014  80.5239992 104.8249978 126.1290014
  80.1409992 103.3979978 126.4570014  80.6848497 104.0729745 126.5308260
  93.9389992 109.6359978 123.0220014  94.0119992 110.5749978 123.1930014
  94.8439992 109.3309978 122.9660014  94.0714158 109.7233061 123.0378392
  76.9089992 106.4199978 135.4350014  76.4069992 106.3919978 134.6200014
  76.9139992 105.5149978 135.7440014  76.8410416 106.2937368 135.3653766
  76.6589992 109.2009978 132.3190014  77.6049992 109.0559978 132.3000014
  76.5459992 109.9849978 132.8560014  76.7733578 109.2871697 132.3890317
  94.8569992 109.8669978 138.0010014  94.8069992 108.9109978 137.9640014
  94.0299992 110.1339978 138.4020014  94.7383987 109.7725174 138.0501446
  85.8349992 109.4409978 136.8770014  85.9229992 110.2669978 137.3520014
  84.9719992 109.1109978 137.1260014  85.7303357 109.5095468 136.9757653
  86.2499992 113.2129978 126.6830014  86.1739992 113.0919978 125.7370014
  86.2819992 114.1619978 126.8020014  86.2439156 113.3247530 126.5695048
  79.9029992 112.0019978 128.4640014  80.0549992 111.6539978 129.3430014
  79.0519992 111.6449978 128.2090014  79.8087899 111.9061738 128.5497340
  89.3509992 112.3669978 123.6850014  89.7259992 111.6229978 123.2150014
  89.3559992 112.0969978 124.6040014  89.4030024 112.2286950 123.7447987
  89.0199992 112.2929978 126.4350014  88.0849992 112.3929978 126.6130014
  89.2999992 111.5829978 127.0130014  88.9298173 112.2107239 126.5374998
  92.0089992 101.3599978 138.4810014  91.6009992 101.8399978 137.7610014
  92.0489992 100.4539978 138.1730014  91.9585476 101.3033160 138.3408247
  79.1579992 107.7439978 136.4780014  79.3739992 107.3819978 137.3370014
  78.3019992 107.3689978 136.2680014  79.0719354 107.6437906 136.5672160
  81.7759992  96.2139978 132.4730014  80.9149992  96.1269978 132.0660014
  81.7539992  97.0699978 132.9010014  81.6550411  96.3177884 132.4750857
  86.4389992  95.9359978 135.8480014  86.8589992  95.5209978 136.6010014
  85.5059992  95.7569978 135.9650014  86.3703736  95.8549910 135.9668968
  89.7659992  99.6909978 136.7010014  89.2519992  99.5659978 137.4990014
  89.6099992 100.6039978 136.4570014  89.6746967  99.7972123 136.7770937
  90.5279992 104.5519978 122.4630014  90.5699992 104.3299978 121.5330014
  91.3769992 104.9509978 122.6530014  90.6485253 104.5755498 122.3613822
  86.1009992  98.4279978 123.1330014  85.8469992  98.4469978 124.0560014
  85.8439992  97.5569978 122.8320014  86.0315133  98.3128110 123.2185082
  81.8669992 101.1789978 133.5680014  81.2259992 101.1389978 134.2770014
  81.9049992 102.1059978 133.3310014  81.7843670 101.2987795 133.6330550
  81.8639992 101.3999978 128.4800014  80.9719992 101.0599978 128.4220014
  82.3149992 101.0229978 127.7250014  81.8026815 101.3023762 128.3699203
  87.3999992 101.8159978 127.2970014  86.9909992 102.6309978 127.0060014
  88.1199992 101.6759978 126.6830014  87.4414013 101.9086571 127.1740875
  86.5019992 101.9919978 138.7850014  85.9389992 101.2869978 139.1060014
  87.3279992 101.8709978 139.2530014  86.5366674 101.8792165 138.8921751
  88.4049992 101.2619978 130.1110014  88.2089992 101.8679978 129.3960014
  88.5859992 100.4289978 129.6770014  88.4026584 101.2322513 129.9544212
  79.6169992 101.4999978 135.4350014  79.5789992 101.8999978 136.3040014
  79.1269992 100.6829978 135.5260014  79.5455621 101.4442510 135.5661377
  82.9829992  98.8739978 122.2340014  82.5519992  98.4289978 122.9640014
  82.2649992  99.2449978 121.7220014  82.8269363  98.8632968 122.2646211
  76.2259992  98.6159978 129.2860014  76.8559992  98.5869978 130.0050014
  76.6749992  98.1909978 128.5560014  76.3730692  98.5545316 129.2857771
  77.4999992  99.3619978 124.7100014  77.9739992  99.9529978 124.1250014
  76.7819992  99.8919978 125.0570014  77.4678640  99.5145511 124.6767969
  87.6689992 102.8999978 134.7830014  87.9919992 102.2689978 134.1400014
  87.2279992 102.3659978 135.4430014  87.6535789 102.7413522 134.7842232
  84.4459992  98.8279978 129.5670014  83.5349992  98.8849978 129.8550014
  84.9509992  98.7679978 130.3770014  84.3895387  98.8276870 129.7160646
  79.2739992 100.4569978 128.3930014  78.3849992 100.5559978 128.0530014
  79.5709992  99.6149978 128.0470014  79.1924177 100.3567687 128.2996940
  82.9269992 100.4569978 126.0500014  83.8589992 100.5859978 126.2280014
  82.7119992 101.1259978 125.4000014  83.0254472 100.5650806 125.9864891
  88.8509992  98.0629978 132.8310014  88.1739992  98.1939978 133.4950014
  88.3659992  97.9079978 132.0210014  88.6927265  98.0599659 132.8123397
  81.6009992 101.6509978 123.6170014  81.0589992 101.2719978 122.9250014
  82.4349992 101.8459978 123.1880014  81.6395159 101.6255076 123.4644419
  92.1389992 113.7339978 139.1080014  92.3379992 114.1579978 138.2730014
  92.7939992 114.0779978 139.7150014  92.2548501 113.8386091 139.0757097
  79.7369992 106.2079978 138.7160014  80.4689992 106.4629978 139.2770014
  78.9559992 106.4129978 139.2310014  79.7317684 106.2706468 138.8624782
  85.7659992 101.6149978 131.4540014  86.3299992 101.0689978 130.9070014
  85.6179992 101.0939978 132.2420014  85.8232575 101.4696552 131.4856987
  80.7679992  97.7519978 127.8720014  80.4509992  96.8489978 127.8370014
  81.5489992  97.7539978 127.3190014  80.8302307  97.6286951 127.7924314
  84.3919992 100.0039978 133.8680014  83.5569992 100.4579978 133.9780014
  84.9159992 100.2799978 134.6200014  84.3485070 100.1034666 133.9847152
  84.9369992 106.2169978 125.5520014  84.1919992 105.7089978 125.2300014
  84.8019992 106.2659978 126.4990014  84.8169047 106.1541596 125.6358845
  92.0869992 105.3499978 134.3390014  92.7279992 105.8059978 133.7950014
  91.2559992 105.4629978 133.8770014  92.0625171 105.4277502 134.2020237
  88.8339992  99.0309978 123.7520014  87.8959992  99.1419978 123.6000014
  89.1319992  99.8869978 124.0580014  88.7456402  99.1620621 123.7725571
  86.4559992 106.4009978 136.7890014  86.1099992 106.0189978 137.5960014
  86.2559992 107.3339978 136.8610014  86.3816523 106.4749095 136.9090735
  89.5529992 100.8979978 125.4120014  90.4449992 100.7599978 125.7310014
  89.6089992 101.6889978 124.8760014  89.6827107 100.9860526 125.3832091
  80.0609992 105.5119978 131.3220014  80.8059992 105.5089978 130.7210014
  80.1389992 104.6879978 131.8040014  80.1734158 105.4002916 131.3049153
  87.0619992 107.6749978 124.5780014  86.7669992 108.5019978 124.9590014
  86.3589992 107.0559978 124.7740014  86.9265471 107.7045227 124.6566698
  77.0689992 103.9719978 136.6370014  77.2919992 103.5539978 137.4690014
  76.4669992 103.3599978 136.2140014  77.0181260 103.8319933 136.6937320
  84.0859992 103.4889978 138.8500014  83.7899992 103.3239978 137.9550014
  85.0169992 103.2689978 138.8390014  84.1713982 103.4366578 138.7260045
  88.7059992 108.8629978 136.7400014  87.8059992 109.0459978 136.4720014
  88.7399992 109.1219978 137.6610014  88.5872909 108.9230815 136.8277852
  94.4379992 101.1069978 125.1070014  93.8829992 100.7109978 124.4350014
  94.5379992 102.0179978 124.8290014  94.3755888 101.1758990 124.9775206
  94.4009992 106.9079978 137.9440014  93.5499992 107.1459978 137.5770014
  94.9909992 106.8909978 137.1910014  94.3642408 106.9382966 137.7918879
  92.7329992 109.8929978 125.5720014  92.3599992 109.0679978 125.8810014
  93.0099992 109.7099978 124.6750014  92.7193871 109.7552441 125.4929677
  89.8929992 104.7009978 132.5930014  88.9649992 104.4699978 132.5660014
  90.3439992 103.9239978 132.2630014  89.8268165 104.5642774 132.5446790
  82.4359992 109.0299978 128.7260014  82.9639992 109.8029978 128.5260014
  81.5559992 109.2539978 128.4250014  82.3893176 109.1663161 128.6578409
  78.1909992 103.8919978 123.3140014  78.8069992 104.5189978 123.6930014
  77.3289992 104.2079978 123.5850014  78.1588195 104.0205798 123.4025386
  83.8639992 106.6929978 128.3030014  83.6229992 107.6179978 128.3440014
  83.1229992 106.2339978 128.6990014  83.7308390 106.7576403 128.3621404
  84.3779992 110.8419978 134.6180014  84.7409992 111.6959978 134.3840014
  84.9099992 110.5499978 135.3580014  84.4996090 110.9194058 134.6860219
  82.5469992 111.7139978 127.8480014  81.5969992 111.8199978 127.8990014
  82.8989992 112.5349978 128.1930014  82.4645480 111.8394438 127.9015999
  87.9219992 106.9409978 134.3180014  87.4969992 106.7129978 135.1450014
  88.5029992 106.2019978 134.1360014  87.9423930 106.8099843 134.4064731
  90.1249992 107.8699978 123.3920014  90.4789992 107.4899978 124.1970014
  89.1769992 107.7759978 123.4790014  90.0451820 107.8053092 123.5138714
  90.5809992 111.4929978 136.7880014  89.9789992 110.9369978 136.2920014
  90.8619992 112.1599978 136.1620014  90.5366829 111.5071613 136.6355443
  94.6289992 112.3489978 123.5930014  95.3729992 112.9349978 123.4530014
  93.9349992 112.9179978 123.9270014  94.6370201 112.5060603 123.6189772
  78.7029992  98.7259978 136.1950014  77.8109992  99.0639978 136.1280014
  78.6049992  97.8699978 136.6130014  78.5674965  98.6566499 136.2423044
  90.9909992 106.5419978 125.6190014  90.7139992 105.8139978 126.1750014
  91.9189992 106.6609978 125.8240014  91.0784499 106.4584213 125.7228044
  78.3549992 110.5299978 134.6300014  78.5719992 109.5979978 134.5990014
  78.6009992 110.8049978 135.5130014  78.4179809 110.4395686 134.7451691
  84.2159992 108.9819978 121.8390014  84.4549992 108.2329978 121.2920014
  83.9469992 108.5939978 122.6720014  84.2123233 108.8271853 121.8767809
  83.1529992 108.5519978 124.2960014  83.2999992 108.0319978 125.0860014
  83.1499992 109.4589978 124.6020014  83.1727300 108.6033964 124.4455895
  79.6059992 105.8039978 124.8060014  78.9199992 106.1569978 125.3730014
  80.1289992 106.5669978 124.5600014  79.5829033 105.9553746 124.8502661
  87.4379992  98.4669978 135.0850014  88.1369992  98.5409978 135.7350014
  87.0569992  97.6019978 135.2390014  87.4822097  98.3602389 135.1947997
  88.2219992  98.1189978 126.1820014  88.4419992  98.5899978 125.3790014
  88.7809992  98.5129978 126.8520014  88.3276730  98.2367432 126.1625906
  85.8909992 110.2489978 125.0450014  85.0739992 110.7459978 125.0970014
  86.4199992 110.7249978 124.4050014  85.8508508 110.3812543 124.9656035
  85.4219992  99.8469978 127.0170014  86.2339992 100.3509978 127.0630014
  85.1779992  99.7019978 127.9310014  85.5001467  99.8963749 127.1468575
  85.9579992 100.8329978 136.2020014  86.0769992 101.4069978 136.9590014
  86.6129992 100.1449978 136.3160014  86.0629146 100.8185574 136.3211314
  86.3059992  96.9279978 127.9550014  85.9589992  97.5449978 128.6000014
  86.9649992  97.4289978 127.4740014  86.3475949  97.0801099 127.9782271
  83.2289992 111.2929978 125.0270014  83.3899992 112.0929978 124.5260014
  83.0319992 111.5999978 125.9120014  83.2243919 111.4439129 125.0781006
  81.9639992  97.9909978 124.6420014  81.8799992  98.8789978 124.9890014
  82.8539992  97.7259978 124.8740014  82.0728163  98.0767179 124.7208596
  92.1619992  98.7399978 137.0370014  91.2459992  99.0019978 136.9490014
  92.4979992  98.7369978 136.1400014  92.0819789  98.7754626 136.9037847
  90.7649992 102.4899978 131.1320014  89.9669992 102.0749978 130.8040014
  91.2099992 101.7999978 131.6230014  90.7159684 102.3398628 131.1535227
  80.2219992 108.4179978 123.7030014  80.8139992 109.1179978 123.9790014
  80.6809992 107.9849978 122.9830014  80.3650791 108.4552908 123.6434607
  78.5379992 101.0829978 122.8190014  78.4929992 102.0219978 122.9970014
  77.6499992 100.8469978 122.5490014  78.4118555 101.1796874 122.8068939
  91.8509992 111.7459978 132.7550014  91.6949992 112.4249978 132.0980014
  92.7839992 111.8179978 132.9580014  91.9557387 111.8486390 132.6925342
  79.3459992  95.8639978 131.4920014  79.1169992  95.9229978 130.5640014
  78.9039992  95.0729978 131.7980014  79.2548801  95.7650540 131.4064729
  78.2769992 109.8049978 127.6520014  77.4439992 110.2769978 127.6800014
  78.8219992 110.3149978 127.0540014  78.2367590 109.9385897 127.5749194
  77.5649992 112.4169978 138.9820014  78.1049992 112.2009978 139.7420014
  77.0839992 111.6119978 138.7930014  77.5738613 112.2785400 139.0604782
  82.1619992 111.3369978 140.6030014  82.9299992 110.8779978 140.9440014
  82.1409992 111.1109978 139.6730014  82.2642135 111.2436668 140.5239491
  86.2539992 110.8449978 121.9780014  85.6099992 110.2139978 122.2990014
  87.0159992 110.3139978 121.7460014  86.2688058 110.6867902 121.9906038
  88.7389992 109.7169978 139.3320014  88.3879992 108.8599978 139.5750014
  89.4649992 109.8589978 139.9390014  88.7891590 109.6190178 139.4472907
  90.8589992 110.6619978 122.2120014  91.1419992 109.8669978 122.6640014
  91.5979992 110.8949978 121.6510014  90.9976956 110.5847031 122.1979822
  77.4719992 106.2279978 139.9370014  77.6159992 105.3259978 139.6500014
  76.6999992 106.5139978 139.4490014  77.3873303 106.1433243 139.8317908
  81.8129992 106.5709978 122.0690014  81.8779992 105.7769978 122.6000014
  82.4659992 106.4529978 121.3790014  81.9101754 106.4463337 122.0484259
  84.1269992 106.1969978 139.3690014  83.7989992 106.4679978 138.5120014
  84.2789992 105.2559978 139.2820014  84.1026030 106.1068973 139.2397945
  87.1659992 107.6179978 121.8050014  86.8969992 107.7989978 122.7060014
  86.9589992 106.6929978 121.6740014  87.1012000 107.5176774 121.9105693
  89.8619992 106.1129978 136.7530014  90.6069992 106.7019978 136.6330014
  89.1049992 106.6949978 136.8160014  89.8615205 106.2721997 136.7451119
  78.3049992 103.4279978 139.3570014  78.7129992 102.5709978 139.2360014
  78.0439992 103.4419978 140.2780014  78.3256016 103.3125119 139.4649192
  82.9629992 104.5439978 124.3750014  82.5029992 104.0599978 125.0610014
  83.2179992 103.8749978 123.7390014  82.9345038 104.3873689 124.3829447
  82.2519992 102.4369978 136.7310014  81.6329992 103.1109978 137.0110014
  82.5959992 102.7579978 135.8980014  82.2137605 102.5727198 136.6566707
  84.0339992 102.7869978 122.6370014  83.8529992 102.6319978 121.7100014
  84.9839992 102.8949978 122.6820014  84.1376566 102.7803669 122.5160929
  87.2709992 104.9079978 140.0080014  88.2249992 104.9919978 139.9810014
  87.1109992 104.1959978 140.6280014  87.3797182 104.8232842 140.0880733
  93.4239992 105.1409978 122.0830014  93.1499992 104.7169978 121.2700014
  93.4629992 106.0729978 121.8660014  93.3917716 105.2088827 121.9424286
  82.5909992  99.7919978 137.8130014  82.7409992  99.0629978 137.2110014
  82.5929992 100.5689978 137.2540014  82.6117967  99.7972708 137.6550541
  83.0039992  98.1609978 135.3060014  83.5389992  98.6129978 134.6540014
  82.1509992  98.0529978 134.8830014  82.9620374  98.2082665 135.1596710
  84.5849992 103.6009978 135.5450014  85.3359992 103.4449978 134.9720014
  84.2459992 104.4529978 135.2700014  84.6419587 103.6948138 135.4294078
  89.0009992 101.4159978 140.5740014  89.1929992 100.4849978 140.4620014
  89.8589992 101.8409978 140.5640014  89.1432269 101.3459928 140.5573192
  90.3179992 104.2049978 138.6510014  90.0359992 104.9139978 138.0740014
  91.2599992 104.1319978 138.5000014  90.4067656 104.2923128 138.5514809
  81.0699992 100.9899978 139.7250014  80.3019992 100.4569978 139.5150014
  81.7479992 100.6799978 139.1250014  81.0566973 100.8752375 139.6151796
  83.8089992  95.6179978 135.7370014  83.7109992  96.5639978 135.6320014
  83.0669992  95.2449978 135.2620014  83.6951913  95.6971813 135.6583539
  85.0729992  99.9389978 139.3010014  84.8379992  99.7199978 140.2030014
  84.2899992  99.7319978 138.7910014  84.9349219  99.8810066 139.3555852
  87.7889992  99.0669978 138.3770014  86.8409992  99.0989978 138.5090014
  88.1009992  98.4409978 139.0300014  87.7015190  98.9867262 138.4833563
  89.4229992  97.7009978 140.3820014  89.3259992  96.7489978 140.3760014
  89.1009992  97.9689978 141.2420014  89.3661761  97.6069744 140.4974936
  79.2499992  98.9099978 139.4290014  79.4619992  98.2039978 138.8190014
  79.1389992  98.4729978 140.2730014  79.2640269  98.7541921 139.4595873
  84.0309992  94.9119978 138.4090014  84.7429992  94.2719978 138.3950014
  83.9299992  95.1779978 137.4950014  84.1147261  94.8604190 138.2835537
  84.3849992  96.5939978 140.4620014  84.2529992  96.1189978 139.6420014
  83.7849992  97.3389978 140.4070014  84.2859070  96.6295789 140.3423251
  83.9309992 113.4769978 123.6390014  84.8639992 113.6349978 123.7820014
  83.6669992 114.1529978 123.0140014  84.0229308 113.5899104 123.5741396
  77.4989992 108.1139978 123.1210014  78.4129992 108.1929978 123.3950014
  77.5069992 107.4269978 122.4550014  77.6251143 108.0319085 123.0684274
  76.1479992 113.5069978 128.1990014  75.5009992 113.0449978 127.6660014
  76.5029992 112.8349978 128.7810014  76.1074506 113.3529503 128.2047341
  77.0179992 111.5869978 130.0030014  76.6839992 110.7069978 130.1750014
  77.2409992 111.9329978 130.8680014  77.0023721 111.5131938 130.1434168
  94.5669992 112.3969978 132.9840014  94.5449992 112.5819978 133.9230014
  95.2569992 112.9649978 132.6430014  94.6573439 112.4991887 133.0664791
  94.1299992 111.9639978 135.9060014  93.6429992 111.2289978 135.5350014
  94.6789992 111.5699978 136.5840014  94.1375247 111.8101057 135.9468461
  92.5809992 107.7539978 140.5440014  91.7149992 107.6489978 140.9380014
  92.9569992 108.5119978 140.9900014  92.5133401 107.8421708 140.6582620
  93.8819992 106.0099978 126.0580014  94.7319992 106.4309978 126.1850014
  93.8869992 105.2699978 126.6650014  93.9991143 105.9676094 126.1574750
  94.2759992 104.0639978 127.8820014  93.5499992 103.5839978 128.2790014
  94.8579992 104.2689978 128.6140014  94.2551635 104.0259166 128.0353748
  94.0349992 106.8489978 132.8290014  94.8689992 106.4709978 132.5490014
  94.1469992 107.7919978 132.7100014  94.1642522 106.9247742 132.7746020
  92.5219992 109.7269978 135.1360014  91.8739992 110.0519978 135.7620014
  92.0039992 109.2859978 134.4620014  92.3634168 109.7118523 135.1305307
  94.5449992 103.9649978 124.2730014  94.0229992 104.3209978 123.5540014
  94.5119992 104.6399978 124.9510014  94.4690699 104.1049848 124.2662129
  92.8939992 101.2039978 122.8240014  92.9899992 101.8709978 122.1440014
  92.7539992 100.3889978 122.3420014  92.8882063 101.1850667 122.6658377
  92.0629992 102.5849978 128.4450014  91.9129992 101.6399978 128.4240014
  91.7089992 102.8659978 129.2880014  91.9945527 102.4935605 128.5561859
  77.0979992 104.6629978 132.4550014  77.2829992 104.5809978 131.5190014
  77.9479992 104.5389978 132.8790014  77.2380916 104.6350393 132.3842896
  92.9189992 104.5549978 138.0830014  93.5019992 103.8199978 138.2750014
  93.4829992 105.3269978 138.1300014  93.0749781 104.5588145 138.1156164
  94.4159992 102.4579978 138.7680014  93.5529992 102.0789978 138.6020014
  95.0199992 101.7189978 138.6940014  94.3795944 102.3062978 138.7352984
  92.1409992  98.6119978 121.9410014  92.7519992  98.2409978 122.5780014
  91.3039992  98.1909978 122.1370014  92.1114947  98.5042756 122.0547252
  91.7739992 100.1669978 126.9070014  92.0529992  99.2599978 127.0310014
  92.5329992 100.6009978 126.5180014  91.9148619 100.1014502 126.8713795
  92.3849992 100.7489978 132.3430014  93.3179992 100.9609978 132.3090014
  92.1499992 100.8499978 133.2650014  92.4808308 100.7916503 132.4630214
  92.4149992 101.4859978 135.1190014  91.5719992 101.7539978 135.4850014
  92.8569992 102.3079978 134.9080014  92.3594138 101.6338273 135.1405518
  76.6959992  99.9329978 138.5960014  77.6149992  99.8109978 138.8320014
  76.2459992  99.1829978 138.9850014  76.7611148  99.8148751 138.6809408
  94.6979992  95.4659978 140.4720014  95.0469992  94.8119978 139.8670014
  94.8449992  96.3029978 140.0330014  94.7657355  95.4896067 140.3296564
  92.3869992  97.4299978 126.9550014  92.5689992  96.9809978 127.7810014
  91.7869992  96.8459978 126.4920014  92.3307529  97.2896131 127.0053619
  77.9169992  98.2459978 131.4870014  78.3619992  97.4539978 131.7890014
  78.3829992  98.9619978 131.9180014  78.0409059  98.2344474 131.5866079
  76.2209992 101.2449978 132.5560014  76.7129992 101.0239978 131.7650014
  76.5829992 102.0849978 132.8370014  76.3372923 101.3283468 132.4857407
  94.2169992  97.5749978 138.8220014  93.2999992  97.8459978 138.7860014
  94.3399992  97.0399978 138.0380014  94.1080828  97.5397700 138.7110785
  94.2539992  97.4979978 123.4830014  94.6659992  96.7769978 123.0080014
  94.9349992  98.1669978 123.5420014  94.4025900  97.4897306 123.4259038
  76.5349992  97.5029978 126.6100014  75.6099992  97.7109978 126.4810014
  76.9889992  97.9869978 125.9210014  76.4696374  97.5969949 126.4990957
  91.3049992 112.4869978 128.5560014  91.9579992 112.1389978 127.9480014
  91.8159992 112.9749978 129.2020014  91.4632777 112.5053815 128.5602047
  76.4979992  96.2409978 134.9550014  75.8329992  95.9949978 135.5980014
  76.0549992  96.8629978 134.3770014  76.3470937  96.2913614 134.9649379
  78.6899992 109.4159978 139.0990014  77.8689992 109.5909978 138.6390014
  78.4379992 109.3429978 140.0200014  78.5436173 109.4300794 139.1604972
  81.6439992 110.3899978 135.3580014  81.2199992 111.1999978 135.0750014
  82.5489992 110.4759978 135.0560014  81.7082433 110.5123331 135.2785377
  85.9559992 111.7889978 138.3170014  86.1399992 111.4559978 139.1950014
  86.8019992 112.0989978 137.9950014  86.0956484 111.7852979 138.3937617
  88.3009992 113.0749978 137.5610014  88.9779992 112.4419978 137.3210014
  88.6219992 113.4759978 138.3680014  88.4371323 113.0425691 137.6373158
  93.2179992  95.6649978 136.6410014  92.4049992  95.9899978 136.2530014
  93.4509992  94.9039978 136.1080014  93.1382566  95.6066559 136.5159213
  79.0459992 113.6469978 135.4050014  78.3259992 114.0869978 134.9540014
  78.6809992 113.3959978 136.2540014  78.8979796 113.6733824 135.4579329
  81.5129992 113.2469978 134.4350014  80.6489992 113.3189978 134.8390014
  81.4579992 113.7939978 133.6510014  81.3871942 113.3307849 134.3844000
  86.2239992 113.1349978 133.6100014  85.7669992 113.6639978 132.9560014
  86.3869992 113.7379978 134.3360014  86.1834476 113.2889140 133.6185499
  88.5519992 112.0129978 134.5550014  87.6469992 112.1779978 134.2900014
  88.9799992 112.8659978 134.4900014  88.4860700 112.1509529 134.5099520
  91.1559992 113.5829978 134.8500014  90.9739992 114.4989978 134.6400014
  91.3329992 113.1719978 134.0040014  91.1549907 113.6529741 134.7067883
  78.4609992 112.2699978 132.3150014  78.4429992 111.8439978 133.1730014
  79.2659992 111.9509978 131.9070014  78.5673221 112.1687233 132.3770225
  80.6019992 110.9799978 130.9700014  80.3829992 110.0629978 131.1400014
  81.4259992 111.1199978 131.4360014  80.6834702 110.8735511 131.0562527
  83.1389992 111.4499978 131.8190014  83.3519992 110.5619978 131.5320014
  83.2039992 111.4149978 132.7740014  83.1769075 111.3238307 131.9087373
  86.6479992  97.1139978 130.9630014  85.9739992  96.4839978 131.2190014
  87.2119992  96.6299978 130.3600014  86.6320384  96.9623708 130.9165020
  91.7909992  95.2209978 131.0760014  92.3939992  95.7689978 130.5740014
  90.9209992  95.5399978 130.8360014  91.7559190  95.3391041 130.9748679
  93.5179992  96.3599978 129.4090014  94.1289992  95.8459978 128.8830014
  93.8999992  97.2369978 129.4330014  93.6534475  96.4081323 129.3401208
  78.9749992  95.7479978 128.7850014  78.1979992  95.5129978 128.2780014
  79.5049992  94.9509978 128.7940014  78.9403451  95.6081268 128.7168627
  77.8109992  95.5459978 124.5890014  78.2499992  96.1569978 123.9970014
  77.1769992  96.0839978 125.0630014  77.7853859  95.7024064 124.5720305
  83.5539992  95.6739978 128.5990014  84.4279992  96.0629978 128.5690014
  83.4179992  95.4589978 129.5210014  83.6553207  95.6981923 128.7196509
  89.1109992  95.7039978 130.2480014  89.1869992  95.7999978 129.2990014
  88.8359992  94.7969978 130.3770014  89.0842042  95.5944241 130.1353811
  90.4639992  95.7299978 125.9400014  89.7609992  96.3449978 125.7310014
  90.0189992  94.8929978 126.0720014  90.3076292  95.7010085 125.9292439
  77.7119992 111.4939978 125.4870014  77.0269992 111.4559978 124.8190014
  77.7159992 112.4069978 125.7750014  77.6188174 111.6121998 125.4345310
  79.6719992  97.4619978 123.0310014  80.1629992  96.8319978 122.5040014
  80.2949992  97.7579978 123.6950014  79.8235062  97.4156770 123.0485438
  84.6979992  97.7549978 125.4890014  84.8759992  97.1079978 126.1710014
  84.6439992  98.5889978 125.9560014  84.7151025  97.7790504 125.6456433
  86.5759992 112.7029978 123.8840014  87.4419992 113.0699978 123.7060014
  86.3299992 112.2639978 123.0700014  86.6612097 112.6938525 123.7496019
  93.2849992 112.2659978 126.5630014  93.0909992 111.5179978 125.9980014
  93.2459992 113.0239978 125.9800014  93.2531645 112.2660786 126.4068148
  78.9319992  96.2619978 138.3030014  78.5659992  95.4959978 138.7460014
  79.8449992  96.2909978 138.5900014  79.0053225  96.1611906 138.4023459
  80.9049992  95.6119978 139.8390014  81.8039992  95.3379978 139.6540014
  80.5189992  94.8699978 140.3030014  80.9757237  95.4741508 139.8764710
  79.5299992 112.4139978 122.5120014  79.2619992 112.6999978 123.3850014
  80.3009992 111.8679978 122.6640014  79.5975600 112.3793330 122.6521499
  89.3269992  94.9449978 140.0210014  89.4029992  94.5189978 140.8750014
  90.2199992  94.9579978 139.6780014  89.4582267  94.8883952 140.0915932
  92.5029992 111.0179978 138.7130014  91.7209992 110.8309978 138.1940014
  92.4309992 111.9469978 138.9310014  92.3860863 111.1180221 138.6713574
 106.9089992 104.9039978 128.7440014 106.9979992 105.8479978 128.6120014
 106.2709992 104.6289978 128.0860014 106.8349062 104.9959812 128.6369641
 105.8419992 104.1589978 132.1630014 105.8039992 103.5129978 132.8680014
 105.5199992 103.6919978 131.3920014 105.7932679 104.0074276 132.1552921
  98.2099992 103.7729978 133.7560014  98.2519992 103.1479978 134.4790014
  98.9129992 104.3969978 133.9380014  98.3107345 103.7717873 133.8795274
 109.5479992 107.0979978 130.4650014 109.1069992 106.3779978 130.9150014
 109.5349992 107.8189978 131.0940014 109.4857960 107.0968329 130.6117567
  99.1339992 108.2229978 132.2910014  98.7639992 107.4209978 131.9210014
 100.0749992 108.0549978 132.3370014  99.2105984 108.0904638 132.2465603
  95.7439992 101.8829978 127.6840014  95.2959992 102.7289978 127.6650014
  95.1829992 101.3039978 127.1680014  95.6069603 101.9203674 127.6116720
  96.4539992 104.0449978 129.8100014  96.6679992 103.2749978 130.3370014
  97.1919992 104.1349978 129.2060014  96.5829652 103.9518012 129.8005212
 106.6599992 112.2019978 130.6770014 107.2789992 111.5259978 130.4030014
 106.4509992 111.9839978 131.5850014 106.7166232 112.0797938 130.7622517
 104.2309992 106.5909978 132.5690014 104.5349992 105.9049978 131.9750014
 104.9529992 106.7099978 133.1870014 104.3701152 106.5132189 132.5712124
 112.8939992  98.1929978 133.4300014 112.9439992  98.8029978 134.1660014
 113.3199992  98.6539978 132.7070014 112.9584108  98.3387709 133.4330112
 107.3719992 100.9849978 132.8970014 107.5149992 100.0389978 132.9170014
 107.2659992 101.1919978 131.9680014 107.3772509 100.8834813 132.7742231
 100.5269992  99.0869978 130.1690014 100.5699992  99.9469978 129.7510014
 100.0689992  98.5349978 129.5350014 100.4709815  99.1300621 130.0261197
 108.2489992  99.2179978 128.5700014 108.8959992  98.8889978 129.1950014
 108.7589992  99.7349978 127.9470014 108.4064317  99.2429227 128.5712167
  97.1469992 101.4839978 130.9310014  97.8009992 100.9339978 131.3630014
  97.1709992 101.2099978 130.0140014  97.2397199 101.3717167 130.8661668
 102.3039992 103.0339978 130.1460014 102.9199992 102.5069978 130.6560014
 101.7169992 102.3939978 129.7430014 102.3089239 102.8754117 130.1612952
 113.2859992  99.6709978 135.6660014 112.5969992 100.3289978 135.5700014
 113.3009992  99.4729978 136.6020014 113.1936740  99.7343243 135.7794630
  99.3369992  98.0049978 134.2430014  99.1179992  98.5349978 133.4770014
  98.6689992  98.2309978 134.8900014  99.2167001  98.1081154 134.2256064
 106.7059992 107.5049978 127.7870014 106.4109992 107.1819978 126.9360014
 106.3819992 108.4049978 127.8280014 106.6217983 107.5824026 127.6759771
 101.9059992 105.6799978 134.5310014 101.1659992 106.2789978 134.6340014
 102.6199992 106.2339978 134.2150014 101.9013288 105.8367356 134.5023805
 110.0129992  98.5089978 130.5500014 109.7979992  97.7429978 131.0830014
 110.6689992  98.9809978 131.0630014 110.0722673  98.4680728 130.6921990
  98.9309992  99.8969978 132.1950014  99.5449992 100.5299978 132.5690014
  99.4429992  99.4249978 131.5390014  99.0842277  99.9197352 132.1574279
 100.3139992 107.6449978 135.3180014 100.3079992 108.5239978 134.9400014
  99.4599992 107.5609978 135.7430014 100.1977925 107.7539535 135.3236887
  96.4349992 107.3159978 126.1000014  96.1629992 107.5449978 125.2110014
  96.4799992 108.1529978 126.5600014  96.4038709 107.4606058 126.0406107
 110.0599992 108.9369978 132.8120014 109.1179992 108.9959978 132.9740014
 110.3359992 109.8429978 132.6750014 109.9685865 109.0675288 132.8156192
 110.3599992  97.2239978 134.2300014 109.6239992  97.8339978 134.1920014
 111.0439992  97.6389978 133.7030014 110.3515506  97.3636400 134.1536051
 103.3639992  95.3099978 131.6960014 103.2459992  94.3619978 131.6410014
 102.5089992  95.6429978 131.9690014 103.2322679  95.2251926 131.7253720
 108.3119992 110.7179978 129.4380014 108.7369992 110.0109978 128.9530014
 108.6289992 111.5199978 129.0210014 108.4130266 110.7295190 129.3152479
 109.4719992 108.6189978 127.9460014 109.2139992 107.9289978 127.3350014
 109.5429992 108.1759978 128.7920014 109.4462837 108.4647106 127.9766912
 111.1579992 107.1859978 136.4240014 111.2969992 106.5939978 135.6840014
 111.3249992 108.0589978 136.0670014 111.1995562 107.2229896 136.2746283
 105.6299992 104.1479978 126.1960014 104.9189992 104.6829978 125.8440014
 106.3209992 104.2029978 125.5360014 105.6260751 104.2286777 126.0585858
 105.6839992 102.6049978 123.2350014 106.3849992 102.6279978 123.8860014
 105.9859992 101.9769978 122.5790014 105.8208282 102.5232339 123.2354496
 112.9989992 103.5259978 134.4900014 112.3469992 104.2199978 134.5790014
 113.4649992 103.7359978 133.6800014 112.9725937 103.6495019 134.3927533
 109.0359992 104.3569978 127.1480014 108.3039992 104.5859978 127.7210014
 109.4829992 103.6439978 127.6030014 108.9962753 104.2918972 127.2879715
 108.9329992 102.5319978 136.2160014 109.0129992 103.2949978 136.7870014
 108.3319992 102.8109978 135.5250014 108.8627245 102.6742630 136.2008424
 100.6809992 104.9879978 129.0300014 100.3509992 104.6169978 128.2120014
 101.2699992 104.3169978 129.3770014 100.7153970 104.8466063 128.9649404
 102.0479992 108.4159978 131.7120014 101.9529992 107.8369978 130.9550014
 102.7769992 108.0449978 132.2080014 102.1336161 108.2865891 131.6755209
 101.0479992 103.7559978 132.6640014 101.6129992 103.8779978 131.9010014
 101.3669992 104.3939978 133.3030014 101.1683977 103.8588851 132.6459424
 107.3569992 109.2599978 133.3980014 107.1169992 109.9219978 134.0460014
 107.1589992 108.4249978 133.8230014 107.2973826 109.2378115 133.5441566
 101.9279992 108.1559978 137.3810014 101.6169992 108.9379978 137.8360014
 101.2779992 108.0029978 136.6950014 101.7975538 108.2424087 137.3505898
 107.9069992 103.5199978 124.8330014 108.4859992 103.6699978 125.5800014
 108.3209992 103.9899978 124.1100014 108.0423122 103.6041277 124.8375042
  98.8479992 104.3539978 136.6100014  98.9179992 105.0049978 137.3080014
  97.9569992 104.4569978 136.2750014  98.7371802 104.4569757 136.6602249
 105.6329992 110.2559978 128.2680014 106.1069992 110.5519978 129.0460014
 105.0699992 110.9949978 128.0350014 105.6217361 110.3962721 128.3428611
 100.1669992 110.2269978 138.1440014 100.1749992 110.0909978 137.1970014
  99.2509992 110.1099978 138.3960014 100.0442528 110.1925463 138.0483243
 111.6059992  95.2699978 124.6460014 110.7059992  95.4089978 124.9410014
 111.8579992  96.1009978 124.2440014 111.5168683  95.4014055 124.6320232
  99.6719992 104.0569978 126.6200014  99.3799992 104.8249978 126.1290014
  98.9969992 103.3979978 126.4570014  99.5408497 104.0729745 126.5308260
 112.7949992 109.6359978 123.0220014 112.8679992 110.5749978 123.1930014
 113.6999992 109.3309978 122.9660014 112.9274158 109.7233061 123.0378392
  95.7649992 106.4199978 135.4350014  95.2629992 106.3919978 134.6200014
  95.7699992 105.5149978 135.7440014  95.6970416 106.2937368 135.3653766
  95.5149992 109.2009978 132.3190014  96.4609992 109.0559978 132.3000014
  95.4019992 109.9849978 132.8560014  95.6293578 109.2871697 132.3890317
 113.7129992 109.8669978 138.0010014 113.6629992 108.9109978 137.9640014
 112.8859992 110.1339978 138.4020014 113.5943987 109.7725174 138.0501446
 104.6909992 109.4409978 136.8770014 104.7789992 110.2669978 137.3520014
 103.8279992 109.1109978 137.1260014 104.5863357 109.5095468 136.9757653
 105.1059992 113.2129978 126.6830014 105.0299992 113.0919978 125.7370014
 105.1379992 114.1619978 126.8020014 105.0999156 113.3247530 126.5695048
  98.7589992 112.0019978 128.4640014  98.9109992 111.6539978 129.3430014
  97.9079992 111.6449978 128.2090014  98.6647899 111.9061738 128.5497340
 108.2069992 112.3669978 123.6850014 108.5819992 111.6229978 123.2150014
 108.2119992 112.0969978 124.6040014 108.2590024 112.2286950 123.7447987
 107.8759992 112.2929978 126.4350014 106.9409992 112.3929978 126.6130014
 108.1559992 111.5829978 127.0130014 107.7858173 112.2107239 126.5374998
 110.8649992 101.3599978 138.4810014 110.4569992 101.8399978 137.7610014
 110.9049992 100.4539978 138.1730014 110.8145476 101.3033160 138.3408247
  98.0139992 107.7439978 136.4780014  98.2299992 107.3819978 137.3370014
  97.1579992 107.3689978 136.2680014  97.9279354 107.6437906 136.5672160
 100.6319992  96.2139978 132.4730014  99.7709992  96.1269978 132.0660014
 100.6099992  97.0699978 132.9010014 100.5110411  96.3177884 132.4750857
 105.2949992  95.9359978 135.8480014 105.7149992  95.5209978 136.6010014
 104.3619992  95.7569978 135.9650014 105.2263736  95.8549910 135.9668968
 108.6219992  99.6909978 136.7010014 108.1079992  99.5659978 137.4990014
 108.4659992 100.6039978 136.4570014 108.5306967  99.7972123 136.7770937
 109.3839992 104.5519978 122.4630014 109.4259992 104.3299978 121.5330014
 110.2329992 104.9509978 122.6530014 109.5045253 104.5755498 122.3613822
 104.9569992  98.4279978 123.1330014 104.7029992  98.4469978 124.0560014
 104.6999992  97.5569978 122.8320014 104.8875133  98.3128110 123.2185082
 100.7229992 101.1789978 133.5680014 100.0819992 101.1389978 134.2770014
 100.7609992 102.1059978 133.3310014 100.6403670 101.2987795 133.6330550
 100.7199992 101.3999978 128.4800014  99.8279992 101.0599978 128.4220014
 101.1709992 101.0229978 127.7250014 100.6586815 101.3023762 128.3699203
 106.2559992 101.8159978 127.2970014 105.8469992 102.6309978 127.0060014
 106.9759992 101.6759978 126.6830014 106.2974013 101.9086571 127.1740875
 105.3579992 101.9919978 138.7850014 104.7949992 101.2869978 139.1060014
 106.1839992 101.8709978 139.2530014 105.3926674 101.8792165 138.8921751
 107.2609992 101.2619978 130.1110014 107.0649992 101.8679978 129.3960014
 107.4419992 100.4289978 129.6770014 107.2586584 101.2322513 129.9544212
  98.4729992 101.4999978 135.4350014  98.4349992 101.8999978 136.3040014
  97.9829992 100.6829978 135.5260014  98.4015621 101.4442510 135.5661377
 101.8389992  98.8739978 122.2340014 101.4079992  98.4289978 122.9640014
 101.1209992  99.2449978 121.7220014 101.6829363  98.8632968 122.2646211
  95.0819992  98.6159978 129.2860014  95.7119992  98.5869978 130.0050014
  95.5309992  98.1909978 128.5560014  95.2290692  98.5545316 129.2857771
  96.3559992  99.3619978 124.7100014  96.8299992  99.9529978 124.1250014
  95.6379992  99.8919978 125.0570014  96.3238640  99.5145511 124.6767969
 106.5249992 102.8999978 134.7830014 106.8479992 102.2689978 134.1400014
 106.0839992 102.3659978 135.4430014 106.5095789 102.7413522 134.7842232
 103.3019992  98.8279978 129.5670014 102.3909992  98.8849978 129.8550014
 103.8069992  98.7679978 130.3770014 103.2455387  98.8276870 129.7160646
  98.1299992 100.4569978 128.3930014  97.2409992 100.5559978 128.0530014
  98.4269992  99.6149978 128.0470014  98.0484177 100.3567687 128.2996940
 101.7829992 100.4569978 126.0500014 102.7149992 100.5859978 126.2280014
 101.5679992 101.1259978 125.4000014 101.8814472 100.5650806 125.9864891
 107.7069992  98.0629978 132.8310014 107.0299992  98.1939978 133.4950014
 107.2219992  97.9079978 132.0210014 107.5487265  98.0599659 132.8123397
 100.4569992 101.6509978 123.6170014  99.9149992 101.2719978 122.9250014
 101.2909992 101.8459978 123.1880014 100.4955159 101.6255076 123.4644419
 110.9949992 113.7339978 139.1080014 111.1939992 114.1579978 138.2730014
 111.6499992 114.0779978 139.7150014 111.1108501 113.8386091 139.0757097
  98.5929992 106.2079978 138.7160014  99.3249992 106.4629978 139.2770014
  97.8119992 106.4129978 139.2310014  98.5877684 106.2706468 138.8624782
 104.6219992 101.6149978 131.4540014 105.1859992 101.0689978 130.9070014
 104.4739992 101.0939978 132.2420014 104.6792575 101.4696552 131.4856987
  99.6239992  97.7519978 127.8720014  99.3069992  96.8489978 127.8370014
 100.4049992  97.7539978 127.3190014  99.6862307  97.6286951 127.7924314
 103.2479992 100.0039978 133.8680014 102.4129992 100.4579978 133.9780014
 103.7719992 100.2799978 134.6200014 103.2045070 100.1034666 133.9847152
 103.7929992 106.2169978 125.5520014 103.0479992 105.7089978 125.2300014
 103.6579992 106.2659978 126.4990014 103.6729047 106.1541596 125.6358845
 110.9429992 105.3499978 134.3390014 111.5839992 105.8059978 133.7950014
 110.1119992 105.4629978 133.8770014 110.9185171 105.4277502 134.2020237
 107.6899992  99.0309978 123.7520014 106.7519992  99.1419978 123.6000014
 107.9879992  99.8869978 124.0580014 107.6016402  99.1620621 123.7725571
 105.3119992 106.4009978 136.7890014 104.9659992 106.0189978 137.5960014
 105.1119992 107.3339978 136.8610014 105.2376523 106.4749095 136.9090735
 108.4089992 100.8979978 125.4120014 109.3009992 100.7599978 125.7310014
 108.4649992 101.6889978 124.8760014 108.5387107 100.9860526 125.3832091
  98.9169992 105.5119978 131.3220014  99.6619992 105.5089978 130.7210014
  98.9949992 104.6879978 131.8040014  99.0294158 105.4002916 131.3049153
 105.9179992 107.6749978 124.5780014 105.6229992 108.5019978 124.9590014
 105.2149992 107.0559978 124.7740014 105.7825471 107.7045227 124.6566698
  95.9249992 103.9719978 136.6370014  96.1479992 103.5539978 137.4690014
  95.3229992 103.3599978 136.2140014  95.8741260 103.8319933 136.6937320
 102.9419992 103.4889978 138.8500014 102.6459992 103.3239978 137.9550014
 103.8729992 103.2689978 138.8390014 103.0273982 103.4366578 138.7260045
 107.5619992 108.8629978 136.7400014 106.6619992 109.0459978 136.4720014
 107.5959992 109.1219978 137.6610014 107.4432909 108.9230815 136.8277852
 113.2939992 101.1069978 125.1070014 112.7389992 100.7109978 124.4350014
 113.3939992 102.0179978 124.8290014 113.2315888 101.1758990 124.9775206
 113.2569992 106.9079978 137.9440014 112.4059992 107.1459978 137.5770014
 113.8469992 106.8909978 137.1910014 113.2202408 106.9382966 137.7918879
 111.5889992 109.8929978 125.5720014 111.2159992 109.0679978 125.8810014
 111.8659992 109.7099978 124.6750014 111.5753871 109.7552441 125.4929677
 108.7489992 104.7009978 132.5930014 107.8209992 104.4699978 132.5660014
 109.1999992 103.9239978 132.2630014 108.6828165 104.5642774 132.5446790
 101.2919992 109.0299978 128.7260014 101.8199992 109.8029978 128.5260014
 100.4119992 109.2539978 128.4250014 101.2453176 109.1663161 128.6578409
  97.0469992 103.8919978 123.3140014  97.6629992 104.5189978 123.6930014
  96.1849992 104.2079978 123.5850014  97.0148195 104.0205798 123.4025386
 102.7199992 106.6929978 128.3030014 102.4789992 107.6179978 128.3440014
 101.9789992 106.2339978 128.6990014 102.5868390 106.7576403 128.3621404
 103.2339992 110.8419978 134.6180014 103.5969992 111.6959978 134.3840014
 103.7659992 110.5499978 135.3580014 103.3556090 110.9194058 134.6860219
 101.4029992 111.7139978 127.8480014 100.4529992 111.8199978 127.8990014
 101.7549992 112.5349978 128.1930014 101.3205480 111.8394438 127.9015999
 106.7779992 106.9409978 134.3180014 106.3529992 106.7129978 135.1450014
 107.3589992 106.2019978 134.1360014 106.7983930 106.8099843 134.4064732
 108.9809992 107.8699978 123.3920014 109.3349992 107.4899978 124.1970014
 108.0329992 107.7759978 123.4790014 108.9011820 107.8053092 123.5138714
 109.4369992 111.4929978 136.7880014 108.8349992 110.9369978 136.2920014
 109.7179992 112.1599978 136.1620014 109.3926829 111.5071613 136.6355443
 113.4849992 112.3489978 123.5930014 114.2289992 112.9349978 123.4530014
 112.7909992 112.9179978 123.9270014 113.4930201 112.5060603 123.6189772
  97.5589992  98.7259978 136.1950014  96.6669992  99.0639978 136.1280014
  97.4609992  97.8699978 136.6130014  97.4234965  98.6566499 136.2423044
 109.8469992 106.5419978 125.6190014 109.5699992 105.8139978 126.1750014
 110.7749992 106.6609978 125.8240014 109.9344499 106.4584213 125.7228044
  97.2109992 110.5299978 134.6300014  97.4279992 109.5979978 134.5990014
  97.4569992 110.8049978 135.5130014  97.2739809 110.4395686 134.7451691
 103.0719992 108.9819978 121.8390014 103.3109992 108.2329978 121.2920014
 102.8029992 108.5939978 122.6720014 103.0683233 108.8271853 121.8767809
 102.0089992 108.5519978 124.2960014 102.1559992 108.0319978 125.0860014
 102.0059992 109.4589978 124.6020014 102.0287300 108.6033964 124.4455895
  98.4619992 105.8039978 124.8060014  97.7759992 106.1569978 125.3730014
  98.9849992 106.5669978 124.5600014  98.4389033 105.9553746 124.8502661
 106.2939992  98.4669978 135.0850014 106.9929992  98.5409978 135.7350014
 105.9129992  97.6019978 135.2390014 106.3382097  98.3602389 135.1947997
 107.0779992  98.1189978 126.1820014 107.2979992  98.5899978 125.3790014
 107.6369992  98.5129978 126.8520014 107.1836730  98.2367432 126.1625906
 104.7469992 110.2489978 125.0450014 103.9299992 110.7459978 125.0970014
 105.2759992 110.7249978 124.4050014 104.7068508 110.3812543 124.9656035
 104.2779992  99.8469978 127.0170014 105.0899992 100.3509978 127.0630014
 104.0339992  99.7019978 127.9310014 104.3561467  99.8963749 127.1468575
 104.8139992 100.8329978 136.2020014 104.9329992 101.4069978 136.9590014
 105.4689992 100.1449978 136.3160014 104.9189146 100.8185574 136.3211314
 105.1619992  96.9279978 127.9550014 104.8149992  97.5449978 128.6000014
 105.8209992  97.4289978 127.4740014 105.2035950  97.0801099 127.9782271
 102.0849992 111.2929978 125.0270014 102.2459992 112.0929978 124.5260014
 101.8879992 111.5999978 125.9120014 102.0803919 111.4439129 125.0781006
 100.8199992  97.9909978 124.6420014 100.7359992  98.8789978 124.9890014
 101.7099992  97.7259978 124.8740014 100.9288163  98.0767179 124.7208596
 111.0179992  98.7399978 137.0370014 110.1019992  99.0019978 136.9490014
 111.3539992  98.7369978 136.1400014 110.9379789  98.7754626 136.9037847
 109.6209992 102.4899978 131.1320014 108.8229992 102.0749978 130.8040014
 110.0659992 101.7999978 131.6230014 109.5719684 102.3398628 131.1535227
  99.0779992 108.4179978 123.7030014  99.6699992 109.1179978 123.9790014
  99.5369992 107.9849978 122.9830014  99.2210791 108.4552908 123.6434607
  97.3939992 101.0829978 122.8190014  97.3489992 102.0219978 122.9970014
  96.5059992 100.8469978 122.5490014  97.2678555 101.1796874 122.8068939
 110.7069992 111.7459978 132.7550014 110.5509992 112.4249978 132.0980014
 111.6399992 111.8179978 132.9580014 110.8117387 111.8486390 132.6925342
  98.2019992  95.8639978 131.4920014  97.9729992  95.9229978 130.5640014
  97.7599992  95.0729978 131.7980014  98.1108801  95.7650540 131.4064729
  97.1329992 109.8049978 127.6520014  96.2999992 110.2769978 127.6800014
  97.6779992 110.3149978 127.0540014  97.0927590 109.9385897 127.5749194
  96.4209992 112.4169978 138.9820014  96.9609992 112.2009978 139.7420014
  95.9399992 111.6119978 138.7930014  96.4298613 112.2785400 139.0604782
 101.0179992 111.3369978 140.6030014 101.7859992 110.8779978 140.9440014
 100.9969992 111.1109978 139.6730014 101.1202135 111.2436668 140.5239491
 105.1099992 110.8449978 121.9780014 104.4659992 110.2139978 122.2990014
 105.8719992 110.3139978 121.7460014 105.1248058 110.6867902 121.9906038
 107.5949992 109.7169978 139.3320014 107.2439992 108.8599978 139.5750014
 108.3209992 109.8589978 139.9390014 107.6451590 109.6190178 139.4472907
 109.7149992 110.6619978 122.2120014 109.9979992 109.8669978 122.6640014
 110.4539992 110.8949978 121.6510014 109.8536956 110.5847031 122.1979822
  96.3279992 106.2279978 139.9370014  96.4719992 105.3259978 139.6500014
  95.5559992 106.5139978 139.4490014  96.2433303 106.1433243 139.8317908
 100.6689992 106.5709978 122.0690014 100.7339992 105.7769978 122.6000014
 101.3219992 106.4529978 121.3790014 100.7661754 106.4463337 122.0484259
 102.9829992 106.1969978 139.3690014 102.6549992 106.4679978 138.5120014
 103.1349992 105.2559978 139.2820014 102.9586030 106.1068973 139.2397945
 106.0219992 107.6179978 121.8050014 105.7529992 107.7989978 122.7060014
 105.8149992 106.6929978 121.6740014 105.9572000 107.5176774 121.9105693
 108.7179992 106.1129978 136.7530014 109.4629992 106.7019978 136.6330014
 107.9609992 106.6949978 136.8160014 108.7175205 106.2721997 136.7451119
  97.1609992 103.4279978 139.3570014  97.5689992 102.5709978 139.2360014
  96.8999992 103.4419978 140.2780014  97.1816016 103.3125119 139.4649192
 101.8189992 104.5439978 124.3750014 101.3589992 104.0599978 125.0610014
 102.0739992 103.8749978 123.7390014 101.7905038 104.3873689 124.3829447
 101.1079992 102.4369978 136.7310014 100.4889992 103.1109978 137.0110014
 101.4519992 102.7579978 135.8980014 101.0697605 102.5727198 136.6566707
 102.8899992 102.7869978 122.6370014 102.7089992 102.6319978 121.7100014
 103.8399992 102.8949978 122.6820014 102.9936566 102.7803669 122.5160929
 106.1269992 104.9079978 140.0080014 107.0809992 104.9919978 139.9810014
 105.9669992 104.1959978 140.6280014 106.2357182 104.8232842 140.0880733
 112.2799992 105.1409978 122.0830014 112.0059992 104.7169978 121.2700014
 112.3189992 106.0729978 121.8660014 112.2477716 105.2088827 121.9424286
 101.4469992  99.7919978 137.8130014 101.5969992  99.0629978 137.2110014
 101.4489992 100.5689978 137.2540014 101.4677967  99.7972708 137.6550541
 101.8599992  98.1609978 135.3060014 102.3949992  98.6129978 134.6540014
 101.0069992  98.0529978 134.8830014 101.8180374  98.2082665 135.1596710
 103.4409992 103.6009978 135.5450014 104.1919992 103.4449978 134.9720014
 103.1019992 104.4529978 135.2700014 103.4979587 103.6948138 135.4294078
 107.8569992 101.4159978 140.5740014 108.0489992 100.4849978 140.4620014
 108.7149992 101.8409978 140.5640014 107.9992269 101.3459928 140.5573192
 109.1739992 104.2049978 138.6510014 108.8919992 104.9139978 138.0740014
 110.1159992 104.1319978 138.5000014 109.2627656 104.2923128 138.5514809
  99.9259992 100.9899978 139.7250014  99.1579992 100.4569978 139.5150014
 100.6039992 100.6799978 139.1250014  99.9126973 100.8752375 139.6151796
 102.6649992  95.6179978 135.7370014 102.5669992  96.5639978 135.6320014
 101.9229992  95.2449978 135.2620014 102.5511913  95.6971813 135.6583539
 103.9289992  99.9389978 139.3010014 103.6939992  99.7199978 140.2030014
 103.1459992  99.7319978 138.7910014 103.7909219  99.8810066 139.3555852
 106.6449992  99.0669978 138.3770014 105.6969992  99.0989978 138.5090014
 106.9569992  98.4409978 139.0300014 106.5575190  98.9867262 138.4833564
 108.2789992  97.7009978 140.3820014 108.1819992  96.7489978 140.3760014
 107.9569992  97.9689978 141.2420014 108.2221761  97.6069744 140.4974936
  98.1059992  98.9099978 139.4290014  98.3179992  98.2039978 138.8190014
  97.9949992  98.4729978 140.2730014  98.1200269  98.7541921 139.4595873
 102.8869992  94.9119978 138.4090014 103.5989992  94.2719978 138.3950014
 102.7859992  95.1779978 137.4950014 102.9707261  94.8604190 138.2835537
 103.2409992  96.5939978 140.4620014 103.1089992  96.1189978 139.6420014
 102.6409992  97.3389978 140.4070014 103.1419070  96.6295789 140.3423251
 102.7869992 113.4769978 123.6390014 103.7199992 113.6349978 123.7820014
 102.5229992 114.1529978 123.0140014 102.8789308 113.5899104 123.5741396
  96.3549992 108.1139978 123.1210014  97.2689992 108.1929978 123.3950014
  96.3629992 107.4269978 122.4550014  96.4811143 108.0319085 123.0684274
  95.0039992 113.5069978 128.1990014  94.3569992 113.0449978 127.6660014
  95.3589992 112.8349978 128.7810014  94.9634506 113.3529503 128.2047341
  95.8739992 111.5869978 130.0030014  95.5399992 110.7069978 130.1750014
  96.0969992 111.9329978 130.8680014  95.8583721 111.5131938 130.1434168
 113.4229992 112.3969978 132.9840014 113.4009992 112.5819978 133.9230014
 114.1129992 112.9649978 132.6430014 113.5133439 112.4991887 133.0664791
 112.9859992 111.9639978 135.9060014 112.4989992 111.2289978 135.5350014
 113.5349992 111.5699978 136.5840014 112.9935247 111.8101057 135.9468461
 111.4369992 107.7539978 140.5440014 110.5709992 107.6489978 140.9380014
 111.8129992 108.5119978 140.9900014 111.3693401 107.8421708 140.6582620
 112.7379992 106.0099978 126.0580014 113.5879992 106.4309978 126.1850014
 112.7429992 105.2699978 126.6650014 112.8551143 105.9676094 126.1574750
 113.1319992 104.0639978 127.8820014 112.4059992 103.5839978 128.2790014
 113.7139992 104.2689978 128.6140014 113.1111635 104.0259166 128.0353748
 112.8909992 106.8489978 132.8290014 113.7249992 106.4709978 132.5490014
 113.0029992 107.7919978 132.7100014 113.0202522 106.9247742 132.7746020
 111.3779992 109.7269978 135.1360014 110.7299992 110.0519978 135.7620014
 110.8599992 109.2859978 134.4620014 111.2194168 109.7118523 135.1305307
 113.4009992 103.9649978 124.2730014 112.8789992 104.3209978 123.5540014
 113.3679992 104.6399978 124.9510014 113.3250699 104.1049848 124.2662129
 111.7499992 101.2039978 122.8240014 111.8459992 101.8709978 122.1440014
 111.6099992 100.3889978 122.3420014 111.7442063 101.1850667 122.6658377
 110.9189992 102.5849978 128.4450014 110.7689992 101.6399978 128.4240014
 110.5649992 102.8659978 129.2880014 110.8505527 102.4935605 128.5561859
  95.9539992 104.6629978 132.4550014  96.1389992 104.5809978 131.5190014
  96.8039992 104.5389978 132.8790014  96.0940916 104.6350393 132.3842896
 111.7749992 104.5549978 138.0830014 112.3579992 103.8199978 138.2750014
 112.3389992 105.3269978 138.1300014 111.9309781 104.5588145 138.1156164
 113.2719992 102.4579978 138.7680014 112.4089992 102.0789978 138.6020014
 113.8759992 101.7189978 138.6940014 113.2355944 102.3062978 138.7352984
 110.9969992  98.6119978 121.9410014 111.6079992  98.2409978 122.5780014
 110.1599992  98.1909978 122.1370014 110.9674947  98.5042756 122.0547252
 110.6299992 100.1669978 126.9070014 110.9089992  99.2599978 127.0310014
 111.3889992 100.6009978 126.5180014 110.7708619 100.1014502 126.8713795
 111.2409992 100.7489978 132.3430014 112.1739992 100.9609978 132.3090014
 111.0059992 100.8499978 133.2650014 111.3368308 100.7916503 132.4630214
 111.2709992 101.4859978 135.1190014 110.4279992 101.7539978 135.4850014
 111.7129992 102.3079978 134.9080014 111.2154138 101.6338273 135.1405518
  95.5519992  99.9329978 138.5960014  96.4709992  99.8109978 138.8320014
  95.1019992  99.1829978 138.9850014  95.6171148  99.8148751 138.6809408
 113.5539992  95.4659978 140.4720014 113.9029992  94.8119978 139.8670014
 113.7009992  96.3029978 140.0330014 113.6217355  95.4896067 140.3296564
 111.2429992  97.4299978 126.9550014 111.4249992  96.9809978 127.7810014
 110.6429992  96.8459978 126.4920014 111.1867529  97.2896131 127.0053619
  96.7729992  98.2459978 131.4870014  97.2179992  97.4539978 131.7890014
  97.2389992  98.9619978 131.9180014  96.8969059  98.2344474 131.5866079
  95.0769992 101.2449978 132.5560014  95.5689992 101.0239978 131.7650014
  95.4389992 102.0849978 132.8370014  95.1932923 101.3283468 132.4857407
 113.0729992  97.5749978 138.8220014 112.1559992  97.8459978 138.7860014
 113.1959992  97.0399978 138.0380014 112.9640828  97.5397700 138.7110785
 113.1099992  97.4979978 123.4830014 113.5219992  96.7769978 123.0080014
 113.7909992  98.1669978 123.5420014 113.2585900  97.4897306 123.4259038
  95.3909992  97.5029978 126.6100014  94.4659992  97.7109978 126.4810014
  95.8449992  97.9869978 125.9210014  95.3256374  97.5969949 126.4990957
 110.1609992 112.4869978 128.5560014 110.8139992 112.1389978 127.9480014
 110.6719992 112.9749978 129.2020014 110.3192777 112.5053815 128.5602047
  95.3539992  96.2409978 134.9550014  94.6889992  95.9949978 135.5980014
  94.9109992  96.8629978 134.3770014  95.2030937  96.2913614 134.9649379
  97.5459992 109.4159978 139.0990014  96.7249992 109.5909978 138.6390014
  97.2939992 109.3429978 140.0200014  97.3996173 109.4300794 139.1604972
 100.4999992 110.3899978 135.3580014 100.0759992 111.1999978 135.0750014
 101.4049992 110.4759978 135.0560014 100.5642433 110.5123331 135.2785377
 104.8119992 111.7889978 138.3170014 104.9959992 111.4559978 139.1950014
 105.6579992 112.0989978 137.9950014 104.9516484 111.7852979 138.3937617
 107.1569992 113.0749978 137.5610014 107.8339992 112.4419978 137.3210014
 107.4779992 113.4759978 138.3680014 107.2931323 113.0425691 137.6373158
 112.0739992  95.6649978 136.6410014 111.2609992  95.9899978 136.2530014
 112.3069992  94.9039978 136.1080014 111.9942566  95.6066559 136.5159213
  97.9019992 113.6469978 135.4050014  97.1819992 114.0869978 134.9540014
  97.5369992 113.3959978 136.2540014  97.7539796 113.6733824 135.4579329
 100.3689992 113.2469978 134.4350014  99.5049992 113.3189978 134.8390014
 100.3139992 113.7939978 133.6510014 100.2431942 113.3307849 134.3844000
 105.0799992 113.1349978 133.6100014 104.6229992 113.6639978 132.9560014
 105.2429992 113.7379978 134.3360014 105.0394476 113.2889140 133.6185499
 107.4079992 112.0129978 134.5550014 106.5029992 112.1779978 134.2900014
 107.8359992 112.8659978 134.4900014 107.3420700 112.1509529 134.5099520
 110.0119992 113.5829978 134.8500014 109.8299992 114.4989978 134.6400014
 110.1889992 113.1719978 134.0040014 110.0109907 113.6529741 134.7067883
  97.3169992 112.2699978 132.3150014  97.2989992 111.8439978 133.1730014
  98.1219992 111.9509978 131.9070014  97.4233221 112.1687233 132.3770225
  99.4579992 110.9799978 130.9700014  99.2389992 110.0629978 131.1400014
 100.2819992 111.1199978 131.4360014  99.5394702 110.8735511 131.0562527
 101.9949992 111.4499978 131.8190014 102.2079992 110.5619978 131.5320014
 102.0599992 111.4149978 132.7740014 102.0329075 111.3238307 131.9087373
 105.5039992  97.1139978 130.9630014 104.8299992  96.4839978 131.2190014
 106.0679992  96.6299978 130.3600014 105.4880384  96.9623708 130.9165020
 110.6469992  95.2209978 131.0760014 111.2499992  95.7689978 130.5740014
 109.7769992  95.5399978 130.8360014 110.6119190  95.3391041 130.9748679
 112.3739992  96.3599978 129.4090014 112.9849992  95.8459978 128.8830014
 112.7559992  97.2369978 129.4330014 112.5094475  96.4081323 129.3401208
  97.8309992  95.7479978 128.7850014  97.0539992  95.5129978 128.2780014
  98.3609992  94.9509978 128.7940014  97.7963451  95.6081268 128.7168627
  96.6669992  95.5459978 124.5890014  97.1059992  96.1569978 123.9970014
  96.0329992  96.0839978 125.0630014  96.6413859  95.7024064 124.5720305
 102.4099992  95.6739978 128.5990014 103.2839992  96.0629978 128.5690014
 102.2739992  95.4589978 129.5210014 102.5113207  95.6981923 128.7196509
 107.9669992  95.7039978 130.2480014 108.0429992  95.7999978 129.2990014
 107.6919992  94.7969978 130.3770014 107.9402042  95.5944241 130.1353811
 109.3199992  95.7299978 125.9400014 108.6169992  96.3449978 125.7310014
 108.8749992  94.8929978 126.0720014 109.1636292  95.7010085 125.9292439
  96.5679992 111.4939978 125.4870014  95.8829992 111.4559978 124.8190014
  96.5719992 112.4069978 125.7750014  96.4748174 111.6121998 125.4345310
  98.5279992  97.4619978 123.0310014  99.0189992  96.8319978 122.5040014
  99.1509992  97.7579978 123.6950014  98.6795062  97.4156770 123.0485438
 103.5539992  97.7549978 125.4890014 103.7319992  97.1079978 126.1710014
 103.4999992  98.5889978 125.9560014 103.5711025  97.7790504 125.6456433
 105.4319992 112.7029978 123.8840014 106.2979992 113.0699978 123.7060014
 105.1859992 112.2639978 123.0700014 105.5172097 112.6938525 123.7496019
 112.1409992 112.2659978 126.5630014 111.9469992 111.5179978 125.9980014
 112.1019992 113.0239978 125.9800014 112.1091645 112.2660786 126.4068148
  97.7879992  96.2619978 138.3030014  97.4219992  95.4959978 138.7460014
  98.7009992  96.2909978 138.5900014  97.8613225  96.1611906 138.4023459
  99.7609992  95.6119978 139.8390014 100.6599992  95.3379978 139.6540014
  99.3749992  94.8699978 140.3030014  99.8317237  95.4741508 139.8764710
  98.3859992 112.4139978 122.5120014  98.1179992 112.6999978 123.3850014
  99.1569992 111.8679978 122.6640014  98.4535600 112.3793330 122.6521499
 108.1829992  94.9449978 140.0210014 108.2589992  94.5189978 140.8750014
 109.0759992  94.9579978 139.6780014 108.3142267  94.8883952 140.0915932
 111.3589992 111.0179978 138.7130014 110.5769992 110.8309978 138.1940014
 111.2869992 111.9469978 138.9310014 111.2420863 111.1180221 138.6713574
 125.7649992 104.9039978 128.7440014 125.8539992 105.8479978 128.6120014
 125.1269992 104.6289978 128.0860014 125.6909062 104.9959812 128.6369641
 124.6979992 104.1589978 132.1630014 124.6599992 103.5129978 132.8680014
 124.3759992 103.6919978 131.3920014 124.6492679 104.0074276 132.1552921
 117.0659992 103.7729978 133.7560014 117.1079992 103.1479978 134.4790014
 117.7689992 104.3969978 133.9380014 117.1667345 103.7717873 133.8795273
 128.4039992 107.0979978 130.4650014 127.9629992 106.3779978 130.9150014
 128.3909992 107.8189978 131.0940014 128.3417960 107.0968329 130.6117567
 117.9899992 108.2229978 132.2910014 117.6199992 107.4209978 131.9210014
 118.9309992 108.0549978 132.3370014 118.0665984 108.0904638 132.2465603
 114.5999992 101.8829978 127.6840014 114.1519992 102.7289978 127.6650014
 114.0389992 101.3039978 127.1680014 114.4629603 101.9203674 127.6116720
 115.3099992 104.0449978 129.8100014 115.5239992 103.2749978 130.3370014
 116.0479992 104.1349978 129.2060014 115.4389652 103.9518012 129.8005212
 125.5159992 112.2019978 130.6770014 126.1349992 111.5259978 130.4030014
 125.3069992 111.9839978 131.5850014 125.5726232 112.0797938 130.7622517
 123.0869992 106.5909978 132.5690014 123.3909992 105.9049978 131.9750014
 123.8089992 106.7099978 133.1870014 123.2261152 106.5132189 132.5712123
 131.7499992  98.1929978 133.4300014 131.7999992  98.8029978 134.1660014
 132.1759992  98.6539978 132.7070014 131.8144108  98.3387709 133.4330112
 126.2279992 100.9849978 132.8970014 126.3709992 100.0389978 132.9170014
 126.1219992 101.1919978 131.9680014 126.2332509 100.8834813 132.7742231
 119.3829992  99.0869978 130.1690014 119.4259992  99.9469978 129.7510014
 118.9249992  98.5349978 129.5350014 119.3269815  99.1300621 130.0261197
 127.1049992  99.2179978 128.5700014 127.7519992  98.8889978 129.1950014
 127.6149992  99.7349978 127.9470014 127.2624317  99.2429227 128.5712167
 116.0029992 101.4839978 130.9310014 116.6569992 100.9339978 131.3630014
 116.0269992 101.2099978 130.0140014 116.0957199 101.3717167 130.8661668
 121.1599992 103.0339978 130.1460014 121.7759992 102.5069978 130.6560014
 120.5729992 102.3939978 129.7430014 121.1649239 102.8754117 130.1612952
 132.1419992  99.6709978 135.6660014 131.4529992 100.3289978 135.5700014
 132.1569992  99.4729978 136.6020014 132.0496740  99.7343243 135.7794630
 118.1929992  98.0049978 134.2430014 117.9739992  98.5349978 133.4770014
 117.5249992  98.2309978 134.8900014 118.0727001  98.1081154 134.2256064
 125.5619992 107.5049978 127.7870014 125.2669992 107.1819978 126.9360014
 125.2379992 108.4049978 127.8280014 125.4777983 107.5824026 127.6759771
 120.7619992 105.6799978 134.5310014 120.0219992 106.2789978 134.6340014
 121.4759992 106.2339978 134.2150014 120.7573288 105.8367356 134.5023805
 128.8689992  98.5089978 130.5500014 128.6539992  97.7429978 131.0830014
 129.5249992  98.9809978 131.0630014 128.9282673  98.4680728 130.6921990
 117.7869992  99.8969978 132.1950014 118.4009992 100.5299978 132.5690014
 118.2989992  99.4249978 131.5390014 117.9402277  99.9197352 132.1574279
 119.1699992 107.6449978 135.3180014 119.1639992 108.5239978 134.9400014
 118.3159992 107.5609978 135.7430014 119.0537925 107.7539535 135.3236887
 115.2909992 107.3159978 126.1000014 115.0189992 107.5449978 125.2110014
 115.3359992 108.1529978 126.5600014 115.2598709 107.4606058 126.0406107
 128.9159992 108.9369978 132.8120014 127.9739992 108.9959978 132.9740014
 129.1919992 109.8429978 132.6750014 128.8245865 109.0675288 132.8156192
 129.2159992  97.2239978 134.2300014 128.4799992  97.8339978 134.1920014
 129.8999992  97.6389978 133.7030014 129.2075506  97.3636400 134.1536051
 122.2199992  95.3099978 131.6960014 122.1019992  94.3619978 131.6410014
 121.3649992  95.6429978 131.9690014 122.0882679  95.2251926 131.7253720
 127.1679992 110.7179978 129.4380014 127.5929992 110.0109978 128.9530014
 127.4849992 111.5199978 129.0210014 127.2690266 110.7295190 129.3152479
 128.3279992 108.6189978 127.9460014 128.0699992 107.9289978 127.3350014
 128.3989992 108.1759978 128.7920014 128.3022837 108.4647106 127.9766912
 130.0139992 107.1859978 136.4240014 130.1529992 106.5939978 135.6840014
 130.1809992 108.0589978 136.0670014 130.0555562 107.2229896 136.2746283
 124.4859992 104.1479978 126.1960014 123.7749992 104.6829978 125.8440014
 125.1769992 104.2029978 125.5360014 124.4820751 104.2286777 126.0585858
 124.5399992 102.6049978 123.2350014 125.2409992 102.6279978 123.8860014
 124.8419992 101.9769978 122.5790014 124.6768282 102.5232339 123.2354496
 131.8549992 103.5259978 134.4900014 131.2029992 104.2199978 134.5790014
 132.3209992 103.7359978 133.6800014 131.8285937 103.6495019 134.3927533
 127.8919992 104.3569978 127.1480014 127.1599992 104.5859978 127.7210014
 128.3389992 103.6439978 127.6030014 127.8522753 104.2918972 127.2879715
 127.7889992 102.5319978 136.2160014 127.8689992 103.2949978 136.7870014
 127.1879992 102.8109978 135.5250014 127.7187245 102.6742630 136.2008424
 119.5369992 104.9879978 129.0300014 119.2069992 104.6169978 128.2120014
 120.1259992 104.3169978 129.3770014 119.5713970 104.8466063 128.9649404
 120.9039992 108.4159978 131.7120014 120.8089992 107.8369978 130.9550014
 121.6329992 108.0449978 132.2080014 120.9896161 108.2865891 131.6755209
 119.9039992 103.7559978 132.6640014 120.4689992 103.8779978 131.9010014
 120.2229992 104.3939978 133.3030014 120.0243977 103.8588851 132.6459424
 126.2129992 109.2599978 133.3980014 125.9729992 109.9219978 134.0460014
 126.0149992 108.4249978 133.8230014 126.1533826 109.2378115 133.5441566
 120.7839992 108.1559978 137.3810014 120.4729992 108.9379978 137.8360014
 120.1339992 108.0029978 136.6950014 120.6535538 108.2424087 137.3505898
 126.7629992 103.5199978 124.8330014 127.3419992 103.6699978 125.5800014
 127.1769992 103.9899978 124.1100014 126.8983122 103.6041277 124.8375042
 117.7039992 104.3539978 136.6100014 117.7739992 105.0049978 137.3080014
 116.8129992 104.4569978 136.2750014 117.5931802 104.4569757 136.6602249
 124.4889992 110.2559978 128.2680014 124.9629992 110.5519978 129.0460014
 123.9259992 110.9949978 128.0350014 124.4777361 110.3962721 128.3428611
 119.0229992 110.2269978 138.1440014 119.0309992 110.0909978 137.1970014
 118.1069992 110.1099978 138.3960014 118.9002528 110.1925463 138.0483243
 130.4619992  95.2699978 124.6460014 129.5619992  95.4089978 124.9410014
 130.7139992  96.1009978 124.2440014 130.3728683  95.4014055 124.6320232
 118.5279992 104.0569978 126.6200014 118.2359992 104.8249978 126.1290014
 117.8529992 103.3979978 126.4570014 118.3968497 104.0729745 126.5308260
 131.6509992 109.6359978 123.0220014 131.7239992 110.5749978 123.1930014
 132.5559992 109.3309978 122.9660014 131.7834158 109.7233061 123.0378392
 114.6209992 106.4199978 135.4350014 114.1189992 106.3919978 134.6200014
 114.6259992 105.5149978 135.7440014 114.5530416 106.2937368 135.3653766
 114.3709992 109.2009978 132.3190014 115.3169992 109.0559978 132.3000014
 114.2579992 109.9849978 132.8560014 114.4853578 109.2871697 132.3890317
 132.5689992 109.8669978 138.0010014 132.5189992 108.9109978 137.9640014
 131.7419992 110.1339978 138.4020014 132.4503987 109.7725174 138.0501446
 123.5469992 109.4409978 136.8770014 123.6349992 110.2669978 137.3520014
 122.6839992 109.1109978 137.1260014 123.4423357 109.5095468 136.9757653
 123.9619992 113.2129978 126.6830014 123.8859992 113.0919978 125.7370014
 123.9939992 114.1619978 126.8020014 123.9559156 113.3247530 126.5695048
 117.6149992 112.0019978 128.4640014 117.7669992 111.6539978 129.3430014
 116.7639992 111.6449978 128.2090014 117.5207899 111.9061738 128.5497340
 127.0629992 112.3669978 123.6850014 127.4379992 111.6229978 123.2150014
 127.0679992 112.0969978 124.6040014 127.1150024 112.2286950 123.7447987
 126.7319992 112.2929978 126.4350014 125.7969992 112.3929978 126.6130014
 127.0119992 111.5829978 127.0130014 126.6418173 112.2107239 126.5374998
 129.7209992 101.3599978 138.4810014 129.3129992 101.8399978 137.7610014
 129.7609992 100.4539978 138.1730014 129.6705476 101.3033160 138.3408247
 116.8699992 107.7439978 136.4780014 117.0859992 107.3819978 137.3370014
 116.0139992 107.3689978 136.2680014 116.7839354 107.6437906 136.5672160
 119.4879992  96.2139978 132.4730014 118.6269992  96.1269978 132.0660014
 119.4659992  97.0699978 132.9010014 119.3670411  96.3177884 132.4750857
 124.1509992  95.9359978 135.8480014 124.5709992  95.5209978 136.6010014
 123.2179992  95.7569978 135.9650014 124.0823736  95.8549910 135.9668968
 127.4779992  99.6909978 136.7010014 126.9639992  99.5659978 137.4990014
 127.3219992 100.6039978 136.4570014 127.3866967  99.7972123 136.7770937
 128.2399992 104.5519978 122.4630014 128.2819992 104.3299978 121.5330014
 129.0889992 104.9509978 122.6530014 128.3605253 104.5755498 122.3613822
 123.8129992  98.4279978 123.1330014 123.5589992  98.4469978 124.0560014
 123.5559992  97.5569978 122.8320014 123.7435133  98.3128110 123.2185082
 119.5789992 101.1789978 133.5680014 118.9379992 101.1389978 134.2770014
 119.6169992 102.1059978 133.3310014 119.4963670 101.2987795 133.6330550
 119.5759992 101.3999978 128.4800014 118.6839992 101.0599978 128.4220014
 120.0269992 101.0229978 127.7250014 119.5146815 101.3023762 128.3699203
 125.1119992 101.8159978 127.2970014 124.7029992 102.6309978 127.0060014
 125.8319992 101.6759978 126.6830014 125.1534013 101.9086571 127.1740875
 124.2139992 101.9919978 138.7850014 123.6509992 101.2869978 139.1060014
 125.0399992 101.8709978 139.2530014 124.2486674 101.8792165 138.8921751
 126.1169992 101.2619978 130.1110014 125.9209992 101.8679978 129.3960014
 126.2979992 100.4289978 129.6770014 126.1146584 101.2322513 129.9544212
 117.3289992 101.4999978 135.4350014 117.2909992 101.8999978 136.3040014
 116.8389992 100.6829978 135.5260014 117.2575621 101.4442510 135.5661377
 120.6949992  98.8739978 122.2340014 120.2639992  98.4289978 122.9640014
 119.9769992  99.2449978 121.7220014 120.5389363  98.8632968 122.2646211
 113.9379992  98.6159978 129.2860014 114.5679992  98.5869978 130.0050014
 114.3869992  98.1909978 128.5560014 114.0850692  98.5545316 129.2857771
 115.2119992  99.3619978 124.7100014 115.6859992  99.9529978 124.1250014
 114.4939992  99.8919978 125.0570014 115.1798640  99.5145511 124.6767969
 125.3809992 102.8999978 134.7830014 125.7039992 102.2689978 134.1400014
 124.9399992 102.3659978 135.4430014 125.3655789 102.7413522 134.7842232
 122.1579992  98.8279978 129.5670014 121.2469992  98.8849978 129.8550014
 122.6629992  98.7679978 130.3770014 122.1015387  98.8276870 129.7160646
 116.9859992 100.4569978 128.3930014 116.0969992 100.5559978 128.0530014
 117.2829992  99.6149978 128.0470014 116.9044177 100.3567687 128.2996940
 120.6389992 100.4569978 126.0500014 121.5709992 100.5859978 126.2280014
 120.4239992 101.1259978 125.4000014 120.7374472 100.5650806 125.9864891
 126.5629992  98.0629978 132.8310014 125.8859992  98.1939978 133.4950014
 126.0779992  97.9079978 132.0210014 126.4047265  98.0599659 132.8123397
 119.3129992 101.6509978 123.6170014 118.7709992 101.2719978 122.9250014
 120.1469992 101.8459978 123.1880014 119.3515159 101.6255076 123.4644419
 129.8509992 113.7339978 139.1080014 130.0499992 114.1579978 138.2730014
 130.5059992 114.0779978 139.7150014 129.9668501 113.8386091 139.0757097
 117.4489992 106.2079978 138.7160014 118.1809992 106.4629978 139.2770014
 116.6679992 106.4129978 139.2310014 117.4437684 106.2706468 138.8624782
 123.4779992 101.6149978 131.4540014 124.0419992 101.0689978 130.9070014
 123.3299992 101.0939978 132.2420014 123.5352575 101.4696552 131.4856987
 118.4799992  97.7519978 127.8720014 118.1629992  96.8489978 127.8370014
 119.2609992  97.7539978 127.3190014 118.5422307  97.6286951 127.7924314
 122.1039992 100.0039978 133.8680014 121.2689992 100.4579978 133.9780014
 122.6279992 100.2799978 134.6200014 122.0605070 100.1034666 133.9847152
 122.6489992 106.2169978 125.5520014 121.9039992 105.7089978 125.2300014
 122.5139992 106.2659978 126.4990014 122.5289047 106.1541596 125.6358845
 129.7989992 105.3499978 134.3390014 130.4399992 105.8059978 133.7950014
 128.9679992 105.4629978 133.8770014 129.7745171 105.4277502 134.2020237
 126.5459992  99.0309978 123.7520014 125.6079992  99.1419978 123.6000014
 126.8439992  99.8869978 124.0580014 126.4576402  99.1620621 123.7725571
 124.1679992 106.4009978 136.7890014 123.8219992 106.0189978 137.5960014
 123.9679992 107.3339978 136.8610014 124.0936523 106.4749095 136.9090735
 127.2649992 100.8979978 125.4120014 128.1569992 100.7599978 125.7310014
 127.3209992 101.6889978 124.8760014 127.3947107 100.9860526 125.3832091
 117.7729992 105.5119978 131.3220014 118.5179992 105.5089978 130.7210014
 117.8509992 104.6879978 131.8040014 117.8854158 105.4002916 131.3049153
 124.7739992 107.6749978 124.5780014 124.4789992 108.5019978 124.9590014
 124.0709992 107.0559978 124.7740014 124.6385471 107.7045227 124.6566698
 114.7809992 103.9719978 136.6370014 115.0039992 103.5539978 137.4690014
 114.1789992 103.3599978 136.2140014 114.7301260 103.8319933 136.6937320
 121.7979992 103.4889978 138.8500014 121.5019992 103.3239978 137.9550014
 122.7289992 103.2689978 138.8390014 121.8833982 103.4366578 138.7260045
 126.4179992 108.8629978 136.7400014 125.5179992 109.0459978 136.4720014
 126.4519992 109.1219978 137.6610014 126.2992909 108.9230815 136.8277852
 132.1499992 101.1069978 125.1070014 131.5949992 100.7109978 124.4350014
 132.2499992 102.0179978 124.8290014 132.0875888 101.1758990 124.9775206
 132.1129992 106.9079978 137.9440014 131.2619992 107.1459978 137.5770014
 132.7029992 106.8909978 137.1910014 132.0762408 106.9382966 137.7918879
 130.4449992 109.8929978 125.5720014 130.0719992 109.0679978 125.8810014
 130.7219992 109.7099978 124.6750014 130.4313871 109.7552441 125.4929677
 127.6049992 104.7009978 132.5930014 126.6769992 104.4699978 132.5660014
 128.0559992 103.9239978 132.2630014 127.5388165 104.5642774 132.5446790
 120.1479992 109.0299978 128.7260014 120.6759992 109.8029978 128.5260014
 119.2679992 109.2539978 128.4250014 120.1013176 109.1663161 128.6578409
 115.9029992 103.8919978 123.3140014 116.5189992 104.5189978 123.6930014
 115.0409992 104.2079978 123.5850014 115.8708195 104.0205798 123.4025386
 121.5759992 106.6929978 128.3030014 121.3349992 107.6179978 128.3440014
 120.8349992 106.2339978 128.6990014 121.4428390 106.7576403 128.3621404
 122.0899992 110.8419978 134.6180014 122.4529992 111.6959978 134.3840014
 122.6219992 110.5499978 135.3580014 122.2116090 110.9194058 134.6860219
 120.2589992 111.7139978 127.8480014 119.3089992 111.8199978 127.8990014
 120.6109992 112.5349978 128.1930014 120.1765480 111.8394438 127.9015999
 125.6339992 106.9409978 134.3180014 125.2089992 106.7129978 135.1450014
 126.2149992 106.2019978 134.1360014 125.6543930 106.8099843 134.4064732
 127.8369992 107.8699978 123.3920014 128.1909992 107.4899978 124.1970014
 126.8889992 107.7759978 123.4790014 127.7571820 107.8053092 123.5138714
 128.2929992 111.4929978 136.7880014 127.6909992 110.9369978 136.2920014
 128.5739992 112.1599978 136.1620014 128.2486829 111.5071613 136.6355443
 132.3409992 112.3489978 123.5930014 133.0849992 112.9349978 123.4530014
 131.6469992 112.9179978 123.9270014 132.3490201 112.5060603 123.6189772
 116.4149992  98.7259978 136.1950014 115.5229992  99.0639978 136.1280014
 116.3169992  97.8699978 136.6130014 116.2794965  98.6566499 136.2423044
 128.7029992 106.5419978 125.6190014 128.4259992 105.8139978 126.1750014
 129.6309992 106.6609978 125.8240014 128.7904499 106.4584213 125.7228044
 116.0669992 110.5299978 134.6300014 116.2839992 109.5979978 134.5990014
 116.3129992 110.8049978 135.5130014 116.1299809 110.4395686 134.7451691
 121.9279992 108.9819978 121.8390014 122.1669992 108.2329978 121.2920014
 121.6589992 108.5939978 122.6720014 121.9243233 108.8271853 121.8767809
 120.8649992 108.5519978 124.2960014 121.0119992 108.0319978 125.0860014
 120.8619992 109.4589978 124.6020014 120.8847300 108.6033964 124.4455895
 117.3179992 105.8039978 124.8060014 116.6319992 106.1569978 125.3730014
 117.8409992 106.5669978 124.5600014 117.2949033 105.9553746 124.8502661
 125.1499992  98.4669978 135.0850014 125.8489992  98.5409978 135.7350014
 124.7689992  97.6019978 135.2390014 125.1942097  98.3602389 135.1947997
 125.9339992  98.1189978 126.1820014 126.1539992  98.5899978 125.3790014
 126.4929992  98.5129978 126.8520014 126.0396730  98.2367432 126.1625906
 123.6029992 110.2489978 125.0450014 122.7859992 110.7459978 125.0970014
 124.1319992 110.7249978 124.4050014 123.5628508 110.3812543 124.9656035
 123.1339992  99.8469978 127.0170014 123.9459992 100.3509978 127.0630014
 122.8899992  99.7019978 127.9310014 123.2121467  99.8963749 127.1468575
 123.6699992 100.8329978 136.2020014 123.7889992 101.4069978 136.9590014
 124.3249992 100.1449978 136.3160014 123.7749146 100.8185574 136.3211314
 124.0179992  96.9279978 127.9550014 123.6709992  97.5449978 128.6000014
 124.6769992  97.4289978 127.4740014 124.0595949  97.0801099 127.9782271
 120.9409992 111.2929978 125.0270014 121.1019992 112.0929978 124.5260014
 120.7439992 111.5999978 125.9120014 120.9363919 111.4439129 125.0781006
 119.6759992  97.9909978 124.6420014 119.5919992  98.8789978 124.9890014
 120.5659992  97.7259978 124.8740014 119.7848163  98.0767179 124.7208596
 129.8739992  98.7399978 137.0370014 128.9579992  99.0019978 136.9490014
 130.2099992  98.7369978 136.1400014 129.7939789  98.7754626 136.9037847
 128.4769992 102.4899978 131.1320014 127.6789992 102.0749978 130.8040014
 128.9219992 101.7999978 131.6230014 128.4279684 102.3398628 131.1535227
 117.9339992 108.4179978 123.7030014 118.5259992 109.1179978 123.9790014
 118.3929992 107.9849978 122.9830014 118.0770791 108.4552908 123.6434607
 116.2499992 101.0829978 122.8190014 116.2049992 102.0219978 122.9970014
 115.3619992 100.8469978 122.5490014 116.1238555 101.1796874 122.8068939
 129.5629992 111.7459978 132.7550014 129.4069992 112.4249978 132.0980014
 130.4959992 111.8179978 132.9580014 129.6677387 111.8486390 132.6925342
 117.0579992  95.8639978 131.4920014 116.8289992  95.9229978 130.5640014
 116.6159992  95.0729978 131.7980014 116.9668801  95.7650540 131.4064729
 115.9889992 109.8049978 127.6520014 115.1559992 110.2769978 127.6800014
 116.5339992 110.3149978 127.0540014 115.9487590 109.9385897 127.5749194
 115.2769992 112.4169978 138.9820014 115.8169992 112.2009978 139.7420014
 114.7959992 111.6119978 138.7930014 115.2858613 112.2785400 139.0604782
 119.8739992 111.3369978 140.6030014 120.6419992 110.8779978 140.9440014
 119.8529992 111.1109978 139.6730014 119.9762135 111.2436668 140.5239491
 123.9659992 110.8449978 121.9780014 123.3219992 110.2139978 122.2990014
 124.7279992 110.3139978 121.7460014 123.9808058 110.6867902 121.9906038
 126.4509992 109.7169978 139.3320014 126.0999992 108.8599978 139.5750014
 127.1769992 109.8589978 139.9390014 126.5011590 109.6190178 139.4472907
 128.5709992 110.6619978 122.2120014 128.8539992 109.8669978 122.6640014
 129.3099992 110.8949978 121.6510014 128.7096956 110.5847031 122.1979822
 115.1839992 106.2279978 139.9370014 115.3279992 105.3259978 139.6500014
 114.4119992 106.5139978 139.4490014 115.0993303 106.1433243 139.8317908
 119.5249992 106.5709978 122.0690014 119.5899992 105.7769978 122.6000014
 120.1779992 106.4529978 121.3790014 119.6221754 106.4463337 122.0484259
 121.8389992 106.1969978 139.3690014 121.5109992 106.4679978 138.5120014
 121.9909992 105.2559978 139.2820014 121.8146030 106.1068973 139.2397945
 124.8779992 107.6179978 121.8050014 124.6089992 107.7989978 122.7060014
 124.6709992 106.6929978 121.6740014 124.8132000 107.5176774 121.9105693
 127.5739992 106.1129978 136.7530014 128.3189992 106.7019978 136.6330014
 126.8169992 106.6949978 136.8160014 127.5735205 106.2721997 136.7451119
 116.0169992 103.4279978 139.3570014 116.4249992 102.5709978 139.2360014
 115.7559992 103.4419978 140.2780014 116.0376016 103.3125119 139.4649192
 120.6749992 104.5439978 124.3750014 120.2149992 104.0599978 125.0610014
 120.9299992 103.8749978 123.7390014 120.6465038 104.3873689 124.3829447
 119.9639992 102.4369978 136.7310014 119.3449992 103.1109978 137.0110014
 120.3079992 102.7579978 135.8980014 119.9257605 102.5727198 136.6566707
 121.7459992 102.7869978 122.6370014 121.5649992 102.6319978 121.7100014
 122.6959992 102.8949978 122.6820014 121.8496566 102.7803669 122.5160929
 124.9829992 104.9079978 140.0080014 125.9369992 104.9919978 139.9810014
 124.8229992 104.1959978 140.6280014 125.0917182 104.8232842 140.0880733
 131.1359992 105.1409978 122.0830014 130.8619992 104.7169978 121.2700014
 131.1749992 106.0729978 121.8660014 131.1037716 105.2088827 121.9424286
 120.3029992  99.7919978 137.8130014 120.4529992  99.0629978 137.2110014
 120.3049992 100.5689978 137.2540014 120.3237967  99.7972708 137.6550541
 120.7159992  98.1609978 135.3060014 121.2509992  98.6129978 134.6540014
 119.8629992  98.0529978 134.8830014 120.6740374  98.2082665 135.1596710
 122.2969992 103.6009978 135.5450014 123.0479992 103.4449978 134.9720014
 121.9579992 104.4529978 135.2700014 122.3539587 103.6948138 135.4294078
 126.7129992 101.4159978 140.5740014 126.9049992 100.4849978 140.4620014
 127.5709992 101.8409978 140.5640014 126.8552269 101.3459928 140.5573192
 128.0299992 104.2049978 138.6510014 127.7479992 104.9139978 138.0740014
 128.9719992 104.1319978 138.5000014 128.1187656 104.2923128 138.5514809
 118.7819992 100.9899978 139.7250014 118.0139992 100.4569978 139.5150014
 119.4599992 100.6799978 139.1250014 118.7686973 100.8752375 139.6151796
 121.5209992  95.6179978 135.7370014 121.4229992  96.5639978 135.6320014
 120.7789992  95.2449978 135.2620014 121.4071913  95.6971813 135.6583539
 122.7849992  99.9389978 139.3010014 122.5499992  99.7199978 140.2030014
 122.0019992  99.7319978 138.7910014 122.6469219  99.8810066 139.3555852
 125.5009992  99.0669978 138.3770014 124.5529992  99.0989978 138.5090014
 125.8129992  98.4409978 139.0300014 125.4135190  98.9867262 138.4833564
 127.1349992  97.7009978 140.3820014 127.0379992  96.7489978 140.3760014
 126.8129992  97.9689978 141.2420014 127.0781761  97.6069744 140.4974936
 116.9619992  98.9099978 139.4290014 117.1739992  98.2039978 138.8190014
 116.8509992  98.4729978 140.2730014 116.9760269  98.7541921 139.4595873
 121.7429992  94.9119978 138.4090014 122.4549992  94.2719978 138.3950014
 121.6419992  95.1779978 137.4950014 121.8267261  94.8604190 138.2835537
 122.0969992  96.5939978 140.4620014 121.9649992  96.1189978 139.6420014
 121.4969992  97.3389978 140.4070014 121.9979070  96.6295789 140.3423251
 121.6429992 113.4769978 123.6390014 122.5759992 113.6349978 123.7820014
 121.3789992 114.1529978 123.0140014 121.7349308 113.5899104 123.5741396
 115.2109992 108.1139978 123.1210014 116.1249992 108.1929978 123.3950014
 115.2189992 107.4269978 122.4550014 115.3371143 108.0319085 123.0684274
 113.8599992 113.5069978 128.1990014 113.2129992 113.0449978 127.6660014
 114.2149992 112.8349978 128.7810014 113.8194506 113.3529503 128.2047341
 114.7299992 111.5869978 130.0030014 114.3959992 110.7069978 130.1750014
 114.9529992 111.9329978 130.8680014 114.7143721 111.5131938 130.1434168
 132.2789992 112.3969978 132.9840014 132.2569992 112.5819978 133.9230014
 132.9689992 112.9649978 132.6430014 132.3693439 112.4991887 133.0664791
 131.8419992 111.9639978 135.9060014 131.3549992 111.2289978 135.5350014
 132.3909992 111.5699978 136.5840014 131.8495247 111.8101057 135.9468461
 130.2929992 107.7539978 140.5440014 129.4269992 107.6489978 140.9380014
 130.6689992 108.5119978 140.9900014 130.2253401 107.8421708 140.6582620
 131.5939992 106.0099978 126.0580014 132.4439992 106.4309978 126.1850014
 131.5989992 105.2699978 126.6650014 131.7111143 105.9676094 126.1574750
 131.9879992 104.0639978 127.8820014 131.2619992 103.5839978 128.2790014
 132.5699992 104.2689978 128.6140014 131.9671635 104.0259166 128.0353748
 131.7469992 106.8489978 132.8290014 132.5809992 106.4709978 132.5490014
 131.8589992 107.7919978 132.7100014 131.8762522 106.9247742 132.7746020
 130.2339992 109.7269978 135.1360014 129.5859992 110.0519978 135.7620014
 129.7159992 109.2859978 134.4620014 130.0754168 109.7118523 135.1305307
 132.2569992 103.9649978 124.2730014 131.7349992 104.3209978 123.5540014
 132.2239992 104.6399978 124.9510014 132.1810699 104.1049848 124.2662129
 130.6059992 101.2039978 122.8240014 130.7019992 101.8709978 122.1440014
 130.4659992 100.3889978 122.3420014 130.6002063 101.1850667 122.6658377
 129.7749992 102.5849978 128.4450014 129.6249992 101.6399978 128.4240014
 129.4209992 102.8659978 129.2880014 129.7065527 102.4935605 128.5561859
 114.8099992 104.6629978 132.4550014 114.9949992 104.5809978 131.5190014
 115.6599992 104.5389978 132.8790014 114.9500916 104.6350393 132.3842896
 130.6309992 104.5549978 138.0830014 131.2139992 103.8199978 138.2750014
 131.1949992 105.3269978 138.1300014 130.7869781 104.5588145 138.1156164
 132.1279992 102.4579978 138.7680014 131.2649992 102.0789978 138.6020014
 132.7319992 101.7189978 138.6940014 132.0915944 102.3062978 138.7352984
 129.8529992  98.6119978 121.9410014 130.4639992  98.2409978 122.5780014
 129.0159992  98.1909978 122.1370014 129.8234947  98.5042756 122.0547252
 129.4859992 100.1669978 126.9070014 129.7649992  99.2599978 127.0310014
 130.2449992 100.6009978 126.5180014 129.6268619 100.1014502 126.8713795
 130.0969992 100.7489978 132.3430014 131.0299992 100.9609978 132.3090014
 129.8619992 100.8499978 133.2650014 130.1928308 100.7916503 132.4630214
 130.1269992 101.4859978 135.1190014 129.2839992 101.7539978 135.4850014
 130.5689992 102.3079978 134.9080014 130.0714138 101.6338273 135.1405518
 114.4079992  99.9329978 138.5960014 115.3269992  99.8109978 138.8320014
 113.9579992  99.1829978 138.9850014 114.4731148  99.8148751 138.6809408
 132.4099992  95.4659978 140.4720014 132.7589992  94.8119978 139.8670014
 132.5569992  96.3029978 140.0330014 132.4777355  95.4896067 140.3296564
 130.0989992  97.4299978 126.9550014 130.2809992  96.9809978 127.7810014
 129.4989992  96.8459978 126.4920014 130.0427529  97.2896131 127.0053619
 115.6289992  98.2459978 131.4870014 116.0739992  97.4539978 131.7890014
 116.0949992  98.9619978 131.9180014 115.7529059  98.2344474 131.5866079
 113.9329992 101.2449978 132.5560014 114.4249992 101.0239978 131.7650014
 114.2949992 102.0849978 132.8370014 114.0492923 101.3283468 132.4857407
 131.9289992  97.5749978 138.8220014 131.0119992  97.8459978 138.7860014
 132.0519992  97.0399978 138.0380014 131.8200828  97.5397700 138.7110785
 131.9659992  97.4979978 123.4830014 132.3779992  96.7769978 123.0080014
 132.6469992  98.1669978 123.5420014 132.1145900  97.4897306 123.4259038
 114.2469992  97.5029978 126.6100014 113.3219992  97.7109978 126.4810014
 114.7009992  97.9869978 125.9210014 114.1816374  97.5969949 126.4990957
 129.0169992 112.4869978 128.5560014 129.6699992 112.1389978 127.9480014
 129.5279992 112.9749978 129.2020014 129.1752777 112.5053815 128.5602047
 114.2099992  96.2409978 134.9550014 113.5449992  95.9949978 135.5980014
 113.7669992  96.8629978 134.3770014 114.0590937  96.2913614 134.9649379
 116.4019992 109.4159978 139.0990014 115.5809992 109.5909978 138.6390014
 116.1499992 109.3429978 140.0200014 116.2556173 109.4300794 139.1604972
 119.3559992 110.3899978 135.3580014 118.9319992 111.1999978 135.0750014
 120.2609992 110.4759978 135.0560014 119.4202433 110.5123331 135.2785377
 123.6679992 111.7889978 138.3170014 123.8519992 111.4559978 139.1950014
 124.5139992 112.0989978 137.9950014 123.8076484 111.7852979 138.3937617
 126.0129992 113.0749978 137.5610014 126.6899992 112.4419978 137.3210014
 126.3339992 113.4759978 138.3680014 126.1491323 113.0425691 137.6373158
 130.9299992  95.6649978 136.6410014 130.1169992  95.9899978 136.2530014
 131.1629992  94.9039978 136.1080014 130.8502566  95.6066559 136.5159213
 116.7579992 113.6469978 135.4050014 116.0379992 114.0869978 134.9540014
 116.3929992 113.3959978 136.2540014 116.6099796 113.6733824 135.4579329
 119.2249992 113.2469978 134.4350014 118.3609992 113.3189978 134.8390014
 119.1699992 113.7939978 133.6510014 119.0991942 113.3307849 134.3844000
 123.9359992 113.1349978 133.6100014 123.4789992 113.6639978 132.9560014
 124.0989992 113.7379978 134.3360014 123.8954476 113.2889140 133.6185499
 126.2639992 112.0129978 134.5550014 125.3589992 112.1779978 134.2900014
 126.6919992 112.8659978 134.4900014 126.1980700 112.1509529 134.5099520
 128.8679992 113.5829978 134.8500014 128.6859992 114.4989978 134.6400014
 129.0449992 113.1719978 134.0040014 128.8669907 113.6529741 134.7067883
 116.1729992 112.2699978 132.3150014 116.1549992 111.8439978 133.1730014
 116.9779992 111.9509978 131.9070014 116.2793221 112.1687233 132.3770225
 118.3139992 110.9799978 130.9700014 118.0949992 110.0629978 131.1400014
 119.1379992 111.1199978 131.4360014 118.3954702 110.8735511 131.0562527
 120.8509992 111.4499978 131.8190014 121.0639992 110.5619978 131.5320014
 120.9159992 111.4149978 132.7740014 120.8889075 111.3238307 131.9087373
 124.3599992  97.1139978 130.9630014 123.6859992  96.4839978 131.2190014
 124.9239992  96.6299978 130.3600014 124.3440384  96.9623708 130.9165020
 129.5029992  95.2209978 131.0760014 130.1059992  95.7689978 130.5740014
 128.6329992  95.5399978 130.8360014 129.4679190  95.3391041 130.9748679
 131.2299992  96.3599978 129.4090014 131.8409992  95.8459978 128.8830014
 131.6119992  97.2369978 129.4330014 131.3654475  96.4081323 129.3401208
 116.6869992  95.7479978 128.7850014 115.9099992  95.5129978 128.2780014
 117.2169992  94.9509978 128.7940014 116.6523451  95.6081268 128.7168627
 115.5229992  95.5459978 124.5890014 115.9619992  96.1569978 123.9970014
 114.8889992  96.0839978 125.0630014 115.4973859  95.7024064 124.5720305
 121.2659992  95.6739978 128.5990014 122.1399992  96.0629978 128.5690014
 121.1299992  95.4589978 129.5210014 121.3673207  95.6981923 128.7196509
 126.8229992  95.7039978 130.2480014 126.8989992  95.7999978 129.2990014
 126.5479992  94.7969978 130.3770014 126.7962042  95.5944241 130.1353811
 128.1759992  95.7299978 125.9400014 127.4729992  96.3449978 125.7310014
 127.7309992  94.8929978 126.0720014 128.0196292  95.7010085 125.9292439
 115.4239992 111.4939978 125.4870014 114.7389992 111.4559978 124.8190014
 115.4279992 112.4069978 125.7750014 115.3308174 111.6121998 125.4345310
 117.3839992  97.4619978 123.0310014 117.8749992  96.8319978 122.5040014
 118.0069992  97.7579978 123.6950014 117.5355062  97.4156770 123.0485438
 122.4099992  97.7549978 125.4890014 122.5879992  97.1079978 126.1710014
 122.3559992  98.5889978 125.9560014 122.4271025  97.7790504 125.6456433
 124.2879992 112.7029978 123.8840014 125.1539992 113.0699978 123.7060014
 124.0419992 112.2639978 123.0700014 124.3732097 112.6938525 123.7496019
 130.9969992 112.2659978 126.5630014 130.8029992 111.5179978 125.9980014
 130.9579992 113.0239978 125.9800014 130.9651645 112.2660786 126.4068148
 116.6439992  96.2619978 138.3030014 116.2779992  95.4959978 138.7460014
 117.5569992  96.2909978 138.5900014 116.7173225  96.1611906 138.4023459
 118.6169992  95.6119978 139.8390014 119.5159992  95.3379978 139.6540014
 118.2309992  94.8699978 140.3030014 118.6877237  95.4741508 139.8764710
 117.2419992 112.4139978 122.5120014 116.9739992 112.6999978 123.3850014
 118.0129992 111.8679978 122.6640014 117.3095600 112.3793330 122.6521499
 127.0389992  94.9449978 140.0210014 127.1149992  94.5189978 140.8750014
 127.9319992  94.9579978 139.6780014 127.1702267  94.8883952 140.0915932
 130.2149992 111.0179978 138.7130014 129.4329992 110.8309978 138.1940014
 130.1429992 111.9469978 138.9310014 130.0980863 111.1180221 138.6713574
 144.6209992 104.9039978 128.7440014 144.7099992 105.8479978 128.6120014
 143.9829992 104.6289978 128.0860014 144.5469062 104.9959812 128.6369641
 143.5539992 104.1589978 132.1630014 143.5159992 103.5129978 132.8680014
 143.2319992 103.6919978 131.3920014 143.5052679 104.0074276 132.1552921
 135.9219992 103.7729978 133.7560014 135.9639992 103.1479978 134.4790014
 136.6249992 104.3969978 133.9380014 136.0227345 103.7717873 133.8795273
 136.8459992 108.2229978 132.2910014 136.4759992 107.4209978 131.9210014
 137.7869992 108.0549978 132.3370014 136.9225984 108.0904638 132.2465603
 133.4559992 101.8829978 127.6840014 133.0079992 102.7289978 127.6650014
 132.8949992 101.3039978 127.1680014 133.3189603 101.9203674 127.6116720
 134.1659992 104.0449978 129.8100014 134.3799992 103.2749978 130.3370014
 134.9039992 104.1349978 129.2060014 134.2949652 103.9518012 129.8005212
 144.3719992 112.2019978 130.6770014 144.9909992 111.5259978 130.4030014
 144.1629992 111.9839978 131.5850014 144.4286232 112.0797938 130.7622517
 141.9429992 106.5909978 132.5690014 142.2469992 105.9049978 131.9750014
 142.6649992 106.7099978 133.1870014 142.0821152 106.5132189 132.5712123
 145.0839992 100.9849978 132.8970014 145.2269992 100.0389978 132.9170014
 144.9779992 101.1919978 131.9680014 145.0892509 100.8834813 132.7742231
 138.2389992  99.0869978 130.1690014 138.2819992  99.9469978 129.7510014
 137.7809992  98.5349978 129.5350014 138.1829815  99.1300621 130.0261197
 134.8589992 101.4839978 130.9310014 135.5129992 100.9339978 131.3630014
 134.8829992 101.2099978 130.0140014 134.9517199 101.3717167 130.8661668
 140.0159992 103.0339978 130.1460014 140.6319992 102.5069978 130.6560014
 139.4289992 102.3939978 129.7430014 140.0209239 102.8754117 130.1612952
 137.0489992  98.0049978 134.2430014 136.8299992  98.5349978 133.4770014
 136.3809992  98.2309978 134.8900014 136.9287001  98.1081154 134.2256064
 144.4179992 107.5049978 127.7870014 144.1229992 107.1819978 126.9360014
 144.0939992 108.4049978 127.8280014 144.3337983 107.5824026 127.6759771
 139.6179992 105.6799978 134.5310014 138.8779992 106.2789978 134.6340014
 140.3319992 106.2339978 134.2150014 139.6133288 105.8367356 134.5023805
 136.6429992  99.8969978 132.1950014 137.2569992 100.5299978 132.5690014
 137.1549992  99.4249978 131.5390014 136.7962277  99.9197352 132.1574279
 138.0259992 107.6449978 135.3180014 138.0199992 108.5239978 134.9400014
 137.1719992 107.5609978 135.7430014 137.9097925 107.7539535 135.3236887
 134.1469992 107.3159978 126.1000014 133.8749992 107.5449978 125.2110014
 134.1919992 108.1529978 126.5600014 134.1158709 107.4606058 126.0406107
 141.0759992  95.3099978 131.6960014 140.9579992  94.3619978 131.6410014
 140.2209992  95.6429978 131.9690014 140.9442679  95.2251926 131.7253720
 143.3419992 104.1479978 126.1960014 142.6309992 104.6829978 125.8440014
 144.0329992 104.2029978 125.5360014 143.3380751 104.2286777 126.0585858
 143.3959992 102.6049978 123.2350014 144.0969992 102.6279978 123.8860014
 143.6979992 101.9769978 122.5790014 143.5328282 102.5232339 123.2354496
 138.3929992 104.9879978 129.0300014 138.0629992 104.6169978 128.2120014
 138.9819992 104.3169978 129.3770014 138.4273970 104.8466063 128.9649404
 139.7599992 108.4159978 131.7120014 139.6649992 107.8369978 130.9550014
 140.4889992 108.0449978 132.2080014 139.8456161 108.2865891 131.6755209
 138.7599992 103.7559978 132.6640014 139.3249992 103.8779978 131.9010014
 139.0789992 104.3939978 133.3030014 138.8803977 103.8588851 132.6459424
 145.0689992 109.2599978 133.3980014 144.8289992 109.9219978 134.0460014
 144.8709992 108.4249978 133.8230014 145.0093826 109.2378115 133.5441566
 139.6399992 108.1559978 137.3810014 139.3289992 108.9379978 137.8360014
 138.9899992 108.0029978 136.6950014 139.5095538 108.2424087 137.3505898
 136.5599992 104.3539978 136.6100014 136.6299992 105.0049978 137.3080014
 135.6689992 104.4569978 136.2750014 136.4491802 104.4569757 136.6602249
 143.3449992 110.2559978 128.2680014 143.8189992 110.5519978 129.0460014
 142.7819992 110.9949978 128.0350014 143.3337361 110.3962721 128.3428611
 137.8789992 110.2269978 138.1440014 137.8869992 110.0909978 137.1970014
 136.9629992 110.1099978 138.3960014 137.7562528 110.1925463 138.0483243
 137.3839992 104.0569978 126.6200014 137.0919992 104.8249978 126.1290014
 136.7089992 103.3979978 126.4570014 137.2528497 104.0729745 126.5308260
 133.4769992 106.4199978 135.4350014 132.9749992 106.3919978 134.6200014
 133.4819992 105.5149978 135.7440014 133.4090416 106.2937368 135.3653766
 133.2269992 109.2009978 132.3190014 134.1729992 109.0559978 132.3000014
 133.1139992 109.9849978 132.8560014 133.3413578 109.2871697 132.3890317
 142.4029992 109.4409978 136.8770014 142.4909992 110.2669978 137.3520014
 141.5399992 109.1109978 137.1260014 142.2983357 109.5095468 136.9757653
 142.8179992 113.2129978 126.6830014 142.7419992 113.0919978 125.7370014
 142.8499992 114.1619978 126.8020014 142.8119156 113.3247530 126.5695048
 136.4709992 112.0019978 128.4640014 136.6229992 111.6539978 129.3430014
 135.6199992 111.6449978 128.2090014 136.3767899 111.9061738 128.5497340
 135.7259992 107.7439978 136.4780014 135.9419992 107.3819978 137.3370014
 134.8699992 107.3689978 136.2680014 135.6399354 107.6437906 136.5672160
 138.3439992  96.2139978 132.4730014 137.4829992  96.1269978 132.0660014
 138.3219992  97.0699978 132.9010014 138.2230411  96.3177884 132.4750857
 143.0069992  95.9359978 135.8480014 143.4269992  95.5209978 136.6010014
 142.0739992  95.7569978 135.9650014 142.9383736  95.8549910 135.9668968
 142.6689992  98.4279978 123.1330014 142.4149992  98.4469978 124.0560014
 142.4119992  97.5569978 122.8320014 142.5995133  98.3128110 123.2185082
 138.4349992 101.1789978 133.5680014 137.7939992 101.1389978 134.2770014
 138.4729992 102.1059978 133.3310014 138.3523670 101.2987795 133.6330550
 138.4319992 101.3999978 128.4800014 137.5399992 101.0599978 128.4220014
 138.8829992 101.0229978 127.7250014 138.3706815 101.3023762 128.3699203
 143.9679992 101.8159978 127.2970014 143.5589992 102.6309978 127.0060014
 144.6879992 101.6759978 126.6830014 144.0094013 101.9086571 127.1740875
 143.0699992 101.9919978 138.7850014 142.5069992 101.2869978 139.1060014
 143.8959992 101.8709978 139.2530014 143.1046674 101.8792165 138.8921751
 144.9729992 101.2619978 130.1110014 144.7769992 101.8679978 129.3960014
 145.1539992 100.4289978 129.6770014 144.9706584 101.2322513 129.9544212
 136.1849992 101.4999978 135.4350014 136.1469992 101.8999978 136.3040014
 135.6949992 100.6829978 135.5260014 136.1135621 101.4442510 135.5661377
 139.5509992  98.8739978 122.2340014 139.1199992  98.4289978 122.9640014
 138.8329992  99.2449978 121.7220014 139.3949363  98.8632968 122.2646211
 132.7939992  98.6159978 129.2860014 133.4239992  98.5869978 130.0050014
 133.2429992  98.1909978 128.5560014 132.9410692  98.5545316 129.2857771
 134.0679992  99.3619978 124.7100014 134.5419992  99.9529978 124.1250014
 133.3499992  99.8919978 125.0570014 134.0358640  99.5145511 124.6767969
 144.2369992 102.8999978 134.7830014 144.5599992 102.2689978 134.1400014
 143.7959992 102.3659978 135.4430014 144.2215789 102.7413522 134.7842232
 141.0139992  98.8279978 129.5670014 140.1029992  98.8849978 129.8550014
 141.5189992  98.7679978 130.3770014 140.9575387  98.8276870 129.7160646
 135.8419992 100.4569978 128.3930014 134.9529992 100.5559978 128.0530014
 136.1389992  99.6149978 128.0470014 135.7604177 100.3567687 128.2996940
 139.4949992 100.4569978 126.0500014 140.4269992 100.5859978 126.2280014
 139.2799992 101.1259978 125.4000014 139.5934472 100.5650806 125.9864891
 145.4189992  98.0629978 132.8310014 144.7419992  98.1939978 133.4950014
 144.9339992  97.9079978 132.0210014 145.2607265  98.0599659 132.8123397
 138.1689992 101.6509978 123.6170014 137.6269992 101.2719978 122.9250014
 139.0029992 101.8459978 123.1880014 138.2075159 101.6255076 123.4644419
 136.3049992 106.2079978 138.7160014 137.0369992 106.4629978 139.2770014
 135.5239992 106.4129978 139.2310014 136.2997684 106.2706468 138.8624782
 142.3339992 101.6149978 131.4540014 142.8979992 101.0689978 130.9070014
 142.1859992 101.0939978 132.2420014 142.3912575 101.4696552 131.4856987
 137.3359992  97.7519978 127.8720014 137.0189992  96.8489978 127.8370014
 138.1169992  97.7539978 127.3190014 137.3982307  97.6286951 127.7924314
 140.9599992 100.0039978 133.8680014 140.1249992 100.4579978 133.9780014
 141.4839992 100.2799978 134.6200014 140.9165070 100.1034666 133.9847152
 141.5049992 106.2169978 125.5520014 140.7599992 105.7089978 125.2300014
 141.3699992 106.2659978 126.4990014 141.3849047 106.1541596 125.6358845
 145.4019992  99.0309978 123.7520014 144.4639992  99.1419978 123.6000014
 145.6999992  99.8869978 124.0580014 145.3136402  99.1620621 123.7725571
 143.0239992 106.4009978 136.7890014 142.6779992 106.0189978 137.5960014
 142.8239992 107.3339978 136.8610014 142.9496523 106.4749095 136.9090735
 136.6289992 105.5119978 131.3220014 137.3739992 105.5089978 130.7210014
 136.7069992 104.6879978 131.8040014 136.7414158 105.4002916 131.3049153
 143.6299992 107.6749978 124.5780014 143.3349992 108.5019978 124.9590014
 142.9269992 107.0559978 124.7740014 143.4945471 107.7045227 124.6566698
 133.6369992 103.9719978 136.6370014 133.8599992 103.5539978 137.4690014
 133.0349992 103.3599978 136.2140014 133.5861260 103.8319933 136.6937320
 140.6539992 103.4889978 138.8500014 140.3579992 103.3239978 137.9550014
 141.5849992 103.2689978 138.8390014 140.7393982 103.4366578 138.7260045
 145.2739992 108.8629978 136.7400014 144.3739992 109.0459978 136.4720014
 145.3079992 109.1219978 137.6610014 145.1552909 108.9230815 136.8277852
 139.0039992 109.0299978 128.7260014 139.5319992 109.8029978 128.5260014
 138.1239992 109.2539978 128.4250014 138.9573176 109.1663161 128.6578409
 134.7589992 103.8919978 123.3140014 135.3749992 104.5189978 123.6930014
 133.8969992 104.2079978 123.5850014 134.7268195 104.0205798 123.4025386
 140.4319992 106.6929978 128.3030014 140.1909992 107.6179978 128.3440014
 139.6909992 106.2339978 128.6990014 140.2988390 106.7576403 128.3621404
 140.9459992 110.8419978 134.6180014 141.3089992 111.6959978 134.3840014
 141.4779992 110.5499978 135.3580014 141.0676090 110.9194058 134.6860219
 139.1149992 111.7139978 127.8480014 138.1649992 111.8199978 127.8990014
 139.4669992 112.5349978 128.1930014 139.0325480 111.8394438 127.9015999
 144.4899992 106.9409978 134.3180014 144.0649992 106.7129978 135.1450014
 145.0709992 106.2019978 134.1360014 144.5103930 106.8099843 134.4064732
 135.2709992  98.7259978 136.1950014 134.3789992  99.0639978 136.1280014
 135.1729992  97.8699978 136.6130014 135.1354965  98.6566499 136.2423044
 134.9229992 110.5299978 134.6300014 135.1399992 109.5979978 134.5990014
 135.1689992 110.8049978 135.5130014 134.9859809 110.4395686 134.7451690
 140.7839992 108.9819978 121.8390014 141.0229992 108.2329978 121.2920014
 140.5149992 108.5939978 122.6720014 140.7803233 108.8271853 121.8767809
 139.7209992 108.5519978 124.2960014 139.8679992 108.0319978 125.0860014
 139.7179992 109.4589978 124.6020014 139.7407300 108.6033964 124.4455895
 136.1739992 105.8039978 124.8060014 135.4879992 106.1569978 125.3730014
 136.6969992 106.5669978 124.5600014 136.1509033 105.9553746 124.8502661
 144.0059992  98.4669978 135.0850014 144.7049992  98.5409978 135.7350014
 143.6249992  97.6019978 135.2390014 144.0502097  98.3602389 135.1947997
 144.7899992  98.1189978 126.1820014 145.0099992  98.5899978 125.3790014
 145.3489992  98.5129978 126.8520014 144.8956730  98.2367432 126.1625906
 142.4589992 110.2489978 125.0450014 141.6419992 110.7459978 125.0970014
 142.9879992 110.7249978 124.4050014 142.4188508 110.3812543 124.9656035
 141.9899992  99.8469978 127.0170014 142.8019992 100.3509978 127.0630014
 141.7459992  99.7019978 127.9310014 142.0681467  99.8963749 127.1468575
 142.5259992 100.8329978 136.2020014 142.6449992 101.4069978 136.9590014
 143.1809992 100.1449978 136.3160014 142.6309146 100.8185574 136.3211314
 142.8739992  96.9279978 127.9550014 142.5269992  97.5449978 128.6000014
 143.5329992  97.4289978 127.4740014 142.9155949  97.0801099 127.9782271
 139.7969992 111.2929978 125.0270014 139.9579992 112.0929978 124.5260014
 139.5999992 111.5999978 125.9120014 139.7923919 111.4439129 125.0781006
 138.5319992  97.9909978 124.6420014 138.4479992  98.8789978 124.9890014
 139.4219992  97.7259978 124.8740014 138.6408163  98.0767179 124.7208596
 136.7899992 108.4179978 123.7030014 137.3819992 109.1179978 123.9790014
 137.2489992 107.9849978 122.9830014 136.9330791 108.4552908 123.6434607
 135.1059992 101.0829978 122.8190014 135.0609992 102.0219978 122.9970014
 134.2179992 100.8469978 122.5490014 134.9798555 101.1796874 122.8068939
 135.9139992  95.8639978 131.4920014 135.6849992  95.9229978 130.5640014
 135.4719992  95.0729978 131.7980014 135.8228801  95.7650540 131.4064729
 134.8449992 109.8049978 127.6520014 134.0119992 110.2769978 127.6800014
 135.3899992 110.3149978 127.0540014 134.8047590 109.9385897 127.5749194
 134.1329992 112.4169978 138.9820014 134.6729992 112.2009978 139.7420014
 133.6519992 111.6119978 138.7930014 134.1418613 112.2785400 139.0604782
 138.7299992 111.3369978 140.6030014 139.4979992 110.8779978 140.9440014
 138.7089992 111.1109978 139.6730014 138.8322135 111.2436668 140.5239491
 142.8219992 110.8449978 121.9780014 142.1779992 110.2139978 122.2990014
 143.5839992 110.3139978 121.7460014 142.8368058 110.6867902 121.9906038
 145.3069992 109.7169978 139.3320014 144.9559992 108.8599978 139.5750014
 146.0329992 109.8589978 139.9390014 145.3571590 109.6190178 139.4472907
 134.0399992 106.2279978 139.9370014 134.1839992 105.3259978 139.6500014
 133.2679992 106.5139978 139.4490014 133.9553303 106.1433243 139.8317908
 138.3809992 106.5709978 122.0690014 138.4459992 105.7769978 122.6000014
 139.0339992 106.4529978 121.3790014 138.4781754 106.4463337 122.0484259
 140.6949992 106.1969978 139.3690014 140.3669992 106.4679978 138.5120014
 140.8469992 105.2559978 139.2820014 140.6706030 106.1068973 139.2397945
 143.7339992 107.6179978 121.8050014 143.4649992 107.7989978 122.7060014
 143.5269992 106.6929978 121.6740014 143.6692000 107.5176774 121.9105693
 134.8729992 103.4279978 139.3570014 135.2809992 102.5709978 139.2360014
 134.6119992 103.4419978 140.2780014 134.8936016 103.3125119 139.4649192
 139.5309992 104.5439978 124.3750014 139.0709992 104.0599978 125.0610014
 139.7859992 103.8749978 123.7390014 139.5025038 104.3873689 124.3829447
 138.8199992 102.4369978 136.7310014 138.2009992 103.1109978 137.0110014
 139.1639992 102.7579978 135.8980014 138.7817605 102.5727198 136.6566707
 140.6019992 102.7869978 122.6370014 140.4209992 102.6319978 121.7100014
 141.5519992 102.8949978 122.6820014 140.7056566 102.7803669 122.5160929
 143.8389992 104.9079978 140.0080014 144.7929992 104.9919978 139.9810014
 143.6789992 104.1959978 140.6280014 143.9477182 104.8232842 140.0880733
 139.1589992  99.7919978 137.8130014 139.3089992  99.0629978 137.2110014
 139.1609992 100.5689978 137.2540014 139.1797967  99.7972708 137.6550541
 139.5719992  98.1609978 135.3060014 140.1069992  98.6129978 134.6540014
 138.7189992  98.0529978 134.8830014 139.5300374  98.2082665 135.1596710
 141.1529992 103.6009978 135.5450014 141.9039992 103.4449978 134.9720014
 140.8139992 104.4529978 135.2700014 141.2099587 103.6948138 135.4294078
 145.5689992 101.4159978 140.5740014 145.7609992 100.4849978 140.4620014
 146.4269992 101.8409978 140.5640014 145.7112269 101.3459928 140.5573192
 137.6379992 100.9899978 139.7250014 136.8699992 100.4569978 139.5150014
 138.3159992 100.6799978 139.1250014 137.6246973 100.8752375 139.6151796
 140.3769992  95.6179978 135.7370014 140.2789992  96.5639978 135.6320014
 139.6349992  95.2449978 135.2620014 140.2631913  95.6971813 135.6583539
 141.6409992  99.9389978 139.3010014 141.4059992  99.7199978 140.2030014
 140.8579992  99.7319978 138.7910014 141.5029219  99.8810066 139.3555852
 144.3569992  99.0669978 138.3770014 143.4089992  99.0989978 138.5090014
 144.6689992  98.4409978 139.0300014 144.2695190  98.9867262 138.4833563
 135.8179992  98.9099978 139.4290014 136.0299992  98.2039978 138.8190014
 135.7069992  98.4729978 140.2730014 135.8320269  98.7541921 139.4595873
 140.5989992  94.9119978 138.4090014 141.3109992  94.2719978 138.3950014
 140.4979992  95.1779978 137.4950014 140.6827261  94.8604190 138.2835537
 140.9529992  96.5939978 140.4620014 140.8209992  96.1189978 139.6420014
 140.3529992  97.3389978 140.4070014 140.8539070  96.6295789 140.3423251
 140.4989992 113.4769978 123.6390014 141.4319992 113.6349978 123.7820014
 140.2349992 114.1529978 123.0140014 140.5909308 113.5899104 123.5741396
 134.0669992 108.1139978 123.1210014 134.9809992 108.1929978 123.3950014
 134.0749992 107.4269978 122.4550014 134.1931143 108.0319085 123.0684274
 132.7159992 113.5069978 128.1990014 132.0689992 113.0449978 127.6660014
 133.0709992 112.8349978 128.7810014 132.6754506 113.3529503 128.2047341
 133.5859992 111.5869978 130.0030014 133.2519992 110.7069978 130.1750014
 133.8089992 111.9329978 130.8680014 133.5703721 111.5131938 130.1434168
 133.6659992 104.6629978 132.4550014 133.8509992 104.5809978 131.5190014
 134.5159992 104.5389978 132.8790014 133.8060916 104.6350393 132.3842896
 133.2639992  99.9329978 138.5960014 134.1829992  99.8109978 138.8320014
 132.8139992  99.1829978 138.9850014 133.3291148  99.8148751 138.6809408
 134.4849992  98.2459978 131.4870014 134.9299992  97.4539978 131.7890014
 134.9509992  98.9619978 131.9180014 134.6089059  98.2344474 131.5866079
 132.7889992 101.2449978 132.5560014 133.2809992 101.0239978 131.7650014
 133.1509992 102.0849978 132.8370014 132.9052923 101.3283468 132.4857407
 133.1029992  97.5029978 126.6100014 132.1779992  97.7109978 126.4810014
 133.5569992  97.9869978 125.9210014 133.0376374  97.5969949 126.4990957
 133.0659992  96.2409978 134.9550014 132.4009992  95.9949978 135.5980014
 132.6229992  96.8629978 134.3770014 132.9150937  96.2913614 134.9649379
 135.2579992 109.4159978 139.0990014 134.4369992 109.5909978 138.6390014
 135.0059992 109.3429978 140.0200014 135.1116173 109.4300794 139.1604972
 138.2119992 110.3899978 135.3580014 137.7879992 111.1999978 135.0750014
 139.1169992 110.4759978 135.0560014 138.2762433 110.5123331 135.2785377
 142.5239992 111.7889978 138.3170014 142.7079992 111.4559978 139.1950014
 143.3699992 112.0989978 137.9950014 142.6636484 111.7852979 138.3937617
 144.8689992 113.0749978 137.5610014 145.5459992 112.4419978 137.3210014
 145.1899992 113.4759978 138.3680014 145.0051323 113.0425691 137.6373158
 135.6139992 113.6469978 135.4050014 134.8939992 114.0869978 134.9540014
 135.2489992 113.3959978 136.2540014 135.4659796 113.6733824 135.4579329
 138.0809992 113.2469978 134.4350014 137.2169992 113.3189978 134.8390014
 138.0259992 113.7939978 133.6510014 137.9551942 113.3307849 134.3844000
 142.7919992 113.1349978 133.6100014 142.3349992 113.6639978 132.9560014
 142.9549992 113.7379978 134.3360014 142.7514476 113.2889140 133.6185499
 145.1199992 112.0129978 134.5550014 144.2149992 112.1779978 134.2900014
 145.5479992 112.8659978 134.4900014 145.0540700 112.1509529 134.5099520
 135.0289992 112.2699978 132.3150014 135.0109992 111.8439978 133.1730014
 135.8339992 111.9509978 131.9070014 135.1353221 112.1687233 132.3770225
 137.1699992 110.9799978 130.9700014 136.9509992 110.0629978 131.1400014
 137.9939992 111.1199978 131.4360014 137.2514702 110.8735511 131.0562527
 139.7069992 111.4499978 131.8190014 139.9199992 110.5619978 131.5320014
 139.7719992 111.4149978 132.7740014 139.7449075 111.3238307 131.9087373
 143.2159992  97.1139978 130.9630014 142.5419992  96.4839978 131.2190014
 143.7799992  96.6299978 130.3600014 143.2000384  96.9623708 130.9165020
 135.5429992  95.7479978 128.7850014 134.7659992  95.5129978 128.2780014
 136.0729992  94.9509978 128.7940014 135.5083451  95.6081268 128.7168627
 134.3789992  95.5459978 124.5890014 134.8179992  96.1569978 123.9970014
 133.7449992  96.0839978 125.0630014 134.3533859  95.7024064 124.5720305
 140.1219992  95.6739978 128.5990014 140.9959992  96.0629978 128.5690014
 139.9859992  95.4589978 129.5210014 140.2233207  95.6981923 128.7196509
 134.2799992 111.4939978 125.4870014 133.5949992 111.4559978 124.8190014
 134.2839992 112.4069978 125.7750014 134.1868174 111.6121998 125.4345310
 136.2399992  97.4619978 123.0310014 136.7309992  96.8319978 122.5040014
 136.8629992  97.7579978 123.6950014 136.3915062  97.4156770 123.0485438
 141.2659992  97.7549978 125.4890014 141.4439992  97.1079978 126.1710014
 141.2119992  98.5889978 125.9560014 141.2831025  97.7790504 125.6456433
 143.1439992 112.7029978 123.8840014 144.0099992 113.0699978 123.7060014
 142.8979992 112.2639978 123.0700014 143.2292097 112.6938525 123.7496019
 135.4999992  96.2619978 138.3030014 135.1339992  95.4959978 138.7460014
 136.4129992  96.2909978 138.5900014 135.5733225  96.1611906 138.4023459
 137.4729992  95.6119978 139.8390014 138.3719992  95.3379978 139.6540014
 137.0869992  94.8699978 140.3030014 137.5437237  95.4741508 139.8764710
 136.0979992 112.4139978 122.5120014 135.8299992 112.6999978 123.3850014
 136.8689992 111.8679978 122.6640014 136.1655600 112.3793330 122.6521499
  12.6289992 123.7599978 128.7440014  12.7179992 124.7039978 128.6120014
  11.9909992 123.4849978 128.0860014  12.5549062 123.8519812 128.6369641
  11.5619992 123.0149978 132.1630014  11.5239992 122.3689978 132.8680014
  11.2399992 122.5479978 131.3920014  11.5132679 122.8634276 132.1552921
   3.9299992 122.6289978 133.7560014   3.9719992 122.0039978 134.4790014
   4.6329992 123.2529978 133.9380014   4.0307345 122.6277873 133.8795274
  15.2679992 125.9539978 130.4650014  14.8269992 125.2339978 130.9150014
  15.2549992 126.6749978 131.0940014  15.2057960 125.9528329 130.6117567
   4.8539992 127.0789978 132.2910014   4.4839992 126.2769978 131.9210014
   5.7949992 126.9109978 132.3370014   4.9305984 126.9464638 132.2465603
   1.4639992 120.7389978 127.6840014   1.0159992 121.5849978 127.6650014
   0.9029992 120.1599978 127.1680014   1.3269603 120.7763674 127.6116720
   2.1739992 122.9009978 129.8100014   2.3879992 122.1309978 130.3370014
   2.9119992 122.9909978 129.2060014   2.3029652 122.8078012 129.8005212
  12.3799992 131.0579978 130.6770014  12.9989992 130.3819978 130.4030014
  12.1709992 130.8399978 131.5850014  12.4366232 130.9357938 130.7622517
   9.9509992 125.4469978 132.5690014  10.2549992 124.7609978 131.9750014
  10.6729992 125.5659978 133.1870014  10.0901152 125.3692189 132.5712123
  18.6139992 117.0489978 133.4300014  18.6639992 117.6589978 134.1660014
  19.0399992 117.5099978 132.7070014  18.6784108 117.1947709 133.4330112
  13.0919992 119.8409978 132.8970014  13.2349992 118.8949978 132.9170014
  12.9859992 120.0479978 131.9680014  13.0972509 119.7394813 132.7742231
   6.2469992 117.9429978 130.1690014   6.2899992 118.8029978 129.7510014
   5.7889992 117.3909978 129.5350014   6.1909815 117.9860621 130.0261197
  13.9689992 118.0739978 128.5700014  14.6159992 117.7449978 129.1950014
  14.4789992 118.5909978 127.9470014  14.1264317 118.0989227 128.5712167
   2.8669992 120.3399978 130.9310014   3.5209992 119.7899978 131.3630014
   2.8909992 120.0659978 130.0140014   2.9597199 120.2277167 130.8661668
   8.0239992 121.8899978 130.1460014   8.6399992 121.3629978 130.6560014
   7.4369992 121.2499978 129.7430014   8.0289239 121.7314117 130.1612952
  19.0059992 118.5269978 135.6660014  18.3169992 119.1849978 135.5700014
  19.0209992 118.3289978 136.6020014  18.9136740 118.5903243 135.7794630
   5.0569992 116.8609978 134.2430014   4.8379992 117.3909978 133.4770014
   4.3889992 117.0869978 134.8900014   4.9367001 116.9641154 134.2256064
  12.4259992 126.3609978 127.7870014  12.1309992 126.0379978 126.9360014
  12.1019992 127.2609978 127.8280014  12.3417983 126.4384026 127.6759771
   7.6259992 124.5359978 134.5310014   6.8859992 125.1349978 134.6340014
   8.3399992 125.0899978 134.2150014   7.6213288 124.6927356 134.5023805
  15.7329992 117.3649978 130.5500014  15.5179992 116.5989978 131.0830014
  16.3889992 117.8369978 131.0630014  15.7922673 117.3240728 130.6921990
   4.6509992 118.7529978 132.1950014   5.2649992 119.3859978 132.5690014
   5.1629992 118.2809978 131.5390014   4.8042277 118.7757352 132.1574279
   6.0339992 126.5009978 135.3180014   6.0279992 127.3799978 134.9400014
   5.1799992 126.4169978 135.7430014   5.9177925 126.6099535 135.3236887
   2.1549992 126.1719978 126.1000014   1.8829992 126.4009978 125.2110014
   2.1999992 127.0089978 126.5600014   2.1238709 126.3166058 126.0406107
  15.7799992 127.7929978 132.8120014  14.8379992 127.8519978 132.9740014
  16.0559992 128.6989978 132.6750014  15.6885865 127.9235288 132.8156192
  16.0799992 116.0799978 134.2300014  15.3439992 116.6899978 134.1920014
  16.7639992 116.4949978 133.7030014  16.0715506 116.2196400 134.1536051
   9.0839992 114.1659978 131.6960014   8.9659992 113.2179978 131.6410014
   8.2289992 114.4989978 131.9690014   8.9522679 114.0811926 131.7253720
  14.0319992 129.5739978 129.4380014  14.4569992 128.8669978 128.9530014
  14.3489992 130.3759978 129.0210014  14.1330266 129.5855190 129.3152479
  15.1919992 127.4749978 127.9460014  14.9339992 126.7849978 127.3350014
  15.2629992 127.0319978 128.7920014  15.1662837 127.3207106 127.9766912
  16.8779992 126.0419978 136.4240014  17.0169992 125.4499978 135.6840014
  17.0449992 126.9149978 136.0670014  16.9195562 126.0789896 136.2746283
  11.3499992 123.0039978 126.1960014  10.6389992 123.5389978 125.8440014
  12.0409992 123.0589978 125.5360014  11.3460751 123.0846777 126.0585858
  11.4039992 121.4609978 123.2350014  12.1049992 121.4839978 123.8860014
  11.7059992 120.8329978 122.5790014  11.5408282 121.3792339 123.2354496
  18.7189992 122.3819978 134.4900014  18.0669992 123.0759978 134.5790014
  19.1849992 122.5919978 133.6800014  18.6925937 122.5055019 134.3927533
  14.7559992 123.2129978 127.1480014  14.0239992 123.4419978 127.7210014
  15.2029992 122.4999978 127.6030014  14.7162753 123.1478972 127.2879715
  14.6529992 121.3879978 136.2160014  14.7329992 122.1509978 136.7870014
  14.0519992 121.6669978 135.5250014  14.5827245 121.5302630 136.2008424
   6.4009992 123.8439978 129.0300014   6.0709992 123.4729978 128.2120014
   6.9899992 123.1729978 129.3770014   6.4353970 123.7026063 128.9649404
   7.7679992 127.2719978 131.7120014   7.6729992 126.6929978 130.9550014
   8.4969992 126.9009978 132.2080014   7.8536161 127.1425891 131.6755209
   6.7679992 122.6119978 132.6640014   7.3329992 122.7339978 131.9010014
   7.0869992 123.2499978 133.3030014   6.8883977 122.7148851 132.6459424
  13.0769992 128.1159978 133.3980014  12.8369992 128.7779978 134.0460014
  12.8789992 127.2809978 133.8230014  13.0173826 128.0938115 133.5441566
   7.6479992 127.0119978 137.3810014   7.3369992 127.7939978 137.8360014
   6.9979992 126.8589978 136.6950014   7.5175538 127.0984087 137.3505898
  13.6269992 122.3759978 124.8330014  14.2059992 122.5259978 125.5800014
  14.0409992 122.8459978 124.1100014  13.7623122 122.4601277 124.8375042
   4.5679992 123.2099978 136.6100014   4.6379992 123.8609978 137.3080014
   3.6769992 123.3129978 136.2750014   4.4571802 123.3129757 136.6602249
  11.3529992 129.1119978 128.2680014  11.8269992 129.4079978 129.0460014
  10.7899992 129.8509978 128.0350014  11.3417361 129.2522721 128.3428611
   5.8869992 129.0829978 138.1440014   5.8949992 128.9469978 137.1970014
   4.9709992 128.9659978 138.3960014   5.7642528 129.0485463 138.0483243
  17.3259992 114.1259978 124.6460014  16.4259992 114.2649978 124.9410014
  17.5779992 114.9569978 124.2440014  17.2368683 114.2574055 124.6320232
   5.3919992 122.9129978 126.6200014   5.0999992 123.6809978 126.1290014
   4.7169992 122.2539978 126.4570014   5.2608497 122.9289745 126.5308260
  18.5149992 128.4919978 123.0220014  18.5879992 129.4309978 123.1930014
  19.4199992 128.1869978 122.9660014  18.6474158 128.5793061 123.0378392
   1.4849992 125.2759978 135.4350014   0.9829992 125.2479978 134.6200014
   1.4899992 124.3709978 135.7440014   1.4170416 125.1497368 135.3653766
   1.2349992 128.0569978 132.3190014   2.1809992 127.9119978 132.3000014
   1.1219992 128.8409978 132.8560014   1.3493578 128.1431697 132.3890317
  19.4329992 128.7229978 138.0010014  19.3829992 127.7669978 137.9640014
  18.6059992 128.9899978 138.4020014  19.3143987 128.6285174 138.0501446
  10.4109992 128.2969978 136.8770014  10.4989992 129.1229978 137.3520014
   9.5479992 127.9669978 137.1260014  10.3063357 128.3655468 136.9757653
  10.8259992 132.0689978 126.6830014  10.7499992 131.9479978 125.7370014
  10.8579992 133.0179978 126.8020014  10.8199156 132.1807530 126.5695048
   4.4789992 130.8579978 128.4640014   4.6309992 130.5099978 129.3430014
   3.6279992 130.5009978 128.2090014   4.3847899 130.7621738 128.5497340
  13.9269992 131.2229978 123.6850014  14.3019992 130.4789978 123.2150014
  13.9319992 130.9529978 124.6040014  13.9790024 131.0846950 123.7447987
  13.5959992 131.1489978 126.4350014  12.6609992 131.2489978 126.6130014
  13.8759992 130.4389978 127.0130014  13.5058173 131.0667239 126.5374998
  16.5849992 120.2159978 138.4810014  16.1769992 120.6959978 137.7610014
  16.6249992 119.3099978 138.1730014  16.5345476 120.1593160 138.3408247
   3.7339992 126.5999978 136.4780014   3.9499992 126.2379978 137.3370014
   2.8779992 126.2249978 136.2680014   3.6479354 126.4997906 136.5672160
   6.3519992 115.0699978 132.4730014   5.4909992 114.9829978 132.0660014
   6.3299992 115.9259978 132.9010014   6.2310411 115.1737884 132.4750857
  11.0149992 114.7919978 135.8480014  11.4349992 114.3769978 136.6010014
  10.0819992 114.6129978 135.9650014  10.9463736 114.7109910 135.9668968
  14.3419992 118.5469978 136.7010014  13.8279992 118.4219978 137.4990014
  14.1859992 119.4599978 136.4570014  14.2506967 118.6532123 136.7770937
  15.1039992 123.4079978 122.4630014  15.1459992 123.1859978 121.5330014
  15.9529992 123.8069978 122.6530014  15.2245253 123.4315498 122.3613822
  10.6769992 117.2839978 123.1330014  10.4229992 117.3029978 124.0560014
  10.4199992 116.4129978 122.8320014  10.6075133 117.1688110 123.2185082
   6.4429992 120.0349978 133.5680014   5.8019992 119.9949978 134.2770014
   6.4809992 120.9619978 133.3310014   6.3603670 120.1547795 133.6330550
   6.4399992 120.2559978 128.4800014   5.5479992 119.9159978 128.4220014
   6.8909992 119.8789978 127.7250014   6.3786815 120.1583762 128.3699203
  11.9759992 120.6719978 127.2970014  11.5669992 121.4869978 127.0060014
  12.6959992 120.5319978 126.6830014  12.0174013 120.7646571 127.1740875
  11.0779992 120.8479978 138.7850014  10.5149992 120.1429978 139.1060014
  11.9039992 120.7269978 139.2530014  11.1126674 120.7352165 138.8921751
  12.9809992 120.1179978 130.1110014  12.7849992 120.7239978 129.3960014
  13.1619992 119.2849978 129.6770014  12.9786584 120.0882513 129.9544212
   4.1929992 120.3559978 135.4350014   4.1549992 120.7559978 136.3040014
   3.7029992 119.5389978 135.5260014   4.1215621 120.3002510 135.5661377
   7.5589992 117.7299978 122.2340014   7.1279992 117.2849978 122.9640014
   6.8409992 118.1009978 121.7220014   7.4029363 117.7192968 122.2646211
   0.8019992 117.4719978 129.2860014   1.4319992 117.4429978 130.0050014
   1.2509992 117.0469978 128.5560014   0.9490692 117.4105316 129.2857771
   2.0759992 118.2179978 124.7100014   2.5499992 118.8089978 124.1250014
   1.3579992 118.7479978 125.0570014   2.0438640 118.3705511 124.6767969
  12.2449992 121.7559978 134.7830014  12.5679992 121.1249978 134.1400014
  11.8039992 121.2219978 135.4430014  12.2295789 121.5973522 134.7842232
   9.0219992 117.6839978 129.5670014   8.1109992 117.7409978 129.8550014
   9.5269992 117.6239978 130.3770014   8.9655387 117.6836870 129.7160646
   3.8499992 119.3129978 128.3930014   2.9609992 119.4119978 128.0530014
   4.1469992 118.4709978 128.0470014   3.7684177 119.2127687 128.2996940
   7.5029992 119.3129978 126.0500014   8.4349992 119.4419978 126.2280014
   7.2879992 119.9819978 125.4000014   7.6014472 119.4210806 125.9864891
  13.4269992 116.9189978 132.8310014  12.7499992 117.0499978 133.4950014
  12.9419992 116.7639978 132.0210014  13.2687265 116.9159659 132.8123397
   6.1769992 120.5069978 123.6170014   5.6349992 120.1279978 122.9250014
   7.0109992 120.7019978 123.1880014   6.2155159 120.4815076 123.4644419
  16.7149992 132.5899978 139.1080014  16.9139992 133.0139978 138.2730014
  17.3699992 132.9339978 139.7150014  16.8308501 132.6946091 139.0757097
   4.3129992 125.0639978 138.7160014   5.0449992 125.3189978 139.2770014
   3.5319992 125.2689978 139.2310014   4.3077684 125.1266468 138.8624782
  10.3419992 120.4709978 131.4540014  10.9059992 119.9249978 130.9070014
  10.1939992 119.9499978 132.2420014  10.3992575 120.3256552 131.4856987
   5.3439992 116.6079978 127.8720014   5.0269992 115.7049978 127.8370014
   6.1249992 116.6099978 127.3190014   5.4062307 116.4846951 127.7924314
   8.9679992 118.8599978 133.8680014   8.1329992 119.3139978 133.9780014
   9.4919992 119.1359978 134.6200014   8.9245070 118.9594666 133.9847152
   9.5129992 125.0729978 125.5520014   8.7679992 124.5649978 125.2300014
   9.3779992 125.1219978 126.4990014   9.3929047 125.0101596 125.6358845
  16.6629992 124.2059978 134.3390014  17.3039992 124.6619978 133.7950014
  15.8319992 124.3189978 133.8770014  16.6385171 124.2837502 134.2020237
  13.4099992 117.8869978 123.7520014  12.4719992 117.9979978 123.6000014
  13.7079992 118.7429978 124.0580014  13.3216402 118.0180621 123.7725571
  11.0319992 125.2569978 136.7890014  10.6859992 124.8749978 137.5960014
  10.8319992 126.1899978 136.8610014  10.9576523 125.3309095 136.9090735
  14.1289992 119.7539978 125.4120014  15.0209992 119.6159978 125.7310014
  14.1849992 120.5449978 124.8760014  14.2587107 119.8420526 125.3832091
   4.6369992 124.3679978 131.3220014   5.3819992 124.3649978 130.7210014
   4.7149992 123.5439978 131.8040014   4.7494158 124.2562916 131.3049153
  11.6379992 126.5309978 124.5780014  11.3429992 127.3579978 124.9590014
  10.9349992 125.9119978 124.7740014  11.5025471 126.5605227 124.6566698
   1.6449992 122.8279978 136.6370014   1.8679992 122.4099978 137.4690014
   1.0429992 122.2159978 136.2140014   1.5941260 122.6879933 136.6937320
   8.6619992 122.3449978 138.8500014   8.3659992 122.1799978 137.9550014
   9.5929992 122.1249978 138.8390014   8.7473982 122.2926578 138.7260045
  13.2819992 127.7189978 136.7400014  12.3819992 127.9019978 136.4720014
  13.3159992 127.9779978 137.6610014  13.1632909 127.7790815 136.8277852
  19.0139992 119.9629978 125.1070014  18.4589992 119.5669978 124.4350014
  19.1139992 120.8739978 124.8290014  18.9515888 120.0318990 124.9775206
  18.9769992 125.7639978 137.9440014  18.1259992 126.0019978 137.5770014
  19.5669992 125.7469978 137.1910014  18.9402408 125.7942966 137.7918879
  17.3089992 128.7489978 125.5720014  16.9359992 127.9239978 125.8810014
  17.5859992 128.5659978 124.6750014  17.2953871 128.6112441 125.4929677
  14.4689992 123.5569978 132.5930014  13.5409992 123.3259978 132.5660014
  14.9199992 122.7799978 132.2630014  14.4028165 123.4202774 132.5446790
   7.0119992 127.8859978 128.7260014   7.5399992 128.6589978 128.5260014
   6.1319992 128.1099978 128.4250014   6.9653176 128.0223161 128.6578409
   2.7669992 122.7479978 123.3140014   3.3829992 123.3749978 123.6930014
   1.9049992 123.0639978 123.5850014   2.7348195 122.8765798 123.4025386
   8.4399992 125.5489978 128.3030014   8.1989992 126.4739978 128.3440014
   7.6989992 125.0899978 128.6990014   8.3068390 125.6136403 128.3621404
   8.9539992 129.6979978 134.6180014   9.3169992 130.5519978 134.3840014
   9.4859992 129.4059978 135.3580014   9.0756090 129.7754058 134.6860219
   7.1229992 130.5699978 127.8480014   6.1729992 130.6759978 127.8990014
   7.4749992 131.3909978 128.1930014   7.0405480 130.6954438 127.9015999
  12.4979992 125.7969978 134.3180014  12.0729992 125.5689978 135.1450014
  13.0789992 125.0579978 134.1360014  12.5183930 125.6659843 134.4064732
  14.7009992 126.7259978 123.3920014  15.0549992 126.3459978 124.1970014
  13.7529992 126.6319978 123.4790014  14.6211820 126.6613092 123.5138714
  15.1569992 130.3489978 136.7880014  14.5549992 129.7929978 136.2920014
  15.4379992 131.0159978 136.1620014  15.1126829 130.3631613 136.6355443
  19.2049992 131.2049978 123.5930014  19.9489992 131.7909978 123.4530014
  18.5109992 131.7739978 123.9270014  19.2130201 131.3620603 123.6189772
   3.2789992 117.5819978 136.1950014   2.3869992 117.9199978 136.1280014
   3.1809992 116.7259978 136.6130014   3.1434965 117.5126499 136.2423044
  15.5669992 125.3979978 125.6190014  15.2899992 124.6699978 126.1750014
  16.4949992 125.5169978 125.8240014  15.6544499 125.3144213 125.7228044
   2.9309992 129.3859978 134.6300014   3.1479992 128.4539978 134.5990014
   3.1769992 129.6609978 135.5130014   2.9939809 129.2955686 134.7451691
   8.7919992 127.8379978 121.8390014   9.0309992 127.0889978 121.2920014
   8.5229992 127.4499978 122.6720014   8.7883233 127.6831853 121.8767809
   7.7289992 127.4079978 124.2960014   7.8759992 126.8879978 125.0860014
   7.7259992 128.3149978 124.6020014   7.7487300 127.4593964 124.4455895
   4.1819992 124.6599978 124.8060014   3.4959992 125.0129978 125.3730014
   4.7049992 125.4229978 124.5600014   4.1589033 124.8113746 124.8502661
  12.0139992 117.3229978 135.0850014  12.7129992 117.3969978 135.7350014
  11.6329992 116.4579978 135.2390014  12.0582097 117.2162389 135.1947997
  12.7979992 116.9749978 126.1820014  13.0179992 117.4459978 125.3790014
  13.3569992 117.3689978 126.8520014  12.9036730 117.0927432 126.1625906
  10.4669992 129.1049978 125.0450014   9.6499992 129.6019978 125.0970014
  10.9959992 129.5809978 124.4050014  10.4268508 129.2372543 124.9656035
   9.9979992 118.7029978 127.0170014  10.8099992 119.2069978 127.0630014
   9.7539992 118.5579978 127.9310014  10.0761467 118.7523749 127.1468575
  10.5339992 119.6889978 136.2020014  10.6529992 120.2629978 136.9590014
  11.1889992 119.0009978 136.3160014  10.6389146 119.6745574 136.3211314
  10.8819992 115.7839978 127.9550014  10.5349992 116.4009978 128.6000014
  11.5409992 116.2849978 127.4740014  10.9235949 115.9361099 127.9782271
   7.8049992 130.1489978 125.0270014   7.9659992 130.9489978 124.5260014
   7.6079992 130.4559978 125.9120014   7.8003919 130.2999129 125.0781006
   6.5399992 116.8469978 124.6420014   6.4559992 117.7349978 124.9890014
   7.4299992 116.5819978 124.8740014   6.6488163 116.9327179 124.7208596
  16.7379992 117.5959978 137.0370014  15.8219992 117.8579978 136.9490014
  17.0739992 117.5929978 136.1400014  16.6579789 117.6314626 136.9037847
  15.3409992 121.3459978 131.1320014  14.5429992 120.9309978 130.8040014
  15.7859992 120.6559978 131.6230014  15.2919684 121.1958628 131.1535227
   4.7979992 127.2739978 123.7030014   5.3899992 127.9739978 123.9790014
   5.2569992 126.8409978 122.9830014   4.9410791 127.3112908 123.6434607
   3.1139992 119.9389978 122.8190014   3.0689992 120.8779978 122.9970014
   2.2259992 119.7029978 122.5490014   2.9878555 120.0356874 122.8068939
  16.4269992 130.6019978 132.7550014  16.2709992 131.2809978 132.0980014
  17.3599992 130.6739978 132.9580014  16.5317387 130.7046390 132.6925342
   3.9219992 114.7199978 131.4920014   3.6929992 114.7789978 130.5640014
   3.4799992 113.9289978 131.7980014   3.8308801 114.6210540 131.4064729
   2.8529992 128.6609978 127.6520014   2.0199992 129.1329978 127.6800014
   3.3979992 129.1709978 127.0540014   2.8127590 128.7945897 127.5749194
   2.1409992 131.2729978 138.9820014   2.6809992 131.0569978 139.7420014
   1.6599992 130.4679978 138.7930014   2.1498613 131.1345400 139.0604782
   6.7379992 130.1929978 140.6030014   7.5059992 129.7339978 140.9440014
   6.7169992 129.9669978 139.6730014   6.8402135 130.0996668 140.5239491
  10.8299992 129.7009978 121.9780014  10.1859992 129.0699978 122.2990014
  11.5919992 129.1699978 121.7460014  10.8448058 129.5427902 121.9906038
  13.3149992 128.5729978 139.3320014  12.9639992 127.7159978 139.5750014
  14.0409992 128.7149978 139.9390014  13.3651590 128.4750178 139.4472907
  15.4349992 129.5179978 122.2120014  15.7179992 128.7229978 122.6640014
  16.1739992 129.7509978 121.6510014  15.5736956 129.4407031 122.1979822
   2.0479992 125.0839978 139.9370014   2.1919992 124.1819978 139.6500014
   1.2759992 125.3699978 139.4490014   1.9633303 124.9993243 139.8317908
   6.3889992 125.4269978 122.0690014   6.4539992 124.6329978 122.6000014
   7.0419992 125.3089978 121.3790014   6.4861754 125.3023337 122.0484259
   8.7029992 125.0529978 139.3690014   8.3749992 125.3239978 138.5120014
   8.8549992 124.1119978 139.2820014   8.6786030 124.9628973 139.2397945
  11.7419992 126.4739978 121.8050014  11.4729992 126.6549978 122.7060014
  11.5349992 125.5489978 121.6740014  11.6772000 126.3736774 121.9105693
  14.4379992 124.9689978 136.7530014  15.1829992 125.5579978 136.6330014
  13.6809992 125.5509978 136.8160014  14.4375205 125.1281997 136.7451119
   2.8809992 122.2839978 139.3570014   3.2889992 121.4269978 139.2360014
   2.6199992 122.2979978 140.2780014   2.9016016 122.1685119 139.4649192
   7.5389992 123.3999978 124.3750014   7.0789992 122.9159978 125.0610014
   7.7939992 122.7309978 123.7390014   7.5105038 123.2433689 124.3829447
   6.8279992 121.2929978 136.7310014   6.2089992 121.9669978 137.0110014
   7.1719992 121.6139978 135.8980014   6.7897605 121.4287198 136.6566707
   8.6099992 121.6429978 122.6370014   8.4289992 121.4879978 121.7100014
   9.5599992 121.7509978 122.6820014   8.7136566 121.6363669 122.5160929
  11.8469992 123.7639978 140.0080014  12.8009992 123.8479978 139.9810014
  11.6869992 123.0519978 140.6280014  11.9557182 123.6792842 140.0880733
  17.9999992 123.9969978 122.0830014  17.7259992 123.5729978 121.2700014
  18.0389992 124.9289978 121.8660014  17.9677716 124.0648827 121.9424286
   7.1669992 118.6479978 137.8130014   7.3169992 117.9189978 137.2110014
   7.1689992 119.4249978 137.2540014   7.1877967 118.6532708 137.6550541
   7.5799992 117.0169978 135.3060014   8.1149992 117.4689978 134.6540014
   6.7269992 116.9089978 134.8830014   7.5380374 117.0642665 135.1596710
   9.1609992 122.4569978 135.5450014   9.9119992 122.3009978 134.9720014
   8.8219992 123.3089978 135.2700014   9.2179587 122.5508138 135.4294078
  13.5769992 120.2719978 140.5740014  13.7689992 119.3409978 140.4620014
  14.4349992 120.6969978 140.5640014  13.7192269 120.2019928 140.5573192
  14.8939992 123.0609978 138.6510014  14.6119992 123.7699978 138.0740014
  15.8359992 122.9879978 138.5000014  14.9827656 123.1483128 138.5514809
   5.6459992 119.8459978 139.7250014   4.8779992 119.3129978 139.5150014
   6.3239992 119.5359978 139.1250014   5.6326973 119.7312375 139.6151796
   8.3849992 114.4739978 135.7370014   8.2869992 115.4199978 135.6320014
   7.6429992 114.1009978 135.2620014   8.2711913 114.5531813 135.6583539
   9.6489992 118.7949978 139.3010014   9.4139992 118.5759978 140.2030014
   8.8659992 118.5879978 138.7910014   9.5109219 118.7370066 139.3555852
  12.3649992 117.9229978 138.3770014  11.4169992 117.9549978 138.5090014
  12.6769992 117.2969978 139.0300014  12.2775190 117.8427262 138.4833564
  13.9989992 116.5569978 140.3820014  13.9019992 115.6049978 140.3760014
  13.6769992 116.8249978 141.2420014  13.9421761 116.4629744 140.4974936
   3.8259992 117.7659978 139.4290014   4.0379992 117.0599978 138.8190014
   3.7149992 117.3289978 140.2730014   3.8400269 117.6101921 139.4595873
   8.6069992 113.7679978 138.4090014   9.3189992 113.1279978 138.3950014
   8.5059992 114.0339978 137.4950014   8.6907261 113.7164190 138.2835537
   8.9609992 115.4499978 140.4620014   8.8289992 114.9749978 139.6420014
   8.3609992 116.1949978 140.4070014   8.8619070 115.4855789 140.3423251
   8.5069992 132.3329978 123.6390014   9.4399992 132.4909978 123.7820014
   8.2429992 133.0089978 123.0140014   8.5989308 132.4459104 123.5741396
   2.0749992 126.9699978 123.1210014   2.9889992 127.0489978 123.3950014
   2.0829992 126.2829978 122.4550014   2.2011143 126.8879085 123.0684274
   0.7239992 132.3629978 128.1990014   0.0769992 131.9009978 127.6660014
   1.0789992 131.6909978 128.7810014   0.6834506 132.2089503 128.2047341
   1.5939992 130.4429978 130.0030014   1.2599992 129.5629978 130.1750014
   1.8169992 130.7889978 130.8680014   1.5783721 130.3691938 130.1434168
  19.1429992 131.2529978 132.9840014  19.1209992 131.4379978 133.9230014
  19.8329992 131.8209978 132.6430014  19.2333439 131.3551887 133.0664791
  18.7059992 130.8199978 135.9060014  18.2189992 130.0849978 135.5350014
  19.2549992 130.4259978 136.5840014  18.7135247 130.6661057 135.9468461
  17.1569992 126.6099978 140.5440014  16.2909992 126.5049978 140.9380014
  17.5329992 127.3679978 140.9900014  17.0893401 126.6981708 140.6582620
  18.4579992 124.8659978 126.0580014  19.3079992 125.2869978 126.1850014
  18.4629992 124.1259978 126.6650014  18.5751143 124.8236094 126.1574750
  18.8519992 122.9199978 127.8820014  18.1259992 122.4399978 128.2790014
  19.4339992 123.1249978 128.6140014  18.8311635 122.8819166 128.0353748
  18.6109992 125.7049978 132.8290014  19.4449992 125.3269978 132.5490014
  18.7229992 126.6479978 132.7100014  18.7402522 125.7807742 132.7746020
  17.0979992 128.5829978 135.1360014  16.4499992 128.9079978 135.7620014
  16.5799992 128.1419978 134.4620014  16.9394168 128.5678523 135.1305307
  19.1209992 122.8209978 124.2730014  18.5989992 123.1769978 123.5540014
  19.0879992 123.4959978 124.9510014  19.0450699 122.9609848 124.2662129
  17.4699992 120.0599978 122.8240014  17.5659992 120.7269978 122.1440014
  17.3299992 119.2449978 122.3420014  17.4642063 120.0410667 122.6658377
  16.6389992 121.4409978 128.4450014  16.4889992 120.4959978 128.4240014
  16.2849992 121.7219978 129.2880014  16.5705527 121.3495605 128.5561859
   1.6739992 123.5189978 132.4550014   1.8589992 123.4369978 131.5190014
   2.5239992 123.3949978 132.8790014   1.8140916 123.4910393 132.3842896
  17.4949992 123.4109978 138.0830014  18.0779992 122.6759978 138.2750014
  18.0589992 124.1829978 138.1300014  17.6509781 123.4148145 138.1156164
  18.9919992 121.3139978 138.7680014  18.1289992 120.9349978 138.6020014
  19.5959992 120.5749978 138.6940014  18.9555944 121.1622978 138.7352984
  16.7169992 117.4679978 121.9410014  17.3279992 117.0969978 122.5780014
  15.8799992 117.0469978 122.1370014  16.6874947 117.3602756 122.0547252
  16.3499992 119.0229978 126.9070014  16.6289992 118.1159978 127.0310014
  17.1089992 119.4569978 126.5180014  16.4908619 118.9574502 126.8713795
  16.9609992 119.6049978 132.3430014  17.8939992 119.8169978 132.3090014
  16.7259992 119.7059978 133.2650014  17.0568308 119.6476503 132.4630214
  16.9909992 120.3419978 135.1190014  16.1479992 120.6099978 135.4850014
  17.4329992 121.1639978 134.9080014  16.9354138 120.4898273 135.1405518
   1.2719992 118.7889978 138.5960014   2.1909992 118.6669978 138.8320014
   0.8219992 118.0389978 138.9850014   1.3371148 118.6708751 138.6809408
  19.2739992 114.3219978 140.4720014  19.6229992 113.6679978 139.8670014
  19.4209992 115.1589978 140.0330014  19.3417355 114.3456067 140.3296564
  16.9629992 116.2859978 126.9550014  17.1449992 115.8369978 127.7810014
  16.3629992 115.7019978 126.4920014  16.9067529 116.1456131 127.0053619
   2.4929992 117.1019978 131.4870014   2.9379992 116.3099978 131.7890014
   2.9589992 117.8179978 131.9180014   2.6169059 117.0904474 131.5866079
   0.7969992 120.1009978 132.5560014   1.2889992 119.8799978 131.7650014
   1.1589992 120.9409978 132.8370014   0.9132923 120.1843468 132.4857407
  18.7929992 116.4309978 138.8220014  17.8759992 116.7019978 138.7860014
  18.9159992 115.8959978 138.0380014  18.6840828 116.3957700 138.7110785
  18.8299992 116.3539978 123.4830014  19.2419992 115.6329978 123.0080014
  19.5109992 117.0229978 123.5420014  18.9785900 116.3457306 123.4259038
   1.1109992 116.3589978 126.6100014   0.1859992 116.5669978 126.4810014
   1.5649992 116.8429978 125.9210014   1.0456374 116.4529949 126.4990957
  15.8809992 131.3429978 128.5560014  16.5339992 130.9949978 127.9480014
  16.3919992 131.8309978 129.2020014  16.0392777 131.3613815 128.5602047
   1.0739992 115.0969978 134.9550014   0.4089992 114.8509978 135.5980014
   0.6309992 115.7189978 134.3770014   0.9230937 115.1473614 134.9649379
   3.2659992 128.2719978 139.0990014   2.4449992 128.4469978 138.6390014
   3.0139992 128.1989978 140.0200014   3.1196173 128.2860794 139.1604972
   6.2199992 129.2459978 135.3580014   5.7959992 130.0559978 135.0750014
   7.1249992 129.3319978 135.0560014   6.2842433 129.3683331 135.2785377
  10.5319992 130.6449978 138.3170014  10.7159992 130.3119978 139.1950014
  11.3779992 130.9549978 137.9950014  10.6716484 130.6412979 138.3937617
  12.8769992 131.9309978 137.5610014  13.5539992 131.2979978 137.3210014
  13.1979992 132.3319978 138.3680014  13.0131323 131.8985691 137.6373158
  17.7939992 114.5209978 136.6410014  16.9809992 114.8459978 136.2530014
  18.0269992 113.7599978 136.1080014  17.7142566 114.4626559 136.5159213
   3.6219992 132.5029978 135.4050014   2.9019992 132.9429978 134.9540014
   3.2569992 132.2519978 136.2540014   3.4739796 132.5293824 135.4579329
   6.0889992 132.1029978 134.4350014   5.2249992 132.1749978 134.8390014
   6.0339992 132.6499978 133.6510014   5.9631942 132.1867849 134.3844000
  10.7999992 131.9909978 133.6100014  10.3429992 132.5199978 132.9560014
  10.9629992 132.5939978 134.3360014  10.7594476 132.1449140 133.6185499
  13.1279992 130.8689978 134.5550014  12.2229992 131.0339978 134.2900014
  13.5559992 131.7219978 134.4900014  13.0620700 131.0069529 134.5099520
  15.7319992 132.4389978 134.8500014  15.5499992 133.3549978 134.6400014
  15.9089992 132.0279978 134.0040014  15.7309907 132.5089741 134.7067883
   3.0369992 131.1259978 132.3150014   3.0189992 130.6999978 133.1730014
   3.8419992 130.8069978 131.9070014   3.1433221 131.0247233 132.3770225
   5.1779992 129.8359978 130.9700014   4.9589992 128.9189978 131.1400014
   6.0019992 129.9759978 131.4360014   5.2594702 129.7295511 131.0562527
   7.7149992 130.3059978 131.8190014   7.9279992 129.4179978 131.5320014
   7.7799992 130.2709978 132.7740014   7.7529075 130.1798307 131.9087373
  11.2239992 115.9699978 130.9630014  10.5499992 115.3399978 131.2190014
  11.7879992 115.4859978 130.3600014  11.2080384 115.8183708 130.9165020
  16.3669992 114.0769978 131.0760014  16.9699992 114.6249978 130.5740014
  15.4969992 114.3959978 130.8360014  16.3319190 114.1951041 130.9748679
  18.0939992 115.2159978 129.4090014  18.7049992 114.7019978 128.8830014
  18.4759992 116.0929978 129.4330014  18.2294475 115.2641323 129.3401208
   3.5509992 114.6039978 128.7850014   2.7739992 114.3689978 128.2780014
   4.0809992 113.8069978 128.7940014   3.5163451 114.4641268 128.7168627
   2.3869992 114.4019978 124.5890014   2.8259992 115.0129978 123.9970014
   1.7529992 114.9399978 125.0630014   2.3613859 114.5584064 124.5720305
   8.1299992 114.5299978 128.5990014   9.0039992 114.9189978 128.5690014
   7.9939992 114.3149978 129.5210014   8.2313207 114.5541923 128.7196509
  13.6869992 114.5599978 130.2480014  13.7629992 114.6559978 129.2990014
  13.4119992 113.6529978 130.3770014  13.6602042 114.4504241 130.1353811
  15.0399992 114.5859978 125.9400014  14.3369992 115.2009978 125.7310014
  14.5949992 113.7489978 126.0720014  14.8836292 114.5570085 125.9292439
   2.2879992 130.3499978 125.4870014   1.6029992 130.3119978 124.8190014
   2.2919992 131.2629978 125.7750014   2.1948174 130.4681998 125.4345310
   4.2479992 116.3179978 123.0310014   4.7389992 115.6879978 122.5040014
   4.8709992 116.6139978 123.6950014   4.3995062 116.2716770 123.0485438
   9.2739992 116.6109978 125.4890014   9.4519992 115.9639978 126.1710014
   9.2199992 117.4449978 125.9560014   9.2911025 116.6350504 125.6456433
  11.1519992 131.5589978 123.8840014  12.0179992 131.9259978 123.7060014
  10.9059992 131.1199978 123.0700014  11.2372097 131.5498525 123.7496019
  17.8609992 131.1219978 126.5630014  17.6669992 130.3739978 125.9980014
  17.8219992 131.8799978 125.9800014  17.8291645 131.1220786 126.4068148
   3.5079992 115.1179978 138.3030014   3.1419992 114.3519978 138.7460014
   4.4209992 115.1469978 138.5900014   3.5813225 115.0171906 138.4023459
   5.4809992 114.4679978 139.8390014   6.3799992 114.1939978 139.6540014
   5.0949992 113.7259978 140.3030014   5.5517237 114.3301508 139.8764710
   4.1059992 131.2699978 122.5120014   3.8379992 131.5559978 123.3850014
   4.8769992 130.7239978 122.6640014   4.1735600 131.2353330 122.6521499
  13.9029992 113.8009978 140.0210014  13.9789992 113.3749978 140.8750014
  14.7959992 113.8139978 139.6780014  14.0342267 113.7443952 140.0915932
  17.0789992 129.8739978 138.7130014  16.2969992 129.6869978 138.1940014
  17.0069992 130.8029978 138.9310014  16.9620863 129.9740221 138.6713574
  31.4849992 123.7599978 128.7440014  31.5739992 124.7039978 128.6120014
  30.8469992 123.4849978 128.0860014  31.4109062 123.8519812 128.6369641
  30.4179992 123.0149978 132.1630014  30.3799992 122.3689978 132.8680014
  30.0959992 122.5479978 131.3920014  30.3692679 122.8634276 132.1552921
  22.7859992 122.6289978 133.7560014  22.8279992 122.0039978 134.4790014
  23.4889992 123.2529978 133.9380014  22.8867345 122.6277873 133.8795274
  34.1239992 125.9539978 130.4650014  33.6829992 125.2339978 130.9150014
  34.1109992 126.6749978 131.0940014  34.0617960 125.9528329 130.6117567
  23.7099992 127.0789978 132.2910014  23.3399992 126.2769978 131.9210014
  24.6509992 126.9109978 132.3370014  23.7865984 126.9464638 132.2465603
  20.3199992 120.7389978 127.6840014  19.8719992 121.5849978 127.6650014
  19.7589992 120.1599978 127.1680014  20.1829603 120.7763674 127.6116720
  21.0299992 122.9009978 129.8100014  21.2439992 122.1309978 130.3370014
  21.7679992 122.9909978 129.2060014  21.1589652 122.8078012 129.8005212
  31.2359992 131.0579978 130.6770014  31.8549992 130.3819978 130.4030014
  31.0269992 130.8399978 131.5850014  31.2926232 130.9357938 130.7622517
  28.8069992 125.4469978 132.5690014  29.1109992 124.7609978 131.9750014
  29.5289992 125.5659978 133.1870014  28.9461152 125.3692189 132.5712123
  37.4699992 117.0489978 133.4300014  37.5199992 117.6589978 134.1660014
  37.8959992 117.5099978 132.7070014  37.5344108 117.1947709 133.4330112
  31.9479992 119.8409978 132.8970014  32.0909992 118.8949978 132.9170014
  31.8419992 120.0479978 131.9680014  31.9532509 119.7394813 132.7742231
  25.1029992 117.9429978 130.1690014  25.1459992 118.8029978 129.7510014
  24.6449992 117.3909978 129.5350014  25.0469815 117.9860621 130.0261197
  32.8249992 118.0739978 128.5700014  33.4719992 117.7449978 129.1950014
  33.3349992 118.5909978 127.9470014  32.9824317 118.0989227 128.5712167
  21.7229992 120.3399978 130.9310014  22.3769992 119.7899978 131.3630014
  21.7469992 120.0659978 130.0140014  21.8157199 120.2277167 130.8661668
  26.8799992 121.8899978 130.1460014  27.4959992 121.3629978 130.6560014
  26.2929992 121.2499978 129.7430014  26.8849239 121.7314117 130.1612952
  37.8619992 118.5269978 135.6660014  37.1729992 119.1849978 135.5700014
  37.8769992 118.3289978 136.6020014  37.7696740 118.5903243 135.7794630
  23.9129992 116.8609978 134.2430014  23.6939992 117.3909978 133.4770014
  23.2449992 117.0869978 134.8900014  23.7927001 116.9641154 134.2256064
  31.2819992 126.3609978 127.7870014  30.9869992 126.0379978 126.9360014
  30.9579992 127.2609978 127.8280014  31.1977983 126.4384026 127.6759771
  26.4819992 124.5359978 134.5310014  25.7419992 125.1349978 134.6340014
  27.1959992 125.0899978 134.2150014  26.4773288 124.6927356 134.5023805
  34.5889992 117.3649978 130.5500014  34.3739992 116.5989978 131.0830014
  35.2449992 117.8369978 131.0630014  34.6482673 117.3240728 130.6921990
  23.5069992 118.7529978 132.1950014  24.1209992 119.3859978 132.5690014
  24.0189992 118.2809978 131.5390014  23.6602277 118.7757352 132.1574279
  24.8899992 126.5009978 135.3180014  24.8839992 127.3799978 134.9400014
  24.0359992 126.4169978 135.7430014  24.7737925 126.6099535 135.3236887
  21.0109992 126.1719978 126.1000014  20.7389992 126.4009978 125.2110014
  21.0559992 127.0089978 126.5600014  20.9798709 126.3166058 126.0406107
  34.6359992 127.7929978 132.8120014  33.6939992 127.8519978 132.9740014
  34.9119992 128.6989978 132.6750014  34.5445865 127.9235288 132.8156192
  34.9359992 116.0799978 134.2300014  34.1999992 116.6899978 134.1920014
  35.6199992 116.4949978 133.7030014  34.9275506 116.2196400 134.1536051
  27.9399992 114.1659978 131.6960014  27.8219992 113.2179978 131.6410014
  27.0849992 114.4989978 131.9690014  27.8082679 114.0811926 131.7253720
  32.8879992 129.5739978 129.4380014  33.3129992 128.8669978 128.9530014
  33.2049992 130.3759978 129.0210014  32.9890266 129.5855190 129.3152479
  34.0479992 127.4749978 127.9460014  33.7899992 126.7849978 127.3350014
  34.1189992 127.0319978 128.7920014  34.0222837 127.3207106 127.9766912
  35.7339992 126.0419978 136.4240014  35.8729992 125.4499978 135.6840014
  35.9009992 126.9149978 136.0670014  35.7755562 126.0789896 136.2746283
  30.2059992 123.0039978 126.1960014  29.4949992 123.5389978 125.8440014
  30.8969992 123.0589978 125.5360014  30.2020751 123.0846777 126.0585858
  30.2599992 121.4609978 123.2350014  30.9609992 121.4839978 123.8860014
  30.5619992 120.8329978 122.5790014  30.3968282 121.3792339 123.2354496
  37.5749992 122.3819978 134.4900014  36.9229992 123.0759978 134.5790014
  38.0409992 122.5919978 133.6800014  37.5485937 122.5055019 134.3927533
  33.6119992 123.2129978 127.1480014  32.8799992 123.4419978 127.7210014
  34.0589992 122.4999978 127.6030014  33.5722753 123.1478972 127.2879715
  33.5089992 121.3879978 136.2160014  33.5889992 122.1509978 136.7870014
  32.9079992 121.6669978 135.5250014  33.4387245 121.5302630 136.2008424
  25.2569992 123.8439978 129.0300014  24.9269992 123.4729978 128.2120014
  25.8459992 123.1729978 129.3770014  25.2913970 123.7026063 128.9649404
  26.6239992 127.2719978 131.7120014  26.5289992 126.6929978 130.9550014
  27.3529992 126.9009978 132.2080014  26.7096161 127.1425891 131.6755209
  25.6239992 122.6119978 132.6640014  26.1889992 122.7339978 131.9010014
  25.9429992 123.2499978 133.3030014  25.7443977 122.7148851 132.6459424
  31.9329992 128.1159978 133.3980014  31.6929992 128.7779978 134.0460014
  31.7349992 127.2809978 133.8230014  31.8733826 128.0938115 133.5441566
  26.5039992 127.0119978 137.3810014  26.1929992 127.7939978 137.8360014
  25.8539992 126.8589978 136.6950014  26.3735538 127.0984087 137.3505898
  32.4829992 122.3759978 124.8330014  33.0619992 122.5259978 125.5800014
  32.8969992 122.8459978 124.1100014  32.6183122 122.4601277 124.8375042
  23.4239992 123.2099978 136.6100014  23.4939992 123.8609978 137.3080014
  22.5329992 123.3129978 136.2750014  23.3131802 123.3129757 136.6602249
  30.2089992 129.1119978 128.2680014  30.6829992 129.4079978 129.0460014
  29.6459992 129.8509978 128.0350014  30.1977361 129.2522721 128.3428611
  24.7429992 129.0829978 138.1440014  24.7509992 128.9469978 137.1970014
  23.8269992 128.9659978 138.3960014  24.6202528 129.0485463 138.0483243
  36.1819992 114.1259978 124.6460014  35.2819992 114.2649978 124.9410014
  36.4339992 114.9569978 124.2440014  36.0928683 114.2574055 124.6320232
  24.2479992 122.9129978 126.6200014  23.9559992 123.6809978 126.1290014
  23.5729992 122.2539978 126.4570014  24.1168497 122.9289745 126.5308260
  37.3709992 128.4919978 123.0220014  37.4439992 129.4309978 123.1930014
  38.2759992 128.1869978 122.9660014  37.5034158 128.5793061 123.0378392
  20.3409992 125.2759978 135.4350014  19.8389992 125.2479978 134.6200014
  20.3459992 124.3709978 135.7440014  20.2730416 125.1497368 135.3653766
  20.0909992 128.0569978 132.3190014  21.0369992 127.9119978 132.3000014
  19.9779992 128.8409978 132.8560014  20.2053578 128.1431697 132.3890317
  38.2889992 128.7229978 138.0010014  38.2389992 127.7669978 137.9640014
  37.4619992 128.9899978 138.4020014  38.1703987 128.6285174 138.0501446
  29.2669992 128.2969978 136.8770014  29.3549992 129.1229978 137.3520014
  28.4039992 127.9669978 137.1260014  29.1623357 128.3655468 136.9757653
  29.6819992 132.0689978 126.6830014  29.6059992 131.9479978 125.7370014
  29.7139992 133.0179978 126.8020014  29.6759156 132.1807530 126.5695048
  23.3349992 130.8579978 128.4640014  23.4869992 130.5099978 129.3430014
  22.4839992 130.5009978 128.2090014  23.2407899 130.7621738 128.5497340
  32.7829992 131.2229978 123.6850014  33.1579992 130.4789978 123.2150014
  32.7879992 130.9529978 124.6040014  32.8350024 131.0846950 123.7447987
  32.4519992 131.1489978 126.4350014  31.5169992 131.2489978 126.6130014
  32.7319992 130.4389978 127.0130014  32.3618173 131.0667239 126.5374998
  35.4409992 120.2159978 138.4810014  35.0329992 120.6959978 137.7610014
  35.4809992 119.3099978 138.1730014  35.3905476 120.1593160 138.3408247
  22.5899992 126.5999978 136.4780014  22.8059992 126.2379978 137.3370014
  21.7339992 126.2249978 136.2680014  22.5039354 126.4997906 136.5672160
  25.2079992 115.0699978 132.4730014  24.3469992 114.9829978 132.0660014
  25.1859992 115.9259978 132.9010014  25.0870411 115.1737884 132.4750857
  29.8709992 114.7919978 135.8480014  30.2909992 114.3769978 136.6010014
  28.9379992 114.6129978 135.9650014  29.8023736 114.7109910 135.9668968
  33.1979992 118.5469978 136.7010014  32.6839992 118.4219978 137.4990014
  33.0419992 119.4599978 136.4570014  33.1066967 118.6532123 136.7770937
  33.9599992 123.4079978 122.4630014  34.0019992 123.1859978 121.5330014
  34.8089992 123.8069978 122.6530014  34.0805253 123.4315498 122.3613822
  29.5329992 117.2839978 123.1330014  29.2789992 117.3029978 124.0560014
  29.2759992 116.4129978 122.8320014  29.4635133 117.1688110 123.2185082
  25.2989992 120.0349978 133.5680014  24.6579992 119.9949978 134.2770014
  25.3369992 120.9619978 133.3310014  25.2163670 120.1547795 133.6330550
  25.2959992 120.2559978 128.4800014  24.4039992 119.9159978 128.4220014
  25.7469992 119.8789978 127.7250014  25.2346815 120.1583762 128.3699203
  30.8319992 120.6719978 127.2970014  30.4229992 121.4869978 127.0060014
  31.5519992 120.5319978 126.6830014  30.8734013 120.7646571 127.1740875
  29.9339992 120.8479978 138.7850014  29.3709992 120.1429978 139.1060014
  30.7599992 120.7269978 139.2530014  29.9686674 120.7352165 138.8921751
  31.8369992 120.1179978 130.1110014  31.6409992 120.7239978 129.3960014
  32.0179992 119.2849978 129.6770014  31.8346584 120.0882513 129.9544212
  23.0489992 120.3559978 135.4350014  23.0109992 120.7559978 136.3040014
  22.5589992 119.5389978 135.5260014  22.9775621 120.3002510 135.5661377
  26.4149992 117.7299978 122.2340014  25.9839992 117.2849978 122.9640014
  25.6969992 118.1009978 121.7220014  26.2589363 117.7192968 122.2646211
  19.6579992 117.4719978 129.2860014  20.2879992 117.4429978 130.0050014
  20.1069992 117.0469978 128.5560014  19.8050692 117.4105316 129.2857771
  20.9319992 118.2179978 124.7100014  21.4059992 118.8089978 124.1250014
  20.2139992 118.7479978 125.0570014  20.8998640 118.3705511 124.6767969
  31.1009992 121.7559978 134.7830014  31.4239992 121.1249978 134.1400014
  30.6599992 121.2219978 135.4430014  31.0855789 121.5973522 134.7842232
  27.8779992 117.6839978 129.5670014  26.9669992 117.7409978 129.8550014
  28.3829992 117.6239978 130.3770014  27.8215387 117.6836870 129.7160646
  22.7059992 119.3129978 128.3930014  21.8169992 119.4119978 128.0530014
  23.0029992 118.4709978 128.0470014  22.6244177 119.2127687 128.2996940
  26.3589992 119.3129978 126.0500014  27.2909992 119.4419978 126.2280014
  26.1439992 119.9819978 125.4000014  26.4574472 119.4210806 125.9864891
  32.2829992 116.9189978 132.8310014  31.6059992 117.0499978 133.4950014
  31.7979992 116.7639978 132.0210014  32.1247265 116.9159659 132.8123397
  25.0329992 120.5069978 123.6170014  24.4909992 120.1279978 122.9250014
  25.8669992 120.7019978 123.1880014  25.0715159 120.4815076 123.4644419
  35.5709992 132.5899978 139.1080014  35.7699992 133.0139978 138.2730014
  36.2259992 132.9339978 139.7150014  35.6868501 132.6946091 139.0757097
  23.1689992 125.0639978 138.7160014  23.9009992 125.3189978 139.2770014
  22.3879992 125.2689978 139.2310014  23.1637684 125.1266468 138.8624782
  29.1979992 120.4709978 131.4540014  29.7619992 119.9249978 130.9070014
  29.0499992 119.9499978 132.2420014  29.2552575 120.3256552 131.4856987
  24.1999992 116.6079978 127.8720014  23.8829992 115.7049978 127.8370014
  24.9809992 116.6099978 127.3190014  24.2622307 116.4846951 127.7924314
  27.8239992 118.8599978 133.8680014  26.9889992 119.3139978 133.9780014
  28.3479992 119.1359978 134.6200014  27.7805070 118.9594666 133.9847152
  28.3689992 125.0729978 125.5520014  27.6239992 124.5649978 125.2300014
  28.2339992 125.1219978 126.4990014  28.2489047 125.0101596 125.6358845
  35.5189992 124.2059978 134.3390014  36.1599992 124.6619978 133.7950014
  34.6879992 124.3189978 133.8770014  35.4945171 124.2837502 134.2020237
  32.2659992 117.8869978 123.7520014  31.3279992 117.9979978 123.6000014
  32.5639992 118.7429978 124.0580014  32.1776402 118.0180621 123.7725571
  29.8879992 125.2569978 136.7890014  29.5419992 124.8749978 137.5960014
  29.6879992 126.1899978 136.8610014  29.8136523 125.3309095 136.9090735
  32.9849992 119.7539978 125.4120014  33.8769992 119.6159978 125.7310014
  33.0409992 120.5449978 124.8760014  33.1147107 119.8420526 125.3832091
  23.4929992 124.3679978 131.3220014  24.2379992 124.3649978 130.7210014
  23.5709992 123.5439978 131.8040014  23.6054158 124.2562916 131.3049153
  30.4939992 126.5309978 124.5780014  30.1989992 127.3579978 124.9590014
  29.7909992 125.9119978 124.7740014  30.3585471 126.5605227 124.6566698
  20.5009992 122.8279978 136.6370014  20.7239992 122.4099978 137.4690014
  19.8989992 122.2159978 136.2140014  20.4501260 122.6879933 136.6937320
  27.5179992 122.3449978 138.8500014  27.2219992 122.1799978 137.9550014
  28.4489992 122.1249978 138.8390014  27.6033982 122.2926578 138.7260045
  32.1379992 127.7189978 136.7400014  31.2379992 127.9019978 136.4720014
  32.1719992 127.9779978 137.6610014  32.0192909 127.7790815 136.8277852
  37.8699992 119.9629978 125.1070014  37.3149992 119.5669978 124.4350014
  37.9699992 120.8739978 124.8290014  37.8075888 120.0318990 124.9775206
  37.8329992 125.7639978 137.9440014  36.9819992 126.0019978 137.5770014
  38.4229992 125.7469978 137.1910014  37.7962408 125.7942966 137.7918879
  36.1649992 128.7489978 125.5720014  35.7919992 127.9239978 125.8810014
  36.4419992 128.5659978 124.6750014  36.1513871 128.6112441 125.4929677
  33.3249992 123.5569978 132.5930014  32.3969992 123.3259978 132.5660014
  33.7759992 122.7799978 132.2630014  33.2588165 123.4202774 132.5446790
  25.8679992 127.8859978 128.7260014  26.3959992 128.6589978 128.5260014
  24.9879992 128.1099978 128.4250014  25.8213176 128.0223161 128.6578409
  21.6229992 122.7479978 123.3140014  22.2389992 123.3749978 123.6930014
  20.7609992 123.0639978 123.5850014  21.5908195 122.8765798 123.4025386
  27.2959992 125.5489978 128.3030014  27.0549992 126.4739978 128.3440014
  26.5549992 125.0899978 128.6990014  27.1628390 125.6136403 128.3621404
  27.8099992 129.6979978 134.6180014  28.1729992 130.5519978 134.3840014
  28.3419992 129.4059978 135.3580014  27.9316090 129.7754058 134.6860219
  25.9789992 130.5699978 127.8480014  25.0289992 130.6759978 127.8990014
  26.3309992 131.3909978 128.1930014  25.8965480 130.6954438 127.9015999
  31.3539992 125.7969978 134.3180014  30.9289992 125.5689978 135.1450014
  31.9349992 125.0579978 134.1360014  31.3743930 125.6659843 134.4064732
  33.5569992 126.7259978 123.3920014  33.9109992 126.3459978 124.1970014
  32.6089992 126.6319978 123.4790014  33.4771820 126.6613092 123.5138714
  34.0129992 130.3489978 136.7880014  33.4109992 129.7929978 136.2920014
  34.2939992 131.0159978 136.1620014  33.9686829 130.3631613 136.6355443
  38.0609992 131.2049978 123.5930014  38.8049992 131.7909978 123.4530014
  37.3669992 131.7739978 123.9270014  38.0690201 131.3620603 123.6189772
  22.1349992 117.5819978 136.1950014  21.2429992 117.9199978 136.1280014
  22.0369992 116.7259978 136.6130014  21.9994965 117.5126499 136.2423044
  34.4229992 125.3979978 125.6190014  34.1459992 124.6699978 126.1750014
  35.3509992 125.5169978 125.8240014  34.5104499 125.3144213 125.7228044
  21.7869992 129.3859978 134.6300014  22.0039992 128.4539978 134.5990014
  22.0329992 129.6609978 135.5130014  21.8499809 129.2955686 134.7451691
  27.6479992 127.8379978 121.8390014  27.8869992 127.0889978 121.2920014
  27.3789992 127.4499978 122.6720014  27.6443233 127.6831853 121.8767809
  26.5849992 127.4079978 124.2960014  26.7319992 126.8879978 125.0860014
  26.5819992 128.3149978 124.6020014  26.6047300 127.4593964 124.4455895
  23.0379992 124.6599978 124.8060014  22.3519992 125.0129978 125.3730014
  23.5609992 125.4229978 124.5600014  23.0149033 124.8113746 124.8502661
  30.8699992 117.3229978 135.0850014  31.5689992 117.3969978 135.7350014
  30.4889992 116.4579978 135.2390014  30.9142097 117.2162389 135.1947997
  31.6539992 116.9749978 126.1820014  31.8739992 117.4459978 125.3790014
  32.2129992 117.3689978 126.8520014  31.7596730 117.0927432 126.1625906
  29.3229992 129.1049978 125.0450014  28.5059992 129.6019978 125.0970014
  29.8519992 129.5809978 124.4050014  29.2828508 129.2372543 124.9656035
  28.8539992 118.7029978 127.0170014  29.6659992 119.2069978 127.0630014
  28.6099992 118.5579978 127.9310014  28.9321467 118.7523749 127.1468575
  29.3899992 119.6889978 136.2020014  29.5089992 120.2629978 136.9590014
  30.0449992 119.0009978 136.3160014  29.4949146 119.6745574 136.3211314
  29.7379992 115.7839978 127.9550014  29.3909992 116.4009978 128.6000014
  30.3969992 116.2849978 127.4740014  29.7795949 115.9361099 127.9782271
  26.6609992 130.1489978 125.0270014  26.8219992 130.9489978 124.5260014
  26.4639992 130.4559978 125.9120014  26.6563919 130.2999129 125.0781006
  25.3959992 116.8469978 124.6420014  25.3119992 117.7349978 124.9890014
  26.2859992 116.5819978 124.8740014  25.5048163 116.9327179 124.7208596
  35.5939992 117.5959978 137.0370014  34.6779992 117.8579978 136.9490014
  35.9299992 117.5929978 136.1400014  35.5139789 117.6314626 136.9037847
  34.1969992 121.3459978 131.1320014  33.3989992 120.9309978 130.8040014
  34.6419992 120.6559978 131.6230014  34.1479684 121.1958628 131.1535227
  23.6539992 127.2739978 123.7030014  24.2459992 127.9739978 123.9790014
  24.1129992 126.8409978 122.9830014  23.7970791 127.3112908 123.6434607
  21.9699992 119.9389978 122.8190014  21.9249992 120.8779978 122.9970014
  21.0819992 119.7029978 122.5490014  21.8438555 120.0356874 122.8068939
  35.2829992 130.6019978 132.7550014  35.1269992 131.2809978 132.0980014
  36.2159992 130.6739978 132.9580014  35.3877387 130.7046390 132.6925342
  22.7779992 114.7199978 131.4920014  22.5489992 114.7789978 130.5640014
  22.3359992 113.9289978 131.7980014  22.6868801 114.6210540 131.4064729
  21.7089992 128.6609978 127.6520014  20.8759992 129.1329978 127.6800014
  22.2539992 129.1709978 127.0540014  21.6687590 128.7945897 127.5749194
  20.9969992 131.2729978 138.9820014  21.5369992 131.0569978 139.7420014
  20.5159992 130.4679978 138.7930014  21.0058613 131.1345400 139.0604782
  25.5939992 130.1929978 140.6030014  26.3619992 129.7339978 140.9440014
  25.5729992 129.9669978 139.6730014  25.6962135 130.0996668 140.5239491
  29.6859992 129.7009978 121.9780014  29.0419992 129.0699978 122.2990014
  30.4479992 129.1699978 121.7460014  29.7008058 129.5427902 121.9906038
  32.1709992 128.5729978 139.3320014  31.8199992 127.7159978 139.5750014
  32.8969992 128.7149978 139.9390014  32.2211590 128.4750178 139.4472907
  34.2909992 129.5179978 122.2120014  34.5739992 128.7229978 122.6640014
  35.0299992 129.7509978 121.6510014  34.4296956 129.4407031 122.1979822
  20.9039992 125.0839978 139.9370014  21.0479992 124.1819978 139.6500014
  20.1319992 125.3699978 139.4490014  20.8193303 124.9993243 139.8317908
  25.2449992 125.4269978 122.0690014  25.3099992 124.6329978 122.6000014
  25.8979992 125.3089978 121.3790014  25.3421754 125.3023337 122.0484259
  27.5589992 125.0529978 139.3690014  27.2309992 125.3239978 138.5120014
  27.7109992 124.1119978 139.2820014  27.5346030 124.9628973 139.2397945
  30.5979992 126.4739978 121.8050014  30.3289992 126.6549978 122.7060014
  30.3909992 125.5489978 121.6740014  30.5332000 126.3736774 121.9105693
  33.2939992 124.9689978 136.7530014  34.0389992 125.5579978 136.6330014
  32.5369992 125.5509978 136.8160014  33.2935205 125.1281997 136.7451119
  21.7369992 122.2839978 139.3570014  22.1449992 121.4269978 139.2360014
  21.4759992 122.2979978 140.2780014  21.7576016 122.1685119 139.4649192
  26.3949992 123.3999978 124.3750014  25.9349992 122.9159978 125.0610014
  26.6499992 122.7309978 123.7390014  26.3665038 123.2433689 124.3829447
  25.6839992 121.2929978 136.7310014  25.0649992 121.9669978 137.0110014
  26.0279992 121.6139978 135.8980014  25.6457605 121.4287198 136.6566707
  27.4659992 121.6429978 122.6370014  27.2849992 121.4879978 121.7100014
  28.4159992 121.7509978 122.6820014  27.5696566 121.6363669 122.5160929
  30.7029992 123.7639978 140.0080014  31.6569992 123.8479978 139.9810014
  30.5429992 123.0519978 140.6280014  30.8117182 123.6792842 140.0880733
  36.8559992 123.9969978 122.0830014  36.5819992 123.5729978 121.2700014
  36.8949992 124.9289978 121.8660014  36.8237716 124.0648827 121.9424286
  26.0229992 118.6479978 137.8130014  26.1729992 117.9189978 137.2110014
  26.0249992 119.4249978 137.2540014  26.0437967 118.6532708 137.6550541
  26.4359992 117.0169978 135.3060014  26.9709992 117.4689978 134.6540014
  25.5829992 116.9089978 134.8830014  26.3940374 117.0642665 135.1596710
  28.0169992 122.4569978 135.5450014  28.7679992 122.3009978 134.9720014
  27.6779992 123.3089978 135.2700014  28.0739587 122.5508138 135.4294078
  32.4329992 120.2719978 140.5740014  32.6249992 119.3409978 140.4620014
  33.2909992 120.6969978 140.5640014  32.5752269 120.2019928 140.5573192
  33.7499992 123.0609978 138.6510014  33.4679992 123.7699978 138.0740014
  34.6919992 122.9879978 138.5000014  33.8387656 123.1483128 138.5514809
  24.5019992 119.8459978 139.7250014  23.7339992 119.3129978 139.5150014
  25.1799992 119.5359978 139.1250014  24.4886973 119.7312375 139.6151796
  27.2409992 114.4739978 135.7370014  27.1429992 115.4199978 135.6320014
  26.4989992 114.1009978 135.2620014  27.1271913 114.5531813 135.6583539
  28.5049992 118.7949978 139.3010014  28.2699992 118.5759978 140.2030014
  27.7219992 118.5879978 138.7910014  28.3669219 118.7370066 139.3555852
  31.2209992 117.9229978 138.3770014  30.2729992 117.9549978 138.5090014
  31.5329992 117.2969978 139.0300014  31.1335190 117.8427262 138.4833563
  32.8549992 116.5569978 140.3820014  32.7579992 115.6049978 140.3760014
  32.5329992 116.8249978 141.2420014  32.7981761 116.4629744 140.4974936
  22.6819992 117.7659978 139.4290014  22.8939992 117.0599978 138.8190014
  22.5709992 117.3289978 140.2730014  22.6960269 117.6101921 139.4595873
  27.4629992 113.7679978 138.4090014  28.1749992 113.1279978 138.3950014
  27.3619992 114.0339978 137.4950014  27.5467261 113.7164190 138.2835537
  27.8169992 115.4499978 140.4620014  27.6849992 114.9749978 139.6420014
  27.2169992 116.1949978 140.4070014  27.7179070 115.4855789 140.3423251
  27.3629992 132.3329978 123.6390014  28.2959992 132.4909978 123.7820014
  27.0989992 133.0089978 123.0140014  27.4549308 132.4459104 123.5741396
  20.9309992 126.9699978 123.1210014  21.8449992 127.0489978 123.3950014
  20.9389992 126.2829978 122.4550014  21.0571143 126.8879085 123.0684274
  19.5799992 132.3629978 128.1990014  18.9329992 131.9009978 127.6660014
  19.9349992 131.6909978 128.7810014  19.5394506 132.2089503 128.2047341
  20.4499992 130.4429978 130.0030014  20.1159992 129.5629978 130.1750014
  20.6729992 130.7889978 130.8680014  20.4343721 130.3691938 130.1434168
  37.9989992 131.2529978 132.9840014  37.9769992 131.4379978 133.9230014
  38.6889992 131.8209978 132.6430014  38.0893439 131.3551887 133.0664791
  37.5619992 130.8199978 135.9060014  37.0749992 130.0849978 135.5350014
  38.1109992 130.4259978 136.5840014  37.5695247 130.6661057 135.9468461
  36.0129992 126.6099978 140.5440014  35.1469992 126.5049978 140.9380014
  36.3889992 127.3679978 140.9900014  35.9453401 126.6981708 140.6582620
  37.3139992 124.8659978 126.0580014  38.1639992 125.2869978 126.1850014
  37.3189992 124.1259978 126.6650014  37.4311143 124.8236094 126.1574750
  37.7079992 122.9199978 127.8820014  36.9819992 122.4399978 128.2790014
  38.2899992 123.1249978 128.6140014  37.6871635 122.8819166 128.0353748
  37.4669992 125.7049978 132.8290014  38.3009992 125.3269978 132.5490014
  37.5789992 126.6479978 132.7100014  37.5962522 125.7807742 132.7746020
  35.9539992 128.5829978 135.1360014  35.3059992 128.9079978 135.7620014
  35.4359992 128.1419978 134.4620014  35.7954168 128.5678523 135.1305307
  37.9769992 122.8209978 124.2730014  37.4549992 123.1769978 123.5540014
  37.9439992 123.4959978 124.9510014  37.9010699 122.9609848 124.2662129
  36.3259992 120.0599978 122.8240014  36.4219992 120.7269978 122.1440014
  36.1859992 119.2449978 122.3420014  36.3202063 120.0410667 122.6658377
  35.4949992 121.4409978 128.4450014  35.3449992 120.4959978 128.4240014
  35.1409992 121.7219978 129.2880014  35.4265527 121.3495605 128.5561859
  20.5299992 123.5189978 132.4550014  20.7149992 123.4369978 131.5190014
  21.3799992 123.3949978 132.8790014  20.6700916 123.4910393 132.3842896
  36.3509992 123.4109978 138.0830014  36.9339992 122.6759978 138.2750014
  36.9149992 124.1829978 138.1300014  36.5069781 123.4148145 138.1156164
  37.8479992 121.3139978 138.7680014  36.9849992 120.9349978 138.6020014
  38.4519992 120.5749978 138.6940014  37.8115944 121.1622978 138.7352984
  35.5729992 117.4679978 121.9410014  36.1839992 117.0969978 122.5780014
  34.7359992 117.0469978 122.1370014  35.5434947 117.3602756 122.0547252
  35.2059992 119.0229978 126.9070014  35.4849992 118.1159978 127.0310014
  35.9649992 119.4569978 126.5180014  35.3468619 118.9574502 126.8713795
  35.8169992 119.6049978 132.3430014  36.7499992 119.8169978 132.3090014
  35.5819992 119.7059978 133.2650014  35.9128308 119.6476503 132.4630214
  35.8469992 120.3419978 135.1190014  35.0039992 120.6099978 135.4850014
  36.2889992 121.1639978 134.9080014  35.7914138 120.4898273 135.1405518
  20.1279992 118.7889978 138.5960014  21.0469992 118.6669978 138.8320014
  19.6779992 118.0389978 138.9850014  20.1931148 118.6708751 138.6809408
  38.1299992 114.3219978 140.4720014  38.4789992 113.6679978 139.8670014
  38.2769992 115.1589978 140.0330014  38.1977355 114.3456067 140.3296564
  35.8189992 116.2859978 126.9550014  36.0009992 115.8369978 127.7810014
  35.2189992 115.7019978 126.4920014  35.7627529 116.1456131 127.0053619
  21.3489992 117.1019978 131.4870014  21.7939992 116.3099978 131.7890014
  21.8149992 117.8179978 131.9180014  21.4729059 117.0904474 131.5866079
  19.6529992 120.1009978 132.5560014  20.1449992 119.8799978 131.7650014
  20.0149992 120.9409978 132.8370014  19.7692923 120.1843468 132.4857407
  37.6489992 116.4309978 138.8220014  36.7319992 116.7019978 138.7860014
  37.7719992 115.8959978 138.0380014  37.5400828 116.3957700 138.7110785
  37.6859992 116.3539978 123.4830014  38.0979992 115.6329978 123.0080014
  38.3669992 117.0229978 123.5420014  37.8345900 116.3457306 123.4259038
  19.9669992 116.3589978 126.6100014  19.0419992 116.5669978 126.4810014
  20.4209992 116.8429978 125.9210014  19.9016374 116.4529949 126.4990957
  34.7369992 131.3429978 128.5560014  35.3899992 130.9949978 127.9480014
  35.2479992 131.8309978 129.2020014  34.8952777 131.3613815 128.5602047
  19.9299992 115.0969978 134.9550014  19.2649992 114.8509978 135.5980014
  19.4869992 115.7189978 134.3770014  19.7790937 115.1473614 134.9649379
  22.1219992 128.2719978 139.0990014  21.3009992 128.4469978 138.6390014
  21.8699992 128.1989978 140.0200014  21.9756173 128.2860794 139.1604972
  25.0759992 129.2459978 135.3580014  24.6519992 130.0559978 135.0750014
  25.9809992 129.3319978 135.0560014  25.1402433 129.3683331 135.2785377
  29.3879992 130.6449978 138.3170014  29.5719992 130.3119978 139.1950014
  30.2339992 130.9549978 137.9950014  29.5276484 130.6412979 138.3937617
  31.7329992 131.9309978 137.5610014  32.4099992 131.2979978 137.3210014
  32.0539992 132.3319978 138.3680014  31.8691323 131.8985691 137.6373158
  36.6499992 114.5209978 136.6410014  35.8369992 114.8459978 136.2530014
  36.8829992 113.7599978 136.1080014  36.5702566 114.4626559 136.5159213
  22.4779992 132.5029978 135.4050014  21.7579992 132.9429978 134.9540014
  22.1129992 132.2519978 136.2540014  22.3299796 132.5293824 135.4579329
  24.9449992 132.1029978 134.4350014  24.0809992 132.1749978 134.8390014
  24.8899992 132.6499978 133.6510014  24.8191942 132.1867849 134.3844000
  29.6559992 131.9909978 133.6100014  29.1989992 132.5199978 132.9560014
  29.8189992 132.5939978 134.3360014  29.6154476 132.1449140 133.6185499
  31.9839992 130.8689978 134.5550014  31.0789992 131.0339978 134.2900014
  32.4119992 131.7219978 134.4900014  31.9180700 131.0069529 134.5099520
  34.5879992 132.4389978 134.8500014  34.4059992 133.3549978 134.6400014
  34.7649992 132.0279978 134.0040014  34.5869907 132.5089741 134.7067883
  21.8929992 131.1259978 132.3150014  21.8749992 130.6999978 133.1730014
  22.6979992 130.8069978 131.9070014  21.9993221 131.0247233 132.3770225
  24.0339992 129.8359978 130.9700014  23.8149992 128.9189978 131.1400014
  24.8579992 129.9759978 131.4360014  24.1154702 129.7295511 131.0562527
  26.5709992 130.3059978 131.8190014  26.7839992 129.4179978 131.5320014
  26.6359992 130.2709978 132.7740014  26.6089075 130.1798307 131.9087373
  30.0799992 115.9699978 130.9630014  29.4059992 115.3399978 131.2190014
  30.6439992 115.4859978 130.3600014  30.0640384 115.8183708 130.9165020
  35.2229992 114.0769978 131.0760014  35.8259992 114.6249978 130.5740014
  34.3529992 114.3959978 130.8360014  35.1879190 114.1951041 130.9748679
  36.9499992 115.2159978 129.4090014  37.5609992 114.7019978 128.8830014
  37.3319992 116.0929978 129.4330014  37.0854475 115.2641323 129.3401208
  22.4069992 114.6039978 128.7850014  21.6299992 114.3689978 128.2780014
  22.9369992 113.8069978 128.7940014  22.3723451 114.4641268 128.7168627
  21.2429992 114.4019978 124.5890014  21.6819992 115.0129978 123.9970014
  20.6089992 114.9399978 125.0630014  21.2173859 114.5584064 124.5720305
  26.9859992 114.5299978 128.5990014  27.8599992 114.9189978 128.5690014
  26.8499992 114.3149978 129.5210014  27.0873207 114.5541923 128.7196509
  32.5429992 114.5599978 130.2480014  32.6189992 114.6559978 129.2990014
  32.2679992 113.6529978 130.3770014  32.5162042 114.4504241 130.1353811
  33.8959992 114.5859978 125.9400014  33.1929992 115.2009978 125.7310014
  33.4509992 113.7489978 126.0720014  33.7396292 114.5570085 125.9292439
  21.1439992 130.3499978 125.4870014  20.4589992 130.3119978 124.8190014
  21.1479992 131.2629978 125.7750014  21.0508174 130.4681998 125.4345310
  23.1039992 116.3179978 123.0310014  23.5949992 115.6879978 122.5040014
  23.7269992 116.6139978 123.6950014  23.2555062 116.2716770 123.0485438
  28.1299992 116.6109978 125.4890014  28.3079992 115.9639978 126.1710014
  28.0759992 117.4449978 125.9560014  28.1471025 116.6350504 125.6456433
  30.0079992 131.5589978 123.8840014  30.8739992 131.9259978 123.7060014
  29.7619992 131.1199978 123.0700014  30.0932097 131.5498525 123.7496019
  36.7169992 131.1219978 126.5630014  36.5229992 130.3739978 125.9980014
  36.6779992 131.8799978 125.9800014  36.6851645 131.1220786 126.4068148
  22.3639992 115.1179978 138.3030014  21.9979992 114.3519978 138.7460014
  23.2769992 115.1469978 138.5900014  22.4373225 115.0171906 138.4023459
  24.3369992 114.4679978 139.8390014  25.2359992 114.1939978 139.6540014
  23.9509992 113.7259978 140.3030014  24.4077237 114.3301508 139.8764710
  22.9619992 131.2699978 122.5120014  22.6939992 131.5559978 123.3850014
  23.7329992 130.7239978 122.6640014  23.0295600 131.2353330 122.6521499
  32.7589992 113.8009978 140.0210014  32.8349992 113.3749978 140.8750014
  33.6519992 113.8139978 139.6780014  32.8902267 113.7443952 140.0915932
  35.9349992 129.8739978 138.7130014  35.1529992 129.6869978 138.1940014
  35.8629992 130.8029978 138.9310014  35.8180863 129.9740221 138.6713574
  50.3409992 123.7599978 128.7440014  50.4299992 124.7039978 128.6120014
  49.7029992 123.4849978 128.0860014  50.2669062 123.8519812 128.6369641
  49.2739992 123.0149978 132.1630014  49.2359992 122.3689978 132.8680014
  48.9519992 122.5479978 131.3920014  49.2252679 122.8634276 132.1552921
  41.6419992 122.6289978 133.7560014  41.6839992 122.0039978 134.4790014
  42.3449992 123.2529978 133.9380014  41.7427345 122.6277873 133.8795274
  52.9799992 125.9539978 130.4650014  52.5389992 125.2339978 130.9150014
  52.9669992 126.6749978 131.0940014  52.9177960 125.9528329 130.6117567
  42.5659992 127.0789978 132.2910014  42.1959992 126.2769978 131.9210014
  43.5069992 126.9109978 132.3370014  42.6425984 126.9464638 132.2465603
  39.1759992 120.7389978 127.6840014  38.7279992 121.5849978 127.6650014
  38.6149992 120.1599978 127.1680014  39.0389603 120.7763674 127.6116720
  39.8859992 122.9009978 129.8100014  40.0999992 122.1309978 130.3370014
  40.6239992 122.9909978 129.2060014  40.0149652 122.8078012 129.8005212
  50.0919992 131.0579978 130.6770014  50.7109992 130.3819978 130.4030014
  49.8829992 130.8399978 131.5850014  50.1486232 130.9357938 130.7622517
  47.6629992 125.4469978 132.5690014  47.9669992 124.7609978 131.9750014
  48.3849992 125.5659978 133.1870014  47.8021152 125.3692189 132.5712123
  56.3259992 117.0489978 133.4300014  56.3759992 117.6589978 134.1660014
  56.7519992 117.5099978 132.7070014  56.3904108 117.1947709 133.4330112
  50.8039992 119.8409978 132.8970014  50.9469992 118.8949978 132.9170014
  50.6979992 120.0479978 131.9680014  50.8092509 119.7394813 132.7742231
  43.9589992 117.9429978 130.1690014  44.0019992 118.8029978 129.7510014
  43.5009992 117.3909978 129.5350014  43.9029815 117.9860621 130.0261197
  51.6809992 118.0739978 128.5700014  52.3279992 117.7449978 129.1950014
  52.1909992 118.5909978 127.9470014  51.8384317 118.0989227 128.5712167
  40.5789992 120.3399978 130.9310014  41.2329992 119.7899978 131.3630014
  40.6029992 120.0659978 130.0140014  40.6717199 120.2277167 130.8661668
  45.7359992 121.8899978 130.1460014  46.3519992 121.3629978 130.6560014
  45.1489992 121.2499978 129.7430014  45.7409239 121.7314117 130.1612952
  56.7179992 118.5269978 135.6660014  56.0289992 119.1849978 135.5700014
  56.7329992 118.3289978 136.6020014  56.6256740 118.5903243 135.7794630
  42.7689992 116.8609978 134.2430014  42.5499992 117.3909978 133.4770014
  42.1009992 117.0869978 134.8900014  42.6487001 116.9641154 134.2256064
  50.1379992 126.3609978 127.7870014  49.8429992 126.0379978 126.9360014
  49.8139992 127.2609978 127.8280014  50.0537983 126.4384026 127.6759771
  45.3379992 124.5359978 134.5310014  44.5979992 125.1349978 134.6340014
  46.0519992 125.0899978 134.2150014  45.3333288 124.6927356 134.5023805
  53.4449992 117.3649978 130.5500014  53.2299992 116.5989978 131.0830014
  54.1009992 117.8369978 131.0630014  53.5042673 117.3240728 130.6921990
  42.3629992 118.7529978 132.1950014  42.9769992 119.3859978 132.5690014
  42.8749992 118.2809978 131.5390014  42.5162277 118.7757352 132.1574279
  43.7459992 126.5009978 135.3180014  43.7399992 127.3799978 134.9400014
  42.8919992 126.4169978 135.7430014  43.6297925 126.6099535 135.3236887
  39.8669992 126.1719978 126.1000014  39.5949992 126.4009978 125.2110014
  39.9119992 127.0089978 126.5600014  39.8358709 126.3166058 126.0406107
  53.4919992 127.7929978 132.8120014  52.5499992 127.8519978 132.9740014
  53.7679992 128.6989978 132.6750014  53.4005865 127.9235288 132.8156192
  53.7919992 116.0799978 134.2300014  53.0559992 116.6899978 134.1920014
  54.4759992 116.4949978 133.7030014  53.7835506 116.2196400 134.1536051
  46.7959992 114.1659978 131.6960014  46.6779992 113.2179978 131.6410014
  45.9409992 114.4989978 131.9690014  46.6642679 114.0811926 131.7253720
  51.7439992 129.5739978 129.4380014  52.1689992 128.8669978 128.9530014
  52.0609992 130.3759978 129.0210014  51.8450266 129.5855190 129.3152479
  52.9039992 127.4749978 127.9460014  52.6459992 126.7849978 127.3350014
  52.9749992 127.0319978 128.7920014  52.8782837 127.3207106 127.9766912
  54.5899992 126.0419978 136.4240014  54.7289992 125.4499978 135.6840014
  54.7569992 126.9149978 136.0670014  54.6315562 126.0789896 136.2746283
  49.0619992 123.0039978 126.1960014  48.3509992 123.5389978 125.8440014
  49.7529992 123.0589978 125.5360014  49.0580751 123.0846777 126.0585858
  49.1159992 121.4609978 123.2350014  49.8169992 121.4839978 123.8860014
  49.4179992 120.8329978 122.5790014  49.2528282 121.3792339 123.2354496
  56.4309992 122.3819978 134.4900014  55.7789992 123.0759978 134.5790014
  56.8969992 122.5919978 133.6800014  56.4045937 122.5055019 134.3927533
  52.4679992 123.2129978 127.1480014  51.7359992 123.4419978 127.7210014
  52.9149992 122.4999978 127.6030014  52.4282753 123.1478972 127.2879715
  52.3649992 121.3879978 136.2160014  52.4449992 122.1509978 136.7870014
  51.7639992 121.6669978 135.5250014  52.2947245 121.5302630 136.2008424
  44.1129992 123.8439978 129.0300014  43.7829992 123.4729978 128.2120014
  44.7019992 123.1729978 129.3770014  44.1473970 123.7026063 128.9649404
  45.4799992 127.2719978 131.7120014  45.3849992 126.6929978 130.9550014
  46.2089992 126.9009978 132.2080014  45.5656161 127.1425891 131.6755209
  44.4799992 122.6119978 132.6640014  45.0449992 122.7339978 131.9010014
  44.7989992 123.2499978 133.3030014  44.6003977 122.7148851 132.6459424
  50.7889992 128.1159978 133.3980014  50.5489992 128.7779978 134.0460014
  50.5909992 127.2809978 133.8230014  50.7293826 128.0938115 133.5441566
  45.3599992 127.0119978 137.3810014  45.0489992 127.7939978 137.8360014
  44.7099992 126.8589978 136.6950014  45.2295538 127.0984087 137.3505898
  51.3389992 122.3759978 124.8330014  51.9179992 122.5259978 125.5800014
  51.7529992 122.8459978 124.1100014  51.4743122 122.4601277 124.8375042
  42.2799992 123.2099978 136.6100014  42.3499992 123.8609978 137.3080014
  41.3889992 123.3129978 136.2750014  42.1691802 123.3129757 136.6602249
  49.0649992 129.1119978 128.2680014  49.5389992 129.4079978 129.0460014
  48.5019992 129.8509978 128.0350014  49.0537361 129.2522721 128.3428611
  43.5989992 129.0829978 138.1440014  43.6069992 128.9469978 137.1970014
  42.6829992 128.9659978 138.3960014  43.4762528 129.0485463 138.0483243
  55.0379992 114.1259978 124.6460014  54.1379992 114.2649978 124.9410014
  55.2899992 114.9569978 124.2440014  54.9488683 114.2574055 124.6320232
  43.1039992 122.9129978 126.6200014  42.8119992 123.6809978 126.1290014
  42.4289992 122.2539978 126.4570014  42.9728497 122.9289745 126.5308260
  56.2269992 128.4919978 123.0220014  56.2999992 129.4309978 123.1930014
  57.1319992 128.1869978 122.9660014  56.3594158 128.5793061 123.0378392
  39.1969992 125.2759978 135.4350014  38.6949992 125.2479978 134.6200014
  39.2019992 124.3709978 135.7440014  39.1290416 125.1497368 135.3653766
  38.9469992 128.0569978 132.3190014  39.8929992 127.9119978 132.3000014
  38.8339992 128.8409978 132.8560014  39.0613578 128.1431697 132.3890317
  57.1449992 128.7229978 138.0010014  57.0949992 127.7669978 137.9640014
  56.3179992 128.9899978 138.4020014  57.0263987 128.6285174 138.0501446
  48.1229992 128.2969978 136.8770014  48.2109992 129.1229978 137.3520014
  47.2599992 127.9669978 137.1260014  48.0183357 128.3655468 136.9757653
  48.5379992 132.0689978 126.6830014  48.4619992 131.9479978 125.7370014
  48.5699992 133.0179978 126.8020014  48.5319156 132.1807530 126.5695048
  42.1909992 130.8579978 128.4640014  42.3429992 130.5099978 129.3430014
  41.3399992 130.5009978 128.2090014  42.0967899 130.7621738 128.5497340
  51.6389992 131.2229978 123.6850014  52.0139992 130.4789978 123.2150014
  51.6439992 130.9529978 124.6040014  51.6910024 131.0846950 123.7447987
  51.3079992 131.1489978 126.4350014  50.3729992 131.2489978 126.6130014
  51.5879992 130.4389978 127.0130014  51.2178173 131.0667239 126.5374998
  54.2969992 120.2159978 138.4810014  53.8889992 120.6959978 137.7610014
  54.3369992 119.3099978 138.1730014  54.2465476 120.1593160 138.3408247
  41.4459992 126.5999978 136.4780014  41.6619992 126.2379978 137.3370014
  40.5899992 126.2249978 136.2680014  41.3599354 126.4997906 136.5672160
  44.0639992 115.0699978 132.4730014  43.2029992 114.9829978 132.0660014
  44.0419992 115.9259978 132.9010014  43.9430411 115.1737884 132.4750857
  48.7269992 114.7919978 135.8480014  49.1469992 114.3769978 136.6010014
  47.7939992 114.6129978 135.9650014  48.6583736 114.7109910 135.9668968
  52.0539992 118.5469978 136.7010014  51.5399992 118.4219978 137.4990014
  51.8979992 119.4599978 136.4570014  51.9626967 118.6532123 136.7770937
  52.8159992 123.4079978 122.4630014  52.8579992 123.1859978 121.5330014
  53.6649992 123.8069978 122.6530014  52.9365253 123.4315498 122.3613822
  48.3889992 117.2839978 123.1330014  48.1349992 117.3029978 124.0560014
  48.1319992 116.4129978 122.8320014  48.3195133 117.1688110 123.2185082
  44.1549992 120.0349978 133.5680014  43.5139992 119.9949978 134.2770014
  44.1929992 120.9619978 133.3310014  44.0723670 120.1547795 133.6330550
  44.1519992 120.2559978 128.4800014  43.2599992 119.9159978 128.4220014
  44.6029992 119.8789978 127.7250014  44.0906815 120.1583762 128.3699203
  49.6879992 120.6719978 127.2970014  49.2789992 121.4869978 127.0060014
  50.4079992 120.5319978 126.6830014  49.7294013 120.7646571 127.1740875
  48.7899992 120.8479978 138.7850014  48.2269992 120.1429978 139.1060014
  49.6159992 120.7269978 139.2530014  48.8246674 120.7352165 138.8921751
  50.6929992 120.1179978 130.1110014  50.4969992 120.7239978 129.3960014
  50.8739992 119.2849978 129.6770014  50.6906584 120.0882513 129.9544212
  41.9049992 120.3559978 135.4350014  41.8669992 120.7559978 136.3040014
  41.4149992 119.5389978 135.5260014  41.8335621 120.3002510 135.5661377
  45.2709992 117.7299978 122.2340014  44.8399992 117.2849978 122.9640014
  44.5529992 118.1009978 121.7220014  45.1149363 117.7192968 122.2646211
  38.5139992 117.4719978 129.2860014  39.1439992 117.4429978 130.0050014
  38.9629992 117.0469978 128.5560014  38.6610692 117.4105316 129.2857771
  39.7879992 118.2179978 124.7100014  40.2619992 118.8089978 124.1250014
  39.0699992 118.7479978 125.0570014  39.7558640 118.3705511 124.6767969
  49.9569992 121.7559978 134.7830014  50.2799992 121.1249978 134.1400014
  49.5159992 121.2219978 135.4430014  49.9415789 121.5973522 134.7842232
  46.7339992 117.6839978 129.5670014  45.8229992 117.7409978 129.8550014
  47.2389992 117.6239978 130.3770014  46.6775387 117.6836870 129.7160646
  41.5619992 119.3129978 128.3930014  40.6729992 119.4119978 128.0530014
  41.8589992 118.4709978 128.0470014  41.4804177 119.2127687 128.2996940
  45.2149992 119.3129978 126.0500014  46.1469992 119.4419978 126.2280014
  44.9999992 119.9819978 125.4000014  45.3134472 119.4210806 125.9864891
  51.1389992 116.9189978 132.8310014  50.4619992 117.0499978 133.4950014
  50.6539992 116.7639978 132.0210014  50.9807265 116.9159659 132.8123397
  43.8889992 120.5069978 123.6170014  43.3469992 120.1279978 122.9250014
  44.7229992 120.7019978 123.1880014  43.9275159 120.4815076 123.4644419
  54.4269992 132.5899978 139.1080014  54.6259992 133.0139978 138.2730014
  55.0819992 132.9339978 139.7150014  54.5428501 132.6946091 139.0757097
  42.0249992 125.0639978 138.7160014  42.7569992 125.3189978 139.2770014
  41.2439992 125.2689978 139.2310014  42.0197684 125.1266468 138.8624782
  48.0539992 120.4709978 131.4540014  48.6179992 119.9249978 130.9070014
  47.9059992 119.9499978 132.2420014  48.1112575 120.3256552 131.4856987
  43.0559992 116.6079978 127.8720014  42.7389992 115.7049978 127.8370014
  43.8369992 116.6099978 127.3190014  43.1182307 116.4846951 127.7924314
  46.6799992 118.8599978 133.8680014  45.8449992 119.3139978 133.9780014
  47.2039992 119.1359978 134.6200014  46.6365070 118.9594666 133.9847152
  47.2249992 125.0729978 125.5520014  46.4799992 124.5649978 125.2300014
  47.0899992 125.1219978 126.4990014  47.1049047 125.0101596 125.6358845
  54.3749992 124.2059978 134.3390014  55.0159992 124.6619978 133.7950014
  53.5439992 124.3189978 133.8770014  54.3505171 124.2837502 134.2020237
  51.1219992 117.8869978 123.7520014  50.1839992 117.9979978 123.6000014
  51.4199992 118.7429978 124.0580014  51.0336402 118.0180621 123.7725571
  48.7439992 125.2569978 136.7890014  48.3979992 124.8749978 137.5960014
  48.5439992 126.1899978 136.8610014  48.6696523 125.3309095 136.9090735
  51.8409992 119.7539978 125.4120014  52.7329992 119.6159978 125.7310014
  51.8969992 120.5449978 124.8760014  51.9707107 119.8420526 125.3832091
  42.3489992 124.3679978 131.3220014  43.0939992 124.3649978 130.7210014
  42.4269992 123.5439978 131.8040014  42.4614158 124.2562916 131.3049153
  49.3499992 126.5309978 124.5780014  49.0549992 127.3579978 124.9590014
  48.6469992 125.9119978 124.7740014  49.2145471 126.5605227 124.6566698
  39.3569992 122.8279978 136.6370014  39.5799992 122.4099978 137.4690014
  38.7549992 122.2159978 136.2140014  39.3061260 122.6879933 136.6937320
  46.3739992 122.3449978 138.8500014  46.0779992 122.1799978 137.9550014
  47.3049992 122.1249978 138.8390014  46.4593982 122.2926578 138.7260045
  50.9939992 127.7189978 136.7400014  50.0939992 127.9019978 136.4720014
  51.0279992 127.9779978 137.6610014  50.8752909 127.7790815 136.8277852
  56.7259992 119.9629978 125.1070014  56.1709992 119.5669978 124.4350014
  56.8259992 120.8739978 124.8290014  56.6635888 120.0318990 124.9775206
  56.6889992 125.7639978 137.9440014  55.8379992 126.0019978 137.5770014
  57.2789992 125.7469978 137.1910014  56.6522408 125.7942966 137.7918879
  55.0209992 128.7489978 125.5720014  54.6479992 127.9239978 125.8810014
  55.2979992 128.5659978 124.6750014  55.0073871 128.6112441 125.4929677
  52.1809992 123.5569978 132.5930014  51.2529992 123.3259978 132.5660014
  52.6319992 122.7799978 132.2630014  52.1148165 123.4202774 132.5446790
  44.7239992 127.8859978 128.7260014  45.2519992 128.6589978 128.5260014
  43.8439992 128.1099978 128.4250014  44.6773176 128.0223161 128.6578409
  40.4789992 122.7479978 123.3140014  41.0949992 123.3749978 123.6930014
  39.6169992 123.0639978 123.5850014  40.4468195 122.8765798 123.4025386
  46.1519992 125.5489978 128.3030014  45.9109992 126.4739978 128.3440014
  45.4109992 125.0899978 128.6990014  46.0188390 125.6136403 128.3621404
  46.6659992 129.6979978 134.6180014  47.0289992 130.5519978 134.3840014
  47.1979992 129.4059978 135.3580014  46.7876090 129.7754058 134.6860219
  44.8349992 130.5699978 127.8480014  43.8849992 130.6759978 127.8990014
  45.1869992 131.3909978 128.1930014  44.7525480 130.6954438 127.9015999
  50.2099992 125.7969978 134.3180014  49.7849992 125.5689978 135.1450014
  50.7909992 125.0579978 134.1360014  50.2303930 125.6659843 134.4064732
  52.4129992 126.7259978 123.3920014  52.7669992 126.3459978 124.1970014
  51.4649992 126.6319978 123.4790014  52.3331820 126.6613092 123.5138714
  52.8689992 130.3489978 136.7880014  52.2669992 129.7929978 136.2920014
  53.1499992 131.0159978 136.1620014  52.8246829 130.3631613 136.6355443
  56.9169992 131.2049978 123.5930014  57.6609992 131.7909978 123.4530014
  56.2229992 131.7739978 123.9270014  56.9250201 131.3620603 123.6189772
  40.9909992 117.5819978 136.1950014  40.0989992 117.9199978 136.1280014
  40.8929992 116.7259978 136.6130014  40.8554965 117.5126499 136.2423044
  53.2789992 125.3979978 125.6190014  53.0019992 124.6699978 126.1750014
  54.2069992 125.5169978 125.8240014  53.3664499 125.3144213 125.7228044
  40.6429992 129.3859978 134.6300014  40.8599992 128.4539978 134.5990014
  40.8889992 129.6609978 135.5130014  40.7059809 129.2955686 134.7451691
  46.5039992 127.8379978 121.8390014  46.7429992 127.0889978 121.2920014
  46.2349992 127.4499978 122.6720014  46.5003233 127.6831853 121.8767809
  45.4409992 127.4079978 124.2960014  45.5879992 126.8879978 125.0860014
  45.4379992 128.3149978 124.6020014  45.4607300 127.4593964 124.4455895
  41.8939992 124.6599978 124.8060014  41.2079992 125.0129978 125.3730014
  42.4169992 125.4229978 124.5600014  41.8709033 124.8113746 124.8502661
  49.7259992 117.3229978 135.0850014  50.4249992 117.3969978 135.7350014
  49.3449992 116.4579978 135.2390014  49.7702097 117.2162389 135.1947997
  50.5099992 116.9749978 126.1820014  50.7299992 117.4459978 125.3790014
  51.0689992 117.3689978 126.8520014  50.6156730 117.0927432 126.1625906
  48.1789992 129.1049978 125.0450014  47.3619992 129.6019978 125.0970014
  48.7079992 129.5809978 124.4050014  48.1388508 129.2372543 124.9656035
  47.7099992 118.7029978 127.0170014  48.5219992 119.2069978 127.0630014
  47.4659992 118.5579978 127.9310014  47.7881467 118.7523749 127.1468575
  48.2459992 119.6889978 136.2020014  48.3649992 120.2629978 136.9590014
  48.9009992 119.0009978 136.3160014  48.3509146 119.6745574 136.3211313
  48.5939992 115.7839978 127.9550014  48.2469992 116.4009978 128.6000014
  49.2529992 116.2849978 127.4740014  48.6355949 115.9361099 127.9782271
  45.5169992 130.1489978 125.0270014  45.6779992 130.9489978 124.5260014
  45.3199992 130.4559978 125.9120014  45.5123919 130.2999129 125.0781006
  44.2519992 116.8469978 124.6420014  44.1679992 117.7349978 124.9890014
  45.1419992 116.5819978 124.8740014  44.3608163 116.9327179 124.7208596
  54.4499992 117.5959978 137.0370014  53.5339992 117.8579978 136.9490014
  54.7859992 117.5929978 136.1400014  54.3699789 117.6314626 136.9037847
  53.0529992 121.3459978 131.1320014  52.2549992 120.9309978 130.8040014
  53.4979992 120.6559978 131.6230014  53.0039684 121.1958628 131.1535227
  42.5099992 127.2739978 123.7030014  43.1019992 127.9739978 123.9790014
  42.9689992 126.8409978 122.9830014  42.6530791 127.3112908 123.6434607
  40.8259992 119.9389978 122.8190014  40.7809992 120.8779978 122.9970014
  39.9379992 119.7029978 122.5490014  40.6998555 120.0356874 122.8068939
  54.1389992 130.6019978 132.7550014  53.9829992 131.2809978 132.0980014
  55.0719992 130.6739978 132.9580014  54.2437387 130.7046390 132.6925342
  41.6339992 114.7199978 131.4920014  41.4049992 114.7789978 130.5640014
  41.1919992 113.9289978 131.7980014  41.5428801 114.6210540 131.4064729
  40.5649992 128.6609978 127.6520014  39.7319992 129.1329978 127.6800014
  41.1099992 129.1709978 127.0540014  40.5247590 128.7945897 127.5749194
  39.8529992 131.2729978 138.9820014  40.3929992 131.0569978 139.7420014
  39.3719992 130.4679978 138.7930014  39.8618613 131.1345400 139.0604782
  44.4499992 130.1929978 140.6030014  45.2179992 129.7339978 140.9440014
  44.4289992 129.9669978 139.6730014  44.5522135 130.0996668 140.5239491
  48.5419992 129.7009978 121.9780014  47.8979992 129.0699978 122.2990014
  49.3039992 129.1699978 121.7460014  48.5568058 129.5427902 121.9906038
  51.0269992 128.5729978 139.3320014  50.6759992 127.7159978 139.5750014
  51.7529992 128.7149978 139.9390014  51.0771590 128.4750178 139.4472907
  53.1469992 129.5179978 122.2120014  53.4299992 128.7229978 122.6640014
  53.8859992 129.7509978 121.6510014  53.2856956 129.4407031 122.1979822
  39.7599992 125.0839978 139.9370014  39.9039992 124.1819978 139.6500014
  38.9879992 125.3699978 139.4490014  39.6753303 124.9993243 139.8317908
  44.1009992 125.4269978 122.0690014  44.1659992 124.6329978 122.6000014
  44.7539992 125.3089978 121.3790014  44.1981754 125.3023337 122.0484259
  46.4149992 125.0529978 139.3690014  46.0869992 125.3239978 138.5120014
  46.5669992 124.1119978 139.2820014  46.3906030 124.9628973 139.2397945
  49.4539992 126.4739978 121.8050014  49.1849992 126.6549978 122.7060014
  49.2469992 125.5489978 121.6740014  49.3892000 126.3736774 121.9105693
  52.1499992 124.9689978 136.7530014  52.8949992 125.5579978 136.6330014
  51.3929992 125.5509978 136.8160014  52.1495205 125.1281997 136.7451119
  40.5929992 122.2839978 139.3570014  41.0009992 121.4269978 139.2360014
  40.3319992 122.2979978 140.2780014  40.6136016 122.1685119 139.4649192
  45.2509992 123.3999978 124.3750014  44.7909992 122.9159978 125.0610014
  45.5059992 122.7309978 123.7390014  45.2225038 123.2433689 124.3829447
  44.5399992 121.2929978 136.7310014  43.9209992 121.9669978 137.0110014
  44.8839992 121.6139978 135.8980014  44.5017605 121.4287198 136.6566707
  46.3219992 121.6429978 122.6370014  46.1409992 121.4879978 121.7100014
  47.2719992 121.7509978 122.6820014  46.4256566 121.6363669 122.5160929
  49.5589992 123.7639978 140.0080014  50.5129992 123.8479978 139.9810014
  49.3989992 123.0519978 140.6280014  49.6677182 123.6792842 140.0880733
  55.7119992 123.9969978 122.0830014  55.4379992 123.5729978 121.2700014
  55.7509992 124.9289978 121.8660014  55.6797716 124.0648827 121.9424286
  44.8789992 118.6479978 137.8130014  45.0289992 117.9189978 137.2110014
  44.8809992 119.4249978 137.2540014  44.8997967 118.6532708 137.6550541
  45.2919992 117.0169978 135.3060014  45.8269992 117.4689978 134.6540014
  44.4389992 116.9089978 134.8830014  45.2500374 117.0642665 135.1596710
  46.8729992 122.4569978 135.5450014  47.6239992 122.3009978 134.9720014
  46.5339992 123.3089978 135.2700014  46.9299587 122.5508138 135.4294078
  51.2889992 120.2719978 140.5740014  51.4809992 119.3409978 140.4620014
  52.1469992 120.6969978 140.5640014  51.4312269 120.2019928 140.5573192
  52.6059992 123.0609978 138.6510014  52.3239992 123.7699978 138.0740014
  53.5479992 122.9879978 138.5000014  52.6947656 123.1483128 138.5514809
  43.3579992 119.8459978 139.7250014  42.5899992 119.3129978 139.5150014
  44.0359992 119.5359978 139.1250014  43.3446973 119.7312375 139.6151796
  46.0969992 114.4739978 135.7370014  45.9989992 115.4199978 135.6320014
  45.3549992 114.1009978 135.2620014  45.9831913 114.5531813 135.6583539
  47.3609992 118.7949978 139.3010014  47.1259992 118.5759978 140.2030014
  46.5779992 118.5879978 138.7910014  47.2229219 118.7370066 139.3555852
  50.0769992 117.9229978 138.3770014  49.1289992 117.9549978 138.5090014
  50.3889992 117.2969978 139.0300014  49.9895190 117.8427262 138.4833563
  51.7109992 116.5569978 140.3820014  51.6139992 115.6049978 140.3760014
  51.3889992 116.8249978 141.2420014  51.6541761 116.4629744 140.4974936
  41.5379992 117.7659978 139.4290014  41.7499992 117.0599978 138.8190014
  41.4269992 117.3289978 140.2730014  41.5520269 117.6101921 139.4595873
  46.3189992 113.7679978 138.4090014  47.0309992 113.1279978 138.3950014
  46.2179992 114.0339978 137.4950014  46.4027261 113.7164190 138.2835537
  46.6729992 115.4499978 140.4620014  46.5409992 114.9749978 139.6420014
  46.0729992 116.1949978 140.4070014  46.5739070 115.4855789 140.3423251
  46.2189992 132.3329978 123.6390014  47.1519992 132.4909978 123.7820014
  45.9549992 133.0089978 123.0140014  46.3109308 132.4459104 123.5741396
  39.7869992 126.9699978 123.1210014  40.7009992 127.0489978 123.3950014
  39.7949992 126.2829978 122.4550014  39.9131143 126.8879085 123.0684274
  38.4359992 132.3629978 128.1990014  37.7889992 131.9009978 127.6660014
  38.7909992 131.6909978 128.7810014  38.3954506 132.2089503 128.2047341
  39.3059992 130.4429978 130.0030014  38.9719992 129.5629978 130.1750014
  39.5289992 130.7889978 130.8680014  39.2903721 130.3691938 130.1434168
  56.8549992 131.2529978 132.9840014  56.8329992 131.4379978 133.9230014
  57.5449992 131.8209978 132.6430014  56.9453439 131.3551887 133.0664791
  56.4179992 130.8199978 135.9060014  55.9309992 130.0849978 135.5350014
  56.9669992 130.4259978 136.5840014  56.4255247 130.6661057 135.9468461
  54.8689992 126.6099978 140.5440014  54.0029992 126.5049978 140.9380014
  55.2449992 127.3679978 140.9900014  54.8013401 126.6981708 140.6582620
  56.1699992 124.8659978 126.0580014  57.0199992 125.2869978 126.1850014
  56.1749992 124.1259978 126.6650014  56.2871143 124.8236094 126.1574750
  56.5639992 122.9199978 127.8820014  55.8379992 122.4399978 128.2790014
  57.1459992 123.1249978 128.6140014  56.5431635 122.8819166 128.0353748
  56.3229992 125.7049978 132.8290014  57.1569992 125.3269978 132.5490014
  56.4349992 126.6479978 132.7100014  56.4522522 125.7807742 132.7746020
  54.8099992 128.5829978 135.1360014  54.1619992 128.9079978 135.7620014
  54.2919992 128.1419978 134.4620014  54.6514168 128.5678523 135.1305307
  56.8329992 122.8209978 124.2730014  56.3109992 123.1769978 123.5540014
  56.7999992 123.4959978 124.9510014  56.7570699 122.9609848 124.2662129
  55.1819992 120.0599978 122.8240014  55.2779992 120.7269978 122.1440014
  55.0419992 119.2449978 122.3420014  55.1762063 120.0410667 122.6658377
  54.3509992 121.4409978 128.4450014  54.2009992 120.4959978 128.4240014
  53.9969992 121.7219978 129.2880014  54.2825527 121.3495605 128.5561859
  39.3859992 123.5189978 132.4550014  39.5709992 123.4369978 131.5190014
  40.2359992 123.3949978 132.8790014  39.5260916 123.4910393 132.3842896
  55.2069992 123.4109978 138.0830014  55.7899992 122.6759978 138.2750014
  55.7709992 124.1829978 138.1300014  55.3629781 123.4148145 138.1156164
  56.7039992 121.3139978 138.7680014  55.8409992 120.9349978 138.6020014
  57.3079992 120.5749978 138.6940014  56.6675944 121.1622978 138.7352984
  54.4289992 117.4679978 121.9410014  55.0399992 117.0969978 122.5780014
  53.5919992 117.0469978 122.1370014  54.3994947 117.3602756 122.0547252
  54.0619992 119.0229978 126.9070014  54.3409992 118.1159978 127.0310014
  54.8209992 119.4569978 126.5180014  54.2028619 118.9574502 126.8713795
  54.6729992 119.6049978 132.3430014  55.6059992 119.8169978 132.3090014
  54.4379992 119.7059978 133.2650014  54.7688308 119.6476503 132.4630214
  54.7029992 120.3419978 135.1190014  53.8599992 120.6099978 135.4850014
  55.1449992 121.1639978 134.9080014  54.6474138 120.4898273 135.1405518
  38.9839992 118.7889978 138.5960014  39.9029992 118.6669978 138.8320014
  38.5339992 118.0389978 138.9850014  39.0491148 118.6708751 138.6809408
  56.9859992 114.3219978 140.4720014  57.3349992 113.6679978 139.8670014
  57.1329992 115.1589978 140.0330014  57.0537355 114.3456067 140.3296564
  54.6749992 116.2859978 126.9550014  54.8569992 115.8369978 127.7810014
  54.0749992 115.7019978 126.4920014  54.6187529 116.1456131 127.0053619
  40.2049992 117.1019978 131.4870014  40.6499992 116.3099978 131.7890014
  40.6709992 117.8179978 131.9180014  40.3289059 117.0904474 131.5866079
  38.5089992 120.1009978 132.5560014  39.0009992 119.8799978 131.7650014
  38.8709992 120.9409978 132.8370014  38.6252923 120.1843468 132.4857407
  56.5049992 116.4309978 138.8220014  55.5879992 116.7019978 138.7860014
  56.6279992 115.8959978 138.0380014  56.3960828 116.3957700 138.7110785
  56.5419992 116.3539978 123.4830014  56.9539992 115.6329978 123.0080014
  57.2229992 117.0229978 123.5420014  56.6905900 116.3457306 123.4259038
  38.8229992 116.3589978 126.6100014  37.8979992 116.5669978 126.4810014
  39.2769992 116.8429978 125.9210014  38.7576374 116.4529949 126.4990957
  53.5929992 131.3429978 128.5560014  54.2459992 130.9949978 127.9480014
  54.1039992 131.8309978 129.2020014  53.7512777 131.3613815 128.5602047
  38.7859992 115.0969978 134.9550014  38.1209992 114.8509978 135.5980014
  38.3429992 115.7189978 134.3770014  38.6350937 115.1473614 134.9649379
  40.9779992 128.2719978 139.0990014  40.1569992 128.4469978 138.6390014
  40.7259992 128.1989978 140.0200014  40.8316173 128.2860794 139.1604972
  43.9319992 129.2459978 135.3580014  43.5079992 130.0559978 135.0750014
  44.8369992 129.3319978 135.0560014  43.9962433 129.3683331 135.2785377
  48.2439992 130.6449978 138.3170014  48.4279992 130.3119978 139.1950014
  49.0899992 130.9549978 137.9950014  48.3836484 130.6412979 138.3937617
  50.5889992 131.9309978 137.5610014  51.2659992 131.2979978 137.3210014
  50.9099992 132.3319978 138.3680014  50.7251323 131.8985691 137.6373158
  55.5059992 114.5209978 136.6410014  54.6929992 114.8459978 136.2530014
  55.7389992 113.7599978 136.1080014  55.4262566 114.4626559 136.5159213
  41.3339992 132.5029978 135.4050014  40.6139992 132.9429978 134.9540014
  40.9689992 132.2519978 136.2540014  41.1859796 132.5293824 135.4579329
  43.8009992 132.1029978 134.4350014  42.9369992 132.1749978 134.8390014
  43.7459992 132.6499978 133.6510014  43.6751942 132.1867849 134.3844000
  48.5119992 131.9909978 133.6100014  48.0549992 132.5199978 132.9560014
  48.6749992 132.5939978 134.3360014  48.4714476 132.1449140 133.6185499
  50.8399992 130.8689978 134.5550014  49.9349992 131.0339978 134.2900014
  51.2679992 131.7219978 134.4900014  50.7740700 131.0069529 134.5099520
  53.4439992 132.4389978 134.8500014  53.2619992 133.3549978 134.6400014
  53.6209992 132.0279978 134.0040014  53.4429907 132.5089741 134.7067883
  40.7489992 131.1259978 132.3150014  40.7309992 130.6999978 133.1730014
  41.5539992 130.8069978 131.9070014  40.8553221 131.0247233 132.3770225
  42.8899992 129.8359978 130.9700014  42.6709992 128.9189978 131.1400014
  43.7139992 129.9759978 131.4360014  42.9714702 129.7295511 131.0562527
  45.4269992 130.3059978 131.8190014  45.6399992 129.4179978 131.5320014
  45.4919992 130.2709978 132.7740014  45.4649075 130.1798307 131.9087373
  48.9359992 115.9699978 130.9630014  48.2619992 115.3399978 131.2190014
  49.4999992 115.4859978 130.3600014  48.9200384 115.8183708 130.9165020
  54.0789992 114.0769978 131.0760014  54.6819992 114.6249978 130.5740014
  53.2089992 114.3959978 130.8360014  54.0439190 114.1951041 130.9748679
  55.8059992 115.2159978 129.4090014  56.4169992 114.7019978 128.8830014
  56.1879992 116.0929978 129.4330014  55.9414475 115.2641323 129.3401208
  41.2629992 114.6039978 128.7850014  40.4859992 114.3689978 128.2780014
  41.7929992 113.8069978 128.7940014  41.2283451 114.4641268 128.7168627
  40.0989992 114.4019978 124.5890014  40.5379992 115.0129978 123.9970014
  39.4649992 114.9399978 125.0630014  40.0733859 114.5584064 124.5720305
  45.8419992 114.5299978 128.5990014  46.7159992 114.9189978 128.5690014
  45.7059992 114.3149978 129.5210014  45.9433207 114.5541923 128.7196509
  51.3989992 114.5599978 130.2480014  51.4749992 114.6559978 129.2990014
  51.1239992 113.6529978 130.3770014  51.3722042 114.4504241 130.1353811
  52.7519992 114.5859978 125.9400014  52.0489992 115.2009978 125.7310014
  52.3069992 113.7489978 126.0720014  52.5956292 114.5570085 125.9292439
  39.9999992 130.3499978 125.4870014  39.3149992 130.3119978 124.8190014
  40.0039992 131.2629978 125.7750014  39.9068174 130.4681998 125.4345310
  41.9599992 116.3179978 123.0310014  42.4509992 115.6879978 122.5040014
  42.5829992 116.6139978 123.6950014  42.1115062 116.2716770 123.0485438
  46.9859992 116.6109978 125.4890014  47.1639992 115.9639978 126.1710014
  46.9319992 117.4449978 125.9560014  47.0031025 116.6350504 125.6456433
  48.8639992 131.5589978 123.8840014  49.7299992 131.9259978 123.7060014
  48.6179992 131.1199978 123.0700014  48.9492097 131.5498525 123.7496019
  55.5729992 131.1219978 126.5630014  55.3789992 130.3739978 125.9980014
  55.5339992 131.8799978 125.9800014  55.5411645 131.1220786 126.4068148
  41.2199992 115.1179978 138.3030014  40.8539992 114.3519978 138.7460014
  42.1329992 115.1469978 138.5900014  41.2933225 115.0171906 138.4023459
  43.1929992 114.4679978 139.8390014  44.0919992 114.1939978 139.6540014
  42.8069992 113.7259978 140.3030014  43.2637237 114.3301508 139.8764710
  41.8179992 131.2699978 122.5120014  41.5499992 131.5559978 123.3850014
  42.5889992 130.7239978 122.6640014  41.8855600 131.2353330 122.6521499
  51.6149992 113.8009978 140.0210014  51.6909992 113.3749978 140.8750014
  52.5079992 113.8139978 139.6780014  51.7462267 113.7443952 140.0915932
  54.7909992 129.8739978 138.7130014  54.0089992 129.6869978 138.1940014
  54.7189992 130.8029978 138.9310014  54.6740863 129.9740221 138.6713574
  69.1969992 123.7599978 128.7440014  69.2859992 124.7039978 128.6120014
  68.5589992 123.4849978 128.0860014  69.1229062 123.8519812 128.6369641
  68.1299992 123.0149978 132.1630014  68.0919992 122.3689978 132.8680014
  67.8079992 122.5479978 131.3920014  68.0812679 122.8634276 132.1552921
  60.4979992 122.6289978 133.7560014  60.5399992 122.0039978 134.4790014
  61.2009992 123.2529978 133.9380014  60.5987345 122.6277873 133.8795274
  71.8359992 125.9539978 130.4650014  71.3949992 125.2339978 130.9150014
  71.8229992 126.6749978 131.0940014  71.7737960 125.9528329 130.6117567
  61.4219992 127.0789978 132.2910014  61.0519992 126.2769978 131.9210014
  62.3629992 126.9109978 132.3370014  61.4985984 126.9464638 132.2465603
  58.0319992 120.7389978 127.6840014  57.5839992 121.5849978 127.6650014
  57.4709992 120.1599978 127.1680014  57.8949603 120.7763674 127.6116720
  58.7419992 122.9009978 129.8100014  58.9559992 122.1309978 130.3370014
  59.4799992 122.9909978 129.2060014  58.8709652 122.8078012 129.8005212
  68.9479992 131.0579978 130.6770014  69.5669992 130.3819978 130.4030014
  68.7389992 130.8399978 131.5850014  69.0046232 130.9357938 130.7622517
  66.5189992 125.4469978 132.5690014  66.8229992 124.7609978 131.9750014
  67.2409992 125.5659978 133.1870014  66.6581152 125.3692189 132.5712123
  75.1819992 117.0489978 133.4300014  75.2319992 117.6589978 134.1660014
  75.6079992 117.5099978 132.7070014  75.2464108 117.1947709 133.4330112
  69.6599992 119.8409978 132.8970014  69.8029992 118.8949978 132.9170014
  69.5539992 120.0479978 131.9680014  69.6652509 119.7394813 132.7742231
  62.8149992 117.9429978 130.1690014  62.8579992 118.8029978 129.7510014
  62.3569992 117.3909978 129.5350014  62.7589815 117.9860621 130.0261197
  70.5369992 118.0739978 128.5700014  71.1839992 117.7449978 129.1950014
  71.0469992 118.5909978 127.9470014  70.6944317 118.0989227 128.5712167
  59.4349992 120.3399978 130.9310014  60.0889992 119.7899978 131.3630014
  59.4589992 120.0659978 130.0140014  59.5277199 120.2277167 130.8661668
  64.5919992 121.8899978 130.1460014  65.2079992 121.3629978 130.6560014
  64.0049992 121.2499978 129.7430014  64.5969239 121.7314117 130.1612952
  75.5739992 118.5269978 135.6660014  74.8849992 119.1849978 135.5700014
  75.5889992 118.3289978 136.6020014  75.4816740 118.5903242 135.7794630
  61.6249992 116.8609978 134.2430014  61.4059992 117.3909978 133.4770014
  60.9569992 117.0869978 134.8900014  61.5047001 116.9641154 134.2256064
  68.9939992 126.3609978 127.7870014  68.6989992 126.0379978 126.9360014
  68.6699992 127.2609978 127.8280014  68.9097983 126.4384026 127.6759771
  64.1939992 124.5359978 134.5310014  63.4539992 125.1349978 134.6340014
  64.9079992 125.0899978 134.2150014  64.1893288 124.6927356 134.5023805
  72.3009992 117.3649978 130.5500014  72.0859992 116.5989978 131.0830014
  72.9569992 117.8369978 131.0630014  72.3602673 117.3240728 130.6921990
  61.2189992 118.7529978 132.1950014  61.8329992 119.3859978 132.5690014
  61.7309992 118.2809978 131.5390014  61.3722277 118.7757352 132.1574279
  62.6019992 126.5009978 135.3180014  62.5959992 127.3799978 134.9400014
  61.7479992 126.4169978 135.7430014  62.4857925 126.6099535 135.3236887
  58.7229992 126.1719978 126.1000014  58.4509992 126.4009978 125.2110014
  58.7679992 127.0089978 126.5600014  58.6918709 126.3166058 126.0406107
  72.3479992 127.7929978 132.8120014  71.4059992 127.8519978 132.9740014
  72.6239992 128.6989978 132.6750014  72.2565865 127.9235288 132.8156192
  72.6479992 116.0799978 134.2300014  71.9119992 116.6899978 134.1920014
  73.3319992 116.4949978 133.7030014  72.6395506 116.2196400 134.1536051
  65.6519992 114.1659978 131.6960014  65.5339992 113.2179978 131.6410014
  64.7969992 114.4989978 131.9690014  65.5202679 114.0811926 131.7253720
  70.5999992 129.5739978 129.4380014  71.0249992 128.8669978 128.9530014
  70.9169992 130.3759978 129.0210014  70.7010266 129.5855190 129.3152479
  71.7599992 127.4749978 127.9460014  71.5019992 126.7849978 127.3350014
  71.8309992 127.0319978 128.7920014  71.7342837 127.3207106 127.9766912
  73.4459992 126.0419978 136.4240014  73.5849992 125.4499978 135.6840014
  73.6129992 126.9149978 136.0670014  73.4875562 126.0789896 136.2746283
  67.9179992 123.0039978 126.1960014  67.2069992 123.5389978 125.8440014
  68.6089992 123.0589978 125.5360014  67.9140751 123.0846777 126.0585858
  67.9719992 121.4609978 123.2350014  68.6729992 121.4839978 123.8860014
  68.2739992 120.8329978 122.5790014  68.1088282 121.3792339 123.2354496
  75.2869992 122.3819978 134.4900014  74.6349992 123.0759978 134.5790014
  75.7529992 122.5919978 133.6800014  75.2605937 122.5055019 134.3927533
  71.3239992 123.2129978 127.1480014  70.5919992 123.4419978 127.7210014
  71.7709992 122.4999978 127.6030014  71.2842753 123.1478972 127.2879715
  71.2209992 121.3879978 136.2160014  71.3009992 122.1509978 136.7870014
  70.6199992 121.6669978 135.5250014  71.1507245 121.5302630 136.2008424
  62.9689992 123.8439978 129.0300014  62.6389992 123.4729978 128.2120014
  63.5579992 123.1729978 129.3770014  63.0033970 123.7026063 128.9649404
  64.3359992 127.2719978 131.7120014  64.2409992 126.6929978 130.9550014
  65.0649992 126.9009978 132.2080014  64.4216161 127.1425891 131.6755209
  63.3359992 122.6119978 132.6640014  63.9009992 122.7339978 131.9010014
  63.6549992 123.2499978 133.3030014  63.4563977 122.7148851 132.6459424
  69.6449992 128.1159978 133.3980014  69.4049992 128.7779978 134.0460014
  69.4469992 127.2809978 133.8230014  69.5853826 128.0938115 133.5441566
  64.2159992 127.0119978 137.3810014  63.9049992 127.7939978 137.8360014
  63.5659992 126.8589978 136.6950014  64.0855538 127.0984087 137.3505898
  70.1949992 122.3759978 124.8330014  70.7739992 122.5259978 125.5800014
  70.6089992 122.8459978 124.1100014  70.3303122 122.4601277 124.8375042
  61.1359992 123.2099978 136.6100014  61.2059992 123.8609978 137.3080014
  60.2449992 123.3129978 136.2750014  61.0251802 123.3129757 136.6602249
  67.9209992 129.1119978 128.2680014  68.3949992 129.4079978 129.0460014
  67.3579992 129.8509978 128.0350014  67.9097361 129.2522721 128.3428611
  62.4549992 129.0829978 138.1440014  62.4629992 128.9469978 137.1970014
  61.5389992 128.9659978 138.3960014  62.3322528 129.0485463 138.0483243
  73.8939992 114.1259978 124.6460014  72.9939992 114.2649978 124.9410014
  74.1459992 114.9569978 124.2440014  73.8048683 114.2574055 124.6320232
  61.9599992 122.9129978 126.6200014  61.6679992 123.6809978 126.1290014
  61.2849992 122.2539978 126.4570014  61.8288497 122.9289745 126.5308260
  75.0829992 128.4919978 123.0220014  75.1559992 129.4309978 123.1930014
  75.9879992 128.1869978 122.9660014  75.2154158 128.5793061 123.0378392
  58.0529992 125.2759978 135.4350014  57.5509992 125.2479978 134.6200014
  58.0579992 124.3709978 135.7440014  57.9850416 125.1497368 135.3653766
  57.8029992 128.0569978 132.3190014  58.7489992 127.9119978 132.3000014
  57.6899992 128.8409978 132.8560014  57.9173578 128.1431697 132.3890317
  76.0009992 128.7229978 138.0010014  75.9509992 127.7669978 137.9640014
  75.1739992 128.9899978 138.4020014  75.8823987 128.6285174 138.0501446
  66.9789992 128.2969978 136.8770014  67.0669992 129.1229978 137.3520014
  66.1159992 127.9669978 137.1260014  66.8743357 128.3655468 136.9757653
  67.3939992 132.0689978 126.6830014  67.3179992 131.9479978 125.7370014
  67.4259992 133.0179978 126.8020014  67.3879156 132.1807530 126.5695048
  61.0469992 130.8579978 128.4640014  61.1989992 130.5099978 129.3430014
  60.1959992 130.5009978 128.2090014  60.9527899 130.7621738 128.5497340
  70.4949992 131.2229978 123.6850014  70.8699992 130.4789978 123.2150014
  70.4999992 130.9529978 124.6040014  70.5470024 131.0846950 123.7447987
  70.1639992 131.1489978 126.4350014  69.2289992 131.2489978 126.6130014
  70.4439992 130.4389978 127.0130014  70.0738173 131.0667239 126.5374998
  73.1529992 120.2159978 138.4810014  72.7449992 120.6959978 137.7610014
  73.1929992 119.3099978 138.1730014  73.1025476 120.1593160 138.3408247
  60.3019992 126.5999978 136.4780014  60.5179992 126.2379978 137.3370014
  59.4459992 126.2249978 136.2680014  60.2159354 126.4997906 136.5672160
  62.9199992 115.0699978 132.4730014  62.0589992 114.9829978 132.0660014
  62.8979992 115.9259978 132.9010014  62.7990411 115.1737884 132.4750857
  67.5829992 114.7919978 135.8480014  68.0029992 114.3769978 136.6010014
  66.6499992 114.6129978 135.9650014  67.5143736 114.7109910 135.9668968
  70.9099992 118.5469978 136.7010014  70.3959992 118.4219978 137.4990014
  70.7539992 119.4599978 136.4570014  70.8186967 118.6532123 136.7770937
  71.6719992 123.4079978 122.4630014  71.7139992 123.1859978 121.5330014
  72.5209992 123.8069978 122.6530014  71.7925253 123.4315498 122.3613822
  67.2449992 117.2839978 123.1330014  66.9909992 117.3029978 124.0560014
  66.9879992 116.4129978 122.8320014  67.1755133 117.1688110 123.2185082
  63.0109992 120.0349978 133.5680014  62.3699992 119.9949978 134.2770014
  63.0489992 120.9619978 133.3310014  62.9283670 120.1547795 133.6330550
  63.0079992 120.2559978 128.4800014  62.1159992 119.9159978 128.4220014
  63.4589992 119.8789978 127.7250014  62.9466815 120.1583762 128.3699203
  68.5439992 120.6719978 127.2970014  68.1349992 121.4869978 127.0060014
  69.2639992 120.5319978 126.6830014  68.5854013 120.7646571 127.1740875
  67.6459992 120.8479978 138.7850014  67.0829992 120.1429978 139.1060014
  68.4719992 120.7269978 139.2530014  67.6806674 120.7352165 138.8921751
  69.5489992 120.1179978 130.1110014  69.3529992 120.7239978 129.3960014
  69.7299992 119.2849978 129.6770014  69.5466584 120.0882513 129.9544212
  60.7609992 120.3559978 135.4350014  60.7229992 120.7559978 136.3040014
  60.2709992 119.5389978 135.5260014  60.6895621 120.3002510 135.5661377
  64.1269992 117.7299978 122.2340014  63.6959992 117.2849978 122.9640014
  63.4089992 118.1009978 121.7220014  63.9709363 117.7192968 122.2646211
  57.3699992 117.4719978 129.2860014  57.9999992 117.4429978 130.0050014
  57.8189992 117.0469978 128.5560014  57.5170692 117.4105316 129.2857771
  58.6439992 118.2179978 124.7100014  59.1179992 118.8089978 124.1250014
  57.9259992 118.7479978 125.0570014  58.6118640 118.3705511 124.6767969
  68.8129992 121.7559978 134.7830014  69.1359992 121.1249978 134.1400014
  68.3719992 121.2219978 135.4430014  68.7975789 121.5973522 134.7842232
  65.5899992 117.6839978 129.5670014  64.6789992 117.7409978 129.8550014
  66.0949992 117.6239978 130.3770014  65.5335387 117.6836870 129.7160646
  60.4179992 119.3129978 128.3930014  59.5289992 119.4119978 128.0530014
  60.7149992 118.4709978 128.0470014  60.3364177 119.2127687 128.2996940
  64.0709992 119.3129978 126.0500014  65.0029992 119.4419978 126.2280014
  63.8559992 119.9819978 125.4000014  64.1694472 119.4210806 125.9864891
  69.9949992 116.9189978 132.8310014  69.3179992 117.0499978 133.4950014
  69.5099992 116.7639978 132.0210014  69.8367265 116.9159659 132.8123397
  62.7449992 120.5069978 123.6170014  62.2029992 120.1279978 122.9250014
  63.5789992 120.7019978 123.1880014  62.7835159 120.4815076 123.4644419
  73.2829992 132.5899978 139.1080014  73.4819992 133.0139978 138.2730014
  73.9379992 132.9339978 139.7150014  73.3988501 132.6946091 139.0757097
  60.8809992 125.0639978 138.7160014  61.6129992 125.3189978 139.2770014
  60.0999992 125.2689978 139.2310014  60.8757684 125.1266468 138.8624782
  66.9099992 120.4709978 131.4540014  67.4739992 119.9249978 130.9070014
  66.7619992 119.9499978 132.2420014  66.9672575 120.3256552 131.4856987
  61.9119992 116.6079978 127.8720014  61.5949992 115.7049978 127.8370014
  62.6929992 116.6099978 127.3190014  61.9742307 116.4846951 127.7924314
  65.5359992 118.8599978 133.8680014  64.7009992 119.3139978 133.9780014
  66.0599992 119.1359978 134.6200014  65.4925070 118.9594666 133.9847152
  66.0809992 125.0729978 125.5520014  65.3359992 124.5649978 125.2300014
  65.9459992 125.1219978 126.4990014  65.9609047 125.0101596 125.6358845
  73.2309992 124.2059978 134.3390014  73.8719992 124.6619978 133.7950014
  72.3999992 124.3189978 133.8770014  73.2065171 124.2837502 134.2020237
  69.9779992 117.8869978 123.7520014  69.0399992 117.9979978 123.6000014
  70.2759992 118.7429978 124.0580014  69.8896402 118.0180621 123.7725571
  67.5999992 125.2569978 136.7890014  67.2539992 124.8749978 137.5960014
  67.3999992 126.1899978 136.8610014  67.5256523 125.3309095 136.9090735
  70.6969992 119.7539978 125.4120014  71.5889992 119.6159978 125.7310014
  70.7529992 120.5449978 124.8760014  70.8267107 119.8420526 125.3832091
  61.2049992 124.3679978 131.3220014  61.9499992 124.3649978 130.7210014
  61.2829992 123.5439978 131.8040014  61.3174158 124.2562916 131.3049153
  68.2059992 126.5309978 124.5780014  67.9109992 127.3579978 124.9590014
  67.5029992 125.9119978 124.7740014  68.0705471 126.5605227 124.6566698
  58.2129992 122.8279978 136.6370014  58.4359992 122.4099978 137.4690014
  57.6109992 122.2159978 136.2140014  58.1621260 122.6879933 136.6937320
  65.2299992 122.3449978 138.8500014  64.9339992 122.1799978 137.9550014
  66.1609992 122.1249978 138.8390014  65.3153982 122.2926578 138.7260045
  69.8499992 127.7189978 136.7400014  68.9499992 127.9019978 136.4720014
  69.8839992 127.9779978 137.6610014  69.7312909 127.7790815 136.8277852
  75.5819992 119.9629978 125.1070014  75.0269992 119.5669978 124.4350014
  75.6819992 120.8739978 124.8290014  75.5195888 120.0318990 124.9775206
  75.5449992 125.7639978 137.9440014  74.6939992 126.0019978 137.5770014
  76.1349992 125.7469978 137.1910014  75.5082408 125.7942966 137.7918879
  73.8769992 128.7489978 125.5720014  73.5039992 127.9239978 125.8810014
  74.1539992 128.5659978 124.6750014  73.8633871 128.6112441 125.4929677
  71.0369992 123.5569978 132.5930014  70.1089992 123.3259978 132.5660014
  71.4879992 122.7799978 132.2630014  70.9708165 123.4202774 132.5446790
  63.5799992 127.8859978 128.7260014  64.1079992 128.6589978 128.5260014
  62.6999992 128.1099978 128.4250014  63.5333176 128.0223161 128.6578409
  59.3349992 122.7479978 123.3140014  59.9509992 123.3749978 123.6930014
  58.4729992 123.0639978 123.5850014  59.3028195 122.8765798 123.4025386
  65.0079992 125.5489978 128.3030014  64.7669992 126.4739978 128.3440014
  64.2669992 125.0899978 128.6990014  64.8748390 125.6136403 128.3621404
  65.5219992 129.6979978 134.6180014  65.8849992 130.5519978 134.3840014
  66.0539992 129.4059978 135.3580014  65.6436090 129.7754058 134.6860219
  63.6909992 130.5699978 127.8480014  62.7409992 130.6759978 127.8990014
  64.0429992 131.3909978 128.1930014  63.6085480 130.6954438 127.9015999
  69.0659992 125.7969978 134.3180014  68.6409992 125.5689978 135.1450014
  69.6469992 125.0579978 134.1360014  69.0863930 125.6659843 134.4064732
  71.2689992 126.7259978 123.3920014  71.6229992 126.3459978 124.1970014
  70.3209992 126.6319978 123.4790014  71.1891820 126.6613091 123.5138714
  71.7249992 130.3489978 136.7880014  71.1229992 129.7929978 136.2920014
  72.0059992 131.0159978 136.1620014  71.6806829 130.3631613 136.6355443
  75.7729992 131.2049978 123.5930014  76.5169992 131.7909978 123.4530014
  75.0789992 131.7739978 123.9270014  75.7810201 131.3620603 123.6189772
  59.8469992 117.5819978 136.1950014  58.9549992 117.9199978 136.1280014
  59.7489992 116.7259978 136.6130014  59.7114965 117.5126499 136.2423044
  72.1349992 125.3979978 125.6190014  71.8579992 124.6699978 126.1750014
  73.0629992 125.5169978 125.8240014  72.2224499 125.3144213 125.7228044
  59.4989992 129.3859978 134.6300014  59.7159992 128.4539978 134.5990014
  59.7449992 129.6609978 135.5130014  59.5619809 129.2955686 134.7451691
  65.3599992 127.8379978 121.8390014  65.5989992 127.0889978 121.2920014
  65.0909992 127.4499978 122.6720014  65.3563233 127.6831853 121.8767809
  64.2969992 127.4079978 124.2960014  64.4439992 126.8879978 125.0860014
  64.2939992 128.3149978 124.6020014  64.3167300 127.4593964 124.4455895
  60.7499992 124.6599978 124.8060014  60.0639992 125.0129978 125.3730014
  61.2729992 125.4229978 124.5600014  60.7269033 124.8113746 124.8502661
  68.5819992 117.3229978 135.0850014  69.2809992 117.3969978 135.7350014
  68.2009992 116.4579978 135.2390014  68.6262097 117.2162389 135.1947997
  69.3659992 116.9749978 126.1820014  69.5859992 117.4459978 125.3790014
  69.9249992 117.3689978 126.8520014  69.4716730 117.0927432 126.1625906
  67.0349992 129.1049978 125.0450014  66.2179992 129.6019978 125.0970014
  67.5639992 129.5809978 124.4050014  66.9948508 129.2372543 124.9656035
  66.5659992 118.7029978 127.0170014  67.3779992 119.2069978 127.0630014
  66.3219992 118.5579978 127.9310014  66.6441467 118.7523749 127.1468575
  67.1019992 119.6889978 136.2020014  67.2209992 120.2629978 136.9590014
  67.7569992 119.0009978 136.3160014  67.2069146 119.6745574 136.3211314
  67.4499992 115.7839978 127.9550014  67.1029992 116.4009978 128.6000014
  68.1089992 116.2849978 127.4740014  67.4915950 115.9361099 127.9782271
  64.3729992 130.1489978 125.0270014  64.5339992 130.9489978 124.5260014
  64.1759992 130.4559978 125.9120014  64.3683919 130.2999129 125.0781006
  63.1079992 116.8469978 124.6420014  63.0239992 117.7349978 124.9890014
  63.9979992 116.5819978 124.8740014  63.2168163 116.9327179 124.7208596
  73.3059992 117.5959978 137.0370014  72.3899992 117.8579978 136.9490014
  73.6419992 117.5929978 136.1400014  73.2259789 117.6314626 136.9037847
  71.9089992 121.3459978 131.1320014  71.1109992 120.9309978 130.8040014
  72.3539992 120.6559978 131.6230014  71.8599684 121.1958628 131.1535227
  61.3659992 127.2739978 123.7030014  61.9579992 127.9739978 123.9790014
  61.8249992 126.8409978 122.9830014  61.5090791 127.3112908 123.6434607
  59.6819992 119.9389978 122.8190014  59.6369992 120.8779978 122.9970014
  58.7939992 119.7029978 122.5490014  59.5558555 120.0356874 122.8068939
  72.9949992 130.6019978 132.7550014  72.8389992 131.2809978 132.0980014
  73.9279992 130.6739978 132.9580014  73.0997387 130.7046390 132.6925342
  60.4899992 114.7199978 131.4920014  60.2609992 114.7789978 130.5640014
  60.0479992 113.9289978 131.7980014  60.3988801 114.6210540 131.4064729
  59.4209992 128.6609978 127.6520014  58.5879992 129.1329978 127.6800014
  59.9659992 129.1709978 127.0540014  59.3807590 128.7945897 127.5749194
  58.7089992 131.2729978 138.9820014  59.2489992 131.0569978 139.7420014
  58.2279992 130.4679978 138.7930014  58.7178613 131.1345400 139.0604782
  63.3059992 130.1929978 140.6030014  64.0739992 129.7339978 140.9440014
  63.2849992 129.9669978 139.6730014  63.4082135 130.0996668 140.5239491
  67.3979992 129.7009978 121.9780014  66.7539992 129.0699978 122.2990014
  68.1599992 129.1699978 121.7460014  67.4128058 129.5427902 121.9906038
  69.8829992 128.5729978 139.3320014  69.5319992 127.7159978 139.5750014
  70.6089992 128.7149978 139.9390014  69.9331590 128.4750178 139.4472907
  72.0029992 129.5179978 122.2120014  72.2859992 128.7229978 122.6640014
  72.7419992 129.7509978 121.6510014  72.1416956 129.4407031 122.1979822
  58.6159992 125.0839978 139.9370014  58.7599992 124.1819978 139.6500014
  57.8439992 125.3699978 139.4490014  58.5313303 124.9993243 139.8317908
  62.9569992 125.4269978 122.0690014  63.0219992 124.6329978 122.6000014
  63.6099992 125.3089978 121.3790014  63.0541754 125.3023337 122.0484259
  65.2709992 125.0529978 139.3690014  64.9429992 125.3239978 138.5120014
  65.4229992 124.1119978 139.2820014  65.2466030 124.9628973 139.2397945
  68.3099992 126.4739978 121.8050014  68.0409992 126.6549978 122.7060014
  68.1029992 125.5489978 121.6740014  68.2452000 126.3736774 121.9105693
  71.0059992 124.9689978 136.7530014  71.7509992 125.5579978 136.6330014
  70.2489992 125.5509978 136.8160014  71.0055205 125.1281997 136.7451119
  59.4489992 122.2839978 139.3570014  59.8569992 121.4269978 139.2360014
  59.1879992 122.2979978 140.2780014  59.4696016 122.1685119 139.4649192
  64.1069992 123.3999978 124.3750014  63.6469992 122.9159978 125.0610014
  64.3619992 122.7309978 123.7390014  64.0785038 123.2433689 124.3829447
  63.3959992 121.2929978 136.7310014  62.7769992 121.9669978 137.0110014
  63.7399992 121.6139978 135.8980014  63.3577605 121.4287198 136.6566707
  65.1779992 121.6429978 122.6370014  64.9969992 121.4879978 121.7100014
  66.1279992 121.7509978 122.6820014  65.2816566 121.6363669 122.5160929
  68.4149992 123.7639978 140.0080014  69.3689992 123.8479978 139.9810014
  68.2549992 123.0519978 140.6280014  68.5237182 123.6792842 140.0880733
  74.5679992 123.9969978 122.0830014  74.2939992 123.5729978 121.2700014
  74.6069992 124.9289978 121.8660014  74.5357716 124.0648827 121.9424286
  63.7349992 118.6479978 137.8130014  63.8849992 117.9189978 137.2110014
  63.7369992 119.4249978 137.2540014  63.7557967 118.6532708 137.6550541
  64.1479992 117.0169978 135.3060014  64.6829992 117.4689978 134.6540014
  63.2949992 116.9089978 134.8830014  64.1060374 117.0642665 135.1596710
  65.7289992 122.4569978 135.5450014  66.4799992 122.3009978 134.9720014
  65.3899992 123.3089978 135.2700014  65.7859587 122.5508138 135.4294078
  70.1449992 120.2719978 140.5740014  70.3369992 119.3409978 140.4620014
  71.0029992 120.6969978 140.5640014  70.2872269 120.2019928 140.5573192
  71.4619992 123.0609978 138.6510014  71.1799992 123.7699978 138.0740014
  72.4039992 122.9879978 138.5000014  71.5507656 123.1483128 138.5514809
  62.2139992 119.8459978 139.7250014  61.4459992 119.3129978 139.5150014
  62.8919992 119.5359978 139.1250014  62.2006973 119.7312375 139.6151796
  64.9529992 114.4739978 135.7370014  64.8549992 115.4199978 135.6320014
  64.2109992 114.1009978 135.2620014  64.8391913 114.5531813 135.6583539
  66.2169992 118.7949978 139.3010014  65.9819992 118.5759978 140.2030014
  65.4339992 118.5879978 138.7910014  66.0789219 118.7370066 139.3555852
  68.9329992 117.9229978 138.3770014  67.9849992 117.9549978 138.5090014
  69.2449992 117.2969978 139.0300014  68.8455190 117.8427262 138.4833564
  70.5669992 116.5569978 140.3820014  70.4699992 115.6049978 140.3760014
  70.2449992 116.8249978 141.2420014  70.5101761 116.4629744 140.4974936
  60.3939992 117.7659978 139.4290014  60.6059992 117.0599978 138.8190014
  60.2829992 117.3289978 140.2730014  60.4080269 117.6101921 139.4595873
  65.1749992 113.7679978 138.4090014  65.8869992 113.1279978 138.3950014
  65.0739992 114.0339978 137.4950014  65.2587261 113.7164190 138.2835537
  65.5289992 115.4499978 140.4620014  65.3969992 114.9749978 139.6420014
  64.9289992 116.1949978 140.4070014  65.4299070 115.4855789 140.3423251
  65.0749992 132.3329978 123.6390014  66.0079992 132.4909978 123.7820014
  64.8109992 133.0089978 123.0140014  65.1669308 132.4459104 123.5741396
  58.6429992 126.9699978 123.1210014  59.5569992 127.0489978 123.3950014
  58.6509992 126.2829978 122.4550014  58.7691143 126.8879085 123.0684274
  57.2919992 132.3629978 128.1990014  56.6449992 131.9009978 127.6660014
  57.6469992 131.6909978 128.7810014  57.2514506 132.2089503 128.2047341
  58.1619992 130.4429978 130.0030014  57.8279992 129.5629978 130.1750014
  58.3849992 130.7889978 130.8680014  58.1463721 130.3691938 130.1434168
  75.7109992 131.2529978 132.9840014  75.6889992 131.4379978 133.9230014
  76.4009992 131.8209978 132.6430014  75.8013439 131.3551887 133.0664791
  75.2739992 130.8199978 135.9060014  74.7869992 130.0849978 135.5350014
  75.8229992 130.4259978 136.5840014  75.2815247 130.6661057 135.9468461
  73.7249992 126.6099978 140.5440014  72.8589992 126.5049978 140.9380014
  74.1009992 127.3679978 140.9900014  73.6573401 126.6981708 140.6582620
  75.0259992 124.8659978 126.0580014  75.8759992 125.2869978 126.1850014
  75.0309992 124.1259978 126.6650014  75.1431143 124.8236094 126.1574750
  75.4199992 122.9199978 127.8820014  74.6939992 122.4399978 128.2790014
  76.0019992 123.1249978 128.6140014  75.3991635 122.8819166 128.0353748
  75.1789992 125.7049978 132.8290014  76.0129992 125.3269978 132.5490014
  75.2909992 126.6479978 132.7100014  75.3082522 125.7807742 132.7746020
  73.6659992 128.5829978 135.1360014  73.0179992 128.9079978 135.7620014
  73.1479992 128.1419978 134.4620014  73.5074168 128.5678523 135.1305307
  75.6889992 122.8209978 124.2730014  75.1669992 123.1769978 123.5540014
  75.6559992 123.4959978 124.9510014  75.6130699 122.9609848 124.2662129
  74.0379992 120.0599978 122.8240014  74.1339992 120.7269978 122.1440014
  73.8979992 119.2449978 122.3420014  74.0322063 120.0410667 122.6658377
  73.2069992 121.4409978 128.4450014  73.0569992 120.4959978 128.4240014
  72.8529992 121.7219978 129.2880014  73.1385527 121.3495605 128.5561859
  58.2419992 123.5189978 132.4550014  58.4269992 123.4369978 131.5190014
  59.0919992 123.3949978 132.8790014  58.3820916 123.4910393 132.3842896
  74.0629992 123.4109978 138.0830014  74.6459992 122.6759978 138.2750014
  74.6269992 124.1829978 138.1300014  74.2189781 123.4148145 138.1156164
  75.5599992 121.3139978 138.7680014  74.6969992 120.9349978 138.6020014
  76.1639992 120.5749978 138.6940014  75.5235944 121.1622978 138.7352984
  73.2849992 117.4679978 121.9410014  73.8959992 117.0969978 122.5780014
  72.4479992 117.0469978 122.1370014  73.2554947 117.3602756 122.0547252
  72.9179992 119.0229978 126.9070014  73.1969992 118.1159978 127.0310014
  73.6769992 119.4569978 126.5180014  73.0588619 118.9574502 126.8713795
  73.5289992 119.6049978 132.3430014  74.4619992 119.8169978 132.3090014
  73.2939992 119.7059978 133.2650014  73.6248308 119.6476503 132.4630214
  73.5589992 120.3419978 135.1190014  72.7159992 120.6099978 135.4850014
  74.0009992 121.1639978 134.9080014  73.5034138 120.4898273 135.1405518
  57.8399992 118.7889978 138.5960014  58.7589992 118.6669978 138.8320014
  57.3899992 118.0389978 138.9850014  57.9051148 118.6708751 138.6809408
  75.8419992 114.3219978 140.4720014  76.1909992 113.6679978 139.8670014
  75.9889992 115.1589978 140.0330014  75.9097355 114.3456067 140.3296564
  73.5309992 116.2859978 126.9550014  73.7129992 115.8369978 127.7810014
  72.9309992 115.7019978 126.4920014  73.4747529 116.1456131 127.0053619
  59.0609992 117.1019978 131.4870014  59.5059992 116.3099978 131.7890014
  59.5269992 117.8179978 131.9180014  59.1849059 117.0904474 131.5866079
  57.3649992 120.1009978 132.5560014  57.8569992 119.8799978 131.7650014
  57.7269992 120.9409978 132.8370014  57.4812923 120.1843468 132.4857407
  75.3609992 116.4309978 138.8220014  74.4439992 116.7019978 138.7860014
  75.4839992 115.8959978 138.0380014  75.2520828 116.3957700 138.7110785
  75.3979992 116.3539978 123.4830014  75.8099992 115.6329978 123.0080014
  76.0789992 117.0229978 123.5420014  75.5465900 116.3457306 123.4259038
  57.6789992 116.3589978 126.6100014  56.7539992 116.5669978 126.4810014
  58.1329992 116.8429978 125.9210014  57.6136374 116.4529949 126.4990957
  72.4489992 131.3429978 128.5560014  73.1019992 130.9949978 127.9480014
  72.9599992 131.8309978 129.2020014  72.6072777 131.3613815 128.5602047
  57.6419992 115.0969978 134.9550014  56.9769992 114.8509978 135.5980014
  57.1989992 115.7189978 134.3770014  57.4910937 115.1473614 134.9649379
  59.8339992 128.2719978 139.0990014  59.0129992 128.4469978 138.6390014
  59.5819992 128.1989978 140.0200014  59.6876173 128.2860794 139.1604972
  62.7879992 129.2459978 135.3580014  62.3639992 130.0559978 135.0750014
  63.6929992 129.3319978 135.0560014  62.8522433 129.3683331 135.2785377
  67.0999992 130.6449978 138.3170014  67.2839992 130.3119978 139.1950014
  67.9459992 130.9549978 137.9950014  67.2396484 130.6412979 138.3937617
  69.4449992 131.9309978 137.5610014  70.1219992 131.2979978 137.3210014
  69.7659992 132.3319978 138.3680014  69.5811323 131.8985691 137.6373158
  74.3619992 114.5209978 136.6410014  73.5489992 114.8459978 136.2530014
  74.5949992 113.7599978 136.1080014  74.2822566 114.4626559 136.5159213
  60.1899992 132.5029978 135.4050014  59.4699992 132.9429978 134.9540014
  59.8249992 132.2519978 136.2540014  60.0419796 132.5293824 135.4579329
  62.6569992 132.1029978 134.4350014  61.7929992 132.1749978 134.8390014
  62.6019992 132.6499978 133.6510014  62.5311942 132.1867849 134.3844000
  67.3679992 131.9909978 133.6100014  66.9109992 132.5199978 132.9560014
  67.5309992 132.5939978 134.3360014  67.3274476 132.1449140 133.6185499
  69.6959992 130.8689978 134.5550014  68.7909992 131.0339978 134.2900014
  70.1239992 131.7219978 134.4900014  69.6300700 131.0069529 134.5099520
  72.2999992 132.4389978 134.8500014  72.1179992 133.3549978 134.6400014
  72.4769992 132.0279978 134.0040014  72.2989907 132.5089741 134.7067883
  59.6049992 131.1259978 132.3150014  59.5869992 130.6999978 133.1730014
  60.4099992 130.8069978 131.9070014  59.7113221 131.0247233 132.3770225
  61.7459992 129.8359978 130.9700014  61.5269992 128.9189978 131.1400014
  62.5699992 129.9759978 131.4360014  61.8274702 129.7295511 131.0562527
  64.2829992 130.3059978 131.8190014  64.4959992 129.4179978 131.5320014
  64.3479992 130.2709978 132.7740014  64.3209075 130.1798307 131.9087373
  67.7919992 115.9699978 130.9630014  67.1179992 115.3399978 131.2190014
  68.3559992 115.4859978 130.3600014  67.7760384 115.8183708 130.9165020
  72.9349992 114.0769978 131.0760014  73.5379992 114.6249978 130.5740014
  72.0649992 114.3959978 130.8360014  72.8999190 114.1951041 130.9748679
  74.6619992 115.2159978 129.4090014  75.2729992 114.7019978 128.8830014
  75.0439992 116.0929978 129.4330014  74.7974475 115.2641323 129.3401208
  60.1189992 114.6039978 128.7850014  59.3419992 114.3689978 128.2780014
  60.6489992 113.8069978 128.7940014  60.0843451 114.4641268 128.7168627
  58.9549992 114.4019978 124.5890014  59.3939992 115.0129978 123.9970014
  58.3209992 114.9399978 125.0630014  58.9293859 114.5584064 124.5720305
  64.6979992 114.5299978 128.5990014  65.5719992 114.9189978 128.5690014
  64.5619992 114.3149978 129.5210014  64.7993207 114.5541923 128.7196509
  70.2549992 114.5599978 130.2480014  70.3309992 114.6559978 129.2990014
  69.9799992 113.6529978 130.3770014  70.2282042 114.4504241 130.1353811
  71.6079992 114.5859978 125.9400014  70.9049992 115.2009978 125.7310014
  71.1629992 113.7489978 126.0720014  71.4516292 114.5570085 125.9292439
  58.8559992 130.3499978 125.4870014  58.1709992 130.3119978 124.8190014
  58.8599992 131.2629978 125.7750014  58.7628174 130.4681998 125.4345310
  60.8159992 116.3179978 123.0310014  61.3069992 115.6879978 122.5040014
  61.4389992 116.6139978 123.6950014  60.9675062 116.2716770 123.0485438
  65.8419992 116.6109978 125.4890014  66.0199992 115.9639978 126.1710014
  65.7879992 117.4449978 125.9560014  65.8591025 116.6350504 125.6456433
  67.7199992 131.5589978 123.8840014  68.5859992 131.9259978 123.7060014
  67.4739992 131.1199978 123.0700014  67.8052097 131.5498525 123.7496019
  74.4289992 131.1219978 126.5630014  74.2349992 130.3739978 125.9980014
  74.3899992 131.8799978 125.9800014  74.3971645 131.1220786 126.4068148
  60.0759992 115.1179978 138.3030014  59.7099992 114.3519978 138.7460014
  60.9889992 115.1469978 138.5900014  60.1493225 115.0171906 138.4023459
  62.0489992 114.4679978 139.8390014  62.9479992 114.1939978 139.6540014
  61.6629992 113.7259978 140.3030014  62.1197237 114.3301508 139.8764710
  60.6739992 131.2699978 122.5120014  60.4059992 131.5559978 123.3850014
  61.4449992 130.7239978 122.6640014  60.7415600 131.2353330 122.6521499
  70.4709992 113.8009978 140.0210014  70.5469992 113.3749978 140.8750014
  71.3639992 113.8139978 139.6780014  70.6022267 113.7443952 140.0915932
  73.6469992 129.8739978 138.7130014  72.8649992 129.6869978 138.1940014
  73.5749992 130.8029978 138.9310014  73.5300863 129.9740221 138.6713574
  88.0529992 123.7599978 128.7440014  88.1419992 124.7039978 128.6120014
  87.4149992 123.4849978 128.0860014  87.9789062 123.8519812 128.6369641
  86.9859992 123.0149978 132.1630014  86.9479992 122.3689978 132.8680014
  86.6639992 122.5479978 131.3920014  86.9372679 122.8634276 132.1552921
  79.3539992 122.6289978 133.7560014  79.3959992 122.0039978 134.4790014
  80.0569992 123.2529978 133.9380014  79.4547345 122.6277873 133.8795274
  90.6919992 125.9539978 130.4650014  90.2509992 125.2339978 130.9150014
  90.6789992 126.6749978 131.0940014  90.6297960 125.9528329 130.6117567
  80.2779992 127.0789978 132.2910014  79.9079992 126.2769978 131.9210014
  81.2189992 126.9109978 132.3370014  80.3545984 126.9464638 132.2465603
  76.8879992 120.7389978 127.6840014  76.4399992 121.5849978 127.6650014
  76.3269992 120.1599978 127.1680014  76.7509603 120.7763674 127.6116720
  77.5979992 122.9009978 129.8100014  77.8119992 122.1309978 130.3370014
  78.3359992 122.9909978 129.2060014  77.7269652 122.8078012 129.8005212
  87.8039992 131.0579978 130.6770014  88.4229992 130.3819978 130.4030014
  87.5949992 130.8399978 131.5850014  87.8606232 130.9357938 130.7622517
  85.3749992 125.4469978 132.5690014  85.6789992 124.7609978 131.9750014
  86.0969992 125.5659978 133.1870014  85.5141152 125.3692189 132.5712123
  94.0379992 117.0489978 133.4300014  94.0879992 117.6589978 134.1660014
  94.4639992 117.5099978 132.7070014  94.1024108 117.1947709 133.4330112
  88.5159992 119.8409978 132.8970014  88.6589992 118.8949978 132.9170014
  88.4099992 120.0479978 131.9680014  88.5212509 119.7394813 132.7742231
  81.6709992 117.9429978 130.1690014  81.7139992 118.8029978 129.7510014
  81.2129992 117.3909978 129.5350014  81.6149815 117.9860621 130.0261197
  89.3929992 118.0739978 128.5700014  90.0399992 117.7449978 129.1950014
  89.9029992 118.5909978 127.9470014  89.5504317 118.0989227 128.5712167
  78.2909992 120.3399978 130.9310014  78.9449992 119.7899978 131.3630014
  78.3149992 120.0659978 130.0140014  78.3837199 120.2277167 130.8661668
  83.4479992 121.8899978 130.1460014  84.0639992 121.3629978 130.6560014
  82.8609992 121.2499978 129.7430014  83.4529239 121.7314117 130.1612952
  94.4299992 118.5269978 135.6660014  93.7409992 119.1849978 135.5700014
  94.4449992 118.3289978 136.6020014  94.3376740 118.5903243 135.7794630
  80.4809992 116.8609978 134.2430014  80.2619992 117.3909978 133.4770014
  79.8129992 117.0869978 134.8900014  80.3607001 116.9641154 134.2256064
  87.8499992 126.3609978 127.7870014  87.5549992 126.0379978 126.9360014
  87.5259992 127.2609978 127.8280014  87.7657983 126.4384026 127.6759771
  83.0499992 124.5359978 134.5310014  82.3099992 125.1349978 134.6340014
  83.7639992 125.0899978 134.2150014  83.0453288 124.6927356 134.5023805
  91.1569992 117.3649978 130.5500014  90.9419992 116.5989978 131.0830014
  91.8129992 117.8369978 131.0630014  91.2162673 117.3240728 130.6921990
  80.0749992 118.7529978 132.1950014  80.6889992 119.3859978 132.5690014
  80.5869992 118.2809978 131.5390014  80.2282277 118.7757352 132.1574279
  81.4579992 126.5009978 135.3180014  81.4519992 127.3799978 134.9400014
  80.6039992 126.4169978 135.7430014  81.3417925 126.6099535 135.3236887
  77.5789992 126.1719978 126.1000014  77.3069992 126.4009978 125.2110014
  77.6239992 127.0089978 126.5600014  77.5478709 126.3166058 126.0406107
  91.2039992 127.7929978 132.8120014  90.2619992 127.8519978 132.9740014
  91.4799992 128.6989978 132.6750014  91.1125865 127.9235288 132.8156192
  91.5039992 116.0799978 134.2300014  90.7679992 116.6899978 134.1920014
  92.1879992 116.4949978 133.7030014  91.4955506 116.2196400 134.1536051
  84.5079992 114.1659978 131.6960014  84.3899992 113.2179978 131.6410014
  83.6529992 114.4989978 131.9690014  84.3762679 114.0811926 131.7253720
  89.4559992 129.5739978 129.4380014  89.8809992 128.8669978 128.9530014
  89.7729992 130.3759978 129.0210014  89.5570266 129.5855190 129.3152479
  90.6159992 127.4749978 127.9460014  90.3579992 126.7849978 127.3350014
  90.6869992 127.0319978 128.7920014  90.5902837 127.3207106 127.9766912
  92.3019992 126.0419978 136.4240014  92.4409992 125.4499978 135.6840014
  92.4689992 126.9149978 136.0670014  92.3435562 126.0789896 136.2746283
  86.7739992 123.0039978 126.1960014  86.0629992 123.5389978 125.8440014
  87.4649992 123.0589978 125.5360014  86.7700751 123.0846777 126.0585858
  86.8279992 121.4609978 123.2350014  87.5289992 121.4839978 123.8860014
  87.1299992 120.8329978 122.5790014  86.9648282 121.3792339 123.2354496
  94.1429992 122.3819978 134.4900014  93.4909992 123.0759978 134.5790014
  94.6089992 122.5919978 133.6800014  94.1165937 122.5055019 134.3927533
  90.1799992 123.2129978 127.1480014  89.4479992 123.4419978 127.7210014
  90.6269992 122.4999978 127.6030014  90.1402753 123.1478972 127.2879715
  90.0769992 121.3879978 136.2160014  90.1569992 122.1509978 136.7870014
  89.4759992 121.6669978 135.5250014  90.0067245 121.5302630 136.2008424
  81.8249992 123.8439978 129.0300014  81.4949992 123.4729978 128.2120014
  82.4139992 123.1729978 129.3770014  81.8593970 123.7026063 128.9649404
  83.1919992 127.2719978 131.7120014  83.0969992 126.6929978 130.9550014
  83.9209992 126.9009978 132.2080014  83.2776161 127.1425891 131.6755209
  82.1919992 122.6119978 132.6640014  82.7569992 122.7339978 131.9010014
  82.5109992 123.2499978 133.3030014  82.3123977 122.7148851 132.6459424
  88.5009992 128.1159978 133.3980014  88.2609992 128.7779978 134.0460014
  88.3029992 127.2809978 133.8230014  88.4413826 128.0938115 133.5441566
  83.0719992 127.0119978 137.3810014  82.7609992 127.7939978 137.8360014
  82.4219992 126.8589978 136.6950014  82.9415538 127.0984087 137.3505898
  89.0509992 122.3759978 124.8330014  89.6299992 122.5259978 125.5800014
  89.4649992 122.8459978 124.1100014  89.1863122 122.4601277 124.8375042
  79.9919992 123.2099978 136.6100014  80.0619992 123.8609978 137.3080014
  79.1009992 123.3129978 136.2750014  79.8811802 123.3129757 136.6602249
  86.7769992 129.1119978 128.2680014  87.2509992 129.4079978 129.0460014
  86.2139992 129.8509978 128.0350014  86.7657361 129.2522721 128.3428611
  81.3109992 129.0829978 138.1440014  81.3189992 128.9469978 137.1970014
  80.3949992 128.9659978 138.3960014  81.1882528 129.0485463 138.0483243
  92.7499992 114.1259978 124.6460014  91.8499992 114.2649978 124.9410014
  93.0019992 114.9569978 124.2440014  92.6608683 114.2574055 124.6320232
  80.8159992 122.9129978 126.6200014  80.5239992 123.6809978 126.1290014
  80.1409992 122.2539978 126.4570014  80.6848497 122.9289745 126.5308260
  93.9389992 128.4919978 123.0220014  94.0119992 129.4309978 123.1930014
  94.8439992 128.1869978 122.9660014  94.0714158 128.5793061 123.0378392
  76.9089992 125.2759978 135.4350014  76.4069992 125.2479978 134.6200014
  76.9139992 124.3709978 135.7440014  76.8410416 125.1497368 135.3653766
  76.6589992 128.0569978 132.3190014  77.6049992 127.9119978 132.3000014
  76.5459992 128.8409978 132.8560014  76.7733578 128.1431697 132.3890317
  94.8569992 128.7229978 138.0010014  94.8069992 127.7669978 137.9640014
  94.0299992 128.9899978 138.4020014  94.7383987 128.6285174 138.0501446
  85.8349992 128.2969978 136.8770014  85.9229992 129.1229978 137.3520014
  84.9719992 127.9669978 137.1260014  85.7303357 128.3655468 136.9757653
  86.2499992 132.0689978 126.6830014  86.1739992 131.9479978 125.7370014
  86.2819992 133.0179978 126.8020014  86.2439156 132.1807530 126.5695048
  79.9029992 130.8579978 128.4640014  80.0549992 130.5099978 129.3430014
  79.0519992 130.5009978 128.2090014  79.8087899 130.7621738 128.5497340
  89.3509992 131.2229978 123.6850014  89.7259992 130.4789978 123.2150014
  89.3559992 130.9529978 124.6040014  89.4030024 131.0846950 123.7447987
  89.0199992 131.1489978 126.4350014  88.0849992 131.2489978 126.6130014
  89.2999992 130.4389978 127.0130014  88.9298173 131.0667239 126.5374998
  92.0089992 120.2159978 138.4810014  91.6009992 120.6959978 137.7610014
  92.0489992 119.3099978 138.1730014  91.9585476 120.1593160 138.3408247
  79.1579992 126.5999978 136.4780014  79.3739992 126.2379978 137.3370014
  78.3019992 126.2249978 136.2680014  79.0719354 126.4997906 136.5672160
  81.7759992 115.0699978 132.4730014  80.9149992 114.9829978 132.0660014
  81.7539992 115.9259978 132.9010014  81.6550411 115.1737884 132.4750857
  86.4389992 114.7919978 135.8480014  86.8589992 114.3769978 136.6010014
  85.5059992 114.6129978 135.9650014  86.3703736 114.7109910 135.9668968
  89.7659992 118.5469978 136.7010014  89.2519992 118.4219978 137.4990014
  89.6099992 119.4599978 136.4570014  89.6746967 118.6532123 136.7770937
  90.5279992 123.4079978 122.4630014  90.5699992 123.1859978 121.5330014
  91.3769992 123.8069978 122.6530014  90.6485253 123.4315498 122.3613822
  86.1009992 117.2839978 123.1330014  85.8469992 117.3029978 124.0560014
  85.8439992 116.4129978 122.8320014  86.0315133 117.1688110 123.2185082
  81.8669992 120.0349978 133.5680014  81.2259992 119.9949978 134.2770014
  81.9049992 120.9619978 133.3310014  81.7843670 120.1547795 133.6330550
  81.8639992 120.2559978 128.4800014  80.9719992 119.9159978 128.4220014
  82.3149992 119.8789978 127.7250014  81.8026815 120.1583762 128.3699203
  87.3999992 120.6719978 127.2970014  86.9909992 121.4869978 127.0060014
  88.1199992 120.5319978 126.6830014  87.4414013 120.7646571 127.1740875
  86.5019992 120.8479978 138.7850014  85.9389992 120.1429978 139.1060014
  87.3279992 120.7269978 139.2530014  86.5366674 120.7352165 138.8921751
  88.4049992 120.1179978 130.1110014  88.2089992 120.7239978 129.3960014
  88.5859992 119.2849978 129.6770014  88.4026584 120.0882513 129.9544212
  79.6169992 120.3559978 135.4350014  79.5789992 120.7559978 136.3040014
  79.1269992 119.5389978 135.5260014  79.5455621 120.3002510 135.5661377
  82.9829992 117.7299978 122.2340014  82.5519992 117.2849978 122.9640014
  82.2649992 118.1009978 121.7220014  82.8269363 117.7192968 122.2646211
  76.2259992 117.4719978 129.2860014  76.8559992 117.4429978 130.0050014
  76.6749992 117.0469978 128.5560014  76.3730692 117.4105316 129.2857771
  77.4999992 118.2179978 124.7100014  77.9739992 118.8089978 124.1250014
  76.7819992 118.7479978 125.0570014  77.4678640 118.3705511 124.6767969
  87.6689992 121.7559978 134.7830014  87.9919992 121.1249978 134.1400014
  87.2279992 121.2219978 135.4430014  87.6535789 121.5973522 134.7842232
  84.4459992 117.6839978 129.5670014  83.5349992 117.7409978 129.8550014
  84.9509992 117.6239978 130.3770014  84.3895387 117.6836870 129.7160646
  79.2739992 119.3129978 128.3930014  78.3849992 119.4119978 128.0530014
  79.5709992 118.4709978 128.0470014  79.1924177 119.2127687 128.2996940
  82.9269992 119.3129978 126.0500014  83.8589992 119.4419978 126.2280014
  82.7119992 119.9819978 125.4000014  83.0254472 119.4210806 125.9864891
  88.8509992 116.9189978 132.8310014  88.1739992 117.0499978 133.4950014
  88.3659992 116.7639978 132.0210014  88.6927265 116.9159659 132.8123397
  81.6009992 120.5069978 123.6170014  81.0589992 120.1279978 122.9250014
  82.4349992 120.7019978 123.1880014  81.6395159 120.4815076 123.4644419
  92.1389992 132.5899978 139.1080014  92.3379992 133.0139978 138.2730014
  92.7939992 132.9339978 139.7150014  92.2548501 132.6946091 139.0757097
  79.7369992 125.0639978 138.7160014  80.4689992 125.3189978 139.2770014
  78.9559992 125.2689978 139.2310014  79.7317684 125.1266468 138.8624782
  85.7659992 120.4709978 131.4540014  86.3299992 119.9249978 130.9070014
  85.6179992 119.9499978 132.2420014  85.8232575 120.3256552 131.4856987
  80.7679992 116.6079978 127.8720014  80.4509992 115.7049978 127.8370014
  81.5489992 116.6099978 127.3190014  80.8302307 116.4846951 127.7924314
  84.3919992 118.8599978 133.8680014  83.5569992 119.3139978 133.9780014
  84.9159992 119.1359978 134.6200014  84.3485070 118.9594666 133.9847152
  84.9369992 125.0729978 125.5520014  84.1919992 124.5649978 125.2300014
  84.8019992 125.1219978 126.4990014  84.8169047 125.0101596 125.6358845
  92.0869992 124.2059978 134.3390014  92.7279992 124.6619978 133.7950014
  91.2559992 124.3189978 133.8770014  92.0625171 124.2837502 134.2020237
  88.8339992 117.8869978 123.7520014  87.8959992 117.9979978 123.6000014
  89.1319992 118.7429978 124.0580014  88.7456402 118.0180621 123.7725571
  86.4559992 125.2569978 136.7890014  86.1099992 124.8749978 137.5960014
  86.2559992 126.1899978 136.8610014  86.3816523 125.3309095 136.9090735
  89.5529992 119.7539978 125.4120014  90.4449992 119.6159978 125.7310014
  89.6089992 120.5449978 124.8760014  89.6827107 119.8420526 125.3832091
  80.0609992 124.3679978 131.3220014  80.8059992 124.3649978 130.7210014
  80.1389992 123.5439978 131.8040014  80.1734158 124.2562916 131.3049153
  87.0619992 126.5309978 124.5780014  86.7669992 127.3579978 124.9590014
  86.3589992 125.9119978 124.7740014  86.9265471 126.5605227 124.6566698
  77.0689992 122.8279978 136.6370014  77.2919992 122.4099978 137.4690014
  76.4669992 122.2159978 136.2140014  77.0181260 122.6879933 136.6937320
  84.0859992 122.3449978 138.8500014  83.7899992 122.1799978 137.9550014
  85.0169992 122.1249978 138.8390014  84.1713982 122.2926578 138.7260045
  88.7059992 127.7189978 136.7400014  87.8059992 127.9019978 136.4720014
  88.7399992 127.9779978 137.6610014  88.5872909 127.7790815 136.8277852
  94.4379992 119.9629978 125.1070014  93.8829992 119.5669978 124.4350014
  94.5379992 120.8739978 124.8290014  94.3755888 120.0318990 124.9775206
  94.4009992 125.7639978 137.9440014  93.5499992 126.0019978 137.5770014
  94.9909992 125.7469978 137.1910014  94.3642408 125.7942966 137.7918879
  92.7329992 128.7489978 125.5720014  92.3599992 127.9239978 125.8810014
  93.0099992 128.5659978 124.6750014  92.7193871 128.6112441 125.4929677
  89.8929992 123.5569978 132.5930014  88.9649992 123.3259978 132.5660014
  90.3439992 122.7799978 132.2630014  89.8268165 123.4202774 132.5446790
  82.4359992 127.8859978 128.7260014  82.9639992 128.6589978 128.5260014
  81.5559992 128.1099978 128.4250014  82.3893176 128.0223161 128.6578409
  78.1909992 122.7479978 123.3140014  78.8069992 123.3749978 123.6930014
  77.3289992 123.0639978 123.5850014  78.1588195 122.8765798 123.4025386
  83.8639992 125.5489978 128.3030014  83.6229992 126.4739978 128.3440014
  83.1229992 125.0899978 128.6990014  83.7308390 125.6136403 128.3621404
  84.3779992 129.6979978 134.6180014  84.7409992 130.5519978 134.3840014
  84.9099992 129.4059978 135.3580014  84.4996090 129.7754058 134.6860219
  82.5469992 130.5699978 127.8480014  81.5969992 130.6759978 127.8990014
  82.8989992 131.3909978 128.1930014  82.4645480 130.6954438 127.9015999
  87.9219992 125.7969978 134.3180014  87.4969992 125.5689978 135.1450014
  88.5029992 125.0579978 134.1360014  87.9423930 125.6659843 134.4064732
  90.1249992 126.7259978 123.3920014  90.4789992 126.3459978 124.1970014
  89.1769992 126.6319978 123.4790014  90.0451820 126.6613092 123.5138714
  90.5809992 130.3489978 136.7880014  89.9789992 129.7929978 136.2920014
  90.8619992 131.0159978 136.1620014  90.5366829 130.3631613 136.6355443
  94.6289992 131.2049978 123.5930014  95.3729992 131.7909978 123.4530014
  93.9349992 131.7739978 123.9270014  94.6370201 131.3620603 123.6189772
  78.7029992 117.5819978 136.1950014  77.8109992 117.9199978 136.1280014
  78.6049992 116.7259978 136.6130014  78.5674965 117.5126499 136.2423044
  90.9909992 125.3979978 125.6190014  90.7139992 124.6699978 126.1750014
  91.9189992 125.5169978 125.8240014  91.0784499 125.3144213 125.7228044
  78.3549992 129.3859978 134.6300014  78.5719992 128.4539978 134.5990014
  78.6009992 129.6609978 135.5130014  78.4179809 129.2955686 134.7451691
  84.2159992 127.8379978 121.8390014  84.4549992 127.0889978 121.2920014
  83.9469992 127.4499978 122.6720014  84.2123233 127.6831853 121.8767809
  83.1529992 127.4079978 124.2960014  83.2999992 126.8879978 125.0860014
  83.1499992 128.3149978 124.6020014  83.1727300 127.4593964 124.4455895
  79.6059992 124.6599978 124.8060014  78.9199992 125.0129978 125.3730014
  80.1289992 125.4229978 124.5600014  79.5829033 124.8113746 124.8502661
  87.4379992 117.3229978 135.0850014  88.1369992 117.3969978 135.7350014
  87.0569992 116.4579978 135.2390014  87.4822097 117.2162389 135.1947997
  88.2219992 116.9749978 126.1820014  88.4419992 117.4459978 125.3790014
  88.7809992 117.3689978 126.8520014  88.3276730 117.0927432 126.1625906
  85.8909992 129.1049978 125.0450014  85.0739992 129.6019978 125.0970014
  86.4199992 129.5809978 124.4050014  85.8508508 129.2372543 124.9656035
  85.4219992 118.7029978 127.0170014  86.2339992 119.2069978 127.0630014
  85.1779992 118.5579978 127.9310014  85.5001467 118.7523749 127.1468575
  85.9579992 119.6889978 136.2020014  86.0769992 120.2629978 136.9590014
  86.6129992 119.0009978 136.3160014  86.0629146 119.6745574 136.3211314
  86.3059992 115.7839978 127.9550014  85.9589992 116.4009978 128.6000014
  86.9649992 116.2849978 127.4740014  86.3475949 115.9361099 127.9782271
  83.2289992 130.1489978 125.0270014  83.3899992 130.9489978 124.5260014
  83.0319992 130.4559978 125.9120014  83.2243919 130.2999129 125.0781006
  81.9639992 116.8469978 124.6420014  81.8799992 117.7349978 124.9890014
  82.8539992 116.5819978 124.8740014  82.0728163 116.9327179 124.7208596
  92.1619992 117.5959978 137.0370014  91.2459992 117.8579978 136.9490014
  92.4979992 117.5929978 136.1400014  92.0819789 117.6314626 136.9037847
  90.7649992 121.3459978 131.1320014  89.9669992 120.9309978 130.8040014
  91.2099992 120.6559978 131.6230014  90.7159684 121.1958628 131.1535227
  80.2219992 127.2739978 123.7030014  80.8139992 127.9739978 123.9790014
  80.6809992 126.8409978 122.9830014  80.3650791 127.3112908 123.6434607
  78.5379992 119.9389978 122.8190014  78.4929992 120.8779978 122.9970014
  77.6499992 119.7029978 122.5490014  78.4118555 120.0356874 122.8068939
  91.8509992 130.6019978 132.7550014  91.6949992 131.2809978 132.0980014
  92.7839992 130.6739978 132.9580014  91.9557387 130.7046390 132.6925342
  79.3459992 114.7199978 131.4920014  79.1169992 114.7789978 130.5640014
  78.9039992 113.9289978 131.7980014  79.2548801 114.6210540 131.4064729
  78.2769992 128.6609978 127.6520014  77.4439992 129.1329978 127.6800014
  78.8219992 129.1709978 127.0540014  78.2367590 128.7945897 127.5749194
  77.5649992 131.2729978 138.9820014  78.1049992 131.0569978 139.7420014
  77.0839992 130.4679978 138.7930014  77.5738613 131.1345400 139.0604782
  82.1619992 130.1929978 140.6030014  82.9299992 129.7339978 140.9440014
  82.1409992 129.9669978 139.6730014  82.2642135 130.0996668 140.5239491
  86.2539992 129.7009978 121.9780014  85.6099992 129.0699978 122.2990014
  87.0159992 129.1699978 121.7460014  86.2688058 129.5427902 121.9906038
  88.7389992 128.5729978 139.3320014  88.3879992 127.7159978 139.5750014
  89.4649992 128.7149978 139.9390014  88.7891590 128.4750178 139.4472907
  90.8589992 129.5179978 122.2120014  91.1419992 128.7229978 122.6640014
  91.5979992 129.7509978 121.6510014  90.9976956 129.4407031 122.1979822
  77.4719992 125.0839978 139.9370014  77.6159992 124.1819978 139.6500014
  76.6999992 125.3699978 139.4490014  77.3873303 124.9993243 139.8317908
  81.8129992 125.4269978 122.0690014  81.8779992 124.6329978 122.6000014
  82.4659992 125.3089978 121.3790014  81.9101754 125.3023337 122.0484259
  84.1269992 125.0529978 139.3690014  83.7989992 125.3239978 138.5120014
  84.2789992 124.1119978 139.2820014  84.1026030 124.9628973 139.2397945
  87.1659992 126.4739978 121.8050014  86.8969992 126.6549978 122.7060014
  86.9589992 125.5489978 121.6740014  87.1012000 126.3736774 121.9105693
  89.8619992 124.9689978 136.7530014  90.6069992 125.5579978 136.6330014
  89.1049992 125.5509978 136.8160014  89.8615205 125.1281997 136.7451119
  78.3049992 122.2839978 139.3570014  78.7129992 121.4269978 139.2360014
  78.0439992 122.2979978 140.2780014  78.3256016 122.1685119 139.4649192
  82.9629992 123.3999978 124.3750014  82.5029992 122.9159978 125.0610014
  83.2179992 122.7309978 123.7390014  82.9345038 123.2433689 124.3829447
  82.2519992 121.2929978 136.7310014  81.6329992 121.9669978 137.0110014
  82.5959992 121.6139978 135.8980014  82.2137605 121.4287198 136.6566707
  84.0339992 121.6429978 122.6370014  83.8529992 121.4879978 121.7100014
  84.9839992 121.7509978 122.6820014  84.1376566 121.6363669 122.5160929
  87.2709992 123.7639978 140.0080014  88.2249992 123.8479978 139.9810014
  87.1109992 123.0519978 140.6280014  87.3797182 123.6792842 140.0880733
  93.4239992 123.9969978 122.0830014  93.1499992 123.5729978 121.2700014
  93.4629992 124.9289978 121.8660014  93.3917716 124.0648827 121.9424286
  82.5909992 118.6479978 137.8130014  82.7409992 117.9189978 137.2110014
  82.5929992 119.4249978 137.2540014  82.6117967 118.6532708 137.6550541
  83.0039992 117.0169978 135.3060014  83.5389992 117.4689978 134.6540014
  82.1509992 116.9089978 134.8830014  82.9620374 117.0642665 135.1596710
  84.5849992 122.4569978 135.5450014  85.3359992 122.3009978 134.9720014
  84.2459992 123.3089978 135.2700014  84.6419587 122.5508138 135.4294078
  89.0009992 120.2719978 140.5740014  89.1929992 119.3409978 140.4620014
  89.8589992 120.6969978 140.5640014  89.1432269 120.2019928 140.5573192
  90.3179992 123.0609978 138.6510014  90.0359992 123.7699978 138.0740014
  91.2599992 122.9879978 138.5000014  90.4067656 123.1483128 138.5514809
  81.0699992 119.8459978 139.7250014  80.3019992 119.3129978 139.5150014
  81.7479992 119.5359978 139.1250014  81.0566973 119.7312375 139.6151796
  83.8089992 114.4739978 135.7370014  83.7109992 115.4199978 135.6320014
  83.0669992 114.1009978 135.2620014  83.6951913 114.5531813 135.6583539
  85.0729992 118.7949978 139.3010014  84.8379992 118.5759978 140.2030014
  84.2899992 118.5879978 138.7910014  84.9349219 118.7370066 139.3555852
  87.7889992 117.9229978 138.3770014  86.8409992 117.9549978 138.5090014
  88.1009992 117.2969978 139.0300014  87.7015190 117.8427262 138.4833564
  89.4229992 116.5569978 140.3820014  89.3259992 115.6049978 140.3760014
  89.1009992 116.8249978 141.2420014  89.3661761 116.4629744 140.4974936
  79.2499992 117.7659978 139.4290014  79.4619992 117.0599978 138.8190014
  79.1389992 117.3289978 140.2730014  79.2640269 117.6101921 139.4595873
  84.0309992 113.7679978 138.4090014  84.7429992 113.1279978 138.3950014
  83.9299992 114.0339978 137.4950014  84.1147261 113.7164190 138.2835537
  84.3849992 115.4499978 140.4620014  84.2529992 114.9749978 139.6420014
  83.7849992 116.1949978 140.4070014  84.2859070 115.4855789 140.3423251
  83.9309992 132.3329978 123.6390014  84.8639992 132.4909978 123.7820014
  83.6669992 133.0089978 123.0140014  84.0229308 132.4459104 123.5741396
  77.4989992 126.9699978 123.1210014  78.4129992 127.0489978 123.3950014
  77.5069992 126.2829978 122.4550014  77.6251143 126.8879085 123.0684274
  76.1479992 132.3629978 128.1990014  75.5009992 131.9009978 127.6660014
  76.5029992 131.6909978 128.7810014  76.1074506 132.2089503 128.2047341
  77.0179992 130.4429978 130.0030014  76.6839992 129.5629978 130.1750014
  77.2409992 130.7889978 130.8680014  77.0023721 130.3691938 130.1434168
  94.5669992 131.2529978 132.9840014  94.5449992 131.4379978 133.9230014
  95.2569992 131.8209978 132.6430014  94.6573439 131.3551887 133.0664791
  94.1299992 130.8199978 135.9060014  93.6429992 130.0849978 135.5350014
  94.6789992 130.4259978 136.5840014  94.1375247 130.6661057 135.9468461
  92.5809992 126.6099978 140.5440014  91.7149992 126.5049978 140.9380014
  92.9569992 127.3679978 140.9900014  92.5133401 126.6981708 140.6582620
  93.8819992 124.8659978 126.0580014  94.7319992 125.2869978 126.1850014
  93.8869992 124.1259978 126.6650014  93.9991143 124.8236094 126.1574750
  94.2759992 122.9199978 127.8820014  93.5499992 122.4399978 128.2790014
  94.8579992 123.1249978 128.6140014  94.2551635 122.8819166 128.0353748
  94.0349992 125.7049978 132.8290014  94.8689992 125.3269978 132.5490014
  94.1469992 126.6479978 132.7100014  94.1642522 125.7807742 132.7746020
  92.5219992 128.5829978 135.1360014  91.8739992 128.9079978 135.7620014
  92.0039992 128.1419978 134.4620014  92.3634168 128.5678523 135.1305307
  94.5449992 122.8209978 124.2730014  94.0229992 123.1769978 123.5540014
  94.5119992 123.4959978 124.9510014  94.4690699 122.9609848 124.2662129
  92.8939992 120.0599978 122.8240014  92.9899992 120.7269978 122.1440014
  92.7539992 119.2449978 122.3420014  92.8882063 120.0410667 122.6658377
  92.0629992 121.4409978 128.4450014  91.9129992 120.4959978 128.4240014
  91.7089992 121.7219978 129.2880014  91.9945527 121.3495605 128.5561859
  77.0979992 123.5189978 132.4550014  77.2829992 123.4369978 131.5190014
  77.9479992 123.3949978 132.8790014  77.2380916 123.4910393 132.3842896
  92.9189992 123.4109978 138.0830014  93.5019992 122.6759978 138.2750014
  93.4829992 124.1829978 138.1300014  93.0749781 123.4148145 138.1156164
  94.4159992 121.3139978 138.7680014  93.5529992 120.9349978 138.6020014
  95.0199992 120.5749978 138.6940014  94.3795944 121.1622978 138.7352984
  92.1409992 117.4679978 121.9410014  92.7519992 117.0969978 122.5780014
  91.3039992 117.0469978 122.1370014  92.1114947 117.3602755 122.0547252
  91.7739992 119.0229978 126.9070014  92.0529992 118.1159978 127.0310014
  92.5329992 119.4569978 126.5180014  91.9148619 118.9574502 126.8713795
  92.3849992 119.6049978 132.3430014  93.3179992 119.8169978 132.3090014
  92.1499992 119.7059978 133.2650014  92.4808308 119.6476503 132.4630214
  92.4149992 120.3419978 135.1190014  91.5719992 120.6099978 135.4850014
  92.8569992 121.1639978 134.9080014  92.3594138 120.4898273 135.1405518
  76.6959992 118.7889978 138.5960014  77.6149992 118.6669978 138.8320014
  76.2459992 118.0389978 138.9850014  76.7611148 118.6708751 138.6809408
  94.6979992 114.3219978 140.4720014  95.0469992 113.6679978 139.8670014
  94.8449992 115.1589978 140.0330014  94.7657355 114.3456067 140.3296564
  92.3869992 116.2859978 126.9550014  92.5689992 115.8369978 127.7810014
  91.7869992 115.7019978 126.4920014  92.3307529 116.1456131 127.0053619
  77.9169992 117.1019978 131.4870014  78.3619992 116.3099978 131.7890014
  78.3829992 117.8179978 131.9180014  78.0409059 117.0904474 131.5866079
  76.2209992 120.1009978 132.5560014  76.7129992 119.8799978 131.7650014
  76.5829992 120.9409978 132.8370014  76.3372923 120.1843468 132.4857407
  94.2169992 116.4309978 138.8220014  93.2999992 116.7019978 138.7860014
  94.3399992 115.8959978 138.0380014  94.1080828 116.3957700 138.7110785
  94.2539992 116.3539978 123.4830014  94.6659992 115.6329978 123.0080014
  94.9349992 117.0229978 123.5420014  94.4025900 116.3457306 123.4259038
  76.5349992 116.3589978 126.6100014  75.6099992 116.5669978 126.4810014
  76.9889992 116.8429978 125.9210014  76.4696374 116.4529949 126.4990957
  91.3049992 131.3429978 128.5560014  91.9579992 130.9949978 127.9480014
  91.8159992 131.8309978 129.2020014  91.4632777 131.3613815 128.5602047
  76.4979992 115.0969978 134.9550014  75.8329992 114.8509978 135.5980014
  76.0549992 115.7189978 134.3770014  76.3470937 115.1473614 134.9649379
  78.6899992 128.2719978 139.0990014  77.8689992 128.4469978 138.6390014
  78.4379992 128.1989978 140.0200014  78.5436173 128.2860794 139.1604972
  81.6439992 129.2459978 135.3580014  81.2199992 130.0559978 135.0750014
  82.5489992 129.3319978 135.0560014  81.7082433 129.3683331 135.2785377
  85.9559992 130.6449978 138.3170014  86.1399992 130.3119978 139.1950014
  86.8019992 130.9549978 137.9950014  86.0956484 130.6412979 138.3937617
  88.3009992 131.9309978 137.5610014  88.9779992 131.2979978 137.3210014
  88.6219992 132.3319978 138.3680014  88.4371323 131.8985691 137.6373158
  93.2179992 114.5209978 136.6410014  92.4049992 114.8459978 136.2530014
  93.4509992 113.7599978 136.1080014  93.1382566 114.4626559 136.5159213
  79.0459992 132.5029978 135.4050014  78.3259992 132.9429978 134.9540014
  78.6809992 132.2519978 136.2540014  78.8979796 132.5293824 135.4579329
  81.5129992 132.1029978 134.4350014  80.6489992 132.1749978 134.8390014
  81.4579992 132.6499978 133.6510014  81.3871942 132.1867849 134.3844000
  86.2239992 131.9909978 133.6100014  85.7669992 132.5199978 132.9560014
  86.3869992 132.5939978 134.3360014  86.1834476 132.1449140 133.6185499
  88.5519992 130.8689978 134.5550014  87.6469992 131.0339978 134.2900014
  88.9799992 131.7219978 134.4900014  88.4860700 131.0069529 134.5099520
  91.1559992 132.4389978 134.8500014  90.9739992 133.3549978 134.6400014
  91.3329992 132.0279978 134.0040014  91.1549907 132.5089741 134.7067883
  78.4609992 131.1259978 132.3150014  78.4429992 130.6999978 133.1730014
  79.2659992 130.8069978 131.9070014  78.5673221 131.0247233 132.3770225
  80.6019992 129.8359978 130.9700014  80.3829992 128.9189978 131.1400014
  81.4259992 129.9759978 131.4360014  80.6834702 129.7295511 131.0562527
  83.1389992 130.3059978 131.8190014  83.3519992 129.4179978 131.5320014
  83.2039992 130.2709978 132.7740014  83.1769075 130.1798307 131.9087373
  86.6479992 115.9699978 130.9630014  85.9739992 115.3399978 131.2190014
  87.2119992 115.4859978 130.3600014  86.6320384 115.8183708 130.9165020
  91.7909992 114.0769978 131.0760014  92.3939992 114.6249978 130.5740014
  90.9209992 114.3959978 130.8360014  91.7559190 114.1951041 130.9748679
  93.5179992 115.2159978 129.4090014  94.1289992 114.7019978 128.8830014
  93.8999992 116.0929978 129.4330014  93.6534475 115.2641323 129.3401208
  78.9749992 114.6039978 128.7850014  78.1979992 114.3689978 128.2780014
  79.5049992 113.8069978 128.7940014  78.9403451 114.4641268 128.7168627
  77.8109992 114.4019978 124.5890014  78.2499992 115.0129978 123.9970014
  77.1769992 114.9399978 125.0630014  77.7853859 114.5584064 124.5720305
  83.5539992 114.5299978 128.5990014  84.4279992 114.9189978 128.5690014
  83.4179992 114.3149978 129.5210014  83.6553207 114.5541923 128.7196509
  89.1109992 114.5599978 130.2480014  89.1869992 114.6559978 129.2990014
  88.8359992 113.6529978 130.3770014  89.0842042 114.4504241 130.1353811
  90.4639992 114.5859978 125.9400014  89.7609992 115.2009978 125.7310014
  90.0189992 113.7489978 126.0720014  90.3076292 114.5570085 125.9292439
  77.7119992 130.3499978 125.4870014  77.0269992 130.3119978 124.8190014
  77.7159992 131.2629978 125.7750014  77.6188174 130.4681998 125.4345310
  79.6719992 116.3179978 123.0310014  80.1629992 115.6879978 122.5040014
  80.2949992 116.6139978 123.6950014  79.8235062 116.2716770 123.0485438
  84.6979992 116.6109978 125.4890014  84.8759992 115.9639978 126.1710014
  84.6439992 117.4449978 125.9560014  84.7151025 116.6350504 125.6456433
  86.5759992 131.5589978 123.8840014  87.4419992 131.9259978 123.7060014
  86.3299992 131.1199978 123.0700014  86.6612097 131.5498525 123.7496019
  93.2849992 131.1219978 126.5630014  93.0909992 130.3739978 125.9980014
  93.2459992 131.8799978 125.9800014  93.2531645 131.1220786 126.4068148
  78.9319992 115.1179978 138.3030014  78.5659992 114.3519978 138.7460014
  79.8449992 115.1469978 138.5900014  79.0053225 115.0171906 138.4023459
  80.9049992 114.4679978 139.8390014  81.8039992 114.1939978 139.6540014
  80.5189992 113.7259978 140.3030014  80.9757237 114.3301508 139.8764710
  79.5299992 131.2699978 122.5120014  79.2619992 131.5559978 123.3850014
  80.3009992 130.7239978 122.6640014  79.5975600 131.2353330 122.6521499
  89.3269992 113.8009978 140.0210014  89.4029992 113.3749978 140.8750014
  90.2199992 113.8139978 139.6780014  89.4582267 113.7443952 140.0915932
  92.5029992 129.8739978 138.7130014  91.7209992 129.6869978 138.1940014
  92.4309992 130.8029978 138.9310014  92.3860863 129.9740221 138.6713574
 106.9089992 123.7599978 128.7440014 106.9979992 124.7039978 128.6120014
 106.2709992 123.4849978 128.0860014 106.8349062 123.8519812 128.6369641
 105.8419992 123.0149978 132.1630014 105.8039992 122.3689978 132.8680014
 105.5199992 122.5479978 131.3920014 105.7932679 122.8634276 132.1552921
  98.2099992 122.6289978 133.7560014  98.2519992 122.0039978 134.4790014
  98.9129992 123.2529978 133.9380014  98.3107345 122.6277873 133.8795274
 109.5479992 125.9539978 130.4650014 109.1069992 125.2339978 130.9150014
 109.5349992 126.6749978 131.0940014 109.4857960 125.9528329 130.6117567
  99.1339992 127.0789978 132.2910014  98.7639992 126.2769978 131.9210014
 100.0749992 126.9109978 132.3370014  99.2105984 126.9464638 132.2465603
  95.7439992 120.7389978 127.6840014  95.2959992 121.5849978 127.6650014
  95.1829992 120.1599978 127.1680014  95.6069603 120.7763674 127.6116720
  96.4539992 122.9009978 129.8100014  96.6679992 122.1309978 130.3370014
  97.1919992 122.9909978 129.2060014  96.5829652 122.8078012 129.8005212
 106.6599992 131.0579978 130.6770014 107.2789992 130.3819978 130.4030014
 106.4509992 130.8399978 131.5850014 106.7166232 130.9357938 130.7622517
 104.2309992 125.4469978 132.5690014 104.5349992 124.7609978 131.9750014
 104.9529992 125.5659978 133.1870014 104.3701152 125.3692189 132.5712124
 112.8939992 117.0489978 133.4300014 112.9439992 117.6589978 134.1660014
 113.3199992 117.5099978 132.7070014 112.9584108 117.1947709 133.4330112
 107.3719992 119.8409978 132.8970014 107.5149992 118.8949978 132.9170014
 107.2659992 120.0479978 131.9680014 107.3772509 119.7394813 132.7742231
 100.5269992 117.9429978 130.1690014 100.5699992 118.8029978 129.7510014
 100.0689992 117.3909978 129.5350014 100.4709815 117.9860621 130.0261197
 108.2489992 118.0739978 128.5700014 108.8959992 117.7449978 129.1950014
 108.7589992 118.5909978 127.9470014 108.4064317 118.0989227 128.5712167
  97.1469992 120.3399978 130.9310014  97.8009992 119.7899978 131.3630014
  97.1709992 120.0659978 130.0140014  97.2397199 120.2277167 130.8661668
 102.3039992 121.8899978 130.1460014 102.9199992 121.3629978 130.6560014
 101.7169992 121.2499978 129.7430014 102.3089239 121.7314117 130.1612952
 113.2859992 118.5269978 135.6660014 112.5969992 119.1849978 135.5700014
 113.3009992 118.3289978 136.6020014 113.1936740 118.5903243 135.7794630
  99.3369992 116.8609978 134.2430014  99.1179992 117.3909978 133.4770014
  98.6689992 117.0869978 134.8900014  99.2167001 116.9641154 134.2256064
 106.7059992 126.3609978 127.7870014 106.4109992 126.0379978 126.9360014
 106.3819992 127.2609978 127.8280014 106.6217983 126.4384026 127.6759771
 101.9059992 124.5359978 134.5310014 101.1659992 125.1349978 134.6340014
 102.6199992 125.0899978 134.2150014 101.9013288 124.6927356 134.5023805
 110.0129992 117.3649978 130.5500014 109.7979992 116.5989978 131.0830014
 110.6689992 117.8369978 131.0630014 110.0722673 117.3240728 130.6921990
  98.9309992 118.7529978 132.1950014  99.5449992 119.3859978 132.5690014
  99.4429992 118.2809978 131.5390014  99.0842277 118.7757352 132.1574279
 100.3139992 126.5009978 135.3180014 100.3079992 127.3799978 134.9400014
  99.4599992 126.4169978 135.7430014 100.1977925 126.6099535 135.3236887
  96.4349992 126.1719978 126.1000014  96.1629992 126.4009978 125.2110014
  96.4799992 127.0089978 126.5600014  96.4038709 126.3166058 126.0406107
 110.0599992 127.7929978 132.8120014 109.1179992 127.8519978 132.9740014
 110.3359992 128.6989978 132.6750014 109.9685865 127.9235288 132.8156192
 110.3599992 116.0799978 134.2300014 109.6239992 116.6899978 134.1920014
 111.0439992 116.4949978 133.7030014 110.3515506 116.2196400 134.1536051
 103.3639992 114.1659978 131.6960014 103.2459992 113.2179978 131.6410014
 102.5089992 114.4989978 131.9690014 103.2322679 114.0811926 131.7253720
 108.3119992 129.5739978 129.4380014 108.7369992 128.8669978 128.9530014
 108.6289992 130.3759978 129.0210014 108.4130266 129.5855190 129.3152479
 109.4719992 127.4749978 127.9460014 109.2139992 126.7849978 127.3350014
 109.5429992 127.0319978 128.7920014 109.4462837 127.3207106 127.9766912
 111.1579992 126.0419978 136.4240014 111.2969992 125.4499978 135.6840014
 111.3249992 126.9149978 136.0670014 111.1995562 126.0789896 136.2746283
 105.6299992 123.0039978 126.1960014 104.9189992 123.5389978 125.8440014
 106.3209992 123.0589978 125.5360014 105.6260751 123.0846777 126.0585858
 105.6839992 121.4609978 123.2350014 106.3849992 121.4839978 123.8860014
 105.9859992 120.8329978 122.5790014 105.8208282 121.3792339 123.2354496
 112.9989992 122.3819978 134.4900014 112.3469992 123.0759978 134.5790014
 113.4649992 122.5919978 133.6800014 112.9725937 122.5055019 134.3927533
 109.0359992 123.2129978 127.1480014 108.3039992 123.4419978 127.7210014
 109.4829992 122.4999978 127.6030014 108.9962753 123.1478972 127.2879715
 108.9329992 121.3879978 136.2160014 109.0129992 122.1509978 136.7870014
 108.3319992 121.6669978 135.5250014 108.8627245 121.5302630 136.2008424
 100.6809992 123.8439978 129.0300014 100.3509992 123.4729978 128.2120014
 101.2699992 123.1729978 129.3770014 100.7153970 123.7026063 128.9649404
 102.0479992 127.2719978 131.7120014 101.9529992 126.6929978 130.9550014
 102.7769992 126.9009978 132.2080014 102.1336161 127.1425891 131.6755209
 101.0479992 122.6119978 132.6640014 101.6129992 122.7339978 131.9010014
 101.3669992 123.2499978 133.3030014 101.1683977 122.7148851 132.6459424
 107.3569992 128.1159978 133.3980014 107.1169992 128.7779978 134.0460014
 107.1589992 127.2809978 133.8230014 107.2973826 128.0938115 133.5441566
 101.9279992 127.0119978 137.3810014 101.6169992 127.7939978 137.8360014
 101.2779992 126.8589978 136.6950014 101.7975538 127.0984087 137.3505898
 107.9069992 122.3759978 124.8330014 108.4859992 122.5259978 125.5800014
 108.3209992 122.8459978 124.1100014 108.0423122 122.4601277 124.8375042
  98.8479992 123.2099978 136.6100014  98.9179992 123.8609978 137.3080014
  97.9569992 123.3129978 136.2750014  98.7371802 123.3129757 136.6602249
 105.6329992 129.1119978 128.2680014 106.1069992 129.4079978 129.0460014
 105.0699992 129.8509978 128.0350014 105.6217361 129.2522721 128.3428611
 100.1669992 129.0829978 138.1440014 100.1749992 128.9469978 137.1970014
  99.2509992 128.9659978 138.3960014 100.0442528 129.0485463 138.0483243
 111.6059992 114.1259978 124.6460014 110.7059992 114.2649978 124.9410014
 111.8579992 114.9569978 124.2440014 111.5168683 114.2574055 124.6320232
  99.6719992 122.9129978 126.6200014  99.3799992 123.6809978 126.1290014
  98.9969992 122.2539978 126.4570014  99.5408497 122.9289745 126.5308260
 112.7949992 128.4919978 123.0220014 112.8679992 129.4309978 123.1930014
 113.6999992 128.1869978 122.9660014 112.9274158 128.5793061 123.0378392
  95.7649992 125.2759978 135.4350014  95.2629992 125.2479978 134.6200014
  95.7699992 124.3709978 135.7440014  95.6970416 125.1497368 135.3653766
  95.5149992 128.0569978 132.3190014  96.4609992 127.9119978 132.3000014
  95.4019992 128.8409978 132.8560014  95.6293578 128.1431697 132.3890317
 113.7129992 128.7229978 138.0010014 113.6629992 127.7669978 137.9640014
 112.8859992 128.9899978 138.4020014 113.5943987 128.6285174 138.0501446
 104.6909992 128.2969978 136.8770014 104.7789992 129.1229978 137.3520014
 103.8279992 127.9669978 137.1260014 104.5863357 128.3655468 136.9757653
 105.1059992 132.0689978 126.6830014 105.0299992 131.9479978 125.7370014
 105.1379992 133.0179978 126.8020014 105.0999156 132.1807530 126.5695048
  98.7589992 130.8579978 128.4640014  98.9109992 130.5099978 129.3430014
  97.9079992 130.5009978 128.2090014  98.6647899 130.7621738 128.5497340
 108.2069992 131.2229978 123.6850014 108.5819992 130.4789978 123.2150014
 108.2119992 130.9529978 124.6040014 108.2590024 131.0846950 123.7447987
 107.8759992 131.1489978 126.4350014 106.9409992 131.2489978 126.6130014
 108.1559992 130.4389978 127.0130014 107.7858173 131.0667239 126.5374998
 110.8649992 120.2159978 138.4810014 110.4569992 120.6959978 137.7610014
 110.9049992 119.3099978 138.1730014 110.8145476 120.1593160 138.3408247
  98.0139992 126.5999978 136.4780014  98.2299992 126.2379978 137.3370014
  97.1579992 126.2249978 136.2680014  97.9279354 126.4997906 136.5672160
 100.6319992 115.0699978 132.4730014  99.7709992 114.9829978 132.0660014
 100.6099992 115.9259978 132.9010014 100.5110411 115.1737884 132.4750857
 105.2949992 114.7919978 135.8480014 105.7149992 114.3769978 136.6010014
 104.3619992 114.6129978 135.9650014 105.2263736 114.7109910 135.9668968
 108.6219992 118.5469978 136.7010014 108.1079992 118.4219978 137.4990014
 108.4659992 119.4599978 136.4570014 108.5306967 118.6532123 136.7770937
 109.3839992 123.4079978 122.4630014 109.4259992 123.1859978 121.5330014
 110.2329992 123.8069978 122.6530014 109.5045253 123.4315498 122.3613822
 104.9569992 117.2839978 123.1330014 104.7029992 117.3029978 124.0560014
 104.6999992 116.4129978 122.8320014 104.8875133 117.1688110 123.2185082
 100.7229992 120.0349978 133.5680014 100.0819992 119.9949978 134.2770014
 100.7609992 120.9619978 133.3310014 100.6403670 120.1547795 133.6330550
 100.7199992 120.2559978 128.4800014  99.8279992 119.9159978 128.4220014
 101.1709992 119.8789978 127.7250014 100.6586815 120.1583762 128.3699203
 106.2559992 120.6719978 127.2970014 105.8469992 121.4869978 127.0060014
 106.9759992 120.5319978 126.6830014 106.2974013 120.7646571 127.1740875
 105.3579992 120.8479978 138.7850014 104.7949992 120.1429978 139.1060014
 106.1839992 120.7269978 139.2530014 105.3926674 120.7352165 138.8921751
 107.2609992 120.1179978 130.1110014 107.0649992 120.7239978 129.3960014
 107.4419992 119.2849978 129.6770014 107.2586584 120.0882513 129.9544212
  98.4729992 120.3559978 135.4350014  98.4349992 120.7559978 136.3040014
  97.9829992 119.5389978 135.5260014  98.4015621 120.3002510 135.5661377
 101.8389992 117.7299978 122.2340014 101.4079992 117.2849978 122.9640014
 101.1209992 118.1009978 121.7220014 101.6829363 117.7192968 122.2646211
  95.0819992 117.4719978 129.2860014  95.7119992 117.4429978 130.0050014
  95.5309992 117.0469978 128.5560014  95.2290692 117.4105316 129.2857771
  96.3559992 118.2179978 124.7100014  96.8299992 118.8089978 124.1250014
  95.6379992 118.7479978 125.0570014  96.3238640 118.3705511 124.6767969
 106.5249992 121.7559978 134.7830014 106.8479992 121.1249978 134.1400014
 106.0839992 121.2219978 135.4430014 106.5095789 121.5973522 134.7842232
 103.3019992 117.6839978 129.5670014 102.3909992 117.7409978 129.8550014
 103.8069992 117.6239978 130.3770014 103.2455387 117.6836870 129.7160646
  98.1299992 119.3129978 128.3930014  97.2409992 119.4119978 128.0530014
  98.4269992 118.4709978 128.0470014  98.0484177 119.2127687 128.2996940
 101.7829992 119.3129978 126.0500014 102.7149992 119.4419978 126.2280014
 101.5679992 119.9819978 125.4000014 101.8814472 119.4210806 125.9864891
 107.7069992 116.9189978 132.8310014 107.0299992 117.0499978 133.4950014
 107.2219992 116.7639978 132.0210014 107.5487265 116.9159659 132.8123397
 100.4569992 120.5069978 123.6170014  99.9149992 120.1279978 122.9250014
 101.2909992 120.7019978 123.1880014 100.4955159 120.4815076 123.4644419
 110.9949992 132.5899978 139.1080014 111.1939992 133.0139978 138.2730014
 111.6499992 132.9339978 139.7150014 111.1108501 132.6946091 139.0757097
  98.5929992 125.0639978 138.7160014  99.3249992 125.3189978 139.2770014
  97.8119992 125.2689978 139.2310014  98.5877684 125.1266468 138.8624782
 104.6219992 120.4709978 131.4540014 105.1859992 119.9249978 130.9070014
 104.4739992 119.9499978 132.2420014 104.6792575 120.3256552 131.4856987
  99.6239992 116.6079978 127.8720014  99.3069992 115.7049978 127.8370014
 100.4049992 116.6099978 127.3190014  99.6862307 116.4846951 127.7924314
 103.2479992 118.8599978 133.8680014 102.4129992 119.3139978 133.9780014
 103.7719992 119.1359978 134.6200014 103.2045070 118.9594666 133.9847152
 103.7929992 125.0729978 125.5520014 103.0479992 124.5649978 125.2300014
 103.6579992 125.1219978 126.4990014 103.6729047 125.0101596 125.6358845
 110.9429992 124.2059978 134.3390014 111.5839992 124.6619978 133.7950014
 110.1119992 124.3189978 133.8770014 110.9185171 124.2837502 134.2020237
 107.6899992 117.8869978 123.7520014 106.7519992 117.9979978 123.6000014
 107.9879992 118.7429978 124.0580014 107.6016402 118.0180621 123.7725571
 105.3119992 125.2569978 136.7890014 104.9659992 124.8749978 137.5960014
 105.1119992 126.1899978 136.8610014 105.2376523 125.3309095 136.9090735
 108.4089992 119.7539978 125.4120014 109.3009992 119.6159978 125.7310014
 108.4649992 120.5449978 124.8760014 108.5387107 119.8420526 125.3832091
  98.9169992 124.3679978 131.3220014  99.6619992 124.3649978 130.7210014
  98.9949992 123.5439978 131.8040014  99.0294158 124.2562916 131.3049153
 105.9179992 126.5309978 124.5780014 105.6229992 127.3579978 124.9590014
 105.2149992 125.9119978 124.7740014 105.7825471 126.5605227 124.6566698
  95.9249992 122.8279978 136.6370014  96.1479992 122.4099978 137.4690014
  95.3229992 122.2159978 136.2140014  95.8741260 122.6879933 136.6937320
 102.9419992 122.3449978 138.8500014 102.6459992 122.1799978 137.9550014
 103.8729992 122.1249978 138.8390014 103.0273982 122.2926578 138.7260045
 107.5619992 127.7189978 136.7400014 106.6619992 127.9019978 136.4720014
 107.5959992 127.9779978 137.6610014 107.4432909 127.7790815 136.8277852
 113.2939992 119.9629978 125.1070014 112.7389992 119.5669978 124.4350014
 113.3939992 120.8739978 124.8290014 113.2315888 120.0318990 124.9775206
 113.2569992 125.7639978 137.9440014 112.4059992 126.0019978 137.5770014
 113.8469992 125.7469978 137.1910014 113.2202408 125.7942966 137.7918879
 111.5889992 128.7489978 125.5720014 111.2159992 127.9239978 125.8810014
 111.8659992 128.5659978 124.6750014 111.5753871 128.6112441 125.4929677
 108.7489992 123.5569978 132.5930014 107.8209992 123.3259978 132.5660014
 109.1999992 122.7799978 132.2630014 108.6828165 123.4202774 132.5446790
 101.2919992 127.8859978 128.7260014 101.8199992 128.6589978 128.5260014
 100.4119992 128.1099978 128.4250014 101.2453176 128.0223161 128.6578409
  97.0469992 122.7479978 123.3140014  97.6629992 123.3749978 123.6930014
  96.1849992 123.0639978 123.5850014  97.0148195 122.8765798 123.4025386
 102.7199992 125.5489978 128.3030014 102.4789992 126.4739978 128.3440014
 101.9789992 125.0899978 128.6990014 102.5868390 125.6136403 128.3621404
 103.2339992 129.6979978 134.6180014 103.5969992 130.5519978 134.3840014
 103.7659992 129.4059978 135.3580014 103.3556090 129.7754058 134.6860219
 101.4029992 130.5699978 127.8480014 100.4529992 130.6759978 127.8990014
 101.7549992 131.3909978 128.1930014 101.3205480 130.6954438 127.9015999
 106.7779992 125.7969978 134.3180014 106.3529992 125.5689978 135.1450014
 107.3589992 125.0579978 134.1360014 106.7983930 125.6659843 134.4064732
 108.9809992 126.7259978 123.3920014 109.3349992 126.3459978 124.1970014
 108.0329992 126.6319978 123.4790014 108.9011820 126.6613092 123.5138714
 109.4369992 130.3489978 136.7880014 108.8349992 129.7929978 136.2920014
 109.7179992 131.0159978 136.1620014 109.3926829 130.3631613 136.6355443
 113.4849992 131.2049978 123.5930014 114.2289992 131.7909978 123.4530014
 112.7909992 131.7739978 123.9270014 113.4930201 131.3620603 123.6189772
  97.5589992 117.5819978 136.1950014  96.6669992 117.9199978 136.1280014
  97.4609992 116.7259978 136.6130014  97.4234965 117.5126499 136.2423044
 109.8469992 125.3979978 125.6190014 109.5699992 124.6699978 126.1750014
 110.7749992 125.5169978 125.8240014 109.9344499 125.3144213 125.7228044
  97.2109992 129.3859978 134.6300014  97.4279992 128.4539978 134.5990014
  97.4569992 129.6609978 135.5130014  97.2739809 129.2955686 134.7451691
 103.0719992 127.8379978 121.8390014 103.3109992 127.0889978 121.2920014
 102.8029992 127.4499978 122.6720014 103.0683233 127.6831853 121.8767809
 102.0089992 127.4079978 124.2960014 102.1559992 126.8879978 125.0860014
 102.0059992 128.3149978 124.6020014 102.0287300 127.4593964 124.4455895
  98.4619992 124.6599978 124.8060014  97.7759992 125.0129978 125.3730014
  98.9849992 125.4229978 124.5600014  98.4389033 124.8113746 124.8502661
 106.2939992 117.3229978 135.0850014 106.9929992 117.3969978 135.7350014
 105.9129992 116.4579978 135.2390014 106.3382097 117.2162389 135.1947997
 107.0779992 116.9749978 126.1820014 107.2979992 117.4459978 125.3790014
 107.6369992 117.3689978 126.8520014 107.1836730 117.0927432 126.1625906
 104.7469992 129.1049978 125.0450014 103.9299992 129.6019978 125.0970014
 105.2759992 129.5809978 124.4050014 104.7068508 129.2372543 124.9656035
 104.2779992 118.7029978 127.0170014 105.0899992 119.2069978 127.0630014
 104.0339992 118.5579978 127.9310014 104.3561467 118.7523749 127.1468575
 104.8139992 119.6889978 136.2020014 104.9329992 120.2629978 136.9590014
 105.4689992 119.0009978 136.3160014 104.9189146 119.6745574 136.3211313
 105.1619992 115.7839978 127.9550014 104.8149992 116.4009978 128.6000014
 105.8209992 116.2849978 127.4740014 105.2035949 115.9361099 127.9782271
 102.0849992 130.1489978 125.0270014 102.2459992 130.9489978 124.5260014
 101.8879992 130.4559978 125.9120014 102.0803919 130.2999129 125.0781006
 100.8199992 116.8469978 124.6420014 100.7359992 117.7349978 124.9890014
 101.7099992 116.5819978 124.8740014 100.9288163 116.9327179 124.7208596
 111.0179992 117.5959978 137.0370014 110.1019992 117.8579978 136.9490014
 111.3539992 117.5929978 136.1400014 110.9379789 117.6314626 136.9037847
 109.6209992 121.3459978 131.1320014 108.8229992 120.9309978 130.8040014
 110.0659992 120.6559978 131.6230014 109.5719684 121.1958628 131.1535227
  99.0779992 127.2739978 123.7030014  99.6699992 127.9739978 123.9790014
  99.5369992 126.8409978 122.9830014  99.2210791 127.3112908 123.6434607
  97.3939992 119.9389978 122.8190014  97.3489992 120.8779978 122.9970014
  96.5059992 119.7029978 122.5490014  97.2678555 120.0356874 122.8068939
 110.7069992 130.6019978 132.7550014 110.5509992 131.2809978 132.0980014
 111.6399992 130.6739978 132.9580014 110.8117387 130.7046390 132.6925342
  98.2019992 114.7199978 131.4920014  97.9729992 114.7789978 130.5640014
  97.7599992 113.9289978 131.7980014  98.1108801 114.6210540 131.4064729
  97.1329992 128.6609978 127.6520014  96.2999992 129.1329978 127.6800014
  97.6779992 129.1709978 127.0540014  97.0927590 128.7945897 127.5749194
  96.4209992 131.2729978 138.9820014  96.9609992 131.0569978 139.7420014
  95.9399992 130.4679978 138.7930014  96.4298613 131.1345400 139.0604782
 101.0179992 130.1929978 140.6030014 101.7859992 129.7339978 140.9440014
 100.9969992 129.9669978 139.6730014 101.1202135 130.0996668 140.5239491
 105.1099992 129.7009978 121.9780014 104.4659992 129.0699978 122.2990014
 105.8719992 129.1699978 121.7460014 105.1248058 129.5427902 121.9906038
 107.5949992 128.5729978 139.3320014 107.2439992 127.7159978 139.5750014
 108.3209992 128.7149978 139.9390014 107.6451590 128.4750178 139.4472907
 109.7149992 129.5179978 122.2120014 109.9979992 128.7229978 122.6640014
 110.4539992 129.7509978 121.6510014 109.8536956 129.4407031 122.1979822
  96.3279992 125.0839978 139.9370014  96.4719992 124.1819978 139.6500014
  95.5559992 125.3699978 139.4490014  96.2433303 124.9993243 139.8317908
 100.6689992 125.4269978 122.0690014 100.7339992 124.6329978 122.6000014
 101.3219992 125.3089978 121.3790014 100.7661754 125.3023337 122.0484259
 102.9829992 125.0529978 139.3690014 102.6549992 125.3239978 138.5120014
 103.1349992 124.1119978 139.2820014 102.9586030 124.9628973 139.2397945
 106.0219992 126.4739978 121.8050014 105.7529992 126.6549978 122.7060014
 105.8149992 125.5489978 121.6740014 105.9572000 126.3736774 121.9105693
 108.7179992 124.9689978 136.7530014 109.4629992 125.5579978 136.6330014
 107.9609992 125.5509978 136.8160014 108.7175205 125.1281997 136.7451119
  97.1609992 122.2839978 139.3570014  97.5689992 121.4269978 139.2360014
  96.8999992 122.2979978 140.2780014  97.1816016 122.1685119 139.4649192
 101.8189992 123.3999978 124.3750014 101.3589992 122.9159978 125.0610014
 102.0739992 122.7309978 123.7390014 101.7905038 123.2433689 124.3829447
 101.1079992 121.2929978 136.7310014 100.4889992 121.9669978 137.0110014
 101.4519992 121.6139978 135.8980014 101.0697605 121.4287198 136.6566707
 102.8899992 121.6429978 122.6370014 102.7089992 121.4879978 121.7100014
 103.8399992 121.7509978 122.6820014 102.9936566 121.6363669 122.5160929
 106.1269992 123.7639978 140.0080014 107.0809992 123.8479978 139.9810014
 105.9669992 123.0519978 140.6280014 106.2357182 123.6792842 140.0880733
 112.2799992 123.9969978 122.0830014 112.0059992 123.5729978 121.2700014
 112.3189992 124.9289978 121.8660014 112.2477716 124.0648827 121.9424286
 101.4469992 118.6479978 137.8130014 101.5969992 117.9189978 137.2110014
 101.4489992 119.4249978 137.2540014 101.4677967 118.6532708 137.6550541
 101.8599992 117.0169978 135.3060014 102.3949992 117.4689978 134.6540014
 101.0069992 116.9089978 134.8830014 101.8180374 117.0642665 135.1596710
 103.4409992 122.4569978 135.5450014 104.1919992 122.3009978 134.9720014
 103.1019992 123.3089978 135.2700014 103.4979587 122.5508138 135.4294078
 107.8569992 120.2719978 140.5740014 108.0489992 119.3409978 140.4620014
 108.7149992 120.6969978 140.5640014 107.9992269 120.2019928 140.5573192
 109.1739992 123.0609978 138.6510014 108.8919992 123.7699978 138.0740014
 110.1159992 122.9879978 138.5000014 109.2627656 123.1483128 138.5514809
  99.9259992 119.8459978 139.7250014  99.1579992 119.3129978 139.5150014
 100.6039992 119.5359978 139.1250014  99.9126973 119.7312375 139.6151796
 102.6649992 114.4739978 135.7370014 102.5669992 115.4199978 135.6320014
 101.9229992 114.1009978 135.2620014 102.5511913 114.5531813 135.6583539
 103.9289992 118.7949978 139.3010014 103.6939992 118.5759978 140.2030014
 103.1459992 118.5879978 138.7910014 103.7909219 118.7370066 139.3555852
 106.6449992 117.9229978 138.3770014 105.6969992 117.9549978 138.5090014
 106.9569992 117.2969978 139.0300014 106.5575190 117.8427262 138.4833563
 108.2789992 116.5569978 140.3820014 108.1819992 115.6049978 140.3760014
 107.9569992 116.8249978 141.2420014 108.2221761 116.4629744 140.4974936
  98.1059992 117.7659978 139.4290014  98.3179992 117.0599978 138.8190014
  97.9949992 117.3289978 140.2730014  98.1200269 117.6101921 139.4595873
 102.8869992 113.7679978 138.4090014 103.5989992 113.1279978 138.3950014
 102.7859992 114.0339978 137.4950014 102.9707261 113.7164190 138.2835537
 103.2409992 115.4499978 140.4620014 103.1089992 114.9749978 139.6420014
 102.6409992 116.1949978 140.4070014 103.1419070 115.4855789 140.3423251
 102.7869992 132.3329978 123.6390014 103.7199992 132.4909978 123.7820014
 102.5229992 133.0089978 123.0140014 102.8789308 132.4459104 123.5741396
  96.3549992 126.9699978 123.1210014  97.2689992 127.0489978 123.3950014
  96.3629992 126.2829978 122.4550014  96.4811143 126.8879085 123.0684274
  95.0039992 132.3629978 128.1990014  94.3569992 131.9009978 127.6660014
  95.3589992 131.6909978 128.7810014  94.9634506 132.2089503 128.2047341
  95.8739992 130.4429978 130.0030014  95.5399992 129.5629978 130.1750014
  96.0969992 130.7889978 130.8680014  95.8583721 130.3691938 130.1434168
 113.4229992 131.2529978 132.9840014 113.4009992 131.4379978 133.9230014
 114.1129992 131.8209978 132.6430014 113.5133439 131.3551887 133.0664791
 112.9859992 130.8199978 135.9060014 112.4989992 130.0849978 135.5350014
 113.5349992 130.4259978 136.5840014 112.9935247 130.6661057 135.9468461
 111.4369992 126.6099978 140.5440014 110.5709992 126.5049978 140.9380014
 111.8129992 127.3679978 140.9900014 111.3693401 126.6981708 140.6582620
 112.7379992 124.8659978 126.0580014 113.5879992 125.2869978 126.1850014
 112.7429992 124.1259978 126.6650014 112.8551143 124.8236094 126.1574750
 113.1319992 122.9199978 127.8820014 112.4059992 122.4399978 128.2790014
 113.7139992 123.1249978 128.6140014 113.1111635 122.8819166 128.0353748
 112.8909992 125.7049978 132.8290014 113.7249992 125.3269978 132.5490014
 113.0029992 126.6479978 132.7100014 113.0202522 125.7807742 132.7746020
 111.3779992 128.5829978 135.1360014 110.7299992 128.9079978 135.7620014
 110.8599992 128.1419978 134.4620014 111.2194168 128.5678523 135.1305307
 113.4009992 122.8209978 124.2730014 112.8789992 123.1769978 123.5540014
 113.3679992 123.4959978 124.9510014 113.3250699 122.9609848 124.2662129
 111.7499992 120.0599978 122.8240014 111.8459992 120.7269978 122.1440014
 111.6099992 119.2449978 122.3420014 111.7442063 120.0410667 122.6658377
 110.9189992 121.4409978 128.4450014 110.7689992 120.4959978 128.4240014
 110.5649992 121.7219978 129.2880014 110.8505527 121.3495605 128.5561859
  95.9539992 123.5189978 132.4550014  96.1389992 123.4369978 131.5190014
  96.8039992 123.3949978 132.8790014  96.0940916 123.4910393 132.3842896
 111.7749992 123.4109978 138.0830014 112.3579992 122.6759978 138.2750014
 112.3389992 124.1829978 138.1300014 111.9309781 123.4148145 138.1156164
 113.2719992 121.3139978 138.7680014 112.4089992 120.9349978 138.6020014
 113.8759992 120.5749978 138.6940014 113.2355944 121.1622978 138.7352984
 110.9969992 117.4679978 121.9410014 111.6079992 117.0969978 122.5780014
 110.1599992 117.0469978 122.1370014 110.9674947 117.3602756 122.0547252
 110.6299992 119.0229978 126.9070014 110.9089992 118.1159978 127.0310014
 111.3889992 119.4569978 126.5180014 110.7708619 118.9574502 126.8713795
 111.2409992 119.6049978 132.3430014 112.1739992 119.8169978 132.3090014
 111.0059992 119.7059978 133.2650014 111.3368308 119.6476503 132.4630214
 111.2709992 120.3419978 135.1190014 110.4279992 120.6099978 135.4850014
 111.7129992 121.1639978 134.9080014 111.2154138 120.4898273 135.1405518
  95.5519992 118.7889978 138.5960014  96.4709992 118.6669978 138.8320014
  95.1019992 118.0389978 138.9850014  95.6171148 118.6708751 138.6809408
 113.5539992 114.3219978 140.4720014 113.9029992 113.6679978 139.8670014
 113.7009992 115.1589978 140.0330014 113.6217355 114.3456067 140.3296564
 111.2429992 116.2859978 126.9550014 111.4249992 115.8369978 127.7810014
 110.6429992 115.7019978 126.4920014 111.1867529 116.1456131 127.0053619
  96.7729992 117.1019978 131.4870014  97.2179992 116.3099978 131.7890014
  97.2389992 117.8179978 131.9180014  96.8969059 117.0904474 131.5866079
  95.0769992 120.1009978 132.5560014  95.5689992 119.8799978 131.7650014
  95.4389992 120.9409978 132.8370014  95.1932923 120.1843468 132.4857407
 113.0729992 116.4309978 138.8220014 112.1559992 116.7019978 138.7860014
 113.1959992 115.8959978 138.0380014 112.9640828 116.3957700 138.7110785
 113.1099992 116.3539978 123.4830014 113.5219992 115.6329978 123.0080014
 113.7909992 117.0229978 123.5420014 113.2585900 116.3457306 123.4259038
  95.3909992 116.3589978 126.6100014  94.4659992 116.5669978 126.4810014
  95.8449992 116.8429978 125.9210014  95.3256374 116.4529949 126.4990957
 110.1609992 131.3429978 128.5560014 110.8139992 130.9949978 127.9480014
 110.6719992 131.8309978 129.2020014 110.3192777 131.3613815 128.5602047
  95.3539992 115.0969978 134.9550014  94.6889992 114.8509978 135.5980014
  94.9109992 115.7189978 134.3770014  95.2030937 115.1473614 134.9649379
  97.5459992 128.2719978 139.0990014  96.7249992 128.4469978 138.6390014
  97.2939992 128.1989978 140.0200014  97.3996173 128.2860794 139.1604972
 100.4999992 129.2459978 135.3580014 100.0759992 130.0559978 135.0750014
 101.4049992 129.3319978 135.0560014 100.5642433 129.3683331 135.2785377
 104.8119992 130.6449978 138.3170014 104.9959992 130.3119978 139.1950014
 105.6579992 130.9549978 137.9950014 104.9516484 130.6412979 138.3937617
 107.1569992 131.9309978 137.5610014 107.8339992 131.2979978 137.3210014
 107.4779992 132.3319978 138.3680014 107.2931323 131.8985691 137.6373158
 112.0739992 114.5209978 136.6410014 111.2609992 114.8459978 136.2530014
 112.3069992 113.7599978 136.1080014 111.9942566 114.4626559 136.5159213
  97.9019992 132.5029978 135.4050014  97.1819992 132.9429978 134.9540014
  97.5369992 132.2519978 136.2540014  97.7539796 132.5293824 135.4579329
 100.3689992 132.1029978 134.4350014  99.5049992 132.1749978 134.8390014
 100.3139992 132.6499978 133.6510014 100.2431942 132.1867849 134.3844000
 105.0799992 131.9909978 133.6100014 104.6229992 132.5199978 132.9560014
 105.2429992 132.5939978 134.3360014 105.0394476 132.1449140 133.6185499
 107.4079992 130.8689978 134.5550014 106.5029992 131.0339978 134.2900014
 107.8359992 131.7219978 134.4900014 107.3420700 131.0069529 134.5099520
 110.0119992 132.4389978 134.8500014 109.8299992 133.3549978 134.6400014
 110.1889992 132.0279978 134.0040014 110.0109907 132.5089741 134.7067883
  97.3169992 131.1259978 132.3150014  97.2989992 130.6999978 133.1730014
  98.1219992 130.8069978 131.9070014  97.4233221 131.0247233 132.3770225
  99.4579992 129.8359978 130.9700014  99.2389992 128.9189978 131.1400014
 100.2819992 129.9759978 131.4360014  99.5394702 129.7295511 131.0562527
 101.9949992 130.3059978 131.8190014 102.2079992 129.4179978 131.5320014
 102.0599992 130.2709978 132.7740014 102.0329075 130.1798307 131.9087373
 105.5039992 115.9699978 130.9630014 104.8299992 115.3399978 131.2190014
 106.0679992 115.4859978 130.3600014 105.4880384 115.8183708 130.9165020
 110.6469992 114.0769978 131.0760014 111.2499992 114.6249978 130.5740014
 109.7769992 114.3959978 130.8360014 110.6119190 114.1951041 130.9748679
 112.3739992 115.2159978 129.4090014 112.9849992 114.7019978 128.8830014
 112.7559992 116.0929978 129.4330014 112.5094475 115.2641323 129.3401208
  97.8309992 114.6039978 128.7850014  97.0539992 114.3689978 128.2780014
  98.3609992 113.8069978 128.7940014  97.7963451 114.4641268 128.7168627
  96.6669992 114.4019978 124.5890014  97.1059992 115.0129978 123.9970014
  96.0329992 114.9399978 125.0630014  96.6413859 114.5584064 124.5720305
 102.4099992 114.5299978 128.5990014 103.2839992 114.9189978 128.5690014
 102.2739992 114.3149978 129.5210014 102.5113207 114.5541923 128.7196509
 107.9669992 114.5599978 130.2480014 108.0429992 114.6559978 129.2990014
 107.6919992 113.6529978 130.3770014 107.9402042 114.4504241 130.1353811
 109.3199992 114.5859978 125.9400014 108.6169992 115.2009978 125.7310014
 108.8749992 113.7489978 126.0720014 109.1636292 114.5570085 125.9292439
  96.5679992 130.3499978 125.4870014  95.8829992 130.3119978 124.8190014
  96.5719992 131.2629978 125.7750014  96.4748174 130.4681998 125.4345310
  98.5279992 116.3179978 123.0310014  99.0189992 115.6879978 122.5040014
  99.1509992 116.6139978 123.6950014  98.6795062 116.2716770 123.0485438
 103.5539992 116.6109978 125.4890014 103.7319992 115.9639978 126.1710014
 103.4999992 117.4449978 125.9560014 103.5711025 116.6350504 125.6456433
 105.4319992 131.5589978 123.8840014 106.2979992 131.9259978 123.7060014
 105.1859992 131.1199978 123.0700014 105.5172097 131.5498525 123.7496019
 112.1409992 131.1219978 126.5630014 111.9469992 130.3739978 125.9980014
 112.1019992 131.8799978 125.9800014 112.1091645 131.1220786 126.4068148
  97.7879992 115.1179978 138.3030014  97.4219992 114.3519978 138.7460014
  98.7009992 115.1469978 138.5900014  97.8613225 115.0171906 138.4023459
  99.7609992 114.4679978 139.8390014 100.6599992 114.1939978 139.6540014
  99.3749992 113.7259978 140.3030014  99.8317237 114.3301508 139.8764710
  98.3859992 131.2699978 122.5120014  98.1179992 131.5559978 123.3850014
  99.1569992 130.7239978 122.6640014  98.4535600 131.2353330 122.6521499
 108.1829992 113.8009978 140.0210014 108.2589992 113.3749978 140.8750014
 109.0759992 113.8139978 139.6780014 108.3142267 113.7443952 140.0915932
 111.3589992 129.8739978 138.7130014 110.5769992 129.6869978 138.1940014
 111.2869992 130.8029978 138.9310014 111.2420863 129.9740221 138.6713574
 125.7649992 123.7599978 128.7440014 125.8539992 124.7039978 128.6120014
 125.1269992 123.4849978 128.0860014 125.6909062 123.8519812 128.6369641
 124.6979992 123.0149978 132.1630014 124.6599992 122.3689978 132.8680014
 124.3759992 122.5479978 131.3920014 124.6492679 122.8634276 132.1552921
 117.0659992 122.6289978 133.7560014 117.1079992 122.0039978 134.4790014
 117.7689992 123.2529978 133.9380014 117.1667345 122.6277873 133.8795274
 128.4039992 125.9539978 130.4650014 127.9629992 125.2339978 130.9150014
 128.3909992 126.6749978 131.0940014 128.3417960 125.9528329 130.6117567
 117.9899992 127.0789978 132.2910014 117.6199992 126.2769978 131.9210014
 118.9309992 126.9109978 132.3370014 118.0665984 126.9464638 132.2465603
 114.5999992 120.7389978 127.6840014 114.1519992 121.5849978 127.6650014
 114.0389992 120.1599978 127.1680014 114.4629603 120.7763674 127.6116720
 115.3099992 122.9009978 129.8100014 115.5239992 122.1309978 130.3370014
 116.0479992 122.9909978 129.2060014 115.4389652 122.8078012 129.8005212
 125.5159992 131.0579978 130.6770014 126.1349992 130.3819978 130.4030014
 125.3069992 130.8399978 131.5850014 125.5726232 130.9357938 130.7622517
 123.0869992 125.4469978 132.5690014 123.3909992 124.7609978 131.9750014
 123.8089992 125.5659978 133.1870014 123.2261152 125.3692189 132.5712123
 131.7499992 117.0489978 133.4300014 131.7999992 117.6589978 134.1660014
 132.1759992 117.5099978 132.7070014 131.8144108 117.1947709 133.4330112
 126.2279992 119.8409978 132.8970014 126.3709992 118.8949978 132.9170014
 126.1219992 120.0479978 131.9680014 126.2332509 119.7394813 132.7742231
 119.3829992 117.9429978 130.1690014 119.4259992 118.8029978 129.7510014
 118.9249992 117.3909978 129.5350014 119.3269815 117.9860621 130.0261197
 127.1049992 118.0739978 128.5700014 127.7519992 117.7449978 129.1950014
 127.6149992 118.5909978 127.9470014 127.2624317 118.0989227 128.5712167
 116.0029992 120.3399978 130.9310014 116.6569992 119.7899978 131.3630014
 116.0269992 120.0659978 130.0140014 116.0957199 120.2277167 130.8661668
 121.1599992 121.8899978 130.1460014 121.7759992 121.3629978 130.6560014
 120.5729992 121.2499978 129.7430014 121.1649239 121.7314117 130.1612952
 132.1419992 118.5269978 135.6660014 131.4529992 119.1849978 135.5700014
 132.1569992 118.3289978 136.6020014 132.0496740 118.5903243 135.7794630
 118.1929992 116.8609978 134.2430014 117.9739992 117.3909978 133.4770014
 117.5249992 117.0869978 134.8900014 118.0727001 116.9641154 134.2256064
 125.5619992 126.3609978 127.7870014 125.2669992 126.0379978 126.9360014
 125.2379992 127.2609978 127.8280014 125.4777983 126.4384026 127.6759771
 120.7619992 124.5359978 134.5310014 120.0219992 125.1349978 134.6340014
 121.4759992 125.0899978 134.2150014 120.7573288 124.6927356 134.5023805
 128.8689992 117.3649978 130.5500014 128.6539992 116.5989978 131.0830014
 129.5249992 117.8369978 131.0630014 128.9282673 117.3240728 130.6921990
 117.7869992 118.7529978 132.1950014 118.4009992 119.3859978 132.5690014
 118.2989992 118.2809978 131.5390014 117.9402277 118.7757352 132.1574279
 119.1699992 126.5009978 135.3180014 119.1639992 127.3799978 134.9400014
 118.3159992 126.4169978 135.7430014 119.0537925 126.6099535 135.3236887
 115.2909992 126.1719978 126.1000014 115.0189992 126.4009978 125.2110014
 115.3359992 127.0089978 126.5600014 115.2598709 126.3166058 126.0406107
 128.9159992 127.7929978 132.8120014 127.9739992 127.8519978 132.9740014
 129.1919992 128.6989978 132.6750014 128.8245865 127.9235288 132.8156192
 129.2159992 116.0799978 134.2300014 128.4799992 116.6899978 134.1920014
 129.8999992 116.4949978 133.7030014 129.2075506 116.2196400 134.1536051
 122.2199992 114.1659978 131.6960014 122.1019992 113.2179978 131.6410014
 121.3649992 114.4989978 131.9690014 122.0882679 114.0811926 131.7253720
 127.1679992 129.5739978 129.4380014 127.5929992 128.8669978 128.9530014
 127.4849992 130.3759978 129.0210014 127.2690266 129.5855190 129.3152479
 128.3279992 127.4749978 127.9460014 128.0699992 126.7849978 127.3350014
 128.3989992 127.0319978 128.7920014 128.3022837 127.3207106 127.9766912
 130.0139992 126.0419978 136.4240014 130.1529992 125.4499978 135.6840014
 130.1809992 126.9149978 136.0670014 130.0555562 126.0789896 136.2746283
 124.4859992 123.0039978 126.1960014 123.7749992 123.5389978 125.8440014
 125.1769992 123.0589978 125.5360014 124.4820751 123.0846777 126.0585858
 124.5399992 121.4609978 123.2350014 125.2409992 121.4839978 123.8860014
 124.8419992 120.8329978 122.5790014 124.6768282 121.3792339 123.2354496
 131.8549992 122.3819978 134.4900014 131.2029992 123.0759978 134.5790014
 132.3209992 122.5919978 133.6800014 131.8285937 122.5055019 134.3927533
 127.8919992 123.2129978 127.1480014 127.1599992 123.4419978 127.7210014
 128.3389992 122.4999978 127.6030014 127.8522753 123.1478972 127.2879715
 127.7889992 121.3879978 136.2160014 127.8689992 122.1509978 136.7870014
 127.1879992 121.6669978 135.5250014 127.7187245 121.5302630 136.2008424
 119.5369992 123.8439978 129.0300014 119.2069992 123.4729978 128.2120014
 120.1259992 123.1729978 129.3770014 119.5713970 123.7026063 128.9649404
 120.9039992 127.2719978 131.7120014 120.8089992 126.6929978 130.9550014
 121.6329992 126.9009978 132.2080014 120.9896161 127.1425891 131.6755209
 119.9039992 122.6119978 132.6640014 120.4689992 122.7339978 131.9010014
 120.2229992 123.2499978 133.3030014 120.0243977 122.7148851 132.6459424
 126.2129992 128.1159978 133.3980014 125.9729992 128.7779978 134.0460014
 126.0149992 127.2809978 133.8230014 126.1533826 128.0938115 133.5441566
 120.7839992 127.0119978 137.3810014 120.4729992 127.7939978 137.8360014
 120.1339992 126.8589978 136.6950014 120.6535538 127.0984087 137.3505898
 126.7629992 122.3759978 124.8330014 127.3419992 122.5259978 125.5800014
 127.1769992 122.8459978 124.1100014 126.8983122 122.4601277 124.8375042
 117.7039992 123.2099978 136.6100014 117.7739992 123.8609978 137.3080014
 116.8129992 123.3129978 136.2750014 117.5931802 123.3129757 136.6602249
 124.4889992 129.1119978 128.2680014 124.9629992 129.4079978 129.0460014
 123.9259992 129.8509978 128.0350014 124.4777361 129.2522721 128.3428611
 119.0229992 129.0829978 138.1440014 119.0309992 128.9469978 137.1970014
 118.1069992 128.9659978 138.3960014 118.9002528 129.0485463 138.0483243
 130.4619992 114.1259978 124.6460014 129.5619992 114.2649978 124.9410014
 130.7139992 114.9569978 124.2440014 130.3728683 114.2574055 124.6320232
 118.5279992 122.9129978 126.6200014 118.2359992 123.6809978 126.1290014
 117.8529992 122.2539978 126.4570014 118.3968497 122.9289745 126.5308260
 131.6509992 128.4919978 123.0220014 131.7239992 129.4309978 123.1930014
 132.5559992 128.1869978 122.9660014 131.7834158 128.5793061 123.0378392
 114.6209992 125.2759978 135.4350014 114.1189992 125.2479978 134.6200014
 114.6259992 124.3709978 135.7440014 114.5530416 125.1497368 135.3653766
 114.3709992 128.0569978 132.3190014 115.3169992 127.9119978 132.3000014
 114.2579992 128.8409978 132.8560014 114.4853578 128.1431697 132.3890317
 132.5689992 128.7229978 138.0010014 132.5189992 127.7669978 137.9640014
 131.7419992 128.9899978 138.4020014 132.4503987 128.6285174 138.0501446
 123.5469992 128.2969978 136.8770014 123.6349992 129.1229978 137.3520014
 122.6839992 127.9669978 137.1260014 123.4423357 128.3655468 136.9757653
 123.9619992 132.0689978 126.6830014 123.8859992 131.9479978 125.7370014
 123.9939992 133.0179978 126.8020014 123.9559156 132.1807530 126.5695048
 117.6149992 130.8579978 128.4640014 117.7669992 130.5099978 129.3430014
 116.7639992 130.5009978 128.2090014 117.5207899 130.7621738 128.5497340
 127.0629992 131.2229978 123.6850014 127.4379992 130.4789978 123.2150014
 127.0679992 130.9529978 124.6040014 127.1150024 131.0846950 123.7447987
 126.7319992 131.1489978 126.4350014 125.7969992 131.2489978 126.6130014
 127.0119992 130.4389978 127.0130014 126.6418173 131.0667239 126.5374998
 129.7209992 120.2159978 138.4810014 129.3129992 120.6959978 137.7610014
 129.7609992 119.3099978 138.1730014 129.6705476 120.1593160 138.3408247
 116.8699992 126.5999978 136.4780014 117.0859992 126.2379978 137.3370014
 116.0139992 126.2249978 136.2680014 116.7839354 126.4997906 136.5672160
 119.4879992 115.0699978 132.4730014 118.6269992 114.9829978 132.0660014
 119.4659992 115.9259978 132.9010014 119.3670411 115.1737884 132.4750857
 124.1509992 114.7919978 135.8480014 124.5709992 114.3769978 136.6010014
 123.2179992 114.6129978 135.9650014 124.0823736 114.7109910 135.9668968
 127.4779992 118.5469978 136.7010014 126.9639992 118.4219978 137.4990014
 127.3219992 119.4599978 136.4570014 127.3866967 118.6532123 136.7770937
 128.2399992 123.4079978 122.4630014 128.2819992 123.1859978 121.5330014
 129.0889992 123.8069978 122.6530014 128.3605253 123.4315498 122.3613822
 123.8129992 117.2839978 123.1330014 123.5589992 117.3029978 124.0560014
 123.5559992 116.4129978 122.8320014 123.7435133 117.1688110 123.2185082
 119.5789992 120.0349978 133.5680014 118.9379992 119.9949978 134.2770014
 119.6169992 120.9619978 133.3310014 119.4963670 120.1547795 133.6330550
 119.5759992 120.2559978 128.4800014 118.6839992 119.9159978 128.4220014
 120.0269992 119.8789978 127.7250014 119.5146815 120.1583762 128.3699203
 125.1119992 120.6719978 127.2970014 124.7029992 121.4869978 127.0060014
 125.8319992 120.5319978 126.6830014 125.1534013 120.7646571 127.1740875
 124.2139992 120.8479978 138.7850014 123.6509992 120.1429978 139.1060014
 125.0399992 120.7269978 139.2530014 124.2486674 120.7352165 138.8921751
 126.1169992 120.1179978 130.1110014 125.9209992 120.7239978 129.3960014
 126.2979992 119.2849978 129.6770014 126.1146584 120.0882513 129.9544212
 117.3289992 120.3559978 135.4350014 117.2909992 120.7559978 136.3040014
 116.8389992 119.5389978 135.5260014 117.2575621 120.3002510 135.5661377
 120.6949992 117.7299978 122.2340014 120.2639992 117.2849978 122.9640014
 119.9769992 118.1009978 121.7220014 120.5389363 117.7192968 122.2646211
 113.9379992 117.4719978 129.2860014 114.5679992 117.4429978 130.0050014
 114.3869992 117.0469978 128.5560014 114.0850692 117.4105316 129.2857771
 115.2119992 118.2179978 124.7100014 115.6859992 118.8089978 124.1250014
 114.4939992 118.7479978 125.0570014 115.1798640 118.3705511 124.6767969
 125.3809992 121.7559978 134.7830014 125.7039992 121.1249978 134.1400014
 124.9399992 121.2219978 135.4430014 125.3655789 121.5973522 134.7842232
 122.1579992 117.6839978 129.5670014 121.2469992 117.7409978 129.8550014
 122.6629992 117.6239978 130.3770014 122.1015387 117.6836870 129.7160646
 116.9859992 119.3129978 128.3930014 116.0969992 119.4119978 128.0530014
 117.2829992 118.4709978 128.0470014 116.9044177 119.2127687 128.2996940
 120.6389992 119.3129978 126.0500014 121.5709992 119.4419978 126.2280014
 120.4239992 119.9819978 125.4000014 120.7374472 119.4210806 125.9864891
 126.5629992 116.9189978 132.8310014 125.8859992 117.0499978 133.4950014
 126.0779992 116.7639978 132.0210014 126.4047265 116.9159659 132.8123397
 119.3129992 120.5069978 123.6170014 118.7709992 120.1279978 122.9250014
 120.1469992 120.7019978 123.1880014 119.3515159 120.4815076 123.4644419
 129.8509992 132.5899978 139.1080014 130.0499992 133.0139978 138.2730014
 130.5059992 132.9339978 139.7150014 129.9668501 132.6946091 139.0757097
 117.4489992 125.0639978 138.7160014 118.1809992 125.3189978 139.2770014
 116.6679992 125.2689978 139.2310014 117.4437684 125.1266468 138.8624782
 123.4779992 120.4709978 131.4540014 124.0419992 119.9249978 130.9070014
 123.3299992 119.9499978 132.2420014 123.5352575 120.3256552 131.4856987
 118.4799992 116.6079978 127.8720014 118.1629992 115.7049978 127.8370014
 119.2609992 116.6099978 127.3190014 118.5422307 116.4846951 127.7924314
 122.1039992 118.8599978 133.8680014 121.2689992 119.3139978 133.9780014
 122.6279992 119.1359978 134.6200014 122.0605070 118.9594666 133.9847152
 122.6489992 125.0729978 125.5520014 121.9039992 124.5649978 125.2300014
 122.5139992 125.1219978 126.4990014 122.5289047 125.0101596 125.6358845
 129.7989992 124.2059978 134.3390014 130.4399992 124.6619978 133.7950014
 128.9679992 124.3189978 133.8770014 129.7745171 124.2837502 134.2020237
 126.5459992 117.8869978 123.7520014 125.6079992 117.9979978 123.6000014
 126.8439992 118.7429978 124.0580014 126.4576402 118.0180621 123.7725571
 124.1679992 125.2569978 136.7890014 123.8219992 124.8749978 137.5960014
 123.9679992 126.1899978 136.8610014 124.0936523 125.3309095 136.9090735
 127.2649992 119.7539978 125.4120014 128.1569992 119.6159978 125.7310014
 127.3209992 120.5449978 124.8760014 127.3947107 119.8420526 125.3832091
 117.7729992 124.3679978 131.3220014 118.5179992 124.3649978 130.7210014
 117.8509992 123.5439978 131.8040014 117.8854158 124.2562916 131.3049153
 124.7739992 126.5309978 124.5780014 124.4789992 127.3579978 124.9590014
 124.0709992 125.9119978 124.7740014 124.6385471 126.5605227 124.6566698
 114.7809992 122.8279978 136.6370014 115.0039992 122.4099978 137.4690014
 114.1789992 122.2159978 136.2140014 114.7301260 122.6879933 136.6937320
 121.7979992 122.3449978 138.8500014 121.5019992 122.1799978 137.9550014
 122.7289992 122.1249978 138.8390014 121.8833982 122.2926578 138.7260045
 126.4179992 127.7189978 136.7400014 125.5179992 127.9019978 136.4720014
 126.4519992 127.9779978 137.6610014 126.2992909 127.7790815 136.8277852
 132.1499992 119.9629978 125.1070014 131.5949992 119.5669978 124.4350014
 132.2499992 120.8739978 124.8290014 132.0875888 120.0318990 124.9775206
 132.1129992 125.7639978 137.9440014 131.2619992 126.0019978 137.5770014
 132.7029992 125.7469978 137.1910014 132.0762408 125.7942966 137.7918879
 130.4449992 128.7489978 125.5720014 130.0719992 127.9239978 125.8810014
 130.7219992 128.5659978 124.6750014 130.4313871 128.6112441 125.4929677
 127.6049992 123.5569978 132.5930014 126.6769992 123.3259978 132.5660014
 128.0559992 122.7799978 132.2630014 127.5388165 123.4202774 132.5446790
 120.1479992 127.8859978 128.7260014 120.6759992 128.6589978 128.5260014
 119.2679992 128.1099978 128.4250014 120.1013176 128.0223161 128.6578409
 115.9029992 122.7479978 123.3140014 116.5189992 123.3749978 123.6930014
 115.0409992 123.0639978 123.5850014 115.8708195 122.8765798 123.4025386
 121.5759992 125.5489978 128.3030014 121.3349992 126.4739978 128.3440014
 120.8349992 125.0899978 128.6990014 121.4428390 125.6136403 128.3621404
 122.0899992 129.6979978 134.6180014 122.4529992 130.5519978 134.3840014
 122.6219992 129.4059978 135.3580014 122.2116090 129.7754058 134.6860219
 120.2589992 130.5699978 127.8480014 119.3089992 130.6759978 127.8990014
 120.6109992 131.3909978 128.1930014 120.1765480 130.6954438 127.9015999
 125.6339992 125.7969978 134.3180014 125.2089992 125.5689978 135.1450014
 126.2149992 125.0579978 134.1360014 125.6543930 125.6659843 134.4064732
 127.8369992 126.7259978 123.3920014 128.1909992 126.3459978 124.1970014
 126.8889992 126.6319978 123.4790014 127.7571820 126.6613092 123.5138714
 128.2929992 130.3489978 136.7880014 127.6909992 129.7929978 136.2920014
 128.5739992 131.0159978 136.1620014 128.2486829 130.3631613 136.6355443
 132.3409992 131.2049978 123.5930014 133.0849992 131.7909978 123.4530014
 131.6469992 131.7739978 123.9270014 132.3490201 131.3620603 123.6189772
 116.4149992 117.5819978 136.1950014 115.5229992 117.9199978 136.1280014
 116.3169992 116.7259978 136.6130014 116.2794965 117.5126499 136.2423044
 128.7029992 125.3979978 125.6190014 128.4259992 124.6699978 126.1750014
 129.6309992 125.5169978 125.8240014 128.7904499 125.3144213 125.7228044
 116.0669992 129.3859978 134.6300014 116.2839992 128.4539978 134.5990014
 116.3129992 129.6609978 135.5130014 116.1299809 129.2955686 134.7451691
 121.9279992 127.8379978 121.8390014 122.1669992 127.0889978 121.2920014
 121.6589992 127.4499978 122.6720014 121.9243233 127.6831853 121.8767809
 120.8649992 127.4079978 124.2960014 121.0119992 126.8879978 125.0860014
 120.8619992 128.3149978 124.6020014 120.8847300 127.4593964 124.4455895
 117.3179992 124.6599978 124.8060014 116.6319992 125.0129978 125.3730014
 117.8409992 125.4229978 124.5600014 117.2949033 124.8113746 124.8502661
 125.1499992 117.3229978 135.0850014 125.8489992 117.3969978 135.7350014
 124.7689992 116.4579978 135.2390014 125.1942097 117.2162389 135.1947997
 125.9339992 116.9749978 126.1820014 126.1539992 117.4459978 125.3790014
 126.4929992 117.3689978 126.8520014 126.0396730 117.0927432 126.1625906
 123.6029992 129.1049978 125.0450014 122.7859992 129.6019978 125.0970014
 124.1319992 129.5809978 124.4050014 123.5628508 129.2372543 124.9656035
 123.1339992 118.7029978 127.0170014 123.9459992 119.2069978 127.0630014
 122.8899992 118.5579978 127.9310014 123.2121467 118.7523749 127.1468575
 123.6699992 119.6889978 136.2020014 123.7889992 120.2629978 136.9590014
 124.3249992 119.0009978 136.3160014 123.7749146 119.6745574 136.3211314
 124.0179992 115.7839978 127.9550014 123.6709992 116.4009978 128.6000014
 124.6769992 116.2849978 127.4740014 124.0595949 115.9361099 127.9782271
 120.9409992 130.1489978 125.0270014 121.1019992 130.9489978 124.5260014
 120.7439992 130.4559978 125.9120014 120.9363919 130.2999129 125.0781006
 119.6759992 116.8469978 124.6420014 119.5919992 117.7349978 124.9890014
 120.5659992 116.5819978 124.8740014 119.7848163 116.9327179 124.7208596
 129.8739992 117.5959978 137.0370014 128.9579992 117.8579978 136.9490014
 130.2099992 117.5929978 136.1400014 129.7939789 117.6314626 136.9037847
 128.4769992 121.3459978 131.1320014 127.6789992 120.9309978 130.8040014
 128.9219992 120.6559978 131.6230014 128.4279684 121.1958628 131.1535227
 117.9339992 127.2739978 123.7030014 118.5259992 127.9739978 123.9790014
 118.3929992 126.8409978 122.9830014 118.0770791 127.3112908 123.6434607
 116.2499992 119.9389978 122.8190014 116.2049992 120.8779978 122.9970014
 115.3619992 119.7029978 122.5490014 116.1238555 120.0356874 122.8068939
 129.5629992 130.6019978 132.7550014 129.4069992 131.2809978 132.0980014
 130.4959992 130.6739978 132.9580014 129.6677387 130.7046390 132.6925342
 117.0579992 114.7199978 131.4920014 116.8289992 114.7789978 130.5640014
 116.6159992 113.9289978 131.7980014 116.9668801 114.6210540 131.4064729
 115.9889992 128.6609978 127.6520014 115.1559992 129.1329978 127.6800014
 116.5339992 129.1709978 127.0540014 115.9487590 128.7945897 127.5749194
 115.2769992 131.2729978 138.9820014 115.8169992 131.0569978 139.7420014
 114.7959992 130.4679978 138.7930014 115.2858613 131.1345400 139.0604782
 119.8739992 130.1929978 140.6030014 120.6419992 129.7339978 140.9440014
 119.8529992 129.9669978 139.6730014 119.9762135 130.0996668 140.5239491
 123.9659992 129.7009978 121.9780014 123.3219992 129.0699978 122.2990014
 124.7279992 129.1699978 121.7460014 123.9808058 129.5427902 121.9906038
 126.4509992 128.5729978 139.3320014 126.0999992 127.7159978 139.5750014
 127.1769992 128.7149978 139.9390014 126.5011590 128.4750178 139.4472907
 128.5709992 129.5179978 122.2120014 128.8539992 128.7229978 122.6640014
 129.3099992 129.7509978 121.6510014 128.7096956 129.4407031 122.1979822
 115.1839992 125.0839978 139.9370014 115.3279992 124.1819978 139.6500014
 114.4119992 125.3699978 139.4490014 115.0993303 124.9993243 139.8317908
 119.5249992 125.4269978 122.0690014 119.5899992 124.6329978 122.6000014
 120.1779992 125.3089978 121.3790014 119.6221754 125.3023337 122.0484259
 121.8389992 125.0529978 139.3690014 121.5109992 125.3239978 138.5120014
 121.9909992 124.1119978 139.2820014 121.8146030 124.9628973 139.2397945
 124.8779992 126.4739978 121.8050014 124.6089992 126.6549978 122.7060014
 124.6709992 125.5489978 121.6740014 124.8132000 126.3736774 121.9105693
 127.5739992 124.9689978 136.7530014 128.3189992 125.5579978 136.6330014
 126.8169992 125.5509978 136.8160014 127.5735205 125.1281997 136.7451119
 116.0169992 122.2839978 139.3570014 116.4249992 121.4269978 139.2360014
 115.7559992 122.2979978 140.2780014 116.0376016 122.1685119 139.4649192
 120.6749992 123.3999978 124.3750014 120.2149992 122.9159978 125.0610014
 120.9299992 122.7309978 123.7390014 120.6465038 123.2433689 124.3829447
 119.9639992 121.2929978 136.7310014 119.3449992 121.9669978 137.0110014
 120.3079992 121.6139978 135.8980014 119.9257605 121.4287198 136.6566707
 121.7459992 121.6429978 122.6370014 121.5649992 121.4879978 121.7100014
 122.6959992 121.7509978 122.6820014 121.8496566 121.6363669 122.5160929
 124.9829992 123.7639978 140.0080014 125.9369992 123.8479978 139.9810014
 124.8229992 123.0519978 140.6280014 125.0917182 123.6792842 140.0880733
 131.1359992 123.9969978 122.0830014 130.8619992 123.5729978 121.2700014
 131.1749992 124.9289978 121.8660014 131.1037716 124.0648827 121.9424286
 120.3029992 118.6479978 137.8130014 120.4529992 117.9189978 137.2110014
 120.3049992 119.4249978 137.2540014 120.3237967 118.6532708 137.6550541
 120.7159992 117.0169978 135.3060014 121.2509992 117.4689978 134.6540014
 119.8629992 116.9089978 134.8830014 120.6740374 117.0642665 135.1596710
 122.2969992 122.4569978 135.5450014 123.0479992 122.3009978 134.9720014
 121.9579992 123.3089978 135.2700014 122.3539587 122.5508138 135.4294078
 126.7129992 120.2719978 140.5740014 126.9049992 119.3409978 140.4620014
 127.5709992 120.6969978 140.5640014 126.8552269 120.2019928 140.5573192
 128.0299992 123.0609978 138.6510014 127.7479992 123.7699978 138.0740014
 128.9719992 122.9879978 138.5000014 128.1187656 123.1483128 138.5514809
 118.7819992 119.8459978 139.7250014 118.0139992 119.3129978 139.5150014
 119.4599992 119.5359978 139.1250014 118.7686973 119.7312375 139.6151796
 121.5209992 114.4739978 135.7370014 121.4229992 115.4199978 135.6320014
 120.7789992 114.1009978 135.2620014 121.4071913 114.5531813 135.6583539
 122.7849992 118.7949978 139.3010014 122.5499992 118.5759978 140.2030014
 122.0019992 118.5879978 138.7910014 122.6469219 118.7370066 139.3555852
 125.5009992 117.9229978 138.3770014 124.5529992 117.9549978 138.5090014
 125.8129992 117.2969978 139.0300014 125.4135190 117.8427262 138.4833563
 127.1349992 116.5569978 140.3820014 127.0379992 115.6049978 140.3760014
 126.8129992 116.8249978 141.2420014 127.0781761 116.4629744 140.4974936
 116.9619992 117.7659978 139.4290014 117.1739992 117.0599978 138.8190014
 116.8509992 117.3289978 140.2730014 116.9760269 117.6101921 139.4595873
 121.7429992 113.7679978 138.4090014 122.4549992 113.1279978 138.3950014
 121.6419992 114.0339978 137.4950014 121.8267261 113.7164190 138.2835537
 122.0969992 115.4499978 140.4620014 121.9649992 114.9749978 139.6420014
 121.4969992 116.1949978 140.4070014 121.9979070 115.4855789 140.3423251
 121.6429992 132.3329978 123.6390014 122.5759992 132.4909978 123.7820014
 121.3789992 133.0089978 123.0140014 121.7349308 132.4459104 123.5741396
 115.2109992 126.9699978 123.1210014 116.1249992 127.0489978 123.3950014
 115.2189992 126.2829978 122.4550014 115.3371143 126.8879085 123.0684274
 113.8599992 132.3629978 128.1990014 113.2129992 131.9009978 127.6660014
 114.2149992 131.6909978 128.7810014 113.8194506 132.2089503 128.2047341
 114.7299992 130.4429978 130.0030014 114.3959992 129.5629978 130.1750014
 114.9529992 130.7889978 130.8680014 114.7143721 130.3691938 130.1434168
 132.2789992 131.2529978 132.9840014 132.2569992 131.4379978 133.9230014
 132.9689992 131.8209978 132.6430014 132.3693439 131.3551887 133.0664791
 131.8419992 130.8199978 135.9060014 131.3549992 130.0849978 135.5350014
 132.3909992 130.4259978 136.5840014 131.8495247 130.6661057 135.9468461
 130.2929992 126.6099978 140.5440014 129.4269992 126.5049978 140.9380014
 130.6689992 127.3679978 140.9900014 130.2253401 126.6981708 140.6582620
 131.5939992 124.8659978 126.0580014 132.4439992 125.2869978 126.1850014
 131.5989992 124.1259978 126.6650014 131.7111143 124.8236094 126.1574750
 131.9879992 122.9199978 127.8820014 131.2619992 122.4399978 128.2790014
 132.5699992 123.1249978 128.6140014 131.9671635 122.8819166 128.0353748
 131.7469992 125.7049978 132.8290014 132.5809992 125.3269978 132.5490014
 131.8589992 126.6479978 132.7100014 131.8762522 125.7807742 132.7746020
 130.2339992 128.5829978 135.1360014 129.5859992 128.9079978 135.7620014
 129.7159992 128.1419978 134.4620014 130.0754168 128.5678523 135.1305307
 132.2569992 122.8209978 124.2730014 131.7349992 123.1769978 123.5540014
 132.2239992 123.4959978 124.9510014 132.1810699 122.9609848 124.2662129
 130.6059992 120.0599978 122.8240014 130.7019992 120.7269978 122.1440014
 130.4659992 119.2449978 122.3420014 130.6002063 120.0410667 122.6658377
 129.7749992 121.4409978 128.4450014 129.6249992 120.4959978 128.4240014
 129.4209992 121.7219978 129.2880014 129.7065527 121.3495605 128.5561859
 114.8099992 123.5189978 132.4550014 114.9949992 123.4369978 131.5190014
 115.6599992 123.3949978 132.8790014 114.9500916 123.4910393 132.3842896
 130.6309992 123.4109978 138.0830014 131.2139992 122.6759978 138.2750014
 131.1949992 124.1829978 138.1300014 130.7869781 123.4148145 138.1156164
 132.1279992 121.3139978 138.7680014 131.2649992 120.9349978 138.6020014
 132.7319992 120.5749978 138.6940014 132.0915944 121.1622978 138.7352984
 129.8529992 117.4679978 121.9410014 130.4639992 117.0969978 122.5780014
 129.0159992 117.0469978 122.1370014 129.8234947 117.3602756 122.0547252
 129.4859992 119.0229978 126.9070014 129.7649992 118.1159978 127.0310014
 130.2449992 119.4569978 126.5180014 129.6268619 118.9574502 126.8713795
 130.0969992 119.6049978 132.3430014 131.0299992 119.8169978 132.3090014
 129.8619992 119.7059978 133.2650014 130.1928308 119.6476503 132.4630214
 130.1269992 120.3419978 135.1190014 129.2839992 120.6099978 135.4850014
 130.5689992 121.1639978 134.9080014 130.0714138 120.4898273 135.1405518
 114.4079992 118.7889978 138.5960014 115.3269992 118.6669978 138.8320014
 113.9579992 118.0389978 138.9850014 114.4731148 118.6708751 138.6809408
 132.4099992 114.3219978 140.4720014 132.7589992 113.6679978 139.8670014
 132.5569992 115.1589978 140.0330014 132.4777355 114.3456067 140.3296564
 130.0989992 116.2859978 126.9550014 130.2809992 115.8369978 127.7810014
 129.4989992 115.7019978 126.4920014 130.0427529 116.1456131 127.0053619
 115.6289992 117.1019978 131.4870014 116.0739992 116.3099978 131.7890014
 116.0949992 117.8179978 131.9180014 115.7529059 117.0904474 131.5866079
 113.9329992 120.1009978 132.5560014 114.4249992 119.8799978 131.7650014
 114.2949992 120.9409978 132.8370014 114.0492923 120.1843468 132.4857407
 131.9289992 116.4309978 138.8220014 131.0119992 116.7019978 138.7860014
 132.0519992 115.8959978 138.0380014 131.8200828 116.3957700 138.7110785
 131.9659992 116.3539978 123.4830014 132.3779992 115.6329978 123.0080014
 132.6469992 117.0229978 123.5420014 132.1145900 116.3457306 123.4259038
 114.2469992 116.3589978 126.6100014 113.3219992 116.5669978 126.4810014
 114.7009992 116.8429978 125.9210014 114.1816374 116.4529949 126.4990957
 129.0169992 131.3429978 128.5560014 129.6699992 130.9949978 127.9480014
 129.5279992 131.8309978 129.2020014 129.1752777 131.3613815 128.5602047
 114.2099992 115.0969978 134.9550014 113.5449992 114.8509978 135.5980014
 113.7669992 115.7189978 134.3770014 114.0590937 115.1473614 134.9649379
 116.4019992 128.2719978 139.0990014 115.5809992 128.4469978 138.6390014
 116.1499992 128.1989978 140.0200014 116.2556173 128.2860794 139.1604972
 119.3559992 129.2459978 135.3580014 118.9319992 130.0559978 135.0750014
 120.2609992 129.3319978 135.0560014 119.4202433 129.3683331 135.2785377
 123.6679992 130.6449978 138.3170014 123.8519992 130.3119978 139.1950014
 124.5139992 130.9549978 137.9950014 123.8076484 130.6412979 138.3937617
 126.0129992 131.9309978 137.5610014 126.6899992 131.2979978 137.3210014
 126.3339992 132.3319978 138.3680014 126.1491323 131.8985691 137.6373158
 130.9299992 114.5209978 136.6410014 130.1169992 114.8459978 136.2530014
 131.1629992 113.7599978 136.1080014 130.8502566 114.4626559 136.5159213
 116.7579992 132.5029978 135.4050014 116.0379992 132.9429978 134.9540014
 116.3929992 132.2519978 136.2540014 116.6099796 132.5293824 135.4579329
 119.2249992 132.1029978 134.4350014 118.3609992 132.1749978 134.8390014
 119.1699992 132.6499978 133.6510014 119.0991942 132.1867849 134.3844000
 123.9359992 131.9909978 133.6100014 123.4789992 132.5199978 132.9560014
 124.0989992 132.5939978 134.3360014 123.8954476 132.1449140 133.6185499
 126.2639992 130.8689978 134.5550014 125.3589992 131.0339978 134.2900014
 126.6919992 131.7219978 134.4900014 126.1980700 131.0069529 134.5099520
 128.8679992 132.4389978 134.8500014 128.6859992 133.3549978 134.6400014
 129.0449992 132.0279978 134.0040014 128.8669907 132.5089741 134.7067883
 116.1729992 131.1259978 132.3150014 116.1549992 130.6999978 133.1730014
 116.9779992 130.8069978 131.9070014 116.2793221 131.0247233 132.3770225
 118.3139992 129.8359978 130.9700014 118.0949992 128.9189978 131.1400014
 119.1379992 129.9759978 131.4360014 118.3954702 129.7295511 131.0562527
 120.8509992 130.3059978 131.8190014 121.0639992 129.4179978 131.5320014
 120.9159992 130.2709978 132.7740014 120.8889075 130.1798307 131.9087373
 124.3599992 115.9699978 130.9630014 123.6859992 115.3399978 131.2190014
 124.9239992 115.4859978 130.3600014 124.3440384 115.8183708 130.9165020
 129.5029992 114.0769978 131.0760014 130.1059992 114.6249978 130.5740014
 128.6329992 114.3959978 130.8360014 129.4679190 114.1951041 130.9748679
 131.2299992 115.2159978 129.4090014 131.8409992 114.7019978 128.8830014
 131.6119992 116.0929978 129.4330014 131.3654475 115.2641323 129.3401208
 116.6869992 114.6039978 128.7850014 115.9099992 114.3689978 128.2780014
 117.2169992 113.8069978 128.7940014 116.6523451 114.4641268 128.7168627
 115.5229992 114.4019978 124.5890014 115.9619992 115.0129978 123.9970014
 114.8889992 114.9399978 125.0630014 115.4973859 114.5584064 124.5720305
 121.2659992 114.5299978 128.5990014 122.1399992 114.9189978 128.5690014
 121.1299992 114.3149978 129.5210014 121.3673207 114.5541923 128.7196509
 126.8229992 114.5599978 130.2480014 126.8989992 114.6559978 129.2990014
 126.5479992 113.6529978 130.3770014 126.7962042 114.4504241 130.1353811
 128.1759992 114.5859978 125.9400014 127.4729992 115.2009978 125.7310014
 127.7309992 113.7489978 126.0720014 128.0196292 114.5570085 125.9292439
 115.4239992 130.3499978 125.4870014 114.7389992 130.3119978 124.8190014
 115.4279992 131.2629978 125.7750014 115.3308174 130.4681998 125.4345310
 117.3839992 116.3179978 123.0310014 117.8749992 115.6879978 122.5040014
 118.0069992 116.6139978 123.6950014 117.5355062 116.2716770 123.0485438
 122.4099992 116.6109978 125.4890014 122.5879992 115.9639978 126.1710014
 122.3559992 117.4449978 125.9560014 122.4271025 116.6350504 125.6456433
 124.2879992 131.5589978 123.8840014 125.1539992 131.9259978 123.7060014
 124.0419992 131.1199978 123.0700014 124.3732097 131.5498525 123.7496019
 130.9969992 131.1219978 126.5630014 130.8029992 130.3739978 125.9980014
 130.9579992 131.8799978 125.9800014 130.9651645 131.1220786 126.4068148
 116.6439992 115.1179978 138.3030014 116.2779992 114.3519978 138.7460014
 117.5569992 115.1469978 138.5900014 116.7173225 115.0171906 138.4023459
 118.6169992 114.4679978 139.8390014 119.5159992 114.1939978 139.6540014
 118.2309992 113.7259978 140.3030014 118.6877237 114.3301508 139.8764710
 117.2419992 131.2699978 122.5120014 116.9739992 131.5559978 123.3850014
 118.0129992 130.7239978 122.6640014 117.3095600 131.2353330 122.6521499
 127.0389992 113.8009978 140.0210014 127.1149992 113.3749978 140.8750014
 127.9319992 113.8139978 139.6780014 127.1702267 113.7443952 140.0915932
 130.2149992 129.8739978 138.7130014 129.4329992 129.6869978 138.1940014
 130.1429992 130.8029978 138.9310014 130.0980863 129.9740221 138.6713574
 144.6209992 123.7599978 128.7440014 144.7099992 124.7039978 128.6120014
 143.9829992 123.4849978 128.0860014 144.5469062 123.8519812 128.6369641
 143.5539992 123.0149978 132.1630014 143.5159992 122.3689978 132.8680014
 143.2319992 122.5479978 131.3920014 143.5052679 122.8634276 132.1552921
 135.9219992 122.6289978 133.7560014 135.9639992 122.0039978 134.4790014
 136.6249992 123.2529978 133.9380014 136.0227345 122.6277873 133.8795274
 136.8459992 127.0789978 132.2910014 136.4759992 126.2769978 131.9210014
 137.7869992 126.9109978 132.3370014 136.9225984 126.9464638 132.2465603
 133.4559992 120.7389978 127.6840014 133.0079992 121.5849978 127.6650014
 132.8949992 120.1599978 127.1680014 133.3189603 120.7763674 127.6116720
 134.1659992 122.9009978 129.8100014 134.3799992 122.1309978 130.3370014
 134.9039992 122.9909978 129.2060014 134.2949652 122.8078012 129.8005212
 144.3719992 131.0579978 130.6770014 144.9909992 130.3819978 130.4030014
 144.1629992 130.8399978 131.5850014 144.4286232 130.9357938 130.7622517
 141.9429992 125.4469978 132.5690014 142.2469992 124.7609978 131.9750014
 142.6649992 125.5659978 133.1870014 142.0821152 125.3692189 132.5712123
 145.0839992 119.8409978 132.8970014 145.2269992 118.8949978 132.9170014
 144.9779992 120.0479978 131.9680014 145.0892509 119.7394813 132.7742231
 138.2389992 117.9429978 130.1690014 138.2819992 118.8029978 129.7510014
 137.7809992 117.3909978 129.5350014 138.1829815 117.9860621 130.0261197
 134.8589992 120.3399978 130.9310014 135.5129992 119.7899978 131.3630014
 134.8829992 120.0659978 130.0140014 134.9517199 120.2277167 130.8661668
 140.0159992 121.8899978 130.1460014 140.6319992 121.3629978 130.6560014
 139.4289992 121.2499978 129.7430014 140.0209239 121.7314117 130.1612952
 137.0489992 116.8609978 134.2430014 136.8299992 117.3909978 133.4770014
 136.3809992 117.0869978 134.8900014 136.9287001 116.9641154 134.2256064
 144.4179992 126.3609978 127.7870014 144.1229992 126.0379978 126.9360014
 144.0939992 127.2609978 127.8280014 144.3337983 126.4384026 127.6759771
 139.6179992 124.5359978 134.5310014 138.8779992 125.1349978 134.6340014
 140.3319992 125.0899978 134.2150014 139.6133288 124.6927356 134.5023805
 136.6429992 118.7529978 132.1950014 137.2569992 119.3859978 132.5690014
 137.1549992 118.2809978 131.5390014 136.7962277 118.7757352 132.1574279
 138.0259992 126.5009978 135.3180014 138.0199992 127.3799978 134.9400014
 137.1719992 126.4169978 135.7430014 137.9097925 126.6099535 135.3236887
 134.1469992 126.1719978 126.1000014 133.8749992 126.4009978 125.2110014
 134.1919992 127.0089978 126.5600014 134.1158709 126.3166058 126.0406107
 141.0759992 114.1659978 131.6960014 140.9579992 113.2179978 131.6410014
 140.2209992 114.4989978 131.9690014 140.9442679 114.0811926 131.7253720
 143.3419992 123.0039978 126.1960014 142.6309992 123.5389978 125.8440014
 144.0329992 123.0589978 125.5360014 143.3380751 123.0846777 126.0585858
 143.3959992 121.4609978 123.2350014 144.0969992 121.4839978 123.8860014
 143.6979992 120.8329978 122.5790014 143.5328282 121.3792339 123.2354496
 138.3929992 123.8439978 129.0300014 138.0629992 123.4729978 128.2120014
 138.9819992 123.1729978 129.3770014 138.4273970 123.7026063 128.9649404
 139.7599992 127.2719978 131.7120014 139.6649992 126.6929978 130.9550014
 140.4889992 126.9009978 132.2080014 139.8456161 127.1425891 131.6755209
 138.7599992 122.6119978 132.6640014 139.3249992 122.7339978 131.9010014
 139.0789992 123.2499978 133.3030014 138.8803977 122.7148851 132.6459424
 145.0689992 128.1159978 133.3980014 144.8289992 128.7779978 134.0460014
 144.8709992 127.2809978 133.8230014 145.0093826 128.0938115 133.5441566
 139.6399992 127.0119978 137.3810014 139.3289992 127.7939978 137.8360014
 138.9899992 126.8589978 136.6950014 139.5095538 127.0984087 137.3505898
 136.5599992 123.2099978 136.6100014 136.6299992 123.8609978 137.3080014
 135.6689992 123.3129978 136.2750014 136.4491802 123.3129757 136.6602249
 143.3449992 129.1119978 128.2680014 143.8189992 129.4079978 129.0460014
 142.7819992 129.8509978 128.0350014 143.3337361 129.2522721 128.3428611
 137.8789992 129.0829978 138.1440014 137.8869992 128.9469978 137.1970014
 136.9629992 128.9659978 138.3960014 137.7562528 129.0485463 138.0483243
 137.3839992 122.9129978 126.6200014 137.0919992 123.6809978 126.1290014
 136.7089992 122.2539978 126.4570014 137.2528497 122.9289745 126.5308260
 133.4769992 125.2759978 135.4350014 132.9749992 125.2479978 134.6200014
 133.4819992 124.3709978 135.7440014 133.4090416 125.1497368 135.3653766
 133.2269992 128.0569978 132.3190014 134.1729992 127.9119978 132.3000014
 133.1139992 128.8409978 132.8560014 133.3413578 128.1431697 132.3890317
 142.4029992 128.2969978 136.8770014 142.4909992 129.1229978 137.3520014
 141.5399992 127.9669978 137.1260014 142.2983357 128.3655468 136.9757653
 142.8179992 132.0689978 126.6830014 142.7419992 131.9479978 125.7370014
 142.8499992 133.0179978 126.8020014 142.8119156 132.1807530 126.5695048
 136.4709992 130.8579978 128.4640014 136.6229992 130.5099978 129.3430014
 135.6199992 130.5009978 128.2090014 136.3767899 130.7621738 128.5497340
 135.7259992 126.5999978 136.4780014 135.9419992 126.2379978 137.3370014
 134.8699992 126.2249978 136.2680014 135.6399354 126.4997906 136.5672160
 138.3439992 115.0699978 132.4730014 137.4829992 114.9829978 132.0660014
 138.3219992 115.9259978 132.9010014 138.2230411 115.1737884 132.4750857
 143.0069992 114.7919978 135.8480014 143.4269992 114.3769978 136.6010014
 142.0739992 114.6129978 135.9650014 142.9383736 114.7109910 135.9668968
 142.6689992 117.2839978 123.1330014 142.4149992 117.3029978 124.0560014
 142.4119992 116.4129978 122.8320014 142.5995133 117.1688110 123.2185082
 138.4349992 120.0349978 133.5680014 137.7939992 119.9949978 134.2770014
 138.4729992 120.9619978 133.3310014 138.3523670 120.1547795 133.6330550
 138.4319992 120.2559978 128.4800014 137.5399992 119.9159978 128.4220014
 138.8829992 119.8789978 127.7250014 138.3706815 120.1583762 128.3699203
 143.9679992 120.6719978 127.2970014 143.5589992 121.4869978 127.0060014
 144.6879992 120.5319978 126.6830014 144.0094013 120.7646571 127.1740875
 143.0699992 120.8479978 138.7850014 142.5069992 120.1429978 139.1060014
 143.8959992 120.7269978 139.2530014 143.1046674 120.7352165 138.8921751
 144.9729992 120.1179978 130.1110014 144.7769992 120.7239978 129.3960014
 145.1539992 119.2849978 129.6770014 144.9706584 120.0882513 129.9544212
 136.1849992 120.3559978 135.4350014 136.1469992 120.7559978 136.3040014
 135.6949992 119.5389978 135.5260014 136.1135621 120.3002510 135.5661377
 139.5509992 117.7299978 122.2340014 139.1199992 117.2849978 122.9640014
 138.8329992 118.1009978 121.7220014 139.3949363 117.7192968 122.2646211
 132.7939992 117.4719978 129.2860014 133.4239992 117.4429978 130.0050014
 133.2429992 117.0469978 128.5560014 132.9410692 117.4105316 129.2857771
 134.0679992 118.2179978 124.7100014 134.5419992 118.8089978 124.1250014
 133.3499992 118.7479978 125.0570014 134.0358640 118.3705511 124.6767969
 144.2369992 121.7559978 134.7830014 144.5599992 121.1249978 134.1400014
 143.7959992 121.2219978 135.4430014 144.2215789 121.5973522 134.7842232
 141.0139992 117.6839978 129.5670014 140.1029992 117.7409978 129.8550014
 141.5189992 117.6239978 130.3770014 140.9575387 117.6836870 129.7160646
 135.8419992 119.3129978 128.3930014 134.9529992 119.4119978 128.0530014
 136.1389992 118.4709978 128.0470014 135.7604177 119.2127687 128.2996940
 139.4949992 119.3129978 126.0500014 140.4269992 119.4419978 126.2280014
 139.2799992 119.9819978 125.4000014 139.5934472 119.4210806 125.9864891
 145.4189992 116.9189978 132.8310014 144.7419992 117.0499978 133.4950014
 144.9339992 116.7639978 132.0210014 145.2607265 116.9159659 132.8123397
 138.1689992 120.5069978 123.6170014 137.6269992 120.1279978 122.9250014
 139.0029992 120.7019978 123.1880014 138.2075159 120.4815076 123.4644419
 136.3049992 125.0639978 138.7160014 137.0369992 125.3189978 139.2770014
 135.5239992 125.2689978 139.2310014 136.2997684 125.1266468 138.8624782
 142.3339992 120.4709978 131.4540014 142.8979992 119.9249978 130.9070014
 142.1859992 119.9499978 132.2420014 142.3912575 120.3256552 131.4856987
 137.3359992 116.6079978 127.8720014 137.0189992 115.7049978 127.8370014
 138.1169992 116.6099978 127.3190014 137.3982307 116.4846951 127.7924314
 140.9599992 118.8599978 133.8680014 140.1249992 119.3139978 133.9780014
 141.4839992 119.1359978 134.6200014 140.9165070 118.9594666 133.9847152
 141.5049992 125.0729978 125.5520014 140.7599992 124.5649978 125.2300014
 141.3699992 125.1219978 126.4990014 141.3849047 125.0101596 125.6358845
 145.4019992 117.8869978 123.7520014 144.4639992 117.9979978 123.6000014
 145.6999992 118.7429978 124.0580014 145.3136402 118.0180621 123.7725571
 143.0239992 125.2569978 136.7890014 142.6779992 124.8749978 137.5960014
 142.8239992 126.1899978 136.8610014 142.9496523 125.3309095 136.9090735
 136.6289992 124.3679978 131.3220014 137.3739992 124.3649978 130.7210014
 136.7069992 123.5439978 131.8040014 136.7414158 124.2562916 131.3049153
 143.6299992 126.5309978 124.5780014 143.3349992 127.3579978 124.9590014
 142.9269992 125.9119978 124.7740014 143.4945471 126.5605227 124.6566698
 133.6369992 122.8279978 136.6370014 133.8599992 122.4099978 137.4690014
 133.0349992 122.2159978 136.2140014 133.5861260 122.6879933 136.6937320
 140.6539992 122.3449978 138.8500014 140.3579992 122.1799978 137.9550014
 141.5849992 122.1249978 138.8390014 140.7393982 122.2926578 138.7260045
 145.2739992 127.7189978 136.7400014 144.3739992 127.9019978 136.4720014
 145.3079992 127.9779978 137.6610014 145.1552909 127.7790815 136.8277852
 139.0039992 127.8859978 128.7260014 139.5319992 128.6589978 128.5260014
 138.1239992 128.1099978 128.4250014 138.9573176 128.0223161 128.6578409
 134.7589992 122.7479978 123.3140014 135.3749992 123.3749978 123.6930014
 133.8969992 123.0639978 123.5850014 134.7268195 122.8765798 123.4025386
 140.4319992 125.5489978 128.3030014 140.1909992 126.4739978 128.3440014
 139.6909992 125.0899978 128.6990014 140.2988390 125.6136403 128.3621404
 140.9459992 129.6979978 134.6180014 141.3089992 130.5519978 134.3840014
 141.4779992 129.4059978 135.3580014 141.0676090 129.7754058 134.6860219
 139.1149992 130.5699978 127.8480014 138.1649992 130.6759978 127.8990014
 139.4669992 131.3909978 128.1930014 139.0325480 130.6954438 127.9015999
 144.4899992 125.7969978 134.3180014 144.0649992 125.5689978 135.1450014
 145.0709992 125.0579978 134.1360014 144.5103930 125.6659843 134.4064732
 135.2709992 117.5819978 136.1950014 134.3789992 117.9199978 136.1280014
 135.1729992 116.7259978 136.6130014 135.1354965 117.5126499 136.2423044
 134.9229992 129.3859978 134.6300014 135.1399992 128.4539978 134.5990014
 135.1689992 129.6609978 135.5130014 134.9859809 129.2955686 134.7451690
 140.7839992 127.8379978 121.8390014 141.0229992 127.0889978 121.2920014
 140.5149992 127.4499978 122.6720014 140.7803233 127.6831853 121.8767809
 139.7209992 127.4079978 124.2960014 139.8679992 126.8879978 125.0860014
 139.7179992 128.3149978 124.6020014 139.7407300 127.4593964 124.4455895
 136.1739992 124.6599978 124.8060014 135.4879992 125.0129978 125.3730014
 136.6969992 125.4229978 124.5600014 136.1509033 124.8113746 124.8502661
 144.0059992 117.3229978 135.0850014 144.7049992 117.3969978 135.7350014
 143.6249992 116.4579978 135.2390014 144.0502097 117.2162389 135.1947997
 144.7899992 116.9749978 126.1820014 145.0099992 117.4459978 125.3790014
 145.3489992 117.3689978 126.8520014 144.8956730 117.0927432 126.1625906
 142.4589992 129.1049978 125.0450014 141.6419992 129.6019978 125.0970014
 142.9879992 129.5809978 124.4050014 142.4188508 129.2372543 124.9656035
 141.9899992 118.7029978 127.0170014 142.8019992 119.2069978 127.0630014
 141.7459992 118.5579978 127.9310014 142.0681467 118.7523749 127.1468575
 142.5259992 119.6889978 136.2020014 142.6449992 120.2629978 136.9590014
 143.1809992 119.0009978 136.3160014 142.6309146 119.6745574 136.3211314
 142.8739992 115.7839978 127.9550014 142.5269992 116.4009978 128.6000014
 143.5329992 116.2849978 127.4740014 142.9155949 115.9361099 127.9782271
 139.7969992 130.1489978 125.0270014 139.9579992 130.9489978 124.5260014
 139.5999992 130.4559978 125.9120014 139.7923919 130.2999129 125.0781006
 138.5319992 116.8469978 124.6420014 138.4479992 117.7349978 124.9890014
 139.4219992 116.5819978 124.8740014 138.6408163 116.9327179 124.7208596
 136.7899992 127.2739978 123.7030014 137.3819992 127.9739978 123.9790014
 137.2489992 126.8409978 122.9830014 136.9330791 127.3112908 123.6434607
 135.1059992 119.9389978 122.8190014 135.0609992 120.8779978 122.9970014
 134.2179992 119.7029978 122.5490014 134.9798555 120.0356874 122.8068939
 135.9139992 114.7199978 131.4920014 135.6849992 114.7789978 130.5640014
 135.4719992 113.9289978 131.7980014 135.8228801 114.6210540 131.4064729
 134.8449992 128.6609978 127.6520014 134.0119992 129.1329978 127.6800014
 135.3899992 129.1709978 127.0540014 134.8047590 128.7945897 127.5749194
 134.1329992 131.2729978 138.9820014 134.6729992 131.0569978 139.7420014
 133.6519992 130.4679978 138.7930014 134.1418613 131.1345400 139.0604782
 138.7299992 130.1929978 140.6030014 139.4979992 129.7339978 140.9440014
 138.7089992 129.9669978 139.6730014 138.8322135 130.0996668 140.5239491
 142.8219992 129.7009978 121.9780014 142.1779992 129.0699978 122.2990014
 143.5839992 129.1699978 121.7460014 142.8368058 129.5427902 121.9906038
 145.3069992 128.5729978 139.3320014 144.9559992 127.7159978 139.5750014
 146.0329992 128.7149978 139.9390014 145.3571590 128.4750178 139.4472907
 134.0399992 125.0839978 139.9370014 134.1839992 124.1819978 139.6500014
 133.2679992 125.3699978 139.4490014 133.9553303 124.9993243 139.8317908
 138.3809992 125.4269978 122.0690014 138.4459992 124.6329978 122.6000014
 139.0339992 125.3089978 121.3790014 138.4781754 125.3023337 122.0484259
 140.6949992 125.0529978 139.3690014 140.3669992 125.3239978 138.5120014
 140.8469992 124.1119978 139.2820014 140.6706030 124.9628973 139.2397945
 143.7339992 126.4739978 121.8050014 143.4649992 126.6549978 122.7060014
 143.5269992 125.5489978 121.6740014 143.6692000 126.3736774 121.9105693
 134.8729992 122.2839978 139.3570014 135.2809992 121.4269978 139.2360014
 134.6119992 122.2979978 140.2780014 134.8936016 122.1685119 139.4649192
 139.5309992 123.3999978 124.3750014 139.0709992 122.9159978 125.0610014
 139.7859992 122.7309978 123.7390014 139.5025038 123.2433689 124.3829447
 138.8199992 121.2929978 136.7310014 138.2009992 121.9669978 137.0110014
 139.1639992 121.6139978 135.8980014 138.7817605 121.4287198 136.6566707
 140.6019992 121.6429978 122.6370014 140.4209992 121.4879978 121.7100014
 141.5519992 121.7509978 122.6820014 140.7056566 121.6363669 122.5160929
 143.8389992 123.7639978 140.0080014 144.7929992 123.8479978 139.9810014
 143.6789992 123.0519978 140.6280014 143.9477182 123.6792842 140.0880733
 139.1589992 118.6479978 137.8130014 139.3089992 117.9189978 137.2110014
 139.1609992 119.4249978 137.2540014 139.1797967 118.6532708 137.6550541
 139.5719992 117.0169978 135.3060014 140.1069992 117.4689978 134.6540014
 138.7189992 116.9089978 134.8830014 139.5300374 117.0642665 135.1596710
 141.1529992 122.4569978 135.5450014 141.9039992 122.3009978 134.9720014
 140.8139992 123.3089978 135.2700014 141.2099587 122.5508138 135.4294078
 145.5689992 120.2719978 140.5740014 145.7609992 119.3409978 140.4620014
 146.4269992 120.6969978 140.5640014 145.7112269 120.2019928 140.5573192
 137.6379992 119.8459978 139.7250014 136.8699992 119.3129978 139.5150014
 138.3159992 119.5359978 139.1250014 137.6246973 119.7312375 139.6151796
 140.3769992 114.4739978 135.7370014 140.2789992 115.4199978 135.6320014
 139.6349992 114.1009978 135.2620014 140.2631913 114.5531813 135.6583539
 141.6409992 118.7949978 139.3010014 141.4059992 118.5759978 140.2030014
 140.8579992 118.5879978 138.7910014 141.5029219 118.7370066 139.3555852
 144.3569992 117.9229978 138.3770014 143.4089992 117.9549978 138.5090014
 144.6689992 117.2969978 139.0300014 144.2695190 117.8427262 138.4833563
 135.8179992 117.7659978 139.4290014 136.0299992 117.0599978 138.8190014
 135.7069992 117.3289978 140.2730014 135.8320269 117.6101921 139.4595873
 140.5989992 113.7679978 138.4090014 141.3109992 113.1279978 138.3950014
 140.4979992 114.0339978 137.4950014 140.6827261 113.7164190 138.2835537
 140.9529992 115.4499978 140.4620014 140.8209992 114.9749978 139.6420014
 140.3529992 116.1949978 140.4070014 140.8539070 115.4855789 140.3423251
 140.4989992 132.3329978 123.6390014 141.4319992 132.4909978 123.7820014
 140.2349992 133.0089978 123.0140014 140.5909308 132.4459104 123.5741396
 134.0669992 126.9699978 123.1210014 134.9809992 127.0489978 123.3950014
 134.0749992 126.2829978 122.4550014 134.1931143 126.8879085 123.0684274
 132.7159992 132.3629978 128.1990014 132.0689992 131.9009978 127.6660014
 133.0709992 131.6909978 128.7810014 132.6754506 132.2089503 128.2047341
 133.5859992 130.4429978 130.0030014 133.2519992 129.5629978 130.1750014
 133.8089992 130.7889978 130.8680014 133.5703721 130.3691938 130.1434168
 133.6659992 123.5189978 132.4550014 133.8509992 123.4369978 131.5190014
 134.5159992 123.3949978 132.8790014 133.8060916 123.4910393 132.3842896
 133.2639992 118.7889978 138.5960014 134.1829992 118.6669978 138.8320014
 132.8139992 118.0389978 138.9850014 133.3291148 118.6708751 138.6809408
 134.4849992 117.1019978 131.4870014 134.9299992 116.3099978 131.7890014
 134.9509992 117.8179978 131.9180014 134.6089059 117.0904474 131.5866079
 132.7889992 120.1009978 132.5560014 133.2809992 119.8799978 131.7650014
 133.1509992 120.9409978 132.8370014 132.9052923 120.1843468 132.4857407
 133.1029992 116.3589978 126.6100014 132.1779992 116.5669978 126.4810014
 133.5569992 116.8429978 125.9210014 133.0376374 116.4529949 126.4990957
 133.0659992 115.0969978 134.9550014 132.4009992 114.8509978 135.5980014
 132.6229992 115.7189978 134.3770014 132.9150937 115.1473614 134.9649379
 135.2579992 128.2719978 139.0990014 134.4369992 128.4469978 138.6390014
 135.0059992 128.1989978 140.0200014 135.1116173 128.2860794 139.1604972
 138.2119992 129.2459978 135.3580014 137.7879992 130.0559978 135.0750014
 139.1169992 129.3319978 135.0560014 138.2762433 129.3683331 135.2785377
 142.5239992 130.6449978 138.3170014 142.7079992 130.3119978 139.1950014
 143.3699992 130.9549978 137.9950014 142.6636484 130.6412979 138.3937617
 144.8689992 131.9309978 137.5610014 145.5459992 131.2979978 137.3210014
 145.1899992 132.3319978 138.3680014 145.0051323 131.8985691 137.6373158
 135.6139992 132.5029978 135.4050014 134.8939992 132.9429978 134.9540014
 135.2489992 132.2519978 136.2540014 135.4659796 132.5293824 135.4579329
 138.0809992 132.1029978 134.4350014 137.2169992 132.1749978 134.8390014
 138.0259992 132.6499978 133.6510014 137.9551942 132.1867849 134.3844000
 142.7919992 131.9909978 133.6100014 142.3349992 132.5199978 132.9560014
 142.9549992 132.5939978 134.3360014 142.7514476 132.1449140 133.6185499
 145.1199992 130.8689978 134.5550014 144.2149992 131.0339978 134.2900014
 145.5479992 131.7219978 134.4900014 145.0540700 131.0069529 134.5099520
 135.0289992 131.1259978 132.3150014 135.0109992 130.6999978 133.1730014
 135.8339992 130.8069978 131.9070014 135.1353221 131.0247233 132.3770225
 137.1699992 129.8359978 130.9700014 136.9509992 128.9189978 131.1400014
 137.9939992 129.9759978 131.4360014 137.2514702 129.7295511 131.0562527
 139.7069992 130.3059978 131.8190014 139.9199992 129.4179978 131.5320014
 139.7719992 130.2709978 132.7740014 139.7449075 130.1798307 131.9087373
 143.2159992 115.9699978 130.9630014 142.5419992 115.3399978 131.2190014
 143.7799992 115.4859978 130.3600014 143.2000384 115.8183708 130.9165020
 135.5429992 114.6039978 128.7850014 134.7659992 114.3689978 128.2780014
 136.0729992 113.8069978 128.7940014 135.5083451 114.4641268 128.7168627
 134.3789992 114.4019978 124.5890014 134.8179992 115.0129978 123.9970014
 133.7449992 114.9399978 125.0630014 134.3533859 114.5584064 124.5720305
 140.1219992 114.5299978 128.5990014 140.9959992 114.9189978 128.5690014
 139.9859992 114.3149978 129.5210014 140.2233207 114.5541923 128.7196509
 134.2799992 130.3499978 125.4870014 133.5949992 130.3119978 124.8190014
 134.2839992 131.2629978 125.7750014 134.1868174 130.4681998 125.4345310
 136.2399992 116.3179978 123.0310014 136.7309992 115.6879978 122.5040014
 136.8629992 116.6139978 123.6950014 136.3915062 116.2716770 123.0485438
 141.2659992 116.6109978 125.4890014 141.4439992 115.9639978 126.1710014
 141.2119992 117.4449978 125.9560014 141.2831025 116.6350504 125.6456433
 143.1439992 131.5589978 123.8840014 144.0099992 131.9259978 123.7060014
 142.8979992 131.1199978 123.0700014 143.2292097 131.5498525 123.7496019
 135.4999992 115.1179978 138.3030014 135.1339992 114.3519978 138.7460014
 136.4129992 115.1469978 138.5900014 135.5733225 115.0171906 138.4023459
 137.4729992 114.4679978 139.8390014 138.3719992 114.1939978 139.6540014
 137.0869992 113.7259978 140.3030014 137.5437237 114.3301508 139.8764710
 136.0979992 131.2699978 122.5120014 135.8299992 131.5559978 123.3850014
 136.8689992 130.7239978 122.6640014 136.1655600 131.2353330 122.6521499
  12.6289992 142.6159978 128.7440014  12.7179992 143.5599978 128.6120014
  11.9909992 142.3409978 128.0860014  12.5549062 142.7079812 128.6369641
  11.5619992 141.8709978 132.1630014  11.5239992 141.2249978 132.8680014
  11.2399992 141.4039978 131.3920014  11.5132679 141.7194276 132.1552921
   3.9299992 141.4849978 133.7560014   3.9719992 140.8599978 134.4790014
   4.6329992 142.1089978 133.9380014   4.0307345 141.4837873 133.8795274
  15.2679992 144.8099978 130.4650014  14.8269992 144.0899978 130.9150014
  15.2549992 145.5309978 131.0940014  15.2057960 144.8088329 130.6117567
   1.4639992 139.5949978 127.6840014   1.0159992 140.4409978 127.6650014
   0.9029992 139.0159978 127.1680014   1.3269603 139.6323674 127.6116720
   2.1739992 141.7569978 129.8100014   2.3879992 140.9869978 130.3370014
   2.9119992 141.8469978 129.2060014   2.3029652 141.6638012 129.8005212
   9.9509992 144.3029978 132.5690014  10.2549992 143.6169978 131.9750014
  10.6729992 144.4219978 133.1870014  10.0901152 144.2252189 132.5712123
  18.6139992 135.9049978 133.4300014  18.6639992 136.5149978 134.1660014
  19.0399992 136.3659978 132.7070014  18.6784108 136.0507709 133.4330112
  13.0919992 138.6969978 132.8970014  13.2349992 137.7509978 132.9170014
  12.9859992 138.9039978 131.9680014  13.0972509 138.5954813 132.7742231
   6.2469992 136.7989978 130.1690014   6.2899992 137.6589978 129.7510014
   5.7889992 136.2469978 129.5350014   6.1909815 136.8420621 130.0261197
  13.9689992 136.9299978 128.5700014  14.6159992 136.6009978 129.1950014
  14.4789992 137.4469978 127.9470014  14.1264317 136.9549227 128.5712167
   2.8669992 139.1959978 130.9310014   3.5209992 138.6459978 131.3630014
   2.8909992 138.9219978 130.0140014   2.9597199 139.0837167 130.8661668
   8.0239992 140.7459978 130.1460014   8.6399992 140.2189978 130.6560014
   7.4369992 140.1059978 129.7430014   8.0289239 140.5874117 130.1612952
  19.0059992 137.3829978 135.6660014  18.3169992 138.0409978 135.5700014
  19.0209992 137.1849978 136.6020014  18.9136740 137.4463243 135.7794630
   5.0569992 135.7169978 134.2430014   4.8379992 136.2469978 133.4770014
   4.3889992 135.9429978 134.8900014   4.9367001 135.8201154 134.2256064
  12.4259992 145.2169978 127.7870014  12.1309992 144.8939978 126.9360014
  12.1019992 146.1169978 127.8280014  12.3417983 145.2944026 127.6759771
   7.6259992 143.3919978 134.5310014   6.8859992 143.9909978 134.6340014
   8.3399992 143.9459978 134.2150014   7.6213288 143.5487356 134.5023805
  15.7329992 136.2209978 130.5500014  15.5179992 135.4549978 131.0830014
  16.3889992 136.6929978 131.0630014  15.7922673 136.1800728 130.6921990
   4.6509992 137.6089978 132.1950014   5.2649992 138.2419978 132.5690014
   5.1629992 137.1369978 131.5390014   4.8042277 137.6317352 132.1574279
   6.0339992 145.3569978 135.3180014   6.0279992 146.2359978 134.9400014
   5.1799992 145.2729978 135.7430014   5.9177925 145.4659535 135.3236887
   2.1549992 145.0279978 126.1000014   1.8829992 145.2569978 125.2110014
   2.1999992 145.8649978 126.5600014   2.1238709 145.1726058 126.0406107
  16.0799992 134.9359978 134.2300014  15.3439992 135.5459978 134.1920014
  16.7639992 135.3509978 133.7030014  16.0715506 135.0756400 134.1536051
   9.0839992 133.0219978 131.6960014   8.9659992 132.0739978 131.6410014
   8.2289992 133.3549978 131.9690014   8.9522679 132.9371926 131.7253720
  16.8779992 144.8979978 136.4240014  17.0169992 144.3059978 135.6840014
  17.0449992 145.7709978 136.0670014  16.9195562 144.9349896 136.2746283
  11.3499992 141.8599978 126.1960014  10.6389992 142.3949978 125.8440014
  12.0409992 141.9149978 125.5360014  11.3460751 141.9406777 126.0585858
  11.4039992 140.3169978 123.2350014  12.1049992 140.3399978 123.8860014
  11.7059992 139.6889978 122.5790014  11.5408282 140.2352339 123.2354496
  18.7189992 141.2379978 134.4900014  18.0669992 141.9319978 134.5790014
  19.1849992 141.4479978 133.6800014  18.6925937 141.3615019 134.3927533
  14.7559992 142.0689978 127.1480014  14.0239992 142.2979978 127.7210014
  15.2029992 141.3559978 127.6030014  14.7162753 142.0038972 127.2879715
  14.6529992 140.2439978 136.2160014  14.7329992 141.0069978 136.7870014
  14.0519992 140.5229978 135.5250014  14.5827245 140.3862630 136.2008424
   6.4009992 142.6999978 129.0300014   6.0709992 142.3289978 128.2120014
   6.9899992 142.0289978 129.3770014   6.4353970 142.5586063 128.9649404
   6.7679992 141.4679978 132.6640014   7.3329992 141.5899978 131.9010014
   7.0869992 142.1059978 133.3030014   6.8883977 141.5708851 132.6459424
  13.6269992 141.2319978 124.8330014  14.2059992 141.3819978 125.5800014
  14.0409992 141.7019978 124.1100014  13.7623122 141.3161277 124.8375042
   4.5679992 142.0659978 136.6100014   4.6379992 142.7169978 137.3080014
   3.6769992 142.1689978 136.2750014   4.4571802 142.1689757 136.6602249
  17.3259992 132.9819978 124.6460014  16.4259992 133.1209978 124.9410014
  17.5779992 133.8129978 124.2440014  17.2368683 133.1134055 124.6320232
   5.3919992 141.7689978 126.6200014   5.0999992 142.5369978 126.1290014
   4.7169992 141.1099978 126.4570014   5.2608497 141.7849745 126.5308260
   1.4849992 144.1319978 135.4350014   0.9829992 144.1039978 134.6200014
   1.4899992 143.2269978 135.7440014   1.4170416 144.0057368 135.3653766
  16.5849992 139.0719978 138.4810014  16.1769992 139.5519978 137.7610014
  16.6249992 138.1659978 138.1730014  16.5345476 139.0153160 138.3408247
   3.7339992 145.4559978 136.4780014   3.9499992 145.0939978 137.3370014
   2.8779992 145.0809978 136.2680014   3.6479354 145.3557906 136.5672160
   6.3519992 133.9259978 132.4730014   5.4909992 133.8389978 132.0660014
   6.3299992 134.7819978 132.9010014   6.2310411 134.0297884 132.4750857
  11.0149992 133.6479978 135.8480014  11.4349992 133.2329978 136.6010014
  10.0819992 133.4689978 135.9650014  10.9463736 133.5669910 135.9668968
  14.3419992 137.4029978 136.7010014  13.8279992 137.2779978 137.4990014
  14.1859992 138.3159978 136.4570014  14.2506967 137.5092123 136.7770937
  15.1039992 142.2639978 122.4630014  15.1459992 142.0419978 121.5330014
  15.9529992 142.6629978 122.6530014  15.2245253 142.2875498 122.3613822
  10.6769992 136.1399978 123.1330014  10.4229992 136.1589978 124.0560014
  10.4199992 135.2689978 122.8320014  10.6075133 136.0248110 123.2185082
   6.4429992 138.8909978 133.5680014   5.8019992 138.8509978 134.2770014
   6.4809992 139.8179978 133.3310014   6.3603670 139.0107795 133.6330550
   6.4399992 139.1119978 128.4800014   5.5479992 138.7719978 128.4220014
   6.8909992 138.7349978 127.7250014   6.3786815 139.0143762 128.3699203
  11.9759992 139.5279978 127.2970014  11.5669992 140.3429978 127.0060014
  12.6959992 139.3879978 126.6830014  12.0174013 139.6206571 127.1740875
  11.0779992 139.7039978 138.7850014  10.5149992 138.9989978 139.1060014
  11.9039992 139.5829978 139.2530014  11.1126674 139.5912165 138.8921751
  12.9809992 138.9739978 130.1110014  12.7849992 139.5799978 129.3960014
  13.1619992 138.1409978 129.6770014  12.9786584 138.9442513 129.9544212
   4.1929992 139.2119978 135.4350014   4.1549992 139.6119978 136.3040014
   3.7029992 138.3949978 135.5260014   4.1215621 139.1562510 135.5661377
   7.5589992 136.5859978 122.2340014   7.1279992 136.1409978 122.9640014
   6.8409992 136.9569978 121.7220014   7.4029363 136.5752968 122.2646211
   0.8019992 136.3279978 129.2860014   1.4319992 136.2989978 130.0050014
   1.2509992 135.9029978 128.5560014   0.9490692 136.2665316 129.2857771
   2.0759992 137.0739978 124.7100014   2.5499992 137.6649978 124.1250014
   1.3579992 137.6039978 125.0570014   2.0438640 137.2265511 124.6767969
  12.2449992 140.6119978 134.7830014  12.5679992 139.9809978 134.1400014
  11.8039992 140.0779978 135.4430014  12.2295789 140.4533522 134.7842232
   9.0219992 136.5399978 129.5670014   8.1109992 136.5969978 129.8550014
   9.5269992 136.4799978 130.3770014   8.9655387 136.5396870 129.7160646
   3.8499992 138.1689978 128.3930014   2.9609992 138.2679978 128.0530014
   4.1469992 137.3269978 128.0470014   3.7684177 138.0687687 128.2996940
   7.5029992 138.1689978 126.0500014   8.4349992 138.2979978 126.2280014
   7.2879992 138.8379978 125.4000014   7.6014472 138.2770806 125.9864891
  13.4269992 135.7749978 132.8310014  12.7499992 135.9059978 133.4950014
  12.9419992 135.6199978 132.0210014  13.2687265 135.7719659 132.8123397
   6.1769992 139.3629978 123.6170014   5.6349992 138.9839978 122.9250014
   7.0109992 139.5579978 123.1880014   6.2155159 139.3375076 123.4644419
   4.3129992 143.9199978 138.7160014   5.0449992 144.1749978 139.2770014
   3.5319992 144.1249978 139.2310014   4.3077684 143.9826468 138.8624782
  10.3419992 139.3269978 131.4540014  10.9059992 138.7809978 130.9070014
  10.1939992 138.8059978 132.2420014  10.3992575 139.1816552 131.4856987
   5.3439992 135.4639978 127.8720014   5.0269992 134.5609978 127.8370014
   6.1249992 135.4659978 127.3190014   5.4062307 135.3406951 127.7924314
   8.9679992 137.7159978 133.8680014   8.1329992 138.1699978 133.9780014
   9.4919992 137.9919978 134.6200014   8.9245070 137.8154665 133.9847152
   9.5129992 143.9289978 125.5520014   8.7679992 143.4209978 125.2300014
   9.3779992 143.9779978 126.4990014   9.3929047 143.8661596 125.6358845
  16.6629992 143.0619978 134.3390014  17.3039992 143.5179978 133.7950014
  15.8319992 143.1749978 133.8770014  16.6385171 143.1397502 134.2020237
  13.4099992 136.7429978 123.7520014  12.4719992 136.8539978 123.6000014
  13.7079992 137.5989978 124.0580014  13.3216402 136.8740621 123.7725571
  11.0319992 144.1129978 136.7890014  10.6859992 143.7309978 137.5960014
  10.8319992 145.0459978 136.8610014  10.9576523 144.1869095 136.9090735
  14.1289992 138.6099978 125.4120014  15.0209992 138.4719978 125.7310014
  14.1849992 139.4009978 124.8760014  14.2587107 138.6980526 125.3832091
   4.6369992 143.2239978 131.3220014   5.3819992 143.2209978 130.7210014
   4.7149992 142.3999978 131.8040014   4.7494158 143.1122916 131.3049153
  11.6379992 145.3869978 124.5780014  11.3429992 146.2139978 124.9590014
  10.9349992 144.7679978 124.7740014  11.5025471 145.4165227 124.6566698
   1.6449992 141.6839978 136.6370014   1.8679992 141.2659978 137.4690014
   1.0429992 141.0719978 136.2140014   1.5941260 141.5439933 136.6937320
   8.6619992 141.2009978 138.8500014   8.3659992 141.0359978 137.9550014
   9.5929992 140.9809978 138.8390014   8.7473982 141.1486578 138.7260045
  19.0139992 138.8189978 125.1070014  18.4589992 138.4229978 124.4350014
  19.1139992 139.7299978 124.8290014  18.9515888 138.8878990 124.9775206
  18.9769992 144.6199978 137.9440014  18.1259992 144.8579978 137.5770014
  19.5669992 144.6029978 137.1910014  18.9402408 144.6502966 137.7918879
  14.4689992 142.4129978 132.5930014  13.5409992 142.1819978 132.5660014
  14.9199992 141.6359978 132.2630014  14.4028165 142.2762774 132.5446790
   2.7669992 141.6039978 123.3140014   3.3829992 142.2309978 123.6930014
   1.9049992 141.9199978 123.5850014   2.7348195 141.7325798 123.4025386
   8.4399992 144.4049978 128.3030014   8.1989992 145.3299978 128.3440014
   7.6989992 143.9459978 128.6990014   8.3068390 144.4696403 128.3621404
  12.4979992 144.6529978 134.3180014  12.0729992 144.4249978 135.1450014
  13.0789992 143.9139978 134.1360014  12.5183930 144.5219843 134.4064732
   3.2789992 136.4379978 136.1950014   2.3869992 136.7759978 136.1280014
   3.1809992 135.5819978 136.6130014   3.1434965 136.3686499 136.2423044
  15.5669992 144.2539978 125.6190014  15.2899992 143.5259978 126.1750014
  16.4949992 144.3729978 125.8240014  15.6544499 144.1704213 125.7228044
   4.1819992 143.5159978 124.8060014   3.4959992 143.8689978 125.3730014
   4.7049992 144.2789978 124.5600014   4.1589033 143.6673746 124.8502661
  12.0139992 136.1789978 135.0850014  12.7129992 136.2529978 135.7350014
  11.6329992 135.3139978 135.2390014  12.0582097 136.0722389 135.1947997
  12.7979992 135.8309978 126.1820014  13.0179992 136.3019978 125.3790014
  13.3569992 136.2249978 126.8520014  12.9036730 135.9487432 126.1625906
   9.9979992 137.5589978 127.0170014  10.8099992 138.0629978 127.0630014
   9.7539992 137.4139978 127.9310014  10.0761467 137.6083749 127.1468575
  10.5339992 138.5449978 136.2020014  10.6529992 139.1189978 136.9590014
  11.1889992 137.8569978 136.3160014  10.6389146 138.5305574 136.3211314
  10.8819992 134.6399978 127.9550014  10.5349992 135.2569978 128.6000014
  11.5409992 135.1409978 127.4740014  10.9235949 134.7921099 127.9782271
   6.5399992 135.7029978 124.6420014   6.4559992 136.5909978 124.9890014
   7.4299992 135.4379978 124.8740014   6.6488163 135.7887179 124.7208596
  16.7379992 136.4519978 137.0370014  15.8219992 136.7139978 136.9490014
  17.0739992 136.4489978 136.1400014  16.6579789 136.4874626 136.9037847
  15.3409992 140.2019978 131.1320014  14.5429992 139.7869978 130.8040014
  15.7859992 139.5119978 131.6230014  15.2919684 140.0518628 131.1535227
   3.1139992 138.7949978 122.8190014   3.0689992 139.7339978 122.9970014
   2.2259992 138.5589978 122.5490014   2.9878555 138.8916874 122.8068939
   3.9219992 133.5759978 131.4920014   3.6929992 133.6349978 130.5640014
   3.4799992 132.7849978 131.7980014   3.8308801 133.4770540 131.4064729
   2.0479992 143.9399978 139.9370014   2.1919992 143.0379978 139.6500014
   1.2759992 144.2259978 139.4490014   1.9633303 143.8553243 139.8317908
   6.3889992 144.2829978 122.0690014   6.4539992 143.4889978 122.6000014
   7.0419992 144.1649978 121.3790014   6.4861754 144.1583337 122.0484259
   8.7029992 143.9089978 139.3690014   8.3749992 144.1799978 138.5120014
   8.8549992 142.9679978 139.2820014   8.6786030 143.8188973 139.2397945
  11.7419992 145.3299978 121.8050014  11.4729992 145.5109978 122.7060014
  11.5349992 144.4049978 121.6740014  11.6772000 145.2296774 121.9105693
  14.4379992 143.8249978 136.7530014  15.1829992 144.4139978 136.6330014
  13.6809992 144.4069978 136.8160014  14.4375205 143.9841997 136.7451119
   2.8809992 141.1399978 139.3570014   3.2889992 140.2829978 139.2360014
   2.6199992 141.1539978 140.2780014   2.9016016 141.0245119 139.4649192
   7.5389992 142.2559978 124.3750014   7.0789992 141.7719978 125.0610014
   7.7939992 141.5869978 123.7390014   7.5105038 142.0993689 124.3829447
   6.8279992 140.1489978 136.7310014   6.2089992 140.8229978 137.0110014
   7.1719992 140.4699978 135.8980014   6.7897605 140.2847198 136.6566707
   8.6099992 140.4989978 122.6370014   8.4289992 140.3439978 121.7100014
   9.5599992 140.6069978 122.6820014   8.7136566 140.4923669 122.5160929
  11.8469992 142.6199978 140.0080014  12.8009992 142.7039978 139.9810014
  11.6869992 141.9079978 140.6280014  11.9557182 142.5352842 140.0880733
  17.9999992 142.8529978 122.0830014  17.7259992 142.4289978 121.2700014
  18.0389992 143.7849978 121.8660014  17.9677716 142.9208827 121.9424286
   7.1669992 137.5039978 137.8130014   7.3169992 136.7749978 137.2110014
   7.1689992 138.2809978 137.2540014   7.1877967 137.5092708 137.6550541
   7.5799992 135.8729978 135.3060014   8.1149992 136.3249978 134.6540014
   6.7269992 135.7649978 134.8830014   7.5380374 135.9202665 135.1596710
   9.1609992 141.3129978 135.5450014   9.9119992 141.1569978 134.9720014
   8.8219992 142.1649978 135.2700014   9.2179587 141.4068138 135.4294078
  13.5769992 139.1279978 140.5740014  13.7689992 138.1969978 140.4620014
  14.4349992 139.5529978 140.5640014  13.7192269 139.0579928 140.5573192
  14.8939992 141.9169978 138.6510014  14.6119992 142.6259978 138.0740014
  15.8359992 141.8439978 138.5000014  14.9827656 142.0043128 138.5514809
   5.6459992 138.7019978 139.7250014   4.8779992 138.1689978 139.5150014
   6.3239992 138.3919978 139.1250014   5.6326973 138.5872375 139.6151796
   8.3849992 133.3299978 135.7370014   8.2869992 134.2759978 135.6320014
   7.6429992 132.9569978 135.2620014   8.2711913 133.4091813 135.6583539
   9.6489992 137.6509978 139.3010014   9.4139992 137.4319978 140.2030014
   8.8659992 137.4439978 138.7910014   9.5109219 137.5930066 139.3555852
  12.3649992 136.7789978 138.3770014  11.4169992 136.8109978 138.5090014
  12.6769992 136.1529978 139.0300014  12.2775190 136.6987262 138.4833564
  13.9989992 135.4129978 140.3820014  13.9019992 134.4609978 140.3760014
  13.6769992 135.6809978 141.2420014  13.9421761 135.3189744 140.4974936
   3.8259992 136.6219978 139.4290014   4.0379992 135.9159978 138.8190014
   3.7149992 136.1849978 140.2730014   3.8400269 136.4661921 139.4595873
   8.6069992 132.6239978 138.4090014   9.3189992 131.9839978 138.3950014
   8.5059992 132.8899978 137.4950014   8.6907261 132.5724190 138.2835537
   8.9609992 134.3059978 140.4620014   8.8289992 133.8309978 139.6420014
   8.3609992 135.0509978 140.4070014   8.8619070 134.3415789 140.3423251
  17.1569992 145.4659978 140.5440014  16.2909992 145.3609978 140.9380014
  17.5329992 146.2239978 140.9900014  17.0893401 145.5541708 140.6582620
  18.4579992 143.7219978 126.0580014  19.3079992 144.1429978 126.1850014
  18.4629992 142.9819978 126.6650014  18.5751143 143.6796094 126.1574750
  18.8519992 141.7759978 127.8820014  18.1259992 141.2959978 128.2790014
  19.4339992 141.9809978 128.6140014  18.8311635 141.7379166 128.0353748
  18.6109992 144.5609978 132.8290014  19.4449992 144.1829978 132.5490014
  18.7229992 145.5039978 132.7100014  18.7402522 144.6367742 132.7746020
  19.1209992 141.6769978 124.2730014  18.5989992 142.0329978 123.5540014
  19.0879992 142.3519978 124.9510014  19.0450699 141.8169848 124.2662129
  17.4699992 138.9159978 122.8240014  17.5659992 139.5829978 122.1440014
  17.3299992 138.1009978 122.3420014  17.4642063 138.8970667 122.6658377
  16.6389992 140.2969978 128.4450014  16.4889992 139.3519978 128.4240014
  16.2849992 140.5779978 129.2880014  16.5705527 140.2055605 128.5561859
   1.6739992 142.3749978 132.4550014   1.8589992 142.2929978 131.5190014
   2.5239992 142.2509978 132.8790014   1.8140916 142.3470393 132.3842896
  17.4949992 142.2669978 138.0830014  18.0779992 141.5319978 138.2750014
  18.0589992 143.0389978 138.1300014  17.6509781 142.2708145 138.1156164
  18.9919992 140.1699978 138.7680014  18.1289992 139.7909978 138.6020014
  19.5959992 139.4309978 138.6940014  18.9555944 140.0182978 138.7352984
  16.7169992 136.3239978 121.9410014  17.3279992 135.9529978 122.5780014
  15.8799992 135.9029978 122.1370014  16.6874947 136.2162756 122.0547252
  16.3499992 137.8789978 126.9070014  16.6289992 136.9719978 127.0310014
  17.1089992 138.3129978 126.5180014  16.4908619 137.8134502 126.8713795
  16.9609992 138.4609978 132.3430014  17.8939992 138.6729978 132.3090014
  16.7259992 138.5619978 133.2650014  17.0568308 138.5036503 132.4630214
  16.9909992 139.1979978 135.1190014  16.1479992 139.4659978 135.4850014
  17.4329992 140.0199978 134.9080014  16.9354138 139.3458273 135.1405518
   1.2719992 137.6449978 138.5960014   2.1909992 137.5229978 138.8320014
   0.8219992 136.8949978 138.9850014   1.3371148 137.5268751 138.6809408
  19.2739992 133.1779978 140.4720014  19.6229992 132.5239978 139.8670014
  19.4209992 134.0149978 140.0330014  19.3417355 133.2016067 140.3296564
  16.9629992 135.1419978 126.9550014  17.1449992 134.6929978 127.7810014
  16.3629992 134.5579978 126.4920014  16.9067529 135.0016131 127.0053619
   2.4929992 135.9579978 131.4870014   2.9379992 135.1659978 131.7890014
   2.9589992 136.6739978 131.9180014   2.6169059 135.9464474 131.5866079
   0.7969992 138.9569978 132.5560014   1.2889992 138.7359978 131.7650014
   1.1589992 139.7969978 132.8370014   0.9132923 139.0403468 132.4857407
  18.7929992 135.2869978 138.8220014  17.8759992 135.5579978 138.7860014
  18.9159992 134.7519978 138.0380014  18.6840828 135.2517700 138.7110785
  18.8299992 135.2099978 123.4830014  19.2419992 134.4889978 123.0080014
  19.5109992 135.8789978 123.5420014  18.9785900 135.2017306 123.4259038
   1.1109992 135.2149978 126.6100014   0.1859992 135.4229978 126.4810014
   1.5649992 135.6989978 125.9210014   1.0456374 135.3089949 126.4990957
   1.0739992 133.9529978 134.9550014   0.4089992 133.7069978 135.5980014
   0.6309992 134.5749978 134.3770014   0.9230937 134.0033614 134.9649379
  17.7939992 133.3769978 136.6410014  16.9809992 133.7019978 136.2530014
  18.0269992 132.6159978 136.1080014  17.7142566 133.3186559 136.5159213
  11.2239992 134.8259978 130.9630014  10.5499992 134.1959978 131.2190014
  11.7879992 134.3419978 130.3600014  11.2080384 134.6743708 130.9165020
  16.3669992 132.9329978 131.0760014  16.9699992 133.4809978 130.5740014
  15.4969992 133.2519978 130.8360014  16.3319190 133.0511041 130.9748679
  18.0939992 134.0719978 129.4090014  18.7049992 133.5579978 128.8830014
  18.4759992 134.9489978 129.4330014  18.2294475 134.1201323 129.3401208
   3.5509992 133.4599978 128.7850014   2.7739992 133.2249978 128.2780014
   4.0809992 132.6629978 128.7940014   3.5163451 133.3201268 128.7168627
   2.3869992 133.2579978 124.5890014   2.8259992 133.8689978 123.9970014
   1.7529992 133.7959978 125.0630014   2.3613859 133.4144064 124.5720305
   8.1299992 133.3859978 128.5990014   9.0039992 133.7749978 128.5690014
   7.9939992 133.1709978 129.5210014   8.2313207 133.4101923 128.7196509
  13.6869992 133.4159978 130.2480014  13.7629992 133.5119978 129.2990014
  13.4119992 132.5089978 130.3770014  13.6602042 133.3064241 130.1353811
  15.0399992 133.4419978 125.9400014  14.3369992 134.0569978 125.7310014
  14.5949992 132.6049978 126.0720014  14.8836292 133.4130085 125.9292439
   4.2479992 135.1739978 123.0310014   4.7389992 134.5439978 122.5040014
   4.8709992 135.4699978 123.6950014   4.3995062 135.1276770 123.0485438
   9.2739992 135.4669978 125.4890014   9.4519992 134.8199978 126.1710014
   9.2199992 136.3009978 125.9560014   9.2911025 135.4910504 125.6456433
   3.5079992 133.9739978 138.3030014   3.1419992 133.2079978 138.7460014
   4.4209992 134.0029978 138.5900014   3.5813225 133.8731906 138.4023459
   5.4809992 133.3239978 139.8390014   6.3799992 133.0499978 139.6540014
   5.0949992 132.5819978 140.3030014   5.5517237 133.1861508 139.8764710
  13.9029992 132.6569978 140.0210014  13.9789992 132.2309978 140.8750014
  14.7959992 132.6699978 139.6780014  14.0342267 132.6003952 140.0915932
  31.4849992 142.6159978 128.7440014  31.5739992 143.5599978 128.6120014
  30.8469992 142.3409978 128.0860014  31.4109062 142.7079812 128.6369641
  30.4179992 141.8709978 132.1630014  30.3799992 141.2249978 132.8680014
  30.0959992 141.4039978 131.3920014  30.3692679 141.7194276 132.1552921
  22.7859992 141.4849978 133.7560014  22.8279992 140.8599978 134.4790014
  23.4889992 142.1089978 133.9380014  22.8867345 141.4837873 133.8795274
  34.1239992 144.8099978 130.4650014  33.6829992 144.0899978 130.9150014
  34.1109992 145.5309978 131.0940014  34.0617960 144.8088329 130.6117567
  20.3199992 139.5949978 127.6840014  19.8719992 140.4409978 127.6650014
  19.7589992 139.0159978 127.1680014  20.1829603 139.6323674 127.6116720
  21.0299992 141.7569978 129.8100014  21.2439992 140.9869978 130.3370014
  21.7679992 141.8469978 129.2060014  21.1589652 141.6638012 129.8005212
  28.8069992 144.3029978 132.5690014  29.1109992 143.6169978 131.9750014
  29.5289992 144.4219978 133.1870014  28.9461152 144.2252189 132.5712123
  37.4699992 135.9049978 133.4300014  37.5199992 136.5149978 134.1660014
  37.8959992 136.3659978 132.7070014  37.5344108 136.0507709 133.4330112
  31.9479992 138.6969978 132.8970014  32.0909992 137.7509978 132.9170014
  31.8419992 138.9039978 131.9680014  31.9532509 138.5954813 132.7742231
  25.1029992 136.7989978 130.1690014  25.1459992 137.6589978 129.7510014
  24.6449992 136.2469978 129.5350014  25.0469815 136.8420621 130.0261197
  32.8249992 136.9299978 128.5700014  33.4719992 136.6009978 129.1950014
  33.3349992 137.4469978 127.9470014  32.9824317 136.9549227 128.5712167
  21.7229992 139.1959978 130.9310014  22.3769992 138.6459978 131.3630014
  21.7469992 138.9219978 130.0140014  21.8157199 139.0837167 130.8661668
  26.8799992 140.7459978 130.1460014  27.4959992 140.2189978 130.6560014
  26.2929992 140.1059978 129.7430014  26.8849239 140.5874117 130.1612952
  37.8619992 137.3829978 135.6660014  37.1729992 138.0409978 135.5700014
  37.8769992 137.1849978 136.6020014  37.7696740 137.4463243 135.7794630
  23.9129992 135.7169978 134.2430014  23.6939992 136.2469978 133.4770014
  23.2449992 135.9429978 134.8900014  23.7927001 135.8201154 134.2256064
  31.2819992 145.2169978 127.7870014  30.9869992 144.8939978 126.9360014
  30.9579992 146.1169978 127.8280014  31.1977983 145.2944027 127.6759771
  26.4819992 143.3919978 134.5310014  25.7419992 143.9909978 134.6340014
  27.1959992 143.9459978 134.2150014  26.4773288 143.5487356 134.5023805
  34.5889992 136.2209978 130.5500014  34.3739992 135.4549978 131.0830014
  35.2449992 136.6929978 131.0630014  34.6482673 136.1800728 130.6921990
  23.5069992 137.6089978 132.1950014  24.1209992 138.2419978 132.5690014
  24.0189992 137.1369978 131.5390014  23.6602277 137.6317352 132.1574279
  24.8899992 145.3569978 135.3180014  24.8839992 146.2359978 134.9400014
  24.0359992 145.2729978 135.7430014  24.7737925 145.4659535 135.3236887
  21.0109992 145.0279978 126.1000014  20.7389992 145.2569978 125.2110014
  21.0559992 145.8649978 126.5600014  20.9798709 145.1726058 126.0406107
  34.9359992 134.9359978 134.2300014  34.1999992 135.5459978 134.1920014
  35.6199992 135.3509978 133.7030014  34.9275506 135.0756400 134.1536051
  27.9399992 133.0219978 131.6960014  27.8219992 132.0739978 131.6410014
  27.0849992 133.3549978 131.9690014  27.8082679 132.9371926 131.7253720
  35.7339992 144.8979978 136.4240014  35.8729992 144.3059978 135.6840014
  35.9009992 145.7709978 136.0670014  35.7755562 144.9349896 136.2746283
  30.2059992 141.8599978 126.1960014  29.4949992 142.3949978 125.8440014
  30.8969992 141.9149978 125.5360014  30.2020751 141.9406777 126.0585858
  30.2599992 140.3169978 123.2350014  30.9609992 140.3399978 123.8860014
  30.5619992 139.6889978 122.5790014  30.3968282 140.2352339 123.2354496
  37.5749992 141.2379978 134.4900014  36.9229992 141.9319978 134.5790014
  38.0409992 141.4479978 133.6800014  37.5485937 141.3615019 134.3927533
  33.6119992 142.0689978 127.1480014  32.8799992 142.2979978 127.7210014
  34.0589992 141.3559978 127.6030014  33.5722753 142.0038972 127.2879715
  33.5089992 140.2439978 136.2160014  33.5889992 141.0069978 136.7870014
  32.9079992 140.5229978 135.5250014  33.4387245 140.3862630 136.2008424
  25.2569992 142.6999978 129.0300014  24.9269992 142.3289978 128.2120014
  25.8459992 142.0289978 129.3770014  25.2913970 142.5586063 128.9649404
  25.6239992 141.4679978 132.6640014  26.1889992 141.5899978 131.9010014
  25.9429992 142.1059978 133.3030014  25.7443977 141.5708851 132.6459424
  32.4829992 141.2319978 124.8330014  33.0619992 141.3819978 125.5800014
  32.8969992 141.7019978 124.1100014  32.6183122 141.3161277 124.8375042
  23.4239992 142.0659978 136.6100014  23.4939992 142.7169978 137.3080014
  22.5329992 142.1689978 136.2750014  23.3131802 142.1689757 136.6602249
  36.1819992 132.9819978 124.6460014  35.2819992 133.1209978 124.9410014
  36.4339992 133.8129978 124.2440014  36.0928683 133.1134055 124.6320232
  24.2479992 141.7689978 126.6200014  23.9559992 142.5369978 126.1290014
  23.5729992 141.1099978 126.4570014  24.1168497 141.7849745 126.5308260
  20.3409992 144.1319978 135.4350014  19.8389992 144.1039978 134.6200014
  20.3459992 143.2269978 135.7440014  20.2730416 144.0057368 135.3653766
  35.4409992 139.0719978 138.4810014  35.0329992 139.5519978 137.7610014
  35.4809992 138.1659978 138.1730014  35.3905476 139.0153160 138.3408247
  22.5899992 145.4559978 136.4780014  22.8059992 145.0939978 137.3370014
  21.7339992 145.0809978 136.2680014  22.5039354 145.3557906 136.5672160
  25.2079992 133.9259978 132.4730014  24.3469992 133.8389978 132.0660014
  25.1859992 134.7819978 132.9010014  25.0870411 134.0297884 132.4750857
  29.8709992 133.6479978 135.8480014  30.2909992 133.2329978 136.6010014
  28.9379992 133.4689978 135.9650014  29.8023736 133.5669910 135.9668968
  33.1979992 137.4029978 136.7010014  32.6839992 137.2779978 137.4990014
  33.0419992 138.3159978 136.4570014  33.1066967 137.5092123 136.7770937
  33.9599992 142.2639978 122.4630014  34.0019992 142.0419978 121.5330014
  34.8089992 142.6629978 122.6530014  34.0805253 142.2875498 122.3613822
  29.5329992 136.1399978 123.1330014  29.2789992 136.1589978 124.0560014
  29.2759992 135.2689978 122.8320014  29.4635133 136.0248110 123.2185082
  25.2989992 138.8909978 133.5680014  24.6579992 138.8509978 134.2770014
  25.3369992 139.8179978 133.3310014  25.2163670 139.0107795 133.6330550
  25.2959992 139.1119978 128.4800014  24.4039992 138.7719978 128.4220014
  25.7469992 138.7349978 127.7250014  25.2346815 139.0143762 128.3699203
  30.8319992 139.5279978 127.2970014  30.4229992 140.3429978 127.0060014
  31.5519992 139.3879978 126.6830014  30.8734013 139.6206571 127.1740875
  29.9339992 139.7039978 138.7850014  29.3709992 138.9989978 139.1060014
  30.7599992 139.5829978 139.2530014  29.9686674 139.5912165 138.8921751
  31.8369992 138.9739978 130.1110014  31.6409992 139.5799978 129.3960014
  32.0179992 138.1409978 129.6770014  31.8346584 138.9442513 129.9544212
  23.0489992 139.2119978 135.4350014  23.0109992 139.6119978 136.3040014
  22.5589992 138.3949978 135.5260014  22.9775621 139.1562510 135.5661377
  26.4149992 136.5859978 122.2340014  25.9839992 136.1409978 122.9640014
  25.6969992 136.9569978 121.7220014  26.2589363 136.5752968 122.2646211
  19.6579992 136.3279978 129.2860014  20.2879992 136.2989978 130.0050014
  20.1069992 135.9029978 128.5560014  19.8050692 136.2665316 129.2857771
  20.9319992 137.0739978 124.7100014  21.4059992 137.6649978 124.1250014
  20.2139992 137.6039978 125.0570014  20.8998640 137.2265511 124.6767969
  31.1009992 140.6119978 134.7830014  31.4239992 139.9809978 134.1400014
  30.6599992 140.0779978 135.4430014  31.0855789 140.4533522 134.7842232
  27.8779992 136.5399978 129.5670014  26.9669992 136.5969978 129.8550014
  28.3829992 136.4799978 130.3770014  27.8215387 136.5396870 129.7160646
  22.7059992 138.1689978 128.3930014  21.8169992 138.2679978 128.0530014
  23.0029992 137.3269978 128.0470014  22.6244177 138.0687687 128.2996940
  26.3589992 138.1689978 126.0500014  27.2909992 138.2979978 126.2280014
  26.1439992 138.8379978 125.4000014  26.4574472 138.2770806 125.9864891
  32.2829992 135.7749978 132.8310014  31.6059992 135.9059978 133.4950014
  31.7979992 135.6199978 132.0210014  32.1247265 135.7719659 132.8123397
  25.0329992 139.3629978 123.6170014  24.4909992 138.9839978 122.9250014
  25.8669992 139.5579978 123.1880014  25.0715159 139.3375076 123.4644419
  23.1689992 143.9199978 138.7160014  23.9009992 144.1749978 139.2770014
  22.3879992 144.1249978 139.2310014  23.1637684 143.9826468 138.8624782
  29.1979992 139.3269978 131.4540014  29.7619992 138.7809978 130.9070014
  29.0499992 138.8059978 132.2420014  29.2552575 139.1816552 131.4856987
  24.1999992 135.4639978 127.8720014  23.8829992 134.5609978 127.8370014
  24.9809992 135.4659978 127.3190014  24.2622307 135.3406951 127.7924314
  27.8239992 137.7159978 133.8680014  26.9889992 138.1699978 133.9780014
  28.3479992 137.9919978 134.6200014  27.7805070 137.8154666 133.9847152
  28.3689992 143.9289978 125.5520014  27.6239992 143.4209978 125.2300014
  28.2339992 143.9779978 126.4990014  28.2489047 143.8661596 125.6358845
  35.5189992 143.0619978 134.3390014  36.1599992 143.5179978 133.7950014
  34.6879992 143.1749978 133.8770014  35.4945171 143.1397502 134.2020237
  32.2659992 136.7429978 123.7520014  31.3279992 136.8539978 123.6000014
  32.5639992 137.5989978 124.0580014  32.1776402 136.8740621 123.7725571
  29.8879992 144.1129978 136.7890014  29.5419992 143.7309978 137.5960014
  29.6879992 145.0459978 136.8610014  29.8136523 144.1869095 136.9090735
  32.9849992 138.6099978 125.4120014  33.8769992 138.4719978 125.7310014
  33.0409992 139.4009978 124.8760014  33.1147107 138.6980526 125.3832091
  23.4929992 143.2239978 131.3220014  24.2379992 143.2209978 130.7210014
  23.5709992 142.3999978 131.8040014  23.6054158 143.1122916 131.3049153
  30.4939992 145.3869978 124.5780014  30.1989992 146.2139978 124.9590014
  29.7909992 144.7679978 124.7740014  30.3585471 145.4165227 124.6566698
  20.5009992 141.6839978 136.6370014  20.7239992 141.2659978 137.4690014
  19.8989992 141.0719978 136.2140014  20.4501260 141.5439933 136.6937320
  27.5179992 141.2009978 138.8500014  27.2219992 141.0359978 137.9550014
  28.4489992 140.9809978 138.8390014  27.6033982 141.1486578 138.7260045
  37.8699992 138.8189978 125.1070014  37.3149992 138.4229978 124.4350014
  37.9699992 139.7299978 124.8290014  37.8075888 138.8878990 124.9775206
  37.8329992 144.6199978 137.9440014  36.9819992 144.8579978 137.5770014
  38.4229992 144.6029978 137.1910014  37.7962408 144.6502966 137.7918879
  33.3249992 142.4129978 132.5930014  32.3969992 142.1819978 132.5660014
  33.7759992 141.6359978 132.2630014  33.2588165 142.2762774 132.5446790
  21.6229992 141.6039978 123.3140014  22.2389992 142.2309978 123.6930014
  20.7609992 141.9199978 123.5850014  21.5908195 141.7325798 123.4025386
  27.2959992 144.4049978 128.3030014  27.0549992 145.3299978 128.3440014
  26.5549992 143.9459978 128.6990014  27.1628390 144.4696403 128.3621404
  31.3539992 144.6529978 134.3180014  30.9289992 144.4249978 135.1450014
  31.9349992 143.9139978 134.1360014  31.3743930 144.5219843 134.4064732
  22.1349992 136.4379978 136.1950014  21.2429992 136.7759978 136.1280014
  22.0369992 135.5819978 136.6130014  21.9994965 136.3686499 136.2423044
  34.4229992 144.2539978 125.6190014  34.1459992 143.5259978 126.1750014
  35.3509992 144.3729978 125.8240014  34.5104499 144.1704213 125.7228044
  23.0379992 143.5159978 124.8060014  22.3519992 143.8689978 125.3730014
  23.5609992 144.2789978 124.5600014  23.0149033 143.6673746 124.8502661
  30.8699992 136.1789978 135.0850014  31.5689992 136.2529978 135.7350014
  30.4889992 135.3139978 135.2390014  30.9142097 136.0722389 135.1947997
  31.6539992 135.8309978 126.1820014  31.8739992 136.3019978 125.3790014
  32.2129992 136.2249978 126.8520014  31.7596730 135.9487432 126.1625906
  28.8539992 137.5589978 127.0170014  29.6659992 138.0629978 127.0630014
  28.6099992 137.4139978 127.9310014  28.9321467 137.6083749 127.1468575
  29.3899992 138.5449978 136.2020014  29.5089992 139.1189978 136.9590014
  30.0449992 137.8569978 136.3160014  29.4949146 138.5305574 136.3211314
  29.7379992 134.6399978 127.9550014  29.3909992 135.2569978 128.6000014
  30.3969992 135.1409978 127.4740014  29.7795949 134.7921099 127.9782271
  25.3959992 135.7029978 124.6420014  25.3119992 136.5909978 124.9890014
  26.2859992 135.4379978 124.8740014  25.5048163 135.7887179 124.7208596
  35.5939992 136.4519978 137.0370014  34.6779992 136.7139978 136.9490014
  35.9299992 136.4489978 136.1400014  35.5139789 136.4874626 136.9037847
  34.1969992 140.2019978 131.1320014  33.3989992 139.7869978 130.8040014
  34.6419992 139.5119978 131.6230014  34.1479684 140.0518628 131.1535227
  21.9699992 138.7949978 122.8190014  21.9249992 139.7339978 122.9970014
  21.0819992 138.5589978 122.5490014  21.8438555 138.8916874 122.8068939
  22.7779992 133.5759978 131.4920014  22.5489992 133.6349978 130.5640014
  22.3359992 132.7849978 131.7980014  22.6868801 133.4770540 131.4064729
  20.9039992 143.9399978 139.9370014  21.0479992 143.0379978 139.6500014
  20.1319992 144.2259978 139.4490014  20.8193303 143.8553243 139.8317908
  25.2449992 144.2829978 122.0690014  25.3099992 143.4889978 122.6000014
  25.8979992 144.1649978 121.3790014  25.3421754 144.1583337 122.0484259
  27.5589992 143.9089978 139.3690014  27.2309992 144.1799978 138.5120014
  27.7109992 142.9679978 139.2820014  27.5346030 143.8188973 139.2397945
  30.5979992 145.3299978 121.8050014  30.3289992 145.5109978 122.7060014
  30.3909992 144.4049978 121.6740014  30.5332000 145.2296774 121.9105693
  33.2939992 143.8249978 136.7530014  34.0389992 144.4139978 136.6330014
  32.5369992 144.4069978 136.8160014  33.2935205 143.9841997 136.7451119
  21.7369992 141.1399978 139.3570014  22.1449992 140.2829978 139.2360014
  21.4759992 141.1539978 140.2780014  21.7576016 141.0245119 139.4649192
  26.3949992 142.2559978 124.3750014  25.9349992 141.7719978 125.0610014
  26.6499992 141.5869978 123.7390014  26.3665038 142.0993689 124.3829447
  25.6839992 140.1489978 136.7310014  25.0649992 140.8229978 137.0110014
  26.0279992 140.4699978 135.8980014  25.6457605 140.2847198 136.6566707
  27.4659992 140.4989978 122.6370014  27.2849992 140.3439978 121.7100014
  28.4159992 140.6069978 122.6820014  27.5696566 140.4923669 122.5160929
  30.7029992 142.6199978 140.0080014  31.6569992 142.7039978 139.9810014
  30.5429992 141.9079978 140.6280014  30.8117182 142.5352842 140.0880733
  36.8559992 142.8529978 122.0830014  36.5819992 142.4289978 121.2700014
  36.8949992 143.7849978 121.8660014  36.8237716 142.9208827 121.9424286
  26.0229992 137.5039978 137.8130014  26.1729992 136.7749978 137.2110014
  26.0249992 138.2809978 137.2540014  26.0437967 137.5092708 137.6550541
  26.4359992 135.8729978 135.3060014  26.9709992 136.3249978 134.6540014
  25.5829992 135.7649978 134.8830014  26.3940374 135.9202665 135.1596710
  28.0169992 141.3129978 135.5450014  28.7679992 141.1569978 134.9720014
  27.6779992 142.1649978 135.2700014  28.0739587 141.4068138 135.4294078
  32.4329992 139.1279978 140.5740014  32.6249992 138.1969978 140.4620014
  33.2909992 139.5529978 140.5640014  32.5752269 139.0579928 140.5573192
  33.7499992 141.9169978 138.6510014  33.4679992 142.6259978 138.0740014
  34.6919992 141.8439978 138.5000014  33.8387656 142.0043128 138.5514809
  24.5019992 138.7019978 139.7250014  23.7339992 138.1689978 139.5150014
  25.1799992 138.3919978 139.1250014  24.4886973 138.5872375 139.6151796
  27.2409992 133.3299978 135.7370014  27.1429992 134.2759978 135.6320014
  26.4989992 132.9569978 135.2620014  27.1271913 133.4091813 135.6583539
  28.5049992 137.6509978 139.3010014  28.2699992 137.4319978 140.2030014
  27.7219992 137.4439978 138.7910014  28.3669219 137.5930066 139.3555852
  31.2209992 136.7789978 138.3770014  30.2729992 136.8109978 138.5090014
  31.5329992 136.1529978 139.0300014  31.1335190 136.6987262 138.4833564
  32.8549992 135.4129978 140.3820014  32.7579992 134.4609978 140.3760014
  32.5329992 135.6809978 141.2420014  32.7981761 135.3189744 140.4974936
  22.6819992 136.6219978 139.4290014  22.8939992 135.9159978 138.8190014
  22.5709992 136.1849978 140.2730014  22.6960269 136.4661921 139.4595873
  27.4629992 132.6239978 138.4090014  28.1749992 131.9839978 138.3950014
  27.3619992 132.8899978 137.4950014  27.5467261 132.5724190 138.2835537
  27.8169992 134.3059978 140.4620014  27.6849992 133.8309978 139.6420014
  27.2169992 135.0509978 140.4070014  27.7179070 134.3415789 140.3423251
  36.0129992 145.4659978 140.5440014  35.1469992 145.3609978 140.9380014
  36.3889992 146.2239978 140.9900014  35.9453401 145.5541708 140.6582620
  37.3139992 143.7219978 126.0580014  38.1639992 144.1429978 126.1850014
  37.3189992 142.9819978 126.6650014  37.4311143 143.6796094 126.1574750
  37.7079992 141.7759978 127.8820014  36.9819992 141.2959978 128.2790014
  38.2899992 141.9809978 128.6140014  37.6871635 141.7379166 128.0353748
  37.4669992 144.5609978 132.8290014  38.3009992 144.1829978 132.5490014
  37.5789992 145.5039978 132.7100014  37.5962522 144.6367742 132.7746020
  37.9769992 141.6769978 124.2730014  37.4549992 142.0329978 123.5540014
  37.9439992 142.3519978 124.9510014  37.9010699 141.8169848 124.2662129
  36.3259992 138.9159978 122.8240014  36.4219992 139.5829978 122.1440014
  36.1859992 138.1009978 122.3420014  36.3202063 138.8970667 122.6658377
  35.4949992 140.2969978 128.4450014  35.3449992 139.3519978 128.4240014
  35.1409992 140.5779978 129.2880014  35.4265527 140.2055605 128.5561859
  20.5299992 142.3749978 132.4550014  20.7149992 142.2929978 131.5190014
  21.3799992 142.2509978 132.8790014  20.6700916 142.3470393 132.3842896
  36.3509992 142.2669978 138.0830014  36.9339992 141.5319978 138.2750014
  36.9149992 143.0389978 138.1300014  36.5069781 142.2708145 138.1156164
  37.8479992 140.1699978 138.7680014  36.9849992 139.7909978 138.6020014
  38.4519992 139.4309978 138.6940014  37.8115944 140.0182978 138.7352984
  35.5729992 136.3239978 121.9410014  36.1839992 135.9529978 122.5780014
  34.7359992 135.9029978 122.1370014  35.5434947 136.2162756 122.0547252
  35.2059992 137.8789978 126.9070014  35.4849992 136.9719978 127.0310014
  35.9649992 138.3129978 126.5180014  35.3468619 137.8134502 126.8713795
  35.8169992 138.4609978 132.3430014  36.7499992 138.6729978 132.3090014
  35.5819992 138.5619978 133.2650014  35.9128308 138.5036503 132.4630214
  35.8469992 139.1979978 135.1190014  35.0039992 139.4659978 135.4850014
  36.2889992 140.0199978 134.9080014  35.7914138 139.3458273 135.1405518
  20.1279992 137.6449978 138.5960014  21.0469992 137.5229978 138.8320014
  19.6779992 136.8949978 138.9850014  20.1931148 137.5268751 138.6809408
  38.1299992 133.1779978 140.4720014  38.4789992 132.5239978 139.8670014
  38.2769992 134.0149978 140.0330014  38.1977355 133.2016067 140.3296564
  35.8189992 135.1419978 126.9550014  36.0009992 134.6929978 127.7810014
  35.2189992 134.5579978 126.4920014  35.7627529 135.0016131 127.0053619
  21.3489992 135.9579978 131.4870014  21.7939992 135.1659978 131.7890014
  21.8149992 136.6739978 131.9180014  21.4729059 135.9464474 131.5866079
  19.6529992 138.9569978 132.5560014  20.1449992 138.7359978 131.7650014
  20.0149992 139.7969978 132.8370014  19.7692923 139.0403468 132.4857407
  37.6489992 135.2869978 138.8220014  36.7319992 135.5579978 138.7860014
  37.7719992 134.7519978 138.0380014  37.5400828 135.2517700 138.7110785
  37.6859992 135.2099978 123.4830014  38.0979992 134.4889978 123.0080014
  38.3669992 135.8789978 123.5420014  37.8345900 135.2017306 123.4259038
  19.9669992 135.2149978 126.6100014  19.0419992 135.4229978 126.4810014
  20.4209992 135.6989978 125.9210014  19.9016374 135.3089949 126.4990957
  19.9299992 133.9529978 134.9550014  19.2649992 133.7069978 135.5980014
  19.4869992 134.5749978 134.3770014  19.7790937 134.0033614 134.9649379
  36.6499992 133.3769978 136.6410014  35.8369992 133.7019978 136.2530014
  36.8829992 132.6159978 136.1080014  36.5702566 133.3186559 136.5159213
  30.0799992 134.8259978 130.9630014  29.4059992 134.1959978 131.2190014
  30.6439992 134.3419978 130.3600014  30.0640384 134.6743708 130.9165020
  35.2229992 132.9329978 131.0760014  35.8259992 133.4809978 130.5740014
  34.3529992 133.2519978 130.8360014  35.1879190 133.0511041 130.9748679
  36.9499992 134.0719978 129.4090014  37.5609992 133.5579978 128.8830014
  37.3319992 134.9489978 129.4330014  37.0854475 134.1201323 129.3401208
  22.4069992 133.4599978 128.7850014  21.6299992 133.2249978 128.2780014
  22.9369992 132.6629978 128.7940014  22.3723451 133.3201268 128.7168627
  21.2429992 133.2579978 124.5890014  21.6819992 133.8689978 123.9970014
  20.6089992 133.7959978 125.0630014  21.2173859 133.4144064 124.5720305
  26.9859992 133.3859978 128.5990014  27.8599992 133.7749978 128.5690014
  26.8499992 133.1709978 129.5210014  27.0873207 133.4101923 128.7196509
  32.5429992 133.4159978 130.2480014  32.6189992 133.5119978 129.2990014
  32.2679992 132.5089978 130.3770014  32.5162042 133.3064241 130.1353811
  33.8959992 133.4419978 125.9400014  33.1929992 134.0569978 125.7310014
  33.4509992 132.6049978 126.0720014  33.7396292 133.4130085 125.9292439
  23.1039992 135.1739978 123.0310014  23.5949992 134.5439978 122.5040014
  23.7269992 135.4699978 123.6950014  23.2555062 135.1276770 123.0485438
  28.1299992 135.4669978 125.4890014  28.3079992 134.8199978 126.1710014
  28.0759992 136.3009978 125.9560014  28.1471025 135.4910504 125.6456433
  22.3639992 133.9739978 138.3030014  21.9979992 133.2079978 138.7460014
  23.2769992 134.0029978 138.5900014  22.4373225 133.8731906 138.4023459
  24.3369992 133.3239978 139.8390014  25.2359992 133.0499978 139.6540014
  23.9509992 132.5819978 140.3030014  24.4077237 133.1861508 139.8764710
  32.7589992 132.6569978 140.0210014  32.8349992 132.2309978 140.8750014
  33.6519992 132.6699978 139.6780014  32.8902267 132.6003952 140.0915932
  50.3409992 142.6159978 128.7440014  50.4299992 143.5599978 128.6120014
  49.7029992 142.3409978 128.0860014  50.2669062 142.7079812 128.6369641
  49.2739992 141.8709978 132.1630014  49.2359992 141.2249978 132.8680014
  48.9519992 141.4039978 131.3920014  49.2252679 141.7194276 132.1552921
  41.6419992 141.4849978 133.7560014  41.6839992 140.8599978 134.4790014
  42.3449992 142.1089978 133.9380014  41.7427345 141.4837873 133.8795274
  52.9799992 144.8099978 130.4650014  52.5389992 144.0899978 130.9150014
  52.9669992 145.5309978 131.0940014  52.9177960 144.8088329 130.6117567
  39.1759992 139.5949978 127.6840014  38.7279992 140.4409978 127.6650014
  38.6149992 139.0159978 127.1680014  39.0389603 139.6323674 127.6116720
  39.8859992 141.7569978 129.8100014  40.0999992 140.9869978 130.3370014
  40.6239992 141.8469978 129.2060014  40.0149652 141.6638012 129.8005212
  47.6629992 144.3029978 132.5690014  47.9669992 143.6169978 131.9750014
  48.3849992 144.4219978 133.1870014  47.8021152 144.2252189 132.5712123
  56.3259992 135.9049978 133.4300014  56.3759992 136.5149978 134.1660014
  56.7519992 136.3659978 132.7070014  56.3904108 136.0507709 133.4330112
  50.8039992 138.6969978 132.8970014  50.9469992 137.7509978 132.9170014
  50.6979992 138.9039978 131.9680014  50.8092509 138.5954813 132.7742231
  43.9589992 136.7989978 130.1690014  44.0019992 137.6589978 129.7510014
  43.5009992 136.2469978 129.5350014  43.9029815 136.8420621 130.0261197
  51.6809992 136.9299978 128.5700014  52.3279992 136.6009978 129.1950014
  52.1909992 137.4469978 127.9470014  51.8384317 136.9549227 128.5712167
  40.5789992 139.1959978 130.9310014  41.2329992 138.6459978 131.3630014
  40.6029992 138.9219978 130.0140014  40.6717199 139.0837167 130.8661668
  45.7359992 140.7459978 130.1460014  46.3519992 140.2189978 130.6560014
  45.1489992 140.1059978 129.7430014  45.7409239 140.5874117 130.1612952
  56.7179992 137.3829978 135.6660014  56.0289992 138.0409978 135.5700014
  56.7329992 137.1849978 136.6020014  56.6256740 137.4463243 135.7794630
  42.7689992 135.7169978 134.2430014  42.5499992 136.2469978 133.4770014
  42.1009992 135.9429978 134.8900014  42.6487001 135.8201154 134.2256064
  50.1379992 145.2169978 127.7870014  49.8429992 144.8939978 126.9360014
  49.8139992 146.1169978 127.8280014  50.0537983 145.2944026 127.6759771
  45.3379992 143.3919978 134.5310014  44.5979992 143.9909978 134.6340014
  46.0519992 143.9459978 134.2150014  45.3333288 143.5487356 134.5023805
  53.4449992 136.2209978 130.5500014  53.2299992 135.4549978 131.0830014
  54.1009992 136.6929978 131.0630014  53.5042673 136.1800728 130.6921990
  42.3629992 137.6089978 132.1950014  42.9769992 138.2419978 132.5690014
  42.8749992 137.1369978 131.5390014  42.5162277 137.6317352 132.1574279
  43.7459992 145.3569978 135.3180014  43.7399992 146.2359978 134.9400014
  42.8919992 145.2729978 135.7430014  43.6297925 145.4659535 135.3236887
  39.8669992 145.0279978 126.1000014  39.5949992 145.2569978 125.2110014
  39.9119992 145.8649978 126.5600014  39.8358709 145.1726058 126.0406107
  53.7919992 134.9359978 134.2300014  53.0559992 135.5459978 134.1920014
  54.4759992 135.3509978 133.7030014  53.7835506 135.0756400 134.1536051
  46.7959992 133.0219978 131.6960014  46.6779992 132.0739978 131.6410014
  45.9409992 133.3549978 131.9690014  46.6642679 132.9371926 131.7253720
  54.5899992 144.8979978 136.4240014  54.7289992 144.3059978 135.6840014
  54.7569992 145.7709978 136.0670014  54.6315562 144.9349896 136.2746283
  49.0619992 141.8599978 126.1960014  48.3509992 142.3949978 125.8440014
  49.7529992 141.9149978 125.5360014  49.0580751 141.9406777 126.0585858
  49.1159992 140.3169978 123.2350014  49.8169992 140.3399978 123.8860014
  49.4179992 139.6889978 122.5790014  49.2528282 140.2352339 123.2354496
  56.4309992 141.2379978 134.4900014  55.7789992 141.9319978 134.5790014
  56.8969992 141.4479978 133.6800014  56.4045937 141.3615019 134.3927533
  52.4679992 142.0689978 127.1480014  51.7359992 142.2979978 127.7210014
  52.9149992 141.3559978 127.6030014  52.4282753 142.0038972 127.2879715
  52.3649992 140.2439978 136.2160014  52.4449992 141.0069978 136.7870014
  51.7639992 140.5229978 135.5250014  52.2947245 140.3862630 136.2008424
  44.1129992 142.6999978 129.0300014  43.7829992 142.3289978 128.2120014
  44.7019992 142.0289978 129.3770014  44.1473970 142.5586063 128.9649404
  44.4799992 141.4679978 132.6640014  45.0449992 141.5899978 131.9010014
  44.7989992 142.1059978 133.3030014  44.6003977 141.5708851 132.6459424
  51.3389992 141.2319978 124.8330014  51.9179992 141.3819978 125.5800014
  51.7529992 141.7019978 124.1100014  51.4743122 141.3161277 124.8375042
  42.2799992 142.0659978 136.6100014  42.3499992 142.7169978 137.3080014
  41.3889992 142.1689978 136.2750014  42.1691802 142.1689757 136.6602249
  55.0379992 132.9819978 124.6460014  54.1379992 133.1209978 124.9410014
  55.2899992 133.8129978 124.2440014  54.9488683 133.1134055 124.6320232
  43.1039992 141.7689978 126.6200014  42.8119992 142.5369978 126.1290014
  42.4289992 141.1099978 126.4570014  42.9728497 141.7849745 126.5308260
  39.1969992 144.1319978 135.4350014  38.6949992 144.1039978 134.6200014
  39.2019992 143.2269978 135.7440014  39.1290416 144.0057368 135.3653766
  54.2969992 139.0719978 138.4810014  53.8889992 139.5519978 137.7610014
  54.3369992 138.1659978 138.1730014  54.2465476 139.0153160 138.3408247
  41.4459992 145.4559978 136.4780014  41.6619992 145.0939978 137.3370014
  40.5899992 145.0809978 136.2680014  41.3599354 145.3557906 136.5672160
  44.0639992 133.9259978 132.4730014  43.2029992 133.8389978 132.0660014
  44.0419992 134.7819978 132.9010014  43.9430411 134.0297884 132.4750857
  48.7269992 133.6479978 135.8480014  49.1469992 133.2329978 136.6010014
  47.7939992 133.4689978 135.9650014  48.6583736 133.5669910 135.9668968
  52.0539992 137.4029978 136.7010014  51.5399992 137.2779978 137.4990014
  51.8979992 138.3159978 136.4570014  51.9626967 137.5092123 136.7770937
  52.8159992 142.2639978 122.4630014  52.8579992 142.0419978 121.5330014
  53.6649992 142.6629978 122.6530014  52.9365253 142.2875498 122.3613822
  48.3889992 136.1399978 123.1330014  48.1349992 136.1589978 124.0560014
  48.1319992 135.2689978 122.8320014  48.3195133 136.0248110 123.2185082
  44.1549992 138.8909978 133.5680014  43.5139992 138.8509978 134.2770014
  44.1929992 139.8179978 133.3310014  44.0723670 139.0107795 133.6330550
  44.1519992 139.1119978 128.4800014  43.2599992 138.7719978 128.4220014
  44.6029992 138.7349978 127.7250014  44.0906815 139.0143762 128.3699203
  49.6879992 139.5279978 127.2970014  49.2789992 140.3429978 127.0060014
  50.4079992 139.3879978 126.6830014  49.7294013 139.6206571 127.1740875
  48.7899992 139.7039978 138.7850014  48.2269992 138.9989978 139.1060014
  49.6159992 139.5829978 139.2530014  48.8246674 139.5912165 138.8921751
  50.6929992 138.9739978 130.1110014  50.4969992 139.5799978 129.3960014
  50.8739992 138.1409978 129.6770014  50.6906584 138.9442513 129.9544212
  41.9049992 139.2119978 135.4350014  41.8669992 139.6119978 136.3040014
  41.4149992 138.3949978 135.5260014  41.8335621 139.1562510 135.5661377
  45.2709992 136.5859978 122.2340014  44.8399992 136.1409978 122.9640014
  44.5529992 136.9569978 121.7220014  45.1149363 136.5752968 122.2646211
  38.5139992 136.3279978 129.2860014  39.1439992 136.2989978 130.0050014
  38.9629992 135.9029978 128.5560014  38.6610692 136.2665316 129.2857771
  39.7879992 137.0739978 124.7100014  40.2619992 137.6649978 124.1250014
  39.0699992 137.6039978 125.0570014  39.7558640 137.2265511 124.6767969
  49.9569992 140.6119978 134.7830014  50.2799992 139.9809978 134.1400014
  49.5159992 140.0779978 135.4430014  49.9415789 140.4533522 134.7842232
  46.7339992 136.5399978 129.5670014  45.8229992 136.5969978 129.8550014
  47.2389992 136.4799978 130.3770014  46.6775387 136.5396870 129.7160646
  41.5619992 138.1689978 128.3930014  40.6729992 138.2679978 128.0530014
  41.8589992 137.3269978 128.0470014  41.4804177 138.0687687 128.2996940
  45.2149992 138.1689978 126.0500014  46.1469992 138.2979978 126.2280014
  44.9999992 138.8379978 125.4000014  45.3134472 138.2770806 125.9864891
  51.1389992 135.7749978 132.8310014  50.4619992 135.9059978 133.4950014
  50.6539992 135.6199978 132.0210014  50.9807265 135.7719659 132.8123397
  43.8889992 139.3629978 123.6170014  43.3469992 138.9839978 122.9250014
  44.7229992 139.5579978 123.1880014  43.9275159 139.3375076 123.4644419
  42.0249992 143.9199978 138.7160014  42.7569992 144.1749978 139.2770014
  41.2439992 144.1249978 139.2310014  42.0197684 143.9826468 138.8624782
  48.0539992 139.3269978 131.4540014  48.6179992 138.7809978 130.9070014
  47.9059992 138.8059978 132.2420014  48.1112575 139.1816552 131.4856987
  43.0559992 135.4639978 127.8720014  42.7389992 134.5609978 127.8370014
  43.8369992 135.4659978 127.3190014  43.1182307 135.3406951 127.7924314
  46.6799992 137.7159978 133.8680014  45.8449992 138.1699978 133.9780014
  47.2039992 137.9919978 134.6200014  46.6365070 137.8154666 133.9847152
  47.2249992 143.9289978 125.5520014  46.4799992 143.4209978 125.2300014
  47.0899992 143.9779978 126.4990014  47.1049047 143.8661596 125.6358845
  54.3749992 143.0619978 134.3390014  55.0159992 143.5179978 133.7950014
  53.5439992 143.1749978 133.8770014  54.3505171 143.1397502 134.2020237
  51.1219992 136.7429978 123.7520014  50.1839992 136.8539978 123.6000014
  51.4199992 137.5989978 124.0580014  51.0336402 136.8740621 123.7725571
  48.7439992 144.1129978 136.7890014  48.3979992 143.7309978 137.5960014
  48.5439992 145.0459978 136.8610014  48.6696523 144.1869095 136.9090735
  51.8409992 138.6099978 125.4120014  52.7329992 138.4719978 125.7310014
  51.8969992 139.4009978 124.8760014  51.9707107 138.6980526 125.3832091
  42.3489992 143.2239978 131.3220014  43.0939992 143.2209978 130.7210014
  42.4269992 142.3999978 131.8040014  42.4614158 143.1122916 131.3049153
  49.3499992 145.3869978 124.5780014  49.0549992 146.2139978 124.9590014
  48.6469992 144.7679978 124.7740014  49.2145471 145.4165227 124.6566698
  39.3569992 141.6839978 136.6370014  39.5799992 141.2659978 137.4690014
  38.7549992 141.0719978 136.2140014  39.3061260 141.5439933 136.6937320
  46.3739992 141.2009978 138.8500014  46.0779992 141.0359978 137.9550014
  47.3049992 140.9809978 138.8390014  46.4593982 141.1486578 138.7260045
  56.7259992 138.8189978 125.1070014  56.1709992 138.4229978 124.4350014
  56.8259992 139.7299978 124.8290014  56.6635888 138.8878990 124.9775206
  56.6889992 144.6199978 137.9440014  55.8379992 144.8579978 137.5770014
  57.2789992 144.6029978 137.1910014  56.6522408 144.6502966 137.7918879
  52.1809992 142.4129978 132.5930014  51.2529992 142.1819978 132.5660014
  52.6319992 141.6359978 132.2630014  52.1148165 142.2762774 132.5446790
  40.4789992 141.6039978 123.3140014  41.0949992 142.2309978 123.6930014
  39.6169992 141.9199978 123.5850014  40.4468195 141.7325798 123.4025386
  46.1519992 144.4049978 128.3030014  45.9109992 145.3299978 128.3440014
  45.4109992 143.9459978 128.6990014  46.0188390 144.4696403 128.3621404
  50.2099992 144.6529978 134.3180014  49.7849992 144.4249978 135.1450014
  50.7909992 143.9139978 134.1360014  50.2303930 144.5219843 134.4064732
  40.9909992 136.4379978 136.1950014  40.0989992 136.7759978 136.1280014
  40.8929992 135.5819978 136.6130014  40.8554965 136.3686499 136.2423044
  53.2789992 144.2539978 125.6190014  53.0019992 143.5259978 126.1750014
  54.2069992 144.3729978 125.8240014  53.3664499 144.1704213 125.7228044
  41.8939992 143.5159978 124.8060014  41.2079992 143.8689978 125.3730014
  42.4169992 144.2789978 124.5600014  41.8709033 143.6673746 124.8502661
  49.7259992 136.1789978 135.0850014  50.4249992 136.2529978 135.7350014
  49.3449992 135.3139978 135.2390014  49.7702097 136.0722389 135.1947997
  50.5099992 135.8309978 126.1820014  50.7299992 136.3019978 125.3790014
  51.0689992 136.2249978 126.8520014  50.6156730 135.9487432 126.1625906
  47.7099992 137.5589978 127.0170014  48.5219992 138.0629978 127.0630014
  47.4659992 137.4139978 127.9310014  47.7881467 137.6083749 127.1468575
  48.2459992 138.5449978 136.2020014  48.3649992 139.1189978 136.9590014
  48.9009992 137.8569978 136.3160014  48.3509146 138.5305574 136.3211313
  48.5939992 134.6399978 127.9550014  48.2469992 135.2569978 128.6000014
  49.2529992 135.1409978 127.4740014  48.6355949 134.7921099 127.9782271
  44.2519992 135.7029978 124.6420014  44.1679992 136.5909978 124.9890014
  45.1419992 135.4379978 124.8740014  44.3608163 135.7887179 124.7208596
  54.4499992 136.4519978 137.0370014  53.5339992 136.7139978 136.9490014
  54.7859992 136.4489978 136.1400014  54.3699789 136.4874626 136.9037847
  53.0529992 140.2019978 131.1320014  52.2549992 139.7869978 130.8040014
  53.4979992 139.5119978 131.6230014  53.0039684 140.0518628 131.1535227
  40.8259992 138.7949978 122.8190014  40.7809992 139.7339978 122.9970014
  39.9379992 138.5589978 122.5490014  40.6998555 138.8916874 122.8068939
  41.6339992 133.5759978 131.4920014  41.4049992 133.6349978 130.5640014
  41.1919992 132.7849978 131.7980014  41.5428801 133.4770540 131.4064729
  39.7599992 143.9399978 139.9370014  39.9039992 143.0379978 139.6500014
  38.9879992 144.2259978 139.4490014  39.6753303 143.8553243 139.8317908
  44.1009992 144.2829978 122.0690014  44.1659992 143.4889978 122.6000014
  44.7539992 144.1649978 121.3790014  44.1981754 144.1583337 122.0484259
  46.4149992 143.9089978 139.3690014  46.0869992 144.1799978 138.5120014
  46.5669992 142.9679978 139.2820014  46.3906030 143.8188973 139.2397945
  49.4539992 145.3299978 121.8050014  49.1849992 145.5109978 122.7060014
  49.2469992 144.4049978 121.6740014  49.3892000 145.2296774 121.9105693
  52.1499992 143.8249978 136.7530014  52.8949992 144.4139978 136.6330014
  51.3929992 144.4069978 136.8160014  52.1495205 143.9841997 136.7451119
  40.5929992 141.1399978 139.3570014  41.0009992 140.2829978 139.2360014
  40.3319992 141.1539978 140.2780014  40.6136016 141.0245119 139.4649192
  45.2509992 142.2559978 124.3750014  44.7909992 141.7719978 125.0610014
  45.5059992 141.5869978 123.7390014  45.2225038 142.0993689 124.3829447
  44.5399992 140.1489978 136.7310014  43.9209992 140.8229978 137.0110014
  44.8839992 140.4699978 135.8980014  44.5017605 140.2847198 136.6566707
  46.3219992 140.4989978 122.6370014  46.1409992 140.3439978 121.7100014
  47.2719992 140.6069978 122.6820014  46.4256566 140.4923669 122.5160929
  49.5589992 142.6199978 140.0080014  50.5129992 142.7039978 139.9810014
  49.3989992 141.9079978 140.6280014  49.6677182 142.5352842 140.0880733
  55.7119992 142.8529978 122.0830014  55.4379992 142.4289978 121.2700014
  55.7509992 143.7849978 121.8660014  55.6797716 142.9208827 121.9424286
  44.8789992 137.5039978 137.8130014  45.0289992 136.7749978 137.2110014
  44.8809992 138.2809978 137.2540014  44.8997967 137.5092708 137.6550541
  45.2919992 135.8729978 135.3060014  45.8269992 136.3249978 134.6540014
  44.4389992 135.7649978 134.8830014  45.2500374 135.9202665 135.1596710
  46.8729992 141.3129978 135.5450014  47.6239992 141.1569978 134.9720014
  46.5339992 142.1649978 135.2700014  46.9299587 141.4068138 135.4294078
  51.2889992 139.1279978 140.5740014  51.4809992 138.1969978 140.4620014
  52.1469992 139.5529978 140.5640014  51.4312269 139.0579928 140.5573192
  52.6059992 141.9169978 138.6510014  52.3239992 142.6259978 138.0740014
  53.5479992 141.8439978 138.5000014  52.6947656 142.0043128 138.5514809
  43.3579992 138.7019978 139.7250014  42.5899992 138.1689978 139.5150014
  44.0359992 138.3919978 139.1250014  43.3446973 138.5872375 139.6151796
  46.0969992 133.3299978 135.7370014  45.9989992 134.2759978 135.6320014
  45.3549992 132.9569978 135.2620014  45.9831913 133.4091813 135.6583539
  47.3609992 137.6509978 139.3010014  47.1259992 137.4319978 140.2030014
  46.5779992 137.4439978 138.7910014  47.2229219 137.5930066 139.3555852
  50.0769992 136.7789978 138.3770014  49.1289992 136.8109978 138.5090014
  50.3889992 136.1529978 139.0300014  49.9895190 136.6987262 138.4833564
  51.7109992 135.4129978 140.3820014  51.6139992 134.4609978 140.3760014
  51.3889992 135.6809978 141.2420014  51.6541761 135.3189744 140.4974936
  41.5379992 136.6219978 139.4290014  41.7499992 135.9159978 138.8190014
  41.4269992 136.1849978 140.2730014  41.5520269 136.4661921 139.4595873
  46.3189992 132.6239978 138.4090014  47.0309992 131.9839978 138.3950014
  46.2179992 132.8899978 137.4950014  46.4027261 132.5724190 138.2835537
  46.6729992 134.3059978 140.4620014  46.5409992 133.8309978 139.6420014
  46.0729992 135.0509978 140.4070014  46.5739070 134.3415789 140.3423251
  54.8689992 145.4659978 140.5440014  54.0029992 145.3609978 140.9380014
  55.2449992 146.2239978 140.9900014  54.8013401 145.5541708 140.6582620
  56.1699992 143.7219978 126.0580014  57.0199992 144.1429978 126.1850014
  56.1749992 142.9819978 126.6650014  56.2871143 143.6796094 126.1574750
  56.5639992 141.7759978 127.8820014  55.8379992 141.2959978 128.2790014
  57.1459992 141.9809978 128.6140014  56.5431635 141.7379166 128.0353748
  56.3229992 144.5609978 132.8290014  57.1569992 144.1829978 132.5490014
  56.4349992 145.5039978 132.7100014  56.4522522 144.6367742 132.7746020
  56.8329992 141.6769978 124.2730014  56.3109992 142.0329978 123.5540014
  56.7999992 142.3519978 124.9510014  56.7570699 141.8169848 124.2662129
  55.1819992 138.9159978 122.8240014  55.2779992 139.5829978 122.1440014
  55.0419992 138.1009978 122.3420014  55.1762063 138.8970667 122.6658377
  54.3509992 140.2969978 128.4450014  54.2009992 139.3519978 128.4240014
  53.9969992 140.5779978 129.2880014  54.2825527 140.2055605 128.5561859
  39.3859992 142.3749978 132.4550014  39.5709992 142.2929978 131.5190014
  40.2359992 142.2509978 132.8790014  39.5260916 142.3470393 132.3842896
  55.2069992 142.2669978 138.0830014  55.7899992 141.5319978 138.2750014
  55.7709992 143.0389978 138.1300014  55.3629781 142.2708145 138.1156164
  56.7039992 140.1699978 138.7680014  55.8409992 139.7909978 138.6020014
  57.3079992 139.4309978 138.6940014  56.6675944 140.0182978 138.7352984
  54.4289992 136.3239978 121.9410014  55.0399992 135.9529978 122.5780014
  53.5919992 135.9029978 122.1370014  54.3994947 136.2162756 122.0547252
  54.0619992 137.8789978 126.9070014  54.3409992 136.9719978 127.0310014
  54.8209992 138.3129978 126.5180014  54.2028619 137.8134502 126.8713795
  54.6729992 138.4609978 132.3430014  55.6059992 138.6729978 132.3090014
  54.4379992 138.5619978 133.2650014  54.7688308 138.5036503 132.4630214
  54.7029992 139.1979978 135.1190014  53.8599992 139.4659978 135.4850014
  55.1449992 140.0199978 134.9080014  54.6474138 139.3458273 135.1405518
  38.9839992 137.6449978 138.5960014  39.9029992 137.5229978 138.8320014
  38.5339992 136.8949978 138.9850014  39.0491148 137.5268751 138.6809408
  56.9859992 133.1779978 140.4720014  57.3349992 132.5239978 139.8670014
  57.1329992 134.0149978 140.0330014  57.0537355 133.2016067 140.3296564
  54.6749992 135.1419978 126.9550014  54.8569992 134.6929978 127.7810014
  54.0749992 134.5579978 126.4920014  54.6187529 135.0016131 127.0053619
  40.2049992 135.9579978 131.4870014  40.6499992 135.1659978 131.7890014
  40.6709992 136.6739978 131.9180014  40.3289059 135.9464474 131.5866079
  38.5089992 138.9569978 132.5560014  39.0009992 138.7359978 131.7650014
  38.8709992 139.7969978 132.8370014  38.6252923 139.0403468 132.4857407
  56.5049992 135.2869978 138.8220014  55.5879992 135.5579978 138.7860014
  56.6279992 134.7519978 138.0380014  56.3960828 135.2517700 138.7110785
  56.5419992 135.2099978 123.4830014  56.9539992 134.4889978 123.0080014
  57.2229992 135.8789978 123.5420014  56.6905900 135.2017306 123.4259038
  38.8229992 135.2149978 126.6100014  37.8979992 135.4229978 126.4810014
  39.2769992 135.6989978 125.9210014  38.7576374 135.3089949 126.4990957
  38.7859992 133.9529978 134.9550014  38.1209992 133.7069978 135.5980014
  38.3429992 134.5749978 134.3770014  38.6350937 134.0033614 134.9649379
  55.5059992 133.3769978 136.6410014  54.6929992 133.7019978 136.2530014
  55.7389992 132.6159978 136.1080014  55.4262566 133.3186559 136.5159213
  48.9359992 134.8259978 130.9630014  48.2619992 134.1959978 131.2190014
  49.4999992 134.3419978 130.3600014  48.9200384 134.6743708 130.9165020
  54.0789992 132.9329978 131.0760014  54.6819992 133.4809978 130.5740014
  53.2089992 133.2519978 130.8360014  54.0439190 133.0511041 130.9748679
  55.8059992 134.0719978 129.4090014  56.4169992 133.5579978 128.8830014
  56.1879992 134.9489978 129.4330014  55.9414475 134.1201323 129.3401208
  41.2629992 133.4599978 128.7850014  40.4859992 133.2249978 128.2780014
  41.7929992 132.6629978 128.7940014  41.2283451 133.3201268 128.7168627
  40.0989992 133.2579978 124.5890014  40.5379992 133.8689978 123.9970014
  39.4649992 133.7959978 125.0630014  40.0733859 133.4144064 124.5720305
  45.8419992 133.3859978 128.5990014  46.7159992 133.7749978 128.5690014
  45.7059992 133.1709978 129.5210014  45.9433207 133.4101923 128.7196509
  51.3989992 133.4159978 130.2480014  51.4749992 133.5119978 129.2990014
  51.1239992 132.5089978 130.3770014  51.3722042 133.3064241 130.1353811
  52.7519992 133.4419978 125.9400014  52.0489992 134.0569978 125.7310014
  52.3069992 132.6049978 126.0720014  52.5956292 133.4130085 125.9292439
  41.9599992 135.1739978 123.0310014  42.4509992 134.5439978 122.5040014
  42.5829992 135.4699978 123.6950014  42.1115062 135.1276770 123.0485438
  46.9859992 135.4669978 125.4890014  47.1639992 134.8199978 126.1710014
  46.9319992 136.3009978 125.9560014  47.0031025 135.4910504 125.6456433
  41.2199992 133.9739978 138.3030014  40.8539992 133.2079978 138.7460014
  42.1329992 134.0029978 138.5900014  41.2933225 133.8731906 138.4023459
  43.1929992 133.3239978 139.8390014  44.0919992 133.0499978 139.6540014
  42.8069992 132.5819978 140.3030014  43.2637237 133.1861508 139.8764710
  51.6149992 132.6569978 140.0210014  51.6909992 132.2309978 140.8750014
  52.5079992 132.6699978 139.6780014  51.7462267 132.6003952 140.0915932
  69.1969992 142.6159978 128.7440014  69.2859992 143.5599978 128.6120014
  68.5589992 142.3409978 128.0860014  69.1229062 142.7079812 128.6369641
  68.1299992 141.8709978 132.1630014  68.0919992 141.2249978 132.8680014
  67.8079992 141.4039978 131.3920014  68.0812679 141.7194276 132.1552921
  60.4979992 141.4849978 133.7560014  60.5399992 140.8599978 134.4790014
  61.2009992 142.1089978 133.9380014  60.5987345 141.4837873 133.8795273
  71.8359992 144.8099978 130.4650014  71.3949992 144.0899978 130.9150014
  71.8229992 145.5309978 131.0940014  71.7737960 144.8088329 130.6117567
  58.0319992 139.5949978 127.6840014  57.5839992 140.4409978 127.6650014
  57.4709992 139.0159978 127.1680014  57.8949603 139.6323674 127.6116720
  58.7419992 141.7569978 129.8100014  58.9559992 140.9869978 130.3370014
  59.4799992 141.8469978 129.2060014  58.8709652 141.6638012 129.8005212
  66.5189992 144.3029978 132.5690014  66.8229992 143.6169978 131.9750014
  67.2409992 144.4219978 133.1870014  66.6581152 144.2252189 132.5712123
  75.1819992 135.9049978 133.4300014  75.2319992 136.5149978 134.1660014
  75.6079992 136.3659978 132.7070014  75.2464108 136.0507709 133.4330112
  69.6599992 138.6969978 132.8970014  69.8029992 137.7509978 132.9170014
  69.5539992 138.9039978 131.9680014  69.6652509 138.5954813 132.7742231
  62.8149992 136.7989978 130.1690014  62.8579992 137.6589978 129.7510014
  62.3569992 136.2469978 129.5350014  62.7589815 136.8420621 130.0261197
  70.5369992 136.9299978 128.5700014  71.1839992 136.6009978 129.1950014
  71.0469992 137.4469978 127.9470014  70.6944317 136.9549227 128.5712167
  59.4349992 139.1959978 130.9310014  60.0889992 138.6459978 131.3630014
  59.4589992 138.9219978 130.0140014  59.5277199 139.0837167 130.8661668
  64.5919992 140.7459978 130.1460014  65.2079992 140.2189978 130.6560014
  64.0049992 140.1059978 129.7430014  64.5969239 140.5874117 130.1612952
  75.5739992 137.3829978 135.6660014  74.8849992 138.0409978 135.5700014
  75.5889992 137.1849978 136.6020014  75.4816740 137.4463243 135.7794630
  61.6249992 135.7169978 134.2430014  61.4059992 136.2469978 133.4770014
  60.9569992 135.9429978 134.8900014  61.5047001 135.8201154 134.2256064
  68.9939992 145.2169978 127.7870014  68.6989992 144.8939978 126.9360014
  68.6699992 146.1169978 127.8280014  68.9097983 145.2944027 127.6759771
  64.1939992 143.3919978 134.5310014  63.4539992 143.9909978 134.6340014
  64.9079992 143.9459978 134.2150014  64.1893288 143.5487356 134.5023805
  72.3009992 136.2209978 130.5500014  72.0859992 135.4549978 131.0830014
  72.9569992 136.6929978 131.0630014  72.3602673 136.1800728 130.6921990
  61.2189992 137.6089978 132.1950014  61.8329992 138.2419978 132.5690014
  61.7309992 137.1369978 131.5390014  61.3722277 137.6317352 132.1574279
  62.6019992 145.3569978 135.3180014  62.5959992 146.2359978 134.9400014
  61.7479992 145.2729978 135.7430014  62.4857925 145.4659535 135.3236887
  58.7229992 145.0279978 126.1000014  58.4509992 145.2569978 125.2110014
  58.7679992 145.8649978 126.5600014  58.6918709 145.1726058 126.0406107
  72.6479992 134.9359978 134.2300014  71.9119992 135.5459978 134.1920014
  73.3319992 135.3509978 133.7030014  72.6395506 135.0756400 134.1536051
  65.6519992 133.0219978 131.6960014  65.5339992 132.0739978 131.6410014
  64.7969992 133.3549978 131.9690014  65.5202679 132.9371926 131.7253720
  73.4459992 144.8979978 136.4240014  73.5849992 144.3059978 135.6840014
  73.6129992 145.7709978 136.0670014  73.4875562 144.9349896 136.2746283
  67.9179992 141.8599978 126.1960014  67.2069992 142.3949978 125.8440014
  68.6089992 141.9149978 125.5360014  67.9140751 141.9406777 126.0585858
  67.9719992 140.3169978 123.2350014  68.6729992 140.3399978 123.8860014
  68.2739992 139.6889978 122.5790014  68.1088282 140.2352339 123.2354496
  75.2869992 141.2379978 134.4900014  74.6349992 141.9319978 134.5790014
  75.7529992 141.4479978 133.6800014  75.2605937 141.3615019 134.3927533
  71.3239992 142.0689978 127.1480014  70.5919992 142.2979978 127.7210014
  71.7709992 141.3559978 127.6030014  71.2842753 142.0038972 127.2879715
  71.2209992 140.2439978 136.2160014  71.3009992 141.0069978 136.7870014
  70.6199992 140.5229978 135.5250014  71.1507245 140.3862630 136.2008424
  62.9689992 142.6999978 129.0300014  62.6389992 142.3289978 128.2120014
  63.5579992 142.0289978 129.3770014  63.0033970 142.5586063 128.9649404
  63.3359992 141.4679978 132.6640014  63.9009992 141.5899978 131.9010014
  63.6549992 142.1059978 133.3030014  63.4563977 141.5708851 132.6459424
  70.1949992 141.2319978 124.8330014  70.7739992 141.3819978 125.5800014
  70.6089992 141.7019978 124.1100014  70.3303122 141.3161277 124.8375042
  61.1359992 142.0659978 136.6100014  61.2059992 142.7169978 137.3080014
  60.2449992 142.1689978 136.2750014  61.0251802 142.1689757 136.6602249
  73.8939992 132.9819978 124.6460014  72.9939992 133.1209978 124.9410014
  74.1459992 133.8129978 124.2440014  73.8048683 133.1134055 124.6320232
  61.9599992 141.7689978 126.6200014  61.6679992 142.5369978 126.1290014
  61.2849992 141.1099978 126.4570014  61.8288497 141.7849745 126.5308260
  58.0529992 144.1319978 135.4350014  57.5509992 144.1039978 134.6200014
  58.0579992 143.2269978 135.7440014  57.9850416 144.0057368 135.3653766
  73.1529992 139.0719978 138.4810014  72.7449992 139.5519978 137.7610014
  73.1929992 138.1659978 138.1730014  73.1025476 139.0153160 138.3408247
  60.3019992 145.4559978 136.4780014  60.5179992 145.0939978 137.3370014
  59.4459992 145.0809978 136.2680014  60.2159354 145.3557906 136.5672160
  62.9199992 133.9259978 132.4730014  62.0589992 133.8389978 132.0660014
  62.8979992 134.7819978 132.9010014  62.7990411 134.0297884 132.4750857
  67.5829992 133.6479978 135.8480014  68.0029992 133.2329978 136.6010014
  66.6499992 133.4689978 135.9650014  67.5143736 133.5669910 135.9668968
  70.9099992 137.4029978 136.7010014  70.3959992 137.2779978 137.4990014
  70.7539992 138.3159978 136.4570014  70.8186967 137.5092123 136.7770937
  71.6719992 142.2639978 122.4630014  71.7139992 142.0419978 121.5330014
  72.5209992 142.6629978 122.6530014  71.7925253 142.2875498 122.3613822
  67.2449992 136.1399978 123.1330014  66.9909992 136.1589978 124.0560014
  66.9879992 135.2689978 122.8320014  67.1755133 136.0248110 123.2185082
  63.0109992 138.8909978 133.5680014  62.3699992 138.8509978 134.2770014
  63.0489992 139.8179978 133.3310014  62.9283670 139.0107795 133.6330550
  63.0079992 139.1119978 128.4800014  62.1159992 138.7719978 128.4220014
  63.4589992 138.7349978 127.7250014  62.9466815 139.0143762 128.3699203
  68.5439992 139.5279978 127.2970014  68.1349992 140.3429978 127.0060014
  69.2639992 139.3879978 126.6830014  68.5854013 139.6206571 127.1740875
  67.6459992 139.7039978 138.7850014  67.0829992 138.9989978 139.1060014
  68.4719992 139.5829978 139.2530014  67.6806674 139.5912165 138.8921751
  69.5489992 138.9739978 130.1110014  69.3529992 139.5799978 129.3960014
  69.7299992 138.1409978 129.6770014  69.5466584 138.9442513 129.9544212
  60.7609992 139.2119978 135.4350014  60.7229992 139.6119978 136.3040014
  60.2709992 138.3949978 135.5260014  60.6895621 139.1562510 135.5661377
  64.1269992 136.5859978 122.2340014  63.6959992 136.1409978 122.9640014
  63.4089992 136.9569978 121.7220014  63.9709363 136.5752968 122.2646211
  57.3699992 136.3279978 129.2860014  57.9999992 136.2989978 130.0050014
  57.8189992 135.9029978 128.5560014  57.5170692 136.2665316 129.2857771
  58.6439992 137.0739978 124.7100014  59.1179992 137.6649978 124.1250014
  57.9259992 137.6039978 125.0570014  58.6118640 137.2265511 124.6767969
  68.8129992 140.6119978 134.7830014  69.1359992 139.9809978 134.1400014
  68.3719992 140.0779978 135.4430014  68.7975789 140.4533522 134.7842232
  65.5899992 136.5399978 129.5670014  64.6789992 136.5969978 129.8550014
  66.0949992 136.4799978 130.3770014  65.5335387 136.5396870 129.7160646
  60.4179992 138.1689978 128.3930014  59.5289992 138.2679978 128.0530014
  60.7149992 137.3269978 128.0470014  60.3364177 138.0687687 128.2996940
  64.0709992 138.1689978 126.0500014  65.0029992 138.2979978 126.2280014
  63.8559992 138.8379978 125.4000014  64.1694472 138.2770806 125.9864891
  69.9949992 135.7749978 132.8310014  69.3179992 135.9059978 133.4950014
  69.5099992 135.6199978 132.0210014  69.8367265 135.7719659 132.8123397
  62.7449992 139.3629978 123.6170014  62.2029992 138.9839978 122.9250014
  63.5789992 139.5579978 123.1880014  62.7835159 139.3375076 123.4644419
  60.8809992 143.9199978 138.7160014  61.6129992 144.1749978 139.2770014
  60.0999992 144.1249978 139.2310014  60.8757684 143.9826468 138.8624782
  66.9099992 139.3269978 131.4540014  67.4739992 138.7809978 130.9070014
  66.7619992 138.8059978 132.2420014  66.9672575 139.1816552 131.4856987
  61.9119992 135.4639978 127.8720014  61.5949992 134.5609978 127.8370014
  62.6929992 135.4659978 127.3190014  61.9742307 135.3406951 127.7924314
  65.5359992 137.7159978 133.8680014  64.7009992 138.1699978 133.9780014
  66.0599992 137.9919978 134.6200014  65.4925070 137.8154666 133.9847152
  66.0809992 143.9289978 125.5520014  65.3359992 143.4209978 125.2300014
  65.9459992 143.9779978 126.4990014  65.9609047 143.8661596 125.6358845
  73.2309992 143.0619978 134.3390014  73.8719992 143.5179978 133.7950014
  72.3999992 143.1749978 133.8770014  73.2065171 143.1397502 134.2020237
  69.9779992 136.7429978 123.7520014  69.0399992 136.8539978 123.6000014
  70.2759992 137.5989978 124.0580014  69.8896402 136.8740621 123.7725571
  67.5999992 144.1129978 136.7890014  67.2539992 143.7309978 137.5960014
  67.3999992 145.0459978 136.8610014  67.5256523 144.1869095 136.9090735
  70.6969992 138.6099978 125.4120014  71.5889992 138.4719978 125.7310014
  70.7529992 139.4009978 124.8760014  70.8267107 138.6980526 125.3832091
  61.2049992 143.2239978 131.3220014  61.9499992 143.2209978 130.7210014
  61.2829992 142.3999978 131.8040014  61.3174159 143.1122916 131.3049153
  68.2059992 145.3869978 124.5780014  67.9109992 146.2139978 124.9590014
  67.5029992 144.7679978 124.7740014  68.0705471 145.4165227 124.6566698
  58.2129992 141.6839978 136.6370014  58.4359992 141.2659978 137.4690014
  57.6109992 141.0719978 136.2140014  58.1621260 141.5439933 136.6937320
  65.2299992 141.2009978 138.8500014  64.9339992 141.0359978 137.9550014
  66.1609992 140.9809978 138.8390014  65.3153982 141.1486578 138.7260045
  75.5819992 138.8189978 125.1070014  75.0269992 138.4229978 124.4350014
  75.6819992 139.7299978 124.8290014  75.5195888 138.8878990 124.9775206
  75.5449992 144.6199978 137.9440014  74.6939992 144.8579978 137.5770014
  76.1349992 144.6029978 137.1910014  75.5082409 144.6502966 137.7918879
  71.0369992 142.4129978 132.5930014  70.1089992 142.1819978 132.5660014
  71.4879992 141.6359978 132.2630014  70.9708165 142.2762774 132.5446790
  59.3349992 141.6039978 123.3140014  59.9509992 142.2309978 123.6930014
  58.4729992 141.9199978 123.5850014  59.3028195 141.7325798 123.4025386
  65.0079992 144.4049978 128.3030014  64.7669992 145.3299978 128.3440014
  64.2669992 143.9459978 128.6990014  64.8748390 144.4696403 128.3621404
  69.0659992 144.6529978 134.3180014  68.6409992 144.4249978 135.1450014
  69.6469992 143.9139978 134.1360014  69.0863930 144.5219843 134.4064732
  59.8469992 136.4379978 136.1950014  58.9549992 136.7759978 136.1280014
  59.7489992 135.5819978 136.6130014  59.7114965 136.3686499 136.2423044
  72.1349992 144.2539978 125.6190014  71.8579992 143.5259978 126.1750014
  73.0629992 144.3729978 125.8240014  72.2224499 144.1704213 125.7228044
  60.7499992 143.5159978 124.8060014  60.0639992 143.8689978 125.3730014
  61.2729992 144.2789978 124.5600014  60.7269033 143.6673746 124.8502661
  68.5819992 136.1789978 135.0850014  69.2809992 136.2529978 135.7350014
  68.2009992 135.3139978 135.2390014  68.6262097 136.0722389 135.1947997
  69.3659992 135.8309978 126.1820014  69.5859992 136.3019978 125.3790014
  69.9249992 136.2249978 126.8520014  69.4716730 135.9487432 126.1625906
  66.5659992 137.5589978 127.0170014  67.3779992 138.0629978 127.0630014
  66.3219992 137.4139978 127.9310014  66.6441467 137.6083749 127.1468575
  67.1019992 138.5449978 136.2020014  67.2209992 139.1189978 136.9590014
  67.7569992 137.8569978 136.3160014  67.2069146 138.5305574 136.3211314
  67.4499992 134.6399978 127.9550014  67.1029992 135.2569978 128.6000014
  68.1089992 135.1409978 127.4740014  67.4915950 134.7921099 127.9782271
  63.1079992 135.7029978 124.6420014  63.0239992 136.5909978 124.9890014
  63.9979992 135.4379978 124.8740014  63.2168163 135.7887179 124.7208596
  73.3059992 136.4519978 137.0370014  72.3899992 136.7139978 136.9490014
  73.6419992 136.4489978 136.1400014  73.2259789 136.4874626 136.9037847
  71.9089992 140.2019978 131.1320014  71.1109992 139.7869978 130.8040014
  72.3539992 139.5119978 131.6230014  71.8599684 140.0518628 131.1535227
  59.6819992 138.7949978 122.8190014  59.6369992 139.7339978 122.9970014
  58.7939992 138.5589978 122.5490014  59.5558555 138.8916874 122.8068939
  60.4899992 133.5759978 131.4920014  60.2609992 133.6349978 130.5640014
  60.0479992 132.7849978 131.7980014  60.3988801 133.4770540 131.4064729
  58.6159992 143.9399978 139.9370014  58.7599992 143.0379978 139.6500014
  57.8439992 144.2259978 139.4490014  58.5313303 143.8553243 139.8317908
  62.9569992 144.2829978 122.0690014  63.0219992 143.4889978 122.6000014
  63.6099992 144.1649978 121.3790014  63.0541754 144.1583337 122.0484259
  65.2709992 143.9089978 139.3690014  64.9429992 144.1799978 138.5120014
  65.4229992 142.9679978 139.2820014  65.2466030 143.8188973 139.2397945
  68.3099992 145.3299978 121.8050014  68.0409992 145.5109978 122.7060014
  68.1029992 144.4049978 121.6740014  68.2452000 145.2296774 121.9105693
  71.0059992 143.8249978 136.7530014  71.7509992 144.4139978 136.6330014
  70.2489992 144.4069978 136.8160014  71.0055205 143.9841997 136.7451119
  59.4489992 141.1399978 139.3570014  59.8569992 140.2829978 139.2360014
  59.1879992 141.1539978 140.2780014  59.4696016 141.0245119 139.4649192
  64.1069992 142.2559978 124.3750014  63.6469992 141.7719978 125.0610014
  64.3619992 141.5869978 123.7390014  64.0785038 142.0993689 124.3829447
  63.3959992 140.1489978 136.7310014  62.7769992 140.8229978 137.0110014
  63.7399992 140.4699978 135.8980014  63.3577605 140.2847198 136.6566707
  65.1779992 140.4989978 122.6370014  64.9969992 140.3439978 121.7100014
  66.1279992 140.6069978 122.6820014  65.2816566 140.4923669 122.5160929
  68.4149992 142.6199978 140.0080014  69.3689992 142.7039978 139.9810014
  68.2549992 141.9079978 140.6280014  68.5237182 142.5352842 140.0880733
  74.5679992 142.8529978 122.0830014  74.2939992 142.4289978 121.2700014
  74.6069992 143.7849978 121.8660014  74.5357716 142.9208827 121.9424286
  63.7349992 137.5039978 137.8130014  63.8849992 136.7749978 137.2110014
  63.7369992 138.2809978 137.2540014  63.7557967 137.5092708 137.6550541
  64.1479992 135.8729978 135.3060014  64.6829992 136.3249978 134.6540014
  63.2949992 135.7649978 134.8830014  64.1060374 135.9202665 135.1596710
  65.7289992 141.3129978 135.5450014  66.4799992 141.1569978 134.9720014
  65.3899992 142.1649978 135.2700014  65.7859587 141.4068138 135.4294078
  70.1449992 139.1279978 140.5740014  70.3369992 138.1969978 140.4620014
  71.0029992 139.5529978 140.5640014  70.2872269 139.0579928 140.5573192
  71.4619992 141.9169978 138.6510014  71.1799992 142.6259978 138.0740014
  72.4039992 141.8439978 138.5000014  71.5507656 142.0043128 138.5514809
  62.2139992 138.7019978 139.7250014  61.4459992 138.1689978 139.5150014
  62.8919992 138.3919978 139.1250014  62.2006973 138.5872375 139.6151796
  64.9529992 133.3299978 135.7370014  64.8549992 134.2759978 135.6320014
  64.2109992 132.9569978 135.2620014  64.8391913 133.4091813 135.6583539
  66.2169992 137.6509978 139.3010014  65.9819992 137.4319978 140.2030014
  65.4339992 137.4439978 138.7910014  66.0789219 137.5930066 139.3555852
  68.9329992 136.7789978 138.3770014  67.9849992 136.8109978 138.5090014
  69.2449992 136.1529978 139.0300014  68.8455190 136.6987262 138.4833564
  70.5669992 135.4129978 140.3820014  70.4699992 134.4609978 140.3760014
  70.2449992 135.6809978 141.2420014  70.5101761 135.3189744 140.4974936
  60.3939992 136.6219978 139.4290014  60.6059992 135.9159978 138.8190014
  60.2829992 136.1849978 140.2730014  60.4080269 136.4661921 139.4595873
  65.1749992 132.6239978 138.4090014  65.8869992 131.9839978 138.3950014
  65.0739992 132.8899978 137.4950014  65.2587261 132.5724190 138.2835537
  65.5289992 134.3059978 140.4620014  65.3969992 133.8309978 139.6420014
  64.9289992 135.0509978 140.4070014  65.4299070 134.3415789 140.3423251
  73.7249992 145.4659978 140.5440014  72.8589992 145.3609978 140.9380014
  74.1009992 146.2239978 140.9900014  73.6573401 145.5541708 140.6582620
  75.0259992 143.7219978 126.0580014  75.8759992 144.1429978 126.1850014
  75.0309992 142.9819978 126.6650014  75.1431143 143.6796094 126.1574750
  75.4199992 141.7759978 127.8820014  74.6939992 141.2959978 128.2790014
  76.0019992 141.9809978 128.6140014  75.3991635 141.7379166 128.0353748
  75.1789992 144.5609978 132.8290014  76.0129992 144.1829978 132.5490014
  75.2909992 145.5039978 132.7100014  75.3082522 144.6367742 132.7746020
  75.6889992 141.6769978 124.2730014  75.1669992 142.0329978 123.5540014
  75.6559992 142.3519978 124.9510014  75.6130699 141.8169848 124.2662129
  74.0379992 138.9159978 122.8240014  74.1339992 139.5829978 122.1440014
  73.8979992 138.1009978 122.3420014  74.0322063 138.8970667 122.6658377
  73.2069992 140.2969978 128.4450014  73.0569992 139.3519978 128.4240014
  72.8529992 140.5779978 129.2880014  73.1385527 140.2055605 128.5561859
  58.2419992 142.3749978 132.4550014  58.4269992 142.2929978 131.5190014
  59.0919992 142.2509978 132.8790014  58.3820916 142.3470393 132.3842896
  74.0629992 142.2669978 138.0830014  74.6459992 141.5319978 138.2750014
  74.6269992 143.0389978 138.1300014  74.2189781 142.2708145 138.1156164
  75.5599992 140.1699978 138.7680014  74.6969992 139.7909978 138.6020014
  76.1639992 139.4309978 138.6940014  75.5235944 140.0182978 138.7352984
  73.2849992 136.3239978 121.9410014  73.8959992 135.9529978 122.5780014
  72.4479992 135.9029978 122.1370014  73.2554947 136.2162756 122.0547252
  72.9179992 137.8789978 126.9070014  73.1969992 136.9719978 127.0310014
  73.6769992 138.3129978 126.5180014  73.0588619 137.8134502 126.8713795
  73.5289992 138.4609978 132.3430014  74.4619992 138.6729978 132.3090014
  73.2939992 138.5619978 133.2650014  73.6248308 138.5036503 132.4630214
  73.5589992 139.1979978 135.1190014  72.7159992 139.4659978 135.4850014
  74.0009992 140.0199978 134.9080014  73.5034138 139.3458273 135.1405518
  57.8399992 137.6449978 138.5960014  58.7589992 137.5229978 138.8320014
  57.3899992 136.8949978 138.9850014  57.9051148 137.5268751 138.6809408
  75.8419992 133.1779978 140.4720014  76.1909992 132.5239978 139.8670014
  75.9889992 134.0149978 140.0330014  75.9097355 133.2016067 140.3296564
  73.5309992 135.1419978 126.9550014  73.7129992 134.6929978 127.7810014
  72.9309992 134.5579978 126.4920014  73.4747529 135.0016131 127.0053619
  59.0609992 135.9579978 131.4870014  59.5059992 135.1659978 131.7890014
  59.5269992 136.6739978 131.9180014  59.1849059 135.9464474 131.5866079
  57.3649992 138.9569978 132.5560014  57.8569992 138.7359978 131.7650014
  57.7269992 139.7969978 132.8370014  57.4812923 139.0403468 132.4857407
  75.3609992 135.2869978 138.8220014  74.4439992 135.5579978 138.7860014
  75.4839992 134.7519978 138.0380014  75.2520828 135.2517700 138.7110785
  75.3979992 135.2099978 123.4830014  75.8099992 134.4889978 123.0080014
  76.0789992 135.8789978 123.5420014  75.5465900 135.2017306 123.4259038
  57.6789992 135.2149978 126.6100014  56.7539992 135.4229978 126.4810014
  58.1329992 135.6989978 125.9210014  57.6136374 135.3089949 126.4990957
  57.6419992 133.9529978 134.9550014  56.9769992 133.7069978 135.5980014
  57.1989992 134.5749978 134.3770014  57.4910937 134.0033614 134.9649379
  74.3619992 133.3769978 136.6410014  73.5489992 133.7019978 136.2530014
  74.5949992 132.6159978 136.1080014  74.2822566 133.3186559 136.5159213
  67.7919992 134.8259978 130.9630014  67.1179992 134.1959978 131.2190014
  68.3559992 134.3419978 130.3600014  67.7760384 134.6743708 130.9165020
  72.9349992 132.9329978 131.0760014  73.5379992 133.4809978 130.5740014
  72.0649992 133.2519978 130.8360014  72.8999190 133.0511041 130.9748679
  74.6619992 134.0719978 129.4090014  75.2729992 133.5579978 128.8830014
  75.0439992 134.9489978 129.4330014  74.7974475 134.1201323 129.3401208
  60.1189992 133.4599978 128.7850014  59.3419992 133.2249978 128.2780014
  60.6489992 132.6629978 128.7940014  60.0843451 133.3201268 128.7168627
  58.9549992 133.2579978 124.5890014  59.3939992 133.8689978 123.9970014
  58.3209992 133.7959978 125.0630014  58.9293859 133.4144064 124.5720305
  64.6979992 133.3859978 128.5990014  65.5719992 133.7749978 128.5690014
  64.5619992 133.1709978 129.5210014  64.7993207 133.4101923 128.7196509
  70.2549992 133.4159978 130.2480014  70.3309992 133.5119978 129.2990014
  69.9799992 132.5089978 130.3770014  70.2282042 133.3064241 130.1353811
  71.6079992 133.4419978 125.9400014  70.9049992 134.0569978 125.7310014
  71.1629992 132.6049978 126.0720014  71.4516292 133.4130085 125.9292439
  60.8159992 135.1739978 123.0310014  61.3069992 134.5439978 122.5040014
  61.4389992 135.4699978 123.6950014  60.9675062 135.1276770 123.0485438
  65.8419992 135.4669978 125.4890014  66.0199992 134.8199978 126.1710014
  65.7879992 136.3009978 125.9560014  65.8591025 135.4910504 125.6456433
  60.0759992 133.9739978 138.3030014  59.7099992 133.2079978 138.7460014
  60.9889992 134.0029978 138.5900014  60.1493225 133.8731906 138.4023459
  62.0489992 133.3239978 139.8390014  62.9479992 133.0499978 139.6540014
  61.6629992 132.5819978 140.3030014  62.1197237 133.1861508 139.8764710
  70.4709992 132.6569978 140.0210014  70.5469992 132.2309978 140.8750014
  71.3639992 132.6699978 139.6780014  70.6022267 132.6003952 140.0915932
  88.0529992 142.6159978 128.7440014  88.1419992 143.5599978 128.6120014
  87.4149992 142.3409978 128.0860014  87.9789062 142.7079812 128.6369641
  86.9859992 141.8709978 132.1630014  86.9479992 141.2249978 132.8680014
  86.6639992 141.4039978 131.3920014  86.9372679 141.7194276 132.1552921
  79.3539992 141.4849978 133.7560014  79.3959992 140.8599978 134.4790014
  80.0569992 142.1089978 133.9380014  79.4547345 141.4837873 133.8795273
  90.6919992 144.8099978 130.4650014  90.2509992 144.0899978 130.9150014
  90.6789992 145.5309978 131.0940014  90.6297960 144.8088329 130.6117567
  76.8879992 139.5949978 127.6840014  76.4399992 140.4409978 127.6650014
  76.3269992 139.0159978 127.1680014  76.7509603 139.6323674 127.6116720
  77.5979992 141.7569978 129.8100014  77.8119992 140.9869978 130.3370014
  78.3359992 141.8469978 129.2060014  77.7269652 141.6638012 129.8005212
  85.3749992 144.3029978 132.5690014  85.6789992 143.6169978 131.9750014
  86.0969992 144.4219978 133.1870014  85.5141152 144.2252189 132.5712123
  94.0379992 135.9049978 133.4300014  94.0879992 136.5149978 134.1660014
  94.4639992 136.3659978 132.7070014  94.1024108 136.0507709 133.4330112
  88.5159992 138.6969978 132.8970014  88.6589992 137.7509978 132.9170014
  88.4099992 138.9039978 131.9680014  88.5212509 138.5954813 132.7742231
  81.6709992 136.7989978 130.1690014  81.7139992 137.6589978 129.7510014
  81.2129992 136.2469978 129.5350014  81.6149815 136.8420621 130.0261197
  89.3929992 136.9299978 128.5700014  90.0399992 136.6009978 129.1950014
  89.9029992 137.4469978 127.9470014  89.5504317 136.9549227 128.5712167
  78.2909992 139.1959978 130.9310014  78.9449992 138.6459978 131.3630014
  78.3149992 138.9219978 130.0140014  78.3837199 139.0837167 130.8661668
  83.4479992 140.7459978 130.1460014  84.0639992 140.2189978 130.6560014
  82.8609992 140.1059978 129.7430014  83.4529239 140.5874117 130.1612952
  94.4299992 137.3829978 135.6660014  93.7409992 138.0409978 135.5700014
  94.4449992 137.1849978 136.6020014  94.3376740 137.4463243 135.7794630
  80.4809992 135.7169978 134.2430014  80.2619992 136.2469978 133.4770014
  79.8129992 135.9429978 134.8900014  80.3607001 135.8201154 134.2256064
  87.8499992 145.2169978 127.7870014  87.5549992 144.8939978 126.9360014
  87.5259992 146.1169978 127.8280014  87.7657983 145.2944027 127.6759771
  83.0499992 143.3919978 134.5310014  82.3099992 143.9909978 134.6340014
  83.7639992 143.9459978 134.2150014  83.0453288 143.5487356 134.5023805
  91.1569992 136.2209978 130.5500014  90.9419992 135.4549978 131.0830014
  91.8129992 136.6929978 131.0630014  91.2162673 136.1800728 130.6921990
  80.0749992 137.6089978 132.1950014  80.6889992 138.2419978 132.5690014
  80.5869992 137.1369978 131.5390014  80.2282277 137.6317352 132.1574279
  81.4579992 145.3569978 135.3180014  81.4519992 146.2359978 134.9400014
  80.6039992 145.2729978 135.7430014  81.3417925 145.4659535 135.3236887
  77.5789992 145.0279978 126.1000014  77.3069992 145.2569978 125.2110014
  77.6239992 145.8649978 126.5600014  77.5478709 145.1726058 126.0406107
  91.5039992 134.9359978 134.2300014  90.7679992 135.5459978 134.1920014
  92.1879992 135.3509978 133.7030014  91.4955506 135.0756400 134.1536051
  84.5079992 133.0219978 131.6960014  84.3899992 132.0739978 131.6410014
  83.6529992 133.3549978 131.9690014  84.3762679 132.9371926 131.7253720
  92.3019992 144.8979978 136.4240014  92.4409992 144.3059978 135.6840014
  92.4689992 145.7709978 136.0670014  92.3435562 144.9349896 136.2746283
  86.7739992 141.8599978 126.1960014  86.0629992 142.3949978 125.8440014
  87.4649992 141.9149978 125.5360014  86.7700751 141.9406777 126.0585858
  86.8279992 140.3169978 123.2350014  87.5289992 140.3399978 123.8860014
  87.1299992 139.6889978 122.5790014  86.9648282 140.2352339 123.2354496
  94.1429992 141.2379978 134.4900014  93.4909992 141.9319978 134.5790014
  94.6089992 141.4479978 133.6800014  94.1165937 141.3615019 134.3927533
  90.1799992 142.0689978 127.1480014  89.4479992 142.2979978 127.7210014
  90.6269992 141.3559978 127.6030014  90.1402753 142.0038972 127.2879715
  90.0769992 140.2439978 136.2160014  90.1569992 141.0069978 136.7870014
  89.4759992 140.5229978 135.5250014  90.0067245 140.3862630 136.2008424
  81.8249992 142.6999978 129.0300014  81.4949992 142.3289978 128.2120014
  82.4139992 142.0289978 129.3770014  81.8593970 142.5586063 128.9649404
  82.1919992 141.4679978 132.6640014  82.7569992 141.5899978 131.9010014
  82.5109992 142.1059978 133.3030014  82.3123977 141.5708851 132.6459424
  89.0509992 141.2319978 124.8330014  89.6299992 141.3819978 125.5800014
  89.4649992 141.7019978 124.1100014  89.1863122 141.3161277 124.8375042
  79.9919992 142.0659978 136.6100014  80.0619992 142.7169978 137.3080014
  79.1009992 142.1689978 136.2750014  79.8811802 142.1689757 136.6602249
  92.7499992 132.9819978 124.6460014  91.8499992 133.1209978 124.9410014
  93.0019992 133.8129978 124.2440014  92.6608683 133.1134055 124.6320232
  80.8159992 141.7689978 126.6200014  80.5239992 142.5369978 126.1290014
  80.1409992 141.1099978 126.4570014  80.6848497 141.7849745 126.5308260
  76.9089992 144.1319978 135.4350014  76.4069992 144.1039978 134.6200014
  76.9139992 143.2269978 135.7440014  76.8410416 144.0057368 135.3653766
  92.0089992 139.0719978 138.4810014  91.6009992 139.5519978 137.7610014
  92.0489992 138.1659978 138.1730014  91.9585476 139.0153160 138.3408247
  79.1579992 145.4559978 136.4780014  79.3739992 145.0939978 137.3370014
  78.3019992 145.0809978 136.2680014  79.0719354 145.3557906 136.5672160
  81.7759992 133.9259978 132.4730014  80.9149992 133.8389978 132.0660014
  81.7539992 134.7819978 132.9010014  81.6550411 134.0297884 132.4750857
  86.4389992 133.6479978 135.8480014  86.8589992 133.2329978 136.6010014
  85.5059992 133.4689978 135.9650014  86.3703736 133.5669910 135.9668968
  89.7659992 137.4029978 136.7010014  89.2519992 137.2779978 137.4990014
  89.6099992 138.3159978 136.4570014  89.6746967 137.5092123 136.7770937
  90.5279992 142.2639978 122.4630014  90.5699992 142.0419978 121.5330014
  91.3769992 142.6629978 122.6530014  90.6485253 142.2875498 122.3613822
  86.1009992 136.1399978 123.1330014  85.8469992 136.1589978 124.0560014
  85.8439992 135.2689978 122.8320014  86.0315133 136.0248110 123.2185082
  81.8669992 138.8909978 133.5680014  81.2259992 138.8509978 134.2770014
  81.9049992 139.8179978 133.3310014  81.7843670 139.0107795 133.6330550
  81.8639992 139.1119978 128.4800014  80.9719992 138.7719978 128.4220014
  82.3149992 138.7349978 127.7250014  81.8026815 139.0143762 128.3699203
  87.3999992 139.5279978 127.2970014  86.9909992 140.3429978 127.0060014
  88.1199992 139.3879978 126.6830014  87.4414013 139.6206571 127.1740875
  86.5019992 139.7039978 138.7850014  85.9389992 138.9989978 139.1060014
  87.3279992 139.5829978 139.2530014  86.5366674 139.5912165 138.8921751
  88.4049992 138.9739978 130.1110014  88.2089992 139.5799978 129.3960014
  88.5859992 138.1409978 129.6770014  88.4026584 138.9442513 129.9544212
  79.6169992 139.2119978 135.4350014  79.5789992 139.6119978 136.3040014
  79.1269992 138.3949978 135.5260014  79.5455621 139.1562510 135.5661377
  82.9829992 136.5859978 122.2340014  82.5519992 136.1409978 122.9640014
  82.2649992 136.9569978 121.7220014  82.8269363 136.5752968 122.2646211
  76.2259992 136.3279978 129.2860014  76.8559992 136.2989978 130.0050014
  76.6749992 135.9029978 128.5560014  76.3730692 136.2665316 129.2857771
  77.4999992 137.0739978 124.7100014  77.9739992 137.6649978 124.1250014
  76.7819992 137.6039978 125.0570014  77.4678640 137.2265511 124.6767969
  87.6689992 140.6119978 134.7830014  87.9919992 139.9809978 134.1400014
  87.2279992 140.0779978 135.4430014  87.6535789 140.4533522 134.7842232
  84.4459992 136.5399978 129.5670014  83.5349992 136.5969978 129.8550014
  84.9509992 136.4799978 130.3770014  84.3895387 136.5396870 129.7160646
  79.2739992 138.1689978 128.3930014  78.3849992 138.2679978 128.0530014
  79.5709992 137.3269978 128.0470014  79.1924177 138.0687687 128.2996940
  82.9269992 138.1689978 126.0500014  83.8589992 138.2979978 126.2280014
  82.7119992 138.8379978 125.4000014  83.0254472 138.2770806 125.9864891
  88.8509992 135.7749978 132.8310014  88.1739992 135.9059978 133.4950014
  88.3659992 135.6199978 132.0210014  88.6927265 135.7719659 132.8123397
  81.6009992 139.3629978 123.6170014  81.0589992 138.9839978 122.9250014
  82.4349992 139.5579978 123.1880014  81.6395159 139.3375076 123.4644419
  79.7369992 143.9199978 138.7160014  80.4689992 144.1749978 139.2770014
  78.9559992 144.1249978 139.2310014  79.7317684 143.9826468 138.8624782
  85.7659992 139.3269978 131.4540014  86.3299992 138.7809978 130.9070014
  85.6179992 138.8059978 132.2420014  85.8232575 139.1816552 131.4856987
  80.7679992 135.4639978 127.8720014  80.4509992 134.5609978 127.8370014
  81.5489992 135.4659978 127.3190014  80.8302307 135.3406951 127.7924314
  84.3919992 137.7159978 133.8680014  83.5569992 138.1699978 133.9780014
  84.9159992 137.9919978 134.6200014  84.3485070 137.8154666 133.9847152
  84.9369992 143.9289978 125.5520014  84.1919992 143.4209978 125.2300014
  84.8019992 143.9779978 126.4990014  84.8169047 143.8661596 125.6358845
  92.0869992 143.0619978 134.3390014  92.7279992 143.5179978 133.7950014
  91.2559992 143.1749978 133.8770014  92.0625171 143.1397502 134.2020237
  88.8339992 136.7429978 123.7520014  87.8959992 136.8539978 123.6000014
  89.1319992 137.5989978 124.0580014  88.7456402 136.8740621 123.7725571
  86.4559992 144.1129978 136.7890014  86.1099992 143.7309978 137.5960014
  86.2559992 145.0459978 136.8610014  86.3816523 144.1869095 136.9090735
  89.5529992 138.6099978 125.4120014  90.4449992 138.4719978 125.7310014
  89.6089992 139.4009978 124.8760014  89.6827107 138.6980526 125.3832091
  80.0609992 143.2239978 131.3220014  80.8059992 143.2209978 130.7210014
  80.1389992 142.3999978 131.8040014  80.1734158 143.1122916 131.3049153
  87.0619992 145.3869978 124.5780014  86.7669992 146.2139978 124.9590014
  86.3589992 144.7679978 124.7740014  86.9265471 145.4165227 124.6566698
  77.0689992 141.6839978 136.6370014  77.2919992 141.2659978 137.4690014
  76.4669992 141.0719978 136.2140014  77.0181260 141.5439933 136.6937320
  84.0859992 141.2009978 138.8500014  83.7899992 141.0359978 137.9550014
  85.0169992 140.9809978 138.8390014  84.1713982 141.1486578 138.7260045
  94.4379992 138.8189978 125.1070014  93.8829992 138.4229978 124.4350014
  94.5379992 139.7299978 124.8290014  94.3755888 138.8878990 124.9775206
  94.4009992 144.6199978 137.9440014  93.5499992 144.8579978 137.5770014
  94.9909992 144.6029978 137.1910014  94.3642408 144.6502966 137.7918879
  89.8929992 142.4129978 132.5930014  88.9649992 142.1819978 132.5660014
  90.3439992 141.6359978 132.2630014  89.8268165 142.2762774 132.5446790
  78.1909992 141.6039978 123.3140014  78.8069992 142.2309978 123.6930014
  77.3289992 141.9199978 123.5850014  78.1588195 141.7325798 123.4025386
  83.8639992 144.4049978 128.3030014  83.6229992 145.3299978 128.3440014
  83.1229992 143.9459978 128.6990014  83.7308390 144.4696403 128.3621404
  87.9219992 144.6529978 134.3180014  87.4969992 144.4249978 135.1450014
  88.5029992 143.9139978 134.1360014  87.9423930 144.5219843 134.4064732
  78.7029992 136.4379978 136.1950014  77.8109992 136.7759978 136.1280014
  78.6049992 135.5819978 136.6130014  78.5674965 136.3686499 136.2423044
  90.9909992 144.2539978 125.6190014  90.7139992 143.5259978 126.1750014
  91.9189992 144.3729978 125.8240014  91.0784499 144.1704213 125.7228044
  79.6059992 143.5159978 124.8060014  78.9199992 143.8689978 125.3730014
  80.1289992 144.2789978 124.5600014  79.5829033 143.6673746 124.8502661
  87.4379992 136.1789978 135.0850014  88.1369992 136.2529978 135.7350014
  87.0569992 135.3139978 135.2390014  87.4822097 136.0722389 135.1947997
  88.2219992 135.8309978 126.1820014  88.4419992 136.3019978 125.3790014
  88.7809992 136.2249978 126.8520014  88.3276730 135.9487432 126.1625906
  85.4219992 137.5589978 127.0170014  86.2339992 138.0629978 127.0630014
  85.1779992 137.4139978 127.9310014  85.5001467 137.6083749 127.1468575
  85.9579992 138.5449978 136.2020014  86.0769992 139.1189978 136.9590014
  86.6129992 137.8569978 136.3160014  86.0629146 138.5305574 136.3211314
  86.3059992 134.6399978 127.9550014  85.9589992 135.2569978 128.6000014
  86.9649992 135.1409978 127.4740014  86.3475949 134.7921099 127.9782271
  81.9639992 135.7029978 124.6420014  81.8799992 136.5909978 124.9890014
  82.8539992 135.4379978 124.8740014  82.0728163 135.7887179 124.7208596
  92.1619992 136.4519978 137.0370014  91.2459992 136.7139978 136.9490014
  92.4979992 136.4489978 136.1400014  92.0819789 136.4874626 136.9037847
  90.7649992 140.2019978 131.1320014  89.9669992 139.7869978 130.8040014
  91.2099992 139.5119978 131.6230014  90.7159684 140.0518628 131.1535227
  78.5379992 138.7949978 122.8190014  78.4929992 139.7339978 122.9970014
  77.6499992 138.5589978 122.5490014  78.4118555 138.8916874 122.8068939
  79.3459992 133.5759978 131.4920014  79.1169992 133.6349978 130.5640014
  78.9039992 132.7849978 131.7980014  79.2548801 133.4770540 131.4064729
  77.4719992 143.9399978 139.9370014  77.6159992 143.0379978 139.6500014
  76.6999992 144.2259978 139.4490014  77.3873303 143.8553243 139.8317908
  81.8129992 144.2829978 122.0690014  81.8779992 143.4889978 122.6000014
  82.4659992 144.1649978 121.3790014  81.9101754 144.1583337 122.0484259
  84.1269992 143.9089978 139.3690014  83.7989992 144.1799978 138.5120014
  84.2789992 142.9679978 139.2820014  84.1026030 143.8188973 139.2397945
  87.1659992 145.3299978 121.8050014  86.8969992 145.5109978 122.7060014
  86.9589992 144.4049978 121.6740014  87.1012000 145.2296774 121.9105693
  89.8619992 143.8249978 136.7530014  90.6069992 144.4139978 136.6330014
  89.1049992 144.4069978 136.8160014  89.8615205 143.9841997 136.7451119
  78.3049992 141.1399978 139.3570014  78.7129992 140.2829978 139.2360014
  78.0439992 141.1539978 140.2780014  78.3256016 141.0245119 139.4649192
  82.9629992 142.2559978 124.3750014  82.5029992 141.7719978 125.0610014
  83.2179992 141.5869978 123.7390014  82.9345038 142.0993689 124.3829447
  82.2519992 140.1489978 136.7310014  81.6329992 140.8229978 137.0110014
  82.5959992 140.4699978 135.8980014  82.2137605 140.2847198 136.6566707
  84.0339992 140.4989978 122.6370014  83.8529992 140.3439978 121.7100014
  84.9839992 140.6069978 122.6820014  84.1376566 140.4923669 122.5160929
  87.2709992 142.6199978 140.0080014  88.2249992 142.7039978 139.9810014
  87.1109992 141.9079978 140.6280014  87.3797182 142.5352842 140.0880733
  93.4239992 142.8529978 122.0830014  93.1499992 142.4289978 121.2700014
  93.4629992 143.7849978 121.8660014  93.3917716 142.9208827 121.9424286
  82.5909992 137.5039978 137.8130014  82.7409992 136.7749978 137.2110014
  82.5929992 138.2809978 137.2540014  82.6117967 137.5092708 137.6550541
  83.0039992 135.8729978 135.3060014  83.5389992 136.3249978 134.6540014
  82.1509992 135.7649978 134.8830014  82.9620374 135.9202665 135.1596710
  84.5849992 141.3129978 135.5450014  85.3359992 141.1569978 134.9720014
  84.2459992 142.1649978 135.2700014  84.6419587 141.4068138 135.4294078
  89.0009992 139.1279978 140.5740014  89.1929992 138.1969978 140.4620014
  89.8589992 139.5529978 140.5640014  89.1432269 139.0579928 140.5573192
  90.3179992 141.9169978 138.6510014  90.0359992 142.6259978 138.0740014
  91.2599992 141.8439978 138.5000014  90.4067656 142.0043128 138.5514809
  81.0699992 138.7019978 139.7250014  80.3019992 138.1689978 139.5150014
  81.7479992 138.3919978 139.1250014  81.0566973 138.5872375 139.6151796
  83.8089992 133.3299978 135.7370014  83.7109992 134.2759978 135.6320014
  83.0669992 132.9569978 135.2620014  83.6951913 133.4091813 135.6583539
  85.0729992 137.6509978 139.3010014  84.8379992 137.4319978 140.2030014
  84.2899992 137.4439978 138.7910014  84.9349219 137.5930066 139.3555852
  87.7889992 136.7789978 138.3770014  86.8409992 136.8109978 138.5090014
  88.1009992 136.1529978 139.0300014  87.7015190 136.6987262 138.4833564
  89.4229992 135.4129978 140.3820014  89.3259992 134.4609978 140.3760014
  89.1009992 135.6809978 141.2420014  89.3661761 135.3189744 140.4974936
  79.2499992 136.6219978 139.4290014  79.4619992 135.9159978 138.8190014
  79.1389992 136.1849978 140.2730014  79.2640269 136.4661921 139.4595873
  84.0309992 132.6239978 138.4090014  84.7429992 131.9839978 138.3950014
  83.9299992 132.8899978 137.4950014  84.1147261 132.5724190 138.2835537
  84.3849992 134.3059978 140.4620014  84.2529992 133.8309978 139.6420014
  83.7849992 135.0509978 140.4070014  84.2859070 134.3415789 140.3423251
  92.5809992 145.4659978 140.5440014  91.7149992 145.3609978 140.9380014
  92.9569992 146.2239978 140.9900014  92.5133401 145.5541708 140.6582620
  93.8819992 143.7219978 126.0580014  94.7319992 144.1429978 126.1850014
  93.8869992 142.9819978 126.6650014  93.9991143 143.6796094 126.1574750
  94.2759992 141.7759978 127.8820014  93.5499992 141.2959978 128.2790014
  94.8579992 141.9809978 128.6140014  94.2551635 141.7379166 128.0353748
  94.0349992 144.5609978 132.8290014  94.8689992 144.1829978 132.5490014
  94.1469992 145.5039978 132.7100014  94.1642522 144.6367742 132.7746020
  94.5449992 141.6769978 124.2730014  94.0229992 142.0329978 123.5540014
  94.5119992 142.3519978 124.9510014  94.4690699 141.8169848 124.2662129
  92.8939992 138.9159978 122.8240014  92.9899992 139.5829978 122.1440014
  92.7539992 138.1009978 122.3420014  92.8882063 138.8970667 122.6658377
  92.0629992 140.2969978 128.4450014  91.9129992 139.3519978 128.4240014
  91.7089992 140.5779978 129.2880014  91.9945527 140.2055605 128.5561859
  77.0979992 142.3749978 132.4550014  77.2829992 142.2929978 131.5190014
  77.9479992 142.2509978 132.8790014  77.2380916 142.3470393 132.3842896
  92.9189992 142.2669978 138.0830014  93.5019992 141.5319978 138.2750014
  93.4829992 143.0389978 138.1300014  93.0749781 142.2708145 138.1156164
  94.4159992 140.1699978 138.7680014  93.5529992 139.7909978 138.6020014
  95.0199992 139.4309978 138.6940014  94.3795944 140.0182978 138.7352984
  92.1409992 136.3239978 121.9410014  92.7519992 135.9529978 122.5780014
  91.3039992 135.9029978 122.1370014  92.1114947 136.2162755 122.0547252
  91.7739992 137.8789978 126.9070014  92.0529992 136.9719978 127.0310014
  92.5329992 138.3129978 126.5180014  91.9148619 137.8134502 126.8713795
  92.3849992 138.4609978 132.3430014  93.3179992 138.6729978 132.3090014
  92.1499992 138.5619978 133.2650014  92.4808308 138.5036503 132.4630214
  92.4149992 139.1979978 135.1190014  91.5719992 139.4659978 135.4850014
  92.8569992 140.0199978 134.9080014  92.3594138 139.3458273 135.1405518
  76.6959992 137.6449978 138.5960014  77.6149992 137.5229978 138.8320014
  76.2459992 136.8949978 138.9850014  76.7611148 137.5268751 138.6809408
  94.6979992 133.1779978 140.4720014  95.0469992 132.5239978 139.8670014
  94.8449992 134.0149978 140.0330014  94.7657355 133.2016067 140.3296564
  92.3869992 135.1419978 126.9550014  92.5689992 134.6929978 127.7810014
  91.7869992 134.5579978 126.4920014  92.3307529 135.0016131 127.0053619
  77.9169992 135.9579978 131.4870014  78.3619992 135.1659978 131.7890014
  78.3829992 136.6739978 131.9180014  78.0409059 135.9464474 131.5866079
  76.2209992 138.9569978 132.5560014  76.7129992 138.7359978 131.7650014
  76.5829992 139.7969978 132.8370014  76.3372923 139.0403468 132.4857407
  94.2169992 135.2869978 138.8220014  93.2999992 135.5579978 138.7860014
  94.3399992 134.7519978 138.0380014  94.1080828 135.2517700 138.7110785
  94.2539992 135.2099978 123.4830014  94.6659992 134.4889978 123.0080014
  94.9349992 135.8789978 123.5420014  94.4025900 135.2017306 123.4259038
  76.5349992 135.2149978 126.6100014  75.6099992 135.4229978 126.4810014
  76.9889992 135.6989978 125.9210014  76.4696374 135.3089949 126.4990957
  76.4979992 133.9529978 134.9550014  75.8329992 133.7069978 135.5980014
  76.0549992 134.5749978 134.3770014  76.3470937 134.0033614 134.9649379
  93.2179992 133.3769978 136.6410014  92.4049992 133.7019978 136.2530014
  93.4509992 132.6159978 136.1080014  93.1382566 133.3186559 136.5159213
  86.6479992 134.8259978 130.9630014  85.9739992 134.1959978 131.2190014
  87.2119992 134.3419978 130.3600014  86.6320384 134.6743708 130.9165020
  91.7909992 132.9329978 131.0760014  92.3939992 133.4809978 130.5740014
  90.9209992 133.2519978 130.8360014  91.7559190 133.0511041 130.9748679
  93.5179992 134.0719978 129.4090014  94.1289992 133.5579978 128.8830014
  93.8999992 134.9489978 129.4330014  93.6534475 134.1201323 129.3401208
  78.9749992 133.4599978 128.7850014  78.1979992 133.2249978 128.2780014
  79.5049992 132.6629978 128.7940014  78.9403451 133.3201268 128.7168627
  77.8109992 133.2579978 124.5890014  78.2499992 133.8689978 123.9970014
  77.1769992 133.7959978 125.0630014  77.7853859 133.4144064 124.5720305
  83.5539992 133.3859978 128.5990014  84.4279992 133.7749978 128.5690014
  83.4179992 133.1709978 129.5210014  83.6553207 133.4101923 128.7196509
  89.1109992 133.4159978 130.2480014  89.1869992 133.5119978 129.2990014
  88.8359992 132.5089978 130.3770014  89.0842042 133.3064241 130.1353811
  90.4639992 133.4419978 125.9400014  89.7609992 134.0569978 125.7310014
  90.0189992 132.6049978 126.0720014  90.3076292 133.4130085 125.9292439
  79.6719992 135.1739978 123.0310014  80.1629992 134.5439978 122.5040014
  80.2949992 135.4699978 123.6950014  79.8235062 135.1276770 123.0485438
  84.6979992 135.4669978 125.4890014  84.8759992 134.8199978 126.1710014
  84.6439992 136.3009978 125.9560014  84.7151025 135.4910504 125.6456433
  78.9319992 133.9739978 138.3030014  78.5659992 133.2079978 138.7460014
  79.8449992 134.0029978 138.5900014  79.0053225 133.8731906 138.4023459
  80.9049992 133.3239978 139.8390014  81.8039992 133.0499978 139.6540014
  80.5189992 132.5819978 140.3030014  80.9757237 133.1861508 139.8764710
  89.3269992 132.6569978 140.0210014  89.4029992 132.2309978 140.8750014
  90.2199992 132.6699978 139.6780014  89.4582267 132.6003952 140.0915932
 106.9089992 142.6159978 128.7440014 106.9979992 143.5599978 128.6120014
 106.2709992 142.3409978 128.0860014 106.8349062 142.7079812 128.6369641
 105.8419992 141.8709978 132.1630014 105.8039992 141.2249978 132.8680014
 105.5199992 141.4039978 131.3920014 105.7932679 141.7194276 132.1552921
  98.2099992 141.4849978 133.7560014  98.2519992 140.8599978 134.4790014
  98.9129992 142.1089978 133.9380014  98.3107345 141.4837873 133.8795274
 109.5479992 144.8099978 130.4650014 109.1069992 144.0899978 130.9150014
 109.5349992 145.5309978 131.0940014 109.4857960 144.8088329 130.6117567
  95.7439992 139.5949978 127.6840014  95.2959992 140.4409978 127.6650014
  95.1829992 139.0159978 127.1680014  95.6069603 139.6323674 127.6116720
  96.4539992 141.7569978 129.8100014  96.6679992 140.9869978 130.3370014
  97.1919992 141.8469978 129.2060014  96.5829652 141.6638012 129.8005212
 104.2309992 144.3029978 132.5690014 104.5349992 143.6169978 131.9750014
 104.9529992 144.4219978 133.1870014 104.3701152 144.2252189 132.5712123
 112.8939992 135.9049978 133.4300014 112.9439992 136.5149978 134.1660014
 113.3199992 136.3659978 132.7070014 112.9584108 136.0507709 133.4330112
 107.3719992 138.6969978 132.8970014 107.5149992 137.7509978 132.9170014
 107.2659992 138.9039978 131.9680014 107.3772509 138.5954813 132.7742231
 100.5269992 136.7989978 130.1690014 100.5699992 137.6589978 129.7510014
 100.0689992 136.2469978 129.5350014 100.4709815 136.8420621 130.0261197
 108.2489992 136.9299978 128.5700014 108.8959992 136.6009978 129.1950014
 108.7589992 137.4469978 127.9470014 108.4064317 136.9549227 128.5712167
  97.1469992 139.1959978 130.9310014  97.8009992 138.6459978 131.3630014
  97.1709992 138.9219978 130.0140014  97.2397199 139.0837167 130.8661668
 102.3039992 140.7459978 130.1460014 102.9199992 140.2189978 130.6560014
 101.7169992 140.1059978 129.7430014 102.3089239 140.5874117 130.1612952
 113.2859992 137.3829978 135.6660014 112.5969992 138.0409978 135.5700014
 113.3009992 137.1849978 136.6020014 113.1936740 137.4463243 135.7794630
  99.3369992 135.7169978 134.2430014  99.1179992 136.2469978 133.4770014
  98.6689992 135.9429978 134.8900014  99.2167001 135.8201154 134.2256064
 106.7059992 145.2169978 127.7870014 106.4109992 144.8939978 126.9360014
 106.3819992 146.1169978 127.8280014 106.6217983 145.2944027 127.6759771
 101.9059992 143.3919978 134.5310014 101.1659992 143.9909978 134.6340014
 102.6199992 143.9459978 134.2150014 101.9013288 143.5487356 134.5023805
 110.0129992 136.2209978 130.5500014 109.7979992 135.4549978 131.0830014
 110.6689992 136.6929978 131.0630014 110.0722673 136.1800728 130.6921990
  98.9309992 137.6089978 132.1950014  99.5449992 138.2419978 132.5690014
  99.4429992 137.1369978 131.5390014  99.0842277 137.6317352 132.1574279
 100.3139992 145.3569978 135.3180014 100.3079992 146.2359978 134.9400014
  99.4599992 145.2729978 135.7430014 100.1977925 145.4659535 135.3236887
  96.4349992 145.0279978 126.1000014  96.1629992 145.2569978 125.2110014
  96.4799992 145.8649978 126.5600014  96.4038709 145.1726058 126.0406107
 110.3599992 134.9359978 134.2300014 109.6239992 135.5459978 134.1920014
 111.0439992 135.3509978 133.7030014 110.3515506 135.0756400 134.1536051
 103.3639992 133.0219978 131.6960014 103.2459992 132.0739978 131.6410014
 102.5089992 133.3549978 131.9690014 103.2322679 132.9371926 131.7253720
 111.1579992 144.8979978 136.4240014 111.2969992 144.3059978 135.6840014
 111.3249992 145.7709978 136.0670014 111.1995562 144.9349896 136.2746283
 105.6299992 141.8599978 126.1960014 104.9189992 142.3949978 125.8440014
 106.3209992 141.9149978 125.5360014 105.6260751 141.9406777 126.0585858
 105.6839992 140.3169978 123.2350014 106.3849992 140.3399978 123.8860014
 105.9859992 139.6889978 122.5790014 105.8208282 140.2352339 123.2354496
 112.9989992 141.2379978 134.4900014 112.3469992 141.9319978 134.5790014
 113.4649992 141.4479978 133.6800014 112.9725937 141.3615019 134.3927533
 109.0359992 142.0689978 127.1480014 108.3039992 142.2979978 127.7210014
 109.4829992 141.3559978 127.6030014 108.9962753 142.0038972 127.2879715
 108.9329992 140.2439978 136.2160014 109.0129992 141.0069978 136.7870014
 108.3319992 140.5229978 135.5250014 108.8627245 140.3862630 136.2008424
 100.6809992 142.6999978 129.0300014 100.3509992 142.3289978 128.2120014
 101.2699992 142.0289978 129.3770014 100.7153970 142.5586063 128.9649404
 101.0479992 141.4679978 132.6640014 101.6129992 141.5899978 131.9010014
 101.3669992 142.1059978 133.3030014 101.1683977 141.5708851 132.6459424
 107.9069992 141.2319978 124.8330014 108.4859992 141.3819978 125.5800014
 108.3209992 141.7019978 124.1100014 108.0423122 141.3161277 124.8375042
  98.8479992 142.0659978 136.6100014  98.9179992 142.7169978 137.3080014
  97.9569992 142.1689978 136.2750014  98.7371802 142.1689757 136.6602249
 111.6059992 132.9819978 124.6460014 110.7059992 133.1209978 124.9410014
 111.8579992 133.8129978 124.2440014 111.5168683 133.1134055 124.6320232
  99.6719992 141.7689978 126.6200014  99.3799992 142.5369978 126.1290014
  98.9969992 141.1099978 126.4570014  99.5408497 141.7849745 126.5308260
  95.7649992 144.1319978 135.4350014  95.2629992 144.1039978 134.6200014
  95.7699992 143.2269978 135.7440014  95.6970416 144.0057368 135.3653766
 110.8649992 139.0719978 138.4810014 110.4569992 139.5519978 137.7610014
 110.9049992 138.1659978 138.1730014 110.8145476 139.0153160 138.3408247
  98.0139992 145.4559978 136.4780014  98.2299992 145.0939978 137.3370014
  97.1579992 145.0809978 136.2680014  97.9279354 145.3557906 136.5672160
 100.6319992 133.9259978 132.4730014  99.7709992 133.8389978 132.0660014
 100.6099992 134.7819978 132.9010014 100.5110411 134.0297884 132.4750857
 105.2949992 133.6479978 135.8480014 105.7149992 133.2329978 136.6010014
 104.3619992 133.4689978 135.9650014 105.2263736 133.5669910 135.9668968
 108.6219992 137.4029978 136.7010014 108.1079992 137.2779978 137.4990014
 108.4659992 138.3159978 136.4570014 108.5306967 137.5092123 136.7770937
 109.3839992 142.2639978 122.4630014 109.4259992 142.0419978 121.5330014
 110.2329992 142.6629978 122.6530014 109.5045253 142.2875498 122.3613822
 104.9569992 136.1399978 123.1330014 104.7029992 136.1589978 124.0560014
 104.6999992 135.2689978 122.8320014 104.8875133 136.0248110 123.2185082
 100.7229992 138.8909978 133.5680014 100.0819992 138.8509978 134.2770014
 100.7609992 139.8179978 133.3310014 100.6403670 139.0107795 133.6330550
 100.7199992 139.1119978 128.4800014  99.8279992 138.7719978 128.4220014
 101.1709992 138.7349978 127.7250014 100.6586815 139.0143762 128.3699203
 106.2559992 139.5279978 127.2970014 105.8469992 140.3429978 127.0060014
 106.9759992 139.3879978 126.6830014 106.2974013 139.6206571 127.1740875
 105.3579992 139.7039978 138.7850014 104.7949992 138.9989978 139.1060014
 106.1839992 139.5829978 139.2530014 105.3926674 139.5912165 138.8921751
 107.2609992 138.9739978 130.1110014 107.0649992 139.5799978 129.3960014
 107.4419992 138.1409978 129.6770014 107.2586584 138.9442513 129.9544212
  98.4729992 139.2119978 135.4350014  98.4349992 139.6119978 136.3040014
  97.9829992 138.3949978 135.5260014  98.4015621 139.1562510 135.5661377
 101.8389992 136.5859978 122.2340014 101.4079992 136.1409978 122.9640014
 101.1209992 136.9569978 121.7220014 101.6829363 136.5752968 122.2646211
  95.0819992 136.3279978 129.2860014  95.7119992 136.2989978 130.0050014
  95.5309992 135.9029978 128.5560014  95.2290692 136.2665316 129.2857771
  96.3559992 137.0739978 124.7100014  96.8299992 137.6649978 124.1250014
  95.6379992 137.6039978 125.0570014  96.3238640 137.2265511 124.6767969
 106.5249992 140.6119978 134.7830014 106.8479992 139.9809978 134.1400014
 106.0839992 140.0779978 135.4430014 106.5095789 140.4533522 134.7842232
 103.3019992 136.5399978 129.5670014 102.3909992 136.5969978 129.8550014
 103.8069992 136.4799978 130.3770014 103.2455387 136.5396870 129.7160646
  98.1299992 138.1689978 128.3930014  97.2409992 138.2679978 128.0530014
  98.4269992 137.3269978 128.0470014  98.0484177 138.0687687 128.2996940
 101.7829992 138.1689978 126.0500014 102.7149992 138.2979978 126.2280014
 101.5679992 138.8379978 125.4000014 101.8814472 138.2770806 125.9864891
 107.7069992 135.7749978 132.8310014 107.0299992 135.9059978 133.4950014
 107.2219992 135.6199978 132.0210014 107.5487265 135.7719659 132.8123397
 100.4569992 139.3629978 123.6170014  99.9149992 138.9839978 122.9250014
 101.2909992 139.5579978 123.1880014 100.4955159 139.3375076 123.4644419
  98.5929992 143.9199978 138.7160014  99.3249992 144.1749978 139.2770014
  97.8119992 144.1249978 139.2310014  98.5877684 143.9826468 138.8624782
 104.6219992 139.3269978 131.4540014 105.1859992 138.7809978 130.9070014
 104.4739992 138.8059978 132.2420014 104.6792575 139.1816552 131.4856987
  99.6239992 135.4639978 127.8720014  99.3069992 134.5609978 127.8370014
 100.4049992 135.4659978 127.3190014  99.6862307 135.3406951 127.7924314
 103.2479992 137.7159978 133.8680014 102.4129992 138.1699978 133.9780014
 103.7719992 137.9919978 134.6200014 103.2045070 137.8154666 133.9847152
 103.7929992 143.9289978 125.5520014 103.0479992 143.4209978 125.2300014
 103.6579992 143.9779978 126.4990014 103.6729047 143.8661596 125.6358845
 110.9429992 143.0619978 134.3390014 111.5839992 143.5179978 133.7950014
 110.1119992 143.1749978 133.8770014 110.9185171 143.1397502 134.2020237
 107.6899992 136.7429978 123.7520014 106.7519992 136.8539978 123.6000014
 107.9879992 137.5989978 124.0580014 107.6016402 136.8740621 123.7725571
 105.3119992 144.1129978 136.7890014 104.9659992 143.7309978 137.5960014
 105.1119992 145.0459978 136.8610014 105.2376523 144.1869095 136.9090735
 108.4089992 138.6099978 125.4120014 109.3009992 138.4719978 125.7310014
 108.4649992 139.4009978 124.8760014 108.5387107 138.6980526 125.3832091
  98.9169992 143.2239978 131.3220014  99.6619992 143.2209978 130.7210014
  98.9949992 142.3999978 131.8040014  99.0294158 143.1122916 131.3049153
 105.9179992 145.3869978 124.5780014 105.6229992 146.2139978 124.9590014
 105.2149992 144.7679978 124.7740014 105.7825471 145.4165227 124.6566698
  95.9249992 141.6839978 136.6370014  96.1479992 141.2659978 137.4690014
  95.3229992 141.0719978 136.2140014  95.8741260 141.5439933 136.6937320
 102.9419992 141.2009978 138.8500014 102.6459992 141.0359978 137.9550014
 103.8729992 140.9809978 138.8390014 103.0273982 141.1486578 138.7260045
 113.2939992 138.8189978 125.1070014 112.7389992 138.4229978 124.4350014
 113.3939992 139.7299978 124.8290014 113.2315888 138.8878990 124.9775206
 113.2569992 144.6199978 137.9440014 112.4059992 144.8579978 137.5770014
 113.8469992 144.6029978 137.1910014 113.2202408 144.6502966 137.7918879
 108.7489992 142.4129978 132.5930014 107.8209992 142.1819978 132.5660014
 109.1999992 141.6359978 132.2630014 108.6828165 142.2762774 132.5446790
  97.0469992 141.6039978 123.3140014  97.6629992 142.2309978 123.6930014
  96.1849992 141.9199978 123.5850014  97.0148195 141.7325798 123.4025386
 102.7199992 144.4049978 128.3030014 102.4789992 145.3299978 128.3440014
 101.9789992 143.9459978 128.6990014 102.5868390 144.4696403 128.3621404
 106.7779992 144.6529978 134.3180014 106.3529992 144.4249978 135.1450014
 107.3589992 143.9139978 134.1360014 106.7983930 144.5219843 134.4064732
  97.5589992 136.4379978 136.1950014  96.6669992 136.7759978 136.1280014
  97.4609992 135.5819978 136.6130014  97.4234965 136.3686499 136.2423044
 109.8469992 144.2539978 125.6190014 109.5699992 143.5259978 126.1750014
 110.7749992 144.3729978 125.8240014 109.9344499 144.1704213 125.7228044
  98.4619992 143.5159978 124.8060014  97.7759992 143.8689978 125.3730014
  98.9849992 144.2789978 124.5600014  98.4389033 143.6673746 124.8502661
 106.2939992 136.1789978 135.0850014 106.9929992 136.2529978 135.7350014
 105.9129992 135.3139978 135.2390014 106.3382097 136.0722389 135.1947997
 107.0779992 135.8309978 126.1820014 107.2979992 136.3019978 125.3790014
 107.6369992 136.2249978 126.8520014 107.1836730 135.9487432 126.1625906
 104.2779992 137.5589978 127.0170014 105.0899992 138.0629978 127.0630014
 104.0339992 137.4139978 127.9310014 104.3561467 137.6083749 127.1468575
 104.8139992 138.5449978 136.2020014 104.9329992 139.1189978 136.9590014
 105.4689992 137.8569978 136.3160014 104.9189146 138.5305574 136.3211313
 105.1619992 134.6399978 127.9550014 104.8149992 135.2569978 128.6000014
 105.8209992 135.1409978 127.4740014 105.2035950 134.7921099 127.9782271
 100.8199992 135.7029978 124.6420014 100.7359992 136.5909978 124.9890014
 101.7099992 135.4379978 124.8740014 100.9288163 135.7887179 124.7208596
 111.0179992 136.4519978 137.0370014 110.1019992 136.7139978 136.9490014
 111.3539992 136.4489978 136.1400014 110.9379789 136.4874626 136.9037847
 109.6209992 140.2019978 131.1320014 108.8229992 139.7869978 130.8040014
 110.0659992 139.5119978 131.6230014 109.5719684 140.0518628 131.1535227
  97.3939992 138.7949978 122.8190014  97.3489992 139.7339978 122.9970014
  96.5059992 138.5589978 122.5490014  97.2678555 138.8916874 122.8068939
  98.2019992 133.5759978 131.4920014  97.9729992 133.6349978 130.5640014
  97.7599992 132.7849978 131.7980014  98.1108801 133.4770540 131.4064729
  96.3279992 143.9399978 139.9370014  96.4719992 143.0379978 139.6500014
  95.5559992 144.2259978 139.4490014  96.2433303 143.8553243 139.8317908
 100.6689992 144.2829978 122.0690014 100.7339992 143.4889978 122.6000014
 101.3219992 144.1649978 121.3790014 100.7661754 144.1583337 122.0484259
 102.9829992 143.9089978 139.3690014 102.6549992 144.1799978 138.5120014
 103.1349992 142.9679978 139.2820014 102.9586030 143.8188973 139.2397945
 106.0219992 145.3299978 121.8050014 105.7529992 145.5109978 122.7060014
 105.8149992 144.4049978 121.6740014 105.9572000 145.2296774 121.9105693
 108.7179992 143.8249978 136.7530014 109.4629992 144.4139978 136.6330014
 107.9609992 144.4069978 136.8160014 108.7175205 143.9841997 136.7451119
  97.1609992 141.1399978 139.3570014  97.5689992 140.2829978 139.2360014
  96.8999992 141.1539978 140.2780014  97.1816016 141.0245119 139.4649192
 101.8189992 142.2559978 124.3750014 101.3589992 141.7719978 125.0610014
 102.0739992 141.5869978 123.7390014 101.7905038 142.0993689 124.3829447
 101.1079992 140.1489978 136.7310014 100.4889992 140.8229978 137.0110014
 101.4519992 140.4699978 135.8980014 101.0697605 140.2847198 136.6566707
 102.8899992 140.4989978 122.6370014 102.7089992 140.3439978 121.7100014
 103.8399992 140.6069978 122.6820014 102.9936566 140.4923669 122.5160929
 106.1269992 142.6199978 140.0080014 107.0809992 142.7039978 139.9810014
 105.9669992 141.9079978 140.6280014 106.2357182 142.5352842 140.0880733
 112.2799992 142.8529978 122.0830014 112.0059992 142.4289978 121.2700014
 112.3189992 143.7849978 121.8660014 112.2477716 142.9208827 121.9424286
 101.4469992 137.5039978 137.8130014 101.5969992 136.7749978 137.2110014
 101.4489992 138.2809978 137.2540014 101.4677967 137.5092708 137.6550541
 101.8599992 135.8729978 135.3060014 102.3949992 136.3249978 134.6540014
 101.0069992 135.7649978 134.8830014 101.8180374 135.9202665 135.1596710
 103.4409992 141.3129978 135.5450014 104.1919992 141.1569978 134.9720014
 103.1019992 142.1649978 135.2700014 103.4979587 141.4068138 135.4294078
 107.8569992 139.1279978 140.5740014 108.0489992 138.1969978 140.4620014
 108.7149992 139.5529978 140.5640014 107.9992269 139.0579928 140.5573192
 109.1739992 141.9169978 138.6510014 108.8919992 142.6259978 138.0740014
 110.1159992 141.8439978 138.5000014 109.2627656 142.0043128 138.5514809
  99.9259992 138.7019978 139.7250014  99.1579992 138.1689978 139.5150014
 100.6039992 138.3919978 139.1250014  99.9126973 138.5872375 139.6151796
 102.6649992 133.3299978 135.7370014 102.5669992 134.2759978 135.6320014
 101.9229992 132.9569978 135.2620014 102.5511913 133.4091813 135.6583539
 103.9289992 137.6509978 139.3010014 103.6939992 137.4319978 140.2030014
 103.1459992 137.4439978 138.7910014 103.7909219 137.5930066 139.3555852
 106.6449992 136.7789978 138.3770014 105.6969992 136.8109978 138.5090014
 106.9569992 136.1529978 139.0300014 106.5575190 136.6987262 138.4833564
 108.2789992 135.4129978 140.3820014 108.1819992 134.4609978 140.3760014
 107.9569992 135.6809978 141.2420014 108.2221761 135.3189744 140.4974936
  98.1059992 136.6219978 139.4290014  98.3179992 135.9159978 138.8190014
  97.9949992 136.1849978 140.2730014  98.1200269 136.4661921 139.4595873
 102.8869992 132.6239978 138.4090014 103.5989992 131.9839978 138.3950014
 102.7859992 132.8899978 137.4950014 102.9707261 132.5724190 138.2835537
 103.2409992 134.3059978 140.4620014 103.1089992 133.8309978 139.6420014
 102.6409992 135.0509978 140.4070014 103.1419070 134.3415789 140.3423251
 111.4369992 145.4659978 140.5440014 110.5709992 145.3609978 140.9380014
 111.8129992 146.2239978 140.9900014 111.3693401 145.5541708 140.6582620
 112.7379992 143.7219978 126.0580014 113.5879992 144.1429978 126.1850014
 112.7429992 142.9819978 126.6650014 112.8551143 143.6796094 126.1574750
 113.1319992 141.7759978 127.8820014 112.4059992 141.2959978 128.2790014
 113.7139992 141.9809978 128.6140014 113.1111635 141.7379166 128.0353748
 112.8909992 144.5609978 132.8290014 113.7249992 144.1829978 132.5490014
 113.0029992 145.5039978 132.7100014 113.0202522 144.6367742 132.7746020
 113.4009992 141.6769978 124.2730014 112.8789992 142.0329978 123.5540014
 113.3679992 142.3519978 124.9510014 113.3250699 141.8169848 124.2662129
 111.7499992 138.9159978 122.8240014 111.8459992 139.5829978 122.1440014
 111.6099992 138.1009978 122.3420014 111.7442063 138.8970667 122.6658377
 110.9189992 140.2969978 128.4450014 110.7689992 139.3519978 128.4240014
 110.5649992 140.5779978 129.2880014 110.8505527 140.2055605 128.5561859
  95.9539992 142.3749978 132.4550014  96.1389992 142.2929978 131.5190014
  96.8039992 142.2509978 132.8790014  96.0940916 142.3470393 132.3842896
 111.7749992 142.2669978 138.0830014 112.3579992 141.5319978 138.2750014
 112.3389992 143.0389978 138.1300014 111.9309781 142.2708145 138.1156164
 113.2719992 140.1699978 138.7680014 112.4089992 139.7909978 138.6020014
 113.8759992 139.4309978 138.6940014 113.2355944 140.0182978 138.7352984
 110.9969992 136.3239978 121.9410014 111.6079992 135.9529978 122.5780014
 110.1599992 135.9029978 122.1370014 110.9674947 136.2162756 122.0547252
 110.6299992 137.8789978 126.9070014 110.9089992 136.9719978 127.0310014
 111.3889992 138.3129978 126.5180014 110.7708619 137.8134502 126.8713795
 111.2409992 138.4609978 132.3430014 112.1739992 138.6729978 132.3090014
 111.0059992 138.5619978 133.2650014 111.3368308 138.5036503 132.4630214
 111.2709992 139.1979978 135.1190014 110.4279992 139.4659978 135.4850014
 111.7129992 140.0199978 134.9080014 111.2154138 139.3458273 135.1405518
  95.5519992 137.6449978 138.5960014  96.4709992 137.5229978 138.8320014
  95.1019992 136.8949978 138.9850014  95.6171148 137.5268751 138.6809408
 113.5539992 133.1779978 140.4720014 113.9029992 132.5239978 139.8670014
 113.7009992 134.0149978 140.0330014 113.6217355 133.2016067 140.3296564
 111.2429992 135.1419978 126.9550014 111.4249992 134.6929978 127.7810014
 110.6429992 134.5579978 126.4920014 111.1867529 135.0016131 127.0053619
  96.7729992 135.9579978 131.4870014  97.2179992 135.1659978 131.7890014
  97.2389992 136.6739978 131.9180014  96.8969059 135.9464474 131.5866079
  95.0769992 138.9569978 132.5560014  95.5689992 138.7359978 131.7650014
  95.4389992 139.7969978 132.8370014  95.1932923 139.0403468 132.4857407
 113.0729992 135.2869978 138.8220014 112.1559992 135.5579978 138.7860014
 113.1959992 134.7519978 138.0380014 112.9640828 135.2517700 138.7110785
 113.1099992 135.2099978 123.4830014 113.5219992 134.4889978 123.0080014
 113.7909992 135.8789978 123.5420014 113.2585900 135.2017306 123.4259038
  95.3909992 135.2149978 126.6100014  94.4659992 135.4229978 126.4810014
  95.8449992 135.6989978 125.9210014  95.3256374 135.3089949 126.4990957
  95.3539992 133.9529978 134.9550014  94.6889992 133.7069978 135.5980014
  94.9109992 134.5749978 134.3770014  95.2030937 134.0033614 134.9649379
 112.0739992 133.3769978 136.6410014 111.2609992 133.7019978 136.2530014
 112.3069992 132.6159978 136.1080014 111.9942566 133.3186559 136.5159213
 105.5039992 134.8259978 130.9630014 104.8299992 134.1959978 131.2190014
 106.0679992 134.3419978 130.3600014 105.4880384 134.6743708 130.9165020
 110.6469992 132.9329978 131.0760014 111.2499992 133.4809978 130.5740014
 109.7769992 133.2519978 130.8360014 110.6119190 133.0511041 130.9748679
 112.3739992 134.0719978 129.4090014 112.9849992 133.5579978 128.8830014
 112.7559992 134.9489978 129.4330014 112.5094475 134.1201323 129.3401208
  97.8309992 133.4599978 128.7850014  97.0539992 133.2249978 128.2780014
  98.3609992 132.6629978 128.7940014  97.7963451 133.3201268 128.7168627
  96.6669992 133.2579978 124.5890014  97.1059992 133.8689978 123.9970014
  96.0329992 133.7959978 125.0630014  96.6413859 133.4144064 124.5720305
 102.4099992 133.3859978 128.5990014 103.2839992 133.7749978 128.5690014
 102.2739992 133.1709978 129.5210014 102.5113207 133.4101923 128.7196509
 107.9669992 133.4159978 130.2480014 108.0429992 133.5119978 129.2990014
 107.6919992 132.5089978 130.3770014 107.9402042 133.3064241 130.1353811
 109.3199992 133.4419978 125.9400014 108.6169992 134.0569978 125.7310014
 108.8749992 132.6049978 126.0720014 109.1636292 133.4130085 125.9292439
  98.5279992 135.1739978 123.0310014  99.0189992 134.5439978 122.5040014
  99.1509992 135.4699978 123.6950014  98.6795062 135.1276770 123.0485438
 103.5539992 135.4669978 125.4890014 103.7319992 134.8199978 126.1710014
 103.4999992 136.3009978 125.9560014 103.5711025 135.4910504 125.6456433
  97.7879992 133.9739978 138.3030014  97.4219992 133.2079978 138.7460014
  98.7009992 134.0029978 138.5900014  97.8613225 133.8731906 138.4023459
  99.7609992 133.3239978 139.8390014 100.6599992 133.0499978 139.6540014
  99.3749992 132.5819978 140.3030014  99.8317237 133.1861508 139.8764710
 108.1829992 132.6569978 140.0210014 108.2589992 132.2309978 140.8750014
 109.0759992 132.6699978 139.6780014 108.3142267 132.6003952 140.0915932
 125.7649992 142.6159978 128.7440014 125.8539992 143.5599978 128.6120014
 125.1269992 142.3409978 128.0860014 125.6909062 142.7079812 128.6369641
 124.6979992 141.8709978 132.1630014 124.6599992 141.2249978 132.8680014
 124.3759992 141.4039978 131.3920014 124.6492679 141.7194276 132.1552921
 117.0659992 141.4849978 133.7560014 117.1079992 140.8599978 134.4790014
 117.7689992 142.1089978 133.9380014 117.1667345 141.4837873 133.8795274
 128.4039992 144.8099978 130.4650014 127.9629992 144.0899978 130.9150014
 128.3909992 145.5309978 131.0940014 128.3417960 144.8088329 130.6117567
 114.5999992 139.5949978 127.6840014 114.1519992 140.4409978 127.6650014
 114.0389992 139.0159978 127.1680014 114.4629603 139.6323674 127.6116720
 115.3099992 141.7569978 129.8100014 115.5239992 140.9869978 130.3370014
 116.0479992 141.8469978 129.2060014 115.4389652 141.6638012 129.8005212
 123.0869992 144.3029978 132.5690014 123.3909992 143.6169978 131.9750014
 123.8089992 144.4219978 133.1870014 123.2261152 144.2252189 132.5712123
 131.7499992 135.9049978 133.4300014 131.7999992 136.5149978 134.1660014
 132.1759992 136.3659978 132.7070014 131.8144108 136.0507709 133.4330112
 126.2279992 138.6969978 132.8970014 126.3709992 137.7509978 132.9170014
 126.1219992 138.9039978 131.9680014 126.2332509 138.5954813 132.7742231
 119.3829992 136.7989978 130.1690014 119.4259992 137.6589978 129.7510014
 118.9249992 136.2469978 129.5350014 119.3269815 136.8420621 130.0261197
 127.1049992 136.9299978 128.5700014 127.7519992 136.6009978 129.1950014
 127.6149992 137.4469978 127.9470014 127.2624317 136.9549227 128.5712167
 116.0029992 139.1959978 130.9310014 116.6569992 138.6459978 131.3630014
 116.0269992 138.9219978 130.0140014 116.0957199 139.0837167 130.8661668
 121.1599992 140.7459978 130.1460014 121.7759992 140.2189978 130.6560014
 120.5729992 140.1059978 129.7430014 121.1649239 140.5874117 130.1612952
 132.1419992 137.3829978 135.6660014 131.4529992 138.0409978 135.5700014
 132.1569992 137.1849978 136.6020014 132.0496740 137.4463243 135.7794630
 118.1929992 135.7169978 134.2430014 117.9739992 136.2469978 133.4770014
 117.5249992 135.9429978 134.8900014 118.0727001 135.8201154 134.2256064
 125.5619992 145.2169978 127.7870014 125.2669992 144.8939978 126.9360014
 125.2379992 146.1169978 127.8280014 125.4777983 145.2944027 127.6759771
 120.7619992 143.3919978 134.5310014 120.0219992 143.9909978 134.6340014
 121.4759992 143.9459978 134.2150014 120.7573288 143.5487356 134.5023805
 128.8689992 136.2209978 130.5500014 128.6539992 135.4549978 131.0830014
 129.5249992 136.6929978 131.0630014 128.9282673 136.1800728 130.6921990
 117.7869992 137.6089978 132.1950014 118.4009992 138.2419978 132.5690014
 118.2989992 137.1369978 131.5390014 117.9402277 137.6317352 132.1574279
 119.1699992 145.3569978 135.3180014 119.1639992 146.2359978 134.9400014
 118.3159992 145.2729978 135.7430014 119.0537925 145.4659535 135.3236887
 115.2909992 145.0279978 126.1000014 115.0189992 145.2569978 125.2110014
 115.3359992 145.8649978 126.5600014 115.2598709 145.1726058 126.0406107
 129.2159992 134.9359978 134.2300014 128.4799992 135.5459978 134.1920014
 129.8999992 135.3509978 133.7030014 129.2075506 135.0756400 134.1536051
 122.2199992 133.0219978 131.6960014 122.1019992 132.0739978 131.6410014
 121.3649992 133.3549978 131.9690014 122.0882679 132.9371926 131.7253720
 130.0139992 144.8979978 136.4240014 130.1529992 144.3059978 135.6840014
 130.1809992 145.7709978 136.0670014 130.0555562 144.9349896 136.2746283
 124.4859992 141.8599978 126.1960014 123.7749992 142.3949978 125.8440014
 125.1769992 141.9149978 125.5360014 124.4820751 141.9406777 126.0585858
 124.5399992 140.3169978 123.2350014 125.2409992 140.3399978 123.8860014
 124.8419992 139.6889978 122.5790014 124.6768282 140.2352339 123.2354496
 131.8549992 141.2379978 134.4900014 131.2029992 141.9319978 134.5790014
 132.3209992 141.4479978 133.6800014 131.8285937 141.3615019 134.3927533
 127.8919992 142.0689978 127.1480014 127.1599992 142.2979978 127.7210014
 128.3389992 141.3559978 127.6030014 127.8522753 142.0038972 127.2879715
 127.7889992 140.2439978 136.2160014 127.8689992 141.0069978 136.7870014
 127.1879992 140.5229978 135.5250014 127.7187245 140.3862630 136.2008424
 119.5369992 142.6999978 129.0300014 119.2069992 142.3289978 128.2120014
 120.1259992 142.0289978 129.3770014 119.5713970 142.5586063 128.9649404
 119.9039992 141.4679978 132.6640014 120.4689992 141.5899978 131.9010014
 120.2229992 142.1059978 133.3030014 120.0243977 141.5708851 132.6459424
 126.7629992 141.2319978 124.8330014 127.3419992 141.3819978 125.5800014
 127.1769992 141.7019978 124.1100014 126.8983122 141.3161277 124.8375042
 117.7039992 142.0659978 136.6100014 117.7739992 142.7169978 137.3080014
 116.8129992 142.1689978 136.2750014 117.5931802 142.1689757 136.6602249
 130.4619992 132.9819978 124.6460014 129.5619992 133.1209978 124.9410014
 130.7139992 133.8129978 124.2440014 130.3728683 133.1134055 124.6320232
 118.5279992 141.7689978 126.6200014 118.2359992 142.5369978 126.1290014
 117.8529992 141.1099978 126.4570014 118.3968497 141.7849745 126.5308260
 114.6209992 144.1319978 135.4350014 114.1189992 144.1039978 134.6200014
 114.6259992 143.2269978 135.7440014 114.5530416 144.0057368 135.3653766
 129.7209992 139.0719978 138.4810014 129.3129992 139.5519978 137.7610014
 129.7609992 138.1659978 138.1730014 129.6705476 139.0153160 138.3408247
 116.8699992 145.4559978 136.4780014 117.0859992 145.0939978 137.3370014
 116.0139992 145.0809978 136.2680014 116.7839354 145.3557906 136.5672160
 119.4879992 133.9259978 132.4730014 118.6269992 133.8389978 132.0660014
 119.4659992 134.7819978 132.9010014 119.3670411 134.0297884 132.4750857
 124.1509992 133.6479978 135.8480014 124.5709992 133.2329978 136.6010014
 123.2179992 133.4689978 135.9650014 124.0823736 133.5669910 135.9668968
 127.4779992 137.4029978 136.7010014 126.9639992 137.2779978 137.4990014
 127.3219992 138.3159978 136.4570014 127.3866967 137.5092123 136.7770937
 128.2399992 142.2639978 122.4630014 128.2819992 142.0419978 121.5330014
 129.0889992 142.6629978 122.6530014 128.3605253 142.2875498 122.3613822
 123.8129992 136.1399978 123.1330014 123.5589992 136.1589978 124.0560014
 123.5559992 135.2689978 122.8320014 123.7435133 136.0248110 123.2185082
 119.5789992 138.8909978 133.5680014 118.9379992 138.8509978 134.2770014
 119.6169992 139.8179978 133.3310014 119.4963670 139.0107795 133.6330550
 119.5759992 139.1119978 128.4800014 118.6839992 138.7719978 128.4220014
 120.0269992 138.7349978 127.7250014 119.5146815 139.0143762 128.3699203
 125.1119992 139.5279978 127.2970014 124.7029992 140.3429978 127.0060014
 125.8319992 139.3879978 126.6830014 125.1534013 139.6206571 127.1740875
 124.2139992 139.7039978 138.7850014 123.6509992 138.9989978 139.1060014
 125.0399992 139.5829978 139.2530014 124.2486674 139.5912165 138.8921751
 126.1169992 138.9739978 130.1110014 125.9209992 139.5799978 129.3960014
 126.2979992 138.1409978 129.6770014 126.1146584 138.9442513 129.9544212
 117.3289992 139.2119978 135.4350014 117.2909992 139.6119978 136.3040014
 116.8389992 138.3949978 135.5260014 117.2575621 139.1562510 135.5661377
 120.6949992 136.5859978 122.2340014 120.2639992 136.1409978 122.9640014
 119.9769992 136.9569978 121.7220014 120.5389363 136.5752968 122.2646211
 113.9379992 136.3279978 129.2860014 114.5679992 136.2989978 130.0050014
 114.3869992 135.9029978 128.5560014 114.0850692 136.2665316 129.2857771
 115.2119992 137.0739978 124.7100014 115.6859992 137.6649978 124.1250014
 114.4939992 137.6039978 125.0570014 115.1798640 137.2265511 124.6767969
 125.3809992 140.6119978 134.7830014 125.7039992 139.9809978 134.1400014
 124.9399992 140.0779978 135.4430014 125.3655789 140.4533522 134.7842232
 122.1579992 136.5399978 129.5670014 121.2469992 136.5969978 129.8550014
 122.6629992 136.4799978 130.3770014 122.1015387 136.5396870 129.7160646
 116.9859992 138.1689978 128.3930014 116.0969992 138.2679978 128.0530014
 117.2829992 137.3269978 128.0470014 116.9044177 138.0687687 128.2996940
 120.6389992 138.1689978 126.0500014 121.5709992 138.2979978 126.2280014
 120.4239992 138.8379978 125.4000014 120.7374472 138.2770806 125.9864891
 126.5629992 135.7749978 132.8310014 125.8859992 135.9059978 133.4950014
 126.0779992 135.6199978 132.0210014 126.4047265 135.7719659 132.8123397
 119.3129992 139.3629978 123.6170014 118.7709992 138.9839978 122.9250014
 120.1469992 139.5579978 123.1880014 119.3515159 139.3375076 123.4644419
 117.4489992 143.9199978 138.7160014 118.1809992 144.1749978 139.2770014
 116.6679992 144.1249978 139.2310014 117.4437684 143.9826468 138.8624782
 123.4779992 139.3269978 131.4540014 124.0419992 138.7809978 130.9070014
 123.3299992 138.8059978 132.2420014 123.5352575 139.1816552 131.4856987
 118.4799992 135.4639978 127.8720014 118.1629992 134.5609978 127.8370014
 119.2609992 135.4659978 127.3190014 118.5422307 135.3406951 127.7924314
 122.1039992 137.7159978 133.8680014 121.2689992 138.1699978 133.9780014
 122.6279992 137.9919978 134.6200014 122.0605070 137.8154666 133.9847152
 122.6489992 143.9289978 125.5520014 121.9039992 143.4209978 125.2300014
 122.5139992 143.9779978 126.4990014 122.5289047 143.8661596 125.6358845
 129.7989992 143.0619978 134.3390014 130.4399992 143.5179978 133.7950014
 128.9679992 143.1749978 133.8770014 129.7745171 143.1397502 134.2020237
 126.5459992 136.7429978 123.7520014 125.6079992 136.8539978 123.6000014
 126.8439992 137.5989978 124.0580014 126.4576402 136.8740621 123.7725571
 124.1679992 144.1129978 136.7890014 123.8219992 143.7309978 137.5960014
 123.9679992 145.0459978 136.8610014 124.0936523 144.1869095 136.9090735
 127.2649992 138.6099978 125.4120014 128.1569992 138.4719978 125.7310014
 127.3209992 139.4009978 124.8760014 127.3947107 138.6980526 125.3832091
 117.7729992 143.2239978 131.3220014 118.5179992 143.2209978 130.7210014
 117.8509992 142.3999978 131.8040014 117.8854158 143.1122916 131.3049153
 124.7739992 145.3869978 124.5780014 124.4789992 146.2139978 124.9590014
 124.0709992 144.7679978 124.7740014 124.6385471 145.4165227 124.6566698
 114.7809992 141.6839978 136.6370014 115.0039992 141.2659978 137.4690014
 114.1789992 141.0719978 136.2140014 114.7301260 141.5439933 136.6937320
 121.7979992 141.2009978 138.8500014 121.5019992 141.0359978 137.9550014
 122.7289992 140.9809978 138.8390014 121.8833982 141.1486578 138.7260045
 132.1499992 138.8189978 125.1070014 131.5949992 138.4229978 124.4350014
 132.2499992 139.7299978 124.8290014 132.0875888 138.8878990 124.9775206
 132.1129992 144.6199978 137.9440014 131.2619992 144.8579978 137.5770014
 132.7029992 144.6029978 137.1910014 132.0762408 144.6502966 137.7918879
 127.6049992 142.4129978 132.5930014 126.6769992 142.1819978 132.5660014
 128.0559992 141.6359978 132.2630014 127.5388165 142.2762774 132.5446790
 115.9029992 141.6039978 123.3140014 116.5189992 142.2309978 123.6930014
 115.0409992 141.9199978 123.5850014 115.8708195 141.7325798 123.4025386
 121.5759992 144.4049978 128.3030014 121.3349992 145.3299978 128.3440014
 120.8349992 143.9459978 128.6990014 121.4428390 144.4696403 128.3621404
 125.6339992 144.6529978 134.3180014 125.2089992 144.4249978 135.1450014
 126.2149992 143.9139978 134.1360014 125.6543930 144.5219843 134.4064732
 116.4149992 136.4379978 136.1950014 115.5229992 136.7759978 136.1280014
 116.3169992 135.5819978 136.6130014 116.2794965 136.3686499 136.2423044
 128.7029992 144.2539978 125.6190014 128.4259992 143.5259978 126.1750014
 129.6309992 144.3729978 125.8240014 128.7904499 144.1704213 125.7228044
 117.3179992 143.5159978 124.8060014 116.6319992 143.8689978 125.3730014
 117.8409992 144.2789978 124.5600014 117.2949033 143.6673746 124.8502661
 125.1499992 136.1789978 135.0850014 125.8489992 136.2529978 135.7350014
 124.7689992 135.3139978 135.2390014 125.1942097 136.0722389 135.1947997
 125.9339992 135.8309978 126.1820014 126.1539992 136.3019978 125.3790014
 126.4929992 136.2249978 126.8520014 126.0396730 135.9487432 126.1625906
 123.1339992 137.5589978 127.0170014 123.9459992 138.0629978 127.0630014
 122.8899992 137.4139978 127.9310014 123.2121467 137.6083749 127.1468575
 123.6699992 138.5449978 136.2020014 123.7889992 139.1189978 136.9590014
 124.3249992 137.8569978 136.3160014 123.7749146 138.5305574 136.3211314
 124.0179992 134.6399978 127.9550014 123.6709992 135.2569978 128.6000014
 124.6769992 135.1409978 127.4740014 124.0595949 134.7921099 127.9782271
 119.6759992 135.7029978 124.6420014 119.5919992 136.5909978 124.9890014
 120.5659992 135.4379978 124.8740014 119.7848163 135.7887179 124.7208596
 129.8739992 136.4519978 137.0370014 128.9579992 136.7139978 136.9490014
 130.2099992 136.4489978 136.1400014 129.7939789 136.4874626 136.9037847
 128.4769992 140.2019978 131.1320014 127.6789992 139.7869978 130.8040014
 128.9219992 139.5119978 131.6230014 128.4279684 140.0518628 131.1535227
 116.2499992 138.7949978 122.8190014 116.2049992 139.7339978 122.9970014
 115.3619992 138.5589978 122.5490014 116.1238555 138.8916874 122.8068939
 117.0579992 133.5759978 131.4920014 116.8289992 133.6349978 130.5640014
 116.6159992 132.7849978 131.7980014 116.9668801 133.4770540 131.4064729
 115.1839992 143.9399978 139.9370014 115.3279992 143.0379978 139.6500014
 114.4119992 144.2259978 139.4490014 115.0993303 143.8553243 139.8317908
 119.5249992 144.2829978 122.0690014 119.5899992 143.4889978 122.6000014
 120.1779992 144.1649978 121.3790014 119.6221754 144.1583337 122.0484259
 121.8389992 143.9089978 139.3690014 121.5109992 144.1799978 138.5120014
 121.9909992 142.9679978 139.2820014 121.8146030 143.8188973 139.2397945
 124.8779992 145.3299978 121.8050014 124.6089992 145.5109978 122.7060014
 124.6709992 144.4049978 121.6740014 124.8132000 145.2296774 121.9105693
 127.5739992 143.8249978 136.7530014 128.3189992 144.4139978 136.6330014
 126.8169992 144.4069978 136.8160014 127.5735205 143.9841997 136.7451119
 116.0169992 141.1399978 139.3570014 116.4249992 140.2829978 139.2360014
 115.7559992 141.1539978 140.2780014 116.0376016 141.0245119 139.4649192
 120.6749992 142.2559978 124.3750014 120.2149992 141.7719978 125.0610014
 120.9299992 141.5869978 123.7390014 120.6465038 142.0993689 124.3829447
 119.9639992 140.1489978 136.7310014 119.3449992 140.8229978 137.0110014
 120.3079992 140.4699978 135.8980014 119.9257605 140.2847198 136.6566707
 121.7459992 140.4989978 122.6370014 121.5649992 140.3439978 121.7100014
 122.6959992 140.6069978 122.6820014 121.8496566 140.4923669 122.5160929
 124.9829992 142.6199978 140.0080014 125.9369992 142.7039978 139.9810014
 124.8229992 141.9079978 140.6280014 125.0917182 142.5352842 140.0880733
 131.1359992 142.8529978 122.0830014 130.8619992 142.4289978 121.2700014
 131.1749992 143.7849978 121.8660014 131.1037716 142.9208827 121.9424286
 120.3029992 137.5039978 137.8130014 120.4529992 136.7749978 137.2110014
 120.3049992 138.2809978 137.2540014 120.3237967 137.5092708 137.6550541
 120.7159992 135.8729978 135.3060014 121.2509992 136.3249978 134.6540014
 119.8629992 135.7649978 134.8830014 120.6740374 135.9202665 135.1596710
 122.2969992 141.3129978 135.5450014 123.0479992 141.1569978 134.9720014
 121.9579992 142.1649978 135.2700014 122.3539587 141.4068138 135.4294078
 126.7129992 139.1279978 140.5740014 126.9049992 138.1969978 140.4620014
 127.5709992 139.5529978 140.5640014 126.8552269 139.0579928 140.5573192
 128.0299992 141.9169978 138.6510014 127.7479992 142.6259978 138.0740014
 128.9719992 141.8439978 138.5000014 128.1187656 142.0043128 138.5514809
 118.7819992 138.7019978 139.7250014 118.0139992 138.1689978 139.5150014
 119.4599992 138.3919978 139.1250014 118.7686973 138.5872375 139.6151796
 121.5209992 133.3299978 135.7370014 121.4229992 134.2759978 135.6320014
 120.7789992 132.9569978 135.2620014 121.4071913 133.4091813 135.6583539
 122.7849992 137.6509978 139.3010014 122.5499992 137.4319978 140.2030014
 122.0019992 137.4439978 138.7910014 122.6469219 137.5930066 139.3555852
 125.5009992 136.7789978 138.3770014 124.5529992 136.8109978 138.5090014
 125.8129992 136.1529978 139.0300014 125.4135190 136.6987262 138.4833564
 127.1349992 135.4129978 140.3820014 127.0379992 134.4609978 140.3760014
 126.8129992 135.6809978 141.2420014 127.0781761 135.3189744 140.4974936
 116.9619992 136.6219978 139.4290014 117.1739992 135.9159978 138.8190014
 116.8509992 136.1849978 140.2730014 116.9760269 136.4661921 139.4595873
 121.7429992 132.6239978 138.4090014 122.4549992 131.9839978 138.3950014
 121.6419992 132.8899978 137.4950014 121.8267261 132.5724190 138.2835537
 122.0969992 134.3059978 140.4620014 121.9649992 133.8309978 139.6420014
 121.4969992 135.0509978 140.4070014 121.9979070 134.3415789 140.3423251
 130.2929992 145.4659978 140.5440014 129.4269992 145.3609978 140.9380014
 130.6689992 146.2239978 140.9900014 130.2253401 145.5541708 140.6582620
 131.5939992 143.7219978 126.0580014 132.4439992 144.1429978 126.1850014
 131.5989992 142.9819978 126.6650014 131.7111143 143.6796094 126.1574750
 131.9879992 141.7759978 127.8820014 131.2619992 141.2959978 128.2790014
 132.5699992 141.9809978 128.6140014 131.9671635 141.7379166 128.0353748
 131.7469992 144.5609978 132.8290014 132.5809992 144.1829978 132.5490014
 131.8589992 145.5039978 132.7100014 131.8762522 144.6367742 132.7746020
 132.2569992 141.6769978 124.2730014 131.7349992 142.0329978 123.5540014
 132.2239992 142.3519978 124.9510014 132.1810699 141.8169848 124.2662129
 130.6059992 138.9159978 122.8240014 130.7019992 139.5829978 122.1440014
 130.4659992 138.1009978 122.3420014 130.6002063 138.8970667 122.6658377
 129.7749992 140.2969978 128.4450014 129.6249992 139.3519978 128.4240014
 129.4209992 140.5779978 129.2880014 129.7065527 140.2055605 128.5561859
 114.8099992 142.3749978 132.4550014 114.9949992 142.2929978 131.5190014
 115.6599992 142.2509978 132.8790014 114.9500916 142.3470393 132.3842896
 130.6309992 142.2669978 138.0830014 131.2139992 141.5319978 138.2750014
 131.1949992 143.0389978 138.1300014 130.7869781 142.2708145 138.1156164
 132.1279992 140.1699978 138.7680014 131.2649992 139.7909978 138.6020014
 132.7319992 139.4309978 138.6940014 132.0915944 140.0182978 138.7352984
 129.8529992 136.3239978 121.9410014 130.4639992 135.9529978 122.5780014
 129.0159992 135.9029978 122.1370014 129.8234947 136.2162756 122.0547252
 129.4859992 137.8789978 126.9070014 129.7649992 136.9719978 127.0310014
 130.2449992 138.3129978 126.5180014 129.6268619 137.8134502 126.8713795
 130.0969992 138.4609978 132.3430014 131.0299992 138.6729978 132.3090014
 129.8619992 138.5619978 133.2650014 130.1928308 138.5036503 132.4630214
 130.1269992 139.1979978 135.1190014 129.2839992 139.4659978 135.4850014
 130.5689992 140.0199978 134.9080014 130.0714138 139.3458273 135.1405518
 114.4079992 137.6449978 138.5960014 115.3269992 137.5229978 138.8320014
 113.9579992 136.8949978 138.9850014 114.4731148 137.5268751 138.6809408
 132.4099992 133.1779978 140.4720014 132.7589992 132.5239978 139.8670014
 132.5569992 134.0149978 140.0330014 132.4777355 133.2016067 140.3296564
 130.0989992 135.1419978 126.9550014 130.2809992 134.6929978 127.7810014
 129.4989992 134.5579978 126.4920014 130.0427529 135.0016131 127.0053619
 115.6289992 135.9579978 131.4870014 116.0739992 135.1659978 131.7890014
 116.0949992 136.6739978 131.9180014 115.7529059 135.9464474 131.5866079
 113.9329992 138.9569978 132.5560014 114.4249992 138.7359978 131.7650014
 114.2949992 139.7969978 132.8370014 114.0492923 139.0403468 132.4857407
 131.9289992 135.2869978 138.8220014 131.0119992 135.5579978 138.7860014
 132.0519992 134.7519978 138.0380014 131.8200828 135.2517700 138.7110785
 131.9659992 135.2099978 123.4830014 132.3779992 134.4889978 123.0080014
 132.6469992 135.8789978 123.5420014 132.1145900 135.2017306 123.4259038
 114.2469992 135.2149978 126.6100014 113.3219992 135.4229978 126.4810014
 114.7009992 135.6989978 125.9210014 114.1816374 135.3089949 126.4990957
 114.2099992 133.9529978 134.9550014 113.5449992 133.7069978 135.5980014
 113.7669992 134.5749978 134.3770014 114.0590937 134.0033614 134.9649379
 130.9299992 133.3769978 136.6410014 130.1169992 133.7019978 136.2530014
 131.1629992 132.6159978 136.1080014 130.8502566 133.3186559 136.5159213
 124.3599992 134.8259978 130.9630014 123.6859992 134.1959978 131.2190014
 124.9239992 134.3419978 130.3600014 124.3440384 134.6743708 130.9165020
 129.5029992 132.9329978 131.0760014 130.1059992 133.4809978 130.5740014
 128.6329992 133.2519978 130.8360014 129.4679190 133.0511041 130.9748679
 131.2299992 134.0719978 129.4090014 131.8409992 133.5579978 128.8830014
 131.6119992 134.9489978 129.4330014 131.3654475 134.1201323 129.3401208
 116.6869992 133.4599978 128.7850014 115.9099992 133.2249978 128.2780014
 117.2169992 132.6629978 128.7940014 116.6523451 133.3201268 128.7168627
 115.5229992 133.2579978 124.5890014 115.9619992 133.8689978 123.9970014
 114.8889992 133.7959978 125.0630014 115.4973859 133.4144064 124.5720305
 121.2659992 133.3859978 128.5990014 122.1399992 133.7749978 128.5690014
 121.1299992 133.1709978 129.5210014 121.3673207 133.4101923 128.7196509
 126.8229992 133.4159978 130.2480014 126.8989992 133.5119978 129.2990014
 126.5479992 132.5089978 130.3770014 126.7962042 133.3064241 130.1353811
 128.1759992 133.4419978 125.9400014 127.4729992 134.0569978 125.7310014
 127.7309992 132.6049978 126.0720014 128.0196292 133.4130085 125.9292439
 117.3839992 135.1739978 123.0310014 117.8749992 134.5439978 122.5040014
 118.0069992 135.4699978 123.6950014 117.5355062 135.1276770 123.0485438
 122.4099992 135.4669978 125.4890014 122.5879992 134.8199978 126.1710014
 122.3559992 136.3009978 125.9560014 122.4271025 135.4910504 125.6456433
 116.6439992 133.9739978 138.3030014 116.2779992 133.2079978 138.7460014
 117.5569992 134.0029978 138.5900014 116.7173225 133.8731906 138.4023459
 118.6169992 133.3239978 139.8390014 119.5159992 133.0499978 139.6540014
 118.2309992 132.5819978 140.3030014 118.6877237 133.1861508 139.8764710
 127.0389992 132.6569978 140.0210014 127.1149992 132.2309978 140.8750014
 127.9319992 132.6699978 139.6780014 127.1702267 132.6003952 140.0915932
 144.6209992 142.6159978 128.7440014 144.7099992 143.5599978 128.6120014
 143.9829992 142.3409978 128.0860014 144.5469062 142.7079812 128.6369641
 143.5539992 141.8709978 132.1630014 143.5159992 141.2249978 132.8680014
 143.2319992 141.4039978 131.3920014 143.5052679 141.7194276 132.1552921
 135.9219992 141.4849978 133.7560014 135.9639992 140.8599978 134.4790014
 136.6249992 142.1089978 133.9380014 136.0227345 141.4837873 133.8795274
 133.4559992 139.5949978 127.6840014 133.0079992 140.4409978 127.6650014
 132.8949992 139.0159978 127.1680014 133.3189603 139.6323674 127.6116720
 134.1659992 141.7569978 129.8100014 134.3799992 140.9869978 130.3370014
 134.9039992 141.8469978 129.2060014 134.2949652 141.6638012 129.8005212
 141.9429992 144.3029978 132.5690014 142.2469992 143.6169978 131.9750014
 142.6649992 144.4219978 133.1870014 142.0821152 144.2252189 132.5712123
 145.0839992 138.6969978 132.8970014 145.2269992 137.7509978 132.9170014
 144.9779992 138.9039978 131.9680014 145.0892509 138.5954813 132.7742231
 138.2389992 136.7989978 130.1690014 138.2819992 137.6589978 129.7510014
 137.7809992 136.2469978 129.5350014 138.1829815 136.8420621 130.0261197
 134.8589992 139.1959978 130.9310014 135.5129992 138.6459978 131.3630014
 134.8829992 138.9219978 130.0140014 134.9517199 139.0837167 130.8661668
 140.0159992 140.7459978 130.1460014 140.6319992 140.2189978 130.6560014
 139.4289992 140.1059978 129.7430014 140.0209239 140.5874117 130.1612952
 137.0489992 135.7169978 134.2430014 136.8299992 136.2469978 133.4770014
 136.3809992 135.9429978 134.8900014 136.9287001 135.8201154 134.2256064
 144.4179992 145.2169978 127.7870014 144.1229992 144.8939978 126.9360014
 144.0939992 146.1169978 127.8280014 144.3337983 145.2944027 127.6759771
 139.6179992 143.3919978 134.5310014 138.8779992 143.9909978 134.6340014
 140.3319992 143.9459978 134.2150014 139.6133288 143.5487356 134.5023805
 136.6429992 137.6089978 132.1950014 137.2569992 138.2419978 132.5690014
 137.1549992 137.1369978 131.5390014 136.7962277 137.6317352 132.1574279
 138.0259992 145.3569978 135.3180014 138.0199992 146.2359978 134.9400014
 137.1719992 145.2729978 135.7430014 137.9097925 145.4659535 135.3236887
 134.1469992 145.0279978 126.1000014 133.8749992 145.2569978 125.2110014
 134.1919992 145.8649978 126.5600014 134.1158709 145.1726058 126.0406107
 141.0759992 133.0219978 131.6960014 140.9579992 132.0739978 131.6410014
 140.2209992 133.3549978 131.9690014 140.9442679 132.9371926 131.7253720
 143.3419992 141.8599978 126.1960014 142.6309992 142.3949978 125.8440014
 144.0329992 141.9149978 125.5360014 143.3380751 141.9406777 126.0585858
 143.3959992 140.3169978 123.2350014 144.0969992 140.3399978 123.8860014
 143.6979992 139.6889978 122.5790014 143.5328282 140.2352339 123.2354496
 138.3929992 142.6999978 129.0300014 138.0629992 142.3289978 128.2120014
 138.9819992 142.0289978 129.3770014 138.4273970 142.5586063 128.9649404
 138.7599992 141.4679978 132.6640014 139.3249992 141.5899978 131.9010014
 139.0789992 142.1059978 133.3030014 138.8803977 141.5708851 132.6459424
 136.5599992 142.0659978 136.6100014 136.6299992 142.7169978 137.3080014
 135.6689992 142.1689978 136.2750014 136.4491802 142.1689757 136.6602249
 137.3839992 141.7689978 126.6200014 137.0919992 142.5369978 126.1290014
 136.7089992 141.1099978 126.4570014 137.2528497 141.7849745 126.5308260
 133.4769992 144.1319978 135.4350014 132.9749992 144.1039978 134.6200014
 133.4819992 143.2269978 135.7440014 133.4090416 144.0057368 135.3653766
 135.7259992 145.4559978 136.4780014 135.9419992 145.0939978 137.3370014
 134.8699992 145.0809978 136.2680014 135.6399354 145.3557906 136.5672160
 138.3439992 133.9259978 132.4730014 137.4829992 133.8389978 132.0660014
 138.3219992 134.7819978 132.9010014 138.2230411 134.0297884 132.4750857
 143.0069992 133.6479978 135.8480014 143.4269992 133.2329978 136.6010014
 142.0739992 133.4689978 135.9650014 142.9383736 133.5669910 135.9668968
 142.6689992 136.1399978 123.1330014 142.4149992 136.1589978 124.0560014
 142.4119992 135.2689978 122.8320014 142.5995133 136.0248110 123.2185082
 138.4349992 138.8909978 133.5680014 137.7939992 138.8509978 134.2770014
 138.4729992 139.8179978 133.3310014 138.3523670 139.0107795 133.6330550
 138.4319992 139.1119978 128.4800014 137.5399992 138.7719978 128.4220014
 138.8829992 138.7349978 127.7250014 138.3706815 139.0143762 128.3699203
 143.9679992 139.5279978 127.2970014 143.5589992 140.3429978 127.0060014
 144.6879992 139.3879978 126.6830014 144.0094013 139.6206571 127.1740875
 143.0699992 139.7039978 138.7850014 142.5069992 138.9989978 139.1060014
 143.8959992 139.5829978 139.2530014 143.1046674 139.5912165 138.8921751
 144.9729992 138.9739978 130.1110014 144.7769992 139.5799978 129.3960014
 145.1539992 138.1409978 129.6770014 144.9706584 138.9442513 129.9544212
 136.1849992 139.2119978 135.4350014 136.1469992 139.6119978 136.3040014
 135.6949992 138.3949978 135.5260014 136.1135621 139.1562510 135.5661377
 139.5509992 136.5859978 122.2340014 139.1199992 136.1409978 122.9640014
 138.8329992 136.9569978 121.7220014 139.3949363 136.5752968 122.2646211
 132.7939992 136.3279978 129.2860014 133.4239992 136.2989978 130.0050014
 133.2429992 135.9029978 128.5560014 132.9410692 136.2665316 129.2857771
 134.0679992 137.0739978 124.7100014 134.5419992 137.6649978 124.1250014
 133.3499992 137.6039978 125.0570014 134.0358640 137.2265511 124.6767969
 144.2369992 140.6119978 134.7830014 144.5599992 139.9809978 134.1400014
 143.7959992 140.0779978 135.4430014 144.2215789 140.4533522 134.7842232
 141.0139992 136.5399978 129.5670014 140.1029992 136.5969978 129.8550014
 141.5189992 136.4799978 130.3770014 140.9575387 136.5396870 129.7160646
 135.8419992 138.1689978 128.3930014 134.9529992 138.2679978 128.0530014
 136.1389992 137.3269978 128.0470014 135.7604177 138.0687687 128.2996940
 139.4949992 138.1689978 126.0500014 140.4269992 138.2979978 126.2280014
 139.2799992 138.8379978 125.4000014 139.5934472 138.2770806 125.9864891
 145.4189992 135.7749978 132.8310014 144.7419992 135.9059978 133.4950014
 144.9339992 135.6199978 132.0210014 145.2607265 135.7719659 132.8123397
 138.1689992 139.3629978 123.6170014 137.6269992 138.9839978 122.9250014
 139.0029992 139.5579978 123.1880014 138.2075159 139.3375076 123.4644419
 136.3049992 143.9199978 138.7160014 137.0369992 144.1749978 139.2770014
 135.5239992 144.1249978 139.2310014 136.2997684 143.9826468 138.8624782
 142.3339992 139.3269978 131.4540014 142.8979992 138.7809978 130.9070014
 142.1859992 138.8059978 132.2420014 142.3912575 139.1816552 131.4856987
 137.3359992 135.4639978 127.8720014 137.0189992 134.5609978 127.8370014
 138.1169992 135.4659978 127.3190014 137.3982307 135.3406951 127.7924314
 140.9599992 137.7159978 133.8680014 140.1249992 138.1699978 133.9780014
 141.4839992 137.9919978 134.6200014 140.9165070 137.8154666 133.9847152
 141.5049992 143.9289978 125.5520014 140.7599992 143.4209978 125.2300014
 141.3699992 143.9779978 126.4990014 141.3849047 143.8661596 125.6358845
 145.4019992 136.7429978 123.7520014 144.4639992 136.8539978 123.6000014
 145.6999992 137.5989978 124.0580014 145.3136402 136.8740621 123.7725571
 143.0239992 144.1129978 136.7890014 142.6779992 143.7309978 137.5960014
 142.8239992 145.0459978 136.8610014 142.9496523 144.1869095 136.9090735
 136.6289992 143.2239978 131.3220014 137.3739992 143.2209978 130.7210014
 136.7069992 142.3999978 131.8040014 136.7414158 143.1122916 131.3049153
 143.6299992 145.3869978 124.5780014 143.3349992 146.2139978 124.9590014
 142.9269992 144.7679978 124.7740014 143.4945471 145.4165227 124.6566698
 133.6369992 141.6839978 136.6370014 133.8599992 141.2659978 137.4690014
 133.0349992 141.0719978 136.2140014 133.5861260 141.5439933 136.6937320
 140.6539992 141.2009978 138.8500014 140.3579992 141.0359978 137.9550014
 141.5849992 140.9809978 138.8390014 140.7393982 141.1486578 138.7260045
 134.7589992 141.6039978 123.3140014 135.3749992 142.2309978 123.6930014
 133.8969992 141.9199978 123.5850014 134.7268195 141.7325798 123.4025386
 140.4319992 144.4049978 128.3030014 140.1909992 145.3299978 128.3440014
 139.6909992 143.9459978 128.6990014 140.2988390 144.4696403 128.3621404
 144.4899992 144.6529978 134.3180014 144.0649992 144.4249978 135.1450014
 145.0709992 143.9139978 134.1360014 144.5103930 144.5219843 134.4064732
 135.2709992 136.4379978 136.1950014 134.3789992 136.7759978 136.1280014
 135.1729992 135.5819978 136.6130014 135.1354965 136.3686499 136.2423044
 136.1739992 143.5159978 124.8060014 135.4879992 143.8689978 125.3730014
 136.6969992 144.2789978 124.5600014 136.1509033 143.6673746 124.8502661
 144.0059992 136.1789978 135.0850014 144.7049992 136.2529978 135.7350014
 143.6249992 135.3139978 135.2390014 144.0502097 136.0722389 135.1947997
 144.7899992 135.8309978 126.1820014 145.0099992 136.3019978 125.3790014
 145.3489992 136.2249978 126.8520014 144.8956730 135.9487432 126.1625906
 141.9899992 137.5589978 127.0170014 142.8019992 138.0629978 127.0630014
 141.7459992 137.4139978 127.9310014 142.0681467 137.6083749 127.1468575
 142.5259992 138.5449978 136.2020014 142.6449992 139.1189978 136.9590014
 143.1809992 137.8569978 136.3160014 142.6309146 138.5305574 136.3211314
 142.8739992 134.6399978 127.9550014 142.5269992 135.2569978 128.6000014
 143.5329992 135.1409978 127.4740014 142.9155949 134.7921099 127.9782271
 138.5319992 135.7029978 124.6420014 138.4479992 136.5909978 124.9890014
 139.4219992 135.4379978 124.8740014 138.6408163 135.7887179 124.7208596
 135.1059992 138.7949978 122.8190014 135.0609992 139.7339978 122.9970014
 134.2179992 138.5589978 122.5490014 134.9798555 138.8916874 122.8068939
 135.9139992 133.5759978 131.4920014 135.6849992 133.6349978 130.5640014
 135.4719992 132.7849978 131.7980014 135.8228801 133.4770540 131.4064729
 134.0399992 143.9399978 139.9370014 134.1839992 143.0379978 139.6500014
 133.2679992 144.2259978 139.4490014 133.9553303 143.8553243 139.8317908
 138.3809992 144.2829978 122.0690014 138.4459992 143.4889978 122.6000014
 139.0339992 144.1649978 121.3790014 138.4781754 144.1583337 122.0484259
 140.6949992 143.9089978 139.3690014 140.3669992 144.1799978 138.5120014
 140.8469992 142.9679978 139.2820014 140.6706030 143.8188973 139.2397945
 143.7339992 145.3299978 121.8050014 143.4649992 145.5109978 122.7060014
 143.5269992 144.4049978 121.6740014 143.6692000 145.2296774 121.9105693
 134.8729992 141.1399978 139.3570014 135.2809992 140.2829978 139.2360014
 134.6119992 141.1539978 140.2780014 134.8936016 141.0245119 139.4649192
 139.5309992 142.2559978 124.3750014 139.0709992 141.7719978 125.0610014
 139.7859992 141.5869978 123.7390014 139.5025038 142.0993689 124.3829447
 138.8199992 140.1489978 136.7310014 138.2009992 140.8229978 137.0110014
 139.1639992 140.4699978 135.8980014 138.7817605 140.2847198 136.6566707
 140.6019992 140.4989978 122.6370014 140.4209992 140.3439978 121.7100014
 141.5519992 140.6069978 122.6820014 140.7056566 140.4923669 122.5160929
 143.8389992 142.6199978 140.0080014 144.7929992 142.7039978 139.9810014
 143.6789992 141.9079978 140.6280014 143.9477182 142.5352842 140.0880733
 139.1589992 137.5039978 137.8130014 139.3089992 136.7749978 137.2110014
 139.1609992 138.2809978 137.2540014 139.1797967 137.5092708 137.6550541
 139.5719992 135.8729978 135.3060014 140.1069992 136.3249978 134.6540014
 138.7189992 135.7649978 134.8830014 139.5300374 135.9202665 135.1596710
 141.1529992 141.3129978 135.5450014 141.9039992 141.1569978 134.9720014
 140.8139992 142.1649978 135.2700014 141.2099587 141.4068138 135.4294078
 145.5689992 139.1279978 140.5740014 145.7609992 138.1969978 140.4620014
 146.4269992 139.5529978 140.5640014 145.7112269 139.0579928 140.5573192
 137.6379992 138.7019978 139.7250014 136.8699992 138.1689978 139.5150014
 138.3159992 138.3919978 139.1250014 137.6246973 138.5872375 139.6151796
 140.3769992 133.3299978 135.7370014 140.2789992 134.2759978 135.6320014
 139.6349992 132.9569978 135.2620014 140.2631913 133.4091813 135.6583539
 141.6409992 137.6509978 139.3010014 141.4059992 137.4319978 140.2030014
 140.8579992 137.4439978 138.7910014 141.5029219 137.5930066 139.3555852
 144.3569992 136.7789978 138.3770014 143.4089992 136.8109978 138.5090014
 144.6689992 136.1529978 139.0300014 144.2695190 136.6987262 138.4833564
 135.8179992 136.6219978 139.4290014 136.0299992 135.9159978 138.8190014
 135.7069992 136.1849978 140.2730014 135.8320269 136.4661921 139.4595873
 140.5989992 132.6239978 138.4090014 141.3109992 131.9839978 138.3950014
 140.4979992 132.8899978 137.4950014 140.6827261 132.5724190 138.2835537
 140.9529992 134.3059978 140.4620014 140.8209992 133.8309978 139.6420014
 140.3529992 135.0509978 140.4070014 140.8539070 134.3415789 140.3423251
 133.6659992 142.3749978 132.4550014 133.8509992 142.2929978 131.5190014
 134.5159992 142.2509978 132.8790014 133.8060916 142.3470393 132.3842896
 133.2639992 137.6449978 138.5960014 134.1829992 137.5229978 138.8320014
 132.8139992 136.8949978 138.9850014 133.3291148 137.5268751 138.6809408
 134.4849992 135.9579978 131.4870014 134.9299992 135.1659978 131.7890014
 134.9509992 136.6739978 131.9180014 134.6089059 135.9464474 131.5866079
 132.7889992 138.9569978 132.5560014 133.2809992 138.7359978 131.7650014
 133.1509992 139.7969978 132.8370014 132.9052923 139.0403468 132.4857407
 133.1029992 135.2149978 126.6100014 132.1779992 135.4229978 126.4810014
 133.5569992 135.6989978 125.9210014 133.0376374 135.3089949 126.4990957
 133.0659992 133.9529978 134.9550014 132.4009992 133.7069978 135.5980014
 132.6229992 134.5749978 134.3770014 132.9150937 134.0033614 134.9649379
 143.2159992 134.8259978 130.9630014 142.5419992 134.1959978 131.2190014
 143.7799992 134.3419978 130.3600014 143.2000384 134.6743708 130.9165020
 135.5429992 133.4599978 128.7850014 134.7659992 133.2249978 128.2780014
 136.0729992 132.6629978 128.7940014 135.5083451 133.3201268 128.7168627
 134.3789992 133.2579978 124.5890014 134.8179992 133.8689978 123.9970014
 133.7449992 133.7959978 125.0630014 134.3533859 133.4144064 124.5720305
 140.1219992 133.3859978 128.5990014 140.9959992 133.7749978 128.5690014
 139.9859992 133.1709978 129.5210014 140.2233207 133.4101923 128.7196509
 136.2399992 135.1739978 123.0310014 136.7309992 134.5439978 122.5040014
 136.8629992 135.4699978 123.6950014 136.3915062 135.1276770 123.0485438
 141.2659992 135.4669978 125.4890014 141.4439992 134.8199978 126.1710014
 141.2119992 136.3009978 125.9560014 141.2831025 135.4910504 125.6456433
 135.4999992 133.9739978 138.3030014 135.1339992 133.2079978 138.7460014
 136.4129992 134.0029978 138.5900014 135.5733225 133.8731906 138.4023459
 137.4729992 133.3239978 139.8390014 138.3719992 133.0499978 139.6540014
 137.0869992 132.5819978 140.3030014 137.5437237 133.1861508 139.8764710
  12.6289992  10.6239978 147.6000014  12.7179992  11.5679978 147.4680014
  11.9909992  10.3489978 146.9420014  12.5549062  10.7159812 147.4929641
   1.4639992   7.6029978 146.5400014   1.0159992   8.4489978 146.5210014
   0.9029992   7.0239978 146.0240014   1.3269603   7.6403674 146.4676720
  13.9689992   4.9379978 147.4260014  14.6159992   4.6089978 148.0510014
  14.4789992   5.4549978 146.8030014  14.1264317   4.9629227 147.4272167
  12.4259992  13.2249978 146.6430014  12.1309992  12.9019978 145.7920014
  12.1019992  14.1249978 146.6840014  12.3417983  13.3024026 146.5319771
   2.1549992  13.0359978 144.9560014   1.8829992  13.2649978 144.0670014
   2.1999992  13.8729978 145.4160014   2.1238709  13.1806058 144.8966107
  15.1919992  14.3389978 146.8020014  14.9339992  13.6489978 146.1910014
  15.2629992  13.8959978 147.6480014  15.1662837  14.1847106 146.8326912
  11.3499992   9.8679978 145.0520014  10.6389992  10.4029978 144.7000014
  12.0409992   9.9229978 144.3920014  11.3460751   9.9486777 144.9145858
  11.4039992   8.3249978 142.0910014  12.1049992   8.3479978 142.7420014
  11.7059992   7.6969978 141.4350014  11.5408282   8.2432339 142.0914496
  14.7559992  10.0769978 146.0040014  14.0239992  10.3059978 146.5770014
  15.2029992   9.3639978 146.4590014  14.7162753  10.0118972 146.1439715
  13.6269992   9.2399978 143.6890014  14.2059992   9.3899978 144.4360014
  14.0409992   9.7099978 142.9660014  13.7623122   9.3241277 143.6935042
  11.3529992  15.9759978 147.1240014  11.8269992  16.2719978 147.9020014
  10.7899992  16.7149978 146.8910014  11.3417361  16.1162721 147.1988611
  17.3259992   0.9899978 143.5020014  16.4259992   1.1289978 143.7970014
  17.5779992   1.8209978 143.1000014  17.2368683   1.1214055 143.4880232
   5.3919992   9.7769978 145.4760014   5.0999992  10.5449978 144.9850014
   4.7169992   9.1179978 145.3130014   5.2608497   9.7929745 145.3868260
  18.5149992  15.3559978 141.8780014  18.5879992  16.2949978 142.0490014
  19.4199992  15.0509978 141.8220014  18.6474158  15.4433061 141.8938392
  10.8259992  18.9329978 145.5390014  10.7499992  18.8119978 144.5930014
  10.8579992  19.8819978 145.6580014  10.8199156  19.0447530 145.4255048
   4.4789992  17.7219978 147.3200014   4.6309992  17.3739978 148.1990014
   3.6279992  17.3649978 147.0650014   4.3847899  17.6261738 147.4057340
  13.9269992  18.0869978 142.5410014  14.3019992  17.3429978 142.0710014
  13.9319992  17.8169978 143.4600014  13.9790024  17.9486950 142.6007987
  13.5959992  18.0129978 145.2910014  12.6609992  18.1129978 145.4690014
  13.8759992  17.3029978 145.8690014  13.5058173  17.9307239 145.3934998
  15.1039992  10.2719978 141.3190014  15.1459992  10.0499978 140.3890014
  15.9529992  10.6709978 141.5090014  15.2245253  10.2955498 141.2173822
  10.6769992   4.1479978 141.9890014  10.4229992   4.1669978 142.9120014
  10.4199992   3.2769978 141.6880014  10.6075133   4.0328110 142.0745082
   6.4399992   7.1199978 147.3360014   5.5479992   6.7799978 147.2780014
   6.8909992   6.7429978 146.5810014   6.3786815   7.0223762 147.2259203
  11.9759992   7.5359978 146.1530014  11.5669992   8.3509978 145.8620014
  12.6959992   7.3959978 145.5390014  12.0174013   7.6286571 146.0300875
   7.5589992   4.5939978 141.0900014   7.1279992   4.1489978 141.8200014
   6.8409992   4.9649978 140.5780014   7.4029363   4.5832968 141.1206211
   2.0759992   5.0819978 143.5660014   2.5499992   5.6729978 142.9810014
   1.3579992   5.6119978 143.9130014   2.0438640   5.2345511 143.5327969
   3.8499992   6.1769978 147.2490014   2.9609992   6.2759978 146.9090014
   4.1469992   5.3349978 146.9030014   3.7684177   6.0767687 147.1556940
   7.5029992   6.1769978 144.9060014   8.4349992   6.3059978 145.0840014
   7.2879992   6.8459978 144.2560014   7.6014472   6.2850806 144.8424891
   6.1769992   7.3709978 142.4730014   5.6349992   6.9919978 141.7810014
   7.0109992   7.5659978 142.0440014   6.2155159   7.3455076 142.3204419
   5.3439992   3.4719978 146.7280014   5.0269992   2.5689978 146.6930014
   6.1249992   3.4739978 146.1750014   5.4062307   3.3486951 146.6484314
   9.5129992  11.9369978 144.4080014   8.7679992  11.4289978 144.0860014
   9.3779992  11.9859978 145.3550014   9.3929047  11.8741596 144.4918845
  13.4099992   4.7509978 142.6080014  12.4719992   4.8619978 142.4560014
  13.7079992   5.6069978 142.9140014  13.3216402   4.8820621 142.6285571
  14.1289992   6.6179978 144.2680014  15.0209992   6.4799978 144.5870014
  14.1849992   7.4089978 143.7320014  14.2587107   6.7060526 144.2392091
  11.6379992  13.3949978 143.4340014  11.3429992  14.2219978 143.8150014
  10.9349992  12.7759978 143.6300014  11.5025471  13.4245227 143.5126698
  19.0139992   6.8269978 143.9630014  18.4589992   6.4309978 143.2910014
  19.1139992   7.7379978 143.6850014  18.9515888   6.8958990 143.8335206
  17.3089992  15.6129978 144.4280014  16.9359992  14.7879978 144.7370014
  17.5859992  15.4299978 143.5310014  17.2953871  15.4752441 144.3489677
   7.0119992  14.7499978 147.5820014   7.5399992  15.5229978 147.3820014
   6.1319992  14.9739978 147.2810014   6.9653176  14.8863161 147.5138409
   2.7669992   9.6119978 142.1700014   3.3829992  10.2389978 142.5490014
   1.9049992   9.9279978 142.4410014   2.7348195   9.7405798 142.2585386
   8.4399992  12.4129978 147.1590014   8.1989992  13.3379978 147.2000014
   7.6989992  11.9539978 147.5550014   8.3068390  12.4776403 147.2181404
   7.1229992  17.4339978 146.7040014   6.1729992  17.5399978 146.7550014
   7.4749992  18.2549978 147.0490014   7.0405480  17.5594438 146.7575999
  14.7009992  13.5899978 142.2480014  15.0549992  13.2099978 143.0530014
  13.7529992  13.4959978 142.3350014  14.6211820  13.5253092 142.3698714
  19.2049992  18.0689978 142.4490014  19.9489992  18.6549978 142.3090014
  18.5109992  18.6379978 142.7830014  19.2130201  18.2260603 142.4749772
  15.5669992  12.2619978 144.4750014  15.2899992  11.5339978 145.0310014
  16.4949992  12.3809978 144.6800014  15.6544499  12.1784213 144.5788044
   8.7919992  14.7019978 140.6950014   9.0309992  13.9529978 140.1480014
   8.5229992  14.3139978 141.5280014   8.7883233  14.5471853 140.7327809
   7.7289992  14.2719978 143.1520014   7.8759992  13.7519978 143.9420014
   7.7259992  15.1789978 143.4580014   7.7487300  14.3233964 143.3015895
   4.1819992  11.5239978 143.6620014   3.4959992  11.8769978 144.2290014
   4.7049992  12.2869978 143.4160014   4.1589033  11.6753746 143.7062661
  12.7979992   3.8389978 145.0380014  13.0179992   4.3099978 144.2350014
  13.3569992   4.2329978 145.7080014  12.9036730   3.9567432 145.0185906
  10.4669992  15.9689978 143.9010014   9.6499992  16.4659978 143.9530014
  10.9959992  16.4449978 143.2610014  10.4268508  16.1012543 143.8216035
   9.9979992   5.5669978 145.8730014  10.8099992   6.0709978 145.9190014
   9.7539992   5.4219978 146.7870014  10.0761467   5.6163749 146.0028575
  10.8819992   2.6479978 146.8110014  10.5349992   3.2649978 147.4560014
  11.5409992   3.1489978 146.3300014  10.9235949   2.8001099 146.8342271
   7.8049992  17.0129978 143.8830014   7.9659992  17.8129978 143.3820014
   7.6079992  17.3199978 144.7680014   7.8003919  17.1639129 143.9341006
   6.5399992   3.7109978 143.4980014   6.4559992   4.5989978 143.8450014
   7.4299992   3.4459978 143.7300014   6.6488163   3.7967179 143.5768596
   4.7979992  14.1379978 142.5590014   5.3899992  14.8379978 142.8350014
   5.2569992  13.7049978 141.8390014   4.9410791  14.1752908 142.4994607
   3.1139992   6.8029978 141.6750014   3.0689992   7.7419978 141.8530014
   2.2259992   6.5669978 141.4050014   2.9878555   6.8996874 141.6628939
   2.8529992  15.5249978 146.5080014   2.0199992  15.9969978 146.5360014
   3.3979992  16.0349978 145.9100014   2.8127590  15.6585897 146.4309194
  10.8299992  16.5649978 140.8340014  10.1859992  15.9339978 141.1550014
  11.5919992  16.0339978 140.6020014  10.8448058  16.4067902 140.8466038
  15.4349992  16.3819978 141.0680014  15.7179992  15.5869978 141.5200014
  16.1739992  16.6149978 140.5070014  15.5736956  16.3047031 141.0539821
   6.3889992  12.2909978 140.9250014   6.4539992  11.4969978 141.4560014
   7.0419992  12.1729978 140.2350014   6.4861754  12.1663337 140.9044259
  11.7419992  13.3379978 140.6610014  11.4729992  13.5189978 141.5620014
  11.5349992  12.4129978 140.5300014  11.6772000  13.2376774 140.7665693
   7.5389992  10.2639978 143.2310014   7.0789992   9.7799978 143.9170014
   7.7939992   9.5949978 142.5950014   7.5105038  10.1073689 143.2389447
   8.6099992   8.5069978 141.4930014   8.4289992   8.3519978 140.5660014
   9.5599992   8.6149978 141.5380014   8.7136566   8.5003669 141.3720929
  17.9999992  10.8609978 140.9390014  17.7259992  10.4369978 140.1260014
  18.0389992  11.7929978 140.7220014  17.9677716  10.9288827 140.7984286
   8.5069992  19.1969978 142.4950014   9.4399992  19.3549978 142.6380014
   8.2429992  19.8729978 141.8700014   8.5989308  19.3099104 142.4301396
   2.0749992  13.8339978 141.9770014   2.9889992  13.9129978 142.2510014
   2.0829992  13.1469978 141.3110014   2.2011143  13.7519085 141.9244274
   0.7239992  19.2269978 147.0550014   0.0769992  18.7649978 146.5220014
   1.0789992  18.5549978 147.6370014   0.6834506  19.0729503 147.0607341
  18.4579992  11.7299978 144.9140014  19.3079992  12.1509978 145.0410014
  18.4629992  10.9899978 145.5210014  18.5751143  11.6876094 145.0134750
  18.8519992   9.7839978 146.7380014  18.1259992   9.3039978 147.1350014
  19.4339992   9.9889978 147.4700014  18.8311635   9.7459166 146.8913748
  19.1209992   9.6849978 143.1290014  18.5989992  10.0409978 142.4100014
  19.0879992  10.3599978 143.8070014  19.0450699   9.8249848 143.1222129
  17.4699992   6.9239978 141.6800014  17.5659992   7.5909978 141.0000014
  17.3299992   6.1089978 141.1980014  17.4642063   6.9050667 141.5218377
  16.6389992   8.3049978 147.3010014  16.4889992   7.3599978 147.2800014
  16.2849992   8.5859978 148.1440014  16.5705527   8.2135605 147.4121859
  16.7169992   4.3319978 140.7970014  17.3279992   3.9609978 141.4340014
  15.8799992   3.9109978 140.9930014  16.6874947   4.2242756 140.9107252
  16.3499992   5.8869978 145.7630014  16.6289992   4.9799978 145.8870014
  17.1089992   6.3209978 145.3740014  16.4908619   5.8214502 145.7273795
  16.9629992   3.1499978 145.8110014  17.1449992   2.7009978 146.6370014
  16.3629992   2.5659978 145.3480014  16.9067529   3.0096131 145.8613619
  18.8299992   3.2179978 142.3390014  19.2419992   2.4969978 141.8640014
  19.5109992   3.8869978 142.3980014  18.9785900   3.2097306 142.2819038
   1.1109992   3.2229978 145.4660014   0.1859992   3.4309978 145.3370014
   1.5649992   3.7069978 144.7770014   1.0456374   3.3169949 145.3550957
  15.8809992  18.2069978 147.4120014  16.5339992  17.8589978 146.8040014
  16.3919992  18.6949978 148.0580014  16.0392777  18.2253815 147.4162047
   2.3869992   1.2659978 143.4450014   2.8259992   1.8769978 142.8530014
   1.7529992   1.8039978 143.9190014   2.3613859   1.4224064 143.4280305
   8.1299992   1.3939978 147.4550014   9.0039992   1.7829978 147.4250014
   7.9939992   1.1789978 148.3770014   8.2313207   1.4181923 147.5756509
  15.0399992   1.4499978 144.7960014  14.3369992   2.0649978 144.5870014
  14.5949992   0.6129978 144.9280014  14.8836292   1.4210085 144.7852439
   2.2879992  17.2139978 144.3430014   1.6029992  17.1759978 143.6750014
   2.2919992  18.1269978 144.6310014   2.1948174  17.3321998 144.2905310
   4.2479992   3.1819978 141.8870014   4.7389992   2.5519978 141.3600014
   4.8709992   3.4779978 142.5510014   4.3995062   3.1356770 141.9045438
   9.2739992   3.4749978 144.3450014   9.4519992   2.8279978 145.0270014
   9.2199992   4.3089978 144.8120014   9.2911025   3.4990504 144.5016433
  11.1519992  18.4229978 142.7400014  12.0179992  18.7899978 142.5620014
  10.9059992  17.9839978 141.9260014  11.2372097  18.4138525 142.6056019
  17.8609992  17.9859978 145.4190014  17.6669992  17.2379978 144.8540014
  17.8219992  18.7439978 144.8360014  17.8291645  17.9860786 145.2628148
   4.1059992  18.1339978 141.3680014   3.8379992  18.4199978 142.2410014
   4.8769992  17.5879978 141.5200014   4.1735600  18.0993330 141.5081499
  31.4849992  10.6239978 147.6000014  31.5739992  11.5679978 147.4680014
  30.8469992  10.3489978 146.9420014  31.4109062  10.7159812 147.4929641
  20.3199992   7.6029978 146.5400014  19.8719992   8.4489978 146.5210014
  19.7589992   7.0239978 146.0240014  20.1829603   7.6403674 146.4676720
  32.8249992   4.9379978 147.4260014  33.4719992   4.6089978 148.0510014
  33.3349992   5.4549978 146.8030014  32.9824317   4.9629227 147.4272167
  31.2819992  13.2249978 146.6430014  30.9869992  12.9019978 145.7920014
  30.9579992  14.1249978 146.6840014  31.1977983  13.3024026 146.5319771
  21.0109992  13.0359978 144.9560014  20.7389992  13.2649978 144.0670014
  21.0559992  13.8729978 145.4160014  20.9798709  13.1806058 144.8966107
  34.0479992  14.3389978 146.8020014  33.7899992  13.6489978 146.1910014
  34.1189992  13.8959978 147.6480014  34.0222837  14.1847106 146.8326912
  30.2059992   9.8679978 145.0520014  29.4949992  10.4029978 144.7000014
  30.8969992   9.9229978 144.3920014  30.2020751   9.9486777 144.9145858
  30.2599992   8.3249978 142.0910014  30.9609992   8.3479978 142.7420014
  30.5619992   7.6969978 141.4350014  30.3968282   8.2432339 142.0914496
  33.6119992  10.0769978 146.0040014  32.8799992  10.3059978 146.5770014
  34.0589992   9.3639978 146.4590014  33.5722753  10.0118972 146.1439715
  32.4829992   9.2399978 143.6890014  33.0619992   9.3899978 144.4360014
  32.8969992   9.7099978 142.9660014  32.6183122   9.3241277 143.6935042
  30.2089992  15.9759978 147.1240014  30.6829992  16.2719978 147.9020014
  29.6459992  16.7149978 146.8910014  30.1977361  16.1162721 147.1988611
  36.1819992   0.9899978 143.5020014  35.2819992   1.1289978 143.7970014
  36.4339992   1.8209978 143.1000014  36.0928683   1.1214055 143.4880232
  24.2479992   9.7769978 145.4760014  23.9559992  10.5449978 144.9850014
  23.5729992   9.1179978 145.3130014  24.1168497   9.7929745 145.3868260
  37.3709992  15.3559978 141.8780014  37.4439992  16.2949978 142.0490014
  38.2759992  15.0509978 141.8220014  37.5034158  15.4433061 141.8938392
  29.6819992  18.9329978 145.5390014  29.6059992  18.8119978 144.5930014
  29.7139992  19.8819978 145.6580014  29.6759156  19.0447530 145.4255048
  23.3349992  17.7219978 147.3200014  23.4869992  17.3739978 148.1990014
  22.4839992  17.3649978 147.0650014  23.2407899  17.6261738 147.4057340
  32.7829992  18.0869978 142.5410014  33.1579992  17.3429978 142.0710014
  32.7879992  17.8169978 143.4600014  32.8350024  17.9486950 142.6007987
  32.4519992  18.0129978 145.2910014  31.5169992  18.1129978 145.4690014
  32.7319992  17.3029978 145.8690014  32.3618173  17.9307239 145.3934998
  33.9599992  10.2719978 141.3190014  34.0019992  10.0499978 140.3890014
  34.8089992  10.6709978 141.5090014  34.0805253  10.2955498 141.2173822
  29.5329992   4.1479978 141.9890014  29.2789992   4.1669978 142.9120014
  29.2759992   3.2769978 141.6880014  29.4635133   4.0328110 142.0745082
  25.2959992   7.1199978 147.3360014  24.4039992   6.7799978 147.2780014
  25.7469992   6.7429978 146.5810014  25.2346815   7.0223762 147.2259203
  30.8319992   7.5359978 146.1530014  30.4229992   8.3509978 145.8620014
  31.5519992   7.3959978 145.5390014  30.8734013   7.6286571 146.0300875
  26.4149992   4.5939978 141.0900014  25.9839992   4.1489978 141.8200014
  25.6969992   4.9649978 140.5780014  26.2589363   4.5832968 141.1206211
  20.9319992   5.0819978 143.5660014  21.4059992   5.6729978 142.9810014
  20.2139992   5.6119978 143.9130014  20.8998640   5.2345511 143.5327969
  22.7059992   6.1769978 147.2490014  21.8169992   6.2759978 146.9090014
  23.0029992   5.3349978 146.9030014  22.6244177   6.0767687 147.1556940
  26.3589992   6.1769978 144.9060014  27.2909992   6.3059978 145.0840014
  26.1439992   6.8459978 144.2560014  26.4574472   6.2850806 144.8424891
  25.0329992   7.3709978 142.4730014  24.4909992   6.9919978 141.7810014
  25.8669992   7.5659978 142.0440014  25.0715159   7.3455076 142.3204419
  24.1999992   3.4719978 146.7280014  23.8829992   2.5689978 146.6930014
  24.9809992   3.4739978 146.1750014  24.2622307   3.3486951 146.6484314
  28.3689992  11.9369978 144.4080014  27.6239992  11.4289978 144.0860014
  28.2339992  11.9859978 145.3550014  28.2489047  11.8741596 144.4918845
  32.2659992   4.7509978 142.6080014  31.3279992   4.8619978 142.4560014
  32.5639992   5.6069978 142.9140014  32.1776402   4.8820621 142.6285571
  32.9849992   6.6179978 144.2680014  33.8769992   6.4799978 144.5870014
  33.0409992   7.4089978 143.7320014  33.1147107   6.7060526 144.2392091
  30.4939992  13.3949978 143.4340014  30.1989992  14.2219978 143.8150014
  29.7909992  12.7759978 143.6300014  30.3585471  13.4245227 143.5126698
  37.8699992   6.8269978 143.9630014  37.3149992   6.4309978 143.2910014
  37.9699992   7.7379978 143.6850014  37.8075888   6.8958990 143.8335206
  36.1649992  15.6129978 144.4280014  35.7919992  14.7879978 144.7370014
  36.4419992  15.4299978 143.5310014  36.1513871  15.4752441 144.3489677
  25.8679992  14.7499978 147.5820014  26.3959992  15.5229978 147.3820014
  24.9879992  14.9739978 147.2810014  25.8213176  14.8863161 147.5138409
  21.6229992   9.6119978 142.1700014  22.2389992  10.2389978 142.5490014
  20.7609992   9.9279978 142.4410014  21.5908195   9.7405798 142.2585386
  27.2959992  12.4129978 147.1590014  27.0549992  13.3379978 147.2000014
  26.5549992  11.9539978 147.5550014  27.1628390  12.4776403 147.2181404
  25.9789992  17.4339978 146.7040014  25.0289992  17.5399978 146.7550014
  26.3309992  18.2549978 147.0490014  25.8965480  17.5594438 146.7575999
  33.5569992  13.5899978 142.2480014  33.9109992  13.2099978 143.0530014
  32.6089992  13.4959978 142.3350014  33.4771820  13.5253092 142.3698714
  38.0609992  18.0689978 142.4490014  38.8049992  18.6549978 142.3090014
  37.3669992  18.6379978 142.7830014  38.0690201  18.2260603 142.4749772
  34.4229992  12.2619978 144.4750014  34.1459992  11.5339978 145.0310014
  35.3509992  12.3809978 144.6800014  34.5104499  12.1784213 144.5788044
  27.6479992  14.7019978 140.6950014  27.8869992  13.9529978 140.1480014
  27.3789992  14.3139978 141.5280014  27.6443233  14.5471853 140.7327809
  26.5849992  14.2719978 143.1520014  26.7319992  13.7519978 143.9420014
  26.5819992  15.1789978 143.4580014  26.6047300  14.3233964 143.3015895
  23.0379992  11.5239978 143.6620014  22.3519992  11.8769978 144.2290014
  23.5609992  12.2869978 143.4160014  23.0149033  11.6753746 143.7062661
  31.6539992   3.8389978 145.0380014  31.8739992   4.3099978 144.2350014
  32.2129992   4.2329978 145.7080014  31.7596730   3.9567432 145.0185906
  29.3229992  15.9689978 143.9010014  28.5059992  16.4659978 143.9530014
  29.8519992  16.4449978 143.2610014  29.2828508  16.1012543 143.8216035
  28.8539992   5.5669978 145.8730014  29.6659992   6.0709978 145.9190014
  28.6099992   5.4219978 146.7870014  28.9321467   5.6163749 146.0028575
  29.7379992   2.6479978 146.8110014  29.3909992   3.2649978 147.4560014
  30.3969992   3.1489978 146.3300014  29.7795949   2.8001099 146.8342271
  26.6609992  17.0129978 143.8830014  26.8219992  17.8129978 143.3820014
  26.4639992  17.3199978 144.7680014  26.6563919  17.1639129 143.9341006
  25.3959992   3.7109978 143.4980014  25.3119992   4.5989978 143.8450014
  26.2859992   3.4459978 143.7300014  25.5048163   3.7967179 143.5768596
  23.6539992  14.1379978 142.5590014  24.2459992  14.8379978 142.8350014
  24.1129992  13.7049978 141.8390014  23.7970791  14.1752908 142.4994607
  21.9699992   6.8029978 141.6750014  21.9249992   7.7419978 141.8530014
  21.0819992   6.5669978 141.4050014  21.8438555   6.8996874 141.6628939
  21.7089992  15.5249978 146.5080014  20.8759992  15.9969978 146.5360014
  22.2539992  16.0349978 145.9100014  21.6687590  15.6585897 146.4309194
  29.6859992  16.5649978 140.8340014  29.0419992  15.9339978 141.1550014
  30.4479992  16.0339978 140.6020014  29.7008058  16.4067902 140.8466038
  34.2909992  16.3819978 141.0680014  34.5739992  15.5869978 141.5200014
  35.0299992  16.6149978 140.5070014  34.4296956  16.3047031 141.0539822
  25.2449992  12.2909978 140.9250014  25.3099992  11.4969978 141.4560014
  25.8979992  12.1729978 140.2350014  25.3421754  12.1663337 140.9044259
  30.5979992  13.3379978 140.6610014  30.3289992  13.5189978 141.5620014
  30.3909992  12.4129978 140.5300014  30.5332000  13.2376774 140.7665693
  26.3949992  10.2639978 143.2310014  25.9349992   9.7799978 143.9170014
  26.6499992   9.5949978 142.5950014  26.3665038  10.1073689 143.2389447
  27.4659992   8.5069978 141.4930014  27.2849992   8.3519978 140.5660014
  28.4159992   8.6149978 141.5380014  27.5696566   8.5003669 141.3720929
  36.8559992  10.8609978 140.9390014  36.5819992  10.4369978 140.1260014
  36.8949992  11.7929978 140.7220014  36.8237716  10.9288827 140.7984286
  27.3629992  19.1969978 142.4950014  28.2959992  19.3549978 142.6380014
  27.0989992  19.8729978 141.8700014  27.4549308  19.3099104 142.4301396
  20.9309992  13.8339978 141.9770014  21.8449992  13.9129978 142.2510014
  20.9389992  13.1469978 141.3110014  21.0571143  13.7519085 141.9244274
  19.5799992  19.2269978 147.0550014  18.9329992  18.7649978 146.5220014
  19.9349992  18.5549978 147.6370014  19.5394506  19.0729503 147.0607341
  37.3139992  11.7299978 144.9140014  38.1639992  12.1509978 145.0410014
  37.3189992  10.9899978 145.5210014  37.4311143  11.6876094 145.0134750
  37.7079992   9.7839978 146.7380014  36.9819992   9.3039978 147.1350014
  38.2899992   9.9889978 147.4700014  37.6871635   9.7459166 146.8913748
  37.9769992   9.6849978 143.1290014  37.4549992  10.0409978 142.4100014
  37.9439992  10.3599978 143.8070014  37.9010699   9.8249848 143.1222129
  36.3259992   6.9239978 141.6800014  36.4219992   7.5909978 141.0000014
  36.1859992   6.1089978 141.1980014  36.3202063   6.9050667 141.5218377
  35.4949992   8.3049978 147.3010014  35.3449992   7.3599978 147.2800014
  35.1409992   8.5859978 148.1440014  35.4265527   8.2135605 147.4121859
  35.5729992   4.3319978 140.7970014  36.1839992   3.9609978 141.4340014
  34.7359992   3.9109978 140.9930014  35.5434947   4.2242756 140.9107252
  35.2059992   5.8869978 145.7630014  35.4849992   4.9799978 145.8870014
  35.9649992   6.3209978 145.3740014  35.3468619   5.8214502 145.7273795
  35.8189992   3.1499978 145.8110014  36.0009992   2.7009978 146.6370014
  35.2189992   2.5659978 145.3480014  35.7627529   3.0096131 145.8613619
  37.6859992   3.2179978 142.3390014  38.0979992   2.4969978 141.8640014
  38.3669992   3.8869978 142.3980014  37.8345900   3.2097306 142.2819038
  19.9669992   3.2229978 145.4660014  19.0419992   3.4309978 145.3370014
  20.4209992   3.7069978 144.7770014  19.9016374   3.3169949 145.3550957
  34.7369992  18.2069978 147.4120014  35.3899992  17.8589978 146.8040014
  35.2479992  18.6949978 148.0580014  34.8952777  18.2253815 147.4162047
  21.2429992   1.2659978 143.4450014  21.6819992   1.8769978 142.8530014
  20.6089992   1.8039978 143.9190014  21.2173859   1.4224064 143.4280305
  26.9859992   1.3939978 147.4550014  27.8599992   1.7829978 147.4250014
  26.8499992   1.1789978 148.3770014  27.0873207   1.4181923 147.5756509
  33.8959992   1.4499978 144.7960014  33.1929992   2.0649978 144.5870014
  33.4509992   0.6129978 144.9280014  33.7396292   1.4210085 144.7852439
  21.1439992  17.2139978 144.3430014  20.4589992  17.1759978 143.6750014
  21.1479992  18.1269978 144.6310014  21.0508174  17.3321998 144.2905310
  23.1039992   3.1819978 141.8870014  23.5949992   2.5519978 141.3600014
  23.7269992   3.4779978 142.5510014  23.2555062   3.1356770 141.9045438
  28.1299992   3.4749978 144.3450014  28.3079992   2.8279978 145.0270014
  28.0759992   4.3089978 144.8120014  28.1471025   3.4990504 144.5016433
  30.0079992  18.4229978 142.7400014  30.8739992  18.7899978 142.5620014
  29.7619992  17.9839978 141.9260014  30.0932097  18.4138525 142.6056019
  36.7169992  17.9859978 145.4190014  36.5229992  17.2379978 144.8540014
  36.6779992  18.7439978 144.8360014  36.6851645  17.9860786 145.2628148
  22.9619992  18.1339978 141.3680014  22.6939992  18.4199978 142.2410014
  23.7329992  17.5879978 141.5200014  23.0295600  18.0993330 141.5081499
  50.3409992  10.6239978 147.6000014  50.4299992  11.5679978 147.4680014
  49.7029992  10.3489978 146.9420014  50.2669062  10.7159812 147.4929641
  39.1759992   7.6029978 146.5400014  38.7279992   8.4489978 146.5210014
  38.6149992   7.0239978 146.0240014  39.0389603   7.6403674 146.4676720
  51.6809992   4.9379978 147.4260014  52.3279992   4.6089978 148.0510014
  52.1909992   5.4549978 146.8030014  51.8384317   4.9629227 147.4272167
  50.1379992  13.2249978 146.6430014  49.8429992  12.9019978 145.7920014
  49.8139992  14.1249978 146.6840014  50.0537983  13.3024027 146.5319771
  39.8669992  13.0359978 144.9560014  39.5949992  13.2649978 144.0670014
  39.9119992  13.8729978 145.4160014  39.8358709  13.1806058 144.8966107
  52.9039992  14.3389978 146.8020014  52.6459992  13.6489978 146.1910014
  52.9749992  13.8959978 147.6480014  52.8782837  14.1847106 146.8326912
  49.0619992   9.8679978 145.0520014  48.3509992  10.4029978 144.7000014
  49.7529992   9.9229978 144.3920014  49.0580751   9.9486777 144.9145858
  49.1159992   8.3249978 142.0910014  49.8169992   8.3479978 142.7420014
  49.4179992   7.6969978 141.4350014  49.2528282   8.2432339 142.0914496
  52.4679992  10.0769978 146.0040014  51.7359992  10.3059978 146.5770014
  52.9149992   9.3639978 146.4590014  52.4282753  10.0118972 146.1439715
  51.3389992   9.2399978 143.6890014  51.9179992   9.3899978 144.4360014
  51.7529992   9.7099978 142.9660014  51.4743122   9.3241277 143.6935042
  49.0649992  15.9759978 147.1240014  49.5389992  16.2719978 147.9020014
  48.5019992  16.7149978 146.8910014  49.0537361  16.1162721 147.1988611
  55.0379992   0.9899978 143.5020014  54.1379992   1.1289978 143.7970014
  55.2899992   1.8209978 143.1000014  54.9488683   1.1214055 143.4880232
  43.1039992   9.7769978 145.4760014  42.8119992  10.5449978 144.9850014
  42.4289992   9.1179978 145.3130014  42.9728497   9.7929745 145.3868260
  56.2269992  15.3559978 141.8780014  56.2999992  16.2949978 142.0490014
  57.1319992  15.0509978 141.8220014  56.3594158  15.4433061 141.8938392
  48.5379992  18.9329978 145.5390014  48.4619992  18.8119978 144.5930014
  48.5699992  19.8819978 145.6580014  48.5319156  19.0447530 145.4255048
  42.1909992  17.7219978 147.3200014  42.3429992  17.3739978 148.1990014
  41.3399992  17.3649978 147.0650014  42.0967899  17.6261738 147.4057340
  51.6389992  18.0869978 142.5410014  52.0139992  17.3429978 142.0710014
  51.6439992  17.8169978 143.4600014  51.6910024  17.9486950 142.6007987
  51.3079992  18.0129978 145.2910014  50.3729992  18.1129978 145.4690014
  51.5879992  17.3029978 145.8690014  51.2178173  17.9307239 145.3934998
  52.8159992  10.2719978 141.3190014  52.8579992  10.0499978 140.3890014
  53.6649992  10.6709978 141.5090014  52.9365253  10.2955498 141.2173822
  48.3889992   4.1479978 141.9890014  48.1349992   4.1669978 142.9120014
  48.1319992   3.2769978 141.6880014  48.3195133   4.0328110 142.0745082
  44.1519992   7.1199978 147.3360014  43.2599992   6.7799978 147.2780014
  44.6029992   6.7429978 146.5810014  44.0906815   7.0223762 147.2259203
  49.6879992   7.5359978 146.1530014  49.2789992   8.3509978 145.8620014
  50.4079992   7.3959978 145.5390014  49.7294013   7.6286571 146.0300875
  45.2709992   4.5939978 141.0900014  44.8399992   4.1489978 141.8200014
  44.5529992   4.9649978 140.5780014  45.1149363   4.5832968 141.1206211
  39.7879992   5.0819978 143.5660014  40.2619992   5.6729978 142.9810014
  39.0699992   5.6119978 143.9130014  39.7558640   5.2345511 143.5327969
  41.5619992   6.1769978 147.2490014  40.6729992   6.2759978 146.9090014
  41.8589992   5.3349978 146.9030014  41.4804177   6.0767687 147.1556940
  45.2149992   6.1769978 144.9060014  46.1469992   6.3059978 145.0840014
  44.9999992   6.8459978 144.2560014  45.3134472   6.2850806 144.8424891
  43.8889992   7.3709978 142.4730014  43.3469992   6.9919978 141.7810014
  44.7229992   7.5659978 142.0440014  43.9275159   7.3455076 142.3204419
  43.0559992   3.4719978 146.7280014  42.7389992   2.5689978 146.6930014
  43.8369992   3.4739978 146.1750014  43.1182307   3.3486951 146.6484314
  47.2249992  11.9369978 144.4080014  46.4799992  11.4289978 144.0860014
  47.0899992  11.9859978 145.3550014  47.1049047  11.8741596 144.4918845
  51.1219992   4.7509978 142.6080014  50.1839992   4.8619978 142.4560014
  51.4199992   5.6069978 142.9140014  51.0336402   4.8820621 142.6285571
  51.8409992   6.6179978 144.2680014  52.7329992   6.4799978 144.5870014
  51.8969992   7.4089978 143.7320014  51.9707107   6.7060526 144.2392091
  49.3499992  13.3949978 143.4340014  49.0549992  14.2219978 143.8150014
  48.6469992  12.7759978 143.6300014  49.2145471  13.4245227 143.5126698
  56.7259992   6.8269978 143.9630014  56.1709992   6.4309978 143.2910014
  56.8259992   7.7379978 143.6850014  56.6635888   6.8958990 143.8335206
  55.0209992  15.6129978 144.4280014  54.6479992  14.7879978 144.7370014
  55.2979992  15.4299978 143.5310014  55.0073871  15.4752441 144.3489677
  44.7239992  14.7499978 147.5820014  45.2519992  15.5229978 147.3820014
  43.8439992  14.9739978 147.2810014  44.6773176  14.8863161 147.5138409
  40.4789992   9.6119978 142.1700014  41.0949992  10.2389978 142.5490014
  39.6169992   9.9279978 142.4410014  40.4468195   9.7405798 142.2585386
  46.1519992  12.4129978 147.1590014  45.9109992  13.3379978 147.2000014
  45.4109992  11.9539978 147.5550014  46.0188390  12.4776403 147.2181404
  44.8349992  17.4339978 146.7040014  43.8849992  17.5399978 146.7550014
  45.1869992  18.2549978 147.0490014  44.7525480  17.5594438 146.7575999
  52.4129992  13.5899978 142.2480014  52.7669992  13.2099978 143.0530014
  51.4649992  13.4959978 142.3350014  52.3331820  13.5253092 142.3698714
  56.9169992  18.0689978 142.4490014  57.6609992  18.6549978 142.3090014
  56.2229992  18.6379978 142.7830014  56.9250201  18.2260603 142.4749772
  53.2789992  12.2619978 144.4750014  53.0019992  11.5339978 145.0310014
  54.2069992  12.3809978 144.6800014  53.3664499  12.1784213 144.5788044
  46.5039992  14.7019978 140.6950014  46.7429992  13.9529978 140.1480014
  46.2349992  14.3139978 141.5280014  46.5003233  14.5471853 140.7327809
  45.4409992  14.2719978 143.1520014  45.5879992  13.7519978 143.9420014
  45.4379992  15.1789978 143.4580014  45.4607300  14.3233964 143.3015895
  41.8939992  11.5239978 143.6620014  41.2079992  11.8769978 144.2290014
  42.4169992  12.2869978 143.4160014  41.8709033  11.6753746 143.7062661
  50.5099992   3.8389978 145.0380014  50.7299992   4.3099978 144.2350014
  51.0689992   4.2329978 145.7080014  50.6156730   3.9567432 145.0185906
  48.1789992  15.9689978 143.9010014  47.3619992  16.4659978 143.9530014
  48.7079992  16.4449978 143.2610014  48.1388508  16.1012543 143.8216035
  47.7099992   5.5669978 145.8730014  48.5219992   6.0709978 145.9190014
  47.4659992   5.4219978 146.7870014  47.7881467   5.6163749 146.0028575
  48.5939992   2.6479978 146.8110014  48.2469992   3.2649978 147.4560014
  49.2529992   3.1489978 146.3300014  48.6355949   2.8001099 146.8342271
  45.5169992  17.0129978 143.8830014  45.6779992  17.8129978 143.3820014
  45.3199992  17.3199978 144.7680014  45.5123919  17.1639129 143.9341006
  44.2519992   3.7109978 143.4980014  44.1679992   4.5989978 143.8450014
  45.1419992   3.4459978 143.7300014  44.3608163   3.7967179 143.5768596
  42.5099992  14.1379978 142.5590014  43.1019992  14.8379978 142.8350014
  42.9689992  13.7049978 141.8390014  42.6530791  14.1752908 142.4994607
  40.8259992   6.8029978 141.6750014  40.7809992   7.7419978 141.8530014
  39.9379992   6.5669978 141.4050014  40.6998555   6.8996874 141.6628939
  40.5649992  15.5249978 146.5080014  39.7319992  15.9969978 146.5360014
  41.1099992  16.0349978 145.9100014  40.5247590  15.6585897 146.4309194
  48.5419992  16.5649978 140.8340014  47.8979992  15.9339978 141.1550014
  49.3039992  16.0339978 140.6020014  48.5568058  16.4067902 140.8466038
  53.1469992  16.3819978 141.0680014  53.4299992  15.5869978 141.5200014
  53.8859992  16.6149978 140.5070014  53.2856956  16.3047031 141.0539822
  44.1009992  12.2909978 140.9250014  44.1659992  11.4969978 141.4560014
  44.7539992  12.1729978 140.2350014  44.1981754  12.1663337 140.9044259
  49.4539992  13.3379978 140.6610014  49.1849992  13.5189978 141.5620014
  49.2469992  12.4129978 140.5300014  49.3892000  13.2376774 140.7665693
  45.2509992  10.2639978 143.2310014  44.7909992   9.7799978 143.9170014
  45.5059992   9.5949978 142.5950014  45.2225038  10.1073689 143.2389447
  46.3219992   8.5069978 141.4930014  46.1409992   8.3519978 140.5660014
  47.2719992   8.6149978 141.5380014  46.4256566   8.5003669 141.3720929
  55.7119992  10.8609978 140.9390014  55.4379992  10.4369978 140.1260014
  55.7509992  11.7929978 140.7220014  55.6797716  10.9288827 140.7984286
  46.2189992  19.1969978 142.4950014  47.1519992  19.3549978 142.6380014
  45.9549992  19.8729978 141.8700014  46.3109308  19.3099104 142.4301396
  39.7869992  13.8339978 141.9770014  40.7009992  13.9129978 142.2510014
  39.7949992  13.1469978 141.3110014  39.9131143  13.7519085 141.9244274
  38.4359992  19.2269978 147.0550014  37.7889992  18.7649978 146.5220014
  38.7909992  18.5549978 147.6370014  38.3954506  19.0729503 147.0607341
  56.1699992  11.7299978 144.9140014  57.0199992  12.1509978 145.0410014
  56.1749992  10.9899978 145.5210014  56.2871143  11.6876094 145.0134750
  56.5639992   9.7839978 146.7380014  55.8379992   9.3039978 147.1350014
  57.1459992   9.9889978 147.4700014  56.5431635   9.7459166 146.8913748
  56.8329992   9.6849978 143.1290014  56.3109992  10.0409978 142.4100014
  56.7999992  10.3599978 143.8070014  56.7570699   9.8249848 143.1222129
  55.1819992   6.9239978 141.6800014  55.2779992   7.5909978 141.0000014
  55.0419992   6.1089978 141.1980014  55.1762063   6.9050667 141.5218377
  54.3509992   8.3049978 147.3010014  54.2009992   7.3599978 147.2800014
  53.9969992   8.5859978 148.1440014  54.2825527   8.2135605 147.4121859
  54.4289992   4.3319978 140.7970014  55.0399992   3.9609978 141.4340014
  53.5919992   3.9109978 140.9930014  54.3994947   4.2242756 140.9107252
  54.0619992   5.8869978 145.7630014  54.3409992   4.9799978 145.8870014
  54.8209992   6.3209978 145.3740014  54.2028619   5.8214502 145.7273795
  54.6749992   3.1499978 145.8110014  54.8569992   2.7009978 146.6370014
  54.0749992   2.5659978 145.3480014  54.6187529   3.0096131 145.8613619
  56.5419992   3.2179978 142.3390014  56.9539992   2.4969978 141.8640014
  57.2229992   3.8869978 142.3980014  56.6905900   3.2097306 142.2819038
  38.8229992   3.2229978 145.4660014  37.8979992   3.4309978 145.3370014
  39.2769992   3.7069978 144.7770014  38.7576374   3.3169949 145.3550957
  53.5929992  18.2069978 147.4120014  54.2459992  17.8589978 146.8040014
  54.1039992  18.6949978 148.0580014  53.7512777  18.2253815 147.4162047
  40.0989992   1.2659978 143.4450014  40.5379992   1.8769978 142.8530014
  39.4649992   1.8039978 143.9190014  40.0733859   1.4224064 143.4280305
  45.8419992   1.3939978 147.4550014  46.7159992   1.7829978 147.4250014
  45.7059992   1.1789978 148.3770014  45.9433207   1.4181923 147.5756509
  52.7519992   1.4499978 144.7960014  52.0489992   2.0649978 144.5870014
  52.3069992   0.6129978 144.9280014  52.5956292   1.4210085 144.7852439
  39.9999992  17.2139978 144.3430014  39.3149992  17.1759978 143.6750014
  40.0039992  18.1269978 144.6310014  39.9068174  17.3321998 144.2905310
  41.9599992   3.1819978 141.8870014  42.4509992   2.5519978 141.3600014
  42.5829992   3.4779978 142.5510014  42.1115062   3.1356770 141.9045438
  46.9859992   3.4749978 144.3450014  47.1639992   2.8279978 145.0270014
  46.9319992   4.3089978 144.8120014  47.0031025   3.4990504 144.5016433
  48.8639992  18.4229978 142.7400014  49.7299992  18.7899978 142.5620014
  48.6179992  17.9839978 141.9260014  48.9492097  18.4138525 142.6056019
  55.5729992  17.9859978 145.4190014  55.3789992  17.2379978 144.8540014
  55.5339992  18.7439978 144.8360014  55.5411645  17.9860786 145.2628148
  41.8179992  18.1339978 141.3680014  41.5499992  18.4199978 142.2410014
  42.5889992  17.5879978 141.5200014  41.8855600  18.0993330 141.5081499
  69.1969992  10.6239978 147.6000014  69.2859992  11.5679978 147.4680014
  68.5589992  10.3489978 146.9420014  69.1229062  10.7159812 147.4929641
  58.0319992   7.6029978 146.5400014  57.5839992   8.4489978 146.5210014
  57.4709992   7.0239978 146.0240014  57.8949603   7.6403674 146.4676720
  70.5369992   4.9379978 147.4260014  71.1839992   4.6089978 148.0510014
  71.0469992   5.4549978 146.8030014  70.6944317   4.9629227 147.4272167
  68.9939992  13.2249978 146.6430014  68.6989992  12.9019978 145.7920014
  68.6699992  14.1249978 146.6840014  68.9097983  13.3024026 146.5319771
  58.7229992  13.0359978 144.9560014  58.4509992  13.2649978 144.0670014
  58.7679992  13.8729978 145.4160014  58.6918709  13.1806058 144.8966107
  71.7599992  14.3389978 146.8020014  71.5019992  13.6489978 146.1910014
  71.8309992  13.8959978 147.6480014  71.7342837  14.1847106 146.8326912
  67.9179992   9.8679978 145.0520014  67.2069992  10.4029978 144.7000014
  68.6089992   9.9229978 144.3920014  67.9140751   9.9486777 144.9145858
  67.9719992   8.3249978 142.0910014  68.6729992   8.3479978 142.7420014
  68.2739992   7.6969978 141.4350014  68.1088282   8.2432339 142.0914496
  71.3239992  10.0769978 146.0040014  70.5919992  10.3059978 146.5770014
  71.7709992   9.3639978 146.4590014  71.2842753  10.0118972 146.1439715
  70.1949992   9.2399978 143.6890014  70.7739992   9.3899978 144.4360014
  70.6089992   9.7099978 142.9660014  70.3303122   9.3241277 143.6935042
  67.9209992  15.9759978 147.1240014  68.3949992  16.2719978 147.9020014
  67.3579992  16.7149978 146.8910014  67.9097361  16.1162721 147.1988611
  73.8939992   0.9899978 143.5020014  72.9939992   1.1289978 143.7970014
  74.1459992   1.8209978 143.1000014  73.8048683   1.1214055 143.4880232
  61.9599992   9.7769978 145.4760014  61.6679992  10.5449978 144.9850014
  61.2849992   9.1179978 145.3130014  61.8288497   9.7929745 145.3868260
  75.0829992  15.3559978 141.8780014  75.1559992  16.2949978 142.0490014
  75.9879992  15.0509978 141.8220014  75.2154158  15.4433061 141.8938392
  67.3939992  18.9329978 145.5390014  67.3179992  18.8119978 144.5930014
  67.4259992  19.8819978 145.6580014  67.3879156  19.0447530 145.4255048
  61.0469992  17.7219978 147.3200014  61.1989992  17.3739978 148.1990014
  60.1959992  17.3649978 147.0650014  60.9527899  17.6261738 147.4057340
  70.4949992  18.0869978 142.5410014  70.8699992  17.3429978 142.0710014
  70.4999992  17.8169978 143.4600014  70.5470023  17.9486950 142.6007987
  70.1639992  18.0129978 145.2910014  69.2289992  18.1129978 145.4690014
  70.4439992  17.3029978 145.8690014  70.0738173  17.9307239 145.3934998
  71.6719992  10.2719978 141.3190014  71.7139992  10.0499978 140.3890014
  72.5209992  10.6709978 141.5090014  71.7925253  10.2955498 141.2173822
  67.2449992   4.1479978 141.9890014  66.9909992   4.1669978 142.9120014
  66.9879992   3.2769978 141.6880014  67.1755133   4.0328110 142.0745082
  63.0079992   7.1199978 147.3360014  62.1159992   6.7799978 147.2780014
  63.4589992   6.7429978 146.5810014  62.9466815   7.0223762 147.2259203
  68.5439992   7.5359978 146.1530014  68.1349992   8.3509978 145.8620014
  69.2639992   7.3959978 145.5390014  68.5854013   7.6286571 146.0300875
  64.1269992   4.5939978 141.0900014  63.6959992   4.1489978 141.8200014
  63.4089992   4.9649978 140.5780014  63.9709363   4.5832968 141.1206211
  58.6439992   5.0819978 143.5660014  59.1179992   5.6729978 142.9810014
  57.9259992   5.6119978 143.9130014  58.6118640   5.2345511 143.5327969
  60.4179992   6.1769978 147.2490014  59.5289992   6.2759978 146.9090014
  60.7149992   5.3349978 146.9030014  60.3364177   6.0767687 147.1556940
  64.0709992   6.1769978 144.9060014  65.0029992   6.3059978 145.0840014
  63.8559992   6.8459978 144.2560014  64.1694472   6.2850806 144.8424891
  62.7449992   7.3709978 142.4730014  62.2029992   6.9919978 141.7810014
  63.5789992   7.5659978 142.0440014  62.7835159   7.3455076 142.3204419
  61.9119992   3.4719978 146.7280014  61.5949992   2.5689978 146.6930014
  62.6929992   3.4739978 146.1750014  61.9742307   3.3486951 146.6484314
  66.0809992  11.9369978 144.4080014  65.3359992  11.4289978 144.0860014
  65.9459992  11.9859978 145.3550014  65.9609047  11.8741596 144.4918845
  69.9779992   4.7509978 142.6080014  69.0399992   4.8619978 142.4560014
  70.2759992   5.6069978 142.9140014  69.8896402   4.8820621 142.6285571
  70.6969992   6.6179978 144.2680014  71.5889992   6.4799978 144.5870014
  70.7529992   7.4089978 143.7320014  70.8267107   6.7060526 144.2392091
  68.2059992  13.3949978 143.4340014  67.9109992  14.2219978 143.8150014
  67.5029992  12.7759978 143.6300014  68.0705471  13.4245227 143.5126698
  75.5819992   6.8269978 143.9630014  75.0269992   6.4309978 143.2910014
  75.6819992   7.7379978 143.6850014  75.5195888   6.8958990 143.8335206
  73.8769992  15.6129978 144.4280014  73.5039992  14.7879978 144.7370014
  74.1539992  15.4299978 143.5310014  73.8633871  15.4752441 144.3489677
  63.5799992  14.7499978 147.5820014  64.1079992  15.5229978 147.3820014
  62.6999992  14.9739978 147.2810014  63.5333176  14.8863161 147.5138409
  59.3349992   9.6119978 142.1700014  59.9509992  10.2389978 142.5490014
  58.4729992   9.9279978 142.4410014  59.3028195   9.7405798 142.2585386
  65.0079992  12.4129978 147.1590014  64.7669992  13.3379978 147.2000014
  64.2669992  11.9539978 147.5550014  64.8748390  12.4776403 147.2181404
  63.6909992  17.4339978 146.7040014  62.7409992  17.5399978 146.7550014
  64.0429992  18.2549978 147.0490014  63.6085480  17.5594438 146.7575999
  71.2689992  13.5899978 142.2480014  71.6229992  13.2099978 143.0530014
  70.3209992  13.4959978 142.3350014  71.1891820  13.5253092 142.3698714
  75.7729992  18.0689978 142.4490014  76.5169992  18.6549978 142.3090014
  75.0789992  18.6379978 142.7830014  75.7810201  18.2260603 142.4749772
  72.1349992  12.2619978 144.4750014  71.8579992  11.5339978 145.0310014
  73.0629992  12.3809978 144.6800014  72.2224499  12.1784213 144.5788044
  65.3599992  14.7019978 140.6950014  65.5989992  13.9529978 140.1480014
  65.0909992  14.3139978 141.5280014  65.3563233  14.5471853 140.7327809
  64.2969992  14.2719978 143.1520014  64.4439992  13.7519978 143.9420014
  64.2939992  15.1789978 143.4580014  64.3167300  14.3233964 143.3015895
  60.7499992  11.5239978 143.6620014  60.0639992  11.8769978 144.2290014
  61.2729992  12.2869978 143.4160014  60.7269033  11.6753746 143.7062661
  69.3659992   3.8389978 145.0380014  69.5859992   4.3099978 144.2350014
  69.9249992   4.2329978 145.7080014  69.4716730   3.9567432 145.0185906
  67.0349992  15.9689978 143.9010014  66.2179992  16.4659978 143.9530014
  67.5639992  16.4449978 143.2610014  66.9948508  16.1012543 143.8216035
  66.5659992   5.5669978 145.8730014  67.3779992   6.0709978 145.9190014
  66.3219992   5.4219978 146.7870014  66.6441467   5.6163749 146.0028575
  67.4499992   2.6479978 146.8110014  67.1029992   3.2649978 147.4560014
  68.1089992   3.1489978 146.3300014  67.4915949   2.8001099 146.8342271
  64.3729992  17.0129978 143.8830014  64.5339992  17.8129978 143.3820014
  64.1759992  17.3199978 144.7680014  64.3683919  17.1639129 143.9341006
  63.1079992   3.7109978 143.4980014  63.0239992   4.5989978 143.8450014
  63.9979992   3.4459978 143.7300014  63.2168163   3.7967179 143.5768596
  61.3659992  14.1379978 142.5590014  61.9579992  14.8379978 142.8350014
  61.8249992  13.7049978 141.8390014  61.5090791  14.1752908 142.4994607
  59.6819992   6.8029978 141.6750014  59.6369992   7.7419978 141.8530014
  58.7939992   6.5669978 141.4050014  59.5558555   6.8996874 141.6628939
  59.4209992  15.5249978 146.5080014  58.5879992  15.9969978 146.5360014
  59.9659992  16.0349978 145.9100014  59.3807590  15.6585897 146.4309194
  67.3979992  16.5649978 140.8340014  66.7539992  15.9339978 141.1550014
  68.1599992  16.0339978 140.6020014  67.4128058  16.4067902 140.8466038
  72.0029992  16.3819978 141.0680014  72.2859992  15.5869978 141.5200014
  72.7419992  16.6149978 140.5070014  72.1416956  16.3047031 141.0539822
  62.9569992  12.2909978 140.9250014  63.0219992  11.4969978 141.4560014
  63.6099992  12.1729978 140.2350014  63.0541754  12.1663337 140.9044259
  68.3099992  13.3379978 140.6610014  68.0409992  13.5189978 141.5620014
  68.1029992  12.4129978 140.5300014  68.2452000  13.2376774 140.7665693
  64.1069992  10.2639978 143.2310014  63.6469992   9.7799978 143.9170014
  64.3619992   9.5949978 142.5950014  64.0785038  10.1073689 143.2389447
  65.1779992   8.5069978 141.4930014  64.9969992   8.3519978 140.5660014
  66.1279992   8.6149978 141.5380014  65.2816566   8.5003669 141.3720929
  74.5679992  10.8609978 140.9390014  74.2939992  10.4369978 140.1260014
  74.6069992  11.7929978 140.7220014  74.5357716  10.9288827 140.7984286
  65.0749992  19.1969978 142.4950014  66.0079992  19.3549978 142.6380014
  64.8109992  19.8729978 141.8700014  65.1669308  19.3099104 142.4301396
  58.6429992  13.8339978 141.9770014  59.5569992  13.9129978 142.2510014
  58.6509992  13.1469978 141.3110014  58.7691143  13.7519085 141.9244274
  57.2919992  19.2269978 147.0550014  56.6449992  18.7649978 146.5220014
  57.6469992  18.5549978 147.6370014  57.2514506  19.0729503 147.0607341
  75.0259992  11.7299978 144.9140014  75.8759992  12.1509978 145.0410014
  75.0309992  10.9899978 145.5210014  75.1431143  11.6876094 145.0134750
  75.4199992   9.7839978 146.7380014  74.6939992   9.3039978 147.1350014
  76.0019992   9.9889978 147.4700014  75.3991635   9.7459166 146.8913748
  75.6889992   9.6849978 143.1290014  75.1669992  10.0409978 142.4100014
  75.6559992  10.3599978 143.8070014  75.6130699   9.8249848 143.1222129
  74.0379992   6.9239978 141.6800014  74.1339992   7.5909978 141.0000014
  73.8979992   6.1089978 141.1980014  74.0322063   6.9050667 141.5218377
  73.2069992   8.3049978 147.3010014  73.0569992   7.3599978 147.2800014
  72.8529992   8.5859978 148.1440014  73.1385527   8.2135605 147.4121859
  73.2849992   4.3319978 140.7970014  73.8959992   3.9609978 141.4340014
  72.4479992   3.9109978 140.9930014  73.2554947   4.2242755 140.9107252
  72.9179992   5.8869978 145.7630014  73.1969992   4.9799978 145.8870014
  73.6769992   6.3209978 145.3740014  73.0588619   5.8214502 145.7273795
  73.5309992   3.1499978 145.8110014  73.7129992   2.7009978 146.6370014
  72.9309992   2.5659978 145.3480014  73.4747529   3.0096131 145.8613619
  75.3979992   3.2179978 142.3390014  75.8099992   2.4969978 141.8640014
  76.0789992   3.8869978 142.3980014  75.5465900   3.2097306 142.2819038
  57.6789992   3.2229978 145.4660014  56.7539992   3.4309978 145.3370014
  58.1329992   3.7069978 144.7770014  57.6136374   3.3169949 145.3550957
  72.4489992  18.2069978 147.4120014  73.1019992  17.8589978 146.8040014
  72.9599992  18.6949978 148.0580014  72.6072777  18.2253815 147.4162047
  58.9549992   1.2659978 143.4450014  59.3939992   1.8769978 142.8530014
  58.3209992   1.8039978 143.9190014  58.9293859   1.4224064 143.4280305
  64.6979992   1.3939978 147.4550014  65.5719992   1.7829978 147.4250014
  64.5619992   1.1789978 148.3770014  64.7993207   1.4181923 147.5756509
  71.6079992   1.4499978 144.7960014  70.9049992   2.0649978 144.5870014
  71.1629992   0.6129978 144.9280014  71.4516292   1.4210085 144.7852439
  58.8559992  17.2139978 144.3430014  58.1709992  17.1759978 143.6750014
  58.8599992  18.1269978 144.6310014  58.7628174  17.3321998 144.2905310
  60.8159992   3.1819978 141.8870014  61.3069992   2.5519978 141.3600014
  61.4389992   3.4779978 142.5510014  60.9675062   3.1356770 141.9045438
  65.8419992   3.4749978 144.3450014  66.0199992   2.8279978 145.0270014
  65.7879992   4.3089978 144.8120014  65.8591025   3.4990504 144.5016433
  67.7199992  18.4229978 142.7400014  68.5859992  18.7899978 142.5620014
  67.4739992  17.9839978 141.9260014  67.8052097  18.4138525 142.6056019
  74.4289992  17.9859978 145.4190014  74.2349992  17.2379978 144.8540014
  74.3899992  18.7439978 144.8360014  74.3971645  17.9860786 145.2628148
  60.6739992  18.1339978 141.3680014  60.4059992  18.4199978 142.2410014
  61.4449992  17.5879978 141.5200014  60.7415600  18.0993330 141.5081499
  88.0529992  10.6239978 147.6000014  88.1419992  11.5679978 147.4680014
  87.4149992  10.3489978 146.9420014  87.9789062  10.7159812 147.4929641
  76.8879992   7.6029978 146.5400014  76.4399992   8.4489978 146.5210014
  76.3269992   7.0239978 146.0240014  76.7509603   7.6403674 146.4676720
  89.3929992   4.9379978 147.4260014  90.0399992   4.6089978 148.0510014
  89.9029992   5.4549978 146.8030014  89.5504317   4.9629227 147.4272167
  87.8499992  13.2249978 146.6430014  87.5549992  12.9019978 145.7920014
  87.5259992  14.1249978 146.6840014  87.7657983  13.3024026 146.5319771
  77.5789992  13.0359978 144.9560014  77.3069992  13.2649978 144.0670014
  77.6239992  13.8729978 145.4160014  77.5478709  13.1806058 144.8966107
  90.6159992  14.3389978 146.8020014  90.3579992  13.6489978 146.1910014
  90.6869992  13.8959978 147.6480014  90.5902837  14.1847106 146.8326912
  86.7739992   9.8679978 145.0520014  86.0629992  10.4029978 144.7000014
  87.4649992   9.9229978 144.3920014  86.7700751   9.9486777 144.9145858
  86.8279992   8.3249978 142.0910014  87.5289992   8.3479978 142.7420014
  87.1299992   7.6969978 141.4350014  86.9648282   8.2432339 142.0914496
  90.1799992  10.0769978 146.0040014  89.4479992  10.3059978 146.5770014
  90.6269992   9.3639978 146.4590014  90.1402753  10.0118972 146.1439715
  89.0509992   9.2399978 143.6890014  89.6299992   9.3899978 144.4360014
  89.4649992   9.7099978 142.9660014  89.1863122   9.3241277 143.6935042
  86.7769992  15.9759978 147.1240014  87.2509992  16.2719978 147.9020014
  86.2139992  16.7149978 146.8910014  86.7657361  16.1162721 147.1988611
  92.7499992   0.9899978 143.5020014  91.8499992   1.1289978 143.7970014
  93.0019992   1.8209978 143.1000014  92.6608683   1.1214055 143.4880232
  80.8159992   9.7769978 145.4760014  80.5239992  10.5449978 144.9850014
  80.1409992   9.1179978 145.3130014  80.6848497   9.7929745 145.3868260
  93.9389992  15.3559978 141.8780014  94.0119992  16.2949978 142.0490014
  94.8439992  15.0509978 141.8220014  94.0714158  15.4433061 141.8938392
  86.2499992  18.9329978 145.5390014  86.1739992  18.8119978 144.5930014
  86.2819992  19.8819978 145.6580014  86.2439156  19.0447530 145.4255048
  79.9029992  17.7219978 147.3200014  80.0549992  17.3739978 148.1990014
  79.0519992  17.3649978 147.0650014  79.8087899  17.6261738 147.4057340
  89.3509992  18.0869978 142.5410014  89.7259992  17.3429978 142.0710014
  89.3559992  17.8169978 143.4600014  89.4030024  17.9486950 142.6007987
  89.0199992  18.0129978 145.2910014  88.0849992  18.1129978 145.4690014
  89.2999992  17.3029978 145.8690014  88.9298173  17.9307239 145.3934998
  90.5279992  10.2719978 141.3190014  90.5699992  10.0499978 140.3890014
  91.3769992  10.6709978 141.5090014  90.6485253  10.2955498 141.2173822
  86.1009992   4.1479978 141.9890014  85.8469992   4.1669978 142.9120014
  85.8439992   3.2769978 141.6880014  86.0315133   4.0328110 142.0745082
  81.8639992   7.1199978 147.3360014  80.9719992   6.7799978 147.2780014
  82.3149992   6.7429978 146.5810014  81.8026815   7.0223762 147.2259203
  87.3999992   7.5359978 146.1530014  86.9909992   8.3509978 145.8620014
  88.1199992   7.3959978 145.5390014  87.4414013   7.6286571 146.0300875
  82.9829992   4.5939978 141.0900014  82.5519992   4.1489978 141.8200014
  82.2649992   4.9649978 140.5780014  82.8269363   4.5832968 141.1206211
  77.4999992   5.0819978 143.5660014  77.9739992   5.6729978 142.9810014
  76.7819992   5.6119978 143.9130014  77.4678640   5.2345511 143.5327969
  79.2739992   6.1769978 147.2490014  78.3849992   6.2759978 146.9090014
  79.5709992   5.3349978 146.9030014  79.1924177   6.0767687 147.1556940
  82.9269992   6.1769978 144.9060014  83.8589992   6.3059978 145.0840014
  82.7119992   6.8459978 144.2560014  83.0254472   6.2850806 144.8424891
  81.6009992   7.3709978 142.4730014  81.0589992   6.9919978 141.7810014
  82.4349992   7.5659978 142.0440014  81.6395159   7.3455076 142.3204419
  80.7679992   3.4719978 146.7280014  80.4509992   2.5689978 146.6930014
  81.5489992   3.4739978 146.1750014  80.8302307   3.3486951 146.6484314
  84.9369992  11.9369978 144.4080014  84.1919992  11.4289978 144.0860014
  84.8019992  11.9859978 145.3550014  84.8169047  11.8741596 144.4918845
  88.8339992   4.7509978 142.6080014  87.8959992   4.8619978 142.4560014
  89.1319992   5.6069978 142.9140014  88.7456402   4.8820621 142.6285571
  89.5529992   6.6179978 144.2680014  90.4449992   6.4799978 144.5870014
  89.6089992   7.4089978 143.7320014  89.6827107   6.7060526 144.2392091
  87.0619992  13.3949978 143.4340014  86.7669992  14.2219978 143.8150014
  86.3589992  12.7759978 143.6300014  86.9265471  13.4245227 143.5126698
  94.4379992   6.8269978 143.9630014  93.8829992   6.4309978 143.2910014
  94.5379992   7.7379978 143.6850014  94.3755888   6.8958990 143.8335206
  92.7329992  15.6129978 144.4280014  92.3599992  14.7879978 144.7370014
  93.0099992  15.4299978 143.5310014  92.7193871  15.4752441 144.3489677
  82.4359992  14.7499978 147.5820014  82.9639992  15.5229978 147.3820014
  81.5559992  14.9739978 147.2810014  82.3893176  14.8863161 147.5138409
  78.1909992   9.6119978 142.1700014  78.8069992  10.2389978 142.5490014
  77.3289992   9.9279978 142.4410014  78.1588195   9.7405798 142.2585386
  83.8639992  12.4129978 147.1590014  83.6229992  13.3379978 147.2000014
  83.1229992  11.9539978 147.5550014  83.7308390  12.4776403 147.2181404
  82.5469992  17.4339978 146.7040014  81.5969992  17.5399978 146.7550014
  82.8989992  18.2549978 147.0490014  82.4645480  17.5594438 146.7575999
  90.1249992  13.5899978 142.2480014  90.4789992  13.2099978 143.0530014
  89.1769992  13.4959978 142.3350014  90.0451820  13.5253092 142.3698714
  94.6289992  18.0689978 142.4490014  95.3729992  18.6549978 142.3090014
  93.9349992  18.6379978 142.7830014  94.6370201  18.2260603 142.4749772
  90.9909992  12.2619978 144.4750014  90.7139992  11.5339978 145.0310014
  91.9189992  12.3809978 144.6800014  91.0784499  12.1784213 144.5788044
  84.2159992  14.7019978 140.6950014  84.4549992  13.9529978 140.1480014
  83.9469992  14.3139978 141.5280014  84.2123233  14.5471853 140.7327809
  83.1529992  14.2719978 143.1520014  83.2999992  13.7519978 143.9420014
  83.1499992  15.1789978 143.4580014  83.1727300  14.3233964 143.3015895
  79.6059992  11.5239978 143.6620014  78.9199992  11.8769978 144.2290014
  80.1289992  12.2869978 143.4160014  79.5829033  11.6753746 143.7062661
  88.2219992   3.8389978 145.0380014  88.4419992   4.3099978 144.2350014
  88.7809992   4.2329978 145.7080014  88.3276730   3.9567432 145.0185906
  85.8909992  15.9689978 143.9010014  85.0739992  16.4659978 143.9530014
  86.4199992  16.4449978 143.2610014  85.8508508  16.1012543 143.8216035
  85.4219992   5.5669978 145.8730014  86.2339992   6.0709978 145.9190014
  85.1779992   5.4219978 146.7870014  85.5001467   5.6163749 146.0028575
  86.3059992   2.6479978 146.8110014  85.9589992   3.2649978 147.4560014
  86.9649992   3.1489978 146.3300014  86.3475949   2.8001099 146.8342271
  83.2289992  17.0129978 143.8830014  83.3899992  17.8129978 143.3820014
  83.0319992  17.3199978 144.7680014  83.2243919  17.1639129 143.9341006
  81.9639992   3.7109978 143.4980014  81.8799992   4.5989978 143.8450014
  82.8539992   3.4459978 143.7300014  82.0728163   3.7967179 143.5768596
  80.2219992  14.1379978 142.5590014  80.8139992  14.8379978 142.8350014
  80.6809992  13.7049978 141.8390014  80.3650791  14.1752908 142.4994607
  78.5379992   6.8029978 141.6750014  78.4929992   7.7419978 141.8530014
  77.6499992   6.5669978 141.4050014  78.4118555   6.8996874 141.6628939
  78.2769992  15.5249978 146.5080014  77.4439992  15.9969978 146.5360014
  78.8219992  16.0349978 145.9100014  78.2367590  15.6585897 146.4309194
  86.2539992  16.5649978 140.8340014  85.6099992  15.9339978 141.1550014
  87.0159992  16.0339978 140.6020014  86.2688058  16.4067902 140.8466038
  90.8589992  16.3819978 141.0680014  91.1419992  15.5869978 141.5200014
  91.5979992  16.6149978 140.5070014  90.9976956  16.3047031 141.0539822
  81.8129992  12.2909978 140.9250014  81.8779992  11.4969978 141.4560014
  82.4659992  12.1729978 140.2350014  81.9101754  12.1663337 140.9044259
  87.1659992  13.3379978 140.6610014  86.8969992  13.5189978 141.5620014
  86.9589992  12.4129978 140.5300014  87.1012000  13.2376774 140.7665693
  82.9629992  10.2639978 143.2310014  82.5029992   9.7799978 143.9170014
  83.2179992   9.5949978 142.5950014  82.9345038  10.1073689 143.2389447
  84.0339992   8.5069978 141.4930014  83.8529992   8.3519978 140.5660014
  84.9839992   8.6149978 141.5380014  84.1376566   8.5003669 141.3720929
  93.4239992  10.8609978 140.9390014  93.1499992  10.4369978 140.1260014
  93.4629992  11.7929978 140.7220014  93.3917716  10.9288827 140.7984286
  83.9309992  19.1969978 142.4950014  84.8639992  19.3549978 142.6380014
  83.6669992  19.8729978 141.8700014  84.0229308  19.3099104 142.4301396
  77.4989992  13.8339978 141.9770014  78.4129992  13.9129978 142.2510014
  77.5069992  13.1469978 141.3110014  77.6251143  13.7519085 141.9244274
  76.1479992  19.2269978 147.0550014  75.5009992  18.7649978 146.5220014
  76.5029992  18.5549978 147.6370014  76.1074506  19.0729503 147.0607341
  93.8819992  11.7299978 144.9140014  94.7319992  12.1509978 145.0410014
  93.8869992  10.9899978 145.5210014  93.9991143  11.6876094 145.0134750
  94.2759992   9.7839978 146.7380014  93.5499992   9.3039978 147.1350014
  94.8579992   9.9889978 147.4700014  94.2551635   9.7459166 146.8913748
  94.5449992   9.6849978 143.1290014  94.0229992  10.0409978 142.4100014
  94.5119992  10.3599978 143.8070014  94.4690699   9.8249848 143.1222129
  92.8939992   6.9239978 141.6800014  92.9899992   7.5909978 141.0000014
  92.7539992   6.1089978 141.1980014  92.8882063   6.9050667 141.5218377
  92.0629992   8.3049978 147.3010014  91.9129992   7.3599978 147.2800014
  91.7089992   8.5859978 148.1440014  91.9945527   8.2135605 147.4121859
  92.1409992   4.3319978 140.7970014  92.7519992   3.9609978 141.4340014
  91.3039992   3.9109978 140.9930014  92.1114947   4.2242756 140.9107252
  91.7739992   5.8869978 145.7630014  92.0529992   4.9799978 145.8870014
  92.5329992   6.3209978 145.3740014  91.9148619   5.8214502 145.7273795
  92.3869992   3.1499978 145.8110014  92.5689992   2.7009978 146.6370014
  91.7869992   2.5659978 145.3480014  92.3307529   3.0096131 145.8613619
  94.2539992   3.2179978 142.3390014  94.6659992   2.4969978 141.8640014
  94.9349992   3.8869978 142.3980014  94.4025900   3.2097306 142.2819038
  76.5349992   3.2229978 145.4660014  75.6099992   3.4309978 145.3370014
  76.9889992   3.7069978 144.7770014  76.4696374   3.3169949 145.3550957
  91.3049992  18.2069978 147.4120014  91.9579992  17.8589978 146.8040014
  91.8159992  18.6949978 148.0580014  91.4632777  18.2253815 147.4162047
  77.8109992   1.2659978 143.4450014  78.2499992   1.8769978 142.8530014
  77.1769992   1.8039978 143.9190014  77.7853859   1.4224064 143.4280305
  83.5539992   1.3939978 147.4550014  84.4279992   1.7829978 147.4250014
  83.4179992   1.1789978 148.3770014  83.6553207   1.4181923 147.5756509
  90.4639992   1.4499978 144.7960014  89.7609992   2.0649978 144.5870014
  90.0189992   0.6129978 144.9280014  90.3076292   1.4210085 144.7852439
  77.7119992  17.2139978 144.3430014  77.0269992  17.1759978 143.6750014
  77.7159992  18.1269978 144.6310014  77.6188174  17.3321998 144.2905310
  79.6719992   3.1819978 141.8870014  80.1629992   2.5519978 141.3600014
  80.2949992   3.4779978 142.5510014  79.8235062   3.1356770 141.9045438
  84.6979992   3.4749978 144.3450014  84.8759992   2.8279978 145.0270014
  84.6439992   4.3089978 144.8120014  84.7151025   3.4990504 144.5016433
  86.5759992  18.4229978 142.7400014  87.4419992  18.7899978 142.5620014
  86.3299992  17.9839978 141.9260014  86.6612097  18.4138525 142.6056019
  93.2849992  17.9859978 145.4190014  93.0909992  17.2379978 144.8540014
  93.2459992  18.7439978 144.8360014  93.2531645  17.9860786 145.2628148
  79.5299992  18.1339978 141.3680014  79.2619992  18.4199978 142.2410014
  80.3009992  17.5879978 141.5200014  79.5975600  18.0993330 141.5081499
 106.9089992  10.6239978 147.6000014 106.9979992  11.5679978 147.4680014
 106.2709992  10.3489978 146.9420014 106.8349062  10.7159812 147.4929641
  95.7439992   7.6029978 146.5400014  95.2959992   8.4489978 146.5210014
  95.1829992   7.0239978 146.0240014  95.6069603   7.6403674 146.4676720
 108.2489992   4.9379978 147.4260014 108.8959992   4.6089978 148.0510014
 108.7589992   5.4549978 146.8030014 108.4064317   4.9629227 147.4272167
 106.7059992  13.2249978 146.6430014 106.4109992  12.9019978 145.7920014
 106.3819992  14.1249978 146.6840014 106.6217983  13.3024026 146.5319771
  96.4349992  13.0359978 144.9560014  96.1629992  13.2649978 144.0670014
  96.4799992  13.8729978 145.4160014  96.4038709  13.1806058 144.8966107
 109.4719992  14.3389978 146.8020014 109.2139992  13.6489978 146.1910014
 109.5429992  13.8959978 147.6480014 109.4462837  14.1847106 146.8326912
 105.6299992   9.8679978 145.0520014 104.9189992  10.4029978 144.7000014
 106.3209992   9.9229978 144.3920014 105.6260751   9.9486777 144.9145858
 105.6839992   8.3249978 142.0910014 106.3849992   8.3479978 142.7420014
 105.9859992   7.6969978 141.4350014 105.8208282   8.2432339 142.0914496
 109.0359992  10.0769978 146.0040014 108.3039992  10.3059978 146.5770014
 109.4829992   9.3639978 146.4590014 108.9962753  10.0118972 146.1439715
 107.9069992   9.2399978 143.6890014 108.4859992   9.3899978 144.4360014
 108.3209992   9.7099978 142.9660014 108.0423122   9.3241277 143.6935042
 105.6329992  15.9759978 147.1240014 106.1069992  16.2719978 147.9020014
 105.0699992  16.7149978 146.8910014 105.6217361  16.1162721 147.1988611
 111.6059992   0.9899978 143.5020014 110.7059992   1.1289978 143.7970014
 111.8579992   1.8209978 143.1000014 111.5168683   1.1214055 143.4880232
  99.6719992   9.7769978 145.4760014  99.3799992  10.5449978 144.9850014
  98.9969992   9.1179978 145.3130014  99.5408497   9.7929745 145.3868260
 112.7949992  15.3559978 141.8780014 112.8679992  16.2949978 142.0490014
 113.6999992  15.0509978 141.8220014 112.9274158  15.4433061 141.8938392
 105.1059992  18.9329978 145.5390014 105.0299992  18.8119978 144.5930014
 105.1379992  19.8819978 145.6580014 105.0999156  19.0447530 145.4255048
  98.7589992  17.7219978 147.3200014  98.9109992  17.3739978 148.1990014
  97.9079992  17.3649978 147.0650014  98.6647899  17.6261738 147.4057340
 108.2069992  18.0869978 142.5410014 108.5819992  17.3429978 142.0710014
 108.2119992  17.8169978 143.4600014 108.2590024  17.9486950 142.6007987
 107.8759992  18.0129978 145.2910014 106.9409992  18.1129978 145.4690014
 108.1559992  17.3029978 145.8690014 107.7858173  17.9307239 145.3934998
 109.3839992  10.2719978 141.3190014 109.4259992  10.0499978 140.3890014
 110.2329992  10.6709978 141.5090014 109.5045253  10.2955498 141.2173822
 104.9569992   4.1479978 141.9890014 104.7029992   4.1669978 142.9120014
 104.6999992   3.2769978 141.6880014 104.8875133   4.0328110 142.0745082
 100.7199992   7.1199978 147.3360014  99.8279992   6.7799978 147.2780014
 101.1709992   6.7429978 146.5810014 100.6586815   7.0223762 147.2259203
 106.2559992   7.5359978 146.1530014 105.8469992   8.3509978 145.8620014
 106.9759992   7.3959978 145.5390014 106.2974013   7.6286571 146.0300875
 101.8389992   4.5939978 141.0900014 101.4079992   4.1489978 141.8200014
 101.1209992   4.9649978 140.5780014 101.6829363   4.5832968 141.1206211
  96.3559992   5.0819978 143.5660014  96.8299992   5.6729978 142.9810014
  95.6379992   5.6119978 143.9130014  96.3238640   5.2345511 143.5327969
  98.1299992   6.1769978 147.2490014  97.2409992   6.2759978 146.9090014
  98.4269992   5.3349978 146.9030014  98.0484177   6.0767687 147.1556940
 101.7829992   6.1769978 144.9060014 102.7149992   6.3059978 145.0840014
 101.5679992   6.8459978 144.2560014 101.8814472   6.2850806 144.8424891
 100.4569992   7.3709978 142.4730014  99.9149992   6.9919978 141.7810014
 101.2909992   7.5659978 142.0440014 100.4955159   7.3455076 142.3204419
  99.6239992   3.4719978 146.7280014  99.3069992   2.5689978 146.6930014
 100.4049992   3.4739978 146.1750014  99.6862307   3.3486951 146.6484314
 103.7929992  11.9369978 144.4080014 103.0479992  11.4289978 144.0860014
 103.6579992  11.9859978 145.3550014 103.6729047  11.8741596 144.4918845
 107.6899992   4.7509978 142.6080014 106.7519992   4.8619978 142.4560014
 107.9879992   5.6069978 142.9140014 107.6016402   4.8820621 142.6285571
 108.4089992   6.6179978 144.2680014 109.3009992   6.4799978 144.5870014
 108.4649992   7.4089978 143.7320014 108.5387107   6.7060526 144.2392091
 105.9179992  13.3949978 143.4340014 105.6229992  14.2219978 143.8150014
 105.2149992  12.7759978 143.6300014 105.7825471  13.4245227 143.5126698
 113.2939992   6.8269978 143.9630014 112.7389992   6.4309978 143.2910014
 113.3939992   7.7379978 143.6850014 113.2315888   6.8958990 143.8335206
 111.5889992  15.6129978 144.4280014 111.2159992  14.7879978 144.7370014
 111.8659992  15.4299978 143.5310014 111.5753871  15.4752441 144.3489677
 101.2919992  14.7499978 147.5820014 101.8199992  15.5229978 147.3820014
 100.4119992  14.9739978 147.2810014 101.2453176  14.8863161 147.5138409
  97.0469992   9.6119978 142.1700014  97.6629992  10.2389978 142.5490014
  96.1849992   9.9279978 142.4410014  97.0148195   9.7405798 142.2585386
 102.7199992  12.4129978 147.1590014 102.4789992  13.3379978 147.2000014
 101.9789992  11.9539978 147.5550014 102.5868390  12.4776403 147.2181404
 101.4029992  17.4339978 146.7040014 100.4529992  17.5399978 146.7550014
 101.7549992  18.2549978 147.0490014 101.3205480  17.5594438 146.7575999
 108.9809992  13.5899978 142.2480014 109.3349992  13.2099978 143.0530014
 108.0329992  13.4959978 142.3350014 108.9011820  13.5253092 142.3698714
 113.4849992  18.0689978 142.4490014 114.2289992  18.6549978 142.3090014
 112.7909992  18.6379978 142.7830014 113.4930201  18.2260603 142.4749772
 109.8469992  12.2619978 144.4750014 109.5699992  11.5339978 145.0310014
 110.7749992  12.3809978 144.6800014 109.9344499  12.1784213 144.5788044
 103.0719992  14.7019978 140.6950014 103.3109992  13.9529978 140.1480014
 102.8029992  14.3139978 141.5280014 103.0683233  14.5471853 140.7327809
 102.0089992  14.2719978 143.1520014 102.1559992  13.7519978 143.9420014
 102.0059992  15.1789978 143.4580014 102.0287300  14.3233964 143.3015895
  98.4619992  11.5239978 143.6620014  97.7759992  11.8769978 144.2290014
  98.9849992  12.2869978 143.4160014  98.4389033  11.6753746 143.7062661
 107.0779992   3.8389978 145.0380014 107.2979992   4.3099978 144.2350014
 107.6369992   4.2329978 145.7080014 107.1836730   3.9567432 145.0185906
 104.7469992  15.9689978 143.9010014 103.9299992  16.4659978 143.9530014
 105.2759992  16.4449978 143.2610014 104.7068508  16.1012543 143.8216035
 104.2779992   5.5669978 145.8730014 105.0899992   6.0709978 145.9190014
 104.0339992   5.4219978 146.7870014 104.3561467   5.6163749 146.0028575
 105.1619992   2.6479978 146.8110014 104.8149992   3.2649978 147.4560014
 105.8209992   3.1489978 146.3300014 105.2035949   2.8001099 146.8342271
 102.0849992  17.0129978 143.8830014 102.2459992  17.8129978 143.3820014
 101.8879992  17.3199978 144.7680014 102.0803919  17.1639129 143.9341006
 100.8199992   3.7109978 143.4980014 100.7359992   4.5989978 143.8450014
 101.7099992   3.4459978 143.7300014 100.9288163   3.7967179 143.5768596
  99.0779992  14.1379978 142.5590014  99.6699992  14.8379978 142.8350014
  99.5369992  13.7049978 141.8390014  99.2210791  14.1752908 142.4994607
  97.3939992   6.8029978 141.6750014  97.3489992   7.7419978 141.8530014
  96.5059992   6.5669978 141.4050014  97.2678555   6.8996874 141.6628939
  97.1329992  15.5249978 146.5080014  96.2999992  15.9969978 146.5360014
  97.6779992  16.0349978 145.9100014  97.0927590  15.6585897 146.4309194
 105.1099992  16.5649978 140.8340014 104.4659992  15.9339978 141.1550014
 105.8719992  16.0339978 140.6020014 105.1248058  16.4067902 140.8466038
 109.7149992  16.3819978 141.0680014 109.9979992  15.5869978 141.5200014
 110.4539992  16.6149978 140.5070014 109.8536956  16.3047031 141.0539821
 100.6689992  12.2909978 140.9250014 100.7339992  11.4969978 141.4560014
 101.3219992  12.1729978 140.2350014 100.7661754  12.1663337 140.9044259
 106.0219992  13.3379978 140.6610014 105.7529992  13.5189978 141.5620014
 105.8149992  12.4129978 140.5300014 105.9572000  13.2376774 140.7665693
 101.8189992  10.2639978 143.2310014 101.3589992   9.7799978 143.9170014
 102.0739992   9.5949978 142.5950014 101.7905038  10.1073689 143.2389447
 102.8899992   8.5069978 141.4930014 102.7089992   8.3519978 140.5660014
 103.8399992   8.6149978 141.5380014 102.9936566   8.5003669 141.3720929
 112.2799992  10.8609978 140.9390014 112.0059992  10.4369978 140.1260014
 112.3189992  11.7929978 140.7220014 112.2477716  10.9288827 140.7984286
 102.7869992  19.1969978 142.4950014 103.7199992  19.3549978 142.6380014
 102.5229992  19.8729978 141.8700014 102.8789308  19.3099104 142.4301396
  96.3549992  13.8339978 141.9770014  97.2689992  13.9129978 142.2510014
  96.3629992  13.1469978 141.3110014  96.4811143  13.7519085 141.9244274
  95.0039992  19.2269978 147.0550014  94.3569992  18.7649978 146.5220014
  95.3589992  18.5549978 147.6370014  94.9634506  19.0729503 147.0607341
 112.7379992  11.7299978 144.9140014 113.5879992  12.1509978 145.0410014
 112.7429992  10.9899978 145.5210014 112.8551143  11.6876094 145.0134750
 113.1319992   9.7839978 146.7380014 112.4059992   9.3039978 147.1350014
 113.7139992   9.9889978 147.4700014 113.1111635   9.7459166 146.8913748
 113.4009992   9.6849978 143.1290014 112.8789992  10.0409978 142.4100014
 113.3679992  10.3599978 143.8070014 113.3250699   9.8249848 143.1222129
 111.7499992   6.9239978 141.6800014 111.8459992   7.5909978 141.0000014
 111.6099992   6.1089978 141.1980014 111.7442063   6.9050667 141.5218377
 110.9189992   8.3049978 147.3010014 110.7689992   7.3599978 147.2800014
 110.5649992   8.5859978 148.1440014 110.8505527   8.2135605 147.4121859
 110.9969992   4.3319978 140.7970014 111.6079992   3.9609978 141.4340014
 110.1599992   3.9109978 140.9930014 110.9674947   4.2242756 140.9107252
 110.6299992   5.8869978 145.7630014 110.9089992   4.9799978 145.8870014
 111.3889992   6.3209978 145.3740014 110.7708619   5.8214502 145.7273795
 111.2429992   3.1499978 145.8110014 111.4249992   2.7009978 146.6370014
 110.6429992   2.5659978 145.3480014 111.1867529   3.0096131 145.8613619
 113.1099992   3.2179978 142.3390014 113.5219992   2.4969978 141.8640014
 113.7909992   3.8869978 142.3980014 113.2585900   3.2097306 142.2819038
  95.3909992   3.2229978 145.4660014  94.4659992   3.4309978 145.3370014
  95.8449992   3.7069978 144.7770014  95.3256374   3.3169949 145.3550957
 110.1609992  18.2069978 147.4120014 110.8139992  17.8589978 146.8040014
 110.6719992  18.6949978 148.0580014 110.3192777  18.2253815 147.4162047
  96.6669992   1.2659978 143.4450014  97.1059992   1.8769978 142.8530014
  96.0329992   1.8039978 143.9190014  96.6413859   1.4224064 143.4280305
 102.4099992   1.3939978 147.4550014 103.2839992   1.7829978 147.4250014
 102.2739992   1.1789978 148.3770014 102.5113207   1.4181923 147.5756509
 109.3199992   1.4499978 144.7960014 108.6169992   2.0649978 144.5870014
 108.8749992   0.6129978 144.9280014 109.1636292   1.4210085 144.7852439
  96.5679992  17.2139978 144.3430014  95.8829992  17.1759978 143.6750014
  96.5719992  18.1269978 144.6310014  96.4748174  17.3321998 144.2905310
  98.5279992   3.1819978 141.8870014  99.0189992   2.5519978 141.3600014
  99.1509992   3.4779978 142.5510014  98.6795062   3.1356770 141.9045438
 103.5539992   3.4749978 144.3450014 103.7319992   2.8279978 145.0270014
 103.4999992   4.3089978 144.8120014 103.5711025   3.4990504 144.5016433
 105.4319992  18.4229978 142.7400014 106.2979992  18.7899978 142.5620014
 105.1859992  17.9839978 141.9260014 105.5172097  18.4138525 142.6056019
 112.1409992  17.9859978 145.4190014 111.9469992  17.2379978 144.8540014
 112.1019992  18.7439978 144.8360014 112.1091645  17.9860786 145.2628148
  98.3859992  18.1339978 141.3680014  98.1179992  18.4199978 142.2410014
  99.1569992  17.5879978 141.5200014  98.4535600  18.0993330 141.5081499
 125.7649992  10.6239978 147.6000014 125.8539992  11.5679978 147.4680014
 125.1269992  10.3489978 146.9420014 125.6909062  10.7159812 147.4929641
 114.5999992   7.6029978 146.5400014 114.1519992   8.4489978 146.5210014
 114.0389992   7.0239978 146.0240014 114.4629603   7.6403674 146.4676720
 127.1049992   4.9379978 147.4260014 127.7519992   4.6089978 148.0510014
 127.6149992   5.4549978 146.8030014 127.2624317   4.9629227 147.4272167
 125.5619992  13.2249978 146.6430014 125.2669992  12.9019978 145.7920014
 125.2379992  14.1249978 146.6840014 125.4777983  13.3024026 146.5319771
 115.2909992  13.0359978 144.9560014 115.0189992  13.2649978 144.0670014
 115.3359992  13.8729978 145.4160014 115.2598709  13.1806058 144.8966107
 128.3279992  14.3389978 146.8020014 128.0699992  13.6489978 146.1910014
 128.3989992  13.8959978 147.6480014 128.3022837  14.1847106 146.8326912
 124.4859992   9.8679978 145.0520014 123.7749992  10.4029978 144.7000014
 125.1769992   9.9229978 144.3920014 124.4820751   9.9486777 144.9145858
 124.5399992   8.3249978 142.0910014 125.2409992   8.3479978 142.7420014
 124.8419992   7.6969978 141.4350014 124.6768282   8.2432339 142.0914496
 127.8919992  10.0769978 146.0040014 127.1599992  10.3059978 146.5770014
 128.3389992   9.3639978 146.4590014 127.8522753  10.0118972 146.1439715
 126.7629992   9.2399978 143.6890014 127.3419992   9.3899978 144.4360014
 127.1769992   9.7099978 142.9660014 126.8983122   9.3241277 143.6935042
 124.4889992  15.9759978 147.1240014 124.9629992  16.2719978 147.9020014
 123.9259992  16.7149978 146.8910014 124.4777361  16.1162721 147.1988611
 130.4619992   0.9899978 143.5020014 129.5619992   1.1289978 143.7970014
 130.7139992   1.8209978 143.1000014 130.3728683   1.1214055 143.4880232
 118.5279992   9.7769978 145.4760014 118.2359992  10.5449978 144.9850014
 117.8529992   9.1179978 145.3130014 118.3968497   9.7929745 145.3868260
 131.6509992  15.3559978 141.8780014 131.7239992  16.2949978 142.0490014
 132.5559992  15.0509978 141.8220014 131.7834158  15.4433061 141.8938392
 123.9619992  18.9329978 145.5390014 123.8859992  18.8119978 144.5930014
 123.9939992  19.8819978 145.6580014 123.9559156  19.0447530 145.4255048
 117.6149992  17.7219978 147.3200014 117.7669992  17.3739978 148.1990014
 116.7639992  17.3649978 147.0650014 117.5207899  17.6261738 147.4057340
 127.0629992  18.0869978 142.5410014 127.4379992  17.3429978 142.0710014
 127.0679992  17.8169978 143.4600014 127.1150024  17.9486950 142.6007987
 126.7319992  18.0129978 145.2910014 125.7969992  18.1129978 145.4690014
 127.0119992  17.3029978 145.8690014 126.6418173  17.9307239 145.3934998
 128.2399992  10.2719978 141.3190014 128.2819992  10.0499978 140.3890014
 129.0889992  10.6709978 141.5090014 128.3605253  10.2955498 141.2173822
 123.8129992   4.1479978 141.9890014 123.5589992   4.1669978 142.9120014
 123.5559992   3.2769978 141.6880014 123.7435133   4.0328110 142.0745082
 119.5759992   7.1199978 147.3360014 118.6839992   6.7799978 147.2780014
 120.0269992   6.7429978 146.5810014 119.5146815   7.0223762 147.2259203
 125.1119992   7.5359978 146.1530014 124.7029992   8.3509978 145.8620014
 125.8319992   7.3959978 145.5390014 125.1534013   7.6286571 146.0300875
 120.6949992   4.5939978 141.0900014 120.2639992   4.1489978 141.8200014
 119.9769992   4.9649978 140.5780014 120.5389363   4.5832968 141.1206211
 115.2119992   5.0819978 143.5660014 115.6859992   5.6729978 142.9810014
 114.4939992   5.6119978 143.9130014 115.1798640   5.2345511 143.5327969
 116.9859992   6.1769978 147.2490014 116.0969992   6.2759978 146.9090014
 117.2829992   5.3349978 146.9030014 116.9044177   6.0767687 147.1556940
 120.6389992   6.1769978 144.9060014 121.5709992   6.3059978 145.0840014
 120.4239992   6.8459978 144.2560014 120.7374472   6.2850806 144.8424891
 119.3129992   7.3709978 142.4730014 118.7709992   6.9919978 141.7810014
 120.1469992   7.5659978 142.0440014 119.3515159   7.3455076 142.3204419
 118.4799992   3.4719978 146.7280014 118.1629992   2.5689978 146.6930014
 119.2609992   3.4739978 146.1750014 118.5422307   3.3486951 146.6484314
 122.6489992  11.9369978 144.4080014 121.9039992  11.4289978 144.0860014
 122.5139992  11.9859978 145.3550014 122.5289047  11.8741596 144.4918845
 126.5459992   4.7509978 142.6080014 125.6079992   4.8619978 142.4560014
 126.8439992   5.6069978 142.9140014 126.4576402   4.8820621 142.6285571
 127.2649992   6.6179978 144.2680014 128.1569992   6.4799978 144.5870014
 127.3209992   7.4089978 143.7320014 127.3947107   6.7060526 144.2392091
 124.7739992  13.3949978 143.4340014 124.4789992  14.2219978 143.8150014
 124.0709992  12.7759978 143.6300014 124.6385471  13.4245227 143.5126698
 132.1499992   6.8269978 143.9630014 131.5949992   6.4309978 143.2910014
 132.2499992   7.7379978 143.6850014 132.0875888   6.8958990 143.8335206
 130.4449992  15.6129978 144.4280014 130.0719992  14.7879978 144.7370014
 130.7219992  15.4299978 143.5310014 130.4313871  15.4752441 144.3489677
 120.1479992  14.7499978 147.5820014 120.6759992  15.5229978 147.3820014
 119.2679992  14.9739978 147.2810014 120.1013176  14.8863161 147.5138409
 115.9029992   9.6119978 142.1700014 116.5189992  10.2389978 142.5490014
 115.0409992   9.9279978 142.4410014 115.8708195   9.7405798 142.2585386
 121.5759992  12.4129978 147.1590014 121.3349992  13.3379978 147.2000014
 120.8349992  11.9539978 147.5550014 121.4428390  12.4776403 147.2181404
 120.2589992  17.4339978 146.7040014 119.3089992  17.5399978 146.7550014
 120.6109992  18.2549978 147.0490014 120.1765480  17.5594438 146.7575999
 127.8369992  13.5899978 142.2480014 128.1909992  13.2099978 143.0530014
 126.8889992  13.4959978 142.3350014 127.7571820  13.5253092 142.3698714
 132.3409992  18.0689978 142.4490014 133.0849992  18.6549978 142.3090014
 131.6469992  18.6379978 142.7830014 132.3490201  18.2260603 142.4749772
 128.7029992  12.2619978 144.4750014 128.4259992  11.5339978 145.0310014
 129.6309992  12.3809978 144.6800014 128.7904499  12.1784213 144.5788044
 121.9279992  14.7019978 140.6950014 122.1669992  13.9529978 140.1480014
 121.6589992  14.3139978 141.5280014 121.9243233  14.5471853 140.7327809
 120.8649992  14.2719978 143.1520014 121.0119992  13.7519978 143.9420014
 120.8619992  15.1789978 143.4580014 120.8847300  14.3233964 143.3015895
 117.3179992  11.5239978 143.6620014 116.6319992  11.8769978 144.2290014
 117.8409992  12.2869978 143.4160014 117.2949033  11.6753746 143.7062661
 125.9339992   3.8389978 145.0380014 126.1539992   4.3099978 144.2350014
 126.4929992   4.2329978 145.7080014 126.0396730   3.9567432 145.0185906
 123.6029992  15.9689978 143.9010014 122.7859992  16.4659978 143.9530014
 124.1319992  16.4449978 143.2610014 123.5628508  16.1012543 143.8216035
 123.1339992   5.5669978 145.8730014 123.9459992   6.0709978 145.9190014
 122.8899992   5.4219978 146.7870014 123.2121467   5.6163749 146.0028575
 124.0179992   2.6479978 146.8110014 123.6709992   3.2649978 147.4560014
 124.6769992   3.1489978 146.3300014 124.0595949   2.8001099 146.8342271
 120.9409992  17.0129978 143.8830014 121.1019992  17.8129978 143.3820014
 120.7439992  17.3199978 144.7680014 120.9363919  17.1639129 143.9341006
 119.6759992   3.7109978 143.4980014 119.5919992   4.5989978 143.8450014
 120.5659992   3.4459978 143.7300014 119.7848163   3.7967179 143.5768596
 117.9339992  14.1379978 142.5590014 118.5259992  14.8379978 142.8350014
 118.3929992  13.7049978 141.8390014 118.0770791  14.1752908 142.4994607
 116.2499992   6.8029978 141.6750014 116.2049992   7.7419978 141.8530014
 115.3619992   6.5669978 141.4050014 116.1238555   6.8996874 141.6628939
 115.9889992  15.5249978 146.5080014 115.1559992  15.9969978 146.5360014
 116.5339992  16.0349978 145.9100014 115.9487590  15.6585897 146.4309194
 123.9659992  16.5649978 140.8340014 123.3219992  15.9339978 141.1550014
 124.7279992  16.0339978 140.6020014 123.9808058  16.4067902 140.8466038
 128.5709992  16.3819978 141.0680014 128.8539992  15.5869978 141.5200014
 129.3099992  16.6149978 140.5070014 128.7096956  16.3047031 141.0539822
 119.5249992  12.2909978 140.9250014 119.5899992  11.4969978 141.4560014
 120.1779992  12.1729978 140.2350014 119.6221754  12.1663337 140.9044259
 124.8779992  13.3379978 140.6610014 124.6089992  13.5189978 141.5620014
 124.6709992  12.4129978 140.5300014 124.8132000  13.2376774 140.7665693
 120.6749992  10.2639978 143.2310014 120.2149992   9.7799978 143.9170014
 120.9299992   9.5949978 142.5950014 120.6465038  10.1073689 143.2389447
 121.7459992   8.5069978 141.4930014 121.5649992   8.3519978 140.5660014
 122.6959992   8.6149978 141.5380014 121.8496566   8.5003669 141.3720929
 131.1359992  10.8609978 140.9390014 130.8619992  10.4369978 140.1260014
 131.1749992  11.7929978 140.7220014 131.1037716  10.9288827 140.7984286
 121.6429992  19.1969978 142.4950014 122.5759992  19.3549978 142.6380014
 121.3789992  19.8729978 141.8700014 121.7349308  19.3099104 142.4301396
 115.2109992  13.8339978 141.9770014 116.1249992  13.9129978 142.2510014
 115.2189992  13.1469978 141.3110014 115.3371143  13.7519085 141.9244274
 113.8599992  19.2269978 147.0550014 113.2129992  18.7649978 146.5220014
 114.2149992  18.5549978 147.6370014 113.8194506  19.0729503 147.0607341
 131.5939992  11.7299978 144.9140014 132.4439992  12.1509978 145.0410014
 131.5989992  10.9899978 145.5210014 131.7111143  11.6876094 145.0134750
 131.9879992   9.7839978 146.7380014 131.2619992   9.3039978 147.1350014
 132.5699992   9.9889978 147.4700014 131.9671635   9.7459166 146.8913748
 132.2569992   9.6849978 143.1290014 131.7349992  10.0409978 142.4100014
 132.2239992  10.3599978 143.8070014 132.1810699   9.8249848 143.1222129
 130.6059992   6.9239978 141.6800014 130.7019992   7.5909978 141.0000014
 130.4659992   6.1089978 141.1980014 130.6002063   6.9050667 141.5218377
 129.7749992   8.3049978 147.3010014 129.6249992   7.3599978 147.2800014
 129.4209992   8.5859978 148.1440014 129.7065527   8.2135605 147.4121859
 129.8529992   4.3319978 140.7970014 130.4639992   3.9609978 141.4340014
 129.0159992   3.9109978 140.9930014 129.8234947   4.2242756 140.9107252
 129.4859992   5.8869978 145.7630014 129.7649992   4.9799978 145.8870014
 130.2449992   6.3209978 145.3740014 129.6268619   5.8214502 145.7273795
 130.0989992   3.1499978 145.8110014 130.2809992   2.7009978 146.6370014
 129.4989992   2.5659978 145.3480014 130.0427529   3.0096131 145.8613619
 131.9659992   3.2179978 142.3390014 132.3779992   2.4969978 141.8640014
 132.6469992   3.8869978 142.3980014 132.1145900   3.2097306 142.2819038
 114.2469992   3.2229978 145.4660014 113.3219992   3.4309978 145.3370014
 114.7009992   3.7069978 144.7770014 114.1816374   3.3169949 145.3550957
 129.0169992  18.2069978 147.4120014 129.6699992  17.8589978 146.8040014
 129.5279992  18.6949978 148.0580014 129.1752777  18.2253815 147.4162047
 115.5229992   1.2659978 143.4450014 115.9619992   1.8769978 142.8530014
 114.8889992   1.8039978 143.9190014 115.4973859   1.4224064 143.4280305
 121.2659992   1.3939978 147.4550014 122.1399992   1.7829978 147.4250014
 121.1299992   1.1789978 148.3770014 121.3673207   1.4181923 147.5756509
 128.1759992   1.4499978 144.7960014 127.4729992   2.0649978 144.5870014
 127.7309992   0.6129978 144.9280014 128.0196292   1.4210085 144.7852439
 115.4239992  17.2139978 144.3430014 114.7389992  17.1759978 143.6750014
 115.4279992  18.1269978 144.6310014 115.3308174  17.3321998 144.2905310
 117.3839992   3.1819978 141.8870014 117.8749992   2.5519978 141.3600014
 118.0069992   3.4779978 142.5510014 117.5355062   3.1356770 141.9045438
 122.4099992   3.4749978 144.3450014 122.5879992   2.8279978 145.0270014
 122.3559992   4.3089978 144.8120014 122.4271025   3.4990504 144.5016433
 124.2879992  18.4229978 142.7400014 125.1539992  18.7899978 142.5620014
 124.0419992  17.9839978 141.9260014 124.3732097  18.4138525 142.6056019
 130.9969992  17.9859978 145.4190014 130.8029992  17.2379978 144.8540014
 130.9579992  18.7439978 144.8360014 130.9651645  17.9860786 145.2628148
 117.2419992  18.1339978 141.3680014 116.9739992  18.4199978 142.2410014
 118.0129992  17.5879978 141.5200014 117.3095600  18.0993330 141.5081499
 144.6209992  10.6239978 147.6000014 144.7099992  11.5679978 147.4680014
 143.9829992  10.3489978 146.9420014 144.5469062  10.7159812 147.4929641
 133.4559992   7.6029978 146.5400014 133.0079992   8.4489978 146.5210014
 132.8949992   7.0239978 146.0240014 133.3189603   7.6403674 146.4676720
 144.4179992  13.2249978 146.6430014 144.1229992  12.9019978 145.7920014
 144.0939992  14.1249978 146.6840014 144.3337983  13.3024026 146.5319771
 134.1469992  13.0359978 144.9560014 133.8749992  13.2649978 144.0670014
 134.1919992  13.8729978 145.4160014 134.1158709  13.1806058 144.8966107
 143.3419992   9.8679978 145.0520014 142.6309992  10.4029978 144.7000014
 144.0329992   9.9229978 144.3920014 143.3380751   9.9486777 144.9145858
 143.3959992   8.3249978 142.0910014 144.0969992   8.3479978 142.7420014
 143.6979992   7.6969978 141.4350014 143.5328282   8.2432339 142.0914496
 143.3449992  15.9759978 147.1240014 143.8189992  16.2719978 147.9020014
 142.7819992  16.7149978 146.8910014 143.3337361  16.1162721 147.1988611
 137.3839992   9.7769978 145.4760014 137.0919992  10.5449978 144.9850014
 136.7089992   9.1179978 145.3130014 137.2528497   9.7929745 145.3868260
 142.8179992  18.9329978 145.5390014 142.7419992  18.8119978 144.5930014
 142.8499992  19.8819978 145.6580014 142.8119156  19.0447530 145.4255048
 136.4709992  17.7219978 147.3200014 136.6229992  17.3739978 148.1990014
 135.6199992  17.3649978 147.0650014 136.3767899  17.6261738 147.4057340
 142.6689992   4.1479978 141.9890014 142.4149992   4.1669978 142.9120014
 142.4119992   3.2769978 141.6880014 142.5995133   4.0328110 142.0745082
 138.4319992   7.1199978 147.3360014 137.5399992   6.7799978 147.2780014
 138.8829992   6.7429978 146.5810014 138.3706815   7.0223762 147.2259203
 143.9679992   7.5359978 146.1530014 143.5589992   8.3509978 145.8620014
 144.6879992   7.3959978 145.5390014 144.0094013   7.6286571 146.0300875
 139.5509992   4.5939978 141.0900014 139.1199992   4.1489978 141.8200014
 138.8329992   4.9649978 140.5780014 139.3949363   4.5832968 141.1206211
 134.0679992   5.0819978 143.5660014 134.5419992   5.6729978 142.9810014
 133.3499992   5.6119978 143.9130014 134.0358640   5.2345511 143.5327969
 135.8419992   6.1769978 147.2490014 134.9529992   6.2759978 146.9090014
 136.1389992   5.3349978 146.9030014 135.7604177   6.0767687 147.1556940
 139.4949992   6.1769978 144.9060014 140.4269992   6.3059978 145.0840014
 139.2799992   6.8459978 144.2560014 139.5934472   6.2850806 144.8424891
 138.1689992   7.3709978 142.4730014 137.6269992   6.9919978 141.7810014
 139.0029992   7.5659978 142.0440014 138.2075159   7.3455076 142.3204419
 137.3359992   3.4719978 146.7280014 137.0189992   2.5689978 146.6930014
 138.1169992   3.4739978 146.1750014 137.3982307   3.3486951 146.6484314
 141.5049992  11.9369978 144.4080014 140.7599992  11.4289978 144.0860014
 141.3699992  11.9859978 145.3550014 141.3849047  11.8741596 144.4918845
 145.4019992   4.7509978 142.6080014 144.4639992   4.8619978 142.4560014
 145.6999992   5.6069978 142.9140014 145.3136402   4.8820621 142.6285571
 143.6299992  13.3949978 143.4340014 143.3349992  14.2219978 143.8150014
 142.9269992  12.7759978 143.6300014 143.4945471  13.4245227 143.5126698
 139.0039992  14.7499978 147.5820014 139.5319992  15.5229978 147.3820014
 138.1239992  14.9739978 147.2810014 138.9573176  14.8863161 147.5138409
 134.7589992   9.6119978 142.1700014 135.3749992  10.2389978 142.5490014
 133.8969992   9.9279978 142.4410014 134.7268195   9.7405798 142.2585386
 140.4319992  12.4129978 147.1590014 140.1909992  13.3379978 147.2000014
 139.6909992  11.9539978 147.5550014 140.2988390  12.4776403 147.2181404
 139.1149992  17.4339978 146.7040014 138.1649992  17.5399978 146.7550014
 139.4669992  18.2549978 147.0490014 139.0325480  17.5594438 146.7575999
 140.7839992  14.7019978 140.6950014 141.0229992  13.9529978 140.1480014
 140.5149992  14.3139978 141.5280014 140.7803233  14.5471853 140.7327809
 139.7209992  14.2719978 143.1520014 139.8679992  13.7519978 143.9420014
 139.7179992  15.1789978 143.4580014 139.7407300  14.3233964 143.3015895
 136.1739992  11.5239978 143.6620014 135.4879992  11.8769978 144.2290014
 136.6969992  12.2869978 143.4160014 136.1509033  11.6753746 143.7062661
 144.7899992   3.8389978 145.0380014 145.0099992   4.3099978 144.2350014
 145.3489992   4.2329978 145.7080014 144.8956730   3.9567432 145.0185906
 142.4589992  15.9689978 143.9010014 141.6419992  16.4659978 143.9530014
 142.9879992  16.4449978 143.2610014 142.4188508  16.1012543 143.8216035
 141.9899992   5.5669978 145.8730014 142.8019992   6.0709978 145.9190014
 141.7459992   5.4219978 146.7870014 142.0681467   5.6163749 146.0028575
 142.8739992   2.6479978 146.8110014 142.5269992   3.2649978 147.4560014
 143.5329992   3.1489978 146.3300014 142.9155949   2.8001099 146.8342271
 139.7969992  17.0129978 143.8830014 139.9579992  17.8129978 143.3820014
 139.5999992  17.3199978 144.7680014 139.7923919  17.1639129 143.9341006
 138.5319992   3.7109978 143.4980014 138.4479992   4.5989978 143.8450014
 139.4219992   3.4459978 143.7300014 138.6408163   3.7967179 143.5768596
 136.7899992  14.1379978 142.5590014 137.3819992  14.8379978 142.8350014
 137.2489992  13.7049978 141.8390014 136.9330791  14.1752908 142.4994607
 135.1059992   6.8029978 141.6750014 135.0609992   7.7419978 141.8530014
 134.2179992   6.5669978 141.4050014 134.9798555   6.8996874 141.6628939
 134.8449992  15.5249978 146.5080014 134.0119992  15.9969978 146.5360014
 135.3899992  16.0349978 145.9100014 134.8047590  15.6585897 146.4309194
 142.8219992  16.5649978 140.8340014 142.1779992  15.9339978 141.1550014
 143.5839992  16.0339978 140.6020014 142.8368058  16.4067902 140.8466038
 138.3809992  12.2909978 140.9250014 138.4459992  11.4969978 141.4560014
 139.0339992  12.1729978 140.2350014 138.4781754  12.1663337 140.9044259
 143.7339992  13.3379978 140.6610014 143.4649992  13.5189978 141.5620014
 143.5269992  12.4129978 140.5300014 143.6692000  13.2376774 140.7665693
 139.5309992  10.2639978 143.2310014 139.0709992   9.7799978 143.9170014
 139.7859992   9.5949978 142.5950014 139.5025038  10.1073689 143.2389447
 140.6019992   8.5069978 141.4930014 140.4209992   8.3519978 140.5660014
 141.5519992   8.6149978 141.5380014 140.7056566   8.5003669 141.3720929
 140.4989992  19.1969978 142.4950014 141.4319992  19.3549978 142.6380014
 140.2349992  19.8729978 141.8700014 140.5909308  19.3099104 142.4301396
 134.0669992  13.8339978 141.9770014 134.9809992  13.9129978 142.2510014
 134.0749992  13.1469978 141.3110014 134.1931143  13.7519085 141.9244274
 132.7159992  19.2269978 147.0550014 132.0689992  18.7649978 146.5220014
 133.0709992  18.5549978 147.6370014 132.6754506  19.0729503 147.0607341
 133.1029992   3.2229978 145.4660014 132.1779992   3.4309978 145.3370014
 133.5569992   3.7069978 144.7770014 133.0376374   3.3169949 145.3550957
 134.3789992   1.2659978 143.4450014 134.8179992   1.8769978 142.8530014
 133.7449992   1.8039978 143.9190014 134.3533859   1.4224064 143.4280305
 140.1219992   1.3939978 147.4550014 140.9959992   1.7829978 147.4250014
 139.9859992   1.1789978 148.3770014 140.2233207   1.4181923 147.5756509
 134.2799992  17.2139978 144.3430014 133.5949992  17.1759978 143.6750014
 134.2839992  18.1269978 144.6310014 134.1868174  17.3321998 144.2905310
 136.2399992   3.1819978 141.8870014 136.7309992   2.5519978 141.3600014
 136.8629992   3.4779978 142.5510014 136.3915062   3.1356770 141.9045438
 141.2659992   3.4749978 144.3450014 141.4439992   2.8279978 145.0270014
 141.2119992   4.3089978 144.8120014 141.2831025   3.4990504 144.5016433
 143.1439992  18.4229978 142.7400014 144.0099992  18.7899978 142.5620014
 142.8979992  17.9839978 141.9260014 143.2292097  18.4138525 142.6056019
 136.0979992  18.1339978 141.3680014 135.8299992  18.4199978 142.2410014
 136.8689992  17.5879978 141.5200014 136.1655600  18.0993330 141.5081499
  12.6289992  29.4799978 147.6000014  12.7179992  30.4239978 147.4680014
  11.9909992  29.2049978 146.9420014  12.5549062  29.5719812 147.4929641
   1.4639992  26.4589978 146.5400014   1.0159992  27.3049978 146.5210014
   0.9029992  25.8799978 146.0240014   1.3269603  26.4963674 146.4676720
  13.9689992  23.7939978 147.4260014  14.6159992  23.4649978 148.0510014
  14.4789992  24.3109978 146.8030014  14.1264317  23.8189227 147.4272167
  12.4259992  32.0809978 146.6430014  12.1309992  31.7579978 145.7920014
  12.1019992  32.9809978 146.6840014  12.3417983  32.1584026 146.5319771
   2.1549992  31.8919978 144.9560014   1.8829992  32.1209978 144.0670014
   2.1999992  32.7289978 145.4160014   2.1238709  32.0366058 144.8966107
  15.1919992  33.1949978 146.8020014  14.9339992  32.5049978 146.1910014
  15.2629992  32.7519978 147.6480014  15.1662837  33.0407106 146.8326912
  11.3499992  28.7239978 145.0520014  10.6389992  29.2589978 144.7000014
  12.0409992  28.7789978 144.3920014  11.3460751  28.8046777 144.9145858
  11.4039992  27.1809978 142.0910014  12.1049992  27.2039978 142.7420014
  11.7059992  26.5529978 141.4350014  11.5408282  27.0992339 142.0914496
  14.7559992  28.9329978 146.0040014  14.0239992  29.1619978 146.5770014
  15.2029992  28.2199978 146.4590014  14.7162753  28.8678972 146.1439715
  13.6269992  28.0959978 143.6890014  14.2059992  28.2459978 144.4360014
  14.0409992  28.5659978 142.9660014  13.7623122  28.1801277 143.6935042
  11.3529992  34.8319978 147.1240014  11.8269992  35.1279978 147.9020014
  10.7899992  35.5709978 146.8910014  11.3417361  34.9722721 147.1988611
  17.3259992  19.8459978 143.5020014  16.4259992  19.9849978 143.7970014
  17.5779992  20.6769978 143.1000014  17.2368683  19.9774055 143.4880232
   5.3919992  28.6329978 145.4760014   5.0999992  29.4009978 144.9850014
   4.7169992  27.9739978 145.3130014   5.2608497  28.6489745 145.3868260
  18.5149992  34.2119978 141.8780014  18.5879992  35.1509978 142.0490014
  19.4199992  33.9069978 141.8220014  18.6474158  34.2993061 141.8938392
  10.8259992  37.7889978 145.5390014  10.7499992  37.6679978 144.5930014
  10.8579992  38.7379978 145.6580014  10.8199156  37.9007530 145.4255048
   4.4789992  36.5779978 147.3200014   4.6309992  36.2299978 148.1990014
   3.6279992  36.2209978 147.0650014   4.3847899  36.4821738 147.4057340
  13.9269992  36.9429978 142.5410014  14.3019992  36.1989978 142.0710014
  13.9319992  36.6729978 143.4600014  13.9790024  36.8046950 142.6007987
  13.5959992  36.8689978 145.2910014  12.6609992  36.9689978 145.4690014
  13.8759992  36.1589978 145.8690014  13.5058173  36.7867239 145.3934998
  15.1039992  29.1279978 141.3190014  15.1459992  28.9059978 140.3890014
  15.9529992  29.5269978 141.5090014  15.2245253  29.1515498 141.2173822
  10.6769992  23.0039978 141.9890014  10.4229992  23.0229978 142.9120014
  10.4199992  22.1329978 141.6880014  10.6075133  22.8888110 142.0745082
   6.4399992  25.9759978 147.3360014   5.5479992  25.6359978 147.2780014
   6.8909992  25.5989978 146.5810014   6.3786815  25.8783762 147.2259203
  11.9759992  26.3919978 146.1530014  11.5669992  27.2069978 145.8620014
  12.6959992  26.2519978 145.5390014  12.0174013  26.4846571 146.0300875
   7.5589992  23.4499978 141.0900014   7.1279992  23.0049978 141.8200014
   6.8409992  23.8209978 140.5780014   7.4029363  23.4392968 141.1206211
   2.0759992  23.9379978 143.5660014   2.5499992  24.5289978 142.9810014
   1.3579992  24.4679978 143.9130014   2.0438640  24.0905511 143.5327969
   3.8499992  25.0329978 147.2490014   2.9609992  25.1319978 146.9090014
   4.1469992  24.1909978 146.9030014   3.7684177  24.9327687 147.1556940
   7.5029992  25.0329978 144.9060014   8.4349992  25.1619978 145.0840014
   7.2879992  25.7019978 144.2560014   7.6014472  25.1410806 144.8424891
   6.1769992  26.2269978 142.4730014   5.6349992  25.8479978 141.7810014
   7.0109992  26.4219978 142.0440014   6.2155159  26.2015076 142.3204419
   5.3439992  22.3279978 146.7280014   5.0269992  21.4249978 146.6930014
   6.1249992  22.3299978 146.1750014   5.4062307  22.2046951 146.6484314
   9.5129992  30.7929978 144.4080014   8.7679992  30.2849978 144.0860014
   9.3779992  30.8419978 145.3550014   9.3929047  30.7301596 144.4918845
  13.4099992  23.6069978 142.6080014  12.4719992  23.7179978 142.4560014
  13.7079992  24.4629978 142.9140014  13.3216402  23.7380621 142.6285571
  14.1289992  25.4739978 144.2680014  15.0209992  25.3359978 144.5870014
  14.1849992  26.2649978 143.7320014  14.2587107  25.5620526 144.2392091
  11.6379992  32.2509978 143.4340014  11.3429992  33.0779978 143.8150014
  10.9349992  31.6319978 143.6300014  11.5025471  32.2805227 143.5126698
  19.0139992  25.6829978 143.9630014  18.4589992  25.2869978 143.2910014
  19.1139992  26.5939978 143.6850014  18.9515888  25.7518990 143.8335206
  17.3089992  34.4689978 144.4280014  16.9359992  33.6439978 144.7370014
  17.5859992  34.2859978 143.5310014  17.2953871  34.3312441 144.3489677
   7.0119992  33.6059978 147.5820014   7.5399992  34.3789978 147.3820014
   6.1319992  33.8299978 147.2810014   6.9653176  33.7423161 147.5138409
   2.7669992  28.4679978 142.1700014   3.3829992  29.0949978 142.5490014
   1.9049992  28.7839978 142.4410014   2.7348195  28.5965798 142.2585386
   8.4399992  31.2689978 147.1590014   8.1989992  32.1939978 147.2000014
   7.6989992  30.8099978 147.5550014   8.3068390  31.3336403 147.2181404
   7.1229992  36.2899978 146.7040014   6.1729992  36.3959978 146.7550014
   7.4749992  37.1109978 147.0490014   7.0405480  36.4154438 146.7575999
  14.7009992  32.4459978 142.2480014  15.0549992  32.0659978 143.0530014
  13.7529992  32.3519978 142.3350014  14.6211820  32.3813092 142.3698714
  19.2049992  36.9249978 142.4490014  19.9489992  37.5109978 142.3090014
  18.5109992  37.4939978 142.7830014  19.2130201  37.0820603 142.4749772
  15.5669992  31.1179978 144.4750014  15.2899992  30.3899978 145.0310014
  16.4949992  31.2369978 144.6800014  15.6544499  31.0344213 144.5788044
   8.7919992  33.5579978 140.6950014   9.0309992  32.8089978 140.1480014
   8.5229992  33.1699978 141.5280014   8.7883233  33.4031853 140.7327809
   7.7289992  33.1279978 143.1520014   7.8759992  32.6079978 143.9420014
   7.7259992  34.0349978 143.4580014   7.7487300  33.1793964 143.3015895
   4.1819992  30.3799978 143.6620014   3.4959992  30.7329978 144.2290014
   4.7049992  31.1429978 143.4160014   4.1589033  30.5313746 143.7062661
  12.7979992  22.6949978 145.0380014  13.0179992  23.1659978 144.2350014
  13.3569992  23.0889978 145.7080014  12.9036730  22.8127432 145.0185906
  10.4669992  34.8249978 143.9010014   9.6499992  35.3219978 143.9530014
  10.9959992  35.3009978 143.2610014  10.4268508  34.9572543 143.8216035
   9.9979992  24.4229978 145.8730014  10.8099992  24.9269978 145.9190014
   9.7539992  24.2779978 146.7870014  10.0761467  24.4723749 146.0028575
  10.8819992  21.5039978 146.8110014  10.5349992  22.1209978 147.4560014
  11.5409992  22.0049978 146.3300014  10.9235949  21.6561099 146.8342271
   7.8049992  35.8689978 143.8830014   7.9659992  36.6689978 143.3820014
   7.6079992  36.1759978 144.7680014   7.8003919  36.0199129 143.9341006
   6.5399992  22.5669978 143.4980014   6.4559992  23.4549978 143.8450014
   7.4299992  22.3019978 143.7300014   6.6488163  22.6527179 143.5768596
   4.7979992  32.9939978 142.5590014   5.3899992  33.6939978 142.8350014
   5.2569992  32.5609978 141.8390014   4.9410791  33.0312908 142.4994607
   3.1139992  25.6589978 141.6750014   3.0689992  26.5979978 141.8530014
   2.2259992  25.4229978 141.4050014   2.9878555  25.7556874 141.6628939
   2.8529992  34.3809978 146.5080014   2.0199992  34.8529978 146.5360014
   3.3979992  34.8909978 145.9100014   2.8127590  34.5145897 146.4309194
  10.8299992  35.4209978 140.8340014  10.1859992  34.7899978 141.1550014
  11.5919992  34.8899978 140.6020014  10.8448058  35.2627902 140.8466038
  15.4349992  35.2379978 141.0680014  15.7179992  34.4429978 141.5200014
  16.1739992  35.4709978 140.5070014  15.5736956  35.1607031 141.0539822
   6.3889992  31.1469978 140.9250014   6.4539992  30.3529978 141.4560014
   7.0419992  31.0289978 140.2350014   6.4861754  31.0223337 140.9044259
  11.7419992  32.1939978 140.6610014  11.4729992  32.3749978 141.5620014
  11.5349992  31.2689978 140.5300014  11.6772000  32.0936774 140.7665693
   7.5389992  29.1199978 143.2310014   7.0789992  28.6359978 143.9170014
   7.7939992  28.4509978 142.5950014   7.5105038  28.9633689 143.2389447
   8.6099992  27.3629978 141.4930014   8.4289992  27.2079978 140.5660014
   9.5599992  27.4709978 141.5380014   8.7136566  27.3563669 141.3720929
  17.9999992  29.7169978 140.9390014  17.7259992  29.2929978 140.1260014
  18.0389992  30.6489978 140.7220014  17.9677716  29.7848827 140.7984286
   8.5069992  38.0529978 142.4950014   9.4399992  38.2109978 142.6380014
   8.2429992  38.7289978 141.8700014   8.5989308  38.1659104 142.4301396
   2.0749992  32.6899978 141.9770014   2.9889992  32.7689978 142.2510014
   2.0829992  32.0029978 141.3110014   2.2011143  32.6079085 141.9244274
   0.7239992  38.0829978 147.0550014   0.0769992  37.6209978 146.5220014
   1.0789992  37.4109978 147.6370014   0.6834506  37.9289503 147.0607341
  18.4579992  30.5859978 144.9140014  19.3079992  31.0069978 145.0410014
  18.4629992  29.8459978 145.5210014  18.5751143  30.5436094 145.0134750
  18.8519992  28.6399978 146.7380014  18.1259992  28.1599978 147.1350014
  19.4339992  28.8449978 147.4700014  18.8311635  28.6019166 146.8913748
  19.1209992  28.5409978 143.1290014  18.5989992  28.8969978 142.4100014
  19.0879992  29.2159978 143.8070014  19.0450699  28.6809848 143.1222129
  17.4699992  25.7799978 141.6800014  17.5659992  26.4469978 141.0000014
  17.3299992  24.9649978 141.1980014  17.4642063  25.7610667 141.5218377
  16.6389992  27.1609978 147.3010014  16.4889992  26.2159978 147.2800014
  16.2849992  27.4419978 148.1440014  16.5705527  27.0695605 147.4121859
  16.7169992  23.1879978 140.7970014  17.3279992  22.8169978 141.4340014
  15.8799992  22.7669978 140.9930014  16.6874947  23.0802756 140.9107252
  16.3499992  24.7429978 145.7630014  16.6289992  23.8359978 145.8870014
  17.1089992  25.1769978 145.3740014  16.4908619  24.6774502 145.7273795
  16.9629992  22.0059978 145.8110014  17.1449992  21.5569978 146.6370014
  16.3629992  21.4219978 145.3480014  16.9067529  21.8656131 145.8613619
  18.8299992  22.0739978 142.3390014  19.2419992  21.3529978 141.8640014
  19.5109992  22.7429978 142.3980014  18.9785900  22.0657306 142.2819038
   1.1109992  22.0789978 145.4660014   0.1859992  22.2869978 145.3370014
   1.5649992  22.5629978 144.7770014   1.0456374  22.1729949 145.3550957
  15.8809992  37.0629978 147.4120014  16.5339992  36.7149978 146.8040014
  16.3919992  37.5509978 148.0580014  16.0392777  37.0813815 147.4162047
   2.3869992  20.1219978 143.4450014   2.8259992  20.7329978 142.8530014
   1.7529992  20.6599978 143.9190014   2.3613859  20.2784064 143.4280305
   8.1299992  20.2499978 147.4550014   9.0039992  20.6389978 147.4250014
   7.9939992  20.0349978 148.3770014   8.2313207  20.2741923 147.5756509
  15.0399992  20.3059978 144.7960014  14.3369992  20.9209978 144.5870014
  14.5949992  19.4689978 144.9280014  14.8836292  20.2770085 144.7852439
   2.2879992  36.0699978 144.3430014   1.6029992  36.0319978 143.6750014
   2.2919992  36.9829978 144.6310014   2.1948174  36.1881998 144.2905310
   4.2479992  22.0379978 141.8870014   4.7389992  21.4079978 141.3600014
   4.8709992  22.3339978 142.5510014   4.3995062  21.9916770 141.9045438
   9.2739992  22.3309978 144.3450014   9.4519992  21.6839978 145.0270014
   9.2199992  23.1649978 144.8120014   9.2911025  22.3550504 144.5016433
  11.1519992  37.2789978 142.7400014  12.0179992  37.6459978 142.5620014
  10.9059992  36.8399978 141.9260014  11.2372097  37.2698525 142.6056019
  17.8609992  36.8419978 145.4190014  17.6669992  36.0939978 144.8540014
  17.8219992  37.5999978 144.8360014  17.8291645  36.8420786 145.2628148
   4.1059992  36.9899978 141.3680014   3.8379992  37.2759978 142.2410014
   4.8769992  36.4439978 141.5200014   4.1735600  36.9553330 141.5081499
  31.4849992  29.4799978 147.6000014  31.5739992  30.4239978 147.4680014
  30.8469992  29.2049978 146.9420014  31.4109062  29.5719812 147.4929641
  20.3199992  26.4589978 146.5400014  19.8719992  27.3049978 146.5210014
  19.7589992  25.8799978 146.0240014  20.1829603  26.4963674 146.4676720
  32.8249992  23.7939978 147.4260014  33.4719992  23.4649978 148.0510014
  33.3349992  24.3109978 146.8030014  32.9824317  23.8189227 147.4272167
  31.2819992  32.0809978 146.6430014  30.9869992  31.7579978 145.7920014
  30.9579992  32.9809978 146.6840014  31.1977983  32.1584026 146.5319771
  21.0109992  31.8919978 144.9560014  20.7389992  32.1209978 144.0670014
  21.0559992  32.7289978 145.4160014  20.9798709  32.0366058 144.8966107
  34.0479992  33.1949978 146.8020014  33.7899992  32.5049978 146.1910014
  34.1189992  32.7519978 147.6480014  34.0222837  33.0407106 146.8326912
  30.2059992  28.7239978 145.0520014  29.4949992  29.2589978 144.7000014
  30.8969992  28.7789978 144.3920014  30.2020751  28.8046777 144.9145858
  30.2599992  27.1809978 142.0910014  30.9609992  27.2039978 142.7420014
  30.5619992  26.5529978 141.4350014  30.3968282  27.0992339 142.0914496
  33.6119992  28.9329978 146.0040014  32.8799992  29.1619978 146.5770014
  34.0589992  28.2199978 146.4590014  33.5722753  28.8678972 146.1439715
  32.4829992  28.0959978 143.6890014  33.0619992  28.2459978 144.4360014
  32.8969992  28.5659978 142.9660014  32.6183122  28.1801277 143.6935042
  30.2089992  34.8319978 147.1240014  30.6829992  35.1279978 147.9020014
  29.6459992  35.5709978 146.8910014  30.1977361  34.9722721 147.1988611
  36.1819992  19.8459978 143.5020014  35.2819992  19.9849978 143.7970014
  36.4339992  20.6769978 143.1000014  36.0928683  19.9774055 143.4880232
  24.2479992  28.6329978 145.4760014  23.9559992  29.4009978 144.9850014
  23.5729992  27.9739978 145.3130014  24.1168497  28.6489745 145.3868260
  37.3709992  34.2119978 141.8780014  37.4439992  35.1509978 142.0490014
  38.2759992  33.9069978 141.8220014  37.5034158  34.2993061 141.8938392
  29.6819992  37.7889978 145.5390014  29.6059992  37.6679978 144.5930014
  29.7139992  38.7379978 145.6580014  29.6759156  37.9007530 145.4255048
  23.3349992  36.5779978 147.3200014  23.4869992  36.2299978 148.1990014
  22.4839992  36.2209978 147.0650014  23.2407899  36.4821738 147.4057340
  32.7829992  36.9429978 142.5410014  33.1579992  36.1989978 142.0710014
  32.7879992  36.6729978 143.4600014  32.8350024  36.8046950 142.6007987
  32.4519992  36.8689978 145.2910014  31.5169992  36.9689978 145.4690014
  32.7319992  36.1589978 145.8690014  32.3618173  36.7867239 145.3934998
  33.9599992  29.1279978 141.3190014  34.0019992  28.9059978 140.3890014
  34.8089992  29.5269978 141.5090014  34.0805253  29.1515498 141.2173822
  29.5329992  23.0039978 141.9890014  29.2789992  23.0229978 142.9120014
  29.2759992  22.1329978 141.6880014  29.4635133  22.8888110 142.0745082
  25.2959992  25.9759978 147.3360014  24.4039992  25.6359978 147.2780014
  25.7469992  25.5989978 146.5810014  25.2346815  25.8783762 147.2259203
  30.8319992  26.3919978 146.1530014  30.4229992  27.2069978 145.8620014
  31.5519992  26.2519978 145.5390014  30.8734013  26.4846571 146.0300875
  26.4149992  23.4499978 141.0900014  25.9839992  23.0049978 141.8200014
  25.6969992  23.8209978 140.5780014  26.2589363  23.4392968 141.1206211
  20.9319992  23.9379978 143.5660014  21.4059992  24.5289978 142.9810014
  20.2139992  24.4679978 143.9130014  20.8998640  24.0905511 143.5327969
  22.7059992  25.0329978 147.2490014  21.8169992  25.1319978 146.9090014
  23.0029992  24.1909978 146.9030014  22.6244177  24.9327687 147.1556940
  26.3589992  25.0329978 144.9060014  27.2909992  25.1619978 145.0840014
  26.1439992  25.7019978 144.2560014  26.4574472  25.1410806 144.8424891
  25.0329992  26.2269978 142.4730014  24.4909992  25.8479978 141.7810014
  25.8669992  26.4219978 142.0440014  25.0715159  26.2015076 142.3204419
  24.1999992  22.3279978 146.7280014  23.8829992  21.4249978 146.6930014
  24.9809992  22.3299978 146.1750014  24.2622307  22.2046951 146.6484314
  28.3689992  30.7929978 144.4080014  27.6239992  30.2849978 144.0860014
  28.2339992  30.8419978 145.3550014  28.2489047  30.7301596 144.4918845
  32.2659992  23.6069978 142.6080014  31.3279992  23.7179978 142.4560014
  32.5639992  24.4629978 142.9140014  32.1776402  23.7380621 142.6285571
  32.9849992  25.4739978 144.2680014  33.8769992  25.3359978 144.5870014
  33.0409992  26.2649978 143.7320014  33.1147107  25.5620526 144.2392091
  30.4939992  32.2509978 143.4340014  30.1989992  33.0779978 143.8150014
  29.7909992  31.6319978 143.6300014  30.3585471  32.2805227 143.5126698
  37.8699992  25.6829978 143.9630014  37.3149992  25.2869978 143.2910014
  37.9699992  26.5939978 143.6850014  37.8075888  25.7518990 143.8335206
  36.1649992  34.4689978 144.4280014  35.7919992  33.6439978 144.7370014
  36.4419992  34.2859978 143.5310014  36.1513871  34.3312441 144.3489677
  25.8679992  33.6059978 147.5820014  26.3959992  34.3789978 147.3820014
  24.9879992  33.8299978 147.2810014  25.8213176  33.7423161 147.5138409
  21.6229992  28.4679978 142.1700014  22.2389992  29.0949978 142.5490014
  20.7609992  28.7839978 142.4410014  21.5908195  28.5965798 142.2585386
  27.2959992  31.2689978 147.1590014  27.0549992  32.1939978 147.2000014
  26.5549992  30.8099978 147.5550014  27.1628390  31.3336403 147.2181404
  25.9789992  36.2899978 146.7040014  25.0289992  36.3959978 146.7550014
  26.3309992  37.1109978 147.0490014  25.8965480  36.4154438 146.7575999
  33.5569992  32.4459978 142.2480014  33.9109992  32.0659978 143.0530014
  32.6089992  32.3519978 142.3350014  33.4771820  32.3813092 142.3698714
  38.0609992  36.9249978 142.4490014  38.8049992  37.5109978 142.3090014
  37.3669992  37.4939978 142.7830014  38.0690201  37.0820603 142.4749772
  34.4229992  31.1179978 144.4750014  34.1459992  30.3899978 145.0310014
  35.3509992  31.2369978 144.6800014  34.5104499  31.0344213 144.5788044
  27.6479992  33.5579978 140.6950014  27.8869992  32.8089978 140.1480014
  27.3789992  33.1699978 141.5280014  27.6443233  33.4031853 140.7327809
  26.5849992  33.1279978 143.1520014  26.7319992  32.6079978 143.9420014
  26.5819992  34.0349978 143.4580014  26.6047300  33.1793964 143.3015895
  23.0379992  30.3799978 143.6620014  22.3519992  30.7329978 144.2290014
  23.5609992  31.1429978 143.4160014  23.0149033  30.5313746 143.7062661
  31.6539992  22.6949978 145.0380014  31.8739992  23.1659978 144.2350014
  32.2129992  23.0889978 145.7080014  31.7596730  22.8127432 145.0185906
  29.3229992  34.8249978 143.9010014  28.5059992  35.3219978 143.9530014
  29.8519992  35.3009978 143.2610014  29.2828508  34.9572543 143.8216035
  28.8539992  24.4229978 145.8730014  29.6659992  24.9269978 145.9190014
  28.6099992  24.2779978 146.7870014  28.9321467  24.4723749 146.0028575
  29.7379992  21.5039978 146.8110014  29.3909992  22.1209978 147.4560014
  30.3969992  22.0049978 146.3300014  29.7795949  21.6561099 146.8342271
  26.6609992  35.8689978 143.8830014  26.8219992  36.6689978 143.3820014
  26.4639992  36.1759978 144.7680014  26.6563919  36.0199129 143.9341006
  25.3959992  22.5669978 143.4980014  25.3119992  23.4549978 143.8450014
  26.2859992  22.3019978 143.7300014  25.5048163  22.6527179 143.5768596
  23.6539992  32.9939978 142.5590014  24.2459992  33.6939978 142.8350014
  24.1129992  32.5609978 141.8390014  23.7970791  33.0312908 142.4994607
  21.9699992  25.6589978 141.6750014  21.9249992  26.5979978 141.8530014
  21.0819992  25.4229978 141.4050014  21.8438555  25.7556874 141.6628939
  21.7089992  34.3809978 146.5080014  20.8759992  34.8529978 146.5360014
  22.2539992  34.8909978 145.9100014  21.6687590  34.5145897 146.4309194
  29.6859992  35.4209978 140.8340014  29.0419992  34.7899978 141.1550014
  30.4479992  34.8899978 140.6020014  29.7008058  35.2627902 140.8466038
  34.2909992  35.2379978 141.0680014  34.5739992  34.4429978 141.5200014
  35.0299992  35.4709978 140.5070014  34.4296956  35.1607031 141.0539822
  25.2449992  31.1469978 140.9250014  25.3099992  30.3529978 141.4560014
  25.8979992  31.0289978 140.2350014  25.3421754  31.0223337 140.9044259
  30.5979992  32.1939978 140.6610014  30.3289992  32.3749978 141.5620014
  30.3909992  31.2689978 140.5300014  30.5332000  32.0936774 140.7665693
  26.3949992  29.1199978 143.2310014  25.9349992  28.6359978 143.9170014
  26.6499992  28.4509978 142.5950014  26.3665038  28.9633689 143.2389447
  27.4659992  27.3629978 141.4930014  27.2849992  27.2079978 140.5660014
  28.4159992  27.4709978 141.5380014  27.5696566  27.3563669 141.3720929
  36.8559992  29.7169978 140.9390014  36.5819992  29.2929978 140.1260014
  36.8949992  30.6489978 140.7220014  36.8237716  29.7848827 140.7984286
  27.3629992  38.0529978 142.4950014  28.2959992  38.2109978 142.6380014
  27.0989992  38.7289978 141.8700014  27.4549308  38.1659104 142.4301396
  20.9309992  32.6899978 141.9770014  21.8449992  32.7689978 142.2510014
  20.9389992  32.0029978 141.3110014  21.0571143  32.6079085 141.9244274
  19.5799992  38.0829978 147.0550014  18.9329992  37.6209978 146.5220014
  19.9349992  37.4109978 147.6370014  19.5394506  37.9289503 147.0607341
  37.3139992  30.5859978 144.9140014  38.1639992  31.0069978 145.0410014
  37.3189992  29.8459978 145.5210014  37.4311143  30.5436094 145.0134750
  37.7079992  28.6399978 146.7380014  36.9819992  28.1599978 147.1350014
  38.2899992  28.8449978 147.4700014  37.6871635  28.6019166 146.8913748
  37.9769992  28.5409978 143.1290014  37.4549992  28.8969978 142.4100014
  37.9439992  29.2159978 143.8070014  37.9010699  28.6809848 143.1222129
  36.3259992  25.7799978 141.6800014  36.4219992  26.4469978 141.0000014
  36.1859992  24.9649978 141.1980014  36.3202063  25.7610667 141.5218377
  35.4949992  27.1609978 147.3010014  35.3449992  26.2159978 147.2800014
  35.1409992  27.4419978 148.1440014  35.4265527  27.0695605 147.4121859
  35.5729992  23.1879978 140.7970014  36.1839992  22.8169978 141.4340014
  34.7359992  22.7669978 140.9930014  35.5434947  23.0802756 140.9107252
  35.2059992  24.7429978 145.7630014  35.4849992  23.8359978 145.8870014
  35.9649992  25.1769978 145.3740014  35.3468619  24.6774502 145.7273795
  35.8189992  22.0059978 145.8110014  36.0009992  21.5569978 146.6370014
  35.2189992  21.4219978 145.3480014  35.7627529  21.8656131 145.8613619
  37.6859992  22.0739978 142.3390014  38.0979992  21.3529978 141.8640014
  38.3669992  22.7429978 142.3980014  37.8345900  22.0657306 142.2819038
  19.9669992  22.0789978 145.4660014  19.0419992  22.2869978 145.3370014
  20.4209992  22.5629978 144.7770014  19.9016374  22.1729949 145.3550957
  34.7369992  37.0629978 147.4120014  35.3899992  36.7149978 146.8040014
  35.2479992  37.5509978 148.0580014  34.8952777  37.0813815 147.4162047
  21.2429992  20.1219978 143.4450014  21.6819992  20.7329978 142.8530014
  20.6089992  20.6599978 143.9190014  21.2173859  20.2784064 143.4280305
  26.9859992  20.2499978 147.4550014  27.8599992  20.6389978 147.4250014
  26.8499992  20.0349978 148.3770014  27.0873207  20.2741923 147.5756509
  33.8959992  20.3059978 144.7960014  33.1929992  20.9209978 144.5870014
  33.4509992  19.4689978 144.9280014  33.7396292  20.2770085 144.7852439
  21.1439992  36.0699978 144.3430014  20.4589992  36.0319978 143.6750014
  21.1479992  36.9829978 144.6310014  21.0508174  36.1881998 144.2905310
  23.1039992  22.0379978 141.8870014  23.5949992  21.4079978 141.3600014
  23.7269992  22.3339978 142.5510014  23.2555062  21.9916770 141.9045438
  28.1299992  22.3309978 144.3450014  28.3079992  21.6839978 145.0270014
  28.0759992  23.1649978 144.8120014  28.1471025  22.3550504 144.5016433
  30.0079992  37.2789978 142.7400014  30.8739992  37.6459978 142.5620014
  29.7619992  36.8399978 141.9260014  30.0932097  37.2698525 142.6056019
  36.7169992  36.8419978 145.4190014  36.5229992  36.0939978 144.8540014
  36.6779992  37.5999978 144.8360014  36.6851645  36.8420786 145.2628148
  22.9619992  36.9899978 141.3680014  22.6939992  37.2759978 142.2410014
  23.7329992  36.4439978 141.5200014  23.0295600  36.9553330 141.5081499
  50.3409992  29.4799978 147.6000014  50.4299992  30.4239978 147.4680014
  49.7029992  29.2049978 146.9420014  50.2669062  29.5719812 147.4929641
  39.1759992  26.4589978 146.5400014  38.7279992  27.3049978 146.5210014
  38.6149992  25.8799978 146.0240014  39.0389603  26.4963674 146.4676720
  51.6809992  23.7939978 147.4260014  52.3279992  23.4649978 148.0510014
  52.1909992  24.3109978 146.8030014  51.8384317  23.8189227 147.4272167
  50.1379992  32.0809978 146.6430014  49.8429992  31.7579978 145.7920014
  49.8139992  32.9809978 146.6840014  50.0537983  32.1584027 146.5319771
  39.8669992  31.8919978 144.9560014  39.5949992  32.1209978 144.0670014
  39.9119992  32.7289978 145.4160014  39.8358709  32.0366058 144.8966107
  52.9039992  33.1949978 146.8020014  52.6459992  32.5049978 146.1910014
  52.9749992  32.7519978 147.6480014  52.8782837  33.0407106 146.8326912
  49.0619992  28.7239978 145.0520014  48.3509992  29.2589978 144.7000014
  49.7529992  28.7789978 144.3920014  49.0580751  28.8046777 144.9145858
  49.1159992  27.1809978 142.0910014  49.8169992  27.2039978 142.7420014
  49.4179992  26.5529978 141.4350014  49.2528282  27.0992339 142.0914496
  52.4679992  28.9329978 146.0040014  51.7359992  29.1619978 146.5770014
  52.9149992  28.2199978 146.4590014  52.4282753  28.8678972 146.1439715
  51.3389992  28.0959978 143.6890014  51.9179992  28.2459978 144.4360014
  51.7529992  28.5659978 142.9660014  51.4743122  28.1801277 143.6935042
  49.0649992  34.8319978 147.1240014  49.5389992  35.1279978 147.9020014
  48.5019992  35.5709978 146.8910014  49.0537361  34.9722721 147.1988611
  55.0379992  19.8459978 143.5020014  54.1379992  19.9849978 143.7970014
  55.2899992  20.6769978 143.1000014  54.9488683  19.9774055 143.4880232
  43.1039992  28.6329978 145.4760014  42.8119992  29.4009978 144.9850014
  42.4289992  27.9739978 145.3130014  42.9728497  28.6489745 145.3868260
  56.2269992  34.2119978 141.8780014  56.2999992  35.1509978 142.0490014
  57.1319992  33.9069978 141.8220014  56.3594158  34.2993061 141.8938392
  48.5379992  37.7889978 145.5390014  48.4619992  37.6679978 144.5930014
  48.5699992  38.7379978 145.6580014  48.5319156  37.9007530 145.4255048
  42.1909992  36.5779978 147.3200014  42.3429992  36.2299978 148.1990014
  41.3399992  36.2209978 147.0650014  42.0967899  36.4821738 147.4057340
  51.6389992  36.9429978 142.5410014  52.0139992  36.1989978 142.0710014
  51.6439992  36.6729978 143.4600014  51.6910024  36.8046950 142.6007987
  51.3079992  36.8689978 145.2910014  50.3729992  36.9689978 145.4690014
  51.5879992  36.1589978 145.8690014  51.2178173  36.7867239 145.3934998
  52.8159992  29.1279978 141.3190014  52.8579992  28.9059978 140.3890014
  53.6649992  29.5269978 141.5090014  52.9365253  29.1515498 141.2173822
  48.3889992  23.0039978 141.9890014  48.1349992  23.0229978 142.9120014
  48.1319992  22.1329978 141.6880014  48.3195133  22.8888110 142.0745082
  44.1519992  25.9759978 147.3360014  43.2599992  25.6359978 147.2780014
  44.6029992  25.5989978 146.5810014  44.0906815  25.8783762 147.2259203
  49.6879992  26.3919978 146.1530014  49.2789992  27.2069978 145.8620014
  50.4079992  26.2519978 145.5390014  49.7294013  26.4846571 146.0300875
  45.2709992  23.4499978 141.0900014  44.8399992  23.0049978 141.8200014
  44.5529992  23.8209978 140.5780014  45.1149363  23.4392968 141.1206211
  39.7879992  23.9379978 143.5660014  40.2619992  24.5289978 142.9810014
  39.0699992  24.4679978 143.9130014  39.7558640  24.0905511 143.5327969
  41.5619992  25.0329978 147.2490014  40.6729992  25.1319978 146.9090014
  41.8589992  24.1909978 146.9030014  41.4804177  24.9327687 147.1556940
  45.2149992  25.0329978 144.9060014  46.1469992  25.1619978 145.0840014
  44.9999992  25.7019978 144.2560014  45.3134472  25.1410806 144.8424891
  43.8889992  26.2269978 142.4730014  43.3469992  25.8479978 141.7810014
  44.7229992  26.4219978 142.0440014  43.9275159  26.2015076 142.3204419
  43.0559992  22.3279978 146.7280014  42.7389992  21.4249978 146.6930014
  43.8369992  22.3299978 146.1750014  43.1182307  22.2046951 146.6484314
  47.2249992  30.7929978 144.4080014  46.4799992  30.2849978 144.0860014
  47.0899992  30.8419978 145.3550014  47.1049047  30.7301596 144.4918845
  51.1219992  23.6069978 142.6080014  50.1839992  23.7179978 142.4560014
  51.4199992  24.4629978 142.9140014  51.0336402  23.7380621 142.6285571
  51.8409992  25.4739978 144.2680014  52.7329992  25.3359978 144.5870014
  51.8969992  26.2649978 143.7320014  51.9707107  25.5620526 144.2392091
  49.3499992  32.2509978 143.4340014  49.0549992  33.0779978 143.8150014
  48.6469992  31.6319978 143.6300014  49.2145471  32.2805227 143.5126698
  56.7259992  25.6829978 143.9630014  56.1709992  25.2869978 143.2910014
  56.8259992  26.5939978 143.6850014  56.6635888  25.7518990 143.8335206
  55.0209992  34.4689978 144.4280014  54.6479992  33.6439978 144.7370014
  55.2979992  34.2859978 143.5310014  55.0073871  34.3312441 144.3489677
  44.7239992  33.6059978 147.5820014  45.2519992  34.3789978 147.3820014
  43.8439992  33.8299978 147.2810014  44.6773176  33.7423161 147.5138409
  40.4789992  28.4679978 142.1700014  41.0949992  29.0949978 142.5490014
  39.6169992  28.7839978 142.4410014  40.4468195  28.5965798 142.2585386
  46.1519992  31.2689978 147.1590014  45.9109992  32.1939978 147.2000014
  45.4109992  30.8099978 147.5550014  46.0188390  31.3336403 147.2181404
  44.8349992  36.2899978 146.7040014  43.8849992  36.3959978 146.7550014
  45.1869992  37.1109978 147.0490014  44.7525480  36.4154438 146.7575999
  52.4129992  32.4459978 142.2480014  52.7669992  32.0659978 143.0530014
  51.4649992  32.3519978 142.3350014  52.3331820  32.3813092 142.3698714
  56.9169992  36.9249978 142.4490014  57.6609992  37.5109978 142.3090014
  56.2229992  37.4939978 142.7830014  56.9250201  37.0820603 142.4749772
  53.2789992  31.1179978 144.4750014  53.0019992  30.3899978 145.0310014
  54.2069992  31.2369978 144.6800014  53.3664499  31.0344213 144.5788044
  46.5039992  33.5579978 140.6950014  46.7429992  32.8089978 140.1480014
  46.2349992  33.1699978 141.5280014  46.5003233  33.4031853 140.7327809
  45.4409992  33.1279978 143.1520014  45.5879992  32.6079978 143.9420014
  45.4379992  34.0349978 143.4580014  45.4607300  33.1793964 143.3015895
  41.8939992  30.3799978 143.6620014  41.2079992  30.7329978 144.2290014
  42.4169992  31.1429978 143.4160014  41.8709033  30.5313746 143.7062661
  50.5099992  22.6949978 145.0380014  50.7299992  23.1659978 144.2350014
  51.0689992  23.0889978 145.7080014  50.6156730  22.8127432 145.0185906
  48.1789992  34.8249978 143.9010014  47.3619992  35.3219978 143.9530014
  48.7079992  35.3009978 143.2610014  48.1388508  34.9572543 143.8216035
  47.7099992  24.4229978 145.8730014  48.5219992  24.9269978 145.9190014
  47.4659992  24.2779978 146.7870014  47.7881467  24.4723749 146.0028575
  48.5939992  21.5039978 146.8110014  48.2469992  22.1209978 147.4560014
  49.2529992  22.0049978 146.3300014  48.6355949  21.6561099 146.8342271
  45.5169992  35.8689978 143.8830014  45.6779992  36.6689978 143.3820014
  45.3199992  36.1759978 144.7680014  45.5123919  36.0199129 143.9341006
  44.2519992  22.5669978 143.4980014  44.1679992  23.4549978 143.8450014
  45.1419992  22.3019978 143.7300014  44.3608163  22.6527179 143.5768596
  42.5099992  32.9939978 142.5590014  43.1019992  33.6939978 142.8350014
  42.9689992  32.5609978 141.8390014  42.6530791  33.0312908 142.4994607
  40.8259992  25.6589978 141.6750014  40.7809992  26.5979978 141.8530014
  39.9379992  25.4229978 141.4050014  40.6998555  25.7556874 141.6628939
  40.5649992  34.3809978 146.5080014  39.7319992  34.8529978 146.5360014
  41.1099992  34.8909978 145.9100014  40.5247590  34.5145897 146.4309194
  48.5419992  35.4209978 140.8340014  47.8979992  34.7899978 141.1550014
  49.3039992  34.8899978 140.6020014  48.5568058  35.2627902 140.8466038
  53.1469992  35.2379978 141.0680014  53.4299992  34.4429978 141.5200014
  53.8859992  35.4709978 140.5070014  53.2856956  35.1607031 141.0539822
  44.1009992  31.1469978 140.9250014  44.1659992  30.3529978 141.4560014
  44.7539992  31.0289978 140.2350014  44.1981754  31.0223337 140.9044259
  49.4539992  32.1939978 140.6610014  49.1849992  32.3749978 141.5620014
  49.2469992  31.2689978 140.5300014  49.3892000  32.0936774 140.7665693
  45.2509992  29.1199978 143.2310014  44.7909992  28.6359978 143.9170014
  45.5059992  28.4509978 142.5950014  45.2225038  28.9633689 143.2389447
  46.3219992  27.3629978 141.4930014  46.1409992  27.2079978 140.5660014
  47.2719992  27.4709978 141.5380014  46.4256566  27.3563669 141.3720929
  55.7119992  29.7169978 140.9390014  55.4379992  29.2929978 140.1260014
  55.7509992  30.6489978 140.7220014  55.6797716  29.7848827 140.7984286
  46.2189992  38.0529978 142.4950014  47.1519992  38.2109978 142.6380014
  45.9549992  38.7289978 141.8700014  46.3109308  38.1659104 142.4301396
  39.7869992  32.6899978 141.9770014  40.7009992  32.7689978 142.2510014
  39.7949992  32.0029978 141.3110014  39.9131143  32.6079085 141.9244274
  38.4359992  38.0829978 147.0550014  37.7889992  37.6209978 146.5220014
  38.7909992  37.4109978 147.6370014  38.3954506  37.9289503 147.0607341
  56.1699992  30.5859978 144.9140014  57.0199992  31.0069978 145.0410014
  56.1749992  29.8459978 145.5210014  56.2871143  30.5436094 145.0134750
  56.5639992  28.6399978 146.7380014  55.8379992  28.1599978 147.1350014
  57.1459992  28.8449978 147.4700014  56.5431635  28.6019166 146.8913748
  56.8329992  28.5409978 143.1290014  56.3109992  28.8969978 142.4100014
  56.7999992  29.2159978 143.8070014  56.7570699  28.6809848 143.1222129
  55.1819992  25.7799978 141.6800014  55.2779992  26.4469978 141.0000014
  55.0419992  24.9649978 141.1980014  55.1762063  25.7610667 141.5218377
  54.3509992  27.1609978 147.3010014  54.2009992  26.2159978 147.2800014
  53.9969992  27.4419978 148.1440014  54.2825527  27.0695605 147.4121859
  54.4289992  23.1879978 140.7970014  55.0399992  22.8169978 141.4340014
  53.5919992  22.7669978 140.9930014  54.3994947  23.0802755 140.9107252
  54.0619992  24.7429978 145.7630014  54.3409992  23.8359978 145.8870014
  54.8209992  25.1769978 145.3740014  54.2028619  24.6774502 145.7273795
  54.6749992  22.0059978 145.8110014  54.8569992  21.5569978 146.6370014
  54.0749992  21.4219978 145.3480014  54.6187529  21.8656131 145.8613619
  56.5419992  22.0739978 142.3390014  56.9539992  21.3529978 141.8640014
  57.2229992  22.7429978 142.3980014  56.6905900  22.0657306 142.2819038
  38.8229992  22.0789978 145.4660014  37.8979992  22.2869978 145.3370014
  39.2769992  22.5629978 144.7770014  38.7576374  22.1729949 145.3550957
  53.5929992  37.0629978 147.4120014  54.2459992  36.7149978 146.8040014
  54.1039992  37.5509978 148.0580014  53.7512777  37.0813815 147.4162047
  40.0989992  20.1219978 143.4450014  40.5379992  20.7329978 142.8530014
  39.4649992  20.6599978 143.9190014  40.0733859  20.2784064 143.4280305
  45.8419992  20.2499978 147.4550014  46.7159992  20.6389978 147.4250014
  45.7059992  20.0349978 148.3770014  45.9433207  20.2741923 147.5756509
  52.7519992  20.3059978 144.7960014  52.0489992  20.9209978 144.5870014
  52.3069992  19.4689978 144.9280014  52.5956292  20.2770085 144.7852439
  39.9999992  36.0699978 144.3430014  39.3149992  36.0319978 143.6750014
  40.0039992  36.9829978 144.6310014  39.9068174  36.1881998 144.2905310
  41.9599992  22.0379978 141.8870014  42.4509992  21.4079978 141.3600014
  42.5829992  22.3339978 142.5510014  42.1115062  21.9916770 141.9045438
  46.9859992  22.3309978 144.3450014  47.1639992  21.6839978 145.0270014
  46.9319992  23.1649978 144.8120014  47.0031025  22.3550504 144.5016433
  48.8639992  37.2789978 142.7400014  49.7299992  37.6459978 142.5620014
  48.6179992  36.8399978 141.9260014  48.9492097  37.2698525 142.6056019
  55.5729992  36.8419978 145.4190014  55.3789992  36.0939978 144.8540014
  55.5339992  37.5999978 144.8360014  55.5411645  36.8420786 145.2628148
  41.8179992  36.9899978 141.3680014  41.5499992  37.2759978 142.2410014
  42.5889992  36.4439978 141.5200014  41.8855600  36.9553330 141.5081499
  69.1969992  29.4799978 147.6000014  69.2859992  30.4239978 147.4680014
  68.5589992  29.2049978 146.9420014  69.1229062  29.5719812 147.4929641
  58.0319992  26.4589978 146.5400014  57.5839992  27.3049978 146.5210014
  57.4709992  25.8799978 146.0240014  57.8949603  26.4963674 146.4676720
  70.5369992  23.7939978 147.4260014  71.1839992  23.4649978 148.0510014
  71.0469992  24.3109978 146.8030014  70.6944317  23.8189227 147.4272167
  68.9939992  32.0809978 146.6430014  68.6989992  31.7579978 145.7920014
  68.6699992  32.9809978 146.6840014  68.9097983  32.1584026 146.5319771
  58.7229992  31.8919978 144.9560014  58.4509992  32.1209978 144.0670014
  58.7679992  32.7289978 145.4160014  58.6918709  32.0366058 144.8966107
  71.7599992  33.1949978 146.8020014  71.5019992  32.5049978 146.1910014
  71.8309992  32.7519978 147.6480014  71.7342837  33.0407106 146.8326912
  67.9179992  28.7239978 145.0520014  67.2069992  29.2589978 144.7000014
  68.6089992  28.7789978 144.3920014  67.9140751  28.8046777 144.9145858
  67.9719992  27.1809978 142.0910014  68.6729992  27.2039978 142.7420014
  68.2739992  26.5529978 141.4350014  68.1088282  27.0992339 142.0914496
  71.3239992  28.9329978 146.0040014  70.5919992  29.1619978 146.5770014
  71.7709992  28.2199978 146.4590014  71.2842753  28.8678972 146.1439715
  70.1949992  28.0959978 143.6890014  70.7739992  28.2459978 144.4360014
  70.6089992  28.5659978 142.9660014  70.3303122  28.1801277 143.6935042
  67.9209992  34.8319978 147.1240014  68.3949992  35.1279978 147.9020014
  67.3579992  35.5709978 146.8910014  67.9097361  34.9722721 147.1988611
  73.8939992  19.8459978 143.5020014  72.9939992  19.9849978 143.7970014
  74.1459992  20.6769978 143.1000014  73.8048683  19.9774055 143.4880232
  61.9599992  28.6329978 145.4760014  61.6679992  29.4009978 144.9850014
  61.2849992  27.9739978 145.3130014  61.8288497  28.6489745 145.3868260
  75.0829992  34.2119978 141.8780014  75.1559992  35.1509978 142.0490014
  75.9879992  33.9069978 141.8220014  75.2154158  34.2993061 141.8938392
  67.3939992  37.7889978 145.5390014  67.3179992  37.6679978 144.5930014
  67.4259992  38.7379978 145.6580014  67.3879156  37.9007530 145.4255048
  61.0469992  36.5779978 147.3200014  61.1989992  36.2299978 148.1990014
  60.1959992  36.2209978 147.0650014  60.9527899  36.4821738 147.4057340
  70.4949992  36.9429978 142.5410014  70.8699992  36.1989978 142.0710014
  70.4999992  36.6729978 143.4600014  70.5470024  36.8046950 142.6007987
  70.1639992  36.8689978 145.2910014  69.2289992  36.9689978 145.4690014
  70.4439992  36.1589978 145.8690014  70.0738173  36.7867239 145.3934998
  71.6719992  29.1279978 141.3190014  71.7139992  28.9059978 140.3890014
  72.5209992  29.5269978 141.5090014  71.7925253  29.1515498 141.2173822
  67.2449992  23.0039978 141.9890014  66.9909992  23.0229978 142.9120014
  66.9879992  22.1329978 141.6880014  67.1755133  22.8888110 142.0745082
  63.0079992  25.9759978 147.3360014  62.1159992  25.6359978 147.2780014
  63.4589992  25.5989978 146.5810014  62.9466815  25.8783762 147.2259203
  68.5439992  26.3919978 146.1530014  68.1349992  27.2069978 145.8620014
  69.2639992  26.2519978 145.5390014  68.5854013  26.4846571 146.0300875
  64.1269992  23.4499978 141.0900014  63.6959992  23.0049978 141.8200014
  63.4089992  23.8209978 140.5780014  63.9709363  23.4392968 141.1206211
  58.6439992  23.9379978 143.5660014  59.1179992  24.5289978 142.9810014
  57.9259992  24.4679978 143.9130014  58.6118640  24.0905511 143.5327969
  60.4179992  25.0329978 147.2490014  59.5289992  25.1319978 146.9090014
  60.7149992  24.1909978 146.9030014  60.3364177  24.9327687 147.1556940
  64.0709992  25.0329978 144.9060014  65.0029992  25.1619978 145.0840014
  63.8559992  25.7019978 144.2560014  64.1694472  25.1410806 144.8424891
  62.7449992  26.2269978 142.4730014  62.2029992  25.8479978 141.7810014
  63.5789992  26.4219978 142.0440014  62.7835159  26.2015076 142.3204419
  61.9119992  22.3279978 146.7280014  61.5949992  21.4249978 146.6930014
  62.6929992  22.3299978 146.1750014  61.9742307  22.2046951 146.6484314
  66.0809992  30.7929978 144.4080014  65.3359992  30.2849978 144.0860014
  65.9459992  30.8419978 145.3550014  65.9609047  30.7301596 144.4918845
  69.9779992  23.6069978 142.6080014  69.0399992  23.7179978 142.4560014
  70.2759992  24.4629978 142.9140014  69.8896402  23.7380621 142.6285571
  70.6969992  25.4739978 144.2680014  71.5889992  25.3359978 144.5870014
  70.7529992  26.2649978 143.7320014  70.8267107  25.5620526 144.2392091
  68.2059992  32.2509978 143.4340014  67.9109992  33.0779978 143.8150014
  67.5029992  31.6319978 143.6300014  68.0705471  32.2805227 143.5126698
  75.5819992  25.6829978 143.9630014  75.0269992  25.2869978 143.2910014
  75.6819992  26.5939978 143.6850014  75.5195888  25.7518990 143.8335206
  73.8769992  34.4689978 144.4280014  73.5039992  33.6439978 144.7370014
  74.1539992  34.2859978 143.5310014  73.8633871  34.3312441 144.3489677
  63.5799992  33.6059978 147.5820014  64.1079992  34.3789978 147.3820014
  62.6999992  33.8299978 147.2810014  63.5333176  33.7423161 147.5138409
  59.3349992  28.4679978 142.1700014  59.9509992  29.0949978 142.5490014
  58.4729992  28.7839978 142.4410014  59.3028195  28.5965798 142.2585386
  65.0079992  31.2689978 147.1590014  64.7669992  32.1939978 147.2000014
  64.2669992  30.8099978 147.5550014  64.8748390  31.3336403 147.2181404
  63.6909992  36.2899978 146.7040014  62.7409992  36.3959978 146.7550014
  64.0429992  37.1109978 147.0490014  63.6085480  36.4154438 146.7575999
  71.2689992  32.4459978 142.2480014  71.6229992  32.0659978 143.0530014
  70.3209992  32.3519978 142.3350014  71.1891820  32.3813092 142.3698714
  75.7729992  36.9249978 142.4490014  76.5169992  37.5109978 142.3090014
  75.0789992  37.4939978 142.7830014  75.7810201  37.0820603 142.4749772
  72.1349992  31.1179978 144.4750014  71.8579992  30.3899978 145.0310014
  73.0629992  31.2369978 144.6800014  72.2224499  31.0344213 144.5788044
  65.3599992  33.5579978 140.6950014  65.5989992  32.8089978 140.1480014
  65.0909992  33.1699978 141.5280014  65.3563233  33.4031853 140.7327809
  64.2969992  33.1279978 143.1520014  64.4439992  32.6079978 143.9420014
  64.2939992  34.0349978 143.4580014  64.3167300  33.1793964 143.3015895
  60.7499992  30.3799978 143.6620014  60.0639992  30.7329978 144.2290014
  61.2729992  31.1429978 143.4160014  60.7269033  30.5313746 143.7062661
  69.3659992  22.6949978 145.0380014  69.5859992  23.1659978 144.2350014
  69.9249992  23.0889978 145.7080014  69.4716730  22.8127432 145.0185906
  67.0349992  34.8249978 143.9010014  66.2179992  35.3219978 143.9530014
  67.5639992  35.3009978 143.2610014  66.9948508  34.9572543 143.8216035
  66.5659992  24.4229978 145.8730014  67.3779992  24.9269978 145.9190014
  66.3219992  24.2779978 146.7870014  66.6441467  24.4723749 146.0028575
  67.4499992  21.5039978 146.8110014  67.1029992  22.1209978 147.4560014
  68.1089992  22.0049978 146.3300014  67.4915949  21.6561099 146.8342271
  64.3729992  35.8689978 143.8830014  64.5339992  36.6689978 143.3820014
  64.1759992  36.1759978 144.7680014  64.3683919  36.0199129 143.9341006
  63.1079992  22.5669978 143.4980014  63.0239992  23.4549978 143.8450014
  63.9979992  22.3019978 143.7300014  63.2168163  22.6527179 143.5768596
  61.3659992  32.9939978 142.5590014  61.9579992  33.6939978 142.8350014
  61.8249992  32.5609978 141.8390014  61.5090791  33.0312908 142.4994607
  59.6819992  25.6589978 141.6750014  59.6369992  26.5979978 141.8530014
  58.7939992  25.4229978 141.4050014  59.5558555  25.7556874 141.6628939
  59.4209992  34.3809978 146.5080014  58.5879992  34.8529978 146.5360014
  59.9659992  34.8909978 145.9100014  59.3807590  34.5145897 146.4309194
  67.3979992  35.4209978 140.8340014  66.7539992  34.7899978 141.1550014
  68.1599992  34.8899978 140.6020014  67.4128058  35.2627902 140.8466038
  72.0029992  35.2379978 141.0680014  72.2859992  34.4429978 141.5200014
  72.7419992  35.4709978 140.5070014  72.1416956  35.1607031 141.0539822
  62.9569992  31.1469978 140.9250014  63.0219992  30.3529978 141.4560014
  63.6099992  31.0289978 140.2350014  63.0541754  31.0223337 140.9044259
  68.3099992  32.1939978 140.6610014  68.0409992  32.3749978 141.5620014
  68.1029992  31.2689978 140.5300014  68.2452000  32.0936774 140.7665693
  64.1069992  29.1199978 143.2310014  63.6469992  28.6359978 143.9170014
  64.3619992  28.4509978 142.5950014  64.0785038  28.9633689 143.2389447
  65.1779992  27.3629978 141.4930014  64.9969992  27.2079978 140.5660014
  66.1279992  27.4709978 141.5380014  65.2816566  27.3563669 141.3720929
  74.5679992  29.7169978 140.9390014  74.2939992  29.2929978 140.1260014
  74.6069992  30.6489978 140.7220014  74.5357716  29.7848827 140.7984286
  65.0749992  38.0529978 142.4950014  66.0079992  38.2109978 142.6380014
  64.8109992  38.7289978 141.8700014  65.1669308  38.1659104 142.4301396
  58.6429992  32.6899978 141.9770014  59.5569992  32.7689978 142.2510014
  58.6509992  32.0029978 141.3110014  58.7691143  32.6079085 141.9244274
  57.2919992  38.0829978 147.0550014  56.6449992  37.6209978 146.5220014
  57.6469992  37.4109978 147.6370014  57.2514506  37.9289503 147.0607341
  75.0259992  30.5859978 144.9140014  75.8759992  31.0069978 145.0410014
  75.0309992  29.8459978 145.5210014  75.1431143  30.5436094 145.0134750
  75.4199992  28.6399978 146.7380014  74.6939992  28.1599978 147.1350014
  76.0019992  28.8449978 147.4700014  75.3991635  28.6019166 146.8913748
  75.6889992  28.5409978 143.1290014  75.1669992  28.8969978 142.4100014
  75.6559992  29.2159978 143.8070014  75.6130699  28.6809848 143.1222129
  74.0379992  25.7799978 141.6800014  74.1339992  26.4469978 141.0000014
  73.8979992  24.9649978 141.1980014  74.0322063  25.7610667 141.5218377
  73.2069992  27.1609978 147.3010014  73.0569992  26.2159978 147.2800014
  72.8529992  27.4419978 148.1440014  73.1385527  27.0695605 147.4121859
  73.2849992  23.1879978 140.7970014  73.8959992  22.8169978 141.4340014
  72.4479992  22.7669978 140.9930014  73.2554947  23.0802756 140.9107252
  72.9179992  24.7429978 145.7630014  73.1969992  23.8359978 145.8870014
  73.6769992  25.1769978 145.3740014  73.0588619  24.6774502 145.7273795
  73.5309992  22.0059978 145.8110014  73.7129992  21.5569978 146.6370014
  72.9309992  21.4219978 145.3480014  73.4747529  21.8656131 145.8613619
  75.3979992  22.0739978 142.3390014  75.8099992  21.3529978 141.8640014
  76.0789992  22.7429978 142.3980014  75.5465900  22.0657306 142.2819038
  57.6789992  22.0789978 145.4660014  56.7539992  22.2869978 145.3370014
  58.1329992  22.5629978 144.7770014  57.6136374  22.1729949 145.3550957
  72.4489992  37.0629978 147.4120014  73.1019992  36.7149978 146.8040014
  72.9599992  37.5509978 148.0580014  72.6072777  37.0813815 147.4162047
  58.9549992  20.1219978 143.4450014  59.3939992  20.7329978 142.8530014
  58.3209992  20.6599978 143.9190014  58.9293859  20.2784064 143.4280305
  64.6979992  20.2499978 147.4550014  65.5719992  20.6389978 147.4250014
  64.5619992  20.0349978 148.3770014  64.7993207  20.2741923 147.5756509
  71.6079992  20.3059978 144.7960014  70.9049992  20.9209978 144.5870014
  71.1629992  19.4689978 144.9280014  71.4516292  20.2770085 144.7852439
  58.8559992  36.0699978 144.3430014  58.1709992  36.0319978 143.6750014
  58.8599992  36.9829978 144.6310014  58.7628174  36.1881998 144.2905310
  60.8159992  22.0379978 141.8870014  61.3069992  21.4079978 141.3600014
  61.4389992  22.3339978 142.5510014  60.9675062  21.9916770 141.9045438
  65.8419992  22.3309978 144.3450014  66.0199992  21.6839978 145.0270014
  65.7879992  23.1649978 144.8120014  65.8591025  22.3550504 144.5016433
  67.7199992  37.2789978 142.7400014  68.5859992  37.6459978 142.5620014
  67.4739992  36.8399978 141.9260014  67.8052097  37.2698525 142.6056019
  74.4289992  36.8419978 145.4190014  74.2349992  36.0939978 144.8540014
  74.3899992  37.5999978 144.8360014  74.3971645  36.8420786 145.2628148
  60.6739992  36.9899978 141.3680014  60.4059992  37.2759978 142.2410014
  61.4449992  36.4439978 141.5200014  60.7415600  36.9553330 141.5081499
  88.0529992  29.4799978 147.6000014  88.1419992  30.4239978 147.4680014
  87.4149992  29.2049978 146.9420014  87.9789062  29.5719812 147.4929641
  76.8879992  26.4589978 146.5400014  76.4399992  27.3049978 146.5210014
  76.3269992  25.8799978 146.0240014  76.7509603  26.4963674 146.4676720
  89.3929992  23.7939978 147.4260014  90.0399992  23.4649978 148.0510014
  89.9029992  24.3109978 146.8030014  89.5504317  23.8189227 147.4272167
  87.8499992  32.0809978 146.6430014  87.5549992  31.7579978 145.7920014
  87.5259992  32.9809978 146.6840014  87.7657983  32.1584026 146.5319771
  77.5789992  31.8919978 144.9560014  77.3069992  32.1209978 144.0670014
  77.6239992  32.7289978 145.4160014  77.5478709  32.0366058 144.8966107
  90.6159992  33.1949978 146.8020014  90.3579992  32.5049978 146.1910014
  90.6869992  32.7519978 147.6480014  90.5902837  33.0407106 146.8326912
  86.7739992  28.7239978 145.0520014  86.0629992  29.2589978 144.7000014
  87.4649992  28.7789978 144.3920014  86.7700751  28.8046777 144.9145858
  86.8279992  27.1809978 142.0910014  87.5289992  27.2039978 142.7420014
  87.1299992  26.5529978 141.4350014  86.9648282  27.0992339 142.0914496
  90.1799992  28.9329978 146.0040014  89.4479992  29.1619978 146.5770014
  90.6269992  28.2199978 146.4590014  90.1402753  28.8678972 146.1439715
  89.0509992  28.0959978 143.6890014  89.6299992  28.2459978 144.4360014
  89.4649992  28.5659978 142.9660014  89.1863122  28.1801277 143.6935042
  86.7769992  34.8319978 147.1240014  87.2509992  35.1279978 147.9020014
  86.2139992  35.5709978 146.8910014  86.7657361  34.9722721 147.1988611
  92.7499992  19.8459978 143.5020014  91.8499992  19.9849978 143.7970014
  93.0019992  20.6769978 143.1000014  92.6608683  19.9774055 143.4880232
  80.8159992  28.6329978 145.4760014  80.5239992  29.4009978 144.9850014
  80.1409992  27.9739978 145.3130014  80.6848497  28.6489745 145.3868260
  93.9389992  34.2119978 141.8780014  94.0119992  35.1509978 142.0490014
  94.8439992  33.9069978 141.8220014  94.0714158  34.2993061 141.8938392
  86.2499992  37.7889978 145.5390014  86.1739992  37.6679978 144.5930014
  86.2819992  38.7379978 145.6580014  86.2439156  37.9007530 145.4255048
  79.9029992  36.5779978 147.3200014  80.0549992  36.2299978 148.1990014
  79.0519992  36.2209978 147.0650014  79.8087899  36.4821738 147.4057340
  89.3509992  36.9429978 142.5410014  89.7259992  36.1989978 142.0710014
  89.3559992  36.6729978 143.4600014  89.4030024  36.8046950 142.6007987
  89.0199992  36.8689978 145.2910014  88.0849992  36.9689978 145.4690014
  89.2999992  36.1589978 145.8690014  88.9298173  36.7867239 145.3934998
  90.5279992  29.1279978 141.3190014  90.5699992  28.9059978 140.3890014
  91.3769992  29.5269978 141.5090014  90.6485253  29.1515498 141.2173822
  86.1009992  23.0039978 141.9890014  85.8469992  23.0229978 142.9120014
  85.8439992  22.1329978 141.6880014  86.0315133  22.8888110 142.0745082
  81.8639992  25.9759978 147.3360014  80.9719992  25.6359978 147.2780014
  82.3149992  25.5989978 146.5810014  81.8026815  25.8783762 147.2259203
  87.3999992  26.3919978 146.1530014  86.9909992  27.2069978 145.8620014
  88.1199992  26.2519978 145.5390014  87.4414013  26.4846571 146.0300875
  82.9829992  23.4499978 141.0900014  82.5519992  23.0049978 141.8200014
  82.2649992  23.8209978 140.5780014  82.8269363  23.4392968 141.1206211
  77.4999992  23.9379978 143.5660014  77.9739992  24.5289978 142.9810014
  76.7819992  24.4679978 143.9130014  77.4678640  24.0905511 143.5327969
  79.2739992  25.0329978 147.2490014  78.3849992  25.1319978 146.9090014
  79.5709992  24.1909978 146.9030014  79.1924177  24.9327687 147.1556940
  82.9269992  25.0329978 144.9060014  83.8589992  25.1619978 145.0840014
  82.7119992  25.7019978 144.2560014  83.0254472  25.1410806 144.8424891
  81.6009992  26.2269978 142.4730014  81.0589992  25.8479978 141.7810014
  82.4349992  26.4219978 142.0440014  81.6395159  26.2015076 142.3204419
  80.7679992  22.3279978 146.7280014  80.4509992  21.4249978 146.6930014
  81.5489992  22.3299978 146.1750014  80.8302307  22.2046951 146.6484314
  84.9369992  30.7929978 144.4080014  84.1919992  30.2849978 144.0860014
  84.8019992  30.8419978 145.3550014  84.8169047  30.7301596 144.4918845
  88.8339992  23.6069978 142.6080014  87.8959992  23.7179978 142.4560014
  89.1319992  24.4629978 142.9140014  88.7456402  23.7380621 142.6285571
  89.5529992  25.4739978 144.2680014  90.4449992  25.3359978 144.5870014
  89.6089992  26.2649978 143.7320014  89.6827107  25.5620526 144.2392091
  87.0619992  32.2509978 143.4340014  86.7669992  33.0779978 143.8150014
  86.3589992  31.6319978 143.6300014  86.9265471  32.2805227 143.5126698
  94.4379992  25.6829978 143.9630014  93.8829992  25.2869978 143.2910014
  94.5379992  26.5939978 143.6850014  94.3755888  25.7518990 143.8335206
  92.7329992  34.4689978 144.4280014  92.3599992  33.6439978 144.7370014
  93.0099992  34.2859978 143.5310014  92.7193871  34.3312441 144.3489677
  82.4359992  33.6059978 147.5820014  82.9639992  34.3789978 147.3820014
  81.5559992  33.8299978 147.2810014  82.3893176  33.7423161 147.5138409
  78.1909992  28.4679978 142.1700014  78.8069992  29.0949978 142.5490014
  77.3289992  28.7839978 142.4410014  78.1588195  28.5965798 142.2585386
  83.8639992  31.2689978 147.1590014  83.6229992  32.1939978 147.2000014
  83.1229992  30.8099978 147.5550014  83.7308390  31.3336403 147.2181404
  82.5469992  36.2899978 146.7040014  81.5969992  36.3959978 146.7550014
  82.8989992  37.1109978 147.0490014  82.4645480  36.4154438 146.7575999
  90.1249992  32.4459978 142.2480014  90.4789992  32.0659978 143.0530014
  89.1769992  32.3519978 142.3350014  90.0451820  32.3813092 142.3698714
  94.6289992  36.9249978 142.4490014  95.3729992  37.5109978 142.3090014
  93.9349992  37.4939978 142.7830014  94.6370201  37.0820603 142.4749772
  90.9909992  31.1179978 144.4750014  90.7139992  30.3899978 145.0310014
  91.9189992  31.2369978 144.6800014  91.0784499  31.0344213 144.5788044
  84.2159992  33.5579978 140.6950014  84.4549992  32.8089978 140.1480014
  83.9469992  33.1699978 141.5280014  84.2123233  33.4031853 140.7327809
  83.1529992  33.1279978 143.1520014  83.2999992  32.6079978 143.9420014
  83.1499992  34.0349978 143.4580014  83.1727300  33.1793964 143.3015895
  79.6059992  30.3799978 143.6620014  78.9199992  30.7329978 144.2290014
  80.1289992  31.1429978 143.4160014  79.5829033  30.5313746 143.7062661
  88.2219992  22.6949978 145.0380014  88.4419992  23.1659978 144.2350014
  88.7809992  23.0889978 145.7080014  88.3276730  22.8127432 145.0185906
  85.8909992  34.8249978 143.9010014  85.0739992  35.3219978 143.9530014
  86.4199992  35.3009978 143.2610014  85.8508508  34.9572543 143.8216035
  85.4219992  24.4229978 145.8730014  86.2339992  24.9269978 145.9190014
  85.1779992  24.2779978 146.7870014  85.5001467  24.4723749 146.0028575
  86.3059992  21.5039978 146.8110014  85.9589992  22.1209978 147.4560014
  86.9649992  22.0049978 146.3300014  86.3475949  21.6561099 146.8342271
  83.2289992  35.8689978 143.8830014  83.3899992  36.6689978 143.3820014
  83.0319992  36.1759978 144.7680014  83.2243919  36.0199129 143.9341006
  81.9639992  22.5669978 143.4980014  81.8799992  23.4549978 143.8450014
  82.8539992  22.3019978 143.7300014  82.0728163  22.6527179 143.5768596
  80.2219992  32.9939978 142.5590014  80.8139992  33.6939978 142.8350014
  80.6809992  32.5609978 141.8390014  80.3650791  33.0312908 142.4994607
  78.5379992  25.6589978 141.6750014  78.4929992  26.5979978 141.8530014
  77.6499992  25.4229978 141.4050014  78.4118555  25.7556874 141.6628939
  78.2769992  34.3809978 146.5080014  77.4439992  34.8529978 146.5360014
  78.8219992  34.8909978 145.9100014  78.2367590  34.5145897 146.4309194
  86.2539992  35.4209978 140.8340014  85.6099992  34.7899978 141.1550014
  87.0159992  34.8899978 140.6020014  86.2688058  35.2627902 140.8466038
  90.8589992  35.2379978 141.0680014  91.1419992  34.4429978 141.5200014
  91.5979992  35.4709978 140.5070014  90.9976956  35.1607031 141.0539822
  81.8129992  31.1469978 140.9250014  81.8779992  30.3529978 141.4560014
  82.4659992  31.0289978 140.2350014  81.9101754  31.0223337 140.9044259
  87.1659992  32.1939978 140.6610014  86.8969992  32.3749978 141.5620014
  86.9589992  31.2689978 140.5300014  87.1012000  32.0936774 140.7665693
  82.9629992  29.1199978 143.2310014  82.5029992  28.6359978 143.9170014
  83.2179992  28.4509978 142.5950014  82.9345038  28.9633689 143.2389447
  84.0339992  27.3629978 141.4930014  83.8529992  27.2079978 140.5660014
  84.9839992  27.4709978 141.5380014  84.1376566  27.3563669 141.3720929
  93.4239992  29.7169978 140.9390014  93.1499992  29.2929978 140.1260014
  93.4629992  30.6489978 140.7220014  93.3917716  29.7848827 140.7984286
  83.9309992  38.0529978 142.4950014  84.8639992  38.2109978 142.6380014
  83.6669992  38.7289978 141.8700014  84.0229308  38.1659104 142.4301396
  77.4989992  32.6899978 141.9770014  78.4129992  32.7689978 142.2510014
  77.5069992  32.0029978 141.3110014  77.6251143  32.6079085 141.9244274
  76.1479992  38.0829978 147.0550014  75.5009992  37.6209978 146.5220014
  76.5029992  37.4109978 147.6370014  76.1074506  37.9289503 147.0607341
  93.8819992  30.5859978 144.9140014  94.7319992  31.0069978 145.0410014
  93.8869992  29.8459978 145.5210014  93.9991143  30.5436094 145.0134750
  94.2759992  28.6399978 146.7380014  93.5499992  28.1599978 147.1350014
  94.8579992  28.8449978 147.4700014  94.2551635  28.6019166 146.8913748
  94.5449992  28.5409978 143.1290014  94.0229992  28.8969978 142.4100014
  94.5119992  29.2159978 143.8070014  94.4690699  28.6809848 143.1222129
  92.8939992  25.7799978 141.6800014  92.9899992  26.4469978 141.0000014
  92.7539992  24.9649978 141.1980014  92.8882063  25.7610667 141.5218377
  92.0629992  27.1609978 147.3010014  91.9129992  26.2159978 147.2800014
  91.7089992  27.4419978 148.1440014  91.9945527  27.0695605 147.4121859
  92.1409992  23.1879978 140.7970014  92.7519992  22.8169978 141.4340014
  91.3039992  22.7669978 140.9930014  92.1114947  23.0802756 140.9107252
  91.7739992  24.7429978 145.7630014  92.0529992  23.8359978 145.8870014
  92.5329992  25.1769978 145.3740014  91.9148619  24.6774502 145.7273795
  92.3869992  22.0059978 145.8110014  92.5689992  21.5569978 146.6370014
  91.7869992  21.4219978 145.3480014  92.3307529  21.8656131 145.8613619
  94.2539992  22.0739978 142.3390014  94.6659992  21.3529978 141.8640014
  94.9349992  22.7429978 142.3980014  94.4025900  22.0657306 142.2819038
  76.5349992  22.0789978 145.4660014  75.6099992  22.2869978 145.3370014
  76.9889992  22.5629978 144.7770014  76.4696374  22.1729949 145.3550957
  91.3049992  37.0629978 147.4120014  91.9579992  36.7149978 146.8040014
  91.8159992  37.5509978 148.0580014  91.4632777  37.0813815 147.4162047
  77.8109992  20.1219978 143.4450014  78.2499992  20.7329978 142.8530014
  77.1769992  20.6599978 143.9190014  77.7853859  20.2784064 143.4280305
  83.5539992  20.2499978 147.4550014  84.4279992  20.6389978 147.4250014
  83.4179992  20.0349978 148.3770014  83.6553207  20.2741923 147.5756509
  90.4639992  20.3059978 144.7960014  89.7609992  20.9209978 144.5870014
  90.0189992  19.4689978 144.9280014  90.3076292  20.2770085 144.7852439
  77.7119992  36.0699978 144.3430014  77.0269992  36.0319978 143.6750014
  77.7159992  36.9829978 144.6310014  77.6188174  36.1881998 144.2905310
  79.6719992  22.0379978 141.8870014  80.1629992  21.4079978 141.3600014
  80.2949992  22.3339978 142.5510014  79.8235062  21.9916770 141.9045438
  84.6979992  22.3309978 144.3450014  84.8759992  21.6839978 145.0270014
  84.6439992  23.1649978 144.8120014  84.7151025  22.3550504 144.5016433
  86.5759992  37.2789978 142.7400014  87.4419992  37.6459978 142.5620014
  86.3299992  36.8399978 141.9260014  86.6612097  37.2698525 142.6056019
  93.2849992  36.8419978 145.4190014  93.0909992  36.0939978 144.8540014
  93.2459992  37.5999978 144.8360014  93.2531645  36.8420786 145.2628148
  79.5299992  36.9899978 141.3680014  79.2619992  37.2759978 142.2410014
  80.3009992  36.4439978 141.5200014  79.5975600  36.9553330 141.5081499
 106.9089992  29.4799978 147.6000014 106.9979992  30.4239978 147.4680014
 106.2709992  29.2049978 146.9420014 106.8349062  29.5719812 147.4929641
  95.7439992  26.4589978 146.5400014  95.2959992  27.3049978 146.5210014
  95.1829992  25.8799978 146.0240014  95.6069603  26.4963674 146.4676720
 108.2489992  23.7939978 147.4260014 108.8959992  23.4649978 148.0510014
 108.7589992  24.3109978 146.8030014 108.4064317  23.8189227 147.4272167
 106.7059992  32.0809978 146.6430014 106.4109992  31.7579978 145.7920014
 106.3819992  32.9809978 146.6840014 106.6217983  32.1584026 146.5319771
  96.4349992  31.8919978 144.9560014  96.1629992  32.1209978 144.0670014
  96.4799992  32.7289978 145.4160014  96.4038709  32.0366058 144.8966107
 109.4719992  33.1949978 146.8020014 109.2139992  32.5049978 146.1910014
 109.5429992  32.7519978 147.6480014 109.4462837  33.0407106 146.8326912
 105.6299992  28.7239978 145.0520014 104.9189992  29.2589978 144.7000014
 106.3209992  28.7789978 144.3920014 105.6260751  28.8046777 144.9145858
 105.6839992  27.1809978 142.0910014 106.3849992  27.2039978 142.7420014
 105.9859992  26.5529978 141.4350014 105.8208282  27.0992339 142.0914496
 109.0359992  28.9329978 146.0040014 108.3039992  29.1619978 146.5770014
 109.4829992  28.2199978 146.4590014 108.9962753  28.8678972 146.1439715
 107.9069992  28.0959978 143.6890014 108.4859992  28.2459978 144.4360014
 108.3209992  28.5659978 142.9660014 108.0423122  28.1801277 143.6935042
 105.6329992  34.8319978 147.1240014 106.1069992  35.1279978 147.9020014
 105.0699992  35.5709978 146.8910014 105.6217361  34.9722721 147.1988611
 111.6059992  19.8459978 143.5020014 110.7059992  19.9849978 143.7970014
 111.8579992  20.6769978 143.1000014 111.5168683  19.9774055 143.4880232
  99.6719992  28.6329978 145.4760014  99.3799992  29.4009978 144.9850014
  98.9969992  27.9739978 145.3130014  99.5408497  28.6489745 145.3868260
 112.7949992  34.2119978 141.8780014 112.8679992  35.1509978 142.0490014
 113.6999992  33.9069978 141.8220014 112.9274158  34.2993061 141.8938392
 105.1059992  37.7889978 145.5390014 105.0299992  37.6679978 144.5930014
 105.1379992  38.7379978 145.6580014 105.0999156  37.9007530 145.4255048
  98.7589992  36.5779978 147.3200014  98.9109992  36.2299978 148.1990014
  97.9079992  36.2209978 147.0650014  98.6647899  36.4821738 147.4057340
 108.2069992  36.9429978 142.5410014 108.5819992  36.1989978 142.0710014
 108.2119992  36.6729978 143.4600014 108.2590024  36.8046950 142.6007987
 107.8759992  36.8689978 145.2910014 106.9409992  36.9689978 145.4690014
 108.1559992  36.1589978 145.8690014 107.7858173  36.7867239 145.3934998
 109.3839992  29.1279978 141.3190014 109.4259992  28.9059978 140.3890014
 110.2329992  29.5269978 141.5090014 109.5045253  29.1515498 141.2173822
 104.9569992  23.0039978 141.9890014 104.7029992  23.0229978 142.9120014
 104.6999992  22.1329978 141.6880014 104.8875133  22.8888110 142.0745082
 100.7199992  25.9759978 147.3360014  99.8279992  25.6359978 147.2780014
 101.1709992  25.5989978 146.5810014 100.6586815  25.8783762 147.2259203
 106.2559992  26.3919978 146.1530014 105.8469992  27.2069978 145.8620014
 106.9759992  26.2519978 145.5390014 106.2974013  26.4846571 146.0300875
 101.8389992  23.4499978 141.0900014 101.4079992  23.0049978 141.8200014
 101.1209992  23.8209978 140.5780014 101.6829363  23.4392968 141.1206211
  96.3559992  23.9379978 143.5660014  96.8299992  24.5289978 142.9810014
  95.6379992  24.4679978 143.9130014  96.3238640  24.0905511 143.5327969
  98.1299992  25.0329978 147.2490014  97.2409992  25.1319978 146.9090014
  98.4269992  24.1909978 146.9030014  98.0484177  24.9327687 147.1556940
 101.7829992  25.0329978 144.9060014 102.7149992  25.1619978 145.0840014
 101.5679992  25.7019978 144.2560014 101.8814472  25.1410806 144.8424891
 100.4569992  26.2269978 142.4730014  99.9149992  25.8479978 141.7810014
 101.2909992  26.4219978 142.0440014 100.4955159  26.2015076 142.3204419
  99.6239992  22.3279978 146.7280014  99.3069992  21.4249978 146.6930014
 100.4049992  22.3299978 146.1750014  99.6862307  22.2046951 146.6484314
 103.7929992  30.7929978 144.4080014 103.0479992  30.2849978 144.0860014
 103.6579992  30.8419978 145.3550014 103.6729047  30.7301596 144.4918845
 107.6899992  23.6069978 142.6080014 106.7519992  23.7179978 142.4560014
 107.9879992  24.4629978 142.9140014 107.6016402  23.7380621 142.6285571
 108.4089992  25.4739978 144.2680014 109.3009992  25.3359978 144.5870014
 108.4649992  26.2649978 143.7320014 108.5387107  25.5620526 144.2392091
 105.9179992  32.2509978 143.4340014 105.6229992  33.0779978 143.8150014
 105.2149992  31.6319978 143.6300014 105.7825471  32.2805227 143.5126698
 113.2939992  25.6829978 143.9630014 112.7389992  25.2869978 143.2910014
 113.3939992  26.5939978 143.6850014 113.2315888  25.7518990 143.8335206
 111.5889992  34.4689978 144.4280014 111.2159992  33.6439978 144.7370014
 111.8659992  34.2859978 143.5310014 111.5753871  34.3312441 144.3489677
 101.2919992  33.6059978 147.5820014 101.8199992  34.3789978 147.3820014
 100.4119992  33.8299978 147.2810014 101.2453176  33.7423161 147.5138409
  97.0469992  28.4679978 142.1700014  97.6629992  29.0949978 142.5490014
  96.1849992  28.7839978 142.4410014  97.0148195  28.5965798 142.2585386
 102.7199992  31.2689978 147.1590014 102.4789992  32.1939978 147.2000014
 101.9789992  30.8099978 147.5550014 102.5868390  31.3336403 147.2181404
 101.4029992  36.2899978 146.7040014 100.4529992  36.3959978 146.7550014
 101.7549992  37.1109978 147.0490014 101.3205480  36.4154438 146.7575999
 108.9809992  32.4459978 142.2480014 109.3349992  32.0659978 143.0530014
 108.0329992  32.3519978 142.3350014 108.9011820  32.3813092 142.3698714
 113.4849992  36.9249978 142.4490014 114.2289992  37.5109978 142.3090014
 112.7909992  37.4939978 142.7830014 113.4930201  37.0820603 142.4749772
 109.8469992  31.1179978 144.4750014 109.5699992  30.3899978 145.0310014
 110.7749992  31.2369978 144.6800014 109.9344499  31.0344213 144.5788044
 103.0719992  33.5579978 140.6950014 103.3109992  32.8089978 140.1480014
 102.8029992  33.1699978 141.5280014 103.0683233  33.4031853 140.7327809
 102.0089992  33.1279978 143.1520014 102.1559992  32.6079978 143.9420014
 102.0059992  34.0349978 143.4580014 102.0287300  33.1793964 143.3015895
  98.4619992  30.3799978 143.6620014  97.7759992  30.7329978 144.2290014
  98.9849992  31.1429978 143.4160014  98.4389033  30.5313746 143.7062661
 107.0779992  22.6949978 145.0380014 107.2979992  23.1659978 144.2350014
 107.6369992  23.0889978 145.7080014 107.1836730  22.8127432 145.0185906
 104.7469992  34.8249978 143.9010014 103.9299992  35.3219978 143.9530014
 105.2759992  35.3009978 143.2610014 104.7068508  34.9572543 143.8216035
 104.2779992  24.4229978 145.8730014 105.0899992  24.9269978 145.9190014
 104.0339992  24.2779978 146.7870014 104.3561467  24.4723749 146.0028575
 105.1619992  21.5039978 146.8110014 104.8149992  22.1209978 147.4560014
 105.8209992  22.0049978 146.3300014 105.2035949  21.6561099 146.8342271
 102.0849992  35.8689978 143.8830014 102.2459992  36.6689978 143.3820014
 101.8879992  36.1759978 144.7680014 102.0803919  36.0199129 143.9341006
 100.8199992  22.5669978 143.4980014 100.7359992  23.4549978 143.8450014
 101.7099992  22.3019978 143.7300014 100.9288163  22.6527179 143.5768596
  99.0779992  32.9939978 142.5590014  99.6699992  33.6939978 142.8350014
  99.5369992  32.5609978 141.8390014  99.2210791  33.0312908 142.4994607
  97.3939992  25.6589978 141.6750014  97.3489992  26.5979978 141.8530014
  96.5059992  25.4229978 141.4050014  97.2678555  25.7556874 141.6628939
  97.1329992  34.3809978 146.5080014  96.2999992  34.8529978 146.5360014
  97.6779992  34.8909978 145.9100014  97.0927590  34.5145897 146.4309194
 105.1099992  35.4209978 140.8340014 104.4659992  34.7899978 141.1550014
 105.8719992  34.8899978 140.6020014 105.1248058  35.2627902 140.8466038
 109.7149992  35.2379978 141.0680014 109.9979992  34.4429978 141.5200014
 110.4539992  35.4709978 140.5070014 109.8536956  35.1607031 141.0539822
 100.6689992  31.1469978 140.9250014 100.7339992  30.3529978 141.4560014
 101.3219992  31.0289978 140.2350014 100.7661754  31.0223337 140.9044259
 106.0219992  32.1939978 140.6610014 105.7529992  32.3749978 141.5620014
 105.8149992  31.2689978 140.5300014 105.9572000  32.0936774 140.7665693
 101.8189992  29.1199978 143.2310014 101.3589992  28.6359978 143.9170014
 102.0739992  28.4509978 142.5950014 101.7905038  28.9633689 143.2389447
 102.8899992  27.3629978 141.4930014 102.7089992  27.2079978 140.5660014
 103.8399992  27.4709978 141.5380014 102.9936566  27.3563669 141.3720929
 112.2799992  29.7169978 140.9390014 112.0059992  29.2929978 140.1260014
 112.3189992  30.6489978 140.7220014 112.2477716  29.7848827 140.7984286
 102.7869992  38.0529978 142.4950014 103.7199992  38.2109978 142.6380014
 102.5229992  38.7289978 141.8700014 102.8789308  38.1659104 142.4301396
  96.3549992  32.6899978 141.9770014  97.2689992  32.7689978 142.2510014
  96.3629992  32.0029978 141.3110014  96.4811143  32.6079085 141.9244274
  95.0039992  38.0829978 147.0550014  94.3569992  37.6209978 146.5220014
  95.3589992  37.4109978 147.6370014  94.9634506  37.9289503 147.0607341
 112.7379992  30.5859978 144.9140014 113.5879992  31.0069978 145.0410014
 112.7429992  29.8459978 145.5210014 112.8551143  30.5436094 145.0134750
 113.1319992  28.6399978 146.7380014 112.4059992  28.1599978 147.1350014
 113.7139992  28.8449978 147.4700014 113.1111635  28.6019166 146.8913748
 113.4009992  28.5409978 143.1290014 112.8789992  28.8969978 142.4100014
 113.3679992  29.2159978 143.8070014 113.3250699  28.6809848 143.1222129
 111.7499992  25.7799978 141.6800014 111.8459992  26.4469978 141.0000014
 111.6099992  24.9649978 141.1980014 111.7442063  25.7610667 141.5218377
 110.9189992  27.1609978 147.3010014 110.7689992  26.2159978 147.2800014
 110.5649992  27.4419978 148.1440014 110.8505527  27.0695605 147.4121859
 110.9969992  23.1879978 140.7970014 111.6079992  22.8169978 141.4340014
 110.1599992  22.7669978 140.9930014 110.9674947  23.0802756 140.9107252
 110.6299992  24.7429978 145.7630014 110.9089992  23.8359978 145.8870014
 111.3889992  25.1769978 145.3740014 110.7708619  24.6774502 145.7273795
 111.2429992  22.0059978 145.8110014 111.4249992  21.5569978 146.6370014
 110.6429992  21.4219978 145.3480014 111.1867529  21.8656131 145.8613619
 113.1099992  22.0739978 142.3390014 113.5219992  21.3529978 141.8640014
 113.7909992  22.7429978 142.3980014 113.2585900  22.0657306 142.2819038
  95.3909992  22.0789978 145.4660014  94.4659992  22.2869978 145.3370014
  95.8449992  22.5629978 144.7770014  95.3256374  22.1729949 145.3550957
 110.1609992  37.0629978 147.4120014 110.8139992  36.7149978 146.8040014
 110.6719992  37.5509978 148.0580014 110.3192777  37.0813815 147.4162047
  96.6669992  20.1219978 143.4450014  97.1059992  20.7329978 142.8530014
  96.0329992  20.6599978 143.9190014  96.6413859  20.2784064 143.4280305
 102.4099992  20.2499978 147.4550014 103.2839992  20.6389978 147.4250014
 102.2739992  20.0349978 148.3770014 102.5113207  20.2741923 147.5756509
 109.3199992  20.3059978 144.7960014 108.6169992  20.9209978 144.5870014
 108.8749992  19.4689978 144.9280014 109.1636292  20.2770085 144.7852439
  96.5679992  36.0699978 144.3430014  95.8829992  36.0319978 143.6750014
  96.5719992  36.9829978 144.6310014  96.4748174  36.1881998 144.2905310
  98.5279992  22.0379978 141.8870014  99.0189992  21.4079978 141.3600014
  99.1509992  22.3339978 142.5510014  98.6795062  21.9916770 141.9045438
 103.5539992  22.3309978 144.3450014 103.7319992  21.6839978 145.0270014
 103.4999992  23.1649978 144.8120014 103.5711025  22.3550504 144.5016433
 105.4319992  37.2789978 142.7400014 106.2979992  37.6459978 142.5620014
 105.1859992  36.8399978 141.9260014 105.5172097  37.2698525 142.6056019
 112.1409992  36.8419978 145.4190014 111.9469992  36.0939978 144.8540014
 112.1019992  37.5999978 144.8360014 112.1091645  36.8420786 145.2628148
  98.3859992  36.9899978 141.3680014  98.1179992  37.2759978 142.2410014
  99.1569992  36.4439978 141.5200014  98.4535600  36.9553330 141.5081499
 125.7649992  29.4799978 147.6000014 125.8539992  30.4239978 147.4680014
 125.1269992  29.2049978 146.9420014 125.6909062  29.5719812 147.4929641
 114.5999992  26.4589978 146.5400014 114.1519992  27.3049978 146.5210014
 114.0389992  25.8799978 146.0240014 114.4629603  26.4963674 146.4676720
 127.1049992  23.7939978 147.4260014 127.7519992  23.4649978 148.0510014
 127.6149992  24.3109978 146.8030014 127.2624317  23.8189227 147.4272167
 125.5619992  32.0809978 146.6430014 125.2669992  31.7579978 145.7920014
 125.2379992  32.9809978 146.6840014 125.4777983  32.1584026 146.5319771
 115.2909992  31.8919978 144.9560014 115.0189992  32.1209978 144.0670014
 115.3359992  32.7289978 145.4160014 115.2598709  32.0366058 144.8966107
 128.3279992  33.1949978 146.8020014 128.0699992  32.5049978 146.1910014
 128.3989992  32.7519978 147.6480014 128.3022837  33.0407106 146.8326912
 124.4859992  28.7239978 145.0520014 123.7749992  29.2589978 144.7000014
 125.1769992  28.7789978 144.3920014 124.4820751  28.8046777 144.9145858
 124.5399992  27.1809978 142.0910014 125.2409992  27.2039978 142.7420014
 124.8419992  26.5529978 141.4350014 124.6768282  27.0992339 142.0914496
 127.8919992  28.9329978 146.0040014 127.1599992  29.1619978 146.5770014
 128.3389992  28.2199978 146.4590014 127.8522753  28.8678972 146.1439715
 126.7629992  28.0959978 143.6890014 127.3419992  28.2459978 144.4360014
 127.1769992  28.5659978 142.9660014 126.8983122  28.1801277 143.6935042
 124.4889992  34.8319978 147.1240014 124.9629992  35.1279978 147.9020014
 123.9259992  35.5709978 146.8910014 124.4777361  34.9722721 147.1988611
 130.4619992  19.8459978 143.5020014 129.5619992  19.9849978 143.7970014
 130.7139992  20.6769978 143.1000014 130.3728683  19.9774055 143.4880232
 118.5279992  28.6329978 145.4760014 118.2359992  29.4009978 144.9850014
 117.8529992  27.9739978 145.3130014 118.3968497  28.6489745 145.3868260
 131.6509992  34.2119978 141.8780014 131.7239992  35.1509978 142.0490014
 132.5559992  33.9069978 141.8220014 131.7834158  34.2993061 141.8938392
 123.9619992  37.7889978 145.5390014 123.8859992  37.6679978 144.5930014
 123.9939992  38.7379978 145.6580014 123.9559156  37.9007530 145.4255048
 117.6149992  36.5779978 147.3200014 117.7669992  36.2299978 148.1990014
 116.7639992  36.2209978 147.0650014 117.5207899  36.4821738 147.4057340
 127.0629992  36.9429978 142.5410014 127.4379992  36.1989978 142.0710014
 127.0679992  36.6729978 143.4600014 127.1150024  36.8046950 142.6007987
 126.7319992  36.8689978 145.2910014 125.7969992  36.9689978 145.4690014
 127.0119992  36.1589978 145.8690014 126.6418173  36.7867239 145.3934998
 128.2399992  29.1279978 141.3190014 128.2819992  28.9059978 140.3890014
 129.0889992  29.5269978 141.5090014 128.3605253  29.1515498 141.2173822
 123.8129992  23.0039978 141.9890014 123.5589992  23.0229978 142.9120014
 123.5559992  22.1329978 141.6880014 123.7435133  22.8888110 142.0745082
 119.5759992  25.9759978 147.3360014 118.6839992  25.6359978 147.2780014
 120.0269992  25.5989978 146.5810014 119.5146815  25.8783762 147.2259203
 125.1119992  26.3919978 146.1530014 124.7029992  27.2069978 145.8620014
 125.8319992  26.2519978 145.5390014 125.1534013  26.4846571 146.0300875
 120.6949992  23.4499978 141.0900014 120.2639992  23.0049978 141.8200014
 119.9769992  23.8209978 140.5780014 120.5389363  23.4392968 141.1206211
 115.2119992  23.9379978 143.5660014 115.6859992  24.5289978 142.9810014
 114.4939992  24.4679978 143.9130014 115.1798640  24.0905511 143.5327969
 116.9859992  25.0329978 147.2490014 116.0969992  25.1319978 146.9090014
 117.2829992  24.1909978 146.9030014 116.9044177  24.9327687 147.1556940
 120.6389992  25.0329978 144.9060014 121.5709992  25.1619978 145.0840014
 120.4239992  25.7019978 144.2560014 120.7374472  25.1410806 144.8424891
 119.3129992  26.2269978 142.4730014 118.7709992  25.8479978 141.7810014
 120.1469992  26.4219978 142.0440014 119.3515159  26.2015076 142.3204419
 118.4799992  22.3279978 146.7280014 118.1629992  21.4249978 146.6930014
 119.2609992  22.3299978 146.1750014 118.5422307  22.2046951 146.6484314
 122.6489992  30.7929978 144.4080014 121.9039992  30.2849978 144.0860014
 122.5139992  30.8419978 145.3550014 122.5289047  30.7301596 144.4918845
 126.5459992  23.6069978 142.6080014 125.6079992  23.7179978 142.4560014
 126.8439992  24.4629978 142.9140014 126.4576402  23.7380621 142.6285571
 127.2649992  25.4739978 144.2680014 128.1569992  25.3359978 144.5870014
 127.3209992  26.2649978 143.7320014 127.3947107  25.5620526 144.2392091
 124.7739992  32.2509978 143.4340014 124.4789992  33.0779978 143.8150014
 124.0709992  31.6319978 143.6300014 124.6385471  32.2805227 143.5126698
 132.1499992  25.6829978 143.9630014 131.5949992  25.2869978 143.2910014
 132.2499992  26.5939978 143.6850014 132.0875888  25.7518990 143.8335206
 130.4449992  34.4689978 144.4280014 130.0719992  33.6439978 144.7370014
 130.7219992  34.2859978 143.5310014 130.4313871  34.3312441 144.3489677
 120.1479992  33.6059978 147.5820014 120.6759992  34.3789978 147.3820014
 119.2679992  33.8299978 147.2810014 120.1013176  33.7423161 147.5138409
 115.9029992  28.4679978 142.1700014 116.5189992  29.0949978 142.5490014
 115.0409992  28.7839978 142.4410014 115.8708195  28.5965798 142.2585386
 121.5759992  31.2689978 147.1590014 121.3349992  32.1939978 147.2000014
 120.8349992  30.8099978 147.5550014 121.4428390  31.3336403 147.2181404
 120.2589992  36.2899978 146.7040014 119.3089992  36.3959978 146.7550014
 120.6109992  37.1109978 147.0490014 120.1765480  36.4154438 146.7575999
 127.8369992  32.4459978 142.2480014 128.1909992  32.0659978 143.0530014
 126.8889992  32.3519978 142.3350014 127.7571820  32.3813092 142.3698714
 132.3409992  36.9249978 142.4490014 133.0849992  37.5109978 142.3090014
 131.6469992  37.4939978 142.7830014 132.3490201  37.0820603 142.4749772
 128.7029992  31.1179978 144.4750014 128.4259992  30.3899978 145.0310014
 129.6309992  31.2369978 144.6800014 128.7904499  31.0344213 144.5788044
 121.9279992  33.5579978 140.6950014 122.1669992  32.8089978 140.1480014
 121.6589992  33.1699978 141.5280014 121.9243233  33.4031853 140.7327809
 120.8649992  33.1279978 143.1520014 121.0119992  32.6079978 143.9420014
 120.8619992  34.0349978 143.4580014 120.8847300  33.1793964 143.3015895
 117.3179992  30.3799978 143.6620014 116.6319992  30.7329978 144.2290014
 117.8409992  31.1429978 143.4160014 117.2949033  30.5313746 143.7062661
 125.9339992  22.6949978 145.0380014 126.1539992  23.1659978 144.2350014
 126.4929992  23.0889978 145.7080014 126.0396730  22.8127432 145.0185906
 123.6029992  34.8249978 143.9010014 122.7859992  35.3219978 143.9530014
 124.1319992  35.3009978 143.2610014 123.5628508  34.9572543 143.8216035
 123.1339992  24.4229978 145.8730014 123.9459992  24.9269978 145.9190014
 122.8899992  24.2779978 146.7870014 123.2121467  24.4723749 146.0028575
 124.0179992  21.5039978 146.8110014 123.6709992  22.1209978 147.4560014
 124.6769992  22.0049978 146.3300014 124.0595949  21.6561099 146.8342271
 120.9409992  35.8689978 143.8830014 121.1019992  36.6689978 143.3820014
 120.7439992  36.1759978 144.7680014 120.9363919  36.0199129 143.9341006
 119.6759992  22.5669978 143.4980014 119.5919992  23.4549978 143.8450014
 120.5659992  22.3019978 143.7300014 119.7848163  22.6527179 143.5768596
 117.9339992  32.9939978 142.5590014 118.5259992  33.6939978 142.8350014
 118.3929992  32.5609978 141.8390014 118.0770791  33.0312908 142.4994607
 116.2499992  25.6589978 141.6750014 116.2049992  26.5979978 141.8530014
 115.3619992  25.4229978 141.4050014 116.1238555  25.7556874 141.6628939
 115.9889992  34.3809978 146.5080014 115.1559992  34.8529978 146.5360014
 116.5339992  34.8909978 145.9100014 115.9487590  34.5145897 146.4309194
 123.9659992  35.4209978 140.8340014 123.3219992  34.7899978 141.1550014
 124.7279992  34.8899978 140.6020014 123.9808058  35.2627902 140.8466038
 128.5709992  35.2379978 141.0680014 128.8539992  34.4429978 141.5200014
 129.3099992  35.4709978 140.5070014 128.7096956  35.1607031 141.0539822
 119.5249992  31.1469978 140.9250014 119.5899992  30.3529978 141.4560014
 120.1779992  31.0289978 140.2350014 119.6221754  31.0223337 140.9044259
 124.8779992  32.1939978 140.6610014 124.6089992  32.3749978 141.5620014
 124.6709992  31.2689978 140.5300014 124.8132000  32.0936774 140.7665693
 120.6749992  29.1199978 143.2310014 120.2149992  28.6359978 143.9170014
 120.9299992  28.4509978 142.5950014 120.6465038  28.9633689 143.2389447
 121.7459992  27.3629978 141.4930014 121.5649992  27.2079978 140.5660014
 122.6959992  27.4709978 141.5380014 121.8496566  27.3563669 141.3720929
 131.1359992  29.7169978 140.9390014 130.8619992  29.2929978 140.1260014
 131.1749992  30.6489978 140.7220014 131.1037716  29.7848827 140.7984286
 121.6429992  38.0529978 142.4950014 122.5759992  38.2109978 142.6380014
 121.3789992  38.7289978 141.8700014 121.7349308  38.1659104 142.4301396
 115.2109992  32.6899978 141.9770014 116.1249992  32.7689978 142.2510014
 115.2189992  32.0029978 141.3110014 115.3371143  32.6079085 141.9244274
 113.8599992  38.0829978 147.0550014 113.2129992  37.6209978 146.5220014
 114.2149992  37.4109978 147.6370014 113.8194506  37.9289503 147.0607341
 131.5939992  30.5859978 144.9140014 132.4439992  31.0069978 145.0410014
 131.5989992  29.8459978 145.5210014 131.7111143  30.5436094 145.0134750
 131.9879992  28.6399978 146.7380014 131.2619992  28.1599978 147.1350014
 132.5699992  28.8449978 147.4700014 131.9671635  28.6019166 146.8913748
 132.2569992  28.5409978 143.1290014 131.7349992  28.8969978 142.4100014
 132.2239992  29.2159978 143.8070014 132.1810699  28.6809848 143.1222129
 130.6059992  25.7799978 141.6800014 130.7019992  26.4469978 141.0000014
 130.4659992  24.9649978 141.1980014 130.6002063  25.7610667 141.5218377
 129.7749992  27.1609978 147.3010014 129.6249992  26.2159978 147.2800014
 129.4209992  27.4419978 148.1440014 129.7065527  27.0695605 147.4121859
 129.8529992  23.1879978 140.7970014 130.4639992  22.8169978 141.4340014
 129.0159992  22.7669978 140.9930014 129.8234947  23.0802756 140.9107252
 129.4859992  24.7429978 145.7630014 129.7649992  23.8359978 145.8870014
 130.2449992  25.1769978 145.3740014 129.6268619  24.6774502 145.7273795
 130.0989992  22.0059978 145.8110014 130.2809992  21.5569978 146.6370014
 129.4989992  21.4219978 145.3480014 130.0427529  21.8656131 145.8613619
 131.9659992  22.0739978 142.3390014 132.3779992  21.3529978 141.8640014
 132.6469992  22.7429978 142.3980014 132.1145900  22.0657306 142.2819038
 114.2469992  22.0789978 145.4660014 113.3219992  22.2869978 145.3370014
 114.7009992  22.5629978 144.7770014 114.1816374  22.1729949 145.3550957
 129.0169992  37.0629978 147.4120014 129.6699992  36.7149978 146.8040014
 129.5279992  37.5509978 148.0580014 129.1752777  37.0813815 147.4162047
 115.5229992  20.1219978 143.4450014 115.9619992  20.7329978 142.8530014
 114.8889992  20.6599978 143.9190014 115.4973859  20.2784064 143.4280305
 121.2659992  20.2499978 147.4550014 122.1399992  20.6389978 147.4250014
 121.1299992  20.0349978 148.3770014 121.3673207  20.2741923 147.5756509
 128.1759992  20.3059978 144.7960014 127.4729992  20.9209978 144.5870014
 127.7309992  19.4689978 144.9280014 128.0196292  20.2770085 144.7852439
 115.4239992  36.0699978 144.3430014 114.7389992  36.0319978 143.6750014
 115.4279992  36.9829978 144.6310014 115.3308174  36.1881998 144.2905310
 117.3839992  22.0379978 141.8870014 117.8749992  21.4079978 141.3600014
 118.0069992  22.3339978 142.5510014 117.5355062  21.9916770 141.9045438
 122.4099992  22.3309978 144.3450014 122.5879992  21.6839978 145.0270014
 122.3559992  23.1649978 144.8120014 122.4271025  22.3550504 144.5016433
 124.2879992  37.2789978 142.7400014 125.1539992  37.6459978 142.5620014
 124.0419992  36.8399978 141.9260014 124.3732097  37.2698525 142.6056019
 130.9969992  36.8419978 145.4190014 130.8029992  36.0939978 144.8540014
 130.9579992  37.5999978 144.8360014 130.9651645  36.8420786 145.2628148
 117.2419992  36.9899978 141.3680014 116.9739992  37.2759978 142.2410014
 118.0129992  36.4439978 141.5200014 117.3095600  36.9553330 141.5081499
 144.6209992  29.4799978 147.6000014 144.7099992  30.4239978 147.4680014
 143.9829992  29.2049978 146.9420014 144.5469061  29.5719812 147.4929641
 133.4559992  26.4589978 146.5400014 133.0079992  27.3049978 146.5210014
 132.8949992  25.8799978 146.0240014 133.3189603  26.4963674 146.4676720
 144.4179992  32.0809978 146.6430014 144.1229992  31.7579978 145.7920014
 144.0939992  32.9809978 146.6840014 144.3337983  32.1584026 146.5319771
 134.1469992  31.8919978 144.9560014 133.8749992  32.1209978 144.0670014
 134.1919992  32.7289978 145.4160014 134.1158709  32.0366058 144.8966107
 143.3419992  28.7239978 145.0520014 142.6309992  29.2589978 144.7000014
 144.0329992  28.7789978 144.3920014 143.3380751  28.8046777 144.9145858
 143.3959992  27.1809978 142.0910014 144.0969992  27.2039978 142.7420014
 143.6979992  26.5529978 141.4350014 143.5328282  27.0992339 142.0914496
 143.3449992  34.8319978 147.1240014 143.8189992  35.1279978 147.9020014
 142.7819992  35.5709978 146.8910014 143.3337361  34.9722721 147.1988611
 137.3839992  28.6329978 145.4760014 137.0919992  29.4009978 144.9850014
 136.7089992  27.9739978 145.3130014 137.2528497  28.6489745 145.3868260
 142.8179992  37.7889978 145.5390014 142.7419992  37.6679978 144.5930014
 142.8499992  38.7379978 145.6580014 142.8119156  37.9007530 145.4255048
 136.4709992  36.5779978 147.3200014 136.6229992  36.2299978 148.1990014
 135.6199992  36.2209978 147.0650014 136.3767899  36.4821738 147.4057340
 142.6689992  23.0039978 141.9890014 142.4149992  23.0229978 142.9120014
 142.4119992  22.1329978 141.6880014 142.5995133  22.8888110 142.0745082
 138.4319992  25.9759978 147.3360014 137.5399992  25.6359978 147.2780014
 138.8829992  25.5989978 146.5810014 138.3706815  25.8783762 147.2259203
 143.9679992  26.3919978 146.1530014 143.5589992  27.2069978 145.8620014
 144.6879992  26.2519978 145.5390014 144.0094013  26.4846571 146.0300875
 139.5509992  23.4499978 141.0900014 139.1199992  23.0049978 141.8200014
 138.8329992  23.8209978 140.5780014 139.3949363  23.4392968 141.1206211
 134.0679992  23.9379978 143.5660014 134.5419992  24.5289978 142.9810014
 133.3499992  24.4679978 143.9130014 134.0358640  24.0905511 143.5327969
 135.8419992  25.0329978 147.2490014 134.9529992  25.1319978 146.9090014
 136.1389992  24.1909978 146.9030014 135.7604177  24.9327687 147.1556940
 139.4949992  25.0329978 144.9060014 140.4269992  25.1619978 145.0840014
 139.2799992  25.7019978 144.2560014 139.5934472  25.1410806 144.8424891
 138.1689992  26.2269978 142.4730014 137.6269992  25.8479978 141.7810014
 139.0029992  26.4219978 142.0440014 138.2075159  26.2015076 142.3204419
 137.3359992  22.3279978 146.7280014 137.0189992  21.4249978 146.6930014
 138.1169992  22.3299978 146.1750014 137.3982307  22.2046951 146.6484314
 141.5049992  30.7929978 144.4080014 140.7599992  30.2849978 144.0860014
 141.3699992  30.8419978 145.3550014 141.3849047  30.7301596 144.4918845
 145.4019992  23.6069978 142.6080014 144.4639992  23.7179978 142.4560014
 145.6999992  24.4629978 142.9140014 145.3136402  23.7380621 142.6285571
 143.6299992  32.2509978 143.4340014 143.3349992  33.0779978 143.8150014
 142.9269992  31.6319978 143.6300014 143.4945471  32.2805227 143.5126698
 139.0039992  33.6059978 147.5820014 139.5319992  34.3789978 147.3820014
 138.1239992  33.8299978 147.2810014 138.9573176  33.7423161 147.5138409
 134.7589992  28.4679978 142.1700014 135.3749992  29.0949978 142.5490014
 133.8969992  28.7839978 142.4410014 134.7268195  28.5965798 142.2585386
 140.4319992  31.2689978 147.1590014 140.1909992  32.1939978 147.2000014
 139.6909992  30.8099978 147.5550014 140.2988390  31.3336403 147.2181404
 139.1149992  36.2899978 146.7040014 138.1649992  36.3959978 146.7550014
 139.4669992  37.1109978 147.0490014 139.0325480  36.4154438 146.7575999
 140.7839992  33.5579978 140.6950014 141.0229992  32.8089978 140.1480014
 140.5149992  33.1699978 141.5280014 140.7803233  33.4031853 140.7327809
 139.7209992  33.1279978 143.1520014 139.8679992  32.6079978 143.9420014
 139.7179992  34.0349978 143.4580014 139.7407300  33.1793964 143.3015895
 136.1739992  30.3799978 143.6620014 135.4879992  30.7329978 144.2290014
 136.6969992  31.1429978 143.4160014 136.1509033  30.5313746 143.7062661
 144.7899992  22.6949978 145.0380014 145.0099992  23.1659978 144.2350014
 145.3489992  23.0889978 145.7080014 144.8956730  22.8127432 145.0185906
 142.4589992  34.8249978 143.9010014 141.6419992  35.3219978 143.9530014
 142.9879992  35.3009978 143.2610014 142.4188508  34.9572543 143.8216035
 141.9899992  24.4229978 145.8730014 142.8019992  24.9269978 145.9190014
 141.7459992  24.2779978 146.7870014 142.0681467  24.4723749 146.0028575
 142.8739992  21.5039978 146.8110014 142.5269992  22.1209978 147.4560014
 143.5329992  22.0049978 146.3300014 142.9155949  21.6561099 146.8342271
 139.7969992  35.8689978 143.8830014 139.9579992  36.6689978 143.3820014
 139.5999992  36.1759978 144.7680014 139.7923919  36.0199129 143.9341006
 138.5319992  22.5669978 143.4980014 138.4479992  23.4549978 143.8450014
 139.4219992  22.3019978 143.7300014 138.6408163  22.6527179 143.5768596
 136.7899992  32.9939978 142.5590014 137.3819992  33.6939978 142.8350014
 137.2489992  32.5609978 141.8390014 136.9330791  33.0312908 142.4994607
 135.1059992  25.6589978 141.6750014 135.0609992  26.5979978 141.8530014
 134.2179992  25.4229978 141.4050014 134.9798555  25.7556874 141.6628939
 134.8449992  34.3809978 146.5080014 134.0119992  34.8529978 146.5360014
 135.3899992  34.8909978 145.9100014 134.8047590  34.5145897 146.4309194
 142.8219992  35.4209978 140.8340014 142.1779992  34.7899978 141.1550014
 143.5839992  34.8899978 140.6020014 142.8368058  35.2627902 140.8466038
 138.3809992  31.1469978 140.9250014 138.4459992  30.3529978 141.4560014
 139.0339992  31.0289978 140.2350014 138.4781754  31.0223337 140.9044259
 143.7339992  32.1939978 140.6610014 143.4649992  32.3749978 141.5620014
 143.5269992  31.2689978 140.5300014 143.6692000  32.0936774 140.7665693
 139.5309992  29.1199978 143.2310014 139.0709992  28.6359978 143.9170014
 139.7859992  28.4509978 142.5950014 139.5025038  28.9633689 143.2389447
 140.6019992  27.3629978 141.4930014 140.4209992  27.2079978 140.5660014
 141.5519992  27.4709978 141.5380014 140.7056566  27.3563669 141.3720929
 140.4989992  38.0529978 142.4950014 141.4319992  38.2109978 142.6380014
 140.2349992  38.7289978 141.8700014 140.5909308  38.1659104 142.4301396
 134.0669992  32.6899978 141.9770014 134.9809992  32.7689978 142.2510014
 134.0749992  32.0029978 141.3110014 134.1931143  32.6079085 141.9244274
 132.7159992  38.0829978 147.0550014 132.0689992  37.6209978 146.5220014
 133.0709992  37.4109978 147.6370014 132.6754506  37.9289503 147.0607341
 133.1029992  22.0789978 145.4660014 132.1779992  22.2869978 145.3370014
 133.5569992  22.5629978 144.7770014 133.0376374  22.1729949 145.3550957
 134.3789992  20.1219978 143.4450014 134.8179992  20.7329978 142.8530014
 133.7449992  20.6599978 143.9190014 134.3533859  20.2784064 143.4280305
 140.1219992  20.2499978 147.4550014 140.9959992  20.6389978 147.4250014
 139.9859992  20.0349978 148.3770014 140.2233207  20.2741923 147.5756509
 134.2799992  36.0699978 144.3430014 133.5949992  36.0319978 143.6750014
 134.2839992  36.9829978 144.6310014 134.1868174  36.1881998 144.2905310
 136.2399992  22.0379978 141.8870014 136.7309992  21.4079978 141.3600014
 136.8629992  22.3339978 142.5510014 136.3915062  21.9916770 141.9045438
 141.2659992  22.3309978 144.3450014 141.4439992  21.6839978 145.0270014
 141.2119992  23.1649978 144.8120014 141.2831025  22.3550504 144.5016433
 143.1439992  37.2789978 142.7400014 144.0099992  37.6459978 142.5620014
 142.8979992  36.8399978 141.9260014 143.2292097  37.2698525 142.6056019
 136.0979992  36.9899978 141.3680014 135.8299992  37.2759978 142.2410014
 136.8689992  36.4439978 141.5200014 136.1655600  36.9553330 141.5081499
  12.6289992  48.3359978 147.6000014  12.7179992  49.2799978 147.4680014
  11.9909992  48.0609978 146.9420014  12.5549062  48.4279812 147.4929641
   1.4639992  45.3149978 146.5400014   1.0159992  46.1609978 146.5210014
   0.9029992  44.7359978 146.0240014   1.3269603  45.3523674 146.4676720
  13.9689992  42.6499978 147.4260014  14.6159992  42.3209978 148.0510014
  14.4789992  43.1669978 146.8030014  14.1264317  42.6749227 147.4272167
  12.4259992  50.9369978 146.6430014  12.1309992  50.6139978 145.7920014
  12.1019992  51.8369978 146.6840014  12.3417983  51.0144026 146.5319771
   2.1549992  50.7479978 144.9560014   1.8829992  50.9769978 144.0670014
   2.1999992  51.5849978 145.4160014   2.1238709  50.8926058 144.8966107
  15.1919992  52.0509978 146.8020014  14.9339992  51.3609978 146.1910014
  15.2629992  51.6079978 147.6480014  15.1662837  51.8967106 146.8326912
  11.3499992  47.5799978 145.0520014  10.6389992  48.1149978 144.7000014
  12.0409992  47.6349978 144.3920014  11.3460751  47.6606777 144.9145858
  11.4039992  46.0369978 142.0910014  12.1049992  46.0599978 142.7420014
  11.7059992  45.4089978 141.4350014  11.5408282  45.9552339 142.0914496
  14.7559992  47.7889978 146.0040014  14.0239992  48.0179978 146.5770014
  15.2029992  47.0759978 146.4590014  14.7162753  47.7238972 146.1439715
  13.6269992  46.9519978 143.6890014  14.2059992  47.1019978 144.4360014
  14.0409992  47.4219978 142.9660014  13.7623122  47.0361277 143.6935042
  11.3529992  53.6879978 147.1240014  11.8269992  53.9839978 147.9020014
  10.7899992  54.4269978 146.8910014  11.3417361  53.8282721 147.1988611
  17.3259992  38.7019978 143.5020014  16.4259992  38.8409978 143.7970014
  17.5779992  39.5329978 143.1000014  17.2368683  38.8334055 143.4880232
   5.3919992  47.4889978 145.4760014   5.0999992  48.2569978 144.9850014
   4.7169992  46.8299978 145.3130014   5.2608497  47.5049745 145.3868260
  18.5149992  53.0679978 141.8780014  18.5879992  54.0069978 142.0490014
  19.4199992  52.7629978 141.8220014  18.6474158  53.1553061 141.8938392
  10.8259992  56.6449978 145.5390014  10.7499992  56.5239978 144.5930014
  10.8579992  57.5939978 145.6580014  10.8199156  56.7567530 145.4255048
   4.4789992  55.4339978 147.3200014   4.6309992  55.0859978 148.1990014
   3.6279992  55.0769978 147.0650014   4.3847899  55.3381738 147.4057340
  13.9269992  55.7989978 142.5410014  14.3019992  55.0549978 142.0710014
  13.9319992  55.5289978 143.4600014  13.9790024  55.6606950 142.6007987
  13.5959992  55.7249978 145.2910014  12.6609992  55.8249978 145.4690014
  13.8759992  55.0149978 145.8690014  13.5058173  55.6427239 145.3934998
  15.1039992  47.9839978 141.3190014  15.1459992  47.7619978 140.3890014
  15.9529992  48.3829978 141.5090014  15.2245253  48.0075498 141.2173822
  10.6769992  41.8599978 141.9890014  10.4229992  41.8789978 142.9120014
  10.4199992  40.9889978 141.6880014  10.6075133  41.7448110 142.0745082
   6.4399992  44.8319978 147.3360014   5.5479992  44.4919978 147.2780014
   6.8909992  44.4549978 146.5810014   6.3786815  44.7343762 147.2259203
  11.9759992  45.2479978 146.1530014  11.5669992  46.0629978 145.8620014
  12.6959992  45.1079978 145.5390014  12.0174013  45.3406571 146.0300875
   7.5589992  42.3059978 141.0900014   7.1279992  41.8609978 141.8200014
   6.8409992  42.6769978 140.5780014   7.4029363  42.2952968 141.1206211
   2.0759992  42.7939978 143.5660014   2.5499992  43.3849978 142.9810014
   1.3579992  43.3239978 143.9130014   2.0438640  42.9465511 143.5327969
   3.8499992  43.8889978 147.2490014   2.9609992  43.9879978 146.9090014
   4.1469992  43.0469978 146.9030014   3.7684177  43.7887687 147.1556940
   7.5029992  43.8889978 144.9060014   8.4349992  44.0179978 145.0840014
   7.2879992  44.5579978 144.2560014   7.6014472  43.9970806 144.8424891
   6.1769992  45.0829978 142.4730014   5.6349992  44.7039978 141.7810014
   7.0109992  45.2779978 142.0440014   6.2155159  45.0575076 142.3204419
   5.3439992  41.1839978 146.7280014   5.0269992  40.2809978 146.6930014
   6.1249992  41.1859978 146.1750014   5.4062307  41.0606951 146.6484314
   9.5129992  49.6489978 144.4080014   8.7679992  49.1409978 144.0860014
   9.3779992  49.6979978 145.3550014   9.3929047  49.5861596 144.4918845
  13.4099992  42.4629978 142.6080014  12.4719992  42.5739978 142.4560014
  13.7079992  43.3189978 142.9140014  13.3216402  42.5940621 142.6285571
  14.1289992  44.3299978 144.2680014  15.0209992  44.1919978 144.5870014
  14.1849992  45.1209978 143.7320014  14.2587107  44.4180526 144.2392091
  11.6379992  51.1069978 143.4340014  11.3429992  51.9339978 143.8150014
  10.9349992  50.4879978 143.6300014  11.5025471  51.1365227 143.5126698
  19.0139992  44.5389978 143.9630014  18.4589992  44.1429978 143.2910014
  19.1139992  45.4499978 143.6850014  18.9515888  44.6078990 143.8335206
  17.3089992  53.3249978 144.4280014  16.9359992  52.4999978 144.7370014
  17.5859992  53.1419978 143.5310014  17.2953871  53.1872441 144.3489677
   7.0119992  52.4619978 147.5820014   7.5399992  53.2349978 147.3820014
   6.1319992  52.6859978 147.2810014   6.9653176  52.5983161 147.5138409
   2.7669992  47.3239978 142.1700014   3.3829992  47.9509978 142.5490014
   1.9049992  47.6399978 142.4410014   2.7348195  47.4525798 142.2585386
   8.4399992  50.1249978 147.1590014   8.1989992  51.0499978 147.2000014
   7.6989992  49.6659978 147.5550014   8.3068390  50.1896403 147.2181404
   7.1229992  55.1459978 146.7040014   6.1729992  55.2519978 146.7550014
   7.4749992  55.9669978 147.0490014   7.0405480  55.2714438 146.7575999
  14.7009992  51.3019978 142.2480014  15.0549992  50.9219978 143.0530014
  13.7529992  51.2079978 142.3350014  14.6211820  51.2373092 142.3698714
  19.2049992  55.7809978 142.4490014  19.9489992  56.3669978 142.3090014
  18.5109992  56.3499978 142.7830014  19.2130201  55.9380603 142.4749772
  15.5669992  49.9739978 144.4750014  15.2899992  49.2459978 145.0310014
  16.4949992  50.0929978 144.6800014  15.6544499  49.8904213 144.5788044
   8.7919992  52.4139978 140.6950014   9.0309992  51.6649978 140.1480014
   8.5229992  52.0259978 141.5280014   8.7883233  52.2591853 140.7327809
   7.7289992  51.9839978 143.1520014   7.8759992  51.4639978 143.9420014
   7.7259992  52.8909978 143.4580014   7.7487300  52.0353964 143.3015895
   4.1819992  49.2359978 143.6620014   3.4959992  49.5889978 144.2290014
   4.7049992  49.9989978 143.4160014   4.1589033  49.3873746 143.7062661
  12.7979992  41.5509978 145.0380014  13.0179992  42.0219978 144.2350014
  13.3569992  41.9449978 145.7080014  12.9036730  41.6687432 145.0185906
  10.4669992  53.6809978 143.9010014   9.6499992  54.1779978 143.9530014
  10.9959992  54.1569978 143.2610014  10.4268508  53.8132543 143.8216035
   9.9979992  43.2789978 145.8730014  10.8099992  43.7829978 145.9190014
   9.7539992  43.1339978 146.7870014  10.0761467  43.3283749 146.0028575
  10.8819992  40.3599978 146.8110014  10.5349992  40.9769978 147.4560014
  11.5409992  40.8609978 146.3300014  10.9235949  40.5121099 146.8342271
   7.8049992  54.7249978 143.8830014   7.9659992  55.5249978 143.3820014
   7.6079992  55.0319978 144.7680014   7.8003919  54.8759129 143.9341006
   6.5399992  41.4229978 143.4980014   6.4559992  42.3109978 143.8450014
   7.4299992  41.1579978 143.7300014   6.6488163  41.5087179 143.5768596
   4.7979992  51.8499978 142.5590014   5.3899992  52.5499978 142.8350014
   5.2569992  51.4169978 141.8390014   4.9410791  51.8872908 142.4994607
   3.1139992  44.5149978 141.6750014   3.0689992  45.4539978 141.8530014
   2.2259992  44.2789978 141.4050014   2.9878555  44.6116874 141.6628939
   2.8529992  53.2369978 146.5080014   2.0199992  53.7089978 146.5360014
   3.3979992  53.7469978 145.9100014   2.8127590  53.3705897 146.4309194
  10.8299992  54.2769978 140.8340014  10.1859992  53.6459978 141.1550014
  11.5919992  53.7459978 140.6020014  10.8448058  54.1187902 140.8466038
  15.4349992  54.0939978 141.0680014  15.7179992  53.2989978 141.5200014
  16.1739992  54.3269978 140.5070014  15.5736956  54.0167031 141.0539822
   6.3889992  50.0029978 140.9250014   6.4539992  49.2089978 141.4560014
   7.0419992  49.8849978 140.2350014   6.4861754  49.8783337 140.9044259
  11.7419992  51.0499978 140.6610014  11.4729992  51.2309978 141.5620014
  11.5349992  50.1249978 140.5300014  11.6772000  50.9496774 140.7665693
   7.5389992  47.9759978 143.2310014   7.0789992  47.4919978 143.9170014
   7.7939992  47.3069978 142.5950014   7.5105038  47.8193689 143.2389447
   8.6099992  46.2189978 141.4930014   8.4289992  46.0639978 140.5660014
   9.5599992  46.3269978 141.5380014   8.7136566  46.2123669 141.3720929
  17.9999992  48.5729978 140.9390014  17.7259992  48.1489978 140.1260014
  18.0389992  49.5049978 140.7220014  17.9677716  48.6408827 140.7984286
   8.5069992  56.9089978 142.4950014   9.4399992  57.0669978 142.6380014
   8.2429992  57.5849978 141.8700014   8.5989308  57.0219104 142.4301396
   2.0749992  51.5459978 141.9770014   2.9889992  51.6249978 142.2510014
   2.0829992  50.8589978 141.3110014   2.2011143  51.4639085 141.9244274
   0.7239992  56.9389978 147.0550014   0.0769992  56.4769978 146.5220014
   1.0789992  56.2669978 147.6370014   0.6834506  56.7849503 147.0607341
  18.4579992  49.4419978 144.9140014  19.3079992  49.8629978 145.0410014
  18.4629992  48.7019978 145.5210014  18.5751143  49.3996094 145.0134750
  18.8519992  47.4959978 146.7380014  18.1259992  47.0159978 147.1350014
  19.4339992  47.7009978 147.4700014  18.8311635  47.4579166 146.8913748
  19.1209992  47.3969978 143.1290014  18.5989992  47.7529978 142.4100014
  19.0879992  48.0719978 143.8070014  19.0450699  47.5369848 143.1222129
  17.4699992  44.6359978 141.6800014  17.5659992  45.3029978 141.0000014
  17.3299992  43.8209978 141.1980014  17.4642063  44.6170667 141.5218377
  16.6389992  46.0169978 147.3010014  16.4889992  45.0719978 147.2800014
  16.2849992  46.2979978 148.1440014  16.5705527  45.9255605 147.4121859
  16.7169992  42.0439978 140.7970014  17.3279992  41.6729978 141.4340014
  15.8799992  41.6229978 140.9930014  16.6874947  41.9362756 140.9107252
  16.3499992  43.5989978 145.7630014  16.6289992  42.6919978 145.8870014
  17.1089992  44.0329978 145.3740014  16.4908619  43.5334502 145.7273795
  16.9629992  40.8619978 145.8110014  17.1449992  40.4129978 146.6370014
  16.3629992  40.2779978 145.3480014  16.9067529  40.7216131 145.8613619
  18.8299992  40.9299978 142.3390014  19.2419992  40.2089978 141.8640014
  19.5109992  41.5989978 142.3980014  18.9785900  40.9217306 142.2819038
   1.1109992  40.9349978 145.4660014   0.1859992  41.1429978 145.3370014
   1.5649992  41.4189978 144.7770014   1.0456374  41.0289949 145.3550957
  15.8809992  55.9189978 147.4120014  16.5339992  55.5709978 146.8040014
  16.3919992  56.4069978 148.0580014  16.0392777  55.9373815 147.4162047
   2.3869992  38.9779978 143.4450014   2.8259992  39.5889978 142.8530014
   1.7529992  39.5159978 143.9190014   2.3613859  39.1344064 143.4280305
   8.1299992  39.1059978 147.4550014   9.0039992  39.4949978 147.4250014
   7.9939992  38.8909978 148.3770014   8.2313207  39.1301923 147.5756509
  15.0399992  39.1619978 144.7960014  14.3369992  39.7769978 144.5870014
  14.5949992  38.3249978 144.9280014  14.8836292  39.1330085 144.7852439
   2.2879992  54.9259978 144.3430014   1.6029992  54.8879978 143.6750014
   2.2919992  55.8389978 144.6310014   2.1948174  55.0441998 144.2905310
   4.2479992  40.8939978 141.8870014   4.7389992  40.2639978 141.3600014
   4.8709992  41.1899978 142.5510014   4.3995062  40.8476770 141.9045438
   9.2739992  41.1869978 144.3450014   9.4519992  40.5399978 145.0270014
   9.2199992  42.0209978 144.8120014   9.2911025  41.2110504 144.5016433
  11.1519992  56.1349978 142.7400014  12.0179992  56.5019978 142.5620014
  10.9059992  55.6959978 141.9260014  11.2372097  56.1258525 142.6056019
  17.8609992  55.6979978 145.4190014  17.6669992  54.9499978 144.8540014
  17.8219992  56.4559978 144.8360014  17.8291645  55.6980786 145.2628148
   4.1059992  55.8459978 141.3680014   3.8379992  56.1319978 142.2410014
   4.8769992  55.2999978 141.5200014   4.1735600  55.8113330 141.5081499
  31.4849992  48.3359978 147.6000014  31.5739992  49.2799978 147.4680014
  30.8469992  48.0609978 146.9420014  31.4109062  48.4279812 147.4929641
  20.3199992  45.3149978 146.5400014  19.8719992  46.1609978 146.5210014
  19.7589992  44.7359978 146.0240014  20.1829603  45.3523674 146.4676720
  32.8249992  42.6499978 147.4260014  33.4719992  42.3209978 148.0510014
  33.3349992  43.1669978 146.8030014  32.9824317  42.6749227 147.4272167
  31.2819992  50.9369978 146.6430014  30.9869992  50.6139978 145.7920014
  30.9579992  51.8369978 146.6840014  31.1977983  51.0144026 146.5319771
  21.0109992  50.7479978 144.9560014  20.7389992  50.9769978 144.0670014
  21.0559992  51.5849978 145.4160014  20.9798709  50.8926058 144.8966107
  34.0479992  52.0509978 146.8020014  33.7899992  51.3609978 146.1910014
  34.1189992  51.6079978 147.6480014  34.0222837  51.8967106 146.8326912
  30.2059992  47.5799978 145.0520014  29.4949992  48.1149978 144.7000014
  30.8969992  47.6349978 144.3920014  30.2020751  47.6606777 144.9145858
  30.2599992  46.0369978 142.0910014  30.9609992  46.0599978 142.7420014
  30.5619992  45.4089978 141.4350014  30.3968282  45.9552339 142.0914496
  33.6119992  47.7889978 146.0040014  32.8799992  48.0179978 146.5770014
  34.0589992  47.0759978 146.4590014  33.5722753  47.7238972 146.1439715
  32.4829992  46.9519978 143.6890014  33.0619992  47.1019978 144.4360014
  32.8969992  47.4219978 142.9660014  32.6183122  47.0361277 143.6935042
  30.2089992  53.6879978 147.1240014  30.6829992  53.9839978 147.9020014
  29.6459992  54.4269978 146.8910014  30.1977361  53.8282721 147.1988611
  36.1819992  38.7019978 143.5020014  35.2819992  38.8409978 143.7970014
  36.4339992  39.5329978 143.1000014  36.0928683  38.8334055 143.4880232
  24.2479992  47.4889978 145.4760014  23.9559992  48.2569978 144.9850014
  23.5729992  46.8299978 145.3130014  24.1168497  47.5049745 145.3868260
  37.3709992  53.0679978 141.8780014  37.4439992  54.0069978 142.0490014
  38.2759992  52.7629978 141.8220014  37.5034158  53.1553061 141.8938392
  29.6819992  56.6449978 145.5390014  29.6059992  56.5239978 144.5930014
  29.7139992  57.5939978 145.6580014  29.6759156  56.7567530 145.4255048
  23.3349992  55.4339978 147.3200014  23.4869992  55.0859978 148.1990014
  22.4839992  55.0769978 147.0650014  23.2407899  55.3381738 147.4057340
  32.7829992  55.7989978 142.5410014  33.1579992  55.0549978 142.0710014
  32.7879992  55.5289978 143.4600014  32.8350024  55.6606950 142.6007987
  32.4519992  55.7249978 145.2910014  31.5169992  55.8249978 145.4690014
  32.7319992  55.0149978 145.8690014  32.3618173  55.6427239 145.3934998
  33.9599992  47.9839978 141.3190014  34.0019992  47.7619978 140.3890014
  34.8089992  48.3829978 141.5090014  34.0805253  48.0075498 141.2173822
  29.5329992  41.8599978 141.9890014  29.2789992  41.8789978 142.9120014
  29.2759992  40.9889978 141.6880014  29.4635133  41.7448110 142.0745082
  25.2959992  44.8319978 147.3360014  24.4039992  44.4919978 147.2780014
  25.7469992  44.4549978 146.5810014  25.2346815  44.7343762 147.2259203
  30.8319992  45.2479978 146.1530014  30.4229992  46.0629978 145.8620014
  31.5519992  45.1079978 145.5390014  30.8734013  45.3406571 146.0300875
  26.4149992  42.3059978 141.0900014  25.9839992  41.8609978 141.8200014
  25.6969992  42.6769978 140.5780014  26.2589363  42.2952968 141.1206211
  20.9319992  42.7939978 143.5660014  21.4059992  43.3849978 142.9810014
  20.2139992  43.3239978 143.9130014  20.8998640  42.9465511 143.5327969
  22.7059992  43.8889978 147.2490014  21.8169992  43.9879978 146.9090014
  23.0029992  43.0469978 146.9030014  22.6244177  43.7887687 147.1556940
  26.3589992  43.8889978 144.9060014  27.2909992  44.0179978 145.0840014
  26.1439992  44.5579978 144.2560014  26.4574472  43.9970806 144.8424891
  25.0329992  45.0829978 142.4730014  24.4909992  44.7039978 141.7810014
  25.8669992  45.2779978 142.0440014  25.0715159  45.0575076 142.3204419
  24.1999992  41.1839978 146.7280014  23.8829992  40.2809978 146.6930014
  24.9809992  41.1859978 146.1750014  24.2622307  41.0606951 146.6484314
  28.3689992  49.6489978 144.4080014  27.6239992  49.1409978 144.0860014
  28.2339992  49.6979978 145.3550014  28.2489047  49.5861596 144.4918845
  32.2659992  42.4629978 142.6080014  31.3279992  42.5739978 142.4560014
  32.5639992  43.3189978 142.9140014  32.1776402  42.5940621 142.6285571
  32.9849992  44.3299978 144.2680014  33.8769992  44.1919978 144.5870014
  33.0409992  45.1209978 143.7320014  33.1147107  44.4180526 144.2392091
  30.4939992  51.1069978 143.4340014  30.1989992  51.9339978 143.8150014
  29.7909992  50.4879978 143.6300014  30.3585471  51.1365227 143.5126698
  37.8699992  44.5389978 143.9630014  37.3149992  44.1429978 143.2910014
  37.9699992  45.4499978 143.6850014  37.8075888  44.6078990 143.8335206
  36.1649992  53.3249978 144.4280014  35.7919992  52.4999978 144.7370014
  36.4419992  53.1419978 143.5310014  36.1513871  53.1872441 144.3489677
  25.8679992  52.4619978 147.5820014  26.3959992  53.2349978 147.3820014
  24.9879992  52.6859978 147.2810014  25.8213176  52.5983161 147.5138409
  21.6229992  47.3239978 142.1700014  22.2389992  47.9509978 142.5490014
  20.7609992  47.6399978 142.4410014  21.5908195  47.4525798 142.2585386
  27.2959992  50.1249978 147.1590014  27.0549992  51.0499978 147.2000014
  26.5549992  49.6659978 147.5550014  27.1628390  50.1896403 147.2181404
  25.9789992  55.1459978 146.7040014  25.0289992  55.2519978 146.7550014
  26.3309992  55.9669978 147.0490014  25.8965480  55.2714438 146.7575999
  33.5569992  51.3019978 142.2480014  33.9109992  50.9219978 143.0530014
  32.6089992  51.2079978 142.3350014  33.4771820  51.2373092 142.3698714
  38.0609992  55.7809978 142.4490014  38.8049992  56.3669978 142.3090014
  37.3669992  56.3499978 142.7830014  38.0690201  55.9380603 142.4749772
  34.4229992  49.9739978 144.4750014  34.1459992  49.2459978 145.0310014
  35.3509992  50.0929978 144.6800014  34.5104499  49.8904213 144.5788044
  27.6479992  52.4139978 140.6950014  27.8869992  51.6649978 140.1480014
  27.3789992  52.0259978 141.5280014  27.6443233  52.2591853 140.7327809
  26.5849992  51.9839978 143.1520014  26.7319992  51.4639978 143.9420014
  26.5819992  52.8909978 143.4580014  26.6047300  52.0353964 143.3015895
  23.0379992  49.2359978 143.6620014  22.3519992  49.5889978 144.2290014
  23.5609992  49.9989978 143.4160014  23.0149033  49.3873746 143.7062661
  31.6539992  41.5509978 145.0380014  31.8739992  42.0219978 144.2350014
  32.2129992  41.9449978 145.7080014  31.7596730  41.6687432 145.0185906
  29.3229992  53.6809978 143.9010014  28.5059992  54.1779978 143.9530014
  29.8519992  54.1569978 143.2610014  29.2828508  53.8132543 143.8216035
  28.8539992  43.2789978 145.8730014  29.6659992  43.7829978 145.9190014
  28.6099992  43.1339978 146.7870014  28.9321467  43.3283749 146.0028575
  29.7379992  40.3599978 146.8110014  29.3909992  40.9769978 147.4560014
  30.3969992  40.8609978 146.3300014  29.7795949  40.5121099 146.8342271
  26.6609992  54.7249978 143.8830014  26.8219992  55.5249978 143.3820014
  26.4639992  55.0319978 144.7680014  26.6563919  54.8759129 143.9341006
  25.3959992  41.4229978 143.4980014  25.3119992  42.3109978 143.8450014
  26.2859992  41.1579978 143.7300014  25.5048163  41.5087179 143.5768596
  23.6539992  51.8499978 142.5590014  24.2459992  52.5499978 142.8350014
  24.1129992  51.4169978 141.8390014  23.7970791  51.8872908 142.4994607
  21.9699992  44.5149978 141.6750014  21.9249992  45.4539978 141.8530014
  21.0819992  44.2789978 141.4050014  21.8438555  44.6116874 141.6628939
  21.7089992  53.2369978 146.5080014  20.8759992  53.7089978 146.5360014
  22.2539992  53.7469978 145.9100014  21.6687590  53.3705897 146.4309194
  29.6859992  54.2769978 140.8340014  29.0419992  53.6459978 141.1550014
  30.4479992  53.7459978 140.6020014  29.7008058  54.1187902 140.8466038
  34.2909992  54.0939978 141.0680014  34.5739992  53.2989978 141.5200014
  35.0299992  54.3269978 140.5070014  34.4296956  54.0167031 141.0539822
  25.2449992  50.0029978 140.9250014  25.3099992  49.2089978 141.4560014
  25.8979992  49.8849978 140.2350014  25.3421754  49.8783337 140.9044259
  30.5979992  51.0499978 140.6610014  30.3289992  51.2309978 141.5620014
  30.3909992  50.1249978 140.5300014  30.5332000  50.9496774 140.7665693
  26.3949992  47.9759978 143.2310014  25.9349992  47.4919978 143.9170014
  26.6499992  47.3069978 142.5950014  26.3665038  47.8193689 143.2389447
  27.4659992  46.2189978 141.4930014  27.2849992  46.0639978 140.5660014
  28.4159992  46.3269978 141.5380014  27.5696566  46.2123669 141.3720929
  36.8559992  48.5729978 140.9390014  36.5819992  48.1489978 140.1260014
  36.8949992  49.5049978 140.7220014  36.8237716  48.6408827 140.7984286
  27.3629992  56.9089978 142.4950014  28.2959992  57.0669978 142.6380014
  27.0989992  57.5849978 141.8700014  27.4549308  57.0219104 142.4301396
  20.9309992  51.5459978 141.9770014  21.8449992  51.6249978 142.2510014
  20.9389992  50.8589978 141.3110014  21.0571143  51.4639085 141.9244274
  19.5799992  56.9389978 147.0550014  18.9329992  56.4769978 146.5220014
  19.9349992  56.2669978 147.6370014  19.5394506  56.7849503 147.0607341
  37.3139992  49.4419978 144.9140014  38.1639992  49.8629978 145.0410014
  37.3189992  48.7019978 145.5210014  37.4311143  49.3996094 145.0134750
  37.7079992  47.4959978 146.7380014  36.9819992  47.0159978 147.1350014
  38.2899992  47.7009978 147.4700014  37.6871635  47.4579166 146.8913748
  37.9769992  47.3969978 143.1290014  37.4549992  47.7529978 142.4100014
  37.9439992  48.0719978 143.8070014  37.9010699  47.5369848 143.1222129
  36.3259992  44.6359978 141.6800014  36.4219992  45.3029978 141.0000014
  36.1859992  43.8209978 141.1980014  36.3202063  44.6170667 141.5218377
  35.4949992  46.0169978 147.3010014  35.3449992  45.0719978 147.2800014
  35.1409992  46.2979978 148.1440014  35.4265527  45.9255605 147.4121859
  35.5729992  42.0439978 140.7970014  36.1839992  41.6729978 141.4340014
  34.7359992  41.6229978 140.9930014  35.5434947  41.9362756 140.9107252
  35.2059992  43.5989978 145.7630014  35.4849992  42.6919978 145.8870014
  35.9649992  44.0329978 145.3740014  35.3468619  43.5334502 145.7273795
  35.8189992  40.8619978 145.8110014  36.0009992  40.4129978 146.6370014
  35.2189992  40.2779978 145.3480014  35.7627529  40.7216131 145.8613619
  37.6859992  40.9299978 142.3390014  38.0979992  40.2089978 141.8640014
  38.3669992  41.5989978 142.3980014  37.8345900  40.9217306 142.2819038
  19.9669992  40.9349978 145.4660014  19.0419992  41.1429978 145.3370014
  20.4209992  41.4189978 144.7770014  19.9016374  41.0289949 145.3550957
  34.7369992  55.9189978 147.4120014  35.3899992  55.5709978 146.8040014
  35.2479992  56.4069978 148.0580014  34.8952777  55.9373815 147.4162047
  21.2429992  38.9779978 143.4450014  21.6819992  39.5889978 142.8530014
  20.6089992  39.5159978 143.9190014  21.2173859  39.1344064 143.4280305
  26.9859992  39.1059978 147.4550014  27.8599992  39.4949978 147.4250014
  26.8499992  38.8909978 148.3770014  27.0873207  39.1301923 147.5756509
  33.8959992  39.1619978 144.7960014  33.1929992  39.7769978 144.5870014
  33.4509992  38.3249978 144.9280014  33.7396292  39.1330085 144.7852439
  21.1439992  54.9259978 144.3430014  20.4589992  54.8879978 143.6750014
  21.1479992  55.8389978 144.6310014  21.0508174  55.0441998 144.2905310
  23.1039992  40.8939978 141.8870014  23.5949992  40.2639978 141.3600014
  23.7269992  41.1899978 142.5510014  23.2555062  40.8476770 141.9045438
  28.1299992  41.1869978 144.3450014  28.3079992  40.5399978 145.0270014
  28.0759992  42.0209978 144.8120014  28.1471025  41.2110504 144.5016433
  30.0079992  56.1349978 142.7400014  30.8739992  56.5019978 142.5620014
  29.7619992  55.6959978 141.9260014  30.0932097  56.1258525 142.6056019
  36.7169992  55.6979978 145.4190014  36.5229992  54.9499978 144.8540014
  36.6779992  56.4559978 144.8360014  36.6851645  55.6980786 145.2628148
  22.9619992  55.8459978 141.3680014  22.6939992  56.1319978 142.2410014
  23.7329992  55.2999978 141.5200014  23.0295600  55.8113330 141.5081499
  50.3409992  48.3359978 147.6000014  50.4299992  49.2799978 147.4680014
  49.7029992  48.0609978 146.9420014  50.2669062  48.4279812 147.4929641
  39.1759992  45.3149978 146.5400014  38.7279992  46.1609978 146.5210014
  38.6149992  44.7359978 146.0240014  39.0389603  45.3523674 146.4676720
  51.6809992  42.6499978 147.4260014  52.3279992  42.3209978 148.0510014
  52.1909992  43.1669978 146.8030014  51.8384317  42.6749227 147.4272167
  50.1379992  50.9369978 146.6430014  49.8429992  50.6139978 145.7920014
  49.8139992  51.8369978 146.6840014  50.0537983  51.0144027 146.5319771
  39.8669992  50.7479978 144.9560014  39.5949992  50.9769978 144.0670014
  39.9119992  51.5849978 145.4160014  39.8358709  50.8926058 144.8966107
  52.9039992  52.0509978 146.8020014  52.6459992  51.3609978 146.1910014
  52.9749992  51.6079978 147.6480014  52.8782837  51.8967106 146.8326912
  49.0619992  47.5799978 145.0520014  48.3509992  48.1149978 144.7000014
  49.7529992  47.6349978 144.3920014  49.0580751  47.6606777 144.9145858
  49.1159992  46.0369978 142.0910014  49.8169992  46.0599978 142.7420014
  49.4179992  45.4089978 141.4350014  49.2528282  45.9552339 142.0914496
  52.4679992  47.7889978 146.0040014  51.7359992  48.0179978 146.5770014
  52.9149992  47.0759978 146.4590014  52.4282753  47.7238972 146.1439715
  51.3389992  46.9519978 143.6890014  51.9179992  47.1019978 144.4360014
  51.7529992  47.4219978 142.9660014  51.4743122  47.0361277 143.6935042
  49.0649992  53.6879978 147.1240014  49.5389992  53.9839978 147.9020014
  48.5019992  54.4269978 146.8910014  49.0537361  53.8282721 147.1988611
  55.0379992  38.7019978 143.5020014  54.1379992  38.8409978 143.7970014
  55.2899992  39.5329978 143.1000014  54.9488683  38.8334055 143.4880232
  43.1039992  47.4889978 145.4760014  42.8119992  48.2569978 144.9850014
  42.4289992  46.8299978 145.3130014  42.9728497  47.5049745 145.3868260
  56.2269992  53.0679978 141.8780014  56.2999992  54.0069978 142.0490014
  57.1319992  52.7629978 141.8220014  56.3594158  53.1553061 141.8938392
  48.5379992  56.6449978 145.5390014  48.4619992  56.5239978 144.5930014
  48.5699992  57.5939978 145.6580014  48.5319156  56.7567530 145.4255048
  42.1909992  55.4339978 147.3200014  42.3429992  55.0859978 148.1990014
  41.3399992  55.0769978 147.0650014  42.0967899  55.3381738 147.4057340
  51.6389992  55.7989978 142.5410014  52.0139992  55.0549978 142.0710014
  51.6439992  55.5289978 143.4600014  51.6910024  55.6606950 142.6007987
  51.3079992  55.7249978 145.2910014  50.3729992  55.8249978 145.4690014
  51.5879992  55.0149978 145.8690014  51.2178173  55.6427239 145.3934998
  52.8159992  47.9839978 141.3190014  52.8579992  47.7619978 140.3890014
  53.6649992  48.3829978 141.5090014  52.9365253  48.0075498 141.2173822
  48.3889992  41.8599978 141.9890014  48.1349992  41.8789978 142.9120014
  48.1319992  40.9889978 141.6880014  48.3195133  41.7448110 142.0745082
  44.1519992  44.8319978 147.3360014  43.2599992  44.4919978 147.2780014
  44.6029992  44.4549978 146.5810014  44.0906815  44.7343762 147.2259203
  49.6879992  45.2479978 146.1530014  49.2789992  46.0629978 145.8620014
  50.4079992  45.1079978 145.5390014  49.7294013  45.3406571 146.0300875
  45.2709992  42.3059978 141.0900014  44.8399992  41.8609978 141.8200014
  44.5529992  42.6769978 140.5780014  45.1149363  42.2952968 141.1206211
  39.7879992  42.7939978 143.5660014  40.2619992  43.3849978 142.9810014
  39.0699992  43.3239978 143.9130014  39.7558640  42.9465511 143.5327969
  41.5619992  43.8889978 147.2490014  40.6729992  43.9879978 146.9090014
  41.8589992  43.0469978 146.9030014  41.4804177  43.7887687 147.1556940
  45.2149992  43.8889978 144.9060014  46.1469992  44.0179978 145.0840014
  44.9999992  44.5579978 144.2560014  45.3134472  43.9970806 144.8424891
  43.8889992  45.0829978 142.4730014  43.3469992  44.7039978 141.7810014
  44.7229992  45.2779978 142.0440014  43.9275159  45.0575076 142.3204419
  43.0559992  41.1839978 146.7280014  42.7389992  40.2809978 146.6930014
  43.8369992  41.1859978 146.1750014  43.1182307  41.0606951 146.6484314
  47.2249992  49.6489978 144.4080014  46.4799992  49.1409978 144.0860014
  47.0899992  49.6979978 145.3550014  47.1049047  49.5861596 144.4918845
  51.1219992  42.4629978 142.6080014  50.1839992  42.5739978 142.4560014
  51.4199992  43.3189978 142.9140014  51.0336402  42.5940621 142.6285571
  51.8409992  44.3299978 144.2680014  52.7329992  44.1919978 144.5870014
  51.8969992  45.1209978 143.7320014  51.9707107  44.4180526 144.2392091
  49.3499992  51.1069978 143.4340014  49.0549992  51.9339978 143.8150014
  48.6469992  50.4879978 143.6300014  49.2145471  51.1365227 143.5126698
  56.7259992  44.5389978 143.9630014  56.1709992  44.1429978 143.2910014
  56.8259992  45.4499978 143.6850014  56.6635888  44.6078990 143.8335206
  55.0209992  53.3249978 144.4280014  54.6479992  52.4999978 144.7370014
  55.2979992  53.1419978 143.5310014  55.0073871  53.1872441 144.3489677
  44.7239992  52.4619978 147.5820014  45.2519992  53.2349978 147.3820014
  43.8439992  52.6859978 147.2810014  44.6773176  52.5983161 147.5138409
  40.4789992  47.3239978 142.1700014  41.0949992  47.9509978 142.5490014
  39.6169992  47.6399978 142.4410014  40.4468195  47.4525798 142.2585386
  46.1519992  50.1249978 147.1590014  45.9109992  51.0499978 147.2000014
  45.4109992  49.6659978 147.5550014  46.0188390  50.1896403 147.2181404
  44.8349992  55.1459978 146.7040014  43.8849992  55.2519978 146.7550014
  45.1869992  55.9669978 147.0490014  44.7525480  55.2714438 146.7575999
  52.4129992  51.3019978 142.2480014  52.7669992  50.9219978 143.0530014
  51.4649992  51.2079978 142.3350014  52.3331820  51.2373092 142.3698714
  56.9169992  55.7809978 142.4490014  57.6609992  56.3669978 142.3090014
  56.2229992  56.3499978 142.7830014  56.9250201  55.9380603 142.4749772
  53.2789992  49.9739978 144.4750014  53.0019992  49.2459978 145.0310014
  54.2069992  50.0929978 144.6800014  53.3664499  49.8904213 144.5788044
  46.5039992  52.4139978 140.6950014  46.7429992  51.6649978 140.1480014
  46.2349992  52.0259978 141.5280014  46.5003233  52.2591853 140.7327809
  45.4409992  51.9839978 143.1520014  45.5879992  51.4639978 143.9420014
  45.4379992  52.8909978 143.4580014  45.4607300  52.0353964 143.3015895
  41.8939992  49.2359978 143.6620014  41.2079992  49.5889978 144.2290014
  42.4169992  49.9989978 143.4160014  41.8709033  49.3873746 143.7062661
  50.5099992  41.5509978 145.0380014  50.7299992  42.0219978 144.2350014
  51.0689992  41.9449978 145.7080014  50.6156730  41.6687432 145.0185906
  48.1789992  53.6809978 143.9010014  47.3619992  54.1779978 143.9530014
  48.7079992  54.1569978 143.2610014  48.1388508  53.8132543 143.8216035
  47.7099992  43.2789978 145.8730014  48.5219992  43.7829978 145.9190014
  47.4659992  43.1339978 146.7870014  47.7881467  43.3283749 146.0028575
  48.5939992  40.3599978 146.8110014  48.2469992  40.9769978 147.4560014
  49.2529992  40.8609978 146.3300014  48.6355949  40.5121099 146.8342271
  45.5169992  54.7249978 143.8830014  45.6779992  55.5249978 143.3820014
  45.3199992  55.0319978 144.7680014  45.5123919  54.8759129 143.9341006
  44.2519992  41.4229978 143.4980014  44.1679992  42.3109978 143.8450014
  45.1419992  41.1579978 143.7300014  44.3608163  41.5087179 143.5768596
  42.5099992  51.8499978 142.5590014  43.1019992  52.5499978 142.8350014
  42.9689992  51.4169978 141.8390014  42.6530791  51.8872908 142.4994607
  40.8259992  44.5149978 141.6750014  40.7809992  45.4539978 141.8530014
  39.9379992  44.2789978 141.4050014  40.6998555  44.6116874 141.6628939
  40.5649992  53.2369978 146.5080014  39.7319992  53.7089978 146.5360014
  41.1099992  53.7469978 145.9100014  40.5247590  53.3705897 146.4309194
  48.5419992  54.2769978 140.8340014  47.8979992  53.6459978 141.1550014
  49.3039992  53.7459978 140.6020014  48.5568058  54.1187902 140.8466038
  53.1469992  54.0939978 141.0680014  53.4299992  53.2989978 141.5200014
  53.8859992  54.3269978 140.5070014  53.2856956  54.0167031 141.0539822
  44.1009992  50.0029978 140.9250014  44.1659992  49.2089978 141.4560014
  44.7539992  49.8849978 140.2350014  44.1981754  49.8783337 140.9044259
  49.4539992  51.0499978 140.6610014  49.1849992  51.2309978 141.5620014
  49.2469992  50.1249978 140.5300014  49.3892000  50.9496774 140.7665693
  45.2509992  47.9759978 143.2310014  44.7909992  47.4919978 143.9170014
  45.5059992  47.3069978 142.5950014  45.2225038  47.8193689 143.2389447
  46.3219992  46.2189978 141.4930014  46.1409992  46.0639978 140.5660014
  47.2719992  46.3269978 141.5380014  46.4256566  46.2123669 141.3720929
  55.7119992  48.5729978 140.9390014  55.4379992  48.1489978 140.1260014
  55.7509992  49.5049978 140.7220014  55.6797716  48.6408827 140.7984286
  46.2189992  56.9089978 142.4950014  47.1519992  57.0669978 142.6380014
  45.9549992  57.5849978 141.8700014  46.3109308  57.0219104 142.4301396
  39.7869992  51.5459978 141.9770014  40.7009992  51.6249978 142.2510014
  39.7949992  50.8589978 141.3110014  39.9131143  51.4639085 141.9244274
  38.4359992  56.9389978 147.0550014  37.7889992  56.4769978 146.5220014
  38.7909992  56.2669978 147.6370014  38.3954506  56.7849503 147.0607341
  56.1699992  49.4419978 144.9140014  57.0199992  49.8629978 145.0410014
  56.1749992  48.7019978 145.5210014  56.2871143  49.3996094 145.0134750
  56.5639992  47.4959978 146.7380014  55.8379992  47.0159978 147.1350014
  57.1459992  47.7009978 147.4700014  56.5431635  47.4579166 146.8913748
  56.8329992  47.3969978 143.1290014  56.3109992  47.7529978 142.4100014
  56.7999992  48.0719978 143.8070014  56.7570699  47.5369848 143.1222129
  55.1819992  44.6359978 141.6800014  55.2779992  45.3029978 141.0000014
  55.0419992  43.8209978 141.1980014  55.1762063  44.6170667 141.5218377
  54.3509992  46.0169978 147.3010014  54.2009992  45.0719978 147.2800014
  53.9969992  46.2979978 148.1440014  54.2825527  45.9255605 147.4121859
  54.4289992  42.0439978 140.7970014  55.0399992  41.6729978 141.4340014
  53.5919992  41.6229978 140.9930014  54.3994947  41.9362755 140.9107252
  54.0619992  43.5989978 145.7630014  54.3409992  42.6919978 145.8870014
  54.8209992  44.0329978 145.3740014  54.2028619  43.5334502 145.7273795
  54.6749992  40.8619978 145.8110014  54.8569992  40.4129978 146.6370014
  54.0749992  40.2779978 145.3480014  54.6187529  40.7216131 145.8613619
  56.5419992  40.9299978 142.3390014  56.9539992  40.2089978 141.8640014
  57.2229992  41.5989978 142.3980014  56.6905900  40.9217306 142.2819038
  38.8229992  40.9349978 145.4660014  37.8979992  41.1429978 145.3370014
  39.2769992  41.4189978 144.7770014  38.7576374  41.0289949 145.3550957
  53.5929992  55.9189978 147.4120014  54.2459992  55.5709978 146.8040014
  54.1039992  56.4069978 148.0580014  53.7512777  55.9373815 147.4162047
  40.0989992  38.9779978 143.4450014  40.5379992  39.5889978 142.8530014
  39.4649992  39.5159978 143.9190014  40.0733859  39.1344064 143.4280305
  45.8419992  39.1059978 147.4550014  46.7159992  39.4949978 147.4250014
  45.7059992  38.8909978 148.3770014  45.9433207  39.1301923 147.5756509
  52.7519992  39.1619978 144.7960014  52.0489992  39.7769978 144.5870014
  52.3069992  38.3249978 144.9280014  52.5956292  39.1330085 144.7852439
  39.9999992  54.9259978 144.3430014  39.3149992  54.8879978 143.6750014
  40.0039992  55.8389978 144.6310014  39.9068174  55.0441998 144.2905310
  41.9599992  40.8939978 141.8870014  42.4509992  40.2639978 141.3600014
  42.5829992  41.1899978 142.5510014  42.1115062  40.8476770 141.9045438
  46.9859992  41.1869978 144.3450014  47.1639992  40.5399978 145.0270014
  46.9319992  42.0209978 144.8120014  47.0031025  41.2110504 144.5016433
  48.8639992  56.1349978 142.7400014  49.7299992  56.5019978 142.5620014
  48.6179992  55.6959978 141.9260014  48.9492097  56.1258525 142.6056019
  55.5729992  55.6979978 145.4190014  55.3789992  54.9499978 144.8540014
  55.5339992  56.4559978 144.8360014  55.5411645  55.6980786 145.2628148
  41.8179992  55.8459978 141.3680014  41.5499992  56.1319978 142.2410014
  42.5889992  55.2999978 141.5200014  41.8855600  55.8113330 141.5081499
  69.1969992  48.3359978 147.6000014  69.2859992  49.2799978 147.4680014
  68.5589992  48.0609978 146.9420014  69.1229062  48.4279812 147.4929641
  58.0319992  45.3149978 146.5400014  57.5839992  46.1609978 146.5210014
  57.4709992  44.7359978 146.0240014  57.8949603  45.3523674 146.4676720
  70.5369992  42.6499978 147.4260014  71.1839992  42.3209978 148.0510014
  71.0469992  43.1669978 146.8030014  70.6944317  42.6749227 147.4272167
  68.9939992  50.9369978 146.6430014  68.6989992  50.6139978 145.7920014
  68.6699992  51.8369978 146.6840014  68.9097983  51.0144026 146.5319771
  58.7229992  50.7479978 144.9560014  58.4509992  50.9769978 144.0670014
  58.7679992  51.5849978 145.4160014  58.6918709  50.8926058 144.8966107
  71.7599992  52.0509978 146.8020014  71.5019992  51.3609978 146.1910014
  71.8309992  51.6079978 147.6480014  71.7342837  51.8967106 146.8326912
  67.9179992  47.5799978 145.0520014  67.2069992  48.1149978 144.7000014
  68.6089992  47.6349978 144.3920014  67.9140751  47.6606777 144.9145858
  67.9719992  46.0369978 142.0910014  68.6729992  46.0599978 142.7420014
  68.2739992  45.4089978 141.4350014  68.1088282  45.9552339 142.0914496
  71.3239992  47.7889978 146.0040014  70.5919992  48.0179978 146.5770014
  71.7709992  47.0759978 146.4590014  71.2842753  47.7238972 146.1439715
  70.1949992  46.9519978 143.6890014  70.7739992  47.1019978 144.4360014
  70.6089992  47.4219978 142.9660014  70.3303122  47.0361277 143.6935042
  67.9209992  53.6879978 147.1240014  68.3949992  53.9839978 147.9020014
  67.3579992  54.4269978 146.8910014  67.9097361  53.8282721 147.1988611
  73.8939992  38.7019978 143.5020014  72.9939992  38.8409978 143.7970014
  74.1459992  39.5329978 143.1000014  73.8048683  38.8334055 143.4880232
  61.9599992  47.4889978 145.4760014  61.6679992  48.2569978 144.9850014
  61.2849992  46.8299978 145.3130014  61.8288497  47.5049745 145.3868260
  75.0829992  53.0679978 141.8780014  75.1559992  54.0069978 142.0490014
  75.9879992  52.7629978 141.8220014  75.2154158  53.1553061 141.8938392
  67.3939992  56.6449978 145.5390014  67.3179992  56.5239978 144.5930014
  67.4259992  57.5939978 145.6580014  67.3879156  56.7567530 145.4255048
  61.0469992  55.4339978 147.3200014  61.1989992  55.0859978 148.1990014
  60.1959992  55.0769978 147.0650014  60.9527899  55.3381738 147.4057340
  70.4949992  55.7989978 142.5410014  70.8699992  55.0549978 142.0710014
  70.4999992  55.5289978 143.4600014  70.5470024  55.6606950 142.6007987
  70.1639992  55.7249978 145.2910014  69.2289992  55.8249978 145.4690014
  70.4439992  55.0149978 145.8690014  70.0738173  55.6427239 145.3934998
  71.6719992  47.9839978 141.3190014  71.7139992  47.7619978 140.3890014
  72.5209992  48.3829978 141.5090014  71.7925253  48.0075498 141.2173822
  67.2449992  41.8599978 141.9890014  66.9909992  41.8789978 142.9120014
  66.9879992  40.9889978 141.6880014  67.1755133  41.7448110 142.0745082
  63.0079992  44.8319978 147.3360014  62.1159992  44.4919978 147.2780014
  63.4589992  44.4549978 146.5810014  62.9466815  44.7343762 147.2259203
  68.5439992  45.2479978 146.1530014  68.1349992  46.0629978 145.8620014
  69.2639992  45.1079978 145.5390014  68.5854013  45.3406571 146.0300875
  64.1269992  42.3059978 141.0900014  63.6959992  41.8609978 141.8200014
  63.4089992  42.6769978 140.5780014  63.9709363  42.2952968 141.1206211
  58.6439992  42.7939978 143.5660014  59.1179992  43.3849978 142.9810014
  57.9259992  43.3239978 143.9130014  58.6118640  42.9465511 143.5327969
  60.4179992  43.8889978 147.2490014  59.5289992  43.9879978 146.9090014
  60.7149992  43.0469978 146.9030014  60.3364177  43.7887687 147.1556940
  64.0709992  43.8889978 144.9060014  65.0029992  44.0179978 145.0840014
  63.8559992  44.5579978 144.2560014  64.1694472  43.9970806 144.8424891
  62.7449992  45.0829978 142.4730014  62.2029992  44.7039978 141.7810014
  63.5789992  45.2779978 142.0440014  62.7835159  45.0575076 142.3204419
  61.9119992  41.1839978 146.7280014  61.5949992  40.2809978 146.6930014
  62.6929992  41.1859978 146.1750014  61.9742307  41.0606951 146.6484314
  66.0809992  49.6489978 144.4080014  65.3359992  49.1409978 144.0860014
  65.9459992  49.6979978 145.3550014  65.9609047  49.5861596 144.4918845
  69.9779992  42.4629978 142.6080014  69.0399992  42.5739978 142.4560014
  70.2759992  43.3189978 142.9140014  69.8896402  42.5940621 142.6285571
  70.6969992  44.3299978 144.2680014  71.5889992  44.1919978 144.5870014
  70.7529992  45.1209978 143.7320014  70.8267107  44.4180526 144.2392091
  68.2059992  51.1069978 143.4340014  67.9109992  51.9339978 143.8150014
  67.5029992  50.4879978 143.6300014  68.0705471  51.1365227 143.5126698
  75.5819992  44.5389978 143.9630014  75.0269992  44.1429978 143.2910014
  75.6819992  45.4499978 143.6850014  75.5195888  44.6078990 143.8335206
  73.8769992  53.3249978 144.4280014  73.5039992  52.4999978 144.7370014
  74.1539992  53.1419978 143.5310014  73.8633871  53.1872441 144.3489677
  63.5799992  52.4619978 147.5820014  64.1079992  53.2349978 147.3820014
  62.6999992  52.6859978 147.2810014  63.5333176  52.5983161 147.5138409
  59.3349992  47.3239978 142.1700014  59.9509992  47.9509978 142.5490014
  58.4729992  47.6399978 142.4410014  59.3028195  47.4525798 142.2585386
  65.0079992  50.1249978 147.1590014  64.7669992  51.0499978 147.2000014
  64.2669992  49.6659978 147.5550014  64.8748390  50.1896403 147.2181404
  63.6909992  55.1459978 146.7040014  62.7409992  55.2519978 146.7550014
  64.0429992  55.9669978 147.0490014  63.6085480  55.2714438 146.7575999
  71.2689992  51.3019978 142.2480014  71.6229992  50.9219978 143.0530014
  70.3209992  51.2079978 142.3350014  71.1891820  51.2373091 142.3698714
  75.7729992  55.7809978 142.4490014  76.5169992  56.3669978 142.3090014
  75.0789992  56.3499978 142.7830014  75.7810201  55.9380603 142.4749772
  72.1349992  49.9739978 144.4750014  71.8579992  49.2459978 145.0310014
  73.0629992  50.0929978 144.6800014  72.2224499  49.8904213 144.5788044
  65.3599992  52.4139978 140.6950014  65.5989992  51.6649978 140.1480014
  65.0909992  52.0259978 141.5280014  65.3563233  52.2591853 140.7327809
  64.2969992  51.9839978 143.1520014  64.4439992  51.4639978 143.9420014
  64.2939992  52.8909978 143.4580014  64.3167300  52.0353964 143.3015895
  60.7499992  49.2359978 143.6620014  60.0639992  49.5889978 144.2290014
  61.2729992  49.9989978 143.4160014  60.7269033  49.3873746 143.7062661
  69.3659992  41.5509978 145.0380014  69.5859992  42.0219978 144.2350014
  69.9249992  41.9449978 145.7080014  69.4716730  41.6687432 145.0185906
  67.0349992  53.6809978 143.9010014  66.2179992  54.1779978 143.9530014
  67.5639992  54.1569978 143.2610014  66.9948508  53.8132543 143.8216035
  66.5659992  43.2789978 145.8730014  67.3779992  43.7829978 145.9190014
  66.3219992  43.1339978 146.7870014  66.6441467  43.3283749 146.0028575
  67.4499992  40.3599978 146.8110014  67.1029992  40.9769978 147.4560014
  68.1089992  40.8609978 146.3300014  67.4915949  40.5121099 146.8342271
  64.3729992  54.7249978 143.8830014  64.5339992  55.5249978 143.3820014
  64.1759992  55.0319978 144.7680014  64.3683919  54.8759129 143.9341006
  63.1079992  41.4229978 143.4980014  63.0239992  42.3109978 143.8450014
  63.9979992  41.1579978 143.7300014  63.2168163  41.5087179 143.5768596
  61.3659992  51.8499978 142.5590014  61.9579992  52.5499978 142.8350014
  61.8249992  51.4169978 141.8390014  61.5090791  51.8872908 142.4994607
  59.6819992  44.5149978 141.6750014  59.6369992  45.4539978 141.8530014
  58.7939992  44.2789978 141.4050014  59.5558555  44.6116874 141.6628939
  59.4209992  53.2369978 146.5080014  58.5879992  53.7089978 146.5360014
  59.9659992  53.7469978 145.9100014  59.3807590  53.3705897 146.4309194
  67.3979992  54.2769978 140.8340014  66.7539992  53.6459978 141.1550014
  68.1599992  53.7459978 140.6020014  67.4128058  54.1187902 140.8466038
  72.0029992  54.0939978 141.0680014  72.2859992  53.2989978 141.5200014
  72.7419992  54.3269978 140.5070014  72.1416956  54.0167031 141.0539822
  62.9569992  50.0029978 140.9250014  63.0219992  49.2089978 141.4560014
  63.6099992  49.8849978 140.2350014  63.0541754  49.8783337 140.9044259
  68.3099992  51.0499978 140.6610014  68.0409992  51.2309978 141.5620014
  68.1029992  50.1249978 140.5300014  68.2452000  50.9496774 140.7665693
  64.1069992  47.9759978 143.2310014  63.6469992  47.4919978 143.9170014
  64.3619992  47.3069978 142.5950014  64.0785038  47.8193689 143.2389447
  65.1779992  46.2189978 141.4930014  64.9969992  46.0639978 140.5660014
  66.1279992  46.3269978 141.5380014  65.2816566  46.2123669 141.3720929
  74.5679992  48.5729978 140.9390014  74.2939992  48.1489978 140.1260014
  74.6069992  49.5049978 140.7220014  74.5357716  48.6408827 140.7984286
  65.0749992  56.9089978 142.4950014  66.0079992  57.0669978 142.6380014
  64.8109992  57.5849978 141.8700014  65.1669308  57.0219104 142.4301396
  58.6429992  51.5459978 141.9770014  59.5569992  51.6249978 142.2510014
  58.6509992  50.8589978 141.3110014  58.7691143  51.4639085 141.9244274
  57.2919992  56.9389978 147.0550014  56.6449992  56.4769978 146.5220014
  57.6469992  56.2669978 147.6370014  57.2514506  56.7849503 147.0607341
  75.0259992  49.4419978 144.9140014  75.8759992  49.8629978 145.0410014
  75.0309992  48.7019978 145.5210014  75.1431143  49.3996094 145.0134750
  75.4199992  47.4959978 146.7380014  74.6939992  47.0159978 147.1350014
  76.0019992  47.7009978 147.4700014  75.3991635  47.4579166 146.8913748
  75.6889992  47.3969978 143.1290014  75.1669992  47.7529978 142.4100014
  75.6559992  48.0719978 143.8070014  75.6130699  47.5369848 143.1222129
  74.0379992  44.6359978 141.6800014  74.1339992  45.3029978 141.0000014
  73.8979992  43.8209978 141.1980014  74.0322063  44.6170667 141.5218377
  73.2069992  46.0169978 147.3010014  73.0569992  45.0719978 147.2800014
  72.8529992  46.2979978 148.1440014  73.1385527  45.9255605 147.4121859
  73.2849992  42.0439978 140.7970014  73.8959992  41.6729978 141.4340014
  72.4479992  41.6229978 140.9930014  73.2554947  41.9362756 140.9107252
  72.9179992  43.5989978 145.7630014  73.1969992  42.6919978 145.8870014
  73.6769992  44.0329978 145.3740014  73.0588619  43.5334502 145.7273795
  73.5309992  40.8619978 145.8110014  73.7129992  40.4129978 146.6370014
  72.9309992  40.2779978 145.3480014  73.4747529  40.7216131 145.8613619
  75.3979992  40.9299978 142.3390014  75.8099992  40.2089978 141.8640014
  76.0789992  41.5989978 142.3980014  75.5465900  40.9217306 142.2819038
  57.6789992  40.9349978 145.4660014  56.7539992  41.1429978 145.3370014
  58.1329992  41.4189978 144.7770014  57.6136374  41.0289949 145.3550957
  72.4489992  55.9189978 147.4120014  73.1019992  55.5709978 146.8040014
  72.9599992  56.4069978 148.0580014  72.6072777  55.9373815 147.4162047
  58.9549992  38.9779978 143.4450014  59.3939992  39.5889978 142.8530014
  58.3209992  39.5159978 143.9190014  58.9293859  39.1344064 143.4280305
  64.6979992  39.1059978 147.4550014  65.5719992  39.4949978 147.4250014
  64.5619992  38.8909978 148.3770014  64.7993207  39.1301923 147.5756509
  71.6079992  39.1619978 144.7960014  70.9049992  39.7769978 144.5870014
  71.1629992  38.3249978 144.9280014  71.4516292  39.1330085 144.7852439
  58.8559992  54.9259978 144.3430014  58.1709992  54.8879978 143.6750014
  58.8599992  55.8389978 144.6310014  58.7628174  55.0441998 144.2905310
  60.8159992  40.8939978 141.8870014  61.3069992  40.2639978 141.3600014
  61.4389992  41.1899978 142.5510014  60.9675062  40.8476770 141.9045438
  65.8419992  41.1869978 144.3450014  66.0199992  40.5399978 145.0270014
  65.7879992  42.0209978 144.8120014  65.8591025  41.2110504 144.5016433
  67.7199992  56.1349978 142.7400014  68.5859992  56.5019978 142.5620014
  67.4739992  55.6959978 141.9260014  67.8052097  56.1258525 142.6056019
  74.4289992  55.6979978 145.4190014  74.2349992  54.9499978 144.8540014
  74.3899992  56.4559978 144.8360014  74.3971645  55.6980786 145.2628148
  60.6739992  55.8459978 141.3680014  60.4059992  56.1319978 142.2410014
  61.4449992  55.2999978 141.5200014  60.7415600  55.8113330 141.5081499
  88.0529992  48.3359978 147.6000014  88.1419992  49.2799978 147.4680014
  87.4149992  48.0609978 146.9420014  87.9789062  48.4279812 147.4929641
  76.8879992  45.3149978 146.5400014  76.4399992  46.1609978 146.5210014
  76.3269992  44.7359978 146.0240014  76.7509603  45.3523674 146.4676720
  89.3929992  42.6499978 147.4260014  90.0399992  42.3209978 148.0510014
  89.9029992  43.1669978 146.8030014  89.5504317  42.6749227 147.4272167
  87.8499992  50.9369978 146.6430014  87.5549992  50.6139978 145.7920014
  87.5259992  51.8369978 146.6840014  87.7657983  51.0144026 146.5319771
  77.5789992  50.7479978 144.9560014  77.3069992  50.9769978 144.0670014
  77.6239992  51.5849978 145.4160014  77.5478709  50.8926058 144.8966107
  90.6159992  52.0509978 146.8020014  90.3579992  51.3609978 146.1910014
  90.6869992  51.6079978 147.6480014  90.5902837  51.8967106 146.8326912
  86.7739992  47.5799978 145.0520014  86.0629992  48.1149978 144.7000014
  87.4649992  47.6349978 144.3920014  86.7700751  47.6606777 144.9145858
  86.8279992  46.0369978 142.0910014  87.5289992  46.0599978 142.7420014
  87.1299992  45.4089978 141.4350014  86.9648282  45.9552339 142.0914496
  90.1799992  47.7889978 146.0040014  89.4479992  48.0179978 146.5770014
  90.6269992  47.0759978 146.4590014  90.1402753  47.7238972 146.1439715
  89.0509992  46.9519978 143.6890014  89.6299992  47.1019978 144.4360014
  89.4649992  47.4219978 142.9660014  89.1863122  47.0361277 143.6935042
  86.7769992  53.6879978 147.1240014  87.2509992  53.9839978 147.9020014
  86.2139992  54.4269978 146.8910014  86.7657361  53.8282721 147.1988611
  92.7499992  38.7019978 143.5020014  91.8499992  38.8409978 143.7970014
  93.0019992  39.5329978 143.1000014  92.6608683  38.8334055 143.4880232
  80.8159992  47.4889978 145.4760014  80.5239992  48.2569978 144.9850014
  80.1409992  46.8299978 145.3130014  80.6848497  47.5049745 145.3868260
  93.9389992  53.0679978 141.8780014  94.0119992  54.0069978 142.0490014
  94.8439992  52.7629978 141.8220014  94.0714158  53.1553061 141.8938392
  86.2499992  56.6449978 145.5390014  86.1739992  56.5239978 144.5930014
  86.2819992  57.5939978 145.6580014  86.2439156  56.7567530 145.4255048
  79.9029992  55.4339978 147.3200014  80.0549992  55.0859978 148.1990014
  79.0519992  55.0769978 147.0650014  79.8087899  55.3381738 147.4057340
  89.3509992  55.7989978 142.5410014  89.7259992  55.0549978 142.0710014
  89.3559992  55.5289978 143.4600014  89.4030024  55.6606950 142.6007987
  89.0199992  55.7249978 145.2910014  88.0849992  55.8249978 145.4690014
  89.2999992  55.0149978 145.8690014  88.9298173  55.6427239 145.3934998
  90.5279992  47.9839978 141.3190014  90.5699992  47.7619978 140.3890014
  91.3769992  48.3829978 141.5090014  90.6485253  48.0075498 141.2173822
  86.1009992  41.8599978 141.9890014  85.8469992  41.8789978 142.9120014
  85.8439992  40.9889978 141.6880014  86.0315133  41.7448110 142.0745082
  81.8639992  44.8319978 147.3360014  80.9719992  44.4919978 147.2780014
  82.3149992  44.4549978 146.5810014  81.8026815  44.7343762 147.2259203
  87.3999992  45.2479978 146.1530014  86.9909992  46.0629978 145.8620014
  88.1199992  45.1079978 145.5390014  87.4414013  45.3406571 146.0300875
  82.9829992  42.3059978 141.0900014  82.5519992  41.8609978 141.8200014
  82.2649992  42.6769978 140.5780014  82.8269363  42.2952968 141.1206211
  77.4999992  42.7939978 143.5660014  77.9739992  43.3849978 142.9810014
  76.7819992  43.3239978 143.9130014  77.4678640  42.9465511 143.5327969
  79.2739992  43.8889978 147.2490014  78.3849992  43.9879978 146.9090014
  79.5709992  43.0469978 146.9030014  79.1924177  43.7887687 147.1556940
  82.9269992  43.8889978 144.9060014  83.8589992  44.0179978 145.0840014
  82.7119992  44.5579978 144.2560014  83.0254472  43.9970806 144.8424891
  81.6009992  45.0829978 142.4730014  81.0589992  44.7039978 141.7810014
  82.4349992  45.2779978 142.0440014  81.6395159  45.0575076 142.3204419
  80.7679992  41.1839978 146.7280014  80.4509992  40.2809978 146.6930014
  81.5489992  41.1859978 146.1750014  80.8302307  41.0606951 146.6484314
  84.9369992  49.6489978 144.4080014  84.1919992  49.1409978 144.0860014
  84.8019992  49.6979978 145.3550014  84.8169047  49.5861596 144.4918845
  88.8339992  42.4629978 142.6080014  87.8959992  42.5739978 142.4560014
  89.1319992  43.3189978 142.9140014  88.7456402  42.5940621 142.6285571
  89.5529992  44.3299978 144.2680014  90.4449992  44.1919978 144.5870014
  89.6089992  45.1209978 143.7320014  89.6827107  44.4180526 144.2392091
  87.0619992  51.1069978 143.4340014  86.7669992  51.9339978 143.8150014
  86.3589992  50.4879978 143.6300014  86.9265471  51.1365227 143.5126698
  94.4379992  44.5389978 143.9630014  93.8829992  44.1429978 143.2910014
  94.5379992  45.4499978 143.6850014  94.3755888  44.6078990 143.8335206
  92.7329992  53.3249978 144.4280014  92.3599992  52.4999978 144.7370014
  93.0099992  53.1419978 143.5310014  92.7193871  53.1872441 144.3489677
  82.4359992  52.4619978 147.5820014  82.9639992  53.2349978 147.3820014
  81.5559992  52.6859978 147.2810014  82.3893176  52.5983161 147.5138409
  78.1909992  47.3239978 142.1700014  78.8069992  47.9509978 142.5490014
  77.3289992  47.6399978 142.4410014  78.1588195  47.4525798 142.2585386
  83.8639992  50.1249978 147.1590014  83.6229992  51.0499978 147.2000014
  83.1229992  49.6659978 147.5550014  83.7308390  50.1896403 147.2181404
  82.5469992  55.1459978 146.7040014  81.5969992  55.2519978 146.7550014
  82.8989992  55.9669978 147.0490014  82.4645480  55.2714438 146.7575999
  90.1249992  51.3019978 142.2480014  90.4789992  50.9219978 143.0530014
  89.1769992  51.2079978 142.3350014  90.0451820  51.2373092 142.3698714
  94.6289992  55.7809978 142.4490014  95.3729992  56.3669978 142.3090014
  93.9349992  56.3499978 142.7830014  94.6370201  55.9380603 142.4749772
  90.9909992  49.9739978 144.4750014  90.7139992  49.2459978 145.0310014
  91.9189992  50.0929978 144.6800014  91.0784499  49.8904213 144.5788044
  84.2159992  52.4139978 140.6950014  84.4549992  51.6649978 140.1480014
  83.9469992  52.0259978 141.5280014  84.2123233  52.2591853 140.7327809
  83.1529992  51.9839978 143.1520014  83.2999992  51.4639978 143.9420014
  83.1499992  52.8909978 143.4580014  83.1727300  52.0353964 143.3015895
  79.6059992  49.2359978 143.6620014  78.9199992  49.5889978 144.2290014
  80.1289992  49.9989978 143.4160014  79.5829033  49.3873746 143.7062661
  88.2219992  41.5509978 145.0380014  88.4419992  42.0219978 144.2350014
  88.7809992  41.9449978 145.7080014  88.3276730  41.6687432 145.0185906
  85.8909992  53.6809978 143.9010014  85.0739992  54.1779978 143.9530014
  86.4199992  54.1569978 143.2610014  85.8508508  53.8132543 143.8216035
  85.4219992  43.2789978 145.8730014  86.2339992  43.7829978 145.9190014
  85.1779992  43.1339978 146.7870014  85.5001467  43.3283749 146.0028575
  86.3059992  40.3599978 146.8110014  85.9589992  40.9769978 147.4560014
  86.9649992  40.8609978 146.3300014  86.3475950  40.5121099 146.8342271
  83.2289992  54.7249978 143.8830014  83.3899992  55.5249978 143.3820014
  83.0319992  55.0319978 144.7680014  83.2243919  54.8759129 143.9341006
  81.9639992  41.4229978 143.4980014  81.8799992  42.3109978 143.8450014
  82.8539992  41.1579978 143.7300014  82.0728163  41.5087179 143.5768596
  80.2219992  51.8499978 142.5590014  80.8139992  52.5499978 142.8350014
  80.6809992  51.4169978 141.8390014  80.3650791  51.8872908 142.4994607
  78.5379992  44.5149978 141.6750014  78.4929992  45.4539978 141.8530014
  77.6499992  44.2789978 141.4050014  78.4118555  44.6116874 141.6628939
  78.2769992  53.2369978 146.5080014  77.4439992  53.7089978 146.5360014
  78.8219992  53.7469978 145.9100014  78.2367590  53.3705897 146.4309194
  86.2539992  54.2769978 140.8340014  85.6099992  53.6459978 141.1550014
  87.0159992  53.7459978 140.6020014  86.2688058  54.1187902 140.8466038
  90.8589992  54.0939978 141.0680014  91.1419992  53.2989978 141.5200014
  91.5979992  54.3269978 140.5070014  90.9976956  54.0167031 141.0539822
  81.8129992  50.0029978 140.9250014  81.8779992  49.2089978 141.4560014
  82.4659992  49.8849978 140.2350014  81.9101754  49.8783337 140.9044259
  87.1659992  51.0499978 140.6610014  86.8969992  51.2309978 141.5620014
  86.9589992  50.1249978 140.5300014  87.1012000  50.9496774 140.7665693
  82.9629992  47.9759978 143.2310014  82.5029992  47.4919978 143.9170014
  83.2179992  47.3069978 142.5950014  82.9345038  47.8193689 143.2389447
  84.0339992  46.2189978 141.4930014  83.8529992  46.0639978 140.5660014
  84.9839992  46.3269978 141.5380014  84.1376566  46.2123669 141.3720929
  93.4239992  48.5729978 140.9390014  93.1499992  48.1489978 140.1260014
  93.4629992  49.5049978 140.7220014  93.3917716  48.6408827 140.7984286
  83.9309992  56.9089978 142.4950014  84.8639992  57.0669978 142.6380014
  83.6669992  57.5849978 141.8700014  84.0229308  57.0219104 142.4301396
  77.4989992  51.5459978 141.9770014  78.4129992  51.6249978 142.2510014
  77.5069992  50.8589978 141.3110014  77.6251143  51.4639085 141.9244274
  76.1479992  56.9389978 147.0550014  75.5009992  56.4769978 146.5220014
  76.5029992  56.2669978 147.6370014  76.1074506  56.7849503 147.0607341
  93.8819992  49.4419978 144.9140014  94.7319992  49.8629978 145.0410014
  93.8869992  48.7019978 145.5210014  93.9991143  49.3996094 145.0134750
  94.2759992  47.4959978 146.7380014  93.5499992  47.0159978 147.1350014
  94.8579992  47.7009978 147.4700014  94.2551635  47.4579166 146.8913748
  94.5449992  47.3969978 143.1290014  94.0229992  47.7529978 142.4100014
  94.5119992  48.0719978 143.8070014  94.4690699  47.5369848 143.1222129
  92.8939992  44.6359978 141.6800014  92.9899992  45.3029978 141.0000014
  92.7539992  43.8209978 141.1980014  92.8882063  44.6170667 141.5218377
  92.0629992  46.0169978 147.3010014  91.9129992  45.0719978 147.2800014
  91.7089992  46.2979978 148.1440014  91.9945527  45.9255605 147.4121859
  92.1409992  42.0439978 140.7970014  92.7519992  41.6729978 141.4340014
  91.3039992  41.6229978 140.9930014  92.1114947  41.9362756 140.9107252
  91.7739992  43.5989978 145.7630014  92.0529992  42.6919978 145.8870014
  92.5329992  44.0329978 145.3740014  91.9148619  43.5334502 145.7273795
  92.3869992  40.8619978 145.8110014  92.5689992  40.4129978 146.6370014
  91.7869992  40.2779978 145.3480014  92.3307529  40.7216131 145.8613619
  94.2539992  40.9299978 142.3390014  94.6659992  40.2089978 141.8640014
  94.9349992  41.5989978 142.3980014  94.4025900  40.9217306 142.2819038
  76.5349992  40.9349978 145.4660014  75.6099992  41.1429978 145.3370014
  76.9889992  41.4189978 144.7770014  76.4696374  41.0289949 145.3550957
  91.3049992  55.9189978 147.4120014  91.9579992  55.5709978 146.8040014
  91.8159992  56.4069978 148.0580014  91.4632777  55.9373815 147.4162047
  77.8109992  38.9779978 143.4450014  78.2499992  39.5889978 142.8530014
  77.1769992  39.5159978 143.9190014  77.7853859  39.1344064 143.4280305
  83.5539992  39.1059978 147.4550014  84.4279992  39.4949978 147.4250014
  83.4179992  38.8909978 148.3770014  83.6553207  39.1301923 147.5756509
  90.4639992  39.1619978 144.7960014  89.7609992  39.7769978 144.5870014
  90.0189992  38.3249978 144.9280014  90.3076292  39.1330085 144.7852439
  77.7119992  54.9259978 144.3430014  77.0269992  54.8879978 143.6750014
  77.7159992  55.8389978 144.6310014  77.6188174  55.0441998 144.2905310
  79.6719992  40.8939978 141.8870014  80.1629992  40.2639978 141.3600014
  80.2949992  41.1899978 142.5510014  79.8235062  40.8476770 141.9045438
  84.6979992  41.1869978 144.3450014  84.8759992  40.5399978 145.0270014
  84.6439992  42.0209978 144.8120014  84.7151025  41.2110504 144.5016433
  86.5759992  56.1349978 142.7400014  87.4419992  56.5019978 142.5620014
  86.3299992  55.6959978 141.9260014  86.6612097  56.1258525 142.6056019
  93.2849992  55.6979978 145.4190014  93.0909992  54.9499978 144.8540014
  93.2459992  56.4559978 144.8360014  93.2531645  55.6980786 145.2628148
  79.5299992  55.8459978 141.3680014  79.2619992  56.1319978 142.2410014
  80.3009992  55.2999978 141.5200014  79.5975600  55.8113330 141.5081499
 106.9089992  48.3359978 147.6000014 106.9979992  49.2799978 147.4680014
 106.2709992  48.0609978 146.9420014 106.8349062  48.4279812 147.4929641
  95.7439992  45.3149978 146.5400014  95.2959992  46.1609978 146.5210014
  95.1829992  44.7359978 146.0240014  95.6069603  45.3523674 146.4676720
 108.2489992  42.6499978 147.4260014 108.8959992  42.3209978 148.0510014
 108.7589992  43.1669978 146.8030014 108.4064317  42.6749227 147.4272167
 106.7059992  50.9369978 146.6430014 106.4109992  50.6139978 145.7920014
 106.3819992  51.8369978 146.6840014 106.6217983  51.0144026 146.5319771
  96.4349992  50.7479978 144.9560014  96.1629992  50.9769978 144.0670014
  96.4799992  51.5849978 145.4160014  96.4038709  50.8926058 144.8966107
 109.4719992  52.0509978 146.8020014 109.2139992  51.3609978 146.1910014
 109.5429992  51.6079978 147.6480014 109.4462837  51.8967106 146.8326912
 105.6299992  47.5799978 145.0520014 104.9189992  48.1149978 144.7000014
 106.3209992  47.6349978 144.3920014 105.6260751  47.6606777 144.9145858
 105.6839992  46.0369978 142.0910014 106.3849992  46.0599978 142.7420014
 105.9859992  45.4089978 141.4350014 105.8208282  45.9552339 142.0914496
 109.0359992  47.7889978 146.0040014 108.3039992  48.0179978 146.5770014
 109.4829992  47.0759978 146.4590014 108.9962753  47.7238972 146.1439715
 107.9069992  46.9519978 143.6890014 108.4859992  47.1019978 144.4360014
 108.3209992  47.4219978 142.9660014 108.0423122  47.0361277 143.6935042
 105.6329992  53.6879978 147.1240014 106.1069992  53.9839978 147.9020014
 105.0699992  54.4269978 146.8910014 105.6217361  53.8282721 147.1988611
 111.6059992  38.7019978 143.5020014 110.7059992  38.8409978 143.7970014
 111.8579992  39.5329978 143.1000014 111.5168683  38.8334055 143.4880232
  99.6719992  47.4889978 145.4760014  99.3799992  48.2569978 144.9850014
  98.9969992  46.8299978 145.3130014  99.5408497  47.5049745 145.3868260
 112.7949992  53.0679978 141.8780014 112.8679992  54.0069978 142.0490014
 113.6999992  52.7629978 141.8220014 112.9274158  53.1553061 141.8938392
 105.1059992  56.6449978 145.5390014 105.0299992  56.5239978 144.5930014
 105.1379992  57.5939978 145.6580014 105.0999156  56.7567530 145.4255048
  98.7589992  55.4339978 147.3200014  98.9109992  55.0859978 148.1990014
  97.9079992  55.0769978 147.0650014  98.6647899  55.3381738 147.4057340
 108.2069992  55.7989978 142.5410014 108.5819992  55.0549978 142.0710014
 108.2119992  55.5289978 143.4600014 108.2590024  55.6606950 142.6007987
 107.8759992  55.7249978 145.2910014 106.9409992  55.8249978 145.4690014
 108.1559992  55.0149978 145.8690014 107.7858173  55.6427239 145.3934998
 109.3839992  47.9839978 141.3190014 109.4259992  47.7619978 140.3890014
 110.2329992  48.3829978 141.5090014 109.5045253  48.0075498 141.2173822
 104.9569992  41.8599978 141.9890014 104.7029992  41.8789978 142.9120014
 104.6999992  40.9889978 141.6880014 104.8875133  41.7448110 142.0745082
 100.7199992  44.8319978 147.3360014  99.8279992  44.4919978 147.2780014
 101.1709992  44.4549978 146.5810014 100.6586815  44.7343762 147.2259203
 106.2559992  45.2479978 146.1530014 105.8469992  46.0629978 145.8620014
 106.9759992  45.1079978 145.5390014 106.2974013  45.3406571 146.0300875
 101.8389992  42.3059978 141.0900014 101.4079992  41.8609978 141.8200014
 101.1209992  42.6769978 140.5780014 101.6829363  42.2952968 141.1206211
  96.3559992  42.7939978 143.5660014  96.8299992  43.3849978 142.9810014
  95.6379992  43.3239978 143.9130014  96.3238640  42.9465511 143.5327969
  98.1299992  43.8889978 147.2490014  97.2409992  43.9879978 146.9090014
  98.4269992  43.0469978 146.9030014  98.0484177  43.7887687 147.1556940
 101.7829992  43.8889978 144.9060014 102.7149992  44.0179978 145.0840014
 101.5679992  44.5579978 144.2560014 101.8814472  43.9970806 144.8424891
 100.4569992  45.0829978 142.4730014  99.9149992  44.7039978 141.7810014
 101.2909992  45.2779978 142.0440014 100.4955159  45.0575076 142.3204419
  99.6239992  41.1839978 146.7280014  99.3069992  40.2809978 146.6930014
 100.4049992  41.1859978 146.1750014  99.6862307  41.0606951 146.6484314
 103.7929992  49.6489978 144.4080014 103.0479992  49.1409978 144.0860014
 103.6579992  49.6979978 145.3550014 103.6729047  49.5861596 144.4918845
 107.6899992  42.4629978 142.6080014 106.7519992  42.5739978 142.4560014
 107.9879992  43.3189978 142.9140014 107.6016402  42.5940621 142.6285571
 108.4089992  44.3299978 144.2680014 109.3009992  44.1919978 144.5870014
 108.4649992  45.1209978 143.7320014 108.5387107  44.4180526 144.2392091
 105.9179992  51.1069978 143.4340014 105.6229992  51.9339978 143.8150014
 105.2149992  50.4879978 143.6300014 105.7825471  51.1365227 143.5126698
 113.2939992  44.5389978 143.9630014 112.7389992  44.1429978 143.2910014
 113.3939992  45.4499978 143.6850014 113.2315888  44.6078990 143.8335206
 111.5889992  53.3249978 144.4280014 111.2159992  52.4999978 144.7370014
 111.8659992  53.1419978 143.5310014 111.5753871  53.1872441 144.3489677
 101.2919992  52.4619978 147.5820014 101.8199992  53.2349978 147.3820014
 100.4119992  52.6859978 147.2810014 101.2453176  52.5983161 147.5138409
  97.0469992  47.3239978 142.1700014  97.6629992  47.9509978 142.5490014
  96.1849992  47.6399978 142.4410014  97.0148195  47.4525798 142.2585386
 102.7199992  50.1249978 147.1590014 102.4789992  51.0499978 147.2000014
 101.9789992  49.6659978 147.5550014 102.5868390  50.1896403 147.2181404
 101.4029992  55.1459978 146.7040014 100.4529992  55.2519978 146.7550014
 101.7549992  55.9669978 147.0490014 101.3205480  55.2714438 146.7575999
 108.9809992  51.3019978 142.2480014 109.3349992  50.9219978 143.0530014
 108.0329992  51.2079978 142.3350014 108.9011820  51.2373092 142.3698714
 113.4849992  55.7809978 142.4490014 114.2289992  56.3669978 142.3090014
 112.7909992  56.3499978 142.7830014 113.4930201  55.9380603 142.4749772
 109.8469992  49.9739978 144.4750014 109.5699992  49.2459978 145.0310014
 110.7749992  50.0929978 144.6800014 109.9344499  49.8904213 144.5788044
 103.0719992  52.4139978 140.6950014 103.3109992  51.6649978 140.1480014
 102.8029992  52.0259978 141.5280014 103.0683233  52.2591853 140.7327809
 102.0089992  51.9839978 143.1520014 102.1559992  51.4639978 143.9420014
 102.0059992  52.8909978 143.4580014 102.0287300  52.0353964 143.3015895
  98.4619992  49.2359978 143.6620014  97.7759992  49.5889978 144.2290014
  98.9849992  49.9989978 143.4160014  98.4389033  49.3873746 143.7062661
 107.0779992  41.5509978 145.0380014 107.2979992  42.0219978 144.2350014
 107.6369992  41.9449978 145.7080014 107.1836730  41.6687432 145.0185906
 104.7469992  53.6809978 143.9010014 103.9299992  54.1779978 143.9530014
 105.2759992  54.1569978 143.2610014 104.7068508  53.8132543 143.8216035
 104.2779992  43.2789978 145.8730014 105.0899992  43.7829978 145.9190014
 104.0339992  43.1339978 146.7870014 104.3561467  43.3283749 146.0028575
 105.1619992  40.3599978 146.8110014 104.8149992  40.9769978 147.4560014
 105.8209992  40.8609978 146.3300014 105.2035949  40.5121099 146.8342271
 102.0849992  54.7249978 143.8830014 102.2459992  55.5249978 143.3820014
 101.8879992  55.0319978 144.7680014 102.0803919  54.8759129 143.9341006
 100.8199992  41.4229978 143.4980014 100.7359992  42.3109978 143.8450014
 101.7099992  41.1579978 143.7300014 100.9288163  41.5087179 143.5768596
  99.0779992  51.8499978 142.5590014  99.6699992  52.5499978 142.8350014
  99.5369992  51.4169978 141.8390014  99.2210791  51.8872908 142.4994607
  97.3939992  44.5149978 141.6750014  97.3489992  45.4539978 141.8530014
  96.5059992  44.2789978 141.4050014  97.2678555  44.6116874 141.6628939
  97.1329992  53.2369978 146.5080014  96.2999992  53.7089978 146.5360014
  97.6779992  53.7469978 145.9100014  97.0927590  53.3705897 146.4309194
 105.1099992  54.2769978 140.8340014 104.4659992  53.6459978 141.1550014
 105.8719992  53.7459978 140.6020014 105.1248058  54.1187902 140.8466038
 109.7149992  54.0939978 141.0680014 109.9979992  53.2989978 141.5200014
 110.4539992  54.3269978 140.5070014 109.8536956  54.0167031 141.0539822
 100.6689992  50.0029978 140.9250014 100.7339992  49.2089978 141.4560014
 101.3219992  49.8849978 140.2350014 100.7661754  49.8783337 140.9044259
 106.0219992  51.0499978 140.6610014 105.7529992  51.2309978 141.5620014
 105.8149992  50.1249978 140.5300014 105.9572000  50.9496774 140.7665693
 101.8189992  47.9759978 143.2310014 101.3589992  47.4919978 143.9170014
 102.0739992  47.3069978 142.5950014 101.7905038  47.8193689 143.2389447
 102.8899992  46.2189978 141.4930014 102.7089992  46.0639978 140.5660014
 103.8399992  46.3269978 141.5380014 102.9936566  46.2123669 141.3720929
 112.2799992  48.5729978 140.9390014 112.0059992  48.1489978 140.1260014
 112.3189992  49.5049978 140.7220014 112.2477716  48.6408827 140.7984286
 102.7869992  56.9089978 142.4950014 103.7199992  57.0669978 142.6380014
 102.5229992  57.5849978 141.8700014 102.8789308  57.0219104 142.4301396
  96.3549992  51.5459978 141.9770014  97.2689992  51.6249978 142.2510014
  96.3629992  50.8589978 141.3110014  96.4811143  51.4639085 141.9244274
  95.0039992  56.9389978 147.0550014  94.3569992  56.4769978 146.5220014
  95.3589992  56.2669978 147.6370014  94.9634506  56.7849503 147.0607341
 112.7379992  49.4419978 144.9140014 113.5879992  49.8629978 145.0410014
 112.7429992  48.7019978 145.5210014 112.8551143  49.3996094 145.0134750
 113.1319992  47.4959978 146.7380014 112.4059992  47.0159978 147.1350014
 113.7139992  47.7009978 147.4700014 113.1111635  47.4579166 146.8913748
 113.4009992  47.3969978 143.1290014 112.8789992  47.7529978 142.4100014
 113.3679992  48.0719978 143.8070014 113.3250699  47.5369848 143.1222129
 111.7499992  44.6359978 141.6800014 111.8459992  45.3029978 141.0000014
 111.6099992  43.8209978 141.1980014 111.7442063  44.6170667 141.5218377
 110.9189992  46.0169978 147.3010014 110.7689992  45.0719978 147.2800014
 110.5649992  46.2979978 148.1440014 110.8505527  45.9255605 147.4121859
 110.9969992  42.0439978 140.7970014 111.6079992  41.6729978 141.4340014
 110.1599992  41.6229978 140.9930014 110.9674947  41.9362756 140.9107252
 110.6299992  43.5989978 145.7630014 110.9089992  42.6919978 145.8870014
 111.3889992  44.0329978 145.3740014 110.7708619  43.5334502 145.7273795
 111.2429992  40.8619978 145.8110014 111.4249992  40.4129978 146.6370014
 110.6429992  40.2779978 145.3480014 111.1867529  40.7216131 145.8613619
 113.1099992  40.9299978 142.3390014 113.5219992  40.2089978 141.8640014
 113.7909992  41.5989978 142.3980014 113.2585900  40.9217306 142.2819038
  95.3909992  40.9349978 145.4660014  94.4659992  41.1429978 145.3370014
  95.8449992  41.4189978 144.7770014  95.3256374  41.0289949 145.3550957
 110.1609992  55.9189978 147.4120014 110.8139992  55.5709978 146.8040014
 110.6719992  56.4069978 148.0580014 110.3192777  55.9373815 147.4162047
  96.6669992  38.9779978 143.4450014  97.1059992  39.5889978 142.8530014
  96.0329992  39.5159978 143.9190014  96.6413859  39.1344064 143.4280305
 102.4099992  39.1059978 147.4550014 103.2839992  39.4949978 147.4250014
 102.2739992  38.8909978 148.3770014 102.5113207  39.1301923 147.5756509
 109.3199992  39.1619978 144.7960014 108.6169992  39.7769978 144.5870014
 108.8749992  38.3249978 144.9280014 109.1636292  39.1330085 144.7852439
  96.5679992  54.9259978 144.3430014  95.8829992  54.8879978 143.6750014
  96.5719992  55.8389978 144.6310014  96.4748174  55.0441998 144.2905310
  98.5279992  40.8939978 141.8870014  99.0189992  40.2639978 141.3600014
  99.1509992  41.1899978 142.5510014  98.6795062  40.8476770 141.9045438
 103.5539992  41.1869978 144.3450014 103.7319992  40.5399978 145.0270014
 103.4999992  42.0209978 144.8120014 103.5711025  41.2110504 144.5016433
 105.4319992  56.1349978 142.7400014 106.2979992  56.5019978 142.5620014
 105.1859992  55.6959978 141.9260014 105.5172097  56.1258525 142.6056019
 112.1409992  55.6979978 145.4190014 111.9469992  54.9499978 144.8540014
 112.1019992  56.4559978 144.8360014 112.1091645  55.6980786 145.2628148
  98.3859992  55.8459978 141.3680014  98.1179992  56.1319978 142.2410014
  99.1569992  55.2999978 141.5200014  98.4535600  55.8113330 141.5081499
 125.7649992  48.3359978 147.6000014 125.8539992  49.2799978 147.4680014
 125.1269992  48.0609978 146.9420014 125.6909062  48.4279812 147.4929641
 114.5999992  45.3149978 146.5400014 114.1519992  46.1609978 146.5210014
 114.0389992  44.7359978 146.0240014 114.4629603  45.3523674 146.4676720
 127.1049992  42.6499978 147.4260014 127.7519992  42.3209978 148.0510014
 127.6149992  43.1669978 146.8030014 127.2624317  42.6749227 147.4272167
 125.5619992  50.9369978 146.6430014 125.2669992  50.6139978 145.7920014
 125.2379992  51.8369978 146.6840014 125.4777983  51.0144026 146.5319771
 115.2909992  50.7479978 144.9560014 115.0189992  50.9769978 144.0670014
 115.3359992  51.5849978 145.4160014 115.2598709  50.8926058 144.8966107
 128.3279992  52.0509978 146.8020014 128.0699992  51.3609978 146.1910014
 128.3989992  51.6079978 147.6480014 128.3022837  51.8967106 146.8326912
 124.4859992  47.5799978 145.0520014 123.7749992  48.1149978 144.7000014
 125.1769992  47.6349978 144.3920014 124.4820751  47.6606777 144.9145858
 124.5399992  46.0369978 142.0910014 125.2409992  46.0599978 142.7420014
 124.8419992  45.4089978 141.4350014 124.6768282  45.9552339 142.0914496
 127.8919992  47.7889978 146.0040014 127.1599992  48.0179978 146.5770014
 128.3389992  47.0759978 146.4590014 127.8522753  47.7238972 146.1439715
 126.7629992  46.9519978 143.6890014 127.3419992  47.1019978 144.4360014
 127.1769992  47.4219978 142.9660014 126.8983122  47.0361277 143.6935042
 124.4889992  53.6879978 147.1240014 124.9629992  53.9839978 147.9020014
 123.9259992  54.4269978 146.8910014 124.4777361  53.8282721 147.1988611
 130.4619992  38.7019978 143.5020014 129.5619992  38.8409978 143.7970014
 130.7139992  39.5329978 143.1000014 130.3728683  38.8334055 143.4880232
 118.5279992  47.4889978 145.4760014 118.2359992  48.2569978 144.9850014
 117.8529992  46.8299978 145.3130014 118.3968497  47.5049745 145.3868260
 131.6509992  53.0679978 141.8780014 131.7239992  54.0069978 142.0490014
 132.5559992  52.7629978 141.8220014 131.7834158  53.1553061 141.8938392
 123.9619992  56.6449978 145.5390014 123.8859992  56.5239978 144.5930014
 123.9939992  57.5939978 145.6580014 123.9559156  56.7567530 145.4255048
 117.6149992  55.4339978 147.3200014 117.7669992  55.0859978 148.1990014
 116.7639992  55.0769978 147.0650014 117.5207899  55.3381738 147.4057340
 127.0629992  55.7989978 142.5410014 127.4379992  55.0549978 142.0710014
 127.0679992  55.5289978 143.4600014 127.1150024  55.6606950 142.6007987
 126.7319992  55.7249978 145.2910014 125.7969992  55.8249978 145.4690014
 127.0119992  55.0149978 145.8690014 126.6418173  55.6427239 145.3934998
 128.2399992  47.9839978 141.3190014 128.2819992  47.7619978 140.3890014
 129.0889992  48.3829978 141.5090014 128.3605253  48.0075498 141.2173822
 123.8129992  41.8599978 141.9890014 123.5589992  41.8789978 142.9120014
 123.5559992  40.9889978 141.6880014 123.7435133  41.7448110 142.0745082
 119.5759992  44.8319978 147.3360014 118.6839992  44.4919978 147.2780014
 120.0269992  44.4549978 146.5810014 119.5146815  44.7343762 147.2259203
 125.1119992  45.2479978 146.1530014 124.7029992  46.0629978 145.8620014
 125.8319992  45.1079978 145.5390014 125.1534013  45.3406571 146.0300875
 120.6949992  42.3059978 141.0900014 120.2639992  41.8609978 141.8200014
 119.9769992  42.6769978 140.5780014 120.5389363  42.2952968 141.1206211
 115.2119992  42.7939978 143.5660014 115.6859992  43.3849978 142.9810014
 114.4939992  43.3239978 143.9130014 115.1798640  42.9465511 143.5327969
 116.9859992  43.8889978 147.2490014 116.0969992  43.9879978 146.9090014
 117.2829992  43.0469978 146.9030014 116.9044177  43.7887687 147.1556940
 120.6389992  43.8889978 144.9060014 121.5709992  44.0179978 145.0840014
 120.4239992  44.5579978 144.2560014 120.7374472  43.9970806 144.8424891
 119.3129992  45.0829978 142.4730014 118.7709992  44.7039978 141.7810014
 120.1469992  45.2779978 142.0440014 119.3515159  45.0575076 142.3204419
 118.4799992  41.1839978 146.7280014 118.1629992  40.2809978 146.6930014
 119.2609992  41.1859978 146.1750014 118.5422307  41.0606951 146.6484314
 122.6489992  49.6489978 144.4080014 121.9039992  49.1409978 144.0860014
 122.5139992  49.6979978 145.3550014 122.5289047  49.5861596 144.4918845
 126.5459992  42.4629978 142.6080014 125.6079992  42.5739978 142.4560014
 126.8439992  43.3189978 142.9140014 126.4576402  42.5940621 142.6285571
 127.2649992  44.3299978 144.2680014 128.1569992  44.1919978 144.5870014
 127.3209992  45.1209978 143.7320014 127.3947107  44.4180526 144.2392091
 124.7739992  51.1069978 143.4340014 124.4789992  51.9339978 143.8150014
 124.0709992  50.4879978 143.6300014 124.6385471  51.1365227 143.5126698
 132.1499992  44.5389978 143.9630014 131.5949992  44.1429978 143.2910014
 132.2499992  45.4499978 143.6850014 132.0875888  44.6078990 143.8335206
 130.4449992  53.3249978 144.4280014 130.0719992  52.4999978 144.7370014
 130.7219992  53.1419978 143.5310014 130.4313871  53.1872441 144.3489677
 120.1479992  52.4619978 147.5820014 120.6759992  53.2349978 147.3820014
 119.2679992  52.6859978 147.2810014 120.1013176  52.5983161 147.5138409
 115.9029992  47.3239978 142.1700014 116.5189992  47.9509978 142.5490014
 115.0409992  47.6399978 142.4410014 115.8708195  47.4525798 142.2585386
 121.5759992  50.1249978 147.1590014 121.3349992  51.0499978 147.2000014
 120.8349992  49.6659978 147.5550014 121.4428390  50.1896403 147.2181404
 120.2589992  55.1459978 146.7040014 119.3089992  55.2519978 146.7550014
 120.6109992  55.9669978 147.0490014 120.1765480  55.2714438 146.7575999
 127.8369992  51.3019978 142.2480014 128.1909992  50.9219978 143.0530014
 126.8889992  51.2079978 142.3350014 127.7571820  51.2373092 142.3698714
 132.3409992  55.7809978 142.4490014 133.0849992  56.3669978 142.3090014
 131.6469992  56.3499978 142.7830014 132.3490201  55.9380603 142.4749772
 128.7029992  49.9739978 144.4750014 128.4259992  49.2459978 145.0310014
 129.6309992  50.0929978 144.6800014 128.7904499  49.8904213 144.5788044
 121.9279992  52.4139978 140.6950014 122.1669992  51.6649978 140.1480014
 121.6589992  52.0259978 141.5280014 121.9243233  52.2591853 140.7327809
 120.8649992  51.9839978 143.1520014 121.0119992  51.4639978 143.9420014
 120.8619992  52.8909978 143.4580014 120.8847300  52.0353964 143.3015895
 117.3179992  49.2359978 143.6620014 116.6319992  49.5889978 144.2290014
 117.8409992  49.9989978 143.4160014 117.2949033  49.3873746 143.7062661
 125.9339992  41.5509978 145.0380014 126.1539992  42.0219978 144.2350014
 126.4929992  41.9449978 145.7080014 126.0396730  41.6687432 145.0185906
 123.6029992  53.6809978 143.9010014 122.7859992  54.1779978 143.9530014
 124.1319992  54.1569978 143.2610014 123.5628508  53.8132543 143.8216035
 123.1339992  43.2789978 145.8730014 123.9459992  43.7829978 145.9190014
 122.8899992  43.1339978 146.7870014 123.2121467  43.3283749 146.0028575
 124.0179992  40.3599978 146.8110014 123.6709992  40.9769978 147.4560014
 124.6769992  40.8609978 146.3300014 124.0595949  40.5121099 146.8342271
 120.9409992  54.7249978 143.8830014 121.1019992  55.5249978 143.3820014
 120.7439992  55.0319978 144.7680014 120.9363919  54.8759129 143.9341006
 119.6759992  41.4229978 143.4980014 119.5919992  42.3109978 143.8450014
 120.5659992  41.1579978 143.7300014 119.7848163  41.5087179 143.5768596
 117.9339992  51.8499978 142.5590014 118.5259992  52.5499978 142.8350014
 118.3929992  51.4169978 141.8390014 118.0770791  51.8872908 142.4994607
 116.2499992  44.5149978 141.6750014 116.2049992  45.4539978 141.8530014
 115.3619992  44.2789978 141.4050014 116.1238555  44.6116874 141.6628939
 115.9889992  53.2369978 146.5080014 115.1559992  53.7089978 146.5360014
 116.5339992  53.7469978 145.9100014 115.9487590  53.3705897 146.4309194
 123.9659992  54.2769978 140.8340014 123.3219992  53.6459978 141.1550014
 124.7279992  53.7459978 140.6020014 123.9808058  54.1187902 140.8466038
 128.5709992  54.0939978 141.0680014 128.8539992  53.2989978 141.5200014
 129.3099992  54.3269978 140.5070014 128.7096956  54.0167031 141.0539822
 119.5249992  50.0029978 140.9250014 119.5899992  49.2089978 141.4560014
 120.1779992  49.8849978 140.2350014 119.6221754  49.8783337 140.9044259
 124.8779992  51.0499978 140.6610014 124.6089992  51.2309978 141.5620014
 124.6709992  50.1249978 140.5300014 124.8132000  50.9496774 140.7665693
 120.6749992  47.9759978 143.2310014 120.2149992  47.4919978 143.9170014
 120.9299992  47.3069978 142.5950014 120.6465038  47.8193689 143.2389447
 121.7459992  46.2189978 141.4930014 121.5649992  46.0639978 140.5660014
 122.6959992  46.3269978 141.5380014 121.8496566  46.2123669 141.3720929
 131.1359992  48.5729978 140.9390014 130.8619992  48.1489978 140.1260014
 131.1749992  49.5049978 140.7220014 131.1037716  48.6408827 140.7984286
 121.6429992  56.9089978 142.4950014 122.5759992  57.0669978 142.6380014
 121.3789992  57.5849978 141.8700014 121.7349308  57.0219104 142.4301396
 115.2109992  51.5459978 141.9770014 116.1249992  51.6249978 142.2510014
 115.2189992  50.8589978 141.3110014 115.3371143  51.4639085 141.9244274
 113.8599992  56.9389978 147.0550014 113.2129992  56.4769978 146.5220014
 114.2149992  56.2669978 147.6370014 113.8194506  56.7849503 147.0607341
 131.5939992  49.4419978 144.9140014 132.4439992  49.8629978 145.0410014
 131.5989992  48.7019978 145.5210014 131.7111143  49.3996094 145.0134750
 131.9879992  47.4959978 146.7380014 131.2619992  47.0159978 147.1350014
 132.5699992  47.7009978 147.4700014 131.9671635  47.4579166 146.8913748
 132.2569992  47.3969978 143.1290014 131.7349992  47.7529978 142.4100014
 132.2239992  48.0719978 143.8070014 132.1810699  47.5369848 143.1222129
 130.6059992  44.6359978 141.6800014 130.7019992  45.3029978 141.0000014
 130.4659992  43.8209978 141.1980014 130.6002063  44.6170667 141.5218377
 129.7749992  46.0169978 147.3010014 129.6249992  45.0719978 147.2800014
 129.4209992  46.2979978 148.1440014 129.7065527  45.9255605 147.4121859
 129.8529992  42.0439978 140.7970014 130.4639992  41.6729978 141.4340014
 129.0159992  41.6229978 140.9930014 129.8234947  41.9362756 140.9107252
 129.4859992  43.5989978 145.7630014 129.7649992  42.6919978 145.8870014
 130.2449992  44.0329978 145.3740014 129.6268619  43.5334502 145.7273795
 130.0989992  40.8619978 145.8110014 130.2809992  40.4129978 146.6370014
 129.4989992  40.2779978 145.3480014 130.0427529  40.7216131 145.8613619
 131.9659992  40.9299978 142.3390014 132.3779992  40.2089978 141.8640014
 132.6469992  41.5989978 142.3980014 132.1145900  40.9217306 142.2819038
 114.2469992  40.9349978 145.4660014 113.3219992  41.1429978 145.3370014
 114.7009992  41.4189978 144.7770014 114.1816374  41.0289949 145.3550957
 129.0169992  55.9189978 147.4120014 129.6699992  55.5709978 146.8040014
 129.5279992  56.4069978 148.0580014 129.1752777  55.9373815 147.4162047
 115.5229992  38.9779978 143.4450014 115.9619992  39.5889978 142.8530014
 114.8889992  39.5159978 143.9190014 115.4973859  39.1344064 143.4280305
 121.2659992  39.1059978 147.4550014 122.1399992  39.4949978 147.4250014
 121.1299992  38.8909978 148.3770014 121.3673207  39.1301923 147.5756509
 128.1759992  39.1619978 144.7960014 127.4729992  39.7769978 144.5870014
 127.7309992  38.3249978 144.9280014 128.0196292  39.1330085 144.7852439
 115.4239992  54.9259978 144.3430014 114.7389992  54.8879978 143.6750014
 115.4279992  55.8389978 144.6310014 115.3308174  55.0441998 144.2905310
 117.3839992  40.8939978 141.8870014 117.8749992  40.2639978 141.3600014
 118.0069992  41.1899978 142.5510014 117.5355062  40.8476770 141.9045438
 122.4099992  41.1869978 144.3450014 122.5879992  40.5399978 145.0270014
 122.3559992  42.0209978 144.8120014 122.4271025  41.2110504 144.5016433
 124.2879992  56.1349978 142.7400014 125.1539992  56.5019978 142.5620014
 124.0419992  55.6959978 141.9260014 124.3732097  56.1258525 142.6056019
 130.9969992  55.6979978 145.4190014 130.8029992  54.9499978 144.8540014
 130.9579992  56.4559978 144.8360014 130.9651645  55.6980786 145.2628148
 117.2419992  55.8459978 141.3680014 116.9739992  56.1319978 142.2410014
 118.0129992  55.2999978 141.5200014 117.3095600  55.8113330 141.5081499
 144.6209992  48.3359978 147.6000014 144.7099992  49.2799978 147.4680014
 143.9829992  48.0609978 146.9420014 144.5469061  48.4279812 147.4929641
 133.4559992  45.3149978 146.5400014 133.0079992  46.1609978 146.5210014
 132.8949992  44.7359978 146.0240014 133.3189603  45.3523674 146.4676720
 144.4179992  50.9369978 146.6430014 144.1229992  50.6139978 145.7920014
 144.0939992  51.8369978 146.6840014 144.3337983  51.0144026 146.5319771
 134.1469992  50.7479978 144.9560014 133.8749992  50.9769978 144.0670014
 134.1919992  51.5849978 145.4160014 134.1158709  50.8926058 144.8966107
 143.3419992  47.5799978 145.0520014 142.6309992  48.1149978 144.7000014
 144.0329992  47.6349978 144.3920014 143.3380751  47.6606777 144.9145858
 143.3959992  46.0369978 142.0910014 144.0969992  46.0599978 142.7420014
 143.6979992  45.4089978 141.4350014 143.5328282  45.9552339 142.0914496
 143.3449992  53.6879978 147.1240014 143.8189992  53.9839978 147.9020014
 142.7819992  54.4269978 146.8910014 143.3337361  53.8282721 147.1988611
 137.3839992  47.4889978 145.4760014 137.0919992  48.2569978 144.9850014
 136.7089992  46.8299978 145.3130014 137.2528497  47.5049745 145.3868260
 142.8179992  56.6449978 145.5390014 142.7419992  56.5239978 144.5930014
 142.8499992  57.5939978 145.6580014 142.8119156  56.7567530 145.4255048
 136.4709992  55.4339978 147.3200014 136.6229992  55.0859978 148.1990014
 135.6199992  55.0769978 147.0650014 136.3767899  55.3381738 147.4057340
 142.6689992  41.8599978 141.9890014 142.4149992  41.8789978 142.9120014
 142.4119992  40.9889978 141.6880014 142.5995133  41.7448110 142.0745082
 138.4319992  44.8319978 147.3360014 137.5399992  44.4919978 147.2780014
 138.8829992  44.4549978 146.5810014 138.3706815  44.7343762 147.2259203
 143.9679992  45.2479978 146.1530014 143.5589992  46.0629978 145.8620014
 144.6879992  45.1079978 145.5390014 144.0094013  45.3406571 146.0300875
 139.5509992  42.3059978 141.0900014 139.1199992  41.8609978 141.8200014
 138.8329992  42.6769978 140.5780014 139.3949363  42.2952968 141.1206211
 134.0679992  42.7939978 143.5660014 134.5419992  43.3849978 142.9810014
 133.3499992  43.3239978 143.9130014 134.0358640  42.9465511 143.5327969
 135.8419992  43.8889978 147.2490014 134.9529992  43.9879978 146.9090014
 136.1389992  43.0469978 146.9030014 135.7604177  43.7887687 147.1556940
 139.4949992  43.8889978 144.9060014 140.4269992  44.0179978 145.0840014
 139.2799992  44.5579978 144.2560014 139.5934472  43.9970806 144.8424891
 138.1689992  45.0829978 142.4730014 137.6269992  44.7039978 141.7810014
 139.0029992  45.2779978 142.0440014 138.2075159  45.0575076 142.3204419
 137.3359992  41.1839978 146.7280014 137.0189992  40.2809978 146.6930014
 138.1169992  41.1859978 146.1750014 137.3982307  41.0606951 146.6484314
 141.5049992  49.6489978 144.4080014 140.7599992  49.1409978 144.0860014
 141.3699992  49.6979978 145.3550014 141.3849047  49.5861596 144.4918845
 145.4019992  42.4629978 142.6080014 144.4639992  42.5739978 142.4560014
 145.6999992  43.3189978 142.9140014 145.3136402  42.5940621 142.6285571
 143.6299992  51.1069978 143.4340014 143.3349992  51.9339978 143.8150014
 142.9269992  50.4879978 143.6300014 143.4945471  51.1365227 143.5126698
 139.0039992  52.4619978 147.5820014 139.5319992  53.2349978 147.3820014
 138.1239992  52.6859978 147.2810014 138.9573176  52.5983161 147.5138409
 134.7589992  47.3239978 142.1700014 135.3749992  47.9509978 142.5490014
 133.8969992  47.6399978 142.4410014 134.7268195  47.4525798 142.2585386
 140.4319992  50.1249978 147.1590014 140.1909992  51.0499978 147.2000014
 139.6909992  49.6659978 147.5550014 140.2988390  50.1896403 147.2181404
 139.1149992  55.1459978 146.7040014 138.1649992  55.2519978 146.7550014
 139.4669992  55.9669978 147.0490014 139.0325480  55.2714438 146.7575999
 140.7839992  52.4139978 140.6950014 141.0229992  51.6649978 140.1480014
 140.5149992  52.0259978 141.5280014 140.7803233  52.2591853 140.7327809
 139.7209992  51.9839978 143.1520014 139.8679992  51.4639978 143.9420014
 139.7179992  52.8909978 143.4580014 139.7407300  52.0353964 143.3015895
 136.1739992  49.2359978 143.6620014 135.4879992  49.5889978 144.2290014
 136.6969992  49.9989978 143.4160014 136.1509033  49.3873746 143.7062661
 144.7899992  41.5509978 145.0380014 145.0099992  42.0219978 144.2350014
 145.3489992  41.9449978 145.7080014 144.8956730  41.6687432 145.0185906
 142.4589992  53.6809978 143.9010014 141.6419992  54.1779978 143.9530014
 142.9879992  54.1569978 143.2610014 142.4188508  53.8132543 143.8216035
 141.9899992  43.2789978 145.8730014 142.8019992  43.7829978 145.9190014
 141.7459992  43.1339978 146.7870014 142.0681467  43.3283749 146.0028575
 142.8739992  40.3599978 146.8110014 142.5269992  40.9769978 147.4560014
 143.5329992  40.8609978 146.3300014 142.9155949  40.5121099 146.8342271
 139.7969992  54.7249978 143.8830014 139.9579992  55.5249978 143.3820014
 139.5999992  55.0319978 144.7680014 139.7923919  54.8759129 143.9341006
 138.5319992  41.4229978 143.4980014 138.4479992  42.3109978 143.8450014
 139.4219992  41.1579978 143.7300014 138.6408163  41.5087179 143.5768596
 136.7899992  51.8499978 142.5590014 137.3819992  52.5499978 142.8350014
 137.2489992  51.4169978 141.8390014 136.9330791  51.8872908 142.4994607
 135.1059992  44.5149978 141.6750014 135.0609992  45.4539978 141.8530014
 134.2179992  44.2789978 141.4050014 134.9798555  44.6116874 141.6628939
 134.8449992  53.2369978 146.5080014 134.0119992  53.7089978 146.5360014
 135.3899992  53.7469978 145.9100014 134.8047590  53.3705897 146.4309194
 142.8219992  54.2769978 140.8340014 142.1779992  53.6459978 141.1550014
 143.5839992  53.7459978 140.6020014 142.8368058  54.1187902 140.8466038
 138.3809992  50.0029978 140.9250014 138.4459992  49.2089978 141.4560014
 139.0339992  49.8849978 140.2350014 138.4781754  49.8783337 140.9044259
 143.7339992  51.0499978 140.6610014 143.4649992  51.2309978 141.5620014
 143.5269992  50.1249978 140.5300014 143.6692000  50.9496774 140.7665693
 139.5309992  47.9759978 143.2310014 139.0709992  47.4919978 143.9170014
 139.7859992  47.3069978 142.5950014 139.5025038  47.8193689 143.2389447
 140.6019992  46.2189978 141.4930014 140.4209992  46.0639978 140.5660014
 141.5519992  46.3269978 141.5380014 140.7056566  46.2123669 141.3720929
 140.4989992  56.9089978 142.4950014 141.4319992  57.0669978 142.6380014
 140.2349992  57.5849978 141.8700014 140.5909308  57.0219104 142.4301396
 134.0669992  51.5459978 141.9770014 134.9809992  51.6249978 142.2510014
 134.0749992  50.8589978 141.3110014 134.1931143  51.4639085 141.9244274
 132.7159992  56.9389978 147.0550014 132.0689992  56.4769978 146.5220014
 133.0709992  56.2669978 147.6370014 132.6754506  56.7849503 147.0607341
 133.1029992  40.9349978 145.4660014 132.1779992  41.1429978 145.3370014
 133.5569992  41.4189978 144.7770014 133.0376374  41.0289949 145.3550957
 134.3789992  38.9779978 143.4450014 134.8179992  39.5889978 142.8530014
 133.7449992  39.5159978 143.9190014 134.3533859  39.1344064 143.4280305
 140.1219992  39.1059978 147.4550014 140.9959992  39.4949978 147.4250014
 139.9859992  38.8909978 148.3770014 140.2233207  39.1301923 147.5756509
 134.2799992  54.9259978 144.3430014 133.5949992  54.8879978 143.6750014
 134.2839992  55.8389978 144.6310014 134.1868174  55.0441998 144.2905310
 136.2399992  40.8939978 141.8870014 136.7309992  40.2639978 141.3600014
 136.8629992  41.1899978 142.5510014 136.3915062  40.8476770 141.9045438
 141.2659992  41.1869978 144.3450014 141.4439992  40.5399978 145.0270014
 141.2119992  42.0209978 144.8120014 141.2831025  41.2110504 144.5016433
 143.1439992  56.1349978 142.7400014 144.0099992  56.5019978 142.5620014
 142.8979992  55.6959978 141.9260014 143.2292097  56.1258525 142.6056019
 136.0979992  55.8459978 141.3680014 135.8299992  56.1319978 142.2410014
 136.8689992  55.2999978 141.5200014 136.1655600  55.8113330 141.5081499
  12.6289992  67.1919978 147.6000014  12.7179992  68.1359978 147.4680014
  11.9909992  66.9169978 146.9420014  12.5549062  67.2839812 147.4929641
   1.4639992  64.1709978 146.5400014   1.0159992  65.0169978 146.5210014
   0.9029992  63.5919978 146.0240014   1.3269603  64.2083674 146.4676720
  13.9689992  61.5059978 147.4260014  14.6159992  61.1769978 148.0510014
  14.4789992  62.0229978 146.8030014  14.1264317  61.5309227 147.4272167
  12.4259992  69.7929978 146.6430014  12.1309992  69.4699978 145.7920014
  12.1019992  70.6929978 146.6840014  12.3417983  69.8704026 146.5319771
   2.1549992  69.6039978 144.9560014   1.8829992  69.8329978 144.0670014
   2.1999992  70.4409978 145.4160014   2.1238709  69.7486058 144.8966107
  15.1919992  70.9069978 146.8020014  14.9339992  70.2169978 146.1910014
  15.2629992  70.4639978 147.6480014  15.1662837  70.7527106 146.8326912
  11.3499992  66.4359978 145.0520014  10.6389992  66.9709978 144.7000014
  12.0409992  66.4909978 144.3920014  11.3460751  66.5166777 144.9145858
  11.4039992  64.8929978 142.0910014  12.1049992  64.9159978 142.7420014
  11.7059992  64.2649978 141.4350014  11.5408282  64.8112339 142.0914496
  14.7559992  66.6449978 146.0040014  14.0239992  66.8739978 146.5770014
  15.2029992  65.9319978 146.4590014  14.7162753  66.5798972 146.1439715
  13.6269992  65.8079978 143.6890014  14.2059992  65.9579978 144.4360014
  14.0409992  66.2779978 142.9660014  13.7623122  65.8921277 143.6935042
  11.3529992  72.5439978 147.1240014  11.8269992  72.8399978 147.9020014
  10.7899992  73.2829978 146.8910014  11.3417361  72.6842721 147.1988611
  17.3259992  57.5579978 143.5020014  16.4259992  57.6969978 143.7970014
  17.5779992  58.3889978 143.1000014  17.2368683  57.6894055 143.4880232
   5.3919992  66.3449978 145.4760014   5.0999992  67.1129978 144.9850014
   4.7169992  65.6859978 145.3130014   5.2608497  66.3609745 145.3868260
  18.5149992  71.9239978 141.8780014  18.5879992  72.8629978 142.0490014
  19.4199992  71.6189978 141.8220014  18.6474158  72.0113061 141.8938392
  10.8259992  75.5009978 145.5390014  10.7499992  75.3799978 144.5930014
  10.8579992  76.4499978 145.6580014  10.8199156  75.6127530 145.4255048
   4.4789992  74.2899978 147.3200014   4.6309992  73.9419978 148.1990014
   3.6279992  73.9329978 147.0650014   4.3847899  74.1941738 147.4057340
  13.9269992  74.6549978 142.5410014  14.3019992  73.9109978 142.0710014
  13.9319992  74.3849978 143.4600014  13.9790024  74.5166950 142.6007987
  13.5959992  74.5809978 145.2910014  12.6609992  74.6809978 145.4690014
  13.8759992  73.8709978 145.8690014  13.5058173  74.4987239 145.3934998
  15.1039992  66.8399978 141.3190014  15.1459992  66.6179978 140.3890014
  15.9529992  67.2389978 141.5090014  15.2245253  66.8635498 141.2173822
  10.6769992  60.7159978 141.9890014  10.4229992  60.7349978 142.9120014
  10.4199992  59.8449978 141.6880014  10.6075133  60.6008110 142.0745082
   6.4399992  63.6879978 147.3360014   5.5479992  63.3479978 147.2780014
   6.8909992  63.3109978 146.5810014   6.3786815  63.5903762 147.2259203
  11.9759992  64.1039978 146.1530014  11.5669992  64.9189978 145.8620014
  12.6959992  63.9639978 145.5390014  12.0174013  64.1966571 146.0300875
   7.5589992  61.1619978 141.0900014   7.1279992  60.7169978 141.8200014
   6.8409992  61.5329978 140.5780014   7.4029363  61.1512968 141.1206211
   2.0759992  61.6499978 143.5660014   2.5499992  62.2409978 142.9810014
   1.3579992  62.1799978 143.9130014   2.0438640  61.8025511 143.5327969
   3.8499992  62.7449978 147.2490014   2.9609992  62.8439978 146.9090014
   4.1469992  61.9029978 146.9030014   3.7684177  62.6447687 147.1556940
   7.5029992  62.7449978 144.9060014   8.4349992  62.8739978 145.0840014
   7.2879992  63.4139978 144.2560014   7.6014472  62.8530806 144.8424891
   6.1769992  63.9389978 142.4730014   5.6349992  63.5599978 141.7810014
   7.0109992  64.1339978 142.0440014   6.2155159  63.9135076 142.3204419
   5.3439992  60.0399978 146.7280014   5.0269992  59.1369978 146.6930014
   6.1249992  60.0419978 146.1750014   5.4062307  59.9166951 146.6484314
   9.5129992  68.5049978 144.4080014   8.7679992  67.9969978 144.0860014
   9.3779992  68.5539978 145.3550014   9.3929047  68.4421596 144.4918845
  13.4099992  61.3189978 142.6080014  12.4719992  61.4299978 142.4560014
  13.7079992  62.1749978 142.9140014  13.3216402  61.4500621 142.6285571
  14.1289992  63.1859978 144.2680014  15.0209992  63.0479978 144.5870014
  14.1849992  63.9769978 143.7320014  14.2587107  63.2740526 144.2392091
  11.6379992  69.9629978 143.4340014  11.3429992  70.7899978 143.8150014
  10.9349992  69.3439978 143.6300014  11.5025471  69.9925227 143.5126698
  19.0139992  63.3949978 143.9630014  18.4589992  62.9989978 143.2910014
  19.1139992  64.3059978 143.6850014  18.9515888  63.4638990 143.8335206
  17.3089992  72.1809978 144.4280014  16.9359992  71.3559978 144.7370014
  17.5859992  71.9979978 143.5310014  17.2953871  72.0432441 144.3489677
   7.0119992  71.3179978 147.5820014   7.5399992  72.0909978 147.3820014
   6.1319992  71.5419978 147.2810014   6.9653176  71.4543161 147.5138409
   2.7669992  66.1799978 142.1700014   3.3829992  66.8069978 142.5490014
   1.9049992  66.4959978 142.4410014   2.7348195  66.3085798 142.2585386
   8.4399992  68.9809978 147.1590014   8.1989992  69.9059978 147.2000014
   7.6989992  68.5219978 147.5550014   8.3068390  69.0456403 147.2181404
   7.1229992  74.0019978 146.7040014   6.1729992  74.1079978 146.7550014
   7.4749992  74.8229978 147.0490014   7.0405480  74.1274438 146.7575999
  14.7009992  70.1579978 142.2480014  15.0549992  69.7779978 143.0530014
  13.7529992  70.0639978 142.3350014  14.6211820  70.0933092 142.3698714
  19.2049992  74.6369978 142.4490014  19.9489992  75.2229978 142.3090014
  18.5109992  75.2059978 142.7830014  19.2130201  74.7940603 142.4749772
  15.5669992  68.8299978 144.4750014  15.2899992  68.1019978 145.0310014
  16.4949992  68.9489978 144.6800014  15.6544499  68.7464213 144.5788044
   8.7919992  71.2699978 140.6950014   9.0309992  70.5209978 140.1480014
   8.5229992  70.8819978 141.5280014   8.7883233  71.1151853 140.7327809
   7.7289992  70.8399978 143.1520014   7.8759992  70.3199978 143.9420014
   7.7259992  71.7469978 143.4580014   7.7487300  70.8913964 143.3015895
   4.1819992  68.0919978 143.6620014   3.4959992  68.4449978 144.2290014
   4.7049992  68.8549978 143.4160014   4.1589033  68.2433746 143.7062661
  12.7979992  60.4069978 145.0380014  13.0179992  60.8779978 144.2350014
  13.3569992  60.8009978 145.7080014  12.9036730  60.5247432 145.0185906
  10.4669992  72.5369978 143.9010014   9.6499992  73.0339978 143.9530014
  10.9959992  73.0129978 143.2610014  10.4268508  72.6692543 143.8216035
   9.9979992  62.1349978 145.8730014  10.8099992  62.6389978 145.9190014
   9.7539992  61.9899978 146.7870014  10.0761467  62.1843749 146.0028575
  10.8819992  59.2159978 146.8110014  10.5349992  59.8329978 147.4560014
  11.5409992  59.7169978 146.3300014  10.9235949  59.3681099 146.8342271
   7.8049992  73.5809978 143.8830014   7.9659992  74.3809978 143.3820014
   7.6079992  73.8879978 144.7680014   7.8003919  73.7319129 143.9341006
   6.5399992  60.2789978 143.4980014   6.4559992  61.1669978 143.8450014
   7.4299992  60.0139978 143.7300014   6.6488163  60.3647179 143.5768596
   4.7979992  70.7059978 142.5590014   5.3899992  71.4059978 142.8350014
   5.2569992  70.2729978 141.8390014   4.9410791  70.7432908 142.4994607
   3.1139992  63.3709978 141.6750014   3.0689992  64.3099978 141.8530014
   2.2259992  63.1349978 141.4050014   2.9878555  63.4676874 141.6628939
   2.8529992  72.0929978 146.5080014   2.0199992  72.5649978 146.5360014
   3.3979992  72.6029978 145.9100014   2.8127590  72.2265897 146.4309194
  10.8299992  73.1329978 140.8340014  10.1859992  72.5019978 141.1550014
  11.5919992  72.6019978 140.6020014  10.8448058  72.9747902 140.8466038
  15.4349992  72.9499978 141.0680014  15.7179992  72.1549978 141.5200014
  16.1739992  73.1829978 140.5070014  15.5736956  72.8727031 141.0539822
   6.3889992  68.8589978 140.9250014   6.4539992  68.0649978 141.4560014
   7.0419992  68.7409978 140.2350014   6.4861754  68.7343337 140.9044259
  11.7419992  69.9059978 140.6610014  11.4729992  70.0869978 141.5620014
  11.5349992  68.9809978 140.5300014  11.6772000  69.8056774 140.7665693
   7.5389992  66.8319978 143.2310014   7.0789992  66.3479978 143.9170014
   7.7939992  66.1629978 142.5950014   7.5105038  66.6753689 143.2389447
   8.6099992  65.0749978 141.4930014   8.4289992  64.9199978 140.5660014
   9.5599992  65.1829978 141.5380014   8.7136566  65.0683669 141.3720929
  17.9999992  67.4289978 140.9390014  17.7259992  67.0049978 140.1260014
  18.0389992  68.3609978 140.7220014  17.9677716  67.4968827 140.7984286
   8.5069992  75.7649978 142.4950014   9.4399992  75.9229978 142.6380014
   8.2429992  76.4409978 141.8700014   8.5989308  75.8779104 142.4301396
   2.0749992  70.4019978 141.9770014   2.9889992  70.4809978 142.2510014
   2.0829992  69.7149978 141.3110014   2.2011143  70.3199085 141.9244274
   0.7239992  75.7949978 147.0550014   0.0769992  75.3329978 146.5220014
   1.0789992  75.1229978 147.6370014   0.6834506  75.6409503 147.0607341
  18.4579992  68.2979978 144.9140014  19.3079992  68.7189978 145.0410014
  18.4629992  67.5579978 145.5210014  18.5751143  68.2556094 145.0134750
  18.8519992  66.3519978 146.7380014  18.1259992  65.8719978 147.1350014
  19.4339992  66.5569978 147.4700014  18.8311635  66.3139166 146.8913748
  19.1209992  66.2529978 143.1290014  18.5989992  66.6089978 142.4100014
  19.0879992  66.9279978 143.8070014  19.0450699  66.3929848 143.1222129
  17.4699992  63.4919978 141.6800014  17.5659992  64.1589978 141.0000014
  17.3299992  62.6769978 141.1980014  17.4642063  63.4730667 141.5218377
  16.6389992  64.8729978 147.3010014  16.4889992  63.9279978 147.2800014
  16.2849992  65.1539978 148.1440014  16.5705527  64.7815605 147.4121859
  16.7169992  60.8999978 140.7970014  17.3279992  60.5289978 141.4340014
  15.8799992  60.4789978 140.9930014  16.6874947  60.7922756 140.9107252
  16.3499992  62.4549978 145.7630014  16.6289992  61.5479978 145.8870014
  17.1089992  62.8889978 145.3740014  16.4908619  62.3894502 145.7273795
  16.9629992  59.7179978 145.8110014  17.1449992  59.2689978 146.6370014
  16.3629992  59.1339978 145.3480014  16.9067529  59.5776131 145.8613619
  18.8299992  59.7859978 142.3390014  19.2419992  59.0649978 141.8640014
  19.5109992  60.4549978 142.3980014  18.9785900  59.7777306 142.2819038
   1.1109992  59.7909978 145.4660014   0.1859992  59.9989978 145.3370014
   1.5649992  60.2749978 144.7770014   1.0456374  59.8849949 145.3550957
  15.8809992  74.7749978 147.4120014  16.5339992  74.4269978 146.8040014
  16.3919992  75.2629978 148.0580014  16.0392777  74.7933815 147.4162047
   2.3869992  57.8339978 143.4450014   2.8259992  58.4449978 142.8530014
   1.7529992  58.3719978 143.9190014   2.3613859  57.9904064 143.4280305
   8.1299992  57.9619978 147.4550014   9.0039992  58.3509978 147.4250014
   7.9939992  57.7469978 148.3770014   8.2313207  57.9861923 147.5756509
  15.0399992  58.0179978 144.7960014  14.3369992  58.6329978 144.5870014
  14.5949992  57.1809978 144.9280014  14.8836292  57.9890085 144.7852439
   2.2879992  73.7819978 144.3430014   1.6029992  73.7439978 143.6750014
   2.2919992  74.6949978 144.6310014   2.1948174  73.9001998 144.2905310
   4.2479992  59.7499978 141.8870014   4.7389992  59.1199978 141.3600014
   4.8709992  60.0459978 142.5510014   4.3995062  59.7036770 141.9045438
   9.2739992  60.0429978 144.3450014   9.4519992  59.3959978 145.0270014
   9.2199992  60.8769978 144.8120014   9.2911025  60.0670504 144.5016433
  11.1519992  74.9909978 142.7400014  12.0179992  75.3579978 142.5620014
  10.9059992  74.5519978 141.9260014  11.2372097  74.9818525 142.6056019
  17.8609992  74.5539978 145.4190014  17.6669992  73.8059978 144.8540014
  17.8219992  75.3119978 144.8360014  17.8291645  74.5540786 145.2628148
   4.1059992  74.7019978 141.3680014   3.8379992  74.9879978 142.2410014
   4.8769992  74.1559978 141.5200014   4.1735600  74.6673330 141.5081499
  31.4849992  67.1919978 147.6000014  31.5739992  68.1359978 147.4680014
  30.8469992  66.9169978 146.9420014  31.4109062  67.2839812 147.4929641
  20.3199992  64.1709978 146.5400014  19.8719992  65.0169978 146.5210014
  19.7589992  63.5919978 146.0240014  20.1829603  64.2083674 146.4676720
  32.8249992  61.5059978 147.4260014  33.4719992  61.1769978 148.0510014
  33.3349992  62.0229978 146.8030014  32.9824317  61.5309227 147.4272167
  31.2819992  69.7929978 146.6430014  30.9869992  69.4699978 145.7920014
  30.9579992  70.6929978 146.6840014  31.1977983  69.8704027 146.5319771
  21.0109992  69.6039978 144.9560014  20.7389992  69.8329978 144.0670014
  21.0559992  70.4409978 145.4160014  20.9798709  69.7486058 144.8966107
  34.0479992  70.9069978 146.8020014  33.7899992  70.2169978 146.1910014
  34.1189992  70.4639978 147.6480014  34.0222837  70.7527106 146.8326912
  30.2059992  66.4359978 145.0520014  29.4949992  66.9709978 144.7000014
  30.8969992  66.4909978 144.3920014  30.2020751  66.5166777 144.9145858
  30.2599992  64.8929978 142.0910014  30.9609992  64.9159978 142.7420014
  30.5619992  64.2649978 141.4350014  30.3968282  64.8112339 142.0914496
  33.6119992  66.6449978 146.0040014  32.8799992  66.8739978 146.5770014
  34.0589992  65.9319978 146.4590014  33.5722753  66.5798972 146.1439715
  32.4829992  65.8079978 143.6890014  33.0619992  65.9579978 144.4360014
  32.8969992  66.2779978 142.9660014  32.6183122  65.8921277 143.6935042
  30.2089992  72.5439978 147.1240014  30.6829992  72.8399978 147.9020014
  29.6459992  73.2829978 146.8910014  30.1977361  72.6842721 147.1988611
  36.1819992  57.5579978 143.5020014  35.2819992  57.6969978 143.7970014
  36.4339992  58.3889978 143.1000014  36.0928683  57.6894055 143.4880232
  24.2479992  66.3449978 145.4760014  23.9559992  67.1129978 144.9850014
  23.5729992  65.6859978 145.3130014  24.1168497  66.3609745 145.3868260
  37.3709992  71.9239978 141.8780014  37.4439992  72.8629978 142.0490014
  38.2759992  71.6189978 141.8220014  37.5034158  72.0113061 141.8938392
  29.6819992  75.5009978 145.5390014  29.6059992  75.3799978 144.5930014
  29.7139992  76.4499978 145.6580014  29.6759156  75.6127530 145.4255048
  23.3349992  74.2899978 147.3200014  23.4869992  73.9419978 148.1990014
  22.4839992  73.9329978 147.0650014  23.2407899  74.1941738 147.4057340
  32.7829992  74.6549978 142.5410014  33.1579992  73.9109978 142.0710014
  32.7879992  74.3849978 143.4600014  32.8350024  74.5166950 142.6007987
  32.4519992  74.5809978 145.2910014  31.5169992  74.6809978 145.4690014
  32.7319992  73.8709978 145.8690014  32.3618173  74.4987239 145.3934998
  33.9599992  66.8399978 141.3190014  34.0019992  66.6179978 140.3890014
  34.8089992  67.2389978 141.5090014  34.0805253  66.8635498 141.2173822
  29.5329992  60.7159978 141.9890014  29.2789992  60.7349978 142.9120014
  29.2759992  59.8449978 141.6880014  29.4635133  60.6008110 142.0745082
  25.2959992  63.6879978 147.3360014  24.4039992  63.3479978 147.2780014
  25.7469992  63.3109978 146.5810014  25.2346815  63.5903762 147.2259203
  30.8319992  64.1039978 146.1530014  30.4229992  64.9189978 145.8620014
  31.5519992  63.9639978 145.5390014  30.8734013  64.1966571 146.0300875
  26.4149992  61.1619978 141.0900014  25.9839992  60.7169978 141.8200014
  25.6969992  61.5329978 140.5780014  26.2589363  61.1512968 141.1206211
  20.9319992  61.6499978 143.5660014  21.4059992  62.2409978 142.9810014
  20.2139992  62.1799978 143.9130014  20.8998640  61.8025511 143.5327969
  22.7059992  62.7449978 147.2490014  21.8169992  62.8439978 146.9090014
  23.0029992  61.9029978 146.9030014  22.6244177  62.6447687 147.1556940
  26.3589992  62.7449978 144.9060014  27.2909992  62.8739978 145.0840014
  26.1439992  63.4139978 144.2560014  26.4574472  62.8530806 144.8424891
  25.0329992  63.9389978 142.4730014  24.4909992  63.5599978 141.7810014
  25.8669992  64.1339978 142.0440014  25.0715159  63.9135076 142.3204419
  24.1999992  60.0399978 146.7280014  23.8829992  59.1369978 146.6930014
  24.9809992  60.0419978 146.1750014  24.2622307  59.9166951 146.6484314
  28.3689992  68.5049978 144.4080014  27.6239992  67.9969978 144.0860014
  28.2339992  68.5539978 145.3550014  28.2489047  68.4421596 144.4918845
  32.2659992  61.3189978 142.6080014  31.3279992  61.4299978 142.4560014
  32.5639992  62.1749978 142.9140014  32.1776402  61.4500621 142.6285571
  32.9849992  63.1859978 144.2680014  33.8769992  63.0479978 144.5870014
  33.0409992  63.9769978 143.7320014  33.1147107  63.2740526 144.2392091
  30.4939992  69.9629978 143.4340014  30.1989992  70.7899978 143.8150014
  29.7909992  69.3439978 143.6300014  30.3585471  69.9925227 143.5126698
  37.8699992  63.3949978 143.9630014  37.3149992  62.9989978 143.2910014
  37.9699992  64.3059978 143.6850014  37.8075888  63.4638990 143.8335206
  36.1649992  72.1809978 144.4280014  35.7919992  71.3559978 144.7370014
  36.4419992  71.9979978 143.5310014  36.1513871  72.0432441 144.3489677
  25.8679992  71.3179978 147.5820014  26.3959992  72.0909978 147.3820014
  24.9879992  71.5419978 147.2810014  25.8213176  71.4543161 147.5138409
  21.6229992  66.1799978 142.1700014  22.2389992  66.8069978 142.5490014
  20.7609992  66.4959978 142.4410014  21.5908195  66.3085798 142.2585386
  27.2959992  68.9809978 147.1590014  27.0549992  69.9059978 147.2000014
  26.5549992  68.5219978 147.5550014  27.1628390  69.0456403 147.2181404
  25.9789992  74.0019978 146.7040014  25.0289992  74.1079978 146.7550014
  26.3309992  74.8229978 147.0490014  25.8965480  74.1274438 146.7575999
  33.5569992  70.1579978 142.2480014  33.9109992  69.7779978 143.0530014
  32.6089992  70.0639978 142.3350014  33.4771820  70.0933092 142.3698714
  38.0609992  74.6369978 142.4490014  38.8049992  75.2229978 142.3090014
  37.3669992  75.2059978 142.7830014  38.0690201  74.7940603 142.4749772
  34.4229992  68.8299978 144.4750014  34.1459992  68.1019978 145.0310014
  35.3509992  68.9489978 144.6800014  34.5104499  68.7464213 144.5788044
  27.6479992  71.2699978 140.6950014  27.8869992  70.5209978 140.1480014
  27.3789992  70.8819978 141.5280014  27.6443233  71.1151853 140.7327809
  26.5849992  70.8399978 143.1520014  26.7319992  70.3199978 143.9420014
  26.5819992  71.7469978 143.4580014  26.6047300  70.8913964 143.3015895
  23.0379992  68.0919978 143.6620014  22.3519992  68.4449978 144.2290014
  23.5609992  68.8549978 143.4160014  23.0149033  68.2433746 143.7062661
  31.6539992  60.4069978 145.0380014  31.8739992  60.8779978 144.2350014
  32.2129992  60.8009978 145.7080014  31.7596730  60.5247432 145.0185906
  29.3229992  72.5369978 143.9010014  28.5059992  73.0339978 143.9530014
  29.8519992  73.0129978 143.2610014  29.2828508  72.6692543 143.8216035
  28.8539992  62.1349978 145.8730014  29.6659992  62.6389978 145.9190014
  28.6099992  61.9899978 146.7870014  28.9321467  62.1843749 146.0028575
  29.7379992  59.2159978 146.8110014  29.3909992  59.8329978 147.4560014
  30.3969992  59.7169978 146.3300014  29.7795949  59.3681099 146.8342271
  26.6609992  73.5809978 143.8830014  26.8219992  74.3809978 143.3820014
  26.4639992  73.8879978 144.7680014  26.6563919  73.7319129 143.9341006
  25.3959992  60.2789978 143.4980014  25.3119992  61.1669978 143.8450014
  26.2859992  60.0139978 143.7300014  25.5048163  60.3647179 143.5768596
  23.6539992  70.7059978 142.5590014  24.2459992  71.4059978 142.8350014
  24.1129992  70.2729978 141.8390014  23.7970791  70.7432908 142.4994607
  21.9699992  63.3709978 141.6750014  21.9249992  64.3099978 141.8530014
  21.0819992  63.1349978 141.4050014  21.8438555  63.4676874 141.6628939
  21.7089992  72.0929978 146.5080014  20.8759992  72.5649978 146.5360014
  22.2539992  72.6029978 145.9100014  21.6687590  72.2265897 146.4309194
  29.6859992  73.1329978 140.8340014  29.0419992  72.5019978 141.1550014
  30.4479992  72.6019978 140.6020014  29.7008058  72.9747902 140.8466038
  34.2909992  72.9499978 141.0680014  34.5739992  72.1549978 141.5200014
  35.0299992  73.1829978 140.5070014  34.4296956  72.8727031 141.0539821
  25.2449992  68.8589978 140.9250014  25.3099992  68.0649978 141.4560014
  25.8979992  68.7409978 140.2350014  25.3421754  68.7343337 140.9044259
  30.5979992  69.9059978 140.6610014  30.3289992  70.0869978 141.5620014
  30.3909992  68.9809978 140.5300014  30.5332000  69.8056774 140.7665693
  26.3949992  66.8319978 143.2310014  25.9349992  66.3479978 143.9170014
  26.6499992  66.1629978 142.5950014  26.3665038  66.6753689 143.2389447
  27.4659992  65.0749978 141.4930014  27.2849992  64.9199978 140.5660014
  28.4159992  65.1829978 141.5380014  27.5696566  65.0683669 141.3720929
  36.8559992  67.4289978 140.9390014  36.5819992  67.0049978 140.1260014
  36.8949992  68.3609978 140.7220014  36.8237716  67.4968827 140.7984286
  27.3629992  75.7649978 142.4950014  28.2959992  75.9229978 142.6380014
  27.0989992  76.4409978 141.8700014  27.4549308  75.8779104 142.4301396
  20.9309992  70.4019978 141.9770014  21.8449992  70.4809978 142.2510014
  20.9389992  69.7149978 141.3110014  21.0571143  70.3199085 141.9244274
  19.5799992  75.7949978 147.0550014  18.9329992  75.3329978 146.5220014
  19.9349992  75.1229978 147.6370014  19.5394506  75.6409503 147.0607341
  37.3139992  68.2979978 144.9140014  38.1639992  68.7189978 145.0410014
  37.3189992  67.5579978 145.5210014  37.4311143  68.2556094 145.0134750
  37.7079992  66.3519978 146.7380014  36.9819992  65.8719978 147.1350014
  38.2899992  66.5569978 147.4700014  37.6871635  66.3139166 146.8913748
  37.9769992  66.2529978 143.1290014  37.4549992  66.6089978 142.4100014
  37.9439992  66.9279978 143.8070014  37.9010699  66.3929848 143.1222129
  36.3259992  63.4919978 141.6800014  36.4219992  64.1589978 141.0000014
  36.1859992  62.6769978 141.1980014  36.3202063  63.4730667 141.5218377
  35.4949992  64.8729978 147.3010014  35.3449992  63.9279978 147.2800014
  35.1409992  65.1539978 148.1440014  35.4265527  64.7815605 147.4121859
  35.5729992  60.8999978 140.7970014  36.1839992  60.5289978 141.4340014
  34.7359992  60.4789978 140.9930014  35.5434947  60.7922756 140.9107252
  35.2059992  62.4549978 145.7630014  35.4849992  61.5479978 145.8870014
  35.9649992  62.8889978 145.3740014  35.3468619  62.3894502 145.7273795
  35.8189992  59.7179978 145.8110014  36.0009992  59.2689978 146.6370014
  35.2189992  59.1339978 145.3480014  35.7627529  59.5776131 145.8613619
  37.6859992  59.7859978 142.3390014  38.0979992  59.0649978 141.8640014
  38.3669992  60.4549978 142.3980014  37.8345900  59.7777306 142.2819038
  19.9669992  59.7909978 145.4660014  19.0419992  59.9989978 145.3370014
  20.4209992  60.2749978 144.7770014  19.9016374  59.8849949 145.3550957
  34.7369992  74.7749978 147.4120014  35.3899992  74.4269978 146.8040014
  35.2479992  75.2629978 148.0580014  34.8952777  74.7933815 147.4162047
  21.2429992  57.8339978 143.4450014  21.6819992  58.4449978 142.8530014
  20.6089992  58.3719978 143.9190014  21.2173859  57.9904064 143.4280305
  26.9859992  57.9619978 147.4550014  27.8599992  58.3509978 147.4250014
  26.8499992  57.7469978 148.3770014  27.0873207  57.9861923 147.5756509
  33.8959992  58.0179978 144.7960014  33.1929992  58.6329978 144.5870014
  33.4509992  57.1809978 144.9280014  33.7396292  57.9890085 144.7852439
  21.1439992  73.7819978 144.3430014  20.4589992  73.7439978 143.6750014
  21.1479992  74.6949978 144.6310014  21.0508174  73.9001998 144.2905310
  23.1039992  59.7499978 141.8870014  23.5949992  59.1199978 141.3600014
  23.7269992  60.0459978 142.5510014  23.2555062  59.7036770 141.9045438
  28.1299992  60.0429978 144.3450014  28.3079992  59.3959978 145.0270014
  28.0759992  60.8769978 144.8120014  28.1471025  60.0670504 144.5016433
  30.0079992  74.9909978 142.7400014  30.8739992  75.3579978 142.5620014
  29.7619992  74.5519978 141.9260014  30.0932097  74.9818525 142.6056019
  36.7169992  74.5539978 145.4190014  36.5229992  73.8059978 144.8540014
  36.6779992  75.3119978 144.8360014  36.6851645  74.5540786 145.2628148
  22.9619992  74.7019978 141.3680014  22.6939992  74.9879978 142.2410014
  23.7329992  74.1559978 141.5200014  23.0295600  74.6673330 141.5081499
  50.3409992  67.1919978 147.6000014  50.4299992  68.1359978 147.4680014
  49.7029992  66.9169978 146.9420014  50.2669062  67.2839812 147.4929641
  39.1759992  64.1709978 146.5400014  38.7279992  65.0169978 146.5210014
  38.6149992  63.5919978 146.0240014  39.0389603  64.2083674 146.4676720
  51.6809992  61.5059978 147.4260014  52.3279992  61.1769978 148.0510014
  52.1909992  62.0229978 146.8030014  51.8384317  61.5309227 147.4272167
  50.1379992  69.7929978 146.6430014  49.8429992  69.4699978 145.7920014
  49.8139992  70.6929978 146.6840014  50.0537983  69.8704027 146.5319771
  39.8669992  69.6039978 144.9560014  39.5949992  69.8329978 144.0670014
  39.9119992  70.4409978 145.4160014  39.8358709  69.7486058 144.8966107
  52.9039992  70.9069978 146.8020014  52.6459992  70.2169978 146.1910014
  52.9749992  70.4639978 147.6480014  52.8782837  70.7527106 146.8326912
  49.0619992  66.4359978 145.0520014  48.3509992  66.9709978 144.7000014
  49.7529992  66.4909978 144.3920014  49.0580751  66.5166777 144.9145858
  49.1159992  64.8929978 142.0910014  49.8169992  64.9159978 142.7420014
  49.4179992  64.2649978 141.4350014  49.2528282  64.8112339 142.0914496
  52.4679992  66.6449978 146.0040014  51.7359992  66.8739978 146.5770014
  52.9149992  65.9319978 146.4590014  52.4282753  66.5798972 146.1439715
  51.3389992  65.8079978 143.6890014  51.9179992  65.9579978 144.4360014
  51.7529992  66.2779978 142.9660014  51.4743122  65.8921277 143.6935042
  49.0649992  72.5439978 147.1240014  49.5389992  72.8399978 147.9020014
  48.5019992  73.2829978 146.8910014  49.0537361  72.6842721 147.1988611
  55.0379992  57.5579978 143.5020014  54.1379992  57.6969978 143.7970014
  55.2899992  58.3889978 143.1000014  54.9488683  57.6894055 143.4880232
  43.1039992  66.3449978 145.4760014  42.8119992  67.1129978 144.9850014
  42.4289992  65.6859978 145.3130014  42.9728497  66.3609745 145.3868260
  56.2269992  71.9239978 141.8780014  56.2999992  72.8629978 142.0490014
  57.1319992  71.6189978 141.8220014  56.3594158  72.0113061 141.8938392
  48.5379992  75.5009978 145.5390014  48.4619992  75.3799978 144.5930014
  48.5699992  76.4499978 145.6580014  48.5319156  75.6127530 145.4255048
  42.1909992  74.2899978 147.3200014  42.3429992  73.9419978 148.1990014
  41.3399992  73.9329978 147.0650014  42.0967899  74.1941738 147.4057340
  51.6389992  74.6549978 142.5410014  52.0139992  73.9109978 142.0710014
  51.6439992  74.3849978 143.4600014  51.6910024  74.5166950 142.6007987
  51.3079992  74.5809978 145.2910014  50.3729992  74.6809978 145.4690014
  51.5879992  73.8709978 145.8690014  51.2178173  74.4987239 145.3934998
  52.8159992  66.8399978 141.3190014  52.8579992  66.6179978 140.3890014
  53.6649992  67.2389978 141.5090014  52.9365253  66.8635498 141.2173822
  48.3889992  60.7159978 141.9890014  48.1349992  60.7349978 142.9120014
  48.1319992  59.8449978 141.6880014  48.3195133  60.6008110 142.0745082
  44.1519992  63.6879978 147.3360014  43.2599992  63.3479978 147.2780014
  44.6029992  63.3109978 146.5810014  44.0906815  63.5903762 147.2259203
  49.6879992  64.1039978 146.1530014  49.2789992  64.9189978 145.8620014
  50.4079992  63.9639978 145.5390014  49.7294013  64.1966571 146.0300875
  45.2709992  61.1619978 141.0900014  44.8399992  60.7169978 141.8200014
  44.5529992  61.5329978 140.5780014  45.1149363  61.1512968 141.1206211
  39.7879992  61.6499978 143.5660014  40.2619992  62.2409978 142.9810014
  39.0699992  62.1799978 143.9130014  39.7558640  61.8025511 143.5327969
  41.5619992  62.7449978 147.2490014  40.6729992  62.8439978 146.9090014
  41.8589992  61.9029978 146.9030014  41.4804177  62.6447687 147.1556940
  45.2149992  62.7449978 144.9060014  46.1469992  62.8739978 145.0840014
  44.9999992  63.4139978 144.2560014  45.3134472  62.8530806 144.8424891
  43.8889992  63.9389978 142.4730014  43.3469992  63.5599978 141.7810014
  44.7229992  64.1339978 142.0440014  43.9275159  63.9135076 142.3204419
  43.0559992  60.0399978 146.7280014  42.7389992  59.1369978 146.6930014
  43.8369992  60.0419978 146.1750014  43.1182307  59.9166951 146.6484314
  47.2249992  68.5049978 144.4080014  46.4799992  67.9969978 144.0860014
  47.0899992  68.5539978 145.3550014  47.1049047  68.4421596 144.4918845
  51.1219992  61.3189978 142.6080014  50.1839992  61.4299978 142.4560014
  51.4199992  62.1749978 142.9140014  51.0336402  61.4500621 142.6285571
  51.8409992  63.1859978 144.2680014  52.7329992  63.0479978 144.5870014
  51.8969992  63.9769978 143.7320014  51.9707107  63.2740526 144.2392091
  49.3499992  69.9629978 143.4340014  49.0549992  70.7899978 143.8150014
  48.6469992  69.3439978 143.6300014  49.2145471  69.9925227 143.5126698
  56.7259992  63.3949978 143.9630014  56.1709992  62.9989978 143.2910014
  56.8259992  64.3059978 143.6850014  56.6635888  63.4638990 143.8335206
  55.0209992  72.1809978 144.4280014  54.6479992  71.3559978 144.7370014
  55.2979992  71.9979978 143.5310014  55.0073871  72.0432441 144.3489677
  44.7239992  71.3179978 147.5820014  45.2519992  72.0909978 147.3820014
  43.8439992  71.5419978 147.2810014  44.6773176  71.4543161 147.5138409
  40.4789992  66.1799978 142.1700014  41.0949992  66.8069978 142.5490014
  39.6169992  66.4959978 142.4410014  40.4468195  66.3085798 142.2585386
  46.1519992  68.9809978 147.1590014  45.9109992  69.9059978 147.2000014
  45.4109992  68.5219978 147.5550014  46.0188390  69.0456403 147.2181404
  44.8349992  74.0019978 146.7040014  43.8849992  74.1079978 146.7550014
  45.1869992  74.8229978 147.0490014  44.7525480  74.1274438 146.7575999
  52.4129992  70.1579978 142.2480014  52.7669992  69.7779978 143.0530014
  51.4649992  70.0639978 142.3350014  52.3331820  70.0933092 142.3698714
  56.9169992  74.6369978 142.4490014  57.6609992  75.2229978 142.3090014
  56.2229992  75.2059978 142.7830014  56.9250201  74.7940603 142.4749772
  53.2789992  68.8299978 144.4750014  53.0019992  68.1019978 145.0310014
  54.2069992  68.9489978 144.6800014  53.3664499  68.7464213 144.5788044
  46.5039992  71.2699978 140.6950014  46.7429992  70.5209978 140.1480014
  46.2349992  70.8819978 141.5280014  46.5003233  71.1151853 140.7327809
  45.4409992  70.8399978 143.1520014  45.5879992  70.3199978 143.9420014
  45.4379992  71.7469978 143.4580014  45.4607300  70.8913964 143.3015895
  41.8939992  68.0919978 143.6620014  41.2079992  68.4449978 144.2290014
  42.4169992  68.8549978 143.4160014  41.8709033  68.2433746 143.7062661
  50.5099992  60.4069978 145.0380014  50.7299992  60.8779978 144.2350014
  51.0689992  60.8009978 145.7080014  50.6156730  60.5247432 145.0185906
  48.1789992  72.5369978 143.9010014  47.3619992  73.0339978 143.9530014
  48.7079992  73.0129978 143.2610014  48.1388508  72.6692543 143.8216035
  47.7099992  62.1349978 145.8730014  48.5219992  62.6389978 145.9190014
  47.4659992  61.9899978 146.7870014  47.7881467  62.1843749 146.0028575
  48.5939992  59.2159978 146.8110014  48.2469992  59.8329978 147.4560014
  49.2529992  59.7169978 146.3300014  48.6355949  59.3681099 146.8342271
  45.5169992  73.5809978 143.8830014  45.6779992  74.3809978 143.3820014
  45.3199992  73.8879978 144.7680014  45.5123919  73.7319129 143.9341006
  44.2519992  60.2789978 143.4980014  44.1679992  61.1669978 143.8450014
  45.1419992  60.0139978 143.7300014  44.3608163  60.3647179 143.5768596
  42.5099992  70.7059978 142.5590014  43.1019992  71.4059978 142.8350014
  42.9689992  70.2729978 141.8390014  42.6530791  70.7432908 142.4994607
  40.8259992  63.3709978 141.6750014  40.7809992  64.3099978 141.8530014
  39.9379992  63.1349978 141.4050014  40.6998555  63.4676874 141.6628939
  40.5649992  72.0929978 146.5080014  39.7319992  72.5649978 146.5360014
  41.1099992  72.6029978 145.9100014  40.5247590  72.2265897 146.4309194
  48.5419992  73.1329978 140.8340014  47.8979992  72.5019978 141.1550014
  49.3039992  72.6019978 140.6020014  48.5568058  72.9747902 140.8466038
  53.1469992  72.9499978 141.0680014  53.4299992  72.1549978 141.5200014
  53.8859992  73.1829978 140.5070014  53.2856956  72.8727031 141.0539822
  44.1009992  68.8589978 140.9250014  44.1659992  68.0649978 141.4560014
  44.7539992  68.7409978 140.2350014  44.1981754  68.7343337 140.9044259
  49.4539992  69.9059978 140.6610014  49.1849992  70.0869978 141.5620014
  49.2469992  68.9809978 140.5300014  49.3892000  69.8056774 140.7665693
  45.2509992  66.8319978 143.2310014  44.7909992  66.3479978 143.9170014
  45.5059992  66.1629978 142.5950014  45.2225038  66.6753689 143.2389447
  46.3219992  65.0749978 141.4930014  46.1409992  64.9199978 140.5660014
  47.2719992  65.1829978 141.5380014  46.4256566  65.0683669 141.3720929
  55.7119992  67.4289978 140.9390014  55.4379992  67.0049978 140.1260014
  55.7509992  68.3609978 140.7220014  55.6797716  67.4968827 140.7984286
  46.2189992  75.7649978 142.4950014  47.1519992  75.9229978 142.6380014
  45.9549992  76.4409978 141.8700014  46.3109308  75.8779104 142.4301396
  39.7869992  70.4019978 141.9770014  40.7009992  70.4809978 142.2510014
  39.7949992  69.7149978 141.3110014  39.9131143  70.3199085 141.9244274
  38.4359992  75.7949978 147.0550014  37.7889992  75.3329978 146.5220014
  38.7909992  75.1229978 147.6370014  38.3954506  75.6409503 147.0607341
  56.1699992  68.2979978 144.9140014  57.0199992  68.7189978 145.0410014
  56.1749992  67.5579978 145.5210014  56.2871143  68.2556094 145.0134750
  56.5639992  66.3519978 146.7380014  55.8379992  65.8719978 147.1350014
  57.1459992  66.5569978 147.4700014  56.5431635  66.3139166 146.8913748
  56.8329992  66.2529978 143.1290014  56.3109992  66.6089978 142.4100014
  56.7999992  66.9279978 143.8070014  56.7570699  66.3929848 143.1222129
  55.1819992  63.4919978 141.6800014  55.2779992  64.1589978 141.0000014
  55.0419992  62.6769978 141.1980014  55.1762063  63.4730667 141.5218377
  54.3509992  64.8729978 147.3010014  54.2009992  63.9279978 147.2800014
  53.9969992  65.1539978 148.1440014  54.2825527  64.7815605 147.4121859
  54.4289992  60.8999978 140.7970014  55.0399992  60.5289978 141.4340014
  53.5919992  60.4789978 140.9930014  54.3994947  60.7922755 140.9107252
  54.0619992  62.4549978 145.7630014  54.3409992  61.5479978 145.8870014
  54.8209992  62.8889978 145.3740014  54.2028619  62.3894502 145.7273795
  54.6749992  59.7179978 145.8110014  54.8569992  59.2689978 146.6370014
  54.0749992  59.1339978 145.3480014  54.6187529  59.5776131 145.8613619
  56.5419992  59.7859978 142.3390014  56.9539992  59.0649978 141.8640014
  57.2229992  60.4549978 142.3980014  56.6905900  59.7777306 142.2819038
  38.8229992  59.7909978 145.4660014  37.8979992  59.9989978 145.3370014
  39.2769992  60.2749978 144.7770014  38.7576374  59.8849949 145.3550957
  53.5929992  74.7749978 147.4120014  54.2459992  74.4269978 146.8040014
  54.1039992  75.2629978 148.0580014  53.7512777  74.7933815 147.4162047
  40.0989992  57.8339978 143.4450014  40.5379992  58.4449978 142.8530014
  39.4649992  58.3719978 143.9190014  40.0733859  57.9904064 143.4280305
  45.8419992  57.9619978 147.4550014  46.7159992  58.3509978 147.4250014
  45.7059992  57.7469978 148.3770014  45.9433207  57.9861923 147.5756509
  52.7519992  58.0179978 144.7960014  52.0489992  58.6329978 144.5870014
  52.3069992  57.1809978 144.9280014  52.5956292  57.9890085 144.7852439
  39.9999992  73.7819978 144.3430014  39.3149992  73.7439978 143.6750014
  40.0039992  74.6949978 144.6310014  39.9068174  73.9001998 144.2905310
  41.9599992  59.7499978 141.8870014  42.4509992  59.1199978 141.3600014
  42.5829992  60.0459978 142.5510014  42.1115062  59.7036770 141.9045438
  46.9859992  60.0429978 144.3450014  47.1639992  59.3959978 145.0270014
  46.9319992  60.8769978 144.8120014  47.0031025  60.0670504 144.5016433
  48.8639992  74.9909978 142.7400014  49.7299992  75.3579978 142.5620014
  48.6179992  74.5519978 141.9260014  48.9492097  74.9818525 142.6056019
  55.5729992  74.5539978 145.4190014  55.3789992  73.8059978 144.8540014
  55.5339992  75.3119978 144.8360014  55.5411645  74.5540786 145.2628148
  41.8179992  74.7019978 141.3680014  41.5499992  74.9879978 142.2410014
  42.5889992  74.1559978 141.5200014  41.8855600  74.6673330 141.5081499
  69.1969992  67.1919978 147.6000014  69.2859992  68.1359978 147.4680014
  68.5589992  66.9169978 146.9420014  69.1229061  67.2839812 147.4929641
  58.0319992  64.1709978 146.5400014  57.5839992  65.0169978 146.5210014
  57.4709992  63.5919978 146.0240014  57.8949603  64.2083674 146.4676720
  70.5369992  61.5059978 147.4260014  71.1839992  61.1769978 148.0510014
  71.0469992  62.0229978 146.8030014  70.6944317  61.5309227 147.4272167
  68.9939992  69.7929978 146.6430014  68.6989992  69.4699978 145.7920014
  68.6699992  70.6929978 146.6840014  68.9097983  69.8704026 146.5319771
  58.7229992  69.6039978 144.9560014  58.4509992  69.8329978 144.0670014
  58.7679992  70.4409978 145.4160014  58.6918709  69.7486058 144.8966107
  71.7599992  70.9069978 146.8020014  71.5019992  70.2169978 146.1910014
  71.8309992  70.4639978 147.6480014  71.7342837  70.7527106 146.8326912
  67.9179992  66.4359978 145.0520014  67.2069992  66.9709978 144.7000014
  68.6089992  66.4909978 144.3920014  67.9140751  66.5166777 144.9145858
  67.9719992  64.8929978 142.0910014  68.6729992  64.9159978 142.7420014
  68.2739992  64.2649978 141.4350014  68.1088282  64.8112339 142.0914496
  71.3239992  66.6449978 146.0040014  70.5919992  66.8739978 146.5770014
  71.7709992  65.9319978 146.4590014  71.2842753  66.5798972 146.1439715
  70.1949992  65.8079978 143.6890014  70.7739992  65.9579978 144.4360014
  70.6089992  66.2779978 142.9660014  70.3303122  65.8921277 143.6935042
  67.9209992  72.5439978 147.1240014  68.3949992  72.8399978 147.9020014
  67.3579992  73.2829978 146.8910014  67.9097361  72.6842721 147.1988611
  73.8939992  57.5579978 143.5020014  72.9939992  57.6969978 143.7970014
  74.1459992  58.3889978 143.1000014  73.8048683  57.6894055 143.4880232
  61.9599992  66.3449978 145.4760014  61.6679992  67.1129978 144.9850014
  61.2849992  65.6859978 145.3130014  61.8288497  66.3609745 145.3868260
  75.0829992  71.9239978 141.8780014  75.1559992  72.8629978 142.0490014
  75.9879992  71.6189978 141.8220014  75.2154158  72.0113061 141.8938392
  67.3939992  75.5009978 145.5390014  67.3179992  75.3799978 144.5930014
  67.4259992  76.4499978 145.6580014  67.3879156  75.6127530 145.4255048
  61.0469992  74.2899978 147.3200014  61.1989992  73.9419978 148.1990014
  60.1959992  73.9329978 147.0650014  60.9527899  74.1941738 147.4057340
  70.4949992  74.6549978 142.5410014  70.8699992  73.9109978 142.0710014
  70.4999992  74.3849978 143.4600014  70.5470023  74.5166950 142.6007987
  70.1639992  74.5809978 145.2910014  69.2289992  74.6809978 145.4690014
  70.4439992  73.8709978 145.8690014  70.0738173  74.4987239 145.3934998
  71.6719992  66.8399978 141.3190014  71.7139992  66.6179978 140.3890014
  72.5209992  67.2389978 141.5090014  71.7925253  66.8635498 141.2173822
  67.2449992  60.7159978 141.9890014  66.9909992  60.7349978 142.9120014
  66.9879992  59.8449978 141.6880014  67.1755133  60.6008110 142.0745082
  63.0079992  63.6879978 147.3360014  62.1159992  63.3479978 147.2780014
  63.4589992  63.3109978 146.5810014  62.9466815  63.5903762 147.2259203
  68.5439992  64.1039978 146.1530014  68.1349992  64.9189978 145.8620014
  69.2639992  63.9639978 145.5390014  68.5854013  64.1966571 146.0300875
  64.1269992  61.1619978 141.0900014  63.6959992  60.7169978 141.8200014
  63.4089992  61.5329978 140.5780014  63.9709363  61.1512968 141.1206211
  58.6439992  61.6499978 143.5660014  59.1179992  62.2409978 142.9810014
  57.9259992  62.1799978 143.9130014  58.6118640  61.8025511 143.5327969
  60.4179992  62.7449978 147.2490014  59.5289992  62.8439978 146.9090014
  60.7149992  61.9029978 146.9030014  60.3364177  62.6447687 147.1556940
  64.0709992  62.7449978 144.9060014  65.0029992  62.8739978 145.0840014
  63.8559992  63.4139978 144.2560014  64.1694472  62.8530806 144.8424891
  62.7449992  63.9389978 142.4730014  62.2029992  63.5599978 141.7810014
  63.5789992  64.1339978 142.0440014  62.7835159  63.9135076 142.3204419
  61.9119992  60.0399978 146.7280014  61.5949992  59.1369978 146.6930014
  62.6929992  60.0419978 146.1750014  61.9742307  59.9166951 146.6484314
  66.0809992  68.5049978 144.4080014  65.3359992  67.9969978 144.0860014
  65.9459992  68.5539978 145.3550014  65.9609047  68.4421596 144.4918845
  69.9779992  61.3189978 142.6080014  69.0399992  61.4299978 142.4560014
  70.2759992  62.1749978 142.9140014  69.8896402  61.4500621 142.6285571
  70.6969992  63.1859978 144.2680014  71.5889992  63.0479978 144.5870014
  70.7529992  63.9769978 143.7320014  70.8267107  63.2740526 144.2392091
  68.2059992  69.9629978 143.4340014  67.9109992  70.7899978 143.8150014
  67.5029992  69.3439978 143.6300014  68.0705471  69.9925227 143.5126698
  75.5819992  63.3949978 143.9630014  75.0269992  62.9989978 143.2910014
  75.6819992  64.3059978 143.6850014  75.5195888  63.4638990 143.8335206
  73.8769992  72.1809978 144.4280014  73.5039992  71.3559978 144.7370014
  74.1539992  71.9979978 143.5310014  73.8633871  72.0432441 144.3489677
  63.5799992  71.3179978 147.5820014  64.1079992  72.0909978 147.3820014
  62.6999992  71.5419978 147.2810014  63.5333176  71.4543161 147.5138409
  59.3349992  66.1799978 142.1700014  59.9509992  66.8069978 142.5490014
  58.4729992  66.4959978 142.4410014  59.3028195  66.3085798 142.2585386
  65.0079992  68.9809978 147.1590014  64.7669992  69.9059978 147.2000014
  64.2669992  68.5219978 147.5550014  64.8748390  69.0456403 147.2181404
  63.6909992  74.0019978 146.7040014  62.7409992  74.1079978 146.7550014
  64.0429992  74.8229978 147.0490014  63.6085480  74.1274438 146.7575999
  71.2689992  70.1579978 142.2480014  71.6229992  69.7779978 143.0530014
  70.3209992  70.0639978 142.3350014  71.1891820  70.0933092 142.3698714
  75.7729992  74.6369978 142.4490014  76.5169992  75.2229978 142.3090014
  75.0789992  75.2059978 142.7830014  75.7810201  74.7940603 142.4749772
  72.1349992  68.8299978 144.4750014  71.8579992  68.1019978 145.0310014
  73.0629992  68.9489978 144.6800014  72.2224499  68.7464213 144.5788044
  65.3599992  71.2699978 140.6950014  65.5989992  70.5209978 140.1480014
  65.0909992  70.8819978 141.5280014  65.3563233  71.1151853 140.7327809
  64.2969992  70.8399978 143.1520014  64.4439992  70.3199978 143.9420014
  64.2939992  71.7469978 143.4580014  64.3167300  70.8913964 143.3015895
  60.7499992  68.0919978 143.6620014  60.0639992  68.4449978 144.2290014
  61.2729992  68.8549978 143.4160014  60.7269033  68.2433746 143.7062661
  69.3659992  60.4069978 145.0380014  69.5859992  60.8779978 144.2350014
  69.9249992  60.8009978 145.7080014  69.4716730  60.5247432 145.0185906
  67.0349992  72.5369978 143.9010014  66.2179992  73.0339978 143.9530014
  67.5639992  73.0129978 143.2610014  66.9948508  72.6692543 143.8216035
  66.5659992  62.1349978 145.8730014  67.3779992  62.6389978 145.9190014
  66.3219992  61.9899978 146.7870014  66.6441467  62.1843749 146.0028575
  67.4499992  59.2159978 146.8110014  67.1029992  59.8329978 147.4560014
  68.1089992  59.7169978 146.3300014  67.4915949  59.3681099 146.8342271
  64.3729992  73.5809978 143.8830014  64.5339992  74.3809978 143.3820014
  64.1759992  73.8879978 144.7680014  64.3683919  73.7319129 143.9341006
  63.1079992  60.2789978 143.4980014  63.0239992  61.1669978 143.8450014
  63.9979992  60.0139978 143.7300014  63.2168163  60.3647179 143.5768596
  61.3659992  70.7059978 142.5590014  61.9579992  71.4059978 142.8350014
  61.8249992  70.2729978 141.8390014  61.5090791  70.7432908 142.4994607
  59.6819992  63.3709978 141.6750014  59.6369992  64.3099978 141.8530014
  58.7939992  63.1349978 141.4050014  59.5558555  63.4676874 141.6628939
  59.4209992  72.0929978 146.5080014  58.5879992  72.5649978 146.5360014
  59.9659992  72.6029978 145.9100014  59.3807590  72.2265897 146.4309194
  67.3979992  73.1329978 140.8340014  66.7539992  72.5019978 141.1550014
  68.1599992  72.6019978 140.6020014  67.4128058  72.9747902 140.8466038
  72.0029992  72.9499978 141.0680014  72.2859992  72.1549978 141.5200014
  72.7419992  73.1829978 140.5070014  72.1416956  72.8727031 141.0539822
  62.9569992  68.8589978 140.9250014  63.0219992  68.0649978 141.4560014
  63.6099992  68.7409978 140.2350014  63.0541754  68.7343337 140.9044259
  68.3099992  69.9059978 140.6610014  68.0409992  70.0869978 141.5620014
  68.1029992  68.9809978 140.5300014  68.2452000  69.8056774 140.7665693
  64.1069992  66.8319978 143.2310014  63.6469992  66.3479978 143.9170014
  64.3619992  66.1629978 142.5950014  64.0785038  66.6753689 143.2389447
  65.1779992  65.0749978 141.4930014  64.9969992  64.9199978 140.5660014
  66.1279992  65.1829978 141.5380014  65.2816566  65.0683669 141.3720929
  74.5679992  67.4289978 140.9390014  74.2939992  67.0049978 140.1260014
  74.6069992  68.3609978 140.7220014  74.5357716  67.4968827 140.7984286
  65.0749992  75.7649978 142.4950014  66.0079992  75.9229978 142.6380014
  64.8109992  76.4409978 141.8700014  65.1669308  75.8779104 142.4301396
  58.6429992  70.4019978 141.9770014  59.5569992  70.4809978 142.2510014
  58.6509992  69.7149978 141.3110014  58.7691143  70.3199085 141.9244274
  57.2919992  75.7949978 147.0550014  56.6449992  75.3329978 146.5220014
  57.6469992  75.1229978 147.6370014  57.2514506  75.6409503 147.0607341
  75.0259992  68.2979978 144.9140014  75.8759992  68.7189978 145.0410014
  75.0309992  67.5579978 145.5210014  75.1431143  68.2556094 145.0134750
  75.4199992  66.3519978 146.7380014  74.6939992  65.8719978 147.1350014
  76.0019992  66.5569978 147.4700014  75.3991635  66.3139166 146.8913748
  75.6889992  66.2529978 143.1290014  75.1669992  66.6089978 142.4100014
  75.6559992  66.9279978 143.8070014  75.6130699  66.3929848 143.1222129
  74.0379992  63.4919978 141.6800014  74.1339992  64.1589978 141.0000014
  73.8979992  62.6769978 141.1980014  74.0322063  63.4730667 141.5218377
  73.2069992  64.8729978 147.3010014  73.0569992  63.9279978 147.2800014
  72.8529992  65.1539978 148.1440014  73.1385527  64.7815605 147.4121859
  73.2849992  60.8999978 140.7970014  73.8959992  60.5289978 141.4340014
  72.4479992  60.4789978 140.9930014  73.2554947  60.7922756 140.9107252
  72.9179992  62.4549978 145.7630014  73.1969992  61.5479978 145.8870014
  73.6769992  62.8889978 145.3740014  73.0588619  62.3894502 145.7273795
  73.5309992  59.7179978 145.8110014  73.7129992  59.2689978 146.6370014
  72.9309992  59.1339978 145.3480014  73.4747529  59.5776131 145.8613619
  75.3979992  59.7859978 142.3390014  75.8099992  59.0649978 141.8640014
  76.0789992  60.4549978 142.3980014  75.5465900  59.7777306 142.2819038
  57.6789992  59.7909978 145.4660014  56.7539992  59.9989978 145.3370014
  58.1329992  60.2749978 144.7770014  57.6136374  59.8849949 145.3550957
  72.4489992  74.7749978 147.4120014  73.1019992  74.4269978 146.8040014
  72.9599992  75.2629978 148.0580014  72.6072777  74.7933815 147.4162047
  58.9549992  57.8339978 143.4450014  59.3939992  58.4449978 142.8530014
  58.3209992  58.3719978 143.9190014  58.9293859  57.9904064 143.4280305
  64.6979992  57.9619978 147.4550014  65.5719992  58.3509978 147.4250014
  64.5619992  57.7469978 148.3770014  64.7993207  57.9861923 147.5756509
  71.6079992  58.0179978 144.7960014  70.9049992  58.6329978 144.5870014
  71.1629992  57.1809978 144.9280014  71.4516292  57.9890085 144.7852439
  58.8559992  73.7819978 144.3430014  58.1709992  73.7439978 143.6750014
  58.8599992  74.6949978 144.6310014  58.7628174  73.9001998 144.2905310
  60.8159992  59.7499978 141.8870014  61.3069992  59.1199978 141.3600014
  61.4389992  60.0459978 142.5510014  60.9675062  59.7036770 141.9045438
  65.8419992  60.0429978 144.3450014  66.0199992  59.3959978 145.0270014
  65.7879992  60.8769978 144.8120014  65.8591025  60.0670504 144.5016433
  67.7199992  74.9909978 142.7400014  68.5859992  75.3579978 142.5620014
  67.4739992  74.5519978 141.9260014  67.8052097  74.9818525 142.6056019
  74.4289992  74.5539978 145.4190014  74.2349992  73.8059978 144.8540014
  74.3899992  75.3119978 144.8360014  74.3971645  74.5540786 145.2628148
  60.6739992  74.7019978 141.3680014  60.4059992  74.9879978 142.2410014
  61.4449992  74.1559978 141.5200014  60.7415600  74.6673330 141.5081499
  88.0529992  67.1919978 147.6000014  88.1419992  68.1359978 147.4680014
  87.4149992  66.9169978 146.9420014  87.9789062  67.2839812 147.4929641
  76.8879992  64.1709978 146.5400014  76.4399992  65.0169978 146.5210014
  76.3269992  63.5919978 146.0240014  76.7509603  64.2083674 146.4676720
  89.3929992  61.5059978 147.4260014  90.0399992  61.1769978 148.0510014
  89.9029992  62.0229978 146.8030014  89.5504317  61.5309227 147.4272167
  87.8499992  69.7929978 146.6430014  87.5549992  69.4699978 145.7920014
  87.5259992  70.6929978 146.6840014  87.7657983  69.8704026 146.5319771
  77.5789992  69.6039978 144.9560014  77.3069992  69.8329978 144.0670014
  77.6239992  70.4409978 145.4160014  77.5478709  69.7486058 144.8966107
  90.6159992  70.9069978 146.8020014  90.3579992  70.2169978 146.1910014
  90.6869992  70.4639978 147.6480014  90.5902837  70.7527106 146.8326912
  86.7739992  66.4359978 145.0520014  86.0629992  66.9709978 144.7000014
  87.4649992  66.4909978 144.3920014  86.7700751  66.5166777 144.9145858
  86.8279992  64.8929978 142.0910014  87.5289992  64.9159978 142.7420014
  87.1299992  64.2649978 141.4350014  86.9648282  64.8112339 142.0914496
  90.1799992  66.6449978 146.0040014  89.4479992  66.8739978 146.5770014
  90.6269992  65.9319978 146.4590014  90.1402753  66.5798972 146.1439715
  89.0509992  65.8079978 143.6890014  89.6299992  65.9579978 144.4360014
  89.4649992  66.2779978 142.9660014  89.1863122  65.8921277 143.6935042
  86.7769992  72.5439978 147.1240014  87.2509992  72.8399978 147.9020014
  86.2139992  73.2829978 146.8910014  86.7657361  72.6842721 147.1988611
  92.7499992  57.5579978 143.5020014  91.8499992  57.6969978 143.7970014
  93.0019992  58.3889978 143.1000014  92.6608683  57.6894055 143.4880232
  80.8159992  66.3449978 145.4760014  80.5239992  67.1129978 144.9850014
  80.1409992  65.6859978 145.3130014  80.6848497  66.3609745 145.3868260
  93.9389992  71.9239978 141.8780014  94.0119992  72.8629978 142.0490014
  94.8439992  71.6189978 141.8220014  94.0714158  72.0113061 141.8938392
  86.2499992  75.5009978 145.5390014  86.1739992  75.3799978 144.5930014
  86.2819992  76.4499978 145.6580014  86.2439156  75.6127530 145.4255048
  79.9029992  74.2899978 147.3200014  80.0549992  73.9419978 148.1990014
  79.0519992  73.9329978 147.0650014  79.8087899  74.1941738 147.4057340
  89.3509992  74.6549978 142.5410014  89.7259992  73.9109978 142.0710014
  89.3559992  74.3849978 143.4600014  89.4030024  74.5166950 142.6007987
  89.0199992  74.5809978 145.2910014  88.0849992  74.6809978 145.4690014
  89.2999992  73.8709978 145.8690014  88.9298173  74.4987239 145.3934998
  90.5279992  66.8399978 141.3190014  90.5699992  66.6179978 140.3890014
  91.3769992  67.2389978 141.5090014  90.6485253  66.8635498 141.2173822
  86.1009992  60.7159978 141.9890014  85.8469992  60.7349978 142.9120014
  85.8439992  59.8449978 141.6880014  86.0315133  60.6008110 142.0745082
  81.8639992  63.6879978 147.3360014  80.9719992  63.3479978 147.2780014
  82.3149992  63.3109978 146.5810014  81.8026815  63.5903762 147.2259203
  87.3999992  64.1039978 146.1530014  86.9909992  64.9189978 145.8620014
  88.1199992  63.9639978 145.5390014  87.4414013  64.1966571 146.0300875
  82.9829992  61.1619978 141.0900014  82.5519992  60.7169978 141.8200014
  82.2649992  61.5329978 140.5780014  82.8269363  61.1512968 141.1206211
  77.4999992  61.6499978 143.5660014  77.9739992  62.2409978 142.9810014
  76.7819992  62.1799978 143.9130014  77.4678640  61.8025511 143.5327969
  79.2739992  62.7449978 147.2490014  78.3849992  62.8439978 146.9090014
  79.5709992  61.9029978 146.9030014  79.1924177  62.6447687 147.1556940
  82.9269992  62.7449978 144.9060014  83.8589992  62.8739978 145.0840014
  82.7119992  63.4139978 144.2560014  83.0254472  62.8530806 144.8424891
  81.6009992  63.9389978 142.4730014  81.0589992  63.5599978 141.7810014
  82.4349992  64.1339978 142.0440014  81.6395159  63.9135076 142.3204419
  80.7679992  60.0399978 146.7280014  80.4509992  59.1369978 146.6930014
  81.5489992  60.0419978 146.1750014  80.8302307  59.9166951 146.6484314
  84.9369992  68.5049978 144.4080014  84.1919992  67.9969978 144.0860014
  84.8019992  68.5539978 145.3550014  84.8169047  68.4421596 144.4918845
  88.8339992  61.3189978 142.6080014  87.8959992  61.4299978 142.4560014
  89.1319992  62.1749978 142.9140014  88.7456402  61.4500621 142.6285571
  89.5529992  63.1859978 144.2680014  90.4449992  63.0479978 144.5870014
  89.6089992  63.9769978 143.7320014  89.6827107  63.2740526 144.2392091
  87.0619992  69.9629978 143.4340014  86.7669992  70.7899978 143.8150014
  86.3589992  69.3439978 143.6300014  86.9265471  69.9925227 143.5126698
  94.4379992  63.3949978 143.9630014  93.8829992  62.9989978 143.2910014
  94.5379992  64.3059978 143.6850014  94.3755888  63.4638990 143.8335206
  92.7329992  72.1809978 144.4280014  92.3599992  71.3559978 144.7370014
  93.0099992  71.9979978 143.5310014  92.7193871  72.0432441 144.3489677
  82.4359992  71.3179978 147.5820014  82.9639992  72.0909978 147.3820014
  81.5559992  71.5419978 147.2810014  82.3893176  71.4543161 147.5138409
  78.1909992  66.1799978 142.1700014  78.8069992  66.8069978 142.5490014
  77.3289992  66.4959978 142.4410014  78.1588195  66.3085798 142.2585386
  83.8639992  68.9809978 147.1590014  83.6229992  69.9059978 147.2000014
  83.1229992  68.5219978 147.5550014  83.7308390  69.0456403 147.2181404
  82.5469992  74.0019978 146.7040014  81.5969992  74.1079978 146.7550014
  82.8989992  74.8229978 147.0490014  82.4645480  74.1274438 146.7575999
  90.1249992  70.1579978 142.2480014  90.4789992  69.7779978 143.0530014
  89.1769992  70.0639978 142.3350014  90.0451820  70.0933092 142.3698714
  94.6289992  74.6369978 142.4490014  95.3729992  75.2229978 142.3090014
  93.9349992  75.2059978 142.7830014  94.6370201  74.7940603 142.4749772
  90.9909992  68.8299978 144.4750014  90.7139992  68.1019978 145.0310014
  91.9189992  68.9489978 144.6800014  91.0784499  68.7464213 144.5788044
  84.2159992  71.2699978 140.6950014  84.4549992  70.5209978 140.1480014
  83.9469992  70.8819978 141.5280014  84.2123233  71.1151853 140.7327809
  83.1529992  70.8399978 143.1520014  83.2999992  70.3199978 143.9420014
  83.1499992  71.7469978 143.4580014  83.1727300  70.8913964 143.3015895
  79.6059992  68.0919978 143.6620014  78.9199992  68.4449978 144.2290014
  80.1289992  68.8549978 143.4160014  79.5829033  68.2433746 143.7062661
  88.2219992  60.4069978 145.0380014  88.4419992  60.8779978 144.2350014
  88.7809992  60.8009978 145.7080014  88.3276730  60.5247432 145.0185906
  85.8909992  72.5369978 143.9010014  85.0739992  73.0339978 143.9530014
  86.4199992  73.0129978 143.2610014  85.8508508  72.6692543 143.8216035
  85.4219992  62.1349978 145.8730014  86.2339992  62.6389978 145.9190014
  85.1779992  61.9899978 146.7870014  85.5001467  62.1843749 146.0028575
  86.3059992  59.2159978 146.8110014  85.9589992  59.8329978 147.4560014
  86.9649992  59.7169978 146.3300014  86.3475949  59.3681099 146.8342271
  83.2289992  73.5809978 143.8830014  83.3899992  74.3809978 143.3820014
  83.0319992  73.8879978 144.7680014  83.2243919  73.7319129 143.9341006
  81.9639992  60.2789978 143.4980014  81.8799992  61.1669978 143.8450014
  82.8539992  60.0139978 143.7300014  82.0728163  60.3647179 143.5768596
  80.2219992  70.7059978 142.5590014  80.8139992  71.4059978 142.8350014
  80.6809992  70.2729978 141.8390014  80.3650791  70.7432908 142.4994607
  78.5379992  63.3709978 141.6750014  78.4929992  64.3099978 141.8530014
  77.6499992  63.1349978 141.4050014  78.4118555  63.4676874 141.6628939
  78.2769992  72.0929978 146.5080014  77.4439992  72.5649978 146.5360014
  78.8219992  72.6029978 145.9100014  78.2367590  72.2265897 146.4309194
  86.2539992  73.1329978 140.8340014  85.6099992  72.5019978 141.1550014
  87.0159992  72.6019978 140.6020014  86.2688058  72.9747902 140.8466038
  90.8589992  72.9499978 141.0680014  91.1419992  72.1549978 141.5200014
  91.5979992  73.1829978 140.5070014  90.9976956  72.8727031 141.0539822
  81.8129992  68.8589978 140.9250014  81.8779992  68.0649978 141.4560014
  82.4659992  68.7409978 140.2350014  81.9101754  68.7343337 140.9044259
  87.1659992  69.9059978 140.6610014  86.8969992  70.0869978 141.5620014
  86.9589992  68.9809978 140.5300014  87.1012000  69.8056774 140.7665693
  82.9629992  66.8319978 143.2310014  82.5029992  66.3479978 143.9170014
  83.2179992  66.1629978 142.5950014  82.9345038  66.6753689 143.2389447
  84.0339992  65.0749978 141.4930014  83.8529992  64.9199978 140.5660014
  84.9839992  65.1829978 141.5380014  84.1376566  65.0683669 141.3720929
  93.4239992  67.4289978 140.9390014  93.1499992  67.0049978 140.1260014
  93.4629992  68.3609978 140.7220014  93.3917716  67.4968827 140.7984286
  83.9309992  75.7649978 142.4950014  84.8639992  75.9229978 142.6380014
  83.6669992  76.4409978 141.8700014  84.0229308  75.8779104 142.4301396
  77.4989992  70.4019978 141.9770014  78.4129992  70.4809978 142.2510014
  77.5069992  69.7149978 141.3110014  77.6251143  70.3199085 141.9244274
  76.1479992  75.7949978 147.0550014  75.5009992  75.3329978 146.5220014
  76.5029992  75.1229978 147.6370014  76.1074506  75.6409503 147.0607341
  93.8819992  68.2979978 144.9140014  94.7319992  68.7189978 145.0410014
  93.8869992  67.5579978 145.5210014  93.9991143  68.2556094 145.0134750
  94.2759992  66.3519978 146.7380014  93.5499992  65.8719978 147.1350014
  94.8579992  66.5569978 147.4700014  94.2551635  66.3139166 146.8913748
  94.5449992  66.2529978 143.1290014  94.0229992  66.6089978 142.4100014
  94.5119992  66.9279978 143.8070014  94.4690699  66.3929848 143.1222129
  92.8939992  63.4919978 141.6800014  92.9899992  64.1589978 141.0000014
  92.7539992  62.6769978 141.1980014  92.8882063  63.4730667 141.5218377
  92.0629992  64.8729978 147.3010014  91.9129992  63.9279978 147.2800014
  91.7089992  65.1539978 148.1440014  91.9945527  64.7815605 147.4121859
  92.1409992  60.8999978 140.7970014  92.7519992  60.5289978 141.4340014
  91.3039992  60.4789978 140.9930014  92.1114947  60.7922756 140.9107252
  91.7739992  62.4549978 145.7630014  92.0529992  61.5479978 145.8870014
  92.5329992  62.8889978 145.3740014  91.9148619  62.3894502 145.7273795
  92.3869992  59.7179978 145.8110014  92.5689992  59.2689978 146.6370014
  91.7869992  59.1339978 145.3480014  92.3307529  59.5776131 145.8613619
  94.2539992  59.7859978 142.3390014  94.6659992  59.0649978 141.8640014
  94.9349992  60.4549978 142.3980014  94.4025900  59.7777306 142.2819038
  76.5349992  59.7909978 145.4660014  75.6099992  59.9989978 145.3370014
  76.9889992  60.2749978 144.7770014  76.4696374  59.8849949 145.3550957
  91.3049992  74.7749978 147.4120014  91.9579992  74.4269978 146.8040014
  91.8159992  75.2629978 148.0580014  91.4632777  74.7933815 147.4162047
  77.8109992  57.8339978 143.4450014  78.2499992  58.4449978 142.8530014
  77.1769992  58.3719978 143.9190014  77.7853859  57.9904064 143.4280305
  83.5539992  57.9619978 147.4550014  84.4279992  58.3509978 147.4250014
  83.4179992  57.7469978 148.3770014  83.6553207  57.9861923 147.5756509
  90.4639992  58.0179978 144.7960014  89.7609992  58.6329978 144.5870014
  90.0189992  57.1809978 144.9280014  90.3076292  57.9890085 144.7852439
  77.7119992  73.7819978 144.3430014  77.0269992  73.7439978 143.6750014
  77.7159992  74.6949978 144.6310014  77.6188174  73.9001998 144.2905310
  79.6719992  59.7499978 141.8870014  80.1629992  59.1199978 141.3600014
  80.2949992  60.0459978 142.5510014  79.8235062  59.7036770 141.9045438
  84.6979992  60.0429978 144.3450014  84.8759992  59.3959978 145.0270014
  84.6439992  60.8769978 144.8120014  84.7151025  60.0670504 144.5016433
  86.5759992  74.9909978 142.7400014  87.4419992  75.3579978 142.5620014
  86.3299992  74.5519978 141.9260014  86.6612097  74.9818525 142.6056019
  93.2849992  74.5539978 145.4190014  93.0909992  73.8059978 144.8540014
  93.2459992  75.3119978 144.8360014  93.2531645  74.5540786 145.2628148
  79.5299992  74.7019978 141.3680014  79.2619992  74.9879978 142.2410014
  80.3009992  74.1559978 141.5200014  79.5975600  74.6673330 141.5081499
 106.9089992  67.1919978 147.6000014 106.9979992  68.1359978 147.4680014
 106.2709992  66.9169978 146.9420014 106.8349062  67.2839812 147.4929641
  95.7439992  64.1709978 146.5400014  95.2959992  65.0169978 146.5210014
  95.1829992  63.5919978 146.0240014  95.6069603  64.2083674 146.4676720
 108.2489992  61.5059978 147.4260014 108.8959992  61.1769978 148.0510014
 108.7589992  62.0229978 146.8030014 108.4064317  61.5309227 147.4272167
 106.7059992  69.7929978 146.6430014 106.4109992  69.4699978 145.7920014
 106.3819992  70.6929978 146.6840014 106.6217983  69.8704027 146.5319771
  96.4349992  69.6039978 144.9560014  96.1629992  69.8329978 144.0670014
  96.4799992  70.4409978 145.4160014  96.4038709  69.7486058 144.8966107
 109.4719992  70.9069978 146.8020014 109.2139992  70.2169978 146.1910014
 109.5429992  70.4639978 147.6480014 109.4462837  70.7527106 146.8326912
 105.6299992  66.4359978 145.0520014 104.9189992  66.9709978 144.7000014
 106.3209992  66.4909978 144.3920014 105.6260751  66.5166777 144.9145858
 105.6839992  64.8929978 142.0910014 106.3849992  64.9159978 142.7420014
 105.9859992  64.2649978 141.4350014 105.8208282  64.8112339 142.0914496
 109.0359992  66.6449978 146.0040014 108.3039992  66.8739978 146.5770014
 109.4829992  65.9319978 146.4590014 108.9962753  66.5798972 146.1439715
 107.9069992  65.8079978 143.6890014 108.4859992  65.9579978 144.4360014
 108.3209992  66.2779978 142.9660014 108.0423122  65.8921277 143.6935042
 105.6329992  72.5439978 147.1240014 106.1069992  72.8399978 147.9020014
 105.0699992  73.2829978 146.8910014 105.6217361  72.6842721 147.1988611
 111.6059992  57.5579978 143.5020014 110.7059992  57.6969978 143.7970014
 111.8579992  58.3889978 143.1000014 111.5168683  57.6894055 143.4880232
  99.6719992  66.3449978 145.4760014  99.3799992  67.1129978 144.9850014
  98.9969992  65.6859978 145.3130014  99.5408497  66.3609745 145.3868260
 112.7949992  71.9239978 141.8780014 112.8679992  72.8629978 142.0490014
 113.6999992  71.6189978 141.8220014 112.9274158  72.0113061 141.8938392
 105.1059992  75.5009978 145.5390014 105.0299992  75.3799978 144.5930014
 105.1379992  76.4499978 145.6580014 105.0999156  75.6127530 145.4255048
  98.7589992  74.2899978 147.3200014  98.9109992  73.9419978 148.1990014
  97.9079992  73.9329978 147.0650014  98.6647899  74.1941738 147.4057340
 108.2069992  74.6549978 142.5410014 108.5819992  73.9109978 142.0710014
 108.2119992  74.3849978 143.4600014 108.2590024  74.5166950 142.6007987
 107.8759992  74.5809978 145.2910014 106.9409992  74.6809978 145.4690014
 108.1559992  73.8709978 145.8690014 107.7858173  74.4987239 145.3934998
 109.3839992  66.8399978 141.3190014 109.4259992  66.6179978 140.3890014
 110.2329992  67.2389978 141.5090014 109.5045253  66.8635498 141.2173822
 104.9569992  60.7159978 141.9890014 104.7029992  60.7349978 142.9120014
 104.6999992  59.8449978 141.6880014 104.8875133  60.6008110 142.0745082
 100.7199992  63.6879978 147.3360014  99.8279992  63.3479978 147.2780014
 101.1709992  63.3109978 146.5810014 100.6586815  63.5903762 147.2259203
 106.2559992  64.1039978 146.1530014 105.8469992  64.9189978 145.8620014
 106.9759992  63.9639978 145.5390014 106.2974013  64.1966571 146.0300875
 101.8389992  61.1619978 141.0900014 101.4079992  60.7169978 141.8200014
 101.1209992  61.5329978 140.5780014 101.6829363  61.1512968 141.1206211
  96.3559992  61.6499978 143.5660014  96.8299992  62.2409978 142.9810014
  95.6379992  62.1799978 143.9130014  96.3238640  61.8025511 143.5327969
  98.1299992  62.7449978 147.2490014  97.2409992  62.8439978 146.9090014
  98.4269992  61.9029978 146.9030014  98.0484177  62.6447687 147.1556940
 101.7829992  62.7449978 144.9060014 102.7149992  62.8739978 145.0840014
 101.5679992  63.4139978 144.2560014 101.8814472  62.8530806 144.8424891
 100.4569992  63.9389978 142.4730014  99.9149992  63.5599978 141.7810014
 101.2909992  64.1339978 142.0440014 100.4955159  63.9135076 142.3204419
  99.6239992  60.0399978 146.7280014  99.3069992  59.1369978 146.6930014
 100.4049992  60.0419978 146.1750014  99.6862307  59.9166951 146.6484314
 103.7929992  68.5049978 144.4080014 103.0479992  67.9969978 144.0860014
 103.6579992  68.5539978 145.3550014 103.6729047  68.4421596 144.4918845
 107.6899992  61.3189978 142.6080014 106.7519992  61.4299978 142.4560014
 107.9879992  62.1749978 142.9140014 107.6016402  61.4500621 142.6285571
 108.4089992  63.1859978 144.2680014 109.3009992  63.0479978 144.5870014
 108.4649992  63.9769978 143.7320014 108.5387107  63.2740526 144.2392091
 105.9179992  69.9629978 143.4340014 105.6229992  70.7899978 143.8150014
 105.2149992  69.3439978 143.6300014 105.7825471  69.9925227 143.5126698
 113.2939992  63.3949978 143.9630014 112.7389992  62.9989978 143.2910014
 113.3939992  64.3059978 143.6850014 113.2315888  63.4638990 143.8335206
 111.5889992  72.1809978 144.4280014 111.2159992  71.3559978 144.7370014
 111.8659992  71.9979978 143.5310014 111.5753871  72.0432441 144.3489677
 101.2919992  71.3179978 147.5820014 101.8199992  72.0909978 147.3820014
 100.4119992  71.5419978 147.2810014 101.2453176  71.4543161 147.5138409
  97.0469992  66.1799978 142.1700014  97.6629992  66.8069978 142.5490014
  96.1849992  66.4959978 142.4410014  97.0148195  66.3085798 142.2585386
 102.7199992  68.9809978 147.1590014 102.4789992  69.9059978 147.2000014
 101.9789992  68.5219978 147.5550014 102.5868390  69.0456403 147.2181404
 101.4029992  74.0019978 146.7040014 100.4529992  74.1079978 146.7550014
 101.7549992  74.8229978 147.0490014 101.3205480  74.1274438 146.7575999
 108.9809992  70.1579978 142.2480014 109.3349992  69.7779978 143.0530014
 108.0329992  70.0639978 142.3350014 108.9011820  70.0933092 142.3698714
 113.4849992  74.6369978 142.4490014 114.2289992  75.2229978 142.3090014
 112.7909992  75.2059978 142.7830014 113.4930201  74.7940603 142.4749772
 109.8469992  68.8299978 144.4750014 109.5699992  68.1019978 145.0310014
 110.7749992  68.9489978 144.6800014 109.9344499  68.7464213 144.5788044
 103.0719992  71.2699978 140.6950014 103.3109992  70.5209978 140.1480014
 102.8029992  70.8819978 141.5280014 103.0683233  71.1151853 140.7327809
 102.0089992  70.8399978 143.1520014 102.1559992  70.3199978 143.9420014
 102.0059992  71.7469978 143.4580014 102.0287300  70.8913964 143.3015895
  98.4619992  68.0919978 143.6620014  97.7759992  68.4449978 144.2290014
  98.9849992  68.8549978 143.4160014  98.4389033  68.2433746 143.7062661
 107.0779992  60.4069978 145.0380014 107.2979992  60.8779978 144.2350014
 107.6369992  60.8009978 145.7080014 107.1836730  60.5247432 145.0185906
 104.7469992  72.5369978 143.9010014 103.9299992  73.0339978 143.9530014
 105.2759992  73.0129978 143.2610014 104.7068508  72.6692543 143.8216035
 104.2779992  62.1349978 145.8730014 105.0899992  62.6389978 145.9190014
 104.0339992  61.9899978 146.7870014 104.3561467  62.1843749 146.0028575
 105.1619992  59.2159978 146.8110014 104.8149992  59.8329978 147.4560014
 105.8209992  59.7169978 146.3300014 105.2035949  59.3681099 146.8342271
 102.0849992  73.5809978 143.8830014 102.2459992  74.3809978 143.3820014
 101.8879992  73.8879978 144.7680014 102.0803919  73.7319129 143.9341006
 100.8199992  60.2789978 143.4980014 100.7359992  61.1669978 143.8450014
 101.7099992  60.0139978 143.7300014 100.9288163  60.3647179 143.5768596
  99.0779992  70.7059978 142.5590014  99.6699992  71.4059978 142.8350014
  99.5369992  70.2729978 141.8390014  99.2210791  70.7432908 142.4994607
  97.3939992  63.3709978 141.6750014  97.3489992  64.3099978 141.8530014
  96.5059992  63.1349978 141.4050014  97.2678555  63.4676874 141.6628939
  97.1329992  72.0929978 146.5080014  96.2999992  72.5649978 146.5360014
  97.6779992  72.6029978 145.9100014  97.0927590  72.2265897 146.4309194
 105.1099992  73.1329978 140.8340014 104.4659992  72.5019978 141.1550014
 105.8719992  72.6019978 140.6020014 105.1248058  72.9747902 140.8466038
 109.7149992  72.9499978 141.0680014 109.9979992  72.1549978 141.5200014
 110.4539992  73.1829978 140.5070014 109.8536956  72.8727031 141.0539822
 100.6689992  68.8589978 140.9250014 100.7339992  68.0649978 141.4560014
 101.3219992  68.7409978 140.2350014 100.7661754  68.7343337 140.9044259
 106.0219992  69.9059978 140.6610014 105.7529992  70.0869978 141.5620014
 105.8149992  68.9809978 140.5300014 105.9572000  69.8056774 140.7665693
 101.8189992  66.8319978 143.2310014 101.3589992  66.3479978 143.9170014
 102.0739992  66.1629978 142.5950014 101.7905038  66.6753689 143.2389447
 102.8899992  65.0749978 141.4930014 102.7089992  64.9199978 140.5660014
 103.8399992  65.1829978 141.5380014 102.9936566  65.0683669 141.3720929
 112.2799992  67.4289978 140.9390014 112.0059992  67.0049978 140.1260014
 112.3189992  68.3609978 140.7220014 112.2477716  67.4968827 140.7984286
 102.7869992  75.7649978 142.4950014 103.7199992  75.9229978 142.6380014
 102.5229992  76.4409978 141.8700014 102.8789308  75.8779104 142.4301396
  96.3549992  70.4019978 141.9770014  97.2689992  70.4809978 142.2510014
  96.3629992  69.7149978 141.3110014  96.4811143  70.3199085 141.9244274
  95.0039992  75.7949978 147.0550014  94.3569992  75.3329978 146.5220014
  95.3589992  75.1229978 147.6370014  94.9634506  75.6409503 147.0607341
 112.7379992  68.2979978 144.9140014 113.5879992  68.7189978 145.0410014
 112.7429992  67.5579978 145.5210014 112.8551143  68.2556094 145.0134750
 113.1319992  66.3519978 146.7380014 112.4059992  65.8719978 147.1350014
 113.7139992  66.5569978 147.4700014 113.1111635  66.3139166 146.8913748
 113.4009992  66.2529978 143.1290014 112.8789992  66.6089978 142.4100014
 113.3679992  66.9279978 143.8070014 113.3250699  66.3929848 143.1222129
 111.7499992  63.4919978 141.6800014 111.8459992  64.1589978 141.0000014
 111.6099992  62.6769978 141.1980014 111.7442063  63.4730667 141.5218377
 110.9189992  64.8729978 147.3010014 110.7689992  63.9279978 147.2800014
 110.5649992  65.1539978 148.1440014 110.8505527  64.7815605 147.4121859
 110.9969992  60.8999978 140.7970014 111.6079992  60.5289978 141.4340014
 110.1599992  60.4789978 140.9930014 110.9674947  60.7922756 140.9107252
 110.6299992  62.4549978 145.7630014 110.9089992  61.5479978 145.8870014
 111.3889992  62.8889978 145.3740014 110.7708619  62.3894502 145.7273795
 111.2429992  59.7179978 145.8110014 111.4249992  59.2689978 146.6370014
 110.6429992  59.1339978 145.3480014 111.1867529  59.5776131 145.8613619
 113.1099992  59.7859978 142.3390014 113.5219992  59.0649978 141.8640014
 113.7909992  60.4549978 142.3980014 113.2585900  59.7777306 142.2819038
  95.3909992  59.7909978 145.4660014  94.4659992  59.9989978 145.3370014
  95.8449992  60.2749978 144.7770014  95.3256374  59.8849949 145.3550957
 110.1609992  74.7749978 147.4120014 110.8139992  74.4269978 146.8040014
 110.6719992  75.2629978 148.0580014 110.3192777  74.7933815 147.4162047
  96.6669992  57.8339978 143.4450014  97.1059992  58.4449978 142.8530014
  96.0329992  58.3719978 143.9190014  96.6413859  57.9904064 143.4280305
 102.4099992  57.9619978 147.4550014 103.2839992  58.3509978 147.4250014
 102.2739992  57.7469978 148.3770014 102.5113207  57.9861923 147.5756509
 109.3199992  58.0179978 144.7960014 108.6169992  58.6329978 144.5870014
 108.8749992  57.1809978 144.9280014 109.1636292  57.9890085 144.7852439
  96.5679992  73.7819978 144.3430014  95.8829992  73.7439978 143.6750014
  96.5719992  74.6949978 144.6310014  96.4748174  73.9001998 144.2905310
  98.5279992  59.7499978 141.8870014  99.0189992  59.1199978 141.3600014
  99.1509992  60.0459978 142.5510014  98.6795062  59.7036770 141.9045438
 103.5539992  60.0429978 144.3450014 103.7319992  59.3959978 145.0270014
 103.4999992  60.8769978 144.8120014 103.5711025  60.0670504 144.5016433
 105.4319992  74.9909978 142.7400014 106.2979992  75.3579978 142.5620014
 105.1859992  74.5519978 141.9260014 105.5172097  74.9818525 142.6056019
 112.1409992  74.5539978 145.4190014 111.9469992  73.8059978 144.8540014
 112.1019992  75.3119978 144.8360014 112.1091645  74.5540786 145.2628148
  98.3859992  74.7019978 141.3680014  98.1179992  74.9879978 142.2410014
  99.1569992  74.1559978 141.5200014  98.4535600  74.6673330 141.5081499
 125.7649992  67.1919978 147.6000014 125.8539992  68.1359978 147.4680014
 125.1269992  66.9169978 146.9420014 125.6909062  67.2839812 147.4929641
 114.5999992  64.1709978 146.5400014 114.1519992  65.0169978 146.5210014
 114.0389992  63.5919978 146.0240014 114.4629603  64.2083674 146.4676720
 127.1049992  61.5059978 147.4260014 127.7519992  61.1769978 148.0510014
 127.6149992  62.0229978 146.8030014 127.2624317  61.5309227 147.4272167
 125.5619992  69.7929978 146.6430014 125.2669992  69.4699978 145.7920014
 125.2379992  70.6929978 146.6840014 125.4777983  69.8704027 146.5319771
 115.2909992  69.6039978 144.9560014 115.0189992  69.8329978 144.0670014
 115.3359992  70.4409978 145.4160014 115.2598709  69.7486058 144.8966107
 128.3279992  70.9069978 146.8020014 128.0699992  70.2169978 146.1910014
 128.3989992  70.4639978 147.6480014 128.3022837  70.7527106 146.8326912
 124.4859992  66.4359978 145.0520014 123.7749992  66.9709978 144.7000014
 125.1769992  66.4909978 144.3920014 124.4820751  66.5166777 144.9145858
 124.5399992  64.8929978 142.0910014 125.2409992  64.9159978 142.7420014
 124.8419992  64.2649978 141.4350014 124.6768282  64.8112339 142.0914496
 127.8919992  66.6449978 146.0040014 127.1599992  66.8739978 146.5770014
 128.3389992  65.9319978 146.4590014 127.8522753  66.5798972 146.1439715
 126.7629992  65.8079978 143.6890014 127.3419992  65.9579978 144.4360014
 127.1769992  66.2779978 142.9660014 126.8983122  65.8921277 143.6935042
 124.4889992  72.5439978 147.1240014 124.9629992  72.8399978 147.9020014
 123.9259992  73.2829978 146.8910014 124.4777361  72.6842721 147.1988611
 130.4619992  57.5579978 143.5020014 129.5619992  57.6969978 143.7970014
 130.7139992  58.3889978 143.1000014 130.3728683  57.6894055 143.4880232
 118.5279992  66.3449978 145.4760014 118.2359992  67.1129978 144.9850014
 117.8529992  65.6859978 145.3130014 118.3968497  66.3609745 145.3868260
 131.6509992  71.9239978 141.8780014 131.7239992  72.8629978 142.0490014
 132.5559992  71.6189978 141.8220014 131.7834158  72.0113061 141.8938392
 123.9619992  75.5009978 145.5390014 123.8859992  75.3799978 144.5930014
 123.9939992  76.4499978 145.6580014 123.9559156  75.6127530 145.4255048
 117.6149992  74.2899978 147.3200014 117.7669992  73.9419978 148.1990014
 116.7639992  73.9329978 147.0650014 117.5207899  74.1941738 147.4057340
 127.0629992  74.6549978 142.5410014 127.4379992  73.9109978 142.0710014
 127.0679992  74.3849978 143.4600014 127.1150024  74.5166950 142.6007987
 126.7319992  74.5809978 145.2910014 125.7969992  74.6809978 145.4690014
 127.0119992  73.8709978 145.8690014 126.6418173  74.4987239 145.3934998
 128.2399992  66.8399978 141.3190014 128.2819992  66.6179978 140.3890014
 129.0889992  67.2389978 141.5090014 128.3605253  66.8635498 141.2173822
 123.8129992  60.7159978 141.9890014 123.5589992  60.7349978 142.9120014
 123.5559992  59.8449978 141.6880014 123.7435133  60.6008110 142.0745082
 119.5759992  63.6879978 147.3360014 118.6839992  63.3479978 147.2780014
 120.0269992  63.3109978 146.5810014 119.5146815  63.5903762 147.2259203
 125.1119992  64.1039978 146.1530014 124.7029992  64.9189978 145.8620014
 125.8319992  63.9639978 145.5390014 125.1534013  64.1966571 146.0300875
 120.6949992  61.1619978 141.0900014 120.2639992  60.7169978 141.8200014
 119.9769992  61.5329978 140.5780014 120.5389363  61.1512968 141.1206211
 115.2119992  61.6499978 143.5660014 115.6859992  62.2409978 142.9810014
 114.4939992  62.1799978 143.9130014 115.1798640  61.8025511 143.5327969
 116.9859992  62.7449978 147.2490014 116.0969992  62.8439978 146.9090014
 117.2829992  61.9029978 146.9030014 116.9044177  62.6447687 147.1556940
 120.6389992  62.7449978 144.9060014 121.5709992  62.8739978 145.0840014
 120.4239992  63.4139978 144.2560014 120.7374472  62.8530806 144.8424891
 119.3129992  63.9389978 142.4730014 118.7709992  63.5599978 141.7810014
 120.1469992  64.1339978 142.0440014 119.3515159  63.9135076 142.3204419
 118.4799992  60.0399978 146.7280014 118.1629992  59.1369978 146.6930014
 119.2609992  60.0419978 146.1750014 118.5422307  59.9166951 146.6484314
 122.6489992  68.5049978 144.4080014 121.9039992  67.9969978 144.0860014
 122.5139992  68.5539978 145.3550014 122.5289047  68.4421596 144.4918845
 126.5459992  61.3189978 142.6080014 125.6079992  61.4299978 142.4560014
 126.8439992  62.1749978 142.9140014 126.4576402  61.4500621 142.6285571
 127.2649992  63.1859978 144.2680014 128.1569992  63.0479978 144.5870014
 127.3209992  63.9769978 143.7320014 127.3947107  63.2740526 144.2392091
 124.7739992  69.9629978 143.4340014 124.4789992  70.7899978 143.8150014
 124.0709992  69.3439978 143.6300014 124.6385471  69.9925227 143.5126698
 132.1499992  63.3949978 143.9630014 131.5949992  62.9989978 143.2910014
 132.2499992  64.3059978 143.6850014 132.0875888  63.4638990 143.8335206
 130.4449992  72.1809978 144.4280014 130.0719992  71.3559978 144.7370014
 130.7219992  71.9979978 143.5310014 130.4313871  72.0432441 144.3489677
 120.1479992  71.3179978 147.5820014 120.6759992  72.0909978 147.3820014
 119.2679992  71.5419978 147.2810014 120.1013176  71.4543161 147.5138409
 115.9029992  66.1799978 142.1700014 116.5189992  66.8069978 142.5490014
 115.0409992  66.4959978 142.4410014 115.8708195  66.3085798 142.2585386
 121.5759992  68.9809978 147.1590014 121.3349992  69.9059978 147.2000014
 120.8349992  68.5219978 147.5550014 121.4428390  69.0456403 147.2181404
 120.2589992  74.0019978 146.7040014 119.3089992  74.1079978 146.7550014
 120.6109992  74.8229978 147.0490014 120.1765480  74.1274438 146.7575999
 127.8369992  70.1579978 142.2480014 128.1909992  69.7779978 143.0530014
 126.8889992  70.0639978 142.3350014 127.7571820  70.0933092 142.3698714
 132.3409992  74.6369978 142.4490014 133.0849992  75.2229978 142.3090014
 131.6469992  75.2059978 142.7830014 132.3490201  74.7940603 142.4749772
 128.7029992  68.8299978 144.4750014 128.4259992  68.1019978 145.0310014
 129.6309992  68.9489978 144.6800014 128.7904499  68.7464213 144.5788044
 121.9279992  71.2699978 140.6950014 122.1669992  70.5209978 140.1480014
 121.6589992  70.8819978 141.5280014 121.9243233  71.1151853 140.7327809
 120.8649992  70.8399978 143.1520014 121.0119992  70.3199978 143.9420014
 120.8619992  71.7469978 143.4580014 120.8847300  70.8913964 143.3015895
 117.3179992  68.0919978 143.6620014 116.6319992  68.4449978 144.2290014
 117.8409992  68.8549978 143.4160014 117.2949033  68.2433746 143.7062661
 125.9339992  60.4069978 145.0380014 126.1539992  60.8779978 144.2350014
 126.4929992  60.8009978 145.7080014 126.0396730  60.5247432 145.0185906
 123.6029992  72.5369978 143.9010014 122.7859992  73.0339978 143.9530014
 124.1319992  73.0129978 143.2610014 123.5628508  72.6692543 143.8216035
 123.1339992  62.1349978 145.8730014 123.9459992  62.6389978 145.9190014
 122.8899992  61.9899978 146.7870014 123.2121467  62.1843749 146.0028575
 124.0179992  59.2159978 146.8110014 123.6709992  59.8329978 147.4560014
 124.6769992  59.7169978 146.3300014 124.0595949  59.3681099 146.8342271
 120.9409992  73.5809978 143.8830014 121.1019992  74.3809978 143.3820014
 120.7439992  73.8879978 144.7680014 120.9363919  73.7319129 143.9341006
 119.6759992  60.2789978 143.4980014 119.5919992  61.1669978 143.8450014
 120.5659992  60.0139978 143.7300014 119.7848163  60.3647179 143.5768596
 117.9339992  70.7059978 142.5590014 118.5259992  71.4059978 142.8350014
 118.3929992  70.2729978 141.8390014 118.0770791  70.7432908 142.4994607
 116.2499992  63.3709978 141.6750014 116.2049992  64.3099978 141.8530014
 115.3619992  63.1349978 141.4050014 116.1238555  63.4676874 141.6628939
 115.9889992  72.0929978 146.5080014 115.1559992  72.5649978 146.5360014
 116.5339992  72.6029978 145.9100014 115.9487590  72.2265897 146.4309194
 123.9659992  73.1329978 140.8340014 123.3219992  72.5019978 141.1550014
 124.7279992  72.6019978 140.6020014 123.9808058  72.9747902 140.8466038
 128.5709992  72.9499978 141.0680014 128.8539992  72.1549978 141.5200014
 129.3099992  73.1829978 140.5070014 128.7096956  72.8727031 141.0539821
 119.5249992  68.8589978 140.9250014 119.5899992  68.0649978 141.4560014
 120.1779992  68.7409978 140.2350014 119.6221754  68.7343337 140.9044259
 124.8779992  69.9059978 140.6610014 124.6089992  70.0869978 141.5620014
 124.6709992  68.9809978 140.5300014 124.8132000  69.8056774 140.7665693
 120.6749992  66.8319978 143.2310014 120.2149992  66.3479978 143.9170014
 120.9299992  66.1629978 142.5950014 120.6465038  66.6753689 143.2389447
 121.7459992  65.0749978 141.4930014 121.5649992  64.9199978 140.5660014
 122.6959992  65.1829978 141.5380014 121.8496566  65.0683669 141.3720929
 131.1359992  67.4289978 140.9390014 130.8619992  67.0049978 140.1260014
 131.1749992  68.3609978 140.7220014 131.1037716  67.4968827 140.7984286
 121.6429992  75.7649978 142.4950014 122.5759992  75.9229978 142.6380014
 121.3789992  76.4409978 141.8700014 121.7349308  75.8779104 142.4301396
 115.2109992  70.4019978 141.9770014 116.1249992  70.4809978 142.2510014
 115.2189992  69.7149978 141.3110014 115.3371143  70.3199085 141.9244274
 113.8599992  75.7949978 147.0550014 113.2129992  75.3329978 146.5220014
 114.2149992  75.1229978 147.6370014 113.8194506  75.6409503 147.0607341
 131.5939992  68.2979978 144.9140014 132.4439992  68.7189978 145.0410014
 131.5989992  67.5579978 145.5210014 131.7111143  68.2556094 145.0134750
 131.9879992  66.3519978 146.7380014 131.2619992  65.8719978 147.1350014
 132.5699992  66.5569978 147.4700014 131.9671635  66.3139166 146.8913748
 132.2569992  66.2529978 143.1290014 131.7349992  66.6089978 142.4100014
 132.2239992  66.9279978 143.8070014 132.1810699  66.3929848 143.1222129
 130.6059992  63.4919978 141.6800014 130.7019992  64.1589978 141.0000014
 130.4659992  62.6769978 141.1980014 130.6002063  63.4730667 141.5218377
 129.7749992  64.8729978 147.3010014 129.6249992  63.9279978 147.2800014
 129.4209992  65.1539978 148.1440014 129.7065527  64.7815605 147.4121859
 129.8529992  60.8999978 140.7970014 130.4639992  60.5289978 141.4340014
 129.0159992  60.4789978 140.9930014 129.8234947  60.7922756 140.9107252
 129.4859992  62.4549978 145.7630014 129.7649992  61.5479978 145.8870014
 130.2449992  62.8889978 145.3740014 129.6268619  62.3894502 145.7273795
 130.0989992  59.7179978 145.8110014 130.2809992  59.2689978 146.6370014
 129.4989992  59.1339978 145.3480014 130.0427529  59.5776131 145.8613619
 131.9659992  59.7859978 142.3390014 132.3779992  59.0649978 141.8640014
 132.6469992  60.4549978 142.3980014 132.1145900  59.7777306 142.2819038
 114.2469992  59.7909978 145.4660014 113.3219992  59.9989978 145.3370014
 114.7009992  60.2749978 144.7770014 114.1816374  59.8849949 145.3550957
 129.0169992  74.7749978 147.4120014 129.6699992  74.4269978 146.8040014
 129.5279992  75.2629978 148.0580014 129.1752777  74.7933815 147.4162047
 115.5229992  57.8339978 143.4450014 115.9619992  58.4449978 142.8530014
 114.8889992  58.3719978 143.9190014 115.4973859  57.9904064 143.4280305
 121.2659992  57.9619978 147.4550014 122.1399992  58.3509978 147.4250014
 121.1299992  57.7469978 148.3770014 121.3673207  57.9861923 147.5756509
 128.1759992  58.0179978 144.7960014 127.4729992  58.6329978 144.5870014
 127.7309992  57.1809978 144.9280014 128.0196292  57.9890085 144.7852439
 115.4239992  73.7819978 144.3430014 114.7389992  73.7439978 143.6750014
 115.4279992  74.6949978 144.6310014 115.3308174  73.9001998 144.2905310
 117.3839992  59.7499978 141.8870014 117.8749992  59.1199978 141.3600014
 118.0069992  60.0459978 142.5510014 117.5355062  59.7036770 141.9045438
 122.4099992  60.0429978 144.3450014 122.5879992  59.3959978 145.0270014
 122.3559992  60.8769978 144.8120014 122.4271025  60.0670504 144.5016433
 124.2879992  74.9909978 142.7400014 125.1539992  75.3579978 142.5620014
 124.0419992  74.5519978 141.9260014 124.3732097  74.9818525 142.6056019
 130.9969992  74.5539978 145.4190014 130.8029992  73.8059978 144.8540014
 130.9579992  75.3119978 144.8360014 130.9651645  74.5540786 145.2628148
 117.2419992  74.7019978 141.3680014 116.9739992  74.9879978 142.2410014
 118.0129992  74.1559978 141.5200014 117.3095600  74.6673330 141.5081499
 144.6209992  67.1919978 147.6000014 144.7099992  68.1359978 147.4680014
 143.9829992  66.9169978 146.9420014 144.5469062  67.2839812 147.4929641
 133.4559992  64.1709978 146.5400014 133.0079992  65.0169978 146.5210014
 132.8949992  63.5919978 146.0240014 133.3189603  64.2083674 146.4676720
 144.4179992  69.7929978 146.6430014 144.1229992  69.4699978 145.7920014
 144.0939992  70.6929978 146.6840014 144.3337983  69.8704027 146.5319771
 134.1469992  69.6039978 144.9560014 133.8749992  69.8329978 144.0670014
 134.1919992  70.4409978 145.4160014 134.1158709  69.7486058 144.8966107
 143.3419992  66.4359978 145.0520014 142.6309992  66.9709978 144.7000014
 144.0329992  66.4909978 144.3920014 143.3380751  66.5166777 144.9145858
 143.3959992  64.8929978 142.0910014 144.0969992  64.9159978 142.7420014
 143.6979992  64.2649978 141.4350014 143.5328282  64.8112339 142.0914496
 143.3449992  72.5439978 147.1240014 143.8189992  72.8399978 147.9020014
 142.7819992  73.2829978 146.8910014 143.3337361  72.6842721 147.1988611
 137.3839992  66.3449978 145.4760014 137.0919992  67.1129978 144.9850014
 136.7089992  65.6859978 145.3130014 137.2528497  66.3609745 145.3868260
 142.8179992  75.5009978 145.5390014 142.7419992  75.3799978 144.5930014
 142.8499992  76.4499978 145.6580014 142.8119156  75.6127530 145.4255048
 136.4709992  74.2899978 147.3200014 136.6229992  73.9419978 148.1990014
 135.6199992  73.9329978 147.0650014 136.3767899  74.1941738 147.4057340
 142.6689992  60.7159978 141.9890014 142.4149992  60.7349978 142.9120014
 142.4119992  59.8449978 141.6880014 142.5995133  60.6008110 142.0745082
 138.4319992  63.6879978 147.3360014 137.5399992  63.3479978 147.2780014
 138.8829992  63.3109978 146.5810014 138.3706815  63.5903762 147.2259203
 143.9679992  64.1039978 146.1530014 143.5589992  64.9189978 145.8620014
 144.6879992  63.9639978 145.5390014 144.0094013  64.1966571 146.0300875
 139.5509992  61.1619978 141.0900014 139.1199992  60.7169978 141.8200014
 138.8329992  61.5329978 140.5780014 139.3949363  61.1512968 141.1206211
 134.0679992  61.6499978 143.5660014 134.5419992  62.2409978 142.9810014
 133.3499992  62.1799978 143.9130014 134.0358640  61.8025511 143.5327969
 135.8419992  62.7449978 147.2490014 134.9529992  62.8439978 146.9090014
 136.1389992  61.9029978 146.9030014 135.7604177  62.6447687 147.1556940
 139.4949992  62.7449978 144.9060014 140.4269992  62.8739978 145.0840014
 139.2799992  63.4139978 144.2560014 139.5934472  62.8530806 144.8424891
 138.1689992  63.9389978 142.4730014 137.6269992  63.5599978 141.7810014
 139.0029992  64.1339978 142.0440014 138.2075159  63.9135076 142.3204419
 137.3359992  60.0399978 146.7280014 137.0189992  59.1369978 146.6930014
 138.1169992  60.0419978 146.1750014 137.3982307  59.9166951 146.6484314
 141.5049992  68.5049978 144.4080014 140.7599992  67.9969978 144.0860014
 141.3699992  68.5539978 145.3550014 141.3849047  68.4421596 144.4918845
 145.4019992  61.3189978 142.6080014 144.4639992  61.4299978 142.4560014
 145.6999992  62.1749978 142.9140014 145.3136402  61.4500621 142.6285571
 143.6299992  69.9629978 143.4340014 143.3349992  70.7899978 143.8150014
 142.9269992  69.3439978 143.6300014 143.4945471  69.9925227 143.5126698
 139.0039992  71.3179978 147.5820014 139.5319992  72.0909978 147.3820014
 138.1239992  71.5419978 147.2810014 138.9573176  71.4543161 147.5138409
 134.7589992  66.1799978 142.1700014 135.3749992  66.8069978 142.5490014
 133.8969992  66.4959978 142.4410014 134.7268195  66.3085798 142.2585386
 140.4319992  68.9809978 147.1590014 140.1909992  69.9059978 147.2000014
 139.6909992  68.5219978 147.5550014 140.2988390  69.0456403 147.2181404
 139.1149992  74.0019978 146.7040014 138.1649992  74.1079978 146.7550014
 139.4669992  74.8229978 147.0490014 139.0325480  74.1274438 146.7575999
 140.7839992  71.2699978 140.6950014 141.0229992  70.5209978 140.1480014
 140.5149992  70.8819978 141.5280014 140.7803233  71.1151853 140.7327809
 139.7209992  70.8399978 143.1520014 139.8679992  70.3199978 143.9420014
 139.7179992  71.7469978 143.4580014 139.7407300  70.8913964 143.3015895
 136.1739992  68.0919978 143.6620014 135.4879992  68.4449978 144.2290014
 136.6969992  68.8549978 143.4160014 136.1509033  68.2433746 143.7062661
 144.7899992  60.4069978 145.0380014 145.0099992  60.8779978 144.2350014
 145.3489992  60.8009978 145.7080014 144.8956730  60.5247432 145.0185906
 142.4589992  72.5369978 143.9010014 141.6419992  73.0339978 143.9530014
 142.9879992  73.0129978 143.2610014 142.4188508  72.6692543 143.8216035
 141.9899992  62.1349978 145.8730014 142.8019992  62.6389978 145.9190014
 141.7459992  61.9899978 146.7870014 142.0681467  62.1843749 146.0028575
 142.8739992  59.2159978 146.8110014 142.5269992  59.8329978 147.4560014
 143.5329992  59.7169978 146.3300014 142.9155949  59.3681099 146.8342271
 139.7969992  73.5809978 143.8830014 139.9579992  74.3809978 143.3820014
 139.5999992  73.8879978 144.7680014 139.7923919  73.7319129 143.9341006
 138.5319992  60.2789978 143.4980014 138.4479992  61.1669978 143.8450014
 139.4219992  60.0139978 143.7300014 138.6408163  60.3647179 143.5768596
 136.7899992  70.7059978 142.5590014 137.3819992  71.4059978 142.8350014
 137.2489992  70.2729978 141.8390014 136.9330791  70.7432908 142.4994607
 135.1059992  63.3709978 141.6750014 135.0609992  64.3099978 141.8530014
 134.2179992  63.1349978 141.4050014 134.9798555  63.4676874 141.6628939
 134.8449992  72.0929978 146.5080014 134.0119992  72.5649978 146.5360014
 135.3899992  72.6029978 145.9100014 134.8047590  72.2265897 146.4309194
 142.8219992  73.1329978 140.8340014 142.1779992  72.5019978 141.1550014
 143.5839992  72.6019978 140.6020014 142.8368058  72.9747902 140.8466038
 138.3809992  68.8589978 140.9250014 138.4459992  68.0649978 141.4560014
 139.0339992  68.7409978 140.2350014 138.4781754  68.7343337 140.9044259
 143.7339992  69.9059978 140.6610014 143.4649992  70.0869978 141.5620014
 143.5269992  68.9809978 140.5300014 143.6692000  69.8056774 140.7665693
 139.5309992  66.8319978 143.2310014 139.0709992  66.3479978 143.9170014
 139.7859992  66.1629978 142.5950014 139.5025038  66.6753689 143.2389447
 140.6019992  65.0749978 141.4930014 140.4209992  64.9199978 140.5660014
 141.5519992  65.1829978 141.5380014 140.7056566  65.0683669 141.3720929
 140.4989992  75.7649978 142.4950014 141.4319992  75.9229978 142.6380014
 140.2349992  76.4409978 141.8700014 140.5909308  75.8779104 142.4301396
 134.0669992  70.4019978 141.9770014 134.9809992  70.4809978 142.2510014
 134.0749992  69.7149978 141.3110014 134.1931143  70.3199085 141.9244274
 132.7159992  75.7949978 147.0550014 132.0689992  75.3329978 146.5220014
 133.0709992  75.1229978 147.6370014 132.6754506  75.6409503 147.0607341
 133.1029992  59.7909978 145.4660014 132.1779992  59.9989978 145.3370014
 133.5569992  60.2749978 144.7770014 133.0376374  59.8849949 145.3550957
 134.3789992  57.8339978 143.4450014 134.8179992  58.4449978 142.8530014
 133.7449992  58.3719978 143.9190014 134.3533859  57.9904064 143.4280305
 140.1219992  57.9619978 147.4550014 140.9959992  58.3509978 147.4250014
 139.9859992  57.7469978 148.3770014 140.2233207  57.9861923 147.5756509
 134.2799992  73.7819978 144.3430014 133.5949992  73.7439978 143.6750014
 134.2839992  74.6949978 144.6310014 134.1868174  73.9001998 144.2905310
 136.2399992  59.7499978 141.8870014 136.7309992  59.1199978 141.3600014
 136.8629992  60.0459978 142.5510014 136.3915062  59.7036770 141.9045438
 141.2659992  60.0429978 144.3450014 141.4439992  59.3959978 145.0270014
 141.2119992  60.8769978 144.8120014 141.2831025  60.0670504 144.5016433
 143.1439992  74.9909978 142.7400014 144.0099992  75.3579978 142.5620014
 142.8979992  74.5519978 141.9260014 143.2292097  74.9818525 142.6056019
 136.0979992  74.7019978 141.3680014 135.8299992  74.9879978 142.2410014
 136.8689992  74.1559978 141.5200014 136.1655600  74.6673330 141.5081499
  12.6289992  86.0479978 147.6000014  12.7179992  86.9919978 147.4680014
  11.9909992  85.7729978 146.9420014  12.5549062  86.1399812 147.4929641
   1.4639992  83.0269978 146.5400014   1.0159992  83.8729978 146.5210014
   0.9029992  82.4479978 146.0240014   1.3269603  83.0643674 146.4676720
  13.9689992  80.3619978 147.4260014  14.6159992  80.0329978 148.0510014
  14.4789992  80.8789978 146.8030014  14.1264317  80.3869227 147.4272167
  12.4259992  88.6489978 146.6430014  12.1309992  88.3259978 145.7920014
  12.1019992  89.5489978 146.6840014  12.3417983  88.7264026 146.5319771
   2.1549992  88.4599978 144.9560014   1.8829992  88.6889978 144.0670014
   2.1999992  89.2969978 145.4160014   2.1238709  88.6046058 144.8966107
  15.1919992  89.7629978 146.8020014  14.9339992  89.0729978 146.1910014
  15.2629992  89.3199978 147.6480014  15.1662837  89.6087106 146.8326912
  11.3499992  85.2919978 145.0520014  10.6389992  85.8269978 144.7000014
  12.0409992  85.3469978 144.3920014  11.3460751  85.3726777 144.9145858
  11.4039992  83.7489978 142.0910014  12.1049992  83.7719978 142.7420014
  11.7059992  83.1209978 141.4350014  11.5408282  83.6672339 142.0914496
  14.7559992  85.5009978 146.0040014  14.0239992  85.7299978 146.5770014
  15.2029992  84.7879978 146.4590014  14.7162753  85.4358972 146.1439715
  13.6269992  84.6639978 143.6890014  14.2059992  84.8139978 144.4360014
  14.0409992  85.1339978 142.9660014  13.7623122  84.7481277 143.6935042
  11.3529992  91.3999978 147.1240014  11.8269992  91.6959978 147.9020014
  10.7899992  92.1389978 146.8910014  11.3417361  91.5402721 147.1988611
  17.3259992  76.4139978 143.5020014  16.4259992  76.5529978 143.7970014
  17.5779992  77.2449978 143.1000014  17.2368683  76.5454055 143.4880232
   5.3919992  85.2009978 145.4760014   5.0999992  85.9689978 144.9850014
   4.7169992  84.5419978 145.3130014   5.2608497  85.2169745 145.3868260
  18.5149992  90.7799978 141.8780014  18.5879992  91.7189978 142.0490014
  19.4199992  90.4749978 141.8220014  18.6474158  90.8673061 141.8938392
  10.8259992  94.3569978 145.5390014  10.7499992  94.2359978 144.5930014
  10.8579992  95.3059978 145.6580014  10.8199156  94.4687530 145.4255048
   4.4789992  93.1459978 147.3200014   4.6309992  92.7979978 148.1990014
   3.6279992  92.7889978 147.0650014   4.3847899  93.0501738 147.4057340
  13.9269992  93.5109978 142.5410014  14.3019992  92.7669978 142.0710014
  13.9319992  93.2409978 143.4600014  13.9790024  93.3726950 142.6007987
  13.5959992  93.4369978 145.2910014  12.6609992  93.5369978 145.4690014
  13.8759992  92.7269978 145.8690014  13.5058173  93.3547239 145.3934998
  15.1039992  85.6959978 141.3190014  15.1459992  85.4739978 140.3890014
  15.9529992  86.0949978 141.5090014  15.2245253  85.7195498 141.2173822
  10.6769992  79.5719978 141.9890014  10.4229992  79.5909978 142.9120014
  10.4199992  78.7009978 141.6880014  10.6075133  79.4568110 142.0745082
   6.4399992  82.5439978 147.3360014   5.5479992  82.2039978 147.2780014
   6.8909992  82.1669978 146.5810014   6.3786815  82.4463762 147.2259203
  11.9759992  82.9599978 146.1530014  11.5669992  83.7749978 145.8620014
  12.6959992  82.8199978 145.5390014  12.0174013  83.0526571 146.0300875
   7.5589992  80.0179978 141.0900014   7.1279992  79.5729978 141.8200014
   6.8409992  80.3889978 140.5780014   7.4029363  80.0072968 141.1206211
   2.0759992  80.5059978 143.5660014   2.5499992  81.0969978 142.9810014
   1.3579992  81.0359978 143.9130014   2.0438640  80.6585511 143.5327969
   3.8499992  81.6009978 147.2490014   2.9609992  81.6999978 146.9090014
   4.1469992  80.7589978 146.9030014   3.7684177  81.5007687 147.1556940
   7.5029992  81.6009978 144.9060014   8.4349992  81.7299978 145.0840014
   7.2879992  82.2699978 144.2560014   7.6014472  81.7090806 144.8424891
   6.1769992  82.7949978 142.4730014   5.6349992  82.4159978 141.7810014
   7.0109992  82.9899978 142.0440014   6.2155159  82.7695076 142.3204419
   5.3439992  78.8959978 146.7280014   5.0269992  77.9929978 146.6930014
   6.1249992  78.8979978 146.1750014   5.4062307  78.7726951 146.6484314
   9.5129992  87.3609978 144.4080014   8.7679992  86.8529978 144.0860014
   9.3779992  87.4099978 145.3550014   9.3929047  87.2981596 144.4918845
  13.4099992  80.1749978 142.6080014  12.4719992  80.2859978 142.4560014
  13.7079992  81.0309978 142.9140014  13.3216402  80.3060621 142.6285571
  14.1289992  82.0419978 144.2680014  15.0209992  81.9039978 144.5870014
  14.1849992  82.8329978 143.7320014  14.2587107  82.1300526 144.2392091
  11.6379992  88.8189978 143.4340014  11.3429992  89.6459978 143.8150014
  10.9349992  88.1999978 143.6300014  11.5025471  88.8485227 143.5126698
  19.0139992  82.2509978 143.9630014  18.4589992  81.8549978 143.2910014
  19.1139992  83.1619978 143.6850014  18.9515888  82.3198990 143.8335206
  17.3089992  91.0369978 144.4280014  16.9359992  90.2119978 144.7370014
  17.5859992  90.8539978 143.5310014  17.2953871  90.8992441 144.3489677
   7.0119992  90.1739978 147.5820014   7.5399992  90.9469978 147.3820014
   6.1319992  90.3979978 147.2810014   6.9653176  90.3103161 147.5138409
   2.7669992  85.0359978 142.1700014   3.3829992  85.6629978 142.5490014
   1.9049992  85.3519978 142.4410014   2.7348195  85.1645798 142.2585386
   8.4399992  87.8369978 147.1590014   8.1989992  88.7619978 147.2000014
   7.6989992  87.3779978 147.5550014   8.3068390  87.9016403 147.2181404
   7.1229992  92.8579978 146.7040014   6.1729992  92.9639978 146.7550014
   7.4749992  93.6789978 147.0490014   7.0405480  92.9834438 146.7575999
  14.7009992  89.0139978 142.2480014  15.0549992  88.6339978 143.0530014
  13.7529992  88.9199978 142.3350014  14.6211820  88.9493092 142.3698714
  19.2049992  93.4929978 142.4490014  19.9489992  94.0789978 142.3090014
  18.5109992  94.0619978 142.7830014  19.2130201  93.6500603 142.4749772
  15.5669992  87.6859978 144.4750014  15.2899992  86.9579978 145.0310014
  16.4949992  87.8049978 144.6800014  15.6544499  87.6024213 144.5788044
   8.7919992  90.1259978 140.6950014   9.0309992  89.3769978 140.1480014
   8.5229992  89.7379978 141.5280014   8.7883233  89.9711853 140.7327809
   7.7289992  89.6959978 143.1520014   7.8759992  89.1759978 143.9420014
   7.7259992  90.6029978 143.4580014   7.7487300  89.7473964 143.3015895
   4.1819992  86.9479978 143.6620014   3.4959992  87.3009978 144.2290014
   4.7049992  87.7109978 143.4160014   4.1589033  87.0993746 143.7062661
  12.7979992  79.2629978 145.0380014  13.0179992  79.7339978 144.2350014
  13.3569992  79.6569978 145.7080014  12.9036730  79.3807432 145.0185906
  10.4669992  91.3929978 143.9010014   9.6499992  91.8899978 143.9530014
  10.9959992  91.8689978 143.2610014  10.4268508  91.5252543 143.8216035
   9.9979992  80.9909978 145.8730014  10.8099992  81.4949978 145.9190014
   9.7539992  80.8459978 146.7870014  10.0761467  81.0403749 146.0028575
  10.8819992  78.0719978 146.8110014  10.5349992  78.6889978 147.4560014
  11.5409992  78.5729978 146.3300014  10.9235950  78.2241099 146.8342271
   7.8049992  92.4369978 143.8830014   7.9659992  93.2369978 143.3820014
   7.6079992  92.7439978 144.7680014   7.8003919  92.5879129 143.9341006
   6.5399992  79.1349978 143.4980014   6.4559992  80.0229978 143.8450014
   7.4299992  78.8699978 143.7300014   6.6488163  79.2207179 143.5768596
   4.7979992  89.5619978 142.5590014   5.3899992  90.2619978 142.8350014
   5.2569992  89.1289978 141.8390014   4.9410791  89.5992908 142.4994607
   3.1139992  82.2269978 141.6750014   3.0689992  83.1659978 141.8530014
   2.2259992  81.9909978 141.4050014   2.9878555  82.3236874 141.6628939
   2.8529992  90.9489978 146.5080014   2.0199992  91.4209978 146.5360014
   3.3979992  91.4589978 145.9100014   2.8127590  91.0825897 146.4309194
  10.8299992  91.9889978 140.8340014  10.1859992  91.3579978 141.1550014
  11.5919992  91.4579978 140.6020014  10.8448058  91.8307902 140.8466038
  15.4349992  91.8059978 141.0680014  15.7179992  91.0109978 141.5200014
  16.1739992  92.0389978 140.5070014  15.5736956  91.7287031 141.0539822
   6.3889992  87.7149978 140.9250014   6.4539992  86.9209978 141.4560014
   7.0419992  87.5969978 140.2350014   6.4861754  87.5903337 140.9044259
  11.7419992  88.7619978 140.6610014  11.4729992  88.9429978 141.5620014
  11.5349992  87.8369978 140.5300014  11.6772000  88.6616774 140.7665693
   7.5389992  85.6879978 143.2310014   7.0789992  85.2039978 143.9170014
   7.7939992  85.0189978 142.5950014   7.5105038  85.5313689 143.2389447
   8.6099992  83.9309978 141.4930014   8.4289992  83.7759978 140.5660014
   9.5599992  84.0389978 141.5380014   8.7136566  83.9243669 141.3720929
  17.9999992  86.2849978 140.9390014  17.7259992  85.8609978 140.1260014
  18.0389992  87.2169978 140.7220014  17.9677716  86.3528827 140.7984286
   8.5069992  94.6209978 142.4950014   9.4399992  94.7789978 142.6380014
   8.2429992  95.2969978 141.8700014   8.5989308  94.7339104 142.4301396
   2.0749992  89.2579978 141.9770014   2.9889992  89.3369978 142.2510014
   2.0829992  88.5709978 141.3110014   2.2011143  89.1759085 141.9244274
   0.7239992  94.6509978 147.0550014   0.0769992  94.1889978 146.5220014
   1.0789992  93.9789978 147.6370014   0.6834506  94.4969503 147.0607341
  18.4579992  87.1539978 144.9140014  19.3079992  87.5749978 145.0410014
  18.4629992  86.4139978 145.5210014  18.5751143  87.1116094 145.0134750
  18.8519992  85.2079978 146.7380014  18.1259992  84.7279978 147.1350014
  19.4339992  85.4129978 147.4700014  18.8311635  85.1699166 146.8913748
  19.1209992  85.1089978 143.1290014  18.5989992  85.4649978 142.4100014
  19.0879992  85.7839978 143.8070014  19.0450699  85.2489848 143.1222129
  17.4699992  82.3479978 141.6800014  17.5659992  83.0149978 141.0000014
  17.3299992  81.5329978 141.1980014  17.4642063  82.3290667 141.5218377
  16.6389992  83.7289978 147.3010014  16.4889992  82.7839978 147.2800014
  16.2849992  84.0099978 148.1440014  16.5705527  83.6375605 147.4121859
  16.7169992  79.7559978 140.7970014  17.3279992  79.3849978 141.4340014
  15.8799992  79.3349978 140.9930014  16.6874947  79.6482756 140.9107252
  16.3499992  81.3109978 145.7630014  16.6289992  80.4039978 145.8870014
  17.1089992  81.7449978 145.3740014  16.4908619  81.2454502 145.7273795
  16.9629992  78.5739978 145.8110014  17.1449992  78.1249978 146.6370014
  16.3629992  77.9899978 145.3480014  16.9067529  78.4336131 145.8613619
  18.8299992  78.6419978 142.3390014  19.2419992  77.9209978 141.8640014
  19.5109992  79.3109978 142.3980014  18.9785900  78.6337306 142.2819038
   1.1109992  78.6469978 145.4660014   0.1859992  78.8549978 145.3370014
   1.5649992  79.1309978 144.7770014   1.0456374  78.7409949 145.3550957
  15.8809992  93.6309978 147.4120014  16.5339992  93.2829978 146.8040014
  16.3919992  94.1189978 148.0580014  16.0392777  93.6493815 147.4162047
   2.3869992  76.6899978 143.4450014   2.8259992  77.3009978 142.8530014
   1.7529992  77.2279978 143.9190014   2.3613859  76.8464064 143.4280305
   8.1299992  76.8179978 147.4550014   9.0039992  77.2069978 147.4250014
   7.9939992  76.6029978 148.3770014   8.2313207  76.8421923 147.5756509
  15.0399992  76.8739978 144.7960014  14.3369992  77.4889978 144.5870014
  14.5949992  76.0369978 144.9280014  14.8836292  76.8450085 144.7852439
   2.2879992  92.6379978 144.3430014   1.6029992  92.5999978 143.6750014
   2.2919992  93.5509978 144.6310014   2.1948174  92.7561998 144.2905310
   4.2479992  78.6059978 141.8870014   4.7389992  77.9759978 141.3600014
   4.8709992  78.9019978 142.5510014   4.3995062  78.5596770 141.9045438
   9.2739992  78.8989978 144.3450014   9.4519992  78.2519978 145.0270014
   9.2199992  79.7329978 144.8120014   9.2911025  78.9230504 144.5016433
  11.1519992  93.8469978 142.7400014  12.0179992  94.2139978 142.5620014
  10.9059992  93.4079978 141.9260014  11.2372097  93.8378525 142.6056019
  17.8609992  93.4099978 145.4190014  17.6669992  92.6619978 144.8540014
  17.8219992  94.1679978 144.8360014  17.8291645  93.4100786 145.2628148
   4.1059992  93.5579978 141.3680014   3.8379992  93.8439978 142.2410014
   4.8769992  93.0119978 141.5200014   4.1735600  93.5233330 141.5081499
  31.4849992  86.0479978 147.6000014  31.5739992  86.9919978 147.4680014
  30.8469992  85.7729978 146.9420014  31.4109062  86.1399812 147.4929641
  20.3199992  83.0269978 146.5400014  19.8719992  83.8729978 146.5210014
  19.7589992  82.4479978 146.0240014  20.1829603  83.0643674 146.4676720
  32.8249992  80.3619978 147.4260014  33.4719992  80.0329978 148.0510014
  33.3349992  80.8789978 146.8030014  32.9824317  80.3869227 147.4272167
  31.2819992  88.6489978 146.6430014  30.9869992  88.3259978 145.7920014
  30.9579992  89.5489978 146.6840014  31.1977983  88.7264027 146.5319771
  21.0109992  88.4599978 144.9560014  20.7389992  88.6889978 144.0670014
  21.0559992  89.2969978 145.4160014  20.9798709  88.6046058 144.8966107
  34.0479992  89.7629978 146.8020014  33.7899992  89.0729978 146.1910014
  34.1189992  89.3199978 147.6480014  34.0222837  89.6087106 146.8326912
  30.2059992  85.2919978 145.0520014  29.4949992  85.8269978 144.7000014
  30.8969992  85.3469978 144.3920014  30.2020751  85.3726777 144.9145858
  30.2599992  83.7489978 142.0910014  30.9609992  83.7719978 142.7420014
  30.5619992  83.1209978 141.4350014  30.3968282  83.6672339 142.0914496
  33.6119992  85.5009978 146.0040014  32.8799992  85.7299978 146.5770014
  34.0589992  84.7879978 146.4590014  33.5722753  85.4358972 146.1439715
  32.4829992  84.6639978 143.6890014  33.0619992  84.8139978 144.4360014
  32.8969992  85.1339978 142.9660014  32.6183122  84.7481277 143.6935042
  30.2089992  91.3999978 147.1240014  30.6829992  91.6959978 147.9020014
  29.6459992  92.1389978 146.8910014  30.1977361  91.5402721 147.1988611
  36.1819992  76.4139978 143.5020014  35.2819992  76.5529978 143.7970014
  36.4339992  77.2449978 143.1000014  36.0928683  76.5454055 143.4880232
  24.2479992  85.2009978 145.4760014  23.9559992  85.9689978 144.9850014
  23.5729992  84.5419978 145.3130014  24.1168497  85.2169745 145.3868260
  37.3709992  90.7799978 141.8780014  37.4439992  91.7189978 142.0490014
  38.2759992  90.4749978 141.8220014  37.5034158  90.8673061 141.8938392
  29.6819992  94.3569978 145.5390014  29.6059992  94.2359978 144.5930014
  29.7139992  95.3059978 145.6580014  29.6759156  94.4687530 145.4255048
  23.3349992  93.1459978 147.3200014  23.4869992  92.7979978 148.1990014
  22.4839992  92.7889978 147.0650014  23.2407899  93.0501738 147.4057340
  32.7829992  93.5109978 142.5410014  33.1579992  92.7669978 142.0710014
  32.7879992  93.2409978 143.4600014  32.8350024  93.3726950 142.6007987
  32.4519992  93.4369978 145.2910014  31.5169992  93.5369978 145.4690014
  32.7319992  92.7269978 145.8690014  32.3618173  93.3547239 145.3934998
  33.9599992  85.6959978 141.3190014  34.0019992  85.4739978 140.3890014
  34.8089992  86.0949978 141.5090014  34.0805253  85.7195498 141.2173822
  29.5329992  79.5719978 141.9890014  29.2789992  79.5909978 142.9120014
  29.2759992  78.7009978 141.6880014  29.4635133  79.4568110 142.0745082
  25.2959992  82.5439978 147.3360014  24.4039992  82.2039978 147.2780014
  25.7469992  82.1669978 146.5810014  25.2346815  82.4463762 147.2259203
  30.8319992  82.9599978 146.1530014  30.4229992  83.7749978 145.8620014
  31.5519992  82.8199978 145.5390014  30.8734013  83.0526571 146.0300875
  26.4149992  80.0179978 141.0900014  25.9839992  79.5729978 141.8200014
  25.6969992  80.3889978 140.5780014  26.2589363  80.0072968 141.1206211
  20.9319992  80.5059978 143.5660014  21.4059992  81.0969978 142.9810014
  20.2139992  81.0359978 143.9130014  20.8998640  80.6585511 143.5327969
  22.7059992  81.6009978 147.2490014  21.8169992  81.6999978 146.9090014
  23.0029992  80.7589978 146.9030014  22.6244177  81.5007687 147.1556940
  26.3589992  81.6009978 144.9060014  27.2909992  81.7299978 145.0840014
  26.1439992  82.2699978 144.2560014  26.4574472  81.7090806 144.8424891
  25.0329992  82.7949978 142.4730014  24.4909992  82.4159978 141.7810014
  25.8669992  82.9899978 142.0440014  25.0715159  82.7695076 142.3204419
  24.1999992  78.8959978 146.7280014  23.8829992  77.9929978 146.6930014
  24.9809992  78.8979978 146.1750014  24.2622307  78.7726951 146.6484314
  28.3689992  87.3609978 144.4080014  27.6239992  86.8529978 144.0860014
  28.2339992  87.4099978 145.3550014  28.2489047  87.2981596 144.4918845
  32.2659992  80.1749978 142.6080014  31.3279992  80.2859978 142.4560014
  32.5639992  81.0309978 142.9140014  32.1776402  80.3060621 142.6285571
  32.9849992  82.0419978 144.2680014  33.8769992  81.9039978 144.5870014
  33.0409992  82.8329978 143.7320014  33.1147107  82.1300526 144.2392091
  30.4939992  88.8189978 143.4340014  30.1989992  89.6459978 143.8150014
  29.7909992  88.1999978 143.6300014  30.3585471  88.8485227 143.5126698
  37.8699992  82.2509978 143.9630014  37.3149992  81.8549978 143.2910014
  37.9699992  83.1619978 143.6850014  37.8075888  82.3198990 143.8335206
  36.1649992  91.0369978 144.4280014  35.7919992  90.2119978 144.7370014
  36.4419992  90.8539978 143.5310014  36.1513871  90.8992441 144.3489677
  25.8679992  90.1739978 147.5820014  26.3959992  90.9469978 147.3820014
  24.9879992  90.3979978 147.2810014  25.8213176  90.3103161 147.5138409
  21.6229992  85.0359978 142.1700014  22.2389992  85.6629978 142.5490014
  20.7609992  85.3519978 142.4410014  21.5908195  85.1645798 142.2585386
  27.2959992  87.8369978 147.1590014  27.0549992  88.7619978 147.2000014
  26.5549992  87.3779978 147.5550014  27.1628390  87.9016403 147.2181404
  25.9789992  92.8579978 146.7040014  25.0289992  92.9639978 146.7550014
  26.3309992  93.6789978 147.0490014  25.8965480  92.9834438 146.7575999
  33.5569992  89.0139978 142.2480014  33.9109992  88.6339978 143.0530014
  32.6089992  88.9199978 142.3350014  33.4771820  88.9493092 142.3698714
  38.0609992  93.4929978 142.4490014  38.8049992  94.0789978 142.3090014
  37.3669992  94.0619978 142.7830014  38.0690201  93.6500603 142.4749772
  34.4229992  87.6859978 144.4750014  34.1459992  86.9579978 145.0310014
  35.3509992  87.8049978 144.6800014  34.5104499  87.6024213 144.5788044
  27.6479992  90.1259978 140.6950014  27.8869992  89.3769978 140.1480014
  27.3789992  89.7379978 141.5280014  27.6443233  89.9711853 140.7327809
  26.5849992  89.6959978 143.1520014  26.7319992  89.1759978 143.9420014
  26.5819992  90.6029978 143.4580014  26.6047300  89.7473964 143.3015895
  23.0379992  86.9479978 143.6620014  22.3519992  87.3009978 144.2290014
  23.5609992  87.7109978 143.4160014  23.0149033  87.0993746 143.7062661
  31.6539992  79.2629978 145.0380014  31.8739992  79.7339978 144.2350014
  32.2129992  79.6569978 145.7080014  31.7596730  79.3807432 145.0185906
  29.3229992  91.3929978 143.9010014  28.5059992  91.8899978 143.9530014
  29.8519992  91.8689978 143.2610014  29.2828508  91.5252543 143.8216035
  28.8539992  80.9909978 145.8730014  29.6659992  81.4949978 145.9190014
  28.6099992  80.8459978 146.7870014  28.9321467  81.0403749 146.0028575
  29.7379992  78.0719978 146.8110014  29.3909992  78.6889978 147.4560014
  30.3969992  78.5729978 146.3300014  29.7795950  78.2241099 146.8342271
  26.6609992  92.4369978 143.8830014  26.8219992  93.2369978 143.3820014
  26.4639992  92.7439978 144.7680014  26.6563919  92.5879129 143.9341006
  25.3959992  79.1349978 143.4980014  25.3119992  80.0229978 143.8450014
  26.2859992  78.8699978 143.7300014  25.5048163  79.2207179 143.5768596
  23.6539992  89.5619978 142.5590014  24.2459992  90.2619978 142.8350014
  24.1129992  89.1289978 141.8390014  23.7970791  89.5992908 142.4994607
  21.9699992  82.2269978 141.6750014  21.9249992  83.1659978 141.8530014
  21.0819992  81.9909978 141.4050014  21.8438555  82.3236874 141.6628939
  21.7089992  90.9489978 146.5080014  20.8759992  91.4209978 146.5360014
  22.2539992  91.4589978 145.9100014  21.6687590  91.0825897 146.4309194
  29.6859992  91.9889978 140.8340014  29.0419992  91.3579978 141.1550014
  30.4479992  91.4579978 140.6020014  29.7008058  91.8307902 140.8466038
  34.2909992  91.8059978 141.0680014  34.5739992  91.0109978 141.5200014
  35.0299992  92.0389978 140.5070014  34.4296956  91.7287031 141.0539822
  25.2449992  87.7149978 140.9250014  25.3099992  86.9209978 141.4560014
  25.8979992  87.5969978 140.2350014  25.3421754  87.5903337 140.9044259
  30.5979992  88.7619978 140.6610014  30.3289992  88.9429978 141.5620014
  30.3909992  87.8369978 140.5300014  30.5332000  88.6616774 140.7665693
  26.3949992  85.6879978 143.2310014  25.9349992  85.2039978 143.9170014
  26.6499992  85.0189978 142.5950014  26.3665038  85.5313689 143.2389447
  27.4659992  83.9309978 141.4930014  27.2849992  83.7759978 140.5660014
  28.4159992  84.0389978 141.5380014  27.5696566  83.9243669 141.3720929
  36.8559992  86.2849978 140.9390014  36.5819992  85.8609978 140.1260014
  36.8949992  87.2169978 140.7220014  36.8237716  86.3528827 140.7984286
  27.3629992  94.6209978 142.4950014  28.2959992  94.7789978 142.6380014
  27.0989992  95.2969978 141.8700014  27.4549308  94.7339104 142.4301396
  20.9309992  89.2579978 141.9770014  21.8449992  89.3369978 142.2510014
  20.9389992  88.5709978 141.3110014  21.0571143  89.1759085 141.9244274
  19.5799992  94.6509978 147.0550014  18.9329992  94.1889978 146.5220014
  19.9349992  93.9789978 147.6370014  19.5394506  94.4969503 147.0607341
  37.3139992  87.1539978 144.9140014  38.1639992  87.5749978 145.0410014
  37.3189992  86.4139978 145.5210014  37.4311143  87.1116094 145.0134750
  37.7079992  85.2079978 146.7380014  36.9819992  84.7279978 147.1350014
  38.2899992  85.4129978 147.4700014  37.6871635  85.1699166 146.8913748
  37.9769992  85.1089978 143.1290014  37.4549992  85.4649978 142.4100014
  37.9439992  85.7839978 143.8070014  37.9010699  85.2489848 143.1222129
  36.3259992  82.3479978 141.6800014  36.4219992  83.0149978 141.0000014
  36.1859992  81.5329978 141.1980014  36.3202063  82.3290667 141.5218377
  35.4949992  83.7289978 147.3010014  35.3449992  82.7839978 147.2800014
  35.1409992  84.0099978 148.1440014  35.4265527  83.6375605 147.4121859
  35.5729992  79.7559978 140.7970014  36.1839992  79.3849978 141.4340014
  34.7359992  79.3349978 140.9930014  35.5434947  79.6482756 140.9107252
  35.2059992  81.3109978 145.7630014  35.4849992  80.4039978 145.8870014
  35.9649992  81.7449978 145.3740014  35.3468619  81.2454502 145.7273795
  35.8189992  78.5739978 145.8110014  36.0009992  78.1249978 146.6370014
  35.2189992  77.9899978 145.3480014  35.7627529  78.4336131 145.8613619
  37.6859992  78.6419978 142.3390014  38.0979992  77.9209978 141.8640014
  38.3669992  79.3109978 142.3980014  37.8345900  78.6337306 142.2819038
  19.9669992  78.6469978 145.4660014  19.0419992  78.8549978 145.3370014
  20.4209992  79.1309978 144.7770014  19.9016374  78.7409949 145.3550957
  34.7369992  93.6309978 147.4120014  35.3899992  93.2829978 146.8040014
  35.2479992  94.1189978 148.0580014  34.8952777  93.6493815 147.4162047
  21.2429992  76.6899978 143.4450014  21.6819992  77.3009978 142.8530014
  20.6089992  77.2279978 143.9190014  21.2173859  76.8464064 143.4280305
  26.9859992  76.8179978 147.4550014  27.8599992  77.2069978 147.4250014
  26.8499992  76.6029978 148.3770014  27.0873207  76.8421923 147.5756509
  33.8959992  76.8739978 144.7960014  33.1929992  77.4889978 144.5870014
  33.4509992  76.0369978 144.9280014  33.7396292  76.8450085 144.7852439
  21.1439992  92.6379978 144.3430014  20.4589992  92.5999978 143.6750014
  21.1479992  93.5509978 144.6310014  21.0508174  92.7561998 144.2905310
  23.1039992  78.6059978 141.8870014  23.5949992  77.9759978 141.3600014
  23.7269992  78.9019978 142.5510014  23.2555062  78.5596770 141.9045438
  28.1299992  78.8989978 144.3450014  28.3079992  78.2519978 145.0270014
  28.0759992  79.7329978 144.8120014  28.1471025  78.9230504 144.5016433
  30.0079992  93.8469978 142.7400014  30.8739992  94.2139978 142.5620014
  29.7619992  93.4079978 141.9260014  30.0932097  93.8378525 142.6056019
  36.7169992  93.4099978 145.4190014  36.5229992  92.6619978 144.8540014
  36.6779992  94.1679978 144.8360014  36.6851645  93.4100786 145.2628148
  22.9619992  93.5579978 141.3680014  22.6939992  93.8439978 142.2410014
  23.7329992  93.0119978 141.5200014  23.0295600  93.5233330 141.5081499
  50.3409992  86.0479978 147.6000014  50.4299992  86.9919978 147.4680014
  49.7029992  85.7729978 146.9420014  50.2669061  86.1399812 147.4929641
  39.1759992  83.0269978 146.5400014  38.7279992  83.8729978 146.5210014
  38.6149992  82.4479978 146.0240014  39.0389603  83.0643674 146.4676720
  51.6809992  80.3619978 147.4260014  52.3279992  80.0329978 148.0510014
  52.1909992  80.8789978 146.8030014  51.8384317  80.3869227 147.4272167
  50.1379992  88.6489978 146.6430014  49.8429992  88.3259978 145.7920014
  49.8139992  89.5489978 146.6840014  50.0537983  88.7264026 146.5319771
  39.8669992  88.4599978 144.9560014  39.5949992  88.6889978 144.0670014
  39.9119992  89.2969978 145.4160014  39.8358709  88.6046058 144.8966107
  52.9039992  89.7629978 146.8020014  52.6459992  89.0729978 146.1910014
  52.9749992  89.3199978 147.6480014  52.8782837  89.6087106 146.8326912
  49.0619992  85.2919978 145.0520014  48.3509992  85.8269978 144.7000014
  49.7529992  85.3469978 144.3920014  49.0580751  85.3726777 144.9145858
  49.1159992  83.7489978 142.0910014  49.8169992  83.7719978 142.7420014
  49.4179992  83.1209978 141.4350014  49.2528282  83.6672339 142.0914496
  52.4679992  85.5009978 146.0040014  51.7359992  85.7299978 146.5770014
  52.9149992  84.7879978 146.4590014  52.4282753  85.4358972 146.1439715
  51.3389992  84.6639978 143.6890014  51.9179992  84.8139978 144.4360014
  51.7529992  85.1339978 142.9660014  51.4743122  84.7481277 143.6935042
  49.0649992  91.3999978 147.1240014  49.5389992  91.6959978 147.9020014
  48.5019992  92.1389978 146.8910014  49.0537361  91.5402721 147.1988611
  55.0379992  76.4139978 143.5020014  54.1379992  76.5529978 143.7970014
  55.2899992  77.2449978 143.1000014  54.9488683  76.5454055 143.4880232
  43.1039992  85.2009978 145.4760014  42.8119992  85.9689978 144.9850014
  42.4289992  84.5419978 145.3130014  42.9728497  85.2169745 145.3868260
  56.2269992  90.7799978 141.8780014  56.2999992  91.7189978 142.0490014
  57.1319992  90.4749978 141.8220014  56.3594158  90.8673061 141.8938392
  48.5379992  94.3569978 145.5390014  48.4619992  94.2359978 144.5930014
  48.5699992  95.3059978 145.6580014  48.5319156  94.4687530 145.4255048
  42.1909992  93.1459978 147.3200014  42.3429992  92.7979978 148.1990014
  41.3399992  92.7889978 147.0650014  42.0967899  93.0501738 147.4057340
  51.6389992  93.5109978 142.5410014  52.0139992  92.7669978 142.0710014
  51.6439992  93.2409978 143.4600014  51.6910024  93.3726950 142.6007987
  51.3079992  93.4369978 145.2910014  50.3729992  93.5369978 145.4690014
  51.5879992  92.7269978 145.8690014  51.2178173  93.3547239 145.3934998
  52.8159992  85.6959978 141.3190014  52.8579992  85.4739978 140.3890014
  53.6649992  86.0949978 141.5090014  52.9365253  85.7195498 141.2173822
  48.3889992  79.5719978 141.9890014  48.1349992  79.5909978 142.9120014
  48.1319992  78.7009978 141.6880014  48.3195133  79.4568110 142.0745082
  44.1519992  82.5439978 147.3360014  43.2599992  82.2039978 147.2780014
  44.6029992  82.1669978 146.5810014  44.0906815  82.4463762 147.2259203
  49.6879992  82.9599978 146.1530014  49.2789992  83.7749978 145.8620014
  50.4079992  82.8199978 145.5390014  49.7294013  83.0526571 146.0300875
  45.2709992  80.0179978 141.0900014  44.8399992  79.5729978 141.8200014
  44.5529992  80.3889978 140.5780014  45.1149363  80.0072968 141.1206211
  39.7879992  80.5059978 143.5660014  40.2619992  81.0969978 142.9810014
  39.0699992  81.0359978 143.9130014  39.7558640  80.6585511 143.5327969
  41.5619992  81.6009978 147.2490014  40.6729992  81.6999978 146.9090014
  41.8589992  80.7589978 146.9030014  41.4804177  81.5007687 147.1556940
  45.2149992  81.6009978 144.9060014  46.1469992  81.7299978 145.0840014
  44.9999992  82.2699978 144.2560014  45.3134472  81.7090806 144.8424891
  43.8889992  82.7949978 142.4730014  43.3469992  82.4159978 141.7810014
  44.7229992  82.9899978 142.0440014  43.9275159  82.7695076 142.3204419
  43.0559992  78.8959978 146.7280014  42.7389992  77.9929978 146.6930014
  43.8369992  78.8979978 146.1750014  43.1182307  78.7726951 146.6484314
  47.2249992  87.3609978 144.4080014  46.4799992  86.8529978 144.0860014
  47.0899992  87.4099978 145.3550014  47.1049047  87.2981596 144.4918845
  51.1219992  80.1749978 142.6080014  50.1839992  80.2859978 142.4560014
  51.4199992  81.0309978 142.9140014  51.0336402  80.3060621 142.6285571
  51.8409992  82.0419978 144.2680014  52.7329992  81.9039978 144.5870014
  51.8969992  82.8329978 143.7320014  51.9707107  82.1300526 144.2392091
  49.3499992  88.8189978 143.4340014  49.0549992  89.6459978 143.8150014
  48.6469992  88.1999978 143.6300014  49.2145471  88.8485227 143.5126698
  56.7259992  82.2509978 143.9630014  56.1709992  81.8549978 143.2910014
  56.8259992  83.1619978 143.6850014  56.6635888  82.3198990 143.8335206
  55.0209992  91.0369978 144.4280014  54.6479992  90.2119978 144.7370014
  55.2979992  90.8539978 143.5310014  55.0073871  90.8992441 144.3489677
  44.7239992  90.1739978 147.5820014  45.2519992  90.9469978 147.3820014
  43.8439992  90.3979978 147.2810014  44.6773176  90.3103161 147.5138409
  40.4789992  85.0359978 142.1700014  41.0949992  85.6629978 142.5490014
  39.6169992  85.3519978 142.4410014  40.4468195  85.1645798 142.2585386
  46.1519992  87.8369978 147.1590014  45.9109992  88.7619978 147.2000014
  45.4109992  87.3779978 147.5550014  46.0188390  87.9016403 147.2181404
  44.8349992  92.8579978 146.7040014  43.8849992  92.9639978 146.7550014
  45.1869992  93.6789978 147.0490014  44.7525480  92.9834438 146.7575999
  52.4129992  89.0139978 142.2480014  52.7669992  88.6339978 143.0530014
  51.4649992  88.9199978 142.3350014  52.3331820  88.9493092 142.3698714
  56.9169992  93.4929978 142.4490014  57.6609992  94.0789978 142.3090014
  56.2229992  94.0619978 142.7830014  56.9250201  93.6500603 142.4749772
  53.2789992  87.6859978 144.4750014  53.0019992  86.9579978 145.0310014
  54.2069992  87.8049978 144.6800014  53.3664499  87.6024213 144.5788044
  46.5039992  90.1259978 140.6950014  46.7429992  89.3769978 140.1480014
  46.2349992  89.7379978 141.5280014  46.5003233  89.9711853 140.7327809
  45.4409992  89.6959978 143.1520014  45.5879992  89.1759978 143.9420014
  45.4379992  90.6029978 143.4580014  45.4607300  89.7473964 143.3015895
  41.8939992  86.9479978 143.6620014  41.2079992  87.3009978 144.2290014
  42.4169992  87.7109978 143.4160014  41.8709033  87.0993746 143.7062661
  50.5099992  79.2629978 145.0380014  50.7299992  79.7339978 144.2350014
  51.0689992  79.6569978 145.7080014  50.6156730  79.3807432 145.0185906
  48.1789992  91.3929978 143.9010014  47.3619992  91.8899978 143.9530014
  48.7079992  91.8689978 143.2610014  48.1388508  91.5252543 143.8216035
  47.7099992  80.9909978 145.8730014  48.5219992  81.4949978 145.9190014
  47.4659992  80.8459978 146.7870014  47.7881467  81.0403749 146.0028575
  48.5939992  78.0719978 146.8110014  48.2469992  78.6889978 147.4560014
  49.2529992  78.5729978 146.3300014  48.6355950  78.2241099 146.8342271
  45.5169992  92.4369978 143.8830014  45.6779992  93.2369978 143.3820014
  45.3199992  92.7439978 144.7680014  45.5123919  92.5879129 143.9341006
  44.2519992  79.1349978 143.4980014  44.1679992  80.0229978 143.8450014
  45.1419992  78.8699978 143.7300014  44.3608163  79.2207179 143.5768596
  42.5099992  89.5619978 142.5590014  43.1019992  90.2619978 142.8350014
  42.9689992  89.1289978 141.8390014  42.6530791  89.5992908 142.4994607
  40.8259992  82.2269978 141.6750014  40.7809992  83.1659978 141.8530014
  39.9379992  81.9909978 141.4050014  40.6998555  82.3236874 141.6628939
  40.5649992  90.9489978 146.5080014  39.7319992  91.4209978 146.5360014
  41.1099992  91.4589978 145.9100014  40.5247590  91.0825897 146.4309194
  48.5419992  91.9889978 140.8340014  47.8979992  91.3579978 141.1550014
  49.3039992  91.4579978 140.6020014  48.5568058  91.8307902 140.8466038
  53.1469992  91.8059978 141.0680014  53.4299992  91.0109978 141.5200014
  53.8859992  92.0389978 140.5070014  53.2856956  91.7287031 141.0539822
  44.1009992  87.7149978 140.9250014  44.1659992  86.9209978 141.4560014
  44.7539992  87.5969978 140.2350014  44.1981754  87.5903337 140.9044259
  49.4539992  88.7619978 140.6610014  49.1849992  88.9429978 141.5620014
  49.2469992  87.8369978 140.5300014  49.3892000  88.6616774 140.7665693
  45.2509992  85.6879978 143.2310014  44.7909992  85.2039978 143.9170014
  45.5059992  85.0189978 142.5950014  45.2225038  85.5313689 143.2389447
  46.3219992  83.9309978 141.4930014  46.1409992  83.7759978 140.5660014
  47.2719992  84.0389978 141.5380014  46.4256566  83.9243669 141.3720929
  55.7119992  86.2849978 140.9390014  55.4379992  85.8609978 140.1260014
  55.7509992  87.2169978 140.7220014  55.6797716  86.3528827 140.7984286
  46.2189992  94.6209978 142.4950014  47.1519992  94.7789978 142.6380014
  45.9549992  95.2969978 141.8700014  46.3109308  94.7339104 142.4301396
  39.7869992  89.2579978 141.9770014  40.7009992  89.3369978 142.2510014
  39.7949992  88.5709978 141.3110014  39.9131143  89.1759085 141.9244274
  38.4359992  94.6509978 147.0550014  37.7889992  94.1889978 146.5220014
  38.7909992  93.9789978 147.6370014  38.3954506  94.4969503 147.0607341
  56.1699992  87.1539978 144.9140014  57.0199992  87.5749978 145.0410014
  56.1749992  86.4139978 145.5210014  56.2871143  87.1116094 145.0134750
  56.5639992  85.2079978 146.7380014  55.8379992  84.7279978 147.1350014
  57.1459992  85.4129978 147.4700014  56.5431635  85.1699166 146.8913748
  56.8329992  85.1089978 143.1290014  56.3109992  85.4649978 142.4100014
  56.7999992  85.7839978 143.8070014  56.7570699  85.2489848 143.1222129
  55.1819992  82.3479978 141.6800014  55.2779992  83.0149978 141.0000014
  55.0419992  81.5329978 141.1980014  55.1762063  82.3290667 141.5218377
  54.3509992  83.7289978 147.3010014  54.2009992  82.7839978 147.2800014
  53.9969992  84.0099978 148.1440014  54.2825527  83.6375605 147.4121859
  54.4289992  79.7559978 140.7970014  55.0399992  79.3849978 141.4340014
  53.5919992  79.3349978 140.9930014  54.3994947  79.6482756 140.9107252
  54.0619992  81.3109978 145.7630014  54.3409992  80.4039978 145.8870014
  54.8209992  81.7449978 145.3740014  54.2028619  81.2454502 145.7273795
  54.6749992  78.5739978 145.8110014  54.8569992  78.1249978 146.6370014
  54.0749992  77.9899978 145.3480014  54.6187529  78.4336131 145.8613619
  56.5419992  78.6419978 142.3390014  56.9539992  77.9209978 141.8640014
  57.2229992  79.3109978 142.3980014  56.6905900  78.6337306 142.2819038
  38.8229992  78.6469978 145.4660014  37.8979992  78.8549978 145.3370014
  39.2769992  79.1309978 144.7770014  38.7576374  78.7409949 145.3550957
  53.5929992  93.6309978 147.4120014  54.2459992  93.2829978 146.8040014
  54.1039992  94.1189978 148.0580014  53.7512777  93.6493815 147.4162047
  40.0989992  76.6899978 143.4450014  40.5379992  77.3009978 142.8530014
  39.4649992  77.2279978 143.9190014  40.0733859  76.8464064 143.4280305
  45.8419992  76.8179978 147.4550014  46.7159992  77.2069978 147.4250014
  45.7059992  76.6029978 148.3770014  45.9433207  76.8421923 147.5756509
  52.7519992  76.8739978 144.7960014  52.0489992  77.4889978 144.5870014
  52.3069992  76.0369978 144.9280014  52.5956292  76.8450085 144.7852439
  39.9999992  92.6379978 144.3430014  39.3149992  92.5999978 143.6750014
  40.0039992  93.5509978 144.6310014  39.9068174  92.7561998 144.2905310
  41.9599992  78.6059978 141.8870014  42.4509992  77.9759978 141.3600014
  42.5829992  78.9019978 142.5510014  42.1115062  78.5596770 141.9045438
  46.9859992  78.8989978 144.3450014  47.1639992  78.2519978 145.0270014
  46.9319992  79.7329978 144.8120014  47.0031025  78.9230504 144.5016433
  48.8639992  93.8469978 142.7400014  49.7299992  94.2139978 142.5620014
  48.6179992  93.4079978 141.9260014  48.9492097  93.8378525 142.6056019
  55.5729992  93.4099978 145.4190014  55.3789992  92.6619978 144.8540014
  55.5339992  94.1679978 144.8360014  55.5411645  93.4100786 145.2628148
  41.8179992  93.5579978 141.3680014  41.5499992  93.8439978 142.2410014
  42.5889992  93.0119978 141.5200014  41.8855600  93.5233330 141.5081499
  69.1969992  86.0479978 147.6000014  69.2859992  86.9919978 147.4680014
  68.5589992  85.7729978 146.9420014  69.1229062  86.1399812 147.4929641
  58.0319992  83.0269978 146.5400014  57.5839992  83.8729978 146.5210014
  57.4709992  82.4479978 146.0240014  57.8949603  83.0643674 146.4676720
  70.5369992  80.3619978 147.4260014  71.1839992  80.0329978 148.0510014
  71.0469992  80.8789978 146.8030014  70.6944317  80.3869227 147.4272167
  68.9939992  88.6489978 146.6430014  68.6989992  88.3259978 145.7920014
  68.6699992  89.5489978 146.6840014  68.9097983  88.7264026 146.5319771
  58.7229992  88.4599978 144.9560014  58.4509992  88.6889978 144.0670014
  58.7679992  89.2969978 145.4160014  58.6918709  88.6046058 144.8966107
  71.7599992  89.7629978 146.8020014  71.5019992  89.0729978 146.1910014
  71.8309992  89.3199978 147.6480014  71.7342837  89.6087106 146.8326912
  67.9179992  85.2919978 145.0520014  67.2069992  85.8269978 144.7000014
  68.6089992  85.3469978 144.3920014  67.9140751  85.3726777 144.9145858
  67.9719992  83.7489978 142.0910014  68.6729992  83.7719978 142.7420014
  68.2739992  83.1209978 141.4350014  68.1088282  83.6672339 142.0914496
  71.3239992  85.5009978 146.0040014  70.5919992  85.7299978 146.5770014
  71.7709992  84.7879978 146.4590014  71.2842753  85.4358972 146.1439715
  70.1949992  84.6639978 143.6890014  70.7739992  84.8139978 144.4360014
  70.6089992  85.1339978 142.9660014  70.3303122  84.7481277 143.6935042
  67.9209992  91.3999978 147.1240014  68.3949992  91.6959978 147.9020014
  67.3579992  92.1389978 146.8910014  67.9097361  91.5402721 147.1988611
  73.8939992  76.4139978 143.5020014  72.9939992  76.5529978 143.7970014
  74.1459992  77.2449978 143.1000014  73.8048683  76.5454055 143.4880232
  61.9599992  85.2009978 145.4760014  61.6679992  85.9689978 144.9850014
  61.2849992  84.5419978 145.3130014  61.8288497  85.2169745 145.3868260
  75.0829992  90.7799978 141.8780014  75.1559992  91.7189978 142.0490014
  75.9879992  90.4749978 141.8220014  75.2154158  90.8673061 141.8938392
  67.3939992  94.3569978 145.5390014  67.3179992  94.2359978 144.5930014
  67.4259992  95.3059978 145.6580014  67.3879156  94.4687530 145.4255048
  61.0469992  93.1459978 147.3200014  61.1989992  92.7979978 148.1990014
  60.1959992  92.7889978 147.0650014  60.9527899  93.0501738 147.4057340
  70.4949992  93.5109978 142.5410014  70.8699992  92.7669978 142.0710014
  70.4999992  93.2409978 143.4600014  70.5470024  93.3726950 142.6007987
  70.1639992  93.4369978 145.2910014  69.2289992  93.5369978 145.4690014
  70.4439992  92.7269978 145.8690014  70.0738173  93.3547239 145.3934998
  71.6719992  85.6959978 141.3190014  71.7139992  85.4739978 140.3890014
  72.5209992  86.0949978 141.5090014  71.7925253  85.7195498 141.2173822
  67.2449992  79.5719978 141.9890014  66.9909992  79.5909978 142.9120014
  66.9879992  78.7009978 141.6880014  67.1755133  79.4568110 142.0745082
  63.0079992  82.5439978 147.3360014  62.1159992  82.2039978 147.2780014
  63.4589992  82.1669978 146.5810014  62.9466815  82.4463762 147.2259203
  68.5439992  82.9599978 146.1530014  68.1349992  83.7749978 145.8620014
  69.2639992  82.8199978 145.5390014  68.5854013  83.0526571 146.0300875
  64.1269992  80.0179978 141.0900014  63.6959992  79.5729978 141.8200014
  63.4089992  80.3889978 140.5780014  63.9709363  80.0072968 141.1206211
  58.6439992  80.5059978 143.5660014  59.1179992  81.0969978 142.9810014
  57.9259992  81.0359978 143.9130014  58.6118640  80.6585511 143.5327969
  60.4179992  81.6009978 147.2490014  59.5289992  81.6999978 146.9090014
  60.7149992  80.7589978 146.9030014  60.3364177  81.5007687 147.1556940
  64.0709992  81.6009978 144.9060014  65.0029992  81.7299978 145.0840014
  63.8559992  82.2699978 144.2560014  64.1694472  81.7090806 144.8424891
  62.7449992  82.7949978 142.4730014  62.2029992  82.4159978 141.7810014
  63.5789992  82.9899978 142.0440014  62.7835159  82.7695076 142.3204419
  61.9119992  78.8959978 146.7280014  61.5949992  77.9929978 146.6930014
  62.6929992  78.8979978 146.1750014  61.9742307  78.7726951 146.6484314
  66.0809992  87.3609978 144.4080014  65.3359992  86.8529978 144.0860014
  65.9459992  87.4099978 145.3550014  65.9609047  87.2981596 144.4918845
  69.9779992  80.1749978 142.6080014  69.0399992  80.2859978 142.4560014
  70.2759992  81.0309978 142.9140014  69.8896402  80.3060621 142.6285571
  70.6969992  82.0419978 144.2680014  71.5889992  81.9039978 144.5870014
  70.7529992  82.8329978 143.7320014  70.8267107  82.1300526 144.2392091
  68.2059992  88.8189978 143.4340014  67.9109992  89.6459978 143.8150014
  67.5029992  88.1999978 143.6300014  68.0705471  88.8485227 143.5126698
  75.5819992  82.2509978 143.9630014  75.0269992  81.8549978 143.2910014
  75.6819992  83.1619978 143.6850014  75.5195888  82.3198990 143.8335206
  73.8769992  91.0369978 144.4280014  73.5039992  90.2119978 144.7370014
  74.1539992  90.8539978 143.5310014  73.8633871  90.8992441 144.3489677
  63.5799992  90.1739978 147.5820014  64.1079992  90.9469978 147.3820014
  62.6999992  90.3979978 147.2810014  63.5333176  90.3103161 147.5138409
  59.3349992  85.0359978 142.1700014  59.9509992  85.6629978 142.5490014
  58.4729992  85.3519978 142.4410014  59.3028195  85.1645798 142.2585386
  65.0079992  87.8369978 147.1590014  64.7669992  88.7619978 147.2000014
  64.2669992  87.3779978 147.5550014  64.8748390  87.9016403 147.2181404
  63.6909992  92.8579978 146.7040014  62.7409992  92.9639978 146.7550014
  64.0429992  93.6789978 147.0490014  63.6085480  92.9834438 146.7575999
  71.2689992  89.0139978 142.2480014  71.6229992  88.6339978 143.0530014
  70.3209992  88.9199978 142.3350014  71.1891820  88.9493092 142.3698714
  75.7729992  93.4929978 142.4490014  76.5169992  94.0789978 142.3090014
  75.0789992  94.0619978 142.7830014  75.7810201  93.6500603 142.4749772
  72.1349992  87.6859978 144.4750014  71.8579992  86.9579978 145.0310014
  73.0629992  87.8049978 144.6800014  72.2224499  87.6024213 144.5788044
  65.3599992  90.1259978 140.6950014  65.5989992  89.3769978 140.1480014
  65.0909992  89.7379978 141.5280014  65.3563233  89.9711853 140.7327809
  64.2969992  89.6959978 143.1520014  64.4439992  89.1759978 143.9420014
  64.2939992  90.6029978 143.4580014  64.3167300  89.7473964 143.3015895
  60.7499992  86.9479978 143.6620014  60.0639992  87.3009978 144.2290014
  61.2729992  87.7109978 143.4160014  60.7269033  87.0993746 143.7062661
  69.3659992  79.2629978 145.0380014  69.5859992  79.7339978 144.2350014
  69.9249992  79.6569978 145.7080014  69.4716730  79.3807432 145.0185906
  67.0349992  91.3929978 143.9010014  66.2179992  91.8899978 143.9530014
  67.5639992  91.8689978 143.2610014  66.9948508  91.5252543 143.8216035
  66.5659992  80.9909978 145.8730014  67.3779992  81.4949978 145.9190014
  66.3219992  80.8459978 146.7870014  66.6441467  81.0403749 146.0028575
  67.4499992  78.0719978 146.8110014  67.1029992  78.6889978 147.4560014
  68.1089992  78.5729978 146.3300014  67.4915949  78.2241099 146.8342271
  64.3729992  92.4369978 143.8830014  64.5339992  93.2369978 143.3820014
  64.1759992  92.7439978 144.7680014  64.3683919  92.5879129 143.9341006
  63.1079992  79.1349978 143.4980014  63.0239992  80.0229978 143.8450014
  63.9979992  78.8699978 143.7300014  63.2168163  79.2207179 143.5768596
  61.3659992  89.5619978 142.5590014  61.9579992  90.2619978 142.8350014
  61.8249992  89.1289978 141.8390014  61.5090791  89.5992908 142.4994607
  59.6819992  82.2269978 141.6750014  59.6369992  83.1659978 141.8530014
  58.7939992  81.9909978 141.4050014  59.5558555  82.3236874 141.6628939
  59.4209992  90.9489978 146.5080014  58.5879992  91.4209978 146.5360014
  59.9659992  91.4589978 145.9100014  59.3807590  91.0825897 146.4309194
  67.3979992  91.9889978 140.8340014  66.7539992  91.3579978 141.1550014
  68.1599992  91.4579978 140.6020014  67.4128058  91.8307902 140.8466038
  72.0029992  91.8059978 141.0680014  72.2859992  91.0109978 141.5200014
  72.7419992  92.0389978 140.5070014  72.1416956  91.7287031 141.0539822
  62.9569992  87.7149978 140.9250014  63.0219992  86.9209978 141.4560014
  63.6099992  87.5969978 140.2350014  63.0541754  87.5903337 140.9044259
  68.3099992  88.7619978 140.6610014  68.0409992  88.9429978 141.5620014
  68.1029992  87.8369978 140.5300014  68.2452000  88.6616774 140.7665693
  64.1069992  85.6879978 143.2310014  63.6469992  85.2039978 143.9170014
  64.3619992  85.0189978 142.5950014  64.0785038  85.5313689 143.2389447
  65.1779992  83.9309978 141.4930014  64.9969992  83.7759978 140.5660014
  66.1279992  84.0389978 141.5380014  65.2816566  83.9243669 141.3720929
  74.5679992  86.2849978 140.9390014  74.2939992  85.8609978 140.1260014
  74.6069992  87.2169978 140.7220014  74.5357716  86.3528827 140.7984286
  65.0749992  94.6209978 142.4950014  66.0079992  94.7789978 142.6380014
  64.8109992  95.2969978 141.8700014  65.1669308  94.7339104 142.4301396
  58.6429992  89.2579978 141.9770014  59.5569992  89.3369978 142.2510014
  58.6509992  88.5709978 141.3110014  58.7691143  89.1759085 141.9244274
  57.2919992  94.6509978 147.0550014  56.6449992  94.1889978 146.5220014
  57.6469992  93.9789978 147.6370014  57.2514506  94.4969503 147.0607341
  75.0259992  87.1539978 144.9140014  75.8759992  87.5749978 145.0410014
  75.0309992  86.4139978 145.5210014  75.1431143  87.1116094 145.0134750
  75.4199992  85.2079978 146.7380014  74.6939992  84.7279978 147.1350014
  76.0019992  85.4129978 147.4700014  75.3991635  85.1699166 146.8913748
  75.6889992  85.1089978 143.1290014  75.1669992  85.4649978 142.4100014
  75.6559992  85.7839978 143.8070014  75.6130699  85.2489848 143.1222129
  74.0379992  82.3479978 141.6800014  74.1339992  83.0149978 141.0000014
  73.8979992  81.5329978 141.1980014  74.0322063  82.3290667 141.5218377
  73.2069992  83.7289978 147.3010014  73.0569992  82.7839978 147.2800014
  72.8529992  84.0099978 148.1440014  73.1385527  83.6375605 147.4121859
  73.2849992  79.7559978 140.7970014  73.8959992  79.3849978 141.4340014
  72.4479992  79.3349978 140.9930014  73.2554947  79.6482755 140.9107252
  72.9179992  81.3109978 145.7630014  73.1969992  80.4039978 145.8870014
  73.6769992  81.7449978 145.3740014  73.0588619  81.2454502 145.7273795
  73.5309992  78.5739978 145.8110014  73.7129992  78.1249978 146.6370014
  72.9309992  77.9899978 145.3480014  73.4747529  78.4336131 145.8613619
  75.3979992  78.6419978 142.3390014  75.8099992  77.9209978 141.8640014
  76.0789992  79.3109978 142.3980014  75.5465900  78.6337306 142.2819038
  57.6789992  78.6469978 145.4660014  56.7539992  78.8549978 145.3370014
  58.1329992  79.1309978 144.7770014  57.6136374  78.7409949 145.3550957
  72.4489992  93.6309978 147.4120014  73.1019992  93.2829978 146.8040014
  72.9599992  94.1189978 148.0580014  72.6072777  93.6493815 147.4162047
  58.9549992  76.6899978 143.4450014  59.3939992  77.3009978 142.8530014
  58.3209992  77.2279978 143.9190014  58.9293859  76.8464064 143.4280305
  64.6979992  76.8179978 147.4550014  65.5719992  77.2069978 147.4250014
  64.5619992  76.6029978 148.3770014  64.7993207  76.8421923 147.5756509
  71.6079992  76.8739978 144.7960014  70.9049992  77.4889978 144.5870014
  71.1629992  76.0369978 144.9280014  71.4516292  76.8450085 144.7852439
  58.8559992  92.6379978 144.3430014  58.1709992  92.5999978 143.6750014
  58.8599992  93.5509978 144.6310014  58.7628174  92.7561998 144.2905310
  60.8159992  78.6059978 141.8870014  61.3069992  77.9759978 141.3600014
  61.4389992  78.9019978 142.5510014  60.9675062  78.5596770 141.9045438
  65.8419992  78.8989978 144.3450014  66.0199992  78.2519978 145.0270014
  65.7879992  79.7329978 144.8120014  65.8591025  78.9230504 144.5016433
  67.7199992  93.8469978 142.7400014  68.5859992  94.2139978 142.5620014
  67.4739992  93.4079978 141.9260014  67.8052097  93.8378525 142.6056019
  74.4289992  93.4099978 145.4190014  74.2349992  92.6619978 144.8540014
  74.3899992  94.1679978 144.8360014  74.3971645  93.4100786 145.2628148
  60.6739992  93.5579978 141.3680014  60.4059992  93.8439978 142.2410014
  61.4449992  93.0119978 141.5200014  60.7415600  93.5233330 141.5081499
  88.0529992  86.0479978 147.6000014  88.1419992  86.9919978 147.4680014
  87.4149992  85.7729978 146.9420014  87.9789062  86.1399812 147.4929641
  76.8879992  83.0269978 146.5400014  76.4399992  83.8729978 146.5210014
  76.3269992  82.4479978 146.0240014  76.7509603  83.0643674 146.4676720
  89.3929992  80.3619978 147.4260014  90.0399992  80.0329978 148.0510014
  89.9029992  80.8789978 146.8030014  89.5504317  80.3869227 147.4272167
  87.8499992  88.6489978 146.6430014  87.5549992  88.3259978 145.7920014
  87.5259992  89.5489978 146.6840014  87.7657983  88.7264026 146.5319771
  77.5789992  88.4599978 144.9560014  77.3069992  88.6889978 144.0670014
  77.6239992  89.2969978 145.4160014  77.5478709  88.6046058 144.8966107
  90.6159992  89.7629978 146.8020014  90.3579992  89.0729978 146.1910014
  90.6869992  89.3199978 147.6480014  90.5902837  89.6087106 146.8326912
  86.7739992  85.2919978 145.0520014  86.0629992  85.8269978 144.7000014
  87.4649992  85.3469978 144.3920014  86.7700751  85.3726777 144.9145858
  86.8279992  83.7489978 142.0910014  87.5289992  83.7719978 142.7420014
  87.1299992  83.1209978 141.4350014  86.9648282  83.6672339 142.0914496
  90.1799992  85.5009978 146.0040014  89.4479992  85.7299978 146.5770014
  90.6269992  84.7879978 146.4590014  90.1402753  85.4358972 146.1439715
  89.0509992  84.6639978 143.6890014  89.6299992  84.8139978 144.4360014
  89.4649992  85.1339978 142.9660014  89.1863122  84.7481277 143.6935042
  86.7769992  91.3999978 147.1240014  87.2509992  91.6959978 147.9020014
  86.2139992  92.1389978 146.8910014  86.7657361  91.5402721 147.1988611
  92.7499992  76.4139978 143.5020014  91.8499992  76.5529978 143.7970014
  93.0019992  77.2449978 143.1000014  92.6608683  76.5454055 143.4880232
  80.8159992  85.2009978 145.4760014  80.5239992  85.9689978 144.9850014
  80.1409992  84.5419978 145.3130014  80.6848497  85.2169745 145.3868260
  93.9389992  90.7799978 141.8780014  94.0119992  91.7189978 142.0490014
  94.8439992  90.4749978 141.8220014  94.0714158  90.8673061 141.8938392
  86.2499992  94.3569978 145.5390014  86.1739992  94.2359978 144.5930014
  86.2819992  95.3059978 145.6580014  86.2439156  94.4687530 145.4255048
  79.9029992  93.1459978 147.3200014  80.0549992  92.7979978 148.1990014
  79.0519992  92.7889978 147.0650014  79.8087899  93.0501738 147.4057340
  89.3509992  93.5109978 142.5410014  89.7259992  92.7669978 142.0710014
  89.3559992  93.2409978 143.4600014  89.4030024  93.3726950 142.6007987
  89.0199992  93.4369978 145.2910014  88.0849992  93.5369978 145.4690014
  89.2999992  92.7269978 145.8690014  88.9298173  93.3547239 145.3934998
  90.5279992  85.6959978 141.3190014  90.5699992  85.4739978 140.3890014
  91.3769992  86.0949978 141.5090014  90.6485253  85.7195498 141.2173822
  86.1009992  79.5719978 141.9890014  85.8469992  79.5909978 142.9120014
  85.8439992  78.7009978 141.6880014  86.0315133  79.4568110 142.0745082
  81.8639992  82.5439978 147.3360014  80.9719992  82.2039978 147.2780014
  82.3149992  82.1669978 146.5810014  81.8026815  82.4463762 147.2259203
  87.3999992  82.9599978 146.1530014  86.9909992  83.7749978 145.8620014
  88.1199992  82.8199978 145.5390014  87.4414013  83.0526571 146.0300875
  82.9829992  80.0179978 141.0900014  82.5519992  79.5729978 141.8200014
  82.2649992  80.3889978 140.5780014  82.8269363  80.0072968 141.1206211
  77.4999992  80.5059978 143.5660014  77.9739992  81.0969978 142.9810014
  76.7819992  81.0359978 143.9130014  77.4678640  80.6585511 143.5327969
  79.2739992  81.6009978 147.2490014  78.3849992  81.6999978 146.9090014
  79.5709992  80.7589978 146.9030014  79.1924177  81.5007687 147.1556940
  82.9269992  81.6009978 144.9060014  83.8589992  81.7299978 145.0840014
  82.7119992  82.2699978 144.2560014  83.0254472  81.7090806 144.8424891
  81.6009992  82.7949978 142.4730014  81.0589992  82.4159978 141.7810014
  82.4349992  82.9899978 142.0440014  81.6395159  82.7695076 142.3204419
  80.7679992  78.8959978 146.7280014  80.4509992  77.9929978 146.6930014
  81.5489992  78.8979978 146.1750014  80.8302307  78.7726951 146.6484314
  84.9369992  87.3609978 144.4080014  84.1919992  86.8529978 144.0860014
  84.8019992  87.4099978 145.3550014  84.8169047  87.2981596 144.4918845
  88.8339992  80.1749978 142.6080014  87.8959992  80.2859978 142.4560014
  89.1319992  81.0309978 142.9140014  88.7456402  80.3060621 142.6285571
  89.5529992  82.0419978 144.2680014  90.4449992  81.9039978 144.5870014
  89.6089992  82.8329978 143.7320014  89.6827107  82.1300526 144.2392091
  87.0619992  88.8189978 143.4340014  86.7669992  89.6459978 143.8150014
  86.3589992  88.1999978 143.6300014  86.9265471  88.8485227 143.5126698
  94.4379992  82.2509978 143.9630014  93.8829992  81.8549978 143.2910014
  94.5379992  83.1619978 143.6850014  94.3755888  82.3198990 143.8335206
  92.7329992  91.0369978 144.4280014  92.3599992  90.2119978 144.7370014
  93.0099992  90.8539978 143.5310014  92.7193871  90.8992441 144.3489677
  82.4359992  90.1739978 147.5820014  82.9639992  90.9469978 147.3820014
  81.5559992  90.3979978 147.2810014  82.3893176  90.3103161 147.5138409
  78.1909992  85.0359978 142.1700014  78.8069992  85.6629978 142.5490014
  77.3289992  85.3519978 142.4410014  78.1588195  85.1645798 142.2585386
  83.8639992  87.8369978 147.1590014  83.6229992  88.7619978 147.2000014
  83.1229992  87.3779978 147.5550014  83.7308390  87.9016403 147.2181404
  82.5469992  92.8579978 146.7040014  81.5969992  92.9639978 146.7550014
  82.8989992  93.6789978 147.0490014  82.4645480  92.9834438 146.7575999
  90.1249992  89.0139978 142.2480014  90.4789992  88.6339978 143.0530014
  89.1769992  88.9199978 142.3350014  90.0451820  88.9493092 142.3698714
  94.6289992  93.4929978 142.4490014  95.3729992  94.0789978 142.3090014
  93.9349992  94.0619978 142.7830014  94.6370201  93.6500603 142.4749772
  90.9909992  87.6859978 144.4750014  90.7139992  86.9579978 145.0310014
  91.9189992  87.8049978 144.6800014  91.0784499  87.6024213 144.5788044
  84.2159992  90.1259978 140.6950014  84.4549992  89.3769978 140.1480014
  83.9469992  89.7379978 141.5280014  84.2123233  89.9711853 140.7327809
  83.1529992  89.6959978 143.1520014  83.2999992  89.1759978 143.9420014
  83.1499992  90.6029978 143.4580014  83.1727300  89.7473964 143.3015895
  79.6059992  86.9479978 143.6620014  78.9199992  87.3009978 144.2290014
  80.1289992  87.7109978 143.4160014  79.5829033  87.0993746 143.7062661
  88.2219992  79.2629978 145.0380014  88.4419992  79.7339978 144.2350014
  88.7809992  79.6569978 145.7080014  88.3276730  79.3807432 145.0185906
  85.8909992  91.3929978 143.9010014  85.0739992  91.8899978 143.9530014
  86.4199992  91.8689978 143.2610014  85.8508508  91.5252543 143.8216035
  85.4219992  80.9909978 145.8730014  86.2339992  81.4949978 145.9190014
  85.1779992  80.8459978 146.7870014  85.5001467  81.0403749 146.0028575
  86.3059992  78.0719978 146.8110014  85.9589992  78.6889978 147.4560014
  86.9649992  78.5729978 146.3300014  86.3475949  78.2241099 146.8342271
  83.2289992  92.4369978 143.8830014  83.3899992  93.2369978 143.3820014
  83.0319992  92.7439978 144.7680014  83.2243919  92.5879129 143.9341006
  81.9639992  79.1349978 143.4980014  81.8799992  80.0229978 143.8450014
  82.8539992  78.8699978 143.7300014  82.0728163  79.2207179 143.5768596
  80.2219992  89.5619978 142.5590014  80.8139992  90.2619978 142.8350014
  80.6809992  89.1289978 141.8390014  80.3650791  89.5992908 142.4994607
  78.5379992  82.2269978 141.6750014  78.4929992  83.1659978 141.8530014
  77.6499992  81.9909978 141.4050014  78.4118555  82.3236874 141.6628939
  78.2769992  90.9489978 146.5080014  77.4439992  91.4209978 146.5360014
  78.8219992  91.4589978 145.9100014  78.2367590  91.0825897 146.4309194
  86.2539992  91.9889978 140.8340014  85.6099992  91.3579978 141.1550014
  87.0159992  91.4579978 140.6020014  86.2688058  91.8307902 140.8466038
  90.8589992  91.8059978 141.0680014  91.1419992  91.0109978 141.5200014
  91.5979992  92.0389978 140.5070014  90.9976956  91.7287031 141.0539822
  81.8129992  87.7149978 140.9250014  81.8779992  86.9209978 141.4560014
  82.4659992  87.5969978 140.2350014  81.9101754  87.5903337 140.9044259
  87.1659992  88.7619978 140.6610014  86.8969992  88.9429978 141.5620014
  86.9589992  87.8369978 140.5300014  87.1012000  88.6616774 140.7665693
  82.9629992  85.6879978 143.2310014  82.5029992  85.2039978 143.9170014
  83.2179992  85.0189978 142.5950014  82.9345038  85.5313689 143.2389447
  84.0339992  83.9309978 141.4930014  83.8529992  83.7759978 140.5660014
  84.9839992  84.0389978 141.5380014  84.1376566  83.9243669 141.3720929
  93.4239992  86.2849978 140.9390014  93.1499992  85.8609978 140.1260014
  93.4629992  87.2169978 140.7220014  93.3917716  86.3528827 140.7984286
  83.9309992  94.6209978 142.4950014  84.8639992  94.7789978 142.6380014
  83.6669992  95.2969978 141.8700014  84.0229308  94.7339104 142.4301396
  77.4989992  89.2579978 141.9770014  78.4129992  89.3369978 142.2510014
  77.5069992  88.5709978 141.3110014  77.6251143  89.1759085 141.9244274
  76.1479992  94.6509978 147.0550014  75.5009992  94.1889978 146.5220014
  76.5029992  93.9789978 147.6370014  76.1074506  94.4969503 147.0607341
  93.8819992  87.1539978 144.9140014  94.7319992  87.5749978 145.0410014
  93.8869992  86.4139978 145.5210014  93.9991143  87.1116094 145.0134750
  94.2759992  85.2079978 146.7380014  93.5499992  84.7279978 147.1350014
  94.8579992  85.4129978 147.4700014  94.2551635  85.1699166 146.8913748
  94.5449992  85.1089978 143.1290014  94.0229992  85.4649978 142.4100014
  94.5119992  85.7839978 143.8070014  94.4690699  85.2489848 143.1222129
  92.8939992  82.3479978 141.6800014  92.9899992  83.0149978 141.0000014
  92.7539992  81.5329978 141.1980014  92.8882063  82.3290667 141.5218377
  92.0629992  83.7289978 147.3010014  91.9129992  82.7839978 147.2800014
  91.7089992  84.0099978 148.1440014  91.9945527  83.6375605 147.4121859
  92.1409992  79.7559978 140.7970014  92.7519992  79.3849978 141.4340014
  91.3039992  79.3349978 140.9930014  92.1114947  79.6482756 140.9107252
  91.7739992  81.3109978 145.7630014  92.0529992  80.4039978 145.8870014
  92.5329992  81.7449978 145.3740014  91.9148619  81.2454502 145.7273795
  92.3869992  78.5739978 145.8110014  92.5689992  78.1249978 146.6370014
  91.7869992  77.9899978 145.3480014  92.3307529  78.4336131 145.8613619
  94.2539992  78.6419978 142.3390014  94.6659992  77.9209978 141.8640014
  94.9349992  79.3109978 142.3980014  94.4025900  78.6337306 142.2819038
  76.5349992  78.6469978 145.4660014  75.6099992  78.8549978 145.3370014
  76.9889992  79.1309978 144.7770014  76.4696374  78.7409949 145.3550957
  91.3049992  93.6309978 147.4120014  91.9579992  93.2829978 146.8040014
  91.8159992  94.1189978 148.0580014  91.4632777  93.6493815 147.4162047
  77.8109992  76.6899978 143.4450014  78.2499992  77.3009978 142.8530014
  77.1769992  77.2279978 143.9190014  77.7853859  76.8464064 143.4280305
  83.5539992  76.8179978 147.4550014  84.4279992  77.2069978 147.4250014
  83.4179992  76.6029978 148.3770014  83.6553207  76.8421923 147.5756509
  90.4639992  76.8739978 144.7960014  89.7609992  77.4889978 144.5870014
  90.0189992  76.0369978 144.9280014  90.3076292  76.8450085 144.7852439
  77.7119992  92.6379978 144.3430014  77.0269992  92.5999978 143.6750014
  77.7159992  93.5509978 144.6310014  77.6188174  92.7561998 144.2905310
  79.6719992  78.6059978 141.8870014  80.1629992  77.9759978 141.3600014
  80.2949992  78.9019978 142.5510014  79.8235062  78.5596770 141.9045438
  84.6979992  78.8989978 144.3450014  84.8759992  78.2519978 145.0270014
  84.6439992  79.7329978 144.8120014  84.7151025  78.9230504 144.5016433
  86.5759992  93.8469978 142.7400014  87.4419992  94.2139978 142.5620014
  86.3299992  93.4079978 141.9260014  86.6612097  93.8378525 142.6056019
  93.2849992  93.4099978 145.4190014  93.0909992  92.6619978 144.8540014
  93.2459992  94.1679978 144.8360014  93.2531645  93.4100786 145.2628148
  79.5299992  93.5579978 141.3680014  79.2619992  93.8439978 142.2410014
  80.3009992  93.0119978 141.5200014  79.5975600  93.5233330 141.5081499
 106.9089992  86.0479978 147.6000014 106.9979992  86.9919978 147.4680014
 106.2709992  85.7729978 146.9420014 106.8349062  86.1399812 147.4929641
  95.7439992  83.0269978 146.5400014  95.2959992  83.8729978 146.5210014
  95.1829992  82.4479978 146.0240014  95.6069603  83.0643674 146.4676720
 108.2489992  80.3619978 147.4260014 108.8959992  80.0329978 148.0510014
 108.7589992  80.8789978 146.8030014 108.4064317  80.3869227 147.4272167
 106.7059992  88.6489978 146.6430014 106.4109992  88.3259978 145.7920014
 106.3819992  89.5489978 146.6840014 106.6217983  88.7264027 146.5319771
  96.4349992  88.4599978 144.9560014  96.1629992  88.6889978 144.0670014
  96.4799992  89.2969978 145.4160014  96.4038709  88.6046058 144.8966107
 109.4719992  89.7629978 146.8020014 109.2139992  89.0729978 146.1910014
 109.5429992  89.3199978 147.6480014 109.4462837  89.6087106 146.8326912
 105.6299992  85.2919978 145.0520014 104.9189992  85.8269978 144.7000014
 106.3209992  85.3469978 144.3920014 105.6260751  85.3726777 144.9145858
 105.6839992  83.7489978 142.0910014 106.3849992  83.7719978 142.7420014
 105.9859992  83.1209978 141.4350014 105.8208282  83.6672339 142.0914496
 109.0359992  85.5009978 146.0040014 108.3039992  85.7299978 146.5770014
 109.4829992  84.7879978 146.4590014 108.9962753  85.4358972 146.1439715
 107.9069992  84.6639978 143.6890014 108.4859992  84.8139978 144.4360014
 108.3209992  85.1339978 142.9660014 108.0423122  84.7481277 143.6935042
 105.6329992  91.3999978 147.1240014 106.1069992  91.6959978 147.9020014
 105.0699992  92.1389978 146.8910014 105.6217361  91.5402721 147.1988611
 111.6059992  76.4139978 143.5020014 110.7059992  76.5529978 143.7970014
 111.8579992  77.2449978 143.1000014 111.5168683  76.5454055 143.4880232
  99.6719992  85.2009978 145.4760014  99.3799992  85.9689978 144.9850014
  98.9969992  84.5419978 145.3130014  99.5408497  85.2169745 145.3868260
 112.7949992  90.7799978 141.8780014 112.8679992  91.7189978 142.0490014
 113.6999992  90.4749978 141.8220014 112.9274158  90.8673061 141.8938392
 105.1059992  94.3569978 145.5390014 105.0299992  94.2359978 144.5930014
 105.1379992  95.3059978 145.6580014 105.0999156  94.4687530 145.4255048
  98.7589992  93.1459978 147.3200014  98.9109992  92.7979978 148.1990014
  97.9079992  92.7889978 147.0650014  98.6647899  93.0501738 147.4057340
 108.2069992  93.5109978 142.5410014 108.5819992  92.7669978 142.0710014
 108.2119992  93.2409978 143.4600014 108.2590024  93.3726950 142.6007987
 107.8759992  93.4369978 145.2910014 106.9409992  93.5369978 145.4690014
 108.1559992  92.7269978 145.8690014 107.7858173  93.3547239 145.3934998
 109.3839992  85.6959978 141.3190014 109.4259992  85.4739978 140.3890014
 110.2329992  86.0949978 141.5090014 109.5045253  85.7195498 141.2173822
 104.9569992  79.5719978 141.9890014 104.7029992  79.5909978 142.9120014
 104.6999992  78.7009978 141.6880014 104.8875133  79.4568110 142.0745082
 100.7199992  82.5439978 147.3360014  99.8279992  82.2039978 147.2780014
 101.1709992  82.1669978 146.5810014 100.6586815  82.4463762 147.2259203
 106.2559992  82.9599978 146.1530014 105.8469992  83.7749978 145.8620014
 106.9759992  82.8199978 145.5390014 106.2974013  83.0526571 146.0300875
 101.8389992  80.0179978 141.0900014 101.4079992  79.5729978 141.8200014
 101.1209992  80.3889978 140.5780014 101.6829363  80.0072968 141.1206211
  96.3559992  80.5059978 143.5660014  96.8299992  81.0969978 142.9810014
  95.6379992  81.0359978 143.9130014  96.3238640  80.6585511 143.5327969
  98.1299992  81.6009978 147.2490014  97.2409992  81.6999978 146.9090014
  98.4269992  80.7589978 146.9030014  98.0484177  81.5007687 147.1556940
 101.7829992  81.6009978 144.9060014 102.7149992  81.7299978 145.0840014
 101.5679992  82.2699978 144.2560014 101.8814472  81.7090806 144.8424891
 100.4569992  82.7949978 142.4730014  99.9149992  82.4159978 141.7810014
 101.2909992  82.9899978 142.0440014 100.4955159  82.7695076 142.3204419
  99.6239992  78.8959978 146.7280014  99.3069992  77.9929978 146.6930014
 100.4049992  78.8979978 146.1750014  99.6862307  78.7726951 146.6484314
 103.7929992  87.3609978 144.4080014 103.0479992  86.8529978 144.0860014
 103.6579992  87.4099978 145.3550014 103.6729047  87.2981596 144.4918845
 107.6899992  80.1749978 142.6080014 106.7519992  80.2859978 142.4560014
 107.9879992  81.0309978 142.9140014 107.6016402  80.3060621 142.6285571
 108.4089992  82.0419978 144.2680014 109.3009992  81.9039978 144.5870014
 108.4649992  82.8329978 143.7320014 108.5387107  82.1300526 144.2392091
 105.9179992  88.8189978 143.4340014 105.6229992  89.6459978 143.8150014
 105.2149992  88.1999978 143.6300014 105.7825471  88.8485227 143.5126698
 113.2939992  82.2509978 143.9630014 112.7389992  81.8549978 143.2910014
 113.3939992  83.1619978 143.6850014 113.2315888  82.3198990 143.8335206
 111.5889992  91.0369978 144.4280014 111.2159992  90.2119978 144.7370014
 111.8659992  90.8539978 143.5310014 111.5753871  90.8992441 144.3489677
 101.2919992  90.1739978 147.5820014 101.8199992  90.9469978 147.3820014
 100.4119992  90.3979978 147.2810014 101.2453176  90.3103161 147.5138409
  97.0469992  85.0359978 142.1700014  97.6629992  85.6629978 142.5490014
  96.1849992  85.3519978 142.4410014  97.0148195  85.1645798 142.2585386
 102.7199992  87.8369978 147.1590014 102.4789992  88.7619978 147.2000014
 101.9789992  87.3779978 147.5550014 102.5868390  87.9016403 147.2181404
 101.4029992  92.8579978 146.7040014 100.4529992  92.9639978 146.7550014
 101.7549992  93.6789978 147.0490014 101.3205480  92.9834438 146.7575999
 108.9809992  89.0139978 142.2480014 109.3349992  88.6339978 143.0530014
 108.0329992  88.9199978 142.3350014 108.9011820  88.9493092 142.3698714
 113.4849992  93.4929978 142.4490014 114.2289992  94.0789978 142.3090014
 112.7909992  94.0619978 142.7830014 113.4930201  93.6500603 142.4749772
 109.8469992  87.6859978 144.4750014 109.5699992  86.9579978 145.0310014
 110.7749992  87.8049978 144.6800014 109.9344499  87.6024213 144.5788044
 103.0719992  90.1259978 140.6950014 103.3109992  89.3769978 140.1480014
 102.8029992  89.7379978 141.5280014 103.0683233  89.9711853 140.7327809
 102.0089992  89.6959978 143.1520014 102.1559992  89.1759978 143.9420014
 102.0059992  90.6029978 143.4580014 102.0287300  89.7473964 143.3015895
  98.4619992  86.9479978 143.6620014  97.7759992  87.3009978 144.2290014
  98.9849992  87.7109978 143.4160014  98.4389033  87.0993746 143.7062661
 107.0779992  79.2629978 145.0380014 107.2979992  79.7339978 144.2350014
 107.6369992  79.6569978 145.7080014 107.1836730  79.3807432 145.0185906
 104.7469992  91.3929978 143.9010014 103.9299992  91.8899978 143.9530014
 105.2759992  91.8689978 143.2610014 104.7068508  91.5252543 143.8216035
 104.2779992  80.9909978 145.8730014 105.0899992  81.4949978 145.9190014
 104.0339992  80.8459978 146.7870014 104.3561467  81.0403749 146.0028575
 105.1619992  78.0719978 146.8110014 104.8149992  78.6889978 147.4560014
 105.8209992  78.5729978 146.3300014 105.2035949  78.2241099 146.8342271
 102.0849992  92.4369978 143.8830014 102.2459992  93.2369978 143.3820014
 101.8879992  92.7439978 144.7680014 102.0803919  92.5879129 143.9341006
 100.8199992  79.1349978 143.4980014 100.7359992  80.0229978 143.8450014
 101.7099992  78.8699978 143.7300014 100.9288163  79.2207179 143.5768596
  99.0779992  89.5619978 142.5590014  99.6699992  90.2619978 142.8350014
  99.5369992  89.1289978 141.8390014  99.2210791  89.5992908 142.4994607
  97.3939992  82.2269978 141.6750014  97.3489992  83.1659978 141.8530014
  96.5059992  81.9909978 141.4050014  97.2678555  82.3236874 141.6628939
  97.1329992  90.9489978 146.5080014  96.2999992  91.4209978 146.5360014
  97.6779992  91.4589978 145.9100014  97.0927590  91.0825897 146.4309194
 105.1099992  91.9889978 140.8340014 104.4659992  91.3579978 141.1550014
 105.8719992  91.4579978 140.6020014 105.1248058  91.8307902 140.8466038
 109.7149992  91.8059978 141.0680014 109.9979992  91.0109978 141.5200014
 110.4539992  92.0389978 140.5070014 109.8536956  91.7287031 141.0539822
 100.6689992  87.7149978 140.9250014 100.7339992  86.9209978 141.4560014
 101.3219992  87.5969978 140.2350014 100.7661754  87.5903337 140.9044259
 106.0219992  88.7619978 140.6610014 105.7529992  88.9429978 141.5620014
 105.8149992  87.8369978 140.5300014 105.9572000  88.6616774 140.7665693
 101.8189992  85.6879978 143.2310014 101.3589992  85.2039978 143.9170014
 102.0739992  85.0189978 142.5950014 101.7905038  85.5313689 143.2389447
 102.8899992  83.9309978 141.4930014 102.7089992  83.7759978 140.5660014
 103.8399992  84.0389978 141.5380014 102.9936566  83.9243669 141.3720929
 112.2799992  86.2849978 140.9390014 112.0059992  85.8609978 140.1260014
 112.3189992  87.2169978 140.7220014 112.2477716  86.3528827 140.7984286
 102.7869992  94.6209978 142.4950014 103.7199992  94.7789978 142.6380014
 102.5229992  95.2969978 141.8700014 102.8789308  94.7339104 142.4301396
  96.3549992  89.2579978 141.9770014  97.2689992  89.3369978 142.2510014
  96.3629992  88.5709978 141.3110014  96.4811143  89.1759085 141.9244274
  95.0039992  94.6509978 147.0550014  94.3569992  94.1889978 146.5220014
  95.3589992  93.9789978 147.6370014  94.9634506  94.4969503 147.0607341
 112.7379992  87.1539978 144.9140014 113.5879992  87.5749978 145.0410014
 112.7429992  86.4139978 145.5210014 112.8551143  87.1116094 145.0134750
 113.1319992  85.2079978 146.7380014 112.4059992  84.7279978 147.1350014
 113.7139992  85.4129978 147.4700014 113.1111635  85.1699166 146.8913748
 113.4009992  85.1089978 143.1290014 112.8789992  85.4649978 142.4100014
 113.3679992  85.7839978 143.8070014 113.3250699  85.2489848 143.1222129
 111.7499992  82.3479978 141.6800014 111.8459992  83.0149978 141.0000014
 111.6099992  81.5329978 141.1980014 111.7442063  82.3290667 141.5218377
 110.9189992  83.7289978 147.3010014 110.7689992  82.7839978 147.2800014
 110.5649992  84.0099978 148.1440014 110.8505527  83.6375605 147.4121859
 110.9969992  79.7559978 140.7970014 111.6079992  79.3849978 141.4340014
 110.1599992  79.3349978 140.9930014 110.9674947  79.6482756 140.9107252
 110.6299992  81.3109978 145.7630014 110.9089992  80.4039978 145.8870014
 111.3889992  81.7449978 145.3740014 110.7708619  81.2454502 145.7273795
 111.2429992  78.5739978 145.8110014 111.4249992  78.1249978 146.6370014
 110.6429992  77.9899978 145.3480014 111.1867529  78.4336131 145.8613619
 113.1099992  78.6419978 142.3390014 113.5219992  77.9209978 141.8640014
 113.7909992  79.3109978 142.3980014 113.2585900  78.6337306 142.2819038
  95.3909992  78.6469978 145.4660014  94.4659992  78.8549978 145.3370014
  95.8449992  79.1309978 144.7770014  95.3256374  78.7409949 145.3550957
 110.1609992  93.6309978 147.4120014 110.8139992  93.2829978 146.8040014
 110.6719992  94.1189978 148.0580014 110.3192777  93.6493815 147.4162047
  96.6669992  76.6899978 143.4450014  97.1059992  77.3009978 142.8530014
  96.0329992  77.2279978 143.9190014  96.6413859  76.8464064 143.4280305
 102.4099992  76.8179978 147.4550014 103.2839992  77.2069978 147.4250014
 102.2739992  76.6029978 148.3770014 102.5113207  76.8421923 147.5756509
 109.3199992  76.8739978 144.7960014 108.6169992  77.4889978 144.5870014
 108.8749992  76.0369978 144.9280014 109.1636292  76.8450085 144.7852439
  96.5679992  92.6379978 144.3430014  95.8829992  92.5999978 143.6750014
  96.5719992  93.5509978 144.6310014  96.4748174  92.7561998 144.2905310
  98.5279992  78.6059978 141.8870014  99.0189992  77.9759978 141.3600014
  99.1509992  78.9019978 142.5510014  98.6795062  78.5596770 141.9045438
 103.5539992  78.8989978 144.3450014 103.7319992  78.2519978 145.0270014
 103.4999992  79.7329978 144.8120014 103.5711025  78.9230504 144.5016433
 105.4319992  93.8469978 142.7400014 106.2979992  94.2139978 142.5620014
 105.1859992  93.4079978 141.9260014 105.5172097  93.8378525 142.6056019
 112.1409992  93.4099978 145.4190014 111.9469992  92.6619978 144.8540014
 112.1019992  94.1679978 144.8360014 112.1091645  93.4100786 145.2628148
  98.3859992  93.5579978 141.3680014  98.1179992  93.8439978 142.2410014
  99.1569992  93.0119978 141.5200014  98.4535600  93.5233330 141.5081499
 125.7649992  86.0479978 147.6000014 125.8539992  86.9919978 147.4680014
 125.1269992  85.7729978 146.9420014 125.6909062  86.1399812 147.4929641
 114.5999992  83.0269978 146.5400014 114.1519992  83.8729978 146.5210014
 114.0389992  82.4479978 146.0240014 114.4629603  83.0643674 146.4676720
 127.1049992  80.3619978 147.4260014 127.7519992  80.0329978 148.0510014
 127.6149992  80.8789978 146.8030014 127.2624317  80.3869227 147.4272167
 125.5619992  88.6489978 146.6430014 125.2669992  88.3259978 145.7920014
 125.2379992  89.5489978 146.6840014 125.4777983  88.7264027 146.5319771
 115.2909992  88.4599978 144.9560014 115.0189992  88.6889978 144.0670014
 115.3359992  89.2969978 145.4160014 115.2598709  88.6046058 144.8966107
 128.3279992  89.7629978 146.8020014 128.0699992  89.0729978 146.1910014
 128.3989992  89.3199978 147.6480014 128.3022837  89.6087106 146.8326912
 124.4859992  85.2919978 145.0520014 123.7749992  85.8269978 144.7000014
 125.1769992  85.3469978 144.3920014 124.4820751  85.3726777 144.9145858
 124.5399992  83.7489978 142.0910014 125.2409992  83.7719978 142.7420014
 124.8419992  83.1209978 141.4350014 124.6768282  83.6672339 142.0914496
 127.8919992  85.5009978 146.0040014 127.1599992  85.7299978 146.5770014
 128.3389992  84.7879978 146.4590014 127.8522753  85.4358972 146.1439715
 126.7629992  84.6639978 143.6890014 127.3419992  84.8139978 144.4360014
 127.1769992  85.1339978 142.9660014 126.8983122  84.7481277 143.6935042
 124.4889992  91.3999978 147.1240014 124.9629992  91.6959978 147.9020014
 123.9259992  92.1389978 146.8910014 124.4777361  91.5402721 147.1988611
 130.4619992  76.4139978 143.5020014 129.5619992  76.5529978 143.7970014
 130.7139992  77.2449978 143.1000014 130.3728683  76.5454055 143.4880232
 118.5279992  85.2009978 145.4760014 118.2359992  85.9689978 144.9850014
 117.8529992  84.5419978 145.3130014 118.3968497  85.2169745 145.3868260
 131.6509992  90.7799978 141.8780014 131.7239992  91.7189978 142.0490014
 132.5559992  90.4749978 141.8220014 131.7834158  90.8673061 141.8938392
 123.9619992  94.3569978 145.5390014 123.8859992  94.2359978 144.5930014
 123.9939992  95.3059978 145.6580014 123.9559156  94.4687530 145.4255048
 117.6149992  93.1459978 147.3200014 117.7669992  92.7979978 148.1990014
 116.7639992  92.7889978 147.0650014 117.5207899  93.0501738 147.4057340
 127.0629992  93.5109978 142.5410014 127.4379992  92.7669978 142.0710014
 127.0679992  93.2409978 143.4600014 127.1150024  93.3726950 142.6007987
 126.7319992  93.4369978 145.2910014 125.7969992  93.5369978 145.4690014
 127.0119992  92.7269978 145.8690014 126.6418173  93.3547239 145.3934998
 128.2399992  85.6959978 141.3190014 128.2819992  85.4739978 140.3890014
 129.0889992  86.0949978 141.5090014 128.3605253  85.7195498 141.2173822
 123.8129992  79.5719978 141.9890014 123.5589992  79.5909978 142.9120014
 123.5559992  78.7009978 141.6880014 123.7435133  79.4568110 142.0745082
 119.5759992  82.5439978 147.3360014 118.6839992  82.2039978 147.2780014
 120.0269992  82.1669978 146.5810014 119.5146815  82.4463762 147.2259203
 125.1119992  82.9599978 146.1530014 124.7029992  83.7749978 145.8620014
 125.8319992  82.8199978 145.5390014 125.1534013  83.0526571 146.0300875
 120.6949992  80.0179978 141.0900014 120.2639992  79.5729978 141.8200014
 119.9769992  80.3889978 140.5780014 120.5389363  80.0072968 141.1206211
 115.2119992  80.5059978 143.5660014 115.6859992  81.0969978 142.9810014
 114.4939992  81.0359978 143.9130014 115.1798640  80.6585511 143.5327969
 116.9859992  81.6009978 147.2490014 116.0969992  81.6999978 146.9090014
 117.2829992  80.7589978 146.9030014 116.9044177  81.5007687 147.1556940
 120.6389992  81.6009978 144.9060014 121.5709992  81.7299978 145.0840014
 120.4239992  82.2699978 144.2560014 120.7374472  81.7090806 144.8424891
 119.3129992  82.7949978 142.4730014 118.7709992  82.4159978 141.7810014
 120.1469992  82.9899978 142.0440014 119.3515159  82.7695076 142.3204419
 118.4799992  78.8959978 146.7280014 118.1629992  77.9929978 146.6930014
 119.2609992  78.8979978 146.1750014 118.5422307  78.7726951 146.6484314
 122.6489992  87.3609978 144.4080014 121.9039992  86.8529978 144.0860014
 122.5139992  87.4099978 145.3550014 122.5289047  87.2981596 144.4918845
 126.5459992  80.1749978 142.6080014 125.6079992  80.2859978 142.4560014
 126.8439992  81.0309978 142.9140014 126.4576402  80.3060621 142.6285571
 127.2649992  82.0419978 144.2680014 128.1569992  81.9039978 144.5870014
 127.3209992  82.8329978 143.7320014 127.3947107  82.1300526 144.2392091
 124.7739992  88.8189978 143.4340014 124.4789992  89.6459978 143.8150014
 124.0709992  88.1999978 143.6300014 124.6385471  88.8485227 143.5126698
 132.1499992  82.2509978 143.9630014 131.5949992  81.8549978 143.2910014
 132.2499992  83.1619978 143.6850014 132.0875888  82.3198990 143.8335206
 130.4449992  91.0369978 144.4280014 130.0719992  90.2119978 144.7370014
 130.7219992  90.8539978 143.5310014 130.4313871  90.8992441 144.3489677
 120.1479992  90.1739978 147.5820014 120.6759992  90.9469978 147.3820014
 119.2679992  90.3979978 147.2810014 120.1013176  90.3103161 147.5138409
 115.9029992  85.0359978 142.1700014 116.5189992  85.6629978 142.5490014
 115.0409992  85.3519978 142.4410014 115.8708195  85.1645798 142.2585386
 121.5759992  87.8369978 147.1590014 121.3349992  88.7619978 147.2000014
 120.8349992  87.3779978 147.5550014 121.4428390  87.9016403 147.2181404
 120.2589992  92.8579978 146.7040014 119.3089992  92.9639978 146.7550014
 120.6109992  93.6789978 147.0490014 120.1765480  92.9834438 146.7575999
 127.8369992  89.0139978 142.2480014 128.1909992  88.6339978 143.0530014
 126.8889992  88.9199978 142.3350014 127.7571820  88.9493092 142.3698714
 132.3409992  93.4929978 142.4490014 133.0849992  94.0789978 142.3090014
 131.6469992  94.0619978 142.7830014 132.3490201  93.6500603 142.4749772
 128.7029992  87.6859978 144.4750014 128.4259992  86.9579978 145.0310014
 129.6309992  87.8049978 144.6800014 128.7904499  87.6024213 144.5788044
 121.9279992  90.1259978 140.6950014 122.1669992  89.3769978 140.1480014
 121.6589992  89.7379978 141.5280014 121.9243233  89.9711853 140.7327809
 120.8649992  89.6959978 143.1520014 121.0119992  89.1759978 143.9420014
 120.8619992  90.6029978 143.4580014 120.8847300  89.7473964 143.3015895
 117.3179992  86.9479978 143.6620014 116.6319992  87.3009978 144.2290014
 117.8409992  87.7109978 143.4160014 117.2949033  87.0993746 143.7062661
 125.9339992  79.2629978 145.0380014 126.1539992  79.7339978 144.2350014
 126.4929992  79.6569978 145.7080014 126.0396730  79.3807432 145.0185906
 123.6029992  91.3929978 143.9010014 122.7859992  91.8899978 143.9530014
 124.1319992  91.8689978 143.2610014 123.5628508  91.5252543 143.8216035
 123.1339992  80.9909978 145.8730014 123.9459992  81.4949978 145.9190014
 122.8899992  80.8459978 146.7870014 123.2121467  81.0403749 146.0028575
 124.0179992  78.0719978 146.8110014 123.6709992  78.6889978 147.4560014
 124.6769992  78.5729978 146.3300014 124.0595950  78.2241099 146.8342271
 120.9409992  92.4369978 143.8830014 121.1019992  93.2369978 143.3820014
 120.7439992  92.7439978 144.7680014 120.9363919  92.5879129 143.9341006
 119.6759992  79.1349978 143.4980014 119.5919992  80.0229978 143.8450014
 120.5659992  78.8699978 143.7300014 119.7848163  79.2207179 143.5768596
 117.9339992  89.5619978 142.5590014 118.5259992  90.2619978 142.8350014
 118.3929992  89.1289978 141.8390014 118.0770791  89.5992908 142.4994607
 116.2499992  82.2269978 141.6750014 116.2049992  83.1659978 141.8530014
 115.3619992  81.9909978 141.4050014 116.1238555  82.3236874 141.6628939
 115.9889992  90.9489978 146.5080014 115.1559992  91.4209978 146.5360014
 116.5339992  91.4589978 145.9100014 115.9487590  91.0825897 146.4309194
 123.9659992  91.9889978 140.8340014 123.3219992  91.3579978 141.1550014
 124.7279992  91.4579978 140.6020014 123.9808058  91.8307902 140.8466038
 128.5709992  91.8059978 141.0680014 128.8539992  91.0109978 141.5200014
 129.3099992  92.0389978 140.5070014 128.7096956  91.7287031 141.0539822
 119.5249992  87.7149978 140.9250014 119.5899992  86.9209978 141.4560014
 120.1779992  87.5969978 140.2350014 119.6221754  87.5903337 140.9044259
 124.8779992  88.7619978 140.6610014 124.6089992  88.9429978 141.5620014
 124.6709992  87.8369978 140.5300014 124.8132000  88.6616774 140.7665693
 120.6749992  85.6879978 143.2310014 120.2149992  85.2039978 143.9170014
 120.9299992  85.0189978 142.5950014 120.6465038  85.5313689 143.2389447
 121.7459992  83.9309978 141.4930014 121.5649992  83.7759978 140.5660014
 122.6959992  84.0389978 141.5380014 121.8496566  83.9243669 141.3720929
 131.1359992  86.2849978 140.9390014 130.8619992  85.8609978 140.1260014
 131.1749992  87.2169978 140.7220014 131.1037716  86.3528827 140.7984286
 121.6429992  94.6209978 142.4950014 122.5759992  94.7789978 142.6380014
 121.3789992  95.2969978 141.8700014 121.7349308  94.7339104 142.4301396
 115.2109992  89.2579978 141.9770014 116.1249992  89.3369978 142.2510014
 115.2189992  88.5709978 141.3110014 115.3371143  89.1759085 141.9244274
 113.8599992  94.6509978 147.0550014 113.2129992  94.1889978 146.5220014
 114.2149992  93.9789978 147.6370014 113.8194506  94.4969503 147.0607341
 131.5939992  87.1539978 144.9140014 132.4439992  87.5749978 145.0410014
 131.5989992  86.4139978 145.5210014 131.7111143  87.1116094 145.0134750
 131.9879992  85.2079978 146.7380014 131.2619992  84.7279978 147.1350014
 132.5699992  85.4129978 147.4700014 131.9671635  85.1699166 146.8913748
 132.2569992  85.1089978 143.1290014 131.7349992  85.4649978 142.4100014
 132.2239992  85.7839978 143.8070014 132.1810699  85.2489848 143.1222129
 130.6059992  82.3479978 141.6800014 130.7019992  83.0149978 141.0000014
 130.4659992  81.5329978 141.1980014 130.6002063  82.3290667 141.5218377
 129.7749992  83.7289978 147.3010014 129.6249992  82.7839978 147.2800014
 129.4209992  84.0099978 148.1440014 129.7065527  83.6375605 147.4121859
 129.8529992  79.7559978 140.7970014 130.4639992  79.3849978 141.4340014
 129.0159992  79.3349978 140.9930014 129.8234947  79.6482756 140.9107252
 129.4859992  81.3109978 145.7630014 129.7649992  80.4039978 145.8870014
 130.2449992  81.7449978 145.3740014 129.6268619  81.2454502 145.7273795
 130.0989992  78.5739978 145.8110014 130.2809992  78.1249978 146.6370014
 129.4989992  77.9899978 145.3480014 130.0427529  78.4336131 145.8613619
 131.9659992  78.6419978 142.3390014 132.3779992  77.9209978 141.8640014
 132.6469992  79.3109978 142.3980014 132.1145900  78.6337306 142.2819038
 114.2469992  78.6469978 145.4660014 113.3219992  78.8549978 145.3370014
 114.7009992  79.1309978 144.7770014 114.1816374  78.7409949 145.3550957
 129.0169992  93.6309978 147.4120014 129.6699992  93.2829978 146.8040014
 129.5279992  94.1189978 148.0580014 129.1752777  93.6493815 147.4162047
 115.5229992  76.6899978 143.4450014 115.9619992  77.3009978 142.8530014
 114.8889992  77.2279978 143.9190014 115.4973859  76.8464064 143.4280305
 121.2659992  76.8179978 147.4550014 122.1399992  77.2069978 147.4250014
 121.1299992  76.6029978 148.3770014 121.3673207  76.8421923 147.5756509
 128.1759992  76.8739978 144.7960014 127.4729992  77.4889978 144.5870014
 127.7309992  76.0369978 144.9280014 128.0196292  76.8450085 144.7852439
 115.4239992  92.6379978 144.3430014 114.7389992  92.5999978 143.6750014
 115.4279992  93.5509978 144.6310014 115.3308174  92.7561998 144.2905310
 117.3839992  78.6059978 141.8870014 117.8749992  77.9759978 141.3600014
 118.0069992  78.9019978 142.5510014 117.5355062  78.5596770 141.9045438
 122.4099992  78.8989978 144.3450014 122.5879992  78.2519978 145.0270014
 122.3559992  79.7329978 144.8120014 122.4271025  78.9230504 144.5016433
 124.2879992  93.8469978 142.7400014 125.1539992  94.2139978 142.5620014
 124.0419992  93.4079978 141.9260014 124.3732097  93.8378525 142.6056019
 130.9969992  93.4099978 145.4190014 130.8029992  92.6619978 144.8540014
 130.9579992  94.1679978 144.8360014 130.9651645  93.4100786 145.2628148
 117.2419992  93.5579978 141.3680014 116.9739992  93.8439978 142.2410014
 118.0129992  93.0119978 141.5200014 117.3095600  93.5233330 141.5081499
 144.6209992  86.0479978 147.6000014 144.7099992  86.9919978 147.4680014
 143.9829992  85.7729978 146.9420014 144.5469062  86.1399812 147.4929641
 133.4559992  83.0269978 146.5400014 133.0079992  83.8729978 146.5210014
 132.8949992  82.4479978 146.0240014 133.3189603  83.0643674 146.4676720
 144.4179992  88.6489978 146.6430014 144.1229992  88.3259978 145.7920014
 144.0939992  89.5489978 146.6840014 144.3337983  88.7264027 146.5319771
 134.1469992  88.4599978 144.9560014 133.8749992  88.6889978 144.0670014
 134.1919992  89.2969978 145.4160014 134.1158709  88.6046058 144.8966107
 143.3419992  85.2919978 145.0520014 142.6309992  85.8269978 144.7000014
 144.0329992  85.3469978 144.3920014 143.3380751  85.3726777 144.9145858
 143.3959992  83.7489978 142.0910014 144.0969992  83.7719978 142.7420014
 143.6979992  83.1209978 141.4350014 143.5328282  83.6672339 142.0914496
 143.3449992  91.3999978 147.1240014 143.8189992  91.6959978 147.9020014
 142.7819992  92.1389978 146.8910014 143.3337361  91.5402721 147.1988611
 137.3839992  85.2009978 145.4760014 137.0919992  85.9689978 144.9850014
 136.7089992  84.5419978 145.3130014 137.2528497  85.2169745 145.3868260
 142.8179992  94.3569978 145.5390014 142.7419992  94.2359978 144.5930014
 142.8499992  95.3059978 145.6580014 142.8119156  94.4687530 145.4255048
 136.4709992  93.1459978 147.3200014 136.6229992  92.7979978 148.1990014
 135.6199992  92.7889978 147.0650014 136.3767899  93.0501738 147.4057340
 142.6689992  79.5719978 141.9890014 142.4149992  79.5909978 142.9120014
 142.4119992  78.7009978 141.6880014 142.5995133  79.4568110 142.0745082
 138.4319992  82.5439978 147.3360014 137.5399992  82.2039978 147.2780014
 138.8829992  82.1669978 146.5810014 138.3706815  82.4463762 147.2259203
 143.9679992  82.9599978 146.1530014 143.5589992  83.7749978 145.8620014
 144.6879992  82.8199978 145.5390014 144.0094013  83.0526571 146.0300875
 139.5509992  80.0179978 141.0900014 139.1199992  79.5729978 141.8200014
 138.8329992  80.3889978 140.5780014 139.3949363  80.0072968 141.1206211
 134.0679992  80.5059978 143.5660014 134.5419992  81.0969978 142.9810014
 133.3499992  81.0359978 143.9130014 134.0358640  80.6585511 143.5327969
 135.8419992  81.6009978 147.2490014 134.9529992  81.6999978 146.9090014
 136.1389992  80.7589978 146.9030014 135.7604177  81.5007687 147.1556940
 139.4949992  81.6009978 144.9060014 140.4269992  81.7299978 145.0840014
 139.2799992  82.2699978 144.2560014 139.5934472  81.7090806 144.8424891
 138.1689992  82.7949978 142.4730014 137.6269992  82.4159978 141.7810014
 139.0029992  82.9899978 142.0440014 138.2075159  82.7695076 142.3204419
 137.3359992  78.8959978 146.7280014 137.0189992  77.9929978 146.6930014
 138.1169992  78.8979978 146.1750014 137.3982307  78.7726951 146.6484314
 141.5049992  87.3609978 144.4080014 140.7599992  86.8529978 144.0860014
 141.3699992  87.4099978 145.3550014 141.3849047  87.2981596 144.4918845
 145.4019992  80.1749978 142.6080014 144.4639992  80.2859978 142.4560014
 145.6999992  81.0309978 142.9140014 145.3136402  80.3060621 142.6285571
 143.6299992  88.8189978 143.4340014 143.3349992  89.6459978 143.8150014
 142.9269992  88.1999978 143.6300014 143.4945471  88.8485227 143.5126698
 139.0039992  90.1739978 147.5820014 139.5319992  90.9469978 147.3820014
 138.1239992  90.3979978 147.2810014 138.9573176  90.3103161 147.5138409
 134.7589992  85.0359978 142.1700014 135.3749992  85.6629978 142.5490014
 133.8969992  85.3519978 142.4410014 134.7268195  85.1645798 142.2585386
 140.4319992  87.8369978 147.1590014 140.1909992  88.7619978 147.2000014
 139.6909992  87.3779978 147.5550014 140.2988390  87.9016403 147.2181404
 139.1149992  92.8579978 146.7040014 138.1649992  92.9639978 146.7550014
 139.4669992  93.6789978 147.0490014 139.0325480  92.9834438 146.7575999
 140.7839992  90.1259978 140.6950014 141.0229992  89.3769978 140.1480014
 140.5149992  89.7379978 141.5280014 140.7803233  89.9711853 140.7327809
 139.7209992  89.6959978 143.1520014 139.8679992  89.1759978 143.9420014
 139.7179992  90.6029978 143.4580014 139.7407300  89.7473964 143.3015895
 136.1739992  86.9479978 143.6620014 135.4879992  87.3009978 144.2290014
 136.6969992  87.7109978 143.4160014 136.1509033  87.0993746 143.7062661
 144.7899992  79.2629978 145.0380014 145.0099992  79.7339978 144.2350014
 145.3489992  79.6569978 145.7080014 144.8956730  79.3807432 145.0185906
 142.4589992  91.3929978 143.9010014 141.6419992  91.8899978 143.9530014
 142.9879992  91.8689978 143.2610014 142.4188508  91.5252543 143.8216035
 141.9899992  80.9909978 145.8730014 142.8019992  81.4949978 145.9190014
 141.7459992  80.8459978 146.7870014 142.0681467  81.0403749 146.0028575
 142.8739992  78.0719978 146.8110014 142.5269992  78.6889978 147.4560014
 143.5329992  78.5729978 146.3300014 142.9155949  78.2241099 146.8342271
 139.7969992  92.4369978 143.8830014 139.9579992  93.2369978 143.3820014
 139.5999992  92.7439978 144.7680014 139.7923919  92.5879129 143.9341006
 138.5319992  79.1349978 143.4980014 138.4479992  80.0229978 143.8450014
 139.4219992  78.8699978 143.7300014 138.6408163  79.2207179 143.5768596
 136.7899992  89.5619978 142.5590014 137.3819992  90.2619978 142.8350014
 137.2489992  89.1289978 141.8390014 136.9330791  89.5992908 142.4994607
 135.1059992  82.2269978 141.6750014 135.0609992  83.1659978 141.8530014
 134.2179992  81.9909978 141.4050014 134.9798555  82.3236874 141.6628939
 134.8449992  90.9489978 146.5080014 134.0119992  91.4209978 146.5360014
 135.3899992  91.4589978 145.9100014 134.8047590  91.0825897 146.4309194
 142.8219992  91.9889978 140.8340014 142.1779992  91.3579978 141.1550014
 143.5839992  91.4579978 140.6020014 142.8368058  91.8307902 140.8466038
 138.3809992  87.7149978 140.9250014 138.4459992  86.9209978 141.4560014
 139.0339992  87.5969978 140.2350014 138.4781754  87.5903337 140.9044259
 143.7339992  88.7619978 140.6610014 143.4649992  88.9429978 141.5620014
 143.5269992  87.8369978 140.5300014 143.6692000  88.6616774 140.7665693
 139.5309992  85.6879978 143.2310014 139.0709992  85.2039978 143.9170014
 139.7859992  85.0189978 142.5950014 139.5025038  85.5313689 143.2389447
 140.6019992  83.9309978 141.4930014 140.4209992  83.7759978 140.5660014
 141.5519992  84.0389978 141.5380014 140.7056566  83.9243669 141.3720929
 140.4989992  94.6209978 142.4950014 141.4319992  94.7789978 142.6380014
 140.2349992  95.2969978 141.8700014 140.5909308  94.7339104 142.4301396
 134.0669992  89.2579978 141.9770014 134.9809992  89.3369978 142.2510014
 134.0749992  88.5709978 141.3110014 134.1931143  89.1759085 141.9244274
 132.7159992  94.6509978 147.0550014 132.0689992  94.1889978 146.5220014
 133.0709992  93.9789978 147.6370014 132.6754506  94.4969503 147.0607341
 133.1029992  78.6469978 145.4660014 132.1779992  78.8549978 145.3370014
 133.5569992  79.1309978 144.7770014 133.0376374  78.7409949 145.3550957
 134.3789992  76.6899978 143.4450014 134.8179992  77.3009978 142.8530014
 133.7449992  77.2279978 143.9190014 134.3533859  76.8464064 143.4280305
 140.1219992  76.8179978 147.4550014 140.9959992  77.2069978 147.4250014
 139.9859992  76.6029978 148.3770014 140.2233207  76.8421923 147.5756509
 134.2799992  92.6379978 144.3430014 133.5949992  92.5999978 143.6750014
 134.2839992  93.5509978 144.6310014 134.1868174  92.7561998 144.2905310
 136.2399992  78.6059978 141.8870014 136.7309992  77.9759978 141.3600014
 136.8629992  78.9019978 142.5510014 136.3915062  78.5596770 141.9045438
 141.2659992  78.8989978 144.3450014 141.4439992  78.2519978 145.0270014
 141.2119992  79.7329978 144.8120014 141.2831025  78.9230504 144.5016433
 143.1439992  93.8469978 142.7400014 144.0099992  94.2139978 142.5620014
 142.8979992  93.4079978 141.9260014 143.2292097  93.8378525 142.6056019
 136.0979992  93.5579978 141.3680014 135.8299992  93.8439978 142.2410014
 136.8689992  93.0119978 141.5200014 136.1655600  93.5233330 141.5081499
  12.6289992 104.9039978 147.6000014  12.7179992 105.8479978 147.4680014
  11.9909992 104.6289978 146.9420014  12.5549062 104.9959812 147.4929641
   1.4639992 101.8829978 146.5400014   1.0159992 102.7289978 146.5210014
   0.9029992 101.3039978 146.0240014   1.3269603 101.9203674 146.4676720
  13.9689992  99.2179978 147.4260014  14.6159992  98.8889978 148.0510014
  14.4789992  99.7349978 146.8030014  14.1264317  99.2429227 147.4272167
  12.4259992 107.5049978 146.6430014  12.1309992 107.1819978 145.7920014
  12.1019992 108.4049978 146.6840014  12.3417983 107.5824026 146.5319771
   2.1549992 107.3159978 144.9560014   1.8829992 107.5449978 144.0670014
   2.1999992 108.1529978 145.4160014   2.1238709 107.4606058 144.8966107
  15.1919992 108.6189978 146.8020014  14.9339992 107.9289978 146.1910014
  15.2629992 108.1759978 147.6480014  15.1662837 108.4647106 146.8326912
  11.3499992 104.1479978 145.0520014  10.6389992 104.6829978 144.7000014
  12.0409992 104.2029978 144.3920014  11.3460751 104.2286777 144.9145858
  11.4039992 102.6049978 142.0910014  12.1049992 102.6279978 142.7420014
  11.7059992 101.9769978 141.4350014  11.5408282 102.5232339 142.0914496
  14.7559992 104.3569978 146.0040014  14.0239992 104.5859978 146.5770014
  15.2029992 103.6439978 146.4590014  14.7162753 104.2918972 146.1439715
  13.6269992 103.5199978 143.6890014  14.2059992 103.6699978 144.4360014
  14.0409992 103.9899978 142.9660014  13.7623122 103.6041277 143.6935042
  11.3529992 110.2559978 147.1240014  11.8269992 110.5519978 147.9020014
  10.7899992 110.9949978 146.8910014  11.3417361 110.3962721 147.1988611
  17.3259992  95.2699978 143.5020014  16.4259992  95.4089978 143.7970014
  17.5779992  96.1009978 143.1000014  17.2368683  95.4014055 143.4880232
   5.3919992 104.0569978 145.4760014   5.0999992 104.8249978 144.9850014
   4.7169992 103.3979978 145.3130014   5.2608497 104.0729745 145.3868260
  18.5149992 109.6359978 141.8780014  18.5879992 110.5749978 142.0490014
  19.4199992 109.3309978 141.8220014  18.6474158 109.7233061 141.8938392
  10.8259992 113.2129978 145.5390014  10.7499992 113.0919978 144.5930014
  10.8579992 114.1619978 145.6580014  10.8199156 113.3247530 145.4255048
   4.4789992 112.0019978 147.3200014   4.6309992 111.6539978 148.1990014
   3.6279992 111.6449978 147.0650014   4.3847899 111.9061738 147.4057340
  13.9269992 112.3669978 142.5410014  14.3019992 111.6229978 142.0710014
  13.9319992 112.0969978 143.4600014  13.9790024 112.2286950 142.6007987
  13.5959992 112.2929978 145.2910014  12.6609992 112.3929978 145.4690014
  13.8759992 111.5829978 145.8690014  13.5058173 112.2107239 145.3934998
  15.1039992 104.5519978 141.3190014  15.1459992 104.3299978 140.3890014
  15.9529992 104.9509978 141.5090014  15.2245253 104.5755498 141.2173822
  10.6769992  98.4279978 141.9890014  10.4229992  98.4469978 142.9120014
  10.4199992  97.5569978 141.6880014  10.6075133  98.3128110 142.0745082
   6.4399992 101.3999978 147.3360014   5.5479992 101.0599978 147.2780014
   6.8909992 101.0229978 146.5810014   6.3786815 101.3023762 147.2259203
  11.9759992 101.8159978 146.1530014  11.5669992 102.6309978 145.8620014
  12.6959992 101.6759978 145.5390014  12.0174013 101.9086571 146.0300875
   7.5589992  98.8739978 141.0900014   7.1279992  98.4289978 141.8200014
   6.8409992  99.2449978 140.5780014   7.4029363  98.8632968 141.1206211
   2.0759992  99.3619978 143.5660014   2.5499992  99.9529978 142.9810014
   1.3579992  99.8919978 143.9130014   2.0438640  99.5145511 143.5327969
   3.8499992 100.4569978 147.2490014   2.9609992 100.5559978 146.9090014
   4.1469992  99.6149978 146.9030014   3.7684177 100.3567687 147.1556940
   7.5029992 100.4569978 144.9060014   8.4349992 100.5859978 145.0840014
   7.2879992 101.1259978 144.2560014   7.6014472 100.5650806 144.8424891
   6.1769992 101.6509978 142.4730014   5.6349992 101.2719978 141.7810014
   7.0109992 101.8459978 142.0440014   6.2155159 101.6255076 142.3204419
   5.3439992  97.7519978 146.7280014   5.0269992  96.8489978 146.6930014
   6.1249992  97.7539978 146.1750014   5.4062307  97.6286951 146.6484314
   9.5129992 106.2169978 144.4080014   8.7679992 105.7089978 144.0860014
   9.3779992 106.2659978 145.3550014   9.3929047 106.1541596 144.4918845
  13.4099992  99.0309978 142.6080014  12.4719992  99.1419978 142.4560014
  13.7079992  99.8869978 142.9140014  13.3216402  99.1620621 142.6285571
  14.1289992 100.8979978 144.2680014  15.0209992 100.7599978 144.5870014
  14.1849992 101.6889978 143.7320014  14.2587107 100.9860526 144.2392091
  11.6379992 107.6749978 143.4340014  11.3429992 108.5019978 143.8150014
  10.9349992 107.0559978 143.6300014  11.5025471 107.7045227 143.5126698
  19.0139992 101.1069978 143.9630014  18.4589992 100.7109978 143.2910014
  19.1139992 102.0179978 143.6850014  18.9515888 101.1758990 143.8335206
  17.3089992 109.8929978 144.4280014  16.9359992 109.0679978 144.7370014
  17.5859992 109.7099978 143.5310014  17.2953871 109.7552441 144.3489677
   7.0119992 109.0299978 147.5820014   7.5399992 109.8029978 147.3820014
   6.1319992 109.2539978 147.2810014   6.9653176 109.1663161 147.5138409
   2.7669992 103.8919978 142.1700014   3.3829992 104.5189978 142.5490014
   1.9049992 104.2079978 142.4410014   2.7348195 104.0205798 142.2585386
   8.4399992 106.6929978 147.1590014   8.1989992 107.6179978 147.2000014
   7.6989992 106.2339978 147.5550014   8.3068390 106.7576403 147.2181404
   7.1229992 111.7139978 146.7040014   6.1729992 111.8199978 146.7550014
   7.4749992 112.5349978 147.0490014   7.0405480 111.8394438 146.7575999
  14.7009992 107.8699978 142.2480014  15.0549992 107.4899978 143.0530014
  13.7529992 107.7759978 142.3350014  14.6211820 107.8053092 142.3698714
  19.2049992 112.3489978 142.4490014  19.9489992 112.9349978 142.3090014
  18.5109992 112.9179978 142.7830014  19.2130201 112.5060603 142.4749772
  15.5669992 106.5419978 144.4750014  15.2899992 105.8139978 145.0310014
  16.4949992 106.6609978 144.6800014  15.6544499 106.4584213 144.5788044
   8.7919992 108.9819978 140.6950014   9.0309992 108.2329978 140.1480014
   8.5229992 108.5939978 141.5280014   8.7883233 108.8271853 140.7327809
   7.7289992 108.5519978 143.1520014   7.8759992 108.0319978 143.9420014
   7.7259992 109.4589978 143.4580014   7.7487300 108.6033964 143.3015895
   4.1819992 105.8039978 143.6620014   3.4959992 106.1569978 144.2290014
   4.7049992 106.5669978 143.4160014   4.1589033 105.9553746 143.7062661
  12.7979992  98.1189978 145.0380014  13.0179992  98.5899978 144.2350014
  13.3569992  98.5129978 145.7080014  12.9036730  98.2367432 145.0185906
  10.4669992 110.2489978 143.9010014   9.6499992 110.7459978 143.9530014
  10.9959992 110.7249978 143.2610014  10.4268508 110.3812543 143.8216035
   9.9979992  99.8469978 145.8730014  10.8099992 100.3509978 145.9190014
   9.7539992  99.7019978 146.7870014  10.0761467  99.8963749 146.0028575
  10.8819992  96.9279978 146.8110014  10.5349992  97.5449978 147.4560014
  11.5409992  97.4289978 146.3300014  10.9235949  97.0801099 146.8342271
   7.8049992 111.2929978 143.8830014   7.9659992 112.0929978 143.3820014
   7.6079992 111.5999978 144.7680014   7.8003919 111.4439129 143.9341006
   6.5399992  97.9909978 143.4980014   6.4559992  98.8789978 143.8450014
   7.4299992  97.7259978 143.7300014   6.6488163  98.0767179 143.5768596
   4.7979992 108.4179978 142.5590014   5.3899992 109.1179978 142.8350014
   5.2569992 107.9849978 141.8390014   4.9410791 108.4552908 142.4994607
   3.1139992 101.0829978 141.6750014   3.0689992 102.0219978 141.8530014
   2.2259992 100.8469978 141.4050014   2.9878555 101.1796874 141.6628939
   2.8529992 109.8049978 146.5080014   2.0199992 110.2769978 146.5360014
   3.3979992 110.3149978 145.9100014   2.8127590 109.9385897 146.4309194
  10.8299992 110.8449978 140.8340014  10.1859992 110.2139978 141.1550014
  11.5919992 110.3139978 140.6020014  10.8448058 110.6867902 140.8466038
  15.4349992 110.6619978 141.0680014  15.7179992 109.8669978 141.5200014
  16.1739992 110.8949978 140.5070014  15.5736956 110.5847031 141.0539821
   6.3889992 106.5709978 140.9250014   6.4539992 105.7769978 141.4560014
   7.0419992 106.4529978 140.2350014   6.4861754 106.4463337 140.9044259
  11.7419992 107.6179978 140.6610014  11.4729992 107.7989978 141.5620014
  11.5349992 106.6929978 140.5300014  11.6772000 107.5176774 140.7665693
   7.5389992 104.5439978 143.2310014   7.0789992 104.0599978 143.9170014
   7.7939992 103.8749978 142.5950014   7.5105038 104.3873689 143.2389447
   8.6099992 102.7869978 141.4930014   8.4289992 102.6319978 140.5660014
   9.5599992 102.8949978 141.5380014   8.7136566 102.7803669 141.3720929
  17.9999992 105.1409978 140.9390014  17.7259992 104.7169978 140.1260014
  18.0389992 106.0729978 140.7220014  17.9677716 105.2088827 140.7984286
   8.5069992 113.4769978 142.4950014   9.4399992 113.6349978 142.6380014
   8.2429992 114.1529978 141.8700014   8.5989308 113.5899104 142.4301396
   2.0749992 108.1139978 141.9770014   2.9889992 108.1929978 142.2510014
   2.0829992 107.4269978 141.3110014   2.2011143 108.0319085 141.9244274
   0.7239992 113.5069978 147.0550014   0.0769992 113.0449978 146.5220014
   1.0789992 112.8349978 147.6370014   0.6834506 113.3529503 147.0607341
  18.4579992 106.0099978 144.9140014  19.3079992 106.4309978 145.0410014
  18.4629992 105.2699978 145.5210014  18.5751143 105.9676094 145.0134750
  18.8519992 104.0639978 146.7380014  18.1259992 103.5839978 147.1350014
  19.4339992 104.2689978 147.4700014  18.8311635 104.0259166 146.8913748
  19.1209992 103.9649978 143.1290014  18.5989992 104.3209978 142.4100014
  19.0879992 104.6399978 143.8070014  19.0450699 104.1049848 143.1222129
  17.4699992 101.2039978 141.6800014  17.5659992 101.8709978 141.0000014
  17.3299992 100.3889978 141.1980014  17.4642063 101.1850667 141.5218377
  16.6389992 102.5849978 147.3010014  16.4889992 101.6399978 147.2800014
  16.2849992 102.8659978 148.1440014  16.5705527 102.4935605 147.4121859
  16.7169992  98.6119978 140.7970014  17.3279992  98.2409978 141.4340014
  15.8799992  98.1909978 140.9930014  16.6874947  98.5042756 140.9107252
  16.3499992 100.1669978 145.7630014  16.6289992  99.2599978 145.8870014
  17.1089992 100.6009978 145.3740014  16.4908619 100.1014502 145.7273795
  16.9629992  97.4299978 145.8110014  17.1449992  96.9809978 146.6370014
  16.3629992  96.8459978 145.3480014  16.9067529  97.2896131 145.8613619
  18.8299992  97.4979978 142.3390014  19.2419992  96.7769978 141.8640014
  19.5109992  98.1669978 142.3980014  18.9785900  97.4897306 142.2819038
   1.1109992  97.5029978 145.4660014   0.1859992  97.7109978 145.3370014
   1.5649992  97.9869978 144.7770014   1.0456374  97.5969949 145.3550957
  15.8809992 112.4869978 147.4120014  16.5339992 112.1389978 146.8040014
  16.3919992 112.9749978 148.0580014  16.0392777 112.5053815 147.4162047
   2.3869992  95.5459978 143.4450014   2.8259992  96.1569978 142.8530014
   1.7529992  96.0839978 143.9190014   2.3613859  95.7024064 143.4280305
   8.1299992  95.6739978 147.4550014   9.0039992  96.0629978 147.4250014
   7.9939992  95.4589978 148.3770014   8.2313207  95.6981923 147.5756509
  15.0399992  95.7299978 144.7960014  14.3369992  96.3449978 144.5870014
  14.5949992  94.8929978 144.9280014  14.8836292  95.7010085 144.7852439
   2.2879992 111.4939978 144.3430014   1.6029992 111.4559978 143.6750014
   2.2919992 112.4069978 144.6310014   2.1948174 111.6121998 144.2905310
   4.2479992  97.4619978 141.8870014   4.7389992  96.8319978 141.3600014
   4.8709992  97.7579978 142.5510014   4.3995062  97.4156770 141.9045438
   9.2739992  97.7549978 144.3450014   9.4519992  97.1079978 145.0270014
   9.2199992  98.5889978 144.8120014   9.2911025  97.7790504 144.5016433
  11.1519992 112.7029978 142.7400014  12.0179992 113.0699978 142.5620014
  10.9059992 112.2639978 141.9260014  11.2372097 112.6938525 142.6056019
  17.8609992 112.2659978 145.4190014  17.6669992 111.5179978 144.8540014
  17.8219992 113.0239978 144.8360014  17.8291645 112.2660786 145.2628148
   4.1059992 112.4139978 141.3680014   3.8379992 112.6999978 142.2410014
   4.8769992 111.8679978 141.5200014   4.1735600 112.3793330 141.5081499
  31.4849992 104.9039978 147.6000014  31.5739992 105.8479978 147.4680014
  30.8469992 104.6289978 146.9420014  31.4109062 104.9959812 147.4929641
  20.3199992 101.8829978 146.5400014  19.8719992 102.7289978 146.5210014
  19.7589992 101.3039978 146.0240014  20.1829603 101.9203674 146.4676720
  32.8249992  99.2179978 147.4260014  33.4719992  98.8889978 148.0510014
  33.3349992  99.7349978 146.8030014  32.9824317  99.2429227 147.4272167
  31.2819992 107.5049978 146.6430014  30.9869992 107.1819978 145.7920014
  30.9579992 108.4049978 146.6840014  31.1977983 107.5824026 146.5319771
  21.0109992 107.3159978 144.9560014  20.7389992 107.5449978 144.0670014
  21.0559992 108.1529978 145.4160014  20.9798709 107.4606058 144.8966107
  34.0479992 108.6189978 146.8020014  33.7899992 107.9289978 146.1910014
  34.1189992 108.1759978 147.6480014  34.0222837 108.4647106 146.8326912
  30.2059992 104.1479978 145.0520014  29.4949992 104.6829978 144.7000014
  30.8969992 104.2029978 144.3920014  30.2020751 104.2286777 144.9145858
  30.2599992 102.6049978 142.0910014  30.9609992 102.6279978 142.7420014
  30.5619992 101.9769978 141.4350014  30.3968282 102.5232339 142.0914496
  33.6119992 104.3569978 146.0040014  32.8799992 104.5859978 146.5770014
  34.0589992 103.6439978 146.4590014  33.5722753 104.2918972 146.1439715
  32.4829992 103.5199978 143.6890014  33.0619992 103.6699978 144.4360014
  32.8969992 103.9899978 142.9660014  32.6183122 103.6041277 143.6935042
  30.2089992 110.2559978 147.1240014  30.6829992 110.5519978 147.9020014
  29.6459992 110.9949978 146.8910014  30.1977361 110.3962721 147.1988611
  36.1819992  95.2699978 143.5020014  35.2819992  95.4089978 143.7970014
  36.4339992  96.1009978 143.1000014  36.0928683  95.4014055 143.4880232
  24.2479992 104.0569978 145.4760014  23.9559992 104.8249978 144.9850014
  23.5729992 103.3979978 145.3130014  24.1168497 104.0729745 145.3868260
  37.3709992 109.6359978 141.8780014  37.4439992 110.5749978 142.0490014
  38.2759992 109.3309978 141.8220014  37.5034158 109.7233061 141.8938392
  29.6819992 113.2129978 145.5390014  29.6059992 113.0919978 144.5930014
  29.7139992 114.1619978 145.6580014  29.6759156 113.3247530 145.4255048
  23.3349992 112.0019978 147.3200014  23.4869992 111.6539978 148.1990014
  22.4839992 111.6449978 147.0650014  23.2407899 111.9061738 147.4057340
  32.7829992 112.3669978 142.5410014  33.1579992 111.6229978 142.0710014
  32.7879992 112.0969978 143.4600014  32.8350024 112.2286950 142.6007987
  32.4519992 112.2929978 145.2910014  31.5169992 112.3929978 145.4690014
  32.7319992 111.5829978 145.8690014  32.3618173 112.2107239 145.3934998
  33.9599992 104.5519978 141.3190014  34.0019992 104.3299978 140.3890014
  34.8089992 104.9509978 141.5090014  34.0805253 104.5755498 141.2173822
  29.5329992  98.4279978 141.9890014  29.2789992  98.4469978 142.9120014
  29.2759992  97.5569978 141.6880014  29.4635133  98.3128110 142.0745082
  25.2959992 101.3999978 147.3360014  24.4039992 101.0599978 147.2780014
  25.7469992 101.0229978 146.5810014  25.2346815 101.3023762 147.2259203
  30.8319992 101.8159978 146.1530014  30.4229992 102.6309978 145.8620014
  31.5519992 101.6759978 145.5390014  30.8734013 101.9086571 146.0300875
  26.4149992  98.8739978 141.0900014  25.9839992  98.4289978 141.8200014
  25.6969992  99.2449978 140.5780014  26.2589363  98.8632968 141.1206211
  20.9319992  99.3619978 143.5660014  21.4059992  99.9529978 142.9810014
  20.2139992  99.8919978 143.9130014  20.8998640  99.5145511 143.5327969
  22.7059992 100.4569978 147.2490014  21.8169992 100.5559978 146.9090014
  23.0029992  99.6149978 146.9030014  22.6244177 100.3567687 147.1556940
  26.3589992 100.4569978 144.9060014  27.2909992 100.5859978 145.0840014
  26.1439992 101.1259978 144.2560014  26.4574472 100.5650806 144.8424891
  25.0329992 101.6509978 142.4730014  24.4909992 101.2719978 141.7810014
  25.8669992 101.8459978 142.0440014  25.0715159 101.6255076 142.3204419
  24.1999992  97.7519978 146.7280014  23.8829992  96.8489978 146.6930014
  24.9809992  97.7539978 146.1750014  24.2622307  97.6286951 146.6484314
  28.3689992 106.2169978 144.4080014  27.6239992 105.7089978 144.0860014
  28.2339992 106.2659978 145.3550014  28.2489047 106.1541596 144.4918845
  32.2659992  99.0309978 142.6080014  31.3279992  99.1419978 142.4560014
  32.5639992  99.8869978 142.9140014  32.1776402  99.1620621 142.6285571
  32.9849992 100.8979978 144.2680014  33.8769992 100.7599978 144.5870014
  33.0409992 101.6889978 143.7320014  33.1147107 100.9860526 144.2392091
  30.4939992 107.6749978 143.4340014  30.1989992 108.5019978 143.8150014
  29.7909992 107.0559978 143.6300014  30.3585471 107.7045227 143.5126698
  37.8699992 101.1069978 143.9630014  37.3149992 100.7109978 143.2910014
  37.9699992 102.0179978 143.6850014  37.8075888 101.1758990 143.8335206
  36.1649992 109.8929978 144.4280014  35.7919992 109.0679978 144.7370014
  36.4419992 109.7099978 143.5310014  36.1513871 109.7552441 144.3489677
  25.8679992 109.0299978 147.5820014  26.3959992 109.8029978 147.3820014
  24.9879992 109.2539978 147.2810014  25.8213176 109.1663161 147.5138409
  21.6229992 103.8919978 142.1700014  22.2389992 104.5189978 142.5490014
  20.7609992 104.2079978 142.4410014  21.5908195 104.0205798 142.2585386
  27.2959992 106.6929978 147.1590014  27.0549992 107.6179978 147.2000014
  26.5549992 106.2339978 147.5550014  27.1628390 106.7576403 147.2181404
  25.9789992 111.7139978 146.7040014  25.0289992 111.8199978 146.7550014
  26.3309992 112.5349978 147.0490014  25.8965480 111.8394438 146.7575999
  33.5569992 107.8699978 142.2480014  33.9109992 107.4899978 143.0530014
  32.6089992 107.7759978 142.3350014  33.4771820 107.8053092 142.3698714
  38.0609992 112.3489978 142.4490014  38.8049992 112.9349978 142.3090014
  37.3669992 112.9179978 142.7830014  38.0690201 112.5060603 142.4749772
  34.4229992 106.5419978 144.4750014  34.1459992 105.8139978 145.0310014
  35.3509992 106.6609978 144.6800014  34.5104499 106.4584213 144.5788044
  27.6479992 108.9819978 140.6950014  27.8869992 108.2329978 140.1480014
  27.3789992 108.5939978 141.5280014  27.6443233 108.8271853 140.7327809
  26.5849992 108.5519978 143.1520014  26.7319992 108.0319978 143.9420014
  26.5819992 109.4589978 143.4580014  26.6047300 108.6033964 143.3015895
  23.0379992 105.8039978 143.6620014  22.3519992 106.1569978 144.2290014
  23.5609992 106.5669978 143.4160014  23.0149033 105.9553746 143.7062661
  31.6539992  98.1189978 145.0380014  31.8739992  98.5899978 144.2350014
  32.2129992  98.5129978 145.7080014  31.7596730  98.2367432 145.0185906
  29.3229992 110.2489978 143.9010014  28.5059992 110.7459978 143.9530014
  29.8519992 110.7249978 143.2610014  29.2828508 110.3812543 143.8216035
  28.8539992  99.8469978 145.8730014  29.6659992 100.3509978 145.9190014
  28.6099992  99.7019978 146.7870014  28.9321467  99.8963749 146.0028575
  29.7379992  96.9279978 146.8110014  29.3909992  97.5449978 147.4560014
  30.3969992  97.4289978 146.3300014  29.7795949  97.0801099 146.8342271
  26.6609992 111.2929978 143.8830014  26.8219992 112.0929978 143.3820014
  26.4639992 111.5999978 144.7680014  26.6563919 111.4439129 143.9341006
  25.3959992  97.9909978 143.4980014  25.3119992  98.8789978 143.8450014
  26.2859992  97.7259978 143.7300014  25.5048163  98.0767179 143.5768596
  23.6539992 108.4179978 142.5590014  24.2459992 109.1179978 142.8350014
  24.1129992 107.9849978 141.8390014  23.7970791 108.4552908 142.4994607
  21.9699992 101.0829978 141.6750014  21.9249992 102.0219978 141.8530014
  21.0819992 100.8469978 141.4050014  21.8438555 101.1796874 141.6628939
  21.7089992 109.8049978 146.5080014  20.8759992 110.2769978 146.5360014
  22.2539992 110.3149978 145.9100014  21.6687590 109.9385897 146.4309194
  29.6859992 110.8449978 140.8340014  29.0419992 110.2139978 141.1550014
  30.4479992 110.3139978 140.6020014  29.7008058 110.6867902 140.8466038
  34.2909992 110.6619978 141.0680014  34.5739992 109.8669978 141.5200014
  35.0299992 110.8949978 140.5070014  34.4296956 110.5847031 141.0539822
  25.2449992 106.5709978 140.9250014  25.3099992 105.7769978 141.4560014
  25.8979992 106.4529978 140.2350014  25.3421754 106.4463337 140.9044259
  30.5979992 107.6179978 140.6610014  30.3289992 107.7989978 141.5620014
  30.3909992 106.6929978 140.5300014  30.5332000 107.5176774 140.7665693
  26.3949992 104.5439978 143.2310014  25.9349992 104.0599978 143.9170014
  26.6499992 103.8749978 142.5950014  26.3665038 104.3873689 143.2389447
  27.4659992 102.7869978 141.4930014  27.2849992 102.6319978 140.5660014
  28.4159992 102.8949978 141.5380014  27.5696566 102.7803669 141.3720929
  36.8559992 105.1409978 140.9390014  36.5819992 104.7169978 140.1260014
  36.8949992 106.0729978 140.7220014  36.8237716 105.2088827 140.7984286
  27.3629992 113.4769978 142.4950014  28.2959992 113.6349978 142.6380014
  27.0989992 114.1529978 141.8700014  27.4549308 113.5899104 142.4301396
  20.9309992 108.1139978 141.9770014  21.8449992 108.1929978 142.2510014
  20.9389992 107.4269978 141.3110014  21.0571143 108.0319085 141.9244274
  19.5799992 113.5069978 147.0550014  18.9329992 113.0449978 146.5220014
  19.9349992 112.8349978 147.6370014  19.5394506 113.3529503 147.0607341
  37.3139992 106.0099978 144.9140014  38.1639992 106.4309978 145.0410014
  37.3189992 105.2699978 145.5210014  37.4311143 105.9676094 145.0134750
  37.7079992 104.0639978 146.7380014  36.9819992 103.5839978 147.1350014
  38.2899992 104.2689978 147.4700014  37.6871635 104.0259166 146.8913748
  37.9769992 103.9649978 143.1290014  37.4549992 104.3209978 142.4100014
  37.9439992 104.6399978 143.8070014  37.9010699 104.1049848 143.1222129
  36.3259992 101.2039978 141.6800014  36.4219992 101.8709978 141.0000014
  36.1859992 100.3889978 141.1980014  36.3202063 101.1850667 141.5218377
  35.4949992 102.5849978 147.3010014  35.3449992 101.6399978 147.2800014
  35.1409992 102.8659978 148.1440014  35.4265527 102.4935605 147.4121859
  35.5729992  98.6119978 140.7970014  36.1839992  98.2409978 141.4340014
  34.7359992  98.1909978 140.9930014  35.5434947  98.5042756 140.9107252
  35.2059992 100.1669978 145.7630014  35.4849992  99.2599978 145.8870014
  35.9649992 100.6009978 145.3740014  35.3468619 100.1014502 145.7273795
  35.8189992  97.4299978 145.8110014  36.0009992  96.9809978 146.6370014
  35.2189992  96.8459978 145.3480014  35.7627529  97.2896131 145.8613619
  37.6859992  97.4979978 142.3390014  38.0979992  96.7769978 141.8640014
  38.3669992  98.1669978 142.3980014  37.8345900  97.4897306 142.2819038
  19.9669992  97.5029978 145.4660014  19.0419992  97.7109978 145.3370014
  20.4209992  97.9869978 144.7770014  19.9016374  97.5969949 145.3550957
  34.7369992 112.4869978 147.4120014  35.3899992 112.1389978 146.8040014
  35.2479992 112.9749978 148.0580014  34.8952777 112.5053815 147.4162047
  21.2429992  95.5459978 143.4450014  21.6819992  96.1569978 142.8530014
  20.6089992  96.0839978 143.9190014  21.2173859  95.7024064 143.4280305
  26.9859992  95.6739978 147.4550014  27.8599992  96.0629978 147.4250014
  26.8499992  95.4589978 148.3770014  27.0873207  95.6981923 147.5756509
  33.8959992  95.7299978 144.7960014  33.1929992  96.3449978 144.5870014
  33.4509992  94.8929978 144.9280014  33.7396292  95.7010085 144.7852439
  21.1439992 111.4939978 144.3430014  20.4589992 111.4559978 143.6750014
  21.1479992 112.4069978 144.6310014  21.0508174 111.6121998 144.2905310
  23.1039992  97.4619978 141.8870014  23.5949992  96.8319978 141.3600014
  23.7269992  97.7579978 142.5510014  23.2555062  97.4156770 141.9045438
  28.1299992  97.7549978 144.3450014  28.3079992  97.1079978 145.0270014
  28.0759992  98.5889978 144.8120014  28.1471025  97.7790504 144.5016433
  30.0079992 112.7029978 142.7400014  30.8739992 113.0699978 142.5620014
  29.7619992 112.2639978 141.9260014  30.0932097 112.6938525 142.6056019
  36.7169992 112.2659978 145.4190014  36.5229992 111.5179978 144.8540014
  36.6779992 113.0239978 144.8360014  36.6851645 112.2660786 145.2628148
  22.9619992 112.4139978 141.3680014  22.6939992 112.6999978 142.2410014
  23.7329992 111.8679978 141.5200014  23.0295600 112.3793330 141.5081499
  50.3409992 104.9039978 147.6000014  50.4299992 105.8479978 147.4680014
  49.7029992 104.6289978 146.9420014  50.2669062 104.9959812 147.4929641
  39.1759992 101.8829978 146.5400014  38.7279992 102.7289978 146.5210014
  38.6149992 101.3039978 146.0240014  39.0389603 101.9203674 146.4676720
  51.6809992  99.2179978 147.4260014  52.3279992  98.8889978 148.0510014
  52.1909992  99.7349978 146.8030014  51.8384317  99.2429227 147.4272167
  50.1379992 107.5049978 146.6430014  49.8429992 107.1819978 145.7920014
  49.8139992 108.4049978 146.6840014  50.0537983 107.5824027 146.5319771
  39.8669992 107.3159978 144.9560014  39.5949992 107.5449978 144.0670014
  39.9119992 108.1529978 145.4160014  39.8358709 107.4606058 144.8966107
  52.9039992 108.6189978 146.8020014  52.6459992 107.9289978 146.1910014
  52.9749992 108.1759978 147.6480014  52.8782837 108.4647106 146.8326912
  49.0619992 104.1479978 145.0520014  48.3509992 104.6829978 144.7000014
  49.7529992 104.2029978 144.3920014  49.0580751 104.2286777 144.9145858
  49.1159992 102.6049978 142.0910014  49.8169992 102.6279978 142.7420014
  49.4179992 101.9769978 141.4350014  49.2528282 102.5232339 142.0914496
  52.4679992 104.3569978 146.0040014  51.7359992 104.5859978 146.5770014
  52.9149992 103.6439978 146.4590014  52.4282753 104.2918972 146.1439715
  51.3389992 103.5199978 143.6890014  51.9179992 103.6699978 144.4360014
  51.7529992 103.9899978 142.9660014  51.4743122 103.6041277 143.6935042
  49.0649992 110.2559978 147.1240014  49.5389992 110.5519978 147.9020014
  48.5019992 110.9949978 146.8910014  49.0537361 110.3962721 147.1988611
  55.0379992  95.2699978 143.5020014  54.1379992  95.4089978 143.7970014
  55.2899992  96.1009978 143.1000014  54.9488683  95.4014055 143.4880232
  43.1039992 104.0569978 145.4760014  42.8119992 104.8249978 144.9850014
  42.4289992 103.3979978 145.3130014  42.9728497 104.0729745 145.3868260
  56.2269992 109.6359978 141.8780014  56.2999992 110.5749978 142.0490014
  57.1319992 109.3309978 141.8220014  56.3594158 109.7233061 141.8938392
  48.5379992 113.2129978 145.5390014  48.4619992 113.0919978 144.5930014
  48.5699992 114.1619978 145.6580014  48.5319156 113.3247530 145.4255048
  42.1909992 112.0019978 147.3200014  42.3429992 111.6539978 148.1990014
  41.3399992 111.6449978 147.0650014  42.0967899 111.9061738 147.4057340
  51.6389992 112.3669978 142.5410014  52.0139992 111.6229978 142.0710014
  51.6439992 112.0969978 143.4600014  51.6910024 112.2286950 142.6007987
  51.3079992 112.2929978 145.2910014  50.3729992 112.3929978 145.4690014
  51.5879992 111.5829978 145.8690014  51.2178173 112.2107239 145.3934998
  52.8159992 104.5519978 141.3190014  52.8579992 104.3299978 140.3890014
  53.6649992 104.9509978 141.5090014  52.9365253 104.5755498 141.2173822
  48.3889992  98.4279978 141.9890014  48.1349992  98.4469978 142.9120014
  48.1319992  97.5569978 141.6880014  48.3195133  98.3128110 142.0745082
  44.1519992 101.3999978 147.3360014  43.2599992 101.0599978 147.2780014
  44.6029992 101.0229978 146.5810014  44.0906815 101.3023762 147.2259203
  49.6879992 101.8159978 146.1530014  49.2789992 102.6309978 145.8620014
  50.4079992 101.6759978 145.5390014  49.7294013 101.9086571 146.0300875
  45.2709992  98.8739978 141.0900014  44.8399992  98.4289978 141.8200014
  44.5529992  99.2449978 140.5780014  45.1149363  98.8632968 141.1206211
  39.7879992  99.3619978 143.5660014  40.2619992  99.9529978 142.9810014
  39.0699992  99.8919978 143.9130014  39.7558640  99.5145511 143.5327969
  41.5619992 100.4569978 147.2490014  40.6729992 100.5559978 146.9090014
  41.8589992  99.6149978 146.9030014  41.4804177 100.3567687 147.1556940
  45.2149992 100.4569978 144.9060014  46.1469992 100.5859978 145.0840014
  44.9999992 101.1259978 144.2560014  45.3134472 100.5650806 144.8424891
  43.8889992 101.6509978 142.4730014  43.3469992 101.2719978 141.7810014
  44.7229992 101.8459978 142.0440014  43.9275159 101.6255076 142.3204419
  43.0559992  97.7519978 146.7280014  42.7389992  96.8489978 146.6930014
  43.8369992  97.7539978 146.1750014  43.1182307  97.6286951 146.6484314
  47.2249992 106.2169978 144.4080014  46.4799992 105.7089978 144.0860014
  47.0899992 106.2659978 145.3550014  47.1049047 106.1541596 144.4918845
  51.1219992  99.0309978 142.6080014  50.1839992  99.1419978 142.4560014
  51.4199992  99.8869978 142.9140014  51.0336402  99.1620621 142.6285571
  51.8409992 100.8979978 144.2680014  52.7329992 100.7599978 144.5870014
  51.8969992 101.6889978 143.7320014  51.9707107 100.9860526 144.2392091
  49.3499992 107.6749978 143.4340014  49.0549992 108.5019978 143.8150014
  48.6469992 107.0559978 143.6300014  49.2145471 107.7045227 143.5126698
  56.7259992 101.1069978 143.9630014  56.1709992 100.7109978 143.2910014
  56.8259992 102.0179978 143.6850014  56.6635888 101.1758990 143.8335206
  55.0209992 109.8929978 144.4280014  54.6479992 109.0679978 144.7370014
  55.2979992 109.7099978 143.5310014  55.0073871 109.7552441 144.3489677
  44.7239992 109.0299978 147.5820014  45.2519992 109.8029978 147.3820014
  43.8439992 109.2539978 147.2810014  44.6773176 109.1663161 147.5138409
  40.4789992 103.8919978 142.1700014  41.0949992 104.5189978 142.5490014
  39.6169992 104.2079978 142.4410014  40.4468195 104.0205798 142.2585386
  46.1519992 106.6929978 147.1590014  45.9109992 107.6179978 147.2000014
  45.4109992 106.2339978 147.5550014  46.0188390 106.7576403 147.2181404
  44.8349992 111.7139978 146.7040014  43.8849992 111.8199978 146.7550014
  45.1869992 112.5349978 147.0490014  44.7525480 111.8394438 146.7575999
  52.4129992 107.8699978 142.2480014  52.7669992 107.4899978 143.0530014
  51.4649992 107.7759978 142.3350014  52.3331820 107.8053092 142.3698714
  56.9169992 112.3489978 142.4490014  57.6609992 112.9349978 142.3090014
  56.2229992 112.9179978 142.7830014  56.9250201 112.5060603 142.4749772
  53.2789992 106.5419978 144.4750014  53.0019992 105.8139978 145.0310014
  54.2069992 106.6609978 144.6800014  53.3664499 106.4584213 144.5788044
  46.5039992 108.9819978 140.6950014  46.7429992 108.2329978 140.1480014
  46.2349992 108.5939978 141.5280014  46.5003233 108.8271853 140.7327809
  45.4409992 108.5519978 143.1520014  45.5879992 108.0319978 143.9420014
  45.4379992 109.4589978 143.4580014  45.4607300 108.6033964 143.3015895
  41.8939992 105.8039978 143.6620014  41.2079992 106.1569978 144.2290014
  42.4169992 106.5669978 143.4160014  41.8709033 105.9553746 143.7062661
  50.5099992  98.1189978 145.0380014  50.7299992  98.5899978 144.2350014
  51.0689992  98.5129978 145.7080014  50.6156730  98.2367432 145.0185906
  48.1789992 110.2489978 143.9010014  47.3619992 110.7459978 143.9530014
  48.7079992 110.7249978 143.2610014  48.1388508 110.3812543 143.8216035
  47.7099992  99.8469978 145.8730014  48.5219992 100.3509978 145.9190014
  47.4659992  99.7019978 146.7870014  47.7881467  99.8963749 146.0028575
  48.5939992  96.9279978 146.8110014  48.2469992  97.5449978 147.4560014
  49.2529992  97.4289978 146.3300014  48.6355949  97.0801099 146.8342271
  45.5169992 111.2929978 143.8830014  45.6779992 112.0929978 143.3820014
  45.3199992 111.5999978 144.7680014  45.5123919 111.4439129 143.9341006
  44.2519992  97.9909978 143.4980014  44.1679992  98.8789978 143.8450014
  45.1419992  97.7259978 143.7300014  44.3608163  98.0767179 143.5768596
  42.5099992 108.4179978 142.5590014  43.1019992 109.1179978 142.8350014
  42.9689992 107.9849978 141.8390014  42.6530791 108.4552908 142.4994607
  40.8259992 101.0829978 141.6750014  40.7809992 102.0219978 141.8530014
  39.9379992 100.8469978 141.4050014  40.6998555 101.1796874 141.6628939
  40.5649992 109.8049978 146.5080014  39.7319992 110.2769978 146.5360014
  41.1099992 110.3149978 145.9100014  40.5247590 109.9385897 146.4309194
  48.5419992 110.8449978 140.8340014  47.8979992 110.2139978 141.1550014
  49.3039992 110.3139978 140.6020014  48.5568058 110.6867902 140.8466038
  53.1469992 110.6619978 141.0680014  53.4299992 109.8669978 141.5200014
  53.8859992 110.8949978 140.5070014  53.2856956 110.5847031 141.0539821
  44.1009992 106.5709978 140.9250014  44.1659992 105.7769978 141.4560014
  44.7539992 106.4529978 140.2350014  44.1981754 106.4463337 140.9044259
  49.4539992 107.6179978 140.6610014  49.1849992 107.7989978 141.5620014
  49.2469992 106.6929978 140.5300014  49.3892000 107.5176774 140.7665693
  45.2509992 104.5439978 143.2310014  44.7909992 104.0599978 143.9170014
  45.5059992 103.8749978 142.5950014  45.2225038 104.3873689 143.2389447
  46.3219992 102.7869978 141.4930014  46.1409992 102.6319978 140.5660014
  47.2719992 102.8949978 141.5380014  46.4256566 102.7803669 141.3720929
  55.7119992 105.1409978 140.9390014  55.4379992 104.7169978 140.1260014
  55.7509992 106.0729978 140.7220014  55.6797716 105.2088827 140.7984286
  46.2189992 113.4769978 142.4950014  47.1519992 113.6349978 142.6380014
  45.9549992 114.1529978 141.8700014  46.3109308 113.5899104 142.4301396
  39.7869992 108.1139978 141.9770014  40.7009992 108.1929978 142.2510014
  39.7949992 107.4269978 141.3110014  39.9131143 108.0319085 141.9244274
  38.4359992 113.5069978 147.0550014  37.7889992 113.0449978 146.5220014
  38.7909992 112.8349978 147.6370014  38.3954506 113.3529503 147.0607341
  56.1699992 106.0099978 144.9140014  57.0199992 106.4309978 145.0410014
  56.1749992 105.2699978 145.5210014  56.2871143 105.9676094 145.0134750
  56.5639992 104.0639978 146.7380014  55.8379992 103.5839978 147.1350014
  57.1459992 104.2689978 147.4700014  56.5431635 104.0259166 146.8913748
  56.8329992 103.9649978 143.1290014  56.3109992 104.3209978 142.4100014
  56.7999992 104.6399978 143.8070014  56.7570699 104.1049848 143.1222129
  55.1819992 101.2039978 141.6800014  55.2779992 101.8709978 141.0000014
  55.0419992 100.3889978 141.1980014  55.1762063 101.1850667 141.5218377
  54.3509992 102.5849978 147.3010014  54.2009992 101.6399978 147.2800014
  53.9969992 102.8659978 148.1440014  54.2825527 102.4935605 147.4121859
  54.4289992  98.6119978 140.7970014  55.0399992  98.2409978 141.4340014
  53.5919992  98.1909978 140.9930014  54.3994947  98.5042756 140.9107252
  54.0619992 100.1669978 145.7630014  54.3409992  99.2599978 145.8870014
  54.8209992 100.6009978 145.3740014  54.2028619 100.1014502 145.7273795
  54.6749992  97.4299978 145.8110014  54.8569992  96.9809978 146.6370014
  54.0749992  96.8459978 145.3480014  54.6187529  97.2896131 145.8613619
  56.5419992  97.4979978 142.3390014  56.9539992  96.7769978 141.8640014
  57.2229992  98.1669978 142.3980014  56.6905900  97.4897306 142.2819038
  38.8229992  97.5029978 145.4660014  37.8979992  97.7109978 145.3370014
  39.2769992  97.9869978 144.7770014  38.7576374  97.5969949 145.3550957
  53.5929992 112.4869978 147.4120014  54.2459992 112.1389978 146.8040014
  54.1039992 112.9749978 148.0580014  53.7512777 112.5053815 147.4162047
  40.0989992  95.5459978 143.4450014  40.5379992  96.1569978 142.8530014
  39.4649992  96.0839978 143.9190014  40.0733859  95.7024064 143.4280305
  45.8419992  95.6739978 147.4550014  46.7159992  96.0629978 147.4250014
  45.7059992  95.4589978 148.3770014  45.9433207  95.6981923 147.5756509
  52.7519992  95.7299978 144.7960014  52.0489992  96.3449978 144.5870014
  52.3069992  94.8929978 144.9280014  52.5956292  95.7010085 144.7852439
  39.9999992 111.4939978 144.3430014  39.3149992 111.4559978 143.6750014
  40.0039992 112.4069978 144.6310014  39.9068174 111.6121998 144.2905310
  41.9599992  97.4619978 141.8870014  42.4509992  96.8319978 141.3600014
  42.5829992  97.7579978 142.5510014  42.1115062  97.4156770 141.9045438
  46.9859992  97.7549978 144.3450014  47.1639992  97.1079978 145.0270014
  46.9319992  98.5889978 144.8120014  47.0031025  97.7790504 144.5016433
  48.8639992 112.7029978 142.7400014  49.7299992 113.0699978 142.5620014
  48.6179992 112.2639978 141.9260014  48.9492097 112.6938525 142.6056019
  55.5729992 112.2659978 145.4190014  55.3789992 111.5179978 144.8540014
  55.5339992 113.0239978 144.8360014  55.5411645 112.2660786 145.2628148
  41.8179992 112.4139978 141.3680014  41.5499992 112.6999978 142.2410014
  42.5889992 111.8679978 141.5200014  41.8855600 112.3793330 141.5081499
  69.1969992 104.9039978 147.6000014  69.2859992 105.8479978 147.4680014
  68.5589992 104.6289978 146.9420014  69.1229062 104.9959812 147.4929641
  58.0319992 101.8829978 146.5400014  57.5839992 102.7289978 146.5210014
  57.4709992 101.3039978 146.0240014  57.8949603 101.9203674 146.4676720
  70.5369992  99.2179978 147.4260014  71.1839992  98.8889978 148.0510014
  71.0469992  99.7349978 146.8030014  70.6944317  99.2429227 147.4272167
  68.9939992 107.5049978 146.6430014  68.6989992 107.1819978 145.7920014
  68.6699992 108.4049978 146.6840014  68.9097983 107.5824026 146.5319771
  58.7229992 107.3159978 144.9560014  58.4509992 107.5449978 144.0670014
  58.7679992 108.1529978 145.4160014  58.6918709 107.4606058 144.8966107
  71.7599992 108.6189978 146.8020014  71.5019992 107.9289978 146.1910014
  71.8309992 108.1759978 147.6480014  71.7342837 108.4647106 146.8326912
  67.9179992 104.1479978 145.0520014  67.2069992 104.6829978 144.7000014
  68.6089992 104.2029978 144.3920014  67.9140751 104.2286777 144.9145858
  67.9719992 102.6049978 142.0910014  68.6729992 102.6279978 142.7420014
  68.2739992 101.9769978 141.4350014  68.1088282 102.5232339 142.0914496
  71.3239992 104.3569978 146.0040014  70.5919992 104.5859978 146.5770014
  71.7709992 103.6439978 146.4590014  71.2842753 104.2918972 146.1439715
  70.1949992 103.5199978 143.6890014  70.7739992 103.6699978 144.4360014
  70.6089992 103.9899978 142.9660014  70.3303122 103.6041277 143.6935042
  67.9209992 110.2559978 147.1240014  68.3949992 110.5519978 147.9020014
  67.3579992 110.9949978 146.8910014  67.9097361 110.3962721 147.1988611
  73.8939992  95.2699978 143.5020014  72.9939992  95.4089978 143.7970014
  74.1459992  96.1009978 143.1000014  73.8048683  95.4014055 143.4880232
  61.9599992 104.0569978 145.4760014  61.6679992 104.8249978 144.9850014
  61.2849992 103.3979978 145.3130014  61.8288497 104.0729745 145.3868260
  75.0829992 109.6359978 141.8780014  75.1559992 110.5749978 142.0490014
  75.9879992 109.3309978 141.8220014  75.2154158 109.7233061 141.8938392
  67.3939992 113.2129978 145.5390014  67.3179992 113.0919978 144.5930014
  67.4259992 114.1619978 145.6580014  67.3879156 113.3247530 145.4255048
  61.0469992 112.0019978 147.3200014  61.1989992 111.6539978 148.1990014
  60.1959992 111.6449978 147.0650014  60.9527899 111.9061738 147.4057340
  70.4949992 112.3669978 142.5410014  70.8699992 111.6229978 142.0710014
  70.4999992 112.0969978 143.4600014  70.5470024 112.2286950 142.6007987
  70.1639992 112.2929978 145.2910014  69.2289992 112.3929978 145.4690014
  70.4439992 111.5829978 145.8690014  70.0738173 112.2107239 145.3934998
  71.6719992 104.5519978 141.3190014  71.7139992 104.3299978 140.3890014
  72.5209992 104.9509978 141.5090014  71.7925253 104.5755498 141.2173822
  67.2449992  98.4279978 141.9890014  66.9909992  98.4469978 142.9120014
  66.9879992  97.5569978 141.6880014  67.1755133  98.3128110 142.0745082
  63.0079992 101.3999978 147.3360014  62.1159992 101.0599978 147.2780014
  63.4589992 101.0229978 146.5810014  62.9466815 101.3023762 147.2259203
  68.5439992 101.8159978 146.1530014  68.1349992 102.6309978 145.8620014
  69.2639992 101.6759978 145.5390014  68.5854013 101.9086571 146.0300875
  64.1269992  98.8739978 141.0900014  63.6959992  98.4289978 141.8200014
  63.4089992  99.2449978 140.5780014  63.9709363  98.8632968 141.1206211
  58.6439992  99.3619978 143.5660014  59.1179992  99.9529978 142.9810014
  57.9259992  99.8919978 143.9130014  58.6118640  99.5145511 143.5327969
  60.4179992 100.4569978 147.2490014  59.5289992 100.5559978 146.9090014
  60.7149992  99.6149978 146.9030014  60.3364177 100.3567687 147.1556940
  64.0709992 100.4569978 144.9060014  65.0029992 100.5859978 145.0840014
  63.8559992 101.1259978 144.2560014  64.1694472 100.5650806 144.8424891
  62.7449992 101.6509978 142.4730014  62.2029992 101.2719978 141.7810014
  63.5789992 101.8459978 142.0440014  62.7835159 101.6255076 142.3204419
  61.9119992  97.7519978 146.7280014  61.5949992  96.8489978 146.6930014
  62.6929992  97.7539978 146.1750014  61.9742307  97.6286951 146.6484314
  66.0809992 106.2169978 144.4080014  65.3359992 105.7089978 144.0860014
  65.9459992 106.2659978 145.3550014  65.9609047 106.1541596 144.4918845
  69.9779992  99.0309978 142.6080014  69.0399992  99.1419978 142.4560014
  70.2759992  99.8869978 142.9140014  69.8896402  99.1620621 142.6285571
  70.6969992 100.8979978 144.2680014  71.5889992 100.7599978 144.5870014
  70.7529992 101.6889978 143.7320014  70.8267107 100.9860526 144.2392091
  68.2059992 107.6749978 143.4340014  67.9109992 108.5019978 143.8150014
  67.5029992 107.0559978 143.6300014  68.0705471 107.7045227 143.5126698
  75.5819992 101.1069978 143.9630014  75.0269992 100.7109978 143.2910014
  75.6819992 102.0179978 143.6850014  75.5195888 101.1758990 143.8335206
  73.8769992 109.8929978 144.4280014  73.5039992 109.0679978 144.7370014
  74.1539992 109.7099978 143.5310014  73.8633871 109.7552441 144.3489677
  63.5799992 109.0299978 147.5820014  64.1079992 109.8029978 147.3820014
  62.6999992 109.2539978 147.2810014  63.5333176 109.1663161 147.5138409
  59.3349992 103.8919978 142.1700014  59.9509992 104.5189978 142.5490014
  58.4729992 104.2079978 142.4410014  59.3028195 104.0205798 142.2585386
  65.0079992 106.6929978 147.1590014  64.7669992 107.6179978 147.2000014
  64.2669992 106.2339978 147.5550014  64.8748390 106.7576403 147.2181404
  63.6909992 111.7139978 146.7040014  62.7409992 111.8199978 146.7550014
  64.0429992 112.5349978 147.0490014  63.6085480 111.8394438 146.7575999
  71.2689992 107.8699978 142.2480014  71.6229992 107.4899978 143.0530014
  70.3209992 107.7759978 142.3350014  71.1891820 107.8053092 142.3698714
  75.7729992 112.3489978 142.4490014  76.5169992 112.9349978 142.3090014
  75.0789992 112.9179978 142.7830014  75.7810201 112.5060603 142.4749772
  72.1349992 106.5419978 144.4750014  71.8579992 105.8139978 145.0310014
  73.0629992 106.6609978 144.6800014  72.2224499 106.4584213 144.5788044
  65.3599992 108.9819978 140.6950014  65.5989992 108.2329978 140.1480014
  65.0909992 108.5939978 141.5280014  65.3563233 108.8271853 140.7327809
  64.2969992 108.5519978 143.1520014  64.4439992 108.0319978 143.9420014
  64.2939992 109.4589978 143.4580014  64.3167300 108.6033964 143.3015895
  60.7499992 105.8039978 143.6620014  60.0639992 106.1569978 144.2290014
  61.2729992 106.5669978 143.4160014  60.7269033 105.9553746 143.7062661
  69.3659992  98.1189978 145.0380014  69.5859992  98.5899978 144.2350014
  69.9249992  98.5129978 145.7080014  69.4716730  98.2367432 145.0185906
  67.0349992 110.2489978 143.9010014  66.2179992 110.7459978 143.9530014
  67.5639992 110.7249978 143.2610014  66.9948508 110.3812543 143.8216035
  66.5659992  99.8469978 145.8730014  67.3779992 100.3509978 145.9190014
  66.3219992  99.7019978 146.7870014  66.6441467  99.8963749 146.0028575
  67.4499992  96.9279978 146.8110014  67.1029992  97.5449978 147.4560014
  68.1089992  97.4289978 146.3300014  67.4915949  97.0801099 146.8342271
  64.3729992 111.2929978 143.8830014  64.5339992 112.0929978 143.3820014
  64.1759992 111.5999978 144.7680014  64.3683919 111.4439129 143.9341006
  63.1079992  97.9909978 143.4980014  63.0239992  98.8789978 143.8450014
  63.9979992  97.7259978 143.7300014  63.2168163  98.0767179 143.5768596
  61.3659992 108.4179978 142.5590014  61.9579992 109.1179978 142.8350014
  61.8249992 107.9849978 141.8390014  61.5090791 108.4552908 142.4994607
  59.6819992 101.0829978 141.6750014  59.6369992 102.0219978 141.8530014
  58.7939992 100.8469978 141.4050014  59.5558555 101.1796874 141.6628939
  59.4209992 109.8049978 146.5080014  58.5879992 110.2769978 146.5360014
  59.9659992 110.3149978 145.9100014  59.3807590 109.9385897 146.4309194
  67.3979992 110.8449978 140.8340014  66.7539992 110.2139978 141.1550014
  68.1599992 110.3139978 140.6020014  67.4128058 110.6867902 140.8466038
  72.0029992 110.6619978 141.0680014  72.2859992 109.8669978 141.5200014
  72.7419992 110.8949978 140.5070014  72.1416956 110.5847031 141.0539822
  62.9569992 106.5709978 140.9250014  63.0219992 105.7769978 141.4560014
  63.6099992 106.4529978 140.2350014  63.0541754 106.4463337 140.9044259
  68.3099992 107.6179978 140.6610014  68.0409992 107.7989978 141.5620014
  68.1029992 106.6929978 140.5300014  68.2452000 107.5176774 140.7665693
  64.1069992 104.5439978 143.2310014  63.6469992 104.0599978 143.9170014
  64.3619992 103.8749978 142.5950014  64.0785038 104.3873689 143.2389447
  65.1779992 102.7869978 141.4930014  64.9969992 102.6319978 140.5660014
  66.1279992 102.8949978 141.5380014  65.2816566 102.7803669 141.3720929
  74.5679992 105.1409978 140.9390014  74.2939992 104.7169978 140.1260014
  74.6069992 106.0729978 140.7220014  74.5357716 105.2088827 140.7984286
  65.0749992 113.4769978 142.4950014  66.0079992 113.6349978 142.6380014
  64.8109992 114.1529978 141.8700014  65.1669308 113.5899104 142.4301396
  58.6429992 108.1139978 141.9770014  59.5569992 108.1929978 142.2510014
  58.6509992 107.4269978 141.3110014  58.7691143 108.0319085 141.9244274
  57.2919992 113.5069978 147.0550014  56.6449992 113.0449978 146.5220014
  57.6469992 112.8349978 147.6370014  57.2514506 113.3529503 147.0607341
  75.0259992 106.0099978 144.9140014  75.8759992 106.4309978 145.0410014
  75.0309992 105.2699978 145.5210014  75.1431143 105.9676094 145.0134750
  75.4199992 104.0639978 146.7380014  74.6939992 103.5839978 147.1350014
  76.0019992 104.2689978 147.4700014  75.3991635 104.0259166 146.8913748
  75.6889992 103.9649978 143.1290014  75.1669992 104.3209978 142.4100014
  75.6559992 104.6399978 143.8070014  75.6130699 104.1049848 143.1222129
  74.0379992 101.2039978 141.6800014  74.1339992 101.8709978 141.0000014
  73.8979992 100.3889978 141.1980014  74.0322063 101.1850667 141.5218377
  73.2069992 102.5849978 147.3010014  73.0569992 101.6399978 147.2800014
  72.8529992 102.8659978 148.1440014  73.1385527 102.4935605 147.4121859
  73.2849992  98.6119978 140.7970014  73.8959992  98.2409978 141.4340014
  72.4479992  98.1909978 140.9930014  73.2554947  98.5042756 140.9107252
  72.9179992 100.1669978 145.7630014  73.1969992  99.2599978 145.8870014
  73.6769992 100.6009978 145.3740014  73.0588619 100.1014502 145.7273795
  73.5309992  97.4299978 145.8110014  73.7129992  96.9809978 146.6370014
  72.9309992  96.8459978 145.3480014  73.4747529  97.2896131 145.8613619
  75.3979992  97.4979978 142.3390014  75.8099992  96.7769978 141.8640014
  76.0789992  98.1669978 142.3980014  75.5465900  97.4897306 142.2819038
  57.6789992  97.5029978 145.4660014  56.7539992  97.7109978 145.3370014
  58.1329992  97.9869978 144.7770014  57.6136374  97.5969949 145.3550957
  72.4489992 112.4869978 147.4120014  73.1019992 112.1389978 146.8040014
  72.9599992 112.9749978 148.0580014  72.6072777 112.5053815 147.4162047
  58.9549992  95.5459978 143.4450014  59.3939992  96.1569978 142.8530014
  58.3209992  96.0839978 143.9190014  58.9293859  95.7024064 143.4280305
  64.6979992  95.6739978 147.4550014  65.5719992  96.0629978 147.4250014
  64.5619992  95.4589978 148.3770014  64.7993207  95.6981923 147.5756509
  71.6079992  95.7299978 144.7960014  70.9049992  96.3449978 144.5870014
  71.1629992  94.8929978 144.9280014  71.4516292  95.7010085 144.7852439
  58.8559992 111.4939978 144.3430014  58.1709992 111.4559978 143.6750014
  58.8599992 112.4069978 144.6310014  58.7628174 111.6121998 144.2905310
  60.8159992  97.4619978 141.8870014  61.3069992  96.8319978 141.3600014
  61.4389992  97.7579978 142.5510014  60.9675062  97.4156770 141.9045438
  65.8419992  97.7549978 144.3450014  66.0199992  97.1079978 145.0270014
  65.7879992  98.5889978 144.8120014  65.8591025  97.7790504 144.5016433
  67.7199992 112.7029978 142.7400014  68.5859992 113.0699978 142.5620014
  67.4739992 112.2639978 141.9260014  67.8052097 112.6938525 142.6056019
  74.4289992 112.2659978 145.4190014  74.2349992 111.5179978 144.8540014
  74.3899992 113.0239978 144.8360014  74.3971645 112.2660786 145.2628148
  60.6739992 112.4139978 141.3680014  60.4059992 112.6999978 142.2410014
  61.4449992 111.8679978 141.5200014  60.7415600 112.3793330 141.5081499
  88.0529992 104.9039978 147.6000014  88.1419992 105.8479978 147.4680014
  87.4149992 104.6289978 146.9420014  87.9789062 104.9959812 147.4929641
  76.8879992 101.8829978 146.5400014  76.4399992 102.7289978 146.5210014
  76.3269992 101.3039978 146.0240014  76.7509603 101.9203674 146.4676720
  89.3929992  99.2179978 147.4260014  90.0399992  98.8889978 148.0510014
  89.9029992  99.7349978 146.8030014  89.5504317  99.2429227 147.4272167
  87.8499992 107.5049978 146.6430014  87.5549992 107.1819978 145.7920014
  87.5259992 108.4049978 146.6840014  87.7657983 107.5824026 146.5319771
  77.5789992 107.3159978 144.9560014  77.3069992 107.5449978 144.0670014
  77.6239992 108.1529978 145.4160014  77.5478709 107.4606058 144.8966107
  90.6159992 108.6189978 146.8020014  90.3579992 107.9289978 146.1910014
  90.6869992 108.1759978 147.6480014  90.5902837 108.4647106 146.8326912
  86.7739992 104.1479978 145.0520014  86.0629992 104.6829978 144.7000014
  87.4649992 104.2029978 144.3920014  86.7700751 104.2286777 144.9145858
  86.8279992 102.6049978 142.0910014  87.5289992 102.6279978 142.7420014
  87.1299992 101.9769978 141.4350014  86.9648282 102.5232339 142.0914496
  90.1799992 104.3569978 146.0040014  89.4479992 104.5859978 146.5770014
  90.6269992 103.6439978 146.4590014  90.1402753 104.2918972 146.1439715
  89.0509992 103.5199978 143.6890014  89.6299992 103.6699978 144.4360014
  89.4649992 103.9899978 142.9660014  89.1863122 103.6041277 143.6935042
  86.7769992 110.2559978 147.1240014  87.2509992 110.5519978 147.9020014
  86.2139992 110.9949978 146.8910014  86.7657361 110.3962721 147.1988611
  92.7499992  95.2699978 143.5020014  91.8499992  95.4089978 143.7970014
  93.0019992  96.1009978 143.1000014  92.6608683  95.4014055 143.4880232
  80.8159992 104.0569978 145.4760014  80.5239992 104.8249978 144.9850014
  80.1409992 103.3979978 145.3130014  80.6848497 104.0729745 145.3868260
  93.9389992 109.6359978 141.8780014  94.0119992 110.5749978 142.0490014
  94.8439992 109.3309978 141.8220014  94.0714158 109.7233061 141.8938392
  86.2499992 113.2129978 145.5390014  86.1739992 113.0919978 144.5930014
  86.2819992 114.1619978 145.6580014  86.2439156 113.3247530 145.4255048
  79.9029992 112.0019978 147.3200014  80.0549992 111.6539978 148.1990014
  79.0519992 111.6449978 147.0650014  79.8087899 111.9061738 147.4057340
  89.3509992 112.3669978 142.5410014  89.7259992 111.6229978 142.0710014
  89.3559992 112.0969978 143.4600014  89.4030024 112.2286950 142.6007987
  89.0199992 112.2929978 145.2910014  88.0849992 112.3929978 145.4690014
  89.2999992 111.5829978 145.8690014  88.9298173 112.2107239 145.3934998
  90.5279992 104.5519978 141.3190014  90.5699992 104.3299978 140.3890014
  91.3769992 104.9509978 141.5090014  90.6485253 104.5755498 141.2173822
  86.1009992  98.4279978 141.9890014  85.8469992  98.4469978 142.9120014
  85.8439992  97.5569978 141.6880014  86.0315133  98.3128110 142.0745082
  81.8639992 101.3999978 147.3360014  80.9719992 101.0599978 147.2780014
  82.3149992 101.0229978 146.5810014  81.8026815 101.3023762 147.2259203
  87.3999992 101.8159978 146.1530014  86.9909992 102.6309978 145.8620014
  88.1199992 101.6759978 145.5390014  87.4414013 101.9086571 146.0300875
  82.9829992  98.8739978 141.0900014  82.5519992  98.4289978 141.8200014
  82.2649992  99.2449978 140.5780014  82.8269363  98.8632968 141.1206211
  77.4999992  99.3619978 143.5660014  77.9739992  99.9529978 142.9810014
  76.7819992  99.8919978 143.9130014  77.4678640  99.5145511 143.5327969
  79.2739992 100.4569978 147.2490014  78.3849992 100.5559978 146.9090014
  79.5709992  99.6149978 146.9030014  79.1924177 100.3567687 147.1556940
  82.9269992 100.4569978 144.9060014  83.8589992 100.5859978 145.0840014
  82.7119992 101.1259978 144.2560014  83.0254472 100.5650806 144.8424891
  81.6009992 101.6509978 142.4730014  81.0589992 101.2719978 141.7810014
  82.4349992 101.8459978 142.0440014  81.6395159 101.6255076 142.3204419
  80.7679992  97.7519978 146.7280014  80.4509992  96.8489978 146.6930014
  81.5489992  97.7539978 146.1750014  80.8302307  97.6286951 146.6484314
  84.9369992 106.2169978 144.4080014  84.1919992 105.7089978 144.0860014
  84.8019992 106.2659978 145.3550014  84.8169047 106.1541596 144.4918845
  88.8339992  99.0309978 142.6080014  87.8959992  99.1419978 142.4560014
  89.1319992  99.8869978 142.9140014  88.7456402  99.1620621 142.6285571
  89.5529992 100.8979978 144.2680014  90.4449992 100.7599978 144.5870014
  89.6089992 101.6889978 143.7320014  89.6827107 100.9860526 144.2392091
  87.0619992 107.6749978 143.4340014  86.7669992 108.5019978 143.8150014
  86.3589992 107.0559978 143.6300014  86.9265471 107.7045227 143.5126698
  94.4379992 101.1069978 143.9630014  93.8829992 100.7109978 143.2910014
  94.5379992 102.0179978 143.6850014  94.3755888 101.1758990 143.8335206
  92.7329992 109.8929978 144.4280014  92.3599992 109.0679978 144.7370014
  93.0099992 109.7099978 143.5310014  92.7193871 109.7552441 144.3489677
  82.4359992 109.0299978 147.5820014  82.9639992 109.8029978 147.3820014
  81.5559992 109.2539978 147.2810014  82.3893176 109.1663161 147.5138409
  78.1909992 103.8919978 142.1700014  78.8069992 104.5189978 142.5490014
  77.3289992 104.2079978 142.4410014  78.1588195 104.0205798 142.2585386
  83.8639992 106.6929978 147.1590014  83.6229992 107.6179978 147.2000014
  83.1229992 106.2339978 147.5550014  83.7308390 106.7576403 147.2181404
  82.5469992 111.7139978 146.7040014  81.5969992 111.8199978 146.7550014
  82.8989992 112.5349978 147.0490014  82.4645480 111.8394438 146.7575999
  90.1249992 107.8699978 142.2480014  90.4789992 107.4899978 143.0530014
  89.1769992 107.7759978 142.3350014  90.0451820 107.8053092 142.3698714
  94.6289992 112.3489978 142.4490014  95.3729992 112.9349978 142.3090014
  93.9349992 112.9179978 142.7830014  94.6370201 112.5060603 142.4749772
  90.9909992 106.5419978 144.4750014  90.7139992 105.8139978 145.0310014
  91.9189992 106.6609978 144.6800014  91.0784499 106.4584213 144.5788044
  84.2159992 108.9819978 140.6950014  84.4549992 108.2329978 140.1480014
  83.9469992 108.5939978 141.5280014  84.2123233 108.8271853 140.7327809
  83.1529992 108.5519978 143.1520014  83.2999992 108.0319978 143.9420014
  83.1499992 109.4589978 143.4580014  83.1727300 108.6033964 143.3015895
  79.6059992 105.8039978 143.6620014  78.9199992 106.1569978 144.2290014
  80.1289992 106.5669978 143.4160014  79.5829033 105.9553746 143.7062661
  88.2219992  98.1189978 145.0380014  88.4419992  98.5899978 144.2350014
  88.7809992  98.5129978 145.7080014  88.3276730  98.2367432 145.0185906
  85.8909992 110.2489978 143.9010014  85.0739992 110.7459978 143.9530014
  86.4199992 110.7249978 143.2610014  85.8508508 110.3812543 143.8216035
  85.4219992  99.8469978 145.8730014  86.2339992 100.3509978 145.9190014
  85.1779992  99.7019978 146.7870014  85.5001467  99.8963749 146.0028575
  86.3059992  96.9279978 146.8110014  85.9589992  97.5449978 147.4560014
  86.9649992  97.4289978 146.3300014  86.3475950  97.0801099 146.8342271
  83.2289992 111.2929978 143.8830014  83.3899992 112.0929978 143.3820014
  83.0319992 111.5999978 144.7680014  83.2243919 111.4439129 143.9341006
  81.9639992  97.9909978 143.4980014  81.8799992  98.8789978 143.8450014
  82.8539992  97.7259978 143.7300014  82.0728163  98.0767179 143.5768596
  80.2219992 108.4179978 142.5590014  80.8139992 109.1179978 142.8350014
  80.6809992 107.9849978 141.8390014  80.3650791 108.4552908 142.4994607
  78.5379992 101.0829978 141.6750014  78.4929992 102.0219978 141.8530014
  77.6499992 100.8469978 141.4050014  78.4118555 101.1796874 141.6628939
  78.2769992 109.8049978 146.5080014  77.4439992 110.2769978 146.5360014
  78.8219992 110.3149978 145.9100014  78.2367590 109.9385897 146.4309194
  86.2539992 110.8449978 140.8340014  85.6099992 110.2139978 141.1550014
  87.0159992 110.3139978 140.6020014  86.2688058 110.6867902 140.8466038
  90.8589992 110.6619978 141.0680014  91.1419992 109.8669978 141.5200014
  91.5979992 110.8949978 140.5070014  90.9976956 110.5847031 141.0539821
  81.8129992 106.5709978 140.9250014  81.8779992 105.7769978 141.4560014
  82.4659992 106.4529978 140.2350014  81.9101754 106.4463337 140.9044259
  87.1659992 107.6179978 140.6610014  86.8969992 107.7989978 141.5620014
  86.9589992 106.6929978 140.5300014  87.1012000 107.5176774 140.7665693
  82.9629992 104.5439978 143.2310014  82.5029992 104.0599978 143.9170014
  83.2179992 103.8749978 142.5950014  82.9345038 104.3873689 143.2389447
  84.0339992 102.7869978 141.4930014  83.8529992 102.6319978 140.5660014
  84.9839992 102.8949978 141.5380014  84.1376566 102.7803669 141.3720929
  93.4239992 105.1409978 140.9390014  93.1499992 104.7169978 140.1260014
  93.4629992 106.0729978 140.7220014  93.3917716 105.2088827 140.7984286
  83.9309992 113.4769978 142.4950014  84.8639992 113.6349978 142.6380014
  83.6669992 114.1529978 141.8700014  84.0229308 113.5899104 142.4301396
  77.4989992 108.1139978 141.9770014  78.4129992 108.1929978 142.2510014
  77.5069992 107.4269978 141.3110014  77.6251143 108.0319085 141.9244274
  76.1479992 113.5069978 147.0550014  75.5009992 113.0449978 146.5220014
  76.5029992 112.8349978 147.6370014  76.1074506 113.3529503 147.0607341
  93.8819992 106.0099978 144.9140014  94.7319992 106.4309978 145.0410014
  93.8869992 105.2699978 145.5210014  93.9991143 105.9676094 145.0134750
  94.2759992 104.0639978 146.7380014  93.5499992 103.5839978 147.1350014
  94.8579992 104.2689978 147.4700014  94.2551635 104.0259166 146.8913748
  94.5449992 103.9649978 143.1290014  94.0229992 104.3209978 142.4100014
  94.5119992 104.6399978 143.8070014  94.4690699 104.1049848 143.1222129
  92.8939992 101.2039978 141.6800014  92.9899992 101.8709978 141.0000014
  92.7539992 100.3889978 141.1980014  92.8882063 101.1850667 141.5218377
  92.0629992 102.5849978 147.3010014  91.9129992 101.6399978 147.2800014
  91.7089992 102.8659978 148.1440014  91.9945527 102.4935605 147.4121859
  92.1409992  98.6119978 140.7970014  92.7519992  98.2409978 141.4340014
  91.3039992  98.1909978 140.9930014  92.1114947  98.5042756 140.9107252
  91.7739992 100.1669978 145.7630014  92.0529992  99.2599978 145.8870014
  92.5329992 100.6009978 145.3740014  91.9148619 100.1014502 145.7273795
  92.3869992  97.4299978 145.8110014  92.5689992  96.9809978 146.6370014
  91.7869992  96.8459978 145.3480014  92.3307529  97.2896131 145.8613619
  94.2539992  97.4979978 142.3390014  94.6659992  96.7769978 141.8640014
  94.9349992  98.1669978 142.3980014  94.4025900  97.4897306 142.2819038
  76.5349992  97.5029978 145.4660014  75.6099992  97.7109978 145.3370014
  76.9889992  97.9869978 144.7770014  76.4696374  97.5969949 145.3550957
  91.3049992 112.4869978 147.4120014  91.9579992 112.1389978 146.8040014
  91.8159992 112.9749978 148.0580014  91.4632777 112.5053815 147.4162047
  77.8109992  95.5459978 143.4450014  78.2499992  96.1569978 142.8530014
  77.1769992  96.0839978 143.9190014  77.7853859  95.7024064 143.4280305
  83.5539992  95.6739978 147.4550014  84.4279992  96.0629978 147.4250014
  83.4179992  95.4589978 148.3770014  83.6553207  95.6981923 147.5756509
  90.4639992  95.7299978 144.7960014  89.7609992  96.3449978 144.5870014
  90.0189992  94.8929978 144.9280014  90.3076292  95.7010085 144.7852439
  77.7119992 111.4939978 144.3430014  77.0269992 111.4559978 143.6750014
  77.7159992 112.4069978 144.6310014  77.6188174 111.6121998 144.2905310
  79.6719992  97.4619978 141.8870014  80.1629992  96.8319978 141.3600014
  80.2949992  97.7579978 142.5510014  79.8235062  97.4156770 141.9045438
  84.6979992  97.7549978 144.3450014  84.8759992  97.1079978 145.0270014
  84.6439992  98.5889978 144.8120014  84.7151025  97.7790504 144.5016433
  86.5759992 112.7029978 142.7400014  87.4419992 113.0699978 142.5620014
  86.3299992 112.2639978 141.9260014  86.6612097 112.6938525 142.6056019
  93.2849992 112.2659978 145.4190014  93.0909992 111.5179978 144.8540014
  93.2459992 113.0239978 144.8360014  93.2531645 112.2660786 145.2628148
  79.5299992 112.4139978 141.3680014  79.2619992 112.6999978 142.2410014
  80.3009992 111.8679978 141.5200014  79.5975600 112.3793330 141.5081499
 106.9089992 104.9039978 147.6000014 106.9979992 105.8479978 147.4680014
 106.2709992 104.6289978 146.9420014 106.8349062 104.9959812 147.4929641
  95.7439992 101.8829978 146.5400014  95.2959992 102.7289978 146.5210014
  95.1829992 101.3039978 146.0240014  95.6069603 101.9203674 146.4676720
 108.2489992  99.2179978 147.4260014 108.8959992  98.8889978 148.0510014
 108.7589992  99.7349978 146.8030014 108.4064317  99.2429227 147.4272167
 106.7059992 107.5049978 146.6430014 106.4109992 107.1819978 145.7920014
 106.3819992 108.4049978 146.6840014 106.6217983 107.5824026 146.5319771
  96.4349992 107.3159978 144.9560014  96.1629992 107.5449978 144.0670014
  96.4799992 108.1529978 145.4160014  96.4038709 107.4606058 144.8966107
 109.4719992 108.6189978 146.8020014 109.2139992 107.9289978 146.1910014
 109.5429992 108.1759978 147.6480014 109.4462837 108.4647106 146.8326912
 105.6299992 104.1479978 145.0520014 104.9189992 104.6829978 144.7000014
 106.3209992 104.2029978 144.3920014 105.6260751 104.2286777 144.9145858
 105.6839992 102.6049978 142.0910014 106.3849992 102.6279978 142.7420014
 105.9859992 101.9769978 141.4350014 105.8208282 102.5232339 142.0914496
 109.0359992 104.3569978 146.0040014 108.3039992 104.5859978 146.5770014
 109.4829992 103.6439978 146.4590014 108.9962753 104.2918972 146.1439715
 107.9069992 103.5199978 143.6890014 108.4859992 103.6699978 144.4360014
 108.3209992 103.9899978 142.9660014 108.0423122 103.6041277 143.6935042
 105.6329992 110.2559978 147.1240014 106.1069992 110.5519978 147.9020014
 105.0699992 110.9949978 146.8910014 105.6217361 110.3962721 147.1988611
 111.6059992  95.2699978 143.5020014 110.7059992  95.4089978 143.7970014
 111.8579992  96.1009978 143.1000014 111.5168683  95.4014055 143.4880232
  99.6719992 104.0569978 145.4760014  99.3799992 104.8249978 144.9850014
  98.9969992 103.3979978 145.3130014  99.5408497 104.0729745 145.3868260
 112.7949992 109.6359978 141.8780014 112.8679992 110.5749978 142.0490014
 113.6999992 109.3309978 141.8220014 112.9274158 109.7233061 141.8938392
 105.1059992 113.2129978 145.5390014 105.0299992 113.0919978 144.5930014
 105.1379992 114.1619978 145.6580014 105.0999156 113.3247530 145.4255048
  98.7589992 112.0019978 147.3200014  98.9109992 111.6539978 148.1990014
  97.9079992 111.6449978 147.0650014  98.6647899 111.9061738 147.4057340
 108.2069992 112.3669978 142.5410014 108.5819992 111.6229978 142.0710014
 108.2119992 112.0969978 143.4600014 108.2590024 112.2286950 142.6007987
 107.8759992 112.2929978 145.2910014 106.9409992 112.3929978 145.4690014
 108.1559992 111.5829978 145.8690014 107.7858173 112.2107239 145.3934998
 109.3839992 104.5519978 141.3190014 109.4259992 104.3299978 140.3890014
 110.2329992 104.9509978 141.5090014 109.5045253 104.5755498 141.2173822
 104.9569992  98.4279978 141.9890014 104.7029992  98.4469978 142.9120014
 104.6999992  97.5569978 141.6880014 104.8875133  98.3128110 142.0745082
 100.7199992 101.3999978 147.3360014  99.8279992 101.0599978 147.2780014
 101.1709992 101.0229978 146.5810014 100.6586815 101.3023762 147.2259203
 106.2559992 101.8159978 146.1530014 105.8469992 102.6309978 145.8620014
 106.9759992 101.6759978 145.5390014 106.2974013 101.9086571 146.0300875
 101.8389992  98.8739978 141.0900014 101.4079992  98.4289978 141.8200014
 101.1209992  99.2449978 140.5780014 101.6829363  98.8632968 141.1206211
  96.3559992  99.3619978 143.5660014  96.8299992  99.9529978 142.9810014
  95.6379992  99.8919978 143.9130014  96.3238640  99.5145511 143.5327969
  98.1299992 100.4569978 147.2490014  97.2409992 100.5559978 146.9090014
  98.4269992  99.6149978 146.9030014  98.0484177 100.3567687 147.1556940
 101.7829992 100.4569978 144.9060014 102.7149992 100.5859978 145.0840014
 101.5679992 101.1259978 144.2560014 101.8814472 100.5650806 144.8424891
 100.4569992 101.6509978 142.4730014  99.9149992 101.2719978 141.7810014
 101.2909992 101.8459978 142.0440014 100.4955159 101.6255076 142.3204419
  99.6239992  97.7519978 146.7280014  99.3069992  96.8489978 146.6930014
 100.4049992  97.7539978 146.1750014  99.6862307  97.6286951 146.6484314
 103.7929992 106.2169978 144.4080014 103.0479992 105.7089978 144.0860014
 103.6579992 106.2659978 145.3550014 103.6729047 106.1541596 144.4918845
 107.6899992  99.0309978 142.6080014 106.7519992  99.1419978 142.4560014
 107.9879992  99.8869978 142.9140014 107.6016402  99.1620621 142.6285571
 108.4089992 100.8979978 144.2680014 109.3009992 100.7599978 144.5870014
 108.4649992 101.6889978 143.7320014 108.5387107 100.9860526 144.2392091
 105.9179992 107.6749978 143.4340014 105.6229992 108.5019978 143.8150014
 105.2149992 107.0559978 143.6300014 105.7825471 107.7045227 143.5126698
 113.2939992 101.1069978 143.9630014 112.7389992 100.7109978 143.2910014
 113.3939992 102.0179978 143.6850014 113.2315888 101.1758990 143.8335206
 111.5889992 109.8929978 144.4280014 111.2159992 109.0679978 144.7370014
 111.8659992 109.7099978 143.5310014 111.5753871 109.7552441 144.3489677
 101.2919992 109.0299978 147.5820014 101.8199992 109.8029978 147.3820014
 100.4119992 109.2539978 147.2810014 101.2453176 109.1663161 147.5138409
  97.0469992 103.8919978 142.1700014  97.6629992 104.5189978 142.5490014
  96.1849992 104.2079978 142.4410014  97.0148195 104.0205798 142.2585386
 102.7199992 106.6929978 147.1590014 102.4789992 107.6179978 147.2000014
 101.9789992 106.2339978 147.5550014 102.5868390 106.7576403 147.2181404
 101.4029992 111.7139978 146.7040014 100.4529992 111.8199978 146.7550014
 101.7549992 112.5349978 147.0490014 101.3205480 111.8394438 146.7575999
 108.9809992 107.8699978 142.2480014 109.3349992 107.4899978 143.0530014
 108.0329992 107.7759978 142.3350014 108.9011820 107.8053092 142.3698714
 113.4849992 112.3489978 142.4490014 114.2289992 112.9349978 142.3090014
 112.7909992 112.9179978 142.7830014 113.4930201 112.5060603 142.4749772
 109.8469992 106.5419978 144.4750014 109.5699992 105.8139978 145.0310014
 110.7749992 106.6609978 144.6800014 109.9344499 106.4584213 144.5788044
 103.0719992 108.9819978 140.6950014 103.3109992 108.2329978 140.1480014
 102.8029992 108.5939978 141.5280014 103.0683233 108.8271853 140.7327809
 102.0089992 108.5519978 143.1520014 102.1559992 108.0319978 143.9420014
 102.0059992 109.4589978 143.4580014 102.0287300 108.6033964 143.3015895
  98.4619992 105.8039978 143.6620014  97.7759992 106.1569978 144.2290014
  98.9849992 106.5669978 143.4160014  98.4389033 105.9553746 143.7062661
 107.0779992  98.1189978 145.0380014 107.2979992  98.5899978 144.2350014
 107.6369992  98.5129978 145.7080014 107.1836730  98.2367432 145.0185906
 104.7469992 110.2489978 143.9010014 103.9299992 110.7459978 143.9530014
 105.2759992 110.7249978 143.2610014 104.7068508 110.3812543 143.8216035
 104.2779992  99.8469978 145.8730014 105.0899992 100.3509978 145.9190014
 104.0339992  99.7019978 146.7870014 104.3561467  99.8963749 146.0028575
 105.1619992  96.9279978 146.8110014 104.8149992  97.5449978 147.4560014
 105.8209992  97.4289978 146.3300014 105.2035949  97.0801099 146.8342271
 102.0849992 111.2929978 143.8830014 102.2459992 112.0929978 143.3820014
 101.8879992 111.5999978 144.7680014 102.0803919 111.4439129 143.9341006
 100.8199992  97.9909978 143.4980014 100.7359992  98.8789978 143.8450014
 101.7099992  97.7259978 143.7300014 100.9288163  98.0767179 143.5768596
  99.0779992 108.4179978 142.5590014  99.6699992 109.1179978 142.8350014
  99.5369992 107.9849978 141.8390014  99.2210791 108.4552908 142.4994607
  97.3939992 101.0829978 141.6750014  97.3489992 102.0219978 141.8530014
  96.5059992 100.8469978 141.4050014  97.2678555 101.1796874 141.6628939
  97.1329992 109.8049978 146.5080014  96.2999992 110.2769978 146.5360014
  97.6779992 110.3149978 145.9100014  97.0927590 109.9385897 146.4309194
 105.1099992 110.8449978 140.8340014 104.4659992 110.2139978 141.1550014
 105.8719992 110.3139978 140.6020014 105.1248058 110.6867902 140.8466038
 109.7149992 110.6619978 141.0680014 109.9979992 109.8669978 141.5200014
 110.4539992 110.8949978 140.5070014 109.8536956 110.5847031 141.0539821
 100.6689992 106.5709978 140.9250014 100.7339992 105.7769978 141.4560014
 101.3219992 106.4529978 140.2350014 100.7661754 106.4463337 140.9044259
 106.0219992 107.6179978 140.6610014 105.7529992 107.7989978 141.5620014
 105.8149992 106.6929978 140.5300014 105.9572000 107.5176774 140.7665693
 101.8189992 104.5439978 143.2310014 101.3589992 104.0599978 143.9170014
 102.0739992 103.8749978 142.5950014 101.7905038 104.3873689 143.2389447
 102.8899992 102.7869978 141.4930014 102.7089992 102.6319978 140.5660014
 103.8399992 102.8949978 141.5380014 102.9936566 102.7803669 141.3720929
 112.2799992 105.1409978 140.9390014 112.0059992 104.7169978 140.1260014
 112.3189992 106.0729978 140.7220014 112.2477716 105.2088827 140.7984286
 102.7869992 113.4769978 142.4950014 103.7199992 113.6349978 142.6380014
 102.5229992 114.1529978 141.8700014 102.8789308 113.5899104 142.4301396
  96.3549992 108.1139978 141.9770014  97.2689992 108.1929978 142.2510014
  96.3629992 107.4269978 141.3110014  96.4811143 108.0319085 141.9244274
  95.0039992 113.5069978 147.0550014  94.3569992 113.0449978 146.5220014
  95.3589992 112.8349978 147.6370014  94.9634506 113.3529503 147.0607341
 112.7379992 106.0099978 144.9140014 113.5879992 106.4309978 145.0410014
 112.7429992 105.2699978 145.5210014 112.8551143 105.9676094 145.0134750
 113.1319992 104.0639978 146.7380014 112.4059992 103.5839978 147.1350014
 113.7139992 104.2689978 147.4700014 113.1111635 104.0259166 146.8913748
 113.4009992 103.9649978 143.1290014 112.8789992 104.3209978 142.4100014
 113.3679992 104.6399978 143.8070014 113.3250699 104.1049848 143.1222129
 111.7499992 101.2039978 141.6800014 111.8459992 101.8709978 141.0000014
 111.6099992 100.3889978 141.1980014 111.7442063 101.1850667 141.5218377
 110.9189992 102.5849978 147.3010014 110.7689992 101.6399978 147.2800014
 110.5649992 102.8659978 148.1440014 110.8505527 102.4935605 147.4121859
 110.9969992  98.6119978 140.7970014 111.6079992  98.2409978 141.4340014
 110.1599992  98.1909978 140.9930014 110.9674947  98.5042756 140.9107252
 110.6299992 100.1669978 145.7630014 110.9089992  99.2599978 145.8870014
 111.3889992 100.6009978 145.3740014 110.7708619 100.1014502 145.7273795
 111.2429992  97.4299978 145.8110014 111.4249992  96.9809978 146.6370014
 110.6429992  96.8459978 145.3480014 111.1867529  97.2896131 145.8613619
 113.1099992  97.4979978 142.3390014 113.5219992  96.7769978 141.8640014
 113.7909992  98.1669978 142.3980014 113.2585900  97.4897306 142.2819038
  95.3909992  97.5029978 145.4660014  94.4659992  97.7109978 145.3370014
  95.8449992  97.9869978 144.7770014  95.3256374  97.5969949 145.3550957
 110.1609992 112.4869978 147.4120014 110.8139992 112.1389978 146.8040014
 110.6719992 112.9749978 148.0580014 110.3192777 112.5053815 147.4162047
  96.6669992  95.5459978 143.4450014  97.1059992  96.1569978 142.8530014
  96.0329992  96.0839978 143.9190014  96.6413859  95.7024064 143.4280305
 102.4099992  95.6739978 147.4550014 103.2839992  96.0629978 147.4250014
 102.2739992  95.4589978 148.3770014 102.5113207  95.6981923 147.5756509
 109.3199992  95.7299978 144.7960014 108.6169992  96.3449978 144.5870014
 108.8749992  94.8929978 144.9280014 109.1636292  95.7010085 144.7852439
  96.5679992 111.4939978 144.3430014  95.8829992 111.4559978 143.6750014
  96.5719992 112.4069978 144.6310014  96.4748174 111.6121998 144.2905310
  98.5279992  97.4619978 141.8870014  99.0189992  96.8319978 141.3600014
  99.1509992  97.7579978 142.5510014  98.6795062  97.4156770 141.9045438
 103.5539992  97.7549978 144.3450014 103.7319992  97.1079978 145.0270014
 103.4999992  98.5889978 144.8120014 103.5711025  97.7790504 144.5016433
 105.4319992 112.7029978 142.7400014 106.2979992 113.0699978 142.5620014
 105.1859992 112.2639978 141.9260014 105.5172097 112.6938525 142.6056019
 112.1409992 112.2659978 145.4190014 111.9469992 111.5179978 144.8540014
 112.1019992 113.0239978 144.8360014 112.1091645 112.2660786 145.2628148
  98.3859992 112.4139978 141.3680014  98.1179992 112.6999978 142.2410014
  99.1569992 111.8679978 141.5200014  98.4535600 112.3793330 141.5081499
 125.7649992 104.9039978 147.6000014 125.8539992 105.8479978 147.4680014
 125.1269992 104.6289978 146.9420014 125.6909062 104.9959812 147.4929641
 114.5999992 101.8829978 146.5400014 114.1519992 102.7289978 146.5210014
 114.0389992 101.3039978 146.0240014 114.4629603 101.9203674 146.4676720
 127.1049992  99.2179978 147.4260014 127.7519992  98.8889978 148.0510014
 127.6149992  99.7349978 146.8030014 127.2624317  99.2429227 147.4272167
 125.5619992 107.5049978 146.6430014 125.2669992 107.1819978 145.7920014
 125.2379992 108.4049978 146.6840014 125.4777983 107.5824026 146.5319771
 115.2909992 107.3159978 144.9560014 115.0189992 107.5449978 144.0670014
 115.3359992 108.1529978 145.4160014 115.2598709 107.4606058 144.8966107
 128.3279992 108.6189978 146.8020014 128.0699992 107.9289978 146.1910014
 128.3989992 108.1759978 147.6480014 128.3022837 108.4647106 146.8326912
 124.4859992 104.1479978 145.0520014 123.7749992 104.6829978 144.7000014
 125.1769992 104.2029978 144.3920014 124.4820751 104.2286777 144.9145858
 124.5399992 102.6049978 142.0910014 125.2409992 102.6279978 142.7420014
 124.8419992 101.9769978 141.4350014 124.6768282 102.5232339 142.0914496
 127.8919992 104.3569978 146.0040014 127.1599992 104.5859978 146.5770014
 128.3389992 103.6439978 146.4590014 127.8522753 104.2918972 146.1439715
 126.7629992 103.5199978 143.6890014 127.3419992 103.6699978 144.4360014
 127.1769992 103.9899978 142.9660014 126.8983122 103.6041277 143.6935042
 124.4889992 110.2559978 147.1240014 124.9629992 110.5519978 147.9020014
 123.9259992 110.9949978 146.8910014 124.4777361 110.3962721 147.1988611
 130.4619992  95.2699978 143.5020014 129.5619992  95.4089978 143.7970014
 130.7139992  96.1009978 143.1000014 130.3728683  95.4014055 143.4880232
 118.5279992 104.0569978 145.4760014 118.2359992 104.8249978 144.9850014
 117.8529992 103.3979978 145.3130014 118.3968497 104.0729745 145.3868260
 131.6509992 109.6359978 141.8780014 131.7239992 110.5749978 142.0490014
 132.5559992 109.3309978 141.8220014 131.7834158 109.7233061 141.8938392
 123.9619992 113.2129978 145.5390014 123.8859992 113.0919978 144.5930014
 123.9939992 114.1619978 145.6580014 123.9559156 113.3247530 145.4255048
 117.6149992 112.0019978 147.3200014 117.7669992 111.6539978 148.1990014
 116.7639992 111.6449978 147.0650014 117.5207899 111.9061738 147.4057340
 127.0629992 112.3669978 142.5410014 127.4379992 111.6229978 142.0710014
 127.0679992 112.0969978 143.4600014 127.1150024 112.2286950 142.6007987
 126.7319992 112.2929978 145.2910014 125.7969992 112.3929978 145.4690014
 127.0119992 111.5829978 145.8690014 126.6418173 112.2107239 145.3934998
 128.2399992 104.5519978 141.3190014 128.2819992 104.3299978 140.3890014
 129.0889992 104.9509978 141.5090014 128.3605253 104.5755498 141.2173822
 123.8129992  98.4279978 141.9890014 123.5589992  98.4469978 142.9120014
 123.5559992  97.5569978 141.6880014 123.7435133  98.3128110 142.0745082
 119.5759992 101.3999978 147.3360014 118.6839992 101.0599978 147.2780014
 120.0269992 101.0229978 146.5810014 119.5146815 101.3023762 147.2259203
 125.1119992 101.8159978 146.1530014 124.7029992 102.6309978 145.8620014
 125.8319992 101.6759978 145.5390014 125.1534013 101.9086571 146.0300875
 120.6949992  98.8739978 141.0900014 120.2639992  98.4289978 141.8200014
 119.9769992  99.2449978 140.5780014 120.5389363  98.8632968 141.1206211
 115.2119992  99.3619978 143.5660014 115.6859992  99.9529978 142.9810014
 114.4939992  99.8919978 143.9130014 115.1798640  99.5145511 143.5327969
 116.9859992 100.4569978 147.2490014 116.0969992 100.5559978 146.9090014
 117.2829992  99.6149978 146.9030014 116.9044177 100.3567687 147.1556940
 120.6389992 100.4569978 144.9060014 121.5709992 100.5859978 145.0840014
 120.4239992 101.1259978 144.2560014 120.7374472 100.5650806 144.8424891
 119.3129992 101.6509978 142.4730014 118.7709992 101.2719978 141.7810014
 120.1469992 101.8459978 142.0440014 119.3515159 101.6255076 142.3204419
 118.4799992  97.7519978 146.7280014 118.1629992  96.8489978 146.6930014
 119.2609992  97.7539978 146.1750014 118.5422307  97.6286951 146.6484314
 122.6489992 106.2169978 144.4080014 121.9039992 105.7089978 144.0860014
 122.5139992 106.2659978 145.3550014 122.5289047 106.1541596 144.4918845
 126.5459992  99.0309978 142.6080014 125.6079992  99.1419978 142.4560014
 126.8439992  99.8869978 142.9140014 126.4576402  99.1620621 142.6285571
 127.2649992 100.8979978 144.2680014 128.1569992 100.7599978 144.5870014
 127.3209992 101.6889978 143.7320014 127.3947107 100.9860526 144.2392091
 124.7739992 107.6749978 143.4340014 124.4789992 108.5019978 143.8150014
 124.0709992 107.0559978 143.6300014 124.6385471 107.7045227 143.5126698
 132.1499992 101.1069978 143.9630014 131.5949992 100.7109978 143.2910014
 132.2499992 102.0179978 143.6850014 132.0875888 101.1758990 143.8335206
 130.4449992 109.8929978 144.4280014 130.0719992 109.0679978 144.7370014
 130.7219992 109.7099978 143.5310014 130.4313871 109.7552441 144.3489677
 120.1479992 109.0299978 147.5820014 120.6759992 109.8029978 147.3820014
 119.2679992 109.2539978 147.2810014 120.1013176 109.1663161 147.5138409
 115.9029992 103.8919978 142.1700014 116.5189992 104.5189978 142.5490014
 115.0409992 104.2079978 142.4410014 115.8708195 104.0205798 142.2585386
 121.5759992 106.6929978 147.1590014 121.3349992 107.6179978 147.2000014
 120.8349992 106.2339978 147.5550014 121.4428390 106.7576403 147.2181404
 120.2589992 111.7139978 146.7040014 119.3089992 111.8199978 146.7550014
 120.6109992 112.5349978 147.0490014 120.1765480 111.8394438 146.7575999
 127.8369992 107.8699978 142.2480014 128.1909992 107.4899978 143.0530014
 126.8889992 107.7759978 142.3350014 127.7571820 107.8053092 142.3698714
 132.3409992 112.3489978 142.4490014 133.0849992 112.9349978 142.3090014
 131.6469992 112.9179978 142.7830014 132.3490201 112.5060603 142.4749772
 128.7029992 106.5419978 144.4750014 128.4259992 105.8139978 145.0310014
 129.6309992 106.6609978 144.6800014 128.7904499 106.4584213 144.5788044
 121.9279992 108.9819978 140.6950014 122.1669992 108.2329978 140.1480014
 121.6589992 108.5939978 141.5280014 121.9243233 108.8271853 140.7327809
 120.8649992 108.5519978 143.1520014 121.0119992 108.0319978 143.9420014
 120.8619992 109.4589978 143.4580014 120.8847300 108.6033964 143.3015895
 117.3179992 105.8039978 143.6620014 116.6319992 106.1569978 144.2290014
 117.8409992 106.5669978 143.4160014 117.2949033 105.9553746 143.7062661
 125.9339992  98.1189978 145.0380014 126.1539992  98.5899978 144.2350014
 126.4929992  98.5129978 145.7080014 126.0396730  98.2367432 145.0185906
 123.6029992 110.2489978 143.9010014 122.7859992 110.7459978 143.9530014
 124.1319992 110.7249978 143.2610014 123.5628508 110.3812543 143.8216035
 123.1339992  99.8469978 145.8730014 123.9459992 100.3509978 145.9190014
 122.8899992  99.7019978 146.7870014 123.2121467  99.8963749 146.0028575
 124.0179992  96.9279978 146.8110014 123.6709992  97.5449978 147.4560014
 124.6769992  97.4289978 146.3300014 124.0595949  97.0801099 146.8342271
 120.9409992 111.2929978 143.8830014 121.1019992 112.0929978 143.3820014
 120.7439992 111.5999978 144.7680014 120.9363919 111.4439129 143.9341006
 119.6759992  97.9909978 143.4980014 119.5919992  98.8789978 143.8450014
 120.5659992  97.7259978 143.7300014 119.7848163  98.0767179 143.5768596
 117.9339992 108.4179978 142.5590014 118.5259992 109.1179978 142.8350014
 118.3929992 107.9849978 141.8390014 118.0770791 108.4552908 142.4994607
 116.2499992 101.0829978 141.6750014 116.2049992 102.0219978 141.8530014
 115.3619992 100.8469978 141.4050014 116.1238555 101.1796874 141.6628939
 115.9889992 109.8049978 146.5080014 115.1559992 110.2769978 146.5360014
 116.5339992 110.3149978 145.9100014 115.9487590 109.9385897 146.4309194
 123.9659992 110.8449978 140.8340014 123.3219992 110.2139978 141.1550014
 124.7279992 110.3139978 140.6020014 123.9808058 110.6867902 140.8466038
 128.5709992 110.6619978 141.0680014 128.8539992 109.8669978 141.5200014
 129.3099992 110.8949978 140.5070014 128.7096956 110.5847031 141.0539822
 119.5249992 106.5709978 140.9250014 119.5899992 105.7769978 141.4560014
 120.1779992 106.4529978 140.2350014 119.6221754 106.4463337 140.9044259
 124.8779992 107.6179978 140.6610014 124.6089992 107.7989978 141.5620014
 124.6709992 106.6929978 140.5300014 124.8132000 107.5176774 140.7665693
 120.6749992 104.5439978 143.2310014 120.2149992 104.0599978 143.9170014
 120.9299992 103.8749978 142.5950014 120.6465038 104.3873689 143.2389447
 121.7459992 102.7869978 141.4930014 121.5649992 102.6319978 140.5660014
 122.6959992 102.8949978 141.5380014 121.8496566 102.7803669 141.3720929
 131.1359992 105.1409978 140.9390014 130.8619992 104.7169978 140.1260014
 131.1749992 106.0729978 140.7220014 131.1037716 105.2088827 140.7984286
 121.6429992 113.4769978 142.4950014 122.5759992 113.6349978 142.6380014
 121.3789992 114.1529978 141.8700014 121.7349308 113.5899104 142.4301396
 115.2109992 108.1139978 141.9770014 116.1249992 108.1929978 142.2510014
 115.2189992 107.4269978 141.3110014 115.3371143 108.0319085 141.9244274
 113.8599992 113.5069978 147.0550014 113.2129992 113.0449978 146.5220014
 114.2149992 112.8349978 147.6370014 113.8194506 113.3529503 147.0607341
 131.5939992 106.0099978 144.9140014 132.4439992 106.4309978 145.0410014
 131.5989992 105.2699978 145.5210014 131.7111143 105.9676094 145.0134750
 131.9879992 104.0639978 146.7380014 131.2619992 103.5839978 147.1350014
 132.5699992 104.2689978 147.4700014 131.9671635 104.0259166 146.8913748
 132.2569992 103.9649978 143.1290014 131.7349992 104.3209978 142.4100014
 132.2239992 104.6399978 143.8070014 132.1810699 104.1049848 143.1222129
 130.6059992 101.2039978 141.6800014 130.7019992 101.8709978 141.0000014
 130.4659992 100.3889978 141.1980014 130.6002063 101.1850667 141.5218377
 129.7749992 102.5849978 147.3010014 129.6249992 101.6399978 147.2800014
 129.4209992 102.8659978 148.1440014 129.7065527 102.4935605 147.4121859
 129.8529992  98.6119978 140.7970014 130.4639992  98.2409978 141.4340014
 129.0159992  98.1909978 140.9930014 129.8234947  98.5042756 140.9107252
 129.4859992 100.1669978 145.7630014 129.7649992  99.2599978 145.8870014
 130.2449992 100.6009978 145.3740014 129.6268619 100.1014502 145.7273795
 130.0989992  97.4299978 145.8110014 130.2809992  96.9809978 146.6370014
 129.4989992  96.8459978 145.3480014 130.0427529  97.2896131 145.8613619
 131.9659992  97.4979978 142.3390014 132.3779992  96.7769978 141.8640014
 132.6469992  98.1669978 142.3980014 132.1145900  97.4897306 142.2819038
 114.2469992  97.5029978 145.4660014 113.3219992  97.7109978 145.3370014
 114.7009992  97.9869978 144.7770014 114.1816374  97.5969949 145.3550957
 129.0169992 112.4869978 147.4120014 129.6699992 112.1389978 146.8040014
 129.5279992 112.9749978 148.0580014 129.1752777 112.5053815 147.4162047
 115.5229992  95.5459978 143.4450014 115.9619992  96.1569978 142.8530014
 114.8889992  96.0839978 143.9190014 115.4973859  95.7024064 143.4280305
 121.2659992  95.6739978 147.4550014 122.1399992  96.0629978 147.4250014
 121.1299992  95.4589978 148.3770014 121.3673207  95.6981923 147.5756509
 128.1759992  95.7299978 144.7960014 127.4729992  96.3449978 144.5870014
 127.7309992  94.8929978 144.9280014 128.0196292  95.7010085 144.7852439
 115.4239992 111.4939978 144.3430014 114.7389992 111.4559978 143.6750014
 115.4279992 112.4069978 144.6310014 115.3308174 111.6121998 144.2905310
 117.3839992  97.4619978 141.8870014 117.8749992  96.8319978 141.3600014
 118.0069992  97.7579978 142.5510014 117.5355062  97.4156770 141.9045438
 122.4099992  97.7549978 144.3450014 122.5879992  97.1079978 145.0270014
 122.3559992  98.5889978 144.8120014 122.4271025  97.7790504 144.5016433
 124.2879992 112.7029978 142.7400014 125.1539992 113.0699978 142.5620014
 124.0419992 112.2639978 141.9260014 124.3732097 112.6938525 142.6056019
 130.9969992 112.2659978 145.4190014 130.8029992 111.5179978 144.8540014
 130.9579992 113.0239978 144.8360014 130.9651645 112.2660786 145.2628148
 117.2419992 112.4139978 141.3680014 116.9739992 112.6999978 142.2410014
 118.0129992 111.8679978 141.5200014 117.3095600 112.3793330 141.5081499
 144.6209992 104.9039978 147.6000014 144.7099992 105.8479978 147.4680014
 143.9829992 104.6289978 146.9420014 144.5469061 104.9959812 147.4929641
 133.4559992 101.8829978 146.5400014 133.0079992 102.7289978 146.5210014
 132.8949992 101.3039978 146.0240014 133.3189603 101.9203674 146.4676720
 144.4179992 107.5049978 146.6430014 144.1229992 107.1819978 145.7920014
 144.0939992 108.4049978 146.6840014 144.3337983 107.5824026 146.5319771
 134.1469992 107.3159978 144.9560014 133.8749992 107.5449978 144.0670014
 134.1919992 108.1529978 145.4160014 134.1158709 107.4606058 144.8966107
 143.3419992 104.1479978 145.0520014 142.6309992 104.6829978 144.7000014
 144.0329992 104.2029978 144.3920014 143.3380751 104.2286777 144.9145858
 143.3959992 102.6049978 142.0910014 144.0969992 102.6279978 142.7420014
 143.6979992 101.9769978 141.4350014 143.5328282 102.5232339 142.0914496
 143.3449992 110.2559978 147.1240014 143.8189992 110.5519978 147.9020014
 142.7819992 110.9949978 146.8910014 143.3337361 110.3962721 147.1988611
 137.3839992 104.0569978 145.4760014 137.0919992 104.8249978 144.9850014
 136.7089992 103.3979978 145.3130014 137.2528497 104.0729745 145.3868260
 142.8179992 113.2129978 145.5390014 142.7419992 113.0919978 144.5930014
 142.8499992 114.1619978 145.6580014 142.8119156 113.3247530 145.4255048
 136.4709992 112.0019978 147.3200014 136.6229992 111.6539978 148.1990014
 135.6199992 111.6449978 147.0650014 136.3767899 111.9061738 147.4057340
 142.6689992  98.4279978 141.9890014 142.4149992  98.4469978 142.9120014
 142.4119992  97.5569978 141.6880014 142.5995133  98.3128110 142.0745082
 138.4319992 101.3999978 147.3360014 137.5399992 101.0599978 147.2780014
 138.8829992 101.0229978 146.5810014 138.3706815 101.3023762 147.2259203
 143.9679992 101.8159978 146.1530014 143.5589992 102.6309978 145.8620014
 144.6879992 101.6759978 145.5390014 144.0094013 101.9086571 146.0300875
 139.5509992  98.8739978 141.0900014 139.1199992  98.4289978 141.8200014
 138.8329992  99.2449978 140.5780014 139.3949363  98.8632968 141.1206211
 134.0679992  99.3619978 143.5660014 134.5419992  99.9529978 142.9810014
 133.3499992  99.8919978 143.9130014 134.0358640  99.5145511 143.5327969
 135.8419992 100.4569978 147.2490014 134.9529992 100.5559978 146.9090014
 136.1389992  99.6149978 146.9030014 135.7604177 100.3567687 147.1556940
 139.4949992 100.4569978 144.9060014 140.4269992 100.5859978 145.0840014
 139.2799992 101.1259978 144.2560014 139.5934472 100.5650806 144.8424891
 138.1689992 101.6509978 142.4730014 137.6269992 101.2719978 141.7810014
 139.0029992 101.8459978 142.0440014 138.2075159 101.6255076 142.3204419
 137.3359992  97.7519978 146.7280014 137.0189992  96.8489978 146.6930014
 138.1169992  97.7539978 146.1750014 137.3982307  97.6286951 146.6484314
 141.5049992 106.2169978 144.4080014 140.7599992 105.7089978 144.0860014
 141.3699992 106.2659978 145.3550014 141.3849047 106.1541596 144.4918845
 145.4019992  99.0309978 142.6080014 144.4639992  99.1419978 142.4560014
 145.6999992  99.8869978 142.9140014 145.3136402  99.1620621 142.6285571
 143.6299992 107.6749978 143.4340014 143.3349992 108.5019978 143.8150014
 142.9269992 107.0559978 143.6300014 143.4945471 107.7045227 143.5126698
 139.0039992 109.0299978 147.5820014 139.5319992 109.8029978 147.3820014
 138.1239992 109.2539978 147.2810014 138.9573176 109.1663161 147.5138409
 134.7589992 103.8919978 142.1700014 135.3749992 104.5189978 142.5490014
 133.8969992 104.2079978 142.4410014 134.7268195 104.0205798 142.2585386
 140.4319992 106.6929978 147.1590014 140.1909992 107.6179978 147.2000014
 139.6909992 106.2339978 147.5550014 140.2988390 106.7576403 147.2181404
 139.1149992 111.7139978 146.7040014 138.1649992 111.8199978 146.7550014
 139.4669992 112.5349978 147.0490014 139.0325480 111.8394438 146.7575999
 140.7839992 108.9819978 140.6950014 141.0229992 108.2329978 140.1480014
 140.5149992 108.5939978 141.5280014 140.7803233 108.8271853 140.7327809
 139.7209992 108.5519978 143.1520014 139.8679992 108.0319978 143.9420014
 139.7179992 109.4589978 143.4580014 139.7407300 108.6033964 143.3015895
 136.1739992 105.8039978 143.6620014 135.4879992 106.1569978 144.2290014
 136.6969992 106.5669978 143.4160014 136.1509033 105.9553746 143.7062661
 144.7899992  98.1189978 145.0380014 145.0099992  98.5899978 144.2350014
 145.3489992  98.5129978 145.7080014 144.8956730  98.2367432 145.0185906
 142.4589992 110.2489978 143.9010014 141.6419992 110.7459978 143.9530014
 142.9879992 110.7249978 143.2610014 142.4188508 110.3812543 143.8216035
 141.9899992  99.8469978 145.8730014 142.8019992 100.3509978 145.9190014
 141.7459992  99.7019978 146.7870014 142.0681467  99.8963749 146.0028575
 142.8739992  96.9279978 146.8110014 142.5269992  97.5449978 147.4560014
 143.5329992  97.4289978 146.3300014 142.9155949  97.0801099 146.8342271
 139.7969992 111.2929978 143.8830014 139.9579992 112.0929978 143.3820014
 139.5999992 111.5999978 144.7680014 139.7923919 111.4439129 143.9341006
 138.5319992  97.9909978 143.4980014 138.4479992  98.8789978 143.8450014
 139.4219992  97.7259978 143.7300014 138.6408163  98.0767179 143.5768596
 136.7899992 108.4179978 142.5590014 137.3819992 109.1179978 142.8350014
 137.2489992 107.9849978 141.8390014 136.9330791 108.4552908 142.4994607
 135.1059992 101.0829978 141.6750014 135.0609992 102.0219978 141.8530014
 134.2179992 100.8469978 141.4050014 134.9798555 101.1796874 141.6628939
 134.8449992 109.8049978 146.5080014 134.0119992 110.2769978 146.5360014
 135.3899992 110.3149978 145.9100014 134.8047590 109.9385897 146.4309194
 142.8219992 110.8449978 140.8340014 142.1779992 110.2139978 141.1550014
 143.5839992 110.3139978 140.6020014 142.8368058 110.6867902 140.8466038
 138.3809992 106.5709978 140.9250014 138.4459992 105.7769978 141.4560014
 139.0339992 106.4529978 140.2350014 138.4781754 106.4463337 140.9044259
 143.7339992 107.6179978 140.6610014 143.4649992 107.7989978 141.5620014
 143.5269992 106.6929978 140.5300014 143.6692000 107.5176774 140.7665693
 139.5309992 104.5439978 143.2310014 139.0709992 104.0599978 143.9170014
 139.7859992 103.8749978 142.5950014 139.5025038 104.3873689 143.2389447
 140.6019992 102.7869978 141.4930014 140.4209992 102.6319978 140.5660014
 141.5519992 102.8949978 141.5380014 140.7056566 102.7803669 141.3720929
 140.4989992 113.4769978 142.4950014 141.4319992 113.6349978 142.6380014
 140.2349992 114.1529978 141.8700014 140.5909308 113.5899104 142.4301396
 134.0669992 108.1139978 141.9770014 134.9809992 108.1929978 142.2510014
 134.0749992 107.4269978 141.3110014 134.1931143 108.0319085 141.9244274
 132.7159992 113.5069978 147.0550014 132.0689992 113.0449978 146.5220014
 133.0709992 112.8349978 147.6370014 132.6754506 113.3529503 147.0607341
 133.1029992  97.5029978 145.4660014 132.1779992  97.7109978 145.3370014
 133.5569992  97.9869978 144.7770014 133.0376374  97.5969949 145.3550957
 134.3789992  95.5459978 143.4450014 134.8179992  96.1569978 142.8530014
 133.7449992  96.0839978 143.9190014 134.3533859  95.7024064 143.4280305
 140.1219992  95.6739978 147.4550014 140.9959992  96.0629978 147.4250014
 139.9859992  95.4589978 148.3770014 140.2233207  95.6981923 147.5756509
 134.2799992 111.4939978 144.3430014 133.5949992 111.4559978 143.6750014
 134.2839992 112.4069978 144.6310014 134.1868174 111.6121998 144.2905310
 136.2399992  97.4619978 141.8870014 136.7309992  96.8319978 141.3600014
 136.8629992  97.7579978 142.5510014 136.3915062  97.4156770 141.9045438
 141.2659992  97.7549978 144.3450014 141.4439992  97.1079978 145.0270014
 141.2119992  98.5889978 144.8120014 141.2831025  97.7790504 144.5016433
 143.1439992 112.7029978 142.7400014 144.0099992 113.0699978 142.5620014
 142.8979992 112.2639978 141.9260014 143.2292097 112.6938525 142.6056019
 136.0979992 112.4139978 141.3680014 135.8299992 112.6999978 142.2410014
 136.8689992 111.8679978 141.5200014 136.1655600 112.3793330 141.5081499
  12.6289992 123.7599978 147.6000014  12.7179992 124.7039978 147.4680014
  11.9909992 123.4849978 146.9420014  12.5549062 123.8519812 147.4929641
   1.4639992 120.7389978 146.5400014   1.0159992 121.5849978 146.5210014
   0.9029992 120.1599978 146.0240014   1.3269603 120.7763674 146.4676720
  13.9689992 118.0739978 147.4260014  14.6159992 117.7449978 148.0510014
  14.4789992 118.5909978 146.8030014  14.1264317 118.0989227 147.4272167
  12.4259992 126.3609978 146.6430014  12.1309992 126.0379978 145.7920014
  12.1019992 127.2609978 146.6840014  12.3417983 126.4384026 146.5319771
   2.1549992 126.1719978 144.9560014   1.8829992 126.4009978 144.0670014
   2.1999992 127.0089978 145.4160014   2.1238709 126.3166058 144.8966107
  15.1919992 127.4749978 146.8020014  14.9339992 126.7849978 146.1910014
  15.2629992 127.0319978 147.6480014  15.1662837 127.3207106 146.8326912
  11.3499992 123.0039978 145.0520014  10.6389992 123.5389978 144.7000014
  12.0409992 123.0589978 144.3920014  11.3460751 123.0846777 144.9145858
  11.4039992 121.4609978 142.0910014  12.1049992 121.4839978 142.7420014
  11.7059992 120.8329978 141.4350014  11.5408282 121.3792339 142.0914496
  14.7559992 123.2129978 146.0040014  14.0239992 123.4419978 146.5770014
  15.2029992 122.4999978 146.4590014  14.7162753 123.1478972 146.1439715
  13.6269992 122.3759978 143.6890014  14.2059992 122.5259978 144.4360014
  14.0409992 122.8459978 142.9660014  13.7623122 122.4601277 143.6935042
  11.3529992 129.1119978 147.1240014  11.8269992 129.4079978 147.9020014
  10.7899992 129.8509978 146.8910014  11.3417361 129.2522721 147.1988611
  17.3259992 114.1259978 143.5020014  16.4259992 114.2649978 143.7970014
  17.5779992 114.9569978 143.1000014  17.2368683 114.2574055 143.4880232
   5.3919992 122.9129978 145.4760014   5.0999992 123.6809978 144.9850014
   4.7169992 122.2539978 145.3130014   5.2608497 122.9289745 145.3868260
  18.5149992 128.4919978 141.8780014  18.5879992 129.4309978 142.0490014
  19.4199992 128.1869978 141.8220014  18.6474158 128.5793061 141.8938392
  10.8259992 132.0689978 145.5390014  10.7499992 131.9479978 144.5930014
  10.8579992 133.0179978 145.6580014  10.8199156 132.1807530 145.4255048
   4.4789992 130.8579978 147.3200014   4.6309992 130.5099978 148.1990014
   3.6279992 130.5009978 147.0650014   4.3847899 130.7621738 147.4057340
  13.9269992 131.2229978 142.5410014  14.3019992 130.4789978 142.0710014
  13.9319992 130.9529978 143.4600014  13.9790024 131.0846950 142.6007987
  13.5959992 131.1489978 145.2910014  12.6609992 131.2489978 145.4690014
  13.8759992 130.4389978 145.8690014  13.5058173 131.0667239 145.3934998
  15.1039992 123.4079978 141.3190014  15.1459992 123.1859978 140.3890014
  15.9529992 123.8069978 141.5090014  15.2245253 123.4315498 141.2173822
  10.6769992 117.2839978 141.9890014  10.4229992 117.3029978 142.9120014
  10.4199992 116.4129978 141.6880014  10.6075133 117.1688110 142.0745082
   6.4399992 120.2559978 147.3360014   5.5479992 119.9159978 147.2780014
   6.8909992 119.8789978 146.5810014   6.3786815 120.1583762 147.2259203
  11.9759992 120.6719978 146.1530014  11.5669992 121.4869978 145.8620014
  12.6959992 120.5319978 145.5390014  12.0174013 120.7646571 146.0300875
   7.5589992 117.7299978 141.0900014   7.1279992 117.2849978 141.8200014
   6.8409992 118.1009978 140.5780014   7.4029363 117.7192968 141.1206211
   2.0759992 118.2179978 143.5660014   2.5499992 118.8089978 142.9810014
   1.3579992 118.7479978 143.9130014   2.0438640 118.3705511 143.5327969
   3.8499992 119.3129978 147.2490014   2.9609992 119.4119978 146.9090014
   4.1469992 118.4709978 146.9030014   3.7684177 119.2127687 147.1556940
   7.5029992 119.3129978 144.9060014   8.4349992 119.4419978 145.0840014
   7.2879992 119.9819978 144.2560014   7.6014472 119.4210806 144.8424891
   6.1769992 120.5069978 142.4730014   5.6349992 120.1279978 141.7810014
   7.0109992 120.7019978 142.0440014   6.2155159 120.4815076 142.3204419
   5.3439992 116.6079978 146.7280014   5.0269992 115.7049978 146.6930014
   6.1249992 116.6099978 146.1750014   5.4062307 116.4846951 146.6484314
   9.5129992 125.0729978 144.4080014   8.7679992 124.5649978 144.0860014
   9.3779992 125.1219978 145.3550014   9.3929047 125.0101596 144.4918845
  13.4099992 117.8869978 142.6080014  12.4719992 117.9979978 142.4560014
  13.7079992 118.7429978 142.9140014  13.3216402 118.0180621 142.6285571
  14.1289992 119.7539978 144.2680014  15.0209992 119.6159978 144.5870014
  14.1849992 120.5449978 143.7320014  14.2587107 119.8420526 144.2392091
  11.6379992 126.5309978 143.4340014  11.3429992 127.3579978 143.8150014
  10.9349992 125.9119978 143.6300014  11.5025471 126.5605227 143.5126698
  19.0139992 119.9629978 143.9630014  18.4589992 119.5669978 143.2910014
  19.1139992 120.8739978 143.6850014  18.9515888 120.0318990 143.8335206
  17.3089992 128.7489978 144.4280014  16.9359992 127.9239978 144.7370014
  17.5859992 128.5659978 143.5310014  17.2953871 128.6112441 144.3489677
   7.0119992 127.8859978 147.5820014   7.5399992 128.6589978 147.3820014
   6.1319992 128.1099978 147.2810014   6.9653176 128.0223161 147.5138409
   2.7669992 122.7479978 142.1700014   3.3829992 123.3749978 142.5490014
   1.9049992 123.0639978 142.4410014   2.7348195 122.8765798 142.2585386
   8.4399992 125.5489978 147.1590014   8.1989992 126.4739978 147.2000014
   7.6989992 125.0899978 147.5550014   8.3068390 125.6136403 147.2181404
   7.1229992 130.5699978 146.7040014   6.1729992 130.6759978 146.7550014
   7.4749992 131.3909978 147.0490014   7.0405480 130.6954438 146.7575999
  14.7009992 126.7259978 142.2480014  15.0549992 126.3459978 143.0530014
  13.7529992 126.6319978 142.3350014  14.6211820 126.6613092 142.3698714
  19.2049992 131.2049978 142.4490014  19.9489992 131.7909978 142.3090014
  18.5109992 131.7739978 142.7830014  19.2130201 131.3620603 142.4749772
  15.5669992 125.3979978 144.4750014  15.2899992 124.6699978 145.0310014
  16.4949992 125.5169978 144.6800014  15.6544499 125.3144213 144.5788044
   8.7919992 127.8379978 140.6950014   9.0309992 127.0889978 140.1480014
   8.5229992 127.4499978 141.5280014   8.7883233 127.6831853 140.7327809
   7.7289992 127.4079978 143.1520014   7.8759992 126.8879978 143.9420014
   7.7259992 128.3149978 143.4580014   7.7487300 127.4593964 143.3015895
   4.1819992 124.6599978 143.6620014   3.4959992 125.0129978 144.2290014
   4.7049992 125.4229978 143.4160014   4.1589033 124.8113746 143.7062661
  12.7979992 116.9749978 145.0380014  13.0179992 117.4459978 144.2350014
  13.3569992 117.3689978 145.7080014  12.9036730 117.0927432 145.0185906
  10.4669992 129.1049978 143.9010014   9.6499992 129.6019978 143.9530014
  10.9959992 129.5809978 143.2610014  10.4268508 129.2372543 143.8216035
   9.9979992 118.7029978 145.8730014  10.8099992 119.2069978 145.9190014
   9.7539992 118.5579978 146.7870014  10.0761467 118.7523749 146.0028575
  10.8819992 115.7839978 146.8110014  10.5349992 116.4009978 147.4560014
  11.5409992 116.2849978 146.3300014  10.9235950 115.9361099 146.8342271
   7.8049992 130.1489978 143.8830014   7.9659992 130.9489978 143.3820014
   7.6079992 130.4559978 144.7680014   7.8003919 130.2999129 143.9341006
   6.5399992 116.8469978 143.4980014   6.4559992 117.7349978 143.8450014
   7.4299992 116.5819978 143.7300014   6.6488163 116.9327179 143.5768596
   4.7979992 127.2739978 142.5590014   5.3899992 127.9739978 142.8350014
   5.2569992 126.8409978 141.8390014   4.9410791 127.3112908 142.4994607
   3.1139992 119.9389978 141.6750014   3.0689992 120.8779978 141.8530014
   2.2259992 119.7029978 141.4050014   2.9878555 120.0356874 141.6628939
   2.8529992 128.6609978 146.5080014   2.0199992 129.1329978 146.5360014
   3.3979992 129.1709978 145.9100014   2.8127590 128.7945897 146.4309194
  10.8299992 129.7009978 140.8340014  10.1859992 129.0699978 141.1550014
  11.5919992 129.1699978 140.6020014  10.8448058 129.5427902 140.8466038
  15.4349992 129.5179978 141.0680014  15.7179992 128.7229978 141.5200014
  16.1739992 129.7509978 140.5070014  15.5736956 129.4407031 141.0539822
   6.3889992 125.4269978 140.9250014   6.4539992 124.6329978 141.4560014
   7.0419992 125.3089978 140.2350014   6.4861754 125.3023337 140.9044259
  11.7419992 126.4739978 140.6610014  11.4729992 126.6549978 141.5620014
  11.5349992 125.5489978 140.5300014  11.6772000 126.3736774 140.7665693
   7.5389992 123.3999978 143.2310014   7.0789992 122.9159978 143.9170014
   7.7939992 122.7309978 142.5950014   7.5105038 123.2433689 143.2389447
   8.6099992 121.6429978 141.4930014   8.4289992 121.4879978 140.5660014
   9.5599992 121.7509978 141.5380014   8.7136566 121.6363669 141.3720929
  17.9999992 123.9969978 140.9390014  17.7259992 123.5729978 140.1260014
  18.0389992 124.9289978 140.7220014  17.9677716 124.0648827 140.7984286
   8.5069992 132.3329978 142.4950014   9.4399992 132.4909978 142.6380014
   8.2429992 133.0089978 141.8700014   8.5989308 132.4459104 142.4301396
   2.0749992 126.9699978 141.9770014   2.9889992 127.0489978 142.2510014
   2.0829992 126.2829978 141.3110014   2.2011143 126.8879085 141.9244274
   0.7239992 132.3629978 147.0550014   0.0769992 131.9009978 146.5220014
   1.0789992 131.6909978 147.6370014   0.6834506 132.2089503 147.0607341
  18.4579992 124.8659978 144.9140014  19.3079992 125.2869978 145.0410014
  18.4629992 124.1259978 145.5210014  18.5751143 124.8236094 145.0134750
  18.8519992 122.9199978 146.7380014  18.1259992 122.4399978 147.1350014
  19.4339992 123.1249978 147.4700014  18.8311635 122.8819166 146.8913748
  19.1209992 122.8209978 143.1290014  18.5989992 123.1769978 142.4100014
  19.0879992 123.4959978 143.8070014  19.0450699 122.9609848 143.1222129
  17.4699992 120.0599978 141.6800014  17.5659992 120.7269978 141.0000014
  17.3299992 119.2449978 141.1980014  17.4642063 120.0410667 141.5218377
  16.6389992 121.4409978 147.3010014  16.4889992 120.4959978 147.2800014
  16.2849992 121.7219978 148.1440014  16.5705527 121.3495605 147.4121859
  16.7169992 117.4679978 140.7970014  17.3279992 117.0969978 141.4340014
  15.8799992 117.0469978 140.9930014  16.6874947 117.3602756 140.9107252
  16.3499992 119.0229978 145.7630014  16.6289992 118.1159978 145.8870014
  17.1089992 119.4569978 145.3740014  16.4908619 118.9574502 145.7273795
  16.9629992 116.2859978 145.8110014  17.1449992 115.8369978 146.6370014
  16.3629992 115.7019978 145.3480014  16.9067529 116.1456131 145.8613619
  18.8299992 116.3539978 142.3390014  19.2419992 115.6329978 141.8640014
  19.5109992 117.0229978 142.3980014  18.9785900 116.3457306 142.2819038
   1.1109992 116.3589978 145.4660014   0.1859992 116.5669978 145.3370014
   1.5649992 116.8429978 144.7770014   1.0456374 116.4529949 145.3550957
  15.8809992 131.3429978 147.4120014  16.5339992 130.9949978 146.8040014
  16.3919992 131.8309978 148.0580014  16.0392777 131.3613815 147.4162047
   2.3869992 114.4019978 143.4450014   2.8259992 115.0129978 142.8530014
   1.7529992 114.9399978 143.9190014   2.3613859 114.5584064 143.4280305
   8.1299992 114.5299978 147.4550014   9.0039992 114.9189978 147.4250014
   7.9939992 114.3149978 148.3770014   8.2313207 114.5541923 147.5756509
  15.0399992 114.5859978 144.7960014  14.3369992 115.2009978 144.5870014
  14.5949992 113.7489978 144.9280014  14.8836292 114.5570085 144.7852439
   2.2879992 130.3499978 144.3430014   1.6029992 130.3119978 143.6750014
   2.2919992 131.2629978 144.6310014   2.1948174 130.4681998 144.2905310
   4.2479992 116.3179978 141.8870014   4.7389992 115.6879978 141.3600014
   4.8709992 116.6139978 142.5510014   4.3995062 116.2716770 141.9045438
   9.2739992 116.6109978 144.3450014   9.4519992 115.9639978 145.0270014
   9.2199992 117.4449978 144.8120014   9.2911025 116.6350504 144.5016433
  11.1519992 131.5589978 142.7400014  12.0179992 131.9259978 142.5620014
  10.9059992 131.1199978 141.9260014  11.2372097 131.5498525 142.6056019
  17.8609992 131.1219978 145.4190014  17.6669992 130.3739978 144.8540014
  17.8219992 131.8799978 144.8360014  17.8291645 131.1220786 145.2628148
   4.1059992 131.2699978 141.3680014   3.8379992 131.5559978 142.2410014
   4.8769992 130.7239978 141.5200014   4.1735600 131.2353330 141.5081499
  31.4849992 123.7599978 147.6000014  31.5739992 124.7039978 147.4680014
  30.8469992 123.4849978 146.9420014  31.4109062 123.8519812 147.4929641
  20.3199992 120.7389978 146.5400014  19.8719992 121.5849978 146.5210014
  19.7589992 120.1599978 146.0240014  20.1829603 120.7763674 146.4676720
  32.8249992 118.0739978 147.4260014  33.4719992 117.7449978 148.0510014
  33.3349992 118.5909978 146.8030014  32.9824317 118.0989227 147.4272167
  31.2819992 126.3609978 146.6430014  30.9869992 126.0379978 145.7920014
  30.9579992 127.2609978 146.6840014  31.1977983 126.4384026 146.5319771
  21.0109992 126.1719978 144.9560014  20.7389992 126.4009978 144.0670014
  21.0559992 127.0089978 145.4160014  20.9798709 126.3166058 144.8966107
  34.0479992 127.4749978 146.8020014  33.7899992 126.7849978 146.1910014
  34.1189992 127.0319978 147.6480014  34.0222837 127.3207106 146.8326912
  30.2059992 123.0039978 145.0520014  29.4949992 123.5389978 144.7000014
  30.8969992 123.0589978 144.3920014  30.2020751 123.0846777 144.9145858
  30.2599992 121.4609978 142.0910014  30.9609992 121.4839978 142.7420014
  30.5619992 120.8329978 141.4350014  30.3968282 121.3792339 142.0914496
  33.6119992 123.2129978 146.0040014  32.8799992 123.4419978 146.5770014
  34.0589992 122.4999978 146.4590014  33.5722753 123.1478972 146.1439715
  32.4829992 122.3759978 143.6890014  33.0619992 122.5259978 144.4360014
  32.8969992 122.8459978 142.9660014  32.6183122 122.4601277 143.6935042
  30.2089992 129.1119978 147.1240014  30.6829992 129.4079978 147.9020014
  29.6459992 129.8509978 146.8910014  30.1977361 129.2522721 147.1988611
  36.1819992 114.1259978 143.5020014  35.2819992 114.2649978 143.7970014
  36.4339992 114.9569978 143.1000014  36.0928683 114.2574055 143.4880232
  24.2479992 122.9129978 145.4760014  23.9559992 123.6809978 144.9850014
  23.5729992 122.2539978 145.3130014  24.1168497 122.9289745 145.3868260
  37.3709992 128.4919978 141.8780014  37.4439992 129.4309978 142.0490014
  38.2759992 128.1869978 141.8220014  37.5034158 128.5793061 141.8938392
  29.6819992 132.0689978 145.5390014  29.6059992 131.9479978 144.5930014
  29.7139992 133.0179978 145.6580014  29.6759156 132.1807530 145.4255048
  23.3349992 130.8579978 147.3200014  23.4869992 130.5099978 148.1990014
  22.4839992 130.5009978 147.0650014  23.2407899 130.7621738 147.4057340
  32.7829992 131.2229978 142.5410014  33.1579992 130.4789978 142.0710014
  32.7879992 130.9529978 143.4600014  32.8350024 131.0846950 142.6007987
  32.4519992 131.1489978 145.2910014  31.5169992 131.2489978 145.4690014
  32.7319992 130.4389978 145.8690014  32.3618173 131.0667239 145.3934998
  33.9599992 123.4079978 141.3190014  34.0019992 123.1859978 140.3890014
  34.8089992 123.8069978 141.5090014  34.0805253 123.4315498 141.2173822
  29.5329992 117.2839978 141.9890014  29.2789992 117.3029978 142.9120014
  29.2759992 116.4129978 141.6880014  29.4635133 117.1688110 142.0745082
  25.2959992 120.2559978 147.3360014  24.4039992 119.9159978 147.2780014
  25.7469992 119.8789978 146.5810014  25.2346815 120.1583762 147.2259203
  30.8319992 120.6719978 146.1530014  30.4229992 121.4869978 145.8620014
  31.5519992 120.5319978 145.5390014  30.8734013 120.7646571 146.0300875
  26.4149992 117.7299978 141.0900014  25.9839992 117.2849978 141.8200014
  25.6969992 118.1009978 140.5780014  26.2589363 117.7192968 141.1206211
  20.9319992 118.2179978 143.5660014  21.4059992 118.8089978 142.9810014
  20.2139992 118.7479978 143.9130014  20.8998640 118.3705511 143.5327969
  22.7059992 119.3129978 147.2490014  21.8169992 119.4119978 146.9090014
  23.0029992 118.4709978 146.9030014  22.6244177 119.2127687 147.1556940
  26.3589992 119.3129978 144.9060014  27.2909992 119.4419978 145.0840014
  26.1439992 119.9819978 144.2560014  26.4574472 119.4210806 144.8424891
  25.0329992 120.5069978 142.4730014  24.4909992 120.1279978 141.7810014
  25.8669992 120.7019978 142.0440014  25.0715159 120.4815076 142.3204419
  24.1999992 116.6079978 146.7280014  23.8829992 115.7049978 146.6930014
  24.9809992 116.6099978 146.1750014  24.2622307 116.4846951 146.6484314
  28.3689992 125.0729978 144.4080014  27.6239992 124.5649978 144.0860014
  28.2339992 125.1219978 145.3550014  28.2489047 125.0101596 144.4918845
  32.2659992 117.8869978 142.6080014  31.3279992 117.9979978 142.4560014
  32.5639992 118.7429978 142.9140014  32.1776402 118.0180621 142.6285571
  32.9849992 119.7539978 144.2680014  33.8769992 119.6159978 144.5870014
  33.0409992 120.5449978 143.7320014  33.1147107 119.8420526 144.2392091
  30.4939992 126.5309978 143.4340014  30.1989992 127.3579978 143.8150014
  29.7909992 125.9119978 143.6300014  30.3585471 126.5605227 143.5126698
  37.8699992 119.9629978 143.9630014  37.3149992 119.5669978 143.2910014
  37.9699992 120.8739978 143.6850014  37.8075888 120.0318990 143.8335206
  36.1649992 128.7489978 144.4280014  35.7919992 127.9239978 144.7370014
  36.4419992 128.5659978 143.5310014  36.1513871 128.6112441 144.3489677
  25.8679992 127.8859978 147.5820014  26.3959992 128.6589978 147.3820014
  24.9879992 128.1099978 147.2810014  25.8213176 128.0223161 147.5138409
  21.6229992 122.7479978 142.1700014  22.2389992 123.3749978 142.5490014
  20.7609992 123.0639978 142.4410014  21.5908195 122.8765798 142.2585386
  27.2959992 125.5489978 147.1590014  27.0549992 126.4739978 147.2000014
  26.5549992 125.0899978 147.5550014  27.1628390 125.6136403 147.2181404
  25.9789992 130.5699978 146.7040014  25.0289992 130.6759978 146.7550014
  26.3309992 131.3909978 147.0490014  25.8965480 130.6954438 146.7575999
  33.5569992 126.7259978 142.2480014  33.9109992 126.3459978 143.0530014
  32.6089992 126.6319978 142.3350014  33.4771820 126.6613092 142.3698714
  38.0609992 131.2049978 142.4490014  38.8049992 131.7909978 142.3090014
  37.3669992 131.7739978 142.7830014  38.0690201 131.3620603 142.4749772
  34.4229992 125.3979978 144.4750014  34.1459992 124.6699978 145.0310014
  35.3509992 125.5169978 144.6800014  34.5104499 125.3144213 144.5788044
  27.6479992 127.8379978 140.6950014  27.8869992 127.0889978 140.1480014
  27.3789992 127.4499978 141.5280014  27.6443233 127.6831853 140.7327809
  26.5849992 127.4079978 143.1520014  26.7319992 126.8879978 143.9420014
  26.5819992 128.3149978 143.4580014  26.6047300 127.4593964 143.3015895
  23.0379992 124.6599978 143.6620014  22.3519992 125.0129978 144.2290014
  23.5609992 125.4229978 143.4160014  23.0149033 124.8113746 143.7062661
  31.6539992 116.9749978 145.0380014  31.8739992 117.4459978 144.2350014
  32.2129992 117.3689978 145.7080014  31.7596730 117.0927432 145.0185906
  29.3229992 129.1049978 143.9010014  28.5059992 129.6019978 143.9530014
  29.8519992 129.5809978 143.2610014  29.2828508 129.2372543 143.8216035
  28.8539992 118.7029978 145.8730014  29.6659992 119.2069978 145.9190014
  28.6099992 118.5579978 146.7870014  28.9321467 118.7523749 146.0028575
  29.7379992 115.7839978 146.8110014  29.3909992 116.4009978 147.4560014
  30.3969992 116.2849978 146.3300014  29.7795950 115.9361099 146.8342271
  26.6609992 130.1489978 143.8830014  26.8219992 130.9489978 143.3820014
  26.4639992 130.4559978 144.7680014  26.6563919 130.2999129 143.9341006
  25.3959992 116.8469978 143.4980014  25.3119992 117.7349978 143.8450014
  26.2859992 116.5819978 143.7300014  25.5048163 116.9327179 143.5768596
  23.6539992 127.2739978 142.5590014  24.2459992 127.9739978 142.8350014
  24.1129992 126.8409978 141.8390014  23.7970791 127.3112908 142.4994607
  21.9699992 119.9389978 141.6750014  21.9249992 120.8779978 141.8530014
  21.0819992 119.7029978 141.4050014  21.8438555 120.0356874 141.6628939
  21.7089992 128.6609978 146.5080014  20.8759992 129.1329978 146.5360014
  22.2539992 129.1709978 145.9100014  21.6687590 128.7945897 146.4309194
  29.6859992 129.7009978 140.8340014  29.0419992 129.0699978 141.1550014
  30.4479992 129.1699978 140.6020014  29.7008058 129.5427902 140.8466038
  34.2909992 129.5179978 141.0680014  34.5739992 128.7229978 141.5200014
  35.0299992 129.7509978 140.5070014  34.4296956 129.4407031 141.0539822
  25.2449992 125.4269978 140.9250014  25.3099992 124.6329978 141.4560014
  25.8979992 125.3089978 140.2350014  25.3421754 125.3023337 140.9044259
  30.5979992 126.4739978 140.6610014  30.3289992 126.6549978 141.5620014
  30.3909992 125.5489978 140.5300014  30.5332000 126.3736774 140.7665693
  26.3949992 123.3999978 143.2310014  25.9349992 122.9159978 143.9170014
  26.6499992 122.7309978 142.5950014  26.3665038 123.2433689 143.2389447
  27.4659992 121.6429978 141.4930014  27.2849992 121.4879978 140.5660014
  28.4159992 121.7509978 141.5380014  27.5696566 121.6363669 141.3720929
  36.8559992 123.9969978 140.9390014  36.5819992 123.5729978 140.1260014
  36.8949992 124.9289978 140.7220014  36.8237716 124.0648827 140.7984286
  27.3629992 132.3329978 142.4950014  28.2959992 132.4909978 142.6380014
  27.0989992 133.0089978 141.8700014  27.4549308 132.4459104 142.4301396
  20.9309992 126.9699978 141.9770014  21.8449992 127.0489978 142.2510014
  20.9389992 126.2829978 141.3110014  21.0571143 126.8879085 141.9244274
  19.5799992 132.3629978 147.0550014  18.9329992 131.9009978 146.5220014
  19.9349992 131.6909978 147.6370014  19.5394506 132.2089503 147.0607341
  37.3139992 124.8659978 144.9140014  38.1639992 125.2869978 145.0410014
  37.3189992 124.1259978 145.5210014  37.4311143 124.8236094 145.0134750
  37.7079992 122.9199978 146.7380014  36.9819992 122.4399978 147.1350014
  38.2899992 123.1249978 147.4700014  37.6871635 122.8819166 146.8913748
  37.9769992 122.8209978 143.1290014  37.4549992 123.1769978 142.4100014
  37.9439992 123.4959978 143.8070014  37.9010699 122.9609848 143.1222129
  36.3259992 120.0599978 141.6800014  36.4219992 120.7269978 141.0000014
  36.1859992 119.2449978 141.1980014  36.3202063 120.0410667 141.5218377
  35.4949992 121.4409978 147.3010014  35.3449992 120.4959978 147.2800014
  35.1409992 121.7219978 148.1440014  35.4265527 121.3495605 147.4121859
  35.5729992 117.4679978 140.7970014  36.1839992 117.0969978 141.4340014
  34.7359992 117.0469978 140.9930014  35.5434947 117.3602756 140.9107252
  35.2059992 119.0229978 145.7630014  35.4849992 118.1159978 145.8870014
  35.9649992 119.4569978 145.3740014  35.3468619 118.9574502 145.7273795
  35.8189992 116.2859978 145.8110014  36.0009992 115.8369978 146.6370014
  35.2189992 115.7019978 145.3480014  35.7627529 116.1456131 145.8613619
  37.6859992 116.3539978 142.3390014  38.0979992 115.6329978 141.8640014
  38.3669992 117.0229978 142.3980014  37.8345900 116.3457306 142.2819038
  19.9669992 116.3589978 145.4660014  19.0419992 116.5669978 145.3370014
  20.4209992 116.8429978 144.7770014  19.9016374 116.4529949 145.3550957
  34.7369992 131.3429978 147.4120014  35.3899992 130.9949978 146.8040014
  35.2479992 131.8309978 148.0580014  34.8952777 131.3613815 147.4162047
  21.2429992 114.4019978 143.4450014  21.6819992 115.0129978 142.8530014
  20.6089992 114.9399978 143.9190014  21.2173859 114.5584064 143.4280305
  26.9859992 114.5299978 147.4550014  27.8599992 114.9189978 147.4250014
  26.8499992 114.3149978 148.3770014  27.0873207 114.5541923 147.5756509
  33.8959992 114.5859978 144.7960014  33.1929992 115.2009978 144.5870014
  33.4509992 113.7489978 144.9280014  33.7396292 114.5570085 144.7852439
  21.1439992 130.3499978 144.3430014  20.4589992 130.3119978 143.6750014
  21.1479992 131.2629978 144.6310014  21.0508174 130.4681998 144.2905310
  23.1039992 116.3179978 141.8870014  23.5949992 115.6879978 141.3600014
  23.7269992 116.6139978 142.5510014  23.2555062 116.2716770 141.9045438
  28.1299992 116.6109978 144.3450014  28.3079992 115.9639978 145.0270014
  28.0759992 117.4449978 144.8120014  28.1471025 116.6350504 144.5016433
  30.0079992 131.5589978 142.7400014  30.8739992 131.9259978 142.5620014
  29.7619992 131.1199978 141.9260014  30.0932097 131.5498525 142.6056019
  36.7169992 131.1219978 145.4190014  36.5229992 130.3739978 144.8540014
  36.6779992 131.8799978 144.8360014  36.6851645 131.1220786 145.2628148
  22.9619992 131.2699978 141.3680014  22.6939992 131.5559978 142.2410014
  23.7329992 130.7239978 141.5200014  23.0295600 131.2353330 141.5081499
  50.3409992 123.7599978 147.6000014  50.4299992 124.7039978 147.4680014
  49.7029992 123.4849978 146.9420014  50.2669062 123.8519812 147.4929641
  39.1759992 120.7389978 146.5400014  38.7279992 121.5849978 146.5210014
  38.6149992 120.1599978 146.0240014  39.0389603 120.7763674 146.4676720
  51.6809992 118.0739978 147.4260014  52.3279992 117.7449978 148.0510014
  52.1909992 118.5909978 146.8030014  51.8384317 118.0989227 147.4272167
  50.1379992 126.3609978 146.6430014  49.8429992 126.0379978 145.7920014
  49.8139992 127.2609978 146.6840014  50.0537983 126.4384026 146.5319771
  39.8669992 126.1719978 144.9560014  39.5949992 126.4009978 144.0670014
  39.9119992 127.0089978 145.4160014  39.8358709 126.3166058 144.8966107
  52.9039992 127.4749978 146.8020014  52.6459992 126.7849978 146.1910014
  52.9749992 127.0319978 147.6480014  52.8782837 127.3207106 146.8326912
  49.0619992 123.0039978 145.0520014  48.3509992 123.5389978 144.7000014
  49.7529992 123.0589978 144.3920014  49.0580751 123.0846777 144.9145858
  49.1159992 121.4609978 142.0910014  49.8169992 121.4839978 142.7420014
  49.4179992 120.8329978 141.4350014  49.2528282 121.3792339 142.0914496
  52.4679992 123.2129978 146.0040014  51.7359992 123.4419978 146.5770014
  52.9149992 122.4999978 146.4590014  52.4282753 123.1478972 146.1439715
  51.3389992 122.3759978 143.6890014  51.9179992 122.5259978 144.4360014
  51.7529992 122.8459978 142.9660014  51.4743122 122.4601277 143.6935042
  49.0649992 129.1119978 147.1240014  49.5389992 129.4079978 147.9020014
  48.5019992 129.8509978 146.8910014  49.0537361 129.2522721 147.1988611
  55.0379992 114.1259978 143.5020014  54.1379992 114.2649978 143.7970014
  55.2899992 114.9569978 143.1000014  54.9488683 114.2574055 143.4880232
  43.1039992 122.9129978 145.4760014  42.8119992 123.6809978 144.9850014
  42.4289992 122.2539978 145.3130014  42.9728497 122.9289745 145.3868260
  56.2269992 128.4919978 141.8780014  56.2999992 129.4309978 142.0490014
  57.1319992 128.1869978 141.8220014  56.3594158 128.5793061 141.8938392
  48.5379992 132.0689978 145.5390014  48.4619992 131.9479978 144.5930014
  48.5699992 133.0179978 145.6580014  48.5319156 132.1807530 145.4255048
  42.1909992 130.8579978 147.3200014  42.3429992 130.5099978 148.1990014
  41.3399992 130.5009978 147.0650014  42.0967899 130.7621738 147.4057340
  51.6389992 131.2229978 142.5410014  52.0139992 130.4789978 142.0710014
  51.6439992 130.9529978 143.4600014  51.6910024 131.0846950 142.6007987
  51.3079992 131.1489978 145.2910014  50.3729992 131.2489978 145.4690014
  51.5879992 130.4389978 145.8690014  51.2178173 131.0667239 145.3934998
  52.8159992 123.4079978 141.3190014  52.8579992 123.1859978 140.3890014
  53.6649992 123.8069978 141.5090014  52.9365253 123.4315498 141.2173822
  48.3889992 117.2839978 141.9890014  48.1349992 117.3029978 142.9120014
  48.1319992 116.4129978 141.6880014  48.3195133 117.1688110 142.0745082
  44.1519992 120.2559978 147.3360014  43.2599992 119.9159978 147.2780014
  44.6029992 119.8789978 146.5810014  44.0906815 120.1583762 147.2259203
  49.6879992 120.6719978 146.1530014  49.2789992 121.4869978 145.8620014
  50.4079992 120.5319978 145.5390014  49.7294013 120.7646571 146.0300875
  45.2709992 117.7299978 141.0900014  44.8399992 117.2849978 141.8200014
  44.5529992 118.1009978 140.5780014  45.1149363 117.7192968 141.1206211
  39.7879992 118.2179978 143.5660014  40.2619992 118.8089978 142.9810014
  39.0699992 118.7479978 143.9130014  39.7558640 118.3705511 143.5327969
  41.5619992 119.3129978 147.2490014  40.6729992 119.4119978 146.9090014
  41.8589992 118.4709978 146.9030014  41.4804177 119.2127687 147.1556940
  45.2149992 119.3129978 144.9060014  46.1469992 119.4419978 145.0840014
  44.9999992 119.9819978 144.2560014  45.3134472 119.4210806 144.8424891
  43.8889992 120.5069978 142.4730014  43.3469992 120.1279978 141.7810014
  44.7229992 120.7019978 142.0440014  43.9275159 120.4815076 142.3204419
  43.0559992 116.6079978 146.7280014  42.7389992 115.7049978 146.6930014
  43.8369992 116.6099978 146.1750014  43.1182307 116.4846951 146.6484314
  47.2249992 125.0729978 144.4080014  46.4799992 124.5649978 144.0860014
  47.0899992 125.1219978 145.3550014  47.1049047 125.0101596 144.4918845
  51.1219992 117.8869978 142.6080014  50.1839992 117.9979978 142.4560014
  51.4199992 118.7429978 142.9140014  51.0336402 118.0180621 142.6285571
  51.8409992 119.7539978 144.2680014  52.7329992 119.6159978 144.5870014
  51.8969992 120.5449978 143.7320014  51.9707107 119.8420526 144.2392091
  49.3499992 126.5309978 143.4340014  49.0549992 127.3579978 143.8150014
  48.6469992 125.9119978 143.6300014  49.2145471 126.5605227 143.5126698
  56.7259992 119.9629978 143.9630014  56.1709992 119.5669978 143.2910014
  56.8259992 120.8739978 143.6850014  56.6635888 120.0318990 143.8335206
  55.0209992 128.7489978 144.4280014  54.6479992 127.9239978 144.7370014
  55.2979992 128.5659978 143.5310014  55.0073871 128.6112441 144.3489677
  44.7239992 127.8859978 147.5820014  45.2519992 128.6589978 147.3820014
  43.8439992 128.1099978 147.2810014  44.6773176 128.0223161 147.5138409
  40.4789992 122.7479978 142.1700014  41.0949992 123.3749978 142.5490014
  39.6169992 123.0639978 142.4410014  40.4468195 122.8765798 142.2585386
  46.1519992 125.5489978 147.1590014  45.9109992 126.4739978 147.2000014
  45.4109992 125.0899978 147.5550014  46.0188390 125.6136403 147.2181404
  44.8349992 130.5699978 146.7040014  43.8849992 130.6759978 146.7550014
  45.1869992 131.3909978 147.0490014  44.7525480 130.6954438 146.7575999
  52.4129992 126.7259978 142.2480014  52.7669992 126.3459978 143.0530014
  51.4649992 126.6319978 142.3350014  52.3331820 126.6613092 142.3698714
  56.9169992 131.2049978 142.4490014  57.6609992 131.7909978 142.3090014
  56.2229992 131.7739978 142.7830014  56.9250201 131.3620603 142.4749772
  53.2789992 125.3979978 144.4750014  53.0019992 124.6699978 145.0310014
  54.2069992 125.5169978 144.6800014  53.3664499 125.3144213 144.5788044
  46.5039992 127.8379978 140.6950014  46.7429992 127.0889978 140.1480014
  46.2349992 127.4499978 141.5280014  46.5003233 127.6831853 140.7327809
  45.4409992 127.4079978 143.1520014  45.5879992 126.8879978 143.9420014
  45.4379992 128.3149978 143.4580014  45.4607300 127.4593964 143.3015895
  41.8939992 124.6599978 143.6620014  41.2079992 125.0129978 144.2290014
  42.4169992 125.4229978 143.4160014  41.8709033 124.8113746 143.7062661
  50.5099992 116.9749978 145.0380014  50.7299992 117.4459978 144.2350014
  51.0689992 117.3689978 145.7080014  50.6156730 117.0927432 145.0185906
  48.1789992 129.1049978 143.9010014  47.3619992 129.6019978 143.9530014
  48.7079992 129.5809978 143.2610014  48.1388508 129.2372543 143.8216035
  47.7099992 118.7029978 145.8730014  48.5219992 119.2069978 145.9190014
  47.4659992 118.5579978 146.7870014  47.7881467 118.7523749 146.0028575
  48.5939992 115.7839978 146.8110014  48.2469992 116.4009978 147.4560014
  49.2529992 116.2849978 146.3300014  48.6355950 115.9361099 146.8342271
  45.5169992 130.1489978 143.8830014  45.6779992 130.9489978 143.3820014
  45.3199992 130.4559978 144.7680014  45.5123919 130.2999129 143.9341006
  44.2519992 116.8469978 143.4980014  44.1679992 117.7349978 143.8450014
  45.1419992 116.5819978 143.7300014  44.3608163 116.9327179 143.5768596
  42.5099992 127.2739978 142.5590014  43.1019992 127.9739978 142.8350014
  42.9689992 126.8409978 141.8390014  42.6530791 127.3112908 142.4994607
  40.8259992 119.9389978 141.6750014  40.7809992 120.8779978 141.8530014
  39.9379992 119.7029978 141.4050014  40.6998555 120.0356874 141.6628939
  40.5649992 128.6609978 146.5080014  39.7319992 129.1329978 146.5360014
  41.1099992 129.1709978 145.9100014  40.5247590 128.7945897 146.4309194
  48.5419992 129.7009978 140.8340014  47.8979992 129.0699978 141.1550014
  49.3039992 129.1699978 140.6020014  48.5568058 129.5427902 140.8466038
  53.1469992 129.5179978 141.0680014  53.4299992 128.7229978 141.5200014
  53.8859992 129.7509978 140.5070014  53.2856956 129.4407031 141.0539822
  44.1009992 125.4269978 140.9250014  44.1659992 124.6329978 141.4560014
  44.7539992 125.3089978 140.2350014  44.1981754 125.3023337 140.9044259
  49.4539992 126.4739978 140.6610014  49.1849992 126.6549978 141.5620014
  49.2469992 125.5489978 140.5300014  49.3892000 126.3736774 140.7665693
  45.2509992 123.3999978 143.2310014  44.7909992 122.9159978 143.9170014
  45.5059992 122.7309978 142.5950014  45.2225038 123.2433689 143.2389447
  46.3219992 121.6429978 141.4930014  46.1409992 121.4879978 140.5660014
  47.2719992 121.7509978 141.5380014  46.4256566 121.6363669 141.3720929
  55.7119992 123.9969978 140.9390014  55.4379992 123.5729978 140.1260014
  55.7509992 124.9289978 140.7220014  55.6797716 124.0648827 140.7984286
  46.2189992 132.3329978 142.4950014  47.1519992 132.4909978 142.6380014
  45.9549992 133.0089978 141.8700014  46.3109308 132.4459104 142.4301396
  39.7869992 126.9699978 141.9770014  40.7009992 127.0489978 142.2510014
  39.7949992 126.2829978 141.3110014  39.9131143 126.8879085 141.9244274
  38.4359992 132.3629978 147.0550014  37.7889992 131.9009978 146.5220014
  38.7909992 131.6909978 147.6370014  38.3954506 132.2089503 147.0607341
  56.1699992 124.8659978 144.9140014  57.0199992 125.2869978 145.0410014
  56.1749992 124.1259978 145.5210014  56.2871143 124.8236094 145.0134750
  56.5639992 122.9199978 146.7380014  55.8379992 122.4399978 147.1350014
  57.1459992 123.1249978 147.4700014  56.5431635 122.8819166 146.8913748
  56.8329992 122.8209978 143.1290014  56.3109992 123.1769978 142.4100014
  56.7999992 123.4959978 143.8070014  56.7570699 122.9609848 143.1222129
  55.1819992 120.0599978 141.6800014  55.2779992 120.7269978 141.0000014
  55.0419992 119.2449978 141.1980014  55.1762063 120.0410667 141.5218377
  54.3509992 121.4409978 147.3010014  54.2009992 120.4959978 147.2800014
  53.9969992 121.7219978 148.1440014  54.2825527 121.3495605 147.4121859
  54.4289992 117.4679978 140.7970014  55.0399992 117.0969978 141.4340014
  53.5919992 117.0469978 140.9930014  54.3994947 117.3602756 140.9107252
  54.0619992 119.0229978 145.7630014  54.3409992 118.1159978 145.8870014
  54.8209992 119.4569978 145.3740014  54.2028619 118.9574502 145.7273795
  54.6749992 116.2859978 145.8110014  54.8569992 115.8369978 146.6370014
  54.0749992 115.7019978 145.3480014  54.6187529 116.1456131 145.8613619
  56.5419992 116.3539978 142.3390014  56.9539992 115.6329978 141.8640014
  57.2229992 117.0229978 142.3980014  56.6905900 116.3457306 142.2819038
  38.8229992 116.3589978 145.4660014  37.8979992 116.5669978 145.3370014
  39.2769992 116.8429978 144.7770014  38.7576374 116.4529949 145.3550957
  53.5929992 131.3429978 147.4120014  54.2459992 130.9949978 146.8040014
  54.1039992 131.8309978 148.0580014  53.7512777 131.3613815 147.4162047
  40.0989992 114.4019978 143.4450014  40.5379992 115.0129978 142.8530014
  39.4649992 114.9399978 143.9190014  40.0733859 114.5584064 143.4280305
  45.8419992 114.5299978 147.4550014  46.7159992 114.9189978 147.4250014
  45.7059992 114.3149978 148.3770014  45.9433207 114.5541923 147.5756509
  52.7519992 114.5859978 144.7960014  52.0489992 115.2009978 144.5870014
  52.3069992 113.7489978 144.9280014  52.5956292 114.5570085 144.7852439
  39.9999992 130.3499978 144.3430014  39.3149992 130.3119978 143.6750014
  40.0039992 131.2629978 144.6310014  39.9068174 130.4681998 144.2905310
  41.9599992 116.3179978 141.8870014  42.4509992 115.6879978 141.3600014
  42.5829992 116.6139978 142.5510014  42.1115062 116.2716770 141.9045438
  46.9859992 116.6109978 144.3450014  47.1639992 115.9639978 145.0270014
  46.9319992 117.4449978 144.8120014  47.0031025 116.6350504 144.5016433
  48.8639992 131.5589978 142.7400014  49.7299992 131.9259978 142.5620014
  48.6179992 131.1199978 141.9260014  48.9492097 131.5498525 142.6056019
  55.5729992 131.1219978 145.4190014  55.3789992 130.3739978 144.8540014
  55.5339992 131.8799978 144.8360014  55.5411645 131.1220786 145.2628148
  41.8179992 131.2699978 141.3680014  41.5499992 131.5559978 142.2410014
  42.5889992 130.7239978 141.5200014  41.8855600 131.2353330 141.5081499
  69.1969992 123.7599978 147.6000014  69.2859992 124.7039978 147.4680014
  68.5589992 123.4849978 146.9420014  69.1229062 123.8519812 147.4929641
  58.0319992 120.7389978 146.5400014  57.5839992 121.5849978 146.5210014
  57.4709992 120.1599978 146.0240014  57.8949603 120.7763674 146.4676720
  70.5369992 118.0739978 147.4260014  71.1839992 117.7449978 148.0510014
  71.0469992 118.5909978 146.8030014  70.6944317 118.0989227 147.4272167
  68.9939992 126.3609978 146.6430014  68.6989992 126.0379978 145.7920014
  68.6699992 127.2609978 146.6840014  68.9097983 126.4384026 146.5319771
  58.7229992 126.1719978 144.9560014  58.4509992 126.4009978 144.0670014
  58.7679992 127.0089978 145.4160014  58.6918709 126.3166058 144.8966107
  71.7599992 127.4749978 146.8020014  71.5019992 126.7849978 146.1910014
  71.8309992 127.0319978 147.6480014  71.7342837 127.3207106 146.8326912
  67.9179992 123.0039978 145.0520014  67.2069992 123.5389978 144.7000014
  68.6089992 123.0589978 144.3920014  67.9140751 123.0846777 144.9145858
  67.9719992 121.4609978 142.0910014  68.6729992 121.4839978 142.7420014
  68.2739992 120.8329978 141.4350014  68.1088282 121.3792339 142.0914496
  71.3239992 123.2129978 146.0040014  70.5919992 123.4419978 146.5770014
  71.7709992 122.4999978 146.4590014  71.2842753 123.1478972 146.1439715
  70.1949992 122.3759978 143.6890014  70.7739992 122.5259978 144.4360014
  70.6089992 122.8459978 142.9660014  70.3303122 122.4601277 143.6935042
  67.9209992 129.1119978 147.1240014  68.3949992 129.4079978 147.9020014
  67.3579992 129.8509978 146.8910014  67.9097361 129.2522721 147.1988611
  73.8939992 114.1259978 143.5020014  72.9939992 114.2649978 143.7970014
  74.1459992 114.9569978 143.1000014  73.8048683 114.2574055 143.4880232
  61.9599992 122.9129978 145.4760014  61.6679992 123.6809978 144.9850014
  61.2849992 122.2539978 145.3130014  61.8288497 122.9289745 145.3868260
  75.0829992 128.4919978 141.8780014  75.1559992 129.4309978 142.0490014
  75.9879992 128.1869978 141.8220014  75.2154158 128.5793061 141.8938392
  67.3939992 132.0689978 145.5390014  67.3179992 131.9479978 144.5930014
  67.4259992 133.0179978 145.6580014  67.3879156 132.1807530 145.4255048
  61.0469992 130.8579978 147.3200014  61.1989992 130.5099978 148.1990014
  60.1959992 130.5009978 147.0650014  60.9527899 130.7621738 147.4057340
  70.4949992 131.2229978 142.5410014  70.8699992 130.4789978 142.0710014
  70.4999992 130.9529978 143.4600014  70.5470024 131.0846950 142.6007987
  70.1639992 131.1489978 145.2910014  69.2289992 131.2489978 145.4690014
  70.4439992 130.4389978 145.8690014  70.0738173 131.0667239 145.3934998
  71.6719992 123.4079978 141.3190014  71.7139992 123.1859978 140.3890014
  72.5209992 123.8069978 141.5090014  71.7925253 123.4315498 141.2173822
  67.2449992 117.2839978 141.9890014  66.9909992 117.3029978 142.9120014
  66.9879992 116.4129978 141.6880014  67.1755133 117.1688110 142.0745082
  63.0079992 120.2559978 147.3360014  62.1159992 119.9159978 147.2780014
  63.4589992 119.8789978 146.5810014  62.9466815 120.1583762 147.2259203
  68.5439992 120.6719978 146.1530014  68.1349992 121.4869978 145.8620014
  69.2639992 120.5319978 145.5390014  68.5854013 120.7646571 146.0300875
  64.1269992 117.7299978 141.0900014  63.6959992 117.2849978 141.8200014
  63.4089992 118.1009978 140.5780014  63.9709363 117.7192968 141.1206211
  58.6439992 118.2179978 143.5660014  59.1179992 118.8089978 142.9810014
  57.9259992 118.7479978 143.9130014  58.6118640 118.3705511 143.5327969
  60.4179992 119.3129978 147.2490014  59.5289992 119.4119978 146.9090014
  60.7149992 118.4709978 146.9030014  60.3364177 119.2127687 147.1556940
  64.0709992 119.3129978 144.9060014  65.0029992 119.4419978 145.0840014
  63.8559992 119.9819978 144.2560014  64.1694472 119.4210806 144.8424891
  62.7449992 120.5069978 142.4730014  62.2029992 120.1279978 141.7810014
  63.5789992 120.7019978 142.0440014  62.7835159 120.4815076 142.3204419
  61.9119992 116.6079978 146.7280014  61.5949992 115.7049978 146.6930014
  62.6929992 116.6099978 146.1750014  61.9742307 116.4846951 146.6484314
  66.0809992 125.0729978 144.4080014  65.3359992 124.5649978 144.0860014
  65.9459992 125.1219978 145.3550014  65.9609047 125.0101596 144.4918845
  69.9779992 117.8869978 142.6080014  69.0399992 117.9979978 142.4560014
  70.2759992 118.7429978 142.9140014  69.8896402 118.0180621 142.6285571
  70.6969992 119.7539978 144.2680014  71.5889992 119.6159978 144.5870014
  70.7529992 120.5449978 143.7320014  70.8267107 119.8420526 144.2392091
  68.2059992 126.5309978 143.4340014  67.9109992 127.3579978 143.8150014
  67.5029992 125.9119978 143.6300014  68.0705471 126.5605227 143.5126698
  75.5819992 119.9629978 143.9630014  75.0269992 119.5669978 143.2910014
  75.6819992 120.8739978 143.6850014  75.5195888 120.0318990 143.8335206
  73.8769992 128.7489978 144.4280014  73.5039992 127.9239978 144.7370014
  74.1539992 128.5659978 143.5310014  73.8633871 128.6112441 144.3489677
  63.5799992 127.8859978 147.5820014  64.1079992 128.6589978 147.3820014
  62.6999992 128.1099978 147.2810014  63.5333176 128.0223161 147.5138409
  59.3349992 122.7479978 142.1700014  59.9509992 123.3749978 142.5490014
  58.4729992 123.0639978 142.4410014  59.3028195 122.8765798 142.2585386
  65.0079992 125.5489978 147.1590014  64.7669992 126.4739978 147.2000014
  64.2669992 125.0899978 147.5550014  64.8748390 125.6136403 147.2181404
  63.6909992 130.5699978 146.7040014  62.7409992 130.6759978 146.7550014
  64.0429992 131.3909978 147.0490014  63.6085480 130.6954438 146.7575999
  71.2689992 126.7259978 142.2480014  71.6229992 126.3459978 143.0530014
  70.3209992 126.6319978 142.3350014  71.1891820 126.6613092 142.3698714
  75.7729992 131.2049978 142.4490014  76.5169992 131.7909978 142.3090014
  75.0789992 131.7739978 142.7830014  75.7810201 131.3620603 142.4749772
  72.1349992 125.3979978 144.4750014  71.8579992 124.6699978 145.0310014
  73.0629992 125.5169978 144.6800014  72.2224499 125.3144213 144.5788044
  65.3599992 127.8379978 140.6950014  65.5989992 127.0889978 140.1480014
  65.0909992 127.4499978 141.5280014  65.3563233 127.6831853 140.7327809
  64.2969992 127.4079978 143.1520014  64.4439992 126.8879978 143.9420014
  64.2939992 128.3149978 143.4580014  64.3167300 127.4593964 143.3015895
  60.7499992 124.6599978 143.6620014  60.0639992 125.0129978 144.2290014
  61.2729992 125.4229978 143.4160014  60.7269033 124.8113746 143.7062661
  69.3659992 116.9749978 145.0380014  69.5859992 117.4459978 144.2350014
  69.9249992 117.3689978 145.7080014  69.4716730 117.0927432 145.0185906
  67.0349992 129.1049978 143.9010014  66.2179992 129.6019978 143.9530014
  67.5639992 129.5809978 143.2610014  66.9948508 129.2372543 143.8216035
  66.5659992 118.7029978 145.8730014  67.3779992 119.2069978 145.9190014
  66.3219992 118.5579978 146.7870014  66.6441467 118.7523749 146.0028575
  67.4499992 115.7839978 146.8110014  67.1029992 116.4009978 147.4560014
  68.1089992 116.2849978 146.3300014  67.4915950 115.9361099 146.8342271
  64.3729992 130.1489978 143.8830014  64.5339992 130.9489978 143.3820014
  64.1759992 130.4559978 144.7680014  64.3683919 130.2999129 143.9341006
  63.1079992 116.8469978 143.4980014  63.0239992 117.7349978 143.8450014
  63.9979992 116.5819978 143.7300014  63.2168163 116.9327179 143.5768596
  61.3659992 127.2739978 142.5590014  61.9579992 127.9739978 142.8350014
  61.8249992 126.8409978 141.8390014  61.5090791 127.3112908 142.4994607
  59.6819992 119.9389978 141.6750014  59.6369992 120.8779978 141.8530014
  58.7939992 119.7029978 141.4050014  59.5558555 120.0356874 141.6628939
  59.4209992 128.6609978 146.5080014  58.5879992 129.1329978 146.5360014
  59.9659992 129.1709978 145.9100014  59.3807590 128.7945897 146.4309194
  67.3979992 129.7009978 140.8340014  66.7539992 129.0699978 141.1550014
  68.1599992 129.1699978 140.6020014  67.4128058 129.5427902 140.8466038
  72.0029992 129.5179978 141.0680014  72.2859992 128.7229978 141.5200014
  72.7419992 129.7509978 140.5070014  72.1416956 129.4407031 141.0539822
  62.9569992 125.4269978 140.9250014  63.0219992 124.6329978 141.4560014
  63.6099992 125.3089978 140.2350014  63.0541754 125.3023337 140.9044259
  68.3099992 126.4739978 140.6610014  68.0409992 126.6549978 141.5620014
  68.1029992 125.5489978 140.5300014  68.2452000 126.3736774 140.7665693
  64.1069992 123.3999978 143.2310014  63.6469992 122.9159978 143.9170014
  64.3619992 122.7309978 142.5950014  64.0785038 123.2433689 143.2389447
  65.1779992 121.6429978 141.4930014  64.9969992 121.4879978 140.5660014
  66.1279992 121.7509978 141.5380014  65.2816566 121.6363669 141.3720929
  74.5679992 123.9969978 140.9390014  74.2939992 123.5729978 140.1260014
  74.6069992 124.9289978 140.7220014  74.5357716 124.0648827 140.7984286
  65.0749992 132.3329978 142.4950014  66.0079992 132.4909978 142.6380014
  64.8109992 133.0089978 141.8700014  65.1669308 132.4459104 142.4301396
  58.6429992 126.9699978 141.9770014  59.5569992 127.0489978 142.2510014
  58.6509992 126.2829978 141.3110014  58.7691143 126.8879085 141.9244274
  57.2919992 132.3629978 147.0550014  56.6449992 131.9009978 146.5220014
  57.6469992 131.6909978 147.6370014  57.2514506 132.2089503 147.0607341
  75.0259992 124.8659978 144.9140014  75.8759992 125.2869978 145.0410014
  75.0309992 124.1259978 145.5210014  75.1431143 124.8236094 145.0134750
  75.4199992 122.9199978 146.7380014  74.6939992 122.4399978 147.1350014
  76.0019992 123.1249978 147.4700014  75.3991635 122.8819166 146.8913748
  75.6889992 122.8209978 143.1290014  75.1669992 123.1769978 142.4100014
  75.6559992 123.4959978 143.8070014  75.6130699 122.9609848 143.1222129
  74.0379992 120.0599978 141.6800014  74.1339992 120.7269978 141.0000014
  73.8979992 119.2449978 141.1980014  74.0322063 120.0410667 141.5218377
  73.2069992 121.4409978 147.3010014  73.0569992 120.4959978 147.2800014
  72.8529992 121.7219978 148.1440014  73.1385527 121.3495605 147.4121859
  73.2849992 117.4679978 140.7970014  73.8959992 117.0969978 141.4340014
  72.4479992 117.0469978 140.9930014  73.2554947 117.3602756 140.9107252
  72.9179992 119.0229978 145.7630014  73.1969992 118.1159978 145.8870014
  73.6769992 119.4569978 145.3740014  73.0588619 118.9574502 145.7273795
  73.5309992 116.2859978 145.8110014  73.7129992 115.8369978 146.6370014
  72.9309992 115.7019978 145.3480014  73.4747529 116.1456131 145.8613619
  75.3979992 116.3539978 142.3390014  75.8099992 115.6329978 141.8640014
  76.0789992 117.0229978 142.3980014  75.5465900 116.3457306 142.2819038
  57.6789992 116.3589978 145.4660014  56.7539992 116.5669978 145.3370014
  58.1329992 116.8429978 144.7770014  57.6136374 116.4529949 145.3550957
  72.4489992 131.3429978 147.4120014  73.1019992 130.9949978 146.8040014
  72.9599992 131.8309978 148.0580014  72.6072777 131.3613815 147.4162047
  58.9549992 114.4019978 143.4450014  59.3939992 115.0129978 142.8530014
  58.3209992 114.9399978 143.9190014  58.9293859 114.5584064 143.4280305
  64.6979992 114.5299978 147.4550014  65.5719992 114.9189978 147.4250014
  64.5619992 114.3149978 148.3770014  64.7993207 114.5541923 147.5756509
  71.6079992 114.5859978 144.7960014  70.9049992 115.2009978 144.5870014
  71.1629992 113.7489978 144.9280014  71.4516292 114.5570085 144.7852439
  58.8559992 130.3499978 144.3430014  58.1709992 130.3119978 143.6750014
  58.8599992 131.2629978 144.6310014  58.7628174 130.4681998 144.2905310
  60.8159992 116.3179978 141.8870014  61.3069992 115.6879978 141.3600014
  61.4389992 116.6139978 142.5510014  60.9675062 116.2716770 141.9045438
  65.8419992 116.6109978 144.3450014  66.0199992 115.9639978 145.0270014
  65.7879992 117.4449978 144.8120014  65.8591025 116.6350504 144.5016433
  67.7199992 131.5589978 142.7400014  68.5859992 131.9259978 142.5620014
  67.4739992 131.1199978 141.9260014  67.8052097 131.5498525 142.6056019
  74.4289992 131.1219978 145.4190014  74.2349992 130.3739978 144.8540014
  74.3899992 131.8799978 144.8360014  74.3971645 131.1220786 145.2628148
  60.6739992 131.2699978 141.3680014  60.4059992 131.5559978 142.2410014
  61.4449992 130.7239978 141.5200014  60.7415600 131.2353330 141.5081499
  88.0529992 123.7599978 147.6000014  88.1419992 124.7039978 147.4680014
  87.4149992 123.4849978 146.9420014  87.9789062 123.8519812 147.4929641
  76.8879992 120.7389978 146.5400014  76.4399992 121.5849978 146.5210014
  76.3269992 120.1599978 146.0240014  76.7509603 120.7763674 146.4676720
  89.3929992 118.0739978 147.4260014  90.0399992 117.7449978 148.0510014
  89.9029992 118.5909978 146.8030014  89.5504317 118.0989227 147.4272167
  87.8499992 126.3609978 146.6430014  87.5549992 126.0379978 145.7920014
  87.5259992 127.2609978 146.6840014  87.7657983 126.4384026 146.5319771
  77.5789992 126.1719978 144.9560014  77.3069992 126.4009978 144.0670014
  77.6239992 127.0089978 145.4160014  77.5478709 126.3166058 144.8966107
  90.6159992 127.4749978 146.8020014  90.3579992 126.7849978 146.1910014
  90.6869992 127.0319978 147.6480014  90.5902837 127.3207106 146.8326912
  86.7739992 123.0039978 145.0520014  86.0629992 123.5389978 144.7000014
  87.4649992 123.0589978 144.3920014  86.7700751 123.0846777 144.9145858
  86.8279992 121.4609978 142.0910014  87.5289992 121.4839978 142.7420014
  87.1299992 120.8329978 141.4350014  86.9648282 121.3792339 142.0914496
  90.1799992 123.2129978 146.0040014  89.4479992 123.4419978 146.5770014
  90.6269992 122.4999978 146.4590014  90.1402753 123.1478972 146.1439715
  89.0509992 122.3759978 143.6890014  89.6299992 122.5259978 144.4360014
  89.4649992 122.8459978 142.9660014  89.1863122 122.4601277 143.6935042
  86.7769992 129.1119978 147.1240014  87.2509992 129.4079978 147.9020014
  86.2139992 129.8509978 146.8910014  86.7657361 129.2522721 147.1988611
  92.7499992 114.1259978 143.5020014  91.8499992 114.2649978 143.7970014
  93.0019992 114.9569978 143.1000014  92.6608683 114.2574055 143.4880232
  80.8159992 122.9129978 145.4760014  80.5239992 123.6809978 144.9850014
  80.1409992 122.2539978 145.3130014  80.6848497 122.9289745 145.3868260
  93.9389992 128.4919978 141.8780014  94.0119992 129.4309978 142.0490014
  94.8439992 128.1869978 141.8220014  94.0714158 128.5793061 141.8938392
  86.2499992 132.0689978 145.5390014  86.1739992 131.9479978 144.5930014
  86.2819992 133.0179978 145.6580014  86.2439156 132.1807530 145.4255048
  79.9029992 130.8579978 147.3200014  80.0549992 130.5099978 148.1990014
  79.0519992 130.5009978 147.0650014  79.8087899 130.7621738 147.4057340
  89.3509992 131.2229978 142.5410014  89.7259992 130.4789978 142.0710014
  89.3559992 130.9529978 143.4600014  89.4030024 131.0846950 142.6007987
  89.0199992 131.1489978 145.2910014  88.0849992 131.2489978 145.4690014
  89.2999992 130.4389978 145.8690014  88.9298173 131.0667239 145.3934998
  90.5279992 123.4079978 141.3190014  90.5699992 123.1859978 140.3890014
  91.3769992 123.8069978 141.5090014  90.6485253 123.4315498 141.2173822
  86.1009992 117.2839978 141.9890014  85.8469992 117.3029978 142.9120014
  85.8439992 116.4129978 141.6880014  86.0315133 117.1688110 142.0745082
  81.8639992 120.2559978 147.3360014  80.9719992 119.9159978 147.2780014
  82.3149992 119.8789978 146.5810014  81.8026815 120.1583762 147.2259203
  87.3999992 120.6719978 146.1530014  86.9909992 121.4869978 145.8620014
  88.1199992 120.5319978 145.5390014  87.4414013 120.7646571 146.0300875
  82.9829992 117.7299978 141.0900014  82.5519992 117.2849978 141.8200014
  82.2649992 118.1009978 140.5780014  82.8269363 117.7192968 141.1206211
  77.4999992 118.2179978 143.5660014  77.9739992 118.8089978 142.9810014
  76.7819992 118.7479978 143.9130014  77.4678640 118.3705511 143.5327969
  79.2739992 119.3129978 147.2490014  78.3849992 119.4119978 146.9090014
  79.5709992 118.4709978 146.9030014  79.1924177 119.2127687 147.1556940
  82.9269992 119.3129978 144.9060014  83.8589992 119.4419978 145.0840014
  82.7119992 119.9819978 144.2560014  83.0254472 119.4210806 144.8424891
  81.6009992 120.5069978 142.4730014  81.0589992 120.1279978 141.7810014
  82.4349992 120.7019978 142.0440014  81.6395159 120.4815076 142.3204419
  80.7679992 116.6079978 146.7280014  80.4509992 115.7049978 146.6930014
  81.5489992 116.6099978 146.1750014  80.8302307 116.4846951 146.6484314
  84.9369992 125.0729978 144.4080014  84.1919992 124.5649978 144.0860014
  84.8019992 125.1219978 145.3550014  84.8169047 125.0101596 144.4918845
  88.8339992 117.8869978 142.6080014  87.8959992 117.9979978 142.4560014
  89.1319992 118.7429978 142.9140014  88.7456402 118.0180621 142.6285571
  89.5529992 119.7539978 144.2680014  90.4449992 119.6159978 144.5870014
  89.6089992 120.5449978 143.7320014  89.6827107 119.8420526 144.2392091
  87.0619992 126.5309978 143.4340014  86.7669992 127.3579978 143.8150014
  86.3589992 125.9119978 143.6300014  86.9265471 126.5605227 143.5126698
  94.4379992 119.9629978 143.9630014  93.8829992 119.5669978 143.2910014
  94.5379992 120.8739978 143.6850014  94.3755888 120.0318990 143.8335206
  92.7329992 128.7489978 144.4280014  92.3599992 127.9239978 144.7370014
  93.0099992 128.5659978 143.5310014  92.7193871 128.6112441 144.3489677
  82.4359992 127.8859978 147.5820014  82.9639992 128.6589978 147.3820014
  81.5559992 128.1099978 147.2810014  82.3893176 128.0223161 147.5138409
  78.1909992 122.7479978 142.1700014  78.8069992 123.3749978 142.5490014
  77.3289992 123.0639978 142.4410014  78.1588195 122.8765798 142.2585386
  83.8639992 125.5489978 147.1590014  83.6229992 126.4739978 147.2000014
  83.1229992 125.0899978 147.5550014  83.7308390 125.6136403 147.2181404
  82.5469992 130.5699978 146.7040014  81.5969992 130.6759978 146.7550014
  82.8989992 131.3909978 147.0490014  82.4645480 130.6954438 146.7575999
  90.1249992 126.7259978 142.2480014  90.4789992 126.3459978 143.0530014
  89.1769992 126.6319978 142.3350014  90.0451820 126.6613092 142.3698714
  94.6289992 131.2049978 142.4490014  95.3729992 131.7909978 142.3090014
  93.9349992 131.7739978 142.7830014  94.6370201 131.3620603 142.4749772
  90.9909992 125.3979978 144.4750014  90.7139992 124.6699978 145.0310014
  91.9189992 125.5169978 144.6800014  91.0784499 125.3144213 144.5788044
  84.2159992 127.8379978 140.6950014  84.4549992 127.0889978 140.1480014
  83.9469992 127.4499978 141.5280014  84.2123233 127.6831853 140.7327809
  83.1529992 127.4079978 143.1520014  83.2999992 126.8879978 143.9420014
  83.1499992 128.3149978 143.4580014  83.1727300 127.4593964 143.3015895
  79.6059992 124.6599978 143.6620014  78.9199992 125.0129978 144.2290014
  80.1289992 125.4229978 143.4160014  79.5829033 124.8113746 143.7062661
  88.2219992 116.9749978 145.0380014  88.4419992 117.4459978 144.2350014
  88.7809992 117.3689978 145.7080014  88.3276730 117.0927432 145.0185906
  85.8909992 129.1049978 143.9010014  85.0739992 129.6019978 143.9530014
  86.4199992 129.5809978 143.2610014  85.8508508 129.2372543 143.8216035
  85.4219992 118.7029978 145.8730014  86.2339992 119.2069978 145.9190014
  85.1779992 118.5579978 146.7870014  85.5001467 118.7523749 146.0028575
  86.3059992 115.7839978 146.8110014  85.9589992 116.4009978 147.4560014
  86.9649992 116.2849978 146.3300014  86.3475949 115.9361099 146.8342271
  83.2289992 130.1489978 143.8830014  83.3899992 130.9489978 143.3820014
  83.0319992 130.4559978 144.7680014  83.2243919 130.2999129 143.9341006
  81.9639992 116.8469978 143.4980014  81.8799992 117.7349978 143.8450014
  82.8539992 116.5819978 143.7300014  82.0728163 116.9327179 143.5768596
  80.2219992 127.2739978 142.5590014  80.8139992 127.9739978 142.8350014
  80.6809992 126.8409978 141.8390014  80.3650791 127.3112908 142.4994607
  78.5379992 119.9389978 141.6750014  78.4929992 120.8779978 141.8530014
  77.6499992 119.7029978 141.4050014  78.4118555 120.0356874 141.6628939
  78.2769992 128.6609978 146.5080014  77.4439992 129.1329978 146.5360014
  78.8219992 129.1709978 145.9100014  78.2367590 128.7945897 146.4309194
  86.2539992 129.7009978 140.8340014  85.6099992 129.0699978 141.1550014
  87.0159992 129.1699978 140.6020014  86.2688058 129.5427902 140.8466038
  90.8589992 129.5179978 141.0680014  91.1419992 128.7229978 141.5200014
  91.5979992 129.7509978 140.5070014  90.9976956 129.4407031 141.0539822
  81.8129992 125.4269978 140.9250014  81.8779992 124.6329978 141.4560014
  82.4659992 125.3089978 140.2350014  81.9101754 125.3023337 140.9044259
  87.1659992 126.4739978 140.6610014  86.8969992 126.6549978 141.5620014
  86.9589992 125.5489978 140.5300014  87.1012000 126.3736774 140.7665693
  82.9629992 123.3999978 143.2310014  82.5029992 122.9159978 143.9170014
  83.2179992 122.7309978 142.5950014  82.9345038 123.2433689 143.2389447
  84.0339992 121.6429978 141.4930014  83.8529992 121.4879978 140.5660014
  84.9839992 121.7509978 141.5380014  84.1376566 121.6363669 141.3720929
  93.4239992 123.9969978 140.9390014  93.1499992 123.5729978 140.1260014
  93.4629992 124.9289978 140.7220014  93.3917716 124.0648827 140.7984286
  83.9309992 132.3329978 142.4950014  84.8639992 132.4909978 142.6380014
  83.6669992 133.0089978 141.8700014  84.0229308 132.4459104 142.4301396
  77.4989992 126.9699978 141.9770014  78.4129992 127.0489978 142.2510014
  77.5069992 126.2829978 141.3110014  77.6251143 126.8879085 141.9244274
  76.1479992 132.3629978 147.0550014  75.5009992 131.9009978 146.5220014
  76.5029992 131.6909978 147.6370014  76.1074506 132.2089503 147.0607341
  93.8819992 124.8659978 144.9140014  94.7319992 125.2869978 145.0410014
  93.8869992 124.1259978 145.5210014  93.9991143 124.8236094 145.0134750
  94.2759992 122.9199978 146.7380014  93.5499992 122.4399978 147.1350014
  94.8579992 123.1249978 147.4700014  94.2551635 122.8819166 146.8913748
  94.5449992 122.8209978 143.1290014  94.0229992 123.1769978 142.4100014
  94.5119992 123.4959978 143.8070014  94.4690699 122.9609848 143.1222129
  92.8939992 120.0599978 141.6800014  92.9899992 120.7269978 141.0000014
  92.7539992 119.2449978 141.1980014  92.8882063 120.0410667 141.5218377
  92.0629992 121.4409978 147.3010014  91.9129992 120.4959978 147.2800014
  91.7089992 121.7219978 148.1440014  91.9945527 121.3495605 147.4121859
  92.1409992 117.4679978 140.7970014  92.7519992 117.0969978 141.4340014
  91.3039992 117.0469978 140.9930014  92.1114947 117.3602756 140.9107252
  91.7739992 119.0229978 145.7630014  92.0529992 118.1159978 145.8870014
  92.5329992 119.4569978 145.3740014  91.9148619 118.9574502 145.7273795
  92.3869992 116.2859978 145.8110014  92.5689992 115.8369978 146.6370014
  91.7869992 115.7019978 145.3480014  92.3307529 116.1456131 145.8613619
  94.2539992 116.3539978 142.3390014  94.6659992 115.6329978 141.8640014
  94.9349992 117.0229978 142.3980014  94.4025900 116.3457306 142.2819038
  76.5349992 116.3589978 145.4660014  75.6099992 116.5669978 145.3370014
  76.9889992 116.8429978 144.7770014  76.4696374 116.4529949 145.3550957
  91.3049992 131.3429978 147.4120014  91.9579992 130.9949978 146.8040014
  91.8159992 131.8309978 148.0580014  91.4632777 131.3613815 147.4162047
  77.8109992 114.4019978 143.4450014  78.2499992 115.0129978 142.8530014
  77.1769992 114.9399978 143.9190014  77.7853859 114.5584064 143.4280305
  83.5539992 114.5299978 147.4550014  84.4279992 114.9189978 147.4250014
  83.4179992 114.3149978 148.3770014  83.6553207 114.5541923 147.5756509
  90.4639992 114.5859978 144.7960014  89.7609992 115.2009978 144.5870014
  90.0189992 113.7489978 144.9280014  90.3076292 114.5570085 144.7852439
  77.7119992 130.3499978 144.3430014  77.0269992 130.3119978 143.6750014
  77.7159992 131.2629978 144.6310014  77.6188174 130.4681998 144.2905310
  79.6719992 116.3179978 141.8870014  80.1629992 115.6879978 141.3600014
  80.2949992 116.6139978 142.5510014  79.8235062 116.2716770 141.9045438
  84.6979992 116.6109978 144.3450014  84.8759992 115.9639978 145.0270014
  84.6439992 117.4449978 144.8120014  84.7151025 116.6350504 144.5016433
  86.5759992 131.5589978 142.7400014  87.4419992 131.9259978 142.5620014
  86.3299992 131.1199978 141.9260014  86.6612097 131.5498525 142.6056019
  93.2849992 131.1219978 145.4190014  93.0909992 130.3739978 144.8540014
  93.2459992 131.8799978 144.8360014  93.2531645 131.1220786 145.2628148
  79.5299992 131.2699978 141.3680014  79.2619992 131.5559978 142.2410014
  80.3009992 130.7239978 141.5200014  79.5975600 131.2353330 141.5081499
 106.9089992 123.7599978 147.6000014 106.9979992 124.7039978 147.4680014
 106.2709992 123.4849978 146.9420014 106.8349062 123.8519812 147.4929641
  95.7439992 120.7389978 146.5400014  95.2959992 121.5849978 146.5210014
  95.1829992 120.1599978 146.0240014  95.6069603 120.7763674 146.4676720
 108.2489992 118.0739978 147.4260014 108.8959992 117.7449978 148.0510014
 108.7589992 118.5909978 146.8030014 108.4064317 118.0989227 147.4272167
 106.7059992 126.3609978 146.6430014 106.4109992 126.0379978 145.7920014
 106.3819992 127.2609978 146.6840014 106.6217983 126.4384026 146.5319771
  96.4349992 126.1719978 144.9560014  96.1629992 126.4009978 144.0670014
  96.4799992 127.0089978 145.4160014  96.4038709 126.3166058 144.8966107
 109.4719992 127.4749978 146.8020014 109.2139992 126.7849978 146.1910014
 109.5429992 127.0319978 147.6480014 109.4462837 127.3207106 146.8326912
 105.6299992 123.0039978 145.0520014 104.9189992 123.5389978 144.7000014
 106.3209992 123.0589978 144.3920014 105.6260751 123.0846777 144.9145858
 105.6839992 121.4609978 142.0910014 106.3849992 121.4839978 142.7420014
 105.9859992 120.8329978 141.4350014 105.8208282 121.3792339 142.0914496
 109.0359992 123.2129978 146.0040014 108.3039992 123.4419978 146.5770014
 109.4829992 122.4999978 146.4590014 108.9962753 123.1478972 146.1439715
 107.9069992 122.3759978 143.6890014 108.4859992 122.5259978 144.4360014
 108.3209992 122.8459978 142.9660014 108.0423122 122.4601277 143.6935042
 105.6329992 129.1119978 147.1240014 106.1069992 129.4079978 147.9020014
 105.0699992 129.8509978 146.8910014 105.6217361 129.2522721 147.1988611
 111.6059992 114.1259978 143.5020014 110.7059992 114.2649978 143.7970014
 111.8579992 114.9569978 143.1000014 111.5168683 114.2574055 143.4880232
  99.6719992 122.9129978 145.4760014  99.3799992 123.6809978 144.9850014
  98.9969992 122.2539978 145.3130014  99.5408497 122.9289745 145.3868260
 112.7949992 128.4919978 141.8780014 112.8679992 129.4309978 142.0490014
 113.6999992 128.1869978 141.8220014 112.9274158 128.5793061 141.8938392
 105.1059992 132.0689978 145.5390014 105.0299992 131.9479978 144.5930014
 105.1379992 133.0179978 145.6580014 105.0999156 132.1807530 145.4255048
  98.7589992 130.8579978 147.3200014  98.9109992 130.5099978 148.1990014
  97.9079992 130.5009978 147.0650014  98.6647899 130.7621738 147.4057340
 108.2069992 131.2229978 142.5410014 108.5819992 130.4789978 142.0710014
 108.2119992 130.9529978 143.4600014 108.2590024 131.0846950 142.6007987
 107.8759992 131.1489978 145.2910014 106.9409992 131.2489978 145.4690014
 108.1559992 130.4389978 145.8690014 107.7858173 131.0667239 145.3934998
 109.3839992 123.4079978 141.3190014 109.4259992 123.1859978 140.3890014
 110.2329992 123.8069978 141.5090014 109.5045253 123.4315498 141.2173822
 104.9569992 117.2839978 141.9890014 104.7029992 117.3029978 142.9120014
 104.6999992 116.4129978 141.6880014 104.8875133 117.1688110 142.0745082
 100.7199992 120.2559978 147.3360014  99.8279992 119.9159978 147.2780014
 101.1709992 119.8789978 146.5810014 100.6586815 120.1583762 147.2259203
 106.2559992 120.6719978 146.1530014 105.8469992 121.4869978 145.8620014
 106.9759992 120.5319978 145.5390014 106.2974013 120.7646571 146.0300875
 101.8389992 117.7299978 141.0900014 101.4079992 117.2849978 141.8200014
 101.1209992 118.1009978 140.5780014 101.6829363 117.7192968 141.1206211
  96.3559992 118.2179978 143.5660014  96.8299992 118.8089978 142.9810014
  95.6379992 118.7479978 143.9130014  96.3238640 118.3705511 143.5327969
  98.1299992 119.3129978 147.2490014  97.2409992 119.4119978 146.9090014
  98.4269992 118.4709978 146.9030014  98.0484177 119.2127687 147.1556940
 101.7829992 119.3129978 144.9060014 102.7149992 119.4419978 145.0840014
 101.5679992 119.9819978 144.2560014 101.8814472 119.4210806 144.8424891
 100.4569992 120.5069978 142.4730014  99.9149992 120.1279978 141.7810014
 101.2909992 120.7019978 142.0440014 100.4955159 120.4815076 142.3204419
  99.6239992 116.6079978 146.7280014  99.3069992 115.7049978 146.6930014
 100.4049992 116.6099978 146.1750014  99.6862307 116.4846951 146.6484314
 103.7929992 125.0729978 144.4080014 103.0479992 124.5649978 144.0860014
 103.6579992 125.1219978 145.3550014 103.6729047 125.0101596 144.4918845
 107.6899992 117.8869978 142.6080014 106.7519992 117.9979978 142.4560014
 107.9879992 118.7429978 142.9140014 107.6016402 118.0180621 142.6285571
 108.4089992 119.7539978 144.2680014 109.3009992 119.6159978 144.5870014
 108.4649992 120.5449978 143.7320014 108.5387107 119.8420526 144.2392091
 105.9179992 126.5309978 143.4340014 105.6229992 127.3579978 143.8150014
 105.2149992 125.9119978 143.6300014 105.7825471 126.5605227 143.5126698
 113.2939992 119.9629978 143.9630014 112.7389992 119.5669978 143.2910014
 113.3939992 120.8739978 143.6850014 113.2315888 120.0318990 143.8335206
 111.5889992 128.7489978 144.4280014 111.2159992 127.9239978 144.7370014
 111.8659992 128.5659978 143.5310014 111.5753871 128.6112441 144.3489677
 101.2919992 127.8859978 147.5820014 101.8199992 128.6589978 147.3820014
 100.4119992 128.1099978 147.2810014 101.2453176 128.0223161 147.5138409
  97.0469992 122.7479978 142.1700014  97.6629992 123.3749978 142.5490014
  96.1849992 123.0639978 142.4410014  97.0148195 122.8765798 142.2585386
 102.7199992 125.5489978 147.1590014 102.4789992 126.4739978 147.2000014
 101.9789992 125.0899978 147.5550014 102.5868390 125.6136403 147.2181404
 101.4029992 130.5699978 146.7040014 100.4529992 130.6759978 146.7550014
 101.7549992 131.3909978 147.0490014 101.3205480 130.6954438 146.7575999
 108.9809992 126.7259978 142.2480014 109.3349992 126.3459978 143.0530014
 108.0329992 126.6319978 142.3350014 108.9011820 126.6613092 142.3698714
 113.4849992 131.2049978 142.4490014 114.2289992 131.7909978 142.3090014
 112.7909992 131.7739978 142.7830014 113.4930201 131.3620603 142.4749772
 109.8469992 125.3979978 144.4750014 109.5699992 124.6699978 145.0310014
 110.7749992 125.5169978 144.6800014 109.9344499 125.3144213 144.5788044
 103.0719992 127.8379978 140.6950014 103.3109992 127.0889978 140.1480014
 102.8029992 127.4499978 141.5280014 103.0683233 127.6831853 140.7327809
 102.0089992 127.4079978 143.1520014 102.1559992 126.8879978 143.9420014
 102.0059992 128.3149978 143.4580014 102.0287300 127.4593964 143.3015895
  98.4619992 124.6599978 143.6620014  97.7759992 125.0129978 144.2290014
  98.9849992 125.4229978 143.4160014  98.4389033 124.8113746 143.7062661
 107.0779992 116.9749978 145.0380014 107.2979992 117.4459978 144.2350014
 107.6369992 117.3689978 145.7080014 107.1836730 117.0927432 145.0185906
 104.7469992 129.1049978 143.9010014 103.9299992 129.6019978 143.9530014
 105.2759992 129.5809978 143.2610014 104.7068508 129.2372543 143.8216035
 104.2779992 118.7029978 145.8730014 105.0899992 119.2069978 145.9190014
 104.0339992 118.5579978 146.7870014 104.3561467 118.7523749 146.0028575
 105.1619992 115.7839978 146.8110014 104.8149992 116.4009978 147.4560014
 105.8209992 116.2849978 146.3300014 105.2035949 115.9361099 146.8342271
 102.0849992 130.1489978 143.8830014 102.2459992 130.9489978 143.3820014
 101.8879992 130.4559978 144.7680014 102.0803919 130.2999129 143.9341006
 100.8199992 116.8469978 143.4980014 100.7359992 117.7349978 143.8450014
 101.7099992 116.5819978 143.7300014 100.9288163 116.9327179 143.5768596
  99.0779992 127.2739978 142.5590014  99.6699992 127.9739978 142.8350014
  99.5369992 126.8409978 141.8390014  99.2210791 127.3112908 142.4994607
  97.3939992 119.9389978 141.6750014  97.3489992 120.8779978 141.8530014
  96.5059992 119.7029978 141.4050014  97.2678555 120.0356874 141.6628939
  97.1329992 128.6609978 146.5080014  96.2999992 129.1329978 146.5360014
  97.6779992 129.1709978 145.9100014  97.0927590 128.7945897 146.4309194
 105.1099992 129.7009978 140.8340014 104.4659992 129.0699978 141.1550014
 105.8719992 129.1699978 140.6020014 105.1248058 129.5427902 140.8466038
 109.7149992 129.5179978 141.0680014 109.9979992 128.7229978 141.5200014
 110.4539992 129.7509978 140.5070014 109.8536956 129.4407031 141.0539822
 100.6689992 125.4269978 140.9250014 100.7339992 124.6329978 141.4560014
 101.3219992 125.3089978 140.2350014 100.7661754 125.3023337 140.9044259
 106.0219992 126.4739978 140.6610014 105.7529992 126.6549978 141.5620014
 105.8149992 125.5489978 140.5300014 105.9572000 126.3736774 140.7665693
 101.8189992 123.3999978 143.2310014 101.3589992 122.9159978 143.9170014
 102.0739992 122.7309978 142.5950014 101.7905038 123.2433689 143.2389447
 102.8899992 121.6429978 141.4930014 102.7089992 121.4879978 140.5660014
 103.8399992 121.7509978 141.5380014 102.9936566 121.6363669 141.3720929
 112.2799992 123.9969978 140.9390014 112.0059992 123.5729978 140.1260014
 112.3189992 124.9289978 140.7220014 112.2477716 124.0648827 140.7984286
 102.7869992 132.3329978 142.4950014 103.7199992 132.4909978 142.6380014
 102.5229992 133.0089978 141.8700014 102.8789308 132.4459104 142.4301396
  96.3549992 126.9699978 141.9770014  97.2689992 127.0489978 142.2510014
  96.3629992 126.2829978 141.3110014  96.4811143 126.8879085 141.9244274
  95.0039992 132.3629978 147.0550014  94.3569992 131.9009978 146.5220014
  95.3589992 131.6909978 147.6370014  94.9634506 132.2089503 147.0607341
 112.7379992 124.8659978 144.9140014 113.5879992 125.2869978 145.0410014
 112.7429992 124.1259978 145.5210014 112.8551143 124.8236094 145.0134750
 113.1319992 122.9199978 146.7380014 112.4059992 122.4399978 147.1350014
 113.7139992 123.1249978 147.4700014 113.1111635 122.8819166 146.8913748
 113.4009992 122.8209978 143.1290014 112.8789992 123.1769978 142.4100014
 113.3679992 123.4959978 143.8070014 113.3250699 122.9609848 143.1222129
 111.7499992 120.0599978 141.6800014 111.8459992 120.7269978 141.0000014
 111.6099992 119.2449978 141.1980014 111.7442063 120.0410667 141.5218377
 110.9189992 121.4409978 147.3010014 110.7689992 120.4959978 147.2800014
 110.5649992 121.7219978 148.1440014 110.8505527 121.3495605 147.4121859
 110.9969992 117.4679978 140.7970014 111.6079992 117.0969978 141.4340014
 110.1599992 117.0469978 140.9930014 110.9674947 117.3602756 140.9107252
 110.6299992 119.0229978 145.7630014 110.9089992 118.1159978 145.8870014
 111.3889992 119.4569978 145.3740014 110.7708619 118.9574502 145.7273795
 111.2429992 116.2859978 145.8110014 111.4249992 115.8369978 146.6370014
 110.6429992 115.7019978 145.3480014 111.1867529 116.1456131 145.8613619
 113.1099992 116.3539978 142.3390014 113.5219992 115.6329978 141.8640014
 113.7909992 117.0229978 142.3980014 113.2585900 116.3457306 142.2819038
  95.3909992 116.3589978 145.4660014  94.4659992 116.5669978 145.3370014
  95.8449992 116.8429978 144.7770014  95.3256374 116.4529949 145.3550957
 110.1609992 131.3429978 147.4120014 110.8139992 130.9949978 146.8040014
 110.6719992 131.8309978 148.0580014 110.3192777 131.3613815 147.4162047
  96.6669992 114.4019978 143.4450014  97.1059992 115.0129978 142.8530014
  96.0329992 114.9399978 143.9190014  96.6413859 114.5584064 143.4280305
 102.4099992 114.5299978 147.4550014 103.2839992 114.9189978 147.4250014
 102.2739992 114.3149978 148.3770014 102.5113207 114.5541923 147.5756509
 109.3199992 114.5859978 144.7960014 108.6169992 115.2009978 144.5870014
 108.8749992 113.7489978 144.9280014 109.1636292 114.5570085 144.7852439
  96.5679992 130.3499978 144.3430014  95.8829992 130.3119978 143.6750014
  96.5719992 131.2629978 144.6310014  96.4748174 130.4681998 144.2905310
  98.5279992 116.3179978 141.8870014  99.0189992 115.6879978 141.3600014
  99.1509992 116.6139978 142.5510014  98.6795062 116.2716770 141.9045438
 103.5539992 116.6109978 144.3450014 103.7319992 115.9639978 145.0270014
 103.4999992 117.4449978 144.8120014 103.5711025 116.6350504 144.5016433
 105.4319992 131.5589978 142.7400014 106.2979992 131.9259978 142.5620014
 105.1859992 131.1199978 141.9260014 105.5172097 131.5498525 142.6056019
 112.1409992 131.1219978 145.4190014 111.9469992 130.3739978 144.8540014
 112.1019992 131.8799978 144.8360014 112.1091645 131.1220786 145.2628148
  98.3859992 131.2699978 141.3680014  98.1179992 131.5559978 142.2410014
  99.1569992 130.7239978 141.5200014  98.4535600 131.2353330 141.5081499
 125.7649992 123.7599978 147.6000014 125.8539992 124.7039978 147.4680014
 125.1269992 123.4849978 146.9420014 125.6909062 123.8519812 147.4929641
 114.5999992 120.7389978 146.5400014 114.1519992 121.5849978 146.5210014
 114.0389992 120.1599978 146.0240014 114.4629603 120.7763674 146.4676720
 127.1049992 118.0739978 147.4260014 127.7519992 117.7449978 148.0510014
 127.6149992 118.5909978 146.8030014 127.2624317 118.0989227 147.4272167
 125.5619992 126.3609978 146.6430014 125.2669992 126.0379978 145.7920014
 125.2379992 127.2609978 146.6840014 125.4777983 126.4384026 146.5319771
 115.2909992 126.1719978 144.9560014 115.0189992 126.4009978 144.0670014
 115.3359992 127.0089978 145.4160014 115.2598709 126.3166058 144.8966107
 128.3279992 127.4749978 146.8020014 128.0699992 126.7849978 146.1910014
 128.3989992 127.0319978 147.6480014 128.3022837 127.3207106 146.8326912
 124.4859992 123.0039978 145.0520014 123.7749992 123.5389978 144.7000014
 125.1769992 123.0589978 144.3920014 124.4820751 123.0846777 144.9145858
 124.5399992 121.4609978 142.0910014 125.2409992 121.4839978 142.7420014
 124.8419992 120.8329978 141.4350014 124.6768282 121.3792339 142.0914496
 127.8919992 123.2129978 146.0040014 127.1599992 123.4419978 146.5770014
 128.3389992 122.4999978 146.4590014 127.8522753 123.1478972 146.1439715
 126.7629992 122.3759978 143.6890014 127.3419992 122.5259978 144.4360014
 127.1769992 122.8459978 142.9660014 126.8983122 122.4601277 143.6935042
 124.4889992 129.1119978 147.1240014 124.9629992 129.4079978 147.9020014
 123.9259992 129.8509978 146.8910014 124.4777361 129.2522721 147.1988611
 130.4619992 114.1259978 143.5020014 129.5619992 114.2649978 143.7970014
 130.7139992 114.9569978 143.1000014 130.3728683 114.2574055 143.4880232
 118.5279992 122.9129978 145.4760014 118.2359992 123.6809978 144.9850014
 117.8529992 122.2539978 145.3130014 118.3968497 122.9289745 145.3868260
 131.6509992 128.4919978 141.8780014 131.7239992 129.4309978 142.0490014
 132.5559992 128.1869978 141.8220014 131.7834158 128.5793061 141.8938392
 123.9619992 132.0689978 145.5390014 123.8859992 131.9479978 144.5930014
 123.9939992 133.0179978 145.6580014 123.9559156 132.1807530 145.4255048
 117.6149992 130.8579978 147.3200014 117.7669992 130.5099978 148.1990014
 116.7639992 130.5009978 147.0650014 117.5207899 130.7621738 147.4057340
 127.0629992 131.2229978 142.5410014 127.4379992 130.4789978 142.0710014
 127.0679992 130.9529978 143.4600014 127.1150024 131.0846950 142.6007987
 126.7319992 131.1489978 145.2910014 125.7969992 131.2489978 145.4690014
 127.0119992 130.4389978 145.8690014 126.6418173 131.0667239 145.3934998
 128.2399992 123.4079978 141.3190014 128.2819992 123.1859978 140.3890014
 129.0889992 123.8069978 141.5090014 128.3605253 123.4315498 141.2173822
 123.8129992 117.2839978 141.9890014 123.5589992 117.3029978 142.9120014
 123.5559992 116.4129978 141.6880014 123.7435133 117.1688110 142.0745082
 119.5759992 120.2559978 147.3360014 118.6839992 119.9159978 147.2780014
 120.0269992 119.8789978 146.5810014 119.5146815 120.1583762 147.2259203
 125.1119992 120.6719978 146.1530014 124.7029992 121.4869978 145.8620014
 125.8319992 120.5319978 145.5390014 125.1534013 120.7646571 146.0300875
 120.6949992 117.7299978 141.0900014 120.2639992 117.2849978 141.8200014
 119.9769992 118.1009978 140.5780014 120.5389363 117.7192968 141.1206211
 115.2119992 118.2179978 143.5660014 115.6859992 118.8089978 142.9810014
 114.4939992 118.7479978 143.9130014 115.1798640 118.3705511 143.5327969
 116.9859992 119.3129978 147.2490014 116.0969992 119.4119978 146.9090014
 117.2829992 118.4709978 146.9030014 116.9044177 119.2127687 147.1556940
 120.6389992 119.3129978 144.9060014 121.5709992 119.4419978 145.0840014
 120.4239992 119.9819978 144.2560014 120.7374472 119.4210806 144.8424891
 119.3129992 120.5069978 142.4730014 118.7709992 120.1279978 141.7810014
 120.1469992 120.7019978 142.0440014 119.3515159 120.4815076 142.3204419
 118.4799992 116.6079978 146.7280014 118.1629992 115.7049978 146.6930014
 119.2609992 116.6099978 146.1750014 118.5422307 116.4846951 146.6484314
 122.6489992 125.0729978 144.4080014 121.9039992 124.5649978 144.0860014
 122.5139992 125.1219978 145.3550014 122.5289047 125.0101596 144.4918845
 126.5459992 117.8869978 142.6080014 125.6079992 117.9979978 142.4560014
 126.8439992 118.7429978 142.9140014 126.4576402 118.0180621 142.6285571
 127.2649992 119.7539978 144.2680014 128.1569992 119.6159978 144.5870014
 127.3209992 120.5449978 143.7320014 127.3947107 119.8420526 144.2392091
 124.7739992 126.5309978 143.4340014 124.4789992 127.3579978 143.8150014
 124.0709992 125.9119978 143.6300014 124.6385471 126.5605227 143.5126698
 132.1499992 119.9629978 143.9630014 131.5949992 119.5669978 143.2910014
 132.2499992 120.8739978 143.6850014 132.0875888 120.0318990 143.8335206
 130.4449992 128.7489978 144.4280014 130.0719992 127.9239978 144.7370014
 130.7219992 128.5659978 143.5310014 130.4313871 128.6112441 144.3489677
 120.1479992 127.8859978 147.5820014 120.6759992 128.6589978 147.3820014
 119.2679992 128.1099978 147.2810014 120.1013176 128.0223161 147.5138409
 115.9029992 122.7479978 142.1700014 116.5189992 123.3749978 142.5490014
 115.0409992 123.0639978 142.4410014 115.8708195 122.8765798 142.2585386
 121.5759992 125.5489978 147.1590014 121.3349992 126.4739978 147.2000014
 120.8349992 125.0899978 147.5550014 121.4428390 125.6136403 147.2181404
 120.2589992 130.5699978 146.7040014 119.3089992 130.6759978 146.7550014
 120.6109992 131.3909978 147.0490014 120.1765480 130.6954438 146.7575999
 127.8369992 126.7259978 142.2480014 128.1909992 126.3459978 143.0530014
 126.8889992 126.6319978 142.3350014 127.7571820 126.6613092 142.3698714
 132.3409992 131.2049978 142.4490014 133.0849992 131.7909978 142.3090014
 131.6469992 131.7739978 142.7830014 132.3490201 131.3620603 142.4749772
 128.7029992 125.3979978 144.4750014 128.4259992 124.6699978 145.0310014
 129.6309992 125.5169978 144.6800014 128.7904499 125.3144213 144.5788044
 121.9279992 127.8379978 140.6950014 122.1669992 127.0889978 140.1480014
 121.6589992 127.4499978 141.5280014 121.9243233 127.6831853 140.7327809
 120.8649992 127.4079978 143.1520014 121.0119992 126.8879978 143.9420014
 120.8619992 128.3149978 143.4580014 120.8847300 127.4593964 143.3015895
 117.3179992 124.6599978 143.6620014 116.6319992 125.0129978 144.2290014
 117.8409992 125.4229978 143.4160014 117.2949033 124.8113746 143.7062661
 125.9339992 116.9749978 145.0380014 126.1539992 117.4459978 144.2350014
 126.4929992 117.3689978 145.7080014 126.0396730 117.0927432 145.0185906
 123.6029992 129.1049978 143.9010014 122.7859992 129.6019978 143.9530014
 124.1319992 129.5809978 143.2610014 123.5628508 129.2372543 143.8216035
 123.1339992 118.7029978 145.8730014 123.9459992 119.2069978 145.9190014
 122.8899992 118.5579978 146.7870014 123.2121467 118.7523749 146.0028575
 124.0179992 115.7839978 146.8110014 123.6709992 116.4009978 147.4560014
 124.6769992 116.2849978 146.3300014 124.0595950 115.9361099 146.8342271
 120.9409992 130.1489978 143.8830014 121.1019992 130.9489978 143.3820014
 120.7439992 130.4559978 144.7680014 120.9363919 130.2999129 143.9341006
 119.6759992 116.8469978 143.4980014 119.5919992 117.7349978 143.8450014
 120.5659992 116.5819978 143.7300014 119.7848163 116.9327179 143.5768596
 117.9339992 127.2739978 142.5590014 118.5259992 127.9739978 142.8350014
 118.3929992 126.8409978 141.8390014 118.0770791 127.3112908 142.4994607
 116.2499992 119.9389978 141.6750014 116.2049992 120.8779978 141.8530014
 115.3619992 119.7029978 141.4050014 116.1238555 120.0356874 141.6628939
 115.9889992 128.6609978 146.5080014 115.1559992 129.1329978 146.5360014
 116.5339992 129.1709978 145.9100014 115.9487590 128.7945897 146.4309194
 123.9659992 129.7009978 140.8340014 123.3219992 129.0699978 141.1550014
 124.7279992 129.1699978 140.6020014 123.9808058 129.5427902 140.8466038
 128.5709992 129.5179978 141.0680014 128.8539992 128.7229978 141.5200014
 129.3099992 129.7509978 140.5070014 128.7096956 129.4407031 141.0539822
 119.5249992 125.4269978 140.9250014 119.5899992 124.6329978 141.4560014
 120.1779992 125.3089978 140.2350014 119.6221754 125.3023337 140.9044259
 124.8779992 126.4739978 140.6610014 124.6089992 126.6549978 141.5620014
 124.6709992 125.5489978 140.5300014 124.8132000 126.3736774 140.7665693
 120.6749992 123.3999978 143.2310014 120.2149992 122.9159978 143.9170014
 120.9299992 122.7309978 142.5950014 120.6465038 123.2433689 143.2389447
 121.7459992 121.6429978 141.4930014 121.5649992 121.4879978 140.5660014
 122.6959992 121.7509978 141.5380014 121.8496566 121.6363669 141.3720929
 131.1359992 123.9969978 140.9390014 130.8619992 123.5729978 140.1260014
 131.1749992 124.9289978 140.7220014 131.1037716 124.0648827 140.7984286
 121.6429992 132.3329978 142.4950014 122.5759992 132.4909978 142.6380014
 121.3789992 133.0089978 141.8700014 121.7349308 132.4459104 142.4301396
 115.2109992 126.9699978 141.9770014 116.1249992 127.0489978 142.2510014
 115.2189992 126.2829978 141.3110014 115.3371143 126.8879085 141.9244274
 113.8599992 132.3629978 147.0550014 113.2129992 131.9009978 146.5220014
 114.2149992 131.6909978 147.6370014 113.8194506 132.2089503 147.0607341
 131.5939992 124.8659978 144.9140014 132.4439992 125.2869978 145.0410014
 131.5989992 124.1259978 145.5210014 131.7111143 124.8236094 145.0134750
 131.9879992 122.9199978 146.7380014 131.2619992 122.4399978 147.1350014
 132.5699992 123.1249978 147.4700014 131.9671635 122.8819166 146.8913748
 132.2569992 122.8209978 143.1290014 131.7349992 123.1769978 142.4100014
 132.2239992 123.4959978 143.8070014 132.1810699 122.9609848 143.1222129
 130.6059992 120.0599978 141.6800014 130.7019992 120.7269978 141.0000014
 130.4659992 119.2449978 141.1980014 130.6002063 120.0410667 141.5218377
 129.7749992 121.4409978 147.3010014 129.6249992 120.4959978 147.2800014
 129.4209992 121.7219978 148.1440014 129.7065527 121.3495605 147.4121859
 129.8529992 117.4679978 140.7970014 130.4639992 117.0969978 141.4340014
 129.0159992 117.0469978 140.9930014 129.8234947 117.3602756 140.9107252
 129.4859992 119.0229978 145.7630014 129.7649992 118.1159978 145.8870014
 130.2449992 119.4569978 145.3740014 129.6268619 118.9574502 145.7273795
 130.0989992 116.2859978 145.8110014 130.2809992 115.8369978 146.6370014
 129.4989992 115.7019978 145.3480014 130.0427529 116.1456131 145.8613619
 131.9659992 116.3539978 142.3390014 132.3779992 115.6329978 141.8640014
 132.6469992 117.0229978 142.3980014 132.1145900 116.3457306 142.2819038
 114.2469992 116.3589978 145.4660014 113.3219992 116.5669978 145.3370014
 114.7009992 116.8429978 144.7770014 114.1816374 116.4529949 145.3550957
 129.0169992 131.3429978 147.4120014 129.6699992 130.9949978 146.8040014
 129.5279992 131.8309978 148.0580014 129.1752777 131.3613815 147.4162047
 115.5229992 114.4019978 143.4450014 115.9619992 115.0129978 142.8530014
 114.8889992 114.9399978 143.9190014 115.4973859 114.5584064 143.4280305
 121.2659992 114.5299978 147.4550014 122.1399992 114.9189978 147.4250014
 121.1299992 114.3149978 148.3770014 121.3673207 114.5541923 147.5756509
 128.1759992 114.5859978 144.7960014 127.4729992 115.2009978 144.5870014
 127.7309992 113.7489978 144.9280014 128.0196292 114.5570085 144.7852439
 115.4239992 130.3499978 144.3430014 114.7389992 130.3119978 143.6750014
 115.4279992 131.2629978 144.6310014 115.3308174 130.4681998 144.2905310
 117.3839992 116.3179978 141.8870014 117.8749992 115.6879978 141.3600014
 118.0069992 116.6139978 142.5510014 117.5355062 116.2716770 141.9045438
 122.4099992 116.6109978 144.3450014 122.5879992 115.9639978 145.0270014
 122.3559992 117.4449978 144.8120014 122.4271025 116.6350504 144.5016433
 124.2879992 131.5589978 142.7400014 125.1539992 131.9259978 142.5620014
 124.0419992 131.1199978 141.9260014 124.3732097 131.5498525 142.6056019
 130.9969992 131.1219978 145.4190014 130.8029992 130.3739978 144.8540014
 130.9579992 131.8799978 144.8360014 130.9651645 131.1220786 145.2628148
 117.2419992 131.2699978 141.3680014 116.9739992 131.5559978 142.2410014
 118.0129992 130.7239978 141.5200014 117.3095600 131.2353330 141.5081499
 144.6209992 123.7599978 147.6000014 144.7099992 124.7039978 147.4680014
 143.9829992 123.4849978 146.9420014 144.5469061 123.8519812 147.4929641
 133.4559992 120.7389978 146.5400014 133.0079992 121.5849978 146.5210014
 132.8949992 120.1599978 146.0240014 133.3189603 120.7763674 146.4676720
 144.4179992 126.3609978 146.6430014 144.1229992 126.0379978 145.7920014
 144.0939992 127.2609978 146.6840014 144.3337983 126.4384026 146.5319771
 134.1469992 126.1719978 144.9560014 133.8749992 126.4009978 144.0670014
 134.1919992 127.0089978 145.4160014 134.1158709 126.3166058 144.8966107
 143.3419992 123.0039978 145.0520014 142.6309992 123.5389978 144.7000014
 144.0329992 123.0589978 144.3920014 143.3380751 123.0846777 144.9145858
 143.3959992 121.4609978 142.0910014 144.0969992 121.4839978 142.7420014
 143.6979992 120.8329978 141.4350014 143.5328282 121.3792339 142.0914496
 143.3449992 129.1119978 147.1240014 143.8189992 129.4079978 147.9020014
 142.7819992 129.8509978 146.8910014 143.3337361 129.2522721 147.1988611
 137.3839992 122.9129978 145.4760014 137.0919992 123.6809978 144.9850014
 136.7089992 122.2539978 145.3130014 137.2528497 122.9289745 145.3868260
 142.8179992 132.0689978 145.5390014 142.7419992 131.9479978 144.5930014
 142.8499992 133.0179978 145.6580014 142.8119156 132.1807530 145.4255048
 136.4709992 130.8579978 147.3200014 136.6229992 130.5099978 148.1990014
 135.6199992 130.5009978 147.0650014 136.3767899 130.7621738 147.4057340
 142.6689992 117.2839978 141.9890014 142.4149992 117.3029978 142.9120014
 142.4119992 116.4129978 141.6880014 142.5995133 117.1688110 142.0745082
 138.4319992 120.2559978 147.3360014 137.5399992 119.9159978 147.2780014
 138.8829992 119.8789978 146.5810014 138.3706815 120.1583762 147.2259203
 143.9679992 120.6719978 146.1530014 143.5589992 121.4869978 145.8620014
 144.6879992 120.5319978 145.5390014 144.0094013 120.7646571 146.0300875
 139.5509992 117.7299978 141.0900014 139.1199992 117.2849978 141.8200014
 138.8329992 118.1009978 140.5780014 139.3949363 117.7192968 141.1206211
 134.0679992 118.2179978 143.5660014 134.5419992 118.8089978 142.9810014
 133.3499992 118.7479978 143.9130014 134.0358640 118.3705511 143.5327969
 135.8419992 119.3129978 147.2490014 134.9529992 119.4119978 146.9090014
 136.1389992 118.4709978 146.9030014 135.7604177 119.2127687 147.1556940
 139.4949992 119.3129978 144.9060014 140.4269992 119.4419978 145.0840014
 139.2799992 119.9819978 144.2560014 139.5934472 119.4210806 144.8424891
 138.1689992 120.5069978 142.4730014 137.6269992 120.1279978 141.7810014
 139.0029992 120.7019978 142.0440014 138.2075159 120.4815076 142.3204419
 137.3359992 116.6079978 146.7280014 137.0189992 115.7049978 146.6930014
 138.1169992 116.6099978 146.1750014 137.3982307 116.4846951 146.6484314
 141.5049992 125.0729978 144.4080014 140.7599992 124.5649978 144.0860014
 141.3699992 125.1219978 145.3550014 141.3849047 125.0101596 144.4918845
 145.4019992 117.8869978 142.6080014 144.4639992 117.9979978 142.4560014
 145.6999992 118.7429978 142.9140014 145.3136402 118.0180621 142.6285571
 143.6299992 126.5309978 143.4340014 143.3349992 127.3579978 143.8150014
 142.9269992 125.9119978 143.6300014 143.4945471 126.5605227 143.5126698
 139.0039992 127.8859978 147.5820014 139.5319992 128.6589978 147.3820014
 138.1239992 128.1099978 147.2810014 138.9573176 128.0223161 147.5138409
 134.7589992 122.7479978 142.1700014 135.3749992 123.3749978 142.5490014
 133.8969992 123.0639978 142.4410014 134.7268195 122.8765798 142.2585386
 140.4319992 125.5489978 147.1590014 140.1909992 126.4739978 147.2000014
 139.6909992 125.0899978 147.5550014 140.2988390 125.6136403 147.2181404
 139.1149992 130.5699978 146.7040014 138.1649992 130.6759978 146.7550014
 139.4669992 131.3909978 147.0490014 139.0325480 130.6954438 146.7575999
 140.7839992 127.8379978 140.6950014 141.0229992 127.0889978 140.1480014
 140.5149992 127.4499978 141.5280014 140.7803233 127.6831853 140.7327809
 139.7209992 127.4079978 143.1520014 139.8679992 126.8879978 143.9420014
 139.7179992 128.3149978 143.4580014 139.7407300 127.4593964 143.3015895
 136.1739992 124.6599978 143.6620014 135.4879992 125.0129978 144.2290014
 136.6969992 125.4229978 143.4160014 136.1509033 124.8113746 143.7062661
 144.7899992 116.9749978 145.0380014 145.0099992 117.4459978 144.2350014
 145.3489992 117.3689978 145.7080014 144.8956730 117.0927432 145.0185906
 142.4589992 129.1049978 143.9010014 141.6419992 129.6019978 143.9530014
 142.9879992 129.5809978 143.2610014 142.4188508 129.2372543 143.8216035
 141.9899992 118.7029978 145.8730014 142.8019992 119.2069978 145.9190014
 141.7459992 118.5579978 146.7870014 142.0681467 118.7523749 146.0028575
 142.8739992 115.7839978 146.8110014 142.5269992 116.4009978 147.4560014
 143.5329992 116.2849978 146.3300014 142.9155949 115.9361099 146.8342271
 139.7969992 130.1489978 143.8830014 139.9579992 130.9489978 143.3820014
 139.5999992 130.4559978 144.7680014 139.7923919 130.2999129 143.9341006
 138.5319992 116.8469978 143.4980014 138.4479992 117.7349978 143.8450014
 139.4219992 116.5819978 143.7300014 138.6408163 116.9327179 143.5768596
 136.7899992 127.2739978 142.5590014 137.3819992 127.9739978 142.8350014
 137.2489992 126.8409978 141.8390014 136.9330791 127.3112908 142.4994607
 135.1059992 119.9389978 141.6750014 135.0609992 120.8779978 141.8530014
 134.2179992 119.7029978 141.4050014 134.9798555 120.0356874 141.6628939
 134.8449992 128.6609978 146.5080014 134.0119992 129.1329978 146.5360014
 135.3899992 129.1709978 145.9100014 134.8047590 128.7945897 146.4309194
 142.8219992 129.7009978 140.8340014 142.1779992 129.0699978 141.1550014
 143.5839992 129.1699978 140.6020014 142.8368058 129.5427902 140.8466038
 138.3809992 125.4269978 140.9250014 138.4459992 124.6329978 141.4560014
 139.0339992 125.3089978 140.2350014 138.4781754 125.3023337 140.9044259
 143.7339992 126.4739978 140.6610014 143.4649992 126.6549978 141.5620014
 143.5269992 125.5489978 140.5300014 143.6692000 126.3736774 140.7665693
 139.5309992 123.3999978 143.2310014 139.0709992 122.9159978 143.9170014
 139.7859992 122.7309978 142.5950014 139.5025038 123.2433689 143.2389447
 140.6019992 121.6429978 141.4930014 140.4209992 121.4879978 140.5660014
 141.5519992 121.7509978 141.5380014 140.7056566 121.6363669 141.3720929
 140.4989992 132.3329978 142.4950014 141.4319992 132.4909978 142.6380014
 140.2349992 133.0089978 141.8700014 140.5909308 132.4459104 142.4301396
 134.0669992 126.9699978 141.9770014 134.9809992 127.0489978 142.2510014
 134.0749992 126.2829978 141.3110014 134.1931143 126.8879085 141.9244274
 132.7159992 132.3629978 147.0550014 132.0689992 131.9009978 146.5220014
 133.0709992 131.6909978 147.6370014 132.6754506 132.2089503 147.0607341
 133.1029992 116.3589978 145.4660014 132.1779992 116.5669978 145.3370014
 133.5569992 116.8429978 144.7770014 133.0376374 116.4529949 145.3550957
 134.3789992 114.4019978 143.4450014 134.8179992 115.0129978 142.8530014
 133.7449992 114.9399978 143.9190014 134.3533859 114.5584064 143.4280305
 140.1219992 114.5299978 147.4550014 140.9959992 114.9189978 147.4250014
 139.9859992 114.3149978 148.3770014 140.2233207 114.5541923 147.5756509
 134.2799992 130.3499978 144.3430014 133.5949992 130.3119978 143.6750014
 134.2839992 131.2629978 144.6310014 134.1868174 130.4681998 144.2905310
 136.2399992 116.3179978 141.8870014 136.7309992 115.6879978 141.3600014
 136.8629992 116.6139978 142.5510014 136.3915062 116.2716770 141.9045438
 141.2659992 116.6109978 144.3450014 141.4439992 115.9639978 145.0270014
 141.2119992 117.4449978 144.8120014 141.2831025 116.6350504 144.5016433
 143.1439992 131.5589978 142.7400014 144.0099992 131.9259978 142.5620014
 142.8979992 131.1199978 141.9260014 143.2292097 131.5498525 142.6056019
 136.0979992 131.2699978 141.3680014 135.8299992 131.5559978 142.2410014
 136.8689992 130.7239978 141.5200014 136.1655600 131.2353330 141.5081499
  12.6289992 142.6159978 147.6000014  12.7179992 143.5599978 147.4680014
  11.9909992 142.3409978 146.9420014  12.5549062 142.7079812 147.4929641
   1.4639992 139.5949978 146.5400014   1.0159992 140.4409978 146.5210014
   0.9029992 139.0159978 146.0240014   1.3269603 139.6323674 146.4676720
  13.9689992 136.9299978 147.4260014  14.6159992 136.6009978 148.0510014
  14.4789992 137.4469978 146.8030014  14.1264317 136.9549227 147.4272167
  12.4259992 145.2169978 146.6430014  12.1309992 144.8939978 145.7920014
  12.1019992 146.1169978 146.6840014  12.3417983 145.2944026 146.5319771
   2.1549992 145.0279978 144.9560014   1.8829992 145.2569978 144.0670014
   2.1999992 145.8649978 145.4160014   2.1238709 145.1726058 144.8966107
  11.3499992 141.8599978 145.0520014  10.6389992 142.3949978 144.7000014
  12.0409992 141.9149978 144.3920014  11.3460751 141.9406777 144.9145858
  11.4039992 140.3169978 142.0910014  12.1049992 140.3399978 142.7420014
  11.7059992 139.6889978 141.4350014  11.5408282 140.2352339 142.0914496
  14.7559992 142.0689978 146.0040014  14.0239992 142.2979978 146.5770014
  15.2029992 141.3559978 146.4590014  14.7162753 142.0038972 146.1439715
  13.6269992 141.2319978 143.6890014  14.2059992 141.3819978 144.4360014
  14.0409992 141.7019978 142.9660014  13.7623122 141.3161277 143.6935042
  17.3259992 132.9819978 143.5020014  16.4259992 133.1209978 143.7970014
  17.5779992 133.8129978 143.1000014  17.2368683 133.1134055 143.4880232
   5.3919992 141.7689978 145.4760014   5.0999992 142.5369978 144.9850014
   4.7169992 141.1099978 145.3130014   5.2608497 141.7849745 145.3868260
  15.1039992 142.2639978 141.3190014  15.1459992 142.0419978 140.3890014
  15.9529992 142.6629978 141.5090014  15.2245253 142.2875498 141.2173822
  10.6769992 136.1399978 141.9890014  10.4229992 136.1589978 142.9120014
  10.4199992 135.2689978 141.6880014  10.6075133 136.0248110 142.0745082
   6.4399992 139.1119978 147.3360014   5.5479992 138.7719978 147.2780014
   6.8909992 138.7349978 146.5810014   6.3786815 139.0143762 147.2259203
  11.9759992 139.5279978 146.1530014  11.5669992 140.3429978 145.8620014
  12.6959992 139.3879978 145.5390014  12.0174013 139.6206571 146.0300875
   7.5589992 136.5859978 141.0900014   7.1279992 136.1409978 141.8200014
   6.8409992 136.9569978 140.5780014   7.4029363 136.5752968 141.1206211
   2.0759992 137.0739978 143.5660014   2.5499992 137.6649978 142.9810014
   1.3579992 137.6039978 143.9130014   2.0438640 137.2265511 143.5327969
   3.8499992 138.1689978 147.2490014   2.9609992 138.2679978 146.9090014
   4.1469992 137.3269978 146.9030014   3.7684177 138.0687687 147.1556940
   7.5029992 138.1689978 144.9060014   8.4349992 138.2979978 145.0840014
   7.2879992 138.8379978 144.2560014   7.6014472 138.2770806 144.8424891
   6.1769992 139.3629978 142.4730014   5.6349992 138.9839978 141.7810014
   7.0109992 139.5579978 142.0440014   6.2155159 139.3375076 142.3204419
   5.3439992 135.4639978 146.7280014   5.0269992 134.5609978 146.6930014
   6.1249992 135.4659978 146.1750014   5.4062307 135.3406951 146.6484314
   9.5129992 143.9289978 144.4080014   8.7679992 143.4209978 144.0860014
   9.3779992 143.9779978 145.3550014   9.3929047 143.8661596 144.4918845
  13.4099992 136.7429978 142.6080014  12.4719992 136.8539978 142.4560014
  13.7079992 137.5989978 142.9140014  13.3216402 136.8740621 142.6285571
  14.1289992 138.6099978 144.2680014  15.0209992 138.4719978 144.5870014
  14.1849992 139.4009978 143.7320014  14.2587107 138.6980526 144.2392091
  11.6379992 145.3869978 143.4340014  11.3429992 146.2139978 143.8150014
  10.9349992 144.7679978 143.6300014  11.5025471 145.4165227 143.5126698
  19.0139992 138.8189978 143.9630014  18.4589992 138.4229978 143.2910014
  19.1139992 139.7299978 143.6850014  18.9515888 138.8878990 143.8335206
   2.7669992 141.6039978 142.1700014   3.3829992 142.2309978 142.5490014
   1.9049992 141.9199978 142.4410014   2.7348195 141.7325798 142.2585386
   8.4399992 144.4049978 147.1590014   8.1989992 145.3299978 147.2000014
   7.6989992 143.9459978 147.5550014   8.3068390 144.4696403 147.2181404
  15.5669992 144.2539978 144.4750014  15.2899992 143.5259978 145.0310014
  16.4949992 144.3729978 144.6800014  15.6544499 144.1704213 144.5788044
   4.1819992 143.5159978 143.6620014   3.4959992 143.8689978 144.2290014
   4.7049992 144.2789978 143.4160014   4.1589033 143.6673746 143.7062661
  12.7979992 135.8309978 145.0380014  13.0179992 136.3019978 144.2350014
  13.3569992 136.2249978 145.7080014  12.9036730 135.9487432 145.0185906
   9.9979992 137.5589978 145.8730014  10.8099992 138.0629978 145.9190014
   9.7539992 137.4139978 146.7870014  10.0761467 137.6083749 146.0028575
  10.8819992 134.6399978 146.8110014  10.5349992 135.2569978 147.4560014
  11.5409992 135.1409978 146.3300014  10.9235949 134.7921099 146.8342271
   6.5399992 135.7029978 143.4980014   6.4559992 136.5909978 143.8450014
   7.4299992 135.4379978 143.7300014   6.6488163 135.7887179 143.5768596
   3.1139992 138.7949978 141.6750014   3.0689992 139.7339978 141.8530014
   2.2259992 138.5589978 141.4050014   2.9878555 138.8916874 141.6628939
   6.3889992 144.2829978 140.9250014   6.4539992 143.4889978 141.4560014
   7.0419992 144.1649978 140.2350014   6.4861754 144.1583337 140.9044259
  11.7419992 145.3299978 140.6610014  11.4729992 145.5109978 141.5620014
  11.5349992 144.4049978 140.5300014  11.6772000 145.2296774 140.7665693
   7.5389992 142.2559978 143.2310014   7.0789992 141.7719978 143.9170014
   7.7939992 141.5869978 142.5950014   7.5105038 142.0993689 143.2389447
   8.6099992 140.4989978 141.4930014   8.4289992 140.3439978 140.5660014
   9.5599992 140.6069978 141.5380014   8.7136566 140.4923669 141.3720929
  17.9999992 142.8529978 140.9390014  17.7259992 142.4289978 140.1260014
  18.0389992 143.7849978 140.7220014  17.9677716 142.9208827 140.7984286
  18.4579992 143.7219978 144.9140014  19.3079992 144.1429978 145.0410014
  18.4629992 142.9819978 145.5210014  18.5751143 143.6796094 145.0134750
  18.8519992 141.7759978 146.7380014  18.1259992 141.2959978 147.1350014
  19.4339992 141.9809978 147.4700014  18.8311635 141.7379166 146.8913748
  19.1209992 141.6769978 143.1290014  18.5989992 142.0329978 142.4100014
  19.0879992 142.3519978 143.8070014  19.0450699 141.8169848 143.1222129
  17.4699992 138.9159978 141.6800014  17.5659992 139.5829978 141.0000014
  17.3299992 138.1009978 141.1980014  17.4642063 138.8970667 141.5218377
  16.6389992 140.2969978 147.3010014  16.4889992 139.3519978 147.2800014
  16.2849992 140.5779978 148.1440014  16.5705527 140.2055605 147.4121859
  16.7169992 136.3239978 140.7970014  17.3279992 135.9529978 141.4340014
  15.8799992 135.9029978 140.9930014  16.6874947 136.2162756 140.9107252
  16.3499992 137.8789978 145.7630014  16.6289992 136.9719978 145.8870014
  17.1089992 138.3129978 145.3740014  16.4908619 137.8134502 145.7273795
  16.9629992 135.1419978 145.8110014  17.1449992 134.6929978 146.6370014
  16.3629992 134.5579978 145.3480014  16.9067529 135.0016131 145.8613619
  18.8299992 135.2099978 142.3390014  19.2419992 134.4889978 141.8640014
  19.5109992 135.8789978 142.3980014  18.9785900 135.2017306 142.2819038
   1.1109992 135.2149978 145.4660014   0.1859992 135.4229978 145.3370014
   1.5649992 135.6989978 144.7770014   1.0456374 135.3089949 145.3550957
   2.3869992 133.2579978 143.4450014   2.8259992 133.8689978 142.8530014
   1.7529992 133.7959978 143.9190014   2.3613859 133.4144064 143.4280305
   8.1299992 133.3859978 147.4550014   9.0039992 133.7749978 147.4250014
   7.9939992 133.1709978 148.3770014   8.2313207 133.4101923 147.5756509
  15.0399992 133.4419978 144.7960014  14.3369992 134.0569978 144.5870014
  14.5949992 132.6049978 144.9280014  14.8836292 133.4130085 144.7852439
   4.2479992 135.1739978 141.8870014   4.7389992 134.5439978 141.3600014
   4.8709992 135.4699978 142.5510014   4.3995062 135.1276770 141.9045438
   9.2739992 135.4669978 144.3450014   9.4519992 134.8199978 145.0270014
   9.2199992 136.3009978 144.8120014   9.2911025 135.4910504 144.5016433
  31.4849992 142.6159978 147.6000014  31.5739992 143.5599978 147.4680014
  30.8469992 142.3409978 146.9420014  31.4109062 142.7079812 147.4929641
  20.3199992 139.5949978 146.5400014  19.8719992 140.4409978 146.5210014
  19.7589992 139.0159978 146.0240014  20.1829603 139.6323674 146.4676720
  32.8249992 136.9299978 147.4260014  33.4719992 136.6009978 148.0510014
  33.3349992 137.4469978 146.8030014  32.9824317 136.9549227 147.4272167
  31.2819992 145.2169978 146.6430014  30.9869992 144.8939978 145.7920014
  30.9579992 146.1169978 146.6840014  31.1977983 145.2944027 146.5319771
  21.0109992 145.0279978 144.9560014  20.7389992 145.2569978 144.0670014
  21.0559992 145.8649978 145.4160014  20.9798709 145.1726058 144.8966107
  30.2059992 141.8599978 145.0520014  29.4949992 142.3949978 144.7000014
  30.8969992 141.9149978 144.3920014  30.2020751 141.9406777 144.9145858
  30.2599992 140.3169978 142.0910014  30.9609992 140.3399978 142.7420014
  30.5619992 139.6889978 141.4350014  30.3968282 140.2352339 142.0914496
  33.6119992 142.0689978 146.0040014  32.8799992 142.2979978 146.5770014
  34.0589992 141.3559978 146.4590014  33.5722753 142.0038972 146.1439715
  32.4829992 141.2319978 143.6890014  33.0619992 141.3819978 144.4360014
  32.8969992 141.7019978 142.9660014  32.6183122 141.3161277 143.6935042
  36.1819992 132.9819978 143.5020014  35.2819992 133.1209978 143.7970014
  36.4339992 133.8129978 143.1000014  36.0928683 133.1134055 143.4880232
  24.2479992 141.7689978 145.4760014  23.9559992 142.5369978 144.9850014
  23.5729992 141.1099978 145.3130014  24.1168497 141.7849745 145.3868260
  33.9599992 142.2639978 141.3190014  34.0019992 142.0419978 140.3890014
  34.8089992 142.6629978 141.5090014  34.0805253 142.2875498 141.2173822
  29.5329992 136.1399978 141.9890014  29.2789992 136.1589978 142.9120014
  29.2759992 135.2689978 141.6880014  29.4635133 136.0248110 142.0745082
  25.2959992 139.1119978 147.3360014  24.4039992 138.7719978 147.2780014
  25.7469992 138.7349978 146.5810014  25.2346815 139.0143762 147.2259203
  30.8319992 139.5279978 146.1530014  30.4229992 140.3429978 145.8620014
  31.5519992 139.3879978 145.5390014  30.8734013 139.6206571 146.0300875
  26.4149992 136.5859978 141.0900014  25.9839992 136.1409978 141.8200014
  25.6969992 136.9569978 140.5780014  26.2589363 136.5752968 141.1206211
  20.9319992 137.0739978 143.5660014  21.4059992 137.6649978 142.9810014
  20.2139992 137.6039978 143.9130014  20.8998640 137.2265511 143.5327969
  22.7059992 138.1689978 147.2490014  21.8169992 138.2679978 146.9090014
  23.0029992 137.3269978 146.9030014  22.6244177 138.0687687 147.1556940
  26.3589992 138.1689978 144.9060014  27.2909992 138.2979978 145.0840014
  26.1439992 138.8379978 144.2560014  26.4574472 138.2770806 144.8424891
  25.0329992 139.3629978 142.4730014  24.4909992 138.9839978 141.7810014
  25.8669992 139.5579978 142.0440014  25.0715159 139.3375076 142.3204419
  24.1999992 135.4639978 146.7280014  23.8829992 134.5609978 146.6930014
  24.9809992 135.4659978 146.1750014  24.2622307 135.3406951 146.6484314
  28.3689992 143.9289978 144.4080014  27.6239992 143.4209978 144.0860014
  28.2339992 143.9779978 145.3550014  28.2489047 143.8661596 144.4918845
  32.2659992 136.7429978 142.6080014  31.3279992 136.8539978 142.4560014
  32.5639992 137.5989978 142.9140014  32.1776402 136.8740621 142.6285571
  32.9849992 138.6099978 144.2680014  33.8769992 138.4719978 144.5870014
  33.0409992 139.4009978 143.7320014  33.1147107 138.6980526 144.2392091
  30.4939992 145.3869978 143.4340014  30.1989992 146.2139978 143.8150014
  29.7909992 144.7679978 143.6300014  30.3585471 145.4165227 143.5126698
  37.8699992 138.8189978 143.9630014  37.3149992 138.4229978 143.2910014
  37.9699992 139.7299978 143.6850014  37.8075888 138.8878990 143.8335206
  21.6229992 141.6039978 142.1700014  22.2389992 142.2309978 142.5490014
  20.7609992 141.9199978 142.4410014  21.5908195 141.7325798 142.2585386
  27.2959992 144.4049978 147.1590014  27.0549992 145.3299978 147.2000014
  26.5549992 143.9459978 147.5550014  27.1628390 144.4696403 147.2181404
  34.4229992 144.2539978 144.4750014  34.1459992 143.5259978 145.0310014
  35.3509992 144.3729978 144.6800014  34.5104499 144.1704213 144.5788044
  23.0379992 143.5159978 143.6620014  22.3519992 143.8689978 144.2290014
  23.5609992 144.2789978 143.4160014  23.0149033 143.6673746 143.7062661
  31.6539992 135.8309978 145.0380014  31.8739992 136.3019978 144.2350014
  32.2129992 136.2249978 145.7080014  31.7596730 135.9487432 145.0185906
  28.8539992 137.5589978 145.8730014  29.6659992 138.0629978 145.9190014
  28.6099992 137.4139978 146.7870014  28.9321467 137.6083749 146.0028575
  29.7379992 134.6399978 146.8110014  29.3909992 135.2569978 147.4560014
  30.3969992 135.1409978 146.3300014  29.7795949 134.7921099 146.8342271
  25.3959992 135.7029978 143.4980014  25.3119992 136.5909978 143.8450014
  26.2859992 135.4379978 143.7300014  25.5048163 135.7887179 143.5768596
  21.9699992 138.7949978 141.6750014  21.9249992 139.7339978 141.8530014
  21.0819992 138.5589978 141.4050014  21.8438555 138.8916874 141.6628939
  25.2449992 144.2829978 140.9250014  25.3099992 143.4889978 141.4560014
  25.8979992 144.1649978 140.2350014  25.3421754 144.1583337 140.9044259
  30.5979992 145.3299978 140.6610014  30.3289992 145.5109978 141.5620014
  30.3909992 144.4049978 140.5300014  30.5332000 145.2296774 140.7665693
  26.3949992 142.2559978 143.2310014  25.9349992 141.7719978 143.9170014
  26.6499992 141.5869978 142.5950014  26.3665038 142.0993689 143.2389447
  27.4659992 140.4989978 141.4930014  27.2849992 140.3439978 140.5660014
  28.4159992 140.6069978 141.5380014  27.5696566 140.4923669 141.3720929
  36.8559992 142.8529978 140.9390014  36.5819992 142.4289978 140.1260014
  36.8949992 143.7849978 140.7220014  36.8237716 142.9208827 140.7984286
  37.3139992 143.7219978 144.9140014  38.1639992 144.1429978 145.0410014
  37.3189992 142.9819978 145.5210014  37.4311143 143.6796094 145.0134750
  37.7079992 141.7759978 146.7380014  36.9819992 141.2959978 147.1350014
  38.2899992 141.9809978 147.4700014  37.6871635 141.7379166 146.8913748
  37.9769992 141.6769978 143.1290014  37.4549992 142.0329978 142.4100014
  37.9439992 142.3519978 143.8070014  37.9010699 141.8169848 143.1222129
  36.3259992 138.9159978 141.6800014  36.4219992 139.5829978 141.0000014
  36.1859992 138.1009978 141.1980014  36.3202063 138.8970667 141.5218377
  35.4949992 140.2969978 147.3010014  35.3449992 139.3519978 147.2800014
  35.1409992 140.5779978 148.1440014  35.4265527 140.2055605 147.4121859
  35.5729992 136.3239978 140.7970014  36.1839992 135.9529978 141.4340014
  34.7359992 135.9029978 140.9930014  35.5434947 136.2162756 140.9107252
  35.2059992 137.8789978 145.7630014  35.4849992 136.9719978 145.8870014
  35.9649992 138.3129978 145.3740014  35.3468619 137.8134502 145.7273795
  35.8189992 135.1419978 145.8110014  36.0009992 134.6929978 146.6370014
  35.2189992 134.5579978 145.3480014  35.7627529 135.0016131 145.8613619
  37.6859992 135.2099978 142.3390014  38.0979992 134.4889978 141.8640014
  38.3669992 135.8789978 142.3980014  37.8345900 135.2017306 142.2819038
  19.9669992 135.2149978 145.4660014  19.0419992 135.4229978 145.3370014
  20.4209992 135.6989978 144.7770014  19.9016374 135.3089949 145.3550957
  21.2429992 133.2579978 143.4450014  21.6819992 133.8689978 142.8530014
  20.6089992 133.7959978 143.9190014  21.2173859 133.4144064 143.4280305
  26.9859992 133.3859978 147.4550014  27.8599992 133.7749978 147.4250014
  26.8499992 133.1709978 148.3770014  27.0873207 133.4101923 147.5756509
  33.8959992 133.4419978 144.7960014  33.1929992 134.0569978 144.5870014
  33.4509992 132.6049978 144.9280014  33.7396292 133.4130085 144.7852439
  23.1039992 135.1739978 141.8870014  23.5949992 134.5439978 141.3600014
  23.7269992 135.4699978 142.5510014  23.2555062 135.1276770 141.9045438
  28.1299992 135.4669978 144.3450014  28.3079992 134.8199978 145.0270014
  28.0759992 136.3009978 144.8120014  28.1471025 135.4910504 144.5016433
  50.3409992 142.6159978 147.6000014  50.4299992 143.5599978 147.4680014
  49.7029992 142.3409978 146.9420014  50.2669062 142.7079812 147.4929641
  39.1759992 139.5949978 146.5400014  38.7279992 140.4409978 146.5210014
  38.6149992 139.0159978 146.0240014  39.0389603 139.6323674 146.4676720
  51.6809992 136.9299978 147.4260014  52.3279992 136.6009978 148.0510014
  52.1909992 137.4469978 146.8030014  51.8384317 136.9549227 147.4272167
  50.1379992 145.2169978 146.6430014  49.8429992 144.8939978 145.7920014
  49.8139992 146.1169978 146.6840014  50.0537983 145.2944026 146.5319771
  39.8669992 145.0279978 144.9560014  39.5949992 145.2569978 144.0670014
  39.9119992 145.8649978 145.4160014  39.8358709 145.1726058 144.8966107
  49.0619992 141.8599978 145.0520014  48.3509992 142.3949978 144.7000014
  49.7529992 141.9149978 144.3920014  49.0580751 141.9406777 144.9145858
  49.1159992 140.3169978 142.0910014  49.8169992 140.3399978 142.7420014
  49.4179992 139.6889978 141.4350014  49.2528282 140.2352339 142.0914496
  52.4679992 142.0689978 146.0040014  51.7359992 142.2979978 146.5770014
  52.9149992 141.3559978 146.4590014  52.4282753 142.0038972 146.1439715
  51.3389992 141.2319978 143.6890014  51.9179992 141.3819978 144.4360014
  51.7529992 141.7019978 142.9660014  51.4743122 141.3161277 143.6935042
  55.0379992 132.9819978 143.5020014  54.1379992 133.1209978 143.7970014
  55.2899992 133.8129978 143.1000014  54.9488683 133.1134055 143.4880232
  43.1039992 141.7689978 145.4760014  42.8119992 142.5369978 144.9850014
  42.4289992 141.1099978 145.3130014  42.9728497 141.7849745 145.3868260
  52.8159992 142.2639978 141.3190014  52.8579992 142.0419978 140.3890014
  53.6649992 142.6629978 141.5090014  52.9365253 142.2875498 141.2173822
  48.3889992 136.1399978 141.9890014  48.1349992 136.1589978 142.9120014
  48.1319992 135.2689978 141.6880014  48.3195133 136.0248110 142.0745082
  44.1519992 139.1119978 147.3360014  43.2599992 138.7719978 147.2780014
  44.6029992 138.7349978 146.5810014  44.0906815 139.0143762 147.2259203
  49.6879992 139.5279978 146.1530014  49.2789992 140.3429978 145.8620014
  50.4079992 139.3879978 145.5390014  49.7294013 139.6206571 146.0300875
  45.2709992 136.5859978 141.0900014  44.8399992 136.1409978 141.8200014
  44.5529992 136.9569978 140.5780014  45.1149363 136.5752968 141.1206211
  39.7879992 137.0739978 143.5660014  40.2619992 137.6649978 142.9810014
  39.0699992 137.6039978 143.9130014  39.7558640 137.2265511 143.5327969
  41.5619992 138.1689978 147.2490014  40.6729992 138.2679978 146.9090014
  41.8589992 137.3269978 146.9030014  41.4804177 138.0687687 147.1556940
  45.2149992 138.1689978 144.9060014  46.1469992 138.2979978 145.0840014
  44.9999992 138.8379978 144.2560014  45.3134472 138.2770806 144.8424891
  43.8889992 139.3629978 142.4730014  43.3469992 138.9839978 141.7810014
  44.7229992 139.5579978 142.0440014  43.9275159 139.3375076 142.3204419
  43.0559992 135.4639978 146.7280014  42.7389992 134.5609978 146.6930014
  43.8369992 135.4659978 146.1750014  43.1182307 135.3406951 146.6484314
  47.2249992 143.9289978 144.4080014  46.4799992 143.4209978 144.0860014
  47.0899992 143.9779978 145.3550014  47.1049047 143.8661596 144.4918845
  51.1219992 136.7429978 142.6080014  50.1839992 136.8539978 142.4560014
  51.4199992 137.5989978 142.9140014  51.0336402 136.8740621 142.6285571
  51.8409992 138.6099978 144.2680014  52.7329992 138.4719978 144.5870014
  51.8969992 139.4009978 143.7320014  51.9707107 138.6980526 144.2392091
  49.3499992 145.3869978 143.4340014  49.0549992 146.2139978 143.8150014
  48.6469992 144.7679978 143.6300014  49.2145471 145.4165227 143.5126698
  56.7259992 138.8189978 143.9630014  56.1709992 138.4229978 143.2910014
  56.8259992 139.7299978 143.6850014  56.6635888 138.8878990 143.8335206
  40.4789992 141.6039978 142.1700014  41.0949992 142.2309978 142.5490014
  39.6169992 141.9199978 142.4410014  40.4468195 141.7325798 142.2585386
  46.1519992 144.4049978 147.1590014  45.9109992 145.3299978 147.2000014
  45.4109992 143.9459978 147.5550014  46.0188390 144.4696403 147.2181404
  53.2789992 144.2539978 144.4750014  53.0019992 143.5259978 145.0310014
  54.2069992 144.3729978 144.6800014  53.3664499 144.1704213 144.5788044
  41.8939992 143.5159978 143.6620014  41.2079992 143.8689978 144.2290014
  42.4169992 144.2789978 143.4160014  41.8709033 143.6673746 143.7062661
  50.5099992 135.8309978 145.0380014  50.7299992 136.3019978 144.2350014
  51.0689992 136.2249978 145.7080014  50.6156730 135.9487432 145.0185906
  47.7099992 137.5589978 145.8730014  48.5219992 138.0629978 145.9190014
  47.4659992 137.4139978 146.7870014  47.7881467 137.6083749 146.0028575
  48.5939992 134.6399978 146.8110014  48.2469992 135.2569978 147.4560014
  49.2529992 135.1409978 146.3300014  48.6355949 134.7921099 146.8342271
  44.2519992 135.7029978 143.4980014  44.1679992 136.5909978 143.8450014
  45.1419992 135.4379978 143.7300014  44.3608163 135.7887179 143.5768596
  40.8259992 138.7949978 141.6750014  40.7809992 139.7339978 141.8530014
  39.9379992 138.5589978 141.4050014  40.6998555 138.8916874 141.6628939
  44.1009992 144.2829978 140.9250014  44.1659992 143.4889978 141.4560014
  44.7539992 144.1649978 140.2350014  44.1981754 144.1583337 140.9044259
  49.4539992 145.3299978 140.6610014  49.1849992 145.5109978 141.5620014
  49.2469992 144.4049978 140.5300014  49.3892000 145.2296774 140.7665693
  45.2509992 142.2559978 143.2310014  44.7909992 141.7719978 143.9170014
  45.5059992 141.5869978 142.5950014  45.2225038 142.0993689 143.2389447
  46.3219992 140.4989978 141.4930014  46.1409992 140.3439978 140.5660014
  47.2719992 140.6069978 141.5380014  46.4256566 140.4923669 141.3720929
  55.7119992 142.8529978 140.9390014  55.4379992 142.4289978 140.1260014
  55.7509992 143.7849978 140.7220014  55.6797716 142.9208827 140.7984286
  56.1699992 143.7219978 144.9140014  57.0199992 144.1429978 145.0410014
  56.1749992 142.9819978 145.5210014  56.2871143 143.6796094 145.0134750
  56.5639992 141.7759978 146.7380014  55.8379992 141.2959978 147.1350014
  57.1459992 141.9809978 147.4700014  56.5431635 141.7379166 146.8913748
  56.8329992 141.6769978 143.1290014  56.3109992 142.0329978 142.4100014
  56.7999992 142.3519978 143.8070014  56.7570699 141.8169848 143.1222129
  55.1819992 138.9159978 141.6800014  55.2779992 139.5829978 141.0000014
  55.0419992 138.1009978 141.1980014  55.1762063 138.8970667 141.5218377
  54.3509992 140.2969978 147.3010014  54.2009992 139.3519978 147.2800014
  53.9969992 140.5779978 148.1440014  54.2825527 140.2055605 147.4121859
  54.4289992 136.3239978 140.7970014  55.0399992 135.9529978 141.4340014
  53.5919992 135.9029978 140.9930014  54.3994947 136.2162756 140.9107252
  54.0619992 137.8789978 145.7630014  54.3409992 136.9719978 145.8870014
  54.8209992 138.3129978 145.3740014  54.2028619 137.8134502 145.7273795
  54.6749992 135.1419978 145.8110014  54.8569992 134.6929978 146.6370014
  54.0749992 134.5579978 145.3480014  54.6187529 135.0016131 145.8613619
  56.5419992 135.2099978 142.3390014  56.9539992 134.4889978 141.8640014
  57.2229992 135.8789978 142.3980014  56.6905900 135.2017306 142.2819038
  38.8229992 135.2149978 145.4660014  37.8979992 135.4229978 145.3370014
  39.2769992 135.6989978 144.7770014  38.7576374 135.3089949 145.3550957
  40.0989992 133.2579978 143.4450014  40.5379992 133.8689978 142.8530014
  39.4649992 133.7959978 143.9190014  40.0733859 133.4144064 143.4280305
  45.8419992 133.3859978 147.4550014  46.7159992 133.7749978 147.4250014
  45.7059992 133.1709978 148.3770014  45.9433207 133.4101923 147.5756509
  52.7519992 133.4419978 144.7960014  52.0489992 134.0569978 144.5870014
  52.3069992 132.6049978 144.9280014  52.5956292 133.4130085 144.7852439
  41.9599992 135.1739978 141.8870014  42.4509992 134.5439978 141.3600014
  42.5829992 135.4699978 142.5510014  42.1115062 135.1276770 141.9045438
  46.9859992 135.4669978 144.3450014  47.1639992 134.8199978 145.0270014
  46.9319992 136.3009978 144.8120014  47.0031025 135.4910504 144.5016433
  69.1969992 142.6159978 147.6000014  69.2859992 143.5599978 147.4680014
  68.5589992 142.3409978 146.9420014  69.1229062 142.7079812 147.4929641
  58.0319992 139.5949978 146.5400014  57.5839992 140.4409978 146.5210014
  57.4709992 139.0159978 146.0240014  57.8949603 139.6323674 146.4676720
  70.5369992 136.9299978 147.4260014  71.1839992 136.6009978 148.0510014
  71.0469992 137.4469978 146.8030014  70.6944317 136.9549227 147.4272167
  68.9939992 145.2169978 146.6430014  68.6989992 144.8939978 145.7920014
  68.6699992 146.1169978 146.6840014  68.9097983 145.2944027 146.5319771
  58.7229992 145.0279978 144.9560014  58.4509992 145.2569978 144.0670014
  58.7679992 145.8649978 145.4160014  58.6918709 145.1726058 144.8966107
  67.9179992 141.8599978 145.0520014  67.2069992 142.3949978 144.7000014
  68.6089992 141.9149978 144.3920014  67.9140751 141.9406777 144.9145858
  67.9719992 140.3169978 142.0910014  68.6729992 140.3399978 142.7420014
  68.2739992 139.6889978 141.4350014  68.1088282 140.2352339 142.0914496
  71.3239992 142.0689978 146.0040014  70.5919992 142.2979978 146.5770014
  71.7709992 141.3559978 146.4590014  71.2842753 142.0038972 146.1439715
  70.1949992 141.2319978 143.6890014  70.7739992 141.3819978 144.4360014
  70.6089992 141.7019978 142.9660014  70.3303122 141.3161277 143.6935042
  73.8939992 132.9819978 143.5020014  72.9939992 133.1209978 143.7970014
  74.1459992 133.8129978 143.1000014  73.8048683 133.1134055 143.4880232
  61.9599992 141.7689978 145.4760014  61.6679992 142.5369978 144.9850014
  61.2849992 141.1099978 145.3130014  61.8288497 141.7849745 145.3868260
  71.6719992 142.2639978 141.3190014  71.7139992 142.0419978 140.3890014
  72.5209992 142.6629978 141.5090014  71.7925253 142.2875498 141.2173822
  67.2449992 136.1399978 141.9890014  66.9909992 136.1589978 142.9120014
  66.9879992 135.2689978 141.6880014  67.1755133 136.0248110 142.0745082
  63.0079992 139.1119978 147.3360014  62.1159992 138.7719978 147.2780014
  63.4589992 138.7349978 146.5810014  62.9466815 139.0143762 147.2259203
  68.5439992 139.5279978 146.1530014  68.1349992 140.3429978 145.8620014
  69.2639992 139.3879978 145.5390014  68.5854013 139.6206571 146.0300875
  64.1269992 136.5859978 141.0900014  63.6959992 136.1409978 141.8200014
  63.4089992 136.9569978 140.5780014  63.9709363 136.5752968 141.1206211
  58.6439992 137.0739978 143.5660014  59.1179992 137.6649978 142.9810014
  57.9259992 137.6039978 143.9130014  58.6118640 137.2265511 143.5327969
  60.4179992 138.1689978 147.2490014  59.5289992 138.2679978 146.9090014
  60.7149992 137.3269978 146.9030014  60.3364177 138.0687687 147.1556940
  64.0709992 138.1689978 144.9060014  65.0029992 138.2979978 145.0840014
  63.8559992 138.8379978 144.2560014  64.1694472 138.2770806 144.8424891
  62.7449992 139.3629978 142.4730014  62.2029992 138.9839978 141.7810014
  63.5789992 139.5579978 142.0440014  62.7835159 139.3375076 142.3204419
  61.9119992 135.4639978 146.7280014  61.5949992 134.5609978 146.6930014
  62.6929992 135.4659978 146.1750014  61.9742307 135.3406951 146.6484314
  66.0809992 143.9289978 144.4080014  65.3359992 143.4209978 144.0860014
  65.9459992 143.9779978 145.3550014  65.9609047 143.8661596 144.4918845
  69.9779992 136.7429978 142.6080014  69.0399992 136.8539978 142.4560014
  70.2759992 137.5989978 142.9140014  69.8896402 136.8740621 142.6285571
  70.6969992 138.6099978 144.2680014  71.5889992 138.4719978 144.5870014
  70.7529992 139.4009978 143.7320014  70.8267107 138.6980526 144.2392091
  68.2059992 145.3869978 143.4340014  67.9109992 146.2139978 143.8150014
  67.5029992 144.7679978 143.6300014  68.0705471 145.4165227 143.5126698
  75.5819992 138.8189978 143.9630014  75.0269992 138.4229978 143.2910014
  75.6819992 139.7299978 143.6850014  75.5195888 138.8878990 143.8335206
  59.3349992 141.6039978 142.1700014  59.9509992 142.2309978 142.5490014
  58.4729992 141.9199978 142.4410014  59.3028195 141.7325798 142.2585386
  65.0079992 144.4049978 147.1590014  64.7669992 145.3299978 147.2000014
  64.2669992 143.9459978 147.5550014  64.8748390 144.4696403 147.2181404
  72.1349992 144.2539978 144.4750014  71.8579992 143.5259978 145.0310014
  73.0629992 144.3729978 144.6800014  72.2224499 144.1704213 144.5788044
  60.7499992 143.5159978 143.6620014  60.0639992 143.8689978 144.2290014
  61.2729992 144.2789978 143.4160014  60.7269033 143.6673746 143.7062661
  69.3659992 135.8309978 145.0380014  69.5859992 136.3019978 144.2350014
  69.9249992 136.2249978 145.7080014  69.4716730 135.9487432 145.0185906
  66.5659992 137.5589978 145.8730014  67.3779992 138.0629978 145.9190014
  66.3219992 137.4139978 146.7870014  66.6441467 137.6083749 146.0028575
  67.4499992 134.6399978 146.8110014  67.1029992 135.2569978 147.4560014
  68.1089992 135.1409978 146.3300014  67.4915949 134.7921099 146.8342271
  63.1079992 135.7029978 143.4980014  63.0239992 136.5909978 143.8450014
  63.9979992 135.4379978 143.7300014  63.2168163 135.7887179 143.5768596
  59.6819992 138.7949978 141.6750014  59.6369992 139.7339978 141.8530014
  58.7939992 138.5589978 141.4050014  59.5558555 138.8916874 141.6628939
  62.9569992 144.2829978 140.9250014  63.0219992 143.4889978 141.4560014
  63.6099992 144.1649978 140.2350014  63.0541754 144.1583337 140.9044259
  68.3099992 145.3299978 140.6610014  68.0409992 145.5109978 141.5620014
  68.1029992 144.4049978 140.5300014  68.2452000 145.2296774 140.7665693
  64.1069992 142.2559978 143.2310014  63.6469992 141.7719978 143.9170014
  64.3619992 141.5869978 142.5950014  64.0785038 142.0993689 143.2389447
  65.1779992 140.4989978 141.4930014  64.9969992 140.3439978 140.5660014
  66.1279992 140.6069978 141.5380014  65.2816566 140.4923669 141.3720929
  74.5679992 142.8529978 140.9390014  74.2939992 142.4289978 140.1260014
  74.6069992 143.7849978 140.7220014  74.5357716 142.9208827 140.7984286
  75.0259992 143.7219978 144.9140014  75.8759992 144.1429978 145.0410014
  75.0309992 142.9819978 145.5210014  75.1431143 143.6796094 145.0134750
  75.4199992 141.7759978 146.7380014  74.6939992 141.2959978 147.1350014
  76.0019992 141.9809978 147.4700014  75.3991635 141.7379166 146.8913748
  75.6889992 141.6769978 143.1290014  75.1669992 142.0329978 142.4100014
  75.6559992 142.3519978 143.8070014  75.6130699 141.8169848 143.1222129
  74.0379992 138.9159978 141.6800014  74.1339992 139.5829978 141.0000014
  73.8979992 138.1009978 141.1980014  74.0322063 138.8970667 141.5218377
  73.2069992 140.2969978 147.3010014  73.0569992 139.3519978 147.2800014
  72.8529992 140.5779978 148.1440014  73.1385527 140.2055605 147.4121859
  73.2849992 136.3239978 140.7970014  73.8959992 135.9529978 141.4340014
  72.4479992 135.9029978 140.9930014  73.2554947 136.2162756 140.9107252
  72.9179992 137.8789978 145.7630014  73.1969992 136.9719978 145.8870014
  73.6769992 138.3129978 145.3740014  73.0588619 137.8134502 145.7273795
  73.5309992 135.1419978 145.8110014  73.7129992 134.6929978 146.6370014
  72.9309992 134.5579978 145.3480014  73.4747529 135.0016131 145.8613619
  75.3979992 135.2099978 142.3390014  75.8099992 134.4889978 141.8640014
  76.0789992 135.8789978 142.3980014  75.5465900 135.2017306 142.2819038
  57.6789992 135.2149978 145.4660014  56.7539992 135.4229978 145.3370014
  58.1329992 135.6989978 144.7770014  57.6136374 135.3089949 145.3550957
  58.9549992 133.2579978 143.4450014  59.3939992 133.8689978 142.8530014
  58.3209992 133.7959978 143.9190014  58.9293859 133.4144064 143.4280305
  64.6979992 133.3859978 147.4550014  65.5719992 133.7749978 147.4250014
  64.5619992 133.1709978 148.3770014  64.7993207 133.4101923 147.5756509
  71.6079992 133.4419978 144.7960014  70.9049992 134.0569978 144.5870014
  71.1629992 132.6049978 144.9280014  71.4516292 133.4130085 144.7852439
  60.8159992 135.1739978 141.8870014  61.3069992 134.5439978 141.3600014
  61.4389992 135.4699978 142.5510014  60.9675062 135.1276770 141.9045438
  65.8419992 135.4669978 144.3450014  66.0199992 134.8199978 145.0270014
  65.7879992 136.3009978 144.8120014  65.8591025 135.4910504 144.5016433
  88.0529992 142.6159978 147.6000014  88.1419992 143.5599978 147.4680014
  87.4149992 142.3409978 146.9420014  87.9789062 142.7079812 147.4929641
  76.8879992 139.5949978 146.5400014  76.4399992 140.4409978 146.5210014
  76.3269992 139.0159978 146.0240014  76.7509603 139.6323674 146.4676720
  89.3929992 136.9299978 147.4260014  90.0399992 136.6009978 148.0510014
  89.9029992 137.4469978 146.8030014  89.5504317 136.9549227 147.4272167
  87.8499992 145.2169978 146.6430014  87.5549992 144.8939978 145.7920014
  87.5259992 146.1169978 146.6840014  87.7657983 145.2944027 146.5319771
  77.5789992 145.0279978 144.9560014  77.3069992 145.2569978 144.0670014
  77.6239992 145.8649978 145.4160014  77.5478709 145.1726058 144.8966107
  86.7739992 141.8599978 145.0520014  86.0629992 142.3949978 144.7000014
  87.4649992 141.9149978 144.3920014  86.7700751 141.9406777 144.9145858
  86.8279992 140.3169978 142.0910014  87.5289992 140.3399978 142.7420014
  87.1299992 139.6889978 141.4350014  86.9648282 140.2352339 142.0914496
  90.1799992 142.0689978 146.0040014  89.4479992 142.2979978 146.5770014
  90.6269992 141.3559978 146.4590014  90.1402753 142.0038972 146.1439715
  89.0509992 141.2319978 143.6890014  89.6299992 141.3819978 144.4360014
  89.4649992 141.7019978 142.9660014  89.1863122 141.3161277 143.6935042
  92.7499992 132.9819978 143.5020014  91.8499992 133.1209978 143.7970014
  93.0019992 133.8129978 143.1000014  92.6608683 133.1134055 143.4880232
  80.8159992 141.7689978 145.4760014  80.5239992 142.5369978 144.9850014
  80.1409992 141.1099978 145.3130014  80.6848497 141.7849745 145.3868260
  90.5279992 142.2639978 141.3190014  90.5699992 142.0419978 140.3890014
  91.3769992 142.6629978 141.5090014  90.6485253 142.2875498 141.2173822
  86.1009992 136.1399978 141.9890014  85.8469992 136.1589978 142.9120014
  85.8439992 135.2689978 141.6880014  86.0315133 136.0248110 142.0745082
  81.8639992 139.1119978 147.3360014  80.9719992 138.7719978 147.2780014
  82.3149992 138.7349978 146.5810014  81.8026815 139.0143762 147.2259203
  87.3999992 139.5279978 146.1530014  86.9909992 140.3429978 145.8620014
  88.1199992 139.3879978 145.5390014  87.4414013 139.6206571 146.0300875
  82.9829992 136.5859978 141.0900014  82.5519992 136.1409978 141.8200014
  82.2649992 136.9569978 140.5780014  82.8269363 136.5752968 141.1206211
  77.4999992 137.0739978 143.5660014  77.9739992 137.6649978 142.9810014
  76.7819992 137.6039978 143.9130014  77.4678640 137.2265511 143.5327969
  79.2739992 138.1689978 147.2490014  78.3849992 138.2679978 146.9090014
  79.5709992 137.3269978 146.9030014  79.1924177 138.0687687 147.1556940
  82.9269992 138.1689978 144.9060014  83.8589992 138.2979978 145.0840014
  82.7119992 138.8379978 144.2560014  83.0254472 138.2770806 144.8424891
  81.6009992 139.3629978 142.4730014  81.0589992 138.9839978 141.7810014
  82.4349992 139.5579978 142.0440014  81.6395159 139.3375076 142.3204419
  80.7679992 135.4639978 146.7280014  80.4509992 134.5609978 146.6930014
  81.5489992 135.4659978 146.1750014  80.8302307 135.3406951 146.6484314
  84.9369992 143.9289978 144.4080014  84.1919992 143.4209978 144.0860014
  84.8019992 143.9779978 145.3550014  84.8169047 143.8661596 144.4918845
  88.8339992 136.7429978 142.6080014  87.8959992 136.8539978 142.4560014
  89.1319992 137.5989978 142.9140014  88.7456402 136.8740621 142.6285571
  89.5529992 138.6099978 144.2680014  90.4449992 138.4719978 144.5870014
  89.6089992 139.4009978 143.7320014  89.6827107 138.6980526 144.2392091
  87.0619992 145.3869978 143.4340014  86.7669992 146.2139978 143.8150014
  86.3589992 144.7679978 143.6300014  86.9265471 145.4165227 143.5126698
  94.4379992 138.8189978 143.9630014  93.8829992 138.4229978 143.2910014
  94.5379992 139.7299978 143.6850014  94.3755888 138.8878990 143.8335206
  78.1909992 141.6039978 142.1700014  78.8069992 142.2309978 142.5490014
  77.3289992 141.9199978 142.4410014  78.1588195 141.7325798 142.2585386
  83.8639992 144.4049978 147.1590014  83.6229992 145.3299978 147.2000014
  83.1229992 143.9459978 147.5550014  83.7308390 144.4696403 147.2181404
  90.9909992 144.2539978 144.4750014  90.7139992 143.5259978 145.0310014
  91.9189992 144.3729978 144.6800014  91.0784499 144.1704213 144.5788044
  79.6059992 143.5159978 143.6620014  78.9199992 143.8689978 144.2290014
  80.1289992 144.2789978 143.4160014  79.5829033 143.6673746 143.7062661
  88.2219992 135.8309978 145.0380014  88.4419992 136.3019978 144.2350014
  88.7809992 136.2249978 145.7080014  88.3276730 135.9487432 145.0185906
  85.4219992 137.5589978 145.8730014  86.2339992 138.0629978 145.9190014
  85.1779992 137.4139978 146.7870014  85.5001467 137.6083749 146.0028575
  86.3059992 134.6399978 146.8110014  85.9589992 135.2569978 147.4560014
  86.9649992 135.1409978 146.3300014  86.3475950 134.7921099 146.8342271
  81.9639992 135.7029978 143.4980014  81.8799992 136.5909978 143.8450014
  82.8539992 135.4379978 143.7300014  82.0728163 135.7887179 143.5768596
  78.5379992 138.7949978 141.6750014  78.4929992 139.7339978 141.8530014
  77.6499992 138.5589978 141.4050014  78.4118555 138.8916874 141.6628939
  81.8129992 144.2829978 140.9250014  81.8779992 143.4889978 141.4560014
  82.4659992 144.1649978 140.2350014  81.9101754 144.1583337 140.9044259
  87.1659992 145.3299978 140.6610014  86.8969992 145.5109978 141.5620014
  86.9589992 144.4049978 140.5300014  87.1012000 145.2296774 140.7665693
  82.9629992 142.2559978 143.2310014  82.5029992 141.7719978 143.9170014
  83.2179992 141.5869978 142.5950014  82.9345038 142.0993689 143.2389447
  84.0339992 140.4989978 141.4930014  83.8529992 140.3439978 140.5660014
  84.9839992 140.6069978 141.5380014  84.1376566 140.4923669 141.3720929
  93.4239992 142.8529978 140.9390014  93.1499992 142.4289978 140.1260014
  93.4629992 143.7849978 140.7220014  93.3917716 142.9208827 140.7984286
  93.8819992 143.7219978 144.9140014  94.7319992 144.1429978 145.0410014
  93.8869992 142.9819978 145.5210014  93.9991143 143.6796094 145.0134750
  94.2759992 141.7759978 146.7380014  93.5499992 141.2959978 147.1350014
  94.8579992 141.9809978 147.4700014  94.2551635 141.7379166 146.8913748
  94.5449992 141.6769978 143.1290014  94.0229992 142.0329978 142.4100014
  94.5119992 142.3519978 143.8070014  94.4690699 141.8169848 143.1222129
  92.8939992 138.9159978 141.6800014  92.9899992 139.5829978 141.0000014
  92.7539992 138.1009978 141.1980014  92.8882063 138.8970667 141.5218377
  92.0629992 140.2969978 147.3010014  91.9129992 139.3519978 147.2800014
  91.7089992 140.5779978 148.1440014  91.9945527 140.2055605 147.4121859
  92.1409992 136.3239978 140.7970014  92.7519992 135.9529978 141.4340014
  91.3039992 135.9029978 140.9930014  92.1114947 136.2162756 140.9107252
  91.7739992 137.8789978 145.7630014  92.0529992 136.9719978 145.8870014
  92.5329992 138.3129978 145.3740014  91.9148619 137.8134502 145.7273795
  92.3869992 135.1419978 145.8110014  92.5689992 134.6929978 146.6370014
  91.7869992 134.5579978 145.3480014  92.3307529 135.0016131 145.8613619
  94.2539992 135.2099978 142.3390014  94.6659992 134.4889978 141.8640014
  94.9349992 135.8789978 142.3980014  94.4025900 135.2017306 142.2819038
  76.5349992 135.2149978 145.4660014  75.6099992 135.4229978 145.3370014
  76.9889992 135.6989978 144.7770014  76.4696374 135.3089949 145.3550957
  77.8109992 133.2579978 143.4450014  78.2499992 133.8689978 142.8530014
  77.1769992 133.7959978 143.9190014  77.7853859 133.4144064 143.4280305
  83.5539992 133.3859978 147.4550014  84.4279992 133.7749978 147.4250014
  83.4179992 133.1709978 148.3770014  83.6553207 133.4101923 147.5756509
  90.4639992 133.4419978 144.7960014  89.7609992 134.0569978 144.5870014
  90.0189992 132.6049978 144.9280014  90.3076292 133.4130085 144.7852439
  79.6719992 135.1739978 141.8870014  80.1629992 134.5439978 141.3600014
  80.2949992 135.4699978 142.5510014  79.8235062 135.1276770 141.9045438
  84.6979992 135.4669978 144.3450014  84.8759992 134.8199978 145.0270014
  84.6439992 136.3009978 144.8120014  84.7151025 135.4910504 144.5016433
 106.9089992 142.6159978 147.6000014 106.9979992 143.5599978 147.4680014
 106.2709992 142.3409978 146.9420014 106.8349062 142.7079812 147.4929641
  95.7439992 139.5949978 146.5400014  95.2959992 140.4409978 146.5210014
  95.1829992 139.0159978 146.0240014  95.6069603 139.6323674 146.4676720
 108.2489992 136.9299978 147.4260014 108.8959992 136.6009978 148.0510014
 108.7589992 137.4469978 146.8030014 108.4064317 136.9549227 147.4272167
 106.7059992 145.2169978 146.6430014 106.4109992 144.8939978 145.7920014
 106.3819992 146.1169978 146.6840014 106.6217983 145.2944027 146.5319771
  96.4349992 145.0279978 144.9560014  96.1629992 145.2569978 144.0670014
  96.4799992 145.8649978 145.4160014  96.4038709 145.1726058 144.8966107
 105.6299992 141.8599978 145.0520014 104.9189992 142.3949978 144.7000014
 106.3209992 141.9149978 144.3920014 105.6260751 141.9406777 144.9145858
 105.6839992 140.3169978 142.0910014 106.3849992 140.3399978 142.7420014
 105.9859992 139.6889978 141.4350014 105.8208282 140.2352339 142.0914496
 109.0359992 142.0689978 146.0040014 108.3039992 142.2979978 146.5770014
 109.4829992 141.3559978 146.4590014 108.9962753 142.0038972 146.1439715
 107.9069992 141.2319978 143.6890014 108.4859992 141.3819978 144.4360014
 108.3209992 141.7019978 142.9660014 108.0423122 141.3161277 143.6935042
 111.6059992 132.9819978 143.5020014 110.7059992 133.1209978 143.7970014
 111.8579992 133.8129978 143.1000014 111.5168683 133.1134055 143.4880232
  99.6719992 141.7689978 145.4760014  99.3799992 142.5369978 144.9850014
  98.9969992 141.1099978 145.3130014  99.5408497 141.7849745 145.3868260
 109.3839992 142.2639978 141.3190014 109.4259992 142.0419978 140.3890014
 110.2329992 142.6629978 141.5090014 109.5045253 142.2875498 141.2173822
 104.9569992 136.1399978 141.9890014 104.7029992 136.1589978 142.9120014
 104.6999992 135.2689978 141.6880014 104.8875133 136.0248110 142.0745082
 100.7199992 139.1119978 147.3360014  99.8279992 138.7719978 147.2780014
 101.1709992 138.7349978 146.5810014 100.6586815 139.0143762 147.2259203
 106.2559992 139.5279978 146.1530014 105.8469992 140.3429978 145.8620014
 106.9759992 139.3879978 145.5390014 106.2974013 139.6206571 146.0300875
 101.8389992 136.5859978 141.0900014 101.4079992 136.1409978 141.8200014
 101.1209992 136.9569978 140.5780014 101.6829363 136.5752968 141.1206211
  96.3559992 137.0739978 143.5660014  96.8299992 137.6649978 142.9810014
  95.6379992 137.6039978 143.9130014  96.3238640 137.2265511 143.5327969
  98.1299992 138.1689978 147.2490014  97.2409992 138.2679978 146.9090014
  98.4269992 137.3269978 146.9030014  98.0484177 138.0687687 147.1556940
 101.7829992 138.1689978 144.9060014 102.7149992 138.2979978 145.0840014
 101.5679992 138.8379978 144.2560014 101.8814472 138.2770806 144.8424891
 100.4569992 139.3629978 142.4730014  99.9149992 138.9839978 141.7810014
 101.2909992 139.5579978 142.0440014 100.4955159 139.3375076 142.3204419
  99.6239992 135.4639978 146.7280014  99.3069992 134.5609978 146.6930014
 100.4049992 135.4659978 146.1750014  99.6862307 135.3406951 146.6484314
 103.7929992 143.9289978 144.4080014 103.0479992 143.4209978 144.0860014
 103.6579992 143.9779978 145.3550014 103.6729047 143.8661596 144.4918845
 107.6899992 136.7429978 142.6080014 106.7519992 136.8539978 142.4560014
 107.9879992 137.5989978 142.9140014 107.6016402 136.8740621 142.6285571
 108.4089992 138.6099978 144.2680014 109.3009992 138.4719978 144.5870014
 108.4649992 139.4009978 143.7320014 108.5387107 138.6980526 144.2392091
 105.9179992 145.3869978 143.4340014 105.6229992 146.2139978 143.8150014
 105.2149992 144.7679978 143.6300014 105.7825471 145.4165227 143.5126698
 113.2939992 138.8189978 143.9630014 112.7389992 138.4229978 143.2910014
 113.3939992 139.7299978 143.6850014 113.2315888 138.8878990 143.8335206
  97.0469992 141.6039978 142.1700014  97.6629992 142.2309978 142.5490014
  96.1849992 141.9199978 142.4410014  97.0148195 141.7325798 142.2585386
 102.7199992 144.4049978 147.1590014 102.4789992 145.3299978 147.2000014
 101.9789992 143.9459978 147.5550014 102.5868390 144.4696403 147.2181404
 109.8469992 144.2539978 144.4750014 109.5699992 143.5259978 145.0310014
 110.7749992 144.3729978 144.6800014 109.9344499 144.1704213 144.5788044
  98.4619992 143.5159978 143.6620014  97.7759992 143.8689978 144.2290014
  98.9849992 144.2789978 143.4160014  98.4389033 143.6673746 143.7062661
 107.0779992 135.8309978 145.0380014 107.2979992 136.3019978 144.2350014
 107.6369992 136.2249978 145.7080014 107.1836730 135.9487432 145.0185906
 104.2779992 137.5589978 145.8730014 105.0899992 138.0629978 145.9190014
 104.0339992 137.4139978 146.7870014 104.3561467 137.6083749 146.0028575
 105.1619992 134.6399978 146.8110014 104.8149992 135.2569978 147.4560014
 105.8209992 135.1409978 146.3300014 105.2035949 134.7921099 146.8342271
 100.8199992 135.7029978 143.4980014 100.7359992 136.5909978 143.8450014
 101.7099992 135.4379978 143.7300014 100.9288163 135.7887179 143.5768596
  97.3939992 138.7949978 141.6750014  97.3489992 139.7339978 141.8530014
  96.5059992 138.5589978 141.4050014  97.2678555 138.8916874 141.6628939
 100.6689992 144.2829978 140.9250014 100.7339992 143.4889978 141.4560014
 101.3219992 144.1649978 140.2350014 100.7661754 144.1583337 140.9044259
 106.0219992 145.3299978 140.6610014 105.7529992 145.5109978 141.5620014
 105.8149992 144.4049978 140.5300014 105.9572000 145.2296774 140.7665693
 101.8189992 142.2559978 143.2310014 101.3589992 141.7719978 143.9170014
 102.0739992 141.5869978 142.5950014 101.7905038 142.0993689 143.2389447
 102.8899992 140.4989978 141.4930014 102.7089992 140.3439978 140.5660014
 103.8399992 140.6069978 141.5380014 102.9936566 140.4923669 141.3720929
 112.2799992 142.8529978 140.9390014 112.0059992 142.4289978 140.1260014
 112.3189992 143.7849978 140.7220014 112.2477716 142.9208827 140.7984286
 112.7379992 143.7219978 144.9140014 113.5879992 144.1429978 145.0410014
 112.7429992 142.9819978 145.5210014 112.8551143 143.6796094 145.0134750
 113.1319992 141.7759978 146.7380014 112.4059992 141.2959978 147.1350014
 113.7139992 141.9809978 147.4700014 113.1111635 141.7379166 146.8913748
 113.4009992 141.6769978 143.1290014 112.8789992 142.0329978 142.4100014
 113.3679992 142.3519978 143.8070014 113.3250699 141.8169848 143.1222129
 111.7499992 138.9159978 141.6800014 111.8459992 139.5829978 141.0000014
 111.6099992 138.1009978 141.1980014 111.7442063 138.8970667 141.5218377
 110.9189992 140.2969978 147.3010014 110.7689992 139.3519978 147.2800014
 110.5649992 140.5779978 148.1440014 110.8505527 140.2055605 147.4121859
 110.9969992 136.3239978 140.7970014 111.6079992 135.9529978 141.4340014
 110.1599992 135.9029978 140.9930014 110.9674947 136.2162756 140.9107252
 110.6299992 137.8789978 145.7630014 110.9089992 136.9719978 145.8870014
 111.3889992 138.3129978 145.3740014 110.7708619 137.8134502 145.7273795
 111.2429992 135.1419978 145.8110014 111.4249992 134.6929978 146.6370014
 110.6429992 134.5579978 145.3480014 111.1867529 135.0016131 145.8613619
 113.1099992 135.2099978 142.3390014 113.5219992 134.4889978 141.8640014
 113.7909992 135.8789978 142.3980014 113.2585900 135.2017306 142.2819038
  95.3909992 135.2149978 145.4660014  94.4659992 135.4229978 145.3370014
  95.8449992 135.6989978 144.7770014  95.3256374 135.3089949 145.3550957
  96.6669992 133.2579978 143.4450014  97.1059992 133.8689978 142.8530014
  96.0329992 133.7959978 143.9190014  96.6413859 133.4144064 143.4280305
 102.4099992 133.3859978 147.4550014 103.2839992 133.7749978 147.4250014
 102.2739992 133.1709978 148.3770014 102.5113207 133.4101923 147.5756509
 109.3199992 133.4419978 144.7960014 108.6169992 134.0569978 144.5870014
 108.8749992 132.6049978 144.9280014 109.1636292 133.4130085 144.7852439
  98.5279992 135.1739978 141.8870014  99.0189992 134.5439978 141.3600014
  99.1509992 135.4699978 142.5510014  98.6795062 135.1276770 141.9045438
 103.5539992 135.4669978 144.3450014 103.7319992 134.8199978 145.0270014
 103.4999992 136.3009978 144.8120014 103.5711025 135.4910504 144.5016433
 125.7649992 142.6159978 147.6000014 125.8539992 143.5599978 147.4680014
 125.1269992 142.3409978 146.9420014 125.6909062 142.7079812 147.4929641
 114.5999992 139.5949978 146.5400014 114.1519992 140.4409978 146.5210014
 114.0389992 139.0159978 146.0240014 114.4629603 139.6323674 146.4676720
 127.1049992 136.9299978 147.4260014 127.7519992 136.6009978 148.0510014
 127.6149992 137.4469978 146.8030014 127.2624317 136.9549227 147.4272167
 125.5619992 145.2169978 146.6430014 125.2669992 144.8939978 145.7920014
 125.2379992 146.1169978 146.6840014 125.4777983 145.2944027 146.5319771
 115.2909992 145.0279978 144.9560014 115.0189992 145.2569978 144.0670014
 115.3359992 145.8649978 145.4160014 115.2598709 145.1726058 144.8966107
 124.4859992 141.8599978 145.0520014 123.7749992 142.3949978 144.7000014
 125.1769992 141.9149978 144.3920014 124.4820751 141.9406777 144.9145858
 124.5399992 140.3169978 142.0910014 125.2409992 140.3399978 142.7420014
 124.8419992 139.6889978 141.4350014 124.6768282 140.2352339 142.0914496
 127.8919992 142.0689978 146.0040014 127.1599992 142.2979978 146.5770014
 128.3389992 141.3559978 146.4590014 127.8522753 142.0038972 146.1439715
 126.7629992 141.2319978 143.6890014 127.3419992 141.3819978 144.4360014
 127.1769992 141.7019978 142.9660014 126.8983122 141.3161277 143.6935042
 130.4619992 132.9819978 143.5020014 129.5619992 133.1209978 143.7970014
 130.7139992 133.8129978 143.1000014 130.3728683 133.1134055 143.4880232
 118.5279992 141.7689978 145.4760014 118.2359992 142.5369978 144.9850014
 117.8529992 141.1099978 145.3130014 118.3968497 141.7849745 145.3868260
 128.2399992 142.2639978 141.3190014 128.2819992 142.0419978 140.3890014
 129.0889992 142.6629978 141.5090014 128.3605253 142.2875498 141.2173822
 123.8129992 136.1399978 141.9890014 123.5589992 136.1589978 142.9120014
 123.5559992 135.2689978 141.6880014 123.7435133 136.0248110 142.0745082
 119.5759992 139.1119978 147.3360014 118.6839992 138.7719978 147.2780014
 120.0269992 138.7349978 146.5810014 119.5146815 139.0143762 147.2259203
 125.1119992 139.5279978 146.1530014 124.7029992 140.3429978 145.8620014
 125.8319992 139.3879978 145.5390014 125.1534013 139.6206571 146.0300875
 120.6949992 136.5859978 141.0900014 120.2639992 136.1409978 141.8200014
 119.9769992 136.9569978 140.5780014 120.5389363 136.5752968 141.1206211
 115.2119992 137.0739978 143.5660014 115.6859992 137.6649978 142.9810014
 114.4939992 137.6039978 143.9130014 115.1798640 137.2265511 143.5327969
 116.9859992 138.1689978 147.2490014 116.0969992 138.2679978 146.9090014
 117.2829992 137.3269978 146.9030014 116.9044177 138.0687687 147.1556940
 120.6389992 138.1689978 144.9060014 121.5709992 138.2979978 145.0840014
 120.4239992 138.8379978 144.2560014 120.7374472 138.2770806 144.8424891
 119.3129992 139.3629978 142.4730014 118.7709992 138.9839978 141.7810014
 120.1469992 139.5579978 142.0440014 119.3515159 139.3375076 142.3204419
 118.4799992 135.4639978 146.7280014 118.1629992 134.5609978 146.6930014
 119.2609992 135.4659978 146.1750014 118.5422307 135.3406951 146.6484314
 122.6489992 143.9289978 144.4080014 121.9039992 143.4209978 144.0860014
 122.5139992 143.9779978 145.3550014 122.5289047 143.8661596 144.4918845
 126.5459992 136.7429978 142.6080014 125.6079992 136.8539978 142.4560014
 126.8439992 137.5989978 142.9140014 126.4576402 136.8740621 142.6285571
 127.2649992 138.6099978 144.2680014 128.1569992 138.4719978 144.5870014
 127.3209992 139.4009978 143.7320014 127.3947107 138.6980526 144.2392091
 124.7739992 145.3869978 143.4340014 124.4789992 146.2139978 143.8150014
 124.0709992 144.7679978 143.6300014 124.6385471 145.4165227 143.5126698
 132.1499992 138.8189978 143.9630014 131.5949992 138.4229978 143.2910014
 132.2499992 139.7299978 143.6850014 132.0875888 138.8878990 143.8335206
 115.9029992 141.6039978 142.1700014 116.5189992 142.2309978 142.5490014
 115.0409992 141.9199978 142.4410014 115.8708195 141.7325798 142.2585386
 121.5759992 144.4049978 147.1590014 121.3349992 145.3299978 147.2000014
 120.8349992 143.9459978 147.5550014 121.4428390 144.4696403 147.2181404
 128.7029992 144.2539978 144.4750014 128.4259992 143.5259978 145.0310014
 129.6309992 144.3729978 144.6800014 128.7904499 144.1704213 144.5788044
 117.3179992 143.5159978 143.6620014 116.6319992 143.8689978 144.2290014
 117.8409992 144.2789978 143.4160014 117.2949033 143.6673746 143.7062661
 125.9339992 135.8309978 145.0380014 126.1539992 136.3019978 144.2350014
 126.4929992 136.2249978 145.7080014 126.0396730 135.9487432 145.0185906
 123.1339992 137.5589978 145.8730014 123.9459992 138.0629978 145.9190014
 122.8899992 137.4139978 146.7870014 123.2121467 137.6083749 146.0028575
 124.0179992 134.6399978 146.8110014 123.6709992 135.2569978 147.4560014
 124.6769992 135.1409978 146.3300014 124.0595949 134.7921099 146.8342271
 119.6759992 135.7029978 143.4980014 119.5919992 136.5909978 143.8450014
 120.5659992 135.4379978 143.7300014 119.7848163 135.7887179 143.5768596
 116.2499992 138.7949978 141.6750014 116.2049992 139.7339978 141.8530014
 115.3619992 138.5589978 141.4050014 116.1238555 138.8916874 141.6628939
 119.5249992 144.2829978 140.9250014 119.5899992 143.4889978 141.4560014
 120.1779992 144.1649978 140.2350014 119.6221754 144.1583337 140.9044259
 124.8779992 145.3299978 140.6610014 124.6089992 145.5109978 141.5620014
 124.6709992 144.4049978 140.5300014 124.8132000 145.2296774 140.7665693
 120.6749992 142.2559978 143.2310014 120.2149992 141.7719978 143.9170014
 120.9299992 141.5869978 142.5950014 120.6465038 142.0993689 143.2389447
 121.7459992 140.4989978 141.4930014 121.5649992 140.3439978 140.5660014
 122.6959992 140.6069978 141.5380014 121.8496566 140.4923669 141.3720929
 131.1359992 142.8529978 140.9390014 130.8619992 142.4289978 140.1260014
 131.1749992 143.7849978 140.7220014 131.1037716 142.9208827 140.7984286
 131.5939992 143.7219978 144.9140014 132.4439992 144.1429978 145.0410014
 131.5989992 142.9819978 145.5210014 131.7111143 143.6796094 145.0134750
 131.9879992 141.7759978 146.7380014 131.2619992 141.2959978 147.1350014
 132.5699992 141.9809978 147.4700014 131.9671635 141.7379166 146.8913748
 132.2569992 141.6769978 143.1290014 131.7349992 142.0329978 142.4100014
 132.2239992 142.3519978 143.8070014 132.1810699 141.8169848 143.1222129
 130.6059992 138.9159978 141.6800014 130.7019992 139.5829978 141.0000014
 130.4659992 138.1009978 141.1980014 130.6002063 138.8970667 141.5218377
 129.7749992 140.2969978 147.3010014 129.6249992 139.3519978 147.2800014
 129.4209992 140.5779978 148.1440014 129.7065527 140.2055605 147.4121859
 129.8529992 136.3239978 140.7970014 130.4639992 135.9529978 141.4340014
 129.0159992 135.9029978 140.9930014 129.8234947 136.2162756 140.9107252
 129.4859992 137.8789978 145.7630014 129.7649992 136.9719978 145.8870014
 130.2449992 138.3129978 145.3740014 129.6268619 137.8134502 145.7273795
 130.0989992 135.1419978 145.8110014 130.2809992 134.6929978 146.6370014
 129.4989992 134.5579978 145.3480014 130.0427529 135.0016131 145.8613619
 131.9659992 135.2099978 142.3390014 132.3779992 134.4889978 141.8640014
 132.6469992 135.8789978 142.3980014 132.1145900 135.2017306 142.2819038
 114.2469992 135.2149978 145.4660014 113.3219992 135.4229978 145.3370014
 114.7009992 135.6989978 144.7770014 114.1816374 135.3089949 145.3550957
 115.5229992 133.2579978 143.4450014 115.9619992 133.8689978 142.8530014
 114.8889992 133.7959978 143.9190014 115.4973859 133.4144064 143.4280305
 121.2659992 133.3859978 147.4550014 122.1399992 133.7749978 147.4250014
 121.1299992 133.1709978 148.3770014 121.3673207 133.4101923 147.5756509
 128.1759992 133.4419978 144.7960014 127.4729992 134.0569978 144.5870014
 127.7309992 132.6049978 144.9280014 128.0196292 133.4130085 144.7852439
 117.3839992 135.1739978 141.8870014 117.8749992 134.5439978 141.3600014
 118.0069992 135.4699978 142.5510014 117.5355062 135.1276770 141.9045438
 122.4099992 135.4669978 144.3450014 122.5879992 134.8199978 145.0270014
 122.3559992 136.3009978 144.8120014 122.4271025 135.4910504 144.5016433
 144.6209992 142.6159978 147.6000014 144.7099992 143.5599978 147.4680014
 143.9829992 142.3409978 146.9420014 144.5469062 142.7079812 147.4929641
 133.4559992 139.5949978 146.5400014 133.0079992 140.4409978 146.5210014
 132.8949992 139.0159978 146.0240014 133.3189603 139.6323674 146.4676720
 144.4179992 145.2169978 146.6430014 144.1229992 144.8939978 145.7920014
 144.0939992 146.1169978 146.6840014 144.3337983 145.2944027 146.5319771
 134.1469992 145.0279978 144.9560014 133.8749992 145.2569978 144.0670014
 134.1919992 145.8649978 145.4160014 134.1158709 145.1726058 144.8966107
 143.3419992 141.8599978 145.0520014 142.6309992 142.3949978 144.7000014
 144.0329992 141.9149978 144.3920014 143.3380751 141.9406777 144.9145858
 143.3959992 140.3169978 142.0910014 144.0969992 140.3399978 142.7420014
 143.6979992 139.6889978 141.4350014 143.5328282 140.2352339 142.0914496
 137.3839992 141.7689978 145.4760014 137.0919992 142.5369978 144.9850014
 136.7089992 141.1099978 145.3130014 137.2528497 141.7849745 145.3868260
 142.6689992 136.1399978 141.9890014 142.4149992 136.1589978 142.9120014
 142.4119992 135.2689978 141.6880014 142.5995133 136.0248110 142.0745082
 138.4319992 139.1119978 147.3360014 137.5399992 138.7719978 147.2780014
 138.8829992 138.7349978 146.5810014 138.3706815 139.0143762 147.2259203
 143.9679992 139.5279978 146.1530014 143.5589992 140.3429978 145.8620014
 144.6879992 139.3879978 145.5390014 144.0094013 139.6206571 146.0300875
 139.5509992 136.5859978 141.0900014 139.1199992 136.1409978 141.8200014
 138.8329992 136.9569978 140.5780014 139.3949363 136.5752968 141.1206211
 134.0679992 137.0739978 143.5660014 134.5419992 137.6649978 142.9810014
 133.3499992 137.6039978 143.9130014 134.0358640 137.2265511 143.5327969
 135.8419992 138.1689978 147.2490014 134.9529992 138.2679978 146.9090014
 136.1389992 137.3269978 146.9030014 135.7604177 138.0687687 147.1556940
 139.4949992 138.1689978 144.9060014 140.4269992 138.2979978 145.0840014
 139.2799992 138.8379978 144.2560014 139.5934472 138.2770806 144.8424891
 138.1689992 139.3629978 142.4730014 137.6269992 138.9839978 141.7810014
 139.0029992 139.5579978 142.0440014 138.2075159 139.3375076 142.3204419
 137.3359992 135.4639978 146.7280014 137.0189992 134.5609978 146.6930014
 138.1169992 135.4659978 146.1750014 137.3982307 135.3406951 146.6484314
 141.5049992 143.9289978 144.4080014 140.7599992 143.4209978 144.0860014
 141.3699992 143.9779978 145.3550014 141.3849047 143.8661596 144.4918845
 145.4019992 136.7429978 142.6080014 144.4639992 136.8539978 142.4560014
 145.6999992 137.5989978 142.9140014 145.3136402 136.8740621 142.6285571
 143.6299992 145.3869978 143.4340014 143.3349992 146.2139978 143.8150014
 142.9269992 144.7679978 143.6300014 143.4945471 145.4165227 143.5126698
 134.7589992 141.6039978 142.1700014 135.3749992 142.2309978 142.5490014
 133.8969992 141.9199978 142.4410014 134.7268195 141.7325798 142.2585386
 140.4319992 144.4049978 147.1590014 140.1909992 145.3299978 147.2000014
 139.6909992 143.9459978 147.5550014 140.2988390 144.4696403 147.2181404
 136.1739992 143.5159978 143.6620014 135.4879992 143.8689978 144.2290014
 136.6969992 144.2789978 143.4160014 136.1509033 143.6673746 143.7062661
 144.7899992 135.8309978 145.0380014 145.0099992 136.3019978 144.2350014
 145.3489992 136.2249978 145.7080014 144.8956730 135.9487432 145.0185906
 141.9899992 137.5589978 145.8730014 142.8019992 138.0629978 145.9190014
 141.7459992 137.4139978 146.7870014 142.0681467 137.6083749 146.0028575
 142.8739992 134.6399978 146.8110014 142.5269992 135.2569978 147.4560014
 143.5329992 135.1409978 146.3300014 142.9155949 134.7921099 146.8342271
 138.5319992 135.7029978 143.4980014 138.4479992 136.5909978 143.8450014
 139.4219992 135.4379978 143.7300014 138.6408163 135.7887179 143.5768596
 135.1059992 138.7949978 141.6750014 135.0609992 139.7339978 141.8530014
 134.2179992 138.5589978 141.4050014 134.9798555 138.8916874 141.6628939
 138.3809992 144.2829978 140.9250014 138.4459992 143.4889978 141.4560014
 139.0339992 144.1649978 140.2350014 138.4781754 144.1583337 140.9044259
 143.7339992 145.3299978 140.6610014 143.4649992 145.5109978 141.5620014
 143.5269992 144.4049978 140.5300014 143.6692000 145.2296774 140.7665693
 139.5309992 142.2559978 143.2310014 139.0709992 141.7719978 143.9170014
 139.7859992 141.5869978 142.5950014 139.5025038 142.0993689 143.2389447
 140.6019992 140.4989978 141.4930014 140.4209992 140.3439978 140.5660014
 141.5519992 140.6069978 141.5380014 140.7056566 140.4923669 141.3720929
 133.1029992 135.2149978 145.4660014 132.1779992 135.4229978 145.3370014
 133.5569992 135.6989978 144.7770014 133.0376374 135.3089949 145.3550957
 134.3789992 133.2579978 143.4450014 134.8179992 133.8689978 142.8530014
 133.7449992 133.7959978 143.9190014 134.3533859 133.4144064 143.4280305
 140.1219992 133.3859978 147.4550014 140.9959992 133.7749978 147.4250014
 139.9859992 133.1709978 148.3770014 140.2233207 133.4101923 147.5756509
 136.2399992 135.1739978 141.8870014 136.7309992 134.5439978 141.3600014
 136.8629992 135.4699978 142.5510014 136.3915062 135.1276770 141.9045438
 141.2659992 135.4669978 144.3450014 141.4439992 134.8199978 145.0270014
 141.2119992 136.3009978 144.8120014 141.2831025 135.4910504 144.5016433
  12.6289992  10.6239978 -10.2409986  12.7179992  11.5679978 -10.3729986
  11.9909992  10.3489978 -10.8989986  12.5549062  10.7159812 -10.3480359
  11.5619992   9.8789978  -6.8219986  11.5239992   9.2329978  -6.1169986
  11.2399992   9.4119978  -7.5929986  11.5132679   9.7274276  -6.8297079
   3.9299992   9.4929978  -5.2289986   3.9719992   8.8679978  -4.5059986
   4.6329992  10.1169978  -5.0469986   4.0307345   9.4917873  -5.1054726
  15.2679992  12.8179978  -8.5209986  14.8269992  12.0979978  -8.0699986
  15.2549992  13.5389978  -7.8909986  15.2059215  12.8169291  -8.3741895
   4.8539992  13.9429978  -6.6939986   4.4839992  13.1409978  -7.0639986
   5.7949992  13.7749978  -6.6479986   4.9305984  13.8104638  -6.7384397
   1.4639992   7.6029978 -11.3019986   1.0159992   8.4489978 -11.3199986
   0.9029992   7.0239978 -11.8169986   1.3268546   7.6403993 -11.3741109
   2.1739992   9.7649978  -9.1759986   2.3879992   8.9949978  -8.6479986
   2.9119992   9.8549978  -9.7789986   2.3030200   9.6718587  -9.1852965
  12.3799992  17.9219978  -8.3089986  12.9989992  17.2459978  -8.5819986
  12.1709992  17.7039978  -7.3999986  12.4366056  17.7998869  -8.2236033
   9.9509992  12.3109978  -6.4159986  10.2549992  11.6249978  -7.0109986
  10.6729992  12.4299978  -5.7979986  10.0901240  12.2332314  -6.4139041
  18.6139992   3.9129978  -5.5559986  18.6639992   4.5229978  -4.8199986
  19.0399992   4.3739978  -6.2789986  18.6784108   4.0587709  -5.5529888
  13.0919992   6.7049978  -6.0889986  13.2349992   5.7589978  -6.0689986
  12.9859992   6.9119978  -7.0169986  13.0972403   6.6034797  -6.2117761
   6.2469992   4.8069978  -8.8159986   6.2899992   5.6669978  -9.2349986
   5.7889992   4.2549978  -9.4499986   6.1909871   4.8499245  -8.9589239
  13.9689992   4.9379978 -10.4149986  14.6159992   4.6089978  -9.7909986
  14.4789992   5.4549978 -11.0379986  14.1264351   4.9629067 -10.4138963
   2.8669992   7.2039978  -8.0539986   3.5209992   6.6539978  -7.6219986
   2.8909992   6.9299978  -8.9709986   2.9597199   7.0917167  -8.1188332
   8.0239992   8.7539978  -8.8389986   8.6399992   8.2269978  -8.3299986
   7.4369992   8.1139978  -9.2429986   8.0290154   8.5953954  -8.8239055
  19.0059992   5.3909978  -3.3199986  18.3169992   6.0489978  -3.4149986
  19.0209992   5.1929978  -2.3829986  18.9137756   5.4542603  -3.2064188
   5.0569992   3.7249978  -4.7419986   4.8379992   4.2549978  -5.5089986
   4.3889992   3.9509978  -4.0949986   4.9366975   3.8280967  -4.7594860
  12.4259992  13.2249978 -11.1979986  12.1309992  12.9019978 -12.0499986
  12.1019992  14.1249978 -11.1569986  12.3418460  13.3024464 -11.3090286
   7.6259992  11.3999978  -4.4549986   6.8859992  11.9989978  -4.3509986
   8.3399992  11.9539978  -4.7699986   7.6213500  11.5567829  -4.4833629
  15.7329992   4.2289978  -8.4349986  15.5179992   3.4629978  -7.9019986
  16.3889992   4.7009978  -7.9219986  15.7922673   4.1880728  -8.2928010
   4.6509992   5.6169978  -6.7899986   5.2649992   6.2499978  -6.4169986
   5.1629992   5.1449978  -7.4459986   4.8041962   5.6397249  -6.8277065
   6.0339992  13.3649978  -3.6679986   6.0279992  14.2439978  -4.0459986
   5.1799992  13.2809978  -3.2429986   5.9177925  13.4739535  -3.6623113
   2.1549992  13.0359978 -12.8859986   1.8829992  13.2649978 -13.7739986
   2.1999992  13.8729978 -12.4249986   2.1238097  13.1806163 -12.9453317
  15.7799992  14.6569978  -6.1729986  14.8379992  14.7159978  -6.0109986
  16.0559992  15.5629978  -6.3099986  15.6885865  14.7875288  -6.1693808
  16.0799992   2.9439978  -4.7559986  15.3439992   3.5539978  -4.7929986
  16.7639992   3.3589978  -5.2819986  16.0715367   3.0837551  -4.8321826
   9.0839992   1.0299978  -7.2899986   8.9659992   0.0819978  -7.3439986
   8.2289992   1.3629978  -7.0169986   8.9522805   0.9452202  -7.2604921
  14.0319992  16.4379978  -9.5479986  14.4569992  15.7309978 -10.0329986
  14.3489992  17.2399978  -9.9649986  14.1330266  16.4495190  -9.6707521
  15.1919992  14.3389978 -11.0389986  14.9339992  13.6489978 -11.6509986
  15.2629992  13.8959978 -10.1939986  15.1663050  14.1846814 -11.0084379
  16.8779992  12.9059978  -2.5619986  17.0169992  12.3139978  -3.3009986
  17.0449992  13.7789978  -2.9179986  16.9196193  12.9428896  -2.7113789
  11.3499992   9.8679978 -12.7889986  10.6389992  10.4029978 -13.1409986
  12.0409992   9.9229978 -13.4489986  11.3460751   9.9486777 -12.9264142
  11.4039992   8.3249978 -15.7509986  12.1049992   8.3479978 -15.0989986
  11.7059992   7.6969978 -16.4069986  11.5408202   8.2432212 -15.7504391
  18.7189992   9.2459978  -4.4959986  18.0669992   9.9399978  -4.4069986
  19.1849992   9.4559978  -5.3059986  18.6925937   9.3695019  -4.5932467
  14.7559992  10.0769978 -11.8379986  14.0239992  10.3059978 -11.2639986
  15.2029992   9.3639978 -11.3829986  14.7163963  10.0118729 -11.6980055
  14.6529992   8.2519978  -2.7699986  14.7329992   9.0149978  -2.1979986
  14.0519992   8.5309978  -3.4599986  14.5826547   8.3942457  -2.7849953
   6.4009992  10.7079978  -9.9549986   6.0709992  10.3369978 -10.7729986
   6.9899992  10.0369978  -9.6079986   6.4353970  10.5666063 -10.0200596
   7.7679992  14.1359978  -7.2739986   7.6729992  13.5569978  -8.0299986
   8.4969992  13.7649978  -6.7779986   7.8536011  14.0065561  -7.3103972
   6.7679992   9.4759978  -6.3219986   7.3329992   9.5979978  -7.0839986
   7.0869992  10.1139978  -5.6829986   6.8884166   9.5788791  -6.3399652
  13.0769992  14.9799978  -5.5879986  12.8369992  15.6419978  -4.9399986
  12.8789992  14.1449978  -5.1629986  13.0173826  14.9578115  -5.4418434
   7.6479992  13.8759978  -1.6039986   7.3369992  14.6579978  -1.1489986
   6.9979992  13.7229978  -2.2899986   7.5175538  13.9624087  -1.6344102
  13.6269992   9.2399978 -14.1519986  14.2059992   9.3899978 -13.4059986
  14.0409992   9.7099978 -14.8759986  13.7623358   9.3240955 -14.1476047
   4.5679992  10.0739978  -2.3759986   4.6379992  10.7249978  -1.6769986
   3.6769992  10.1769978  -2.7109986   4.4571690  10.1769249  -2.3256957
  11.3529992  15.9759978 -10.7169986  11.8269992  16.2719978  -9.9399986
  10.7899992  16.7149978 -10.9499986  11.3417890  16.1163036 -10.6421899
   5.8869992  15.9469978  -0.8409986   5.8949992  15.8109978  -1.7879986
   4.9709992  15.8299978  -0.5889986   5.7642528  15.9125463  -0.9366757
  17.3259992   0.9899978 -14.3389986  16.4259992   1.1289978 -14.0439986
  17.5779992   1.8209978 -14.7409986  17.2368683   1.1214055 -14.3529768
   5.3919992   9.7769978 -12.3659986   5.0999992  10.5449978 -12.8569986
   4.7169992   9.1179978 -12.5289986   5.2608497   9.7929745 -12.4551740
  18.5149992  15.3559978 -15.9629986  18.5879992  16.2949978 -15.7929986
  19.4199992  15.0509978 -16.0189986  18.6474170  15.4433282 -15.9472937
   1.4849992  12.1399978  -3.5509986   0.9829992  12.1119978  -4.3659986
   1.4899992  11.2349978  -3.2409986   1.4169832  12.0137486  -3.6205879
   1.2349992  14.9209978  -6.6669986   2.1809992  14.7759978  -6.6859986
   1.1219992  15.7049978  -6.1299986   1.3493578  15.0071697  -6.5969683
  19.4329992  15.5869978  -0.9839986  19.3829992  14.6309978  -1.0219986
  18.6059992  15.8539978  -0.5829986  19.3143831  15.4924680  -0.9349879
  10.4109992  15.1609978  -2.1079986  10.4989992  15.9869978  -1.6329986
   9.5479992  14.8309978  -1.8589986  10.3063357  15.2295468  -2.0092347
  10.8259992  18.9329978 -12.3019986  10.7499992  18.8119978 -13.2489986
  10.8579992  19.8819978 -12.1839986  10.8199380  19.0447677 -12.4154819
   4.4789992  17.7219978 -10.5209986   4.6309992  17.3739978  -9.6429986
   3.6279992  17.3649978 -10.7769986   4.3848344  17.6260879 -10.4353132
  13.9269992  18.0869978 -15.2999986  14.3019992  17.3429978 -15.7709986
  13.9319992  17.8169978 -14.3819986  13.9790098  17.9486392 -15.2403371
  13.5959992  18.0129978 -12.5509986  12.6609992  18.1129978 -12.3719986
  13.8759992  17.3029978 -11.9719986  13.5059471  17.9307933 -12.4483305
  16.5849992   7.0799978  -0.5039986  16.1769992   7.5599978  -1.2249986
  16.6249992   6.1739978  -0.8119986  16.5346221   7.0232449  -0.6441733
   3.7339992  13.4639978  -2.5079986   3.9499992  13.1019978  -1.6479986
   2.8779992  13.0889978  -2.7169986   3.6478810  13.3638837  -2.4187320
   6.3519992   1.9339978  -6.5119986   5.4909992   1.8469978  -6.9199986
   6.3299992   2.7899978  -6.0839986   6.2310491   2.0378003  -6.5100418
  11.0149992   1.6559978  -3.1369986  11.4349992   1.2409978  -2.3839986
  10.0819992   1.4769978  -3.0199986  10.9463736   1.5749910  -3.0181032
  14.3419992   5.4109978  -2.2839986  13.8279992   5.2859978  -1.4859986
  14.1859992   6.3239978  -2.5279986  14.2506967   5.5172123  -2.2079063
  15.1039992  10.2719978 -16.5229986  15.1459992  10.0499978 -17.4529986
  15.9529992  10.6709978 -16.3329986  15.2245253  10.2955498 -16.6246178
  10.6769992   4.1479978 -15.8519986  10.4229992   4.1669978 -14.9299986
  10.4199992   3.2769978 -16.1539986  10.6074508   4.0328280 -15.7665197
   6.4429992   6.8989978  -5.4169986   5.8019992   6.8589978  -4.7079986
   6.4809992   7.8259978  -5.6549986   6.3603010   7.0187668  -5.3520054
   6.4399992   7.1199978 -10.5049986   5.5479992   6.7799978 -10.5639986
   6.8909992   6.7429978 -11.2609986   6.3787642   7.0224910 -10.6152274
  11.9759992   7.5359978 -11.6879986  11.5669992   8.3509978 -11.9799986
  12.6959992   7.3959978 -12.3019986  12.0174439   7.6285372 -11.8109885
  11.0779992   7.7119978  -0.1999986  10.5149992   7.0069978   0.1210014
  11.9039992   7.5909978   0.2680014  11.1126674   7.5992165  -0.0928249
  12.9809992   6.9819978  -8.8739986  12.7849992   7.5879978  -9.5889986
  13.1619992   6.1489978  -9.3079986  12.9786584   6.9522513  -9.0305788
   4.1929992   7.2199978  -3.5499986   4.1549992   7.6199978  -2.6809986
   3.7029992   6.4029978  -3.4599986   4.1215330   7.1642674  -3.4188711
   7.5589992   4.5939978 -16.7509986   7.1279992   4.1489978 -16.0219986
   6.8409992   4.9649978 -17.2639986   7.4029176   4.5832051 -16.7205070
   0.8019992   4.3359978  -9.6989986   1.4319992   4.3069978  -8.9799986
   1.2509992   3.9109978 -10.4299986   0.9490835   4.2745660  -9.6992341
   2.0759992   5.0819978 -14.2749986   2.5499992   5.6729978 -14.8599986
   1.3579992   5.6119978 -13.9279986   2.0438640   5.2345511 -14.3082031
  12.2449992   8.6199978  -4.2029986  12.5679992   7.9889978  -4.8459986
  11.8039992   8.0859978  -3.5419986  12.2296379   8.4613468  -4.2017418
   9.0219992   4.5479978  -9.4189986   8.1109992   4.6049978  -9.1299986
   9.5269992   4.4879978  -8.6079986   8.9656873   4.5476826  -9.2698793
   3.8499992   6.1769978 -10.5919986   2.9609992   6.2759978 -10.9319986
   4.1469992   5.3349978 -10.9379986   3.7684177   6.0767687 -10.6853060
   7.5029992   6.1769978 -12.9349986   8.4349992   6.3059978 -12.7569986
   7.2879992   6.8459978 -13.5849986   7.6014472   6.2850806 -12.9985109
  13.4269992   3.7829978  -6.1539986  12.7499992   3.9139978  -5.4909986
  12.9419992   3.6279978  -6.9649986  13.2687405   3.7799947  -6.1727830
   6.1769992   7.3709978 -15.3689986   5.6349992   6.9919978 -16.0599986
   7.0109992   7.5659978 -15.7969986   6.2154390   7.3454079 -15.5215608
  16.7149992  19.4539978   0.1220014  16.9139992  19.8779978  -0.7119986
  17.3699992  19.7979978   0.7290014  16.8308522  19.5586301   0.0897852
   4.3129992  11.9279978  -0.2699986   5.0449992  12.1829978   0.2920014
   3.5319992  12.1329978   0.2460014   4.3076526  11.9905450  -0.1234824
  10.3419992   7.3349978  -7.5319986  10.9059992   6.7889978  -8.0789986
  10.1939992   6.8139978  -6.7429986  10.3993037   7.1896787  -7.5002771
   5.3439992   3.4719978 -11.1129986   5.0269992   2.5689978 -11.1489986
   6.1249992   3.4739978 -11.6659986   5.4062431   3.3487797 -11.1926898
   8.9679992   5.7239978  -5.1179986   8.1329992   6.1779978  -5.0069986
   9.4919992   5.9999978  -4.3659986   8.9246072   5.8233948  -5.0011864
   9.5129992  11.9369978 -13.4329986   8.7679992  11.4289978 -13.7549986
   9.3779992  11.9859978 -12.4869986   9.3928963  11.8741731 -13.3491174
  16.6629992  11.0699978  -4.6459986  17.3039992  11.5259978  -5.1899986
  15.8319992  11.1829978  -5.1089986  16.6385287  11.1476921  -4.7830113
  13.4099992   4.7509978 -15.2339986  12.4719992   4.8619978 -15.3849986
  13.7079992   5.6069978 -14.9269986  13.3216318   4.8820158 -15.2131855
  11.0319992  12.1209978  -2.1959986  10.6859992  11.7389978  -1.3889986
  10.8319992  13.0539978  -2.1249986  10.9575987  12.1949002  -2.0759539
  14.1289992   6.6179978 -13.5729986  15.0209992   6.4799978 -13.2539986
  14.1849992   7.4089978 -14.1099986  14.2587325   6.7059918 -13.6018783
   4.6369992  11.2319978  -7.6629986   5.3819992  11.2289978  -8.2649986
   4.7149992  10.4079978  -7.1819986   4.7493365  11.1202384  -7.6802570
  11.6379992  13.3949978 -14.4079986  11.3429992  14.2219978 -14.0259986
  10.9349992  12.7759978 -14.2109986  11.5026379  13.4244171 -14.3291346
   1.6449992   9.6919978  -2.3479986   1.8679992   9.2739978  -1.5169986
   1.0429992   9.0799978  -2.7709986   1.5941513   9.5519606  -2.2913260
   8.6619992   9.2089978  -0.1349986   8.3659992   9.0439978  -1.0309986
   9.5929992   8.9889978  -0.1459986   8.7474401   9.1566879  -0.2589794
  13.2819992  14.5829978  -2.2459986  12.3819992  14.7659978  -2.5129986
  13.3159992  14.8419978  -1.3249986  13.1633748  14.6430554  -2.1580836
  19.0139992   6.8269978 -13.8779986  18.4589992   6.4309978 -14.5509986
  19.1139992   7.7379978 -14.1559986  18.9516816   6.8959505 -14.0074967
  18.9769992  12.6279978  -1.0409986  18.1259992  12.8659978  -1.4089986
  19.5669992  12.6109978  -1.7939986  18.9403812  12.6582524  -1.1931547
  17.3089992  15.6129978 -13.4129986  16.9359992  14.7879978 -13.1039986
  17.5859992  15.4299978 -14.3109986  17.2953463  15.4752569 -13.4920475
  14.4689992  10.4209978  -6.3919986  13.5409992  10.1899978  -6.4189986
  14.9199992   9.6439978  -6.7219986  14.4028165  10.2842774  -6.4403210
   7.0119992  14.7499978 -10.2589986   7.5399992  15.5229978 -10.4589986
   6.1319992  14.9739978 -10.5609986   6.9653435  14.8862700 -10.3272690
   2.7669992   9.6119978 -15.6719986   3.3829992  10.2389978 -15.2919986
   1.9049992   9.9279978 -15.3999986   2.7347678   9.7404412 -15.5832791
   8.4399992  12.4129978 -10.6829986   8.1989992  13.3379978 -10.6409986
   7.6989992  11.9539978 -10.2859986   8.3069206  12.4775915 -10.6236231
   8.9539992  16.5619978  -4.3679986   9.3169992  17.4159978  -4.6009986
   9.4859992  16.2699978  -3.6269986   9.0755141  16.6393895  -4.2997903
   7.1229992  17.4339978 -11.1369986   6.1729992  17.5399978 -11.0859986
   7.4749992  18.2549978 -10.7929986   7.0405472  17.5594923 -11.0835148
  12.4979992  12.6609978  -4.6669986  12.0729992  12.4329978  -3.8409986
  13.0789992  11.9219978  -4.8489986  12.5183395  12.5299545  -4.5785586
  14.7009992  13.5899978 -15.5929986  15.0549992  13.2099978 -14.7889986
  13.7529992  13.4959978 -15.5059986  14.6212298  13.5252452 -15.4711313
  15.1569992  17.2129978  -2.1979986  14.5549992  16.6569978  -2.6929986
  15.4379992  17.8799978  -2.8239986  15.1125757  17.2270744  -2.3504325
  19.2049992  18.0689978 -15.3919986  19.9489992  18.6549978 -15.5319986
  18.5109992  18.6379978 -15.0589986  19.2129809  18.2260818 -15.3661410
   3.2789992   4.4459978  -2.7899986   2.3869992   4.7839978  -2.8579986
   3.1809992   3.5899978  -2.3719986   3.1434475   4.3766543  -2.7428296
  15.5669992  12.2619978 -13.3659986  15.2899992  11.5339978 -12.8099986
  16.4949992  12.3809978 -13.1609986  15.6544499  12.1784213 -13.2621956
   2.9309992  16.2499978  -4.3549986   3.1479992  15.3179978  -4.3859986
   3.1769992  16.5249978  -3.4719986   2.9939809  16.1595686  -4.2398309
   7.7289992  14.2719978 -14.6899986   7.8759992  13.7519978 -13.8999986
   7.7259992  15.1789978 -14.3829986   7.7487102  14.3233953 -14.5404075
   4.1819992  11.5239978 -14.1789986   3.4959992  11.8769978 -13.6119986
   4.7049992  12.2869978 -14.4259986   4.1588402  11.6753901 -14.1348199
  12.0139992   4.1869978  -3.8999986  12.7129992   4.2609978  -3.2499986
  11.6329992   3.3219978  -3.7459986  12.0582097   4.0802389  -3.7902003
  12.7979992   3.8389978 -12.8029986  13.0179992   4.3099978 -13.6069986
  13.3569992   4.2329978 -12.1329986  12.9036731   3.9567287 -12.8224967
  10.4669992  15.9689978 -13.9399986   9.6499992  16.4659978 -13.8879986
  10.9959992  16.4449978 -14.5809986  10.4268125  16.1011989 -14.0194694
   9.9979992   5.5669978 -11.9679986  10.8099992   6.0709978 -11.9219986
   9.7539992   5.4219978 -11.0539986  10.0761467   5.6163749 -11.8381425
  10.5339992   6.5529978  -2.7839986  10.6529992   7.1269978  -2.0269986
  11.1889992   5.8649978  -2.6689986  10.6388684   6.5385194  -2.6648326
  10.8819992   2.6479978 -11.0299986  10.5349992   3.2649978 -10.3859986
  11.5409992   3.1489978 -11.5119986  10.9235090   2.8001575 -11.0069319
   7.8049992  17.0129978 -13.9589986   7.9659992  17.8129978 -14.4589986
   7.6079992  17.3199978 -13.0739986   7.8003906  17.1638678 -13.9077667
   6.5399992   3.7109978 -14.3429986   6.4559992   4.5989978 -13.9959986
   7.4299992   3.4459978 -14.1109986   6.6488163   3.7967179 -14.2641404
  16.7379992   4.4599978  -1.9489986  15.8219992   4.7219978  -2.0359986
  17.0739992   4.4569978  -2.8449986  16.6578499   4.4955163  -2.0821234
  15.3409992   8.2099978  -7.8529986  14.5429992   7.7949978  -8.1809986
  15.7859992   7.5199978  -7.3619986  15.2919684   8.0598628  -7.8314773
   4.7979992  14.1379978 -15.2829986   5.3899992  14.8379978 -15.0059986
   5.2569992  13.7049978 -16.0019986   4.9411652  14.1752675 -15.3423467
   3.1139992   6.8029978 -16.1669986   3.0689992   7.7419978 -15.9879986
   2.2259992   6.5669978 -16.4359986   2.9878166   6.8996687 -16.1788476
  16.4269992  17.4659978  -6.2309986  16.2709992  18.1449978  -6.8879986
  17.3599992  17.5379978  -6.0279986  16.5317387  17.5686390  -6.2934658
   3.9219992   1.5839978  -7.4929986   3.6929992   1.6429978  -8.4209986
   3.4799992   0.7929978  -7.1869986   3.8308801   1.4850540  -7.5785271
   2.8529992  15.5249978 -11.3329986   2.0199992  15.9969978 -11.3059986
   3.3979992  16.0349978 -11.9319986   2.8127857  15.6584791 -11.4102858
   2.1409992  18.1369978  -0.0029986   2.6809992  17.9209978   0.7570014
   1.6599992  17.3319978  -0.1929986   2.1499219  17.9985156   0.0754282
   6.7379992  17.0569978   1.6170014   7.5059992  16.5979978   1.9580014
   6.7169992  16.8309978   0.6870014   6.8402135  16.9636668   1.5379491
  10.8299992  16.5649978 -17.0069986  10.1859992  15.9339978 -16.6859986
  11.5919992  16.0339978 -17.2389986  10.8448058  16.4067902 -16.9943962
  13.3149992  15.4369978   0.3460014  12.9639992  14.5799978   0.5900014
  14.0409992  15.5789978   0.9530014  13.3651895  15.3391351   0.4613770
  15.4349992  16.3819978 -16.7739986  15.7179992  15.5869978 -16.3209986
  16.1739992  16.6149978 -17.3349986  15.5737096  16.3047049 -16.7878896
   2.0479992  11.9479978   0.9510014   2.1919992  11.0459978   0.6650014
   1.2759992  12.2339978   0.4640014   1.9632733  11.8631798   0.8459532
   6.3889992  12.2909978 -16.9159986   6.4539992  11.4969978 -16.3859986
   7.0419992  12.1729978 -17.6059986   6.4861605  12.1663430 -16.9367003
   8.7029992  11.9169978   0.3840014   8.3749992  12.1879978  -0.4729986
   8.8549992  10.9759978   0.2960014   8.6786412  11.8269046   0.2547822
  14.4379992  11.8329978  -2.2329986  15.1829992  12.4219978  -2.3519986
  13.6809992  12.4149978  -2.1689986  14.4375470  11.9922128  -2.2406201
   2.8809992   9.1479978   0.3710014   3.2889992   8.2909978   0.2500014
   2.6199992   9.1619978   1.2920014   2.9016016   9.0325119   0.4789192
   7.5389992  10.2639978 -14.6099986   7.0789992   9.7799978 -13.9249986
   7.7939992   9.5949978 -15.2459986   7.5104856  10.1073669 -14.6021603
   6.8279992   8.1569978  -2.2539986   6.2089992   8.8309978  -1.9739986
   7.1719992   8.4779978  -3.0879986   6.7897123   8.2926887  -2.3283612
   8.6099992   8.5069978 -16.3479986   8.4289992   8.3519978 -17.2749986
   9.5599992   8.6149978 -16.3029986   8.7136566   8.5003669 -16.4689071
  11.8469992  10.6279978   1.0230014  12.8009992  10.7119978   0.9960014
  11.6869992   9.9159978   1.6430014  11.9557182  10.5432842   1.1030733
  17.9999992  10.8609978 -16.9019986  17.7259992  10.4369978 -17.7149986
  18.0389992  11.7929978 -17.1189986  17.9677716  10.9288827 -17.0425714
   7.1669992   5.5119978  -1.1719986   7.3169992   4.7829978  -1.7739986
   7.1689992   6.2889978  -1.7309986   7.1877967   5.5172708  -1.3299459
   7.5799992   3.8809978  -3.6789986   8.1149992   4.3329978  -4.3309986
   6.7269992   3.7729978  -4.1019986   7.5380374   3.9282665  -3.8253290
   9.1609992   9.3209978  -3.4399986   9.9119992   9.1649978  -4.0129986
   8.8219992  10.1729978  -3.7149986   9.2179587   9.4148138  -3.5555922
  13.5769992   7.1359978   1.5890014  13.7689992   6.2049978   1.4770014
  14.4349992   7.5609978   1.5780014  13.7192182   7.0660070   1.5721862
  14.8939992   9.9249978  -0.3339986  14.6119992  10.6339978  -0.9119986
  15.8359992   9.8519978  -0.4849986  14.9827921  10.0122193  -0.4335775
   5.6459992   6.7099978   0.7390014   4.8779992   6.1769978   0.5290014
   6.3239992   6.3999978   0.1400014   5.6327235   6.5951754   0.6292413
   8.3849992   1.3379978  -3.2479986   8.2869992   2.2839978  -3.3529986
   7.6429992   0.9649978  -3.7239986   8.2712534   1.4171773  -3.3267400
   9.6489992   5.6589978   0.3160014   9.4139992   5.4399978   1.2170014
   8.8659992   5.4519978  -0.1939986   9.5109095   5.6009892   0.3705353
  12.3649992   4.7869978  -0.6089986  11.4169992   4.8189978  -0.4769986
  12.6769992   4.1609978   0.0450014  12.2775293   4.7067923  -0.5025852
  13.9989992   3.4209978   1.3960014  13.9019992   2.4689978   1.3910014
  13.6769992   3.6889978   2.2570014  13.9422468   3.3270884   1.5116210
   3.8259992   4.6299978   0.4440014   4.0379992   3.9239978  -0.1659986
   3.7149992   4.1929978   1.2880014   3.8400269   4.4741921   0.4745873
   8.6069992   0.6319978  -0.5769986   9.3189992  -0.0080022  -0.5909986
   8.5059992   0.8979978  -1.4899986   8.6907387   0.5804330  -0.7024437
   8.9609992   2.3139978   1.4770014   8.8289992   1.8389978   0.6570014
   8.3609992   3.0589978   1.4220014   8.8619070   2.3495789   1.3573251
   8.5069992  19.1969978 -15.3469986   9.4399992  19.3549978 -15.2029986
   8.2429992  19.8729978 -15.9719986   8.5989911  19.3099373 -15.4117278
   2.0749992  13.8339978 -15.8639986   2.9889992  13.9129978 -15.5909986
   2.0829992  13.1469978 -16.5299986   2.2010655  13.7519205 -15.9167083
   0.7239992  19.2269978 -10.7869986   0.0769992  18.7649978 -11.3189986
   1.0789992  18.5549978 -10.2039986   0.6833741  19.0729774 -10.7810825
   1.5939992  17.3069978  -8.9819986   1.2599992  16.4269978  -8.8099986
   1.8169992  17.6529978  -8.1169986   1.5783721  17.2331938  -8.8415832
  19.1429992  18.1169978  -6.0009986  19.1209992  18.3019978  -5.0619986
  19.8329992  18.6849978  -6.3419986  19.2333439  18.2191887  -5.9185209
  18.7059992  17.6839978  -3.0799986  18.2189992  16.9489978  -3.4509986
  19.2549992  17.2899978  -2.4019986  18.7135247  17.5301057  -3.0391539
  17.1569992  13.4739978   1.5590014  16.2909992  13.3689978   1.9530014
  17.5329992  14.2319978   2.0050014  17.0893401  13.5621708   1.6732620
  18.4579992  11.7299978 -12.9269986  19.3079992  12.1509978 -12.7999986
  18.4629992  10.9899978 -12.3199986  18.5751143  11.6876094 -12.8275250
  18.8519992   9.7839978 -11.1039986  18.1259992   9.3039978 -10.7059986
  19.4339992   9.9889978 -10.3709986  18.8312730   9.7460184 -10.9505851
  18.6109992  12.5689978  -6.1559986  19.4449992  12.1909978  -6.4369986
  18.7229992  13.5119978  -6.2749986  18.7401917  12.6447943  -6.2105139
  17.0979992  15.4469978  -3.8489986  16.4499992  15.7719978  -3.2239986
  16.5799992  15.0059978  -4.5229986  16.9394196  15.4318651  -3.8545848
  19.1209992   9.6849978 -14.7129986  18.5989992  10.0409978 -15.4309986
  19.0879992  10.3599978 -14.0339986  19.0450129   9.8249598 -14.7196645
  17.4699992   6.9239978 -16.1619986  17.5659992   7.5909978 -16.8419986
  17.3299992   6.1089978 -16.6429986  17.4642040   6.9050671 -16.3201622
  16.6389992   8.3049978 -10.5409986  16.4889992   7.3599978 -10.5609986
  16.2849992   8.5859978  -9.6969986  16.5706351   8.2136644 -10.4296780
   1.6739992  10.3829978  -6.5299986   1.8589992  10.3009978  -7.4659986
   2.5239992  10.2589978  -6.1069986   1.8140928  10.3550463  -6.6007107
  17.4949992  10.2749978  -0.9019986  18.0779992   9.5399978  -0.7099986
  18.0589992  11.0469978  -0.8549986  17.6509781  10.2788145  -0.8693836
  18.9919992   8.1779978  -0.2169986  18.1289992   7.7989978  -0.3829986
  19.5959992   7.4389978  -0.2919986  18.9556085   8.0263223  -0.2498305
  16.7169992   4.3319978 -17.0439986  17.3279992   3.9609978 -16.4069986
  15.8799992   3.9109978 -16.8479986  16.6874947   4.2242756 -16.9302748
  16.3499992   5.8869978 -12.0779986  16.6289992   4.9799978 -11.9539986
  17.1089992   6.3209978 -12.4669986  16.4908619   5.8214502 -12.1136205
  16.9609992   6.4689978  -6.6419986  17.8939992   6.6809978  -6.6769986
  16.7259992   6.5699978  -5.7199986  17.0569517   6.5116833  -6.5220870
  16.9909992   7.2059978  -3.8659986  16.1479992   7.4739978  -3.4999986
  17.4329992   8.0279978  -4.0769986  16.9354138   7.3538273  -3.8444482
   1.2719992   5.6529978  -0.3899986   2.1909992   5.5309978  -0.1529986
   0.8219992   4.9029978   0.0000014   1.3370087   5.5349608  -0.3048590
  19.2739992   1.1859978   1.4870014  19.6229992   0.5319978   0.8820014
  19.4209992   2.0229978   1.0470014  19.3416824   1.2096024   1.3446304
  16.9629992   3.1499978 -12.0299986  17.1449992   2.7009978 -11.2049986
  16.3629992   2.5659978 -12.4939986  16.9068187   3.0095552 -11.9797261
   2.4929992   3.9659978  -7.4979986   2.9379992   3.1739978  -7.1959986
   2.9589992   4.6819978  -7.0679986   2.6169718   3.9544534  -7.3984735
   0.7969992   6.9649978  -6.4289986   1.2889992   6.7439978  -7.2199986
   1.1589992   7.8049978  -6.1479986   0.9132923   7.0483468  -6.4992593
  18.7929992   3.2949978  -0.1639986  17.8759992   3.5659978  -0.1989986
  18.9159992   2.7599978  -0.9479986  18.6839672   3.2597885  -0.2748138
  18.8299992   3.2179978 -15.5019986  19.2419992   2.4969978 -15.9769986
  19.5109992   3.8869978 -15.4439986  18.9785536   3.2097766 -15.5591976
   1.1109992   3.2229978 -12.3749986   0.1859992   3.4309978 -12.5039986
   1.5649992   3.7069978 -13.0649986   1.0456298   3.3169299 -12.4859549
  15.8809992  18.2069978 -10.4289986  16.5339992  17.8589978 -11.0369986
  16.3919992  18.6949978  -9.7829986  16.0392777  18.2253815 -10.4247953
   1.0739992   1.9609978  -4.0309986   0.4089992   1.7149978  -3.3879986
   0.6309992   2.5829978  -4.6079986   0.9231168   2.0114214  -4.0210152
   3.2659992  15.1359978   0.1140014   2.4449992  15.3109978  -0.3469986
   3.0139992  15.0629978   1.0340014   3.1195594  15.1500717   0.1753611
   6.2199992  16.1099978  -3.6279986   5.7959992  16.9199978  -3.9099986
   7.1249992  16.1959978  -3.9299986   6.2842138  16.2324160  -3.7073585
  10.5319992  17.5089978  -0.6679986  10.7159992  17.1759978   0.2100014
  11.3779992  17.8189978  -0.9899986  10.6716484  17.5052979  -0.5912383
  12.8769992  18.7949978  -1.4239986  13.5539992  18.1619978  -1.6639986
  13.1979992  19.1959978  -0.6169986  13.0131323  18.7625691  -1.3476842
  17.7939992   1.3849978  -2.3449986  16.9809992   1.7099978  -2.7319986
  18.0269992   0.6239978  -2.8779986  17.7141347   1.3266880  -2.4700159
   3.6219992  19.3669978  -3.5799986   2.9019992  19.8069978  -4.0309986
   3.2569992  19.1159978  -2.7319986   3.4739643  19.3933369  -3.5270871
   6.0889992  18.9669978  -4.5499986   5.2249992  19.0389978  -4.1459986
   6.0339992  19.5139978  -5.3339986   5.9631942  19.0507849  -4.6006000
  10.7999992  18.8549978  -5.3749986  10.3429992  19.3839978  -6.0289986
  10.9629992  19.4579978  -4.6499986  10.7594960  19.0089280  -5.3664726
  13.1279992  17.7329978  -4.4299986  12.2229992  17.8979978  -4.6959986
  13.5559992  18.5859978  -4.4959986  13.0621537  17.8709134  -4.4752905
  15.7319992  19.3029978  -4.1349986  15.5499992  20.2189978  -4.3459986
  15.9089992  18.8919978  -4.9819986  15.7310030  19.3728273  -4.2782834
   3.0369992  17.9899978  -6.6699986   3.0189992  17.5639978  -5.8129986
   3.8419992  17.6709978  -7.0789986   3.1432875  17.8886435  -6.6080485
   5.1779992  16.6999978  -8.0149986   4.9589992  15.7829978  -7.8449986
   6.0019992  16.8399978  -7.5489986   5.2594702  16.5935511  -7.9287473
   7.7149992  17.1699978  -7.1659986   7.9279992  16.2819978  -7.4529986
   7.7799992  17.1349978  -6.2119986   7.7529149  17.0438326  -7.0762631
  11.2239992   2.8339978  -8.0219986  10.5499992   2.2039978  -7.7659986
  11.7879992   2.3499978  -8.6249986  11.2080384   2.6823708  -8.0684980
  16.3669992   0.9409978  -7.9089986  16.9699992   1.4889978  -8.4109986
  15.4969992   1.2599978  -8.1499986  16.3319157   1.0590373  -8.0102090
  18.0939992   2.0799978  -9.5759986  18.7049992   1.5659978 -10.1029986
  18.4759992   2.9569978  -9.5529986  18.2293305   2.1282050  -9.6450582
   3.5509992   1.4679978 -10.1999986   2.7739992   1.2329978 -10.7069986
   4.0809992   0.6709978 -10.1909986   3.5163451   1.3281268 -10.2681373
   2.3869992   1.2659978 -14.3959986   2.8259992   1.8769978 -14.9879986
   1.7529992   1.8039978 -13.9219986   2.3613859   1.4224064 -14.4129695
   8.1299992   1.3939978 -10.3869986   9.0039992   1.7829978 -10.4159986
   7.9939992   1.1789978  -9.4639986   8.2311953   1.4181643 -10.2662383
  13.6869992   1.4239978  -8.7369986  13.7629992   1.5199978  -9.6869986
  13.4119992   0.5169978  -8.6089986  13.6601871   1.3144146  -8.8496056
  15.0399992   1.4499978 -13.0449986  14.3369992   2.0649978 -13.2549986
  14.5949992   0.6129978 -12.9139986  14.8836550   1.4209668 -13.0560163
   2.2879992  17.2139978 -13.4989986   1.6029992  17.1759978 -14.1659986
   2.2919992  18.1269978 -13.2109986   2.1947621  17.3321924 -13.5513874
   4.2479992   3.1819978 -15.9539986   4.7389992   2.5519978 -16.4809986
   4.8709992   3.4779978 -15.2909986   4.3995304   3.1357376 -15.9365060
   9.2739992   3.4749978 -13.4969986   9.4519992   2.8279978 -12.8139986
   9.2199992   4.3089978 -13.0299986   9.2910678   3.4991604 -13.3403699
  11.1519992  18.4229978 -15.1009986  12.0179992  18.7899978 -15.2789986
  10.9059992  17.9839978 -15.9149986  11.2372097  18.4138525 -15.2353981
  17.8609992  17.9859978 -12.4219986  17.6669992  17.2379978 -12.9869986
  17.8219992  18.7439978 -13.0049986  17.8291645  17.9860786 -12.5781852
   3.5079992   1.9819978  -0.6819986   3.1419992   1.2159978  -0.2399986
   4.4209992   2.0109978  -0.3959986   3.5813172   1.8810324  -0.5828110
   5.4809992   1.3319978   0.8530014   6.3799992   1.0579978   0.6690014
   5.0949992   0.5899978   1.3180014   5.5517307   1.1942196   0.8907098
   4.1059992  18.1339978 -16.4739986   3.8379992  18.4199978 -15.5999986
   4.8769992  17.5879978 -16.3209986   4.1735926  18.0992779 -16.3338795
  13.9029992   0.6649978   1.0360014  13.9789992   0.2389978   1.8890014
  14.7959992   0.6779978   0.6930014  14.0342303   0.6083493   1.1065497
  17.0789992  16.7379978  -0.2719986  16.2969992  16.5509978  -0.7919986
  17.0069992  17.6669978  -0.0549986  16.9621924  16.8380637  -0.3138398
  31.4849992  10.6239978 -10.2409986  31.5739992  11.5679978 -10.3729986
  30.8469992  10.3489978 -10.8989986  31.4109062  10.7159812 -10.3480359
  30.4179992   9.8789978  -6.8219986  30.3799992   9.2329978  -6.1169986
  30.0959992   9.4119978  -7.5929986  30.3692679   9.7274276  -6.8297079
  22.7859992   9.4929978  -5.2289986  22.8279992   8.8679978  -4.5059986
  23.4889992  10.1169978  -5.0469986  22.8867345   9.4917873  -5.1054726
  34.1239992  12.8179978  -8.5209986  33.6829992  12.0979978  -8.0699986
  34.1109992  13.5389978  -7.8909986  34.0619215  12.8169291  -8.3741895
  23.7099992  13.9429978  -6.6939986  23.3399992  13.1409978  -7.0639986
  24.6509992  13.7749978  -6.6479986  23.7865984  13.8104638  -6.7384397
  20.3199992   7.6029978 -11.3019986  19.8719992   8.4489978 -11.3199986
  19.7589992   7.0239978 -11.8169986  20.1828546   7.6403993 -11.3741109
  21.0299992   9.7649978  -9.1759986  21.2439992   8.9949978  -8.6479986
  21.7679992   9.8549978  -9.7789986  21.1590200   9.6718587  -9.1852965
  31.2359992  17.9219978  -8.3089986  31.8549992  17.2459978  -8.5819986
  31.0269992  17.7039978  -7.3999986  31.2926056  17.7998869  -8.2236033
  28.8069992  12.3109978  -6.4159986  29.1109992  11.6249978  -7.0109986
  29.5289992  12.4299978  -5.7979986  28.9461240  12.2332314  -6.4139041
  37.4699992   3.9129978  -5.5559986  37.5199992   4.5229978  -4.8199986
  37.8959992   4.3739978  -6.2789986  37.5344108   4.0587709  -5.5529888
  31.9479992   6.7049978  -6.0889986  32.0909992   5.7589978  -6.0689986
  31.8419992   6.9119978  -7.0169986  31.9532403   6.6034797  -6.2117761
  25.1029992   4.8069978  -8.8159986  25.1459992   5.6669978  -9.2349986
  24.6449992   4.2549978  -9.4499986  25.0469871   4.8499245  -8.9589239
  32.8249992   4.9379978 -10.4149986  33.4719992   4.6089978  -9.7909986
  33.3349992   5.4549978 -11.0379986  32.9824351   4.9629067 -10.4138963
  21.7229992   7.2039978  -8.0539986  22.3769992   6.6539978  -7.6219986
  21.7469992   6.9299978  -8.9709986  21.8157199   7.0917167  -8.1188332
  26.8799992   8.7539978  -8.8389986  27.4959992   8.2269978  -8.3299986
  26.2929992   8.1139978  -9.2429986  26.8850154   8.5953954  -8.8239055
  37.8619992   5.3909978  -3.3199986  37.1729992   6.0489978  -3.4149986
  37.8769992   5.1929978  -2.3829986  37.7697756   5.4542603  -3.2064188
  23.9129992   3.7249978  -4.7419986  23.6939992   4.2549978  -5.5089986
  23.2449992   3.9509978  -4.0949986  23.7926975   3.8280967  -4.7594860
  31.2819992  13.2249978 -11.1979986  30.9869992  12.9019978 -12.0499986
  30.9579992  14.1249978 -11.1569986  31.1978460  13.3024464 -11.3090286
  26.4819992  11.3999978  -4.4549986  25.7419992  11.9989978  -4.3509986
  27.1959992  11.9539978  -4.7699986  26.4773500  11.5567829  -4.4833629
  34.5889992   4.2289978  -8.4349986  34.3739992   3.4629978  -7.9019986
  35.2449992   4.7009978  -7.9219986  34.6482673   4.1880728  -8.2928010
  23.5069992   5.6169978  -6.7899986  24.1209992   6.2499978  -6.4169986
  24.0189992   5.1449978  -7.4459986  23.6601962   5.6397249  -6.8277065
  24.8899992  13.3649978  -3.6679986  24.8839992  14.2439978  -4.0459986
  24.0359992  13.2809978  -3.2429986  24.7737925  13.4739535  -3.6623113
  21.0109992  13.0359978 -12.8859986  20.7389992  13.2649978 -13.7739986
  21.0559992  13.8729978 -12.4249986  20.9798097  13.1806163 -12.9453317
  34.6359992  14.6569978  -6.1729986  33.6939992  14.7159978  -6.0109986
  34.9119992  15.5629978  -6.3099986  34.5445865  14.7875288  -6.1693808
  34.9359992   2.9439978  -4.7559986  34.1999992   3.5539978  -4.7929986
  35.6199992   3.3589978  -5.2819986  34.9275367   3.0837551  -4.8321826
  27.9399992   1.0299978  -7.2899986  27.8219992   0.0819978  -7.3439986
  27.0849992   1.3629978  -7.0169986  27.8082805   0.9452202  -7.2604921
  32.8879992  16.4379978  -9.5479986  33.3129992  15.7309978 -10.0329986
  33.2049992  17.2399978  -9.9649986  32.9890266  16.4495190  -9.6707521
  34.0479992  14.3389978 -11.0389986  33.7899992  13.6489978 -11.6509986
  34.1189992  13.8959978 -10.1939986  34.0223050  14.1846814 -11.0084379
  35.7339992  12.9059978  -2.5619986  35.8729992  12.3139978  -3.3009986
  35.9009992  13.7789978  -2.9179986  35.7756193  12.9428896  -2.7113789
  30.2059992   9.8679978 -12.7889986  29.4949992  10.4029978 -13.1409986
  30.8969992   9.9229978 -13.4489986  30.2020751   9.9486777 -12.9264142
  30.2599992   8.3249978 -15.7509986  30.9609992   8.3479978 -15.0989986
  30.5619992   7.6969978 -16.4069986  30.3968202   8.2432212 -15.7504391
  37.5749992   9.2459978  -4.4959986  36.9229992   9.9399978  -4.4069986
  38.0409992   9.4559978  -5.3059986  37.5485937   9.3695019  -4.5932467
  33.6119992  10.0769978 -11.8379986  32.8799992  10.3059978 -11.2639986
  34.0589992   9.3639978 -11.3829986  33.5723963  10.0118729 -11.6980055
  33.5089992   8.2519978  -2.7699986  33.5889992   9.0149978  -2.1979986
  32.9079992   8.5309978  -3.4599986  33.4386547   8.3942457  -2.7849953
  25.2569992  10.7079978  -9.9549986  24.9269992  10.3369978 -10.7729986
  25.8459992  10.0369978  -9.6079986  25.2913970  10.5666063 -10.0200596
  26.6239992  14.1359978  -7.2739986  26.5289992  13.5569978  -8.0299986
  27.3529992  13.7649978  -6.7779986  26.7096011  14.0065561  -7.3103972
  25.6239992   9.4759978  -6.3219986  26.1889992   9.5979978  -7.0839986
  25.9429992  10.1139978  -5.6829986  25.7444166   9.5788791  -6.3399652
  31.9329992  14.9799978  -5.5879986  31.6929992  15.6419978  -4.9399986
  31.7349992  14.1449978  -5.1629986  31.8733826  14.9578115  -5.4418434
  26.5039992  13.8759978  -1.6039986  26.1929992  14.6579978  -1.1489986
  25.8539992  13.7229978  -2.2899986  26.3735538  13.9624087  -1.6344102
  32.4829992   9.2399978 -14.1519986  33.0619992   9.3899978 -13.4059986
  32.8969992   9.7099978 -14.8759986  32.6183358   9.3240955 -14.1476047
  23.4239992  10.0739978  -2.3759986  23.4939992  10.7249978  -1.6769986
  22.5329992  10.1769978  -2.7109986  23.3131690  10.1769249  -2.3256957
  30.2089992  15.9759978 -10.7169986  30.6829992  16.2719978  -9.9399986
  29.6459992  16.7149978 -10.9499986  30.1977890  16.1163036 -10.6421899
  24.7429992  15.9469978  -0.8409986  24.7509992  15.8109978  -1.7879986
  23.8269992  15.8299978  -0.5889986  24.6202528  15.9125463  -0.9366757
  36.1819992   0.9899978 -14.3389986  35.2819992   1.1289978 -14.0439986
  36.4339992   1.8209978 -14.7409986  36.0928683   1.1214055 -14.3529768
  24.2479992   9.7769978 -12.3659986  23.9559992  10.5449978 -12.8569986
  23.5729992   9.1179978 -12.5289986  24.1168497   9.7929745 -12.4551740
  37.3709992  15.3559978 -15.9629986  37.4439992  16.2949978 -15.7929986
  38.2759992  15.0509978 -16.0189986  37.5034170  15.4433282 -15.9472937
  20.3409992  12.1399978  -3.5509986  19.8389992  12.1119978  -4.3659986
  20.3459992  11.2349978  -3.2409986  20.2729832  12.0137486  -3.6205879
  20.0909992  14.9209978  -6.6669986  21.0369992  14.7759978  -6.6859986
  19.9779992  15.7049978  -6.1299986  20.2053578  15.0071697  -6.5969683
  38.2889992  15.5869978  -0.9839986  38.2389992  14.6309978  -1.0219986
  37.4619992  15.8539978  -0.5829986  38.1703831  15.4924680  -0.9349879
  29.2669992  15.1609978  -2.1079986  29.3549992  15.9869978  -1.6329986
  28.4039992  14.8309978  -1.8589986  29.1623357  15.2295468  -2.0092347
  29.6819992  18.9329978 -12.3019986  29.6059992  18.8119978 -13.2489986
  29.7139992  19.8819978 -12.1839986  29.6759380  19.0447677 -12.4154819
  23.3349992  17.7219978 -10.5209986  23.4869992  17.3739978  -9.6429986
  22.4839992  17.3649978 -10.7769986  23.2408344  17.6260879 -10.4353132
  32.7829992  18.0869978 -15.2999986  33.1579992  17.3429978 -15.7709986
  32.7879992  17.8169978 -14.3819986  32.8350098  17.9486392 -15.2403371
  32.4519992  18.0129978 -12.5509986  31.5169992  18.1129978 -12.3719986
  32.7319992  17.3029978 -11.9719986  32.3619471  17.9307933 -12.4483305
  35.4409992   7.0799978  -0.5039986  35.0329992   7.5599978  -1.2249986
  35.4809992   6.1739978  -0.8119986  35.3906221   7.0232449  -0.6441733
  22.5899992  13.4639978  -2.5079986  22.8059992  13.1019978  -1.6479986
  21.7339992  13.0889978  -2.7169986  22.5038810  13.3638837  -2.4187320
  25.2079992   1.9339978  -6.5119986  24.3469992   1.8469978  -6.9199986
  25.1859992   2.7899978  -6.0839986  25.0870491   2.0378003  -6.5100418
  29.8709992   1.6559978  -3.1369986  30.2909992   1.2409978  -2.3839986
  28.9379992   1.4769978  -3.0199986  29.8023736   1.5749910  -3.0181032
  33.1979992   5.4109978  -2.2839986  32.6839992   5.2859978  -1.4859986
  33.0419992   6.3239978  -2.5279986  33.1066967   5.5172123  -2.2079063
  33.9599992  10.2719978 -16.5229986  34.0019992  10.0499978 -17.4529986
  34.8089992  10.6709978 -16.3329986  34.0805253  10.2955498 -16.6246178
  29.5329992   4.1479978 -15.8519986  29.2789992   4.1669978 -14.9299986
  29.2759992   3.2769978 -16.1539986  29.4634508   4.0328280 -15.7665197
  25.2989992   6.8989978  -5.4169986  24.6579992   6.8589978  -4.7079986
  25.3369992   7.8259978  -5.6549986  25.2163010   7.0187668  -5.3520054
  25.2959992   7.1199978 -10.5049986  24.4039992   6.7799978 -10.5639986
  25.7469992   6.7429978 -11.2609986  25.2347642   7.0224910 -10.6152274
  30.8319992   7.5359978 -11.6879986  30.4229992   8.3509978 -11.9799986
  31.5519992   7.3959978 -12.3019986  30.8734439   7.6285372 -11.8109885
  29.9339992   7.7119978  -0.1999986  29.3709992   7.0069978   0.1210014
  30.7599992   7.5909978   0.2680014  29.9686674   7.5992165  -0.0928249
  31.8369992   6.9819978  -8.8739986  31.6409992   7.5879978  -9.5889986
  32.0179992   6.1489978  -9.3079986  31.8346584   6.9522513  -9.0305788
  23.0489992   7.2199978  -3.5499986  23.0109992   7.6199978  -2.6809986
  22.5589992   6.4029978  -3.4599986  22.9775330   7.1642674  -3.4188711
  26.4149992   4.5939978 -16.7509986  25.9839992   4.1489978 -16.0219986
  25.6969992   4.9649978 -17.2639986  26.2589176   4.5832051 -16.7205070
  19.6579992   4.3359978  -9.6989986  20.2879992   4.3069978  -8.9799986
  20.1069992   3.9109978 -10.4299986  19.8050835   4.2745660  -9.6992341
  20.9319992   5.0819978 -14.2749986  21.4059992   5.6729978 -14.8599986
  20.2139992   5.6119978 -13.9279986  20.8998640   5.2345511 -14.3082031
  31.1009992   8.6199978  -4.2029986  31.4239992   7.9889978  -4.8459986
  30.6599992   8.0859978  -3.5419986  31.0856379   8.4613468  -4.2017418
  27.8779992   4.5479978  -9.4189986  26.9669992   4.6049978  -9.1299986
  28.3829992   4.4879978  -8.6079986  27.8216873   4.5476826  -9.2698793
  22.7059992   6.1769978 -10.5919986  21.8169992   6.2759978 -10.9319986
  23.0029992   5.3349978 -10.9379986  22.6244177   6.0767687 -10.6853060
  26.3589992   6.1769978 -12.9349986  27.2909992   6.3059978 -12.7569986
  26.1439992   6.8459978 -13.5849986  26.4574472   6.2850806 -12.9985109
  32.2829992   3.7829978  -6.1539986  31.6059992   3.9139978  -5.4909986
  31.7979992   3.6279978  -6.9649986  32.1247405   3.7799947  -6.1727830
  25.0329992   7.3709978 -15.3689986  24.4909992   6.9919978 -16.0599986
  25.8669992   7.5659978 -15.7969986  25.0714390   7.3454079 -15.5215608
  35.5709992  19.4539978   0.1220014  35.7699992  19.8779978  -0.7119986
  36.2259992  19.7979978   0.7290014  35.6868522  19.5586301   0.0897852
  23.1689992  11.9279978  -0.2699986  23.9009992  12.1829978   0.2920014
  22.3879992  12.1329978   0.2460014  23.1636526  11.9905450  -0.1234824
  29.1979992   7.3349978  -7.5319986  29.7619992   6.7889978  -8.0789986
  29.0499992   6.8139978  -6.7429986  29.2553037   7.1896787  -7.5002771
  24.1999992   3.4719978 -11.1129986  23.8829992   2.5689978 -11.1489986
  24.9809992   3.4739978 -11.6659986  24.2622431   3.3487797 -11.1926898
  27.8239992   5.7239978  -5.1179986  26.9889992   6.1779978  -5.0069986
  28.3479992   5.9999978  -4.3659986  27.7806072   5.8233948  -5.0011864
  28.3689992  11.9369978 -13.4329986  27.6239992  11.4289978 -13.7549986
  28.2339992  11.9859978 -12.4869986  28.2488963  11.8741731 -13.3491174
  35.5189992  11.0699978  -4.6459986  36.1599992  11.5259978  -5.1899986
  34.6879992  11.1829978  -5.1089986  35.4945287  11.1476921  -4.7830113
  32.2659992   4.7509978 -15.2339986  31.3279992   4.8619978 -15.3849986
  32.5639992   5.6069978 -14.9269986  32.1776318   4.8820158 -15.2131855
  29.8879992  12.1209978  -2.1959986  29.5419992  11.7389978  -1.3889986
  29.6879992  13.0539978  -2.1249986  29.8135987  12.1949002  -2.0759539
  32.9849992   6.6179978 -13.5729986  33.8769992   6.4799978 -13.2539986
  33.0409992   7.4089978 -14.1099986  33.1147325   6.7059918 -13.6018783
  23.4929992  11.2319978  -7.6629986  24.2379992  11.2289978  -8.2649986
  23.5709992  10.4079978  -7.1819986  23.6053366  11.1202384  -7.6802570
  30.4939992  13.3949978 -14.4079986  30.1989992  14.2219978 -14.0259986
  29.7909992  12.7759978 -14.2109986  30.3586379  13.4244171 -14.3291346
  20.5009992   9.6919978  -2.3479986  20.7239992   9.2739978  -1.5169986
  19.8989992   9.0799978  -2.7709986  20.4501513   9.5519606  -2.2913260
  27.5179992   9.2089978  -0.1349986  27.2219992   9.0439978  -1.0309986
  28.4489992   8.9889978  -0.1459986  27.6034401   9.1566880  -0.2589794
  32.1379992  14.5829978  -2.2459986  31.2379992  14.7659978  -2.5129986
  32.1719992  14.8419978  -1.3249986  32.0193748  14.6430554  -2.1580836
  37.8699992   6.8269978 -13.8779986  37.3149992   6.4309978 -14.5509986
  37.9699992   7.7379978 -14.1559986  37.8076816   6.8959505 -14.0074967
  37.8329992  12.6279978  -1.0409986  36.9819992  12.8659978  -1.4089986
  38.4229992  12.6109978  -1.7939986  37.7963812  12.6582524  -1.1931547
  36.1649992  15.6129978 -13.4129986  35.7919992  14.7879978 -13.1039986
  36.4419992  15.4299978 -14.3109986  36.1513463  15.4752569 -13.4920475
  33.3249992  10.4209978  -6.3919986  32.3969992  10.1899978  -6.4189986
  33.7759992   9.6439978  -6.7219986  33.2588165  10.2842774  -6.4403210
  25.8679992  14.7499978 -10.2589986  26.3959992  15.5229978 -10.4589986
  24.9879992  14.9739978 -10.5609986  25.8213435  14.8862700 -10.3272690
  21.6229992   9.6119978 -15.6719986  22.2389992  10.2389978 -15.2919986
  20.7609992   9.9279978 -15.3999986  21.5907678   9.7404412 -15.5832791
  27.2959992  12.4129978 -10.6829986  27.0549992  13.3379978 -10.6409986
  26.5549992  11.9539978 -10.2859986  27.1629206  12.4775915 -10.6236231
  27.8099992  16.5619978  -4.3679986  28.1729992  17.4159978  -4.6009986
  28.3419992  16.2699978  -3.6269986  27.9315141  16.6393895  -4.2997903
  25.9789992  17.4339978 -11.1369986  25.0289992  17.5399978 -11.0859986
  26.3309992  18.2549978 -10.7929986  25.8965472  17.5594923 -11.0835148
  31.3539992  12.6609978  -4.6669986  30.9289992  12.4329978  -3.8409986
  31.9349992  11.9219978  -4.8489986  31.3743395  12.5299545  -4.5785586
  33.5569992  13.5899978 -15.5929986  33.9109992  13.2099978 -14.7889986
  32.6089992  13.4959978 -15.5059986  33.4772298  13.5252452 -15.4711313
  34.0129992  17.2129978  -2.1979986  33.4109992  16.6569978  -2.6929986
  34.2939992  17.8799978  -2.8239986  33.9685757  17.2270744  -2.3504325
  38.0609992  18.0689978 -15.3919986  38.8049992  18.6549978 -15.5319986
  37.3669992  18.6379978 -15.0589986  38.0689809  18.2260818 -15.3661410
  22.1349992   4.4459978  -2.7899986  21.2429992   4.7839978  -2.8579986
  22.0369992   3.5899978  -2.3719986  21.9994475   4.3766543  -2.7428296
  34.4229992  12.2619978 -13.3659986  34.1459992  11.5339978 -12.8099986
  35.3509992  12.3809978 -13.1609986  34.5104499  12.1784213 -13.2621956
  21.7869992  16.2499978  -4.3549986  22.0039992  15.3179978  -4.3859986
  22.0329992  16.5249978  -3.4719986  21.8499809  16.1595686  -4.2398309
  26.5849992  14.2719978 -14.6899986  26.7319992  13.7519978 -13.8999986
  26.5819992  15.1789978 -14.3829986  26.6047102  14.3233953 -14.5404075
  23.0379992  11.5239978 -14.1789986  22.3519992  11.8769978 -13.6119986
  23.5609992  12.2869978 -14.4259986  23.0148402  11.6753901 -14.1348199
  30.8699992   4.1869978  -3.8999986  31.5689992   4.2609978  -3.2499986
  30.4889992   3.3219978  -3.7459986  30.9142097   4.0802389  -3.7902003
  31.6539992   3.8389978 -12.8029986  31.8739992   4.3099978 -13.6069986
  32.2129992   4.2329978 -12.1329986  31.7596731   3.9567287 -12.8224967
  29.3229992  15.9689978 -13.9399986  28.5059992  16.4659978 -13.8879986
  29.8519992  16.4449978 -14.5809986  29.2828125  16.1011989 -14.0194694
  28.8539992   5.5669978 -11.9679986  29.6659992   6.0709978 -11.9219986
  28.6099992   5.4219978 -11.0539986  28.9321467   5.6163749 -11.8381425
  29.3899992   6.5529978  -2.7839986  29.5089992   7.1269978  -2.0269986
  30.0449992   5.8649978  -2.6689986  29.4948684   6.5385194  -2.6648326
  29.7379992   2.6479978 -11.0299986  29.3909992   3.2649978 -10.3859986
  30.3969992   3.1489978 -11.5119986  29.7795090   2.8001575 -11.0069319
  26.6609992  17.0129978 -13.9589986  26.8219992  17.8129978 -14.4589986
  26.4639992  17.3199978 -13.0739986  26.6563906  17.1638678 -13.9077667
  25.3959992   3.7109978 -14.3429986  25.3119992   4.5989978 -13.9959986
  26.2859992   3.4459978 -14.1109986  25.5048163   3.7967179 -14.2641404
  35.5939992   4.4599978  -1.9489986  34.6779992   4.7219978  -2.0359986
  35.9299992   4.4569978  -2.8449986  35.5138499   4.4955163  -2.0821234
  34.1969992   8.2099978  -7.8529986  33.3989992   7.7949978  -8.1809986
  34.6419992   7.5199978  -7.3619986  34.1479684   8.0598628  -7.8314773
  23.6539992  14.1379978 -15.2829986  24.2459992  14.8379978 -15.0059986
  24.1129992  13.7049978 -16.0019986  23.7971652  14.1752675 -15.3423467
  21.9699992   6.8029978 -16.1669986  21.9249992   7.7419978 -15.9879986
  21.0819992   6.5669978 -16.4359986  21.8438166   6.8996687 -16.1788476
  35.2829992  17.4659978  -6.2309986  35.1269992  18.1449978  -6.8879986
  36.2159992  17.5379978  -6.0279986  35.3877387  17.5686390  -6.2934658
  22.7779992   1.5839978  -7.4929986  22.5489992   1.6429978  -8.4209986
  22.3359992   0.7929978  -7.1869986  22.6868801   1.4850540  -7.5785271
  21.7089992  15.5249978 -11.3329986  20.8759992  15.9969978 -11.3059986
  22.2539992  16.0349978 -11.9319986  21.6687857  15.6584791 -11.4102858
  20.9969992  18.1369978  -0.0029986  21.5369992  17.9209978   0.7570014
  20.5159992  17.3319978  -0.1929986  21.0059219  17.9985156   0.0754282
  25.5939992  17.0569978   1.6170014  26.3619992  16.5979978   1.9580014
  25.5729992  16.8309978   0.6870014  25.6962135  16.9636668   1.5379491
  29.6859992  16.5649978 -17.0069986  29.0419992  15.9339978 -16.6859986
  30.4479992  16.0339978 -17.2389986  29.7008058  16.4067902 -16.9943962
  32.1709992  15.4369978   0.3460014  31.8199992  14.5799978   0.5900014
  32.8969992  15.5789978   0.9530014  32.2211895  15.3391351   0.4613770
  34.2909992  16.3819978 -16.7739986  34.5739992  15.5869978 -16.3209986
  35.0299992  16.6149978 -17.3349986  34.4297096  16.3047049 -16.7878896
  20.9039992  11.9479978   0.9510014  21.0479992  11.0459978   0.6650014
  20.1319992  12.2339978   0.4640014  20.8192733  11.8631798   0.8459532
  25.2449992  12.2909978 -16.9159986  25.3099992  11.4969978 -16.3859986
  25.8979992  12.1729978 -17.6059986  25.3421605  12.1663430 -16.9367003
  27.5589992  11.9169978   0.3840014  27.2309992  12.1879978  -0.4729986
  27.7109992  10.9759978   0.2960014  27.5346412  11.8269046   0.2547822
  33.2939992  11.8329978  -2.2329986  34.0389992  12.4219978  -2.3519986
  32.5369992  12.4149978  -2.1689986  33.2935470  11.9922128  -2.2406201
  21.7369992   9.1479978   0.3710014  22.1449992   8.2909978   0.2500014
  21.4759992   9.1619978   1.2920014  21.7576016   9.0325119   0.4789192
  26.3949992  10.2639978 -14.6099986  25.9349992   9.7799978 -13.9249986
  26.6499992   9.5949978 -15.2459986  26.3664856  10.1073669 -14.6021603
  25.6839992   8.1569978  -2.2539986  25.0649992   8.8309978  -1.9739986
  26.0279992   8.4779978  -3.0879986  25.6457123   8.2926887  -2.3283612
  27.4659992   8.5069978 -16.3479986  27.2849992   8.3519978 -17.2749986
  28.4159992   8.6149978 -16.3029986  27.5696566   8.5003669 -16.4689071
  30.7029992  10.6279978   1.0230014  31.6569992  10.7119978   0.9960014
  30.5429992   9.9159978   1.6430014  30.8117182  10.5432842   1.1030733
  36.8559992  10.8609978 -16.9019986  36.5819992  10.4369978 -17.7149986
  36.8949992  11.7929978 -17.1189986  36.8237716  10.9288827 -17.0425714
  26.0229992   5.5119978  -1.1719986  26.1729992   4.7829978  -1.7739986
  26.0249992   6.2889978  -1.7309986  26.0437967   5.5172708  -1.3299459
  26.4359992   3.8809978  -3.6789986  26.9709992   4.3329978  -4.3309986
  25.5829992   3.7729978  -4.1019986  26.3940374   3.9282665  -3.8253290
  28.0169992   9.3209978  -3.4399986  28.7679992   9.1649978  -4.0129986
  27.6779992  10.1729978  -3.7149986  28.0739587   9.4148138  -3.5555922
  32.4329992   7.1359978   1.5890014  32.6249992   6.2049978   1.4770014
  33.2909992   7.5609978   1.5780014  32.5752182   7.0660070   1.5721862
  33.7499992   9.9249978  -0.3339986  33.4679992  10.6339978  -0.9119986
  34.6919992   9.8519978  -0.4849986  33.8387921  10.0122193  -0.4335775
  24.5019992   6.7099978   0.7390014  23.7339992   6.1769978   0.5290014
  25.1799992   6.3999978   0.1400014  24.4887235   6.5951754   0.6292413
  27.2409992   1.3379978  -3.2479986  27.1429992   2.2839978  -3.3529986
  26.4989992   0.9649978  -3.7239986  27.1272534   1.4171773  -3.3267400
  28.5049992   5.6589978   0.3160014  28.2699992   5.4399978   1.2170014
  27.7219992   5.4519978  -0.1939986  28.3669095   5.6009892   0.3705353
  31.2209992   4.7869978  -0.6089986  30.2729992   4.8189978  -0.4769986
  31.5329992   4.1609978   0.0450014  31.1335293   4.7067923  -0.5025852
  32.8549992   3.4209978   1.3960014  32.7579992   2.4689978   1.3910014
  32.5329992   3.6889978   2.2570014  32.7982468   3.3270884   1.5116210
  22.6819992   4.6299978   0.4440014  22.8939992   3.9239978  -0.1659986
  22.5709992   4.1929978   1.2880014  22.6960269   4.4741921   0.4745873
  27.4629992   0.6319978  -0.5769986  28.1749992  -0.0080022  -0.5909986
  27.3619992   0.8979978  -1.4899986  27.5467387   0.5804330  -0.7024437
  27.8169992   2.3139978   1.4770014  27.6849992   1.8389978   0.6570014
  27.2169992   3.0589978   1.4220014  27.7179070   2.3495789   1.3573251
  27.3629992  19.1969978 -15.3469986  28.2959992  19.3549978 -15.2029986
  27.0989992  19.8729978 -15.9719986  27.4549911  19.3099373 -15.4117278
  20.9309992  13.8339978 -15.8639986  21.8449992  13.9129978 -15.5909986
  20.9389992  13.1469978 -16.5299986  21.0570655  13.7519205 -15.9167083
  19.5799992  19.2269978 -10.7869986  18.9329992  18.7649978 -11.3189986
  19.9349992  18.5549978 -10.2039986  19.5393741  19.0729774 -10.7810825
  20.4499992  17.3069978  -8.9819986  20.1159992  16.4269978  -8.8099986
  20.6729992  17.6529978  -8.1169986  20.4343721  17.2331938  -8.8415832
  37.9989992  18.1169978  -6.0009986  37.9769992  18.3019978  -5.0619986
  38.6889992  18.6849978  -6.3419986  38.0893439  18.2191887  -5.9185209
  37.5619992  17.6839978  -3.0799986  37.0749992  16.9489978  -3.4509986
  38.1109992  17.2899978  -2.4019986  37.5695247  17.5301057  -3.0391539
  36.0129992  13.4739978   1.5590014  35.1469992  13.3689978   1.9530014
  36.3889992  14.2319978   2.0050014  35.9453401  13.5621708   1.6732620
  37.3139992  11.7299978 -12.9269986  38.1639992  12.1509978 -12.7999986
  37.3189992  10.9899978 -12.3199986  37.4311143  11.6876094 -12.8275250
  37.7079992   9.7839978 -11.1039986  36.9819992   9.3039978 -10.7059986
  38.2899992   9.9889978 -10.3709986  37.6872730   9.7460184 -10.9505851
  37.4669992  12.5689978  -6.1559986  38.3009992  12.1909978  -6.4369986
  37.5789992  13.5119978  -6.2749986  37.5961917  12.6447943  -6.2105139
  35.9539992  15.4469978  -3.8489986  35.3059992  15.7719978  -3.2239986
  35.4359992  15.0059978  -4.5229986  35.7954196  15.4318651  -3.8545848
  37.9769992   9.6849978 -14.7129986  37.4549992  10.0409978 -15.4309986
  37.9439992  10.3599978 -14.0339986  37.9010129   9.8249598 -14.7196645
  36.3259992   6.9239978 -16.1619986  36.4219992   7.5909978 -16.8419986
  36.1859992   6.1089978 -16.6429986  36.3202040   6.9050671 -16.3201622
  35.4949992   8.3049978 -10.5409986  35.3449992   7.3599978 -10.5609986
  35.1409992   8.5859978  -9.6969986  35.4266351   8.2136644 -10.4296780
  20.5299992  10.3829978  -6.5299986  20.7149992  10.3009978  -7.4659986
  21.3799992  10.2589978  -6.1069986  20.6700928  10.3550463  -6.6007107
  36.3509992  10.2749978  -0.9019986  36.9339992   9.5399978  -0.7099986
  36.9149992  11.0469978  -0.8549986  36.5069781  10.2788145  -0.8693836
  37.8479992   8.1779978  -0.2169986  36.9849992   7.7989978  -0.3829986
  38.4519992   7.4389978  -0.2919986  37.8116085   8.0263223  -0.2498305
  35.5729992   4.3319978 -17.0439986  36.1839992   3.9609978 -16.4069986
  34.7359992   3.9109978 -16.8479986  35.5434947   4.2242756 -16.9302748
  35.2059992   5.8869978 -12.0779986  35.4849992   4.9799978 -11.9539986
  35.9649992   6.3209978 -12.4669986  35.3468619   5.8214502 -12.1136205
  35.8169992   6.4689978  -6.6419986  36.7499992   6.6809978  -6.6769986
  35.5819992   6.5699978  -5.7199986  35.9129517   6.5116833  -6.5220870
  35.8469992   7.2059978  -3.8659986  35.0039992   7.4739978  -3.4999986
  36.2889992   8.0279978  -4.0769986  35.7914138   7.3538273  -3.8444482
  20.1279992   5.6529978  -0.3899986  21.0469992   5.5309978  -0.1529986
  19.6779992   4.9029978   0.0000014  20.1930087   5.5349608  -0.3048590
  38.1299992   1.1859978   1.4870014  38.4789992   0.5319978   0.8820014
  38.2769992   2.0229978   1.0470014  38.1976824   1.2096024   1.3446304
  35.8189992   3.1499978 -12.0299986  36.0009992   2.7009978 -11.2049986
  35.2189992   2.5659978 -12.4939986  35.7628187   3.0095552 -11.9797261
  21.3489992   3.9659978  -7.4979986  21.7939992   3.1739978  -7.1959986
  21.8149992   4.6819978  -7.0679986  21.4729718   3.9544534  -7.3984735
  19.6529992   6.9649978  -6.4289986  20.1449992   6.7439978  -7.2199986
  20.0149992   7.8049978  -6.1479986  19.7692923   7.0483468  -6.4992593
  37.6489992   3.2949978  -0.1639986  36.7319992   3.5659978  -0.1989986
  37.7719992   2.7599978  -0.9479986  37.5399672   3.2597885  -0.2748138
  37.6859992   3.2179978 -15.5019986  38.0979992   2.4969978 -15.9769986
  38.3669992   3.8869978 -15.4439986  37.8345536   3.2097766 -15.5591976
  19.9669992   3.2229978 -12.3749986  19.0419992   3.4309978 -12.5039986
  20.4209992   3.7069978 -13.0649986  19.9016298   3.3169299 -12.4859549
  34.7369992  18.2069978 -10.4289986  35.3899992  17.8589978 -11.0369986
  35.2479992  18.6949978  -9.7829986  34.8952777  18.2253815 -10.4247953
  19.9299992   1.9609978  -4.0309986  19.2649992   1.7149978  -3.3879986
  19.4869992   2.5829978  -4.6079986  19.7791168   2.0114214  -4.0210152
  22.1219992  15.1359978   0.1140014  21.3009992  15.3109978  -0.3469986
  21.8699992  15.0629978   1.0340014  21.9755594  15.1500717   0.1753611
  25.0759992  16.1099978  -3.6279986  24.6519992  16.9199978  -3.9099986
  25.9809992  16.1959978  -3.9299986  25.1402138  16.2324160  -3.7073585
  29.3879992  17.5089978  -0.6679986  29.5719992  17.1759978   0.2100014
  30.2339992  17.8189978  -0.9899986  29.5276484  17.5052979  -0.5912383
  31.7329992  18.7949978  -1.4239986  32.4099992  18.1619978  -1.6639986
  32.0539992  19.1959978  -0.6169986  31.8691323  18.7625691  -1.3476842
  36.6499992   1.3849978  -2.3449986  35.8369992   1.7099978  -2.7319986
  36.8829992   0.6239978  -2.8779986  36.5701347   1.3266880  -2.4700159
  22.4779992  19.3669978  -3.5799986  21.7579992  19.8069978  -4.0309986
  22.1129992  19.1159978  -2.7319986  22.3299643  19.3933369  -3.5270871
  24.9449992  18.9669978  -4.5499986  24.0809992  19.0389978  -4.1459986
  24.8899992  19.5139978  -5.3339986  24.8191942  19.0507849  -4.6006000
  29.6559992  18.8549978  -5.3749986  29.1989992  19.3839978  -6.0289986
  29.8189992  19.4579978  -4.6499986  29.6154960  19.0089280  -5.3664726
  31.9839992  17.7329978  -4.4299986  31.0789992  17.8979978  -4.6959986
  32.4119992  18.5859978  -4.4959986  31.9181537  17.8709134  -4.4752905
  34.5879992  19.3029978  -4.1349986  34.4059992  20.2189978  -4.3459986
  34.7649992  18.8919978  -4.9819986  34.5870030  19.3728273  -4.2782834
  21.8929992  17.9899978  -6.6699986  21.8749992  17.5639978  -5.8129986
  22.6979992  17.6709978  -7.0789986  21.9992875  17.8886435  -6.6080485
  24.0339992  16.6999978  -8.0149986  23.8149992  15.7829978  -7.8449986
  24.8579992  16.8399978  -7.5489986  24.1154702  16.5935511  -7.9287473
  26.5709992  17.1699978  -7.1659986  26.7839992  16.2819978  -7.4529986
  26.6359992  17.1349978  -6.2119986  26.6089149  17.0438326  -7.0762631
  30.0799992   2.8339978  -8.0219986  29.4059992   2.2039978  -7.7659986
  30.6439992   2.3499978  -8.6249986  30.0640384   2.6823708  -8.0684980
  35.2229992   0.9409978  -7.9089986  35.8259992   1.4889978  -8.4109986
  34.3529992   1.2599978  -8.1499986  35.1879157   1.0590373  -8.0102090
  36.9499992   2.0799978  -9.5759986  37.5609992   1.5659978 -10.1029986
  37.3319992   2.9569978  -9.5529986  37.0853305   2.1282050  -9.6450582
  22.4069992   1.4679978 -10.1999986  21.6299992   1.2329978 -10.7069986
  22.9369992   0.6709978 -10.1909986  22.3723451   1.3281268 -10.2681373
  21.2429992   1.2659978 -14.3959986  21.6819992   1.8769978 -14.9879986
  20.6089992   1.8039978 -13.9219986  21.2173859   1.4224064 -14.4129695
  26.9859992   1.3939978 -10.3869986  27.8599992   1.7829978 -10.4159986
  26.8499992   1.1789978  -9.4639986  27.0871953   1.4181643 -10.2662383
  32.5429992   1.4239978  -8.7369986  32.6189992   1.5199978  -9.6869986
  32.2679992   0.5169978  -8.6089986  32.5161871   1.3144146  -8.8496056
  33.8959992   1.4499978 -13.0449986  33.1929992   2.0649978 -13.2549986
  33.4509992   0.6129978 -12.9139986  33.7396550   1.4209668 -13.0560163
  21.1439992  17.2139978 -13.4989986  20.4589992  17.1759978 -14.1659986
  21.1479992  18.1269978 -13.2109986  21.0507621  17.3321924 -13.5513874
  23.1039992   3.1819978 -15.9539986  23.5949992   2.5519978 -16.4809986
  23.7269992   3.4779978 -15.2909986  23.2555304   3.1357376 -15.9365060
  28.1299992   3.4749978 -13.4969986  28.3079992   2.8279978 -12.8139986
  28.0759992   4.3089978 -13.0299986  28.1470678   3.4991604 -13.3403699
  30.0079992  18.4229978 -15.1009986  30.8739992  18.7899978 -15.2789986
  29.7619992  17.9839978 -15.9149986  30.0932097  18.4138525 -15.2353981
  36.7169992  17.9859978 -12.4219986  36.5229992  17.2379978 -12.9869986
  36.6779992  18.7439978 -13.0049986  36.6851645  17.9860786 -12.5781852
  22.3639992   1.9819978  -0.6819986  21.9979992   1.2159978  -0.2399986
  23.2769992   2.0109978  -0.3959986  22.4373172   1.8810324  -0.5828110
  24.3369992   1.3319978   0.8530014  25.2359992   1.0579978   0.6690014
  23.9509992   0.5899978   1.3180014  24.4077307   1.1942196   0.8907098
  22.9619992  18.1339978 -16.4739986  22.6939992  18.4199978 -15.5999986
  23.7329992  17.5879978 -16.3209986  23.0295926  18.0992779 -16.3338795
  32.7589992   0.6649978   1.0360014  32.8349992   0.2389978   1.8890014
  33.6519992   0.6779978   0.6930014  32.8902303   0.6083493   1.1065497
  35.9349992  16.7379978  -0.2719986  35.1529992  16.5509978  -0.7919986
  35.8629992  17.6669978  -0.0549986  35.8181924  16.8380637  -0.3138398
  50.3409992  10.6239978 -10.2409986  50.4299992  11.5679978 -10.3729986
  49.7029992  10.3489978 -10.8989986  50.2669062  10.7159812 -10.3480359
  49.2739992   9.8789978  -6.8219986  49.2359992   9.2329978  -6.1169986
  48.9519992   9.4119978  -7.5929986  49.2252679   9.7274276  -6.8297079
  41.6419992   9.4929978  -5.2289986  41.6839992   8.8679978  -4.5059986
  42.3449992  10.1169978  -5.0469986  41.7427345   9.4917873  -5.1054726
  52.9799992  12.8179978  -8.5209986  52.5389992  12.0979978  -8.0699986
  52.9669992  13.5389978  -7.8909986  52.9179215  12.8169291  -8.3741895
  42.5659992  13.9429978  -6.6939986  42.1959992  13.1409978  -7.0639986
  43.5069992  13.7749978  -6.6479986  42.6425984  13.8104638  -6.7384397
  39.1759992   7.6029978 -11.3019986  38.7279992   8.4489978 -11.3199986
  38.6149992   7.0239978 -11.8169986  39.0388546   7.6403993 -11.3741109
  39.8859992   9.7649978  -9.1759986  40.0999992   8.9949978  -8.6479986
  40.6239992   9.8549978  -9.7789986  40.0150200   9.6718587  -9.1852965
  50.0919992  17.9219978  -8.3089986  50.7109992  17.2459978  -8.5819986
  49.8829992  17.7039978  -7.3999986  50.1486056  17.7998869  -8.2236033
  47.6629992  12.3109978  -6.4159986  47.9669992  11.6249978  -7.0109986
  48.3849992  12.4299978  -5.7979986  47.8021240  12.2332314  -6.4139041
  56.3259992   3.9129978  -5.5559986  56.3759992   4.5229978  -4.8199986
  56.7519992   4.3739978  -6.2789986  56.3904108   4.0587709  -5.5529888
  50.8039992   6.7049978  -6.0889986  50.9469992   5.7589978  -6.0689986
  50.6979992   6.9119978  -7.0169986  50.8092403   6.6034797  -6.2117761
  43.9589992   4.8069978  -8.8159986  44.0019992   5.6669978  -9.2349986
  43.5009992   4.2549978  -9.4499986  43.9029871   4.8499245  -8.9589239
  51.6809992   4.9379978 -10.4149986  52.3279992   4.6089978  -9.7909986
  52.1909992   5.4549978 -11.0379986  51.8384351   4.9629067 -10.4138963
  40.5789992   7.2039978  -8.0539986  41.2329992   6.6539978  -7.6219986
  40.6029992   6.9299978  -8.9709986  40.6717199   7.0917167  -8.1188332
  45.7359992   8.7539978  -8.8389986  46.3519992   8.2269978  -8.3299986
  45.1489992   8.1139978  -9.2429986  45.7410154   8.5953954  -8.8239055
  56.7179992   5.3909978  -3.3199986  56.0289992   6.0489978  -3.4149986
  56.7329992   5.1929978  -2.3829986  56.6257756   5.4542603  -3.2064188
  42.7689992   3.7249978  -4.7419986  42.5499992   4.2549978  -5.5089986
  42.1009992   3.9509978  -4.0949986  42.6486975   3.8280967  -4.7594860
  50.1379992  13.2249978 -11.1979986  49.8429992  12.9019978 -12.0499986
  49.8139992  14.1249978 -11.1569986  50.0538460  13.3024464 -11.3090286
  45.3379992  11.3999978  -4.4549986  44.5979992  11.9989978  -4.3509986
  46.0519992  11.9539978  -4.7699986  45.3333500  11.5567829  -4.4833629
  53.4449992   4.2289978  -8.4349986  53.2299992   3.4629978  -7.9019986
  54.1009992   4.7009978  -7.9219986  53.5042673   4.1880728  -8.2928010
  42.3629992   5.6169978  -6.7899986  42.9769992   6.2499978  -6.4169986
  42.8749992   5.1449978  -7.4459986  42.5161962   5.6397249  -6.8277065
  43.7459992  13.3649978  -3.6679986  43.7399992  14.2439978  -4.0459986
  42.8919992  13.2809978  -3.2429986  43.6297925  13.4739535  -3.6623113
  39.8669992  13.0359978 -12.8859986  39.5949992  13.2649978 -13.7739986
  39.9119992  13.8729978 -12.4249986  39.8358097  13.1806163 -12.9453317
  53.4919992  14.6569978  -6.1729986  52.5499992  14.7159978  -6.0109986
  53.7679992  15.5629978  -6.3099986  53.4005865  14.7875288  -6.1693808
  53.7919992   2.9439978  -4.7559986  53.0559992   3.5539978  -4.7929986
  54.4759992   3.3589978  -5.2819986  53.7835367   3.0837551  -4.8321826
  46.7959992   1.0299978  -7.2899986  46.6779992   0.0819978  -7.3439986
  45.9409992   1.3629978  -7.0169986  46.6642805   0.9452202  -7.2604921
  51.7439992  16.4379978  -9.5479986  52.1689992  15.7309978 -10.0329986
  52.0609992  17.2399978  -9.9649986  51.8450266  16.4495190  -9.6707521
  52.9039992  14.3389978 -11.0389986  52.6459992  13.6489978 -11.6509986
  52.9749992  13.8959978 -10.1939986  52.8783050  14.1846814 -11.0084379
  54.5899992  12.9059978  -2.5619986  54.7289992  12.3139978  -3.3009986
  54.7569992  13.7789978  -2.9179986  54.6316193  12.9428896  -2.7113789
  49.0619992   9.8679978 -12.7889986  48.3509992  10.4029978 -13.1409986
  49.7529992   9.9229978 -13.4489986  49.0580751   9.9486777 -12.9264142
  49.1159992   8.3249978 -15.7509986  49.8169992   8.3479978 -15.0989986
  49.4179992   7.6969978 -16.4069986  49.2528202   8.2432212 -15.7504391
  56.4309992   9.2459978  -4.4959986  55.7789992   9.9399978  -4.4069986
  56.8969992   9.4559978  -5.3059986  56.4045937   9.3695019  -4.5932467
  52.4679992  10.0769978 -11.8379986  51.7359992  10.3059978 -11.2639986
  52.9149992   9.3639978 -11.3829986  52.4283963  10.0118729 -11.6980055
  52.3649992   8.2519978  -2.7699986  52.4449992   9.0149978  -2.1979986
  51.7639992   8.5309978  -3.4599986  52.2946547   8.3942457  -2.7849953
  44.1129992  10.7079978  -9.9549986  43.7829992  10.3369978 -10.7729986
  44.7019992  10.0369978  -9.6079986  44.1473970  10.5666063 -10.0200596
  45.4799992  14.1359978  -7.2739986  45.3849992  13.5569978  -8.0299986
  46.2089992  13.7649978  -6.7779986  45.5656011  14.0065561  -7.3103972
  44.4799992   9.4759978  -6.3219986  45.0449992   9.5979978  -7.0839986
  44.7989992  10.1139978  -5.6829986  44.6004166   9.5788791  -6.3399652
  50.7889992  14.9799978  -5.5879986  50.5489992  15.6419978  -4.9399986
  50.5909992  14.1449978  -5.1629986  50.7293826  14.9578115  -5.4418434
  45.3599992  13.8759978  -1.6039986  45.0489992  14.6579978  -1.1489986
  44.7099992  13.7229978  -2.2899986  45.2295538  13.9624087  -1.6344102
  51.3389992   9.2399978 -14.1519986  51.9179992   9.3899978 -13.4059986
  51.7529992   9.7099978 -14.8759986  51.4743358   9.3240955 -14.1476047
  42.2799992  10.0739978  -2.3759986  42.3499992  10.7249978  -1.6769986
  41.3889992  10.1769978  -2.7109986  42.1691690  10.1769249  -2.3256957
  49.0649992  15.9759978 -10.7169986  49.5389992  16.2719978  -9.9399986
  48.5019992  16.7149978 -10.9499986  49.0537890  16.1163036 -10.6421899
  43.5989992  15.9469978  -0.8409986  43.6069992  15.8109978  -1.7879986
  42.6829992  15.8299978  -0.5889986  43.4762528  15.9125463  -0.9366757
  55.0379992   0.9899978 -14.3389986  54.1379992   1.1289978 -14.0439986
  55.2899992   1.8209978 -14.7409986  54.9488683   1.1214055 -14.3529768
  43.1039992   9.7769978 -12.3659986  42.8119992  10.5449978 -12.8569986
  42.4289992   9.1179978 -12.5289986  42.9728497   9.7929745 -12.4551740
  56.2269992  15.3559978 -15.9629986  56.2999992  16.2949978 -15.7929986
  57.1319992  15.0509978 -16.0189986  56.3594170  15.4433282 -15.9472937
  39.1969992  12.1399978  -3.5509986  38.6949992  12.1119978  -4.3659986
  39.2019992  11.2349978  -3.2409986  39.1289832  12.0137486  -3.6205879
  38.9469992  14.9209978  -6.6669986  39.8929992  14.7759978  -6.6859986
  38.8339992  15.7049978  -6.1299986  39.0613578  15.0071697  -6.5969683
  57.1449992  15.5869978  -0.9839986  57.0949992  14.6309978  -1.0219986
  56.3179992  15.8539978  -0.5829986  57.0263831  15.4924680  -0.9349879
  48.1229992  15.1609978  -2.1079986  48.2109992  15.9869978  -1.6329986
  47.2599992  14.8309978  -1.8589986  48.0183357  15.2295468  -2.0092347
  48.5379992  18.9329978 -12.3019986  48.4619992  18.8119978 -13.2489986
  48.5699992  19.8819978 -12.1839986  48.5319380  19.0447677 -12.4154819
  42.1909992  17.7219978 -10.5209986  42.3429992  17.3739978  -9.6429986
  41.3399992  17.3649978 -10.7769986  42.0968344  17.6260879 -10.4353132
  51.6389992  18.0869978 -15.2999986  52.0139992  17.3429978 -15.7709986
  51.6439992  17.8169978 -14.3819986  51.6910098  17.9486392 -15.2403371
  51.3079992  18.0129978 -12.5509986  50.3729992  18.1129978 -12.3719986
  51.5879992  17.3029978 -11.9719986  51.2179471  17.9307933 -12.4483305
  54.2969992   7.0799978  -0.5039986  53.8889992   7.5599978  -1.2249986
  54.3369992   6.1739978  -0.8119986  54.2466221   7.0232449  -0.6441733
  41.4459992  13.4639978  -2.5079986  41.6619992  13.1019978  -1.6479986
  40.5899992  13.0889978  -2.7169986  41.3598810  13.3638837  -2.4187320
  44.0639992   1.9339978  -6.5119986  43.2029992   1.8469978  -6.9199986
  44.0419992   2.7899978  -6.0839986  43.9430491   2.0378003  -6.5100418
  48.7269992   1.6559978  -3.1369986  49.1469992   1.2409978  -2.3839986
  47.7939992   1.4769978  -3.0199986  48.6583736   1.5749910  -3.0181032
  52.0539992   5.4109978  -2.2839986  51.5399992   5.2859978  -1.4859986
  51.8979992   6.3239978  -2.5279986  51.9626967   5.5172123  -2.2079063
  52.8159992  10.2719978 -16.5229986  52.8579992  10.0499978 -17.4529986
  53.6649992  10.6709978 -16.3329986  52.9365253  10.2955498 -16.6246178
  48.3889992   4.1479978 -15.8519986  48.1349992   4.1669978 -14.9299986
  48.1319992   3.2769978 -16.1539986  48.3194508   4.0328280 -15.7665197
  44.1549992   6.8989978  -5.4169986  43.5139992   6.8589978  -4.7079986
  44.1929992   7.8259978  -5.6549986  44.0723010   7.0187668  -5.3520054
  44.1519992   7.1199978 -10.5049986  43.2599992   6.7799978 -10.5639986
  44.6029992   6.7429978 -11.2609986  44.0907642   7.0224910 -10.6152274
  49.6879992   7.5359978 -11.6879986  49.2789992   8.3509978 -11.9799986
  50.4079992   7.3959978 -12.3019986  49.7294439   7.6285372 -11.8109885
  48.7899992   7.7119978  -0.1999986  48.2269992   7.0069978   0.1210014
  49.6159992   7.5909978   0.2680014  48.8246674   7.5992165  -0.0928249
  50.6929992   6.9819978  -8.8739986  50.4969992   7.5879978  -9.5889986
  50.8739992   6.1489978  -9.3079986  50.6906584   6.9522513  -9.0305788
  41.9049992   7.2199978  -3.5499986  41.8669992   7.6199978  -2.6809986
  41.4149992   6.4029978  -3.4599986  41.8335330   7.1642674  -3.4188711
  45.2709992   4.5939978 -16.7509986  44.8399992   4.1489978 -16.0219986
  44.5529992   4.9649978 -17.2639986  45.1149176   4.5832051 -16.7205070
  38.5139992   4.3359978  -9.6989986  39.1439992   4.3069978  -8.9799986
  38.9629992   3.9109978 -10.4299986  38.6610835   4.2745660  -9.6992341
  39.7879992   5.0819978 -14.2749986  40.2619992   5.6729978 -14.8599986
  39.0699992   5.6119978 -13.9279986  39.7558640   5.2345511 -14.3082031
  49.9569992   8.6199978  -4.2029986  50.2799992   7.9889978  -4.8459986
  49.5159992   8.0859978  -3.5419986  49.9416379   8.4613468  -4.2017418
  46.7339992   4.5479978  -9.4189986  45.8229992   4.6049978  -9.1299986
  47.2389992   4.4879978  -8.6079986  46.6776873   4.5476826  -9.2698793
  41.5619992   6.1769978 -10.5919986  40.6729992   6.2759978 -10.9319986
  41.8589992   5.3349978 -10.9379986  41.4804177   6.0767687 -10.6853060
  45.2149992   6.1769978 -12.9349986  46.1469992   6.3059978 -12.7569986
  44.9999992   6.8459978 -13.5849986  45.3134472   6.2850806 -12.9985109
  51.1389992   3.7829978  -6.1539986  50.4619992   3.9139978  -5.4909986
  50.6539992   3.6279978  -6.9649986  50.9807405   3.7799947  -6.1727830
  43.8889992   7.3709978 -15.3689986  43.3469992   6.9919978 -16.0599986
  44.7229992   7.5659978 -15.7969986  43.9274390   7.3454079 -15.5215608
  54.4269992  19.4539978   0.1220014  54.6259992  19.8779978  -0.7119986
  55.0819992  19.7979978   0.7290014  54.5428522  19.5586301   0.0897852
  42.0249992  11.9279978  -0.2699986  42.7569992  12.1829978   0.2920014
  41.2439992  12.1329978   0.2460014  42.0196526  11.9905450  -0.1234824
  48.0539992   7.3349978  -7.5319986  48.6179992   6.7889978  -8.0789986
  47.9059992   6.8139978  -6.7429986  48.1113037   7.1896787  -7.5002771
  43.0559992   3.4719978 -11.1129986  42.7389992   2.5689978 -11.1489986
  43.8369992   3.4739978 -11.6659986  43.1182431   3.3487797 -11.1926898
  46.6799992   5.7239978  -5.1179986  45.8449992   6.1779978  -5.0069986
  47.2039992   5.9999978  -4.3659986  46.6366072   5.8233948  -5.0011864
  47.2249992  11.9369978 -13.4329986  46.4799992  11.4289978 -13.7549986
  47.0899992  11.9859978 -12.4869986  47.1048963  11.8741731 -13.3491174
  54.3749992  11.0699978  -4.6459986  55.0159992  11.5259978  -5.1899986
  53.5439992  11.1829978  -5.1089986  54.3505287  11.1476921  -4.7830113
  51.1219992   4.7509978 -15.2339986  50.1839992   4.8619978 -15.3849986
  51.4199992   5.6069978 -14.9269986  51.0336318   4.8820158 -15.2131855
  48.7439992  12.1209978  -2.1959986  48.3979992  11.7389978  -1.3889986
  48.5439992  13.0539978  -2.1249986  48.6695987  12.1949002  -2.0759539
  51.8409992   6.6179978 -13.5729986  52.7329992   6.4799978 -13.2539986
  51.8969992   7.4089978 -14.1099986  51.9707325   6.7059918 -13.6018783
  42.3489992  11.2319978  -7.6629986  43.0939992  11.2289978  -8.2649986
  42.4269992  10.4079978  -7.1819986  42.4613365  11.1202384  -7.6802570
  49.3499992  13.3949978 -14.4079986  49.0549992  14.2219978 -14.0259986
  48.6469992  12.7759978 -14.2109986  49.2146379  13.4244171 -14.3291346
  39.3569992   9.6919978  -2.3479986  39.5799992   9.2739978  -1.5169986
  38.7549992   9.0799978  -2.7709986  39.3061513   9.5519606  -2.2913260
  46.3739992   9.2089978  -0.1349986  46.0779992   9.0439978  -1.0309986
  47.3049992   8.9889978  -0.1459986  46.4594401   9.1566879  -0.2589794
  50.9939992  14.5829978  -2.2459986  50.0939992  14.7659978  -2.5129986
  51.0279992  14.8419978  -1.3249986  50.8753748  14.6430554  -2.1580836
  56.7259992   6.8269978 -13.8779986  56.1709992   6.4309978 -14.5509986
  56.8259992   7.7379978 -14.1559986  56.6636816   6.8959505 -14.0074967
  56.6889992  12.6279978  -1.0409986  55.8379992  12.8659978  -1.4089986
  57.2789992  12.6109978  -1.7939986  56.6523812  12.6582524  -1.1931547
  55.0209992  15.6129978 -13.4129986  54.6479992  14.7879978 -13.1039986
  55.2979992  15.4299978 -14.3109986  55.0073463  15.4752569 -13.4920475
  52.1809992  10.4209978  -6.3919986  51.2529992  10.1899978  -6.4189986
  52.6319992   9.6439978  -6.7219986  52.1148165  10.2842774  -6.4403210
  44.7239992  14.7499978 -10.2589986  45.2519992  15.5229978 -10.4589986
  43.8439992  14.9739978 -10.5609986  44.6773435  14.8862700 -10.3272690
  40.4789992   9.6119978 -15.6719986  41.0949992  10.2389978 -15.2919986
  39.6169992   9.9279978 -15.3999986  40.4467678   9.7404412 -15.5832791
  46.1519992  12.4129978 -10.6829986  45.9109992  13.3379978 -10.6409986
  45.4109992  11.9539978 -10.2859986  46.0189206  12.4775915 -10.6236231
  46.6659992  16.5619978  -4.3679986  47.0289992  17.4159978  -4.6009986
  47.1979992  16.2699978  -3.6269986  46.7875141  16.6393895  -4.2997903
  44.8349992  17.4339978 -11.1369986  43.8849992  17.5399978 -11.0859986
  45.1869992  18.2549978 -10.7929986  44.7525472  17.5594923 -11.0835148
  50.2099992  12.6609978  -4.6669986  49.7849992  12.4329978  -3.8409986
  50.7909992  11.9219978  -4.8489986  50.2303395  12.5299545  -4.5785586
  52.4129992  13.5899978 -15.5929986  52.7669992  13.2099978 -14.7889986
  51.4649992  13.4959978 -15.5059986  52.3332298  13.5252452 -15.4711313
  52.8689992  17.2129978  -2.1979986  52.2669992  16.6569978  -2.6929986
  53.1499992  17.8799978  -2.8239986  52.8245757  17.2270744  -2.3504325
  56.9169992  18.0689978 -15.3919986  57.6609992  18.6549978 -15.5319986
  56.2229992  18.6379978 -15.0589986  56.9249809  18.2260818 -15.3661410
  40.9909992   4.4459978  -2.7899986  40.0989992   4.7839978  -2.8579986
  40.8929992   3.5899978  -2.3719986  40.8554475   4.3766543  -2.7428296
  53.2789992  12.2619978 -13.3659986  53.0019992  11.5339978 -12.8099986
  54.2069992  12.3809978 -13.1609986  53.3664499  12.1784213 -13.2621956
  40.6429992  16.2499978  -4.3549986  40.8599992  15.3179978  -4.3859986
  40.8889992  16.5249978  -3.4719986  40.7059809  16.1595686  -4.2398309
  45.4409992  14.2719978 -14.6899986  45.5879992  13.7519978 -13.8999986
  45.4379992  15.1789978 -14.3829986  45.4607102  14.3233953 -14.5404075
  41.8939992  11.5239978 -14.1789986  41.2079992  11.8769978 -13.6119986
  42.4169992  12.2869978 -14.4259986  41.8708402  11.6753901 -14.1348199
  49.7259992   4.1869978  -3.8999986  50.4249992   4.2609978  -3.2499986
  49.3449992   3.3219978  -3.7459986  49.7702097   4.0802389  -3.7902003
  50.5099992   3.8389978 -12.8029986  50.7299992   4.3099978 -13.6069986
  51.0689992   4.2329978 -12.1329986  50.6156731   3.9567287 -12.8224967
  48.1789992  15.9689978 -13.9399986  47.3619992  16.4659978 -13.8879986
  48.7079992  16.4449978 -14.5809986  48.1388125  16.1011989 -14.0194694
  47.7099992   5.5669978 -11.9679986  48.5219992   6.0709978 -11.9219986
  47.4659992   5.4219978 -11.0539986  47.7881467   5.6163749 -11.8381425
  48.2459992   6.5529978  -2.7839986  48.3649992   7.1269978  -2.0269986
  48.9009992   5.8649978  -2.6689986  48.3508684   6.5385194  -2.6648326
  48.5939992   2.6479978 -11.0299986  48.2469992   3.2649978 -10.3859986
  49.2529992   3.1489978 -11.5119986  48.6355090   2.8001575 -11.0069319
  45.5169992  17.0129978 -13.9589986  45.6779992  17.8129978 -14.4589986
  45.3199992  17.3199978 -13.0739986  45.5123906  17.1638678 -13.9077667
  44.2519992   3.7109978 -14.3429986  44.1679992   4.5989978 -13.9959986
  45.1419992   3.4459978 -14.1109986  44.3608163   3.7967179 -14.2641404
  54.4499992   4.4599978  -1.9489986  53.5339992   4.7219978  -2.0359986
  54.7859992   4.4569978  -2.8449986  54.3698499   4.4955163  -2.0821234
  53.0529992   8.2099978  -7.8529986  52.2549992   7.7949978  -8.1809986
  53.4979992   7.5199978  -7.3619986  53.0039684   8.0598628  -7.8314773
  42.5099992  14.1379978 -15.2829986  43.1019992  14.8379978 -15.0059986
  42.9689992  13.7049978 -16.0019986  42.6531652  14.1752675 -15.3423467
  40.8259992   6.8029978 -16.1669986  40.7809992   7.7419978 -15.9879986
  39.9379992   6.5669978 -16.4359986  40.6998166   6.8996687 -16.1788476
  54.1389992  17.4659978  -6.2309986  53.9829992  18.1449978  -6.8879986
  55.0719992  17.5379978  -6.0279986  54.2437387  17.5686390  -6.2934658
  41.6339992   1.5839978  -7.4929986  41.4049992   1.6429978  -8.4209986
  41.1919992   0.7929978  -7.1869986  41.5428801   1.4850540  -7.5785271
  40.5649992  15.5249978 -11.3329986  39.7319992  15.9969978 -11.3059986
  41.1099992  16.0349978 -11.9319986  40.5247857  15.6584791 -11.4102858
  39.8529992  18.1369978  -0.0029986  40.3929992  17.9209978   0.7570014
  39.3719992  17.3319978  -0.1929986  39.8619219  17.9985156   0.0754282
  44.4499992  17.0569978   1.6170014  45.2179992  16.5979978   1.9580014
  44.4289992  16.8309978   0.6870014  44.5522135  16.9636668   1.5379491
  48.5419992  16.5649978 -17.0069986  47.8979992  15.9339978 -16.6859986
  49.3039992  16.0339978 -17.2389986  48.5568058  16.4067902 -16.9943962
  51.0269992  15.4369978   0.3460014  50.6759992  14.5799978   0.5900014
  51.7529992  15.5789978   0.9530014  51.0771895  15.3391351   0.4613770
  53.1469992  16.3819978 -16.7739986  53.4299992  15.5869978 -16.3209986
  53.8859992  16.6149978 -17.3349986  53.2857096  16.3047049 -16.7878896
  39.7599992  11.9479978   0.9510014  39.9039992  11.0459978   0.6650014
  38.9879992  12.2339978   0.4640014  39.6752733  11.8631798   0.8459532
  44.1009992  12.2909978 -16.9159986  44.1659992  11.4969978 -16.3859986
  44.7539992  12.1729978 -17.6059986  44.1981605  12.1663430 -16.9367003
  46.4149992  11.9169978   0.3840014  46.0869992  12.1879978  -0.4729986
  46.5669992  10.9759978   0.2960014  46.3906412  11.8269046   0.2547822
  52.1499992  11.8329978  -2.2329986  52.8949992  12.4219978  -2.3519986
  51.3929992  12.4149978  -2.1689986  52.1495470  11.9922128  -2.2406201
  40.5929992   9.1479978   0.3710014  41.0009992   8.2909978   0.2500014
  40.3319992   9.1619978   1.2920014  40.6136016   9.0325119   0.4789192
  45.2509992  10.2639978 -14.6099986  44.7909992   9.7799978 -13.9249986
  45.5059992   9.5949978 -15.2459986  45.2224856  10.1073669 -14.6021603
  44.5399992   8.1569978  -2.2539986  43.9209992   8.8309978  -1.9739986
  44.8839992   8.4779978  -3.0879986  44.5017123   8.2926887  -2.3283612
  46.3219992   8.5069978 -16.3479986  46.1409992   8.3519978 -17.2749986
  47.2719992   8.6149978 -16.3029986  46.4256566   8.5003669 -16.4689071
  49.5589992  10.6279978   1.0230014  50.5129992  10.7119978   0.9960014
  49.3989992   9.9159978   1.6430014  49.6677182  10.5432842   1.1030733
  55.7119992  10.8609978 -16.9019986  55.4379992  10.4369978 -17.7149986
  55.7509992  11.7929978 -17.1189986  55.6797716  10.9288827 -17.0425714
  44.8789992   5.5119978  -1.1719986  45.0289992   4.7829978  -1.7739986
  44.8809992   6.2889978  -1.7309986  44.8997967   5.5172708  -1.3299459
  45.2919992   3.8809978  -3.6789986  45.8269992   4.3329978  -4.3309986
  44.4389992   3.7729978  -4.1019986  45.2500374   3.9282665  -3.8253290
  46.8729992   9.3209978  -3.4399986  47.6239992   9.1649978  -4.0129986
  46.5339992  10.1729978  -3.7149986  46.9299587   9.4148138  -3.5555922
  51.2889992   7.1359978   1.5890014  51.4809992   6.2049978   1.4770014
  52.1469992   7.5609978   1.5780014  51.4312182   7.0660070   1.5721862
  52.6059992   9.9249978  -0.3339986  52.3239992  10.6339978  -0.9119986
  53.5479992   9.8519978  -0.4849986  52.6947921  10.0122193  -0.4335775
  43.3579992   6.7099978   0.7390014  42.5899992   6.1769978   0.5290014
  44.0359992   6.3999978   0.1400014  43.3447235   6.5951754   0.6292413
  46.0969992   1.3379978  -3.2479986  45.9989992   2.2839978  -3.3529986
  45.3549992   0.9649978  -3.7239986  45.9832534   1.4171773  -3.3267400
  47.3609992   5.6589978   0.3160014  47.1259992   5.4399978   1.2170014
  46.5779992   5.4519978  -0.1939986  47.2229095   5.6009892   0.3705353
  50.0769992   4.7869978  -0.6089986  49.1289992   4.8189978  -0.4769986
  50.3889992   4.1609978   0.0450014  49.9895293   4.7067923  -0.5025852
  51.7109992   3.4209978   1.3960014  51.6139992   2.4689978   1.3910014
  51.3889992   3.6889978   2.2570014  51.6542468   3.3270884   1.5116210
  41.5379992   4.6299978   0.4440014  41.7499992   3.9239978  -0.1659986
  41.4269992   4.1929978   1.2880014  41.5520269   4.4741921   0.4745873
  46.3189992   0.6319978  -0.5769986  47.0309992  -0.0080022  -0.5909986
  46.2179992   0.8979978  -1.4899986  46.4027387   0.5804330  -0.7024437
  46.6729992   2.3139978   1.4770014  46.5409992   1.8389978   0.6570014
  46.0729992   3.0589978   1.4220014  46.5739070   2.3495789   1.3573251
  46.2189992  19.1969978 -15.3469986  47.1519992  19.3549978 -15.2029986
  45.9549992  19.8729978 -15.9719986  46.3109911  19.3099373 -15.4117278
  39.7869992  13.8339978 -15.8639986  40.7009992  13.9129978 -15.5909986
  39.7949992  13.1469978 -16.5299986  39.9130655  13.7519205 -15.9167083
  38.4359992  19.2269978 -10.7869986  37.7889992  18.7649978 -11.3189986
  38.7909992  18.5549978 -10.2039986  38.3953741  19.0729774 -10.7810825
  39.3059992  17.3069978  -8.9819986  38.9719992  16.4269978  -8.8099986
  39.5289992  17.6529978  -8.1169986  39.2903721  17.2331938  -8.8415832
  56.8549992  18.1169978  -6.0009986  56.8329992  18.3019978  -5.0619986
  57.5449992  18.6849978  -6.3419986  56.9453439  18.2191887  -5.9185209
  56.4179992  17.6839978  -3.0799986  55.9309992  16.9489978  -3.4509986
  56.9669992  17.2899978  -2.4019986  56.4255247  17.5301057  -3.0391539
  54.8689992  13.4739978   1.5590014  54.0029992  13.3689978   1.9530014
  55.2449992  14.2319978   2.0050014  54.8013401  13.5621708   1.6732620
  56.1699992  11.7299978 -12.9269986  57.0199992  12.1509978 -12.7999986
  56.1749992  10.9899978 -12.3199986  56.2871143  11.6876094 -12.8275250
  56.5639992   9.7839978 -11.1039986  55.8379992   9.3039978 -10.7059986
  57.1459992   9.9889978 -10.3709986  56.5432730   9.7460184 -10.9505851
  56.3229992  12.5689978  -6.1559986  57.1569992  12.1909978  -6.4369986
  56.4349992  13.5119978  -6.2749986  56.4521917  12.6447943  -6.2105139
  54.8099992  15.4469978  -3.8489986  54.1619992  15.7719978  -3.2239986
  54.2919992  15.0059978  -4.5229986  54.6514196  15.4318651  -3.8545848
  56.8329992   9.6849978 -14.7129986  56.3109992  10.0409978 -15.4309986
  56.7999992  10.3599978 -14.0339986  56.7570129   9.8249598 -14.7196645
  55.1819992   6.9239978 -16.1619986  55.2779992   7.5909978 -16.8419986
  55.0419992   6.1089978 -16.6429986  55.1762040   6.9050671 -16.3201622
  54.3509992   8.3049978 -10.5409986  54.2009992   7.3599978 -10.5609986
  53.9969992   8.5859978  -9.6969986  54.2826351   8.2136644 -10.4296780
  39.3859992  10.3829978  -6.5299986  39.5709992  10.3009978  -7.4659986
  40.2359992  10.2589978  -6.1069986  39.5260928  10.3550463  -6.6007107
  55.2069992  10.2749978  -0.9019986  55.7899992   9.5399978  -0.7099986
  55.7709992  11.0469978  -0.8549986  55.3629781  10.2788145  -0.8693836
  56.7039992   8.1779978  -0.2169986  55.8409992   7.7989978  -0.3829986
  57.3079992   7.4389978  -0.2919986  56.6676085   8.0263223  -0.2498305
  54.4289992   4.3319978 -17.0439986  55.0399992   3.9609978 -16.4069986
  53.5919992   3.9109978 -16.8479986  54.3994947   4.2242756 -16.9302748
  54.0619992   5.8869978 -12.0779986  54.3409992   4.9799978 -11.9539986
  54.8209992   6.3209978 -12.4669986  54.2028619   5.8214502 -12.1136205
  54.6729992   6.4689978  -6.6419986  55.6059992   6.6809978  -6.6769986
  54.4379992   6.5699978  -5.7199986  54.7689517   6.5116833  -6.5220870
  54.7029992   7.2059978  -3.8659986  53.8599992   7.4739978  -3.4999986
  55.1449992   8.0279978  -4.0769986  54.6474138   7.3538273  -3.8444482
  38.9839992   5.6529978  -0.3899986  39.9029992   5.5309978  -0.1529986
  38.5339992   4.9029978   0.0000014  39.0490087   5.5349608  -0.3048590
  56.9859992   1.1859978   1.4870014  57.3349992   0.5319978   0.8820014
  57.1329992   2.0229978   1.0470014  57.0536824   1.2096024   1.3446304
  54.6749992   3.1499978 -12.0299986  54.8569992   2.7009978 -11.2049986
  54.0749992   2.5659978 -12.4939986  54.6188187   3.0095552 -11.9797261
  40.2049992   3.9659978  -7.4979986  40.6499992   3.1739978  -7.1959986
  40.6709992   4.6819978  -7.0679986  40.3289718   3.9544534  -7.3984735
  38.5089992   6.9649978  -6.4289986  39.0009992   6.7439978  -7.2199986
  38.8709992   7.8049978  -6.1479986  38.6252923   7.0483468  -6.4992593
  56.5049992   3.2949978  -0.1639986  55.5879992   3.5659978  -0.1989986
  56.6279992   2.7599978  -0.9479986  56.3959672   3.2597885  -0.2748138
  56.5419992   3.2179978 -15.5019986  56.9539992   2.4969978 -15.9769986
  57.2229992   3.8869978 -15.4439986  56.6905536   3.2097766 -15.5591976
  38.8229992   3.2229978 -12.3749986  37.8979992   3.4309978 -12.5039986
  39.2769992   3.7069978 -13.0649986  38.7576298   3.3169299 -12.4859549
  53.5929992  18.2069978 -10.4289986  54.2459992  17.8589978 -11.0369986
  54.1039992  18.6949978  -9.7829986  53.7512777  18.2253815 -10.4247953
  38.7859992   1.9609978  -4.0309986  38.1209992   1.7149978  -3.3879986
  38.3429992   2.5829978  -4.6079986  38.6351168   2.0114214  -4.0210152
  40.9779992  15.1359978   0.1140014  40.1569992  15.3109978  -0.3469986
  40.7259992  15.0629978   1.0340014  40.8315594  15.1500717   0.1753611
  43.9319992  16.1099978  -3.6279986  43.5079992  16.9199978  -3.9099986
  44.8369992  16.1959978  -3.9299986  43.9962138  16.2324160  -3.7073585
  48.2439992  17.5089978  -0.6679986  48.4279992  17.1759978   0.2100014
  49.0899992  17.8189978  -0.9899986  48.3836484  17.5052979  -0.5912383
  50.5889992  18.7949978  -1.4239986  51.2659992  18.1619978  -1.6639986
  50.9099992  19.1959978  -0.6169986  50.7251323  18.7625691  -1.3476842
  55.5059992   1.3849978  -2.3449986  54.6929992   1.7099978  -2.7319986
  55.7389992   0.6239978  -2.8779986  55.4261347   1.3266880  -2.4700159
  41.3339992  19.3669978  -3.5799986  40.6139992  19.8069978  -4.0309986
  40.9689992  19.1159978  -2.7319986  41.1859643  19.3933369  -3.5270871
  43.8009992  18.9669978  -4.5499986  42.9369992  19.0389978  -4.1459986
  43.7459992  19.5139978  -5.3339986  43.6751942  19.0507849  -4.6006000
  48.5119992  18.8549978  -5.3749986  48.0549992  19.3839978  -6.0289986
  48.6749992  19.4579978  -4.6499986  48.4714960  19.0089280  -5.3664726
  50.8399992  17.7329978  -4.4299986  49.9349992  17.8979978  -4.6959986
  51.2679992  18.5859978  -4.4959986  50.7741537  17.8709134  -4.4752905
  53.4439992  19.3029978  -4.1349986  53.2619992  20.2189978  -4.3459986
  53.6209992  18.8919978  -4.9819986  53.4430030  19.3728273  -4.2782834
  40.7489992  17.9899978  -6.6699986  40.7309992  17.5639978  -5.8129986
  41.5539992  17.6709978  -7.0789986  40.8552875  17.8886435  -6.6080485
  42.8899992  16.6999978  -8.0149986  42.6709992  15.7829978  -7.8449986
  43.7139992  16.8399978  -7.5489986  42.9714702  16.5935511  -7.9287473
  45.4269992  17.1699978  -7.1659986  45.6399992  16.2819978  -7.4529986
  45.4919992  17.1349978  -6.2119986  45.4649149  17.0438326  -7.0762631
  48.9359992   2.8339978  -8.0219986  48.2619992   2.2039978  -7.7659986
  49.4999992   2.3499978  -8.6249986  48.9200384   2.6823708  -8.0684980
  54.0789992   0.9409978  -7.9089986  54.6819992   1.4889978  -8.4109986
  53.2089992   1.2599978  -8.1499986  54.0439157   1.0590373  -8.0102090
  55.8059992   2.0799978  -9.5759986  56.4169992   1.5659978 -10.1029986
  56.1879992   2.9569978  -9.5529986  55.9413305   2.1282050  -9.6450582
  41.2629992   1.4679978 -10.1999986  40.4859992   1.2329978 -10.7069986
  41.7929992   0.6709978 -10.1909986  41.2283451   1.3281268 -10.2681373
  40.0989992   1.2659978 -14.3959986  40.5379992   1.8769978 -14.9879986
  39.4649992   1.8039978 -13.9219986  40.0733859   1.4224064 -14.4129695
  45.8419992   1.3939978 -10.3869986  46.7159992   1.7829978 -10.4159986
  45.7059992   1.1789978  -9.4639986  45.9431953   1.4181643 -10.2662383
  51.3989992   1.4239978  -8.7369986  51.4749992   1.5199978  -9.6869986
  51.1239992   0.5169978  -8.6089986  51.3721871   1.3144146  -8.8496056
  52.7519992   1.4499978 -13.0449986  52.0489992   2.0649978 -13.2549986
  52.3069992   0.6129978 -12.9139986  52.5956550   1.4209668 -13.0560163
  39.9999992  17.2139978 -13.4989986  39.3149992  17.1759978 -14.1659986
  40.0039992  18.1269978 -13.2109986  39.9067621  17.3321924 -13.5513874
  41.9599992   3.1819978 -15.9539986  42.4509992   2.5519978 -16.4809986
  42.5829992   3.4779978 -15.2909986  42.1115304   3.1357376 -15.9365060
  46.9859992   3.4749978 -13.4969986  47.1639992   2.8279978 -12.8139986
  46.9319992   4.3089978 -13.0299986  47.0030678   3.4991604 -13.3403699
  48.8639992  18.4229978 -15.1009986  49.7299992  18.7899978 -15.2789986
  48.6179992  17.9839978 -15.9149986  48.9492097  18.4138525 -15.2353981
  55.5729992  17.9859978 -12.4219986  55.3789992  17.2379978 -12.9869986
  55.5339992  18.7439978 -13.0049986  55.5411645  17.9860786 -12.5781852
  41.2199992   1.9819978  -0.6819986  40.8539992   1.2159978  -0.2399986
  42.1329992   2.0109978  -0.3959986  41.2933172   1.8810324  -0.5828110
  43.1929992   1.3319978   0.8530014  44.0919992   1.0579978   0.6690014
  42.8069992   0.5899978   1.3180014  43.2637307   1.1942196   0.8907098
  41.8179992  18.1339978 -16.4739986  41.5499992  18.4199978 -15.5999986
  42.5889992  17.5879978 -16.3209986  41.8855926  18.0992779 -16.3338795
  51.6149992   0.6649978   1.0360014  51.6909992   0.2389978   1.8890014
  52.5079992   0.6779978   0.6930014  51.7462303   0.6083493   1.1065497
  54.7909992  16.7379978  -0.2719986  54.0089992  16.5509978  -0.7919986
  54.7189992  17.6669978  -0.0549986  54.6741924  16.8380637  -0.3138398
  69.1969992  10.6239978 -10.2409986  69.2859992  11.5679978 -10.3729986
  68.5589992  10.3489978 -10.8989986  69.1229062  10.7159812 -10.3480359
  68.1299992   9.8789978  -6.8219986  68.0919992   9.2329978  -6.1169986
  67.8079992   9.4119978  -7.5929986  68.0812679   9.7274276  -6.8297079
  60.4979992   9.4929978  -5.2289986  60.5399992   8.8679978  -4.5059986
  61.2009992  10.1169978  -5.0469986  60.5987345   9.4917873  -5.1054726
  71.8359992  12.8179978  -8.5209986  71.3949992  12.0979978  -8.0699986
  71.8229992  13.5389978  -7.8909986  71.7739215  12.8169291  -8.3741895
  61.4219992  13.9429978  -6.6939986  61.0519992  13.1409978  -7.0639986
  62.3629992  13.7749978  -6.6479986  61.4985984  13.8104638  -6.7384397
  58.0319992   7.6029978 -11.3019986  57.5839992   8.4489978 -11.3199986
  57.4709992   7.0239978 -11.8169986  57.8948546   7.6403993 -11.3741109
  58.7419992   9.7649978  -9.1759986  58.9559992   8.9949978  -8.6479986
  59.4799992   9.8549978  -9.7789986  58.8710200   9.6718587  -9.1852965
  68.9479992  17.9219978  -8.3089986  69.5669992  17.2459978  -8.5819986
  68.7389992  17.7039978  -7.3999986  69.0046056  17.7998869  -8.2236033
  66.5189992  12.3109978  -6.4159986  66.8229992  11.6249978  -7.0109986
  67.2409992  12.4299978  -5.7979986  66.6581240  12.2332314  -6.4139041
  75.1819992   3.9129978  -5.5559986  75.2319992   4.5229978  -4.8199986
  75.6079992   4.3739978  -6.2789986  75.2464108   4.0587709  -5.5529888
  69.6599992   6.7049978  -6.0889986  69.8029992   5.7589978  -6.0689986
  69.5539992   6.9119978  -7.0169986  69.6652403   6.6034797  -6.2117761
  62.8149992   4.8069978  -8.8159986  62.8579992   5.6669978  -9.2349986
  62.3569992   4.2549978  -9.4499986  62.7589871   4.8499245  -8.9589239
  70.5369992   4.9379978 -10.4149986  71.1839992   4.6089978  -9.7909986
  71.0469992   5.4549978 -11.0379986  70.6944351   4.9629067 -10.4138963
  59.4349992   7.2039978  -8.0539986  60.0889992   6.6539978  -7.6219986
  59.4589992   6.9299978  -8.9709986  59.5277199   7.0917167  -8.1188332
  64.5919992   8.7539978  -8.8389986  65.2079992   8.2269978  -8.3299986
  64.0049992   8.1139978  -9.2429986  64.5970154   8.5953954  -8.8239055
  75.5739992   5.3909978  -3.3199986  74.8849992   6.0489978  -3.4149986
  75.5889992   5.1929978  -2.3829986  75.4817756   5.4542603  -3.2064188
  61.6249992   3.7249978  -4.7419986  61.4059992   4.2549978  -5.5089986
  60.9569992   3.9509978  -4.0949986  61.5046975   3.8280967  -4.7594860
  68.9939992  13.2249978 -11.1979986  68.6989992  12.9019978 -12.0499986
  68.6699992  14.1249978 -11.1569986  68.9098460  13.3024464 -11.3090286
  64.1939992  11.3999978  -4.4549986  63.4539992  11.9989978  -4.3509986
  64.9079992  11.9539978  -4.7699986  64.1893500  11.5567829  -4.4833629
  72.3009992   4.2289978  -8.4349986  72.0859992   3.4629978  -7.9019986
  72.9569992   4.7009978  -7.9219986  72.3602673   4.1880728  -8.2928010
  61.2189992   5.6169978  -6.7899986  61.8329992   6.2499978  -6.4169986
  61.7309992   5.1449978  -7.4459986  61.3721962   5.6397249  -6.8277065
  62.6019992  13.3649978  -3.6679986  62.5959992  14.2439978  -4.0459986
  61.7479992  13.2809978  -3.2429986  62.4857925  13.4739535  -3.6623113
  58.7229992  13.0359978 -12.8859986  58.4509992  13.2649978 -13.7739986
  58.7679992  13.8729978 -12.4249986  58.6918097  13.1806163 -12.9453317
  72.3479992  14.6569978  -6.1729986  71.4059992  14.7159978  -6.0109986
  72.6239992  15.5629978  -6.3099986  72.2565865  14.7875288  -6.1693808
  72.6479992   2.9439978  -4.7559986  71.9119992   3.5539978  -4.7929986
  73.3319992   3.3589978  -5.2819986  72.6395367   3.0837551  -4.8321826
  65.6519992   1.0299978  -7.2899986  65.5339992   0.0819978  -7.3439986
  64.7969992   1.3629978  -7.0169986  65.5202805   0.9452202  -7.2604921
  70.5999992  16.4379978  -9.5479986  71.0249992  15.7309978 -10.0329986
  70.9169992  17.2399978  -9.9649986  70.7010266  16.4495190  -9.6707521
  71.7599992  14.3389978 -11.0389986  71.5019992  13.6489978 -11.6509986
  71.8309992  13.8959978 -10.1939986  71.7343050  14.1846814 -11.0084379
  73.4459992  12.9059978  -2.5619986  73.5849992  12.3139978  -3.3009986
  73.6129992  13.7789978  -2.9179986  73.4876193  12.9428896  -2.7113789
  67.9179992   9.8679978 -12.7889986  67.2069992  10.4029978 -13.1409986
  68.6089992   9.9229978 -13.4489986  67.9140751   9.9486777 -12.9264142
  67.9719992   8.3249978 -15.7509986  68.6729992   8.3479978 -15.0989986
  68.2739992   7.6969978 -16.4069986  68.1088202   8.2432212 -15.7504391
  75.2869992   9.2459978  -4.4959986  74.6349992   9.9399978  -4.4069986
  75.7529992   9.4559978  -5.3059986  75.2605937   9.3695019  -4.5932467
  71.3239992  10.0769978 -11.8379986  70.5919992  10.3059978 -11.2639986
  71.7709992   9.3639978 -11.3829986  71.2843963  10.0118729 -11.6980055
  71.2209992   8.2519978  -2.7699986  71.3009992   9.0149978  -2.1979986
  70.6199992   8.5309978  -3.4599986  71.1506547   8.3942457  -2.7849953
  62.9689992  10.7079978  -9.9549986  62.6389992  10.3369978 -10.7729986
  63.5579992  10.0369978  -9.6079986  63.0033970  10.5666063 -10.0200596
  64.3359992  14.1359978  -7.2739986  64.2409992  13.5569978  -8.0299986
  65.0649992  13.7649978  -6.7779986  64.4216011  14.0065561  -7.3103972
  63.3359992   9.4759978  -6.3219986  63.9009992   9.5979978  -7.0839986
  63.6549992  10.1139978  -5.6829986  63.4564166   9.5788791  -6.3399652
  69.6449992  14.9799978  -5.5879986  69.4049992  15.6419978  -4.9399986
  69.4469992  14.1449978  -5.1629986  69.5853826  14.9578115  -5.4418434
  64.2159992  13.8759978  -1.6039986  63.9049992  14.6579978  -1.1489986
  63.5659992  13.7229978  -2.2899986  64.0855538  13.9624087  -1.6344102
  70.1949992   9.2399978 -14.1519986  70.7739992   9.3899978 -13.4059986
  70.6089992   9.7099978 -14.8759986  70.3303358   9.3240954 -14.1476047
  61.1359992  10.0739978  -2.3759986  61.2059992  10.7249978  -1.6769986
  60.2449992  10.1769978  -2.7109986  61.0251690  10.1769249  -2.3256957
  67.9209992  15.9759978 -10.7169986  68.3949992  16.2719978  -9.9399986
  67.3579992  16.7149978 -10.9499986  67.9097890  16.1163036 -10.6421899
  62.4549992  15.9469978  -0.8409986  62.4629992  15.8109978  -1.7879986
  61.5389992  15.8299978  -0.5889986  62.3322528  15.9125463  -0.9366757
  73.8939992   0.9899978 -14.3389986  72.9939992   1.1289978 -14.0439986
  74.1459992   1.8209978 -14.7409986  73.8048683   1.1214055 -14.3529768
  61.9599992   9.7769978 -12.3659986  61.6679992  10.5449978 -12.8569986
  61.2849992   9.1179978 -12.5289986  61.8288497   9.7929745 -12.4551740
  75.0829992  15.3559978 -15.9629986  75.1559992  16.2949978 -15.7929986
  75.9879992  15.0509978 -16.0189986  75.2154170  15.4433282 -15.9472937
  58.0529992  12.1399978  -3.5509986  57.5509992  12.1119978  -4.3659986
  58.0579992  11.2349978  -3.2409986  57.9849832  12.0137486  -3.6205879
  57.8029992  14.9209978  -6.6669986  58.7489992  14.7759978  -6.6859986
  57.6899992  15.7049978  -6.1299986  57.9173578  15.0071697  -6.5969683
  76.0009992  15.5869978  -0.9839986  75.9509992  14.6309978  -1.0219986
  75.1739992  15.8539978  -0.5829986  75.8823831  15.4924680  -0.9349879
  66.9789992  15.1609978  -2.1079986  67.0669992  15.9869978  -1.6329986
  66.1159992  14.8309978  -1.8589986  66.8743357  15.2295468  -2.0092347
  67.3939992  18.9329978 -12.3019986  67.3179992  18.8119978 -13.2489986
  67.4259992  19.8819978 -12.1839986  67.3879380  19.0447677 -12.4154819
  61.0469992  17.7219978 -10.5209986  61.1989992  17.3739978  -9.6429986
  60.1959992  17.3649978 -10.7769986  60.9528344  17.6260879 -10.4353132
  70.4949992  18.0869978 -15.2999986  70.8699992  17.3429978 -15.7709986
  70.4999992  17.8169978 -14.3819986  70.5470098  17.9486392 -15.2403371
  70.1639992  18.0129978 -12.5509986  69.2289992  18.1129978 -12.3719986
  70.4439992  17.3029978 -11.9719986  70.0739471  17.9307933 -12.4483305
  73.1529992   7.0799978  -0.5039986  72.7449992   7.5599978  -1.2249986
  73.1929992   6.1739978  -0.8119986  73.1026221   7.0232449  -0.6441733
  60.3019992  13.4639978  -2.5079986  60.5179992  13.1019978  -1.6479986
  59.4459992  13.0889978  -2.7169986  60.2158810  13.3638837  -2.4187320
  62.9199992   1.9339978  -6.5119986  62.0589992   1.8469978  -6.9199986
  62.8979992   2.7899978  -6.0839986  62.7990491   2.0378003  -6.5100418
  67.5829992   1.6559978  -3.1369986  68.0029992   1.2409978  -2.3839986
  66.6499992   1.4769978  -3.0199986  67.5143736   1.5749910  -3.0181032
  70.9099992   5.4109978  -2.2839986  70.3959992   5.2859978  -1.4859986
  70.7539992   6.3239978  -2.5279986  70.8186967   5.5172123  -2.2079063
  71.6719992  10.2719978 -16.5229986  71.7139992  10.0499978 -17.4529986
  72.5209992  10.6709978 -16.3329986  71.7925253  10.2955498 -16.6246178
  67.2449992   4.1479978 -15.8519986  66.9909992   4.1669978 -14.9299986
  66.9879992   3.2769978 -16.1539986  67.1754508   4.0328280 -15.7665197
  63.0109992   6.8989978  -5.4169986  62.3699992   6.8589978  -4.7079986
  63.0489992   7.8259978  -5.6549986  62.9283010   7.0187668  -5.3520054
  63.0079992   7.1199978 -10.5049986  62.1159992   6.7799978 -10.5639986
  63.4589992   6.7429978 -11.2609986  62.9467642   7.0224910 -10.6152274
  68.5439992   7.5359978 -11.6879986  68.1349992   8.3509978 -11.9799986
  69.2639992   7.3959978 -12.3019986  68.5854439   7.6285372 -11.8109885
  67.6459992   7.7119978  -0.1999986  67.0829992   7.0069978   0.1210014
  68.4719992   7.5909978   0.2680014  67.6806674   7.5992165  -0.0928249
  69.5489992   6.9819978  -8.8739986  69.3529992   7.5879978  -9.5889986
  69.7299992   6.1489978  -9.3079986  69.5466584   6.9522513  -9.0305788
  60.7609992   7.2199978  -3.5499986  60.7229992   7.6199978  -2.6809986
  60.2709992   6.4029978  -3.4599986  60.6895330   7.1642674  -3.4188711
  64.1269992   4.5939978 -16.7509986  63.6959992   4.1489978 -16.0219986
  63.4089992   4.9649978 -17.2639986  63.9709176   4.5832051 -16.7205070
  57.3699992   4.3359978  -9.6989986  57.9999992   4.3069978  -8.9799986
  57.8189992   3.9109978 -10.4299986  57.5170835   4.2745660  -9.6992341
  58.6439992   5.0819978 -14.2749986  59.1179992   5.6729978 -14.8599986
  57.9259992   5.6119978 -13.9279986  58.6118640   5.2345511 -14.3082031
  68.8129992   8.6199978  -4.2029986  69.1359992   7.9889978  -4.8459986
  68.3719992   8.0859978  -3.5419986  68.7976379   8.4613468  -4.2017418
  65.5899992   4.5479978  -9.4189986  64.6789992   4.6049978  -9.1299986
  66.0949992   4.4879978  -8.6079986  65.5336873   4.5476826  -9.2698793
  60.4179992   6.1769978 -10.5919986  59.5289992   6.2759978 -10.9319986
  60.7149992   5.3349978 -10.9379986  60.3364177   6.0767687 -10.6853060
  64.0709992   6.1769978 -12.9349986  65.0029992   6.3059978 -12.7569986
  63.8559992   6.8459978 -13.5849986  64.1694472   6.2850806 -12.9985109
  69.9949992   3.7829978  -6.1539986  69.3179992   3.9139978  -5.4909986
  69.5099992   3.6279978  -6.9649986  69.8367405   3.7799947  -6.1727830
  62.7449992   7.3709978 -15.3689986  62.2029992   6.9919978 -16.0599986
  63.5789992   7.5659978 -15.7969986  62.7834390   7.3454079 -15.5215608
  73.2829992  19.4539978   0.1220014  73.4819992  19.8779978  -0.7119986
  73.9379992  19.7979978   0.7290014  73.3988522  19.5586301   0.0897852
  60.8809992  11.9279978  -0.2699986  61.6129992  12.1829978   0.2920014
  60.0999992  12.1329978   0.2460014  60.8756526  11.9905450  -0.1234824
  66.9099992   7.3349978  -7.5319986  67.4739992   6.7889978  -8.0789986
  66.7619992   6.8139978  -6.7429986  66.9673037   7.1896787  -7.5002771
  61.9119992   3.4719978 -11.1129986  61.5949992   2.5689978 -11.1489986
  62.6929992   3.4739978 -11.6659986  61.9742431   3.3487797 -11.1926898
  65.5359992   5.7239978  -5.1179986  64.7009992   6.1779978  -5.0069986
  66.0599992   5.9999978  -4.3659986  65.4926072   5.8233948  -5.0011864
  66.0809992  11.9369978 -13.4329986  65.3359992  11.4289978 -13.7549986
  65.9459992  11.9859978 -12.4869986  65.9608963  11.8741731 -13.3491174
  73.2309992  11.0699978  -4.6459986  73.8719992  11.5259978  -5.1899986
  72.3999992  11.1829978  -5.1089986  73.2065287  11.1476921  -4.7830113
  69.9779992   4.7509978 -15.2339986  69.0399992   4.8619978 -15.3849986
  70.2759992   5.6069978 -14.9269986  69.8896318   4.8820158 -15.2131855
  67.5999992  12.1209978  -2.1959986  67.2539992  11.7389978  -1.3889986
  67.3999992  13.0539978  -2.1249986  67.5255987  12.1949002  -2.0759539
  70.6969992   6.6179978 -13.5729986  71.5889992   6.4799978 -13.2539986
  70.7529992   7.4089978 -14.1099986  70.8267325   6.7059918 -13.6018783
  61.2049992  11.2319978  -7.6629986  61.9499992  11.2289978  -8.2649986
  61.2829992  10.4079978  -7.1819986  61.3173365  11.1202384  -7.6802570
  68.2059992  13.3949978 -14.4079986  67.9109992  14.2219978 -14.0259986
  67.5029992  12.7759978 -14.2109986  68.0706379  13.4244171 -14.3291346
  58.2129992   9.6919978  -2.3479986  58.4359992   9.2739978  -1.5169986
  57.6109992   9.0799978  -2.7709986  58.1621513   9.5519606  -2.2913260
  65.2299992   9.2089978  -0.1349986  64.9339992   9.0439978  -1.0309986
  66.1609992   8.9889978  -0.1459986  65.3154401   9.1566879  -0.2589794
  69.8499992  14.5829978  -2.2459986  68.9499992  14.7659978  -2.5129986
  69.8839992  14.8419978  -1.3249986  69.7313748  14.6430554  -2.1580836
  75.5819992   6.8269978 -13.8779986  75.0269992   6.4309978 -14.5509986
  75.6819992   7.7379978 -14.1559986  75.5196816   6.8959505 -14.0074967
  75.5449992  12.6279978  -1.0409986  74.6939992  12.8659978  -1.4089986
  76.1349992  12.6109978  -1.7939986  75.5083812  12.6582524  -1.1931547
  73.8769992  15.6129978 -13.4129986  73.5039992  14.7879978 -13.1039986
  74.1539992  15.4299978 -14.3109986  73.8633463  15.4752569 -13.4920475
  71.0369992  10.4209978  -6.3919986  70.1089992  10.1899978  -6.4189986
  71.4879992   9.6439978  -6.7219986  70.9708165  10.2842774  -6.4403210
  63.5799992  14.7499978 -10.2589986  64.1079992  15.5229978 -10.4589986
  62.6999992  14.9739978 -10.5609986  63.5333435  14.8862700 -10.3272690
  59.3349992   9.6119978 -15.6719986  59.9509992  10.2389978 -15.2919986
  58.4729992   9.9279978 -15.3999986  59.3027678   9.7404412 -15.5832791
  65.0079992  12.4129978 -10.6829986  64.7669992  13.3379978 -10.6409986
  64.2669992  11.9539978 -10.2859986  64.8749206  12.4775915 -10.6236231
  65.5219992  16.5619978  -4.3679986  65.8849992  17.4159978  -4.6009986
  66.0539992  16.2699978  -3.6269986  65.6435141  16.6393895  -4.2997903
  63.6909992  17.4339978 -11.1369986  62.7409992  17.5399978 -11.0859986
  64.0429992  18.2549978 -10.7929986  63.6085472  17.5594923 -11.0835148
  69.0659992  12.6609978  -4.6669986  68.6409992  12.4329978  -3.8409986
  69.6469992  11.9219978  -4.8489986  69.0863395  12.5299545  -4.5785586
  71.2689992  13.5899978 -15.5929986  71.6229992  13.2099978 -14.7889986
  70.3209992  13.4959978 -15.5059986  71.1892298  13.5252452 -15.4711313
  71.7249992  17.2129978  -2.1979986  71.1229992  16.6569978  -2.6929986
  72.0059992  17.8799978  -2.8239986  71.6805757  17.2270744  -2.3504325
  75.7729992  18.0689978 -15.3919986  76.5169992  18.6549978 -15.5319986
  75.0789992  18.6379978 -15.0589986  75.7809809  18.2260818 -15.3661410
  59.8469992   4.4459978  -2.7899986  58.9549992   4.7839978  -2.8579986
  59.7489992   3.5899978  -2.3719986  59.7114475   4.3766543  -2.7428296
  72.1349992  12.2619978 -13.3659986  71.8579992  11.5339978 -12.8099986
  73.0629992  12.3809978 -13.1609986  72.2224499  12.1784213 -13.2621956
  59.4989992  16.2499978  -4.3549986  59.7159992  15.3179978  -4.3859986
  59.7449992  16.5249978  -3.4719986  59.5619809  16.1595686  -4.2398309
  64.2969992  14.2719978 -14.6899986  64.4439992  13.7519978 -13.8999986
  64.2939992  15.1789978 -14.3829986  64.3167102  14.3233953 -14.5404075
  60.7499992  11.5239978 -14.1789986  60.0639992  11.8769978 -13.6119986
  61.2729992  12.2869978 -14.4259986  60.7268402  11.6753901 -14.1348199
  68.5819992   4.1869978  -3.8999986  69.2809992   4.2609978  -3.2499986
  68.2009992   3.3219978  -3.7459986  68.6262097   4.0802389  -3.7902003
  69.3659992   3.8389978 -12.8029986  69.5859992   4.3099978 -13.6069986
  69.9249992   4.2329978 -12.1329986  69.4716731   3.9567287 -12.8224967
  67.0349992  15.9689978 -13.9399986  66.2179992  16.4659978 -13.8879986
  67.5639992  16.4449978 -14.5809986  66.9948125  16.1011989 -14.0194694
  66.5659992   5.5669978 -11.9679986  67.3779992   6.0709978 -11.9219986
  66.3219992   5.4219978 -11.0539986  66.6441467   5.6163749 -11.8381425
  67.1019992   6.5529978  -2.7839986  67.2209992   7.1269978  -2.0269986
  67.7569992   5.8649978  -2.6689986  67.2068684   6.5385194  -2.6648326
  67.4499992   2.6479978 -11.0299986  67.1029992   3.2649978 -10.3859986
  68.1089992   3.1489978 -11.5119986  67.4915090   2.8001575 -11.0069319
  64.3729992  17.0129978 -13.9589986  64.5339992  17.8129978 -14.4589986
  64.1759992  17.3199978 -13.0739986  64.3683906  17.1638678 -13.9077667
  63.1079992   3.7109978 -14.3429986  63.0239992   4.5989978 -13.9959986
  63.9979992   3.4459978 -14.1109986  63.2168163   3.7967179 -14.2641404
  73.3059992   4.4599978  -1.9489986  72.3899992   4.7219978  -2.0359986
  73.6419992   4.4569978  -2.8449986  73.2258499   4.4955163  -2.0821234
  71.9089992   8.2099978  -7.8529986  71.1109992   7.7949978  -8.1809986
  72.3539992   7.5199978  -7.3619986  71.8599684   8.0598628  -7.8314773
  61.3659992  14.1379978 -15.2829986  61.9579992  14.8379978 -15.0059986
  61.8249992  13.7049978 -16.0019986  61.5091652  14.1752675 -15.3423467
  59.6819992   6.8029978 -16.1669986  59.6369992   7.7419978 -15.9879986
  58.7939992   6.5669978 -16.4359986  59.5558166   6.8996687 -16.1788476
  72.9949992  17.4659978  -6.2309986  72.8389992  18.1449978  -6.8879986
  73.9279992  17.5379978  -6.0279986  73.0997387  17.5686390  -6.2934658
  60.4899992   1.5839978  -7.4929986  60.2609992   1.6429978  -8.4209986
  60.0479992   0.7929978  -7.1869986  60.3988801   1.4850540  -7.5785271
  59.4209992  15.5249978 -11.3329986  58.5879992  15.9969978 -11.3059986
  59.9659992  16.0349978 -11.9319986  59.3807857  15.6584791 -11.4102858
  58.7089992  18.1369978  -0.0029986  59.2489992  17.9209978   0.7570014
  58.2279992  17.3319978  -0.1929986  58.7179219  17.9985156   0.0754282
  63.3059992  17.0569978   1.6170014  64.0739992  16.5979978   1.9580014
  63.2849992  16.8309978   0.6870014  63.4082135  16.9636668   1.5379491
  67.3979992  16.5649978 -17.0069986  66.7539992  15.9339978 -16.6859986
  68.1599992  16.0339978 -17.2389986  67.4128058  16.4067902 -16.9943962
  69.8829992  15.4369978   0.3460014  69.5319992  14.5799978   0.5900014
  70.6089992  15.5789978   0.9530014  69.9331895  15.3391351   0.4613770
  72.0029992  16.3819978 -16.7739986  72.2859992  15.5869978 -16.3209986
  72.7419992  16.6149978 -17.3349986  72.1417096  16.3047049 -16.7878896
  58.6159992  11.9479978   0.9510014  58.7599992  11.0459978   0.6650014
  57.8439992  12.2339978   0.4640014  58.5312733  11.8631798   0.8459532
  62.9569992  12.2909978 -16.9159986  63.0219992  11.4969978 -16.3859986
  63.6099992  12.1729978 -17.6059986  63.0541605  12.1663430 -16.9367003
  65.2709992  11.9169978   0.3840014  64.9429992  12.1879978  -0.4729986
  65.4229992  10.9759978   0.2960014  65.2466412  11.8269046   0.2547822
  71.0059992  11.8329978  -2.2329986  71.7509992  12.4219978  -2.3519986
  70.2489992  12.4149978  -2.1689986  71.0055470  11.9922128  -2.2406201
  59.4489992   9.1479978   0.3710014  59.8569992   8.2909978   0.2500014
  59.1879992   9.1619978   1.2920014  59.4696016   9.0325119   0.4789192
  64.1069992  10.2639978 -14.6099986  63.6469992   9.7799978 -13.9249986
  64.3619992   9.5949978 -15.2459986  64.0784856  10.1073669 -14.6021603
  63.3959992   8.1569978  -2.2539986  62.7769992   8.8309978  -1.9739986
  63.7399992   8.4779978  -3.0879986  63.3577123   8.2926887  -2.3283612
  65.1779992   8.5069978 -16.3479986  64.9969992   8.3519978 -17.2749986
  66.1279992   8.6149978 -16.3029986  65.2816566   8.5003669 -16.4689071
  68.4149992  10.6279978   1.0230014  69.3689992  10.7119978   0.9960014
  68.2549992   9.9159978   1.6430014  68.5237182  10.5432842   1.1030733
  74.5679992  10.8609978 -16.9019986  74.2939992  10.4369978 -17.7149986
  74.6069992  11.7929978 -17.1189986  74.5357716  10.9288827 -17.0425714
  63.7349992   5.5119978  -1.1719986  63.8849992   4.7829978  -1.7739986
  63.7369992   6.2889978  -1.7309986  63.7557967   5.5172708  -1.3299459
  64.1479992   3.8809978  -3.6789986  64.6829992   4.3329978  -4.3309986
  63.2949992   3.7729978  -4.1019986  64.1060374   3.9282665  -3.8253290
  65.7289992   9.3209978  -3.4399986  66.4799992   9.1649978  -4.0129986
  65.3899992  10.1729978  -3.7149986  65.7859587   9.4148138  -3.5555922
  70.1449992   7.1359978   1.5890014  70.3369992   6.2049978   1.4770014
  71.0029992   7.5609978   1.5780014  70.2872182   7.0660070   1.5721862
  71.4619992   9.9249978  -0.3339986  71.1799992  10.6339978  -0.9119986
  72.4039992   9.8519978  -0.4849986  71.5507921  10.0122193  -0.4335775
  62.2139992   6.7099978   0.7390014  61.4459992   6.1769978   0.5290014
  62.8919992   6.3999978   0.1400014  62.2007235   6.5951754   0.6292413
  64.9529992   1.3379978  -3.2479986  64.8549992   2.2839978  -3.3529986
  64.2109992   0.9649978  -3.7239986  64.8392534   1.4171773  -3.3267400
  66.2169992   5.6589978   0.3160014  65.9819992   5.4399978   1.2170014
  65.4339992   5.4519978  -0.1939986  66.0789095   5.6009892   0.3705353
  68.9329992   4.7869978  -0.6089986  67.9849992   4.8189978  -0.4769986
  69.2449992   4.1609978   0.0450014  68.8455293   4.7067923  -0.5025852
  70.5669992   3.4209978   1.3960014  70.4699992   2.4689978   1.3910014
  70.2449992   3.6889978   2.2570014  70.5102468   3.3270884   1.5116210
  60.3939992   4.6299978   0.4440014  60.6059992   3.9239978  -0.1659986
  60.2829992   4.1929978   1.2880014  60.4080269   4.4741921   0.4745873
  65.1749992   0.6319978  -0.5769986  65.8869992  -0.0080022  -0.5909986
  65.0739992   0.8979978  -1.4899986  65.2587387   0.5804330  -0.7024437
  65.5289992   2.3139978   1.4770014  65.3969992   1.8389978   0.6570014
  64.9289992   3.0589978   1.4220014  65.4299070   2.3495789   1.3573251
  65.0749992  19.1969978 -15.3469986  66.0079992  19.3549978 -15.2029986
  64.8109992  19.8729978 -15.9719986  65.1669911  19.3099373 -15.4117278
  58.6429992  13.8339978 -15.8639986  59.5569992  13.9129978 -15.5909986
  58.6509992  13.1469978 -16.5299986  58.7690655  13.7519205 -15.9167083
  57.2919992  19.2269978 -10.7869986  56.6449992  18.7649978 -11.3189986
  57.6469992  18.5549978 -10.2039986  57.2513741  19.0729774 -10.7810825
  58.1619992  17.3069978  -8.9819986  57.8279992  16.4269978  -8.8099986
  58.3849992  17.6529978  -8.1169986  58.1463721  17.2331938  -8.8415832
  75.7109992  18.1169978  -6.0009986  75.6889992  18.3019978  -5.0619986
  76.4009992  18.6849978  -6.3419986  75.8013439  18.2191887  -5.9185209
  75.2739992  17.6839978  -3.0799986  74.7869992  16.9489978  -3.4509986
  75.8229992  17.2899978  -2.4019986  75.2815247  17.5301057  -3.0391539
  73.7249992  13.4739978   1.5590014  72.8589992  13.3689978   1.9530014
  74.1009992  14.2319978   2.0050014  73.6573401  13.5621708   1.6732620
  75.0259992  11.7299978 -12.9269986  75.8759992  12.1509978 -12.7999986
  75.0309992  10.9899978 -12.3199986  75.1431143  11.6876094 -12.8275250
  75.4199992   9.7839978 -11.1039986  74.6939992   9.3039978 -10.7059986
  76.0019992   9.9889978 -10.3709986  75.3992730   9.7460184 -10.9505851
  75.1789992  12.5689978  -6.1559986  76.0129992  12.1909978  -6.4369986
  75.2909992  13.5119978  -6.2749986  75.3081917  12.6447943  -6.2105139
  73.6659992  15.4469978  -3.8489986  73.0179992  15.7719978  -3.2239986
  73.1479992  15.0059978  -4.5229986  73.5074196  15.4318651  -3.8545848
  75.6889992   9.6849978 -14.7129986  75.1669992  10.0409978 -15.4309986
  75.6559992  10.3599978 -14.0339986  75.6130129   9.8249598 -14.7196645
  74.0379992   6.9239978 -16.1619986  74.1339992   7.5909978 -16.8419986
  73.8979992   6.1089978 -16.6429986  74.0322040   6.9050671 -16.3201622
  73.2069992   8.3049978 -10.5409986  73.0569992   7.3599978 -10.5609986
  72.8529992   8.5859978  -9.6969986  73.1386351   8.2136644 -10.4296780
  58.2419992  10.3829978  -6.5299986  58.4269992  10.3009978  -7.4659986
  59.0919992  10.2589978  -6.1069986  58.3820928  10.3550463  -6.6007107
  74.0629992  10.2749978  -0.9019986  74.6459992   9.5399978  -0.7099986
  74.6269992  11.0469978  -0.8549986  74.2189781  10.2788145  -0.8693836
  75.5599992   8.1779978  -0.2169986  74.6969992   7.7989978  -0.3829986
  76.1639992   7.4389978  -0.2919986  75.5236085   8.0263223  -0.2498305
  73.2849992   4.3319978 -17.0439986  73.8959992   3.9609978 -16.4069986
  72.4479992   3.9109978 -16.8479986  73.2554947   4.2242756 -16.9302748
  72.9179992   5.8869978 -12.0779986  73.1969992   4.9799978 -11.9539986
  73.6769992   6.3209978 -12.4669986  73.0588619   5.8214502 -12.1136205
  73.5289992   6.4689978  -6.6419986  74.4619992   6.6809978  -6.6769986
  73.2939992   6.5699978  -5.7199986  73.6249517   6.5116833  -6.5220870
  73.5589992   7.2059978  -3.8659986  72.7159992   7.4739978  -3.4999986
  74.0009992   8.0279978  -4.0769986  73.5034138   7.3538273  -3.8444482
  57.8399992   5.6529978  -0.3899986  58.7589992   5.5309978  -0.1529986
  57.3899992   4.9029978   0.0000014  57.9050087   5.5349608  -0.3048590
  75.8419992   1.1859978   1.4870014  76.1909992   0.5319978   0.8820014
  75.9889992   2.0229978   1.0470014  75.9096824   1.2096024   1.3446304
  73.5309992   3.1499978 -12.0299986  73.7129992   2.7009978 -11.2049986
  72.9309992   2.5659978 -12.4939986  73.4748187   3.0095552 -11.9797261
  59.0609992   3.9659978  -7.4979986  59.5059992   3.1739978  -7.1959986
  59.5269992   4.6819978  -7.0679986  59.1849718   3.9544534  -7.3984735
  57.3649992   6.9649978  -6.4289986  57.8569992   6.7439978  -7.2199986
  57.7269992   7.8049978  -6.1479986  57.4812923   7.0483468  -6.4992593
  75.3609992   3.2949978  -0.1639986  74.4439992   3.5659978  -0.1989986
  75.4839992   2.7599978  -0.9479986  75.2519672   3.2597885  -0.2748138
  75.3979992   3.2179978 -15.5019986  75.8099992   2.4969978 -15.9769986
  76.0789992   3.8869978 -15.4439986  75.5465536   3.2097766 -15.5591976
  57.6789992   3.2229978 -12.3749986  56.7539992   3.4309978 -12.5039986
  58.1329992   3.7069978 -13.0649986  57.6136298   3.3169299 -12.4859549
  72.4489992  18.2069978 -10.4289986  73.1019992  17.8589978 -11.0369986
  72.9599992  18.6949978  -9.7829986  72.6072777  18.2253815 -10.4247953
  57.6419992   1.9609978  -4.0309986  56.9769992   1.7149978  -3.3879986
  57.1989992   2.5829978  -4.6079986  57.4911168   2.0114214  -4.0210152
  59.8339992  15.1359978   0.1140014  59.0129992  15.3109978  -0.3469986
  59.5819992  15.0629978   1.0340014  59.6875594  15.1500717   0.1753611
  62.7879992  16.1099978  -3.6279986  62.3639992  16.9199978  -3.9099986
  63.6929992  16.1959978  -3.9299986  62.8522138  16.2324160  -3.7073585
  67.0999992  17.5089978  -0.6679986  67.2839992  17.1759978   0.2100014
  67.9459992  17.8189978  -0.9899986  67.2396484  17.5052979  -0.5912383
  69.4449992  18.7949978  -1.4239986  70.1219992  18.1619978  -1.6639986
  69.7659992  19.1959978  -0.6169986  69.5811323  18.7625691  -1.3476842
  74.3619992   1.3849978  -2.3449986  73.5489992   1.7099978  -2.7319986
  74.5949992   0.6239978  -2.8779986  74.2821347   1.3266880  -2.4700159
  60.1899992  19.3669978  -3.5799986  59.4699992  19.8069978  -4.0309986
  59.8249992  19.1159978  -2.7319986  60.0419643  19.3933369  -3.5270871
  62.6569992  18.9669978  -4.5499986  61.7929992  19.0389978  -4.1459986
  62.6019992  19.5139978  -5.3339986  62.5311942  19.0507849  -4.6006000
  67.3679992  18.8549978  -5.3749986  66.9109992  19.3839978  -6.0289986
  67.5309992  19.4579978  -4.6499986  67.3274960  19.0089280  -5.3664726
  69.6959992  17.7329978  -4.4299986  68.7909992  17.8979978  -4.6959986
  70.1239992  18.5859978  -4.4959986  69.6301537  17.8709134  -4.4752905
  72.2999992  19.3029978  -4.1349986  72.1179992  20.2189978  -4.3459986
  72.4769992  18.8919978  -4.9819986  72.2990030  19.3728273  -4.2782834
  59.6049992  17.9899978  -6.6699986  59.5869992  17.5639978  -5.8129986
  60.4099992  17.6709978  -7.0789986  59.7112875  17.8886435  -6.6080485
  61.7459992  16.6999978  -8.0149986  61.5269992  15.7829978  -7.8449986
  62.5699992  16.8399978  -7.5489986  61.8274702  16.5935511  -7.9287473
  64.2829992  17.1699978  -7.1659986  64.4959992  16.2819978  -7.4529986
  64.3479992  17.1349978  -6.2119986  64.3209149  17.0438326  -7.0762631
  67.7919992   2.8339978  -8.0219986  67.1179992   2.2039978  -7.7659986
  68.3559992   2.3499978  -8.6249986  67.7760384   2.6823708  -8.0684980
  72.9349992   0.9409978  -7.9089986  73.5379992   1.4889978  -8.4109986
  72.0649992   1.2599978  -8.1499986  72.8999157   1.0590373  -8.0102090
  74.6619992   2.0799978  -9.5759986  75.2729992   1.5659978 -10.1029986
  75.0439992   2.9569978  -9.5529986  74.7973305   2.1282050  -9.6450582
  60.1189992   1.4679978 -10.1999986  59.3419992   1.2329978 -10.7069986
  60.6489992   0.6709978 -10.1909986  60.0843451   1.3281268 -10.2681373
  58.9549992   1.2659978 -14.3959986  59.3939992   1.8769978 -14.9879986
  58.3209992   1.8039978 -13.9219986  58.9293859   1.4224064 -14.4129695
  64.6979992   1.3939978 -10.3869986  65.5719992   1.7829978 -10.4159986
  64.5619992   1.1789978  -9.4639986  64.7991953   1.4181643 -10.2662383
  70.2549992   1.4239978  -8.7369986  70.3309992   1.5199978  -9.6869986
  69.9799992   0.5169978  -8.6089986  70.2281871   1.3144146  -8.8496056
  71.6079992   1.4499978 -13.0449986  70.9049992   2.0649978 -13.2549986
  71.1629992   0.6129978 -12.9139986  71.4516550   1.4209668 -13.0560163
  58.8559992  17.2139978 -13.4989986  58.1709992  17.1759978 -14.1659986
  58.8599992  18.1269978 -13.2109986  58.7627621  17.3321924 -13.5513874
  60.8159992   3.1819978 -15.9539986  61.3069992   2.5519978 -16.4809986
  61.4389992   3.4779978 -15.2909986  60.9675304   3.1357376 -15.9365060
  65.8419992   3.4749978 -13.4969986  66.0199992   2.8279978 -12.8139986
  65.7879992   4.3089978 -13.0299986  65.8590678   3.4991604 -13.3403699
  67.7199992  18.4229978 -15.1009986  68.5859992  18.7899978 -15.2789986
  67.4739992  17.9839978 -15.9149986  67.8052097  18.4138525 -15.2353981
  74.4289992  17.9859978 -12.4219986  74.2349992  17.2379978 -12.9869986
  74.3899992  18.7439978 -13.0049986  74.3971645  17.9860786 -12.5781852
  60.0759992   1.9819978  -0.6819986  59.7099992   1.2159978  -0.2399986
  60.9889992   2.0109978  -0.3959986  60.1493172   1.8810324  -0.5828110
  62.0489992   1.3319978   0.8530014  62.9479992   1.0579978   0.6690014
  61.6629992   0.5899978   1.3180014  62.1197307   1.1942196   0.8907098
  60.6739992  18.1339978 -16.4739986  60.4059992  18.4199978 -15.5999986
  61.4449992  17.5879978 -16.3209986  60.7415926  18.0992779 -16.3338795
  70.4709992   0.6649978   1.0360014  70.5469992   0.2389978   1.8890014
  71.3639992   0.6779978   0.6930014  70.6022303   0.6083493   1.1065497
  73.6469992  16.7379978  -0.2719986  72.8649992  16.5509978  -0.7919986
  73.5749992  17.6669978  -0.0549986  73.5301924  16.8380637  -0.3138398
  88.0529992  10.6239978 -10.2409986  88.1419992  11.5679978 -10.3729986
  87.4149992  10.3489978 -10.8989986  87.9789062  10.7159812 -10.3480359
  86.9859992   9.8789978  -6.8219986  86.9479992   9.2329978  -6.1169986
  86.6639992   9.4119978  -7.5929986  86.9372679   9.7274276  -6.8297079
  79.3539992   9.4929978  -5.2289986  79.3959992   8.8679978  -4.5059986
  80.0569992  10.1169978  -5.0469986  79.4547345   9.4917873  -5.1054726
  90.6919992  12.8179978  -8.5209986  90.2509992  12.0979978  -8.0699986
  90.6789992  13.5389978  -7.8909986  90.6299215  12.8169291  -8.3741895
  80.2779992  13.9429978  -6.6939986  79.9079992  13.1409978  -7.0639986
  81.2189992  13.7749978  -6.6479986  80.3545984  13.8104638  -6.7384397
  76.8879992   7.6029978 -11.3019986  76.4399992   8.4489978 -11.3199986
  76.3269992   7.0239978 -11.8169986  76.7508546   7.6403993 -11.3741109
  77.5979992   9.7649978  -9.1759986  77.8119992   8.9949978  -8.6479986
  78.3359992   9.8549978  -9.7789986  77.7270200   9.6718587  -9.1852965
  87.8039992  17.9219978  -8.3089986  88.4229992  17.2459978  -8.5819986
  87.5949992  17.7039978  -7.3999986  87.8606056  17.7998869  -8.2236033
  85.3749992  12.3109978  -6.4159986  85.6789992  11.6249978  -7.0109986
  86.0969992  12.4299978  -5.7979986  85.5141240  12.2332314  -6.4139041
  94.0379992   3.9129978  -5.5559986  94.0879992   4.5229978  -4.8199986
  94.4639992   4.3739978  -6.2789986  94.1024108   4.0587709  -5.5529888
  88.5159992   6.7049978  -6.0889986  88.6589992   5.7589978  -6.0689986
  88.4099992   6.9119978  -7.0169986  88.5212403   6.6034797  -6.2117761
  81.6709992   4.8069978  -8.8159986  81.7139992   5.6669978  -9.2349986
  81.2129992   4.2549978  -9.4499986  81.6149871   4.8499245  -8.9589239
  89.3929992   4.9379978 -10.4149986  90.0399992   4.6089978  -9.7909986
  89.9029992   5.4549978 -11.0379986  89.5504351   4.9629067 -10.4138963
  78.2909992   7.2039978  -8.0539986  78.9449992   6.6539978  -7.6219986
  78.3149992   6.9299978  -8.9709986  78.3837199   7.0917167  -8.1188332
  83.4479992   8.7539978  -8.8389986  84.0639992   8.2269978  -8.3299986
  82.8609992   8.1139978  -9.2429986  83.4530154   8.5953954  -8.8239055
  94.4299992   5.3909978  -3.3199986  93.7409992   6.0489978  -3.4149986
  94.4449992   5.1929978  -2.3829986  94.3377756   5.4542603  -3.2064188
  80.4809992   3.7249978  -4.7419986  80.2619992   4.2549978  -5.5089986
  79.8129992   3.9509978  -4.0949986  80.3606975   3.8280967  -4.7594860
  87.8499992  13.2249978 -11.1979986  87.5549992  12.9019978 -12.0499986
  87.5259992  14.1249978 -11.1569986  87.7658460  13.3024464 -11.3090286
  83.0499992  11.3999978  -4.4549986  82.3099992  11.9989978  -4.3509986
  83.7639992  11.9539978  -4.7699986  83.0453500  11.5567829  -4.4833629
  91.1569992   4.2289978  -8.4349986  90.9419992   3.4629978  -7.9019986
  91.8129992   4.7009978  -7.9219986  91.2162673   4.1880728  -8.2928010
  80.0749992   5.6169978  -6.7899986  80.6889992   6.2499978  -6.4169986
  80.5869992   5.1449978  -7.4459986  80.2281962   5.6397249  -6.8277065
  81.4579992  13.3649978  -3.6679986  81.4519992  14.2439978  -4.0459986
  80.6039992  13.2809978  -3.2429986  81.3417925  13.4739535  -3.6623113
  77.5789992  13.0359978 -12.8859986  77.3069992  13.2649978 -13.7739986
  77.6239992  13.8729978 -12.4249986  77.5478097  13.1806163 -12.9453317
  91.2039992  14.6569978  -6.1729986  90.2619992  14.7159978  -6.0109986
  91.4799992  15.5629978  -6.3099986  91.1125865  14.7875288  -6.1693808
  91.5039992   2.9439978  -4.7559986  90.7679992   3.5539978  -4.7929986
  92.1879992   3.3589978  -5.2819986  91.4955367   3.0837551  -4.8321826
  84.5079992   1.0299978  -7.2899986  84.3899992   0.0819978  -7.3439986
  83.6529992   1.3629978  -7.0169986  84.3762805   0.9452202  -7.2604921
  89.4559992  16.4379978  -9.5479986  89.8809992  15.7309978 -10.0329986
  89.7729992  17.2399978  -9.9649986  89.5570266  16.4495190  -9.6707521
  90.6159992  14.3389978 -11.0389986  90.3579992  13.6489978 -11.6509986
  90.6869992  13.8959978 -10.1939986  90.5903050  14.1846814 -11.0084379
  92.3019992  12.9059978  -2.5619986  92.4409992  12.3139978  -3.3009986
  92.4689992  13.7789978  -2.9179986  92.3436193  12.9428896  -2.7113789
  86.7739992   9.8679978 -12.7889986  86.0629992  10.4029978 -13.1409986
  87.4649992   9.9229978 -13.4489986  86.7700751   9.9486777 -12.9264142
  86.8279992   8.3249978 -15.7509986  87.5289992   8.3479978 -15.0989986
  87.1299992   7.6969978 -16.4069986  86.9648202   8.2432212 -15.7504391
  94.1429992   9.2459978  -4.4959986  93.4909992   9.9399978  -4.4069986
  94.6089992   9.4559978  -5.3059986  94.1165937   9.3695019  -4.5932467
  90.1799992  10.0769978 -11.8379986  89.4479992  10.3059978 -11.2639986
  90.6269992   9.3639978 -11.3829986  90.1403963  10.0118729 -11.6980055
  90.0769992   8.2519978  -2.7699986  90.1569992   9.0149978  -2.1979986
  89.4759992   8.5309978  -3.4599986  90.0066547   8.3942457  -2.7849953
  81.8249992  10.7079978  -9.9549986  81.4949992  10.3369978 -10.7729986
  82.4139992  10.0369978  -9.6079986  81.8593970  10.5666063 -10.0200596
  83.1919992  14.1359978  -7.2739986  83.0969992  13.5569978  -8.0299986
  83.9209992  13.7649978  -6.7779986  83.2776011  14.0065561  -7.3103972
  82.1919992   9.4759978  -6.3219986  82.7569992   9.5979978  -7.0839986
  82.5109992  10.1139978  -5.6829986  82.3124166   9.5788791  -6.3399652
  88.5009992  14.9799978  -5.5879986  88.2609992  15.6419978  -4.9399986
  88.3029992  14.1449978  -5.1629986  88.4413826  14.9578115  -5.4418434
  83.0719992  13.8759978  -1.6039986  82.7609992  14.6579978  -1.1489986
  82.4219992  13.7229978  -2.2899986  82.9415538  13.9624087  -1.6344102
  89.0509992   9.2399978 -14.1519986  89.6299992   9.3899978 -13.4059986
  89.4649992   9.7099978 -14.8759986  89.1863358   9.3240954 -14.1476047
  79.9919992  10.0739978  -2.3759986  80.0619992  10.7249978  -1.6769986
  79.1009992  10.1769978  -2.7109986  79.8811690  10.1769249  -2.3256957
  86.7769992  15.9759978 -10.7169986  87.2509992  16.2719978  -9.9399986
  86.2139992  16.7149978 -10.9499986  86.7657890  16.1163036 -10.6421899
  81.3109992  15.9469978  -0.8409986  81.3189992  15.8109978  -1.7879986
  80.3949992  15.8299978  -0.5889986  81.1882528  15.9125463  -0.9366757
  92.7499992   0.9899978 -14.3389986  91.8499992   1.1289978 -14.0439986
  93.0019992   1.8209978 -14.7409986  92.6608683   1.1214055 -14.3529768
  80.8159992   9.7769978 -12.3659986  80.5239992  10.5449978 -12.8569986
  80.1409992   9.1179978 -12.5289986  80.6848497   9.7929745 -12.4551740
  93.9389992  15.3559978 -15.9629986  94.0119992  16.2949978 -15.7929986
  94.8439992  15.0509978 -16.0189986  94.0714170  15.4433282 -15.9472937
  76.9089992  12.1399978  -3.5509986  76.4069992  12.1119978  -4.3659986
  76.9139992  11.2349978  -3.2409986  76.8409832  12.0137486  -3.6205879
  76.6589992  14.9209978  -6.6669986  77.6049992  14.7759978  -6.6859986
  76.5459992  15.7049978  -6.1299986  76.7733578  15.0071697  -6.5969683
  94.8569992  15.5869978  -0.9839986  94.8069992  14.6309978  -1.0219986
  94.0299992  15.8539978  -0.5829986  94.7383831  15.4924680  -0.9349879
  85.8349992  15.1609978  -2.1079986  85.9229992  15.9869978  -1.6329986
  84.9719992  14.8309978  -1.8589986  85.7303357  15.2295468  -2.0092347
  86.2499992  18.9329978 -12.3019986  86.1739992  18.8119978 -13.2489986
  86.2819992  19.8819978 -12.1839986  86.2439380  19.0447677 -12.4154819
  79.9029992  17.7219978 -10.5209986  80.0549992  17.3739978  -9.6429986
  79.0519992  17.3649978 -10.7769986  79.8088344  17.6260879 -10.4353132
  89.3509992  18.0869978 -15.2999986  89.7259992  17.3429978 -15.7709986
  89.3559992  17.8169978 -14.3819986  89.4030098  17.9486392 -15.2403371
  89.0199992  18.0129978 -12.5509986  88.0849992  18.1129978 -12.3719986
  89.2999992  17.3029978 -11.9719986  88.9299471  17.9307933 -12.4483305
  92.0089992   7.0799978  -0.5039986  91.6009992   7.5599978  -1.2249986
  92.0489992   6.1739978  -0.8119986  91.9586221   7.0232449  -0.6441733
  79.1579992  13.4639978  -2.5079986  79.3739992  13.1019978  -1.6479986
  78.3019992  13.0889978  -2.7169986  79.0718810  13.3638837  -2.4187320
  81.7759992   1.9339978  -6.5119986  80.9149992   1.8469978  -6.9199986
  81.7539992   2.7899978  -6.0839986  81.6550491   2.0378003  -6.5100418
  86.4389992   1.6559978  -3.1369986  86.8589992   1.2409978  -2.3839986
  85.5059992   1.4769978  -3.0199986  86.3703736   1.5749910  -3.0181032
  89.7659992   5.4109978  -2.2839986  89.2519992   5.2859978  -1.4859986
  89.6099992   6.3239978  -2.5279986  89.6746967   5.5172123  -2.2079063
  90.5279992  10.2719978 -16.5229986  90.5699992  10.0499978 -17.4529986
  91.3769992  10.6709978 -16.3329986  90.6485253  10.2955498 -16.6246178
  86.1009992   4.1479978 -15.8519986  85.8469992   4.1669978 -14.9299986
  85.8439992   3.2769978 -16.1539986  86.0314508   4.0328280 -15.7665197
  81.8669992   6.8989978  -5.4169986  81.2259992   6.8589978  -4.7079986
  81.9049992   7.8259978  -5.6549986  81.7843010   7.0187668  -5.3520054
  81.8639992   7.1199978 -10.5049986  80.9719992   6.7799978 -10.5639986
  82.3149992   6.7429978 -11.2609986  81.8027642   7.0224910 -10.6152274
  87.3999992   7.5359978 -11.6879986  86.9909992   8.3509978 -11.9799986
  88.1199992   7.3959978 -12.3019986  87.4414439   7.6285372 -11.8109885
  86.5019992   7.7119978  -0.1999986  85.9389992   7.0069978   0.1210014
  87.3279992   7.5909978   0.2680014  86.5366674   7.5992165  -0.0928249
  88.4049992   6.9819978  -8.8739986  88.2089992   7.5879978  -9.5889986
  88.5859992   6.1489978  -9.3079986  88.4026584   6.9522513  -9.0305788
  79.6169992   7.2199978  -3.5499986  79.5789992   7.6199978  -2.6809986
  79.1269992   6.4029978  -3.4599986  79.5455330   7.1642674  -3.4188711
  82.9829992   4.5939978 -16.7509986  82.5519992   4.1489978 -16.0219986
  82.2649992   4.9649978 -17.2639986  82.8269176   4.5832051 -16.7205070
  76.2259992   4.3359978  -9.6989986  76.8559992   4.3069978  -8.9799986
  76.6749992   3.9109978 -10.4299986  76.3730835   4.2745660  -9.6992341
  77.4999992   5.0819978 -14.2749986  77.9739992   5.6729978 -14.8599986
  76.7819992   5.6119978 -13.9279986  77.4678640   5.2345511 -14.3082031
  87.6689992   8.6199978  -4.2029986  87.9919992   7.9889978  -4.8459986
  87.2279992   8.0859978  -3.5419986  87.6536379   8.4613468  -4.2017418
  84.4459992   4.5479978  -9.4189986  83.5349992   4.6049978  -9.1299986
  84.9509992   4.4879978  -8.6079986  84.3896873   4.5476826  -9.2698793
  79.2739992   6.1769978 -10.5919986  78.3849992   6.2759978 -10.9319986
  79.5709992   5.3349978 -10.9379986  79.1924177   6.0767687 -10.6853060
  82.9269992   6.1769978 -12.9349986  83.8589992   6.3059978 -12.7569986
  82.7119992   6.8459978 -13.5849986  83.0254472   6.2850806 -12.9985109
  88.8509992   3.7829978  -6.1539986  88.1739992   3.9139978  -5.4909986
  88.3659992   3.6279978  -6.9649986  88.6927405   3.7799947  -6.1727830
  81.6009992   7.3709978 -15.3689986  81.0589992   6.9919978 -16.0599986
  82.4349992   7.5659978 -15.7969986  81.6394390   7.3454079 -15.5215608
  92.1389992  19.4539978   0.1220014  92.3379992  19.8779978  -0.7119986
  92.7939992  19.7979978   0.7290014  92.2548522  19.5586301   0.0897852
  79.7369992  11.9279978  -0.2699986  80.4689992  12.1829978   0.2920014
  78.9559992  12.1329978   0.2460014  79.7316526  11.9905449  -0.1234824
  85.7659992   7.3349978  -7.5319986  86.3299992   6.7889978  -8.0789986
  85.6179992   6.8139978  -6.7429986  85.8233037   7.1896787  -7.5002771
  80.7679992   3.4719978 -11.1129986  80.4509992   2.5689978 -11.1489986
  81.5489992   3.4739978 -11.6659986  80.8302431   3.3487797 -11.1926898
  84.3919992   5.7239978  -5.1179986  83.5569992   6.1779978  -5.0069986
  84.9159992   5.9999978  -4.3659986  84.3486072   5.8233948  -5.0011864
  84.9369992  11.9369978 -13.4329986  84.1919992  11.4289978 -13.7549986
  84.8019992  11.9859978 -12.4869986  84.8168963  11.8741731 -13.3491174
  92.0869992  11.0699978  -4.6459986  92.7279992  11.5259978  -5.1899986
  91.2559992  11.1829978  -5.1089986  92.0625287  11.1476921  -4.7830113
  88.8339992   4.7509978 -15.2339986  87.8959992   4.8619978 -15.3849986
  89.1319992   5.6069978 -14.9269986  88.7456318   4.8820158 -15.2131855
  86.4559992  12.1209978  -2.1959986  86.1099992  11.7389978  -1.3889986
  86.2559992  13.0539978  -2.1249986  86.3815987  12.1949002  -2.0759539
  89.5529992   6.6179978 -13.5729986  90.4449992   6.4799978 -13.2539986
  89.6089992   7.4089978 -14.1099986  89.6827325   6.7059918 -13.6018783
  80.0609992  11.2319978  -7.6629986  80.8059992  11.2289978  -8.2649986
  80.1389992  10.4079978  -7.1819986  80.1733365  11.1202384  -7.6802570
  87.0619992  13.3949978 -14.4079986  86.7669992  14.2219978 -14.0259986
  86.3589992  12.7759978 -14.2109986  86.9266379  13.4244171 -14.3291346
  77.0689992   9.6919978  -2.3479986  77.2919992   9.2739978  -1.5169986
  76.4669992   9.0799978  -2.7709986  77.0181513   9.5519606  -2.2913260
  84.0859992   9.2089978  -0.1349986  83.7899992   9.0439978  -1.0309986
  85.0169992   8.9889978  -0.1459986  84.1714401   9.1566879  -0.2589794
  88.7059992  14.5829978  -2.2459986  87.8059992  14.7659978  -2.5129986
  88.7399992  14.8419978  -1.3249986  88.5873748  14.6430554  -2.1580836
  94.4379992   6.8269978 -13.8779986  93.8829992   6.4309978 -14.5509986
  94.5379992   7.7379978 -14.1559986  94.3756816   6.8959505 -14.0074967
  94.4009992  12.6279978  -1.0409986  93.5499992  12.8659978  -1.4089986
  94.9909992  12.6109978  -1.7939986  94.3643812  12.6582524  -1.1931547
  92.7329992  15.6129978 -13.4129986  92.3599992  14.7879978 -13.1039986
  93.0099992  15.4299978 -14.3109986  92.7193463  15.4752569 -13.4920475
  89.8929992  10.4209978  -6.3919986  88.9649992  10.1899978  -6.4189986
  90.3439992   9.6439978  -6.7219986  89.8268165  10.2842774  -6.4403210
  82.4359992  14.7499978 -10.2589986  82.9639992  15.5229978 -10.4589986
  81.5559992  14.9739978 -10.5609986  82.3893435  14.8862700 -10.3272690
  78.1909992   9.6119978 -15.6719986  78.8069992  10.2389978 -15.2919986
  77.3289992   9.9279978 -15.3999986  78.1587678   9.7404412 -15.5832791
  83.8639992  12.4129978 -10.6829986  83.6229992  13.3379978 -10.6409986
  83.1229992  11.9539978 -10.2859986  83.7309206  12.4775915 -10.6236231
  84.3779992  16.5619978  -4.3679986  84.7409992  17.4159978  -4.6009986
  84.9099992  16.2699978  -3.6269986  84.4995141  16.6393895  -4.2997903
  82.5469992  17.4339978 -11.1369986  81.5969992  17.5399978 -11.0859986
  82.8989992  18.2549978 -10.7929986  82.4645472  17.5594923 -11.0835148
  87.9219992  12.6609978  -4.6669986  87.4969992  12.4329978  -3.8409986
  88.5029992  11.9219978  -4.8489986  87.9423395  12.5299545  -4.5785586
  90.1249992  13.5899978 -15.5929986  90.4789992  13.2099978 -14.7889986
  89.1769992  13.4959978 -15.5059986  90.0452298  13.5252452 -15.4711313
  90.5809992  17.2129978  -2.1979986  89.9789992  16.6569978  -2.6929986
  90.8619992  17.8799978  -2.8239986  90.5365757  17.2270744  -2.3504325
  94.6289992  18.0689978 -15.3919986  95.3729992  18.6549978 -15.5319986
  93.9349992  18.6379978 -15.0589986  94.6369809  18.2260818 -15.3661410
  78.7029992   4.4459978  -2.7899986  77.8109992   4.7839978  -2.8579986
  78.6049992   3.5899978  -2.3719986  78.5674475   4.3766543  -2.7428296
  90.9909992  12.2619978 -13.3659986  90.7139992  11.5339978 -12.8099986
  91.9189992  12.3809978 -13.1609986  91.0784499  12.1784213 -13.2621956
  78.3549992  16.2499978  -4.3549986  78.5719992  15.3179978  -4.3859986
  78.6009992  16.5249978  -3.4719986  78.4179809  16.1595686  -4.2398309
  83.1529992  14.2719978 -14.6899986  83.2999992  13.7519978 -13.8999986
  83.1499992  15.1789978 -14.3829986  83.1727102  14.3233953 -14.5404075
  79.6059992  11.5239978 -14.1789986  78.9199992  11.8769978 -13.6119986
  80.1289992  12.2869978 -14.4259986  79.5828402  11.6753901 -14.1348199
  87.4379992   4.1869978  -3.8999986  88.1369992   4.2609978  -3.2499986
  87.0569992   3.3219978  -3.7459986  87.4822097   4.0802389  -3.7902003
  88.2219992   3.8389978 -12.8029986  88.4419992   4.3099978 -13.6069986
  88.7809992   4.2329978 -12.1329986  88.3276731   3.9567287 -12.8224967
  85.8909992  15.9689978 -13.9399986  85.0739992  16.4659978 -13.8879986
  86.4199992  16.4449978 -14.5809986  85.8508125  16.1011989 -14.0194694
  85.4219992   5.5669978 -11.9679986  86.2339992   6.0709978 -11.9219986
  85.1779992   5.4219978 -11.0539986  85.5001467   5.6163749 -11.8381425
  85.9579992   6.5529978  -2.7839986  86.0769992   7.1269978  -2.0269986
  86.6129992   5.8649978  -2.6689986  86.0628684   6.5385194  -2.6648326
  86.3059992   2.6479978 -11.0299986  85.9589992   3.2649978 -10.3859986
  86.9649992   3.1489978 -11.5119986  86.3475090   2.8001575 -11.0069319
  83.2289992  17.0129978 -13.9589986  83.3899992  17.8129978 -14.4589986
  83.0319992  17.3199978 -13.0739986  83.2243906  17.1638678 -13.9077667
  81.9639992   3.7109978 -14.3429986  81.8799992   4.5989978 -13.9959986
  82.8539992   3.4459978 -14.1109986  82.0728163   3.7967179 -14.2641404
  92.1619992   4.4599978  -1.9489986  91.2459992   4.7219978  -2.0359986
  92.4979992   4.4569978  -2.8449986  92.0818499   4.4955163  -2.0821234
  90.7649992   8.2099978  -7.8529986  89.9669992   7.7949978  -8.1809986
  91.2099992   7.5199978  -7.3619986  90.7159684   8.0598628  -7.8314773
  80.2219992  14.1379978 -15.2829986  80.8139992  14.8379978 -15.0059986
  80.6809992  13.7049978 -16.0019986  80.3651652  14.1752675 -15.3423467
  78.5379992   6.8029978 -16.1669986  78.4929992   7.7419978 -15.9879986
  77.6499992   6.5669978 -16.4359986  78.4118166   6.8996687 -16.1788476
  91.8509992  17.4659978  -6.2309986  91.6949992  18.1449978  -6.8879986
  92.7839992  17.5379978  -6.0279986  91.9557387  17.5686390  -6.2934658
  79.3459992   1.5839978  -7.4929986  79.1169992   1.6429978  -8.4209986
  78.9039992   0.7929978  -7.1869986  79.2548801   1.4850540  -7.5785271
  78.2769992  15.5249978 -11.3329986  77.4439992  15.9969978 -11.3059986
  78.8219992  16.0349978 -11.9319986  78.2367857  15.6584791 -11.4102858
  77.5649992  18.1369978  -0.0029986  78.1049992  17.9209978   0.7570014
  77.0839992  17.3319978  -0.1929986  77.5739219  17.9985156   0.0754282
  82.1619992  17.0569978   1.6170014  82.9299992  16.5979978   1.9580014
  82.1409992  16.8309978   0.6870014  82.2642135  16.9636668   1.5379491
  86.2539992  16.5649978 -17.0069986  85.6099992  15.9339978 -16.6859986
  87.0159992  16.0339978 -17.2389986  86.2688058  16.4067902 -16.9943962
  88.7389992  15.4369978   0.3460014  88.3879992  14.5799978   0.5900014
  89.4649992  15.5789978   0.9530014  88.7891895  15.3391351   0.4613770
  90.8589992  16.3819978 -16.7739986  91.1419992  15.5869978 -16.3209986
  91.5979992  16.6149978 -17.3349986  90.9977096  16.3047049 -16.7878896
  77.4719992  11.9479978   0.9510014  77.6159992  11.0459978   0.6650014
  76.6999992  12.2339978   0.4640014  77.3872733  11.8631798   0.8459532
  81.8129992  12.2909978 -16.9159986  81.8779992  11.4969978 -16.3859986
  82.4659992  12.1729978 -17.6059986  81.9101605  12.1663430 -16.9367003
  84.1269992  11.9169978   0.3840014  83.7989992  12.1879978  -0.4729986
  84.2789992  10.9759978   0.2960014  84.1026412  11.8269046   0.2547822
  89.8619992  11.8329978  -2.2329986  90.6069992  12.4219978  -2.3519986
  89.1049992  12.4149978  -2.1689986  89.8615470  11.9922128  -2.2406201
  78.3049992   9.1479978   0.3710014  78.7129992   8.2909978   0.2500014
  78.0439992   9.1619978   1.2920014  78.3256016   9.0325119   0.4789192
  82.9629992  10.2639978 -14.6099986  82.5029992   9.7799978 -13.9249986
  83.2179992   9.5949978 -15.2459986  82.9344856  10.1073669 -14.6021603
  82.2519992   8.1569978  -2.2539986  81.6329992   8.8309978  -1.9739986
  82.5959992   8.4779978  -3.0879986  82.2137123   8.2926887  -2.3283612
  84.0339992   8.5069978 -16.3479986  83.8529992   8.3519978 -17.2749986
  84.9839992   8.6149978 -16.3029986  84.1376566   8.5003669 -16.4689071
  87.2709992  10.6279978   1.0230014  88.2249992  10.7119978   0.9960014
  87.1109992   9.9159978   1.6430014  87.3797182  10.5432842   1.1030733
  93.4239992  10.8609978 -16.9019986  93.1499992  10.4369978 -17.7149986
  93.4629992  11.7929978 -17.1189986  93.3917716  10.9288827 -17.0425714
  82.5909992   5.5119978  -1.1719986  82.7409992   4.7829978  -1.7739986
  82.5929992   6.2889978  -1.7309986  82.6117967   5.5172708  -1.3299459
  83.0039992   3.8809978  -3.6789986  83.5389992   4.3329978  -4.3309986
  82.1509992   3.7729978  -4.1019986  82.9620374   3.9282665  -3.8253290
  84.5849992   9.3209978  -3.4399986  85.3359992   9.1649978  -4.0129986
  84.2459992  10.1729978  -3.7149986  84.6419587   9.4148138  -3.5555922
  89.0009992   7.1359978   1.5890014  89.1929992   6.2049978   1.4770014
  89.8589992   7.5609978   1.5780014  89.1432182   7.0660070   1.5721862
  90.3179992   9.9249978  -0.3339986  90.0359992  10.6339978  -0.9119986
  91.2599992   9.8519978  -0.4849986  90.4067921  10.0122193  -0.4335775
  81.0699992   6.7099978   0.7390014  80.3019992   6.1769978   0.5290014
  81.7479992   6.3999978   0.1400014  81.0567235   6.5951754   0.6292413
  83.8089992   1.3379978  -3.2479986  83.7109992   2.2839978  -3.3529986
  83.0669992   0.9649978  -3.7239986  83.6952534   1.4171773  -3.3267400
  85.0729992   5.6589978   0.3160014  84.8379992   5.4399978   1.2170014
  84.2899992   5.4519978  -0.1939986  84.9349095   5.6009892   0.3705353
  87.7889992   4.7869978  -0.6089986  86.8409992   4.8189978  -0.4769986
  88.1009992   4.1609978   0.0450014  87.7015293   4.7067923  -0.5025852
  89.4229992   3.4209978   1.3960014  89.3259992   2.4689978   1.3910014
  89.1009992   3.6889978   2.2570014  89.3662468   3.3270884   1.5116210
  79.2499992   4.6299978   0.4440014  79.4619992   3.9239978  -0.1659986
  79.1389992   4.1929978   1.2880014  79.2640269   4.4741921   0.4745873
  84.0309992   0.6319978  -0.5769986  84.7429992  -0.0080022  -0.5909986
  83.9299992   0.8979978  -1.4899986  84.1147387   0.5804330  -0.7024437
  84.3849992   2.3139978   1.4770014  84.2529992   1.8389978   0.6570014
  83.7849992   3.0589978   1.4220014  84.2859070   2.3495789   1.3573251
  83.9309992  19.1969978 -15.3469986  84.8639992  19.3549978 -15.2029986
  83.6669992  19.8729978 -15.9719986  84.0229911  19.3099373 -15.4117278
  77.4989992  13.8339978 -15.8639986  78.4129992  13.9129978 -15.5909986
  77.5069992  13.1469978 -16.5299986  77.6250655  13.7519205 -15.9167083
  76.1479992  19.2269978 -10.7869986  75.5009992  18.7649978 -11.3189986
  76.5029992  18.5549978 -10.2039986  76.1073741  19.0729774 -10.7810825
  77.0179992  17.3069978  -8.9819986  76.6839992  16.4269978  -8.8099986
  77.2409992  17.6529978  -8.1169986  77.0023721  17.2331938  -8.8415832
  94.5669992  18.1169978  -6.0009986  94.5449992  18.3019978  -5.0619986
  95.2569992  18.6849978  -6.3419986  94.6573439  18.2191887  -5.9185209
  94.1299992  17.6839978  -3.0799986  93.6429992  16.9489978  -3.4509986
  94.6789992  17.2899978  -2.4019986  94.1375247  17.5301057  -3.0391539
  92.5809992  13.4739978   1.5590014  91.7149992  13.3689978   1.9530014
  92.9569992  14.2319978   2.0050014  92.5133401  13.5621708   1.6732620
  93.8819992  11.7299978 -12.9269986  94.7319992  12.1509978 -12.7999986
  93.8869992  10.9899978 -12.3199986  93.9991143  11.6876094 -12.8275250
  94.2759992   9.7839978 -11.1039986  93.5499992   9.3039978 -10.7059986
  94.8579992   9.9889978 -10.3709986  94.2552730   9.7460184 -10.9505851
  94.0349992  12.5689978  -6.1559986  94.8689992  12.1909978  -6.4369986
  94.1469992  13.5119978  -6.2749986  94.1641917  12.6447943  -6.2105139
  92.5219992  15.4469978  -3.8489986  91.8739992  15.7719978  -3.2239986
  92.0039992  15.0059978  -4.5229986  92.3634196  15.4318651  -3.8545848
  94.5449992   9.6849978 -14.7129986  94.0229992  10.0409978 -15.4309986
  94.5119992  10.3599978 -14.0339986  94.4690129   9.8249598 -14.7196645
  92.8939992   6.9239978 -16.1619986  92.9899992   7.5909978 -16.8419986
  92.7539992   6.1089978 -16.6429986  92.8882040   6.9050671 -16.3201622
  92.0629992   8.3049978 -10.5409986  91.9129992   7.3599978 -10.5609986
  91.7089992   8.5859978  -9.6969986  91.9946351   8.2136644 -10.4296780
  77.0979992  10.3829978  -6.5299986  77.2829992  10.3009978  -7.4659986
  77.9479992  10.2589978  -6.1069986  77.2380928  10.3550463  -6.6007107
  92.9189992  10.2749978  -0.9019986  93.5019992   9.5399978  -0.7099986
  93.4829992  11.0469978  -0.8549986  93.0749781  10.2788145  -0.8693836
  94.4159992   8.1779978  -0.2169986  93.5529992   7.7989978  -0.3829986
  95.0199992   7.4389978  -0.2919986  94.3796085   8.0263223  -0.2498305
  92.1409992   4.3319978 -17.0439986  92.7519992   3.9609978 -16.4069986
  91.3039992   3.9109978 -16.8479986  92.1114947   4.2242756 -16.9302748
  91.7739992   5.8869978 -12.0779986  92.0529992   4.9799978 -11.9539986
  92.5329992   6.3209978 -12.4669986  91.9148619   5.8214502 -12.1136205
  92.3849992   6.4689978  -6.6419986  93.3179992   6.6809978  -6.6769986
  92.1499992   6.5699978  -5.7199986  92.4809517   6.5116833  -6.5220870
  92.4149992   7.2059978  -3.8659986  91.5719992   7.4739978  -3.4999986
  92.8569992   8.0279978  -4.0769986  92.3594138   7.3538273  -3.8444482
  76.6959992   5.6529978  -0.3899986  77.6149992   5.5309978  -0.1529986
  76.2459992   4.9029978   0.0000014  76.7610087   5.5349608  -0.3048590
  94.6979992   1.1859978   1.4870014  95.0469992   0.5319978   0.8820014
  94.8449992   2.0229978   1.0470014  94.7656824   1.2096024   1.3446304
  92.3869992   3.1499978 -12.0299986  92.5689992   2.7009978 -11.2049986
  91.7869992   2.5659978 -12.4939986  92.3308187   3.0095552 -11.9797261
  77.9169992   3.9659978  -7.4979986  78.3619992   3.1739978  -7.1959986
  78.3829992   4.6819978  -7.0679986  78.0409718   3.9544534  -7.3984735
  76.2209992   6.9649978  -6.4289986  76.7129992   6.7439978  -7.2199986
  76.5829992   7.8049978  -6.1479986  76.3372923   7.0483468  -6.4992593
  94.2169992   3.2949978  -0.1639986  93.2999992   3.5659978  -0.1989986
  94.3399992   2.7599978  -0.9479986  94.1079672   3.2597885  -0.2748138
  94.2539992   3.2179978 -15.5019986  94.6659992   2.4969978 -15.9769986
  94.9349992   3.8869978 -15.4439986  94.4025536   3.2097766 -15.5591976
  76.5349992   3.2229978 -12.3749986  75.6099992   3.4309978 -12.5039986
  76.9889992   3.7069978 -13.0649986  76.4696298   3.3169299 -12.4859549
  91.3049992  18.2069978 -10.4289986  91.9579992  17.8589978 -11.0369986
  91.8159992  18.6949978  -9.7829986  91.4632777  18.2253815 -10.4247953
  76.4979992   1.9609978  -4.0309986  75.8329992   1.7149978  -3.3879986
  76.0549992   2.5829978  -4.6079986  76.3471168   2.0114214  -4.0210152
  78.6899992  15.1359978   0.1140014  77.8689992  15.3109978  -0.3469986
  78.4379992  15.0629978   1.0340014  78.5435594  15.1500717   0.1753611
  81.6439992  16.1099978  -3.6279986  81.2199992  16.9199978  -3.9099986
  82.5489992  16.1959978  -3.9299986  81.7082138  16.2324160  -3.7073585
  85.9559992  17.5089978  -0.6679986  86.1399992  17.1759978   0.2100014
  86.8019992  17.8189978  -0.9899986  86.0956484  17.5052979  -0.5912383
  88.3009992  18.7949978  -1.4239986  88.9779992  18.1619978  -1.6639986
  88.6219992  19.1959978  -0.6169986  88.4371323  18.7625691  -1.3476842
  93.2179992   1.3849978  -2.3449986  92.4049992   1.7099978  -2.7319986
  93.4509992   0.6239978  -2.8779986  93.1381347   1.3266880  -2.4700159
  79.0459992  19.3669978  -3.5799986  78.3259992  19.8069978  -4.0309986
  78.6809992  19.1159978  -2.7319986  78.8979643  19.3933369  -3.5270871
  81.5129992  18.9669978  -4.5499986  80.6489992  19.0389978  -4.1459986
  81.4579992  19.5139978  -5.3339986  81.3871942  19.0507849  -4.6006000
  86.2239992  18.8549978  -5.3749986  85.7669992  19.3839978  -6.0289986
  86.3869992  19.4579978  -4.6499986  86.1834960  19.0089280  -5.3664726
  88.5519992  17.7329978  -4.4299986  87.6469992  17.8979978  -4.6959986
  88.9799992  18.5859978  -4.4959986  88.4861537  17.8709134  -4.4752905
  91.1559992  19.3029978  -4.1349986  90.9739992  20.2189978  -4.3459986
  91.3329992  18.8919978  -4.9819986  91.1550030  19.3728273  -4.2782834
  78.4609992  17.9899978  -6.6699986  78.4429992  17.5639978  -5.8129986
  79.2659992  17.6709978  -7.0789986  78.5672875  17.8886435  -6.6080485
  80.6019992  16.6999978  -8.0149986  80.3829992  15.7829978  -7.8449986
  81.4259992  16.8399978  -7.5489986  80.6834702  16.5935511  -7.9287473
  83.1389992  17.1699978  -7.1659986  83.3519992  16.2819978  -7.4529986
  83.2039992  17.1349978  -6.2119986  83.1769149  17.0438326  -7.0762631
  86.6479992   2.8339978  -8.0219986  85.9739992   2.2039978  -7.7659986
  87.2119992   2.3499978  -8.6249986  86.6320384   2.6823708  -8.0684980
  91.7909992   0.9409978  -7.9089986  92.3939992   1.4889978  -8.4109986
  90.9209992   1.2599978  -8.1499986  91.7559157   1.0590373  -8.0102090
  93.5179992   2.0799978  -9.5759986  94.1289992   1.5659978 -10.1029986
  93.8999992   2.9569978  -9.5529986  93.6533305   2.1282050  -9.6450582
  78.9749992   1.4679978 -10.1999986  78.1979992   1.2329978 -10.7069986
  79.5049992   0.6709978 -10.1909986  78.9403451   1.3281268 -10.2681373
  77.8109992   1.2659978 -14.3959986  78.2499992   1.8769978 -14.9879986
  77.1769992   1.8039978 -13.9219986  77.7853859   1.4224064 -14.4129695
  83.5539992   1.3939978 -10.3869986  84.4279992   1.7829978 -10.4159986
  83.4179992   1.1789978  -9.4639986  83.6551953   1.4181643 -10.2662383
  89.1109992   1.4239978  -8.7369986  89.1869992   1.5199978  -9.6869986
  88.8359992   0.5169978  -8.6089986  89.0841871   1.3144146  -8.8496056
  90.4639992   1.4499978 -13.0449986  89.7609992   2.0649978 -13.2549986
  90.0189992   0.6129978 -12.9139986  90.3076550   1.4209668 -13.0560163
  77.7119992  17.2139978 -13.4989986  77.0269992  17.1759978 -14.1659986
  77.7159992  18.1269978 -13.2109986  77.6187621  17.3321924 -13.5513874
  79.6719992   3.1819978 -15.9539986  80.1629992   2.5519978 -16.4809986
  80.2949992   3.4779978 -15.2909986  79.8235304   3.1357376 -15.9365060
  84.6979992   3.4749978 -13.4969986  84.8759992   2.8279978 -12.8139986
  84.6439992   4.3089978 -13.0299986  84.7150678   3.4991604 -13.3403699
  86.5759992  18.4229978 -15.1009986  87.4419992  18.7899978 -15.2789986
  86.3299992  17.9839978 -15.9149986  86.6612097  18.4138525 -15.2353981
  93.2849992  17.9859978 -12.4219986  93.0909992  17.2379978 -12.9869986
  93.2459992  18.7439978 -13.0049986  93.2531645  17.9860786 -12.5781852
  78.9319992   1.9819978  -0.6819986  78.5659992   1.2159978  -0.2399986
  79.8449992   2.0109978  -0.3959986  79.0053172   1.8810324  -0.5828110
  80.9049992   1.3319978   0.8530014  81.8039992   1.0579978   0.6690014
  80.5189992   0.5899978   1.3180014  80.9757307   1.1942196   0.8907098
  79.5299992  18.1339978 -16.4739986  79.2619992  18.4199978 -15.5999986
  80.3009992  17.5879978 -16.3209986  79.5975927  18.0992779 -16.3338795
  89.3269992   0.6649978   1.0360014  89.4029992   0.2389978   1.8890014
  90.2199992   0.6779978   0.6930014  89.4582303   0.6083493   1.1065497
  92.5029992  16.7379978  -0.2719986  91.7209992  16.5509978  -0.7919986
  92.4309992  17.6669978  -0.0549986  92.3861924  16.8380637  -0.3138398
 106.9089992  10.6239978 -10.2409986 106.9979992  11.5679978 -10.3729986
 106.2709992  10.3489978 -10.8989986 106.8349062  10.7159812 -10.3480359
 105.8419992   9.8789978  -6.8219986 105.8039992   9.2329978  -6.1169986
 105.5199992   9.4119978  -7.5929986 105.7932679   9.7274276  -6.8297079
  98.2099992   9.4929978  -5.2289986  98.2519992   8.8679978  -4.5059986
  98.9129992  10.1169978  -5.0469986  98.3107345   9.4917873  -5.1054726
 109.5479992  12.8179978  -8.5209986 109.1069992  12.0979978  -8.0699986
 109.5349992  13.5389978  -7.8909986 109.4859215  12.8169291  -8.3741895
  99.1339992  13.9429978  -6.6939986  98.7639992  13.1409978  -7.0639986
 100.0749992  13.7749978  -6.6479986  99.2105984  13.8104638  -6.7384397
  95.7439992   7.6029978 -11.3019986  95.2959992   8.4489978 -11.3199986
  95.1829992   7.0239978 -11.8169986  95.6068546   7.6403993 -11.3741109
  96.4539992   9.7649978  -9.1759986  96.6679992   8.9949978  -8.6479986
  97.1919992   9.8549978  -9.7789986  96.5830200   9.6718587  -9.1852965
 106.6599992  17.9219978  -8.3089986 107.2789992  17.2459978  -8.5819986
 106.4509992  17.7039978  -7.3999986 106.7166056  17.7998869  -8.2236033
 104.2309992  12.3109978  -6.4159986 104.5349992  11.6249978  -7.0109986
 104.9529992  12.4299978  -5.7979986 104.3701240  12.2332314  -6.4139041
 112.8939992   3.9129978  -5.5559986 112.9439992   4.5229978  -4.8199986
 113.3199992   4.3739978  -6.2789986 112.9584108   4.0587709  -5.5529888
 107.3719992   6.7049978  -6.0889986 107.5149992   5.7589978  -6.0689986
 107.2659992   6.9119978  -7.0169986 107.3772403   6.6034797  -6.2117761
 100.5269992   4.8069978  -8.8159986 100.5699992   5.6669978  -9.2349986
 100.0689992   4.2549978  -9.4499986 100.4709871   4.8499245  -8.9589239
 108.2489992   4.9379978 -10.4149986 108.8959992   4.6089978  -9.7909986
 108.7589992   5.4549978 -11.0379986 108.4064351   4.9629067 -10.4138963
  97.1469992   7.2039978  -8.0539986  97.8009992   6.6539978  -7.6219986
  97.1709992   6.9299978  -8.9709986  97.2397199   7.0917167  -8.1188332
 102.3039992   8.7539978  -8.8389986 102.9199992   8.2269978  -8.3299986
 101.7169992   8.1139978  -9.2429986 102.3090154   8.5953954  -8.8239055
 113.2859992   5.3909978  -3.3199986 112.5969992   6.0489978  -3.4149986
 113.3009992   5.1929978  -2.3829986 113.1937756   5.4542603  -3.2064188
  99.3369992   3.7249978  -4.7419986  99.1179992   4.2549978  -5.5089986
  98.6689992   3.9509978  -4.0949986  99.2166975   3.8280967  -4.7594860
 106.7059992  13.2249978 -11.1979986 106.4109992  12.9019978 -12.0499986
 106.3819992  14.1249978 -11.1569986 106.6218460  13.3024464 -11.3090286
 101.9059992  11.3999978  -4.4549986 101.1659992  11.9989978  -4.3509986
 102.6199992  11.9539978  -4.7699986 101.9013500  11.5567829  -4.4833629
 110.0129992   4.2289978  -8.4349986 109.7979992   3.4629978  -7.9019986
 110.6689992   4.7009978  -7.9219986 110.0722673   4.1880728  -8.2928010
  98.9309992   5.6169978  -6.7899986  99.5449992   6.2499978  -6.4169986
  99.4429992   5.1449978  -7.4459986  99.0841962   5.6397249  -6.8277065
 100.3139992  13.3649978  -3.6679986 100.3079992  14.2439978  -4.0459986
  99.4599992  13.2809978  -3.2429986 100.1977925  13.4739535  -3.6623113
  96.4349992  13.0359978 -12.8859986  96.1629992  13.2649978 -13.7739986
  96.4799992  13.8729978 -12.4249986  96.4038097  13.1806163 -12.9453317
 110.0599992  14.6569978  -6.1729986 109.1179992  14.7159978  -6.0109986
 110.3359992  15.5629978  -6.3099986 109.9685865  14.7875288  -6.1693808
 110.3599992   2.9439978  -4.7559986 109.6239992   3.5539978  -4.7929986
 111.0439992   3.3589978  -5.2819986 110.3515367   3.0837551  -4.8321826
 103.3639992   1.0299978  -7.2899986 103.2459992   0.0819978  -7.3439986
 102.5089992   1.3629978  -7.0169986 103.2322805   0.9452202  -7.2604921
 108.3119992  16.4379978  -9.5479986 108.7369992  15.7309978 -10.0329986
 108.6289992  17.2399978  -9.9649986 108.4130266  16.4495190  -9.6707521
 109.4719992  14.3389978 -11.0389986 109.2139992  13.6489978 -11.6509986
 109.5429992  13.8959978 -10.1939986 109.4463050  14.1846814 -11.0084379
 111.1579992  12.9059978  -2.5619986 111.2969992  12.3139978  -3.3009986
 111.3249992  13.7789978  -2.9179986 111.1996193  12.9428896  -2.7113789
 105.6299992   9.8679978 -12.7889986 104.9189992  10.4029978 -13.1409986
 106.3209992   9.9229978 -13.4489986 105.6260751   9.9486777 -12.9264142
 105.6839992   8.3249978 -15.7509986 106.3849992   8.3479978 -15.0989986
 105.9859992   7.6969978 -16.4069986 105.8208202   8.2432212 -15.7504391
 112.9989992   9.2459978  -4.4959986 112.3469992   9.9399978  -4.4069986
 113.4649992   9.4559978  -5.3059986 112.9725937   9.3695019  -4.5932467
 109.0359992  10.0769978 -11.8379986 108.3039992  10.3059978 -11.2639986
 109.4829992   9.3639978 -11.3829986 108.9963963  10.0118729 -11.6980055
 108.9329992   8.2519978  -2.7699986 109.0129992   9.0149978  -2.1979986
 108.3319992   8.5309978  -3.4599986 108.8626547   8.3942457  -2.7849953
 100.6809992  10.7079978  -9.9549986 100.3509992  10.3369978 -10.7729986
 101.2699992  10.0369978  -9.6079986 100.7153970  10.5666063 -10.0200596
 102.0479992  14.1359978  -7.2739986 101.9529992  13.5569978  -8.0299986
 102.7769992  13.7649978  -6.7779986 102.1336011  14.0065561  -7.3103972
 101.0479992   9.4759978  -6.3219986 101.6129992   9.5979978  -7.0839986
 101.3669992  10.1139978  -5.6829986 101.1684166   9.5788791  -6.3399652
 107.3569992  14.9799978  -5.5879986 107.1169992  15.6419978  -4.9399986
 107.1589992  14.1449978  -5.1629986 107.2973826  14.9578115  -5.4418434
 101.9279992  13.8759978  -1.6039986 101.6169992  14.6579978  -1.1489986
 101.2779992  13.7229978  -2.2899986 101.7975538  13.9624087  -1.6344102
 107.9069992   9.2399978 -14.1519986 108.4859992   9.3899978 -13.4059986
 108.3209992   9.7099978 -14.8759986 108.0423358   9.3240955 -14.1476047
  98.8479992  10.0739978  -2.3759986  98.9179992  10.7249978  -1.6769986
  97.9569992  10.1769978  -2.7109986  98.7371690  10.1769249  -2.3256957
 105.6329992  15.9759978 -10.7169986 106.1069992  16.2719978  -9.9399986
 105.0699992  16.7149978 -10.9499986 105.6217890  16.1163036 -10.6421899
 100.1669992  15.9469978  -0.8409986 100.1749992  15.8109978  -1.7879986
  99.2509992  15.8299978  -0.5889986 100.0442528  15.9125463  -0.9366757
 111.6059992   0.9899978 -14.3389986 110.7059992   1.1289978 -14.0439986
 111.8579992   1.8209978 -14.7409986 111.5168683   1.1214055 -14.3529768
  99.6719992   9.7769978 -12.3659986  99.3799992  10.5449978 -12.8569986
  98.9969992   9.1179978 -12.5289986  99.5408497   9.7929745 -12.4551740
 112.7949992  15.3559978 -15.9629986 112.8679992  16.2949978 -15.7929986
 113.6999992  15.0509978 -16.0189986 112.9274170  15.4433282 -15.9472937
  95.7649992  12.1399978  -3.5509986  95.2629992  12.1119978  -4.3659986
  95.7699992  11.2349978  -3.2409986  95.6969832  12.0137486  -3.6205879
  95.5149992  14.9209978  -6.6669986  96.4609992  14.7759978  -6.6859986
  95.4019992  15.7049978  -6.1299986  95.6293578  15.0071697  -6.5969683
 113.7129992  15.5869978  -0.9839986 113.6629992  14.6309978  -1.0219986
 112.8859992  15.8539978  -0.5829986 113.5943831  15.4924680  -0.9349879
 104.6909992  15.1609978  -2.1079986 104.7789992  15.9869978  -1.6329986
 103.8279992  14.8309978  -1.8589986 104.5863357  15.2295468  -2.0092347
 105.1059992  18.9329978 -12.3019986 105.0299992  18.8119978 -13.2489986
 105.1379992  19.8819978 -12.1839986 105.0999380  19.0447677 -12.4154819
  98.7589992  17.7219978 -10.5209986  98.9109992  17.3739978  -9.6429986
  97.9079992  17.3649978 -10.7769986  98.6648344  17.6260879 -10.4353132
 108.2069992  18.0869978 -15.2999986 108.5819992  17.3429978 -15.7709986
 108.2119992  17.8169978 -14.3819986 108.2590098  17.9486392 -15.2403371
 107.8759992  18.0129978 -12.5509986 106.9409992  18.1129978 -12.3719986
 108.1559992  17.3029978 -11.9719986 107.7859471  17.9307933 -12.4483305
 110.8649992   7.0799978  -0.5039986 110.4569992   7.5599978  -1.2249986
 110.9049992   6.1739978  -0.8119986 110.8146221   7.0232449  -0.6441733
  98.0139992  13.4639978  -2.5079986  98.2299992  13.1019978  -1.6479986
  97.1579992  13.0889978  -2.7169986  97.9278810  13.3638837  -2.4187320
 100.6319992   1.9339978  -6.5119986  99.7709992   1.8469978  -6.9199986
 100.6099992   2.7899978  -6.0839986 100.5110491   2.0378003  -6.5100418
 105.2949992   1.6559978  -3.1369986 105.7149992   1.2409978  -2.3839986
 104.3619992   1.4769978  -3.0199986 105.2263736   1.5749910  -3.0181032
 108.6219992   5.4109978  -2.2839986 108.1079992   5.2859978  -1.4859986
 108.4659992   6.3239978  -2.5279986 108.5306967   5.5172123  -2.2079063
 109.3839992  10.2719978 -16.5229986 109.4259992  10.0499978 -17.4529986
 110.2329992  10.6709978 -16.3329986 109.5045253  10.2955498 -16.6246178
 104.9569992   4.1479978 -15.8519986 104.7029992   4.1669978 -14.9299986
 104.6999992   3.2769978 -16.1539986 104.8874508   4.0328280 -15.7665197
 100.7229992   6.8989978  -5.4169986 100.0819992   6.8589978  -4.7079986
 100.7609992   7.8259978  -5.6549986 100.6403010   7.0187668  -5.3520054
 100.7199992   7.1199978 -10.5049986  99.8279992   6.7799978 -10.5639986
 101.1709992   6.7429978 -11.2609986 100.6587642   7.0224910 -10.6152274
 106.2559992   7.5359978 -11.6879986 105.8469992   8.3509978 -11.9799986
 106.9759992   7.3959978 -12.3019986 106.2974439   7.6285372 -11.8109885
 105.3579992   7.7119978  -0.1999986 104.7949992   7.0069978   0.1210014
 106.1839992   7.5909978   0.2680014 105.3926674   7.5992165  -0.0928249
 107.2609992   6.9819978  -8.8739986 107.0649992   7.5879978  -9.5889986
 107.4419992   6.1489978  -9.3079986 107.2586584   6.9522513  -9.0305788
  98.4729992   7.2199978  -3.5499986  98.4349992   7.6199978  -2.6809986
  97.9829992   6.4029978  -3.4599986  98.4015330   7.1642674  -3.4188711
 101.8389992   4.5939978 -16.7509986 101.4079992   4.1489978 -16.0219986
 101.1209992   4.9649978 -17.2639986 101.6829176   4.5832051 -16.7205070
  95.0819992   4.3359978  -9.6989986  95.7119992   4.3069978  -8.9799986
  95.5309992   3.9109978 -10.4299986  95.2290835   4.2745660  -9.6992341
  96.3559992   5.0819978 -14.2749986  96.8299992   5.6729978 -14.8599986
  95.6379992   5.6119978 -13.9279986  96.3238640   5.2345511 -14.3082031
 106.5249992   8.6199978  -4.2029986 106.8479992   7.9889978  -4.8459986
 106.0839992   8.0859978  -3.5419986 106.5096379   8.4613468  -4.2017418
 103.3019992   4.5479978  -9.4189986 102.3909992   4.6049978  -9.1299986
 103.8069992   4.4879978  -8.6079986 103.2456873   4.5476826  -9.2698793
  98.1299992   6.1769978 -10.5919986  97.2409992   6.2759978 -10.9319986
  98.4269992   5.3349978 -10.9379986  98.0484177   6.0767687 -10.6853060
 101.7829992   6.1769978 -12.9349986 102.7149992   6.3059978 -12.7569986
 101.5679992   6.8459978 -13.5849986 101.8814472   6.2850806 -12.9985109
 107.7069992   3.7829978  -6.1539986 107.0299992   3.9139978  -5.4909986
 107.2219992   3.6279978  -6.9649986 107.5487405   3.7799947  -6.1727830
 100.4569992   7.3709978 -15.3689986  99.9149992   6.9919978 -16.0599986
 101.2909992   7.5659978 -15.7969986 100.4954390   7.3454079 -15.5215608
 110.9949992  19.4539978   0.1220014 111.1939992  19.8779978  -0.7119986
 111.6499992  19.7979978   0.7290014 111.1108522  19.5586301   0.0897852
  98.5929992  11.9279978  -0.2699986  99.3249992  12.1829978   0.2920014
  97.8119992  12.1329978   0.2460014  98.5876526  11.9905450  -0.1234824
 104.6219992   7.3349978  -7.5319986 105.1859992   6.7889978  -8.0789986
 104.4739992   6.8139978  -6.7429986 104.6793037   7.1896787  -7.5002771
  99.6239992   3.4719978 -11.1129986  99.3069992   2.5689978 -11.1489986
 100.4049992   3.4739978 -11.6659986  99.6862431   3.3487797 -11.1926898
 103.2479992   5.7239978  -5.1179986 102.4129992   6.1779978  -5.0069986
 103.7719992   5.9999978  -4.3659986 103.2046072   5.8233948  -5.0011864
 103.7929992  11.9369978 -13.4329986 103.0479992  11.4289978 -13.7549986
 103.6579992  11.9859978 -12.4869986 103.6728963  11.8741731 -13.3491174
 110.9429992  11.0699978  -4.6459986 111.5839992  11.5259978  -5.1899986
 110.1119992  11.1829978  -5.1089986 110.9185287  11.1476921  -4.7830113
 107.6899992   4.7509978 -15.2339986 106.7519992   4.8619978 -15.3849986
 107.9879992   5.6069978 -14.9269986 107.6016318   4.8820158 -15.2131855
 105.3119992  12.1209978  -2.1959986 104.9659992  11.7389978  -1.3889986
 105.1119992  13.0539978  -2.1249986 105.2375987  12.1949002  -2.0759539
 108.4089992   6.6179978 -13.5729986 109.3009992   6.4799978 -13.2539986
 108.4649992   7.4089978 -14.1099986 108.5387325   6.7059918 -13.6018783
  98.9169992  11.2319978  -7.6629986  99.6619992  11.2289978  -8.2649986
  98.9949992  10.4079978  -7.1819986  99.0293365  11.1202384  -7.6802570
 105.9179992  13.3949978 -14.4079986 105.6229992  14.2219978 -14.0259986
 105.2149992  12.7759978 -14.2109986 105.7826379  13.4244171 -14.3291346
  95.9249992   9.6919978  -2.3479986  96.1479992   9.2739978  -1.5169986
  95.3229992   9.0799978  -2.7709986  95.8741513   9.5519606  -2.2913260
 102.9419992   9.2089978  -0.1349986 102.6459992   9.0439978  -1.0309986
 103.8729992   8.9889978  -0.1459986 103.0274401   9.1566879  -0.2589794
 107.5619992  14.5829978  -2.2459986 106.6619992  14.7659978  -2.5129986
 107.5959992  14.8419978  -1.3249986 107.4433748  14.6430554  -2.1580836
 113.2939992   6.8269978 -13.8779986 112.7389992   6.4309978 -14.5509986
 113.3939992   7.7379978 -14.1559986 113.2316816   6.8959505 -14.0074967
 113.2569992  12.6279978  -1.0409986 112.4059992  12.8659978  -1.4089986
 113.8469992  12.6109978  -1.7939986 113.2203812  12.6582524  -1.1931547
 111.5889992  15.6129978 -13.4129986 111.2159992  14.7879978 -13.1039986
 111.8659992  15.4299978 -14.3109986 111.5753463  15.4752569 -13.4920475
 108.7489992  10.4209978  -6.3919986 107.8209992  10.1899978  -6.4189986
 109.1999992   9.6439978  -6.7219986 108.6828165  10.2842774  -6.4403210
 101.2919992  14.7499978 -10.2589986 101.8199992  15.5229978 -10.4589986
 100.4119992  14.9739978 -10.5609986 101.2453435  14.8862700 -10.3272690
  97.0469992   9.6119978 -15.6719986  97.6629992  10.2389978 -15.2919986
  96.1849992   9.9279978 -15.3999986  97.0147678   9.7404412 -15.5832791
 102.7199992  12.4129978 -10.6829986 102.4789992  13.3379978 -10.6409986
 101.9789992  11.9539978 -10.2859986 102.5869206  12.4775915 -10.6236231
 103.2339992  16.5619978  -4.3679986 103.5969992  17.4159978  -4.6009986
 103.7659992  16.2699978  -3.6269986 103.3555141  16.6393895  -4.2997903
 101.4029992  17.4339978 -11.1369986 100.4529992  17.5399978 -11.0859986
 101.7549992  18.2549978 -10.7929986 101.3205472  17.5594923 -11.0835148
 106.7779992  12.6609978  -4.6669986 106.3529992  12.4329978  -3.8409986
 107.3589992  11.9219978  -4.8489986 106.7983395  12.5299545  -4.5785586
 108.9809992  13.5899978 -15.5929986 109.3349992  13.2099978 -14.7889986
 108.0329992  13.4959978 -15.5059986 108.9012298  13.5252452 -15.4711313
 109.4369992  17.2129978  -2.1979986 108.8349992  16.6569978  -2.6929986
 109.7179992  17.8799978  -2.8239986 109.3925757  17.2270744  -2.3504325
 113.4849992  18.0689978 -15.3919986 114.2289992  18.6549978 -15.5319986
 112.7909992  18.6379978 -15.0589986 113.4929809  18.2260818 -15.3661410
  97.5589992   4.4459978  -2.7899986  96.6669992   4.7839978  -2.8579986
  97.4609992   3.5899978  -2.3719986  97.4234475   4.3766543  -2.7428296
 109.8469992  12.2619978 -13.3659986 109.5699992  11.5339978 -12.8099986
 110.7749992  12.3809978 -13.1609986 109.9344499  12.1784213 -13.2621956
  97.2109992  16.2499978  -4.3549986  97.4279992  15.3179978  -4.3859986
  97.4569992  16.5249978  -3.4719986  97.2739809  16.1595686  -4.2398309
 102.0089992  14.2719978 -14.6899986 102.1559992  13.7519978 -13.8999986
 102.0059992  15.1789978 -14.3829986 102.0287102  14.3233953 -14.5404075
  98.4619992  11.5239978 -14.1789986  97.7759992  11.8769978 -13.6119986
  98.9849992  12.2869978 -14.4259986  98.4388402  11.6753901 -14.1348199
 106.2939992   4.1869978  -3.8999986 106.9929992   4.2609978  -3.2499986
 105.9129992   3.3219978  -3.7459986 106.3382097   4.0802389  -3.7902003
 107.0779992   3.8389978 -12.8029986 107.2979992   4.3099978 -13.6069986
 107.6369992   4.2329978 -12.1329986 107.1836731   3.9567287 -12.8224967
 104.7469992  15.9689978 -13.9399986 103.9299992  16.4659978 -13.8879986
 105.2759992  16.4449978 -14.5809986 104.7068125  16.1011989 -14.0194694
 104.2779992   5.5669978 -11.9679986 105.0899992   6.0709978 -11.9219986
 104.0339992   5.4219978 -11.0539986 104.3561467   5.6163749 -11.8381425
 104.8139992   6.5529978  -2.7839986 104.9329992   7.1269978  -2.0269986
 105.4689992   5.8649978  -2.6689986 104.9188684   6.5385194  -2.6648326
 105.1619992   2.6479978 -11.0299986 104.8149992   3.2649978 -10.3859986
 105.8209992   3.1489978 -11.5119986 105.2035090   2.8001575 -11.0069319
 102.0849992  17.0129978 -13.9589986 102.2459992  17.8129978 -14.4589986
 101.8879992  17.3199978 -13.0739986 102.0803906  17.1638678 -13.9077667
 100.8199992   3.7109978 -14.3429986 100.7359992   4.5989978 -13.9959986
 101.7099992   3.4459978 -14.1109986 100.9288163   3.7967179 -14.2641404
 111.0179992   4.4599978  -1.9489986 110.1019992   4.7219978  -2.0359986
 111.3539992   4.4569978  -2.8449986 110.9378499   4.4955163  -2.0821234
 109.6209992   8.2099978  -7.8529986 108.8229992   7.7949978  -8.1809986
 110.0659992   7.5199978  -7.3619986 109.5719684   8.0598628  -7.8314773
  99.0779992  14.1379978 -15.2829986  99.6699992  14.8379978 -15.0059986
  99.5369992  13.7049978 -16.0019986  99.2211652  14.1752675 -15.3423467
  97.3939992   6.8029978 -16.1669986  97.3489992   7.7419978 -15.9879986
  96.5059992   6.5669978 -16.4359986  97.2678166   6.8996687 -16.1788476
 110.7069992  17.4659978  -6.2309986 110.5509992  18.1449978  -6.8879986
 111.6399992  17.5379978  -6.0279986 110.8117387  17.5686390  -6.2934658
  98.2019992   1.5839978  -7.4929986  97.9729992   1.6429978  -8.4209986
  97.7599992   0.7929978  -7.1869986  98.1108801   1.4850540  -7.5785271
  97.1329992  15.5249978 -11.3329986  96.2999992  15.9969978 -11.3059986
  97.6779992  16.0349978 -11.9319986  97.0927857  15.6584791 -11.4102858
  96.4209992  18.1369978  -0.0029986  96.9609992  17.9209978   0.7570014
  95.9399992  17.3319978  -0.1929986  96.4299219  17.9985156   0.0754282
 101.0179992  17.0569978   1.6170014 101.7859992  16.5979978   1.9580014
 100.9969992  16.8309978   0.6870014 101.1202135  16.9636668   1.5379491
 105.1099992  16.5649978 -17.0069986 104.4659992  15.9339978 -16.6859986
 105.8719992  16.0339978 -17.2389986 105.1248058  16.4067902 -16.9943962
 107.5949992  15.4369978   0.3460014 107.2439992  14.5799978   0.5900014
 108.3209992  15.5789978   0.9530014 107.6451895  15.3391351   0.4613770
 109.7149992  16.3819978 -16.7739986 109.9979992  15.5869978 -16.3209986
 110.4539992  16.6149978 -17.3349986 109.8537096  16.3047049 -16.7878896
  96.3279992  11.9479978   0.9510014  96.4719992  11.0459978   0.6650014
  95.5559992  12.2339978   0.4640014  96.2432733  11.8631798   0.8459532
 100.6689992  12.2909978 -16.9159986 100.7339992  11.4969978 -16.3859986
 101.3219992  12.1729978 -17.6059986 100.7661605  12.1663430 -16.9367003
 102.9829992  11.9169978   0.3840014 102.6549992  12.1879978  -0.4729986
 103.1349992  10.9759978   0.2960014 102.9586412  11.8269046   0.2547822
 108.7179992  11.8329978  -2.2329986 109.4629992  12.4219978  -2.3519986
 107.9609992  12.4149978  -2.1689986 108.7175470  11.9922128  -2.2406201
  97.1609992   9.1479978   0.3710014  97.5689992   8.2909978   0.2500014
  96.8999992   9.1619978   1.2920014  97.1816016   9.0325119   0.4789192
 101.8189992  10.2639978 -14.6099986 101.3589992   9.7799978 -13.9249986
 102.0739992   9.5949978 -15.2459986 101.7904856  10.1073669 -14.6021603
 101.1079992   8.1569978  -2.2539986 100.4889992   8.8309978  -1.9739986
 101.4519992   8.4779978  -3.0879986 101.0697123   8.2926887  -2.3283612
 102.8899992   8.5069978 -16.3479986 102.7089992   8.3519978 -17.2749986
 103.8399992   8.6149978 -16.3029986 102.9936566   8.5003669 -16.4689071
 106.1269992  10.6279978   1.0230014 107.0809992  10.7119978   0.9960014
 105.9669992   9.9159978   1.6430014 106.2357182  10.5432842   1.1030733
 112.2799992  10.8609978 -16.9019986 112.0059992  10.4369978 -17.7149986
 112.3189992  11.7929978 -17.1189986 112.2477716  10.9288827 -17.0425714
 101.4469992   5.5119978  -1.1719986 101.5969992   4.7829978  -1.7739986
 101.4489992   6.2889978  -1.7309986 101.4677967   5.5172708  -1.3299459
 101.8599992   3.8809978  -3.6789986 102.3949992   4.3329978  -4.3309986
 101.0069992   3.7729978  -4.1019986 101.8180374   3.9282665  -3.8253290
 103.4409992   9.3209978  -3.4399986 104.1919992   9.1649978  -4.0129986
 103.1019992  10.1729978  -3.7149986 103.4979587   9.4148138  -3.5555922
 107.8569992   7.1359978   1.5890014 108.0489992   6.2049978   1.4770014
 108.7149992   7.5609978   1.5780014 107.9992182   7.0660070   1.5721862
 109.1739992   9.9249978  -0.3339986 108.8919992  10.6339978  -0.9119986
 110.1159992   9.8519978  -0.4849986 109.2627921  10.0122193  -0.4335775
  99.9259992   6.7099978   0.7390014  99.1579992   6.1769978   0.5290014
 100.6039992   6.3999978   0.1400014  99.9127235   6.5951754   0.6292413
 102.6649992   1.3379978  -3.2479986 102.5669992   2.2839978  -3.3529986
 101.9229992   0.9649978  -3.7239986 102.5512534   1.4171773  -3.3267400
 103.9289992   5.6589978   0.3160014 103.6939992   5.4399978   1.2170014
 103.1459992   5.4519978  -0.1939986 103.7909095   5.6009892   0.3705353
 106.6449992   4.7869978  -0.6089986 105.6969992   4.8189978  -0.4769986
 106.9569992   4.1609978   0.0450014 106.5575293   4.7067923  -0.5025852
 108.2789992   3.4209978   1.3960014 108.1819992   2.4689978   1.3910014
 107.9569992   3.6889978   2.2570014 108.2222468   3.3270884   1.5116210
  98.1059992   4.6299978   0.4440014  98.3179992   3.9239978  -0.1659986
  97.9949992   4.1929978   1.2880014  98.1200269   4.4741921   0.4745873
 102.8869992   0.6319978  -0.5769986 103.5989992  -0.0080022  -0.5909986
 102.7859992   0.8979978  -1.4899986 102.9707387   0.5804330  -0.7024437
 103.2409992   2.3139978   1.4770014 103.1089992   1.8389978   0.6570014
 102.6409992   3.0589978   1.4220014 103.1419070   2.3495789   1.3573251
 102.7869992  19.1969978 -15.3469986 103.7199992  19.3549978 -15.2029986
 102.5229992  19.8729978 -15.9719986 102.8789911  19.3099373 -15.4117278
  96.3549992  13.8339978 -15.8639986  97.2689992  13.9129978 -15.5909986
  96.3629992  13.1469978 -16.5299986  96.4810655  13.7519205 -15.9167083
  95.0039992  19.2269978 -10.7869986  94.3569992  18.7649978 -11.3189986
  95.3589992  18.5549978 -10.2039986  94.9633741  19.0729774 -10.7810825
  95.8739992  17.3069978  -8.9819986  95.5399992  16.4269978  -8.8099986
  96.0969992  17.6529978  -8.1169986  95.8583721  17.2331938  -8.8415832
 113.4229992  18.1169978  -6.0009986 113.4009992  18.3019978  -5.0619986
 114.1129992  18.6849978  -6.3419986 113.5133439  18.2191887  -5.9185209
 112.9859992  17.6839978  -3.0799986 112.4989992  16.9489978  -3.4509986
 113.5349992  17.2899978  -2.4019986 112.9935247  17.5301057  -3.0391539
 111.4369992  13.4739978   1.5590014 110.5709992  13.3689978   1.9530014
 111.8129992  14.2319978   2.0050014 111.3693401  13.5621708   1.6732620
 112.7379992  11.7299978 -12.9269986 113.5879992  12.1509978 -12.7999986
 112.7429992  10.9899978 -12.3199986 112.8551143  11.6876094 -12.8275250
 113.1319992   9.7839978 -11.1039986 112.4059992   9.3039978 -10.7059986
 113.7139992   9.9889978 -10.3709986 113.1112730   9.7460184 -10.9505851
 112.8909992  12.5689978  -6.1559986 113.7249992  12.1909978  -6.4369986
 113.0029992  13.5119978  -6.2749986 113.0201917  12.6447943  -6.2105139
 111.3779992  15.4469978  -3.8489986 110.7299992  15.7719978  -3.2239986
 110.8599992  15.0059978  -4.5229986 111.2194196  15.4318651  -3.8545848
 113.4009992   9.6849978 -14.7129986 112.8789992  10.0409978 -15.4309986
 113.3679992  10.3599978 -14.0339986 113.3250129   9.8249598 -14.7196645
 111.7499992   6.9239978 -16.1619986 111.8459992   7.5909978 -16.8419986
 111.6099992   6.1089978 -16.6429986 111.7442040   6.9050671 -16.3201622
 110.9189992   8.3049978 -10.5409986 110.7689992   7.3599978 -10.5609986
 110.5649992   8.5859978  -9.6969986 110.8506351   8.2136644 -10.4296780
  95.9539992  10.3829978  -6.5299986  96.1389992  10.3009978  -7.4659986
  96.8039992  10.2589978  -6.1069986  96.0940928  10.3550463  -6.6007107
 111.7749992  10.2749978  -0.9019986 112.3579992   9.5399978  -0.7099986
 112.3389992  11.0469978  -0.8549986 111.9309781  10.2788145  -0.8693836
 113.2719992   8.1779978  -0.2169986 112.4089992   7.7989978  -0.3829986
 113.8759992   7.4389978  -0.2919986 113.2356085   8.0263223  -0.2498305
 110.9969992   4.3319978 -17.0439986 111.6079992   3.9609978 -16.4069986
 110.1599992   3.9109978 -16.8479986 110.9674947   4.2242756 -16.9302748
 110.6299992   5.8869978 -12.0779986 110.9089992   4.9799978 -11.9539986
 111.3889992   6.3209978 -12.4669986 110.7708619   5.8214502 -12.1136205
 111.2409992   6.4689978  -6.6419986 112.1739992   6.6809978  -6.6769986
 111.0059992   6.5699978  -5.7199986 111.3369517   6.5116833  -6.5220870
 111.2709992   7.2059978  -3.8659986 110.4279992   7.4739978  -3.4999986
 111.7129992   8.0279978  -4.0769986 111.2154138   7.3538273  -3.8444482
  95.5519992   5.6529978  -0.3899986  96.4709992   5.5309978  -0.1529986
  95.1019992   4.9029978   0.0000014  95.6170087   5.5349608  -0.3048590
 113.5539992   1.1859978   1.4870014 113.9029992   0.5319978   0.8820014
 113.7009992   2.0229978   1.0470014 113.6216824   1.2096024   1.3446304
 111.2429992   3.1499978 -12.0299986 111.4249992   2.7009978 -11.2049986
 110.6429992   2.5659978 -12.4939986 111.1868187   3.0095552 -11.9797261
  96.7729992   3.9659978  -7.4979986  97.2179992   3.1739978  -7.1959986
  97.2389992   4.6819978  -7.0679986  96.8969718   3.9544534  -7.3984735
  95.0769992   6.9649978  -6.4289986  95.5689992   6.7439978  -7.2199986
  95.4389992   7.8049978  -6.1479986  95.1932923   7.0483468  -6.4992593
 113.0729992   3.2949978  -0.1639986 112.1559992   3.5659978  -0.1989986
 113.1959992   2.7599978  -0.9479986 112.9639672   3.2597885  -0.2748138
 113.1099992   3.2179978 -15.5019986 113.5219992   2.4969978 -15.9769986
 113.7909992   3.8869978 -15.4439986 113.2585536   3.2097766 -15.5591976
  95.3909992   3.2229978 -12.3749986  94.4659992   3.4309978 -12.5039986
  95.8449992   3.7069978 -13.0649986  95.3256298   3.3169299 -12.4859549
 110.1609992  18.2069978 -10.4289986 110.8139992  17.8589978 -11.0369986
 110.6719992  18.6949978  -9.7829986 110.3192777  18.2253815 -10.4247953
  95.3539992   1.9609978  -4.0309986  94.6889992   1.7149978  -3.3879986
  94.9109992   2.5829978  -4.6079986  95.2031168   2.0114214  -4.0210152
  97.5459992  15.1359978   0.1140014  96.7249992  15.3109978  -0.3469986
  97.2939992  15.0629978   1.0340014  97.3995594  15.1500717   0.1753611
 100.4999992  16.1099978  -3.6279986 100.0759992  16.9199978  -3.9099986
 101.4049992  16.1959978  -3.9299986 100.5642138  16.2324160  -3.7073585
 104.8119992  17.5089978  -0.6679986 104.9959992  17.1759978   0.2100014
 105.6579992  17.8189978  -0.9899986 104.9516484  17.5052979  -0.5912383
 107.1569992  18.7949978  -1.4239986 107.8339992  18.1619978  -1.6639986
 107.4779992  19.1959978  -0.6169986 107.2931323  18.7625691  -1.3476842
 112.0739992   1.3849978  -2.3449986 111.2609992   1.7099978  -2.7319986
 112.3069992   0.6239978  -2.8779986 111.9941347   1.3266880  -2.4700159
  97.9019992  19.3669978  -3.5799986  97.1819992  19.8069978  -4.0309986
  97.5369992  19.1159978  -2.7319986  97.7539643  19.3933369  -3.5270871
 100.3689992  18.9669978  -4.5499986  99.5049992  19.0389978  -4.1459986
 100.3139992  19.5139978  -5.3339986 100.2431942  19.0507849  -4.6006000
 105.0799992  18.8549978  -5.3749986 104.6229992  19.3839978  -6.0289986
 105.2429992  19.4579978  -4.6499986 105.0394960  19.0089280  -5.3664726
 107.4079992  17.7329978  -4.4299986 106.5029992  17.8979978  -4.6959986
 107.8359992  18.5859978  -4.4959986 107.3421537  17.8709134  -4.4752905
 110.0119992  19.3029978  -4.1349986 109.8299992  20.2189978  -4.3459986
 110.1889992  18.8919978  -4.9819986 110.0110030  19.3728273  -4.2782834
  97.3169992  17.9899978  -6.6699986  97.2989992  17.5639978  -5.8129986
  98.1219992  17.6709978  -7.0789986  97.4232875  17.8886435  -6.6080485
  99.4579992  16.6999978  -8.0149986  99.2389992  15.7829978  -7.8449986
 100.2819992  16.8399978  -7.5489986  99.5394702  16.5935511  -7.9287473
 101.9949992  17.1699978  -7.1659986 102.2079992  16.2819978  -7.4529986
 102.0599992  17.1349978  -6.2119986 102.0329149  17.0438326  -7.0762631
 105.5039992   2.8339978  -8.0219986 104.8299992   2.2039978  -7.7659986
 106.0679992   2.3499978  -8.6249986 105.4880384   2.6823708  -8.0684980
 110.6469992   0.9409978  -7.9089986 111.2499992   1.4889978  -8.4109986
 109.7769992   1.2599978  -8.1499986 110.6119157   1.0590373  -8.0102090
 112.3739992   2.0799978  -9.5759986 112.9849992   1.5659978 -10.1029986
 112.7559992   2.9569978  -9.5529986 112.5093305   2.1282050  -9.6450582
  97.8309992   1.4679978 -10.1999986  97.0539992   1.2329978 -10.7069986
  98.3609992   0.6709978 -10.1909986  97.7963451   1.3281268 -10.2681373
  96.6669992   1.2659978 -14.3959986  97.1059992   1.8769978 -14.9879986
  96.0329992   1.8039978 -13.9219986  96.6413859   1.4224064 -14.4129695
 102.4099992   1.3939978 -10.3869986 103.2839992   1.7829978 -10.4159986
 102.2739992   1.1789978  -9.4639986 102.5111953   1.4181643 -10.2662383
 107.9669992   1.4239978  -8.7369986 108.0429992   1.5199978  -9.6869986
 107.6919992   0.5169978  -8.6089986 107.9401871   1.3144146  -8.8496056
 109.3199992   1.4499978 -13.0449986 108.6169992   2.0649978 -13.2549986
 108.8749992   0.6129978 -12.9139986 109.1636550   1.4209668 -13.0560163
  96.5679992  17.2139978 -13.4989986  95.8829992  17.1759978 -14.1659986
  96.5719992  18.1269978 -13.2109986  96.4747621  17.3321924 -13.5513874
  98.5279992   3.1819978 -15.9539986  99.0189992   2.5519978 -16.4809986
  99.1509992   3.4779978 -15.2909986  98.6795304   3.1357376 -15.9365060
 103.5539992   3.4749978 -13.4969986 103.7319992   2.8279978 -12.8139986
 103.4999992   4.3089978 -13.0299986 103.5710678   3.4991604 -13.3403699
 105.4319992  18.4229978 -15.1009986 106.2979992  18.7899978 -15.2789986
 105.1859992  17.9839978 -15.9149986 105.5172097  18.4138525 -15.2353981
 112.1409992  17.9859978 -12.4219986 111.9469992  17.2379978 -12.9869986
 112.1019992  18.7439978 -13.0049986 112.1091645  17.9860786 -12.5781852
  97.7879992   1.9819978  -0.6819986  97.4219992   1.2159978  -0.2399986
  98.7009992   2.0109978  -0.3959986  97.8613172   1.8810324  -0.5828110
  99.7609992   1.3319978   0.8530014 100.6599992   1.0579978   0.6690014
  99.3749992   0.5899978   1.3180014  99.8317307   1.1942196   0.8907098
  98.3859992  18.1339978 -16.4739986  98.1179992  18.4199978 -15.5999986
  99.1569992  17.5879978 -16.3209986  98.4535926  18.0992779 -16.3338795
 108.1829992   0.6649978   1.0360014 108.2589992   0.2389978   1.8890014
 109.0759992   0.6779978   0.6930014 108.3142303   0.6083493   1.1065497
 111.3589992  16.7379978  -0.2719986 110.5769992  16.5509978  -0.7919986
 111.2869992  17.6669978  -0.0549986 111.2421924  16.8380637  -0.3138398
 125.7649992  10.6239978 -10.2409986 125.8539992  11.5679978 -10.3729986
 125.1269992  10.3489978 -10.8989986 125.6909062  10.7159812 -10.3480359
 124.6979992   9.8789978  -6.8219986 124.6599992   9.2329978  -6.1169986
 124.3759992   9.4119978  -7.5929986 124.6492679   9.7274276  -6.8297079
 117.0659992   9.4929978  -5.2289986 117.1079992   8.8679978  -4.5059986
 117.7689992  10.1169978  -5.0469986 117.1667345   9.4917873  -5.1054726
 128.4039992  12.8179978  -8.5209986 127.9629992  12.0979978  -8.0699986
 128.3909992  13.5389978  -7.8909986 128.3419215  12.8169291  -8.3741895
 117.9899992  13.9429978  -6.6939986 117.6199992  13.1409978  -7.0639986
 118.9309992  13.7749978  -6.6479986 118.0665984  13.8104638  -6.7384397
 114.5999992   7.6029978 -11.3019986 114.1519992   8.4489978 -11.3199986
 114.0389992   7.0239978 -11.8169986 114.4628546   7.6403993 -11.3741109
 115.3099992   9.7649978  -9.1759986 115.5239992   8.9949978  -8.6479986
 116.0479992   9.8549978  -9.7789986 115.4390200   9.6718587  -9.1852965
 125.5159992  17.9219978  -8.3089986 126.1349992  17.2459978  -8.5819986
 125.3069992  17.7039978  -7.3999986 125.5726056  17.7998869  -8.2236033
 123.0869992  12.3109978  -6.4159986 123.3909992  11.6249978  -7.0109986
 123.8089992  12.4299978  -5.7979986 123.2261240  12.2332314  -6.4139041
 131.7499992   3.9129978  -5.5559986 131.7999992   4.5229978  -4.8199986
 132.1759992   4.3739978  -6.2789986 131.8144108   4.0587709  -5.5529888
 126.2279992   6.7049978  -6.0889986 126.3709992   5.7589978  -6.0689986
 126.1219992   6.9119978  -7.0169986 126.2332403   6.6034797  -6.2117761
 119.3829992   4.8069978  -8.8159986 119.4259992   5.6669978  -9.2349986
 118.9249992   4.2549978  -9.4499986 119.3269871   4.8499245  -8.9589239
 127.1049992   4.9379978 -10.4149986 127.7519992   4.6089978  -9.7909986
 127.6149992   5.4549978 -11.0379986 127.2624351   4.9629067 -10.4138963
 116.0029992   7.2039978  -8.0539986 116.6569992   6.6539978  -7.6219986
 116.0269992   6.9299978  -8.9709986 116.0957199   7.0917167  -8.1188332
 121.1599992   8.7539978  -8.8389986 121.7759992   8.2269978  -8.3299986
 120.5729992   8.1139978  -9.2429986 121.1650154   8.5953954  -8.8239055
 132.1419992   5.3909978  -3.3199986 131.4529992   6.0489978  -3.4149986
 132.1569992   5.1929978  -2.3829986 132.0497756   5.4542603  -3.2064188
 118.1929992   3.7249978  -4.7419986 117.9739992   4.2549978  -5.5089986
 117.5249992   3.9509978  -4.0949986 118.0726975   3.8280967  -4.7594860
 125.5619992  13.2249978 -11.1979986 125.2669992  12.9019978 -12.0499986
 125.2379992  14.1249978 -11.1569986 125.4778460  13.3024464 -11.3090286
 120.7619992  11.3999978  -4.4549986 120.0219992  11.9989978  -4.3509986
 121.4759992  11.9539978  -4.7699986 120.7573500  11.5567829  -4.4833629
 128.8689992   4.2289978  -8.4349986 128.6539992   3.4629978  -7.9019986
 129.5249992   4.7009978  -7.9219986 128.9282673   4.1880728  -8.2928010
 117.7869992   5.6169978  -6.7899986 118.4009992   6.2499978  -6.4169986
 118.2989992   5.1449978  -7.4459986 117.9401962   5.6397249  -6.8277065
 119.1699992  13.3649978  -3.6679986 119.1639992  14.2439978  -4.0459986
 118.3159992  13.2809978  -3.2429986 119.0537925  13.4739535  -3.6623113
 115.2909992  13.0359978 -12.8859986 115.0189992  13.2649978 -13.7739986
 115.3359992  13.8729978 -12.4249986 115.2598097  13.1806163 -12.9453317
 128.9159992  14.6569978  -6.1729986 127.9739992  14.7159978  -6.0109986
 129.1919992  15.5629978  -6.3099986 128.8245865  14.7875288  -6.1693808
 129.2159992   2.9439978  -4.7559986 128.4799992   3.5539978  -4.7929986
 129.8999992   3.3589978  -5.2819986 129.2075367   3.0837551  -4.8321826
 122.2199992   1.0299978  -7.2899986 122.1019992   0.0819978  -7.3439986
 121.3649992   1.3629978  -7.0169986 122.0882805   0.9452202  -7.2604921
 127.1679992  16.4379978  -9.5479986 127.5929992  15.7309978 -10.0329986
 127.4849992  17.2399978  -9.9649986 127.2690266  16.4495190  -9.6707521
 128.3279992  14.3389978 -11.0389986 128.0699992  13.6489978 -11.6509986
 128.3989992  13.8959978 -10.1939986 128.3023050  14.1846814 -11.0084379
 130.0139992  12.9059978  -2.5619986 130.1529992  12.3139978  -3.3009986
 130.1809992  13.7789978  -2.9179986 130.0556193  12.9428896  -2.7113789
 124.4859992   9.8679978 -12.7889986 123.7749992  10.4029978 -13.1409986
 125.1769992   9.9229978 -13.4489986 124.4820751   9.9486777 -12.9264142
 124.5399992   8.3249978 -15.7509986 125.2409992   8.3479978 -15.0989986
 124.8419992   7.6969978 -16.4069986 124.6768202   8.2432212 -15.7504391
 131.8549992   9.2459978  -4.4959986 131.2029992   9.9399978  -4.4069986
 132.3209992   9.4559978  -5.3059986 131.8285937   9.3695019  -4.5932467
 127.8919992  10.0769978 -11.8379986 127.1599992  10.3059978 -11.2639986
 128.3389992   9.3639978 -11.3829986 127.8523963  10.0118729 -11.6980055
 127.7889992   8.2519978  -2.7699986 127.8689992   9.0149978  -2.1979986
 127.1879992   8.5309978  -3.4599986 127.7186547   8.3942457  -2.7849953
 119.5369992  10.7079978  -9.9549986 119.2069992  10.3369978 -10.7729986
 120.1259992  10.0369978  -9.6079986 119.5713970  10.5666063 -10.0200596
 120.9039992  14.1359978  -7.2739986 120.8089992  13.5569978  -8.0299986
 121.6329992  13.7649978  -6.7779986 120.9896011  14.0065561  -7.3103972
 119.9039992   9.4759978  -6.3219986 120.4689992   9.5979978  -7.0839986
 120.2229992  10.1139978  -5.6829986 120.0244166   9.5788791  -6.3399652
 126.2129992  14.9799978  -5.5879986 125.9729992  15.6419978  -4.9399986
 126.0149992  14.1449978  -5.1629986 126.1533826  14.9578115  -5.4418434
 120.7839992  13.8759978  -1.6039986 120.4729992  14.6579978  -1.1489986
 120.1339992  13.7229978  -2.2899986 120.6535538  13.9624087  -1.6344102
 126.7629992   9.2399978 -14.1519986 127.3419992   9.3899978 -13.4059986
 127.1769992   9.7099978 -14.8759986 126.8983358   9.3240955 -14.1476047
 117.7039992  10.0739978  -2.3759986 117.7739992  10.7249978  -1.6769986
 116.8129992  10.1769978  -2.7109986 117.5931690  10.1769249  -2.3256957
 124.4889992  15.9759978 -10.7169986 124.9629992  16.2719978  -9.9399986
 123.9259992  16.7149978 -10.9499986 124.4777890  16.1163036 -10.6421899
 119.0229992  15.9469978  -0.8409986 119.0309992  15.8109978  -1.7879986
 118.1069992  15.8299978  -0.5889986 118.9002528  15.9125463  -0.9366757
 130.4619992   0.9899978 -14.3389986 129.5619992   1.1289978 -14.0439986
 130.7139992   1.8209978 -14.7409986 130.3728683   1.1214055 -14.3529768
 118.5279992   9.7769978 -12.3659986 118.2359992  10.5449978 -12.8569986
 117.8529992   9.1179978 -12.5289986 118.3968497   9.7929745 -12.4551740
 131.6509992  15.3559978 -15.9629986 131.7239992  16.2949978 -15.7929986
 132.5559992  15.0509978 -16.0189986 131.7834170  15.4433282 -15.9472937
 114.6209992  12.1399978  -3.5509986 114.1189992  12.1119978  -4.3659986
 114.6259992  11.2349978  -3.2409986 114.5529832  12.0137486  -3.6205879
 114.3709992  14.9209978  -6.6669986 115.3169992  14.7759978  -6.6859986
 114.2579992  15.7049978  -6.1299986 114.4853578  15.0071697  -6.5969683
 132.5689992  15.5869978  -0.9839986 132.5189992  14.6309978  -1.0219986
 131.7419992  15.8539978  -0.5829986 132.4503831  15.4924680  -0.9349879
 123.5469992  15.1609978  -2.1079986 123.6349992  15.9869978  -1.6329986
 122.6839992  14.8309978  -1.8589986 123.4423357  15.2295468  -2.0092347
 123.9619992  18.9329978 -12.3019986 123.8859992  18.8119978 -13.2489986
 123.9939992  19.8819978 -12.1839986 123.9559380  19.0447677 -12.4154819
 117.6149992  17.7219978 -10.5209986 117.7669992  17.3739978  -9.6429986
 116.7639992  17.3649978 -10.7769986 117.5208344  17.6260879 -10.4353132
 127.0629992  18.0869978 -15.2999986 127.4379992  17.3429978 -15.7709986
 127.0679992  17.8169978 -14.3819986 127.1150098  17.9486392 -15.2403371
 126.7319992  18.0129978 -12.5509986 125.7969992  18.1129978 -12.3719986
 127.0119992  17.3029978 -11.9719986 126.6419471  17.9307933 -12.4483305
 129.7209992   7.0799978  -0.5039986 129.3129992   7.5599978  -1.2249986
 129.7609992   6.1739978  -0.8119986 129.6706221   7.0232449  -0.6441733
 116.8699992  13.4639978  -2.5079986 117.0859992  13.1019978  -1.6479986
 116.0139992  13.0889978  -2.7169986 116.7838810  13.3638837  -2.4187320
 119.4879992   1.9339978  -6.5119986 118.6269992   1.8469978  -6.9199986
 119.4659992   2.7899978  -6.0839986 119.3670491   2.0378003  -6.5100418
 124.1509992   1.6559978  -3.1369986 124.5709992   1.2409978  -2.3839986
 123.2179992   1.4769978  -3.0199986 124.0823736   1.5749910  -3.0181032
 127.4779992   5.4109978  -2.2839986 126.9639992   5.2859978  -1.4859986
 127.3219992   6.3239978  -2.5279986 127.3866967   5.5172123  -2.2079063
 128.2399992  10.2719978 -16.5229986 128.2819992  10.0499978 -17.4529986
 129.0889992  10.6709978 -16.3329986 128.3605253  10.2955498 -16.6246178
 123.8129992   4.1479978 -15.8519986 123.5589992   4.1669978 -14.9299986
 123.5559992   3.2769978 -16.1539986 123.7434508   4.0328280 -15.7665197
 119.5789992   6.8989978  -5.4169986 118.9379992   6.8589978  -4.7079986
 119.6169992   7.8259978  -5.6549986 119.4963010   7.0187668  -5.3520054
 119.5759992   7.1199978 -10.5049986 118.6839992   6.7799978 -10.5639986
 120.0269992   6.7429978 -11.2609986 119.5147642   7.0224910 -10.6152274
 125.1119992   7.5359978 -11.6879986 124.7029992   8.3509978 -11.9799986
 125.8319992   7.3959978 -12.3019986 125.1534439   7.6285372 -11.8109885
 124.2139992   7.7119978  -0.1999986 123.6509992   7.0069978   0.1210014
 125.0399992   7.5909978   0.2680014 124.2486674   7.5992165  -0.0928249
 126.1169992   6.9819978  -8.8739986 125.9209992   7.5879978  -9.5889986
 126.2979992   6.1489978  -9.3079986 126.1146584   6.9522513  -9.0305788
 117.3289992   7.2199978  -3.5499986 117.2909992   7.6199978  -2.6809986
 116.8389992   6.4029978  -3.4599986 117.2575330   7.1642674  -3.4188711
 120.6949992   4.5939978 -16.7509986 120.2639992   4.1489978 -16.0219986
 119.9769992   4.9649978 -17.2639986 120.5389176   4.5832051 -16.7205070
 113.9379992   4.3359978  -9.6989986 114.5679992   4.3069978  -8.9799986
 114.3869992   3.9109978 -10.4299986 114.0850835   4.2745660  -9.6992341
 115.2119992   5.0819978 -14.2749986 115.6859992   5.6729978 -14.8599986
 114.4939992   5.6119978 -13.9279986 115.1798640   5.2345511 -14.3082031
 125.3809992   8.6199978  -4.2029986 125.7039992   7.9889978  -4.8459986
 124.9399992   8.0859978  -3.5419986 125.3656379   8.4613468  -4.2017418
 122.1579992   4.5479978  -9.4189986 121.2469992   4.6049978  -9.1299986
 122.6629992   4.4879978  -8.6079986 122.1016873   4.5476826  -9.2698793
 116.9859992   6.1769978 -10.5919986 116.0969992   6.2759978 -10.9319986
 117.2829992   5.3349978 -10.9379986 116.9044177   6.0767687 -10.6853060
 120.6389992   6.1769978 -12.9349986 121.5709992   6.3059978 -12.7569986
 120.4239992   6.8459978 -13.5849986 120.7374472   6.2850806 -12.9985109
 126.5629992   3.7829978  -6.1539986 125.8859992   3.9139978  -5.4909986
 126.0779992   3.6279978  -6.9649986 126.4047405   3.7799947  -6.1727830
 119.3129992   7.3709978 -15.3689986 118.7709992   6.9919978 -16.0599986
 120.1469992   7.5659978 -15.7969986 119.3514390   7.3454079 -15.5215608
 129.8509992  19.4539978   0.1220014 130.0499992  19.8779978  -0.7119986
 130.5059992  19.7979978   0.7290014 129.9668522  19.5586301   0.0897852
 117.4489992  11.9279978  -0.2699986 118.1809992  12.1829978   0.2920014
 116.6679992  12.1329978   0.2460014 117.4436526  11.9905450  -0.1234824
 123.4779992   7.3349978  -7.5319986 124.0419992   6.7889978  -8.0789986
 123.3299992   6.8139978  -6.7429986 123.5353037   7.1896787  -7.5002771
 118.4799992   3.4719978 -11.1129986 118.1629992   2.5689978 -11.1489986
 119.2609992   3.4739978 -11.6659986 118.5422431   3.3487797 -11.1926898
 122.1039992   5.7239978  -5.1179986 121.2689992   6.1779978  -5.0069986
 122.6279992   5.9999978  -4.3659986 122.0606072   5.8233948  -5.0011864
 122.6489992  11.9369978 -13.4329986 121.9039992  11.4289978 -13.7549986
 122.5139992  11.9859978 -12.4869986 122.5288963  11.8741731 -13.3491174
 129.7989992  11.0699978  -4.6459986 130.4399992  11.5259978  -5.1899986
 128.9679992  11.1829978  -5.1089986 129.7745287  11.1476921  -4.7830113
 126.5459992   4.7509978 -15.2339986 125.6079992   4.8619978 -15.3849986
 126.8439992   5.6069978 -14.9269986 126.4576318   4.8820158 -15.2131855
 124.1679992  12.1209978  -2.1959986 123.8219992  11.7389978  -1.3889986
 123.9679992  13.0539978  -2.1249986 124.0935987  12.1949002  -2.0759539
 127.2649992   6.6179978 -13.5729986 128.1569992   6.4799978 -13.2539986
 127.3209992   7.4089978 -14.1099986 127.3947325   6.7059918 -13.6018783
 117.7729992  11.2319978  -7.6629986 118.5179992  11.2289978  -8.2649986
 117.8509992  10.4079978  -7.1819986 117.8853366  11.1202384  -7.6802570
 124.7739992  13.3949978 -14.4079986 124.4789992  14.2219978 -14.0259986
 124.0709992  12.7759978 -14.2109986 124.6386379  13.4244171 -14.3291346
 114.7809992   9.6919978  -2.3479986 115.0039992   9.2739978  -1.5169986
 114.1789992   9.0799978  -2.7709986 114.7301513   9.5519606  -2.2913260
 121.7979992   9.2089978  -0.1349986 121.5019992   9.0439978  -1.0309986
 122.7289992   8.9889978  -0.1459986 121.8834401   9.1566879  -0.2589794
 126.4179992  14.5829978  -2.2459986 125.5179992  14.7659978  -2.5129986
 126.4519992  14.8419978  -1.3249986 126.2993748  14.6430554  -2.1580836
 132.1499992   6.8269978 -13.8779986 131.5949992   6.4309978 -14.5509986
 132.2499992   7.7379978 -14.1559986 132.0876816   6.8959505 -14.0074967
 132.1129992  12.6279978  -1.0409986 131.2619992  12.8659978  -1.4089986
 132.7029992  12.6109978  -1.7939986 132.0763812  12.6582524  -1.1931547
 130.4449992  15.6129978 -13.4129986 130.0719992  14.7879978 -13.1039986
 130.7219992  15.4299978 -14.3109986 130.4313463  15.4752569 -13.4920475
 127.6049992  10.4209978  -6.3919986 126.6769992  10.1899978  -6.4189986
 128.0559992   9.6439978  -6.7219986 127.5388165  10.2842774  -6.4403210
 120.1479992  14.7499978 -10.2589986 120.6759992  15.5229978 -10.4589986
 119.2679992  14.9739978 -10.5609986 120.1013435  14.8862700 -10.3272690
 115.9029992   9.6119978 -15.6719986 116.5189992  10.2389978 -15.2919986
 115.0409992   9.9279978 -15.3999986 115.8707678   9.7404412 -15.5832791
 121.5759992  12.4129978 -10.6829986 121.3349992  13.3379978 -10.6409986
 120.8349992  11.9539978 -10.2859986 121.4429206  12.4775915 -10.6236231
 122.0899992  16.5619978  -4.3679986 122.4529992  17.4159978  -4.6009986
 122.6219992  16.2699978  -3.6269986 122.2115141  16.6393895  -4.2997903
 120.2589992  17.4339978 -11.1369986 119.3089992  17.5399978 -11.0859986
 120.6109992  18.2549978 -10.7929986 120.1765472  17.5594923 -11.0835148
 125.6339992  12.6609978  -4.6669986 125.2089992  12.4329978  -3.8409986
 126.2149992  11.9219978  -4.8489986 125.6543395  12.5299545  -4.5785586
 127.8369992  13.5899978 -15.5929986 128.1909992  13.2099978 -14.7889986
 126.8889992  13.4959978 -15.5059986 127.7572298  13.5252452 -15.4711313
 128.2929992  17.2129978  -2.1979986 127.6909992  16.6569978  -2.6929986
 128.5739992  17.8799978  -2.8239986 128.2485757  17.2270744  -2.3504325
 132.3409992  18.0689978 -15.3919986 133.0849992  18.6549978 -15.5319986
 131.6469992  18.6379978 -15.0589986 132.3489809  18.2260818 -15.3661410
 116.4149992   4.4459978  -2.7899986 115.5229992   4.7839978  -2.8579986
 116.3169992   3.5899978  -2.3719986 116.2794475   4.3766543  -2.7428296
 128.7029992  12.2619978 -13.3659986 128.4259992  11.5339978 -12.8099986
 129.6309992  12.3809978 -13.1609986 128.7904499  12.1784213 -13.2621956
 116.0669992  16.2499978  -4.3549986 116.2839992  15.3179978  -4.3859986
 116.3129992  16.5249978  -3.4719986 116.1299809  16.1595686  -4.2398309
 120.8649992  14.2719978 -14.6899986 121.0119992  13.7519978 -13.8999986
 120.8619992  15.1789978 -14.3829986 120.8847102  14.3233953 -14.5404075
 117.3179992  11.5239978 -14.1789986 116.6319992  11.8769978 -13.6119986
 117.8409992  12.2869978 -14.4259986 117.2948402  11.6753901 -14.1348199
 125.1499992   4.1869978  -3.8999986 125.8489992   4.2609978  -3.2499986
 124.7689992   3.3219978  -3.7459986 125.1942097   4.0802389  -3.7902003
 125.9339992   3.8389978 -12.8029986 126.1539992   4.3099978 -13.6069986
 126.4929992   4.2329978 -12.1329986 126.0396731   3.9567287 -12.8224967
 123.6029992  15.9689978 -13.9399986 122.7859992  16.4659978 -13.8879986
 124.1319992  16.4449978 -14.5809986 123.5628125  16.1011989 -14.0194694
 123.1339992   5.5669978 -11.9679986 123.9459992   6.0709978 -11.9219986
 122.8899992   5.4219978 -11.0539986 123.2121467   5.6163749 -11.8381425
 123.6699992   6.5529978  -2.7839986 123.7889992   7.1269978  -2.0269986
 124.3249992   5.8649978  -2.6689986 123.7748684   6.5385194  -2.6648326
 124.0179992   2.6479978 -11.0299986 123.6709992   3.2649978 -10.3859986
 124.6769992   3.1489978 -11.5119986 124.0595090   2.8001575 -11.0069319
 120.9409992  17.0129978 -13.9589986 121.1019992  17.8129978 -14.4589986
 120.7439992  17.3199978 -13.0739986 120.9363906  17.1638678 -13.9077667
 119.6759992   3.7109978 -14.3429986 119.5919992   4.5989978 -13.9959986
 120.5659992   3.4459978 -14.1109986 119.7848163   3.7967179 -14.2641404
 129.8739992   4.4599978  -1.9489986 128.9579992   4.7219978  -2.0359986
 130.2099992   4.4569978  -2.8449986 129.7938499   4.4955163  -2.0821234
 128.4769992   8.2099978  -7.8529986 127.6789992   7.7949978  -8.1809986
 128.9219992   7.5199978  -7.3619986 128.4279684   8.0598628  -7.8314773
 117.9339992  14.1379978 -15.2829986 118.5259992  14.8379978 -15.0059986
 118.3929992  13.7049978 -16.0019986 118.0771652  14.1752675 -15.3423467
 116.2499992   6.8029978 -16.1669986 116.2049992   7.7419978 -15.9879986
 115.3619992   6.5669978 -16.4359986 116.1238166   6.8996687 -16.1788476
 129.5629992  17.4659978  -6.2309986 129.4069992  18.1449978  -6.8879986
 130.4959992  17.5379978  -6.0279986 129.6677387  17.5686390  -6.2934658
 117.0579992   1.5839978  -7.4929986 116.8289992   1.6429978  -8.4209986
 116.6159992   0.7929978  -7.1869986 116.9668801   1.4850540  -7.5785271
 115.9889992  15.5249978 -11.3329986 115.1559992  15.9969978 -11.3059986
 116.5339992  16.0349978 -11.9319986 115.9487857  15.6584791 -11.4102858
 115.2769992  18.1369978  -0.0029986 115.8169992  17.9209978   0.7570014
 114.7959992  17.3319978  -0.1929986 115.2859219  17.9985156   0.0754282
 119.8739992  17.0569978   1.6170014 120.6419992  16.5979978   1.9580014
 119.8529992  16.8309978   0.6870014 119.9762135  16.9636668   1.5379491
 123.9659992  16.5649978 -17.0069986 123.3219992  15.9339978 -16.6859986
 124.7279992  16.0339978 -17.2389986 123.9808058  16.4067902 -16.9943962
 126.4509992  15.4369978   0.3460014 126.0999992  14.5799978   0.5900014
 127.1769992  15.5789978   0.9530014 126.5011895  15.3391351   0.4613770
 128.5709992  16.3819978 -16.7739986 128.8539992  15.5869978 -16.3209986
 129.3099992  16.6149978 -17.3349986 128.7097096  16.3047049 -16.7878896
 115.1839992  11.9479978   0.9510014 115.3279992  11.0459978   0.6650014
 114.4119992  12.2339978   0.4640014 115.0992733  11.8631798   0.8459532
 119.5249992  12.2909978 -16.9159986 119.5899992  11.4969978 -16.3859986
 120.1779992  12.1729978 -17.6059986 119.6221605  12.1663430 -16.9367003
 121.8389992  11.9169978   0.3840014 121.5109992  12.1879978  -0.4729986
 121.9909992  10.9759978   0.2960014 121.8146412  11.8269046   0.2547822
 127.5739992  11.8329978  -2.2329986 128.3189992  12.4219978  -2.3519986
 126.8169992  12.4149978  -2.1689986 127.5735470  11.9922128  -2.2406201
 116.0169992   9.1479978   0.3710014 116.4249992   8.2909978   0.2500014
 115.7559992   9.1619978   1.2920014 116.0376016   9.0325119   0.4789192
 120.6749992  10.2639978 -14.6099986 120.2149992   9.7799978 -13.9249986
 120.9299992   9.5949978 -15.2459986 120.6464856  10.1073669 -14.6021603
 119.9639992   8.1569978  -2.2539986 119.3449992   8.8309978  -1.9739986
 120.3079992   8.4779978  -3.0879986 119.9257123   8.2926887  -2.3283612
 121.7459992   8.5069978 -16.3479986 121.5649992   8.3519978 -17.2749986
 122.6959992   8.6149978 -16.3029986 121.8496566   8.5003669 -16.4689071
 124.9829992  10.6279978   1.0230014 125.9369992  10.7119978   0.9960014
 124.8229992   9.9159978   1.6430014 125.0917182  10.5432842   1.1030733
 131.1359992  10.8609978 -16.9019986 130.8619992  10.4369978 -17.7149986
 131.1749992  11.7929978 -17.1189986 131.1037716  10.9288827 -17.0425714
 120.3029992   5.5119978  -1.1719986 120.4529992   4.7829978  -1.7739986
 120.3049992   6.2889978  -1.7309986 120.3237967   5.5172708  -1.3299459
 120.7159992   3.8809978  -3.6789986 121.2509992   4.3329978  -4.3309986
 119.8629992   3.7729978  -4.1019986 120.6740374   3.9282665  -3.8253290
 122.2969992   9.3209978  -3.4399986 123.0479992   9.1649978  -4.0129986
 121.9579992  10.1729978  -3.7149986 122.3539587   9.4148138  -3.5555922
 126.7129992   7.1359978   1.5890014 126.9049992   6.2049978   1.4770014
 127.5709992   7.5609978   1.5780014 126.8552182   7.0660070   1.5721862
 128.0299992   9.9249978  -0.3339986 127.7479992  10.6339978  -0.9119986
 128.9719992   9.8519978  -0.4849986 128.1187921  10.0122193  -0.4335775
 118.7819992   6.7099978   0.7390014 118.0139992   6.1769978   0.5290014
 119.4599992   6.3999978   0.1400014 118.7687235   6.5951754   0.6292413
 121.5209992   1.3379978  -3.2479986 121.4229992   2.2839978  -3.3529986
 120.7789992   0.9649978  -3.7239986 121.4072534   1.4171773  -3.3267400
 122.7849992   5.6589978   0.3160014 122.5499992   5.4399978   1.2170014
 122.0019992   5.4519978  -0.1939986 122.6469095   5.6009892   0.3705353
 125.5009992   4.7869978  -0.6089986 124.5529992   4.8189978  -0.4769986
 125.8129992   4.1609978   0.0450014 125.4135293   4.7067923  -0.5025852
 127.1349992   3.4209978   1.3960014 127.0379992   2.4689978   1.3910014
 126.8129992   3.6889978   2.2570014 127.0782468   3.3270884   1.5116210
 116.9619992   4.6299978   0.4440014 117.1739992   3.9239978  -0.1659986
 116.8509992   4.1929978   1.2880014 116.9760269   4.4741921   0.4745873
 121.7429992   0.6319978  -0.5769986 122.4549992  -0.0080022  -0.5909986
 121.6419992   0.8979978  -1.4899986 121.8267387   0.5804330  -0.7024437
 122.0969992   2.3139978   1.4770014 121.9649992   1.8389978   0.6570014
 121.4969992   3.0589978   1.4220014 121.9979070   2.3495789   1.3573251
 121.6429992  19.1969978 -15.3469986 122.5759992  19.3549978 -15.2029986
 121.3789992  19.8729978 -15.9719986 121.7349911  19.3099373 -15.4117278
 115.2109992  13.8339978 -15.8639986 116.1249992  13.9129978 -15.5909986
 115.2189992  13.1469978 -16.5299986 115.3370655  13.7519205 -15.9167083
 113.8599992  19.2269978 -10.7869986 113.2129992  18.7649978 -11.3189986
 114.2149992  18.5549978 -10.2039986 113.8193741  19.0729774 -10.7810825
 114.7299992  17.3069978  -8.9819986 114.3959992  16.4269978  -8.8099986
 114.9529992  17.6529978  -8.1169986 114.7143721  17.2331938  -8.8415832
 132.2789992  18.1169978  -6.0009986 132.2569992  18.3019978  -5.0619986
 132.9689992  18.6849978  -6.3419986 132.3693439  18.2191887  -5.9185209
 131.8419992  17.6839978  -3.0799986 131.3549992  16.9489978  -3.4509986
 132.3909992  17.2899978  -2.4019986 131.8495247  17.5301057  -3.0391539
 130.2929992  13.4739978   1.5590014 129.4269992  13.3689978   1.9530014
 130.6689992  14.2319978   2.0050014 130.2253401  13.5621708   1.6732620
 131.5939992  11.7299978 -12.9269986 132.4439992  12.1509978 -12.7999986
 131.5989992  10.9899978 -12.3199986 131.7111143  11.6876094 -12.8275250
 131.9879992   9.7839978 -11.1039986 131.2619992   9.3039978 -10.7059986
 132.5699992   9.9889978 -10.3709986 131.9672730   9.7460184 -10.9505851
 131.7469992  12.5689978  -6.1559986 132.5809992  12.1909978  -6.4369986
 131.8589992  13.5119978  -6.2749986 131.8761917  12.6447943  -6.2105139
 130.2339992  15.4469978  -3.8489986 129.5859992  15.7719978  -3.2239986
 129.7159992  15.0059978  -4.5229986 130.0754196  15.4318651  -3.8545848
 132.2569992   9.6849978 -14.7129986 131.7349992  10.0409978 -15.4309986
 132.2239992  10.3599978 -14.0339986 132.1810129   9.8249598 -14.7196645
 130.6059992   6.9239978 -16.1619986 130.7019992   7.5909978 -16.8419986
 130.4659992   6.1089978 -16.6429986 130.6002040   6.9050671 -16.3201622
 129.7749992   8.3049978 -10.5409986 129.6249992   7.3599978 -10.5609986
 129.4209992   8.5859978  -9.6969986 129.7066351   8.2136644 -10.4296780
 114.8099992  10.3829978  -6.5299986 114.9949992  10.3009978  -7.4659986
 115.6599992  10.2589978  -6.1069986 114.9500928  10.3550463  -6.6007107
 130.6309992  10.2749978  -0.9019986 131.2139992   9.5399978  -0.7099986
 131.1949992  11.0469978  -0.8549986 130.7869781  10.2788145  -0.8693836
 132.1279992   8.1779978  -0.2169986 131.2649992   7.7989978  -0.3829986
 132.7319992   7.4389978  -0.2919986 132.0916085   8.0263223  -0.2498305
 129.8529992   4.3319978 -17.0439986 130.4639992   3.9609978 -16.4069986
 129.0159992   3.9109978 -16.8479986 129.8234947   4.2242756 -16.9302748
 129.4859992   5.8869978 -12.0779986 129.7649992   4.9799978 -11.9539986
 130.2449992   6.3209978 -12.4669986 129.6268619   5.8214502 -12.1136205
 130.0969992   6.4689978  -6.6419986 131.0299992   6.6809978  -6.6769986
 129.8619992   6.5699978  -5.7199986 130.1929517   6.5116833  -6.5220870
 130.1269992   7.2059978  -3.8659986 129.2839992   7.4739978  -3.4999986
 130.5689992   8.0279978  -4.0769986 130.0714138   7.3538273  -3.8444482
 114.4079992   5.6529978  -0.3899986 115.3269992   5.5309978  -0.1529986
 113.9579992   4.9029978   0.0000014 114.4730087   5.5349608  -0.3048590
 132.4099992   1.1859978   1.4870014 132.7589992   0.5319978   0.8820014
 132.5569992   2.0229978   1.0470014 132.4776824   1.2096024   1.3446304
 130.0989992   3.1499978 -12.0299986 130.2809992   2.7009978 -11.2049986
 129.4989992   2.5659978 -12.4939986 130.0428187   3.0095552 -11.9797261
 115.6289992   3.9659978  -7.4979986 116.0739992   3.1739978  -7.1959986
 116.0949992   4.6819978  -7.0679986 115.7529718   3.9544534  -7.3984735
 113.9329992   6.9649978  -6.4289986 114.4249992   6.7439978  -7.2199986
 114.2949992   7.8049978  -6.1479986 114.0492923   7.0483468  -6.4992593
 131.9289992   3.2949978  -0.1639986 131.0119992   3.5659978  -0.1989986
 132.0519992   2.7599978  -0.9479986 131.8199672   3.2597885  -0.2748138
 131.9659992   3.2179978 -15.5019986 132.3779992   2.4969978 -15.9769986
 132.6469992   3.8869978 -15.4439986 132.1145536   3.2097766 -15.5591976
 114.2469992   3.2229978 -12.3749986 113.3219992   3.4309978 -12.5039986
 114.7009992   3.7069978 -13.0649986 114.1816298   3.3169299 -12.4859549
 129.0169992  18.2069978 -10.4289986 129.6699992  17.8589978 -11.0369986
 129.5279992  18.6949978  -9.7829986 129.1752777  18.2253815 -10.4247953
 114.2099992   1.9609978  -4.0309986 113.5449992   1.7149978  -3.3879986
 113.7669992   2.5829978  -4.6079986 114.0591168   2.0114214  -4.0210152
 116.4019992  15.1359978   0.1140014 115.5809992  15.3109978  -0.3469986
 116.1499992  15.0629978   1.0340014 116.2555594  15.1500717   0.1753611
 119.3559992  16.1099978  -3.6279986 118.9319992  16.9199978  -3.9099986
 120.2609992  16.1959978  -3.9299986 119.4202138  16.2324160  -3.7073585
 123.6679992  17.5089978  -0.6679986 123.8519992  17.1759978   0.2100014
 124.5139992  17.8189978  -0.9899986 123.8076484  17.5052979  -0.5912383
 126.0129992  18.7949978  -1.4239986 126.6899992  18.1619978  -1.6639986
 126.3339992  19.1959978  -0.6169986 126.1491323  18.7625691  -1.3476842
 130.9299992   1.3849978  -2.3449986 130.1169992   1.7099978  -2.7319986
 131.1629992   0.6239978  -2.8779986 130.8501347   1.3266880  -2.4700159
 116.7579992  19.3669978  -3.5799986 116.0379992  19.8069978  -4.0309986
 116.3929992  19.1159978  -2.7319986 116.6099643  19.3933369  -3.5270871
 119.2249992  18.9669978  -4.5499986 118.3609992  19.0389978  -4.1459986
 119.1699992  19.5139978  -5.3339986 119.0991942  19.0507849  -4.6006000
 123.9359992  18.8549978  -5.3749986 123.4789992  19.3839978  -6.0289986
 124.0989992  19.4579978  -4.6499986 123.8954960  19.0089280  -5.3664726
 126.2639992  17.7329978  -4.4299986 125.3589992  17.8979978  -4.6959986
 126.6919992  18.5859978  -4.4959986 126.1981537  17.8709134  -4.4752905
 128.8679992  19.3029978  -4.1349986 128.6859992  20.2189978  -4.3459986
 129.0449992  18.8919978  -4.9819986 128.8670030  19.3728273  -4.2782834
 116.1729992  17.9899978  -6.6699986 116.1549992  17.5639978  -5.8129986
 116.9779992  17.6709978  -7.0789986 116.2792875  17.8886435  -6.6080485
 118.3139992  16.6999978  -8.0149986 118.0949992  15.7829978  -7.8449986
 119.1379992  16.8399978  -7.5489986 118.3954702  16.5935511  -7.9287473
 120.8509992  17.1699978  -7.1659986 121.0639992  16.2819978  -7.4529986
 120.9159992  17.1349978  -6.2119986 120.8889149  17.0438326  -7.0762631
 124.3599992   2.8339978  -8.0219986 123.6859992   2.2039978  -7.7659986
 124.9239992   2.3499978  -8.6249986 124.3440384   2.6823708  -8.0684980
 129.5029992   0.9409978  -7.9089986 130.1059992   1.4889978  -8.4109986
 128.6329992   1.2599978  -8.1499986 129.4679157   1.0590373  -8.0102090
 131.2299992   2.0799978  -9.5759986 131.8409992   1.5659978 -10.1029986
 131.6119992   2.9569978  -9.5529986 131.3653305   2.1282050  -9.6450582
 116.6869992   1.4679978 -10.1999986 115.9099992   1.2329978 -10.7069986
 117.2169992   0.6709978 -10.1909986 116.6523451   1.3281268 -10.2681373
 115.5229992   1.2659978 -14.3959986 115.9619992   1.8769978 -14.9879986
 114.8889992   1.8039978 -13.9219986 115.4973859   1.4224064 -14.4129695
 121.2659992   1.3939978 -10.3869986 122.1399992   1.7829978 -10.4159986
 121.1299992   1.1789978  -9.4639986 121.3671953   1.4181643 -10.2662383
 126.8229992   1.4239978  -8.7369986 126.8989992   1.5199978  -9.6869986
 126.5479992   0.5169978  -8.6089986 126.7961871   1.3144146  -8.8496056
 128.1759992   1.4499978 -13.0449986 127.4729992   2.0649978 -13.2549986
 127.7309992   0.6129978 -12.9139986 128.0196550   1.4209668 -13.0560163
 115.4239992  17.2139978 -13.4989986 114.7389992  17.1759978 -14.1659986
 115.4279992  18.1269978 -13.2109986 115.3307621  17.3321924 -13.5513874
 117.3839992   3.1819978 -15.9539986 117.8749992   2.5519978 -16.4809986
 118.0069992   3.4779978 -15.2909986 117.5355304   3.1357376 -15.9365060
 122.4099992   3.4749978 -13.4969986 122.5879992   2.8279978 -12.8139986
 122.3559992   4.3089978 -13.0299986 122.4270678   3.4991604 -13.3403699
 124.2879992  18.4229978 -15.1009986 125.1539992  18.7899978 -15.2789986
 124.0419992  17.9839978 -15.9149986 124.3732097  18.4138525 -15.2353981
 130.9969992  17.9859978 -12.4219986 130.8029992  17.2379978 -12.9869986
 130.9579992  18.7439978 -13.0049986 130.9651645  17.9860786 -12.5781852
 116.6439992   1.9819978  -0.6819986 116.2779992   1.2159978  -0.2399986
 117.5569992   2.0109978  -0.3959986 116.7173172   1.8810324  -0.5828110
 118.6169992   1.3319978   0.8530014 119.5159992   1.0579978   0.6690014
 118.2309992   0.5899978   1.3180014 118.6877307   1.1942196   0.8907098
 117.2419992  18.1339978 -16.4739986 116.9739992  18.4199978 -15.5999986
 118.0129992  17.5879978 -16.3209986 117.3095926  18.0992779 -16.3338795
 127.0389992   0.6649978   1.0360014 127.1149992   0.2389978   1.8890014
 127.9319992   0.6779978   0.6930014 127.1702303   0.6083493   1.1065497
 130.2149992  16.7379978  -0.2719986 129.4329992  16.5509978  -0.7919986
 130.1429992  17.6669978  -0.0549986 130.0981924  16.8380637  -0.3138398
 144.6209992  10.6239978 -10.2409986 144.7099992  11.5679978 -10.3729986
 143.9829992  10.3489978 -10.8989986 144.5469062  10.7159812 -10.3480359
 143.5539992   9.8789978  -6.8219986 143.5159992   9.2329978  -6.1169986
 143.2319992   9.4119978  -7.5929986 143.5052679   9.7274276  -6.8297079
 135.9219992   9.4929978  -5.2289986 135.9639992   8.8679978  -4.5059986
 136.6249992  10.1169978  -5.0469986 136.0227345   9.4917873  -5.1054726
 136.8459992  13.9429978  -6.6939986 136.4759992  13.1409978  -7.0639986
 137.7869992  13.7749978  -6.6479986 136.9225984  13.8104638  -6.7384397
 133.4559992   7.6029978 -11.3019986 133.0079992   8.4489978 -11.3199986
 132.8949992   7.0239978 -11.8169986 133.3188546   7.6403993 -11.3741109
 134.1659992   9.7649978  -9.1759986 134.3799992   8.9949978  -8.6479986
 134.9039992   9.8549978  -9.7789986 134.2950200   9.6718587  -9.1852965
 144.3719992  17.9219978  -8.3089986 144.9909992  17.2459978  -8.5819986
 144.1629992  17.7039978  -7.3999986 144.4286056  17.7998869  -8.2236033
 141.9429992  12.3109978  -6.4159986 142.2469992  11.6249978  -7.0109986
 142.6649992  12.4299978  -5.7979986 142.0821240  12.2332314  -6.4139041
 145.0839992   6.7049978  -6.0889986 145.2269992   5.7589978  -6.0689986
 144.9779992   6.9119978  -7.0169986 145.0892403   6.6034797  -6.2117761
 138.2389992   4.8069978  -8.8159986 138.2819992   5.6669978  -9.2349986
 137.7809992   4.2549978  -9.4499986 138.1829871   4.8499245  -8.9589239
 134.8589992   7.2039978  -8.0539986 135.5129992   6.6539978  -7.6219986
 134.8829992   6.9299978  -8.9709986 134.9517199   7.0917167  -8.1188332
 140.0159992   8.7539978  -8.8389986 140.6319992   8.2269978  -8.3299986
 139.4289992   8.1139978  -9.2429986 140.0210154   8.5953954  -8.8239055
 137.0489992   3.7249978  -4.7419986 136.8299992   4.2549978  -5.5089986
 136.3809992   3.9509978  -4.0949986 136.9286975   3.8280967  -4.7594860
 144.4179992  13.2249978 -11.1979986 144.1229992  12.9019978 -12.0499986
 144.0939992  14.1249978 -11.1569986 144.3338460  13.3024464 -11.3090286
 139.6179992  11.3999978  -4.4549986 138.8779992  11.9989978  -4.3509986
 140.3319992  11.9539978  -4.7699986 139.6133500  11.5567829  -4.4833629
 136.6429992   5.6169978  -6.7899986 137.2569992   6.2499978  -6.4169986
 137.1549992   5.1449978  -7.4459986 136.7961962   5.6397249  -6.8277065
 138.0259992  13.3649978  -3.6679986 138.0199992  14.2439978  -4.0459986
 137.1719992  13.2809978  -3.2429986 137.9097925  13.4739535  -3.6623113
 134.1469992  13.0359978 -12.8859986 133.8749992  13.2649978 -13.7739986
 134.1919992  13.8729978 -12.4249986 134.1158097  13.1806163 -12.9453317
 141.0759992   1.0299978  -7.2899986 140.9579992   0.0819978  -7.3439986
 140.2209992   1.3629978  -7.0169986 140.9442805   0.9452202  -7.2604921
 143.3419992   9.8679978 -12.7889986 142.6309992  10.4029978 -13.1409986
 144.0329992   9.9229978 -13.4489986 143.3380751   9.9486777 -12.9264142
 143.3959992   8.3249978 -15.7509986 144.0969992   8.3479978 -15.0989986
 143.6979992   7.6969978 -16.4069986 143.5328202   8.2432212 -15.7504391
 138.3929992  10.7079978  -9.9549986 138.0629992  10.3369978 -10.7729986
 138.9819992  10.0369978  -9.6079986 138.4273970  10.5666063 -10.0200596
 139.7599992  14.1359978  -7.2739986 139.6649992  13.5569978  -8.0299986
 140.4889992  13.7649978  -6.7779986 139.8456011  14.0065561  -7.3103972
 138.7599992   9.4759978  -6.3219986 139.3249992   9.5979978  -7.0839986
 139.0789992  10.1139978  -5.6829986 138.8804166   9.5788791  -6.3399652
 145.0689992  14.9799978  -5.5879986 144.8289992  15.6419978  -4.9399986
 144.8709992  14.1449978  -5.1629986 145.0093826  14.9578115  -5.4418434
 139.6399992  13.8759978  -1.6039986 139.3289992  14.6579978  -1.1489986
 138.9899992  13.7229978  -2.2899986 139.5095538  13.9624087  -1.6344102
 136.5599992  10.0739978  -2.3759986 136.6299992  10.7249978  -1.6769986
 135.6689992  10.1769978  -2.7109986 136.4491690  10.1769249  -2.3256957
 143.3449992  15.9759978 -10.7169986 143.8189992  16.2719978  -9.9399986
 142.7819992  16.7149978 -10.9499986 143.3337890  16.1163036 -10.6421899
 137.8789992  15.9469978  -0.8409986 137.8869992  15.8109978  -1.7879986
 136.9629992  15.8299978  -0.5889986 137.7562528  15.9125463  -0.9366757
 137.3839992   9.7769978 -12.3659986 137.0919992  10.5449978 -12.8569986
 136.7089992   9.1179978 -12.5289986 137.2528497   9.7929745 -12.4551740
 133.4769992  12.1399978  -3.5509986 132.9749992  12.1119978  -4.3659986
 133.4819992  11.2349978  -3.2409986 133.4089832  12.0137486  -3.6205879
 133.2269992  14.9209978  -6.6669986 134.1729992  14.7759978  -6.6859986
 133.1139992  15.7049978  -6.1299986 133.3413578  15.0071697  -6.5969683
 142.4029992  15.1609978  -2.1079986 142.4909992  15.9869978  -1.6329986
 141.5399992  14.8309978  -1.8589986 142.2983357  15.2295468  -2.0092347
 142.8179992  18.9329978 -12.3019986 142.7419992  18.8119978 -13.2489986
 142.8499992  19.8819978 -12.1839986 142.8119380  19.0447677 -12.4154819
 136.4709992  17.7219978 -10.5209986 136.6229992  17.3739978  -9.6429986
 135.6199992  17.3649978 -10.7769986 136.3768344  17.6260879 -10.4353132
 135.7259992  13.4639978  -2.5079986 135.9419992  13.1019978  -1.6479986
 134.8699992  13.0889978  -2.7169986 135.6398810  13.3638837  -2.4187320
 138.3439992   1.9339978  -6.5119986 137.4829992   1.8469978  -6.9199986
 138.3219992   2.7899978  -6.0839986 138.2230491   2.0378003  -6.5100418
 143.0069992   1.6559978  -3.1369986 143.4269992   1.2409978  -2.3839986
 142.0739992   1.4769978  -3.0199986 142.9383736   1.5749910  -3.0181032
 142.6689992   4.1479978 -15.8519986 142.4149992   4.1669978 -14.9299986
 142.4119992   3.2769978 -16.1539986 142.5994508   4.0328280 -15.7665197
 138.4349992   6.8989978  -5.4169986 137.7939992   6.8589978  -4.7079986
 138.4729992   7.8259978  -5.6549986 138.3523010   7.0187668  -5.3520054
 138.4319992   7.1199978 -10.5049986 137.5399992   6.7799978 -10.5639986
 138.8829992   6.7429978 -11.2609986 138.3707642   7.0224910 -10.6152274
 143.9679992   7.5359978 -11.6879986 143.5589992   8.3509978 -11.9799986
 144.6879992   7.3959978 -12.3019986 144.0094439   7.6285372 -11.8109885
 143.0699992   7.7119978  -0.1999986 142.5069992   7.0069978   0.1210014
 143.8959992   7.5909978   0.2680014 143.1046674   7.5992165  -0.0928249
 144.9729992   6.9819978  -8.8739986 144.7769992   7.5879978  -9.5889986
 145.1539992   6.1489978  -9.3079986 144.9706584   6.9522513  -9.0305788
 136.1849992   7.2199978  -3.5499986 136.1469992   7.6199978  -2.6809986
 135.6949992   6.4029978  -3.4599986 136.1135330   7.1642674  -3.4188711
 139.5509992   4.5939978 -16.7509986 139.1199992   4.1489978 -16.0219986
 138.8329992   4.9649978 -17.2639986 139.3949176   4.5832051 -16.7205070
 132.7939992   4.3359978  -9.6989986 133.4239992   4.3069978  -8.9799986
 133.2429992   3.9109978 -10.4299986 132.9410835   4.2745660  -9.6992341
 134.0679992   5.0819978 -14.2749986 134.5419992   5.6729978 -14.8599986
 133.3499992   5.6119978 -13.9279986 134.0358640   5.2345511 -14.3082031
 144.2369992   8.6199978  -4.2029986 144.5599992   7.9889978  -4.8459986
 143.7959992   8.0859978  -3.5419986 144.2216379   8.4613468  -4.2017418
 141.0139992   4.5479978  -9.4189986 140.1029992   4.6049978  -9.1299986
 141.5189992   4.4879978  -8.6079986 140.9576873   4.5476826  -9.2698793
 135.8419992   6.1769978 -10.5919986 134.9529992   6.2759978 -10.9319986
 136.1389992   5.3349978 -10.9379986 135.7604177   6.0767687 -10.6853060
 139.4949992   6.1769978 -12.9349986 140.4269992   6.3059978 -12.7569986
 139.2799992   6.8459978 -13.5849986 139.5934472   6.2850806 -12.9985109
 145.4189992   3.7829978  -6.1539986 144.7419992   3.9139978  -5.4909986
 144.9339992   3.6279978  -6.9649986 145.2607405   3.7799947  -6.1727830
 138.1689992   7.3709978 -15.3689986 137.6269992   6.9919978 -16.0599986
 139.0029992   7.5659978 -15.7969986 138.2074390   7.3454079 -15.5215608
 136.3049992  11.9279978  -0.2699986 137.0369992  12.1829978   0.2920014
 135.5239992  12.1329978   0.2460014 136.2996526  11.9905450  -0.1234824
 142.3339992   7.3349978  -7.5319986 142.8979992   6.7889978  -8.0789986
 142.1859992   6.8139978  -6.7429986 142.3913037   7.1896787  -7.5002771
 137.3359992   3.4719978 -11.1129986 137.0189992   2.5689978 -11.1489986
 138.1169992   3.4739978 -11.6659986 137.3982431   3.3487797 -11.1926898
 140.9599992   5.7239978  -5.1179986 140.1249992   6.1779978  -5.0069986
 141.4839992   5.9999978  -4.3659986 140.9166072   5.8233948  -5.0011864
 141.5049992  11.9369978 -13.4329986 140.7599992  11.4289978 -13.7549986
 141.3699992  11.9859978 -12.4869986 141.3848963  11.8741731 -13.3491174
 145.4019992   4.7509978 -15.2339986 144.4639992   4.8619978 -15.3849986
 145.6999992   5.6069978 -14.9269986 145.3136318   4.8820158 -15.2131855
 143.0239992  12.1209978  -2.1959986 142.6779992  11.7389978  -1.3889986
 142.8239992  13.0539978  -2.1249986 142.9495987  12.1949002  -2.0759539
 136.6289992  11.2319978  -7.6629986 137.3739992  11.2289978  -8.2649986
 136.7069992  10.4079978  -7.1819986 136.7413365  11.1202384  -7.6802570
 143.6299992  13.3949978 -14.4079986 143.3349992  14.2219978 -14.0259986
 142.9269992  12.7759978 -14.2109986 143.4946379  13.4244171 -14.3291346
 133.6369992   9.6919978  -2.3479986 133.8599992   9.2739978  -1.5169986
 133.0349992   9.0799978  -2.7709986 133.5861513   9.5519606  -2.2913260
 140.6539992   9.2089978  -0.1349986 140.3579992   9.0439978  -1.0309986
 141.5849992   8.9889978  -0.1459986 140.7394401   9.1566879  -0.2589794
 145.2739992  14.5829978  -2.2459986 144.3739992  14.7659978  -2.5129986
 145.3079992  14.8419978  -1.3249986 145.1553748  14.6430554  -2.1580836
 139.0039992  14.7499978 -10.2589986 139.5319992  15.5229978 -10.4589986
 138.1239992  14.9739978 -10.5609986 138.9573435  14.8862700 -10.3272690
 134.7589992   9.6119978 -15.6719986 135.3749992  10.2389978 -15.2919986
 133.8969992   9.9279978 -15.3999986 134.7267678   9.7404412 -15.5832791
 140.4319992  12.4129978 -10.6829986 140.1909992  13.3379978 -10.6409986
 139.6909992  11.9539978 -10.2859986 140.2989206  12.4775915 -10.6236231
 140.9459992  16.5619978  -4.3679986 141.3089992  17.4159978  -4.6009986
 141.4779992  16.2699978  -3.6269986 141.0675141  16.6393895  -4.2997903
 139.1149992  17.4339978 -11.1369986 138.1649992  17.5399978 -11.0859986
 139.4669992  18.2549978 -10.7929986 139.0325472  17.5594923 -11.0835148
 144.4899992  12.6609978  -4.6669986 144.0649992  12.4329978  -3.8409986
 145.0709992  11.9219978  -4.8489986 144.5103395  12.5299545  -4.5785586
 135.2709992   4.4459978  -2.7899986 134.3789992   4.7839978  -2.8579986
 135.1729992   3.5899978  -2.3719986 135.1354475   4.3766543  -2.7428296
 134.9229992  16.2499978  -4.3549986 135.1399992  15.3179978  -4.3859986
 135.1689992  16.5249978  -3.4719986 134.9859809  16.1595686  -4.2398310
 139.7209992  14.2719978 -14.6899986 139.8679992  13.7519978 -13.8999986
 139.7179992  15.1789978 -14.3829986 139.7407102  14.3233953 -14.5404075
 136.1739992  11.5239978 -14.1789986 135.4879992  11.8769978 -13.6119986
 136.6969992  12.2869978 -14.4259986 136.1508402  11.6753901 -14.1348199
 144.0059992   4.1869978  -3.8999986 144.7049992   4.2609978  -3.2499986
 143.6249992   3.3219978  -3.7459986 144.0502097   4.0802389  -3.7902003
 144.7899992   3.8389978 -12.8029986 145.0099992   4.3099978 -13.6069986
 145.3489992   4.2329978 -12.1329986 144.8956731   3.9567287 -12.8224967
 142.4589992  15.9689978 -13.9399986 141.6419992  16.4659978 -13.8879986
 142.9879992  16.4449978 -14.5809986 142.4188125  16.1011989 -14.0194694
 141.9899992   5.5669978 -11.9679986 142.8019992   6.0709978 -11.9219986
 141.7459992   5.4219978 -11.0539986 142.0681467   5.6163749 -11.8381425
 142.5259992   6.5529978  -2.7839986 142.6449992   7.1269978  -2.0269986
 143.1809992   5.8649978  -2.6689986 142.6308684   6.5385194  -2.6648326
 142.8739992   2.6479978 -11.0299986 142.5269992   3.2649978 -10.3859986
 143.5329992   3.1489978 -11.5119986 142.9155090   2.8001575 -11.0069319
 139.7969992  17.0129978 -13.9589986 139.9579992  17.8129978 -14.4589986
 139.5999992  17.3199978 -13.0739986 139.7923906  17.1638678 -13.9077667
 138.5319992   3.7109978 -14.3429986 138.4479992   4.5989978 -13.9959986
 139.4219992   3.4459978 -14.1109986 138.6408163   3.7967179 -14.2641404
 136.7899992  14.1379978 -15.2829986 137.3819992  14.8379978 -15.0059986
 137.2489992  13.7049978 -16.0019986 136.9331652  14.1752675 -15.3423467
 135.1059992   6.8029978 -16.1669986 135.0609992   7.7419978 -15.9879986
 134.2179992   6.5669978 -16.4359986 134.9798166   6.8996687 -16.1788476
 135.9139992   1.5839978  -7.4929986 135.6849992   1.6429978  -8.4209986
 135.4719992   0.7929978  -7.1869986 135.8228801   1.4850540  -7.5785271
 134.8449992  15.5249978 -11.3329986 134.0119992  15.9969978 -11.3059986
 135.3899992  16.0349978 -11.9319986 134.8047857  15.6584791 -11.4102858
 134.1329992  18.1369978  -0.0029986 134.6729992  17.9209978   0.7570014
 133.6519992  17.3319978  -0.1929986 134.1419219  17.9985156   0.0754282
 138.7299992  17.0569978   1.6170014 139.4979992  16.5979978   1.9580014
 138.7089992  16.8309978   0.6870014 138.8322135  16.9636668   1.5379491
 142.8219992  16.5649978 -17.0069986 142.1779992  15.9339978 -16.6859986
 143.5839992  16.0339978 -17.2389986 142.8368058  16.4067902 -16.9943962
 145.3069992  15.4369978   0.3460014 144.9559992  14.5799978   0.5900014
 146.0329992  15.5789978   0.9530014 145.3571895  15.3391351   0.4613770
 134.0399992  11.9479978   0.9510014 134.1839992  11.0459978   0.6650014
 133.2679992  12.2339978   0.4640014 133.9552733  11.8631798   0.8459532
 138.3809992  12.2909978 -16.9159986 138.4459992  11.4969978 -16.3859986
 139.0339992  12.1729978 -17.6059986 138.4781605  12.1663430 -16.9367003
 140.6949992  11.9169978   0.3840014 140.3669992  12.1879978  -0.4729986
 140.8469992  10.9759978   0.2960014 140.6706412  11.8269046   0.2547822
 134.8729992   9.1479978   0.3710014 135.2809992   8.2909978   0.2500014
 134.6119992   9.1619978   1.2920014 134.8936016   9.0325119   0.4789192
 139.5309992  10.2639978 -14.6099986 139.0709992   9.7799978 -13.9249986
 139.7859992   9.5949978 -15.2459986 139.5024856  10.1073669 -14.6021603
 138.8199992   8.1569978  -2.2539986 138.2009992   8.8309978  -1.9739986
 139.1639992   8.4779978  -3.0879986 138.7817123   8.2926887  -2.3283612
 140.6019992   8.5069978 -16.3479986 140.4209992   8.3519978 -17.2749986
 141.5519992   8.6149978 -16.3029986 140.7056566   8.5003669 -16.4689071
 143.8389992  10.6279978   1.0230014 144.7929992  10.7119978   0.9960014
 143.6789992   9.9159978   1.6430014 143.9477182  10.5432842   1.1030733
 139.1589992   5.5119978  -1.1719986 139.3089992   4.7829978  -1.7739986
 139.1609992   6.2889978  -1.7309986 139.1797967   5.5172708  -1.3299459
 139.5719992   3.8809978  -3.6789986 140.1069992   4.3329978  -4.3309986
 138.7189992   3.7729978  -4.1019986 139.5300374   3.9282665  -3.8253290
 141.1529992   9.3209978  -3.4399986 141.9039992   9.1649978  -4.0129986
 140.8139992  10.1729978  -3.7149986 141.2099587   9.4148138  -3.5555922
 145.5689992   7.1359978   1.5890014 145.7609992   6.2049978   1.4770014
 146.4269992   7.5609978   1.5780014 145.7112182   7.0660070   1.5721862
 137.6379992   6.7099978   0.7390014 136.8699992   6.1769978   0.5290014
 138.3159992   6.3999978   0.1400014 137.6247235   6.5951754   0.6292413
 140.3769992   1.3379978  -3.2479986 140.2789992   2.2839978  -3.3529986
 139.6349992   0.9649978  -3.7239986 140.2632534   1.4171773  -3.3267400
 141.6409992   5.6589978   0.3160014 141.4059992   5.4399978   1.2170014
 140.8579992   5.4519978  -0.1939986 141.5029095   5.6009892   0.3705353
 144.3569992   4.7869978  -0.6089986 143.4089992   4.8189978  -0.4769986
 144.6689992   4.1609978   0.0450014 144.2695293   4.7067923  -0.5025852
 135.8179992   4.6299978   0.4440014 136.0299992   3.9239978  -0.1659986
 135.7069992   4.1929978   1.2880014 135.8320269   4.4741921   0.4745873
 140.5989992   0.6319978  -0.5769986 141.3109992  -0.0080022  -0.5909986
 140.4979992   0.8979978  -1.4899986 140.6827387   0.5804330  -0.7024437
 140.9529992   2.3139978   1.4770014 140.8209992   1.8389978   0.6570014
 140.3529992   3.0589978   1.4220014 140.8539070   2.3495789   1.3573251
 140.4989992  19.1969978 -15.3469986 141.4319992  19.3549978 -15.2029986
 140.2349992  19.8729978 -15.9719986 140.5909911  19.3099373 -15.4117278
 134.0669992  13.8339978 -15.8639986 134.9809992  13.9129978 -15.5909986
 134.0749992  13.1469978 -16.5299986 134.1930655  13.7519205 -15.9167083
 132.7159992  19.2269978 -10.7869986 132.0689992  18.7649978 -11.3189986
 133.0709992  18.5549978 -10.2039986 132.6753741  19.0729774 -10.7810825
 133.5859992  17.3069978  -8.9819986 133.2519992  16.4269978  -8.8099986
 133.8089992  17.6529978  -8.1169986 133.5703721  17.2331938  -8.8415832
 133.6659992  10.3829978  -6.5299986 133.8509992  10.3009978  -7.4659986
 134.5159992  10.2589978  -6.1069986 133.8060928  10.3550463  -6.6007107
 133.2639992   5.6529978  -0.3899986 134.1829992   5.5309978  -0.1529986
 132.8139992   4.9029978   0.0000014 133.3290087   5.5349608  -0.3048590
 134.4849992   3.9659978  -7.4979986 134.9299992   3.1739978  -7.1959986
 134.9509992   4.6819978  -7.0679986 134.6089718   3.9544534  -7.3984735
 132.7889992   6.9649978  -6.4289986 133.2809992   6.7439978  -7.2199986
 133.1509992   7.8049978  -6.1479986 132.9052923   7.0483468  -6.4992593
 133.1029992   3.2229978 -12.3749986 132.1779992   3.4309978 -12.5039986
 133.5569992   3.7069978 -13.0649986 133.0376298   3.3169299 -12.4859549
 133.0659992   1.9609978  -4.0309986 132.4009992   1.7149978  -3.3879986
 132.6229992   2.5829978  -4.6079986 132.9151168   2.0114214  -4.0210152
 135.2579992  15.1359978   0.1140014 134.4369992  15.3109978  -0.3469986
 135.0059992  15.0629978   1.0340014 135.1115594  15.1500717   0.1753611
 138.2119992  16.1099978  -3.6279986 137.7879992  16.9199978  -3.9099986
 139.1169992  16.1959978  -3.9299986 138.2762138  16.2324160  -3.7073585
 142.5239992  17.5089978  -0.6679986 142.7079992  17.1759978   0.2100014
 143.3699992  17.8189978  -0.9899986 142.6636484  17.5052979  -0.5912383
 144.8689992  18.7949978  -1.4239986 145.5459992  18.1619978  -1.6639986
 145.1899992  19.1959978  -0.6169986 145.0051323  18.7625691  -1.3476842
 135.6139992  19.3669978  -3.5799986 134.8939992  19.8069978  -4.0309986
 135.2489992  19.1159978  -2.7319986 135.4659643  19.3933369  -3.5270871
 138.0809992  18.9669978  -4.5499986 137.2169992  19.0389978  -4.1459986
 138.0259992  19.5139978  -5.3339986 137.9551942  19.0507849  -4.6006000
 142.7919992  18.8549978  -5.3749986 142.3349992  19.3839978  -6.0289986
 142.9549992  19.4579978  -4.6499986 142.7514960  19.0089280  -5.3664726
 145.1199992  17.7329978  -4.4299986 144.2149992  17.8979978  -4.6959986
 145.5479992  18.5859978  -4.4959986 145.0541537  17.8709134  -4.4752905
 135.0289992  17.9899978  -6.6699986 135.0109992  17.5639978  -5.8129986
 135.8339992  17.6709978  -7.0789986 135.1352875  17.8886435  -6.6080485
 137.1699992  16.6999978  -8.0149986 136.9509992  15.7829978  -7.8449986
 137.9939992  16.8399978  -7.5489986 137.2514702  16.5935511  -7.9287473
 139.7069992  17.1699978  -7.1659986 139.9199992  16.2819978  -7.4529986
 139.7719992  17.1349978  -6.2119986 139.7449149  17.0438326  -7.0762631
 143.2159992   2.8339978  -8.0219986 142.5419992   2.2039978  -7.7659986
 143.7799992   2.3499978  -8.6249986 143.2000384   2.6823708  -8.0684980
 135.5429992   1.4679978 -10.1999986 134.7659992   1.2329978 -10.7069986
 136.0729992   0.6709978 -10.1909986 135.5083451   1.3281268 -10.2681373
 134.3789992   1.2659978 -14.3959986 134.8179992   1.8769978 -14.9879986
 133.7449992   1.8039978 -13.9219986 134.3533859   1.4224064 -14.4129695
 140.1219992   1.3939978 -10.3869986 140.9959992   1.7829978 -10.4159986
 139.9859992   1.1789978  -9.4639986 140.2231953   1.4181643 -10.2662383
 134.2799992  17.2139978 -13.4989986 133.5949992  17.1759978 -14.1659986
 134.2839992  18.1269978 -13.2109986 134.1867621  17.3321924 -13.5513874
 136.2399992   3.1819978 -15.9539986 136.7309992   2.5519978 -16.4809986
 136.8629992   3.4779978 -15.2909986 136.3915304   3.1357376 -15.9365060
 141.2659992   3.4749978 -13.4969986 141.4439992   2.8279978 -12.8139986
 141.2119992   4.3089978 -13.0299986 141.2830678   3.4991604 -13.3403699
 143.1439992  18.4229978 -15.1009986 144.0099992  18.7899978 -15.2789986
 142.8979992  17.9839978 -15.9149986 143.2292097  18.4138525 -15.2353981
 135.4999992   1.9819978  -0.6819986 135.1339992   1.2159978  -0.2399986
 136.4129992   2.0109978  -0.3959986 135.5733172   1.8810324  -0.5828110
 137.4729992   1.3319978   0.8530014 138.3719992   1.0579978   0.6690014
 137.0869992   0.5899978   1.3180014 137.5437307   1.1942196   0.8907098
 136.0979992  18.1339978 -16.4739986 135.8299992  18.4199978 -15.5999986
 136.8689992  17.5879978 -16.3209986 136.1655926  18.0992779 -16.3338795
  12.6289992  29.4799978 -10.2409986  12.7179992  30.4239978 -10.3729986
  11.9909992  29.2049978 -10.8989986  12.5549062  29.5719812 -10.3480359
  11.5619992  28.7349978  -6.8219986  11.5239992  28.0889978  -6.1169986
  11.2399992  28.2679978  -7.5929986  11.5132679  28.5834276  -6.8297079
   3.9299992  28.3489978  -5.2289986   3.9719992  27.7239978  -4.5059986
   4.6329992  28.9729978  -5.0469986   4.0307345  28.3477873  -5.1054726
  15.2679992  31.6739978  -8.5209986  14.8269992  30.9539978  -8.0699986
  15.2549992  32.3949978  -7.8909986  15.2059215  31.6729291  -8.3741895
   4.8539992  32.7989978  -6.6939986   4.4839992  31.9969978  -7.0639986
   5.7949992  32.6309978  -6.6479986   4.9305984  32.6664638  -6.7384397
   1.4639992  26.4589978 -11.3019986   1.0159992  27.3049978 -11.3199986
   0.9029992  25.8799978 -11.8169986   1.3268546  26.4963993 -11.3741109
   2.1739992  28.6209978  -9.1759986   2.3879992  27.8509978  -8.6479986
   2.9119992  28.7109978  -9.7789986   2.3030200  28.5278587  -9.1852965
  12.3799992  36.7779978  -8.3089986  12.9989992  36.1019978  -8.5819986
  12.1709992  36.5599978  -7.3999986  12.4366056  36.6558869  -8.2236033
   9.9509992  31.1669978  -6.4159986  10.2549992  30.4809978  -7.0109986
  10.6729992  31.2859978  -5.7979986  10.0901240  31.0892314  -6.4139041
  18.6139992  22.7689978  -5.5559986  18.6639992  23.3789978  -4.8199986
  19.0399992  23.2299978  -6.2789986  18.6784108  22.9147709  -5.5529888
  13.0919992  25.5609978  -6.0889986  13.2349992  24.6149978  -6.0689986
  12.9859992  25.7679978  -7.0169986  13.0972403  25.4594797  -6.2117761
   6.2469992  23.6629978  -8.8159986   6.2899992  24.5229978  -9.2349986
   5.7889992  23.1109978  -9.4499986   6.1909871  23.7059245  -8.9589239
  13.9689992  23.7939978 -10.4149986  14.6159992  23.4649978  -9.7909986
  14.4789992  24.3109978 -11.0379986  14.1264351  23.8189067 -10.4138963
   2.8669992  26.0599978  -8.0539986   3.5209992  25.5099978  -7.6219986
   2.8909992  25.7859978  -8.9709986   2.9597199  25.9477167  -8.1188332
   8.0239992  27.6099978  -8.8389986   8.6399992  27.0829978  -8.3299986
   7.4369992  26.9699978  -9.2429986   8.0290154  27.4513954  -8.8239055
  19.0059992  24.2469978  -3.3199986  18.3169992  24.9049978  -3.4149986
  19.0209992  24.0489978  -2.3829986  18.9137756  24.3102603  -3.2064188
   5.0569992  22.5809978  -4.7419986   4.8379992  23.1109978  -5.5089986
   4.3889992  22.8069978  -4.0949986   4.9366975  22.6840967  -4.7594860
  12.4259992  32.0809978 -11.1979986  12.1309992  31.7579978 -12.0499986
  12.1019992  32.9809978 -11.1569986  12.3418460  32.1584464 -11.3090286
   7.6259992  30.2559978  -4.4549986   6.8859992  30.8549978  -4.3509986
   8.3399992  30.8099978  -4.7699986   7.6213500  30.4127829  -4.4833629
  15.7329992  23.0849978  -8.4349986  15.5179992  22.3189978  -7.9019986
  16.3889992  23.5569978  -7.9219986  15.7922673  23.0440728  -8.2928010
   4.6509992  24.4729978  -6.7899986   5.2649992  25.1059978  -6.4169986
   5.1629992  24.0009978  -7.4459986   4.8041962  24.4957249  -6.8277065
   6.0339992  32.2209978  -3.6679986   6.0279992  33.0999978  -4.0459986
   5.1799992  32.1369978  -3.2429986   5.9177925  32.3299535  -3.6623113
   2.1549992  31.8919978 -12.8859986   1.8829992  32.1209978 -13.7739986
   2.1999992  32.7289978 -12.4249986   2.1238097  32.0366163 -12.9453317
  15.7799992  33.5129978  -6.1729986  14.8379992  33.5719978  -6.0109986
  16.0559992  34.4189978  -6.3099986  15.6885865  33.6435288  -6.1693808
  16.0799992  21.7999978  -4.7559986  15.3439992  22.4099978  -4.7929986
  16.7639992  22.2149978  -5.2819986  16.0715367  21.9397551  -4.8321826
   9.0839992  19.8859978  -7.2899986   8.9659992  18.9379978  -7.3439986
   8.2289992  20.2189978  -7.0169986   8.9522805  19.8012202  -7.2604921
  14.0319992  35.2939978  -9.5479986  14.4569992  34.5869978 -10.0329986
  14.3489992  36.0959978  -9.9649986  14.1330266  35.3055190  -9.6707521
  15.1919992  33.1949978 -11.0389986  14.9339992  32.5049978 -11.6509986
  15.2629992  32.7519978 -10.1939986  15.1663050  33.0406814 -11.0084379
  16.8779992  31.7619978  -2.5619986  17.0169992  31.1699978  -3.3009986
  17.0449992  32.6349978  -2.9179986  16.9196193  31.7988896  -2.7113789
  11.3499992  28.7239978 -12.7889986  10.6389992  29.2589978 -13.1409986
  12.0409992  28.7789978 -13.4489986  11.3460751  28.8046777 -12.9264142
  11.4039992  27.1809978 -15.7509986  12.1049992  27.2039978 -15.0989986
  11.7059992  26.5529978 -16.4069986  11.5408202  27.0992212 -15.7504391
  18.7189992  28.1019978  -4.4959986  18.0669992  28.7959978  -4.4069986
  19.1849992  28.3119978  -5.3059986  18.6925937  28.2255019  -4.5932467
  14.7559992  28.9329978 -11.8379986  14.0239992  29.1619978 -11.2639986
  15.2029992  28.2199978 -11.3829986  14.7163963  28.8678729 -11.6980055
  14.6529992  27.1079978  -2.7699986  14.7329992  27.8709978  -2.1979986
  14.0519992  27.3869978  -3.4599986  14.5826547  27.2502457  -2.7849953
   6.4009992  29.5639978  -9.9549986   6.0709992  29.1929978 -10.7729986
   6.9899992  28.8929978  -9.6079986   6.4353970  29.4226063 -10.0200596
   7.7679992  32.9919978  -7.2739986   7.6729992  32.4129978  -8.0299986
   8.4969992  32.6209978  -6.7779986   7.8536011  32.8625561  -7.3103972
   6.7679992  28.3319978  -6.3219986   7.3329992  28.4539978  -7.0839986
   7.0869992  28.9699978  -5.6829986   6.8884166  28.4348791  -6.3399652
  13.0769992  33.8359978  -5.5879986  12.8369992  34.4979978  -4.9399986
  12.8789992  33.0009978  -5.1629986  13.0173826  33.8138115  -5.4418434
   7.6479992  32.7319978  -1.6039986   7.3369992  33.5139978  -1.1489986
   6.9979992  32.5789978  -2.2899986   7.5175538  32.8184087  -1.6344102
  13.6269992  28.0959978 -14.1519986  14.2059992  28.2459978 -13.4059986
  14.0409992  28.5659978 -14.8759986  13.7623358  28.1800954 -14.1476047
   4.5679992  28.9299978  -2.3759986   4.6379992  29.5809978  -1.6769986
   3.6769992  29.0329978  -2.7109986   4.4571690  29.0329249  -2.3256957
  11.3529992  34.8319978 -10.7169986  11.8269992  35.1279978  -9.9399986
  10.7899992  35.5709978 -10.9499986  11.3417890  34.9723036 -10.6421899
   5.8869992  34.8029978  -0.8409986   5.8949992  34.6669978  -1.7879986
   4.9709992  34.6859978  -0.5889986   5.7642528  34.7685463  -0.9366757
  17.3259992  19.8459978 -14.3389986  16.4259992  19.9849978 -14.0439986
  17.5779992  20.6769978 -14.7409986  17.2368683  19.9774055 -14.3529768
   5.3919992  28.6329978 -12.3659986   5.0999992  29.4009978 -12.8569986
   4.7169992  27.9739978 -12.5289986   5.2608497  28.6489745 -12.4551740
  18.5149992  34.2119978 -15.9629986  18.5879992  35.1509978 -15.7929986
  19.4199992  33.9069978 -16.0189986  18.6474170  34.2993282 -15.9472937
   1.4849992  30.9959978  -3.5509986   0.9829992  30.9679978  -4.3659986
   1.4899992  30.0909978  -3.2409986   1.4169832  30.8697486  -3.6205879
   1.2349992  33.7769978  -6.6669986   2.1809992  33.6319978  -6.6859986
   1.1219992  34.5609978  -6.1299986   1.3493578  33.8631697  -6.5969683
  19.4329992  34.4429978  -0.9839986  19.3829992  33.4869978  -1.0219986
  18.6059992  34.7099978  -0.5829986  19.3143831  34.3484680  -0.9349879
  10.4109992  34.0169978  -2.1079986  10.4989992  34.8429978  -1.6329986
   9.5479992  33.6869978  -1.8589986  10.3063357  34.0855468  -2.0092347
  10.8259992  37.7889978 -12.3019986  10.7499992  37.6679978 -13.2489986
  10.8579992  38.7379978 -12.1839986  10.8199380  37.9007677 -12.4154819
   4.4789992  36.5779978 -10.5209986   4.6309992  36.2299978  -9.6429986
   3.6279992  36.2209978 -10.7769986   4.3848344  36.4820879 -10.4353132
  13.9269992  36.9429978 -15.2999986  14.3019992  36.1989978 -15.7709986
  13.9319992  36.6729978 -14.3819986  13.9790098  36.8046392 -15.2403371
  13.5959992  36.8689978 -12.5509986  12.6609992  36.9689978 -12.3719986
  13.8759992  36.1589978 -11.9719986  13.5059471  36.7867933 -12.4483305
  16.5849992  25.9359978  -0.5039986  16.1769992  26.4159978  -1.2249986
  16.6249992  25.0299978  -0.8119986  16.5346221  25.8792449  -0.6441733
   3.7339992  32.3199978  -2.5079986   3.9499992  31.9579978  -1.6479986
   2.8779992  31.9449978  -2.7169986   3.6478810  32.2198837  -2.4187320
   6.3519992  20.7899978  -6.5119986   5.4909992  20.7029978  -6.9199986
   6.3299992  21.6459978  -6.0839986   6.2310491  20.8938003  -6.5100418
  11.0149992  20.5119978  -3.1369986  11.4349992  20.0969978  -2.3839986
  10.0819992  20.3329978  -3.0199986  10.9463736  20.4309910  -3.0181032
  14.3419992  24.2669978  -2.2839986  13.8279992  24.1419978  -1.4859986
  14.1859992  25.1799978  -2.5279986  14.2506967  24.3732123  -2.2079063
  15.1039992  29.1279978 -16.5229986  15.1459992  28.9059978 -17.4529986
  15.9529992  29.5269978 -16.3329986  15.2245253  29.1515498 -16.6246178
  10.6769992  23.0039978 -15.8519986  10.4229992  23.0229978 -14.9299986
  10.4199992  22.1329978 -16.1539986  10.6074508  22.8888280 -15.7665197
   6.4429992  25.7549978  -5.4169986   5.8019992  25.7149978  -4.7079986
   6.4809992  26.6819978  -5.6549986   6.3603010  25.8747668  -5.3520054
   6.4399992  25.9759978 -10.5049986   5.5479992  25.6359978 -10.5639986
   6.8909992  25.5989978 -11.2609986   6.3787642  25.8784910 -10.6152274
  11.9759992  26.3919978 -11.6879986  11.5669992  27.2069978 -11.9799986
  12.6959992  26.2519978 -12.3019986  12.0174439  26.4845372 -11.8109885
  11.0779992  26.5679978  -0.1999986  10.5149992  25.8629978   0.1210014
  11.9039992  26.4469978   0.2680014  11.1126674  26.4552165  -0.0928249
  12.9809992  25.8379978  -8.8739986  12.7849992  26.4439978  -9.5889986
  13.1619992  25.0049978  -9.3079986  12.9786584  25.8082513  -9.0305788
   4.1929992  26.0759978  -3.5499986   4.1549992  26.4759978  -2.6809986
   3.7029992  25.2589978  -3.4599986   4.1215330  26.0202674  -3.4188711
   7.5589992  23.4499978 -16.7509986   7.1279992  23.0049978 -16.0219986
   6.8409992  23.8209978 -17.2639986   7.4029176  23.4392051 -16.7205070
   0.8019992  23.1919978  -9.6989986   1.4319992  23.1629978  -8.9799986
   1.2509992  22.7669978 -10.4299986   0.9490835  23.1305660  -9.6992341
   2.0759992  23.9379978 -14.2749986   2.5499992  24.5289978 -14.8599986
   1.3579992  24.4679978 -13.9279986   2.0438640  24.0905511 -14.3082031
  12.2449992  27.4759978  -4.2029986  12.5679992  26.8449978  -4.8459986
  11.8039992  26.9419978  -3.5419986  12.2296379  27.3173468  -4.2017418
   9.0219992  23.4039978  -9.4189986   8.1109992  23.4609978  -9.1299986
   9.5269992  23.3439978  -8.6079986   8.9656873  23.4036826  -9.2698793
   3.8499992  25.0329978 -10.5919986   2.9609992  25.1319978 -10.9319986
   4.1469992  24.1909978 -10.9379986   3.7684177  24.9327687 -10.6853060
   7.5029992  25.0329978 -12.9349986   8.4349992  25.1619978 -12.7569986
   7.2879992  25.7019978 -13.5849986   7.6014472  25.1410806 -12.9985109
  13.4269992  22.6389978  -6.1539986  12.7499992  22.7699978  -5.4909986
  12.9419992  22.4839978  -6.9649986  13.2687405  22.6359947  -6.1727830
   6.1769992  26.2269978 -15.3689986   5.6349992  25.8479978 -16.0599986
   7.0109992  26.4219978 -15.7969986   6.2154390  26.2014079 -15.5215608
  16.7149992  38.3099978   0.1220014  16.9139992  38.7339978  -0.7119986
  17.3699992  38.6539978   0.7290014  16.8308522  38.4146301   0.0897852
   4.3129992  30.7839978  -0.2699986   5.0449992  31.0389978   0.2920014
   3.5319992  30.9889978   0.2460014   4.3076526  30.8465450  -0.1234824
  10.3419992  26.1909978  -7.5319986  10.9059992  25.6449978  -8.0789986
  10.1939992  25.6699978  -6.7429986  10.3993037  26.0456787  -7.5002771
   5.3439992  22.3279978 -11.1129986   5.0269992  21.4249978 -11.1489986
   6.1249992  22.3299978 -11.6659986   5.4062431  22.2047797 -11.1926898
   8.9679992  24.5799978  -5.1179986   8.1329992  25.0339978  -5.0069986
   9.4919992  24.8559978  -4.3659986   8.9246072  24.6793948  -5.0011864
   9.5129992  30.7929978 -13.4329986   8.7679992  30.2849978 -13.7549986
   9.3779992  30.8419978 -12.4869986   9.3928963  30.7301731 -13.3491174
  16.6629992  29.9259978  -4.6459986  17.3039992  30.3819978  -5.1899986
  15.8319992  30.0389978  -5.1089986  16.6385287  30.0036921  -4.7830113
  13.4099992  23.6069978 -15.2339986  12.4719992  23.7179978 -15.3849986
  13.7079992  24.4629978 -14.9269986  13.3216318  23.7380158 -15.2131855
  11.0319992  30.9769978  -2.1959986  10.6859992  30.5949978  -1.3889986
  10.8319992  31.9099978  -2.1249986  10.9575987  31.0509002  -2.0759539
  14.1289992  25.4739978 -13.5729986  15.0209992  25.3359978 -13.2539986
  14.1849992  26.2649978 -14.1099986  14.2587325  25.5619918 -13.6018783
   4.6369992  30.0879978  -7.6629986   5.3819992  30.0849978  -8.2649986
   4.7149992  29.2639978  -7.1819986   4.7493365  29.9762384  -7.6802570
  11.6379992  32.2509978 -14.4079986  11.3429992  33.0779978 -14.0259986
  10.9349992  31.6319978 -14.2109986  11.5026379  32.2804171 -14.3291346
   1.6449992  28.5479978  -2.3479986   1.8679992  28.1299978  -1.5169986
   1.0429992  27.9359978  -2.7709986   1.5941513  28.4079606  -2.2913260
   8.6619992  28.0649978  -0.1349986   8.3659992  27.8999978  -1.0309986
   9.5929992  27.8449978  -0.1459986   8.7474401  28.0126879  -0.2589794
  13.2819992  33.4389978  -2.2459986  12.3819992  33.6219978  -2.5129986
  13.3159992  33.6979978  -1.3249986  13.1633748  33.4990554  -2.1580836
  19.0139992  25.6829978 -13.8779986  18.4589992  25.2869978 -14.5509986
  19.1139992  26.5939978 -14.1559986  18.9516816  25.7519505 -14.0074967
  18.9769992  31.4839978  -1.0409986  18.1259992  31.7219978  -1.4089986
  19.5669992  31.4669978  -1.7939986  18.9403812  31.5142524  -1.1931547
  17.3089992  34.4689978 -13.4129986  16.9359992  33.6439978 -13.1039986
  17.5859992  34.2859978 -14.3109986  17.2953463  34.3312569 -13.4920475
  14.4689992  29.2769978  -6.3919986  13.5409992  29.0459978  -6.4189986
  14.9199992  28.4999978  -6.7219986  14.4028165  29.1402774  -6.4403210
   7.0119992  33.6059978 -10.2589986   7.5399992  34.3789978 -10.4589986
   6.1319992  33.8299978 -10.5609986   6.9653435  33.7422700 -10.3272690
   2.7669992  28.4679978 -15.6719986   3.3829992  29.0949978 -15.2919986
   1.9049992  28.7839978 -15.3999986   2.7347678  28.5964412 -15.5832791
   8.4399992  31.2689978 -10.6829986   8.1989992  32.1939978 -10.6409986
   7.6989992  30.8099978 -10.2859986   8.3069206  31.3335915 -10.6236231
   8.9539992  35.4179978  -4.3679986   9.3169992  36.2719978  -4.6009986
   9.4859992  35.1259978  -3.6269986   9.0755141  35.4953895  -4.2997903
   7.1229992  36.2899978 -11.1369986   6.1729992  36.3959978 -11.0859986
   7.4749992  37.1109978 -10.7929986   7.0405472  36.4154923 -11.0835148
  12.4979992  31.5169978  -4.6669986  12.0729992  31.2889978  -3.8409986
  13.0789992  30.7779978  -4.8489986  12.5183395  31.3859545  -4.5785586
  14.7009992  32.4459978 -15.5929986  15.0549992  32.0659978 -14.7889986
  13.7529992  32.3519978 -15.5059986  14.6212298  32.3812452 -15.4711313
  15.1569992  36.0689978  -2.1979986  14.5549992  35.5129978  -2.6929986
  15.4379992  36.7359978  -2.8239986  15.1125757  36.0830744  -2.3504325
  19.2049992  36.9249978 -15.3919986  19.9489992  37.5109978 -15.5319986
  18.5109992  37.4939978 -15.0589986  19.2129809  37.0820818 -15.3661410
   3.2789992  23.3019978  -2.7899986   2.3869992  23.6399978  -2.8579986
   3.1809992  22.4459978  -2.3719986   3.1434475  23.2326543  -2.7428296
  15.5669992  31.1179978 -13.3659986  15.2899992  30.3899978 -12.8099986
  16.4949992  31.2369978 -13.1609986  15.6544499  31.0344213 -13.2621956
   2.9309992  35.1059978  -4.3549986   3.1479992  34.1739978  -4.3859986
   3.1769992  35.3809978  -3.4719986   2.9939809  35.0155686  -4.2398309
   7.7289992  33.1279978 -14.6899986   7.8759992  32.6079978 -13.8999986
   7.7259992  34.0349978 -14.3829986   7.7487102  33.1793953 -14.5404075
   4.1819992  30.3799978 -14.1789986   3.4959992  30.7329978 -13.6119986
   4.7049992  31.1429978 -14.4259986   4.1588402  30.5313901 -14.1348199
  12.0139992  23.0429978  -3.8999986  12.7129992  23.1169978  -3.2499986
  11.6329992  22.1779978  -3.7459986  12.0582097  22.9362389  -3.7902003
  12.7979992  22.6949978 -12.8029986  13.0179992  23.1659978 -13.6069986
  13.3569992  23.0889978 -12.1329986  12.9036731  22.8127287 -12.8224967
  10.4669992  34.8249978 -13.9399986   9.6499992  35.3219978 -13.8879986
  10.9959992  35.3009978 -14.5809986  10.4268125  34.9571989 -14.0194694
   9.9979992  24.4229978 -11.9679986  10.8099992  24.9269978 -11.9219986
   9.7539992  24.2779978 -11.0539986  10.0761467  24.4723749 -11.8381425
  10.5339992  25.4089978  -2.7839986  10.6529992  25.9829978  -2.0269986
  11.1889992  24.7209978  -2.6689986  10.6388684  25.3945194  -2.6648326
  10.8819992  21.5039978 -11.0299986  10.5349992  22.1209978 -10.3859986
  11.5409992  22.0049978 -11.5119986  10.9235090  21.6561575 -11.0069319
   7.8049992  35.8689978 -13.9589986   7.9659992  36.6689978 -14.4589986
   7.6079992  36.1759978 -13.0739986   7.8003906  36.0198678 -13.9077667
   6.5399992  22.5669978 -14.3429986   6.4559992  23.4549978 -13.9959986
   7.4299992  22.3019978 -14.1109986   6.6488163  22.6527179 -14.2641404
  16.7379992  23.3159978  -1.9489986  15.8219992  23.5779978  -2.0359986
  17.0739992  23.3129978  -2.8449986  16.6578499  23.3515163  -2.0821234
  15.3409992  27.0659978  -7.8529986  14.5429992  26.6509978  -8.1809986
  15.7859992  26.3759978  -7.3619986  15.2919684  26.9158628  -7.8314773
   4.7979992  32.9939978 -15.2829986   5.3899992  33.6939978 -15.0059986
   5.2569992  32.5609978 -16.0019986   4.9411652  33.0312675 -15.3423467
   3.1139992  25.6589978 -16.1669986   3.0689992  26.5979978 -15.9879986
   2.2259992  25.4229978 -16.4359986   2.9878166  25.7556687 -16.1788476
  16.4269992  36.3219978  -6.2309986  16.2709992  37.0009978  -6.8879986
  17.3599992  36.3939978  -6.0279986  16.5317387  36.4246390  -6.2934658
   3.9219992  20.4399978  -7.4929986   3.6929992  20.4989978  -8.4209986
   3.4799992  19.6489978  -7.1869986   3.8308801  20.3410540  -7.5785271
   2.8529992  34.3809978 -11.3329986   2.0199992  34.8529978 -11.3059986
   3.3979992  34.8909978 -11.9319986   2.8127857  34.5144791 -11.4102858
   2.1409992  36.9929978  -0.0029986   2.6809992  36.7769978   0.7570014
   1.6599992  36.1879978  -0.1929986   2.1499219  36.8545156   0.0754282
   6.7379992  35.9129978   1.6170014   7.5059992  35.4539978   1.9580014
   6.7169992  35.6869978   0.6870014   6.8402135  35.8196668   1.5379491
  10.8299992  35.4209978 -17.0069986  10.1859992  34.7899978 -16.6859986
  11.5919992  34.8899978 -17.2389986  10.8448058  35.2627902 -16.9943962
  13.3149992  34.2929978   0.3460014  12.9639992  33.4359978   0.5900014
  14.0409992  34.4349978   0.9530014  13.3651895  34.1951351   0.4613770
  15.4349992  35.2379978 -16.7739986  15.7179992  34.4429978 -16.3209986
  16.1739992  35.4709978 -17.3349986  15.5737096  35.1607049 -16.7878896
   2.0479992  30.8039978   0.9510014   2.1919992  29.9019978   0.6650014
   1.2759992  31.0899978   0.4640014   1.9632733  30.7191798   0.8459532
   6.3889992  31.1469978 -16.9159986   6.4539992  30.3529978 -16.3859986
   7.0419992  31.0289978 -17.6059986   6.4861605  31.0223430 -16.9367003
   8.7029992  30.7729978   0.3840014   8.3749992  31.0439978  -0.4729986
   8.8549992  29.8319978   0.2960014   8.6786412  30.6829046   0.2547822
  14.4379992  30.6889978  -2.2329986  15.1829992  31.2779978  -2.3519986
  13.6809992  31.2709978  -2.1689986  14.4375470  30.8482128  -2.2406201
   2.8809992  28.0039978   0.3710014   3.2889992  27.1469978   0.2500014
   2.6199992  28.0179978   1.2920014   2.9016016  27.8885119   0.4789192
   7.5389992  29.1199978 -14.6099986   7.0789992  28.6359978 -13.9249986
   7.7939992  28.4509978 -15.2459986   7.5104856  28.9633669 -14.6021603
   6.8279992  27.0129978  -2.2539986   6.2089992  27.6869978  -1.9739986
   7.1719992  27.3339978  -3.0879986   6.7897123  27.1486887  -2.3283612
   8.6099992  27.3629978 -16.3479986   8.4289992  27.2079978 -17.2749986
   9.5599992  27.4709978 -16.3029986   8.7136566  27.3563669 -16.4689071
  11.8469992  29.4839978   1.0230014  12.8009992  29.5679978   0.9960014
  11.6869992  28.7719978   1.6430014  11.9557182  29.3992842   1.1030733
  17.9999992  29.7169978 -16.9019986  17.7259992  29.2929978 -17.7149986
  18.0389992  30.6489978 -17.1189986  17.9677716  29.7848827 -17.0425714
   7.1669992  24.3679978  -1.1719986   7.3169992  23.6389978  -1.7739986
   7.1689992  25.1449978  -1.7309986   7.1877967  24.3732708  -1.3299459
   7.5799992  22.7369978  -3.6789986   8.1149992  23.1889978  -4.3309986
   6.7269992  22.6289978  -4.1019986   7.5380374  22.7842665  -3.8253290
   9.1609992  28.1769978  -3.4399986   9.9119992  28.0209978  -4.0129986
   8.8219992  29.0289978  -3.7149986   9.2179587  28.2708138  -3.5555922
  13.5769992  25.9919978   1.5890014  13.7689992  25.0609978   1.4770014
  14.4349992  26.4169978   1.5780014  13.7192182  25.9220070   1.5721862
  14.8939992  28.7809978  -0.3339986  14.6119992  29.4899978  -0.9119986
  15.8359992  28.7079978  -0.4849986  14.9827921  28.8682193  -0.4335775
   5.6459992  25.5659978   0.7390014   4.8779992  25.0329978   0.5290014
   6.3239992  25.2559978   0.1400014   5.6327235  25.4511754   0.6292413
   8.3849992  20.1939978  -3.2479986   8.2869992  21.1399978  -3.3529986
   7.6429992  19.8209978  -3.7239986   8.2712534  20.2731773  -3.3267400
   9.6489992  24.5149978   0.3160014   9.4139992  24.2959978   1.2170014
   8.8659992  24.3079978  -0.1939986   9.5109095  24.4569892   0.3705353
  12.3649992  23.6429978  -0.6089986  11.4169992  23.6749978  -0.4769986
  12.6769992  23.0169978   0.0450014  12.2775293  23.5627923  -0.5025852
  13.9989992  22.2769978   1.3960014  13.9019992  21.3249978   1.3910014
  13.6769992  22.5449978   2.2570014  13.9422468  22.1830884   1.5116210
   3.8259992  23.4859978   0.4440014   4.0379992  22.7799978  -0.1659986
   3.7149992  23.0489978   1.2880014   3.8400269  23.3301921   0.4745873
   8.6069992  19.4879978  -0.5769986   9.3189992  18.8479978  -0.5909986
   8.5059992  19.7539978  -1.4899986   8.6907387  19.4364330  -0.7024437
   8.9609992  21.1699978   1.4770014   8.8289992  20.6949978   0.6570014
   8.3609992  21.9149978   1.4220014   8.8619070  21.2055789   1.3573251
   8.5069992  38.0529978 -15.3469986   9.4399992  38.2109978 -15.2029986
   8.2429992  38.7289978 -15.9719986   8.5989911  38.1659373 -15.4117278
   2.0749992  32.6899978 -15.8639986   2.9889992  32.7689978 -15.5909986
   2.0829992  32.0029978 -16.5299986   2.2010655  32.6079205 -15.9167083
   0.7239992  38.0829978 -10.7869986   0.0769992  37.6209978 -11.3189986
   1.0789992  37.4109978 -10.2039986   0.6833741  37.9289774 -10.7810825
   1.5939992  36.1629978  -8.9819986   1.2599992  35.2829978  -8.8099986
   1.8169992  36.5089978  -8.1169986   1.5783721  36.0891938  -8.8415832
  19.1429992  36.9729978  -6.0009986  19.1209992  37.1579978  -5.0619986
  19.8329992  37.5409978  -6.3419986  19.2333439  37.0751887  -5.9185209
  18.7059992  36.5399978  -3.0799986  18.2189992  35.8049978  -3.4509986
  19.2549992  36.1459978  -2.4019986  18.7135247  36.3861057  -3.0391539
  17.1569992  32.3299978   1.5590014  16.2909992  32.2249978   1.9530014
  17.5329992  33.0879978   2.0050014  17.0893401  32.4181708   1.6732620
  18.4579992  30.5859978 -12.9269986  19.3079992  31.0069978 -12.7999986
  18.4629992  29.8459978 -12.3199986  18.5751143  30.5436094 -12.8275250
  18.8519992  28.6399978 -11.1039986  18.1259992  28.1599978 -10.7059986
  19.4339992  28.8449978 -10.3709986  18.8312730  28.6020184 -10.9505851
  18.6109992  31.4249978  -6.1559986  19.4449992  31.0469978  -6.4369986
  18.7229992  32.3679978  -6.2749986  18.7401917  31.5007943  -6.2105139
  17.0979992  34.3029978  -3.8489986  16.4499992  34.6279978  -3.2239986
  16.5799992  33.8619978  -4.5229986  16.9394196  34.2878651  -3.8545848
  19.1209992  28.5409978 -14.7129986  18.5989992  28.8969978 -15.4309986
  19.0879992  29.2159978 -14.0339986  19.0450129  28.6809598 -14.7196645
  17.4699992  25.7799978 -16.1619986  17.5659992  26.4469978 -16.8419986
  17.3299992  24.9649978 -16.6429986  17.4642040  25.7610671 -16.3201622
  16.6389992  27.1609978 -10.5409986  16.4889992  26.2159978 -10.5609986
  16.2849992  27.4419978  -9.6969986  16.5706351  27.0696644 -10.4296780
   1.6739992  29.2389978  -6.5299986   1.8589992  29.1569978  -7.4659986
   2.5239992  29.1149978  -6.1069986   1.8140928  29.2110463  -6.6007107
  17.4949992  29.1309978  -0.9019986  18.0779992  28.3959978  -0.7099986
  18.0589992  29.9029978  -0.8549986  17.6509781  29.1348145  -0.8693836
  18.9919992  27.0339978  -0.2169986  18.1289992  26.6549978  -0.3829986
  19.5959992  26.2949978  -0.2919986  18.9556085  26.8823223  -0.2498305
  16.7169992  23.1879978 -17.0439986  17.3279992  22.8169978 -16.4069986
  15.8799992  22.7669978 -16.8479986  16.6874947  23.0802756 -16.9302748
  16.3499992  24.7429978 -12.0779986  16.6289992  23.8359978 -11.9539986
  17.1089992  25.1769978 -12.4669986  16.4908619  24.6774502 -12.1136205
  16.9609992  25.3249978  -6.6419986  17.8939992  25.5369978  -6.6769986
  16.7259992  25.4259978  -5.7199986  17.0569517  25.3676833  -6.5220870
  16.9909992  26.0619978  -3.8659986  16.1479992  26.3299978  -3.4999986
  17.4329992  26.8839978  -4.0769986  16.9354138  26.2098273  -3.8444482
   1.2719992  24.5089978  -0.3899986   2.1909992  24.3869978  -0.1529986
   0.8219992  23.7589978   0.0000014   1.3370087  24.3909608  -0.3048590
  19.2739992  20.0419978   1.4870014  19.6229992  19.3879978   0.8820014
  19.4209992  20.8789978   1.0470014  19.3416824  20.0656024   1.3446304
  16.9629992  22.0059978 -12.0299986  17.1449992  21.5569978 -11.2049986
  16.3629992  21.4219978 -12.4939986  16.9068187  21.8655552 -11.9797261
   2.4929992  22.8219978  -7.4979986   2.9379992  22.0299978  -7.1959986
   2.9589992  23.5379978  -7.0679986   2.6169718  22.8104534  -7.3984735
   0.7969992  25.8209978  -6.4289986   1.2889992  25.5999978  -7.2199986
   1.1589992  26.6609978  -6.1479986   0.9132923  25.9043468  -6.4992593
  18.7929992  22.1509978  -0.1639986  17.8759992  22.4219978  -0.1989986
  18.9159992  21.6159978  -0.9479986  18.6839672  22.1157885  -0.2748138
  18.8299992  22.0739978 -15.5019986  19.2419992  21.3529978 -15.9769986
  19.5109992  22.7429978 -15.4439986  18.9785536  22.0657766 -15.5591976
   1.1109992  22.0789978 -12.3749986   0.1859992  22.2869978 -12.5039986
   1.5649992  22.5629978 -13.0649986   1.0456298  22.1729299 -12.4859549
  15.8809992  37.0629978 -10.4289986  16.5339992  36.7149978 -11.0369986
  16.3919992  37.5509978  -9.7829986  16.0392777  37.0813815 -10.4247953
   1.0739992  20.8169978  -4.0309986   0.4089992  20.5709978  -3.3879986
   0.6309992  21.4389978  -4.6079986   0.9231168  20.8674214  -4.0210152
   3.2659992  33.9919978   0.1140014   2.4449992  34.1669978  -0.3469986
   3.0139992  33.9189978   1.0340014   3.1195594  34.0060717   0.1753611
   6.2199992  34.9659978  -3.6279986   5.7959992  35.7759978  -3.9099986
   7.1249992  35.0519978  -3.9299986   6.2842138  35.0884160  -3.7073585
  10.5319992  36.3649978  -0.6679986  10.7159992  36.0319978   0.2100014
  11.3779992  36.6749978  -0.9899986  10.6716484  36.3612979  -0.5912383
  12.8769992  37.6509978  -1.4239986  13.5539992  37.0179978  -1.6639986
  13.1979992  38.0519978  -0.6169986  13.0131323  37.6185691  -1.3476842
  17.7939992  20.2409978  -2.3449986  16.9809992  20.5659978  -2.7319986
  18.0269992  19.4799978  -2.8779986  17.7141347  20.1826880  -2.4700159
   3.6219992  38.2229978  -3.5799986   2.9019992  38.6629978  -4.0309986
   3.2569992  37.9719978  -2.7319986   3.4739643  38.2493369  -3.5270871
   6.0889992  37.8229978  -4.5499986   5.2249992  37.8949978  -4.1459986
   6.0339992  38.3699978  -5.3339986   5.9631942  37.9067849  -4.6006000
  10.7999992  37.7109978  -5.3749986  10.3429992  38.2399978  -6.0289986
  10.9629992  38.3139978  -4.6499986  10.7594960  37.8649280  -5.3664726
  13.1279992  36.5889978  -4.4299986  12.2229992  36.7539978  -4.6959986
  13.5559992  37.4419978  -4.4959986  13.0621537  36.7269134  -4.4752905
  15.7319992  38.1589978  -4.1349986  15.5499992  39.0749978  -4.3459986
  15.9089992  37.7479978  -4.9819986  15.7310030  38.2288273  -4.2782834
   3.0369992  36.8459978  -6.6699986   3.0189992  36.4199978  -5.8129986
   3.8419992  36.5269978  -7.0789986   3.1432875  36.7446435  -6.6080485
   5.1779992  35.5559978  -8.0149986   4.9589992  34.6389978  -7.8449986
   6.0019992  35.6959978  -7.5489986   5.2594702  35.4495511  -7.9287473
   7.7149992  36.0259978  -7.1659986   7.9279992  35.1379978  -7.4529986
   7.7799992  35.9909978  -6.2119986   7.7529149  35.8998326  -7.0762631
  11.2239992  21.6899978  -8.0219986  10.5499992  21.0599978  -7.7659986
  11.7879992  21.2059978  -8.6249986  11.2080384  21.5383708  -8.0684980
  16.3669992  19.7969978  -7.9089986  16.9699992  20.3449978  -8.4109986
  15.4969992  20.1159978  -8.1499986  16.3319157  19.9150373  -8.0102090
  18.0939992  20.9359978  -9.5759986  18.7049992  20.4219978 -10.1029986
  18.4759992  21.8129978  -9.5529986  18.2293305  20.9842050  -9.6450582
   3.5509992  20.3239978 -10.1999986   2.7739992  20.0889978 -10.7069986
   4.0809992  19.5269978 -10.1909986   3.5163451  20.1841268 -10.2681373
   2.3869992  20.1219978 -14.3959986   2.8259992  20.7329978 -14.9879986
   1.7529992  20.6599978 -13.9219986   2.3613859  20.2784064 -14.4129695
   8.1299992  20.2499978 -10.3869986   9.0039992  20.6389978 -10.4159986
   7.9939992  20.0349978  -9.4639986   8.2311953  20.2741643 -10.2662383
  13.6869992  20.2799978  -8.7369986  13.7629992  20.3759978  -9.6869986
  13.4119992  19.3729978  -8.6089986  13.6601871  20.1704146  -8.8496056
  15.0399992  20.3059978 -13.0449986  14.3369992  20.9209978 -13.2549986
  14.5949992  19.4689978 -12.9139986  14.8836550  20.2769668 -13.0560163
   2.2879992  36.0699978 -13.4989986   1.6029992  36.0319978 -14.1659986
   2.2919992  36.9829978 -13.2109986   2.1947621  36.1881924 -13.5513874
   4.2479992  22.0379978 -15.9539986   4.7389992  21.4079978 -16.4809986
   4.8709992  22.3339978 -15.2909986   4.3995304  21.9917376 -15.9365060
   9.2739992  22.3309978 -13.4969986   9.4519992  21.6839978 -12.8139986
   9.2199992  23.1649978 -13.0299986   9.2910678  22.3551604 -13.3403699
  11.1519992  37.2789978 -15.1009986  12.0179992  37.6459978 -15.2789986
  10.9059992  36.8399978 -15.9149986  11.2372097  37.2698525 -15.2353981
  17.8609992  36.8419978 -12.4219986  17.6669992  36.0939978 -12.9869986
  17.8219992  37.5999978 -13.0049986  17.8291645  36.8420786 -12.5781852
   3.5079992  20.8379978  -0.6819986   3.1419992  20.0719978  -0.2399986
   4.4209992  20.8669978  -0.3959986   3.5813172  20.7370324  -0.5828110
   5.4809992  20.1879978   0.8530014   6.3799992  19.9139978   0.6690014
   5.0949992  19.4459978   1.3180014   5.5517307  20.0502196   0.8907098
   4.1059992  36.9899978 -16.4739986   3.8379992  37.2759978 -15.5999986
   4.8769992  36.4439978 -16.3209986   4.1735926  36.9552779 -16.3338795
  13.9029992  19.5209978   1.0360014  13.9789992  19.0949978   1.8890014
  14.7959992  19.5339978   0.6930014  14.0342303  19.4643493   1.1065497
  17.0789992  35.5939978  -0.2719986  16.2969992  35.4069978  -0.7919986
  17.0069992  36.5229978  -0.0549986  16.9621924  35.6940637  -0.3138398
  31.4849992  29.4799978 -10.2409986  31.5739992  30.4239978 -10.3729986
  30.8469992  29.2049978 -10.8989986  31.4109062  29.5719812 -10.3480359
  30.4179992  28.7349978  -6.8219986  30.3799992  28.0889978  -6.1169986
  30.0959992  28.2679978  -7.5929986  30.3692679  28.5834276  -6.8297079
  22.7859992  28.3489978  -5.2289986  22.8279992  27.7239978  -4.5059986
  23.4889992  28.9729978  -5.0469986  22.8867345  28.3477873  -5.1054726
  34.1239992  31.6739978  -8.5209986  33.6829992  30.9539978  -8.0699986
  34.1109992  32.3949978  -7.8909986  34.0619215  31.6729291  -8.3741895
  23.7099992  32.7989978  -6.6939986  23.3399992  31.9969978  -7.0639986
  24.6509992  32.6309978  -6.6479986  23.7865984  32.6664638  -6.7384397
  20.3199992  26.4589978 -11.3019986  19.8719992  27.3049978 -11.3199986
  19.7589992  25.8799978 -11.8169986  20.1828546  26.4963993 -11.3741109
  21.0299992  28.6209978  -9.1759986  21.2439992  27.8509978  -8.6479986
  21.7679992  28.7109978  -9.7789986  21.1590200  28.5278587  -9.1852965
  31.2359992  36.7779978  -8.3089986  31.8549992  36.1019978  -8.5819986
  31.0269992  36.5599978  -7.3999986  31.2926056  36.6558869  -8.2236033
  28.8069992  31.1669978  -6.4159986  29.1109992  30.4809978  -7.0109986
  29.5289992  31.2859978  -5.7979986  28.9461240  31.0892314  -6.4139041
  37.4699992  22.7689978  -5.5559986  37.5199992  23.3789978  -4.8199986
  37.8959992  23.2299978  -6.2789986  37.5344108  22.9147709  -5.5529888
  31.9479992  25.5609978  -6.0889986  32.0909992  24.6149978  -6.0689986
  31.8419992  25.7679978  -7.0169986  31.9532403  25.4594797  -6.2117761
  25.1029992  23.6629978  -8.8159986  25.1459992  24.5229978  -9.2349986
  24.6449992  23.1109978  -9.4499986  25.0469871  23.7059245  -8.9589239
  32.8249992  23.7939978 -10.4149986  33.4719992  23.4649978  -9.7909986
  33.3349992  24.3109978 -11.0379986  32.9824351  23.8189067 -10.4138963
  21.7229992  26.0599978  -8.0539986  22.3769992  25.5099978  -7.6219986
  21.7469992  25.7859978  -8.9709986  21.8157199  25.9477167  -8.1188332
  26.8799992  27.6099978  -8.8389986  27.4959992  27.0829978  -8.3299986
  26.2929992  26.9699978  -9.2429986  26.8850154  27.4513954  -8.8239055
  37.8619992  24.2469978  -3.3199986  37.1729992  24.9049978  -3.4149986
  37.8769992  24.0489978  -2.3829986  37.7697756  24.3102603  -3.2064188
  23.9129992  22.5809978  -4.7419986  23.6939992  23.1109978  -5.5089986
  23.2449992  22.8069978  -4.0949986  23.7926975  22.6840967  -4.7594860
  31.2819992  32.0809978 -11.1979986  30.9869992  31.7579978 -12.0499986
  30.9579992  32.9809978 -11.1569986  31.1978460  32.1584464 -11.3090286
  26.4819992  30.2559978  -4.4549986  25.7419992  30.8549978  -4.3509986
  27.1959992  30.8099978  -4.7699986  26.4773500  30.4127829  -4.4833629
  34.5889992  23.0849978  -8.4349986  34.3739992  22.3189978  -7.9019986
  35.2449992  23.5569978  -7.9219986  34.6482673  23.0440728  -8.2928010
  23.5069992  24.4729978  -6.7899986  24.1209992  25.1059978  -6.4169986
  24.0189992  24.0009978  -7.4459986  23.6601962  24.4957249  -6.8277065
  24.8899992  32.2209978  -3.6679986  24.8839992  33.0999978  -4.0459986
  24.0359992  32.1369978  -3.2429986  24.7737925  32.3299535  -3.6623113
  21.0109992  31.8919978 -12.8859986  20.7389992  32.1209978 -13.7739986
  21.0559992  32.7289978 -12.4249986  20.9798097  32.0366163 -12.9453317
  34.6359992  33.5129978  -6.1729986  33.6939992  33.5719978  -6.0109986
  34.9119992  34.4189978  -6.3099986  34.5445865  33.6435288  -6.1693808
  34.9359992  21.7999978  -4.7559986  34.1999992  22.4099978  -4.7929986
  35.6199992  22.2149978  -5.2819986  34.9275367  21.9397551  -4.8321826
  27.9399992  19.8859978  -7.2899986  27.8219992  18.9379978  -7.3439986
  27.0849992  20.2189978  -7.0169986  27.8082805  19.8012202  -7.2604921
  32.8879992  35.2939978  -9.5479986  33.3129992  34.5869978 -10.0329986
  33.2049992  36.0959978  -9.9649986  32.9890266  35.3055190  -9.6707521
  34.0479992  33.1949978 -11.0389986  33.7899992  32.5049978 -11.6509986
  34.1189992  32.7519978 -10.1939986  34.0223050  33.0406814 -11.0084379
  35.7339992  31.7619978  -2.5619986  35.8729992  31.1699978  -3.3009986
  35.9009992  32.6349978  -2.9179986  35.7756193  31.7988896  -2.7113789
  30.2059992  28.7239978 -12.7889986  29.4949992  29.2589978 -13.1409986
  30.8969992  28.7789978 -13.4489986  30.2020751  28.8046777 -12.9264142
  30.2599992  27.1809978 -15.7509986  30.9609992  27.2039978 -15.0989986
  30.5619992  26.5529978 -16.4069986  30.3968202  27.0992212 -15.7504391
  37.5749992  28.1019978  -4.4959986  36.9229992  28.7959978  -4.4069986
  38.0409992  28.3119978  -5.3059986  37.5485937  28.2255019  -4.5932467
  33.6119992  28.9329978 -11.8379986  32.8799992  29.1619978 -11.2639986
  34.0589992  28.2199978 -11.3829986  33.5723963  28.8678729 -11.6980055
  33.5089992  27.1079978  -2.7699986  33.5889992  27.8709978  -2.1979986
  32.9079992  27.3869978  -3.4599986  33.4386547  27.2502457  -2.7849953
  25.2569992  29.5639978  -9.9549986  24.9269992  29.1929978 -10.7729986
  25.8459992  28.8929978  -9.6079986  25.2913970  29.4226063 -10.0200596
  26.6239992  32.9919978  -7.2739986  26.5289992  32.4129978  -8.0299986
  27.3529992  32.6209978  -6.7779986  26.7096011  32.8625561  -7.3103972
  25.6239992  28.3319978  -6.3219986  26.1889992  28.4539978  -7.0839986
  25.9429992  28.9699978  -5.6829986  25.7444166  28.4348791  -6.3399652
  31.9329992  33.8359978  -5.5879986  31.6929992  34.4979978  -4.9399986
  31.7349992  33.0009978  -5.1629986  31.8733826  33.8138115  -5.4418434
  26.5039992  32.7319978  -1.6039986  26.1929992  33.5139978  -1.1489986
  25.8539992  32.5789978  -2.2899986  26.3735538  32.8184087  -1.6344102
  32.4829992  28.0959978 -14.1519986  33.0619992  28.2459978 -13.4059986
  32.8969992  28.5659978 -14.8759986  32.6183358  28.1800954 -14.1476047
  23.4239992  28.9299978  -2.3759986  23.4939992  29.5809978  -1.6769986
  22.5329992  29.0329978  -2.7109986  23.3131690  29.0329249  -2.3256957
  30.2089992  34.8319978 -10.7169986  30.6829992  35.1279978  -9.9399986
  29.6459992  35.5709978 -10.9499986  30.1977890  34.9723036 -10.6421899
  24.7429992  34.8029978  -0.8409986  24.7509992  34.6669978  -1.7879986
  23.8269992  34.6859978  -0.5889986  24.6202528  34.7685463  -0.9366757
  36.1819992  19.8459978 -14.3389986  35.2819992  19.9849978 -14.0439986
  36.4339992  20.6769978 -14.7409986  36.0928683  19.9774055 -14.3529768
  24.2479992  28.6329978 -12.3659986  23.9559992  29.4009978 -12.8569986
  23.5729992  27.9739978 -12.5289986  24.1168497  28.6489745 -12.4551740
  37.3709992  34.2119978 -15.9629986  37.4439992  35.1509978 -15.7929986
  38.2759992  33.9069978 -16.0189986  37.5034170  34.2993282 -15.9472937
  20.3409992  30.9959978  -3.5509986  19.8389992  30.9679978  -4.3659986
  20.3459992  30.0909978  -3.2409986  20.2729832  30.8697486  -3.6205879
  20.0909992  33.7769978  -6.6669986  21.0369992  33.6319978  -6.6859986
  19.9779992  34.5609978  -6.1299986  20.2053578  33.8631697  -6.5969683
  38.2889992  34.4429978  -0.9839986  38.2389992  33.4869978  -1.0219986
  37.4619992  34.7099978  -0.5829986  38.1703831  34.3484680  -0.9349879
  29.2669992  34.0169978  -2.1079986  29.3549992  34.8429978  -1.6329986
  28.4039992  33.6869978  -1.8589986  29.1623357  34.0855468  -2.0092347
  29.6819992  37.7889978 -12.3019986  29.6059992  37.6679978 -13.2489986
  29.7139992  38.7379978 -12.1839986  29.6759380  37.9007677 -12.4154819
  23.3349992  36.5779978 -10.5209986  23.4869992  36.2299978  -9.6429986
  22.4839992  36.2209978 -10.7769986  23.2408344  36.4820879 -10.4353132
  32.7829992  36.9429978 -15.2999986  33.1579992  36.1989978 -15.7709986
  32.7879992  36.6729978 -14.3819986  32.8350098  36.8046392 -15.2403371
  32.4519992  36.8689978 -12.5509986  31.5169992  36.9689978 -12.3719986
  32.7319992  36.1589978 -11.9719986  32.3619471  36.7867933 -12.4483305
  35.4409992  25.9359978  -0.5039986  35.0329992  26.4159978  -1.2249986
  35.4809992  25.0299978  -0.8119986  35.3906221  25.8792449  -0.6441733
  22.5899992  32.3199978  -2.5079986  22.8059992  31.9579978  -1.6479986
  21.7339992  31.9449978  -2.7169986  22.5038810  32.2198837  -2.4187320
  25.2079992  20.7899978  -6.5119986  24.3469992  20.7029978  -6.9199986
  25.1859992  21.6459978  -6.0839986  25.0870491  20.8938003  -6.5100418
  29.8709992  20.5119978  -3.1369986  30.2909992  20.0969978  -2.3839986
  28.9379992  20.3329978  -3.0199986  29.8023736  20.4309910  -3.0181032
  33.1979992  24.2669978  -2.2839986  32.6839992  24.1419978  -1.4859986
  33.0419992  25.1799978  -2.5279986  33.1066967  24.3732123  -2.2079063
  33.9599992  29.1279978 -16.5229986  34.0019992  28.9059978 -17.4529986
  34.8089992  29.5269978 -16.3329986  34.0805253  29.1515498 -16.6246178
  29.5329992  23.0039978 -15.8519986  29.2789992  23.0229978 -14.9299986
  29.2759992  22.1329978 -16.1539986  29.4634508  22.8888280 -15.7665197
  25.2989992  25.7549978  -5.4169986  24.6579992  25.7149978  -4.7079986
  25.3369992  26.6819978  -5.6549986  25.2163010  25.8747668  -5.3520054
  25.2959992  25.9759978 -10.5049986  24.4039992  25.6359978 -10.5639986
  25.7469992  25.5989978 -11.2609986  25.2347642  25.8784910 -10.6152274
  30.8319992  26.3919978 -11.6879986  30.4229992  27.2069978 -11.9799986
  31.5519992  26.2519978 -12.3019986  30.8734439  26.4845372 -11.8109885
  29.9339992  26.5679978  -0.1999986  29.3709992  25.8629978   0.1210014
  30.7599992  26.4469978   0.2680014  29.9686674  26.4552165  -0.0928249
  31.8369992  25.8379978  -8.8739986  31.6409992  26.4439978  -9.5889986
  32.0179992  25.0049978  -9.3079986  31.8346584  25.8082513  -9.0305788
  23.0489992  26.0759978  -3.5499986  23.0109992  26.4759978  -2.6809986
  22.5589992  25.2589978  -3.4599986  22.9775330  26.0202674  -3.4188711
  26.4149992  23.4499978 -16.7509986  25.9839992  23.0049978 -16.0219986
  25.6969992  23.8209978 -17.2639986  26.2589176  23.4392051 -16.7205070
  19.6579992  23.1919978  -9.6989986  20.2879992  23.1629978  -8.9799986
  20.1069992  22.7669978 -10.4299986  19.8050835  23.1305660  -9.6992341
  20.9319992  23.9379978 -14.2749986  21.4059992  24.5289978 -14.8599986
  20.2139992  24.4679978 -13.9279986  20.8998640  24.0905511 -14.3082031
  31.1009992  27.4759978  -4.2029986  31.4239992  26.8449978  -4.8459986
  30.6599992  26.9419978  -3.5419986  31.0856379  27.3173468  -4.2017418
  27.8779992  23.4039978  -9.4189986  26.9669992  23.4609978  -9.1299986
  28.3829992  23.3439978  -8.6079986  27.8216873  23.4036826  -9.2698793
  22.7059992  25.0329978 -10.5919986  21.8169992  25.1319978 -10.9319986
  23.0029992  24.1909978 -10.9379986  22.6244177  24.9327687 -10.6853060
  26.3589992  25.0329978 -12.9349986  27.2909992  25.1619978 -12.7569986
  26.1439992  25.7019978 -13.5849986  26.4574472  25.1410806 -12.9985109
  32.2829992  22.6389978  -6.1539986  31.6059992  22.7699978  -5.4909986
  31.7979992  22.4839978  -6.9649986  32.1247405  22.6359947  -6.1727830
  25.0329992  26.2269978 -15.3689986  24.4909992  25.8479978 -16.0599986
  25.8669992  26.4219978 -15.7969986  25.0714390  26.2014079 -15.5215608
  35.5709992  38.3099978   0.1220014  35.7699992  38.7339978  -0.7119986
  36.2259992  38.6539978   0.7290014  35.6868522  38.4146301   0.0897852
  23.1689992  30.7839978  -0.2699986  23.9009992  31.0389978   0.2920014
  22.3879992  30.9889978   0.2460014  23.1636526  30.8465450  -0.1234824
  29.1979992  26.1909978  -7.5319986  29.7619992  25.6449978  -8.0789986
  29.0499992  25.6699978  -6.7429986  29.2553037  26.0456787  -7.5002771
  24.1999992  22.3279978 -11.1129986  23.8829992  21.4249978 -11.1489986
  24.9809992  22.3299978 -11.6659986  24.2622431  22.2047797 -11.1926898
  27.8239992  24.5799978  -5.1179986  26.9889992  25.0339978  -5.0069986
  28.3479992  24.8559978  -4.3659986  27.7806072  24.6793948  -5.0011864
  28.3689992  30.7929978 -13.4329986  27.6239992  30.2849978 -13.7549986
  28.2339992  30.8419978 -12.4869986  28.2488963  30.7301731 -13.3491174
  35.5189992  29.9259978  -4.6459986  36.1599992  30.3819978  -5.1899986
  34.6879992  30.0389978  -5.1089986  35.4945287  30.0036921  -4.7830113
  32.2659992  23.6069978 -15.2339986  31.3279992  23.7179978 -15.3849986
  32.5639992  24.4629978 -14.9269986  32.1776318  23.7380158 -15.2131855
  29.8879992  30.9769978  -2.1959986  29.5419992  30.5949978  -1.3889986
  29.6879992  31.9099978  -2.1249986  29.8135987  31.0509002  -2.0759539
  32.9849992  25.4739978 -13.5729986  33.8769992  25.3359978 -13.2539986
  33.0409992  26.2649978 -14.1099986  33.1147325  25.5619918 -13.6018783
  23.4929992  30.0879978  -7.6629986  24.2379992  30.0849978  -8.2649986
  23.5709992  29.2639978  -7.1819986  23.6053366  29.9762384  -7.6802570
  30.4939992  32.2509978 -14.4079986  30.1989992  33.0779978 -14.0259986
  29.7909992  31.6319978 -14.2109986  30.3586379  32.2804171 -14.3291346
  20.5009992  28.5479978  -2.3479986  20.7239992  28.1299978  -1.5169986
  19.8989992  27.9359978  -2.7709986  20.4501513  28.4079606  -2.2913260
  27.5179992  28.0649978  -0.1349986  27.2219992  27.8999978  -1.0309986
  28.4489992  27.8449978  -0.1459986  27.6034401  28.0126879  -0.2589794
  32.1379992  33.4389978  -2.2459986  31.2379992  33.6219978  -2.5129986
  32.1719992  33.6979978  -1.3249986  32.0193748  33.4990554  -2.1580836
  37.8699992  25.6829978 -13.8779986  37.3149992  25.2869978 -14.5509986
  37.9699992  26.5939978 -14.1559986  37.8076816  25.7519505 -14.0074967
  37.8329992  31.4839978  -1.0409986  36.9819992  31.7219978  -1.4089986
  38.4229992  31.4669978  -1.7939986  37.7963812  31.5142524  -1.1931547
  36.1649992  34.4689978 -13.4129986  35.7919992  33.6439978 -13.1039986
  36.4419992  34.2859978 -14.3109986  36.1513463  34.3312569 -13.4920475
  33.3249992  29.2769978  -6.3919986  32.3969992  29.0459978  -6.4189986
  33.7759992  28.4999978  -6.7219986  33.2588165  29.1402774  -6.4403210
  25.8679992  33.6059978 -10.2589986  26.3959992  34.3789978 -10.4589986
  24.9879992  33.8299978 -10.5609986  25.8213435  33.7422700 -10.3272690
  21.6229992  28.4679978 -15.6719986  22.2389992  29.0949978 -15.2919986
  20.7609992  28.7839978 -15.3999986  21.5907678  28.5964412 -15.5832791
  27.2959992  31.2689978 -10.6829986  27.0549992  32.1939978 -10.6409986
  26.5549992  30.8099978 -10.2859986  27.1629206  31.3335915 -10.6236231
  27.8099992  35.4179978  -4.3679986  28.1729992  36.2719978  -4.6009986
  28.3419992  35.1259978  -3.6269986  27.9315141  35.4953895  -4.2997903
  25.9789992  36.2899978 -11.1369986  25.0289992  36.3959978 -11.0859986
  26.3309992  37.1109978 -10.7929986  25.8965472  36.4154923 -11.0835148
  31.3539992  31.5169978  -4.6669986  30.9289992  31.2889978  -3.8409986
  31.9349992  30.7779978  -4.8489986  31.3743395  31.3859545  -4.5785586
  33.5569992  32.4459978 -15.5929986  33.9109992  32.0659978 -14.7889986
  32.6089992  32.3519978 -15.5059986  33.4772298  32.3812452 -15.4711313
  34.0129992  36.0689978  -2.1979986  33.4109992  35.5129978  -2.6929986
  34.2939992  36.7359978  -2.8239986  33.9685757  36.0830744  -2.3504325
  38.0609992  36.9249978 -15.3919986  38.8049992  37.5109978 -15.5319986
  37.3669992  37.4939978 -15.0589986  38.0689809  37.0820818 -15.3661410
  22.1349992  23.3019978  -2.7899986  21.2429992  23.6399978  -2.8579986
  22.0369992  22.4459978  -2.3719986  21.9994475  23.2326543  -2.7428296
  34.4229992  31.1179978 -13.3659986  34.1459992  30.3899978 -12.8099986
  35.3509992  31.2369978 -13.1609986  34.5104499  31.0344213 -13.2621956
  21.7869992  35.1059978  -4.3549986  22.0039992  34.1739978  -4.3859986
  22.0329992  35.3809978  -3.4719986  21.8499809  35.0155686  -4.2398309
  26.5849992  33.1279978 -14.6899986  26.7319992  32.6079978 -13.8999986
  26.5819992  34.0349978 -14.3829986  26.6047102  33.1793953 -14.5404075
  23.0379992  30.3799978 -14.1789986  22.3519992  30.7329978 -13.6119986
  23.5609992  31.1429978 -14.4259986  23.0148402  30.5313901 -14.1348199
  30.8699992  23.0429978  -3.8999986  31.5689992  23.1169978  -3.2499986
  30.4889992  22.1779978  -3.7459986  30.9142097  22.9362389  -3.7902003
  31.6539992  22.6949978 -12.8029986  31.8739992  23.1659978 -13.6069986
  32.2129992  23.0889978 -12.1329986  31.7596731  22.8127287 -12.8224967
  29.3229992  34.8249978 -13.9399986  28.5059992  35.3219978 -13.8879986
  29.8519992  35.3009978 -14.5809986  29.2828125  34.9571989 -14.0194694
  28.8539992  24.4229978 -11.9679986  29.6659992  24.9269978 -11.9219986
  28.6099992  24.2779978 -11.0539986  28.9321467  24.4723749 -11.8381425
  29.3899992  25.4089978  -2.7839986  29.5089992  25.9829978  -2.0269986
  30.0449992  24.7209978  -2.6689986  29.4948684  25.3945194  -2.6648326
  29.7379992  21.5039978 -11.0299986  29.3909992  22.1209978 -10.3859986
  30.3969992  22.0049978 -11.5119986  29.7795090  21.6561575 -11.0069319
  26.6609992  35.8689978 -13.9589986  26.8219992  36.6689978 -14.4589986
  26.4639992  36.1759978 -13.0739986  26.6563906  36.0198678 -13.9077667
  25.3959992  22.5669978 -14.3429986  25.3119992  23.4549978 -13.9959986
  26.2859992  22.3019978 -14.1109986  25.5048163  22.6527179 -14.2641404
  35.5939992  23.3159978  -1.9489986  34.6779992  23.5779978  -2.0359986
  35.9299992  23.3129978  -2.8449986  35.5138499  23.3515163  -2.0821234
  34.1969992  27.0659978  -7.8529986  33.3989992  26.6509978  -8.1809986
  34.6419992  26.3759978  -7.3619986  34.1479684  26.9158628  -7.8314773
  23.6539992  32.9939978 -15.2829986  24.2459992  33.6939978 -15.0059986
  24.1129992  32.5609978 -16.0019986  23.7971652  33.0312675 -15.3423467
  21.9699992  25.6589978 -16.1669986  21.9249992  26.5979978 -15.9879986
  21.0819992  25.4229978 -16.4359986  21.8438166  25.7556687 -16.1788476
  35.2829992  36.3219978  -6.2309986  35.1269992  37.0009978  -6.8879986
  36.2159992  36.3939978  -6.0279986  35.3877387  36.4246390  -6.2934658
  22.7779992  20.4399978  -7.4929986  22.5489992  20.4989978  -8.4209986
  22.3359992  19.6489978  -7.1869986  22.6868801  20.3410540  -7.5785271
  21.7089992  34.3809978 -11.3329986  20.8759992  34.8529978 -11.3059986
  22.2539992  34.8909978 -11.9319986  21.6687857  34.5144791 -11.4102858
  20.9969992  36.9929978  -0.0029986  21.5369992  36.7769978   0.7570014
  20.5159992  36.1879978  -0.1929986  21.0059219  36.8545156   0.0754282
  25.5939992  35.9129978   1.6170014  26.3619992  35.4539978   1.9580014
  25.5729992  35.6869978   0.6870014  25.6962135  35.8196668   1.5379491
  29.6859992  35.4209978 -17.0069986  29.0419992  34.7899978 -16.6859986
  30.4479992  34.8899978 -17.2389986  29.7008058  35.2627902 -16.9943962
  32.1709992  34.2929978   0.3460014  31.8199992  33.4359978   0.5900014
  32.8969992  34.4349978   0.9530014  32.2211895  34.1951351   0.4613770
  34.2909992  35.2379978 -16.7739986  34.5739992  34.4429978 -16.3209986
  35.0299992  35.4709978 -17.3349986  34.4297096  35.1607049 -16.7878896
  20.9039992  30.8039978   0.9510014  21.0479992  29.9019978   0.6650014
  20.1319992  31.0899978   0.4640014  20.8192733  30.7191798   0.8459532
  25.2449992  31.1469978 -16.9159986  25.3099992  30.3529978 -16.3859986
  25.8979992  31.0289978 -17.6059986  25.3421605  31.0223430 -16.9367003
  27.5589992  30.7729978   0.3840014  27.2309992  31.0439978  -0.4729986
  27.7109992  29.8319978   0.2960014  27.5346412  30.6829046   0.2547822
  33.2939992  30.6889978  -2.2329986  34.0389992  31.2779978  -2.3519986
  32.5369992  31.2709978  -2.1689986  33.2935470  30.8482128  -2.2406201
  21.7369992  28.0039978   0.3710014  22.1449992  27.1469978   0.2500014
  21.4759992  28.0179978   1.2920014  21.7576016  27.8885119   0.4789192
  26.3949992  29.1199978 -14.6099986  25.9349992  28.6359978 -13.9249986
  26.6499992  28.4509978 -15.2459986  26.3664856  28.9633669 -14.6021603
  25.6839992  27.0129978  -2.2539986  25.0649992  27.6869978  -1.9739986
  26.0279992  27.3339978  -3.0879986  25.6457123  27.1486887  -2.3283612
  27.4659992  27.3629978 -16.3479986  27.2849992  27.2079978 -17.2749986
  28.4159992  27.4709978 -16.3029986  27.5696566  27.3563669 -16.4689071
  30.7029992  29.4839978   1.0230014  31.6569992  29.5679978   0.9960014
  30.5429992  28.7719978   1.6430014  30.8117182  29.3992842   1.1030733
  36.8559992  29.7169978 -16.9019986  36.5819992  29.2929978 -17.7149986
  36.8949992  30.6489978 -17.1189986  36.8237716  29.7848827 -17.0425714
  26.0229992  24.3679978  -1.1719986  26.1729992  23.6389978  -1.7739986
  26.0249992  25.1449978  -1.7309986  26.0437967  24.3732708  -1.3299459
  26.4359992  22.7369978  -3.6789986  26.9709992  23.1889978  -4.3309986
  25.5829992  22.6289978  -4.1019986  26.3940374  22.7842665  -3.8253290
  28.0169992  28.1769978  -3.4399986  28.7679992  28.0209978  -4.0129986
  27.6779992  29.0289978  -3.7149986  28.0739587  28.2708138  -3.5555922
  32.4329992  25.9919978   1.5890014  32.6249992  25.0609978   1.4770014
  33.2909992  26.4169978   1.5780014  32.5752182  25.9220070   1.5721862
  33.7499992  28.7809978  -0.3339986  33.4679992  29.4899978  -0.9119986
  34.6919992  28.7079978  -0.4849986  33.8387921  28.8682193  -0.4335775
  24.5019992  25.5659978   0.7390014  23.7339992  25.0329978   0.5290014
  25.1799992  25.2559978   0.1400014  24.4887235  25.4511754   0.6292413
  27.2409992  20.1939978  -3.2479986  27.1429992  21.1399978  -3.3529986
  26.4989992  19.8209978  -3.7239986  27.1272534  20.2731773  -3.3267400
  28.5049992  24.5149978   0.3160014  28.2699992  24.2959978   1.2170014
  27.7219992  24.3079978  -0.1939986  28.3669095  24.4569892   0.3705353
  31.2209992  23.6429978  -0.6089986  30.2729992  23.6749978  -0.4769986
  31.5329992  23.0169978   0.0450014  31.1335293  23.5627923  -0.5025852
  32.8549992  22.2769978   1.3960014  32.7579992  21.3249978   1.3910014
  32.5329992  22.5449978   2.2570014  32.7982468  22.1830884   1.5116210
  22.6819992  23.4859978   0.4440014  22.8939992  22.7799978  -0.1659986
  22.5709992  23.0489978   1.2880014  22.6960269  23.3301921   0.4745873
  27.4629992  19.4879978  -0.5769986  28.1749992  18.8479978  -0.5909986
  27.3619992  19.7539978  -1.4899986  27.5467387  19.4364330  -0.7024437
  27.8169992  21.1699978   1.4770014  27.6849992  20.6949978   0.6570014
  27.2169992  21.9149978   1.4220014  27.7179070  21.2055789   1.3573251
  27.3629992  38.0529978 -15.3469986  28.2959992  38.2109978 -15.2029986
  27.0989992  38.7289978 -15.9719986  27.4549911  38.1659373 -15.4117278
  20.9309992  32.6899978 -15.8639986  21.8449992  32.7689978 -15.5909986
  20.9389992  32.0029978 -16.5299986  21.0570655  32.6079205 -15.9167083
  19.5799992  38.0829978 -10.7869986  18.9329992  37.6209978 -11.3189986
  19.9349992  37.4109978 -10.2039986  19.5393741  37.9289774 -10.7810825
  20.4499992  36.1629978  -8.9819986  20.1159992  35.2829978  -8.8099986
  20.6729992  36.5089978  -8.1169986  20.4343721  36.0891938  -8.8415832
  37.9989992  36.9729978  -6.0009986  37.9769992  37.1579978  -5.0619986
  38.6889992  37.5409978  -6.3419986  38.0893439  37.0751887  -5.9185209
  37.5619992  36.5399978  -3.0799986  37.0749992  35.8049978  -3.4509986
  38.1109992  36.1459978  -2.4019986  37.5695247  36.3861057  -3.0391539
  36.0129992  32.3299978   1.5590014  35.1469992  32.2249978   1.9530014
  36.3889992  33.0879978   2.0050014  35.9453401  32.4181708   1.6732620
  37.3139992  30.5859978 -12.9269986  38.1639992  31.0069978 -12.7999986
  37.3189992  29.8459978 -12.3199986  37.4311143  30.5436094 -12.8275250
  37.7079992  28.6399978 -11.1039986  36.9819992  28.1599978 -10.7059986
  38.2899992  28.8449978 -10.3709986  37.6872730  28.6020184 -10.9505851
  37.4669992  31.4249978  -6.1559986  38.3009992  31.0469978  -6.4369986
  37.5789992  32.3679978  -6.2749986  37.5961917  31.5007943  -6.2105139
  35.9539992  34.3029978  -3.8489986  35.3059992  34.6279978  -3.2239986
  35.4359992  33.8619978  -4.5229986  35.7954196  34.2878651  -3.8545848
  37.9769992  28.5409978 -14.7129986  37.4549992  28.8969978 -15.4309986
  37.9439992  29.2159978 -14.0339986  37.9010129  28.6809598 -14.7196645
  36.3259992  25.7799978 -16.1619986  36.4219992  26.4469978 -16.8419986
  36.1859992  24.9649978 -16.6429986  36.3202040  25.7610671 -16.3201622
  35.4949992  27.1609978 -10.5409986  35.3449992  26.2159978 -10.5609986
  35.1409992  27.4419978  -9.6969986  35.4266351  27.0696644 -10.4296780
  20.5299992  29.2389978  -6.5299986  20.7149992  29.1569978  -7.4659986
  21.3799992  29.1149978  -6.1069986  20.6700928  29.2110463  -6.6007107
  36.3509992  29.1309978  -0.9019986  36.9339992  28.3959978  -0.7099986
  36.9149992  29.9029978  -0.8549986  36.5069781  29.1348145  -0.8693836
  37.8479992  27.0339978  -0.2169986  36.9849992  26.6549978  -0.3829986
  38.4519992  26.2949978  -0.2919986  37.8116085  26.8823223  -0.2498305
  35.5729992  23.1879978 -17.0439986  36.1839992  22.8169978 -16.4069986
  34.7359992  22.7669978 -16.8479986  35.5434947  23.0802756 -16.9302748
  35.2059992  24.7429978 -12.0779986  35.4849992  23.8359978 -11.9539986
  35.9649992  25.1769978 -12.4669986  35.3468619  24.6774502 -12.1136205
  35.8169992  25.3249978  -6.6419986  36.7499992  25.5369978  -6.6769986
  35.5819992  25.4259978  -5.7199986  35.9129517  25.3676833  -6.5220870
  35.8469992  26.0619978  -3.8659986  35.0039992  26.3299978  -3.4999986
  36.2889992  26.8839978  -4.0769986  35.7914138  26.2098273  -3.8444482
  20.1279992  24.5089978  -0.3899986  21.0469992  24.3869978  -0.1529986
  19.6779992  23.7589978   0.0000014  20.1930087  24.3909608  -0.3048590
  38.1299992  20.0419978   1.4870014  38.4789992  19.3879978   0.8820014
  38.2769992  20.8789978   1.0470014  38.1976824  20.0656024   1.3446304
  35.8189992  22.0059978 -12.0299986  36.0009992  21.5569978 -11.2049986
  35.2189992  21.4219978 -12.4939986  35.7628187  21.8655552 -11.9797261
  21.3489992  22.8219978  -7.4979986  21.7939992  22.0299978  -7.1959986
  21.8149992  23.5379978  -7.0679986  21.4729718  22.8104534  -7.3984735
  19.6529992  25.8209978  -6.4289986  20.1449992  25.5999978  -7.2199986
  20.0149992  26.6609978  -6.1479986  19.7692923  25.9043468  -6.4992593
  37.6489992  22.1509978  -0.1639986  36.7319992  22.4219978  -0.1989986
  37.7719992  21.6159978  -0.9479986  37.5399672  22.1157885  -0.2748138
  37.6859992  22.0739978 -15.5019986  38.0979992  21.3529978 -15.9769986
  38.3669992  22.7429978 -15.4439986  37.8345536  22.0657766 -15.5591976
  19.9669992  22.0789978 -12.3749986  19.0419992  22.2869978 -12.5039986
  20.4209992  22.5629978 -13.0649986  19.9016298  22.1729299 -12.4859549
  34.7369992  37.0629978 -10.4289986  35.3899992  36.7149978 -11.0369986
  35.2479992  37.5509978  -9.7829986  34.8952777  37.0813815 -10.4247953
  19.9299992  20.8169978  -4.0309986  19.2649992  20.5709978  -3.3879986
  19.4869992  21.4389978  -4.6079986  19.7791168  20.8674214  -4.0210152
  22.1219992  33.9919978   0.1140014  21.3009992  34.1669978  -0.3469986
  21.8699992  33.9189978   1.0340014  21.9755594  34.0060717   0.1753611
  25.0759992  34.9659978  -3.6279986  24.6519992  35.7759978  -3.9099986
  25.9809992  35.0519978  -3.9299986  25.1402138  35.0884160  -3.7073585
  29.3879992  36.3649978  -0.6679986  29.5719992  36.0319978   0.2100014
  30.2339992  36.6749978  -0.9899986  29.5276484  36.3612979  -0.5912383
  31.7329992  37.6509978  -1.4239986  32.4099992  37.0179978  -1.6639986
  32.0539992  38.0519978  -0.6169986  31.8691323  37.6185691  -1.3476842
  36.6499992  20.2409978  -2.3449986  35.8369992  20.5659978  -2.7319986
  36.8829992  19.4799978  -2.8779986  36.5701347  20.1826880  -2.4700159
  22.4779992  38.2229978  -3.5799986  21.7579992  38.6629978  -4.0309986
  22.1129992  37.9719978  -2.7319986  22.3299643  38.2493369  -3.5270871
  24.9449992  37.8229978  -4.5499986  24.0809992  37.8949978  -4.1459986
  24.8899992  38.3699978  -5.3339986  24.8191942  37.9067849  -4.6006000
  29.6559992  37.7109978  -5.3749986  29.1989992  38.2399978  -6.0289986
  29.8189992  38.3139978  -4.6499986  29.6154960  37.8649280  -5.3664726
  31.9839992  36.5889978  -4.4299986  31.0789992  36.7539978  -4.6959986
  32.4119992  37.4419978  -4.4959986  31.9181537  36.7269134  -4.4752905
  34.5879992  38.1589978  -4.1349986  34.4059992  39.0749978  -4.3459986
  34.7649992  37.7479978  -4.9819986  34.5870030  38.2288273  -4.2782834
  21.8929992  36.8459978  -6.6699986  21.8749992  36.4199978  -5.8129986
  22.6979992  36.5269978  -7.0789986  21.9992875  36.7446435  -6.6080485
  24.0339992  35.5559978  -8.0149986  23.8149992  34.6389978  -7.8449986
  24.8579992  35.6959978  -7.5489986  24.1154702  35.4495511  -7.9287473
  26.5709992  36.0259978  -7.1659986  26.7839992  35.1379978  -7.4529986
  26.6359992  35.9909978  -6.2119986  26.6089149  35.8998326  -7.0762631
  30.0799992  21.6899978  -8.0219986  29.4059992  21.0599978  -7.7659986
  30.6439992  21.2059978  -8.6249986  30.0640384  21.5383708  -8.0684980
  35.2229992  19.7969978  -7.9089986  35.8259992  20.3449978  -8.4109986
  34.3529992  20.1159978  -8.1499986  35.1879157  19.9150373  -8.0102090
  36.9499992  20.9359978  -9.5759986  37.5609992  20.4219978 -10.1029986
  37.3319992  21.8129978  -9.5529986  37.0853305  20.9842050  -9.6450582
  22.4069992  20.3239978 -10.1999986  21.6299992  20.0889978 -10.7069986
  22.9369992  19.5269978 -10.1909986  22.3723451  20.1841268 -10.2681373
  21.2429992  20.1219978 -14.3959986  21.6819992  20.7329978 -14.9879986
  20.6089992  20.6599978 -13.9219986  21.2173859  20.2784064 -14.4129695
  26.9859992  20.2499978 -10.3869986  27.8599992  20.6389978 -10.4159986
  26.8499992  20.0349978  -9.4639986  27.0871953  20.2741643 -10.2662383
  32.5429992  20.2799978  -8.7369986  32.6189992  20.3759978  -9.6869986
  32.2679992  19.3729978  -8.6089986  32.5161871  20.1704146  -8.8496056
  33.8959992  20.3059978 -13.0449986  33.1929992  20.9209978 -13.2549986
  33.4509992  19.4689978 -12.9139986  33.7396550  20.2769668 -13.0560163
  21.1439992  36.0699978 -13.4989986  20.4589992  36.0319978 -14.1659986
  21.1479992  36.9829978 -13.2109986  21.0507621  36.1881924 -13.5513874
  23.1039992  22.0379978 -15.9539986  23.5949992  21.4079978 -16.4809986
  23.7269992  22.3339978 -15.2909986  23.2555304  21.9917376 -15.9365060
  28.1299992  22.3309978 -13.4969986  28.3079992  21.6839978 -12.8139986
  28.0759992  23.1649978 -13.0299986  28.1470678  22.3551604 -13.3403699
  30.0079992  37.2789978 -15.1009986  30.8739992  37.6459978 -15.2789986
  29.7619992  36.8399978 -15.9149986  30.0932097  37.2698525 -15.2353981
  36.7169992  36.8419978 -12.4219986  36.5229992  36.0939978 -12.9869986
  36.6779992  37.5999978 -13.0049986  36.6851645  36.8420786 -12.5781852
  22.3639992  20.8379978  -0.6819986  21.9979992  20.0719978  -0.2399986
  23.2769992  20.8669978  -0.3959986  22.4373172  20.7370324  -0.5828110
  24.3369992  20.1879978   0.8530014  25.2359992  19.9139978   0.6690014
  23.9509992  19.4459978   1.3180014  24.4077307  20.0502196   0.8907098
  22.9619992  36.9899978 -16.4739986  22.6939992  37.2759978 -15.5999986
  23.7329992  36.4439978 -16.3209986  23.0295926  36.9552779 -16.3338795
  32.7589992  19.5209978   1.0360014  32.8349992  19.0949978   1.8890014
  33.6519992  19.5339978   0.6930014  32.8902303  19.4643493   1.1065497
  35.9349992  35.5939978  -0.2719986  35.1529992  35.4069978  -0.7919986
  35.8629992  36.5229978  -0.0549986  35.8181924  35.6940637  -0.3138398
  50.3409992  29.4799978 -10.2409986  50.4299992  30.4239978 -10.3729986
  49.7029992  29.2049978 -10.8989986  50.2669062  29.5719812 -10.3480359
  49.2739992  28.7349978  -6.8219986  49.2359992  28.0889978  -6.1169986
  48.9519992  28.2679978  -7.5929986  49.2252679  28.5834276  -6.8297079
  41.6419992  28.3489978  -5.2289986  41.6839992  27.7239978  -4.5059986
  42.3449992  28.9729978  -5.0469986  41.7427345  28.3477873  -5.1054726
  52.9799992  31.6739978  -8.5209986  52.5389992  30.9539978  -8.0699986
  52.9669992  32.3949978  -7.8909986  52.9179215  31.6729291  -8.3741895
  42.5659992  32.7989978  -6.6939986  42.1959992  31.9969978  -7.0639986
  43.5069992  32.6309978  -6.6479986  42.6425984  32.6664638  -6.7384397
  39.1759992  26.4589978 -11.3019986  38.7279992  27.3049978 -11.3199986
  38.6149992  25.8799978 -11.8169986  39.0388546  26.4963993 -11.3741109
  39.8859992  28.6209978  -9.1759986  40.0999992  27.8509978  -8.6479986
  40.6239992  28.7109978  -9.7789986  40.0150200  28.5278587  -9.1852965
  50.0919992  36.7779978  -8.3089986  50.7109992  36.1019978  -8.5819986
  49.8829992  36.5599978  -7.3999986  50.1486056  36.6558869  -8.2236033
  47.6629992  31.1669978  -6.4159986  47.9669992  30.4809978  -7.0109986
  48.3849992  31.2859978  -5.7979986  47.8021240  31.0892314  -6.4139041
  56.3259992  22.7689978  -5.5559986  56.3759992  23.3789978  -4.8199986
  56.7519992  23.2299978  -6.2789986  56.3904108  22.9147709  -5.5529888
  50.8039992  25.5609978  -6.0889986  50.9469992  24.6149978  -6.0689986
  50.6979992  25.7679978  -7.0169986  50.8092403  25.4594797  -6.2117761
  43.9589992  23.6629978  -8.8159986  44.0019992  24.5229978  -9.2349986
  43.5009992  23.1109978  -9.4499986  43.9029871  23.7059245  -8.9589239
  51.6809992  23.7939978 -10.4149986  52.3279992  23.4649978  -9.7909986
  52.1909992  24.3109978 -11.0379986  51.8384351  23.8189067 -10.4138963
  40.5789992  26.0599978  -8.0539986  41.2329992  25.5099978  -7.6219986
  40.6029992  25.7859978  -8.9709986  40.6717199  25.9477167  -8.1188332
  45.7359992  27.6099978  -8.8389986  46.3519992  27.0829978  -8.3299986
  45.1489992  26.9699978  -9.2429986  45.7410154  27.4513954  -8.8239055
  56.7179992  24.2469978  -3.3199986  56.0289992  24.9049978  -3.4149986
  56.7329992  24.0489978  -2.3829986  56.6257756  24.3102603  -3.2064188
  42.7689992  22.5809978  -4.7419986  42.5499992  23.1109978  -5.5089986
  42.1009992  22.8069978  -4.0949986  42.6486975  22.6840967  -4.7594860
  50.1379992  32.0809978 -11.1979986  49.8429992  31.7579978 -12.0499986
  49.8139992  32.9809978 -11.1569986  50.0538460  32.1584464 -11.3090286
  45.3379992  30.2559978  -4.4549986  44.5979992  30.8549978  -4.3509986
  46.0519992  30.8099978  -4.7699986  45.3333500  30.4127829  -4.4833629
  53.4449992  23.0849978  -8.4349986  53.2299992  22.3189978  -7.9019986
  54.1009992  23.5569978  -7.9219986  53.5042673  23.0440728  -8.2928010
  42.3629992  24.4729978  -6.7899986  42.9769992  25.1059978  -6.4169986
  42.8749992  24.0009978  -7.4459986  42.5161962  24.4957249  -6.8277065
  43.7459992  32.2209978  -3.6679986  43.7399992  33.0999978  -4.0459986
  42.8919992  32.1369978  -3.2429986  43.6297925  32.3299535  -3.6623113
  39.8669992  31.8919978 -12.8859986  39.5949992  32.1209978 -13.7739986
  39.9119992  32.7289978 -12.4249986  39.8358097  32.0366163 -12.9453317
  53.4919992  33.5129978  -6.1729986  52.5499992  33.5719978  -6.0109986
  53.7679992  34.4189978  -6.3099986  53.4005865  33.6435288  -6.1693808
  53.7919992  21.7999978  -4.7559986  53.0559992  22.4099978  -4.7929986
  54.4759992  22.2149978  -5.2819986  53.7835367  21.9397551  -4.8321826
  46.7959992  19.8859978  -7.2899986  46.6779992  18.9379978  -7.3439986
  45.9409992  20.2189978  -7.0169986  46.6642805  19.8012202  -7.2604921
  51.7439992  35.2939978  -9.5479986  52.1689992  34.5869978 -10.0329986
  52.0609992  36.0959978  -9.9649986  51.8450266  35.3055190  -9.6707521
  52.9039992  33.1949978 -11.0389986  52.6459992  32.5049978 -11.6509986
  52.9749992  32.7519978 -10.1939986  52.8783050  33.0406814 -11.0084379
  54.5899992  31.7619978  -2.5619986  54.7289992  31.1699978  -3.3009986
  54.7569992  32.6349978  -2.9179986  54.6316193  31.7988896  -2.7113789
  49.0619992  28.7239978 -12.7889986  48.3509992  29.2589978 -13.1409986
  49.7529992  28.7789978 -13.4489986  49.0580751  28.8046777 -12.9264142
  49.1159992  27.1809978 -15.7509986  49.8169992  27.2039978 -15.0989986
  49.4179992  26.5529978 -16.4069986  49.2528202  27.0992212 -15.7504391
  56.4309992  28.1019978  -4.4959986  55.7789992  28.7959978  -4.4069986
  56.8969992  28.3119978  -5.3059986  56.4045937  28.2255019  -4.5932467
  52.4679992  28.9329978 -11.8379986  51.7359992  29.1619978 -11.2639986
  52.9149992  28.2199978 -11.3829986  52.4283963  28.8678729 -11.6980055
  52.3649992  27.1079978  -2.7699986  52.4449992  27.8709978  -2.1979986
  51.7639992  27.3869978  -3.4599986  52.2946547  27.2502457  -2.7849953
  44.1129992  29.5639978  -9.9549986  43.7829992  29.1929978 -10.7729986
  44.7019992  28.8929978  -9.6079986  44.1473970  29.4226063 -10.0200596
  45.4799992  32.9919978  -7.2739986  45.3849992  32.4129978  -8.0299986
  46.2089992  32.6209978  -6.7779986  45.5656011  32.8625561  -7.3103972
  44.4799992  28.3319978  -6.3219986  45.0449992  28.4539978  -7.0839986
  44.7989992  28.9699978  -5.6829986  44.6004166  28.4348791  -6.3399652
  50.7889992  33.8359978  -5.5879986  50.5489992  34.4979978  -4.9399986
  50.5909992  33.0009978  -5.1629986  50.7293826  33.8138115  -5.4418434
  45.3599992  32.7319978  -1.6039986  45.0489992  33.5139978  -1.1489986
  44.7099992  32.5789978  -2.2899986  45.2295538  32.8184087  -1.6344102
  51.3389992  28.0959978 -14.1519986  51.9179992  28.2459978 -13.4059986
  51.7529992  28.5659978 -14.8759986  51.4743358  28.1800955 -14.1476047
  42.2799992  28.9299978  -2.3759986  42.3499992  29.5809978  -1.6769986
  41.3889992  29.0329978  -2.7109986  42.1691690  29.0329249  -2.3256957
  49.0649992  34.8319978 -10.7169986  49.5389992  35.1279978  -9.9399986
  48.5019992  35.5709978 -10.9499986  49.0537890  34.9723036 -10.6421899
  43.5989992  34.8029978  -0.8409986  43.6069992  34.6669978  -1.7879986
  42.6829992  34.6859978  -0.5889986  43.4762528  34.7685463  -0.9366757
  55.0379992  19.8459978 -14.3389986  54.1379992  19.9849978 -14.0439986
  55.2899992  20.6769978 -14.7409986  54.9488683  19.9774055 -14.3529768
  43.1039992  28.6329978 -12.3659986  42.8119992  29.4009978 -12.8569986
  42.4289992  27.9739978 -12.5289986  42.9728497  28.6489745 -12.4551740
  56.2269992  34.2119978 -15.9629986  56.2999992  35.1509978 -15.7929986
  57.1319992  33.9069978 -16.0189986  56.3594170  34.2993282 -15.9472937
  39.1969992  30.9959978  -3.5509986  38.6949992  30.9679978  -4.3659986
  39.2019992  30.0909978  -3.2409986  39.1289832  30.8697486  -3.6205879
  38.9469992  33.7769978  -6.6669986  39.8929992  33.6319978  -6.6859986
  38.8339992  34.5609978  -6.1299986  39.0613578  33.8631697  -6.5969683
  57.1449992  34.4429978  -0.9839986  57.0949992  33.4869978  -1.0219986
  56.3179992  34.7099978  -0.5829986  57.0263831  34.3484680  -0.9349879
  48.1229992  34.0169978  -2.1079986  48.2109992  34.8429978  -1.6329986
  47.2599992  33.6869978  -1.8589986  48.0183357  34.0855468  -2.0092347
  48.5379992  37.7889978 -12.3019986  48.4619992  37.6679978 -13.2489986
  48.5699992  38.7379978 -12.1839986  48.5319380  37.9007677 -12.4154819
  42.1909992  36.5779978 -10.5209986  42.3429992  36.2299978  -9.6429986
  41.3399992  36.2209978 -10.7769986  42.0968344  36.4820879 -10.4353132
  51.6389992  36.9429978 -15.2999986  52.0139992  36.1989978 -15.7709986
  51.6439992  36.6729978 -14.3819986  51.6910098  36.8046392 -15.2403371
  51.3079992  36.8689978 -12.5509986  50.3729992  36.9689978 -12.3719986
  51.5879992  36.1589978 -11.9719986  51.2179471  36.7867933 -12.4483305
  54.2969992  25.9359978  -0.5039986  53.8889992  26.4159978  -1.2249986
  54.3369992  25.0299978  -0.8119986  54.2466221  25.8792449  -0.6441733
  41.4459992  32.3199978  -2.5079986  41.6619992  31.9579978  -1.6479986
  40.5899992  31.9449978  -2.7169986  41.3598810  32.2198837  -2.4187320
  44.0639992  20.7899978  -6.5119986  43.2029992  20.7029978  -6.9199986
  44.0419992  21.6459978  -6.0839986  43.9430491  20.8938003  -6.5100418
  48.7269992  20.5119978  -3.1369986  49.1469992  20.0969978  -2.3839986
  47.7939992  20.3329978  -3.0199986  48.6583736  20.4309910  -3.0181032
  52.0539992  24.2669978  -2.2839986  51.5399992  24.1419978  -1.4859986
  51.8979992  25.1799978  -2.5279986  51.9626967  24.3732123  -2.2079063
  52.8159992  29.1279978 -16.5229986  52.8579992  28.9059978 -17.4529986
  53.6649992  29.5269978 -16.3329986  52.9365253  29.1515498 -16.6246178
  48.3889992  23.0039978 -15.8519986  48.1349992  23.0229978 -14.9299986
  48.1319992  22.1329978 -16.1539986  48.3194508  22.8888280 -15.7665197
  44.1549992  25.7549978  -5.4169986  43.5139992  25.7149978  -4.7079986
  44.1929992  26.6819978  -5.6549986  44.0723010  25.8747668  -5.3520054
  44.1519992  25.9759978 -10.5049986  43.2599992  25.6359978 -10.5639986
  44.6029992  25.5989978 -11.2609986  44.0907642  25.8784910 -10.6152274
  49.6879992  26.3919978 -11.6879986  49.2789992  27.2069978 -11.9799986
  50.4079992  26.2519978 -12.3019986  49.7294439  26.4845372 -11.8109885
  48.7899992  26.5679978  -0.1999986  48.2269992  25.8629978   0.1210014
  49.6159992  26.4469978   0.2680014  48.8246674  26.4552165  -0.0928249
  50.6929992  25.8379978  -8.8739986  50.4969992  26.4439978  -9.5889986
  50.8739992  25.0049978  -9.3079986  50.6906584  25.8082513  -9.0305788
  41.9049992  26.0759978  -3.5499986  41.8669992  26.4759978  -2.6809986
  41.4149992  25.2589978  -3.4599986  41.8335330  26.0202674  -3.4188711
  45.2709992  23.4499978 -16.7509986  44.8399992  23.0049978 -16.0219986
  44.5529992  23.8209978 -17.2639986  45.1149176  23.4392051 -16.7205070
  38.5139992  23.1919978  -9.6989986  39.1439992  23.1629978  -8.9799986
  38.9629992  22.7669978 -10.4299986  38.6610835  23.1305660  -9.6992341
  39.7879992  23.9379978 -14.2749986  40.2619992  24.5289978 -14.8599986
  39.0699992  24.4679978 -13.9279986  39.7558640  24.0905511 -14.3082031
  49.9569992  27.4759978  -4.2029986  50.2799992  26.8449978  -4.8459986
  49.5159992  26.9419978  -3.5419986  49.9416379  27.3173468  -4.2017418
  46.7339992  23.4039978  -9.4189986  45.8229992  23.4609978  -9.1299986
  47.2389992  23.3439978  -8.6079986  46.6776873  23.4036826  -9.2698793
  41.5619992  25.0329978 -10.5919986  40.6729992  25.1319978 -10.9319986
  41.8589992  24.1909978 -10.9379986  41.4804177  24.9327687 -10.6853060
  45.2149992  25.0329978 -12.9349986  46.1469992  25.1619978 -12.7569986
  44.9999992  25.7019978 -13.5849986  45.3134472  25.1410806 -12.9985109
  51.1389992  22.6389978  -6.1539986  50.4619992  22.7699978  -5.4909986
  50.6539992  22.4839978  -6.9649986  50.9807405  22.6359947  -6.1727830
  43.8889992  26.2269978 -15.3689986  43.3469992  25.8479978 -16.0599986
  44.7229992  26.4219978 -15.7969986  43.9274390  26.2014079 -15.5215608
  54.4269992  38.3099978   0.1220014  54.6259992  38.7339978  -0.7119986
  55.0819992  38.6539978   0.7290014  54.5428522  38.4146301   0.0897852
  42.0249992  30.7839978  -0.2699986  42.7569992  31.0389978   0.2920014
  41.2439992  30.9889978   0.2460014  42.0196526  30.8465450  -0.1234824
  48.0539992  26.1909978  -7.5319986  48.6179992  25.6449978  -8.0789986
  47.9059992  25.6699978  -6.7429986  48.1113037  26.0456787  -7.5002771
  43.0559992  22.3279978 -11.1129986  42.7389992  21.4249978 -11.1489986
  43.8369992  22.3299978 -11.6659986  43.1182431  22.2047797 -11.1926898
  46.6799992  24.5799978  -5.1179986  45.8449992  25.0339978  -5.0069986
  47.2039992  24.8559978  -4.3659986  46.6366072  24.6793948  -5.0011864
  47.2249992  30.7929978 -13.4329986  46.4799992  30.2849978 -13.7549986
  47.0899992  30.8419978 -12.4869986  47.1048963  30.7301731 -13.3491174
  54.3749992  29.9259978  -4.6459986  55.0159992  30.3819978  -5.1899986
  53.5439992  30.0389978  -5.1089986  54.3505287  30.0036921  -4.7830113
  51.1219992  23.6069978 -15.2339986  50.1839992  23.7179978 -15.3849986
  51.4199992  24.4629978 -14.9269986  51.0336318  23.7380158 -15.2131855
  48.7439992  30.9769978  -2.1959986  48.3979992  30.5949978  -1.3889986
  48.5439992  31.9099978  -2.1249986  48.6695987  31.0509002  -2.0759539
  51.8409992  25.4739978 -13.5729986  52.7329992  25.3359978 -13.2539986
  51.8969992  26.2649978 -14.1099986  51.9707325  25.5619918 -13.6018783
  42.3489992  30.0879978  -7.6629986  43.0939992  30.0849978  -8.2649986
  42.4269992  29.2639978  -7.1819986  42.4613365  29.9762384  -7.6802570
  49.3499992  32.2509978 -14.4079986  49.0549992  33.0779978 -14.0259986
  48.6469992  31.6319978 -14.2109986  49.2146379  32.2804171 -14.3291346
  39.3569992  28.5479978  -2.3479986  39.5799992  28.1299978  -1.5169986
  38.7549992  27.9359978  -2.7709986  39.3061513  28.4079606  -2.2913260
  46.3739992  28.0649978  -0.1349986  46.0779992  27.8999978  -1.0309986
  47.3049992  27.8449978  -0.1459986  46.4594401  28.0126879  -0.2589794
  50.9939992  33.4389978  -2.2459986  50.0939992  33.6219978  -2.5129986
  51.0279992  33.6979978  -1.3249986  50.8753748  33.4990554  -2.1580836
  56.7259992  25.6829978 -13.8779986  56.1709992  25.2869978 -14.5509986
  56.8259992  26.5939978 -14.1559986  56.6636816  25.7519505 -14.0074967
  56.6889992  31.4839978  -1.0409986  55.8379992  31.7219978  -1.4089986
  57.2789992  31.4669978  -1.7939986  56.6523812  31.5142524  -1.1931547
  55.0209992  34.4689978 -13.4129986  54.6479992  33.6439978 -13.1039986
  55.2979992  34.2859978 -14.3109986  55.0073463  34.3312569 -13.4920475
  52.1809992  29.2769978  -6.3919986  51.2529992  29.0459978  -6.4189986
  52.6319992  28.4999978  -6.7219986  52.1148165  29.1402774  -6.4403210
  44.7239992  33.6059978 -10.2589986  45.2519992  34.3789978 -10.4589986
  43.8439992  33.8299978 -10.5609986  44.6773435  33.7422700 -10.3272690
  40.4789992  28.4679978 -15.6719986  41.0949992  29.0949978 -15.2919986
  39.6169992  28.7839978 -15.3999986  40.4467678  28.5964412 -15.5832791
  46.1519992  31.2689978 -10.6829986  45.9109992  32.1939978 -10.6409986
  45.4109992  30.8099978 -10.2859986  46.0189206  31.3335915 -10.6236231
  46.6659992  35.4179978  -4.3679986  47.0289992  36.2719978  -4.6009986
  47.1979992  35.1259978  -3.6269986  46.7875141  35.4953895  -4.2997903
  44.8349992  36.2899978 -11.1369986  43.8849992  36.3959978 -11.0859986
  45.1869992  37.1109978 -10.7929986  44.7525472  36.4154923 -11.0835148
  50.2099992  31.5169978  -4.6669986  49.7849992  31.2889978  -3.8409986
  50.7909992  30.7779978  -4.8489986  50.2303395  31.3859545  -4.5785586
  52.4129992  32.4459978 -15.5929986  52.7669992  32.0659978 -14.7889986
  51.4649992  32.3519978 -15.5059986  52.3332298  32.3812452 -15.4711313
  52.8689992  36.0689978  -2.1979986  52.2669992  35.5129978  -2.6929986
  53.1499992  36.7359978  -2.8239986  52.8245757  36.0830744  -2.3504325
  56.9169992  36.9249978 -15.3919986  57.6609992  37.5109978 -15.5319986
  56.2229992  37.4939978 -15.0589986  56.9249809  37.0820818 -15.3661410
  40.9909992  23.3019978  -2.7899986  40.0989992  23.6399978  -2.8579986
  40.8929992  22.4459978  -2.3719986  40.8554475  23.2326543  -2.7428296
  53.2789992  31.1179978 -13.3659986  53.0019992  30.3899978 -12.8099986
  54.2069992  31.2369978 -13.1609986  53.3664499  31.0344213 -13.2621956
  40.6429992  35.1059978  -4.3549986  40.8599992  34.1739978  -4.3859986
  40.8889992  35.3809978  -3.4719986  40.7059809  35.0155686  -4.2398309
  45.4409992  33.1279978 -14.6899986  45.5879992  32.6079978 -13.8999986
  45.4379992  34.0349978 -14.3829986  45.4607102  33.1793953 -14.5404075
  41.8939992  30.3799978 -14.1789986  41.2079992  30.7329978 -13.6119986
  42.4169992  31.1429978 -14.4259986  41.8708402  30.5313901 -14.1348199
  49.7259992  23.0429978  -3.8999986  50.4249992  23.1169978  -3.2499986
  49.3449992  22.1779978  -3.7459986  49.7702097  22.9362389  -3.7902003
  50.5099992  22.6949978 -12.8029986  50.7299992  23.1659978 -13.6069986
  51.0689992  23.0889978 -12.1329986  50.6156731  22.8127287 -12.8224967
  48.1789992  34.8249978 -13.9399986  47.3619992  35.3219978 -13.8879986
  48.7079992  35.3009978 -14.5809986  48.1388125  34.9571989 -14.0194694
  47.7099992  24.4229978 -11.9679986  48.5219992  24.9269978 -11.9219986
  47.4659992  24.2779978 -11.0539986  47.7881467  24.4723749 -11.8381425
  48.2459992  25.4089978  -2.7839986  48.3649992  25.9829978  -2.0269986
  48.9009992  24.7209978  -2.6689986  48.3508684  25.3945194  -2.6648326
  48.5939992  21.5039978 -11.0299986  48.2469992  22.1209978 -10.3859986
  49.2529992  22.0049978 -11.5119986  48.6355090  21.6561575 -11.0069319
  45.5169992  35.8689978 -13.9589986  45.6779992  36.6689978 -14.4589986
  45.3199992  36.1759978 -13.0739986  45.5123906  36.0198678 -13.9077667
  44.2519992  22.5669978 -14.3429986  44.1679992  23.4549978 -13.9959986
  45.1419992  22.3019978 -14.1109986  44.3608163  22.6527179 -14.2641404
  54.4499992  23.3159978  -1.9489986  53.5339992  23.5779978  -2.0359986
  54.7859992  23.3129978  -2.8449986  54.3698499  23.3515163  -2.0821234
  53.0529992  27.0659978  -7.8529986  52.2549992  26.6509978  -8.1809986
  53.4979992  26.3759978  -7.3619986  53.0039684  26.9158628  -7.8314773
  42.5099992  32.9939978 -15.2829986  43.1019992  33.6939978 -15.0059986
  42.9689992  32.5609978 -16.0019986  42.6531652  33.0312675 -15.3423467
  40.8259992  25.6589978 -16.1669986  40.7809992  26.5979978 -15.9879986
  39.9379992  25.4229978 -16.4359986  40.6998166  25.7556687 -16.1788476
  54.1389992  36.3219978  -6.2309986  53.9829992  37.0009978  -6.8879986
  55.0719992  36.3939978  -6.0279986  54.2437387  36.4246390  -6.2934658
  41.6339992  20.4399978  -7.4929986  41.4049992  20.4989978  -8.4209986
  41.1919992  19.6489978  -7.1869986  41.5428801  20.3410540  -7.5785271
  40.5649992  34.3809978 -11.3329986  39.7319992  34.8529978 -11.3059986
  41.1099992  34.8909978 -11.9319986  40.5247857  34.5144791 -11.4102858
  39.8529992  36.9929978  -0.0029986  40.3929992  36.7769978   0.7570014
  39.3719992  36.1879978  -0.1929986  39.8619219  36.8545156   0.0754282
  44.4499992  35.9129978   1.6170014  45.2179992  35.4539978   1.9580014
  44.4289992  35.6869978   0.6870014  44.5522135  35.8196668   1.5379491
  48.5419992  35.4209978 -17.0069986  47.8979992  34.7899978 -16.6859986
  49.3039992  34.8899978 -17.2389986  48.5568058  35.2627902 -16.9943962
  51.0269992  34.2929978   0.3460014  50.6759992  33.4359978   0.5900014
  51.7529992  34.4349978   0.9530014  51.0771895  34.1951351   0.4613770
  53.1469992  35.2379978 -16.7739986  53.4299992  34.4429978 -16.3209986
  53.8859992  35.4709978 -17.3349986  53.2857096  35.1607049 -16.7878896
  39.7599992  30.8039978   0.9510014  39.9039992  29.9019978   0.6650014
  38.9879992  31.0899978   0.4640014  39.6752733  30.7191798   0.8459532
  44.1009992  31.1469978 -16.9159986  44.1659992  30.3529978 -16.3859986
  44.7539992  31.0289978 -17.6059986  44.1981605  31.0223430 -16.9367003
  46.4149992  30.7729978   0.3840014  46.0869992  31.0439978  -0.4729986
  46.5669992  29.8319978   0.2960014  46.3906412  30.6829046   0.2547822
  52.1499992  30.6889978  -2.2329986  52.8949992  31.2779978  -2.3519986
  51.3929992  31.2709978  -2.1689986  52.1495470  30.8482128  -2.2406201
  40.5929992  28.0039978   0.3710014  41.0009992  27.1469978   0.2500014
  40.3319992  28.0179978   1.2920014  40.6136016  27.8885119   0.4789192
  45.2509992  29.1199978 -14.6099986  44.7909992  28.6359978 -13.9249986
  45.5059992  28.4509978 -15.2459986  45.2224856  28.9633669 -14.6021603
  44.5399992  27.0129978  -2.2539986  43.9209992  27.6869978  -1.9739986
  44.8839992  27.3339978  -3.0879986  44.5017123  27.1486887  -2.3283612
  46.3219992  27.3629978 -16.3479986  46.1409992  27.2079978 -17.2749986
  47.2719992  27.4709978 -16.3029986  46.4256566  27.3563669 -16.4689071
  49.5589992  29.4839978   1.0230014  50.5129992  29.5679978   0.9960014
  49.3989992  28.7719978   1.6430014  49.6677182  29.3992842   1.1030733
  55.7119992  29.7169978 -16.9019986  55.4379992  29.2929978 -17.7149986
  55.7509992  30.6489978 -17.1189986  55.6797716  29.7848827 -17.0425714
  44.8789992  24.3679978  -1.1719986  45.0289992  23.6389978  -1.7739986
  44.8809992  25.1449978  -1.7309986  44.8997967  24.3732708  -1.3299459
  45.2919992  22.7369978  -3.6789986  45.8269992  23.1889978  -4.3309986
  44.4389992  22.6289978  -4.1019986  45.2500374  22.7842665  -3.8253290
  46.8729992  28.1769978  -3.4399986  47.6239992  28.0209978  -4.0129986
  46.5339992  29.0289978  -3.7149986  46.9299587  28.2708138  -3.5555922
  51.2889992  25.9919978   1.5890014  51.4809992  25.0609978   1.4770014
  52.1469992  26.4169978   1.5780014  51.4312182  25.9220070   1.5721862
  52.6059992  28.7809978  -0.3339986  52.3239992  29.4899978  -0.9119986
  53.5479992  28.7079978  -0.4849986  52.6947921  28.8682193  -0.4335775
  43.3579992  25.5659978   0.7390014  42.5899992  25.0329978   0.5290014
  44.0359992  25.2559978   0.1400014  43.3447235  25.4511754   0.6292413
  46.0969992  20.1939978  -3.2479986  45.9989992  21.1399978  -3.3529986
  45.3549992  19.8209978  -3.7239986  45.9832534  20.2731773  -3.3267400
  47.3609992  24.5149978   0.3160014  47.1259992  24.2959978   1.2170014
  46.5779992  24.3079978  -0.1939986  47.2229095  24.4569892   0.3705353
  50.0769992  23.6429978  -0.6089986  49.1289992  23.6749978  -0.4769986
  50.3889992  23.0169978   0.0450014  49.9895293  23.5627923  -0.5025852
  51.7109992  22.2769978   1.3960014  51.6139992  21.3249978   1.3910014
  51.3889992  22.5449978   2.2570014  51.6542468  22.1830884   1.5116210
  41.5379992  23.4859978   0.4440014  41.7499992  22.7799978  -0.1659986
  41.4269992  23.0489978   1.2880014  41.5520269  23.3301921   0.4745873
  46.3189992  19.4879978  -0.5769986  47.0309992  18.8479978  -0.5909986
  46.2179992  19.7539978  -1.4899986  46.4027387  19.4364330  -0.7024437
  46.6729992  21.1699978   1.4770014  46.5409992  20.6949978   0.6570014
  46.0729992  21.9149978   1.4220014  46.5739070  21.2055789   1.3573251
  46.2189992  38.0529978 -15.3469986  47.1519992  38.2109978 -15.2029986
  45.9549992  38.7289978 -15.9719986  46.3109911  38.1659373 -15.4117278
  39.7869992  32.6899978 -15.8639986  40.7009992  32.7689978 -15.5909986
  39.7949992  32.0029978 -16.5299986  39.9130655  32.6079205 -15.9167083
  38.4359992  38.0829978 -10.7869986  37.7889992  37.6209978 -11.3189986
  38.7909992  37.4109978 -10.2039986  38.3953741  37.9289774 -10.7810825
  39.3059992  36.1629978  -8.9819986  38.9719992  35.2829978  -8.8099986
  39.5289992  36.5089978  -8.1169986  39.2903721  36.0891938  -8.8415832
  56.8549992  36.9729978  -6.0009986  56.8329992  37.1579978  -5.0619986
  57.5449992  37.5409978  -6.3419986  56.9453439  37.0751887  -5.9185209
  56.4179992  36.5399978  -3.0799986  55.9309992  35.8049978  -3.4509986
  56.9669992  36.1459978  -2.4019986  56.4255247  36.3861057  -3.0391539
  54.8689992  32.3299978   1.5590014  54.0029992  32.2249978   1.9530014
  55.2449992  33.0879978   2.0050014  54.8013401  32.4181708   1.6732620
  56.1699992  30.5859978 -12.9269986  57.0199992  31.0069978 -12.7999986
  56.1749992  29.8459978 -12.3199986  56.2871143  30.5436094 -12.8275250
  56.5639992  28.6399978 -11.1039986  55.8379992  28.1599978 -10.7059986
  57.1459992  28.8449978 -10.3709986  56.5432730  28.6020184 -10.9505851
  56.3229992  31.4249978  -6.1559986  57.1569992  31.0469978  -6.4369986
  56.4349992  32.3679978  -6.2749986  56.4521917  31.5007943  -6.2105139
  54.8099992  34.3029978  -3.8489986  54.1619992  34.6279978  -3.2239986
  54.2919992  33.8619978  -4.5229986  54.6514196  34.2878651  -3.8545848
  56.8329992  28.5409978 -14.7129986  56.3109992  28.8969978 -15.4309986
  56.7999992  29.2159978 -14.0339986  56.7570129  28.6809598 -14.7196645
  55.1819992  25.7799978 -16.1619986  55.2779992  26.4469978 -16.8419986
  55.0419992  24.9649978 -16.6429986  55.1762040  25.7610671 -16.3201622
  54.3509992  27.1609978 -10.5409986  54.2009992  26.2159978 -10.5609986
  53.9969992  27.4419978  -9.6969986  54.2826351  27.0696644 -10.4296780
  39.3859992  29.2389978  -6.5299986  39.5709992  29.1569978  -7.4659986
  40.2359992  29.1149978  -6.1069986  39.5260928  29.2110463  -6.6007107
  55.2069992  29.1309978  -0.9019986  55.7899992  28.3959978  -0.7099986
  55.7709992  29.9029978  -0.8549986  55.3629781  29.1348145  -0.8693836
  56.7039992  27.0339978  -0.2169986  55.8409992  26.6549978  -0.3829986
  57.3079992  26.2949978  -0.2919986  56.6676085  26.8823223  -0.2498305
  54.4289992  23.1879978 -17.0439986  55.0399992  22.8169978 -16.4069986
  53.5919992  22.7669978 -16.8479986  54.3994947  23.0802756 -16.9302748
  54.0619992  24.7429978 -12.0779986  54.3409992  23.8359978 -11.9539986
  54.8209992  25.1769978 -12.4669986  54.2028619  24.6774502 -12.1136205
  54.6729992  25.3249978  -6.6419986  55.6059992  25.5369978  -6.6769986
  54.4379992  25.4259978  -5.7199986  54.7689517  25.3676833  -6.5220870
  54.7029992  26.0619978  -3.8659986  53.8599992  26.3299978  -3.4999986
  55.1449992  26.8839978  -4.0769986  54.6474138  26.2098273  -3.8444482
  38.9839992  24.5089978  -0.3899986  39.9029992  24.3869978  -0.1529986
  38.5339992  23.7589978   0.0000014  39.0490087  24.3909608  -0.3048590
  56.9859992  20.0419978   1.4870014  57.3349992  19.3879978   0.8820014
  57.1329992  20.8789978   1.0470014  57.0536824  20.0656024   1.3446304
  54.6749992  22.0059978 -12.0299986  54.8569992  21.5569978 -11.2049986
  54.0749992  21.4219978 -12.4939986  54.6188187  21.8655552 -11.9797261
  40.2049992  22.8219978  -7.4979986  40.6499992  22.0299978  -7.1959986
  40.6709992  23.5379978  -7.0679986  40.3289718  22.8104534  -7.3984735
  38.5089992  25.8209978  -6.4289986  39.0009992  25.5999978  -7.2199986
  38.8709992  26.6609978  -6.1479986  38.6252923  25.9043468  -6.4992593
  56.5049992  22.1509978  -0.1639986  55.5879992  22.4219978  -0.1989986
  56.6279992  21.6159978  -0.9479986  56.3959672  22.1157885  -0.2748138
  56.5419992  22.0739978 -15.5019986  56.9539992  21.3529978 -15.9769986
  57.2229992  22.7429978 -15.4439986  56.6905536  22.0657766 -15.5591976
  38.8229992  22.0789978 -12.3749986  37.8979992  22.2869978 -12.5039986
  39.2769992  22.5629978 -13.0649986  38.7576298  22.1729299 -12.4859549
  53.5929992  37.0629978 -10.4289986  54.2459992  36.7149978 -11.0369986
  54.1039992  37.5509978  -9.7829986  53.7512777  37.0813815 -10.4247953
  38.7859992  20.8169978  -4.0309986  38.1209992  20.5709978  -3.3879986
  38.3429992  21.4389978  -4.6079986  38.6351168  20.8674214  -4.0210152
  40.9779992  33.9919978   0.1140014  40.1569992  34.1669978  -0.3469986
  40.7259992  33.9189978   1.0340014  40.8315594  34.0060717   0.1753611
  43.9319992  34.9659978  -3.6279986  43.5079992  35.7759978  -3.9099986
  44.8369992  35.0519978  -3.9299986  43.9962138  35.0884160  -3.7073585
  48.2439992  36.3649978  -0.6679986  48.4279992  36.0319978   0.2100014
  49.0899992  36.6749978  -0.9899986  48.3836484  36.3612979  -0.5912383
  50.5889992  37.6509978  -1.4239986  51.2659992  37.0179978  -1.6639986
  50.9099992  38.0519978  -0.6169986  50.7251323  37.6185691  -1.3476842
  55.5059992  20.2409978  -2.3449986  54.6929992  20.5659978  -2.7319986
  55.7389992  19.4799978  -2.8779986  55.4261347  20.1826880  -2.4700159
  41.3339992  38.2229978  -3.5799986  40.6139992  38.6629978  -4.0309986
  40.9689992  37.9719978  -2.7319986  41.1859643  38.2493369  -3.5270871
  43.8009992  37.8229978  -4.5499986  42.9369992  37.8949978  -4.1459986
  43.7459992  38.3699978  -5.3339986  43.6751942  37.9067849  -4.6006000
  48.5119992  37.7109978  -5.3749986  48.0549992  38.2399978  -6.0289986
  48.6749992  38.3139978  -4.6499986  48.4714960  37.8649280  -5.3664726
  50.8399992  36.5889978  -4.4299986  49.9349992  36.7539978  -4.6959986
  51.2679992  37.4419978  -4.4959986  50.7741537  36.7269134  -4.4752905
  53.4439992  38.1589978  -4.1349986  53.2619992  39.0749978  -4.3459986
  53.6209992  37.7479978  -4.9819986  53.4430030  38.2288273  -4.2782834
  40.7489992  36.8459978  -6.6699986  40.7309992  36.4199978  -5.8129986
  41.5539992  36.5269978  -7.0789986  40.8552875  36.7446435  -6.6080485
  42.8899992  35.5559978  -8.0149986  42.6709992  34.6389978  -7.8449986
  43.7139992  35.6959978  -7.5489986  42.9714702  35.4495511  -7.9287473
  45.4269992  36.0259978  -7.1659986  45.6399992  35.1379978  -7.4529986
  45.4919992  35.9909978  -6.2119986  45.4649149  35.8998326  -7.0762631
  48.9359992  21.6899978  -8.0219986  48.2619992  21.0599978  -7.7659986
  49.4999992  21.2059978  -8.6249986  48.9200384  21.5383708  -8.0684980
  54.0789992  19.7969978  -7.9089986  54.6819992  20.3449978  -8.4109986
  53.2089992  20.1159978  -8.1499986  54.0439157  19.9150373  -8.0102090
  55.8059992  20.9359978  -9.5759986  56.4169992  20.4219978 -10.1029986
  56.1879992  21.8129978  -9.5529986  55.9413305  20.9842050  -9.6450582
  41.2629992  20.3239978 -10.1999986  40.4859992  20.0889978 -10.7069986
  41.7929992  19.5269978 -10.1909986  41.2283451  20.1841268 -10.2681373
  40.0989992  20.1219978 -14.3959986  40.5379992  20.7329978 -14.9879986
  39.4649992  20.6599978 -13.9219986  40.0733859  20.2784064 -14.4129695
  45.8419992  20.2499978 -10.3869986  46.7159992  20.6389978 -10.4159986
  45.7059992  20.0349978  -9.4639986  45.9431953  20.2741643 -10.2662383
  51.3989992  20.2799978  -8.7369986  51.4749992  20.3759978  -9.6869986
  51.1239992  19.3729978  -8.6089986  51.3721871  20.1704146  -8.8496056
  52.7519992  20.3059978 -13.0449986  52.0489992  20.9209978 -13.2549986
  52.3069992  19.4689978 -12.9139986  52.5956550  20.2769668 -13.0560163
  39.9999992  36.0699978 -13.4989986  39.3149992  36.0319978 -14.1659986
  40.0039992  36.9829978 -13.2109986  39.9067621  36.1881924 -13.5513874
  41.9599992  22.0379978 -15.9539986  42.4509992  21.4079978 -16.4809986
  42.5829992  22.3339978 -15.2909986  42.1115304  21.9917376 -15.9365060
  46.9859992  22.3309978 -13.4969986  47.1639992  21.6839978 -12.8139986
  46.9319992  23.1649978 -13.0299986  47.0030678  22.3551604 -13.3403699
  48.8639992  37.2789978 -15.1009986  49.7299992  37.6459978 -15.2789986
  48.6179992  36.8399978 -15.9149986  48.9492097  37.2698525 -15.2353981
  55.5729992  36.8419978 -12.4219986  55.3789992  36.0939978 -12.9869986
  55.5339992  37.5999978 -13.0049986  55.5411645  36.8420786 -12.5781852
  41.2199992  20.8379978  -0.6819986  40.8539992  20.0719978  -0.2399986
  42.1329992  20.8669978  -0.3959986  41.2933172  20.7370324  -0.5828110
  43.1929992  20.1879978   0.8530014  44.0919992  19.9139978   0.6690014
  42.8069992  19.4459978   1.3180014  43.2637307  20.0502196   0.8907098
  41.8179992  36.9899978 -16.4739986  41.5499992  37.2759978 -15.5999986
  42.5889992  36.4439978 -16.3209986  41.8855926  36.9552779 -16.3338795
  51.6149992  19.5209978   1.0360014  51.6909992  19.0949978   1.8890014
  52.5079992  19.5339978   0.6930014  51.7462303  19.4643493   1.1065497
  54.7909992  35.5939978  -0.2719986  54.0089992  35.4069978  -0.7919986
  54.7189992  36.5229978  -0.0549986  54.6741924  35.6940637  -0.3138398
  69.1969992  29.4799978 -10.2409986  69.2859992  30.4239978 -10.3729986
  68.5589992  29.2049978 -10.8989986  69.1229062  29.5719812 -10.3480359
  68.1299992  28.7349978  -6.8219986  68.0919992  28.0889978  -6.1169986
  67.8079992  28.2679978  -7.5929986  68.0812679  28.5834276  -6.8297079
  60.4979992  28.3489978  -5.2289986  60.5399992  27.7239978  -4.5059986
  61.2009992  28.9729978  -5.0469986  60.5987345  28.3477873  -5.1054726
  71.8359992  31.6739978  -8.5209986  71.3949992  30.9539978  -8.0699986
  71.8229992  32.3949978  -7.8909986  71.7739215  31.6729291  -8.3741895
  61.4219992  32.7989978  -6.6939986  61.0519992  31.9969978  -7.0639986
  62.3629992  32.6309978  -6.6479986  61.4985984  32.6664638  -6.7384397
  58.0319992  26.4589978 -11.3019986  57.5839992  27.3049978 -11.3199986
  57.4709992  25.8799978 -11.8169986  57.8948546  26.4963993 -11.3741109
  58.7419992  28.6209978  -9.1759986  58.9559992  27.8509978  -8.6479986
  59.4799992  28.7109978  -9.7789986  58.8710200  28.5278587  -9.1852965
  68.9479992  36.7779978  -8.3089986  69.5669992  36.1019978  -8.5819986
  68.7389992  36.5599978  -7.3999986  69.0046056  36.6558869  -8.2236033
  66.5189992  31.1669978  -6.4159986  66.8229992  30.4809978  -7.0109986
  67.2409992  31.2859978  -5.7979986  66.6581240  31.0892314  -6.4139041
  75.1819992  22.7689978  -5.5559986  75.2319992  23.3789978  -4.8199986
  75.6079992  23.2299978  -6.2789986  75.2464108  22.9147709  -5.5529888
  69.6599992  25.5609978  -6.0889986  69.8029992  24.6149978  -6.0689986
  69.5539992  25.7679978  -7.0169986  69.6652403  25.4594797  -6.2117761
  62.8149992  23.6629978  -8.8159986  62.8579992  24.5229978  -9.2349986
  62.3569992  23.1109978  -9.4499986  62.7589871  23.7059245  -8.9589239
  70.5369992  23.7939978 -10.4149986  71.1839992  23.4649978  -9.7909986
  71.0469992  24.3109978 -11.0379986  70.6944351  23.8189067 -10.4138963
  59.4349992  26.0599978  -8.0539986  60.0889992  25.5099978  -7.6219986
  59.4589992  25.7859978  -8.9709986  59.5277199  25.9477167  -8.1188332
  64.5919992  27.6099978  -8.8389986  65.2079992  27.0829978  -8.3299986
  64.0049992  26.9699978  -9.2429986  64.5970154  27.4513954  -8.8239055
  75.5739992  24.2469978  -3.3199986  74.8849992  24.9049978  -3.4149986
  75.5889992  24.0489978  -2.3829986  75.4817756  24.3102603  -3.2064188
  61.6249992  22.5809978  -4.7419986  61.4059992  23.1109978  -5.5089986
  60.9569992  22.8069978  -4.0949986  61.5046975  22.6840967  -4.7594860
  68.9939992  32.0809978 -11.1979986  68.6989992  31.7579978 -12.0499986
  68.6699992  32.9809978 -11.1569986  68.9098460  32.1584464 -11.3090286
  64.1939992  30.2559978  -4.4549986  63.4539992  30.8549978  -4.3509986
  64.9079992  30.8099978  -4.7699986  64.1893500  30.4127829  -4.4833629
  72.3009992  23.0849978  -8.4349986  72.0859992  22.3189978  -7.9019986
  72.9569992  23.5569978  -7.9219986  72.3602673  23.0440728  -8.2928010
  61.2189992  24.4729978  -6.7899986  61.8329992  25.1059978  -6.4169986
  61.7309992  24.0009978  -7.4459986  61.3721962  24.4957249  -6.8277065
  62.6019992  32.2209978  -3.6679986  62.5959992  33.0999978  -4.0459986
  61.7479992  32.1369978  -3.2429986  62.4857925  32.3299535  -3.6623113
  58.7229992  31.8919978 -12.8859986  58.4509992  32.1209978 -13.7739986
  58.7679992  32.7289978 -12.4249986  58.6918097  32.0366163 -12.9453317
  72.3479992  33.5129978  -6.1729986  71.4059992  33.5719978  -6.0109986
  72.6239992  34.4189978  -6.3099986  72.2565865  33.6435288  -6.1693808
  72.6479992  21.7999978  -4.7559986  71.9119992  22.4099978  -4.7929986
  73.3319992  22.2149978  -5.2819986  72.6395367  21.9397551  -4.8321826
  65.6519992  19.8859978  -7.2899986  65.5339992  18.9379978  -7.3439986
  64.7969992  20.2189978  -7.0169986  65.5202805  19.8012202  -7.2604921
  70.5999992  35.2939978  -9.5479986  71.0249992  34.5869978 -10.0329986
  70.9169992  36.0959978  -9.9649986  70.7010266  35.3055190  -9.6707521
  71.7599992  33.1949978 -11.0389986  71.5019992  32.5049978 -11.6509986
  71.8309992  32.7519978 -10.1939986  71.7343050  33.0406814 -11.0084379
  73.4459992  31.7619978  -2.5619986  73.5849992  31.1699978  -3.3009986
  73.6129992  32.6349978  -2.9179986  73.4876193  31.7988896  -2.7113789
  67.9179992  28.7239978 -12.7889986  67.2069992  29.2589978 -13.1409986
  68.6089992  28.7789978 -13.4489986  67.9140751  28.8046777 -12.9264142
  67.9719992  27.1809978 -15.7509986  68.6729992  27.2039978 -15.0989986
  68.2739992  26.5529978 -16.4069986  68.1088202  27.0992212 -15.7504391
  75.2869992  28.1019978  -4.4959986  74.6349992  28.7959978  -4.4069986
  75.7529992  28.3119978  -5.3059986  75.2605937  28.2255019  -4.5932467
  71.3239992  28.9329978 -11.8379986  70.5919992  29.1619978 -11.2639986
  71.7709992  28.2199978 -11.3829986  71.2843963  28.8678729 -11.6980055
  71.2209992  27.1079978  -2.7699986  71.3009992  27.8709978  -2.1979986
  70.6199992  27.3869978  -3.4599986  71.1506547  27.2502457  -2.7849953
  62.9689992  29.5639978  -9.9549986  62.6389992  29.1929978 -10.7729986
  63.5579992  28.8929978  -9.6079986  63.0033970  29.4226063 -10.0200596
  64.3359992  32.9919978  -7.2739986  64.2409992  32.4129978  -8.0299986
  65.0649992  32.6209978  -6.7779986  64.4216011  32.8625561  -7.3103972
  63.3359992  28.3319978  -6.3219986  63.9009992  28.4539978  -7.0839986
  63.6549992  28.9699978  -5.6829986  63.4564166  28.4348791  -6.3399652
  69.6449992  33.8359978  -5.5879986  69.4049992  34.4979978  -4.9399986
  69.4469992  33.0009978  -5.1629986  69.5853826  33.8138115  -5.4418434
  64.2159992  32.7319978  -1.6039986  63.9049992  33.5139978  -1.1489986
  63.5659992  32.5789978  -2.2899986  64.0855538  32.8184087  -1.6344102
  70.1949992  28.0959978 -14.1519986  70.7739992  28.2459978 -13.4059986
  70.6089992  28.5659978 -14.8759986  70.3303358  28.1800954 -14.1476047
  61.1359992  28.9299978  -2.3759986  61.2059992  29.5809978  -1.6769986
  60.2449992  29.0329978  -2.7109986  61.0251690  29.0329249  -2.3256957
  67.9209992  34.8319978 -10.7169986  68.3949992  35.1279978  -9.9399986
  67.3579992  35.5709978 -10.9499986  67.9097890  34.9723036 -10.6421899
  62.4549992  34.8029978  -0.8409986  62.4629992  34.6669978  -1.7879986
  61.5389992  34.6859978  -0.5889986  62.3322528  34.7685463  -0.9366757
  73.8939992  19.8459978 -14.3389986  72.9939992  19.9849978 -14.0439986
  74.1459992  20.6769978 -14.7409986  73.8048683  19.9774055 -14.3529768
  61.9599992  28.6329978 -12.3659986  61.6679992  29.4009978 -12.8569986
  61.2849992  27.9739978 -12.5289986  61.8288497  28.6489745 -12.4551740
  75.0829992  34.2119978 -15.9629986  75.1559992  35.1509978 -15.7929986
  75.9879992  33.9069978 -16.0189986  75.2154170  34.2993282 -15.9472937
  58.0529992  30.9959978  -3.5509986  57.5509992  30.9679978  -4.3659986
  58.0579992  30.0909978  -3.2409986  57.9849832  30.8697486  -3.6205879
  57.8029992  33.7769978  -6.6669986  58.7489992  33.6319978  -6.6859986
  57.6899992  34.5609978  -6.1299986  57.9173578  33.8631697  -6.5969683
  76.0009992  34.4429978  -0.9839986  75.9509992  33.4869978  -1.0219986
  75.1739992  34.7099978  -0.5829986  75.8823831  34.3484680  -0.9349879
  66.9789992  34.0169978  -2.1079986  67.0669992  34.8429978  -1.6329986
  66.1159992  33.6869978  -1.8589986  66.8743357  34.0855468  -2.0092347
  67.3939992  37.7889978 -12.3019986  67.3179992  37.6679978 -13.2489986
  67.4259992  38.7379978 -12.1839986  67.3879380  37.9007677 -12.4154819
  61.0469992  36.5779978 -10.5209986  61.1989992  36.2299978  -9.6429986
  60.1959992  36.2209978 -10.7769986  60.9528344  36.4820879 -10.4353132
  70.4949992  36.9429978 -15.2999986  70.8699992  36.1989978 -15.7709986
  70.4999992  36.6729978 -14.3819986  70.5470098  36.8046392 -15.2403371
  70.1639992  36.8689978 -12.5509986  69.2289992  36.9689978 -12.3719986
  70.4439992  36.1589978 -11.9719986  70.0739471  36.7867933 -12.4483305
  73.1529992  25.9359978  -0.5039986  72.7449992  26.4159978  -1.2249986
  73.1929992  25.0299978  -0.8119986  73.1026221  25.8792449  -0.6441733
  60.3019992  32.3199978  -2.5079986  60.5179992  31.9579978  -1.6479986
  59.4459992  31.9449978  -2.7169986  60.2158810  32.2198837  -2.4187320
  62.9199992  20.7899978  -6.5119986  62.0589992  20.7029978  -6.9199986
  62.8979992  21.6459978  -6.0839986  62.7990491  20.8938003  -6.5100418
  67.5829992  20.5119978  -3.1369986  68.0029992  20.0969978  -2.3839986
  66.6499992  20.3329978  -3.0199986  67.5143736  20.4309910  -3.0181032
  70.9099992  24.2669978  -2.2839986  70.3959992  24.1419978  -1.4859986
  70.7539992  25.1799978  -2.5279986  70.8186967  24.3732123  -2.2079063
  71.6719992  29.1279978 -16.5229986  71.7139992  28.9059978 -17.4529986
  72.5209992  29.5269978 -16.3329986  71.7925253  29.1515498 -16.6246178
  67.2449992  23.0039978 -15.8519986  66.9909992  23.0229978 -14.9299986
  66.9879992  22.1329978 -16.1539986  67.1754508  22.8888280 -15.7665197
  63.0109992  25.7549978  -5.4169986  62.3699992  25.7149978  -4.7079986
  63.0489992  26.6819978  -5.6549986  62.9283010  25.8747668  -5.3520054
  63.0079992  25.9759978 -10.5049986  62.1159992  25.6359978 -10.5639986
  63.4589992  25.5989978 -11.2609986  62.9467642  25.8784910 -10.6152274
  68.5439992  26.3919978 -11.6879986  68.1349992  27.2069978 -11.9799986
  69.2639992  26.2519978 -12.3019986  68.5854439  26.4845372 -11.8109885
  67.6459992  26.5679978  -0.1999986  67.0829992  25.8629978   0.1210014
  68.4719992  26.4469978   0.2680014  67.6806674  26.4552165  -0.0928249
  69.5489992  25.8379978  -8.8739986  69.3529992  26.4439978  -9.5889986
  69.7299992  25.0049978  -9.3079986  69.5466584  25.8082513  -9.0305788
  60.7609992  26.0759978  -3.5499986  60.7229992  26.4759978  -2.6809986
  60.2709992  25.2589978  -3.4599986  60.6895330  26.0202674  -3.4188711
  64.1269992  23.4499978 -16.7509986  63.6959992  23.0049978 -16.0219986
  63.4089992  23.8209978 -17.2639986  63.9709176  23.4392051 -16.7205070
  57.3699992  23.1919978  -9.6989986  57.9999992  23.1629978  -8.9799986
  57.8189992  22.7669978 -10.4299986  57.5170835  23.1305660  -9.6992341
  58.6439992  23.9379978 -14.2749986  59.1179992  24.5289978 -14.8599986
  57.9259992  24.4679978 -13.9279986  58.6118640  24.0905511 -14.3082031
  68.8129992  27.4759978  -4.2029986  69.1359992  26.8449978  -4.8459986
  68.3719992  26.9419978  -3.5419986  68.7976379  27.3173468  -4.2017418
  65.5899992  23.4039978  -9.4189986  64.6789992  23.4609978  -9.1299986
  66.0949992  23.3439978  -8.6079986  65.5336873  23.4036826  -9.2698793
  60.4179992  25.0329978 -10.5919986  59.5289992  25.1319978 -10.9319986
  60.7149992  24.1909978 -10.9379986  60.3364177  24.9327687 -10.6853060
  64.0709992  25.0329978 -12.9349986  65.0029992  25.1619978 -12.7569986
  63.8559992  25.7019978 -13.5849986  64.1694472  25.1410806 -12.9985109
  69.9949992  22.6389978  -6.1539986  69.3179992  22.7699978  -5.4909986
  69.5099992  22.4839978  -6.9649986  69.8367405  22.6359947  -6.1727830
  62.7449992  26.2269978 -15.3689986  62.2029992  25.8479978 -16.0599986
  63.5789992  26.4219978 -15.7969986  62.7834390  26.2014079 -15.5215608
  73.2829992  38.3099978   0.1220014  73.4819992  38.7339978  -0.7119986
  73.9379992  38.6539978   0.7290014  73.3988522  38.4146301   0.0897852
  60.8809992  30.7839978  -0.2699986  61.6129992  31.0389978   0.2920014
  60.0999992  30.9889978   0.2460014  60.8756526  30.8465450  -0.1234824
  66.9099992  26.1909978  -7.5319986  67.4739992  25.6449978  -8.0789986
  66.7619992  25.6699978  -6.7429986  66.9673037  26.0456787  -7.5002771
  61.9119992  22.3279978 -11.1129986  61.5949992  21.4249978 -11.1489986
  62.6929992  22.3299978 -11.6659986  61.9742431  22.2047797 -11.1926898
  65.5359992  24.5799978  -5.1179986  64.7009992  25.0339978  -5.0069986
  66.0599992  24.8559978  -4.3659986  65.4926072  24.6793948  -5.0011864
  66.0809992  30.7929978 -13.4329986  65.3359992  30.2849978 -13.7549986
  65.9459992  30.8419978 -12.4869986  65.9608963  30.7301731 -13.3491174
  73.2309992  29.9259978  -4.6459986  73.8719992  30.3819978  -5.1899986
  72.3999992  30.0389978  -5.1089986  73.2065287  30.0036921  -4.7830113
  69.9779992  23.6069978 -15.2339986  69.0399992  23.7179978 -15.3849986
  70.2759992  24.4629978 -14.9269986  69.8896318  23.7380158 -15.2131855
  67.5999992  30.9769978  -2.1959986  67.2539992  30.5949978  -1.3889986
  67.3999992  31.9099978  -2.1249986  67.5255987  31.0509002  -2.0759539
  70.6969992  25.4739978 -13.5729986  71.5889992  25.3359978 -13.2539986
  70.7529992  26.2649978 -14.1099986  70.8267325  25.5619918 -13.6018783
  61.2049992  30.0879978  -7.6629986  61.9499992  30.0849978  -8.2649986
  61.2829992  29.2639978  -7.1819986  61.3173365  29.9762384  -7.6802570
  68.2059992  32.2509978 -14.4079986  67.9109992  33.0779978 -14.0259986
  67.5029992  31.6319978 -14.2109986  68.0706379  32.2804171 -14.3291346
  58.2129992  28.5479978  -2.3479986  58.4359992  28.1299978  -1.5169986
  57.6109992  27.9359978  -2.7709986  58.1621513  28.4079606  -2.2913260
  65.2299992  28.0649978  -0.1349986  64.9339992  27.8999978  -1.0309986
  66.1609992  27.8449978  -0.1459986  65.3154401  28.0126879  -0.2589794
  69.8499992  33.4389978  -2.2459986  68.9499992  33.6219978  -2.5129986
  69.8839992  33.6979978  -1.3249986  69.7313748  33.4990554  -2.1580836
  75.5819992  25.6829978 -13.8779986  75.0269992  25.2869978 -14.5509986
  75.6819992  26.5939978 -14.1559986  75.5196816  25.7519505 -14.0074967
  75.5449992  31.4839978  -1.0409986  74.6939992  31.7219978  -1.4089986
  76.1349992  31.4669978  -1.7939986  75.5083812  31.5142524  -1.1931547
  73.8769992  34.4689978 -13.4129986  73.5039992  33.6439978 -13.1039986
  74.1539992  34.2859978 -14.3109986  73.8633463  34.3312569 -13.4920475
  71.0369992  29.2769978  -6.3919986  70.1089992  29.0459978  -6.4189986
  71.4879992  28.4999978  -6.7219986  70.9708165  29.1402774  -6.4403210
  63.5799992  33.6059978 -10.2589986  64.1079992  34.3789978 -10.4589986
  62.6999992  33.8299978 -10.5609986  63.5333435  33.7422700 -10.3272690
  59.3349992  28.4679978 -15.6719986  59.9509992  29.0949978 -15.2919986
  58.4729992  28.7839978 -15.3999986  59.3027678  28.5964412 -15.5832791
  65.0079992  31.2689978 -10.6829986  64.7669992  32.1939978 -10.6409986
  64.2669992  30.8099978 -10.2859986  64.8749206  31.3335915 -10.6236231
  65.5219992  35.4179978  -4.3679986  65.8849992  36.2719978  -4.6009986
  66.0539992  35.1259978  -3.6269986  65.6435141  35.4953895  -4.2997903
  63.6909992  36.2899978 -11.1369986  62.7409992  36.3959978 -11.0859986
  64.0429992  37.1109978 -10.7929986  63.6085472  36.4154923 -11.0835148
  69.0659992  31.5169978  -4.6669986  68.6409992  31.2889978  -3.8409986
  69.6469992  30.7779978  -4.8489986  69.0863395  31.3859545  -4.5785586
  71.2689992  32.4459978 -15.5929986  71.6229992  32.0659978 -14.7889986
  70.3209992  32.3519978 -15.5059986  71.1892298  32.3812452 -15.4711313
  71.7249992  36.0689978  -2.1979986  71.1229992  35.5129978  -2.6929986
  72.0059992  36.7359978  -2.8239986  71.6805757  36.0830744  -2.3504325
  75.7729992  36.9249978 -15.3919986  76.5169992  37.5109978 -15.5319986
  75.0789992  37.4939978 -15.0589986  75.7809809  37.0820818 -15.3661410
  59.8469992  23.3019978  -2.7899986  58.9549992  23.6399978  -2.8579986
  59.7489992  22.4459978  -2.3719986  59.7114475  23.2326543  -2.7428296
  72.1349992  31.1179978 -13.3659986  71.8579992  30.3899978 -12.8099986
  73.0629992  31.2369978 -13.1609986  72.2224499  31.0344213 -13.2621956
  59.4989992  35.1059978  -4.3549986  59.7159992  34.1739978  -4.3859986
  59.7449992  35.3809978  -3.4719986  59.5619809  35.0155686  -4.2398309
  64.2969992  33.1279978 -14.6899986  64.4439992  32.6079978 -13.8999986
  64.2939992  34.0349978 -14.3829986  64.3167102  33.1793953 -14.5404075
  60.7499992  30.3799978 -14.1789986  60.0639992  30.7329978 -13.6119986
  61.2729992  31.1429978 -14.4259986  60.7268402  30.5313901 -14.1348199
  68.5819992  23.0429978  -3.8999986  69.2809992  23.1169978  -3.2499986
  68.2009992  22.1779978  -3.7459986  68.6262097  22.9362389  -3.7902003
  69.3659992  22.6949978 -12.8029986  69.5859992  23.1659978 -13.6069986
  69.9249992  23.0889978 -12.1329986  69.4716731  22.8127287 -12.8224967
  67.0349992  34.8249978 -13.9399986  66.2179992  35.3219978 -13.8879986
  67.5639992  35.3009978 -14.5809986  66.9948125  34.9571989 -14.0194694
  66.5659992  24.4229978 -11.9679986  67.3779992  24.9269978 -11.9219986
  66.3219992  24.2779978 -11.0539986  66.6441467  24.4723749 -11.8381425
  67.1019992  25.4089978  -2.7839986  67.2209992  25.9829978  -2.0269986
  67.7569992  24.7209978  -2.6689986  67.2068684  25.3945194  -2.6648326
  67.4499992  21.5039978 -11.0299986  67.1029992  22.1209978 -10.3859986
  68.1089992  22.0049978 -11.5119986  67.4915090  21.6561575 -11.0069319
  64.3729992  35.8689978 -13.9589986  64.5339992  36.6689978 -14.4589986
  64.1759992  36.1759978 -13.0739986  64.3683906  36.0198678 -13.9077667
  63.1079992  22.5669978 -14.3429986  63.0239992  23.4549978 -13.9959986
  63.9979992  22.3019978 -14.1109986  63.2168163  22.6527179 -14.2641404
  73.3059992  23.3159978  -1.9489986  72.3899992  23.5779978  -2.0359986
  73.6419992  23.3129978  -2.8449986  73.2258499  23.3515163  -2.0821234
  71.9089992  27.0659978  -7.8529986  71.1109992  26.6509978  -8.1809986
  72.3539992  26.3759978  -7.3619986  71.8599684  26.9158628  -7.8314773
  61.3659992  32.9939978 -15.2829986  61.9579992  33.6939978 -15.0059986
  61.8249992  32.5609978 -16.0019986  61.5091652  33.0312675 -15.3423467
  59.6819992  25.6589978 -16.1669986  59.6369992  26.5979978 -15.9879986
  58.7939992  25.4229978 -16.4359986  59.5558166  25.7556687 -16.1788476
  72.9949992  36.3219978  -6.2309986  72.8389992  37.0009978  -6.8879986
  73.9279992  36.3939978  -6.0279986  73.0997387  36.4246390  -6.2934658
  60.4899992  20.4399978  -7.4929986  60.2609992  20.4989978  -8.4209986
  60.0479992  19.6489978  -7.1869986  60.3988801  20.3410540  -7.5785271
  59.4209992  34.3809978 -11.3329986  58.5879992  34.8529978 -11.3059986
  59.9659992  34.8909978 -11.9319986  59.3807857  34.5144791 -11.4102858
  58.7089992  36.9929978  -0.0029986  59.2489992  36.7769978   0.7570014
  58.2279992  36.1879978  -0.1929986  58.7179219  36.8545156   0.0754282
  63.3059992  35.9129978   1.6170014  64.0739992  35.4539978   1.9580014
  63.2849992  35.6869978   0.6870014  63.4082135  35.8196668   1.5379491
  67.3979992  35.4209978 -17.0069986  66.7539992  34.7899978 -16.6859986
  68.1599992  34.8899978 -17.2389986  67.4128058  35.2627902 -16.9943962
  69.8829992  34.2929978   0.3460014  69.5319992  33.4359978   0.5900014
  70.6089992  34.4349978   0.9530014  69.9331895  34.1951351   0.4613770
  72.0029992  35.2379978 -16.7739986  72.2859992  34.4429978 -16.3209986
  72.7419992  35.4709978 -17.3349986  72.1417096  35.1607049 -16.7878896
  58.6159992  30.8039978   0.9510014  58.7599992  29.9019978   0.6650014
  57.8439992  31.0899978   0.4640014  58.5312733  30.7191798   0.8459532
  62.9569992  31.1469978 -16.9159986  63.0219992  30.3529978 -16.3859986
  63.6099992  31.0289978 -17.6059986  63.0541605  31.0223430 -16.9367003
  65.2709992  30.7729978   0.3840014  64.9429992  31.0439978  -0.4729986
  65.4229992  29.8319978   0.2960014  65.2466412  30.6829046   0.2547822
  71.0059992  30.6889978  -2.2329986  71.7509992  31.2779978  -2.3519986
  70.2489992  31.2709978  -2.1689986  71.0055470  30.8482128  -2.2406201
  59.4489992  28.0039978   0.3710014  59.8569992  27.1469978   0.2500014
  59.1879992  28.0179978   1.2920014  59.4696016  27.8885119   0.4789192
  64.1069992  29.1199978 -14.6099986  63.6469992  28.6359978 -13.9249986
  64.3619992  28.4509978 -15.2459986  64.0784856  28.9633669 -14.6021603
  63.3959992  27.0129978  -2.2539986  62.7769992  27.6869978  -1.9739986
  63.7399992  27.3339978  -3.0879986  63.3577123  27.1486887  -2.3283612
  65.1779992  27.3629978 -16.3479986  64.9969992  27.2079978 -17.2749986
  66.1279992  27.4709978 -16.3029986  65.2816566  27.3563669 -16.4689071
  68.4149992  29.4839978   1.0230014  69.3689992  29.5679978   0.9960014
  68.2549992  28.7719978   1.6430014  68.5237182  29.3992842   1.1030733
  74.5679992  29.7169978 -16.9019986  74.2939992  29.2929978 -17.7149986
  74.6069992  30.6489978 -17.1189986  74.5357716  29.7848827 -17.0425714
  63.7349992  24.3679978  -1.1719986  63.8849992  23.6389978  -1.7739986
  63.7369992  25.1449978  -1.7309986  63.7557967  24.3732708  -1.3299459
  64.1479992  22.7369978  -3.6789986  64.6829992  23.1889978  -4.3309986
  63.2949992  22.6289978  -4.1019986  64.1060374  22.7842665  -3.8253290
  65.7289992  28.1769978  -3.4399986  66.4799992  28.0209978  -4.0129986
  65.3899992  29.0289978  -3.7149986  65.7859587  28.2708138  -3.5555922
  70.1449992  25.9919978   1.5890014  70.3369992  25.0609978   1.4770014
  71.0029992  26.4169978   1.5780014  70.2872182  25.9220070   1.5721862
  71.4619992  28.7809978  -0.3339986  71.1799992  29.4899978  -0.9119986
  72.4039992  28.7079978  -0.4849986  71.5507921  28.8682193  -0.4335775
  62.2139992  25.5659978   0.7390014  61.4459992  25.0329978   0.5290014
  62.8919992  25.2559978   0.1400014  62.2007235  25.4511754   0.6292413
  64.9529992  20.1939978  -3.2479986  64.8549992  21.1399978  -3.3529986
  64.2109992  19.8209978  -3.7239986  64.8392534  20.2731773  -3.3267400
  66.2169992  24.5149978   0.3160014  65.9819992  24.2959978   1.2170014
  65.4339992  24.3079978  -0.1939986  66.0789095  24.4569892   0.3705353
  68.9329992  23.6429978  -0.6089986  67.9849992  23.6749978  -0.4769986
  69.2449992  23.0169978   0.0450014  68.8455293  23.5627923  -0.5025852
  70.5669992  22.2769978   1.3960014  70.4699992  21.3249978   1.3910014
  70.2449992  22.5449978   2.2570014  70.5102468  22.1830884   1.5116210
  60.3939992  23.4859978   0.4440014  60.6059992  22.7799978  -0.1659986
  60.2829992  23.0489978   1.2880014  60.4080269  23.3301921   0.4745873
  65.1749992  19.4879978  -0.5769986  65.8869992  18.8479978  -0.5909986
  65.0739992  19.7539978  -1.4899986  65.2587387  19.4364330  -0.7024437
  65.5289992  21.1699978   1.4770014  65.3969992  20.6949978   0.6570014
  64.9289992  21.9149978   1.4220014  65.4299070  21.2055789   1.3573251
  65.0749992  38.0529978 -15.3469986  66.0079992  38.2109978 -15.2029986
  64.8109992  38.7289978 -15.9719986  65.1669911  38.1659373 -15.4117278
  58.6429992  32.6899978 -15.8639986  59.5569992  32.7689978 -15.5909986
  58.6509992  32.0029978 -16.5299986  58.7690655  32.6079205 -15.9167083
  57.2919992  38.0829978 -10.7869986  56.6449992  37.6209978 -11.3189986
  57.6469992  37.4109978 -10.2039986  57.2513741  37.9289774 -10.7810825
  58.1619992  36.1629978  -8.9819986  57.8279992  35.2829978  -8.8099986
  58.3849992  36.5089978  -8.1169986  58.1463721  36.0891938  -8.8415832
  75.7109992  36.9729978  -6.0009986  75.6889992  37.1579978  -5.0619986
  76.4009992  37.5409978  -6.3419986  75.8013439  37.0751887  -5.9185209
  75.2739992  36.5399978  -3.0799986  74.7869992  35.8049978  -3.4509986
  75.8229992  36.1459978  -2.4019986  75.2815247  36.3861057  -3.0391539
  73.7249992  32.3299978   1.5590014  72.8589992  32.2249978   1.9530014
  74.1009992  33.0879978   2.0050014  73.6573401  32.4181708   1.6732620
  75.0259992  30.5859978 -12.9269986  75.8759992  31.0069978 -12.7999986
  75.0309992  29.8459978 -12.3199986  75.1431143  30.5436094 -12.8275250
  75.4199992  28.6399978 -11.1039986  74.6939992  28.1599978 -10.7059986
  76.0019992  28.8449978 -10.3709986  75.3992730  28.6020184 -10.9505851
  75.1789992  31.4249978  -6.1559986  76.0129992  31.0469978  -6.4369986
  75.2909992  32.3679978  -6.2749986  75.3081917  31.5007943  -6.2105139
  73.6659992  34.3029978  -3.8489986  73.0179992  34.6279978  -3.2239986
  73.1479992  33.8619978  -4.5229986  73.5074196  34.2878651  -3.8545848
  75.6889992  28.5409978 -14.7129986  75.1669992  28.8969978 -15.4309986
  75.6559992  29.2159978 -14.0339986  75.6130129  28.6809598 -14.7196645
  74.0379992  25.7799978 -16.1619986  74.1339992  26.4469978 -16.8419986
  73.8979992  24.9649978 -16.6429986  74.0322040  25.7610671 -16.3201622
  73.2069992  27.1609978 -10.5409986  73.0569992  26.2159978 -10.5609986
  72.8529992  27.4419978  -9.6969986  73.1386351  27.0696644 -10.4296780
  58.2419992  29.2389978  -6.5299986  58.4269992  29.1569978  -7.4659986
  59.0919992  29.1149978  -6.1069986  58.3820928  29.2110463  -6.6007107
  74.0629992  29.1309978  -0.9019986  74.6459992  28.3959978  -0.7099986
  74.6269992  29.9029978  -0.8549986  74.2189781  29.1348145  -0.8693836
  75.5599992  27.0339978  -0.2169986  74.6969992  26.6549978  -0.3829986
  76.1639992  26.2949978  -0.2919986  75.5236085  26.8823223  -0.2498305
  73.2849992  23.1879978 -17.0439986  73.8959992  22.8169978 -16.4069986
  72.4479992  22.7669978 -16.8479986  73.2554947  23.0802756 -16.9302748
  72.9179992  24.7429978 -12.0779986  73.1969992  23.8359978 -11.9539986
  73.6769992  25.1769978 -12.4669986  73.0588619  24.6774502 -12.1136205
  73.5289992  25.3249978  -6.6419986  74.4619992  25.5369978  -6.6769986
  73.2939992  25.4259978  -5.7199986  73.6249517  25.3676833  -6.5220870
  73.5589992  26.0619978  -3.8659986  72.7159992  26.3299978  -3.4999986
  74.0009992  26.8839978  -4.0769986  73.5034138  26.2098273  -3.8444482
  57.8399992  24.5089978  -0.3899986  58.7589992  24.3869978  -0.1529986
  57.3899992  23.7589978   0.0000014  57.9050087  24.3909608  -0.3048590
  75.8419992  20.0419978   1.4870014  76.1909992  19.3879978   0.8820014
  75.9889992  20.8789978   1.0470014  75.9096824  20.0656024   1.3446304
  73.5309992  22.0059978 -12.0299986  73.7129992  21.5569978 -11.2049986
  72.9309992  21.4219978 -12.4939986  73.4748187  21.8655552 -11.9797261
  59.0609992  22.8219978  -7.4979986  59.5059992  22.0299978  -7.1959986
  59.5269992  23.5379978  -7.0679986  59.1849718  22.8104534  -7.3984735
  57.3649992  25.8209978  -6.4289986  57.8569992  25.5999978  -7.2199986
  57.7269992  26.6609978  -6.1479986  57.4812923  25.9043468  -6.4992593
  75.3609992  22.1509978  -0.1639986  74.4439992  22.4219978  -0.1989986
  75.4839992  21.6159978  -0.9479986  75.2519672  22.1157885  -0.2748138
  75.3979992  22.0739978 -15.5019986  75.8099992  21.3529978 -15.9769986
  76.0789992  22.7429978 -15.4439986  75.5465536  22.0657766 -15.5591976
  57.6789992  22.0789978 -12.3749986  56.7539992  22.2869978 -12.5039986
  58.1329992  22.5629978 -13.0649986  57.6136298  22.1729299 -12.4859549
  72.4489992  37.0629978 -10.4289986  73.1019992  36.7149978 -11.0369986
  72.9599992  37.5509978  -9.7829986  72.6072777  37.0813815 -10.4247953
  57.6419992  20.8169978  -4.0309986  56.9769992  20.5709978  -3.3879986
  57.1989992  21.4389978  -4.6079986  57.4911168  20.8674214  -4.0210152
  59.8339992  33.9919978   0.1140014  59.0129992  34.1669978  -0.3469986
  59.5819992  33.9189978   1.0340014  59.6875594  34.0060717   0.1753611
  62.7879992  34.9659978  -3.6279986  62.3639992  35.7759978  -3.9099986
  63.6929992  35.0519978  -3.9299986  62.8522138  35.0884160  -3.7073585
  67.0999992  36.3649978  -0.6679986  67.2839992  36.0319978   0.2100014
  67.9459992  36.6749978  -0.9899986  67.2396484  36.3612979  -0.5912383
  69.4449992  37.6509978  -1.4239986  70.1219992  37.0179978  -1.6639986
  69.7659992  38.0519978  -0.6169986  69.5811323  37.6185691  -1.3476842
  74.3619992  20.2409978  -2.3449986  73.5489992  20.5659978  -2.7319986
  74.5949992  19.4799978  -2.8779986  74.2821347  20.1826880  -2.4700159
  60.1899992  38.2229978  -3.5799986  59.4699992  38.6629978  -4.0309986
  59.8249992  37.9719978  -2.7319986  60.0419643  38.2493369  -3.5270871
  62.6569992  37.8229978  -4.5499986  61.7929992  37.8949978  -4.1459986
  62.6019992  38.3699978  -5.3339986  62.5311942  37.9067849  -4.6006000
  67.3679992  37.7109978  -5.3749986  66.9109992  38.2399978  -6.0289986
  67.5309992  38.3139978  -4.6499986  67.3274960  37.8649280  -5.3664726
  69.6959992  36.5889978  -4.4299986  68.7909992  36.7539978  -4.6959986
  70.1239992  37.4419978  -4.4959986  69.6301537  36.7269134  -4.4752905
  72.2999992  38.1589978  -4.1349986  72.1179992  39.0749978  -4.3459986
  72.4769992  37.7479978  -4.9819986  72.2990030  38.2288273  -4.2782834
  59.6049992  36.8459978  -6.6699986  59.5869992  36.4199978  -5.8129986
  60.4099992  36.5269978  -7.0789986  59.7112875  36.7446435  -6.6080485
  61.7459992  35.5559978  -8.0149986  61.5269992  34.6389978  -7.8449986
  62.5699992  35.6959978  -7.5489986  61.8274702  35.4495511  -7.9287473
  64.2829992  36.0259978  -7.1659986  64.4959992  35.1379978  -7.4529986
  64.3479992  35.9909978  -6.2119986  64.3209149  35.8998326  -7.0762631
  67.7919992  21.6899978  -8.0219986  67.1179992  21.0599978  -7.7659986
  68.3559992  21.2059978  -8.6249986  67.7760384  21.5383708  -8.0684980
  72.9349992  19.7969978  -7.9089986  73.5379992  20.3449978  -8.4109986
  72.0649992  20.1159978  -8.1499986  72.8999157  19.9150373  -8.0102090
  74.6619992  20.9359978  -9.5759986  75.2729992  20.4219978 -10.1029986
  75.0439992  21.8129978  -9.5529986  74.7973305  20.9842050  -9.6450582
  60.1189992  20.3239978 -10.1999986  59.3419992  20.0889978 -10.7069986
  60.6489992  19.5269978 -10.1909986  60.0843451  20.1841268 -10.2681373
  58.9549992  20.1219978 -14.3959986  59.3939992  20.7329978 -14.9879986
  58.3209992  20.6599978 -13.9219986  58.9293859  20.2784064 -14.4129695
  64.6979992  20.2499978 -10.3869986  65.5719992  20.6389978 -10.4159986
  64.5619992  20.0349978  -9.4639986  64.7991953  20.2741643 -10.2662383
  70.2549992  20.2799978  -8.7369986  70.3309992  20.3759978  -9.6869986
  69.9799992  19.3729978  -8.6089986  70.2281871  20.1704146  -8.8496056
  71.6079992  20.3059978 -13.0449986  70.9049992  20.9209978 -13.2549986
  71.1629992  19.4689978 -12.9139986  71.4516550  20.2769668 -13.0560163
  58.8559992  36.0699978 -13.4989986  58.1709992  36.0319978 -14.1659986
  58.8599992  36.9829978 -13.2109986  58.7627621  36.1881924 -13.5513874
  60.8159992  22.0379978 -15.9539986  61.3069992  21.4079978 -16.4809986
  61.4389992  22.3339978 -15.2909986  60.9675304  21.9917376 -15.9365060
  65.8419992  22.3309978 -13.4969986  66.0199992  21.6839978 -12.8139986
  65.7879992  23.1649978 -13.0299986  65.8590678  22.3551604 -13.3403699
  67.7199992  37.2789978 -15.1009986  68.5859992  37.6459978 -15.2789986
  67.4739992  36.8399978 -15.9149986  67.8052097  37.2698525 -15.2353981
  74.4289992  36.8419978 -12.4219986  74.2349992  36.0939978 -12.9869986
  74.3899992  37.5999978 -13.0049986  74.3971645  36.8420786 -12.5781852
  60.0759992  20.8379978  -0.6819986  59.7099992  20.0719978  -0.2399986
  60.9889992  20.8669978  -0.3959986  60.1493172  20.7370324  -0.5828110
  62.0489992  20.1879978   0.8530014  62.9479992  19.9139978   0.6690014
  61.6629992  19.4459978   1.3180014  62.1197307  20.0502196   0.8907098
  60.6739992  36.9899978 -16.4739986  60.4059992  37.2759978 -15.5999986
  61.4449992  36.4439978 -16.3209986  60.7415926  36.9552779 -16.3338795
  70.4709992  19.5209978   1.0360014  70.5469992  19.0949978   1.8890014
  71.3639992  19.5339978   0.6930014  70.6022303  19.4643493   1.1065497
  73.6469992  35.5939978  -0.2719986  72.8649992  35.4069978  -0.7919986
  73.5749992  36.5229978  -0.0549986  73.5301924  35.6940637  -0.3138398
  88.0529992  29.4799978 -10.2409986  88.1419992  30.4239978 -10.3729986
  87.4149992  29.2049978 -10.8989986  87.9789062  29.5719812 -10.3480359
  86.9859992  28.7349978  -6.8219986  86.9479992  28.0889978  -6.1169986
  86.6639992  28.2679978  -7.5929986  86.9372679  28.5834276  -6.8297079
  79.3539992  28.3489978  -5.2289986  79.3959992  27.7239978  -4.5059986
  80.0569992  28.9729978  -5.0469986  79.4547345  28.3477873  -5.1054726
  90.6919992  31.6739978  -8.5209986  90.2509992  30.9539978  -8.0699986
  90.6789992  32.3949978  -7.8909986  90.6299215  31.6729291  -8.3741895
  80.2779992  32.7989978  -6.6939986  79.9079992  31.9969978  -7.0639986
  81.2189992  32.6309978  -6.6479986  80.3545984  32.6664638  -6.7384397
  76.8879992  26.4589978 -11.3019986  76.4399992  27.3049978 -11.3199986
  76.3269992  25.8799978 -11.8169986  76.7508546  26.4963993 -11.3741109
  77.5979992  28.6209978  -9.1759986  77.8119992  27.8509978  -8.6479986
  78.3359992  28.7109978  -9.7789986  77.7270200  28.5278587  -9.1852965
  87.8039992  36.7779978  -8.3089986  88.4229992  36.1019978  -8.5819986
  87.5949992  36.5599978  -7.3999986  87.8606056  36.6558869  -8.2236033
  85.3749992  31.1669978  -6.4159986  85.6789992  30.4809978  -7.0109986
  86.0969992  31.2859978  -5.7979986  85.5141240  31.0892314  -6.4139041
  94.0379992  22.7689978  -5.5559986  94.0879992  23.3789978  -4.8199986
  94.4639992  23.2299978  -6.2789986  94.1024108  22.9147709  -5.5529888
  88.5159992  25.5609978  -6.0889986  88.6589992  24.6149978  -6.0689986
  88.4099992  25.7679978  -7.0169986  88.5212403  25.4594797  -6.2117761
  81.6709992  23.6629978  -8.8159986  81.7139992  24.5229978  -9.2349986
  81.2129992  23.1109978  -9.4499986  81.6149871  23.7059245  -8.9589239
  89.3929992  23.7939978 -10.4149986  90.0399992  23.4649978  -9.7909986
  89.9029992  24.3109978 -11.0379986  89.5504351  23.8189067 -10.4138963
  78.2909992  26.0599978  -8.0539986  78.9449992  25.5099978  -7.6219986
  78.3149992  25.7859978  -8.9709986  78.3837199  25.9477167  -8.1188332
  83.4479992  27.6099978  -8.8389986  84.0639992  27.0829978  -8.3299986
  82.8609992  26.9699978  -9.2429986  83.4530154  27.4513954  -8.8239055
  94.4299992  24.2469978  -3.3199986  93.7409992  24.9049978  -3.4149986
  94.4449992  24.0489978  -2.3829986  94.3377756  24.3102603  -3.2064188
  80.4809992  22.5809978  -4.7419986  80.2619992  23.1109978  -5.5089986
  79.8129992  22.8069978  -4.0949986  80.3606975  22.6840967  -4.7594860
  87.8499992  32.0809978 -11.1979986  87.5549992  31.7579978 -12.0499986
  87.5259992  32.9809978 -11.1569986  87.7658460  32.1584464 -11.3090286
  83.0499992  30.2559978  -4.4549986  82.3099992  30.8549978  -4.3509986
  83.7639992  30.8099978  -4.7699986  83.0453500  30.4127829  -4.4833629
  91.1569992  23.0849978  -8.4349986  90.9419992  22.3189978  -7.9019986
  91.8129992  23.5569978  -7.9219986  91.2162673  23.0440728  -8.2928010
  80.0749992  24.4729978  -6.7899986  80.6889992  25.1059978  -6.4169986
  80.5869992  24.0009978  -7.4459986  80.2281962  24.4957249  -6.8277065
  81.4579992  32.2209978  -3.6679986  81.4519992  33.0999978  -4.0459986
  80.6039992  32.1369978  -3.2429986  81.3417925  32.3299535  -3.6623113
  77.5789992  31.8919978 -12.8859986  77.3069992  32.1209978 -13.7739986
  77.6239992  32.7289978 -12.4249986  77.5478097  32.0366163 -12.9453317
  91.2039992  33.5129978  -6.1729986  90.2619992  33.5719978  -6.0109986
  91.4799992  34.4189978  -6.3099986  91.1125865  33.6435288  -6.1693808
  91.5039992  21.7999978  -4.7559986  90.7679992  22.4099978  -4.7929986
  92.1879992  22.2149978  -5.2819986  91.4955367  21.9397551  -4.8321826
  84.5079992  19.8859978  -7.2899986  84.3899992  18.9379978  -7.3439986
  83.6529992  20.2189978  -7.0169986  84.3762805  19.8012202  -7.2604921
  89.4559992  35.2939978  -9.5479986  89.8809992  34.5869978 -10.0329986
  89.7729992  36.0959978  -9.9649986  89.5570266  35.3055190  -9.6707521
  90.6159992  33.1949978 -11.0389986  90.3579992  32.5049978 -11.6509986
  90.6869992  32.7519978 -10.1939986  90.5903050  33.0406814 -11.0084379
  92.3019992  31.7619978  -2.5619986  92.4409992  31.1699978  -3.3009986
  92.4689992  32.6349978  -2.9179986  92.3436193  31.7988896  -2.7113789
  86.7739992  28.7239978 -12.7889986  86.0629992  29.2589978 -13.1409986
  87.4649992  28.7789978 -13.4489986  86.7700751  28.8046777 -12.9264142
  86.8279992  27.1809978 -15.7509986  87.5289992  27.2039978 -15.0989986
  87.1299992  26.5529978 -16.4069986  86.9648202  27.0992212 -15.7504391
  94.1429992  28.1019978  -4.4959986  93.4909992  28.7959978  -4.4069986
  94.6089992  28.3119978  -5.3059986  94.1165937  28.2255019  -4.5932467
  90.1799992  28.9329978 -11.8379986  89.4479992  29.1619978 -11.2639986
  90.6269992  28.2199978 -11.3829986  90.1403963  28.8678729 -11.6980055
  90.0769992  27.1079978  -2.7699986  90.1569992  27.8709978  -2.1979986
  89.4759992  27.3869978  -3.4599986  90.0066547  27.2502457  -2.7849953
  81.8249992  29.5639978  -9.9549986  81.4949992  29.1929978 -10.7729986
  82.4139992  28.8929978  -9.6079986  81.8593970  29.4226063 -10.0200596
  83.1919992  32.9919978  -7.2739986  83.0969992  32.4129978  -8.0299986
  83.9209992  32.6209978  -6.7779986  83.2776011  32.8625561  -7.3103972
  82.1919992  28.3319978  -6.3219986  82.7569992  28.4539978  -7.0839986
  82.5109992  28.9699978  -5.6829986  82.3124166  28.4348791  -6.3399652
  88.5009992  33.8359978  -5.5879986  88.2609992  34.4979978  -4.9399986
  88.3029992  33.0009978  -5.1629986  88.4413826  33.8138115  -5.4418434
  83.0719992  32.7319978  -1.6039986  82.7609992  33.5139978  -1.1489986
  82.4219992  32.5789978  -2.2899986  82.9415538  32.8184087  -1.6344102
  89.0509992  28.0959978 -14.1519986  89.6299992  28.2459978 -13.4059986
  89.4649992  28.5659978 -14.8759986  89.1863358  28.1800954 -14.1476047
  79.9919992  28.9299978  -2.3759986  80.0619992  29.5809978  -1.6769986
  79.1009992  29.0329978  -2.7109986  79.8811690  29.0329249  -2.3256957
  86.7769992  34.8319978 -10.7169986  87.2509992  35.1279978  -9.9399986
  86.2139992  35.5709978 -10.9499986  86.7657890  34.9723036 -10.6421899
  81.3109992  34.8029978  -0.8409986  81.3189992  34.6669978  -1.7879986
  80.3949992  34.6859978  -0.5889986  81.1882528  34.7685463  -0.9366757
  92.7499992  19.8459978 -14.3389986  91.8499992  19.9849978 -14.0439986
  93.0019992  20.6769978 -14.7409986  92.6608683  19.9774055 -14.3529768
  80.8159992  28.6329978 -12.3659986  80.5239992  29.4009978 -12.8569986
  80.1409992  27.9739978 -12.5289986  80.6848497  28.6489745 -12.4551740
  93.9389992  34.2119978 -15.9629986  94.0119992  35.1509978 -15.7929986
  94.8439992  33.9069978 -16.0189986  94.0714170  34.2993282 -15.9472937
  76.9089992  30.9959978  -3.5509986  76.4069992  30.9679978  -4.3659986
  76.9139992  30.0909978  -3.2409986  76.8409832  30.8697486  -3.6205879
  76.6589992  33.7769978  -6.6669986  77.6049992  33.6319978  -6.6859986
  76.5459992  34.5609978  -6.1299986  76.7733578  33.8631697  -6.5969683
  94.8569992  34.4429978  -0.9839986  94.8069992  33.4869978  -1.0219986
  94.0299992  34.7099978  -0.5829986  94.7383831  34.3484680  -0.9349879
  85.8349992  34.0169978  -2.1079986  85.9229992  34.8429978  -1.6329986
  84.9719992  33.6869978  -1.8589986  85.7303357  34.0855468  -2.0092347
  86.2499992  37.7889978 -12.3019986  86.1739992  37.6679978 -13.2489986
  86.2819992  38.7379978 -12.1839986  86.2439380  37.9007677 -12.4154819
  79.9029992  36.5779978 -10.5209986  80.0549992  36.2299978  -9.6429986
  79.0519992  36.2209978 -10.7769986  79.8088344  36.4820879 -10.4353132
  89.3509992  36.9429978 -15.2999986  89.7259992  36.1989978 -15.7709986
  89.3559992  36.6729978 -14.3819986  89.4030098  36.8046392 -15.2403371
  89.0199992  36.8689978 -12.5509986  88.0849992  36.9689978 -12.3719986
  89.2999992  36.1589978 -11.9719986  88.9299471  36.7867933 -12.4483305
  92.0089992  25.9359978  -0.5039986  91.6009992  26.4159978  -1.2249986
  92.0489992  25.0299978  -0.8119986  91.9586221  25.8792449  -0.6441733
  79.1579992  32.3199978  -2.5079986  79.3739992  31.9579978  -1.6479986
  78.3019992  31.9449978  -2.7169986  79.0718810  32.2198837  -2.4187320
  81.7759992  20.7899978  -6.5119986  80.9149992  20.7029978  -6.9199986
  81.7539992  21.6459978  -6.0839986  81.6550491  20.8938003  -6.5100418
  86.4389992  20.5119978  -3.1369986  86.8589992  20.0969978  -2.3839986
  85.5059992  20.3329978  -3.0199986  86.3703736  20.4309910  -3.0181032
  89.7659992  24.2669978  -2.2839986  89.2519992  24.1419978  -1.4859986
  89.6099992  25.1799978  -2.5279986  89.6746967  24.3732123  -2.2079063
  90.5279992  29.1279978 -16.5229986  90.5699992  28.9059978 -17.4529986
  91.3769992  29.5269978 -16.3329986  90.6485253  29.1515498 -16.6246178
  86.1009992  23.0039978 -15.8519986  85.8469992  23.0229978 -14.9299986
  85.8439992  22.1329978 -16.1539986  86.0314508  22.8888280 -15.7665197
  81.8669992  25.7549978  -5.4169986  81.2259992  25.7149978  -4.7079986
  81.9049992  26.6819978  -5.6549986  81.7843010  25.8747668  -5.3520054
  81.8639992  25.9759978 -10.5049986  80.9719992  25.6359978 -10.5639986
  82.3149992  25.5989978 -11.2609986  81.8027642  25.8784910 -10.6152274
  87.3999992  26.3919978 -11.6879986  86.9909992  27.2069978 -11.9799986
  88.1199992  26.2519978 -12.3019986  87.4414439  26.4845372 -11.8109885
  86.5019992  26.5679978  -0.1999986  85.9389992  25.8629978   0.1210014
  87.3279992  26.4469978   0.2680014  86.5366674  26.4552165  -0.0928249
  88.4049992  25.8379978  -8.8739986  88.2089992  26.4439978  -9.5889986
  88.5859992  25.0049978  -9.3079986  88.4026584  25.8082513  -9.0305788
  79.6169992  26.0759978  -3.5499986  79.5789992  26.4759978  -2.6809986
  79.1269992  25.2589978  -3.4599986  79.5455330  26.0202674  -3.4188711
  82.9829992  23.4499978 -16.7509986  82.5519992  23.0049978 -16.0219986
  82.2649992  23.8209978 -17.2639986  82.8269176  23.4392051 -16.7205070
  76.2259992  23.1919978  -9.6989986  76.8559992  23.1629978  -8.9799986
  76.6749992  22.7669978 -10.4299986  76.3730835  23.1305660  -9.6992341
  77.4999992  23.9379978 -14.2749986  77.9739992  24.5289978 -14.8599986
  76.7819992  24.4679978 -13.9279986  77.4678640  24.0905511 -14.3082031
  87.6689992  27.4759978  -4.2029986  87.9919992  26.8449978  -4.8459986
  87.2279992  26.9419978  -3.5419986  87.6536379  27.3173468  -4.2017418
  84.4459992  23.4039978  -9.4189986  83.5349992  23.4609978  -9.1299986
  84.9509992  23.3439978  -8.6079986  84.3896873  23.4036826  -9.2698793
  79.2739992  25.0329978 -10.5919986  78.3849992  25.1319978 -10.9319986
  79.5709992  24.1909978 -10.9379986  79.1924177  24.9327687 -10.6853060
  82.9269992  25.0329978 -12.9349986  83.8589992  25.1619978 -12.7569986
  82.7119992  25.7019978 -13.5849986  83.0254472  25.1410806 -12.9985109
  88.8509992  22.6389978  -6.1539986  88.1739992  22.7699978  -5.4909986
  88.3659992  22.4839978  -6.9649986  88.6927405  22.6359947  -6.1727830
  81.6009992  26.2269978 -15.3689986  81.0589992  25.8479978 -16.0599986
  82.4349992  26.4219978 -15.7969986  81.6394390  26.2014079 -15.5215608
  92.1389992  38.3099978   0.1220014  92.3379992  38.7339978  -0.7119986
  92.7939992  38.6539978   0.7290014  92.2548522  38.4146301   0.0897852
  79.7369992  30.7839978  -0.2699986  80.4689992  31.0389978   0.2920014
  78.9559992  30.9889978   0.2460014  79.7316526  30.8465449  -0.1234824
  85.7659992  26.1909978  -7.5319986  86.3299992  25.6449978  -8.0789986
  85.6179992  25.6699978  -6.7429986  85.8233037  26.0456787  -7.5002771
  80.7679992  22.3279978 -11.1129986  80.4509992  21.4249978 -11.1489986
  81.5489992  22.3299978 -11.6659986  80.8302431  22.2047797 -11.1926898
  84.3919992  24.5799978  -5.1179986  83.5569992  25.0339978  -5.0069986
  84.9159992  24.8559978  -4.3659986  84.3486072  24.6793948  -5.0011864
  84.9369992  30.7929978 -13.4329986  84.1919992  30.2849978 -13.7549986
  84.8019992  30.8419978 -12.4869986  84.8168963  30.7301731 -13.3491174
  92.0869992  29.9259978  -4.6459986  92.7279992  30.3819978  -5.1899986
  91.2559992  30.0389978  -5.1089986  92.0625287  30.0036921  -4.7830113
  88.8339992  23.6069978 -15.2339986  87.8959992  23.7179978 -15.3849986
  89.1319992  24.4629978 -14.9269986  88.7456318  23.7380158 -15.2131855
  86.4559992  30.9769978  -2.1959986  86.1099992  30.5949978  -1.3889986
  86.2559992  31.9099978  -2.1249986  86.3815987  31.0509002  -2.0759539
  89.5529992  25.4739978 -13.5729986  90.4449992  25.3359978 -13.2539986
  89.6089992  26.2649978 -14.1099986  89.6827325  25.5619918 -13.6018783
  80.0609992  30.0879978  -7.6629986  80.8059992  30.0849978  -8.2649986
  80.1389992  29.2639978  -7.1819986  80.1733365  29.9762384  -7.6802570
  87.0619992  32.2509978 -14.4079986  86.7669992  33.0779978 -14.0259986
  86.3589992  31.6319978 -14.2109986  86.9266379  32.2804171 -14.3291346
  77.0689992  28.5479978  -2.3479986  77.2919992  28.1299978  -1.5169986
  76.4669992  27.9359978  -2.7709986  77.0181513  28.4079606  -2.2913260
  84.0859992  28.0649978  -0.1349986  83.7899992  27.8999978  -1.0309986
  85.0169992  27.8449978  -0.1459986  84.1714401  28.0126879  -0.2589794
  88.7059992  33.4389978  -2.2459986  87.8059992  33.6219978  -2.5129986
  88.7399992  33.6979978  -1.3249986  88.5873748  33.4990554  -2.1580836
  94.4379992  25.6829978 -13.8779986  93.8829992  25.2869978 -14.5509986
  94.5379992  26.5939978 -14.1559986  94.3756816  25.7519505 -14.0074967
  94.4009992  31.4839978  -1.0409986  93.5499992  31.7219978  -1.4089986
  94.9909992  31.4669978  -1.7939986  94.3643812  31.5142524  -1.1931547
  92.7329992  34.4689978 -13.4129986  92.3599992  33.6439978 -13.1039986
  93.0099992  34.2859978 -14.3109986  92.7193463  34.3312569 -13.4920475
  89.8929992  29.2769978  -6.3919986  88.9649992  29.0459978  -6.4189986
  90.3439992  28.4999978  -6.7219986  89.8268165  29.1402774  -6.4403210
  82.4359992  33.6059978 -10.2589986  82.9639992  34.3789978 -10.4589986
  81.5559992  33.8299978 -10.5609986  82.3893435  33.7422700 -10.3272690
  78.1909992  28.4679978 -15.6719986  78.8069992  29.0949978 -15.2919986
  77.3289992  28.7839978 -15.3999986  78.1587678  28.5964412 -15.5832791
  83.8639992  31.2689978 -10.6829986  83.6229992  32.1939978 -10.6409986
  83.1229992  30.8099978 -10.2859986  83.7309206  31.3335915 -10.6236231
  84.3779992  35.4179978  -4.3679986  84.7409992  36.2719978  -4.6009986
  84.9099992  35.1259978  -3.6269986  84.4995141  35.4953895  -4.2997903
  82.5469992  36.2899978 -11.1369986  81.5969992  36.3959978 -11.0859986
  82.8989992  37.1109978 -10.7929986  82.4645472  36.4154923 -11.0835148
  87.9219992  31.5169978  -4.6669986  87.4969992  31.2889978  -3.8409986
  88.5029992  30.7779978  -4.8489986  87.9423395  31.3859545  -4.5785586
  90.1249992  32.4459978 -15.5929986  90.4789992  32.0659978 -14.7889986
  89.1769992  32.3519978 -15.5059986  90.0452298  32.3812452 -15.4711313
  90.5809992  36.0689978  -2.1979986  89.9789992  35.5129978  -2.6929986
  90.8619992  36.7359978  -2.8239986  90.5365757  36.0830744  -2.3504325
  94.6289992  36.9249978 -15.3919986  95.3729992  37.5109978 -15.5319986
  93.9349992  37.4939978 -15.0589986  94.6369809  37.0820818 -15.3661410
  78.7029992  23.3019978  -2.7899986  77.8109992  23.6399978  -2.8579986
  78.6049992  22.4459978  -2.3719986  78.5674475  23.2326543  -2.7428296
  90.9909992  31.1179978 -13.3659986  90.7139992  30.3899978 -12.8099986
  91.9189992  31.2369978 -13.1609986  91.0784499  31.0344213 -13.2621956
  78.3549992  35.1059978  -4.3549986  78.5719992  34.1739978  -4.3859986
  78.6009992  35.3809978  -3.4719986  78.4179809  35.0155686  -4.2398309
  83.1529992  33.1279978 -14.6899986  83.2999992  32.6079978 -13.8999986
  83.1499992  34.0349978 -14.3829986  83.1727102  33.1793953 -14.5404075
  79.6059992  30.3799978 -14.1789986  78.9199992  30.7329978 -13.6119986
  80.1289992  31.1429978 -14.4259986  79.5828402  30.5313901 -14.1348199
  87.4379992  23.0429978  -3.8999986  88.1369992  23.1169978  -3.2499986
  87.0569992  22.1779978  -3.7459986  87.4822097  22.9362389  -3.7902003
  88.2219992  22.6949978 -12.8029986  88.4419992  23.1659978 -13.6069986
  88.7809992  23.0889978 -12.1329986  88.3276731  22.8127287 -12.8224967
  85.8909992  34.8249978 -13.9399986  85.0739992  35.3219978 -13.8879986
  86.4199992  35.3009978 -14.5809986  85.8508125  34.9571989 -14.0194694
  85.4219992  24.4229978 -11.9679986  86.2339992  24.9269978 -11.9219986
  85.1779992  24.2779978 -11.0539986  85.5001467  24.4723749 -11.8381425
  85.9579992  25.4089978  -2.7839986  86.0769992  25.9829978  -2.0269986
  86.6129992  24.7209978  -2.6689986  86.0628684  25.3945194  -2.6648326
  86.3059992  21.5039978 -11.0299986  85.9589992  22.1209978 -10.3859986
  86.9649992  22.0049978 -11.5119986  86.3475090  21.6561575 -11.0069319
  83.2289992  35.8689978 -13.9589986  83.3899992  36.6689978 -14.4589986
  83.0319992  36.1759978 -13.0739986  83.2243906  36.0198678 -13.9077667
  81.9639992  22.5669978 -14.3429986  81.8799992  23.4549978 -13.9959986
  82.8539992  22.3019978 -14.1109986  82.0728163  22.6527179 -14.2641404
  92.1619992  23.3159978  -1.9489986  91.2459992  23.5779978  -2.0359986
  92.4979992  23.3129978  -2.8449986  92.0818499  23.3515163  -2.0821234
  90.7649992  27.0659978  -7.8529986  89.9669992  26.6509978  -8.1809986
  91.2099992  26.3759978  -7.3619986  90.7159684  26.9158628  -7.8314773
  80.2219992  32.9939978 -15.2829986  80.8139992  33.6939978 -15.0059986
  80.6809992  32.5609978 -16.0019986  80.3651652  33.0312675 -15.3423467
  78.5379992  25.6589978 -16.1669986  78.4929992  26.5979978 -15.9879986
  77.6499992  25.4229978 -16.4359986  78.4118166  25.7556687 -16.1788476
  91.8509992  36.3219978  -6.2309986  91.6949992  37.0009978  -6.8879986
  92.7839992  36.3939978  -6.0279986  91.9557387  36.4246390  -6.2934658
  79.3459992  20.4399978  -7.4929986  79.1169992  20.4989978  -8.4209986
  78.9039992  19.6489978  -7.1869986  79.2548801  20.3410540  -7.5785271
  78.2769992  34.3809978 -11.3329986  77.4439992  34.8529978 -11.3059986
  78.8219992  34.8909978 -11.9319986  78.2367857  34.5144791 -11.4102858
  77.5649992  36.9929978  -0.0029986  78.1049992  36.7769978   0.7570014
  77.0839992  36.1879978  -0.1929986  77.5739219  36.8545156   0.0754282
  82.1619992  35.9129978   1.6170014  82.9299992  35.4539978   1.9580014
  82.1409992  35.6869978   0.6870014  82.2642135  35.8196668   1.5379491
  86.2539992  35.4209978 -17.0069986  85.6099992  34.7899978 -16.6859986
  87.0159992  34.8899978 -17.2389986  86.2688058  35.2627902 -16.9943962
  88.7389992  34.2929978   0.3460014  88.3879992  33.4359978   0.5900014
  89.4649992  34.4349978   0.9530014  88.7891895  34.1951351   0.4613770
  90.8589992  35.2379978 -16.7739986  91.1419992  34.4429978 -16.3209986
  91.5979992  35.4709978 -17.3349986  90.9977096  35.1607049 -16.7878896
  77.4719992  30.8039978   0.9510014  77.6159992  29.9019978   0.6650014
  76.6999992  31.0899978   0.4640014  77.3872733  30.7191798   0.8459532
  81.8129992  31.1469978 -16.9159986  81.8779992  30.3529978 -16.3859986
  82.4659992  31.0289978 -17.6059986  81.9101605  31.0223430 -16.9367003
  84.1269992  30.7729978   0.3840014  83.7989992  31.0439978  -0.4729986
  84.2789992  29.8319978   0.2960014  84.1026412  30.6829046   0.2547822
  89.8619992  30.6889978  -2.2329986  90.6069992  31.2779978  -2.3519986
  89.1049992  31.2709978  -2.1689986  89.8615470  30.8482128  -2.2406201
  78.3049992  28.0039978   0.3710014  78.7129992  27.1469978   0.2500014
  78.0439992  28.0179978   1.2920014  78.3256016  27.8885119   0.4789192
  82.9629992  29.1199978 -14.6099986  82.5029992  28.6359978 -13.9249986
  83.2179992  28.4509978 -15.2459986  82.9344856  28.9633669 -14.6021603
  82.2519992  27.0129978  -2.2539986  81.6329992  27.6869978  -1.9739986
  82.5959992  27.3339978  -3.0879986  82.2137123  27.1486887  -2.3283612
  84.0339992  27.3629978 -16.3479986  83.8529992  27.2079978 -17.2749986
  84.9839992  27.4709978 -16.3029986  84.1376566  27.3563669 -16.4689071
  87.2709992  29.4839978   1.0230014  88.2249992  29.5679978   0.9960014
  87.1109992  28.7719978   1.6430014  87.3797182  29.3992842   1.1030733
  93.4239992  29.7169978 -16.9019986  93.1499992  29.2929978 -17.7149986
  93.4629992  30.6489978 -17.1189986  93.3917716  29.7848827 -17.0425714
  82.5909992  24.3679978  -1.1719986  82.7409992  23.6389978  -1.7739986
  82.5929992  25.1449978  -1.7309986  82.6117967  24.3732708  -1.3299459
  83.0039992  22.7369978  -3.6789986  83.5389992  23.1889978  -4.3309986
  82.1509992  22.6289978  -4.1019986  82.9620374  22.7842665  -3.8253290
  84.5849992  28.1769978  -3.4399986  85.3359992  28.0209978  -4.0129986
  84.2459992  29.0289978  -3.7149986  84.6419587  28.2708138  -3.5555922
  89.0009992  25.9919978   1.5890014  89.1929992  25.0609978   1.4770014
  89.8589992  26.4169978   1.5780014  89.1432182  25.9220070   1.5721862
  90.3179992  28.7809978  -0.3339986  90.0359992  29.4899978  -0.9119986
  91.2599992  28.7079978  -0.4849986  90.4067921  28.8682193  -0.4335775
  81.0699992  25.5659978   0.7390014  80.3019992  25.0329978   0.5290014
  81.7479992  25.2559978   0.1400014  81.0567235  25.4511754   0.6292413
  83.8089992  20.1939978  -3.2479986  83.7109992  21.1399978  -3.3529986
  83.0669992  19.8209978  -3.7239986  83.6952534  20.2731773  -3.3267400
  85.0729992  24.5149978   0.3160014  84.8379992  24.2959978   1.2170014
  84.2899992  24.3079978  -0.1939986  84.9349095  24.4569892   0.3705353
  87.7889992  23.6429978  -0.6089986  86.8409992  23.6749978  -0.4769986
  88.1009992  23.0169978   0.0450014  87.7015293  23.5627923  -0.5025852
  89.4229992  22.2769978   1.3960014  89.3259992  21.3249978   1.3910014
  89.1009992  22.5449978   2.2570014  89.3662468  22.1830884   1.5116210
  79.2499992  23.4859978   0.4440014  79.4619992  22.7799978  -0.1659986
  79.1389992  23.0489978   1.2880014  79.2640269  23.3301921   0.4745873
  84.0309992  19.4879978  -0.5769986  84.7429992  18.8479978  -0.5909986
  83.9299992  19.7539978  -1.4899986  84.1147387  19.4364330  -0.7024437
  84.3849992  21.1699978   1.4770014  84.2529992  20.6949978   0.6570014
  83.7849992  21.9149978   1.4220014  84.2859070  21.2055789   1.3573251
  83.9309992  38.0529978 -15.3469986  84.8639992  38.2109978 -15.2029986
  83.6669992  38.7289978 -15.9719986  84.0229911  38.1659373 -15.4117278
  77.4989992  32.6899978 -15.8639986  78.4129992  32.7689978 -15.5909986
  77.5069992  32.0029978 -16.5299986  77.6250655  32.6079205 -15.9167083
  76.1479992  38.0829978 -10.7869986  75.5009992  37.6209978 -11.3189986
  76.5029992  37.4109978 -10.2039986  76.1073741  37.9289774 -10.7810825
  77.0179992  36.1629978  -8.9819986  76.6839992  35.2829978  -8.8099986
  77.2409992  36.5089978  -8.1169986  77.0023721  36.0891938  -8.8415832
  94.5669992  36.9729978  -6.0009986  94.5449992  37.1579978  -5.0619986
  95.2569992  37.5409978  -6.3419986  94.6573439  37.0751887  -5.9185209
  94.1299992  36.5399978  -3.0799986  93.6429992  35.8049978  -3.4509986
  94.6789992  36.1459978  -2.4019986  94.1375247  36.3861057  -3.0391539
  92.5809992  32.3299978   1.5590014  91.7149992  32.2249978   1.9530014
  92.9569992  33.0879978   2.0050014  92.5133401  32.4181708   1.6732620
  93.8819992  30.5859978 -12.9269986  94.7319992  31.0069978 -12.7999986
  93.8869992  29.8459978 -12.3199986  93.9991143  30.5436094 -12.8275250
  94.2759992  28.6399978 -11.1039986  93.5499992  28.1599978 -10.7059986
  94.8579992  28.8449978 -10.3709986  94.2552730  28.6020184 -10.9505851
  94.0349992  31.4249978  -6.1559986  94.8689992  31.0469978  -6.4369986
  94.1469992  32.3679978  -6.2749986  94.1641917  31.5007943  -6.2105139
  92.5219992  34.3029978  -3.8489986  91.8739992  34.6279978  -3.2239986
  92.0039992  33.8619978  -4.5229986  92.3634196  34.2878651  -3.8545848
  94.5449992  28.5409978 -14.7129986  94.0229992  28.8969978 -15.4309986
  94.5119992  29.2159978 -14.0339986  94.4690129  28.6809598 -14.7196645
  92.8939992  25.7799978 -16.1619986  92.9899992  26.4469978 -16.8419986
  92.7539992  24.9649978 -16.6429986  92.8882040  25.7610671 -16.3201622
  92.0629992  27.1609978 -10.5409986  91.9129992  26.2159978 -10.5609986
  91.7089992  27.4419978  -9.6969986  91.9946351  27.0696644 -10.4296780
  77.0979992  29.2389978  -6.5299986  77.2829992  29.1569978  -7.4659986
  77.9479992  29.1149978  -6.1069986  77.2380928  29.2110463  -6.6007107
  92.9189992  29.1309978  -0.9019986  93.5019992  28.3959978  -0.7099986
  93.4829992  29.9029978  -0.8549986  93.0749781  29.1348145  -0.8693836
  94.4159992  27.0339978  -0.2169986  93.5529992  26.6549978  -0.3829986
  95.0199992  26.2949978  -0.2919986  94.3796085  26.8823223  -0.2498305
  92.1409992  23.1879978 -17.0439986  92.7519992  22.8169978 -16.4069986
  91.3039992  22.7669978 -16.8479986  92.1114947  23.0802756 -16.9302748
  91.7739992  24.7429978 -12.0779986  92.0529992  23.8359978 -11.9539986
  92.5329992  25.1769978 -12.4669986  91.9148619  24.6774502 -12.1136205
  92.3849992  25.3249978  -6.6419986  93.3179992  25.5369978  -6.6769986
  92.1499992  25.4259978  -5.7199986  92.4809517  25.3676833  -6.5220870
  92.4149992  26.0619978  -3.8659986  91.5719992  26.3299978  -3.4999986
  92.8569992  26.8839978  -4.0769986  92.3594138  26.2098273  -3.8444482
  76.6959992  24.5089978  -0.3899986  77.6149992  24.3869978  -0.1529986
  76.2459992  23.7589978   0.0000014  76.7610087  24.3909608  -0.3048590
  94.6979992  20.0419978   1.4870014  95.0469992  19.3879978   0.8820014
  94.8449992  20.8789978   1.0470014  94.7656824  20.0656024   1.3446304
  92.3869992  22.0059978 -12.0299986  92.5689992  21.5569978 -11.2049986
  91.7869992  21.4219978 -12.4939986  92.3308187  21.8655552 -11.9797261
  77.9169992  22.8219978  -7.4979986  78.3619992  22.0299978  -7.1959986
  78.3829992  23.5379978  -7.0679986  78.0409718  22.8104534  -7.3984735
  76.2209992  25.8209978  -6.4289986  76.7129992  25.5999978  -7.2199986
  76.5829992  26.6609978  -6.1479986  76.3372923  25.9043468  -6.4992593
  94.2169992  22.1509978  -0.1639986  93.2999992  22.4219978  -0.1989986
  94.3399992  21.6159978  -0.9479986  94.1079672  22.1157885  -0.2748138
  94.2539992  22.0739978 -15.5019986  94.6659992  21.3529978 -15.9769986
  94.9349992  22.7429978 -15.4439986  94.4025536  22.0657766 -15.5591976
  76.5349992  22.0789978 -12.3749986  75.6099992  22.2869978 -12.5039986
  76.9889992  22.5629978 -13.0649986  76.4696298  22.1729299 -12.4859549
  91.3049992  37.0629978 -10.4289986  91.9579992  36.7149978 -11.0369986
  91.8159992  37.5509978  -9.7829986  91.4632777  37.0813815 -10.4247953
  76.4979992  20.8169978  -4.0309986  75.8329992  20.5709978  -3.3879986
  76.0549992  21.4389978  -4.6079986  76.3471168  20.8674214  -4.0210152
  78.6899992  33.9919978   0.1140014  77.8689992  34.1669978  -0.3469986
  78.4379992  33.9189978   1.0340014  78.5435594  34.0060717   0.1753611
  81.6439992  34.9659978  -3.6279986  81.2199992  35.7759978  -3.9099986
  82.5489992  35.0519978  -3.9299986  81.7082138  35.0884160  -3.7073585
  85.9559992  36.3649978  -0.6679986  86.1399992  36.0319978   0.2100014
  86.8019992  36.6749978  -0.9899986  86.0956484  36.3612979  -0.5912383
  88.3009992  37.6509978  -1.4239986  88.9779992  37.0179978  -1.6639986
  88.6219992  38.0519978  -0.6169986  88.4371323  37.6185691  -1.3476842
  93.2179992  20.2409978  -2.3449986  92.4049992  20.5659978  -2.7319986
  93.4509992  19.4799978  -2.8779986  93.1381347  20.1826880  -2.4700159
  79.0459992  38.2229978  -3.5799986  78.3259992  38.6629978  -4.0309986
  78.6809992  37.9719978  -2.7319986  78.8979643  38.2493369  -3.5270871
  81.5129992  37.8229978  -4.5499986  80.6489992  37.8949978  -4.1459986
  81.4579992  38.3699978  -5.3339986  81.3871942  37.9067849  -4.6006000
  86.2239992  37.7109978  -5.3749986  85.7669992  38.2399978  -6.0289986
  86.3869992  38.3139978  -4.6499986  86.1834960  37.8649280  -5.3664726
  88.5519992  36.5889978  -4.4299986  87.6469992  36.7539978  -4.6959986
  88.9799992  37.4419978  -4.4959986  88.4861537  36.7269134  -4.4752905
  91.1559992  38.1589978  -4.1349986  90.9739992  39.0749978  -4.3459986
  91.3329992  37.7479978  -4.9819986  91.1550030  38.2288273  -4.2782834
  78.4609992  36.8459978  -6.6699986  78.4429992  36.4199978  -5.8129986
  79.2659992  36.5269978  -7.0789986  78.5672875  36.7446435  -6.6080485
  80.6019992  35.5559978  -8.0149986  80.3829992  34.6389978  -7.8449986
  81.4259992  35.6959978  -7.5489986  80.6834702  35.4495511  -7.9287473
  83.1389992  36.0259978  -7.1659986  83.3519992  35.1379978  -7.4529986
  83.2039992  35.9909978  -6.2119986  83.1769149  35.8998326  -7.0762631
  86.6479992  21.6899978  -8.0219986  85.9739992  21.0599978  -7.7659986
  87.2119992  21.2059978  -8.6249986  86.6320384  21.5383708  -8.0684980
  91.7909992  19.7969978  -7.9089986  92.3939992  20.3449978  -8.4109986
  90.9209992  20.1159978  -8.1499986  91.7559157  19.9150373  -8.0102090
  93.5179992  20.9359978  -9.5759986  94.1289992  20.4219978 -10.1029986
  93.8999992  21.8129978  -9.5529986  93.6533305  20.9842050  -9.6450582
  78.9749992  20.3239978 -10.1999986  78.1979992  20.0889978 -10.7069986
  79.5049992  19.5269978 -10.1909986  78.9403451  20.1841268 -10.2681373
  77.8109992  20.1219978 -14.3959986  78.2499992  20.7329978 -14.9879986
  77.1769992  20.6599978 -13.9219986  77.7853859  20.2784064 -14.4129695
  83.5539992  20.2499978 -10.3869986  84.4279992  20.6389978 -10.4159986
  83.4179992  20.0349978  -9.4639986  83.6551953  20.2741643 -10.2662383
  89.1109992  20.2799978  -8.7369986  89.1869992  20.3759978  -9.6869986
  88.8359992  19.3729978  -8.6089986  89.0841871  20.1704146  -8.8496056
  90.4639992  20.3059978 -13.0449986  89.7609992  20.9209978 -13.2549986
  90.0189992  19.4689978 -12.9139986  90.3076550  20.2769668 -13.0560163
  77.7119992  36.0699978 -13.4989986  77.0269992  36.0319978 -14.1659986
  77.7159992  36.9829978 -13.2109986  77.6187621  36.1881924 -13.5513874
  79.6719992  22.0379978 -15.9539986  80.1629992  21.4079978 -16.4809986
  80.2949992  22.3339978 -15.2909986  79.8235304  21.9917376 -15.9365060
  84.6979992  22.3309978 -13.4969986  84.8759992  21.6839978 -12.8139986
  84.6439992  23.1649978 -13.0299986  84.7150678  22.3551604 -13.3403699
  86.5759992  37.2789978 -15.1009986  87.4419992  37.6459978 -15.2789986
  86.3299992  36.8399978 -15.9149986  86.6612097  37.2698525 -15.2353981
  93.2849992  36.8419978 -12.4219986  93.0909992  36.0939978 -12.9869986
  93.2459992  37.5999978 -13.0049986  93.2531645  36.8420786 -12.5781852
  78.9319992  20.8379978  -0.6819986  78.5659992  20.0719978  -0.2399986
  79.8449992  20.8669978  -0.3959986  79.0053172  20.7370324  -0.5828110
  80.9049992  20.1879978   0.8530014  81.8039992  19.9139978   0.6690014
  80.5189992  19.4459978   1.3180014  80.9757307  20.0502196   0.8907098
  79.5299992  36.9899978 -16.4739986  79.2619992  37.2759978 -15.5999986
  80.3009992  36.4439978 -16.3209986  79.5975927  36.9552779 -16.3338795
  89.3269992  19.5209978   1.0360014  89.4029992  19.0949978   1.8890014
  90.2199992  19.5339978   0.6930014  89.4582303  19.4643493   1.1065497
  92.5029992  35.5939978  -0.2719986  91.7209992  35.4069978  -0.7919986
  92.4309992  36.5229978  -0.0549986  92.3861924  35.6940637  -0.3138398
 106.9089992  29.4799978 -10.2409986 106.9979992  30.4239978 -10.3729986
 106.2709992  29.2049978 -10.8989986 106.8349062  29.5719812 -10.3480359
 105.8419992  28.7349978  -6.8219986 105.8039992  28.0889978  -6.1169986
 105.5199992  28.2679978  -7.5929986 105.7932679  28.5834276  -6.8297079
  98.2099992  28.3489978  -5.2289986  98.2519992  27.7239978  -4.5059986
  98.9129992  28.9729978  -5.0469986  98.3107345  28.3477873  -5.1054726
 109.5479992  31.6739978  -8.5209986 109.1069992  30.9539978  -8.0699986
 109.5349992  32.3949978  -7.8909986 109.4859215  31.6729291  -8.3741895
  99.1339992  32.7989978  -6.6939986  98.7639992  31.9969978  -7.0639986
 100.0749992  32.6309978  -6.6479986  99.2105984  32.6664638  -6.7384397
  95.7439992  26.4589978 -11.3019986  95.2959992  27.3049978 -11.3199986
  95.1829992  25.8799978 -11.8169986  95.6068546  26.4963993 -11.3741109
  96.4539992  28.6209978  -9.1759986  96.6679992  27.8509978  -8.6479986
  97.1919992  28.7109978  -9.7789986  96.5830200  28.5278587  -9.1852965
 106.6599992  36.7779978  -8.3089986 107.2789992  36.1019978  -8.5819986
 106.4509992  36.5599978  -7.3999986 106.7166056  36.6558869  -8.2236033
 104.2309992  31.1669978  -6.4159986 104.5349992  30.4809978  -7.0109986
 104.9529992  31.2859978  -5.7979986 104.3701240  31.0892314  -6.4139041
 112.8939992  22.7689978  -5.5559986 112.9439992  23.3789978  -4.8199986
 113.3199992  23.2299978  -6.2789986 112.9584108  22.9147709  -5.5529888
 107.3719992  25.5609978  -6.0889986 107.5149992  24.6149978  -6.0689986
 107.2659992  25.7679978  -7.0169986 107.3772403  25.4594797  -6.2117761
 100.5269992  23.6629978  -8.8159986 100.5699992  24.5229978  -9.2349986
 100.0689992  23.1109978  -9.4499986 100.4709871  23.7059245  -8.9589239
 108.2489992  23.7939978 -10.4149986 108.8959992  23.4649978  -9.7909986
 108.7589992  24.3109978 -11.0379986 108.4064351  23.8189067 -10.4138963
  97.1469992  26.0599978  -8.0539986  97.8009992  25.5099978  -7.6219986
  97.1709992  25.7859978  -8.9709986  97.2397199  25.9477167  -8.1188332
 102.3039992  27.6099978  -8.8389986 102.9199992  27.0829978  -8.3299986
 101.7169992  26.9699978  -9.2429986 102.3090154  27.4513954  -8.8239055
 113.2859992  24.2469978  -3.3199986 112.5969992  24.9049978  -3.4149986
 113.3009992  24.0489978  -2.3829986 113.1937756  24.3102603  -3.2064188
  99.3369992  22.5809978  -4.7419986  99.1179992  23.1109978  -5.5089986
  98.6689992  22.8069978  -4.0949986  99.2166975  22.6840967  -4.7594860
 106.7059992  32.0809978 -11.1979986 106.4109992  31.7579978 -12.0499986
 106.3819992  32.9809978 -11.1569986 106.6218460  32.1584464 -11.3090286
 101.9059992  30.2559978  -4.4549986 101.1659992  30.8549978  -4.3509986
 102.6199992  30.8099978  -4.7699986 101.9013500  30.4127829  -4.4833629
 110.0129992  23.0849978  -8.4349986 109.7979992  22.3189978  -7.9019986
 110.6689992  23.5569978  -7.9219986 110.0722673  23.0440728  -8.2928010
  98.9309992  24.4729978  -6.7899986  99.5449992  25.1059978  -6.4169986
  99.4429992  24.0009978  -7.4459986  99.0841962  24.4957249  -6.8277065
 100.3139992  32.2209978  -3.6679986 100.3079992  33.0999978  -4.0459986
  99.4599992  32.1369978  -3.2429986 100.1977925  32.3299535  -3.6623113
  96.4349992  31.8919978 -12.8859986  96.1629992  32.1209978 -13.7739986
  96.4799992  32.7289978 -12.4249986  96.4038097  32.0366163 -12.9453317
 110.0599992  33.5129978  -6.1729986 109.1179992  33.5719978  -6.0109986
 110.3359992  34.4189978  -6.3099986 109.9685865  33.6435288  -6.1693808
 110.3599992  21.7999978  -4.7559986 109.6239992  22.4099978  -4.7929986
 111.0439992  22.2149978  -5.2819986 110.3515367  21.9397551  -4.8321826
 103.3639992  19.8859978  -7.2899986 103.2459992  18.9379978  -7.3439986
 102.5089992  20.2189978  -7.0169986 103.2322805  19.8012202  -7.2604921
 108.3119992  35.2939978  -9.5479986 108.7369992  34.5869978 -10.0329986
 108.6289992  36.0959978  -9.9649986 108.4130266  35.3055190  -9.6707521
 109.4719992  33.1949978 -11.0389986 109.2139992  32.5049978 -11.6509986
 109.5429992  32.7519978 -10.1939986 109.4463050  33.0406814 -11.0084379
 111.1579992  31.7619978  -2.5619986 111.2969992  31.1699978  -3.3009986
 111.3249992  32.6349978  -2.9179986 111.1996193  31.7988896  -2.7113789
 105.6299992  28.7239978 -12.7889986 104.9189992  29.2589978 -13.1409986
 106.3209992  28.7789978 -13.4489986 105.6260751  28.8046777 -12.9264142
 105.6839992  27.1809978 -15.7509986 106.3849992  27.2039978 -15.0989986
 105.9859992  26.5529978 -16.4069986 105.8208202  27.0992212 -15.7504391
 112.9989992  28.1019978  -4.4959986 112.3469992  28.7959978  -4.4069986
 113.4649992  28.3119978  -5.3059986 112.9725937  28.2255019  -4.5932467
 109.0359992  28.9329978 -11.8379986 108.3039992  29.1619978 -11.2639986
 109.4829992  28.2199978 -11.3829986 108.9963963  28.8678729 -11.6980055
 108.9329992  27.1079978  -2.7699986 109.0129992  27.8709978  -2.1979986
 108.3319992  27.3869978  -3.4599986 108.8626547  27.2502457  -2.7849953
 100.6809992  29.5639978  -9.9549986 100.3509992  29.1929978 -10.7729986
 101.2699992  28.8929978  -9.6079986 100.7153970  29.4226063 -10.0200596
 102.0479992  32.9919978  -7.2739986 101.9529992  32.4129978  -8.0299986
 102.7769992  32.6209978  -6.7779986 102.1336011  32.8625561  -7.3103972
 101.0479992  28.3319978  -6.3219986 101.6129992  28.4539978  -7.0839986
 101.3669992  28.9699978  -5.6829986 101.1684166  28.4348791  -6.3399652
 107.3569992  33.8359978  -5.5879986 107.1169992  34.4979978  -4.9399986
 107.1589992  33.0009978  -5.1629986 107.2973826  33.8138115  -5.4418434
 101.9279992  32.7319978  -1.6039986 101.6169992  33.5139978  -1.1489986
 101.2779992  32.5789978  -2.2899986 101.7975538  32.8184087  -1.6344102
 107.9069992  28.0959978 -14.1519986 108.4859992  28.2459978 -13.4059986
 108.3209992  28.5659978 -14.8759986 108.0423358  28.1800954 -14.1476047
  98.8479992  28.9299978  -2.3759986  98.9179992  29.5809978  -1.6769986
  97.9569992  29.0329978  -2.7109986  98.7371690  29.0329249  -2.3256957
 105.6329992  34.8319978 -10.7169986 106.1069992  35.1279978  -9.9399986
 105.0699992  35.5709978 -10.9499986 105.6217890  34.9723036 -10.6421899
 100.1669992  34.8029978  -0.8409986 100.1749992  34.6669978  -1.7879986
  99.2509992  34.6859978  -0.5889986 100.0442528  34.7685463  -0.9366757
 111.6059992  19.8459978 -14.3389986 110.7059992  19.9849978 -14.0439986
 111.8579992  20.6769978 -14.7409986 111.5168683  19.9774055 -14.3529768
  99.6719992  28.6329978 -12.3659986  99.3799992  29.4009978 -12.8569986
  98.9969992  27.9739978 -12.5289986  99.5408497  28.6489745 -12.4551740
 112.7949992  34.2119978 -15.9629986 112.8679992  35.1509978 -15.7929986
 113.6999992  33.9069978 -16.0189986 112.9274170  34.2993282 -15.9472937
  95.7649992  30.9959978  -3.5509986  95.2629992  30.9679978  -4.3659986
  95.7699992  30.0909978  -3.2409986  95.6969832  30.8697486  -3.6205879
  95.5149992  33.7769978  -6.6669986  96.4609992  33.6319978  -6.6859986
  95.4019992  34.5609978  -6.1299986  95.6293578  33.8631697  -6.5969683
 113.7129992  34.4429978  -0.9839986 113.6629992  33.4869978  -1.0219986
 112.8859992  34.7099978  -0.5829986 113.5943831  34.3484680  -0.9349879
 104.6909992  34.0169978  -2.1079986 104.7789992  34.8429978  -1.6329986
 103.8279992  33.6869978  -1.8589986 104.5863357  34.0855468  -2.0092347
 105.1059992  37.7889978 -12.3019986 105.0299992  37.6679978 -13.2489986
 105.1379992  38.7379978 -12.1839986 105.0999380  37.9007677 -12.4154819
  98.7589992  36.5779978 -10.5209986  98.9109992  36.2299978  -9.6429986
  97.9079992  36.2209978 -10.7769986  98.6648344  36.4820879 -10.4353132
 108.2069992  36.9429978 -15.2999986 108.5819992  36.1989978 -15.7709986
 108.2119992  36.6729978 -14.3819986 108.2590098  36.8046392 -15.2403371
 107.8759992  36.8689978 -12.5509986 106.9409992  36.9689978 -12.3719986
 108.1559992  36.1589978 -11.9719986 107.7859471  36.7867933 -12.4483305
 110.8649992  25.9359978  -0.5039986 110.4569992  26.4159978  -1.2249986
 110.9049992  25.0299978  -0.8119986 110.8146221  25.8792449  -0.6441733
  98.0139992  32.3199978  -2.5079986  98.2299992  31.9579978  -1.6479986
  97.1579992  31.9449978  -2.7169986  97.9278810  32.2198837  -2.4187320
 100.6319992  20.7899978  -6.5119986  99.7709992  20.7029978  -6.9199986
 100.6099992  21.6459978  -6.0839986 100.5110491  20.8938003  -6.5100418
 105.2949992  20.5119978  -3.1369986 105.7149992  20.0969978  -2.3839986
 104.3619992  20.3329978  -3.0199986 105.2263736  20.4309910  -3.0181032
 108.6219992  24.2669978  -2.2839986 108.1079992  24.1419978  -1.4859986
 108.4659992  25.1799978  -2.5279986 108.5306967  24.3732123  -2.2079063
 109.3839992  29.1279978 -16.5229986 109.4259992  28.9059978 -17.4529986
 110.2329992  29.5269978 -16.3329986 109.5045253  29.1515498 -16.6246178
 104.9569992  23.0039978 -15.8519986 104.7029992  23.0229978 -14.9299986
 104.6999992  22.1329978 -16.1539986 104.8874508  22.8888280 -15.7665197
 100.7229992  25.7549978  -5.4169986 100.0819992  25.7149978  -4.7079986
 100.7609992  26.6819978  -5.6549986 100.6403010  25.8747668  -5.3520054
 100.7199992  25.9759978 -10.5049986  99.8279992  25.6359978 -10.5639986
 101.1709992  25.5989978 -11.2609986 100.6587642  25.8784910 -10.6152274
 106.2559992  26.3919978 -11.6879986 105.8469992  27.2069978 -11.9799986
 106.9759992  26.2519978 -12.3019986 106.2974439  26.4845372 -11.8109885
 105.3579992  26.5679978  -0.1999986 104.7949992  25.8629978   0.1210014
 106.1839992  26.4469978   0.2680014 105.3926674  26.4552165  -0.0928249
 107.2609992  25.8379978  -8.8739986 107.0649992  26.4439978  -9.5889986
 107.4419992  25.0049978  -9.3079986 107.2586584  25.8082513  -9.0305788
  98.4729992  26.0759978  -3.5499986  98.4349992  26.4759978  -2.6809986
  97.9829992  25.2589978  -3.4599986  98.4015330  26.0202674  -3.4188711
 101.8389992  23.4499978 -16.7509986 101.4079992  23.0049978 -16.0219986
 101.1209992  23.8209978 -17.2639986 101.6829176  23.4392051 -16.7205070
  95.0819992  23.1919978  -9.6989986  95.7119992  23.1629978  -8.9799986
  95.5309992  22.7669978 -10.4299986  95.2290835  23.1305660  -9.6992341
  96.3559992  23.9379978 -14.2749986  96.8299992  24.5289978 -14.8599986
  95.6379992  24.4679978 -13.9279986  96.3238640  24.0905511 -14.3082031
 106.5249992  27.4759978  -4.2029986 106.8479992  26.8449978  -4.8459986
 106.0839992  26.9419978  -3.5419986 106.5096379  27.3173468  -4.2017418
 103.3019992  23.4039978  -9.4189986 102.3909992  23.4609978  -9.1299986
 103.8069992  23.3439978  -8.6079986 103.2456873  23.4036826  -9.2698793
  98.1299992  25.0329978 -10.5919986  97.2409992  25.1319978 -10.9319986
  98.4269992  24.1909978 -10.9379986  98.0484177  24.9327687 -10.6853060
 101.7829992  25.0329978 -12.9349986 102.7149992  25.1619978 -12.7569986
 101.5679992  25.7019978 -13.5849986 101.8814472  25.1410806 -12.9985109
 107.7069992  22.6389978  -6.1539986 107.0299992  22.7699978  -5.4909986
 107.2219992  22.4839978  -6.9649986 107.5487405  22.6359947  -6.1727830
 100.4569992  26.2269978 -15.3689986  99.9149992  25.8479978 -16.0599986
 101.2909992  26.4219978 -15.7969986 100.4954390  26.2014079 -15.5215608
 110.9949992  38.3099978   0.1220014 111.1939992  38.7339978  -0.7119986
 111.6499992  38.6539978   0.7290014 111.1108522  38.4146301   0.0897852
  98.5929992  30.7839978  -0.2699986  99.3249992  31.0389978   0.2920014
  97.8119992  30.9889978   0.2460014  98.5876526  30.8465450  -0.1234824
 104.6219992  26.1909978  -7.5319986 105.1859992  25.6449978  -8.0789986
 104.4739992  25.6699978  -6.7429986 104.6793037  26.0456787  -7.5002771
  99.6239992  22.3279978 -11.1129986  99.3069992  21.4249978 -11.1489986
 100.4049992  22.3299978 -11.6659986  99.6862431  22.2047797 -11.1926898
 103.2479992  24.5799978  -5.1179986 102.4129992  25.0339978  -5.0069986
 103.7719992  24.8559978  -4.3659986 103.2046072  24.6793948  -5.0011864
 103.7929992  30.7929978 -13.4329986 103.0479992  30.2849978 -13.7549986
 103.6579992  30.8419978 -12.4869986 103.6728963  30.7301731 -13.3491174
 110.9429992  29.9259978  -4.6459986 111.5839992  30.3819978  -5.1899986
 110.1119992  30.0389978  -5.1089986 110.9185287  30.0036921  -4.7830113
 107.6899992  23.6069978 -15.2339986 106.7519992  23.7179978 -15.3849986
 107.9879992  24.4629978 -14.9269986 107.6016318  23.7380158 -15.2131855
 105.3119992  30.9769978  -2.1959986 104.9659992  30.5949978  -1.3889986
 105.1119992  31.9099978  -2.1249986 105.2375987  31.0509002  -2.0759539
 108.4089992  25.4739978 -13.5729986 109.3009992  25.3359978 -13.2539986
 108.4649992  26.2649978 -14.1099986 108.5387325  25.5619918 -13.6018783
  98.9169992  30.0879978  -7.6629986  99.6619992  30.0849978  -8.2649986
  98.9949992  29.2639978  -7.1819986  99.0293365  29.9762384  -7.6802570
 105.9179992  32.2509978 -14.4079986 105.6229992  33.0779978 -14.0259986
 105.2149992  31.6319978 -14.2109986 105.7826379  32.2804171 -14.3291346
  95.9249992  28.5479978  -2.3479986  96.1479992  28.1299978  -1.5169986
  95.3229992  27.9359978  -2.7709986  95.8741513  28.4079606  -2.2913260
 102.9419992  28.0649978  -0.1349986 102.6459992  27.8999978  -1.0309986
 103.8729992  27.8449978  -0.1459986 103.0274401  28.0126879  -0.2589794
 107.5619992  33.4389978  -2.2459986 106.6619992  33.6219978  -2.5129986
 107.5959992  33.6979978  -1.3249986 107.4433748  33.4990554  -2.1580836
 113.2939992  25.6829978 -13.8779986 112.7389992  25.2869978 -14.5509986
 113.3939992  26.5939978 -14.1559986 113.2316816  25.7519505 -14.0074967
 113.2569992  31.4839978  -1.0409986 112.4059992  31.7219978  -1.4089986
 113.8469992  31.4669978  -1.7939986 113.2203812  31.5142524  -1.1931547
 111.5889992  34.4689978 -13.4129986 111.2159992  33.6439978 -13.1039986
 111.8659992  34.2859978 -14.3109986 111.5753463  34.3312569 -13.4920475
 108.7489992  29.2769978  -6.3919986 107.8209992  29.0459978  -6.4189986
 109.1999992  28.4999978  -6.7219986 108.6828165  29.1402774  -6.4403210
 101.2919992  33.6059978 -10.2589986 101.8199992  34.3789978 -10.4589986
 100.4119992  33.8299978 -10.5609986 101.2453435  33.7422700 -10.3272690
  97.0469992  28.4679978 -15.6719986  97.6629992  29.0949978 -15.2919986
  96.1849992  28.7839978 -15.3999986  97.0147678  28.5964412 -15.5832791
 102.7199992  31.2689978 -10.6829986 102.4789992  32.1939978 -10.6409986
 101.9789992  30.8099978 -10.2859986 102.5869206  31.3335915 -10.6236231
 103.2339992  35.4179978  -4.3679986 103.5969992  36.2719978  -4.6009986
 103.7659992  35.1259978  -3.6269986 103.3555141  35.4953895  -4.2997903
 101.4029992  36.2899978 -11.1369986 100.4529992  36.3959978 -11.0859986
 101.7549992  37.1109978 -10.7929986 101.3205472  36.4154923 -11.0835148
 106.7779992  31.5169978  -4.6669986 106.3529992  31.2889978  -3.8409986
 107.3589992  30.7779978  -4.8489986 106.7983395  31.3859545  -4.5785586
 108.9809992  32.4459978 -15.5929986 109.3349992  32.0659978 -14.7889986
 108.0329992  32.3519978 -15.5059986 108.9012298  32.3812452 -15.4711313
 109.4369992  36.0689978  -2.1979986 108.8349992  35.5129978  -2.6929986
 109.7179992  36.7359978  -2.8239986 109.3925757  36.0830744  -2.3504325
 113.4849992  36.9249978 -15.3919986 114.2289992  37.5109978 -15.5319986
 112.7909992  37.4939978 -15.0589986 113.4929809  37.0820818 -15.3661410
  97.5589992  23.3019978  -2.7899986  96.6669992  23.6399978  -2.8579986
  97.4609992  22.4459978  -2.3719986  97.4234475  23.2326543  -2.7428296
 109.8469992  31.1179978 -13.3659986 109.5699992  30.3899978 -12.8099986
 110.7749992  31.2369978 -13.1609986 109.9344499  31.0344213 -13.2621956
  97.2109992  35.1059978  -4.3549986  97.4279992  34.1739978  -4.3859986
  97.4569992  35.3809978  -3.4719986  97.2739809  35.0155686  -4.2398309
 102.0089992  33.1279978 -14.6899986 102.1559992  32.6079978 -13.8999986
 102.0059992  34.0349978 -14.3829986 102.0287102  33.1793953 -14.5404075
  98.4619992  30.3799978 -14.1789986  97.7759992  30.7329978 -13.6119986
  98.9849992  31.1429978 -14.4259986  98.4388402  30.5313901 -14.1348199
 106.2939992  23.0429978  -3.8999986 106.9929992  23.1169978  -3.2499986
 105.9129992  22.1779978  -3.7459986 106.3382097  22.9362389  -3.7902003
 107.0779992  22.6949978 -12.8029986 107.2979992  23.1659978 -13.6069986
 107.6369992  23.0889978 -12.1329986 107.1836731  22.8127287 -12.8224967
 104.7469992  34.8249978 -13.9399986 103.9299992  35.3219978 -13.8879986
 105.2759992  35.3009978 -14.5809986 104.7068125  34.9571989 -14.0194694
 104.2779992  24.4229978 -11.9679986 105.0899992  24.9269978 -11.9219986
 104.0339992  24.2779978 -11.0539986 104.3561467  24.4723749 -11.8381425
 104.8139992  25.4089978  -2.7839986 104.9329992  25.9829978  -2.0269986
 105.4689992  24.7209978  -2.6689986 104.9188684  25.3945194  -2.6648326
 105.1619992  21.5039978 -11.0299986 104.8149992  22.1209978 -10.3859986
 105.8209992  22.0049978 -11.5119986 105.2035090  21.6561575 -11.0069319
 102.0849992  35.8689978 -13.9589986 102.2459992  36.6689978 -14.4589986
 101.8879992  36.1759978 -13.0739986 102.0803906  36.0198678 -13.9077667
 100.8199992  22.5669978 -14.3429986 100.7359992  23.4549978 -13.9959986
 101.7099992  22.3019978 -14.1109986 100.9288163  22.6527179 -14.2641404
 111.0179992  23.3159978  -1.9489986 110.1019992  23.5779978  -2.0359986
 111.3539992  23.3129978  -2.8449986 110.9378499  23.3515163  -2.0821234
 109.6209992  27.0659978  -7.8529986 108.8229992  26.6509978  -8.1809986
 110.0659992  26.3759978  -7.3619986 109.5719684  26.9158628  -7.8314773
  99.0779992  32.9939978 -15.2829986  99.6699992  33.6939978 -15.0059986
  99.5369992  32.5609978 -16.0019986  99.2211652  33.0312675 -15.3423467
  97.3939992  25.6589978 -16.1669986  97.3489992  26.5979978 -15.9879986
  96.5059992  25.4229978 -16.4359986  97.2678166  25.7556687 -16.1788476
 110.7069992  36.3219978  -6.2309986 110.5509992  37.0009978  -6.8879986
 111.6399992  36.3939978  -6.0279986 110.8117387  36.4246390  -6.2934658
  98.2019992  20.4399978  -7.4929986  97.9729992  20.4989978  -8.4209986
  97.7599992  19.6489978  -7.1869986  98.1108801  20.3410540  -7.5785271
  97.1329992  34.3809978 -11.3329986  96.2999992  34.8529978 -11.3059986
  97.6779992  34.8909978 -11.9319986  97.0927857  34.5144791 -11.4102858
  96.4209992  36.9929978  -0.0029986  96.9609992  36.7769978   0.7570014
  95.9399992  36.1879978  -0.1929986  96.4299219  36.8545156   0.0754282
 101.0179992  35.9129978   1.6170014 101.7859992  35.4539978   1.9580014
 100.9969992  35.6869978   0.6870014 101.1202135  35.8196668   1.5379491
 105.1099992  35.4209978 -17.0069986 104.4659992  34.7899978 -16.6859986
 105.8719992  34.8899978 -17.2389986 105.1248058  35.2627902 -16.9943962
 107.5949992  34.2929978   0.3460014 107.2439992  33.4359978   0.5900014
 108.3209992  34.4349978   0.9530014 107.6451895  34.1951351   0.4613770
 109.7149992  35.2379978 -16.7739986 109.9979992  34.4429978 -16.3209986
 110.4539992  35.4709978 -17.3349986 109.8537096  35.1607049 -16.7878896
  96.3279992  30.8039978   0.9510014  96.4719992  29.9019978   0.6650014
  95.5559992  31.0899978   0.4640014  96.2432733  30.7191798   0.8459532
 100.6689992  31.1469978 -16.9159986 100.7339992  30.3529978 -16.3859986
 101.3219992  31.0289978 -17.6059986 100.7661605  31.0223430 -16.9367003
 102.9829992  30.7729978   0.3840014 102.6549992  31.0439978  -0.4729986
 103.1349992  29.8319978   0.2960014 102.9586412  30.6829046   0.2547822
 108.7179992  30.6889978  -2.2329986 109.4629992  31.2779978  -2.3519986
 107.9609992  31.2709978  -2.1689986 108.7175470  30.8482128  -2.2406201
  97.1609992  28.0039978   0.3710014  97.5689992  27.1469978   0.2500014
  96.8999992  28.0179978   1.2920014  97.1816016  27.8885119   0.4789192
 101.8189992  29.1199978 -14.6099986 101.3589992  28.6359978 -13.9249986
 102.0739992  28.4509978 -15.2459986 101.7904856  28.9633669 -14.6021603
 101.1079992  27.0129978  -2.2539986 100.4889992  27.6869978  -1.9739986
 101.4519992  27.3339978  -3.0879986 101.0697123  27.1486887  -2.3283612
 102.8899992  27.3629978 -16.3479986 102.7089992  27.2079978 -17.2749986
 103.8399992  27.4709978 -16.3029986 102.9936566  27.3563669 -16.4689071
 106.1269992  29.4839978   1.0230014 107.0809992  29.5679978   0.9960014
 105.9669992  28.7719978   1.6430014 106.2357182  29.3992842   1.1030733
 112.2799992  29.7169978 -16.9019986 112.0059992  29.2929978 -17.7149986
 112.3189992  30.6489978 -17.1189986 112.2477716  29.7848827 -17.0425714
 101.4469992  24.3679978  -1.1719986 101.5969992  23.6389978  -1.7739986
 101.4489992  25.1449978  -1.7309986 101.4677967  24.3732708  -1.3299459
 101.8599992  22.7369978  -3.6789986 102.3949992  23.1889978  -4.3309986
 101.0069992  22.6289978  -4.1019986 101.8180374  22.7842665  -3.8253290
 103.4409992  28.1769978  -3.4399986 104.1919992  28.0209978  -4.0129986
 103.1019992  29.0289978  -3.7149986 103.4979587  28.2708138  -3.5555922
 107.8569992  25.9919978   1.5890014 108.0489992  25.0609978   1.4770014
 108.7149992  26.4169978   1.5780014 107.9992182  25.9220070   1.5721862
 109.1739992  28.7809978  -0.3339986 108.8919992  29.4899978  -0.9119986
 110.1159992  28.7079978  -0.4849986 109.2627921  28.8682193  -0.4335775
  99.9259992  25.5659978   0.7390014  99.1579992  25.0329978   0.5290014
 100.6039992  25.2559978   0.1400014  99.9127235  25.4511754   0.6292413
 102.6649992  20.1939978  -3.2479986 102.5669992  21.1399978  -3.3529986
 101.9229992  19.8209978  -3.7239986 102.5512534  20.2731773  -3.3267400
 103.9289992  24.5149978   0.3160014 103.6939992  24.2959978   1.2170014
 103.1459992  24.3079978  -0.1939986 103.7909095  24.4569892   0.3705353
 106.6449992  23.6429978  -0.6089986 105.6969992  23.6749978  -0.4769986
 106.9569992  23.0169978   0.0450014 106.5575293  23.5627923  -0.5025852
 108.2789992  22.2769978   1.3960014 108.1819992  21.3249978   1.3910014
 107.9569992  22.5449978   2.2570014 108.2222468  22.1830884   1.5116210
  98.1059992  23.4859978   0.4440014  98.3179992  22.7799978  -0.1659986
  97.9949992  23.0489978   1.2880014  98.1200269  23.3301921   0.4745873
 102.8869992  19.4879978  -0.5769986 103.5989992  18.8479978  -0.5909986
 102.7859992  19.7539978  -1.4899986 102.9707387  19.4364330  -0.7024437
 103.2409992  21.1699978   1.4770014 103.1089992  20.6949978   0.6570014
 102.6409992  21.9149978   1.4220014 103.1419070  21.2055789   1.3573251
 102.7869992  38.0529978 -15.3469986 103.7199992  38.2109978 -15.2029986
 102.5229992  38.7289978 -15.9719986 102.8789911  38.1659373 -15.4117278
  96.3549992  32.6899978 -15.8639986  97.2689992  32.7689978 -15.5909986
  96.3629992  32.0029978 -16.5299986  96.4810655  32.6079205 -15.9167083
  95.0039992  38.0829978 -10.7869986  94.3569992  37.6209978 -11.3189986
  95.3589992  37.4109978 -10.2039986  94.9633741  37.9289774 -10.7810825
  95.8739992  36.1629978  -8.9819986  95.5399992  35.2829978  -8.8099986
  96.0969992  36.5089978  -8.1169986  95.8583721  36.0891938  -8.8415832
 113.4229992  36.9729978  -6.0009986 113.4009992  37.1579978  -5.0619986
 114.1129992  37.5409978  -6.3419986 113.5133439  37.0751887  -5.9185209
 112.9859992  36.5399978  -3.0799986 112.4989992  35.8049978  -3.4509986
 113.5349992  36.1459978  -2.4019986 112.9935247  36.3861057  -3.0391539
 111.4369992  32.3299978   1.5590014 110.5709992  32.2249978   1.9530014
 111.8129992  33.0879978   2.0050014 111.3693401  32.4181708   1.6732620
 112.7379992  30.5859978 -12.9269986 113.5879992  31.0069978 -12.7999986
 112.7429992  29.8459978 -12.3199986 112.8551143  30.5436094 -12.8275250
 113.1319992  28.6399978 -11.1039986 112.4059992  28.1599978 -10.7059986
 113.7139992  28.8449978 -10.3709986 113.1112730  28.6020184 -10.9505851
 112.8909992  31.4249978  -6.1559986 113.7249992  31.0469978  -6.4369986
 113.0029992  32.3679978  -6.2749986 113.0201917  31.5007943  -6.2105139
 111.3779992  34.3029978  -3.8489986 110.7299992  34.6279978  -3.2239986
 110.8599992  33.8619978  -4.5229986 111.2194196  34.2878651  -3.8545848
 113.4009992  28.5409978 -14.7129986 112.8789992  28.8969978 -15.4309986
 113.3679992  29.2159978 -14.0339986 113.3250129  28.6809598 -14.7196645
 111.7499992  25.7799978 -16.1619986 111.8459992  26.4469978 -16.8419986
 111.6099992  24.9649978 -16.6429986 111.7442040  25.7610671 -16.3201622
 110.9189992  27.1609978 -10.5409986 110.7689992  26.2159978 -10.5609986
 110.5649992  27.4419978  -9.6969986 110.8506351  27.0696644 -10.4296780
  95.9539992  29.2389978  -6.5299986  96.1389992  29.1569978  -7.4659986
  96.8039992  29.1149978  -6.1069986  96.0940928  29.2110463  -6.6007107
 111.7749992  29.1309978  -0.9019986 112.3579992  28.3959978  -0.7099986
 112.3389992  29.9029978  -0.8549986 111.9309781  29.1348145  -0.8693836
 113.2719992  27.0339978  -0.2169986 112.4089992  26.6549978  -0.3829986
 113.8759992  26.2949978  -0.2919986 113.2356085  26.8823223  -0.2498305
 110.9969992  23.1879978 -17.0439986 111.6079992  22.8169978 -16.4069986
 110.1599992  22.7669978 -16.8479986 110.9674947  23.0802756 -16.9302748
 110.6299992  24.7429978 -12.0779986 110.9089992  23.8359978 -11.9539986
 111.3889992  25.1769978 -12.4669986 110.7708619  24.6774502 -12.1136205
 111.2409992  25.3249978  -6.6419986 112.1739992  25.5369978  -6.6769986
 111.0059992  25.4259978  -5.7199986 111.3369517  25.3676833  -6.5220870
 111.2709992  26.0619978  -3.8659986 110.4279992  26.3299978  -3.4999986
 111.7129992  26.8839978  -4.0769986 111.2154138  26.2098273  -3.8444482
  95.5519992  24.5089978  -0.3899986  96.4709992  24.3869978  -0.1529986
  95.1019992  23.7589978   0.0000014  95.6170087  24.3909608  -0.3048590
 113.5539992  20.0419978   1.4870014 113.9029992  19.3879978   0.8820014
 113.7009992  20.8789978   1.0470014 113.6216824  20.0656024   1.3446304
 111.2429992  22.0059978 -12.0299986 111.4249992  21.5569978 -11.2049986
 110.6429992  21.4219978 -12.4939986 111.1868187  21.8655552 -11.9797261
  96.7729992  22.8219978  -7.4979986  97.2179992  22.0299978  -7.1959986
  97.2389992  23.5379978  -7.0679986  96.8969718  22.8104534  -7.3984735
  95.0769992  25.8209978  -6.4289986  95.5689992  25.5999978  -7.2199986
  95.4389992  26.6609978  -6.1479986  95.1932923  25.9043468  -6.4992593
 113.0729992  22.1509978  -0.1639986 112.1559992  22.4219978  -0.1989986
 113.1959992  21.6159978  -0.9479986 112.9639672  22.1157885  -0.2748138
 113.1099992  22.0739978 -15.5019986 113.5219992  21.3529978 -15.9769986
 113.7909992  22.7429978 -15.4439986 113.2585536  22.0657766 -15.5591976
  95.3909992  22.0789978 -12.3749986  94.4659992  22.2869978 -12.5039986
  95.8449992  22.5629978 -13.0649986  95.3256298  22.1729299 -12.4859549
 110.1609992  37.0629978 -10.4289986 110.8139992  36.7149978 -11.0369986
 110.6719992  37.5509978  -9.7829986 110.3192777  37.0813815 -10.4247953
  95.3539992  20.8169978  -4.0309986  94.6889992  20.5709978  -3.3879986
  94.9109992  21.4389978  -4.6079986  95.2031168  20.8674214  -4.0210152
  97.5459992  33.9919978   0.1140014  96.7249992  34.1669978  -0.3469986
  97.2939992  33.9189978   1.0340014  97.3995594  34.0060717   0.1753611
 100.4999992  34.9659978  -3.6279986 100.0759992  35.7759978  -3.9099986
 101.4049992  35.0519978  -3.9299986 100.5642138  35.0884160  -3.7073585
 104.8119992  36.3649978  -0.6679986 104.9959992  36.0319978   0.2100014
 105.6579992  36.6749978  -0.9899986 104.9516484  36.3612979  -0.5912383
 107.1569992  37.6509978  -1.4239986 107.8339992  37.0179978  -1.6639986
 107.4779992  38.0519978  -0.6169986 107.2931323  37.6185691  -1.3476842
 112.0739992  20.2409978  -2.3449986 111.2609992  20.5659978  -2.7319986
 112.3069992  19.4799978  -2.8779986 111.9941347  20.1826880  -2.4700159
  97.9019992  38.2229978  -3.5799986  97.1819992  38.6629978  -4.0309986
  97.5369992  37.9719978  -2.7319986  97.7539643  38.2493369  -3.5270871
 100.3689992  37.8229978  -4.5499986  99.5049992  37.8949978  -4.1459986
 100.3139992  38.3699978  -5.3339986 100.2431942  37.9067849  -4.6006000
 105.0799992  37.7109978  -5.3749986 104.6229992  38.2399978  -6.0289986
 105.2429992  38.3139978  -4.6499986 105.0394960  37.8649280  -5.3664726
 107.4079992  36.5889978  -4.4299986 106.5029992  36.7539978  -4.6959986
 107.8359992  37.4419978  -4.4959986 107.3421537  36.7269134  -4.4752905
 110.0119992  38.1589978  -4.1349986 109.8299992  39.0749978  -4.3459986
 110.1889992  37.7479978  -4.9819986 110.0110030  38.2288273  -4.2782834
  97.3169992  36.8459978  -6.6699986  97.2989992  36.4199978  -5.8129986
  98.1219992  36.5269978  -7.0789986  97.4232875  36.7446435  -6.6080485
  99.4579992  35.5559978  -8.0149986  99.2389992  34.6389978  -7.8449986
 100.2819992  35.6959978  -7.5489986  99.5394702  35.4495511  -7.9287473
 101.9949992  36.0259978  -7.1659986 102.2079992  35.1379978  -7.4529986
 102.0599992  35.9909978  -6.2119986 102.0329149  35.8998326  -7.0762631
 105.5039992  21.6899978  -8.0219986 104.8299992  21.0599978  -7.7659986
 106.0679992  21.2059978  -8.6249986 105.4880384  21.5383708  -8.0684980
 110.6469992  19.7969978  -7.9089986 111.2499992  20.3449978  -8.4109986
 109.7769992  20.1159978  -8.1499986 110.6119157  19.9150373  -8.0102090
 112.3739992  20.9359978  -9.5759986 112.9849992  20.4219978 -10.1029986
 112.7559992  21.8129978  -9.5529986 112.5093305  20.9842050  -9.6450582
  97.8309992  20.3239978 -10.1999986  97.0539992  20.0889978 -10.7069986
  98.3609992  19.5269978 -10.1909986  97.7963451  20.1841268 -10.2681373
  96.6669992  20.1219978 -14.3959986  97.1059992  20.7329978 -14.9879986
  96.0329992  20.6599978 -13.9219986  96.6413859  20.2784064 -14.4129695
 102.4099992  20.2499978 -10.3869986 103.2839992  20.6389978 -10.4159986
 102.2739992  20.0349978  -9.4639986 102.5111953  20.2741643 -10.2662383
 107.9669992  20.2799978  -8.7369986 108.0429992  20.3759978  -9.6869986
 107.6919992  19.3729978  -8.6089986 107.9401871  20.1704146  -8.8496056
 109.3199992  20.3059978 -13.0449986 108.6169992  20.9209978 -13.2549986
 108.8749992  19.4689978 -12.9139986 109.1636550  20.2769668 -13.0560163
  96.5679992  36.0699978 -13.4989986  95.8829992  36.0319978 -14.1659986
  96.5719992  36.9829978 -13.2109986  96.4747621  36.1881924 -13.5513874
  98.5279992  22.0379978 -15.9539986  99.0189992  21.4079978 -16.4809986
  99.1509992  22.3339978 -15.2909986  98.6795304  21.9917376 -15.9365060
 103.5539992  22.3309978 -13.4969986 103.7319992  21.6839978 -12.8139986
 103.4999992  23.1649978 -13.0299986 103.5710678  22.3551604 -13.3403699
 105.4319992  37.2789978 -15.1009986 106.2979992  37.6459978 -15.2789986
 105.1859992  36.8399978 -15.9149986 105.5172097  37.2698525 -15.2353981
 112.1409992  36.8419978 -12.4219986 111.9469992  36.0939978 -12.9869986
 112.1019992  37.5999978 -13.0049986 112.1091645  36.8420786 -12.5781852
  97.7879992  20.8379978  -0.6819986  97.4219992  20.0719978  -0.2399986
  98.7009992  20.8669978  -0.3959986  97.8613172  20.7370324  -0.5828110
  99.7609992  20.1879978   0.8530014 100.6599992  19.9139978   0.6690014
  99.3749992  19.4459978   1.3180014  99.8317307  20.0502196   0.8907098
  98.3859992  36.9899978 -16.4739986  98.1179992  37.2759978 -15.5999986
  99.1569992  36.4439978 -16.3209986  98.4535926  36.9552779 -16.3338795
 108.1829992  19.5209978   1.0360014 108.2589992  19.0949978   1.8890014
 109.0759992  19.5339978   0.6930014 108.3142303  19.4643493   1.1065497
 111.3589992  35.5939978  -0.2719986 110.5769992  35.4069978  -0.7919986
 111.2869992  36.5229978  -0.0549986 111.2421924  35.6940637  -0.3138398
 125.7649992  29.4799978 -10.2409986 125.8539992  30.4239978 -10.3729986
 125.1269992  29.2049978 -10.8989986 125.6909062  29.5719812 -10.3480359
 124.6979992  28.7349978  -6.8219986 124.6599992  28.0889978  -6.1169986
 124.3759992  28.2679978  -7.5929986 124.6492679  28.5834276  -6.8297079
 117.0659992  28.3489978  -5.2289986 117.1079992  27.7239978  -4.5059986
 117.7689992  28.9729978  -5.0469986 117.1667345  28.3477873  -5.1054726
 128.4039992  31.6739978  -8.5209986 127.9629992  30.9539978  -8.0699986
 128.3909992  32.3949978  -7.8909986 128.3419215  31.6729291  -8.3741895
 117.9899992  32.7989978  -6.6939986 117.6199992  31.9969978  -7.0639986
 118.9309992  32.6309978  -6.6479986 118.0665984  32.6664638  -6.7384397
 114.5999992  26.4589978 -11.3019986 114.1519992  27.3049978 -11.3199986
 114.0389992  25.8799978 -11.8169986 114.4628546  26.4963993 -11.3741109
 115.3099992  28.6209978  -9.1759986 115.5239992  27.8509978  -8.6479986
 116.0479992  28.7109978  -9.7789986 115.4390200  28.5278587  -9.1852965
 125.5159992  36.7779978  -8.3089986 126.1349992  36.1019978  -8.5819986
 125.3069992  36.5599978  -7.3999986 125.5726056  36.6558869  -8.2236033
 123.0869992  31.1669978  -6.4159986 123.3909992  30.4809978  -7.0109986
 123.8089992  31.2859978  -5.7979986 123.2261240  31.0892314  -6.4139041
 131.7499992  22.7689978  -5.5559986 131.7999992  23.3789978  -4.8199986
 132.1759992  23.2299978  -6.2789986 131.8144108  22.9147709  -5.5529888
 126.2279992  25.5609978  -6.0889986 126.3709992  24.6149978  -6.0689986
 126.1219992  25.7679978  -7.0169986 126.2332403  25.4594797  -6.2117761
 119.3829992  23.6629978  -8.8159986 119.4259992  24.5229978  -9.2349986
 118.9249992  23.1109978  -9.4499986 119.3269871  23.7059245  -8.9589239
 127.1049992  23.7939978 -10.4149986 127.7519992  23.4649978  -9.7909986
 127.6149992  24.3109978 -11.0379986 127.2624351  23.8189067 -10.4138963
 116.0029992  26.0599978  -8.0539986 116.6569992  25.5099978  -7.6219986
 116.0269992  25.7859978  -8.9709986 116.0957199  25.9477167  -8.1188332
 121.1599992  27.6099978  -8.8389986 121.7759992  27.0829978  -8.3299986
 120.5729992  26.9699978  -9.2429986 121.1650154  27.4513954  -8.8239055
 132.1419992  24.2469978  -3.3199986 131.4529992  24.9049978  -3.4149986
 132.1569992  24.0489978  -2.3829986 132.0497756  24.3102603  -3.2064188
 118.1929992  22.5809978  -4.7419986 117.9739992  23.1109978  -5.5089986
 117.5249992  22.8069978  -4.0949986 118.0726975  22.6840967  -4.7594860
 125.5619992  32.0809978 -11.1979986 125.2669992  31.7579978 -12.0499986
 125.2379992  32.9809978 -11.1569986 125.4778460  32.1584464 -11.3090286
 120.7619992  30.2559978  -4.4549986 120.0219992  30.8549978  -4.3509986
 121.4759992  30.8099978  -4.7699986 120.7573500  30.4127829  -4.4833629
 128.8689992  23.0849978  -8.4349986 128.6539992  22.3189978  -7.9019986
 129.5249992  23.5569978  -7.9219986 128.9282673  23.0440728  -8.2928010
 117.7869992  24.4729978  -6.7899986 118.4009992  25.1059978  -6.4169986
 118.2989992  24.0009978  -7.4459986 117.9401962  24.4957249  -6.8277065
 119.1699992  32.2209978  -3.6679986 119.1639992  33.0999978  -4.0459986
 118.3159992  32.1369978  -3.2429986 119.0537925  32.3299535  -3.6623113
 115.2909992  31.8919978 -12.8859986 115.0189992  32.1209978 -13.7739986
 115.3359992  32.7289978 -12.4249986 115.2598097  32.0366163 -12.9453317
 128.9159992  33.5129978  -6.1729986 127.9739992  33.5719978  -6.0109986
 129.1919992  34.4189978  -6.3099986 128.8245865  33.6435288  -6.1693808
 129.2159992  21.7999978  -4.7559986 128.4799992  22.4099978  -4.7929986
 129.8999992  22.2149978  -5.2819986 129.2075367  21.9397551  -4.8321826
 122.2199992  19.8859978  -7.2899986 122.1019992  18.9379978  -7.3439986
 121.3649992  20.2189978  -7.0169986 122.0882805  19.8012202  -7.2604921
 127.1679992  35.2939978  -9.5479986 127.5929992  34.5869978 -10.0329986
 127.4849992  36.0959978  -9.9649986 127.2690266  35.3055190  -9.6707521
 128.3279992  33.1949978 -11.0389986 128.0699992  32.5049978 -11.6509986
 128.3989992  32.7519978 -10.1939986 128.3023050  33.0406814 -11.0084379
 130.0139992  31.7619978  -2.5619986 130.1529992  31.1699978  -3.3009986
 130.1809992  32.6349978  -2.9179986 130.0556193  31.7988896  -2.7113789
 124.4859992  28.7239978 -12.7889986 123.7749992  29.2589978 -13.1409986
 125.1769992  28.7789978 -13.4489986 124.4820751  28.8046777 -12.9264142
 124.5399992  27.1809978 -15.7509986 125.2409992  27.2039978 -15.0989986
 124.8419992  26.5529978 -16.4069986 124.6768202  27.0992212 -15.7504391
 131.8549992  28.1019978  -4.4959986 131.2029992  28.7959978  -4.4069986
 132.3209992  28.3119978  -5.3059986 131.8285937  28.2255019  -4.5932467
 127.8919992  28.9329978 -11.8379986 127.1599992  29.1619978 -11.2639986
 128.3389992  28.2199978 -11.3829986 127.8523963  28.8678729 -11.6980055
 127.7889992  27.1079978  -2.7699986 127.8689992  27.8709978  -2.1979986
 127.1879992  27.3869978  -3.4599986 127.7186547  27.2502457  -2.7849953
 119.5369992  29.5639978  -9.9549986 119.2069992  29.1929978 -10.7729986
 120.1259992  28.8929978  -9.6079986 119.5713970  29.4226063 -10.0200596
 120.9039992  32.9919978  -7.2739986 120.8089992  32.4129978  -8.0299986
 121.6329992  32.6209978  -6.7779986 120.9896011  32.8625561  -7.3103972
 119.9039992  28.3319978  -6.3219986 120.4689992  28.4539978  -7.0839986
 120.2229992  28.9699978  -5.6829986 120.0244166  28.4348791  -6.3399652
 126.2129992  33.8359978  -5.5879986 125.9729992  34.4979978  -4.9399986
 126.0149992  33.0009978  -5.1629986 126.1533826  33.8138115  -5.4418434
 120.7839992  32.7319978  -1.6039986 120.4729992  33.5139978  -1.1489986
 120.1339992  32.5789978  -2.2899986 120.6535538  32.8184087  -1.6344102
 126.7629992  28.0959978 -14.1519986 127.3419992  28.2459978 -13.4059986
 127.1769992  28.5659978 -14.8759986 126.8983358  28.1800954 -14.1476047
 117.7039992  28.9299978  -2.3759986 117.7739992  29.5809978  -1.6769986
 116.8129992  29.0329978  -2.7109986 117.5931690  29.0329249  -2.3256957
 124.4889992  34.8319978 -10.7169986 124.9629992  35.1279978  -9.9399986
 123.9259992  35.5709978 -10.9499986 124.4777890  34.9723036 -10.6421899
 119.0229992  34.8029978  -0.8409986 119.0309992  34.6669978  -1.7879986
 118.1069992  34.6859978  -0.5889986 118.9002528  34.7685463  -0.9366757
 130.4619992  19.8459978 -14.3389986 129.5619992  19.9849978 -14.0439986
 130.7139992  20.6769978 -14.7409986 130.3728683  19.9774055 -14.3529768
 118.5279992  28.6329978 -12.3659986 118.2359992  29.4009978 -12.8569986
 117.8529992  27.9739978 -12.5289986 118.3968497  28.6489745 -12.4551740
 131.6509992  34.2119978 -15.9629986 131.7239992  35.1509978 -15.7929986
 132.5559992  33.9069978 -16.0189986 131.7834170  34.2993282 -15.9472937
 114.6209992  30.9959978  -3.5509986 114.1189992  30.9679978  -4.3659986
 114.6259992  30.0909978  -3.2409986 114.5529832  30.8697486  -3.6205879
 114.3709992  33.7769978  -6.6669986 115.3169992  33.6319978  -6.6859986
 114.2579992  34.5609978  -6.1299986 114.4853578  33.8631697  -6.5969683
 132.5689992  34.4429978  -0.9839986 132.5189992  33.4869978  -1.0219986
 131.7419992  34.7099978  -0.5829986 132.4503831  34.3484680  -0.9349879
 123.5469992  34.0169978  -2.1079986 123.6349992  34.8429978  -1.6329986
 122.6839992  33.6869978  -1.8589986 123.4423357  34.0855468  -2.0092347
 123.9619992  37.7889978 -12.3019986 123.8859992  37.6679978 -13.2489986
 123.9939992  38.7379978 -12.1839986 123.9559380  37.9007677 -12.4154819
 117.6149992  36.5779978 -10.5209986 117.7669992  36.2299978  -9.6429986
 116.7639992  36.2209978 -10.7769986 117.5208344  36.4820879 -10.4353132
 127.0629992  36.9429978 -15.2999986 127.4379992  36.1989978 -15.7709986
 127.0679992  36.6729978 -14.3819986 127.1150098  36.8046392 -15.2403371
 126.7319992  36.8689978 -12.5509986 125.7969992  36.9689978 -12.3719986
 127.0119992  36.1589978 -11.9719986 126.6419471  36.7867933 -12.4483305
 129.7209992  25.9359978  -0.5039986 129.3129992  26.4159978  -1.2249986
 129.7609992  25.0299978  -0.8119986 129.6706221  25.8792449  -0.6441733
 116.8699992  32.3199978  -2.5079986 117.0859992  31.9579978  -1.6479986
 116.0139992  31.9449978  -2.7169986 116.7838810  32.2198837  -2.4187320
 119.4879992  20.7899978  -6.5119986 118.6269992  20.7029978  -6.9199986
 119.4659992  21.6459978  -6.0839986 119.3670491  20.8938003  -6.5100418
 124.1509992  20.5119978  -3.1369986 124.5709992  20.0969978  -2.3839986
 123.2179992  20.3329978  -3.0199986 124.0823736  20.4309910  -3.0181032
 127.4779992  24.2669978  -2.2839986 126.9639992  24.1419978  -1.4859986
 127.3219992  25.1799978  -2.5279986 127.3866967  24.3732123  -2.2079063
 128.2399992  29.1279978 -16.5229986 128.2819992  28.9059978 -17.4529986
 129.0889992  29.5269978 -16.3329986 128.3605253  29.1515498 -16.6246178
 123.8129992  23.0039978 -15.8519986 123.5589992  23.0229978 -14.9299986
 123.5559992  22.1329978 -16.1539986 123.7434508  22.8888280 -15.7665197
 119.5789992  25.7549978  -5.4169986 118.9379992  25.7149978  -4.7079986
 119.6169992  26.6819978  -5.6549986 119.4963010  25.8747668  -5.3520054
 119.5759992  25.9759978 -10.5049986 118.6839992  25.6359978 -10.5639986
 120.0269992  25.5989978 -11.2609986 119.5147642  25.8784910 -10.6152274
 125.1119992  26.3919978 -11.6879986 124.7029992  27.2069978 -11.9799986
 125.8319992  26.2519978 -12.3019986 125.1534439  26.4845372 -11.8109885
 124.2139992  26.5679978  -0.1999986 123.6509992  25.8629978   0.1210014
 125.0399992  26.4469978   0.2680014 124.2486674  26.4552165  -0.0928249
 126.1169992  25.8379978  -8.8739986 125.9209992  26.4439978  -9.5889986
 126.2979992  25.0049978  -9.3079986 126.1146584  25.8082513  -9.0305788
 117.3289992  26.0759978  -3.5499986 117.2909992  26.4759978  -2.6809986
 116.8389992  25.2589978  -3.4599986 117.2575330  26.0202674  -3.4188711
 120.6949992  23.4499978 -16.7509986 120.2639992  23.0049978 -16.0219986
 119.9769992  23.8209978 -17.2639986 120.5389176  23.4392051 -16.7205070
 113.9379992  23.1919978  -9.6989986 114.5679992  23.1629978  -8.9799986
 114.3869992  22.7669978 -10.4299986 114.0850835  23.1305660  -9.6992341
 115.2119992  23.9379978 -14.2749986 115.6859992  24.5289978 -14.8599986
 114.4939992  24.4679978 -13.9279986 115.1798640  24.0905511 -14.3082031
 125.3809992  27.4759978  -4.2029986 125.7039992  26.8449978  -4.8459986
 124.9399992  26.9419978  -3.5419986 125.3656379  27.3173468  -4.2017418
 122.1579992  23.4039978  -9.4189986 121.2469992  23.4609978  -9.1299986
 122.6629992  23.3439978  -8.6079986 122.1016873  23.4036826  -9.2698793
 116.9859992  25.0329978 -10.5919986 116.0969992  25.1319978 -10.9319986
 117.2829992  24.1909978 -10.9379986 116.9044177  24.9327687 -10.6853060
 120.6389992  25.0329978 -12.9349986 121.5709992  25.1619978 -12.7569986
 120.4239992  25.7019978 -13.5849986 120.7374472  25.1410806 -12.9985109
 126.5629992  22.6389978  -6.1539986 125.8859992  22.7699978  -5.4909986
 126.0779992  22.4839978  -6.9649986 126.4047405  22.6359947  -6.1727830
 119.3129992  26.2269978 -15.3689986 118.7709992  25.8479978 -16.0599986
 120.1469992  26.4219978 -15.7969986 119.3514390  26.2014079 -15.5215608
 129.8509992  38.3099978   0.1220014 130.0499992  38.7339978  -0.7119986
 130.5059992  38.6539978   0.7290014 129.9668522  38.4146301   0.0897852
 117.4489992  30.7839978  -0.2699986 118.1809992  31.0389978   0.2920014
 116.6679992  30.9889978   0.2460014 117.4436526  30.8465450  -0.1234824
 123.4779992  26.1909978  -7.5319986 124.0419992  25.6449978  -8.0789986
 123.3299992  25.6699978  -6.7429986 123.5353037  26.0456787  -7.5002771
 118.4799992  22.3279978 -11.1129986 118.1629992  21.4249978 -11.1489986
 119.2609992  22.3299978 -11.6659986 118.5422431  22.2047797 -11.1926898
 122.1039992  24.5799978  -5.1179986 121.2689992  25.0339978  -5.0069986
 122.6279992  24.8559978  -4.3659986 122.0606072  24.6793948  -5.0011864
 122.6489992  30.7929978 -13.4329986 121.9039992  30.2849978 -13.7549986
 122.5139992  30.8419978 -12.4869986 122.5288963  30.7301731 -13.3491174
 129.7989992  29.9259978  -4.6459986 130.4399992  30.3819978  -5.1899986
 128.9679992  30.0389978  -5.1089986 129.7745287  30.0036921  -4.7830113
 126.5459992  23.6069978 -15.2339986 125.6079992  23.7179978 -15.3849986
 126.8439992  24.4629978 -14.9269986 126.4576318  23.7380158 -15.2131855
 124.1679992  30.9769978  -2.1959986 123.8219992  30.5949978  -1.3889986
 123.9679992  31.9099978  -2.1249986 124.0935987  31.0509002  -2.0759539
 127.2649992  25.4739978 -13.5729986 128.1569992  25.3359978 -13.2539986
 127.3209992  26.2649978 -14.1099986 127.3947325  25.5619918 -13.6018783
 117.7729992  30.0879978  -7.6629986 118.5179992  30.0849978  -8.2649986
 117.8509992  29.2639978  -7.1819986 117.8853366  29.9762384  -7.6802570
 124.7739992  32.2509978 -14.4079986 124.4789992  33.0779978 -14.0259986
 124.0709992  31.6319978 -14.2109986 124.6386379  32.2804171 -14.3291346
 114.7809992  28.5479978  -2.3479986 115.0039992  28.1299978  -1.5169986
 114.1789992  27.9359978  -2.7709986 114.7301513  28.4079606  -2.2913260
 121.7979992  28.0649978  -0.1349986 121.5019992  27.8999978  -1.0309986
 122.7289992  27.8449978  -0.1459986 121.8834401  28.0126879  -0.2589794
 126.4179992  33.4389978  -2.2459986 125.5179992  33.6219978  -2.5129986
 126.4519992  33.6979978  -1.3249986 126.2993748  33.4990554  -2.1580836
 132.1499992  25.6829978 -13.8779986 131.5949992  25.2869978 -14.5509986
 132.2499992  26.5939978 -14.1559986 132.0876816  25.7519505 -14.0074967
 132.1129992  31.4839978  -1.0409986 131.2619992  31.7219978  -1.4089986
 132.7029992  31.4669978  -1.7939986 132.0763812  31.5142524  -1.1931547
 130.4449992  34.4689978 -13.4129986 130.0719992  33.6439978 -13.1039986
 130.7219992  34.2859978 -14.3109986 130.4313463  34.3312569 -13.4920475
 127.6049992  29.2769978  -6.3919986 126.6769992  29.0459978  -6.4189986
 128.0559992  28.4999978  -6.7219986 127.5388165  29.1402774  -6.4403210
 120.1479992  33.6059978 -10.2589986 120.6759992  34.3789978 -10.4589986
 119.2679992  33.8299978 -10.5609986 120.1013435  33.7422700 -10.3272690
 115.9029992  28.4679978 -15.6719986 116.5189992  29.0949978 -15.2919986
 115.0409992  28.7839978 -15.3999986 115.8707678  28.5964412 -15.5832791
 121.5759992  31.2689978 -10.6829986 121.3349992  32.1939978 -10.6409986
 120.8349992  30.8099978 -10.2859986 121.4429206  31.3335915 -10.6236231
 122.0899992  35.4179978  -4.3679986 122.4529992  36.2719978  -4.6009986
 122.6219992  35.1259978  -3.6269986 122.2115141  35.4953895  -4.2997903
 120.2589992  36.2899978 -11.1369986 119.3089992  36.3959978 -11.0859986
 120.6109992  37.1109978 -10.7929986 120.1765472  36.4154923 -11.0835148
 125.6339992  31.5169978  -4.6669986 125.2089992  31.2889978  -3.8409986
 126.2149992  30.7779978  -4.8489986 125.6543395  31.3859545  -4.5785586
 127.8369992  32.4459978 -15.5929986 128.1909992  32.0659978 -14.7889986
 126.8889992  32.3519978 -15.5059986 127.7572298  32.3812452 -15.4711313
 128.2929992  36.0689978  -2.1979986 127.6909992  35.5129978  -2.6929986
 128.5739992  36.7359978  -2.8239986 128.2485757  36.0830744  -2.3504325
 132.3409992  36.9249978 -15.3919986 133.0849992  37.5109978 -15.5319986
 131.6469992  37.4939978 -15.0589986 132.3489809  37.0820818 -15.3661410
 116.4149992  23.3019978  -2.7899986 115.5229992  23.6399978  -2.8579986
 116.3169992  22.4459978  -2.3719986 116.2794475  23.2326543  -2.7428296
 128.7029992  31.1179978 -13.3659986 128.4259992  30.3899978 -12.8099986
 129.6309992  31.2369978 -13.1609986 128.7904499  31.0344213 -13.2621956
 116.0669992  35.1059978  -4.3549986 116.2839992  34.1739978  -4.3859986
 116.3129992  35.3809978  -3.4719986 116.1299809  35.0155686  -4.2398309
 120.8649992  33.1279978 -14.6899986 121.0119992  32.6079978 -13.8999986
 120.8619992  34.0349978 -14.3829986 120.8847102  33.1793953 -14.5404075
 117.3179992  30.3799978 -14.1789986 116.6319992  30.7329978 -13.6119986
 117.8409992  31.1429978 -14.4259986 117.2948402  30.5313901 -14.1348199
 125.1499992  23.0429978  -3.8999986 125.8489992  23.1169978  -3.2499986
 124.7689992  22.1779978  -3.7459986 125.1942097  22.9362389  -3.7902003
 125.9339992  22.6949978 -12.8029986 126.1539992  23.1659978 -13.6069986
 126.4929992  23.0889978 -12.1329986 126.0396731  22.8127287 -12.8224967
 123.6029992  34.8249978 -13.9399986 122.7859992  35.3219978 -13.8879986
 124.1319992  35.3009978 -14.5809986 123.5628125  34.9571989 -14.0194694
 123.1339992  24.4229978 -11.9679986 123.9459992  24.9269978 -11.9219986
 122.8899992  24.2779978 -11.0539986 123.2121467  24.4723749 -11.8381425
 123.6699992  25.4089978  -2.7839986 123.7889992  25.9829978  -2.0269986
 124.3249992  24.7209978  -2.6689986 123.7748684  25.3945194  -2.6648326
 124.0179992  21.5039978 -11.0299986 123.6709992  22.1209978 -10.3859986
 124.6769992  22.0049978 -11.5119986 124.0595090  21.6561575 -11.0069319
 120.9409992  35.8689978 -13.9589986 121.1019992  36.6689978 -14.4589986
 120.7439992  36.1759978 -13.0739986 120.9363906  36.0198678 -13.9077667
 119.6759992  22.5669978 -14.3429986 119.5919992  23.4549978 -13.9959986
 120.5659992  22.3019978 -14.1109986 119.7848163  22.6527179 -14.2641404
 129.8739992  23.3159978  -1.9489986 128.9579992  23.5779978  -2.0359986
 130.2099992  23.3129978  -2.8449986 129.7938499  23.3515163  -2.0821234
 128.4769992  27.0659978  -7.8529986 127.6789992  26.6509978  -8.1809986
 128.9219992  26.3759978  -7.3619986 128.4279684  26.9158628  -7.8314773
 117.9339992  32.9939978 -15.2829986 118.5259992  33.6939978 -15.0059986
 118.3929992  32.5609978 -16.0019986 118.0771652  33.0312675 -15.3423467
 116.2499992  25.6589978 -16.1669986 116.2049992  26.5979978 -15.9879986
 115.3619992  25.4229978 -16.4359986 116.1238166  25.7556687 -16.1788476
 129.5629992  36.3219978  -6.2309986 129.4069992  37.0009978  -6.8879986
 130.4959992  36.3939978  -6.0279986 129.6677387  36.4246390  -6.2934658
 117.0579992  20.4399978  -7.4929986 116.8289992  20.4989978  -8.4209986
 116.6159992  19.6489978  -7.1869986 116.9668801  20.3410540  -7.5785271
 115.9889992  34.3809978 -11.3329986 115.1559992  34.8529978 -11.3059986
 116.5339992  34.8909978 -11.9319986 115.9487857  34.5144791 -11.4102858
 115.2769992  36.9929978  -0.0029986 115.8169992  36.7769978   0.7570014
 114.7959992  36.1879978  -0.1929986 115.2859219  36.8545156   0.0754282
 119.8739992  35.9129978   1.6170014 120.6419992  35.4539978   1.9580014
 119.8529992  35.6869978   0.6870014 119.9762135  35.8196668   1.5379491
 123.9659992  35.4209978 -17.0069986 123.3219992  34.7899978 -16.6859986
 124.7279992  34.8899978 -17.2389986 123.9808058  35.2627902 -16.9943962
 126.4509992  34.2929978   0.3460014 126.0999992  33.4359978   0.5900014
 127.1769992  34.4349978   0.9530014 126.5011895  34.1951351   0.4613770
 128.5709992  35.2379978 -16.7739986 128.8539992  34.4429978 -16.3209986
 129.3099992  35.4709978 -17.3349986 128.7097096  35.1607049 -16.7878896
 115.1839992  30.8039978   0.9510014 115.3279992  29.9019978   0.6650014
 114.4119992  31.0899978   0.4640014 115.0992733  30.7191798   0.8459532
 119.5249992  31.1469978 -16.9159986 119.5899992  30.3529978 -16.3859986
 120.1779992  31.0289978 -17.6059986 119.6221605  31.0223430 -16.9367003
 121.8389992  30.7729978   0.3840014 121.5109992  31.0439978  -0.4729986
 121.9909992  29.8319978   0.2960014 121.8146412  30.6829046   0.2547822
 127.5739992  30.6889978  -2.2329986 128.3189992  31.2779978  -2.3519986
 126.8169992  31.2709978  -2.1689986 127.5735470  30.8482128  -2.2406201
 116.0169992  28.0039978   0.3710014 116.4249992  27.1469978   0.2500014
 115.7559992  28.0179978   1.2920014 116.0376016  27.8885119   0.4789192
 120.6749992  29.1199978 -14.6099986 120.2149992  28.6359978 -13.9249986
 120.9299992  28.4509978 -15.2459986 120.6464856  28.9633669 -14.6021603
 119.9639992  27.0129978  -2.2539986 119.3449992  27.6869978  -1.9739986
 120.3079992  27.3339978  -3.0879986 119.9257123  27.1486887  -2.3283612
 121.7459992  27.3629978 -16.3479986 121.5649992  27.2079978 -17.2749986
 122.6959992  27.4709978 -16.3029986 121.8496566  27.3563669 -16.4689071
 124.9829992  29.4839978   1.0230014 125.9369992  29.5679978   0.9960014
 124.8229992  28.7719978   1.6430014 125.0917182  29.3992842   1.1030733
 131.1359992  29.7169978 -16.9019986 130.8619992  29.2929978 -17.7149986
 131.1749992  30.6489978 -17.1189986 131.1037716  29.7848827 -17.0425714
 120.3029992  24.3679978  -1.1719986 120.4529992  23.6389978  -1.7739986
 120.3049992  25.1449978  -1.7309986 120.3237967  24.3732708  -1.3299459
 120.7159992  22.7369978  -3.6789986 121.2509992  23.1889978  -4.3309986
 119.8629992  22.6289978  -4.1019986 120.6740374  22.7842665  -3.8253290
 122.2969992  28.1769978  -3.4399986 123.0479992  28.0209978  -4.0129986
 121.9579992  29.0289978  -3.7149986 122.3539587  28.2708138  -3.5555922
 126.7129992  25.9919978   1.5890014 126.9049992  25.0609978   1.4770014
 127.5709992  26.4169978   1.5780014 126.8552182  25.9220070   1.5721862
 128.0299992  28.7809978  -0.3339986 127.7479992  29.4899978  -0.9119986
 128.9719992  28.7079978  -0.4849986 128.1187921  28.8682193  -0.4335775
 118.7819992  25.5659978   0.7390014 118.0139992  25.0329978   0.5290014
 119.4599992  25.2559978   0.1400014 118.7687235  25.4511754   0.6292413
 121.5209992  20.1939978  -3.2479986 121.4229992  21.1399978  -3.3529986
 120.7789992  19.8209978  -3.7239986 121.4072534  20.2731773  -3.3267400
 122.7849992  24.5149978   0.3160014 122.5499992  24.2959978   1.2170014
 122.0019992  24.3079978  -0.1939986 122.6469095  24.4569892   0.3705353
 125.5009992  23.6429978  -0.6089986 124.5529992  23.6749978  -0.4769986
 125.8129992  23.0169978   0.0450014 125.4135293  23.5627923  -0.5025852
 127.1349992  22.2769978   1.3960014 127.0379992  21.3249978   1.3910014
 126.8129992  22.5449978   2.2570014 127.0782468  22.1830884   1.5116210
 116.9619992  23.4859978   0.4440014 117.1739992  22.7799978  -0.1659986
 116.8509992  23.0489978   1.2880014 116.9760269  23.3301921   0.4745873
 121.7429992  19.4879978  -0.5769986 122.4549992  18.8479978  -0.5909986
 121.6419992  19.7539978  -1.4899986 121.8267387  19.4364330  -0.7024437
 122.0969992  21.1699978   1.4770014 121.9649992  20.6949978   0.6570014
 121.4969992  21.9149978   1.4220014 121.9979070  21.2055789   1.3573251
 121.6429992  38.0529978 -15.3469986 122.5759992  38.2109978 -15.2029986
 121.3789992  38.7289978 -15.9719986 121.7349911  38.1659373 -15.4117278
 115.2109992  32.6899978 -15.8639986 116.1249992  32.7689978 -15.5909986
 115.2189992  32.0029978 -16.5299986 115.3370655  32.6079205 -15.9167083
 113.8599992  38.0829978 -10.7869986 113.2129992  37.6209978 -11.3189986
 114.2149992  37.4109978 -10.2039986 113.8193741  37.9289774 -10.7810825
 114.7299992  36.1629978  -8.9819986 114.3959992  35.2829978  -8.8099986
 114.9529992  36.5089978  -8.1169986 114.7143721  36.0891938  -8.8415832
 132.2789992  36.9729978  -6.0009986 132.2569992  37.1579978  -5.0619986
 132.9689992  37.5409978  -6.3419986 132.3693439  37.0751887  -5.9185209
 131.8419992  36.5399978  -3.0799986 131.3549992  35.8049978  -3.4509986
 132.3909992  36.1459978  -2.4019986 131.8495247  36.3861057  -3.0391539
 130.2929992  32.3299978   1.5590014 129.4269992  32.2249978   1.9530014
 130.6689992  33.0879978   2.0050014 130.2253401  32.4181708   1.6732620
 131.5939992  30.5859978 -12.9269986 132.4439992  31.0069978 -12.7999986
 131.5989992  29.8459978 -12.3199986 131.7111143  30.5436094 -12.8275250
 131.9879992  28.6399978 -11.1039986 131.2619992  28.1599978 -10.7059986
 132.5699992  28.8449978 -10.3709986 131.9672730  28.6020184 -10.9505851
 131.7469992  31.4249978  -6.1559986 132.5809992  31.0469978  -6.4369986
 131.8589992  32.3679978  -6.2749986 131.8761917  31.5007943  -6.2105139
 130.2339992  34.3029978  -3.8489986 129.5859992  34.6279978  -3.2239986
 129.7159992  33.8619978  -4.5229986 130.0754196  34.2878651  -3.8545848
 132.2569992  28.5409978 -14.7129986 131.7349992  28.8969978 -15.4309986
 132.2239992  29.2159978 -14.0339986 132.1810129  28.6809598 -14.7196645
 130.6059992  25.7799978 -16.1619986 130.7019992  26.4469978 -16.8419986
 130.4659992  24.9649978 -16.6429986 130.6002040  25.7610671 -16.3201622
 129.7749992  27.1609978 -10.5409986 129.6249992  26.2159978 -10.5609986
 129.4209992  27.4419978  -9.6969986 129.7066351  27.0696644 -10.4296780
 114.8099992  29.2389978  -6.5299986 114.9949992  29.1569978  -7.4659986
 115.6599992  29.1149978  -6.1069986 114.9500928  29.2110463  -6.6007107
 130.6309992  29.1309978  -0.9019986 131.2139992  28.3959978  -0.7099986
 131.1949992  29.9029978  -0.8549986 130.7869781  29.1348145  -0.8693836
 132.1279992  27.0339978  -0.2169986 131.2649992  26.6549978  -0.3829986
 132.7319992  26.2949978  -0.2919986 132.0916085  26.8823223  -0.2498305
 129.8529992  23.1879978 -17.0439986 130.4639992  22.8169978 -16.4069986
 129.0159992  22.7669978 -16.8479986 129.8234947  23.0802756 -16.9302748
 129.4859992  24.7429978 -12.0779986 129.7649992  23.8359978 -11.9539986
 130.2449992  25.1769978 -12.4669986 129.6268619  24.6774502 -12.1136205
 130.0969992  25.3249978  -6.6419986 131.0299992  25.5369978  -6.6769986
 129.8619992  25.4259978  -5.7199986 130.1929517  25.3676833  -6.5220870
 130.1269992  26.0619978  -3.8659986 129.2839992  26.3299978  -3.4999986
 130.5689992  26.8839978  -4.0769986 130.0714138  26.2098273  -3.8444482
 114.4079992  24.5089978  -0.3899986 115.3269992  24.3869978  -0.1529986
 113.9579992  23.7589978   0.0000014 114.4730087  24.3909608  -0.3048590
 132.4099992  20.0419978   1.4870014 132.7589992  19.3879978   0.8820014
 132.5569992  20.8789978   1.0470014 132.4776824  20.0656024   1.3446304
 130.0989992  22.0059978 -12.0299986 130.2809992  21.5569978 -11.2049986
 129.4989992  21.4219978 -12.4939986 130.0428187  21.8655552 -11.9797261
 115.6289992  22.8219978  -7.4979986 116.0739992  22.0299978  -7.1959986
 116.0949992  23.5379978  -7.0679986 115.7529718  22.8104534  -7.3984735
 113.9329992  25.8209978  -6.4289986 114.4249992  25.5999978  -7.2199986
 114.2949992  26.6609978  -6.1479986 114.0492923  25.9043468  -6.4992593
 131.9289992  22.1509978  -0.1639986 131.0119992  22.4219978  -0.1989986
 132.0519992  21.6159978  -0.9479986 131.8199672  22.1157885  -0.2748138
 131.9659992  22.0739978 -15.5019986 132.3779992  21.3529978 -15.9769986
 132.6469992  22.7429978 -15.4439986 132.1145536  22.0657766 -15.5591976
 114.2469992  22.0789978 -12.3749986 113.3219992  22.2869978 -12.5039986
 114.7009992  22.5629978 -13.0649986 114.1816298  22.1729299 -12.4859549
 129.0169992  37.0629978 -10.4289986 129.6699992  36.7149978 -11.0369986
 129.5279992  37.5509978  -9.7829986 129.1752777  37.0813815 -10.4247953
 114.2099992  20.8169978  -4.0309986 113.5449992  20.5709978  -3.3879986
 113.7669992  21.4389978  -4.6079986 114.0591168  20.8674214  -4.0210152
 116.4019992  33.9919978   0.1140014 115.5809992  34.1669978  -0.3469986
 116.1499992  33.9189978   1.0340014 116.2555594  34.0060717   0.1753611
 119.3559992  34.9659978  -3.6279986 118.9319992  35.7759978  -3.9099986
 120.2609992  35.0519978  -3.9299986 119.4202138  35.0884160  -3.7073585
 123.6679992  36.3649978  -0.6679986 123.8519992  36.0319978   0.2100014
 124.5139992  36.6749978  -0.9899986 123.8076484  36.3612979  -0.5912383
 126.0129992  37.6509978  -1.4239986 126.6899992  37.0179978  -1.6639986
 126.3339992  38.0519978  -0.6169986 126.1491323  37.6185691  -1.3476842
 130.9299992  20.2409978  -2.3449986 130.1169992  20.5659978  -2.7319986
 131.1629992  19.4799978  -2.8779986 130.8501347  20.1826880  -2.4700159
 116.7579992  38.2229978  -3.5799986 116.0379992  38.6629978  -4.0309986
 116.3929992  37.9719978  -2.7319986 116.6099643  38.2493369  -3.5270871
 119.2249992  37.8229978  -4.5499986 118.3609992  37.8949978  -4.1459986
 119.1699992  38.3699978  -5.3339986 119.0991942  37.9067849  -4.6006000
 123.9359992  37.7109978  -5.3749986 123.4789992  38.2399978  -6.0289986
 124.0989992  38.3139978  -4.6499986 123.8954960  37.8649280  -5.3664726
 126.2639992  36.5889978  -4.4299986 125.3589992  36.7539978  -4.6959986
 126.6919992  37.4419978  -4.4959986 126.1981537  36.7269134  -4.4752905
 128.8679992  38.1589978  -4.1349986 128.6859992  39.0749978  -4.3459986
 129.0449992  37.7479978  -4.9819986 128.8670030  38.2288273  -4.2782834
 116.1729992  36.8459978  -6.6699986 116.1549992  36.4199978  -5.8129986
 116.9779992  36.5269978  -7.0789986 116.2792875  36.7446435  -6.6080485
 118.3139992  35.5559978  -8.0149986 118.0949992  34.6389978  -7.8449986
 119.1379992  35.6959978  -7.5489986 118.3954702  35.4495511  -7.9287473
 120.8509992  36.0259978  -7.1659986 121.0639992  35.1379978  -7.4529986
 120.9159992  35.9909978  -6.2119986 120.8889149  35.8998326  -7.0762631
 124.3599992  21.6899978  -8.0219986 123.6859992  21.0599978  -7.7659986
 124.9239992  21.2059978  -8.6249986 124.3440384  21.5383708  -8.0684980
 129.5029992  19.7969978  -7.9089986 130.1059992  20.3449978  -8.4109986
 128.6329992  20.1159978  -8.1499986 129.4679157  19.9150373  -8.0102090
 131.2299992  20.9359978  -9.5759986 131.8409992  20.4219978 -10.1029986
 131.6119992  21.8129978  -9.5529986 131.3653305  20.9842050  -9.6450582
 116.6869992  20.3239978 -10.1999986 115.9099992  20.0889978 -10.7069986
 117.2169992  19.5269978 -10.1909986 116.6523451  20.1841268 -10.2681373
 115.5229992  20.1219978 -14.3959986 115.9619992  20.7329978 -14.9879986
 114.8889992  20.6599978 -13.9219986 115.4973859  20.2784064 -14.4129695
 121.2659992  20.2499978 -10.3869986 122.1399992  20.6389978 -10.4159986
 121.1299992  20.0349978  -9.4639986 121.3671953  20.2741643 -10.2662383
 126.8229992  20.2799978  -8.7369986 126.8989992  20.3759978  -9.6869986
 126.5479992  19.3729978  -8.6089986 126.7961871  20.1704146  -8.8496056
 128.1759992  20.3059978 -13.0449986 127.4729992  20.9209978 -13.2549986
 127.7309992  19.4689978 -12.9139986 128.0196550  20.2769668 -13.0560163
 115.4239992  36.0699978 -13.4989986 114.7389992  36.0319978 -14.1659986
 115.4279992  36.9829978 -13.2109986 115.3307621  36.1881924 -13.5513874
 117.3839992  22.0379978 -15.9539986 117.8749992  21.4079978 -16.4809986
 118.0069992  22.3339978 -15.2909986 117.5355304  21.9917376 -15.9365060
 122.4099992  22.3309978 -13.4969986 122.5879992  21.6839978 -12.8139986
 122.3559992  23.1649978 -13.0299986 122.4270678  22.3551604 -13.3403699
 124.2879992  37.2789978 -15.1009986 125.1539992  37.6459978 -15.2789986
 124.0419992  36.8399978 -15.9149986 124.3732097  37.2698525 -15.2353981
 130.9969992  36.8419978 -12.4219986 130.8029992  36.0939978 -12.9869986
 130.9579992  37.5999978 -13.0049986 130.9651645  36.8420786 -12.5781852
 116.6439992  20.8379978  -0.6819986 116.2779992  20.0719978  -0.2399986
 117.5569992  20.8669978  -0.3959986 116.7173172  20.7370324  -0.5828110
 118.6169992  20.1879978   0.8530014 119.5159992  19.9139978   0.6690014
 118.2309992  19.4459978   1.3180014 118.6877307  20.0502196   0.8907098
 117.2419992  36.9899978 -16.4739986 116.9739992  37.2759978 -15.5999986
 118.0129992  36.4439978 -16.3209986 117.3095926  36.9552779 -16.3338795
 127.0389992  19.5209978   1.0360014 127.1149992  19.0949978   1.8890014
 127.9319992  19.5339978   0.6930014 127.1702303  19.4643493   1.1065497
 130.2149992  35.5939978  -0.2719986 129.4329992  35.4069978  -0.7919986
 130.1429992  36.5229978  -0.0549986 130.0981924  35.6940637  -0.3138398
 144.6209992  29.4799978 -10.2409986 144.7099992  30.4239978 -10.3729986
 143.9829992  29.2049978 -10.8989986 144.5469062  29.5719812 -10.3480359
 143.5539992  28.7349978  -6.8219986 143.5159992  28.0889978  -6.1169986
 143.2319992  28.2679978  -7.5929986 143.5052679  28.5834276  -6.8297079
 135.9219992  28.3489978  -5.2289986 135.9639992  27.7239978  -4.5059986
 136.6249992  28.9729978  -5.0469986 136.0227345  28.3477873  -5.1054726
 136.8459992  32.7989978  -6.6939986 136.4759992  31.9969978  -7.0639986
 137.7869992  32.6309978  -6.6479986 136.9225984  32.6664638  -6.7384397
 133.4559992  26.4589978 -11.3019986 133.0079992  27.3049978 -11.3199986
 132.8949992  25.8799978 -11.8169986 133.3188546  26.4963993 -11.3741109
 134.1659992  28.6209978  -9.1759986 134.3799992  27.8509978  -8.6479986
 134.9039992  28.7109978  -9.7789986 134.2950200  28.5278587  -9.1852965
 144.3719992  36.7779978  -8.3089986 144.9909992  36.1019978  -8.5819986
 144.1629992  36.5599978  -7.3999986 144.4286056  36.6558869  -8.2236033
 141.9429992  31.1669978  -6.4159986 142.2469992  30.4809978  -7.0109986
 142.6649992  31.2859978  -5.7979986 142.0821240  31.0892314  -6.4139041
 145.0839992  25.5609978  -6.0889986 145.2269992  24.6149978  -6.0689986
 144.9779992  25.7679978  -7.0169986 145.0892403  25.4594797  -6.2117761
 138.2389992  23.6629978  -8.8159986 138.2819992  24.5229978  -9.2349986
 137.7809992  23.1109978  -9.4499986 138.1829871  23.7059245  -8.9589239
 134.8589992  26.0599978  -8.0539986 135.5129992  25.5099978  -7.6219986
 134.8829992  25.7859978  -8.9709986 134.9517199  25.9477167  -8.1188332
 140.0159992  27.6099978  -8.8389986 140.6319992  27.0829978  -8.3299986
 139.4289992  26.9699978  -9.2429986 140.0210154  27.4513954  -8.8239055
 137.0489992  22.5809978  -4.7419986 136.8299992  23.1109978  -5.5089986
 136.3809992  22.8069978  -4.0949986 136.9286975  22.6840967  -4.7594860
 144.4179992  32.0809978 -11.1979986 144.1229992  31.7579978 -12.0499986
 144.0939992  32.9809978 -11.1569986 144.3338460  32.1584464 -11.3090286
 139.6179992  30.2559978  -4.4549986 138.8779992  30.8549978  -4.3509986
 140.3319992  30.8099978  -4.7699986 139.6133500  30.4127829  -4.4833629
 136.6429992  24.4729978  -6.7899986 137.2569992  25.1059978  -6.4169986
 137.1549992  24.0009978  -7.4459986 136.7961962  24.4957249  -6.8277065
 138.0259992  32.2209978  -3.6679986 138.0199992  33.0999978  -4.0459986
 137.1719992  32.1369978  -3.2429986 137.9097925  32.3299535  -3.6623113
 134.1469992  31.8919978 -12.8859986 133.8749992  32.1209978 -13.7739986
 134.1919992  32.7289978 -12.4249986 134.1158097  32.0366163 -12.9453317
 141.0759992  19.8859978  -7.2899986 140.9579992  18.9379978  -7.3439986
 140.2209992  20.2189978  -7.0169986 140.9442805  19.8012202  -7.2604921
 143.3419992  28.7239978 -12.7889986 142.6309992  29.2589978 -13.1409986
 144.0329992  28.7789978 -13.4489986 143.3380751  28.8046777 -12.9264142
 143.3959992  27.1809978 -15.7509986 144.0969992  27.2039978 -15.0989986
 143.6979992  26.5529978 -16.4069986 143.5328202  27.0992212 -15.7504391
 138.3929992  29.5639978  -9.9549986 138.0629992  29.1929978 -10.7729986
 138.9819992  28.8929978  -9.6079986 138.4273970  29.4226063 -10.0200596
 139.7599992  32.9919978  -7.2739986 139.6649992  32.4129978  -8.0299986
 140.4889992  32.6209978  -6.7779986 139.8456011  32.8625561  -7.3103972
 138.7599992  28.3319978  -6.3219986 139.3249992  28.4539978  -7.0839986
 139.0789992  28.9699978  -5.6829986 138.8804166  28.4348791  -6.3399652
 145.0689992  33.8359978  -5.5879986 144.8289992  34.4979978  -4.9399986
 144.8709992  33.0009978  -5.1629986 145.0093826  33.8138115  -5.4418434
 139.6399992  32.7319978  -1.6039986 139.3289992  33.5139978  -1.1489986
 138.9899992  32.5789978  -2.2899986 139.5095538  32.8184087  -1.6344102
 136.5599992  28.9299978  -2.3759986 136.6299992  29.5809978  -1.6769986
 135.6689992  29.0329978  -2.7109986 136.4491690  29.0329249  -2.3256957
 143.3449992  34.8319978 -10.7169986 143.8189992  35.1279978  -9.9399986
 142.7819992  35.5709978 -10.9499986 143.3337890  34.9723036 -10.6421899
 137.8789992  34.8029978  -0.8409986 137.8869992  34.6669978  -1.7879986
 136.9629992  34.6859978  -0.5889986 137.7562528  34.7685463  -0.9366757
 137.3839992  28.6329978 -12.3659986 137.0919992  29.4009978 -12.8569986
 136.7089992  27.9739978 -12.5289986 137.2528497  28.6489745 -12.4551740
 133.4769992  30.9959978  -3.5509986 132.9749992  30.9679978  -4.3659986
 133.4819992  30.0909978  -3.2409986 133.4089832  30.8697486  -3.6205879
 133.2269992  33.7769978  -6.6669986 134.1729992  33.6319978  -6.6859986
 133.1139992  34.5609978  -6.1299986 133.3413578  33.8631697  -6.5969683
 142.4029992  34.0169978  -2.1079986 142.4909992  34.8429978  -1.6329986
 141.5399992  33.6869978  -1.8589986 142.2983357  34.0855468  -2.0092347
 142.8179992  37.7889978 -12.3019986 142.7419992  37.6679978 -13.2489986
 142.8499992  38.7379978 -12.1839986 142.8119380  37.9007677 -12.4154819
 136.4709992  36.5779978 -10.5209986 136.6229992  36.2299978  -9.6429986
 135.6199992  36.2209978 -10.7769986 136.3768344  36.4820879 -10.4353132
 135.7259992  32.3199978  -2.5079986 135.9419992  31.9579978  -1.6479986
 134.8699992  31.9449978  -2.7169986 135.6398810  32.2198837  -2.4187320
 138.3439992  20.7899978  -6.5119986 137.4829992  20.7029978  -6.9199986
 138.3219992  21.6459978  -6.0839986 138.2230491  20.8938003  -6.5100418
 143.0069992  20.5119978  -3.1369986 143.4269992  20.0969978  -2.3839986
 142.0739992  20.3329978  -3.0199986 142.9383736  20.4309910  -3.0181032
 142.6689992  23.0039978 -15.8519986 142.4149992  23.0229978 -14.9299986
 142.4119992  22.1329978 -16.1539986 142.5994508  22.8888280 -15.7665197
 138.4349992  25.7549978  -5.4169986 137.7939992  25.7149978  -4.7079986
 138.4729992  26.6819978  -5.6549986 138.3523010  25.8747668  -5.3520054
 138.4319992  25.9759978 -10.5049986 137.5399992  25.6359978 -10.5639986
 138.8829992  25.5989978 -11.2609986 138.3707642  25.8784910 -10.6152274
 143.9679992  26.3919978 -11.6879986 143.5589992  27.2069978 -11.9799986
 144.6879992  26.2519978 -12.3019986 144.0094439  26.4845372 -11.8109885
 143.0699992  26.5679978  -0.1999986 142.5069992  25.8629978   0.1210014
 143.8959992  26.4469978   0.2680014 143.1046674  26.4552165  -0.0928249
 144.9729992  25.8379978  -8.8739986 144.7769992  26.4439978  -9.5889986
 145.1539992  25.0049978  -9.3079986 144.9706584  25.8082513  -9.0305788
 136.1849992  26.0759978  -3.5499986 136.1469992  26.4759978  -2.6809986
 135.6949992  25.2589978  -3.4599986 136.1135330  26.0202674  -3.4188711
 139.5509992  23.4499978 -16.7509986 139.1199992  23.0049978 -16.0219986
 138.8329992  23.8209978 -17.2639986 139.3949176  23.4392051 -16.7205070
 132.7939992  23.1919978  -9.6989986 133.4239992  23.1629978  -8.9799986
 133.2429992  22.7669978 -10.4299986 132.9410835  23.1305660  -9.6992341
 134.0679992  23.9379978 -14.2749986 134.5419992  24.5289978 -14.8599986
 133.3499992  24.4679978 -13.9279986 134.0358640  24.0905511 -14.3082031
 144.2369992  27.4759978  -4.2029986 144.5599992  26.8449978  -4.8459986
 143.7959992  26.9419978  -3.5419986 144.2216379  27.3173468  -4.2017418
 141.0139992  23.4039978  -9.4189986 140.1029992  23.4609978  -9.1299986
 141.5189992  23.3439978  -8.6079986 140.9576873  23.4036826  -9.2698793
 135.8419992  25.0329978 -10.5919986 134.9529992  25.1319978 -10.9319986
 136.1389992  24.1909978 -10.9379986 135.7604177  24.9327687 -10.6853060
 139.4949992  25.0329978 -12.9349986 140.4269992  25.1619978 -12.7569986
 139.2799992  25.7019978 -13.5849986 139.5934472  25.1410806 -12.9985109
 145.4189992  22.6389978  -6.1539986 144.7419992  22.7699978  -5.4909986
 144.9339992  22.4839978  -6.9649986 145.2607405  22.6359947  -6.1727830
 138.1689992  26.2269978 -15.3689986 137.6269992  25.8479978 -16.0599986
 139.0029992  26.4219978 -15.7969986 138.2074390  26.2014079 -15.5215608
 136.3049992  30.7839978  -0.2699986 137.0369992  31.0389978   0.2920014
 135.5239992  30.9889978   0.2460014 136.2996526  30.8465450  -0.1234824
 142.3339992  26.1909978  -7.5319986 142.8979992  25.6449978  -8.0789986
 142.1859992  25.6699978  -6.7429986 142.3913037  26.0456787  -7.5002771
 137.3359992  22.3279978 -11.1129986 137.0189992  21.4249978 -11.1489986
 138.1169992  22.3299978 -11.6659986 137.3982431  22.2047797 -11.1926898
 140.9599992  24.5799978  -5.1179986 140.1249992  25.0339978  -5.0069986
 141.4839992  24.8559978  -4.3659986 140.9166072  24.6793948  -5.0011864
 141.5049992  30.7929978 -13.4329986 140.7599992  30.2849978 -13.7549986
 141.3699992  30.8419978 -12.4869986 141.3848963  30.7301731 -13.3491174
 145.4019992  23.6069978 -15.2339986 144.4639992  23.7179978 -15.3849986
 145.6999992  24.4629978 -14.9269986 145.3136318  23.7380158 -15.2131855
 143.0239992  30.9769978  -2.1959986 142.6779992  30.5949978  -1.3889986
 142.8239992  31.9099978  -2.1249986 142.9495987  31.0509002  -2.0759539
 136.6289992  30.0879978  -7.6629986 137.3739992  30.0849978  -8.2649986
 136.7069992  29.2639978  -7.1819986 136.7413365  29.9762384  -7.6802570
 143.6299992  32.2509978 -14.4079986 143.3349992  33.0779978 -14.0259986
 142.9269992  31.6319978 -14.2109986 143.4946379  32.2804171 -14.3291346
 133.6369992  28.5479978  -2.3479986 133.8599992  28.1299978  -1.5169986
 133.0349992  27.9359978  -2.7709986 133.5861513  28.4079606  -2.2913260
 140.6539992  28.0649978  -0.1349986 140.3579992  27.8999978  -1.0309986
 141.5849992  27.8449978  -0.1459986 140.7394401  28.0126879  -0.2589794
 145.2739992  33.4389978  -2.2459986 144.3739992  33.6219978  -2.5129986
 145.3079992  33.6979978  -1.3249986 145.1553748  33.4990554  -2.1580836
 139.0039992  33.6059978 -10.2589986 139.5319992  34.3789978 -10.4589986
 138.1239992  33.8299978 -10.5609986 138.9573435  33.7422700 -10.3272690
 134.7589992  28.4679978 -15.6719986 135.3749992  29.0949978 -15.2919986
 133.8969992  28.7839978 -15.3999986 134.7267678  28.5964412 -15.5832791
 140.4319992  31.2689978 -10.6829986 140.1909992  32.1939978 -10.6409986
 139.6909992  30.8099978 -10.2859986 140.2989206  31.3335915 -10.6236231
 140.9459992  35.4179978  -4.3679986 141.3089992  36.2719978  -4.6009986
 141.4779992  35.1259978  -3.6269986 141.0675141  35.4953895  -4.2997903
 139.1149992  36.2899978 -11.1369986 138.1649992  36.3959978 -11.0859986
 139.4669992  37.1109978 -10.7929986 139.0325472  36.4154923 -11.0835148
 144.4899992  31.5169978  -4.6669986 144.0649992  31.2889978  -3.8409986
 145.0709992  30.7779978  -4.8489986 144.5103395  31.3859545  -4.5785586
 135.2709992  23.3019978  -2.7899986 134.3789992  23.6399978  -2.8579986
 135.1729992  22.4459978  -2.3719986 135.1354475  23.2326543  -2.7428296
 134.9229992  35.1059978  -4.3549986 135.1399992  34.1739978  -4.3859986
 135.1689992  35.3809978  -3.4719986 134.9859809  35.0155686  -4.2398310
 139.7209992  33.1279978 -14.6899986 139.8679992  32.6079978 -13.8999986
 139.7179992  34.0349978 -14.3829986 139.7407102  33.1793953 -14.5404075
 136.1739992  30.3799978 -14.1789986 135.4879992  30.7329978 -13.6119986
 136.6969992  31.1429978 -14.4259986 136.1508402  30.5313901 -14.1348199
 144.0059992  23.0429978  -3.8999986 144.7049992  23.1169978  -3.2499986
 143.6249992  22.1779978  -3.7459986 144.0502097  22.9362389  -3.7902003
 144.7899992  22.6949978 -12.8029986 145.0099992  23.1659978 -13.6069986
 145.3489992  23.0889978 -12.1329986 144.8956731  22.8127287 -12.8224967
 142.4589992  34.8249978 -13.9399986 141.6419992  35.3219978 -13.8879986
 142.9879992  35.3009978 -14.5809986 142.4188125  34.9571989 -14.0194694
 141.9899992  24.4229978 -11.9679986 142.8019992  24.9269978 -11.9219986
 141.7459992  24.2779978 -11.0539986 142.0681467  24.4723749 -11.8381425
 142.5259992  25.4089978  -2.7839986 142.6449992  25.9829978  -2.0269986
 143.1809992  24.7209978  -2.6689986 142.6308684  25.3945194  -2.6648326
 142.8739992  21.5039978 -11.0299986 142.5269992  22.1209978 -10.3859986
 143.5329992  22.0049978 -11.5119986 142.9155090  21.6561575 -11.0069319
 139.7969992  35.8689978 -13.9589986 139.9579992  36.6689978 -14.4589986
 139.5999992  36.1759978 -13.0739986 139.7923906  36.0198678 -13.9077667
 138.5319992  22.5669978 -14.3429986 138.4479992  23.4549978 -13.9959986
 139.4219992  22.3019978 -14.1109986 138.6408163  22.6527179 -14.2641404
 136.7899992  32.9939978 -15.2829986 137.3819992  33.6939978 -15.0059986
 137.2489992  32.5609978 -16.0019986 136.9331652  33.0312675 -15.3423467
 135.1059992  25.6589978 -16.1669986 135.0609992  26.5979978 -15.9879986
 134.2179992  25.4229978 -16.4359986 134.9798166  25.7556687 -16.1788476
 135.9139992  20.4399978  -7.4929986 135.6849992  20.4989978  -8.4209986
 135.4719992  19.6489978  -7.1869986 135.8228801  20.3410540  -7.5785271
 134.8449992  34.3809978 -11.3329986 134.0119992  34.8529978 -11.3059986
 135.3899992  34.8909978 -11.9319986 134.8047857  34.5144791 -11.4102858
 134.1329992  36.9929978  -0.0029986 134.6729992  36.7769978   0.7570014
 133.6519992  36.1879978  -0.1929986 134.1419219  36.8545156   0.0754282
 138.7299992  35.9129978   1.6170014 139.4979992  35.4539978   1.9580014
 138.7089992  35.6869978   0.6870014 138.8322135  35.8196668   1.5379491
 142.8219992  35.4209978 -17.0069986 142.1779992  34.7899978 -16.6859986
 143.5839992  34.8899978 -17.2389986 142.8368058  35.2627902 -16.9943962
 145.3069992  34.2929978   0.3460014 144.9559992  33.4359978   0.5900014
 146.0329992  34.4349978   0.9530014 145.3571895  34.1951351   0.4613770
 134.0399992  30.8039978   0.9510014 134.1839992  29.9019978   0.6650014
 133.2679992  31.0899978   0.4640014 133.9552733  30.7191798   0.8459532
 138.3809992  31.1469978 -16.9159986 138.4459992  30.3529978 -16.3859986
 139.0339992  31.0289978 -17.6059986 138.4781605  31.0223430 -16.9367003
 140.6949992  30.7729978   0.3840014 140.3669992  31.0439978  -0.4729986
 140.8469992  29.8319978   0.2960014 140.6706412  30.6829046   0.2547822
 134.8729992  28.0039978   0.3710014 135.2809992  27.1469978   0.2500014
 134.6119992  28.0179978   1.2920014 134.8936016  27.8885119   0.4789192
 139.5309992  29.1199978 -14.6099986 139.0709992  28.6359978 -13.9249986
 139.7859992  28.4509978 -15.2459986 139.5024856  28.9633669 -14.6021603
 138.8199992  27.0129978  -2.2539986 138.2009992  27.6869978  -1.9739986
 139.1639992  27.3339978  -3.0879986 138.7817123  27.1486887  -2.3283612
 140.6019992  27.3629978 -16.3479986 140.4209992  27.2079978 -17.2749986
 141.5519992  27.4709978 -16.3029986 140.7056566  27.3563669 -16.4689071
 143.8389992  29.4839978   1.0230014 144.7929992  29.5679978   0.9960014
 143.6789992  28.7719978   1.6430014 143.9477182  29.3992842   1.1030733
 139.1589992  24.3679978  -1.1719986 139.3089992  23.6389978  -1.7739986
 139.1609992  25.1449978  -1.7309986 139.1797967  24.3732708  -1.3299459
 139.5719992  22.7369978  -3.6789986 140.1069992  23.1889978  -4.3309986
 138.7189992  22.6289978  -4.1019986 139.5300374  22.7842665  -3.8253290
 141.1529992  28.1769978  -3.4399986 141.9039992  28.0209978  -4.0129986
 140.8139992  29.0289978  -3.7149986 141.2099587  28.2708138  -3.5555922
 145.5689992  25.9919978   1.5890014 145.7609992  25.0609978   1.4770014
 146.4269992  26.4169978   1.5780014 145.7112182  25.9220070   1.5721862
 137.6379992  25.5659978   0.7390014 136.8699992  25.0329978   0.5290014
 138.3159992  25.2559978   0.1400014 137.6247235  25.4511754   0.6292413
 140.3769992  20.1939978  -3.2479986 140.2789992  21.1399978  -3.3529986
 139.6349992  19.8209978  -3.7239986 140.2632534  20.2731773  -3.3267400
 141.6409992  24.5149978   0.3160014 141.4059992  24.2959978   1.2170014
 140.8579992  24.3079978  -0.1939986 141.5029095  24.4569892   0.3705353
 144.3569992  23.6429978  -0.6089986 143.4089992  23.6749978  -0.4769986
 144.6689992  23.0169978   0.0450014 144.2695293  23.5627923  -0.5025852
 135.8179992  23.4859978   0.4440014 136.0299992  22.7799978  -0.1659986
 135.7069992  23.0489978   1.2880014 135.8320269  23.3301921   0.4745873
 140.5989992  19.4879978  -0.5769986 141.3109992  18.8479978  -0.5909986
 140.4979992  19.7539978  -1.4899986 140.6827387  19.4364330  -0.7024437
 140.9529992  21.1699978   1.4770014 140.8209992  20.6949978   0.6570014
 140.3529992  21.9149978   1.4220014 140.8539070  21.2055789   1.3573251
 140.4989992  38.0529978 -15.3469986 141.4319992  38.2109978 -15.2029986
 140.2349992  38.7289978 -15.9719986 140.5909911  38.1659373 -15.4117278
 134.0669992  32.6899978 -15.8639986 134.9809992  32.7689978 -15.5909986
 134.0749992  32.0029978 -16.5299986 134.1930655  32.6079205 -15.9167083
 132.7159992  38.0829978 -10.7869986 132.0689992  37.6209978 -11.3189986
 133.0709992  37.4109978 -10.2039986 132.6753741  37.9289774 -10.7810825
 133.5859992  36.1629978  -8.9819986 133.2519992  35.2829978  -8.8099986
 133.8089992  36.5089978  -8.1169986 133.5703721  36.0891938  -8.8415832
 133.6659992  29.2389978  -6.5299986 133.8509992  29.1569978  -7.4659986
 134.5159992  29.1149978  -6.1069986 133.8060928  29.2110463  -6.6007107
 133.2639992  24.5089978  -0.3899986 134.1829992  24.3869978  -0.1529986
 132.8139992  23.7589978   0.0000014 133.3290087  24.3909608  -0.3048590
 134.4849992  22.8219978  -7.4979986 134.9299992  22.0299978  -7.1959986
 134.9509992  23.5379978  -7.0679986 134.6089718  22.8104534  -7.3984735
 132.7889992  25.8209978  -6.4289986 133.2809992  25.5999978  -7.2199986
 133.1509992  26.6609978  -6.1479986 132.9052923  25.9043468  -6.4992593
 133.1029992  22.0789978 -12.3749986 132.1779992  22.2869978 -12.5039986
 133.5569992  22.5629978 -13.0649986 133.0376298  22.1729299 -12.4859549
 133.0659992  20.8169978  -4.0309986 132.4009992  20.5709978  -3.3879986
 132.6229992  21.4389978  -4.6079986 132.9151168  20.8674214  -4.0210152
 135.2579992  33.9919978   0.1140014 134.4369992  34.1669978  -0.3469986
 135.0059992  33.9189978   1.0340014 135.1115594  34.0060717   0.1753611
 138.2119992  34.9659978  -3.6279986 137.7879992  35.7759978  -3.9099986
 139.1169992  35.0519978  -3.9299986 138.2762138  35.0884160  -3.7073585
 142.5239992  36.3649978  -0.6679986 142.7079992  36.0319978   0.2100014
 143.3699992  36.6749978  -0.9899986 142.6636484  36.3612979  -0.5912383
 144.8689992  37.6509978  -1.4239986 145.5459992  37.0179978  -1.6639986
 145.1899992  38.0519978  -0.6169986 145.0051323  37.6185691  -1.3476842
 135.6139992  38.2229978  -3.5799986 134.8939992  38.6629978  -4.0309986
 135.2489992  37.9719978  -2.7319986 135.4659643  38.2493369  -3.5270871
 138.0809992  37.8229978  -4.5499986 137.2169992  37.8949978  -4.1459986
 138.0259992  38.3699978  -5.3339986 137.9551942  37.9067849  -4.6006000
 142.7919992  37.7109978  -5.3749986 142.3349992  38.2399978  -6.0289986
 142.9549992  38.3139978  -4.6499986 142.7514960  37.8649280  -5.3664726
 145.1199992  36.5889978  -4.4299986 144.2149992  36.7539978  -4.6959986
 145.5479992  37.4419978  -4.4959986 145.0541537  36.7269134  -4.4752905
 135.0289992  36.8459978  -6.6699986 135.0109992  36.4199978  -5.8129986
 135.8339992  36.5269978  -7.0789986 135.1352875  36.7446435  -6.6080485
 137.1699992  35.5559978  -8.0149986 136.9509992  34.6389978  -7.8449986
 137.9939992  35.6959978  -7.5489986 137.2514702  35.4495511  -7.9287473
 139.7069992  36.0259978  -7.1659986 139.9199992  35.1379978  -7.4529986
 139.7719992  35.9909978  -6.2119986 139.7449149  35.8998326  -7.0762631
 143.2159992  21.6899978  -8.0219986 142.5419992  21.0599978  -7.7659986
 143.7799992  21.2059978  -8.6249986 143.2000384  21.5383708  -8.0684980
 135.5429992  20.3239978 -10.1999986 134.7659992  20.0889978 -10.7069986
 136.0729992  19.5269978 -10.1909986 135.5083451  20.1841268 -10.2681373
 134.3789992  20.1219978 -14.3959986 134.8179992  20.7329978 -14.9879986
 133.7449992  20.6599978 -13.9219986 134.3533859  20.2784064 -14.4129695
 140.1219992  20.2499978 -10.3869986 140.9959992  20.6389978 -10.4159986
 139.9859992  20.0349978  -9.4639986 140.2231953  20.2741643 -10.2662383
 134.2799992  36.0699978 -13.4989986 133.5949992  36.0319978 -14.1659986
 134.2839992  36.9829978 -13.2109986 134.1867621  36.1881924 -13.5513874
 136.2399992  22.0379978 -15.9539986 136.7309992  21.4079978 -16.4809986
 136.8629992  22.3339978 -15.2909986 136.3915304  21.9917376 -15.9365060
 141.2659992  22.3309978 -13.4969986 141.4439992  21.6839978 -12.8139986
 141.2119992  23.1649978 -13.0299986 141.2830678  22.3551604 -13.3403699
 143.1439992  37.2789978 -15.1009986 144.0099992  37.6459978 -15.2789986
 142.8979992  36.8399978 -15.9149986 143.2292097  37.2698525 -15.2353981
 135.4999992  20.8379978  -0.6819986 135.1339992  20.0719978  -0.2399986
 136.4129992  20.8669978  -0.3959986 135.5733172  20.7370324  -0.5828110
 137.4729992  20.1879978   0.8530014 138.3719992  19.9139978   0.6690014
 137.0869992  19.4459978   1.3180014 137.5437307  20.0502196   0.8907098
 136.0979992  36.9899978 -16.4739986 135.8299992  37.2759978 -15.5999986
 136.8689992  36.4439978 -16.3209986 136.1655926  36.9552779 -16.3338795
  12.6289992  48.3359978 -10.2409986  12.7179992  49.2799978 -10.3729986
  11.9909992  48.0609978 -10.8989986  12.5549062  48.4279812 -10.3480359
  11.5619992  47.5909978  -6.8219986  11.5239992  46.9449978  -6.1169986
  11.2399992  47.1239978  -7.5929986  11.5132679  47.4394276  -6.8297079
   3.9299992  47.2049978  -5.2289986   3.9719992  46.5799978  -4.5059986
   4.6329992  47.8289978  -5.0469986   4.0307345  47.2037873  -5.1054726
  15.2679992  50.5299978  -8.5209986  14.8269992  49.8099978  -8.0699986
  15.2549992  51.2509978  -7.8909986  15.2059215  50.5289291  -8.3741895
   4.8539992  51.6549978  -6.6939986   4.4839992  50.8529978  -7.0639986
   5.7949992  51.4869978  -6.6479986   4.9305984  51.5224638  -6.7384397
   1.4639992  45.3149978 -11.3019986   1.0159992  46.1609978 -11.3199986
   0.9029992  44.7359978 -11.8169986   1.3268546  45.3523993 -11.3741109
   2.1739992  47.4769978  -9.1759986   2.3879992  46.7069978  -8.6479986
   2.9119992  47.5669978  -9.7789986   2.3030200  47.3838587  -9.1852965
  12.3799992  55.6339978  -8.3089986  12.9989992  54.9579978  -8.5819986
  12.1709992  55.4159978  -7.3999986  12.4366056  55.5118869  -8.2236033
   9.9509992  50.0229978  -6.4159986  10.2549992  49.3369978  -7.0109986
  10.6729992  50.1419978  -5.7979986  10.0901240  49.9452314  -6.4139041
  18.6139992  41.6249978  -5.5559986  18.6639992  42.2349978  -4.8199986
  19.0399992  42.0859978  -6.2789986  18.6784108  41.7707709  -5.5529888
  13.0919992  44.4169978  -6.0889986  13.2349992  43.4709978  -6.0689986
  12.9859992  44.6239978  -7.0169986  13.0972403  44.3154797  -6.2117761
   6.2469992  42.5189978  -8.8159986   6.2899992  43.3789978  -9.2349986
   5.7889992  41.9669978  -9.4499986   6.1909871  42.5619245  -8.9589239
  13.9689992  42.6499978 -10.4149986  14.6159992  42.3209978  -9.7909986
  14.4789992  43.1669978 -11.0379986  14.1264351  42.6749067 -10.4138963
   2.8669992  44.9159978  -8.0539986   3.5209992  44.3659978  -7.6219986
   2.8909992  44.6419978  -8.9709986   2.9597199  44.8037167  -8.1188332
   8.0239992  46.4659978  -8.8389986   8.6399992  45.9389978  -8.3299986
   7.4369992  45.8259978  -9.2429986   8.0290154  46.3073954  -8.8239055
  19.0059992  43.1029978  -3.3199986  18.3169992  43.7609978  -3.4149986
  19.0209992  42.9049978  -2.3829986  18.9137756  43.1662603  -3.2064188
   5.0569992  41.4369978  -4.7419986   4.8379992  41.9669978  -5.5089986
   4.3889992  41.6629978  -4.0949986   4.9366975  41.5400967  -4.7594860
  12.4259992  50.9369978 -11.1979986  12.1309992  50.6139978 -12.0499986
  12.1019992  51.8369978 -11.1569986  12.3418460  51.0144464 -11.3090286
   7.6259992  49.1119978  -4.4549986   6.8859992  49.7109978  -4.3509986
   8.3399992  49.6659978  -4.7699986   7.6213500  49.2687829  -4.4833629
  15.7329992  41.9409978  -8.4349986  15.5179992  41.1749978  -7.9019986
  16.3889992  42.4129978  -7.9219986  15.7922673  41.9000728  -8.2928010
   4.6509992  43.3289978  -6.7899986   5.2649992  43.9619978  -6.4169986
   5.1629992  42.8569978  -7.4459986   4.8041962  43.3517249  -6.8277065
   6.0339992  51.0769978  -3.6679986   6.0279992  51.9559978  -4.0459986
   5.1799992  50.9929978  -3.2429986   5.9177925  51.1859535  -3.6623113
   2.1549992  50.7479978 -12.8859986   1.8829992  50.9769978 -13.7739986
   2.1999992  51.5849978 -12.4249986   2.1238097  50.8926163 -12.9453317
  15.7799992  52.3689978  -6.1729986  14.8379992  52.4279978  -6.0109986
  16.0559992  53.2749978  -6.3099986  15.6885865  52.4995288  -6.1693808
  16.0799992  40.6559978  -4.7559986  15.3439992  41.2659978  -4.7929986
  16.7639992  41.0709978  -5.2819986  16.0715367  40.7957551  -4.8321826
   9.0839992  38.7419978  -7.2899986   8.9659992  37.7939978  -7.3439986
   8.2289992  39.0749978  -7.0169986   8.9522805  38.6572202  -7.2604921
  14.0319992  54.1499978  -9.5479986  14.4569992  53.4429978 -10.0329986
  14.3489992  54.9519978  -9.9649986  14.1330266  54.1615190  -9.6707521
  15.1919992  52.0509978 -11.0389986  14.9339992  51.3609978 -11.6509986
  15.2629992  51.6079978 -10.1939986  15.1663050  51.8966814 -11.0084379
  16.8779992  50.6179978  -2.5619986  17.0169992  50.0259978  -3.3009986
  17.0449992  51.4909978  -2.9179986  16.9196193  50.6548896  -2.7113789
  11.3499992  47.5799978 -12.7889986  10.6389992  48.1149978 -13.1409986
  12.0409992  47.6349978 -13.4489986  11.3460751  47.6606777 -12.9264142
  11.4039992  46.0369978 -15.7509986  12.1049992  46.0599978 -15.0989986
  11.7059992  45.4089978 -16.4069986  11.5408202  45.9552212 -15.7504391
  18.7189992  46.9579978  -4.4959986  18.0669992  47.6519978  -4.4069986
  19.1849992  47.1679978  -5.3059986  18.6925937  47.0815019  -4.5932467
  14.7559992  47.7889978 -11.8379986  14.0239992  48.0179978 -11.2639986
  15.2029992  47.0759978 -11.3829986  14.7163963  47.7238729 -11.6980055
  14.6529992  45.9639978  -2.7699986  14.7329992  46.7269978  -2.1979986
  14.0519992  46.2429978  -3.4599986  14.5826547  46.1062457  -2.7849953
   6.4009992  48.4199978  -9.9549986   6.0709992  48.0489978 -10.7729986
   6.9899992  47.7489978  -9.6079986   6.4353970  48.2786063 -10.0200596
   7.7679992  51.8479978  -7.2739986   7.6729992  51.2689978  -8.0299986
   8.4969992  51.4769978  -6.7779986   7.8536011  51.7185561  -7.3103972
   6.7679992  47.1879978  -6.3219986   7.3329992  47.3099978  -7.0839986
   7.0869992  47.8259978  -5.6829986   6.8884166  47.2908791  -6.3399652
  13.0769992  52.6919978  -5.5879986  12.8369992  53.3539978  -4.9399986
  12.8789992  51.8569978  -5.1629986  13.0173826  52.6698115  -5.4418434
   7.6479992  51.5879978  -1.6039986   7.3369992  52.3699978  -1.1489986
   6.9979992  51.4349978  -2.2899986   7.5175538  51.6744087  -1.6344102
  13.6269992  46.9519978 -14.1519986  14.2059992  47.1019978 -13.4059986
  14.0409992  47.4219978 -14.8759986  13.7623358  47.0360954 -14.1476047
   4.5679992  47.7859978  -2.3759986   4.6379992  48.4369978  -1.6769986
   3.6769992  47.8889978  -2.7109986   4.4571690  47.8889249  -2.3256957
  11.3529992  53.6879978 -10.7169986  11.8269992  53.9839978  -9.9399986
  10.7899992  54.4269978 -10.9499986  11.3417890  53.8283036 -10.6421899
   5.8869992  53.6589978  -0.8409986   5.8949992  53.5229978  -1.7879986
   4.9709992  53.5419978  -0.5889986   5.7642528  53.6245463  -0.9366757
  17.3259992  38.7019978 -14.3389986  16.4259992  38.8409978 -14.0439986
  17.5779992  39.5329978 -14.7409986  17.2368683  38.8334055 -14.3529768
   5.3919992  47.4889978 -12.3659986   5.0999992  48.2569978 -12.8569986
   4.7169992  46.8299978 -12.5289986   5.2608497  47.5049745 -12.4551740
  18.5149992  53.0679978 -15.9629986  18.5879992  54.0069978 -15.7929986
  19.4199992  52.7629978 -16.0189986  18.6474170  53.1553282 -15.9472937
   1.4849992  49.8519978  -3.5509986   0.9829992  49.8239978  -4.3659986
   1.4899992  48.9469978  -3.2409986   1.4169832  49.7257486  -3.6205879
   1.2349992  52.6329978  -6.6669986   2.1809992  52.4879978  -6.6859986
   1.1219992  53.4169978  -6.1299986   1.3493578  52.7191697  -6.5969683
  19.4329992  53.2989978  -0.9839986  19.3829992  52.3429978  -1.0219986
  18.6059992  53.5659978  -0.5829986  19.3143831  53.2044680  -0.9349879
  10.4109992  52.8729978  -2.1079986  10.4989992  53.6989978  -1.6329986
   9.5479992  52.5429978  -1.8589986  10.3063357  52.9415468  -2.0092347
  10.8259992  56.6449978 -12.3019986  10.7499992  56.5239978 -13.2489986
  10.8579992  57.5939978 -12.1839986  10.8199380  56.7567677 -12.4154819
   4.4789992  55.4339978 -10.5209986   4.6309992  55.0859978  -9.6429986
   3.6279992  55.0769978 -10.7769986   4.3848344  55.3380879 -10.4353132
  13.9269992  55.7989978 -15.2999986  14.3019992  55.0549978 -15.7709986
  13.9319992  55.5289978 -14.3819986  13.9790098  55.6606392 -15.2403371
  13.5959992  55.7249978 -12.5509986  12.6609992  55.8249978 -12.3719986
  13.8759992  55.0149978 -11.9719986  13.5059471  55.6427933 -12.4483305
  16.5849992  44.7919978  -0.5039986  16.1769992  45.2719978  -1.2249986
  16.6249992  43.8859978  -0.8119986  16.5346221  44.7352449  -0.6441733
   3.7339992  51.1759978  -2.5079986   3.9499992  50.8139978  -1.6479986
   2.8779992  50.8009978  -2.7169986   3.6478810  51.0758837  -2.4187320
   6.3519992  39.6459978  -6.5119986   5.4909992  39.5589978  -6.9199986
   6.3299992  40.5019978  -6.0839986   6.2310491  39.7498003  -6.5100418
  11.0149992  39.3679978  -3.1369986  11.4349992  38.9529978  -2.3839986
  10.0819992  39.1889978  -3.0199986  10.9463736  39.2869910  -3.0181032
  14.3419992  43.1229978  -2.2839986  13.8279992  42.9979978  -1.4859986
  14.1859992  44.0359978  -2.5279986  14.2506967  43.2292123  -2.2079063
  15.1039992  47.9839978 -16.5229986  15.1459992  47.7619978 -17.4529986
  15.9529992  48.3829978 -16.3329986  15.2245253  48.0075498 -16.6246178
  10.6769992  41.8599978 -15.8519986  10.4229992  41.8789978 -14.9299986
  10.4199992  40.9889978 -16.1539986  10.6074508  41.7448280 -15.7665197
   6.4429992  44.6109978  -5.4169986   5.8019992  44.5709978  -4.7079986
   6.4809992  45.5379978  -5.6549986   6.3603010  44.7307668  -5.3520054
   6.4399992  44.8319978 -10.5049986   5.5479992  44.4919978 -10.5639986
   6.8909992  44.4549978 -11.2609986   6.3787642  44.7344910 -10.6152274
  11.9759992  45.2479978 -11.6879986  11.5669992  46.0629978 -11.9799986
  12.6959992  45.1079978 -12.3019986  12.0174439  45.3405372 -11.8109885
  11.0779992  45.4239978  -0.1999986  10.5149992  44.7189978   0.1210014
  11.9039992  45.3029978   0.2680014  11.1126674  45.3112165  -0.0928249
  12.9809992  44.6939978  -8.8739986  12.7849992  45.2999978  -9.5889986
  13.1619992  43.8609978  -9.3079986  12.9786584  44.6642513  -9.0305788
   4.1929992  44.9319978  -3.5499986   4.1549992  45.3319978  -2.6809986
   3.7029992  44.1149978  -3.4599986   4.1215330  44.8762674  -3.4188711
   7.5589992  42.3059978 -16.7509986   7.1279992  41.8609978 -16.0219986
   6.8409992  42.6769978 -17.2639986   7.4029176  42.2952051 -16.7205070
   0.8019992  42.0479978  -9.6989986   1.4319992  42.0189978  -8.9799986
   1.2509992  41.6229978 -10.4299986   0.9490835  41.9865660  -9.6992341
   2.0759992  42.7939978 -14.2749986   2.5499992  43.3849978 -14.8599986
   1.3579992  43.3239978 -13.9279986   2.0438640  42.9465511 -14.3082031
  12.2449992  46.3319978  -4.2029986  12.5679992  45.7009978  -4.8459986
  11.8039992  45.7979978  -3.5419986  12.2296379  46.1733468  -4.2017418
   9.0219992  42.2599978  -9.4189986   8.1109992  42.3169978  -9.1299986
   9.5269992  42.1999978  -8.6079986   8.9656873  42.2596826  -9.2698793
   3.8499992  43.8889978 -10.5919986   2.9609992  43.9879978 -10.9319986
   4.1469992  43.0469978 -10.9379986   3.7684177  43.7887687 -10.6853060
   7.5029992  43.8889978 -12.9349986   8.4349992  44.0179978 -12.7569986
   7.2879992  44.5579978 -13.5849986   7.6014472  43.9970806 -12.9985109
  13.4269992  41.4949978  -6.1539986  12.7499992  41.6259978  -5.4909986
  12.9419992  41.3399978  -6.9649986  13.2687405  41.4919947  -6.1727830
   6.1769992  45.0829978 -15.3689986   5.6349992  44.7039978 -16.0599986
   7.0109992  45.2779978 -15.7969986   6.2154390  45.0574079 -15.5215608
  16.7149992  57.1659978   0.1220014  16.9139992  57.5899978  -0.7119986
  17.3699992  57.5099978   0.7290014  16.8308522  57.2706301   0.0897852
   4.3129992  49.6399978  -0.2699986   5.0449992  49.8949978   0.2920014
   3.5319992  49.8449978   0.2460014   4.3076526  49.7025450  -0.1234824
  10.3419992  45.0469978  -7.5319986  10.9059992  44.5009978  -8.0789986
  10.1939992  44.5259978  -6.7429986  10.3993037  44.9016787  -7.5002771
   5.3439992  41.1839978 -11.1129986   5.0269992  40.2809978 -11.1489986
   6.1249992  41.1859978 -11.6659986   5.4062431  41.0607797 -11.1926898
   8.9679992  43.4359978  -5.1179986   8.1329992  43.8899978  -5.0069986
   9.4919992  43.7119978  -4.3659986   8.9246072  43.5353948  -5.0011864
   9.5129992  49.6489978 -13.4329986   8.7679992  49.1409978 -13.7549986
   9.3779992  49.6979978 -12.4869986   9.3928963  49.5861731 -13.3491174
  16.6629992  48.7819978  -4.6459986  17.3039992  49.2379978  -5.1899986
  15.8319992  48.8949978  -5.1089986  16.6385287  48.8596921  -4.7830113
  13.4099992  42.4629978 -15.2339986  12.4719992  42.5739978 -15.3849986
  13.7079992  43.3189978 -14.9269986  13.3216318  42.5940158 -15.2131855
  11.0319992  49.8329978  -2.1959986  10.6859992  49.4509978  -1.3889986
  10.8319992  50.7659978  -2.1249986  10.9575987  49.9069002  -2.0759539
  14.1289992  44.3299978 -13.5729986  15.0209992  44.1919978 -13.2539986
  14.1849992  45.1209978 -14.1099986  14.2587325  44.4179918 -13.6018783
   4.6369992  48.9439978  -7.6629986   5.3819992  48.9409978  -8.2649986
   4.7149992  48.1199978  -7.1819986   4.7493365  48.8322384  -7.6802570
  11.6379992  51.1069978 -14.4079986  11.3429992  51.9339978 -14.0259986
  10.9349992  50.4879978 -14.2109986  11.5026379  51.1364171 -14.3291346
   1.6449992  47.4039978  -2.3479986   1.8679992  46.9859978  -1.5169986
   1.0429992  46.7919978  -2.7709986   1.5941513  47.2639606  -2.2913260
   8.6619992  46.9209978  -0.1349986   8.3659992  46.7559978  -1.0309986
   9.5929992  46.7009978  -0.1459986   8.7474401  46.8686879  -0.2589794
  13.2819992  52.2949978  -2.2459986  12.3819992  52.4779978  -2.5129986
  13.3159992  52.5539978  -1.3249986  13.1633748  52.3550554  -2.1580836
  19.0139992  44.5389978 -13.8779986  18.4589992  44.1429978 -14.5509986
  19.1139992  45.4499978 -14.1559986  18.9516816  44.6079505 -14.0074967
  18.9769992  50.3399978  -1.0409986  18.1259992  50.5779978  -1.4089986
  19.5669992  50.3229978  -1.7939986  18.9403812  50.3702524  -1.1931547
  17.3089992  53.3249978 -13.4129986  16.9359992  52.4999978 -13.1039986
  17.5859992  53.1419978 -14.3109986  17.2953463  53.1872569 -13.4920475
  14.4689992  48.1329978  -6.3919986  13.5409992  47.9019978  -6.4189986
  14.9199992  47.3559978  -6.7219986  14.4028165  47.9962774  -6.4403210
   7.0119992  52.4619978 -10.2589986   7.5399992  53.2349978 -10.4589986
   6.1319992  52.6859978 -10.5609986   6.9653435  52.5982700 -10.3272690
   2.7669992  47.3239978 -15.6719986   3.3829992  47.9509978 -15.2919986
   1.9049992  47.6399978 -15.3999986   2.7347678  47.4524412 -15.5832791
   8.4399992  50.1249978 -10.6829986   8.1989992  51.0499978 -10.6409986
   7.6989992  49.6659978 -10.2859986   8.3069206  50.1895915 -10.6236231
   8.9539992  54.2739978  -4.3679986   9.3169992  55.1279978  -4.6009986
   9.4859992  53.9819978  -3.6269986   9.0755141  54.3513895  -4.2997903
   7.1229992  55.1459978 -11.1369986   6.1729992  55.2519978 -11.0859986
   7.4749992  55.9669978 -10.7929986   7.0405472  55.2714923 -11.0835148
  12.4979992  50.3729978  -4.6669986  12.0729992  50.1449978  -3.8409986
  13.0789992  49.6339978  -4.8489986  12.5183395  50.2419545  -4.5785586
  14.7009992  51.3019978 -15.5929986  15.0549992  50.9219978 -14.7889986
  13.7529992  51.2079978 -15.5059986  14.6212298  51.2372452 -15.4711313
  15.1569992  54.9249978  -2.1979986  14.5549992  54.3689978  -2.6929986
  15.4379992  55.5919978  -2.8239986  15.1125757  54.9390744  -2.3504325
  19.2049992  55.7809978 -15.3919986  19.9489992  56.3669978 -15.5319986
  18.5109992  56.3499978 -15.0589986  19.2129809  55.9380818 -15.3661410
   3.2789992  42.1579978  -2.7899986   2.3869992  42.4959978  -2.8579986
   3.1809992  41.3019978  -2.3719986   3.1434475  42.0886543  -2.7428296
  15.5669992  49.9739978 -13.3659986  15.2899992  49.2459978 -12.8099986
  16.4949992  50.0929978 -13.1609986  15.6544499  49.8904213 -13.2621956
   2.9309992  53.9619978  -4.3549986   3.1479992  53.0299978  -4.3859986
   3.1769992  54.2369978  -3.4719986   2.9939809  53.8715686  -4.2398309
   7.7289992  51.9839978 -14.6899986   7.8759992  51.4639978 -13.8999986
   7.7259992  52.8909978 -14.3829986   7.7487102  52.0353953 -14.5404075
   4.1819992  49.2359978 -14.1789986   3.4959992  49.5889978 -13.6119986
   4.7049992  49.9989978 -14.4259986   4.1588402  49.3873901 -14.1348199
  12.0139992  41.8989978  -3.8999986  12.7129992  41.9729978  -3.2499986
  11.6329992  41.0339978  -3.7459986  12.0582097  41.7922389  -3.7902003
  12.7979992  41.5509978 -12.8029986  13.0179992  42.0219978 -13.6069986
  13.3569992  41.9449978 -12.1329986  12.9036731  41.6687287 -12.8224967
  10.4669992  53.6809978 -13.9399986   9.6499992  54.1779978 -13.8879986
  10.9959992  54.1569978 -14.5809986  10.4268125  53.8131989 -14.0194694
   9.9979992  43.2789978 -11.9679986  10.8099992  43.7829978 -11.9219986
   9.7539992  43.1339978 -11.0539986  10.0761467  43.3283749 -11.8381425
  10.5339992  44.2649978  -2.7839986  10.6529992  44.8389978  -2.0269986
  11.1889992  43.5769978  -2.6689986  10.6388684  44.2505194  -2.6648326
  10.8819992  40.3599978 -11.0299986  10.5349992  40.9769978 -10.3859986
  11.5409992  40.8609978 -11.5119986  10.9235090  40.5121575 -11.0069319
   7.8049992  54.7249978 -13.9589986   7.9659992  55.5249978 -14.4589986
   7.6079992  55.0319978 -13.0739986   7.8003906  54.8758678 -13.9077667
   6.5399992  41.4229978 -14.3429986   6.4559992  42.3109978 -13.9959986
   7.4299992  41.1579978 -14.1109986   6.6488163  41.5087179 -14.2641404
  16.7379992  42.1719978  -1.9489986  15.8219992  42.4339978  -2.0359986
  17.0739992  42.1689978  -2.8449986  16.6578499  42.2075163  -2.0821234
  15.3409992  45.9219978  -7.8529986  14.5429992  45.5069978  -8.1809986
  15.7859992  45.2319978  -7.3619986  15.2919684  45.7718628  -7.8314773
   4.7979992  51.8499978 -15.2829986   5.3899992  52.5499978 -15.0059986
   5.2569992  51.4169978 -16.0019986   4.9411652  51.8872675 -15.3423467
   3.1139992  44.5149978 -16.1669986   3.0689992  45.4539978 -15.9879986
   2.2259992  44.2789978 -16.4359986   2.9878166  44.6116687 -16.1788476
  16.4269992  55.1779978  -6.2309986  16.2709992  55.8569978  -6.8879986
  17.3599992  55.2499978  -6.0279986  16.5317387  55.2806390  -6.2934658
   3.9219992  39.2959978  -7.4929986   3.6929992  39.3549978  -8.4209986
   3.4799992  38.5049978  -7.1869986   3.8308801  39.1970540  -7.5785271
   2.8529992  53.2369978 -11.3329986   2.0199992  53.7089978 -11.3059986
   3.3979992  53.7469978 -11.9319986   2.8127857  53.3704791 -11.4102858
   2.1409992  55.8489978  -0.0029986   2.6809992  55.6329978   0.7570014
   1.6599992  55.0439978  -0.1929986   2.1499219  55.7105156   0.0754282
   6.7379992  54.7689978   1.6170014   7.5059992  54.3099978   1.9580014
   6.7169992  54.5429978   0.6870014   6.8402135  54.6756668   1.5379491
  10.8299992  54.2769978 -17.0069986  10.1859992  53.6459978 -16.6859986
  11.5919992  53.7459978 -17.2389986  10.8448058  54.1187902 -16.9943962
  13.3149992  53.1489978   0.3460014  12.9639992  52.2919978   0.5900014
  14.0409992  53.2909978   0.9530014  13.3651895  53.0511351   0.4613770
  15.4349992  54.0939978 -16.7739986  15.7179992  53.2989978 -16.3209986
  16.1739992  54.3269978 -17.3349986  15.5737096  54.0167049 -16.7878896
   2.0479992  49.6599978   0.9510014   2.1919992  48.7579978   0.6650014
   1.2759992  49.9459978   0.4640014   1.9632733  49.5751798   0.8459532
   6.3889992  50.0029978 -16.9159986   6.4539992  49.2089978 -16.3859986
   7.0419992  49.8849978 -17.6059986   6.4861605  49.8783430 -16.9367003
   8.7029992  49.6289978   0.3840014   8.3749992  49.8999978  -0.4729986
   8.8549992  48.6879978   0.2960014   8.6786412  49.5389046   0.2547822
  14.4379992  49.5449978  -2.2329986  15.1829992  50.1339978  -2.3519986
  13.6809992  50.1269978  -2.1689986  14.4375470  49.7042128  -2.2406201
   2.8809992  46.8599978   0.3710014   3.2889992  46.0029978   0.2500014
   2.6199992  46.8739978   1.2920014   2.9016016  46.7445119   0.4789192
   7.5389992  47.9759978 -14.6099986   7.0789992  47.4919978 -13.9249986
   7.7939992  47.3069978 -15.2459986   7.5104856  47.8193669 -14.6021603
   6.8279992  45.8689978  -2.2539986   6.2089992  46.5429978  -1.9739986
   7.1719992  46.1899978  -3.0879986   6.7897123  46.0046887  -2.3283612
   8.6099992  46.2189978 -16.3479986   8.4289992  46.0639978 -17.2749986
   9.5599992  46.3269978 -16.3029986   8.7136566  46.2123669 -16.4689071
  11.8469992  48.3399978   1.0230014  12.8009992  48.4239978   0.9960014
  11.6869992  47.6279978   1.6430014  11.9557182  48.2552842   1.1030733
  17.9999992  48.5729978 -16.9019986  17.7259992  48.1489978 -17.7149986
  18.0389992  49.5049978 -17.1189986  17.9677716  48.6408827 -17.0425714
   7.1669992  43.2239978  -1.1719986   7.3169992  42.4949978  -1.7739986
   7.1689992  44.0009978  -1.7309986   7.1877967  43.2292708  -1.3299459
   7.5799992  41.5929978  -3.6789986   8.1149992  42.0449978  -4.3309986
   6.7269992  41.4849978  -4.1019986   7.5380374  41.6402665  -3.8253290
   9.1609992  47.0329978  -3.4399986   9.9119992  46.8769978  -4.0129986
   8.8219992  47.8849978  -3.7149986   9.2179587  47.1268138  -3.5555922
  13.5769992  44.8479978   1.5890014  13.7689992  43.9169978   1.4770014
  14.4349992  45.2729978   1.5780014  13.7192182  44.7780070   1.5721862
  14.8939992  47.6369978  -0.3339986  14.6119992  48.3459978  -0.9119986
  15.8359992  47.5639978  -0.4849986  14.9827921  47.7242193  -0.4335775
   5.6459992  44.4219978   0.7390014   4.8779992  43.8889978   0.5290014
   6.3239992  44.1119978   0.1400014   5.6327235  44.3071754   0.6292413
   8.3849992  39.0499978  -3.2479986   8.2869992  39.9959978  -3.3529986
   7.6429992  38.6769978  -3.7239986   8.2712534  39.1291773  -3.3267400
   9.6489992  43.3709978   0.3160014   9.4139992  43.1519978   1.2170014
   8.8659992  43.1639978  -0.1939986   9.5109095  43.3129892   0.3705353
  12.3649992  42.4989978  -0.6089986  11.4169992  42.5309978  -0.4769986
  12.6769992  41.8729978   0.0450014  12.2775293  42.4187923  -0.5025852
  13.9989992  41.1329978   1.3960014  13.9019992  40.1809978   1.3910014
  13.6769992  41.4009978   2.2570014  13.9422468  41.0390884   1.5116210
   3.8259992  42.3419978   0.4440014   4.0379992  41.6359978  -0.1659986
   3.7149992  41.9049978   1.2880014   3.8400269  42.1861921   0.4745873
   8.6069992  38.3439978  -0.5769986   9.3189992  37.7039978  -0.5909986
   8.5059992  38.6099978  -1.4899986   8.6907387  38.2924330  -0.7024437
   8.9609992  40.0259978   1.4770014   8.8289992  39.5509978   0.6570014
   8.3609992  40.7709978   1.4220014   8.8619070  40.0615789   1.3573251
   8.5069992  56.9089978 -15.3469986   9.4399992  57.0669978 -15.2029986
   8.2429992  57.5849978 -15.9719986   8.5989911  57.0219373 -15.4117278
   2.0749992  51.5459978 -15.8639986   2.9889992  51.6249978 -15.5909986
   2.0829992  50.8589978 -16.5299986   2.2010655  51.4639205 -15.9167083
   0.7239992  56.9389978 -10.7869986   0.0769992  56.4769978 -11.3189986
   1.0789992  56.2669978 -10.2039986   0.6833741  56.7849774 -10.7810825
   1.5939992  55.0189978  -8.9819986   1.2599992  54.1389978  -8.8099986
   1.8169992  55.3649978  -8.1169986   1.5783721  54.9451938  -8.8415832
  19.1429992  55.8289978  -6.0009986  19.1209992  56.0139978  -5.0619986
  19.8329992  56.3969978  -6.3419986  19.2333439  55.9311887  -5.9185209
  18.7059992  55.3959978  -3.0799986  18.2189992  54.6609978  -3.4509986
  19.2549992  55.0019978  -2.4019986  18.7135247  55.2421057  -3.0391539
  17.1569992  51.1859978   1.5590014  16.2909992  51.0809978   1.9530014
  17.5329992  51.9439978   2.0050014  17.0893401  51.2741708   1.6732620
  18.4579992  49.4419978 -12.9269986  19.3079992  49.8629978 -12.7999986
  18.4629992  48.7019978 -12.3199986  18.5751143  49.3996094 -12.8275250
  18.8519992  47.4959978 -11.1039986  18.1259992  47.0159978 -10.7059986
  19.4339992  47.7009978 -10.3709986  18.8312730  47.4580184 -10.9505851
  18.6109992  50.2809978  -6.1559986  19.4449992  49.9029978  -6.4369986
  18.7229992  51.2239978  -6.2749986  18.7401917  50.3567943  -6.2105139
  17.0979992  53.1589978  -3.8489986  16.4499992  53.4839978  -3.2239986
  16.5799992  52.7179978  -4.5229986  16.9394196  53.1438651  -3.8545848
  19.1209992  47.3969978 -14.7129986  18.5989992  47.7529978 -15.4309986
  19.0879992  48.0719978 -14.0339986  19.0450129  47.5369598 -14.7196645
  17.4699992  44.6359978 -16.1619986  17.5659992  45.3029978 -16.8419986
  17.3299992  43.8209978 -16.6429986  17.4642040  44.6170671 -16.3201622
  16.6389992  46.0169978 -10.5409986  16.4889992  45.0719978 -10.5609986
  16.2849992  46.2979978  -9.6969986  16.5706351  45.9256644 -10.4296780
   1.6739992  48.0949978  -6.5299986   1.8589992  48.0129978  -7.4659986
   2.5239992  47.9709978  -6.1069986   1.8140928  48.0670463  -6.6007107
  17.4949992  47.9869978  -0.9019986  18.0779992  47.2519978  -0.7099986
  18.0589992  48.7589978  -0.8549986  17.6509781  47.9908145  -0.8693836
  18.9919992  45.8899978  -0.2169986  18.1289992  45.5109978  -0.3829986
  19.5959992  45.1509978  -0.2919986  18.9556085  45.7383223  -0.2498305
  16.7169992  42.0439978 -17.0439986  17.3279992  41.6729978 -16.4069986
  15.8799992  41.6229978 -16.8479986  16.6874947  41.9362756 -16.9302748
  16.3499992  43.5989978 -12.0779986  16.6289992  42.6919978 -11.9539986
  17.1089992  44.0329978 -12.4669986  16.4908619  43.5334502 -12.1136205
  16.9609992  44.1809978  -6.6419986  17.8939992  44.3929978  -6.6769986
  16.7259992  44.2819978  -5.7199986  17.0569517  44.2236833  -6.5220870
  16.9909992  44.9179978  -3.8659986  16.1479992  45.1859978  -3.4999986
  17.4329992  45.7399978  -4.0769986  16.9354138  45.0658273  -3.8444482
   1.2719992  43.3649978  -0.3899986   2.1909992  43.2429978  -0.1529986
   0.8219992  42.6149978   0.0000014   1.3370087  43.2469608  -0.3048590
  19.2739992  38.8979978   1.4870014  19.6229992  38.2439978   0.8820014
  19.4209992  39.7349978   1.0470014  19.3416824  38.9216024   1.3446304
  16.9629992  40.8619978 -12.0299986  17.1449992  40.4129978 -11.2049986
  16.3629992  40.2779978 -12.4939986  16.9068187  40.7215552 -11.9797261
   2.4929992  41.6779978  -7.4979986   2.9379992  40.8859978  -7.1959986
   2.9589992  42.3939978  -7.0679986   2.6169718  41.6664534  -7.3984735
   0.7969992  44.6769978  -6.4289986   1.2889992  44.4559978  -7.2199986
   1.1589992  45.5169978  -6.1479986   0.9132923  44.7603468  -6.4992593
  18.7929992  41.0069978  -0.1639986  17.8759992  41.2779978  -0.1989986
  18.9159992  40.4719978  -0.9479986  18.6839672  40.9717885  -0.2748138
  18.8299992  40.9299978 -15.5019986  19.2419992  40.2089978 -15.9769986
  19.5109992  41.5989978 -15.4439986  18.9785536  40.9217766 -15.5591976
   1.1109992  40.9349978 -12.3749986   0.1859992  41.1429978 -12.5039986
   1.5649992  41.4189978 -13.0649986   1.0456298  41.0289299 -12.4859549
  15.8809992  55.9189978 -10.4289986  16.5339992  55.5709978 -11.0369986
  16.3919992  56.4069978  -9.7829986  16.0392777  55.9373815 -10.4247953
   1.0739992  39.6729978  -4.0309986   0.4089992  39.4269978  -3.3879986
   0.6309992  40.2949978  -4.6079986   0.9231168  39.7234214  -4.0210152
   3.2659992  52.8479978   0.1140014   2.4449992  53.0229978  -0.3469986
   3.0139992  52.7749978   1.0340014   3.1195594  52.8620717   0.1753611
   6.2199992  53.8219978  -3.6279986   5.7959992  54.6319978  -3.9099986
   7.1249992  53.9079978  -3.9299986   6.2842138  53.9444160  -3.7073585
  10.5319992  55.2209978  -0.6679986  10.7159992  54.8879978   0.2100014
  11.3779992  55.5309978  -0.9899986  10.6716484  55.2172979  -0.5912383
  12.8769992  56.5069978  -1.4239986  13.5539992  55.8739978  -1.6639986
  13.1979992  56.9079978  -0.6169986  13.0131323  56.4745691  -1.3476842
  17.7939992  39.0969978  -2.3449986  16.9809992  39.4219978  -2.7319986
  18.0269992  38.3359978  -2.8779986  17.7141347  39.0386880  -2.4700159
   3.6219992  57.0789978  -3.5799986   2.9019992  57.5189978  -4.0309986
   3.2569992  56.8279978  -2.7319986   3.4739643  57.1053369  -3.5270871
   6.0889992  56.6789978  -4.5499986   5.2249992  56.7509978  -4.1459986
   6.0339992  57.2259978  -5.3339986   5.9631942  56.7627849  -4.6006000
  10.7999992  56.5669978  -5.3749986  10.3429992  57.0959978  -6.0289986
  10.9629992  57.1699978  -4.6499986  10.7594960  56.7209280  -5.3664726
  13.1279992  55.4449978  -4.4299986  12.2229992  55.6099978  -4.6959986
  13.5559992  56.2979978  -4.4959986  13.0621537  55.5829134  -4.4752905
  15.7319992  57.0149978  -4.1349986  15.5499992  57.9309978  -4.3459986
  15.9089992  56.6039978  -4.9819986  15.7310030  57.0848273  -4.2782834
   3.0369992  55.7019978  -6.6699986   3.0189992  55.2759978  -5.8129986
   3.8419992  55.3829978  -7.0789986   3.1432875  55.6006435  -6.6080485
   5.1779992  54.4119978  -8.0149986   4.9589992  53.4949978  -7.8449986
   6.0019992  54.5519978  -7.5489986   5.2594702  54.3055511  -7.9287473
   7.7149992  54.8819978  -7.1659986   7.9279992  53.9939978  -7.4529986
   7.7799992  54.8469978  -6.2119986   7.7529149  54.7558326  -7.0762631
  11.2239992  40.5459978  -8.0219986  10.5499992  39.9159978  -7.7659986
  11.7879992  40.0619978  -8.6249986  11.2080384  40.3943708  -8.0684980
  16.3669992  38.6529978  -7.9089986  16.9699992  39.2009978  -8.4109986
  15.4969992  38.9719978  -8.1499986  16.3319157  38.7710373  -8.0102090
  18.0939992  39.7919978  -9.5759986  18.7049992  39.2779978 -10.1029986
  18.4759992  40.6689978  -9.5529986  18.2293305  39.8402050  -9.6450582
   3.5509992  39.1799978 -10.1999986   2.7739992  38.9449978 -10.7069986
   4.0809992  38.3829978 -10.1909986   3.5163451  39.0401268 -10.2681373
   2.3869992  38.9779978 -14.3959986   2.8259992  39.5889978 -14.9879986
   1.7529992  39.5159978 -13.9219986   2.3613859  39.1344064 -14.4129695
   8.1299992  39.1059978 -10.3869986   9.0039992  39.4949978 -10.4159986
   7.9939992  38.8909978  -9.4639986   8.2311953  39.1301643 -10.2662383
  13.6869992  39.1359978  -8.7369986  13.7629992  39.2319978  -9.6869986
  13.4119992  38.2289978  -8.6089986  13.6601871  39.0264146  -8.8496056
  15.0399992  39.1619978 -13.0449986  14.3369992  39.7769978 -13.2549986
  14.5949992  38.3249978 -12.9139986  14.8836550  39.1329668 -13.0560163
   2.2879992  54.9259978 -13.4989986   1.6029992  54.8879978 -14.1659986
   2.2919992  55.8389978 -13.2109986   2.1947621  55.0441924 -13.5513874
   4.2479992  40.8939978 -15.9539986   4.7389992  40.2639978 -16.4809986
   4.8709992  41.1899978 -15.2909986   4.3995304  40.8477376 -15.9365060
   9.2739992  41.1869978 -13.4969986   9.4519992  40.5399978 -12.8139986
   9.2199992  42.0209978 -13.0299986   9.2910678  41.2111604 -13.3403699
  11.1519992  56.1349978 -15.1009986  12.0179992  56.5019978 -15.2789986
  10.9059992  55.6959978 -15.9149986  11.2372097  56.1258525 -15.2353981
  17.8609992  55.6979978 -12.4219986  17.6669992  54.9499978 -12.9869986
  17.8219992  56.4559978 -13.0049986  17.8291645  55.6980786 -12.5781852
   3.5079992  39.6939978  -0.6819986   3.1419992  38.9279978  -0.2399986
   4.4209992  39.7229978  -0.3959986   3.5813172  39.5930324  -0.5828110
   5.4809992  39.0439978   0.8530014   6.3799992  38.7699978   0.6690014
   5.0949992  38.3019978   1.3180014   5.5517307  38.9062196   0.8907098
   4.1059992  55.8459978 -16.4739986   3.8379992  56.1319978 -15.5999986
   4.8769992  55.2999978 -16.3209986   4.1735926  55.8112779 -16.3338795
  13.9029992  38.3769978   1.0360014  13.9789992  37.9509978   1.8890014
  14.7959992  38.3899978   0.6930014  14.0342303  38.3203493   1.1065497
  17.0789992  54.4499978  -0.2719986  16.2969992  54.2629978  -0.7919986
  17.0069992  55.3789978  -0.0549986  16.9621924  54.5500637  -0.3138398
  31.4849992  48.3359978 -10.2409986  31.5739992  49.2799978 -10.3729986
  30.8469992  48.0609978 -10.8989986  31.4109062  48.4279812 -10.3480359
  30.4179992  47.5909978  -6.8219986  30.3799992  46.9449978  -6.1169986
  30.0959992  47.1239978  -7.5929986  30.3692679  47.4394276  -6.8297079
  22.7859992  47.2049978  -5.2289986  22.8279992  46.5799978  -4.5059986
  23.4889992  47.8289978  -5.0469986  22.8867345  47.2037873  -5.1054726
  34.1239992  50.5299978  -8.5209986  33.6829992  49.8099978  -8.0699986
  34.1109992  51.2509978  -7.8909986  34.0619215  50.5289291  -8.3741895
  23.7099992  51.6549978  -6.6939986  23.3399992  50.8529978  -7.0639986
  24.6509992  51.4869978  -6.6479986  23.7865984  51.5224638  -6.7384397
  20.3199992  45.3149978 -11.3019986  19.8719992  46.1609978 -11.3199986
  19.7589992  44.7359978 -11.8169986  20.1828546  45.3523993 -11.3741109
  21.0299992  47.4769978  -9.1759986  21.2439992  46.7069978  -8.6479986
  21.7679992  47.5669978  -9.7789986  21.1590200  47.3838586  -9.1852965
  31.2359992  55.6339978  -8.3089986  31.8549992  54.9579978  -8.5819986
  31.0269992  55.4159978  -7.3999986  31.2926056  55.5118869  -8.2236033
  28.8069992  50.0229978  -6.4159986  29.1109992  49.3369978  -7.0109986
  29.5289992  50.1419978  -5.7979986  28.9461240  49.9452314  -6.4139041
  37.4699992  41.6249978  -5.5559986  37.5199992  42.2349978  -4.8199986
  37.8959992  42.0859978  -6.2789986  37.5344108  41.7707709  -5.5529888
  31.9479992  44.4169978  -6.0889986  32.0909992  43.4709978  -6.0689986
  31.8419992  44.6239978  -7.0169986  31.9532403  44.3154797  -6.2117761
  25.1029992  42.5189978  -8.8159986  25.1459992  43.3789978  -9.2349986
  24.6449992  41.9669978  -9.4499986  25.0469871  42.5619245  -8.9589239
  32.8249992  42.6499978 -10.4149986  33.4719992  42.3209978  -9.7909986
  33.3349992  43.1669978 -11.0379986  32.9824351  42.6749067 -10.4138963
  21.7229992  44.9159978  -8.0539986  22.3769992  44.3659978  -7.6219986
  21.7469992  44.6419978  -8.9709986  21.8157199  44.8037167  -8.1188332
  26.8799992  46.4659978  -8.8389986  27.4959992  45.9389978  -8.3299986
  26.2929992  45.8259978  -9.2429986  26.8850154  46.3073954  -8.8239055
  37.8619992  43.1029978  -3.3199986  37.1729992  43.7609978  -3.4149986
  37.8769992  42.9049978  -2.3829986  37.7697756  43.1662603  -3.2064188
  23.9129992  41.4369978  -4.7419986  23.6939992  41.9669978  -5.5089986
  23.2449992  41.6629978  -4.0949986  23.7926975  41.5400967  -4.7594860
  31.2819992  50.9369978 -11.1979986  30.9869992  50.6139978 -12.0499986
  30.9579992  51.8369978 -11.1569986  31.1978460  51.0144464 -11.3090286
  26.4819992  49.1119978  -4.4549986  25.7419992  49.7109978  -4.3509986
  27.1959992  49.6659978  -4.7699986  26.4773500  49.2687829  -4.4833629
  34.5889992  41.9409978  -8.4349986  34.3739992  41.1749978  -7.9019986
  35.2449992  42.4129978  -7.9219986  34.6482673  41.9000728  -8.2928010
  23.5069992  43.3289978  -6.7899986  24.1209992  43.9619978  -6.4169986
  24.0189992  42.8569978  -7.4459986  23.6601962  43.3517249  -6.8277065
  24.8899992  51.0769978  -3.6679986  24.8839992  51.9559978  -4.0459986
  24.0359992  50.9929978  -3.2429986  24.7737925  51.1859535  -3.6623113
  21.0109992  50.7479978 -12.8859986  20.7389992  50.9769978 -13.7739986
  21.0559992  51.5849978 -12.4249986  20.9798097  50.8926163 -12.9453317
  34.6359992  52.3689978  -6.1729986  33.6939992  52.4279978  -6.0109986
  34.9119992  53.2749978  -6.3099986  34.5445865  52.4995288  -6.1693808
  34.9359992  40.6559978  -4.7559986  34.1999992  41.2659978  -4.7929986
  35.6199992  41.0709978  -5.2819986  34.9275367  40.7957551  -4.8321826
  27.9399992  38.7419978  -7.2899986  27.8219992  37.7939978  -7.3439986
  27.0849992  39.0749978  -7.0169986  27.8082805  38.6572202  -7.2604921
  32.8879992  54.1499978  -9.5479986  33.3129992  53.4429978 -10.0329986
  33.2049992  54.9519978  -9.9649986  32.9890266  54.1615190  -9.6707521
  34.0479992  52.0509978 -11.0389986  33.7899992  51.3609978 -11.6509986
  34.1189992  51.6079978 -10.1939986  34.0223050  51.8966814 -11.0084379
  35.7339992  50.6179978  -2.5619986  35.8729992  50.0259978  -3.3009986
  35.9009992  51.4909978  -2.9179986  35.7756193  50.6548896  -2.7113789
  30.2059992  47.5799978 -12.7889986  29.4949992  48.1149978 -13.1409986
  30.8969992  47.6349978 -13.4489986  30.2020751  47.6606777 -12.9264142
  30.2599992  46.0369978 -15.7509986  30.9609992  46.0599978 -15.0989986
  30.5619992  45.4089978 -16.4069986  30.3968202  45.9552212 -15.7504391
  37.5749992  46.9579978  -4.4959986  36.9229992  47.6519978  -4.4069986
  38.0409992  47.1679978  -5.3059986  37.5485937  47.0815019  -4.5932467
  33.6119992  47.7889978 -11.8379986  32.8799992  48.0179978 -11.2639986
  34.0589992  47.0759978 -11.3829986  33.5723963  47.7238729 -11.6980055
  33.5089992  45.9639978  -2.7699986  33.5889992  46.7269978  -2.1979986
  32.9079992  46.2429978  -3.4599986  33.4386547  46.1062457  -2.7849953
  25.2569992  48.4199978  -9.9549986  24.9269992  48.0489978 -10.7729986
  25.8459992  47.7489978  -9.6079986  25.2913970  48.2786063 -10.0200596
  26.6239992  51.8479978  -7.2739986  26.5289992  51.2689978  -8.0299986
  27.3529992  51.4769978  -6.7779986  26.7096011  51.7185561  -7.3103972
  25.6239992  47.1879978  -6.3219986  26.1889992  47.3099978  -7.0839986
  25.9429992  47.8259978  -5.6829986  25.7444166  47.2908791  -6.3399652
  31.9329992  52.6919978  -5.5879986  31.6929992  53.3539978  -4.9399986
  31.7349992  51.8569978  -5.1629986  31.8733826  52.6698115  -5.4418434
  26.5039992  51.5879978  -1.6039986  26.1929992  52.3699978  -1.1489986
  25.8539992  51.4349978  -2.2899986  26.3735538  51.6744087  -1.6344102
  32.4829992  46.9519978 -14.1519986  33.0619992  47.1019978 -13.4059986
  32.8969992  47.4219978 -14.8759986  32.6183358  47.0360954 -14.1476047
  23.4239992  47.7859978  -2.3759986  23.4939992  48.4369978  -1.6769986
  22.5329992  47.8889978  -2.7109986  23.3131690  47.8889249  -2.3256957
  30.2089992  53.6879978 -10.7169986  30.6829992  53.9839978  -9.9399986
  29.6459992  54.4269978 -10.9499986  30.1977890  53.8283036 -10.6421899
  24.7429992  53.6589978  -0.8409986  24.7509992  53.5229978  -1.7879986
  23.8269992  53.5419978  -0.5889986  24.6202528  53.6245463  -0.9366757
  36.1819992  38.7019978 -14.3389986  35.2819992  38.8409978 -14.0439986
  36.4339992  39.5329978 -14.7409986  36.0928683  38.8334055 -14.3529768
  24.2479992  47.4889978 -12.3659986  23.9559992  48.2569978 -12.8569986
  23.5729992  46.8299978 -12.5289986  24.1168497  47.5049745 -12.4551740
  37.3709992  53.0679978 -15.9629986  37.4439992  54.0069978 -15.7929986
  38.2759992  52.7629978 -16.0189986  37.5034170  53.1553282 -15.9472937
  20.3409992  49.8519978  -3.5509986  19.8389992  49.8239978  -4.3659986
  20.3459992  48.9469978  -3.2409986  20.2729832  49.7257486  -3.6205879
  20.0909992  52.6329978  -6.6669986  21.0369992  52.4879978  -6.6859986
  19.9779992  53.4169978  -6.1299986  20.2053578  52.7191697  -6.5969683
  38.2889992  53.2989978  -0.9839986  38.2389992  52.3429978  -1.0219986
  37.4619992  53.5659978  -0.5829986  38.1703831  53.2044680  -0.9349879
  29.2669992  52.8729978  -2.1079986  29.3549992  53.6989978  -1.6329986
  28.4039992  52.5429978  -1.8589986  29.1623357  52.9415468  -2.0092347
  29.6819992  56.6449978 -12.3019986  29.6059992  56.5239978 -13.2489986
  29.7139992  57.5939978 -12.1839986  29.6759380  56.7567677 -12.4154819
  23.3349992  55.4339978 -10.5209986  23.4869992  55.0859978  -9.6429986
  22.4839992  55.0769978 -10.7769986  23.2408344  55.3380879 -10.4353132
  32.7829992  55.7989978 -15.2999986  33.1579992  55.0549978 -15.7709986
  32.7879992  55.5289978 -14.3819986  32.8350098  55.6606392 -15.2403371
  32.4519992  55.7249978 -12.5509986  31.5169992  55.8249978 -12.3719986
  32.7319992  55.0149978 -11.9719986  32.3619471  55.6427933 -12.4483305
  35.4409992  44.7919978  -0.5039986  35.0329992  45.2719978  -1.2249986
  35.4809992  43.8859978  -0.8119986  35.3906221  44.7352449  -0.6441733
  22.5899992  51.1759978  -2.5079986  22.8059992  50.8139978  -1.6479986
  21.7339992  50.8009978  -2.7169986  22.5038810  51.0758837  -2.4187320
  25.2079992  39.6459978  -6.5119986  24.3469992  39.5589978  -6.9199986
  25.1859992  40.5019978  -6.0839986  25.0870491  39.7498003  -6.5100418
  29.8709992  39.3679978  -3.1369986  30.2909992  38.9529978  -2.3839986
  28.9379992  39.1889978  -3.0199986  29.8023736  39.2869910  -3.0181032
  33.1979992  43.1229978  -2.2839986  32.6839992  42.9979978  -1.4859986
  33.0419992  44.0359978  -2.5279986  33.1066967  43.2292123  -2.2079063
  33.9599992  47.9839978 -16.5229986  34.0019992  47.7619978 -17.4529986
  34.8089992  48.3829978 -16.3329986  34.0805253  48.0075498 -16.6246178
  29.5329992  41.8599978 -15.8519986  29.2789992  41.8789978 -14.9299986
  29.2759992  40.9889978 -16.1539986  29.4634508  41.7448280 -15.7665197
  25.2989992  44.6109978  -5.4169986  24.6579992  44.5709978  -4.7079986
  25.3369992  45.5379978  -5.6549986  25.2163010  44.7307668  -5.3520054
  25.2959992  44.8319978 -10.5049986  24.4039992  44.4919978 -10.5639986
  25.7469992  44.4549978 -11.2609986  25.2347642  44.7344910 -10.6152274
  30.8319992  45.2479978 -11.6879986  30.4229992  46.0629978 -11.9799986
  31.5519992  45.1079978 -12.3019986  30.8734439  45.3405372 -11.8109885
  29.9339992  45.4239978  -0.1999986  29.3709992  44.7189978   0.1210014
  30.7599992  45.3029978   0.2680014  29.9686674  45.3112165  -0.0928249
  31.8369992  44.6939978  -8.8739986  31.6409992  45.2999978  -9.5889986
  32.0179992  43.8609978  -9.3079986  31.8346584  44.6642513  -9.0305788
  23.0489992  44.9319978  -3.5499986  23.0109992  45.3319978  -2.6809986
  22.5589992  44.1149978  -3.4599986  22.9775330  44.8762674  -3.4188711
  26.4149992  42.3059978 -16.7509986  25.9839992  41.8609978 -16.0219986
  25.6969992  42.6769978 -17.2639986  26.2589176  42.2952051 -16.7205070
  19.6579992  42.0479978  -9.6989986  20.2879992  42.0189978  -8.9799986
  20.1069992  41.6229978 -10.4299986  19.8050835  41.9865660  -9.6992341
  20.9319992  42.7939978 -14.2749986  21.4059992  43.3849978 -14.8599986
  20.2139992  43.3239978 -13.9279986  20.8998640  42.9465511 -14.3082031
  31.1009992  46.3319978  -4.2029986  31.4239992  45.7009978  -4.8459986
  30.6599992  45.7979978  -3.5419986  31.0856379  46.1733468  -4.2017418
  27.8779992  42.2599978  -9.4189986  26.9669992  42.3169978  -9.1299986
  28.3829992  42.1999978  -8.6079986  27.8216873  42.2596826  -9.2698793
  22.7059992  43.8889978 -10.5919986  21.8169992  43.9879978 -10.9319986
  23.0029992  43.0469978 -10.9379986  22.6244177  43.7887687 -10.6853060
  26.3589992  43.8889978 -12.9349986  27.2909992  44.0179978 -12.7569986
  26.1439992  44.5579978 -13.5849986  26.4574472  43.9970806 -12.9985109
  32.2829992  41.4949978  -6.1539986  31.6059992  41.6259978  -5.4909986
  31.7979992  41.3399978  -6.9649986  32.1247405  41.4919947  -6.1727830
  25.0329992  45.0829978 -15.3689986  24.4909992  44.7039978 -16.0599986
  25.8669992  45.2779978 -15.7969986  25.0714390  45.0574079 -15.5215608
  35.5709992  57.1659978   0.1220014  35.7699992  57.5899978  -0.7119986
  36.2259992  57.5099978   0.7290014  35.6868522  57.2706301   0.0897852
  23.1689992  49.6399978  -0.2699986  23.9009992  49.8949978   0.2920014
  22.3879992  49.8449978   0.2460014  23.1636526  49.7025450  -0.1234824
  29.1979992  45.0469978  -7.5319986  29.7619992  44.5009978  -8.0789986
  29.0499992  44.5259978  -6.7429986  29.2553037  44.9016787  -7.5002771
  24.1999992  41.1839978 -11.1129986  23.8829992  40.2809978 -11.1489986
  24.9809992  41.1859978 -11.6659986  24.2622431  41.0607797 -11.1926898
  27.8239992  43.4359978  -5.1179986  26.9889992  43.8899978  -5.0069986
  28.3479992  43.7119978  -4.3659986  27.7806072  43.5353948  -5.0011864
  28.3689992  49.6489978 -13.4329986  27.6239992  49.1409978 -13.7549986
  28.2339992  49.6979978 -12.4869986  28.2488963  49.5861731 -13.3491174
  35.5189992  48.7819978  -4.6459986  36.1599992  49.2379978  -5.1899986
  34.6879992  48.8949978  -5.1089986  35.4945287  48.8596921  -4.7830113
  32.2659992  42.4629978 -15.2339986  31.3279992  42.5739978 -15.3849986
  32.5639992  43.3189978 -14.9269986  32.1776318  42.5940158 -15.2131855
  29.8879992  49.8329978  -2.1959986  29.5419992  49.4509978  -1.3889986
  29.6879992  50.7659978  -2.1249986  29.8135987  49.9069002  -2.0759539
  32.9849992  44.3299978 -13.5729986  33.8769992  44.1919978 -13.2539986
  33.0409992  45.1209978 -14.1099986  33.1147325  44.4179918 -13.6018783
  23.4929992  48.9439978  -7.6629986  24.2379992  48.9409978  -8.2649986
  23.5709992  48.1199978  -7.1819986  23.6053366  48.8322384  -7.6802570
  30.4939992  51.1069978 -14.4079986  30.1989992  51.9339978 -14.0259986
  29.7909992  50.4879978 -14.2109986  30.3586379  51.1364171 -14.3291346
  20.5009992  47.4039978  -2.3479986  20.7239992  46.9859978  -1.5169986
  19.8989992  46.7919978  -2.7709986  20.4501513  47.2639606  -2.2913260
  27.5179992  46.9209978  -0.1349986  27.2219992  46.7559978  -1.0309986
  28.4489992  46.7009978  -0.1459986  27.6034401  46.8686879  -0.2589794
  32.1379992  52.2949978  -2.2459986  31.2379992  52.4779978  -2.5129986
  32.1719992  52.5539978  -1.3249986  32.0193748  52.3550554  -2.1580836
  37.8699992  44.5389978 -13.8779986  37.3149992  44.1429978 -14.5509986
  37.9699992  45.4499978 -14.1559986  37.8076816  44.6079505 -14.0074967
  37.8329992  50.3399978  -1.0409986  36.9819992  50.5779978  -1.4089986
  38.4229992  50.3229978  -1.7939986  37.7963812  50.3702524  -1.1931547
  36.1649992  53.3249978 -13.4129986  35.7919992  52.4999978 -13.1039986
  36.4419992  53.1419978 -14.3109986  36.1513463  53.1872569 -13.4920475
  33.3249992  48.1329978  -6.3919986  32.3969992  47.9019978  -6.4189986
  33.7759992  47.3559978  -6.7219986  33.2588165  47.9962774  -6.4403210
  25.8679992  52.4619978 -10.2589986  26.3959992  53.2349978 -10.4589986
  24.9879992  52.6859978 -10.5609986  25.8213435  52.5982700 -10.3272690
  21.6229992  47.3239978 -15.6719986  22.2389992  47.9509978 -15.2919986
  20.7609992  47.6399978 -15.3999986  21.5907678  47.4524412 -15.5832791
  27.2959992  50.1249978 -10.6829986  27.0549992  51.0499978 -10.6409986
  26.5549992  49.6659978 -10.2859986  27.1629206  50.1895915 -10.6236231
  27.8099992  54.2739978  -4.3679986  28.1729992  55.1279978  -4.6009986
  28.3419992  53.9819978  -3.6269986  27.9315141  54.3513895  -4.2997903
  25.9789992  55.1459978 -11.1369986  25.0289992  55.2519978 -11.0859986
  26.3309992  55.9669978 -10.7929986  25.8965472  55.2714923 -11.0835148
  31.3539992  50.3729978  -4.6669986  30.9289992  50.1449978  -3.8409986
  31.9349992  49.6339978  -4.8489986  31.3743395  50.2419545  -4.5785586
  33.5569992  51.3019978 -15.5929986  33.9109992  50.9219978 -14.7889986
  32.6089992  51.2079978 -15.5059986  33.4772298  51.2372452 -15.4711313
  34.0129992  54.9249978  -2.1979986  33.4109992  54.3689978  -2.6929986
  34.2939992  55.5919978  -2.8239986  33.9685757  54.9390744  -2.3504325
  38.0609992  55.7809978 -15.3919986  38.8049992  56.3669978 -15.5319986
  37.3669992  56.3499978 -15.0589986  38.0689809  55.9380818 -15.3661410
  22.1349992  42.1579978  -2.7899986  21.2429992  42.4959978  -2.8579986
  22.0369992  41.3019978  -2.3719986  21.9994475  42.0886543  -2.7428296
  34.4229992  49.9739978 -13.3659986  34.1459992  49.2459978 -12.8099986
  35.3509992  50.0929978 -13.1609986  34.5104499  49.8904213 -13.2621956
  21.7869992  53.9619978  -4.3549986  22.0039992  53.0299978  -4.3859986
  22.0329992  54.2369978  -3.4719986  21.8499809  53.8715686  -4.2398309
  26.5849992  51.9839978 -14.6899986  26.7319992  51.4639978 -13.8999986
  26.5819992  52.8909978 -14.3829986  26.6047102  52.0353953 -14.5404075
  23.0379992  49.2359978 -14.1789986  22.3519992  49.5889978 -13.6119986
  23.5609992  49.9989978 -14.4259986  23.0148402  49.3873901 -14.1348199
  30.8699992  41.8989978  -3.8999986  31.5689992  41.9729978  -3.2499986
  30.4889992  41.0339978  -3.7459986  30.9142097  41.7922389  -3.7902003
  31.6539992  41.5509978 -12.8029986  31.8739992  42.0219978 -13.6069986
  32.2129992  41.9449978 -12.1329986  31.7596731  41.6687287 -12.8224967
  29.3229992  53.6809978 -13.9399986  28.5059992  54.1779978 -13.8879986
  29.8519992  54.1569978 -14.5809986  29.2828125  53.8131989 -14.0194694
  28.8539992  43.2789978 -11.9679986  29.6659992  43.7829978 -11.9219986
  28.6099992  43.1339978 -11.0539986  28.9321467  43.3283749 -11.8381425
  29.3899992  44.2649978  -2.7839986  29.5089992  44.8389978  -2.0269986
  30.0449992  43.5769978  -2.6689986  29.4948684  44.2505194  -2.6648326
  29.7379992  40.3599978 -11.0299986  29.3909992  40.9769978 -10.3859986
  30.3969992  40.8609978 -11.5119986  29.7795090  40.5121575 -11.0069319
  26.6609992  54.7249978 -13.9589986  26.8219992  55.5249978 -14.4589986
  26.4639992  55.0319978 -13.0739986  26.6563906  54.8758678 -13.9077667
  25.3959992  41.4229978 -14.3429986  25.3119992  42.3109978 -13.9959986
  26.2859992  41.1579978 -14.1109986  25.5048163  41.5087179 -14.2641404
  35.5939992  42.1719978  -1.9489986  34.6779992  42.4339978  -2.0359986
  35.9299992  42.1689978  -2.8449986  35.5138499  42.2075163  -2.0821234
  34.1969992  45.9219978  -7.8529986  33.3989992  45.5069978  -8.1809986
  34.6419992  45.2319978  -7.3619986  34.1479684  45.7718628  -7.8314773
  23.6539992  51.8499978 -15.2829986  24.2459992  52.5499978 -15.0059986
  24.1129992  51.4169978 -16.0019986  23.7971652  51.8872675 -15.3423467
  21.9699992  44.5149978 -16.1669986  21.9249992  45.4539978 -15.9879986
  21.0819992  44.2789978 -16.4359986  21.8438166  44.6116687 -16.1788476
  35.2829992  55.1779978  -6.2309986  35.1269992  55.8569978  -6.8879986
  36.2159992  55.2499978  -6.0279986  35.3877387  55.2806390  -6.2934658
  22.7779992  39.2959978  -7.4929986  22.5489992  39.3549978  -8.4209986
  22.3359992  38.5049978  -7.1869986  22.6868801  39.1970540  -7.5785271
  21.7089992  53.2369978 -11.3329986  20.8759992  53.7089978 -11.3059986
  22.2539992  53.7469978 -11.9319986  21.6687857  53.3704791 -11.4102858
  20.9969992  55.8489978  -0.0029986  21.5369992  55.6329978   0.7570014
  20.5159992  55.0439978  -0.1929986  21.0059219  55.7105156   0.0754282
  25.5939992  54.7689978   1.6170014  26.3619992  54.3099978   1.9580014
  25.5729992  54.5429978   0.6870014  25.6962135  54.6756668   1.5379491
  29.6859992  54.2769978 -17.0069986  29.0419992  53.6459978 -16.6859986
  30.4479992  53.7459978 -17.2389986  29.7008058  54.1187902 -16.9943962
  32.1709992  53.1489978   0.3460014  31.8199992  52.2919978   0.5900014
  32.8969992  53.2909978   0.9530014  32.2211895  53.0511351   0.4613770
  34.2909992  54.0939978 -16.7739986  34.5739992  53.2989978 -16.3209986
  35.0299992  54.3269978 -17.3349986  34.4297096  54.0167049 -16.7878896
  20.9039992  49.6599978   0.9510014  21.0479992  48.7579978   0.6650014
  20.1319992  49.9459978   0.4640014  20.8192733  49.5751798   0.8459532
  25.2449992  50.0029978 -16.9159986  25.3099992  49.2089978 -16.3859986
  25.8979992  49.8849978 -17.6059986  25.3421605  49.8783430 -16.9367003
  27.5589992  49.6289978   0.3840014  27.2309992  49.8999978  -0.4729986
  27.7109992  48.6879978   0.2960014  27.5346412  49.5389046   0.2547822
  33.2939992  49.5449978  -2.2329986  34.0389992  50.1339978  -2.3519986
  32.5369992  50.1269978  -2.1689986  33.2935470  49.7042128  -2.2406201
  21.7369992  46.8599978   0.3710014  22.1449992  46.0029978   0.2500014
  21.4759992  46.8739978   1.2920014  21.7576016  46.7445119   0.4789192
  26.3949992  47.9759978 -14.6099986  25.9349992  47.4919978 -13.9249986
  26.6499992  47.3069978 -15.2459986  26.3664856  47.8193669 -14.6021603
  25.6839992  45.8689978  -2.2539986  25.0649992  46.5429978  -1.9739986
  26.0279992  46.1899978  -3.0879986  25.6457123  46.0046887  -2.3283612
  27.4659992  46.2189978 -16.3479986  27.2849992  46.0639978 -17.2749986
  28.4159992  46.3269978 -16.3029986  27.5696566  46.2123669 -16.4689071
  30.7029992  48.3399978   1.0230014  31.6569992  48.4239978   0.9960014
  30.5429992  47.6279978   1.6430014  30.8117182  48.2552842   1.1030733
  36.8559992  48.5729978 -16.9019986  36.5819992  48.1489978 -17.7149986
  36.8949992  49.5049978 -17.1189986  36.8237716  48.6408827 -17.0425714
  26.0229992  43.2239978  -1.1719986  26.1729992  42.4949978  -1.7739986
  26.0249992  44.0009978  -1.7309986  26.0437967  43.2292708  -1.3299459
  26.4359992  41.5929978  -3.6789986  26.9709992  42.0449978  -4.3309986
  25.5829992  41.4849978  -4.1019986  26.3940374  41.6402665  -3.8253290
  28.0169992  47.0329978  -3.4399986  28.7679992  46.8769978  -4.0129986
  27.6779992  47.8849978  -3.7149986  28.0739587  47.1268138  -3.5555922
  32.4329992  44.8479978   1.5890014  32.6249992  43.9169978   1.4770014
  33.2909992  45.2729978   1.5780014  32.5752182  44.7780070   1.5721862
  33.7499992  47.6369978  -0.3339986  33.4679992  48.3459978  -0.9119986
  34.6919992  47.5639978  -0.4849986  33.8387921  47.7242193  -0.4335775
  24.5019992  44.4219978   0.7390014  23.7339992  43.8889978   0.5290014
  25.1799992  44.1119978   0.1400014  24.4887235  44.3071754   0.6292413
  27.2409992  39.0499978  -3.2479986  27.1429992  39.9959978  -3.3529986
  26.4989992  38.6769978  -3.7239986  27.1272534  39.1291773  -3.3267400
  28.5049992  43.3709978   0.3160014  28.2699992  43.1519978   1.2170014
  27.7219992  43.1639978  -0.1939986  28.3669095  43.3129892   0.3705353
  31.2209992  42.4989978  -0.6089986  30.2729992  42.5309978  -0.4769986
  31.5329992  41.8729978   0.0450014  31.1335293  42.4187923  -0.5025852
  32.8549992  41.1329978   1.3960014  32.7579992  40.1809978   1.3910014
  32.5329992  41.4009978   2.2570014  32.7982468  41.0390884   1.5116210
  22.6819992  42.3419978   0.4440014  22.8939992  41.6359978  -0.1659986
  22.5709992  41.9049978   1.2880014  22.6960269  42.1861921   0.4745873
  27.4629992  38.3439978  -0.5769986  28.1749992  37.7039978  -0.5909986
  27.3619992  38.6099978  -1.4899986  27.5467387  38.2924330  -0.7024437
  27.8169992  40.0259978   1.4770014  27.6849992  39.5509978   0.6570014
  27.2169992  40.7709978   1.4220014  27.7179070  40.0615789   1.3573251
  27.3629992  56.9089978 -15.3469986  28.2959992  57.0669978 -15.2029986
  27.0989992  57.5849978 -15.9719986  27.4549911  57.0219373 -15.4117278
  20.9309992  51.5459978 -15.8639986  21.8449992  51.6249978 -15.5909986
  20.9389992  50.8589978 -16.5299986  21.0570655  51.4639205 -15.9167083
  19.5799992  56.9389978 -10.7869986  18.9329992  56.4769978 -11.3189986
  19.9349992  56.2669978 -10.2039986  19.5393741  56.7849774 -10.7810825
  20.4499992  55.0189978  -8.9819986  20.1159992  54.1389978  -8.8099986
  20.6729992  55.3649978  -8.1169986  20.4343721  54.9451938  -8.8415832
  37.9989992  55.8289978  -6.0009986  37.9769992  56.0139978  -5.0619986
  38.6889992  56.3969978  -6.3419986  38.0893439  55.9311887  -5.9185209
  37.5619992  55.3959978  -3.0799986  37.0749992  54.6609978  -3.4509986
  38.1109992  55.0019978  -2.4019986  37.5695247  55.2421057  -3.0391539
  36.0129992  51.1859978   1.5590014  35.1469992  51.0809978   1.9530014
  36.3889992  51.9439978   2.0050014  35.9453401  51.2741708   1.6732620
  37.3139992  49.4419978 -12.9269986  38.1639992  49.8629978 -12.7999986
  37.3189992  48.7019978 -12.3199986  37.4311143  49.3996094 -12.8275250
  37.7079992  47.4959978 -11.1039986  36.9819992  47.0159978 -10.7059986
  38.2899992  47.7009978 -10.3709986  37.6872730  47.4580184 -10.9505851
  37.4669992  50.2809978  -6.1559986  38.3009992  49.9029978  -6.4369986
  37.5789992  51.2239978  -6.2749986  37.5961917  50.3567943  -6.2105139
  35.9539992  53.1589978  -3.8489986  35.3059992  53.4839978  -3.2239986
  35.4359992  52.7179978  -4.5229986  35.7954196  53.1438651  -3.8545848
  37.9769992  47.3969978 -14.7129986  37.4549992  47.7529978 -15.4309986
  37.9439992  48.0719978 -14.0339986  37.9010129  47.5369598 -14.7196645
  36.3259992  44.6359978 -16.1619986  36.4219992  45.3029978 -16.8419986
  36.1859992  43.8209978 -16.6429986  36.3202040  44.6170671 -16.3201622
  35.4949992  46.0169978 -10.5409986  35.3449992  45.0719978 -10.5609986
  35.1409992  46.2979978  -9.6969986  35.4266351  45.9256644 -10.4296780
  20.5299992  48.0949978  -6.5299986  20.7149992  48.0129978  -7.4659986
  21.3799992  47.9709978  -6.1069986  20.6700928  48.0670463  -6.6007107
  36.3509992  47.9869978  -0.9019986  36.9339992  47.2519978  -0.7099986
  36.9149992  48.7589978  -0.8549986  36.5069781  47.9908145  -0.8693836
  37.8479992  45.8899978  -0.2169986  36.9849992  45.5109978  -0.3829986
  38.4519992  45.1509978  -0.2919986  37.8116085  45.7383223  -0.2498305
  35.5729992  42.0439978 -17.0439986  36.1839992  41.6729978 -16.4069986
  34.7359992  41.6229978 -16.8479986  35.5434947  41.9362756 -16.9302748
  35.2059992  43.5989978 -12.0779986  35.4849992  42.6919978 -11.9539986
  35.9649992  44.0329978 -12.4669986  35.3468619  43.5334502 -12.1136205
  35.8169992  44.1809978  -6.6419986  36.7499992  44.3929978  -6.6769986
  35.5819992  44.2819978  -5.7199986  35.9129517  44.2236833  -6.5220870
  35.8469992  44.9179978  -3.8659986  35.0039992  45.1859978  -3.4999986
  36.2889992  45.7399978  -4.0769986  35.7914138  45.0658273  -3.8444482
  20.1279992  43.3649978  -0.3899986  21.0469992  43.2429978  -0.1529986
  19.6779992  42.6149978   0.0000014  20.1930087  43.2469608  -0.3048590
  38.1299992  38.8979978   1.4870014  38.4789992  38.2439978   0.8820014
  38.2769992  39.7349978   1.0470014  38.1976824  38.9216024   1.3446304
  35.8189992  40.8619978 -12.0299986  36.0009992  40.4129978 -11.2049986
  35.2189992  40.2779978 -12.4939986  35.7628187  40.7215552 -11.9797261
  21.3489992  41.6779978  -7.4979986  21.7939992  40.8859978  -7.1959986
  21.8149992  42.3939978  -7.0679986  21.4729718  41.6664534  -7.3984735
  19.6529992  44.6769978  -6.4289986  20.1449992  44.4559978  -7.2199986
  20.0149992  45.5169978  -6.1479986  19.7692923  44.7603468  -6.4992593
  37.6489992  41.0069978  -0.1639986  36.7319992  41.2779978  -0.1989986
  37.7719992  40.4719978  -0.9479986  37.5399672  40.9717885  -0.2748138
  37.6859992  40.9299978 -15.5019986  38.0979992  40.2089978 -15.9769986
  38.3669992  41.5989978 -15.4439986  37.8345536  40.9217766 -15.5591976
  19.9669992  40.9349978 -12.3749986  19.0419992  41.1429978 -12.5039986
  20.4209992  41.4189978 -13.0649986  19.9016298  41.0289299 -12.4859549
  34.7369992  55.9189978 -10.4289986  35.3899992  55.5709978 -11.0369986
  35.2479992  56.4069978  -9.7829986  34.8952777  55.9373815 -10.4247953
  19.9299992  39.6729978  -4.0309986  19.2649992  39.4269978  -3.3879986
  19.4869992  40.2949978  -4.6079986  19.7791168  39.7234214  -4.0210152
  22.1219992  52.8479978   0.1140014  21.3009992  53.0229978  -0.3469986
  21.8699992  52.7749978   1.0340014  21.9755594  52.8620717   0.1753611
  25.0759992  53.8219978  -3.6279986  24.6519992  54.6319978  -3.9099986
  25.9809992  53.9079978  -3.9299986  25.1402138  53.9444160  -3.7073585
  29.3879992  55.2209978  -0.6679986  29.5719992  54.8879978   0.2100014
  30.2339992  55.5309978  -0.9899986  29.5276484  55.2172979  -0.5912383
  31.7329992  56.5069978  -1.4239986  32.4099992  55.8739978  -1.6639986
  32.0539992  56.9079978  -0.6169986  31.8691323  56.4745691  -1.3476842
  36.6499992  39.0969978  -2.3449986  35.8369992  39.4219978  -2.7319986
  36.8829992  38.3359978  -2.8779986  36.5701347  39.0386880  -2.4700159
  22.4779992  57.0789978  -3.5799986  21.7579992  57.5189978  -4.0309986
  22.1129992  56.8279978  -2.7319986  22.3299643  57.1053369  -3.5270871
  24.9449992  56.6789978  -4.5499986  24.0809992  56.7509978  -4.1459986
  24.8899992  57.2259978  -5.3339986  24.8191942  56.7627849  -4.6006000
  29.6559992  56.5669978  -5.3749986  29.1989992  57.0959978  -6.0289986
  29.8189992  57.1699978  -4.6499986  29.6154960  56.7209280  -5.3664726
  31.9839992  55.4449978  -4.4299986  31.0789992  55.6099978  -4.6959986
  32.4119992  56.2979978  -4.4959986  31.9181537  55.5829134  -4.4752905
  34.5879992  57.0149978  -4.1349986  34.4059992  57.9309978  -4.3459986
  34.7649992  56.6039978  -4.9819986  34.5870030  57.0848273  -4.2782834
  21.8929992  55.7019978  -6.6699986  21.8749992  55.2759978  -5.8129986
  22.6979992  55.3829978  -7.0789986  21.9992875  55.6006435  -6.6080485
  24.0339992  54.4119978  -8.0149986  23.8149992  53.4949978  -7.8449986
  24.8579992  54.5519978  -7.5489986  24.1154702  54.3055511  -7.9287473
  26.5709992  54.8819978  -7.1659986  26.7839992  53.9939978  -7.4529986
  26.6359992  54.8469978  -6.2119986  26.6089149  54.7558326  -7.0762631
  30.0799992  40.5459978  -8.0219986  29.4059992  39.9159978  -7.7659986
  30.6439992  40.0619978  -8.6249986  30.0640384  40.3943708  -8.0684980
  35.2229992  38.6529978  -7.9089986  35.8259992  39.2009978  -8.4109986
  34.3529992  38.9719978  -8.1499986  35.1879157  38.7710373  -8.0102090
  36.9499992  39.7919978  -9.5759986  37.5609992  39.2779978 -10.1029986
  37.3319992  40.6689978  -9.5529986  37.0853305  39.8402050  -9.6450582
  22.4069992  39.1799978 -10.1999986  21.6299992  38.9449978 -10.7069986
  22.9369992  38.3829978 -10.1909986  22.3723451  39.0401268 -10.2681373
  21.2429992  38.9779978 -14.3959986  21.6819992  39.5889978 -14.9879986
  20.6089992  39.5159978 -13.9219986  21.2173859  39.1344064 -14.4129695
  26.9859992  39.1059978 -10.3869986  27.8599992  39.4949978 -10.4159986
  26.8499992  38.8909978  -9.4639986  27.0871953  39.1301643 -10.2662383
  32.5429992  39.1359978  -8.7369986  32.6189992  39.2319978  -9.6869986
  32.2679992  38.2289978  -8.6089986  32.5161871  39.0264146  -8.8496056
  33.8959992  39.1619978 -13.0449986  33.1929992  39.7769978 -13.2549986
  33.4509992  38.3249978 -12.9139986  33.7396550  39.1329668 -13.0560163
  21.1439992  54.9259978 -13.4989986  20.4589992  54.8879978 -14.1659986
  21.1479992  55.8389978 -13.2109986  21.0507621  55.0441924 -13.5513874
  23.1039992  40.8939978 -15.9539986  23.5949992  40.2639978 -16.4809986
  23.7269992  41.1899978 -15.2909986  23.2555304  40.8477376 -15.9365060
  28.1299992  41.1869978 -13.4969986  28.3079992  40.5399978 -12.8139986
  28.0759992  42.0209978 -13.0299986  28.1470678  41.2111604 -13.3403699
  30.0079992  56.1349978 -15.1009986  30.8739992  56.5019978 -15.2789986
  29.7619992  55.6959978 -15.9149986  30.0932097  56.1258525 -15.2353981
  36.7169992  55.6979978 -12.4219986  36.5229992  54.9499978 -12.9869986
  36.6779992  56.4559978 -13.0049986  36.6851645  55.6980786 -12.5781852
  22.3639992  39.6939978  -0.6819986  21.9979992  38.9279978  -0.2399986
  23.2769992  39.7229978  -0.3959986  22.4373172  39.5930324  -0.5828110
  24.3369992  39.0439978   0.8530014  25.2359992  38.7699978   0.6690014
  23.9509992  38.3019978   1.3180014  24.4077307  38.9062196   0.8907098
  22.9619992  55.8459978 -16.4739986  22.6939992  56.1319978 -15.5999986
  23.7329992  55.2999978 -16.3209986  23.0295926  55.8112779 -16.3338795
  32.7589992  38.3769978   1.0360014  32.8349992  37.9509978   1.8890014
  33.6519992  38.3899978   0.6930014  32.8902303  38.3203493   1.1065497
  35.9349992  54.4499978  -0.2719986  35.1529992  54.2629978  -0.7919986
  35.8629992  55.3789978  -0.0549986  35.8181924  54.5500637  -0.3138398
  50.3409992  48.3359978 -10.2409986  50.4299992  49.2799978 -10.3729986
  49.7029992  48.0609978 -10.8989986  50.2669062  48.4279812 -10.3480359
  49.2739992  47.5909978  -6.8219986  49.2359992  46.9449978  -6.1169986
  48.9519992  47.1239978  -7.5929986  49.2252679  47.4394276  -6.8297079
  41.6419992  47.2049978  -5.2289986  41.6839992  46.5799978  -4.5059986
  42.3449992  47.8289978  -5.0469986  41.7427345  47.2037873  -5.1054726
  52.9799992  50.5299978  -8.5209986  52.5389992  49.8099978  -8.0699986
  52.9669992  51.2509978  -7.8909986  52.9179215  50.5289291  -8.3741895
  42.5659992  51.6549978  -6.6939986  42.1959992  50.8529978  -7.0639986
  43.5069992  51.4869978  -6.6479986  42.6425984  51.5224638  -6.7384397
  39.1759992  45.3149978 -11.3019986  38.7279992  46.1609978 -11.3199986
  38.6149992  44.7359978 -11.8169986  39.0388546  45.3523993 -11.3741109
  39.8859992  47.4769978  -9.1759986  40.0999992  46.7069978  -8.6479986
  40.6239992  47.5669978  -9.7789986  40.0150200  47.3838587  -9.1852965
  50.0919992  55.6339978  -8.3089986  50.7109992  54.9579978  -8.5819986
  49.8829992  55.4159978  -7.3999986  50.1486056  55.5118869  -8.2236033
  47.6629992  50.0229978  -6.4159986  47.9669992  49.3369978  -7.0109986
  48.3849992  50.1419978  -5.7979986  47.8021240  49.9452314  -6.4139041
  56.3259992  41.6249978  -5.5559986  56.3759992  42.2349978  -4.8199986
  56.7519992  42.0859978  -6.2789986  56.3904108  41.7707709  -5.5529888
  50.8039992  44.4169978  -6.0889986  50.9469992  43.4709978  -6.0689986
  50.6979992  44.6239978  -7.0169986  50.8092403  44.3154797  -6.2117761
  43.9589992  42.5189978  -8.8159986  44.0019992  43.3789978  -9.2349986
  43.5009992  41.9669978  -9.4499986  43.9029871  42.5619245  -8.9589239
  51.6809992  42.6499978 -10.4149986  52.3279992  42.3209978  -9.7909986
  52.1909992  43.1669978 -11.0379986  51.8384351  42.6749067 -10.4138963
  40.5789992  44.9159978  -8.0539986  41.2329992  44.3659978  -7.6219986
  40.6029992  44.6419978  -8.9709986  40.6717199  44.8037167  -8.1188332
  45.7359992  46.4659978  -8.8389986  46.3519992  45.9389978  -8.3299986
  45.1489992  45.8259978  -9.2429986  45.7410154  46.3073954  -8.8239055
  56.7179992  43.1029978  -3.3199986  56.0289992  43.7609978  -3.4149986
  56.7329992  42.9049978  -2.3829986  56.6257756  43.1662603  -3.2064188
  42.7689992  41.4369978  -4.7419986  42.5499992  41.9669978  -5.5089986
  42.1009992  41.6629978  -4.0949986  42.6486975  41.5400967  -4.7594860
  50.1379992  50.9369978 -11.1979986  49.8429992  50.6139978 -12.0499986
  49.8139992  51.8369978 -11.1569986  50.0538460  51.0144464 -11.3090286
  45.3379992  49.1119978  -4.4549986  44.5979992  49.7109978  -4.3509986
  46.0519992  49.6659978  -4.7699986  45.3333500  49.2687829  -4.4833629
  53.4449992  41.9409978  -8.4349986  53.2299992  41.1749978  -7.9019986
  54.1009992  42.4129978  -7.9219986  53.5042673  41.9000728  -8.2928010
  42.3629992  43.3289978  -6.7899986  42.9769992  43.9619978  -6.4169986
  42.8749992  42.8569978  -7.4459986  42.5161962  43.3517249  -6.8277065
  43.7459992  51.0769978  -3.6679986  43.7399992  51.9559978  -4.0459986
  42.8919992  50.9929978  -3.2429986  43.6297925  51.1859535  -3.6623113
  39.8669992  50.7479978 -12.8859986  39.5949992  50.9769978 -13.7739986
  39.9119992  51.5849978 -12.4249986  39.8358097  50.8926163 -12.9453317
  53.4919992  52.3689978  -6.1729986  52.5499992  52.4279978  -6.0109986
  53.7679992  53.2749978  -6.3099986  53.4005865  52.4995288  -6.1693808
  53.7919992  40.6559978  -4.7559986  53.0559992  41.2659978  -4.7929986
  54.4759992  41.0709978  -5.2819986  53.7835367  40.7957551  -4.8321826
  46.7959992  38.7419978  -7.2899986  46.6779992  37.7939978  -7.3439986
  45.9409992  39.0749978  -7.0169986  46.6642805  38.6572202  -7.2604921
  51.7439992  54.1499978  -9.5479986  52.1689992  53.4429978 -10.0329986
  52.0609992  54.9519978  -9.9649986  51.8450266  54.1615190  -9.6707521
  52.9039992  52.0509978 -11.0389986  52.6459992  51.3609978 -11.6509986
  52.9749992  51.6079978 -10.1939986  52.8783050  51.8966814 -11.0084379
  54.5899992  50.6179978  -2.5619986  54.7289992  50.0259978  -3.3009986
  54.7569992  51.4909978  -2.9179986  54.6316193  50.6548896  -2.7113789
  49.0619992  47.5799978 -12.7889986  48.3509992  48.1149978 -13.1409986
  49.7529992  47.6349978 -13.4489986  49.0580751  47.6606777 -12.9264142
  49.1159992  46.0369978 -15.7509986  49.8169992  46.0599978 -15.0989986
  49.4179992  45.4089978 -16.4069986  49.2528202  45.9552212 -15.7504391
  56.4309992  46.9579978  -4.4959986  55.7789992  47.6519978  -4.4069986
  56.8969992  47.1679978  -5.3059986  56.4045937  47.0815019  -4.5932467
  52.4679992  47.7889978 -11.8379986  51.7359992  48.0179978 -11.2639986
  52.9149992  47.0759978 -11.3829986  52.4283963  47.7238729 -11.6980055
  52.3649992  45.9639978  -2.7699986  52.4449992  46.7269978  -2.1979986
  51.7639992  46.2429978  -3.4599986  52.2946547  46.1062457  -2.7849953
  44.1129992  48.4199978  -9.9549986  43.7829992  48.0489978 -10.7729986
  44.7019992  47.7489978  -9.6079986  44.1473970  48.2786063 -10.0200596
  45.4799992  51.8479978  -7.2739986  45.3849992  51.2689978  -8.0299986
  46.2089992  51.4769978  -6.7779986  45.5656011  51.7185561  -7.3103972
  44.4799992  47.1879978  -6.3219986  45.0449992  47.3099978  -7.0839986
  44.7989992  47.8259978  -5.6829986  44.6004166  47.2908791  -6.3399652
  50.7889992  52.6919978  -5.5879986  50.5489992  53.3539978  -4.9399986
  50.5909992  51.8569978  -5.1629986  50.7293826  52.6698115  -5.4418434
  45.3599992  51.5879978  -1.6039986  45.0489992  52.3699978  -1.1489986
  44.7099992  51.4349978  -2.2899986  45.2295538  51.6744087  -1.6344102
  51.3389992  46.9519978 -14.1519986  51.9179992  47.1019978 -13.4059986
  51.7529992  47.4219978 -14.8759986  51.4743358  47.0360955 -14.1476047
  42.2799992  47.7859978  -2.3759986  42.3499992  48.4369978  -1.6769986
  41.3889992  47.8889978  -2.7109986  42.1691690  47.8889249  -2.3256957
  49.0649992  53.6879978 -10.7169986  49.5389992  53.9839978  -9.9399986
  48.5019992  54.4269978 -10.9499986  49.0537890  53.8283036 -10.6421899
  43.5989992  53.6589978  -0.8409986  43.6069992  53.5229978  -1.7879986
  42.6829992  53.5419978  -0.5889986  43.4762528  53.6245463  -0.9366757
  55.0379992  38.7019978 -14.3389986  54.1379992  38.8409978 -14.0439986
  55.2899992  39.5329978 -14.7409986  54.9488683  38.8334055 -14.3529768
  43.1039992  47.4889978 -12.3659986  42.8119992  48.2569978 -12.8569986
  42.4289992  46.8299978 -12.5289986  42.9728497  47.5049745 -12.4551740
  56.2269992  53.0679978 -15.9629986  56.2999992  54.0069978 -15.7929986
  57.1319992  52.7629978 -16.0189986  56.3594170  53.1553282 -15.9472937
  39.1969992  49.8519978  -3.5509986  38.6949992  49.8239978  -4.3659986
  39.2019992  48.9469978  -3.2409986  39.1289832  49.7257486  -3.6205879
  38.9469992  52.6329978  -6.6669986  39.8929992  52.4879978  -6.6859986
  38.8339992  53.4169978  -6.1299986  39.0613578  52.7191697  -6.5969683
  57.1449992  53.2989978  -0.9839986  57.0949992  52.3429978  -1.0219986
  56.3179992  53.5659978  -0.5829986  57.0263831  53.2044680  -0.9349879
  48.1229992  52.8729978  -2.1079986  48.2109992  53.6989978  -1.6329986
  47.2599992  52.5429978  -1.8589986  48.0183357  52.9415468  -2.0092347
  48.5379992  56.6449978 -12.3019986  48.4619992  56.5239978 -13.2489986
  48.5699992  57.5939978 -12.1839986  48.5319380  56.7567677 -12.4154819
  42.1909992  55.4339978 -10.5209986  42.3429992  55.0859978  -9.6429986
  41.3399992  55.0769978 -10.7769986  42.0968344  55.3380879 -10.4353132
  51.6389992  55.7989978 -15.2999986  52.0139992  55.0549978 -15.7709986
  51.6439992  55.5289978 -14.3819986  51.6910098  55.6606392 -15.2403371
  51.3079992  55.7249978 -12.5509986  50.3729992  55.8249978 -12.3719986
  51.5879992  55.0149978 -11.9719986  51.2179471  55.6427933 -12.4483305
  54.2969992  44.7919978  -0.5039986  53.8889992  45.2719978  -1.2249986
  54.3369992  43.8859978  -0.8119986  54.2466221  44.7352449  -0.6441733
  41.4459992  51.1759978  -2.5079986  41.6619992  50.8139978  -1.6479986
  40.5899992  50.8009978  -2.7169986  41.3598810  51.0758837  -2.4187320
  44.0639992  39.6459978  -6.5119986  43.2029992  39.5589978  -6.9199986
  44.0419992  40.5019978  -6.0839986  43.9430491  39.7498003  -6.5100418
  48.7269992  39.3679978  -3.1369986  49.1469992  38.9529978  -2.3839986
  47.7939992  39.1889978  -3.0199986  48.6583736  39.2869910  -3.0181032
  52.0539992  43.1229978  -2.2839986  51.5399992  42.9979978  -1.4859986
  51.8979992  44.0359978  -2.5279986  51.9626967  43.2292123  -2.2079063
  52.8159992  47.9839978 -16.5229986  52.8579992  47.7619978 -17.4529986
  53.6649992  48.3829978 -16.3329986  52.9365253  48.0075498 -16.6246178
  48.3889992  41.8599978 -15.8519986  48.1349992  41.8789978 -14.9299986
  48.1319992  40.9889978 -16.1539986  48.3194508  41.7448280 -15.7665197
  44.1549992  44.6109978  -5.4169986  43.5139992  44.5709978  -4.7079986
  44.1929992  45.5379978  -5.6549986  44.0723010  44.7307668  -5.3520054
  44.1519992  44.8319978 -10.5049986  43.2599992  44.4919978 -10.5639986
  44.6029992  44.4549978 -11.2609986  44.0907642  44.7344910 -10.6152274
  49.6879992  45.2479978 -11.6879986  49.2789992  46.0629978 -11.9799986
  50.4079992  45.1079978 -12.3019986  49.7294439  45.3405372 -11.8109885
  48.7899992  45.4239978  -0.1999986  48.2269992  44.7189978   0.1210014
  49.6159992  45.3029978   0.2680014  48.8246674  45.3112165  -0.0928249
  50.6929992  44.6939978  -8.8739986  50.4969992  45.2999978  -9.5889986
  50.8739992  43.8609978  -9.3079986  50.6906584  44.6642513  -9.0305788
  41.9049992  44.9319978  -3.5499986  41.8669992  45.3319978  -2.6809986
  41.4149992  44.1149978  -3.4599986  41.8335330  44.8762674  -3.4188711
  45.2709992  42.3059978 -16.7509986  44.8399992  41.8609978 -16.0219986
  44.5529992  42.6769978 -17.2639986  45.1149176  42.2952051 -16.7205070
  38.5139992  42.0479978  -9.6989986  39.1439992  42.0189978  -8.9799986
  38.9629992  41.6229978 -10.4299986  38.6610835  41.9865660  -9.6992341
  39.7879992  42.7939978 -14.2749986  40.2619992  43.3849978 -14.8599986
  39.0699992  43.3239978 -13.9279986  39.7558640  42.9465511 -14.3082031
  49.9569992  46.3319978  -4.2029986  50.2799992  45.7009978  -4.8459986
  49.5159992  45.7979978  -3.5419986  49.9416379  46.1733468  -4.2017418
  46.7339992  42.2599978  -9.4189986  45.8229992  42.3169978  -9.1299986
  47.2389992  42.1999978  -8.6079986  46.6776873  42.2596826  -9.2698793
  41.5619992  43.8889978 -10.5919986  40.6729992  43.9879978 -10.9319986
  41.8589992  43.0469978 -10.9379986  41.4804177  43.7887687 -10.6853060
  45.2149992  43.8889978 -12.9349986  46.1469992  44.0179978 -12.7569986
  44.9999992  44.5579978 -13.5849986  45.3134472  43.9970806 -12.9985109
  51.1389992  41.4949978  -6.1539986  50.4619992  41.6259978  -5.4909986
  50.6539992  41.3399978  -6.9649986  50.9807405  41.4919947  -6.1727830
  43.8889992  45.0829978 -15.3689986  43.3469992  44.7039978 -16.0599986
  44.7229992  45.2779978 -15.7969986  43.9274390  45.0574079 -15.5215608
  54.4269992  57.1659978   0.1220014  54.6259992  57.5899978  -0.7119986
  55.0819992  57.5099978   0.7290014  54.5428522  57.2706301   0.0897852
  42.0249992  49.6399978  -0.2699986  42.7569992  49.8949978   0.2920014
  41.2439992  49.8449978   0.2460014  42.0196526  49.7025450  -0.1234824
  48.0539992  45.0469978  -7.5319986  48.6179992  44.5009978  -8.0789986
  47.9059992  44.5259978  -6.7429986  48.1113037  44.9016787  -7.5002771
  43.0559992  41.1839978 -11.1129986  42.7389992  40.2809978 -11.1489986
  43.8369992  41.1859978 -11.6659986  43.1182431  41.0607797 -11.1926898
  46.6799992  43.4359978  -5.1179986  45.8449992  43.8899978  -5.0069986
  47.2039992  43.7119978  -4.3659986  46.6366072  43.5353948  -5.0011864
  47.2249992  49.6489978 -13.4329986  46.4799992  49.1409978 -13.7549986
  47.0899992  49.6979978 -12.4869986  47.1048963  49.5861731 -13.3491174
  54.3749992  48.7819978  -4.6459986  55.0159992  49.2379978  -5.1899986
  53.5439992  48.8949978  -5.1089986  54.3505287  48.8596921  -4.7830113
  51.1219992  42.4629978 -15.2339986  50.1839992  42.5739978 -15.3849986
  51.4199992  43.3189978 -14.9269986  51.0336318  42.5940158 -15.2131855
  48.7439992  49.8329978  -2.1959986  48.3979992  49.4509978  -1.3889986
  48.5439992  50.7659978  -2.1249986  48.6695987  49.9069002  -2.0759539
  51.8409992  44.3299978 -13.5729986  52.7329992  44.1919978 -13.2539986
  51.8969992  45.1209978 -14.1099986  51.9707325  44.4179918 -13.6018783
  42.3489992  48.9439978  -7.6629986  43.0939992  48.9409978  -8.2649986
  42.4269992  48.1199978  -7.1819986  42.4613365  48.8322384  -7.6802570
  49.3499992  51.1069978 -14.4079986  49.0549992  51.9339978 -14.0259986
  48.6469992  50.4879978 -14.2109986  49.2146379  51.1364171 -14.3291346
  39.3569992  47.4039978  -2.3479986  39.5799992  46.9859978  -1.5169986
  38.7549992  46.7919978  -2.7709986  39.3061513  47.2639606  -2.2913260
  46.3739992  46.9209978  -0.1349986  46.0779992  46.7559978  -1.0309986
  47.3049992  46.7009978  -0.1459986  46.4594401  46.8686879  -0.2589794
  50.9939992  52.2949978  -2.2459986  50.0939992  52.4779978  -2.5129986
  51.0279992  52.5539978  -1.3249986  50.8753748  52.3550554  -2.1580836
  56.7259992  44.5389978 -13.8779986  56.1709992  44.1429978 -14.5509986
  56.8259992  45.4499978 -14.1559986  56.6636816  44.6079505 -14.0074967
  56.6889992  50.3399978  -1.0409986  55.8379992  50.5779978  -1.4089986
  57.2789992  50.3229978  -1.7939986  56.6523812  50.3702524  -1.1931547
  55.0209992  53.3249978 -13.4129986  54.6479992  52.4999978 -13.1039986
  55.2979992  53.1419978 -14.3109986  55.0073463  53.1872569 -13.4920475
  52.1809992  48.1329978  -6.3919986  51.2529992  47.9019978  -6.4189986
  52.6319992  47.3559978  -6.7219986  52.1148165  47.9962774  -6.4403210
  44.7239992  52.4619978 -10.2589986  45.2519992  53.2349978 -10.4589986
  43.8439992  52.6859978 -10.5609986  44.6773435  52.5982700 -10.3272690
  40.4789992  47.3239978 -15.6719986  41.0949992  47.9509978 -15.2919986
  39.6169992  47.6399978 -15.3999986  40.4467678  47.4524412 -15.5832791
  46.1519992  50.1249978 -10.6829986  45.9109992  51.0499978 -10.6409986
  45.4109992  49.6659978 -10.2859986  46.0189206  50.1895915 -10.6236231
  46.6659992  54.2739978  -4.3679986  47.0289992  55.1279978  -4.6009986
  47.1979992  53.9819978  -3.6269986  46.7875141  54.3513895  -4.2997903
  44.8349992  55.1459978 -11.1369986  43.8849992  55.2519978 -11.0859986
  45.1869992  55.9669978 -10.7929986  44.7525472  55.2714923 -11.0835148
  50.2099992  50.3729978  -4.6669986  49.7849992  50.1449978  -3.8409986
  50.7909992  49.6339978  -4.8489986  50.2303395  50.2419545  -4.5785586
  52.4129992  51.3019978 -15.5929986  52.7669992  50.9219978 -14.7889986
  51.4649992  51.2079978 -15.5059986  52.3332298  51.2372452 -15.4711313
  52.8689992  54.9249978  -2.1979986  52.2669992  54.3689978  -2.6929986
  53.1499992  55.5919978  -2.8239986  52.8245757  54.9390744  -2.3504325
  56.9169992  55.7809978 -15.3919986  57.6609992  56.3669978 -15.5319986
  56.2229992  56.3499978 -15.0589986  56.9249809  55.9380818 -15.3661410
  40.9909992  42.1579978  -2.7899986  40.0989992  42.4959978  -2.8579986
  40.8929992  41.3019978  -2.3719986  40.8554475  42.0886543  -2.7428296
  53.2789992  49.9739978 -13.3659986  53.0019992  49.2459978 -12.8099986
  54.2069992  50.0929978 -13.1609986  53.3664499  49.8904213 -13.2621956
  40.6429992  53.9619978  -4.3549986  40.8599992  53.0299978  -4.3859986
  40.8889992  54.2369978  -3.4719986  40.7059809  53.8715686  -4.2398309
  45.4409992  51.9839978 -14.6899986  45.5879992  51.4639978 -13.8999986
  45.4379992  52.8909978 -14.3829986  45.4607102  52.0353953 -14.5404075
  41.8939992  49.2359978 -14.1789986  41.2079992  49.5889978 -13.6119986
  42.4169992  49.9989978 -14.4259986  41.8708402  49.3873901 -14.1348199
  49.7259992  41.8989978  -3.8999986  50.4249992  41.9729978  -3.2499986
  49.3449992  41.0339978  -3.7459986  49.7702097  41.7922389  -3.7902003
  50.5099992  41.5509978 -12.8029986  50.7299992  42.0219978 -13.6069986
  51.0689992  41.9449978 -12.1329986  50.6156731  41.6687287 -12.8224967
  48.1789992  53.6809978 -13.9399986  47.3619992  54.1779978 -13.8879986
  48.7079992  54.1569978 -14.5809986  48.1388125  53.8131989 -14.0194694
  47.7099992  43.2789978 -11.9679986  48.5219992  43.7829978 -11.9219986
  47.4659992  43.1339978 -11.0539986  47.7881467  43.3283749 -11.8381425
  48.2459992  44.2649978  -2.7839986  48.3649992  44.8389978  -2.0269986
  48.9009992  43.5769978  -2.6689986  48.3508684  44.2505194  -2.6648326
  48.5939992  40.3599978 -11.0299986  48.2469992  40.9769978 -10.3859986
  49.2529992  40.8609978 -11.5119986  48.6355090  40.5121575 -11.0069319
  45.5169992  54.7249978 -13.9589986  45.6779992  55.5249978 -14.4589986
  45.3199992  55.0319978 -13.0739986  45.5123906  54.8758678 -13.9077667
  44.2519992  41.4229978 -14.3429986  44.1679992  42.3109978 -13.9959986
  45.1419992  41.1579978 -14.1109986  44.3608163  41.5087179 -14.2641404
  54.4499992  42.1719978  -1.9489986  53.5339992  42.4339978  -2.0359986
  54.7859992  42.1689978  -2.8449986  54.3698499  42.2075163  -2.0821234
  53.0529992  45.9219978  -7.8529986  52.2549992  45.5069978  -8.1809986
  53.4979992  45.2319978  -7.3619986  53.0039684  45.7718628  -7.8314773
  42.5099992  51.8499978 -15.2829986  43.1019992  52.5499978 -15.0059986
  42.9689992  51.4169978 -16.0019986  42.6531652  51.8872675 -15.3423467
  40.8259992  44.5149978 -16.1669986  40.7809992  45.4539978 -15.9879986
  39.9379992  44.2789978 -16.4359986  40.6998166  44.6116687 -16.1788476
  54.1389992  55.1779978  -6.2309986  53.9829992  55.8569978  -6.8879986
  55.0719992  55.2499978  -6.0279986  54.2437387  55.2806390  -6.2934658
  41.6339992  39.2959978  -7.4929986  41.4049992  39.3549978  -8.4209986
  41.1919992  38.5049978  -7.1869986  41.5428801  39.1970540  -7.5785271
  40.5649992  53.2369978 -11.3329986  39.7319992  53.7089978 -11.3059986
  41.1099992  53.7469978 -11.9319986  40.5247857  53.3704791 -11.4102858
  39.8529992  55.8489978  -0.0029986  40.3929992  55.6329978   0.7570014
  39.3719992  55.0439978  -0.1929986  39.8619219  55.7105156   0.0754282
  44.4499992  54.7689978   1.6170014  45.2179992  54.3099978   1.9580014
  44.4289992  54.5429978   0.6870014  44.5522135  54.6756668   1.5379491
  48.5419992  54.2769978 -17.0069986  47.8979992  53.6459978 -16.6859986
  49.3039992  53.7459978 -17.2389986  48.5568058  54.1187902 -16.9943962
  51.0269992  53.1489978   0.3460014  50.6759992  52.2919978   0.5900014
  51.7529992  53.2909978   0.9530014  51.0771895  53.0511351   0.4613770
  53.1469992  54.0939978 -16.7739986  53.4299992  53.2989978 -16.3209986
  53.8859992  54.3269978 -17.3349986  53.2857096  54.0167049 -16.7878896
  39.7599992  49.6599978   0.9510014  39.9039992  48.7579978   0.6650014
  38.9879992  49.9459978   0.4640014  39.6752733  49.5751798   0.8459532
  44.1009992  50.0029978 -16.9159986  44.1659992  49.2089978 -16.3859986
  44.7539992  49.8849978 -17.6059986  44.1981605  49.8783430 -16.9367003
  46.4149992  49.6289978   0.3840014  46.0869992  49.8999978  -0.4729986
  46.5669992  48.6879978   0.2960014  46.3906412  49.5389046   0.2547822
  52.1499992  49.5449978  -2.2329986  52.8949992  50.1339978  -2.3519986
  51.3929992  50.1269978  -2.1689986  52.1495470  49.7042128  -2.2406201
  40.5929992  46.8599978   0.3710014  41.0009992  46.0029978   0.2500014
  40.3319992  46.8739978   1.2920014  40.6136016  46.7445119   0.4789192
  45.2509992  47.9759978 -14.6099986  44.7909992  47.4919978 -13.9249986
  45.5059992  47.3069978 -15.2459986  45.2224856  47.8193669 -14.6021603
  44.5399992  45.8689978  -2.2539986  43.9209992  46.5429978  -1.9739986
  44.8839992  46.1899978  -3.0879986  44.5017123  46.0046887  -2.3283612
  46.3219992  46.2189978 -16.3479986  46.1409992  46.0639978 -17.2749986
  47.2719992  46.3269978 -16.3029986  46.4256566  46.2123669 -16.4689071
  49.5589992  48.3399978   1.0230014  50.5129992  48.4239978   0.9960014
  49.3989992  47.6279978   1.6430014  49.6677182  48.2552842   1.1030733
  55.7119992  48.5729978 -16.9019986  55.4379992  48.1489978 -17.7149986
  55.7509992  49.5049978 -17.1189986  55.6797716  48.6408827 -17.0425714
  44.8789992  43.2239978  -1.1719986  45.0289992  42.4949978  -1.7739986
  44.8809992  44.0009978  -1.7309986  44.8997967  43.2292708  -1.3299459
  45.2919992  41.5929978  -3.6789986  45.8269992  42.0449978  -4.3309986
  44.4389992  41.4849978  -4.1019986  45.2500374  41.6402665  -3.8253290
  46.8729992  47.0329978  -3.4399986  47.6239992  46.8769978  -4.0129986
  46.5339992  47.8849978  -3.7149986  46.9299587  47.1268138  -3.5555922
  51.2889992  44.8479978   1.5890014  51.4809992  43.9169978   1.4770014
  52.1469992  45.2729978   1.5780014  51.4312182  44.7780070   1.5721862
  52.6059992  47.6369978  -0.3339986  52.3239992  48.3459978  -0.9119986
  53.5479992  47.5639978  -0.4849986  52.6947921  47.7242193  -0.4335775
  43.3579992  44.4219978   0.7390014  42.5899992  43.8889978   0.5290014
  44.0359992  44.1119978   0.1400014  43.3447235  44.3071754   0.6292413
  46.0969992  39.0499978  -3.2479986  45.9989992  39.9959978  -3.3529986
  45.3549992  38.6769978  -3.7239986  45.9832534  39.1291773  -3.3267400
  47.3609992  43.3709978   0.3160014  47.1259992  43.1519978   1.2170014
  46.5779992  43.1639978  -0.1939986  47.2229095  43.3129892   0.3705353
  50.0769992  42.4989978  -0.6089986  49.1289992  42.5309978  -0.4769986
  50.3889992  41.8729978   0.0450014  49.9895293  42.4187923  -0.5025852
  51.7109992  41.1329978   1.3960014  51.6139992  40.1809978   1.3910014
  51.3889992  41.4009978   2.2570014  51.6542468  41.0390884   1.5116210
  41.5379992  42.3419978   0.4440014  41.7499992  41.6359978  -0.1659986
  41.4269992  41.9049978   1.2880014  41.5520269  42.1861921   0.4745873
  46.3189992  38.3439978  -0.5769986  47.0309992  37.7039978  -0.5909986
  46.2179992  38.6099978  -1.4899986  46.4027387  38.2924330  -0.7024437
  46.6729992  40.0259978   1.4770014  46.5409992  39.5509978   0.6570014
  46.0729992  40.7709978   1.4220014  46.5739070  40.0615789   1.3573251
  46.2189992  56.9089978 -15.3469986  47.1519992  57.0669978 -15.2029986
  45.9549992  57.5849978 -15.9719986  46.3109911  57.0219373 -15.4117278
  39.7869992  51.5459978 -15.8639986  40.7009992  51.6249978 -15.5909986
  39.7949992  50.8589978 -16.5299986  39.9130655  51.4639205 -15.9167083
  38.4359992  56.9389978 -10.7869986  37.7889992  56.4769978 -11.3189986
  38.7909992  56.2669978 -10.2039986  38.3953741  56.7849774 -10.7810825
  39.3059992  55.0189978  -8.9819986  38.9719992  54.1389978  -8.8099986
  39.5289992  55.3649978  -8.1169986  39.2903721  54.9451938  -8.8415832
  56.8549992  55.8289978  -6.0009986  56.8329992  56.0139978  -5.0619986
  57.5449992  56.3969978  -6.3419986  56.9453439  55.9311887  -5.9185209
  56.4179992  55.3959978  -3.0799986  55.9309992  54.6609978  -3.4509986
  56.9669992  55.0019978  -2.4019986  56.4255247  55.2421057  -3.0391539
  54.8689992  51.1859978   1.5590014  54.0029992  51.0809978   1.9530014
  55.2449992  51.9439978   2.0050014  54.8013401  51.2741708   1.6732620
  56.1699992  49.4419978 -12.9269986  57.0199992  49.8629978 -12.7999986
  56.1749992  48.7019978 -12.3199986  56.2871143  49.3996094 -12.8275250
  56.5639992  47.4959978 -11.1039986  55.8379992  47.0159978 -10.7059986
  57.1459992  47.7009978 -10.3709986  56.5432730  47.4580184 -10.9505851
  56.3229992  50.2809978  -6.1559986  57.1569992  49.9029978  -6.4369986
  56.4349992  51.2239978  -6.2749986  56.4521917  50.3567943  -6.2105139
  54.8099992  53.1589978  -3.8489986  54.1619992  53.4839978  -3.2239986
  54.2919992  52.7179978  -4.5229986  54.6514196  53.1438651  -3.8545848
  56.8329992  47.3969978 -14.7129986  56.3109992  47.7529978 -15.4309986
  56.7999992  48.0719978 -14.0339986  56.7570129  47.5369598 -14.7196645
  55.1819992  44.6359978 -16.1619986  55.2779992  45.3029978 -16.8419986
  55.0419992  43.8209978 -16.6429986  55.1762040  44.6170671 -16.3201622
  54.3509992  46.0169978 -10.5409986  54.2009992  45.0719978 -10.5609986
  53.9969992  46.2979978  -9.6969986  54.2826351  45.9256644 -10.4296780
  39.3859992  48.0949978  -6.5299986  39.5709992  48.0129978  -7.4659986
  40.2359992  47.9709978  -6.1069986  39.5260928  48.0670463  -6.6007107
  55.2069992  47.9869978  -0.9019986  55.7899992  47.2519978  -0.7099986
  55.7709992  48.7589978  -0.8549986  55.3629781  47.9908145  -0.8693836
  56.7039992  45.8899978  -0.2169986  55.8409992  45.5109978  -0.3829986
  57.3079992  45.1509978  -0.2919986  56.6676085  45.7383223  -0.2498305
  54.4289992  42.0439978 -17.0439986  55.0399992  41.6729978 -16.4069986
  53.5919992  41.6229978 -16.8479986  54.3994947  41.9362756 -16.9302748
  54.0619992  43.5989978 -12.0779986  54.3409992  42.6919978 -11.9539986
  54.8209992  44.0329978 -12.4669986  54.2028619  43.5334502 -12.1136205
  54.6729992  44.1809978  -6.6419986  55.6059992  44.3929978  -6.6769986
  54.4379992  44.2819978  -5.7199986  54.7689517  44.2236833  -6.5220870
  54.7029992  44.9179978  -3.8659986  53.8599992  45.1859978  -3.4999986
  55.1449992  45.7399978  -4.0769986  54.6474138  45.0658273  -3.8444482
  38.9839992  43.3649978  -0.3899986  39.9029992  43.2429978  -0.1529986
  38.5339992  42.6149978   0.0000014  39.0490087  43.2469608  -0.3048590
  56.9859992  38.8979978   1.4870014  57.3349992  38.2439978   0.8820014
  57.1329992  39.7349978   1.0470014  57.0536824  38.9216024   1.3446304
  54.6749992  40.8619978 -12.0299986  54.8569992  40.4129978 -11.2049986
  54.0749992  40.2779978 -12.4939986  54.6188187  40.7215552 -11.9797261
  40.2049992  41.6779978  -7.4979986  40.6499992  40.8859978  -7.1959986
  40.6709992  42.3939978  -7.0679986  40.3289718  41.6664534  -7.3984735
  38.5089992  44.6769978  -6.4289986  39.0009992  44.4559978  -7.2199986
  38.8709992  45.5169978  -6.1479986  38.6252923  44.7603468  -6.4992593
  56.5049992  41.0069978  -0.1639986  55.5879992  41.2779978  -0.1989986
  56.6279992  40.4719978  -0.9479986  56.3959672  40.9717885  -0.2748138
  56.5419992  40.9299978 -15.5019986  56.9539992  40.2089978 -15.9769986
  57.2229992  41.5989978 -15.4439986  56.6905536  40.9217766 -15.5591976
  38.8229992  40.9349978 -12.3749986  37.8979992  41.1429978 -12.5039986
  39.2769992  41.4189978 -13.0649986  38.7576298  41.0289299 -12.4859549
  53.5929992  55.9189978 -10.4289986  54.2459992  55.5709978 -11.0369986
  54.1039992  56.4069978  -9.7829986  53.7512777  55.9373815 -10.4247953
  38.7859992  39.6729978  -4.0309986  38.1209992  39.4269978  -3.3879986
  38.3429992  40.2949978  -4.6079986  38.6351168  39.7234214  -4.0210152
  40.9779992  52.8479978   0.1140014  40.1569992  53.0229978  -0.3469986
  40.7259992  52.7749978   1.0340014  40.8315594  52.8620717   0.1753611
  43.9319992  53.8219978  -3.6279986  43.5079992  54.6319978  -3.9099986
  44.8369992  53.9079978  -3.9299986  43.9962138  53.9444160  -3.7073585
  48.2439992  55.2209978  -0.6679986  48.4279992  54.8879978   0.2100014
  49.0899992  55.5309978  -0.9899986  48.3836484  55.2172979  -0.5912383
  50.5889992  56.5069978  -1.4239986  51.2659992  55.8739978  -1.6639986
  50.9099992  56.9079978  -0.6169986  50.7251323  56.4745691  -1.3476842
  55.5059992  39.0969978  -2.3449986  54.6929992  39.4219978  -2.7319986
  55.7389992  38.3359978  -2.8779986  55.4261347  39.0386880  -2.4700159
  41.3339992  57.0789978  -3.5799986  40.6139992  57.5189978  -4.0309986
  40.9689992  56.8279978  -2.7319986  41.1859643  57.1053369  -3.5270871
  43.8009992  56.6789978  -4.5499986  42.9369992  56.7509978  -4.1459986
  43.7459992  57.2259978  -5.3339986  43.6751942  56.7627849  -4.6006000
  48.5119992  56.5669978  -5.3749986  48.0549992  57.0959978  -6.0289986
  48.6749992  57.1699978  -4.6499986  48.4714960  56.7209280  -5.3664726
  50.8399992  55.4449978  -4.4299986  49.9349992  55.6099978  -4.6959986
  51.2679992  56.2979978  -4.4959986  50.7741537  55.5829134  -4.4752905
  53.4439992  57.0149978  -4.1349986  53.2619992  57.9309978  -4.3459986
  53.6209992  56.6039978  -4.9819986  53.4430030  57.0848273  -4.2782834
  40.7489992  55.7019978  -6.6699986  40.7309992  55.2759978  -5.8129986
  41.5539992  55.3829978  -7.0789986  40.8552875  55.6006435  -6.6080485
  42.8899992  54.4119978  -8.0149986  42.6709992  53.4949978  -7.8449986
  43.7139992  54.5519978  -7.5489986  42.9714702  54.3055511  -7.9287473
  45.4269992  54.8819978  -7.1659986  45.6399992  53.9939978  -7.4529986
  45.4919992  54.8469978  -6.2119986  45.4649149  54.7558326  -7.0762631
  48.9359992  40.5459978  -8.0219986  48.2619992  39.9159978  -7.7659986
  49.4999992  40.0619978  -8.6249986  48.9200384  40.3943708  -8.0684980
  54.0789992  38.6529978  -7.9089986  54.6819992  39.2009978  -8.4109986
  53.2089992  38.9719978  -8.1499986  54.0439157  38.7710373  -8.0102090
  55.8059992  39.7919978  -9.5759986  56.4169992  39.2779978 -10.1029986
  56.1879992  40.6689978  -9.5529986  55.9413305  39.8402050  -9.6450582
  41.2629992  39.1799978 -10.1999986  40.4859992  38.9449978 -10.7069986
  41.7929992  38.3829978 -10.1909986  41.2283451  39.0401268 -10.2681373
  40.0989992  38.9779978 -14.3959986  40.5379992  39.5889978 -14.9879986
  39.4649992  39.5159978 -13.9219986  40.0733859  39.1344064 -14.4129695
  45.8419992  39.1059978 -10.3869986  46.7159992  39.4949978 -10.4159986
  45.7059992  38.8909978  -9.4639986  45.9431953  39.1301643 -10.2662383
  51.3989992  39.1359978  -8.7369986  51.4749992  39.2319978  -9.6869986
  51.1239992  38.2289978  -8.6089986  51.3721871  39.0264146  -8.8496056
  52.7519992  39.1619978 -13.0449986  52.0489992  39.7769978 -13.2549986
  52.3069992  38.3249978 -12.9139986  52.5956550  39.1329668 -13.0560163
  39.9999992  54.9259978 -13.4989986  39.3149992  54.8879978 -14.1659986
  40.0039992  55.8389978 -13.2109986  39.9067621  55.0441924 -13.5513874
  41.9599992  40.8939978 -15.9539986  42.4509992  40.2639978 -16.4809986
  42.5829992  41.1899978 -15.2909986  42.1115304  40.8477376 -15.9365060
  46.9859992  41.1869978 -13.4969986  47.1639992  40.5399978 -12.8139986
  46.9319992  42.0209978 -13.0299986  47.0030678  41.2111604 -13.3403699
  48.8639992  56.1349978 -15.1009986  49.7299992  56.5019978 -15.2789986
  48.6179992  55.6959978 -15.9149986  48.9492097  56.1258525 -15.2353981
  55.5729992  55.6979978 -12.4219986  55.3789992  54.9499978 -12.9869986
  55.5339992  56.4559978 -13.0049986  55.5411645  55.6980786 -12.5781852
  41.2199992  39.6939978  -0.6819986  40.8539992  38.9279978  -0.2399986
  42.1329992  39.7229978  -0.3959986  41.2933172  39.5930324  -0.5828110
  43.1929992  39.0439978   0.8530014  44.0919992  38.7699978   0.6690014
  42.8069992  38.3019978   1.3180014  43.2637307  38.9062196   0.8907098
  41.8179992  55.8459978 -16.4739986  41.5499992  56.1319978 -15.5999986
  42.5889992  55.2999978 -16.3209986  41.8855926  55.8112779 -16.3338795
  51.6149992  38.3769978   1.0360014  51.6909992  37.9509978   1.8890014
  52.5079992  38.3899978   0.6930014  51.7462303  38.3203493   1.1065497
  54.7909992  54.4499978  -0.2719986  54.0089992  54.2629978  -0.7919986
  54.7189992  55.3789978  -0.0549986  54.6741924  54.5500637  -0.3138398
  69.1969992  48.3359978 -10.2409986  69.2859992  49.2799978 -10.3729986
  68.5589992  48.0609978 -10.8989986  69.1229062  48.4279812 -10.3480359
  68.1299992  47.5909978  -6.8219986  68.0919992  46.9449978  -6.1169986
  67.8079992  47.1239978  -7.5929986  68.0812679  47.4394276  -6.8297079
  60.4979992  47.2049978  -5.2289986  60.5399992  46.5799978  -4.5059986
  61.2009992  47.8289978  -5.0469986  60.5987345  47.2037873  -5.1054726
  71.8359992  50.5299978  -8.5209986  71.3949992  49.8099978  -8.0699986
  71.8229992  51.2509978  -7.8909986  71.7739215  50.5289291  -8.3741895
  61.4219992  51.6549978  -6.6939986  61.0519992  50.8529978  -7.0639986
  62.3629992  51.4869978  -6.6479986  61.4985984  51.5224638  -6.7384397
  58.0319992  45.3149978 -11.3019986  57.5839992  46.1609978 -11.3199986
  57.4709992  44.7359978 -11.8169986  57.8948546  45.3523993 -11.3741109
  58.7419992  47.4769978  -9.1759986  58.9559992  46.7069978  -8.6479986
  59.4799992  47.5669978  -9.7789986  58.8710200  47.3838586  -9.1852965
  68.9479992  55.6339978  -8.3089986  69.5669992  54.9579978  -8.5819986
  68.7389992  55.4159978  -7.3999986  69.0046056  55.5118869  -8.2236033
  66.5189992  50.0229978  -6.4159986  66.8229992  49.3369978  -7.0109986
  67.2409992  50.1419978  -5.7979986  66.6581240  49.9452314  -6.4139041
  75.1819992  41.6249978  -5.5559986  75.2319992  42.2349978  -4.8199986
  75.6079992  42.0859978  -6.2789986  75.2464108  41.7707709  -5.5529888
  69.6599992  44.4169978  -6.0889986  69.8029992  43.4709978  -6.0689986
  69.5539992  44.6239978  -7.0169986  69.6652403  44.3154797  -6.2117761
  62.8149992  42.5189978  -8.8159986  62.8579992  43.3789978  -9.2349986
  62.3569992  41.9669978  -9.4499986  62.7589871  42.5619245  -8.9589239
  70.5369992  42.6499978 -10.4149986  71.1839992  42.3209978  -9.7909986
  71.0469992  43.1669978 -11.0379986  70.6944351  42.6749067 -10.4138963
  59.4349992  44.9159978  -8.0539986  60.0889992  44.3659978  -7.6219986
  59.4589992  44.6419978  -8.9709986  59.5277199  44.8037167  -8.1188332
  64.5919992  46.4659978  -8.8389986  65.2079992  45.9389978  -8.3299986
  64.0049992  45.8259978  -9.2429986  64.5970154  46.3073954  -8.8239055
  75.5739992  43.1029978  -3.3199986  74.8849992  43.7609978  -3.4149986
  75.5889992  42.9049978  -2.3829986  75.4817756  43.1662603  -3.2064188
  61.6249992  41.4369978  -4.7419986  61.4059992  41.9669978  -5.5089986
  60.9569992  41.6629978  -4.0949986  61.5046975  41.5400967  -4.7594860
  68.9939992  50.9369978 -11.1979986  68.6989992  50.6139978 -12.0499986
  68.6699992  51.8369978 -11.1569986  68.9098460  51.0144464 -11.3090286
  64.1939992  49.1119978  -4.4549986  63.4539992  49.7109978  -4.3509986
  64.9079992  49.6659978  -4.7699986  64.1893500  49.2687829  -4.4833629
  72.3009992  41.9409978  -8.4349986  72.0859992  41.1749978  -7.9019986
  72.9569992  42.4129978  -7.9219986  72.3602673  41.9000728  -8.2928010
  61.2189992  43.3289978  -6.7899986  61.8329992  43.9619978  -6.4169986
  61.7309992  42.8569978  -7.4459986  61.3721962  43.3517249  -6.8277065
  62.6019992  51.0769978  -3.6679986  62.5959992  51.9559978  -4.0459986
  61.7479992  50.9929978  -3.2429986  62.4857925  51.1859535  -3.6623113
  58.7229992  50.7479978 -12.8859986  58.4509992  50.9769978 -13.7739986
  58.7679992  51.5849978 -12.4249986  58.6918097  50.8926163 -12.9453317
  72.3479992  52.3689978  -6.1729986  71.4059992  52.4279978  -6.0109986
  72.6239992  53.2749978  -6.3099986  72.2565865  52.4995288  -6.1693808
  72.6479992  40.6559978  -4.7559986  71.9119992  41.2659978  -4.7929986
  73.3319992  41.0709978  -5.2819986  72.6395367  40.7957551  -4.8321826
  65.6519992  38.7419978  -7.2899986  65.5339992  37.7939978  -7.3439986
  64.7969992  39.0749978  -7.0169986  65.5202805  38.6572202  -7.2604921
  70.5999992  54.1499978  -9.5479986  71.0249992  53.4429978 -10.0329986
  70.9169992  54.9519978  -9.9649986  70.7010266  54.1615190  -9.6707521
  71.7599992  52.0509978 -11.0389986  71.5019992  51.3609978 -11.6509986
  71.8309992  51.6079978 -10.1939986  71.7343050  51.8966814 -11.0084379
  73.4459992  50.6179978  -2.5619986  73.5849992  50.0259978  -3.3009986
  73.6129992  51.4909978  -2.9179986  73.4876193  50.6548896  -2.7113789
  67.9179992  47.5799978 -12.7889986  67.2069992  48.1149978 -13.1409986
  68.6089992  47.6349978 -13.4489986  67.9140751  47.6606777 -12.9264142
  67.9719992  46.0369978 -15.7509986  68.6729992  46.0599978 -15.0989986
  68.2739992  45.4089978 -16.4069986  68.1088202  45.9552212 -15.7504391
  75.2869992  46.9579978  -4.4959986  74.6349992  47.6519978  -4.4069986
  75.7529992  47.1679978  -5.3059986  75.2605937  47.0815019  -4.5932467
  71.3239992  47.7889978 -11.8379986  70.5919992  48.0179978 -11.2639986
  71.7709992  47.0759978 -11.3829986  71.2843963  47.7238729 -11.6980055
  71.2209992  45.9639978  -2.7699986  71.3009992  46.7269978  -2.1979986
  70.6199992  46.2429978  -3.4599986  71.1506547  46.1062457  -2.7849953
  62.9689992  48.4199978  -9.9549986  62.6389992  48.0489978 -10.7729986
  63.5579992  47.7489978  -9.6079986  63.0033970  48.2786063 -10.0200596
  64.3359992  51.8479978  -7.2739986  64.2409992  51.2689978  -8.0299986
  65.0649992  51.4769978  -6.7779986  64.4216011  51.7185561  -7.3103972
  63.3359992  47.1879978  -6.3219986  63.9009992  47.3099978  -7.0839986
  63.6549992  47.8259978  -5.6829986  63.4564166  47.2908791  -6.3399652
  69.6449992  52.6919978  -5.5879986  69.4049992  53.3539978  -4.9399986
  69.4469992  51.8569978  -5.1629986  69.5853826  52.6698115  -5.4418434
  64.2159992  51.5879978  -1.6039986  63.9049992  52.3699978  -1.1489986
  63.5659992  51.4349978  -2.2899986  64.0855538  51.6744087  -1.6344102
  70.1949992  46.9519978 -14.1519986  70.7739992  47.1019978 -13.4059986
  70.6089992  47.4219978 -14.8759986  70.3303358  47.0360954 -14.1476047
  61.1359992  47.7859978  -2.3759986  61.2059992  48.4369978  -1.6769986
  60.2449992  47.8889978  -2.7109986  61.0251690  47.8889249  -2.3256957
  67.9209992  53.6879978 -10.7169986  68.3949992  53.9839978  -9.9399986
  67.3579992  54.4269978 -10.9499986  67.9097890  53.8283036 -10.6421899
  62.4549992  53.6589978  -0.8409986  62.4629992  53.5229978  -1.7879986
  61.5389992  53.5419978  -0.5889986  62.3322528  53.6245463  -0.9366757
  73.8939992  38.7019978 -14.3389986  72.9939992  38.8409978 -14.0439986
  74.1459992  39.5329978 -14.7409986  73.8048683  38.8334055 -14.3529768
  61.9599992  47.4889978 -12.3659986  61.6679992  48.2569978 -12.8569986
  61.2849992  46.8299978 -12.5289986  61.8288497  47.5049745 -12.4551740
  75.0829992  53.0679978 -15.9629986  75.1559992  54.0069978 -15.7929986
  75.9879992  52.7629978 -16.0189986  75.2154170  53.1553282 -15.9472937
  58.0529992  49.8519978  -3.5509986  57.5509992  49.8239978  -4.3659986
  58.0579992  48.9469978  -3.2409986  57.9849832  49.7257486  -3.6205879
  57.8029992  52.6329978  -6.6669986  58.7489992  52.4879978  -6.6859986
  57.6899992  53.4169978  -6.1299986  57.9173578  52.7191697  -6.5969683
  76.0009992  53.2989978  -0.9839986  75.9509992  52.3429978  -1.0219986
  75.1739992  53.5659978  -0.5829986  75.8823831  53.2044680  -0.9349879
  66.9789992  52.8729978  -2.1079986  67.0669992  53.6989978  -1.6329986
  66.1159992  52.5429978  -1.8589986  66.8743357  52.9415468  -2.0092347
  67.3939992  56.6449978 -12.3019986  67.3179992  56.5239978 -13.2489986
  67.4259992  57.5939978 -12.1839986  67.3879380  56.7567677 -12.4154819
  61.0469992  55.4339978 -10.5209986  61.1989992  55.0859978  -9.6429986
  60.1959992  55.0769978 -10.7769986  60.9528344  55.3380879 -10.4353132
  70.4949992  55.7989978 -15.2999986  70.8699992  55.0549978 -15.7709986
  70.4999992  55.5289978 -14.3819986  70.5470098  55.6606392 -15.2403371
  70.1639992  55.7249978 -12.5509986  69.2289992  55.8249978 -12.3719986
  70.4439992  55.0149978 -11.9719986  70.0739471  55.6427933 -12.4483305
  73.1529992  44.7919978  -0.5039986  72.7449992  45.2719978  -1.2249986
  73.1929992  43.8859978  -0.8119986  73.1026221  44.7352449  -0.6441733
  60.3019992  51.1759978  -2.5079986  60.5179992  50.8139978  -1.6479986
  59.4459992  50.8009978  -2.7169986  60.2158810  51.0758837  -2.4187320
  62.9199992  39.6459978  -6.5119986  62.0589992  39.5589978  -6.9199986
  62.8979992  40.5019978  -6.0839986  62.7990491  39.7498003  -6.5100418
  67.5829992  39.3679978  -3.1369986  68.0029992  38.9529978  -2.3839986
  66.6499992  39.1889978  -3.0199986  67.5143736  39.2869910  -3.0181032
  70.9099992  43.1229978  -2.2839986  70.3959992  42.9979978  -1.4859986
  70.7539992  44.0359978  -2.5279986  70.8186967  43.2292123  -2.2079063
  71.6719992  47.9839978 -16.5229986  71.7139992  47.7619978 -17.4529986
  72.5209992  48.3829978 -16.3329986  71.7925253  48.0075498 -16.6246178
  67.2449992  41.8599978 -15.8519986  66.9909992  41.8789978 -14.9299986
  66.9879992  40.9889978 -16.1539986  67.1754508  41.7448280 -15.7665197
  63.0109992  44.6109978  -5.4169986  62.3699992  44.5709978  -4.7079986
  63.0489992  45.5379978  -5.6549986  62.9283010  44.7307668  -5.3520054
  63.0079992  44.8319978 -10.5049986  62.1159992  44.4919978 -10.5639986
  63.4589992  44.4549978 -11.2609986  62.9467642  44.7344910 -10.6152274
  68.5439992  45.2479978 -11.6879986  68.1349992  46.0629978 -11.9799986
  69.2639992  45.1079978 -12.3019986  68.5854439  45.3405372 -11.8109885
  67.6459992  45.4239978  -0.1999986  67.0829992  44.7189978   0.1210014
  68.4719992  45.3029978   0.2680014  67.6806674  45.3112165  -0.0928249
  69.5489992  44.6939978  -8.8739986  69.3529992  45.2999978  -9.5889986
  69.7299992  43.8609978  -9.3079986  69.5466584  44.6642513  -9.0305788
  60.7609992  44.9319978  -3.5499986  60.7229992  45.3319978  -2.6809986
  60.2709992  44.1149978  -3.4599986  60.6895330  44.8762674  -3.4188711
  64.1269992  42.3059978 -16.7509986  63.6959992  41.8609978 -16.0219986
  63.4089992  42.6769978 -17.2639986  63.9709176  42.2952051 -16.7205070
  57.3699992  42.0479978  -9.6989986  57.9999992  42.0189978  -8.9799986
  57.8189992  41.6229978 -10.4299986  57.5170835  41.9865660  -9.6992341
  58.6439992  42.7939978 -14.2749986  59.1179992  43.3849978 -14.8599986
  57.9259992  43.3239978 -13.9279986  58.6118640  42.9465511 -14.3082031
  68.8129992  46.3319978  -4.2029986  69.1359992  45.7009978  -4.8459986
  68.3719992  45.7979978  -3.5419986  68.7976379  46.1733468  -4.2017418
  65.5899992  42.2599978  -9.4189986  64.6789992  42.3169978  -9.1299986
  66.0949992  42.1999978  -8.6079986  65.5336873  42.2596826  -9.2698793
  60.4179992  43.8889978 -10.5919986  59.5289992  43.9879978 -10.9319986
  60.7149992  43.0469978 -10.9379986  60.3364177  43.7887687 -10.6853060
  64.0709992  43.8889978 -12.9349986  65.0029992  44.0179978 -12.7569986
  63.8559992  44.5579978 -13.5849986  64.1694472  43.9970806 -12.9985109
  69.9949992  41.4949978  -6.1539986  69.3179992  41.6259978  -5.4909986
  69.5099992  41.3399978  -6.9649986  69.8367405  41.4919947  -6.1727830
  62.7449992  45.0829978 -15.3689986  62.2029992  44.7039978 -16.0599986
  63.5789992  45.2779978 -15.7969986  62.7834390  45.0574079 -15.5215608
  73.2829992  57.1659978   0.1220014  73.4819992  57.5899978  -0.7119986
  73.9379992  57.5099978   0.7290014  73.3988522  57.2706301   0.0897852
  60.8809992  49.6399978  -0.2699986  61.6129992  49.8949978   0.2920014
  60.0999992  49.8449978   0.2460014  60.8756526  49.7025450  -0.1234824
  66.9099992  45.0469978  -7.5319986  67.4739992  44.5009978  -8.0789986
  66.7619992  44.5259978  -6.7429986  66.9673037  44.9016787  -7.5002771
  61.9119992  41.1839978 -11.1129986  61.5949992  40.2809978 -11.1489986
  62.6929992  41.1859978 -11.6659986  61.9742431  41.0607797 -11.1926898
  65.5359992  43.4359978  -5.1179986  64.7009992  43.8899978  -5.0069986
  66.0599992  43.7119978  -4.3659986  65.4926072  43.5353948  -5.0011864
  66.0809992  49.6489978 -13.4329986  65.3359992  49.1409978 -13.7549986
  65.9459992  49.6979978 -12.4869986  65.9608963  49.5861731 -13.3491174
  73.2309992  48.7819978  -4.6459986  73.8719992  49.2379978  -5.1899986
  72.3999992  48.8949978  -5.1089986  73.2065287  48.8596921  -4.7830113
  69.9779992  42.4629978 -15.2339986  69.0399992  42.5739978 -15.3849986
  70.2759992  43.3189978 -14.9269986  69.8896318  42.5940158 -15.2131855
  67.5999992  49.8329978  -2.1959986  67.2539992  49.4509978  -1.3889986
  67.3999992  50.7659978  -2.1249986  67.5255987  49.9069002  -2.0759539
  70.6969992  44.3299978 -13.5729986  71.5889992  44.1919978 -13.2539986
  70.7529992  45.1209978 -14.1099986  70.8267325  44.4179918 -13.6018783
  61.2049992  48.9439978  -7.6629986  61.9499992  48.9409978  -8.2649986
  61.2829992  48.1199978  -7.1819986  61.3173365  48.8322384  -7.6802570
  68.2059992  51.1069978 -14.4079986  67.9109992  51.9339978 -14.0259986
  67.5029992  50.4879978 -14.2109986  68.0706379  51.1364171 -14.3291346
  58.2129992  47.4039978  -2.3479986  58.4359992  46.9859978  -1.5169986
  57.6109992  46.7919978  -2.7709986  58.1621513  47.2639606  -2.2913260
  65.2299992  46.9209978  -0.1349986  64.9339992  46.7559978  -1.0309986
  66.1609992  46.7009978  -0.1459986  65.3154401  46.8686879  -0.2589794
  69.8499992  52.2949978  -2.2459986  68.9499992  52.4779978  -2.5129986
  69.8839992  52.5539978  -1.3249986  69.7313748  52.3550554  -2.1580836
  75.5819992  44.5389978 -13.8779986  75.0269992  44.1429978 -14.5509986
  75.6819992  45.4499978 -14.1559986  75.5196816  44.6079505 -14.0074967
  75.5449992  50.3399978  -1.0409986  74.6939992  50.5779978  -1.4089986
  76.1349992  50.3229978  -1.7939986  75.5083812  50.3702524  -1.1931547
  73.8769992  53.3249978 -13.4129986  73.5039992  52.4999978 -13.1039986
  74.1539992  53.1419978 -14.3109986  73.8633463  53.1872569 -13.4920475
  71.0369992  48.1329978  -6.3919986  70.1089992  47.9019978  -6.4189986
  71.4879992  47.3559978  -6.7219986  70.9708165  47.9962774  -6.4403210
  63.5799992  52.4619978 -10.2589986  64.1079992  53.2349978 -10.4589986
  62.6999992  52.6859978 -10.5609986  63.5333435  52.5982700 -10.3272690
  59.3349992  47.3239978 -15.6719986  59.9509992  47.9509978 -15.2919986
  58.4729992  47.6399978 -15.3999986  59.3027678  47.4524412 -15.5832791
  65.0079992  50.1249978 -10.6829986  64.7669992  51.0499978 -10.6409986
  64.2669992  49.6659978 -10.2859986  64.8749206  50.1895915 -10.6236231
  65.5219992  54.2739978  -4.3679986  65.8849992  55.1279978  -4.6009986
  66.0539992  53.9819978  -3.6269986  65.6435141  54.3513895  -4.2997903
  63.6909992  55.1459978 -11.1369986  62.7409992  55.2519978 -11.0859986
  64.0429992  55.9669978 -10.7929986  63.6085472  55.2714923 -11.0835148
  69.0659992  50.3729978  -4.6669986  68.6409992  50.1449978  -3.8409986
  69.6469992  49.6339978  -4.8489986  69.0863395  50.2419545  -4.5785586
  71.2689992  51.3019978 -15.5929986  71.6229992  50.9219978 -14.7889986
  70.3209992  51.2079978 -15.5059986  71.1892298  51.2372452 -15.4711313
  71.7249992  54.9249978  -2.1979986  71.1229992  54.3689978  -2.6929986
  72.0059992  55.5919978  -2.8239986  71.6805757  54.9390744  -2.3504325
  75.7729992  55.7809978 -15.3919986  76.5169992  56.3669978 -15.5319986
  75.0789992  56.3499978 -15.0589986  75.7809809  55.9380818 -15.3661410
  59.8469992  42.1579978  -2.7899986  58.9549992  42.4959978  -2.8579986
  59.7489992  41.3019978  -2.3719986  59.7114475  42.0886543  -2.7428296
  72.1349992  49.9739978 -13.3659986  71.8579992  49.2459978 -12.8099986
  73.0629992  50.0929978 -13.1609986  72.2224499  49.8904213 -13.2621956
  59.4989992  53.9619978  -4.3549986  59.7159992  53.0299978  -4.3859986
  59.7449992  54.2369978  -3.4719986  59.5619809  53.8715686  -4.2398309
  64.2969992  51.9839978 -14.6899986  64.4439992  51.4639978 -13.8999986
  64.2939992  52.8909978 -14.3829986  64.3167102  52.0353953 -14.5404075
  60.7499992  49.2359978 -14.1789986  60.0639992  49.5889978 -13.6119986
  61.2729992  49.9989978 -14.4259986  60.7268402  49.3873901 -14.1348199
  68.5819992  41.8989978  -3.8999986  69.2809992  41.9729978  -3.2499986
  68.2009992  41.0339978  -3.7459986  68.6262097  41.7922389  -3.7902003
  69.3659992  41.5509978 -12.8029986  69.5859992  42.0219978 -13.6069986
  69.9249992  41.9449978 -12.1329986  69.4716731  41.6687287 -12.8224967
  67.0349992  53.6809978 -13.9399986  66.2179992  54.1779978 -13.8879986
  67.5639992  54.1569978 -14.5809986  66.9948125  53.8131989 -14.0194694
  66.5659992  43.2789978 -11.9679986  67.3779992  43.7829978 -11.9219986
  66.3219992  43.1339978 -11.0539986  66.6441467  43.3283749 -11.8381425
  67.1019992  44.2649978  -2.7839986  67.2209992  44.8389978  -2.0269986
  67.7569992  43.5769978  -2.6689986  67.2068684  44.2505194  -2.6648326
  67.4499992  40.3599978 -11.0299986  67.1029992  40.9769978 -10.3859986
  68.1089992  40.8609978 -11.5119986  67.4915090  40.5121575 -11.0069319
  64.3729992  54.7249978 -13.9589986  64.5339992  55.5249978 -14.4589986
  64.1759992  55.0319978 -13.0739986  64.3683906  54.8758678 -13.9077667
  63.1079992  41.4229978 -14.3429986  63.0239992  42.3109978 -13.9959986
  63.9979992  41.1579978 -14.1109986  63.2168163  41.5087179 -14.2641404
  73.3059992  42.1719978  -1.9489986  72.3899992  42.4339978  -2.0359986
  73.6419992  42.1689978  -2.8449986  73.2258499  42.2075163  -2.0821234
  71.9089992  45.9219978  -7.8529986  71.1109992  45.5069978  -8.1809986
  72.3539992  45.2319978  -7.3619986  71.8599684  45.7718628  -7.8314773
  61.3659992  51.8499978 -15.2829986  61.9579992  52.5499978 -15.0059986
  61.8249992  51.4169978 -16.0019986  61.5091652  51.8872675 -15.3423467
  59.6819992  44.5149978 -16.1669986  59.6369992  45.4539978 -15.9879986
  58.7939992  44.2789978 -16.4359986  59.5558166  44.6116687 -16.1788476
  72.9949992  55.1779978  -6.2309986  72.8389992  55.8569978  -6.8879986
  73.9279992  55.2499978  -6.0279986  73.0997387  55.2806390  -6.2934658
  60.4899992  39.2959978  -7.4929986  60.2609992  39.3549978  -8.4209986
  60.0479992  38.5049978  -7.1869986  60.3988801  39.1970540  -7.5785271
  59.4209992  53.2369978 -11.3329986  58.5879992  53.7089978 -11.3059986
  59.9659992  53.7469978 -11.9319986  59.3807857  53.3704791 -11.4102858
  58.7089992  55.8489978  -0.0029986  59.2489992  55.6329978   0.7570014
  58.2279992  55.0439978  -0.1929986  58.7179219  55.7105156   0.0754282
  63.3059992  54.7689978   1.6170014  64.0739992  54.3099978   1.9580014
  63.2849992  54.5429978   0.6870014  63.4082135  54.6756668   1.5379491
  67.3979992  54.2769978 -17.0069986  66.7539992  53.6459978 -16.6859986
  68.1599992  53.7459978 -17.2389986  67.4128058  54.1187902 -16.9943962
  69.8829992  53.1489978   0.3460014  69.5319992  52.2919978   0.5900014
  70.6089992  53.2909978   0.9530014  69.9331895  53.0511351   0.4613770
  72.0029992  54.0939978 -16.7739986  72.2859992  53.2989978 -16.3209986
  72.7419992  54.3269978 -17.3349986  72.1417096  54.0167049 -16.7878896
  58.6159992  49.6599978   0.9510014  58.7599992  48.7579978   0.6650014
  57.8439992  49.9459978   0.4640014  58.5312733  49.5751798   0.8459532
  62.9569992  50.0029978 -16.9159986  63.0219992  49.2089978 -16.3859986
  63.6099992  49.8849978 -17.6059986  63.0541605  49.8783430 -16.9367003
  65.2709992  49.6289978   0.3840014  64.9429992  49.8999978  -0.4729986
  65.4229992  48.6879978   0.2960014  65.2466412  49.5389046   0.2547822
  71.0059992  49.5449978  -2.2329986  71.7509992  50.1339978  -2.3519986
  70.2489992  50.1269978  -2.1689986  71.0055470  49.7042128  -2.2406201
  59.4489992  46.8599978   0.3710014  59.8569992  46.0029978   0.2500014
  59.1879992  46.8739978   1.2920014  59.4696016  46.7445119   0.4789192
  64.1069992  47.9759978 -14.6099986  63.6469992  47.4919978 -13.9249986
  64.3619992  47.3069978 -15.2459986  64.0784856  47.8193669 -14.6021603
  63.3959992  45.8689978  -2.2539986  62.7769992  46.5429978  -1.9739986
  63.7399992  46.1899978  -3.0879986  63.3577123  46.0046887  -2.3283612
  65.1779992  46.2189978 -16.3479986  64.9969992  46.0639978 -17.2749986
  66.1279992  46.3269978 -16.3029986  65.2816566  46.2123669 -16.4689071
  68.4149992  48.3399978   1.0230014  69.3689992  48.4239978   0.9960014
  68.2549992  47.6279978   1.6430014  68.5237182  48.2552842   1.1030733
  74.5679992  48.5729978 -16.9019986  74.2939992  48.1489978 -17.7149986
  74.6069992  49.5049978 -17.1189986  74.5357716  48.6408827 -17.0425714
  63.7349992  43.2239978  -1.1719986  63.8849992  42.4949978  -1.7739986
  63.7369992  44.0009978  -1.7309986  63.7557967  43.2292708  -1.3299459
  64.1479992  41.5929978  -3.6789986  64.6829992  42.0449978  -4.3309986
  63.2949992  41.4849978  -4.1019986  64.1060374  41.6402665  -3.8253290
  65.7289992  47.0329978  -3.4399986  66.4799992  46.8769978  -4.0129986
  65.3899992  47.8849978  -3.7149986  65.7859587  47.1268138  -3.5555922
  70.1449992  44.8479978   1.5890014  70.3369992  43.9169978   1.4770014
  71.0029992  45.2729978   1.5780014  70.2872182  44.7780070   1.5721862
  71.4619992  47.6369978  -0.3339986  71.1799992  48.3459978  -0.9119986
  72.4039992  47.5639978  -0.4849986  71.5507921  47.7242193  -0.4335775
  62.2139992  44.4219978   0.7390014  61.4459992  43.8889978   0.5290014
  62.8919992  44.1119978   0.1400014  62.2007235  44.3071754   0.6292413
  64.9529992  39.0499978  -3.2479986  64.8549992  39.9959978  -3.3529986
  64.2109992  38.6769978  -3.7239986  64.8392534  39.1291773  -3.3267400
  66.2169992  43.3709978   0.3160014  65.9819992  43.1519978   1.2170014
  65.4339992  43.1639978  -0.1939986  66.0789095  43.3129892   0.3705353
  68.9329992  42.4989978  -0.6089986  67.9849992  42.5309978  -0.4769986
  69.2449992  41.8729978   0.0450014  68.8455293  42.4187923  -0.5025852
  70.5669992  41.1329978   1.3960014  70.4699992  40.1809978   1.3910014
  70.2449992  41.4009978   2.2570014  70.5102468  41.0390884   1.5116210
  60.3939992  42.3419978   0.4440014  60.6059992  41.6359978  -0.1659986
  60.2829992  41.9049978   1.2880014  60.4080269  42.1861921   0.4745873
  65.1749992  38.3439978  -0.5769986  65.8869992  37.7039978  -0.5909986
  65.0739992  38.6099978  -1.4899986  65.2587387  38.2924330  -0.7024437
  65.5289992  40.0259978   1.4770014  65.3969992  39.5509978   0.6570014
  64.9289992  40.7709978   1.4220014  65.4299070  40.0615789   1.3573251
  65.0749992  56.9089978 -15.3469986  66.0079992  57.0669978 -15.2029986
  64.8109992  57.5849978 -15.9719986  65.1669911  57.0219373 -15.4117278
  58.6429992  51.5459978 -15.8639986  59.5569992  51.6249978 -15.5909986
  58.6509992  50.8589978 -16.5299986  58.7690655  51.4639205 -15.9167083
  57.2919992  56.9389978 -10.7869986  56.6449992  56.4769978 -11.3189986
  57.6469992  56.2669978 -10.2039986  57.2513741  56.7849774 -10.7810825
  58.1619992  55.0189978  -8.9819986  57.8279992  54.1389978  -8.8099986
  58.3849992  55.3649978  -8.1169986  58.1463721  54.9451938  -8.8415832
  75.7109992  55.8289978  -6.0009986  75.6889992  56.0139978  -5.0619986
  76.4009992  56.3969978  -6.3419986  75.8013439  55.9311887  -5.9185209
  75.2739992  55.3959978  -3.0799986  74.7869992  54.6609978  -3.4509986
  75.8229992  55.0019978  -2.4019986  75.2815247  55.2421057  -3.0391539
  73.7249992  51.1859978   1.5590014  72.8589992  51.0809978   1.9530014
  74.1009992  51.9439978   2.0050014  73.6573401  51.2741708   1.6732620
  75.0259992  49.4419978 -12.9269986  75.8759992  49.8629978 -12.7999986
  75.0309992  48.7019978 -12.3199986  75.1431143  49.3996094 -12.8275250
  75.4199992  47.4959978 -11.1039986  74.6939992  47.0159978 -10.7059986
  76.0019992  47.7009978 -10.3709986  75.3992730  47.4580184 -10.9505851
  75.1789992  50.2809978  -6.1559986  76.0129992  49.9029978  -6.4369986
  75.2909992  51.2239978  -6.2749986  75.3081917  50.3567943  -6.2105139
  73.6659992  53.1589978  -3.8489986  73.0179992  53.4839978  -3.2239986
  73.1479992  52.7179978  -4.5229986  73.5074196  53.1438651  -3.8545848
  75.6889992  47.3969978 -14.7129986  75.1669992  47.7529978 -15.4309986
  75.6559992  48.0719978 -14.0339986  75.6130129  47.5369598 -14.7196645
  74.0379992  44.6359978 -16.1619986  74.1339992  45.3029978 -16.8419986
  73.8979992  43.8209978 -16.6429986  74.0322040  44.6170671 -16.3201622
  73.2069992  46.0169978 -10.5409986  73.0569992  45.0719978 -10.5609986
  72.8529992  46.2979978  -9.6969986  73.1386351  45.9256644 -10.4296780
  58.2419992  48.0949978  -6.5299986  58.4269992  48.0129978  -7.4659986
  59.0919992  47.9709978  -6.1069986  58.3820928  48.0670463  -6.6007107
  74.0629992  47.9869978  -0.9019986  74.6459992  47.2519978  -0.7099986
  74.6269992  48.7589978  -0.8549986  74.2189781  47.9908145  -0.8693836
  75.5599992  45.8899978  -0.2169986  74.6969992  45.5109978  -0.3829986
  76.1639992  45.1509978  -0.2919986  75.5236085  45.7383223  -0.2498305
  73.2849992  42.0439978 -17.0439986  73.8959992  41.6729978 -16.4069986
  72.4479992  41.6229978 -16.8479986  73.2554947  41.9362756 -16.9302748
  72.9179992  43.5989978 -12.0779986  73.1969992  42.6919978 -11.9539986
  73.6769992  44.0329978 -12.4669986  73.0588619  43.5334502 -12.1136205
  73.5289992  44.1809978  -6.6419986  74.4619992  44.3929978  -6.6769986
  73.2939992  44.2819978  -5.7199986  73.6249517  44.2236833  -6.5220870
  73.5589992  44.9179978  -3.8659986  72.7159992  45.1859978  -3.4999986
  74.0009992  45.7399978  -4.0769986  73.5034138  45.0658273  -3.8444482
  57.8399992  43.3649978  -0.3899986  58.7589992  43.2429978  -0.1529986
  57.3899992  42.6149978   0.0000014  57.9050087  43.2469608  -0.3048590
  75.8419992  38.8979978   1.4870014  76.1909992  38.2439978   0.8820014
  75.9889992  39.7349978   1.0470014  75.9096824  38.9216024   1.3446304
  73.5309992  40.8619978 -12.0299986  73.7129992  40.4129978 -11.2049986
  72.9309992  40.2779978 -12.4939986  73.4748187  40.7215552 -11.9797261
  59.0609992  41.6779978  -7.4979986  59.5059992  40.8859978  -7.1959986
  59.5269992  42.3939978  -7.0679986  59.1849718  41.6664534  -7.3984735
  57.3649992  44.6769978  -6.4289986  57.8569992  44.4559978  -7.2199986
  57.7269992  45.5169978  -6.1479986  57.4812923  44.7603468  -6.4992593
  75.3609992  41.0069978  -0.1639986  74.4439992  41.2779978  -0.1989986
  75.4839992  40.4719978  -0.9479986  75.2519672  40.9717885  -0.2748138
  75.3979992  40.9299978 -15.5019986  75.8099992  40.2089978 -15.9769986
  76.0789992  41.5989978 -15.4439986  75.5465536  40.9217766 -15.5591976
  57.6789992  40.9349978 -12.3749986  56.7539992  41.1429978 -12.5039986
  58.1329992  41.4189978 -13.0649986  57.6136298  41.0289299 -12.4859549
  72.4489992  55.9189978 -10.4289986  73.1019992  55.5709978 -11.0369986
  72.9599992  56.4069978  -9.7829986  72.6072777  55.9373815 -10.4247953
  57.6419992  39.6729978  -4.0309986  56.9769992  39.4269978  -3.3879986
  57.1989992  40.2949978  -4.6079986  57.4911168  39.7234214  -4.0210152
  59.8339992  52.8479978   0.1140014  59.0129992  53.0229978  -0.3469986
  59.5819992  52.7749978   1.0340014  59.6875594  52.8620717   0.1753611
  62.7879992  53.8219978  -3.6279986  62.3639992  54.6319978  -3.9099986
  63.6929992  53.9079978  -3.9299986  62.8522138  53.9444160  -3.7073585
  67.0999992  55.2209978  -0.6679986  67.2839992  54.8879978   0.2100014
  67.9459992  55.5309978  -0.9899986  67.2396484  55.2172979  -0.5912383
  69.4449992  56.5069978  -1.4239986  70.1219992  55.8739978  -1.6639986
  69.7659992  56.9079978  -0.6169986  69.5811323  56.4745691  -1.3476842
  74.3619992  39.0969978  -2.3449986  73.5489992  39.4219978  -2.7319986
  74.5949992  38.3359978  -2.8779986  74.2821347  39.0386880  -2.4700159
  60.1899992  57.0789978  -3.5799986  59.4699992  57.5189978  -4.0309986
  59.8249992  56.8279978  -2.7319986  60.0419643  57.1053369  -3.5270871
  62.6569992  56.6789978  -4.5499986  61.7929992  56.7509978  -4.1459986
  62.6019992  57.2259978  -5.3339986  62.5311942  56.7627849  -4.6006000
  67.3679992  56.5669978  -5.3749986  66.9109992  57.0959978  -6.0289986
  67.5309992  57.1699978  -4.6499986  67.3274960  56.7209280  -5.3664726
  69.6959992  55.4449978  -4.4299986  68.7909992  55.6099978  -4.6959986
  70.1239992  56.2979978  -4.4959986  69.6301537  55.5829134  -4.4752905
  72.2999992  57.0149978  -4.1349986  72.1179992  57.9309978  -4.3459986
  72.4769992  56.6039978  -4.9819986  72.2990030  57.0848273  -4.2782834
  59.6049992  55.7019978  -6.6699986  59.5869992  55.2759978  -5.8129986
  60.4099992  55.3829978  -7.0789986  59.7112875  55.6006435  -6.6080485
  61.7459992  54.4119978  -8.0149986  61.5269992  53.4949978  -7.8449986
  62.5699992  54.5519978  -7.5489986  61.8274702  54.3055511  -7.9287473
  64.2829992  54.8819978  -7.1659986  64.4959992  53.9939978  -7.4529986
  64.3479992  54.8469978  -6.2119986  64.3209149  54.7558326  -7.0762631
  67.7919992  40.5459978  -8.0219986  67.1179992  39.9159978  -7.7659986
  68.3559992  40.0619978  -8.6249986  67.7760384  40.3943708  -8.0684980
  72.9349992  38.6529978  -7.9089986  73.5379992  39.2009978  -8.4109986
  72.0649992  38.9719978  -8.1499986  72.8999157  38.7710373  -8.0102090
  74.6619992  39.7919978  -9.5759986  75.2729992  39.2779978 -10.1029986
  75.0439992  40.6689978  -9.5529986  74.7973305  39.8402050  -9.6450582
  60.1189992  39.1799978 -10.1999986  59.3419992  38.9449978 -10.7069986
  60.6489992  38.3829978 -10.1909986  60.0843451  39.0401268 -10.2681373
  58.9549992  38.9779978 -14.3959986  59.3939992  39.5889978 -14.9879986
  58.3209992  39.5159978 -13.9219986  58.9293859  39.1344064 -14.4129695
  64.6979992  39.1059978 -10.3869986  65.5719992  39.4949978 -10.4159986
  64.5619992  38.8909978  -9.4639986  64.7991953  39.1301643 -10.2662383
  70.2549992  39.1359978  -8.7369986  70.3309992  39.2319978  -9.6869986
  69.9799992  38.2289978  -8.6089986  70.2281871  39.0264146  -8.8496056
  71.6079992  39.1619978 -13.0449986  70.9049992  39.7769978 -13.2549986
  71.1629992  38.3249978 -12.9139986  71.4516550  39.1329668 -13.0560163
  58.8559992  54.9259978 -13.4989986  58.1709992  54.8879978 -14.1659986
  58.8599992  55.8389978 -13.2109986  58.7627621  55.0441924 -13.5513874
  60.8159992  40.8939978 -15.9539986  61.3069992  40.2639978 -16.4809986
  61.4389992  41.1899978 -15.2909986  60.9675304  40.8477376 -15.9365060
  65.8419992  41.1869978 -13.4969986  66.0199992  40.5399978 -12.8139986
  65.7879992  42.0209978 -13.0299986  65.8590678  41.2111604 -13.3403699
  67.7199992  56.1349978 -15.1009986  68.5859992  56.5019978 -15.2789986
  67.4739992  55.6959978 -15.9149986  67.8052097  56.1258525 -15.2353981
  74.4289992  55.6979978 -12.4219986  74.2349992  54.9499978 -12.9869986
  74.3899992  56.4559978 -13.0049986  74.3971645  55.6980786 -12.5781852
  60.0759992  39.6939978  -0.6819986  59.7099992  38.9279978  -0.2399986
  60.9889992  39.7229978  -0.3959986  60.1493172  39.5930324  -0.5828110
  62.0489992  39.0439978   0.8530014  62.9479992  38.7699978   0.6690014
  61.6629992  38.3019978   1.3180014  62.1197307  38.9062196   0.8907098
  60.6739992  55.8459978 -16.4739986  60.4059992  56.1319978 -15.5999986
  61.4449992  55.2999978 -16.3209986  60.7415926  55.8112779 -16.3338795
  70.4709992  38.3769978   1.0360014  70.5469992  37.9509978   1.8890014
  71.3639992  38.3899978   0.6930014  70.6022303  38.3203493   1.1065497
  73.6469992  54.4499978  -0.2719986  72.8649992  54.2629978  -0.7919986
  73.5749992  55.3789978  -0.0549986  73.5301924  54.5500637  -0.3138398
  88.0529992  48.3359978 -10.2409986  88.1419992  49.2799978 -10.3729986
  87.4149992  48.0609978 -10.8989986  87.9789062  48.4279812 -10.3480359
  86.9859992  47.5909978  -6.8219986  86.9479992  46.9449978  -6.1169986
  86.6639992  47.1239978  -7.5929986  86.9372679  47.4394276  -6.8297079
  79.3539992  47.2049978  -5.2289986  79.3959992  46.5799978  -4.5059986
  80.0569992  47.8289978  -5.0469986  79.4547345  47.2037873  -5.1054726
  90.6919992  50.5299978  -8.5209986  90.2509992  49.8099978  -8.0699986
  90.6789992  51.2509978  -7.8909986  90.6299215  50.5289291  -8.3741895
  80.2779992  51.6549978  -6.6939986  79.9079992  50.8529978  -7.0639986
  81.2189992  51.4869978  -6.6479986  80.3545984  51.5224638  -6.7384397
  76.8879992  45.3149978 -11.3019986  76.4399992  46.1609978 -11.3199986
  76.3269992  44.7359978 -11.8169986  76.7508546  45.3523993 -11.3741109
  77.5979992  47.4769978  -9.1759986  77.8119992  46.7069978  -8.6479986
  78.3359992  47.5669978  -9.7789986  77.7270200  47.3838587  -9.1852965
  87.8039992  55.6339978  -8.3089986  88.4229992  54.9579978  -8.5819986
  87.5949992  55.4159978  -7.3999986  87.8606056  55.5118869  -8.2236033
  85.3749992  50.0229978  -6.4159986  85.6789992  49.3369978  -7.0109986
  86.0969992  50.1419978  -5.7979986  85.5141240  49.9452314  -6.4139041
  94.0379992  41.6249978  -5.5559986  94.0879992  42.2349978  -4.8199986
  94.4639992  42.0859978  -6.2789986  94.1024108  41.7707709  -5.5529888
  88.5159992  44.4169978  -6.0889986  88.6589992  43.4709978  -6.0689986
  88.4099992  44.6239978  -7.0169986  88.5212403  44.3154797  -6.2117761
  81.6709992  42.5189978  -8.8159986  81.7139992  43.3789978  -9.2349986
  81.2129992  41.9669978  -9.4499986  81.6149871  42.5619245  -8.9589239
  89.3929992  42.6499978 -10.4149986  90.0399992  42.3209978  -9.7909986
  89.9029992  43.1669978 -11.0379986  89.5504351  42.6749067 -10.4138963
  78.2909992  44.9159978  -8.0539986  78.9449992  44.3659978  -7.6219986
  78.3149992  44.6419978  -8.9709986  78.3837199  44.8037167  -8.1188332
  83.4479992  46.4659978  -8.8389986  84.0639992  45.9389978  -8.3299986
  82.8609992  45.8259978  -9.2429986  83.4530154  46.3073954  -8.8239055
  94.4299992  43.1029978  -3.3199986  93.7409992  43.7609978  -3.4149986
  94.4449992  42.9049978  -2.3829986  94.3377756  43.1662603  -3.2064188
  80.4809992  41.4369978  -4.7419986  80.2619992  41.9669978  -5.5089986
  79.8129992  41.6629978  -4.0949986  80.3606975  41.5400967  -4.7594860
  87.8499992  50.9369978 -11.1979986  87.5549992  50.6139978 -12.0499986
  87.5259992  51.8369978 -11.1569986  87.7658460  51.0144464 -11.3090286
  83.0499992  49.1119978  -4.4549986  82.3099992  49.7109978  -4.3509986
  83.7639992  49.6659978  -4.7699986  83.0453500  49.2687829  -4.4833629
  91.1569992  41.9409978  -8.4349986  90.9419992  41.1749978  -7.9019986
  91.8129992  42.4129978  -7.9219986  91.2162673  41.9000728  -8.2928010
  80.0749992  43.3289978  -6.7899986  80.6889992  43.9619978  -6.4169986
  80.5869992  42.8569978  -7.4459986  80.2281962  43.3517249  -6.8277065
  81.4579992  51.0769978  -3.6679986  81.4519992  51.9559978  -4.0459986
  80.6039992  50.9929978  -3.2429986  81.3417925  51.1859535  -3.6623113
  77.5789992  50.7479978 -12.8859986  77.3069992  50.9769978 -13.7739986
  77.6239992  51.5849978 -12.4249986  77.5478097  50.8926163 -12.9453317
  91.2039992  52.3689978  -6.1729986  90.2619992  52.4279978  -6.0109986
  91.4799992  53.2749978  -6.3099986  91.1125865  52.4995288  -6.1693808
  91.5039992  40.6559978  -4.7559986  90.7679992  41.2659978  -4.7929986
  92.1879992  41.0709978  -5.2819986  91.4955367  40.7957551  -4.8321826
  84.5079992  38.7419978  -7.2899986  84.3899992  37.7939978  -7.3439986
  83.6529992  39.0749978  -7.0169986  84.3762805  38.6572202  -7.2604921
  89.4559992  54.1499978  -9.5479986  89.8809992  53.4429978 -10.0329986
  89.7729992  54.9519978  -9.9649986  89.5570266  54.1615190  -9.6707521
  90.6159992  52.0509978 -11.0389986  90.3579992  51.3609978 -11.6509986
  90.6869992  51.6079978 -10.1939986  90.5903050  51.8966814 -11.0084379
  92.3019992  50.6179978  -2.5619986  92.4409992  50.0259978  -3.3009986
  92.4689992  51.4909978  -2.9179986  92.3436193  50.6548896  -2.7113789
  86.7739992  47.5799978 -12.7889986  86.0629992  48.1149978 -13.1409986
  87.4649992  47.6349978 -13.4489986  86.7700751  47.6606777 -12.9264142
  86.8279992  46.0369978 -15.7509986  87.5289992  46.0599978 -15.0989986
  87.1299992  45.4089978 -16.4069986  86.9648202  45.9552212 -15.7504391
  94.1429992  46.9579978  -4.4959986  93.4909992  47.6519978  -4.4069986
  94.6089992  47.1679978  -5.3059986  94.1165937  47.0815019  -4.5932467
  90.1799992  47.7889978 -11.8379986  89.4479992  48.0179978 -11.2639986
  90.6269992  47.0759978 -11.3829986  90.1403963  47.7238729 -11.6980055
  90.0769992  45.9639978  -2.7699986  90.1569992  46.7269978  -2.1979986
  89.4759992  46.2429978  -3.4599986  90.0066547  46.1062457  -2.7849953
  81.8249992  48.4199978  -9.9549986  81.4949992  48.0489978 -10.7729986
  82.4139992  47.7489978  -9.6079986  81.8593970  48.2786063 -10.0200596
  83.1919992  51.8479978  -7.2739986  83.0969992  51.2689978  -8.0299986
  83.9209992  51.4769978  -6.7779986  83.2776011  51.7185561  -7.3103972
  82.1919992  47.1879978  -6.3219986  82.7569992  47.3099978  -7.0839986
  82.5109992  47.8259978  -5.6829986  82.3124166  47.2908791  -6.3399652
  88.5009992  52.6919978  -5.5879986  88.2609992  53.3539978  -4.9399986
  88.3029992  51.8569978  -5.1629986  88.4413826  52.6698115  -5.4418434
  83.0719992  51.5879978  -1.6039986  82.7609992  52.3699978  -1.1489986
  82.4219992  51.4349978  -2.2899986  82.9415538  51.6744087  -1.6344102
  89.0509992  46.9519978 -14.1519986  89.6299992  47.1019978 -13.4059986
  89.4649992  47.4219978 -14.8759986  89.1863358  47.0360954 -14.1476047
  79.9919992  47.7859978  -2.3759986  80.0619992  48.4369978  -1.6769986
  79.1009992  47.8889978  -2.7109986  79.8811690  47.8889249  -2.3256957
  86.7769992  53.6879978 -10.7169986  87.2509992  53.9839978  -9.9399986
  86.2139992  54.4269978 -10.9499986  86.7657890  53.8283036 -10.6421899
  81.3109992  53.6589978  -0.8409986  81.3189992  53.5229978  -1.7879986
  80.3949992  53.5419978  -0.5889986  81.1882528  53.6245463  -0.9366757
  92.7499992  38.7019978 -14.3389986  91.8499992  38.8409978 -14.0439986
  93.0019992  39.5329978 -14.7409986  92.6608683  38.8334055 -14.3529768
  80.8159992  47.4889978 -12.3659986  80.5239992  48.2569978 -12.8569986
  80.1409992  46.8299978 -12.5289986  80.6848497  47.5049745 -12.4551740
  93.9389992  53.0679978 -15.9629986  94.0119992  54.0069978 -15.7929986
  94.8439992  52.7629978 -16.0189986  94.0714170  53.1553282 -15.9472937
  76.9089992  49.8519978  -3.5509986  76.4069992  49.8239978  -4.3659986
  76.9139992  48.9469978  -3.2409986  76.8409832  49.7257486  -3.6205879
  76.6589992  52.6329978  -6.6669986  77.6049992  52.4879978  -6.6859986
  76.5459992  53.4169978  -6.1299986  76.7733578  52.7191697  -6.5969683
  94.8569992  53.2989978  -0.9839986  94.8069992  52.3429978  -1.0219986
  94.0299992  53.5659978  -0.5829986  94.7383831  53.2044680  -0.9349879
  85.8349992  52.8729978  -2.1079986  85.9229992  53.6989978  -1.6329986
  84.9719992  52.5429978  -1.8589986  85.7303357  52.9415468  -2.0092347
  86.2499992  56.6449978 -12.3019986  86.1739992  56.5239978 -13.2489986
  86.2819992  57.5939978 -12.1839986  86.2439380  56.7567677 -12.4154819
  79.9029992  55.4339978 -10.5209986  80.0549992  55.0859978  -9.6429986
  79.0519992  55.0769978 -10.7769986  79.8088344  55.3380879 -10.4353132
  89.3509992  55.7989978 -15.2999986  89.7259992  55.0549978 -15.7709986
  89.3559992  55.5289978 -14.3819986  89.4030098  55.6606392 -15.2403371
  89.0199992  55.7249978 -12.5509986  88.0849992  55.8249978 -12.3719986
  89.2999992  55.0149978 -11.9719986  88.9299471  55.6427933 -12.4483305
  92.0089992  44.7919978  -0.5039986  91.6009992  45.2719978  -1.2249986
  92.0489992  43.8859978  -0.8119986  91.9586221  44.7352449  -0.6441733
  79.1579992  51.1759978  -2.5079986  79.3739992  50.8139978  -1.6479986
  78.3019992  50.8009978  -2.7169986  79.0718810  51.0758837  -2.4187320
  81.7759992  39.6459978  -6.5119986  80.9149992  39.5589978  -6.9199986
  81.7539992  40.5019978  -6.0839986  81.6550491  39.7498003  -6.5100418
  86.4389992  39.3679978  -3.1369986  86.8589992  38.9529978  -2.3839986
  85.5059992  39.1889978  -3.0199986  86.3703736  39.2869910  -3.0181032
  89.7659992  43.1229978  -2.2839986  89.2519992  42.9979978  -1.4859986
  89.6099992  44.0359978  -2.5279986  89.6746967  43.2292123  -2.2079063
  90.5279992  47.9839978 -16.5229986  90.5699992  47.7619978 -17.4529986
  91.3769992  48.3829978 -16.3329986  90.6485253  48.0075498 -16.6246178
  86.1009992  41.8599978 -15.8519986  85.8469992  41.8789978 -14.9299986
  85.8439992  40.9889978 -16.1539986  86.0314508  41.7448280 -15.7665197
  81.8669992  44.6109978  -5.4169986  81.2259992  44.5709978  -4.7079986
  81.9049992  45.5379978  -5.6549986  81.7843010  44.7307668  -5.3520054
  81.8639992  44.8319978 -10.5049986  80.9719992  44.4919978 -10.5639986
  82.3149992  44.4549978 -11.2609986  81.8027642  44.7344910 -10.6152274
  87.3999992  45.2479978 -11.6879986  86.9909992  46.0629978 -11.9799986
  88.1199992  45.1079978 -12.3019986  87.4414439  45.3405372 -11.8109885
  86.5019992  45.4239978  -0.1999986  85.9389992  44.7189978   0.1210014
  87.3279992  45.3029978   0.2680014  86.5366674  45.3112165  -0.0928249
  88.4049992  44.6939978  -8.8739986  88.2089992  45.2999978  -9.5889986
  88.5859992  43.8609978  -9.3079986  88.4026584  44.6642513  -9.0305788
  79.6169992  44.9319978  -3.5499986  79.5789992  45.3319978  -2.6809986
  79.1269992  44.1149978  -3.4599986  79.5455330  44.8762674  -3.4188711
  82.9829992  42.3059978 -16.7509986  82.5519992  41.8609978 -16.0219986
  82.2649992  42.6769978 -17.2639986  82.8269176  42.2952051 -16.7205070
  76.2259992  42.0479978  -9.6989986  76.8559992  42.0189978  -8.9799986
  76.6749992  41.6229978 -10.4299986  76.3730835  41.9865660  -9.6992341
  77.4999992  42.7939978 -14.2749986  77.9739992  43.3849978 -14.8599986
  76.7819992  43.3239978 -13.9279986  77.4678640  42.9465511 -14.3082031
  87.6689992  46.3319978  -4.2029986  87.9919992  45.7009978  -4.8459986
  87.2279992  45.7979978  -3.5419986  87.6536379  46.1733468  -4.2017418
  84.4459992  42.2599978  -9.4189986  83.5349992  42.3169978  -9.1299986
  84.9509992  42.1999978  -8.6079986  84.3896873  42.2596826  -9.2698793
  79.2739992  43.8889978 -10.5919986  78.3849992  43.9879978 -10.9319986
  79.5709992  43.0469978 -10.9379986  79.1924177  43.7887687 -10.6853060
  82.9269992  43.8889978 -12.9349986  83.8589992  44.0179978 -12.7569986
  82.7119992  44.5579978 -13.5849986  83.0254472  43.9970806 -12.9985109
  88.8509992  41.4949978  -6.1539986  88.1739992  41.6259978  -5.4909986
  88.3659992  41.3399978  -6.9649986  88.6927405  41.4919947  -6.1727830
  81.6009992  45.0829978 -15.3689986  81.0589992  44.7039978 -16.0599986
  82.4349992  45.2779978 -15.7969986  81.6394390  45.0574079 -15.5215608
  92.1389992  57.1659978   0.1220014  92.3379992  57.5899978  -0.7119986
  92.7939992  57.5099978   0.7290014  92.2548522  57.2706301   0.0897852
  79.7369992  49.6399978  -0.2699986  80.4689992  49.8949978   0.2920014
  78.9559992  49.8449978   0.2460014  79.7316526  49.7025450  -0.1234824
  85.7659992  45.0469978  -7.5319986  86.3299992  44.5009978  -8.0789986
  85.6179992  44.5259978  -6.7429986  85.8233037  44.9016787  -7.5002771
  80.7679992  41.1839978 -11.1129986  80.4509992  40.2809978 -11.1489986
  81.5489992  41.1859978 -11.6659986  80.8302431  41.0607797 -11.1926898
  84.3919992  43.4359978  -5.1179986  83.5569992  43.8899978  -5.0069986
  84.9159992  43.7119978  -4.3659986  84.3486072  43.5353948  -5.0011864
  84.9369992  49.6489978 -13.4329986  84.1919992  49.1409978 -13.7549986
  84.8019992  49.6979978 -12.4869986  84.8168963  49.5861731 -13.3491174
  92.0869992  48.7819978  -4.6459986  92.7279992  49.2379978  -5.1899986
  91.2559992  48.8949978  -5.1089986  92.0625287  48.8596921  -4.7830113
  88.8339992  42.4629978 -15.2339986  87.8959992  42.5739978 -15.3849986
  89.1319992  43.3189978 -14.9269986  88.7456318  42.5940158 -15.2131855
  86.4559992  49.8329978  -2.1959986  86.1099992  49.4509978  -1.3889986
  86.2559992  50.7659978  -2.1249986  86.3815987  49.9069002  -2.0759539
  89.5529992  44.3299978 -13.5729986  90.4449992  44.1919978 -13.2539986
  89.6089992  45.1209978 -14.1099986  89.6827325  44.4179918 -13.6018783
  80.0609992  48.9439978  -7.6629986  80.8059992  48.9409978  -8.2649986
  80.1389992  48.1199978  -7.1819986  80.1733365  48.8322384  -7.6802570
  87.0619992  51.1069978 -14.4079986  86.7669992  51.9339978 -14.0259986
  86.3589992  50.4879978 -14.2109986  86.9266379  51.1364171 -14.3291346
  77.0689992  47.4039978  -2.3479986  77.2919992  46.9859978  -1.5169986
  76.4669992  46.7919978  -2.7709986  77.0181513  47.2639606  -2.2913260
  84.0859992  46.9209978  -0.1349986  83.7899992  46.7559978  -1.0309986
  85.0169992  46.7009978  -0.1459986  84.1714401  46.8686879  -0.2589794
  88.7059992  52.2949978  -2.2459986  87.8059992  52.4779978  -2.5129986
  88.7399992  52.5539978  -1.3249986  88.5873748  52.3550554  -2.1580836
  94.4379992  44.5389978 -13.8779986  93.8829992  44.1429978 -14.5509986
  94.5379992  45.4499978 -14.1559986  94.3756816  44.6079505 -14.0074967
  94.4009992  50.3399978  -1.0409986  93.5499992  50.5779978  -1.4089986
  94.9909992  50.3229978  -1.7939986  94.3643812  50.3702524  -1.1931547
  92.7329992  53.3249978 -13.4129986  92.3599992  52.4999978 -13.1039986
  93.0099992  53.1419978 -14.3109986  92.7193463  53.1872569 -13.4920475
  89.8929992  48.1329978  -6.3919986  88.9649992  47.9019978  -6.4189986
  90.3439992  47.3559978  -6.7219986  89.8268165  47.9962774  -6.4403210
  82.4359992  52.4619978 -10.2589986  82.9639992  53.2349978 -10.4589986
  81.5559992  52.6859978 -10.5609986  82.3893435  52.5982700 -10.3272690
  78.1909992  47.3239978 -15.6719986  78.8069992  47.9509978 -15.2919986
  77.3289992  47.6399978 -15.3999986  78.1587678  47.4524412 -15.5832791
  83.8639992  50.1249978 -10.6829986  83.6229992  51.0499978 -10.6409986
  83.1229992  49.6659978 -10.2859986  83.7309206  50.1895915 -10.6236231
  84.3779992  54.2739978  -4.3679986  84.7409992  55.1279978  -4.6009986
  84.9099992  53.9819978  -3.6269986  84.4995141  54.3513895  -4.2997903
  82.5469992  55.1459978 -11.1369986  81.5969992  55.2519978 -11.0859986
  82.8989992  55.9669978 -10.7929986  82.4645472  55.2714923 -11.0835148
  87.9219992  50.3729978  -4.6669986  87.4969992  50.1449978  -3.8409986
  88.5029992  49.6339978  -4.8489986  87.9423395  50.2419545  -4.5785586
  90.1249992  51.3019978 -15.5929986  90.4789992  50.9219978 -14.7889986
  89.1769992  51.2079978 -15.5059986  90.0452298  51.2372452 -15.4711313
  90.5809992  54.9249978  -2.1979986  89.9789992  54.3689978  -2.6929986
  90.8619992  55.5919978  -2.8239986  90.5365757  54.9390744  -2.3504325
  94.6289992  55.7809978 -15.3919986  95.3729992  56.3669978 -15.5319986
  93.9349992  56.3499978 -15.0589986  94.6369809  55.9380818 -15.3661410
  78.7029992  42.1579978  -2.7899986  77.8109992  42.4959978  -2.8579986
  78.6049992  41.3019978  -2.3719986  78.5674475  42.0886543  -2.7428296
  90.9909992  49.9739978 -13.3659986  90.7139992  49.2459978 -12.8099986
  91.9189992  50.0929978 -13.1609986  91.0784499  49.8904213 -13.2621956
  78.3549992  53.9619978  -4.3549986  78.5719992  53.0299978  -4.3859986
  78.6009992  54.2369978  -3.4719986  78.4179809  53.8715686  -4.2398309
  83.1529992  51.9839978 -14.6899986  83.2999992  51.4639978 -13.8999986
  83.1499992  52.8909978 -14.3829986  83.1727102  52.0353953 -14.5404075
  79.6059992  49.2359978 -14.1789986  78.9199992  49.5889978 -13.6119986
  80.1289992  49.9989978 -14.4259986  79.5828402  49.3873901 -14.1348199
  87.4379992  41.8989978  -3.8999986  88.1369992  41.9729978  -3.2499986
  87.0569992  41.0339978  -3.7459986  87.4822097  41.7922389  -3.7902003
  88.2219992  41.5509978 -12.8029986  88.4419992  42.0219978 -13.6069986
  88.7809992  41.9449978 -12.1329986  88.3276731  41.6687287 -12.8224967
  85.8909992  53.6809978 -13.9399986  85.0739992  54.1779978 -13.8879986
  86.4199992  54.1569978 -14.5809986  85.8508125  53.8131989 -14.0194694
  85.4219992  43.2789978 -11.9679986  86.2339992  43.7829978 -11.9219986
  85.1779992  43.1339978 -11.0539986  85.5001467  43.3283749 -11.8381425
  85.9579992  44.2649978  -2.7839986  86.0769992  44.8389978  -2.0269986
  86.6129992  43.5769978  -2.6689986  86.0628684  44.2505194  -2.6648326
  86.3059992  40.3599978 -11.0299986  85.9589992  40.9769978 -10.3859986
  86.9649992  40.8609978 -11.5119986  86.3475090  40.5121575 -11.0069319
  83.2289992  54.7249978 -13.9589986  83.3899992  55.5249978 -14.4589986
  83.0319992  55.0319978 -13.0739986  83.2243906  54.8758678 -13.9077667
  81.9639992  41.4229978 -14.3429986  81.8799992  42.3109978 -13.9959986
  82.8539992  41.1579978 -14.1109986  82.0728163  41.5087179 -14.2641404
  92.1619992  42.1719978  -1.9489986  91.2459992  42.4339978  -2.0359986
  92.4979992  42.1689978  -2.8449986  92.0818499  42.2075163  -2.0821234
  90.7649992  45.9219978  -7.8529986  89.9669992  45.5069978  -8.1809986
  91.2099992  45.2319978  -7.3619986  90.7159684  45.7718628  -7.8314773
  80.2219992  51.8499978 -15.2829986  80.8139992  52.5499978 -15.0059986
  80.6809992  51.4169978 -16.0019986  80.3651652  51.8872675 -15.3423467
  78.5379992  44.5149978 -16.1669986  78.4929992  45.4539978 -15.9879986
  77.6499992  44.2789978 -16.4359986  78.4118166  44.6116687 -16.1788476
  91.8509992  55.1779978  -6.2309986  91.6949992  55.8569978  -6.8879986
  92.7839992  55.2499978  -6.0279986  91.9557387  55.2806390  -6.2934658
  79.3459992  39.2959978  -7.4929986  79.1169992  39.3549978  -8.4209986
  78.9039992  38.5049978  -7.1869986  79.2548801  39.1970540  -7.5785271
  78.2769992  53.2369978 -11.3329986  77.4439992  53.7089978 -11.3059986
  78.8219992  53.7469978 -11.9319986  78.2367857  53.3704791 -11.4102858
  77.5649992  55.8489978  -0.0029986  78.1049992  55.6329978   0.7570014
  77.0839992  55.0439978  -0.1929986  77.5739219  55.7105156   0.0754282
  82.1619992  54.7689978   1.6170014  82.9299992  54.3099978   1.9580014
  82.1409992  54.5429978   0.6870014  82.2642135  54.6756668   1.5379491
  86.2539992  54.2769978 -17.0069986  85.6099992  53.6459978 -16.6859986
  87.0159992  53.7459978 -17.2389986  86.2688058  54.1187902 -16.9943962
  88.7389992  53.1489978   0.3460014  88.3879992  52.2919978   0.5900014
  89.4649992  53.2909978   0.9530014  88.7891895  53.0511351   0.4613770
  90.8589992  54.0939978 -16.7739986  91.1419992  53.2989978 -16.3209986
  91.5979992  54.3269978 -17.3349986  90.9977096  54.0167049 -16.7878896
  77.4719992  49.6599978   0.9510014  77.6159992  48.7579978   0.6650014
  76.6999992  49.9459978   0.4640014  77.3872733  49.5751798   0.8459532
  81.8129992  50.0029978 -16.9159986  81.8779992  49.2089978 -16.3859986
  82.4659992  49.8849978 -17.6059986  81.9101605  49.8783430 -16.9367003
  84.1269992  49.6289978   0.3840014  83.7989992  49.8999978  -0.4729986
  84.2789992  48.6879978   0.2960014  84.1026412  49.5389046   0.2547822
  89.8619992  49.5449978  -2.2329986  90.6069992  50.1339978  -2.3519986
  89.1049992  50.1269978  -2.1689986  89.8615470  49.7042128  -2.2406201
  78.3049992  46.8599978   0.3710014  78.7129992  46.0029978   0.2500014
  78.0439992  46.8739978   1.2920014  78.3256016  46.7445119   0.4789192
  82.9629992  47.9759978 -14.6099986  82.5029992  47.4919978 -13.9249986
  83.2179992  47.3069978 -15.2459986  82.9344856  47.8193669 -14.6021603
  82.2519992  45.8689978  -2.2539986  81.6329992  46.5429978  -1.9739986
  82.5959992  46.1899978  -3.0879986  82.2137123  46.0046887  -2.3283612
  84.0339992  46.2189978 -16.3479986  83.8529992  46.0639978 -17.2749986
  84.9839992  46.3269978 -16.3029986  84.1376566  46.2123669 -16.4689071
  87.2709992  48.3399978   1.0230014  88.2249992  48.4239978   0.9960014
  87.1109992  47.6279978   1.6430014  87.3797182  48.2552842   1.1030733
  93.4239992  48.5729978 -16.9019986  93.1499992  48.1489978 -17.7149986
  93.4629992  49.5049978 -17.1189986  93.3917716  48.6408827 -17.0425714
  82.5909992  43.2239978  -1.1719986  82.7409992  42.4949978  -1.7739986
  82.5929992  44.0009978  -1.7309986  82.6117967  43.2292708  -1.3299459
  83.0039992  41.5929978  -3.6789986  83.5389992  42.0449978  -4.3309986
  82.1509992  41.4849978  -4.1019986  82.9620374  41.6402665  -3.8253290
  84.5849992  47.0329978  -3.4399986  85.3359992  46.8769978  -4.0129986
  84.2459992  47.8849978  -3.7149986  84.6419587  47.1268138  -3.5555922
  89.0009992  44.8479978   1.5890014  89.1929992  43.9169978   1.4770014
  89.8589992  45.2729978   1.5780014  89.1432182  44.7780070   1.5721862
  90.3179992  47.6369978  -0.3339986  90.0359992  48.3459978  -0.9119986
  91.2599992  47.5639978  -0.4849986  90.4067921  47.7242193  -0.4335775
  81.0699992  44.4219978   0.7390014  80.3019992  43.8889978   0.5290014
  81.7479992  44.1119978   0.1400014  81.0567235  44.3071754   0.6292413
  83.8089992  39.0499978  -3.2479986  83.7109992  39.9959978  -3.3529986
  83.0669992  38.6769978  -3.7239986  83.6952534  39.1291773  -3.3267400
  85.0729992  43.3709978   0.3160014  84.8379992  43.1519978   1.2170014
  84.2899992  43.1639978  -0.1939986  84.9349095  43.3129892   0.3705353
  87.7889992  42.4989978  -0.6089986  86.8409992  42.5309978  -0.4769986
  88.1009992  41.8729978   0.0450014  87.7015293  42.4187923  -0.5025852
  89.4229992  41.1329978   1.3960014  89.3259992  40.1809978   1.3910014
  89.1009992  41.4009978   2.2570014  89.3662468  41.0390884   1.5116210
  79.2499992  42.3419978   0.4440014  79.4619992  41.6359978  -0.1659986
  79.1389992  41.9049978   1.2880014  79.2640269  42.1861921   0.4745873
  84.0309992  38.3439978  -0.5769986  84.7429992  37.7039978  -0.5909986
  83.9299992  38.6099978  -1.4899986  84.1147387  38.2924330  -0.7024437
  84.3849992  40.0259978   1.4770014  84.2529992  39.5509978   0.6570014
  83.7849992  40.7709978   1.4220014  84.2859070  40.0615789   1.3573251
  83.9309992  56.9089978 -15.3469986  84.8639992  57.0669978 -15.2029986
  83.6669992  57.5849978 -15.9719986  84.0229911  57.0219373 -15.4117278
  77.4989992  51.5459978 -15.8639986  78.4129992  51.6249978 -15.5909986
  77.5069992  50.8589978 -16.5299986  77.6250655  51.4639205 -15.9167083
  76.1479992  56.9389978 -10.7869986  75.5009992  56.4769978 -11.3189986
  76.5029992  56.2669978 -10.2039986  76.1073741  56.7849774 -10.7810825
  77.0179992  55.0189978  -8.9819986  76.6839992  54.1389978  -8.8099986
  77.2409992  55.3649978  -8.1169986  77.0023721  54.9451938  -8.8415832
  94.5669992  55.8289978  -6.0009986  94.5449992  56.0139978  -5.0619986
  95.2569992  56.3969978  -6.3419986  94.6573439  55.9311887  -5.9185209
  94.1299992  55.3959978  -3.0799986  93.6429992  54.6609978  -3.4509986
  94.6789992  55.0019978  -2.4019986  94.1375247  55.2421057  -3.0391539
  92.5809992  51.1859978   1.5590014  91.7149992  51.0809978   1.9530014
  92.9569992  51.9439978   2.0050014  92.5133401  51.2741708   1.6732620
  93.8819992  49.4419978 -12.9269986  94.7319992  49.8629978 -12.7999986
  93.8869992  48.7019978 -12.3199986  93.9991143  49.3996094 -12.8275250
  94.2759992  47.4959978 -11.1039986  93.5499992  47.0159978 -10.7059986
  94.8579992  47.7009978 -10.3709986  94.2552730  47.4580184 -10.9505851
  94.0349992  50.2809978  -6.1559986  94.8689992  49.9029978  -6.4369986
  94.1469992  51.2239978  -6.2749986  94.1641917  50.3567943  -6.2105139
  92.5219992  53.1589978  -3.8489986  91.8739992  53.4839978  -3.2239986
  92.0039992  52.7179978  -4.5229986  92.3634196  53.1438651  -3.8545848
  94.5449992  47.3969978 -14.7129986  94.0229992  47.7529978 -15.4309986
  94.5119992  48.0719978 -14.0339986  94.4690129  47.5369598 -14.7196645
  92.8939992  44.6359978 -16.1619986  92.9899992  45.3029978 -16.8419986
  92.7539992  43.8209978 -16.6429986  92.8882040  44.6170671 -16.3201622
  92.0629992  46.0169978 -10.5409986  91.9129992  45.0719978 -10.5609986
  91.7089992  46.2979978  -9.6969986  91.9946351  45.9256644 -10.4296780
  77.0979992  48.0949978  -6.5299986  77.2829992  48.0129978  -7.4659986
  77.9479992  47.9709978  -6.1069986  77.2380928  48.0670463  -6.6007107
  92.9189992  47.9869978  -0.9019986  93.5019992  47.2519978  -0.7099986
  93.4829992  48.7589978  -0.8549986  93.0749781  47.9908145  -0.8693836
  94.4159992  45.8899978  -0.2169986  93.5529992  45.5109978  -0.3829986
  95.0199992  45.1509978  -0.2919986  94.3796085  45.7383223  -0.2498305
  92.1409992  42.0439978 -17.0439986  92.7519992  41.6729978 -16.4069986
  91.3039992  41.6229978 -16.8479986  92.1114947  41.9362756 -16.9302748
  91.7739992  43.5989978 -12.0779986  92.0529992  42.6919978 -11.9539986
  92.5329992  44.0329978 -12.4669986  91.9148619  43.5334502 -12.1136205
  92.3849992  44.1809978  -6.6419986  93.3179992  44.3929978  -6.6769986
  92.1499992  44.2819978  -5.7199986  92.4809517  44.2236833  -6.5220870
  92.4149992  44.9179978  -3.8659986  91.5719992  45.1859978  -3.4999986
  92.8569992  45.7399978  -4.0769986  92.3594138  45.0658273  -3.8444482
  76.6959992  43.3649978  -0.3899986  77.6149992  43.2429978  -0.1529986
  76.2459992  42.6149978   0.0000014  76.7610087  43.2469608  -0.3048590
  94.6979992  38.8979978   1.4870014  95.0469992  38.2439978   0.8820014
  94.8449992  39.7349978   1.0470014  94.7656824  38.9216024   1.3446304
  92.3869992  40.8619978 -12.0299986  92.5689992  40.4129978 -11.2049986
  91.7869992  40.2779978 -12.4939986  92.3308187  40.7215552 -11.9797261
  77.9169992  41.6779978  -7.4979986  78.3619992  40.8859978  -7.1959986
  78.3829992  42.3939978  -7.0679986  78.0409718  41.6664534  -7.3984735
  76.2209992  44.6769978  -6.4289986  76.7129992  44.4559978  -7.2199986
  76.5829992  45.5169978  -6.1479986  76.3372923  44.7603468  -6.4992593
  94.2169992  41.0069978  -0.1639986  93.2999992  41.2779978  -0.1989986
  94.3399992  40.4719978  -0.9479986  94.1079672  40.9717885  -0.2748138
  94.2539992  40.9299978 -15.5019986  94.6659992  40.2089978 -15.9769986
  94.9349992  41.5989978 -15.4439986  94.4025536  40.9217766 -15.5591976
  76.5349992  40.9349978 -12.3749986  75.6099992  41.1429978 -12.5039986
  76.9889992  41.4189978 -13.0649986  76.4696298  41.0289299 -12.4859549
  91.3049992  55.9189978 -10.4289986  91.9579992  55.5709978 -11.0369986
  91.8159992  56.4069978  -9.7829986  91.4632777  55.9373815 -10.4247953
  76.4979992  39.6729978  -4.0309986  75.8329992  39.4269978  -3.3879986
  76.0549992  40.2949978  -4.6079986  76.3471168  39.7234214  -4.0210152
  78.6899992  52.8479978   0.1140014  77.8689992  53.0229978  -0.3469986
  78.4379992  52.7749978   1.0340014  78.5435594  52.8620717   0.1753611
  81.6439992  53.8219978  -3.6279986  81.2199992  54.6319978  -3.9099986
  82.5489992  53.9079978  -3.9299986  81.7082138  53.9444160  -3.7073585
  85.9559992  55.2209978  -0.6679986  86.1399992  54.8879978   0.2100014
  86.8019992  55.5309978  -0.9899986  86.0956484  55.2172979  -0.5912383
  88.3009992  56.5069978  -1.4239986  88.9779992  55.8739978  -1.6639986
  88.6219992  56.9079978  -0.6169986  88.4371323  56.4745691  -1.3476842
  93.2179992  39.0969978  -2.3449986  92.4049992  39.4219978  -2.7319986
  93.4509992  38.3359978  -2.8779986  93.1381347  39.0386880  -2.4700159
  79.0459992  57.0789978  -3.5799986  78.3259992  57.5189978  -4.0309986
  78.6809992  56.8279978  -2.7319986  78.8979643  57.1053369  -3.5270871
  81.5129992  56.6789978  -4.5499986  80.6489992  56.7509978  -4.1459986
  81.4579992  57.2259978  -5.3339986  81.3871942  56.7627849  -4.6006000
  86.2239992  56.5669978  -5.3749986  85.7669992  57.0959978  -6.0289986
  86.3869992  57.1699978  -4.6499986  86.1834960  56.7209280  -5.3664726
  88.5519992  55.4449978  -4.4299986  87.6469992  55.6099978  -4.6959986
  88.9799992  56.2979978  -4.4959986  88.4861537  55.5829134  -4.4752905
  91.1559992  57.0149978  -4.1349986  90.9739992  57.9309978  -4.3459986
  91.3329992  56.6039978  -4.9819986  91.1550030  57.0848273  -4.2782834
  78.4609992  55.7019978  -6.6699986  78.4429992  55.2759978  -5.8129986
  79.2659992  55.3829978  -7.0789986  78.5672875  55.6006435  -6.6080485
  80.6019992  54.4119978  -8.0149986  80.3829992  53.4949978  -7.8449986
  81.4259992  54.5519978  -7.5489986  80.6834702  54.3055511  -7.9287473
  83.1389992  54.8819978  -7.1659986  83.3519992  53.9939978  -7.4529986
  83.2039992  54.8469978  -6.2119986  83.1769149  54.7558326  -7.0762631
  86.6479992  40.5459978  -8.0219986  85.9739992  39.9159978  -7.7659986
  87.2119992  40.0619978  -8.6249986  86.6320384  40.3943708  -8.0684980
  91.7909992  38.6529978  -7.9089986  92.3939992  39.2009978  -8.4109986
  90.9209992  38.9719978  -8.1499986  91.7559157  38.7710373  -8.0102090
  93.5179992  39.7919978  -9.5759986  94.1289992  39.2779978 -10.1029986
  93.8999992  40.6689978  -9.5529986  93.6533305  39.8402050  -9.6450582
  78.9749992  39.1799978 -10.1999986  78.1979992  38.9449978 -10.7069986
  79.5049992  38.3829978 -10.1909986  78.9403451  39.0401268 -10.2681373
  77.8109992  38.9779978 -14.3959986  78.2499992  39.5889978 -14.9879986
  77.1769992  39.5159978 -13.9219986  77.7853859  39.1344064 -14.4129695
  83.5539992  39.1059978 -10.3869986  84.4279992  39.4949978 -10.4159986
  83.4179992  38.8909978  -9.4639986  83.6551953  39.1301643 -10.2662383
  89.1109992  39.1359978  -8.7369986  89.1869992  39.2319978  -9.6869986
  88.8359992  38.2289978  -8.6089986  89.0841871  39.0264146  -8.8496056
  90.4639992  39.1619978 -13.0449986  89.7609992  39.7769978 -13.2549986
  90.0189992  38.3249978 -12.9139986  90.3076550  39.1329668 -13.0560163
  77.7119992  54.9259978 -13.4989986  77.0269992  54.8879978 -14.1659986
  77.7159992  55.8389978 -13.2109986  77.6187621  55.0441924 -13.5513874
  79.6719992  40.8939978 -15.9539986  80.1629992  40.2639978 -16.4809986
  80.2949992  41.1899978 -15.2909986  79.8235304  40.8477376 -15.9365060
  84.6979992  41.1869978 -13.4969986  84.8759992  40.5399978 -12.8139986
  84.6439992  42.0209978 -13.0299986  84.7150678  41.2111604 -13.3403699
  86.5759992  56.1349978 -15.1009986  87.4419992  56.5019978 -15.2789986
  86.3299992  55.6959978 -15.9149986  86.6612097  56.1258525 -15.2353981
  93.2849992  55.6979978 -12.4219986  93.0909992  54.9499978 -12.9869986
  93.2459992  56.4559978 -13.0049986  93.2531645  55.6980786 -12.5781852
  78.9319992  39.6939978  -0.6819986  78.5659992  38.9279978  -0.2399986
  79.8449992  39.7229978  -0.3959986  79.0053172  39.5930324  -0.5828110
  80.9049992  39.0439978   0.8530014  81.8039992  38.7699978   0.6690014
  80.5189992  38.3019978   1.3180014  80.9757307  38.9062196   0.8907098
  79.5299992  55.8459978 -16.4739986  79.2619992  56.1319978 -15.5999986
  80.3009992  55.2999978 -16.3209986  79.5975927  55.8112779 -16.3338795
  89.3269992  38.3769978   1.0360014  89.4029992  37.9509978   1.8890014
  90.2199992  38.3899978   0.6930014  89.4582303  38.3203493   1.1065497
  92.5029992  54.4499978  -0.2719986  91.7209992  54.2629978  -0.7919986
  92.4309992  55.3789978  -0.0549986  92.3861924  54.5500637  -0.3138398
 106.9089992  48.3359978 -10.2409986 106.9979992  49.2799978 -10.3729986
 106.2709992  48.0609978 -10.8989986 106.8349062  48.4279812 -10.3480359
 105.8419992  47.5909978  -6.8219986 105.8039992  46.9449978  -6.1169986
 105.5199992  47.1239978  -7.5929986 105.7932679  47.4394276  -6.8297079
  98.2099992  47.2049978  -5.2289986  98.2519992  46.5799978  -4.5059986
  98.9129992  47.8289978  -5.0469986  98.3107345  47.2037873  -5.1054726
 109.5479992  50.5299978  -8.5209986 109.1069992  49.8099978  -8.0699986
 109.5349992  51.2509978  -7.8909986 109.4859215  50.5289291  -8.3741895
  99.1339992  51.6549978  -6.6939986  98.7639992  50.8529978  -7.0639986
 100.0749992  51.4869978  -6.6479986  99.2105984  51.5224638  -6.7384397
  95.7439992  45.3149978 -11.3019986  95.2959992  46.1609978 -11.3199986
  95.1829992  44.7359978 -11.8169986  95.6068546  45.3523993 -11.3741109
  96.4539992  47.4769978  -9.1759986  96.6679992  46.7069978  -8.6479986
  97.1919992  47.5669978  -9.7789986  96.5830200  47.3838587  -9.1852965
 106.6599992  55.6339978  -8.3089986 107.2789992  54.9579978  -8.5819986
 106.4509992  55.4159978  -7.3999986 106.7166056  55.5118869  -8.2236033
 104.2309992  50.0229978  -6.4159986 104.5349992  49.3369978  -7.0109986
 104.9529992  50.1419978  -5.7979986 104.3701240  49.9452314  -6.4139041
 112.8939992  41.6249978  -5.5559986 112.9439992  42.2349978  -4.8199986
 113.3199992  42.0859978  -6.2789986 112.9584108  41.7707709  -5.5529888
 107.3719992  44.4169978  -6.0889986 107.5149992  43.4709978  -6.0689986
 107.2659992  44.6239978  -7.0169986 107.3772403  44.3154797  -6.2117761
 100.5269992  42.5189978  -8.8159986 100.5699992  43.3789978  -9.2349986
 100.0689992  41.9669978  -9.4499986 100.4709871  42.5619245  -8.9589239
 108.2489992  42.6499978 -10.4149986 108.8959992  42.3209978  -9.7909986
 108.7589992  43.1669978 -11.0379986 108.4064351  42.6749067 -10.4138963
  97.1469992  44.9159978  -8.0539986  97.8009992  44.3659978  -7.6219986
  97.1709992  44.6419978  -8.9709986  97.2397199  44.8037167  -8.1188332
 102.3039992  46.4659978  -8.8389986 102.9199992  45.9389978  -8.3299986
 101.7169992  45.8259978  -9.2429986 102.3090154  46.3073954  -8.8239055
 113.2859992  43.1029978  -3.3199986 112.5969992  43.7609978  -3.4149986
 113.3009992  42.9049978  -2.3829986 113.1937756  43.1662603  -3.2064188
  99.3369992  41.4369978  -4.7419986  99.1179992  41.9669978  -5.5089986
  98.6689992  41.6629978  -4.0949986  99.2166975  41.5400967  -4.7594860
 106.7059992  50.9369978 -11.1979986 106.4109992  50.6139978 -12.0499986
 106.3819992  51.8369978 -11.1569986 106.6218460  51.0144464 -11.3090286
 101.9059992  49.1119978  -4.4549986 101.1659992  49.7109978  -4.3509986
 102.6199992  49.6659978  -4.7699986 101.9013500  49.2687829  -4.4833629
 110.0129992  41.9409978  -8.4349986 109.7979992  41.1749978  -7.9019986
 110.6689992  42.4129978  -7.9219986 110.0722673  41.9000728  -8.2928010
  98.9309992  43.3289978  -6.7899986  99.5449992  43.9619978  -6.4169986
  99.4429992  42.8569978  -7.4459986  99.0841962  43.3517249  -6.8277065
 100.3139992  51.0769978  -3.6679986 100.3079992  51.9559978  -4.0459986
  99.4599992  50.9929978  -3.2429986 100.1977925  51.1859535  -3.6623113
  96.4349992  50.7479978 -12.8859986  96.1629992  50.9769978 -13.7739986
  96.4799992  51.5849978 -12.4249986  96.4038097  50.8926163 -12.9453317
 110.0599992  52.3689978  -6.1729986 109.1179992  52.4279978  -6.0109986
 110.3359992  53.2749978  -6.3099986 109.9685865  52.4995288  -6.1693808
 110.3599992  40.6559978  -4.7559986 109.6239992  41.2659978  -4.7929986
 111.0439992  41.0709978  -5.2819986 110.3515367  40.7957551  -4.8321826
 103.3639992  38.7419978  -7.2899986 103.2459992  37.7939978  -7.3439986
 102.5089992  39.0749978  -7.0169986 103.2322805  38.6572202  -7.2604921
 108.3119992  54.1499978  -9.5479986 108.7369992  53.4429978 -10.0329986
 108.6289992  54.9519978  -9.9649986 108.4130266  54.1615190  -9.6707521
 109.4719992  52.0509978 -11.0389986 109.2139992  51.3609978 -11.6509986
 109.5429992  51.6079978 -10.1939986 109.4463050  51.8966814 -11.0084379
 111.1579992  50.6179978  -2.5619986 111.2969992  50.0259978  -3.3009986
 111.3249992  51.4909978  -2.9179986 111.1996193  50.6548896  -2.7113789
 105.6299992  47.5799978 -12.7889986 104.9189992  48.1149978 -13.1409986
 106.3209992  47.6349978 -13.4489986 105.6260751  47.6606777 -12.9264142
 105.6839992  46.0369978 -15.7509986 106.3849992  46.0599978 -15.0989986
 105.9859992  45.4089978 -16.4069986 105.8208202  45.9552212 -15.7504391
 112.9989992  46.9579978  -4.4959986 112.3469992  47.6519978  -4.4069986
 113.4649992  47.1679978  -5.3059986 112.9725937  47.0815019  -4.5932467
 109.0359992  47.7889978 -11.8379986 108.3039992  48.0179978 -11.2639986
 109.4829992  47.0759978 -11.3829986 108.9963963  47.7238729 -11.6980055
 108.9329992  45.9639978  -2.7699986 109.0129992  46.7269978  -2.1979986
 108.3319992  46.2429978  -3.4599986 108.8626547  46.1062457  -2.7849953
 100.6809992  48.4199978  -9.9549986 100.3509992  48.0489978 -10.7729986
 101.2699992  47.7489978  -9.6079986 100.7153970  48.2786063 -10.0200596
 102.0479992  51.8479978  -7.2739986 101.9529992  51.2689978  -8.0299986
 102.7769992  51.4769978  -6.7779986 102.1336011  51.7185561  -7.3103972
 101.0479992  47.1879978  -6.3219986 101.6129992  47.3099978  -7.0839986
 101.3669992  47.8259978  -5.6829986 101.1684166  47.2908791  -6.3399652
 107.3569992  52.6919978  -5.5879986 107.1169992  53.3539978  -4.9399986
 107.1589992  51.8569978  -5.1629986 107.2973826  52.6698115  -5.4418434
 101.9279992  51.5879978  -1.6039986 101.6169992  52.3699978  -1.1489986
 101.2779992  51.4349978  -2.2899986 101.7975538  51.6744087  -1.6344102
 107.9069992  46.9519978 -14.1519986 108.4859992  47.1019978 -13.4059986
 108.3209992  47.4219978 -14.8759986 108.0423358  47.0360954 -14.1476047
  98.8479992  47.7859978  -2.3759986  98.9179992  48.4369978  -1.6769986
  97.9569992  47.8889978  -2.7109986  98.7371690  47.8889249  -2.3256957
 105.6329992  53.6879978 -10.7169986 106.1069992  53.9839978  -9.9399986
 105.0699992  54.4269978 -10.9499986 105.6217890  53.8283036 -10.6421899
 100.1669992  53.6589978  -0.8409986 100.1749992  53.5229978  -1.7879986
  99.2509992  53.5419978  -0.5889986 100.0442528  53.6245463  -0.9366757
 111.6059992  38.7019978 -14.3389986 110.7059992  38.8409978 -14.0439986
 111.8579992  39.5329978 -14.7409986 111.5168683  38.8334055 -14.3529768
  99.6719992  47.4889978 -12.3659986  99.3799992  48.2569978 -12.8569986
  98.9969992  46.8299978 -12.5289986  99.5408497  47.5049745 -12.4551740
 112.7949992  53.0679978 -15.9629986 112.8679992  54.0069978 -15.7929986
 113.6999992  52.7629978 -16.0189986 112.9274170  53.1553282 -15.9472937
  95.7649992  49.8519978  -3.5509986  95.2629992  49.8239978  -4.3659986
  95.7699992  48.9469978  -3.2409986  95.6969832  49.7257486  -3.6205879
  95.5149992  52.6329978  -6.6669986  96.4609992  52.4879978  -6.6859986
  95.4019992  53.4169978  -6.1299986  95.6293578  52.7191697  -6.5969683
 113.7129992  53.2989978  -0.9839986 113.6629992  52.3429978  -1.0219986
 112.8859992  53.5659978  -0.5829986 113.5943831  53.2044680  -0.9349879
 104.6909992  52.8729978  -2.1079986 104.7789992  53.6989978  -1.6329986
 103.8279992  52.5429978  -1.8589986 104.5863357  52.9415468  -2.0092347
 105.1059992  56.6449978 -12.3019986 105.0299992  56.5239978 -13.2489986
 105.1379992  57.5939978 -12.1839986 105.0999380  56.7567677 -12.4154819
  98.7589992  55.4339978 -10.5209986  98.9109992  55.0859978  -9.6429986
  97.9079992  55.0769978 -10.7769986  98.6648344  55.3380879 -10.4353132
 108.2069992  55.7989978 -15.2999986 108.5819992  55.0549978 -15.7709986
 108.2119992  55.5289978 -14.3819986 108.2590098  55.6606392 -15.2403371
 107.8759992  55.7249978 -12.5509986 106.9409992  55.8249978 -12.3719986
 108.1559992  55.0149978 -11.9719986 107.7859471  55.6427933 -12.4483305
 110.8649992  44.7919978  -0.5039986 110.4569992  45.2719978  -1.2249986
 110.9049992  43.8859978  -0.8119986 110.8146221  44.7352449  -0.6441733
  98.0139992  51.1759978  -2.5079986  98.2299992  50.8139978  -1.6479986
  97.1579992  50.8009978  -2.7169986  97.9278810  51.0758837  -2.4187320
 100.6319992  39.6459978  -6.5119986  99.7709992  39.5589978  -6.9199986
 100.6099992  40.5019978  -6.0839986 100.5110491  39.7498003  -6.5100418
 105.2949992  39.3679978  -3.1369986 105.7149992  38.9529978  -2.3839986
 104.3619992  39.1889978  -3.0199986 105.2263736  39.2869910  -3.0181032
 108.6219992  43.1229978  -2.2839986 108.1079992  42.9979978  -1.4859986
 108.4659992  44.0359978  -2.5279986 108.5306967  43.2292123  -2.2079063
 109.3839992  47.9839978 -16.5229986 109.4259992  47.7619978 -17.4529986
 110.2329992  48.3829978 -16.3329986 109.5045253  48.0075498 -16.6246178
 104.9569992  41.8599978 -15.8519986 104.7029992  41.8789978 -14.9299986
 104.6999992  40.9889978 -16.1539986 104.8874508  41.7448280 -15.7665197
 100.7229992  44.6109978  -5.4169986 100.0819992  44.5709978  -4.7079986
 100.7609992  45.5379978  -5.6549986 100.6403010  44.7307668  -5.3520054
 100.7199992  44.8319978 -10.5049986  99.8279992  44.4919978 -10.5639986
 101.1709992  44.4549978 -11.2609986 100.6587642  44.7344910 -10.6152274
 106.2559992  45.2479978 -11.6879986 105.8469992  46.0629978 -11.9799986
 106.9759992  45.1079978 -12.3019986 106.2974439  45.3405372 -11.8109885
 105.3579992  45.4239978  -0.1999986 104.7949992  44.7189978   0.1210014
 106.1839992  45.3029978   0.2680014 105.3926674  45.3112165  -0.0928249
 107.2609992  44.6939978  -8.8739986 107.0649992  45.2999978  -9.5889986
 107.4419992  43.8609978  -9.3079986 107.2586584  44.6642513  -9.0305788
  98.4729992  44.9319978  -3.5499986  98.4349992  45.3319978  -2.6809986
  97.9829992  44.1149978  -3.4599986  98.4015330  44.8762674  -3.4188711
 101.8389992  42.3059978 -16.7509986 101.4079992  41.8609978 -16.0219986
 101.1209992  42.6769978 -17.2639986 101.6829176  42.2952051 -16.7205070
  95.0819992  42.0479978  -9.6989986  95.7119992  42.0189978  -8.9799986
  95.5309992  41.6229978 -10.4299986  95.2290835  41.9865660  -9.6992341
  96.3559992  42.7939978 -14.2749986  96.8299992  43.3849978 -14.8599986
  95.6379992  43.3239978 -13.9279986  96.3238640  42.9465511 -14.3082031
 106.5249992  46.3319978  -4.2029986 106.8479992  45.7009978  -4.8459986
 106.0839992  45.7979978  -3.5419986 106.5096379  46.1733468  -4.2017418
 103.3019992  42.2599978  -9.4189986 102.3909992  42.3169978  -9.1299986
 103.8069992  42.1999978  -8.6079986 103.2456873  42.2596826  -9.2698793
  98.1299992  43.8889978 -10.5919986  97.2409992  43.9879978 -10.9319986
  98.4269992  43.0469978 -10.9379986  98.0484177  43.7887687 -10.6853060
 101.7829992  43.8889978 -12.9349986 102.7149992  44.0179978 -12.7569986
 101.5679992  44.5579978 -13.5849986 101.8814472  43.9970806 -12.9985109
 107.7069992  41.4949978  -6.1539986 107.0299992  41.6259978  -5.4909986
 107.2219992  41.3399978  -6.9649986 107.5487405  41.4919947  -6.1727830
 100.4569992  45.0829978 -15.3689986  99.9149992  44.7039978 -16.0599986
 101.2909992  45.2779978 -15.7969986 100.4954390  45.0574079 -15.5215608
 110.9949992  57.1659978   0.1220014 111.1939992  57.5899978  -0.7119986
 111.6499992  57.5099978   0.7290014 111.1108522  57.2706301   0.0897852
  98.5929992  49.6399978  -0.2699986  99.3249992  49.8949978   0.2920014
  97.8119992  49.8449978   0.2460014  98.5876526  49.7025450  -0.1234824
 104.6219992  45.0469978  -7.5319986 105.1859992  44.5009978  -8.0789986
 104.4739992  44.5259978  -6.7429986 104.6793037  44.9016787  -7.5002771
  99.6239992  41.1839978 -11.1129986  99.3069992  40.2809978 -11.1489986
 100.4049992  41.1859978 -11.6659986  99.6862431  41.0607797 -11.1926898
 103.2479992  43.4359978  -5.1179986 102.4129992  43.8899978  -5.0069986
 103.7719992  43.7119978  -4.3659986 103.2046072  43.5353948  -5.0011864
 103.7929992  49.6489978 -13.4329986 103.0479992  49.1409978 -13.7549986
 103.6579992  49.6979978 -12.4869986 103.6728963  49.5861731 -13.3491174
 110.9429992  48.7819978  -4.6459986 111.5839992  49.2379978  -5.1899986
 110.1119992  48.8949978  -5.1089986 110.9185287  48.8596921  -4.7830113
 107.6899992  42.4629978 -15.2339986 106.7519992  42.5739978 -15.3849986
 107.9879992  43.3189978 -14.9269986 107.6016318  42.5940158 -15.2131855
 105.3119992  49.8329978  -2.1959986 104.9659992  49.4509978  -1.3889986
 105.1119992  50.7659978  -2.1249986 105.2375987  49.9069002  -2.0759539
 108.4089992  44.3299978 -13.5729986 109.3009992  44.1919978 -13.2539986
 108.4649992  45.1209978 -14.1099986 108.5387325  44.4179918 -13.6018783
  98.9169992  48.9439978  -7.6629986  99.6619992  48.9409978  -8.2649986
  98.9949992  48.1199978  -7.1819986  99.0293365  48.8322384  -7.6802570
 105.9179992  51.1069978 -14.4079986 105.6229992  51.9339978 -14.0259986
 105.2149992  50.4879978 -14.2109986 105.7826379  51.1364171 -14.3291346
  95.9249992  47.4039978  -2.3479986  96.1479992  46.9859978  -1.5169986
  95.3229992  46.7919978  -2.7709986  95.8741513  47.2639606  -2.2913260
 102.9419992  46.9209978  -0.1349986 102.6459992  46.7559978  -1.0309986
 103.8729992  46.7009978  -0.1459986 103.0274401  46.8686879  -0.2589794
 107.5619992  52.2949978  -2.2459986 106.6619992  52.4779978  -2.5129986
 107.5959992  52.5539978  -1.3249986 107.4433748  52.3550554  -2.1580836
 113.2939992  44.5389978 -13.8779986 112.7389992  44.1429978 -14.5509986
 113.3939992  45.4499978 -14.1559986 113.2316816  44.6079505 -14.0074967
 113.2569992  50.3399978  -1.0409986 112.4059992  50.5779978  -1.4089986
 113.8469992  50.3229978  -1.7939986 113.2203812  50.3702524  -1.1931547
 111.5889992  53.3249978 -13.4129986 111.2159992  52.4999978 -13.1039986
 111.8659992  53.1419978 -14.3109986 111.5753463  53.1872569 -13.4920475
 108.7489992  48.1329978  -6.3919986 107.8209992  47.9019978  -6.4189986
 109.1999992  47.3559978  -6.7219986 108.6828165  47.9962774  -6.4403210
 101.2919992  52.4619978 -10.2589986 101.8199992  53.2349978 -10.4589986
 100.4119992  52.6859978 -10.5609986 101.2453435  52.5982700 -10.3272690
  97.0469992  47.3239978 -15.6719986  97.6629992  47.9509978 -15.2919986
  96.1849992  47.6399978 -15.3999986  97.0147678  47.4524412 -15.5832791
 102.7199992  50.1249978 -10.6829986 102.4789992  51.0499978 -10.6409986
 101.9789992  49.6659978 -10.2859986 102.5869206  50.1895915 -10.6236231
 103.2339992  54.2739978  -4.3679986 103.5969992  55.1279978  -4.6009986
 103.7659992  53.9819978  -3.6269986 103.3555141  54.3513895  -4.2997903
 101.4029992  55.1459978 -11.1369986 100.4529992  55.2519978 -11.0859986
 101.7549992  55.9669978 -10.7929986 101.3205472  55.2714923 -11.0835148
 106.7779992  50.3729978  -4.6669986 106.3529992  50.1449978  -3.8409986
 107.3589992  49.6339978  -4.8489986 106.7983395  50.2419545  -4.5785586
 108.9809992  51.3019978 -15.5929986 109.3349992  50.9219978 -14.7889986
 108.0329992  51.2079978 -15.5059986 108.9012298  51.2372452 -15.4711313
 109.4369992  54.9249978  -2.1979986 108.8349992  54.3689978  -2.6929986
 109.7179992  55.5919978  -2.8239986 109.3925757  54.9390744  -2.3504325
 113.4849992  55.7809978 -15.3919986 114.2289992  56.3669978 -15.5319986
 112.7909992  56.3499978 -15.0589986 113.4929809  55.9380818 -15.3661410
  97.5589992  42.1579978  -2.7899986  96.6669992  42.4959978  -2.8579986
  97.4609992  41.3019978  -2.3719986  97.4234475  42.0886543  -2.7428296
 109.8469992  49.9739978 -13.3659986 109.5699992  49.2459978 -12.8099986
 110.7749992  50.0929978 -13.1609986 109.9344499  49.8904213 -13.2621956
  97.2109992  53.9619978  -4.3549986  97.4279992  53.0299978  -4.3859986
  97.4569992  54.2369978  -3.4719986  97.2739809  53.8715686  -4.2398309
 102.0089992  51.9839978 -14.6899986 102.1559992  51.4639978 -13.8999986
 102.0059992  52.8909978 -14.3829986 102.0287102  52.0353953 -14.5404075
  98.4619992  49.2359978 -14.1789986  97.7759992  49.5889978 -13.6119986
  98.9849992  49.9989978 -14.4259986  98.4388402  49.3873901 -14.1348199
 106.2939992  41.8989978  -3.8999986 106.9929992  41.9729978  -3.2499986
 105.9129992  41.0339978  -3.7459986 106.3382097  41.7922389  -3.7902003
 107.0779992  41.5509978 -12.8029986 107.2979992  42.0219978 -13.6069986
 107.6369992  41.9449978 -12.1329986 107.1836731  41.6687287 -12.8224967
 104.7469992  53.6809978 -13.9399986 103.9299992  54.1779978 -13.8879986
 105.2759992  54.1569978 -14.5809986 104.7068125  53.8131989 -14.0194694
 104.2779992  43.2789978 -11.9679986 105.0899992  43.7829978 -11.9219986
 104.0339992  43.1339978 -11.0539986 104.3561467  43.3283749 -11.8381425
 104.8139992  44.2649978  -2.7839986 104.9329992  44.8389978  -2.0269986
 105.4689992  43.5769978  -2.6689986 104.9188684  44.2505194  -2.6648326
 105.1619992  40.3599978 -11.0299986 104.8149992  40.9769978 -10.3859986
 105.8209992  40.8609978 -11.5119986 105.2035090  40.5121575 -11.0069319
 102.0849992  54.7249978 -13.9589986 102.2459992  55.5249978 -14.4589986
 101.8879992  55.0319978 -13.0739986 102.0803906  54.8758678 -13.9077667
 100.8199992  41.4229978 -14.3429986 100.7359992  42.3109978 -13.9959986
 101.7099992  41.1579978 -14.1109986 100.9288163  41.5087179 -14.2641404
 111.0179992  42.1719978  -1.9489986 110.1019992  42.4339978  -2.0359986
 111.3539992  42.1689978  -2.8449986 110.9378499  42.2075163  -2.0821234
 109.6209992  45.9219978  -7.8529986 108.8229992  45.5069978  -8.1809986
 110.0659992  45.2319978  -7.3619986 109.5719684  45.7718628  -7.8314773
  99.0779992  51.8499978 -15.2829986  99.6699992  52.5499978 -15.0059986
  99.5369992  51.4169978 -16.0019986  99.2211652  51.8872675 -15.3423467
  97.3939992  44.5149978 -16.1669986  97.3489992  45.4539978 -15.9879986
  96.5059992  44.2789978 -16.4359986  97.2678166  44.6116687 -16.1788476
 110.7069992  55.1779978  -6.2309986 110.5509992  55.8569978  -6.8879986
 111.6399992  55.2499978  -6.0279986 110.8117387  55.2806390  -6.2934658
  98.2019992  39.2959978  -7.4929986  97.9729992  39.3549978  -8.4209986
  97.7599992  38.5049978  -7.1869986  98.1108801  39.1970540  -7.5785271
  97.1329992  53.2369978 -11.3329986  96.2999992  53.7089978 -11.3059986
  97.6779992  53.7469978 -11.9319986  97.0927857  53.3704791 -11.4102858
  96.4209992  55.8489978  -0.0029986  96.9609992  55.6329978   0.7570014
  95.9399992  55.0439978  -0.1929986  96.4299219  55.7105156   0.0754282
 101.0179992  54.7689978   1.6170014 101.7859992  54.3099978   1.9580014
 100.9969992  54.5429978   0.6870014 101.1202135  54.6756668   1.5379491
 105.1099992  54.2769978 -17.0069986 104.4659992  53.6459978 -16.6859986
 105.8719992  53.7459978 -17.2389986 105.1248058  54.1187902 -16.9943962
 107.5949992  53.1489978   0.3460014 107.2439992  52.2919978   0.5900014
 108.3209992  53.2909978   0.9530014 107.6451895  53.0511351   0.4613770
 109.7149992  54.0939978 -16.7739986 109.9979992  53.2989978 -16.3209986
 110.4539992  54.3269978 -17.3349986 109.8537096  54.0167049 -16.7878896
  96.3279992  49.6599978   0.9510014  96.4719992  48.7579978   0.6650014
  95.5559992  49.9459978   0.4640014  96.2432733  49.5751798   0.8459532
 100.6689992  50.0029978 -16.9159986 100.7339992  49.2089978 -16.3859986
 101.3219992  49.8849978 -17.6059986 100.7661605  49.8783430 -16.9367003
 102.9829992  49.6289978   0.3840014 102.6549992  49.8999978  -0.4729986
 103.1349992  48.6879978   0.2960014 102.9586412  49.5389046   0.2547822
 108.7179992  49.5449978  -2.2329986 109.4629992  50.1339978  -2.3519986
 107.9609992  50.1269978  -2.1689986 108.7175470  49.7042128  -2.2406201
  97.1609992  46.8599978   0.3710014  97.5689992  46.0029978   0.2500014
  96.8999992  46.8739978   1.2920014  97.1816016  46.7445119   0.4789192
 101.8189992  47.9759978 -14.6099986 101.3589992  47.4919978 -13.9249986
 102.0739992  47.3069978 -15.2459986 101.7904856  47.8193669 -14.6021603
 101.1079992  45.8689978  -2.2539986 100.4889992  46.5429978  -1.9739986
 101.4519992  46.1899978  -3.0879986 101.0697123  46.0046887  -2.3283612
 102.8899992  46.2189978 -16.3479986 102.7089992  46.0639978 -17.2749986
 103.8399992  46.3269978 -16.3029986 102.9936566  46.2123669 -16.4689071
 106.1269992  48.3399978   1.0230014 107.0809992  48.4239978   0.9960014
 105.9669992  47.6279978   1.6430014 106.2357182  48.2552842   1.1030733
 112.2799992  48.5729978 -16.9019986 112.0059992  48.1489978 -17.7149986
 112.3189992  49.5049978 -17.1189986 112.2477716  48.6408827 -17.0425714
 101.4469992  43.2239978  -1.1719986 101.5969992  42.4949978  -1.7739986
 101.4489992  44.0009978  -1.7309986 101.4677967  43.2292708  -1.3299459
 101.8599992  41.5929978  -3.6789986 102.3949992  42.0449978  -4.3309986
 101.0069992  41.4849978  -4.1019986 101.8180374  41.6402665  -3.8253290
 103.4409992  47.0329978  -3.4399986 104.1919992  46.8769978  -4.0129986
 103.1019992  47.8849978  -3.7149986 103.4979587  47.1268138  -3.5555922
 107.8569992  44.8479978   1.5890014 108.0489992  43.9169978   1.4770014
 108.7149992  45.2729978   1.5780014 107.9992182  44.7780070   1.5721862
 109.1739992  47.6369978  -0.3339986 108.8919992  48.3459978  -0.9119986
 110.1159992  47.5639978  -0.4849986 109.2627921  47.7242193  -0.4335775
  99.9259992  44.4219978   0.7390014  99.1579992  43.8889978   0.5290014
 100.6039992  44.1119978   0.1400014  99.9127235  44.3071754   0.6292413
 102.6649992  39.0499978  -3.2479986 102.5669992  39.9959978  -3.3529986
 101.9229992  38.6769978  -3.7239986 102.5512534  39.1291773  -3.3267400
 103.9289992  43.3709978   0.3160014 103.6939992  43.1519978   1.2170014
 103.1459992  43.1639978  -0.1939986 103.7909095  43.3129892   0.3705353
 106.6449992  42.4989978  -0.6089986 105.6969992  42.5309978  -0.4769986
 106.9569992  41.8729978   0.0450014 106.5575293  42.4187923  -0.5025852
 108.2789992  41.1329978   1.3960014 108.1819992  40.1809978   1.3910014
 107.9569992  41.4009978   2.2570014 108.2222468  41.0390884   1.5116210
  98.1059992  42.3419978   0.4440014  98.3179992  41.6359978  -0.1659986
  97.9949992  41.9049978   1.2880014  98.1200269  42.1861921   0.4745873
 102.8869992  38.3439978  -0.5769986 103.5989992  37.7039978  -0.5909986
 102.7859992  38.6099978  -1.4899986 102.9707387  38.2924330  -0.7024437
 103.2409992  40.0259978   1.4770014 103.1089992  39.5509978   0.6570014
 102.6409992  40.7709978   1.4220014 103.1419070  40.0615789   1.3573251
 102.7869992  56.9089978 -15.3469986 103.7199992  57.0669978 -15.2029986
 102.5229992  57.5849978 -15.9719986 102.8789911  57.0219373 -15.4117278
  96.3549992  51.5459978 -15.8639986  97.2689992  51.6249978 -15.5909986
  96.3629992  50.8589978 -16.5299986  96.4810655  51.4639205 -15.9167083
  95.0039992  56.9389978 -10.7869986  94.3569992  56.4769978 -11.3189986
  95.3589992  56.2669978 -10.2039986  94.9633741  56.7849774 -10.7810825
  95.8739992  55.0189978  -8.9819986  95.5399992  54.1389978  -8.8099986
  96.0969992  55.3649978  -8.1169986  95.8583721  54.9451938  -8.8415832
 113.4229992  55.8289978  -6.0009986 113.4009992  56.0139978  -5.0619986
 114.1129992  56.3969978  -6.3419986 113.5133439  55.9311887  -5.9185209
 112.9859992  55.3959978  -3.0799986 112.4989992  54.6609978  -3.4509986
 113.5349992  55.0019978  -2.4019986 112.9935247  55.2421057  -3.0391539
 111.4369992  51.1859978   1.5590014 110.5709992  51.0809978   1.9530014
 111.8129992  51.9439978   2.0050014 111.3693401  51.2741708   1.6732620
 112.7379992  49.4419978 -12.9269986 113.5879992  49.8629978 -12.7999986
 112.7429992  48.7019978 -12.3199986 112.8551143  49.3996094 -12.8275250
 113.1319992  47.4959978 -11.1039986 112.4059992  47.0159978 -10.7059986
 113.7139992  47.7009978 -10.3709986 113.1112730  47.4580184 -10.9505851
 112.8909992  50.2809978  -6.1559986 113.7249992  49.9029978  -6.4369986
 113.0029992  51.2239978  -6.2749986 113.0201917  50.3567943  -6.2105139
 111.3779992  53.1589978  -3.8489986 110.7299992  53.4839978  -3.2239986
 110.8599992  52.7179978  -4.5229986 111.2194196  53.1438651  -3.8545848
 113.4009992  47.3969978 -14.7129986 112.8789992  47.7529978 -15.4309986
 113.3679992  48.0719978 -14.0339986 113.3250129  47.5369598 -14.7196645
 111.7499992  44.6359978 -16.1619986 111.8459992  45.3029978 -16.8419986
 111.6099992  43.8209978 -16.6429986 111.7442040  44.6170671 -16.3201622
 110.9189992  46.0169978 -10.5409986 110.7689992  45.0719978 -10.5609986
 110.5649992  46.2979978  -9.6969986 110.8506351  45.9256644 -10.4296780
  95.9539992  48.0949978  -6.5299986  96.1389992  48.0129978  -7.4659986
  96.8039992  47.9709978  -6.1069986  96.0940928  48.0670463  -6.6007107
 111.7749992  47.9869978  -0.9019986 112.3579992  47.2519978  -0.7099986
 112.3389992  48.7589978  -0.8549986 111.9309781  47.9908145  -0.8693836
 113.2719992  45.8899978  -0.2169986 112.4089992  45.5109978  -0.3829986
 113.8759992  45.1509978  -0.2919986 113.2356085  45.7383223  -0.2498305
 110.9969992  42.0439978 -17.0439986 111.6079992  41.6729978 -16.4069986
 110.1599992  41.6229978 -16.8479986 110.9674947  41.9362756 -16.9302748
 110.6299992  43.5989978 -12.0779986 110.9089992  42.6919978 -11.9539986
 111.3889992  44.0329978 -12.4669986 110.7708619  43.5334502 -12.1136205
 111.2409992  44.1809978  -6.6419986 112.1739992  44.3929978  -6.6769986
 111.0059992  44.2819978  -5.7199986 111.3369517  44.2236833  -6.5220870
 111.2709992  44.9179978  -3.8659986 110.4279992  45.1859978  -3.4999986
 111.7129992  45.7399978  -4.0769986 111.2154138  45.0658273  -3.8444482
  95.5519992  43.3649978  -0.3899986  96.4709992  43.2429978  -0.1529986
  95.1019992  42.6149978   0.0000014  95.6170087  43.2469608  -0.3048590
 113.5539992  38.8979978   1.4870014 113.9029992  38.2439978   0.8820014
 113.7009992  39.7349978   1.0470014 113.6216824  38.9216024   1.3446304
 111.2429992  40.8619978 -12.0299986 111.4249992  40.4129978 -11.2049986
 110.6429992  40.2779978 -12.4939986 111.1868187  40.7215552 -11.9797261
  96.7729992  41.6779978  -7.4979986  97.2179992  40.8859978  -7.1959986
  97.2389992  42.3939978  -7.0679986  96.8969718  41.6664534  -7.3984735
  95.0769992  44.6769978  -6.4289986  95.5689992  44.4559978  -7.2199986
  95.4389992  45.5169978  -6.1479986  95.1932923  44.7603468  -6.4992593
 113.0729992  41.0069978  -0.1639986 112.1559992  41.2779978  -0.1989986
 113.1959992  40.4719978  -0.9479986 112.9639672  40.9717885  -0.2748138
 113.1099992  40.9299978 -15.5019986 113.5219992  40.2089978 -15.9769986
 113.7909992  41.5989978 -15.4439986 113.2585536  40.9217766 -15.5591976
  95.3909992  40.9349978 -12.3749986  94.4659992  41.1429978 -12.5039986
  95.8449992  41.4189978 -13.0649986  95.3256298  41.0289299 -12.4859549
 110.1609992  55.9189978 -10.4289986 110.8139992  55.5709978 -11.0369986
 110.6719992  56.4069978  -9.7829986 110.3192777  55.9373815 -10.4247953
  95.3539992  39.6729978  -4.0309986  94.6889992  39.4269978  -3.3879986
  94.9109992  40.2949978  -4.6079986  95.2031168  39.7234214  -4.0210152
  97.5459992  52.8479978   0.1140014  96.7249992  53.0229978  -0.3469986
  97.2939992  52.7749978   1.0340014  97.3995594  52.8620717   0.1753611
 100.4999992  53.8219978  -3.6279986 100.0759992  54.6319978  -3.9099986
 101.4049992  53.9079978  -3.9299986 100.5642138  53.9444160  -3.7073585
 104.8119992  55.2209978  -0.6679986 104.9959992  54.8879978   0.2100014
 105.6579992  55.5309978  -0.9899986 104.9516484  55.2172979  -0.5912383
 107.1569992  56.5069978  -1.4239986 107.8339992  55.8739978  -1.6639986
 107.4779992  56.9079978  -0.6169986 107.2931323  56.4745691  -1.3476842
 112.0739992  39.0969978  -2.3449986 111.2609992  39.4219978  -2.7319986
 112.3069992  38.3359978  -2.8779986 111.9941347  39.0386880  -2.4700159
  97.9019992  57.0789978  -3.5799986  97.1819992  57.5189978  -4.0309986
  97.5369992  56.8279978  -2.7319986  97.7539643  57.1053369  -3.5270871
 100.3689992  56.6789978  -4.5499986  99.5049992  56.7509978  -4.1459986
 100.3139992  57.2259978  -5.3339986 100.2431942  56.7627849  -4.6006000
 105.0799992  56.5669978  -5.3749986 104.6229992  57.0959978  -6.0289986
 105.2429992  57.1699978  -4.6499986 105.0394960  56.7209280  -5.3664726
 107.4079992  55.4449978  -4.4299986 106.5029992  55.6099978  -4.6959986
 107.8359992  56.2979978  -4.4959986 107.3421537  55.5829134  -4.4752905
 110.0119992  57.0149978  -4.1349986 109.8299992  57.9309978  -4.3459986
 110.1889992  56.6039978  -4.9819986 110.0110030  57.0848273  -4.2782834
  97.3169992  55.7019978  -6.6699986  97.2989992  55.2759978  -5.8129986
  98.1219992  55.3829978  -7.0789986  97.4232875  55.6006435  -6.6080485
  99.4579992  54.4119978  -8.0149986  99.2389992  53.4949978  -7.8449986
 100.2819992  54.5519978  -7.5489986  99.5394702  54.3055511  -7.9287473
 101.9949992  54.8819978  -7.1659986 102.2079992  53.9939978  -7.4529986
 102.0599992  54.8469978  -6.2119986 102.0329149  54.7558326  -7.0762631
 105.5039992  40.5459978  -8.0219986 104.8299992  39.9159978  -7.7659986
 106.0679992  40.0619978  -8.6249986 105.4880384  40.3943708  -8.0684980
 110.6469992  38.6529978  -7.9089986 111.2499992  39.2009978  -8.4109986
 109.7769992  38.9719978  -8.1499986 110.6119157  38.7710373  -8.0102090
 112.3739992  39.7919978  -9.5759986 112.9849992  39.2779978 -10.1029986
 112.7559992  40.6689978  -9.5529986 112.5093305  39.8402050  -9.6450582
  97.8309992  39.1799978 -10.1999986  97.0539992  38.9449978 -10.7069986
  98.3609992  38.3829978 -10.1909986  97.7963451  39.0401268 -10.2681373
  96.6669992  38.9779978 -14.3959986  97.1059992  39.5889978 -14.9879986
  96.0329992  39.5159978 -13.9219986  96.6413859  39.1344064 -14.4129695
 102.4099992  39.1059978 -10.3869986 103.2839992  39.4949978 -10.4159986
 102.2739992  38.8909978  -9.4639986 102.5111953  39.1301643 -10.2662383
 107.9669992  39.1359978  -8.7369986 108.0429992  39.2319978  -9.6869986
 107.6919992  38.2289978  -8.6089986 107.9401871  39.0264146  -8.8496056
 109.3199992  39.1619978 -13.0449986 108.6169992  39.7769978 -13.2549986
 108.8749992  38.3249978 -12.9139986 109.1636550  39.1329668 -13.0560163
  96.5679992  54.9259978 -13.4989986  95.8829992  54.8879978 -14.1659986
  96.5719992  55.8389978 -13.2109986  96.4747621  55.0441924 -13.5513874
  98.5279992  40.8939978 -15.9539986  99.0189992  40.2639978 -16.4809986
  99.1509992  41.1899978 -15.2909986  98.6795304  40.8477376 -15.9365060
 103.5539992  41.1869978 -13.4969986 103.7319992  40.5399978 -12.8139986
 103.4999992  42.0209978 -13.0299986 103.5710678  41.2111604 -13.3403699
 105.4319992  56.1349978 -15.1009986 106.2979992  56.5019978 -15.2789986
 105.1859992  55.6959978 -15.9149986 105.5172097  56.1258525 -15.2353981
 112.1409992  55.6979978 -12.4219986 111.9469992  54.9499978 -12.9869986
 112.1019992  56.4559978 -13.0049986 112.1091645  55.6980786 -12.5781852
  97.7879992  39.6939978  -0.6819986  97.4219992  38.9279978  -0.2399986
  98.7009992  39.7229978  -0.3959986  97.8613172  39.5930324  -0.5828110
  99.7609992  39.0439978   0.8530014 100.6599992  38.7699978   0.6690014
  99.3749992  38.3019978   1.3180014  99.8317307  38.9062196   0.8907098
  98.3859992  55.8459978 -16.4739986  98.1179992  56.1319978 -15.5999986
  99.1569992  55.2999978 -16.3209986  98.4535926  55.8112779 -16.3338795
 108.1829992  38.3769978   1.0360014 108.2589992  37.9509978   1.8890014
 109.0759992  38.3899978   0.6930014 108.3142303  38.3203493   1.1065497
 111.3589992  54.4499978  -0.2719986 110.5769992  54.2629978  -0.7919986
 111.2869992  55.3789978  -0.0549986 111.2421924  54.5500637  -0.3138398
 125.7649992  48.3359978 -10.2409986 125.8539992  49.2799978 -10.3729986
 125.1269992  48.0609978 -10.8989986 125.6909062  48.4279812 -10.3480359
 124.6979992  47.5909978  -6.8219986 124.6599992  46.9449978  -6.1169986
 124.3759992  47.1239978  -7.5929986 124.6492679  47.4394276  -6.8297079
 117.0659992  47.2049978  -5.2289986 117.1079992  46.5799978  -4.5059986
 117.7689992  47.8289978  -5.0469986 117.1667345  47.2037873  -5.1054726
 128.4039992  50.5299978  -8.5209986 127.9629992  49.8099978  -8.0699986
 128.3909992  51.2509978  -7.8909986 128.3419215  50.5289291  -8.3741895
 117.9899992  51.6549978  -6.6939986 117.6199992  50.8529978  -7.0639986
 118.9309992  51.4869978  -6.6479986 118.0665984  51.5224638  -6.7384397
 114.5999992  45.3149978 -11.3019986 114.1519992  46.1609978 -11.3199986
 114.0389992  44.7359978 -11.8169986 114.4628546  45.3523993 -11.3741109
 115.3099992  47.4769978  -9.1759986 115.5239992  46.7069978  -8.6479986
 116.0479992  47.5669978  -9.7789986 115.4390200  47.3838587  -9.1852965
 125.5159992  55.6339978  -8.3089986 126.1349992  54.9579978  -8.5819986
 125.3069992  55.4159978  -7.3999986 125.5726056  55.5118869  -8.2236033
 123.0869992  50.0229978  -6.4159986 123.3909992  49.3369978  -7.0109986
 123.8089992  50.1419978  -5.7979986 123.2261240  49.9452314  -6.4139041
 131.7499992  41.6249978  -5.5559986 131.7999992  42.2349978  -4.8199986
 132.1759992  42.0859978  -6.2789986 131.8144108  41.7707709  -5.5529888
 126.2279992  44.4169978  -6.0889986 126.3709992  43.4709978  -6.0689986
 126.1219992  44.6239978  -7.0169986 126.2332403  44.3154797  -6.2117761
 119.3829992  42.5189978  -8.8159986 119.4259992  43.3789978  -9.2349986
 118.9249992  41.9669978  -9.4499986 119.3269871  42.5619245  -8.9589239
 127.1049992  42.6499978 -10.4149986 127.7519992  42.3209978  -9.7909986
 127.6149992  43.1669978 -11.0379986 127.2624351  42.6749067 -10.4138963
 116.0029992  44.9159978  -8.0539986 116.6569992  44.3659978  -7.6219986
 116.0269992  44.6419978  -8.9709986 116.0957199  44.8037167  -8.1188332
 121.1599992  46.4659978  -8.8389986 121.7759992  45.9389978  -8.3299986
 120.5729992  45.8259978  -9.2429986 121.1650154  46.3073954  -8.8239055
 132.1419992  43.1029978  -3.3199986 131.4529992  43.7609978  -3.4149986
 132.1569992  42.9049978  -2.3829986 132.0497756  43.1662603  -3.2064188
 118.1929992  41.4369978  -4.7419986 117.9739992  41.9669978  -5.5089986
 117.5249992  41.6629978  -4.0949986 118.0726975  41.5400967  -4.7594860
 125.5619992  50.9369978 -11.1979986 125.2669992  50.6139978 -12.0499986
 125.2379992  51.8369978 -11.1569986 125.4778460  51.0144464 -11.3090286
 120.7619992  49.1119978  -4.4549986 120.0219992  49.7109978  -4.3509986
 121.4759992  49.6659978  -4.7699986 120.7573500  49.2687829  -4.4833629
 128.8689992  41.9409978  -8.4349986 128.6539992  41.1749978  -7.9019986
 129.5249992  42.4129978  -7.9219986 128.9282673  41.9000728  -8.2928010
 117.7869992  43.3289978  -6.7899986 118.4009992  43.9619978  -6.4169986
 118.2989992  42.8569978  -7.4459986 117.9401962  43.3517249  -6.8277065
 119.1699992  51.0769978  -3.6679986 119.1639992  51.9559978  -4.0459986
 118.3159992  50.9929978  -3.2429986 119.0537925  51.1859535  -3.6623113
 115.2909992  50.7479978 -12.8859986 115.0189992  50.9769978 -13.7739986
 115.3359992  51.5849978 -12.4249986 115.2598097  50.8926163 -12.9453317
 128.9159992  52.3689978  -6.1729986 127.9739992  52.4279978  -6.0109986
 129.1919992  53.2749978  -6.3099986 128.8245865  52.4995288  -6.1693808
 129.2159992  40.6559978  -4.7559986 128.4799992  41.2659978  -4.7929986
 129.8999992  41.0709978  -5.2819986 129.2075367  40.7957551  -4.8321826
 122.2199992  38.7419978  -7.2899986 122.1019992  37.7939978  -7.3439986
 121.3649992  39.0749978  -7.0169986 122.0882805  38.6572202  -7.2604921
 127.1679992  54.1499978  -9.5479986 127.5929992  53.4429978 -10.0329986
 127.4849992  54.9519978  -9.9649986 127.2690266  54.1615190  -9.6707521
 128.3279992  52.0509978 -11.0389986 128.0699992  51.3609978 -11.6509986
 128.3989992  51.6079978 -10.1939986 128.3023050  51.8966814 -11.0084379
 130.0139992  50.6179978  -2.5619986 130.1529992  50.0259978  -3.3009986
 130.1809992  51.4909978  -2.9179986 130.0556193  50.6548896  -2.7113789
 124.4859992  47.5799978 -12.7889986 123.7749992  48.1149978 -13.1409986
 125.1769992  47.6349978 -13.4489986 124.4820751  47.6606777 -12.9264142
 124.5399992  46.0369978 -15.7509986 125.2409992  46.0599978 -15.0989986
 124.8419992  45.4089978 -16.4069986 124.6768202  45.9552212 -15.7504391
 131.8549992  46.9579978  -4.4959986 131.2029992  47.6519978  -4.4069986
 132.3209992  47.1679978  -5.3059986 131.8285937  47.0815019  -4.5932467
 127.8919992  47.7889978 -11.8379986 127.1599992  48.0179978 -11.2639986
 128.3389992  47.0759978 -11.3829986 127.8523963  47.7238729 -11.6980055
 127.7889992  45.9639978  -2.7699986 127.8689992  46.7269978  -2.1979986
 127.1879992  46.2429978  -3.4599986 127.7186547  46.1062457  -2.7849953
 119.5369992  48.4199978  -9.9549986 119.2069992  48.0489978 -10.7729986
 120.1259992  47.7489978  -9.6079986 119.5713970  48.2786063 -10.0200596
 120.9039992  51.8479978  -7.2739986 120.8089992  51.2689978  -8.0299986
 121.6329992  51.4769978  -6.7779986 120.9896011  51.7185561  -7.3103972
 119.9039992  47.1879978  -6.3219986 120.4689992  47.3099978  -7.0839986
 120.2229992  47.8259978  -5.6829986 120.0244166  47.2908791  -6.3399652
 126.2129992  52.6919978  -5.5879986 125.9729992  53.3539978  -4.9399986
 126.0149992  51.8569978  -5.1629986 126.1533826  52.6698115  -5.4418434
 120.7839992  51.5879978  -1.6039986 120.4729992  52.3699978  -1.1489986
 120.1339992  51.4349978  -2.2899986 120.6535538  51.6744087  -1.6344102
 126.7629992  46.9519978 -14.1519986 127.3419992  47.1019978 -13.4059986
 127.1769992  47.4219978 -14.8759986 126.8983358  47.0360954 -14.1476047
 117.7039992  47.7859978  -2.3759986 117.7739992  48.4369978  -1.6769986
 116.8129992  47.8889978  -2.7109986 117.5931690  47.8889249  -2.3256957
 124.4889992  53.6879978 -10.7169986 124.9629992  53.9839978  -9.9399986
 123.9259992  54.4269978 -10.9499986 124.4777890  53.8283036 -10.6421899
 119.0229992  53.6589978  -0.8409986 119.0309992  53.5229978  -1.7879986
 118.1069992  53.5419978  -0.5889986 118.9002528  53.6245463  -0.9366757
 130.4619992  38.7019978 -14.3389986 129.5619992  38.8409978 -14.0439986
 130.7139992  39.5329978 -14.7409986 130.3728683  38.8334055 -14.3529768
 118.5279992  47.4889978 -12.3659986 118.2359992  48.2569978 -12.8569986
 117.8529992  46.8299978 -12.5289986 118.3968497  47.5049745 -12.4551740
 131.6509992  53.0679978 -15.9629986 131.7239992  54.0069978 -15.7929986
 132.5559992  52.7629978 -16.0189986 131.7834170  53.1553282 -15.9472937
 114.6209992  49.8519978  -3.5509986 114.1189992  49.8239978  -4.3659986
 114.6259992  48.9469978  -3.2409986 114.5529832  49.7257486  -3.6205879
 114.3709992  52.6329978  -6.6669986 115.3169992  52.4879978  -6.6859986
 114.2579992  53.4169978  -6.1299986 114.4853578  52.7191697  -6.5969683
 132.5689992  53.2989978  -0.9839986 132.5189992  52.3429978  -1.0219986
 131.7419992  53.5659978  -0.5829986 132.4503831  53.2044680  -0.9349879
 123.5469992  52.8729978  -2.1079986 123.6349992  53.6989978  -1.6329986
 122.6839992  52.5429978  -1.8589986 123.4423357  52.9415468  -2.0092347
 123.9619992  56.6449978 -12.3019986 123.8859992  56.5239978 -13.2489986
 123.9939992  57.5939978 -12.1839986 123.9559380  56.7567677 -12.4154819
 117.6149992  55.4339978 -10.5209986 117.7669992  55.0859978  -9.6429986
 116.7639992  55.0769978 -10.7769986 117.5208344  55.3380879 -10.4353132
 127.0629992  55.7989978 -15.2999986 127.4379992  55.0549978 -15.7709986
 127.0679992  55.5289978 -14.3819986 127.1150098  55.6606392 -15.2403371
 126.7319992  55.7249978 -12.5509986 125.7969992  55.8249978 -12.3719986
 127.0119992  55.0149978 -11.9719986 126.6419471  55.6427933 -12.4483305
 129.7209992  44.7919978  -0.5039986 129.3129992  45.2719978  -1.2249986
 129.7609992  43.8859978  -0.8119986 129.6706221  44.7352449  -0.6441733
 116.8699992  51.1759978  -2.5079986 117.0859992  50.8139978  -1.6479986
 116.0139992  50.8009978  -2.7169986 116.7838810  51.0758837  -2.4187320
 119.4879992  39.6459978  -6.5119986 118.6269992  39.5589978  -6.9199986
 119.4659992  40.5019978  -6.0839986 119.3670491  39.7498003  -6.5100418
 124.1509992  39.3679978  -3.1369986 124.5709992  38.9529978  -2.3839986
 123.2179992  39.1889978  -3.0199986 124.0823736  39.2869910  -3.0181032
 127.4779992  43.1229978  -2.2839986 126.9639992  42.9979978  -1.4859986
 127.3219992  44.0359978  -2.5279986 127.3866967  43.2292123  -2.2079063
 128.2399992  47.9839978 -16.5229986 128.2819992  47.7619978 -17.4529986
 129.0889992  48.3829978 -16.3329986 128.3605253  48.0075498 -16.6246178
 123.8129992  41.8599978 -15.8519986 123.5589992  41.8789978 -14.9299986
 123.5559992  40.9889978 -16.1539986 123.7434508  41.7448280 -15.7665197
 119.5789992  44.6109978  -5.4169986 118.9379992  44.5709978  -4.7079986
 119.6169992  45.5379978  -5.6549986 119.4963010  44.7307668  -5.3520054
 119.5759992  44.8319978 -10.5049986 118.6839992  44.4919978 -10.5639986
 120.0269992  44.4549978 -11.2609986 119.5147642  44.7344910 -10.6152274
 125.1119992  45.2479978 -11.6879986 124.7029992  46.0629978 -11.9799986
 125.8319992  45.1079978 -12.3019986 125.1534439  45.3405372 -11.8109885
 124.2139992  45.4239978  -0.1999986 123.6509992  44.7189978   0.1210014
 125.0399992  45.3029978   0.2680014 124.2486674  45.3112165  -0.0928249
 126.1169992  44.6939978  -8.8739986 125.9209992  45.2999978  -9.5889986
 126.2979992  43.8609978  -9.3079986 126.1146584  44.6642513  -9.0305788
 117.3289992  44.9319978  -3.5499986 117.2909992  45.3319978  -2.6809986
 116.8389992  44.1149978  -3.4599986 117.2575330  44.8762674  -3.4188711
 120.6949992  42.3059978 -16.7509986 120.2639992  41.8609978 -16.0219986
 119.9769992  42.6769978 -17.2639986 120.5389176  42.2952051 -16.7205070
 113.9379992  42.0479978  -9.6989986 114.5679992  42.0189978  -8.9799986
 114.3869992  41.6229978 -10.4299986 114.0850835  41.9865660  -9.6992341
 115.2119992  42.7939978 -14.2749986 115.6859992  43.3849978 -14.8599986
 114.4939992  43.3239978 -13.9279986 115.1798640  42.9465511 -14.3082031
 125.3809992  46.3319978  -4.2029986 125.7039992  45.7009978  -4.8459986
 124.9399992  45.7979978  -3.5419986 125.3656379  46.1733468  -4.2017418
 122.1579992  42.2599978  -9.4189986 121.2469992  42.3169978  -9.1299986
 122.6629992  42.1999978  -8.6079986 122.1016873  42.2596826  -9.2698793
 116.9859992  43.8889978 -10.5919986 116.0969992  43.9879978 -10.9319986
 117.2829992  43.0469978 -10.9379986 116.9044177  43.7887687 -10.6853060
 120.6389992  43.8889978 -12.9349986 121.5709992  44.0179978 -12.7569986
 120.4239992  44.5579978 -13.5849986 120.7374472  43.9970806 -12.9985109
 126.5629992  41.4949978  -6.1539986 125.8859992  41.6259978  -5.4909986
 126.0779992  41.3399978  -6.9649986 126.4047405  41.4919947  -6.1727830
 119.3129992  45.0829978 -15.3689986 118.7709992  44.7039978 -16.0599986
 120.1469992  45.2779978 -15.7969986 119.3514390  45.0574079 -15.5215608
 129.8509992  57.1659978   0.1220014 130.0499992  57.5899978  -0.7119986
 130.5059992  57.5099978   0.7290014 129.9668522  57.2706301   0.0897852
 117.4489992  49.6399978  -0.2699986 118.1809992  49.8949978   0.2920014
 116.6679992  49.8449978   0.2460014 117.4436526  49.7025450  -0.1234824
 123.4779992  45.0469978  -7.5319986 124.0419992  44.5009978  -8.0789986
 123.3299992  44.5259978  -6.7429986 123.5353037  44.9016787  -7.5002771
 118.4799992  41.1839978 -11.1129986 118.1629992  40.2809978 -11.1489986
 119.2609992  41.1859978 -11.6659986 118.5422431  41.0607797 -11.1926898
 122.1039992  43.4359978  -5.1179986 121.2689992  43.8899978  -5.0069986
 122.6279992  43.7119978  -4.3659986 122.0606072  43.5353948  -5.0011864
 122.6489992  49.6489978 -13.4329986 121.9039992  49.1409978 -13.7549986
 122.5139992  49.6979978 -12.4869986 122.5288963  49.5861731 -13.3491174
 129.7989992  48.7819978  -4.6459986 130.4399992  49.2379978  -5.1899986
 128.9679992  48.8949978  -5.1089986 129.7745287  48.8596921  -4.7830113
 126.5459992  42.4629978 -15.2339986 125.6079992  42.5739978 -15.3849986
 126.8439992  43.3189978 -14.9269986 126.4576318  42.5940158 -15.2131855
 124.1679992  49.8329978  -2.1959986 123.8219992  49.4509978  -1.3889986
 123.9679992  50.7659978  -2.1249986 124.0935987  49.9069002  -2.0759539
 127.2649992  44.3299978 -13.5729986 128.1569992  44.1919978 -13.2539986
 127.3209992  45.1209978 -14.1099986 127.3947325  44.4179918 -13.6018783
 117.7729992  48.9439978  -7.6629986 118.5179992  48.9409978  -8.2649986
 117.8509992  48.1199978  -7.1819986 117.8853366  48.8322384  -7.6802570
 124.7739992  51.1069978 -14.4079986 124.4789992  51.9339978 -14.0259986
 124.0709992  50.4879978 -14.2109986 124.6386379  51.1364171 -14.3291346
 114.7809992  47.4039978  -2.3479986 115.0039992  46.9859978  -1.5169986
 114.1789992  46.7919978  -2.7709986 114.7301513  47.2639606  -2.2913260
 121.7979992  46.9209978  -0.1349986 121.5019992  46.7559978  -1.0309986
 122.7289992  46.7009978  -0.1459986 121.8834401  46.8686879  -0.2589794
 126.4179992  52.2949978  -2.2459986 125.5179992  52.4779978  -2.5129986
 126.4519992  52.5539978  -1.3249986 126.2993748  52.3550554  -2.1580836
 132.1499992  44.5389978 -13.8779986 131.5949992  44.1429978 -14.5509986
 132.2499992  45.4499978 -14.1559986 132.0876816  44.6079505 -14.0074967
 132.1129992  50.3399978  -1.0409986 131.2619992  50.5779978  -1.4089986
 132.7029992  50.3229978  -1.7939986 132.0763812  50.3702524  -1.1931547
 130.4449992  53.3249978 -13.4129986 130.0719992  52.4999978 -13.1039986
 130.7219992  53.1419978 -14.3109986 130.4313463  53.1872569 -13.4920475
 127.6049992  48.1329978  -6.3919986 126.6769992  47.9019978  -6.4189986
 128.0559992  47.3559978  -6.7219986 127.5388165  47.9962774  -6.4403210
 120.1479992  52.4619978 -10.2589986 120.6759992  53.2349978 -10.4589986
 119.2679992  52.6859978 -10.5609986 120.1013435  52.5982700 -10.3272690
 115.9029992  47.3239978 -15.6719986 116.5189992  47.9509978 -15.2919986
 115.0409992  47.6399978 -15.3999986 115.8707678  47.4524412 -15.5832791
 121.5759992  50.1249978 -10.6829986 121.3349992  51.0499978 -10.6409986
 120.8349992  49.6659978 -10.2859986 121.4429206  50.1895915 -10.6236231
 122.0899992  54.2739978  -4.3679986 122.4529992  55.1279978  -4.6009986
 122.6219992  53.9819978  -3.6269986 122.2115141  54.3513895  -4.2997903
 120.2589992  55.1459978 -11.1369986 119.3089992  55.2519978 -11.0859986
 120.6109992  55.9669978 -10.7929986 120.1765472  55.2714923 -11.0835148
 125.6339992  50.3729978  -4.6669986 125.2089992  50.1449978  -3.8409986
 126.2149992  49.6339978  -4.8489986 125.6543395  50.2419545  -4.5785586
 127.8369992  51.3019978 -15.5929986 128.1909992  50.9219978 -14.7889986
 126.8889992  51.2079978 -15.5059986 127.7572298  51.2372452 -15.4711313
 128.2929992  54.9249978  -2.1979986 127.6909992  54.3689978  -2.6929986
 128.5739992  55.5919978  -2.8239986 128.2485757  54.9390744  -2.3504325
 132.3409992  55.7809978 -15.3919986 133.0849992  56.3669978 -15.5319986
 131.6469992  56.3499978 -15.0589986 132.3489809  55.9380818 -15.3661410
 116.4149992  42.1579978  -2.7899986 115.5229992  42.4959978  -2.8579986
 116.3169992  41.3019978  -2.3719986 116.2794475  42.0886543  -2.7428296
 128.7029992  49.9739978 -13.3659986 128.4259992  49.2459978 -12.8099986
 129.6309992  50.0929978 -13.1609986 128.7904499  49.8904213 -13.2621956
 116.0669992  53.9619978  -4.3549986 116.2839992  53.0299978  -4.3859986
 116.3129992  54.2369978  -3.4719986 116.1299809  53.8715686  -4.2398309
 120.8649992  51.9839978 -14.6899986 121.0119992  51.4639978 -13.8999986
 120.8619992  52.8909978 -14.3829986 120.8847102  52.0353953 -14.5404075
 117.3179992  49.2359978 -14.1789986 116.6319992  49.5889978 -13.6119986
 117.8409992  49.9989978 -14.4259986 117.2948402  49.3873901 -14.1348199
 125.1499992  41.8989978  -3.8999986 125.8489992  41.9729978  -3.2499986
 124.7689992  41.0339978  -3.7459986 125.1942097  41.7922389  -3.7902003
 125.9339992  41.5509978 -12.8029986 126.1539992  42.0219978 -13.6069986
 126.4929992  41.9449978 -12.1329986 126.0396731  41.6687287 -12.8224967
 123.6029992  53.6809978 -13.9399986 122.7859992  54.1779978 -13.8879986
 124.1319992  54.1569978 -14.5809986 123.5628125  53.8131989 -14.0194694
 123.1339992  43.2789978 -11.9679986 123.9459992  43.7829978 -11.9219986
 122.8899992  43.1339978 -11.0539986 123.2121467  43.3283749 -11.8381425
 123.6699992  44.2649978  -2.7839986 123.7889992  44.8389978  -2.0269986
 124.3249992  43.5769978  -2.6689986 123.7748684  44.2505194  -2.6648326
 124.0179992  40.3599978 -11.0299986 123.6709992  40.9769978 -10.3859986
 124.6769992  40.8609978 -11.5119986 124.0595090  40.5121575 -11.0069319
 120.9409992  54.7249978 -13.9589986 121.1019992  55.5249978 -14.4589986
 120.7439992  55.0319978 -13.0739986 120.9363906  54.8758678 -13.9077667
 119.6759992  41.4229978 -14.3429986 119.5919992  42.3109978 -13.9959986
 120.5659992  41.1579978 -14.1109986 119.7848163  41.5087179 -14.2641404
 129.8739992  42.1719978  -1.9489986 128.9579992  42.4339978  -2.0359986
 130.2099992  42.1689978  -2.8449986 129.7938499  42.2075163  -2.0821234
 128.4769992  45.9219978  -7.8529986 127.6789992  45.5069978  -8.1809986
 128.9219992  45.2319978  -7.3619986 128.4279684  45.7718628  -7.8314773
 117.9339992  51.8499978 -15.2829986 118.5259992  52.5499978 -15.0059986
 118.3929992  51.4169978 -16.0019986 118.0771652  51.8872675 -15.3423467
 116.2499992  44.5149978 -16.1669986 116.2049992  45.4539978 -15.9879986
 115.3619992  44.2789978 -16.4359986 116.1238166  44.6116687 -16.1788476
 129.5629992  55.1779978  -6.2309986 129.4069992  55.8569978  -6.8879986
 130.4959992  55.2499978  -6.0279986 129.6677387  55.2806390  -6.2934658
 117.0579992  39.2959978  -7.4929986 116.8289992  39.3549978  -8.4209986
 116.6159992  38.5049978  -7.1869986 116.9668801  39.1970540  -7.5785271
 115.9889992  53.2369978 -11.3329986 115.1559992  53.7089978 -11.3059986
 116.5339992  53.7469978 -11.9319986 115.9487857  53.3704791 -11.4102858
 115.2769992  55.8489978  -0.0029986 115.8169992  55.6329978   0.7570014
 114.7959992  55.0439978  -0.1929986 115.2859219  55.7105156   0.0754282
 119.8739992  54.7689978   1.6170014 120.6419992  54.3099978   1.9580014
 119.8529992  54.5429978   0.6870014 119.9762135  54.6756668   1.5379491
 123.9659992  54.2769978 -17.0069986 123.3219992  53.6459978 -16.6859986
 124.7279992  53.7459978 -17.2389986 123.9808058  54.1187902 -16.9943962
 126.4509992  53.1489978   0.3460014 126.0999992  52.2919978   0.5900014
 127.1769992  53.2909978   0.9530014 126.5011895  53.0511351   0.4613770
 128.5709992  54.0939978 -16.7739986 128.8539992  53.2989978 -16.3209986
 129.3099992  54.3269978 -17.3349986 128.7097096  54.0167049 -16.7878896
 115.1839992  49.6599978   0.9510014 115.3279992  48.7579978   0.6650014
 114.4119992  49.9459978   0.4640014 115.0992733  49.5751798   0.8459532
 119.5249992  50.0029978 -16.9159986 119.5899992  49.2089978 -16.3859986
 120.1779992  49.8849978 -17.6059986 119.6221605  49.8783430 -16.9367003
 121.8389992  49.6289978   0.3840014 121.5109992  49.8999978  -0.4729986
 121.9909992  48.6879978   0.2960014 121.8146412  49.5389046   0.2547822
 127.5739992  49.5449978  -2.2329986 128.3189992  50.1339978  -2.3519986
 126.8169992  50.1269978  -2.1689986 127.5735470  49.7042128  -2.2406201
 116.0169992  46.8599978   0.3710014 116.4249992  46.0029978   0.2500014
 115.7559992  46.8739978   1.2920014 116.0376016  46.7445119   0.4789192
 120.6749992  47.9759978 -14.6099986 120.2149992  47.4919978 -13.9249986
 120.9299992  47.3069978 -15.2459986 120.6464856  47.8193669 -14.6021603
 119.9639992  45.8689978  -2.2539986 119.3449992  46.5429978  -1.9739986
 120.3079992  46.1899978  -3.0879986 119.9257123  46.0046887  -2.3283612
 121.7459992  46.2189978 -16.3479986 121.5649992  46.0639978 -17.2749986
 122.6959992  46.3269978 -16.3029986 121.8496566  46.2123669 -16.4689071
 124.9829992  48.3399978   1.0230014 125.9369992  48.4239978   0.9960014
 124.8229992  47.6279978   1.6430014 125.0917182  48.2552842   1.1030733
 131.1359992  48.5729978 -16.9019986 130.8619992  48.1489978 -17.7149986
 131.1749992  49.5049978 -17.1189986 131.1037716  48.6408827 -17.0425714
 120.3029992  43.2239978  -1.1719986 120.4529992  42.4949978  -1.7739986
 120.3049992  44.0009978  -1.7309986 120.3237967  43.2292708  -1.3299459
 120.7159992  41.5929978  -3.6789986 121.2509992  42.0449978  -4.3309986
 119.8629992  41.4849978  -4.1019986 120.6740374  41.6402665  -3.8253290
 122.2969992  47.0329978  -3.4399986 123.0479992  46.8769978  -4.0129986
 121.9579992  47.8849978  -3.7149986 122.3539587  47.1268138  -3.5555922
 126.7129992  44.8479978   1.5890014 126.9049992  43.9169978   1.4770014
 127.5709992  45.2729978   1.5780014 126.8552182  44.7780070   1.5721862
 128.0299992  47.6369978  -0.3339986 127.7479992  48.3459978  -0.9119986
 128.9719992  47.5639978  -0.4849986 128.1187921  47.7242193  -0.4335775
 118.7819992  44.4219978   0.7390014 118.0139992  43.8889978   0.5290014
 119.4599992  44.1119978   0.1400014 118.7687235  44.3071754   0.6292413
 121.5209992  39.0499978  -3.2479986 121.4229992  39.9959978  -3.3529986
 120.7789992  38.6769978  -3.7239986 121.4072534  39.1291773  -3.3267400
 122.7849992  43.3709978   0.3160014 122.5499992  43.1519978   1.2170014
 122.0019992  43.1639978  -0.1939986 122.6469095  43.3129892   0.3705353
 125.5009992  42.4989978  -0.6089986 124.5529992  42.5309978  -0.4769986
 125.8129992  41.8729978   0.0450014 125.4135293  42.4187923  -0.5025852
 127.1349992  41.1329978   1.3960014 127.0379992  40.1809978   1.3910014
 126.8129992  41.4009978   2.2570014 127.0782468  41.0390884   1.5116210
 116.9619992  42.3419978   0.4440014 117.1739992  41.6359978  -0.1659986
 116.8509992  41.9049978   1.2880014 116.9760269  42.1861921   0.4745873
 121.7429992  38.3439978  -0.5769986 122.4549992  37.7039978  -0.5909986
 121.6419992  38.6099978  -1.4899986 121.8267387  38.2924330  -0.7024437
 122.0969992  40.0259978   1.4770014 121.9649992  39.5509978   0.6570014
 121.4969992  40.7709978   1.4220014 121.9979070  40.0615789   1.3573251
 121.6429992  56.9089978 -15.3469986 122.5759992  57.0669978 -15.2029986
 121.3789992  57.5849978 -15.9719986 121.7349911  57.0219373 -15.4117278
 115.2109992  51.5459978 -15.8639986 116.1249992  51.6249978 -15.5909986
 115.2189992  50.8589978 -16.5299986 115.3370655  51.4639205 -15.9167083
 113.8599992  56.9389978 -10.7869986 113.2129992  56.4769978 -11.3189986
 114.2149992  56.2669978 -10.2039986 113.8193741  56.7849774 -10.7810825
 114.7299992  55.0189978  -8.9819986 114.3959992  54.1389978  -8.8099986
 114.9529992  55.3649978  -8.1169986 114.7143721  54.9451938  -8.8415832
 132.2789992  55.8289978  -6.0009986 132.2569992  56.0139978  -5.0619986
 132.9689992  56.3969978  -6.3419986 132.3693439  55.9311887  -5.9185209
 131.8419992  55.3959978  -3.0799986 131.3549992  54.6609978  -3.4509986
 132.3909992  55.0019978  -2.4019986 131.8495247  55.2421057  -3.0391539
 130.2929992  51.1859978   1.5590014 129.4269992  51.0809978   1.9530014
 130.6689992  51.9439978   2.0050014 130.2253401  51.2741708   1.6732620
 131.5939992  49.4419978 -12.9269986 132.4439992  49.8629978 -12.7999986
 131.5989992  48.7019978 -12.3199986 131.7111143  49.3996094 -12.8275250
 131.9879992  47.4959978 -11.1039986 131.2619992  47.0159978 -10.7059986
 132.5699992  47.7009978 -10.3709986 131.9672730  47.4580184 -10.9505851
 131.7469992  50.2809978  -6.1559986 132.5809992  49.9029978  -6.4369986
 131.8589992  51.2239978  -6.2749986 131.8761917  50.3567943  -6.2105139
 130.2339992  53.1589978  -3.8489986 129.5859992  53.4839978  -3.2239986
 129.7159992  52.7179978  -4.5229986 130.0754196  53.1438651  -3.8545848
 132.2569992  47.3969978 -14.7129986 131.7349992  47.7529978 -15.4309986
 132.2239992  48.0719978 -14.0339986 132.1810129  47.5369598 -14.7196645
 130.6059992  44.6359978 -16.1619986 130.7019992  45.3029978 -16.8419986
 130.4659992  43.8209978 -16.6429986 130.6002040  44.6170671 -16.3201622
 129.7749992  46.0169978 -10.5409986 129.6249992  45.0719978 -10.5609986
 129.4209992  46.2979978  -9.6969986 129.7066351  45.9256644 -10.4296780
 114.8099992  48.0949978  -6.5299986 114.9949992  48.0129978  -7.4659986
 115.6599992  47.9709978  -6.1069986 114.9500928  48.0670463  -6.6007107
 130.6309992  47.9869978  -0.9019986 131.2139992  47.2519978  -0.7099986
 131.1949992  48.7589978  -0.8549986 130.7869781  47.9908145  -0.8693836
 132.1279992  45.8899978  -0.2169986 131.2649992  45.5109978  -0.3829986
 132.7319992  45.1509978  -0.2919986 132.0916085  45.7383223  -0.2498305
 129.8529992  42.0439978 -17.0439986 130.4639992  41.6729978 -16.4069986
 129.0159992  41.6229978 -16.8479986 129.8234947  41.9362756 -16.9302748
 129.4859992  43.5989978 -12.0779986 129.7649992  42.6919978 -11.9539986
 130.2449992  44.0329978 -12.4669986 129.6268619  43.5334502 -12.1136205
 130.0969992  44.1809978  -6.6419986 131.0299992  44.3929978  -6.6769986
 129.8619992  44.2819978  -5.7199986 130.1929517  44.2236833  -6.5220870
 130.1269992  44.9179978  -3.8659986 129.2839992  45.1859978  -3.4999986
 130.5689992  45.7399978  -4.0769986 130.0714138  45.0658273  -3.8444482
 114.4079992  43.3649978  -0.3899986 115.3269992  43.2429978  -0.1529986
 113.9579992  42.6149978   0.0000014 114.4730087  43.2469608  -0.3048590
 132.4099992  38.8979978   1.4870014 132.7589992  38.2439978   0.8820014
 132.5569992  39.7349978   1.0470014 132.4776824  38.9216024   1.3446304
 130.0989992  40.8619978 -12.0299986 130.2809992  40.4129978 -11.2049986
 129.4989992  40.2779978 -12.4939986 130.0428187  40.7215552 -11.9797261
 115.6289992  41.6779978  -7.4979986 116.0739992  40.8859978  -7.1959986
 116.0949992  42.3939978  -7.0679986 115.7529718  41.6664534  -7.3984735
 113.9329992  44.6769978  -6.4289986 114.4249992  44.4559978  -7.2199986
 114.2949992  45.5169978  -6.1479986 114.0492923  44.7603468  -6.4992593
 131.9289992  41.0069978  -0.1639986 131.0119992  41.2779978  -0.1989986
 132.0519992  40.4719978  -0.9479986 131.8199672  40.9717885  -0.2748138
 131.9659992  40.9299978 -15.5019986 132.3779992  40.2089978 -15.9769986
 132.6469992  41.5989978 -15.4439986 132.1145536  40.9217766 -15.5591976
 114.2469992  40.9349978 -12.3749986 113.3219992  41.1429978 -12.5039986
 114.7009992  41.4189978 -13.0649986 114.1816298  41.0289299 -12.4859549
 129.0169992  55.9189978 -10.4289986 129.6699992  55.5709978 -11.0369986
 129.5279992  56.4069978  -9.7829986 129.1752777  55.9373815 -10.4247953
 114.2099992  39.6729978  -4.0309986 113.5449992  39.4269978  -3.3879986
 113.7669992  40.2949978  -4.6079986 114.0591168  39.7234214  -4.0210152
 116.4019992  52.8479978   0.1140014 115.5809992  53.0229978  -0.3469986
 116.1499992  52.7749978   1.0340014 116.2555594  52.8620717   0.1753611
 119.3559992  53.8219978  -3.6279986 118.9319992  54.6319978  -3.9099986
 120.2609992  53.9079978  -3.9299986 119.4202138  53.9444160  -3.7073585
 123.6679992  55.2209978  -0.6679986 123.8519992  54.8879978   0.2100014
 124.5139992  55.5309978  -0.9899986 123.8076484  55.2172979  -0.5912383
 126.0129992  56.5069978  -1.4239986 126.6899992  55.8739978  -1.6639986
 126.3339992  56.9079978  -0.6169986 126.1491323  56.4745691  -1.3476842
 130.9299992  39.0969978  -2.3449986 130.1169992  39.4219978  -2.7319986
 131.1629992  38.3359978  -2.8779986 130.8501347  39.0386880  -2.4700159
 116.7579992  57.0789978  -3.5799986 116.0379992  57.5189978  -4.0309986
 116.3929992  56.8279978  -2.7319986 116.6099643  57.1053369  -3.5270871
 119.2249992  56.6789978  -4.5499986 118.3609992  56.7509978  -4.1459986
 119.1699992  57.2259978  -5.3339986 119.0991942  56.7627849  -4.6006000
 123.9359992  56.5669978  -5.3749986 123.4789992  57.0959978  -6.0289986
 124.0989992  57.1699978  -4.6499986 123.8954960  56.7209280  -5.3664726
 126.2639992  55.4449978  -4.4299986 125.3589992  55.6099978  -4.6959986
 126.6919992  56.2979978  -4.4959986 126.1981537  55.5829134  -4.4752905
 128.8679992  57.0149978  -4.1349986 128.6859992  57.9309978  -4.3459986
 129.0449992  56.6039978  -4.9819986 128.8670030  57.0848273  -4.2782834
 116.1729992  55.7019978  -6.6699986 116.1549992  55.2759978  -5.8129986
 116.9779992  55.3829978  -7.0789986 116.2792875  55.6006435  -6.6080485
 118.3139992  54.4119978  -8.0149986 118.0949992  53.4949978  -7.8449986
 119.1379992  54.5519978  -7.5489986 118.3954702  54.3055511  -7.9287473
 120.8509992  54.8819978  -7.1659986 121.0639992  53.9939978  -7.4529986
 120.9159992  54.8469978  -6.2119986 120.8889149  54.7558326  -7.0762631
 124.3599992  40.5459978  -8.0219986 123.6859992  39.9159978  -7.7659986
 124.9239992  40.0619978  -8.6249986 124.3440384  40.3943708  -8.0684980
 129.5029992  38.6529978  -7.9089986 130.1059992  39.2009978  -8.4109986
 128.6329992  38.9719978  -8.1499986 129.4679157  38.7710373  -8.0102090
 131.2299992  39.7919978  -9.5759986 131.8409992  39.2779978 -10.1029986
 131.6119992  40.6689978  -9.5529986 131.3653305  39.8402050  -9.6450582
 116.6869992  39.1799978 -10.1999986 115.9099992  38.9449978 -10.7069986
 117.2169992  38.3829978 -10.1909986 116.6523451  39.0401268 -10.2681373
 115.5229992  38.9779978 -14.3959986 115.9619992  39.5889978 -14.9879986
 114.8889992  39.5159978 -13.9219986 115.4973859  39.1344064 -14.4129695
 121.2659992  39.1059978 -10.3869986 122.1399992  39.4949978 -10.4159986
 121.1299992  38.8909978  -9.4639986 121.3671953  39.1301643 -10.2662383
 126.8229992  39.1359978  -8.7369986 126.8989992  39.2319978  -9.6869986
 126.5479992  38.2289978  -8.6089986 126.7961871  39.0264146  -8.8496056
 128.1759992  39.1619978 -13.0449986 127.4729992  39.7769978 -13.2549986
 127.7309992  38.3249978 -12.9139986 128.0196550  39.1329668 -13.0560163
 115.4239992  54.9259978 -13.4989986 114.7389992  54.8879978 -14.1659986
 115.4279992  55.8389978 -13.2109986 115.3307621  55.0441924 -13.5513874
 117.3839992  40.8939978 -15.9539986 117.8749992  40.2639978 -16.4809986
 118.0069992  41.1899978 -15.2909986 117.5355304  40.8477376 -15.9365060
 122.4099992  41.1869978 -13.4969986 122.5879992  40.5399978 -12.8139986
 122.3559992  42.0209978 -13.0299986 122.4270678  41.2111604 -13.3403699
 124.2879992  56.1349978 -15.1009986 125.1539992  56.5019978 -15.2789986
 124.0419992  55.6959978 -15.9149986 124.3732097  56.1258525 -15.2353981
 130.9969992  55.6979978 -12.4219986 130.8029992  54.9499978 -12.9869986
 130.9579992  56.4559978 -13.0049986 130.9651645  55.6980786 -12.5781852
 116.6439992  39.6939978  -0.6819986 116.2779992  38.9279978  -0.2399986
 117.5569992  39.7229978  -0.3959986 116.7173172  39.5930324  -0.5828110
 118.6169992  39.0439978   0.8530014 119.5159992  38.7699978   0.6690014
 118.2309992  38.3019978   1.3180014 118.6877307  38.9062196   0.8907098
 117.2419992  55.8459978 -16.4739986 116.9739992  56.1319978 -15.5999986
 118.0129992  55.2999978 -16.3209986 117.3095926  55.8112779 -16.3338795
 127.0389992  38.3769978   1.0360014 127.1149992  37.9509978   1.8890014
 127.9319992  38.3899978   0.6930014 127.1702303  38.3203493   1.1065497
 130.2149992  54.4499978  -0.2719986 129.4329992  54.2629978  -0.7919986
 130.1429992  55.3789978  -0.0549986 130.0981924  54.5500637  -0.3138398
 144.6209992  48.3359978 -10.2409986 144.7099992  49.2799978 -10.3729986
 143.9829992  48.0609978 -10.8989986 144.5469062  48.4279812 -10.3480359
 143.5539992  47.5909978  -6.8219986 143.5159992  46.9449978  -6.1169986
 143.2319992  47.1239978  -7.5929986 143.5052679  47.4394276  -6.8297079
 135.9219992  47.2049978  -5.2289986 135.9639992  46.5799978  -4.5059986
 136.6249992  47.8289978  -5.0469986 136.0227345  47.2037873  -5.1054726
 136.8459992  51.6549978  -6.6939986 136.4759992  50.8529978  -7.0639986
 137.7869992  51.4869978  -6.6479986 136.9225984  51.5224638  -6.7384397
 133.4559992  45.3149978 -11.3019986 133.0079992  46.1609978 -11.3199986
 132.8949992  44.7359978 -11.8169986 133.3188546  45.3523993 -11.3741109
 134.1659992  47.4769978  -9.1759986 134.3799992  46.7069978  -8.6479986
 134.9039992  47.5669978  -9.7789986 134.2950200  47.3838587  -9.1852965
 144.3719992  55.6339978  -8.3089986 144.9909992  54.9579978  -8.5819986
 144.1629992  55.4159978  -7.3999986 144.4286056  55.5118869  -8.2236033
 141.9429992  50.0229978  -6.4159986 142.2469992  49.3369978  -7.0109986
 142.6649992  50.1419978  -5.7979986 142.0821240  49.9452314  -6.4139041
 145.0839992  44.4169978  -6.0889986 145.2269992  43.4709978  -6.0689986
 144.9779992  44.6239978  -7.0169986 145.0892403  44.3154797  -6.2117761
 138.2389992  42.5189978  -8.8159986 138.2819992  43.3789978  -9.2349986
 137.7809992  41.9669978  -9.4499986 138.1829871  42.5619245  -8.9589239
 134.8589992  44.9159978  -8.0539986 135.5129992  44.3659978  -7.6219986
 134.8829992  44.6419978  -8.9709986 134.9517199  44.8037167  -8.1188332
 140.0159992  46.4659978  -8.8389986 140.6319992  45.9389978  -8.3299986
 139.4289992  45.8259978  -9.2429986 140.0210154  46.3073954  -8.8239055
 137.0489992  41.4369978  -4.7419986 136.8299992  41.9669978  -5.5089986
 136.3809992  41.6629978  -4.0949986 136.9286975  41.5400967  -4.7594860
 144.4179992  50.9369978 -11.1979986 144.1229992  50.6139978 -12.0499986
 144.0939992  51.8369978 -11.1569986 144.3338460  51.0144464 -11.3090286
 139.6179992  49.1119978  -4.4549986 138.8779992  49.7109978  -4.3509986
 140.3319992  49.6659978  -4.7699986 139.6133500  49.2687829  -4.4833629
 136.6429992  43.3289978  -6.7899986 137.2569992  43.9619978  -6.4169986
 137.1549992  42.8569978  -7.4459986 136.7961962  43.3517249  -6.8277065
 138.0259992  51.0769978  -3.6679986 138.0199992  51.9559978  -4.0459986
 137.1719992  50.9929978  -3.2429986 137.9097925  51.1859535  -3.6623113
 134.1469992  50.7479978 -12.8859986 133.8749992  50.9769978 -13.7739986
 134.1919992  51.5849978 -12.4249986 134.1158097  50.8926163 -12.9453317
 141.0759992  38.7419978  -7.2899986 140.9579992  37.7939978  -7.3439986
 140.2209992  39.0749978  -7.0169986 140.9442805  38.6572202  -7.2604921
 143.3419992  47.5799978 -12.7889986 142.6309992  48.1149978 -13.1409986
 144.0329992  47.6349978 -13.4489986 143.3380751  47.6606777 -12.9264142
 143.3959992  46.0369978 -15.7509986 144.0969992  46.0599978 -15.0989986
 143.6979992  45.4089978 -16.4069986 143.5328202  45.9552212 -15.7504391
 138.3929992  48.4199978  -9.9549986 138.0629992  48.0489978 -10.7729986
 138.9819992  47.7489978  -9.6079986 138.4273970  48.2786063 -10.0200596
 139.7599992  51.8479978  -7.2739986 139.6649992  51.2689978  -8.0299986
 140.4889992  51.4769978  -6.7779986 139.8456011  51.7185561  -7.3103972
 138.7599992  47.1879978  -6.3219986 139.3249992  47.3099978  -7.0839986
 139.0789992  47.8259978  -5.6829986 138.8804166  47.2908791  -6.3399652
 145.0689992  52.6919978  -5.5879986 144.8289992  53.3539978  -4.9399986
 144.8709992  51.8569978  -5.1629986 145.0093826  52.6698115  -5.4418434
 139.6399992  51.5879978  -1.6039986 139.3289992  52.3699978  -1.1489986
 138.9899992  51.4349978  -2.2899986 139.5095538  51.6744087  -1.6344102
 136.5599992  47.7859978  -2.3759986 136.6299992  48.4369978  -1.6769986
 135.6689992  47.8889978  -2.7109986 136.4491690  47.8889249  -2.3256957
 143.3449992  53.6879978 -10.7169986 143.8189992  53.9839978  -9.9399986
 142.7819992  54.4269978 -10.9499986 143.3337890  53.8283036 -10.6421899
 137.8789992  53.6589978  -0.8409986 137.8869992  53.5229978  -1.7879986
 136.9629992  53.5419978  -0.5889986 137.7562528  53.6245463  -0.9366757
 137.3839992  47.4889978 -12.3659986 137.0919992  48.2569978 -12.8569986
 136.7089992  46.8299978 -12.5289986 137.2528497  47.5049745 -12.4551740
 133.4769992  49.8519978  -3.5509986 132.9749992  49.8239978  -4.3659986
 133.4819992  48.9469978  -3.2409986 133.4089832  49.7257486  -3.6205879
 133.2269992  52.6329978  -6.6669986 134.1729992  52.4879978  -6.6859986
 133.1139992  53.4169978  -6.1299986 133.3413578  52.7191697  -6.5969683
 142.4029992  52.8729978  -2.1079986 142.4909992  53.6989978  -1.6329986
 141.5399992  52.5429978  -1.8589986 142.2983357  52.9415468  -2.0092347
 142.8179992  56.6449978 -12.3019986 142.7419992  56.5239978 -13.2489986
 142.8499992  57.5939978 -12.1839986 142.8119380  56.7567677 -12.4154819
 136.4709992  55.4339978 -10.5209986 136.6229992  55.0859978  -9.6429986
 135.6199992  55.0769978 -10.7769986 136.3768344  55.3380879 -10.4353132
 135.7259992  51.1759978  -2.5079986 135.9419992  50.8139978  -1.6479986
 134.8699992  50.8009978  -2.7169986 135.6398810  51.0758837  -2.4187320
 138.3439992  39.6459978  -6.5119986 137.4829992  39.5589978  -6.9199986
 138.3219992  40.5019978  -6.0839986 138.2230491  39.7498003  -6.5100418
 143.0069992  39.3679978  -3.1369986 143.4269992  38.9529978  -2.3839986
 142.0739992  39.1889978  -3.0199986 142.9383736  39.2869910  -3.0181032
 142.6689992  41.8599978 -15.8519986 142.4149992  41.8789978 -14.9299986
 142.4119992  40.9889978 -16.1539986 142.5994508  41.7448280 -15.7665197
 138.4349992  44.6109978  -5.4169986 137.7939992  44.5709978  -4.7079986
 138.4729992  45.5379978  -5.6549986 138.3523010  44.7307668  -5.3520054
 138.4319992  44.8319978 -10.5049986 137.5399992  44.4919978 -10.5639986
 138.8829992  44.4549978 -11.2609986 138.3707642  44.7344910 -10.6152274
 143.9679992  45.2479978 -11.6879986 143.5589992  46.0629978 -11.9799986
 144.6879992  45.1079978 -12.3019986 144.0094439  45.3405372 -11.8109885
 143.0699992  45.4239978  -0.1999986 142.5069992  44.7189978   0.1210014
 143.8959992  45.3029978   0.2680014 143.1046674  45.3112165  -0.0928249
 144.9729992  44.6939978  -8.8739986 144.7769992  45.2999978  -9.5889986
 145.1539992  43.8609978  -9.3079986 144.9706584  44.6642513  -9.0305788
 136.1849992  44.9319978  -3.5499986 136.1469992  45.3319978  -2.6809986
 135.6949992  44.1149978  -3.4599986 136.1135330  44.8762674  -3.4188711
 139.5509992  42.3059978 -16.7509986 139.1199992  41.8609978 -16.0219986
 138.8329992  42.6769978 -17.2639986 139.3949176  42.2952051 -16.7205070
 132.7939992  42.0479978  -9.6989986 133.4239992  42.0189978  -8.9799986
 133.2429992  41.6229978 -10.4299986 132.9410835  41.9865660  -9.6992341
 134.0679992  42.7939978 -14.2749986 134.5419992  43.3849978 -14.8599986
 133.3499992  43.3239978 -13.9279986 134.0358640  42.9465511 -14.3082031
 144.2369992  46.3319978  -4.2029986 144.5599992  45.7009978  -4.8459986
 143.7959992  45.7979978  -3.5419986 144.2216379  46.1733468  -4.2017418
 141.0139992  42.2599978  -9.4189986 140.1029992  42.3169978  -9.1299986
 141.5189992  42.1999978  -8.6079986 140.9576873  42.2596826  -9.2698793
 135.8419992  43.8889978 -10.5919986 134.9529992  43.9879978 -10.9319986
 136.1389992  43.0469978 -10.9379986 135.7604177  43.7887687 -10.6853060
 139.4949992  43.8889978 -12.9349986 140.4269992  44.0179978 -12.7569986
 139.2799992  44.5579978 -13.5849986 139.5934472  43.9970806 -12.9985109
 145.4189992  41.4949978  -6.1539986 144.7419992  41.6259978  -5.4909986
 144.9339992  41.3399978  -6.9649986 145.2607405  41.4919947  -6.1727830
 138.1689992  45.0829978 -15.3689986 137.6269992  44.7039978 -16.0599986
 139.0029992  45.2779978 -15.7969986 138.2074390  45.0574079 -15.5215608
 136.3049992  49.6399978  -0.2699986 137.0369992  49.8949978   0.2920014
 135.5239992  49.8449978   0.2460014 136.2996526  49.7025450  -0.1234824
 142.3339992  45.0469978  -7.5319986 142.8979992  44.5009978  -8.0789986
 142.1859992  44.5259978  -6.7429986 142.3913037  44.9016787  -7.5002771
 137.3359992  41.1839978 -11.1129986 137.0189992  40.2809978 -11.1489986
 138.1169992  41.1859978 -11.6659986 137.3982431  41.0607797 -11.1926898
 140.9599992  43.4359978  -5.1179986 140.1249992  43.8899978  -5.0069986
 141.4839992  43.7119978  -4.3659986 140.9166072  43.5353948  -5.0011864
 141.5049992  49.6489978 -13.4329986 140.7599992  49.1409978 -13.7549986
 141.3699992  49.6979978 -12.4869986 141.3848963  49.5861731 -13.3491174
 145.4019992  42.4629978 -15.2339986 144.4639992  42.5739978 -15.3849986
 145.6999992  43.3189978 -14.9269986 145.3136318  42.5940158 -15.2131855
 143.0239992  49.8329978  -2.1959986 142.6779992  49.4509978  -1.3889986
 142.8239992  50.7659978  -2.1249986 142.9495987  49.9069002  -2.0759539
 136.6289992  48.9439978  -7.6629986 137.3739992  48.9409978  -8.2649986
 136.7069992  48.1199978  -7.1819986 136.7413365  48.8322384  -7.6802570
 143.6299992  51.1069978 -14.4079986 143.3349992  51.9339978 -14.0259986
 142.9269992  50.4879978 -14.2109986 143.4946379  51.1364171 -14.3291346
 133.6369992  47.4039978  -2.3479986 133.8599992  46.9859978  -1.5169986
 133.0349992  46.7919978  -2.7709986 133.5861513  47.2639606  -2.2913260
 140.6539992  46.9209978  -0.1349986 140.3579992  46.7559978  -1.0309986
 141.5849992  46.7009978  -0.1459986 140.7394401  46.8686879  -0.2589794
 145.2739992  52.2949978  -2.2459986 144.3739992  52.4779978  -2.5129986
 145.3079992  52.5539978  -1.3249986 145.1553748  52.3550554  -2.1580836
 139.0039992  52.4619978 -10.2589986 139.5319992  53.2349978 -10.4589986
 138.1239992  52.6859978 -10.5609986 138.9573435  52.5982700 -10.3272690
 134.7589992  47.3239978 -15.6719986 135.3749992  47.9509978 -15.2919986
 133.8969992  47.6399978 -15.3999986 134.7267678  47.4524412 -15.5832791
 140.4319992  50.1249978 -10.6829986 140.1909992  51.0499978 -10.6409986
 139.6909992  49.6659978 -10.2859986 140.2989206  50.1895915 -10.6236231
 140.9459992  54.2739978  -4.3679986 141.3089992  55.1279978  -4.6009986
 141.4779992  53.9819978  -3.6269986 141.0675141  54.3513895  -4.2997903
 139.1149992  55.1459978 -11.1369986 138.1649992  55.2519978 -11.0859986
 139.4669992  55.9669978 -10.7929986 139.0325472  55.2714923 -11.0835148
 144.4899992  50.3729978  -4.6669986 144.0649992  50.1449978  -3.8409986
 145.0709992  49.6339978  -4.8489986 144.5103395  50.2419545  -4.5785586
 135.2709992  42.1579978  -2.7899986 134.3789992  42.4959978  -2.8579986
 135.1729992  41.3019978  -2.3719986 135.1354475  42.0886543  -2.7428296
 134.9229992  53.9619978  -4.3549986 135.1399992  53.0299978  -4.3859986
 135.1689992  54.2369978  -3.4719986 134.9859809  53.8715686  -4.2398309
 139.7209992  51.9839978 -14.6899986 139.8679992  51.4639978 -13.8999986
 139.7179992  52.8909978 -14.3829986 139.7407102  52.0353953 -14.5404075
 136.1739992  49.2359978 -14.1789986 135.4879992  49.5889978 -13.6119986
 136.6969992  49.9989978 -14.4259986 136.1508402  49.3873901 -14.1348199
 144.0059992  41.8989978  -3.8999986 144.7049992  41.9729978  -3.2499986
 143.6249992  41.0339978  -3.7459986 144.0502097  41.7922389  -3.7902003
 144.7899992  41.5509978 -12.8029986 145.0099992  42.0219978 -13.6069986
 145.3489992  41.9449978 -12.1329986 144.8956731  41.6687287 -12.8224967
 142.4589992  53.6809978 -13.9399986 141.6419992  54.1779978 -13.8879986
 142.9879992  54.1569978 -14.5809986 142.4188125  53.8131989 -14.0194694
 141.9899992  43.2789978 -11.9679986 142.8019992  43.7829978 -11.9219986
 141.7459992  43.1339978 -11.0539986 142.0681467  43.3283749 -11.8381425
 142.5259992  44.2649978  -2.7839986 142.6449992  44.8389978  -2.0269986
 143.1809992  43.5769978  -2.6689986 142.6308684  44.2505194  -2.6648326
 142.8739992  40.3599978 -11.0299986 142.5269992  40.9769978 -10.3859986
 143.5329992  40.8609978 -11.5119986 142.9155090  40.5121575 -11.0069319
 139.7969992  54.7249978 -13.9589986 139.9579992  55.5249978 -14.4589986
 139.5999992  55.0319978 -13.0739986 139.7923906  54.8758678 -13.9077667
 138.5319992  41.4229978 -14.3429986 138.4479992  42.3109978 -13.9959986
 139.4219992  41.1579978 -14.1109986 138.6408163  41.5087179 -14.2641404
 136.7899992  51.8499978 -15.2829986 137.3819992  52.5499978 -15.0059986
 137.2489992  51.4169978 -16.0019986 136.9331652  51.8872675 -15.3423467
 135.1059992  44.5149978 -16.1669986 135.0609992  45.4539978 -15.9879986
 134.2179992  44.2789978 -16.4359986 134.9798166  44.6116687 -16.1788476
 135.9139992  39.2959978  -7.4929986 135.6849992  39.3549978  -8.4209986
 135.4719992  38.5049978  -7.1869986 135.8228801  39.1970540  -7.5785271
 134.8449992  53.2369978 -11.3329986 134.0119992  53.7089978 -11.3059986
 135.3899992  53.7469978 -11.9319986 134.8047857  53.3704791 -11.4102858
 134.1329992  55.8489978  -0.0029986 134.6729992  55.6329978   0.7570014
 133.6519992  55.0439978  -0.1929986 134.1419219  55.7105156   0.0754282
 138.7299992  54.7689978   1.6170014 139.4979992  54.3099978   1.9580014
 138.7089992  54.5429978   0.6870014 138.8322135  54.6756668   1.5379491
 142.8219992  54.2769978 -17.0069986 142.1779992  53.6459978 -16.6859986
 143.5839992  53.7459978 -17.2389986 142.8368058  54.1187902 -16.9943962
 145.3069992  53.1489978   0.3460014 144.9559992  52.2919978   0.5900014
 146.0329992  53.2909978   0.9530014 145.3571895  53.0511351   0.4613770
 134.0399992  49.6599978   0.9510014 134.1839992  48.7579978   0.6650014
 133.2679992  49.9459978   0.4640014 133.9552733  49.5751798   0.8459532
 138.3809992  50.0029978 -16.9159986 138.4459992  49.2089978 -16.3859986
 139.0339992  49.8849978 -17.6059986 138.4781605  49.8783430 -16.9367003
 140.6949992  49.6289978   0.3840014 140.3669992  49.8999978  -0.4729986
 140.8469992  48.6879978   0.2960014 140.6706412  49.5389046   0.2547822
 134.8729992  46.8599978   0.3710014 135.2809992  46.0029978   0.2500014
 134.6119992  46.8739978   1.2920014 134.8936016  46.7445119   0.4789192
 139.5309992  47.9759978 -14.6099986 139.0709992  47.4919978 -13.9249986
 139.7859992  47.3069978 -15.2459986 139.5024856  47.8193669 -14.6021603
 138.8199992  45.8689978  -2.2539986 138.2009992  46.5429978  -1.9739986
 139.1639992  46.1899978  -3.0879986 138.7817123  46.0046887  -2.3283612
 140.6019992  46.2189978 -16.3479986 140.4209992  46.0639978 -17.2749986
 141.5519992  46.3269978 -16.3029986 140.7056566  46.2123669 -16.4689071
 143.8389992  48.3399978   1.0230014 144.7929992  48.4239978   0.9960014
 143.6789992  47.6279978   1.6430014 143.9477182  48.2552842   1.1030733
 139.1589992  43.2239978  -1.1719986 139.3089992  42.4949978  -1.7739986
 139.1609992  44.0009978  -1.7309986 139.1797967  43.2292708  -1.3299459
 139.5719992  41.5929978  -3.6789986 140.1069992  42.0449978  -4.3309986
 138.7189992  41.4849978  -4.1019986 139.5300374  41.6402665  -3.8253290
 141.1529992  47.0329978  -3.4399986 141.9039992  46.8769978  -4.0129986
 140.8139992  47.8849978  -3.7149986 141.2099587  47.1268138  -3.5555922
 145.5689992  44.8479978   1.5890014 145.7609992  43.9169978   1.4770014
 146.4269992  45.2729978   1.5780014 145.7112182  44.7780070   1.5721862
 137.6379992  44.4219978   0.7390014 136.8699992  43.8889978   0.5290014
 138.3159992  44.1119978   0.1400014 137.6247235  44.3071754   0.6292413
 140.3769992  39.0499978  -3.2479986 140.2789992  39.9959978  -3.3529986
 139.6349992  38.6769978  -3.7239986 140.2632534  39.1291773  -3.3267400
 141.6409992  43.3709978   0.3160014 141.4059992  43.1519978   1.2170014
 140.8579992  43.1639978  -0.1939986 141.5029095  43.3129892   0.3705353
 144.3569992  42.4989978  -0.6089986 143.4089992  42.5309978  -0.4769986
 144.6689992  41.8729978   0.0450014 144.2695293  42.4187923  -0.5025852
 135.8179992  42.3419978   0.4440014 136.0299992  41.6359978  -0.1659986
 135.7069992  41.9049978   1.2880014 135.8320269  42.1861921   0.4745873
 140.5989992  38.3439978  -0.5769986 141.3109992  37.7039978  -0.5909986
 140.4979992  38.6099978  -1.4899986 140.6827387  38.2924330  -0.7024437
 140.9529992  40.0259978   1.4770014 140.8209992  39.5509978   0.6570014
 140.3529992  40.7709978   1.4220014 140.8539070  40.0615789   1.3573251
 140.4989992  56.9089978 -15.3469986 141.4319992  57.0669978 -15.2029986
 140.2349992  57.5849978 -15.9719986 140.5909911  57.0219373 -15.4117278
 134.0669992  51.5459978 -15.8639986 134.9809992  51.6249978 -15.5909986
 134.0749992  50.8589978 -16.5299986 134.1930655  51.4639205 -15.9167083
 132.7159992  56.9389978 -10.7869986 132.0689992  56.4769978 -11.3189986
 133.0709992  56.2669978 -10.2039986 132.6753741  56.7849774 -10.7810825
 133.5859992  55.0189978  -8.9819986 133.2519992  54.1389978  -8.8099986
 133.8089992  55.3649978  -8.1169986 133.5703721  54.9451938  -8.8415832
 133.6659992  48.0949978  -6.5299986 133.8509992  48.0129978  -7.4659986
 134.5159992  47.9709978  -6.1069986 133.8060928  48.0670463  -6.6007107
 133.2639992  43.3649978  -0.3899986 134.1829992  43.2429978  -0.1529986
 132.8139992  42.6149978   0.0000014 133.3290087  43.2469608  -0.3048590
 134.4849992  41.6779978  -7.4979986 134.9299992  40.8859978  -7.1959986
 134.9509992  42.3939978  -7.0679986 134.6089718  41.6664534  -7.3984735
 132.7889992  44.6769978  -6.4289986 133.2809992  44.4559978  -7.2199986
 133.1509992  45.5169978  -6.1479986 132.9052923  44.7603468  -6.4992593
 133.1029992  40.9349978 -12.3749986 132.1779992  41.1429978 -12.5039986
 133.5569992  41.4189978 -13.0649986 133.0376298  41.0289299 -12.4859549
 133.0659992  39.6729978  -4.0309986 132.4009992  39.4269978  -3.3879986
 132.6229992  40.2949978  -4.6079986 132.9151168  39.7234214  -4.0210152
 135.2579992  52.8479978   0.1140014 134.4369992  53.0229978  -0.3469986
 135.0059992  52.7749978   1.0340014 135.1115594  52.8620717   0.1753611
 138.2119992  53.8219978  -3.6279986 137.7879992  54.6319978  -3.9099986
 139.1169992  53.9079978  -3.9299986 138.2762138  53.9444160  -3.7073585
 142.5239992  55.2209978  -0.6679986 142.7079992  54.8879978   0.2100014
 143.3699992  55.5309978  -0.9899986 142.6636484  55.2172979  -0.5912383
 144.8689992  56.5069978  -1.4239986 145.5459992  55.8739978  -1.6639986
 145.1899992  56.9079978  -0.6169986 145.0051323  56.4745691  -1.3476842
 135.6139992  57.0789978  -3.5799986 134.8939992  57.5189978  -4.0309986
 135.2489992  56.8279978  -2.7319986 135.4659643  57.1053369  -3.5270871
 138.0809992  56.6789978  -4.5499986 137.2169992  56.7509978  -4.1459986
 138.0259992  57.2259978  -5.3339986 137.9551942  56.7627849  -4.6006000
 142.7919992  56.5669978  -5.3749986 142.3349992  57.0959978  -6.0289986
 142.9549992  57.1699978  -4.6499986 142.7514960  56.7209280  -5.3664726
 145.1199992  55.4449978  -4.4299986 144.2149992  55.6099978  -4.6959986
 145.5479992  56.2979978  -4.4959986 145.0541537  55.5829134  -4.4752905
 135.0289992  55.7019978  -6.6699986 135.0109992  55.2759978  -5.8129986
 135.8339992  55.3829978  -7.0789986 135.1352875  55.6006435  -6.6080485
 137.1699992  54.4119978  -8.0149986 136.9509992  53.4949978  -7.8449986
 137.9939992  54.5519978  -7.5489986 137.2514702  54.3055511  -7.9287473
 139.7069992  54.8819978  -7.1659986 139.9199992  53.9939978  -7.4529986
 139.7719992  54.8469978  -6.2119986 139.7449149  54.7558326  -7.0762631
 143.2159992  40.5459978  -8.0219986 142.5419992  39.9159978  -7.7659986
 143.7799992  40.0619978  -8.6249986 143.2000384  40.3943708  -8.0684980
 135.5429992  39.1799978 -10.1999986 134.7659992  38.9449978 -10.7069986
 136.0729992  38.3829978 -10.1909986 135.5083451  39.0401268 -10.2681373
 134.3789992  38.9779978 -14.3959986 134.8179992  39.5889978 -14.9879986
 133.7449992  39.5159978 -13.9219986 134.3533859  39.1344064 -14.4129695
 140.1219992  39.1059978 -10.3869986 140.9959992  39.4949978 -10.4159986
 139.9859992  38.8909978  -9.4639986 140.2231953  39.1301643 -10.2662383
 134.2799992  54.9259978 -13.4989986 133.5949992  54.8879978 -14.1659986
 134.2839992  55.8389978 -13.2109986 134.1867621  55.0441924 -13.5513874
 136.2399992  40.8939978 -15.9539986 136.7309992  40.2639978 -16.4809986
 136.8629992  41.1899978 -15.2909986 136.3915304  40.8477376 -15.9365060
 141.2659992  41.1869978 -13.4969986 141.4439992  40.5399978 -12.8139986
 141.2119992  42.0209978 -13.0299986 141.2830678  41.2111604 -13.3403699
 143.1439992  56.1349978 -15.1009986 144.0099992  56.5019978 -15.2789986
 142.8979992  55.6959978 -15.9149986 143.2292097  56.1258525 -15.2353981
 135.4999992  39.6939978  -0.6819986 135.1339992  38.9279978  -0.2399986
 136.4129992  39.7229978  -0.3959986 135.5733172  39.5930324  -0.5828110
 137.4729992  39.0439978   0.8530014 138.3719992  38.7699978   0.6690014
 137.0869992  38.3019978   1.3180014 137.5437307  38.9062196   0.8907098
 136.0979992  55.8459978 -16.4739986 135.8299992  56.1319978 -15.5999986
 136.8689992  55.2999978 -16.3209986 136.1655926  55.8112779 -16.3338795
  12.6289992  67.1919978 -10.2409986  12.7179992  68.1359978 -10.3729986
  11.9909992  66.9169978 -10.8989986  12.5549062  67.2839812 -10.3480359
  11.5619992  66.4469978  -6.8219986  11.5239992  65.8009978  -6.1169986
  11.2399992  65.9799978  -7.5929986  11.5132679  66.2954276  -6.8297079
   3.9299992  66.0609978  -5.2289986   3.9719992  65.4359978  -4.5059986
   4.6329992  66.6849978  -5.0469986   4.0307345  66.0597873  -5.1054726
  15.2679992  69.3859978  -8.5209986  14.8269992  68.6659978  -8.0699986
  15.2549992  70.1069978  -7.8909986  15.2059215  69.3849291  -8.3741895
   4.8539992  70.5109978  -6.6939986   4.4839992  69.7089978  -7.0639986
   5.7949992  70.3429978  -6.6479986   4.9305984  70.3784638  -6.7384397
   1.4639992  64.1709978 -11.3019986   1.0159992  65.0169978 -11.3199986
   0.9029992  63.5919978 -11.8169986   1.3268546  64.2083993 -11.3741109
   2.1739992  66.3329978  -9.1759986   2.3879992  65.5629978  -8.6479986
   2.9119992  66.4229978  -9.7789986   2.3030200  66.2398587  -9.1852965
  12.3799992  74.4899978  -8.3089986  12.9989992  73.8139978  -8.5819986
  12.1709992  74.2719978  -7.3999986  12.4366056  74.3678869  -8.2236033
   9.9509992  68.8789978  -6.4159986  10.2549992  68.1929978  -7.0109986
  10.6729992  68.9979978  -5.7979986  10.0901240  68.8012314  -6.4139041
  18.6139992  60.4809978  -5.5559986  18.6639992  61.0909978  -4.8199986
  19.0399992  60.9419978  -6.2789986  18.6784108  60.6267709  -5.5529888
  13.0919992  63.2729978  -6.0889986  13.2349992  62.3269978  -6.0689986
  12.9859992  63.4799978  -7.0169986  13.0972403  63.1714797  -6.2117761
   6.2469992  61.3749978  -8.8159986   6.2899992  62.2349978  -9.2349986
   5.7889992  60.8229978  -9.4499986   6.1909871  61.4179245  -8.9589239
  13.9689992  61.5059978 -10.4149986  14.6159992  61.1769978  -9.7909986
  14.4789992  62.0229978 -11.0379986  14.1264351  61.5309067 -10.4138963
   2.8669992  63.7719978  -8.0539986   3.5209992  63.2219978  -7.6219986
   2.8909992  63.4979978  -8.9709986   2.9597199  63.6597167  -8.1188332
   8.0239992  65.3219978  -8.8389986   8.6399992  64.7949978  -8.3299986
   7.4369992  64.6819978  -9.2429986   8.0290154  65.1633954  -8.8239055
  19.0059992  61.9589978  -3.3199986  18.3169992  62.6169978  -3.4149986
  19.0209992  61.7609978  -2.3829986  18.9137756  62.0222603  -3.2064188
   5.0569992  60.2929978  -4.7419986   4.8379992  60.8229978  -5.5089986
   4.3889992  60.5189978  -4.0949986   4.9366975  60.3960967  -4.7594860
  12.4259992  69.7929978 -11.1979986  12.1309992  69.4699978 -12.0499986
  12.1019992  70.6929978 -11.1569986  12.3418460  69.8704464 -11.3090286
   7.6259992  67.9679978  -4.4549986   6.8859992  68.5669978  -4.3509986
   8.3399992  68.5219978  -4.7699986   7.6213500  68.1247829  -4.4833629
  15.7329992  60.7969978  -8.4349986  15.5179992  60.0309978  -7.9019986
  16.3889992  61.2689978  -7.9219986  15.7922673  60.7560728  -8.2928010
   4.6509992  62.1849978  -6.7899986   5.2649992  62.8179978  -6.4169986
   5.1629992  61.7129978  -7.4459986   4.8041962  62.2077249  -6.8277065
   6.0339992  69.9329978  -3.6679986   6.0279992  70.8119978  -4.0459986
   5.1799992  69.8489978  -3.2429986   5.9177925  70.0419535  -3.6623113
   2.1549992  69.6039978 -12.8859986   1.8829992  69.8329978 -13.7739986
   2.1999992  70.4409978 -12.4249986   2.1238097  69.7486163 -12.9453317
  15.7799992  71.2249978  -6.1729986  14.8379992  71.2839978  -6.0109986
  16.0559992  72.1309978  -6.3099986  15.6885865  71.3555288  -6.1693808
  16.0799992  59.5119978  -4.7559986  15.3439992  60.1219978  -4.7929986
  16.7639992  59.9269978  -5.2819986  16.0715367  59.6517551  -4.8321826
   9.0839992  57.5979978  -7.2899986   8.9659992  56.6499978  -7.3439986
   8.2289992  57.9309978  -7.0169986   8.9522805  57.5132202  -7.2604921
  14.0319992  73.0059978  -9.5479986  14.4569992  72.2989978 -10.0329986
  14.3489992  73.8079978  -9.9649986  14.1330266  73.0175190  -9.6707521
  15.1919992  70.9069978 -11.0389986  14.9339992  70.2169978 -11.6509986
  15.2629992  70.4639978 -10.1939986  15.1663050  70.7526814 -11.0084379
  16.8779992  69.4739978  -2.5619986  17.0169992  68.8819978  -3.3009986
  17.0449992  70.3469978  -2.9179986  16.9196193  69.5108896  -2.7113789
  11.3499992  66.4359978 -12.7889986  10.6389992  66.9709978 -13.1409986
  12.0409992  66.4909978 -13.4489986  11.3460751  66.5166777 -12.9264142
  11.4039992  64.8929978 -15.7509986  12.1049992  64.9159978 -15.0989986
  11.7059992  64.2649978 -16.4069986  11.5408202  64.8112212 -15.7504391
  18.7189992  65.8139978  -4.4959986  18.0669992  66.5079978  -4.4069986
  19.1849992  66.0239978  -5.3059986  18.6925937  65.9375019  -4.5932467
  14.7559992  66.6449978 -11.8379986  14.0239992  66.8739978 -11.2639986
  15.2029992  65.9319978 -11.3829986  14.7163963  66.5798729 -11.6980055
  14.6529992  64.8199978  -2.7699986  14.7329992  65.5829978  -2.1979986
  14.0519992  65.0989978  -3.4599986  14.5826547  64.9622457  -2.7849953
   6.4009992  67.2759978  -9.9549986   6.0709992  66.9049978 -10.7729986
   6.9899992  66.6049978  -9.6079986   6.4353970  67.1346063 -10.0200596
   7.7679992  70.7039978  -7.2739986   7.6729992  70.1249978  -8.0299986
   8.4969992  70.3329978  -6.7779986   7.8536011  70.5745561  -7.3103972
   6.7679992  66.0439978  -6.3219986   7.3329992  66.1659978  -7.0839986
   7.0869992  66.6819978  -5.6829986   6.8884166  66.1468791  -6.3399652
  13.0769992  71.5479978  -5.5879986  12.8369992  72.2099978  -4.9399986
  12.8789992  70.7129978  -5.1629986  13.0173826  71.5258115  -5.4418434
   7.6479992  70.4439978  -1.6039986   7.3369992  71.2259978  -1.1489986
   6.9979992  70.2909978  -2.2899986   7.5175538  70.5304087  -1.6344102
  13.6269992  65.8079978 -14.1519986  14.2059992  65.9579978 -13.4059986
  14.0409992  66.2779978 -14.8759986  13.7623358  65.8920954 -14.1476047
   4.5679992  66.6419978  -2.3759986   4.6379992  67.2929978  -1.6769986
   3.6769992  66.7449978  -2.7109986   4.4571690  66.7449249  -2.3256957
  11.3529992  72.5439978 -10.7169986  11.8269992  72.8399978  -9.9399986
  10.7899992  73.2829978 -10.9499986  11.3417890  72.6843036 -10.6421899
   5.8869992  72.5149978  -0.8409986   5.8949992  72.3789978  -1.7879986
   4.9709992  72.3979978  -0.5889986   5.7642528  72.4805463  -0.9366757
  17.3259992  57.5579978 -14.3389986  16.4259992  57.6969978 -14.0439986
  17.5779992  58.3889978 -14.7409986  17.2368683  57.6894055 -14.3529768
   5.3919992  66.3449978 -12.3659986   5.0999992  67.1129978 -12.8569986
   4.7169992  65.6859978 -12.5289986   5.2608497  66.3609745 -12.4551740
  18.5149992  71.9239978 -15.9629986  18.5879992  72.8629978 -15.7929986
  19.4199992  71.6189978 -16.0189986  18.6474170  72.0113282 -15.9472937
   1.4849992  68.7079978  -3.5509986   0.9829992  68.6799978  -4.3659986
   1.4899992  67.8029978  -3.2409986   1.4169832  68.5817486  -3.6205879
   1.2349992  71.4889978  -6.6669986   2.1809992  71.3439978  -6.6859986
   1.1219992  72.2729978  -6.1299986   1.3493578  71.5751697  -6.5969683
  19.4329992  72.1549978  -0.9839986  19.3829992  71.1989978  -1.0219986
  18.6059992  72.4219978  -0.5829986  19.3143831  72.0604680  -0.9349879
  10.4109992  71.7289978  -2.1079986  10.4989992  72.5549978  -1.6329986
   9.5479992  71.3989978  -1.8589986  10.3063357  71.7975468  -2.0092347
  10.8259992  75.5009978 -12.3019986  10.7499992  75.3799978 -13.2489986
  10.8579992  76.4499978 -12.1839986  10.8199380  75.6127677 -12.4154819
   4.4789992  74.2899978 -10.5209986   4.6309992  73.9419978  -9.6429986
   3.6279992  73.9329978 -10.7769986   4.3848344  74.1940879 -10.4353132
  13.9269992  74.6549978 -15.2999986  14.3019992  73.9109978 -15.7709986
  13.9319992  74.3849978 -14.3819986  13.9790098  74.5166392 -15.2403371
  13.5959992  74.5809978 -12.5509986  12.6609992  74.6809978 -12.3719986
  13.8759992  73.8709978 -11.9719986  13.5059471  74.4987933 -12.4483305
  16.5849992  63.6479978  -0.5039986  16.1769992  64.1279978  -1.2249986
  16.6249992  62.7419978  -0.8119986  16.5346221  63.5912449  -0.6441733
   3.7339992  70.0319978  -2.5079986   3.9499992  69.6699978  -1.6479986
   2.8779992  69.6569978  -2.7169986   3.6478810  69.9318837  -2.4187320
   6.3519992  58.5019978  -6.5119986   5.4909992  58.4149978  -6.9199986
   6.3299992  59.3579978  -6.0839986   6.2310491  58.6058003  -6.5100418
  11.0149992  58.2239978  -3.1369986  11.4349992  57.8089978  -2.3839986
  10.0819992  58.0449978  -3.0199986  10.9463736  58.1429910  -3.0181032
  14.3419992  61.9789978  -2.2839986  13.8279992  61.8539978  -1.4859986
  14.1859992  62.8919978  -2.5279986  14.2506967  62.0852123  -2.2079063
  15.1039992  66.8399978 -16.5229986  15.1459992  66.6179978 -17.4529986
  15.9529992  67.2389978 -16.3329986  15.2245253  66.8635498 -16.6246178
  10.6769992  60.7159978 -15.8519986  10.4229992  60.7349978 -14.9299986
  10.4199992  59.8449978 -16.1539986  10.6074508  60.6008280 -15.7665197
   6.4429992  63.4669978  -5.4169986   5.8019992  63.4269978  -4.7079986
   6.4809992  64.3939978  -5.6549986   6.3603010  63.5867668  -5.3520054
   6.4399992  63.6879978 -10.5049986   5.5479992  63.3479978 -10.5639986
   6.8909992  63.3109978 -11.2609986   6.3787642  63.5904910 -10.6152274
  11.9759992  64.1039978 -11.6879986  11.5669992  64.9189978 -11.9799986
  12.6959992  63.9639978 -12.3019986  12.0174439  64.1965372 -11.8109885
  11.0779992  64.2799978  -0.1999986  10.5149992  63.5749978   0.1210014
  11.9039992  64.1589978   0.2680014  11.1126674  64.1672165  -0.0928249
  12.9809992  63.5499978  -8.8739986  12.7849992  64.1559978  -9.5889986
  13.1619992  62.7169978  -9.3079986  12.9786584  63.5202513  -9.0305788
   4.1929992  63.7879978  -3.5499986   4.1549992  64.1879978  -2.6809986
   3.7029992  62.9709978  -3.4599986   4.1215330  63.7322674  -3.4188711
   7.5589992  61.1619978 -16.7509986   7.1279992  60.7169978 -16.0219986
   6.8409992  61.5329978 -17.2639986   7.4029176  61.1512051 -16.7205070
   0.8019992  60.9039978  -9.6989986   1.4319992  60.8749978  -8.9799986
   1.2509992  60.4789978 -10.4299986   0.9490835  60.8425660  -9.6992341
   2.0759992  61.6499978 -14.2749986   2.5499992  62.2409978 -14.8599986
   1.3579992  62.1799978 -13.9279986   2.0438640  61.8025511 -14.3082031
  12.2449992  65.1879978  -4.2029986  12.5679992  64.5569978  -4.8459986
  11.8039992  64.6539978  -3.5419986  12.2296379  65.0293468  -4.2017418
   9.0219992  61.1159978  -9.4189986   8.1109992  61.1729978  -9.1299986
   9.5269992  61.0559978  -8.6079986   8.9656873  61.1156826  -9.2698793
   3.8499992  62.7449978 -10.5919986   2.9609992  62.8439978 -10.9319986
   4.1469992  61.9029978 -10.9379986   3.7684177  62.6447687 -10.6853060
   7.5029992  62.7449978 -12.9349986   8.4349992  62.8739978 -12.7569986
   7.2879992  63.4139978 -13.5849986   7.6014472  62.8530806 -12.9985109
  13.4269992  60.3509978  -6.1539986  12.7499992  60.4819978  -5.4909986
  12.9419992  60.1959978  -6.9649986  13.2687405  60.3479947  -6.1727830
   6.1769992  63.9389978 -15.3689986   5.6349992  63.5599978 -16.0599986
   7.0109992  64.1339978 -15.7969986   6.2154390  63.9134079 -15.5215608
  16.7149992  76.0219978   0.1220014  16.9139992  76.4459978  -0.7119986
  17.3699992  76.3659978   0.7290014  16.8308522  76.1266301   0.0897852
   4.3129992  68.4959978  -0.2699986   5.0449992  68.7509978   0.2920014
   3.5319992  68.7009978   0.2460014   4.3076526  68.5585450  -0.1234824
  10.3419992  63.9029978  -7.5319986  10.9059992  63.3569978  -8.0789986
  10.1939992  63.3819978  -6.7429986  10.3993037  63.7576787  -7.5002771
   5.3439992  60.0399978 -11.1129986   5.0269992  59.1369978 -11.1489986
   6.1249992  60.0419978 -11.6659986   5.4062431  59.9167797 -11.1926898
   8.9679992  62.2919978  -5.1179986   8.1329992  62.7459978  -5.0069986
   9.4919992  62.5679978  -4.3659986   8.9246072  62.3913948  -5.0011864
   9.5129992  68.5049978 -13.4329986   8.7679992  67.9969978 -13.7549986
   9.3779992  68.5539978 -12.4869986   9.3928963  68.4421731 -13.3491174
  16.6629992  67.6379978  -4.6459986  17.3039992  68.0939978  -5.1899986
  15.8319992  67.7509978  -5.1089986  16.6385287  67.7156921  -4.7830113
  13.4099992  61.3189978 -15.2339986  12.4719992  61.4299978 -15.3849986
  13.7079992  62.1749978 -14.9269986  13.3216318  61.4500158 -15.2131855
  11.0319992  68.6889978  -2.1959986  10.6859992  68.3069978  -1.3889986
  10.8319992  69.6219978  -2.1249986  10.9575987  68.7629002  -2.0759539
  14.1289992  63.1859978 -13.5729986  15.0209992  63.0479978 -13.2539986
  14.1849992  63.9769978 -14.1099986  14.2587325  63.2739918 -13.6018783
   4.6369992  67.7999978  -7.6629986   5.3819992  67.7969978  -8.2649986
   4.7149992  66.9759978  -7.1819986   4.7493365  67.6882384  -7.6802570
  11.6379992  69.9629978 -14.4079986  11.3429992  70.7899978 -14.0259986
  10.9349992  69.3439978 -14.2109986  11.5026379  69.9924171 -14.3291346
   1.6449992  66.2599978  -2.3479986   1.8679992  65.8419978  -1.5169986
   1.0429992  65.6479978  -2.7709986   1.5941513  66.1199606  -2.2913260
   8.6619992  65.7769978  -0.1349986   8.3659992  65.6119978  -1.0309986
   9.5929992  65.5569978  -0.1459986   8.7474401  65.7246879  -0.2589794
  13.2819992  71.1509978  -2.2459986  12.3819992  71.3339978  -2.5129986
  13.3159992  71.4099978  -1.3249986  13.1633748  71.2110554  -2.1580836
  19.0139992  63.3949978 -13.8779986  18.4589992  62.9989978 -14.5509986
  19.1139992  64.3059978 -14.1559986  18.9516816  63.4639505 -14.0074967
  18.9769992  69.1959978  -1.0409986  18.1259992  69.4339978  -1.4089986
  19.5669992  69.1789978  -1.7939986  18.9403812  69.2262524  -1.1931547
  17.3089992  72.1809978 -13.4129986  16.9359992  71.3559978 -13.1039986
  17.5859992  71.9979978 -14.3109986  17.2953463  72.0432569 -13.4920475
  14.4689992  66.9889978  -6.3919986  13.5409992  66.7579978  -6.4189986
  14.9199992  66.2119978  -6.7219986  14.4028165  66.8522774  -6.4403210
   7.0119992  71.3179978 -10.2589986   7.5399992  72.0909978 -10.4589986
   6.1319992  71.5419978 -10.5609986   6.9653435  71.4542700 -10.3272690
   2.7669992  66.1799978 -15.6719986   3.3829992  66.8069978 -15.2919986
   1.9049992  66.4959978 -15.3999986   2.7347678  66.3084412 -15.5832791
   8.4399992  68.9809978 -10.6829986   8.1989992  69.9059978 -10.6409986
   7.6989992  68.5219978 -10.2859986   8.3069206  69.0455915 -10.6236231
   8.9539992  73.1299978  -4.3679986   9.3169992  73.9839978  -4.6009986
   9.4859992  72.8379978  -3.6269986   9.0755141  73.2073895  -4.2997903
   7.1229992  74.0019978 -11.1369986   6.1729992  74.1079978 -11.0859986
   7.4749992  74.8229978 -10.7929986   7.0405472  74.1274923 -11.0835148
  12.4979992  69.2289978  -4.6669986  12.0729992  69.0009978  -3.8409986
  13.0789992  68.4899978  -4.8489986  12.5183395  69.0979545  -4.5785586
  14.7009992  70.1579978 -15.5929986  15.0549992  69.7779978 -14.7889986
  13.7529992  70.0639978 -15.5059986  14.6212298  70.0932452 -15.4711313
  15.1569992  73.7809978  -2.1979986  14.5549992  73.2249978  -2.6929986
  15.4379992  74.4479978  -2.8239986  15.1125757  73.7950744  -2.3504325
  19.2049992  74.6369978 -15.3919986  19.9489992  75.2229978 -15.5319986
  18.5109992  75.2059978 -15.0589986  19.2129809  74.7940818 -15.3661410
   3.2789992  61.0139978  -2.7899986   2.3869992  61.3519978  -2.8579986
   3.1809992  60.1579978  -2.3719986   3.1434475  60.9446543  -2.7428296
  15.5669992  68.8299978 -13.3659986  15.2899992  68.1019978 -12.8099986
  16.4949992  68.9489978 -13.1609986  15.6544499  68.7464213 -13.2621956
   2.9309992  72.8179978  -4.3549986   3.1479992  71.8859978  -4.3859986
   3.1769992  73.0929978  -3.4719986   2.9939809  72.7275686  -4.2398309
   7.7289992  70.8399978 -14.6899986   7.8759992  70.3199978 -13.8999986
   7.7259992  71.7469978 -14.3829986   7.7487102  70.8913953 -14.5404075
   4.1819992  68.0919978 -14.1789986   3.4959992  68.4449978 -13.6119986
   4.7049992  68.8549978 -14.4259986   4.1588402  68.2433901 -14.1348199
  12.0139992  60.7549978  -3.8999986  12.7129992  60.8289978  -3.2499986
  11.6329992  59.8899978  -3.7459986  12.0582097  60.6482389  -3.7902003
  12.7979992  60.4069978 -12.8029986  13.0179992  60.8779978 -13.6069986
  13.3569992  60.8009978 -12.1329986  12.9036732  60.5247287 -12.8224967
  10.4669992  72.5369978 -13.9399986   9.6499992  73.0339978 -13.8879986
  10.9959992  73.0129978 -14.5809986  10.4268125  72.6691989 -14.0194694
   9.9979992  62.1349978 -11.9679986  10.8099992  62.6389978 -11.9219986
   9.7539992  61.9899978 -11.0539986  10.0761467  62.1843749 -11.8381425
  10.5339992  63.1209978  -2.7839986  10.6529992  63.6949978  -2.0269986
  11.1889992  62.4329978  -2.6689986  10.6388684  63.1065194  -2.6648326
  10.8819992  59.2159978 -11.0299986  10.5349992  59.8329978 -10.3859986
  11.5409992  59.7169978 -11.5119986  10.9235090  59.3681575 -11.0069319
   7.8049992  73.5809978 -13.9589986   7.9659992  74.3809978 -14.4589986
   7.6079992  73.8879978 -13.0739986   7.8003906  73.7318678 -13.9077667
   6.5399992  60.2789978 -14.3429986   6.4559992  61.1669978 -13.9959986
   7.4299992  60.0139978 -14.1109986   6.6488163  60.3647179 -14.2641404
  16.7379992  61.0279978  -1.9489986  15.8219992  61.2899978  -2.0359986
  17.0739992  61.0249978  -2.8449986  16.6578499  61.0635163  -2.0821234
  15.3409992  64.7779978  -7.8529986  14.5429992  64.3629978  -8.1809986
  15.7859992  64.0879978  -7.3619986  15.2919684  64.6278628  -7.8314773
   4.7979992  70.7059978 -15.2829986   5.3899992  71.4059978 -15.0059986
   5.2569992  70.2729978 -16.0019986   4.9411652  70.7432675 -15.3423467
   3.1139992  63.3709978 -16.1669986   3.0689992  64.3099978 -15.9879986
   2.2259992  63.1349978 -16.4359986   2.9878166  63.4676687 -16.1788476
  16.4269992  74.0339978  -6.2309986  16.2709992  74.7129978  -6.8879986
  17.3599992  74.1059978  -6.0279986  16.5317387  74.1366390  -6.2934658
   3.9219992  58.1519978  -7.4929986   3.6929992  58.2109978  -8.4209986
   3.4799992  57.3609978  -7.1869986   3.8308801  58.0530540  -7.5785271
   2.8529992  72.0929978 -11.3329986   2.0199992  72.5649978 -11.3059986
   3.3979992  72.6029978 -11.9319986   2.8127857  72.2264791 -11.4102858
   2.1409992  74.7049978  -0.0029986   2.6809992  74.4889978   0.7570014
   1.6599992  73.8999978  -0.1929986   2.1499219  74.5665156   0.0754282
   6.7379992  73.6249978   1.6170014   7.5059992  73.1659978   1.9580014
   6.7169992  73.3989978   0.6870014   6.8402135  73.5316668   1.5379491
  10.8299992  73.1329978 -17.0069986  10.1859992  72.5019978 -16.6859986
  11.5919992  72.6019978 -17.2389986  10.8448058  72.9747902 -16.9943962
  13.3149992  72.0049978   0.3460014  12.9639992  71.1479978   0.5900014
  14.0409992  72.1469978   0.9530014  13.3651895  71.9071351   0.4613770
  15.4349992  72.9499978 -16.7739986  15.7179992  72.1549978 -16.3209986
  16.1739992  73.1829978 -17.3349986  15.5737096  72.8727049 -16.7878896
   2.0479992  68.5159978   0.9510014   2.1919992  67.6139978   0.6650014
   1.2759992  68.8019978   0.4640014   1.9632733  68.4311798   0.8459532
   6.3889992  68.8589978 -16.9159986   6.4539992  68.0649978 -16.3859986
   7.0419992  68.7409978 -17.6059986   6.4861605  68.7343430 -16.9367003
   8.7029992  68.4849978   0.3840014   8.3749992  68.7559978  -0.4729986
   8.8549992  67.5439978   0.2960014   8.6786412  68.3949046   0.2547822
  14.4379992  68.4009978  -2.2329986  15.1829992  68.9899978  -2.3519986
  13.6809992  68.9829978  -2.1689986  14.4375470  68.5602128  -2.2406201
   2.8809992  65.7159978   0.3710014   3.2889992  64.8589978   0.2500014
   2.6199992  65.7299978   1.2920014   2.9016016  65.6005119   0.4789192
   7.5389992  66.8319978 -14.6099986   7.0789992  66.3479978 -13.9249986
   7.7939992  66.1629978 -15.2459986   7.5104856  66.6753669 -14.6021603
   6.8279992  64.7249978  -2.2539986   6.2089992  65.3989978  -1.9739986
   7.1719992  65.0459978  -3.0879986   6.7897123  64.8606887  -2.3283612
   8.6099992  65.0749978 -16.3479986   8.4289992  64.9199978 -17.2749986
   9.5599992  65.1829978 -16.3029986   8.7136566  65.0683669 -16.4689071
  11.8469992  67.1959978   1.0230014  12.8009992  67.2799978   0.9960014
  11.6869992  66.4839978   1.6430014  11.9557182  67.1112842   1.1030733
  17.9999992  67.4289978 -16.9019986  17.7259992  67.0049978 -17.7149986
  18.0389992  68.3609978 -17.1189986  17.9677716  67.4968827 -17.0425714
   7.1669992  62.0799978  -1.1719986   7.3169992  61.3509978  -1.7739986
   7.1689992  62.8569978  -1.7309986   7.1877967  62.0852708  -1.3299459
   7.5799992  60.4489978  -3.6789986   8.1149992  60.9009978  -4.3309986
   6.7269992  60.3409978  -4.1019986   7.5380374  60.4962665  -3.8253290
   9.1609992  65.8889978  -3.4399986   9.9119992  65.7329978  -4.0129986
   8.8219992  66.7409978  -3.7149986   9.2179587  65.9828138  -3.5555922
  13.5769992  63.7039978   1.5890014  13.7689992  62.7729978   1.4770014
  14.4349992  64.1289978   1.5780014  13.7192182  63.6340070   1.5721862
  14.8939992  66.4929978  -0.3339986  14.6119992  67.2019978  -0.9119986
  15.8359992  66.4199978  -0.4849986  14.9827921  66.5802193  -0.4335775
   5.6459992  63.2779978   0.7390014   4.8779992  62.7449978   0.5290014
   6.3239992  62.9679978   0.1400014   5.6327235  63.1631754   0.6292413
   8.3849992  57.9059978  -3.2479986   8.2869992  58.8519978  -3.3529986
   7.6429992  57.5329978  -3.7239986   8.2712534  57.9851773  -3.3267400
   9.6489992  62.2269978   0.3160014   9.4139992  62.0079978   1.2170014
   8.8659992  62.0199978  -0.1939986   9.5109095  62.1689892   0.3705353
  12.3649992  61.3549978  -0.6089986  11.4169992  61.3869978  -0.4769986
  12.6769992  60.7289978   0.0450014  12.2775293  61.2747923  -0.5025852
  13.9989992  59.9889978   1.3960014  13.9019992  59.0369978   1.3910014
  13.6769992  60.2569978   2.2570014  13.9422468  59.8950884   1.5116210
   3.8259992  61.1979978   0.4440014   4.0379992  60.4919978  -0.1659986
   3.7149992  60.7609978   1.2880014   3.8400269  61.0421921   0.4745873
   8.6069992  57.1999978  -0.5769986   9.3189992  56.5599978  -0.5909986
   8.5059992  57.4659978  -1.4899986   8.6907387  57.1484330  -0.7024437
   8.9609992  58.8819978   1.4770014   8.8289992  58.4069978   0.6570014
   8.3609992  59.6269978   1.4220014   8.8619070  58.9175789   1.3573251
   8.5069992  75.7649978 -15.3469986   9.4399992  75.9229978 -15.2029986
   8.2429992  76.4409978 -15.9719986   8.5989911  75.8779373 -15.4117278
   2.0749992  70.4019978 -15.8639986   2.9889992  70.4809978 -15.5909986
   2.0829992  69.7149978 -16.5299986   2.2010655  70.3199205 -15.9167083
   0.7239992  75.7949978 -10.7869986   0.0769992  75.3329978 -11.3189986
   1.0789992  75.1229978 -10.2039986   0.6833741  75.6409774 -10.7810825
   1.5939992  73.8749978  -8.9819986   1.2599992  72.9949978  -8.8099986
   1.8169992  74.2209978  -8.1169986   1.5783721  73.8011938  -8.8415832
  19.1429992  74.6849978  -6.0009986  19.1209992  74.8699978  -5.0619986
  19.8329992  75.2529978  -6.3419986  19.2333439  74.7871887  -5.9185209
  18.7059992  74.2519978  -3.0799986  18.2189992  73.5169978  -3.4509986
  19.2549992  73.8579978  -2.4019986  18.7135247  74.0981057  -3.0391539
  17.1569992  70.0419978   1.5590014  16.2909992  69.9369978   1.9530014
  17.5329992  70.7999978   2.0050014  17.0893401  70.1301708   1.6732620
  18.4579992  68.2979978 -12.9269986  19.3079992  68.7189978 -12.7999986
  18.4629992  67.5579978 -12.3199986  18.5751143  68.2556094 -12.8275250
  18.8519992  66.3519978 -11.1039986  18.1259992  65.8719978 -10.7059986
  19.4339992  66.5569978 -10.3709986  18.8312730  66.3140184 -10.9505851
  18.6109992  69.1369978  -6.1559986  19.4449992  68.7589978  -6.4369986
  18.7229992  70.0799978  -6.2749986  18.7401917  69.2127943  -6.2105139
  17.0979992  72.0149978  -3.8489986  16.4499992  72.3399978  -3.2239986
  16.5799992  71.5739978  -4.5229986  16.9394196  71.9998651  -3.8545848
  19.1209992  66.2529978 -14.7129986  18.5989992  66.6089978 -15.4309986
  19.0879992  66.9279978 -14.0339986  19.0450129  66.3929598 -14.7196645
  17.4699992  63.4919978 -16.1619986  17.5659992  64.1589978 -16.8419986
  17.3299992  62.6769978 -16.6429986  17.4642040  63.4730671 -16.3201622
  16.6389992  64.8729978 -10.5409986  16.4889992  63.9279978 -10.5609986
  16.2849992  65.1539978  -9.6969986  16.5706351  64.7816644 -10.4296780
   1.6739992  66.9509978  -6.5299986   1.8589992  66.8689978  -7.4659986
   2.5239992  66.8269978  -6.1069986   1.8140928  66.9230463  -6.6007107
  17.4949992  66.8429978  -0.9019986  18.0779992  66.1079978  -0.7099986
  18.0589992  67.6149978  -0.8549986  17.6509781  66.8468145  -0.8693836
  18.9919992  64.7459978  -0.2169986  18.1289992  64.3669978  -0.3829986
  19.5959992  64.0069978  -0.2919986  18.9556085  64.5943223  -0.2498305
  16.7169992  60.8999978 -17.0439986  17.3279992  60.5289978 -16.4069986
  15.8799992  60.4789978 -16.8479986  16.6874947  60.7922756 -16.9302748
  16.3499992  62.4549978 -12.0779986  16.6289992  61.5479978 -11.9539986
  17.1089992  62.8889978 -12.4669986  16.4908619  62.3894502 -12.1136205
  16.9609992  63.0369978  -6.6419986  17.8939992  63.2489978  -6.6769986
  16.7259992  63.1379978  -5.7199986  17.0569517  63.0796833  -6.5220870
  16.9909992  63.7739978  -3.8659986  16.1479992  64.0419978  -3.4999986
  17.4329992  64.5959978  -4.0769986  16.9354138  63.9218273  -3.8444482
   1.2719992  62.2209978  -0.3899986   2.1909992  62.0989978  -0.1529986
   0.8219992  61.4709978   0.0000014   1.3370087  62.1029608  -0.3048590
  19.2739992  57.7539978   1.4870014  19.6229992  57.0999978   0.8820014
  19.4209992  58.5909978   1.0470014  19.3416824  57.7776024   1.3446304
  16.9629992  59.7179978 -12.0299986  17.1449992  59.2689978 -11.2049986
  16.3629992  59.1339978 -12.4939986  16.9068187  59.5775552 -11.9797261
   2.4929992  60.5339978  -7.4979986   2.9379992  59.7419978  -7.1959986
   2.9589992  61.2499978  -7.0679986   2.6169718  60.5224534  -7.3984735
   0.7969992  63.5329978  -6.4289986   1.2889992  63.3119978  -7.2199986
   1.1589992  64.3729978  -6.1479986   0.9132923  63.6163468  -6.4992593
  18.7929992  59.8629978  -0.1639986  17.8759992  60.1339978  -0.1989986
  18.9159992  59.3279978  -0.9479986  18.6839672  59.8277885  -0.2748138
  18.8299992  59.7859978 -15.5019986  19.2419992  59.0649978 -15.9769986
  19.5109992  60.4549978 -15.4439986  18.9785536  59.7777766 -15.5591976
   1.1109992  59.7909978 -12.3749986   0.1859992  59.9989978 -12.5039986
   1.5649992  60.2749978 -13.0649986   1.0456298  59.8849299 -12.4859549
  15.8809992  74.7749978 -10.4289986  16.5339992  74.4269978 -11.0369986
  16.3919992  75.2629978  -9.7829986  16.0392777  74.7933815 -10.4247953
   1.0739992  58.5289978  -4.0309986   0.4089992  58.2829978  -3.3879986
   0.6309992  59.1509978  -4.6079986   0.9231168  58.5794214  -4.0210152
   3.2659992  71.7039978   0.1140014   2.4449992  71.8789978  -0.3469986
   3.0139992  71.6309978   1.0340014   3.1195594  71.7180717   0.1753611
   6.2199992  72.6779978  -3.6279986   5.7959992  73.4879978  -3.9099986
   7.1249992  72.7639978  -3.9299986   6.2842138  72.8004160  -3.7073585
  10.5319992  74.0769978  -0.6679986  10.7159992  73.7439978   0.2100014
  11.3779992  74.3869978  -0.9899986  10.6716484  74.0732979  -0.5912383
  12.8769992  75.3629978  -1.4239986  13.5539992  74.7299978  -1.6639986
  13.1979992  75.7639978  -0.6169986  13.0131323  75.3305691  -1.3476842
  17.7939992  57.9529978  -2.3449986  16.9809992  58.2779978  -2.7319986
  18.0269992  57.1919978  -2.8779986  17.7141347  57.8946880  -2.4700159
   3.6219992  75.9349978  -3.5799986   2.9019992  76.3749978  -4.0309986
   3.2569992  75.6839978  -2.7319986   3.4739643  75.9613369  -3.5270871
   6.0889992  75.5349978  -4.5499986   5.2249992  75.6069978  -4.1459986
   6.0339992  76.0819978  -5.3339986   5.9631942  75.6187849  -4.6006000
  10.7999992  75.4229978  -5.3749986  10.3429992  75.9519978  -6.0289986
  10.9629992  76.0259978  -4.6499986  10.7594960  75.5769280  -5.3664726
  13.1279992  74.3009978  -4.4299986  12.2229992  74.4659978  -4.6959986
  13.5559992  75.1539978  -4.4959986  13.0621537  74.4389134  -4.4752905
  15.7319992  75.8709978  -4.1349986  15.5499992  76.7869978  -4.3459986
  15.9089992  75.4599978  -4.9819986  15.7310030  75.9408273  -4.2782834
   3.0369992  74.5579978  -6.6699986   3.0189992  74.1319978  -5.8129986
   3.8419992  74.2389978  -7.0789986   3.1432875  74.4566435  -6.6080485
   5.1779992  73.2679978  -8.0149986   4.9589992  72.3509978  -7.8449986
   6.0019992  73.4079978  -7.5489986   5.2594702  73.1615511  -7.9287473
   7.7149992  73.7379978  -7.1659986   7.9279992  72.8499978  -7.4529986
   7.7799992  73.7029978  -6.2119986   7.7529149  73.6118326  -7.0762631
  11.2239992  59.4019978  -8.0219986  10.5499992  58.7719978  -7.7659986
  11.7879992  58.9179978  -8.6249986  11.2080384  59.2503708  -8.0684980
  16.3669992  57.5089978  -7.9089986  16.9699992  58.0569978  -8.4109986
  15.4969992  57.8279978  -8.1499986  16.3319157  57.6270373  -8.0102090
  18.0939992  58.6479978  -9.5759986  18.7049992  58.1339978 -10.1029986
  18.4759992  59.5249978  -9.5529986  18.2293305  58.6962050  -9.6450582
   3.5509992  58.0359978 -10.1999986   2.7739992  57.8009978 -10.7069986
   4.0809992  57.2389978 -10.1909986   3.5163451  57.8961268 -10.2681373
   2.3869992  57.8339978 -14.3959986   2.8259992  58.4449978 -14.9879986
   1.7529992  58.3719978 -13.9219986   2.3613859  57.9904064 -14.4129695
   8.1299992  57.9619978 -10.3869986   9.0039992  58.3509978 -10.4159986
   7.9939992  57.7469978  -9.4639986   8.2311953  57.9861643 -10.2662383
  13.6869992  57.9919978  -8.7369986  13.7629992  58.0879978  -9.6869986
  13.4119992  57.0849978  -8.6089986  13.6601871  57.8824146  -8.8496056
  15.0399992  58.0179978 -13.0449986  14.3369992  58.6329978 -13.2549986
  14.5949992  57.1809978 -12.9139986  14.8836550  57.9889668 -13.0560163
   2.2879992  73.7819978 -13.4989986   1.6029992  73.7439978 -14.1659986
   2.2919992  74.6949978 -13.2109986   2.1947621  73.9001924 -13.5513874
   4.2479992  59.7499978 -15.9539986   4.7389992  59.1199978 -16.4809986
   4.8709992  60.0459978 -15.2909986   4.3995304  59.7037376 -15.9365060
   9.2739992  60.0429978 -13.4969986   9.4519992  59.3959978 -12.8139986
   9.2199992  60.8769978 -13.0299986   9.2910678  60.0671604 -13.3403699
  11.1519992  74.9909978 -15.1009986  12.0179992  75.3579978 -15.2789986
  10.9059992  74.5519978 -15.9149986  11.2372097  74.9818525 -15.2353981
  17.8609992  74.5539978 -12.4219986  17.6669992  73.8059978 -12.9869986
  17.8219992  75.3119978 -13.0049986  17.8291645  74.5540786 -12.5781852
   3.5079992  58.5499978  -0.6819986   3.1419992  57.7839978  -0.2399986
   4.4209992  58.5789978  -0.3959986   3.5813172  58.4490324  -0.5828110
   5.4809992  57.8999978   0.8530014   6.3799992  57.6259978   0.6690014
   5.0949992  57.1579978   1.3180014   5.5517307  57.7622196   0.8907098
   4.1059992  74.7019978 -16.4739986   3.8379992  74.9879978 -15.5999986
   4.8769992  74.1559978 -16.3209986   4.1735926  74.6672779 -16.3338795
  13.9029992  57.2329978   1.0360014  13.9789992  56.8069978   1.8890014
  14.7959992  57.2459978   0.6930014  14.0342303  57.1763493   1.1065497
  17.0789992  73.3059978  -0.2719986  16.2969992  73.1189978  -0.7919986
  17.0069992  74.2349978  -0.0549986  16.9621924  73.4060637  -0.3138398
  31.4849992  67.1919978 -10.2409986  31.5739992  68.1359978 -10.3729986
  30.8469992  66.9169978 -10.8989986  31.4109062  67.2839812 -10.3480359
  30.4179992  66.4469978  -6.8219986  30.3799992  65.8009978  -6.1169986
  30.0959992  65.9799978  -7.5929986  30.3692679  66.2954276  -6.8297079
  22.7859992  66.0609978  -5.2289986  22.8279992  65.4359978  -4.5059986
  23.4889992  66.6849978  -5.0469986  22.8867345  66.0597873  -5.1054726
  34.1239992  69.3859978  -8.5209986  33.6829992  68.6659978  -8.0699986
  34.1109992  70.1069978  -7.8909986  34.0619215  69.3849291  -8.3741895
  23.7099992  70.5109978  -6.6939986  23.3399992  69.7089978  -7.0639986
  24.6509992  70.3429978  -6.6479986  23.7865984  70.3784638  -6.7384397
  20.3199992  64.1709978 -11.3019986  19.8719992  65.0169978 -11.3199986
  19.7589992  63.5919978 -11.8169986  20.1828546  64.2083993 -11.3741109
  21.0299992  66.3329978  -9.1759986  21.2439992  65.5629978  -8.6479986
  21.7679992  66.4229978  -9.7789986  21.1590200  66.2398587  -9.1852965
  31.2359992  74.4899978  -8.3089986  31.8549992  73.8139978  -8.5819986
  31.0269992  74.2719978  -7.3999986  31.2926056  74.3678869  -8.2236033
  28.8069992  68.8789978  -6.4159986  29.1109992  68.1929978  -7.0109986
  29.5289992  68.9979978  -5.7979986  28.9461240  68.8012314  -6.4139041
  37.4699992  60.4809978  -5.5559986  37.5199992  61.0909978  -4.8199986
  37.8959992  60.9419978  -6.2789986  37.5344108  60.6267709  -5.5529888
  31.9479992  63.2729978  -6.0889986  32.0909992  62.3269978  -6.0689986
  31.8419992  63.4799978  -7.0169986  31.9532403  63.1714797  -6.2117761
  25.1029992  61.3749978  -8.8159986  25.1459992  62.2349978  -9.2349986
  24.6449992  60.8229978  -9.4499986  25.0469871  61.4179245  -8.9589239
  32.8249992  61.5059978 -10.4149986  33.4719992  61.1769978  -9.7909986
  33.3349992  62.0229978 -11.0379986  32.9824351  61.5309067 -10.4138963
  21.7229992  63.7719978  -8.0539986  22.3769992  63.2219978  -7.6219986
  21.7469992  63.4979978  -8.9709986  21.8157199  63.6597167  -8.1188332
  26.8799992  65.3219978  -8.8389986  27.4959992  64.7949978  -8.3299986
  26.2929992  64.6819978  -9.2429986  26.8850154  65.1633954  -8.8239055
  37.8619992  61.9589978  -3.3199986  37.1729992  62.6169978  -3.4149986
  37.8769992  61.7609978  -2.3829986  37.7697756  62.0222603  -3.2064188
  23.9129992  60.2929978  -4.7419986  23.6939992  60.8229978  -5.5089986
  23.2449992  60.5189978  -4.0949986  23.7926975  60.3960967  -4.7594860
  31.2819992  69.7929978 -11.1979986  30.9869992  69.4699978 -12.0499986
  30.9579992  70.6929978 -11.1569986  31.1978460  69.8704464 -11.3090286
  26.4819992  67.9679978  -4.4549986  25.7419992  68.5669978  -4.3509986
  27.1959992  68.5219978  -4.7699986  26.4773500  68.1247829  -4.4833629
  34.5889992  60.7969978  -8.4349986  34.3739992  60.0309978  -7.9019986
  35.2449992  61.2689978  -7.9219986  34.6482673  60.7560728  -8.2928010
  23.5069992  62.1849978  -6.7899986  24.1209992  62.8179978  -6.4169986
  24.0189992  61.7129978  -7.4459986  23.6601962  62.2077249  -6.8277065
  24.8899992  69.9329978  -3.6679986  24.8839992  70.8119978  -4.0459986
  24.0359992  69.8489978  -3.2429986  24.7737925  70.0419535  -3.6623113
  21.0109992  69.6039978 -12.8859986  20.7389992  69.8329978 -13.7739986
  21.0559992  70.4409978 -12.4249986  20.9798097  69.7486163 -12.9453317
  34.6359992  71.2249978  -6.1729986  33.6939992  71.2839978  -6.0109986
  34.9119992  72.1309978  -6.3099986  34.5445865  71.3555288  -6.1693808
  34.9359992  59.5119978  -4.7559986  34.1999992  60.1219978  -4.7929986
  35.6199992  59.9269978  -5.2819986  34.9275367  59.6517551  -4.8321826
  27.9399992  57.5979978  -7.2899986  27.8219992  56.6499978  -7.3439986
  27.0849992  57.9309978  -7.0169986  27.8082805  57.5132202  -7.2604921
  32.8879992  73.0059978  -9.5479986  33.3129992  72.2989978 -10.0329986
  33.2049992  73.8079978  -9.9649986  32.9890266  73.0175190  -9.6707521
  34.0479992  70.9069978 -11.0389986  33.7899992  70.2169978 -11.6509986
  34.1189992  70.4639978 -10.1939986  34.0223050  70.7526814 -11.0084379
  35.7339992  69.4739978  -2.5619986  35.8729992  68.8819978  -3.3009986
  35.9009992  70.3469978  -2.9179986  35.7756193  69.5108896  -2.7113789
  30.2059992  66.4359978 -12.7889986  29.4949992  66.9709978 -13.1409986
  30.8969992  66.4909978 -13.4489986  30.2020751  66.5166777 -12.9264142
  30.2599992  64.8929978 -15.7509986  30.9609992  64.9159978 -15.0989986
  30.5619992  64.2649978 -16.4069986  30.3968202  64.8112212 -15.7504391
  37.5749992  65.8139978  -4.4959986  36.9229992  66.5079978  -4.4069986
  38.0409992  66.0239978  -5.3059986  37.5485937  65.9375019  -4.5932467
  33.6119992  66.6449978 -11.8379986  32.8799992  66.8739978 -11.2639986
  34.0589992  65.9319978 -11.3829986  33.5723963  66.5798729 -11.6980055
  33.5089992  64.8199978  -2.7699986  33.5889992  65.5829978  -2.1979986
  32.9079992  65.0989978  -3.4599986  33.4386547  64.9622457  -2.7849953
  25.2569992  67.2759978  -9.9549986  24.9269992  66.9049978 -10.7729986
  25.8459992  66.6049978  -9.6079986  25.2913970  67.1346063 -10.0200596
  26.6239992  70.7039978  -7.2739986  26.5289992  70.1249978  -8.0299986
  27.3529992  70.3329978  -6.7779986  26.7096011  70.5745561  -7.3103972
  25.6239992  66.0439978  -6.3219986  26.1889992  66.1659978  -7.0839986
  25.9429992  66.6819978  -5.6829986  25.7444166  66.1468791  -6.3399652
  31.9329992  71.5479978  -5.5879986  31.6929992  72.2099978  -4.9399986
  31.7349992  70.7129978  -5.1629986  31.8733826  71.5258115  -5.4418434
  26.5039992  70.4439978  -1.6039986  26.1929992  71.2259978  -1.1489986
  25.8539992  70.2909978  -2.2899986  26.3735538  70.5304087  -1.6344102
  32.4829992  65.8079978 -14.1519986  33.0619992  65.9579978 -13.4059986
  32.8969992  66.2779978 -14.8759986  32.6183358  65.8920954 -14.1476047
  23.4239992  66.6419978  -2.3759986  23.4939992  67.2929978  -1.6769986
  22.5329992  66.7449978  -2.7109986  23.3131690  66.7449249  -2.3256957
  30.2089992  72.5439978 -10.7169986  30.6829992  72.8399978  -9.9399986
  29.6459992  73.2829978 -10.9499986  30.1977890  72.6843036 -10.6421899
  24.7429992  72.5149978  -0.8409986  24.7509992  72.3789978  -1.7879986
  23.8269992  72.3979978  -0.5889986  24.6202528  72.4805463  -0.9366757
  36.1819992  57.5579978 -14.3389986  35.2819992  57.6969978 -14.0439986
  36.4339992  58.3889978 -14.7409986  36.0928683  57.6894055 -14.3529768
  24.2479992  66.3449978 -12.3659986  23.9559992  67.1129978 -12.8569986
  23.5729992  65.6859978 -12.5289986  24.1168497  66.3609745 -12.4551740
  37.3709992  71.9239978 -15.9629986  37.4439992  72.8629978 -15.7929986
  38.2759992  71.6189978 -16.0189986  37.5034170  72.0113282 -15.9472937
  20.3409992  68.7079978  -3.5509986  19.8389992  68.6799978  -4.3659986
  20.3459992  67.8029978  -3.2409986  20.2729832  68.5817486  -3.6205879
  20.0909992  71.4889978  -6.6669986  21.0369992  71.3439978  -6.6859986
  19.9779992  72.2729978  -6.1299986  20.2053578  71.5751697  -6.5969683
  38.2889992  72.1549978  -0.9839986  38.2389992  71.1989978  -1.0219986
  37.4619992  72.4219978  -0.5829986  38.1703831  72.0604680  -0.9349879
  29.2669992  71.7289978  -2.1079986  29.3549992  72.5549978  -1.6329986
  28.4039992  71.3989978  -1.8589986  29.1623357  71.7975468  -2.0092347
  29.6819992  75.5009978 -12.3019986  29.6059992  75.3799978 -13.2489986
  29.7139992  76.4499978 -12.1839986  29.6759380  75.6127677 -12.4154819
  23.3349992  74.2899978 -10.5209986  23.4869992  73.9419978  -9.6429986
  22.4839992  73.9329978 -10.7769986  23.2408344  74.1940879 -10.4353132
  32.7829992  74.6549978 -15.2999986  33.1579992  73.9109978 -15.7709986
  32.7879992  74.3849978 -14.3819986  32.8350098  74.5166392 -15.2403371
  32.4519992  74.5809978 -12.5509986  31.5169992  74.6809978 -12.3719986
  32.7319992  73.8709978 -11.9719986  32.3619471  74.4987933 -12.4483305
  35.4409992  63.6479978  -0.5039986  35.0329992  64.1279978  -1.2249986
  35.4809992  62.7419978  -0.8119986  35.3906221  63.5912449  -0.6441733
  22.5899992  70.0319978  -2.5079986  22.8059992  69.6699978  -1.6479986
  21.7339992  69.6569978  -2.7169986  22.5038810  69.9318837  -2.4187320
  25.2079992  58.5019978  -6.5119986  24.3469992  58.4149978  -6.9199986
  25.1859992  59.3579978  -6.0839986  25.0870491  58.6058003  -6.5100418
  29.8709992  58.2239978  -3.1369986  30.2909992  57.8089978  -2.3839986
  28.9379992  58.0449978  -3.0199986  29.8023736  58.1429910  -3.0181032
  33.1979992  61.9789978  -2.2839986  32.6839992  61.8539978  -1.4859986
  33.0419992  62.8919978  -2.5279986  33.1066967  62.0852123  -2.2079063
  33.9599992  66.8399978 -16.5229986  34.0019992  66.6179978 -17.4529986
  34.8089992  67.2389978 -16.3329986  34.0805253  66.8635498 -16.6246178
  29.5329992  60.7159978 -15.8519986  29.2789992  60.7349978 -14.9299986
  29.2759992  59.8449978 -16.1539986  29.4634508  60.6008280 -15.7665197
  25.2989992  63.4669978  -5.4169986  24.6579992  63.4269978  -4.7079986
  25.3369992  64.3939978  -5.6549986  25.2163010  63.5867668  -5.3520054
  25.2959992  63.6879978 -10.5049986  24.4039992  63.3479978 -10.5639986
  25.7469992  63.3109978 -11.2609986  25.2347642  63.5904910 -10.6152274
  30.8319992  64.1039978 -11.6879986  30.4229992  64.9189978 -11.9799986
  31.5519992  63.9639978 -12.3019986  30.8734439  64.1965372 -11.8109885
  29.9339992  64.2799978  -0.1999986  29.3709992  63.5749978   0.1210014
  30.7599992  64.1589978   0.2680014  29.9686674  64.1672165  -0.0928249
  31.8369992  63.5499978  -8.8739986  31.6409992  64.1559978  -9.5889986
  32.0179992  62.7169978  -9.3079986  31.8346584  63.5202513  -9.0305788
  23.0489992  63.7879978  -3.5499986  23.0109992  64.1879978  -2.6809986
  22.5589992  62.9709978  -3.4599986  22.9775330  63.7322674  -3.4188711
  26.4149992  61.1619978 -16.7509986  25.9839992  60.7169978 -16.0219986
  25.6969992  61.5329978 -17.2639986  26.2589176  61.1512051 -16.7205070
  19.6579992  60.9039978  -9.6989986  20.2879992  60.8749978  -8.9799986
  20.1069992  60.4789978 -10.4299986  19.8050835  60.8425660  -9.6992341
  20.9319992  61.6499978 -14.2749986  21.4059992  62.2409978 -14.8599986
  20.2139992  62.1799978 -13.9279986  20.8998640  61.8025511 -14.3082031
  31.1009992  65.1879978  -4.2029986  31.4239992  64.5569978  -4.8459986
  30.6599992  64.6539978  -3.5419986  31.0856379  65.0293468  -4.2017418
  27.8779992  61.1159978  -9.4189986  26.9669992  61.1729978  -9.1299986
  28.3829992  61.0559978  -8.6079986  27.8216873  61.1156826  -9.2698793
  22.7059992  62.7449978 -10.5919986  21.8169992  62.8439978 -10.9319986
  23.0029992  61.9029978 -10.9379986  22.6244177  62.6447687 -10.6853060
  26.3589992  62.7449978 -12.9349986  27.2909992  62.8739978 -12.7569986
  26.1439992  63.4139978 -13.5849986  26.4574472  62.8530806 -12.9985109
  32.2829992  60.3509978  -6.1539986  31.6059992  60.4819978  -5.4909986
  31.7979992  60.1959978  -6.9649986  32.1247405  60.3479947  -6.1727830
  25.0329992  63.9389978 -15.3689986  24.4909992  63.5599978 -16.0599986
  25.8669992  64.1339978 -15.7969986  25.0714390  63.9134079 -15.5215608
  35.5709992  76.0219978   0.1220014  35.7699992  76.4459978  -0.7119986
  36.2259992  76.3659978   0.7290014  35.6868522  76.1266301   0.0897852
  23.1689992  68.4959978  -0.2699986  23.9009992  68.7509978   0.2920014
  22.3879992  68.7009978   0.2460014  23.1636526  68.5585450  -0.1234824
  29.1979992  63.9029978  -7.5319986  29.7619992  63.3569978  -8.0789986
  29.0499992  63.3819978  -6.7429986  29.2553037  63.7576787  -7.5002771
  24.1999992  60.0399978 -11.1129986  23.8829992  59.1369978 -11.1489986
  24.9809992  60.0419978 -11.6659986  24.2622431  59.9167797 -11.1926898
  27.8239992  62.2919978  -5.1179986  26.9889992  62.7459978  -5.0069986
  28.3479992  62.5679978  -4.3659986  27.7806072  62.3913948  -5.0011864
  28.3689992  68.5049978 -13.4329986  27.6239992  67.9969978 -13.7549986
  28.2339992  68.5539978 -12.4869986  28.2488963  68.4421731 -13.3491174
  35.5189992  67.6379978  -4.6459986  36.1599992  68.0939978  -5.1899986
  34.6879992  67.7509978  -5.1089986  35.4945287  67.7156921  -4.7830113
  32.2659992  61.3189978 -15.2339986  31.3279992  61.4299978 -15.3849986
  32.5639992  62.1749978 -14.9269986  32.1776318  61.4500158 -15.2131855
  29.8879992  68.6889978  -2.1959986  29.5419992  68.3069978  -1.3889986
  29.6879992  69.6219978  -2.1249986  29.8135987  68.7629002  -2.0759539
  32.9849992  63.1859978 -13.5729986  33.8769992  63.0479978 -13.2539986
  33.0409992  63.9769978 -14.1099986  33.1147325  63.2739918 -13.6018783
  23.4929992  67.7999978  -7.6629986  24.2379992  67.7969978  -8.2649986
  23.5709992  66.9759978  -7.1819986  23.6053365  67.6882384  -7.6802570
  30.4939992  69.9629978 -14.4079986  30.1989992  70.7899978 -14.0259986
  29.7909992  69.3439978 -14.2109986  30.3586379  69.9924171 -14.3291346
  20.5009992  66.2599978  -2.3479986  20.7239992  65.8419978  -1.5169986
  19.8989992  65.6479978  -2.7709986  20.4501513  66.1199606  -2.2913260
  27.5179992  65.7769978  -0.1349986  27.2219992  65.6119978  -1.0309986
  28.4489992  65.5569978  -0.1459986  27.6034401  65.7246879  -0.2589794
  32.1379992  71.1509978  -2.2459986  31.2379992  71.3339978  -2.5129986
  32.1719992  71.4099978  -1.3249986  32.0193748  71.2110554  -2.1580836
  37.8699992  63.3949978 -13.8779986  37.3149992  62.9989978 -14.5509986
  37.9699992  64.3059978 -14.1559986  37.8076816  63.4639505 -14.0074967
  37.8329992  69.1959978  -1.0409986  36.9819992  69.4339978  -1.4089986
  38.4229992  69.1789978  -1.7939986  37.7963812  69.2262524  -1.1931547
  36.1649992  72.1809978 -13.4129986  35.7919992  71.3559978 -13.1039986
  36.4419992  71.9979978 -14.3109986  36.1513463  72.0432569 -13.4920475
  33.3249992  66.9889978  -6.3919986  32.3969992  66.7579978  -6.4189986
  33.7759992  66.2119978  -6.7219986  33.2588165  66.8522774  -6.4403210
  25.8679992  71.3179978 -10.2589986  26.3959992  72.0909978 -10.4589986
  24.9879992  71.5419978 -10.5609986  25.8213435  71.4542700 -10.3272690
  21.6229992  66.1799978 -15.6719986  22.2389992  66.8069978 -15.2919986
  20.7609992  66.4959978 -15.3999986  21.5907678  66.3084412 -15.5832791
  27.2959992  68.9809978 -10.6829986  27.0549992  69.9059978 -10.6409986
  26.5549992  68.5219978 -10.2859986  27.1629206  69.0455915 -10.6236231
  27.8099992  73.1299978  -4.3679986  28.1729992  73.9839978  -4.6009986
  28.3419992  72.8379978  -3.6269986  27.9315141  73.2073895  -4.2997903
  25.9789992  74.0019978 -11.1369986  25.0289992  74.1079978 -11.0859986
  26.3309992  74.8229978 -10.7929986  25.8965472  74.1274923 -11.0835148
  31.3539992  69.2289978  -4.6669986  30.9289992  69.0009978  -3.8409986
  31.9349992  68.4899978  -4.8489986  31.3743395  69.0979545  -4.5785586
  33.5569992  70.1579978 -15.5929986  33.9109992  69.7779978 -14.7889986
  32.6089992  70.0639978 -15.5059986  33.4772298  70.0932452 -15.4711313
  34.0129992  73.7809978  -2.1979986  33.4109992  73.2249978  -2.6929986
  34.2939992  74.4479978  -2.8239986  33.9685757  73.7950744  -2.3504325
  38.0609992  74.6369978 -15.3919986  38.8049992  75.2229978 -15.5319986
  37.3669992  75.2059978 -15.0589986  38.0689809  74.7940818 -15.3661410
  22.1349992  61.0139978  -2.7899986  21.2429992  61.3519978  -2.8579986
  22.0369992  60.1579978  -2.3719986  21.9994475  60.9446543  -2.7428296
  34.4229992  68.8299978 -13.3659986  34.1459992  68.1019978 -12.8099986
  35.3509992  68.9489978 -13.1609986  34.5104499  68.7464213 -13.2621956
  21.7869992  72.8179978  -4.3549986  22.0039992  71.8859978  -4.3859986
  22.0329992  73.0929978  -3.4719986  21.8499809  72.7275686  -4.2398309
  26.5849992  70.8399978 -14.6899986  26.7319992  70.3199978 -13.8999986
  26.5819992  71.7469978 -14.3829986  26.6047102  70.8913953 -14.5404075
  23.0379992  68.0919978 -14.1789986  22.3519992  68.4449978 -13.6119986
  23.5609992  68.8549978 -14.4259986  23.0148402  68.2433901 -14.1348199
  30.8699992  60.7549978  -3.8999986  31.5689992  60.8289978  -3.2499986
  30.4889992  59.8899978  -3.7459986  30.9142097  60.6482389  -3.7902003
  31.6539992  60.4069978 -12.8029986  31.8739992  60.8779978 -13.6069986
  32.2129992  60.8009978 -12.1329986  31.7596731  60.5247287 -12.8224967
  29.3229992  72.5369978 -13.9399986  28.5059992  73.0339978 -13.8879986
  29.8519992  73.0129978 -14.5809986  29.2828125  72.6691989 -14.0194694
  28.8539992  62.1349978 -11.9679986  29.6659992  62.6389978 -11.9219986
  28.6099992  61.9899978 -11.0539986  28.9321467  62.1843749 -11.8381425
  29.3899992  63.1209978  -2.7839986  29.5089992  63.6949978  -2.0269986
  30.0449992  62.4329978  -2.6689986  29.4948684  63.1065194  -2.6648326
  29.7379992  59.2159978 -11.0299986  29.3909992  59.8329978 -10.3859986
  30.3969992  59.7169978 -11.5119986  29.7795090  59.3681575 -11.0069319
  26.6609992  73.5809978 -13.9589986  26.8219992  74.3809978 -14.4589986
  26.4639992  73.8879978 -13.0739986  26.6563906  73.7318678 -13.9077667
  25.3959992  60.2789978 -14.3429986  25.3119992  61.1669978 -13.9959986
  26.2859992  60.0139978 -14.1109986  25.5048163  60.3647179 -14.2641404
  35.5939992  61.0279978  -1.9489986  34.6779992  61.2899978  -2.0359986
  35.9299992  61.0249978  -2.8449986  35.5138499  61.0635163  -2.0821234
  34.1969992  64.7779978  -7.8529986  33.3989992  64.3629978  -8.1809986
  34.6419992  64.0879978  -7.3619986  34.1479684  64.6278628  -7.8314773
  23.6539992  70.7059978 -15.2829986  24.2459992  71.4059978 -15.0059986
  24.1129992  70.2729978 -16.0019986  23.7971652  70.7432675 -15.3423467
  21.9699992  63.3709978 -16.1669986  21.9249992  64.3099978 -15.9879986
  21.0819992  63.1349978 -16.4359986  21.8438166  63.4676687 -16.1788476
  35.2829992  74.0339978  -6.2309986  35.1269992  74.7129978  -6.8879986
  36.2159992  74.1059978  -6.0279986  35.3877387  74.1366390  -6.2934658
  22.7779992  58.1519978  -7.4929986  22.5489992  58.2109978  -8.4209986
  22.3359992  57.3609978  -7.1869986  22.6868801  58.0530540  -7.5785271
  21.7089992  72.0929978 -11.3329986  20.8759992  72.5649978 -11.3059986
  22.2539992  72.6029978 -11.9319986  21.6687857  72.2264791 -11.4102858
  20.9969992  74.7049978  -0.0029986  21.5369992  74.4889978   0.7570014
  20.5159992  73.8999978  -0.1929986  21.0059219  74.5665156   0.0754282
  25.5939992  73.6249978   1.6170014  26.3619992  73.1659978   1.9580014
  25.5729992  73.3989978   0.6870014  25.6962135  73.5316668   1.5379491
  29.6859992  73.1329978 -17.0069986  29.0419992  72.5019978 -16.6859986
  30.4479992  72.6019978 -17.2389986  29.7008058  72.9747902 -16.9943962
  32.1709992  72.0049978   0.3460014  31.8199992  71.1479978   0.5900014
  32.8969992  72.1469978   0.9530014  32.2211895  71.9071351   0.4613770
  34.2909992  72.9499978 -16.7739986  34.5739992  72.1549978 -16.3209986
  35.0299992  73.1829978 -17.3349986  34.4297096  72.8727049 -16.7878896
  20.9039992  68.5159978   0.9510014  21.0479992  67.6139978   0.6650014
  20.1319992  68.8019978   0.4640014  20.8192733  68.4311798   0.8459532
  25.2449992  68.8589978 -16.9159986  25.3099992  68.0649978 -16.3859986
  25.8979992  68.7409978 -17.6059986  25.3421605  68.7343430 -16.9367003
  27.5589992  68.4849978   0.3840014  27.2309992  68.7559978  -0.4729986
  27.7109992  67.5439978   0.2960014  27.5346412  68.3949046   0.2547822
  33.2939992  68.4009978  -2.2329986  34.0389992  68.9899978  -2.3519986
  32.5369992  68.9829978  -2.1689986  33.2935470  68.5602128  -2.2406201
  21.7369992  65.7159978   0.3710014  22.1449992  64.8589978   0.2500014
  21.4759992  65.7299978   1.2920014  21.7576016  65.6005119   0.4789192
  26.3949992  66.8319978 -14.6099986  25.9349992  66.3479978 -13.9249986
  26.6499992  66.1629978 -15.2459986  26.3664856  66.6753669 -14.6021603
  25.6839992  64.7249978  -2.2539986  25.0649992  65.3989978  -1.9739986
  26.0279992  65.0459978  -3.0879986  25.6457123  64.8606887  -2.3283612
  27.4659992  65.0749978 -16.3479986  27.2849992  64.9199978 -17.2749986
  28.4159992  65.1829978 -16.3029986  27.5696566  65.0683669 -16.4689071
  30.7029992  67.1959978   1.0230014  31.6569992  67.2799978   0.9960014
  30.5429992  66.4839978   1.6430014  30.8117182  67.1112842   1.1030733
  36.8559992  67.4289978 -16.9019986  36.5819992  67.0049978 -17.7149986
  36.8949992  68.3609978 -17.1189986  36.8237716  67.4968827 -17.0425714
  26.0229992  62.0799978  -1.1719986  26.1729992  61.3509978  -1.7739986
  26.0249992  62.8569978  -1.7309986  26.0437967  62.0852708  -1.3299459
  26.4359992  60.4489978  -3.6789986  26.9709992  60.9009978  -4.3309986
  25.5829992  60.3409978  -4.1019986  26.3940374  60.4962665  -3.8253290
  28.0169992  65.8889978  -3.4399986  28.7679992  65.7329978  -4.0129986
  27.6779992  66.7409978  -3.7149986  28.0739587  65.9828138  -3.5555922
  32.4329992  63.7039978   1.5890014  32.6249992  62.7729978   1.4770014
  33.2909992  64.1289978   1.5780014  32.5752182  63.6340070   1.5721862
  33.7499992  66.4929978  -0.3339986  33.4679992  67.2019978  -0.9119986
  34.6919992  66.4199978  -0.4849986  33.8387921  66.5802193  -0.4335775
  24.5019992  63.2779978   0.7390014  23.7339992  62.7449978   0.5290014
  25.1799992  62.9679978   0.1400014  24.4887235  63.1631754   0.6292413
  27.2409992  57.9059978  -3.2479986  27.1429992  58.8519978  -3.3529986
  26.4989992  57.5329978  -3.7239986  27.1272534  57.9851773  -3.3267400
  28.5049992  62.2269978   0.3160014  28.2699992  62.0079978   1.2170014
  27.7219992  62.0199978  -0.1939986  28.3669095  62.1689892   0.3705353
  31.2209992  61.3549978  -0.6089986  30.2729992  61.3869978  -0.4769986
  31.5329992  60.7289978   0.0450014  31.1335293  61.2747923  -0.5025852
  32.8549992  59.9889978   1.3960014  32.7579992  59.0369978   1.3910014
  32.5329992  60.2569978   2.2570014  32.7982468  59.8950884   1.5116210
  22.6819992  61.1979978   0.4440014  22.8939992  60.4919978  -0.1659986
  22.5709992  60.7609978   1.2880014  22.6960269  61.0421921   0.4745873
  27.4629992  57.1999978  -0.5769986  28.1749992  56.5599978  -0.5909986
  27.3619992  57.4659978  -1.4899986  27.5467387  57.1484330  -0.7024437
  27.8169992  58.8819978   1.4770014  27.6849992  58.4069978   0.6570014
  27.2169992  59.6269978   1.4220014  27.7179070  58.9175789   1.3573251
  27.3629992  75.7649978 -15.3469986  28.2959992  75.9229978 -15.2029986
  27.0989992  76.4409978 -15.9719986  27.4549911  75.8779373 -15.4117278
  20.9309992  70.4019978 -15.8639986  21.8449992  70.4809978 -15.5909986
  20.9389992  69.7149978 -16.5299986  21.0570655  70.3199205 -15.9167083
  19.5799992  75.7949978 -10.7869986  18.9329992  75.3329978 -11.3189986
  19.9349992  75.1229978 -10.2039986  19.5393741  75.6409774 -10.7810825
  20.4499992  73.8749978  -8.9819986  20.1159992  72.9949978  -8.8099986
  20.6729992  74.2209978  -8.1169986  20.4343721  73.8011938  -8.8415832
  37.9989992  74.6849978  -6.0009986  37.9769992  74.8699978  -5.0619986
  38.6889992  75.2529978  -6.3419986  38.0893439  74.7871887  -5.9185209
  37.5619992  74.2519978  -3.0799986  37.0749992  73.5169978  -3.4509986
  38.1109992  73.8579978  -2.4019986  37.5695247  74.0981057  -3.0391539
  36.0129992  70.0419978   1.5590014  35.1469992  69.9369978   1.9530014
  36.3889992  70.7999978   2.0050014  35.9453401  70.1301708   1.6732620
  37.3139992  68.2979978 -12.9269986  38.1639992  68.7189978 -12.7999986
  37.3189992  67.5579978 -12.3199986  37.4311143  68.2556094 -12.8275250
  37.7079992  66.3519978 -11.1039986  36.9819992  65.8719978 -10.7059986
  38.2899992  66.5569978 -10.3709986  37.6872730  66.3140184 -10.9505851
  37.4669992  69.1369978  -6.1559986  38.3009992  68.7589978  -6.4369986
  37.5789992  70.0799978  -6.2749986  37.5961917  69.2127943  -6.2105139
  35.9539992  72.0149978  -3.8489986  35.3059992  72.3399978  -3.2239986
  35.4359992  71.5739978  -4.5229986  35.7954196  71.9998651  -3.8545848
  37.9769992  66.2529978 -14.7129986  37.4549992  66.6089978 -15.4309986
  37.9439992  66.9279978 -14.0339986  37.9010129  66.3929598 -14.7196645
  36.3259992  63.4919978 -16.1619986  36.4219992  64.1589978 -16.8419986
  36.1859992  62.6769978 -16.6429986  36.3202040  63.4730671 -16.3201622
  35.4949992  64.8729978 -10.5409986  35.3449992  63.9279978 -10.5609986
  35.1409992  65.1539978  -9.6969986  35.4266351  64.7816644 -10.4296780
  20.5299992  66.9509978  -6.5299986  20.7149992  66.8689978  -7.4659986
  21.3799992  66.8269978  -6.1069986  20.6700928  66.9230463  -6.6007107
  36.3509992  66.8429978  -0.9019986  36.9339992  66.1079978  -0.7099986
  36.9149992  67.6149978  -0.8549986  36.5069781  66.8468145  -0.8693836
  37.8479992  64.7459978  -0.2169986  36.9849992  64.3669978  -0.3829986
  38.4519992  64.0069978  -0.2919986  37.8116085  64.5943223  -0.2498305
  35.5729992  60.8999978 -17.0439986  36.1839992  60.5289978 -16.4069986
  34.7359992  60.4789978 -16.8479986  35.5434947  60.7922756 -16.9302748
  35.2059992  62.4549978 -12.0779986  35.4849992  61.5479978 -11.9539986
  35.9649992  62.8889978 -12.4669986  35.3468619  62.3894502 -12.1136205
  35.8169992  63.0369978  -6.6419986  36.7499992  63.2489978  -6.6769986
  35.5819992  63.1379978  -5.7199986  35.9129517  63.0796833  -6.5220870
  35.8469992  63.7739978  -3.8659986  35.0039992  64.0419978  -3.4999986
  36.2889992  64.5959978  -4.0769986  35.7914138  63.9218273  -3.8444482
  20.1279992  62.2209978  -0.3899986  21.0469992  62.0989978  -0.1529986
  19.6779992  61.4709978   0.0000014  20.1930087  62.1029608  -0.3048590
  38.1299992  57.7539978   1.4870014  38.4789992  57.0999978   0.8820014
  38.2769992  58.5909978   1.0470014  38.1976824  57.7776024   1.3446304
  35.8189992  59.7179978 -12.0299986  36.0009992  59.2689978 -11.2049986
  35.2189992  59.1339978 -12.4939986  35.7628187  59.5775552 -11.9797261
  21.3489992  60.5339978  -7.4979986  21.7939992  59.7419978  -7.1959986
  21.8149992  61.2499978  -7.0679986  21.4729718  60.5224534  -7.3984735
  19.6529992  63.5329978  -6.4289986  20.1449992  63.3119978  -7.2199986
  20.0149992  64.3729978  -6.1479986  19.7692923  63.6163468  -6.4992593
  37.6489992  59.8629978  -0.1639986  36.7319992  60.1339978  -0.1989986
  37.7719992  59.3279978  -0.9479986  37.5399672  59.8277885  -0.2748138
  37.6859992  59.7859978 -15.5019986  38.0979992  59.0649978 -15.9769986
  38.3669992  60.4549978 -15.4439986  37.8345536  59.7777766 -15.5591976
  19.9669992  59.7909978 -12.3749986  19.0419992  59.9989978 -12.5039986
  20.4209992  60.2749978 -13.0649986  19.9016298  59.8849299 -12.4859549
  34.7369992  74.7749978 -10.4289986  35.3899992  74.4269978 -11.0369986
  35.2479992  75.2629978  -9.7829986  34.8952777  74.7933815 -10.4247953
  19.9299992  58.5289978  -4.0309986  19.2649992  58.2829978  -3.3879986
  19.4869992  59.1509978  -4.6079986  19.7791168  58.5794214  -4.0210152
  22.1219992  71.7039978   0.1140014  21.3009992  71.8789978  -0.3469986
  21.8699992  71.6309978   1.0340014  21.9755594  71.7180717   0.1753611
  25.0759992  72.6779978  -3.6279986  24.6519992  73.4879978  -3.9099986
  25.9809992  72.7639978  -3.9299986  25.1402138  72.8004160  -3.7073585
  29.3879992  74.0769978  -0.6679986  29.5719992  73.7439978   0.2100014
  30.2339992  74.3869978  -0.9899986  29.5276484  74.0732979  -0.5912383
  31.7329992  75.3629978  -1.4239986  32.4099992  74.7299978  -1.6639986
  32.0539992  75.7639978  -0.6169986  31.8691323  75.3305691  -1.3476842
  36.6499992  57.9529978  -2.3449986  35.8369992  58.2779978  -2.7319986
  36.8829992  57.1919978  -2.8779986  36.5701347  57.8946880  -2.4700159
  22.4779992  75.9349978  -3.5799986  21.7579992  76.3749978  -4.0309986
  22.1129992  75.6839978  -2.7319986  22.3299643  75.9613369  -3.5270871
  24.9449992  75.5349978  -4.5499986  24.0809992  75.6069978  -4.1459986
  24.8899992  76.0819978  -5.3339986  24.8191942  75.6187849  -4.6006000
  29.6559992  75.4229978  -5.3749986  29.1989992  75.9519978  -6.0289986
  29.8189992  76.0259978  -4.6499986  29.6154960  75.5769280  -5.3664726
  31.9839992  74.3009978  -4.4299986  31.0789992  74.4659978  -4.6959986
  32.4119992  75.1539978  -4.4959986  31.9181537  74.4389134  -4.4752905
  34.5879992  75.8709978  -4.1349986  34.4059992  76.7869978  -4.3459986
  34.7649992  75.4599978  -4.9819986  34.5870030  75.9408273  -4.2782834
  21.8929992  74.5579978  -6.6699986  21.8749992  74.1319978  -5.8129986
  22.6979992  74.2389978  -7.0789986  21.9992875  74.4566435  -6.6080485
  24.0339992  73.2679978  -8.0149986  23.8149992  72.3509978  -7.8449986
  24.8579992  73.4079978  -7.5489986  24.1154702  73.1615511  -7.9287473
  26.5709992  73.7379978  -7.1659986  26.7839992  72.8499978  -7.4529986
  26.6359992  73.7029978  -6.2119986  26.6089149  73.6118326  -7.0762631
  30.0799992  59.4019978  -8.0219986  29.4059992  58.7719978  -7.7659986
  30.6439992  58.9179978  -8.6249986  30.0640384  59.2503708  -8.0684980
  35.2229992  57.5089978  -7.9089986  35.8259992  58.0569978  -8.4109986
  34.3529992  57.8279978  -8.1499986  35.1879157  57.6270373  -8.0102090
  36.9499992  58.6479978  -9.5759986  37.5609992  58.1339978 -10.1029986
  37.3319992  59.5249978  -9.5529986  37.0853305  58.6962050  -9.6450582
  22.4069992  58.0359978 -10.1999986  21.6299992  57.8009978 -10.7069986
  22.9369992  57.2389978 -10.1909986  22.3723451  57.8961268 -10.2681373
  21.2429992  57.8339978 -14.3959986  21.6819992  58.4449978 -14.9879986
  20.6089992  58.3719978 -13.9219986  21.2173859  57.9904064 -14.4129695
  26.9859992  57.9619978 -10.3869986  27.8599992  58.3509978 -10.4159986
  26.8499992  57.7469978  -9.4639986  27.0871953  57.9861643 -10.2662383
  32.5429992  57.9919978  -8.7369986  32.6189992  58.0879978  -9.6869986
  32.2679992  57.0849978  -8.6089986  32.5161871  57.8824146  -8.8496056
  33.8959992  58.0179978 -13.0449986  33.1929992  58.6329978 -13.2549986
  33.4509992  57.1809978 -12.9139986  33.7396550  57.9889668 -13.0560163
  21.1439992  73.7819978 -13.4989986  20.4589992  73.7439978 -14.1659986
  21.1479992  74.6949978 -13.2109986  21.0507621  73.9001924 -13.5513874
  23.1039992  59.7499978 -15.9539986  23.5949992  59.1199978 -16.4809986
  23.7269992  60.0459978 -15.2909986  23.2555304  59.7037376 -15.9365060
  28.1299992  60.0429978 -13.4969986  28.3079992  59.3959978 -12.8139986
  28.0759992  60.8769978 -13.0299986  28.1470678  60.0671604 -13.3403699
  30.0079992  74.9909978 -15.1009986  30.8739992  75.3579978 -15.2789986
  29.7619992  74.5519978 -15.9149986  30.0932097  74.9818525 -15.2353981
  36.7169992  74.5539978 -12.4219986  36.5229992  73.8059978 -12.9869986
  36.6779992  75.3119978 -13.0049986  36.6851645  74.5540786 -12.5781852
  22.3639992  58.5499978  -0.6819986  21.9979992  57.7839978  -0.2399986
  23.2769992  58.5789978  -0.3959986  22.4373172  58.4490324  -0.5828110
  24.3369992  57.8999978   0.8530014  25.2359992  57.6259978   0.6690014
  23.9509992  57.1579978   1.3180014  24.4077307  57.7622196   0.8907098
  22.9619992  74.7019978 -16.4739986  22.6939992  74.9879978 -15.5999986
  23.7329992  74.1559978 -16.3209986  23.0295926  74.6672779 -16.3338795
  32.7589992  57.2329978   1.0360014  32.8349992  56.8069978   1.8890014
  33.6519992  57.2459978   0.6930014  32.8902303  57.1763493   1.1065497
  35.9349992  73.3059978  -0.2719986  35.1529992  73.1189978  -0.7919986
  35.8629992  74.2349978  -0.0549986  35.8181924  73.4060637  -0.3138398
  50.3409992  67.1919978 -10.2409986  50.4299992  68.1359978 -10.3729986
  49.7029992  66.9169978 -10.8989986  50.2669062  67.2839812 -10.3480359
  49.2739992  66.4469978  -6.8219986  49.2359992  65.8009978  -6.1169986
  48.9519992  65.9799978  -7.5929986  49.2252679  66.2954276  -6.8297079
  41.6419992  66.0609978  -5.2289986  41.6839992  65.4359978  -4.5059986
  42.3449992  66.6849978  -5.0469986  41.7427345  66.0597873  -5.1054726
  52.9799992  69.3859978  -8.5209986  52.5389992  68.6659978  -8.0699986
  52.9669992  70.1069978  -7.8909986  52.9179215  69.3849291  -8.3741895
  42.5659992  70.5109978  -6.6939986  42.1959992  69.7089978  -7.0639986
  43.5069992  70.3429978  -6.6479986  42.6425984  70.3784638  -6.7384397
  39.1759992  64.1709978 -11.3019986  38.7279992  65.0169978 -11.3199986
  38.6149992  63.5919978 -11.8169986  39.0388546  64.2083993 -11.3741109
  39.8859992  66.3329978  -9.1759986  40.0999992  65.5629978  -8.6479986
  40.6239992  66.4229978  -9.7789986  40.0150200  66.2398587  -9.1852965
  50.0919992  74.4899978  -8.3089986  50.7109992  73.8139978  -8.5819986
  49.8829992  74.2719978  -7.3999986  50.1486056  74.3678869  -8.2236033
  47.6629992  68.8789978  -6.4159986  47.9669992  68.1929978  -7.0109986
  48.3849992  68.9979978  -5.7979986  47.8021240  68.8012314  -6.4139041
  56.3259992  60.4809978  -5.5559986  56.3759992  61.0909978  -4.8199986
  56.7519992  60.9419978  -6.2789986  56.3904108  60.6267709  -5.5529888
  50.8039992  63.2729978  -6.0889986  50.9469992  62.3269978  -6.0689986
  50.6979992  63.4799978  -7.0169986  50.8092403  63.1714797  -6.2117761
  43.9589992  61.3749978  -8.8159986  44.0019992  62.2349978  -9.2349986
  43.5009992  60.8229978  -9.4499986  43.9029871  61.4179245  -8.9589239
  51.6809992  61.5059978 -10.4149986  52.3279992  61.1769978  -9.7909986
  52.1909992  62.0229978 -11.0379986  51.8384351  61.5309067 -10.4138963
  40.5789992  63.7719978  -8.0539986  41.2329992  63.2219978  -7.6219986
  40.6029992  63.4979978  -8.9709986  40.6717199  63.6597167  -8.1188332
  45.7359992  65.3219978  -8.8389986  46.3519992  64.7949978  -8.3299986
  45.1489992  64.6819978  -9.2429986  45.7410154  65.1633954  -8.8239055
  56.7179992  61.9589978  -3.3199986  56.0289992  62.6169978  -3.4149986
  56.7329992  61.7609978  -2.3829986  56.6257756  62.0222603  -3.2064188
  42.7689992  60.2929978  -4.7419986  42.5499992  60.8229978  -5.5089986
  42.1009992  60.5189978  -4.0949986  42.6486975  60.3960967  -4.7594860
  50.1379992  69.7929978 -11.1979986  49.8429992  69.4699978 -12.0499986
  49.8139992  70.6929978 -11.1569986  50.0538460  69.8704464 -11.3090286
  45.3379992  67.9679978  -4.4549986  44.5979992  68.5669978  -4.3509986
  46.0519992  68.5219978  -4.7699986  45.3333500  68.1247829  -4.4833629
  53.4449992  60.7969978  -8.4349986  53.2299992  60.0309978  -7.9019986
  54.1009992  61.2689978  -7.9219986  53.5042673  60.7560728  -8.2928010
  42.3629992  62.1849978  -6.7899986  42.9769992  62.8179978  -6.4169986
  42.8749992  61.7129978  -7.4459986  42.5161962  62.2077249  -6.8277065
  43.7459992  69.9329978  -3.6679986  43.7399992  70.8119978  -4.0459986
  42.8919992  69.8489978  -3.2429986  43.6297925  70.0419535  -3.6623113
  39.8669992  69.6039978 -12.8859986  39.5949992  69.8329978 -13.7739986
  39.9119992  70.4409978 -12.4249986  39.8358097  69.7486163 -12.9453317
  53.4919992  71.2249978  -6.1729986  52.5499992  71.2839978  -6.0109986
  53.7679992  72.1309978  -6.3099986  53.4005865  71.3555288  -6.1693808
  53.7919992  59.5119978  -4.7559986  53.0559992  60.1219978  -4.7929986
  54.4759992  59.9269978  -5.2819986  53.7835367  59.6517551  -4.8321826
  46.7959992  57.5979978  -7.2899986  46.6779992  56.6499978  -7.3439986
  45.9409992  57.9309978  -7.0169986  46.6642805  57.5132202  -7.2604921
  51.7439992  73.0059978  -9.5479986  52.1689992  72.2989978 -10.0329986
  52.0609992  73.8079978  -9.9649986  51.8450266  73.0175190  -9.6707521
  52.9039992  70.9069978 -11.0389986  52.6459992  70.2169978 -11.6509986
  52.9749992  70.4639978 -10.1939986  52.8783050  70.7526814 -11.0084379
  54.5899992  69.4739978  -2.5619986  54.7289992  68.8819978  -3.3009986
  54.7569992  70.3469978  -2.9179986  54.6316193  69.5108896  -2.7113789
  49.0619992  66.4359978 -12.7889986  48.3509992  66.9709978 -13.1409986
  49.7529992  66.4909978 -13.4489986  49.0580751  66.5166777 -12.9264142
  49.1159992  64.8929978 -15.7509986  49.8169992  64.9159978 -15.0989986
  49.4179992  64.2649978 -16.4069986  49.2528202  64.8112212 -15.7504391
  56.4309992  65.8139978  -4.4959986  55.7789992  66.5079978  -4.4069986
  56.8969992  66.0239978  -5.3059986  56.4045937  65.9375019  -4.5932467
  52.4679992  66.6449978 -11.8379986  51.7359992  66.8739978 -11.2639986
  52.9149992  65.9319978 -11.3829986  52.4283963  66.5798729 -11.6980055
  52.3649992  64.8199978  -2.7699986  52.4449992  65.5829978  -2.1979986
  51.7639992  65.0989978  -3.4599986  52.2946547  64.9622457  -2.7849953
  44.1129992  67.2759978  -9.9549986  43.7829992  66.9049978 -10.7729986
  44.7019992  66.6049978  -9.6079986  44.1473970  67.1346063 -10.0200596
  45.4799992  70.7039978  -7.2739986  45.3849992  70.1249978  -8.0299986
  46.2089992  70.3329978  -6.7779986  45.5656011  70.5745561  -7.3103972
  44.4799992  66.0439978  -6.3219986  45.0449992  66.1659978  -7.0839986
  44.7989992  66.6819978  -5.6829986  44.6004166  66.1468791  -6.3399652
  50.7889992  71.5479978  -5.5879986  50.5489992  72.2099978  -4.9399986
  50.5909992  70.7129978  -5.1629986  50.7293826  71.5258115  -5.4418434
  45.3599992  70.4439978  -1.6039986  45.0489992  71.2259978  -1.1489986
  44.7099992  70.2909978  -2.2899986  45.2295538  70.5304087  -1.6344102
  51.3389992  65.8079978 -14.1519986  51.9179992  65.9579978 -13.4059986
  51.7529992  66.2779978 -14.8759986  51.4743358  65.8920954 -14.1476047
  42.2799992  66.6419978  -2.3759986  42.3499992  67.2929978  -1.6769986
  41.3889992  66.7449978  -2.7109986  42.1691690  66.7449249  -2.3256957
  49.0649992  72.5439978 -10.7169986  49.5389992  72.8399978  -9.9399986
  48.5019992  73.2829978 -10.9499986  49.0537890  72.6843036 -10.6421899
  43.5989992  72.5149978  -0.8409986  43.6069992  72.3789978  -1.7879986
  42.6829992  72.3979978  -0.5889986  43.4762528  72.4805463  -0.9366757
  55.0379992  57.5579978 -14.3389986  54.1379992  57.6969978 -14.0439986
  55.2899992  58.3889978 -14.7409986  54.9488683  57.6894055 -14.3529768
  43.1039992  66.3449978 -12.3659986  42.8119992  67.1129978 -12.8569986
  42.4289992  65.6859978 -12.5289986  42.9728497  66.3609745 -12.4551740
  56.2269992  71.9239978 -15.9629986  56.2999992  72.8629978 -15.7929986
  57.1319992  71.6189978 -16.0189986  56.3594170  72.0113282 -15.9472937
  39.1969992  68.7079978  -3.5509986  38.6949992  68.6799978  -4.3659986
  39.2019992  67.8029978  -3.2409986  39.1289832  68.5817486  -3.6205879
  38.9469992  71.4889978  -6.6669986  39.8929992  71.3439978  -6.6859986
  38.8339992  72.2729978  -6.1299986  39.0613578  71.5751697  -6.5969683
  57.1449992  72.1549978  -0.9839986  57.0949992  71.1989978  -1.0219986
  56.3179992  72.4219978  -0.5829986  57.0263831  72.0604680  -0.9349879
  48.1229992  71.7289978  -2.1079986  48.2109992  72.5549978  -1.6329986
  47.2599992  71.3989978  -1.8589986  48.0183357  71.7975468  -2.0092347
  48.5379992  75.5009978 -12.3019986  48.4619992  75.3799978 -13.2489986
  48.5699992  76.4499978 -12.1839986  48.5319380  75.6127677 -12.4154819
  42.1909992  74.2899978 -10.5209986  42.3429992  73.9419978  -9.6429986
  41.3399992  73.9329978 -10.7769986  42.0968344  74.1940879 -10.4353132
  51.6389992  74.6549978 -15.2999986  52.0139992  73.9109978 -15.7709986
  51.6439992  74.3849978 -14.3819986  51.6910098  74.5166392 -15.2403371
  51.3079992  74.5809978 -12.5509986  50.3729992  74.6809978 -12.3719986
  51.5879992  73.8709978 -11.9719986  51.2179471  74.4987933 -12.4483305
  54.2969992  63.6479978  -0.5039986  53.8889992  64.1279978  -1.2249986
  54.3369992  62.7419978  -0.8119986  54.2466221  63.5912449  -0.6441733
  41.4459992  70.0319978  -2.5079986  41.6619992  69.6699978  -1.6479986
  40.5899992  69.6569978  -2.7169986  41.3598810  69.9318837  -2.4187320
  44.0639992  58.5019978  -6.5119986  43.2029992  58.4149978  -6.9199986
  44.0419992  59.3579978  -6.0839986  43.9430491  58.6058003  -6.5100418
  48.7269992  58.2239978  -3.1369986  49.1469992  57.8089978  -2.3839986
  47.7939992  58.0449978  -3.0199986  48.6583736  58.1429910  -3.0181032
  52.0539992  61.9789978  -2.2839986  51.5399992  61.8539978  -1.4859986
  51.8979992  62.8919978  -2.5279986  51.9626967  62.0852123  -2.2079063
  52.8159992  66.8399978 -16.5229986  52.8579992  66.6179978 -17.4529986
  53.6649992  67.2389978 -16.3329986  52.9365253  66.8635498 -16.6246178
  48.3889992  60.7159978 -15.8519986  48.1349992  60.7349978 -14.9299986
  48.1319992  59.8449978 -16.1539986  48.3194508  60.6008280 -15.7665197
  44.1549992  63.4669978  -5.4169986  43.5139992  63.4269978  -4.7079986
  44.1929992  64.3939978  -5.6549986  44.0723010  63.5867668  -5.3520054
  44.1519992  63.6879978 -10.5049986  43.2599992  63.3479978 -10.5639986
  44.6029992  63.3109978 -11.2609986  44.0907642  63.5904910 -10.6152274
  49.6879992  64.1039978 -11.6879986  49.2789992  64.9189978 -11.9799986
  50.4079992  63.9639978 -12.3019986  49.7294439  64.1965372 -11.8109885
  48.7899992  64.2799978  -0.1999986  48.2269992  63.5749978   0.1210014
  49.6159992  64.1589978   0.2680014  48.8246674  64.1672165  -0.0928249
  50.6929992  63.5499978  -8.8739986  50.4969992  64.1559978  -9.5889986
  50.8739992  62.7169978  -9.3079986  50.6906584  63.5202513  -9.0305788
  41.9049992  63.7879978  -3.5499986  41.8669992  64.1879978  -2.6809986
  41.4149992  62.9709978  -3.4599986  41.8335330  63.7322674  -3.4188711
  45.2709992  61.1619978 -16.7509986  44.8399992  60.7169978 -16.0219986
  44.5529992  61.5329978 -17.2639986  45.1149176  61.1512051 -16.7205070
  38.5139992  60.9039978  -9.6989986  39.1439992  60.8749978  -8.9799986
  38.9629992  60.4789978 -10.4299986  38.6610835  60.8425660  -9.6992341
  39.7879992  61.6499978 -14.2749986  40.2619992  62.2409978 -14.8599986
  39.0699992  62.1799978 -13.9279986  39.7558640  61.8025511 -14.3082031
  49.9569992  65.1879978  -4.2029986  50.2799992  64.5569978  -4.8459986
  49.5159992  64.6539978  -3.5419986  49.9416379  65.0293468  -4.2017418
  46.7339992  61.1159978  -9.4189986  45.8229992  61.1729978  -9.1299986
  47.2389992  61.0559978  -8.6079986  46.6776873  61.1156826  -9.2698793
  41.5619992  62.7449978 -10.5919986  40.6729992  62.8439978 -10.9319986
  41.8589992  61.9029978 -10.9379986  41.4804177  62.6447687 -10.6853060
  45.2149992  62.7449978 -12.9349986  46.1469992  62.8739978 -12.7569986
  44.9999992  63.4139978 -13.5849986  45.3134472  62.8530806 -12.9985109
  51.1389992  60.3509978  -6.1539986  50.4619992  60.4819978  -5.4909986
  50.6539992  60.1959978  -6.9649986  50.9807405  60.3479947  -6.1727830
  43.8889992  63.9389978 -15.3689986  43.3469992  63.5599978 -16.0599986
  44.7229992  64.1339978 -15.7969986  43.9274390  63.9134079 -15.5215608
  54.4269992  76.0219978   0.1220014  54.6259992  76.4459978  -0.7119986
  55.0819992  76.3659978   0.7290014  54.5428522  76.1266301   0.0897852
  42.0249992  68.4959978  -0.2699986  42.7569992  68.7509978   0.2920014
  41.2439992  68.7009978   0.2460014  42.0196526  68.5585450  -0.1234824
  48.0539992  63.9029978  -7.5319986  48.6179992  63.3569978  -8.0789986
  47.9059992  63.3819978  -6.7429986  48.1113037  63.7576787  -7.5002771
  43.0559992  60.0399978 -11.1129986  42.7389992  59.1369978 -11.1489986
  43.8369992  60.0419978 -11.6659986  43.1182431  59.9167797 -11.1926898
  46.6799992  62.2919978  -5.1179986  45.8449992  62.7459978  -5.0069986
  47.2039992  62.5679978  -4.3659986  46.6366072  62.3913948  -5.0011864
  47.2249992  68.5049978 -13.4329986  46.4799992  67.9969978 -13.7549986
  47.0899992  68.5539978 -12.4869986  47.1048963  68.4421731 -13.3491174
  54.3749992  67.6379978  -4.6459986  55.0159992  68.0939978  -5.1899986
  53.5439992  67.7509978  -5.1089986  54.3505287  67.7156921  -4.7830113
  51.1219992  61.3189978 -15.2339986  50.1839992  61.4299978 -15.3849986
  51.4199992  62.1749978 -14.9269986  51.0336318  61.4500158 -15.2131855
  48.7439992  68.6889978  -2.1959986  48.3979992  68.3069978  -1.3889986
  48.5439992  69.6219978  -2.1249986  48.6695987  68.7629002  -2.0759539
  51.8409992  63.1859978 -13.5729986  52.7329992  63.0479978 -13.2539986
  51.8969992  63.9769978 -14.1099986  51.9707325  63.2739918 -13.6018783
  42.3489992  67.7999978  -7.6629986  43.0939992  67.7969978  -8.2649986
  42.4269992  66.9759978  -7.1819986  42.4613365  67.6882384  -7.6802570
  49.3499992  69.9629978 -14.4079986  49.0549992  70.7899978 -14.0259986
  48.6469992  69.3439978 -14.2109986  49.2146379  69.9924171 -14.3291346
  39.3569992  66.2599978  -2.3479986  39.5799992  65.8419978  -1.5169986
  38.7549992  65.6479978  -2.7709986  39.3061513  66.1199606  -2.2913260
  46.3739992  65.7769978  -0.1349986  46.0779992  65.6119978  -1.0309986
  47.3049992  65.5569978  -0.1459986  46.4594401  65.7246879  -0.2589794
  50.9939992  71.1509978  -2.2459986  50.0939992  71.3339978  -2.5129986
  51.0279992  71.4099978  -1.3249986  50.8753748  71.2110554  -2.1580836
  56.7259992  63.3949978 -13.8779986  56.1709992  62.9989978 -14.5509986
  56.8259992  64.3059978 -14.1559986  56.6636816  63.4639505 -14.0074967
  56.6889992  69.1959978  -1.0409986  55.8379992  69.4339978  -1.4089986
  57.2789992  69.1789978  -1.7939986  56.6523812  69.2262524  -1.1931547
  55.0209992  72.1809978 -13.4129986  54.6479992  71.3559978 -13.1039986
  55.2979992  71.9979978 -14.3109986  55.0073463  72.0432569 -13.4920475
  52.1809992  66.9889978  -6.3919986  51.2529992  66.7579978  -6.4189986
  52.6319992  66.2119978  -6.7219986  52.1148165  66.8522774  -6.4403210
  44.7239992  71.3179978 -10.2589986  45.2519992  72.0909978 -10.4589986
  43.8439992  71.5419978 -10.5609986  44.6773435  71.4542700 -10.3272690
  40.4789992  66.1799978 -15.6719986  41.0949992  66.8069978 -15.2919986
  39.6169992  66.4959978 -15.3999986  40.4467678  66.3084412 -15.5832791
  46.1519992  68.9809978 -10.6829986  45.9109992  69.9059978 -10.6409986
  45.4109992  68.5219978 -10.2859986  46.0189206  69.0455915 -10.6236231
  46.6659992  73.1299978  -4.3679986  47.0289992  73.9839978  -4.6009986
  47.1979992  72.8379978  -3.6269986  46.7875141  73.2073895  -4.2997903
  44.8349992  74.0019978 -11.1369986  43.8849992  74.1079978 -11.0859986
  45.1869992  74.8229978 -10.7929986  44.7525472  74.1274923 -11.0835148
  50.2099992  69.2289978  -4.6669986  49.7849992  69.0009978  -3.8409986
  50.7909992  68.4899978  -4.8489986  50.2303395  69.0979545  -4.5785586
  52.4129992  70.1579978 -15.5929986  52.7669992  69.7779978 -14.7889986
  51.4649992  70.0639978 -15.5059986  52.3332298  70.0932452 -15.4711313
  52.8689992  73.7809978  -2.1979986  52.2669992  73.2249978  -2.6929986
  53.1499992  74.4479978  -2.8239986  52.8245757  73.7950744  -2.3504325
  56.9169992  74.6369978 -15.3919986  57.6609992  75.2229978 -15.5319986
  56.2229992  75.2059978 -15.0589986  56.9249809  74.7940818 -15.3661410
  40.9909992  61.0139978  -2.7899986  40.0989992  61.3519978  -2.8579986
  40.8929992  60.1579978  -2.3719986  40.8554475  60.9446543  -2.7428296
  53.2789992  68.8299978 -13.3659986  53.0019992  68.1019978 -12.8099986
  54.2069992  68.9489978 -13.1609986  53.3664499  68.7464213 -13.2621956
  40.6429992  72.8179978  -4.3549986  40.8599992  71.8859978  -4.3859986
  40.8889992  73.0929978  -3.4719986  40.7059809  72.7275686  -4.2398309
  45.4409992  70.8399978 -14.6899986  45.5879992  70.3199978 -13.8999986
  45.4379992  71.7469978 -14.3829986  45.4607102  70.8913953 -14.5404075
  41.8939992  68.0919978 -14.1789986  41.2079992  68.4449978 -13.6119986
  42.4169992  68.8549978 -14.4259986  41.8708402  68.2433901 -14.1348199
  49.7259992  60.7549978  -3.8999986  50.4249992  60.8289978  -3.2499986
  49.3449992  59.8899978  -3.7459986  49.7702097  60.6482389  -3.7902003
  50.5099992  60.4069978 -12.8029986  50.7299992  60.8779978 -13.6069986
  51.0689992  60.8009978 -12.1329986  50.6156731  60.5247287 -12.8224967
  48.1789992  72.5369978 -13.9399986  47.3619992  73.0339978 -13.8879986
  48.7079992  73.0129978 -14.5809986  48.1388125  72.6691989 -14.0194694
  47.7099992  62.1349978 -11.9679986  48.5219992  62.6389978 -11.9219986
  47.4659992  61.9899978 -11.0539986  47.7881467  62.1843749 -11.8381425
  48.2459992  63.1209978  -2.7839986  48.3649992  63.6949978  -2.0269986
  48.9009992  62.4329978  -2.6689986  48.3508684  63.1065194  -2.6648326
  48.5939992  59.2159978 -11.0299986  48.2469992  59.8329978 -10.3859986
  49.2529992  59.7169978 -11.5119986  48.6355090  59.3681575 -11.0069319
  45.5169992  73.5809978 -13.9589986  45.6779992  74.3809978 -14.4589986
  45.3199992  73.8879978 -13.0739986  45.5123906  73.7318678 -13.9077667
  44.2519992  60.2789978 -14.3429986  44.1679992  61.1669978 -13.9959986
  45.1419992  60.0139978 -14.1109986  44.3608163  60.3647179 -14.2641404
  54.4499992  61.0279978  -1.9489986  53.5339992  61.2899978  -2.0359986
  54.7859992  61.0249978  -2.8449986  54.3698499  61.0635163  -2.0821234
  53.0529992  64.7779978  -7.8529986  52.2549992  64.3629978  -8.1809986
  53.4979992  64.0879978  -7.3619986  53.0039684  64.6278628  -7.8314773
  42.5099992  70.7059978 -15.2829986  43.1019992  71.4059978 -15.0059986
  42.9689992  70.2729978 -16.0019986  42.6531652  70.7432675 -15.3423467
  40.8259992  63.3709978 -16.1669986  40.7809992  64.3099978 -15.9879986
  39.9379992  63.1349978 -16.4359986  40.6998166  63.4676687 -16.1788476
  54.1389992  74.0339978  -6.2309986  53.9829992  74.7129978  -6.8879986
  55.0719992  74.1059978  -6.0279986  54.2437387  74.1366390  -6.2934658
  41.6339992  58.1519978  -7.4929986  41.4049992  58.2109978  -8.4209986
  41.1919992  57.3609978  -7.1869986  41.5428801  58.0530540  -7.5785271
  40.5649992  72.0929978 -11.3329986  39.7319992  72.5649978 -11.3059986
  41.1099992  72.6029978 -11.9319986  40.5247857  72.2264791 -11.4102858
  39.8529992  74.7049978  -0.0029986  40.3929992  74.4889978   0.7570014
  39.3719992  73.8999978  -0.1929986  39.8619219  74.5665156   0.0754282
  44.4499992  73.6249978   1.6170014  45.2179992  73.1659978   1.9580014
  44.4289992  73.3989978   0.6870014  44.5522135  73.5316668   1.5379491
  48.5419992  73.1329978 -17.0069986  47.8979992  72.5019978 -16.6859986
  49.3039992  72.6019978 -17.2389986  48.5568058  72.9747902 -16.9943962
  51.0269992  72.0049978   0.3460014  50.6759992  71.1479978   0.5900014
  51.7529992  72.1469978   0.9530014  51.0771895  71.9071351   0.4613770
  53.1469992  72.9499978 -16.7739986  53.4299992  72.1549978 -16.3209986
  53.8859992  73.1829978 -17.3349986  53.2857096  72.8727049 -16.7878896
  39.7599992  68.5159978   0.9510014  39.9039992  67.6139978   0.6650014
  38.9879992  68.8019978   0.4640014  39.6752733  68.4311798   0.8459532
  44.1009992  68.8589978 -16.9159986  44.1659992  68.0649978 -16.3859986
  44.7539992  68.7409978 -17.6059986  44.1981605  68.7343430 -16.9367003
  46.4149992  68.4849978   0.3840014  46.0869992  68.7559978  -0.4729986
  46.5669992  67.5439978   0.2960014  46.3906412  68.3949046   0.2547822
  52.1499992  68.4009978  -2.2329986  52.8949992  68.9899978  -2.3519986
  51.3929992  68.9829978  -2.1689986  52.1495470  68.5602128  -2.2406201
  40.5929992  65.7159978   0.3710014  41.0009992  64.8589978   0.2500014
  40.3319992  65.7299978   1.2920014  40.6136016  65.6005119   0.4789192
  45.2509992  66.8319978 -14.6099986  44.7909992  66.3479978 -13.9249986
  45.5059992  66.1629978 -15.2459986  45.2224856  66.6753669 -14.6021603
  44.5399992  64.7249978  -2.2539986  43.9209992  65.3989978  -1.9739986
  44.8839992  65.0459978  -3.0879986  44.5017123  64.8606887  -2.3283612
  46.3219992  65.0749978 -16.3479986  46.1409992  64.9199978 -17.2749986
  47.2719992  65.1829978 -16.3029986  46.4256566  65.0683669 -16.4689071
  49.5589992  67.1959978   1.0230014  50.5129992  67.2799978   0.9960014
  49.3989992  66.4839978   1.6430014  49.6677182  67.1112842   1.1030733
  55.7119992  67.4289978 -16.9019986  55.4379992  67.0049978 -17.7149986
  55.7509992  68.3609978 -17.1189986  55.6797716  67.4968827 -17.0425714
  44.8789992  62.0799978  -1.1719986  45.0289992  61.3509978  -1.7739986
  44.8809992  62.8569978  -1.7309986  44.8997967  62.0852708  -1.3299459
  45.2919992  60.4489978  -3.6789986  45.8269992  60.9009978  -4.3309986
  44.4389992  60.3409978  -4.1019986  45.2500374  60.4962665  -3.8253290
  46.8729992  65.8889978  -3.4399986  47.6239992  65.7329978  -4.0129986
  46.5339992  66.7409978  -3.7149986  46.9299587  65.9828138  -3.5555922
  51.2889992  63.7039978   1.5890014  51.4809992  62.7729978   1.4770014
  52.1469992  64.1289978   1.5780014  51.4312182  63.6340070   1.5721862
  52.6059992  66.4929978  -0.3339986  52.3239992  67.2019978  -0.9119986
  53.5479992  66.4199978  -0.4849986  52.6947921  66.5802193  -0.4335775
  43.3579992  63.2779978   0.7390014  42.5899992  62.7449978   0.5290014
  44.0359992  62.9679978   0.1400014  43.3447235  63.1631754   0.6292413
  46.0969992  57.9059978  -3.2479986  45.9989992  58.8519978  -3.3529986
  45.3549992  57.5329978  -3.7239986  45.9832534  57.9851773  -3.3267400
  47.3609992  62.2269978   0.3160014  47.1259992  62.0079978   1.2170014
  46.5779992  62.0199978  -0.1939986  47.2229095  62.1689892   0.3705353
  50.0769992  61.3549978  -0.6089986  49.1289992  61.3869978  -0.4769986
  50.3889992  60.7289978   0.0450014  49.9895293  61.2747923  -0.5025852
  51.7109992  59.9889978   1.3960014  51.6139992  59.0369978   1.3910014
  51.3889992  60.2569978   2.2570014  51.6542468  59.8950884   1.5116210
  41.5379992  61.1979978   0.4440014  41.7499992  60.4919978  -0.1659986
  41.4269992  60.7609978   1.2880014  41.5520269  61.0421921   0.4745873
  46.3189992  57.1999978  -0.5769986  47.0309992  56.5599978  -0.5909986
  46.2179992  57.4659978  -1.4899986  46.4027387  57.1484330  -0.7024437
  46.6729992  58.8819978   1.4770014  46.5409992  58.4069978   0.6570014
  46.0729992  59.6269978   1.4220014  46.5739070  58.9175789   1.3573251
  46.2189992  75.7649978 -15.3469986  47.1519992  75.9229978 -15.2029986
  45.9549992  76.4409978 -15.9719986  46.3109911  75.8779373 -15.4117278
  39.7869992  70.4019978 -15.8639986  40.7009992  70.4809978 -15.5909986
  39.7949992  69.7149978 -16.5299986  39.9130655  70.3199205 -15.9167083
  38.4359992  75.7949978 -10.7869986  37.7889992  75.3329978 -11.3189986
  38.7909992  75.1229978 -10.2039986  38.3953741  75.6409774 -10.7810825
  39.3059992  73.8749978  -8.9819986  38.9719992  72.9949978  -8.8099986
  39.5289992  74.2209978  -8.1169986  39.2903721  73.8011938  -8.8415832
  56.8549992  74.6849978  -6.0009986  56.8329992  74.8699978  -5.0619986
  57.5449992  75.2529978  -6.3419986  56.9453439  74.7871887  -5.9185209
  56.4179992  74.2519978  -3.0799986  55.9309992  73.5169978  -3.4509986
  56.9669992  73.8579978  -2.4019986  56.4255247  74.0981057  -3.0391539
  54.8689992  70.0419978   1.5590014  54.0029992  69.9369978   1.9530014
  55.2449992  70.7999978   2.0050014  54.8013401  70.1301708   1.6732620
  56.1699992  68.2979978 -12.9269986  57.0199992  68.7189978 -12.7999986
  56.1749992  67.5579978 -12.3199986  56.2871143  68.2556094 -12.8275250
  56.5639992  66.3519978 -11.1039986  55.8379992  65.8719978 -10.7059986
  57.1459992  66.5569978 -10.3709986  56.5432730  66.3140184 -10.9505851
  56.3229992  69.1369978  -6.1559986  57.1569992  68.7589978  -6.4369986
  56.4349992  70.0799978  -6.2749986  56.4521917  69.2127943  -6.2105139
  54.8099992  72.0149978  -3.8489986  54.1619992  72.3399978  -3.2239986
  54.2919992  71.5739978  -4.5229986  54.6514196  71.9998651  -3.8545848
  56.8329992  66.2529978 -14.7129986  56.3109992  66.6089978 -15.4309986
  56.7999992  66.9279978 -14.0339986  56.7570129  66.3929598 -14.7196645
  55.1819992  63.4919978 -16.1619986  55.2779992  64.1589978 -16.8419986
  55.0419992  62.6769978 -16.6429986  55.1762040  63.4730671 -16.3201622
  54.3509992  64.8729978 -10.5409986  54.2009992  63.9279978 -10.5609986
  53.9969992  65.1539978  -9.6969986  54.2826351  64.7816644 -10.4296780
  39.3859992  66.9509978  -6.5299986  39.5709992  66.8689978  -7.4659986
  40.2359992  66.8269978  -6.1069986  39.5260928  66.9230463  -6.6007107
  55.2069992  66.8429978  -0.9019986  55.7899992  66.1079978  -0.7099986
  55.7709992  67.6149978  -0.8549986  55.3629781  66.8468145  -0.8693836
  56.7039992  64.7459978  -0.2169986  55.8409992  64.3669978  -0.3829986
  57.3079992  64.0069978  -0.2919986  56.6676085  64.5943223  -0.2498305
  54.4289992  60.8999978 -17.0439986  55.0399992  60.5289978 -16.4069986
  53.5919992  60.4789978 -16.8479986  54.3994947  60.7922756 -16.9302748
  54.0619992  62.4549978 -12.0779986  54.3409992  61.5479978 -11.9539986
  54.8209992  62.8889978 -12.4669986  54.2028619  62.3894502 -12.1136205
  54.6729992  63.0369978  -6.6419986  55.6059992  63.2489978  -6.6769986
  54.4379992  63.1379978  -5.7199986  54.7689517  63.0796833  -6.5220870
  54.7029992  63.7739978  -3.8659986  53.8599992  64.0419978  -3.4999986
  55.1449992  64.5959978  -4.0769986  54.6474138  63.9218273  -3.8444482
  38.9839992  62.2209978  -0.3899986  39.9029992  62.0989978  -0.1529986
  38.5339992  61.4709978   0.0000014  39.0490087  62.1029608  -0.3048590
  56.9859992  57.7539978   1.4870014  57.3349992  57.0999978   0.8820014
  57.1329992  58.5909978   1.0470014  57.0536824  57.7776024   1.3446304
  54.6749992  59.7179978 -12.0299986  54.8569992  59.2689978 -11.2049986
  54.0749992  59.1339978 -12.4939986  54.6188187  59.5775552 -11.9797261
  40.2049992  60.5339978  -7.4979986  40.6499992  59.7419978  -7.1959986
  40.6709992  61.2499978  -7.0679986  40.3289718  60.5224534  -7.3984735
  38.5089992  63.5329978  -6.4289986  39.0009992  63.3119978  -7.2199986
  38.8709992  64.3729978  -6.1479986  38.6252923  63.6163468  -6.4992593
  56.5049992  59.8629978  -0.1639986  55.5879992  60.1339978  -0.1989986
  56.6279992  59.3279978  -0.9479986  56.3959672  59.8277885  -0.2748138
  56.5419992  59.7859978 -15.5019986  56.9539992  59.0649978 -15.9769986
  57.2229992  60.4549978 -15.4439986  56.6905536  59.7777766 -15.5591976
  38.8229992  59.7909978 -12.3749986  37.8979992  59.9989978 -12.5039986
  39.2769992  60.2749978 -13.0649986  38.7576298  59.8849299 -12.4859549
  53.5929992  74.7749978 -10.4289986  54.2459992  74.4269978 -11.0369986
  54.1039992  75.2629978  -9.7829986  53.7512777  74.7933815 -10.4247953
  38.7859992  58.5289978  -4.0309986  38.1209992  58.2829978  -3.3879986
  38.3429992  59.1509978  -4.6079986  38.6351168  58.5794214  -4.0210152
  40.9779992  71.7039978   0.1140014  40.1569992  71.8789978  -0.3469986
  40.7259992  71.6309978   1.0340014  40.8315594  71.7180717   0.1753611
  43.9319992  72.6779978  -3.6279986  43.5079992  73.4879978  -3.9099986
  44.8369992  72.7639978  -3.9299986  43.9962138  72.8004160  -3.7073585
  48.2439992  74.0769978  -0.6679986  48.4279992  73.7439978   0.2100014
  49.0899992  74.3869978  -0.9899986  48.3836484  74.0732979  -0.5912383
  50.5889992  75.3629978  -1.4239986  51.2659992  74.7299978  -1.6639986
  50.9099992  75.7639978  -0.6169986  50.7251323  75.3305691  -1.3476842
  55.5059992  57.9529978  -2.3449986  54.6929992  58.2779978  -2.7319986
  55.7389992  57.1919978  -2.8779986  55.4261347  57.8946880  -2.4700159
  41.3339992  75.9349978  -3.5799986  40.6139992  76.3749978  -4.0309986
  40.9689992  75.6839978  -2.7319986  41.1859643  75.9613369  -3.5270871
  43.8009992  75.5349978  -4.5499986  42.9369992  75.6069978  -4.1459986
  43.7459992  76.0819978  -5.3339986  43.6751942  75.6187849  -4.6006000
  48.5119992  75.4229978  -5.3749986  48.0549992  75.9519978  -6.0289986
  48.6749992  76.0259978  -4.6499986  48.4714960  75.5769280  -5.3664726
  50.8399992  74.3009978  -4.4299986  49.9349992  74.4659978  -4.6959986
  51.2679992  75.1539978  -4.4959986  50.7741537  74.4389134  -4.4752905
  53.4439992  75.8709978  -4.1349986  53.2619992  76.7869978  -4.3459986
  53.6209992  75.4599978  -4.9819986  53.4430030  75.9408273  -4.2782834
  40.7489992  74.5579978  -6.6699986  40.7309992  74.1319978  -5.8129986
  41.5539992  74.2389978  -7.0789986  40.8552875  74.4566435  -6.6080485
  42.8899992  73.2679978  -8.0149986  42.6709992  72.3509978  -7.8449986
  43.7139992  73.4079978  -7.5489986  42.9714702  73.1615511  -7.9287473
  45.4269992  73.7379978  -7.1659986  45.6399992  72.8499978  -7.4529986
  45.4919992  73.7029978  -6.2119986  45.4649149  73.6118326  -7.0762631
  48.9359992  59.4019978  -8.0219986  48.2619992  58.7719978  -7.7659986
  49.4999992  58.9179978  -8.6249986  48.9200384  59.2503708  -8.0684980
  54.0789992  57.5089978  -7.9089986  54.6819992  58.0569978  -8.4109986
  53.2089992  57.8279978  -8.1499986  54.0439157  57.6270373  -8.0102090
  55.8059992  58.6479978  -9.5759986  56.4169992  58.1339978 -10.1029986
  56.1879992  59.5249978  -9.5529986  55.9413305  58.6962050  -9.6450582
  41.2629992  58.0359978 -10.1999986  40.4859992  57.8009978 -10.7069986
  41.7929992  57.2389978 -10.1909986  41.2283451  57.8961268 -10.2681373
  40.0989992  57.8339978 -14.3959986  40.5379992  58.4449978 -14.9879986
  39.4649992  58.3719978 -13.9219986  40.0733859  57.9904064 -14.4129695
  45.8419992  57.9619978 -10.3869986  46.7159992  58.3509978 -10.4159986
  45.7059992  57.7469978  -9.4639986  45.9431953  57.9861643 -10.2662383
  51.3989992  57.9919978  -8.7369986  51.4749992  58.0879978  -9.6869986
  51.1239992  57.0849978  -8.6089986  51.3721871  57.8824146  -8.8496056
  52.7519992  58.0179978 -13.0449986  52.0489992  58.6329978 -13.2549986
  52.3069992  57.1809978 -12.9139986  52.5956550  57.9889668 -13.0560163
  39.9999992  73.7819978 -13.4989986  39.3149992  73.7439978 -14.1659986
  40.0039992  74.6949978 -13.2109986  39.9067621  73.9001924 -13.5513874
  41.9599992  59.7499978 -15.9539986  42.4509992  59.1199978 -16.4809986
  42.5829992  60.0459978 -15.2909986  42.1115304  59.7037376 -15.9365060
  46.9859992  60.0429978 -13.4969986  47.1639992  59.3959978 -12.8139986
  46.9319992  60.8769978 -13.0299986  47.0030678  60.0671604 -13.3403699
  48.8639992  74.9909978 -15.1009986  49.7299992  75.3579978 -15.2789986
  48.6179992  74.5519978 -15.9149986  48.9492097  74.9818525 -15.2353981
  55.5729992  74.5539978 -12.4219986  55.3789992  73.8059978 -12.9869986
  55.5339992  75.3119978 -13.0049986  55.5411645  74.5540786 -12.5781852
  41.2199992  58.5499978  -0.6819986  40.8539992  57.7839978  -0.2399986
  42.1329992  58.5789978  -0.3959986  41.2933172  58.4490324  -0.5828110
  43.1929992  57.8999978   0.8530014  44.0919992  57.6259978   0.6690014
  42.8069992  57.1579978   1.3180014  43.2637307  57.7622196   0.8907098
  41.8179992  74.7019978 -16.4739986  41.5499992  74.9879978 -15.5999986
  42.5889992  74.1559978 -16.3209986  41.8855926  74.6672779 -16.3338795
  51.6149992  57.2329978   1.0360014  51.6909992  56.8069978   1.8890014
  52.5079992  57.2459978   0.6930014  51.7462303  57.1763493   1.1065497
  54.7909992  73.3059978  -0.2719986  54.0089992  73.1189978  -0.7919986
  54.7189992  74.2349978  -0.0549986  54.6741924  73.4060637  -0.3138398
  69.1969992  67.1919978 -10.2409986  69.2859992  68.1359978 -10.3729986
  68.5589992  66.9169978 -10.8989986  69.1229062  67.2839812 -10.3480359
  68.1299992  66.4469978  -6.8219986  68.0919992  65.8009978  -6.1169986
  67.8079992  65.9799978  -7.5929986  68.0812679  66.2954276  -6.8297079
  60.4979992  66.0609978  -5.2289986  60.5399992  65.4359978  -4.5059986
  61.2009992  66.6849978  -5.0469986  60.5987345  66.0597873  -5.1054726
  71.8359992  69.3859978  -8.5209986  71.3949992  68.6659978  -8.0699986
  71.8229992  70.1069978  -7.8909986  71.7739215  69.3849291  -8.3741895
  61.4219992  70.5109978  -6.6939986  61.0519992  69.7089978  -7.0639986
  62.3629992  70.3429978  -6.6479986  61.4985984  70.3784638  -6.7384397
  58.0319992  64.1709978 -11.3019986  57.5839992  65.0169978 -11.3199986
  57.4709992  63.5919978 -11.8169986  57.8948546  64.2083993 -11.3741109
  58.7419992  66.3329978  -9.1759986  58.9559992  65.5629978  -8.6479986
  59.4799992  66.4229978  -9.7789986  58.8710200  66.2398586  -9.1852965
  68.9479992  74.4899978  -8.3089986  69.5669992  73.8139978  -8.5819986
  68.7389992  74.2719978  -7.3999986  69.0046056  74.3678869  -8.2236033
  66.5189992  68.8789978  -6.4159986  66.8229992  68.1929978  -7.0109986
  67.2409992  68.9979978  -5.7979986  66.6581240  68.8012314  -6.4139041
  75.1819992  60.4809978  -5.5559986  75.2319992  61.0909978  -4.8199986
  75.6079992  60.9419978  -6.2789986  75.2464108  60.6267709  -5.5529888
  69.6599992  63.2729978  -6.0889986  69.8029992  62.3269978  -6.0689986
  69.5539992  63.4799978  -7.0169986  69.6652403  63.1714797  -6.2117761
  62.8149992  61.3749978  -8.8159986  62.8579992  62.2349978  -9.2349986
  62.3569992  60.8229978  -9.4499986  62.7589871  61.4179245  -8.9589239
  70.5369992  61.5059978 -10.4149986  71.1839992  61.1769978  -9.7909986
  71.0469992  62.0229978 -11.0379986  70.6944351  61.5309067 -10.4138963
  59.4349992  63.7719978  -8.0539986  60.0889992  63.2219978  -7.6219986
  59.4589992  63.4979978  -8.9709986  59.5277199  63.6597167  -8.1188332
  64.5919992  65.3219978  -8.8389986  65.2079992  64.7949978  -8.3299986
  64.0049992  64.6819978  -9.2429986  64.5970154  65.1633954  -8.8239055
  75.5739992  61.9589978  -3.3199986  74.8849992  62.6169978  -3.4149986
  75.5889992  61.7609978  -2.3829986  75.4817756  62.0222603  -3.2064188
  61.6249992  60.2929978  -4.7419986  61.4059992  60.8229978  -5.5089986
  60.9569992  60.5189978  -4.0949986  61.5046975  60.3960967  -4.7594860
  68.9939992  69.7929978 -11.1979986  68.6989992  69.4699978 -12.0499986
  68.6699992  70.6929978 -11.1569986  68.9098460  69.8704464 -11.3090286
  64.1939992  67.9679978  -4.4549986  63.4539992  68.5669978  -4.3509986
  64.9079992  68.5219978  -4.7699986  64.1893500  68.1247829  -4.4833629
  72.3009992  60.7969978  -8.4349986  72.0859992  60.0309978  -7.9019986
  72.9569992  61.2689978  -7.9219986  72.3602673  60.7560728  -8.2928010
  61.2189992  62.1849978  -6.7899986  61.8329992  62.8179978  -6.4169986
  61.7309992  61.7129978  -7.4459986  61.3721962  62.2077249  -6.8277065
  62.6019992  69.9329978  -3.6679986  62.5959992  70.8119978  -4.0459986
  61.7479992  69.8489978  -3.2429986  62.4857925  70.0419535  -3.6623113
  58.7229992  69.6039978 -12.8859986  58.4509992  69.8329978 -13.7739986
  58.7679992  70.4409978 -12.4249986  58.6918097  69.7486163 -12.9453317
  72.3479992  71.2249978  -6.1729986  71.4059992  71.2839978  -6.0109986
  72.6239992  72.1309978  -6.3099986  72.2565865  71.3555288  -6.1693808
  72.6479992  59.5119978  -4.7559986  71.9119992  60.1219978  -4.7929986
  73.3319992  59.9269978  -5.2819986  72.6395367  59.6517551  -4.8321826
  65.6519992  57.5979978  -7.2899986  65.5339992  56.6499978  -7.3439986
  64.7969992  57.9309978  -7.0169986  65.5202805  57.5132202  -7.2604921
  70.5999992  73.0059978  -9.5479986  71.0249992  72.2989978 -10.0329986
  70.9169992  73.8079978  -9.9649986  70.7010266  73.0175190  -9.6707521
  71.7599992  70.9069978 -11.0389986  71.5019992  70.2169978 -11.6509986
  71.8309992  70.4639978 -10.1939986  71.7343050  70.7526814 -11.0084379
  73.4459992  69.4739978  -2.5619986  73.5849992  68.8819978  -3.3009986
  73.6129992  70.3469978  -2.9179986  73.4876193  69.5108896  -2.7113789
  67.9179992  66.4359978 -12.7889986  67.2069992  66.9709978 -13.1409986
  68.6089992  66.4909978 -13.4489986  67.9140751  66.5166777 -12.9264142
  67.9719992  64.8929978 -15.7509986  68.6729992  64.9159978 -15.0989986
  68.2739992  64.2649978 -16.4069986  68.1088202  64.8112212 -15.7504391
  75.2869992  65.8139978  -4.4959986  74.6349992  66.5079978  -4.4069986
  75.7529992  66.0239978  -5.3059986  75.2605937  65.9375019  -4.5932467
  71.3239992  66.6449978 -11.8379986  70.5919992  66.8739978 -11.2639986
  71.7709992  65.9319978 -11.3829986  71.2843963  66.5798729 -11.6980055
  71.2209992  64.8199978  -2.7699986  71.3009992  65.5829978  -2.1979986
  70.6199992  65.0989978  -3.4599986  71.1506547  64.9622457  -2.7849953
  62.9689992  67.2759978  -9.9549986  62.6389992  66.9049978 -10.7729986
  63.5579992  66.6049978  -9.6079986  63.0033970  67.1346063 -10.0200596
  64.3359992  70.7039978  -7.2739986  64.2409992  70.1249978  -8.0299986
  65.0649992  70.3329978  -6.7779986  64.4216011  70.5745561  -7.3103972
  63.3359992  66.0439978  -6.3219986  63.9009992  66.1659978  -7.0839986
  63.6549992  66.6819978  -5.6829986  63.4564166  66.1468791  -6.3399652
  69.6449992  71.5479978  -5.5879986  69.4049992  72.2099978  -4.9399986
  69.4469992  70.7129978  -5.1629986  69.5853826  71.5258115  -5.4418434
  64.2159992  70.4439978  -1.6039986  63.9049992  71.2259978  -1.1489986
  63.5659992  70.2909978  -2.2899986  64.0855538  70.5304087  -1.6344102
  70.1949992  65.8079978 -14.1519986  70.7739992  65.9579978 -13.4059986
  70.6089992  66.2779978 -14.8759986  70.3303358  65.8920954 -14.1476047
  61.1359992  66.6419978  -2.3759986  61.2059992  67.2929978  -1.6769986
  60.2449992  66.7449978  -2.7109986  61.0251690  66.7449249  -2.3256957
  67.9209992  72.5439978 -10.7169986  68.3949992  72.8399978  -9.9399986
  67.3579992  73.2829978 -10.9499986  67.9097890  72.6843036 -10.6421899
  62.4549992  72.5149978  -0.8409986  62.4629992  72.3789978  -1.7879986
  61.5389992  72.3979978  -0.5889986  62.3322528  72.4805463  -0.9366757
  73.8939992  57.5579978 -14.3389986  72.9939992  57.6969978 -14.0439986
  74.1459992  58.3889978 -14.7409986  73.8048683  57.6894055 -14.3529768
  61.9599992  66.3449978 -12.3659986  61.6679992  67.1129978 -12.8569986
  61.2849992  65.6859978 -12.5289986  61.8288497  66.3609745 -12.4551740
  75.0829992  71.9239978 -15.9629986  75.1559992  72.8629978 -15.7929986
  75.9879992  71.6189978 -16.0189986  75.2154170  72.0113282 -15.9472937
  58.0529992  68.7079978  -3.5509986  57.5509992  68.6799978  -4.3659986
  58.0579992  67.8029978  -3.2409986  57.9849832  68.5817486  -3.6205879
  57.8029992  71.4889978  -6.6669986  58.7489992  71.3439978  -6.6859986
  57.6899992  72.2729978  -6.1299986  57.9173578  71.5751697  -6.5969683
  76.0009992  72.1549978  -0.9839986  75.9509992  71.1989978  -1.0219986
  75.1739992  72.4219978  -0.5829986  75.8823831  72.0604680  -0.9349879
  66.9789992  71.7289978  -2.1079986  67.0669992  72.5549978  -1.6329986
  66.1159992  71.3989978  -1.8589986  66.8743357  71.7975468  -2.0092347
  67.3939992  75.5009978 -12.3019986  67.3179992  75.3799978 -13.2489986
  67.4259992  76.4499978 -12.1839986  67.3879380  75.6127677 -12.4154819
  61.0469992  74.2899978 -10.5209986  61.1989992  73.9419978  -9.6429986
  60.1959992  73.9329978 -10.7769986  60.9528344  74.1940879 -10.4353132
  70.4949992  74.6549978 -15.2999986  70.8699992  73.9109978 -15.7709986
  70.4999992  74.3849978 -14.3819986  70.5470098  74.5166392 -15.2403371
  70.1639992  74.5809978 -12.5509986  69.2289992  74.6809978 -12.3719986
  70.4439992  73.8709978 -11.9719986  70.0739471  74.4987933 -12.4483305
  73.1529992  63.6479978  -0.5039986  72.7449992  64.1279978  -1.2249986
  73.1929992  62.7419978  -0.8119986  73.1026221  63.5912449  -0.6441733
  60.3019992  70.0319978  -2.5079986  60.5179992  69.6699978  -1.6479986
  59.4459992  69.6569978  -2.7169986  60.2158810  69.9318837  -2.4187320
  62.9199992  58.5019978  -6.5119986  62.0589992  58.4149978  -6.9199986
  62.8979992  59.3579978  -6.0839986  62.7990491  58.6058003  -6.5100418
  67.5829992  58.2239978  -3.1369986  68.0029992  57.8089978  -2.3839986
  66.6499992  58.0449978  -3.0199986  67.5143736  58.1429910  -3.0181032
  70.9099992  61.9789978  -2.2839986  70.3959992  61.8539978  -1.4859986
  70.7539992  62.8919978  -2.5279986  70.8186967  62.0852123  -2.2079063
  71.6719992  66.8399978 -16.5229986  71.7139992  66.6179978 -17.4529986
  72.5209992  67.2389978 -16.3329986  71.7925253  66.8635498 -16.6246178
  67.2449992  60.7159978 -15.8519986  66.9909992  60.7349978 -14.9299986
  66.9879992  59.8449978 -16.1539986  67.1754508  60.6008280 -15.7665197
  63.0109992  63.4669978  -5.4169986  62.3699992  63.4269978  -4.7079986
  63.0489992  64.3939978  -5.6549986  62.9283010  63.5867668  -5.3520054
  63.0079992  63.6879978 -10.5049986  62.1159992  63.3479978 -10.5639986
  63.4589992  63.3109978 -11.2609986  62.9467642  63.5904910 -10.6152274
  68.5439992  64.1039978 -11.6879986  68.1349992  64.9189978 -11.9799986
  69.2639992  63.9639978 -12.3019986  68.5854439  64.1965372 -11.8109885
  67.6459992  64.2799978  -0.1999986  67.0829992  63.5749978   0.1210014
  68.4719992  64.1589978   0.2680014  67.6806674  64.1672165  -0.0928249
  69.5489992  63.5499978  -8.8739986  69.3529992  64.1559978  -9.5889986
  69.7299992  62.7169978  -9.3079986  69.5466584  63.5202513  -9.0305788
  60.7609992  63.7879978  -3.5499986  60.7229992  64.1879978  -2.6809986
  60.2709992  62.9709978  -3.4599986  60.6895330  63.7322674  -3.4188711
  64.1269992  61.1619978 -16.7509986  63.6959992  60.7169978 -16.0219986
  63.4089992  61.5329978 -17.2639986  63.9709176  61.1512051 -16.7205070
  57.3699992  60.9039978  -9.6989986  57.9999992  60.8749978  -8.9799986
  57.8189992  60.4789978 -10.4299986  57.5170835  60.8425660  -9.6992341
  58.6439992  61.6499978 -14.2749986  59.1179992  62.2409978 -14.8599986
  57.9259992  62.1799978 -13.9279986  58.6118640  61.8025511 -14.3082031
  68.8129992  65.1879978  -4.2029986  69.1359992  64.5569978  -4.8459986
  68.3719992  64.6539978  -3.5419986  68.7976379  65.0293468  -4.2017418
  65.5899992  61.1159978  -9.4189986  64.6789992  61.1729978  -9.1299986
  66.0949992  61.0559978  -8.6079986  65.5336873  61.1156826  -9.2698793
  60.4179992  62.7449978 -10.5919986  59.5289992  62.8439978 -10.9319986
  60.7149992  61.9029978 -10.9379986  60.3364177  62.6447687 -10.6853060
  64.0709992  62.7449978 -12.9349986  65.0029992  62.8739978 -12.7569986
  63.8559992  63.4139978 -13.5849986  64.1694472  62.8530806 -12.9985109
  69.9949992  60.3509978  -6.1539986  69.3179992  60.4819978  -5.4909986
  69.5099992  60.1959978  -6.9649986  69.8367405  60.3479947  -6.1727830
  62.7449992  63.9389978 -15.3689986  62.2029992  63.5599978 -16.0599986
  63.5789992  64.1339978 -15.7969986  62.7834390  63.9134079 -15.5215608
  73.2829992  76.0219978   0.1220014  73.4819992  76.4459978  -0.7119986
  73.9379992  76.3659978   0.7290014  73.3988522  76.1266301   0.0897852
  60.8809992  68.4959978  -0.2699986  61.6129992  68.7509978   0.2920014
  60.0999992  68.7009978   0.2460014  60.8756526  68.5585450  -0.1234824
  66.9099992  63.9029978  -7.5319986  67.4739992  63.3569978  -8.0789986
  66.7619992  63.3819978  -6.7429986  66.9673037  63.7576787  -7.5002771
  61.9119992  60.0399978 -11.1129986  61.5949992  59.1369978 -11.1489986
  62.6929992  60.0419978 -11.6659986  61.9742431  59.9167797 -11.1926898
  65.5359992  62.2919978  -5.1179986  64.7009992  62.7459978  -5.0069986
  66.0599992  62.5679978  -4.3659986  65.4926072  62.3913948  -5.0011864
  66.0809992  68.5049978 -13.4329986  65.3359992  67.9969978 -13.7549986
  65.9459992  68.5539978 -12.4869986  65.9608963  68.4421731 -13.3491174
  73.2309992  67.6379978  -4.6459986  73.8719992  68.0939978  -5.1899986
  72.3999992  67.7509978  -5.1089986  73.2065287  67.7156921  -4.7830113
  69.9779992  61.3189978 -15.2339986  69.0399992  61.4299978 -15.3849986
  70.2759992  62.1749978 -14.9269986  69.8896318  61.4500158 -15.2131855
  67.5999992  68.6889978  -2.1959986  67.2539992  68.3069978  -1.3889986
  67.3999992  69.6219978  -2.1249986  67.5255987  68.7629002  -2.0759539
  70.6969992  63.1859978 -13.5729986  71.5889992  63.0479978 -13.2539986
  70.7529992  63.9769978 -14.1099986  70.8267325  63.2739918 -13.6018783
  61.2049992  67.7999978  -7.6629986  61.9499992  67.7969978  -8.2649986
  61.2829992  66.9759978  -7.1819986  61.3173365  67.6882384  -7.6802570
  68.2059992  69.9629978 -14.4079986  67.9109992  70.7899978 -14.0259986
  67.5029992  69.3439978 -14.2109986  68.0706379  69.9924171 -14.3291346
  58.2129992  66.2599978  -2.3479986  58.4359992  65.8419978  -1.5169986
  57.6109992  65.6479978  -2.7709986  58.1621513  66.1199606  -2.2913260
  65.2299992  65.7769978  -0.1349986  64.9339992  65.6119978  -1.0309986
  66.1609992  65.5569978  -0.1459986  65.3154401  65.7246879  -0.2589794
  69.8499992  71.1509978  -2.2459986  68.9499992  71.3339978  -2.5129986
  69.8839992  71.4099978  -1.3249986  69.7313748  71.2110554  -2.1580836
  75.5819992  63.3949978 -13.8779986  75.0269992  62.9989978 -14.5509986
  75.6819992  64.3059978 -14.1559986  75.5196816  63.4639505 -14.0074967
  75.5449992  69.1959978  -1.0409986  74.6939992  69.4339978  -1.4089986
  76.1349992  69.1789978  -1.7939986  75.5083812  69.2262524  -1.1931547
  73.8769992  72.1809978 -13.4129986  73.5039992  71.3559978 -13.1039986
  74.1539992  71.9979978 -14.3109986  73.8633463  72.0432569 -13.4920475
  71.0369992  66.9889978  -6.3919986  70.1089992  66.7579978  -6.4189986
  71.4879992  66.2119978  -6.7219986  70.9708165  66.8522774  -6.4403210
  63.5799992  71.3179978 -10.2589986  64.1079992  72.0909978 -10.4589986
  62.6999992  71.5419978 -10.5609986  63.5333435  71.4542700 -10.3272690
  59.3349992  66.1799978 -15.6719986  59.9509992  66.8069978 -15.2919986
  58.4729992  66.4959978 -15.3999986  59.3027678  66.3084412 -15.5832791
  65.0079992  68.9809978 -10.6829986  64.7669992  69.9059978 -10.6409986
  64.2669992  68.5219978 -10.2859986  64.8749206  69.0455915 -10.6236231
  65.5219992  73.1299978  -4.3679986  65.8849992  73.9839978  -4.6009986
  66.0539992  72.8379978  -3.6269986  65.6435141  73.2073895  -4.2997903
  63.6909992  74.0019978 -11.1369986  62.7409992  74.1079978 -11.0859986
  64.0429992  74.8229978 -10.7929986  63.6085472  74.1274923 -11.0835148
  69.0659992  69.2289978  -4.6669986  68.6409992  69.0009978  -3.8409986
  69.6469992  68.4899978  -4.8489986  69.0863395  69.0979545  -4.5785586
  71.2689992  70.1579978 -15.5929986  71.6229992  69.7779978 -14.7889986
  70.3209992  70.0639978 -15.5059986  71.1892298  70.0932452 -15.4711313
  71.7249992  73.7809978  -2.1979986  71.1229992  73.2249978  -2.6929986
  72.0059992  74.4479978  -2.8239986  71.6805757  73.7950744  -2.3504325
  75.7729992  74.6369978 -15.3919986  76.5169992  75.2229978 -15.5319986
  75.0789992  75.2059978 -15.0589986  75.7809809  74.7940818 -15.3661410
  59.8469992  61.0139978  -2.7899986  58.9549992  61.3519978  -2.8579986
  59.7489992  60.1579978  -2.3719986  59.7114475  60.9446543  -2.7428296
  72.1349992  68.8299978 -13.3659986  71.8579992  68.1019978 -12.8099986
  73.0629992  68.9489978 -13.1609986  72.2224499  68.7464213 -13.2621956
  59.4989992  72.8179978  -4.3549986  59.7159992  71.8859978  -4.3859986
  59.7449992  73.0929978  -3.4719986  59.5619809  72.7275686  -4.2398309
  64.2969992  70.8399978 -14.6899986  64.4439992  70.3199978 -13.8999986
  64.2939992  71.7469978 -14.3829986  64.3167102  70.8913953 -14.5404075
  60.7499992  68.0919978 -14.1789986  60.0639992  68.4449978 -13.6119986
  61.2729992  68.8549978 -14.4259986  60.7268402  68.2433901 -14.1348199
  68.5819992  60.7549978  -3.8999986  69.2809992  60.8289978  -3.2499986
  68.2009992  59.8899978  -3.7459986  68.6262097  60.6482389  -3.7902003
  69.3659992  60.4069978 -12.8029986  69.5859992  60.8779978 -13.6069986
  69.9249992  60.8009978 -12.1329986  69.4716731  60.5247287 -12.8224967
  67.0349992  72.5369978 -13.9399986  66.2179992  73.0339978 -13.8879986
  67.5639992  73.0129978 -14.5809986  66.9948125  72.6691989 -14.0194694
  66.5659992  62.1349978 -11.9679986  67.3779992  62.6389978 -11.9219986
  66.3219992  61.9899978 -11.0539986  66.6441467  62.1843749 -11.8381425
  67.1019992  63.1209978  -2.7839986  67.2209992  63.6949978  -2.0269986
  67.7569992  62.4329978  -2.6689986  67.2068684  63.1065194  -2.6648326
  67.4499992  59.2159978 -11.0299986  67.1029992  59.8329978 -10.3859986
  68.1089992  59.7169978 -11.5119986  67.4915090  59.3681575 -11.0069319
  64.3729992  73.5809978 -13.9589986  64.5339992  74.3809978 -14.4589986
  64.1759992  73.8879978 -13.0739986  64.3683906  73.7318678 -13.9077667
  63.1079992  60.2789978 -14.3429986  63.0239992  61.1669978 -13.9959986
  63.9979992  60.0139978 -14.1109986  63.2168163  60.3647179 -14.2641404
  73.3059992  61.0279978  -1.9489986  72.3899992  61.2899978  -2.0359986
  73.6419992  61.0249978  -2.8449986  73.2258499  61.0635163  -2.0821234
  71.9089992  64.7779978  -7.8529986  71.1109992  64.3629978  -8.1809986
  72.3539992  64.0879978  -7.3619986  71.8599684  64.6278628  -7.8314773
  61.3659992  70.7059978 -15.2829986  61.9579992  71.4059978 -15.0059986
  61.8249992  70.2729978 -16.0019986  61.5091652  70.7432675 -15.3423467
  59.6819992  63.3709978 -16.1669986  59.6369992  64.3099978 -15.9879986
  58.7939992  63.1349978 -16.4359986  59.5558166  63.4676687 -16.1788476
  72.9949992  74.0339978  -6.2309986  72.8389992  74.7129978  -6.8879986
  73.9279992  74.1059978  -6.0279986  73.0997387  74.1366390  -6.2934658
  60.4899992  58.1519978  -7.4929986  60.2609992  58.2109978  -8.4209986
  60.0479992  57.3609978  -7.1869986  60.3988801  58.0530540  -7.5785271
  59.4209992  72.0929978 -11.3329986  58.5879992  72.5649978 -11.3059986
  59.9659992  72.6029978 -11.9319986  59.3807857  72.2264791 -11.4102858
  58.7089992  74.7049978  -0.0029986  59.2489992  74.4889978   0.7570014
  58.2279992  73.8999978  -0.1929986  58.7179219  74.5665156   0.0754282
  63.3059992  73.6249978   1.6170014  64.0739992  73.1659978   1.9580014
  63.2849992  73.3989978   0.6870014  63.4082135  73.5316668   1.5379491
  67.3979992  73.1329978 -17.0069986  66.7539992  72.5019978 -16.6859986
  68.1599992  72.6019978 -17.2389986  67.4128058  72.9747902 -16.9943962
  69.8829992  72.0049978   0.3460014  69.5319992  71.1479978   0.5900014
  70.6089992  72.1469978   0.9530014  69.9331895  71.9071351   0.4613770
  72.0029992  72.9499978 -16.7739986  72.2859992  72.1549978 -16.3209986
  72.7419992  73.1829978 -17.3349986  72.1417096  72.8727049 -16.7878896
  58.6159992  68.5159978   0.9510014  58.7599992  67.6139978   0.6650014
  57.8439992  68.8019978   0.4640014  58.5312733  68.4311798   0.8459532
  62.9569992  68.8589978 -16.9159986  63.0219992  68.0649978 -16.3859986
  63.6099992  68.7409978 -17.6059986  63.0541605  68.7343430 -16.9367003
  65.2709992  68.4849978   0.3840014  64.9429992  68.7559978  -0.4729986
  65.4229992  67.5439978   0.2960014  65.2466412  68.3949046   0.2547822
  71.0059992  68.4009978  -2.2329986  71.7509992  68.9899978  -2.3519986
  70.2489992  68.9829978  -2.1689986  71.0055470  68.5602128  -2.2406201
  59.4489992  65.7159978   0.3710014  59.8569992  64.8589978   0.2500014
  59.1879992  65.7299978   1.2920014  59.4696016  65.6005119   0.4789192
  64.1069992  66.8319978 -14.6099986  63.6469992  66.3479978 -13.9249986
  64.3619992  66.1629978 -15.2459986  64.0784856  66.6753669 -14.6021603
  63.3959992  64.7249978  -2.2539986  62.7769992  65.3989978  -1.9739986
  63.7399992  65.0459978  -3.0879986  63.3577123  64.8606887  -2.3283612
  65.1779992  65.0749978 -16.3479986  64.9969992  64.9199978 -17.2749986
  66.1279992  65.1829978 -16.3029986  65.2816566  65.0683669 -16.4689071
  68.4149992  67.1959978   1.0230014  69.3689992  67.2799978   0.9960014
  68.2549992  66.4839978   1.6430014  68.5237182  67.1112842   1.1030733
  74.5679992  67.4289978 -16.9019986  74.2939992  67.0049978 -17.7149986
  74.6069992  68.3609978 -17.1189986  74.5357716  67.4968827 -17.0425714
  63.7349992  62.0799978  -1.1719986  63.8849992  61.3509978  -1.7739986
  63.7369992  62.8569978  -1.7309986  63.7557967  62.0852708  -1.3299459
  64.1479992  60.4489978  -3.6789986  64.6829992  60.9009978  -4.3309986
  63.2949992  60.3409978  -4.1019986  64.1060374  60.4962665  -3.8253290
  65.7289992  65.8889978  -3.4399986  66.4799992  65.7329978  -4.0129986
  65.3899992  66.7409978  -3.7149986  65.7859587  65.9828138  -3.5555922
  70.1449992  63.7039978   1.5890014  70.3369992  62.7729978   1.4770014
  71.0029992  64.1289978   1.5780014  70.2872182  63.6340070   1.5721862
  71.4619992  66.4929978  -0.3339986  71.1799992  67.2019978  -0.9119986
  72.4039992  66.4199978  -0.4849986  71.5507921  66.5802193  -0.4335775
  62.2139992  63.2779978   0.7390014  61.4459992  62.7449978   0.5290014
  62.8919992  62.9679978   0.1400014  62.2007235  63.1631754   0.6292413
  64.9529992  57.9059978  -3.2479986  64.8549992  58.8519978  -3.3529986
  64.2109992  57.5329978  -3.7239986  64.8392534  57.9851773  -3.3267400
  66.2169992  62.2269978   0.3160014  65.9819992  62.0079978   1.2170014
  65.4339992  62.0199978  -0.1939986  66.0789095  62.1689892   0.3705353
  68.9329992  61.3549978  -0.6089986  67.9849992  61.3869978  -0.4769986
  69.2449992  60.7289978   0.0450014  68.8455293  61.2747923  -0.5025852
  70.5669992  59.9889978   1.3960014  70.4699992  59.0369978   1.3910014
  70.2449992  60.2569978   2.2570014  70.5102468  59.8950884   1.5116210
  60.3939992  61.1979978   0.4440014  60.6059992  60.4919978  -0.1659986
  60.2829992  60.7609978   1.2880014  60.4080269  61.0421921   0.4745873
  65.1749992  57.1999978  -0.5769986  65.8869992  56.5599978  -0.5909986
  65.0739992  57.4659978  -1.4899986  65.2587387  57.1484330  -0.7024437
  65.5289992  58.8819978   1.4770014  65.3969992  58.4069978   0.6570014
  64.9289992  59.6269978   1.4220014  65.4299070  58.9175789   1.3573251
  65.0749992  75.7649978 -15.3469986  66.0079992  75.9229978 -15.2029986
  64.8109992  76.4409978 -15.9719986  65.1669911  75.8779373 -15.4117278
  58.6429992  70.4019978 -15.8639986  59.5569992  70.4809978 -15.5909986
  58.6509992  69.7149978 -16.5299986  58.7690655  70.3199205 -15.9167083
  57.2919992  75.7949978 -10.7869986  56.6449992  75.3329978 -11.3189986
  57.6469992  75.1229978 -10.2039986  57.2513741  75.6409774 -10.7810825
  58.1619992  73.8749978  -8.9819986  57.8279992  72.9949978  -8.8099986
  58.3849992  74.2209978  -8.1169986  58.1463721  73.8011938  -8.8415832
  75.7109992  74.6849978  -6.0009986  75.6889992  74.8699978  -5.0619986
  76.4009992  75.2529978  -6.3419986  75.8013439  74.7871887  -5.9185209
  75.2739992  74.2519978  -3.0799986  74.7869992  73.5169978  -3.4509986
  75.8229992  73.8579978  -2.4019986  75.2815247  74.0981057  -3.0391539
  73.7249992  70.0419978   1.5590014  72.8589992  69.9369978   1.9530014
  74.1009992  70.7999978   2.0050014  73.6573401  70.1301708   1.6732620
  75.0259992  68.2979978 -12.9269986  75.8759992  68.7189978 -12.7999986
  75.0309992  67.5579978 -12.3199986  75.1431143  68.2556094 -12.8275250
  75.4199992  66.3519978 -11.1039986  74.6939992  65.8719978 -10.7059986
  76.0019992  66.5569978 -10.3709986  75.3992730  66.3140184 -10.9505851
  75.1789992  69.1369978  -6.1559986  76.0129992  68.7589978  -6.4369986
  75.2909992  70.0799978  -6.2749986  75.3081917  69.2127943  -6.2105139
  73.6659992  72.0149978  -3.8489986  73.0179992  72.3399978  -3.2239986
  73.1479992  71.5739978  -4.5229986  73.5074196  71.9998651  -3.8545848
  75.6889992  66.2529978 -14.7129986  75.1669992  66.6089978 -15.4309986
  75.6559992  66.9279978 -14.0339986  75.6130129  66.3929598 -14.7196645
  74.0379992  63.4919978 -16.1619986  74.1339992  64.1589978 -16.8419986
  73.8979992  62.6769978 -16.6429986  74.0322040  63.4730671 -16.3201622
  73.2069992  64.8729978 -10.5409986  73.0569992  63.9279978 -10.5609986
  72.8529992  65.1539978  -9.6969986  73.1386351  64.7816644 -10.4296780
  58.2419992  66.9509978  -6.5299986  58.4269992  66.8689978  -7.4659986
  59.0919992  66.8269978  -6.1069986  58.3820928  66.9230463  -6.6007107
  74.0629992  66.8429978  -0.9019986  74.6459992  66.1079978  -0.7099986
  74.6269992  67.6149978  -0.8549986  74.2189781  66.8468145  -0.8693836
  75.5599992  64.7459978  -0.2169986  74.6969992  64.3669978  -0.3829986
  76.1639992  64.0069978  -0.2919986  75.5236085  64.5943223  -0.2498305
  73.2849992  60.8999978 -17.0439986  73.8959992  60.5289978 -16.4069986
  72.4479992  60.4789978 -16.8479986  73.2554947  60.7922756 -16.9302748
  72.9179992  62.4549978 -12.0779986  73.1969992  61.5479978 -11.9539986
  73.6769992  62.8889978 -12.4669986  73.0588619  62.3894502 -12.1136205
  73.5289992  63.0369978  -6.6419986  74.4619992  63.2489978  -6.6769986
  73.2939992  63.1379978  -5.7199986  73.6249517  63.0796833  -6.5220870
  73.5589992  63.7739978  -3.8659986  72.7159992  64.0419978  -3.4999986
  74.0009992  64.5959978  -4.0769986  73.5034138  63.9218273  -3.8444482
  57.8399992  62.2209978  -0.3899986  58.7589992  62.0989978  -0.1529986
  57.3899992  61.4709978   0.0000014  57.9050087  62.1029608  -0.3048590
  75.8419992  57.7539978   1.4870014  76.1909992  57.0999978   0.8820014
  75.9889992  58.5909978   1.0470014  75.9096824  57.7776024   1.3446304
  73.5309992  59.7179978 -12.0299986  73.7129992  59.2689978 -11.2049986
  72.9309992  59.1339978 -12.4939986  73.4748187  59.5775552 -11.9797261
  59.0609992  60.5339978  -7.4979986  59.5059992  59.7419978  -7.1959986
  59.5269992  61.2499978  -7.0679986  59.1849718  60.5224534  -7.3984735
  57.3649992  63.5329978  -6.4289986  57.8569992  63.3119978  -7.2199986
  57.7269992  64.3729978  -6.1479986  57.4812923  63.6163468  -6.4992593
  75.3609992  59.8629978  -0.1639986  74.4439992  60.1339978  -0.1989986
  75.4839992  59.3279978  -0.9479986  75.2519672  59.8277885  -0.2748138
  75.3979992  59.7859978 -15.5019986  75.8099992  59.0649978 -15.9769986
  76.0789992  60.4549978 -15.4439986  75.5465536  59.7777766 -15.5591976
  57.6789992  59.7909978 -12.3749986  56.7539992  59.9989978 -12.5039986
  58.1329992  60.2749978 -13.0649986  57.6136298  59.8849299 -12.4859549
  72.4489992  74.7749978 -10.4289986  73.1019992  74.4269978 -11.0369986
  72.9599992  75.2629978  -9.7829986  72.6072777  74.7933815 -10.4247953
  57.6419992  58.5289978  -4.0309986  56.9769992  58.2829978  -3.3879986
  57.1989992  59.1509978  -4.6079986  57.4911168  58.5794214  -4.0210152
  59.8339992  71.7039978   0.1140014  59.0129992  71.8789978  -0.3469986
  59.5819992  71.6309978   1.0340014  59.6875594  71.7180717   0.1753611
  62.7879992  72.6779978  -3.6279986  62.3639992  73.4879978  -3.9099986
  63.6929992  72.7639978  -3.9299986  62.8522138  72.8004160  -3.7073585
  67.0999992  74.0769978  -0.6679986  67.2839992  73.7439978   0.2100014
  67.9459992  74.3869978  -0.9899986  67.2396484  74.0732979  -0.5912383
  69.4449992  75.3629978  -1.4239986  70.1219992  74.7299978  -1.6639986
  69.7659992  75.7639978  -0.6169986  69.5811323  75.3305691  -1.3476842
  74.3619992  57.9529978  -2.3449986  73.5489992  58.2779978  -2.7319986
  74.5949992  57.1919978  -2.8779986  74.2821347  57.8946880  -2.4700159
  60.1899992  75.9349978  -3.5799986  59.4699992  76.3749978  -4.0309986
  59.8249992  75.6839978  -2.7319986  60.0419643  75.9613369  -3.5270871
  62.6569992  75.5349978  -4.5499986  61.7929992  75.6069978  -4.1459986
  62.6019992  76.0819978  -5.3339986  62.5311942  75.6187849  -4.6006000
  67.3679992  75.4229978  -5.3749986  66.9109992  75.9519978  -6.0289986
  67.5309992  76.0259978  -4.6499986  67.3274960  75.5769280  -5.3664726
  69.6959992  74.3009978  -4.4299986  68.7909992  74.4659978  -4.6959986
  70.1239992  75.1539978  -4.4959986  69.6301537  74.4389134  -4.4752905
  72.2999992  75.8709978  -4.1349986  72.1179992  76.7869978  -4.3459986
  72.4769992  75.4599978  -4.9819986  72.2990030  75.9408273  -4.2782834
  59.6049992  74.5579978  -6.6699986  59.5869992  74.1319978  -5.8129986
  60.4099992  74.2389978  -7.0789986  59.7112875  74.4566435  -6.6080485
  61.7459992  73.2679978  -8.0149986  61.5269992  72.3509978  -7.8449986
  62.5699992  73.4079978  -7.5489986  61.8274702  73.1615511  -7.9287473
  64.2829992  73.7379978  -7.1659986  64.4959992  72.8499978  -7.4529986
  64.3479992  73.7029978  -6.2119986  64.3209149  73.6118326  -7.0762631
  67.7919992  59.4019978  -8.0219986  67.1179992  58.7719978  -7.7659986
  68.3559992  58.9179978  -8.6249986  67.7760384  59.2503708  -8.0684980
  72.9349992  57.5089978  -7.9089986  73.5379992  58.0569978  -8.4109986
  72.0649992  57.8279978  -8.1499986  72.8999157  57.6270373  -8.0102090
  74.6619992  58.6479978  -9.5759986  75.2729992  58.1339978 -10.1029986
  75.0439992  59.5249978  -9.5529986  74.7973305  58.6962050  -9.6450582
  60.1189992  58.0359978 -10.1999986  59.3419992  57.8009978 -10.7069986
  60.6489992  57.2389978 -10.1909986  60.0843451  57.8961268 -10.2681373
  58.9549992  57.8339978 -14.3959986  59.3939992  58.4449978 -14.9879986
  58.3209992  58.3719978 -13.9219986  58.9293859  57.9904064 -14.4129695
  64.6979992  57.9619978 -10.3869986  65.5719992  58.3509978 -10.4159986
  64.5619992  57.7469978  -9.4639986  64.7991953  57.9861643 -10.2662383
  70.2549992  57.9919978  -8.7369986  70.3309992  58.0879978  -9.6869986
  69.9799992  57.0849978  -8.6089986  70.2281871  57.8824146  -8.8496056
  71.6079992  58.0179978 -13.0449986  70.9049992  58.6329978 -13.2549986
  71.1629992  57.1809978 -12.9139986  71.4516550  57.9889668 -13.0560163
  58.8559992  73.7819978 -13.4989986  58.1709992  73.7439978 -14.1659986
  58.8599992  74.6949978 -13.2109986  58.7627621  73.9001924 -13.5513874
  60.8159992  59.7499978 -15.9539986  61.3069992  59.1199978 -16.4809986
  61.4389992  60.0459978 -15.2909986  60.9675304  59.7037376 -15.9365060
  65.8419992  60.0429978 -13.4969986  66.0199992  59.3959978 -12.8139986
  65.7879992  60.8769978 -13.0299986  65.8590678  60.0671604 -13.3403699
  67.7199992  74.9909978 -15.1009986  68.5859992  75.3579978 -15.2789986
  67.4739992  74.5519978 -15.9149986  67.8052097  74.9818525 -15.2353981
  74.4289992  74.5539978 -12.4219986  74.2349992  73.8059978 -12.9869986
  74.3899992  75.3119978 -13.0049986  74.3971645  74.5540786 -12.5781852
  60.0759992  58.5499978  -0.6819986  59.7099992  57.7839978  -0.2399986
  60.9889992  58.5789978  -0.3959986  60.1493172  58.4490324  -0.5828110
  62.0489992  57.8999978   0.8530014  62.9479992  57.6259978   0.6690014
  61.6629992  57.1579978   1.3180014  62.1197307  57.7622196   0.8907098
  60.6739992  74.7019978 -16.4739986  60.4059992  74.9879978 -15.5999986
  61.4449992  74.1559978 -16.3209986  60.7415926  74.6672779 -16.3338795
  70.4709992  57.2329978   1.0360014  70.5469992  56.8069978   1.8890014
  71.3639992  57.2459978   0.6930014  70.6022303  57.1763493   1.1065497
  73.6469992  73.3059978  -0.2719986  72.8649992  73.1189978  -0.7919986
  73.5749992  74.2349978  -0.0549986  73.5301924  73.4060637  -0.3138398
  88.0529992  67.1919978 -10.2409986  88.1419992  68.1359978 -10.3729986
  87.4149992  66.9169978 -10.8989986  87.9789062  67.2839812 -10.3480359
  86.9859992  66.4469978  -6.8219986  86.9479992  65.8009978  -6.1169986
  86.6639992  65.9799978  -7.5929986  86.9372679  66.2954276  -6.8297079
  79.3539992  66.0609978  -5.2289986  79.3959992  65.4359978  -4.5059986
  80.0569992  66.6849978  -5.0469986  79.4547345  66.0597873  -5.1054726
  90.6919992  69.3859978  -8.5209986  90.2509992  68.6659978  -8.0699986
  90.6789992  70.1069978  -7.8909986  90.6299215  69.3849291  -8.3741895
  80.2779992  70.5109978  -6.6939986  79.9079992  69.7089978  -7.0639986
  81.2189992  70.3429978  -6.6479986  80.3545984  70.3784638  -6.7384397
  76.8879992  64.1709978 -11.3019986  76.4399992  65.0169978 -11.3199986
  76.3269992  63.5919978 -11.8169986  76.7508546  64.2083993 -11.3741109
  77.5979992  66.3329978  -9.1759986  77.8119992  65.5629978  -8.6479986
  78.3359992  66.4229978  -9.7789986  77.7270200  66.2398587  -9.1852965
  87.8039992  74.4899978  -8.3089986  88.4229992  73.8139978  -8.5819986
  87.5949992  74.2719978  -7.3999986  87.8606056  74.3678869  -8.2236033
  85.3749992  68.8789978  -6.4159986  85.6789992  68.1929978  -7.0109986
  86.0969992  68.9979978  -5.7979986  85.5141240  68.8012314  -6.4139041
  94.0379992  60.4809978  -5.5559986  94.0879992  61.0909978  -4.8199986
  94.4639992  60.9419978  -6.2789986  94.1024108  60.6267709  -5.5529888
  88.5159992  63.2729978  -6.0889986  88.6589992  62.3269978  -6.0689986
  88.4099992  63.4799978  -7.0169986  88.5212403  63.1714797  -6.2117761
  81.6709992  61.3749978  -8.8159986  81.7139992  62.2349978  -9.2349986
  81.2129992  60.8229978  -9.4499986  81.6149871  61.4179245  -8.9589239
  89.3929992  61.5059978 -10.4149986  90.0399992  61.1769978  -9.7909986
  89.9029992  62.0229978 -11.0379986  89.5504351  61.5309067 -10.4138963
  78.2909992  63.7719978  -8.0539986  78.9449992  63.2219978  -7.6219986
  78.3149992  63.4979978  -8.9709986  78.3837199  63.6597167  -8.1188332
  83.4479992  65.3219978  -8.8389986  84.0639992  64.7949978  -8.3299986
  82.8609992  64.6819978  -9.2429986  83.4530154  65.1633954  -8.8239055
  94.4299992  61.9589978  -3.3199986  93.7409992  62.6169978  -3.4149986
  94.4449992  61.7609978  -2.3829986  94.3377756  62.0222603  -3.2064188
  80.4809992  60.2929978  -4.7419986  80.2619992  60.8229978  -5.5089986
  79.8129992  60.5189978  -4.0949986  80.3606975  60.3960967  -4.7594860
  87.8499992  69.7929978 -11.1979986  87.5549992  69.4699978 -12.0499986
  87.5259992  70.6929978 -11.1569986  87.7658460  69.8704464 -11.3090286
  83.0499992  67.9679978  -4.4549986  82.3099992  68.5669978  -4.3509986
  83.7639992  68.5219978  -4.7699986  83.0453500  68.1247829  -4.4833629
  91.1569992  60.7969978  -8.4349986  90.9419992  60.0309978  -7.9019986
  91.8129992  61.2689978  -7.9219986  91.2162673  60.7560728  -8.2928010
  80.0749992  62.1849978  -6.7899986  80.6889992  62.8179978  -6.4169986
  80.5869992  61.7129978  -7.4459986  80.2281962  62.2077249  -6.8277065
  81.4579992  69.9329978  -3.6679986  81.4519992  70.8119978  -4.0459986
  80.6039992  69.8489978  -3.2429986  81.3417925  70.0419535  -3.6623113
  77.5789992  69.6039978 -12.8859986  77.3069992  69.8329978 -13.7739986
  77.6239992  70.4409978 -12.4249986  77.5478097  69.7486163 -12.9453317
  91.2039992  71.2249978  -6.1729986  90.2619992  71.2839978  -6.0109986
  91.4799992  72.1309978  -6.3099986  91.1125865  71.3555288  -6.1693808
  91.5039992  59.5119978  -4.7559986  90.7679992  60.1219978  -4.7929986
  92.1879992  59.9269978  -5.2819986  91.4955367  59.6517551  -4.8321826
  84.5079992  57.5979978  -7.2899986  84.3899992  56.6499978  -7.3439986
  83.6529992  57.9309978  -7.0169986  84.3762805  57.5132202  -7.2604921
  89.4559992  73.0059978  -9.5479986  89.8809992  72.2989978 -10.0329986
  89.7729992  73.8079978  -9.9649986  89.5570266  73.0175190  -9.6707521
  90.6159992  70.9069978 -11.0389986  90.3579992  70.2169978 -11.6509986
  90.6869992  70.4639978 -10.1939986  90.5903050  70.7526814 -11.0084379
  92.3019992  69.4739978  -2.5619986  92.4409992  68.8819978  -3.3009986
  92.4689992  70.3469978  -2.9179986  92.3436193  69.5108896  -2.7113789
  86.7739992  66.4359978 -12.7889986  86.0629992  66.9709978 -13.1409986
  87.4649992  66.4909978 -13.4489986  86.7700751  66.5166777 -12.9264142
  86.8279992  64.8929978 -15.7509986  87.5289992  64.9159978 -15.0989986
  87.1299992  64.2649978 -16.4069986  86.9648202  64.8112212 -15.7504391
  94.1429992  65.8139978  -4.4959986  93.4909992  66.5079978  -4.4069986
  94.6089992  66.0239978  -5.3059986  94.1165937  65.9375019  -4.5932467
  90.1799992  66.6449978 -11.8379986  89.4479992  66.8739978 -11.2639986
  90.6269992  65.9319978 -11.3829986  90.1403963  66.5798729 -11.6980055
  90.0769992  64.8199978  -2.7699986  90.1569992  65.5829978  -2.1979986
  89.4759992  65.0989978  -3.4599986  90.0066547  64.9622457  -2.7849953
  81.8249992  67.2759978  -9.9549986  81.4949992  66.9049978 -10.7729986
  82.4139992  66.6049978  -9.6079986  81.8593970  67.1346063 -10.0200596
  83.1919992  70.7039978  -7.2739986  83.0969992  70.1249978  -8.0299986
  83.9209992  70.3329978  -6.7779986  83.2776011  70.5745561  -7.3103972
  82.1919992  66.0439978  -6.3219986  82.7569992  66.1659978  -7.0839986
  82.5109992  66.6819978  -5.6829986  82.3124166  66.1468791  -6.3399652
  88.5009992  71.5479978  -5.5879986  88.2609992  72.2099978  -4.9399986
  88.3029992  70.7129978  -5.1629986  88.4413826  71.5258115  -5.4418434
  83.0719992  70.4439978  -1.6039986  82.7609992  71.2259978  -1.1489986
  82.4219992  70.2909978  -2.2899986  82.9415538  70.5304087  -1.6344102
  89.0509992  65.8079978 -14.1519986  89.6299992  65.9579978 -13.4059986
  89.4649992  66.2779978 -14.8759986  89.1863358  65.8920954 -14.1476047
  79.9919992  66.6419978  -2.3759986  80.0619992  67.2929978  -1.6769986
  79.1009992  66.7449978  -2.7109986  79.8811690  66.7449249  -2.3256957
  86.7769992  72.5439978 -10.7169986  87.2509992  72.8399978  -9.9399986
  86.2139992  73.2829978 -10.9499986  86.7657890  72.6843036 -10.6421899
  81.3109992  72.5149978  -0.8409986  81.3189992  72.3789978  -1.7879986
  80.3949992  72.3979978  -0.5889986  81.1882528  72.4805463  -0.9366757
  92.7499992  57.5579978 -14.3389986  91.8499992  57.6969978 -14.0439986
  93.0019992  58.3889978 -14.7409986  92.6608683  57.6894055 -14.3529768
  80.8159992  66.3449978 -12.3659986  80.5239992  67.1129978 -12.8569986
  80.1409992  65.6859978 -12.5289986  80.6848497  66.3609745 -12.4551740
  93.9389992  71.9239978 -15.9629986  94.0119992  72.8629978 -15.7929986
  94.8439992  71.6189978 -16.0189986  94.0714170  72.0113282 -15.9472937
  76.9089992  68.7079978  -3.5509986  76.4069992  68.6799978  -4.3659986
  76.9139992  67.8029978  -3.2409986  76.8409832  68.5817486  -3.6205879
  76.6589992  71.4889978  -6.6669986  77.6049992  71.3439978  -6.6859986
  76.5459992  72.2729978  -6.1299986  76.7733578  71.5751697  -6.5969683
  94.8569992  72.1549978  -0.9839986  94.8069992  71.1989978  -1.0219986
  94.0299992  72.4219978  -0.5829986  94.7383831  72.0604680  -0.9349879
  85.8349992  71.7289978  -2.1079986  85.9229992  72.5549978  -1.6329986
  84.9719992  71.3989978  -1.8589986  85.7303357  71.7975468  -2.0092347
  86.2499992  75.5009978 -12.3019986  86.1739992  75.3799978 -13.2489986
  86.2819992  76.4499978 -12.1839986  86.2439380  75.6127677 -12.4154819
  79.9029992  74.2899978 -10.5209986  80.0549992  73.9419978  -9.6429986
  79.0519992  73.9329978 -10.7769986  79.8088344  74.1940879 -10.4353132
  89.3509992  74.6549978 -15.2999986  89.7259992  73.9109978 -15.7709986
  89.3559992  74.3849978 -14.3819986  89.4030098  74.5166392 -15.2403371
  89.0199992  74.5809978 -12.5509986  88.0849992  74.6809978 -12.3719986
  89.2999992  73.8709978 -11.9719986  88.9299471  74.4987933 -12.4483305
  92.0089992  63.6479978  -0.5039986  91.6009992  64.1279978  -1.2249986
  92.0489992  62.7419978  -0.8119986  91.9586221  63.5912449  -0.6441733
  79.1579992  70.0319978  -2.5079986  79.3739992  69.6699978  -1.6479986
  78.3019992  69.6569978  -2.7169986  79.0718810  69.9318837  -2.4187320
  81.7759992  58.5019978  -6.5119986  80.9149992  58.4149978  -6.9199986
  81.7539992  59.3579978  -6.0839986  81.6550491  58.6058003  -6.5100418
  86.4389992  58.2239978  -3.1369986  86.8589992  57.8089978  -2.3839986
  85.5059992  58.0449978  -3.0199986  86.3703736  58.1429910  -3.0181032
  89.7659992  61.9789978  -2.2839986  89.2519992  61.8539978  -1.4859986
  89.6099992  62.8919978  -2.5279986  89.6746967  62.0852123  -2.2079063
  90.5279992  66.8399978 -16.5229986  90.5699992  66.6179978 -17.4529986
  91.3769992  67.2389978 -16.3329986  90.6485253  66.8635498 -16.6246178
  86.1009992  60.7159978 -15.8519986  85.8469992  60.7349978 -14.9299986
  85.8439992  59.8449978 -16.1539986  86.0314508  60.6008280 -15.7665197
  81.8669992  63.4669978  -5.4169986  81.2259992  63.4269978  -4.7079986
  81.9049992  64.3939978  -5.6549986  81.7843010  63.5867668  -5.3520054
  81.8639992  63.6879978 -10.5049986  80.9719992  63.3479978 -10.5639986
  82.3149992  63.3109978 -11.2609986  81.8027642  63.5904910 -10.6152274
  87.3999992  64.1039978 -11.6879986  86.9909992  64.9189978 -11.9799986
  88.1199992  63.9639978 -12.3019986  87.4414439  64.1965372 -11.8109885
  86.5019992  64.2799978  -0.1999986  85.9389992  63.5749978   0.1210014
  87.3279992  64.1589978   0.2680014  86.5366674  64.1672165  -0.0928249
  88.4049992  63.5499978  -8.8739986  88.2089992  64.1559978  -9.5889986
  88.5859992  62.7169978  -9.3079986  88.4026584  63.5202513  -9.0305788
  79.6169992  63.7879978  -3.5499986  79.5789992  64.1879978  -2.6809986
  79.1269992  62.9709978  -3.4599986  79.5455330  63.7322674  -3.4188711
  82.9829992  61.1619978 -16.7509986  82.5519992  60.7169978 -16.0219986
  82.2649992  61.5329978 -17.2639986  82.8269176  61.1512051 -16.7205070
  76.2259992  60.9039978  -9.6989986  76.8559992  60.8749978  -8.9799986
  76.6749992  60.4789978 -10.4299986  76.3730835  60.8425660  -9.6992341
  77.4999992  61.6499978 -14.2749986  77.9739992  62.2409978 -14.8599986
  76.7819992  62.1799978 -13.9279986  77.4678640  61.8025511 -14.3082031
  87.6689992  65.1879978  -4.2029986  87.9919992  64.5569978  -4.8459986
  87.2279992  64.6539978  -3.5419986  87.6536379  65.0293468  -4.2017418
  84.4459992  61.1159978  -9.4189986  83.5349992  61.1729978  -9.1299986
  84.9509992  61.0559978  -8.6079986  84.3896873  61.1156826  -9.2698793
  79.2739992  62.7449978 -10.5919986  78.3849992  62.8439978 -10.9319986
  79.5709992  61.9029978 -10.9379986  79.1924177  62.6447687 -10.6853060
  82.9269992  62.7449978 -12.9349986  83.8589992  62.8739978 -12.7569986
  82.7119992  63.4139978 -13.5849986  83.0254472  62.8530806 -12.9985109
  88.8509992  60.3509978  -6.1539986  88.1739992  60.4819978  -5.4909986
  88.3659992  60.1959978  -6.9649986  88.6927405  60.3479947  -6.1727830
  81.6009992  63.9389978 -15.3689986  81.0589992  63.5599978 -16.0599986
  82.4349992  64.1339978 -15.7969986  81.6394390  63.9134079 -15.5215608
  92.1389992  76.0219978   0.1220014  92.3379992  76.4459978  -0.7119986
  92.7939992  76.3659978   0.7290014  92.2548522  76.1266301   0.0897852
  79.7369992  68.4959978  -0.2699986  80.4689992  68.7509978   0.2920014
  78.9559992  68.7009978   0.2460014  79.7316526  68.5585450  -0.1234824
  85.7659992  63.9029978  -7.5319986  86.3299992  63.3569978  -8.0789986
  85.6179992  63.3819978  -6.7429986  85.8233037  63.7576787  -7.5002771
  80.7679992  60.0399978 -11.1129986  80.4509992  59.1369978 -11.1489986
  81.5489992  60.0419978 -11.6659986  80.8302431  59.9167797 -11.1926898
  84.3919992  62.2919978  -5.1179986  83.5569992  62.7459978  -5.0069986
  84.9159992  62.5679978  -4.3659986  84.3486072  62.3913948  -5.0011864
  84.9369992  68.5049978 -13.4329986  84.1919992  67.9969978 -13.7549986
  84.8019992  68.5539978 -12.4869986  84.8168963  68.4421731 -13.3491174
  92.0869992  67.6379978  -4.6459986  92.7279992  68.0939978  -5.1899986
  91.2559992  67.7509978  -5.1089986  92.0625287  67.7156921  -4.7830113
  88.8339992  61.3189978 -15.2339986  87.8959992  61.4299978 -15.3849986
  89.1319992  62.1749978 -14.9269986  88.7456318  61.4500158 -15.2131855
  86.4559992  68.6889978  -2.1959986  86.1099992  68.3069978  -1.3889986
  86.2559992  69.6219978  -2.1249986  86.3815987  68.7629002  -2.0759539
  89.5529992  63.1859978 -13.5729986  90.4449992  63.0479978 -13.2539986
  89.6089992  63.9769978 -14.1099986  89.6827325  63.2739918 -13.6018783
  80.0609992  67.7999978  -7.6629986  80.8059992  67.7969978  -8.2649986
  80.1389992  66.9759978  -7.1819986  80.1733365  67.6882384  -7.6802570
  87.0619992  69.9629978 -14.4079986  86.7669992  70.7899978 -14.0259986
  86.3589992  69.3439978 -14.2109986  86.9266379  69.9924171 -14.3291346
  77.0689992  66.2599978  -2.3479986  77.2919992  65.8419978  -1.5169986
  76.4669992  65.6479978  -2.7709986  77.0181513  66.1199606  -2.2913260
  84.0859992  65.7769978  -0.1349986  83.7899992  65.6119978  -1.0309986
  85.0169992  65.5569978  -0.1459986  84.1714401  65.7246880  -0.2589794
  88.7059992  71.1509978  -2.2459986  87.8059992  71.3339978  -2.5129986
  88.7399992  71.4099978  -1.3249986  88.5873748  71.2110554  -2.1580836
  94.4379992  63.3949978 -13.8779986  93.8829992  62.9989978 -14.5509986
  94.5379992  64.3059978 -14.1559986  94.3756816  63.4639505 -14.0074967
  94.4009992  69.1959978  -1.0409986  93.5499992  69.4339978  -1.4089986
  94.9909992  69.1789978  -1.7939986  94.3643812  69.2262524  -1.1931547
  92.7329992  72.1809978 -13.4129986  92.3599992  71.3559978 -13.1039986
  93.0099992  71.9979978 -14.3109986  92.7193463  72.0432569 -13.4920475
  89.8929992  66.9889978  -6.3919986  88.9649992  66.7579978  -6.4189986
  90.3439992  66.2119978  -6.7219986  89.8268165  66.8522774  -6.4403210
  82.4359992  71.3179978 -10.2589986  82.9639992  72.0909978 -10.4589986
  81.5559992  71.5419978 -10.5609986  82.3893435  71.4542700 -10.3272690
  78.1909992  66.1799978 -15.6719986  78.8069992  66.8069978 -15.2919986
  77.3289992  66.4959978 -15.3999986  78.1587678  66.3084412 -15.5832791
  83.8639992  68.9809978 -10.6829986  83.6229992  69.9059978 -10.6409986
  83.1229992  68.5219978 -10.2859986  83.7309206  69.0455915 -10.6236231
  84.3779992  73.1299978  -4.3679986  84.7409992  73.9839978  -4.6009986
  84.9099992  72.8379978  -3.6269986  84.4995141  73.2073895  -4.2997903
  82.5469992  74.0019978 -11.1369986  81.5969992  74.1079978 -11.0859986
  82.8989992  74.8229978 -10.7929986  82.4645472  74.1274923 -11.0835148
  87.9219992  69.2289978  -4.6669986  87.4969992  69.0009978  -3.8409986
  88.5029992  68.4899978  -4.8489986  87.9423395  69.0979545  -4.5785586
  90.1249992  70.1579978 -15.5929986  90.4789992  69.7779978 -14.7889986
  89.1769992  70.0639978 -15.5059986  90.0452298  70.0932452 -15.4711313
  90.5809992  73.7809978  -2.1979986  89.9789992  73.2249978  -2.6929986
  90.8619992  74.4479978  -2.8239986  90.5365757  73.7950744  -2.3504325
  94.6289992  74.6369978 -15.3919986  95.3729992  75.2229978 -15.5319986
  93.9349992  75.2059978 -15.0589986  94.6369809  74.7940818 -15.3661410
  78.7029992  61.0139978  -2.7899986  77.8109992  61.3519978  -2.8579986
  78.6049992  60.1579978  -2.3719986  78.5674475  60.9446543  -2.7428296
  90.9909992  68.8299978 -13.3659986  90.7139992  68.1019978 -12.8099986
  91.9189992  68.9489978 -13.1609986  91.0784499  68.7464213 -13.2621956
  78.3549992  72.8179978  -4.3549986  78.5719992  71.8859978  -4.3859986
  78.6009992  73.0929978  -3.4719986  78.4179809  72.7275686  -4.2398309
  83.1529992  70.8399978 -14.6899986  83.2999992  70.3199978 -13.8999986
  83.1499992  71.7469978 -14.3829986  83.1727102  70.8913953 -14.5404075
  79.6059992  68.0919978 -14.1789986  78.9199992  68.4449978 -13.6119986
  80.1289992  68.8549978 -14.4259986  79.5828402  68.2433901 -14.1348199
  87.4379992  60.7549978  -3.8999986  88.1369992  60.8289978  -3.2499986
  87.0569992  59.8899978  -3.7459986  87.4822097  60.6482389  -3.7902003
  88.2219992  60.4069978 -12.8029986  88.4419992  60.8779978 -13.6069986
  88.7809992  60.8009978 -12.1329986  88.3276732  60.5247287 -12.8224967
  85.8909992  72.5369978 -13.9399986  85.0739992  73.0339978 -13.8879986
  86.4199992  73.0129978 -14.5809986  85.8508125  72.6691989 -14.0194694
  85.4219992  62.1349978 -11.9679986  86.2339992  62.6389978 -11.9219986
  85.1779992  61.9899978 -11.0539986  85.5001467  62.1843749 -11.8381425
  85.9579992  63.1209978  -2.7839986  86.0769992  63.6949978  -2.0269986
  86.6129992  62.4329978  -2.6689986  86.0628684  63.1065194  -2.6648326
  86.3059992  59.2159978 -11.0299986  85.9589992  59.8329978 -10.3859986
  86.9649992  59.7169978 -11.5119986  86.3475090  59.3681575 -11.0069319
  83.2289992  73.5809978 -13.9589986  83.3899992  74.3809978 -14.4589986
  83.0319992  73.8879978 -13.0739986  83.2243906  73.7318678 -13.9077667
  81.9639992  60.2789978 -14.3429986  81.8799992  61.1669978 -13.9959986
  82.8539992  60.0139978 -14.1109986  82.0728163  60.3647179 -14.2641404
  92.1619992  61.0279978  -1.9489986  91.2459992  61.2899978  -2.0359986
  92.4979992  61.0249978  -2.8449986  92.0818499  61.0635163  -2.0821234
  90.7649992  64.7779978  -7.8529986  89.9669992  64.3629978  -8.1809986
  91.2099992  64.0879978  -7.3619986  90.7159684  64.6278628  -7.8314773
  80.2219992  70.7059978 -15.2829986  80.8139992  71.4059978 -15.0059986
  80.6809992  70.2729978 -16.0019986  80.3651652  70.7432675 -15.3423467
  78.5379992  63.3709978 -16.1669986  78.4929992  64.3099978 -15.9879986
  77.6499992  63.1349978 -16.4359986  78.4118166  63.4676687 -16.1788476
  91.8509992  74.0339978  -6.2309986  91.6949992  74.7129978  -6.8879986
  92.7839992  74.1059978  -6.0279986  91.9557387  74.1366390  -6.2934658
  79.3459992  58.1519978  -7.4929986  79.1169992  58.2109978  -8.4209986
  78.9039992  57.3609978  -7.1869986  79.2548801  58.0530540  -7.5785271
  78.2769992  72.0929978 -11.3329986  77.4439992  72.5649978 -11.3059986
  78.8219992  72.6029978 -11.9319986  78.2367857  72.2264791 -11.4102858
  77.5649992  74.7049978  -0.0029986  78.1049992  74.4889978   0.7570014
  77.0839992  73.8999978  -0.1929986  77.5739219  74.5665156   0.0754282
  82.1619992  73.6249978   1.6170014  82.9299992  73.1659978   1.9580014
  82.1409992  73.3989978   0.6870014  82.2642135  73.5316668   1.5379491
  86.2539992  73.1329978 -17.0069986  85.6099992  72.5019978 -16.6859986
  87.0159992  72.6019978 -17.2389986  86.2688058  72.9747902 -16.9943962
  88.7389992  72.0049978   0.3460014  88.3879992  71.1479978   0.5900014
  89.4649992  72.1469978   0.9530014  88.7891895  71.9071351   0.4613770
  90.8589992  72.9499978 -16.7739986  91.1419992  72.1549978 -16.3209986
  91.5979992  73.1829978 -17.3349986  90.9977096  72.8727049 -16.7878896
  77.4719992  68.5159978   0.9510014  77.6159992  67.6139978   0.6650014
  76.6999992  68.8019978   0.4640014  77.3872733  68.4311798   0.8459532
  81.8129992  68.8589978 -16.9159986  81.8779992  68.0649978 -16.3859986
  82.4659992  68.7409978 -17.6059986  81.9101605  68.7343430 -16.9367003
  84.1269992  68.4849978   0.3840014  83.7989992  68.7559978  -0.4729986
  84.2789992  67.5439978   0.2960014  84.1026412  68.3949046   0.2547822
  89.8619992  68.4009978  -2.2329986  90.6069992  68.9899978  -2.3519986
  89.1049992  68.9829978  -2.1689986  89.8615470  68.5602128  -2.2406201
  78.3049992  65.7159978   0.3710014  78.7129992  64.8589978   0.2500014
  78.0439992  65.7299978   1.2920014  78.3256016  65.6005119   0.4789192
  82.9629992  66.8319978 -14.6099986  82.5029992  66.3479978 -13.9249986
  83.2179992  66.1629978 -15.2459986  82.9344856  66.6753669 -14.6021603
  82.2519992  64.7249978  -2.2539986  81.6329992  65.3989978  -1.9739986
  82.5959992  65.0459978  -3.0879986  82.2137123  64.8606887  -2.3283612
  84.0339992  65.0749978 -16.3479986  83.8529992  64.9199978 -17.2749986
  84.9839992  65.1829978 -16.3029986  84.1376566  65.0683669 -16.4689071
  87.2709992  67.1959978   1.0230014  88.2249992  67.2799978   0.9960014
  87.1109992  66.4839978   1.6430014  87.3797182  67.1112842   1.1030733
  93.4239992  67.4289978 -16.9019986  93.1499992  67.0049978 -17.7149986
  93.4629992  68.3609978 -17.1189986  93.3917716  67.4968827 -17.0425714
  82.5909992  62.0799978  -1.1719986  82.7409992  61.3509978  -1.7739986
  82.5929992  62.8569978  -1.7309986  82.6117967  62.0852708  -1.3299459
  83.0039992  60.4489978  -3.6789986  83.5389992  60.9009978  -4.3309986
  82.1509992  60.3409978  -4.1019986  82.9620374  60.4962665  -3.8253290
  84.5849992  65.8889978  -3.4399986  85.3359992  65.7329978  -4.0129986
  84.2459992  66.7409978  -3.7149986  84.6419587  65.9828138  -3.5555922
  89.0009992  63.7039978   1.5890014  89.1929992  62.7729978   1.4770014
  89.8589992  64.1289978   1.5780014  89.1432182  63.6340070   1.5721862
  90.3179992  66.4929978  -0.3339986  90.0359992  67.2019978  -0.9119986
  91.2599992  66.4199978  -0.4849986  90.4067921  66.5802193  -0.4335775
  81.0699992  63.2779978   0.7390014  80.3019992  62.7449978   0.5290014
  81.7479992  62.9679978   0.1400014  81.0567235  63.1631754   0.6292413
  83.8089992  57.9059978  -3.2479986  83.7109992  58.8519978  -3.3529986
  83.0669992  57.5329978  -3.7239986  83.6952534  57.9851773  -3.3267400
  85.0729992  62.2269978   0.3160014  84.8379992  62.0079978   1.2170014
  84.2899992  62.0199978  -0.1939986  84.9349095  62.1689892   0.3705353
  87.7889992  61.3549978  -0.6089986  86.8409992  61.3869978  -0.4769986
  88.1009992  60.7289978   0.0450014  87.7015293  61.2747923  -0.5025852
  89.4229992  59.9889978   1.3960014  89.3259992  59.0369978   1.3910014
  89.1009992  60.2569978   2.2570014  89.3662468  59.8950884   1.5116210
  79.2499992  61.1979978   0.4440014  79.4619992  60.4919978  -0.1659986
  79.1389992  60.7609978   1.2880014  79.2640269  61.0421921   0.4745873
  84.0309992  57.1999978  -0.5769986  84.7429992  56.5599978  -0.5909986
  83.9299992  57.4659978  -1.4899986  84.1147387  57.1484330  -0.7024437
  84.3849992  58.8819978   1.4770014  84.2529992  58.4069978   0.6570014
  83.7849992  59.6269978   1.4220014  84.2859070  58.9175789   1.3573251
  83.9309992  75.7649978 -15.3469986  84.8639992  75.9229978 -15.2029986
  83.6669992  76.4409978 -15.9719986  84.0229911  75.8779373 -15.4117278
  77.4989992  70.4019978 -15.8639986  78.4129992  70.4809978 -15.5909986
  77.5069992  69.7149978 -16.5299986  77.6250655  70.3199205 -15.9167083
  76.1479992  75.7949978 -10.7869986  75.5009992  75.3329978 -11.3189986
  76.5029992  75.1229978 -10.2039986  76.1073741  75.6409774 -10.7810825
  77.0179992  73.8749978  -8.9819986  76.6839992  72.9949978  -8.8099986
  77.2409992  74.2209978  -8.1169986  77.0023721  73.8011938  -8.8415832
  94.5669992  74.6849978  -6.0009986  94.5449992  74.8699978  -5.0619986
  95.2569992  75.2529978  -6.3419986  94.6573439  74.7871887  -5.9185209
  94.1299992  74.2519978  -3.0799986  93.6429992  73.5169978  -3.4509986
  94.6789992  73.8579978  -2.4019986  94.1375247  74.0981057  -3.0391539
  92.5809992  70.0419978   1.5590014  91.7149992  69.9369978   1.9530014
  92.9569992  70.7999978   2.0050014  92.5133401  70.1301708   1.6732620
  93.8819992  68.2979978 -12.9269986  94.7319992  68.7189978 -12.7999986
  93.8869992  67.5579978 -12.3199986  93.9991143  68.2556094 -12.8275250
  94.2759992  66.3519978 -11.1039986  93.5499992  65.8719978 -10.7059986
  94.8579992  66.5569978 -10.3709986  94.2552730  66.3140184 -10.9505851
  94.0349992  69.1369978  -6.1559986  94.8689992  68.7589978  -6.4369986
  94.1469992  70.0799978  -6.2749986  94.1641917  69.2127943  -6.2105139
  92.5219992  72.0149978  -3.8489986  91.8739992  72.3399978  -3.2239986
  92.0039992  71.5739978  -4.5229986  92.3634196  71.9998651  -3.8545848
  94.5449992  66.2529978 -14.7129986  94.0229992  66.6089978 -15.4309986
  94.5119992  66.9279978 -14.0339986  94.4690129  66.3929598 -14.7196645
  92.8939992  63.4919978 -16.1619986  92.9899992  64.1589978 -16.8419986
  92.7539992  62.6769978 -16.6429986  92.8882040  63.4730671 -16.3201622
  92.0629992  64.8729978 -10.5409986  91.9129992  63.9279978 -10.5609986
  91.7089992  65.1539978  -9.6969986  91.9946351  64.7816644 -10.4296780
  77.0979992  66.9509978  -6.5299986  77.2829992  66.8689978  -7.4659986
  77.9479992  66.8269978  -6.1069986  77.2380928  66.9230463  -6.6007107
  92.9189992  66.8429978  -0.9019986  93.5019992  66.1079978  -0.7099986
  93.4829992  67.6149978  -0.8549986  93.0749781  66.8468145  -0.8693836
  94.4159992  64.7459978  -0.2169986  93.5529992  64.3669978  -0.3829986
  95.0199992  64.0069978  -0.2919986  94.3796085  64.5943223  -0.2498305
  92.1409992  60.8999978 -17.0439986  92.7519992  60.5289978 -16.4069986
  91.3039992  60.4789978 -16.8479986  92.1114947  60.7922756 -16.9302748
  91.7739992  62.4549978 -12.0779986  92.0529992  61.5479978 -11.9539986
  92.5329992  62.8889978 -12.4669986  91.9148619  62.3894502 -12.1136205
  92.3849992  63.0369978  -6.6419986  93.3179992  63.2489978  -6.6769986
  92.1499992  63.1379978  -5.7199986  92.4809517  63.0796833  -6.5220870
  92.4149992  63.7739978  -3.8659986  91.5719992  64.0419978  -3.4999986
  92.8569992  64.5959978  -4.0769986  92.3594138  63.9218273  -3.8444482
  76.6959992  62.2209978  -0.3899986  77.6149992  62.0989978  -0.1529986
  76.2459992  61.4709978   0.0000014  76.7610087  62.1029608  -0.3048590
  94.6979992  57.7539978   1.4870014  95.0469992  57.0999978   0.8820014
  94.8449992  58.5909978   1.0470014  94.7656824  57.7776024   1.3446304
  92.3869992  59.7179978 -12.0299986  92.5689992  59.2689978 -11.2049986
  91.7869992  59.1339978 -12.4939986  92.3308187  59.5775552 -11.9797261
  77.9169992  60.5339978  -7.4979986  78.3619992  59.7419978  -7.1959986
  78.3829992  61.2499978  -7.0679986  78.0409718  60.5224534  -7.3984735
  76.2209992  63.5329978  -6.4289986  76.7129992  63.3119978  -7.2199986
  76.5829992  64.3729978  -6.1479986  76.3372923  63.6163468  -6.4992593
  94.2169992  59.8629978  -0.1639986  93.2999992  60.1339978  -0.1989986
  94.3399992  59.3279978  -0.9479986  94.1079672  59.8277885  -0.2748138
  94.2539992  59.7859978 -15.5019986  94.6659992  59.0649978 -15.9769986
  94.9349992  60.4549978 -15.4439986  94.4025536  59.7777766 -15.5591976
  76.5349992  59.7909978 -12.3749986  75.6099992  59.9989978 -12.5039986
  76.9889992  60.2749978 -13.0649986  76.4696298  59.8849299 -12.4859549
  91.3049992  74.7749978 -10.4289986  91.9579992  74.4269978 -11.0369986
  91.8159992  75.2629978  -9.7829986  91.4632777  74.7933815 -10.4247953
  76.4979992  58.5289978  -4.0309986  75.8329992  58.2829978  -3.3879986
  76.0549992  59.1509978  -4.6079986  76.3471168  58.5794214  -4.0210152
  78.6899992  71.7039978   0.1140014  77.8689992  71.8789978  -0.3469986
  78.4379992  71.6309978   1.0340014  78.5435594  71.7180717   0.1753611
  81.6439992  72.6779978  -3.6279986  81.2199992  73.4879978  -3.9099986
  82.5489992  72.7639978  -3.9299986  81.7082138  72.8004160  -3.7073585
  85.9559992  74.0769978  -0.6679986  86.1399992  73.7439978   0.2100014
  86.8019992  74.3869978  -0.9899986  86.0956484  74.0732979  -0.5912383
  88.3009992  75.3629978  -1.4239986  88.9779992  74.7299978  -1.6639986
  88.6219992  75.7639978  -0.6169986  88.4371323  75.3305691  -1.3476842
  93.2179992  57.9529978  -2.3449986  92.4049992  58.2779978  -2.7319986
  93.4509992  57.1919978  -2.8779986  93.1381347  57.8946880  -2.4700159
  79.0459992  75.9349978  -3.5799986  78.3259992  76.3749978  -4.0309986
  78.6809992  75.6839978  -2.7319986  78.8979643  75.9613369  -3.5270871
  81.5129992  75.5349978  -4.5499986  80.6489992  75.6069978  -4.1459986
  81.4579992  76.0819978  -5.3339986  81.3871942  75.6187849  -4.6006000
  86.2239992  75.4229978  -5.3749986  85.7669992  75.9519978  -6.0289986
  86.3869992  76.0259978  -4.6499986  86.1834960  75.5769280  -5.3664726
  88.5519992  74.3009978  -4.4299986  87.6469992  74.4659978  -4.6959986
  88.9799992  75.1539978  -4.4959986  88.4861537  74.4389134  -4.4752905
  91.1559992  75.8709978  -4.1349986  90.9739992  76.7869978  -4.3459986
  91.3329992  75.4599978  -4.9819986  91.1550030  75.9408273  -4.2782834
  78.4609992  74.5579978  -6.6699986  78.4429992  74.1319978  -5.8129986
  79.2659992  74.2389978  -7.0789986  78.5672875  74.4566435  -6.6080485
  80.6019992  73.2679978  -8.0149986  80.3829992  72.3509978  -7.8449986
  81.4259992  73.4079978  -7.5489986  80.6834702  73.1615511  -7.9287473
  83.1389992  73.7379978  -7.1659986  83.3519992  72.8499978  -7.4529986
  83.2039992  73.7029978  -6.2119986  83.1769149  73.6118326  -7.0762631
  86.6479992  59.4019978  -8.0219986  85.9739992  58.7719978  -7.7659986
  87.2119992  58.9179978  -8.6249986  86.6320384  59.2503708  -8.0684980
  91.7909992  57.5089978  -7.9089986  92.3939992  58.0569978  -8.4109986
  90.9209992  57.8279978  -8.1499986  91.7559157  57.6270373  -8.0102090
  93.5179992  58.6479978  -9.5759986  94.1289992  58.1339978 -10.1029986
  93.8999992  59.5249978  -9.5529986  93.6533305  58.6962050  -9.6450582
  78.9749992  58.0359978 -10.1999986  78.1979992  57.8009978 -10.7069986
  79.5049992  57.2389978 -10.1909986  78.9403451  57.8961268 -10.2681373
  77.8109992  57.8339978 -14.3959986  78.2499992  58.4449978 -14.9879986
  77.1769992  58.3719978 -13.9219986  77.7853859  57.9904064 -14.4129695
  83.5539992  57.9619978 -10.3869986  84.4279992  58.3509978 -10.4159986
  83.4179992  57.7469978  -9.4639986  83.6551953  57.9861643 -10.2662383
  89.1109992  57.9919978  -8.7369986  89.1869992  58.0879978  -9.6869986
  88.8359992  57.0849978  -8.6089986  89.0841871  57.8824146  -8.8496056
  90.4639992  58.0179978 -13.0449986  89.7609992  58.6329978 -13.2549986
  90.0189992  57.1809978 -12.9139986  90.3076550  57.9889668 -13.0560163
  77.7119992  73.7819978 -13.4989986  77.0269992  73.7439978 -14.1659986
  77.7159992  74.6949978 -13.2109986  77.6187621  73.9001924 -13.5513874
  79.6719992  59.7499978 -15.9539986  80.1629992  59.1199978 -16.4809986
  80.2949992  60.0459978 -15.2909986  79.8235304  59.7037376 -15.9365060
  84.6979992  60.0429978 -13.4969986  84.8759992  59.3959978 -12.8139986
  84.6439992  60.8769978 -13.0299986  84.7150678  60.0671604 -13.3403699
  86.5759992  74.9909978 -15.1009986  87.4419992  75.3579978 -15.2789986
  86.3299992  74.5519978 -15.9149986  86.6612097  74.9818525 -15.2353981
  93.2849992  74.5539978 -12.4219986  93.0909992  73.8059978 -12.9869986
  93.2459992  75.3119978 -13.0049986  93.2531645  74.5540786 -12.5781852
  78.9319992  58.5499978  -0.6819986  78.5659992  57.7839978  -0.2399986
  79.8449992  58.5789978  -0.3959986  79.0053172  58.4490324  -0.5828110
  80.9049992  57.8999978   0.8530014  81.8039992  57.6259978   0.6690014
  80.5189992  57.1579978   1.3180014  80.9757307  57.7622196   0.8907098
  79.5299992  74.7019978 -16.4739986  79.2619992  74.9879978 -15.5999986
  80.3009992  74.1559978 -16.3209986  79.5975926  74.6672779 -16.3338795
  89.3269992  57.2329978   1.0360014  89.4029992  56.8069978   1.8890014
  90.2199992  57.2459978   0.6930014  89.4582303  57.1763493   1.1065497
  92.5029992  73.3059978  -0.2719986  91.7209992  73.1189978  -0.7919986
  92.4309992  74.2349978  -0.0549986  92.3861924  73.4060637  -0.3138398
 106.9089992  67.1919978 -10.2409986 106.9979992  68.1359978 -10.3729986
 106.2709992  66.9169978 -10.8989986 106.8349062  67.2839812 -10.3480359
 105.8419992  66.4469978  -6.8219986 105.8039992  65.8009978  -6.1169986
 105.5199992  65.9799978  -7.5929986 105.7932679  66.2954276  -6.8297079
  98.2099992  66.0609978  -5.2289986  98.2519992  65.4359978  -4.5059986
  98.9129992  66.6849978  -5.0469986  98.3107345  66.0597873  -5.1054727
 109.5479992  69.3859978  -8.5209986 109.1069992  68.6659978  -8.0699986
 109.5349992  70.1069978  -7.8909986 109.4859215  69.3849291  -8.3741895
  99.1339992  70.5109978  -6.6939986  98.7639992  69.7089978  -7.0639986
 100.0749992  70.3429978  -6.6479986  99.2105984  70.3784638  -6.7384397
  95.7439992  64.1709978 -11.3019986  95.2959992  65.0169978 -11.3199986
  95.1829992  63.5919978 -11.8169986  95.6068546  64.2083993 -11.3741109
  96.4539992  66.3329978  -9.1759986  96.6679992  65.5629978  -8.6479986
  97.1919992  66.4229978  -9.7789986  96.5830200  66.2398587  -9.1852965
 106.6599992  74.4899978  -8.3089986 107.2789992  73.8139978  -8.5819986
 106.4509992  74.2719978  -7.3999986 106.7166056  74.3678869  -8.2236033
 104.2309992  68.8789978  -6.4159986 104.5349992  68.1929978  -7.0109986
 104.9529992  68.9979978  -5.7979986 104.3701240  68.8012314  -6.4139041
 112.8939992  60.4809978  -5.5559986 112.9439992  61.0909978  -4.8199986
 113.3199992  60.9419978  -6.2789986 112.9584108  60.6267709  -5.5529888
 107.3719992  63.2729978  -6.0889986 107.5149992  62.3269978  -6.0689986
 107.2659992  63.4799978  -7.0169986 107.3772403  63.1714797  -6.2117761
 100.5269992  61.3749978  -8.8159986 100.5699992  62.2349978  -9.2349986
 100.0689992  60.8229978  -9.4499986 100.4709871  61.4179245  -8.9589239
 108.2489992  61.5059978 -10.4149986 108.8959992  61.1769978  -9.7909986
 108.7589992  62.0229978 -11.0379986 108.4064351  61.5309067 -10.4138963
  97.1469992  63.7719978  -8.0539986  97.8009992  63.2219978  -7.6219986
  97.1709992  63.4979978  -8.9709986  97.2397199  63.6597167  -8.1188332
 102.3039992  65.3219978  -8.8389986 102.9199992  64.7949978  -8.3299986
 101.7169992  64.6819978  -9.2429986 102.3090154  65.1633954  -8.8239055
 113.2859992  61.9589978  -3.3199986 112.5969992  62.6169978  -3.4149986
 113.3009992  61.7609978  -2.3829986 113.1937756  62.0222603  -3.2064188
  99.3369992  60.2929978  -4.7419986  99.1179992  60.8229978  -5.5089986
  98.6689992  60.5189978  -4.0949986  99.2166975  60.3960967  -4.7594860
 106.7059992  69.7929978 -11.1979986 106.4109992  69.4699978 -12.0499986
 106.3819992  70.6929978 -11.1569986 106.6218460  69.8704464 -11.3090286
 101.9059992  67.9679978  -4.4549986 101.1659992  68.5669978  -4.3509986
 102.6199992  68.5219978  -4.7699986 101.9013500  68.1247829  -4.4833629
 110.0129992  60.7969978  -8.4349986 109.7979992  60.0309978  -7.9019986
 110.6689992  61.2689978  -7.9219986 110.0722673  60.7560728  -8.2928010
  98.9309992  62.1849978  -6.7899986  99.5449992  62.8179978  -6.4169986
  99.4429992  61.7129978  -7.4459986  99.0841962  62.2077249  -6.8277065
 100.3139992  69.9329978  -3.6679986 100.3079992  70.8119978  -4.0459986
  99.4599992  69.8489978  -3.2429986 100.1977925  70.0419535  -3.6623113
  96.4349992  69.6039978 -12.8859986  96.1629992  69.8329978 -13.7739986
  96.4799992  70.4409978 -12.4249986  96.4038097  69.7486163 -12.9453317
 110.0599992  71.2249978  -6.1729986 109.1179992  71.2839978  -6.0109986
 110.3359992  72.1309978  -6.3099986 109.9685865  71.3555288  -6.1693808
 110.3599992  59.5119978  -4.7559986 109.6239992  60.1219978  -4.7929986
 111.0439992  59.9269978  -5.2819986 110.3515367  59.6517551  -4.8321826
 103.3639992  57.5979978  -7.2899986 103.2459992  56.6499978  -7.3439986
 102.5089992  57.9309978  -7.0169986 103.2322805  57.5132202  -7.2604921
 108.3119992  73.0059978  -9.5479986 108.7369992  72.2989978 -10.0329986
 108.6289992  73.8079978  -9.9649986 108.4130266  73.0175190  -9.6707521
 109.4719992  70.9069978 -11.0389986 109.2139992  70.2169978 -11.6509986
 109.5429992  70.4639978 -10.1939986 109.4463050  70.7526814 -11.0084379
 111.1579992  69.4739978  -2.5619986 111.2969992  68.8819978  -3.3009986
 111.3249992  70.3469978  -2.9179986 111.1996193  69.5108896  -2.7113789
 105.6299992  66.4359978 -12.7889986 104.9189992  66.9709978 -13.1409986
 106.3209992  66.4909978 -13.4489986 105.6260751  66.5166777 -12.9264142
 105.6839992  64.8929978 -15.7509986 106.3849992  64.9159978 -15.0989986
 105.9859992  64.2649978 -16.4069986 105.8208202  64.8112212 -15.7504391
 112.9989992  65.8139978  -4.4959986 112.3469992  66.5079978  -4.4069986
 113.4649992  66.0239978  -5.3059986 112.9725937  65.9375019  -4.5932467
 109.0359992  66.6449978 -11.8379986 108.3039992  66.8739978 -11.2639986
 109.4829992  65.9319978 -11.3829986 108.9963963  66.5798729 -11.6980055
 108.9329992  64.8199978  -2.7699986 109.0129992  65.5829978  -2.1979986
 108.3319992  65.0989978  -3.4599986 108.8626547  64.9622457  -2.7849953
 100.6809992  67.2759978  -9.9549986 100.3509992  66.9049978 -10.7729986
 101.2699992  66.6049978  -9.6079986 100.7153970  67.1346063 -10.0200596
 102.0479992  70.7039978  -7.2739986 101.9529992  70.1249978  -8.0299986
 102.7769992  70.3329978  -6.7779986 102.1336011  70.5745561  -7.3103972
 101.0479992  66.0439978  -6.3219986 101.6129992  66.1659978  -7.0839986
 101.3669992  66.6819978  -5.6829986 101.1684166  66.1468791  -6.3399652
 107.3569992  71.5479978  -5.5879986 107.1169992  72.2099978  -4.9399986
 107.1589992  70.7129978  -5.1629986 107.2973826  71.5258115  -5.4418434
 101.9279992  70.4439978  -1.6039986 101.6169992  71.2259978  -1.1489986
 101.2779992  70.2909978  -2.2899986 101.7975538  70.5304087  -1.6344102
 107.9069992  65.8079978 -14.1519986 108.4859992  65.9579978 -13.4059986
 108.3209992  66.2779978 -14.8759986 108.0423358  65.8920954 -14.1476047
  98.8479992  66.6419978  -2.3759986  98.9179992  67.2929978  -1.6769986
  97.9569992  66.7449978  -2.7109986  98.7371690  66.7449249  -2.3256957
 105.6329992  72.5439978 -10.7169986 106.1069992  72.8399978  -9.9399986
 105.0699992  73.2829978 -10.9499986 105.6217890  72.6843036 -10.6421899
 100.1669992  72.5149978  -0.8409986 100.1749992  72.3789978  -1.7879986
  99.2509992  72.3979978  -0.5889986 100.0442528  72.4805463  -0.9366757
 111.6059992  57.5579978 -14.3389986 110.7059992  57.6969978 -14.0439986
 111.8579992  58.3889978 -14.7409986 111.5168683  57.6894055 -14.3529768
  99.6719992  66.3449978 -12.3659986  99.3799992  67.1129978 -12.8569986
  98.9969992  65.6859978 -12.5289986  99.5408497  66.3609745 -12.4551740
 112.7949992  71.9239978 -15.9629986 112.8679992  72.8629978 -15.7929986
 113.6999992  71.6189978 -16.0189986 112.9274170  72.0113282 -15.9472937
  95.7649992  68.7079978  -3.5509986  95.2629992  68.6799978  -4.3659986
  95.7699992  67.8029978  -3.2409986  95.6969832  68.5817486  -3.6205879
  95.5149992  71.4889978  -6.6669986  96.4609992  71.3439978  -6.6859986
  95.4019992  72.2729978  -6.1299986  95.6293578  71.5751697  -6.5969683
 113.7129992  72.1549978  -0.9839986 113.6629992  71.1989978  -1.0219986
 112.8859992  72.4219978  -0.5829986 113.5943831  72.0604680  -0.9349879
 104.6909992  71.7289978  -2.1079986 104.7789992  72.5549978  -1.6329986
 103.8279992  71.3989978  -1.8589986 104.5863357  71.7975468  -2.0092347
 105.1059992  75.5009978 -12.3019986 105.0299992  75.3799978 -13.2489986
 105.1379992  76.4499978 -12.1839986 105.0999380  75.6127677 -12.4154819
  98.7589992  74.2899978 -10.5209986  98.9109992  73.9419978  -9.6429986
  97.9079992  73.9329978 -10.7769986  98.6648344  74.1940879 -10.4353132
 108.2069992  74.6549978 -15.2999986 108.5819992  73.9109978 -15.7709986
 108.2119992  74.3849978 -14.3819986 108.2590098  74.5166392 -15.2403371
 107.8759992  74.5809978 -12.5509986 106.9409992  74.6809978 -12.3719986
 108.1559992  73.8709978 -11.9719986 107.7859471  74.4987933 -12.4483305
 110.8649992  63.6479978  -0.5039986 110.4569992  64.1279978  -1.2249986
 110.9049992  62.7419978  -0.8119986 110.8146221  63.5912449  -0.6441733
  98.0139992  70.0319978  -2.5079986  98.2299992  69.6699978  -1.6479986
  97.1579992  69.6569978  -2.7169986  97.9278810  69.9318837  -2.4187320
 100.6319992  58.5019978  -6.5119986  99.7709992  58.4149978  -6.9199986
 100.6099992  59.3579978  -6.0839986 100.5110491  58.6058003  -6.5100418
 105.2949992  58.2239978  -3.1369986 105.7149992  57.8089978  -2.3839986
 104.3619992  58.0449978  -3.0199986 105.2263736  58.1429910  -3.0181032
 108.6219992  61.9789978  -2.2839986 108.1079992  61.8539978  -1.4859986
 108.4659992  62.8919978  -2.5279986 108.5306967  62.0852123  -2.2079063
 109.3839992  66.8399978 -16.5229986 109.4259992  66.6179978 -17.4529986
 110.2329992  67.2389978 -16.3329986 109.5045253  66.8635498 -16.6246178
 104.9569992  60.7159978 -15.8519986 104.7029992  60.7349978 -14.9299986
 104.6999992  59.8449978 -16.1539986 104.8874508  60.6008280 -15.7665197
 100.7229992  63.4669978  -5.4169986 100.0819992  63.4269978  -4.7079986
 100.7609992  64.3939978  -5.6549986 100.6403010  63.5867668  -5.3520054
 100.7199992  63.6879978 -10.5049986  99.8279992  63.3479978 -10.5639986
 101.1709992  63.3109978 -11.2609986 100.6587642  63.5904910 -10.6152274
 106.2559992  64.1039978 -11.6879986 105.8469992  64.9189978 -11.9799986
 106.9759992  63.9639978 -12.3019986 106.2974439  64.1965372 -11.8109885
 105.3579992  64.2799978  -0.1999986 104.7949992  63.5749978   0.1210014
 106.1839992  64.1589978   0.2680014 105.3926674  64.1672165  -0.0928249
 107.2609992  63.5499978  -8.8739986 107.0649992  64.1559978  -9.5889986
 107.4419992  62.7169978  -9.3079986 107.2586584  63.5202513  -9.0305788
  98.4729992  63.7879978  -3.5499986  98.4349992  64.1879978  -2.6809986
  97.9829992  62.9709978  -3.4599986  98.4015330  63.7322674  -3.4188711
 101.8389992  61.1619978 -16.7509986 101.4079992  60.7169978 -16.0219986
 101.1209992  61.5329978 -17.2639986 101.6829176  61.1512051 -16.7205070
  95.0819992  60.9039978  -9.6989986  95.7119992  60.8749978  -8.9799986
  95.5309992  60.4789978 -10.4299986  95.2290835  60.8425660  -9.6992341
  96.3559992  61.6499978 -14.2749986  96.8299992  62.2409978 -14.8599986
  95.6379992  62.1799978 -13.9279986  96.3238640  61.8025511 -14.3082031
 106.5249992  65.1879978  -4.2029986 106.8479992  64.5569978  -4.8459986
 106.0839992  64.6539978  -3.5419986 106.5096379  65.0293468  -4.2017418
 103.3019992  61.1159978  -9.4189986 102.3909992  61.1729978  -9.1299986
 103.8069992  61.0559978  -8.6079986 103.2456873  61.1156826  -9.2698793
  98.1299992  62.7449978 -10.5919986  97.2409992  62.8439978 -10.9319986
  98.4269992  61.9029978 -10.9379986  98.0484177  62.6447687 -10.6853060
 101.7829992  62.7449978 -12.9349986 102.7149992  62.8739978 -12.7569986
 101.5679992  63.4139978 -13.5849986 101.8814472  62.8530806 -12.9985109
 107.7069992  60.3509978  -6.1539986 107.0299992  60.4819978  -5.4909986
 107.2219992  60.1959978  -6.9649986 107.5487405  60.3479947  -6.1727830
 100.4569992  63.9389978 -15.3689986  99.9149992  63.5599978 -16.0599986
 101.2909992  64.1339978 -15.7969986 100.4954390  63.9134079 -15.5215608
 110.9949992  76.0219978   0.1220014 111.1939992  76.4459978  -0.7119986
 111.6499992  76.3659978   0.7290014 111.1108522  76.1266301   0.0897852
  98.5929992  68.4959978  -0.2699986  99.3249992  68.7509978   0.2920014
  97.8119992  68.7009978   0.2460014  98.5876526  68.5585450  -0.1234824
 104.6219992  63.9029978  -7.5319986 105.1859992  63.3569978  -8.0789986
 104.4739992  63.3819978  -6.7429986 104.6793037  63.7576787  -7.5002771
  99.6239992  60.0399978 -11.1129986  99.3069992  59.1369978 -11.1489986
 100.4049992  60.0419978 -11.6659986  99.6862431  59.9167797 -11.1926898
 103.2479992  62.2919978  -5.1179986 102.4129992  62.7459978  -5.0069986
 103.7719992  62.5679978  -4.3659986 103.2046072  62.3913948  -5.0011864
 103.7929992  68.5049978 -13.4329986 103.0479992  67.9969978 -13.7549986
 103.6579992  68.5539978 -12.4869986 103.6728963  68.4421731 -13.3491174
 110.9429992  67.6379978  -4.6459986 111.5839992  68.0939978  -5.1899986
 110.1119992  67.7509978  -5.1089986 110.9185287  67.7156921  -4.7830113
 107.6899992  61.3189978 -15.2339986 106.7519992  61.4299978 -15.3849986
 107.9879992  62.1749978 -14.9269986 107.6016318  61.4500158 -15.2131855
 105.3119992  68.6889978  -2.1959986 104.9659992  68.3069978  -1.3889986
 105.1119992  69.6219978  -2.1249986 105.2375987  68.7629002  -2.0759539
 108.4089992  63.1859978 -13.5729986 109.3009992  63.0479978 -13.2539986
 108.4649992  63.9769978 -14.1099986 108.5387325  63.2739918 -13.6018783
  98.9169992  67.7999978  -7.6629986  99.6619992  67.7969978  -8.2649986
  98.9949992  66.9759978  -7.1819986  99.0293365  67.6882384  -7.6802570
 105.9179992  69.9629978 -14.4079986 105.6229992  70.7899978 -14.0259986
 105.2149992  69.3439978 -14.2109986 105.7826379  69.9924171 -14.3291346
  95.9249992  66.2599978  -2.3479986  96.1479992  65.8419978  -1.5169986
  95.3229992  65.6479978  -2.7709986  95.8741513  66.1199606  -2.2913260
 102.9419992  65.7769978  -0.1349986 102.6459992  65.6119978  -1.0309986
 103.8729992  65.5569978  -0.1459986 103.0274401  65.7246880  -0.2589794
 107.5619992  71.1509978  -2.2459986 106.6619992  71.3339978  -2.5129986
 107.5959992  71.4099978  -1.3249986 107.4433748  71.2110554  -2.1580836
 113.2939992  63.3949978 -13.8779986 112.7389992  62.9989978 -14.5509986
 113.3939992  64.3059978 -14.1559986 113.2316816  63.4639505 -14.0074967
 113.2569992  69.1959978  -1.0409986 112.4059992  69.4339978  -1.4089986
 113.8469992  69.1789978  -1.7939986 113.2203812  69.2262524  -1.1931547
 111.5889992  72.1809978 -13.4129986 111.2159992  71.3559978 -13.1039986
 111.8659992  71.9979978 -14.3109986 111.5753463  72.0432569 -13.4920475
 108.7489992  66.9889978  -6.3919986 107.8209992  66.7579978  -6.4189986
 109.1999992  66.2119978  -6.7219986 108.6828165  66.8522774  -6.4403210
 101.2919992  71.3179978 -10.2589986 101.8199992  72.0909978 -10.4589986
 100.4119992  71.5419978 -10.5609986 101.2453435  71.4542700 -10.3272690
  97.0469992  66.1799978 -15.6719986  97.6629992  66.8069978 -15.2919986
  96.1849992  66.4959978 -15.3999986  97.0147678  66.3084412 -15.5832791
 102.7199992  68.9809978 -10.6829986 102.4789992  69.9059978 -10.6409986
 101.9789992  68.5219978 -10.2859986 102.5869206  69.0455915 -10.6236231
 103.2339992  73.1299978  -4.3679986 103.5969992  73.9839978  -4.6009986
 103.7659992  72.8379978  -3.6269986 103.3555141  73.2073895  -4.2997903
 101.4029992  74.0019978 -11.1369986 100.4529992  74.1079978 -11.0859986
 101.7549992  74.8229978 -10.7929986 101.3205472  74.1274923 -11.0835148
 106.7779992  69.2289978  -4.6669986 106.3529992  69.0009978  -3.8409986
 107.3589992  68.4899978  -4.8489986 106.7983395  69.0979545  -4.5785586
 108.9809992  70.1579978 -15.5929986 109.3349992  69.7779978 -14.7889986
 108.0329992  70.0639978 -15.5059986 108.9012298  70.0932452 -15.4711313
 109.4369992  73.7809978  -2.1979986 108.8349992  73.2249978  -2.6929986
 109.7179992  74.4479978  -2.8239986 109.3925757  73.7950744  -2.3504325
 113.4849992  74.6369978 -15.3919986 114.2289992  75.2229978 -15.5319986
 112.7909992  75.2059978 -15.0589986 113.4929809  74.7940818 -15.3661410
  97.5589992  61.0139978  -2.7899986  96.6669992  61.3519978  -2.8579986
  97.4609992  60.1579978  -2.3719986  97.4234475  60.9446543  -2.7428296
 109.8469992  68.8299978 -13.3659986 109.5699992  68.1019978 -12.8099986
 110.7749992  68.9489978 -13.1609986 109.9344499  68.7464213 -13.2621956
  97.2109992  72.8179978  -4.3549986  97.4279992  71.8859978  -4.3859986
  97.4569992  73.0929978  -3.4719986  97.2739809  72.7275686  -4.2398309
 102.0089992  70.8399978 -14.6899986 102.1559992  70.3199978 -13.8999986
 102.0059992  71.7469978 -14.3829986 102.0287102  70.8913953 -14.5404075
  98.4619992  68.0919978 -14.1789986  97.7759992  68.4449978 -13.6119986
  98.9849992  68.8549978 -14.4259986  98.4388402  68.2433901 -14.1348199
 106.2939992  60.7549978  -3.8999986 106.9929992  60.8289978  -3.2499986
 105.9129992  59.8899978  -3.7459986 106.3382097  60.6482389  -3.7902003
 107.0779992  60.4069978 -12.8029986 107.2979992  60.8779978 -13.6069986
 107.6369992  60.8009978 -12.1329986 107.1836732  60.5247287 -12.8224967
 104.7469992  72.5369978 -13.9399986 103.9299992  73.0339978 -13.8879986
 105.2759992  73.0129978 -14.5809986 104.7068125  72.6691989 -14.0194694
 104.2779992  62.1349978 -11.9679986 105.0899992  62.6389978 -11.9219986
 104.0339992  61.9899978 -11.0539986 104.3561467  62.1843749 -11.8381425
 104.8139992  63.1209978  -2.7839986 104.9329992  63.6949978  -2.0269986
 105.4689992  62.4329978  -2.6689986 104.9188684  63.1065194  -2.6648326
 105.1619992  59.2159978 -11.0299986 104.8149992  59.8329978 -10.3859986
 105.8209992  59.7169978 -11.5119986 105.2035090  59.3681575 -11.0069319
 102.0849992  73.5809978 -13.9589986 102.2459992  74.3809978 -14.4589986
 101.8879992  73.8879978 -13.0739986 102.0803906  73.7318678 -13.9077667
 100.8199992  60.2789978 -14.3429986 100.7359992  61.1669978 -13.9959986
 101.7099992  60.0139978 -14.1109986 100.9288163  60.3647179 -14.2641404
 111.0179992  61.0279978  -1.9489986 110.1019992  61.2899978  -2.0359986
 111.3539992  61.0249978  -2.8449986 110.9378499  61.0635163  -2.0821234
 109.6209992  64.7779978  -7.8529986 108.8229992  64.3629978  -8.1809986
 110.0659992  64.0879978  -7.3619986 109.5719684  64.6278628  -7.8314773
  99.0779992  70.7059978 -15.2829986  99.6699992  71.4059978 -15.0059986
  99.5369992  70.2729978 -16.0019986  99.2211652  70.7432675 -15.3423467
  97.3939992  63.3709978 -16.1669986  97.3489992  64.3099978 -15.9879986
  96.5059992  63.1349978 -16.4359986  97.2678166  63.4676687 -16.1788476
 110.7069992  74.0339978  -6.2309986 110.5509992  74.7129978  -6.8879986
 111.6399992  74.1059978  -6.0279986 110.8117387  74.1366390  -6.2934658
  98.2019992  58.1519978  -7.4929986  97.9729992  58.2109978  -8.4209986
  97.7599992  57.3609978  -7.1869986  98.1108801  58.0530540  -7.5785271
  97.1329992  72.0929978 -11.3329986  96.2999992  72.5649978 -11.3059986
  97.6779992  72.6029978 -11.9319986  97.0927857  72.2264791 -11.4102858
  96.4209992  74.7049978  -0.0029986  96.9609992  74.4889978   0.7570014
  95.9399992  73.8999978  -0.1929986  96.4299219  74.5665156   0.0754282
 101.0179992  73.6249978   1.6170014 101.7859992  73.1659978   1.9580014
 100.9969992  73.3989978   0.6870014 101.1202135  73.5316668   1.5379491
 105.1099992  73.1329978 -17.0069986 104.4659992  72.5019978 -16.6859986
 105.8719992  72.6019978 -17.2389986 105.1248058  72.9747902 -16.9943962
 107.5949992  72.0049978   0.3460014 107.2439992  71.1479978   0.5900014
 108.3209992  72.1469978   0.9530014 107.6451895  71.9071351   0.4613770
 109.7149992  72.9499978 -16.7739986 109.9979992  72.1549978 -16.3209986
 110.4539992  73.1829978 -17.3349986 109.8537096  72.8727049 -16.7878896
  96.3279992  68.5159978   0.9510014  96.4719992  67.6139978   0.6650014
  95.5559992  68.8019978   0.4640014  96.2432733  68.4311798   0.8459532
 100.6689992  68.8589978 -16.9159986 100.7339992  68.0649978 -16.3859986
 101.3219992  68.7409978 -17.6059986 100.7661605  68.7343430 -16.9367003
 102.9829992  68.4849978   0.3840014 102.6549992  68.7559978  -0.4729986
 103.1349992  67.5439978   0.2960014 102.9586412  68.3949046   0.2547822
 108.7179992  68.4009978  -2.2329986 109.4629992  68.9899978  -2.3519986
 107.9609992  68.9829978  -2.1689986 108.7175470  68.5602128  -2.2406201
  97.1609992  65.7159978   0.3710014  97.5689992  64.8589978   0.2500014
  96.8999992  65.7299978   1.2920014  97.1816016  65.6005119   0.4789192
 101.8189992  66.8319978 -14.6099986 101.3589992  66.3479978 -13.9249986
 102.0739992  66.1629978 -15.2459986 101.7904856  66.6753669 -14.6021603
 101.1079992  64.7249978  -2.2539986 100.4889992  65.3989978  -1.9739986
 101.4519992  65.0459978  -3.0879986 101.0697123  64.8606887  -2.3283612
 102.8899992  65.0749978 -16.3479986 102.7089992  64.9199978 -17.2749986
 103.8399992  65.1829978 -16.3029986 102.9936566  65.0683669 -16.4689071
 106.1269992  67.1959978   1.0230014 107.0809992  67.2799978   0.9960014
 105.9669992  66.4839978   1.6430014 106.2357182  67.1112842   1.1030733
 112.2799992  67.4289978 -16.9019986 112.0059992  67.0049978 -17.7149986
 112.3189992  68.3609978 -17.1189986 112.2477716  67.4968827 -17.0425714
 101.4469992  62.0799978  -1.1719986 101.5969992  61.3509978  -1.7739986
 101.4489992  62.8569978  -1.7309986 101.4677967  62.0852708  -1.3299459
 101.8599992  60.4489978  -3.6789986 102.3949992  60.9009978  -4.3309986
 101.0069992  60.3409978  -4.1019986 101.8180374  60.4962665  -3.8253290
 103.4409992  65.8889978  -3.4399986 104.1919992  65.7329978  -4.0129986
 103.1019992  66.7409978  -3.7149986 103.4979587  65.9828138  -3.5555922
 107.8569992  63.7039978   1.5890014 108.0489992  62.7729978   1.4770014
 108.7149992  64.1289978   1.5780014 107.9992182  63.6340070   1.5721862
 109.1739992  66.4929978  -0.3339986 108.8919992  67.2019978  -0.9119986
 110.1159992  66.4199978  -0.4849986 109.2627921  66.5802193  -0.4335775
  99.9259992  63.2779978   0.7390014  99.1579992  62.7449978   0.5290014
 100.6039992  62.9679978   0.1400014  99.9127235  63.1631754   0.6292413
 102.6649992  57.9059978  -3.2479986 102.5669992  58.8519978  -3.3529986
 101.9229992  57.5329978  -3.7239986 102.5512534  57.9851773  -3.3267400
 103.9289992  62.2269978   0.3160014 103.6939992  62.0079978   1.2170014
 103.1459992  62.0199978  -0.1939986 103.7909095  62.1689892   0.3705353
 106.6449992  61.3549978  -0.6089986 105.6969992  61.3869978  -0.4769986
 106.9569992  60.7289978   0.0450014 106.5575293  61.2747923  -0.5025852
 108.2789992  59.9889978   1.3960014 108.1819992  59.0369978   1.3910014
 107.9569992  60.2569978   2.2570014 108.2222468  59.8950884   1.5116210
  98.1059992  61.1979978   0.4440014  98.3179992  60.4919978  -0.1659986
  97.9949992  60.7609978   1.2880014  98.1200269  61.0421921   0.4745873
 102.8869992  57.1999978  -0.5769986 103.5989992  56.5599978  -0.5909986
 102.7859992  57.4659978  -1.4899986 102.9707387  57.1484330  -0.7024437
 103.2409992  58.8819978   1.4770014 103.1089992  58.4069978   0.6570014
 102.6409992  59.6269978   1.4220014 103.1419070  58.9175789   1.3573251
 102.7869992  75.7649978 -15.3469986 103.7199992  75.9229978 -15.2029986
 102.5229992  76.4409978 -15.9719986 102.8789911  75.8779373 -15.4117278
  96.3549992  70.4019978 -15.8639986  97.2689992  70.4809978 -15.5909986
  96.3629992  69.7149978 -16.5299986  96.4810655  70.3199205 -15.9167083
  95.0039992  75.7949978 -10.7869986  94.3569992  75.3329978 -11.3189986
  95.3589992  75.1229978 -10.2039986  94.9633741  75.6409774 -10.7810825
  95.8739992  73.8749978  -8.9819986  95.5399992  72.9949978  -8.8099986
  96.0969992  74.2209978  -8.1169986  95.8583721  73.8011938  -8.8415832
 113.4229992  74.6849978  -6.0009986 113.4009992  74.8699978  -5.0619986
 114.1129992  75.2529978  -6.3419986 113.5133439  74.7871887  -5.9185209
 112.9859992  74.2519978  -3.0799986 112.4989992  73.5169978  -3.4509986
 113.5349992  73.8579978  -2.4019986 112.9935247  74.0981057  -3.0391539
 111.4369992  70.0419978   1.5590014 110.5709992  69.9369978   1.9530014
 111.8129992  70.7999978   2.0050014 111.3693401  70.1301708   1.6732620
 112.7379992  68.2979978 -12.9269986 113.5879992  68.7189978 -12.7999986
 112.7429992  67.5579978 -12.3199986 112.8551143  68.2556094 -12.8275250
 113.1319992  66.3519978 -11.1039986 112.4059992  65.8719978 -10.7059986
 113.7139992  66.5569978 -10.3709986 113.1112730  66.3140184 -10.9505851
 112.8909992  69.1369978  -6.1559986 113.7249992  68.7589978  -6.4369986
 113.0029992  70.0799978  -6.2749986 113.0201917  69.2127943  -6.2105139
 111.3779992  72.0149978  -3.8489986 110.7299992  72.3399978  -3.2239986
 110.8599992  71.5739978  -4.5229986 111.2194196  71.9998651  -3.8545848
 113.4009992  66.2529978 -14.7129986 112.8789992  66.6089978 -15.4309986
 113.3679992  66.9279978 -14.0339986 113.3250129  66.3929598 -14.7196645
 111.7499992  63.4919978 -16.1619986 111.8459992  64.1589978 -16.8419986
 111.6099992  62.6769978 -16.6429986 111.7442040  63.4730671 -16.3201622
 110.9189992  64.8729978 -10.5409986 110.7689992  63.9279978 -10.5609986
 110.5649992  65.1539978  -9.6969986 110.8506351  64.7816644 -10.4296780
  95.9539992  66.9509978  -6.5299986  96.1389992  66.8689978  -7.4659986
  96.8039992  66.8269978  -6.1069986  96.0940928  66.9230463  -6.6007107
 111.7749992  66.8429978  -0.9019986 112.3579992  66.1079978  -0.7099986
 112.3389992  67.6149978  -0.8549986 111.9309781  66.8468145  -0.8693836
 113.2719992  64.7459978  -0.2169986 112.4089992  64.3669978  -0.3829986
 113.8759992  64.0069978  -0.2919986 113.2356085  64.5943223  -0.2498305
 110.9969992  60.8999978 -17.0439986 111.6079992  60.5289978 -16.4069986
 110.1599992  60.4789978 -16.8479986 110.9674947  60.7922756 -16.9302748
 110.6299992  62.4549978 -12.0779986 110.9089992  61.5479978 -11.9539986
 111.3889992  62.8889978 -12.4669986 110.7708619  62.3894502 -12.1136205
 111.2409992  63.0369978  -6.6419986 112.1739992  63.2489978  -6.6769986
 111.0059992  63.1379978  -5.7199986 111.3369517  63.0796833  -6.5220870
 111.2709992  63.7739978  -3.8659986 110.4279992  64.0419978  -3.4999986
 111.7129992  64.5959978  -4.0769986 111.2154138  63.9218273  -3.8444482
  95.5519992  62.2209978  -0.3899986  96.4709992  62.0989978  -0.1529986
  95.1019992  61.4709978   0.0000014  95.6170087  62.1029608  -0.3048590
 113.5539992  57.7539978   1.4870014 113.9029992  57.0999978   0.8820014
 113.7009992  58.5909978   1.0470014 113.6216824  57.7776024   1.3446304
 111.2429992  59.7179978 -12.0299986 111.4249992  59.2689978 -11.2049986
 110.6429992  59.1339978 -12.4939986 111.1868187  59.5775552 -11.9797261
  96.7729992  60.5339978  -7.4979986  97.2179992  59.7419978  -7.1959986
  97.2389992  61.2499978  -7.0679986  96.8969718  60.5224534  -7.3984735
  95.0769992  63.5329978  -6.4289986  95.5689992  63.3119978  -7.2199986
  95.4389992  64.3729978  -6.1479986  95.1932923  63.6163468  -6.4992593
 113.0729992  59.8629978  -0.1639986 112.1559992  60.1339978  -0.1989986
 113.1959992  59.3279978  -0.9479986 112.9639672  59.8277885  -0.2748138
 113.1099992  59.7859978 -15.5019986 113.5219992  59.0649978 -15.9769986
 113.7909992  60.4549978 -15.4439986 113.2585536  59.7777766 -15.5591976
  95.3909992  59.7909978 -12.3749986  94.4659992  59.9989978 -12.5039986
  95.8449992  60.2749978 -13.0649986  95.3256298  59.8849299 -12.4859549
 110.1609992  74.7749978 -10.4289986 110.8139992  74.4269978 -11.0369986
 110.6719992  75.2629978  -9.7829986 110.3192777  74.7933815 -10.4247953
  95.3539992  58.5289978  -4.0309986  94.6889992  58.2829978  -3.3879986
  94.9109992  59.1509978  -4.6079986  95.2031168  58.5794214  -4.0210152
  97.5459992  71.7039978   0.1140014  96.7249992  71.8789978  -0.3469986
  97.2939992  71.6309978   1.0340014  97.3995594  71.7180717   0.1753611
 100.4999992  72.6779978  -3.6279986 100.0759992  73.4879978  -3.9099986
 101.4049992  72.7639978  -3.9299986 100.5642138  72.8004160  -3.7073585
 104.8119992  74.0769978  -0.6679986 104.9959992  73.7439978   0.2100014
 105.6579992  74.3869978  -0.9899986 104.9516484  74.0732979  -0.5912383
 107.1569992  75.3629978  -1.4239986 107.8339992  74.7299978  -1.6639986
 107.4779992  75.7639978  -0.6169986 107.2931323  75.3305691  -1.3476842
 112.0739992  57.9529978  -2.3449986 111.2609992  58.2779978  -2.7319986
 112.3069992  57.1919978  -2.8779986 111.9941347  57.8946880  -2.4700159
  97.9019992  75.9349978  -3.5799986  97.1819992  76.3749978  -4.0309986
  97.5369992  75.6839978  -2.7319986  97.7539643  75.9613369  -3.5270871
 100.3689992  75.5349978  -4.5499986  99.5049992  75.6069978  -4.1459986
 100.3139992  76.0819978  -5.3339986 100.2431942  75.6187849  -4.6006000
 105.0799992  75.4229978  -5.3749986 104.6229992  75.9519978  -6.0289986
 105.2429992  76.0259978  -4.6499986 105.0394960  75.5769280  -5.3664726
 107.4079992  74.3009978  -4.4299986 106.5029992  74.4659978  -4.6959986
 107.8359992  75.1539978  -4.4959986 107.3421537  74.4389134  -4.4752905
 110.0119992  75.8709978  -4.1349986 109.8299992  76.7869978  -4.3459986
 110.1889992  75.4599978  -4.9819986 110.0110030  75.9408273  -4.2782834
  97.3169992  74.5579978  -6.6699986  97.2989992  74.1319978  -5.8129986
  98.1219992  74.2389978  -7.0789986  97.4232875  74.4566435  -6.6080485
  99.4579992  73.2679978  -8.0149986  99.2389992  72.3509978  -7.8449986
 100.2819992  73.4079978  -7.5489986  99.5394702  73.1615511  -7.9287473
 101.9949992  73.7379978  -7.1659986 102.2079992  72.8499978  -7.4529986
 102.0599992  73.7029978  -6.2119986 102.0329149  73.6118326  -7.0762631
 105.5039992  59.4019978  -8.0219986 104.8299992  58.7719978  -7.7659986
 106.0679992  58.9179978  -8.6249986 105.4880384  59.2503708  -8.0684980
 110.6469992  57.5089978  -7.9089986 111.2499992  58.0569978  -8.4109986
 109.7769992  57.8279978  -8.1499986 110.6119157  57.6270373  -8.0102090
 112.3739992  58.6479978  -9.5759986 112.9849992  58.1339978 -10.1029986
 112.7559992  59.5249978  -9.5529986 112.5093305  58.6962050  -9.6450582
  97.8309992  58.0359978 -10.1999986  97.0539992  57.8009978 -10.7069986
  98.3609992  57.2389978 -10.1909986  97.7963451  57.8961268 -10.2681373
  96.6669992  57.8339978 -14.3959986  97.1059992  58.4449978 -14.9879986
  96.0329992  58.3719978 -13.9219986  96.6413859  57.9904064 -14.4129695
 102.4099992  57.9619978 -10.3869986 103.2839992  58.3509978 -10.4159986
 102.2739992  57.7469978  -9.4639986 102.5111953  57.9861643 -10.2662383
 107.9669992  57.9919978  -8.7369986 108.0429992  58.0879978  -9.6869986
 107.6919992  57.0849978  -8.6089986 107.9401871  57.8824146  -8.8496056
 109.3199992  58.0179978 -13.0449986 108.6169992  58.6329978 -13.2549986
 108.8749992  57.1809978 -12.9139986 109.1636550  57.9889668 -13.0560163
  96.5679992  73.7819978 -13.4989986  95.8829992  73.7439978 -14.1659986
  96.5719992  74.6949978 -13.2109986  96.4747621  73.9001924 -13.5513874
  98.5279992  59.7499978 -15.9539986  99.0189992  59.1199978 -16.4809986
  99.1509992  60.0459978 -15.2909986  98.6795304  59.7037376 -15.9365060
 103.5539992  60.0429978 -13.4969986 103.7319992  59.3959978 -12.8139986
 103.4999992  60.8769978 -13.0299986 103.5710678  60.0671604 -13.3403699
 105.4319992  74.9909978 -15.1009986 106.2979992  75.3579978 -15.2789986
 105.1859992  74.5519978 -15.9149986 105.5172097  74.9818525 -15.2353981
 112.1409992  74.5539978 -12.4219986 111.9469992  73.8059978 -12.9869986
 112.1019992  75.3119978 -13.0049986 112.1091645  74.5540786 -12.5781852
  97.7879992  58.5499978  -0.6819986  97.4219992  57.7839978  -0.2399986
  98.7009992  58.5789978  -0.3959986  97.8613172  58.4490324  -0.5828110
  99.7609992  57.8999978   0.8530014 100.6599992  57.6259978   0.6690014
  99.3749992  57.1579978   1.3180014  99.8317307  57.7622196   0.8907098
  98.3859992  74.7019978 -16.4739986  98.1179992  74.9879978 -15.5999986
  99.1569992  74.1559978 -16.3209986  98.4535927  74.6672779 -16.3338795
 108.1829992  57.2329978   1.0360014 108.2589992  56.8069978   1.8890014
 109.0759992  57.2459978   0.6930014 108.3142303  57.1763493   1.1065497
 111.3589992  73.3059978  -0.2719986 110.5769992  73.1189978  -0.7919986
 111.2869992  74.2349978  -0.0549986 111.2421924  73.4060637  -0.3138398
 125.7649992  67.1919978 -10.2409986 125.8539992  68.1359978 -10.3729986
 125.1269992  66.9169978 -10.8989986 125.6909062  67.2839812 -10.3480359
 124.6979992  66.4469978  -6.8219986 124.6599992  65.8009978  -6.1169986
 124.3759992  65.9799978  -7.5929986 124.6492679  66.2954276  -6.8297079
 117.0659992  66.0609978  -5.2289986 117.1079992  65.4359978  -4.5059986
 117.7689992  66.6849978  -5.0469986 117.1667345  66.0597873  -5.1054726
 128.4039992  69.3859978  -8.5209986 127.9629992  68.6659978  -8.0699986
 128.3909992  70.1069978  -7.8909986 128.3419215  69.3849291  -8.3741895
 117.9899992  70.5109978  -6.6939986 117.6199992  69.7089978  -7.0639986
 118.9309992  70.3429978  -6.6479986 118.0665984  70.3784638  -6.7384397
 114.5999992  64.1709978 -11.3019986 114.1519992  65.0169978 -11.3199986
 114.0389992  63.5919978 -11.8169986 114.4628546  64.2083993 -11.3741109
 115.3099992  66.3329978  -9.1759986 115.5239992  65.5629978  -8.6479986
 116.0479992  66.4229978  -9.7789986 115.4390200  66.2398587  -9.1852965
 125.5159992  74.4899978  -8.3089986 126.1349992  73.8139978  -8.5819986
 125.3069992  74.2719978  -7.3999986 125.5726056  74.3678869  -8.2236033
 123.0869992  68.8789978  -6.4159986 123.3909992  68.1929978  -7.0109986
 123.8089992  68.9979978  -5.7979986 123.2261240  68.8012314  -6.4139041
 131.7499992  60.4809978  -5.5559986 131.7999992  61.0909978  -4.8199986
 132.1759992  60.9419978  -6.2789986 131.8144108  60.6267709  -5.5529888
 126.2279992  63.2729978  -6.0889986 126.3709992  62.3269978  -6.0689986
 126.1219992  63.4799978  -7.0169986 126.2332403  63.1714797  -6.2117761
 119.3829992  61.3749978  -8.8159986 119.4259992  62.2349978  -9.2349986
 118.9249992  60.8229978  -9.4499986 119.3269871  61.4179245  -8.9589239
 127.1049992  61.5059978 -10.4149986 127.7519992  61.1769978  -9.7909986
 127.6149992  62.0229978 -11.0379986 127.2624351  61.5309067 -10.4138963
 116.0029992  63.7719978  -8.0539986 116.6569992  63.2219978  -7.6219986
 116.0269992  63.4979978  -8.9709986 116.0957199  63.6597167  -8.1188332
 121.1599992  65.3219978  -8.8389986 121.7759992  64.7949978  -8.3299986
 120.5729992  64.6819978  -9.2429986 121.1650154  65.1633954  -8.8239055
 132.1419992  61.9589978  -3.3199986 131.4529992  62.6169978  -3.4149986
 132.1569992  61.7609978  -2.3829986 132.0497756  62.0222603  -3.2064188
 118.1929992  60.2929978  -4.7419986 117.9739992  60.8229978  -5.5089986
 117.5249992  60.5189978  -4.0949986 118.0726975  60.3960967  -4.7594860
 125.5619992  69.7929978 -11.1979986 125.2669992  69.4699978 -12.0499986
 125.2379992  70.6929978 -11.1569986 125.4778460  69.8704464 -11.3090286
 120.7619992  67.9679978  -4.4549986 120.0219992  68.5669978  -4.3509986
 121.4759992  68.5219978  -4.7699986 120.7573500  68.1247829  -4.4833629
 128.8689992  60.7969978  -8.4349986 128.6539992  60.0309978  -7.9019986
 129.5249992  61.2689978  -7.9219986 128.9282673  60.7560728  -8.2928010
 117.7869992  62.1849978  -6.7899986 118.4009992  62.8179978  -6.4169986
 118.2989992  61.7129978  -7.4459986 117.9401962  62.2077249  -6.8277065
 119.1699992  69.9329978  -3.6679986 119.1639992  70.8119978  -4.0459986
 118.3159992  69.8489978  -3.2429986 119.0537925  70.0419535  -3.6623113
 115.2909992  69.6039978 -12.8859986 115.0189992  69.8329978 -13.7739986
 115.3359992  70.4409978 -12.4249986 115.2598097  69.7486163 -12.9453317
 128.9159992  71.2249978  -6.1729986 127.9739992  71.2839978  -6.0109986
 129.1919992  72.1309978  -6.3099986 128.8245865  71.3555288  -6.1693808
 129.2159992  59.5119978  -4.7559986 128.4799992  60.1219978  -4.7929986
 129.8999992  59.9269978  -5.2819986 129.2075367  59.6517551  -4.8321826
 122.2199992  57.5979978  -7.2899986 122.1019992  56.6499978  -7.3439986
 121.3649992  57.9309978  -7.0169986 122.0882805  57.5132202  -7.2604921
 127.1679992  73.0059978  -9.5479986 127.5929992  72.2989978 -10.0329986
 127.4849992  73.8079978  -9.9649986 127.2690266  73.0175190  -9.6707521
 128.3279992  70.9069978 -11.0389986 128.0699992  70.2169978 -11.6509986
 128.3989992  70.4639978 -10.1939986 128.3023050  70.7526814 -11.0084379
 130.0139992  69.4739978  -2.5619986 130.1529992  68.8819978  -3.3009986
 130.1809992  70.3469978  -2.9179986 130.0556193  69.5108896  -2.7113789
 124.4859992  66.4359978 -12.7889986 123.7749992  66.9709978 -13.1409986
 125.1769992  66.4909978 -13.4489986 124.4820751  66.5166777 -12.9264142
 124.5399992  64.8929978 -15.7509986 125.2409992  64.9159978 -15.0989986
 124.8419992  64.2649978 -16.4069986 124.6768202  64.8112212 -15.7504391
 131.8549992  65.8139978  -4.4959986 131.2029992  66.5079978  -4.4069986
 132.3209992  66.0239978  -5.3059986 131.8285937  65.9375019  -4.5932467
 127.8919992  66.6449978 -11.8379986 127.1599992  66.8739978 -11.2639986
 128.3389992  65.9319978 -11.3829986 127.8523963  66.5798729 -11.6980055
 127.7889992  64.8199978  -2.7699986 127.8689992  65.5829978  -2.1979986
 127.1879992  65.0989978  -3.4599986 127.7186547  64.9622457  -2.7849953
 119.5369992  67.2759978  -9.9549986 119.2069992  66.9049978 -10.7729986
 120.1259992  66.6049978  -9.6079986 119.5713970  67.1346063 -10.0200596
 120.9039992  70.7039978  -7.2739986 120.8089992  70.1249978  -8.0299986
 121.6329992  70.3329978  -6.7779986 120.9896011  70.5745561  -7.3103972
 119.9039992  66.0439978  -6.3219986 120.4689992  66.1659978  -7.0839986
 120.2229992  66.6819978  -5.6829986 120.0244166  66.1468791  -6.3399652
 126.2129992  71.5479978  -5.5879986 125.9729992  72.2099978  -4.9399986
 126.0149992  70.7129978  -5.1629986 126.1533826  71.5258115  -5.4418434
 120.7839992  70.4439978  -1.6039986 120.4729992  71.2259978  -1.1489986
 120.1339992  70.2909978  -2.2899986 120.6535538  70.5304087  -1.6344102
 126.7629992  65.8079978 -14.1519986 127.3419992  65.9579978 -13.4059986
 127.1769992  66.2779978 -14.8759986 126.8983358  65.8920954 -14.1476047
 117.7039992  66.6419978  -2.3759986 117.7739992  67.2929978  -1.6769986
 116.8129992  66.7449978  -2.7109986 117.5931690  66.7449249  -2.3256957
 124.4889992  72.5439978 -10.7169986 124.9629992  72.8399978  -9.9399986
 123.9259992  73.2829978 -10.9499986 124.4777890  72.6843036 -10.6421899
 119.0229992  72.5149978  -0.8409986 119.0309992  72.3789978  -1.7879986
 118.1069992  72.3979978  -0.5889986 118.9002528  72.4805463  -0.9366757
 130.4619992  57.5579978 -14.3389986 129.5619992  57.6969978 -14.0439986
 130.7139992  58.3889978 -14.7409986 130.3728683  57.6894055 -14.3529768
 118.5279992  66.3449978 -12.3659986 118.2359992  67.1129978 -12.8569986
 117.8529992  65.6859978 -12.5289986 118.3968497  66.3609745 -12.4551740
 131.6509992  71.9239978 -15.9629986 131.7239992  72.8629978 -15.7929986
 132.5559992  71.6189978 -16.0189986 131.7834170  72.0113282 -15.9472937
 114.6209992  68.7079978  -3.5509986 114.1189992  68.6799978  -4.3659986
 114.6259992  67.8029978  -3.2409986 114.5529832  68.5817486  -3.6205879
 114.3709992  71.4889978  -6.6669986 115.3169992  71.3439978  -6.6859986
 114.2579992  72.2729978  -6.1299986 114.4853578  71.5751697  -6.5969683
 132.5689992  72.1549978  -0.9839986 132.5189992  71.1989978  -1.0219986
 131.7419992  72.4219978  -0.5829986 132.4503831  72.0604680  -0.9349879
 123.5469992  71.7289978  -2.1079986 123.6349992  72.5549978  -1.6329986
 122.6839992  71.3989978  -1.8589986 123.4423357  71.7975468  -2.0092347
 123.9619992  75.5009978 -12.3019986 123.8859992  75.3799978 -13.2489986
 123.9939992  76.4499978 -12.1839986 123.9559380  75.6127677 -12.4154819
 117.6149992  74.2899978 -10.5209986 117.7669992  73.9419978  -9.6429986
 116.7639992  73.9329978 -10.7769986 117.5208344  74.1940879 -10.4353132
 127.0629992  74.6549978 -15.2999986 127.4379992  73.9109978 -15.7709986
 127.0679992  74.3849978 -14.3819986 127.1150098  74.5166392 -15.2403371
 126.7319992  74.5809978 -12.5509986 125.7969992  74.6809978 -12.3719986
 127.0119992  73.8709978 -11.9719986 126.6419471  74.4987933 -12.4483305
 129.7209992  63.6479978  -0.5039986 129.3129992  64.1279978  -1.2249986
 129.7609992  62.7419978  -0.8119986 129.6706221  63.5912449  -0.6441733
 116.8699992  70.0319978  -2.5079986 117.0859992  69.6699978  -1.6479986
 116.0139992  69.6569978  -2.7169986 116.7838810  69.9318837  -2.4187320
 119.4879992  58.5019978  -6.5119986 118.6269992  58.4149978  -6.9199986
 119.4659992  59.3579978  -6.0839986 119.3670491  58.6058003  -6.5100418
 124.1509992  58.2239978  -3.1369986 124.5709992  57.8089978  -2.3839986
 123.2179992  58.0449978  -3.0199986 124.0823736  58.1429910  -3.0181032
 127.4779992  61.9789978  -2.2839986 126.9639992  61.8539978  -1.4859986
 127.3219992  62.8919978  -2.5279986 127.3866967  62.0852123  -2.2079063
 128.2399992  66.8399978 -16.5229986 128.2819992  66.6179978 -17.4529986
 129.0889992  67.2389978 -16.3329986 128.3605253  66.8635498 -16.6246178
 123.8129992  60.7159978 -15.8519986 123.5589992  60.7349978 -14.9299986
 123.5559992  59.8449978 -16.1539986 123.7434508  60.6008280 -15.7665197
 119.5789992  63.4669978  -5.4169986 118.9379992  63.4269978  -4.7079986
 119.6169992  64.3939978  -5.6549986 119.4963010  63.5867668  -5.3520054
 119.5759992  63.6879978 -10.5049986 118.6839992  63.3479978 -10.5639986
 120.0269992  63.3109978 -11.2609986 119.5147642  63.5904910 -10.6152274
 125.1119992  64.1039978 -11.6879986 124.7029992  64.9189978 -11.9799986
 125.8319992  63.9639978 -12.3019986 125.1534439  64.1965372 -11.8109885
 124.2139992  64.2799978  -0.1999986 123.6509992  63.5749978   0.1210014
 125.0399992  64.1589978   0.2680014 124.2486674  64.1672165  -0.0928249
 126.1169992  63.5499978  -8.8739986 125.9209992  64.1559978  -9.5889986
 126.2979992  62.7169978  -9.3079986 126.1146584  63.5202513  -9.0305788
 117.3289992  63.7879978  -3.5499986 117.2909992  64.1879978  -2.6809986
 116.8389992  62.9709978  -3.4599986 117.2575330  63.7322674  -3.4188711
 120.6949992  61.1619978 -16.7509986 120.2639992  60.7169978 -16.0219986
 119.9769992  61.5329978 -17.2639986 120.5389176  61.1512051 -16.7205070
 113.9379992  60.9039978  -9.6989986 114.5679992  60.8749978  -8.9799986
 114.3869992  60.4789978 -10.4299986 114.0850835  60.8425660  -9.6992341
 115.2119992  61.6499978 -14.2749986 115.6859992  62.2409978 -14.8599986
 114.4939992  62.1799978 -13.9279986 115.1798640  61.8025511 -14.3082031
 125.3809992  65.1879978  -4.2029986 125.7039992  64.5569978  -4.8459986
 124.9399992  64.6539978  -3.5419986 125.3656379  65.0293468  -4.2017418
 122.1579992  61.1159978  -9.4189986 121.2469992  61.1729978  -9.1299986
 122.6629992  61.0559978  -8.6079986 122.1016873  61.1156826  -9.2698793
 116.9859992  62.7449978 -10.5919986 116.0969992  62.8439978 -10.9319986
 117.2829992  61.9029978 -10.9379986 116.9044177  62.6447687 -10.6853060
 120.6389992  62.7449978 -12.9349986 121.5709992  62.8739978 -12.7569986
 120.4239992  63.4139978 -13.5849986 120.7374472  62.8530806 -12.9985109
 126.5629992  60.3509978  -6.1539986 125.8859992  60.4819978  -5.4909986
 126.0779992  60.1959978  -6.9649986 126.4047405  60.3479947  -6.1727830
 119.3129992  63.9389978 -15.3689986 118.7709992  63.5599978 -16.0599986
 120.1469992  64.1339978 -15.7969986 119.3514390  63.9134079 -15.5215608
 129.8509992  76.0219978   0.1220014 130.0499992  76.4459978  -0.7119986
 130.5059992  76.3659978   0.7290014 129.9668522  76.1266301   0.0897852
 117.4489992  68.4959978  -0.2699986 118.1809992  68.7509978   0.2920014
 116.6679992  68.7009978   0.2460014 117.4436526  68.5585450  -0.1234824
 123.4779992  63.9029978  -7.5319986 124.0419992  63.3569978  -8.0789986
 123.3299992  63.3819978  -6.7429986 123.5353037  63.7576787  -7.5002771
 118.4799992  60.0399978 -11.1129986 118.1629992  59.1369978 -11.1489986
 119.2609992  60.0419978 -11.6659986 118.5422431  59.9167797 -11.1926898
 122.1039992  62.2919978  -5.1179986 121.2689992  62.7459978  -5.0069986
 122.6279992  62.5679978  -4.3659986 122.0606072  62.3913948  -5.0011864
 122.6489992  68.5049978 -13.4329986 121.9039992  67.9969978 -13.7549986
 122.5139992  68.5539978 -12.4869986 122.5288963  68.4421731 -13.3491174
 129.7989992  67.6379978  -4.6459986 130.4399992  68.0939978  -5.1899986
 128.9679992  67.7509978  -5.1089986 129.7745287  67.7156921  -4.7830113
 126.5459992  61.3189978 -15.2339986 125.6079992  61.4299978 -15.3849986
 126.8439992  62.1749978 -14.9269986 126.4576318  61.4500158 -15.2131855
 124.1679992  68.6889978  -2.1959986 123.8219992  68.3069978  -1.3889986
 123.9679992  69.6219978  -2.1249986 124.0935987  68.7629002  -2.0759539
 127.2649992  63.1859978 -13.5729986 128.1569992  63.0479978 -13.2539986
 127.3209992  63.9769978 -14.1099986 127.3947325  63.2739918 -13.6018783
 117.7729992  67.7999978  -7.6629986 118.5179992  67.7969978  -8.2649986
 117.8509992  66.9759978  -7.1819986 117.8853365  67.6882384  -7.6802570
 124.7739992  69.9629978 -14.4079986 124.4789992  70.7899978 -14.0259986
 124.0709992  69.3439978 -14.2109986 124.6386379  69.9924171 -14.3291346
 114.7809992  66.2599978  -2.3479986 115.0039992  65.8419978  -1.5169986
 114.1789992  65.6479978  -2.7709986 114.7301513  66.1199606  -2.2913260
 121.7979992  65.7769978  -0.1349986 121.5019992  65.6119978  -1.0309986
 122.7289992  65.5569978  -0.1459986 121.8834401  65.7246879  -0.2589794
 126.4179992  71.1509978  -2.2459986 125.5179992  71.3339978  -2.5129986
 126.4519992  71.4099978  -1.3249986 126.2993748  71.2110554  -2.1580836
 132.1499992  63.3949978 -13.8779986 131.5949992  62.9989978 -14.5509986
 132.2499992  64.3059978 -14.1559986 132.0876816  63.4639505 -14.0074967
 132.1129992  69.1959978  -1.0409986 131.2619992  69.4339978  -1.4089986
 132.7029992  69.1789978  -1.7939986 132.0763812  69.2262524  -1.1931547
 130.4449992  72.1809978 -13.4129986 130.0719992  71.3559978 -13.1039986
 130.7219992  71.9979978 -14.3109986 130.4313463  72.0432569 -13.4920475
 127.6049992  66.9889978  -6.3919986 126.6769992  66.7579978  -6.4189986
 128.0559992  66.2119978  -6.7219986 127.5388165  66.8522774  -6.4403210
 120.1479992  71.3179978 -10.2589986 120.6759992  72.0909978 -10.4589986
 119.2679992  71.5419978 -10.5609986 120.1013435  71.4542700 -10.3272690
 115.9029992  66.1799978 -15.6719986 116.5189992  66.8069978 -15.2919986
 115.0409992  66.4959978 -15.3999986 115.8707678  66.3084412 -15.5832791
 121.5759992  68.9809978 -10.6829986 121.3349992  69.9059978 -10.6409986
 120.8349992  68.5219978 -10.2859986 121.4429206  69.0455915 -10.6236231
 122.0899992  73.1299978  -4.3679986 122.4529992  73.9839978  -4.6009986
 122.6219992  72.8379978  -3.6269986 122.2115141  73.2073895  -4.2997903
 120.2589992  74.0019978 -11.1369986 119.3089992  74.1079978 -11.0859986
 120.6109992  74.8229978 -10.7929986 120.1765472  74.1274923 -11.0835148
 125.6339992  69.2289978  -4.6669986 125.2089992  69.0009978  -3.8409986
 126.2149992  68.4899978  -4.8489986 125.6543395  69.0979545  -4.5785586
 127.8369992  70.1579978 -15.5929986 128.1909992  69.7779978 -14.7889986
 126.8889992  70.0639978 -15.5059986 127.7572298  70.0932452 -15.4711313
 128.2929992  73.7809978  -2.1979986 127.6909992  73.2249978  -2.6929986
 128.5739992  74.4479978  -2.8239986 128.2485757  73.7950744  -2.3504325
 132.3409992  74.6369978 -15.3919986 133.0849992  75.2229978 -15.5319986
 131.6469992  75.2059978 -15.0589986 132.3489809  74.7940818 -15.3661410
 116.4149992  61.0139978  -2.7899986 115.5229992  61.3519978  -2.8579986
 116.3169992  60.1579978  -2.3719986 116.2794475  60.9446543  -2.7428296
 128.7029992  68.8299978 -13.3659986 128.4259992  68.1019978 -12.8099986
 129.6309992  68.9489978 -13.1609986 128.7904499  68.7464213 -13.2621956
 116.0669992  72.8179978  -4.3549986 116.2839992  71.8859978  -4.3859986
 116.3129992  73.0929978  -3.4719986 116.1299809  72.7275686  -4.2398309
 120.8649992  70.8399978 -14.6899986 121.0119992  70.3199978 -13.8999986
 120.8619992  71.7469978 -14.3829986 120.8847102  70.8913953 -14.5404075
 117.3179992  68.0919978 -14.1789986 116.6319992  68.4449978 -13.6119986
 117.8409992  68.8549978 -14.4259986 117.2948402  68.2433901 -14.1348199
 125.1499992  60.7549978  -3.8999986 125.8489992  60.8289978  -3.2499986
 124.7689992  59.8899978  -3.7459986 125.1942097  60.6482389  -3.7902003
 125.9339992  60.4069978 -12.8029986 126.1539992  60.8779978 -13.6069986
 126.4929992  60.8009978 -12.1329986 126.0396731  60.5247287 -12.8224967
 123.6029992  72.5369978 -13.9399986 122.7859992  73.0339978 -13.8879986
 124.1319992  73.0129978 -14.5809986 123.5628125  72.6691989 -14.0194694
 123.1339992  62.1349978 -11.9679986 123.9459992  62.6389978 -11.9219986
 122.8899992  61.9899978 -11.0539986 123.2121467  62.1843749 -11.8381425
 123.6699992  63.1209978  -2.7839986 123.7889992  63.6949978  -2.0269986
 124.3249992  62.4329978  -2.6689986 123.7748684  63.1065194  -2.6648326
 124.0179992  59.2159978 -11.0299986 123.6709992  59.8329978 -10.3859986
 124.6769992  59.7169978 -11.5119986 124.0595090  59.3681575 -11.0069319
 120.9409992  73.5809978 -13.9589986 121.1019992  74.3809978 -14.4589986
 120.7439992  73.8879978 -13.0739986 120.9363906  73.7318678 -13.9077667
 119.6759992  60.2789978 -14.3429986 119.5919992  61.1669978 -13.9959986
 120.5659992  60.0139978 -14.1109986 119.7848163  60.3647179 -14.2641404
 129.8739992  61.0279978  -1.9489986 128.9579992  61.2899978  -2.0359986
 130.2099992  61.0249978  -2.8449986 129.7938499  61.0635163  -2.0821234
 128.4769992  64.7779978  -7.8529986 127.6789992  64.3629978  -8.1809986
 128.9219992  64.0879978  -7.3619986 128.4279684  64.6278628  -7.8314773
 117.9339992  70.7059978 -15.2829986 118.5259992  71.4059978 -15.0059986
 118.3929992  70.2729978 -16.0019986 118.0771652  70.7432675 -15.3423467
 116.2499992  63.3709978 -16.1669986 116.2049992  64.3099978 -15.9879986
 115.3619992  63.1349978 -16.4359986 116.1238166  63.4676687 -16.1788476
 129.5629992  74.0339978  -6.2309986 129.4069992  74.7129978  -6.8879986
 130.4959992  74.1059978  -6.0279986 129.6677387  74.1366390  -6.2934658
 117.0579992  58.1519978  -7.4929986 116.8289992  58.2109978  -8.4209986
 116.6159992  57.3609978  -7.1869986 116.9668801  58.0530540  -7.5785271
 115.9889992  72.0929978 -11.3329986 115.1559992  72.5649978 -11.3059986
 116.5339992  72.6029978 -11.9319986 115.9487857  72.2264791 -11.4102858
 115.2769992  74.7049978  -0.0029986 115.8169992  74.4889978   0.7570014
 114.7959992  73.8999978  -0.1929986 115.2859219  74.5665156   0.0754282
 119.8739992  73.6249978   1.6170014 120.6419992  73.1659978   1.9580014
 119.8529992  73.3989978   0.6870014 119.9762135  73.5316668   1.5379491
 123.9659992  73.1329978 -17.0069986 123.3219992  72.5019978 -16.6859986
 124.7279992  72.6019978 -17.2389986 123.9808058  72.9747902 -16.9943962
 126.4509992  72.0049978   0.3460014 126.0999992  71.1479978   0.5900014
 127.1769992  72.1469978   0.9530014 126.5011895  71.9071351   0.4613770
 128.5709992  72.9499978 -16.7739986 128.8539992  72.1549978 -16.3209986
 129.3099992  73.1829978 -17.3349986 128.7097096  72.8727049 -16.7878896
 115.1839992  68.5159978   0.9510014 115.3279992  67.6139978   0.6650014
 114.4119992  68.8019978   0.4640014 115.0992733  68.4311798   0.8459532
 119.5249992  68.8589978 -16.9159986 119.5899992  68.0649978 -16.3859986
 120.1779992  68.7409978 -17.6059986 119.6221605  68.7343430 -16.9367003
 121.8389992  68.4849978   0.3840014 121.5109992  68.7559978  -0.4729986
 121.9909992  67.5439978   0.2960014 121.8146412  68.3949046   0.2547822
 127.5739992  68.4009978  -2.2329986 128.3189992  68.9899978  -2.3519986
 126.8169992  68.9829978  -2.1689986 127.5735470  68.5602128  -2.2406201
 116.0169992  65.7159978   0.3710014 116.4249992  64.8589978   0.2500014
 115.7559992  65.7299978   1.2920014 116.0376016  65.6005119   0.4789192
 120.6749992  66.8319978 -14.6099986 120.2149992  66.3479978 -13.9249986
 120.9299992  66.1629978 -15.2459986 120.6464856  66.6753669 -14.6021603
 119.9639992  64.7249978  -2.2539986 119.3449992  65.3989978  -1.9739986
 120.3079992  65.0459978  -3.0879986 119.9257123  64.8606887  -2.3283612
 121.7459992  65.0749978 -16.3479986 121.5649992  64.9199978 -17.2749986
 122.6959992  65.1829978 -16.3029986 121.8496566  65.0683669 -16.4689071
 124.9829992  67.1959978   1.0230014 125.9369992  67.2799978   0.9960014
 124.8229992  66.4839978   1.6430014 125.0917182  67.1112842   1.1030733
 131.1359992  67.4289978 -16.9019986 130.8619992  67.0049978 -17.7149986
 131.1749992  68.3609978 -17.1189986 131.1037716  67.4968827 -17.0425714
 120.3029992  62.0799978  -1.1719986 120.4529992  61.3509978  -1.7739986
 120.3049992  62.8569978  -1.7309986 120.3237967  62.0852708  -1.3299459
 120.7159992  60.4489978  -3.6789986 121.2509992  60.9009978  -4.3309986
 119.8629992  60.3409978  -4.1019986 120.6740374  60.4962665  -3.8253290
 122.2969992  65.8889978  -3.4399986 123.0479992  65.7329978  -4.0129986
 121.9579992  66.7409978  -3.7149986 122.3539587  65.9828138  -3.5555922
 126.7129992  63.7039978   1.5890014 126.9049992  62.7729978   1.4770014
 127.5709992  64.1289978   1.5780014 126.8552182  63.6340070   1.5721862
 128.0299992  66.4929978  -0.3339986 127.7479992  67.2019978  -0.9119986
 128.9719992  66.4199978  -0.4849986 128.1187921  66.5802193  -0.4335775
 118.7819992  63.2779978   0.7390014 118.0139992  62.7449978   0.5290014
 119.4599992  62.9679978   0.1400014 118.7687235  63.1631754   0.6292413
 121.5209992  57.9059978  -3.2479986 121.4229992  58.8519978  -3.3529986
 120.7789992  57.5329978  -3.7239986 121.4072534  57.9851773  -3.3267400
 122.7849992  62.2269978   0.3160014 122.5499992  62.0079978   1.2170014
 122.0019992  62.0199978  -0.1939986 122.6469095  62.1689892   0.3705353
 125.5009992  61.3549978  -0.6089986 124.5529992  61.3869978  -0.4769986
 125.8129992  60.7289978   0.0450014 125.4135293  61.2747923  -0.5025852
 127.1349992  59.9889978   1.3960014 127.0379992  59.0369978   1.3910014
 126.8129992  60.2569978   2.2570014 127.0782468  59.8950884   1.5116210
 116.9619992  61.1979978   0.4440014 117.1739992  60.4919978  -0.1659986
 116.8509992  60.7609978   1.2880014 116.9760269  61.0421921   0.4745873
 121.7429992  57.1999978  -0.5769986 122.4549992  56.5599978  -0.5909986
 121.6419992  57.4659978  -1.4899986 121.8267387  57.1484330  -0.7024437
 122.0969992  58.8819978   1.4770014 121.9649992  58.4069978   0.6570014
 121.4969992  59.6269978   1.4220014 121.9979070  58.9175789   1.3573251
 121.6429992  75.7649978 -15.3469986 122.5759992  75.9229978 -15.2029986
 121.3789992  76.4409978 -15.9719986 121.7349911  75.8779373 -15.4117278
 115.2109992  70.4019978 -15.8639986 116.1249992  70.4809978 -15.5909986
 115.2189992  69.7149978 -16.5299986 115.3370655  70.3199205 -15.9167083
 113.8599992  75.7949978 -10.7869986 113.2129992  75.3329978 -11.3189986
 114.2149992  75.1229978 -10.2039986 113.8193741  75.6409774 -10.7810825
 114.7299992  73.8749978  -8.9819986 114.3959992  72.9949978  -8.8099986
 114.9529992  74.2209978  -8.1169986 114.7143721  73.8011938  -8.8415832
 132.2789992  74.6849978  -6.0009986 132.2569992  74.8699978  -5.0619986
 132.9689992  75.2529978  -6.3419986 132.3693439  74.7871887  -5.9185209
 131.8419992  74.2519978  -3.0799986 131.3549992  73.5169978  -3.4509986
 132.3909992  73.8579978  -2.4019986 131.8495247  74.0981057  -3.0391539
 130.2929992  70.0419978   1.5590014 129.4269992  69.9369978   1.9530014
 130.6689992  70.7999978   2.0050014 130.2253401  70.1301708   1.6732620
 131.5939992  68.2979978 -12.9269986 132.4439992  68.7189978 -12.7999986
 131.5989992  67.5579978 -12.3199986 131.7111143  68.2556094 -12.8275250
 131.9879992  66.3519978 -11.1039986 131.2619992  65.8719978 -10.7059986
 132.5699992  66.5569978 -10.3709986 131.9672730  66.3140184 -10.9505851
 131.7469992  69.1369978  -6.1559986 132.5809992  68.7589978  -6.4369986
 131.8589992  70.0799978  -6.2749986 131.8761917  69.2127943  -6.2105139
 130.2339992  72.0149978  -3.8489986 129.5859992  72.3399978  -3.2239986
 129.7159992  71.5739978  -4.5229986 130.0754196  71.9998651  -3.8545848
 132.2569992  66.2529978 -14.7129986 131.7349992  66.6089978 -15.4309986
 132.2239992  66.9279978 -14.0339986 132.1810129  66.3929598 -14.7196645
 130.6059992  63.4919978 -16.1619986 130.7019992  64.1589978 -16.8419986
 130.4659992  62.6769978 -16.6429986 130.6002040  63.4730671 -16.3201622
 129.7749992  64.8729978 -10.5409986 129.6249992  63.9279978 -10.5609986
 129.4209992  65.1539978  -9.6969986 129.7066351  64.7816644 -10.4296780
 114.8099992  66.9509978  -6.5299986 114.9949992  66.8689978  -7.4659986
 115.6599992  66.8269978  -6.1069986 114.9500928  66.9230463  -6.6007107
 130.6309992  66.8429978  -0.9019986 131.2139992  66.1079978  -0.7099986
 131.1949992  67.6149978  -0.8549986 130.7869781  66.8468145  -0.8693836
 132.1279992  64.7459978  -0.2169986 131.2649992  64.3669978  -0.3829986
 132.7319992  64.0069978  -0.2919986 132.0916085  64.5943223  -0.2498305
 129.8529992  60.8999978 -17.0439986 130.4639992  60.5289978 -16.4069986
 129.0159992  60.4789978 -16.8479986 129.8234947  60.7922756 -16.9302748
 129.4859992  62.4549978 -12.0779986 129.7649992  61.5479978 -11.9539986
 130.2449992  62.8889978 -12.4669986 129.6268619  62.3894502 -12.1136205
 130.0969992  63.0369978  -6.6419986 131.0299992  63.2489978  -6.6769986
 129.8619992  63.1379978  -5.7199986 130.1929517  63.0796833  -6.5220870
 130.1269992  63.7739978  -3.8659986 129.2839992  64.0419978  -3.4999986
 130.5689992  64.5959978  -4.0769986 130.0714138  63.9218273  -3.8444482
 114.4079992  62.2209978  -0.3899986 115.3269992  62.0989978  -0.1529986
 113.9579992  61.4709978   0.0000014 114.4730087  62.1029608  -0.3048590
 132.4099992  57.7539978   1.4870014 132.7589992  57.0999978   0.8820014
 132.5569992  58.5909978   1.0470014 132.4776824  57.7776024   1.3446304
 130.0989992  59.7179978 -12.0299986 130.2809992  59.2689978 -11.2049986
 129.4989992  59.1339978 -12.4939986 130.0428187  59.5775552 -11.9797261
 115.6289992  60.5339978  -7.4979986 116.0739992  59.7419978  -7.1959986
 116.0949992  61.2499978  -7.0679986 115.7529718  60.5224534  -7.3984735
 113.9329992  63.5329978  -6.4289986 114.4249992  63.3119978  -7.2199986
 114.2949992  64.3729978  -6.1479986 114.0492923  63.6163468  -6.4992593
 131.9289992  59.8629978  -0.1639986 131.0119992  60.1339978  -0.1989986
 132.0519992  59.3279978  -0.9479986 131.8199672  59.8277885  -0.2748138
 131.9659992  59.7859978 -15.5019986 132.3779992  59.0649978 -15.9769986
 132.6469992  60.4549978 -15.4439986 132.1145536  59.7777766 -15.5591976
 114.2469992  59.7909978 -12.3749986 113.3219992  59.9989978 -12.5039986
 114.7009992  60.2749978 -13.0649986 114.1816298  59.8849299 -12.4859549
 129.0169992  74.7749978 -10.4289986 129.6699992  74.4269978 -11.0369986
 129.5279992  75.2629978  -9.7829986 129.1752777  74.7933815 -10.4247953
 114.2099992  58.5289978  -4.0309986 113.5449992  58.2829978  -3.3879986
 113.7669992  59.1509978  -4.6079986 114.0591168  58.5794214  -4.0210152
 116.4019992  71.7039978   0.1140014 115.5809992  71.8789978  -0.3469986
 116.1499992  71.6309978   1.0340014 116.2555594  71.7180717   0.1753611
 119.3559992  72.6779978  -3.6279986 118.9319992  73.4879978  -3.9099986
 120.2609992  72.7639978  -3.9299986 119.4202138  72.8004160  -3.7073585
 123.6679992  74.0769978  -0.6679986 123.8519992  73.7439978   0.2100014
 124.5139992  74.3869978  -0.9899986 123.8076484  74.0732979  -0.5912383
 126.0129992  75.3629978  -1.4239986 126.6899992  74.7299978  -1.6639986
 126.3339992  75.7639978  -0.6169986 126.1491323  75.3305691  -1.3476842
 130.9299992  57.9529978  -2.3449986 130.1169992  58.2779978  -2.7319986
 131.1629992  57.1919978  -2.8779986 130.8501347  57.8946880  -2.4700159
 116.7579992  75.9349978  -3.5799986 116.0379992  76.3749978  -4.0309986
 116.3929992  75.6839978  -2.7319986 116.6099643  75.9613369  -3.5270871
 119.2249992  75.5349978  -4.5499986 118.3609992  75.6069978  -4.1459986
 119.1699992  76.0819978  -5.3339986 119.0991942  75.6187849  -4.6006000
 123.9359992  75.4229978  -5.3749986 123.4789992  75.9519978  -6.0289986
 124.0989992  76.0259978  -4.6499986 123.8954960  75.5769280  -5.3664726
 126.2639992  74.3009978  -4.4299986 125.3589992  74.4659978  -4.6959986
 126.6919992  75.1539978  -4.4959986 126.1981537  74.4389134  -4.4752905
 128.8679992  75.8709978  -4.1349986 128.6859992  76.7869978  -4.3459986
 129.0449992  75.4599978  -4.9819986 128.8670030  75.9408273  -4.2782834
 116.1729992  74.5579978  -6.6699986 116.1549992  74.1319978  -5.8129986
 116.9779992  74.2389978  -7.0789986 116.2792875  74.4566435  -6.6080485
 118.3139992  73.2679978  -8.0149986 118.0949992  72.3509978  -7.8449986
 119.1379992  73.4079978  -7.5489986 118.3954702  73.1615511  -7.9287473
 120.8509992  73.7379978  -7.1659986 121.0639992  72.8499978  -7.4529986
 120.9159992  73.7029978  -6.2119986 120.8889149  73.6118326  -7.0762631
 124.3599992  59.4019978  -8.0219986 123.6859992  58.7719978  -7.7659986
 124.9239992  58.9179978  -8.6249986 124.3440384  59.2503708  -8.0684980
 129.5029992  57.5089978  -7.9089986 130.1059992  58.0569978  -8.4109986
 128.6329992  57.8279978  -8.1499986 129.4679157  57.6270373  -8.0102090
 131.2299992  58.6479978  -9.5759986 131.8409992  58.1339978 -10.1029986
 131.6119992  59.5249978  -9.5529986 131.3653305  58.6962050  -9.6450582
 116.6869992  58.0359978 -10.1999986 115.9099992  57.8009978 -10.7069986
 117.2169992  57.2389978 -10.1909986 116.6523451  57.8961268 -10.2681373
 115.5229992  57.8339978 -14.3959986 115.9619992  58.4449978 -14.9879986
 114.8889992  58.3719978 -13.9219986 115.4973859  57.9904064 -14.4129695
 121.2659992  57.9619978 -10.3869986 122.1399992  58.3509978 -10.4159986
 121.1299992  57.7469978  -9.4639986 121.3671953  57.9861643 -10.2662383
 126.8229992  57.9919978  -8.7369986 126.8989992  58.0879978  -9.6869986
 126.5479992  57.0849978  -8.6089986 126.7961871  57.8824146  -8.8496056
 128.1759992  58.0179978 -13.0449986 127.4729992  58.6329978 -13.2549986
 127.7309992  57.1809978 -12.9139986 128.0196550  57.9889668 -13.0560163
 115.4239992  73.7819978 -13.4989986 114.7389992  73.7439978 -14.1659986
 115.4279992  74.6949978 -13.2109986 115.3307621  73.9001924 -13.5513874
 117.3839992  59.7499978 -15.9539986 117.8749992  59.1199978 -16.4809986
 118.0069992  60.0459978 -15.2909986 117.5355304  59.7037376 -15.9365060
 122.4099992  60.0429978 -13.4969986 122.5879992  59.3959978 -12.8139986
 122.3559992  60.8769978 -13.0299986 122.4270678  60.0671604 -13.3403699
 124.2879992  74.9909978 -15.1009986 125.1539992  75.3579978 -15.2789986
 124.0419992  74.5519978 -15.9149986 124.3732097  74.9818525 -15.2353981
 130.9969992  74.5539978 -12.4219986 130.8029992  73.8059978 -12.9869986
 130.9579992  75.3119978 -13.0049986 130.9651645  74.5540786 -12.5781852
 116.6439992  58.5499978  -0.6819986 116.2779992  57.7839978  -0.2399986
 117.5569992  58.5789978  -0.3959986 116.7173172  58.4490324  -0.5828110
 118.6169992  57.8999978   0.8530014 119.5159992  57.6259978   0.6690014
 118.2309992  57.1579978   1.3180014 118.6877307  57.7622196   0.8907098
 117.2419992  74.7019978 -16.4739986 116.9739992  74.9879978 -15.5999986
 118.0129992  74.1559978 -16.3209986 117.3095926  74.6672779 -16.3338795
 127.0389992  57.2329978   1.0360014 127.1149992  56.8069978   1.8890014
 127.9319992  57.2459978   0.6930014 127.1702303  57.1763493   1.1065497
 130.2149992  73.3059978  -0.2719986 129.4329992  73.1189978  -0.7919986
 130.1429992  74.2349978  -0.0549986 130.0981924  73.4060637  -0.3138398
 144.6209992  67.1919978 -10.2409986 144.7099992  68.1359978 -10.3729986
 143.9829992  66.9169978 -10.8989986 144.5469062  67.2839812 -10.3480359
 143.5539992  66.4469978  -6.8219986 143.5159992  65.8009978  -6.1169986
 143.2319992  65.9799978  -7.5929986 143.5052679  66.2954276  -6.8297079
 135.9219992  66.0609978  -5.2289986 135.9639992  65.4359978  -4.5059986
 136.6249992  66.6849978  -5.0469986 136.0227345  66.0597873  -5.1054726
 136.8459992  70.5109978  -6.6939986 136.4759992  69.7089978  -7.0639986
 137.7869992  70.3429978  -6.6479986 136.9225984  70.3784638  -6.7384397
 133.4559992  64.1709978 -11.3019986 133.0079992  65.0169978 -11.3199986
 132.8949992  63.5919978 -11.8169986 133.3188546  64.2083993 -11.3741109
 134.1659992  66.3329978  -9.1759986 134.3799992  65.5629978  -8.6479986
 134.9039992  66.4229978  -9.7789986 134.2950200  66.2398587  -9.1852965
 144.3719992  74.4899978  -8.3089986 144.9909992  73.8139978  -8.5819986
 144.1629992  74.2719978  -7.3999986 144.4286056  74.3678869  -8.2236033
 141.9429992  68.8789978  -6.4159986 142.2469992  68.1929978  -7.0109986
 142.6649992  68.9979978  -5.7979986 142.0821240  68.8012314  -6.4139041
 145.0839992  63.2729978  -6.0889986 145.2269992  62.3269978  -6.0689986
 144.9779992  63.4799978  -7.0169986 145.0892403  63.1714797  -6.2117761
 138.2389992  61.3749978  -8.8159986 138.2819992  62.2349978  -9.2349986
 137.7809992  60.8229978  -9.4499986 138.1829871  61.4179245  -8.9589239
 134.8589992  63.7719978  -8.0539986 135.5129992  63.2219978  -7.6219986
 134.8829992  63.4979978  -8.9709986 134.9517199  63.6597167  -8.1188332
 140.0159992  65.3219978  -8.8389986 140.6319992  64.7949978  -8.3299986
 139.4289992  64.6819978  -9.2429986 140.0210154  65.1633954  -8.8239055
 137.0489992  60.2929978  -4.7419986 136.8299992  60.8229978  -5.5089986
 136.3809992  60.5189978  -4.0949986 136.9286975  60.3960967  -4.7594860
 144.4179992  69.7929978 -11.1979986 144.1229992  69.4699978 -12.0499986
 144.0939992  70.6929978 -11.1569986 144.3338460  69.8704464 -11.3090286
 139.6179992  67.9679978  -4.4549986 138.8779992  68.5669978  -4.3509986
 140.3319992  68.5219978  -4.7699986 139.6133500  68.1247829  -4.4833629
 136.6429992  62.1849978  -6.7899986 137.2569992  62.8179978  -6.4169986
 137.1549992  61.7129978  -7.4459986 136.7961962  62.2077249  -6.8277065
 138.0259992  69.9329978  -3.6679986 138.0199992  70.8119978  -4.0459986
 137.1719992  69.8489978  -3.2429986 137.9097925  70.0419535  -3.6623113
 134.1469992  69.6039978 -12.8859986 133.8749992  69.8329978 -13.7739986
 134.1919992  70.4409978 -12.4249986 134.1158097  69.7486163 -12.9453317
 141.0759992  57.5979978  -7.2899986 140.9579992  56.6499978  -7.3439986
 140.2209992  57.9309978  -7.0169986 140.9442805  57.5132202  -7.2604921
 143.3419992  66.4359978 -12.7889986 142.6309992  66.9709978 -13.1409986
 144.0329992  66.4909978 -13.4489986 143.3380751  66.5166777 -12.9264142
 143.3959992  64.8929978 -15.7509986 144.0969992  64.9159978 -15.0989986
 143.6979992  64.2649978 -16.4069986 143.5328202  64.8112212 -15.7504391
 138.3929992  67.2759978  -9.9549986 138.0629992  66.9049978 -10.7729986
 138.9819992  66.6049978  -9.6079986 138.4273970  67.1346063 -10.0200596
 139.7599992  70.7039978  -7.2739986 139.6649992  70.1249978  -8.0299986
 140.4889992  70.3329978  -6.7779986 139.8456011  70.5745561  -7.3103972
 138.7599992  66.0439978  -6.3219986 139.3249992  66.1659978  -7.0839986
 139.0789992  66.6819978  -5.6829986 138.8804166  66.1468791  -6.3399652
 145.0689992  71.5479978  -5.5879986 144.8289992  72.2099978  -4.9399986
 144.8709992  70.7129978  -5.1629986 145.0093826  71.5258115  -5.4418434
 139.6399992  70.4439978  -1.6039986 139.3289992  71.2259978  -1.1489986
 138.9899992  70.2909978  -2.2899986 139.5095538  70.5304087  -1.6344102
 136.5599992  66.6419978  -2.3759986 136.6299992  67.2929978  -1.6769986
 135.6689992  66.7449978  -2.7109986 136.4491690  66.7449249  -2.3256957
 143.3449992  72.5439978 -10.7169986 143.8189992  72.8399978  -9.9399986
 142.7819992  73.2829978 -10.9499986 143.3337890  72.6843036 -10.6421899
 137.8789992  72.5149978  -0.8409986 137.8869992  72.3789978  -1.7879986
 136.9629992  72.3979978  -0.5889986 137.7562528  72.4805463  -0.9366757
 137.3839992  66.3449978 -12.3659986 137.0919992  67.1129978 -12.8569986
 136.7089992  65.6859978 -12.5289986 137.2528497  66.3609745 -12.4551740
 133.4769992  68.7079978  -3.5509986 132.9749992  68.6799978  -4.3659986
 133.4819992  67.8029978  -3.2409986 133.4089832  68.5817486  -3.6205879
 133.2269992  71.4889978  -6.6669986 134.1729992  71.3439978  -6.6859986
 133.1139992  72.2729978  -6.1299986 133.3413578  71.5751697  -6.5969683
 142.4029992  71.7289978  -2.1079986 142.4909992  72.5549978  -1.6329986
 141.5399992  71.3989978  -1.8589986 142.2983357  71.7975468  -2.0092347
 142.8179992  75.5009978 -12.3019986 142.7419992  75.3799978 -13.2489986
 142.8499992  76.4499978 -12.1839986 142.8119380  75.6127677 -12.4154819
 136.4709992  74.2899978 -10.5209986 136.6229992  73.9419978  -9.6429986
 135.6199992  73.9329978 -10.7769986 136.3768344  74.1940879 -10.4353132
 135.7259992  70.0319978  -2.5079986 135.9419992  69.6699978  -1.6479986
 134.8699992  69.6569978  -2.7169986 135.6398810  69.9318837  -2.4187320
 138.3439992  58.5019978  -6.5119986 137.4829992  58.4149978  -6.9199986
 138.3219992  59.3579978  -6.0839986 138.2230491  58.6058003  -6.5100418
 143.0069992  58.2239978  -3.1369986 143.4269992  57.8089978  -2.3839986
 142.0739992  58.0449978  -3.0199986 142.9383736  58.1429910  -3.0181032
 142.6689992  60.7159978 -15.8519986 142.4149992  60.7349978 -14.9299986
 142.4119992  59.8449978 -16.1539986 142.5994508  60.6008280 -15.7665197
 138.4349992  63.4669978  -5.4169986 137.7939992  63.4269978  -4.7079986
 138.4729992  64.3939978  -5.6549986 138.3523010  63.5867668  -5.3520054
 138.4319992  63.6879978 -10.5049986 137.5399992  63.3479978 -10.5639986
 138.8829992  63.3109978 -11.2609986 138.3707642  63.5904910 -10.6152274
 143.9679992  64.1039978 -11.6879986 143.5589992  64.9189978 -11.9799986
 144.6879992  63.9639978 -12.3019986 144.0094439  64.1965372 -11.8109885
 143.0699992  64.2799978  -0.1999986 142.5069992  63.5749978   0.1210014
 143.8959992  64.1589978   0.2680014 143.1046674  64.1672165  -0.0928249
 144.9729992  63.5499978  -8.8739986 144.7769992  64.1559978  -9.5889986
 145.1539992  62.7169978  -9.3079986 144.9706584  63.5202513  -9.0305788
 136.1849992  63.7879978  -3.5499986 136.1469992  64.1879978  -2.6809986
 135.6949992  62.9709978  -3.4599986 136.1135330  63.7322674  -3.4188711
 139.5509992  61.1619978 -16.7509986 139.1199992  60.7169978 -16.0219986
 138.8329992  61.5329978 -17.2639986 139.3949176  61.1512051 -16.7205070
 132.7939992  60.9039978  -9.6989986 133.4239992  60.8749978  -8.9799986
 133.2429992  60.4789978 -10.4299986 132.9410835  60.8425660  -9.6992341
 134.0679992  61.6499978 -14.2749986 134.5419992  62.2409978 -14.8599986
 133.3499992  62.1799978 -13.9279986 134.0358640  61.8025511 -14.3082031
 144.2369992  65.1879978  -4.2029986 144.5599992  64.5569978  -4.8459986
 143.7959992  64.6539978  -3.5419986 144.2216379  65.0293468  -4.2017418
 141.0139992  61.1159978  -9.4189986 140.1029992  61.1729978  -9.1299986
 141.5189992  61.0559978  -8.6079986 140.9576873  61.1156826  -9.2698793
 135.8419992  62.7449978 -10.5919986 134.9529992  62.8439978 -10.9319986
 136.1389992  61.9029978 -10.9379986 135.7604177  62.6447687 -10.6853060
 139.4949992  62.7449978 -12.9349986 140.4269992  62.8739978 -12.7569986
 139.2799992  63.4139978 -13.5849986 139.5934472  62.8530806 -12.9985109
 145.4189992  60.3509978  -6.1539986 144.7419992  60.4819978  -5.4909986
 144.9339992  60.1959978  -6.9649986 145.2607405  60.3479947  -6.1727830
 138.1689992  63.9389978 -15.3689986 137.6269992  63.5599978 -16.0599986
 139.0029992  64.1339978 -15.7969986 138.2074390  63.9134079 -15.5215608
 136.3049992  68.4959978  -0.2699986 137.0369992  68.7509978   0.2920014
 135.5239992  68.7009978   0.2460014 136.2996526  68.5585450  -0.1234824
 142.3339992  63.9029978  -7.5319986 142.8979992  63.3569978  -8.0789986
 142.1859992  63.3819978  -6.7429986 142.3913037  63.7576787  -7.5002771
 137.3359992  60.0399978 -11.1129986 137.0189992  59.1369978 -11.1489986
 138.1169992  60.0419978 -11.6659986 137.3982431  59.9167797 -11.1926898
 140.9599992  62.2919978  -5.1179986 140.1249992  62.7459978  -5.0069986
 141.4839992  62.5679978  -4.3659986 140.9166072  62.3913948  -5.0011864
 141.5049992  68.5049978 -13.4329986 140.7599992  67.9969978 -13.7549986
 141.3699992  68.5539978 -12.4869986 141.3848963  68.4421731 -13.3491174
 145.4019992  61.3189978 -15.2339986 144.4639992  61.4299978 -15.3849986
 145.6999992  62.1749978 -14.9269986 145.3136318  61.4500158 -15.2131855
 143.0239992  68.6889978  -2.1959986 142.6779992  68.3069978  -1.3889986
 142.8239992  69.6219978  -2.1249986 142.9495987  68.7629002  -2.0759539
 136.6289992  67.7999978  -7.6629986 137.3739992  67.7969978  -8.2649986
 136.7069992  66.9759978  -7.1819986 136.7413365  67.6882384  -7.6802570
 143.6299992  69.9629978 -14.4079986 143.3349992  70.7899978 -14.0259986
 142.9269992  69.3439978 -14.2109986 143.4946379  69.9924171 -14.3291346
 133.6369992  66.2599978  -2.3479986 133.8599992  65.8419978  -1.5169986
 133.0349992  65.6479978  -2.7709986 133.5861513  66.1199606  -2.2913260
 140.6539992  65.7769978  -0.1349986 140.3579992  65.6119978  -1.0309986
 141.5849992  65.5569978  -0.1459986 140.7394401  65.7246879  -0.2589794
 145.2739992  71.1509978  -2.2459986 144.3739992  71.3339978  -2.5129986
 145.3079992  71.4099978  -1.3249986 145.1553748  71.2110554  -2.1580836
 139.0039992  71.3179978 -10.2589986 139.5319992  72.0909978 -10.4589986
 138.1239992  71.5419978 -10.5609986 138.9573435  71.4542700 -10.3272690
 134.7589992  66.1799978 -15.6719986 135.3749992  66.8069978 -15.2919986
 133.8969992  66.4959978 -15.3999986 134.7267678  66.3084412 -15.5832791
 140.4319992  68.9809978 -10.6829986 140.1909992  69.9059978 -10.6409986
 139.6909992  68.5219978 -10.2859986 140.2989206  69.0455915 -10.6236231
 140.9459992  73.1299978  -4.3679986 141.3089992  73.9839978  -4.6009986
 141.4779992  72.8379978  -3.6269986 141.0675141  73.2073895  -4.2997903
 139.1149992  74.0019978 -11.1369986 138.1649992  74.1079978 -11.0859986
 139.4669992  74.8229978 -10.7929986 139.0325472  74.1274923 -11.0835148
 144.4899992  69.2289978  -4.6669986 144.0649992  69.0009978  -3.8409986
 145.0709992  68.4899978  -4.8489986 144.5103395  69.0979545  -4.5785586
 135.2709992  61.0139978  -2.7899986 134.3789992  61.3519978  -2.8579986
 135.1729992  60.1579978  -2.3719986 135.1354475  60.9446543  -2.7428296
 134.9229992  72.8179978  -4.3549986 135.1399992  71.8859978  -4.3859986
 135.1689992  73.0929978  -3.4719986 134.9859809  72.7275686  -4.2398310
 139.7209992  70.8399978 -14.6899986 139.8679992  70.3199978 -13.8999986
 139.7179992  71.7469978 -14.3829986 139.7407102  70.8913953 -14.5404075
 136.1739992  68.0919978 -14.1789986 135.4879992  68.4449978 -13.6119986
 136.6969992  68.8549978 -14.4259986 136.1508402  68.2433901 -14.1348199
 144.0059992  60.7549978  -3.8999986 144.7049992  60.8289978  -3.2499986
 143.6249992  59.8899978  -3.7459986 144.0502097  60.6482389  -3.7902003
 144.7899992  60.4069978 -12.8029986 145.0099992  60.8779978 -13.6069986
 145.3489992  60.8009978 -12.1329986 144.8956731  60.5247287 -12.8224967
 142.4589992  72.5369978 -13.9399986 141.6419992  73.0339978 -13.8879986
 142.9879992  73.0129978 -14.5809986 142.4188125  72.6691989 -14.0194694
 141.9899992  62.1349978 -11.9679986 142.8019992  62.6389978 -11.9219986
 141.7459992  61.9899978 -11.0539986 142.0681467  62.1843749 -11.8381425
 142.5259992  63.1209978  -2.7839986 142.6449992  63.6949978  -2.0269986
 143.1809992  62.4329978  -2.6689986 142.6308684  63.1065194  -2.6648326
 142.8739992  59.2159978 -11.0299986 142.5269992  59.8329978 -10.3859986
 143.5329992  59.7169978 -11.5119986 142.9155090  59.3681575 -11.0069319
 139.7969992  73.5809978 -13.9589986 139.9579992  74.3809978 -14.4589986
 139.5999992  73.8879978 -13.0739986 139.7923906  73.7318678 -13.9077667
 138.5319992  60.2789978 -14.3429986 138.4479992  61.1669978 -13.9959986
 139.4219992  60.0139978 -14.1109986 138.6408163  60.3647179 -14.2641404
 136.7899992  70.7059978 -15.2829986 137.3819992  71.4059978 -15.0059986
 137.2489992  70.2729978 -16.0019986 136.9331652  70.7432675 -15.3423467
 135.1059992  63.3709978 -16.1669986 135.0609992  64.3099978 -15.9879986
 134.2179992  63.1349978 -16.4359986 134.9798166  63.4676687 -16.1788476
 135.9139992  58.1519978  -7.4929986 135.6849992  58.2109978  -8.4209986
 135.4719992  57.3609978  -7.1869986 135.8228801  58.0530540  -7.5785271
 134.8449992  72.0929978 -11.3329986 134.0119992  72.5649978 -11.3059986
 135.3899992  72.6029978 -11.9319986 134.8047857  72.2264791 -11.4102858
 134.1329992  74.7049978  -0.0029986 134.6729992  74.4889978   0.7570014
 133.6519992  73.8999978  -0.1929986 134.1419219  74.5665156   0.0754282
 138.7299992  73.6249978   1.6170014 139.4979992  73.1659978   1.9580014
 138.7089992  73.3989978   0.6870014 138.8322135  73.5316668   1.5379491
 142.8219992  73.1329978 -17.0069986 142.1779992  72.5019978 -16.6859986
 143.5839992  72.6019978 -17.2389986 142.8368058  72.9747902 -16.9943962
 145.3069992  72.0049978   0.3460014 144.9559992  71.1479978   0.5900014
 146.0329992  72.1469978   0.9530014 145.3571895  71.9071351   0.4613770
 134.0399992  68.5159978   0.9510014 134.1839992  67.6139978   0.6650014
 133.2679992  68.8019978   0.4640014 133.9552733  68.4311798   0.8459532
 138.3809992  68.8589978 -16.9159986 138.4459992  68.0649978 -16.3859986
 139.0339992  68.7409978 -17.6059986 138.4781605  68.7343430 -16.9367003
 140.6949992  68.4849978   0.3840014 140.3669992  68.7559978  -0.4729986
 140.8469992  67.5439978   0.2960014 140.6706412  68.3949046   0.2547822
 134.8729992  65.7159978   0.3710014 135.2809992  64.8589978   0.2500014
 134.6119992  65.7299978   1.2920014 134.8936016  65.6005119   0.4789192
 139.5309992  66.8319978 -14.6099986 139.0709992  66.3479978 -13.9249986
 139.7859992  66.1629978 -15.2459986 139.5024856  66.6753669 -14.6021603
 138.8199992  64.7249978  -2.2539986 138.2009992  65.3989978  -1.9739986
 139.1639992  65.0459978  -3.0879986 138.7817123  64.8606887  -2.3283612
 140.6019992  65.0749978 -16.3479986 140.4209992  64.9199978 -17.2749986
 141.5519992  65.1829978 -16.3029986 140.7056566  65.0683669 -16.4689071
 143.8389992  67.1959978   1.0230014 144.7929992  67.2799978   0.9960014
 143.6789992  66.4839978   1.6430014 143.9477182  67.1112842   1.1030733
 139.1589992  62.0799978  -1.1719986 139.3089992  61.3509978  -1.7739986
 139.1609992  62.8569978  -1.7309986 139.1797967  62.0852708  -1.3299459
 139.5719992  60.4489978  -3.6789986 140.1069992  60.9009978  -4.3309986
 138.7189992  60.3409978  -4.1019986 139.5300374  60.4962665  -3.8253290
 141.1529992  65.8889978  -3.4399986 141.9039992  65.7329978  -4.0129986
 140.8139992  66.7409978  -3.7149986 141.2099587  65.9828138  -3.5555922
 145.5689992  63.7039978   1.5890014 145.7609992  62.7729978   1.4770014
 146.4269992  64.1289978   1.5780014 145.7112182  63.6340070   1.5721862
 137.6379992  63.2779978   0.7390014 136.8699992  62.7449978   0.5290014
 138.3159992  62.9679978   0.1400014 137.6247235  63.1631754   0.6292413
 140.3769992  57.9059978  -3.2479986 140.2789992  58.8519978  -3.3529986
 139.6349992  57.5329978  -3.7239986 140.2632534  57.9851773  -3.3267400
 141.6409992  62.2269978   0.3160014 141.4059992  62.0079978   1.2170014
 140.8579992  62.0199978  -0.1939986 141.5029095  62.1689892   0.3705353
 144.3569992  61.3549978  -0.6089986 143.4089992  61.3869978  -0.4769986
 144.6689992  60.7289978   0.0450014 144.2695293  61.2747923  -0.5025852
 135.8179992  61.1979978   0.4440014 136.0299992  60.4919978  -0.1659986
 135.7069992  60.7609978   1.2880014 135.8320269  61.0421921   0.4745873
 140.5989992  57.1999978  -0.5769986 141.3109992  56.5599978  -0.5909986
 140.4979992  57.4659978  -1.4899986 140.6827387  57.1484330  -0.7024437
 140.9529992  58.8819978   1.4770014 140.8209992  58.4069978   0.6570014
 140.3529992  59.6269978   1.4220014 140.8539070  58.9175789   1.3573251
 140.4989992  75.7649978 -15.3469986 141.4319992  75.9229978 -15.2029986
 140.2349992  76.4409978 -15.9719986 140.5909911  75.8779373 -15.4117278
 134.0669992  70.4019978 -15.8639986 134.9809992  70.4809978 -15.5909986
 134.0749992  69.7149978 -16.5299986 134.1930655  70.3199205 -15.9167083
 132.7159992  75.7949978 -10.7869986 132.0689992  75.3329978 -11.3189986
 133.0709992  75.1229978 -10.2039986 132.6753741  75.6409774 -10.7810825
 133.5859992  73.8749978  -8.9819986 133.2519992  72.9949978  -8.8099986
 133.8089992  74.2209978  -8.1169986 133.5703721  73.8011938  -8.8415832
 133.6659992  66.9509978  -6.5299986 133.8509992  66.8689978  -7.4659986
 134.5159992  66.8269978  -6.1069986 133.8060928  66.9230463  -6.6007107
 133.2639992  62.2209978  -0.3899986 134.1829992  62.0989978  -0.1529986
 132.8139992  61.4709978   0.0000014 133.3290087  62.1029608  -0.3048590
 134.4849992  60.5339978  -7.4979986 134.9299992  59.7419978  -7.1959986
 134.9509992  61.2499978  -7.0679986 134.6089718  60.5224534  -7.3984735
 132.7889992  63.5329978  -6.4289986 133.2809992  63.3119978  -7.2199986
 133.1509992  64.3729978  -6.1479986 132.9052923  63.6163468  -6.4992593
 133.1029992  59.7909978 -12.3749986 132.1779992  59.9989978 -12.5039986
 133.5569992  60.2749978 -13.0649986 133.0376298  59.8849299 -12.4859549
 133.0659992  58.5289978  -4.0309986 132.4009992  58.2829978  -3.3879986
 132.6229992  59.1509978  -4.6079986 132.9151168  58.5794214  -4.0210152
 135.2579992  71.7039978   0.1140014 134.4369992  71.8789978  -0.3469986
 135.0059992  71.6309978   1.0340014 135.1115594  71.7180717   0.1753611
 138.2119992  72.6779978  -3.6279986 137.7879992  73.4879978  -3.9099986
 139.1169992  72.7639978  -3.9299986 138.2762138  72.8004160  -3.7073585
 142.5239992  74.0769978  -0.6679986 142.7079992  73.7439978   0.2100014
 143.3699992  74.3869978  -0.9899986 142.6636484  74.0732979  -0.5912383
 144.8689992  75.3629978  -1.4239986 145.5459992  74.7299978  -1.6639986
 145.1899992  75.7639978  -0.6169986 145.0051323  75.3305691  -1.3476842
 135.6139992  75.9349978  -3.5799986 134.8939992  76.3749978  -4.0309986
 135.2489992  75.6839978  -2.7319986 135.4659643  75.9613369  -3.5270871
 138.0809992  75.5349978  -4.5499986 137.2169992  75.6069978  -4.1459986
 138.0259992  76.0819978  -5.3339986 137.9551942  75.6187849  -4.6006000
 142.7919992  75.4229978  -5.3749986 142.3349992  75.9519978  -6.0289986
 142.9549992  76.0259978  -4.6499986 142.7514960  75.5769280  -5.3664726
 145.1199992  74.3009978  -4.4299986 144.2149992  74.4659978  -4.6959986
 145.5479992  75.1539978  -4.4959986 145.0541537  74.4389134  -4.4752905
 135.0289992  74.5579978  -6.6699986 135.0109992  74.1319978  -5.8129986
 135.8339992  74.2389978  -7.0789986 135.1352875  74.4566435  -6.6080485
 137.1699992  73.2679978  -8.0149986 136.9509992  72.3509978  -7.8449986
 137.9939992  73.4079978  -7.5489986 137.2514702  73.1615511  -7.9287473
 139.7069992  73.7379978  -7.1659986 139.9199992  72.8499978  -7.4529986
 139.7719992  73.7029978  -6.2119986 139.7449149  73.6118326  -7.0762631
 143.2159992  59.4019978  -8.0219986 142.5419992  58.7719978  -7.7659986
 143.7799992  58.9179978  -8.6249986 143.2000384  59.2503708  -8.0684980
 135.5429992  58.0359978 -10.1999986 134.7659992  57.8009978 -10.7069986
 136.0729992  57.2389978 -10.1909986 135.5083451  57.8961268 -10.2681373
 134.3789992  57.8339978 -14.3959986 134.8179992  58.4449978 -14.9879986
 133.7449992  58.3719978 -13.9219986 134.3533859  57.9904064 -14.4129695
 140.1219992  57.9619978 -10.3869986 140.9959992  58.3509978 -10.4159986
 139.9859992  57.7469978  -9.4639986 140.2231953  57.9861643 -10.2662383
 134.2799992  73.7819978 -13.4989986 133.5949992  73.7439978 -14.1659986
 134.2839992  74.6949978 -13.2109986 134.1867621  73.9001924 -13.5513874
 136.2399992  59.7499978 -15.9539986 136.7309992  59.1199978 -16.4809986
 136.8629992  60.0459978 -15.2909986 136.3915304  59.7037376 -15.9365060
 141.2659992  60.0429978 -13.4969986 141.4439992  59.3959978 -12.8139986
 141.2119992  60.8769978 -13.0299986 141.2830678  60.0671604 -13.3403699
 143.1439992  74.9909978 -15.1009986 144.0099992  75.3579978 -15.2789986
 142.8979992  74.5519978 -15.9149986 143.2292097  74.9818525 -15.2353981
 135.4999992  58.5499978  -0.6819986 135.1339992  57.7839978  -0.2399986
 136.4129992  58.5789978  -0.3959986 135.5733172  58.4490324  -0.5828110
 137.4729992  57.8999978   0.8530014 138.3719992  57.6259978   0.6690014
 137.0869992  57.1579978   1.3180014 137.5437307  57.7622196   0.8907098
 136.0979992  74.7019978 -16.4739986 135.8299992  74.9879978 -15.5999986
 136.8689992  74.1559978 -16.3209986 136.1655926  74.6672779 -16.3338795
  12.6289992  86.0479978 -10.2409986  12.7179992  86.9919978 -10.3729986
  11.9909992  85.7729978 -10.8989986  12.5549062  86.1399812 -10.3480359
  11.5619992  85.3029978  -6.8219986  11.5239992  84.6569978  -6.1169986
  11.2399992  84.8359978  -7.5929986  11.5132679  85.1514276  -6.8297079
   3.9299992  84.9169978  -5.2289986   3.9719992  84.2919978  -4.5059986
   4.6329992  85.5409978  -5.0469986   4.0307345  84.9157873  -5.1054727
  15.2679992  88.2419978  -8.5209986  14.8269992  87.5219978  -8.0699986
  15.2549992  88.9629978  -7.8909986  15.2059215  88.2409291  -8.3741895
   4.8539992  89.3669978  -6.6939986   4.4839992  88.5649978  -7.0639986
   5.7949992  89.1989978  -6.6479986   4.9305984  89.2344638  -6.7384397
   1.4639992  83.0269978 -11.3019986   1.0159992  83.8729978 -11.3199986
   0.9029992  82.4479978 -11.8169986   1.3268546  83.0643993 -11.3741109
   2.1739992  85.1889978  -9.1759986   2.3879992  84.4189978  -8.6479986
   2.9119992  85.2789978  -9.7789986   2.3030200  85.0958587  -9.1852965
  12.3799992  93.3459978  -8.3089986  12.9989992  92.6699978  -8.5819986
  12.1709992  93.1279978  -7.3999986  12.4366056  93.2238869  -8.2236033
   9.9509992  87.7349978  -6.4159986  10.2549992  87.0489978  -7.0109986
  10.6729992  87.8539978  -5.7979986  10.0901240  87.6572314  -6.4139041
  18.6139992  79.3369978  -5.5559986  18.6639992  79.9469978  -4.8199986
  19.0399992  79.7979978  -6.2789986  18.6784108  79.4827709  -5.5529888
  13.0919992  82.1289978  -6.0889986  13.2349992  81.1829978  -6.0689986
  12.9859992  82.3359978  -7.0169986  13.0972403  82.0274797  -6.2117761
   6.2469992  80.2309978  -8.8159986   6.2899992  81.0909978  -9.2349986
   5.7889992  79.6789978  -9.4499986   6.1909871  80.2739245  -8.9589239
  13.9689992  80.3619978 -10.4149986  14.6159992  80.0329978  -9.7909986
  14.4789992  80.8789978 -11.0379986  14.1264351  80.3869067 -10.4138963
   2.8669992  82.6279978  -8.0539986   3.5209992  82.0779978  -7.6219986
   2.8909992  82.3539978  -8.9709986   2.9597199  82.5157167  -8.1188332
   8.0239992  84.1779978  -8.8389986   8.6399992  83.6509978  -8.3299986
   7.4369992  83.5379978  -9.2429986   8.0290154  84.0193954  -8.8239055
  19.0059992  80.8149978  -3.3199986  18.3169992  81.4729978  -3.4149986
  19.0209992  80.6169978  -2.3829986  18.9137756  80.8782603  -3.2064188
   5.0569992  79.1489978  -4.7419986   4.8379992  79.6789978  -5.5089986
   4.3889992  79.3749978  -4.0949986   4.9366975  79.2520967  -4.7594860
  12.4259992  88.6489978 -11.1979986  12.1309992  88.3259978 -12.0499986
  12.1019992  89.5489978 -11.1569986  12.3418460  88.7264464 -11.3090286
   7.6259992  86.8239978  -4.4549986   6.8859992  87.4229978  -4.3509986
   8.3399992  87.3779978  -4.7699986   7.6213500  86.9807829  -4.4833629
  15.7329992  79.6529978  -8.4349986  15.5179992  78.8869978  -7.9019986
  16.3889992  80.1249978  -7.9219986  15.7922673  79.6120728  -8.2928010
   4.6509992  81.0409978  -6.7899986   5.2649992  81.6739978  -6.4169986
   5.1629992  80.5689978  -7.4459986   4.8041962  81.0637249  -6.8277065
   6.0339992  88.7889978  -3.6679986   6.0279992  89.6679978  -4.0459986
   5.1799992  88.7049978  -3.2429986   5.9177925  88.8979535  -3.6623113
   2.1549992  88.4599978 -12.8859986   1.8829992  88.6889978 -13.7739986
   2.1999992  89.2969978 -12.4249986   2.1238097  88.6046163 -12.9453317
  15.7799992  90.0809978  -6.1729986  14.8379992  90.1399978  -6.0109986
  16.0559992  90.9869978  -6.3099986  15.6885865  90.2115288  -6.1693808
  16.0799992  78.3679978  -4.7559986  15.3439992  78.9779978  -4.7929986
  16.7639992  78.7829978  -5.2819986  16.0715367  78.5077551  -4.8321826
   9.0839992  76.4539978  -7.2899986   8.9659992  75.5059978  -7.3439986
   8.2289992  76.7869978  -7.0169986   8.9522805  76.3692202  -7.2604921
  14.0319992  91.8619978  -9.5479986  14.4569992  91.1549978 -10.0329986
  14.3489992  92.6639978  -9.9649986  14.1330266  91.8735190  -9.6707521
  15.1919992  89.7629978 -11.0389986  14.9339992  89.0729978 -11.6509986
  15.2629992  89.3199978 -10.1939986  15.1663050  89.6086814 -11.0084379
  16.8779992  88.3299978  -2.5619986  17.0169992  87.7379978  -3.3009986
  17.0449992  89.2029978  -2.9179986  16.9196193  88.3668896  -2.7113789
  11.3499992  85.2919978 -12.7889986  10.6389992  85.8269978 -13.1409986
  12.0409992  85.3469978 -13.4489986  11.3460751  85.3726777 -12.9264142
  11.4039992  83.7489978 -15.7509986  12.1049992  83.7719978 -15.0989986
  11.7059992  83.1209978 -16.4069986  11.5408202  83.6672212 -15.7504391
  18.7189992  84.6699978  -4.4959986  18.0669992  85.3639978  -4.4069986
  19.1849992  84.8799978  -5.3059986  18.6925937  84.7935019  -4.5932467
  14.7559992  85.5009978 -11.8379986  14.0239992  85.7299978 -11.2639986
  15.2029992  84.7879978 -11.3829986  14.7163963  85.4358729 -11.6980055
  14.6529992  83.6759978  -2.7699986  14.7329992  84.4389978  -2.1979986
  14.0519992  83.9549978  -3.4599986  14.5826547  83.8182457  -2.7849953
   6.4009992  86.1319978  -9.9549986   6.0709992  85.7609978 -10.7729986
   6.9899992  85.4609978  -9.6079986   6.4353970  85.9906063 -10.0200596
   7.7679992  89.5599978  -7.2739986   7.6729992  88.9809978  -8.0299986
   8.4969992  89.1889978  -6.7779986   7.8536011  89.4305561  -7.3103972
   6.7679992  84.8999978  -6.3219986   7.3329992  85.0219978  -7.0839986
   7.0869992  85.5379978  -5.6829986   6.8884166  85.0028791  -6.3399652
  13.0769992  90.4039978  -5.5879986  12.8369992  91.0659978  -4.9399986
  12.8789992  89.5689978  -5.1629986  13.0173826  90.3818115  -5.4418434
   7.6479992  89.2999978  -1.6039986   7.3369992  90.0819978  -1.1489986
   6.9979992  89.1469978  -2.2899986   7.5175538  89.3864087  -1.6344102
  13.6269992  84.6639978 -14.1519986  14.2059992  84.8139978 -13.4059986
  14.0409992  85.1339978 -14.8759986  13.7623358  84.7480954 -14.1476047
   4.5679992  85.4979978  -2.3759986   4.6379992  86.1489978  -1.6769986
   3.6769992  85.6009978  -2.7109986   4.4571690  85.6009249  -2.3256957
  11.3529992  91.3999978 -10.7169986  11.8269992  91.6959978  -9.9399986
  10.7899992  92.1389978 -10.9499986  11.3417890  91.5403036 -10.6421899
   5.8869992  91.3709978  -0.8409986   5.8949992  91.2349978  -1.7879986
   4.9709992  91.2539978  -0.5889986   5.7642528  91.3365463  -0.9366757
  17.3259992  76.4139978 -14.3389986  16.4259992  76.5529978 -14.0439986
  17.5779992  77.2449978 -14.7409986  17.2368683  76.5454055 -14.3529768
   5.3919992  85.2009978 -12.3659986   5.0999992  85.9689978 -12.8569986
   4.7169992  84.5419978 -12.5289986   5.2608497  85.2169745 -12.4551740
  18.5149992  90.7799978 -15.9629986  18.5879992  91.7189978 -15.7929986
  19.4199992  90.4749978 -16.0189986  18.6474170  90.8673282 -15.9472937
   1.4849992  87.5639978  -3.5509986   0.9829992  87.5359978  -4.3659986
   1.4899992  86.6589978  -3.2409986   1.4169832  87.4377486  -3.6205879
   1.2349992  90.3449978  -6.6669986   2.1809992  90.1999978  -6.6859986
   1.1219992  91.1289978  -6.1299986   1.3493578  90.4311697  -6.5969683
  19.4329992  91.0109978  -0.9839986  19.3829992  90.0549978  -1.0219986
  18.6059992  91.2779978  -0.5829986  19.3143831  90.9164680  -0.9349879
  10.4109992  90.5849978  -2.1079986  10.4989992  91.4109978  -1.6329986
   9.5479992  90.2549978  -1.8589986  10.3063357  90.6535468  -2.0092347
  10.8259992  94.3569978 -12.3019986  10.7499992  94.2359978 -13.2489986
  10.8579992  95.3059978 -12.1839986  10.8199380  94.4687677 -12.4154819
   4.4789992  93.1459978 -10.5209986   4.6309992  92.7979978  -9.6429986
   3.6279992  92.7889978 -10.7769986   4.3848344  93.0500879 -10.4353132
  13.9269992  93.5109978 -15.2999986  14.3019992  92.7669978 -15.7709986
  13.9319992  93.2409978 -14.3819986  13.9790098  93.3726392 -15.2403371
  13.5959992  93.4369978 -12.5509986  12.6609992  93.5369978 -12.3719986
  13.8759992  92.7269978 -11.9719986  13.5059471  93.3547933 -12.4483305
  16.5849992  82.5039978  -0.5039986  16.1769992  82.9839978  -1.2249986
  16.6249992  81.5979978  -0.8119986  16.5346221  82.4472449  -0.6441733
   3.7339992  88.8879978  -2.5079986   3.9499992  88.5259978  -1.6479986
   2.8779992  88.5129978  -2.7169986   3.6478810  88.7878837  -2.4187320
   6.3519992  77.3579978  -6.5119986   5.4909992  77.2709978  -6.9199986
   6.3299992  78.2139978  -6.0839986   6.2310491  77.4618003  -6.5100418
  11.0149992  77.0799978  -3.1369986  11.4349992  76.6649978  -2.3839986
  10.0819992  76.9009978  -3.0199986  10.9463736  76.9989910  -3.0181032
  14.3419992  80.8349978  -2.2839986  13.8279992  80.7099978  -1.4859986
  14.1859992  81.7479978  -2.5279986  14.2506967  80.9412123  -2.2079063
  15.1039992  85.6959978 -16.5229986  15.1459992  85.4739978 -17.4529986
  15.9529992  86.0949978 -16.3329986  15.2245253  85.7195498 -16.6246178
  10.6769992  79.5719978 -15.8519986  10.4229992  79.5909978 -14.9299986
  10.4199992  78.7009978 -16.1539986  10.6074508  79.4568280 -15.7665197
   6.4429992  82.3229978  -5.4169986   5.8019992  82.2829978  -4.7079986
   6.4809992  83.2499978  -5.6549986   6.3603010  82.4427668  -5.3520054
   6.4399992  82.5439978 -10.5049986   5.5479992  82.2039978 -10.5639986
   6.8909992  82.1669978 -11.2609986   6.3787642  82.4464910 -10.6152274
  11.9759992  82.9599978 -11.6879986  11.5669992  83.7749978 -11.9799986
  12.6959992  82.8199978 -12.3019986  12.0174439  83.0525372 -11.8109885
  11.0779992  83.1359978  -0.1999986  10.5149992  82.4309978   0.1210014
  11.9039992  83.0149978   0.2680014  11.1126674  83.0232165  -0.0928249
  12.9809992  82.4059978  -8.8739986  12.7849992  83.0119978  -9.5889986
  13.1619992  81.5729978  -9.3079986  12.9786584  82.3762513  -9.0305788
   4.1929992  82.6439978  -3.5499986   4.1549992  83.0439978  -2.6809986
   3.7029992  81.8269978  -3.4599986   4.1215330  82.5882674  -3.4188711
   7.5589992  80.0179978 -16.7509986   7.1279992  79.5729978 -16.0219986
   6.8409992  80.3889978 -17.2639986   7.4029176  80.0072051 -16.7205070
   0.8019992  79.7599978  -9.6989986   1.4319992  79.7309978  -8.9799986
   1.2509992  79.3349978 -10.4299986   0.9490835  79.6985660  -9.6992341
   2.0759992  80.5059978 -14.2749986   2.5499992  81.0969978 -14.8599986
   1.3579992  81.0359978 -13.9279986   2.0438640  80.6585511 -14.3082031
  12.2449992  84.0439978  -4.2029986  12.5679992  83.4129978  -4.8459986
  11.8039992  83.5099978  -3.5419986  12.2296379  83.8853468  -4.2017418
   9.0219992  79.9719978  -9.4189986   8.1109992  80.0289978  -9.1299986
   9.5269992  79.9119978  -8.6079986   8.9656873  79.9716826  -9.2698793
   3.8499992  81.6009978 -10.5919986   2.9609992  81.6999978 -10.9319986
   4.1469992  80.7589978 -10.9379986   3.7684177  81.5007687 -10.6853060
   7.5029992  81.6009978 -12.9349986   8.4349992  81.7299978 -12.7569986
   7.2879992  82.2699978 -13.5849986   7.6014472  81.7090806 -12.9985109
  13.4269992  79.2069978  -6.1539986  12.7499992  79.3379978  -5.4909986
  12.9419992  79.0519978  -6.9649986  13.2687405  79.2039947  -6.1727830
   6.1769992  82.7949978 -15.3689986   5.6349992  82.4159978 -16.0599986
   7.0109992  82.9899978 -15.7969986   6.2154390  82.7694079 -15.5215608
  16.7149992  94.8779978   0.1220014  16.9139992  95.3019978  -0.7119986
  17.3699992  95.2219978   0.7290014  16.8308522  94.9826301   0.0897852
   4.3129992  87.3519978  -0.2699986   5.0449992  87.6069978   0.2920014
   3.5319992  87.5569978   0.2460014   4.3076526  87.4145450  -0.1234824
  10.3419992  82.7589978  -7.5319986  10.9059992  82.2129978  -8.0789986
  10.1939992  82.2379978  -6.7429986  10.3993037  82.6136787  -7.5002771
   5.3439992  78.8959978 -11.1129986   5.0269992  77.9929978 -11.1489986
   6.1249992  78.8979978 -11.6659986   5.4062431  78.7727797 -11.1926898
   8.9679992  81.1479978  -5.1179986   8.1329992  81.6019978  -5.0069986
   9.4919992  81.4239978  -4.3659986   8.9246072  81.2473948  -5.0011864
   9.5129992  87.3609978 -13.4329986   8.7679992  86.8529978 -13.7549986
   9.3779992  87.4099978 -12.4869986   9.3928963  87.2981731 -13.3491174
  16.6629992  86.4939978  -4.6459986  17.3039992  86.9499978  -5.1899986
  15.8319992  86.6069978  -5.1089986  16.6385287  86.5716921  -4.7830113
  13.4099992  80.1749978 -15.2339986  12.4719992  80.2859978 -15.3849986
  13.7079992  81.0309978 -14.9269986  13.3216318  80.3060158 -15.2131855
  11.0319992  87.5449978  -2.1959986  10.6859992  87.1629978  -1.3889986
  10.8319992  88.4779978  -2.1249986  10.9575987  87.6189002  -2.0759539
  14.1289992  82.0419978 -13.5729986  15.0209992  81.9039978 -13.2539986
  14.1849992  82.8329978 -14.1099986  14.2587325  82.1299918 -13.6018783
   4.6369992  86.6559978  -7.6629986   5.3819992  86.6529978  -8.2649986
   4.7149992  85.8319978  -7.1819986   4.7493365  86.5442384  -7.6802570
  11.6379992  88.8189978 -14.4079986  11.3429992  89.6459978 -14.0259986
  10.9349992  88.1999978 -14.2109986  11.5026379  88.8484171 -14.3291346
   1.6449992  85.1159978  -2.3479986   1.8679992  84.6979978  -1.5169986
   1.0429992  84.5039978  -2.7709986   1.5941513  84.9759606  -2.2913260
   8.6619992  84.6329978  -0.1349986   8.3659992  84.4679978  -1.0309986
   9.5929992  84.4129978  -0.1459986   8.7474401  84.5806879  -0.2589794
  13.2819992  90.0069978  -2.2459986  12.3819992  90.1899978  -2.5129986
  13.3159992  90.2659978  -1.3249986  13.1633748  90.0670554  -2.1580836
  19.0139992  82.2509978 -13.8779986  18.4589992  81.8549978 -14.5509986
  19.1139992  83.1619978 -14.1559986  18.9516816  82.3199505 -14.0074967
  18.9769992  88.0519978  -1.0409986  18.1259992  88.2899978  -1.4089986
  19.5669992  88.0349978  -1.7939986  18.9403812  88.0822524  -1.1931547
  17.3089992  91.0369978 -13.4129986  16.9359992  90.2119978 -13.1039986
  17.5859992  90.8539978 -14.3109986  17.2953463  90.8992569 -13.4920475
  14.4689992  85.8449978  -6.3919986  13.5409992  85.6139978  -6.4189986
  14.9199992  85.0679978  -6.7219986  14.4028165  85.7082774  -6.4403210
   7.0119992  90.1739978 -10.2589986   7.5399992  90.9469978 -10.4589986
   6.1319992  90.3979978 -10.5609986   6.9653435  90.3102700 -10.3272690
   2.7669992  85.0359978 -15.6719986   3.3829992  85.6629978 -15.2919986
   1.9049992  85.3519978 -15.3999986   2.7347678  85.1644412 -15.5832791
   8.4399992  87.8369978 -10.6829986   8.1989992  88.7619978 -10.6409986
   7.6989992  87.3779978 -10.2859986   8.3069206  87.9015915 -10.6236231
   8.9539992  91.9859978  -4.3679986   9.3169992  92.8399978  -4.6009986
   9.4859992  91.6939978  -3.6269986   9.0755141  92.0633895  -4.2997903
   7.1229992  92.8579978 -11.1369986   6.1729992  92.9639978 -11.0859986
   7.4749992  93.6789978 -10.7929986   7.0405472  92.9834923 -11.0835148
  12.4979992  88.0849978  -4.6669986  12.0729992  87.8569978  -3.8409986
  13.0789992  87.3459978  -4.8489986  12.5183395  87.9539545  -4.5785586
  14.7009992  89.0139978 -15.5929986  15.0549992  88.6339978 -14.7889986
  13.7529992  88.9199978 -15.5059986  14.6212298  88.9492452 -15.4711313
  15.1569992  92.6369978  -2.1979986  14.5549992  92.0809978  -2.6929986
  15.4379992  93.3039978  -2.8239986  15.1125757  92.6510744  -2.3504325
  19.2049992  93.4929978 -15.3919986  19.9489992  94.0789978 -15.5319986
  18.5109992  94.0619978 -15.0589986  19.2129809  93.6500818 -15.3661410
   3.2789992  79.8699978  -2.7899986   2.3869992  80.2079978  -2.8579986
   3.1809992  79.0139978  -2.3719986   3.1434475  79.8006543  -2.7428296
  15.5669992  87.6859978 -13.3659986  15.2899992  86.9579978 -12.8099986
  16.4949992  87.8049978 -13.1609986  15.6544499  87.6024213 -13.2621956
   2.9309992  91.6739978  -4.3549986   3.1479992  90.7419978  -4.3859986
   3.1769992  91.9489978  -3.4719986   2.9939809  91.5835686  -4.2398309
   7.7289992  89.6959978 -14.6899986   7.8759992  89.1759978 -13.8999986
   7.7259992  90.6029978 -14.3829986   7.7487102  89.7473953 -14.5404075
   4.1819992  86.9479978 -14.1789986   3.4959992  87.3009978 -13.6119986
   4.7049992  87.7109978 -14.4259986   4.1588402  87.0993901 -14.1348199
  12.0139992  79.6109978  -3.8999986  12.7129992  79.6849978  -3.2499986
  11.6329992  78.7459978  -3.7459986  12.0582097  79.5042389  -3.7902003
  12.7979992  79.2629978 -12.8029986  13.0179992  79.7339978 -13.6069986
  13.3569992  79.6569978 -12.1329986  12.9036732  79.3807287 -12.8224967
  10.4669992  91.3929978 -13.9399986   9.6499992  91.8899978 -13.8879986
  10.9959992  91.8689978 -14.5809986  10.4268125  91.5251989 -14.0194694
   9.9979992  80.9909978 -11.9679986  10.8099992  81.4949978 -11.9219986
   9.7539992  80.8459978 -11.0539986  10.0761467  81.0403749 -11.8381425
  10.5339992  81.9769978  -2.7839986  10.6529992  82.5509978  -2.0269986
  11.1889992  81.2889978  -2.6689986  10.6388684  81.9625194  -2.6648326
  10.8819992  78.0719978 -11.0299986  10.5349992  78.6889978 -10.3859986
  11.5409992  78.5729978 -11.5119986  10.9235090  78.2241575 -11.0069319
   7.8049992  92.4369978 -13.9589986   7.9659992  93.2369978 -14.4589986
   7.6079992  92.7439978 -13.0739986   7.8003906  92.5878678 -13.9077667
   6.5399992  79.1349978 -14.3429986   6.4559992  80.0229978 -13.9959986
   7.4299992  78.8699978 -14.1109986   6.6488163  79.2207179 -14.2641404
  16.7379992  79.8839978  -1.9489986  15.8219992  80.1459978  -2.0359986
  17.0739992  79.8809978  -2.8449986  16.6578499  79.9195163  -2.0821234
  15.3409992  83.6339978  -7.8529986  14.5429992  83.2189978  -8.1809986
  15.7859992  82.9439978  -7.3619986  15.2919684  83.4838628  -7.8314773
   4.7979992  89.5619978 -15.2829986   5.3899992  90.2619978 -15.0059986
   5.2569992  89.1289978 -16.0019986   4.9411652  89.5992675 -15.3423467
   3.1139992  82.2269978 -16.1669986   3.0689992  83.1659978 -15.9879986
   2.2259992  81.9909978 -16.4359986   2.9878166  82.3236687 -16.1788476
  16.4269992  92.8899978  -6.2309986  16.2709992  93.5689978  -6.8879986
  17.3599992  92.9619978  -6.0279986  16.5317387  92.9926390  -6.2934658
   3.9219992  77.0079978  -7.4929986   3.6929992  77.0669978  -8.4209986
   3.4799992  76.2169978  -7.1869986   3.8308801  76.9090540  -7.5785271
   2.8529992  90.9489978 -11.3329986   2.0199992  91.4209978 -11.3059986
   3.3979992  91.4589978 -11.9319986   2.8127857  91.0824791 -11.4102858
   2.1409992  93.5609978  -0.0029986   2.6809992  93.3449978   0.7570014
   1.6599992  92.7559978  -0.1929986   2.1499219  93.4225156   0.0754282
   6.7379992  92.4809978   1.6170014   7.5059992  92.0219978   1.9580014
   6.7169992  92.2549978   0.6870014   6.8402135  92.3876668   1.5379491
  10.8299992  91.9889978 -17.0069986  10.1859992  91.3579978 -16.6859986
  11.5919992  91.4579978 -17.2389986  10.8448058  91.8307902 -16.9943962
  13.3149992  90.8609978   0.3460014  12.9639992  90.0039978   0.5900014
  14.0409992  91.0029978   0.9530014  13.3651895  90.7631351   0.4613770
  15.4349992  91.8059978 -16.7739986  15.7179992  91.0109978 -16.3209986
  16.1739992  92.0389978 -17.3349986  15.5737096  91.7287049 -16.7878896
   2.0479992  87.3719978   0.9510014   2.1919992  86.4699978   0.6650014
   1.2759992  87.6579978   0.4640014   1.9632733  87.2871798   0.8459532
   6.3889992  87.7149978 -16.9159986   6.4539992  86.9209978 -16.3859986
   7.0419992  87.5969978 -17.6059986   6.4861605  87.5903430 -16.9367003
   8.7029992  87.3409978   0.3840014   8.3749992  87.6119978  -0.4729986
   8.8549992  86.3999978   0.2960014   8.6786412  87.2509046   0.2547822
  14.4379992  87.2569978  -2.2329986  15.1829992  87.8459978  -2.3519986
  13.6809992  87.8389978  -2.1689986  14.4375470  87.4162128  -2.2406201
   2.8809992  84.5719978   0.3710014   3.2889992  83.7149978   0.2500014
   2.6199992  84.5859978   1.2920014   2.9016016  84.4565119   0.4789192
   7.5389992  85.6879978 -14.6099986   7.0789992  85.2039978 -13.9249986
   7.7939992  85.0189978 -15.2459986   7.5104856  85.5313669 -14.6021603
   6.8279992  83.5809978  -2.2539986   6.2089992  84.2549978  -1.9739986
   7.1719992  83.9019978  -3.0879986   6.7897123  83.7166887  -2.3283612
   8.6099992  83.9309978 -16.3479986   8.4289992  83.7759978 -17.2749986
   9.5599992  84.0389978 -16.3029986   8.7136566  83.9243669 -16.4689071
  11.8469992  86.0519978   1.0230014  12.8009992  86.1359978   0.9960014
  11.6869992  85.3399978   1.6430014  11.9557182  85.9672842   1.1030733
  17.9999992  86.2849978 -16.9019986  17.7259992  85.8609978 -17.7149986
  18.0389992  87.2169978 -17.1189986  17.9677716  86.3528827 -17.0425714
   7.1669992  80.9359978  -1.1719986   7.3169992  80.2069978  -1.7739986
   7.1689992  81.7129978  -1.7309986   7.1877967  80.9412708  -1.3299459
   7.5799992  79.3049978  -3.6789986   8.1149992  79.7569978  -4.3309986
   6.7269992  79.1969978  -4.1019986   7.5380374  79.3522665  -3.8253290
   9.1609992  84.7449978  -3.4399986   9.9119992  84.5889978  -4.0129986
   8.8219992  85.5969978  -3.7149986   9.2179587  84.8388138  -3.5555922
  13.5769992  82.5599978   1.5890014  13.7689992  81.6289978   1.4770014
  14.4349992  82.9849978   1.5780014  13.7192182  82.4900070   1.5721862
  14.8939992  85.3489978  -0.3339986  14.6119992  86.0579978  -0.9119986
  15.8359992  85.2759978  -0.4849986  14.9827921  85.4362193  -0.4335775
   5.6459992  82.1339978   0.7390014   4.8779992  81.6009978   0.5290014
   6.3239992  81.8239978   0.1400014   5.6327235  82.0191754   0.6292413
   8.3849992  76.7619978  -3.2479986   8.2869992  77.7079978  -3.3529986
   7.6429992  76.3889978  -3.7239986   8.2712534  76.8411773  -3.3267400
   9.6489992  81.0829978   0.3160014   9.4139992  80.8639978   1.2170014
   8.8659992  80.8759978  -0.1939986   9.5109095  81.0249892   0.3705353
  12.3649992  80.2109978  -0.6089986  11.4169992  80.2429978  -0.4769986
  12.6769992  79.5849978   0.0450014  12.2775293  80.1307923  -0.5025852
  13.9989992  78.8449978   1.3960014  13.9019992  77.8929978   1.3910014
  13.6769992  79.1129978   2.2570014  13.9422468  78.7510884   1.5116210
   3.8259992  80.0539978   0.4440014   4.0379992  79.3479978  -0.1659986
   3.7149992  79.6169978   1.2880014   3.8400269  79.8981921   0.4745873
   8.6069992  76.0559978  -0.5769986   9.3189992  75.4159978  -0.5909986
   8.5059992  76.3219978  -1.4899986   8.6907387  76.0044330  -0.7024437
   8.9609992  77.7379978   1.4770014   8.8289992  77.2629978   0.6570014
   8.3609992  78.4829978   1.4220014   8.8619070  77.7735789   1.3573251
   8.5069992  94.6209978 -15.3469986   9.4399992  94.7789978 -15.2029986
   8.2429992  95.2969978 -15.9719986   8.5989911  94.7339373 -15.4117278
   2.0749992  89.2579978 -15.8639986   2.9889992  89.3369978 -15.5909986
   2.0829992  88.5709978 -16.5299986   2.2010655  89.1759205 -15.9167083
   0.7239992  94.6509978 -10.7869986   0.0769992  94.1889978 -11.3189986
   1.0789992  93.9789978 -10.2039986   0.6833741  94.4969774 -10.7810825
   1.5939992  92.7309978  -8.9819986   1.2599992  91.8509978  -8.8099986
   1.8169992  93.0769978  -8.1169986   1.5783721  92.6571938  -8.8415832
  19.1429992  93.5409978  -6.0009986  19.1209992  93.7259978  -5.0619986
  19.8329992  94.1089978  -6.3419986  19.2333439  93.6431887  -5.9185209
  18.7059992  93.1079978  -3.0799986  18.2189992  92.3729978  -3.4509986
  19.2549992  92.7139978  -2.4019986  18.7135247  92.9541057  -3.0391539
  17.1569992  88.8979978   1.5590014  16.2909992  88.7929978   1.9530014
  17.5329992  89.6559978   2.0050014  17.0893401  88.9861708   1.6732620
  18.4579992  87.1539978 -12.9269986  19.3079992  87.5749978 -12.7999986
  18.4629992  86.4139978 -12.3199986  18.5751143  87.1116094 -12.8275250
  18.8519992  85.2079978 -11.1039986  18.1259992  84.7279978 -10.7059986
  19.4339992  85.4129978 -10.3709986  18.8312730  85.1700184 -10.9505851
  18.6109992  87.9929978  -6.1559986  19.4449992  87.6149978  -6.4369986
  18.7229992  88.9359978  -6.2749986  18.7401917  88.0687943  -6.2105139
  17.0979992  90.8709978  -3.8489986  16.4499992  91.1959978  -3.2239986
  16.5799992  90.4299978  -4.5229986  16.9394196  90.8558651  -3.8545848
  19.1209992  85.1089978 -14.7129986  18.5989992  85.4649978 -15.4309986
  19.0879992  85.7839978 -14.0339986  19.0450129  85.2489598 -14.7196645
  17.4699992  82.3479978 -16.1619986  17.5659992  83.0149978 -16.8419986
  17.3299992  81.5329978 -16.6429986  17.4642040  82.3290671 -16.3201622
  16.6389992  83.7289978 -10.5409986  16.4889992  82.7839978 -10.5609986
  16.2849992  84.0099978  -9.6969986  16.5706351  83.6376644 -10.4296780
   1.6739992  85.8069978  -6.5299986   1.8589992  85.7249978  -7.4659986
   2.5239992  85.6829978  -6.1069986   1.8140928  85.7790463  -6.6007107
  17.4949992  85.6989978  -0.9019986  18.0779992  84.9639978  -0.7099986
  18.0589992  86.4709978  -0.8549986  17.6509781  85.7028145  -0.8693836
  18.9919992  83.6019978  -0.2169986  18.1289992  83.2229978  -0.3829986
  19.5959992  82.8629978  -0.2919986  18.9556085  83.4503223  -0.2498306
  16.7169992  79.7559978 -17.0439986  17.3279992  79.3849978 -16.4069986
  15.8799992  79.3349978 -16.8479986  16.6874947  79.6482756 -16.9302748
  16.3499992  81.3109978 -12.0779986  16.6289992  80.4039978 -11.9539986
  17.1089992  81.7449978 -12.4669986  16.4908619  81.2454502 -12.1136205
  16.9609992  81.8929978  -6.6419986  17.8939992  82.1049978  -6.6769986
  16.7259992  81.9939978  -5.7199986  17.0569517  81.9356833  -6.5220870
  16.9909992  82.6299978  -3.8659986  16.1479992  82.8979978  -3.4999986
  17.4329992  83.4519978  -4.0769986  16.9354138  82.7778273  -3.8444482
   1.2719992  81.0769978  -0.3899986   2.1909992  80.9549978  -0.1529986
   0.8219992  80.3269978   0.0000014   1.3370087  80.9589608  -0.3048590
  19.2739992  76.6099978   1.4870014  19.6229992  75.9559978   0.8820014
  19.4209992  77.4469978   1.0470014  19.3416824  76.6336024   1.3446304
  16.9629992  78.5739978 -12.0299986  17.1449992  78.1249978 -11.2049986
  16.3629992  77.9899978 -12.4939986  16.9068187  78.4335552 -11.9797261
   2.4929992  79.3899978  -7.4979986   2.9379992  78.5979978  -7.1959986
   2.9589992  80.1059978  -7.0679986   2.6169718  79.3784534  -7.3984735
   0.7969992  82.3889978  -6.4289986   1.2889992  82.1679978  -7.2199986
   1.1589992  83.2289978  -6.1479986   0.9132923  82.4723468  -6.4992593
  18.7929992  78.7189978  -0.1639986  17.8759992  78.9899978  -0.1989986
  18.9159992  78.1839978  -0.9479986  18.6839672  78.6837885  -0.2748138
  18.8299992  78.6419978 -15.5019986  19.2419992  77.9209978 -15.9769986
  19.5109992  79.3109978 -15.4439986  18.9785536  78.6337766 -15.5591976
   1.1109992  78.6469978 -12.3749986   0.1859992  78.8549978 -12.5039986
   1.5649992  79.1309978 -13.0649986   1.0456298  78.7409299 -12.4859549
  15.8809992  93.6309978 -10.4289986  16.5339992  93.2829978 -11.0369986
  16.3919992  94.1189978  -9.7829986  16.0392777  93.6493815 -10.4247953
   1.0739992  77.3849978  -4.0309986   0.4089992  77.1389978  -3.3879986
   0.6309992  78.0069978  -4.6079986   0.9231168  77.4354214  -4.0210152
   3.2659992  90.5599978   0.1140014   2.4449992  90.7349978  -0.3469986
   3.0139992  90.4869978   1.0340014   3.1195594  90.5740717   0.1753611
   6.2199992  91.5339978  -3.6279986   5.7959992  92.3439978  -3.9099986
   7.1249992  91.6199978  -3.9299986   6.2842138  91.6564160  -3.7073585
  10.5319992  92.9329978  -0.6679986  10.7159992  92.5999978   0.2100014
  11.3779992  93.2429978  -0.9899986  10.6716484  92.9292979  -0.5912383
  12.8769992  94.2189978  -1.4239986  13.5539992  93.5859978  -1.6639986
  13.1979992  94.6199978  -0.6169986  13.0131323  94.1865691  -1.3476842
  17.7939992  76.8089978  -2.3449986  16.9809992  77.1339978  -2.7319986
  18.0269992  76.0479978  -2.8779986  17.7141347  76.7506880  -2.4700159
   3.6219992  94.7909978  -3.5799986   2.9019992  95.2309978  -4.0309986
   3.2569992  94.5399978  -2.7319986   3.4739643  94.8173369  -3.5270871
   6.0889992  94.3909978  -4.5499986   5.2249992  94.4629978  -4.1459986
   6.0339992  94.9379978  -5.3339986   5.9631942  94.4747849  -4.6006000
  10.7999992  94.2789978  -5.3749986  10.3429992  94.8079978  -6.0289986
  10.9629992  94.8819978  -4.6499986  10.7594960  94.4329280  -5.3664726
  13.1279992  93.1569978  -4.4299986  12.2229992  93.3219978  -4.6959986
  13.5559992  94.0099978  -4.4959986  13.0621537  93.2949134  -4.4752905
  15.7319992  94.7269978  -4.1349986  15.5499992  95.6429978  -4.3459986
  15.9089992  94.3159978  -4.9819986  15.7310030  94.7968273  -4.2782834
   3.0369992  93.4139978  -6.6699986   3.0189992  92.9879978  -5.8129986
   3.8419992  93.0949978  -7.0789986   3.1432875  93.3126435  -6.6080485
   5.1779992  92.1239978  -8.0149986   4.9589992  91.2069978  -7.8449986
   6.0019992  92.2639978  -7.5489986   5.2594702  92.0175511  -7.9287473
   7.7149992  92.5939978  -7.1659986   7.9279992  91.7059978  -7.4529986
   7.7799992  92.5589978  -6.2119986   7.7529149  92.4678326  -7.0762631
  11.2239992  78.2579978  -8.0219986  10.5499992  77.6279978  -7.7659986
  11.7879992  77.7739978  -8.6249986  11.2080384  78.1063708  -8.0684980
  16.3669992  76.3649978  -7.9089986  16.9699992  76.9129978  -8.4109986
  15.4969992  76.6839978  -8.1499986  16.3319157  76.4830373  -8.0102090
  18.0939992  77.5039978  -9.5759986  18.7049992  76.9899978 -10.1029986
  18.4759992  78.3809978  -9.5529986  18.2293305  77.5522050  -9.6450582
   3.5509992  76.8919978 -10.1999986   2.7739992  76.6569978 -10.7069986
   4.0809992  76.0949978 -10.1909986   3.5163451  76.7521268 -10.2681373
   2.3869992  76.6899978 -14.3959986   2.8259992  77.3009978 -14.9879986
   1.7529992  77.2279978 -13.9219986   2.3613859  76.8464064 -14.4129695
   8.1299992  76.8179978 -10.3869986   9.0039992  77.2069978 -10.4159986
   7.9939992  76.6029978  -9.4639986   8.2311953  76.8421643 -10.2662383
  13.6869992  76.8479978  -8.7369986  13.7629992  76.9439978  -9.6869986
  13.4119992  75.9409978  -8.6089986  13.6601871  76.7384146  -8.8496056
  15.0399992  76.8739978 -13.0449986  14.3369992  77.4889978 -13.2549986
  14.5949992  76.0369978 -12.9139986  14.8836550  76.8449668 -13.0560163
   2.2879992  92.6379978 -13.4989986   1.6029992  92.5999978 -14.1659986
   2.2919992  93.5509978 -13.2109986   2.1947621  92.7561924 -13.5513874
   4.2479992  78.6059978 -15.9539986   4.7389992  77.9759978 -16.4809986
   4.8709992  78.9019978 -15.2909986   4.3995304  78.5597376 -15.9365060
   9.2739992  78.8989978 -13.4969986   9.4519992  78.2519978 -12.8139986
   9.2199992  79.7329978 -13.0299986   9.2910678  78.9231604 -13.3403699
  11.1519992  93.8469978 -15.1009986  12.0179992  94.2139978 -15.2789986
  10.9059992  93.4079978 -15.9149986  11.2372097  93.8378525 -15.2353981
  17.8609992  93.4099978 -12.4219986  17.6669992  92.6619978 -12.9869986
  17.8219992  94.1679978 -13.0049986  17.8291645  93.4100786 -12.5781852
   3.5079992  77.4059978  -0.6819986   3.1419992  76.6399978  -0.2399986
   4.4209992  77.4349978  -0.3959986   3.5813172  77.3050324  -0.5828110
   5.4809992  76.7559978   0.8530014   6.3799992  76.4819978   0.6690014
   5.0949992  76.0139978   1.3180014   5.5517307  76.6182196   0.8907098
   4.1059992  93.5579978 -16.4739986   3.8379992  93.8439978 -15.5999986
   4.8769992  93.0119978 -16.3209986   4.1735926  93.5232779 -16.3338795
  13.9029992  76.0889978   1.0360014  13.9789992  75.6629978   1.8890014
  14.7959992  76.1019978   0.6930014  14.0342303  76.0323493   1.1065497
  17.0789992  92.1619978  -0.2719986  16.2969992  91.9749978  -0.7919986
  17.0069992  93.0909978  -0.0549986  16.9621924  92.2620637  -0.3138398
  31.4849992  86.0479978 -10.2409986  31.5739992  86.9919978 -10.3729986
  30.8469992  85.7729978 -10.8989986  31.4109062  86.1399812 -10.3480359
  30.4179992  85.3029978  -6.8219986  30.3799992  84.6569978  -6.1169986
  30.0959992  84.8359978  -7.5929986  30.3692679  85.1514276  -6.8297079
  22.7859992  84.9169978  -5.2289986  22.8279992  84.2919978  -4.5059986
  23.4889992  85.5409978  -5.0469986  22.8867345  84.9157873  -5.1054727
  34.1239992  88.2419978  -8.5209986  33.6829992  87.5219978  -8.0699986
  34.1109992  88.9629978  -7.8909986  34.0619215  88.2409291  -8.3741895
  23.7099992  89.3669978  -6.6939986  23.3399992  88.5649978  -7.0639986
  24.6509992  89.1989978  -6.6479986  23.7865984  89.2344638  -6.7384397
  20.3199992  83.0269978 -11.3019986  19.8719992  83.8729978 -11.3199986
  19.7589992  82.4479978 -11.8169986  20.1828546  83.0643993 -11.3741109
  21.0299992  85.1889978  -9.1759986  21.2439992  84.4189978  -8.6479986
  21.7679992  85.2789978  -9.7789986  21.1590200  85.0958586  -9.1852965
  31.2359992  93.3459978  -8.3089986  31.8549992  92.6699978  -8.5819986
  31.0269992  93.1279978  -7.3999986  31.2926056  93.2238869  -8.2236033
  28.8069992  87.7349978  -6.4159986  29.1109992  87.0489978  -7.0109986
  29.5289992  87.8539978  -5.7979986  28.9461240  87.6572314  -6.4139041
  37.4699992  79.3369978  -5.5559986  37.5199992  79.9469978  -4.8199986
  37.8959992  79.7979978  -6.2789986  37.5344108  79.4827709  -5.5529888
  31.9479992  82.1289978  -6.0889986  32.0909992  81.1829978  -6.0689986
  31.8419992  82.3359978  -7.0169986  31.9532403  82.0274797  -6.2117761
  25.1029992  80.2309978  -8.8159986  25.1459992  81.0909978  -9.2349986
  24.6449992  79.6789978  -9.4499986  25.0469871  80.2739245  -8.9589239
  32.8249992  80.3619978 -10.4149986  33.4719992  80.0329978  -9.7909986
  33.3349992  80.8789978 -11.0379986  32.9824351  80.3869067 -10.4138963
  21.7229992  82.6279978  -8.0539986  22.3769992  82.0779978  -7.6219986
  21.7469992  82.3539978  -8.9709986  21.8157199  82.5157167  -8.1188332
  26.8799992  84.1779978  -8.8389986  27.4959992  83.6509978  -8.3299986
  26.2929992  83.5379978  -9.2429986  26.8850154  84.0193954  -8.8239055
  37.8619992  80.8149978  -3.3199986  37.1729992  81.4729978  -3.4149986
  37.8769992  80.6169978  -2.3829986  37.7697756  80.8782603  -3.2064188
  23.9129992  79.1489978  -4.7419986  23.6939992  79.6789978  -5.5089986
  23.2449992  79.3749978  -4.0949986  23.7926975  79.2520967  -4.7594860
  31.2819992  88.6489978 -11.1979986  30.9869992  88.3259978 -12.0499986
  30.9579992  89.5489978 -11.1569986  31.1978460  88.7264464 -11.3090286
  26.4819992  86.8239978  -4.4549986  25.7419992  87.4229978  -4.3509986
  27.1959992  87.3779978  -4.7699986  26.4773500  86.9807829  -4.4833629
  34.5889992  79.6529978  -8.4349986  34.3739992  78.8869978  -7.9019986
  35.2449992  80.1249978  -7.9219986  34.6482673  79.6120728  -8.2928010
  23.5069992  81.0409978  -6.7899986  24.1209992  81.6739978  -6.4169986
  24.0189992  80.5689978  -7.4459986  23.6601962  81.0637249  -6.8277065
  24.8899992  88.7889978  -3.6679986  24.8839992  89.6679978  -4.0459986
  24.0359992  88.7049978  -3.2429986  24.7737925  88.8979535  -3.6623113
  21.0109992  88.4599978 -12.8859986  20.7389992  88.6889978 -13.7739986
  21.0559992  89.2969978 -12.4249986  20.9798097  88.6046163 -12.9453317
  34.6359992  90.0809978  -6.1729986  33.6939992  90.1399978  -6.0109986
  34.9119992  90.9869978  -6.3099986  34.5445865  90.2115288  -6.1693808
  34.9359992  78.3679978  -4.7559986  34.1999992  78.9779978  -4.7929986
  35.6199992  78.7829978  -5.2819986  34.9275367  78.5077551  -4.8321826
  27.9399992  76.4539978  -7.2899986  27.8219992  75.5059978  -7.3439986
  27.0849992  76.7869978  -7.0169986  27.8082805  76.3692202  -7.2604921
  32.8879992  91.8619978  -9.5479986  33.3129992  91.1549978 -10.0329986
  33.2049992  92.6639978  -9.9649986  32.9890266  91.8735190  -9.6707521
  34.0479992  89.7629978 -11.0389986  33.7899992  89.0729978 -11.6509986
  34.1189992  89.3199978 -10.1939986  34.0223050  89.6086814 -11.0084379
  35.7339992  88.3299978  -2.5619986  35.8729992  87.7379978  -3.3009986
  35.9009992  89.2029978  -2.9179986  35.7756193  88.3668896  -2.7113789
  30.2059992  85.2919978 -12.7889986  29.4949992  85.8269978 -13.1409986
  30.8969992  85.3469978 -13.4489986  30.2020751  85.3726777 -12.9264142
  30.2599992  83.7489978 -15.7509986  30.9609992  83.7719978 -15.0989986
  30.5619992  83.1209978 -16.4069986  30.3968202  83.6672212 -15.7504391
  37.5749992  84.6699978  -4.4959986  36.9229992  85.3639978  -4.4069986
  38.0409992  84.8799978  -5.3059986  37.5485937  84.7935019  -4.5932467
  33.6119992  85.5009978 -11.8379986  32.8799992  85.7299978 -11.2639986
  34.0589992  84.7879978 -11.3829986  33.5723963  85.4358729 -11.6980055
  33.5089992  83.6759978  -2.7699986  33.5889992  84.4389978  -2.1979986
  32.9079992  83.9549978  -3.4599986  33.4386547  83.8182457  -2.7849953
  25.2569992  86.1319978  -9.9549986  24.9269992  85.7609978 -10.7729986
  25.8459992  85.4609978  -9.6079986  25.2913970  85.9906063 -10.0200596
  26.6239992  89.5599978  -7.2739986  26.5289992  88.9809978  -8.0299986
  27.3529992  89.1889978  -6.7779986  26.7096011  89.4305561  -7.3103972
  25.6239992  84.8999978  -6.3219986  26.1889992  85.0219978  -7.0839986
  25.9429992  85.5379978  -5.6829986  25.7444166  85.0028791  -6.3399652
  31.9329992  90.4039978  -5.5879986  31.6929992  91.0659978  -4.9399986
  31.7349992  89.5689978  -5.1629986  31.8733826  90.3818115  -5.4418434
  26.5039992  89.2999978  -1.6039986  26.1929992  90.0819978  -1.1489986
  25.8539992  89.1469978  -2.2899986  26.3735538  89.3864087  -1.6344102
  32.4829992  84.6639978 -14.1519986  33.0619992  84.8139978 -13.4059986
  32.8969992  85.1339978 -14.8759986  32.6183358  84.7480954 -14.1476047
  23.4239992  85.4979978  -2.3759986  23.4939992  86.1489978  -1.6769986
  22.5329992  85.6009978  -2.7109986  23.3131690  85.6009249  -2.3256957
  30.2089992  91.3999978 -10.7169986  30.6829992  91.6959978  -9.9399986
  29.6459992  92.1389978 -10.9499986  30.1977890  91.5403036 -10.6421899
  24.7429992  91.3709978  -0.8409986  24.7509992  91.2349978  -1.7879986
  23.8269992  91.2539978  -0.5889986  24.6202528  91.3365463  -0.9366757
  36.1819992  76.4139978 -14.3389986  35.2819992  76.5529978 -14.0439986
  36.4339992  77.2449978 -14.7409986  36.0928683  76.5454055 -14.3529768
  24.2479992  85.2009978 -12.3659986  23.9559992  85.9689978 -12.8569986
  23.5729992  84.5419978 -12.5289986  24.1168497  85.2169745 -12.4551740
  37.3709992  90.7799978 -15.9629986  37.4439992  91.7189978 -15.7929986
  38.2759992  90.4749978 -16.0189986  37.5034170  90.8673282 -15.9472937
  20.3409992  87.5639978  -3.5509986  19.8389992  87.5359978  -4.3659986
  20.3459992  86.6589978  -3.2409986  20.2729832  87.4377486  -3.6205879
  20.0909992  90.3449978  -6.6669986  21.0369992  90.1999978  -6.6859986
  19.9779992  91.1289978  -6.1299986  20.2053578  90.4311697  -6.5969683
  38.2889992  91.0109978  -0.9839986  38.2389992  90.0549978  -1.0219986
  37.4619992  91.2779978  -0.5829986  38.1703831  90.9164680  -0.9349879
  29.2669992  90.5849978  -2.1079986  29.3549992  91.4109978  -1.6329986
  28.4039992  90.2549978  -1.8589986  29.1623357  90.6535468  -2.0092347
  29.6819992  94.3569978 -12.3019986  29.6059992  94.2359978 -13.2489986
  29.7139992  95.3059978 -12.1839986  29.6759380  94.4687677 -12.4154819
  23.3349992  93.1459978 -10.5209986  23.4869992  92.7979978  -9.6429986
  22.4839992  92.7889978 -10.7769986  23.2408344  93.0500879 -10.4353132
  32.7829992  93.5109978 -15.2999986  33.1579992  92.7669978 -15.7709986
  32.7879992  93.2409978 -14.3819986  32.8350098  93.3726392 -15.2403371
  32.4519992  93.4369978 -12.5509986  31.5169992  93.5369978 -12.3719986
  32.7319992  92.7269978 -11.9719986  32.3619471  93.3547933 -12.4483305
  35.4409992  82.5039978  -0.5039986  35.0329992  82.9839978  -1.2249986
  35.4809992  81.5979978  -0.8119986  35.3906221  82.4472449  -0.6441733
  22.5899992  88.8879978  -2.5079986  22.8059992  88.5259978  -1.6479986
  21.7339992  88.5129978  -2.7169986  22.5038810  88.7878837  -2.4187320
  25.2079992  77.3579978  -6.5119986  24.3469992  77.2709978  -6.9199986
  25.1859992  78.2139978  -6.0839986  25.0870491  77.4618003  -6.5100418
  29.8709992  77.0799978  -3.1369986  30.2909992  76.6649978  -2.3839986
  28.9379992  76.9009978  -3.0199986  29.8023736  76.9989910  -3.0181032
  33.1979992  80.8349978  -2.2839986  32.6839992  80.7099978  -1.4859986
  33.0419992  81.7479978  -2.5279986  33.1066967  80.9412123  -2.2079063
  33.9599992  85.6959978 -16.5229986  34.0019992  85.4739978 -17.4529986
  34.8089992  86.0949978 -16.3329986  34.0805253  85.7195498 -16.6246178
  29.5329992  79.5719978 -15.8519986  29.2789992  79.5909978 -14.9299986
  29.2759992  78.7009978 -16.1539986  29.4634508  79.4568280 -15.7665197
  25.2989992  82.3229978  -5.4169986  24.6579992  82.2829978  -4.7079986
  25.3369992  83.2499978  -5.6549986  25.2163010  82.4427668  -5.3520054
  25.2959992  82.5439978 -10.5049986  24.4039992  82.2039978 -10.5639986
  25.7469992  82.1669978 -11.2609986  25.2347642  82.4464910 -10.6152274
  30.8319992  82.9599978 -11.6879986  30.4229992  83.7749978 -11.9799986
  31.5519992  82.8199978 -12.3019986  30.8734439  83.0525372 -11.8109885
  29.9339992  83.1359978  -0.1999986  29.3709992  82.4309978   0.1210014
  30.7599992  83.0149978   0.2680014  29.9686674  83.0232165  -0.0928249
  31.8369992  82.4059978  -8.8739986  31.6409992  83.0119978  -9.5889986
  32.0179992  81.5729978  -9.3079986  31.8346584  82.3762513  -9.0305788
  23.0489992  82.6439978  -3.5499986  23.0109992  83.0439978  -2.6809986
  22.5589992  81.8269978  -3.4599986  22.9775330  82.5882674  -3.4188711
  26.4149992  80.0179978 -16.7509986  25.9839992  79.5729978 -16.0219986
  25.6969992  80.3889978 -17.2639986  26.2589176  80.0072051 -16.7205070
  19.6579992  79.7599978  -9.6989986  20.2879992  79.7309978  -8.9799986
  20.1069992  79.3349978 -10.4299986  19.8050835  79.6985660  -9.6992341
  20.9319992  80.5059978 -14.2749986  21.4059992  81.0969978 -14.8599986
  20.2139992  81.0359978 -13.9279986  20.8998640  80.6585511 -14.3082031
  31.1009992  84.0439978  -4.2029986  31.4239992  83.4129978  -4.8459986
  30.6599992  83.5099978  -3.5419986  31.0856379  83.8853468  -4.2017418
  27.8779992  79.9719978  -9.4189986  26.9669992  80.0289978  -9.1299986
  28.3829992  79.9119978  -8.6079986  27.8216873  79.9716826  -9.2698793
  22.7059992  81.6009978 -10.5919986  21.8169992  81.6999978 -10.9319986
  23.0029992  80.7589978 -10.9379986  22.6244177  81.5007687 -10.6853060
  26.3589992  81.6009978 -12.9349986  27.2909992  81.7299978 -12.7569986
  26.1439992  82.2699978 -13.5849986  26.4574472  81.7090806 -12.9985109
  32.2829992  79.2069978  -6.1539986  31.6059992  79.3379978  -5.4909986
  31.7979992  79.0519978  -6.9649986  32.1247405  79.2039947  -6.1727830
  25.0329992  82.7949978 -15.3689986  24.4909992  82.4159978 -16.0599986
  25.8669992  82.9899978 -15.7969986  25.0714390  82.7694079 -15.5215608
  35.5709992  94.8779978   0.1220014  35.7699992  95.3019978  -0.7119986
  36.2259992  95.2219978   0.7290014  35.6868522  94.9826301   0.0897852
  23.1689992  87.3519978  -0.2699986  23.9009992  87.6069978   0.2920014
  22.3879992  87.5569978   0.2460014  23.1636526  87.4145450  -0.1234824
  29.1979992  82.7589978  -7.5319986  29.7619992  82.2129978  -8.0789986
  29.0499992  82.2379978  -6.7429986  29.2553037  82.6136787  -7.5002771
  24.1999992  78.8959978 -11.1129986  23.8829992  77.9929978 -11.1489986
  24.9809992  78.8979978 -11.6659986  24.2622431  78.7727797 -11.1926898
  27.8239992  81.1479978  -5.1179986  26.9889992  81.6019978  -5.0069986
  28.3479992  81.4239978  -4.3659986  27.7806072  81.2473948  -5.0011864
  28.3689992  87.3609978 -13.4329986  27.6239992  86.8529978 -13.7549986
  28.2339992  87.4099978 -12.4869986  28.2488963  87.2981731 -13.3491174
  35.5189992  86.4939978  -4.6459986  36.1599992  86.9499978  -5.1899986
  34.6879992  86.6069978  -5.1089986  35.4945287  86.5716921  -4.7830113
  32.2659992  80.1749978 -15.2339986  31.3279992  80.2859978 -15.3849986
  32.5639992  81.0309978 -14.9269986  32.1776318  80.3060158 -15.2131855
  29.8879992  87.5449978  -2.1959986  29.5419992  87.1629978  -1.3889986
  29.6879992  88.4779978  -2.1249986  29.8135987  87.6189002  -2.0759539
  32.9849992  82.0419978 -13.5729986  33.8769992  81.9039978 -13.2539986
  33.0409992  82.8329978 -14.1099986  33.1147325  82.1299918 -13.6018783
  23.4929992  86.6559978  -7.6629986  24.2379992  86.6529978  -8.2649986
  23.5709992  85.8319978  -7.1819986  23.6053365  86.5442384  -7.6802570
  30.4939992  88.8189978 -14.4079986  30.1989992  89.6459978 -14.0259986
  29.7909992  88.1999978 -14.2109986  30.3586379  88.8484171 -14.3291346
  20.5009992  85.1159978  -2.3479986  20.7239992  84.6979978  -1.5169986
  19.8989992  84.5039978  -2.7709986  20.4501513  84.9759606  -2.2913260
  27.5179992  84.6329978  -0.1349986  27.2219992  84.4679978  -1.0309986
  28.4489992  84.4129978  -0.1459986  27.6034401  84.5806879  -0.2589794
  32.1379992  90.0069978  -2.2459986  31.2379992  90.1899978  -2.5129986
  32.1719992  90.2659978  -1.3249986  32.0193748  90.0670554  -2.1580836
  37.8699992  82.2509978 -13.8779986  37.3149992  81.8549978 -14.5509986
  37.9699992  83.1619978 -14.1559986  37.8076816  82.3199505 -14.0074967
  37.8329992  88.0519978  -1.0409986  36.9819992  88.2899978  -1.4089986
  38.4229992  88.0349978  -1.7939986  37.7963812  88.0822524  -1.1931547
  36.1649992  91.0369978 -13.4129986  35.7919992  90.2119978 -13.1039986
  36.4419992  90.8539978 -14.3109986  36.1513463  90.8992569 -13.4920475
  33.3249992  85.8449978  -6.3919986  32.3969992  85.6139978  -6.4189986
  33.7759992  85.0679978  -6.7219986  33.2588165  85.7082774  -6.4403210
  25.8679992  90.1739978 -10.2589986  26.3959992  90.9469978 -10.4589986
  24.9879992  90.3979978 -10.5609986  25.8213435  90.3102700 -10.3272690
  21.6229992  85.0359978 -15.6719986  22.2389992  85.6629978 -15.2919986
  20.7609992  85.3519978 -15.3999986  21.5907678  85.1644412 -15.5832791
  27.2959992  87.8369978 -10.6829986  27.0549992  88.7619978 -10.6409986
  26.5549992  87.3779978 -10.2859986  27.1629206  87.9015915 -10.6236231
  27.8099992  91.9859978  -4.3679986  28.1729992  92.8399978  -4.6009986
  28.3419992  91.6939978  -3.6269986  27.9315141  92.0633895  -4.2997903
  25.9789992  92.8579978 -11.1369986  25.0289992  92.9639978 -11.0859986
  26.3309992  93.6789978 -10.7929986  25.8965472  92.9834923 -11.0835148
  31.3539992  88.0849978  -4.6669986  30.9289992  87.8569978  -3.8409986
  31.9349992  87.3459978  -4.8489986  31.3743395  87.9539545  -4.5785586
  33.5569992  89.0139978 -15.5929986  33.9109992  88.6339978 -14.7889986
  32.6089992  88.9199978 -15.5059986  33.4772298  88.9492452 -15.4711313
  34.0129992  92.6369978  -2.1979986  33.4109992  92.0809978  -2.6929986
  34.2939992  93.3039978  -2.8239986  33.9685757  92.6510744  -2.3504325
  38.0609992  93.4929978 -15.3919986  38.8049992  94.0789978 -15.5319986
  37.3669992  94.0619978 -15.0589986  38.0689809  93.6500818 -15.3661410
  22.1349992  79.8699978  -2.7899986  21.2429992  80.2079978  -2.8579986
  22.0369992  79.0139978  -2.3719986  21.9994475  79.8006543  -2.7428296
  34.4229992  87.6859978 -13.3659986  34.1459992  86.9579978 -12.8099986
  35.3509992  87.8049978 -13.1609986  34.5104499  87.6024213 -13.2621956
  21.7869992  91.6739978  -4.3549986  22.0039992  90.7419978  -4.3859986
  22.0329992  91.9489978  -3.4719986  21.8499809  91.5835686  -4.2398309
  26.5849992  89.6959978 -14.6899986  26.7319992  89.1759978 -13.8999986
  26.5819992  90.6029978 -14.3829986  26.6047102  89.7473953 -14.5404075
  23.0379992  86.9479978 -14.1789986  22.3519992  87.3009978 -13.6119986
  23.5609992  87.7109978 -14.4259986  23.0148402  87.0993901 -14.1348199
  30.8699992  79.6109978  -3.8999986  31.5689992  79.6849978  -3.2499986
  30.4889992  78.7459978  -3.7459986  30.9142097  79.5042389  -3.7902003
  31.6539992  79.2629978 -12.8029986  31.8739992  79.7339978 -13.6069986
  32.2129992  79.6569978 -12.1329986  31.7596731  79.3807287 -12.8224967
  29.3229992  91.3929978 -13.9399986  28.5059992  91.8899978 -13.8879986
  29.8519992  91.8689978 -14.5809986  29.2828125  91.5251989 -14.0194694
  28.8539992  80.9909978 -11.9679986  29.6659992  81.4949978 -11.9219986
  28.6099992  80.8459978 -11.0539986  28.9321467  81.0403749 -11.8381425
  29.3899992  81.9769978  -2.7839986  29.5089992  82.5509978  -2.0269986
  30.0449992  81.2889978  -2.6689986  29.4948684  81.9625194  -2.6648326
  29.7379992  78.0719978 -11.0299986  29.3909992  78.6889978 -10.3859986
  30.3969992  78.5729978 -11.5119986  29.7795090  78.2241575 -11.0069319
  26.6609992  92.4369978 -13.9589986  26.8219992  93.2369978 -14.4589986
  26.4639992  92.7439978 -13.0739986  26.6563906  92.5878678 -13.9077667
  25.3959992  79.1349978 -14.3429986  25.3119992  80.0229978 -13.9959986
  26.2859992  78.8699978 -14.1109986  25.5048163  79.2207179 -14.2641404
  35.5939992  79.8839978  -1.9489986  34.6779992  80.1459978  -2.0359986
  35.9299992  79.8809978  -2.8449986  35.5138499  79.9195163  -2.0821234
  34.1969992  83.6339978  -7.8529986  33.3989992  83.2189978  -8.1809986
  34.6419992  82.9439978  -7.3619986  34.1479684  83.4838628  -7.8314773
  23.6539992  89.5619978 -15.2829986  24.2459992  90.2619978 -15.0059986
  24.1129992  89.1289978 -16.0019986  23.7971652  89.5992675 -15.3423467
  21.9699992  82.2269978 -16.1669986  21.9249992  83.1659978 -15.9879986
  21.0819992  81.9909978 -16.4359986  21.8438166  82.3236687 -16.1788476
  35.2829992  92.8899978  -6.2309986  35.1269992  93.5689978  -6.8879986
  36.2159992  92.9619978  -6.0279986  35.3877387  92.9926390  -6.2934658
  22.7779992  77.0079978  -7.4929986  22.5489992  77.0669978  -8.4209986
  22.3359992  76.2169978  -7.1869986  22.6868801  76.9090540  -7.5785271
  21.7089992  90.9489978 -11.3329986  20.8759992  91.4209978 -11.3059986
  22.2539992  91.4589978 -11.9319986  21.6687857  91.0824791 -11.4102858
  20.9969992  93.5609978  -0.0029986  21.5369992  93.3449978   0.7570014
  20.5159992  92.7559978  -0.1929986  21.0059219  93.4225156   0.0754282
  25.5939992  92.4809978   1.6170014  26.3619992  92.0219978   1.9580014
  25.5729992  92.2549978   0.6870014  25.6962135  92.3876668   1.5379491
  29.6859992  91.9889978 -17.0069986  29.0419992  91.3579978 -16.6859986
  30.4479992  91.4579978 -17.2389986  29.7008058  91.8307902 -16.9943962
  32.1709992  90.8609978   0.3460014  31.8199992  90.0039978   0.5900014
  32.8969992  91.0029978   0.9530014  32.2211895  90.7631351   0.4613770
  34.2909992  91.8059978 -16.7739986  34.5739992  91.0109978 -16.3209986
  35.0299992  92.0389978 -17.3349986  34.4297096  91.7287049 -16.7878896
  20.9039992  87.3719978   0.9510014  21.0479992  86.4699978   0.6650014
  20.1319992  87.6579978   0.4640014  20.8192733  87.2871798   0.8459532
  25.2449992  87.7149978 -16.9159986  25.3099992  86.9209978 -16.3859986
  25.8979992  87.5969978 -17.6059986  25.3421605  87.5903430 -16.9367003
  27.5589992  87.3409978   0.3840014  27.2309992  87.6119978  -0.4729986
  27.7109992  86.3999978   0.2960014  27.5346412  87.2509046   0.2547822
  33.2939992  87.2569978  -2.2329986  34.0389992  87.8459978  -2.3519986
  32.5369992  87.8389978  -2.1689986  33.2935470  87.4162128  -2.2406201
  21.7369992  84.5719978   0.3710014  22.1449992  83.7149978   0.2500014
  21.4759992  84.5859978   1.2920014  21.7576016  84.4565119   0.4789192
  26.3949992  85.6879978 -14.6099986  25.9349992  85.2039978 -13.9249986
  26.6499992  85.0189978 -15.2459986  26.3664856  85.5313669 -14.6021603
  25.6839992  83.5809978  -2.2539986  25.0649992  84.2549978  -1.9739986
  26.0279992  83.9019978  -3.0879986  25.6457123  83.7166887  -2.3283612
  27.4659992  83.9309978 -16.3479986  27.2849992  83.7759978 -17.2749986
  28.4159992  84.0389978 -16.3029986  27.5696566  83.9243669 -16.4689071
  30.7029992  86.0519978   1.0230014  31.6569992  86.1359978   0.9960014
  30.5429992  85.3399978   1.6430014  30.8117182  85.9672842   1.1030733
  36.8559992  86.2849978 -16.9019986  36.5819992  85.8609978 -17.7149986
  36.8949992  87.2169978 -17.1189986  36.8237716  86.3528827 -17.0425714
  26.0229992  80.9359978  -1.1719986  26.1729992  80.2069978  -1.7739986
  26.0249992  81.7129978  -1.7309986  26.0437967  80.9412708  -1.3299459
  26.4359992  79.3049978  -3.6789986  26.9709992  79.7569978  -4.3309986
  25.5829992  79.1969978  -4.1019986  26.3940374  79.3522665  -3.8253290
  28.0169992  84.7449978  -3.4399986  28.7679992  84.5889978  -4.0129986
  27.6779992  85.5969978  -3.7149986  28.0739587  84.8388138  -3.5555922
  32.4329992  82.5599978   1.5890014  32.6249992  81.6289978   1.4770014
  33.2909992  82.9849978   1.5780014  32.5752182  82.4900070   1.5721862
  33.7499992  85.3489978  -0.3339986  33.4679992  86.0579978  -0.9119986
  34.6919992  85.2759978  -0.4849986  33.8387921  85.4362193  -0.4335775
  24.5019992  82.1339978   0.7390014  23.7339992  81.6009978   0.5290014
  25.1799992  81.8239978   0.1400014  24.4887235  82.0191754   0.6292413
  27.2409992  76.7619978  -3.2479986  27.1429992  77.7079978  -3.3529986
  26.4989992  76.3889978  -3.7239986  27.1272534  76.8411773  -3.3267400
  28.5049992  81.0829978   0.3160014  28.2699992  80.8639978   1.2170014
  27.7219992  80.8759978  -0.1939986  28.3669095  81.0249892   0.3705353
  31.2209992  80.2109978  -0.6089986  30.2729992  80.2429978  -0.4769986
  31.5329992  79.5849978   0.0450014  31.1335293  80.1307923  -0.5025852
  32.8549992  78.8449978   1.3960014  32.7579992  77.8929978   1.3910014
  32.5329992  79.1129978   2.2570014  32.7982468  78.7510884   1.5116210
  22.6819992  80.0539978   0.4440014  22.8939992  79.3479978  -0.1659986
  22.5709992  79.6169978   1.2880014  22.6960269  79.8981921   0.4745873
  27.4629992  76.0559978  -0.5769986  28.1749992  75.4159978  -0.5909986
  27.3619992  76.3219978  -1.4899986  27.5467387  76.0044330  -0.7024437
  27.8169992  77.7379978   1.4770014  27.6849992  77.2629978   0.6570014
  27.2169992  78.4829978   1.4220014  27.7179070  77.7735789   1.3573251
  27.3629992  94.6209978 -15.3469986  28.2959992  94.7789978 -15.2029986
  27.0989992  95.2969978 -15.9719986  27.4549911  94.7339373 -15.4117278
  20.9309992  89.2579978 -15.8639986  21.8449992  89.3369978 -15.5909986
  20.9389992  88.5709978 -16.5299986  21.0570655  89.1759205 -15.9167083
  19.5799992  94.6509978 -10.7869986  18.9329992  94.1889978 -11.3189986
  19.9349992  93.9789978 -10.2039986  19.5393741  94.4969774 -10.7810825
  20.4499992  92.7309978  -8.9819986  20.1159992  91.8509978  -8.8099986
  20.6729992  93.0769978  -8.1169986  20.4343721  92.6571938  -8.8415832
  37.9989992  93.5409978  -6.0009986  37.9769992  93.7259978  -5.0619986
  38.6889992  94.1089978  -6.3419986  38.0893439  93.6431887  -5.9185209
  37.5619992  93.1079978  -3.0799986  37.0749992  92.3729978  -3.4509986
  38.1109992  92.7139978  -2.4019986  37.5695247  92.9541057  -3.0391539
  36.0129992  88.8979978   1.5590014  35.1469992  88.7929978   1.9530014
  36.3889992  89.6559978   2.0050014  35.9453401  88.9861708   1.6732620
  37.3139992  87.1539978 -12.9269986  38.1639992  87.5749978 -12.7999986
  37.3189992  86.4139978 -12.3199986  37.4311143  87.1116094 -12.8275250
  37.7079992  85.2079978 -11.1039986  36.9819992  84.7279978 -10.7059986
  38.2899992  85.4129978 -10.3709986  37.6872730  85.1700184 -10.9505851
  37.4669992  87.9929978  -6.1559986  38.3009992  87.6149978  -6.4369986
  37.5789992  88.9359978  -6.2749986  37.5961917  88.0687943  -6.2105139
  35.9539992  90.8709978  -3.8489986  35.3059992  91.1959978  -3.2239986
  35.4359992  90.4299978  -4.5229986  35.7954196  90.8558651  -3.8545848
  37.9769992  85.1089978 -14.7129986  37.4549992  85.4649978 -15.4309986
  37.9439992  85.7839978 -14.0339986  37.9010129  85.2489598 -14.7196645
  36.3259992  82.3479978 -16.1619986  36.4219992  83.0149978 -16.8419986
  36.1859992  81.5329978 -16.6429986  36.3202040  82.3290671 -16.3201622
  35.4949992  83.7289978 -10.5409986  35.3449992  82.7839978 -10.5609986
  35.1409992  84.0099978  -9.6969986  35.4266351  83.6376644 -10.4296780
  20.5299992  85.8069978  -6.5299986  20.7149992  85.7249978  -7.4659986
  21.3799992  85.6829978  -6.1069986  20.6700928  85.7790463  -6.6007107
  36.3509992  85.6989978  -0.9019986  36.9339992  84.9639978  -0.7099986
  36.9149992  86.4709978  -0.8549986  36.5069781  85.7028145  -0.8693836
  37.8479992  83.6019978  -0.2169986  36.9849992  83.2229978  -0.3829986
  38.4519992  82.8629978  -0.2919986  37.8116085  83.4503223  -0.2498306
  35.5729992  79.7559978 -17.0439986  36.1839992  79.3849978 -16.4069986
  34.7359992  79.3349978 -16.8479986  35.5434947  79.6482756 -16.9302748
  35.2059992  81.3109978 -12.0779986  35.4849992  80.4039978 -11.9539986
  35.9649992  81.7449978 -12.4669986  35.3468619  81.2454502 -12.1136205
  35.8169992  81.8929978  -6.6419986  36.7499992  82.1049978  -6.6769986
  35.5819992  81.9939978  -5.7199986  35.9129517  81.9356833  -6.5220870
  35.8469992  82.6299978  -3.8659986  35.0039992  82.8979978  -3.4999986
  36.2889992  83.4519978  -4.0769986  35.7914138  82.7778273  -3.8444482
  20.1279992  81.0769978  -0.3899986  21.0469992  80.9549978  -0.1529986
  19.6779992  80.3269978   0.0000014  20.1930087  80.9589608  -0.3048590
  38.1299992  76.6099978   1.4870014  38.4789992  75.9559978   0.8820014
  38.2769992  77.4469978   1.0470014  38.1976824  76.6336024   1.3446304
  35.8189992  78.5739978 -12.0299986  36.0009992  78.1249978 -11.2049986
  35.2189992  77.9899978 -12.4939986  35.7628187  78.4335552 -11.9797261
  21.3489992  79.3899978  -7.4979986  21.7939992  78.5979978  -7.1959986
  21.8149992  80.1059978  -7.0679986  21.4729718  79.3784534  -7.3984735
  19.6529992  82.3889978  -6.4289986  20.1449992  82.1679978  -7.2199986
  20.0149992  83.2289978  -6.1479986  19.7692923  82.4723468  -6.4992593
  37.6489992  78.7189978  -0.1639986  36.7319992  78.9899978  -0.1989986
  37.7719992  78.1839978  -0.9479986  37.5399672  78.6837885  -0.2748138
  37.6859992  78.6419978 -15.5019986  38.0979992  77.9209978 -15.9769986
  38.3669992  79.3109978 -15.4439986  37.8345536  78.6337766 -15.5591976
  19.9669992  78.6469978 -12.3749986  19.0419992  78.8549978 -12.5039986
  20.4209992  79.1309978 -13.0649986  19.9016298  78.7409299 -12.4859549
  34.7369992  93.6309978 -10.4289986  35.3899992  93.2829978 -11.0369986
  35.2479992  94.1189978  -9.7829986  34.8952777  93.6493815 -10.4247953
  19.9299992  77.3849978  -4.0309986  19.2649992  77.1389978  -3.3879986
  19.4869992  78.0069978  -4.6079986  19.7791168  77.4354214  -4.0210152
  22.1219992  90.5599978   0.1140014  21.3009992  90.7349978  -0.3469986
  21.8699992  90.4869978   1.0340014  21.9755594  90.5740717   0.1753611
  25.0759992  91.5339978  -3.6279986  24.6519992  92.3439978  -3.9099986
  25.9809992  91.6199978  -3.9299986  25.1402138  91.6564160  -3.7073585
  29.3879992  92.9329978  -0.6679986  29.5719992  92.5999978   0.2100014
  30.2339992  93.2429978  -0.9899986  29.5276484  92.9292979  -0.5912383
  31.7329992  94.2189978  -1.4239986  32.4099992  93.5859978  -1.6639986
  32.0539992  94.6199978  -0.6169986  31.8691323  94.1865691  -1.3476842
  36.6499992  76.8089978  -2.3449986  35.8369992  77.1339978  -2.7319986
  36.8829992  76.0479978  -2.8779986  36.5701347  76.7506880  -2.4700159
  22.4779992  94.7909978  -3.5799986  21.7579992  95.2309978  -4.0309986
  22.1129992  94.5399978  -2.7319986  22.3299643  94.8173369  -3.5270871
  24.9449992  94.3909978  -4.5499986  24.0809992  94.4629978  -4.1459986
  24.8899992  94.9379978  -5.3339986  24.8191942  94.4747849  -4.6006000
  29.6559992  94.2789978  -5.3749986  29.1989992  94.8079978  -6.0289986
  29.8189992  94.8819978  -4.6499986  29.6154960  94.4329280  -5.3664726
  31.9839992  93.1569978  -4.4299986  31.0789992  93.3219978  -4.6959986
  32.4119992  94.0099978  -4.4959986  31.9181537  93.2949134  -4.4752905
  34.5879992  94.7269978  -4.1349986  34.4059992  95.6429978  -4.3459986
  34.7649992  94.3159978  -4.9819986  34.5870030  94.7968273  -4.2782834
  21.8929992  93.4139978  -6.6699986  21.8749992  92.9879978  -5.8129986
  22.6979992  93.0949978  -7.0789986  21.9992875  93.3126435  -6.6080485
  24.0339992  92.1239978  -8.0149986  23.8149992  91.2069978  -7.8449986
  24.8579992  92.2639978  -7.5489986  24.1154702  92.0175511  -7.9287473
  26.5709992  92.5939978  -7.1659986  26.7839992  91.7059978  -7.4529986
  26.6359992  92.5589978  -6.2119986  26.6089149  92.4678326  -7.0762631
  30.0799992  78.2579978  -8.0219986  29.4059992  77.6279978  -7.7659986
  30.6439992  77.7739978  -8.6249986  30.0640384  78.1063708  -8.0684980
  35.2229992  76.3649978  -7.9089986  35.8259992  76.9129978  -8.4109986
  34.3529992  76.6839978  -8.1499986  35.1879157  76.4830373  -8.0102090
  36.9499992  77.5039978  -9.5759986  37.5609992  76.9899978 -10.1029986
  37.3319992  78.3809978  -9.5529986  37.0853305  77.5522050  -9.6450582
  22.4069992  76.8919978 -10.1999986  21.6299992  76.6569978 -10.7069986
  22.9369992  76.0949978 -10.1909986  22.3723451  76.7521268 -10.2681373
  21.2429992  76.6899978 -14.3959986  21.6819992  77.3009978 -14.9879986
  20.6089992  77.2279978 -13.9219986  21.2173859  76.8464064 -14.4129695
  26.9859992  76.8179978 -10.3869986  27.8599992  77.2069978 -10.4159986
  26.8499992  76.6029978  -9.4639986  27.0871953  76.8421643 -10.2662383
  32.5429992  76.8479978  -8.7369986  32.6189992  76.9439978  -9.6869986
  32.2679992  75.9409978  -8.6089986  32.5161871  76.7384146  -8.8496056
  33.8959992  76.8739978 -13.0449986  33.1929992  77.4889978 -13.2549986
  33.4509992  76.0369978 -12.9139986  33.7396550  76.8449668 -13.0560163
  21.1439992  92.6379978 -13.4989986  20.4589992  92.5999978 -14.1659986
  21.1479992  93.5509978 -13.2109986  21.0507621  92.7561924 -13.5513874
  23.1039992  78.6059978 -15.9539986  23.5949992  77.9759978 -16.4809986
  23.7269992  78.9019978 -15.2909986  23.2555304  78.5597376 -15.9365060
  28.1299992  78.8989978 -13.4969986  28.3079992  78.2519978 -12.8139986
  28.0759992  79.7329978 -13.0299986  28.1470678  78.9231604 -13.3403699
  30.0079992  93.8469978 -15.1009986  30.8739992  94.2139978 -15.2789986
  29.7619992  93.4079978 -15.9149986  30.0932097  93.8378525 -15.2353981
  36.7169992  93.4099978 -12.4219986  36.5229992  92.6619978 -12.9869986
  36.6779992  94.1679978 -13.0049986  36.6851645  93.4100786 -12.5781852
  22.3639992  77.4059978  -0.6819986  21.9979992  76.6399978  -0.2399986
  23.2769992  77.4349978  -0.3959986  22.4373172  77.3050324  -0.5828110
  24.3369992  76.7559978   0.8530014  25.2359992  76.4819978   0.6690014
  23.9509992  76.0139978   1.3180014  24.4077307  76.6182196   0.8907098
  22.9619992  93.5579978 -16.4739986  22.6939992  93.8439978 -15.5999986
  23.7329992  93.0119978 -16.3209986  23.0295926  93.5232779 -16.3338795
  32.7589992  76.0889978   1.0360014  32.8349992  75.6629978   1.8890014
  33.6519992  76.1019978   0.6930014  32.8902303  76.0323493   1.1065497
  35.9349992  92.1619978  -0.2719986  35.1529992  91.9749978  -0.7919986
  35.8629992  93.0909978  -0.0549986  35.8181924  92.2620637  -0.3138398
  50.3409992  86.0479978 -10.2409986  50.4299992  86.9919978 -10.3729986
  49.7029992  85.7729978 -10.8989986  50.2669061  86.1399812 -10.3480359
  49.2739992  85.3029978  -6.8219986  49.2359992  84.6569978  -6.1169986
  48.9519992  84.8359978  -7.5929986  49.2252679  85.1514276  -6.8297079
  41.6419992  84.9169978  -5.2289986  41.6839992  84.2919978  -4.5059986
  42.3449992  85.5409978  -5.0469986  41.7427345  84.9157873  -5.1054727
  52.9799992  88.2419978  -8.5209986  52.5389992  87.5219978  -8.0699986
  52.9669992  88.9629978  -7.8909986  52.9179215  88.2409291  -8.3741895
  42.5659992  89.3669978  -6.6939986  42.1959992  88.5649978  -7.0639986
  43.5069992  89.1989978  -6.6479986  42.6425984  89.2344638  -6.7384397
  39.1759992  83.0269978 -11.3019986  38.7279992  83.8729978 -11.3199986
  38.6149992  82.4479978 -11.8169986  39.0388546  83.0643993 -11.3741109
  39.8859992  85.1889978  -9.1759986  40.0999992  84.4189978  -8.6479986
  40.6239992  85.2789978  -9.7789986  40.0150200  85.0958587  -9.1852965
  50.0919992  93.3459978  -8.3089986  50.7109992  92.6699978  -8.5819986
  49.8829992  93.1279978  -7.3999986  50.1486056  93.2238869  -8.2236033
  47.6629992  87.7349978  -6.4159986  47.9669992  87.0489978  -7.0109986
  48.3849992  87.8539978  -5.7979986  47.8021240  87.6572314  -6.4139041
  56.3259992  79.3369978  -5.5559986  56.3759992  79.9469978  -4.8199986
  56.7519992  79.7979978  -6.2789986  56.3904108  79.4827709  -5.5529888
  50.8039992  82.1289978  -6.0889986  50.9469992  81.1829978  -6.0689986
  50.6979992  82.3359978  -7.0169986  50.8092403  82.0274797  -6.2117761
  43.9589992  80.2309978  -8.8159986  44.0019992  81.0909978  -9.2349986
  43.5009992  79.6789978  -9.4499986  43.9029871  80.2739245  -8.9589239
  51.6809992  80.3619978 -10.4149986  52.3279992  80.0329978  -9.7909986
  52.1909992  80.8789978 -11.0379986  51.8384351  80.3869067 -10.4138963
  40.5789992  82.6279978  -8.0539986  41.2329992  82.0779978  -7.6219986
  40.6029992  82.3539978  -8.9709986  40.6717199  82.5157167  -8.1188332
  45.7359992  84.1779978  -8.8389986  46.3519992  83.6509978  -8.3299986
  45.1489992  83.5379978  -9.2429986  45.7410154  84.0193954  -8.8239055
  56.7179992  80.8149978  -3.3199986  56.0289992  81.4729978  -3.4149986
  56.7329992  80.6169978  -2.3829986  56.6257756  80.8782603  -3.2064188
  42.7689992  79.1489978  -4.7419986  42.5499992  79.6789978  -5.5089986
  42.1009992  79.3749978  -4.0949986  42.6486975  79.2520967  -4.7594860
  50.1379992  88.6489978 -11.1979986  49.8429992  88.3259978 -12.0499986
  49.8139992  89.5489978 -11.1569986  50.0538460  88.7264464 -11.3090286
  45.3379992  86.8239978  -4.4549986  44.5979992  87.4229978  -4.3509986
  46.0519992  87.3779978  -4.7699986  45.3333500  86.9807829  -4.4833629
  53.4449992  79.6529978  -8.4349986  53.2299992  78.8869978  -7.9019986
  54.1009992  80.1249978  -7.9219986  53.5042673  79.6120728  -8.2928010
  42.3629992  81.0409978  -6.7899986  42.9769992  81.6739978  -6.4169986
  42.8749992  80.5689978  -7.4459986  42.5161962  81.0637249  -6.8277065
  43.7459992  88.7889978  -3.6679986  43.7399992  89.6679978  -4.0459986
  42.8919992  88.7049978  -3.2429986  43.6297925  88.8979535  -3.6623113
  39.8669992  88.4599978 -12.8859986  39.5949992  88.6889978 -13.7739986
  39.9119992  89.2969978 -12.4249986  39.8358097  88.6046163 -12.9453317
  53.4919992  90.0809978  -6.1729986  52.5499992  90.1399978  -6.0109986
  53.7679992  90.9869978  -6.3099986  53.4005865  90.2115288  -6.1693808
  53.7919992  78.3679978  -4.7559986  53.0559992  78.9779978  -4.7929986
  54.4759992  78.7829978  -5.2819986  53.7835367  78.5077551  -4.8321826
  46.7959992  76.4539978  -7.2899986  46.6779992  75.5059978  -7.3439986
  45.9409992  76.7869978  -7.0169986  46.6642805  76.3692202  -7.2604921
  51.7439992  91.8619978  -9.5479986  52.1689992  91.1549978 -10.0329986
  52.0609992  92.6639978  -9.9649986  51.8450266  91.8735190  -9.6707521
  52.9039992  89.7629978 -11.0389986  52.6459992  89.0729978 -11.6509986
  52.9749992  89.3199978 -10.1939986  52.8783050  89.6086814 -11.0084379
  54.5899992  88.3299978  -2.5619986  54.7289992  87.7379978  -3.3009986
  54.7569992  89.2029978  -2.9179986  54.6316193  88.3668896  -2.7113789
  49.0619992  85.2919978 -12.7889986  48.3509992  85.8269978 -13.1409986
  49.7529992  85.3469978 -13.4489986  49.0580751  85.3726777 -12.9264142
  49.1159992  83.7489978 -15.7509986  49.8169992  83.7719978 -15.0989986
  49.4179992  83.1209978 -16.4069986  49.2528202  83.6672212 -15.7504391
  56.4309992  84.6699978  -4.4959986  55.7789992  85.3639978  -4.4069986
  56.8969992  84.8799978  -5.3059986  56.4045937  84.7935019  -4.5932467
  52.4679992  85.5009978 -11.8379986  51.7359992  85.7299978 -11.2639986
  52.9149992  84.7879978 -11.3829986  52.4283963  85.4358729 -11.6980055
  52.3649992  83.6759978  -2.7699986  52.4449992  84.4389978  -2.1979986
  51.7639992  83.9549978  -3.4599986  52.2946547  83.8182457  -2.7849953
  44.1129992  86.1319978  -9.9549986  43.7829992  85.7609978 -10.7729986
  44.7019992  85.4609978  -9.6079986  44.1473970  85.9906063 -10.0200596
  45.4799992  89.5599978  -7.2739986  45.3849992  88.9809978  -8.0299986
  46.2089992  89.1889978  -6.7779986  45.5656011  89.4305561  -7.3103972
  44.4799992  84.8999978  -6.3219986  45.0449992  85.0219978  -7.0839986
  44.7989992  85.5379978  -5.6829986  44.6004166  85.0028791  -6.3399652
  50.7889992  90.4039978  -5.5879986  50.5489992  91.0659978  -4.9399986
  50.5909992  89.5689978  -5.1629986  50.7293826  90.3818115  -5.4418434
  45.3599992  89.2999978  -1.6039986  45.0489992  90.0819978  -1.1489986
  44.7099992  89.1469978  -2.2899986  45.2295538  89.3864087  -1.6344102
  51.3389992  84.6639978 -14.1519986  51.9179992  84.8139978 -13.4059986
  51.7529992  85.1339978 -14.8759986  51.4743358  84.7480955 -14.1476047
  42.2799992  85.4979978  -2.3759986  42.3499992  86.1489978  -1.6769986
  41.3889992  85.6009978  -2.7109986  42.1691690  85.6009249  -2.3256957
  49.0649992  91.3999978 -10.7169986  49.5389992  91.6959978  -9.9399986
  48.5019992  92.1389978 -10.9499986  49.0537890  91.5403036 -10.6421899
  43.5989992  91.3709978  -0.8409986  43.6069992  91.2349978  -1.7879986
  42.6829992  91.2539978  -0.5889986  43.4762528  91.3365463  -0.9366757
  55.0379992  76.4139978 -14.3389986  54.1379992  76.5529978 -14.0439986
  55.2899992  77.2449978 -14.7409986  54.9488683  76.5454055 -14.3529768
  43.1039992  85.2009978 -12.3659986  42.8119992  85.9689978 -12.8569986
  42.4289992  84.5419978 -12.5289986  42.9728497  85.2169745 -12.4551740
  56.2269992  90.7799978 -15.9629986  56.2999992  91.7189978 -15.7929986
  57.1319992  90.4749978 -16.0189986  56.3594170  90.8673282 -15.9472937
  39.1969992  87.5639978  -3.5509986  38.6949992  87.5359978  -4.3659986
  39.2019992  86.6589978  -3.2409986  39.1289832  87.4377486  -3.6205879
  38.9469992  90.3449978  -6.6669986  39.8929992  90.1999978  -6.6859986
  38.8339992  91.1289978  -6.1299986  39.0613578  90.4311697  -6.5969683
  57.1449992  91.0109978  -0.9839986  57.0949992  90.0549978  -1.0219986
  56.3179992  91.2779978  -0.5829986  57.0263831  90.9164680  -0.9349879
  48.1229992  90.5849978  -2.1079986  48.2109992  91.4109978  -1.6329986
  47.2599992  90.2549978  -1.8589986  48.0183357  90.6535468  -2.0092347
  48.5379992  94.3569978 -12.3019986  48.4619992  94.2359978 -13.2489986
  48.5699992  95.3059978 -12.1839986  48.5319380  94.4687677 -12.4154819
  42.1909992  93.1459978 -10.5209986  42.3429992  92.7979978  -9.6429986
  41.3399992  92.7889978 -10.7769986  42.0968344  93.0500879 -10.4353132
  51.6389992  93.5109978 -15.2999986  52.0139992  92.7669978 -15.7709986
  51.6439992  93.2409978 -14.3819986  51.6910098  93.3726392 -15.2403371
  51.3079992  93.4369978 -12.5509986  50.3729992  93.5369978 -12.3719986
  51.5879992  92.7269978 -11.9719986  51.2179471  93.3547933 -12.4483305
  54.2969992  82.5039978  -0.5039986  53.8889992  82.9839978  -1.2249986
  54.3369992  81.5979978  -0.8119986  54.2466221  82.4472449  -0.6441733
  41.4459992  88.8879978  -2.5079986  41.6619992  88.5259978  -1.6479986
  40.5899992  88.5129978  -2.7169986  41.3598810  88.7878837  -2.4187320
  44.0639992  77.3579978  -6.5119986  43.2029992  77.2709978  -6.9199986
  44.0419992  78.2139978  -6.0839986  43.9430491  77.4618003  -6.5100418
  48.7269992  77.0799978  -3.1369986  49.1469992  76.6649978  -2.3839986
  47.7939992  76.9009978  -3.0199986  48.6583736  76.9989910  -3.0181032
  52.0539992  80.8349978  -2.2839986  51.5399992  80.7099978  -1.4859986
  51.8979992  81.7479978  -2.5279986  51.9626967  80.9412123  -2.2079063
  52.8159992  85.6959978 -16.5229986  52.8579992  85.4739978 -17.4529986
  53.6649992  86.0949978 -16.3329986  52.9365253  85.7195498 -16.6246178
  48.3889992  79.5719978 -15.8519986  48.1349992  79.5909978 -14.9299986
  48.1319992  78.7009978 -16.1539986  48.3194508  79.4568280 -15.7665197
  44.1549992  82.3229978  -5.4169986  43.5139992  82.2829978  -4.7079986
  44.1929992  83.2499978  -5.6549986  44.0723010  82.4427668  -5.3520054
  44.1519992  82.5439978 -10.5049986  43.2599992  82.2039978 -10.5639986
  44.6029992  82.1669978 -11.2609986  44.0907642  82.4464910 -10.6152274
  49.6879992  82.9599978 -11.6879986  49.2789992  83.7749978 -11.9799986
  50.4079992  82.8199978 -12.3019986  49.7294439  83.0525372 -11.8109885
  48.7899992  83.1359978  -0.1999986  48.2269992  82.4309978   0.1210014
  49.6159992  83.0149978   0.2680014  48.8246674  83.0232165  -0.0928249
  50.6929992  82.4059978  -8.8739986  50.4969992  83.0119978  -9.5889986
  50.8739992  81.5729978  -9.3079986  50.6906584  82.3762513  -9.0305788
  41.9049992  82.6439978  -3.5499986  41.8669992  83.0439978  -2.6809986
  41.4149992  81.8269978  -3.4599986  41.8335330  82.5882674  -3.4188711
  45.2709992  80.0179978 -16.7509986  44.8399992  79.5729978 -16.0219986
  44.5529992  80.3889978 -17.2639986  45.1149176  80.0072051 -16.7205070
  38.5139992  79.7599978  -9.6989986  39.1439992  79.7309978  -8.9799986
  38.9629992  79.3349978 -10.4299986  38.6610835  79.6985660  -9.6992341
  39.7879992  80.5059978 -14.2749986  40.2619992  81.0969978 -14.8599986
  39.0699992  81.0359978 -13.9279986  39.7558640  80.6585511 -14.3082031
  49.9569992  84.0439978  -4.2029986  50.2799992  83.4129978  -4.8459986
  49.5159992  83.5099978  -3.5419986  49.9416379  83.8853468  -4.2017418
  46.7339992  79.9719978  -9.4189986  45.8229992  80.0289978  -9.1299986
  47.2389992  79.9119978  -8.6079986  46.6776873  79.9716826  -9.2698793
  41.5619992  81.6009978 -10.5919986  40.6729992  81.6999978 -10.9319986
  41.8589992  80.7589978 -10.9379986  41.4804177  81.5007687 -10.6853060
  45.2149992  81.6009978 -12.9349986  46.1469992  81.7299978 -12.7569986
  44.9999992  82.2699978 -13.5849986  45.3134472  81.7090806 -12.9985109
  51.1389992  79.2069978  -6.1539986  50.4619992  79.3379978  -5.4909986
  50.6539992  79.0519978  -6.9649986  50.9807405  79.2039947  -6.1727830
  43.8889992  82.7949978 -15.3689986  43.3469992  82.4159978 -16.0599986
  44.7229992  82.9899978 -15.7969986  43.9274390  82.7694079 -15.5215608
  54.4269992  94.8779978   0.1220014  54.6259992  95.3019978  -0.7119986
  55.0819992  95.2219978   0.7290014  54.5428522  94.9826301   0.0897852
  42.0249992  87.3519978  -0.2699986  42.7569992  87.6069978   0.2920014
  41.2439992  87.5569978   0.2460014  42.0196526  87.4145450  -0.1234824
  48.0539992  82.7589978  -7.5319986  48.6179992  82.2129978  -8.0789986
  47.9059992  82.2379978  -6.7429986  48.1113037  82.6136787  -7.5002771
  43.0559992  78.8959978 -11.1129986  42.7389992  77.9929978 -11.1489986
  43.8369992  78.8979978 -11.6659986  43.1182431  78.7727797 -11.1926898
  46.6799992  81.1479978  -5.1179986  45.8449992  81.6019978  -5.0069986
  47.2039992  81.4239978  -4.3659986  46.6366072  81.2473948  -5.0011864
  47.2249992  87.3609978 -13.4329986  46.4799992  86.8529978 -13.7549986
  47.0899992  87.4099978 -12.4869986  47.1048963  87.2981731 -13.3491174
  54.3749992  86.4939978  -4.6459986  55.0159992  86.9499978  -5.1899986
  53.5439992  86.6069978  -5.1089986  54.3505287  86.5716921  -4.7830113
  51.1219992  80.1749978 -15.2339986  50.1839992  80.2859978 -15.3849986
  51.4199992  81.0309978 -14.9269986  51.0336318  80.3060158 -15.2131855
  48.7439992  87.5449978  -2.1959986  48.3979992  87.1629978  -1.3889986
  48.5439992  88.4779978  -2.1249986  48.6695987  87.6189002  -2.0759539
  51.8409992  82.0419978 -13.5729986  52.7329992  81.9039978 -13.2539986
  51.8969992  82.8329978 -14.1099986  51.9707325  82.1299918 -13.6018783
  42.3489992  86.6559978  -7.6629986  43.0939992  86.6529978  -8.2649986
  42.4269992  85.8319978  -7.1819986  42.4613365  86.5442384  -7.6802570
  49.3499992  88.8189978 -14.4079986  49.0549992  89.6459978 -14.0259986
  48.6469992  88.1999978 -14.2109986  49.2146379  88.8484171 -14.3291346
  39.3569992  85.1159978  -2.3479986  39.5799992  84.6979978  -1.5169986
  38.7549992  84.5039978  -2.7709986  39.3061513  84.9759606  -2.2913260
  46.3739992  84.6329978  -0.1349986  46.0779992  84.4679978  -1.0309986
  47.3049992  84.4129978  -0.1459986  46.4594401  84.5806879  -0.2589794
  50.9939992  90.0069978  -2.2459986  50.0939992  90.1899978  -2.5129986
  51.0279992  90.2659978  -1.3249986  50.8753748  90.0670554  -2.1580836
  56.7259992  82.2509978 -13.8779986  56.1709992  81.8549978 -14.5509986
  56.8259992  83.1619978 -14.1559986  56.6636816  82.3199505 -14.0074967
  56.6889992  88.0519978  -1.0409986  55.8379992  88.2899978  -1.4089986
  57.2789992  88.0349978  -1.7939986  56.6523812  88.0822524  -1.1931547
  55.0209992  91.0369978 -13.4129986  54.6479992  90.2119978 -13.1039986
  55.2979992  90.8539978 -14.3109986  55.0073463  90.8992569 -13.4920475
  52.1809992  85.8449978  -6.3919986  51.2529992  85.6139978  -6.4189986
  52.6319992  85.0679978  -6.7219986  52.1148165  85.7082774  -6.4403210
  44.7239992  90.1739978 -10.2589986  45.2519992  90.9469978 -10.4589986
  43.8439992  90.3979978 -10.5609986  44.6773435  90.3102700 -10.3272690
  40.4789992  85.0359978 -15.6719986  41.0949992  85.6629978 -15.2919986
  39.6169992  85.3519978 -15.3999986  40.4467678  85.1644412 -15.5832791
  46.1519992  87.8369978 -10.6829986  45.9109992  88.7619978 -10.6409986
  45.4109992  87.3779978 -10.2859986  46.0189206  87.9015915 -10.6236231
  46.6659992  91.9859978  -4.3679986  47.0289992  92.8399978  -4.6009986
  47.1979992  91.6939978  -3.6269986  46.7875141  92.0633895  -4.2997903
  44.8349992  92.8579978 -11.1369986  43.8849992  92.9639978 -11.0859986
  45.1869992  93.6789978 -10.7929986  44.7525472  92.9834923 -11.0835148
  50.2099992  88.0849978  -4.6669986  49.7849992  87.8569978  -3.8409986
  50.7909992  87.3459978  -4.8489986  50.2303395  87.9539545  -4.5785586
  52.4129992  89.0139978 -15.5929986  52.7669992  88.6339978 -14.7889986
  51.4649992  88.9199978 -15.5059986  52.3332298  88.9492452 -15.4711313
  52.8689992  92.6369978  -2.1979986  52.2669992  92.0809978  -2.6929986
  53.1499992  93.3039978  -2.8239986  52.8245757  92.6510744  -2.3504325
  56.9169992  93.4929978 -15.3919986  57.6609992  94.0789978 -15.5319986
  56.2229992  94.0619978 -15.0589986  56.9249809  93.6500818 -15.3661410
  40.9909992  79.8699978  -2.7899986  40.0989992  80.2079978  -2.8579986
  40.8929992  79.0139978  -2.3719986  40.8554475  79.8006543  -2.7428296
  53.2789992  87.6859978 -13.3659986  53.0019992  86.9579978 -12.8099986
  54.2069992  87.8049978 -13.1609986  53.3664499  87.6024213 -13.2621956
  40.6429992  91.6739978  -4.3549986  40.8599992  90.7419978  -4.3859986
  40.8889992  91.9489978  -3.4719986  40.7059809  91.5835686  -4.2398309
  45.4409992  89.6959978 -14.6899986  45.5879992  89.1759978 -13.8999986
  45.4379992  90.6029978 -14.3829986  45.4607102  89.7473953 -14.5404075
  41.8939992  86.9479978 -14.1789986  41.2079992  87.3009978 -13.6119986
  42.4169992  87.7109978 -14.4259986  41.8708402  87.0993901 -14.1348199
  49.7259992  79.6109978  -3.8999986  50.4249992  79.6849978  -3.2499986
  49.3449992  78.7459978  -3.7459986  49.7702097  79.5042389  -3.7902003
  50.5099992  79.2629978 -12.8029986  50.7299992  79.7339978 -13.6069986
  51.0689992  79.6569978 -12.1329986  50.6156731  79.3807287 -12.8224967
  48.1789992  91.3929978 -13.9399986  47.3619992  91.8899978 -13.8879986
  48.7079992  91.8689978 -14.5809986  48.1388125  91.5251989 -14.0194694
  47.7099992  80.9909978 -11.9679986  48.5219992  81.4949978 -11.9219986
  47.4659992  80.8459978 -11.0539986  47.7881467  81.0403749 -11.8381425
  48.2459992  81.9769978  -2.7839986  48.3649992  82.5509978  -2.0269986
  48.9009992  81.2889978  -2.6689986  48.3508684  81.9625194  -2.6648326
  48.5939992  78.0719978 -11.0299986  48.2469992  78.6889978 -10.3859986
  49.2529992  78.5729978 -11.5119986  48.6355090  78.2241575 -11.0069319
  45.5169992  92.4369978 -13.9589986  45.6779992  93.2369978 -14.4589986
  45.3199992  92.7439978 -13.0739986  45.5123906  92.5878678 -13.9077667
  44.2519992  79.1349978 -14.3429986  44.1679992  80.0229978 -13.9959986
  45.1419992  78.8699978 -14.1109986  44.3608163  79.2207179 -14.2641404
  54.4499992  79.8839978  -1.9489986  53.5339992  80.1459978  -2.0359986
  54.7859992  79.8809978  -2.8449986  54.3698499  79.9195163  -2.0821234
  53.0529992  83.6339978  -7.8529986  52.2549992  83.2189978  -8.1809986
  53.4979992  82.9439978  -7.3619986  53.0039684  83.4838628  -7.8314773
  42.5099992  89.5619978 -15.2829986  43.1019992  90.2619978 -15.0059986
  42.9689992  89.1289978 -16.0019986  42.6531652  89.5992675 -15.3423467
  40.8259992  82.2269978 -16.1669986  40.7809992  83.1659978 -15.9879986
  39.9379992  81.9909978 -16.4359986  40.6998166  82.3236687 -16.1788476
  54.1389992  92.8899978  -6.2309986  53.9829992  93.5689978  -6.8879986
  55.0719992  92.9619978  -6.0279986  54.2437387  92.9926390  -6.2934658
  41.6339992  77.0079978  -7.4929986  41.4049992  77.0669978  -8.4209986
  41.1919992  76.2169978  -7.1869986  41.5428801  76.9090540  -7.5785271
  40.5649992  90.9489978 -11.3329986  39.7319992  91.4209978 -11.3059986
  41.1099992  91.4589978 -11.9319986  40.5247857  91.0824791 -11.4102858
  39.8529992  93.5609978  -0.0029986  40.3929992  93.3449978   0.7570014
  39.3719992  92.7559978  -0.1929986  39.8619219  93.4225156   0.0754282
  44.4499992  92.4809978   1.6170014  45.2179992  92.0219978   1.9580014
  44.4289992  92.2549978   0.6870014  44.5522135  92.3876668   1.5379491
  48.5419992  91.9889978 -17.0069986  47.8979992  91.3579978 -16.6859986
  49.3039992  91.4579978 -17.2389986  48.5568058  91.8307902 -16.9943962
  51.0269992  90.8609978   0.3460014  50.6759992  90.0039978   0.5900014
  51.7529992  91.0029978   0.9530014  51.0771895  90.7631351   0.4613770
  53.1469992  91.8059978 -16.7739986  53.4299992  91.0109978 -16.3209986
  53.8859992  92.0389978 -17.3349986  53.2857096  91.7287049 -16.7878896
  39.7599992  87.3719978   0.9510014  39.9039992  86.4699978   0.6650014
  38.9879992  87.6579978   0.4640014  39.6752733  87.2871798   0.8459532
  44.1009992  87.7149978 -16.9159986  44.1659992  86.9209978 -16.3859986
  44.7539992  87.5969978 -17.6059986  44.1981605  87.5903430 -16.9367003
  46.4149992  87.3409978   0.3840014  46.0869992  87.6119978  -0.4729986
  46.5669992  86.3999978   0.2960014  46.3906412  87.2509046   0.2547822
  52.1499992  87.2569978  -2.2329986  52.8949992  87.8459978  -2.3519986
  51.3929992  87.8389978  -2.1689986  52.1495470  87.4162128  -2.2406201
  40.5929992  84.5719978   0.3710014  41.0009992  83.7149978   0.2500014
  40.3319992  84.5859978   1.2920014  40.6136016  84.4565119   0.4789192
  45.2509992  85.6879978 -14.6099986  44.7909992  85.2039978 -13.9249986
  45.5059992  85.0189978 -15.2459986  45.2224856  85.5313669 -14.6021603
  44.5399992  83.5809978  -2.2539986  43.9209992  84.2549978  -1.9739986
  44.8839992  83.9019978  -3.0879986  44.5017123  83.7166887  -2.3283612
  46.3219992  83.9309978 -16.3479986  46.1409992  83.7759978 -17.2749986
  47.2719992  84.0389978 -16.3029986  46.4256566  83.9243669 -16.4689071
  49.5589992  86.0519978   1.0230014  50.5129992  86.1359978   0.9960014
  49.3989992  85.3399978   1.6430014  49.6677182  85.9672842   1.1030733
  55.7119992  86.2849978 -16.9019986  55.4379992  85.8609978 -17.7149986
  55.7509992  87.2169978 -17.1189986  55.6797716  86.3528827 -17.0425714
  44.8789992  80.9359978  -1.1719986  45.0289992  80.2069978  -1.7739986
  44.8809992  81.7129978  -1.7309986  44.8997967  80.9412708  -1.3299459
  45.2919992  79.3049978  -3.6789986  45.8269992  79.7569978  -4.3309986
  44.4389992  79.1969978  -4.1019986  45.2500374  79.3522665  -3.8253290
  46.8729992  84.7449978  -3.4399986  47.6239992  84.5889978  -4.0129986
  46.5339992  85.5969978  -3.7149986  46.9299587  84.8388138  -3.5555922
  51.2889992  82.5599978   1.5890014  51.4809992  81.6289978   1.4770014
  52.1469992  82.9849978   1.5780014  51.4312182  82.4900070   1.5721862
  52.6059992  85.3489978  -0.3339986  52.3239992  86.0579978  -0.9119986
  53.5479992  85.2759978  -0.4849986  52.6947921  85.4362193  -0.4335775
  43.3579992  82.1339978   0.7390014  42.5899992  81.6009978   0.5290014
  44.0359992  81.8239978   0.1400014  43.3447235  82.0191754   0.6292413
  46.0969992  76.7619978  -3.2479986  45.9989992  77.7079978  -3.3529986
  45.3549992  76.3889978  -3.7239986  45.9832534  76.8411773  -3.3267400
  47.3609992  81.0829978   0.3160014  47.1259992  80.8639978   1.2170014
  46.5779992  80.8759978  -0.1939986  47.2229095  81.0249892   0.3705353
  50.0769992  80.2109978  -0.6089986  49.1289992  80.2429978  -0.4769986
  50.3889992  79.5849978   0.0450014  49.9895293  80.1307923  -0.5025852
  51.7109992  78.8449978   1.3960014  51.6139992  77.8929978   1.3910014
  51.3889992  79.1129978   2.2570014  51.6542468  78.7510884   1.5116210
  41.5379992  80.0539978   0.4440014  41.7499992  79.3479978  -0.1659986
  41.4269992  79.6169978   1.2880014  41.5520269  79.8981921   0.4745873
  46.3189992  76.0559978  -0.5769986  47.0309992  75.4159978  -0.5909986
  46.2179992  76.3219978  -1.4899986  46.4027387  76.0044330  -0.7024437
  46.6729992  77.7379978   1.4770014  46.5409992  77.2629978   0.6570014
  46.0729992  78.4829978   1.4220014  46.5739070  77.7735789   1.3573251
  46.2189992  94.6209978 -15.3469986  47.1519992  94.7789978 -15.2029986
  45.9549992  95.2969978 -15.9719986  46.3109911  94.7339373 -15.4117278
  39.7869992  89.2579978 -15.8639986  40.7009992  89.3369978 -15.5909986
  39.7949992  88.5709978 -16.5299986  39.9130655  89.1759205 -15.9167083
  38.4359992  94.6509978 -10.7869986  37.7889992  94.1889978 -11.3189986
  38.7909992  93.9789978 -10.2039986  38.3953741  94.4969774 -10.7810825
  39.3059992  92.7309978  -8.9819986  38.9719992  91.8509978  -8.8099986
  39.5289992  93.0769978  -8.1169986  39.2903721  92.6571938  -8.8415832
  56.8549992  93.5409978  -6.0009986  56.8329992  93.7259978  -5.0619986
  57.5449992  94.1089978  -6.3419986  56.9453439  93.6431887  -5.9185209
  56.4179992  93.1079978  -3.0799986  55.9309992  92.3729978  -3.4509986
  56.9669992  92.7139978  -2.4019986  56.4255247  92.9541057  -3.0391539
  54.8689992  88.8979978   1.5590014  54.0029992  88.7929978   1.9530014
  55.2449992  89.6559978   2.0050014  54.8013401  88.9861708   1.6732620
  56.1699992  87.1539978 -12.9269986  57.0199992  87.5749978 -12.7999986
  56.1749992  86.4139978 -12.3199986  56.2871143  87.1116094 -12.8275250
  56.5639992  85.2079978 -11.1039986  55.8379992  84.7279978 -10.7059986
  57.1459992  85.4129978 -10.3709986  56.5432730  85.1700184 -10.9505851
  56.3229992  87.9929978  -6.1559986  57.1569992  87.6149978  -6.4369986
  56.4349992  88.9359978  -6.2749986  56.4521917  88.0687943  -6.2105139
  54.8099992  90.8709978  -3.8489986  54.1619992  91.1959978  -3.2239986
  54.2919992  90.4299978  -4.5229986  54.6514196  90.8558651  -3.8545848
  56.8329992  85.1089978 -14.7129986  56.3109992  85.4649978 -15.4309986
  56.7999992  85.7839978 -14.0339986  56.7570129  85.2489598 -14.7196645
  55.1819992  82.3479978 -16.1619986  55.2779992  83.0149978 -16.8419986
  55.0419992  81.5329978 -16.6429986  55.1762040  82.3290671 -16.3201622
  54.3509992  83.7289978 -10.5409986  54.2009992  82.7839978 -10.5609986
  53.9969992  84.0099978  -9.6969986  54.2826351  83.6376644 -10.4296780
  39.3859992  85.8069978  -6.5299986  39.5709992  85.7249978  -7.4659986
  40.2359992  85.6829978  -6.1069986  39.5260928  85.7790463  -6.6007107
  55.2069992  85.6989978  -0.9019986  55.7899992  84.9639978  -0.7099986
  55.7709992  86.4709978  -0.8549986  55.3629781  85.7028145  -0.8693836
  56.7039992  83.6019978  -0.2169986  55.8409992  83.2229978  -0.3829986
  57.3079992  82.8629978  -0.2919986  56.6676085  83.4503223  -0.2498306
  54.4289992  79.7559978 -17.0439986  55.0399992  79.3849978 -16.4069986
  53.5919992  79.3349978 -16.8479986  54.3994947  79.6482756 -16.9302748
  54.0619992  81.3109978 -12.0779986  54.3409992  80.4039978 -11.9539986
  54.8209992  81.7449978 -12.4669986  54.2028619  81.2454502 -12.1136205
  54.6729992  81.8929978  -6.6419986  55.6059992  82.1049978  -6.6769986
  54.4379992  81.9939978  -5.7199986  54.7689517  81.9356833  -6.5220870
  54.7029992  82.6299978  -3.8659986  53.8599992  82.8979978  -3.4999986
  55.1449992  83.4519978  -4.0769986  54.6474138  82.7778273  -3.8444482
  38.9839992  81.0769978  -0.3899986  39.9029992  80.9549978  -0.1529986
  38.5339992  80.3269978   0.0000014  39.0490087  80.9589608  -0.3048590
  56.9859992  76.6099978   1.4870014  57.3349992  75.9559978   0.8820014
  57.1329992  77.4469978   1.0470014  57.0536824  76.6336024   1.3446304
  54.6749992  78.5739978 -12.0299986  54.8569992  78.1249978 -11.2049986
  54.0749992  77.9899978 -12.4939986  54.6188187  78.4335552 -11.9797261
  40.2049992  79.3899978  -7.4979986  40.6499992  78.5979978  -7.1959986
  40.6709992  80.1059978  -7.0679986  40.3289718  79.3784534  -7.3984735
  38.5089992  82.3889978  -6.4289986  39.0009992  82.1679978  -7.2199986
  38.8709992  83.2289978  -6.1479986  38.6252923  82.4723468  -6.4992593
  56.5049992  78.7189978  -0.1639986  55.5879992  78.9899978  -0.1989986
  56.6279992  78.1839978  -0.9479986  56.3959672  78.6837885  -0.2748138
  56.5419992  78.6419978 -15.5019986  56.9539992  77.9209978 -15.9769986
  57.2229992  79.3109978 -15.4439986  56.6905536  78.6337766 -15.5591976
  38.8229992  78.6469978 -12.3749986  37.8979992  78.8549978 -12.5039986
  39.2769992  79.1309978 -13.0649986  38.7576298  78.7409299 -12.4859549
  53.5929992  93.6309978 -10.4289986  54.2459992  93.2829978 -11.0369986
  54.1039992  94.1189978  -9.7829986  53.7512777  93.6493815 -10.4247953
  38.7859992  77.3849978  -4.0309986  38.1209992  77.1389978  -3.3879986
  38.3429992  78.0069978  -4.6079986  38.6351168  77.4354214  -4.0210152
  40.9779992  90.5599978   0.1140014  40.1569992  90.7349978  -0.3469986
  40.7259992  90.4869978   1.0340014  40.8315594  90.5740717   0.1753611
  43.9319992  91.5339978  -3.6279986  43.5079992  92.3439978  -3.9099986
  44.8369992  91.6199978  -3.9299986  43.9962138  91.6564160  -3.7073585
  48.2439992  92.9329978  -0.6679986  48.4279992  92.5999978   0.2100014
  49.0899992  93.2429978  -0.9899986  48.3836484  92.9292979  -0.5912383
  50.5889992  94.2189978  -1.4239986  51.2659992  93.5859978  -1.6639986
  50.9099992  94.6199978  -0.6169986  50.7251323  94.1865691  -1.3476842
  55.5059992  76.8089978  -2.3449986  54.6929992  77.1339978  -2.7319986
  55.7389992  76.0479978  -2.8779986  55.4261347  76.7506880  -2.4700159
  41.3339992  94.7909978  -3.5799986  40.6139992  95.2309978  -4.0309986
  40.9689992  94.5399978  -2.7319986  41.1859643  94.8173369  -3.5270871
  43.8009992  94.3909978  -4.5499986  42.9369992  94.4629978  -4.1459986
  43.7459992  94.9379978  -5.3339986  43.6751942  94.4747849  -4.6006000
  48.5119992  94.2789978  -5.3749986  48.0549992  94.8079978  -6.0289986
  48.6749992  94.8819978  -4.6499986  48.4714960  94.4329280  -5.3664726
  50.8399992  93.1569978  -4.4299986  49.9349992  93.3219978  -4.6959986
  51.2679992  94.0099978  -4.4959986  50.7741537  93.2949134  -4.4752905
  53.4439992  94.7269978  -4.1349986  53.2619992  95.6429978  -4.3459986
  53.6209992  94.3159978  -4.9819986  53.4430030  94.7968273  -4.2782834
  40.7489992  93.4139978  -6.6699986  40.7309992  92.9879978  -5.8129986
  41.5539992  93.0949978  -7.0789986  40.8552875  93.3126435  -6.6080485
  42.8899992  92.1239978  -8.0149986  42.6709992  91.2069978  -7.8449986
  43.7139992  92.2639978  -7.5489986  42.9714702  92.0175511  -7.9287473
  45.4269992  92.5939978  -7.1659986  45.6399992  91.7059978  -7.4529986
  45.4919992  92.5589978  -6.2119986  45.4649149  92.4678326  -7.0762631
  48.9359992  78.2579978  -8.0219986  48.2619992  77.6279978  -7.7659986
  49.4999992  77.7739978  -8.6249986  48.9200384  78.1063708  -8.0684980
  54.0789992  76.3649978  -7.9089986  54.6819992  76.9129978  -8.4109986
  53.2089992  76.6839978  -8.1499986  54.0439157  76.4830373  -8.0102090
  55.8059992  77.5039978  -9.5759986  56.4169992  76.9899978 -10.1029986
  56.1879992  78.3809978  -9.5529986  55.9413305  77.5522050  -9.6450582
  41.2629992  76.8919978 -10.1999986  40.4859992  76.6569978 -10.7069986
  41.7929992  76.0949978 -10.1909986  41.2283451  76.7521268 -10.2681373
  40.0989992  76.6899978 -14.3959986  40.5379992  77.3009978 -14.9879986
  39.4649992  77.2279978 -13.9219986  40.0733859  76.8464064 -14.4129695
  45.8419992  76.8179978 -10.3869986  46.7159992  77.2069978 -10.4159986
  45.7059992  76.6029978  -9.4639986  45.9431953  76.8421643 -10.2662383
  51.3989992  76.8479978  -8.7369986  51.4749992  76.9439978  -9.6869986
  51.1239992  75.9409978  -8.6089986  51.3721871  76.7384146  -8.8496056
  52.7519992  76.8739978 -13.0449986  52.0489992  77.4889978 -13.2549986
  52.3069992  76.0369978 -12.9139986  52.5956550  76.8449668 -13.0560163
  39.9999992  92.6379978 -13.4989986  39.3149992  92.5999978 -14.1659986
  40.0039992  93.5509978 -13.2109986  39.9067621  92.7561924 -13.5513874
  41.9599992  78.6059978 -15.9539986  42.4509992  77.9759978 -16.4809986
  42.5829992  78.9019978 -15.2909986  42.1115304  78.5597376 -15.9365060
  46.9859992  78.8989978 -13.4969986  47.1639992  78.2519978 -12.8139986
  46.9319992  79.7329978 -13.0299986  47.0030678  78.9231604 -13.3403699
  48.8639992  93.8469978 -15.1009986  49.7299992  94.2139978 -15.2789986
  48.6179992  93.4079978 -15.9149986  48.9492097  93.8378525 -15.2353981
  55.5729992  93.4099978 -12.4219986  55.3789992  92.6619978 -12.9869986
  55.5339992  94.1679978 -13.0049986  55.5411645  93.4100786 -12.5781852
  41.2199992  77.4059978  -0.6819986  40.8539992  76.6399978  -0.2399986
  42.1329992  77.4349978  -0.3959986  41.2933172  77.3050324  -0.5828110
  43.1929992  76.7559978   0.8530014  44.0919992  76.4819978   0.6690014
  42.8069992  76.0139978   1.3180014  43.2637307  76.6182196   0.8907098
  41.8179992  93.5579978 -16.4739986  41.5499992  93.8439978 -15.5999986
  42.5889992  93.0119978 -16.3209986  41.8855926  93.5232779 -16.3338795
  51.6149992  76.0889978   1.0360014  51.6909992  75.6629978   1.8890014
  52.5079992  76.1019978   0.6930014  51.7462303  76.0323493   1.1065497
  54.7909992  92.1619978  -0.2719986  54.0089992  91.9749978  -0.7919986
  54.7189992  93.0909978  -0.0549986  54.6741924  92.2620637  -0.3138398
  69.1969992  86.0479978 -10.2409986  69.2859992  86.9919978 -10.3729986
  68.5589992  85.7729978 -10.8989986  69.1229062  86.1399812 -10.3480359
  68.1299992  85.3029978  -6.8219986  68.0919992  84.6569978  -6.1169986
  67.8079992  84.8359978  -7.5929986  68.0812679  85.1514276  -6.8297079
  60.4979992  84.9169978  -5.2289986  60.5399992  84.2919978  -4.5059986
  61.2009992  85.5409978  -5.0469986  60.5987345  84.9157873  -5.1054726
  71.8359992  88.2419978  -8.5209986  71.3949992  87.5219978  -8.0699986
  71.8229992  88.9629978  -7.8909986  71.7739215  88.2409291  -8.3741895
  61.4219992  89.3669978  -6.6939986  61.0519992  88.5649978  -7.0639986
  62.3629992  89.1989978  -6.6479986  61.4985984  89.2344638  -6.7384397
  58.0319992  83.0269978 -11.3019986  57.5839992  83.8729978 -11.3199986
  57.4709992  82.4479978 -11.8169986  57.8948546  83.0643993 -11.3741109
  58.7419992  85.1889978  -9.1759986  58.9559992  84.4189978  -8.6479986
  59.4799992  85.2789978  -9.7789986  58.8710200  85.0958586  -9.1852965
  68.9479992  93.3459978  -8.3089986  69.5669992  92.6699978  -8.5819986
  68.7389992  93.1279978  -7.3999986  69.0046056  93.2238869  -8.2236033
  66.5189992  87.7349978  -6.4159986  66.8229992  87.0489978  -7.0109986
  67.2409992  87.8539978  -5.7979986  66.6581240  87.6572314  -6.4139041
  75.1819992  79.3369978  -5.5559986  75.2319992  79.9469978  -4.8199986
  75.6079992  79.7979978  -6.2789986  75.2464108  79.4827709  -5.5529888
  69.6599992  82.1289978  -6.0889986  69.8029992  81.1829978  -6.0689986
  69.5539992  82.3359978  -7.0169986  69.6652403  82.0274797  -6.2117761
  62.8149992  80.2309978  -8.8159986  62.8579992  81.0909978  -9.2349986
  62.3569992  79.6789978  -9.4499986  62.7589871  80.2739245  -8.9589239
  70.5369992  80.3619978 -10.4149986  71.1839992  80.0329978  -9.7909986
  71.0469992  80.8789978 -11.0379986  70.6944351  80.3869067 -10.4138963
  59.4349992  82.6279978  -8.0539986  60.0889992  82.0779978  -7.6219986
  59.4589992  82.3539978  -8.9709986  59.5277199  82.5157167  -8.1188332
  64.5919992  84.1779978  -8.8389986  65.2079992  83.6509978  -8.3299986
  64.0049992  83.5379978  -9.2429986  64.5970154  84.0193954  -8.8239055
  75.5739992  80.8149978  -3.3199986  74.8849992  81.4729978  -3.4149986
  75.5889992  80.6169978  -2.3829986  75.4817756  80.8782603  -3.2064188
  61.6249992  79.1489978  -4.7419986  61.4059992  79.6789978  -5.5089986
  60.9569992  79.3749978  -4.0949986  61.5046975  79.2520967  -4.7594860
  68.9939992  88.6489978 -11.1979986  68.6989992  88.3259978 -12.0499986
  68.6699992  89.5489978 -11.1569986  68.9098460  88.7264464 -11.3090286
  64.1939992  86.8239978  -4.4549986  63.4539992  87.4229978  -4.3509986
  64.9079992  87.3779978  -4.7699986  64.1893500  86.9807829  -4.4833629
  72.3009992  79.6529978  -8.4349986  72.0859992  78.8869978  -7.9019986
  72.9569992  80.1249978  -7.9219986  72.3602673  79.6120728  -8.2928010
  61.2189992  81.0409978  -6.7899986  61.8329992  81.6739978  -6.4169986
  61.7309992  80.5689978  -7.4459986  61.3721962  81.0637249  -6.8277065
  62.6019992  88.7889978  -3.6679986  62.5959992  89.6679978  -4.0459986
  61.7479992  88.7049978  -3.2429986  62.4857925  88.8979535  -3.6623113
  58.7229992  88.4599978 -12.8859986  58.4509992  88.6889978 -13.7739986
  58.7679992  89.2969978 -12.4249986  58.6918097  88.6046163 -12.9453317
  72.3479992  90.0809978  -6.1729986  71.4059992  90.1399978  -6.0109986
  72.6239992  90.9869978  -6.3099986  72.2565865  90.2115288  -6.1693808
  72.6479992  78.3679978  -4.7559986  71.9119992  78.9779978  -4.7929986
  73.3319992  78.7829978  -5.2819986  72.6395367  78.5077551  -4.8321826
  65.6519992  76.4539978  -7.2899986  65.5339992  75.5059978  -7.3439986
  64.7969992  76.7869978  -7.0169986  65.5202805  76.3692202  -7.2604921
  70.5999992  91.8619978  -9.5479986  71.0249992  91.1549978 -10.0329986
  70.9169992  92.6639978  -9.9649986  70.7010266  91.8735190  -9.6707521
  71.7599992  89.7629978 -11.0389986  71.5019992  89.0729978 -11.6509986
  71.8309992  89.3199978 -10.1939986  71.7343050  89.6086814 -11.0084379
  73.4459992  88.3299978  -2.5619986  73.5849992  87.7379978  -3.3009986
  73.6129992  89.2029978  -2.9179986  73.4876193  88.3668896  -2.7113789
  67.9179992  85.2919978 -12.7889986  67.2069992  85.8269978 -13.1409986
  68.6089992  85.3469978 -13.4489986  67.9140751  85.3726777 -12.9264142
  67.9719992  83.7489978 -15.7509986  68.6729992  83.7719978 -15.0989986
  68.2739992  83.1209978 -16.4069986  68.1088202  83.6672212 -15.7504391
  75.2869992  84.6699978  -4.4959986  74.6349992  85.3639978  -4.4069986
  75.7529992  84.8799978  -5.3059986  75.2605937  84.7935019  -4.5932467
  71.3239992  85.5009978 -11.8379986  70.5919992  85.7299978 -11.2639986
  71.7709992  84.7879978 -11.3829986  71.2843963  85.4358729 -11.6980055
  71.2209992  83.6759978  -2.7699986  71.3009992  84.4389978  -2.1979986
  70.6199992  83.9549978  -3.4599986  71.1506547  83.8182457  -2.7849953
  62.9689992  86.1319978  -9.9549986  62.6389992  85.7609978 -10.7729986
  63.5579992  85.4609978  -9.6079986  63.0033970  85.9906063 -10.0200596
  64.3359992  89.5599978  -7.2739986  64.2409992  88.9809978  -8.0299986
  65.0649992  89.1889978  -6.7779986  64.4216011  89.4305561  -7.3103972
  63.3359992  84.8999978  -6.3219986  63.9009992  85.0219978  -7.0839986
  63.6549992  85.5379978  -5.6829986  63.4564166  85.0028791  -6.3399652
  69.6449992  90.4039978  -5.5879986  69.4049992  91.0659978  -4.9399986
  69.4469992  89.5689978  -5.1629986  69.5853826  90.3818115  -5.4418434
  64.2159992  89.2999978  -1.6039986  63.9049992  90.0819978  -1.1489986
  63.5659992  89.1469978  -2.2899986  64.0855538  89.3864087  -1.6344102
  70.1949992  84.6639978 -14.1519986  70.7739992  84.8139978 -13.4059986
  70.6089992  85.1339978 -14.8759986  70.3303358  84.7480954 -14.1476047
  61.1359992  85.4979978  -2.3759986  61.2059992  86.1489978  -1.6769986
  60.2449992  85.6009978  -2.7109986  61.0251690  85.6009249  -2.3256957
  67.9209992  91.3999978 -10.7169986  68.3949992  91.6959978  -9.9399986
  67.3579992  92.1389978 -10.9499986  67.9097890  91.5403036 -10.6421899
  62.4549992  91.3709978  -0.8409986  62.4629992  91.2349978  -1.7879986
  61.5389992  91.2539978  -0.5889986  62.3322528  91.3365463  -0.9366757
  73.8939992  76.4139978 -14.3389986  72.9939992  76.5529978 -14.0439986
  74.1459992  77.2449978 -14.7409986  73.8048683  76.5454055 -14.3529768
  61.9599992  85.2009978 -12.3659986  61.6679992  85.9689978 -12.8569986
  61.2849992  84.5419978 -12.5289986  61.8288497  85.2169745 -12.4551740
  75.0829992  90.7799978 -15.9629986  75.1559992  91.7189978 -15.7929986
  75.9879992  90.4749978 -16.0189986  75.2154170  90.8673282 -15.9472937
  58.0529992  87.5639978  -3.5509986  57.5509992  87.5359978  -4.3659986
  58.0579992  86.6589978  -3.2409986  57.9849832  87.4377486  -3.6205879
  57.8029992  90.3449978  -6.6669986  58.7489992  90.1999978  -6.6859986
  57.6899992  91.1289978  -6.1299986  57.9173578  90.4311697  -6.5969683
  76.0009992  91.0109978  -0.9839986  75.9509992  90.0549978  -1.0219986
  75.1739992  91.2779978  -0.5829986  75.8823831  90.9164680  -0.9349879
  66.9789992  90.5849978  -2.1079986  67.0669992  91.4109978  -1.6329986
  66.1159992  90.2549978  -1.8589986  66.8743357  90.6535468  -2.0092347
  67.3939992  94.3569978 -12.3019986  67.3179992  94.2359978 -13.2489986
  67.4259992  95.3059978 -12.1839986  67.3879380  94.4687677 -12.4154819
  61.0469992  93.1459978 -10.5209986  61.1989992  92.7979978  -9.6429986
  60.1959992  92.7889978 -10.7769986  60.9528344  93.0500879 -10.4353132
  70.4949992  93.5109978 -15.2999986  70.8699992  92.7669978 -15.7709986
  70.4999992  93.2409978 -14.3819986  70.5470098  93.3726392 -15.2403371
  70.1639992  93.4369978 -12.5509986  69.2289992  93.5369978 -12.3719986
  70.4439992  92.7269978 -11.9719986  70.0739471  93.3547933 -12.4483305
  73.1529992  82.5039978  -0.5039986  72.7449992  82.9839978  -1.2249986
  73.1929992  81.5979978  -0.8119986  73.1026221  82.4472449  -0.6441733
  60.3019992  88.8879978  -2.5079986  60.5179992  88.5259978  -1.6479986
  59.4459992  88.5129978  -2.7169986  60.2158810  88.7878837  -2.4187320
  62.9199992  77.3579978  -6.5119986  62.0589992  77.2709978  -6.9199986
  62.8979992  78.2139978  -6.0839986  62.7990491  77.4618003  -6.5100418
  67.5829992  77.0799978  -3.1369986  68.0029992  76.6649978  -2.3839986
  66.6499992  76.9009978  -3.0199986  67.5143736  76.9989910  -3.0181032
  70.9099992  80.8349978  -2.2839986  70.3959992  80.7099978  -1.4859986
  70.7539992  81.7479978  -2.5279986  70.8186967  80.9412123  -2.2079063
  71.6719992  85.6959978 -16.5229986  71.7139992  85.4739978 -17.4529986
  72.5209992  86.0949978 -16.3329986  71.7925253  85.7195498 -16.6246178
  67.2449992  79.5719978 -15.8519986  66.9909992  79.5909978 -14.9299986
  66.9879992  78.7009978 -16.1539986  67.1754508  79.4568280 -15.7665197
  63.0109992  82.3229978  -5.4169986  62.3699992  82.2829978  -4.7079986
  63.0489992  83.2499978  -5.6549986  62.9283010  82.4427668  -5.3520054
  63.0079992  82.5439978 -10.5049986  62.1159992  82.2039978 -10.5639986
  63.4589992  82.1669978 -11.2609986  62.9467642  82.4464910 -10.6152274
  68.5439992  82.9599978 -11.6879986  68.1349992  83.7749978 -11.9799986
  69.2639992  82.8199978 -12.3019986  68.5854439  83.0525372 -11.8109885
  67.6459992  83.1359978  -0.1999986  67.0829992  82.4309978   0.1210014
  68.4719992  83.0149978   0.2680014  67.6806674  83.0232165  -0.0928249
  69.5489992  82.4059978  -8.8739986  69.3529992  83.0119978  -9.5889986
  69.7299992  81.5729978  -9.3079986  69.5466584  82.3762513  -9.0305788
  60.7609992  82.6439978  -3.5499986  60.7229992  83.0439978  -2.6809986
  60.2709992  81.8269978  -3.4599986  60.6895330  82.5882674  -3.4188711
  64.1269992  80.0179978 -16.7509986  63.6959992  79.5729978 -16.0219986
  63.4089992  80.3889978 -17.2639986  63.9709176  80.0072051 -16.7205070
  57.3699992  79.7599978  -9.6989986  57.9999992  79.7309978  -8.9799986
  57.8189992  79.3349978 -10.4299986  57.5170835  79.6985660  -9.6992341
  58.6439992  80.5059978 -14.2749986  59.1179992  81.0969978 -14.8599986
  57.9259992  81.0359978 -13.9279986  58.6118640  80.6585511 -14.3082031
  68.8129992  84.0439978  -4.2029986  69.1359992  83.4129978  -4.8459986
  68.3719992  83.5099978  -3.5419986  68.7976379  83.8853468  -4.2017418
  65.5899992  79.9719978  -9.4189986  64.6789992  80.0289978  -9.1299986
  66.0949992  79.9119978  -8.6079986  65.5336873  79.9716826  -9.2698793
  60.4179992  81.6009978 -10.5919986  59.5289992  81.6999978 -10.9319986
  60.7149992  80.7589978 -10.9379986  60.3364177  81.5007687 -10.6853060
  64.0709992  81.6009978 -12.9349986  65.0029992  81.7299978 -12.7569986
  63.8559992  82.2699978 -13.5849986  64.1694472  81.7090806 -12.9985109
  69.9949992  79.2069978  -6.1539986  69.3179992  79.3379978  -5.4909986
  69.5099992  79.0519978  -6.9649986  69.8367405  79.2039947  -6.1727830
  62.7449992  82.7949978 -15.3689986  62.2029992  82.4159978 -16.0599986
  63.5789992  82.9899978 -15.7969986  62.7834390  82.7694079 -15.5215608
  73.2829992  94.8779978   0.1220014  73.4819992  95.3019978  -0.7119986
  73.9379992  95.2219978   0.7290014  73.3988522  94.9826301   0.0897852
  60.8809992  87.3519978  -0.2699986  61.6129992  87.6069978   0.2920014
  60.0999992  87.5569978   0.2460014  60.8756526  87.4145450  -0.1234824
  66.9099992  82.7589978  -7.5319986  67.4739992  82.2129978  -8.0789986
  66.7619992  82.2379978  -6.7429986  66.9673037  82.6136787  -7.5002771
  61.9119992  78.8959978 -11.1129986  61.5949992  77.9929978 -11.1489986
  62.6929992  78.8979978 -11.6659986  61.9742431  78.7727797 -11.1926898
  65.5359992  81.1479978  -5.1179986  64.7009992  81.6019978  -5.0069986
  66.0599992  81.4239978  -4.3659986  65.4926072  81.2473948  -5.0011864
  66.0809992  87.3609978 -13.4329986  65.3359992  86.8529978 -13.7549986
  65.9459992  87.4099978 -12.4869986  65.9608963  87.2981731 -13.3491174
  73.2309992  86.4939978  -4.6459986  73.8719992  86.9499978  -5.1899986
  72.3999992  86.6069978  -5.1089986  73.2065287  86.5716921  -4.7830113
  69.9779992  80.1749978 -15.2339986  69.0399992  80.2859978 -15.3849986
  70.2759992  81.0309978 -14.9269986  69.8896318  80.3060158 -15.2131855
  67.5999992  87.5449978  -2.1959986  67.2539992  87.1629978  -1.3889986
  67.3999992  88.4779978  -2.1249986  67.5255987  87.6189002  -2.0759539
  70.6969992  82.0419978 -13.5729986  71.5889992  81.9039978 -13.2539986
  70.7529992  82.8329978 -14.1099986  70.8267325  82.1299918 -13.6018783
  61.2049992  86.6559978  -7.6629986  61.9499992  86.6529978  -8.2649986
  61.2829992  85.8319978  -7.1819986  61.3173365  86.5442384  -7.6802570
  68.2059992  88.8189978 -14.4079986  67.9109992  89.6459978 -14.0259986
  67.5029992  88.1999978 -14.2109986  68.0706379  88.8484171 -14.3291346
  58.2129992  85.1159978  -2.3479986  58.4359992  84.6979978  -1.5169986
  57.6109992  84.5039978  -2.7709986  58.1621513  84.9759606  -2.2913260
  65.2299992  84.6329978  -0.1349986  64.9339992  84.4679978  -1.0309986
  66.1609992  84.4129978  -0.1459986  65.3154401  84.5806879  -0.2589794
  69.8499992  90.0069978  -2.2459986  68.9499992  90.1899978  -2.5129986
  69.8839992  90.2659978  -1.3249986  69.7313748  90.0670554  -2.1580836
  75.5819992  82.2509978 -13.8779986  75.0269992  81.8549978 -14.5509986
  75.6819992  83.1619978 -14.1559986  75.5196816  82.3199505 -14.0074967
  75.5449992  88.0519978  -1.0409986  74.6939992  88.2899978  -1.4089986
  76.1349992  88.0349978  -1.7939986  75.5083812  88.0822524  -1.1931547
  73.8769992  91.0369978 -13.4129986  73.5039992  90.2119978 -13.1039986
  74.1539992  90.8539978 -14.3109986  73.8633463  90.8992569 -13.4920475
  71.0369992  85.8449978  -6.3919986  70.1089992  85.6139978  -6.4189986
  71.4879992  85.0679978  -6.7219986  70.9708165  85.7082774  -6.4403210
  63.5799992  90.1739978 -10.2589986  64.1079992  90.9469978 -10.4589986
  62.6999992  90.3979978 -10.5609986  63.5333435  90.3102700 -10.3272690
  59.3349992  85.0359978 -15.6719986  59.9509992  85.6629978 -15.2919986
  58.4729992  85.3519978 -15.3999986  59.3027678  85.1644412 -15.5832791
  65.0079992  87.8369978 -10.6829986  64.7669992  88.7619978 -10.6409986
  64.2669992  87.3779978 -10.2859986  64.8749206  87.9015915 -10.6236231
  65.5219992  91.9859978  -4.3679986  65.8849992  92.8399978  -4.6009986
  66.0539992  91.6939978  -3.6269986  65.6435141  92.0633895  -4.2997903
  63.6909992  92.8579978 -11.1369986  62.7409992  92.9639978 -11.0859986
  64.0429992  93.6789978 -10.7929986  63.6085472  92.9834923 -11.0835148
  69.0659992  88.0849978  -4.6669986  68.6409992  87.8569978  -3.8409986
  69.6469992  87.3459978  -4.8489986  69.0863395  87.9539545  -4.5785586
  71.2689992  89.0139978 -15.5929986  71.6229992  88.6339978 -14.7889986
  70.3209992  88.9199978 -15.5059986  71.1892298  88.9492452 -15.4711313
  71.7249992  92.6369978  -2.1979986  71.1229992  92.0809978  -2.6929986
  72.0059992  93.3039978  -2.8239986  71.6805757  92.6510744  -2.3504325
  75.7729992  93.4929978 -15.3919986  76.5169992  94.0789978 -15.5319986
  75.0789992  94.0619978 -15.0589986  75.7809809  93.6500818 -15.3661410
  59.8469992  79.8699978  -2.7899986  58.9549992  80.2079978  -2.8579986
  59.7489992  79.0139978  -2.3719986  59.7114475  79.8006543  -2.7428296
  72.1349992  87.6859978 -13.3659986  71.8579992  86.9579978 -12.8099986
  73.0629992  87.8049978 -13.1609986  72.2224499  87.6024213 -13.2621956
  59.4989992  91.6739978  -4.3549986  59.7159992  90.7419978  -4.3859986
  59.7449992  91.9489978  -3.4719986  59.5619809  91.5835686  -4.2398309
  64.2969992  89.6959978 -14.6899986  64.4439992  89.1759978 -13.8999986
  64.2939992  90.6029978 -14.3829986  64.3167102  89.7473953 -14.5404075
  60.7499992  86.9479978 -14.1789986  60.0639992  87.3009978 -13.6119986
  61.2729992  87.7109978 -14.4259986  60.7268402  87.0993901 -14.1348199
  68.5819992  79.6109978  -3.8999986  69.2809992  79.6849978  -3.2499986
  68.2009992  78.7459978  -3.7459986  68.6262097  79.5042389  -3.7902003
  69.3659992  79.2629978 -12.8029986  69.5859992  79.7339978 -13.6069986
  69.9249992  79.6569978 -12.1329986  69.4716731  79.3807287 -12.8224967
  67.0349992  91.3929978 -13.9399986  66.2179992  91.8899978 -13.8879986
  67.5639992  91.8689978 -14.5809986  66.9948125  91.5251989 -14.0194694
  66.5659992  80.9909978 -11.9679986  67.3779992  81.4949978 -11.9219986
  66.3219992  80.8459978 -11.0539986  66.6441467  81.0403749 -11.8381425
  67.1019992  81.9769978  -2.7839986  67.2209992  82.5509978  -2.0269986
  67.7569992  81.2889978  -2.6689986  67.2068684  81.9625194  -2.6648326
  67.4499992  78.0719978 -11.0299986  67.1029992  78.6889978 -10.3859986
  68.1089992  78.5729978 -11.5119986  67.4915090  78.2241575 -11.0069319
  64.3729992  92.4369978 -13.9589986  64.5339992  93.2369978 -14.4589986
  64.1759992  92.7439978 -13.0739986  64.3683906  92.5878678 -13.9077667
  63.1079992  79.1349978 -14.3429986  63.0239992  80.0229978 -13.9959986
  63.9979992  78.8699978 -14.1109986  63.2168163  79.2207179 -14.2641404
  73.3059992  79.8839978  -1.9489986  72.3899992  80.1459978  -2.0359986
  73.6419992  79.8809978  -2.8449986  73.2258499  79.9195163  -2.0821234
  71.9089992  83.6339978  -7.8529986  71.1109992  83.2189978  -8.1809986
  72.3539992  82.9439978  -7.3619986  71.8599684  83.4838628  -7.8314773
  61.3659992  89.5619978 -15.2829986  61.9579992  90.2619978 -15.0059986
  61.8249992  89.1289978 -16.0019986  61.5091652  89.5992675 -15.3423467
  59.6819992  82.2269978 -16.1669986  59.6369992  83.1659978 -15.9879986
  58.7939992  81.9909978 -16.4359986  59.5558166  82.3236687 -16.1788476
  72.9949992  92.8899978  -6.2309986  72.8389992  93.5689978  -6.8879986
  73.9279992  92.9619978  -6.0279986  73.0997387  92.9926390  -6.2934658
  60.4899992  77.0079978  -7.4929986  60.2609992  77.0669978  -8.4209986
  60.0479992  76.2169978  -7.1869986  60.3988801  76.9090540  -7.5785271
  59.4209992  90.9489978 -11.3329986  58.5879992  91.4209978 -11.3059986
  59.9659992  91.4589978 -11.9319986  59.3807857  91.0824791 -11.4102858
  58.7089992  93.5609978  -0.0029986  59.2489992  93.3449978   0.7570014
  58.2279992  92.7559978  -0.1929986  58.7179219  93.4225156   0.0754282
  63.3059992  92.4809978   1.6170014  64.0739992  92.0219978   1.9580014
  63.2849992  92.2549978   0.6870014  63.4082135  92.3876668   1.5379491
  67.3979992  91.9889978 -17.0069986  66.7539992  91.3579978 -16.6859986
  68.1599992  91.4579978 -17.2389986  67.4128058  91.8307902 -16.9943962
  69.8829992  90.8609978   0.3460014  69.5319992  90.0039978   0.5900014
  70.6089992  91.0029978   0.9530014  69.9331895  90.7631351   0.4613770
  72.0029992  91.8059978 -16.7739986  72.2859992  91.0109978 -16.3209986
  72.7419992  92.0389978 -17.3349986  72.1417096  91.7287049 -16.7878896
  58.6159992  87.3719978   0.9510014  58.7599992  86.4699978   0.6650014
  57.8439992  87.6579978   0.4640014  58.5312733  87.2871798   0.8459532
  62.9569992  87.7149978 -16.9159986  63.0219992  86.9209978 -16.3859986
  63.6099992  87.5969978 -17.6059986  63.0541605  87.5903430 -16.9367003
  65.2709992  87.3409978   0.3840014  64.9429992  87.6119978  -0.4729986
  65.4229992  86.3999978   0.2960014  65.2466412  87.2509046   0.2547822
  71.0059992  87.2569978  -2.2329986  71.7509992  87.8459978  -2.3519986
  70.2489992  87.8389978  -2.1689986  71.0055470  87.4162128  -2.2406201
  59.4489992  84.5719978   0.3710014  59.8569992  83.7149978   0.2500014
  59.1879992  84.5859978   1.2920014  59.4696016  84.4565119   0.4789192
  64.1069992  85.6879978 -14.6099986  63.6469992  85.2039978 -13.9249986
  64.3619992  85.0189978 -15.2459986  64.0784856  85.5313669 -14.6021603
  63.3959992  83.5809978  -2.2539986  62.7769992  84.2549978  -1.9739986
  63.7399992  83.9019978  -3.0879986  63.3577123  83.7166887  -2.3283612
  65.1779992  83.9309978 -16.3479986  64.9969992  83.7759978 -17.2749986
  66.1279992  84.0389978 -16.3029986  65.2816566  83.9243669 -16.4689071
  68.4149992  86.0519978   1.0230014  69.3689992  86.1359978   0.9960014
  68.2549992  85.3399978   1.6430014  68.5237182  85.9672842   1.1030733
  74.5679992  86.2849978 -16.9019986  74.2939992  85.8609978 -17.7149986
  74.6069992  87.2169978 -17.1189986  74.5357716  86.3528827 -17.0425714
  63.7349992  80.9359978  -1.1719986  63.8849992  80.2069978  -1.7739986
  63.7369992  81.7129978  -1.7309986  63.7557967  80.9412708  -1.3299459
  64.1479992  79.3049978  -3.6789986  64.6829992  79.7569978  -4.3309986
  63.2949992  79.1969978  -4.1019986  64.1060374  79.3522665  -3.8253290
  65.7289992  84.7449978  -3.4399986  66.4799992  84.5889978  -4.0129986
  65.3899992  85.5969978  -3.7149986  65.7859587  84.8388138  -3.5555922
  70.1449992  82.5599978   1.5890014  70.3369992  81.6289978   1.4770014
  71.0029992  82.9849978   1.5780014  70.2872182  82.4900070   1.5721862
  71.4619992  85.3489978  -0.3339986  71.1799992  86.0579978  -0.9119986
  72.4039992  85.2759978  -0.4849986  71.5507921  85.4362193  -0.4335775
  62.2139992  82.1339978   0.7390014  61.4459992  81.6009978   0.5290014
  62.8919992  81.8239978   0.1400014  62.2007235  82.0191754   0.6292413
  64.9529992  76.7619978  -3.2479986  64.8549992  77.7079978  -3.3529986
  64.2109992  76.3889978  -3.7239986  64.8392534  76.8411773  -3.3267400
  66.2169992  81.0829978   0.3160014  65.9819992  80.8639978   1.2170014
  65.4339992  80.8759978  -0.1939986  66.0789095  81.0249892   0.3705353
  68.9329992  80.2109978  -0.6089986  67.9849992  80.2429978  -0.4769986
  69.2449992  79.5849978   0.0450014  68.8455293  80.1307923  -0.5025852
  70.5669992  78.8449978   1.3960014  70.4699992  77.8929978   1.3910014
  70.2449992  79.1129978   2.2570014  70.5102468  78.7510884   1.5116210
  60.3939992  80.0539978   0.4440014  60.6059992  79.3479978  -0.1659986
  60.2829992  79.6169978   1.2880014  60.4080269  79.8981921   0.4745873
  65.1749992  76.0559978  -0.5769986  65.8869992  75.4159978  -0.5909986
  65.0739992  76.3219978  -1.4899986  65.2587387  76.0044330  -0.7024437
  65.5289992  77.7379978   1.4770014  65.3969992  77.2629978   0.6570014
  64.9289992  78.4829978   1.4220014  65.4299070  77.7735789   1.3573251
  65.0749992  94.6209978 -15.3469986  66.0079992  94.7789978 -15.2029986
  64.8109992  95.2969978 -15.9719986  65.1669911  94.7339373 -15.4117278
  58.6429992  89.2579978 -15.8639986  59.5569992  89.3369978 -15.5909986
  58.6509992  88.5709978 -16.5299986  58.7690655  89.1759205 -15.9167083
  57.2919992  94.6509978 -10.7869986  56.6449992  94.1889978 -11.3189986
  57.6469992  93.9789978 -10.2039986  57.2513741  94.4969774 -10.7810825
  58.1619992  92.7309978  -8.9819986  57.8279992  91.8509978  -8.8099986
  58.3849992  93.0769978  -8.1169986  58.1463721  92.6571938  -8.8415832
  75.7109992  93.5409978  -6.0009986  75.6889992  93.7259978  -5.0619986
  76.4009992  94.1089978  -6.3419986  75.8013439  93.6431887  -5.9185209
  75.2739992  93.1079978  -3.0799986  74.7869992  92.3729978  -3.4509986
  75.8229992  92.7139978  -2.4019986  75.2815247  92.9541057  -3.0391539
  73.7249992  88.8979978   1.5590014  72.8589992  88.7929978   1.9530014
  74.1009992  89.6559978   2.0050014  73.6573401  88.9861708   1.6732620
  75.0259992  87.1539978 -12.9269986  75.8759992  87.5749978 -12.7999986
  75.0309992  86.4139978 -12.3199986  75.1431143  87.1116094 -12.8275250
  75.4199992  85.2079978 -11.1039986  74.6939992  84.7279978 -10.7059986
  76.0019992  85.4129978 -10.3709986  75.3992730  85.1700184 -10.9505851
  75.1789992  87.9929978  -6.1559986  76.0129992  87.6149978  -6.4369986
  75.2909992  88.9359978  -6.2749986  75.3081917  88.0687943  -6.2105139
  73.6659992  90.8709978  -3.8489986  73.0179992  91.1959978  -3.2239986
  73.1479992  90.4299978  -4.5229986  73.5074196  90.8558651  -3.8545848
  75.6889992  85.1089978 -14.7129986  75.1669992  85.4649978 -15.4309986
  75.6559992  85.7839978 -14.0339986  75.6130129  85.2489598 -14.7196645
  74.0379992  82.3479978 -16.1619986  74.1339992  83.0149978 -16.8419986
  73.8979992  81.5329978 -16.6429986  74.0322040  82.3290671 -16.3201622
  73.2069992  83.7289978 -10.5409986  73.0569992  82.7839978 -10.5609986
  72.8529992  84.0099978  -9.6969986  73.1386351  83.6376644 -10.4296780
  58.2419992  85.8069978  -6.5299986  58.4269992  85.7249978  -7.4659986
  59.0919992  85.6829978  -6.1069986  58.3820928  85.7790463  -6.6007107
  74.0629992  85.6989978  -0.9019986  74.6459992  84.9639978  -0.7099986
  74.6269992  86.4709978  -0.8549986  74.2189781  85.7028145  -0.8693836
  75.5599992  83.6019978  -0.2169986  74.6969992  83.2229978  -0.3829986
  76.1639992  82.8629978  -0.2919986  75.5236085  83.4503223  -0.2498306
  73.2849992  79.7559978 -17.0439986  73.8959992  79.3849978 -16.4069986
  72.4479992  79.3349978 -16.8479986  73.2554947  79.6482756 -16.9302748
  72.9179992  81.3109978 -12.0779986  73.1969992  80.4039978 -11.9539986
  73.6769992  81.7449978 -12.4669986  73.0588619  81.2454502 -12.1136205
  73.5289992  81.8929978  -6.6419986  74.4619992  82.1049978  -6.6769986
  73.2939992  81.9939978  -5.7199986  73.6249517  81.9356833  -6.5220870
  73.5589992  82.6299978  -3.8659986  72.7159992  82.8979978  -3.4999986
  74.0009992  83.4519978  -4.0769986  73.5034138  82.7778273  -3.8444482
  57.8399992  81.0769978  -0.3899986  58.7589992  80.9549978  -0.1529986
  57.3899992  80.3269978   0.0000014  57.9050087  80.9589608  -0.3048590
  75.8419992  76.6099978   1.4870014  76.1909992  75.9559978   0.8820014
  75.9889992  77.4469978   1.0470014  75.9096824  76.6336024   1.3446304
  73.5309992  78.5739978 -12.0299986  73.7129992  78.1249978 -11.2049986
  72.9309992  77.9899978 -12.4939986  73.4748187  78.4335552 -11.9797261
  59.0609992  79.3899978  -7.4979986  59.5059992  78.5979978  -7.1959986
  59.5269992  80.1059978  -7.0679986  59.1849718  79.3784534  -7.3984735
  57.3649992  82.3889978  -6.4289986  57.8569992  82.1679978  -7.2199986
  57.7269992  83.2289978  -6.1479986  57.4812923  82.4723468  -6.4992593
  75.3609992  78.7189978  -0.1639986  74.4439992  78.9899978  -0.1989986
  75.4839992  78.1839978  -0.9479986  75.2519672  78.6837885  -0.2748138
  75.3979992  78.6419978 -15.5019986  75.8099992  77.9209978 -15.9769986
  76.0789992  79.3109978 -15.4439986  75.5465536  78.6337766 -15.5591976
  57.6789992  78.6469978 -12.3749986  56.7539992  78.8549978 -12.5039986
  58.1329992  79.1309978 -13.0649986  57.6136298  78.7409299 -12.4859549
  72.4489992  93.6309978 -10.4289986  73.1019992  93.2829978 -11.0369986
  72.9599992  94.1189978  -9.7829986  72.6072777  93.6493815 -10.4247953
  57.6419992  77.3849978  -4.0309986  56.9769992  77.1389978  -3.3879986
  57.1989992  78.0069978  -4.6079986  57.4911168  77.4354214  -4.0210152
  59.8339992  90.5599978   0.1140014  59.0129992  90.7349978  -0.3469986
  59.5819992  90.4869978   1.0340014  59.6875594  90.5740717   0.1753611
  62.7879992  91.5339978  -3.6279986  62.3639992  92.3439978  -3.9099986
  63.6929992  91.6199978  -3.9299986  62.8522138  91.6564160  -3.7073585
  67.0999992  92.9329978  -0.6679986  67.2839992  92.5999978   0.2100014
  67.9459992  93.2429978  -0.9899986  67.2396484  92.9292979  -0.5912383
  69.4449992  94.2189978  -1.4239986  70.1219992  93.5859978  -1.6639986
  69.7659992  94.6199978  -0.6169986  69.5811323  94.1865691  -1.3476842
  74.3619992  76.8089978  -2.3449986  73.5489992  77.1339978  -2.7319986
  74.5949992  76.0479978  -2.8779986  74.2821347  76.7506880  -2.4700159
  60.1899992  94.7909978  -3.5799986  59.4699992  95.2309978  -4.0309986
  59.8249992  94.5399978  -2.7319986  60.0419643  94.8173369  -3.5270871
  62.6569992  94.3909978  -4.5499986  61.7929992  94.4629978  -4.1459986
  62.6019992  94.9379978  -5.3339986  62.5311942  94.4747849  -4.6006000
  67.3679992  94.2789978  -5.3749986  66.9109992  94.8079978  -6.0289986
  67.5309992  94.8819978  -4.6499986  67.3274960  94.4329280  -5.3664726
  69.6959992  93.1569978  -4.4299986  68.7909992  93.3219978  -4.6959986
  70.1239992  94.0099978  -4.4959986  69.6301537  93.2949134  -4.4752905
  72.2999992  94.7269978  -4.1349986  72.1179992  95.6429978  -4.3459986
  72.4769992  94.3159978  -4.9819986  72.2990030  94.7968273  -4.2782834
  59.6049992  93.4139978  -6.6699986  59.5869992  92.9879978  -5.8129986
  60.4099992  93.0949978  -7.0789986  59.7112875  93.3126435  -6.6080485
  61.7459992  92.1239978  -8.0149986  61.5269992  91.2069978  -7.8449986
  62.5699992  92.2639978  -7.5489986  61.8274702  92.0175511  -7.9287473
  64.2829992  92.5939978  -7.1659986  64.4959992  91.7059978  -7.4529986
  64.3479992  92.5589978  -6.2119986  64.3209149  92.4678326  -7.0762631
  67.7919992  78.2579978  -8.0219986  67.1179992  77.6279978  -7.7659986
  68.3559992  77.7739978  -8.6249986  67.7760384  78.1063708  -8.0684980
  72.9349992  76.3649978  -7.9089986  73.5379992  76.9129978  -8.4109986
  72.0649992  76.6839978  -8.1499986  72.8999157  76.4830373  -8.0102090
  74.6619992  77.5039978  -9.5759986  75.2729992  76.9899978 -10.1029986
  75.0439992  78.3809978  -9.5529986  74.7973305  77.5522050  -9.6450582
  60.1189992  76.8919978 -10.1999986  59.3419992  76.6569978 -10.7069986
  60.6489992  76.0949978 -10.1909986  60.0843451  76.7521268 -10.2681373
  58.9549992  76.6899978 -14.3959986  59.3939992  77.3009978 -14.9879986
  58.3209992  77.2279978 -13.9219986  58.9293859  76.8464064 -14.4129695
  64.6979992  76.8179978 -10.3869986  65.5719992  77.2069978 -10.4159986
  64.5619992  76.6029978  -9.4639986  64.7991953  76.8421643 -10.2662383
  70.2549992  76.8479978  -8.7369986  70.3309992  76.9439978  -9.6869986
  69.9799992  75.9409978  -8.6089986  70.2281871  76.7384146  -8.8496056
  71.6079992  76.8739978 -13.0449986  70.9049992  77.4889978 -13.2549986
  71.1629992  76.0369978 -12.9139986  71.4516550  76.8449668 -13.0560163
  58.8559992  92.6379978 -13.4989986  58.1709992  92.5999978 -14.1659986
  58.8599992  93.5509978 -13.2109986  58.7627621  92.7561924 -13.5513874
  60.8159992  78.6059978 -15.9539986  61.3069992  77.9759978 -16.4809986
  61.4389992  78.9019978 -15.2909986  60.9675304  78.5597376 -15.9365060
  65.8419992  78.8989978 -13.4969986  66.0199992  78.2519978 -12.8139986
  65.7879992  79.7329978 -13.0299986  65.8590678  78.9231604 -13.3403699
  67.7199992  93.8469978 -15.1009986  68.5859992  94.2139978 -15.2789986
  67.4739992  93.4079978 -15.9149986  67.8052097  93.8378525 -15.2353981
  74.4289992  93.4099978 -12.4219986  74.2349992  92.6619978 -12.9869986
  74.3899992  94.1679978 -13.0049986  74.3971645  93.4100786 -12.5781852
  60.0759992  77.4059978  -0.6819986  59.7099992  76.6399978  -0.2399986
  60.9889992  77.4349978  -0.3959986  60.1493172  77.3050324  -0.5828110
  62.0489992  76.7559978   0.8530014  62.9479992  76.4819978   0.6690014
  61.6629992  76.0139978   1.3180014  62.1197307  76.6182196   0.8907098
  60.6739992  93.5579978 -16.4739986  60.4059992  93.8439978 -15.5999986
  61.4449992  93.0119978 -16.3209986  60.7415926  93.5232779 -16.3338795
  70.4709992  76.0889978   1.0360014  70.5469992  75.6629978   1.8890014
  71.3639992  76.1019978   0.6930014  70.6022303  76.0323493   1.1065497
  73.6469992  92.1619978  -0.2719986  72.8649992  91.9749978  -0.7919986
  73.5749992  93.0909978  -0.0549986  73.5301924  92.2620637  -0.3138398
  88.0529992  86.0479978 -10.2409986  88.1419992  86.9919978 -10.3729986
  87.4149992  85.7729978 -10.8989986  87.9789062  86.1399812 -10.3480359
  86.9859992  85.3029978  -6.8219986  86.9479992  84.6569978  -6.1169986
  86.6639992  84.8359978  -7.5929986  86.9372679  85.1514276  -6.8297079
  79.3539992  84.9169978  -5.2289986  79.3959992  84.2919978  -4.5059986
  80.0569992  85.5409978  -5.0469986  79.4547345  84.9157873  -5.1054726
  90.6919992  88.2419978  -8.5209986  90.2509992  87.5219978  -8.0699986
  90.6789992  88.9629978  -7.8909986  90.6299215  88.2409291  -8.3741895
  80.2779992  89.3669978  -6.6939986  79.9079992  88.5649978  -7.0639986
  81.2189992  89.1989978  -6.6479986  80.3545984  89.2344638  -6.7384397
  76.8879992  83.0269978 -11.3019986  76.4399992  83.8729978 -11.3199986
  76.3269992  82.4479978 -11.8169986  76.7508546  83.0643993 -11.3741109
  77.5979992  85.1889978  -9.1759986  77.8119992  84.4189978  -8.6479986
  78.3359992  85.2789978  -9.7789986  77.7270200  85.0958587  -9.1852965
  87.8039992  93.3459978  -8.3089986  88.4229992  92.6699978  -8.5819986
  87.5949992  93.1279978  -7.3999986  87.8606056  93.2238869  -8.2236033
  85.3749992  87.7349978  -6.4159986  85.6789992  87.0489978  -7.0109986
  86.0969992  87.8539978  -5.7979986  85.5141240  87.6572314  -6.4139041
  94.0379992  79.3369978  -5.5559986  94.0879992  79.9469978  -4.8199986
  94.4639992  79.7979978  -6.2789986  94.1024108  79.4827709  -5.5529888
  88.5159992  82.1289978  -6.0889986  88.6589992  81.1829978  -6.0689986
  88.4099992  82.3359978  -7.0169986  88.5212403  82.0274797  -6.2117761
  81.6709992  80.2309978  -8.8159986  81.7139992  81.0909978  -9.2349986
  81.2129992  79.6789978  -9.4499986  81.6149871  80.2739245  -8.9589239
  89.3929992  80.3619978 -10.4149986  90.0399992  80.0329978  -9.7909986
  89.9029992  80.8789978 -11.0379986  89.5504351  80.3869067 -10.4138963
  78.2909992  82.6279978  -8.0539986  78.9449992  82.0779978  -7.6219986
  78.3149992  82.3539978  -8.9709986  78.3837199  82.5157167  -8.1188332
  83.4479992  84.1779978  -8.8389986  84.0639992  83.6509978  -8.3299986
  82.8609992  83.5379978  -9.2429986  83.4530154  84.0193954  -8.8239055
  94.4299992  80.8149978  -3.3199986  93.7409992  81.4729978  -3.4149986
  94.4449992  80.6169978  -2.3829986  94.3377756  80.8782603  -3.2064188
  80.4809992  79.1489978  -4.7419986  80.2619992  79.6789978  -5.5089986
  79.8129992  79.3749978  -4.0949986  80.3606975  79.2520967  -4.7594860
  87.8499992  88.6489978 -11.1979986  87.5549992  88.3259978 -12.0499986
  87.5259992  89.5489978 -11.1569986  87.7658460  88.7264464 -11.3090286
  83.0499992  86.8239978  -4.4549986  82.3099992  87.4229978  -4.3509986
  83.7639992  87.3779978  -4.7699986  83.0453500  86.9807829  -4.4833629
  91.1569992  79.6529978  -8.4349986  90.9419992  78.8869978  -7.9019986
  91.8129992  80.1249978  -7.9219986  91.2162673  79.6120728  -8.2928010
  80.0749992  81.0409978  -6.7899986  80.6889992  81.6739978  -6.4169986
  80.5869992  80.5689978  -7.4459986  80.2281962  81.0637249  -6.8277065
  81.4579992  88.7889978  -3.6679986  81.4519992  89.6679978  -4.0459986
  80.6039992  88.7049978  -3.2429986  81.3417925  88.8979535  -3.6623113
  77.5789992  88.4599978 -12.8859986  77.3069992  88.6889978 -13.7739986
  77.6239992  89.2969978 -12.4249986  77.5478097  88.6046163 -12.9453317
  91.2039992  90.0809978  -6.1729986  90.2619992  90.1399978  -6.0109986
  91.4799992  90.9869978  -6.3099986  91.1125865  90.2115288  -6.1693808
  91.5039992  78.3679978  -4.7559986  90.7679992  78.9779978  -4.7929986
  92.1879992  78.7829978  -5.2819986  91.4955367  78.5077551  -4.8321826
  84.5079992  76.4539978  -7.2899986  84.3899992  75.5059978  -7.3439986
  83.6529992  76.7869978  -7.0169986  84.3762805  76.3692202  -7.2604921
  89.4559992  91.8619978  -9.5479986  89.8809992  91.1549978 -10.0329986
  89.7729992  92.6639978  -9.9649986  89.5570266  91.8735190  -9.6707521
  90.6159992  89.7629978 -11.0389986  90.3579992  89.0729978 -11.6509986
  90.6869992  89.3199978 -10.1939986  90.5903050  89.6086814 -11.0084379
  92.3019992  88.3299978  -2.5619986  92.4409992  87.7379978  -3.3009986
  92.4689992  89.2029978  -2.9179986  92.3436193  88.3668896  -2.7113789
  86.7739992  85.2919978 -12.7889986  86.0629992  85.8269978 -13.1409986
  87.4649992  85.3469978 -13.4489986  86.7700751  85.3726777 -12.9264142
  86.8279992  83.7489978 -15.7509986  87.5289992  83.7719978 -15.0989986
  87.1299992  83.1209978 -16.4069986  86.9648202  83.6672212 -15.7504391
  94.1429992  84.6699978  -4.4959986  93.4909992  85.3639978  -4.4069986
  94.6089992  84.8799978  -5.3059986  94.1165937  84.7935019  -4.5932467
  90.1799992  85.5009978 -11.8379986  89.4479992  85.7299978 -11.2639986
  90.6269992  84.7879978 -11.3829986  90.1403963  85.4358729 -11.6980055
  90.0769992  83.6759978  -2.7699986  90.1569992  84.4389978  -2.1979986
  89.4759992  83.9549978  -3.4599986  90.0066547  83.8182457  -2.7849953
  81.8249992  86.1319978  -9.9549986  81.4949992  85.7609978 -10.7729986
  82.4139992  85.4609978  -9.6079986  81.8593970  85.9906063 -10.0200596
  83.1919992  89.5599978  -7.2739986  83.0969992  88.9809978  -8.0299986
  83.9209992  89.1889978  -6.7779986  83.2776011  89.4305561  -7.3103972
  82.1919992  84.8999978  -6.3219986  82.7569992  85.0219978  -7.0839986
  82.5109992  85.5379978  -5.6829986  82.3124166  85.0028791  -6.3399652
  88.5009992  90.4039978  -5.5879986  88.2609992  91.0659978  -4.9399986
  88.3029992  89.5689978  -5.1629986  88.4413826  90.3818115  -5.4418434
  83.0719992  89.2999978  -1.6039986  82.7609992  90.0819978  -1.1489986
  82.4219992  89.1469978  -2.2899986  82.9415538  89.3864087  -1.6344102
  89.0509992  84.6639978 -14.1519986  89.6299992  84.8139978 -13.4059986
  89.4649992  85.1339978 -14.8759986  89.1863358  84.7480954 -14.1476047
  79.9919992  85.4979978  -2.3759986  80.0619992  86.1489978  -1.6769986
  79.1009992  85.6009978  -2.7109986  79.8811690  85.6009249  -2.3256957
  86.7769992  91.3999978 -10.7169986  87.2509992  91.6959978  -9.9399986
  86.2139992  92.1389978 -10.9499986  86.7657890  91.5403036 -10.6421899
  81.3109992  91.3709978  -0.8409986  81.3189992  91.2349978  -1.7879986
  80.3949992  91.2539978  -0.5889986  81.1882528  91.3365463  -0.9366757
  92.7499992  76.4139978 -14.3389986  91.8499992  76.5529978 -14.0439986
  93.0019992  77.2449978 -14.7409986  92.6608683  76.5454055 -14.3529768
  80.8159992  85.2009978 -12.3659986  80.5239992  85.9689978 -12.8569986
  80.1409992  84.5419978 -12.5289986  80.6848497  85.2169745 -12.4551740
  93.9389992  90.7799978 -15.9629986  94.0119992  91.7189978 -15.7929986
  94.8439992  90.4749978 -16.0189986  94.0714170  90.8673282 -15.9472937
  76.9089992  87.5639978  -3.5509986  76.4069992  87.5359978  -4.3659986
  76.9139992  86.6589978  -3.2409986  76.8409832  87.4377486  -3.6205879
  76.6589992  90.3449978  -6.6669986  77.6049992  90.1999978  -6.6859986
  76.5459992  91.1289978  -6.1299986  76.7733578  90.4311697  -6.5969683
  94.8569992  91.0109978  -0.9839986  94.8069992  90.0549978  -1.0219986
  94.0299992  91.2779978  -0.5829986  94.7383831  90.9164680  -0.9349879
  85.8349992  90.5849978  -2.1079986  85.9229992  91.4109978  -1.6329986
  84.9719992  90.2549978  -1.8589986  85.7303357  90.6535468  -2.0092347
  86.2499992  94.3569978 -12.3019986  86.1739992  94.2359978 -13.2489986
  86.2819992  95.3059978 -12.1839986  86.2439380  94.4687677 -12.4154819
  79.9029992  93.1459978 -10.5209986  80.0549992  92.7979978  -9.6429986
  79.0519992  92.7889978 -10.7769986  79.8088344  93.0500879 -10.4353132
  89.3509992  93.5109978 -15.2999986  89.7259992  92.7669978 -15.7709986
  89.3559992  93.2409978 -14.3819986  89.4030098  93.3726392 -15.2403371
  89.0199992  93.4369978 -12.5509986  88.0849992  93.5369978 -12.3719986
  89.2999992  92.7269978 -11.9719986  88.9299471  93.3547933 -12.4483305
  92.0089992  82.5039978  -0.5039986  91.6009992  82.9839978  -1.2249986
  92.0489992  81.5979978  -0.8119986  91.9586221  82.4472449  -0.6441733
  79.1579992  88.8879978  -2.5079986  79.3739992  88.5259978  -1.6479986
  78.3019992  88.5129978  -2.7169986  79.0718810  88.7878837  -2.4187320
  81.7759992  77.3579978  -6.5119986  80.9149992  77.2709978  -6.9199986
  81.7539992  78.2139978  -6.0839986  81.6550491  77.4618003  -6.5100418
  86.4389992  77.0799978  -3.1369986  86.8589992  76.6649978  -2.3839986
  85.5059992  76.9009978  -3.0199986  86.3703736  76.9989910  -3.0181032
  89.7659992  80.8349978  -2.2839986  89.2519992  80.7099978  -1.4859986
  89.6099992  81.7479978  -2.5279986  89.6746967  80.9412123  -2.2079063
  90.5279992  85.6959978 -16.5229986  90.5699992  85.4739978 -17.4529986
  91.3769992  86.0949978 -16.3329986  90.6485253  85.7195498 -16.6246178
  86.1009992  79.5719978 -15.8519986  85.8469992  79.5909978 -14.9299986
  85.8439992  78.7009978 -16.1539986  86.0314508  79.4568280 -15.7665197
  81.8669992  82.3229978  -5.4169986  81.2259992  82.2829978  -4.7079986
  81.9049992  83.2499978  -5.6549986  81.7843010  82.4427668  -5.3520054
  81.8639992  82.5439978 -10.5049986  80.9719992  82.2039978 -10.5639986
  82.3149992  82.1669978 -11.2609986  81.8027642  82.4464910 -10.6152274
  87.3999992  82.9599978 -11.6879986  86.9909992  83.7749978 -11.9799986
  88.1199992  82.8199978 -12.3019986  87.4414439  83.0525372 -11.8109885
  86.5019992  83.1359978  -0.1999986  85.9389992  82.4309978   0.1210014
  87.3279992  83.0149978   0.2680014  86.5366674  83.0232165  -0.0928249
  88.4049992  82.4059978  -8.8739986  88.2089992  83.0119978  -9.5889986
  88.5859992  81.5729978  -9.3079986  88.4026584  82.3762513  -9.0305788
  79.6169992  82.6439978  -3.5499986  79.5789992  83.0439978  -2.6809986
  79.1269992  81.8269978  -3.4599986  79.5455330  82.5882674  -3.4188711
  82.9829992  80.0179978 -16.7509986  82.5519992  79.5729978 -16.0219986
  82.2649992  80.3889978 -17.2639986  82.8269176  80.0072051 -16.7205070
  76.2259992  79.7599978  -9.6989986  76.8559992  79.7309978  -8.9799986
  76.6749992  79.3349978 -10.4299986  76.3730835  79.6985660  -9.6992341
  77.4999992  80.5059978 -14.2749986  77.9739992  81.0969978 -14.8599986
  76.7819992  81.0359978 -13.9279986  77.4678640  80.6585511 -14.3082031
  87.6689992  84.0439978  -4.2029986  87.9919992  83.4129978  -4.8459986
  87.2279992  83.5099978  -3.5419986  87.6536379  83.8853468  -4.2017418
  84.4459992  79.9719978  -9.4189986  83.5349992  80.0289978  -9.1299986
  84.9509992  79.9119978  -8.6079986  84.3896873  79.9716826  -9.2698793
  79.2739992  81.6009978 -10.5919986  78.3849992  81.6999978 -10.9319986
  79.5709992  80.7589978 -10.9379986  79.1924177  81.5007687 -10.6853060
  82.9269992  81.6009978 -12.9349986  83.8589992  81.7299978 -12.7569986
  82.7119992  82.2699978 -13.5849986  83.0254472  81.7090806 -12.9985109
  88.8509992  79.2069978  -6.1539986  88.1739992  79.3379978  -5.4909986
  88.3659992  79.0519978  -6.9649986  88.6927405  79.2039947  -6.1727830
  81.6009992  82.7949978 -15.3689986  81.0589992  82.4159978 -16.0599986
  82.4349992  82.9899978 -15.7969986  81.6394390  82.7694079 -15.5215608
  92.1389992  94.8779978   0.1220014  92.3379992  95.3019978  -0.7119986
  92.7939992  95.2219978   0.7290014  92.2548522  94.9826301   0.0897852
  79.7369992  87.3519978  -0.2699986  80.4689992  87.6069978   0.2920014
  78.9559992  87.5569978   0.2460014  79.7316526  87.4145450  -0.1234824
  85.7659992  82.7589978  -7.5319986  86.3299992  82.2129978  -8.0789986
  85.6179992  82.2379978  -6.7429986  85.8233037  82.6136787  -7.5002771
  80.7679992  78.8959978 -11.1129986  80.4509992  77.9929978 -11.1489986
  81.5489992  78.8979978 -11.6659986  80.8302431  78.7727797 -11.1926898
  84.3919992  81.1479978  -5.1179986  83.5569992  81.6019978  -5.0069986
  84.9159992  81.4239978  -4.3659986  84.3486072  81.2473948  -5.0011864
  84.9369992  87.3609978 -13.4329986  84.1919992  86.8529978 -13.7549986
  84.8019992  87.4099978 -12.4869986  84.8168963  87.2981731 -13.3491174
  92.0869992  86.4939978  -4.6459986  92.7279992  86.9499978  -5.1899986
  91.2559992  86.6069978  -5.1089986  92.0625287  86.5716921  -4.7830113
  88.8339992  80.1749978 -15.2339986  87.8959992  80.2859978 -15.3849986
  89.1319992  81.0309978 -14.9269986  88.7456318  80.3060158 -15.2131855
  86.4559992  87.5449978  -2.1959986  86.1099992  87.1629978  -1.3889986
  86.2559992  88.4779978  -2.1249986  86.3815987  87.6189002  -2.0759539
  89.5529992  82.0419978 -13.5729986  90.4449992  81.9039978 -13.2539986
  89.6089992  82.8329978 -14.1099986  89.6827325  82.1299918 -13.6018783
  80.0609992  86.6559978  -7.6629986  80.8059992  86.6529978  -8.2649986
  80.1389992  85.8319978  -7.1819986  80.1733365  86.5442384  -7.6802570
  87.0619992  88.8189978 -14.4079986  86.7669992  89.6459978 -14.0259986
  86.3589992  88.1999978 -14.2109986  86.9266379  88.8484171 -14.3291346
  77.0689992  85.1159978  -2.3479986  77.2919992  84.6979978  -1.5169986
  76.4669992  84.5039978  -2.7709986  77.0181513  84.9759606  -2.2913260
  84.0859992  84.6329978  -0.1349986  83.7899992  84.4679978  -1.0309986
  85.0169992  84.4129978  -0.1459986  84.1714401  84.5806879  -0.2589794
  88.7059992  90.0069978  -2.2459986  87.8059992  90.1899978  -2.5129986
  88.7399992  90.2659978  -1.3249986  88.5873748  90.0670554  -2.1580836
  94.4379992  82.2509978 -13.8779986  93.8829992  81.8549978 -14.5509986
  94.5379992  83.1619978 -14.1559986  94.3756816  82.3199505 -14.0074967
  94.4009992  88.0519978  -1.0409986  93.5499992  88.2899978  -1.4089986
  94.9909992  88.0349978  -1.7939986  94.3643812  88.0822524  -1.1931547
  92.7329992  91.0369978 -13.4129986  92.3599992  90.2119978 -13.1039986
  93.0099992  90.8539978 -14.3109986  92.7193463  90.8992569 -13.4920475
  89.8929992  85.8449978  -6.3919986  88.9649992  85.6139978  -6.4189986
  90.3439992  85.0679978  -6.7219986  89.8268165  85.7082774  -6.4403210
  82.4359992  90.1739978 -10.2589986  82.9639992  90.9469978 -10.4589986
  81.5559992  90.3979978 -10.5609986  82.3893435  90.3102700 -10.3272690
  78.1909992  85.0359978 -15.6719986  78.8069992  85.6629978 -15.2919986
  77.3289992  85.3519978 -15.3999986  78.1587678  85.1644412 -15.5832791
  83.8639992  87.8369978 -10.6829986  83.6229992  88.7619978 -10.6409986
  83.1229992  87.3779978 -10.2859986  83.7309206  87.9015915 -10.6236231
  84.3779992  91.9859978  -4.3679986  84.7409992  92.8399978  -4.6009986
  84.9099992  91.6939978  -3.6269986  84.4995141  92.0633895  -4.2997903
  82.5469992  92.8579978 -11.1369986  81.5969992  92.9639978 -11.0859986
  82.8989992  93.6789978 -10.7929986  82.4645472  92.9834923 -11.0835148
  87.9219992  88.0849978  -4.6669986  87.4969992  87.8569978  -3.8409986
  88.5029992  87.3459978  -4.8489986  87.9423395  87.9539545  -4.5785586
  90.1249992  89.0139978 -15.5929986  90.4789992  88.6339978 -14.7889986
  89.1769992  88.9199978 -15.5059986  90.0452298  88.9492452 -15.4711313
  90.5809992  92.6369978  -2.1979986  89.9789992  92.0809978  -2.6929986
  90.8619992  93.3039978  -2.8239986  90.5365757  92.6510744  -2.3504325
  94.6289992  93.4929978 -15.3919986  95.3729992  94.0789978 -15.5319986
  93.9349992  94.0619978 -15.0589986  94.6369809  93.6500818 -15.3661410
  78.7029992  79.8699978  -2.7899986  77.8109992  80.2079978  -2.8579986
  78.6049992  79.0139978  -2.3719986  78.5674475  79.8006543  -2.7428296
  90.9909992  87.6859978 -13.3659986  90.7139992  86.9579978 -12.8099986
  91.9189992  87.8049978 -13.1609986  91.0784499  87.6024213 -13.2621956
  78.3549992  91.6739978  -4.3549986  78.5719992  90.7419978  -4.3859986
  78.6009992  91.9489978  -3.4719986  78.4179809  91.5835686  -4.2398309
  83.1529992  89.6959978 -14.6899986  83.2999992  89.1759978 -13.8999986
  83.1499992  90.6029978 -14.3829986  83.1727102  89.7473953 -14.5404075
  79.6059992  86.9479978 -14.1789986  78.9199992  87.3009978 -13.6119986
  80.1289992  87.7109978 -14.4259986  79.5828402  87.0993901 -14.1348199
  87.4379992  79.6109978  -3.8999986  88.1369992  79.6849978  -3.2499986
  87.0569992  78.7459978  -3.7459986  87.4822097  79.5042389  -3.7902003
  88.2219992  79.2629978 -12.8029986  88.4419992  79.7339978 -13.6069986
  88.7809992  79.6569978 -12.1329986  88.3276732  79.3807287 -12.8224967
  85.8909992  91.3929978 -13.9399986  85.0739992  91.8899978 -13.8879986
  86.4199992  91.8689978 -14.5809986  85.8508125  91.5251989 -14.0194694
  85.4219992  80.9909978 -11.9679986  86.2339992  81.4949978 -11.9219986
  85.1779992  80.8459978 -11.0539986  85.5001467  81.0403749 -11.8381425
  85.9579992  81.9769978  -2.7839986  86.0769992  82.5509978  -2.0269986
  86.6129992  81.2889978  -2.6689986  86.0628684  81.9625194  -2.6648326
  86.3059992  78.0719978 -11.0299986  85.9589992  78.6889978 -10.3859986
  86.9649992  78.5729978 -11.5119986  86.3475090  78.2241575 -11.0069319
  83.2289992  92.4369978 -13.9589986  83.3899992  93.2369978 -14.4589986
  83.0319992  92.7439978 -13.0739986  83.2243906  92.5878678 -13.9077667
  81.9639992  79.1349978 -14.3429986  81.8799992  80.0229978 -13.9959986
  82.8539992  78.8699978 -14.1109986  82.0728163  79.2207179 -14.2641404
  92.1619992  79.8839978  -1.9489986  91.2459992  80.1459978  -2.0359986
  92.4979992  79.8809978  -2.8449986  92.0818499  79.9195163  -2.0821234
  90.7649992  83.6339978  -7.8529986  89.9669992  83.2189978  -8.1809986
  91.2099992  82.9439978  -7.3619986  90.7159684  83.4838628  -7.8314773
  80.2219992  89.5619978 -15.2829986  80.8139992  90.2619978 -15.0059986
  80.6809992  89.1289978 -16.0019986  80.3651652  89.5992675 -15.3423467
  78.5379992  82.2269978 -16.1669986  78.4929992  83.1659978 -15.9879986
  77.6499992  81.9909978 -16.4359986  78.4118166  82.3236687 -16.1788476
  91.8509992  92.8899978  -6.2309986  91.6949992  93.5689978  -6.8879986
  92.7839992  92.9619978  -6.0279986  91.9557387  92.9926390  -6.2934658
  79.3459992  77.0079978  -7.4929986  79.1169992  77.0669978  -8.4209986
  78.9039992  76.2169978  -7.1869986  79.2548801  76.9090540  -7.5785271
  78.2769992  90.9489978 -11.3329986  77.4439992  91.4209978 -11.3059986
  78.8219992  91.4589978 -11.9319986  78.2367857  91.0824791 -11.4102858
  77.5649992  93.5609978  -0.0029986  78.1049992  93.3449978   0.7570014
  77.0839992  92.7559978  -0.1929986  77.5739219  93.4225156   0.0754282
  82.1619992  92.4809978   1.6170014  82.9299992  92.0219978   1.9580014
  82.1409992  92.2549978   0.6870014  82.2642135  92.3876668   1.5379491
  86.2539992  91.9889978 -17.0069986  85.6099992  91.3579978 -16.6859986
  87.0159992  91.4579978 -17.2389986  86.2688058  91.8307902 -16.9943962
  88.7389992  90.8609978   0.3460014  88.3879992  90.0039978   0.5900014
  89.4649992  91.0029978   0.9530014  88.7891895  90.7631351   0.4613770
  90.8589992  91.8059978 -16.7739986  91.1419992  91.0109978 -16.3209986
  91.5979992  92.0389978 -17.3349986  90.9977096  91.7287049 -16.7878896
  77.4719992  87.3719978   0.9510014  77.6159992  86.4699978   0.6650014
  76.6999992  87.6579978   0.4640014  77.3872733  87.2871798   0.8459532
  81.8129992  87.7149978 -16.9159986  81.8779992  86.9209978 -16.3859986
  82.4659992  87.5969978 -17.6059986  81.9101605  87.5903430 -16.9367003
  84.1269992  87.3409978   0.3840014  83.7989992  87.6119978  -0.4729986
  84.2789992  86.3999978   0.2960014  84.1026412  87.2509046   0.2547822
  89.8619992  87.2569978  -2.2329986  90.6069992  87.8459978  -2.3519986
  89.1049992  87.8389978  -2.1689986  89.8615470  87.4162128  -2.2406201
  78.3049992  84.5719978   0.3710014  78.7129992  83.7149978   0.2500014
  78.0439992  84.5859978   1.2920014  78.3256016  84.4565119   0.4789192
  82.9629992  85.6879978 -14.6099986  82.5029992  85.2039978 -13.9249986
  83.2179992  85.0189978 -15.2459986  82.9344856  85.5313669 -14.6021603
  82.2519992  83.5809978  -2.2539986  81.6329992  84.2549978  -1.9739986
  82.5959992  83.9019978  -3.0879986  82.2137123  83.7166887  -2.3283612
  84.0339992  83.9309978 -16.3479986  83.8529992  83.7759978 -17.2749986
  84.9839992  84.0389978 -16.3029986  84.1376566  83.9243669 -16.4689071
  87.2709992  86.0519978   1.0230014  88.2249992  86.1359978   0.9960014
  87.1109992  85.3399978   1.6430014  87.3797182  85.9672842   1.1030733
  93.4239992  86.2849978 -16.9019986  93.1499992  85.8609978 -17.7149986
  93.4629992  87.2169978 -17.1189986  93.3917716  86.3528827 -17.0425714
  82.5909992  80.9359978  -1.1719986  82.7409992  80.2069978  -1.7739986
  82.5929992  81.7129978  -1.7309986  82.6117967  80.9412708  -1.3299459
  83.0039992  79.3049978  -3.6789986  83.5389992  79.7569978  -4.3309986
  82.1509992  79.1969978  -4.1019986  82.9620374  79.3522665  -3.8253290
  84.5849992  84.7449978  -3.4399986  85.3359992  84.5889978  -4.0129986
  84.2459992  85.5969978  -3.7149986  84.6419587  84.8388138  -3.5555922
  89.0009992  82.5599978   1.5890014  89.1929992  81.6289978   1.4770014
  89.8589992  82.9849978   1.5780014  89.1432182  82.4900070   1.5721862
  90.3179992  85.3489978  -0.3339986  90.0359992  86.0579978  -0.9119986
  91.2599992  85.2759978  -0.4849986  90.4067921  85.4362193  -0.4335775
  81.0699992  82.1339978   0.7390014  80.3019992  81.6009978   0.5290014
  81.7479992  81.8239978   0.1400014  81.0567235  82.0191754   0.6292413
  83.8089992  76.7619978  -3.2479986  83.7109992  77.7079978  -3.3529986
  83.0669992  76.3889978  -3.7239986  83.6952534  76.8411773  -3.3267400
  85.0729992  81.0829978   0.3160014  84.8379992  80.8639978   1.2170014
  84.2899992  80.8759978  -0.1939986  84.9349095  81.0249892   0.3705353
  87.7889992  80.2109978  -0.6089986  86.8409992  80.2429978  -0.4769986
  88.1009992  79.5849978   0.0450014  87.7015293  80.1307923  -0.5025852
  89.4229992  78.8449978   1.3960014  89.3259992  77.8929978   1.3910014
  89.1009992  79.1129978   2.2570014  89.3662468  78.7510884   1.5116210
  79.2499992  80.0539978   0.4440014  79.4619992  79.3479978  -0.1659986
  79.1389992  79.6169978   1.2880014  79.2640269  79.8981921   0.4745873
  84.0309992  76.0559978  -0.5769986  84.7429992  75.4159978  -0.5909986
  83.9299992  76.3219978  -1.4899986  84.1147387  76.0044330  -0.7024437
  84.3849992  77.7379978   1.4770014  84.2529992  77.2629978   0.6570014
  83.7849992  78.4829978   1.4220014  84.2859070  77.7735789   1.3573251
  83.9309992  94.6209978 -15.3469986  84.8639992  94.7789978 -15.2029986
  83.6669992  95.2969978 -15.9719986  84.0229911  94.7339373 -15.4117278
  77.4989992  89.2579978 -15.8639986  78.4129992  89.3369978 -15.5909986
  77.5069992  88.5709978 -16.5299986  77.6250655  89.1759205 -15.9167083
  76.1479992  94.6509978 -10.7869986  75.5009992  94.1889978 -11.3189986
  76.5029992  93.9789978 -10.2039986  76.1073741  94.4969774 -10.7810825
  77.0179992  92.7309978  -8.9819986  76.6839992  91.8509978  -8.8099986
  77.2409992  93.0769978  -8.1169986  77.0023721  92.6571938  -8.8415832
  94.5669992  93.5409978  -6.0009986  94.5449992  93.7259978  -5.0619986
  95.2569992  94.1089978  -6.3419986  94.6573439  93.6431887  -5.9185209
  94.1299992  93.1079978  -3.0799986  93.6429992  92.3729978  -3.4509986
  94.6789992  92.7139978  -2.4019986  94.1375247  92.9541057  -3.0391539
  92.5809992  88.8979978   1.5590014  91.7149992  88.7929978   1.9530014
  92.9569992  89.6559978   2.0050014  92.5133401  88.9861708   1.6732620
  93.8819992  87.1539978 -12.9269986  94.7319992  87.5749978 -12.7999986
  93.8869992  86.4139978 -12.3199986  93.9991143  87.1116094 -12.8275250
  94.2759992  85.2079978 -11.1039986  93.5499992  84.7279978 -10.7059986
  94.8579992  85.4129978 -10.3709986  94.2552730  85.1700184 -10.9505851
  94.0349992  87.9929978  -6.1559986  94.8689992  87.6149978  -6.4369986
  94.1469992  88.9359978  -6.2749986  94.1641917  88.0687943  -6.2105139
  92.5219992  90.8709978  -3.8489986  91.8739992  91.1959978  -3.2239986
  92.0039992  90.4299978  -4.5229986  92.3634196  90.8558651  -3.8545848
  94.5449992  85.1089978 -14.7129986  94.0229992  85.4649978 -15.4309986
  94.5119992  85.7839978 -14.0339986  94.4690129  85.2489598 -14.7196645
  92.8939992  82.3479978 -16.1619986  92.9899992  83.0149978 -16.8419986
  92.7539992  81.5329978 -16.6429986  92.8882040  82.3290671 -16.3201622
  92.0629992  83.7289978 -10.5409986  91.9129992  82.7839978 -10.5609986
  91.7089992  84.0099978  -9.6969986  91.9946351  83.6376644 -10.4296780
  77.0979992  85.8069978  -6.5299986  77.2829992  85.7249978  -7.4659986
  77.9479992  85.6829978  -6.1069986  77.2380928  85.7790463  -6.6007107
  92.9189992  85.6989978  -0.9019986  93.5019992  84.9639978  -0.7099986
  93.4829992  86.4709978  -0.8549986  93.0749781  85.7028145  -0.8693836
  94.4159992  83.6019978  -0.2169986  93.5529992  83.2229978  -0.3829986
  95.0199992  82.8629978  -0.2919986  94.3796085  83.4503223  -0.2498306
  92.1409992  79.7559978 -17.0439986  92.7519992  79.3849978 -16.4069986
  91.3039992  79.3349978 -16.8479986  92.1114947  79.6482756 -16.9302748
  91.7739992  81.3109978 -12.0779986  92.0529992  80.4039978 -11.9539986
  92.5329992  81.7449978 -12.4669986  91.9148619  81.2454502 -12.1136205
  92.3849992  81.8929978  -6.6419986  93.3179992  82.1049978  -6.6769986
  92.1499992  81.9939978  -5.7199986  92.4809517  81.9356833  -6.5220870
  92.4149992  82.6299978  -3.8659986  91.5719992  82.8979978  -3.4999986
  92.8569992  83.4519978  -4.0769986  92.3594138  82.7778273  -3.8444482
  76.6959992  81.0769978  -0.3899986  77.6149992  80.9549978  -0.1529986
  76.2459992  80.3269978   0.0000014  76.7610087  80.9589608  -0.3048590
  94.6979992  76.6099978   1.4870014  95.0469992  75.9559978   0.8820014
  94.8449992  77.4469978   1.0470014  94.7656824  76.6336024   1.3446304
  92.3869992  78.5739978 -12.0299986  92.5689992  78.1249978 -11.2049986
  91.7869992  77.9899978 -12.4939986  92.3308187  78.4335552 -11.9797261
  77.9169992  79.3899978  -7.4979986  78.3619992  78.5979978  -7.1959986
  78.3829992  80.1059978  -7.0679986  78.0409718  79.3784534  -7.3984735
  76.2209992  82.3889978  -6.4289986  76.7129992  82.1679978  -7.2199986
  76.5829992  83.2289978  -6.1479986  76.3372923  82.4723468  -6.4992593
  94.2169992  78.7189978  -0.1639986  93.2999992  78.9899978  -0.1989986
  94.3399992  78.1839978  -0.9479986  94.1079672  78.6837885  -0.2748138
  94.2539992  78.6419978 -15.5019986  94.6659992  77.9209978 -15.9769986
  94.9349992  79.3109978 -15.4439986  94.4025536  78.6337766 -15.5591976
  76.5349992  78.6469978 -12.3749986  75.6099992  78.8549978 -12.5039986
  76.9889992  79.1309978 -13.0649986  76.4696298  78.7409299 -12.4859549
  91.3049992  93.6309978 -10.4289986  91.9579992  93.2829978 -11.0369986
  91.8159992  94.1189978  -9.7829986  91.4632777  93.6493815 -10.4247953
  76.4979992  77.3849978  -4.0309986  75.8329992  77.1389978  -3.3879986
  76.0549992  78.0069978  -4.6079986  76.3471168  77.4354214  -4.0210152
  78.6899992  90.5599978   0.1140014  77.8689992  90.7349978  -0.3469986
  78.4379992  90.4869978   1.0340014  78.5435594  90.5740717   0.1753611
  81.6439992  91.5339978  -3.6279986  81.2199992  92.3439978  -3.9099986
  82.5489992  91.6199978  -3.9299986  81.7082138  91.6564160  -3.7073585
  85.9559992  92.9329978  -0.6679986  86.1399992  92.5999978   0.2100014
  86.8019992  93.2429978  -0.9899986  86.0956484  92.9292979  -0.5912383
  88.3009992  94.2189978  -1.4239986  88.9779992  93.5859978  -1.6639986
  88.6219992  94.6199978  -0.6169986  88.4371323  94.1865691  -1.3476842
  93.2179992  76.8089978  -2.3449986  92.4049992  77.1339978  -2.7319986
  93.4509992  76.0479978  -2.8779986  93.1381347  76.7506880  -2.4700159
  79.0459992  94.7909978  -3.5799986  78.3259992  95.2309978  -4.0309986
  78.6809992  94.5399978  -2.7319986  78.8979643  94.8173369  -3.5270871
  81.5129992  94.3909978  -4.5499986  80.6489992  94.4629978  -4.1459986
  81.4579992  94.9379978  -5.3339986  81.3871942  94.4747849  -4.6006000
  86.2239992  94.2789978  -5.3749986  85.7669992  94.8079978  -6.0289986
  86.3869992  94.8819978  -4.6499986  86.1834960  94.4329280  -5.3664726
  88.5519992  93.1569978  -4.4299986  87.6469992  93.3219978  -4.6959986
  88.9799992  94.0099978  -4.4959986  88.4861537  93.2949134  -4.4752905
  91.1559992  94.7269978  -4.1349986  90.9739992  95.6429978  -4.3459986
  91.3329992  94.3159978  -4.9819986  91.1550030  94.7968273  -4.2782834
  78.4609992  93.4139978  -6.6699986  78.4429992  92.9879978  -5.8129986
  79.2659992  93.0949978  -7.0789986  78.5672875  93.3126435  -6.6080485
  80.6019992  92.1239978  -8.0149986  80.3829992  91.2069978  -7.8449986
  81.4259992  92.2639978  -7.5489986  80.6834702  92.0175511  -7.9287473
  83.1389992  92.5939978  -7.1659986  83.3519992  91.7059978  -7.4529986
  83.2039992  92.5589978  -6.2119986  83.1769149  92.4678326  -7.0762631
  86.6479992  78.2579978  -8.0219986  85.9739992  77.6279978  -7.7659986
  87.2119992  77.7739978  -8.6249986  86.6320384  78.1063708  -8.0684980
  91.7909992  76.3649978  -7.9089986  92.3939992  76.9129978  -8.4109986
  90.9209992  76.6839978  -8.1499986  91.7559157  76.4830373  -8.0102090
  93.5179992  77.5039978  -9.5759986  94.1289992  76.9899978 -10.1029986
  93.8999992  78.3809978  -9.5529986  93.6533305  77.5522050  -9.6450582
  78.9749992  76.8919978 -10.1999986  78.1979992  76.6569978 -10.7069986
  79.5049992  76.0949978 -10.1909986  78.9403451  76.7521268 -10.2681373
  77.8109992  76.6899978 -14.3959986  78.2499992  77.3009978 -14.9879986
  77.1769992  77.2279978 -13.9219986  77.7853859  76.8464064 -14.4129695
  83.5539992  76.8179978 -10.3869986  84.4279992  77.2069978 -10.4159986
  83.4179992  76.6029978  -9.4639986  83.6551953  76.8421643 -10.2662383
  89.1109992  76.8479978  -8.7369986  89.1869992  76.9439978  -9.6869986
  88.8359992  75.9409978  -8.6089986  89.0841871  76.7384146  -8.8496056
  90.4639992  76.8739978 -13.0449986  89.7609992  77.4889978 -13.2549986
  90.0189992  76.0369978 -12.9139986  90.3076550  76.8449668 -13.0560163
  77.7119992  92.6379978 -13.4989986  77.0269992  92.5999978 -14.1659986
  77.7159992  93.5509978 -13.2109986  77.6187621  92.7561924 -13.5513874
  79.6719992  78.6059978 -15.9539986  80.1629992  77.9759978 -16.4809986
  80.2949992  78.9019978 -15.2909986  79.8235304  78.5597376 -15.9365060
  84.6979992  78.8989978 -13.4969986  84.8759992  78.2519978 -12.8139986
  84.6439992  79.7329978 -13.0299986  84.7150678  78.9231604 -13.3403699
  86.5759992  93.8469978 -15.1009986  87.4419992  94.2139978 -15.2789986
  86.3299992  93.4079978 -15.9149986  86.6612097  93.8378525 -15.2353981
  93.2849992  93.4099978 -12.4219986  93.0909992  92.6619978 -12.9869986
  93.2459992  94.1679978 -13.0049986  93.2531645  93.4100786 -12.5781852
  78.9319992  77.4059978  -0.6819986  78.5659992  76.6399978  -0.2399986
  79.8449992  77.4349978  -0.3959986  79.0053172  77.3050324  -0.5828110
  80.9049992  76.7559978   0.8530014  81.8039992  76.4819978   0.6690014
  80.5189992  76.0139978   1.3180014  80.9757307  76.6182196   0.8907098
  79.5299992  93.5579978 -16.4739986  79.2619992  93.8439978 -15.5999986
  80.3009992  93.0119978 -16.3209986  79.5975927  93.5232779 -16.3338795
  89.3269992  76.0889978   1.0360014  89.4029992  75.6629978   1.8890014
  90.2199992  76.1019978   0.6930014  89.4582303  76.0323493   1.1065497
  92.5029992  92.1619978  -0.2719986  91.7209992  91.9749978  -0.7919986
  92.4309992  93.0909978  -0.0549986  92.3861924  92.2620637  -0.3138398
 106.9089992  86.0479978 -10.2409986 106.9979992  86.9919978 -10.3729986
 106.2709992  85.7729978 -10.8989986 106.8349062  86.1399812 -10.3480359
 105.8419992  85.3029978  -6.8219986 105.8039992  84.6569978  -6.1169986
 105.5199992  84.8359978  -7.5929986 105.7932679  85.1514276  -6.8297079
  98.2099992  84.9169978  -5.2289986  98.2519992  84.2919978  -4.5059986
  98.9129992  85.5409978  -5.0469986  98.3107345  84.9157873  -5.1054726
 109.5479992  88.2419978  -8.5209986 109.1069992  87.5219978  -8.0699986
 109.5349992  88.9629978  -7.8909986 109.4859215  88.2409291  -8.3741895
  99.1339992  89.3669978  -6.6939986  98.7639992  88.5649978  -7.0639986
 100.0749992  89.1989978  -6.6479986  99.2105984  89.2344638  -6.7384397
  95.7439992  83.0269978 -11.3019986  95.2959992  83.8729978 -11.3199986
  95.1829992  82.4479978 -11.8169986  95.6068546  83.0643993 -11.3741109
  96.4539992  85.1889978  -9.1759986  96.6679992  84.4189978  -8.6479986
  97.1919992  85.2789978  -9.7789986  96.5830200  85.0958587  -9.1852965
 106.6599992  93.3459978  -8.3089986 107.2789992  92.6699978  -8.5819986
 106.4509992  93.1279978  -7.3999986 106.7166056  93.2238869  -8.2236033
 104.2309992  87.7349978  -6.4159986 104.5349992  87.0489978  -7.0109986
 104.9529992  87.8539978  -5.7979986 104.3701240  87.6572314  -6.4139041
 112.8939992  79.3369978  -5.5559986 112.9439992  79.9469978  -4.8199986
 113.3199992  79.7979978  -6.2789986 112.9584108  79.4827709  -5.5529888
 107.3719992  82.1289978  -6.0889986 107.5149992  81.1829978  -6.0689986
 107.2659992  82.3359978  -7.0169986 107.3772403  82.0274797  -6.2117761
 100.5269992  80.2309978  -8.8159986 100.5699992  81.0909978  -9.2349986
 100.0689992  79.6789978  -9.4499986 100.4709871  80.2739245  -8.9589239
 108.2489992  80.3619978 -10.4149986 108.8959992  80.0329978  -9.7909986
 108.7589992  80.8789978 -11.0379986 108.4064351  80.3869067 -10.4138963
  97.1469992  82.6279978  -8.0539986  97.8009992  82.0779978  -7.6219986
  97.1709992  82.3539978  -8.9709986  97.2397199  82.5157167  -8.1188332
 102.3039992  84.1779978  -8.8389986 102.9199992  83.6509978  -8.3299986
 101.7169992  83.5379978  -9.2429986 102.3090154  84.0193954  -8.8239055
 113.2859992  80.8149978  -3.3199986 112.5969992  81.4729978  -3.4149986
 113.3009992  80.6169978  -2.3829986 113.1937756  80.8782603  -3.2064188
  99.3369992  79.1489978  -4.7419986  99.1179992  79.6789978  -5.5089986
  98.6689992  79.3749978  -4.0949986  99.2166975  79.2520967  -4.7594860
 106.7059992  88.6489978 -11.1979986 106.4109992  88.3259978 -12.0499986
 106.3819992  89.5489978 -11.1569986 106.6218460  88.7264464 -11.3090286
 101.9059992  86.8239978  -4.4549986 101.1659992  87.4229978  -4.3509986
 102.6199992  87.3779978  -4.7699986 101.9013500  86.9807829  -4.4833629
 110.0129992  79.6529978  -8.4349986 109.7979992  78.8869978  -7.9019986
 110.6689992  80.1249978  -7.9219986 110.0722673  79.6120728  -8.2928010
  98.9309992  81.0409978  -6.7899986  99.5449992  81.6739978  -6.4169986
  99.4429992  80.5689978  -7.4459986  99.0841962  81.0637249  -6.8277065
 100.3139992  88.7889978  -3.6679986 100.3079992  89.6679978  -4.0459986
  99.4599992  88.7049978  -3.2429986 100.1977925  88.8979535  -3.6623113
  96.4349992  88.4599978 -12.8859986  96.1629992  88.6889978 -13.7739986
  96.4799992  89.2969978 -12.4249986  96.4038097  88.6046163 -12.9453317
 110.0599992  90.0809978  -6.1729986 109.1179992  90.1399978  -6.0109986
 110.3359992  90.9869978  -6.3099986 109.9685865  90.2115288  -6.1693808
 110.3599992  78.3679978  -4.7559986 109.6239992  78.9779978  -4.7929986
 111.0439992  78.7829978  -5.2819986 110.3515367  78.5077551  -4.8321826
 103.3639992  76.4539978  -7.2899986 103.2459992  75.5059978  -7.3439986
 102.5089992  76.7869978  -7.0169986 103.2322805  76.3692202  -7.2604921
 108.3119992  91.8619978  -9.5479986 108.7369992  91.1549978 -10.0329986
 108.6289992  92.6639978  -9.9649986 108.4130266  91.8735190  -9.6707521
 109.4719992  89.7629978 -11.0389986 109.2139992  89.0729978 -11.6509986
 109.5429992  89.3199978 -10.1939986 109.4463050  89.6086814 -11.0084379
 111.1579992  88.3299978  -2.5619986 111.2969992  87.7379978  -3.3009986
 111.3249992  89.2029978  -2.9179986 111.1996193  88.3668896  -2.7113789
 105.6299992  85.2919978 -12.7889986 104.9189992  85.8269978 -13.1409986
 106.3209992  85.3469978 -13.4489986 105.6260751  85.3726777 -12.9264142
 105.6839992  83.7489978 -15.7509986 106.3849992  83.7719978 -15.0989986
 105.9859992  83.1209978 -16.4069986 105.8208202  83.6672212 -15.7504391
 112.9989992  84.6699978  -4.4959986 112.3469992  85.3639978  -4.4069986
 113.4649992  84.8799978  -5.3059986 112.9725937  84.7935019  -4.5932467
 109.0359992  85.5009978 -11.8379986 108.3039992  85.7299978 -11.2639986
 109.4829992  84.7879978 -11.3829986 108.9963963  85.4358729 -11.6980055
 108.9329992  83.6759978  -2.7699986 109.0129992  84.4389978  -2.1979986
 108.3319992  83.9549978  -3.4599986 108.8626547  83.8182457  -2.7849953
 100.6809992  86.1319978  -9.9549986 100.3509992  85.7609978 -10.7729986
 101.2699992  85.4609978  -9.6079986 100.7153970  85.9906063 -10.0200596
 102.0479992  89.5599978  -7.2739986 101.9529992  88.9809978  -8.0299986
 102.7769992  89.1889978  -6.7779986 102.1336011  89.4305561  -7.3103972
 101.0479992  84.8999978  -6.3219986 101.6129992  85.0219978  -7.0839986
 101.3669992  85.5379978  -5.6829986 101.1684166  85.0028791  -6.3399652
 107.3569992  90.4039978  -5.5879986 107.1169992  91.0659978  -4.9399986
 107.1589992  89.5689978  -5.1629986 107.2973826  90.3818115  -5.4418434
 101.9279992  89.2999978  -1.6039986 101.6169992  90.0819978  -1.1489986
 101.2779992  89.1469978  -2.2899986 101.7975538  89.3864087  -1.6344102
 107.9069992  84.6639978 -14.1519986 108.4859992  84.8139978 -13.4059986
 108.3209992  85.1339978 -14.8759986 108.0423358  84.7480954 -14.1476047
  98.8479992  85.4979978  -2.3759986  98.9179992  86.1489978  -1.6769986
  97.9569992  85.6009978  -2.7109986  98.7371690  85.6009249  -2.3256957
 105.6329992  91.3999978 -10.7169986 106.1069992  91.6959978  -9.9399986
 105.0699992  92.1389978 -10.9499986 105.6217890  91.5403036 -10.6421899
 100.1669992  91.3709978  -0.8409986 100.1749992  91.2349978  -1.7879986
  99.2509992  91.2539978  -0.5889986 100.0442528  91.3365463  -0.9366757
 111.6059992  76.4139978 -14.3389986 110.7059992  76.5529978 -14.0439986
 111.8579992  77.2449978 -14.7409986 111.5168683  76.5454055 -14.3529768
  99.6719992  85.2009978 -12.3659986  99.3799992  85.9689978 -12.8569986
  98.9969992  84.5419978 -12.5289986  99.5408497  85.2169745 -12.4551740
 112.7949992  90.7799978 -15.9629986 112.8679992  91.7189978 -15.7929986
 113.6999992  90.4749978 -16.0189986 112.9274170  90.8673282 -15.9472937
  95.7649992  87.5639978  -3.5509986  95.2629992  87.5359978  -4.3659986
  95.7699992  86.6589978  -3.2409986  95.6969832  87.4377486  -3.6205879
  95.5149992  90.3449978  -6.6669986  96.4609992  90.1999978  -6.6859986
  95.4019992  91.1289978  -6.1299986  95.6293578  90.4311697  -6.5969683
 113.7129992  91.0109978  -0.9839986 113.6629992  90.0549978  -1.0219986
 112.8859992  91.2779978  -0.5829986 113.5943831  90.9164680  -0.9349879
 104.6909992  90.5849978  -2.1079986 104.7789992  91.4109978  -1.6329986
 103.8279992  90.2549978  -1.8589986 104.5863357  90.6535468  -2.0092347
 105.1059992  94.3569978 -12.3019986 105.0299992  94.2359978 -13.2489986
 105.1379992  95.3059978 -12.1839986 105.0999380  94.4687677 -12.4154819
  98.7589992  93.1459978 -10.5209986  98.9109992  92.7979978  -9.6429986
  97.9079992  92.7889978 -10.7769986  98.6648344  93.0500879 -10.4353132
 108.2069992  93.5109978 -15.2999986 108.5819992  92.7669978 -15.7709986
 108.2119992  93.2409978 -14.3819986 108.2590098  93.3726392 -15.2403371
 107.8759992  93.4369978 -12.5509986 106.9409992  93.5369978 -12.3719986
 108.1559992  92.7269978 -11.9719986 107.7859471  93.3547933 -12.4483305
 110.8649992  82.5039978  -0.5039986 110.4569992  82.9839978  -1.2249986
 110.9049992  81.5979978  -0.8119986 110.8146221  82.4472449  -0.6441733
  98.0139992  88.8879978  -2.5079986  98.2299992  88.5259978  -1.6479986
  97.1579992  88.5129978  -2.7169986  97.9278810  88.7878837  -2.4187320
 100.6319992  77.3579978  -6.5119986  99.7709992  77.2709978  -6.9199986
 100.6099992  78.2139978  -6.0839986 100.5110491  77.4618003  -6.5100418
 105.2949992  77.0799978  -3.1369986 105.7149992  76.6649978  -2.3839986
 104.3619992  76.9009978  -3.0199986 105.2263736  76.9989910  -3.0181032
 108.6219992  80.8349978  -2.2839986 108.1079992  80.7099978  -1.4859986
 108.4659992  81.7479978  -2.5279986 108.5306967  80.9412123  -2.2079063
 109.3839992  85.6959978 -16.5229986 109.4259992  85.4739978 -17.4529986
 110.2329992  86.0949978 -16.3329986 109.5045253  85.7195498 -16.6246178
 104.9569992  79.5719978 -15.8519986 104.7029992  79.5909978 -14.9299986
 104.6999992  78.7009978 -16.1539986 104.8874508  79.4568280 -15.7665197
 100.7229992  82.3229978  -5.4169986 100.0819992  82.2829978  -4.7079986
 100.7609992  83.2499978  -5.6549986 100.6403010  82.4427668  -5.3520054
 100.7199992  82.5439978 -10.5049986  99.8279992  82.2039978 -10.5639986
 101.1709992  82.1669978 -11.2609986 100.6587642  82.4464910 -10.6152274
 106.2559992  82.9599978 -11.6879986 105.8469992  83.7749978 -11.9799986
 106.9759992  82.8199978 -12.3019986 106.2974439  83.0525372 -11.8109885
 105.3579992  83.1359978  -0.1999986 104.7949992  82.4309978   0.1210014
 106.1839992  83.0149978   0.2680014 105.3926674  83.0232165  -0.0928249
 107.2609992  82.4059978  -8.8739986 107.0649992  83.0119978  -9.5889986
 107.4419992  81.5729978  -9.3079986 107.2586584  82.3762513  -9.0305788
  98.4729992  82.6439978  -3.5499986  98.4349992  83.0439978  -2.6809986
  97.9829992  81.8269978  -3.4599986  98.4015330  82.5882674  -3.4188711
 101.8389992  80.0179978 -16.7509986 101.4079992  79.5729978 -16.0219986
 101.1209992  80.3889978 -17.2639986 101.6829176  80.0072051 -16.7205070
  95.0819992  79.7599978  -9.6989986  95.7119992  79.7309978  -8.9799986
  95.5309992  79.3349978 -10.4299986  95.2290835  79.6985660  -9.6992341
  96.3559992  80.5059978 -14.2749986  96.8299992  81.0969978 -14.8599986
  95.6379992  81.0359978 -13.9279986  96.3238640  80.6585511 -14.3082031
 106.5249992  84.0439978  -4.2029986 106.8479992  83.4129978  -4.8459986
 106.0839992  83.5099978  -3.5419986 106.5096379  83.8853468  -4.2017418
 103.3019992  79.9719978  -9.4189986 102.3909992  80.0289978  -9.1299986
 103.8069992  79.9119978  -8.6079986 103.2456873  79.9716826  -9.2698793
  98.1299992  81.6009978 -10.5919986  97.2409992  81.6999978 -10.9319986
  98.4269992  80.7589978 -10.9379986  98.0484177  81.5007687 -10.6853060
 101.7829992  81.6009978 -12.9349986 102.7149992  81.7299978 -12.7569986
 101.5679992  82.2699978 -13.5849986 101.8814472  81.7090806 -12.9985109
 107.7069992  79.2069978  -6.1539986 107.0299992  79.3379978  -5.4909986
 107.2219992  79.0519978  -6.9649986 107.5487405  79.2039947  -6.1727830
 100.4569992  82.7949978 -15.3689986  99.9149992  82.4159978 -16.0599986
 101.2909992  82.9899978 -15.7969986 100.4954390  82.7694079 -15.5215608
 110.9949992  94.8779978   0.1220014 111.1939992  95.3019978  -0.7119986
 111.6499992  95.2219978   0.7290014 111.1108522  94.9826301   0.0897852
  98.5929992  87.3519978  -0.2699986  99.3249992  87.6069978   0.2920014
  97.8119992  87.5569978   0.2460014  98.5876526  87.4145450  -0.1234824
 104.6219992  82.7589978  -7.5319986 105.1859992  82.2129978  -8.0789986
 104.4739992  82.2379978  -6.7429986 104.6793037  82.6136787  -7.5002771
  99.6239992  78.8959978 -11.1129986  99.3069992  77.9929978 -11.1489986
 100.4049992  78.8979978 -11.6659986  99.6862431  78.7727797 -11.1926898
 103.2479992  81.1479978  -5.1179986 102.4129992  81.6019978  -5.0069986
 103.7719992  81.4239978  -4.3659986 103.2046072  81.2473948  -5.0011864
 103.7929992  87.3609978 -13.4329986 103.0479992  86.8529978 -13.7549986
 103.6579992  87.4099978 -12.4869986 103.6728963  87.2981731 -13.3491174
 110.9429992  86.4939978  -4.6459986 111.5839992  86.9499978  -5.1899986
 110.1119992  86.6069978  -5.1089986 110.9185287  86.5716921  -4.7830113
 107.6899992  80.1749978 -15.2339986 106.7519992  80.2859978 -15.3849986
 107.9879992  81.0309978 -14.9269986 107.6016318  80.3060158 -15.2131855
 105.3119992  87.5449978  -2.1959986 104.9659992  87.1629978  -1.3889986
 105.1119992  88.4779978  -2.1249986 105.2375987  87.6189002  -2.0759539
 108.4089992  82.0419978 -13.5729986 109.3009992  81.9039978 -13.2539986
 108.4649992  82.8329978 -14.1099986 108.5387325  82.1299918 -13.6018783
  98.9169992  86.6559978  -7.6629986  99.6619992  86.6529978  -8.2649986
  98.9949992  85.8319978  -7.1819986  99.0293365  86.5442384  -7.6802570
 105.9179992  88.8189978 -14.4079986 105.6229992  89.6459978 -14.0259986
 105.2149992  88.1999978 -14.2109986 105.7826379  88.8484171 -14.3291346
  95.9249992  85.1159978  -2.3479986  96.1479992  84.6979978  -1.5169986
  95.3229992  84.5039978  -2.7709986  95.8741513  84.9759606  -2.2913260
 102.9419992  84.6329978  -0.1349986 102.6459992  84.4679978  -1.0309986
 103.8729992  84.4129978  -0.1459986 103.0274401  84.5806879  -0.2589794
 107.5619992  90.0069978  -2.2459986 106.6619992  90.1899978  -2.5129986
 107.5959992  90.2659978  -1.3249986 107.4433748  90.0670554  -2.1580836
 113.2939992  82.2509978 -13.8779986 112.7389992  81.8549978 -14.5509986
 113.3939992  83.1619978 -14.1559986 113.2316816  82.3199505 -14.0074967
 113.2569992  88.0519978  -1.0409986 112.4059992  88.2899978  -1.4089986
 113.8469992  88.0349978  -1.7939986 113.2203812  88.0822524  -1.1931547
 111.5889992  91.0369978 -13.4129986 111.2159992  90.2119978 -13.1039986
 111.8659992  90.8539978 -14.3109986 111.5753463  90.8992569 -13.4920475
 108.7489992  85.8449978  -6.3919986 107.8209992  85.6139978  -6.4189986
 109.1999992  85.0679978  -6.7219986 108.6828165  85.7082774  -6.4403210
 101.2919992  90.1739978 -10.2589986 101.8199992  90.9469978 -10.4589986
 100.4119992  90.3979978 -10.5609986 101.2453435  90.3102700 -10.3272690
  97.0469992  85.0359978 -15.6719986  97.6629992  85.6629978 -15.2919986
  96.1849992  85.3519978 -15.3999986  97.0147678  85.1644412 -15.5832791
 102.7199992  87.8369978 -10.6829986 102.4789992  88.7619978 -10.6409986
 101.9789992  87.3779978 -10.2859986 102.5869206  87.9015915 -10.6236231
 103.2339992  91.9859978  -4.3679986 103.5969992  92.8399978  -4.6009986
 103.7659992  91.6939978  -3.6269986 103.3555141  92.0633895  -4.2997903
 101.4029992  92.8579978 -11.1369986 100.4529992  92.9639978 -11.0859986
 101.7549992  93.6789978 -10.7929986 101.3205472  92.9834923 -11.0835148
 106.7779992  88.0849978  -4.6669986 106.3529992  87.8569978  -3.8409986
 107.3589992  87.3459978  -4.8489986 106.7983395  87.9539545  -4.5785586
 108.9809992  89.0139978 -15.5929986 109.3349992  88.6339978 -14.7889986
 108.0329992  88.9199978 -15.5059986 108.9012298  88.9492452 -15.4711313
 109.4369992  92.6369978  -2.1979986 108.8349992  92.0809978  -2.6929986
 109.7179992  93.3039978  -2.8239986 109.3925757  92.6510744  -2.3504325
 113.4849992  93.4929978 -15.3919986 114.2289992  94.0789978 -15.5319986
 112.7909992  94.0619978 -15.0589986 113.4929809  93.6500818 -15.3661410
  97.5589992  79.8699978  -2.7899986  96.6669992  80.2079978  -2.8579986
  97.4609992  79.0139978  -2.3719986  97.4234475  79.8006543  -2.7428296
 109.8469992  87.6859978 -13.3659986 109.5699992  86.9579978 -12.8099986
 110.7749992  87.8049978 -13.1609986 109.9344499  87.6024213 -13.2621956
  97.2109992  91.6739978  -4.3549986  97.4279992  90.7419978  -4.3859986
  97.4569992  91.9489978  -3.4719986  97.2739809  91.5835686  -4.2398309
 102.0089992  89.6959978 -14.6899986 102.1559992  89.1759978 -13.8999986
 102.0059992  90.6029978 -14.3829986 102.0287102  89.7473953 -14.5404075
  98.4619992  86.9479978 -14.1789986  97.7759992  87.3009978 -13.6119986
  98.9849992  87.7109978 -14.4259986  98.4388402  87.0993901 -14.1348199
 106.2939992  79.6109978  -3.8999986 106.9929992  79.6849978  -3.2499986
 105.9129992  78.7459978  -3.7459986 106.3382097  79.5042389  -3.7902003
 107.0779992  79.2629978 -12.8029986 107.2979992  79.7339978 -13.6069986
 107.6369992  79.6569978 -12.1329986 107.1836732  79.3807287 -12.8224967
 104.7469992  91.3929978 -13.9399986 103.9299992  91.8899978 -13.8879986
 105.2759992  91.8689978 -14.5809986 104.7068125  91.5251989 -14.0194694
 104.2779992  80.9909978 -11.9679986 105.0899992  81.4949978 -11.9219986
 104.0339992  80.8459978 -11.0539986 104.3561467  81.0403749 -11.8381425
 104.8139992  81.9769978  -2.7839986 104.9329992  82.5509978  -2.0269986
 105.4689992  81.2889978  -2.6689986 104.9188684  81.9625194  -2.6648326
 105.1619992  78.0719978 -11.0299986 104.8149992  78.6889978 -10.3859986
 105.8209992  78.5729978 -11.5119986 105.2035090  78.2241575 -11.0069319
 102.0849992  92.4369978 -13.9589986 102.2459992  93.2369978 -14.4589986
 101.8879992  92.7439978 -13.0739986 102.0803906  92.5878678 -13.9077667
 100.8199992  79.1349978 -14.3429986 100.7359992  80.0229978 -13.9959986
 101.7099992  78.8699978 -14.1109986 100.9288163  79.2207179 -14.2641404
 111.0179992  79.8839978  -1.9489986 110.1019992  80.1459978  -2.0359986
 111.3539992  79.8809978  -2.8449986 110.9378499  79.9195163  -2.0821234
 109.6209992  83.6339978  -7.8529986 108.8229992  83.2189978  -8.1809986
 110.0659992  82.9439978  -7.3619986 109.5719684  83.4838628  -7.8314773
  99.0779992  89.5619978 -15.2829986  99.6699992  90.2619978 -15.0059986
  99.5369992  89.1289978 -16.0019986  99.2211652  89.5992675 -15.3423467
  97.3939992  82.2269978 -16.1669986  97.3489992  83.1659978 -15.9879986
  96.5059992  81.9909978 -16.4359986  97.2678166  82.3236687 -16.1788476
 110.7069992  92.8899978  -6.2309986 110.5509992  93.5689978  -6.8879986
 111.6399992  92.9619978  -6.0279986 110.8117387  92.9926390  -6.2934658
  98.2019992  77.0079978  -7.4929986  97.9729992  77.0669978  -8.4209986
  97.7599992  76.2169978  -7.1869986  98.1108801  76.9090540  -7.5785271
  97.1329992  90.9489978 -11.3329986  96.2999992  91.4209978 -11.3059986
  97.6779992  91.4589978 -11.9319986  97.0927857  91.0824791 -11.4102858
  96.4209992  93.5609978  -0.0029986  96.9609992  93.3449978   0.7570014
  95.9399992  92.7559978  -0.1929986  96.4299219  93.4225156   0.0754282
 101.0179992  92.4809978   1.6170014 101.7859992  92.0219978   1.9580014
 100.9969992  92.2549978   0.6870014 101.1202135  92.3876668   1.5379491
 105.1099992  91.9889978 -17.0069986 104.4659992  91.3579978 -16.6859986
 105.8719992  91.4579978 -17.2389986 105.1248058  91.8307902 -16.9943962
 107.5949992  90.8609978   0.3460014 107.2439992  90.0039978   0.5900014
 108.3209992  91.0029978   0.9530014 107.6451895  90.7631351   0.4613770
 109.7149992  91.8059978 -16.7739986 109.9979992  91.0109978 -16.3209986
 110.4539992  92.0389978 -17.3349986 109.8537096  91.7287049 -16.7878896
  96.3279992  87.3719978   0.9510014  96.4719992  86.4699978   0.6650014
  95.5559992  87.6579978   0.4640014  96.2432733  87.2871798   0.8459532
 100.6689992  87.7149978 -16.9159986 100.7339992  86.9209978 -16.3859986
 101.3219992  87.5969978 -17.6059986 100.7661605  87.5903430 -16.9367003
 102.9829992  87.3409978   0.3840014 102.6549992  87.6119978  -0.4729986
 103.1349992  86.3999978   0.2960014 102.9586412  87.2509046   0.2547822
 108.7179992  87.2569978  -2.2329986 109.4629992  87.8459978  -2.3519986
 107.9609992  87.8389978  -2.1689986 108.7175470  87.4162128  -2.2406201
  97.1609992  84.5719978   0.3710014  97.5689992  83.7149978   0.2500014
  96.8999992  84.5859978   1.2920014  97.1816016  84.4565119   0.4789192
 101.8189992  85.6879978 -14.6099986 101.3589992  85.2039978 -13.9249986
 102.0739992  85.0189978 -15.2459986 101.7904856  85.5313669 -14.6021603
 101.1079992  83.5809978  -2.2539986 100.4889992  84.2549978  -1.9739986
 101.4519992  83.9019978  -3.0879986 101.0697123  83.7166887  -2.3283612
 102.8899992  83.9309978 -16.3479986 102.7089992  83.7759978 -17.2749986
 103.8399992  84.0389978 -16.3029986 102.9936566  83.9243669 -16.4689071
 106.1269992  86.0519978   1.0230014 107.0809992  86.1359978   0.9960014
 105.9669992  85.3399978   1.6430014 106.2357182  85.9672842   1.1030733
 112.2799992  86.2849978 -16.9019986 112.0059992  85.8609978 -17.7149986
 112.3189992  87.2169978 -17.1189986 112.2477716  86.3528827 -17.0425714
 101.4469992  80.9359978  -1.1719986 101.5969992  80.2069978  -1.7739986
 101.4489992  81.7129978  -1.7309986 101.4677967  80.9412708  -1.3299459
 101.8599992  79.3049978  -3.6789986 102.3949992  79.7569978  -4.3309986
 101.0069992  79.1969978  -4.1019986 101.8180374  79.3522665  -3.8253290
 103.4409992  84.7449978  -3.4399986 104.1919992  84.5889978  -4.0129986
 103.1019992  85.5969978  -3.7149986 103.4979587  84.8388138  -3.5555922
 107.8569992  82.5599978   1.5890014 108.0489992  81.6289978   1.4770014
 108.7149992  82.9849978   1.5780014 107.9992182  82.4900070   1.5721862
 109.1739992  85.3489978  -0.3339986 108.8919992  86.0579978  -0.9119986
 110.1159992  85.2759978  -0.4849986 109.2627921  85.4362193  -0.4335775
  99.9259992  82.1339978   0.7390014  99.1579992  81.6009978   0.5290014
 100.6039992  81.8239978   0.1400014  99.9127235  82.0191754   0.6292413
 102.6649992  76.7619978  -3.2479986 102.5669992  77.7079978  -3.3529986
 101.9229992  76.3889978  -3.7239986 102.5512534  76.8411773  -3.3267400
 103.9289992  81.0829978   0.3160014 103.6939992  80.8639978   1.2170014
 103.1459992  80.8759978  -0.1939986 103.7909095  81.0249892   0.3705353
 106.6449992  80.2109978  -0.6089986 105.6969992  80.2429978  -0.4769986
 106.9569992  79.5849978   0.0450014 106.5575293  80.1307923  -0.5025852
 108.2789992  78.8449978   1.3960014 108.1819992  77.8929978   1.3910014
 107.9569992  79.1129978   2.2570014 108.2222468  78.7510884   1.5116210
  98.1059992  80.0539978   0.4440014  98.3179992  79.3479978  -0.1659986
  97.9949992  79.6169978   1.2880014  98.1200269  79.8981921   0.4745873
 102.8869992  76.0559978  -0.5769986 103.5989992  75.4159978  -0.5909986
 102.7859992  76.3219978  -1.4899986 102.9707387  76.0044330  -0.7024437
 103.2409992  77.7379978   1.4770014 103.1089992  77.2629978   0.6570014
 102.6409992  78.4829978   1.4220014 103.1419070  77.7735789   1.3573251
 102.7869992  94.6209978 -15.3469986 103.7199992  94.7789978 -15.2029986
 102.5229992  95.2969978 -15.9719986 102.8789911  94.7339373 -15.4117278
  96.3549992  89.2579978 -15.8639986  97.2689992  89.3369978 -15.5909986
  96.3629992  88.5709978 -16.5299986  96.4810655  89.1759205 -15.9167083
  95.0039992  94.6509978 -10.7869986  94.3569992  94.1889978 -11.3189986
  95.3589992  93.9789978 -10.2039986  94.9633741  94.4969774 -10.7810825
  95.8739992  92.7309978  -8.9819986  95.5399992  91.8509978  -8.8099986
  96.0969992  93.0769978  -8.1169986  95.8583721  92.6571938  -8.8415832
 113.4229992  93.5409978  -6.0009986 113.4009992  93.7259978  -5.0619986
 114.1129992  94.1089978  -6.3419986 113.5133439  93.6431887  -5.9185209
 112.9859992  93.1079978  -3.0799986 112.4989992  92.3729978  -3.4509986
 113.5349992  92.7139978  -2.4019986 112.9935247  92.9541057  -3.0391539
 111.4369992  88.8979978   1.5590014 110.5709992  88.7929978   1.9530014
 111.8129992  89.6559978   2.0050014 111.3693401  88.9861708   1.6732620
 112.7379992  87.1539978 -12.9269986 113.5879992  87.5749978 -12.7999986
 112.7429992  86.4139978 -12.3199986 112.8551143  87.1116094 -12.8275250
 113.1319992  85.2079978 -11.1039986 112.4059992  84.7279978 -10.7059986
 113.7139992  85.4129978 -10.3709986 113.1112730  85.1700184 -10.9505851
 112.8909992  87.9929978  -6.1559986 113.7249992  87.6149978  -6.4369986
 113.0029992  88.9359978  -6.2749986 113.0201917  88.0687943  -6.2105139
 111.3779992  90.8709978  -3.8489986 110.7299992  91.1959978  -3.2239986
 110.8599992  90.4299978  -4.5229986 111.2194196  90.8558651  -3.8545848
 113.4009992  85.1089978 -14.7129986 112.8789992  85.4649978 -15.4309986
 113.3679992  85.7839978 -14.0339986 113.3250129  85.2489598 -14.7196645
 111.7499992  82.3479978 -16.1619986 111.8459992  83.0149978 -16.8419986
 111.6099992  81.5329978 -16.6429986 111.7442040  82.3290671 -16.3201622
 110.9189992  83.7289978 -10.5409986 110.7689992  82.7839978 -10.5609986
 110.5649992  84.0099978  -9.6969986 110.8506351  83.6376644 -10.4296780
  95.9539992  85.8069978  -6.5299986  96.1389992  85.7249978  -7.4659986
  96.8039992  85.6829978  -6.1069986  96.0940928  85.7790463  -6.6007107
 111.7749992  85.6989978  -0.9019986 112.3579992  84.9639978  -0.7099986
 112.3389992  86.4709978  -0.8549986 111.9309781  85.7028145  -0.8693836
 113.2719992  83.6019978  -0.2169986 112.4089992  83.2229978  -0.3829986
 113.8759992  82.8629978  -0.2919986 113.2356085  83.4503223  -0.2498306
 110.9969992  79.7559978 -17.0439986 111.6079992  79.3849978 -16.4069986
 110.1599992  79.3349978 -16.8479986 110.9674947  79.6482756 -16.9302748
 110.6299992  81.3109978 -12.0779986 110.9089992  80.4039978 -11.9539986
 111.3889992  81.7449978 -12.4669986 110.7708619  81.2454502 -12.1136205
 111.2409992  81.8929978  -6.6419986 112.1739992  82.1049978  -6.6769986
 111.0059992  81.9939978  -5.7199986 111.3369517  81.9356833  -6.5220870
 111.2709992  82.6299978  -3.8659986 110.4279992  82.8979978  -3.4999986
 111.7129992  83.4519978  -4.0769986 111.2154138  82.7778273  -3.8444482
  95.5519992  81.0769978  -0.3899986  96.4709992  80.9549978  -0.1529986
  95.1019992  80.3269978   0.0000014  95.6170087  80.9589608  -0.3048590
 113.5539992  76.6099978   1.4870014 113.9029992  75.9559978   0.8820014
 113.7009992  77.4469978   1.0470014 113.6216824  76.6336024   1.3446304
 111.2429992  78.5739978 -12.0299986 111.4249992  78.1249978 -11.2049986
 110.6429992  77.9899978 -12.4939986 111.1868187  78.4335552 -11.9797261
  96.7729992  79.3899978  -7.4979986  97.2179992  78.5979978  -7.1959986
  97.2389992  80.1059978  -7.0679986  96.8969718  79.3784534  -7.3984735
  95.0769992  82.3889978  -6.4289986  95.5689992  82.1679978  -7.2199986
  95.4389992  83.2289978  -6.1479986  95.1932923  82.4723468  -6.4992593
 113.0729992  78.7189978  -0.1639986 112.1559992  78.9899978  -0.1989986
 113.1959992  78.1839978  -0.9479986 112.9639672  78.6837885  -0.2748138
 113.1099992  78.6419978 -15.5019986 113.5219992  77.9209978 -15.9769986
 113.7909992  79.3109978 -15.4439986 113.2585536  78.6337766 -15.5591976
  95.3909992  78.6469978 -12.3749986  94.4659992  78.8549978 -12.5039986
  95.8449992  79.1309978 -13.0649986  95.3256298  78.7409299 -12.4859549
 110.1609992  93.6309978 -10.4289986 110.8139992  93.2829978 -11.0369986
 110.6719992  94.1189978  -9.7829986 110.3192777  93.6493815 -10.4247953
  95.3539992  77.3849978  -4.0309986  94.6889992  77.1389978  -3.3879986
  94.9109992  78.0069978  -4.6079986  95.2031168  77.4354214  -4.0210152
  97.5459992  90.5599978   0.1140014  96.7249992  90.7349978  -0.3469986
  97.2939992  90.4869978   1.0340014  97.3995594  90.5740717   0.1753611
 100.4999992  91.5339978  -3.6279986 100.0759992  92.3439978  -3.9099986
 101.4049992  91.6199978  -3.9299986 100.5642138  91.6564160  -3.7073585
 104.8119992  92.9329978  -0.6679986 104.9959992  92.5999978   0.2100014
 105.6579992  93.2429978  -0.9899986 104.9516484  92.9292979  -0.5912383
 107.1569992  94.2189978  -1.4239986 107.8339992  93.5859978  -1.6639986
 107.4779992  94.6199978  -0.6169986 107.2931323  94.1865691  -1.3476842
 112.0739992  76.8089978  -2.3449986 111.2609992  77.1339978  -2.7319986
 112.3069992  76.0479978  -2.8779986 111.9941347  76.7506880  -2.4700159
  97.9019992  94.7909978  -3.5799986  97.1819992  95.2309978  -4.0309986
  97.5369992  94.5399978  -2.7319986  97.7539643  94.8173369  -3.5270871
 100.3689992  94.3909978  -4.5499986  99.5049992  94.4629978  -4.1459986
 100.3139992  94.9379978  -5.3339986 100.2431942  94.4747849  -4.6006000
 105.0799992  94.2789978  -5.3749986 104.6229992  94.8079978  -6.0289986
 105.2429992  94.8819978  -4.6499986 105.0394960  94.4329280  -5.3664726
 107.4079992  93.1569978  -4.4299986 106.5029992  93.3219978  -4.6959986
 107.8359992  94.0099978  -4.4959986 107.3421537  93.2949134  -4.4752905
 110.0119992  94.7269978  -4.1349986 109.8299992  95.6429978  -4.3459986
 110.1889992  94.3159978  -4.9819986 110.0110030  94.7968273  -4.2782834
  97.3169992  93.4139978  -6.6699986  97.2989992  92.9879978  -5.8129986
  98.1219992  93.0949978  -7.0789986  97.4232875  93.3126435  -6.6080485
  99.4579992  92.1239978  -8.0149986  99.2389992  91.2069978  -7.8449986
 100.2819992  92.2639978  -7.5489986  99.5394702  92.0175511  -7.9287473
 101.9949992  92.5939978  -7.1659986 102.2079992  91.7059978  -7.4529986
 102.0599992  92.5589978  -6.2119986 102.0329149  92.4678326  -7.0762631
 105.5039992  78.2579978  -8.0219986 104.8299992  77.6279978  -7.7659986
 106.0679992  77.7739978  -8.6249986 105.4880384  78.1063708  -8.0684980
 110.6469992  76.3649978  -7.9089986 111.2499992  76.9129978  -8.4109986
 109.7769992  76.6839978  -8.1499986 110.6119157  76.4830373  -8.0102090
 112.3739992  77.5039978  -9.5759986 112.9849992  76.9899978 -10.1029986
 112.7559992  78.3809978  -9.5529986 112.5093305  77.5522050  -9.6450582
  97.8309992  76.8919978 -10.1999986  97.0539992  76.6569978 -10.7069986
  98.3609992  76.0949978 -10.1909986  97.7963451  76.7521268 -10.2681373
  96.6669992  76.6899978 -14.3959986  97.1059992  77.3009978 -14.9879986
  96.0329992  77.2279978 -13.9219986  96.6413859  76.8464064 -14.4129695
 102.4099992  76.8179978 -10.3869986 103.2839992  77.2069978 -10.4159986
 102.2739992  76.6029978  -9.4639986 102.5111953  76.8421643 -10.2662383
 107.9669992  76.8479978  -8.7369986 108.0429992  76.9439978  -9.6869986
 107.6919992  75.9409978  -8.6089986 107.9401871  76.7384146  -8.8496056
 109.3199992  76.8739978 -13.0449986 108.6169992  77.4889978 -13.2549986
 108.8749992  76.0369978 -12.9139986 109.1636550  76.8449668 -13.0560163
  96.5679992  92.6379978 -13.4989986  95.8829992  92.5999978 -14.1659986
  96.5719992  93.5509978 -13.2109986  96.4747621  92.7561924 -13.5513874
  98.5279992  78.6059978 -15.9539986  99.0189992  77.9759978 -16.4809986
  99.1509992  78.9019978 -15.2909986  98.6795304  78.5597376 -15.9365060
 103.5539992  78.8989978 -13.4969986 103.7319992  78.2519978 -12.8139986
 103.4999992  79.7329978 -13.0299986 103.5710678  78.9231604 -13.3403699
 105.4319992  93.8469978 -15.1009986 106.2979992  94.2139978 -15.2789986
 105.1859992  93.4079978 -15.9149986 105.5172097  93.8378525 -15.2353981
 112.1409992  93.4099978 -12.4219986 111.9469992  92.6619978 -12.9869986
 112.1019992  94.1679978 -13.0049986 112.1091645  93.4100786 -12.5781852
  97.7879992  77.4059978  -0.6819986  97.4219992  76.6399978  -0.2399986
  98.7009992  77.4349978  -0.3959986  97.8613172  77.3050324  -0.5828110
  99.7609992  76.7559978   0.8530014 100.6599992  76.4819978   0.6690014
  99.3749992  76.0139978   1.3180014  99.8317307  76.6182196   0.8907098
  98.3859992  93.5579978 -16.4739986  98.1179992  93.8439978 -15.5999986
  99.1569992  93.0119978 -16.3209986  98.4535926  93.5232779 -16.3338795
 108.1829992  76.0889978   1.0360014 108.2589992  75.6629978   1.8890014
 109.0759992  76.1019978   0.6930014 108.3142303  76.0323493   1.1065497
 111.3589992  92.1619978  -0.2719986 110.5769992  91.9749978  -0.7919986
 111.2869992  93.0909978  -0.0549986 111.2421924  92.2620637  -0.3138398
 125.7649992  86.0479978 -10.2409986 125.8539992  86.9919978 -10.3729986
 125.1269992  85.7729978 -10.8989986 125.6909062  86.1399812 -10.3480359
 124.6979992  85.3029978  -6.8219986 124.6599992  84.6569978  -6.1169986
 124.3759992  84.8359978  -7.5929986 124.6492679  85.1514276  -6.8297079
 117.0659992  84.9169978  -5.2289986 117.1079992  84.2919978  -4.5059986
 117.7689992  85.5409978  -5.0469986 117.1667345  84.9157873  -5.1054727
 128.4039992  88.2419978  -8.5209986 127.9629992  87.5219978  -8.0699986
 128.3909992  88.9629978  -7.8909986 128.3419215  88.2409291  -8.3741895
 117.9899992  89.3669978  -6.6939986 117.6199992  88.5649978  -7.0639986
 118.9309992  89.1989978  -6.6479986 118.0665984  89.2344638  -6.7384397
 114.5999992  83.0269978 -11.3019986 114.1519992  83.8729978 -11.3199986
 114.0389992  82.4479978 -11.8169986 114.4628546  83.0643993 -11.3741109
 115.3099992  85.1889978  -9.1759986 115.5239992  84.4189978  -8.6479986
 116.0479992  85.2789978  -9.7789986 115.4390200  85.0958587  -9.1852965
 125.5159992  93.3459978  -8.3089986 126.1349992  92.6699978  -8.5819986
 125.3069992  93.1279978  -7.3999986 125.5726056  93.2238869  -8.2236033
 123.0869992  87.7349978  -6.4159986 123.3909992  87.0489978  -7.0109986
 123.8089992  87.8539978  -5.7979986 123.2261240  87.6572314  -6.4139041
 131.7499992  79.3369978  -5.5559986 131.7999992  79.9469978  -4.8199986
 132.1759992  79.7979978  -6.2789986 131.8144108  79.4827709  -5.5529888
 126.2279992  82.1289978  -6.0889986 126.3709992  81.1829978  -6.0689986
 126.1219992  82.3359978  -7.0169986 126.2332403  82.0274797  -6.2117761
 119.3829992  80.2309978  -8.8159986 119.4259992  81.0909978  -9.2349986
 118.9249992  79.6789978  -9.4499986 119.3269871  80.2739245  -8.9589239
 127.1049992  80.3619978 -10.4149986 127.7519992  80.0329978  -9.7909986
 127.6149992  80.8789978 -11.0379986 127.2624351  80.3869067 -10.4138963
 116.0029992  82.6279978  -8.0539986 116.6569992  82.0779978  -7.6219986
 116.0269992  82.3539978  -8.9709986 116.0957199  82.5157167  -8.1188332
 121.1599992  84.1779978  -8.8389986 121.7759992  83.6509978  -8.3299986
 120.5729992  83.5379978  -9.2429986 121.1650154  84.0193954  -8.8239055
 132.1419992  80.8149978  -3.3199986 131.4529992  81.4729978  -3.4149986
 132.1569992  80.6169978  -2.3829986 132.0497756  80.8782603  -3.2064188
 118.1929992  79.1489978  -4.7419986 117.9739992  79.6789978  -5.5089986
 117.5249992  79.3749978  -4.0949986 118.0726975  79.2520967  -4.7594860
 125.5619992  88.6489978 -11.1979986 125.2669992  88.3259978 -12.0499986
 125.2379992  89.5489978 -11.1569986 125.4778460  88.7264464 -11.3090286
 120.7619992  86.8239978  -4.4549986 120.0219992  87.4229978  -4.3509986
 121.4759992  87.3779978  -4.7699986 120.7573500  86.9807829  -4.4833629
 128.8689992  79.6529978  -8.4349986 128.6539992  78.8869978  -7.9019986
 129.5249992  80.1249978  -7.9219986 128.9282673  79.6120728  -8.2928010
 117.7869992  81.0409978  -6.7899986 118.4009992  81.6739978  -6.4169986
 118.2989992  80.5689978  -7.4459986 117.9401962  81.0637249  -6.8277065
 119.1699992  88.7889978  -3.6679986 119.1639992  89.6679978  -4.0459986
 118.3159992  88.7049978  -3.2429986 119.0537925  88.8979535  -3.6623113
 115.2909992  88.4599978 -12.8859986 115.0189992  88.6889978 -13.7739986
 115.3359992  89.2969978 -12.4249986 115.2598097  88.6046163 -12.9453317
 128.9159992  90.0809978  -6.1729986 127.9739992  90.1399978  -6.0109986
 129.1919992  90.9869978  -6.3099986 128.8245865  90.2115288  -6.1693808
 129.2159992  78.3679978  -4.7559986 128.4799992  78.9779978  -4.7929986
 129.8999992  78.7829978  -5.2819986 129.2075367  78.5077551  -4.8321826
 122.2199992  76.4539978  -7.2899986 122.1019992  75.5059978  -7.3439986
 121.3649992  76.7869978  -7.0169986 122.0882805  76.3692202  -7.2604921
 127.1679992  91.8619978  -9.5479986 127.5929992  91.1549978 -10.0329986
 127.4849992  92.6639978  -9.9649986 127.2690266  91.8735190  -9.6707521
 128.3279992  89.7629978 -11.0389986 128.0699992  89.0729978 -11.6509986
 128.3989992  89.3199978 -10.1939986 128.3023050  89.6086814 -11.0084379
 130.0139992  88.3299978  -2.5619986 130.1529992  87.7379978  -3.3009986
 130.1809992  89.2029978  -2.9179986 130.0556193  88.3668896  -2.7113789
 124.4859992  85.2919978 -12.7889986 123.7749992  85.8269978 -13.1409986
 125.1769992  85.3469978 -13.4489986 124.4820751  85.3726777 -12.9264142
 124.5399992  83.7489978 -15.7509986 125.2409992  83.7719978 -15.0989986
 124.8419992  83.1209978 -16.4069986 124.6768202  83.6672212 -15.7504391
 131.8549992  84.6699978  -4.4959986 131.2029992  85.3639978  -4.4069986
 132.3209992  84.8799978  -5.3059986 131.8285937  84.7935019  -4.5932467
 127.8919992  85.5009978 -11.8379986 127.1599992  85.7299978 -11.2639986
 128.3389992  84.7879978 -11.3829986 127.8523963  85.4358729 -11.6980055
 127.7889992  83.6759978  -2.7699986 127.8689992  84.4389978  -2.1979986
 127.1879992  83.9549978  -3.4599986 127.7186547  83.8182457  -2.7849953
 119.5369992  86.1319978  -9.9549986 119.2069992  85.7609978 -10.7729986
 120.1259992  85.4609978  -9.6079986 119.5713970  85.9906063 -10.0200596
 120.9039992  89.5599978  -7.2739986 120.8089992  88.9809978  -8.0299986
 121.6329992  89.1889978  -6.7779986 120.9896011  89.4305561  -7.3103972
 119.9039992  84.8999978  -6.3219986 120.4689992  85.0219978  -7.0839986
 120.2229992  85.5379978  -5.6829986 120.0244166  85.0028791  -6.3399652
 126.2129992  90.4039978  -5.5879986 125.9729992  91.0659978  -4.9399986
 126.0149992  89.5689978  -5.1629986 126.1533826  90.3818115  -5.4418434
 120.7839992  89.2999978  -1.6039986 120.4729992  90.0819978  -1.1489986
 120.1339992  89.1469978  -2.2899986 120.6535538  89.3864087  -1.6344102
 126.7629992  84.6639978 -14.1519986 127.3419992  84.8139978 -13.4059986
 127.1769992  85.1339978 -14.8759986 126.8983358  84.7480954 -14.1476047
 117.7039992  85.4979978  -2.3759986 117.7739992  86.1489978  -1.6769986
 116.8129992  85.6009978  -2.7109986 117.5931690  85.6009249  -2.3256957
 124.4889992  91.3999978 -10.7169986 124.9629992  91.6959978  -9.9399986
 123.9259992  92.1389978 -10.9499986 124.4777890  91.5403036 -10.6421899
 119.0229992  91.3709978  -0.8409986 119.0309992  91.2349978  -1.7879986
 118.1069992  91.2539978  -0.5889986 118.9002528  91.3365463  -0.9366757
 130.4619992  76.4139978 -14.3389986 129.5619992  76.5529978 -14.0439986
 130.7139992  77.2449978 -14.7409986 130.3728683  76.5454055 -14.3529768
 118.5279992  85.2009978 -12.3659986 118.2359992  85.9689978 -12.8569986
 117.8529992  84.5419978 -12.5289986 118.3968497  85.2169745 -12.4551740
 131.6509992  90.7799978 -15.9629986 131.7239992  91.7189978 -15.7929986
 132.5559992  90.4749978 -16.0189986 131.7834170  90.8673282 -15.9472937
 114.6209992  87.5639978  -3.5509986 114.1189992  87.5359978  -4.3659986
 114.6259992  86.6589978  -3.2409986 114.5529832  87.4377486  -3.6205879
 114.3709992  90.3449978  -6.6669986 115.3169992  90.1999978  -6.6859986
 114.2579992  91.1289978  -6.1299986 114.4853578  90.4311697  -6.5969683
 132.5689992  91.0109978  -0.9839986 132.5189992  90.0549978  -1.0219986
 131.7419992  91.2779978  -0.5829986 132.4503831  90.9164680  -0.9349879
 123.5469992  90.5849978  -2.1079986 123.6349992  91.4109978  -1.6329986
 122.6839992  90.2549978  -1.8589986 123.4423357  90.6535468  -2.0092347
 123.9619992  94.3569978 -12.3019986 123.8859992  94.2359978 -13.2489986
 123.9939992  95.3059978 -12.1839986 123.9559380  94.4687677 -12.4154819
 117.6149992  93.1459978 -10.5209986 117.7669992  92.7979978  -9.6429986
 116.7639992  92.7889978 -10.7769986 117.5208344  93.0500879 -10.4353132
 127.0629992  93.5109978 -15.2999986 127.4379992  92.7669978 -15.7709986
 127.0679992  93.2409978 -14.3819986 127.1150098  93.3726392 -15.2403371
 126.7319992  93.4369978 -12.5509986 125.7969992  93.5369978 -12.3719986
 127.0119992  92.7269978 -11.9719986 126.6419471  93.3547933 -12.4483305
 129.7209992  82.5039978  -0.5039986 129.3129992  82.9839978  -1.2249986
 129.7609992  81.5979978  -0.8119986 129.6706221  82.4472449  -0.6441733
 116.8699992  88.8879978  -2.5079986 117.0859992  88.5259978  -1.6479986
 116.0139992  88.5129978  -2.7169986 116.7838810  88.7878837  -2.4187320
 119.4879992  77.3579978  -6.5119986 118.6269992  77.2709978  -6.9199986
 119.4659992  78.2139978  -6.0839986 119.3670491  77.4618003  -6.5100418
 124.1509992  77.0799978  -3.1369986 124.5709992  76.6649978  -2.3839986
 123.2179992  76.9009978  -3.0199986 124.0823736  76.9989910  -3.0181032
 127.4779992  80.8349978  -2.2839986 126.9639992  80.7099978  -1.4859986
 127.3219992  81.7479978  -2.5279986 127.3866967  80.9412123  -2.2079063
 128.2399992  85.6959978 -16.5229986 128.2819992  85.4739978 -17.4529986
 129.0889992  86.0949978 -16.3329986 128.3605253  85.7195498 -16.6246178
 123.8129992  79.5719978 -15.8519986 123.5589992  79.5909978 -14.9299986
 123.5559992  78.7009978 -16.1539986 123.7434508  79.4568280 -15.7665197
 119.5789992  82.3229978  -5.4169986 118.9379992  82.2829978  -4.7079986
 119.6169992  83.2499978  -5.6549986 119.4963010  82.4427668  -5.3520054
 119.5759992  82.5439978 -10.5049986 118.6839992  82.2039978 -10.5639986
 120.0269992  82.1669978 -11.2609986 119.5147642  82.4464910 -10.6152274
 125.1119992  82.9599978 -11.6879986 124.7029992  83.7749978 -11.9799986
 125.8319992  82.8199978 -12.3019986 125.1534439  83.0525372 -11.8109885
 124.2139992  83.1359978  -0.1999986 123.6509992  82.4309978   0.1210014
 125.0399992  83.0149978   0.2680014 124.2486674  83.0232165  -0.0928249
 126.1169992  82.4059978  -8.8739986 125.9209992  83.0119978  -9.5889986
 126.2979992  81.5729978  -9.3079986 126.1146584  82.3762513  -9.0305788
 117.3289992  82.6439978  -3.5499986 117.2909992  83.0439978  -2.6809986
 116.8389992  81.8269978  -3.4599986 117.2575330  82.5882674  -3.4188711
 120.6949992  80.0179978 -16.7509986 120.2639992  79.5729978 -16.0219986
 119.9769992  80.3889978 -17.2639986 120.5389176  80.0072051 -16.7205070
 113.9379992  79.7599978  -9.6989986 114.5679992  79.7309978  -8.9799986
 114.3869992  79.3349978 -10.4299986 114.0850835  79.6985660  -9.6992341
 115.2119992  80.5059978 -14.2749986 115.6859992  81.0969978 -14.8599986
 114.4939992  81.0359978 -13.9279986 115.1798640  80.6585511 -14.3082031
 125.3809992  84.0439978  -4.2029986 125.7039992  83.4129978  -4.8459986
 124.9399992  83.5099978  -3.5419986 125.3656379  83.8853468  -4.2017418
 122.1579992  79.9719978  -9.4189986 121.2469992  80.0289978  -9.1299986
 122.6629992  79.9119978  -8.6079986 122.1016873  79.9716826  -9.2698793
 116.9859992  81.6009978 -10.5919986 116.0969992  81.6999978 -10.9319986
 117.2829992  80.7589978 -10.9379986 116.9044177  81.5007687 -10.6853060
 120.6389992  81.6009978 -12.9349986 121.5709992  81.7299978 -12.7569986
 120.4239992  82.2699978 -13.5849986 120.7374472  81.7090806 -12.9985109
 126.5629992  79.2069978  -6.1539986 125.8859992  79.3379978  -5.4909986
 126.0779992  79.0519978  -6.9649986 126.4047405  79.2039947  -6.1727830
 119.3129992  82.7949978 -15.3689986 118.7709992  82.4159978 -16.0599986
 120.1469992  82.9899978 -15.7969986 119.3514390  82.7694079 -15.5215608
 129.8509992  94.8779978   0.1220014 130.0499992  95.3019978  -0.7119986
 130.5059992  95.2219978   0.7290014 129.9668522  94.9826301   0.0897852
 117.4489992  87.3519978  -0.2699986 118.1809992  87.6069978   0.2920014
 116.6679992  87.5569978   0.2460014 117.4436526  87.4145450  -0.1234824
 123.4779992  82.7589978  -7.5319986 124.0419992  82.2129978  -8.0789986
 123.3299992  82.2379978  -6.7429986 123.5353037  82.6136787  -7.5002771
 118.4799992  78.8959978 -11.1129986 118.1629992  77.9929978 -11.1489986
 119.2609992  78.8979978 -11.6659986 118.5422431  78.7727797 -11.1926898
 122.1039992  81.1479978  -5.1179986 121.2689992  81.6019978  -5.0069986
 122.6279992  81.4239978  -4.3659986 122.0606072  81.2473948  -5.0011864
 122.6489992  87.3609978 -13.4329986 121.9039992  86.8529978 -13.7549986
 122.5139992  87.4099978 -12.4869986 122.5288963  87.2981731 -13.3491174
 129.7989992  86.4939978  -4.6459986 130.4399992  86.9499978  -5.1899986
 128.9679992  86.6069978  -5.1089986 129.7745287  86.5716921  -4.7830113
 126.5459992  80.1749978 -15.2339986 125.6079992  80.2859978 -15.3849986
 126.8439992  81.0309978 -14.9269986 126.4576318  80.3060158 -15.2131855
 124.1679992  87.5449978  -2.1959986 123.8219992  87.1629978  -1.3889986
 123.9679992  88.4779978  -2.1249986 124.0935987  87.6189002  -2.0759539
 127.2649992  82.0419978 -13.5729986 128.1569992  81.9039978 -13.2539986
 127.3209992  82.8329978 -14.1099986 127.3947325  82.1299918 -13.6018783
 117.7729992  86.6559978  -7.6629986 118.5179992  86.6529978  -8.2649986
 117.8509992  85.8319978  -7.1819986 117.8853365  86.5442384  -7.6802570
 124.7739992  88.8189978 -14.4079986 124.4789992  89.6459978 -14.0259986
 124.0709992  88.1999978 -14.2109986 124.6386379  88.8484171 -14.3291346
 114.7809992  85.1159978  -2.3479986 115.0039992  84.6979978  -1.5169986
 114.1789992  84.5039978  -2.7709986 114.7301513  84.9759606  -2.2913260
 121.7979992  84.6329978  -0.1349986 121.5019992  84.4679978  -1.0309986
 122.7289992  84.4129978  -0.1459986 121.8834401  84.5806879  -0.2589794
 126.4179992  90.0069978  -2.2459986 125.5179992  90.1899978  -2.5129986
 126.4519992  90.2659978  -1.3249986 126.2993748  90.0670554  -2.1580836
 132.1499992  82.2509978 -13.8779986 131.5949992  81.8549978 -14.5509986
 132.2499992  83.1619978 -14.1559986 132.0876816  82.3199505 -14.0074967
 132.1129992  88.0519978  -1.0409986 131.2619992  88.2899978  -1.4089986
 132.7029992  88.0349978  -1.7939986 132.0763812  88.0822524  -1.1931547
 130.4449992  91.0369978 -13.4129986 130.0719992  90.2119978 -13.1039986
 130.7219992  90.8539978 -14.3109986 130.4313463  90.8992569 -13.4920475
 127.6049992  85.8449978  -6.3919986 126.6769992  85.6139978  -6.4189986
 128.0559992  85.0679978  -6.7219986 127.5388165  85.7082774  -6.4403210
 120.1479992  90.1739978 -10.2589986 120.6759992  90.9469978 -10.4589986
 119.2679992  90.3979978 -10.5609986 120.1013435  90.3102700 -10.3272690
 115.9029992  85.0359978 -15.6719986 116.5189992  85.6629978 -15.2919986
 115.0409992  85.3519978 -15.3999986 115.8707678  85.1644412 -15.5832791
 121.5759992  87.8369978 -10.6829986 121.3349992  88.7619978 -10.6409986
 120.8349992  87.3779978 -10.2859986 121.4429206  87.9015915 -10.6236231
 122.0899992  91.9859978  -4.3679986 122.4529992  92.8399978  -4.6009986
 122.6219992  91.6939978  -3.6269986 122.2115141  92.0633895  -4.2997903
 120.2589992  92.8579978 -11.1369986 119.3089992  92.9639978 -11.0859986
 120.6109992  93.6789978 -10.7929986 120.1765472  92.9834923 -11.0835148
 125.6339992  88.0849978  -4.6669986 125.2089992  87.8569978  -3.8409986
 126.2149992  87.3459978  -4.8489986 125.6543395  87.9539545  -4.5785586
 127.8369992  89.0139978 -15.5929986 128.1909992  88.6339978 -14.7889986
 126.8889992  88.9199978 -15.5059986 127.7572298  88.9492452 -15.4711313
 128.2929992  92.6369978  -2.1979986 127.6909992  92.0809978  -2.6929986
 128.5739992  93.3039978  -2.8239986 128.2485757  92.6510744  -2.3504325
 132.3409992  93.4929978 -15.3919986 133.0849992  94.0789978 -15.5319986
 131.6469992  94.0619978 -15.0589986 132.3489809  93.6500818 -15.3661410
 116.4149992  79.8699978  -2.7899986 115.5229992  80.2079978  -2.8579986
 116.3169992  79.0139978  -2.3719986 116.2794475  79.8006543  -2.7428296
 128.7029992  87.6859978 -13.3659986 128.4259992  86.9579978 -12.8099986
 129.6309992  87.8049978 -13.1609986 128.7904499  87.6024213 -13.2621956
 116.0669992  91.6739978  -4.3549986 116.2839992  90.7419978  -4.3859986
 116.3129992  91.9489978  -3.4719986 116.1299809  91.5835686  -4.2398309
 120.8649992  89.6959978 -14.6899986 121.0119992  89.1759978 -13.8999986
 120.8619992  90.6029978 -14.3829986 120.8847102  89.7473953 -14.5404075
 117.3179992  86.9479978 -14.1789986 116.6319992  87.3009978 -13.6119986
 117.8409992  87.7109978 -14.4259986 117.2948402  87.0993901 -14.1348199
 125.1499992  79.6109978  -3.8999986 125.8489992  79.6849978  -3.2499986
 124.7689992  78.7459978  -3.7459986 125.1942097  79.5042389  -3.7902003
 125.9339992  79.2629978 -12.8029986 126.1539992  79.7339978 -13.6069986
 126.4929992  79.6569978 -12.1329986 126.0396731  79.3807287 -12.8224967
 123.6029992  91.3929978 -13.9399986 122.7859992  91.8899978 -13.8879986
 124.1319992  91.8689978 -14.5809986 123.5628125  91.5251989 -14.0194694
 123.1339992  80.9909978 -11.9679986 123.9459992  81.4949978 -11.9219986
 122.8899992  80.8459978 -11.0539986 123.2121467  81.0403749 -11.8381425
 123.6699992  81.9769978  -2.7839986 123.7889992  82.5509978  -2.0269986
 124.3249992  81.2889978  -2.6689986 123.7748684  81.9625194  -2.6648326
 124.0179992  78.0719978 -11.0299986 123.6709992  78.6889978 -10.3859986
 124.6769992  78.5729978 -11.5119986 124.0595090  78.2241575 -11.0069319
 120.9409992  92.4369978 -13.9589986 121.1019992  93.2369978 -14.4589986
 120.7439992  92.7439978 -13.0739986 120.9363906  92.5878678 -13.9077667
 119.6759992  79.1349978 -14.3429986 119.5919992  80.0229978 -13.9959986
 120.5659992  78.8699978 -14.1109986 119.7848163  79.2207179 -14.2641404
 129.8739992  79.8839978  -1.9489986 128.9579992  80.1459978  -2.0359986
 130.2099992  79.8809978  -2.8449986 129.7938499  79.9195163  -2.0821234
 128.4769992  83.6339978  -7.8529986 127.6789992  83.2189978  -8.1809986
 128.9219992  82.9439978  -7.3619986 128.4279684  83.4838628  -7.8314773
 117.9339992  89.5619978 -15.2829986 118.5259992  90.2619978 -15.0059986
 118.3929992  89.1289978 -16.0019986 118.0771652  89.5992675 -15.3423467
 116.2499992  82.2269978 -16.1669986 116.2049992  83.1659978 -15.9879986
 115.3619992  81.9909978 -16.4359986 116.1238166  82.3236687 -16.1788476
 129.5629992  92.8899978  -6.2309986 129.4069992  93.5689978  -6.8879986
 130.4959992  92.9619978  -6.0279986 129.6677387  92.9926390  -6.2934658
 117.0579992  77.0079978  -7.4929986 116.8289992  77.0669978  -8.4209986
 116.6159992  76.2169978  -7.1869986 116.9668801  76.9090540  -7.5785271
 115.9889992  90.9489978 -11.3329986 115.1559992  91.4209978 -11.3059986
 116.5339992  91.4589978 -11.9319986 115.9487857  91.0824791 -11.4102858
 115.2769992  93.5609978  -0.0029986 115.8169992  93.3449978   0.7570014
 114.7959992  92.7559978  -0.1929986 115.2859219  93.4225156   0.0754282
 119.8739992  92.4809978   1.6170014 120.6419992  92.0219978   1.9580014
 119.8529992  92.2549978   0.6870014 119.9762135  92.3876668   1.5379491
 123.9659992  91.9889978 -17.0069986 123.3219992  91.3579978 -16.6859986
 124.7279992  91.4579978 -17.2389986 123.9808058  91.8307902 -16.9943962
 126.4509992  90.8609978   0.3460014 126.0999992  90.0039978   0.5900014
 127.1769992  91.0029978   0.9530014 126.5011895  90.7631351   0.4613770
 128.5709992  91.8059978 -16.7739986 128.8539992  91.0109978 -16.3209986
 129.3099992  92.0389978 -17.3349986 128.7097096  91.7287049 -16.7878896
 115.1839992  87.3719978   0.9510014 115.3279992  86.4699978   0.6650014
 114.4119992  87.6579978   0.4640014 115.0992733  87.2871798   0.8459532
 119.5249992  87.7149978 -16.9159986 119.5899992  86.9209978 -16.3859986
 120.1779992  87.5969978 -17.6059986 119.6221605  87.5903430 -16.9367003
 121.8389992  87.3409978   0.3840014 121.5109992  87.6119978  -0.4729986
 121.9909992  86.3999978   0.2960014 121.8146412  87.2509046   0.2547822
 127.5739992  87.2569978  -2.2329986 128.3189992  87.8459978  -2.3519986
 126.8169992  87.8389978  -2.1689986 127.5735470  87.4162128  -2.2406201
 116.0169992  84.5719978   0.3710014 116.4249992  83.7149978   0.2500014
 115.7559992  84.5859978   1.2920014 116.0376016  84.4565119   0.4789192
 120.6749992  85.6879978 -14.6099986 120.2149992  85.2039978 -13.9249986
 120.9299992  85.0189978 -15.2459986 120.6464856  85.5313669 -14.6021603
 119.9639992  83.5809978  -2.2539986 119.3449992  84.2549978  -1.9739986
 120.3079992  83.9019978  -3.0879986 119.9257123  83.7166887  -2.3283612
 121.7459992  83.9309978 -16.3479986 121.5649992  83.7759978 -17.2749986
 122.6959992  84.0389978 -16.3029986 121.8496566  83.9243669 -16.4689071
 124.9829992  86.0519978   1.0230014 125.9369992  86.1359978   0.9960014
 124.8229992  85.3399978   1.6430014 125.0917182  85.9672842   1.1030733
 131.1359992  86.2849978 -16.9019986 130.8619992  85.8609978 -17.7149986
 131.1749992  87.2169978 -17.1189986 131.1037716  86.3528827 -17.0425714
 120.3029992  80.9359978  -1.1719986 120.4529992  80.2069978  -1.7739986
 120.3049992  81.7129978  -1.7309986 120.3237967  80.9412708  -1.3299459
 120.7159992  79.3049978  -3.6789986 121.2509992  79.7569978  -4.3309986
 119.8629992  79.1969978  -4.1019986 120.6740374  79.3522665  -3.8253290
 122.2969992  84.7449978  -3.4399986 123.0479992  84.5889978  -4.0129986
 121.9579992  85.5969978  -3.7149986 122.3539587  84.8388138  -3.5555922
 126.7129992  82.5599978   1.5890014 126.9049992  81.6289978   1.4770014
 127.5709992  82.9849978   1.5780014 126.8552182  82.4900070   1.5721862
 128.0299992  85.3489978  -0.3339986 127.7479992  86.0579978  -0.9119986
 128.9719992  85.2759978  -0.4849986 128.1187921  85.4362193  -0.4335775
 118.7819992  82.1339978   0.7390014 118.0139992  81.6009978   0.5290014
 119.4599992  81.8239978   0.1400014 118.7687235  82.0191754   0.6292413
 121.5209992  76.7619978  -3.2479986 121.4229992  77.7079978  -3.3529986
 120.7789992  76.3889978  -3.7239986 121.4072534  76.8411773  -3.3267400
 122.7849992  81.0829978   0.3160014 122.5499992  80.8639978   1.2170014
 122.0019992  80.8759978  -0.1939986 122.6469095  81.0249892   0.3705353
 125.5009992  80.2109978  -0.6089986 124.5529992  80.2429978  -0.4769986
 125.8129992  79.5849978   0.0450014 125.4135293  80.1307923  -0.5025852
 127.1349992  78.8449978   1.3960014 127.0379992  77.8929978   1.3910014
 126.8129992  79.1129978   2.2570014 127.0782468  78.7510884   1.5116210
 116.9619992  80.0539978   0.4440014 117.1739992  79.3479978  -0.1659986
 116.8509992  79.6169978   1.2880014 116.9760269  79.8981921   0.4745873
 121.7429992  76.0559978  -0.5769986 122.4549992  75.4159978  -0.5909986
 121.6419992  76.3219978  -1.4899986 121.8267387  76.0044330  -0.7024437
 122.0969992  77.7379978   1.4770014 121.9649992  77.2629978   0.6570014
 121.4969992  78.4829978   1.4220014 121.9979070  77.7735789   1.3573251
 121.6429992  94.6209978 -15.3469986 122.5759992  94.7789978 -15.2029986
 121.3789992  95.2969978 -15.9719986 121.7349911  94.7339373 -15.4117278
 115.2109992  89.2579978 -15.8639986 116.1249992  89.3369978 -15.5909986
 115.2189992  88.5709978 -16.5299986 115.3370655  89.1759205 -15.9167083
 113.8599992  94.6509978 -10.7869986 113.2129992  94.1889978 -11.3189986
 114.2149992  93.9789978 -10.2039986 113.8193741  94.4969774 -10.7810825
 114.7299992  92.7309978  -8.9819986 114.3959992  91.8509978  -8.8099986
 114.9529992  93.0769978  -8.1169986 114.7143721  92.6571938  -8.8415832
 132.2789992  93.5409978  -6.0009986 132.2569992  93.7259978  -5.0619986
 132.9689992  94.1089978  -6.3419986 132.3693439  93.6431887  -5.9185209
 131.8419992  93.1079978  -3.0799986 131.3549992  92.3729978  -3.4509986
 132.3909992  92.7139978  -2.4019986 131.8495247  92.9541057  -3.0391539
 130.2929992  88.8979978   1.5590014 129.4269992  88.7929978   1.9530014
 130.6689992  89.6559978   2.0050014 130.2253401  88.9861708   1.6732620
 131.5939992  87.1539978 -12.9269986 132.4439992  87.5749978 -12.7999986
 131.5989992  86.4139978 -12.3199986 131.7111143  87.1116094 -12.8275250
 131.9879992  85.2079978 -11.1039986 131.2619992  84.7279978 -10.7059986
 132.5699992  85.4129978 -10.3709986 131.9672730  85.1700184 -10.9505851
 131.7469992  87.9929978  -6.1559986 132.5809992  87.6149978  -6.4369986
 131.8589992  88.9359978  -6.2749986 131.8761917  88.0687943  -6.2105139
 130.2339992  90.8709978  -3.8489986 129.5859992  91.1959978  -3.2239986
 129.7159992  90.4299978  -4.5229986 130.0754196  90.8558651  -3.8545848
 132.2569992  85.1089978 -14.7129986 131.7349992  85.4649978 -15.4309986
 132.2239992  85.7839978 -14.0339986 132.1810129  85.2489598 -14.7196645
 130.6059992  82.3479978 -16.1619986 130.7019992  83.0149978 -16.8419986
 130.4659992  81.5329978 -16.6429986 130.6002040  82.3290671 -16.3201622
 129.7749992  83.7289978 -10.5409986 129.6249992  82.7839978 -10.5609986
 129.4209992  84.0099978  -9.6969986 129.7066351  83.6376644 -10.4296780
 114.8099992  85.8069978  -6.5299986 114.9949992  85.7249978  -7.4659986
 115.6599992  85.6829978  -6.1069986 114.9500928  85.7790463  -6.6007107
 130.6309992  85.6989978  -0.9019986 131.2139992  84.9639978  -0.7099986
 131.1949992  86.4709978  -0.8549986 130.7869781  85.7028145  -0.8693836
 132.1279992  83.6019978  -0.2169986 131.2649992  83.2229978  -0.3829986
 132.7319992  82.8629978  -0.2919986 132.0916085  83.4503223  -0.2498306
 129.8529992  79.7559978 -17.0439986 130.4639992  79.3849978 -16.4069986
 129.0159992  79.3349978 -16.8479986 129.8234947  79.6482756 -16.9302748
 129.4859992  81.3109978 -12.0779986 129.7649992  80.4039978 -11.9539986
 130.2449992  81.7449978 -12.4669986 129.6268619  81.2454502 -12.1136205
 130.0969992  81.8929978  -6.6419986 131.0299992  82.1049978  -6.6769986
 129.8619992  81.9939978  -5.7199986 130.1929517  81.9356833  -6.5220870
 130.1269992  82.6299978  -3.8659986 129.2839992  82.8979978  -3.4999986
 130.5689992  83.4519978  -4.0769986 130.0714138  82.7778273  -3.8444482
 114.4079992  81.0769978  -0.3899986 115.3269992  80.9549978  -0.1529986
 113.9579992  80.3269978   0.0000014 114.4730087  80.9589608  -0.3048590
 132.4099992  76.6099978   1.4870014 132.7589992  75.9559978   0.8820014
 132.5569992  77.4469978   1.0470014 132.4776824  76.6336024   1.3446304
 130.0989992  78.5739978 -12.0299986 130.2809992  78.1249978 -11.2049986
 129.4989992  77.9899978 -12.4939986 130.0428187  78.4335552 -11.9797261
 115.6289992  79.3899978  -7.4979986 116.0739992  78.5979978  -7.1959986
 116.0949992  80.1059978  -7.0679986 115.7529718  79.3784534  -7.3984735
 113.9329992  82.3889978  -6.4289986 114.4249992  82.1679978  -7.2199986
 114.2949992  83.2289978  -6.1479986 114.0492923  82.4723468  -6.4992593
 131.9289992  78.7189978  -0.1639986 131.0119992  78.9899978  -0.1989986
 132.0519992  78.1839978  -0.9479986 131.8199672  78.6837885  -0.2748138
 131.9659992  78.6419978 -15.5019986 132.3779992  77.9209978 -15.9769986
 132.6469992  79.3109978 -15.4439986 132.1145536  78.6337766 -15.5591976
 114.2469992  78.6469978 -12.3749986 113.3219992  78.8549978 -12.5039986
 114.7009992  79.1309978 -13.0649986 114.1816298  78.7409299 -12.4859549
 129.0169992  93.6309978 -10.4289986 129.6699992  93.2829978 -11.0369986
 129.5279992  94.1189978  -9.7829986 129.1752777  93.6493815 -10.4247953
 114.2099992  77.3849978  -4.0309986 113.5449992  77.1389978  -3.3879986
 113.7669992  78.0069978  -4.6079986 114.0591168  77.4354214  -4.0210152
 116.4019992  90.5599978   0.1140014 115.5809992  90.7349978  -0.3469986
 116.1499992  90.4869978   1.0340014 116.2555594  90.5740717   0.1753611
 119.3559992  91.5339978  -3.6279986 118.9319992  92.3439978  -3.9099986
 120.2609992  91.6199978  -3.9299986 119.4202138  91.6564160  -3.7073585
 123.6679992  92.9329978  -0.6679986 123.8519992  92.5999978   0.2100014
 124.5139992  93.2429978  -0.9899986 123.8076484  92.9292979  -0.5912383
 126.0129992  94.2189978  -1.4239986 126.6899992  93.5859978  -1.6639986
 126.3339992  94.6199978  -0.6169986 126.1491323  94.1865691  -1.3476842
 130.9299992  76.8089978  -2.3449986 130.1169992  77.1339978  -2.7319986
 131.1629992  76.0479978  -2.8779986 130.8501347  76.7506880  -2.4700159
 116.7579992  94.7909978  -3.5799986 116.0379992  95.2309978  -4.0309986
 116.3929992  94.5399978  -2.7319986 116.6099643  94.8173369  -3.5270871
 119.2249992  94.3909978  -4.5499986 118.3609992  94.4629978  -4.1459986
 119.1699992  94.9379978  -5.3339986 119.0991942  94.4747849  -4.6006000
 123.9359992  94.2789978  -5.3749986 123.4789992  94.8079978  -6.0289986
 124.0989992  94.8819978  -4.6499986 123.8954960  94.4329280  -5.3664726
 126.2639992  93.1569978  -4.4299986 125.3589992  93.3219978  -4.6959986
 126.6919992  94.0099978  -4.4959986 126.1981537  93.2949134  -4.4752905
 128.8679992  94.7269978  -4.1349986 128.6859992  95.6429978  -4.3459986
 129.0449992  94.3159978  -4.9819986 128.8670030  94.7968273  -4.2782834
 116.1729992  93.4139978  -6.6699986 116.1549992  92.9879978  -5.8129986
 116.9779992  93.0949978  -7.0789986 116.2792875  93.3126435  -6.6080485
 118.3139992  92.1239978  -8.0149986 118.0949992  91.2069978  -7.8449986
 119.1379992  92.2639978  -7.5489986 118.3954702  92.0175511  -7.9287473
 120.8509992  92.5939978  -7.1659986 121.0639992  91.7059978  -7.4529986
 120.9159992  92.5589978  -6.2119986 120.8889149  92.4678326  -7.0762631
 124.3599992  78.2579978  -8.0219986 123.6859992  77.6279978  -7.7659986
 124.9239992  77.7739978  -8.6249986 124.3440384  78.1063708  -8.0684980
 129.5029992  76.3649978  -7.9089986 130.1059992  76.9129978  -8.4109986
 128.6329992  76.6839978  -8.1499986 129.4679157  76.4830373  -8.0102090
 131.2299992  77.5039978  -9.5759986 131.8409992  76.9899978 -10.1029986
 131.6119992  78.3809978  -9.5529986 131.3653305  77.5522050  -9.6450582
 116.6869992  76.8919978 -10.1999986 115.9099992  76.6569978 -10.7069986
 117.2169992  76.0949978 -10.1909986 116.6523451  76.7521268 -10.2681373
 115.5229992  76.6899978 -14.3959986 115.9619992  77.3009978 -14.9879986
 114.8889992  77.2279978 -13.9219986 115.4973859  76.8464064 -14.4129695
 121.2659992  76.8179978 -10.3869986 122.1399992  77.2069978 -10.4159986
 121.1299992  76.6029978  -9.4639986 121.3671953  76.8421643 -10.2662383
 126.8229992  76.8479978  -8.7369986 126.8989992  76.9439978  -9.6869986
 126.5479992  75.9409978  -8.6089986 126.7961871  76.7384146  -8.8496056
 128.1759992  76.8739978 -13.0449986 127.4729992  77.4889978 -13.2549986
 127.7309992  76.0369978 -12.9139986 128.0196550  76.8449668 -13.0560163
 115.4239992  92.6379978 -13.4989986 114.7389992  92.5999978 -14.1659986
 115.4279992  93.5509978 -13.2109986 115.3307621  92.7561924 -13.5513874
 117.3839992  78.6059978 -15.9539986 117.8749992  77.9759978 -16.4809986
 118.0069992  78.9019978 -15.2909986 117.5355304  78.5597376 -15.9365060
 122.4099992  78.8989978 -13.4969986 122.5879992  78.2519978 -12.8139986
 122.3559992  79.7329978 -13.0299986 122.4270678  78.9231604 -13.3403699
 124.2879992  93.8469978 -15.1009986 125.1539992  94.2139978 -15.2789986
 124.0419992  93.4079978 -15.9149986 124.3732097  93.8378525 -15.2353981
 130.9969992  93.4099978 -12.4219986 130.8029992  92.6619978 -12.9869986
 130.9579992  94.1679978 -13.0049986 130.9651645  93.4100786 -12.5781852
 116.6439992  77.4059978  -0.6819986 116.2779992  76.6399978  -0.2399986
 117.5569992  77.4349978  -0.3959986 116.7173172  77.3050324  -0.5828110
 118.6169992  76.7559978   0.8530014 119.5159992  76.4819978   0.6690014
 118.2309992  76.0139978   1.3180014 118.6877307  76.6182196   0.8907098
 117.2419992  93.5579978 -16.4739986 116.9739992  93.8439978 -15.5999986
 118.0129992  93.0119978 -16.3209986 117.3095926  93.5232779 -16.3338795
 127.0389992  76.0889978   1.0360014 127.1149992  75.6629978   1.8890014
 127.9319992  76.1019978   0.6930014 127.1702303  76.0323493   1.1065497
 130.2149992  92.1619978  -0.2719986 129.4329992  91.9749978  -0.7919986
 130.1429992  93.0909978  -0.0549986 130.0981924  92.2620637  -0.3138398
 144.6209992  86.0479978 -10.2409986 144.7099992  86.9919978 -10.3729986
 143.9829992  85.7729978 -10.8989986 144.5469062  86.1399812 -10.3480359
 143.5539992  85.3029978  -6.8219986 143.5159992  84.6569978  -6.1169986
 143.2319992  84.8359978  -7.5929986 143.5052679  85.1514276  -6.8297079
 135.9219992  84.9169978  -5.2289986 135.9639992  84.2919978  -4.5059986
 136.6249992  85.5409978  -5.0469986 136.0227345  84.9157873  -5.1054727
 136.8459992  89.3669978  -6.6939986 136.4759992  88.5649978  -7.0639986
 137.7869992  89.1989978  -6.6479986 136.9225984  89.2344638  -6.7384397
 133.4559992  83.0269978 -11.3019986 133.0079992  83.8729978 -11.3199986
 132.8949992  82.4479978 -11.8169986 133.3188546  83.0643993 -11.3741109
 134.1659992  85.1889978  -9.1759986 134.3799992  84.4189978  -8.6479986
 134.9039992  85.2789978  -9.7789986 134.2950200  85.0958587  -9.1852965
 144.3719992  93.3459978  -8.3089986 144.9909992  92.6699978  -8.5819986
 144.1629992  93.1279978  -7.3999986 144.4286056  93.2238869  -8.2236033
 141.9429992  87.7349978  -6.4159986 142.2469992  87.0489978  -7.0109986
 142.6649992  87.8539978  -5.7979986 142.0821240  87.6572314  -6.4139041
 145.0839992  82.1289978  -6.0889986 145.2269992  81.1829978  -6.0689986
 144.9779992  82.3359978  -7.0169986 145.0892403  82.0274797  -6.2117761
 138.2389992  80.2309978  -8.8159986 138.2819992  81.0909978  -9.2349986
 137.7809992  79.6789978  -9.4499986 138.1829871  80.2739245  -8.9589239
 134.8589992  82.6279978  -8.0539986 135.5129992  82.0779978  -7.6219986
 134.8829992  82.3539978  -8.9709986 134.9517199  82.5157167  -8.1188332
 140.0159992  84.1779978  -8.8389986 140.6319992  83.6509978  -8.3299986
 139.4289992  83.5379978  -9.2429986 140.0210154  84.0193954  -8.8239055
 137.0489992  79.1489978  -4.7419986 136.8299992  79.6789978  -5.5089986
 136.3809992  79.3749978  -4.0949986 136.9286975  79.2520967  -4.7594860
 144.4179992  88.6489978 -11.1979986 144.1229992  88.3259978 -12.0499986
 144.0939992  89.5489978 -11.1569986 144.3338460  88.7264464 -11.3090286
 139.6179992  86.8239978  -4.4549986 138.8779992  87.4229978  -4.3509986
 140.3319992  87.3779978  -4.7699986 139.6133500  86.9807829  -4.4833629
 136.6429992  81.0409978  -6.7899986 137.2569992  81.6739978  -6.4169986
 137.1549992  80.5689978  -7.4459986 136.7961962  81.0637249  -6.8277065
 138.0259992  88.7889978  -3.6679986 138.0199992  89.6679978  -4.0459986
 137.1719992  88.7049978  -3.2429986 137.9097925  88.8979535  -3.6623113
 134.1469992  88.4599978 -12.8859986 133.8749992  88.6889978 -13.7739986
 134.1919992  89.2969978 -12.4249986 134.1158097  88.6046163 -12.9453317
 141.0759992  76.4539978  -7.2899986 140.9579992  75.5059978  -7.3439986
 140.2209992  76.7869978  -7.0169986 140.9442805  76.3692202  -7.2604921
 143.3419992  85.2919978 -12.7889986 142.6309992  85.8269978 -13.1409986
 144.0329992  85.3469978 -13.4489986 143.3380751  85.3726777 -12.9264142
 143.3959992  83.7489978 -15.7509986 144.0969992  83.7719978 -15.0989986
 143.6979992  83.1209978 -16.4069986 143.5328202  83.6672212 -15.7504391
 138.3929992  86.1319978  -9.9549986 138.0629992  85.7609978 -10.7729986
 138.9819992  85.4609978  -9.6079986 138.4273970  85.9906063 -10.0200596
 139.7599992  89.5599978  -7.2739986 139.6649992  88.9809978  -8.0299986
 140.4889992  89.1889978  -6.7779986 139.8456011  89.4305561  -7.3103972
 138.7599992  84.8999978  -6.3219986 139.3249992  85.0219978  -7.0839986
 139.0789992  85.5379978  -5.6829986 138.8804166  85.0028791  -6.3399652
 145.0689992  90.4039978  -5.5879986 144.8289992  91.0659978  -4.9399986
 144.8709992  89.5689978  -5.1629986 145.0093826  90.3818115  -5.4418434
 139.6399992  89.2999978  -1.6039986 139.3289992  90.0819978  -1.1489986
 138.9899992  89.1469978  -2.2899986 139.5095538  89.3864087  -1.6344102
 136.5599992  85.4979978  -2.3759986 136.6299992  86.1489978  -1.6769986
 135.6689992  85.6009978  -2.7109986 136.4491690  85.6009249  -2.3256957
 143.3449992  91.3999978 -10.7169986 143.8189992  91.6959978  -9.9399986
 142.7819992  92.1389978 -10.9499986 143.3337890  91.5403036 -10.6421899
 137.8789992  91.3709978  -0.8409986 137.8869992  91.2349978  -1.7879986
 136.9629992  91.2539978  -0.5889986 137.7562528  91.3365463  -0.9366757
 137.3839992  85.2009978 -12.3659986 137.0919992  85.9689978 -12.8569986
 136.7089992  84.5419978 -12.5289986 137.2528497  85.2169745 -12.4551740
 133.4769992  87.5639978  -3.5509986 132.9749992  87.5359978  -4.3659986
 133.4819992  86.6589978  -3.2409986 133.4089832  87.4377486  -3.6205879
 133.2269992  90.3449978  -6.6669986 134.1729992  90.1999978  -6.6859986
 133.1139992  91.1289978  -6.1299986 133.3413578  90.4311697  -6.5969683
 142.4029992  90.5849978  -2.1079986 142.4909992  91.4109978  -1.6329986
 141.5399992  90.2549978  -1.8589986 142.2983357  90.6535468  -2.0092347
 142.8179992  94.3569978 -12.3019986 142.7419992  94.2359978 -13.2489986
 142.8499992  95.3059978 -12.1839986 142.8119380  94.4687677 -12.4154819
 136.4709992  93.1459978 -10.5209986 136.6229992  92.7979978  -9.6429986
 135.6199992  92.7889978 -10.7769986 136.3768344  93.0500879 -10.4353132
 135.7259992  88.8879978  -2.5079986 135.9419992  88.5259978  -1.6479986
 134.8699992  88.5129978  -2.7169986 135.6398810  88.7878837  -2.4187320
 138.3439992  77.3579978  -6.5119986 137.4829992  77.2709978  -6.9199986
 138.3219992  78.2139978  -6.0839986 138.2230491  77.4618003  -6.5100418
 143.0069992  77.0799978  -3.1369986 143.4269992  76.6649978  -2.3839986
 142.0739992  76.9009978  -3.0199986 142.9383736  76.9989910  -3.0181032
 142.6689992  79.5719978 -15.8519986 142.4149992  79.5909978 -14.9299986
 142.4119992  78.7009978 -16.1539986 142.5994508  79.4568280 -15.7665197
 138.4349992  82.3229978  -5.4169986 137.7939992  82.2829978  -4.7079986
 138.4729992  83.2499978  -5.6549986 138.3523010  82.4427668  -5.3520054
 138.4319992  82.5439978 -10.5049986 137.5399992  82.2039978 -10.5639986
 138.8829992  82.1669978 -11.2609986 138.3707642  82.4464910 -10.6152274
 143.9679992  82.9599978 -11.6879986 143.5589992  83.7749978 -11.9799986
 144.6879992  82.8199978 -12.3019986 144.0094439  83.0525372 -11.8109885
 143.0699992  83.1359978  -0.1999986 142.5069992  82.4309978   0.1210014
 143.8959992  83.0149978   0.2680014 143.1046674  83.0232165  -0.0928249
 144.9729992  82.4059978  -8.8739986 144.7769992  83.0119978  -9.5889986
 145.1539992  81.5729978  -9.3079986 144.9706584  82.3762513  -9.0305788
 136.1849992  82.6439978  -3.5499986 136.1469992  83.0439978  -2.6809986
 135.6949992  81.8269978  -3.4599986 136.1135330  82.5882674  -3.4188711
 139.5509992  80.0179978 -16.7509986 139.1199992  79.5729978 -16.0219986
 138.8329992  80.3889978 -17.2639986 139.3949176  80.0072051 -16.7205070
 132.7939992  79.7599978  -9.6989986 133.4239992  79.7309978  -8.9799986
 133.2429992  79.3349978 -10.4299986 132.9410835  79.6985660  -9.6992341
 134.0679992  80.5059978 -14.2749986 134.5419992  81.0969978 -14.8599986
 133.3499992  81.0359978 -13.9279986 134.0358640  80.6585511 -14.3082031
 144.2369992  84.0439978  -4.2029986 144.5599992  83.4129978  -4.8459986
 143.7959992  83.5099978  -3.5419986 144.2216379  83.8853468  -4.2017418
 141.0139992  79.9719978  -9.4189986 140.1029992  80.0289978  -9.1299986
 141.5189992  79.9119978  -8.6079986 140.9576873  79.9716826  -9.2698793
 135.8419992  81.6009978 -10.5919986 134.9529992  81.6999978 -10.9319986
 136.1389992  80.7589978 -10.9379986 135.7604177  81.5007687 -10.6853060
 139.4949992  81.6009978 -12.9349986 140.4269992  81.7299978 -12.7569986
 139.2799992  82.2699978 -13.5849986 139.5934472  81.7090806 -12.9985109
 145.4189992  79.2069978  -6.1539986 144.7419992  79.3379978  -5.4909986
 144.9339992  79.0519978  -6.9649986 145.2607405  79.2039947  -6.1727830
 138.1689992  82.7949978 -15.3689986 137.6269992  82.4159978 -16.0599986
 139.0029992  82.9899978 -15.7969986 138.2074390  82.7694079 -15.5215608
 136.3049992  87.3519978  -0.2699986 137.0369992  87.6069978   0.2920014
 135.5239992  87.5569978   0.2460014 136.2996526  87.4145450  -0.1234824
 142.3339992  82.7589978  -7.5319986 142.8979992  82.2129978  -8.0789986
 142.1859992  82.2379978  -6.7429986 142.3913037  82.6136787  -7.5002771
 137.3359992  78.8959978 -11.1129986 137.0189992  77.9929978 -11.1489986
 138.1169992  78.8979978 -11.6659986 137.3982431  78.7727797 -11.1926898
 140.9599992  81.1479978  -5.1179986 140.1249992  81.6019978  -5.0069986
 141.4839992  81.4239978  -4.3659986 140.9166072  81.2473948  -5.0011864
 141.5049992  87.3609978 -13.4329986 140.7599992  86.8529978 -13.7549986
 141.3699992  87.4099978 -12.4869986 141.3848963  87.2981731 -13.3491174
 145.4019992  80.1749978 -15.2339986 144.4639992  80.2859978 -15.3849986
 145.6999992  81.0309978 -14.9269986 145.3136318  80.3060158 -15.2131855
 143.0239992  87.5449978  -2.1959986 142.6779992  87.1629978  -1.3889986
 142.8239992  88.4779978  -2.1249986 142.9495987  87.6189002  -2.0759539
 136.6289992  86.6559978  -7.6629986 137.3739992  86.6529978  -8.2649986
 136.7069992  85.8319978  -7.1819986 136.7413365  86.5442384  -7.6802570
 143.6299992  88.8189978 -14.4079986 143.3349992  89.6459978 -14.0259986
 142.9269992  88.1999978 -14.2109986 143.4946379  88.8484171 -14.3291346
 133.6369992  85.1159978  -2.3479986 133.8599992  84.6979978  -1.5169986
 133.0349992  84.5039978  -2.7709986 133.5861513  84.9759606  -2.2913260
 140.6539992  84.6329978  -0.1349986 140.3579992  84.4679978  -1.0309986
 141.5849992  84.4129978  -0.1459986 140.7394401  84.5806879  -0.2589794
 145.2739992  90.0069978  -2.2459986 144.3739992  90.1899978  -2.5129986
 145.3079992  90.2659978  -1.3249986 145.1553748  90.0670554  -2.1580836
 139.0039992  90.1739978 -10.2589986 139.5319992  90.9469978 -10.4589986
 138.1239992  90.3979978 -10.5609986 138.9573435  90.3102700 -10.3272690
 134.7589992  85.0359978 -15.6719986 135.3749992  85.6629978 -15.2919986
 133.8969992  85.3519978 -15.3999986 134.7267678  85.1644412 -15.5832791
 140.4319992  87.8369978 -10.6829986 140.1909992  88.7619978 -10.6409986
 139.6909992  87.3779978 -10.2859986 140.2989206  87.9015915 -10.6236231
 140.9459992  91.9859978  -4.3679986 141.3089992  92.8399978  -4.6009986
 141.4779992  91.6939978  -3.6269986 141.0675141  92.0633895  -4.2997903
 139.1149992  92.8579978 -11.1369986 138.1649992  92.9639978 -11.0859986
 139.4669992  93.6789978 -10.7929986 139.0325472  92.9834923 -11.0835148
 144.4899992  88.0849978  -4.6669986 144.0649992  87.8569978  -3.8409986
 145.0709992  87.3459978  -4.8489986 144.5103395  87.9539545  -4.5785586
 135.2709992  79.8699978  -2.7899986 134.3789992  80.2079978  -2.8579986
 135.1729992  79.0139978  -2.3719986 135.1354475  79.8006543  -2.7428296
 134.9229992  91.6739978  -4.3549986 135.1399992  90.7419978  -4.3859986
 135.1689992  91.9489978  -3.4719986 134.9859809  91.5835686  -4.2398309
 139.7209992  89.6959978 -14.6899986 139.8679992  89.1759978 -13.8999986
 139.7179992  90.6029978 -14.3829986 139.7407102  89.7473953 -14.5404075
 136.1739992  86.9479978 -14.1789986 135.4879992  87.3009978 -13.6119986
 136.6969992  87.7109978 -14.4259986 136.1508402  87.0993901 -14.1348199
 144.0059992  79.6109978  -3.8999986 144.7049992  79.6849978  -3.2499986
 143.6249992  78.7459978  -3.7459986 144.0502097  79.5042389  -3.7902003
 144.7899992  79.2629978 -12.8029986 145.0099992  79.7339978 -13.6069986
 145.3489992  79.6569978 -12.1329986 144.8956731  79.3807287 -12.8224967
 142.4589992  91.3929978 -13.9399986 141.6419992  91.8899978 -13.8879986
 142.9879992  91.8689978 -14.5809986 142.4188125  91.5251989 -14.0194694
 141.9899992  80.9909978 -11.9679986 142.8019992  81.4949978 -11.9219986
 141.7459992  80.8459978 -11.0539986 142.0681467  81.0403749 -11.8381425
 142.5259992  81.9769978  -2.7839986 142.6449992  82.5509978  -2.0269986
 143.1809992  81.2889978  -2.6689986 142.6308684  81.9625194  -2.6648326
 142.8739992  78.0719978 -11.0299986 142.5269992  78.6889978 -10.3859986
 143.5329992  78.5729978 -11.5119986 142.9155090  78.2241575 -11.0069319
 139.7969992  92.4369978 -13.9589986 139.9579992  93.2369978 -14.4589986
 139.5999992  92.7439978 -13.0739986 139.7923906  92.5878678 -13.9077667
 138.5319992  79.1349978 -14.3429986 138.4479992  80.0229978 -13.9959986
 139.4219992  78.8699978 -14.1109986 138.6408163  79.2207179 -14.2641404
 136.7899992  89.5619978 -15.2829986 137.3819992  90.2619978 -15.0059986
 137.2489992  89.1289978 -16.0019986 136.9331652  89.5992675 -15.3423467
 135.1059992  82.2269978 -16.1669986 135.0609992  83.1659978 -15.9879986
 134.2179992  81.9909978 -16.4359986 134.9798166  82.3236687 -16.1788476
 135.9139992  77.0079978  -7.4929986 135.6849992  77.0669978  -8.4209986
 135.4719992  76.2169978  -7.1869986 135.8228801  76.9090540  -7.5785271
 134.8449992  90.9489978 -11.3329986 134.0119992  91.4209978 -11.3059986
 135.3899992  91.4589978 -11.9319986 134.8047857  91.0824791 -11.4102858
 134.1329992  93.5609978  -0.0029986 134.6729992  93.3449978   0.7570014
 133.6519992  92.7559978  -0.1929986 134.1419219  93.4225156   0.0754282
 138.7299992  92.4809978   1.6170014 139.4979992  92.0219978   1.9580014
 138.7089992  92.2549978   0.6870014 138.8322135  92.3876668   1.5379491
 142.8219992  91.9889978 -17.0069986 142.1779992  91.3579978 -16.6859986
 143.5839992  91.4579978 -17.2389986 142.8368058  91.8307902 -16.9943962
 145.3069992  90.8609978   0.3460014 144.9559992  90.0039978   0.5900014
 146.0329992  91.0029978   0.9530014 145.3571895  90.7631351   0.4613770
 134.0399992  87.3719978   0.9510014 134.1839992  86.4699978   0.6650014
 133.2679992  87.6579978   0.4640014 133.9552733  87.2871798   0.8459532
 138.3809992  87.7149978 -16.9159986 138.4459992  86.9209978 -16.3859986
 139.0339992  87.5969978 -17.6059986 138.4781605  87.5903430 -16.9367003
 140.6949992  87.3409978   0.3840014 140.3669992  87.6119978  -0.4729986
 140.8469992  86.3999978   0.2960014 140.6706412  87.2509046   0.2547822
 134.8729992  84.5719978   0.3710014 135.2809992  83.7149978   0.2500014
 134.6119992  84.5859978   1.2920014 134.8936016  84.4565119   0.4789192
 139.5309992  85.6879978 -14.6099986 139.0709992  85.2039978 -13.9249986
 139.7859992  85.0189978 -15.2459986 139.5024856  85.5313669 -14.6021603
 138.8199992  83.5809978  -2.2539986 138.2009992  84.2549978  -1.9739986
 139.1639992  83.9019978  -3.0879986 138.7817123  83.7166887  -2.3283612
 140.6019992  83.9309978 -16.3479986 140.4209992  83.7759978 -17.2749986
 141.5519992  84.0389978 -16.3029986 140.7056566  83.9243669 -16.4689071
 143.8389992  86.0519978   1.0230014 144.7929992  86.1359978   0.9960014
 143.6789992  85.3399978   1.6430014 143.9477182  85.9672842   1.1030733
 139.1589992  80.9359978  -1.1719986 139.3089992  80.2069978  -1.7739986
 139.1609992  81.7129978  -1.7309986 139.1797967  80.9412708  -1.3299459
 139.5719992  79.3049978  -3.6789986 140.1069992  79.7569978  -4.3309986
 138.7189992  79.1969978  -4.1019986 139.5300374  79.3522665  -3.8253290
 141.1529992  84.7449978  -3.4399986 141.9039992  84.5889978  -4.0129986
 140.8139992  85.5969978  -3.7149986 141.2099587  84.8388138  -3.5555922
 145.5689992  82.5599978   1.5890014 145.7609992  81.6289978   1.4770014
 146.4269992  82.9849978   1.5780014 145.7112182  82.4900070   1.5721862
 137.6379992  82.1339978   0.7390014 136.8699992  81.6009978   0.5290014
 138.3159992  81.8239978   0.1400014 137.6247235  82.0191754   0.6292413
 140.3769992  76.7619978  -3.2479986 140.2789992  77.7079978  -3.3529986
 139.6349992  76.3889978  -3.7239986 140.2632534  76.8411773  -3.3267400
 141.6409992  81.0829978   0.3160014 141.4059992  80.8639978   1.2170014
 140.8579992  80.8759978  -0.1939986 141.5029095  81.0249892   0.3705353
 144.3569992  80.2109978  -0.6089986 143.4089992  80.2429978  -0.4769986
 144.6689992  79.5849978   0.0450014 144.2695293  80.1307923  -0.5025852
 135.8179992  80.0539978   0.4440014 136.0299992  79.3479978  -0.1659986
 135.7069992  79.6169978   1.2880014 135.8320269  79.8981921   0.4745873
 140.5989992  76.0559978  -0.5769986 141.3109992  75.4159978  -0.5909986
 140.4979992  76.3219978  -1.4899986 140.6827387  76.0044330  -0.7024437
 140.9529992  77.7379978   1.4770014 140.8209992  77.2629978   0.6570014
 140.3529992  78.4829978   1.4220014 140.8539070  77.7735789   1.3573251
 140.4989992  94.6209978 -15.3469986 141.4319992  94.7789978 -15.2029986
 140.2349992  95.2969978 -15.9719986 140.5909911  94.7339373 -15.4117278
 134.0669992  89.2579978 -15.8639986 134.9809992  89.3369978 -15.5909986
 134.0749992  88.5709978 -16.5299986 134.1930655  89.1759205 -15.9167083
 132.7159992  94.6509978 -10.7869986 132.0689992  94.1889978 -11.3189986
 133.0709992  93.9789978 -10.2039986 132.6753741  94.4969774 -10.7810825
 133.5859992  92.7309978  -8.9819986 133.2519992  91.8509978  -8.8099986
 133.8089992  93.0769978  -8.1169986 133.5703721  92.6571938  -8.8415832
 133.6659992  85.8069978  -6.5299986 133.8509992  85.7249978  -7.4659986
 134.5159992  85.6829978  -6.1069986 133.8060928  85.7790463  -6.6007107
 133.2639992  81.0769978  -0.3899986 134.1829992  80.9549978  -0.1529986
 132.8139992  80.3269978   0.0000014 133.3290087  80.9589608  -0.3048590
 134.4849992  79.3899978  -7.4979986 134.9299992  78.5979978  -7.1959986
 134.9509992  80.1059978  -7.0679986 134.6089718  79.3784534  -7.3984735
 132.7889992  82.3889978  -6.4289986 133.2809992  82.1679978  -7.2199986
 133.1509992  83.2289978  -6.1479986 132.9052923  82.4723468  -6.4992593
 133.1029992  78.6469978 -12.3749986 132.1779992  78.8549978 -12.5039986
 133.5569992  79.1309978 -13.0649986 133.0376298  78.7409299 -12.4859549
 133.0659992  77.3849978  -4.0309986 132.4009992  77.1389978  -3.3879986
 132.6229992  78.0069978  -4.6079986 132.9151168  77.4354214  -4.0210152
 135.2579992  90.5599978   0.1140014 134.4369992  90.7349978  -0.3469986
 135.0059992  90.4869978   1.0340014 135.1115594  90.5740717   0.1753611
 138.2119992  91.5339978  -3.6279986 137.7879992  92.3439978  -3.9099986
 139.1169992  91.6199978  -3.9299986 138.2762138  91.6564160  -3.7073585
 142.5239992  92.9329978  -0.6679986 142.7079992  92.5999978   0.2100014
 143.3699992  93.2429978  -0.9899986 142.6636484  92.9292979  -0.5912383
 144.8689992  94.2189978  -1.4239986 145.5459992  93.5859978  -1.6639986
 145.1899992  94.6199978  -0.6169986 145.0051323  94.1865691  -1.3476842
 135.6139992  94.7909978  -3.5799986 134.8939992  95.2309978  -4.0309986
 135.2489992  94.5399978  -2.7319986 135.4659643  94.8173369  -3.5270871
 138.0809992  94.3909978  -4.5499986 137.2169992  94.4629978  -4.1459986
 138.0259992  94.9379978  -5.3339986 137.9551942  94.4747849  -4.6006000
 142.7919992  94.2789978  -5.3749986 142.3349992  94.8079978  -6.0289986
 142.9549992  94.8819978  -4.6499986 142.7514960  94.4329280  -5.3664726
 145.1199992  93.1569978  -4.4299986 144.2149992  93.3219978  -4.6959986
 145.5479992  94.0099978  -4.4959986 145.0541537  93.2949134  -4.4752905
 135.0289992  93.4139978  -6.6699986 135.0109992  92.9879978  -5.8129986
 135.8339992  93.0949978  -7.0789986 135.1352875  93.3126435  -6.6080485
 137.1699992  92.1239978  -8.0149986 136.9509992  91.2069978  -7.8449986
 137.9939992  92.2639978  -7.5489986 137.2514702  92.0175511  -7.9287473
 139.7069992  92.5939978  -7.1659986 139.9199992  91.7059978  -7.4529986
 139.7719992  92.5589978  -6.2119986 139.7449149  92.4678326  -7.0762631
 143.2159992  78.2579978  -8.0219986 142.5419992  77.6279978  -7.7659986
 143.7799992  77.7739978  -8.6249986 143.2000384  78.1063708  -8.0684980
 135.5429992  76.8919978 -10.1999986 134.7659992  76.6569978 -10.7069986
 136.0729992  76.0949978 -10.1909986 135.5083451  76.7521268 -10.2681373
 134.3789992  76.6899978 -14.3959986 134.8179992  77.3009978 -14.9879986
 133.7449992  77.2279978 -13.9219986 134.3533859  76.8464064 -14.4129695
 140.1219992  76.8179978 -10.3869986 140.9959992  77.2069978 -10.4159986
 139.9859992  76.6029978  -9.4639986 140.2231953  76.8421643 -10.2662383
 134.2799992  92.6379978 -13.4989986 133.5949992  92.5999978 -14.1659986
 134.2839992  93.5509978 -13.2109986 134.1867621  92.7561924 -13.5513874
 136.2399992  78.6059978 -15.9539986 136.7309992  77.9759978 -16.4809986
 136.8629992  78.9019978 -15.2909986 136.3915304  78.5597376 -15.9365060
 141.2659992  78.8989978 -13.4969986 141.4439992  78.2519978 -12.8139986
 141.2119992  79.7329978 -13.0299986 141.2830678  78.9231604 -13.3403699
 143.1439992  93.8469978 -15.1009986 144.0099992  94.2139978 -15.2789986
 142.8979992  93.4079978 -15.9149986 143.2292097  93.8378525 -15.2353981
 135.4999992  77.4059978  -0.6819986 135.1339992  76.6399978  -0.2399986
 136.4129992  77.4349978  -0.3959986 135.5733172  77.3050324  -0.5828110
 137.4729992  76.7559978   0.8530014 138.3719992  76.4819978   0.6690014
 137.0869992  76.0139978   1.3180014 137.5437307  76.6182196   0.8907098
 136.0979992  93.5579978 -16.4739986 135.8299992  93.8439978 -15.5999986
 136.8689992  93.0119978 -16.3209986 136.1655926  93.5232779 -16.3338795
  12.6289992 104.9039978 -10.2409986  12.7179992 105.8479978 -10.3729986
  11.9909992 104.6289978 -10.8989986  12.5549062 104.9959812 -10.3480359
  11.5619992 104.1589978  -6.8219986  11.5239992 103.5129978  -6.1169986
  11.2399992 103.6919978  -7.5929986  11.5132679 104.0074276  -6.8297079
   3.9299992 103.7729978  -5.2289986   3.9719992 103.1479978  -4.5059986
   4.6329992 104.3969978  -5.0469986   4.0307345 103.7717873  -5.1054727
  15.2679992 107.0979978  -8.5209986  14.8269992 106.3779978  -8.0699986
  15.2549992 107.8189978  -7.8909986  15.2059215 107.0969291  -8.3741895
   4.8539992 108.2229978  -6.6939986   4.4839992 107.4209978  -7.0639986
   5.7949992 108.0549978  -6.6479986   4.9305984 108.0904638  -6.7384397
   1.4639992 101.8829978 -11.3019986   1.0159992 102.7289978 -11.3199986
   0.9029992 101.3039978 -11.8169986   1.3268546 101.9203993 -11.3741109
   2.1739992 104.0449978  -9.1759986   2.3879992 103.2749978  -8.6479986
   2.9119992 104.1349978  -9.7789986   2.3030200 103.9518587  -9.1852964
  12.3799992 112.2019978  -8.3089986  12.9989992 111.5259978  -8.5819986
  12.1709992 111.9839978  -7.3999986  12.4366056 112.0798869  -8.2236033
   9.9509992 106.5909978  -6.4159986  10.2549992 105.9049978  -7.0109986
  10.6729992 106.7099978  -5.7979986  10.0901240 106.5132314  -6.4139041
  18.6139992  98.1929978  -5.5559986  18.6639992  98.8029978  -4.8199986
  19.0399992  98.6539978  -6.2789986  18.6784108  98.3387709  -5.5529888
  13.0919992 100.9849978  -6.0889986  13.2349992 100.0389978  -6.0689986
  12.9859992 101.1919978  -7.0169986  13.0972403 100.8834797  -6.2117761
   6.2469992  99.0869978  -8.8159986   6.2899992  99.9469978  -9.2349986
   5.7889992  98.5349978  -9.4499986   6.1909871  99.1299245  -8.9589239
  13.9689992  99.2179978 -10.4149986  14.6159992  98.8889978  -9.7909986
  14.4789992  99.7349978 -11.0379986  14.1264351  99.2429067 -10.4138963
   2.8669992 101.4839978  -8.0539986   3.5209992 100.9339978  -7.6219986
   2.8909992 101.2099978  -8.9709986   2.9597199 101.3717167  -8.1188332
   8.0239992 103.0339978  -8.8389986   8.6399992 102.5069978  -8.3299986
   7.4369992 102.3939978  -9.2429986   8.0290154 102.8753954  -8.8239055
  19.0059992  99.6709978  -3.3199986  18.3169992 100.3289978  -3.4149986
  19.0209992  99.4729978  -2.3829986  18.9137756  99.7342603  -3.2064188
   5.0569992  98.0049978  -4.7419986   4.8379992  98.5349978  -5.5089986
   4.3889992  98.2309978  -4.0949986   4.9366975  98.1080967  -4.7594860
  12.4259992 107.5049978 -11.1979986  12.1309992 107.1819978 -12.0499986
  12.1019992 108.4049978 -11.1569986  12.3418460 107.5824464 -11.3090286
   7.6259992 105.6799978  -4.4549986   6.8859992 106.2789978  -4.3509986
   8.3399992 106.2339978  -4.7699986   7.6213500 105.8367829  -4.4833629
  15.7329992  98.5089978  -8.4349986  15.5179992  97.7429978  -7.9019986
  16.3889992  98.9809978  -7.9219986  15.7922673  98.4680728  -8.2928010
   4.6509992  99.8969978  -6.7899986   5.2649992 100.5299978  -6.4169986
   5.1629992  99.4249978  -7.4459986   4.8041962  99.9197249  -6.8277065
   6.0339992 107.6449978  -3.6679986   6.0279992 108.5239978  -4.0459986
   5.1799992 107.5609978  -3.2429986   5.9177925 107.7539535  -3.6623113
   2.1549992 107.3159978 -12.8859986   1.8829992 107.5449978 -13.7739986
   2.1999992 108.1529978 -12.4249986   2.1238097 107.4606163 -12.9453317
  15.7799992 108.9369978  -6.1729986  14.8379992 108.9959978  -6.0109986
  16.0559992 109.8429978  -6.3099986  15.6885865 109.0675288  -6.1693808
  16.0799992  97.2239978  -4.7559986  15.3439992  97.8339978  -4.7929986
  16.7639992  97.6389978  -5.2819986  16.0715367  97.3637551  -4.8321826
   9.0839992  95.3099978  -7.2899986   8.9659992  94.3619978  -7.3439986
   8.2289992  95.6429978  -7.0169986   8.9522805  95.2252202  -7.2604921
  14.0319992 110.7179978  -9.5479986  14.4569992 110.0109978 -10.0329986
  14.3489992 111.5199978  -9.9649986  14.1330266 110.7295190  -9.6707521
  15.1919992 108.6189978 -11.0389986  14.9339992 107.9289978 -11.6509986
  15.2629992 108.1759978 -10.1939986  15.1663050 108.4646814 -11.0084379
  16.8779992 107.1859978  -2.5619986  17.0169992 106.5939978  -3.3009986
  17.0449992 108.0589978  -2.9179986  16.9196193 107.2228896  -2.7113789
  11.3499992 104.1479978 -12.7889986  10.6389992 104.6829978 -13.1409986
  12.0409992 104.2029978 -13.4489986  11.3460751 104.2286777 -12.9264142
  11.4039992 102.6049978 -15.7509986  12.1049992 102.6279978 -15.0989986
  11.7059992 101.9769978 -16.4069986  11.5408202 102.5232212 -15.7504391
  18.7189992 103.5259978  -4.4959986  18.0669992 104.2199978  -4.4069986
  19.1849992 103.7359978  -5.3059986  18.6925937 103.6495019  -4.5932467
  14.7559992 104.3569978 -11.8379986  14.0239992 104.5859978 -11.2639986
  15.2029992 103.6439978 -11.3829986  14.7163963 104.2918729 -11.6980055
  14.6529992 102.5319978  -2.7699986  14.7329992 103.2949978  -2.1979986
  14.0519992 102.8109978  -3.4599986  14.5826547 102.6742457  -2.7849953
   6.4009992 104.9879978  -9.9549986   6.0709992 104.6169978 -10.7729986
   6.9899992 104.3169978  -9.6079986   6.4353970 104.8466063 -10.0200596
   7.7679992 108.4159978  -7.2739986   7.6729992 107.8369978  -8.0299986
   8.4969992 108.0449978  -6.7779986   7.8536011 108.2865561  -7.3103972
   6.7679992 103.7559978  -6.3219986   7.3329992 103.8779978  -7.0839986
   7.0869992 104.3939978  -5.6829986   6.8884166 103.8588791  -6.3399652
  13.0769992 109.2599978  -5.5879986  12.8369992 109.9219978  -4.9399986
  12.8789992 108.4249978  -5.1629986  13.0173826 109.2378115  -5.4418434
   7.6479992 108.1559978  -1.6039986   7.3369992 108.9379978  -1.1489986
   6.9979992 108.0029978  -2.2899986   7.5175538 108.2424087  -1.6344102
  13.6269992 103.5199978 -14.1519986  14.2059992 103.6699978 -13.4059986
  14.0409992 103.9899978 -14.8759986  13.7623358 103.6040955 -14.1476047
   4.5679992 104.3539978  -2.3759986   4.6379992 105.0049978  -1.6769986
   3.6769992 104.4569978  -2.7109986   4.4571690 104.4569249  -2.3256957
  11.3529992 110.2559978 -10.7169986  11.8269992 110.5519978  -9.9399986
  10.7899992 110.9949978 -10.9499986  11.3417890 110.3963036 -10.6421899
   5.8869992 110.2269978  -0.8409986   5.8949992 110.0909978  -1.7879986
   4.9709992 110.1099978  -0.5889986   5.7642528 110.1925463  -0.9366757
  17.3259992  95.2699978 -14.3389986  16.4259992  95.4089978 -14.0439986
  17.5779992  96.1009978 -14.7409986  17.2368683  95.4014055 -14.3529768
   5.3919992 104.0569978 -12.3659986   5.0999992 104.8249978 -12.8569986
   4.7169992 103.3979978 -12.5289986   5.2608497 104.0729745 -12.4551740
  18.5149992 109.6359978 -15.9629986  18.5879992 110.5749978 -15.7929986
  19.4199992 109.3309978 -16.0189986  18.6474170 109.7233282 -15.9472937
   1.4849992 106.4199978  -3.5509986   0.9829992 106.3919978  -4.3659986
   1.4899992 105.5149978  -3.2409986   1.4169832 106.2937486  -3.6205879
   1.2349992 109.2009978  -6.6669986   2.1809992 109.0559978  -6.6859986
   1.1219992 109.9849978  -6.1299986   1.3493578 109.2871697  -6.5969683
  19.4329992 109.8669978  -0.9839986  19.3829992 108.9109978  -1.0219986
  18.6059992 110.1339978  -0.5829986  19.3143831 109.7724680  -0.9349879
  10.4109992 109.4409978  -2.1079986  10.4989992 110.2669978  -1.6329986
   9.5479992 109.1109978  -1.8589986  10.3063357 109.5095468  -2.0092347
  10.8259992 113.2129978 -12.3019986  10.7499992 113.0919978 -13.2489986
  10.8579992 114.1619978 -12.1839986  10.8199380 113.3247677 -12.4154819
   4.4789992 112.0019978 -10.5209986   4.6309992 111.6539978  -9.6429986
   3.6279992 111.6449978 -10.7769986   4.3848344 111.9060879 -10.4353132
  13.9269992 112.3669978 -15.2999986  14.3019992 111.6229978 -15.7709986
  13.9319992 112.0969978 -14.3819986  13.9790098 112.2286392 -15.2403371
  13.5959992 112.2929978 -12.5509986  12.6609992 112.3929978 -12.3719986
  13.8759992 111.5829978 -11.9719986  13.5059471 112.2107933 -12.4483305
  16.5849992 101.3599978  -0.5039986  16.1769992 101.8399978  -1.2249986
  16.6249992 100.4539978  -0.8119986  16.5346221 101.3032449  -0.6441733
   3.7339992 107.7439978  -2.5079986   3.9499992 107.3819978  -1.6479986
   2.8779992 107.3689978  -2.7169986   3.6478810 107.6438837  -2.4187320
   6.3519992  96.2139978  -6.5119986   5.4909992  96.1269978  -6.9199986
   6.3299992  97.0699978  -6.0839986   6.2310491  96.3178003  -6.5100418
  11.0149992  95.9359978  -3.1369986  11.4349992  95.5209978  -2.3839986
  10.0819992  95.7569978  -3.0199986  10.9463736  95.8549910  -3.0181032
  14.3419992  99.6909978  -2.2839986  13.8279992  99.5659978  -1.4859986
  14.1859992 100.6039978  -2.5279986  14.2506967  99.7972123  -2.2079063
  15.1039992 104.5519978 -16.5229986  15.1459992 104.3299978 -17.4529986
  15.9529992 104.9509978 -16.3329986  15.2245253 104.5755498 -16.6246178
  10.6769992  98.4279978 -15.8519986  10.4229992  98.4469978 -14.9299986
  10.4199992  97.5569978 -16.1539986  10.6074508  98.3128280 -15.7665197
   6.4429992 101.1789978  -5.4169986   5.8019992 101.1389978  -4.7079986
   6.4809992 102.1059978  -5.6549986   6.3603010 101.2987668  -5.3520054
   6.4399992 101.3999978 -10.5049986   5.5479992 101.0599978 -10.5639986
   6.8909992 101.0229978 -11.2609986   6.3787642 101.3024910 -10.6152274
  11.9759992 101.8159978 -11.6879986  11.5669992 102.6309978 -11.9799986
  12.6959992 101.6759978 -12.3019986  12.0174439 101.9085372 -11.8109885
  11.0779992 101.9919978  -0.1999986  10.5149992 101.2869978   0.1210014
  11.9039992 101.8709978   0.2680014  11.1126674 101.8792165  -0.0928249
  12.9809992 101.2619978  -8.8739986  12.7849992 101.8679978  -9.5889986
  13.1619992 100.4289978  -9.3079986  12.9786584 101.2322513  -9.0305788
   4.1929992 101.4999978  -3.5499986   4.1549992 101.8999978  -2.6809986
   3.7029992 100.6829978  -3.4599986   4.1215330 101.4442674  -3.4188711
   7.5589992  98.8739978 -16.7509986   7.1279992  98.4289978 -16.0219986
   6.8409992  99.2449978 -17.2639986   7.4029176  98.8632051 -16.7205070
   0.8019992  98.6159978  -9.6989986   1.4319992  98.5869978  -8.9799986
   1.2509992  98.1909978 -10.4299986   0.9490835  98.5545660  -9.6992341
   2.0759992  99.3619978 -14.2749986   2.5499992  99.9529978 -14.8599986
   1.3579992  99.8919978 -13.9279986   2.0438640  99.5145511 -14.3082031
  12.2449992 102.8999978  -4.2029986  12.5679992 102.2689978  -4.8459986
  11.8039992 102.3659978  -3.5419986  12.2296379 102.7413468  -4.2017418
   9.0219992  98.8279978  -9.4189986   8.1109992  98.8849978  -9.1299986
   9.5269992  98.7679978  -8.6079986   8.9656873  98.8276826  -9.2698793
   3.8499992 100.4569978 -10.5919986   2.9609992 100.5559978 -10.9319986
   4.1469992  99.6149978 -10.9379986   3.7684177 100.3567687 -10.6853060
   7.5029992 100.4569978 -12.9349986   8.4349992 100.5859978 -12.7569986
   7.2879992 101.1259978 -13.5849986   7.6014472 100.5650806 -12.9985109
  13.4269992  98.0629978  -6.1539986  12.7499992  98.1939978  -5.4909986
  12.9419992  97.9079978  -6.9649986  13.2687405  98.0599947  -6.1727830
   6.1769992 101.6509978 -15.3689986   5.6349992 101.2719978 -16.0599986
   7.0109992 101.8459978 -15.7969986   6.2154390 101.6254079 -15.5215608
  16.7149992 113.7339978   0.1220014  16.9139992 114.1579978  -0.7119986
  17.3699992 114.0779978   0.7290014  16.8308522 113.8386301   0.0897852
   4.3129992 106.2079978  -0.2699986   5.0449992 106.4629978   0.2920014
   3.5319992 106.4129978   0.2460014   4.3076526 106.2705450  -0.1234824
  10.3419992 101.6149978  -7.5319986  10.9059992 101.0689978  -8.0789986
  10.1939992 101.0939978  -6.7429986  10.3993037 101.4696787  -7.5002771
   5.3439992  97.7519978 -11.1129986   5.0269992  96.8489978 -11.1489986
   6.1249992  97.7539978 -11.6659986   5.4062431  97.6287797 -11.1926898
   8.9679992 100.0039978  -5.1179986   8.1329992 100.4579978  -5.0069986
   9.4919992 100.2799978  -4.3659986   8.9246072 100.1033948  -5.0011864
   9.5129992 106.2169978 -13.4329986   8.7679992 105.7089978 -13.7549986
   9.3779992 106.2659978 -12.4869986   9.3928963 106.1541731 -13.3491174
  16.6629992 105.3499978  -4.6459986  17.3039992 105.8059978  -5.1899986
  15.8319992 105.4629978  -5.1089986  16.6385287 105.4276921  -4.7830113
  13.4099992  99.0309978 -15.2339986  12.4719992  99.1419978 -15.3849986
  13.7079992  99.8869978 -14.9269986  13.3216318  99.1620158 -15.2131855
  11.0319992 106.4009978  -2.1959986  10.6859992 106.0189978  -1.3889986
  10.8319992 107.3339978  -2.1249986  10.9575987 106.4749002  -2.0759539
  14.1289992 100.8979978 -13.5729986  15.0209992 100.7599978 -13.2539986
  14.1849992 101.6889978 -14.1099986  14.2587325 100.9859918 -13.6018783
   4.6369992 105.5119978  -7.6629986   5.3819992 105.5089978  -8.2649986
   4.7149992 104.6879978  -7.1819986   4.7493365 105.4002384  -7.6802570
  11.6379992 107.6749978 -14.4079986  11.3429992 108.5019978 -14.0259986
  10.9349992 107.0559978 -14.2109986  11.5026379 107.7044171 -14.3291346
   1.6449992 103.9719978  -2.3479986   1.8679992 103.5539978  -1.5169986
   1.0429992 103.3599978  -2.7709986   1.5941513 103.8319606  -2.2913260
   8.6619992 103.4889978  -0.1349986   8.3659992 103.3239978  -1.0309986
   9.5929992 103.2689978  -0.1459986   8.7474401 103.4366879  -0.2589794
  13.2819992 108.8629978  -2.2459986  12.3819992 109.0459978  -2.5129986
  13.3159992 109.1219978  -1.3249986  13.1633748 108.9230554  -2.1580836
  19.0139992 101.1069978 -13.8779986  18.4589992 100.7109978 -14.5509986
  19.1139992 102.0179978 -14.1559986  18.9516816 101.1759505 -14.0074967
  18.9769992 106.9079978  -1.0409986  18.1259992 107.1459978  -1.4089986
  19.5669992 106.8909978  -1.7939986  18.9403812 106.9382524  -1.1931547
  17.3089992 109.8929978 -13.4129986  16.9359992 109.0679978 -13.1039986
  17.5859992 109.7099978 -14.3109986  17.2953463 109.7552569 -13.4920475
  14.4689992 104.7009978  -6.3919986  13.5409992 104.4699978  -6.4189986
  14.9199992 103.9239978  -6.7219986  14.4028165 104.5642774  -6.4403210
   7.0119992 109.0299978 -10.2589986   7.5399992 109.8029978 -10.4589986
   6.1319992 109.2539978 -10.5609986   6.9653435 109.1662700 -10.3272690
   2.7669992 103.8919978 -15.6719986   3.3829992 104.5189978 -15.2919986
   1.9049992 104.2079978 -15.3999986   2.7347678 104.0204412 -15.5832791
   8.4399992 106.6929978 -10.6829986   8.1989992 107.6179978 -10.6409986
   7.6989992 106.2339978 -10.2859986   8.3069206 106.7575915 -10.6236231
   8.9539992 110.8419978  -4.3679986   9.3169992 111.6959978  -4.6009986
   9.4859992 110.5499978  -3.6269986   9.0755141 110.9193895  -4.2997903
   7.1229992 111.7139978 -11.1369986   6.1729992 111.8199978 -11.0859986
   7.4749992 112.5349978 -10.7929986   7.0405472 111.8394923 -11.0835148
  12.4979992 106.9409978  -4.6669986  12.0729992 106.7129978  -3.8409986
  13.0789992 106.2019978  -4.8489986  12.5183395 106.8099545  -4.5785586
  14.7009992 107.8699978 -15.5929986  15.0549992 107.4899978 -14.7889986
  13.7529992 107.7759978 -15.5059986  14.6212298 107.8052452 -15.4711313
  15.1569992 111.4929978  -2.1979986  14.5549992 110.9369978  -2.6929986
  15.4379992 112.1599978  -2.8239986  15.1125757 111.5070744  -2.3504325
  19.2049992 112.3489978 -15.3919986  19.9489992 112.9349978 -15.5319986
  18.5109992 112.9179978 -15.0589986  19.2129809 112.5060818 -15.3661410
   3.2789992  98.7259978  -2.7899986   2.3869992  99.0639978  -2.8579986
   3.1809992  97.8699978  -2.3719986   3.1434475  98.6566543  -2.7428296
  15.5669992 106.5419978 -13.3659986  15.2899992 105.8139978 -12.8099986
  16.4949992 106.6609978 -13.1609986  15.6544499 106.4584213 -13.2621956
   2.9309992 110.5299978  -4.3549986   3.1479992 109.5979978  -4.3859986
   3.1769992 110.8049978  -3.4719986   2.9939809 110.4395686  -4.2398309
   7.7289992 108.5519978 -14.6899986   7.8759992 108.0319978 -13.8999986
   7.7259992 109.4589978 -14.3829986   7.7487102 108.6033953 -14.5404075
   4.1819992 105.8039978 -14.1789986   3.4959992 106.1569978 -13.6119986
   4.7049992 106.5669978 -14.4259986   4.1588402 105.9553901 -14.1348199
  12.0139992  98.4669978  -3.8999986  12.7129992  98.5409978  -3.2499986
  11.6329992  97.6019978  -3.7459986  12.0582097  98.3602389  -3.7902003
  12.7979992  98.1189978 -12.8029986  13.0179992  98.5899978 -13.6069986
  13.3569992  98.5129978 -12.1329986  12.9036731  98.2367287 -12.8224967
  10.4669992 110.2489978 -13.9399986   9.6499992 110.7459978 -13.8879986
  10.9959992 110.7249978 -14.5809986  10.4268125 110.3811989 -14.0194694
   9.9979992  99.8469978 -11.9679986  10.8099992 100.3509978 -11.9219986
   9.7539992  99.7019978 -11.0539986  10.0761467  99.8963749 -11.8381425
  10.5339992 100.8329978  -2.7839986  10.6529992 101.4069978  -2.0269986
  11.1889992 100.1449978  -2.6689986  10.6388684 100.8185194  -2.6648326
  10.8819992  96.9279978 -11.0299986  10.5349992  97.5449978 -10.3859986
  11.5409992  97.4289978 -11.5119986  10.9235090  97.0801575 -11.0069319
   7.8049992 111.2929978 -13.9589986   7.9659992 112.0929978 -14.4589986
   7.6079992 111.5999978 -13.0739986   7.8003906 111.4438678 -13.9077667
   6.5399992  97.9909978 -14.3429986   6.4559992  98.8789978 -13.9959986
   7.4299992  97.7259978 -14.1109986   6.6488163  98.0767179 -14.2641404
  16.7379992  98.7399978  -1.9489986  15.8219992  99.0019978  -2.0359986
  17.0739992  98.7369978  -2.8449986  16.6578499  98.7755163  -2.0821234
  15.3409992 102.4899978  -7.8529986  14.5429992 102.0749978  -8.1809986
  15.7859992 101.7999978  -7.3619986  15.2919684 102.3398628  -7.8314773
   4.7979992 108.4179978 -15.2829986   5.3899992 109.1179978 -15.0059986
   5.2569992 107.9849978 -16.0019986   4.9411652 108.4552675 -15.3423467
   3.1139992 101.0829978 -16.1669986   3.0689992 102.0219978 -15.9879986
   2.2259992 100.8469978 -16.4359986   2.9878166 101.1796687 -16.1788476
  16.4269992 111.7459978  -6.2309986  16.2709992 112.4249978  -6.8879986
  17.3599992 111.8179978  -6.0279986  16.5317387 111.8486390  -6.2934658
   3.9219992  95.8639978  -7.4929986   3.6929992  95.9229978  -8.4209986
   3.4799992  95.0729978  -7.1869986   3.8308801  95.7650540  -7.5785271
   2.8529992 109.8049978 -11.3329986   2.0199992 110.2769978 -11.3059986
   3.3979992 110.3149978 -11.9319986   2.8127857 109.9384791 -11.4102858
   2.1409992 112.4169978  -0.0029986   2.6809992 112.2009978   0.7570014
   1.6599992 111.6119978  -0.1929986   2.1499219 112.2785156   0.0754282
   6.7379992 111.3369978   1.6170014   7.5059992 110.8779978   1.9580014
   6.7169992 111.1109978   0.6870014   6.8402135 111.2436668   1.5379491
  10.8299992 110.8449978 -17.0069986  10.1859992 110.2139978 -16.6859986
  11.5919992 110.3139978 -17.2389986  10.8448058 110.6867902 -16.9943962
  13.3149992 109.7169978   0.3460014  12.9639992 108.8599978   0.5900014
  14.0409992 109.8589978   0.9530014  13.3651895 109.6191351   0.4613770
  15.4349992 110.6619978 -16.7739986  15.7179992 109.8669978 -16.3209986
  16.1739992 110.8949978 -17.3349986  15.5737096 110.5847049 -16.7878896
   2.0479992 106.2279978   0.9510014   2.1919992 105.3259978   0.6650014
   1.2759992 106.5139978   0.4640014   1.9632733 106.1431798   0.8459532
   6.3889992 106.5709978 -16.9159986   6.4539992 105.7769978 -16.3859986
   7.0419992 106.4529978 -17.6059986   6.4861605 106.4463430 -16.9367003
   8.7029992 106.1969978   0.3840014   8.3749992 106.4679978  -0.4729986
   8.8549992 105.2559978   0.2960014   8.6786412 106.1069046   0.2547822
  14.4379992 106.1129978  -2.2329986  15.1829992 106.7019978  -2.3519986
  13.6809992 106.6949978  -2.1689986  14.4375470 106.2722128  -2.2406201
   2.8809992 103.4279978   0.3710014   3.2889992 102.5709978   0.2500014
   2.6199992 103.4419978   1.2920014   2.9016016 103.3125119   0.4789192
   7.5389992 104.5439978 -14.6099986   7.0789992 104.0599978 -13.9249986
   7.7939992 103.8749978 -15.2459986   7.5104856 104.3873669 -14.6021603
   6.8279992 102.4369978  -2.2539986   6.2089992 103.1109978  -1.9739986
   7.1719992 102.7579978  -3.0879986   6.7897123 102.5726887  -2.3283612
   8.6099992 102.7869978 -16.3479986   8.4289992 102.6319978 -17.2749986
   9.5599992 102.8949978 -16.3029986   8.7136566 102.7803669 -16.4689071
  11.8469992 104.9079978   1.0230014  12.8009992 104.9919978   0.9960014
  11.6869992 104.1959978   1.6430014  11.9557182 104.8232842   1.1030733
  17.9999992 105.1409978 -16.9019986  17.7259992 104.7169978 -17.7149986
  18.0389992 106.0729978 -17.1189986  17.9677716 105.2088827 -17.0425714
   7.1669992  99.7919978  -1.1719986   7.3169992  99.0629978  -1.7739986
   7.1689992 100.5689978  -1.7309986   7.1877967  99.7972708  -1.3299459
   7.5799992  98.1609978  -3.6789986   8.1149992  98.6129978  -4.3309986
   6.7269992  98.0529978  -4.1019986   7.5380374  98.2082665  -3.8253290
   9.1609992 103.6009978  -3.4399986   9.9119992 103.4449978  -4.0129986
   8.8219992 104.4529978  -3.7149986   9.2179587 103.6948138  -3.5555922
  13.5769992 101.4159978   1.5890014  13.7689992 100.4849978   1.4770014
  14.4349992 101.8409978   1.5780014  13.7192182 101.3460070   1.5721862
  14.8939992 104.2049978  -0.3339986  14.6119992 104.9139978  -0.9119986
  15.8359992 104.1319978  -0.4849986  14.9827921 104.2922193  -0.4335775
   5.6459992 100.9899978   0.7390014   4.8779992 100.4569978   0.5290014
   6.3239992 100.6799978   0.1400014   5.6327235 100.8751754   0.6292413
   8.3849992  95.6179978  -3.2479986   8.2869992  96.5639978  -3.3529986
   7.6429992  95.2449978  -3.7239986   8.2712534  95.6971773  -3.3267400
   9.6489992  99.9389978   0.3160014   9.4139992  99.7199978   1.2170014
   8.8659992  99.7319978  -0.1939986   9.5109095  99.8809892   0.3705353
  12.3649992  99.0669978  -0.6089986  11.4169992  99.0989978  -0.4769986
  12.6769992  98.4409978   0.0450014  12.2775293  98.9867923  -0.5025852
  13.9989992  97.7009978   1.3960014  13.9019992  96.7489978   1.3910014
  13.6769992  97.9689978   2.2570014  13.9422468  97.6070884   1.5116210
   3.8259992  98.9099978   0.4440014   4.0379992  98.2039978  -0.1659986
   3.7149992  98.4729978   1.2880014   3.8400269  98.7541921   0.4745873
   8.6069992  94.9119978  -0.5769986   9.3189992  94.2719978  -0.5909986
   8.5059992  95.1779978  -1.4899986   8.6907387  94.8604330  -0.7024437
   8.9609992  96.5939978   1.4770014   8.8289992  96.1189978   0.6570014
   8.3609992  97.3389978   1.4220014   8.8619070  96.6295789   1.3573251
   8.5069992 113.4769978 -15.3469986   9.4399992 113.6349978 -15.2029986
   8.2429992 114.1529978 -15.9719986   8.5989911 113.5899373 -15.4117278
   2.0749992 108.1139978 -15.8639986   2.9889992 108.1929978 -15.5909986
   2.0829992 107.4269978 -16.5299986   2.2010655 108.0319205 -15.9167083
   0.7239992 113.5069978 -10.7869986   0.0769992 113.0449978 -11.3189986
   1.0789992 112.8349978 -10.2039986   0.6833741 113.3529774 -10.7810825
   1.5939992 111.5869978  -8.9819986   1.2599992 110.7069978  -8.8099986
   1.8169992 111.9329978  -8.1169986   1.5783721 111.5131938  -8.8415832
  19.1429992 112.3969978  -6.0009986  19.1209992 112.5819978  -5.0619986
  19.8329992 112.9649978  -6.3419986  19.2333439 112.4991887  -5.9185209
  18.7059992 111.9639978  -3.0799986  18.2189992 111.2289978  -3.4509986
  19.2549992 111.5699978  -2.4019986  18.7135247 111.8101057  -3.0391539
  17.1569992 107.7539978   1.5590014  16.2909992 107.6489978   1.9530014
  17.5329992 108.5119978   2.0050014  17.0893401 107.8421708   1.6732620
  18.4579992 106.0099978 -12.9269986  19.3079992 106.4309978 -12.7999986
  18.4629992 105.2699978 -12.3199986  18.5751143 105.9676094 -12.8275250
  18.8519992 104.0639978 -11.1039986  18.1259992 103.5839978 -10.7059986
  19.4339992 104.2689978 -10.3709986  18.8312730 104.0260184 -10.9505851
  18.6109992 106.8489978  -6.1559986  19.4449992 106.4709978  -6.4369986
  18.7229992 107.7919978  -6.2749986  18.7401917 106.9247943  -6.2105139
  17.0979992 109.7269978  -3.8489986  16.4499992 110.0519978  -3.2239986
  16.5799992 109.2859978  -4.5229986  16.9394196 109.7118651  -3.8545848
  19.1209992 103.9649978 -14.7129986  18.5989992 104.3209978 -15.4309986
  19.0879992 104.6399978 -14.0339986  19.0450129 104.1049598 -14.7196645
  17.4699992 101.2039978 -16.1619986  17.5659992 101.8709978 -16.8419986
  17.3299992 100.3889978 -16.6429986  17.4642040 101.1850671 -16.3201622
  16.6389992 102.5849978 -10.5409986  16.4889992 101.6399978 -10.5609986
  16.2849992 102.8659978  -9.6969986  16.5706351 102.4936644 -10.4296780
   1.6739992 104.6629978  -6.5299986   1.8589992 104.5809978  -7.4659986
   2.5239992 104.5389978  -6.1069986   1.8140928 104.6350463  -6.6007107
  17.4949992 104.5549978  -0.9019986  18.0779992 103.8199978  -0.7099986
  18.0589992 105.3269978  -0.8549986  17.6509781 104.5588145  -0.8693836
  18.9919992 102.4579978  -0.2169986  18.1289992 102.0789978  -0.3829986
  19.5959992 101.7189978  -0.2919986  18.9556085 102.3063223  -0.2498305
  16.7169992  98.6119978 -17.0439986  17.3279992  98.2409978 -16.4069986
  15.8799992  98.1909978 -16.8479986  16.6874947  98.5042756 -16.9302748
  16.3499992 100.1669978 -12.0779986  16.6289992  99.2599978 -11.9539986
  17.1089992 100.6009978 -12.4669986  16.4908619 100.1014502 -12.1136205
  16.9609992 100.7489978  -6.6419986  17.8939992 100.9609978  -6.6769986
  16.7259992 100.8499978  -5.7199986  17.0569517 100.7916833  -6.5220870
  16.9909992 101.4859978  -3.8659986  16.1479992 101.7539978  -3.4999986
  17.4329992 102.3079978  -4.0769986  16.9354138 101.6338273  -3.8444482
   1.2719992  99.9329978  -0.3899986   2.1909992  99.8109978  -0.1529986
   0.8219992  99.1829978   0.0000014   1.3370087  99.8149608  -0.3048590
  19.2739992  95.4659978   1.4870014  19.6229992  94.8119978   0.8820014
  19.4209992  96.3029978   1.0470014  19.3416824  95.4896024   1.3446304
  16.9629992  97.4299978 -12.0299986  17.1449992  96.9809978 -11.2049986
  16.3629992  96.8459978 -12.4939986  16.9068187  97.2895552 -11.9797261
   2.4929992  98.2459978  -7.4979986   2.9379992  97.4539978  -7.1959986
   2.9589992  98.9619978  -7.0679986   2.6169718  98.2344534  -7.3984735
   0.7969992 101.2449978  -6.4289986   1.2889992 101.0239978  -7.2199986
   1.1589992 102.0849978  -6.1479986   0.9132923 101.3283468  -6.4992593
  18.7929992  97.5749978  -0.1639986  17.8759992  97.8459978  -0.1989986
  18.9159992  97.0399978  -0.9479986  18.6839672  97.5397885  -0.2748138
  18.8299992  97.4979978 -15.5019986  19.2419992  96.7769978 -15.9769986
  19.5109992  98.1669978 -15.4439986  18.9785536  97.4897766 -15.5591976
   1.1109992  97.5029978 -12.3749986   0.1859992  97.7109978 -12.5039986
   1.5649992  97.9869978 -13.0649986   1.0456298  97.5969299 -12.4859549
  15.8809992 112.4869978 -10.4289986  16.5339992 112.1389978 -11.0369986
  16.3919992 112.9749978  -9.7829986  16.0392777 112.5053815 -10.4247953
   1.0739992  96.2409978  -4.0309986   0.4089992  95.9949978  -3.3879986
   0.6309992  96.8629978  -4.6079986   0.9231168  96.2914214  -4.0210152
   3.2659992 109.4159978   0.1140014   2.4449992 109.5909978  -0.3469986
   3.0139992 109.3429978   1.0340014   3.1195594 109.4300717   0.1753611
   6.2199992 110.3899978  -3.6279986   5.7959992 111.1999978  -3.9099986
   7.1249992 110.4759978  -3.9299986   6.2842138 110.5124160  -3.7073585
  10.5319992 111.7889978  -0.6679986  10.7159992 111.4559978   0.2100014
  11.3779992 112.0989978  -0.9899986  10.6716484 111.7852979  -0.5912383
  12.8769992 113.0749978  -1.4239986  13.5539992 112.4419978  -1.6639986
  13.1979992 113.4759978  -0.6169986  13.0131323 113.0425691  -1.3476842
  17.7939992  95.6649978  -2.3449986  16.9809992  95.9899978  -2.7319986
  18.0269992  94.9039978  -2.8779986  17.7141347  95.6066880  -2.4700159
   3.6219992 113.6469978  -3.5799986   2.9019992 114.0869978  -4.0309986
   3.2569992 113.3959978  -2.7319986   3.4739643 113.6733369  -3.5270871
   6.0889992 113.2469978  -4.5499986   5.2249992 113.3189978  -4.1459986
   6.0339992 113.7939978  -5.3339986   5.9631942 113.3307849  -4.6006000
  10.7999992 113.1349978  -5.3749986  10.3429992 113.6639978  -6.0289986
  10.9629992 113.7379978  -4.6499986  10.7594960 113.2889280  -5.3664726
  13.1279992 112.0129978  -4.4299986  12.2229992 112.1779978  -4.6959986
  13.5559992 112.8659978  -4.4959986  13.0621537 112.1509134  -4.4752905
  15.7319992 113.5829978  -4.1349986  15.5499992 114.4989978  -4.3459986
  15.9089992 113.1719978  -4.9819986  15.7310030 113.6528273  -4.2782834
   3.0369992 112.2699978  -6.6699986   3.0189992 111.8439978  -5.8129986
   3.8419992 111.9509978  -7.0789986   3.1432875 112.1686435  -6.6080485
   5.1779992 110.9799978  -8.0149986   4.9589992 110.0629978  -7.8449986
   6.0019992 111.1199978  -7.5489986   5.2594702 110.8735511  -7.9287473
   7.7149992 111.4499978  -7.1659986   7.9279992 110.5619978  -7.4529986
   7.7799992 111.4149978  -6.2119986   7.7529149 111.3238326  -7.0762631
  11.2239992  97.1139978  -8.0219986  10.5499992  96.4839978  -7.7659986
  11.7879992  96.6299978  -8.6249986  11.2080384  96.9623708  -8.0684980
  16.3669992  95.2209978  -7.9089986  16.9699992  95.7689978  -8.4109986
  15.4969992  95.5399978  -8.1499986  16.3319157  95.3390373  -8.0102090
  18.0939992  96.3599978  -9.5759986  18.7049992  95.8459978 -10.1029986
  18.4759992  97.2369978  -9.5529986  18.2293305  96.4082050  -9.6450582
   3.5509992  95.7479978 -10.1999986   2.7739992  95.5129978 -10.7069986
   4.0809992  94.9509978 -10.1909986   3.5163451  95.6081268 -10.2681373
   2.3869992  95.5459978 -14.3959986   2.8259992  96.1569978 -14.9879986
   1.7529992  96.0839978 -13.9219986   2.3613859  95.7024064 -14.4129695
   8.1299992  95.6739978 -10.3869986   9.0039992  96.0629978 -10.4159986
   7.9939992  95.4589978  -9.4639986   8.2311953  95.6981643 -10.2662383
  13.6869992  95.7039978  -8.7369986  13.7629992  95.7999978  -9.6869986
  13.4119992  94.7969978  -8.6089986  13.6601871  95.5944146  -8.8496056
  15.0399992  95.7299978 -13.0449986  14.3369992  96.3449978 -13.2549986
  14.5949992  94.8929978 -12.9139986  14.8836550  95.7009668 -13.0560163
   2.2879992 111.4939978 -13.4989986   1.6029992 111.4559978 -14.1659986
   2.2919992 112.4069978 -13.2109986   2.1947621 111.6121924 -13.5513874
   4.2479992  97.4619978 -15.9539986   4.7389992  96.8319978 -16.4809986
   4.8709992  97.7579978 -15.2909986   4.3995304  97.4157376 -15.9365060
   9.2739992  97.7549978 -13.4969986   9.4519992  97.1079978 -12.8139986
   9.2199992  98.5889978 -13.0299986   9.2910678  97.7791604 -13.3403699
  11.1519992 112.7029978 -15.1009986  12.0179992 113.0699978 -15.2789986
  10.9059992 112.2639978 -15.9149986  11.2372097 112.6938525 -15.2353981
  17.8609992 112.2659978 -12.4219986  17.6669992 111.5179978 -12.9869986
  17.8219992 113.0239978 -13.0049986  17.8291645 112.2660786 -12.5781852
   3.5079992  96.2619978  -0.6819986   3.1419992  95.4959978  -0.2399986
   4.4209992  96.2909978  -0.3959986   3.5813172  96.1610324  -0.5828110
   5.4809992  95.6119978   0.8530014   6.3799992  95.3379978   0.6690014
   5.0949992  94.8699978   1.3180014   5.5517307  95.4742196   0.8907098
   4.1059992 112.4139978 -16.4739986   3.8379992 112.6999978 -15.5999986
   4.8769992 111.8679978 -16.3209986   4.1735926 112.3792779 -16.3338795
  13.9029992  94.9449978   1.0360014  13.9789992  94.5189978   1.8890014
  14.7959992  94.9579978   0.6930014  14.0342303  94.8883493   1.1065497
  17.0789992 111.0179978  -0.2719986  16.2969992 110.8309978  -0.7919986
  17.0069992 111.9469978  -0.0549986  16.9621924 111.1180637  -0.3138398
  31.4849992 104.9039978 -10.2409986  31.5739992 105.8479978 -10.3729986
  30.8469992 104.6289978 -10.8989986  31.4109062 104.9959812 -10.3480359
  30.4179992 104.1589978  -6.8219986  30.3799992 103.5129978  -6.1169986
  30.0959992 103.6919978  -7.5929986  30.3692679 104.0074276  -6.8297079
  22.7859992 103.7729978  -5.2289986  22.8279992 103.1479978  -4.5059986
  23.4889992 104.3969978  -5.0469986  22.8867345 103.7717873  -5.1054727
  34.1239992 107.0979978  -8.5209986  33.6829992 106.3779978  -8.0699986
  34.1109992 107.8189978  -7.8909986  34.0619215 107.0969291  -8.3741895
  23.7099992 108.2229978  -6.6939986  23.3399992 107.4209978  -7.0639986
  24.6509992 108.0549978  -6.6479986  23.7865984 108.0904638  -6.7384397
  20.3199992 101.8829978 -11.3019986  19.8719992 102.7289978 -11.3199986
  19.7589992 101.3039978 -11.8169986  20.1828546 101.9203993 -11.3741109
  21.0299992 104.0449978  -9.1759986  21.2439992 103.2749978  -8.6479986
  21.7679992 104.1349978  -9.7789986  21.1590200 103.9518587  -9.1852965
  31.2359992 112.2019978  -8.3089986  31.8549992 111.5259978  -8.5819986
  31.0269992 111.9839978  -7.3999986  31.2926056 112.0798869  -8.2236033
  28.8069992 106.5909978  -6.4159986  29.1109992 105.9049978  -7.0109986
  29.5289992 106.7099978  -5.7979986  28.9461240 106.5132314  -6.4139041
  37.4699992  98.1929978  -5.5559986  37.5199992  98.8029978  -4.8199986
  37.8959992  98.6539978  -6.2789986  37.5344108  98.3387709  -5.5529888
  31.9479992 100.9849978  -6.0889986  32.0909992 100.0389978  -6.0689986
  31.8419992 101.1919978  -7.0169986  31.9532403 100.8834797  -6.2117761
  25.1029992  99.0869978  -8.8159986  25.1459992  99.9469978  -9.2349986
  24.6449992  98.5349978  -9.4499986  25.0469871  99.1299245  -8.9589239
  32.8249992  99.2179978 -10.4149986  33.4719992  98.8889978  -9.7909986
  33.3349992  99.7349978 -11.0379986  32.9824351  99.2429067 -10.4138963
  21.7229992 101.4839978  -8.0539986  22.3769992 100.9339978  -7.6219986
  21.7469992 101.2099978  -8.9709986  21.8157199 101.3717167  -8.1188332
  26.8799992 103.0339978  -8.8389986  27.4959992 102.5069978  -8.3299986
  26.2929992 102.3939978  -9.2429986  26.8850154 102.8753954  -8.8239055
  37.8619992  99.6709978  -3.3199986  37.1729992 100.3289978  -3.4149986
  37.8769992  99.4729978  -2.3829986  37.7697756  99.7342603  -3.2064188
  23.9129992  98.0049978  -4.7419986  23.6939992  98.5349978  -5.5089986
  23.2449992  98.2309978  -4.0949986  23.7926975  98.1080967  -4.7594860
  31.2819992 107.5049978 -11.1979986  30.9869992 107.1819978 -12.0499986
  30.9579992 108.4049978 -11.1569986  31.1978460 107.5824464 -11.3090286
  26.4819992 105.6799978  -4.4549986  25.7419992 106.2789978  -4.3509986
  27.1959992 106.2339978  -4.7699986  26.4773500 105.8367829  -4.4833629
  34.5889992  98.5089978  -8.4349986  34.3739992  97.7429978  -7.9019986
  35.2449992  98.9809978  -7.9219986  34.6482673  98.4680728  -8.2928010
  23.5069992  99.8969978  -6.7899986  24.1209992 100.5299978  -6.4169986
  24.0189992  99.4249978  -7.4459986  23.6601962  99.9197249  -6.8277065
  24.8899992 107.6449978  -3.6679986  24.8839992 108.5239978  -4.0459986
  24.0359992 107.5609978  -3.2429986  24.7737925 107.7539535  -3.6623113
  21.0109992 107.3159978 -12.8859986  20.7389992 107.5449978 -13.7739986
  21.0559992 108.1529978 -12.4249986  20.9798097 107.4606163 -12.9453317
  34.6359992 108.9369978  -6.1729986  33.6939992 108.9959978  -6.0109986
  34.9119992 109.8429978  -6.3099986  34.5445865 109.0675288  -6.1693808
  34.9359992  97.2239978  -4.7559986  34.1999992  97.8339978  -4.7929986
  35.6199992  97.6389978  -5.2819986  34.9275367  97.3637551  -4.8321826
  27.9399992  95.3099978  -7.2899986  27.8219992  94.3619978  -7.3439986
  27.0849992  95.6429978  -7.0169986  27.8082805  95.2252202  -7.2604921
  32.8879992 110.7179978  -9.5479986  33.3129992 110.0109978 -10.0329986
  33.2049992 111.5199978  -9.9649986  32.9890266 110.7295190  -9.6707521
  34.0479992 108.6189978 -11.0389986  33.7899992 107.9289978 -11.6509986
  34.1189992 108.1759978 -10.1939986  34.0223050 108.4646814 -11.0084379
  35.7339992 107.1859978  -2.5619986  35.8729992 106.5939978  -3.3009986
  35.9009992 108.0589978  -2.9179986  35.7756193 107.2228896  -2.7113789
  30.2059992 104.1479978 -12.7889986  29.4949992 104.6829978 -13.1409986
  30.8969992 104.2029978 -13.4489986  30.2020751 104.2286777 -12.9264142
  30.2599992 102.6049978 -15.7509986  30.9609992 102.6279978 -15.0989986
  30.5619992 101.9769978 -16.4069986  30.3968202 102.5232212 -15.7504391
  37.5749992 103.5259978  -4.4959986  36.9229992 104.2199978  -4.4069986
  38.0409992 103.7359978  -5.3059986  37.5485937 103.6495019  -4.5932467
  33.6119992 104.3569978 -11.8379986  32.8799992 104.5859978 -11.2639986
  34.0589992 103.6439978 -11.3829986  33.5723963 104.2918729 -11.6980055
  33.5089992 102.5319978  -2.7699986  33.5889992 103.2949978  -2.1979986
  32.9079992 102.8109978  -3.4599986  33.4386547 102.6742457  -2.7849953
  25.2569992 104.9879978  -9.9549986  24.9269992 104.6169978 -10.7729986
  25.8459992 104.3169978  -9.6079986  25.2913970 104.8466063 -10.0200596
  26.6239992 108.4159978  -7.2739986  26.5289992 107.8369978  -8.0299986
  27.3529992 108.0449978  -6.7779986  26.7096011 108.2865561  -7.3103972
  25.6239992 103.7559978  -6.3219986  26.1889992 103.8779978  -7.0839986
  25.9429992 104.3939978  -5.6829986  25.7444166 103.8588791  -6.3399652
  31.9329992 109.2599978  -5.5879986  31.6929992 109.9219978  -4.9399986
  31.7349992 108.4249978  -5.1629986  31.8733826 109.2378115  -5.4418434
  26.5039992 108.1559978  -1.6039986  26.1929992 108.9379978  -1.1489986
  25.8539992 108.0029978  -2.2899986  26.3735538 108.2424087  -1.6344102
  32.4829992 103.5199978 -14.1519986  33.0619992 103.6699978 -13.4059986
  32.8969992 103.9899978 -14.8759986  32.6183358 103.6040955 -14.1476047
  23.4239992 104.3539978  -2.3759986  23.4939992 105.0049978  -1.6769986
  22.5329992 104.4569978  -2.7109986  23.3131690 104.4569249  -2.3256957
  30.2089992 110.2559978 -10.7169986  30.6829992 110.5519978  -9.9399986
  29.6459992 110.9949978 -10.9499986  30.1977890 110.3963036 -10.6421899
  24.7429992 110.2269978  -0.8409986  24.7509992 110.0909978  -1.7879986
  23.8269992 110.1099978  -0.5889986  24.6202528 110.1925463  -0.9366757
  36.1819992  95.2699978 -14.3389986  35.2819992  95.4089978 -14.0439986
  36.4339992  96.1009978 -14.7409986  36.0928683  95.4014055 -14.3529768
  24.2479992 104.0569978 -12.3659986  23.9559992 104.8249978 -12.8569986
  23.5729992 103.3979978 -12.5289986  24.1168497 104.0729745 -12.4551740
  37.3709992 109.6359978 -15.9629986  37.4439992 110.5749978 -15.7929986
  38.2759992 109.3309978 -16.0189986  37.5034170 109.7233282 -15.9472937
  20.3409992 106.4199978  -3.5509986  19.8389992 106.3919978  -4.3659986
  20.3459992 105.5149978  -3.2409986  20.2729832 106.2937486  -3.6205879
  20.0909992 109.2009978  -6.6669986  21.0369992 109.0559978  -6.6859986
  19.9779992 109.9849978  -6.1299986  20.2053578 109.2871697  -6.5969683
  38.2889992 109.8669978  -0.9839986  38.2389992 108.9109978  -1.0219986
  37.4619992 110.1339978  -0.5829986  38.1703831 109.7724680  -0.9349879
  29.2669992 109.4409978  -2.1079986  29.3549992 110.2669978  -1.6329986
  28.4039992 109.1109978  -1.8589986  29.1623357 109.5095468  -2.0092347
  29.6819992 113.2129978 -12.3019986  29.6059992 113.0919978 -13.2489986
  29.7139992 114.1619978 -12.1839986  29.6759380 113.3247677 -12.4154819
  23.3349992 112.0019978 -10.5209986  23.4869992 111.6539978  -9.6429986
  22.4839992 111.6449978 -10.7769986  23.2408344 111.9060879 -10.4353132
  32.7829992 112.3669978 -15.2999986  33.1579992 111.6229978 -15.7709986
  32.7879992 112.0969978 -14.3819986  32.8350098 112.2286392 -15.2403371
  32.4519992 112.2929978 -12.5509986  31.5169992 112.3929978 -12.3719986
  32.7319992 111.5829978 -11.9719986  32.3619471 112.2107933 -12.4483305
  35.4409992 101.3599978  -0.5039986  35.0329992 101.8399978  -1.2249986
  35.4809992 100.4539978  -0.8119986  35.3906221 101.3032449  -0.6441733
  22.5899992 107.7439978  -2.5079986  22.8059992 107.3819978  -1.6479986
  21.7339992 107.3689978  -2.7169986  22.5038810 107.6438837  -2.4187320
  25.2079992  96.2139978  -6.5119986  24.3469992  96.1269978  -6.9199986
  25.1859992  97.0699978  -6.0839986  25.0870491  96.3178003  -6.5100418
  29.8709992  95.9359978  -3.1369986  30.2909992  95.5209978  -2.3839986
  28.9379992  95.7569978  -3.0199986  29.8023736  95.8549910  -3.0181032
  33.1979992  99.6909978  -2.2839986  32.6839992  99.5659978  -1.4859986
  33.0419992 100.6039978  -2.5279986  33.1066967  99.7972123  -2.2079063
  33.9599992 104.5519978 -16.5229986  34.0019992 104.3299978 -17.4529986
  34.8089992 104.9509978 -16.3329986  34.0805253 104.5755498 -16.6246178
  29.5329992  98.4279978 -15.8519986  29.2789992  98.4469978 -14.9299986
  29.2759992  97.5569978 -16.1539986  29.4634508  98.3128280 -15.7665197
  25.2989992 101.1789978  -5.4169986  24.6579992 101.1389978  -4.7079986
  25.3369992 102.1059978  -5.6549986  25.2163010 101.2987668  -5.3520054
  25.2959992 101.3999978 -10.5049986  24.4039992 101.0599978 -10.5639986
  25.7469992 101.0229978 -11.2609986  25.2347642 101.3024910 -10.6152274
  30.8319992 101.8159978 -11.6879986  30.4229992 102.6309978 -11.9799986
  31.5519992 101.6759978 -12.3019986  30.8734439 101.9085372 -11.8109885
  29.9339992 101.9919978  -0.1999986  29.3709992 101.2869978   0.1210014
  30.7599992 101.8709978   0.2680014  29.9686674 101.8792165  -0.0928249
  31.8369992 101.2619978  -8.8739986  31.6409992 101.8679978  -9.5889986
  32.0179992 100.4289978  -9.3079986  31.8346584 101.2322513  -9.0305788
  23.0489992 101.4999978  -3.5499986  23.0109992 101.8999978  -2.6809986
  22.5589992 100.6829978  -3.4599986  22.9775330 101.4442674  -3.4188711
  26.4149992  98.8739978 -16.7509986  25.9839992  98.4289978 -16.0219986
  25.6969992  99.2449978 -17.2639986  26.2589176  98.8632052 -16.7205070
  19.6579992  98.6159978  -9.6989986  20.2879992  98.5869978  -8.9799986
  20.1069992  98.1909978 -10.4299986  19.8050835  98.5545660  -9.6992341
  20.9319992  99.3619978 -14.2749986  21.4059992  99.9529978 -14.8599986
  20.2139992  99.8919978 -13.9279986  20.8998640  99.5145511 -14.3082031
  31.1009992 102.8999978  -4.2029986  31.4239992 102.2689978  -4.8459986
  30.6599992 102.3659978  -3.5419986  31.0856379 102.7413468  -4.2017418
  27.8779992  98.8279978  -9.4189986  26.9669992  98.8849978  -9.1299986
  28.3829992  98.7679978  -8.6079986  27.8216873  98.8276826  -9.2698793
  22.7059992 100.4569978 -10.5919986  21.8169992 100.5559978 -10.9319986
  23.0029992  99.6149978 -10.9379986  22.6244177 100.3567687 -10.6853060
  26.3589992 100.4569978 -12.9349986  27.2909992 100.5859978 -12.7569986
  26.1439992 101.1259978 -13.5849986  26.4574472 100.5650806 -12.9985109
  32.2829992  98.0629978  -6.1539986  31.6059992  98.1939978  -5.4909986
  31.7979992  97.9079978  -6.9649986  32.1247405  98.0599947  -6.1727830
  25.0329992 101.6509978 -15.3689986  24.4909992 101.2719978 -16.0599986
  25.8669992 101.8459978 -15.7969986  25.0714390 101.6254079 -15.5215608
  35.5709992 113.7339978   0.1220014  35.7699992 114.1579978  -0.7119986
  36.2259992 114.0779978   0.7290014  35.6868522 113.8386301   0.0897852
  23.1689992 106.2079978  -0.2699986  23.9009992 106.4629978   0.2920014
  22.3879992 106.4129978   0.2460014  23.1636526 106.2705450  -0.1234824
  29.1979992 101.6149978  -7.5319986  29.7619992 101.0689978  -8.0789986
  29.0499992 101.0939978  -6.7429986  29.2553037 101.4696787  -7.5002771
  24.1999992  97.7519978 -11.1129986  23.8829992  96.8489978 -11.1489986
  24.9809992  97.7539978 -11.6659986  24.2622431  97.6287797 -11.1926898
  27.8239992 100.0039978  -5.1179986  26.9889992 100.4579978  -5.0069986
  28.3479992 100.2799978  -4.3659986  27.7806072 100.1033948  -5.0011864
  28.3689992 106.2169978 -13.4329986  27.6239992 105.7089978 -13.7549986
  28.2339992 106.2659978 -12.4869986  28.2488963 106.1541731 -13.3491174
  35.5189992 105.3499978  -4.6459986  36.1599992 105.8059978  -5.1899986
  34.6879992 105.4629978  -5.1089986  35.4945287 105.4276921  -4.7830113
  32.2659992  99.0309978 -15.2339986  31.3279992  99.1419978 -15.3849986
  32.5639992  99.8869978 -14.9269986  32.1776318  99.1620158 -15.2131855
  29.8879992 106.4009978  -2.1959986  29.5419992 106.0189978  -1.3889986
  29.6879992 107.3339978  -2.1249986  29.8135987 106.4749002  -2.0759539
  32.9849992 100.8979978 -13.5729986  33.8769992 100.7599978 -13.2539986
  33.0409992 101.6889978 -14.1099986  33.1147325 100.9859918 -13.6018783
  23.4929992 105.5119978  -7.6629986  24.2379992 105.5089978  -8.2649986
  23.5709992 104.6879978  -7.1819986  23.6053365 105.4002384  -7.6802570
  30.4939992 107.6749978 -14.4079986  30.1989992 108.5019978 -14.0259986
  29.7909992 107.0559978 -14.2109986  30.3586379 107.7044171 -14.3291346
  20.5009992 103.9719978  -2.3479986  20.7239992 103.5539978  -1.5169986
  19.8989992 103.3599978  -2.7709986  20.4501513 103.8319606  -2.2913260
  27.5179992 103.4889978  -0.1349986  27.2219992 103.3239978  -1.0309986
  28.4489992 103.2689978  -0.1459986  27.6034401 103.4366879  -0.2589794
  32.1379992 108.8629978  -2.2459986  31.2379992 109.0459978  -2.5129986
  32.1719992 109.1219978  -1.3249986  32.0193748 108.9230554  -2.1580836
  37.8699992 101.1069978 -13.8779986  37.3149992 100.7109978 -14.5509986
  37.9699992 102.0179978 -14.1559986  37.8076816 101.1759505 -14.0074967
  37.8329992 106.9079978  -1.0409986  36.9819992 107.1459978  -1.4089986
  38.4229992 106.8909978  -1.7939986  37.7963812 106.9382524  -1.1931547
  36.1649992 109.8929978 -13.4129986  35.7919992 109.0679978 -13.1039986
  36.4419992 109.7099978 -14.3109986  36.1513463 109.7552569 -13.4920475
  33.3249992 104.7009978  -6.3919986  32.3969992 104.4699978  -6.4189986
  33.7759992 103.9239978  -6.7219986  33.2588165 104.5642774  -6.4403210
  25.8679992 109.0299978 -10.2589986  26.3959992 109.8029978 -10.4589986
  24.9879992 109.2539978 -10.5609986  25.8213435 109.1662700 -10.3272690
  21.6229992 103.8919978 -15.6719986  22.2389992 104.5189978 -15.2919986
  20.7609992 104.2079978 -15.3999986  21.5907678 104.0204412 -15.5832791
  27.2959992 106.6929978 -10.6829986  27.0549992 107.6179978 -10.6409986
  26.5549992 106.2339978 -10.2859986  27.1629206 106.7575915 -10.6236231
  27.8099992 110.8419978  -4.3679986  28.1729992 111.6959978  -4.6009986
  28.3419992 110.5499978  -3.6269986  27.9315141 110.9193895  -4.2997903
  25.9789992 111.7139978 -11.1369986  25.0289992 111.8199978 -11.0859986
  26.3309992 112.5349978 -10.7929986  25.8965472 111.8394923 -11.0835148
  31.3539992 106.9409978  -4.6669986  30.9289992 106.7129978  -3.8409986
  31.9349992 106.2019978  -4.8489986  31.3743395 106.8099545  -4.5785586
  33.5569992 107.8699978 -15.5929986  33.9109992 107.4899978 -14.7889986
  32.6089992 107.7759978 -15.5059986  33.4772298 107.8052452 -15.4711313
  34.0129992 111.4929978  -2.1979986  33.4109992 110.9369978  -2.6929986
  34.2939992 112.1599978  -2.8239986  33.9685757 111.5070744  -2.3504325
  38.0609992 112.3489978 -15.3919986  38.8049992 112.9349978 -15.5319986
  37.3669992 112.9179978 -15.0589986  38.0689809 112.5060818 -15.3661410
  22.1349992  98.7259978  -2.7899986  21.2429992  99.0639978  -2.8579986
  22.0369992  97.8699978  -2.3719986  21.9994475  98.6566543  -2.7428296
  34.4229992 106.5419978 -13.3659986  34.1459992 105.8139978 -12.8099986
  35.3509992 106.6609978 -13.1609986  34.5104499 106.4584213 -13.2621956
  21.7869992 110.5299978  -4.3549986  22.0039992 109.5979978  -4.3859986
  22.0329992 110.8049978  -3.4719986  21.8499809 110.4395686  -4.2398309
  26.5849992 108.5519978 -14.6899986  26.7319992 108.0319978 -13.8999986
  26.5819992 109.4589978 -14.3829986  26.6047102 108.6033953 -14.5404075
  23.0379992 105.8039978 -14.1789986  22.3519992 106.1569978 -13.6119986
  23.5609992 106.5669978 -14.4259986  23.0148402 105.9553901 -14.1348199
  30.8699992  98.4669978  -3.8999986  31.5689992  98.5409978  -3.2499986
  30.4889992  97.6019978  -3.7459986  30.9142097  98.3602389  -3.7902003
  31.6539992  98.1189978 -12.8029986  31.8739992  98.5899978 -13.6069986
  32.2129992  98.5129978 -12.1329986  31.7596731  98.2367287 -12.8224967
  29.3229992 110.2489978 -13.9399986  28.5059992 110.7459978 -13.8879986
  29.8519992 110.7249978 -14.5809986  29.2828125 110.3811989 -14.0194694
  28.8539992  99.8469978 -11.9679986  29.6659992 100.3509978 -11.9219986
  28.6099992  99.7019978 -11.0539986  28.9321467  99.8963749 -11.8381425
  29.3899992 100.8329978  -2.7839986  29.5089992 101.4069978  -2.0269986
  30.0449992 100.1449978  -2.6689986  29.4948684 100.8185194  -2.6648326
  29.7379992  96.9279978 -11.0299986  29.3909992  97.5449978 -10.3859986
  30.3969992  97.4289978 -11.5119986  29.7795090  97.0801575 -11.0069319
  26.6609992 111.2929978 -13.9589986  26.8219992 112.0929978 -14.4589986
  26.4639992 111.5999978 -13.0739986  26.6563906 111.4438678 -13.9077667
  25.3959992  97.9909978 -14.3429986  25.3119992  98.8789978 -13.9959986
  26.2859992  97.7259978 -14.1109986  25.5048163  98.0767179 -14.2641404
  35.5939992  98.7399978  -1.9489986  34.6779992  99.0019978  -2.0359986
  35.9299992  98.7369978  -2.8449986  35.5138499  98.7755163  -2.0821234
  34.1969992 102.4899978  -7.8529986  33.3989992 102.0749978  -8.1809986
  34.6419992 101.7999978  -7.3619986  34.1479684 102.3398628  -7.8314773
  23.6539992 108.4179978 -15.2829986  24.2459992 109.1179978 -15.0059986
  24.1129992 107.9849978 -16.0019986  23.7971652 108.4552675 -15.3423467
  21.9699992 101.0829978 -16.1669986  21.9249992 102.0219978 -15.9879986
  21.0819992 100.8469978 -16.4359986  21.8438166 101.1796687 -16.1788476
  35.2829992 111.7459978  -6.2309986  35.1269992 112.4249978  -6.8879986
  36.2159992 111.8179978  -6.0279986  35.3877387 111.8486390  -6.2934658
  22.7779992  95.8639978  -7.4929986  22.5489992  95.9229978  -8.4209986
  22.3359992  95.0729978  -7.1869986  22.6868801  95.7650540  -7.5785271
  21.7089992 109.8049978 -11.3329986  20.8759992 110.2769978 -11.3059986
  22.2539992 110.3149978 -11.9319986  21.6687857 109.9384791 -11.4102858
  20.9969992 112.4169978  -0.0029986  21.5369992 112.2009978   0.7570014
  20.5159992 111.6119978  -0.1929986  21.0059219 112.2785156   0.0754282
  25.5939992 111.3369978   1.6170014  26.3619992 110.8779978   1.9580014
  25.5729992 111.1109978   0.6870014  25.6962135 111.2436668   1.5379491
  29.6859992 110.8449978 -17.0069986  29.0419992 110.2139978 -16.6859986
  30.4479992 110.3139978 -17.2389986  29.7008058 110.6867902 -16.9943962
  32.1709992 109.7169978   0.3460014  31.8199992 108.8599978   0.5900014
  32.8969992 109.8589978   0.9530014  32.2211895 109.6191351   0.4613770
  34.2909992 110.6619978 -16.7739986  34.5739992 109.8669978 -16.3209986
  35.0299992 110.8949978 -17.3349986  34.4297096 110.5847049 -16.7878896
  20.9039992 106.2279978   0.9510014  21.0479992 105.3259978   0.6650014
  20.1319992 106.5139978   0.4640014  20.8192733 106.1431798   0.8459532
  25.2449992 106.5709978 -16.9159986  25.3099992 105.7769978 -16.3859986
  25.8979992 106.4529978 -17.6059986  25.3421605 106.4463430 -16.9367003
  27.5589992 106.1969978   0.3840014  27.2309992 106.4679978  -0.4729986
  27.7109992 105.2559978   0.2960014  27.5346412 106.1069046   0.2547822
  33.2939992 106.1129978  -2.2329986  34.0389992 106.7019978  -2.3519986
  32.5369992 106.6949978  -2.1689986  33.2935470 106.2722128  -2.2406201
  21.7369992 103.4279978   0.3710014  22.1449992 102.5709978   0.2500014
  21.4759992 103.4419978   1.2920014  21.7576016 103.3125119   0.4789192
  26.3949992 104.5439978 -14.6099986  25.9349992 104.0599978 -13.9249986
  26.6499992 103.8749978 -15.2459986  26.3664856 104.3873669 -14.6021603
  25.6839992 102.4369978  -2.2539986  25.0649992 103.1109978  -1.9739986
  26.0279992 102.7579978  -3.0879986  25.6457123 102.5726887  -2.3283612
  27.4659992 102.7869978 -16.3479986  27.2849992 102.6319978 -17.2749986
  28.4159992 102.8949978 -16.3029986  27.5696566 102.7803669 -16.4689071
  30.7029992 104.9079978   1.0230014  31.6569992 104.9919978   0.9960014
  30.5429992 104.1959978   1.6430014  30.8117182 104.8232842   1.1030733
  36.8559992 105.1409978 -16.9019986  36.5819992 104.7169978 -17.7149986
  36.8949992 106.0729978 -17.1189986  36.8237716 105.2088827 -17.0425714
  26.0229992  99.7919978  -1.1719986  26.1729992  99.0629978  -1.7739986
  26.0249992 100.5689978  -1.7309986  26.0437967  99.7972708  -1.3299459
  26.4359992  98.1609978  -3.6789986  26.9709992  98.6129978  -4.3309986
  25.5829992  98.0529978  -4.1019986  26.3940374  98.2082665  -3.8253290
  28.0169992 103.6009978  -3.4399986  28.7679992 103.4449978  -4.0129986
  27.6779992 104.4529978  -3.7149986  28.0739587 103.6948138  -3.5555922
  32.4329992 101.4159978   1.5890014  32.6249992 100.4849978   1.4770014
  33.2909992 101.8409978   1.5780014  32.5752182 101.3460070   1.5721862
  33.7499992 104.2049978  -0.3339986  33.4679992 104.9139978  -0.9119986
  34.6919992 104.1319978  -0.4849986  33.8387921 104.2922193  -0.4335775
  24.5019992 100.9899978   0.7390014  23.7339992 100.4569978   0.5290014
  25.1799992 100.6799978   0.1400014  24.4887235 100.8751754   0.6292413
  27.2409992  95.6179978  -3.2479986  27.1429992  96.5639978  -3.3529986
  26.4989992  95.2449978  -3.7239986  27.1272534  95.6971773  -3.3267400
  28.5049992  99.9389978   0.3160014  28.2699992  99.7199978   1.2170014
  27.7219992  99.7319978  -0.1939986  28.3669095  99.8809892   0.3705353
  31.2209992  99.0669978  -0.6089986  30.2729992  99.0989978  -0.4769986
  31.5329992  98.4409978   0.0450014  31.1335293  98.9867923  -0.5025852
  32.8549992  97.7009978   1.3960014  32.7579992  96.7489978   1.3910014
  32.5329992  97.9689978   2.2570014  32.7982468  97.6070884   1.5116210
  22.6819992  98.9099978   0.4440014  22.8939992  98.2039978  -0.1659986
  22.5709992  98.4729978   1.2880014  22.6960269  98.7541921   0.4745873
  27.4629992  94.9119978  -0.5769986  28.1749992  94.2719978  -0.5909986
  27.3619992  95.1779978  -1.4899986  27.5467387  94.8604330  -0.7024437
  27.8169992  96.5939978   1.4770014  27.6849992  96.1189978   0.6570014
  27.2169992  97.3389978   1.4220014  27.7179070  96.6295789   1.3573251
  27.3629992 113.4769978 -15.3469986  28.2959992 113.6349978 -15.2029986
  27.0989992 114.1529978 -15.9719986  27.4549911 113.5899373 -15.4117278
  20.9309992 108.1139978 -15.8639986  21.8449992 108.1929978 -15.5909986
  20.9389992 107.4269978 -16.5299986  21.0570655 108.0319205 -15.9167083
  19.5799992 113.5069978 -10.7869986  18.9329992 113.0449978 -11.3189986
  19.9349992 112.8349978 -10.2039986  19.5393741 113.3529774 -10.7810825
  20.4499992 111.5869978  -8.9819986  20.1159992 110.7069978  -8.8099986
  20.6729992 111.9329978  -8.1169986  20.4343721 111.5131938  -8.8415832
  37.9989992 112.3969978  -6.0009986  37.9769992 112.5819978  -5.0619986
  38.6889992 112.9649978  -6.3419986  38.0893439 112.4991887  -5.9185209
  37.5619992 111.9639978  -3.0799986  37.0749992 111.2289978  -3.4509986
  38.1109992 111.5699978  -2.4019986  37.5695247 111.8101057  -3.0391539
  36.0129992 107.7539978   1.5590014  35.1469992 107.6489978   1.9530014
  36.3889992 108.5119978   2.0050014  35.9453401 107.8421708   1.6732620
  37.3139992 106.0099978 -12.9269986  38.1639992 106.4309978 -12.7999986
  37.3189992 105.2699978 -12.3199986  37.4311143 105.9676094 -12.8275250
  37.7079992 104.0639978 -11.1039986  36.9819992 103.5839978 -10.7059986
  38.2899992 104.2689978 -10.3709986  37.6872730 104.0260184 -10.9505851
  37.4669992 106.8489978  -6.1559986  38.3009992 106.4709978  -6.4369986
  37.5789992 107.7919978  -6.2749986  37.5961917 106.9247943  -6.2105139
  35.9539992 109.7269978  -3.8489986  35.3059992 110.0519978  -3.2239986
  35.4359992 109.2859978  -4.5229986  35.7954196 109.7118651  -3.8545848
  37.9769992 103.9649978 -14.7129986  37.4549992 104.3209978 -15.4309986
  37.9439992 104.6399978 -14.0339986  37.9010129 104.1049598 -14.7196645
  36.3259992 101.2039978 -16.1619986  36.4219992 101.8709978 -16.8419986
  36.1859992 100.3889978 -16.6429986  36.3202040 101.1850671 -16.3201622
  35.4949992 102.5849978 -10.5409986  35.3449992 101.6399978 -10.5609986
  35.1409992 102.8659978  -9.6969986  35.4266351 102.4936644 -10.4296780
  20.5299992 104.6629978  -6.5299986  20.7149992 104.5809978  -7.4659986
  21.3799992 104.5389978  -6.1069986  20.6700928 104.6350463  -6.6007107
  36.3509992 104.5549978  -0.9019986  36.9339992 103.8199978  -0.7099986
  36.9149992 105.3269978  -0.8549986  36.5069781 104.5588145  -0.8693836
  37.8479992 102.4579978  -0.2169986  36.9849992 102.0789978  -0.3829986
  38.4519992 101.7189978  -0.2919986  37.8116085 102.3063223  -0.2498305
  35.5729992  98.6119978 -17.0439986  36.1839992  98.2409978 -16.4069986
  34.7359992  98.1909978 -16.8479986  35.5434947  98.5042756 -16.9302748
  35.2059992 100.1669978 -12.0779986  35.4849992  99.2599978 -11.9539986
  35.9649992 100.6009978 -12.4669986  35.3468619 100.1014502 -12.1136205
  35.8169992 100.7489978  -6.6419986  36.7499992 100.9609978  -6.6769986
  35.5819992 100.8499978  -5.7199986  35.9129517 100.7916833  -6.5220870
  35.8469992 101.4859978  -3.8659986  35.0039992 101.7539978  -3.4999986
  36.2889992 102.3079978  -4.0769986  35.7914138 101.6338273  -3.8444482
  20.1279992  99.9329978  -0.3899986  21.0469992  99.8109978  -0.1529986
  19.6779992  99.1829978   0.0000014  20.1930087  99.8149608  -0.3048590
  38.1299992  95.4659978   1.4870014  38.4789992  94.8119978   0.8820014
  38.2769992  96.3029978   1.0470014  38.1976824  95.4896024   1.3446304
  35.8189992  97.4299978 -12.0299986  36.0009992  96.9809978 -11.2049986
  35.2189992  96.8459978 -12.4939986  35.7628187  97.2895552 -11.9797261
  21.3489992  98.2459978  -7.4979986  21.7939992  97.4539978  -7.1959986
  21.8149992  98.9619978  -7.0679986  21.4729718  98.2344534  -7.3984735
  19.6529992 101.2449978  -6.4289986  20.1449992 101.0239978  -7.2199986
  20.0149992 102.0849978  -6.1479986  19.7692923 101.3283468  -6.4992593
  37.6489992  97.5749978  -0.1639986  36.7319992  97.8459978  -0.1989986
  37.7719992  97.0399978  -0.9479986  37.5399672  97.5397885  -0.2748138
  37.6859992  97.4979978 -15.5019986  38.0979992  96.7769978 -15.9769986
  38.3669992  98.1669978 -15.4439986  37.8345536  97.4897766 -15.5591976
  19.9669992  97.5029978 -12.3749986  19.0419992  97.7109978 -12.5039986
  20.4209992  97.9869978 -13.0649986  19.9016298  97.5969299 -12.4859549
  34.7369992 112.4869978 -10.4289986  35.3899992 112.1389978 -11.0369986
  35.2479992 112.9749978  -9.7829986  34.8952777 112.5053815 -10.4247953
  19.9299992  96.2409978  -4.0309986  19.2649992  95.9949978  -3.3879986
  19.4869992  96.8629978  -4.6079986  19.7791168  96.2914214  -4.0210152
  22.1219992 109.4159978   0.1140014  21.3009992 109.5909978  -0.3469986
  21.8699992 109.3429978   1.0340014  21.9755594 109.4300717   0.1753611
  25.0759992 110.3899978  -3.6279986  24.6519992 111.1999978  -3.9099986
  25.9809992 110.4759978  -3.9299986  25.1402138 110.5124160  -3.7073585
  29.3879992 111.7889978  -0.6679986  29.5719992 111.4559978   0.2100014
  30.2339992 112.0989978  -0.9899986  29.5276484 111.7852979  -0.5912383
  31.7329992 113.0749978  -1.4239986  32.4099992 112.4419978  -1.6639986
  32.0539992 113.4759978  -0.6169986  31.8691323 113.0425691  -1.3476842
  36.6499992  95.6649978  -2.3449986  35.8369992  95.9899978  -2.7319986
  36.8829992  94.9039978  -2.8779986  36.5701347  95.6066880  -2.4700159
  22.4779992 113.6469978  -3.5799986  21.7579992 114.0869978  -4.0309986
  22.1129992 113.3959978  -2.7319986  22.3299643 113.6733369  -3.5270871
  24.9449992 113.2469978  -4.5499986  24.0809992 113.3189978  -4.1459986
  24.8899992 113.7939978  -5.3339986  24.8191942 113.3307849  -4.6006000
  29.6559992 113.1349978  -5.3749986  29.1989992 113.6639978  -6.0289986
  29.8189992 113.7379978  -4.6499986  29.6154960 113.2889280  -5.3664726
  31.9839992 112.0129978  -4.4299986  31.0789992 112.1779978  -4.6959986
  32.4119992 112.8659978  -4.4959986  31.9181537 112.1509134  -4.4752905
  34.5879992 113.5829978  -4.1349986  34.4059992 114.4989978  -4.3459986
  34.7649992 113.1719978  -4.9819986  34.5870030 113.6528273  -4.2782834
  21.8929992 112.2699978  -6.6699986  21.8749992 111.8439978  -5.8129986
  22.6979992 111.9509978  -7.0789986  21.9992875 112.1686435  -6.6080485
  24.0339992 110.9799978  -8.0149986  23.8149992 110.0629978  -7.8449986
  24.8579992 111.1199978  -7.5489986  24.1154702 110.8735511  -7.9287473
  26.5709992 111.4499978  -7.1659986  26.7839992 110.5619978  -7.4529986
  26.6359992 111.4149978  -6.2119986  26.6089149 111.3238326  -7.0762631
  30.0799992  97.1139978  -8.0219986  29.4059992  96.4839978  -7.7659986
  30.6439992  96.6299978  -8.6249986  30.0640384  96.9623708  -8.0684980
  35.2229992  95.2209978  -7.9089986  35.8259992  95.7689978  -8.4109986
  34.3529992  95.5399978  -8.1499986  35.1879157  95.3390373  -8.0102090
  36.9499992  96.3599978  -9.5759986  37.5609992  95.8459978 -10.1029986
  37.3319992  97.2369978  -9.5529986  37.0853305  96.4082050  -9.6450582
  22.4069992  95.7479978 -10.1999986  21.6299992  95.5129978 -10.7069986
  22.9369992  94.9509978 -10.1909986  22.3723451  95.6081268 -10.2681373
  21.2429992  95.5459978 -14.3959986  21.6819992  96.1569978 -14.9879986
  20.6089992  96.0839978 -13.9219986  21.2173859  95.7024064 -14.4129695
  26.9859992  95.6739978 -10.3869986  27.8599992  96.0629978 -10.4159986
  26.8499992  95.4589978  -9.4639986  27.0871953  95.6981643 -10.2662383
  32.5429992  95.7039978  -8.7369986  32.6189992  95.7999978  -9.6869986
  32.2679992  94.7969978  -8.6089986  32.5161871  95.5944146  -8.8496056
  33.8959992  95.7299978 -13.0449986  33.1929992  96.3449978 -13.2549986
  33.4509992  94.8929978 -12.9139986  33.7396550  95.7009668 -13.0560163
  21.1439992 111.4939978 -13.4989986  20.4589992 111.4559978 -14.1659986
  21.1479992 112.4069978 -13.2109986  21.0507621 111.6121924 -13.5513874
  23.1039992  97.4619978 -15.9539986  23.5949992  96.8319978 -16.4809986
  23.7269992  97.7579978 -15.2909986  23.2555304  97.4157376 -15.9365060
  28.1299992  97.7549978 -13.4969986  28.3079992  97.1079978 -12.8139986
  28.0759992  98.5889978 -13.0299986  28.1470678  97.7791604 -13.3403699
  30.0079992 112.7029978 -15.1009986  30.8739992 113.0699978 -15.2789986
  29.7619992 112.2639978 -15.9149986  30.0932097 112.6938525 -15.2353981
  36.7169992 112.2659978 -12.4219986  36.5229992 111.5179978 -12.9869986
  36.6779992 113.0239978 -13.0049986  36.6851645 112.2660786 -12.5781852
  22.3639992  96.2619978  -0.6819986  21.9979992  95.4959978  -0.2399986
  23.2769992  96.2909978  -0.3959986  22.4373172  96.1610324  -0.5828110
  24.3369992  95.6119978   0.8530014  25.2359992  95.3379978   0.6690014
  23.9509992  94.8699978   1.3180014  24.4077307  95.4742196   0.8907098
  22.9619992 112.4139978 -16.4739986  22.6939992 112.6999978 -15.5999986
  23.7329992 111.8679978 -16.3209986  23.0295926 112.3792779 -16.3338795
  32.7589992  94.9449978   1.0360014  32.8349992  94.5189978   1.8890014
  33.6519992  94.9579978   0.6930014  32.8902303  94.8883493   1.1065497
  35.9349992 111.0179978  -0.2719986  35.1529992 110.8309978  -0.7919986
  35.8629992 111.9469978  -0.0549986  35.8181924 111.1180637  -0.3138398
  50.3409992 104.9039978 -10.2409986  50.4299992 105.8479978 -10.3729986
  49.7029992 104.6289978 -10.8989986  50.2669062 104.9959812 -10.3480359
  49.2739992 104.1589978  -6.8219986  49.2359992 103.5129978  -6.1169986
  48.9519992 103.6919978  -7.5929986  49.2252679 104.0074276  -6.8297079
  41.6419992 103.7729978  -5.2289986  41.6839992 103.1479978  -4.5059986
  42.3449992 104.3969978  -5.0469986  41.7427345 103.7717873  -5.1054727
  52.9799992 107.0979978  -8.5209986  52.5389992 106.3779978  -8.0699986
  52.9669992 107.8189978  -7.8909986  52.9179215 107.0969291  -8.3741895
  42.5659992 108.2229978  -6.6939986  42.1959992 107.4209978  -7.0639986
  43.5069992 108.0549978  -6.6479986  42.6425984 108.0904638  -6.7384397
  39.1759992 101.8829978 -11.3019986  38.7279992 102.7289978 -11.3199986
  38.6149992 101.3039978 -11.8169986  39.0388546 101.9203993 -11.3741109
  39.8859992 104.0449978  -9.1759986  40.0999992 103.2749978  -8.6479986
  40.6239992 104.1349978  -9.7789986  40.0150200 103.9518587  -9.1852964
  50.0919992 112.2019978  -8.3089986  50.7109992 111.5259978  -8.5819986
  49.8829992 111.9839978  -7.3999986  50.1486056 112.0798869  -8.2236033
  47.6629992 106.5909978  -6.4159986  47.9669992 105.9049978  -7.0109986
  48.3849992 106.7099978  -5.7979986  47.8021240 106.5132314  -6.4139041
  56.3259992  98.1929978  -5.5559986  56.3759992  98.8029978  -4.8199986
  56.7519992  98.6539978  -6.2789986  56.3904108  98.3387709  -5.5529888
  50.8039992 100.9849978  -6.0889986  50.9469992 100.0389978  -6.0689986
  50.6979992 101.1919978  -7.0169986  50.8092403 100.8834797  -6.2117761
  43.9589992  99.0869978  -8.8159986  44.0019992  99.9469978  -9.2349986
  43.5009992  98.5349978  -9.4499986  43.9029871  99.1299245  -8.9589239
  51.6809992  99.2179978 -10.4149986  52.3279992  98.8889978  -9.7909986
  52.1909992  99.7349978 -11.0379986  51.8384351  99.2429067 -10.4138963
  40.5789992 101.4839978  -8.0539986  41.2329992 100.9339978  -7.6219986
  40.6029992 101.2099978  -8.9709986  40.6717199 101.3717167  -8.1188332
  45.7359992 103.0339978  -8.8389986  46.3519992 102.5069978  -8.3299986
  45.1489992 102.3939978  -9.2429986  45.7410154 102.8753954  -8.8239055
  56.7179992  99.6709978  -3.3199986  56.0289992 100.3289978  -3.4149986
  56.7329992  99.4729978  -2.3829986  56.6257756  99.7342603  -3.2064188
  42.7689992  98.0049978  -4.7419986  42.5499992  98.5349978  -5.5089986
  42.1009992  98.2309978  -4.0949986  42.6486975  98.1080967  -4.7594860
  50.1379992 107.5049978 -11.1979986  49.8429992 107.1819978 -12.0499986
  49.8139992 108.4049978 -11.1569986  50.0538460 107.5824464 -11.3090286
  45.3379992 105.6799978  -4.4549986  44.5979992 106.2789978  -4.3509986
  46.0519992 106.2339978  -4.7699986  45.3333500 105.8367829  -4.4833629
  53.4449992  98.5089978  -8.4349986  53.2299992  97.7429978  -7.9019986
  54.1009992  98.9809978  -7.9219986  53.5042673  98.4680728  -8.2928010
  42.3629992  99.8969978  -6.7899986  42.9769992 100.5299978  -6.4169986
  42.8749992  99.4249978  -7.4459986  42.5161962  99.9197249  -6.8277065
  43.7459992 107.6449978  -3.6679986  43.7399992 108.5239978  -4.0459986
  42.8919992 107.5609978  -3.2429986  43.6297925 107.7539535  -3.6623113
  39.8669992 107.3159978 -12.8859986  39.5949992 107.5449978 -13.7739986
  39.9119992 108.1529978 -12.4249986  39.8358097 107.4606163 -12.9453317
  53.4919992 108.9369978  -6.1729986  52.5499992 108.9959978  -6.0109986
  53.7679992 109.8429978  -6.3099986  53.4005865 109.0675288  -6.1693808
  53.7919992  97.2239978  -4.7559986  53.0559992  97.8339978  -4.7929986
  54.4759992  97.6389978  -5.2819986  53.7835367  97.3637551  -4.8321826
  46.7959992  95.3099978  -7.2899986  46.6779992  94.3619978  -7.3439986
  45.9409992  95.6429978  -7.0169986  46.6642805  95.2252202  -7.2604921
  51.7439992 110.7179978  -9.5479986  52.1689992 110.0109978 -10.0329986
  52.0609992 111.5199978  -9.9649986  51.8450266 110.7295190  -9.6707521
  52.9039992 108.6189978 -11.0389986  52.6459992 107.9289978 -11.6509986
  52.9749992 108.1759978 -10.1939986  52.8783050 108.4646814 -11.0084379
  54.5899992 107.1859978  -2.5619986  54.7289992 106.5939978  -3.3009986
  54.7569992 108.0589978  -2.9179986  54.6316193 107.2228896  -2.7113789
  49.0619992 104.1479978 -12.7889986  48.3509992 104.6829978 -13.1409986
  49.7529992 104.2029978 -13.4489986  49.0580751 104.2286777 -12.9264142
  49.1159992 102.6049978 -15.7509986  49.8169992 102.6279978 -15.0989986
  49.4179992 101.9769978 -16.4069986  49.2528202 102.5232212 -15.7504391
  56.4309992 103.5259978  -4.4959986  55.7789992 104.2199978  -4.4069986
  56.8969992 103.7359978  -5.3059986  56.4045937 103.6495019  -4.5932467
  52.4679992 104.3569978 -11.8379986  51.7359992 104.5859978 -11.2639986
  52.9149992 103.6439978 -11.3829986  52.4283963 104.2918729 -11.6980055
  52.3649992 102.5319978  -2.7699986  52.4449992 103.2949978  -2.1979986
  51.7639992 102.8109978  -3.4599986  52.2946547 102.6742457  -2.7849953
  44.1129992 104.9879978  -9.9549986  43.7829992 104.6169978 -10.7729986
  44.7019992 104.3169978  -9.6079986  44.1473970 104.8466063 -10.0200596
  45.4799992 108.4159978  -7.2739986  45.3849992 107.8369978  -8.0299986
  46.2089992 108.0449978  -6.7779986  45.5656011 108.2865561  -7.3103972
  44.4799992 103.7559978  -6.3219986  45.0449992 103.8779978  -7.0839986
  44.7989992 104.3939978  -5.6829986  44.6004166 103.8588791  -6.3399652
  50.7889992 109.2599978  -5.5879986  50.5489992 109.9219978  -4.9399986
  50.5909992 108.4249978  -5.1629986  50.7293826 109.2378115  -5.4418434
  45.3599992 108.1559978  -1.6039986  45.0489992 108.9379978  -1.1489986
  44.7099992 108.0029978  -2.2899986  45.2295538 108.2424087  -1.6344102
  51.3389992 103.5199978 -14.1519986  51.9179992 103.6699978 -13.4059986
  51.7529992 103.9899978 -14.8759986  51.4743358 103.6040955 -14.1476047
  42.2799992 104.3539978  -2.3759986  42.3499992 105.0049978  -1.6769986
  41.3889992 104.4569978  -2.7109986  42.1691690 104.4569249  -2.3256957
  49.0649992 110.2559978 -10.7169986  49.5389992 110.5519978  -9.9399986
  48.5019992 110.9949978 -10.9499986  49.0537890 110.3963036 -10.6421899
  43.5989992 110.2269978  -0.8409986  43.6069992 110.0909978  -1.7879986
  42.6829992 110.1099978  -0.5889986  43.4762528 110.1925463  -0.9366757
  55.0379992  95.2699978 -14.3389986  54.1379992  95.4089978 -14.0439986
  55.2899992  96.1009978 -14.7409986  54.9488683  95.4014055 -14.3529768
  43.1039992 104.0569978 -12.3659986  42.8119992 104.8249978 -12.8569986
  42.4289992 103.3979978 -12.5289986  42.9728497 104.0729745 -12.4551740
  56.2269992 109.6359978 -15.9629986  56.2999992 110.5749978 -15.7929986
  57.1319992 109.3309978 -16.0189986  56.3594170 109.7233282 -15.9472937
  39.1969992 106.4199978  -3.5509986  38.6949992 106.3919978  -4.3659986
  39.2019992 105.5149978  -3.2409986  39.1289832 106.2937486  -3.6205879
  38.9469992 109.2009978  -6.6669986  39.8929992 109.0559978  -6.6859986
  38.8339992 109.9849978  -6.1299986  39.0613578 109.2871697  -6.5969683
  57.1449992 109.8669978  -0.9839986  57.0949992 108.9109978  -1.0219986
  56.3179992 110.1339978  -0.5829986  57.0263831 109.7724680  -0.9349879
  48.1229992 109.4409978  -2.1079986  48.2109992 110.2669978  -1.6329986
  47.2599992 109.1109978  -1.8589986  48.0183357 109.5095468  -2.0092347
  48.5379992 113.2129978 -12.3019986  48.4619992 113.0919978 -13.2489986
  48.5699992 114.1619978 -12.1839986  48.5319380 113.3247677 -12.4154819
  42.1909992 112.0019978 -10.5209986  42.3429992 111.6539978  -9.6429986
  41.3399992 111.6449978 -10.7769986  42.0968344 111.9060879 -10.4353132
  51.6389992 112.3669978 -15.2999986  52.0139992 111.6229978 -15.7709986
  51.6439992 112.0969978 -14.3819986  51.6910098 112.2286392 -15.2403371
  51.3079992 112.2929978 -12.5509986  50.3729992 112.3929978 -12.3719986
  51.5879992 111.5829978 -11.9719986  51.2179471 112.2107933 -12.4483305
  54.2969992 101.3599978  -0.5039986  53.8889992 101.8399978  -1.2249986
  54.3369992 100.4539978  -0.8119986  54.2466221 101.3032449  -0.6441733
  41.4459992 107.7439978  -2.5079986  41.6619992 107.3819978  -1.6479986
  40.5899992 107.3689978  -2.7169986  41.3598810 107.6438837  -2.4187320
  44.0639992  96.2139978  -6.5119986  43.2029992  96.1269978  -6.9199986
  44.0419992  97.0699978  -6.0839986  43.9430491  96.3178003  -6.5100418
  48.7269992  95.9359978  -3.1369986  49.1469992  95.5209978  -2.3839986
  47.7939992  95.7569978  -3.0199986  48.6583736  95.8549910  -3.0181032
  52.0539992  99.6909978  -2.2839986  51.5399992  99.5659978  -1.4859986
  51.8979992 100.6039978  -2.5279986  51.9626967  99.7972123  -2.2079063
  52.8159992 104.5519978 -16.5229986  52.8579992 104.3299978 -17.4529986
  53.6649992 104.9509978 -16.3329986  52.9365253 104.5755498 -16.6246178
  48.3889992  98.4279978 -15.8519986  48.1349992  98.4469978 -14.9299986
  48.1319992  97.5569978 -16.1539986  48.3194508  98.3128280 -15.7665197
  44.1549992 101.1789978  -5.4169986  43.5139992 101.1389978  -4.7079986
  44.1929992 102.1059978  -5.6549986  44.0723010 101.2987668  -5.3520054
  44.1519992 101.3999978 -10.5049986  43.2599992 101.0599978 -10.5639986
  44.6029992 101.0229978 -11.2609986  44.0907642 101.3024910 -10.6152274
  49.6879992 101.8159978 -11.6879986  49.2789992 102.6309978 -11.9799986
  50.4079992 101.6759978 -12.3019986  49.7294439 101.9085372 -11.8109885
  48.7899992 101.9919978  -0.1999986  48.2269992 101.2869978   0.1210014
  49.6159992 101.8709978   0.2680014  48.8246674 101.8792165  -0.0928249
  50.6929992 101.2619978  -8.8739986  50.4969992 101.8679978  -9.5889986
  50.8739992 100.4289978  -9.3079986  50.6906584 101.2322513  -9.0305788
  41.9049992 101.4999978  -3.5499986  41.8669992 101.8999978  -2.6809986
  41.4149992 100.6829978  -3.4599986  41.8335330 101.4442674  -3.4188711
  45.2709992  98.8739978 -16.7509986  44.8399992  98.4289978 -16.0219986
  44.5529992  99.2449978 -17.2639986  45.1149176  98.8632051 -16.7205070
  38.5139992  98.6159978  -9.6989986  39.1439992  98.5869978  -8.9799986
  38.9629992  98.1909978 -10.4299986  38.6610835  98.5545660  -9.6992341
  39.7879992  99.3619978 -14.2749986  40.2619992  99.9529978 -14.8599986
  39.0699992  99.8919978 -13.9279986  39.7558640  99.5145511 -14.3082031
  49.9569992 102.8999978  -4.2029986  50.2799992 102.2689978  -4.8459986
  49.5159992 102.3659978  -3.5419986  49.9416379 102.7413468  -4.2017418
  46.7339992  98.8279978  -9.4189986  45.8229992  98.8849978  -9.1299986
  47.2389992  98.7679978  -8.6079986  46.6776873  98.8276826  -9.2698793
  41.5619992 100.4569978 -10.5919986  40.6729992 100.5559978 -10.9319986
  41.8589992  99.6149978 -10.9379986  41.4804177 100.3567687 -10.6853060
  45.2149992 100.4569978 -12.9349986  46.1469992 100.5859978 -12.7569986
  44.9999992 101.1259978 -13.5849986  45.3134472 100.5650806 -12.9985109
  51.1389992  98.0629978  -6.1539986  50.4619992  98.1939978  -5.4909986
  50.6539992  97.9079978  -6.9649986  50.9807405  98.0599947  -6.1727830
  43.8889992 101.6509978 -15.3689986  43.3469992 101.2719978 -16.0599986
  44.7229992 101.8459978 -15.7969986  43.9274390 101.6254079 -15.5215608
  54.4269992 113.7339978   0.1220014  54.6259992 114.1579978  -0.7119986
  55.0819992 114.0779978   0.7290014  54.5428522 113.8386301   0.0897852
  42.0249992 106.2079978  -0.2699986  42.7569992 106.4629978   0.2920014
  41.2439992 106.4129978   0.2460014  42.0196526 106.2705450  -0.1234824
  48.0539992 101.6149978  -7.5319986  48.6179992 101.0689978  -8.0789986
  47.9059992 101.0939978  -6.7429986  48.1113037 101.4696787  -7.5002771
  43.0559992  97.7519978 -11.1129986  42.7389992  96.8489978 -11.1489986
  43.8369992  97.7539978 -11.6659986  43.1182431  97.6287797 -11.1926898
  46.6799992 100.0039978  -5.1179986  45.8449992 100.4579978  -5.0069986
  47.2039992 100.2799978  -4.3659986  46.6366072 100.1033948  -5.0011864
  47.2249992 106.2169978 -13.4329986  46.4799992 105.7089978 -13.7549986
  47.0899992 106.2659978 -12.4869986  47.1048963 106.1541731 -13.3491174
  54.3749992 105.3499978  -4.6459986  55.0159992 105.8059978  -5.1899986
  53.5439992 105.4629978  -5.1089986  54.3505287 105.4276921  -4.7830113
  51.1219992  99.0309978 -15.2339986  50.1839992  99.1419978 -15.3849986
  51.4199992  99.8869978 -14.9269986  51.0336318  99.1620158 -15.2131855
  48.7439992 106.4009978  -2.1959986  48.3979992 106.0189978  -1.3889986
  48.5439992 107.3339978  -2.1249986  48.6695987 106.4749002  -2.0759539
  51.8409992 100.8979978 -13.5729986  52.7329992 100.7599978 -13.2539986
  51.8969992 101.6889978 -14.1099986  51.9707325 100.9859918 -13.6018783
  42.3489992 105.5119978  -7.6629986  43.0939992 105.5089978  -8.2649986
  42.4269992 104.6879978  -7.1819986  42.4613366 105.4002384  -7.6802570
  49.3499992 107.6749978 -14.4079986  49.0549992 108.5019978 -14.0259986
  48.6469992 107.0559978 -14.2109986  49.2146379 107.7044171 -14.3291346
  39.3569992 103.9719978  -2.3479986  39.5799992 103.5539978  -1.5169986
  38.7549992 103.3599978  -2.7709986  39.3061513 103.8319606  -2.2913260
  46.3739992 103.4889978  -0.1349986  46.0779992 103.3239978  -1.0309986
  47.3049992 103.2689978  -0.1459986  46.4594401 103.4366879  -0.2589794
  50.9939992 108.8629978  -2.2459986  50.0939992 109.0459978  -2.5129986
  51.0279992 109.1219978  -1.3249986  50.8753748 108.9230554  -2.1580836
  56.7259992 101.1069978 -13.8779986  56.1709992 100.7109978 -14.5509986
  56.8259992 102.0179978 -14.1559986  56.6636816 101.1759505 -14.0074967
  56.6889992 106.9079978  -1.0409986  55.8379992 107.1459978  -1.4089986
  57.2789992 106.8909978  -1.7939986  56.6523812 106.9382524  -1.1931547
  55.0209992 109.8929978 -13.4129986  54.6479992 109.0679978 -13.1039986
  55.2979992 109.7099978 -14.3109986  55.0073463 109.7552569 -13.4920475
  52.1809992 104.7009978  -6.3919986  51.2529992 104.4699978  -6.4189986
  52.6319992 103.9239978  -6.7219986  52.1148165 104.5642774  -6.4403210
  44.7239992 109.0299978 -10.2589986  45.2519992 109.8029978 -10.4589986
  43.8439992 109.2539978 -10.5609986  44.6773435 109.1662700 -10.3272690
  40.4789992 103.8919978 -15.6719986  41.0949992 104.5189978 -15.2919986
  39.6169992 104.2079978 -15.3999986  40.4467678 104.0204412 -15.5832791
  46.1519992 106.6929978 -10.6829986  45.9109992 107.6179978 -10.6409986
  45.4109992 106.2339978 -10.2859986  46.0189206 106.7575915 -10.6236231
  46.6659992 110.8419978  -4.3679986  47.0289992 111.6959978  -4.6009986
  47.1979992 110.5499978  -3.6269986  46.7875141 110.9193895  -4.2997903
  44.8349992 111.7139978 -11.1369986  43.8849992 111.8199978 -11.0859986
  45.1869992 112.5349978 -10.7929986  44.7525472 111.8394923 -11.0835148
  50.2099992 106.9409978  -4.6669986  49.7849992 106.7129978  -3.8409986
  50.7909992 106.2019978  -4.8489986  50.2303395 106.8099545  -4.5785586
  52.4129992 107.8699978 -15.5929986  52.7669992 107.4899978 -14.7889986
  51.4649992 107.7759978 -15.5059986  52.3332298 107.8052452 -15.4711313
  52.8689992 111.4929978  -2.1979986  52.2669992 110.9369978  -2.6929986
  53.1499992 112.1599978  -2.8239986  52.8245757 111.5070744  -2.3504325
  56.9169992 112.3489978 -15.3919986  57.6609992 112.9349978 -15.5319986
  56.2229992 112.9179978 -15.0589986  56.9249809 112.5060818 -15.3661410
  40.9909992  98.7259978  -2.7899986  40.0989992  99.0639978  -2.8579986
  40.8929992  97.8699978  -2.3719986  40.8554475  98.6566543  -2.7428296
  53.2789992 106.5419978 -13.3659986  53.0019992 105.8139978 -12.8099986
  54.2069992 106.6609978 -13.1609986  53.3664499 106.4584213 -13.2621956
  40.6429992 110.5299978  -4.3549986  40.8599992 109.5979978  -4.3859986
  40.8889992 110.8049978  -3.4719986  40.7059809 110.4395686  -4.2398309
  45.4409992 108.5519978 -14.6899986  45.5879992 108.0319978 -13.8999986
  45.4379992 109.4589978 -14.3829986  45.4607102 108.6033953 -14.5404075
  41.8939992 105.8039978 -14.1789986  41.2079992 106.1569978 -13.6119986
  42.4169992 106.5669978 -14.4259986  41.8708402 105.9553901 -14.1348199
  49.7259992  98.4669978  -3.8999986  50.4249992  98.5409978  -3.2499986
  49.3449992  97.6019978  -3.7459986  49.7702097  98.3602389  -3.7902003
  50.5099992  98.1189978 -12.8029986  50.7299992  98.5899978 -13.6069986
  51.0689992  98.5129978 -12.1329986  50.6156731  98.2367287 -12.8224967
  48.1789992 110.2489978 -13.9399986  47.3619992 110.7459978 -13.8879986
  48.7079992 110.7249978 -14.5809986  48.1388125 110.3811989 -14.0194694
  47.7099992  99.8469978 -11.9679986  48.5219992 100.3509978 -11.9219986
  47.4659992  99.7019978 -11.0539986  47.7881467  99.8963749 -11.8381425
  48.2459992 100.8329978  -2.7839986  48.3649992 101.4069978  -2.0269986
  48.9009992 100.1449978  -2.6689986  48.3508684 100.8185194  -2.6648326
  48.5939992  96.9279978 -11.0299986  48.2469992  97.5449978 -10.3859986
  49.2529992  97.4289978 -11.5119986  48.6355090  97.0801575 -11.0069319
  45.5169992 111.2929978 -13.9589986  45.6779992 112.0929978 -14.4589986
  45.3199992 111.5999978 -13.0739986  45.5123906 111.4438678 -13.9077667
  44.2519992  97.9909978 -14.3429986  44.1679992  98.8789978 -13.9959986
  45.1419992  97.7259978 -14.1109986  44.3608163  98.0767179 -14.2641404
  54.4499992  98.7399978  -1.9489986  53.5339992  99.0019978  -2.0359986
  54.7859992  98.7369978  -2.8449986  54.3698499  98.7755163  -2.0821234
  53.0529992 102.4899978  -7.8529986  52.2549992 102.0749978  -8.1809986
  53.4979992 101.7999978  -7.3619986  53.0039684 102.3398628  -7.8314773
  42.5099992 108.4179978 -15.2829986  43.1019992 109.1179978 -15.0059986
  42.9689992 107.9849978 -16.0019986  42.6531652 108.4552675 -15.3423467
  40.8259992 101.0829978 -16.1669986  40.7809992 102.0219978 -15.9879986
  39.9379992 100.8469978 -16.4359986  40.6998166 101.1796687 -16.1788476
  54.1389992 111.7459978  -6.2309986  53.9829992 112.4249978  -6.8879986
  55.0719992 111.8179978  -6.0279986  54.2437387 111.8486390  -6.2934658
  41.6339992  95.8639978  -7.4929986  41.4049992  95.9229978  -8.4209986
  41.1919992  95.0729978  -7.1869986  41.5428801  95.7650540  -7.5785271
  40.5649992 109.8049978 -11.3329986  39.7319992 110.2769978 -11.3059986
  41.1099992 110.3149978 -11.9319986  40.5247857 109.9384791 -11.4102858
  39.8529992 112.4169978  -0.0029986  40.3929992 112.2009978   0.7570014
  39.3719992 111.6119978  -0.1929986  39.8619219 112.2785156   0.0754282
  44.4499992 111.3369978   1.6170014  45.2179992 110.8779978   1.9580014
  44.4289992 111.1109978   0.6870014  44.5522135 111.2436668   1.5379491
  48.5419992 110.8449978 -17.0069986  47.8979992 110.2139978 -16.6859986
  49.3039992 110.3139978 -17.2389986  48.5568058 110.6867902 -16.9943962
  51.0269992 109.7169978   0.3460014  50.6759992 108.8599978   0.5900014
  51.7529992 109.8589978   0.9530014  51.0771895 109.6191351   0.4613770
  53.1469992 110.6619978 -16.7739986  53.4299992 109.8669978 -16.3209986
  53.8859992 110.8949978 -17.3349986  53.2857096 110.5847049 -16.7878896
  39.7599992 106.2279978   0.9510014  39.9039992 105.3259978   0.6650014
  38.9879992 106.5139978   0.4640014  39.6752733 106.1431798   0.8459532
  44.1009992 106.5709978 -16.9159986  44.1659992 105.7769978 -16.3859986
  44.7539992 106.4529978 -17.6059986  44.1981605 106.4463430 -16.9367003
  46.4149992 106.1969978   0.3840014  46.0869992 106.4679978  -0.4729986
  46.5669992 105.2559978   0.2960014  46.3906412 106.1069046   0.2547822
  52.1499992 106.1129978  -2.2329986  52.8949992 106.7019978  -2.3519986
  51.3929992 106.6949978  -2.1689986  52.1495470 106.2722128  -2.2406201
  40.5929992 103.4279978   0.3710014  41.0009992 102.5709978   0.2500014
  40.3319992 103.4419978   1.2920014  40.6136016 103.3125119   0.4789192
  45.2509992 104.5439978 -14.6099986  44.7909992 104.0599978 -13.9249986
  45.5059992 103.8749978 -15.2459986  45.2224856 104.3873669 -14.6021603
  44.5399992 102.4369978  -2.2539986  43.9209992 103.1109978  -1.9739986
  44.8839992 102.7579978  -3.0879986  44.5017123 102.5726887  -2.3283612
  46.3219992 102.7869978 -16.3479986  46.1409992 102.6319978 -17.2749986
  47.2719992 102.8949978 -16.3029986  46.4256566 102.7803669 -16.4689071
  49.5589992 104.9079978   1.0230014  50.5129992 104.9919978   0.9960014
  49.3989992 104.1959978   1.6430014  49.6677182 104.8232842   1.1030733
  55.7119992 105.1409978 -16.9019986  55.4379992 104.7169978 -17.7149986
  55.7509992 106.0729978 -17.1189986  55.6797716 105.2088827 -17.0425714
  44.8789992  99.7919978  -1.1719986  45.0289992  99.0629978  -1.7739986
  44.8809992 100.5689978  -1.7309986  44.8997967  99.7972708  -1.3299459
  45.2919992  98.1609978  -3.6789986  45.8269992  98.6129978  -4.3309986
  44.4389992  98.0529978  -4.1019986  45.2500374  98.2082665  -3.8253290
  46.8729992 103.6009978  -3.4399986  47.6239992 103.4449978  -4.0129986
  46.5339992 104.4529978  -3.7149986  46.9299587 103.6948138  -3.5555922
  51.2889992 101.4159978   1.5890014  51.4809992 100.4849978   1.4770014
  52.1469992 101.8409978   1.5780014  51.4312182 101.3460070   1.5721862
  52.6059992 104.2049978  -0.3339986  52.3239992 104.9139978  -0.9119986
  53.5479992 104.1319978  -0.4849986  52.6947921 104.2922193  -0.4335775
  43.3579992 100.9899978   0.7390014  42.5899992 100.4569978   0.5290014
  44.0359992 100.6799978   0.1400014  43.3447235 100.8751754   0.6292413
  46.0969992  95.6179978  -3.2479986  45.9989992  96.5639978  -3.3529986
  45.3549992  95.2449978  -3.7239986  45.9832534  95.6971773  -3.3267400
  47.3609992  99.9389978   0.3160014  47.1259992  99.7199978   1.2170014
  46.5779992  99.7319978  -0.1939986  47.2229095  99.8809892   0.3705353
  50.0769992  99.0669978  -0.6089986  49.1289992  99.0989978  -0.4769986
  50.3889992  98.4409978   0.0450014  49.9895293  98.9867923  -0.5025852
  51.7109992  97.7009978   1.3960014  51.6139992  96.7489978   1.3910014
  51.3889992  97.9689978   2.2570014  51.6542468  97.6070884   1.5116210
  41.5379992  98.9099978   0.4440014  41.7499992  98.2039978  -0.1659986
  41.4269992  98.4729978   1.2880014  41.5520269  98.7541921   0.4745873
  46.3189992  94.9119978  -0.5769986  47.0309992  94.2719978  -0.5909986
  46.2179992  95.1779978  -1.4899986  46.4027387  94.8604330  -0.7024437
  46.6729992  96.5939978   1.4770014  46.5409992  96.1189978   0.6570014
  46.0729992  97.3389978   1.4220014  46.5739070  96.6295789   1.3573251
  46.2189992 113.4769978 -15.3469986  47.1519992 113.6349978 -15.2029986
  45.9549992 114.1529978 -15.9719986  46.3109911 113.5899373 -15.4117278
  39.7869992 108.1139978 -15.8639986  40.7009992 108.1929978 -15.5909986
  39.7949992 107.4269978 -16.5299986  39.9130655 108.0319205 -15.9167083
  38.4359992 113.5069978 -10.7869986  37.7889992 113.0449978 -11.3189986
  38.7909992 112.8349978 -10.2039986  38.3953741 113.3529774 -10.7810825
  39.3059992 111.5869978  -8.9819986  38.9719992 110.7069978  -8.8099986
  39.5289992 111.9329978  -8.1169986  39.2903721 111.5131938  -8.8415832
  56.8549992 112.3969978  -6.0009986  56.8329992 112.5819978  -5.0619986
  57.5449992 112.9649978  -6.3419986  56.9453439 112.4991887  -5.9185209
  56.4179992 111.9639978  -3.0799986  55.9309992 111.2289978  -3.4509986
  56.9669992 111.5699978  -2.4019986  56.4255247 111.8101057  -3.0391539
  54.8689992 107.7539978   1.5590014  54.0029992 107.6489978   1.9530014
  55.2449992 108.5119978   2.0050014  54.8013401 107.8421708   1.6732620
  56.1699992 106.0099978 -12.9269986  57.0199992 106.4309978 -12.7999986
  56.1749992 105.2699978 -12.3199986  56.2871143 105.9676094 -12.8275250
  56.5639992 104.0639978 -11.1039986  55.8379992 103.5839978 -10.7059986
  57.1459992 104.2689978 -10.3709986  56.5432730 104.0260184 -10.9505851
  56.3229992 106.8489978  -6.1559986  57.1569992 106.4709978  -6.4369986
  56.4349992 107.7919978  -6.2749986  56.4521917 106.9247943  -6.2105139
  54.8099992 109.7269978  -3.8489986  54.1619992 110.0519978  -3.2239986
  54.2919992 109.2859978  -4.5229986  54.6514196 109.7118651  -3.8545848
  56.8329992 103.9649978 -14.7129986  56.3109992 104.3209978 -15.4309986
  56.7999992 104.6399978 -14.0339986  56.7570129 104.1049598 -14.7196645
  55.1819992 101.2039978 -16.1619986  55.2779992 101.8709978 -16.8419986
  55.0419992 100.3889978 -16.6429986  55.1762040 101.1850671 -16.3201622
  54.3509992 102.5849978 -10.5409986  54.2009992 101.6399978 -10.5609986
  53.9969992 102.8659978  -9.6969986  54.2826351 102.4936644 -10.4296780
  39.3859992 104.6629978  -6.5299986  39.5709992 104.5809978  -7.4659986
  40.2359992 104.5389978  -6.1069986  39.5260928 104.6350463  -6.6007107
  55.2069992 104.5549978  -0.9019986  55.7899992 103.8199978  -0.7099986
  55.7709992 105.3269978  -0.8549986  55.3629781 104.5588145  -0.8693836
  56.7039992 102.4579978  -0.2169986  55.8409992 102.0789978  -0.3829986
  57.3079992 101.7189978  -0.2919986  56.6676085 102.3063223  -0.2498305
  54.4289992  98.6119978 -17.0439986  55.0399992  98.2409978 -16.4069986
  53.5919992  98.1909978 -16.8479986  54.3994947  98.5042756 -16.9302748
  54.0619992 100.1669978 -12.0779986  54.3409992  99.2599978 -11.9539986
  54.8209992 100.6009978 -12.4669986  54.2028619 100.1014502 -12.1136205
  54.6729992 100.7489978  -6.6419986  55.6059992 100.9609978  -6.6769986
  54.4379992 100.8499978  -5.7199986  54.7689517 100.7916833  -6.5220870
  54.7029992 101.4859978  -3.8659986  53.8599992 101.7539978  -3.4999986
  55.1449992 102.3079978  -4.0769986  54.6474138 101.6338273  -3.8444482
  38.9839992  99.9329978  -0.3899986  39.9029992  99.8109978  -0.1529986
  38.5339992  99.1829978   0.0000014  39.0490087  99.8149608  -0.3048590
  56.9859992  95.4659978   1.4870014  57.3349992  94.8119978   0.8820014
  57.1329992  96.3029978   1.0470014  57.0536824  95.4896024   1.3446304
  54.6749992  97.4299978 -12.0299986  54.8569992  96.9809978 -11.2049986
  54.0749992  96.8459978 -12.4939986  54.6188187  97.2895552 -11.9797261
  40.2049992  98.2459978  -7.4979986  40.6499992  97.4539978  -7.1959986
  40.6709992  98.9619978  -7.0679986  40.3289718  98.2344534  -7.3984735
  38.5089992 101.2449978  -6.4289986  39.0009992 101.0239978  -7.2199986
  38.8709992 102.0849978  -6.1479986  38.6252923 101.3283468  -6.4992593
  56.5049992  97.5749978  -0.1639986  55.5879992  97.8459978  -0.1989986
  56.6279992  97.0399978  -0.9479986  56.3959672  97.5397885  -0.2748138
  56.5419992  97.4979978 -15.5019986  56.9539992  96.7769978 -15.9769986
  57.2229992  98.1669978 -15.4439986  56.6905536  97.4897766 -15.5591976
  38.8229992  97.5029978 -12.3749986  37.8979992  97.7109978 -12.5039986
  39.2769992  97.9869978 -13.0649986  38.7576298  97.5969299 -12.4859549
  53.5929992 112.4869978 -10.4289986  54.2459992 112.1389978 -11.0369986
  54.1039992 112.9749978  -9.7829986  53.7512777 112.5053815 -10.4247953
  38.7859992  96.2409978  -4.0309986  38.1209992  95.9949978  -3.3879986
  38.3429992  96.8629978  -4.6079986  38.6351168  96.2914214  -4.0210152
  40.9779992 109.4159978   0.1140014  40.1569992 109.5909978  -0.3469986
  40.7259992 109.3429978   1.0340014  40.8315594 109.4300717   0.1753611
  43.9319992 110.3899978  -3.6279986  43.5079992 111.1999978  -3.9099986
  44.8369992 110.4759978  -3.9299986  43.9962138 110.5124160  -3.7073585
  48.2439992 111.7889978  -0.6679986  48.4279992 111.4559978   0.2100014
  49.0899992 112.0989978  -0.9899986  48.3836484 111.7852979  -0.5912383
  50.5889992 113.0749978  -1.4239986  51.2659992 112.4419978  -1.6639986
  50.9099992 113.4759978  -0.6169986  50.7251323 113.0425691  -1.3476842
  55.5059992  95.6649978  -2.3449986  54.6929992  95.9899978  -2.7319986
  55.7389992  94.9039978  -2.8779986  55.4261347  95.6066880  -2.4700159
  41.3339992 113.6469978  -3.5799986  40.6139992 114.0869978  -4.0309986
  40.9689992 113.3959978  -2.7319986  41.1859643 113.6733369  -3.5270871
  43.8009992 113.2469978  -4.5499986  42.9369992 113.3189978  -4.1459986
  43.7459992 113.7939978  -5.3339986  43.6751942 113.3307849  -4.6006000
  48.5119992 113.1349978  -5.3749986  48.0549992 113.6639978  -6.0289986
  48.6749992 113.7379978  -4.6499986  48.4714960 113.2889280  -5.3664726
  50.8399992 112.0129978  -4.4299986  49.9349992 112.1779978  -4.6959986
  51.2679992 112.8659978  -4.4959986  50.7741537 112.1509134  -4.4752905
  53.4439992 113.5829978  -4.1349986  53.2619992 114.4989978  -4.3459986
  53.6209992 113.1719978  -4.9819986  53.4430030 113.6528273  -4.2782834
  40.7489992 112.2699978  -6.6699986  40.7309992 111.8439978  -5.8129986
  41.5539992 111.9509978  -7.0789986  40.8552875 112.1686435  -6.6080485
  42.8899992 110.9799978  -8.0149986  42.6709992 110.0629978  -7.8449986
  43.7139992 111.1199978  -7.5489986  42.9714702 110.8735511  -7.9287473
  45.4269992 111.4499978  -7.1659986  45.6399992 110.5619978  -7.4529986
  45.4919992 111.4149978  -6.2119986  45.4649149 111.3238326  -7.0762631
  48.9359992  97.1139978  -8.0219986  48.2619992  96.4839978  -7.7659986
  49.4999992  96.6299978  -8.6249986  48.9200384  96.9623708  -8.0684980
  54.0789992  95.2209978  -7.9089986  54.6819992  95.7689978  -8.4109986
  53.2089992  95.5399978  -8.1499986  54.0439157  95.3390373  -8.0102090
  55.8059992  96.3599978  -9.5759986  56.4169992  95.8459978 -10.1029986
  56.1879992  97.2369978  -9.5529986  55.9413305  96.4082050  -9.6450582
  41.2629992  95.7479978 -10.1999986  40.4859992  95.5129978 -10.7069986
  41.7929992  94.9509978 -10.1909986  41.2283451  95.6081268 -10.2681373
  40.0989992  95.5459978 -14.3959986  40.5379992  96.1569978 -14.9879986
  39.4649992  96.0839978 -13.9219986  40.0733859  95.7024064 -14.4129695
  45.8419992  95.6739978 -10.3869986  46.7159992  96.0629978 -10.4159986
  45.7059992  95.4589978  -9.4639986  45.9431953  95.6981643 -10.2662383
  51.3989992  95.7039978  -8.7369986  51.4749992  95.7999978  -9.6869986
  51.1239992  94.7969978  -8.6089986  51.3721871  95.5944146  -8.8496056
  52.7519992  95.7299978 -13.0449986  52.0489992  96.3449978 -13.2549986
  52.3069992  94.8929978 -12.9139986  52.5956550  95.7009668 -13.0560163
  39.9999992 111.4939978 -13.4989986  39.3149992 111.4559978 -14.1659986
  40.0039992 112.4069978 -13.2109986  39.9067621 111.6121924 -13.5513874
  41.9599992  97.4619978 -15.9539986  42.4509992  96.8319978 -16.4809986
  42.5829992  97.7579978 -15.2909986  42.1115304  97.4157376 -15.9365060
  46.9859992  97.7549978 -13.4969986  47.1639992  97.1079978 -12.8139986
  46.9319992  98.5889978 -13.0299986  47.0030678  97.7791604 -13.3403699
  48.8639992 112.7029978 -15.1009986  49.7299992 113.0699978 -15.2789986
  48.6179992 112.2639978 -15.9149986  48.9492097 112.6938525 -15.2353981
  55.5729992 112.2659978 -12.4219986  55.3789992 111.5179978 -12.9869986
  55.5339992 113.0239978 -13.0049986  55.5411645 112.2660786 -12.5781852
  41.2199992  96.2619978  -0.6819986  40.8539992  95.4959978  -0.2399986
  42.1329992  96.2909978  -0.3959986  41.2933172  96.1610324  -0.5828110
  43.1929992  95.6119978   0.8530014  44.0919992  95.3379978   0.6690014
  42.8069992  94.8699978   1.3180014  43.2637307  95.4742196   0.8907098
  41.8179992 112.4139978 -16.4739986  41.5499992 112.6999978 -15.5999986
  42.5889992 111.8679978 -16.3209986  41.8855926 112.3792779 -16.3338795
  51.6149992  94.9449978   1.0360014  51.6909992  94.5189978   1.8890014
  52.5079992  94.9579978   0.6930014  51.7462303  94.8883493   1.1065497
  54.7909992 111.0179978  -0.2719986  54.0089992 110.8309978  -0.7919986
  54.7189992 111.9469978  -0.0549986  54.6741924 111.1180637  -0.3138398
  69.1969992 104.9039978 -10.2409986  69.2859992 105.8479978 -10.3729986
  68.5589992 104.6289978 -10.8989986  69.1229062 104.9959812 -10.3480359
  68.1299992 104.1589978  -6.8219986  68.0919992 103.5129978  -6.1169986
  67.8079992 103.6919978  -7.5929986  68.0812679 104.0074276  -6.8297079
  60.4979992 103.7729978  -5.2289986  60.5399992 103.1479978  -4.5059986
  61.2009992 104.3969978  -5.0469986  60.5987345 103.7717873  -5.1054726
  71.8359992 107.0979978  -8.5209986  71.3949992 106.3779978  -8.0699986
  71.8229992 107.8189978  -7.8909986  71.7739215 107.0969291  -8.3741895
  61.4219992 108.2229978  -6.6939986  61.0519992 107.4209978  -7.0639986
  62.3629992 108.0549978  -6.6479986  61.4985984 108.0904638  -6.7384397
  58.0319992 101.8829978 -11.3019986  57.5839992 102.7289978 -11.3199986
  57.4709992 101.3039978 -11.8169986  57.8948546 101.9203993 -11.3741109
  58.7419992 104.0449978  -9.1759986  58.9559992 103.2749978  -8.6479986
  59.4799992 104.1349978  -9.7789986  58.8710200 103.9518587  -9.1852965
  68.9479992 112.2019978  -8.3089986  69.5669992 111.5259978  -8.5819986
  68.7389992 111.9839978  -7.3999986  69.0046056 112.0798869  -8.2236033
  66.5189992 106.5909978  -6.4159986  66.8229992 105.9049978  -7.0109986
  67.2409992 106.7099978  -5.7979986  66.6581240 106.5132314  -6.4139041
  75.1819992  98.1929978  -5.5559986  75.2319992  98.8029978  -4.8199986
  75.6079992  98.6539978  -6.2789986  75.2464108  98.3387709  -5.5529888
  69.6599992 100.9849978  -6.0889986  69.8029992 100.0389978  -6.0689986
  69.5539992 101.1919978  -7.0169986  69.6652403 100.8834797  -6.2117761
  62.8149992  99.0869978  -8.8159986  62.8579992  99.9469978  -9.2349986
  62.3569992  98.5349978  -9.4499986  62.7589871  99.1299245  -8.9589239
  70.5369992  99.2179978 -10.4149986  71.1839992  98.8889978  -9.7909986
  71.0469992  99.7349978 -11.0379986  70.6944351  99.2429067 -10.4138963
  59.4349992 101.4839978  -8.0539986  60.0889992 100.9339978  -7.6219986
  59.4589992 101.2099978  -8.9709986  59.5277199 101.3717167  -8.1188332
  64.5919992 103.0339978  -8.8389986  65.2079992 102.5069978  -8.3299986
  64.0049992 102.3939978  -9.2429986  64.5970154 102.8753954  -8.8239055
  75.5739992  99.6709978  -3.3199986  74.8849992 100.3289978  -3.4149986
  75.5889992  99.4729978  -2.3829986  75.4817756  99.7342603  -3.2064188
  61.6249992  98.0049978  -4.7419986  61.4059992  98.5349978  -5.5089986
  60.9569992  98.2309978  -4.0949986  61.5046975  98.1080967  -4.7594860
  68.9939992 107.5049978 -11.1979986  68.6989992 107.1819978 -12.0499986
  68.6699992 108.4049978 -11.1569986  68.9098460 107.5824464 -11.3090286
  64.1939992 105.6799978  -4.4549986  63.4539992 106.2789978  -4.3509986
  64.9079992 106.2339978  -4.7699986  64.1893500 105.8367829  -4.4833629
  72.3009992  98.5089978  -8.4349986  72.0859992  97.7429978  -7.9019986
  72.9569992  98.9809978  -7.9219986  72.3602673  98.4680728  -8.2928010
  61.2189992  99.8969978  -6.7899986  61.8329992 100.5299978  -6.4169986
  61.7309992  99.4249978  -7.4459986  61.3721962  99.9197249  -6.8277065
  62.6019992 107.6449978  -3.6679986  62.5959992 108.5239978  -4.0459986
  61.7479992 107.5609978  -3.2429986  62.4857925 107.7539535  -3.6623113
  58.7229992 107.3159978 -12.8859986  58.4509992 107.5449978 -13.7739986
  58.7679992 108.1529978 -12.4249986  58.6918097 107.4606163 -12.9453317
  72.3479992 108.9369978  -6.1729986  71.4059992 108.9959978  -6.0109986
  72.6239992 109.8429978  -6.3099986  72.2565865 109.0675288  -6.1693808
  72.6479992  97.2239978  -4.7559986  71.9119992  97.8339978  -4.7929986
  73.3319992  97.6389978  -5.2819986  72.6395367  97.3637551  -4.8321826
  65.6519992  95.3099978  -7.2899986  65.5339992  94.3619978  -7.3439986
  64.7969992  95.6429978  -7.0169986  65.5202805  95.2252202  -7.2604921
  70.5999992 110.7179978  -9.5479986  71.0249992 110.0109978 -10.0329986
  70.9169992 111.5199978  -9.9649986  70.7010266 110.7295190  -9.6707521
  71.7599992 108.6189978 -11.0389986  71.5019992 107.9289978 -11.6509986
  71.8309992 108.1759978 -10.1939986  71.7343050 108.4646814 -11.0084379
  73.4459992 107.1859978  -2.5619986  73.5849992 106.5939978  -3.3009986
  73.6129992 108.0589978  -2.9179986  73.4876193 107.2228896  -2.7113789
  67.9179992 104.1479978 -12.7889986  67.2069992 104.6829978 -13.1409986
  68.6089992 104.2029978 -13.4489986  67.9140751 104.2286777 -12.9264142
  67.9719992 102.6049978 -15.7509986  68.6729992 102.6279978 -15.0989986
  68.2739992 101.9769978 -16.4069986  68.1088202 102.5232212 -15.7504391
  75.2869992 103.5259978  -4.4959986  74.6349992 104.2199978  -4.4069986
  75.7529992 103.7359978  -5.3059986  75.2605937 103.6495019  -4.5932467
  71.3239992 104.3569978 -11.8379986  70.5919992 104.5859978 -11.2639986
  71.7709992 103.6439978 -11.3829986  71.2843963 104.2918729 -11.6980055
  71.2209992 102.5319978  -2.7699986  71.3009992 103.2949978  -2.1979986
  70.6199992 102.8109978  -3.4599986  71.1506547 102.6742457  -2.7849953
  62.9689992 104.9879978  -9.9549986  62.6389992 104.6169978 -10.7729986
  63.5579992 104.3169978  -9.6079986  63.0033970 104.8466063 -10.0200596
  64.3359992 108.4159978  -7.2739986  64.2409992 107.8369978  -8.0299986
  65.0649992 108.0449978  -6.7779986  64.4216011 108.2865561  -7.3103972
  63.3359992 103.7559978  -6.3219986  63.9009992 103.8779978  -7.0839986
  63.6549992 104.3939978  -5.6829986  63.4564166 103.8588791  -6.3399652
  69.6449992 109.2599978  -5.5879986  69.4049992 109.9219978  -4.9399986
  69.4469992 108.4249978  -5.1629986  69.5853826 109.2378115  -5.4418434
  64.2159992 108.1559978  -1.6039986  63.9049992 108.9379978  -1.1489986
  63.5659992 108.0029978  -2.2899986  64.0855538 108.2424087  -1.6344102
  70.1949992 103.5199978 -14.1519986  70.7739992 103.6699978 -13.4059986
  70.6089992 103.9899978 -14.8759986  70.3303358 103.6040954 -14.1476047
  61.1359992 104.3539978  -2.3759986  61.2059992 105.0049978  -1.6769986
  60.2449992 104.4569978  -2.7109986  61.0251690 104.4569249  -2.3256957
  67.9209992 110.2559978 -10.7169986  68.3949992 110.5519978  -9.9399986
  67.3579992 110.9949978 -10.9499986  67.9097890 110.3963036 -10.6421899
  62.4549992 110.2269978  -0.8409986  62.4629992 110.0909978  -1.7879986
  61.5389992 110.1099978  -0.5889986  62.3322528 110.1925463  -0.9366757
  73.8939992  95.2699978 -14.3389986  72.9939992  95.4089978 -14.0439986
  74.1459992  96.1009978 -14.7409986  73.8048683  95.4014055 -14.3529768
  61.9599992 104.0569978 -12.3659986  61.6679992 104.8249978 -12.8569986
  61.2849992 103.3979978 -12.5289986  61.8288497 104.0729745 -12.4551740
  75.0829992 109.6359978 -15.9629986  75.1559992 110.5749978 -15.7929986
  75.9879992 109.3309978 -16.0189986  75.2154170 109.7233282 -15.9472937
  58.0529992 106.4199978  -3.5509986  57.5509992 106.3919978  -4.3659986
  58.0579992 105.5149978  -3.2409986  57.9849832 106.2937486  -3.6205879
  57.8029992 109.2009978  -6.6669986  58.7489992 109.0559978  -6.6859986
  57.6899992 109.9849978  -6.1299986  57.9173578 109.2871697  -6.5969683
  76.0009992 109.8669978  -0.9839986  75.9509992 108.9109978  -1.0219986
  75.1739992 110.1339978  -0.5829986  75.8823831 109.7724680  -0.9349879
  66.9789992 109.4409978  -2.1079986  67.0669992 110.2669978  -1.6329986
  66.1159992 109.1109978  -1.8589986  66.8743357 109.5095468  -2.0092347
  67.3939992 113.2129978 -12.3019986  67.3179992 113.0919978 -13.2489986
  67.4259992 114.1619978 -12.1839986  67.3879380 113.3247677 -12.4154819
  61.0469992 112.0019978 -10.5209986  61.1989992 111.6539978  -9.6429986
  60.1959992 111.6449978 -10.7769986  60.9528344 111.9060879 -10.4353132
  70.4949992 112.3669978 -15.2999986  70.8699992 111.6229978 -15.7709986
  70.4999992 112.0969978 -14.3819986  70.5470098 112.2286392 -15.2403371
  70.1639992 112.2929978 -12.5509986  69.2289992 112.3929978 -12.3719986
  70.4439992 111.5829978 -11.9719986  70.0739471 112.2107933 -12.4483305
  73.1529992 101.3599978  -0.5039986  72.7449992 101.8399978  -1.2249986
  73.1929992 100.4539978  -0.8119986  73.1026221 101.3032449  -0.6441733
  60.3019992 107.7439978  -2.5079986  60.5179992 107.3819978  -1.6479986
  59.4459992 107.3689978  -2.7169986  60.2158810 107.6438837  -2.4187320
  62.9199992  96.2139978  -6.5119986  62.0589992  96.1269978  -6.9199986
  62.8979992  97.0699978  -6.0839986  62.7990491  96.3178003  -6.5100418
  67.5829992  95.9359978  -3.1369986  68.0029992  95.5209978  -2.3839986
  66.6499992  95.7569978  -3.0199986  67.5143736  95.8549910  -3.0181032
  70.9099992  99.6909978  -2.2839986  70.3959992  99.5659978  -1.4859986
  70.7539992 100.6039978  -2.5279986  70.8186967  99.7972123  -2.2079063
  71.6719992 104.5519978 -16.5229986  71.7139992 104.3299978 -17.4529986
  72.5209992 104.9509978 -16.3329986  71.7925253 104.5755498 -16.6246178
  67.2449992  98.4279978 -15.8519986  66.9909992  98.4469978 -14.9299986
  66.9879992  97.5569978 -16.1539986  67.1754508  98.3128280 -15.7665197
  63.0109992 101.1789978  -5.4169986  62.3699992 101.1389978  -4.7079986
  63.0489992 102.1059978  -5.6549986  62.9283010 101.2987668  -5.3520054
  63.0079992 101.3999978 -10.5049986  62.1159992 101.0599978 -10.5639986
  63.4589992 101.0229978 -11.2609986  62.9467642 101.3024910 -10.6152274
  68.5439992 101.8159978 -11.6879986  68.1349992 102.6309978 -11.9799986
  69.2639992 101.6759978 -12.3019986  68.5854439 101.9085372 -11.8109885
  67.6459992 101.9919978  -0.1999986  67.0829992 101.2869978   0.1210014
  68.4719992 101.8709978   0.2680014  67.6806674 101.8792165  -0.0928249
  69.5489992 101.2619978  -8.8739986  69.3529992 101.8679978  -9.5889986
  69.7299992 100.4289978  -9.3079986  69.5466584 101.2322513  -9.0305788
  60.7609992 101.4999978  -3.5499986  60.7229992 101.8999978  -2.6809986
  60.2709992 100.6829978  -3.4599986  60.6895330 101.4442674  -3.4188711
  64.1269992  98.8739978 -16.7509986  63.6959992  98.4289978 -16.0219986
  63.4089992  99.2449978 -17.2639986  63.9709176  98.8632051 -16.7205070
  57.3699992  98.6159978  -9.6989986  57.9999992  98.5869978  -8.9799986
  57.8189992  98.1909978 -10.4299986  57.5170835  98.5545660  -9.6992341
  58.6439992  99.3619978 -14.2749986  59.1179992  99.9529978 -14.8599986
  57.9259992  99.8919978 -13.9279986  58.6118640  99.5145511 -14.3082031
  68.8129992 102.8999978  -4.2029986  69.1359992 102.2689978  -4.8459986
  68.3719992 102.3659978  -3.5419986  68.7976379 102.7413468  -4.2017418
  65.5899992  98.8279978  -9.4189986  64.6789992  98.8849978  -9.1299986
  66.0949992  98.7679978  -8.6079986  65.5336873  98.8276826  -9.2698793
  60.4179992 100.4569978 -10.5919986  59.5289992 100.5559978 -10.9319986
  60.7149992  99.6149978 -10.9379986  60.3364177 100.3567687 -10.6853060
  64.0709992 100.4569978 -12.9349986  65.0029992 100.5859978 -12.7569986
  63.8559992 101.1259978 -13.5849986  64.1694472 100.5650806 -12.9985109
  69.9949992  98.0629978  -6.1539986  69.3179992  98.1939978  -5.4909986
  69.5099992  97.9079978  -6.9649986  69.8367405  98.0599947  -6.1727830
  62.7449992 101.6509978 -15.3689986  62.2029992 101.2719978 -16.0599986
  63.5789992 101.8459978 -15.7969986  62.7834390 101.6254079 -15.5215608
  73.2829992 113.7339978   0.1220014  73.4819992 114.1579978  -0.7119986
  73.9379992 114.0779978   0.7290014  73.3988522 113.8386301   0.0897852
  60.8809992 106.2079978  -0.2699986  61.6129992 106.4629978   0.2920014
  60.0999992 106.4129978   0.2460014  60.8756526 106.2705450  -0.1234824
  66.9099992 101.6149978  -7.5319986  67.4739992 101.0689978  -8.0789986
  66.7619992 101.0939978  -6.7429986  66.9673037 101.4696787  -7.5002771
  61.9119992  97.7519978 -11.1129986  61.5949992  96.8489978 -11.1489986
  62.6929992  97.7539978 -11.6659986  61.9742431  97.6287797 -11.1926898
  65.5359992 100.0039978  -5.1179986  64.7009992 100.4579978  -5.0069986
  66.0599992 100.2799978  -4.3659986  65.4926072 100.1033948  -5.0011864
  66.0809992 106.2169978 -13.4329986  65.3359992 105.7089978 -13.7549986
  65.9459992 106.2659978 -12.4869986  65.9608963 106.1541731 -13.3491174
  73.2309992 105.3499978  -4.6459986  73.8719992 105.8059978  -5.1899986
  72.3999992 105.4629978  -5.1089986  73.2065287 105.4276921  -4.7830113
  69.9779992  99.0309978 -15.2339986  69.0399992  99.1419978 -15.3849986
  70.2759992  99.8869978 -14.9269986  69.8896318  99.1620158 -15.2131855
  67.5999992 106.4009978  -2.1959986  67.2539992 106.0189978  -1.3889986
  67.3999992 107.3339978  -2.1249986  67.5255987 106.4749002  -2.0759539
  70.6969992 100.8979978 -13.5729986  71.5889992 100.7599978 -13.2539986
  70.7529992 101.6889978 -14.1099986  70.8267325 100.9859918 -13.6018783
  61.2049992 105.5119978  -7.6629986  61.9499992 105.5089978  -8.2649986
  61.2829992 104.6879978  -7.1819986  61.3173365 105.4002384  -7.6802570
  68.2059992 107.6749978 -14.4079986  67.9109992 108.5019978 -14.0259986
  67.5029992 107.0559978 -14.2109986  68.0706379 107.7044171 -14.3291346
  58.2129992 103.9719978  -2.3479986  58.4359992 103.5539978  -1.5169986
  57.6109992 103.3599978  -2.7709986  58.1621513 103.8319606  -2.2913260
  65.2299992 103.4889978  -0.1349986  64.9339992 103.3239978  -1.0309986
  66.1609992 103.2689978  -0.1459986  65.3154401 103.4366879  -0.2589794
  69.8499992 108.8629978  -2.2459986  68.9499992 109.0459978  -2.5129986
  69.8839992 109.1219978  -1.3249986  69.7313748 108.9230554  -2.1580836
  75.5819992 101.1069978 -13.8779986  75.0269992 100.7109978 -14.5509986
  75.6819992 102.0179978 -14.1559986  75.5196816 101.1759505 -14.0074967
  75.5449992 106.9079978  -1.0409986  74.6939992 107.1459978  -1.4089986
  76.1349992 106.8909978  -1.7939986  75.5083812 106.9382524  -1.1931547
  73.8769992 109.8929978 -13.4129986  73.5039992 109.0679978 -13.1039986
  74.1539992 109.7099978 -14.3109986  73.8633463 109.7552569 -13.4920475
  71.0369992 104.7009978  -6.3919986  70.1089992 104.4699978  -6.4189986
  71.4879992 103.9239978  -6.7219986  70.9708165 104.5642774  -6.4403210
  63.5799992 109.0299978 -10.2589986  64.1079992 109.8029978 -10.4589986
  62.6999992 109.2539978 -10.5609986  63.5333435 109.1662700 -10.3272690
  59.3349992 103.8919978 -15.6719986  59.9509992 104.5189978 -15.2919986
  58.4729992 104.2079978 -15.3999986  59.3027678 104.0204412 -15.5832791
  65.0079992 106.6929978 -10.6829986  64.7669992 107.6179978 -10.6409986
  64.2669992 106.2339978 -10.2859986  64.8749206 106.7575915 -10.6236231
  65.5219992 110.8419978  -4.3679986  65.8849992 111.6959978  -4.6009986
  66.0539992 110.5499978  -3.6269986  65.6435141 110.9193895  -4.2997903
  63.6909992 111.7139978 -11.1369986  62.7409992 111.8199978 -11.0859986
  64.0429992 112.5349978 -10.7929986  63.6085472 111.8394923 -11.0835148
  69.0659992 106.9409978  -4.6669986  68.6409992 106.7129978  -3.8409986
  69.6469992 106.2019978  -4.8489986  69.0863395 106.8099545  -4.5785586
  71.2689992 107.8699978 -15.5929986  71.6229992 107.4899978 -14.7889986
  70.3209992 107.7759978 -15.5059986  71.1892298 107.8052452 -15.4711313
  71.7249992 111.4929978  -2.1979986  71.1229992 110.9369978  -2.6929986
  72.0059992 112.1599978  -2.8239986  71.6805757 111.5070744  -2.3504325
  75.7729992 112.3489978 -15.3919986  76.5169992 112.9349978 -15.5319986
  75.0789992 112.9179978 -15.0589986  75.7809809 112.5060818 -15.3661410
  59.8469992  98.7259978  -2.7899986  58.9549992  99.0639978  -2.8579986
  59.7489992  97.8699978  -2.3719986  59.7114475  98.6566543  -2.7428296
  72.1349992 106.5419978 -13.3659986  71.8579992 105.8139978 -12.8099986
  73.0629992 106.6609978 -13.1609986  72.2224499 106.4584213 -13.2621956
  59.4989992 110.5299978  -4.3549986  59.7159992 109.5979978  -4.3859986
  59.7449992 110.8049978  -3.4719986  59.5619809 110.4395686  -4.2398309
  64.2969992 108.5519978 -14.6899986  64.4439992 108.0319978 -13.8999986
  64.2939992 109.4589978 -14.3829986  64.3167102 108.6033953 -14.5404075
  60.7499992 105.8039978 -14.1789986  60.0639992 106.1569978 -13.6119986
  61.2729992 106.5669978 -14.4259986  60.7268402 105.9553901 -14.1348199
  68.5819992  98.4669978  -3.8999986  69.2809992  98.5409978  -3.2499986
  68.2009992  97.6019978  -3.7459986  68.6262097  98.3602389  -3.7902003
  69.3659992  98.1189978 -12.8029986  69.5859992  98.5899978 -13.6069986
  69.9249992  98.5129978 -12.1329986  69.4716731  98.2367287 -12.8224967
  67.0349992 110.2489978 -13.9399986  66.2179992 110.7459978 -13.8879986
  67.5639992 110.7249978 -14.5809986  66.9948125 110.3811989 -14.0194694
  66.5659992  99.8469978 -11.9679986  67.3779992 100.3509978 -11.9219986
  66.3219992  99.7019978 -11.0539986  66.6441467  99.8963749 -11.8381425
  67.1019992 100.8329978  -2.7839986  67.2209992 101.4069978  -2.0269986
  67.7569992 100.1449978  -2.6689986  67.2068684 100.8185194  -2.6648326
  67.4499992  96.9279978 -11.0299986  67.1029992  97.5449978 -10.3859986
  68.1089992  97.4289978 -11.5119986  67.4915090  97.0801575 -11.0069319
  64.3729992 111.2929978 -13.9589986  64.5339992 112.0929978 -14.4589986
  64.1759992 111.5999978 -13.0739986  64.3683906 111.4438678 -13.9077667
  63.1079992  97.9909978 -14.3429986  63.0239992  98.8789978 -13.9959986
  63.9979992  97.7259978 -14.1109986  63.2168163  98.0767179 -14.2641404
  73.3059992  98.7399978  -1.9489986  72.3899992  99.0019978  -2.0359986
  73.6419992  98.7369978  -2.8449986  73.2258499  98.7755163  -2.0821234
  71.9089992 102.4899978  -7.8529986  71.1109992 102.0749978  -8.1809986
  72.3539992 101.7999978  -7.3619986  71.8599684 102.3398628  -7.8314773
  61.3659992 108.4179978 -15.2829986  61.9579992 109.1179978 -15.0059986
  61.8249992 107.9849978 -16.0019986  61.5091652 108.4552675 -15.3423467
  59.6819992 101.0829978 -16.1669986  59.6369992 102.0219978 -15.9879986
  58.7939992 100.8469978 -16.4359986  59.5558166 101.1796687 -16.1788476
  72.9949992 111.7459978  -6.2309986  72.8389992 112.4249978  -6.8879986
  73.9279992 111.8179978  -6.0279986  73.0997387 111.8486390  -6.2934658
  60.4899992  95.8639978  -7.4929986  60.2609992  95.9229978  -8.4209986
  60.0479992  95.0729978  -7.1869986  60.3988801  95.7650540  -7.5785271
  59.4209992 109.8049978 -11.3329986  58.5879992 110.2769978 -11.3059986
  59.9659992 110.3149978 -11.9319986  59.3807857 109.9384791 -11.4102858
  58.7089992 112.4169978  -0.0029986  59.2489992 112.2009978   0.7570014
  58.2279992 111.6119978  -0.1929986  58.7179219 112.2785156   0.0754282
  63.3059992 111.3369978   1.6170014  64.0739992 110.8779978   1.9580014
  63.2849992 111.1109978   0.6870014  63.4082135 111.2436668   1.5379491
  67.3979992 110.8449978 -17.0069986  66.7539992 110.2139978 -16.6859986
  68.1599992 110.3139978 -17.2389986  67.4128058 110.6867902 -16.9943962
  69.8829992 109.7169978   0.3460014  69.5319992 108.8599978   0.5900014
  70.6089992 109.8589978   0.9530014  69.9331895 109.6191351   0.4613770
  72.0029992 110.6619978 -16.7739986  72.2859992 109.8669978 -16.3209986
  72.7419992 110.8949978 -17.3349986  72.1417096 110.5847049 -16.7878896
  58.6159992 106.2279978   0.9510014  58.7599992 105.3259978   0.6650014
  57.8439992 106.5139978   0.4640014  58.5312733 106.1431798   0.8459532
  62.9569992 106.5709978 -16.9159986  63.0219992 105.7769978 -16.3859986
  63.6099992 106.4529978 -17.6059986  63.0541605 106.4463430 -16.9367003
  65.2709992 106.1969978   0.3840014  64.9429992 106.4679978  -0.4729986
  65.4229992 105.2559978   0.2960014  65.2466412 106.1069046   0.2547822
  71.0059992 106.1129978  -2.2329986  71.7509992 106.7019978  -2.3519986
  70.2489992 106.6949978  -2.1689986  71.0055470 106.2722128  -2.2406201
  59.4489992 103.4279978   0.3710014  59.8569992 102.5709978   0.2500014
  59.1879992 103.4419978   1.2920014  59.4696016 103.3125119   0.4789192
  64.1069992 104.5439978 -14.6099986  63.6469992 104.0599978 -13.9249986
  64.3619992 103.8749978 -15.2459986  64.0784856 104.3873669 -14.6021603
  63.3959992 102.4369978  -2.2539986  62.7769992 103.1109978  -1.9739986
  63.7399992 102.7579978  -3.0879986  63.3577123 102.5726887  -2.3283612
  65.1779992 102.7869978 -16.3479986  64.9969992 102.6319978 -17.2749986
  66.1279992 102.8949978 -16.3029986  65.2816566 102.7803669 -16.4689071
  68.4149992 104.9079978   1.0230014  69.3689992 104.9919978   0.9960014
  68.2549992 104.1959978   1.6430014  68.5237182 104.8232842   1.1030733
  74.5679992 105.1409978 -16.9019986  74.2939992 104.7169978 -17.7149986
  74.6069992 106.0729978 -17.1189986  74.5357716 105.2088827 -17.0425714
  63.7349992  99.7919978  -1.1719986  63.8849992  99.0629978  -1.7739986
  63.7369992 100.5689978  -1.7309986  63.7557967  99.7972708  -1.3299459
  64.1479992  98.1609978  -3.6789986  64.6829992  98.6129978  -4.3309986
  63.2949992  98.0529978  -4.1019986  64.1060374  98.2082665  -3.8253290
  65.7289992 103.6009978  -3.4399986  66.4799992 103.4449978  -4.0129986
  65.3899992 104.4529978  -3.7149986  65.7859587 103.6948138  -3.5555922
  70.1449992 101.4159978   1.5890014  70.3369992 100.4849978   1.4770014
  71.0029992 101.8409978   1.5780014  70.2872182 101.3460070   1.5721862
  71.4619992 104.2049978  -0.3339986  71.1799992 104.9139978  -0.9119986
  72.4039992 104.1319978  -0.4849986  71.5507921 104.2922193  -0.4335775
  62.2139992 100.9899978   0.7390014  61.4459992 100.4569978   0.5290014
  62.8919992 100.6799978   0.1400014  62.2007235 100.8751754   0.6292413
  64.9529992  95.6179978  -3.2479986  64.8549992  96.5639978  -3.3529986
  64.2109992  95.2449978  -3.7239986  64.8392534  95.6971773  -3.3267400
  66.2169992  99.9389978   0.3160014  65.9819992  99.7199978   1.2170014
  65.4339992  99.7319978  -0.1939986  66.0789095  99.8809892   0.3705353
  68.9329992  99.0669978  -0.6089986  67.9849992  99.0989978  -0.4769986
  69.2449992  98.4409978   0.0450014  68.8455293  98.9867923  -0.5025852
  70.5669992  97.7009978   1.3960014  70.4699992  96.7489978   1.3910014
  70.2449992  97.9689978   2.2570014  70.5102468  97.6070884   1.5116210
  60.3939992  98.9099978   0.4440014  60.6059992  98.2039978  -0.1659986
  60.2829992  98.4729978   1.2880014  60.4080269  98.7541921   0.4745873
  65.1749992  94.9119978  -0.5769986  65.8869992  94.2719978  -0.5909986
  65.0739992  95.1779978  -1.4899986  65.2587387  94.8604330  -0.7024437
  65.5289992  96.5939978   1.4770014  65.3969992  96.1189978   0.6570014
  64.9289992  97.3389978   1.4220014  65.4299070  96.6295789   1.3573251
  65.0749992 113.4769978 -15.3469986  66.0079992 113.6349978 -15.2029986
  64.8109992 114.1529978 -15.9719986  65.1669911 113.5899373 -15.4117278
  58.6429992 108.1139978 -15.8639986  59.5569992 108.1929978 -15.5909986
  58.6509992 107.4269978 -16.5299986  58.7690655 108.0319205 -15.9167083
  57.2919992 113.5069978 -10.7869986  56.6449992 113.0449978 -11.3189986
  57.6469992 112.8349978 -10.2039986  57.2513741 113.3529774 -10.7810825
  58.1619992 111.5869978  -8.9819986  57.8279992 110.7069978  -8.8099986
  58.3849992 111.9329978  -8.1169986  58.1463721 111.5131938  -8.8415832
  75.7109992 112.3969978  -6.0009986  75.6889992 112.5819978  -5.0619986
  76.4009992 112.9649978  -6.3419986  75.8013439 112.4991887  -5.9185209
  75.2739992 111.9639978  -3.0799986  74.7869992 111.2289978  -3.4509986
  75.8229992 111.5699978  -2.4019986  75.2815247 111.8101057  -3.0391539
  73.7249992 107.7539978   1.5590014  72.8589992 107.6489978   1.9530014
  74.1009992 108.5119978   2.0050014  73.6573401 107.8421708   1.6732620
  75.0259992 106.0099978 -12.9269986  75.8759992 106.4309978 -12.7999986
  75.0309992 105.2699978 -12.3199986  75.1431143 105.9676094 -12.8275250
  75.4199992 104.0639978 -11.1039986  74.6939992 103.5839978 -10.7059986
  76.0019992 104.2689978 -10.3709986  75.3992730 104.0260184 -10.9505851
  75.1789992 106.8489978  -6.1559986  76.0129992 106.4709978  -6.4369986
  75.2909992 107.7919978  -6.2749986  75.3081917 106.9247943  -6.2105139
  73.6659992 109.7269978  -3.8489986  73.0179992 110.0519978  -3.2239986
  73.1479992 109.2859978  -4.5229986  73.5074196 109.7118651  -3.8545848
  75.6889992 103.9649978 -14.7129986  75.1669992 104.3209978 -15.4309986
  75.6559992 104.6399978 -14.0339986  75.6130129 104.1049598 -14.7196645
  74.0379992 101.2039978 -16.1619986  74.1339992 101.8709978 -16.8419986
  73.8979992 100.3889978 -16.6429986  74.0322040 101.1850671 -16.3201622
  73.2069992 102.5849978 -10.5409986  73.0569992 101.6399978 -10.5609986
  72.8529992 102.8659978  -9.6969986  73.1386351 102.4936644 -10.4296780
  58.2419992 104.6629978  -6.5299986  58.4269992 104.5809978  -7.4659986
  59.0919992 104.5389978  -6.1069986  58.3820928 104.6350463  -6.6007107
  74.0629992 104.5549978  -0.9019986  74.6459992 103.8199978  -0.7099986
  74.6269992 105.3269978  -0.8549986  74.2189781 104.5588145  -0.8693836
  75.5599992 102.4579978  -0.2169986  74.6969992 102.0789978  -0.3829986
  76.1639992 101.7189978  -0.2919986  75.5236085 102.3063223  -0.2498305
  73.2849992  98.6119978 -17.0439986  73.8959992  98.2409978 -16.4069986
  72.4479992  98.1909978 -16.8479986  73.2554947  98.5042756 -16.9302748
  72.9179992 100.1669978 -12.0779986  73.1969992  99.2599978 -11.9539986
  73.6769992 100.6009978 -12.4669986  73.0588619 100.1014502 -12.1136205
  73.5289992 100.7489978  -6.6419986  74.4619992 100.9609978  -6.6769986
  73.2939992 100.8499978  -5.7199986  73.6249517 100.7916833  -6.5220870
  73.5589992 101.4859978  -3.8659986  72.7159992 101.7539978  -3.4999986
  74.0009992 102.3079978  -4.0769986  73.5034138 101.6338273  -3.8444482
  57.8399992  99.9329978  -0.3899986  58.7589992  99.8109978  -0.1529986
  57.3899992  99.1829978   0.0000014  57.9050087  99.8149608  -0.3048590
  75.8419992  95.4659978   1.4870014  76.1909992  94.8119978   0.8820014
  75.9889992  96.3029978   1.0470014  75.9096824  95.4896024   1.3446304
  73.5309992  97.4299978 -12.0299986  73.7129992  96.9809978 -11.2049986
  72.9309992  96.8459978 -12.4939986  73.4748187  97.2895552 -11.9797261
  59.0609992  98.2459978  -7.4979986  59.5059992  97.4539978  -7.1959986
  59.5269992  98.9619978  -7.0679986  59.1849718  98.2344534  -7.3984735
  57.3649992 101.2449978  -6.4289986  57.8569992 101.0239978  -7.2199986
  57.7269992 102.0849978  -6.1479986  57.4812923 101.3283468  -6.4992593
  75.3609992  97.5749978  -0.1639986  74.4439992  97.8459978  -0.1989986
  75.4839992  97.0399978  -0.9479986  75.2519672  97.5397885  -0.2748138
  75.3979992  97.4979978 -15.5019986  75.8099992  96.7769978 -15.9769986
  76.0789992  98.1669978 -15.4439986  75.5465536  97.4897766 -15.5591976
  57.6789992  97.5029978 -12.3749986  56.7539992  97.7109978 -12.5039986
  58.1329992  97.9869978 -13.0649986  57.6136298  97.5969299 -12.4859549
  72.4489992 112.4869978 -10.4289986  73.1019992 112.1389978 -11.0369986
  72.9599992 112.9749978  -9.7829986  72.6072777 112.5053815 -10.4247953
  57.6419992  96.2409978  -4.0309986  56.9769992  95.9949978  -3.3879986
  57.1989992  96.8629978  -4.6079986  57.4911168  96.2914214  -4.0210152
  59.8339992 109.4159978   0.1140014  59.0129992 109.5909978  -0.3469986
  59.5819992 109.3429978   1.0340014  59.6875594 109.4300717   0.1753611
  62.7879992 110.3899978  -3.6279986  62.3639992 111.1999978  -3.9099986
  63.6929992 110.4759978  -3.9299986  62.8522138 110.5124160  -3.7073585
  67.0999992 111.7889978  -0.6679986  67.2839992 111.4559978   0.2100014
  67.9459992 112.0989978  -0.9899986  67.2396484 111.7852979  -0.5912383
  69.4449992 113.0749978  -1.4239986  70.1219992 112.4419978  -1.6639986
  69.7659992 113.4759978  -0.6169986  69.5811323 113.0425691  -1.3476842
  74.3619992  95.6649978  -2.3449986  73.5489992  95.9899978  -2.7319986
  74.5949992  94.9039978  -2.8779986  74.2821347  95.6066880  -2.4700159
  60.1899992 113.6469978  -3.5799986  59.4699992 114.0869978  -4.0309986
  59.8249992 113.3959978  -2.7319986  60.0419643 113.6733369  -3.5270871
  62.6569992 113.2469978  -4.5499986  61.7929992 113.3189978  -4.1459986
  62.6019992 113.7939978  -5.3339986  62.5311942 113.3307849  -4.6006000
  67.3679992 113.1349978  -5.3749986  66.9109992 113.6639978  -6.0289986
  67.5309992 113.7379978  -4.6499986  67.3274960 113.2889280  -5.3664726
  69.6959992 112.0129978  -4.4299986  68.7909992 112.1779978  -4.6959986
  70.1239992 112.8659978  -4.4959986  69.6301537 112.1509134  -4.4752905
  72.2999992 113.5829978  -4.1349986  72.1179992 114.4989978  -4.3459986
  72.4769992 113.1719978  -4.9819986  72.2990030 113.6528273  -4.2782834
  59.6049992 112.2699978  -6.6699986  59.5869992 111.8439978  -5.8129986
  60.4099992 111.9509978  -7.0789986  59.7112875 112.1686435  -6.6080485
  61.7459992 110.9799978  -8.0149986  61.5269992 110.0629978  -7.8449986
  62.5699992 111.1199978  -7.5489986  61.8274702 110.8735511  -7.9287473
  64.2829992 111.4499978  -7.1659986  64.4959992 110.5619978  -7.4529986
  64.3479992 111.4149978  -6.2119986  64.3209149 111.3238326  -7.0762631
  67.7919992  97.1139978  -8.0219986  67.1179992  96.4839978  -7.7659986
  68.3559992  96.6299978  -8.6249986  67.7760384  96.9623708  -8.0684980
  72.9349992  95.2209978  -7.9089986  73.5379992  95.7689978  -8.4109986
  72.0649992  95.5399978  -8.1499986  72.8999157  95.3390373  -8.0102090
  74.6619992  96.3599978  -9.5759986  75.2729992  95.8459978 -10.1029986
  75.0439992  97.2369978  -9.5529986  74.7973305  96.4082050  -9.6450582
  60.1189992  95.7479978 -10.1999986  59.3419992  95.5129978 -10.7069986
  60.6489992  94.9509978 -10.1909986  60.0843451  95.6081268 -10.2681373
  58.9549992  95.5459978 -14.3959986  59.3939992  96.1569978 -14.9879986
  58.3209992  96.0839978 -13.9219986  58.9293859  95.7024064 -14.4129695
  64.6979992  95.6739978 -10.3869986  65.5719992  96.0629978 -10.4159986
  64.5619992  95.4589978  -9.4639986  64.7991953  95.6981643 -10.2662383
  70.2549992  95.7039978  -8.7369986  70.3309992  95.7999978  -9.6869986
  69.9799992  94.7969978  -8.6089986  70.2281871  95.5944146  -8.8496056
  71.6079992  95.7299978 -13.0449986  70.9049992  96.3449978 -13.2549986
  71.1629992  94.8929978 -12.9139986  71.4516550  95.7009668 -13.0560163
  58.8559992 111.4939978 -13.4989986  58.1709992 111.4559978 -14.1659986
  58.8599992 112.4069978 -13.2109986  58.7627621 111.6121924 -13.5513874
  60.8159992  97.4619978 -15.9539986  61.3069992  96.8319978 -16.4809986
  61.4389992  97.7579978 -15.2909986  60.9675304  97.4157376 -15.9365060
  65.8419992  97.7549978 -13.4969986  66.0199992  97.1079978 -12.8139986
  65.7879992  98.5889978 -13.0299986  65.8590678  97.7791604 -13.3403699
  67.7199992 112.7029978 -15.1009986  68.5859992 113.0699978 -15.2789986
  67.4739992 112.2639978 -15.9149986  67.8052097 112.6938525 -15.2353981
  74.4289992 112.2659978 -12.4219986  74.2349992 111.5179978 -12.9869986
  74.3899992 113.0239978 -13.0049986  74.3971645 112.2660786 -12.5781852
  60.0759992  96.2619978  -0.6819986  59.7099992  95.4959978  -0.2399986
  60.9889992  96.2909978  -0.3959986  60.1493172  96.1610324  -0.5828110
  62.0489992  95.6119978   0.8530014  62.9479992  95.3379978   0.6690014
  61.6629992  94.8699978   1.3180014  62.1197307  95.4742196   0.8907098
  60.6739992 112.4139978 -16.4739986  60.4059992 112.6999978 -15.5999986
  61.4449992 111.8679978 -16.3209986  60.7415926 112.3792779 -16.3338795
  70.4709992  94.9449978   1.0360014  70.5469992  94.5189978   1.8890014
  71.3639992  94.9579978   0.6930014  70.6022303  94.8883493   1.1065497
  73.6469992 111.0179978  -0.2719986  72.8649992 110.8309978  -0.7919986
  73.5749992 111.9469978  -0.0549986  73.5301924 111.1180637  -0.3138398
  88.0529992 104.9039978 -10.2409986  88.1419992 105.8479978 -10.3729986
  87.4149992 104.6289978 -10.8989986  87.9789062 104.9959812 -10.3480359
  86.9859992 104.1589978  -6.8219986  86.9479992 103.5129978  -6.1169986
  86.6639992 103.6919978  -7.5929986  86.9372679 104.0074276  -6.8297079
  79.3539992 103.7729978  -5.2289986  79.3959992 103.1479978  -4.5059986
  80.0569992 104.3969978  -5.0469986  79.4547345 103.7717873  -5.1054726
  90.6919992 107.0979978  -8.5209986  90.2509992 106.3779978  -8.0699986
  90.6789992 107.8189978  -7.8909986  90.6299215 107.0969291  -8.3741895
  80.2779992 108.2229978  -6.6939986  79.9079992 107.4209978  -7.0639986
  81.2189992 108.0549978  -6.6479986  80.3545984 108.0904638  -6.7384397
  76.8879992 101.8829978 -11.3019986  76.4399992 102.7289978 -11.3199986
  76.3269992 101.3039978 -11.8169986  76.7508546 101.9203993 -11.3741109
  77.5979992 104.0449978  -9.1759986  77.8119992 103.2749978  -8.6479986
  78.3359992 104.1349978  -9.7789986  77.7270200 103.9518587  -9.1852965
  87.8039992 112.2019978  -8.3089986  88.4229992 111.5259978  -8.5819986
  87.5949992 111.9839978  -7.3999986  87.8606056 112.0798869  -8.2236033
  85.3749992 106.5909978  -6.4159986  85.6789992 105.9049978  -7.0109986
  86.0969992 106.7099978  -5.7979986  85.5141240 106.5132314  -6.4139041
  94.0379992  98.1929978  -5.5559986  94.0879992  98.8029978  -4.8199986
  94.4639992  98.6539978  -6.2789986  94.1024108  98.3387709  -5.5529888
  88.5159992 100.9849978  -6.0889986  88.6589992 100.0389978  -6.0689986
  88.4099992 101.1919978  -7.0169986  88.5212403 100.8834797  -6.2117761
  81.6709992  99.0869978  -8.8159986  81.7139992  99.9469978  -9.2349986
  81.2129992  98.5349978  -9.4499986  81.6149871  99.1299245  -8.9589239
  89.3929992  99.2179978 -10.4149986  90.0399992  98.8889978  -9.7909986
  89.9029992  99.7349978 -11.0379986  89.5504351  99.2429067 -10.4138963
  78.2909992 101.4839978  -8.0539986  78.9449992 100.9339978  -7.6219986
  78.3149992 101.2099978  -8.9709986  78.3837199 101.3717167  -8.1188332
  83.4479992 103.0339978  -8.8389986  84.0639992 102.5069978  -8.3299986
  82.8609992 102.3939978  -9.2429986  83.4530154 102.8753954  -8.8239055
  94.4299992  99.6709978  -3.3199986  93.7409992 100.3289978  -3.4149986
  94.4449992  99.4729978  -2.3829986  94.3377756  99.7342603  -3.2064188
  80.4809992  98.0049978  -4.7419986  80.2619992  98.5349978  -5.5089986
  79.8129992  98.2309978  -4.0949986  80.3606975  98.1080967  -4.7594860
  87.8499992 107.5049978 -11.1979986  87.5549992 107.1819978 -12.0499986
  87.5259992 108.4049978 -11.1569986  87.7658460 107.5824464 -11.3090286
  83.0499992 105.6799978  -4.4549986  82.3099992 106.2789978  -4.3509986
  83.7639992 106.2339978  -4.7699986  83.0453500 105.8367829  -4.4833629
  91.1569992  98.5089978  -8.4349986  90.9419992  97.7429978  -7.9019986
  91.8129992  98.9809978  -7.9219986  91.2162673  98.4680728  -8.2928010
  80.0749992  99.8969978  -6.7899986  80.6889992 100.5299978  -6.4169986
  80.5869992  99.4249978  -7.4459986  80.2281962  99.9197249  -6.8277065
  81.4579992 107.6449978  -3.6679986  81.4519992 108.5239978  -4.0459986
  80.6039992 107.5609978  -3.2429986  81.3417925 107.7539535  -3.6623113
  77.5789992 107.3159978 -12.8859986  77.3069992 107.5449978 -13.7739986
  77.6239992 108.1529978 -12.4249986  77.5478097 107.4606163 -12.9453317
  91.2039992 108.9369978  -6.1729986  90.2619992 108.9959978  -6.0109986
  91.4799992 109.8429978  -6.3099986  91.1125865 109.0675288  -6.1693808
  91.5039992  97.2239978  -4.7559986  90.7679992  97.8339978  -4.7929986
  92.1879992  97.6389978  -5.2819986  91.4955367  97.3637551  -4.8321826
  84.5079992  95.3099978  -7.2899986  84.3899992  94.3619978  -7.3439986
  83.6529992  95.6429978  -7.0169986  84.3762805  95.2252202  -7.2604921
  89.4559992 110.7179978  -9.5479986  89.8809992 110.0109978 -10.0329986
  89.7729992 111.5199978  -9.9649986  89.5570266 110.7295190  -9.6707521
  90.6159992 108.6189978 -11.0389986  90.3579992 107.9289978 -11.6509986
  90.6869992 108.1759978 -10.1939986  90.5903050 108.4646814 -11.0084379
  92.3019992 107.1859978  -2.5619986  92.4409992 106.5939978  -3.3009986
  92.4689992 108.0589978  -2.9179986  92.3436193 107.2228896  -2.7113789
  86.7739992 104.1479978 -12.7889986  86.0629992 104.6829978 -13.1409986
  87.4649992 104.2029978 -13.4489986  86.7700751 104.2286777 -12.9264142
  86.8279992 102.6049978 -15.7509986  87.5289992 102.6279978 -15.0989986
  87.1299992 101.9769978 -16.4069986  86.9648202 102.5232212 -15.7504391
  94.1429992 103.5259978  -4.4959986  93.4909992 104.2199978  -4.4069986
  94.6089992 103.7359978  -5.3059986  94.1165937 103.6495019  -4.5932467
  90.1799992 104.3569978 -11.8379986  89.4479992 104.5859978 -11.2639986
  90.6269992 103.6439978 -11.3829986  90.1403963 104.2918729 -11.6980055
  90.0769992 102.5319978  -2.7699986  90.1569992 103.2949978  -2.1979986
  89.4759992 102.8109978  -3.4599986  90.0066547 102.6742457  -2.7849953
  81.8249992 104.9879978  -9.9549986  81.4949992 104.6169978 -10.7729986
  82.4139992 104.3169978  -9.6079986  81.8593970 104.8466063 -10.0200596
  83.1919992 108.4159978  -7.2739986  83.0969992 107.8369978  -8.0299986
  83.9209992 108.0449978  -6.7779986  83.2776011 108.2865561  -7.3103972
  82.1919992 103.7559978  -6.3219986  82.7569992 103.8779978  -7.0839986
  82.5109992 104.3939978  -5.6829986  82.3124166 103.8588791  -6.3399652
  88.5009992 109.2599978  -5.5879986  88.2609992 109.9219978  -4.9399986
  88.3029992 108.4249978  -5.1629986  88.4413826 109.2378115  -5.4418434
  83.0719992 108.1559978  -1.6039986  82.7609992 108.9379978  -1.1489986
  82.4219992 108.0029978  -2.2899986  82.9415538 108.2424087  -1.6344102
  89.0509992 103.5199978 -14.1519986  89.6299992 103.6699978 -13.4059986
  89.4649992 103.9899978 -14.8759986  89.1863358 103.6040954 -14.1476047
  79.9919992 104.3539978  -2.3759986  80.0619992 105.0049978  -1.6769986
  79.1009992 104.4569978  -2.7109986  79.8811690 104.4569249  -2.3256957
  86.7769992 110.2559978 -10.7169986  87.2509992 110.5519978  -9.9399986
  86.2139992 110.9949978 -10.9499986  86.7657890 110.3963036 -10.6421899
  81.3109992 110.2269978  -0.8409986  81.3189992 110.0909978  -1.7879986
  80.3949992 110.1099978  -0.5889986  81.1882528 110.1925463  -0.9366757
  92.7499992  95.2699978 -14.3389986  91.8499992  95.4089978 -14.0439986
  93.0019992  96.1009978 -14.7409986  92.6608683  95.4014055 -14.3529768
  80.8159992 104.0569978 -12.3659986  80.5239992 104.8249978 -12.8569986
  80.1409992 103.3979978 -12.5289986  80.6848497 104.0729745 -12.4551740
  93.9389992 109.6359978 -15.9629986  94.0119992 110.5749978 -15.7929986
  94.8439992 109.3309978 -16.0189986  94.0714170 109.7233282 -15.9472937
  76.9089992 106.4199978  -3.5509986  76.4069992 106.3919978  -4.3659986
  76.9139992 105.5149978  -3.2409986  76.8409832 106.2937486  -3.6205879
  76.6589992 109.2009978  -6.6669986  77.6049992 109.0559978  -6.6859986
  76.5459992 109.9849978  -6.1299986  76.7733578 109.2871697  -6.5969683
  94.8569992 109.8669978  -0.9839986  94.8069992 108.9109978  -1.0219986
  94.0299992 110.1339978  -0.5829986  94.7383831 109.7724680  -0.9349879
  85.8349992 109.4409978  -2.1079986  85.9229992 110.2669978  -1.6329986
  84.9719992 109.1109978  -1.8589986  85.7303357 109.5095468  -2.0092347
  86.2499992 113.2129978 -12.3019986  86.1739992 113.0919978 -13.2489986
  86.2819992 114.1619978 -12.1839986  86.2439380 113.3247677 -12.4154819
  79.9029992 112.0019978 -10.5209986  80.0549992 111.6539978  -9.6429986
  79.0519992 111.6449978 -10.7769986  79.8088344 111.9060879 -10.4353132
  89.3509992 112.3669978 -15.2999986  89.7259992 111.6229978 -15.7709986
  89.3559992 112.0969978 -14.3819986  89.4030098 112.2286392 -15.2403371
  89.0199992 112.2929978 -12.5509986  88.0849992 112.3929978 -12.3719986
  89.2999992 111.5829978 -11.9719986  88.9299471 112.2107933 -12.4483305
  92.0089992 101.3599978  -0.5039986  91.6009992 101.8399978  -1.2249986
  92.0489992 100.4539978  -0.8119986  91.9586221 101.3032449  -0.6441733
  79.1579992 107.7439978  -2.5079986  79.3739992 107.3819978  -1.6479986
  78.3019992 107.3689978  -2.7169986  79.0718810 107.6438837  -2.4187320
  81.7759992  96.2139978  -6.5119986  80.9149992  96.1269978  -6.9199986
  81.7539992  97.0699978  -6.0839986  81.6550491  96.3178003  -6.5100418
  86.4389992  95.9359978  -3.1369986  86.8589992  95.5209978  -2.3839986
  85.5059992  95.7569978  -3.0199986  86.3703736  95.8549910  -3.0181032
  89.7659992  99.6909978  -2.2839986  89.2519992  99.5659978  -1.4859986
  89.6099992 100.6039978  -2.5279986  89.6746967  99.7972123  -2.2079063
  90.5279992 104.5519978 -16.5229986  90.5699992 104.3299978 -17.4529986
  91.3769992 104.9509978 -16.3329986  90.6485253 104.5755498 -16.6246178
  86.1009992  98.4279978 -15.8519986  85.8469992  98.4469978 -14.9299986
  85.8439992  97.5569978 -16.1539986  86.0314508  98.3128280 -15.7665197
  81.8669992 101.1789978  -5.4169986  81.2259992 101.1389978  -4.7079986
  81.9049992 102.1059978  -5.6549986  81.7843010 101.2987668  -5.3520054
  81.8639992 101.3999978 -10.5049986  80.9719992 101.0599978 -10.5639986
  82.3149992 101.0229978 -11.2609986  81.8027642 101.3024910 -10.6152274
  87.3999992 101.8159978 -11.6879986  86.9909992 102.6309978 -11.9799986
  88.1199992 101.6759978 -12.3019986  87.4414439 101.9085372 -11.8109885
  86.5019992 101.9919978  -0.1999986  85.9389992 101.2869978   0.1210014
  87.3279992 101.8709978   0.2680014  86.5366674 101.8792165  -0.0928249
  88.4049992 101.2619978  -8.8739986  88.2089992 101.8679978  -9.5889986
  88.5859992 100.4289978  -9.3079986  88.4026584 101.2322513  -9.0305788
  79.6169992 101.4999978  -3.5499986  79.5789992 101.8999978  -2.6809986
  79.1269992 100.6829978  -3.4599986  79.5455330 101.4442674  -3.4188711
  82.9829992  98.8739978 -16.7509986  82.5519992  98.4289978 -16.0219986
  82.2649992  99.2449978 -17.2639986  82.8269176  98.8632051 -16.7205070
  76.2259992  98.6159978  -9.6989986  76.8559992  98.5869978  -8.9799986
  76.6749992  98.1909978 -10.4299986  76.3730835  98.5545660  -9.6992341
  77.4999992  99.3619978 -14.2749986  77.9739992  99.9529978 -14.8599986
  76.7819992  99.8919978 -13.9279986  77.4678640  99.5145511 -14.3082031
  87.6689992 102.8999978  -4.2029986  87.9919992 102.2689978  -4.8459986
  87.2279992 102.3659978  -3.5419986  87.6536379 102.7413468  -4.2017418
  84.4459992  98.8279978  -9.4189986  83.5349992  98.8849978  -9.1299986
  84.9509992  98.7679978  -8.6079986  84.3896873  98.8276826  -9.2698793
  79.2739992 100.4569978 -10.5919986  78.3849992 100.5559978 -10.9319986
  79.5709992  99.6149978 -10.9379986  79.1924177 100.3567687 -10.6853060
  82.9269992 100.4569978 -12.9349986  83.8589992 100.5859978 -12.7569986
  82.7119992 101.1259978 -13.5849986  83.0254472 100.5650806 -12.9985109
  88.8509992  98.0629978  -6.1539986  88.1739992  98.1939978  -5.4909986
  88.3659992  97.9079978  -6.9649986  88.6927405  98.0599947  -6.1727830
  81.6009992 101.6509978 -15.3689986  81.0589992 101.2719978 -16.0599986
  82.4349992 101.8459978 -15.7969986  81.6394390 101.6254079 -15.5215608
  92.1389992 113.7339978   0.1220014  92.3379992 114.1579978  -0.7119986
  92.7939992 114.0779978   0.7290014  92.2548522 113.8386301   0.0897852
  79.7369992 106.2079978  -0.2699986  80.4689992 106.4629978   0.2920014
  78.9559992 106.4129978   0.2460014  79.7316526 106.2705449  -0.1234824
  85.7659992 101.6149978  -7.5319986  86.3299992 101.0689978  -8.0789986
  85.6179992 101.0939978  -6.7429986  85.8233037 101.4696787  -7.5002771
  80.7679992  97.7519978 -11.1129986  80.4509992  96.8489978 -11.1489986
  81.5489992  97.7539978 -11.6659986  80.8302431  97.6287797 -11.1926898
  84.3919992 100.0039978  -5.1179986  83.5569992 100.4579978  -5.0069986
  84.9159992 100.2799978  -4.3659986  84.3486072 100.1033948  -5.0011864
  84.9369992 106.2169978 -13.4329986  84.1919992 105.7089978 -13.7549986
  84.8019992 106.2659978 -12.4869986  84.8168963 106.1541731 -13.3491174
  92.0869992 105.3499978  -4.6459986  92.7279992 105.8059978  -5.1899986
  91.2559992 105.4629978  -5.1089986  92.0625287 105.4276921  -4.7830113
  88.8339992  99.0309978 -15.2339986  87.8959992  99.1419978 -15.3849986
  89.1319992  99.8869978 -14.9269986  88.7456318  99.1620158 -15.2131855
  86.4559992 106.4009978  -2.1959986  86.1099992 106.0189978  -1.3889986
  86.2559992 107.3339978  -2.1249986  86.3815987 106.4749002  -2.0759539
  89.5529992 100.8979978 -13.5729986  90.4449992 100.7599978 -13.2539986
  89.6089992 101.6889978 -14.1099986  89.6827325 100.9859918 -13.6018783
  80.0609992 105.5119978  -7.6629986  80.8059992 105.5089978  -8.2649986
  80.1389992 104.6879978  -7.1819986  80.1733365 105.4002384  -7.6802570
  87.0619992 107.6749978 -14.4079986  86.7669992 108.5019978 -14.0259986
  86.3589992 107.0559978 -14.2109986  86.9266379 107.7044171 -14.3291346
  77.0689992 103.9719978  -2.3479986  77.2919992 103.5539978  -1.5169986
  76.4669992 103.3599978  -2.7709986  77.0181513 103.8319606  -2.2913260
  84.0859992 103.4889978  -0.1349986  83.7899992 103.3239978  -1.0309986
  85.0169992 103.2689978  -0.1459986  84.1714401 103.4366879  -0.2589794
  88.7059992 108.8629978  -2.2459986  87.8059992 109.0459978  -2.5129986
  88.7399992 109.1219978  -1.3249986  88.5873748 108.9230554  -2.1580836
  94.4379992 101.1069978 -13.8779986  93.8829992 100.7109978 -14.5509986
  94.5379992 102.0179978 -14.1559986  94.3756816 101.1759505 -14.0074967
  94.4009992 106.9079978  -1.0409986  93.5499992 107.1459978  -1.4089986
  94.9909992 106.8909978  -1.7939986  94.3643812 106.9382524  -1.1931547
  92.7329992 109.8929978 -13.4129986  92.3599992 109.0679978 -13.1039986
  93.0099992 109.7099978 -14.3109986  92.7193463 109.7552569 -13.4920475
  89.8929992 104.7009978  -6.3919986  88.9649992 104.4699978  -6.4189986
  90.3439992 103.9239978  -6.7219986  89.8268165 104.5642774  -6.4403210
  82.4359992 109.0299978 -10.2589986  82.9639992 109.8029978 -10.4589986
  81.5559992 109.2539978 -10.5609986  82.3893435 109.1662700 -10.3272690
  78.1909992 103.8919978 -15.6719986  78.8069992 104.5189978 -15.2919986
  77.3289992 104.2079978 -15.3999986  78.1587678 104.0204412 -15.5832791
  83.8639992 106.6929978 -10.6829986  83.6229992 107.6179978 -10.6409986
  83.1229992 106.2339978 -10.2859986  83.7309206 106.7575915 -10.6236231
  84.3779992 110.8419978  -4.3679986  84.7409992 111.6959978  -4.6009986
  84.9099992 110.5499978  -3.6269986  84.4995141 110.9193895  -4.2997903
  82.5469992 111.7139978 -11.1369986  81.5969992 111.8199978 -11.0859986
  82.8989992 112.5349978 -10.7929986  82.4645472 111.8394923 -11.0835148
  87.9219992 106.9409978  -4.6669986  87.4969992 106.7129978  -3.8409986
  88.5029992 106.2019978  -4.8489986  87.9423395 106.8099545  -4.5785586
  90.1249992 107.8699978 -15.5929986  90.4789992 107.4899978 -14.7889986
  89.1769992 107.7759978 -15.5059986  90.0452298 107.8052452 -15.4711313
  90.5809992 111.4929978  -2.1979986  89.9789992 110.9369978  -2.6929986
  90.8619992 112.1599978  -2.8239986  90.5365757 111.5070744  -2.3504325
  94.6289992 112.3489978 -15.3919986  95.3729992 112.9349978 -15.5319986
  93.9349992 112.9179978 -15.0589986  94.6369809 112.5060818 -15.3661410
  78.7029992  98.7259978  -2.7899986  77.8109992  99.0639978  -2.8579986
  78.6049992  97.8699978  -2.3719986  78.5674475  98.6566543  -2.7428296
  90.9909992 106.5419978 -13.3659986  90.7139992 105.8139978 -12.8099986
  91.9189992 106.6609978 -13.1609986  91.0784499 106.4584213 -13.2621956
  78.3549992 110.5299978  -4.3549986  78.5719992 109.5979978  -4.3859986
  78.6009992 110.8049978  -3.4719986  78.4179809 110.4395686  -4.2398309
  83.1529992 108.5519978 -14.6899986  83.2999992 108.0319978 -13.8999986
  83.1499992 109.4589978 -14.3829986  83.1727102 108.6033953 -14.5404075
  79.6059992 105.8039978 -14.1789986  78.9199992 106.1569978 -13.6119986
  80.1289992 106.5669978 -14.4259986  79.5828402 105.9553901 -14.1348199
  87.4379992  98.4669978  -3.8999986  88.1369992  98.5409978  -3.2499986
  87.0569992  97.6019978  -3.7459986  87.4822097  98.3602389  -3.7902003
  88.2219992  98.1189978 -12.8029986  88.4419992  98.5899978 -13.6069986
  88.7809992  98.5129978 -12.1329986  88.3276732  98.2367287 -12.8224967
  85.8909992 110.2489978 -13.9399986  85.0739992 110.7459978 -13.8879986
  86.4199992 110.7249978 -14.5809986  85.8508125 110.3811989 -14.0194694
  85.4219992  99.8469978 -11.9679986  86.2339992 100.3509978 -11.9219986
  85.1779992  99.7019978 -11.0539986  85.5001467  99.8963749 -11.8381425
  85.9579992 100.8329978  -2.7839986  86.0769992 101.4069978  -2.0269986
  86.6129992 100.1449978  -2.6689986  86.0628684 100.8185194  -2.6648326
  86.3059992  96.9279978 -11.0299986  85.9589992  97.5449978 -10.3859986
  86.9649992  97.4289978 -11.5119986  86.3475090  97.0801575 -11.0069319
  83.2289992 111.2929978 -13.9589986  83.3899992 112.0929978 -14.4589986
  83.0319992 111.5999978 -13.0739986  83.2243906 111.4438678 -13.9077667
  81.9639992  97.9909978 -14.3429986  81.8799992  98.8789978 -13.9959986
  82.8539992  97.7259978 -14.1109986  82.0728163  98.0767179 -14.2641404
  92.1619992  98.7399978  -1.9489986  91.2459992  99.0019978  -2.0359986
  92.4979992  98.7369978  -2.8449986  92.0818499  98.7755163  -2.0821234
  90.7649992 102.4899978  -7.8529986  89.9669992 102.0749978  -8.1809986
  91.2099992 101.7999978  -7.3619986  90.7159684 102.3398628  -7.8314773
  80.2219992 108.4179978 -15.2829986  80.8139992 109.1179978 -15.0059986
  80.6809992 107.9849978 -16.0019986  80.3651652 108.4552675 -15.3423467
  78.5379992 101.0829978 -16.1669986  78.4929992 102.0219978 -15.9879986
  77.6499992 100.8469978 -16.4359986  78.4118166 101.1796687 -16.1788476
  91.8509992 111.7459978  -6.2309986  91.6949992 112.4249978  -6.8879986
  92.7839992 111.8179978  -6.0279986  91.9557387 111.8486390  -6.2934658
  79.3459992  95.8639978  -7.4929986  79.1169992  95.9229978  -8.4209986
  78.9039992  95.0729978  -7.1869986  79.2548801  95.7650540  -7.5785271
  78.2769992 109.8049978 -11.3329986  77.4439992 110.2769978 -11.3059986
  78.8219992 110.3149978 -11.9319986  78.2367857 109.9384791 -11.4102858
  77.5649992 112.4169978  -0.0029986  78.1049992 112.2009978   0.7570014
  77.0839992 111.6119978  -0.1929986  77.5739219 112.2785156   0.0754282
  82.1619992 111.3369978   1.6170014  82.9299992 110.8779978   1.9580014
  82.1409992 111.1109978   0.6870014  82.2642135 111.2436668   1.5379491
  86.2539992 110.8449978 -17.0069986  85.6099992 110.2139978 -16.6859986
  87.0159992 110.3139978 -17.2389986  86.2688058 110.6867902 -16.9943962
  88.7389992 109.7169978   0.3460014  88.3879992 108.8599978   0.5900014
  89.4649992 109.8589978   0.9530014  88.7891895 109.6191351   0.4613770
  90.8589992 110.6619978 -16.7739986  91.1419992 109.8669978 -16.3209986
  91.5979992 110.8949978 -17.3349986  90.9977096 110.5847049 -16.7878896
  77.4719992 106.2279978   0.9510014  77.6159992 105.3259978   0.6650014
  76.6999992 106.5139978   0.4640014  77.3872733 106.1431798   0.8459532
  81.8129992 106.5709978 -16.9159986  81.8779992 105.7769978 -16.3859986
  82.4659992 106.4529978 -17.6059986  81.9101605 106.4463430 -16.9367003
  84.1269992 106.1969978   0.3840014  83.7989992 106.4679978  -0.4729986
  84.2789992 105.2559978   0.2960014  84.1026412 106.1069046   0.2547822
  89.8619992 106.1129978  -2.2329986  90.6069992 106.7019978  -2.3519986
  89.1049992 106.6949978  -2.1689986  89.8615470 106.2722128  -2.2406201
  78.3049992 103.4279978   0.3710014  78.7129992 102.5709978   0.2500014
  78.0439992 103.4419978   1.2920014  78.3256016 103.3125119   0.4789192
  82.9629992 104.5439978 -14.6099986  82.5029992 104.0599978 -13.9249986
  83.2179992 103.8749978 -15.2459986  82.9344856 104.3873669 -14.6021603
  82.2519992 102.4369978  -2.2539986  81.6329992 103.1109978  -1.9739986
  82.5959992 102.7579978  -3.0879986  82.2137123 102.5726887  -2.3283612
  84.0339992 102.7869978 -16.3479986  83.8529992 102.6319978 -17.2749986
  84.9839992 102.8949978 -16.3029986  84.1376566 102.7803669 -16.4689071
  87.2709992 104.9079978   1.0230014  88.2249992 104.9919978   0.9960014
  87.1109992 104.1959978   1.6430014  87.3797182 104.8232842   1.1030733
  93.4239992 105.1409978 -16.9019986  93.1499992 104.7169978 -17.7149986
  93.4629992 106.0729978 -17.1189986  93.3917716 105.2088827 -17.0425714
  82.5909992  99.7919978  -1.1719986  82.7409992  99.0629978  -1.7739986
  82.5929992 100.5689978  -1.7309986  82.6117967  99.7972708  -1.3299459
  83.0039992  98.1609978  -3.6789986  83.5389992  98.6129978  -4.3309986
  82.1509992  98.0529978  -4.1019986  82.9620374  98.2082665  -3.8253290
  84.5849992 103.6009978  -3.4399986  85.3359992 103.4449978  -4.0129986
  84.2459992 104.4529978  -3.7149986  84.6419587 103.6948138  -3.5555922
  89.0009992 101.4159978   1.5890014  89.1929992 100.4849978   1.4770014
  89.8589992 101.8409978   1.5780014  89.1432182 101.3460070   1.5721862
  90.3179992 104.2049978  -0.3339986  90.0359992 104.9139978  -0.9119986
  91.2599992 104.1319978  -0.4849986  90.4067921 104.2922193  -0.4335775
  81.0699992 100.9899978   0.7390014  80.3019992 100.4569978   0.5290014
  81.7479992 100.6799978   0.1400014  81.0567235 100.8751754   0.6292413
  83.8089992  95.6179978  -3.2479986  83.7109992  96.5639978  -3.3529986
  83.0669992  95.2449978  -3.7239986  83.6952534  95.6971773  -3.3267400
  85.0729992  99.9389978   0.3160014  84.8379992  99.7199978   1.2170014
  84.2899992  99.7319978  -0.1939986  84.9349095  99.8809892   0.3705353
  87.7889992  99.0669978  -0.6089986  86.8409992  99.0989978  -0.4769986
  88.1009992  98.4409978   0.0450014  87.7015293  98.9867923  -0.5025852
  89.4229992  97.7009978   1.3960014  89.3259992  96.7489978   1.3910014
  89.1009992  97.9689978   2.2570014  89.3662468  97.6070884   1.5116210
  79.2499992  98.9099978   0.4440014  79.4619992  98.2039978  -0.1659986
  79.1389992  98.4729978   1.2880014  79.2640269  98.7541921   0.4745873
  84.0309992  94.9119978  -0.5769986  84.7429992  94.2719978  -0.5909986
  83.9299992  95.1779978  -1.4899986  84.1147387  94.8604330  -0.7024437
  84.3849992  96.5939978   1.4770014  84.2529992  96.1189978   0.6570014
  83.7849992  97.3389978   1.4220014  84.2859070  96.6295789   1.3573251
  83.9309992 113.4769978 -15.3469986  84.8639992 113.6349978 -15.2029986
  83.6669992 114.1529978 -15.9719986  84.0229911 113.5899373 -15.4117278
  77.4989992 108.1139978 -15.8639986  78.4129992 108.1929978 -15.5909986
  77.5069992 107.4269978 -16.5299986  77.6250655 108.0319205 -15.9167083
  76.1479992 113.5069978 -10.7869986  75.5009992 113.0449978 -11.3189986
  76.5029992 112.8349978 -10.2039986  76.1073741 113.3529774 -10.7810825
  77.0179992 111.5869978  -8.9819986  76.6839992 110.7069978  -8.8099986
  77.2409992 111.9329978  -8.1169986  77.0023721 111.5131938  -8.8415832
  94.5669992 112.3969978  -6.0009986  94.5449992 112.5819978  -5.0619986
  95.2569992 112.9649978  -6.3419986  94.6573439 112.4991887  -5.9185209
  94.1299992 111.9639978  -3.0799986  93.6429992 111.2289978  -3.4509986
  94.6789992 111.5699978  -2.4019986  94.1375247 111.8101057  -3.0391539
  92.5809992 107.7539978   1.5590014  91.7149992 107.6489978   1.9530014
  92.9569992 108.5119978   2.0050014  92.5133401 107.8421708   1.6732620
  93.8819992 106.0099978 -12.9269986  94.7319992 106.4309978 -12.7999986
  93.8869992 105.2699978 -12.3199986  93.9991143 105.9676094 -12.8275250
  94.2759992 104.0639978 -11.1039986  93.5499992 103.5839978 -10.7059986
  94.8579992 104.2689978 -10.3709986  94.2552730 104.0260184 -10.9505851
  94.0349992 106.8489978  -6.1559986  94.8689992 106.4709978  -6.4369986
  94.1469992 107.7919978  -6.2749986  94.1641917 106.9247943  -6.2105139
  92.5219992 109.7269978  -3.8489986  91.8739992 110.0519978  -3.2239986
  92.0039992 109.2859978  -4.5229986  92.3634196 109.7118651  -3.8545848
  94.5449992 103.9649978 -14.7129986  94.0229992 104.3209978 -15.4309986
  94.5119992 104.6399978 -14.0339986  94.4690129 104.1049598 -14.7196645
  92.8939992 101.2039978 -16.1619986  92.9899992 101.8709978 -16.8419986
  92.7539992 100.3889978 -16.6429986  92.8882040 101.1850671 -16.3201622
  92.0629992 102.5849978 -10.5409986  91.9129992 101.6399978 -10.5609986
  91.7089992 102.8659978  -9.6969986  91.9946351 102.4936644 -10.4296780
  77.0979992 104.6629978  -6.5299986  77.2829992 104.5809978  -7.4659986
  77.9479992 104.5389978  -6.1069986  77.2380928 104.6350463  -6.6007107
  92.9189992 104.5549978  -0.9019986  93.5019992 103.8199978  -0.7099986
  93.4829992 105.3269978  -0.8549986  93.0749781 104.5588145  -0.8693836
  94.4159992 102.4579978  -0.2169986  93.5529992 102.0789978  -0.3829986
  95.0199992 101.7189978  -0.2919986  94.3796085 102.3063223  -0.2498305
  92.1409992  98.6119978 -17.0439986  92.7519992  98.2409978 -16.4069986
  91.3039992  98.1909978 -16.8479986  92.1114947  98.5042756 -16.9302748
  91.7739992 100.1669978 -12.0779986  92.0529992  99.2599978 -11.9539986
  92.5329992 100.6009978 -12.4669986  91.9148619 100.1014502 -12.1136205
  92.3849992 100.7489978  -6.6419986  93.3179992 100.9609978  -6.6769986
  92.1499992 100.8499978  -5.7199986  92.4809517 100.7916833  -6.5220870
  92.4149992 101.4859978  -3.8659986  91.5719992 101.7539978  -3.4999986
  92.8569992 102.3079978  -4.0769986  92.3594138 101.6338273  -3.8444482
  76.6959992  99.9329978  -0.3899986  77.6149992  99.8109978  -0.1529986
  76.2459992  99.1829978   0.0000014  76.7610087  99.8149608  -0.3048590
  94.6979992  95.4659978   1.4870014  95.0469992  94.8119978   0.8820014
  94.8449992  96.3029978   1.0470014  94.7656824  95.4896024   1.3446304
  92.3869992  97.4299978 -12.0299986  92.5689992  96.9809978 -11.2049986
  91.7869992  96.8459978 -12.4939986  92.3308187  97.2895552 -11.9797261
  77.9169992  98.2459978  -7.4979986  78.3619992  97.4539978  -7.1959986
  78.3829992  98.9619978  -7.0679986  78.0409718  98.2344534  -7.3984735
  76.2209992 101.2449978  -6.4289986  76.7129992 101.0239978  -7.2199986
  76.5829992 102.0849978  -6.1479986  76.3372923 101.3283468  -6.4992593
  94.2169992  97.5749978  -0.1639986  93.2999992  97.8459978  -0.1989986
  94.3399992  97.0399978  -0.9479986  94.1079672  97.5397885  -0.2748138
  94.2539992  97.4979978 -15.5019986  94.6659992  96.7769978 -15.9769986
  94.9349992  98.1669978 -15.4439986  94.4025536  97.4897766 -15.5591976
  76.5349992  97.5029978 -12.3749986  75.6099992  97.7109978 -12.5039986
  76.9889992  97.9869978 -13.0649986  76.4696298  97.5969299 -12.4859549
  91.3049992 112.4869978 -10.4289986  91.9579992 112.1389978 -11.0369986
  91.8159992 112.9749978  -9.7829986  91.4632777 112.5053815 -10.4247953
  76.4979992  96.2409978  -4.0309986  75.8329992  95.9949978  -3.3879986
  76.0549992  96.8629978  -4.6079986  76.3471168  96.2914214  -4.0210152
  78.6899992 109.4159978   0.1140014  77.8689992 109.5909978  -0.3469986
  78.4379992 109.3429978   1.0340014  78.5435594 109.4300717   0.1753611
  81.6439992 110.3899978  -3.6279986  81.2199992 111.1999978  -3.9099986
  82.5489992 110.4759978  -3.9299986  81.7082138 110.5124160  -3.7073585
  85.9559992 111.7889978  -0.6679986  86.1399992 111.4559978   0.2100014
  86.8019992 112.0989978  -0.9899986  86.0956484 111.7852979  -0.5912383
  88.3009992 113.0749978  -1.4239986  88.9779992 112.4419978  -1.6639986
  88.6219992 113.4759978  -0.6169986  88.4371323 113.0425691  -1.3476842
  93.2179992  95.6649978  -2.3449986  92.4049992  95.9899978  -2.7319986
  93.4509992  94.9039978  -2.8779986  93.1381347  95.6066880  -2.4700159
  79.0459992 113.6469978  -3.5799986  78.3259992 114.0869978  -4.0309986
  78.6809992 113.3959978  -2.7319986  78.8979643 113.6733369  -3.5270871
  81.5129992 113.2469978  -4.5499986  80.6489992 113.3189978  -4.1459986
  81.4579992 113.7939978  -5.3339986  81.3871942 113.3307849  -4.6006000
  86.2239992 113.1349978  -5.3749986  85.7669992 113.6639978  -6.0289986
  86.3869992 113.7379978  -4.6499986  86.1834960 113.2889280  -5.3664726
  88.5519992 112.0129978  -4.4299986  87.6469992 112.1779978  -4.6959986
  88.9799992 112.8659978  -4.4959986  88.4861537 112.1509134  -4.4752905
  91.1559992 113.5829978  -4.1349986  90.9739992 114.4989978  -4.3459986
  91.3329992 113.1719978  -4.9819986  91.1550030 113.6528273  -4.2782834
  78.4609992 112.2699978  -6.6699986  78.4429992 111.8439978  -5.8129986
  79.2659992 111.9509978  -7.0789986  78.5672875 112.1686435  -6.6080485
  80.6019992 110.9799978  -8.0149986  80.3829992 110.0629978  -7.8449986
  81.4259992 111.1199978  -7.5489986  80.6834702 110.8735511  -7.9287473
  83.1389992 111.4499978  -7.1659986  83.3519992 110.5619978  -7.4529986
  83.2039992 111.4149978  -6.2119986  83.1769149 111.3238326  -7.0762631
  86.6479992  97.1139978  -8.0219986  85.9739992  96.4839978  -7.7659986
  87.2119992  96.6299978  -8.6249986  86.6320384  96.9623708  -8.0684980
  91.7909992  95.2209978  -7.9089986  92.3939992  95.7689978  -8.4109986
  90.9209992  95.5399978  -8.1499986  91.7559157  95.3390373  -8.0102090
  93.5179992  96.3599978  -9.5759986  94.1289992  95.8459978 -10.1029986
  93.8999992  97.2369978  -9.5529986  93.6533305  96.4082050  -9.6450582
  78.9749992  95.7479978 -10.1999986  78.1979992  95.5129978 -10.7069986
  79.5049992  94.9509978 -10.1909986  78.9403451  95.6081268 -10.2681373
  77.8109992  95.5459978 -14.3959986  78.2499992  96.1569978 -14.9879986
  77.1769992  96.0839978 -13.9219986  77.7853859  95.7024064 -14.4129695
  83.5539992  95.6739978 -10.3869986  84.4279992  96.0629978 -10.4159986
  83.4179992  95.4589978  -9.4639986  83.6551953  95.6981643 -10.2662383
  89.1109992  95.7039978  -8.7369986  89.1869992  95.7999978  -9.6869986
  88.8359992  94.7969978  -8.6089986  89.0841871  95.5944146  -8.8496056
  90.4639992  95.7299978 -13.0449986  89.7609992  96.3449978 -13.2549986
  90.0189992  94.8929978 -12.9139986  90.3076550  95.7009668 -13.0560163
  77.7119992 111.4939978 -13.4989986  77.0269992 111.4559978 -14.1659986
  77.7159992 112.4069978 -13.2109986  77.6187621 111.6121924 -13.5513874
  79.6719992  97.4619978 -15.9539986  80.1629992  96.8319978 -16.4809986
  80.2949992  97.7579978 -15.2909986  79.8235304  97.4157376 -15.9365060
  84.6979992  97.7549978 -13.4969986  84.8759992  97.1079978 -12.8139986
  84.6439992  98.5889978 -13.0299986  84.7150678  97.7791604 -13.3403699
  86.5759992 112.7029978 -15.1009986  87.4419992 113.0699978 -15.2789986
  86.3299992 112.2639978 -15.9149986  86.6612097 112.6938525 -15.2353981
  93.2849992 112.2659978 -12.4219986  93.0909992 111.5179978 -12.9869986
  93.2459992 113.0239978 -13.0049986  93.2531645 112.2660786 -12.5781852
  78.9319992  96.2619978  -0.6819986  78.5659992  95.4959978  -0.2399986
  79.8449992  96.2909978  -0.3959986  79.0053172  96.1610324  -0.5828110
  80.9049992  95.6119978   0.8530014  81.8039992  95.3379978   0.6690014
  80.5189992  94.8699978   1.3180014  80.9757307  95.4742196   0.8907098
  79.5299992 112.4139978 -16.4739986  79.2619992 112.6999978 -15.5999986
  80.3009992 111.8679978 -16.3209986  79.5975927 112.3792779 -16.3338795
  89.3269992  94.9449978   1.0360014  89.4029992  94.5189978   1.8890014
  90.2199992  94.9579978   0.6930014  89.4582303  94.8883493   1.1065497
  92.5029992 111.0179978  -0.2719986  91.7209992 110.8309978  -0.7919986
  92.4309992 111.9469978  -0.0549986  92.3861924 111.1180637  -0.3138398
 106.9089992 104.9039978 -10.2409986 106.9979992 105.8479978 -10.3729986
 106.2709992 104.6289978 -10.8989986 106.8349062 104.9959812 -10.3480359
 105.8419992 104.1589978  -6.8219986 105.8039992 103.5129978  -6.1169986
 105.5199992 103.6919978  -7.5929986 105.7932679 104.0074276  -6.8297079
  98.2099992 103.7729978  -5.2289986  98.2519992 103.1479978  -4.5059986
  98.9129992 104.3969978  -5.0469986  98.3107345 103.7717873  -5.1054726
 109.5479992 107.0979978  -8.5209986 109.1069992 106.3779978  -8.0699986
 109.5349992 107.8189978  -7.8909986 109.4859215 107.0969291  -8.3741895
  99.1339992 108.2229978  -6.6939986  98.7639992 107.4209978  -7.0639986
 100.0749992 108.0549978  -6.6479986  99.2105984 108.0904638  -6.7384397
  95.7439992 101.8829978 -11.3019986  95.2959992 102.7289978 -11.3199986
  95.1829992 101.3039978 -11.8169986  95.6068546 101.9203993 -11.3741109
  96.4539992 104.0449978  -9.1759986  96.6679992 103.2749978  -8.6479986
  97.1919992 104.1349978  -9.7789986  96.5830200 103.9518587  -9.1852964
 106.6599992 112.2019978  -8.3089986 107.2789992 111.5259978  -8.5819986
 106.4509992 111.9839978  -7.3999986 106.7166056 112.0798869  -8.2236033
 104.2309992 106.5909978  -6.4159986 104.5349992 105.9049978  -7.0109986
 104.9529992 106.7099978  -5.7979986 104.3701240 106.5132314  -6.4139041
 112.8939992  98.1929978  -5.5559986 112.9439992  98.8029978  -4.8199986
 113.3199992  98.6539978  -6.2789986 112.9584108  98.3387709  -5.5529888
 107.3719992 100.9849978  -6.0889986 107.5149992 100.0389978  -6.0689986
 107.2659992 101.1919978  -7.0169986 107.3772403 100.8834797  -6.2117761
 100.5269992  99.0869978  -8.8159986 100.5699992  99.9469978  -9.2349986
 100.0689992  98.5349978  -9.4499986 100.4709871  99.1299245  -8.9589239
 108.2489992  99.2179978 -10.4149986 108.8959992  98.8889978  -9.7909986
 108.7589992  99.7349978 -11.0379986 108.4064351  99.2429067 -10.4138963
  97.1469992 101.4839978  -8.0539986  97.8009992 100.9339978  -7.6219986
  97.1709992 101.2099978  -8.9709986  97.2397199 101.3717167  -8.1188332
 102.3039992 103.0339978  -8.8389986 102.9199992 102.5069978  -8.3299986
 101.7169992 102.3939978  -9.2429986 102.3090154 102.8753954  -8.8239055
 113.2859992  99.6709978  -3.3199986 112.5969992 100.3289978  -3.4149986
 113.3009992  99.4729978  -2.3829986 113.1937756  99.7342603  -3.2064188
  99.3369992  98.0049978  -4.7419986  99.1179992  98.5349978  -5.5089986
  98.6689992  98.2309978  -4.0949986  99.2166975  98.1080967  -4.7594860
 106.7059992 107.5049978 -11.1979986 106.4109992 107.1819978 -12.0499986
 106.3819992 108.4049978 -11.1569986 106.6218460 107.5824464 -11.3090286
 101.9059992 105.6799978  -4.4549986 101.1659992 106.2789978  -4.3509986
 102.6199992 106.2339978  -4.7699986 101.9013500 105.8367829  -4.4833629
 110.0129992  98.5089978  -8.4349986 109.7979992  97.7429978  -7.9019986
 110.6689992  98.9809978  -7.9219986 110.0722673  98.4680728  -8.2928010
  98.9309992  99.8969978  -6.7899986  99.5449992 100.5299978  -6.4169986
  99.4429992  99.4249978  -7.4459986  99.0841962  99.9197249  -6.8277065
 100.3139992 107.6449978  -3.6679986 100.3079992 108.5239978  -4.0459986
  99.4599992 107.5609978  -3.2429986 100.1977925 107.7539535  -3.6623113
  96.4349992 107.3159978 -12.8859986  96.1629992 107.5449978 -13.7739986
  96.4799992 108.1529978 -12.4249986  96.4038097 107.4606163 -12.9453317
 110.0599992 108.9369978  -6.1729986 109.1179992 108.9959978  -6.0109986
 110.3359992 109.8429978  -6.3099986 109.9685865 109.0675288  -6.1693808
 110.3599992  97.2239978  -4.7559986 109.6239992  97.8339978  -4.7929986
 111.0439992  97.6389978  -5.2819986 110.3515367  97.3637551  -4.8321826
 103.3639992  95.3099978  -7.2899986 103.2459992  94.3619978  -7.3439986
 102.5089992  95.6429978  -7.0169986 103.2322805  95.2252202  -7.2604921
 108.3119992 110.7179978  -9.5479986 108.7369992 110.0109978 -10.0329986
 108.6289992 111.5199978  -9.9649986 108.4130266 110.7295190  -9.6707521
 109.4719992 108.6189978 -11.0389986 109.2139992 107.9289978 -11.6509986
 109.5429992 108.1759978 -10.1939986 109.4463050 108.4646814 -11.0084379
 111.1579992 107.1859978  -2.5619986 111.2969992 106.5939978  -3.3009986
 111.3249992 108.0589978  -2.9179986 111.1996193 107.2228896  -2.7113789
 105.6299992 104.1479978 -12.7889986 104.9189992 104.6829978 -13.1409986
 106.3209992 104.2029978 -13.4489986 105.6260751 104.2286777 -12.9264142
 105.6839992 102.6049978 -15.7509986 106.3849992 102.6279978 -15.0989986
 105.9859992 101.9769978 -16.4069986 105.8208202 102.5232212 -15.7504391
 112.9989992 103.5259978  -4.4959986 112.3469992 104.2199978  -4.4069986
 113.4649992 103.7359978  -5.3059986 112.9725937 103.6495019  -4.5932467
 109.0359992 104.3569978 -11.8379986 108.3039992 104.5859978 -11.2639986
 109.4829992 103.6439978 -11.3829986 108.9963963 104.2918729 -11.6980055
 108.9329992 102.5319978  -2.7699986 109.0129992 103.2949978  -2.1979986
 108.3319992 102.8109978  -3.4599986 108.8626547 102.6742457  -2.7849953
 100.6809992 104.9879978  -9.9549986 100.3509992 104.6169978 -10.7729986
 101.2699992 104.3169978  -9.6079986 100.7153970 104.8466063 -10.0200596
 102.0479992 108.4159978  -7.2739986 101.9529992 107.8369978  -8.0299986
 102.7769992 108.0449978  -6.7779986 102.1336011 108.2865561  -7.3103972
 101.0479992 103.7559978  -6.3219986 101.6129992 103.8779978  -7.0839986
 101.3669992 104.3939978  -5.6829986 101.1684166 103.8588791  -6.3399652
 107.3569992 109.2599978  -5.5879986 107.1169992 109.9219978  -4.9399986
 107.1589992 108.4249978  -5.1629986 107.2973826 109.2378115  -5.4418434
 101.9279992 108.1559978  -1.6039986 101.6169992 108.9379978  -1.1489986
 101.2779992 108.0029978  -2.2899986 101.7975538 108.2424087  -1.6344102
 107.9069992 103.5199978 -14.1519986 108.4859992 103.6699978 -13.4059986
 108.3209992 103.9899978 -14.8759986 108.0423358 103.6040955 -14.1476047
  98.8479992 104.3539978  -2.3759986  98.9179992 105.0049978  -1.6769986
  97.9569992 104.4569978  -2.7109986  98.7371690 104.4569249  -2.3256957
 105.6329992 110.2559978 -10.7169986 106.1069992 110.5519978  -9.9399986
 105.0699992 110.9949978 -10.9499986 105.6217890 110.3963036 -10.6421899
 100.1669992 110.2269978  -0.8409986 100.1749992 110.0909978  -1.7879986
  99.2509992 110.1099978  -0.5889986 100.0442528 110.1925463  -0.9366757
 111.6059992  95.2699978 -14.3389986 110.7059992  95.4089978 -14.0439986
 111.8579992  96.1009978 -14.7409986 111.5168683  95.4014055 -14.3529768
  99.6719992 104.0569978 -12.3659986  99.3799992 104.8249978 -12.8569986
  98.9969992 103.3979978 -12.5289986  99.5408497 104.0729745 -12.4551740
 112.7949992 109.6359978 -15.9629986 112.8679992 110.5749978 -15.7929986
 113.6999992 109.3309978 -16.0189986 112.9274170 109.7233282 -15.9472937
  95.7649992 106.4199978  -3.5509986  95.2629992 106.3919978  -4.3659986
  95.7699992 105.5149978  -3.2409986  95.6969832 106.2937486  -3.6205879
  95.5149992 109.2009978  -6.6669986  96.4609992 109.0559978  -6.6859986
  95.4019992 109.9849978  -6.1299986  95.6293578 109.2871697  -6.5969683
 113.7129992 109.8669978  -0.9839986 113.6629992 108.9109978  -1.0219986
 112.8859992 110.1339978  -0.5829986 113.5943831 109.7724680  -0.9349879
 104.6909992 109.4409978  -2.1079986 104.7789992 110.2669978  -1.6329986
 103.8279992 109.1109978  -1.8589986 104.5863357 109.5095468  -2.0092347
 105.1059992 113.2129978 -12.3019986 105.0299992 113.0919978 -13.2489986
 105.1379992 114.1619978 -12.1839986 105.0999380 113.3247677 -12.4154819
  98.7589992 112.0019978 -10.5209986  98.9109992 111.6539978  -9.6429986
  97.9079992 111.6449978 -10.7769986  98.6648344 111.9060879 -10.4353132
 108.2069992 112.3669978 -15.2999986 108.5819992 111.6229978 -15.7709986
 108.2119992 112.0969978 -14.3819986 108.2590098 112.2286392 -15.2403371
 107.8759992 112.2929978 -12.5509986 106.9409992 112.3929978 -12.3719986
 108.1559992 111.5829978 -11.9719986 107.7859471 112.2107933 -12.4483305
 110.8649992 101.3599978  -0.5039986 110.4569992 101.8399978  -1.2249986
 110.9049992 100.4539978  -0.8119986 110.8146221 101.3032449  -0.6441733
  98.0139992 107.7439978  -2.5079986  98.2299992 107.3819978  -1.6479986
  97.1579992 107.3689978  -2.7169986  97.9278810 107.6438837  -2.4187320
 100.6319992  96.2139978  -6.5119986  99.7709992  96.1269978  -6.9199986
 100.6099992  97.0699978  -6.0839986 100.5110491  96.3178003  -6.5100418
 105.2949992  95.9359978  -3.1369986 105.7149992  95.5209978  -2.3839986
 104.3619992  95.7569978  -3.0199986 105.2263736  95.8549910  -3.0181032
 108.6219992  99.6909978  -2.2839986 108.1079992  99.5659978  -1.4859986
 108.4659992 100.6039978  -2.5279986 108.5306967  99.7972123  -2.2079063
 109.3839992 104.5519978 -16.5229986 109.4259992 104.3299978 -17.4529986
 110.2329992 104.9509978 -16.3329986 109.5045253 104.5755498 -16.6246178
 104.9569992  98.4279978 -15.8519986 104.7029992  98.4469978 -14.9299986
 104.6999992  97.5569978 -16.1539986 104.8874508  98.3128280 -15.7665197
 100.7229992 101.1789978  -5.4169986 100.0819992 101.1389978  -4.7079986
 100.7609992 102.1059978  -5.6549986 100.6403010 101.2987668  -5.3520054
 100.7199992 101.3999978 -10.5049986  99.8279992 101.0599978 -10.5639986
 101.1709992 101.0229978 -11.2609986 100.6587642 101.3024910 -10.6152274
 106.2559992 101.8159978 -11.6879986 105.8469992 102.6309978 -11.9799986
 106.9759992 101.6759978 -12.3019986 106.2974439 101.9085372 -11.8109885
 105.3579992 101.9919978  -0.1999986 104.7949992 101.2869978   0.1210014
 106.1839992 101.8709978   0.2680014 105.3926674 101.8792165  -0.0928249
 107.2609992 101.2619978  -8.8739986 107.0649992 101.8679978  -9.5889986
 107.4419992 100.4289978  -9.3079986 107.2586584 101.2322513  -9.0305788
  98.4729992 101.4999978  -3.5499986  98.4349992 101.8999978  -2.6809986
  97.9829992 100.6829978  -3.4599986  98.4015330 101.4442674  -3.4188711
 101.8389992  98.8739978 -16.7509986 101.4079992  98.4289978 -16.0219986
 101.1209992  99.2449978 -17.2639986 101.6829176  98.8632051 -16.7205070
  95.0819992  98.6159978  -9.6989986  95.7119992  98.5869978  -8.9799986
  95.5309992  98.1909978 -10.4299986  95.2290835  98.5545660  -9.6992341
  96.3559992  99.3619978 -14.2749986  96.8299992  99.9529978 -14.8599986
  95.6379992  99.8919978 -13.9279986  96.3238640  99.5145511 -14.3082031
 106.5249992 102.8999978  -4.2029986 106.8479992 102.2689978  -4.8459986
 106.0839992 102.3659978  -3.5419986 106.5096379 102.7413468  -4.2017418
 103.3019992  98.8279978  -9.4189986 102.3909992  98.8849978  -9.1299986
 103.8069992  98.7679978  -8.6079986 103.2456873  98.8276826  -9.2698793
  98.1299992 100.4569978 -10.5919986  97.2409992 100.5559978 -10.9319986
  98.4269992  99.6149978 -10.9379986  98.0484177 100.3567687 -10.6853060
 101.7829992 100.4569978 -12.9349986 102.7149992 100.5859978 -12.7569986
 101.5679992 101.1259978 -13.5849986 101.8814472 100.5650806 -12.9985109
 107.7069992  98.0629978  -6.1539986 107.0299992  98.1939978  -5.4909986
 107.2219992  97.9079978  -6.9649986 107.5487405  98.0599947  -6.1727830
 100.4569992 101.6509978 -15.3689986  99.9149992 101.2719978 -16.0599986
 101.2909992 101.8459978 -15.7969986 100.4954390 101.6254079 -15.5215608
 110.9949992 113.7339978   0.1220014 111.1939992 114.1579978  -0.7119986
 111.6499992 114.0779978   0.7290014 111.1108522 113.8386301   0.0897852
  98.5929992 106.2079978  -0.2699986  99.3249992 106.4629978   0.2920014
  97.8119992 106.4129978   0.2460014  98.5876526 106.2705450  -0.1234824
 104.6219992 101.6149978  -7.5319986 105.1859992 101.0689978  -8.0789986
 104.4739992 101.0939978  -6.7429986 104.6793037 101.4696787  -7.5002771
  99.6239992  97.7519978 -11.1129986  99.3069992  96.8489978 -11.1489986
 100.4049992  97.7539978 -11.6659986  99.6862431  97.6287797 -11.1926898
 103.2479992 100.0039978  -5.1179986 102.4129992 100.4579978  -5.0069986
 103.7719992 100.2799978  -4.3659986 103.2046072 100.1033948  -5.0011864
 103.7929992 106.2169978 -13.4329986 103.0479992 105.7089978 -13.7549986
 103.6579992 106.2659978 -12.4869986 103.6728963 106.1541731 -13.3491174
 110.9429992 105.3499978  -4.6459986 111.5839992 105.8059978  -5.1899986
 110.1119992 105.4629978  -5.1089986 110.9185287 105.4276921  -4.7830113
 107.6899992  99.0309978 -15.2339986 106.7519992  99.1419978 -15.3849986
 107.9879992  99.8869978 -14.9269986 107.6016318  99.1620158 -15.2131855
 105.3119992 106.4009978  -2.1959986 104.9659992 106.0189978  -1.3889986
 105.1119992 107.3339978  -2.1249986 105.2375987 106.4749002  -2.0759539
 108.4089992 100.8979978 -13.5729986 109.3009992 100.7599978 -13.2539986
 108.4649992 101.6889978 -14.1099986 108.5387325 100.9859918 -13.6018783
  98.9169992 105.5119978  -7.6629986  99.6619992 105.5089978  -8.2649986
  98.9949992 104.6879978  -7.1819986  99.0293365 105.4002384  -7.6802570
 105.9179992 107.6749978 -14.4079986 105.6229992 108.5019978 -14.0259986
 105.2149992 107.0559978 -14.2109986 105.7826379 107.7044171 -14.3291346
  95.9249992 103.9719978  -2.3479986  96.1479992 103.5539978  -1.5169986
  95.3229992 103.3599978  -2.7709986  95.8741513 103.8319606  -2.2913260
 102.9419992 103.4889978  -0.1349986 102.6459992 103.3239978  -1.0309986
 103.8729992 103.2689978  -0.1459986 103.0274401 103.4366879  -0.2589794
 107.5619992 108.8629978  -2.2459986 106.6619992 109.0459978  -2.5129986
 107.5959992 109.1219978  -1.3249986 107.4433748 108.9230554  -2.1580836
 113.2939992 101.1069978 -13.8779986 112.7389992 100.7109978 -14.5509986
 113.3939992 102.0179978 -14.1559986 113.2316816 101.1759505 -14.0074967
 113.2569992 106.9079978  -1.0409986 112.4059992 107.1459978  -1.4089986
 113.8469992 106.8909978  -1.7939986 113.2203812 106.9382524  -1.1931547
 111.5889992 109.8929978 -13.4129986 111.2159992 109.0679978 -13.1039986
 111.8659992 109.7099978 -14.3109986 111.5753463 109.7552569 -13.4920475
 108.7489992 104.7009978  -6.3919986 107.8209992 104.4699978  -6.4189986
 109.1999992 103.9239978  -6.7219986 108.6828165 104.5642774  -6.4403210
 101.2919992 109.0299978 -10.2589986 101.8199992 109.8029978 -10.4589986
 100.4119992 109.2539978 -10.5609986 101.2453435 109.1662700 -10.3272690
  97.0469992 103.8919978 -15.6719986  97.6629992 104.5189978 -15.2919986
  96.1849992 104.2079978 -15.3999986  97.0147678 104.0204412 -15.5832791
 102.7199992 106.6929978 -10.6829986 102.4789992 107.6179978 -10.6409986
 101.9789992 106.2339978 -10.2859986 102.5869206 106.7575915 -10.6236231
 103.2339992 110.8419978  -4.3679986 103.5969992 111.6959978  -4.6009986
 103.7659992 110.5499978  -3.6269986 103.3555141 110.9193895  -4.2997903
 101.4029992 111.7139978 -11.1369986 100.4529992 111.8199978 -11.0859986
 101.7549992 112.5349978 -10.7929986 101.3205472 111.8394923 -11.0835148
 106.7779992 106.9409978  -4.6669986 106.3529992 106.7129978  -3.8409986
 107.3589992 106.2019978  -4.8489986 106.7983395 106.8099545  -4.5785586
 108.9809992 107.8699978 -15.5929986 109.3349992 107.4899978 -14.7889986
 108.0329992 107.7759978 -15.5059986 108.9012298 107.8052452 -15.4711313
 109.4369992 111.4929978  -2.1979986 108.8349992 110.9369978  -2.6929986
 109.7179992 112.1599978  -2.8239986 109.3925757 111.5070744  -2.3504325
 113.4849992 112.3489978 -15.3919986 114.2289992 112.9349978 -15.5319986
 112.7909992 112.9179978 -15.0589986 113.4929809 112.5060818 -15.3661410
  97.5589992  98.7259978  -2.7899986  96.6669992  99.0639978  -2.8579986
  97.4609992  97.8699978  -2.3719986  97.4234475  98.6566543  -2.7428296
 109.8469992 106.5419978 -13.3659986 109.5699992 105.8139978 -12.8099986
 110.7749992 106.6609978 -13.1609986 109.9344499 106.4584213 -13.2621956
  97.2109992 110.5299978  -4.3549986  97.4279992 109.5979978  -4.3859986
  97.4569992 110.8049978  -3.4719986  97.2739809 110.4395686  -4.2398309
 102.0089992 108.5519978 -14.6899986 102.1559992 108.0319978 -13.8999986
 102.0059992 109.4589978 -14.3829986 102.0287102 108.6033953 -14.5404075
  98.4619992 105.8039978 -14.1789986  97.7759992 106.1569978 -13.6119986
  98.9849992 106.5669978 -14.4259986  98.4388402 105.9553901 -14.1348199
 106.2939992  98.4669978  -3.8999986 106.9929992  98.5409978  -3.2499986
 105.9129992  97.6019978  -3.7459986 106.3382097  98.3602389  -3.7902003
 107.0779992  98.1189978 -12.8029986 107.2979992  98.5899978 -13.6069986
 107.6369992  98.5129978 -12.1329986 107.1836732  98.2367287 -12.8224967
 104.7469992 110.2489978 -13.9399986 103.9299992 110.7459978 -13.8879986
 105.2759992 110.7249978 -14.5809986 104.7068125 110.3811989 -14.0194694
 104.2779992  99.8469978 -11.9679986 105.0899992 100.3509978 -11.9219986
 104.0339992  99.7019978 -11.0539986 104.3561467  99.8963749 -11.8381425
 104.8139992 100.8329978  -2.7839986 104.9329992 101.4069978  -2.0269986
 105.4689992 100.1449978  -2.6689986 104.9188684 100.8185194  -2.6648326
 105.1619992  96.9279978 -11.0299986 104.8149992  97.5449978 -10.3859986
 105.8209992  97.4289978 -11.5119986 105.2035090  97.0801575 -11.0069319
 102.0849992 111.2929978 -13.9589986 102.2459992 112.0929978 -14.4589986
 101.8879992 111.5999978 -13.0739986 102.0803906 111.4438678 -13.9077667
 100.8199992  97.9909978 -14.3429986 100.7359992  98.8789978 -13.9959986
 101.7099992  97.7259978 -14.1109986 100.9288163  98.0767179 -14.2641404
 111.0179992  98.7399978  -1.9489986 110.1019992  99.0019978  -2.0359986
 111.3539992  98.7369978  -2.8449986 110.9378499  98.7755163  -2.0821234
 109.6209992 102.4899978  -7.8529986 108.8229992 102.0749978  -8.1809986
 110.0659992 101.7999978  -7.3619986 109.5719684 102.3398628  -7.8314773
  99.0779992 108.4179978 -15.2829986  99.6699992 109.1179978 -15.0059986
  99.5369992 107.9849978 -16.0019986  99.2211652 108.4552675 -15.3423467
  97.3939992 101.0829978 -16.1669986  97.3489992 102.0219978 -15.9879986
  96.5059992 100.8469978 -16.4359986  97.2678166 101.1796687 -16.1788476
 110.7069992 111.7459978  -6.2309986 110.5509992 112.4249978  -6.8879986
 111.6399992 111.8179978  -6.0279986 110.8117387 111.8486390  -6.2934658
  98.2019992  95.8639978  -7.4929986  97.9729992  95.9229978  -8.4209986
  97.7599992  95.0729978  -7.1869986  98.1108801  95.7650540  -7.5785271
  97.1329992 109.8049978 -11.3329986  96.2999992 110.2769978 -11.3059986
  97.6779992 110.3149978 -11.9319986  97.0927857 109.9384791 -11.4102858
  96.4209992 112.4169978  -0.0029986  96.9609992 112.2009978   0.7570014
  95.9399992 111.6119978  -0.1929986  96.4299219 112.2785156   0.0754282
 101.0179992 111.3369978   1.6170014 101.7859992 110.8779978   1.9580014
 100.9969992 111.1109978   0.6870014 101.1202135 111.2436668   1.5379491
 105.1099992 110.8449978 -17.0069986 104.4659992 110.2139978 -16.6859986
 105.8719992 110.3139978 -17.2389986 105.1248058 110.6867902 -16.9943962
 107.5949992 109.7169978   0.3460014 107.2439992 108.8599978   0.5900014
 108.3209992 109.8589978   0.9530014 107.6451895 109.6191351   0.4613770
 109.7149992 110.6619978 -16.7739986 109.9979992 109.8669978 -16.3209986
 110.4539992 110.8949978 -17.3349986 109.8537096 110.5847049 -16.7878896
  96.3279992 106.2279978   0.9510014  96.4719992 105.3259978   0.6650014
  95.5559992 106.5139978   0.4640014  96.2432733 106.1431798   0.8459532
 100.6689992 106.5709978 -16.9159986 100.7339992 105.7769978 -16.3859986
 101.3219992 106.4529978 -17.6059986 100.7661605 106.4463430 -16.9367003
 102.9829992 106.1969978   0.3840014 102.6549992 106.4679978  -0.4729986
 103.1349992 105.2559978   0.2960014 102.9586412 106.1069046   0.2547822
 108.7179992 106.1129978  -2.2329986 109.4629992 106.7019978  -2.3519986
 107.9609992 106.6949978  -2.1689986 108.7175470 106.2722128  -2.2406201
  97.1609992 103.4279978   0.3710014  97.5689992 102.5709978   0.2500014
  96.8999992 103.4419978   1.2920014  97.1816016 103.3125119   0.4789192
 101.8189992 104.5439978 -14.6099986 101.3589992 104.0599978 -13.9249986
 102.0739992 103.8749978 -15.2459986 101.7904856 104.3873669 -14.6021603
 101.1079992 102.4369978  -2.2539986 100.4889992 103.1109978  -1.9739986
 101.4519992 102.7579978  -3.0879986 101.0697123 102.5726887  -2.3283612
 102.8899992 102.7869978 -16.3479986 102.7089992 102.6319978 -17.2749986
 103.8399992 102.8949978 -16.3029986 102.9936566 102.7803669 -16.4689071
 106.1269992 104.9079978   1.0230014 107.0809992 104.9919978   0.9960014
 105.9669992 104.1959978   1.6430014 106.2357182 104.8232842   1.1030733
 112.2799992 105.1409978 -16.9019986 112.0059992 104.7169978 -17.7149986
 112.3189992 106.0729978 -17.1189986 112.2477716 105.2088827 -17.0425714
 101.4469992  99.7919978  -1.1719986 101.5969992  99.0629978  -1.7739986
 101.4489992 100.5689978  -1.7309986 101.4677967  99.7972708  -1.3299459
 101.8599992  98.1609978  -3.6789986 102.3949992  98.6129978  -4.3309986
 101.0069992  98.0529978  -4.1019986 101.8180374  98.2082665  -3.8253290
 103.4409992 103.6009978  -3.4399986 104.1919992 103.4449978  -4.0129986
 103.1019992 104.4529978  -3.7149986 103.4979587 103.6948138  -3.5555922
 107.8569992 101.4159978   1.5890014 108.0489992 100.4849978   1.4770014
 108.7149992 101.8409978   1.5780014 107.9992182 101.3460070   1.5721862
 109.1739992 104.2049978  -0.3339986 108.8919992 104.9139978  -0.9119986
 110.1159992 104.1319978  -0.4849986 109.2627921 104.2922193  -0.4335775
  99.9259992 100.9899978   0.7390014  99.1579992 100.4569978   0.5290014
 100.6039992 100.6799978   0.1400014  99.9127235 100.8751754   0.6292413
 102.6649992  95.6179978  -3.2479986 102.5669992  96.5639978  -3.3529986
 101.9229992  95.2449978  -3.7239986 102.5512534  95.6971773  -3.3267400
 103.9289992  99.9389978   0.3160014 103.6939992  99.7199978   1.2170014
 103.1459992  99.7319978  -0.1939986 103.7909095  99.8809892   0.3705353
 106.6449992  99.0669978  -0.6089986 105.6969992  99.0989978  -0.4769986
 106.9569992  98.4409978   0.0450014 106.5575293  98.9867923  -0.5025852
 108.2789992  97.7009978   1.3960014 108.1819992  96.7489978   1.3910014
 107.9569992  97.9689978   2.2570014 108.2222468  97.6070884   1.5116210
  98.1059992  98.9099978   0.4440014  98.3179992  98.2039978  -0.1659986
  97.9949992  98.4729978   1.2880014  98.1200269  98.7541921   0.4745873
 102.8869992  94.9119978  -0.5769986 103.5989992  94.2719978  -0.5909986
 102.7859992  95.1779978  -1.4899986 102.9707387  94.8604330  -0.7024437
 103.2409992  96.5939978   1.4770014 103.1089992  96.1189978   0.6570014
 102.6409992  97.3389978   1.4220014 103.1419070  96.6295789   1.3573251
 102.7869992 113.4769978 -15.3469986 103.7199992 113.6349978 -15.2029986
 102.5229992 114.1529978 -15.9719986 102.8789911 113.5899373 -15.4117278
  96.3549992 108.1139978 -15.8639986  97.2689992 108.1929978 -15.5909986
  96.3629992 107.4269978 -16.5299986  96.4810655 108.0319205 -15.9167083
  95.0039992 113.5069978 -10.7869986  94.3569992 113.0449978 -11.3189986
  95.3589992 112.8349978 -10.2039986  94.9633741 113.3529774 -10.7810825
  95.8739992 111.5869978  -8.9819986  95.5399992 110.7069978  -8.8099986
  96.0969992 111.9329978  -8.1169986  95.8583721 111.5131938  -8.8415832
 113.4229992 112.3969978  -6.0009986 113.4009992 112.5819978  -5.0619986
 114.1129992 112.9649978  -6.3419986 113.5133439 112.4991887  -5.9185209
 112.9859992 111.9639978  -3.0799986 112.4989992 111.2289978  -3.4509986
 113.5349992 111.5699978  -2.4019986 112.9935247 111.8101057  -3.0391539
 111.4369992 107.7539978   1.5590014 110.5709992 107.6489978   1.9530014
 111.8129992 108.5119978   2.0050014 111.3693401 107.8421708   1.6732620
 112.7379992 106.0099978 -12.9269986 113.5879992 106.4309978 -12.7999986
 112.7429992 105.2699978 -12.3199986 112.8551143 105.9676094 -12.8275250
 113.1319992 104.0639978 -11.1039986 112.4059992 103.5839978 -10.7059986
 113.7139992 104.2689978 -10.3709986 113.1112730 104.0260184 -10.9505851
 112.8909992 106.8489978  -6.1559986 113.7249992 106.4709978  -6.4369986
 113.0029992 107.7919978  -6.2749986 113.0201917 106.9247943  -6.2105139
 111.3779992 109.7269978  -3.8489986 110.7299992 110.0519978  -3.2239986
 110.8599992 109.2859978  -4.5229986 111.2194196 109.7118651  -3.8545848
 113.4009992 103.9649978 -14.7129986 112.8789992 104.3209978 -15.4309986
 113.3679992 104.6399978 -14.0339986 113.3250129 104.1049598 -14.7196645
 111.7499992 101.2039978 -16.1619986 111.8459992 101.8709978 -16.8419986
 111.6099992 100.3889978 -16.6429986 111.7442040 101.1850671 -16.3201622
 110.9189992 102.5849978 -10.5409986 110.7689992 101.6399978 -10.5609986
 110.5649992 102.8659978  -9.6969986 110.8506351 102.4936644 -10.4296780
  95.9539992 104.6629978  -6.5299986  96.1389992 104.5809978  -7.4659986
  96.8039992 104.5389978  -6.1069986  96.0940928 104.6350463  -6.6007107
 111.7749992 104.5549978  -0.9019986 112.3579992 103.8199978  -0.7099986
 112.3389992 105.3269978  -0.8549986 111.9309781 104.5588145  -0.8693836
 113.2719992 102.4579978  -0.2169986 112.4089992 102.0789978  -0.3829986
 113.8759992 101.7189978  -0.2919986 113.2356085 102.3063223  -0.2498305
 110.9969992  98.6119978 -17.0439986 111.6079992  98.2409978 -16.4069986
 110.1599992  98.1909978 -16.8479986 110.9674947  98.5042756 -16.9302748
 110.6299992 100.1669978 -12.0779986 110.9089992  99.2599978 -11.9539986
 111.3889992 100.6009978 -12.4669986 110.7708619 100.1014502 -12.1136205
 111.2409992 100.7489978  -6.6419986 112.1739992 100.9609978  -6.6769986
 111.0059992 100.8499978  -5.7199986 111.3369517 100.7916833  -6.5220870
 111.2709992 101.4859978  -3.8659986 110.4279992 101.7539978  -3.4999986
 111.7129992 102.3079978  -4.0769986 111.2154138 101.6338273  -3.8444482
  95.5519992  99.9329978  -0.3899986  96.4709992  99.8109978  -0.1529986
  95.1019992  99.1829978   0.0000014  95.6170087  99.8149608  -0.3048590
 113.5539992  95.4659978   1.4870014 113.9029992  94.8119978   0.8820014
 113.7009992  96.3029978   1.0470014 113.6216824  95.4896024   1.3446304
 111.2429992  97.4299978 -12.0299986 111.4249992  96.9809978 -11.2049986
 110.6429992  96.8459978 -12.4939986 111.1868187  97.2895552 -11.9797261
  96.7729992  98.2459978  -7.4979986  97.2179992  97.4539978  -7.1959986
  97.2389992  98.9619978  -7.0679986  96.8969718  98.2344534  -7.3984735
  95.0769992 101.2449978  -6.4289986  95.5689992 101.0239978  -7.2199986
  95.4389992 102.0849978  -6.1479986  95.1932923 101.3283468  -6.4992593
 113.0729992  97.5749978  -0.1639986 112.1559992  97.8459978  -0.1989986
 113.1959992  97.0399978  -0.9479986 112.9639672  97.5397885  -0.2748138
 113.1099992  97.4979978 -15.5019986 113.5219992  96.7769978 -15.9769986
 113.7909992  98.1669978 -15.4439986 113.2585536  97.4897766 -15.5591976
  95.3909992  97.5029978 -12.3749986  94.4659992  97.7109978 -12.5039986
  95.8449992  97.9869978 -13.0649986  95.3256298  97.5969299 -12.4859549
 110.1609992 112.4869978 -10.4289986 110.8139992 112.1389978 -11.0369986
 110.6719992 112.9749978  -9.7829986 110.3192777 112.5053815 -10.4247953
  95.3539992  96.2409978  -4.0309986  94.6889992  95.9949978  -3.3879986
  94.9109992  96.8629978  -4.6079986  95.2031168  96.2914214  -4.0210152
  97.5459992 109.4159978   0.1140014  96.7249992 109.5909978  -0.3469986
  97.2939992 109.3429978   1.0340014  97.3995594 109.4300717   0.1753611
 100.4999992 110.3899978  -3.6279986 100.0759992 111.1999978  -3.9099986
 101.4049992 110.4759978  -3.9299986 100.5642138 110.5124160  -3.7073585
 104.8119992 111.7889978  -0.6679986 104.9959992 111.4559978   0.2100014
 105.6579992 112.0989978  -0.9899986 104.9516484 111.7852979  -0.5912383
 107.1569992 113.0749978  -1.4239986 107.8339992 112.4419978  -1.6639986
 107.4779992 113.4759978  -0.6169986 107.2931323 113.0425691  -1.3476842
 112.0739992  95.6649978  -2.3449986 111.2609992  95.9899978  -2.7319986
 112.3069992  94.9039978  -2.8779986 111.9941347  95.6066880  -2.4700159
  97.9019992 113.6469978  -3.5799986  97.1819992 114.0869978  -4.0309986
  97.5369992 113.3959978  -2.7319986  97.7539643 113.6733369  -3.5270871
 100.3689992 113.2469978  -4.5499986  99.5049992 113.3189978  -4.1459986
 100.3139992 113.7939978  -5.3339986 100.2431942 113.3307849  -4.6006000
 105.0799992 113.1349978  -5.3749986 104.6229992 113.6639978  -6.0289986
 105.2429992 113.7379978  -4.6499986 105.0394960 113.2889280  -5.3664726
 107.4079992 112.0129978  -4.4299986 106.5029992 112.1779978  -4.6959986
 107.8359992 112.8659978  -4.4959986 107.3421537 112.1509134  -4.4752905
 110.0119992 113.5829978  -4.1349986 109.8299992 114.4989978  -4.3459986
 110.1889992 113.1719978  -4.9819986 110.0110030 113.6528273  -4.2782834
  97.3169992 112.2699978  -6.6699986  97.2989992 111.8439978  -5.8129986
  98.1219992 111.9509978  -7.0789986  97.4232875 112.1686435  -6.6080485
  99.4579992 110.9799978  -8.0149986  99.2389992 110.0629978  -7.8449986
 100.2819992 111.1199978  -7.5489986  99.5394702 110.8735511  -7.9287473
 101.9949992 111.4499978  -7.1659986 102.2079992 110.5619978  -7.4529986
 102.0599992 111.4149978  -6.2119986 102.0329149 111.3238326  -7.0762631
 105.5039992  97.1139978  -8.0219986 104.8299992  96.4839978  -7.7659986
 106.0679992  96.6299978  -8.6249986 105.4880384  96.9623708  -8.0684980
 110.6469992  95.2209978  -7.9089986 111.2499992  95.7689978  -8.4109986
 109.7769992  95.5399978  -8.1499986 110.6119157  95.3390373  -8.0102090
 112.3739992  96.3599978  -9.5759986 112.9849992  95.8459978 -10.1029986
 112.7559992  97.2369978  -9.5529986 112.5093305  96.4082050  -9.6450582
  97.8309992  95.7479978 -10.1999986  97.0539992  95.5129978 -10.7069986
  98.3609992  94.9509978 -10.1909986  97.7963451  95.6081268 -10.2681373
  96.6669992  95.5459978 -14.3959986  97.1059992  96.1569978 -14.9879986
  96.0329992  96.0839978 -13.9219986  96.6413859  95.7024064 -14.4129695
 102.4099992  95.6739978 -10.3869986 103.2839992  96.0629978 -10.4159986
 102.2739992  95.4589978  -9.4639986 102.5111953  95.6981643 -10.2662383
 107.9669992  95.7039978  -8.7369986 108.0429992  95.7999978  -9.6869986
 107.6919992  94.7969978  -8.6089986 107.9401871  95.5944146  -8.8496056
 109.3199992  95.7299978 -13.0449986 108.6169992  96.3449978 -13.2549986
 108.8749992  94.8929978 -12.9139986 109.1636550  95.7009668 -13.0560163
  96.5679992 111.4939978 -13.4989986  95.8829992 111.4559978 -14.1659986
  96.5719992 112.4069978 -13.2109986  96.4747621 111.6121924 -13.5513874
  98.5279992  97.4619978 -15.9539986  99.0189992  96.8319978 -16.4809986
  99.1509992  97.7579978 -15.2909986  98.6795304  97.4157376 -15.9365060
 103.5539992  97.7549978 -13.4969986 103.7319992  97.1079978 -12.8139986
 103.4999992  98.5889978 -13.0299986 103.5710678  97.7791604 -13.3403699
 105.4319992 112.7029978 -15.1009986 106.2979992 113.0699978 -15.2789986
 105.1859992 112.2639978 -15.9149986 105.5172097 112.6938525 -15.2353981
 112.1409992 112.2659978 -12.4219986 111.9469992 111.5179978 -12.9869986
 112.1019992 113.0239978 -13.0049986 112.1091645 112.2660786 -12.5781852
  97.7879992  96.2619978  -0.6819986  97.4219992  95.4959978  -0.2399986
  98.7009992  96.2909978  -0.3959986  97.8613172  96.1610324  -0.5828110
  99.7609992  95.6119978   0.8530014 100.6599992  95.3379978   0.6690014
  99.3749992  94.8699978   1.3180014  99.8317307  95.4742196   0.8907098
  98.3859992 112.4139978 -16.4739986  98.1179992 112.6999978 -15.5999986
  99.1569992 111.8679978 -16.3209986  98.4535926 112.3792779 -16.3338795
 108.1829992  94.9449978   1.0360014 108.2589992  94.5189978   1.8890014
 109.0759992  94.9579978   0.6930014 108.3142303  94.8883493   1.1065497
 111.3589992 111.0179978  -0.2719986 110.5769992 110.8309978  -0.7919986
 111.2869992 111.9469978  -0.0549986 111.2421924 111.1180637  -0.3138398
 125.7649992 104.9039978 -10.2409986 125.8539992 105.8479978 -10.3729986
 125.1269992 104.6289978 -10.8989986 125.6909062 104.9959812 -10.3480359
 124.6979992 104.1589978  -6.8219986 124.6599992 103.5129978  -6.1169986
 124.3759992 103.6919978  -7.5929986 124.6492679 104.0074276  -6.8297079
 117.0659992 103.7729978  -5.2289986 117.1079992 103.1479978  -4.5059986
 117.7689992 104.3969978  -5.0469986 117.1667345 103.7717873  -5.1054727
 128.4039992 107.0979978  -8.5209986 127.9629992 106.3779978  -8.0699986
 128.3909992 107.8189978  -7.8909986 128.3419215 107.0969291  -8.3741895
 117.9899992 108.2229978  -6.6939986 117.6199992 107.4209978  -7.0639986
 118.9309992 108.0549978  -6.6479986 118.0665984 108.0904638  -6.7384397
 114.5999992 101.8829978 -11.3019986 114.1519992 102.7289978 -11.3199986
 114.0389992 101.3039978 -11.8169986 114.4628546 101.9203993 -11.3741109
 115.3099992 104.0449978  -9.1759986 115.5239992 103.2749978  -8.6479986
 116.0479992 104.1349978  -9.7789986 115.4390200 103.9518587  -9.1852964
 125.5159992 112.2019978  -8.3089986 126.1349992 111.5259978  -8.5819986
 125.3069992 111.9839978  -7.3999986 125.5726056 112.0798869  -8.2236033
 123.0869992 106.5909978  -6.4159986 123.3909992 105.9049978  -7.0109986
 123.8089992 106.7099978  -5.7979986 123.2261240 106.5132314  -6.4139041
 131.7499992  98.1929978  -5.5559986 131.7999992  98.8029978  -4.8199986
 132.1759992  98.6539978  -6.2789986 131.8144108  98.3387709  -5.5529888
 126.2279992 100.9849978  -6.0889986 126.3709992 100.0389978  -6.0689986
 126.1219992 101.1919978  -7.0169986 126.2332403 100.8834797  -6.2117761
 119.3829992  99.0869978  -8.8159986 119.4259992  99.9469978  -9.2349986
 118.9249992  98.5349978  -9.4499986 119.3269871  99.1299245  -8.9589239
 127.1049992  99.2179978 -10.4149986 127.7519992  98.8889978  -9.7909986
 127.6149992  99.7349978 -11.0379986 127.2624351  99.2429067 -10.4138963
 116.0029992 101.4839978  -8.0539986 116.6569992 100.9339978  -7.6219986
 116.0269992 101.2099978  -8.9709986 116.0957199 101.3717167  -8.1188332
 121.1599992 103.0339978  -8.8389986 121.7759992 102.5069978  -8.3299986
 120.5729992 102.3939978  -9.2429986 121.1650154 102.8753954  -8.8239055
 132.1419992  99.6709978  -3.3199986 131.4529992 100.3289978  -3.4149986
 132.1569992  99.4729978  -2.3829986 132.0497756  99.7342603  -3.2064188
 118.1929992  98.0049978  -4.7419986 117.9739992  98.5349978  -5.5089986
 117.5249992  98.2309978  -4.0949986 118.0726975  98.1080967  -4.7594860
 125.5619992 107.5049978 -11.1979986 125.2669992 107.1819978 -12.0499986
 125.2379992 108.4049978 -11.1569986 125.4778460 107.5824464 -11.3090286
 120.7619992 105.6799978  -4.4549986 120.0219992 106.2789978  -4.3509986
 121.4759992 106.2339978  -4.7699986 120.7573500 105.8367829  -4.4833629
 128.8689992  98.5089978  -8.4349986 128.6539992  97.7429978  -7.9019986
 129.5249992  98.9809978  -7.9219986 128.9282673  98.4680728  -8.2928010
 117.7869992  99.8969978  -6.7899986 118.4009992 100.5299978  -6.4169986
 118.2989992  99.4249978  -7.4459986 117.9401962  99.9197249  -6.8277065
 119.1699992 107.6449978  -3.6679986 119.1639992 108.5239978  -4.0459986
 118.3159992 107.5609978  -3.2429986 119.0537925 107.7539535  -3.6623113
 115.2909992 107.3159978 -12.8859986 115.0189992 107.5449978 -13.7739986
 115.3359992 108.1529978 -12.4249986 115.2598097 107.4606163 -12.9453317
 128.9159992 108.9369978  -6.1729986 127.9739992 108.9959978  -6.0109986
 129.1919992 109.8429978  -6.3099986 128.8245865 109.0675288  -6.1693808
 129.2159992  97.2239978  -4.7559986 128.4799992  97.8339978  -4.7929986
 129.8999992  97.6389978  -5.2819986 129.2075367  97.3637551  -4.8321826
 122.2199992  95.3099978  -7.2899986 122.1019992  94.3619978  -7.3439986
 121.3649992  95.6429978  -7.0169986 122.0882805  95.2252202  -7.2604921
 127.1679992 110.7179978  -9.5479986 127.5929992 110.0109978 -10.0329986
 127.4849992 111.5199978  -9.9649986 127.2690266 110.7295190  -9.6707521
 128.3279992 108.6189978 -11.0389986 128.0699992 107.9289978 -11.6509986
 128.3989992 108.1759978 -10.1939986 128.3023050 108.4646814 -11.0084379
 130.0139992 107.1859978  -2.5619986 130.1529992 106.5939978  -3.3009986
 130.1809992 108.0589978  -2.9179986 130.0556193 107.2228896  -2.7113789
 124.4859992 104.1479978 -12.7889986 123.7749992 104.6829978 -13.1409986
 125.1769992 104.2029978 -13.4489986 124.4820751 104.2286777 -12.9264142
 124.5399992 102.6049978 -15.7509986 125.2409992 102.6279978 -15.0989986
 124.8419992 101.9769978 -16.4069986 124.6768202 102.5232212 -15.7504391
 131.8549992 103.5259978  -4.4959986 131.2029992 104.2199978  -4.4069986
 132.3209992 103.7359978  -5.3059986 131.8285937 103.6495019  -4.5932467
 127.8919992 104.3569978 -11.8379986 127.1599992 104.5859978 -11.2639986
 128.3389992 103.6439978 -11.3829986 127.8523963 104.2918729 -11.6980055
 127.7889992 102.5319978  -2.7699986 127.8689992 103.2949978  -2.1979986
 127.1879992 102.8109978  -3.4599986 127.7186547 102.6742457  -2.7849953
 119.5369992 104.9879978  -9.9549986 119.2069992 104.6169978 -10.7729986
 120.1259992 104.3169978  -9.6079986 119.5713970 104.8466063 -10.0200596
 120.9039992 108.4159978  -7.2739986 120.8089992 107.8369978  -8.0299986
 121.6329992 108.0449978  -6.7779986 120.9896011 108.2865561  -7.3103972
 119.9039992 103.7559978  -6.3219986 120.4689992 103.8779978  -7.0839986
 120.2229992 104.3939978  -5.6829986 120.0244166 103.8588791  -6.3399652
 126.2129992 109.2599978  -5.5879986 125.9729992 109.9219978  -4.9399986
 126.0149992 108.4249978  -5.1629986 126.1533826 109.2378115  -5.4418434
 120.7839992 108.1559978  -1.6039986 120.4729992 108.9379978  -1.1489986
 120.1339992 108.0029978  -2.2899986 120.6535538 108.2424087  -1.6344102
 126.7629992 103.5199978 -14.1519986 127.3419992 103.6699978 -13.4059986
 127.1769992 103.9899978 -14.8759986 126.8983358 103.6040955 -14.1476047
 117.7039992 104.3539978  -2.3759986 117.7739992 105.0049978  -1.6769986
 116.8129992 104.4569978  -2.7109986 117.5931690 104.4569249  -2.3256957
 124.4889992 110.2559978 -10.7169986 124.9629992 110.5519978  -9.9399986
 123.9259992 110.9949978 -10.9499986 124.4777890 110.3963036 -10.6421899
 119.0229992 110.2269978  -0.8409986 119.0309992 110.0909978  -1.7879986
 118.1069992 110.1099978  -0.5889986 118.9002528 110.1925463  -0.9366757
 130.4619992  95.2699978 -14.3389986 129.5619992  95.4089978 -14.0439986
 130.7139992  96.1009978 -14.7409986 130.3728683  95.4014055 -14.3529768
 118.5279992 104.0569978 -12.3659986 118.2359992 104.8249978 -12.8569986
 117.8529992 103.3979978 -12.5289986 118.3968497 104.0729745 -12.4551740
 131.6509992 109.6359978 -15.9629986 131.7239992 110.5749978 -15.7929986
 132.5559992 109.3309978 -16.0189986 131.7834170 109.7233282 -15.9472937
 114.6209992 106.4199978  -3.5509986 114.1189992 106.3919978  -4.3659986
 114.6259992 105.5149978  -3.2409986 114.5529832 106.2937486  -3.6205879
 114.3709992 109.2009978  -6.6669986 115.3169992 109.0559978  -6.6859986
 114.2579992 109.9849978  -6.1299986 114.4853578 109.2871697  -6.5969683
 132.5689992 109.8669978  -0.9839986 132.5189992 108.9109978  -1.0219986
 131.7419992 110.1339978  -0.5829986 132.4503831 109.7724680  -0.9349879
 123.5469992 109.4409978  -2.1079986 123.6349992 110.2669978  -1.6329986
 122.6839992 109.1109978  -1.8589986 123.4423357 109.5095468  -2.0092347
 123.9619992 113.2129978 -12.3019986 123.8859992 113.0919978 -13.2489986
 123.9939992 114.1619978 -12.1839986 123.9559380 113.3247677 -12.4154819
 117.6149992 112.0019978 -10.5209986 117.7669992 111.6539978  -9.6429986
 116.7639992 111.6449978 -10.7769986 117.5208344 111.9060879 -10.4353132
 127.0629992 112.3669978 -15.2999986 127.4379992 111.6229978 -15.7709986
 127.0679992 112.0969978 -14.3819986 127.1150098 112.2286392 -15.2403371
 126.7319992 112.2929978 -12.5509986 125.7969992 112.3929978 -12.3719986
 127.0119992 111.5829978 -11.9719986 126.6419471 112.2107933 -12.4483305
 129.7209992 101.3599978  -0.5039986 129.3129992 101.8399978  -1.2249986
 129.7609992 100.4539978  -0.8119986 129.6706221 101.3032449  -0.6441733
 116.8699992 107.7439978  -2.5079986 117.0859992 107.3819978  -1.6479986
 116.0139992 107.3689978  -2.7169986 116.7838810 107.6438837  -2.4187320
 119.4879992  96.2139978  -6.5119986 118.6269992  96.1269978  -6.9199986
 119.4659992  97.0699978  -6.0839986 119.3670491  96.3178003  -6.5100418
 124.1509992  95.9359978  -3.1369986 124.5709992  95.5209978  -2.3839986
 123.2179992  95.7569978  -3.0199986 124.0823736  95.8549910  -3.0181032
 127.4779992  99.6909978  -2.2839986 126.9639992  99.5659978  -1.4859986
 127.3219992 100.6039978  -2.5279986 127.3866967  99.7972123  -2.2079063
 128.2399992 104.5519978 -16.5229986 128.2819992 104.3299978 -17.4529986
 129.0889992 104.9509978 -16.3329986 128.3605253 104.5755498 -16.6246178
 123.8129992  98.4279978 -15.8519986 123.5589992  98.4469978 -14.9299986
 123.5559992  97.5569978 -16.1539986 123.7434508  98.3128280 -15.7665197
 119.5789992 101.1789978  -5.4169986 118.9379992 101.1389978  -4.7079986
 119.6169992 102.1059978  -5.6549986 119.4963010 101.2987668  -5.3520054
 119.5759992 101.3999978 -10.5049986 118.6839992 101.0599978 -10.5639986
 120.0269992 101.0229978 -11.2609986 119.5147642 101.3024910 -10.6152274
 125.1119992 101.8159978 -11.6879986 124.7029992 102.6309978 -11.9799986
 125.8319992 101.6759978 -12.3019986 125.1534439 101.9085372 -11.8109885
 124.2139992 101.9919978  -0.1999986 123.6509992 101.2869978   0.1210014
 125.0399992 101.8709978   0.2680014 124.2486674 101.8792165  -0.0928249
 126.1169992 101.2619978  -8.8739986 125.9209992 101.8679978  -9.5889986
 126.2979992 100.4289978  -9.3079986 126.1146584 101.2322513  -9.0305788
 117.3289992 101.4999978  -3.5499986 117.2909992 101.8999978  -2.6809986
 116.8389992 100.6829978  -3.4599986 117.2575330 101.4442674  -3.4188711
 120.6949992  98.8739978 -16.7509986 120.2639992  98.4289978 -16.0219986
 119.9769992  99.2449978 -17.2639986 120.5389176  98.8632052 -16.7205070
 113.9379992  98.6159978  -9.6989986 114.5679992  98.5869978  -8.9799986
 114.3869992  98.1909978 -10.4299986 114.0850835  98.5545660  -9.6992341
 115.2119992  99.3619978 -14.2749986 115.6859992  99.9529978 -14.8599986
 114.4939992  99.8919978 -13.9279986 115.1798640  99.5145511 -14.3082031
 125.3809992 102.8999978  -4.2029986 125.7039992 102.2689978  -4.8459986
 124.9399992 102.3659978  -3.5419986 125.3656379 102.7413468  -4.2017418
 122.1579992  98.8279978  -9.4189986 121.2469992  98.8849978  -9.1299986
 122.6629992  98.7679978  -8.6079986 122.1016873  98.8276826  -9.2698793
 116.9859992 100.4569978 -10.5919986 116.0969992 100.5559978 -10.9319986
 117.2829992  99.6149978 -10.9379986 116.9044177 100.3567687 -10.6853060
 120.6389992 100.4569978 -12.9349986 121.5709992 100.5859978 -12.7569986
 120.4239992 101.1259978 -13.5849986 120.7374472 100.5650806 -12.9985109
 126.5629992  98.0629978  -6.1539986 125.8859992  98.1939978  -5.4909986
 126.0779992  97.9079978  -6.9649986 126.4047405  98.0599947  -6.1727830
 119.3129992 101.6509978 -15.3689986 118.7709992 101.2719978 -16.0599986
 120.1469992 101.8459978 -15.7969986 119.3514390 101.6254079 -15.5215608
 129.8509992 113.7339978   0.1220014 130.0499992 114.1579978  -0.7119986
 130.5059992 114.0779978   0.7290014 129.9668522 113.8386301   0.0897852
 117.4489992 106.2079978  -0.2699986 118.1809992 106.4629978   0.2920014
 116.6679992 106.4129978   0.2460014 117.4436526 106.2705450  -0.1234824
 123.4779992 101.6149978  -7.5319986 124.0419992 101.0689978  -8.0789986
 123.3299992 101.0939978  -6.7429986 123.5353037 101.4696787  -7.5002771
 118.4799992  97.7519978 -11.1129986 118.1629992  96.8489978 -11.1489986
 119.2609992  97.7539978 -11.6659986 118.5422431  97.6287797 -11.1926898
 122.1039992 100.0039978  -5.1179986 121.2689992 100.4579978  -5.0069986
 122.6279992 100.2799978  -4.3659986 122.0606072 100.1033948  -5.0011864
 122.6489992 106.2169978 -13.4329986 121.9039992 105.7089978 -13.7549986
 122.5139992 106.2659978 -12.4869986 122.5288963 106.1541731 -13.3491174
 129.7989992 105.3499978  -4.6459986 130.4399992 105.8059978  -5.1899986
 128.9679992 105.4629978  -5.1089986 129.7745287 105.4276921  -4.7830113
 126.5459992  99.0309978 -15.2339986 125.6079992  99.1419978 -15.3849986
 126.8439992  99.8869978 -14.9269986 126.4576318  99.1620158 -15.2131855
 124.1679992 106.4009978  -2.1959986 123.8219992 106.0189978  -1.3889986
 123.9679992 107.3339978  -2.1249986 124.0935987 106.4749002  -2.0759539
 127.2649992 100.8979978 -13.5729986 128.1569992 100.7599978 -13.2539986
 127.3209992 101.6889978 -14.1099986 127.3947325 100.9859918 -13.6018783
 117.7729992 105.5119978  -7.6629986 118.5179992 105.5089978  -8.2649986
 117.8509992 104.6879978  -7.1819986 117.8853365 105.4002384  -7.6802570
 124.7739992 107.6749978 -14.4079986 124.4789992 108.5019978 -14.0259986
 124.0709992 107.0559978 -14.2109986 124.6386379 107.7044171 -14.3291346
 114.7809992 103.9719978  -2.3479986 115.0039992 103.5539978  -1.5169986
 114.1789992 103.3599978  -2.7709986 114.7301513 103.8319606  -2.2913260
 121.7979992 103.4889978  -0.1349986 121.5019992 103.3239978  -1.0309986
 122.7289992 103.2689978  -0.1459986 121.8834401 103.4366880  -0.2589794
 126.4179992 108.8629978  -2.2459986 125.5179992 109.0459978  -2.5129986
 126.4519992 109.1219978  -1.3249986 126.2993748 108.9230554  -2.1580836
 132.1499992 101.1069978 -13.8779986 131.5949992 100.7109978 -14.5509986
 132.2499992 102.0179978 -14.1559986 132.0876816 101.1759505 -14.0074967
 132.1129992 106.9079978  -1.0409986 131.2619992 107.1459978  -1.4089986
 132.7029992 106.8909978  -1.7939986 132.0763812 106.9382524  -1.1931547
 130.4449992 109.8929978 -13.4129986 130.0719992 109.0679978 -13.1039986
 130.7219992 109.7099978 -14.3109986 130.4313463 109.7552569 -13.4920475
 127.6049992 104.7009978  -6.3919986 126.6769992 104.4699978  -6.4189986
 128.0559992 103.9239978  -6.7219986 127.5388165 104.5642774  -6.4403210
 120.1479992 109.0299978 -10.2589986 120.6759992 109.8029978 -10.4589986
 119.2679992 109.2539978 -10.5609986 120.1013435 109.1662700 -10.3272690
 115.9029992 103.8919978 -15.6719986 116.5189992 104.5189978 -15.2919986
 115.0409992 104.2079978 -15.3999986 115.8707678 104.0204412 -15.5832791
 121.5759992 106.6929978 -10.6829986 121.3349992 107.6179978 -10.6409986
 120.8349992 106.2339978 -10.2859986 121.4429206 106.7575915 -10.6236231
 122.0899992 110.8419978  -4.3679986 122.4529992 111.6959978  -4.6009986
 122.6219992 110.5499978  -3.6269986 122.2115141 110.9193895  -4.2997903
 120.2589992 111.7139978 -11.1369986 119.3089992 111.8199978 -11.0859986
 120.6109992 112.5349978 -10.7929986 120.1765472 111.8394923 -11.0835148
 125.6339992 106.9409978  -4.6669986 125.2089992 106.7129978  -3.8409986
 126.2149992 106.2019978  -4.8489986 125.6543395 106.8099545  -4.5785586
 127.8369992 107.8699978 -15.5929986 128.1909992 107.4899978 -14.7889986
 126.8889992 107.7759978 -15.5059986 127.7572298 107.8052452 -15.4711313
 128.2929992 111.4929978  -2.1979986 127.6909992 110.9369978  -2.6929986
 128.5739992 112.1599978  -2.8239986 128.2485757 111.5070744  -2.3504325
 132.3409992 112.3489978 -15.3919986 133.0849992 112.9349978 -15.5319986
 131.6469992 112.9179978 -15.0589986 132.3489809 112.5060818 -15.3661410
 116.4149992  98.7259978  -2.7899986 115.5229992  99.0639978  -2.8579986
 116.3169992  97.8699978  -2.3719986 116.2794475  98.6566543  -2.7428296
 128.7029992 106.5419978 -13.3659986 128.4259992 105.8139978 -12.8099986
 129.6309992 106.6609978 -13.1609986 128.7904499 106.4584213 -13.2621956
 116.0669992 110.5299978  -4.3549986 116.2839992 109.5979978  -4.3859986
 116.3129992 110.8049978  -3.4719986 116.1299809 110.4395686  -4.2398309
 120.8649992 108.5519978 -14.6899986 121.0119992 108.0319978 -13.8999986
 120.8619992 109.4589978 -14.3829986 120.8847102 108.6033953 -14.5404075
 117.3179992 105.8039978 -14.1789986 116.6319992 106.1569978 -13.6119986
 117.8409992 106.5669978 -14.4259986 117.2948402 105.9553901 -14.1348199
 125.1499992  98.4669978  -3.8999986 125.8489992  98.5409978  -3.2499986
 124.7689992  97.6019978  -3.7459986 125.1942097  98.3602389  -3.7902003
 125.9339992  98.1189978 -12.8029986 126.1539992  98.5899978 -13.6069986
 126.4929992  98.5129978 -12.1329986 126.0396731  98.2367287 -12.8224967
 123.6029992 110.2489978 -13.9399986 122.7859992 110.7459978 -13.8879986
 124.1319992 110.7249978 -14.5809986 123.5628125 110.3811989 -14.0194694
 123.1339992  99.8469978 -11.9679986 123.9459992 100.3509978 -11.9219986
 122.8899992  99.7019978 -11.0539986 123.2121467  99.8963749 -11.8381425
 123.6699992 100.8329978  -2.7839986 123.7889992 101.4069978  -2.0269986
 124.3249992 100.1449978  -2.6689986 123.7748684 100.8185194  -2.6648326
 124.0179992  96.9279978 -11.0299986 123.6709992  97.5449978 -10.3859986
 124.6769992  97.4289978 -11.5119986 124.0595090  97.0801575 -11.0069319
 120.9409992 111.2929978 -13.9589986 121.1019992 112.0929978 -14.4589986
 120.7439992 111.5999978 -13.0739986 120.9363906 111.4438678 -13.9077667
 119.6759992  97.9909978 -14.3429986 119.5919992  98.8789978 -13.9959986
 120.5659992  97.7259978 -14.1109986 119.7848163  98.0767179 -14.2641404
 129.8739992  98.7399978  -1.9489986 128.9579992  99.0019978  -2.0359986
 130.2099992  98.7369978  -2.8449986 129.7938499  98.7755163  -2.0821234
 128.4769992 102.4899978  -7.8529986 127.6789992 102.0749978  -8.1809986
 128.9219992 101.7999978  -7.3619986 128.4279684 102.3398628  -7.8314773
 117.9339992 108.4179978 -15.2829986 118.5259992 109.1179978 -15.0059986
 118.3929992 107.9849978 -16.0019986 118.0771652 108.4552675 -15.3423467
 116.2499992 101.0829978 -16.1669986 116.2049992 102.0219978 -15.9879986
 115.3619992 100.8469978 -16.4359986 116.1238166 101.1796687 -16.1788476
 129.5629992 111.7459978  -6.2309986 129.4069992 112.4249978  -6.8879986
 130.4959992 111.8179978  -6.0279986 129.6677387 111.8486390  -6.2934658
 117.0579992  95.8639978  -7.4929986 116.8289992  95.9229978  -8.4209986
 116.6159992  95.0729978  -7.1869986 116.9668801  95.7650540  -7.5785271
 115.9889992 109.8049978 -11.3329986 115.1559992 110.2769978 -11.3059986
 116.5339992 110.3149978 -11.9319986 115.9487857 109.9384791 -11.4102858
 115.2769992 112.4169978  -0.0029986 115.8169992 112.2009978   0.7570014
 114.7959992 111.6119978  -0.1929986 115.2859219 112.2785156   0.0754282
 119.8739992 111.3369978   1.6170014 120.6419992 110.8779978   1.9580014
 119.8529992 111.1109978   0.6870014 119.9762135 111.2436668   1.5379491
 123.9659992 110.8449978 -17.0069986 123.3219992 110.2139978 -16.6859986
 124.7279992 110.3139978 -17.2389986 123.9808058 110.6867902 -16.9943962
 126.4509992 109.7169978   0.3460014 126.0999992 108.8599978   0.5900014
 127.1769992 109.8589978   0.9530014 126.5011895 109.6191351   0.4613770
 128.5709992 110.6619978 -16.7739986 128.8539992 109.8669978 -16.3209986
 129.3099992 110.8949978 -17.3349986 128.7097096 110.5847049 -16.7878896
 115.1839992 106.2279978   0.9510014 115.3279992 105.3259978   0.6650014
 114.4119992 106.5139978   0.4640014 115.0992733 106.1431798   0.8459532
 119.5249992 106.5709978 -16.9159986 119.5899992 105.7769978 -16.3859986
 120.1779992 106.4529978 -17.6059986 119.6221605 106.4463430 -16.9367003
 121.8389992 106.1969978   0.3840014 121.5109992 106.4679978  -0.4729986
 121.9909992 105.2559978   0.2960014 121.8146412 106.1069046   0.2547822
 127.5739992 106.1129978  -2.2329986 128.3189992 106.7019978  -2.3519986
 126.8169992 106.6949978  -2.1689986 127.5735470 106.2722128  -2.2406201
 116.0169992 103.4279978   0.3710014 116.4249992 102.5709978   0.2500014
 115.7559992 103.4419978   1.2920014 116.0376016 103.3125119   0.4789192
 120.6749992 104.5439978 -14.6099986 120.2149992 104.0599978 -13.9249986
 120.9299992 103.8749978 -15.2459986 120.6464856 104.3873669 -14.6021603
 119.9639992 102.4369978  -2.2539986 119.3449992 103.1109978  -1.9739986
 120.3079992 102.7579978  -3.0879986 119.9257123 102.5726887  -2.3283612
 121.7459992 102.7869978 -16.3479986 121.5649992 102.6319978 -17.2749986
 122.6959992 102.8949978 -16.3029986 121.8496566 102.7803669 -16.4689071
 124.9829992 104.9079978   1.0230014 125.9369992 104.9919978   0.9960014
 124.8229992 104.1959978   1.6430014 125.0917182 104.8232842   1.1030733
 131.1359992 105.1409978 -16.9019986 130.8619992 104.7169978 -17.7149986
 131.1749992 106.0729978 -17.1189986 131.1037716 105.2088827 -17.0425714
 120.3029992  99.7919978  -1.1719986 120.4529992  99.0629978  -1.7739986
 120.3049992 100.5689978  -1.7309986 120.3237967  99.7972708  -1.3299459
 120.7159992  98.1609978  -3.6789986 121.2509992  98.6129978  -4.3309986
 119.8629992  98.0529978  -4.1019986 120.6740374  98.2082665  -3.8253290
 122.2969992 103.6009978  -3.4399986 123.0479992 103.4449978  -4.0129986
 121.9579992 104.4529978  -3.7149986 122.3539587 103.6948138  -3.5555922
 126.7129992 101.4159978   1.5890014 126.9049992 100.4849978   1.4770014
 127.5709992 101.8409978   1.5780014 126.8552182 101.3460070   1.5721862
 128.0299992 104.2049978  -0.3339986 127.7479992 104.9139978  -0.9119986
 128.9719992 104.1319978  -0.4849986 128.1187921 104.2922193  -0.4335775
 118.7819992 100.9899978   0.7390014 118.0139992 100.4569978   0.5290014
 119.4599992 100.6799978   0.1400014 118.7687235 100.8751754   0.6292413
 121.5209992  95.6179978  -3.2479986 121.4229992  96.5639978  -3.3529986
 120.7789992  95.2449978  -3.7239986 121.4072534  95.6971773  -3.3267400
 122.7849992  99.9389978   0.3160014 122.5499992  99.7199978   1.2170014
 122.0019992  99.7319978  -0.1939986 122.6469095  99.8809892   0.3705353
 125.5009992  99.0669978  -0.6089986 124.5529992  99.0989978  -0.4769986
 125.8129992  98.4409978   0.0450014 125.4135293  98.9867923  -0.5025852
 127.1349992  97.7009978   1.3960014 127.0379992  96.7489978   1.3910014
 126.8129992  97.9689978   2.2570014 127.0782468  97.6070884   1.5116210
 116.9619992  98.9099978   0.4440014 117.1739992  98.2039978  -0.1659986
 116.8509992  98.4729978   1.2880014 116.9760269  98.7541921   0.4745873
 121.7429992  94.9119978  -0.5769986 122.4549992  94.2719978  -0.5909986
 121.6419992  95.1779978  -1.4899986 121.8267387  94.8604330  -0.7024437
 122.0969992  96.5939978   1.4770014 121.9649992  96.1189978   0.6570014
 121.4969992  97.3389978   1.4220014 121.9979070  96.6295789   1.3573251
 121.6429992 113.4769978 -15.3469986 122.5759992 113.6349978 -15.2029986
 121.3789992 114.1529978 -15.9719986 121.7349911 113.5899373 -15.4117278
 115.2109992 108.1139978 -15.8639986 116.1249992 108.1929978 -15.5909986
 115.2189992 107.4269978 -16.5299986 115.3370655 108.0319205 -15.9167083
 113.8599992 113.5069978 -10.7869986 113.2129992 113.0449978 -11.3189986
 114.2149992 112.8349978 -10.2039986 113.8193741 113.3529774 -10.7810825
 114.7299992 111.5869978  -8.9819986 114.3959992 110.7069978  -8.8099986
 114.9529992 111.9329978  -8.1169986 114.7143721 111.5131938  -8.8415832
 132.2789992 112.3969978  -6.0009986 132.2569992 112.5819978  -5.0619986
 132.9689992 112.9649978  -6.3419986 132.3693439 112.4991887  -5.9185209
 131.8419992 111.9639978  -3.0799986 131.3549992 111.2289978  -3.4509986
 132.3909992 111.5699978  -2.4019986 131.8495247 111.8101057  -3.0391539
 130.2929992 107.7539978   1.5590014 129.4269992 107.6489978   1.9530014
 130.6689992 108.5119978   2.0050014 130.2253401 107.8421708   1.6732620
 131.5939992 106.0099978 -12.9269986 132.4439992 106.4309978 -12.7999986
 131.5989992 105.2699978 -12.3199986 131.7111143 105.9676094 -12.8275250
 131.9879992 104.0639978 -11.1039986 131.2619992 103.5839978 -10.7059986
 132.5699992 104.2689978 -10.3709986 131.9672730 104.0260184 -10.9505851
 131.7469992 106.8489978  -6.1559986 132.5809992 106.4709978  -6.4369986
 131.8589992 107.7919978  -6.2749986 131.8761917 106.9247943  -6.2105139
 130.2339992 109.7269978  -3.8489986 129.5859992 110.0519978  -3.2239986
 129.7159992 109.2859978  -4.5229986 130.0754196 109.7118651  -3.8545848
 132.2569992 103.9649978 -14.7129986 131.7349992 104.3209978 -15.4309986
 132.2239992 104.6399978 -14.0339986 132.1810129 104.1049598 -14.7196645
 130.6059992 101.2039978 -16.1619986 130.7019992 101.8709978 -16.8419986
 130.4659992 100.3889978 -16.6429986 130.6002040 101.1850671 -16.3201622
 129.7749992 102.5849978 -10.5409986 129.6249992 101.6399978 -10.5609986
 129.4209992 102.8659978  -9.6969986 129.7066351 102.4936644 -10.4296780
 114.8099992 104.6629978  -6.5299986 114.9949992 104.5809978  -7.4659986
 115.6599992 104.5389978  -6.1069986 114.9500928 104.6350463  -6.6007107
 130.6309992 104.5549978  -0.9019986 131.2139992 103.8199978  -0.7099986
 131.1949992 105.3269978  -0.8549986 130.7869781 104.5588145  -0.8693836
 132.1279992 102.4579978  -0.2169986 131.2649992 102.0789978  -0.3829986
 132.7319992 101.7189978  -0.2919986 132.0916085 102.3063223  -0.2498305
 129.8529992  98.6119978 -17.0439986 130.4639992  98.2409978 -16.4069986
 129.0159992  98.1909978 -16.8479986 129.8234947  98.5042756 -16.9302748
 129.4859992 100.1669978 -12.0779986 129.7649992  99.2599978 -11.9539986
 130.2449992 100.6009978 -12.4669986 129.6268619 100.1014502 -12.1136205
 130.0969992 100.7489978  -6.6419986 131.0299992 100.9609978  -6.6769986
 129.8619992 100.8499978  -5.7199986 130.1929517 100.7916833  -6.5220870
 130.1269992 101.4859978  -3.8659986 129.2839992 101.7539978  -3.4999986
 130.5689992 102.3079978  -4.0769986 130.0714138 101.6338273  -3.8444482
 114.4079992  99.9329978  -0.3899986 115.3269992  99.8109978  -0.1529986
 113.9579992  99.1829978   0.0000014 114.4730087  99.8149608  -0.3048590
 132.4099992  95.4659978   1.4870014 132.7589992  94.8119978   0.8820014
 132.5569992  96.3029978   1.0470014 132.4776824  95.4896024   1.3446304
 130.0989992  97.4299978 -12.0299986 130.2809992  96.9809978 -11.2049986
 129.4989992  96.8459978 -12.4939986 130.0428187  97.2895552 -11.9797261
 115.6289992  98.2459978  -7.4979986 116.0739992  97.4539978  -7.1959986
 116.0949992  98.9619978  -7.0679986 115.7529718  98.2344534  -7.3984735
 113.9329992 101.2449978  -6.4289986 114.4249992 101.0239978  -7.2199986
 114.2949992 102.0849978  -6.1479986 114.0492923 101.3283468  -6.4992593
 131.9289992  97.5749978  -0.1639986 131.0119992  97.8459978  -0.1989986
 132.0519992  97.0399978  -0.9479986 131.8199672  97.5397885  -0.2748138
 131.9659992  97.4979978 -15.5019986 132.3779992  96.7769978 -15.9769986
 132.6469992  98.1669978 -15.4439986 132.1145536  97.4897766 -15.5591976
 114.2469992  97.5029978 -12.3749986 113.3219992  97.7109978 -12.5039986
 114.7009992  97.9869978 -13.0649986 114.1816298  97.5969299 -12.4859549
 129.0169992 112.4869978 -10.4289986 129.6699992 112.1389978 -11.0369986
 129.5279992 112.9749978  -9.7829986 129.1752777 112.5053815 -10.4247953
 114.2099992  96.2409978  -4.0309986 113.5449992  95.9949978  -3.3879986
 113.7669992  96.8629978  -4.6079986 114.0591168  96.2914214  -4.0210152
 116.4019992 109.4159978   0.1140014 115.5809992 109.5909978  -0.3469986
 116.1499992 109.3429978   1.0340014 116.2555594 109.4300717   0.1753611
 119.3559992 110.3899978  -3.6279986 118.9319992 111.1999978  -3.9099986
 120.2609992 110.4759978  -3.9299986 119.4202138 110.5124160  -3.7073585
 123.6679992 111.7889978  -0.6679986 123.8519992 111.4559978   0.2100014
 124.5139992 112.0989978  -0.9899986 123.8076484 111.7852979  -0.5912383
 126.0129992 113.0749978  -1.4239986 126.6899992 112.4419978  -1.6639986
 126.3339992 113.4759978  -0.6169986 126.1491323 113.0425691  -1.3476842
 130.9299992  95.6649978  -2.3449986 130.1169992  95.9899978  -2.7319986
 131.1629992  94.9039978  -2.8779986 130.8501347  95.6066880  -2.4700159
 116.7579992 113.6469978  -3.5799986 116.0379992 114.0869978  -4.0309986
 116.3929992 113.3959978  -2.7319986 116.6099643 113.6733369  -3.5270871
 119.2249992 113.2469978  -4.5499986 118.3609992 113.3189978  -4.1459986
 119.1699992 113.7939978  -5.3339986 119.0991942 113.3307849  -4.6006000
 123.9359992 113.1349978  -5.3749986 123.4789992 113.6639978  -6.0289986
 124.0989992 113.7379978  -4.6499986 123.8954960 113.2889280  -5.3664726
 126.2639992 112.0129978  -4.4299986 125.3589992 112.1779978  -4.6959986
 126.6919992 112.8659978  -4.4959986 126.1981537 112.1509134  -4.4752905
 128.8679992 113.5829978  -4.1349986 128.6859992 114.4989978  -4.3459986
 129.0449992 113.1719978  -4.9819986 128.8670030 113.6528273  -4.2782834
 116.1729992 112.2699978  -6.6699986 116.1549992 111.8439978  -5.8129986
 116.9779992 111.9509978  -7.0789986 116.2792875 112.1686435  -6.6080485
 118.3139992 110.9799978  -8.0149986 118.0949992 110.0629978  -7.8449986
 119.1379992 111.1199978  -7.5489986 118.3954702 110.8735511  -7.9287473
 120.8509992 111.4499978  -7.1659986 121.0639992 110.5619978  -7.4529986
 120.9159992 111.4149978  -6.2119986 120.8889149 111.3238326  -7.0762631
 124.3599992  97.1139978  -8.0219986 123.6859992  96.4839978  -7.7659986
 124.9239992  96.6299978  -8.6249986 124.3440384  96.9623708  -8.0684980
 129.5029992  95.2209978  -7.9089986 130.1059992  95.7689978  -8.4109986
 128.6329992  95.5399978  -8.1499986 129.4679157  95.3390373  -8.0102090
 131.2299992  96.3599978  -9.5759986 131.8409992  95.8459978 -10.1029986
 131.6119992  97.2369978  -9.5529986 131.3653305  96.4082050  -9.6450582
 116.6869992  95.7479978 -10.1999986 115.9099992  95.5129978 -10.7069986
 117.2169992  94.9509978 -10.1909986 116.6523451  95.6081268 -10.2681373
 115.5229992  95.5459978 -14.3959986 115.9619992  96.1569978 -14.9879986
 114.8889992  96.0839978 -13.9219986 115.4973859  95.7024064 -14.4129695
 121.2659992  95.6739978 -10.3869986 122.1399992  96.0629978 -10.4159986
 121.1299992  95.4589978  -9.4639986 121.3671953  95.6981643 -10.2662383
 126.8229992  95.7039978  -8.7369986 126.8989992  95.7999978  -9.6869986
 126.5479992  94.7969978  -8.6089986 126.7961871  95.5944146  -8.8496056
 128.1759992  95.7299978 -13.0449986 127.4729992  96.3449978 -13.2549986
 127.7309992  94.8929978 -12.9139986 128.0196550  95.7009668 -13.0560163
 115.4239992 111.4939978 -13.4989986 114.7389992 111.4559978 -14.1659986
 115.4279992 112.4069978 -13.2109986 115.3307621 111.6121924 -13.5513874
 117.3839992  97.4619978 -15.9539986 117.8749992  96.8319978 -16.4809986
 118.0069992  97.7579978 -15.2909986 117.5355304  97.4157376 -15.9365060
 122.4099992  97.7549978 -13.4969986 122.5879992  97.1079978 -12.8139986
 122.3559992  98.5889978 -13.0299986 122.4270678  97.7791604 -13.3403699
 124.2879992 112.7029978 -15.1009986 125.1539992 113.0699978 -15.2789986
 124.0419992 112.2639978 -15.9149986 124.3732097 112.6938525 -15.2353981
 130.9969992 112.2659978 -12.4219986 130.8029992 111.5179978 -12.9869986
 130.9579992 113.0239978 -13.0049986 130.9651645 112.2660786 -12.5781852
 116.6439992  96.2619978  -0.6819986 116.2779992  95.4959978  -0.2399986
 117.5569992  96.2909978  -0.3959986 116.7173172  96.1610324  -0.5828110
 118.6169992  95.6119978   0.8530014 119.5159992  95.3379978   0.6690014
 118.2309992  94.8699978   1.3180014 118.6877307  95.4742196   0.8907098
 117.2419992 112.4139978 -16.4739986 116.9739992 112.6999978 -15.5999986
 118.0129992 111.8679978 -16.3209986 117.3095926 112.3792779 -16.3338795
 127.0389992  94.9449978   1.0360014 127.1149992  94.5189978   1.8890014
 127.9319992  94.9579978   0.6930014 127.1702303  94.8883493   1.1065497
 130.2149992 111.0179978  -0.2719986 129.4329992 110.8309978  -0.7919986
 130.1429992 111.9469978  -0.0549986 130.0981924 111.1180637  -0.3138398
 144.6209992 104.9039978 -10.2409986 144.7099992 105.8479978 -10.3729986
 143.9829992 104.6289978 -10.8989986 144.5469062 104.9959812 -10.3480359
 143.5539992 104.1589978  -6.8219986 143.5159992 103.5129978  -6.1169986
 143.2319992 103.6919978  -7.5929986 143.5052679 104.0074276  -6.8297079
 135.9219992 103.7729978  -5.2289986 135.9639992 103.1479978  -4.5059986
 136.6249992 104.3969978  -5.0469986 136.0227345 103.7717873  -5.1054727
 136.8459992 108.2229978  -6.6939986 136.4759992 107.4209978  -7.0639986
 137.7869992 108.0549978  -6.6479986 136.9225984 108.0904638  -6.7384397
 133.4559992 101.8829978 -11.3019986 133.0079992 102.7289978 -11.3199986
 132.8949992 101.3039978 -11.8169986 133.3188546 101.9203993 -11.3741109
 134.1659992 104.0449978  -9.1759986 134.3799992 103.2749978  -8.6479986
 134.9039992 104.1349978  -9.7789986 134.2950200 103.9518587  -9.1852964
 144.3719992 112.2019978  -8.3089986 144.9909992 111.5259978  -8.5819986
 144.1629992 111.9839978  -7.3999986 144.4286056 112.0798869  -8.2236033
 141.9429992 106.5909978  -6.4159986 142.2469992 105.9049978  -7.0109986
 142.6649992 106.7099978  -5.7979986 142.0821240 106.5132314  -6.4139041
 145.0839992 100.9849978  -6.0889986 145.2269992 100.0389978  -6.0689986
 144.9779992 101.1919978  -7.0169986 145.0892403 100.8834797  -6.2117761
 138.2389992  99.0869978  -8.8159986 138.2819992  99.9469978  -9.2349986
 137.7809992  98.5349978  -9.4499986 138.1829871  99.1299245  -8.9589239
 134.8589992 101.4839978  -8.0539986 135.5129992 100.9339978  -7.6219986
 134.8829992 101.2099978  -8.9709986 134.9517199 101.3717167  -8.1188332
 140.0159992 103.0339978  -8.8389986 140.6319992 102.5069978  -8.3299986
 139.4289992 102.3939978  -9.2429986 140.0210154 102.8753954  -8.8239055
 137.0489992  98.0049978  -4.7419986 136.8299992  98.5349978  -5.5089986
 136.3809992  98.2309978  -4.0949986 136.9286975  98.1080967  -4.7594860
 144.4179992 107.5049978 -11.1979986 144.1229992 107.1819978 -12.0499986
 144.0939992 108.4049978 -11.1569986 144.3338460 107.5824464 -11.3090286
 139.6179992 105.6799978  -4.4549986 138.8779992 106.2789978  -4.3509986
 140.3319992 106.2339978  -4.7699986 139.6133500 105.8367829  -4.4833629
 136.6429992  99.8969978  -6.7899986 137.2569992 100.5299978  -6.4169986
 137.1549992  99.4249978  -7.4459986 136.7961962  99.9197249  -6.8277065
 138.0259992 107.6449978  -3.6679986 138.0199992 108.5239978  -4.0459986
 137.1719992 107.5609978  -3.2429986 137.9097925 107.7539535  -3.6623113
 134.1469992 107.3159978 -12.8859986 133.8749992 107.5449978 -13.7739986
 134.1919992 108.1529978 -12.4249986 134.1158097 107.4606163 -12.9453317
 141.0759992  95.3099978  -7.2899986 140.9579992  94.3619978  -7.3439986
 140.2209992  95.6429978  -7.0169986 140.9442805  95.2252202  -7.2604921
 143.3419992 104.1479978 -12.7889986 142.6309992 104.6829978 -13.1409986
 144.0329992 104.2029978 -13.4489986 143.3380751 104.2286777 -12.9264142
 143.3959992 102.6049978 -15.7509986 144.0969992 102.6279978 -15.0989986
 143.6979992 101.9769978 -16.4069986 143.5328202 102.5232212 -15.7504391
 138.3929992 104.9879978  -9.9549986 138.0629992 104.6169978 -10.7729986
 138.9819992 104.3169978  -9.6079986 138.4273970 104.8466063 -10.0200596
 139.7599992 108.4159978  -7.2739986 139.6649992 107.8369978  -8.0299986
 140.4889992 108.0449978  -6.7779986 139.8456011 108.2865561  -7.3103972
 138.7599992 103.7559978  -6.3219986 139.3249992 103.8779978  -7.0839986
 139.0789992 104.3939978  -5.6829986 138.8804166 103.8588791  -6.3399652
 145.0689992 109.2599978  -5.5879986 144.8289992 109.9219978  -4.9399986
 144.8709992 108.4249978  -5.1629986 145.0093826 109.2378115  -5.4418434
 139.6399992 108.1559978  -1.6039986 139.3289992 108.9379978  -1.1489986
 138.9899992 108.0029978  -2.2899986 139.5095538 108.2424087  -1.6344102
 136.5599992 104.3539978  -2.3759986 136.6299992 105.0049978  -1.6769986
 135.6689992 104.4569978  -2.7109986 136.4491690 104.4569249  -2.3256957
 143.3449992 110.2559978 -10.7169986 143.8189992 110.5519978  -9.9399986
 142.7819992 110.9949978 -10.9499986 143.3337890 110.3963036 -10.6421899
 137.8789992 110.2269978  -0.8409986 137.8869992 110.0909978  -1.7879986
 136.9629992 110.1099978  -0.5889986 137.7562528 110.1925463  -0.9366757
 137.3839992 104.0569978 -12.3659986 137.0919992 104.8249978 -12.8569986
 136.7089992 103.3979978 -12.5289986 137.2528497 104.0729745 -12.4551740
 133.4769992 106.4199978  -3.5509986 132.9749992 106.3919978  -4.3659986
 133.4819992 105.5149978  -3.2409986 133.4089832 106.2937486  -3.6205879
 133.2269992 109.2009978  -6.6669986 134.1729992 109.0559978  -6.6859986
 133.1139992 109.9849978  -6.1299986 133.3413578 109.2871697  -6.5969683
 142.4029992 109.4409978  -2.1079986 142.4909992 110.2669978  -1.6329986
 141.5399992 109.1109978  -1.8589986 142.2983357 109.5095468  -2.0092347
 142.8179992 113.2129978 -12.3019986 142.7419992 113.0919978 -13.2489986
 142.8499992 114.1619978 -12.1839986 142.8119380 113.3247677 -12.4154819
 136.4709992 112.0019978 -10.5209986 136.6229992 111.6539978  -9.6429986
 135.6199992 111.6449978 -10.7769986 136.3768344 111.9060879 -10.4353132
 135.7259992 107.7439978  -2.5079986 135.9419992 107.3819978  -1.6479986
 134.8699992 107.3689978  -2.7169986 135.6398810 107.6438837  -2.4187320
 138.3439992  96.2139978  -6.5119986 137.4829992  96.1269978  -6.9199986
 138.3219992  97.0699978  -6.0839986 138.2230491  96.3178003  -6.5100418
 143.0069992  95.9359978  -3.1369986 143.4269992  95.5209978  -2.3839986
 142.0739992  95.7569978  -3.0199986 142.9383736  95.8549910  -3.0181032
 142.6689992  98.4279978 -15.8519986 142.4149992  98.4469978 -14.9299986
 142.4119992  97.5569978 -16.1539986 142.5994508  98.3128280 -15.7665197
 138.4349992 101.1789978  -5.4169986 137.7939992 101.1389978  -4.7079986
 138.4729992 102.1059978  -5.6549986 138.3523010 101.2987668  -5.3520054
 138.4319992 101.3999978 -10.5049986 137.5399992 101.0599978 -10.5639986
 138.8829992 101.0229978 -11.2609986 138.3707642 101.3024910 -10.6152274
 143.9679992 101.8159978 -11.6879986 143.5589992 102.6309978 -11.9799986
 144.6879992 101.6759978 -12.3019986 144.0094439 101.9085372 -11.8109885
 143.0699992 101.9919978  -0.1999986 142.5069992 101.2869978   0.1210014
 143.8959992 101.8709978   0.2680014 143.1046674 101.8792165  -0.0928249
 144.9729992 101.2619978  -8.8739986 144.7769992 101.8679978  -9.5889986
 145.1539992 100.4289978  -9.3079986 144.9706584 101.2322513  -9.0305788
 136.1849992 101.4999978  -3.5499986 136.1469992 101.8999978  -2.6809986
 135.6949992 100.6829978  -3.4599986 136.1135330 101.4442674  -3.4188711
 139.5509992  98.8739978 -16.7509986 139.1199992  98.4289978 -16.0219986
 138.8329992  99.2449978 -17.2639986 139.3949176  98.8632051 -16.7205070
 132.7939992  98.6159978  -9.6989986 133.4239992  98.5869978  -8.9799986
 133.2429992  98.1909978 -10.4299986 132.9410835  98.5545660  -9.6992341
 134.0679992  99.3619978 -14.2749986 134.5419992  99.9529978 -14.8599986
 133.3499992  99.8919978 -13.9279986 134.0358640  99.5145511 -14.3082031
 144.2369992 102.8999978  -4.2029986 144.5599992 102.2689978  -4.8459986
 143.7959992 102.3659978  -3.5419986 144.2216379 102.7413468  -4.2017418
 141.0139992  98.8279978  -9.4189986 140.1029992  98.8849978  -9.1299986
 141.5189992  98.7679978  -8.6079986 140.9576873  98.8276826  -9.2698793
 135.8419992 100.4569978 -10.5919986 134.9529992 100.5559978 -10.9319986
 136.1389992  99.6149978 -10.9379986 135.7604177 100.3567687 -10.6853060
 139.4949992 100.4569978 -12.9349986 140.4269992 100.5859978 -12.7569986
 139.2799992 101.1259978 -13.5849986 139.5934472 100.5650806 -12.9985109
 145.4189992  98.0629978  -6.1539986 144.7419992  98.1939978  -5.4909986
 144.9339992  97.9079978  -6.9649986 145.2607405  98.0599947  -6.1727830
 138.1689992 101.6509978 -15.3689986 137.6269992 101.2719978 -16.0599986
 139.0029992 101.8459978 -15.7969986 138.2074390 101.6254079 -15.5215608
 136.3049992 106.2079978  -0.2699986 137.0369992 106.4629978   0.2920014
 135.5239992 106.4129978   0.2460014 136.2996526 106.2705450  -0.1234824
 142.3339992 101.6149978  -7.5319986 142.8979992 101.0689978  -8.0789986
 142.1859992 101.0939978  -6.7429986 142.3913037 101.4696787  -7.5002771
 137.3359992  97.7519978 -11.1129986 137.0189992  96.8489978 -11.1489986
 138.1169992  97.7539978 -11.6659986 137.3982431  97.6287797 -11.1926898
 140.9599992 100.0039978  -5.1179986 140.1249992 100.4579978  -5.0069986
 141.4839992 100.2799978  -4.3659986 140.9166072 100.1033948  -5.0011864
 141.5049992 106.2169978 -13.4329986 140.7599992 105.7089978 -13.7549986
 141.3699992 106.2659978 -12.4869986 141.3848963 106.1541731 -13.3491174
 145.4019992  99.0309978 -15.2339986 144.4639992  99.1419978 -15.3849986
 145.6999992  99.8869978 -14.9269986 145.3136318  99.1620158 -15.2131855
 143.0239992 106.4009978  -2.1959986 142.6779992 106.0189978  -1.3889986
 142.8239992 107.3339978  -2.1249986 142.9495987 106.4749002  -2.0759539
 136.6289992 105.5119978  -7.6629986 137.3739992 105.5089978  -8.2649986
 136.7069992 104.6879978  -7.1819986 136.7413365 105.4002384  -7.6802570
 143.6299992 107.6749978 -14.4079986 143.3349992 108.5019978 -14.0259986
 142.9269992 107.0559978 -14.2109986 143.4946379 107.7044171 -14.3291346
 133.6369992 103.9719978  -2.3479986 133.8599992 103.5539978  -1.5169986
 133.0349992 103.3599978  -2.7709986 133.5861513 103.8319606  -2.2913260
 140.6539992 103.4889978  -0.1349986 140.3579992 103.3239978  -1.0309986
 141.5849992 103.2689978  -0.1459986 140.7394401 103.4366879  -0.2589794
 145.2739992 108.8629978  -2.2459986 144.3739992 109.0459978  -2.5129986
 145.3079992 109.1219978  -1.3249986 145.1553748 108.9230554  -2.1580836
 139.0039992 109.0299978 -10.2589986 139.5319992 109.8029978 -10.4589986
 138.1239992 109.2539978 -10.5609986 138.9573435 109.1662700 -10.3272690
 134.7589992 103.8919978 -15.6719986 135.3749992 104.5189978 -15.2919986
 133.8969992 104.2079978 -15.3999986 134.7267678 104.0204412 -15.5832791
 140.4319992 106.6929978 -10.6829986 140.1909992 107.6179978 -10.6409986
 139.6909992 106.2339978 -10.2859986 140.2989206 106.7575915 -10.6236231
 140.9459992 110.8419978  -4.3679986 141.3089992 111.6959978  -4.6009986
 141.4779992 110.5499978  -3.6269986 141.0675141 110.9193895  -4.2997903
 139.1149992 111.7139978 -11.1369986 138.1649992 111.8199978 -11.0859986
 139.4669992 112.5349978 -10.7929986 139.0325472 111.8394923 -11.0835148
 144.4899992 106.9409978  -4.6669986 144.0649992 106.7129978  -3.8409986
 145.0709992 106.2019978  -4.8489986 144.5103395 106.8099545  -4.5785586
 135.2709992  98.7259978  -2.7899986 134.3789992  99.0639978  -2.8579986
 135.1729992  97.8699978  -2.3719986 135.1354475  98.6566543  -2.7428296
 134.9229992 110.5299978  -4.3549986 135.1399992 109.5979978  -4.3859986
 135.1689992 110.8049978  -3.4719986 134.9859809 110.4395686  -4.2398310
 139.7209992 108.5519978 -14.6899986 139.8679992 108.0319978 -13.8999986
 139.7179992 109.4589978 -14.3829986 139.7407102 108.6033953 -14.5404075
 136.1739992 105.8039978 -14.1789986 135.4879992 106.1569978 -13.6119986
 136.6969992 106.5669978 -14.4259986 136.1508402 105.9553901 -14.1348199
 144.0059992  98.4669978  -3.8999986 144.7049992  98.5409978  -3.2499986
 143.6249992  97.6019978  -3.7459986 144.0502097  98.3602389  -3.7902003
 144.7899992  98.1189978 -12.8029986 145.0099992  98.5899978 -13.6069986
 145.3489992  98.5129978 -12.1329986 144.8956732  98.2367287 -12.8224967
 142.4589992 110.2489978 -13.9399986 141.6419992 110.7459978 -13.8879986
 142.9879992 110.7249978 -14.5809986 142.4188125 110.3811989 -14.0194694
 141.9899992  99.8469978 -11.9679986 142.8019992 100.3509978 -11.9219986
 141.7459992  99.7019978 -11.0539986 142.0681467  99.8963749 -11.8381425
 142.5259992 100.8329978  -2.7839986 142.6449992 101.4069978  -2.0269986
 143.1809992 100.1449978  -2.6689986 142.6308684 100.8185194  -2.6648326
 142.8739992  96.9279978 -11.0299986 142.5269992  97.5449978 -10.3859986
 143.5329992  97.4289978 -11.5119986 142.9155090  97.0801575 -11.0069319
 139.7969992 111.2929978 -13.9589986 139.9579992 112.0929978 -14.4589986
 139.5999992 111.5999978 -13.0739986 139.7923906 111.4438678 -13.9077667
 138.5319992  97.9909978 -14.3429986 138.4479992  98.8789978 -13.9959986
 139.4219992  97.7259978 -14.1109986 138.6408163  98.0767179 -14.2641404
 136.7899992 108.4179978 -15.2829986 137.3819992 109.1179978 -15.0059986
 137.2489992 107.9849978 -16.0019986 136.9331652 108.4552675 -15.3423467
 135.1059992 101.0829978 -16.1669986 135.0609992 102.0219978 -15.9879986
 134.2179992 100.8469978 -16.4359986 134.9798166 101.1796687 -16.1788476
 135.9139992  95.8639978  -7.4929986 135.6849992  95.9229978  -8.4209986
 135.4719992  95.0729978  -7.1869986 135.8228801  95.7650540  -7.5785271
 134.8449992 109.8049978 -11.3329986 134.0119992 110.2769978 -11.3059986
 135.3899992 110.3149978 -11.9319986 134.8047857 109.9384791 -11.4102858
 134.1329992 112.4169978  -0.0029986 134.6729992 112.2009978   0.7570014
 133.6519992 111.6119978  -0.1929986 134.1419219 112.2785156   0.0754282
 138.7299992 111.3369978   1.6170014 139.4979992 110.8779978   1.9580014
 138.7089992 111.1109978   0.6870014 138.8322135 111.2436668   1.5379491
 142.8219992 110.8449978 -17.0069986 142.1779992 110.2139978 -16.6859986
 143.5839992 110.3139978 -17.2389986 142.8368058 110.6867902 -16.9943962
 145.3069992 109.7169978   0.3460014 144.9559992 108.8599978   0.5900014
 146.0329992 109.8589978   0.9530014 145.3571895 109.6191351   0.4613770
 134.0399992 106.2279978   0.9510014 134.1839992 105.3259978   0.6650014
 133.2679992 106.5139978   0.4640014 133.9552733 106.1431798   0.8459532
 138.3809992 106.5709978 -16.9159986 138.4459992 105.7769978 -16.3859986
 139.0339992 106.4529978 -17.6059986 138.4781605 106.4463430 -16.9367003
 140.6949992 106.1969978   0.3840014 140.3669992 106.4679978  -0.4729986
 140.8469992 105.2559978   0.2960014 140.6706412 106.1069046   0.2547822
 134.8729992 103.4279978   0.3710014 135.2809992 102.5709978   0.2500014
 134.6119992 103.4419978   1.2920014 134.8936016 103.3125119   0.4789192
 139.5309992 104.5439978 -14.6099986 139.0709992 104.0599978 -13.9249986
 139.7859992 103.8749978 -15.2459986 139.5024856 104.3873669 -14.6021603
 138.8199992 102.4369978  -2.2539986 138.2009992 103.1109978  -1.9739986
 139.1639992 102.7579978  -3.0879986 138.7817123 102.5726887  -2.3283612
 140.6019992 102.7869978 -16.3479986 140.4209992 102.6319978 -17.2749986
 141.5519992 102.8949978 -16.3029986 140.7056566 102.7803669 -16.4689071
 143.8389992 104.9079978   1.0230014 144.7929992 104.9919978   0.9960014
 143.6789992 104.1959978   1.6430014 143.9477182 104.8232842   1.1030733
 139.1589992  99.7919978  -1.1719986 139.3089992  99.0629978  -1.7739986
 139.1609992 100.5689978  -1.7309986 139.1797967  99.7972708  -1.3299459
 139.5719992  98.1609978  -3.6789986 140.1069992  98.6129978  -4.3309986
 138.7189992  98.0529978  -4.1019986 139.5300374  98.2082665  -3.8253290
 141.1529992 103.6009978  -3.4399986 141.9039992 103.4449978  -4.0129986
 140.8139992 104.4529978  -3.7149986 141.2099587 103.6948138  -3.5555922
 145.5689992 101.4159978   1.5890014 145.7609992 100.4849978   1.4770014
 146.4269992 101.8409978   1.5780014 145.7112182 101.3460070   1.5721862
 137.6379992 100.9899978   0.7390014 136.8699992 100.4569978   0.5290014
 138.3159992 100.6799978   0.1400014 137.6247235 100.8751754   0.6292413
 140.3769992  95.6179978  -3.2479986 140.2789992  96.5639978  -3.3529986
 139.6349992  95.2449978  -3.7239986 140.2632534  95.6971773  -3.3267400
 141.6409992  99.9389978   0.3160014 141.4059992  99.7199978   1.2170014
 140.8579992  99.7319978  -0.1939986 141.5029095  99.8809892   0.3705353
 144.3569992  99.0669978  -0.6089986 143.4089992  99.0989978  -0.4769986
 144.6689992  98.4409978   0.0450014 144.2695293  98.9867923  -0.5025852
 135.8179992  98.9099978   0.4440014 136.0299992  98.2039978  -0.1659986
 135.7069992  98.4729978   1.2880014 135.8320269  98.7541921   0.4745873
 140.5989992  94.9119978  -0.5769986 141.3109992  94.2719978  -0.5909986
 140.4979992  95.1779978  -1.4899986 140.6827387  94.8604330  -0.7024437
 140.9529992  96.5939978   1.4770014 140.8209992  96.1189978   0.6570014
 140.3529992  97.3389978   1.4220014 140.8539070  96.6295789   1.3573251
 140.4989992 113.4769978 -15.3469986 141.4319992 113.6349978 -15.2029986
 140.2349992 114.1529978 -15.9719986 140.5909911 113.5899373 -15.4117278
 134.0669992 108.1139978 -15.8639986 134.9809992 108.1929978 -15.5909986
 134.0749992 107.4269978 -16.5299986 134.1930655 108.0319205 -15.9167083
 132.7159992 113.5069978 -10.7869986 132.0689992 113.0449978 -11.3189986
 133.0709992 112.8349978 -10.2039986 132.6753741 113.3529774 -10.7810825
 133.5859992 111.5869978  -8.9819986 133.2519992 110.7069978  -8.8099986
 133.8089992 111.9329978  -8.1169986 133.5703721 111.5131938  -8.8415832
 133.6659992 104.6629978  -6.5299986 133.8509992 104.5809978  -7.4659986
 134.5159992 104.5389978  -6.1069986 133.8060928 104.6350463  -6.6007107
 133.2639992  99.9329978  -0.3899986 134.1829992  99.8109978  -0.1529986
 132.8139992  99.1829978   0.0000014 133.3290087  99.8149608  -0.3048590
 134.4849992  98.2459978  -7.4979986 134.9299992  97.4539978  -7.1959986
 134.9509992  98.9619978  -7.0679986 134.6089718  98.2344534  -7.3984735
 132.7889992 101.2449978  -6.4289986 133.2809992 101.0239978  -7.2199986
 133.1509992 102.0849978  -6.1479986 132.9052923 101.3283468  -6.4992593
 133.1029992  97.5029978 -12.3749986 132.1779992  97.7109978 -12.5039986
 133.5569992  97.9869978 -13.0649986 133.0376298  97.5969299 -12.4859549
 133.0659992  96.2409978  -4.0309986 132.4009992  95.9949978  -3.3879986
 132.6229992  96.8629978  -4.6079986 132.9151168  96.2914214  -4.0210152
 135.2579992 109.4159978   0.1140014 134.4369992 109.5909978  -0.3469986
 135.0059992 109.3429978   1.0340014 135.1115594 109.4300717   0.1753611
 138.2119992 110.3899978  -3.6279986 137.7879992 111.1999978  -3.9099986
 139.1169992 110.4759978  -3.9299986 138.2762138 110.5124160  -3.7073585
 142.5239992 111.7889978  -0.6679986 142.7079992 111.4559978   0.2100014
 143.3699992 112.0989978  -0.9899986 142.6636484 111.7852979  -0.5912383
 144.8689992 113.0749978  -1.4239986 145.5459992 112.4419978  -1.6639986
 145.1899992 113.4759978  -0.6169986 145.0051323 113.0425691  -1.3476842
 135.6139992 113.6469978  -3.5799986 134.8939992 114.0869978  -4.0309986
 135.2489992 113.3959978  -2.7319986 135.4659643 113.6733369  -3.5270871
 138.0809992 113.2469978  -4.5499986 137.2169992 113.3189978  -4.1459986
 138.0259992 113.7939978  -5.3339986 137.9551942 113.3307849  -4.6006000
 142.7919992 113.1349978  -5.3749986 142.3349992 113.6639978  -6.0289986
 142.9549992 113.7379978  -4.6499986 142.7514960 113.2889280  -5.3664726
 145.1199992 112.0129978  -4.4299986 144.2149992 112.1779978  -4.6959986
 145.5479992 112.8659978  -4.4959986 145.0541537 112.1509134  -4.4752905
 135.0289992 112.2699978  -6.6699986 135.0109992 111.8439978  -5.8129986
 135.8339992 111.9509978  -7.0789986 135.1352875 112.1686435  -6.6080485
 137.1699992 110.9799978  -8.0149986 136.9509992 110.0629978  -7.8449986
 137.9939992 111.1199978  -7.5489986 137.2514702 110.8735511  -7.9287473
 139.7069992 111.4499978  -7.1659986 139.9199992 110.5619978  -7.4529986
 139.7719992 111.4149978  -6.2119986 139.7449149 111.3238326  -7.0762631
 143.2159992  97.1139978  -8.0219986 142.5419992  96.4839978  -7.7659986
 143.7799992  96.6299978  -8.6249986 143.2000384  96.9623708  -8.0684980
 135.5429992  95.7479978 -10.1999986 134.7659992  95.5129978 -10.7069986
 136.0729992  94.9509978 -10.1909986 135.5083451  95.6081268 -10.2681373
 134.3789992  95.5459978 -14.3959986 134.8179992  96.1569978 -14.9879986
 133.7449992  96.0839978 -13.9219986 134.3533859  95.7024064 -14.4129695
 140.1219992  95.6739978 -10.3869986 140.9959992  96.0629978 -10.4159986
 139.9859992  95.4589978  -9.4639986 140.2231953  95.6981643 -10.2662383
 134.2799992 111.4939978 -13.4989986 133.5949992 111.4559978 -14.1659986
 134.2839992 112.4069978 -13.2109986 134.1867621 111.6121924 -13.5513874
 136.2399992  97.4619978 -15.9539986 136.7309992  96.8319978 -16.4809986
 136.8629992  97.7579978 -15.2909986 136.3915304  97.4157376 -15.9365060
 141.2659992  97.7549978 -13.4969986 141.4439992  97.1079978 -12.8139986
 141.2119992  98.5889978 -13.0299986 141.2830678  97.7791604 -13.3403699
 143.1439992 112.7029978 -15.1009986 144.0099992 113.0699978 -15.2789986
 142.8979992 112.2639978 -15.9149986 143.2292097 112.6938525 -15.2353981
 135.4999992  96.2619978  -0.6819986 135.1339992  95.4959978  -0.2399986
 136.4129992  96.2909978  -0.3959986 135.5733172  96.1610324  -0.5828110
 137.4729992  95.6119978   0.8530014 138.3719992  95.3379978   0.6690014
 137.0869992  94.8699978   1.3180014 137.5437307  95.4742196   0.8907098
 136.0979992 112.4139978 -16.4739986 135.8299992 112.6999978 -15.5999986
 136.8689992 111.8679978 -16.3209986 136.1655926 112.3792779 -16.3338795
  12.6289992 123.7599978 -10.2409986  12.7179992 124.7039978 -10.3729986
  11.9909992 123.4849978 -10.8989986  12.5549062 123.8519812 -10.3480359
  11.5619992 123.0149978  -6.8219986  11.5239992 122.3689978  -6.1169986
  11.2399992 122.5479978  -7.5929986  11.5132679 122.8634276  -6.8297079
   3.9299992 122.6289978  -5.2289986   3.9719992 122.0039978  -4.5059986
   4.6329992 123.2529978  -5.0469986   4.0307345 122.6277873  -5.1054726
  15.2679992 125.9539978  -8.5209986  14.8269992 125.2339978  -8.0699986
  15.2549992 126.6749978  -7.8909986  15.2059215 125.9529291  -8.3741895
   4.8539992 127.0789978  -6.6939986   4.4839992 126.2769978  -7.0639986
   5.7949992 126.9109978  -6.6479986   4.9305984 126.9464638  -6.7384397
   1.4639992 120.7389978 -11.3019986   1.0159992 121.5849978 -11.3199986
   0.9029992 120.1599978 -11.8169986   1.3268546 120.7763993 -11.3741109
   2.1739992 122.9009978  -9.1759986   2.3879992 122.1309978  -8.6479986
   2.9119992 122.9909978  -9.7789986   2.3030200 122.8078587  -9.1852965
  12.3799992 131.0579978  -8.3089986  12.9989992 130.3819978  -8.5819986
  12.1709992 130.8399978  -7.3999986  12.4366056 130.9358869  -8.2236033
   9.9509992 125.4469978  -6.4159986  10.2549992 124.7609978  -7.0109986
  10.6729992 125.5659978  -5.7979986  10.0901240 125.3692314  -6.4139041
  18.6139992 117.0489978  -5.5559986  18.6639992 117.6589978  -4.8199986
  19.0399992 117.5099978  -6.2789986  18.6784108 117.1947709  -5.5529888
  13.0919992 119.8409978  -6.0889986  13.2349992 118.8949978  -6.0689986
  12.9859992 120.0479978  -7.0169986  13.0972403 119.7394797  -6.2117761
   6.2469992 117.9429978  -8.8159986   6.2899992 118.8029978  -9.2349986
   5.7889992 117.3909978  -9.4499986   6.1909871 117.9859245  -8.9589239
  13.9689992 118.0739978 -10.4149986  14.6159992 117.7449978  -9.7909986
  14.4789992 118.5909978 -11.0379986  14.1264351 118.0989067 -10.4138963
   2.8669992 120.3399978  -8.0539986   3.5209992 119.7899978  -7.6219986
   2.8909992 120.0659978  -8.9709986   2.9597199 120.2277167  -8.1188332
   8.0239992 121.8899978  -8.8389986   8.6399992 121.3629978  -8.3299986
   7.4369992 121.2499978  -9.2429986   8.0290154 121.7313954  -8.8239055
  19.0059992 118.5269978  -3.3199986  18.3169992 119.1849978  -3.4149986
  19.0209992 118.3289978  -2.3829986  18.9137756 118.5902603  -3.2064188
   5.0569992 116.8609978  -4.7419986   4.8379992 117.3909978  -5.5089986
   4.3889992 117.0869978  -4.0949986   4.9366975 116.9640967  -4.7594860
  12.4259992 126.3609978 -11.1979986  12.1309992 126.0379978 -12.0499986
  12.1019992 127.2609978 -11.1569986  12.3418460 126.4384464 -11.3090286
   7.6259992 124.5359978  -4.4549986   6.8859992 125.1349978  -4.3509986
   8.3399992 125.0899978  -4.7699986   7.6213500 124.6927829  -4.4833629
  15.7329992 117.3649978  -8.4349986  15.5179992 116.5989978  -7.9019986
  16.3889992 117.8369978  -7.9219986  15.7922673 117.3240728  -8.2928010
   4.6509992 118.7529978  -6.7899986   5.2649992 119.3859978  -6.4169986
   5.1629992 118.2809978  -7.4459986   4.8041962 118.7757249  -6.8277065
   6.0339992 126.5009978  -3.6679986   6.0279992 127.3799978  -4.0459986
   5.1799992 126.4169978  -3.2429986   5.9177925 126.6099535  -3.6623113
   2.1549992 126.1719978 -12.8859986   1.8829992 126.4009978 -13.7739986
   2.1999992 127.0089978 -12.4249986   2.1238097 126.3166163 -12.9453317
  15.7799992 127.7929978  -6.1729986  14.8379992 127.8519978  -6.0109986
  16.0559992 128.6989978  -6.3099986  15.6885865 127.9235288  -6.1693808
  16.0799992 116.0799978  -4.7559986  15.3439992 116.6899978  -4.7929986
  16.7639992 116.4949978  -5.2819986  16.0715367 116.2197551  -4.8321826
   9.0839992 114.1659978  -7.2899986   8.9659992 113.2179978  -7.3439986
   8.2289992 114.4989978  -7.0169986   8.9522805 114.0812202  -7.2604921
  14.0319992 129.5739978  -9.5479986  14.4569992 128.8669978 -10.0329986
  14.3489992 130.3759978  -9.9649986  14.1330266 129.5855190  -9.6707521
  15.1919992 127.4749978 -11.0389986  14.9339992 126.7849978 -11.6509986
  15.2629992 127.0319978 -10.1939986  15.1663050 127.3206814 -11.0084379
  16.8779992 126.0419978  -2.5619986  17.0169992 125.4499978  -3.3009986
  17.0449992 126.9149978  -2.9179986  16.9196193 126.0788896  -2.7113789
  11.3499992 123.0039978 -12.7889986  10.6389992 123.5389978 -13.1409986
  12.0409992 123.0589978 -13.4489986  11.3460751 123.0846777 -12.9264142
  11.4039992 121.4609978 -15.7509986  12.1049992 121.4839978 -15.0989986
  11.7059992 120.8329978 -16.4069986  11.5408202 121.3792212 -15.7504391
  18.7189992 122.3819978  -4.4959986  18.0669992 123.0759978  -4.4069986
  19.1849992 122.5919978  -5.3059986  18.6925937 122.5055019  -4.5932467
  14.7559992 123.2129978 -11.8379986  14.0239992 123.4419978 -11.2639986
  15.2029992 122.4999978 -11.3829986  14.7163963 123.1478729 -11.6980055
  14.6529992 121.3879978  -2.7699986  14.7329992 122.1509978  -2.1979986
  14.0519992 121.6669978  -3.4599986  14.5826547 121.5302457  -2.7849953
   6.4009992 123.8439978  -9.9549986   6.0709992 123.4729978 -10.7729986
   6.9899992 123.1729978  -9.6079986   6.4353970 123.7026063 -10.0200596
   7.7679992 127.2719978  -7.2739986   7.6729992 126.6929978  -8.0299986
   8.4969992 126.9009978  -6.7779986   7.8536011 127.1425561  -7.3103972
   6.7679992 122.6119978  -6.3219986   7.3329992 122.7339978  -7.0839986
   7.0869992 123.2499978  -5.6829986   6.8884166 122.7148791  -6.3399652
  13.0769992 128.1159978  -5.5879986  12.8369992 128.7779978  -4.9399986
  12.8789992 127.2809978  -5.1629986  13.0173826 128.0938115  -5.4418434
   7.6479992 127.0119978  -1.6039986   7.3369992 127.7939978  -1.1489986
   6.9979992 126.8589978  -2.2899986   7.5175538 127.0984087  -1.6344102
  13.6269992 122.3759978 -14.1519986  14.2059992 122.5259978 -13.4059986
  14.0409992 122.8459978 -14.8759986  13.7623358 122.4600954 -14.1476047
   4.5679992 123.2099978  -2.3759986   4.6379992 123.8609978  -1.6769986
   3.6769992 123.3129978  -2.7109986   4.4571690 123.3129249  -2.3256957
  11.3529992 129.1119978 -10.7169986  11.8269992 129.4079978  -9.9399986
  10.7899992 129.8509978 -10.9499986  11.3417890 129.2523036 -10.6421899
   5.8869992 129.0829978  -0.8409986   5.8949992 128.9469978  -1.7879986
   4.9709992 128.9659978  -0.5889986   5.7642528 129.0485463  -0.9366757
  17.3259992 114.1259978 -14.3389986  16.4259992 114.2649978 -14.0439986
  17.5779992 114.9569978 -14.7409986  17.2368683 114.2574055 -14.3529768
   5.3919992 122.9129978 -12.3659986   5.0999992 123.6809978 -12.8569986
   4.7169992 122.2539978 -12.5289986   5.2608497 122.9289745 -12.4551740
  18.5149992 128.4919978 -15.9629986  18.5879992 129.4309978 -15.7929986
  19.4199992 128.1869978 -16.0189986  18.6474170 128.5793282 -15.9472937
   1.4849992 125.2759978  -3.5509986   0.9829992 125.2479978  -4.3659986
   1.4899992 124.3709978  -3.2409986   1.4169832 125.1497486  -3.6205879
   1.2349992 128.0569978  -6.6669986   2.1809992 127.9119978  -6.6859986
   1.1219992 128.8409978  -6.1299986   1.3493578 128.1431697  -6.5969683
  19.4329992 128.7229978  -0.9839986  19.3829992 127.7669978  -1.0219986
  18.6059992 128.9899978  -0.5829986  19.3143831 128.6284680  -0.9349879
  10.4109992 128.2969978  -2.1079986  10.4989992 129.1229978  -1.6329986
   9.5479992 127.9669978  -1.8589986  10.3063357 128.3655468  -2.0092347
  10.8259992 132.0689978 -12.3019986  10.7499992 131.9479978 -13.2489986
  10.8579992 133.0179978 -12.1839986  10.8199380 132.1807677 -12.4154819
   4.4789992 130.8579978 -10.5209986   4.6309992 130.5099978  -9.6429986
   3.6279992 130.5009978 -10.7769986   4.3848344 130.7620879 -10.4353132
  13.9269992 131.2229978 -15.2999986  14.3019992 130.4789978 -15.7709986
  13.9319992 130.9529978 -14.3819986  13.9790098 131.0846392 -15.2403371
  13.5959992 131.1489978 -12.5509986  12.6609992 131.2489978 -12.3719986
  13.8759992 130.4389978 -11.9719986  13.5059471 131.0667933 -12.4483305
  16.5849992 120.2159978  -0.5039986  16.1769992 120.6959978  -1.2249986
  16.6249992 119.3099978  -0.8119986  16.5346221 120.1592449  -0.6441733
   3.7339992 126.5999978  -2.5079986   3.9499992 126.2379978  -1.6479986
   2.8779992 126.2249978  -2.7169986   3.6478810 126.4998837  -2.4187320
   6.3519992 115.0699978  -6.5119986   5.4909992 114.9829978  -6.9199986
   6.3299992 115.9259978  -6.0839986   6.2310491 115.1738003  -6.5100418
  11.0149992 114.7919978  -3.1369986  11.4349992 114.3769978  -2.3839986
  10.0819992 114.6129978  -3.0199986  10.9463736 114.7109910  -3.0181032
  14.3419992 118.5469978  -2.2839986  13.8279992 118.4219978  -1.4859986
  14.1859992 119.4599978  -2.5279986  14.2506967 118.6532123  -2.2079063
  15.1039992 123.4079978 -16.5229986  15.1459992 123.1859978 -17.4529986
  15.9529992 123.8069978 -16.3329986  15.2245253 123.4315498 -16.6246178
  10.6769992 117.2839978 -15.8519986  10.4229992 117.3029978 -14.9299986
  10.4199992 116.4129978 -16.1539986  10.6074508 117.1688280 -15.7665197
   6.4429992 120.0349978  -5.4169986   5.8019992 119.9949978  -4.7079986
   6.4809992 120.9619978  -5.6549986   6.3603010 120.1547668  -5.3520054
   6.4399992 120.2559978 -10.5049986   5.5479992 119.9159978 -10.5639986
   6.8909992 119.8789978 -11.2609986   6.3787642 120.1584910 -10.6152274
  11.9759992 120.6719978 -11.6879986  11.5669992 121.4869978 -11.9799986
  12.6959992 120.5319978 -12.3019986  12.0174439 120.7645372 -11.8109885
  11.0779992 120.8479978  -0.1999986  10.5149992 120.1429978   0.1210014
  11.9039992 120.7269978   0.2680014  11.1126674 120.7352165  -0.0928249
  12.9809992 120.1179978  -8.8739986  12.7849992 120.7239978  -9.5889986
  13.1619992 119.2849978  -9.3079986  12.9786584 120.0882513  -9.0305788
   4.1929992 120.3559978  -3.5499986   4.1549992 120.7559978  -2.6809986
   3.7029992 119.5389978  -3.4599986   4.1215330 120.3002674  -3.4188711
   7.5589992 117.7299978 -16.7509986   7.1279992 117.2849978 -16.0219986
   6.8409992 118.1009978 -17.2639986   7.4029176 117.7192051 -16.7205070
   0.8019992 117.4719978  -9.6989986   1.4319992 117.4429978  -8.9799986
   1.2509992 117.0469978 -10.4299986   0.9490835 117.4105660  -9.6992341
   2.0759992 118.2179978 -14.2749986   2.5499992 118.8089978 -14.8599986
   1.3579992 118.7479978 -13.9279986   2.0438640 118.3705511 -14.3082031
  12.2449992 121.7559978  -4.2029986  12.5679992 121.1249978  -4.8459986
  11.8039992 121.2219978  -3.5419986  12.2296379 121.5973468  -4.2017418
   9.0219992 117.6839978  -9.4189986   8.1109992 117.7409978  -9.1299986
   9.5269992 117.6239978  -8.6079986   8.9656873 117.6836826  -9.2698793
   3.8499992 119.3129978 -10.5919986   2.9609992 119.4119978 -10.9319986
   4.1469992 118.4709978 -10.9379986   3.7684177 119.2127687 -10.6853060
   7.5029992 119.3129978 -12.9349986   8.4349992 119.4419978 -12.7569986
   7.2879992 119.9819978 -13.5849986   7.6014472 119.4210806 -12.9985109
  13.4269992 116.9189978  -6.1539986  12.7499992 117.0499978  -5.4909986
  12.9419992 116.7639978  -6.9649986  13.2687405 116.9159947  -6.1727830
   6.1769992 120.5069978 -15.3689986   5.6349992 120.1279978 -16.0599986
   7.0109992 120.7019978 -15.7969986   6.2154390 120.4814079 -15.5215608
  16.7149992 132.5899978   0.1220014  16.9139992 133.0139978  -0.7119986
  17.3699992 132.9339978   0.7290014  16.8308522 132.6946301   0.0897852
   4.3129992 125.0639978  -0.2699986   5.0449992 125.3189978   0.2920014
   3.5319992 125.2689978   0.2460014   4.3076526 125.1265450  -0.1234824
  10.3419992 120.4709978  -7.5319986  10.9059992 119.9249978  -8.0789986
  10.1939992 119.9499978  -6.7429986  10.3993037 120.3256787  -7.5002771
   5.3439992 116.6079978 -11.1129986   5.0269992 115.7049978 -11.1489986
   6.1249992 116.6099978 -11.6659986   5.4062431 116.4847797 -11.1926898
   8.9679992 118.8599978  -5.1179986   8.1329992 119.3139978  -5.0069986
   9.4919992 119.1359978  -4.3659986   8.9246072 118.9593948  -5.0011864
   9.5129992 125.0729978 -13.4329986   8.7679992 124.5649978 -13.7549986
   9.3779992 125.1219978 -12.4869986   9.3928963 125.0101731 -13.3491174
  16.6629992 124.2059978  -4.6459986  17.3039992 124.6619978  -5.1899986
  15.8319992 124.3189978  -5.1089986  16.6385287 124.2836921  -4.7830113
  13.4099992 117.8869978 -15.2339986  12.4719992 117.9979978 -15.3849986
  13.7079992 118.7429978 -14.9269986  13.3216318 118.0180158 -15.2131855
  11.0319992 125.2569978  -2.1959986  10.6859992 124.8749978  -1.3889986
  10.8319992 126.1899978  -2.1249986  10.9575987 125.3309002  -2.0759539
  14.1289992 119.7539978 -13.5729986  15.0209992 119.6159978 -13.2539986
  14.1849992 120.5449978 -14.1099986  14.2587325 119.8419918 -13.6018783
   4.6369992 124.3679978  -7.6629986   5.3819992 124.3649978  -8.2649986
   4.7149992 123.5439978  -7.1819986   4.7493365 124.2562384  -7.6802570
  11.6379992 126.5309978 -14.4079986  11.3429992 127.3579978 -14.0259986
  10.9349992 125.9119978 -14.2109986  11.5026379 126.5604171 -14.3291346
   1.6449992 122.8279978  -2.3479986   1.8679992 122.4099978  -1.5169986
   1.0429992 122.2159978  -2.7709986   1.5941513 122.6879606  -2.2913260
   8.6619992 122.3449978  -0.1349986   8.3659992 122.1799978  -1.0309986
   9.5929992 122.1249978  -0.1459986   8.7474401 122.2926879  -0.2589794
  13.2819992 127.7189978  -2.2459986  12.3819992 127.9019978  -2.5129986
  13.3159992 127.9779978  -1.3249986  13.1633748 127.7790554  -2.1580836
  19.0139992 119.9629978 -13.8779986  18.4589992 119.5669978 -14.5509986
  19.1139992 120.8739978 -14.1559986  18.9516816 120.0319505 -14.0074967
  18.9769992 125.7639978  -1.0409986  18.1259992 126.0019978  -1.4089986
  19.5669992 125.7469978  -1.7939986  18.9403812 125.7942524  -1.1931547
  17.3089992 128.7489978 -13.4129986  16.9359992 127.9239978 -13.1039986
  17.5859992 128.5659978 -14.3109986  17.2953463 128.6112569 -13.4920475
  14.4689992 123.5569978  -6.3919986  13.5409992 123.3259978  -6.4189986
  14.9199992 122.7799978  -6.7219986  14.4028165 123.4202774  -6.4403210
   7.0119992 127.8859978 -10.2589986   7.5399992 128.6589978 -10.4589986
   6.1319992 128.1099978 -10.5609986   6.9653435 128.0222700 -10.3272690
   2.7669992 122.7479978 -15.6719986   3.3829992 123.3749978 -15.2919986
   1.9049992 123.0639978 -15.3999986   2.7347678 122.8764412 -15.5832791
   8.4399992 125.5489978 -10.6829986   8.1989992 126.4739978 -10.6409986
   7.6989992 125.0899978 -10.2859986   8.3069206 125.6135915 -10.6236231
   8.9539992 129.6979978  -4.3679986   9.3169992 130.5519978  -4.6009986
   9.4859992 129.4059978  -3.6269986   9.0755141 129.7753895  -4.2997903
   7.1229992 130.5699978 -11.1369986   6.1729992 130.6759978 -11.0859986
   7.4749992 131.3909978 -10.7929986   7.0405472 130.6954923 -11.0835148
  12.4979992 125.7969978  -4.6669986  12.0729992 125.5689978  -3.8409986
  13.0789992 125.0579978  -4.8489986  12.5183395 125.6659545  -4.5785586
  14.7009992 126.7259978 -15.5929986  15.0549992 126.3459978 -14.7889986
  13.7529992 126.6319978 -15.5059986  14.6212298 126.6612452 -15.4711313
  15.1569992 130.3489978  -2.1979986  14.5549992 129.7929978  -2.6929986
  15.4379992 131.0159978  -2.8239986  15.1125757 130.3630744  -2.3504325
  19.2049992 131.2049978 -15.3919986  19.9489992 131.7909978 -15.5319986
  18.5109992 131.7739978 -15.0589986  19.2129809 131.3620818 -15.3661410
   3.2789992 117.5819978  -2.7899986   2.3869992 117.9199978  -2.8579986
   3.1809992 116.7259978  -2.3719986   3.1434475 117.5126543  -2.7428296
  15.5669992 125.3979978 -13.3659986  15.2899992 124.6699978 -12.8099986
  16.4949992 125.5169978 -13.1609986  15.6544499 125.3144213 -13.2621956
   2.9309992 129.3859978  -4.3549986   3.1479992 128.4539978  -4.3859986
   3.1769992 129.6609978  -3.4719986   2.9939809 129.2955686  -4.2398309
   7.7289992 127.4079978 -14.6899986   7.8759992 126.8879978 -13.8999986
   7.7259992 128.3149978 -14.3829986   7.7487102 127.4593953 -14.5404075
   4.1819992 124.6599978 -14.1789986   3.4959992 125.0129978 -13.6119986
   4.7049992 125.4229978 -14.4259986   4.1588402 124.8113901 -14.1348199
  12.0139992 117.3229978  -3.8999986  12.7129992 117.3969978  -3.2499986
  11.6329992 116.4579978  -3.7459986  12.0582097 117.2162389  -3.7902003
  12.7979992 116.9749978 -12.8029986  13.0179992 117.4459978 -13.6069986
  13.3569992 117.3689978 -12.1329986  12.9036731 117.0927287 -12.8224967
  10.4669992 129.1049978 -13.9399986   9.6499992 129.6019978 -13.8879986
  10.9959992 129.5809978 -14.5809986  10.4268125 129.2371989 -14.0194694
   9.9979992 118.7029978 -11.9679986  10.8099992 119.2069978 -11.9219986
   9.7539992 118.5579978 -11.0539986  10.0761467 118.7523749 -11.8381425
  10.5339992 119.6889978  -2.7839986  10.6529992 120.2629978  -2.0269986
  11.1889992 119.0009978  -2.6689986  10.6388684 119.6745194  -2.6648326
  10.8819992 115.7839978 -11.0299986  10.5349992 116.4009978 -10.3859986
  11.5409992 116.2849978 -11.5119986  10.9235090 115.9361575 -11.0069319
   7.8049992 130.1489978 -13.9589986   7.9659992 130.9489978 -14.4589986
   7.6079992 130.4559978 -13.0739986   7.8003906 130.2998678 -13.9077667
   6.5399992 116.8469978 -14.3429986   6.4559992 117.7349978 -13.9959986
   7.4299992 116.5819978 -14.1109986   6.6488163 116.9327179 -14.2641404
  16.7379992 117.5959978  -1.9489986  15.8219992 117.8579978  -2.0359986
  17.0739992 117.5929978  -2.8449986  16.6578499 117.6315163  -2.0821234
  15.3409992 121.3459978  -7.8529986  14.5429992 120.9309978  -8.1809986
  15.7859992 120.6559978  -7.3619986  15.2919684 121.1958628  -7.8314773
   4.7979992 127.2739978 -15.2829986   5.3899992 127.9739978 -15.0059986
   5.2569992 126.8409978 -16.0019986   4.9411652 127.3112675 -15.3423467
   3.1139992 119.9389978 -16.1669986   3.0689992 120.8779978 -15.9879986
   2.2259992 119.7029978 -16.4359986   2.9878166 120.0356687 -16.1788476
  16.4269992 130.6019978  -6.2309986  16.2709992 131.2809978  -6.8879986
  17.3599992 130.6739978  -6.0279986  16.5317387 130.7046390  -6.2934658
   3.9219992 114.7199978  -7.4929986   3.6929992 114.7789978  -8.4209986
   3.4799992 113.9289978  -7.1869986   3.8308801 114.6210540  -7.5785271
   2.8529992 128.6609978 -11.3329986   2.0199992 129.1329978 -11.3059986
   3.3979992 129.1709978 -11.9319986   2.8127857 128.7944791 -11.4102858
   2.1409992 131.2729978  -0.0029986   2.6809992 131.0569978   0.7570014
   1.6599992 130.4679978  -0.1929986   2.1499219 131.1345156   0.0754282
   6.7379992 130.1929978   1.6170014   7.5059992 129.7339978   1.9580014
   6.7169992 129.9669978   0.6870014   6.8402135 130.0996668   1.5379491
  10.8299992 129.7009978 -17.0069986  10.1859992 129.0699978 -16.6859986
  11.5919992 129.1699978 -17.2389986  10.8448058 129.5427902 -16.9943962
  13.3149992 128.5729978   0.3460014  12.9639992 127.7159978   0.5900014
  14.0409992 128.7149978   0.9530014  13.3651895 128.4751351   0.4613770
  15.4349992 129.5179978 -16.7739986  15.7179992 128.7229978 -16.3209986
  16.1739992 129.7509978 -17.3349986  15.5737096 129.4407049 -16.7878896
   2.0479992 125.0839978   0.9510014   2.1919992 124.1819978   0.6650014
   1.2759992 125.3699978   0.4640014   1.9632733 124.9991798   0.8459532
   6.3889992 125.4269978 -16.9159986   6.4539992 124.6329978 -16.3859986
   7.0419992 125.3089978 -17.6059986   6.4861605 125.3023430 -16.9367003
   8.7029992 125.0529978   0.3840014   8.3749992 125.3239978  -0.4729986
   8.8549992 124.1119978   0.2960014   8.6786412 124.9629046   0.2547822
  14.4379992 124.9689978  -2.2329986  15.1829992 125.5579978  -2.3519986
  13.6809992 125.5509978  -2.1689986  14.4375470 125.1282128  -2.2406201
   2.8809992 122.2839978   0.3710014   3.2889992 121.4269978   0.2500014
   2.6199992 122.2979978   1.2920014   2.9016016 122.1685119   0.4789192
   7.5389992 123.3999978 -14.6099986   7.0789992 122.9159978 -13.9249986
   7.7939992 122.7309978 -15.2459986   7.5104856 123.2433669 -14.6021603
   6.8279992 121.2929978  -2.2539986   6.2089992 121.9669978  -1.9739986
   7.1719992 121.6139978  -3.0879986   6.7897123 121.4286887  -2.3283612
   8.6099992 121.6429978 -16.3479986   8.4289992 121.4879978 -17.2749986
   9.5599992 121.7509978 -16.3029986   8.7136566 121.6363669 -16.4689071
  11.8469992 123.7639978   1.0230014  12.8009992 123.8479978   0.9960014
  11.6869992 123.0519978   1.6430014  11.9557182 123.6792842   1.1030733
  17.9999992 123.9969978 -16.9019986  17.7259992 123.5729978 -17.7149986
  18.0389992 124.9289978 -17.1189986  17.9677716 124.0648827 -17.0425714
   7.1669992 118.6479978  -1.1719986   7.3169992 117.9189978  -1.7739986
   7.1689992 119.4249978  -1.7309986   7.1877967 118.6532708  -1.3299459
   7.5799992 117.0169978  -3.6789986   8.1149992 117.4689978  -4.3309986
   6.7269992 116.9089978  -4.1019986   7.5380374 117.0642665  -3.8253290
   9.1609992 122.4569978  -3.4399986   9.9119992 122.3009978  -4.0129986
   8.8219992 123.3089978  -3.7149986   9.2179587 122.5508138  -3.5555922
  13.5769992 120.2719978   1.5890014  13.7689992 119.3409978   1.4770014
  14.4349992 120.6969978   1.5780014  13.7192182 120.2020070   1.5721862
  14.8939992 123.0609978  -0.3339986  14.6119992 123.7699978  -0.9119986
  15.8359992 122.9879978  -0.4849986  14.9827921 123.1482193  -0.4335775
   5.6459992 119.8459978   0.7390014   4.8779992 119.3129978   0.5290014
   6.3239992 119.5359978   0.1400014   5.6327235 119.7311754   0.6292413
   8.3849992 114.4739978  -3.2479986   8.2869992 115.4199978  -3.3529986
   7.6429992 114.1009978  -3.7239986   8.2712534 114.5531773  -3.3267400
   9.6489992 118.7949978   0.3160014   9.4139992 118.5759978   1.2170014
   8.8659992 118.5879978  -0.1939986   9.5109095 118.7369892   0.3705353
  12.3649992 117.9229978  -0.6089986  11.4169992 117.9549978  -0.4769986
  12.6769992 117.2969978   0.0450014  12.2775293 117.8427923  -0.5025852
  13.9989992 116.5569978   1.3960014  13.9019992 115.6049978   1.3910014
  13.6769992 116.8249978   2.2570014  13.9422468 116.4630884   1.5116210
   3.8259992 117.7659978   0.4440014   4.0379992 117.0599978  -0.1659986
   3.7149992 117.3289978   1.2880014   3.8400269 117.6101921   0.4745873
   8.6069992 113.7679978  -0.5769986   9.3189992 113.1279978  -0.5909986
   8.5059992 114.0339978  -1.4899986   8.6907387 113.7164330  -0.7024437
   8.9609992 115.4499978   1.4770014   8.8289992 114.9749978   0.6570014
   8.3609992 116.1949978   1.4220014   8.8619070 115.4855789   1.3573251
   8.5069992 132.3329978 -15.3469986   9.4399992 132.4909978 -15.2029986
   8.2429992 133.0089978 -15.9719986   8.5989911 132.4459373 -15.4117278
   2.0749992 126.9699978 -15.8639986   2.9889992 127.0489978 -15.5909986
   2.0829992 126.2829978 -16.5299986   2.2010655 126.8879205 -15.9167083
   0.7239992 132.3629978 -10.7869986   0.0769992 131.9009978 -11.3189986
   1.0789992 131.6909978 -10.2039986   0.6833741 132.2089774 -10.7810825
   1.5939992 130.4429978  -8.9819986   1.2599992 129.5629978  -8.8099986
   1.8169992 130.7889978  -8.1169986   1.5783721 130.3691938  -8.8415832
  19.1429992 131.2529978  -6.0009986  19.1209992 131.4379978  -5.0619986
  19.8329992 131.8209978  -6.3419986  19.2333439 131.3551887  -5.9185209
  18.7059992 130.8199978  -3.0799986  18.2189992 130.0849978  -3.4509986
  19.2549992 130.4259978  -2.4019986  18.7135247 130.6661057  -3.0391539
  17.1569992 126.6099978   1.5590014  16.2909992 126.5049978   1.9530014
  17.5329992 127.3679978   2.0050014  17.0893401 126.6981708   1.6732620
  18.4579992 124.8659978 -12.9269986  19.3079992 125.2869978 -12.7999986
  18.4629992 124.1259978 -12.3199986  18.5751143 124.8236094 -12.8275250
  18.8519992 122.9199978 -11.1039986  18.1259992 122.4399978 -10.7059986
  19.4339992 123.1249978 -10.3709986  18.8312730 122.8820184 -10.9505851
  18.6109992 125.7049978  -6.1559986  19.4449992 125.3269978  -6.4369986
  18.7229992 126.6479978  -6.2749986  18.7401917 125.7807943  -6.2105139
  17.0979992 128.5829978  -3.8489986  16.4499992 128.9079978  -3.2239986
  16.5799992 128.1419978  -4.5229986  16.9394196 128.5678651  -3.8545848
  19.1209992 122.8209978 -14.7129986  18.5989992 123.1769978 -15.4309986
  19.0879992 123.4959978 -14.0339986  19.0450129 122.9609598 -14.7196645
  17.4699992 120.0599978 -16.1619986  17.5659992 120.7269978 -16.8419986
  17.3299992 119.2449978 -16.6429986  17.4642040 120.0410671 -16.3201622
  16.6389992 121.4409978 -10.5409986  16.4889992 120.4959978 -10.5609986
  16.2849992 121.7219978  -9.6969986  16.5706351 121.3496644 -10.4296780
   1.6739992 123.5189978  -6.5299986   1.8589992 123.4369978  -7.4659986
   2.5239992 123.3949978  -6.1069986   1.8140928 123.4910463  -6.6007107
  17.4949992 123.4109978  -0.9019986  18.0779992 122.6759978  -0.7099986
  18.0589992 124.1829978  -0.8549986  17.6509781 123.4148145  -0.8693836
  18.9919992 121.3139978  -0.2169986  18.1289992 120.9349978  -0.3829986
  19.5959992 120.5749978  -0.2919986  18.9556085 121.1623223  -0.2498305
  16.7169992 117.4679978 -17.0439986  17.3279992 117.0969978 -16.4069986
  15.8799992 117.0469978 -16.8479986  16.6874947 117.3602756 -16.9302748
  16.3499992 119.0229978 -12.0779986  16.6289992 118.1159978 -11.9539986
  17.1089992 119.4569978 -12.4669986  16.4908619 118.9574502 -12.1136205
  16.9609992 119.6049978  -6.6419986  17.8939992 119.8169978  -6.6769986
  16.7259992 119.7059978  -5.7199986  17.0569517 119.6476833  -6.5220870
  16.9909992 120.3419978  -3.8659986  16.1479992 120.6099978  -3.4999986
  17.4329992 121.1639978  -4.0769986  16.9354138 120.4898273  -3.8444482
   1.2719992 118.7889978  -0.3899986   2.1909992 118.6669978  -0.1529986
   0.8219992 118.0389978   0.0000014   1.3370087 118.6709608  -0.3048590
  19.2739992 114.3219978   1.4870014  19.6229992 113.6679978   0.8820014
  19.4209992 115.1589978   1.0470014  19.3416824 114.3456024   1.3446304
  16.9629992 116.2859978 -12.0299986  17.1449992 115.8369978 -11.2049986
  16.3629992 115.7019978 -12.4939986  16.9068187 116.1455552 -11.9797261
   2.4929992 117.1019978  -7.4979986   2.9379992 116.3099978  -7.1959986
   2.9589992 117.8179978  -7.0679986   2.6169718 117.0904534  -7.3984735
   0.7969992 120.1009978  -6.4289986   1.2889992 119.8799978  -7.2199986
   1.1589992 120.9409978  -6.1479986   0.9132923 120.1843468  -6.4992593
  18.7929992 116.4309978  -0.1639986  17.8759992 116.7019978  -0.1989986
  18.9159992 115.8959978  -0.9479986  18.6839672 116.3957885  -0.2748138
  18.8299992 116.3539978 -15.5019986  19.2419992 115.6329978 -15.9769986
  19.5109992 117.0229978 -15.4439986  18.9785536 116.3457766 -15.5591976
   1.1109992 116.3589978 -12.3749986   0.1859992 116.5669978 -12.5039986
   1.5649992 116.8429978 -13.0649986   1.0456298 116.4529299 -12.4859549
  15.8809992 131.3429978 -10.4289986  16.5339992 130.9949978 -11.0369986
  16.3919992 131.8309978  -9.7829986  16.0392777 131.3613815 -10.4247953
   1.0739992 115.0969978  -4.0309986   0.4089992 114.8509978  -3.3879986
   0.6309992 115.7189978  -4.6079986   0.9231168 115.1474214  -4.0210152
   3.2659992 128.2719978   0.1140014   2.4449992 128.4469978  -0.3469986
   3.0139992 128.1989978   1.0340014   3.1195594 128.2860717   0.1753611
   6.2199992 129.2459978  -3.6279986   5.7959992 130.0559978  -3.9099986
   7.1249992 129.3319978  -3.9299986   6.2842138 129.3684160  -3.7073585
  10.5319992 130.6449978  -0.6679986  10.7159992 130.3119978   0.2100014
  11.3779992 130.9549978  -0.9899986  10.6716484 130.6412979  -0.5912383
  12.8769992 131.9309978  -1.4239986  13.5539992 131.2979978  -1.6639986
  13.1979992 132.3319978  -0.6169986  13.0131323 131.8985691  -1.3476842
  17.7939992 114.5209978  -2.3449986  16.9809992 114.8459978  -2.7319986
  18.0269992 113.7599978  -2.8779986  17.7141347 114.4626880  -2.4700159
   3.6219992 132.5029978  -3.5799986   2.9019992 132.9429978  -4.0309986
   3.2569992 132.2519978  -2.7319986   3.4739643 132.5293369  -3.5270871
   6.0889992 132.1029978  -4.5499986   5.2249992 132.1749978  -4.1459986
   6.0339992 132.6499978  -5.3339986   5.9631942 132.1867849  -4.6006000
  10.7999992 131.9909978  -5.3749986  10.3429992 132.5199978  -6.0289986
  10.9629992 132.5939978  -4.6499986  10.7594960 132.1449280  -5.3664726
  13.1279992 130.8689978  -4.4299986  12.2229992 131.0339978  -4.6959986
  13.5559992 131.7219978  -4.4959986  13.0621537 131.0069134  -4.4752905
  15.7319992 132.4389978  -4.1349986  15.5499992 133.3549978  -4.3459986
  15.9089992 132.0279978  -4.9819986  15.7310030 132.5088273  -4.2782834
   3.0369992 131.1259978  -6.6699986   3.0189992 130.6999978  -5.8129986
   3.8419992 130.8069978  -7.0789986   3.1432875 131.0246435  -6.6080485
   5.1779992 129.8359978  -8.0149986   4.9589992 128.9189978  -7.8449986
   6.0019992 129.9759978  -7.5489986   5.2594702 129.7295511  -7.9287473
   7.7149992 130.3059978  -7.1659986   7.9279992 129.4179978  -7.4529986
   7.7799992 130.2709978  -6.2119986   7.7529149 130.1798326  -7.0762631
  11.2239992 115.9699978  -8.0219986  10.5499992 115.3399978  -7.7659986
  11.7879992 115.4859978  -8.6249986  11.2080384 115.8183708  -8.0684980
  16.3669992 114.0769978  -7.9089986  16.9699992 114.6249978  -8.4109986
  15.4969992 114.3959978  -8.1499986  16.3319157 114.1950373  -8.0102090
  18.0939992 115.2159978  -9.5759986  18.7049992 114.7019978 -10.1029986
  18.4759992 116.0929978  -9.5529986  18.2293305 115.2642050  -9.6450582
   3.5509992 114.6039978 -10.1999986   2.7739992 114.3689978 -10.7069986
   4.0809992 113.8069978 -10.1909986   3.5163451 114.4641268 -10.2681373
   2.3869992 114.4019978 -14.3959986   2.8259992 115.0129978 -14.9879986
   1.7529992 114.9399978 -13.9219986   2.3613859 114.5584064 -14.4129695
   8.1299992 114.5299978 -10.3869986   9.0039992 114.9189978 -10.4159986
   7.9939992 114.3149978  -9.4639986   8.2311953 114.5541643 -10.2662383
  13.6869992 114.5599978  -8.7369986  13.7629992 114.6559978  -9.6869986
  13.4119992 113.6529978  -8.6089986  13.6601871 114.4504146  -8.8496056
  15.0399992 114.5859978 -13.0449986  14.3369992 115.2009978 -13.2549986
  14.5949992 113.7489978 -12.9139986  14.8836550 114.5569668 -13.0560163
   2.2879992 130.3499978 -13.4989986   1.6029992 130.3119978 -14.1659986
   2.2919992 131.2629978 -13.2109986   2.1947621 130.4681924 -13.5513874
   4.2479992 116.3179978 -15.9539986   4.7389992 115.6879978 -16.4809986
   4.8709992 116.6139978 -15.2909986   4.3995304 116.2717376 -15.9365060
   9.2739992 116.6109978 -13.4969986   9.4519992 115.9639978 -12.8139986
   9.2199992 117.4449978 -13.0299986   9.2910678 116.6351604 -13.3403699
  11.1519992 131.5589978 -15.1009986  12.0179992 131.9259978 -15.2789986
  10.9059992 131.1199978 -15.9149986  11.2372097 131.5498525 -15.2353981
  17.8609992 131.1219978 -12.4219986  17.6669992 130.3739978 -12.9869986
  17.8219992 131.8799978 -13.0049986  17.8291645 131.1220786 -12.5781852
   3.5079992 115.1179978  -0.6819986   3.1419992 114.3519978  -0.2399986
   4.4209992 115.1469978  -0.3959986   3.5813172 115.0170324  -0.5828110
   5.4809992 114.4679978   0.8530014   6.3799992 114.1939978   0.6690014
   5.0949992 113.7259978   1.3180014   5.5517307 114.3302196   0.8907098
   4.1059992 131.2699978 -16.4739986   3.8379992 131.5559978 -15.5999986
   4.8769992 130.7239978 -16.3209986   4.1735926 131.2352779 -16.3338795
  13.9029992 113.8009978   1.0360014  13.9789992 113.3749978   1.8890014
  14.7959992 113.8139978   0.6930014  14.0342303 113.7443493   1.1065497
  17.0789992 129.8739978  -0.2719986  16.2969992 129.6869978  -0.7919986
  17.0069992 130.8029978  -0.0549986  16.9621924 129.9740637  -0.3138398
  31.4849992 123.7599978 -10.2409986  31.5739992 124.7039978 -10.3729986
  30.8469992 123.4849978 -10.8989986  31.4109062 123.8519812 -10.3480359
  30.4179992 123.0149978  -6.8219986  30.3799992 122.3689978  -6.1169986
  30.0959992 122.5479978  -7.5929986  30.3692679 122.8634276  -6.8297079
  22.7859992 122.6289978  -5.2289986  22.8279992 122.0039978  -4.5059986
  23.4889992 123.2529978  -5.0469986  22.8867345 122.6277873  -5.1054726
  34.1239992 125.9539978  -8.5209986  33.6829992 125.2339978  -8.0699986
  34.1109992 126.6749978  -7.8909986  34.0619215 125.9529291  -8.3741895
  23.7099992 127.0789978  -6.6939986  23.3399992 126.2769978  -7.0639986
  24.6509992 126.9109978  -6.6479986  23.7865984 126.9464638  -6.7384397
  20.3199992 120.7389978 -11.3019986  19.8719992 121.5849978 -11.3199986
  19.7589992 120.1599978 -11.8169986  20.1828546 120.7763993 -11.3741109
  21.0299992 122.9009978  -9.1759986  21.2439992 122.1309978  -8.6479986
  21.7679992 122.9909978  -9.7789986  21.1590200 122.8078587  -9.1852965
  31.2359992 131.0579978  -8.3089986  31.8549992 130.3819978  -8.5819986
  31.0269992 130.8399978  -7.3999986  31.2926056 130.9358869  -8.2236033
  28.8069992 125.4469978  -6.4159986  29.1109992 124.7609978  -7.0109986
  29.5289992 125.5659978  -5.7979986  28.9461240 125.3692314  -6.4139041
  37.4699992 117.0489978  -5.5559986  37.5199992 117.6589978  -4.8199986
  37.8959992 117.5099978  -6.2789986  37.5344108 117.1947709  -5.5529888
  31.9479992 119.8409978  -6.0889986  32.0909992 118.8949978  -6.0689986
  31.8419992 120.0479978  -7.0169986  31.9532403 119.7394797  -6.2117761
  25.1029992 117.9429978  -8.8159986  25.1459992 118.8029978  -9.2349986
  24.6449992 117.3909978  -9.4499986  25.0469871 117.9859245  -8.9589239
  32.8249992 118.0739978 -10.4149986  33.4719992 117.7449978  -9.7909986
  33.3349992 118.5909978 -11.0379986  32.9824351 118.0989067 -10.4138963
  21.7229992 120.3399978  -8.0539986  22.3769992 119.7899978  -7.6219986
  21.7469992 120.0659978  -8.9709986  21.8157199 120.2277167  -8.1188332
  26.8799992 121.8899978  -8.8389986  27.4959992 121.3629978  -8.3299986
  26.2929992 121.2499978  -9.2429986  26.8850154 121.7313954  -8.8239055
  37.8619992 118.5269978  -3.3199986  37.1729992 119.1849978  -3.4149986
  37.8769992 118.3289978  -2.3829986  37.7697756 118.5902603  -3.2064188
  23.9129992 116.8609978  -4.7419986  23.6939992 117.3909978  -5.5089986
  23.2449992 117.0869978  -4.0949986  23.7926975 116.9640967  -4.7594860
  31.2819992 126.3609978 -11.1979986  30.9869992 126.0379978 -12.0499986
  30.9579992 127.2609978 -11.1569986  31.1978460 126.4384464 -11.3090286
  26.4819992 124.5359978  -4.4549986  25.7419992 125.1349978  -4.3509986
  27.1959992 125.0899978  -4.7699986  26.4773500 124.6927829  -4.4833629
  34.5889992 117.3649978  -8.4349986  34.3739992 116.5989978  -7.9019986
  35.2449992 117.8369978  -7.9219986  34.6482673 117.3240728  -8.2928010
  23.5069992 118.7529978  -6.7899986  24.1209992 119.3859978  -6.4169986
  24.0189992 118.2809978  -7.4459986  23.6601962 118.7757249  -6.8277065
  24.8899992 126.5009978  -3.6679986  24.8839992 127.3799978  -4.0459986
  24.0359992 126.4169978  -3.2429986  24.7737925 126.6099535  -3.6623113
  21.0109992 126.1719978 -12.8859986  20.7389992 126.4009978 -13.7739986
  21.0559992 127.0089978 -12.4249986  20.9798097 126.3166163 -12.9453317
  34.6359992 127.7929978  -6.1729986  33.6939992 127.8519978  -6.0109986
  34.9119992 128.6989978  -6.3099986  34.5445865 127.9235288  -6.1693808
  34.9359992 116.0799978  -4.7559986  34.1999992 116.6899978  -4.7929986
  35.6199992 116.4949978  -5.2819986  34.9275367 116.2197551  -4.8321826
  27.9399992 114.1659978  -7.2899986  27.8219992 113.2179978  -7.3439986
  27.0849992 114.4989978  -7.0169986  27.8082805 114.0812202  -7.2604921
  32.8879992 129.5739978  -9.5479986  33.3129992 128.8669978 -10.0329986
  33.2049992 130.3759978  -9.9649986  32.9890266 129.5855190  -9.6707521
  34.0479992 127.4749978 -11.0389986  33.7899992 126.7849978 -11.6509986
  34.1189992 127.0319978 -10.1939986  34.0223050 127.3206814 -11.0084379
  35.7339992 126.0419978  -2.5619986  35.8729992 125.4499978  -3.3009986
  35.9009992 126.9149978  -2.9179986  35.7756193 126.0788896  -2.7113789
  30.2059992 123.0039978 -12.7889986  29.4949992 123.5389978 -13.1409986
  30.8969992 123.0589978 -13.4489986  30.2020751 123.0846777 -12.9264142
  30.2599992 121.4609978 -15.7509986  30.9609992 121.4839978 -15.0989986
  30.5619992 120.8329978 -16.4069986  30.3968202 121.3792212 -15.7504391
  37.5749992 122.3819978  -4.4959986  36.9229992 123.0759978  -4.4069986
  38.0409992 122.5919978  -5.3059986  37.5485937 122.5055019  -4.5932467
  33.6119992 123.2129978 -11.8379986  32.8799992 123.4419978 -11.2639986
  34.0589992 122.4999978 -11.3829986  33.5723963 123.1478729 -11.6980055
  33.5089992 121.3879978  -2.7699986  33.5889992 122.1509978  -2.1979986
  32.9079992 121.6669978  -3.4599986  33.4386547 121.5302457  -2.7849953
  25.2569992 123.8439978  -9.9549986  24.9269992 123.4729978 -10.7729986
  25.8459992 123.1729978  -9.6079986  25.2913970 123.7026063 -10.0200596
  26.6239992 127.2719978  -7.2739986  26.5289992 126.6929978  -8.0299986
  27.3529992 126.9009978  -6.7779986  26.7096011 127.1425561  -7.3103972
  25.6239992 122.6119978  -6.3219986  26.1889992 122.7339978  -7.0839986
  25.9429992 123.2499978  -5.6829986  25.7444166 122.7148791  -6.3399652
  31.9329992 128.1159978  -5.5879986  31.6929992 128.7779978  -4.9399986
  31.7349992 127.2809978  -5.1629986  31.8733826 128.0938115  -5.4418434
  26.5039992 127.0119978  -1.6039986  26.1929992 127.7939978  -1.1489986
  25.8539992 126.8589978  -2.2899986  26.3735538 127.0984087  -1.6344102
  32.4829992 122.3759978 -14.1519986  33.0619992 122.5259978 -13.4059986
  32.8969992 122.8459978 -14.8759986  32.6183358 122.4600954 -14.1476047
  23.4239992 123.2099978  -2.3759986  23.4939992 123.8609978  -1.6769986
  22.5329992 123.3129978  -2.7109986  23.3131690 123.3129249  -2.3256957
  30.2089992 129.1119978 -10.7169986  30.6829992 129.4079978  -9.9399986
  29.6459992 129.8509978 -10.9499986  30.1977890 129.2523036 -10.6421899
  24.7429992 129.0829978  -0.8409986  24.7509992 128.9469978  -1.7879986
  23.8269992 128.9659978  -0.5889986  24.6202528 129.0485463  -0.9366757
  36.1819992 114.1259978 -14.3389986  35.2819992 114.2649978 -14.0439986
  36.4339992 114.9569978 -14.7409986  36.0928683 114.2574055 -14.3529768
  24.2479992 122.9129978 -12.3659986  23.9559992 123.6809978 -12.8569986
  23.5729992 122.2539978 -12.5289986  24.1168497 122.9289745 -12.4551740
  37.3709992 128.4919978 -15.9629986  37.4439992 129.4309978 -15.7929986
  38.2759992 128.1869978 -16.0189986  37.5034170 128.5793282 -15.9472937
  20.3409992 125.2759978  -3.5509986  19.8389992 125.2479978  -4.3659986
  20.3459992 124.3709978  -3.2409986  20.2729832 125.1497486  -3.6205879
  20.0909992 128.0569978  -6.6669986  21.0369992 127.9119978  -6.6859986
  19.9779992 128.8409978  -6.1299986  20.2053578 128.1431697  -6.5969683
  38.2889992 128.7229978  -0.9839986  38.2389992 127.7669978  -1.0219986
  37.4619992 128.9899978  -0.5829986  38.1703831 128.6284680  -0.9349879
  29.2669992 128.2969978  -2.1079986  29.3549992 129.1229978  -1.6329986
  28.4039992 127.9669978  -1.8589986  29.1623357 128.3655468  -2.0092347
  29.6819992 132.0689978 -12.3019986  29.6059992 131.9479978 -13.2489986
  29.7139992 133.0179978 -12.1839986  29.6759380 132.1807677 -12.4154819
  23.3349992 130.8579978 -10.5209986  23.4869992 130.5099978  -9.6429986
  22.4839992 130.5009978 -10.7769986  23.2408344 130.7620879 -10.4353132
  32.7829992 131.2229978 -15.2999986  33.1579992 130.4789978 -15.7709986
  32.7879992 130.9529978 -14.3819986  32.8350098 131.0846392 -15.2403371
  32.4519992 131.1489978 -12.5509986  31.5169992 131.2489978 -12.3719986
  32.7319992 130.4389978 -11.9719986  32.3619471 131.0667933 -12.4483305
  35.4409992 120.2159978  -0.5039986  35.0329992 120.6959978  -1.2249986
  35.4809992 119.3099978  -0.8119986  35.3906221 120.1592449  -0.6441733
  22.5899992 126.5999978  -2.5079986  22.8059992 126.2379978  -1.6479986
  21.7339992 126.2249978  -2.7169986  22.5038810 126.4998837  -2.4187320
  25.2079992 115.0699978  -6.5119986  24.3469992 114.9829978  -6.9199986
  25.1859992 115.9259978  -6.0839986  25.0870491 115.1738003  -6.5100418
  29.8709992 114.7919978  -3.1369986  30.2909992 114.3769978  -2.3839986
  28.9379992 114.6129978  -3.0199986  29.8023736 114.7109910  -3.0181032
  33.1979992 118.5469978  -2.2839986  32.6839992 118.4219978  -1.4859986
  33.0419992 119.4599978  -2.5279986  33.1066967 118.6532123  -2.2079063
  33.9599992 123.4079978 -16.5229986  34.0019992 123.1859978 -17.4529986
  34.8089992 123.8069978 -16.3329986  34.0805253 123.4315498 -16.6246178
  29.5329992 117.2839978 -15.8519986  29.2789992 117.3029978 -14.9299986
  29.2759992 116.4129978 -16.1539986  29.4634508 117.1688280 -15.7665197
  25.2989992 120.0349978  -5.4169986  24.6579992 119.9949978  -4.7079986
  25.3369992 120.9619978  -5.6549986  25.2163010 120.1547668  -5.3520054
  25.2959992 120.2559978 -10.5049986  24.4039992 119.9159978 -10.5639986
  25.7469992 119.8789978 -11.2609986  25.2347642 120.1584910 -10.6152274
  30.8319992 120.6719978 -11.6879986  30.4229992 121.4869978 -11.9799986
  31.5519992 120.5319978 -12.3019986  30.8734439 120.7645372 -11.8109885
  29.9339992 120.8479978  -0.1999986  29.3709992 120.1429978   0.1210014
  30.7599992 120.7269978   0.2680014  29.9686674 120.7352165  -0.0928249
  31.8369992 120.1179978  -8.8739986  31.6409992 120.7239978  -9.5889986
  32.0179992 119.2849978  -9.3079986  31.8346584 120.0882513  -9.0305788
  23.0489992 120.3559978  -3.5499986  23.0109992 120.7559978  -2.6809986
  22.5589992 119.5389978  -3.4599986  22.9775330 120.3002674  -3.4188711
  26.4149992 117.7299978 -16.7509986  25.9839992 117.2849978 -16.0219986
  25.6969992 118.1009978 -17.2639986  26.2589176 117.7192052 -16.7205070
  19.6579992 117.4719978  -9.6989986  20.2879992 117.4429978  -8.9799986
  20.1069992 117.0469978 -10.4299986  19.8050835 117.4105660  -9.6992341
  20.9319992 118.2179978 -14.2749986  21.4059992 118.8089978 -14.8599986
  20.2139992 118.7479978 -13.9279986  20.8998640 118.3705511 -14.3082031
  31.1009992 121.7559978  -4.2029986  31.4239992 121.1249978  -4.8459986
  30.6599992 121.2219978  -3.5419986  31.0856379 121.5973468  -4.2017418
  27.8779992 117.6839978  -9.4189986  26.9669992 117.7409978  -9.1299986
  28.3829992 117.6239978  -8.6079986  27.8216873 117.6836826  -9.2698793
  22.7059992 119.3129978 -10.5919986  21.8169992 119.4119978 -10.9319986
  23.0029992 118.4709978 -10.9379986  22.6244177 119.2127687 -10.6853060
  26.3589992 119.3129978 -12.9349986  27.2909992 119.4419978 -12.7569986
  26.1439992 119.9819978 -13.5849986  26.4574472 119.4210806 -12.9985109
  32.2829992 116.9189978  -6.1539986  31.6059992 117.0499978  -5.4909986
  31.7979992 116.7639978  -6.9649986  32.1247405 116.9159947  -6.1727830
  25.0329992 120.5069978 -15.3689986  24.4909992 120.1279978 -16.0599986
  25.8669992 120.7019978 -15.7969986  25.0714390 120.4814079 -15.5215608
  35.5709992 132.5899978   0.1220014  35.7699992 133.0139978  -0.7119986
  36.2259992 132.9339978   0.7290014  35.6868522 132.6946301   0.0897852
  23.1689992 125.0639978  -0.2699986  23.9009992 125.3189978   0.2920014
  22.3879992 125.2689978   0.2460014  23.1636526 125.1265450  -0.1234824
  29.1979992 120.4709978  -7.5319986  29.7619992 119.9249978  -8.0789986
  29.0499992 119.9499978  -6.7429986  29.2553037 120.3256787  -7.5002771
  24.1999992 116.6079978 -11.1129986  23.8829992 115.7049978 -11.1489986
  24.9809992 116.6099978 -11.6659986  24.2622431 116.4847797 -11.1926898
  27.8239992 118.8599978  -5.1179986  26.9889992 119.3139978  -5.0069986
  28.3479992 119.1359978  -4.3659986  27.7806072 118.9593948  -5.0011864
  28.3689992 125.0729978 -13.4329986  27.6239992 124.5649978 -13.7549986
  28.2339992 125.1219978 -12.4869986  28.2488963 125.0101731 -13.3491174
  35.5189992 124.2059978  -4.6459986  36.1599992 124.6619978  -5.1899986
  34.6879992 124.3189978  -5.1089986  35.4945287 124.2836921  -4.7830113
  32.2659992 117.8869978 -15.2339986  31.3279992 117.9979978 -15.3849986
  32.5639992 118.7429978 -14.9269986  32.1776318 118.0180158 -15.2131855
  29.8879992 125.2569978  -2.1959986  29.5419992 124.8749978  -1.3889986
  29.6879992 126.1899978  -2.1249986  29.8135987 125.3309002  -2.0759539
  32.9849992 119.7539978 -13.5729986  33.8769992 119.6159978 -13.2539986
  33.0409992 120.5449978 -14.1099986  33.1147325 119.8419918 -13.6018783
  23.4929992 124.3679978  -7.6629986  24.2379992 124.3649978  -8.2649986
  23.5709992 123.5439978  -7.1819986  23.6053366 124.2562384  -7.6802570
  30.4939992 126.5309978 -14.4079986  30.1989992 127.3579978 -14.0259986
  29.7909992 125.9119978 -14.2109986  30.3586379 126.5604171 -14.3291346
  20.5009992 122.8279978  -2.3479986  20.7239992 122.4099978  -1.5169986
  19.8989992 122.2159978  -2.7709986  20.4501513 122.6879606  -2.2913260
  27.5179992 122.3449978  -0.1349986  27.2219992 122.1799978  -1.0309986
  28.4489992 122.1249978  -0.1459986  27.6034401 122.2926879  -0.2589794
  32.1379992 127.7189978  -2.2459986  31.2379992 127.9019978  -2.5129986
  32.1719992 127.9779978  -1.3249986  32.0193748 127.7790554  -2.1580836
  37.8699992 119.9629978 -13.8779986  37.3149992 119.5669978 -14.5509986
  37.9699992 120.8739978 -14.1559986  37.8076816 120.0319505 -14.0074967
  37.8329992 125.7639978  -1.0409986  36.9819992 126.0019978  -1.4089986
  38.4229992 125.7469978  -1.7939986  37.7963812 125.7942524  -1.1931547
  36.1649992 128.7489978 -13.4129986  35.7919992 127.9239978 -13.1039986
  36.4419992 128.5659978 -14.3109986  36.1513463 128.6112569 -13.4920475
  33.3249992 123.5569978  -6.3919986  32.3969992 123.3259978  -6.4189986
  33.7759992 122.7799978  -6.7219986  33.2588165 123.4202774  -6.4403210
  25.8679992 127.8859978 -10.2589986  26.3959992 128.6589978 -10.4589986
  24.9879992 128.1099978 -10.5609986  25.8213435 128.0222700 -10.3272690
  21.6229992 122.7479978 -15.6719986  22.2389992 123.3749978 -15.2919986
  20.7609992 123.0639978 -15.3999986  21.5907678 122.8764412 -15.5832791
  27.2959992 125.5489978 -10.6829986  27.0549992 126.4739978 -10.6409986
  26.5549992 125.0899978 -10.2859986  27.1629206 125.6135915 -10.6236231
  27.8099992 129.6979978  -4.3679986  28.1729992 130.5519978  -4.6009986
  28.3419992 129.4059978  -3.6269986  27.9315141 129.7753895  -4.2997903
  25.9789992 130.5699978 -11.1369986  25.0289992 130.6759978 -11.0859986
  26.3309992 131.3909978 -10.7929986  25.8965472 130.6954923 -11.0835148
  31.3539992 125.7969978  -4.6669986  30.9289992 125.5689978  -3.8409986
  31.9349992 125.0579978  -4.8489986  31.3743395 125.6659545  -4.5785586
  33.5569992 126.7259978 -15.5929986  33.9109992 126.3459978 -14.7889986
  32.6089992 126.6319978 -15.5059986  33.4772298 126.6612452 -15.4711313
  34.0129992 130.3489978  -2.1979986  33.4109992 129.7929978  -2.6929986
  34.2939992 131.0159978  -2.8239986  33.9685757 130.3630744  -2.3504325
  38.0609992 131.2049978 -15.3919986  38.8049992 131.7909978 -15.5319986
  37.3669992 131.7739978 -15.0589986  38.0689809 131.3620818 -15.3661410
  22.1349992 117.5819978  -2.7899986  21.2429992 117.9199978  -2.8579986
  22.0369992 116.7259978  -2.3719986  21.9994475 117.5126543  -2.7428296
  34.4229992 125.3979978 -13.3659986  34.1459992 124.6699978 -12.8099986
  35.3509992 125.5169978 -13.1609986  34.5104499 125.3144213 -13.2621956
  21.7869992 129.3859978  -4.3549986  22.0039992 128.4539978  -4.3859986
  22.0329992 129.6609978  -3.4719986  21.8499809 129.2955686  -4.2398309
  26.5849992 127.4079978 -14.6899986  26.7319992 126.8879978 -13.8999986
  26.5819992 128.3149978 -14.3829986  26.6047102 127.4593953 -14.5404075
  23.0379992 124.6599978 -14.1789986  22.3519992 125.0129978 -13.6119986
  23.5609992 125.4229978 -14.4259986  23.0148402 124.8113901 -14.1348199
  30.8699992 117.3229978  -3.8999986  31.5689992 117.3969978  -3.2499986
  30.4889992 116.4579978  -3.7459986  30.9142097 117.2162389  -3.7902003
  31.6539992 116.9749978 -12.8029986  31.8739992 117.4459978 -13.6069986
  32.2129992 117.3689978 -12.1329986  31.7596731 117.0927287 -12.8224967
  29.3229992 129.1049978 -13.9399986  28.5059992 129.6019978 -13.8879986
  29.8519992 129.5809978 -14.5809986  29.2828125 129.2371989 -14.0194694
  28.8539992 118.7029978 -11.9679986  29.6659992 119.2069978 -11.9219986
  28.6099992 118.5579978 -11.0539986  28.9321467 118.7523749 -11.8381425
  29.3899992 119.6889978  -2.7839986  29.5089992 120.2629978  -2.0269986
  30.0449992 119.0009978  -2.6689986  29.4948684 119.6745194  -2.6648326
  29.7379992 115.7839978 -11.0299986  29.3909992 116.4009978 -10.3859986
  30.3969992 116.2849978 -11.5119986  29.7795090 115.9361575 -11.0069319
  26.6609992 130.1489978 -13.9589986  26.8219992 130.9489978 -14.4589986
  26.4639992 130.4559978 -13.0739986  26.6563906 130.2998678 -13.9077667
  25.3959992 116.8469978 -14.3429986  25.3119992 117.7349978 -13.9959986
  26.2859992 116.5819978 -14.1109986  25.5048163 116.9327179 -14.2641404
  35.5939992 117.5959978  -1.9489986  34.6779992 117.8579978  -2.0359986
  35.9299992 117.5929978  -2.8449986  35.5138499 117.6315163  -2.0821234
  34.1969992 121.3459978  -7.8529986  33.3989992 120.9309978  -8.1809986
  34.6419992 120.6559978  -7.3619986  34.1479684 121.1958628  -7.8314773
  23.6539992 127.2739978 -15.2829986  24.2459992 127.9739978 -15.0059986
  24.1129992 126.8409978 -16.0019986  23.7971652 127.3112675 -15.3423467
  21.9699992 119.9389978 -16.1669986  21.9249992 120.8779978 -15.9879986
  21.0819992 119.7029978 -16.4359986  21.8438166 120.0356687 -16.1788476
  35.2829992 130.6019978  -6.2309986  35.1269992 131.2809978  -6.8879986
  36.2159992 130.6739978  -6.0279986  35.3877387 130.7046390  -6.2934658
  22.7779992 114.7199978  -7.4929986  22.5489992 114.7789978  -8.4209986
  22.3359992 113.9289978  -7.1869986  22.6868801 114.6210540  -7.5785271
  21.7089992 128.6609978 -11.3329986  20.8759992 129.1329978 -11.3059986
  22.2539992 129.1709978 -11.9319986  21.6687857 128.7944791 -11.4102858
  20.9969992 131.2729978  -0.0029986  21.5369992 131.0569978   0.7570014
  20.5159992 130.4679978  -0.1929986  21.0059219 131.1345156   0.0754282
  25.5939992 130.1929978   1.6170014  26.3619992 129.7339978   1.9580014
  25.5729992 129.9669978   0.6870014  25.6962135 130.0996668   1.5379491
  29.6859992 129.7009978 -17.0069986  29.0419992 129.0699978 -16.6859986
  30.4479992 129.1699978 -17.2389986  29.7008058 129.5427902 -16.9943962
  32.1709992 128.5729978   0.3460014  31.8199992 127.7159978   0.5900014
  32.8969992 128.7149978   0.9530014  32.2211895 128.4751351   0.4613770
  34.2909992 129.5179978 -16.7739986  34.5739992 128.7229978 -16.3209986
  35.0299992 129.7509978 -17.3349986  34.4297096 129.4407049 -16.7878896
  20.9039992 125.0839978   0.9510014  21.0479992 124.1819978   0.6650014
  20.1319992 125.3699978   0.4640014  20.8192733 124.9991798   0.8459532
  25.2449992 125.4269978 -16.9159986  25.3099992 124.6329978 -16.3859986
  25.8979992 125.3089978 -17.6059986  25.3421605 125.3023430 -16.9367003
  27.5589992 125.0529978   0.3840014  27.2309992 125.3239978  -0.4729986
  27.7109992 124.1119978   0.2960014  27.5346412 124.9629046   0.2547822
  33.2939992 124.9689978  -2.2329986  34.0389992 125.5579978  -2.3519986
  32.5369992 125.5509978  -2.1689986  33.2935470 125.1282128  -2.2406201
  21.7369992 122.2839978   0.3710014  22.1449992 121.4269978   0.2500014
  21.4759992 122.2979978   1.2920014  21.7576016 122.1685119   0.4789192
  26.3949992 123.3999978 -14.6099986  25.9349992 122.9159978 -13.9249986
  26.6499992 122.7309978 -15.2459986  26.3664856 123.2433669 -14.6021603
  25.6839992 121.2929978  -2.2539986  25.0649992 121.9669978  -1.9739986
  26.0279992 121.6139978  -3.0879986  25.6457123 121.4286887  -2.3283612
  27.4659992 121.6429978 -16.3479986  27.2849992 121.4879978 -17.2749986
  28.4159992 121.7509978 -16.3029986  27.5696566 121.6363669 -16.4689071
  30.7029992 123.7639978   1.0230014  31.6569992 123.8479978   0.9960014
  30.5429992 123.0519978   1.6430014  30.8117182 123.6792842   1.1030733
  36.8559992 123.9969978 -16.9019986  36.5819992 123.5729978 -17.7149986
  36.8949992 124.9289978 -17.1189986  36.8237716 124.0648827 -17.0425714
  26.0229992 118.6479978  -1.1719986  26.1729992 117.9189978  -1.7739986
  26.0249992 119.4249978  -1.7309986  26.0437967 118.6532708  -1.3299459
  26.4359992 117.0169978  -3.6789986  26.9709992 117.4689978  -4.3309986
  25.5829992 116.9089978  -4.1019986  26.3940374 117.0642665  -3.8253290
  28.0169992 122.4569978  -3.4399986  28.7679992 122.3009978  -4.0129986
  27.6779992 123.3089978  -3.7149986  28.0739587 122.5508138  -3.5555922
  32.4329992 120.2719978   1.5890014  32.6249992 119.3409978   1.4770014
  33.2909992 120.6969978   1.5780014  32.5752182 120.2020070   1.5721862
  33.7499992 123.0609978  -0.3339986  33.4679992 123.7699978  -0.9119986
  34.6919992 122.9879978  -0.4849986  33.8387921 123.1482193  -0.4335775
  24.5019992 119.8459978   0.7390014  23.7339992 119.3129978   0.5290014
  25.1799992 119.5359978   0.1400014  24.4887235 119.7311754   0.6292413
  27.2409992 114.4739978  -3.2479986  27.1429992 115.4199978  -3.3529986
  26.4989992 114.1009978  -3.7239986  27.1272534 114.5531773  -3.3267400
  28.5049992 118.7949978   0.3160014  28.2699992 118.5759978   1.2170014
  27.7219992 118.5879978  -0.1939986  28.3669095 118.7369892   0.3705353
  31.2209992 117.9229978  -0.6089986  30.2729992 117.9549978  -0.4769986
  31.5329992 117.2969978   0.0450014  31.1335293 117.8427923  -0.5025852
  32.8549992 116.5569978   1.3960014  32.7579992 115.6049978   1.3910014
  32.5329992 116.8249978   2.2570014  32.7982468 116.4630884   1.5116210
  22.6819992 117.7659978   0.4440014  22.8939992 117.0599978  -0.1659986
  22.5709992 117.3289978   1.2880014  22.6960269 117.6101921   0.4745873
  27.4629992 113.7679978  -0.5769986  28.1749992 113.1279978  -0.5909986
  27.3619992 114.0339978  -1.4899986  27.5467387 113.7164330  -0.7024437
  27.8169992 115.4499978   1.4770014  27.6849992 114.9749978   0.6570014
  27.2169992 116.1949978   1.4220014  27.7179070 115.4855789   1.3573251
  27.3629992 132.3329978 -15.3469986  28.2959992 132.4909978 -15.2029986
  27.0989992 133.0089978 -15.9719986  27.4549911 132.4459373 -15.4117278
  20.9309992 126.9699978 -15.8639986  21.8449992 127.0489978 -15.5909986
  20.9389992 126.2829978 -16.5299986  21.0570655 126.8879205 -15.9167083
  19.5799992 132.3629978 -10.7869986  18.9329992 131.9009978 -11.3189986
  19.9349992 131.6909978 -10.2039986  19.5393741 132.2089774 -10.7810825
  20.4499992 130.4429978  -8.9819986  20.1159992 129.5629978  -8.8099986
  20.6729992 130.7889978  -8.1169986  20.4343721 130.3691938  -8.8415832
  37.9989992 131.2529978  -6.0009986  37.9769992 131.4379978  -5.0619986
  38.6889992 131.8209978  -6.3419986  38.0893439 131.3551887  -5.9185209
  37.5619992 130.8199978  -3.0799986  37.0749992 130.0849978  -3.4509986
  38.1109992 130.4259978  -2.4019986  37.5695247 130.6661057  -3.0391539
  36.0129992 126.6099978   1.5590014  35.1469992 126.5049978   1.9530014
  36.3889992 127.3679978   2.0050014  35.9453401 126.6981708   1.6732620
  37.3139992 124.8659978 -12.9269986  38.1639992 125.2869978 -12.7999986
  37.3189992 124.1259978 -12.3199986  37.4311143 124.8236094 -12.8275250
  37.7079992 122.9199978 -11.1039986  36.9819992 122.4399978 -10.7059986
  38.2899992 123.1249978 -10.3709986  37.6872730 122.8820184 -10.9505851
  37.4669992 125.7049978  -6.1559986  38.3009992 125.3269978  -6.4369986
  37.5789992 126.6479978  -6.2749986  37.5961917 125.7807943  -6.2105139
  35.9539992 128.5829978  -3.8489986  35.3059992 128.9079978  -3.2239986
  35.4359992 128.1419978  -4.5229986  35.7954196 128.5678651  -3.8545848
  37.9769992 122.8209978 -14.7129986  37.4549992 123.1769978 -15.4309986
  37.9439992 123.4959978 -14.0339986  37.9010129 122.9609598 -14.7196645
  36.3259992 120.0599978 -16.1619986  36.4219992 120.7269978 -16.8419986
  36.1859992 119.2449978 -16.6429986  36.3202040 120.0410671 -16.3201622
  35.4949992 121.4409978 -10.5409986  35.3449992 120.4959978 -10.5609986
  35.1409992 121.7219978  -9.6969986  35.4266351 121.3496644 -10.4296780
  20.5299992 123.5189978  -6.5299986  20.7149992 123.4369978  -7.4659986
  21.3799992 123.3949978  -6.1069986  20.6700928 123.4910463  -6.6007107
  36.3509992 123.4109978  -0.9019986  36.9339992 122.6759978  -0.7099986
  36.9149992 124.1829978  -0.8549986  36.5069781 123.4148145  -0.8693836
  37.8479992 121.3139978  -0.2169986  36.9849992 120.9349978  -0.3829986
  38.4519992 120.5749978  -0.2919986  37.8116085 121.1623223  -0.2498305
  35.5729992 117.4679978 -17.0439986  36.1839992 117.0969978 -16.4069986
  34.7359992 117.0469978 -16.8479986  35.5434947 117.3602756 -16.9302748
  35.2059992 119.0229978 -12.0779986  35.4849992 118.1159978 -11.9539986
  35.9649992 119.4569978 -12.4669986  35.3468619 118.9574502 -12.1136205
  35.8169992 119.6049978  -6.6419986  36.7499992 119.8169978  -6.6769986
  35.5819992 119.7059978  -5.7199986  35.9129517 119.6476833  -6.5220870
  35.8469992 120.3419978  -3.8659986  35.0039992 120.6099978  -3.4999986
  36.2889992 121.1639978  -4.0769986  35.7914138 120.4898273  -3.8444482
  20.1279992 118.7889978  -0.3899986  21.0469992 118.6669978  -0.1529986
  19.6779992 118.0389978   0.0000014  20.1930087 118.6709608  -0.3048590
  38.1299992 114.3219978   1.4870014  38.4789992 113.6679978   0.8820014
  38.2769992 115.1589978   1.0470014  38.1976824 114.3456024   1.3446304
  35.8189992 116.2859978 -12.0299986  36.0009992 115.8369978 -11.2049986
  35.2189992 115.7019978 -12.4939986  35.7628187 116.1455552 -11.9797261
  21.3489992 117.1019978  -7.4979986  21.7939992 116.3099978  -7.1959986
  21.8149992 117.8179978  -7.0679986  21.4729718 117.0904534  -7.3984735
  19.6529992 120.1009978  -6.4289986  20.1449992 119.8799978  -7.2199986
  20.0149992 120.9409978  -6.1479986  19.7692923 120.1843468  -6.4992593
  37.6489992 116.4309978  -0.1639986  36.7319992 116.7019978  -0.1989986
  37.7719992 115.8959978  -0.9479986  37.5399672 116.3957885  -0.2748138
  37.6859992 116.3539978 -15.5019986  38.0979992 115.6329978 -15.9769986
  38.3669992 117.0229978 -15.4439986  37.8345536 116.3457766 -15.5591976
  19.9669992 116.3589978 -12.3749986  19.0419992 116.5669978 -12.5039986
  20.4209992 116.8429978 -13.0649986  19.9016298 116.4529299 -12.4859549
  34.7369992 131.3429978 -10.4289986  35.3899992 130.9949978 -11.0369986
  35.2479992 131.8309978  -9.7829986  34.8952777 131.3613815 -10.4247953
  19.9299992 115.0969978  -4.0309986  19.2649992 114.8509978  -3.3879986
  19.4869992 115.7189978  -4.6079986  19.7791168 115.1474214  -4.0210152
  22.1219992 128.2719978   0.1140014  21.3009992 128.4469978  -0.3469986
  21.8699992 128.1989978   1.0340014  21.9755594 128.2860717   0.1753611
  25.0759992 129.2459978  -3.6279986  24.6519992 130.0559978  -3.9099986
  25.9809992 129.3319978  -3.9299986  25.1402138 129.3684160  -3.7073585
  29.3879992 130.6449978  -0.6679986  29.5719992 130.3119978   0.2100014
  30.2339992 130.9549978  -0.9899986  29.5276484 130.6412979  -0.5912383
  31.7329992 131.9309978  -1.4239986  32.4099992 131.2979978  -1.6639986
  32.0539992 132.3319978  -0.6169986  31.8691323 131.8985691  -1.3476842
  36.6499992 114.5209978  -2.3449986  35.8369992 114.8459978  -2.7319986
  36.8829992 113.7599978  -2.8779986  36.5701347 114.4626880  -2.4700159
  22.4779992 132.5029978  -3.5799986  21.7579992 132.9429978  -4.0309986
  22.1129992 132.2519978  -2.7319986  22.3299643 132.5293369  -3.5270871
  24.9449992 132.1029978  -4.5499986  24.0809992 132.1749978  -4.1459986
  24.8899992 132.6499978  -5.3339986  24.8191942 132.1867849  -4.6006000
  29.6559992 131.9909978  -5.3749986  29.1989992 132.5199978  -6.0289986
  29.8189992 132.5939978  -4.6499986  29.6154960 132.1449280  -5.3664726
  31.9839992 130.8689978  -4.4299986  31.0789992 131.0339978  -4.6959986
  32.4119992 131.7219978  -4.4959986  31.9181537 131.0069134  -4.4752905
  34.5879992 132.4389978  -4.1349986  34.4059992 133.3549978  -4.3459986
  34.7649992 132.0279978  -4.9819986  34.5870030 132.5088273  -4.2782834
  21.8929992 131.1259978  -6.6699986  21.8749992 130.6999978  -5.8129986
  22.6979992 130.8069978  -7.0789986  21.9992875 131.0246435  -6.6080485
  24.0339992 129.8359978  -8.0149986  23.8149992 128.9189978  -7.8449986
  24.8579992 129.9759978  -7.5489986  24.1154702 129.7295511  -7.9287473
  26.5709992 130.3059978  -7.1659986  26.7839992 129.4179978  -7.4529986
  26.6359992 130.2709978  -6.2119986  26.6089149 130.1798326  -7.0762631
  30.0799992 115.9699978  -8.0219986  29.4059992 115.3399978  -7.7659986
  30.6439992 115.4859978  -8.6249986  30.0640384 115.8183708  -8.0684980
  35.2229992 114.0769978  -7.9089986  35.8259992 114.6249978  -8.4109986
  34.3529992 114.3959978  -8.1499986  35.1879157 114.1950373  -8.0102090
  36.9499992 115.2159978  -9.5759986  37.5609992 114.7019978 -10.1029986
  37.3319992 116.0929978  -9.5529986  37.0853305 115.2642050  -9.6450582
  22.4069992 114.6039978 -10.1999986  21.6299992 114.3689978 -10.7069986
  22.9369992 113.8069978 -10.1909986  22.3723451 114.4641268 -10.2681373
  21.2429992 114.4019978 -14.3959986  21.6819992 115.0129978 -14.9879986
  20.6089992 114.9399978 -13.9219986  21.2173859 114.5584064 -14.4129695
  26.9859992 114.5299978 -10.3869986  27.8599992 114.9189978 -10.4159986
  26.8499992 114.3149978  -9.4639986  27.0871953 114.5541643 -10.2662383
  32.5429992 114.5599978  -8.7369986  32.6189992 114.6559978  -9.6869986
  32.2679992 113.6529978  -8.6089986  32.5161871 114.4504146  -8.8496056
  33.8959992 114.5859978 -13.0449986  33.1929992 115.2009978 -13.2549986
  33.4509992 113.7489978 -12.9139986  33.7396550 114.5569668 -13.0560163
  21.1439992 130.3499978 -13.4989986  20.4589992 130.3119978 -14.1659986
  21.1479992 131.2629978 -13.2109986  21.0507621 130.4681924 -13.5513874
  23.1039992 116.3179978 -15.9539986  23.5949992 115.6879978 -16.4809986
  23.7269992 116.6139978 -15.2909986  23.2555304 116.2717376 -15.9365060
  28.1299992 116.6109978 -13.4969986  28.3079992 115.9639978 -12.8139986
  28.0759992 117.4449978 -13.0299986  28.1470678 116.6351604 -13.3403699
  30.0079992 131.5589978 -15.1009986  30.8739992 131.9259978 -15.2789986
  29.7619992 131.1199978 -15.9149986  30.0932097 131.5498525 -15.2353981
  36.7169992 131.1219978 -12.4219986  36.5229992 130.3739978 -12.9869986
  36.6779992 131.8799978 -13.0049986  36.6851645 131.1220786 -12.5781852
  22.3639992 115.1179978  -0.6819986  21.9979992 114.3519978  -0.2399986
  23.2769992 115.1469978  -0.3959986  22.4373172 115.0170324  -0.5828110
  24.3369992 114.4679978   0.8530014  25.2359992 114.1939978   0.6690014
  23.9509992 113.7259978   1.3180014  24.4077307 114.3302196   0.8907098
  22.9619992 131.2699978 -16.4739986  22.6939992 131.5559978 -15.5999986
  23.7329992 130.7239978 -16.3209986  23.0295926 131.2352779 -16.3338795
  32.7589992 113.8009978   1.0360014  32.8349992 113.3749978   1.8890014
  33.6519992 113.8139978   0.6930014  32.8902303 113.7443493   1.1065497
  35.9349992 129.8739978  -0.2719986  35.1529992 129.6869978  -0.7919986
  35.8629992 130.8029978  -0.0549986  35.8181924 129.9740637  -0.3138398
  50.3409992 123.7599978 -10.2409986  50.4299992 124.7039978 -10.3729986
  49.7029992 123.4849978 -10.8989986  50.2669062 123.8519812 -10.3480359
  49.2739992 123.0149978  -6.8219986  49.2359992 122.3689978  -6.1169986
  48.9519992 122.5479978  -7.5929986  49.2252679 122.8634276  -6.8297079
  41.6419992 122.6289978  -5.2289986  41.6839992 122.0039978  -4.5059986
  42.3449992 123.2529978  -5.0469986  41.7427345 122.6277873  -5.1054726
  52.9799992 125.9539978  -8.5209986  52.5389992 125.2339978  -8.0699986
  52.9669992 126.6749978  -7.8909986  52.9179215 125.9529291  -8.3741895
  42.5659992 127.0789978  -6.6939986  42.1959992 126.2769978  -7.0639986
  43.5069992 126.9109978  -6.6479986  42.6425984 126.9464638  -6.7384397
  39.1759992 120.7389978 -11.3019986  38.7279992 121.5849978 -11.3199986
  38.6149992 120.1599978 -11.8169986  39.0388546 120.7763993 -11.3741109
  39.8859992 122.9009978  -9.1759986  40.0999992 122.1309978  -8.6479986
  40.6239992 122.9909978  -9.7789986  40.0150200 122.8078587  -9.1852965
  50.0919992 131.0579978  -8.3089986  50.7109992 130.3819978  -8.5819986
  49.8829992 130.8399978  -7.3999986  50.1486056 130.9358869  -8.2236033
  47.6629992 125.4469978  -6.4159986  47.9669992 124.7609978  -7.0109986
  48.3849992 125.5659978  -5.7979986  47.8021240 125.3692314  -6.4139041
  56.3259992 117.0489978  -5.5559986  56.3759992 117.6589978  -4.8199986
  56.7519992 117.5099978  -6.2789986  56.3904108 117.1947709  -5.5529888
  50.8039992 119.8409978  -6.0889986  50.9469992 118.8949978  -6.0689986
  50.6979992 120.0479978  -7.0169986  50.8092403 119.7394797  -6.2117761
  43.9589992 117.9429978  -8.8159986  44.0019992 118.8029978  -9.2349986
  43.5009992 117.3909978  -9.4499986  43.9029871 117.9859245  -8.9589239
  51.6809992 118.0739978 -10.4149986  52.3279992 117.7449978  -9.7909986
  52.1909992 118.5909978 -11.0379986  51.8384351 118.0989067 -10.4138963
  40.5789992 120.3399978  -8.0539986  41.2329992 119.7899978  -7.6219986
  40.6029992 120.0659978  -8.9709986  40.6717199 120.2277167  -8.1188332
  45.7359992 121.8899978  -8.8389986  46.3519992 121.3629978  -8.3299986
  45.1489992 121.2499978  -9.2429986  45.7410154 121.7313954  -8.8239055
  56.7179992 118.5269978  -3.3199986  56.0289992 119.1849978  -3.4149986
  56.7329992 118.3289978  -2.3829986  56.6257756 118.5902603  -3.2064188
  42.7689992 116.8609978  -4.7419986  42.5499992 117.3909978  -5.5089986
  42.1009992 117.0869978  -4.0949986  42.6486975 116.9640967  -4.7594860
  50.1379992 126.3609978 -11.1979986  49.8429992 126.0379978 -12.0499986
  49.8139992 127.2609978 -11.1569986  50.0538460 126.4384464 -11.3090286
  45.3379992 124.5359978  -4.4549986  44.5979992 125.1349978  -4.3509986
  46.0519992 125.0899978  -4.7699986  45.3333500 124.6927829  -4.4833629
  53.4449992 117.3649978  -8.4349986  53.2299992 116.5989978  -7.9019986
  54.1009992 117.8369978  -7.9219986  53.5042673 117.3240728  -8.2928010
  42.3629992 118.7529978  -6.7899986  42.9769992 119.3859978  -6.4169986
  42.8749992 118.2809978  -7.4459986  42.5161962 118.7757249  -6.8277065
  43.7459992 126.5009978  -3.6679986  43.7399992 127.3799978  -4.0459986
  42.8919992 126.4169978  -3.2429986  43.6297925 126.6099535  -3.6623113
  39.8669992 126.1719978 -12.8859986  39.5949992 126.4009978 -13.7739986
  39.9119992 127.0089978 -12.4249986  39.8358097 126.3166163 -12.9453317
  53.4919992 127.7929978  -6.1729986  52.5499992 127.8519978  -6.0109986
  53.7679992 128.6989978  -6.3099986  53.4005865 127.9235288  -6.1693808
  53.7919992 116.0799978  -4.7559986  53.0559992 116.6899978  -4.7929986
  54.4759992 116.4949978  -5.2819986  53.7835367 116.2197551  -4.8321826
  46.7959992 114.1659978  -7.2899986  46.6779992 113.2179978  -7.3439986
  45.9409992 114.4989978  -7.0169986  46.6642805 114.0812202  -7.2604921
  51.7439992 129.5739978  -9.5479986  52.1689992 128.8669978 -10.0329986
  52.0609992 130.3759978  -9.9649986  51.8450266 129.5855190  -9.6707521
  52.9039992 127.4749978 -11.0389986  52.6459992 126.7849978 -11.6509986
  52.9749992 127.0319978 -10.1939986  52.8783050 127.3206814 -11.0084379
  54.5899992 126.0419978  -2.5619986  54.7289992 125.4499978  -3.3009986
  54.7569992 126.9149978  -2.9179986  54.6316193 126.0788896  -2.7113789
  49.0619992 123.0039978 -12.7889986  48.3509992 123.5389978 -13.1409986
  49.7529992 123.0589978 -13.4489986  49.0580751 123.0846777 -12.9264142
  49.1159992 121.4609978 -15.7509986  49.8169992 121.4839978 -15.0989986
  49.4179992 120.8329978 -16.4069986  49.2528202 121.3792212 -15.7504391
  56.4309992 122.3819978  -4.4959986  55.7789992 123.0759978  -4.4069986
  56.8969992 122.5919978  -5.3059986  56.4045937 122.5055019  -4.5932467
  52.4679992 123.2129978 -11.8379986  51.7359992 123.4419978 -11.2639986
  52.9149992 122.4999978 -11.3829986  52.4283963 123.1478729 -11.6980055
  52.3649992 121.3879978  -2.7699986  52.4449992 122.1509978  -2.1979986
  51.7639992 121.6669978  -3.4599986  52.2946547 121.5302457  -2.7849953
  44.1129992 123.8439978  -9.9549986  43.7829992 123.4729978 -10.7729986
  44.7019992 123.1729978  -9.6079986  44.1473970 123.7026063 -10.0200596
  45.4799992 127.2719978  -7.2739986  45.3849992 126.6929978  -8.0299986
  46.2089992 126.9009978  -6.7779986  45.5656011 127.1425561  -7.3103972
  44.4799992 122.6119978  -6.3219986  45.0449992 122.7339978  -7.0839986
  44.7989992 123.2499978  -5.6829986  44.6004166 122.7148791  -6.3399652
  50.7889992 128.1159978  -5.5879986  50.5489992 128.7779978  -4.9399986
  50.5909992 127.2809978  -5.1629986  50.7293826 128.0938115  -5.4418434
  45.3599992 127.0119978  -1.6039986  45.0489992 127.7939978  -1.1489986
  44.7099992 126.8589978  -2.2899986  45.2295538 127.0984087  -1.6344102
  51.3389992 122.3759978 -14.1519986  51.9179992 122.5259978 -13.4059986
  51.7529992 122.8459978 -14.8759986  51.4743358 122.4600955 -14.1476047
  42.2799992 123.2099978  -2.3759986  42.3499992 123.8609978  -1.6769986
  41.3889992 123.3129978  -2.7109986  42.1691690 123.3129249  -2.3256957
  49.0649992 129.1119978 -10.7169986  49.5389992 129.4079978  -9.9399986
  48.5019992 129.8509978 -10.9499986  49.0537890 129.2523036 -10.6421899
  43.5989992 129.0829978  -0.8409986  43.6069992 128.9469978  -1.7879986
  42.6829992 128.9659978  -0.5889986  43.4762528 129.0485463  -0.9366757
  55.0379992 114.1259978 -14.3389986  54.1379992 114.2649978 -14.0439986
  55.2899992 114.9569978 -14.7409986  54.9488683 114.2574055 -14.3529768
  43.1039992 122.9129978 -12.3659986  42.8119992 123.6809978 -12.8569986
  42.4289992 122.2539978 -12.5289986  42.9728497 122.9289745 -12.4551740
  56.2269992 128.4919978 -15.9629986  56.2999992 129.4309978 -15.7929986
  57.1319992 128.1869978 -16.0189986  56.3594170 128.5793282 -15.9472937
  39.1969992 125.2759978  -3.5509986  38.6949992 125.2479978  -4.3659986
  39.2019992 124.3709978  -3.2409986  39.1289832 125.1497486  -3.6205879
  38.9469992 128.0569978  -6.6669986  39.8929992 127.9119978  -6.6859986
  38.8339992 128.8409978  -6.1299986  39.0613578 128.1431697  -6.5969683
  57.1449992 128.7229978  -0.9839986  57.0949992 127.7669978  -1.0219986
  56.3179992 128.9899978  -0.5829986  57.0263831 128.6284680  -0.9349879
  48.1229992 128.2969978  -2.1079986  48.2109992 129.1229978  -1.6329986
  47.2599992 127.9669978  -1.8589986  48.0183357 128.3655468  -2.0092347
  48.5379992 132.0689978 -12.3019986  48.4619992 131.9479978 -13.2489986
  48.5699992 133.0179978 -12.1839986  48.5319380 132.1807677 -12.4154819
  42.1909992 130.8579978 -10.5209986  42.3429992 130.5099978  -9.6429986
  41.3399992 130.5009978 -10.7769986  42.0968344 130.7620879 -10.4353132
  51.6389992 131.2229978 -15.2999986  52.0139992 130.4789978 -15.7709986
  51.6439992 130.9529978 -14.3819986  51.6910098 131.0846392 -15.2403371
  51.3079992 131.1489978 -12.5509986  50.3729992 131.2489978 -12.3719986
  51.5879992 130.4389978 -11.9719986  51.2179471 131.0667933 -12.4483305
  54.2969992 120.2159978  -0.5039986  53.8889992 120.6959978  -1.2249986
  54.3369992 119.3099978  -0.8119986  54.2466221 120.1592449  -0.6441733
  41.4459992 126.5999978  -2.5079986  41.6619992 126.2379978  -1.6479986
  40.5899992 126.2249978  -2.7169986  41.3598810 126.4998837  -2.4187320
  44.0639992 115.0699978  -6.5119986  43.2029992 114.9829978  -6.9199986
  44.0419992 115.9259978  -6.0839986  43.9430491 115.1738003  -6.5100418
  48.7269992 114.7919978  -3.1369986  49.1469992 114.3769978  -2.3839986
  47.7939992 114.6129978  -3.0199986  48.6583736 114.7109910  -3.0181032
  52.0539992 118.5469978  -2.2839986  51.5399992 118.4219978  -1.4859986
  51.8979992 119.4599978  -2.5279986  51.9626967 118.6532123  -2.2079063
  52.8159992 123.4079978 -16.5229986  52.8579992 123.1859978 -17.4529986
  53.6649992 123.8069978 -16.3329986  52.9365253 123.4315498 -16.6246178
  48.3889992 117.2839978 -15.8519986  48.1349992 117.3029978 -14.9299986
  48.1319992 116.4129978 -16.1539986  48.3194508 117.1688280 -15.7665197
  44.1549992 120.0349978  -5.4169986  43.5139992 119.9949978  -4.7079986
  44.1929992 120.9619978  -5.6549986  44.0723010 120.1547668  -5.3520054
  44.1519992 120.2559978 -10.5049986  43.2599992 119.9159978 -10.5639986
  44.6029992 119.8789978 -11.2609986  44.0907642 120.1584910 -10.6152274
  49.6879992 120.6719978 -11.6879986  49.2789992 121.4869978 -11.9799986
  50.4079992 120.5319978 -12.3019986  49.7294439 120.7645372 -11.8109885
  48.7899992 120.8479978  -0.1999986  48.2269992 120.1429978   0.1210014
  49.6159992 120.7269978   0.2680014  48.8246674 120.7352165  -0.0928249
  50.6929992 120.1179978  -8.8739986  50.4969992 120.7239978  -9.5889986
  50.8739992 119.2849978  -9.3079986  50.6906584 120.0882513  -9.0305788
  41.9049992 120.3559978  -3.5499986  41.8669992 120.7559978  -2.6809986
  41.4149992 119.5389978  -3.4599986  41.8335330 120.3002674  -3.4188711
  45.2709992 117.7299978 -16.7509986  44.8399992 117.2849978 -16.0219986
  44.5529992 118.1009978 -17.2639986  45.1149176 117.7192051 -16.7205070
  38.5139992 117.4719978  -9.6989986  39.1439992 117.4429978  -8.9799986
  38.9629992 117.0469978 -10.4299986  38.6610835 117.4105660  -9.6992341
  39.7879992 118.2179978 -14.2749986  40.2619992 118.8089978 -14.8599986
  39.0699992 118.7479978 -13.9279986  39.7558640 118.3705511 -14.3082031
  49.9569992 121.7559978  -4.2029986  50.2799992 121.1249978  -4.8459986
  49.5159992 121.2219978  -3.5419986  49.9416379 121.5973468  -4.2017418
  46.7339992 117.6839978  -9.4189986  45.8229992 117.7409978  -9.1299986
  47.2389992 117.6239978  -8.6079986  46.6776873 117.6836826  -9.2698793
  41.5619992 119.3129978 -10.5919986  40.6729992 119.4119978 -10.9319986
  41.8589992 118.4709978 -10.9379986  41.4804177 119.2127687 -10.6853060
  45.2149992 119.3129978 -12.9349986  46.1469992 119.4419978 -12.7569986
  44.9999992 119.9819978 -13.5849986  45.3134472 119.4210806 -12.9985109
  51.1389992 116.9189978  -6.1539986  50.4619992 117.0499978  -5.4909986
  50.6539992 116.7639978  -6.9649986  50.9807405 116.9159947  -6.1727830
  43.8889992 120.5069978 -15.3689986  43.3469992 120.1279978 -16.0599986
  44.7229992 120.7019978 -15.7969986  43.9274390 120.4814079 -15.5215608
  54.4269992 132.5899978   0.1220014  54.6259992 133.0139978  -0.7119986
  55.0819992 132.9339978   0.7290014  54.5428522 132.6946301   0.0897852
  42.0249992 125.0639978  -0.2699986  42.7569992 125.3189978   0.2920014
  41.2439992 125.2689978   0.2460014  42.0196526 125.1265450  -0.1234824
  48.0539992 120.4709978  -7.5319986  48.6179992 119.9249978  -8.0789986
  47.9059992 119.9499978  -6.7429986  48.1113037 120.3256787  -7.5002771
  43.0559992 116.6079978 -11.1129986  42.7389992 115.7049978 -11.1489986
  43.8369992 116.6099978 -11.6659986  43.1182431 116.4847797 -11.1926898
  46.6799992 118.8599978  -5.1179986  45.8449992 119.3139978  -5.0069986
  47.2039992 119.1359978  -4.3659986  46.6366072 118.9593948  -5.0011864
  47.2249992 125.0729978 -13.4329986  46.4799992 124.5649978 -13.7549986
  47.0899992 125.1219978 -12.4869986  47.1048963 125.0101731 -13.3491174
  54.3749992 124.2059978  -4.6459986  55.0159992 124.6619978  -5.1899986
  53.5439992 124.3189978  -5.1089986  54.3505287 124.2836921  -4.7830113
  51.1219992 117.8869978 -15.2339986  50.1839992 117.9979978 -15.3849986
  51.4199992 118.7429978 -14.9269986  51.0336318 118.0180158 -15.2131855
  48.7439992 125.2569978  -2.1959986  48.3979992 124.8749978  -1.3889986
  48.5439992 126.1899978  -2.1249986  48.6695987 125.3309002  -2.0759539
  51.8409992 119.7539978 -13.5729986  52.7329992 119.6159978 -13.2539986
  51.8969992 120.5449978 -14.1099986  51.9707325 119.8419918 -13.6018783
  42.3489992 124.3679978  -7.6629986  43.0939992 124.3649978  -8.2649986
  42.4269992 123.5439978  -7.1819986  42.4613365 124.2562384  -7.6802570
  49.3499992 126.5309978 -14.4079986  49.0549992 127.3579978 -14.0259986
  48.6469992 125.9119978 -14.2109986  49.2146379 126.5604171 -14.3291346
  39.3569992 122.8279978  -2.3479986  39.5799992 122.4099978  -1.5169986
  38.7549992 122.2159978  -2.7709986  39.3061513 122.6879606  -2.2913260
  46.3739992 122.3449978  -0.1349986  46.0779992 122.1799978  -1.0309986
  47.3049992 122.1249978  -0.1459986  46.4594401 122.2926879  -0.2589794
  50.9939992 127.7189978  -2.2459986  50.0939992 127.9019978  -2.5129986
  51.0279992 127.9779978  -1.3249986  50.8753748 127.7790554  -2.1580836
  56.7259992 119.9629978 -13.8779986  56.1709992 119.5669978 -14.5509986
  56.8259992 120.8739978 -14.1559986  56.6636816 120.0319505 -14.0074967
  56.6889992 125.7639978  -1.0409986  55.8379992 126.0019978  -1.4089986
  57.2789992 125.7469978  -1.7939986  56.6523812 125.7942524  -1.1931547
  55.0209992 128.7489978 -13.4129986  54.6479992 127.9239978 -13.1039986
  55.2979992 128.5659978 -14.3109986  55.0073463 128.6112569 -13.4920475
  52.1809992 123.5569978  -6.3919986  51.2529992 123.3259978  -6.4189986
  52.6319992 122.7799978  -6.7219986  52.1148165 123.4202774  -6.4403210
  44.7239992 127.8859978 -10.2589986  45.2519992 128.6589978 -10.4589986
  43.8439992 128.1099978 -10.5609986  44.6773435 128.0222700 -10.3272690
  40.4789992 122.7479978 -15.6719986  41.0949992 123.3749978 -15.2919986
  39.6169992 123.0639978 -15.3999986  40.4467678 122.8764412 -15.5832791
  46.1519992 125.5489978 -10.6829986  45.9109992 126.4739978 -10.6409986
  45.4109992 125.0899978 -10.2859986  46.0189206 125.6135915 -10.6236231
  46.6659992 129.6979978  -4.3679986  47.0289992 130.5519978  -4.6009986
  47.1979992 129.4059978  -3.6269986  46.7875141 129.7753895  -4.2997903
  44.8349992 130.5699978 -11.1369986  43.8849992 130.6759978 -11.0859986
  45.1869992 131.3909978 -10.7929986  44.7525472 130.6954923 -11.0835148
  50.2099992 125.7969978  -4.6669986  49.7849992 125.5689978  -3.8409986
  50.7909992 125.0579978  -4.8489986  50.2303395 125.6659545  -4.5785586
  52.4129992 126.7259978 -15.5929986  52.7669992 126.3459978 -14.7889986
  51.4649992 126.6319978 -15.5059986  52.3332298 126.6612452 -15.4711313
  52.8689992 130.3489978  -2.1979986  52.2669992 129.7929978  -2.6929986
  53.1499992 131.0159978  -2.8239986  52.8245757 130.3630744  -2.3504325
  56.9169992 131.2049978 -15.3919986  57.6609992 131.7909978 -15.5319986
  56.2229992 131.7739978 -15.0589986  56.9249809 131.3620818 -15.3661410
  40.9909992 117.5819978  -2.7899986  40.0989992 117.9199978  -2.8579986
  40.8929992 116.7259978  -2.3719986  40.8554475 117.5126543  -2.7428296
  53.2789992 125.3979978 -13.3659986  53.0019992 124.6699978 -12.8099986
  54.2069992 125.5169978 -13.1609986  53.3664499 125.3144213 -13.2621956
  40.6429992 129.3859978  -4.3549986  40.8599992 128.4539978  -4.3859986
  40.8889992 129.6609978  -3.4719986  40.7059809 129.2955686  -4.2398309
  45.4409992 127.4079978 -14.6899986  45.5879992 126.8879978 -13.8999986
  45.4379992 128.3149978 -14.3829986  45.4607102 127.4593953 -14.5404075
  41.8939992 124.6599978 -14.1789986  41.2079992 125.0129978 -13.6119986
  42.4169992 125.4229978 -14.4259986  41.8708402 124.8113901 -14.1348199
  49.7259992 117.3229978  -3.8999986  50.4249992 117.3969978  -3.2499986
  49.3449992 116.4579978  -3.7459986  49.7702097 117.2162389  -3.7902003
  50.5099992 116.9749978 -12.8029986  50.7299992 117.4459978 -13.6069986
  51.0689992 117.3689978 -12.1329986  50.6156731 117.0927287 -12.8224967
  48.1789992 129.1049978 -13.9399986  47.3619992 129.6019978 -13.8879986
  48.7079992 129.5809978 -14.5809986  48.1388125 129.2371989 -14.0194694
  47.7099992 118.7029978 -11.9679986  48.5219992 119.2069978 -11.9219986
  47.4659992 118.5579978 -11.0539986  47.7881467 118.7523749 -11.8381425
  48.2459992 119.6889978  -2.7839986  48.3649992 120.2629978  -2.0269986
  48.9009992 119.0009978  -2.6689986  48.3508684 119.6745194  -2.6648326
  48.5939992 115.7839978 -11.0299986  48.2469992 116.4009978 -10.3859986
  49.2529992 116.2849978 -11.5119986  48.6355090 115.9361575 -11.0069319
  45.5169992 130.1489978 -13.9589986  45.6779992 130.9489978 -14.4589986
  45.3199992 130.4559978 -13.0739986  45.5123906 130.2998678 -13.9077667
  44.2519992 116.8469978 -14.3429986  44.1679992 117.7349978 -13.9959986
  45.1419992 116.5819978 -14.1109986  44.3608163 116.9327179 -14.2641404
  54.4499992 117.5959978  -1.9489986  53.5339992 117.8579978  -2.0359986
  54.7859992 117.5929978  -2.8449986  54.3698499 117.6315163  -2.0821234
  53.0529992 121.3459978  -7.8529986  52.2549992 120.9309978  -8.1809986
  53.4979992 120.6559978  -7.3619986  53.0039684 121.1958628  -7.8314773
  42.5099992 127.2739978 -15.2829986  43.1019992 127.9739978 -15.0059986
  42.9689992 126.8409978 -16.0019986  42.6531652 127.3112675 -15.3423467
  40.8259992 119.9389978 -16.1669986  40.7809992 120.8779978 -15.9879986
  39.9379992 119.7029978 -16.4359986  40.6998166 120.0356687 -16.1788476
  54.1389992 130.6019978  -6.2309986  53.9829992 131.2809978  -6.8879986
  55.0719992 130.6739978  -6.0279986  54.2437387 130.7046390  -6.2934658
  41.6339992 114.7199978  -7.4929986  41.4049992 114.7789978  -8.4209986
  41.1919992 113.9289978  -7.1869986  41.5428801 114.6210540  -7.5785271
  40.5649992 128.6609978 -11.3329986  39.7319992 129.1329978 -11.3059986
  41.1099992 129.1709978 -11.9319986  40.5247857 128.7944791 -11.4102858
  39.8529992 131.2729978  -0.0029986  40.3929992 131.0569978   0.7570014
  39.3719992 130.4679978  -0.1929986  39.8619219 131.1345156   0.0754282
  44.4499992 130.1929978   1.6170014  45.2179992 129.7339978   1.9580014
  44.4289992 129.9669978   0.6870014  44.5522135 130.0996668   1.5379491
  48.5419992 129.7009978 -17.0069986  47.8979992 129.0699978 -16.6859986
  49.3039992 129.1699978 -17.2389986  48.5568058 129.5427902 -16.9943962
  51.0269992 128.5729978   0.3460014  50.6759992 127.7159978   0.5900014
  51.7529992 128.7149978   0.9530014  51.0771895 128.4751351   0.4613770
  53.1469992 129.5179978 -16.7739986  53.4299992 128.7229978 -16.3209986
  53.8859992 129.7509978 -17.3349986  53.2857096 129.4407049 -16.7878896
  39.7599992 125.0839978   0.9510014  39.9039992 124.1819978   0.6650014
  38.9879992 125.3699978   0.4640014  39.6752733 124.9991798   0.8459532
  44.1009992 125.4269978 -16.9159986  44.1659992 124.6329978 -16.3859986
  44.7539992 125.3089978 -17.6059986  44.1981605 125.3023430 -16.9367003
  46.4149992 125.0529978   0.3840014  46.0869992 125.3239978  -0.4729986
  46.5669992 124.1119978   0.2960014  46.3906412 124.9629046   0.2547822
  52.1499992 124.9689978  -2.2329986  52.8949992 125.5579978  -2.3519986
  51.3929992 125.5509978  -2.1689986  52.1495470 125.1282128  -2.2406201
  40.5929992 122.2839978   0.3710014  41.0009992 121.4269978   0.2500014
  40.3319992 122.2979978   1.2920014  40.6136016 122.1685119   0.4789192
  45.2509992 123.3999978 -14.6099986  44.7909992 122.9159978 -13.9249986
  45.5059992 122.7309978 -15.2459986  45.2224856 123.2433669 -14.6021603
  44.5399992 121.2929978  -2.2539986  43.9209992 121.9669978  -1.9739986
  44.8839992 121.6139978  -3.0879986  44.5017123 121.4286887  -2.3283612
  46.3219992 121.6429978 -16.3479986  46.1409992 121.4879978 -17.2749986
  47.2719992 121.7509978 -16.3029986  46.4256566 121.6363669 -16.4689071
  49.5589992 123.7639978   1.0230014  50.5129992 123.8479978   0.9960014
  49.3989992 123.0519978   1.6430014  49.6677182 123.6792842   1.1030733
  55.7119992 123.9969978 -16.9019986  55.4379992 123.5729978 -17.7149986
  55.7509992 124.9289978 -17.1189986  55.6797716 124.0648827 -17.0425714
  44.8789992 118.6479978  -1.1719986  45.0289992 117.9189978  -1.7739986
  44.8809992 119.4249978  -1.7309986  44.8997967 118.6532708  -1.3299459
  45.2919992 117.0169978  -3.6789986  45.8269992 117.4689978  -4.3309986
  44.4389992 116.9089978  -4.1019986  45.2500374 117.0642665  -3.8253290
  46.8729992 122.4569978  -3.4399986  47.6239992 122.3009978  -4.0129986
  46.5339992 123.3089978  -3.7149986  46.9299587 122.5508138  -3.5555922
  51.2889992 120.2719978   1.5890014  51.4809992 119.3409978   1.4770014
  52.1469992 120.6969978   1.5780014  51.4312182 120.2020070   1.5721862
  52.6059992 123.0609978  -0.3339986  52.3239992 123.7699978  -0.9119986
  53.5479992 122.9879978  -0.4849986  52.6947921 123.1482193  -0.4335775
  43.3579992 119.8459978   0.7390014  42.5899992 119.3129978   0.5290014
  44.0359992 119.5359978   0.1400014  43.3447235 119.7311754   0.6292413
  46.0969992 114.4739978  -3.2479986  45.9989992 115.4199978  -3.3529986
  45.3549992 114.1009978  -3.7239986  45.9832534 114.5531773  -3.3267400
  47.3609992 118.7949978   0.3160014  47.1259992 118.5759978   1.2170014
  46.5779992 118.5879978  -0.1939986  47.2229095 118.7369892   0.3705353
  50.0769992 117.9229978  -0.6089986  49.1289992 117.9549978  -0.4769986
  50.3889992 117.2969978   0.0450014  49.9895293 117.8427923  -0.5025852
  51.7109992 116.5569978   1.3960014  51.6139992 115.6049978   1.3910014
  51.3889992 116.8249978   2.2570014  51.6542468 116.4630884   1.5116210
  41.5379992 117.7659978   0.4440014  41.7499992 117.0599978  -0.1659986
  41.4269992 117.3289978   1.2880014  41.5520269 117.6101921   0.4745873
  46.3189992 113.7679978  -0.5769986  47.0309992 113.1279978  -0.5909986
  46.2179992 114.0339978  -1.4899986  46.4027387 113.7164330  -0.7024437
  46.6729992 115.4499978   1.4770014  46.5409992 114.9749978   0.6570014
  46.0729992 116.1949978   1.4220014  46.5739070 115.4855789   1.3573251
  46.2189992 132.3329978 -15.3469986  47.1519992 132.4909978 -15.2029986
  45.9549992 133.0089978 -15.9719986  46.3109911 132.4459373 -15.4117278
  39.7869992 126.9699978 -15.8639986  40.7009992 127.0489978 -15.5909986
  39.7949992 126.2829978 -16.5299986  39.9130655 126.8879205 -15.9167083
  38.4359992 132.3629978 -10.7869986  37.7889992 131.9009978 -11.3189986
  38.7909992 131.6909978 -10.2039986  38.3953741 132.2089774 -10.7810825
  39.3059992 130.4429978  -8.9819986  38.9719992 129.5629978  -8.8099986
  39.5289992 130.7889978  -8.1169986  39.2903721 130.3691938  -8.8415832
  56.8549992 131.2529978  -6.0009986  56.8329992 131.4379978  -5.0619986
  57.5449992 131.8209978  -6.3419986  56.9453439 131.3551887  -5.9185209
  56.4179992 130.8199978  -3.0799986  55.9309992 130.0849978  -3.4509986
  56.9669992 130.4259978  -2.4019986  56.4255247 130.6661057  -3.0391539
  54.8689992 126.6099978   1.5590014  54.0029992 126.5049978   1.9530014
  55.2449992 127.3679978   2.0050014  54.8013401 126.6981708   1.6732620
  56.1699992 124.8659978 -12.9269986  57.0199992 125.2869978 -12.7999986
  56.1749992 124.1259978 -12.3199986  56.2871143 124.8236094 -12.8275250
  56.5639992 122.9199978 -11.1039986  55.8379992 122.4399978 -10.7059986
  57.1459992 123.1249978 -10.3709986  56.5432730 122.8820184 -10.9505851
  56.3229992 125.7049978  -6.1559986  57.1569992 125.3269978  -6.4369986
  56.4349992 126.6479978  -6.2749986  56.4521917 125.7807943  -6.2105139
  54.8099992 128.5829978  -3.8489986  54.1619992 128.9079978  -3.2239986
  54.2919992 128.1419978  -4.5229986  54.6514196 128.5678651  -3.8545848
  56.8329992 122.8209978 -14.7129986  56.3109992 123.1769978 -15.4309986
  56.7999992 123.4959978 -14.0339986  56.7570129 122.9609598 -14.7196645
  55.1819992 120.0599978 -16.1619986  55.2779992 120.7269978 -16.8419986
  55.0419992 119.2449978 -16.6429986  55.1762040 120.0410671 -16.3201622
  54.3509992 121.4409978 -10.5409986  54.2009992 120.4959978 -10.5609986
  53.9969992 121.7219978  -9.6969986  54.2826351 121.3496644 -10.4296780
  39.3859992 123.5189978  -6.5299986  39.5709992 123.4369978  -7.4659986
  40.2359992 123.3949978  -6.1069986  39.5260928 123.4910463  -6.6007107
  55.2069992 123.4109978  -0.9019986  55.7899992 122.6759978  -0.7099986
  55.7709992 124.1829978  -0.8549986  55.3629781 123.4148145  -0.8693836
  56.7039992 121.3139978  -0.2169986  55.8409992 120.9349978  -0.3829986
  57.3079992 120.5749978  -0.2919986  56.6676085 121.1623223  -0.2498305
  54.4289992 117.4679978 -17.0439986  55.0399992 117.0969978 -16.4069986
  53.5919992 117.0469978 -16.8479986  54.3994947 117.3602756 -16.9302748
  54.0619992 119.0229978 -12.0779986  54.3409992 118.1159978 -11.9539986
  54.8209992 119.4569978 -12.4669986  54.2028619 118.9574502 -12.1136205
  54.6729992 119.6049978  -6.6419986  55.6059992 119.8169978  -6.6769986
  54.4379992 119.7059978  -5.7199986  54.7689517 119.6476833  -6.5220870
  54.7029992 120.3419978  -3.8659986  53.8599992 120.6099978  -3.4999986
  55.1449992 121.1639978  -4.0769986  54.6474138 120.4898273  -3.8444482
  38.9839992 118.7889978  -0.3899986  39.9029992 118.6669978  -0.1529986
  38.5339992 118.0389978   0.0000014  39.0490087 118.6709608  -0.3048590
  56.9859992 114.3219978   1.4870014  57.3349992 113.6679978   0.8820014
  57.1329992 115.1589978   1.0470014  57.0536824 114.3456024   1.3446304
  54.6749992 116.2859978 -12.0299986  54.8569992 115.8369978 -11.2049986
  54.0749992 115.7019978 -12.4939986  54.6188187 116.1455552 -11.9797261
  40.2049992 117.1019978  -7.4979986  40.6499992 116.3099978  -7.1959986
  40.6709992 117.8179978  -7.0679986  40.3289718 117.0904534  -7.3984735
  38.5089992 120.1009978  -6.4289986  39.0009992 119.8799978  -7.2199986
  38.8709992 120.9409978  -6.1479986  38.6252923 120.1843468  -6.4992593
  56.5049992 116.4309978  -0.1639986  55.5879992 116.7019978  -0.1989986
  56.6279992 115.8959978  -0.9479986  56.3959672 116.3957885  -0.2748138
  56.5419992 116.3539978 -15.5019986  56.9539992 115.6329978 -15.9769986
  57.2229992 117.0229978 -15.4439986  56.6905536 116.3457766 -15.5591976
  38.8229992 116.3589978 -12.3749986  37.8979992 116.5669978 -12.5039986
  39.2769992 116.8429978 -13.0649986  38.7576298 116.4529299 -12.4859549
  53.5929992 131.3429978 -10.4289986  54.2459992 130.9949978 -11.0369986
  54.1039992 131.8309978  -9.7829986  53.7512777 131.3613815 -10.4247953
  38.7859992 115.0969978  -4.0309986  38.1209992 114.8509978  -3.3879986
  38.3429992 115.7189978  -4.6079986  38.6351168 115.1474214  -4.0210152
  40.9779992 128.2719978   0.1140014  40.1569992 128.4469978  -0.3469986
  40.7259992 128.1989978   1.0340014  40.8315594 128.2860717   0.1753611
  43.9319992 129.2459978  -3.6279986  43.5079992 130.0559978  -3.9099986
  44.8369992 129.3319978  -3.9299986  43.9962138 129.3684160  -3.7073585
  48.2439992 130.6449978  -0.6679986  48.4279992 130.3119978   0.2100014
  49.0899992 130.9549978  -0.9899986  48.3836484 130.6412979  -0.5912383
  50.5889992 131.9309978  -1.4239986  51.2659992 131.2979978  -1.6639986
  50.9099992 132.3319978  -0.6169986  50.7251323 131.8985691  -1.3476842
  55.5059992 114.5209978  -2.3449986  54.6929992 114.8459978  -2.7319986
  55.7389992 113.7599978  -2.8779986  55.4261347 114.4626880  -2.4700159
  41.3339992 132.5029978  -3.5799986  40.6139992 132.9429978  -4.0309986
  40.9689992 132.2519978  -2.7319986  41.1859643 132.5293369  -3.5270871
  43.8009992 132.1029978  -4.5499986  42.9369992 132.1749978  -4.1459986
  43.7459992 132.6499978  -5.3339986  43.6751942 132.1867849  -4.6006000
  48.5119992 131.9909978  -5.3749986  48.0549992 132.5199978  -6.0289986
  48.6749992 132.5939978  -4.6499986  48.4714960 132.1449280  -5.3664726
  50.8399992 130.8689978  -4.4299986  49.9349992 131.0339978  -4.6959986
  51.2679992 131.7219978  -4.4959986  50.7741537 131.0069134  -4.4752905
  53.4439992 132.4389978  -4.1349986  53.2619992 133.3549978  -4.3459986
  53.6209992 132.0279978  -4.9819986  53.4430030 132.5088273  -4.2782834
  40.7489992 131.1259978  -6.6699986  40.7309992 130.6999978  -5.8129986
  41.5539992 130.8069978  -7.0789986  40.8552875 131.0246435  -6.6080485
  42.8899992 129.8359978  -8.0149986  42.6709992 128.9189978  -7.8449986
  43.7139992 129.9759978  -7.5489986  42.9714702 129.7295511  -7.9287473
  45.4269992 130.3059978  -7.1659986  45.6399992 129.4179978  -7.4529986
  45.4919992 130.2709978  -6.2119986  45.4649149 130.1798326  -7.0762631
  48.9359992 115.9699978  -8.0219986  48.2619992 115.3399978  -7.7659986
  49.4999992 115.4859978  -8.6249986  48.9200384 115.8183708  -8.0684980
  54.0789992 114.0769978  -7.9089986  54.6819992 114.6249978  -8.4109986
  53.2089992 114.3959978  -8.1499986  54.0439157 114.1950373  -8.0102090
  55.8059992 115.2159978  -9.5759986  56.4169992 114.7019978 -10.1029986
  56.1879992 116.0929978  -9.5529986  55.9413305 115.2642050  -9.6450582
  41.2629992 114.6039978 -10.1999986  40.4859992 114.3689978 -10.7069986
  41.7929992 113.8069978 -10.1909986  41.2283451 114.4641268 -10.2681373
  40.0989992 114.4019978 -14.3959986  40.5379992 115.0129978 -14.9879986
  39.4649992 114.9399978 -13.9219986  40.0733859 114.5584064 -14.4129695
  45.8419992 114.5299978 -10.3869986  46.7159992 114.9189978 -10.4159986
  45.7059992 114.3149978  -9.4639986  45.9431953 114.5541643 -10.2662383
  51.3989992 114.5599978  -8.7369986  51.4749992 114.6559978  -9.6869986
  51.1239992 113.6529978  -8.6089986  51.3721871 114.4504146  -8.8496056
  52.7519992 114.5859978 -13.0449986  52.0489992 115.2009978 -13.2549986
  52.3069992 113.7489978 -12.9139986  52.5956550 114.5569668 -13.0560163
  39.9999992 130.3499978 -13.4989986  39.3149992 130.3119978 -14.1659986
  40.0039992 131.2629978 -13.2109986  39.9067621 130.4681924 -13.5513874
  41.9599992 116.3179978 -15.9539986  42.4509992 115.6879978 -16.4809986
  42.5829992 116.6139978 -15.2909986  42.1115304 116.2717376 -15.9365060
  46.9859992 116.6109978 -13.4969986  47.1639992 115.9639978 -12.8139986
  46.9319992 117.4449978 -13.0299986  47.0030678 116.6351604 -13.3403699
  48.8639992 131.5589978 -15.1009986  49.7299992 131.9259978 -15.2789986
  48.6179992 131.1199978 -15.9149986  48.9492097 131.5498525 -15.2353981
  55.5729992 131.1219978 -12.4219986  55.3789992 130.3739978 -12.9869986
  55.5339992 131.8799978 -13.0049986  55.5411645 131.1220786 -12.5781852
  41.2199992 115.1179978  -0.6819986  40.8539992 114.3519978  -0.2399986
  42.1329992 115.1469978  -0.3959986  41.2933172 115.0170324  -0.5828110
  43.1929992 114.4679978   0.8530014  44.0919992 114.1939978   0.6690014
  42.8069992 113.7259978   1.3180014  43.2637307 114.3302196   0.8907098
  41.8179992 131.2699978 -16.4739986  41.5499992 131.5559978 -15.5999986
  42.5889992 130.7239978 -16.3209986  41.8855926 131.2352779 -16.3338795
  51.6149992 113.8009978   1.0360014  51.6909992 113.3749978   1.8890014
  52.5079992 113.8139978   0.6930014  51.7462303 113.7443493   1.1065497
  54.7909992 129.8739978  -0.2719986  54.0089992 129.6869978  -0.7919986
  54.7189992 130.8029978  -0.0549986  54.6741924 129.9740637  -0.3138398
  69.1969992 123.7599978 -10.2409986  69.2859992 124.7039978 -10.3729986
  68.5589992 123.4849978 -10.8989986  69.1229062 123.8519812 -10.3480359
  68.1299992 123.0149978  -6.8219986  68.0919992 122.3689978  -6.1169986
  67.8079992 122.5479978  -7.5929986  68.0812679 122.8634276  -6.8297079
  60.4979992 122.6289978  -5.2289986  60.5399992 122.0039978  -4.5059986
  61.2009992 123.2529978  -5.0469986  60.5987345 122.6277873  -5.1054726
  71.8359992 125.9539978  -8.5209986  71.3949992 125.2339978  -8.0699986
  71.8229992 126.6749978  -7.8909986  71.7739215 125.9529291  -8.3741895
  61.4219992 127.0789978  -6.6939986  61.0519992 126.2769978  -7.0639986
  62.3629992 126.9109978  -6.6479986  61.4985984 126.9464638  -6.7384397
  58.0319992 120.7389978 -11.3019986  57.5839992 121.5849978 -11.3199986
  57.4709992 120.1599978 -11.8169986  57.8948546 120.7763993 -11.3741109
  58.7419992 122.9009978  -9.1759986  58.9559992 122.1309978  -8.6479986
  59.4799992 122.9909978  -9.7789986  58.8710200 122.8078587  -9.1852965
  68.9479992 131.0579978  -8.3089986  69.5669992 130.3819978  -8.5819986
  68.7389992 130.8399978  -7.3999986  69.0046056 130.9358869  -8.2236033
  66.5189992 125.4469978  -6.4159986  66.8229992 124.7609978  -7.0109986
  67.2409992 125.5659978  -5.7979986  66.6581240 125.3692314  -6.4139041
  75.1819992 117.0489978  -5.5559986  75.2319992 117.6589978  -4.8199986
  75.6079992 117.5099978  -6.2789986  75.2464108 117.1947709  -5.5529888
  69.6599992 119.8409978  -6.0889986  69.8029992 118.8949978  -6.0689986
  69.5539992 120.0479978  -7.0169986  69.6652403 119.7394797  -6.2117761
  62.8149992 117.9429978  -8.8159986  62.8579992 118.8029978  -9.2349986
  62.3569992 117.3909978  -9.4499986  62.7589871 117.9859245  -8.9589239
  70.5369992 118.0739978 -10.4149986  71.1839992 117.7449978  -9.7909986
  71.0469992 118.5909978 -11.0379986  70.6944351 118.0989067 -10.4138963
  59.4349992 120.3399978  -8.0539986  60.0889992 119.7899978  -7.6219986
  59.4589992 120.0659978  -8.9709986  59.5277199 120.2277167  -8.1188332
  64.5919992 121.8899978  -8.8389986  65.2079992 121.3629978  -8.3299986
  64.0049992 121.2499978  -9.2429986  64.5970154 121.7313954  -8.8239055
  75.5739992 118.5269978  -3.3199986  74.8849992 119.1849978  -3.4149986
  75.5889992 118.3289978  -2.3829986  75.4817756 118.5902603  -3.2064188
  61.6249992 116.8609978  -4.7419986  61.4059992 117.3909978  -5.5089986
  60.9569992 117.0869978  -4.0949986  61.5046975 116.9640967  -4.7594860
  68.9939992 126.3609978 -11.1979986  68.6989992 126.0379978 -12.0499986
  68.6699992 127.2609978 -11.1569986  68.9098460 126.4384464 -11.3090286
  64.1939992 124.5359978  -4.4549986  63.4539992 125.1349978  -4.3509986
  64.9079992 125.0899978  -4.7699986  64.1893500 124.6927829  -4.4833629
  72.3009992 117.3649978  -8.4349986  72.0859992 116.5989978  -7.9019986
  72.9569992 117.8369978  -7.9219986  72.3602673 117.3240728  -8.2928010
  61.2189992 118.7529978  -6.7899986  61.8329992 119.3859978  -6.4169986
  61.7309992 118.2809978  -7.4459986  61.3721962 118.7757249  -6.8277065
  62.6019992 126.5009978  -3.6679986  62.5959992 127.3799978  -4.0459986
  61.7479992 126.4169978  -3.2429986  62.4857925 126.6099535  -3.6623113
  58.7229992 126.1719978 -12.8859986  58.4509992 126.4009978 -13.7739986
  58.7679992 127.0089978 -12.4249986  58.6918097 126.3166163 -12.9453317
  72.3479992 127.7929978  -6.1729986  71.4059992 127.8519978  -6.0109986
  72.6239992 128.6989978  -6.3099986  72.2565865 127.9235288  -6.1693808
  72.6479992 116.0799978  -4.7559986  71.9119992 116.6899978  -4.7929986
  73.3319992 116.4949978  -5.2819986  72.6395367 116.2197551  -4.8321826
  65.6519992 114.1659978  -7.2899986  65.5339992 113.2179978  -7.3439986
  64.7969992 114.4989978  -7.0169986  65.5202805 114.0812202  -7.2604921
  70.5999992 129.5739978  -9.5479986  71.0249992 128.8669978 -10.0329986
  70.9169992 130.3759978  -9.9649986  70.7010266 129.5855190  -9.6707521
  71.7599992 127.4749978 -11.0389986  71.5019992 126.7849978 -11.6509986
  71.8309992 127.0319978 -10.1939986  71.7343050 127.3206814 -11.0084379
  73.4459992 126.0419978  -2.5619986  73.5849992 125.4499978  -3.3009986
  73.6129992 126.9149978  -2.9179986  73.4876193 126.0788896  -2.7113789
  67.9179992 123.0039978 -12.7889986  67.2069992 123.5389978 -13.1409986
  68.6089992 123.0589978 -13.4489986  67.9140751 123.0846777 -12.9264142
  67.9719992 121.4609978 -15.7509986  68.6729992 121.4839978 -15.0989986
  68.2739992 120.8329978 -16.4069986  68.1088202 121.3792212 -15.7504391
  75.2869992 122.3819978  -4.4959986  74.6349992 123.0759978  -4.4069986
  75.7529992 122.5919978  -5.3059986  75.2605937 122.5055019  -4.5932467
  71.3239992 123.2129978 -11.8379986  70.5919992 123.4419978 -11.2639986
  71.7709992 122.4999978 -11.3829986  71.2843963 123.1478729 -11.6980055
  71.2209992 121.3879978  -2.7699986  71.3009992 122.1509978  -2.1979986
  70.6199992 121.6669978  -3.4599986  71.1506547 121.5302457  -2.7849953
  62.9689992 123.8439978  -9.9549986  62.6389992 123.4729978 -10.7729986
  63.5579992 123.1729978  -9.6079986  63.0033970 123.7026063 -10.0200596
  64.3359992 127.2719978  -7.2739986  64.2409992 126.6929978  -8.0299986
  65.0649992 126.9009978  -6.7779986  64.4216011 127.1425561  -7.3103972
  63.3359992 122.6119978  -6.3219986  63.9009992 122.7339978  -7.0839986
  63.6549992 123.2499978  -5.6829986  63.4564166 122.7148791  -6.3399652
  69.6449992 128.1159978  -5.5879986  69.4049992 128.7779978  -4.9399986
  69.4469992 127.2809978  -5.1629986  69.5853826 128.0938115  -5.4418434
  64.2159992 127.0119978  -1.6039986  63.9049992 127.7939978  -1.1489986
  63.5659992 126.8589978  -2.2899986  64.0855538 127.0984087  -1.6344102
  70.1949992 122.3759978 -14.1519986  70.7739992 122.5259978 -13.4059986
  70.6089992 122.8459978 -14.8759986  70.3303358 122.4600955 -14.1476047
  61.1359992 123.2099978  -2.3759986  61.2059992 123.8609978  -1.6769986
  60.2449992 123.3129978  -2.7109986  61.0251690 123.3129249  -2.3256957
  67.9209992 129.1119978 -10.7169986  68.3949992 129.4079978  -9.9399986
  67.3579992 129.8509978 -10.9499986  67.9097890 129.2523036 -10.6421899
  62.4549992 129.0829978  -0.8409986  62.4629992 128.9469978  -1.7879986
  61.5389992 128.9659978  -0.5889986  62.3322528 129.0485463  -0.9366757
  73.8939992 114.1259978 -14.3389986  72.9939992 114.2649978 -14.0439986
  74.1459992 114.9569978 -14.7409986  73.8048683 114.2574055 -14.3529768
  61.9599992 122.9129978 -12.3659986  61.6679992 123.6809978 -12.8569986
  61.2849992 122.2539978 -12.5289986  61.8288497 122.9289745 -12.4551740
  75.0829992 128.4919978 -15.9629986  75.1559992 129.4309978 -15.7929986
  75.9879992 128.1869978 -16.0189986  75.2154170 128.5793282 -15.9472937
  58.0529992 125.2759978  -3.5509986  57.5509992 125.2479978  -4.3659986
  58.0579992 124.3709978  -3.2409986  57.9849832 125.1497486  -3.6205879
  57.8029992 128.0569978  -6.6669986  58.7489992 127.9119978  -6.6859986
  57.6899992 128.8409978  -6.1299986  57.9173578 128.1431697  -6.5969683
  76.0009992 128.7229978  -0.9839986  75.9509992 127.7669978  -1.0219986
  75.1739992 128.9899978  -0.5829986  75.8823831 128.6284680  -0.9349879
  66.9789992 128.2969978  -2.1079986  67.0669992 129.1229978  -1.6329986
  66.1159992 127.9669978  -1.8589986  66.8743357 128.3655468  -2.0092347
  67.3939992 132.0689978 -12.3019986  67.3179992 131.9479978 -13.2489986
  67.4259992 133.0179978 -12.1839986  67.3879380 132.1807677 -12.4154819
  61.0469992 130.8579978 -10.5209986  61.1989992 130.5099978  -9.6429986
  60.1959992 130.5009978 -10.7769986  60.9528344 130.7620879 -10.4353132
  70.4949992 131.2229978 -15.2999986  70.8699992 130.4789978 -15.7709986
  70.4999992 130.9529978 -14.3819986  70.5470098 131.0846392 -15.2403371
  70.1639992 131.1489978 -12.5509986  69.2289992 131.2489978 -12.3719986
  70.4439992 130.4389978 -11.9719986  70.0739471 131.0667933 -12.4483305
  73.1529992 120.2159978  -0.5039986  72.7449992 120.6959978  -1.2249986
  73.1929992 119.3099978  -0.8119986  73.1026221 120.1592449  -0.6441733
  60.3019992 126.5999978  -2.5079986  60.5179992 126.2379978  -1.6479986
  59.4459992 126.2249978  -2.7169986  60.2158810 126.4998837  -2.4187320
  62.9199992 115.0699978  -6.5119986  62.0589992 114.9829978  -6.9199986
  62.8979992 115.9259978  -6.0839986  62.7990491 115.1738003  -6.5100418
  67.5829992 114.7919978  -3.1369986  68.0029992 114.3769978  -2.3839986
  66.6499992 114.6129978  -3.0199986  67.5143736 114.7109910  -3.0181032
  70.9099992 118.5469978  -2.2839986  70.3959992 118.4219978  -1.4859986
  70.7539992 119.4599978  -2.5279986  70.8186967 118.6532123  -2.2079063
  71.6719992 123.4079978 -16.5229986  71.7139992 123.1859978 -17.4529986
  72.5209992 123.8069978 -16.3329986  71.7925253 123.4315498 -16.6246178
  67.2449992 117.2839978 -15.8519986  66.9909992 117.3029978 -14.9299986
  66.9879992 116.4129978 -16.1539986  67.1754508 117.1688280 -15.7665197
  63.0109992 120.0349978  -5.4169986  62.3699992 119.9949978  -4.7079986
  63.0489992 120.9619978  -5.6549986  62.9283010 120.1547668  -5.3520054
  63.0079992 120.2559978 -10.5049986  62.1159992 119.9159978 -10.5639986
  63.4589992 119.8789978 -11.2609986  62.9467642 120.1584910 -10.6152274
  68.5439992 120.6719978 -11.6879986  68.1349992 121.4869978 -11.9799986
  69.2639992 120.5319978 -12.3019986  68.5854439 120.7645372 -11.8109885
  67.6459992 120.8479978  -0.1999986  67.0829992 120.1429978   0.1210014
  68.4719992 120.7269978   0.2680014  67.6806674 120.7352165  -0.0928249
  69.5489992 120.1179978  -8.8739986  69.3529992 120.7239978  -9.5889986
  69.7299992 119.2849978  -9.3079986  69.5466584 120.0882513  -9.0305788
  60.7609992 120.3559978  -3.5499986  60.7229992 120.7559978  -2.6809986
  60.2709992 119.5389978  -3.4599986  60.6895330 120.3002674  -3.4188711
  64.1269992 117.7299978 -16.7509986  63.6959992 117.2849978 -16.0219986
  63.4089992 118.1009978 -17.2639986  63.9709176 117.7192051 -16.7205070
  57.3699992 117.4719978  -9.6989986  57.9999992 117.4429978  -8.9799986
  57.8189992 117.0469978 -10.4299986  57.5170835 117.4105660  -9.6992341
  58.6439992 118.2179978 -14.2749986  59.1179992 118.8089978 -14.8599986
  57.9259992 118.7479978 -13.9279986  58.6118640 118.3705511 -14.3082031
  68.8129992 121.7559978  -4.2029986  69.1359992 121.1249978  -4.8459986
  68.3719992 121.2219978  -3.5419986  68.7976379 121.5973468  -4.2017418
  65.5899992 117.6839978  -9.4189986  64.6789992 117.7409978  -9.1299986
  66.0949992 117.6239978  -8.6079986  65.5336873 117.6836826  -9.2698793
  60.4179992 119.3129978 -10.5919986  59.5289992 119.4119978 -10.9319986
  60.7149992 118.4709978 -10.9379986  60.3364177 119.2127687 -10.6853060
  64.0709992 119.3129978 -12.9349986  65.0029992 119.4419978 -12.7569986
  63.8559992 119.9819978 -13.5849986  64.1694472 119.4210806 -12.9985109
  69.9949992 116.9189978  -6.1539986  69.3179992 117.0499978  -5.4909986
  69.5099992 116.7639978  -6.9649986  69.8367405 116.9159947  -6.1727830
  62.7449992 120.5069978 -15.3689986  62.2029992 120.1279978 -16.0599986
  63.5789992 120.7019978 -15.7969986  62.7834390 120.4814079 -15.5215608
  73.2829992 132.5899978   0.1220014  73.4819992 133.0139978  -0.7119986
  73.9379992 132.9339978   0.7290014  73.3988522 132.6946301   0.0897852
  60.8809992 125.0639978  -0.2699986  61.6129992 125.3189978   0.2920014
  60.0999992 125.2689978   0.2460014  60.8756526 125.1265450  -0.1234824
  66.9099992 120.4709978  -7.5319986  67.4739992 119.9249978  -8.0789986
  66.7619992 119.9499978  -6.7429986  66.9673037 120.3256787  -7.5002771
  61.9119992 116.6079978 -11.1129986  61.5949992 115.7049978 -11.1489986
  62.6929992 116.6099978 -11.6659986  61.9742431 116.4847797 -11.1926898
  65.5359992 118.8599978  -5.1179986  64.7009992 119.3139978  -5.0069986
  66.0599992 119.1359978  -4.3659986  65.4926072 118.9593948  -5.0011864
  66.0809992 125.0729978 -13.4329986  65.3359992 124.5649978 -13.7549986
  65.9459992 125.1219978 -12.4869986  65.9608963 125.0101731 -13.3491174
  73.2309992 124.2059978  -4.6459986  73.8719992 124.6619978  -5.1899986
  72.3999992 124.3189978  -5.1089986  73.2065287 124.2836921  -4.7830113
  69.9779992 117.8869978 -15.2339986  69.0399992 117.9979978 -15.3849986
  70.2759992 118.7429978 -14.9269986  69.8896318 118.0180158 -15.2131855
  67.5999992 125.2569978  -2.1959986  67.2539992 124.8749978  -1.3889986
  67.3999992 126.1899978  -2.1249986  67.5255987 125.3309002  -2.0759539
  70.6969992 119.7539978 -13.5729986  71.5889992 119.6159978 -13.2539986
  70.7529992 120.5449978 -14.1099986  70.8267325 119.8419918 -13.6018783
  61.2049992 124.3679978  -7.6629986  61.9499992 124.3649978  -8.2649986
  61.2829992 123.5439978  -7.1819986  61.3173365 124.2562384  -7.6802570
  68.2059992 126.5309978 -14.4079986  67.9109992 127.3579978 -14.0259986
  67.5029992 125.9119978 -14.2109986  68.0706379 126.5604171 -14.3291346
  58.2129992 122.8279978  -2.3479986  58.4359992 122.4099978  -1.5169986
  57.6109992 122.2159978  -2.7709986  58.1621513 122.6879606  -2.2913260
  65.2299992 122.3449978  -0.1349986  64.9339992 122.1799978  -1.0309986
  66.1609992 122.1249978  -0.1459986  65.3154401 122.2926879  -0.2589794
  69.8499992 127.7189978  -2.2459986  68.9499992 127.9019978  -2.5129986
  69.8839992 127.9779978  -1.3249986  69.7313748 127.7790554  -2.1580836
  75.5819992 119.9629978 -13.8779986  75.0269992 119.5669978 -14.5509986
  75.6819992 120.8739978 -14.1559986  75.5196816 120.0319505 -14.0074967
  75.5449992 125.7639978  -1.0409986  74.6939992 126.0019978  -1.4089986
  76.1349992 125.7469978  -1.7939986  75.5083812 125.7942524  -1.1931547
  73.8769992 128.7489978 -13.4129986  73.5039992 127.9239978 -13.1039986
  74.1539992 128.5659978 -14.3109986  73.8633463 128.6112569 -13.4920475
  71.0369992 123.5569978  -6.3919986  70.1089992 123.3259978  -6.4189986
  71.4879992 122.7799978  -6.7219986  70.9708165 123.4202774  -6.4403210
  63.5799992 127.8859978 -10.2589986  64.1079992 128.6589978 -10.4589986
  62.6999992 128.1099978 -10.5609986  63.5333435 128.0222700 -10.3272690
  59.3349992 122.7479978 -15.6719986  59.9509992 123.3749978 -15.2919986
  58.4729992 123.0639978 -15.3999986  59.3027678 122.8764412 -15.5832791
  65.0079992 125.5489978 -10.6829986  64.7669992 126.4739978 -10.6409986
  64.2669992 125.0899978 -10.2859986  64.8749206 125.6135915 -10.6236231
  65.5219992 129.6979978  -4.3679986  65.8849992 130.5519978  -4.6009986
  66.0539992 129.4059978  -3.6269986  65.6435141 129.7753895  -4.2997903
  63.6909992 130.5699978 -11.1369986  62.7409992 130.6759978 -11.0859986
  64.0429992 131.3909978 -10.7929986  63.6085472 130.6954923 -11.0835148
  69.0659992 125.7969978  -4.6669986  68.6409992 125.5689978  -3.8409986
  69.6469992 125.0579978  -4.8489986  69.0863395 125.6659545  -4.5785586
  71.2689992 126.7259978 -15.5929986  71.6229992 126.3459978 -14.7889986
  70.3209992 126.6319978 -15.5059986  71.1892298 126.6612452 -15.4711313
  71.7249992 130.3489978  -2.1979986  71.1229992 129.7929978  -2.6929986
  72.0059992 131.0159978  -2.8239986  71.6805757 130.3630744  -2.3504325
  75.7729992 131.2049978 -15.3919986  76.5169992 131.7909978 -15.5319986
  75.0789992 131.7739978 -15.0589986  75.7809809 131.3620818 -15.3661410
  59.8469992 117.5819978  -2.7899986  58.9549992 117.9199978  -2.8579986
  59.7489992 116.7259978  -2.3719986  59.7114475 117.5126543  -2.7428296
  72.1349992 125.3979978 -13.3659986  71.8579992 124.6699978 -12.8099986
  73.0629992 125.5169978 -13.1609986  72.2224499 125.3144213 -13.2621956
  59.4989992 129.3859978  -4.3549986  59.7159992 128.4539978  -4.3859986
  59.7449992 129.6609978  -3.4719986  59.5619809 129.2955686  -4.2398309
  64.2969992 127.4079978 -14.6899986  64.4439992 126.8879978 -13.8999986
  64.2939992 128.3149978 -14.3829986  64.3167102 127.4593953 -14.5404075
  60.7499992 124.6599978 -14.1789986  60.0639992 125.0129978 -13.6119986
  61.2729992 125.4229978 -14.4259986  60.7268402 124.8113901 -14.1348199
  68.5819992 117.3229978  -3.8999986  69.2809992 117.3969978  -3.2499986
  68.2009992 116.4579978  -3.7459986  68.6262097 117.2162389  -3.7902003
  69.3659992 116.9749978 -12.8029986  69.5859992 117.4459978 -13.6069986
  69.9249992 117.3689978 -12.1329986  69.4716731 117.0927287 -12.8224967
  67.0349992 129.1049978 -13.9399986  66.2179992 129.6019978 -13.8879986
  67.5639992 129.5809978 -14.5809986  66.9948125 129.2371989 -14.0194694
  66.5659992 118.7029978 -11.9679986  67.3779992 119.2069978 -11.9219986
  66.3219992 118.5579978 -11.0539986  66.6441467 118.7523749 -11.8381425
  67.1019992 119.6889978  -2.7839986  67.2209992 120.2629978  -2.0269986
  67.7569992 119.0009978  -2.6689986  67.2068684 119.6745194  -2.6648326
  67.4499992 115.7839978 -11.0299986  67.1029992 116.4009978 -10.3859986
  68.1089992 116.2849978 -11.5119986  67.4915090 115.9361575 -11.0069319
  64.3729992 130.1489978 -13.9589986  64.5339992 130.9489978 -14.4589986
  64.1759992 130.4559978 -13.0739986  64.3683906 130.2998678 -13.9077667
  63.1079992 116.8469978 -14.3429986  63.0239992 117.7349978 -13.9959986
  63.9979992 116.5819978 -14.1109986  63.2168163 116.9327179 -14.2641404
  73.3059992 117.5959978  -1.9489986  72.3899992 117.8579978  -2.0359986
  73.6419992 117.5929978  -2.8449986  73.2258499 117.6315163  -2.0821234
  71.9089992 121.3459978  -7.8529986  71.1109992 120.9309978  -8.1809986
  72.3539992 120.6559978  -7.3619986  71.8599684 121.1958628  -7.8314773
  61.3659992 127.2739978 -15.2829986  61.9579992 127.9739978 -15.0059986
  61.8249992 126.8409978 -16.0019986  61.5091652 127.3112675 -15.3423467
  59.6819992 119.9389978 -16.1669986  59.6369992 120.8779978 -15.9879986
  58.7939992 119.7029978 -16.4359986  59.5558166 120.0356687 -16.1788476
  72.9949992 130.6019978  -6.2309986  72.8389992 131.2809978  -6.8879986
  73.9279992 130.6739978  -6.0279986  73.0997387 130.7046390  -6.2934658
  60.4899992 114.7199978  -7.4929986  60.2609992 114.7789978  -8.4209986
  60.0479992 113.9289978  -7.1869986  60.3988801 114.6210540  -7.5785271
  59.4209992 128.6609978 -11.3329986  58.5879992 129.1329978 -11.3059986
  59.9659992 129.1709978 -11.9319986  59.3807857 128.7944791 -11.4102858
  58.7089992 131.2729978  -0.0029986  59.2489992 131.0569978   0.7570014
  58.2279992 130.4679978  -0.1929986  58.7179219 131.1345156   0.0754282
  63.3059992 130.1929978   1.6170014  64.0739992 129.7339978   1.9580014
  63.2849992 129.9669978   0.6870014  63.4082135 130.0996668   1.5379491
  67.3979992 129.7009978 -17.0069986  66.7539992 129.0699978 -16.6859986
  68.1599992 129.1699978 -17.2389986  67.4128058 129.5427902 -16.9943962
  69.8829992 128.5729978   0.3460014  69.5319992 127.7159978   0.5900014
  70.6089992 128.7149978   0.9530014  69.9331895 128.4751351   0.4613770
  72.0029992 129.5179978 -16.7739986  72.2859992 128.7229978 -16.3209986
  72.7419992 129.7509978 -17.3349986  72.1417096 129.4407049 -16.7878896
  58.6159992 125.0839978   0.9510014  58.7599992 124.1819978   0.6650014
  57.8439992 125.3699978   0.4640014  58.5312733 124.9991798   0.8459532
  62.9569992 125.4269978 -16.9159986  63.0219992 124.6329978 -16.3859986
  63.6099992 125.3089978 -17.6059986  63.0541605 125.3023430 -16.9367003
  65.2709992 125.0529978   0.3840014  64.9429992 125.3239978  -0.4729986
  65.4229992 124.1119978   0.2960014  65.2466412 124.9629046   0.2547822
  71.0059992 124.9689978  -2.2329986  71.7509992 125.5579978  -2.3519986
  70.2489992 125.5509978  -2.1689986  71.0055470 125.1282128  -2.2406201
  59.4489992 122.2839978   0.3710014  59.8569992 121.4269978   0.2500014
  59.1879992 122.2979978   1.2920014  59.4696016 122.1685119   0.4789192
  64.1069992 123.3999978 -14.6099986  63.6469992 122.9159978 -13.9249986
  64.3619992 122.7309978 -15.2459986  64.0784856 123.2433669 -14.6021603
  63.3959992 121.2929978  -2.2539986  62.7769992 121.9669978  -1.9739986
  63.7399992 121.6139978  -3.0879986  63.3577123 121.4286887  -2.3283612
  65.1779992 121.6429978 -16.3479986  64.9969992 121.4879978 -17.2749986
  66.1279992 121.7509978 -16.3029986  65.2816566 121.6363669 -16.4689071
  68.4149992 123.7639978   1.0230014  69.3689992 123.8479978   0.9960014
  68.2549992 123.0519978   1.6430014  68.5237182 123.6792842   1.1030733
  74.5679992 123.9969978 -16.9019986  74.2939992 123.5729978 -17.7149986
  74.6069992 124.9289978 -17.1189986  74.5357716 124.0648827 -17.0425714
  63.7349992 118.6479978  -1.1719986  63.8849992 117.9189978  -1.7739986
  63.7369992 119.4249978  -1.7309986  63.7557967 118.6532708  -1.3299459
  64.1479992 117.0169978  -3.6789986  64.6829992 117.4689978  -4.3309986
  63.2949992 116.9089978  -4.1019986  64.1060374 117.0642665  -3.8253290
  65.7289992 122.4569978  -3.4399986  66.4799992 122.3009978  -4.0129986
  65.3899992 123.3089978  -3.7149986  65.7859587 122.5508138  -3.5555922
  70.1449992 120.2719978   1.5890014  70.3369992 119.3409978   1.4770014
  71.0029992 120.6969978   1.5780014  70.2872182 120.2020070   1.5721862
  71.4619992 123.0609978  -0.3339986  71.1799992 123.7699978  -0.9119986
  72.4039992 122.9879978  -0.4849986  71.5507921 123.1482193  -0.4335775
  62.2139992 119.8459978   0.7390014  61.4459992 119.3129978   0.5290014
  62.8919992 119.5359978   0.1400014  62.2007235 119.7311754   0.6292413
  64.9529992 114.4739978  -3.2479986  64.8549992 115.4199978  -3.3529986
  64.2109992 114.1009978  -3.7239986  64.8392534 114.5531773  -3.3267400
  66.2169992 118.7949978   0.3160014  65.9819992 118.5759978   1.2170014
  65.4339992 118.5879978  -0.1939986  66.0789095 118.7369892   0.3705353
  68.9329992 117.9229978  -0.6089986  67.9849992 117.9549978  -0.4769986
  69.2449992 117.2969978   0.0450014  68.8455293 117.8427923  -0.5025852
  70.5669992 116.5569978   1.3960014  70.4699992 115.6049978   1.3910014
  70.2449992 116.8249978   2.2570014  70.5102468 116.4630884   1.5116210
  60.3939992 117.7659978   0.4440014  60.6059992 117.0599978  -0.1659986
  60.2829992 117.3289978   1.2880014  60.4080269 117.6101921   0.4745873
  65.1749992 113.7679978  -0.5769986  65.8869992 113.1279978  -0.5909986
  65.0739992 114.0339978  -1.4899986  65.2587387 113.7164330  -0.7024437
  65.5289992 115.4499978   1.4770014  65.3969992 114.9749978   0.6570014
  64.9289992 116.1949978   1.4220014  65.4299070 115.4855789   1.3573251
  65.0749992 132.3329978 -15.3469986  66.0079992 132.4909978 -15.2029986
  64.8109992 133.0089978 -15.9719986  65.1669911 132.4459373 -15.4117278
  58.6429992 126.9699978 -15.8639986  59.5569992 127.0489978 -15.5909986
  58.6509992 126.2829978 -16.5299986  58.7690655 126.8879205 -15.9167083
  57.2919992 132.3629978 -10.7869986  56.6449992 131.9009978 -11.3189986
  57.6469992 131.6909978 -10.2039986  57.2513741 132.2089774 -10.7810825
  58.1619992 130.4429978  -8.9819986  57.8279992 129.5629978  -8.8099986
  58.3849992 130.7889978  -8.1169986  58.1463721 130.3691938  -8.8415832
  75.7109992 131.2529978  -6.0009986  75.6889992 131.4379978  -5.0619986
  76.4009992 131.8209978  -6.3419986  75.8013439 131.3551887  -5.9185209
  75.2739992 130.8199978  -3.0799986  74.7869992 130.0849978  -3.4509986
  75.8229992 130.4259978  -2.4019986  75.2815247 130.6661057  -3.0391539
  73.7249992 126.6099978   1.5590014  72.8589992 126.5049978   1.9530014
  74.1009992 127.3679978   2.0050014  73.6573401 126.6981708   1.6732620
  75.0259992 124.8659978 -12.9269986  75.8759992 125.2869978 -12.7999986
  75.0309992 124.1259978 -12.3199986  75.1431143 124.8236094 -12.8275250
  75.4199992 122.9199978 -11.1039986  74.6939992 122.4399978 -10.7059986
  76.0019992 123.1249978 -10.3709986  75.3992730 122.8820184 -10.9505851
  75.1789992 125.7049978  -6.1559986  76.0129992 125.3269978  -6.4369986
  75.2909992 126.6479978  -6.2749986  75.3081917 125.7807943  -6.2105139
  73.6659992 128.5829978  -3.8489986  73.0179992 128.9079978  -3.2239986
  73.1479992 128.1419978  -4.5229986  73.5074196 128.5678651  -3.8545848
  75.6889992 122.8209978 -14.7129986  75.1669992 123.1769978 -15.4309986
  75.6559992 123.4959978 -14.0339986  75.6130129 122.9609598 -14.7196645
  74.0379992 120.0599978 -16.1619986  74.1339992 120.7269978 -16.8419986
  73.8979992 119.2449978 -16.6429986  74.0322040 120.0410671 -16.3201622
  73.2069992 121.4409978 -10.5409986  73.0569992 120.4959978 -10.5609986
  72.8529992 121.7219978  -9.6969986  73.1386351 121.3496644 -10.4296780
  58.2419992 123.5189978  -6.5299986  58.4269992 123.4369978  -7.4659986
  59.0919992 123.3949978  -6.1069986  58.3820928 123.4910463  -6.6007107
  74.0629992 123.4109978  -0.9019986  74.6459992 122.6759978  -0.7099986
  74.6269992 124.1829978  -0.8549986  74.2189781 123.4148145  -0.8693836
  75.5599992 121.3139978  -0.2169986  74.6969992 120.9349978  -0.3829986
  76.1639992 120.5749978  -0.2919986  75.5236085 121.1623223  -0.2498305
  73.2849992 117.4679978 -17.0439986  73.8959992 117.0969978 -16.4069986
  72.4479992 117.0469978 -16.8479986  73.2554947 117.3602756 -16.9302748
  72.9179992 119.0229978 -12.0779986  73.1969992 118.1159978 -11.9539986
  73.6769992 119.4569978 -12.4669986  73.0588619 118.9574502 -12.1136205
  73.5289992 119.6049978  -6.6419986  74.4619992 119.8169978  -6.6769986
  73.2939992 119.7059978  -5.7199986  73.6249517 119.6476833  -6.5220870
  73.5589992 120.3419978  -3.8659986  72.7159992 120.6099978  -3.4999986
  74.0009992 121.1639978  -4.0769986  73.5034138 120.4898273  -3.8444482
  57.8399992 118.7889978  -0.3899986  58.7589992 118.6669978  -0.1529986
  57.3899992 118.0389978   0.0000014  57.9050087 118.6709608  -0.3048590
  75.8419992 114.3219978   1.4870014  76.1909992 113.6679978   0.8820014
  75.9889992 115.1589978   1.0470014  75.9096824 114.3456024   1.3446304
  73.5309992 116.2859978 -12.0299986  73.7129992 115.8369978 -11.2049986
  72.9309992 115.7019978 -12.4939986  73.4748187 116.1455552 -11.9797261
  59.0609992 117.1019978  -7.4979986  59.5059992 116.3099978  -7.1959986
  59.5269992 117.8179978  -7.0679986  59.1849718 117.0904534  -7.3984735
  57.3649992 120.1009978  -6.4289986  57.8569992 119.8799978  -7.2199986
  57.7269992 120.9409978  -6.1479986  57.4812923 120.1843468  -6.4992593
  75.3609992 116.4309978  -0.1639986  74.4439992 116.7019978  -0.1989986
  75.4839992 115.8959978  -0.9479986  75.2519672 116.3957885  -0.2748138
  75.3979992 116.3539978 -15.5019986  75.8099992 115.6329978 -15.9769986
  76.0789992 117.0229978 -15.4439986  75.5465536 116.3457766 -15.5591976
  57.6789992 116.3589978 -12.3749986  56.7539992 116.5669978 -12.5039986
  58.1329992 116.8429978 -13.0649986  57.6136298 116.4529299 -12.4859549
  72.4489992 131.3429978 -10.4289986  73.1019992 130.9949978 -11.0369986
  72.9599992 131.8309978  -9.7829986  72.6072777 131.3613815 -10.4247953
  57.6419992 115.0969978  -4.0309986  56.9769992 114.8509978  -3.3879986
  57.1989992 115.7189978  -4.6079986  57.4911168 115.1474214  -4.0210152
  59.8339992 128.2719978   0.1140014  59.0129992 128.4469978  -0.3469986
  59.5819992 128.1989978   1.0340014  59.6875594 128.2860717   0.1753611
  62.7879992 129.2459978  -3.6279986  62.3639992 130.0559978  -3.9099986
  63.6929992 129.3319978  -3.9299986  62.8522138 129.3684160  -3.7073585
  67.0999992 130.6449978  -0.6679986  67.2839992 130.3119978   0.2100014
  67.9459992 130.9549978  -0.9899986  67.2396484 130.6412979  -0.5912383
  69.4449992 131.9309978  -1.4239986  70.1219992 131.2979978  -1.6639986
  69.7659992 132.3319978  -0.6169986  69.5811323 131.8985691  -1.3476842
  74.3619992 114.5209978  -2.3449986  73.5489992 114.8459978  -2.7319986
  74.5949992 113.7599978  -2.8779986  74.2821347 114.4626880  -2.4700159
  60.1899992 132.5029978  -3.5799986  59.4699992 132.9429978  -4.0309986
  59.8249992 132.2519978  -2.7319986  60.0419643 132.5293369  -3.5270871
  62.6569992 132.1029978  -4.5499986  61.7929992 132.1749978  -4.1459986
  62.6019992 132.6499978  -5.3339986  62.5311942 132.1867849  -4.6006000
  67.3679992 131.9909978  -5.3749986  66.9109992 132.5199978  -6.0289986
  67.5309992 132.5939978  -4.6499986  67.3274960 132.1449280  -5.3664726
  69.6959992 130.8689978  -4.4299986  68.7909992 131.0339978  -4.6959986
  70.1239992 131.7219978  -4.4959986  69.6301537 131.0069134  -4.4752905
  72.2999992 132.4389978  -4.1349986  72.1179992 133.3549978  -4.3459986
  72.4769992 132.0279978  -4.9819986  72.2990030 132.5088273  -4.2782834
  59.6049992 131.1259978  -6.6699986  59.5869992 130.6999978  -5.8129986
  60.4099992 130.8069978  -7.0789986  59.7112875 131.0246435  -6.6080485
  61.7459992 129.8359978  -8.0149986  61.5269992 128.9189978  -7.8449986
  62.5699992 129.9759978  -7.5489986  61.8274702 129.7295511  -7.9287473
  64.2829992 130.3059978  -7.1659986  64.4959992 129.4179978  -7.4529986
  64.3479992 130.2709978  -6.2119986  64.3209149 130.1798326  -7.0762631
  67.7919992 115.9699978  -8.0219986  67.1179992 115.3399978  -7.7659986
  68.3559992 115.4859978  -8.6249986  67.7760384 115.8183708  -8.0684980
  72.9349992 114.0769978  -7.9089986  73.5379992 114.6249978  -8.4109986
  72.0649992 114.3959978  -8.1499986  72.8999157 114.1950373  -8.0102090
  74.6619992 115.2159978  -9.5759986  75.2729992 114.7019978 -10.1029986
  75.0439992 116.0929978  -9.5529986  74.7973305 115.2642050  -9.6450582
  60.1189992 114.6039978 -10.1999986  59.3419992 114.3689978 -10.7069986
  60.6489992 113.8069978 -10.1909986  60.0843451 114.4641268 -10.2681373
  58.9549992 114.4019978 -14.3959986  59.3939992 115.0129978 -14.9879986
  58.3209992 114.9399978 -13.9219986  58.9293859 114.5584064 -14.4129695
  64.6979992 114.5299978 -10.3869986  65.5719992 114.9189978 -10.4159986
  64.5619992 114.3149978  -9.4639986  64.7991953 114.5541643 -10.2662383
  70.2549992 114.5599978  -8.7369986  70.3309992 114.6559978  -9.6869986
  69.9799992 113.6529978  -8.6089986  70.2281871 114.4504146  -8.8496056
  71.6079992 114.5859978 -13.0449986  70.9049992 115.2009978 -13.2549986
  71.1629992 113.7489978 -12.9139986  71.4516550 114.5569668 -13.0560163
  58.8559992 130.3499978 -13.4989986  58.1709992 130.3119978 -14.1659986
  58.8599992 131.2629978 -13.2109986  58.7627621 130.4681924 -13.5513874
  60.8159992 116.3179978 -15.9539986  61.3069992 115.6879978 -16.4809986
  61.4389992 116.6139978 -15.2909986  60.9675304 116.2717376 -15.9365060
  65.8419992 116.6109978 -13.4969986  66.0199992 115.9639978 -12.8139986
  65.7879992 117.4449978 -13.0299986  65.8590678 116.6351604 -13.3403699
  67.7199992 131.5589978 -15.1009986  68.5859992 131.9259978 -15.2789986
  67.4739992 131.1199978 -15.9149986  67.8052097 131.5498525 -15.2353981
  74.4289992 131.1219978 -12.4219986  74.2349992 130.3739978 -12.9869986
  74.3899992 131.8799978 -13.0049986  74.3971645 131.1220786 -12.5781852
  60.0759992 115.1179978  -0.6819986  59.7099992 114.3519978  -0.2399986
  60.9889992 115.1469978  -0.3959986  60.1493172 115.0170324  -0.5828110
  62.0489992 114.4679978   0.8530014  62.9479992 114.1939978   0.6690014
  61.6629992 113.7259978   1.3180014  62.1197307 114.3302196   0.8907098
  60.6739992 131.2699978 -16.4739986  60.4059992 131.5559978 -15.5999986
  61.4449992 130.7239978 -16.3209986  60.7415926 131.2352779 -16.3338795
  70.4709992 113.8009978   1.0360014  70.5469992 113.3749978   1.8890014
  71.3639992 113.8139978   0.6930014  70.6022303 113.7443493   1.1065497
  73.6469992 129.8739978  -0.2719986  72.8649992 129.6869978  -0.7919986
  73.5749992 130.8029978  -0.0549986  73.5301924 129.9740637  -0.3138398
  88.0529992 123.7599978 -10.2409986  88.1419992 124.7039978 -10.3729986
  87.4149992 123.4849978 -10.8989986  87.9789062 123.8519812 -10.3480359
  86.9859992 123.0149978  -6.8219986  86.9479992 122.3689978  -6.1169986
  86.6639992 122.5479978  -7.5929986  86.9372679 122.8634276  -6.8297079
  79.3539992 122.6289978  -5.2289986  79.3959992 122.0039978  -4.5059986
  80.0569992 123.2529978  -5.0469986  79.4547345 122.6277873  -5.1054726
  90.6919992 125.9539978  -8.5209986  90.2509992 125.2339978  -8.0699986
  90.6789992 126.6749978  -7.8909986  90.6299215 125.9529291  -8.3741895
  80.2779992 127.0789978  -6.6939986  79.9079992 126.2769978  -7.0639986
  81.2189992 126.9109978  -6.6479986  80.3545984 126.9464638  -6.7384397
  76.8879992 120.7389978 -11.3019986  76.4399992 121.5849978 -11.3199986
  76.3269992 120.1599978 -11.8169986  76.7508546 120.7763993 -11.3741109
  77.5979992 122.9009978  -9.1759986  77.8119992 122.1309978  -8.6479986
  78.3359992 122.9909978  -9.7789986  77.7270200 122.8078587  -9.1852965
  87.8039992 131.0579978  -8.3089986  88.4229992 130.3819978  -8.5819986
  87.5949992 130.8399978  -7.3999986  87.8606056 130.9358869  -8.2236033
  85.3749992 125.4469978  -6.4159986  85.6789992 124.7609978  -7.0109986
  86.0969992 125.5659978  -5.7979986  85.5141240 125.3692314  -6.4139041
  94.0379992 117.0489978  -5.5559986  94.0879992 117.6589978  -4.8199986
  94.4639992 117.5099978  -6.2789986  94.1024108 117.1947709  -5.5529888
  88.5159992 119.8409978  -6.0889986  88.6589992 118.8949978  -6.0689986
  88.4099992 120.0479978  -7.0169986  88.5212403 119.7394797  -6.2117761
  81.6709992 117.9429978  -8.8159986  81.7139992 118.8029978  -9.2349986
  81.2129992 117.3909978  -9.4499986  81.6149871 117.9859245  -8.9589239
  89.3929992 118.0739978 -10.4149986  90.0399992 117.7449978  -9.7909986
  89.9029992 118.5909978 -11.0379986  89.5504351 118.0989067 -10.4138963
  78.2909992 120.3399978  -8.0539986  78.9449992 119.7899978  -7.6219986
  78.3149992 120.0659978  -8.9709986  78.3837199 120.2277167  -8.1188332
  83.4479992 121.8899978  -8.8389986  84.0639992 121.3629978  -8.3299986
  82.8609992 121.2499978  -9.2429986  83.4530154 121.7313954  -8.8239055
  94.4299992 118.5269978  -3.3199986  93.7409992 119.1849978  -3.4149986
  94.4449992 118.3289978  -2.3829986  94.3377756 118.5902603  -3.2064188
  80.4809992 116.8609978  -4.7419986  80.2619992 117.3909978  -5.5089986
  79.8129992 117.0869978  -4.0949986  80.3606975 116.9640967  -4.7594860
  87.8499992 126.3609978 -11.1979986  87.5549992 126.0379978 -12.0499986
  87.5259992 127.2609978 -11.1569986  87.7658460 126.4384464 -11.3090286
  83.0499992 124.5359978  -4.4549986  82.3099992 125.1349978  -4.3509986
  83.7639992 125.0899978  -4.7699986  83.0453500 124.6927829  -4.4833629
  91.1569992 117.3649978  -8.4349986  90.9419992 116.5989978  -7.9019986
  91.8129992 117.8369978  -7.9219986  91.2162673 117.3240728  -8.2928010
  80.0749992 118.7529978  -6.7899986  80.6889992 119.3859978  -6.4169986
  80.5869992 118.2809978  -7.4459986  80.2281962 118.7757249  -6.8277065
  81.4579992 126.5009978  -3.6679986  81.4519992 127.3799978  -4.0459986
  80.6039992 126.4169978  -3.2429986  81.3417925 126.6099535  -3.6623113
  77.5789992 126.1719978 -12.8859986  77.3069992 126.4009978 -13.7739986
  77.6239992 127.0089978 -12.4249986  77.5478097 126.3166163 -12.9453317
  91.2039992 127.7929978  -6.1729986  90.2619992 127.8519978  -6.0109986
  91.4799992 128.6989978  -6.3099986  91.1125865 127.9235288  -6.1693808
  91.5039992 116.0799978  -4.7559986  90.7679992 116.6899978  -4.7929986
  92.1879992 116.4949978  -5.2819986  91.4955367 116.2197551  -4.8321826
  84.5079992 114.1659978  -7.2899986  84.3899992 113.2179978  -7.3439986
  83.6529992 114.4989978  -7.0169986  84.3762805 114.0812202  -7.2604921
  89.4559992 129.5739978  -9.5479986  89.8809992 128.8669978 -10.0329986
  89.7729992 130.3759978  -9.9649986  89.5570266 129.5855190  -9.6707521
  90.6159992 127.4749978 -11.0389986  90.3579992 126.7849978 -11.6509986
  90.6869992 127.0319978 -10.1939986  90.5903050 127.3206814 -11.0084379
  92.3019992 126.0419978  -2.5619986  92.4409992 125.4499978  -3.3009986
  92.4689992 126.9149978  -2.9179986  92.3436193 126.0788896  -2.7113789
  86.7739992 123.0039978 -12.7889986  86.0629992 123.5389978 -13.1409986
  87.4649992 123.0589978 -13.4489986  86.7700751 123.0846777 -12.9264142
  86.8279992 121.4609978 -15.7509986  87.5289992 121.4839978 -15.0989986
  87.1299992 120.8329978 -16.4069986  86.9648202 121.3792212 -15.7504391
  94.1429992 122.3819978  -4.4959986  93.4909992 123.0759978  -4.4069986
  94.6089992 122.5919978  -5.3059986  94.1165937 122.5055019  -4.5932467
  90.1799992 123.2129978 -11.8379986  89.4479992 123.4419978 -11.2639986
  90.6269992 122.4999978 -11.3829986  90.1403963 123.1478729 -11.6980055
  90.0769992 121.3879978  -2.7699986  90.1569992 122.1509978  -2.1979986
  89.4759992 121.6669978  -3.4599986  90.0066547 121.5302457  -2.7849953
  81.8249992 123.8439978  -9.9549986  81.4949992 123.4729978 -10.7729986
  82.4139992 123.1729978  -9.6079986  81.8593970 123.7026063 -10.0200596
  83.1919992 127.2719978  -7.2739986  83.0969992 126.6929978  -8.0299986
  83.9209992 126.9009978  -6.7779986  83.2776011 127.1425561  -7.3103972
  82.1919992 122.6119978  -6.3219986  82.7569992 122.7339978  -7.0839986
  82.5109992 123.2499978  -5.6829986  82.3124166 122.7148791  -6.3399652
  88.5009992 128.1159978  -5.5879986  88.2609992 128.7779978  -4.9399986
  88.3029992 127.2809978  -5.1629986  88.4413826 128.0938115  -5.4418434
  83.0719992 127.0119978  -1.6039986  82.7609992 127.7939978  -1.1489986
  82.4219992 126.8589978  -2.2899986  82.9415538 127.0984087  -1.6344102
  89.0509992 122.3759978 -14.1519986  89.6299992 122.5259978 -13.4059986
  89.4649992 122.8459978 -14.8759986  89.1863358 122.4600954 -14.1476047
  79.9919992 123.2099978  -2.3759986  80.0619992 123.8609978  -1.6769986
  79.1009992 123.3129978  -2.7109986  79.8811690 123.3129249  -2.3256957
  86.7769992 129.1119978 -10.7169986  87.2509992 129.4079978  -9.9399986
  86.2139992 129.8509978 -10.9499986  86.7657890 129.2523036 -10.6421899
  81.3109992 129.0829978  -0.8409986  81.3189992 128.9469978  -1.7879986
  80.3949992 128.9659978  -0.5889986  81.1882528 129.0485463  -0.9366757
  92.7499992 114.1259978 -14.3389986  91.8499992 114.2649978 -14.0439986
  93.0019992 114.9569978 -14.7409986  92.6608683 114.2574055 -14.3529768
  80.8159992 122.9129978 -12.3659986  80.5239992 123.6809978 -12.8569986
  80.1409992 122.2539978 -12.5289986  80.6848497 122.9289745 -12.4551740
  93.9389992 128.4919978 -15.9629986  94.0119992 129.4309978 -15.7929986
  94.8439992 128.1869978 -16.0189986  94.0714170 128.5793282 -15.9472937
  76.9089992 125.2759978  -3.5509986  76.4069992 125.2479978  -4.3659986
  76.9139992 124.3709978  -3.2409986  76.8409832 125.1497486  -3.6205879
  76.6589992 128.0569978  -6.6669986  77.6049992 127.9119978  -6.6859986
  76.5459992 128.8409978  -6.1299986  76.7733578 128.1431697  -6.5969683
  94.8569992 128.7229978  -0.9839986  94.8069992 127.7669978  -1.0219986
  94.0299992 128.9899978  -0.5829986  94.7383831 128.6284680  -0.9349879
  85.8349992 128.2969978  -2.1079986  85.9229992 129.1229978  -1.6329986
  84.9719992 127.9669978  -1.8589986  85.7303357 128.3655468  -2.0092347
  86.2499992 132.0689978 -12.3019986  86.1739992 131.9479978 -13.2489986
  86.2819992 133.0179978 -12.1839986  86.2439380 132.1807677 -12.4154819
  79.9029992 130.8579978 -10.5209986  80.0549992 130.5099978  -9.6429986
  79.0519992 130.5009978 -10.7769986  79.8088344 130.7620879 -10.4353132
  89.3509992 131.2229978 -15.2999986  89.7259992 130.4789978 -15.7709986
  89.3559992 130.9529978 -14.3819986  89.4030098 131.0846392 -15.2403371
  89.0199992 131.1489978 -12.5509986  88.0849992 131.2489978 -12.3719986
  89.2999992 130.4389978 -11.9719986  88.9299471 131.0667933 -12.4483305
  92.0089992 120.2159978  -0.5039986  91.6009992 120.6959978  -1.2249986
  92.0489992 119.3099978  -0.8119986  91.9586221 120.1592449  -0.6441733
  79.1579992 126.5999978  -2.5079986  79.3739992 126.2379978  -1.6479986
  78.3019992 126.2249978  -2.7169986  79.0718810 126.4998837  -2.4187320
  81.7759992 115.0699978  -6.5119986  80.9149992 114.9829978  -6.9199986
  81.7539992 115.9259978  -6.0839986  81.6550491 115.1738003  -6.5100418
  86.4389992 114.7919978  -3.1369986  86.8589992 114.3769978  -2.3839986
  85.5059992 114.6129978  -3.0199986  86.3703736 114.7109910  -3.0181032
  89.7659992 118.5469978  -2.2839986  89.2519992 118.4219978  -1.4859986
  89.6099992 119.4599978  -2.5279986  89.6746967 118.6532123  -2.2079063
  90.5279992 123.4079978 -16.5229986  90.5699992 123.1859978 -17.4529986
  91.3769992 123.8069978 -16.3329986  90.6485253 123.4315498 -16.6246178
  86.1009992 117.2839978 -15.8519986  85.8469992 117.3029978 -14.9299986
  85.8439992 116.4129978 -16.1539986  86.0314508 117.1688280 -15.7665197
  81.8669992 120.0349978  -5.4169986  81.2259992 119.9949978  -4.7079986
  81.9049992 120.9619978  -5.6549986  81.7843010 120.1547668  -5.3520054
  81.8639992 120.2559978 -10.5049986  80.9719992 119.9159978 -10.5639986
  82.3149992 119.8789978 -11.2609986  81.8027642 120.1584910 -10.6152274
  87.3999992 120.6719978 -11.6879986  86.9909992 121.4869978 -11.9799986
  88.1199992 120.5319978 -12.3019986  87.4414439 120.7645372 -11.8109885
  86.5019992 120.8479978  -0.1999986  85.9389992 120.1429978   0.1210014
  87.3279992 120.7269978   0.2680014  86.5366674 120.7352165  -0.0928249
  88.4049992 120.1179978  -8.8739986  88.2089992 120.7239978  -9.5889986
  88.5859992 119.2849978  -9.3079986  88.4026584 120.0882513  -9.0305788
  79.6169992 120.3559978  -3.5499986  79.5789992 120.7559978  -2.6809986
  79.1269992 119.5389978  -3.4599986  79.5455330 120.3002674  -3.4188711
  82.9829992 117.7299978 -16.7509986  82.5519992 117.2849978 -16.0219986
  82.2649992 118.1009978 -17.2639986  82.8269176 117.7192051 -16.7205070
  76.2259992 117.4719978  -9.6989986  76.8559992 117.4429978  -8.9799986
  76.6749992 117.0469978 -10.4299986  76.3730835 117.4105660  -9.6992341
  77.4999992 118.2179978 -14.2749986  77.9739992 118.8089978 -14.8599986
  76.7819992 118.7479978 -13.9279986  77.4678640 118.3705511 -14.3082031
  87.6689992 121.7559978  -4.2029986  87.9919992 121.1249978  -4.8459986
  87.2279992 121.2219978  -3.5419986  87.6536379 121.5973468  -4.2017418
  84.4459992 117.6839978  -9.4189986  83.5349992 117.7409978  -9.1299986
  84.9509992 117.6239978  -8.6079986  84.3896873 117.6836826  -9.2698793
  79.2739992 119.3129978 -10.5919986  78.3849992 119.4119978 -10.9319986
  79.5709992 118.4709978 -10.9379986  79.1924177 119.2127687 -10.6853060
  82.9269992 119.3129978 -12.9349986  83.8589992 119.4419978 -12.7569986
  82.7119992 119.9819978 -13.5849986  83.0254472 119.4210806 -12.9985109
  88.8509992 116.9189978  -6.1539986  88.1739992 117.0499978  -5.4909986
  88.3659992 116.7639978  -6.9649986  88.6927405 116.9159947  -6.1727830
  81.6009992 120.5069978 -15.3689986  81.0589992 120.1279978 -16.0599986
  82.4349992 120.7019978 -15.7969986  81.6394390 120.4814079 -15.5215608
  92.1389992 132.5899978   0.1220014  92.3379992 133.0139978  -0.7119986
  92.7939992 132.9339978   0.7290014  92.2548522 132.6946301   0.0897852
  79.7369992 125.0639978  -0.2699986  80.4689992 125.3189978   0.2920014
  78.9559992 125.2689978   0.2460014  79.7316526 125.1265449  -0.1234824
  85.7659992 120.4709978  -7.5319986  86.3299992 119.9249978  -8.0789986
  85.6179992 119.9499978  -6.7429986  85.8233037 120.3256787  -7.5002771
  80.7679992 116.6079978 -11.1129986  80.4509992 115.7049978 -11.1489986
  81.5489992 116.6099978 -11.6659986  80.8302431 116.4847797 -11.1926898
  84.3919992 118.8599978  -5.1179986  83.5569992 119.3139978  -5.0069986
  84.9159992 119.1359978  -4.3659986  84.3486072 118.9593948  -5.0011864
  84.9369992 125.0729978 -13.4329986  84.1919992 124.5649978 -13.7549986
  84.8019992 125.1219978 -12.4869986  84.8168963 125.0101731 -13.3491174
  92.0869992 124.2059978  -4.6459986  92.7279992 124.6619978  -5.1899986
  91.2559992 124.3189978  -5.1089986  92.0625287 124.2836921  -4.7830113
  88.8339992 117.8869978 -15.2339986  87.8959992 117.9979978 -15.3849986
  89.1319992 118.7429978 -14.9269986  88.7456318 118.0180158 -15.2131855
  86.4559992 125.2569978  -2.1959986  86.1099992 124.8749978  -1.3889986
  86.2559992 126.1899978  -2.1249986  86.3815987 125.3309002  -2.0759539
  89.5529992 119.7539978 -13.5729986  90.4449992 119.6159978 -13.2539986
  89.6089992 120.5449978 -14.1099986  89.6827325 119.8419918 -13.6018783
  80.0609992 124.3679978  -7.6629986  80.8059992 124.3649978  -8.2649986
  80.1389992 123.5439978  -7.1819986  80.1733365 124.2562384  -7.6802570
  87.0619992 126.5309978 -14.4079986  86.7669992 127.3579978 -14.0259986
  86.3589992 125.9119978 -14.2109986  86.9266379 126.5604171 -14.3291346
  77.0689992 122.8279978  -2.3479986  77.2919992 122.4099978  -1.5169986
  76.4669992 122.2159978  -2.7709986  77.0181513 122.6879606  -2.2913260
  84.0859992 122.3449978  -0.1349986  83.7899992 122.1799978  -1.0309986
  85.0169992 122.1249978  -0.1459986  84.1714401 122.2926879  -0.2589794
  88.7059992 127.7189978  -2.2459986  87.8059992 127.9019978  -2.5129986
  88.7399992 127.9779978  -1.3249986  88.5873748 127.7790554  -2.1580836
  94.4379992 119.9629978 -13.8779986  93.8829992 119.5669978 -14.5509986
  94.5379992 120.8739978 -14.1559986  94.3756816 120.0319505 -14.0074967
  94.4009992 125.7639978  -1.0409986  93.5499992 126.0019978  -1.4089986
  94.9909992 125.7469978  -1.7939986  94.3643812 125.7942524  -1.1931547
  92.7329992 128.7489978 -13.4129986  92.3599992 127.9239978 -13.1039986
  93.0099992 128.5659978 -14.3109986  92.7193463 128.6112569 -13.4920475
  89.8929992 123.5569978  -6.3919986  88.9649992 123.3259978  -6.4189986
  90.3439992 122.7799978  -6.7219986  89.8268165 123.4202774  -6.4403210
  82.4359992 127.8859978 -10.2589986  82.9639992 128.6589978 -10.4589986
  81.5559992 128.1099978 -10.5609986  82.3893435 128.0222700 -10.3272690
  78.1909992 122.7479978 -15.6719986  78.8069992 123.3749978 -15.2919986
  77.3289992 123.0639978 -15.3999986  78.1587678 122.8764412 -15.5832791
  83.8639992 125.5489978 -10.6829986  83.6229992 126.4739978 -10.6409986
  83.1229992 125.0899978 -10.2859986  83.7309206 125.6135915 -10.6236231
  84.3779992 129.6979978  -4.3679986  84.7409992 130.5519978  -4.6009986
  84.9099992 129.4059978  -3.6269986  84.4995141 129.7753895  -4.2997903
  82.5469992 130.5699978 -11.1369986  81.5969992 130.6759978 -11.0859986
  82.8989992 131.3909978 -10.7929986  82.4645472 130.6954923 -11.0835148
  87.9219992 125.7969978  -4.6669986  87.4969992 125.5689978  -3.8409986
  88.5029992 125.0579978  -4.8489986  87.9423395 125.6659545  -4.5785586
  90.1249992 126.7259978 -15.5929986  90.4789992 126.3459978 -14.7889986
  89.1769992 126.6319978 -15.5059986  90.0452298 126.6612452 -15.4711313
  90.5809992 130.3489978  -2.1979986  89.9789992 129.7929978  -2.6929986
  90.8619992 131.0159978  -2.8239986  90.5365757 130.3630744  -2.3504325
  94.6289992 131.2049978 -15.3919986  95.3729992 131.7909978 -15.5319986
  93.9349992 131.7739978 -15.0589986  94.6369809 131.3620818 -15.3661410
  78.7029992 117.5819978  -2.7899986  77.8109992 117.9199978  -2.8579986
  78.6049992 116.7259978  -2.3719986  78.5674475 117.5126543  -2.7428296
  90.9909992 125.3979978 -13.3659986  90.7139992 124.6699978 -12.8099986
  91.9189992 125.5169978 -13.1609986  91.0784499 125.3144213 -13.2621956
  78.3549992 129.3859978  -4.3549986  78.5719992 128.4539978  -4.3859986
  78.6009992 129.6609978  -3.4719986  78.4179809 129.2955686  -4.2398309
  83.1529992 127.4079978 -14.6899986  83.2999992 126.8879978 -13.8999986
  83.1499992 128.3149978 -14.3829986  83.1727102 127.4593953 -14.5404075
  79.6059992 124.6599978 -14.1789986  78.9199992 125.0129978 -13.6119986
  80.1289992 125.4229978 -14.4259986  79.5828402 124.8113901 -14.1348199
  87.4379992 117.3229978  -3.8999986  88.1369992 117.3969978  -3.2499986
  87.0569992 116.4579978  -3.7459986  87.4822097 117.2162389  -3.7902003
  88.2219992 116.9749978 -12.8029986  88.4419992 117.4459978 -13.6069986
  88.7809992 117.3689978 -12.1329986  88.3276731 117.0927287 -12.8224967
  85.8909992 129.1049978 -13.9399986  85.0739992 129.6019978 -13.8879986
  86.4199992 129.5809978 -14.5809986  85.8508125 129.2371989 -14.0194694
  85.4219992 118.7029978 -11.9679986  86.2339992 119.2069978 -11.9219986
  85.1779992 118.5579978 -11.0539986  85.5001467 118.7523749 -11.8381425
  85.9579992 119.6889978  -2.7839986  86.0769992 120.2629978  -2.0269986
  86.6129992 119.0009978  -2.6689986  86.0628684 119.6745194  -2.6648326
  86.3059992 115.7839978 -11.0299986  85.9589992 116.4009978 -10.3859986
  86.9649992 116.2849978 -11.5119986  86.3475090 115.9361575 -11.0069319
  83.2289992 130.1489978 -13.9589986  83.3899992 130.9489978 -14.4589986
  83.0319992 130.4559978 -13.0739986  83.2243906 130.2998678 -13.9077667
  81.9639992 116.8469978 -14.3429986  81.8799992 117.7349978 -13.9959986
  82.8539992 116.5819978 -14.1109986  82.0728163 116.9327179 -14.2641404
  92.1619992 117.5959978  -1.9489986  91.2459992 117.8579978  -2.0359986
  92.4979992 117.5929978  -2.8449986  92.0818499 117.6315163  -2.0821234
  90.7649992 121.3459978  -7.8529986  89.9669992 120.9309978  -8.1809986
  91.2099992 120.6559978  -7.3619986  90.7159684 121.1958628  -7.8314773
  80.2219992 127.2739978 -15.2829986  80.8139992 127.9739978 -15.0059986
  80.6809992 126.8409978 -16.0019986  80.3651652 127.3112675 -15.3423467
  78.5379992 119.9389978 -16.1669986  78.4929992 120.8779978 -15.9879986
  77.6499992 119.7029978 -16.4359986  78.4118166 120.0356687 -16.1788476
  91.8509992 130.6019978  -6.2309986  91.6949992 131.2809978  -6.8879986
  92.7839992 130.6739978  -6.0279986  91.9557387 130.7046390  -6.2934658
  79.3459992 114.7199978  -7.4929986  79.1169992 114.7789978  -8.4209986
  78.9039992 113.9289978  -7.1869986  79.2548801 114.6210540  -7.5785271
  78.2769992 128.6609978 -11.3329986  77.4439992 129.1329978 -11.3059986
  78.8219992 129.1709978 -11.9319986  78.2367857 128.7944791 -11.4102858
  77.5649992 131.2729978  -0.0029986  78.1049992 131.0569978   0.7570014
  77.0839992 130.4679978  -0.1929986  77.5739219 131.1345156   0.0754282
  82.1619992 130.1929978   1.6170014  82.9299992 129.7339978   1.9580014
  82.1409992 129.9669978   0.6870014  82.2642135 130.0996668   1.5379491
  86.2539992 129.7009978 -17.0069986  85.6099992 129.0699978 -16.6859986
  87.0159992 129.1699978 -17.2389986  86.2688058 129.5427902 -16.9943962
  88.7389992 128.5729978   0.3460014  88.3879992 127.7159978   0.5900014
  89.4649992 128.7149978   0.9530014  88.7891895 128.4751351   0.4613770
  90.8589992 129.5179978 -16.7739986  91.1419992 128.7229978 -16.3209986
  91.5979992 129.7509978 -17.3349986  90.9977096 129.4407049 -16.7878896
  77.4719992 125.0839978   0.9510014  77.6159992 124.1819978   0.6650014
  76.6999992 125.3699978   0.4640014  77.3872733 124.9991798   0.8459532
  81.8129992 125.4269978 -16.9159986  81.8779992 124.6329978 -16.3859986
  82.4659992 125.3089978 -17.6059986  81.9101605 125.3023430 -16.9367003
  84.1269992 125.0529978   0.3840014  83.7989992 125.3239978  -0.4729986
  84.2789992 124.1119978   0.2960014  84.1026412 124.9629046   0.2547822
  89.8619992 124.9689978  -2.2329986  90.6069992 125.5579978  -2.3519986
  89.1049992 125.5509978  -2.1689986  89.8615470 125.1282128  -2.2406201
  78.3049992 122.2839978   0.3710014  78.7129992 121.4269978   0.2500014
  78.0439992 122.2979978   1.2920014  78.3256016 122.1685119   0.4789192
  82.9629992 123.3999978 -14.6099986  82.5029992 122.9159978 -13.9249986
  83.2179992 122.7309978 -15.2459986  82.9344856 123.2433669 -14.6021603
  82.2519992 121.2929978  -2.2539986  81.6329992 121.9669978  -1.9739986
  82.5959992 121.6139978  -3.0879986  82.2137123 121.4286887  -2.3283612
  84.0339992 121.6429978 -16.3479986  83.8529992 121.4879978 -17.2749986
  84.9839992 121.7509978 -16.3029986  84.1376566 121.6363669 -16.4689071
  87.2709992 123.7639978   1.0230014  88.2249992 123.8479978   0.9960014
  87.1109992 123.0519978   1.6430014  87.3797182 123.6792842   1.1030733
  93.4239992 123.9969978 -16.9019986  93.1499992 123.5729978 -17.7149986
  93.4629992 124.9289978 -17.1189986  93.3917716 124.0648827 -17.0425714
  82.5909992 118.6479978  -1.1719986  82.7409992 117.9189978  -1.7739986
  82.5929992 119.4249978  -1.7309986  82.6117967 118.6532708  -1.3299459
  83.0039992 117.0169978  -3.6789986  83.5389992 117.4689978  -4.3309986
  82.1509992 116.9089978  -4.1019986  82.9620374 117.0642665  -3.8253290
  84.5849992 122.4569978  -3.4399986  85.3359992 122.3009978  -4.0129986
  84.2459992 123.3089978  -3.7149986  84.6419587 122.5508138  -3.5555922
  89.0009992 120.2719978   1.5890014  89.1929992 119.3409978   1.4770014
  89.8589992 120.6969978   1.5780014  89.1432182 120.2020070   1.5721862
  90.3179992 123.0609978  -0.3339986  90.0359992 123.7699978  -0.9119986
  91.2599992 122.9879978  -0.4849986  90.4067921 123.1482193  -0.4335775
  81.0699992 119.8459978   0.7390014  80.3019992 119.3129978   0.5290014
  81.7479992 119.5359978   0.1400014  81.0567235 119.7311754   0.6292413
  83.8089992 114.4739978  -3.2479986  83.7109992 115.4199978  -3.3529986
  83.0669992 114.1009978  -3.7239986  83.6952534 114.5531773  -3.3267400
  85.0729992 118.7949978   0.3160014  84.8379992 118.5759978   1.2170014
  84.2899992 118.5879978  -0.1939986  84.9349095 118.7369892   0.3705353
  87.7889992 117.9229978  -0.6089986  86.8409992 117.9549978  -0.4769986
  88.1009992 117.2969978   0.0450014  87.7015293 117.8427923  -0.5025852
  89.4229992 116.5569978   1.3960014  89.3259992 115.6049978   1.3910014
  89.1009992 116.8249978   2.2570014  89.3662468 116.4630884   1.5116210
  79.2499992 117.7659978   0.4440014  79.4619992 117.0599978  -0.1659986
  79.1389992 117.3289978   1.2880014  79.2640269 117.6101921   0.4745873
  84.0309992 113.7679978  -0.5769986  84.7429992 113.1279978  -0.5909986
  83.9299992 114.0339978  -1.4899986  84.1147387 113.7164330  -0.7024437
  84.3849992 115.4499978   1.4770014  84.2529992 114.9749978   0.6570014
  83.7849992 116.1949978   1.4220014  84.2859070 115.4855789   1.3573251
  83.9309992 132.3329978 -15.3469986  84.8639992 132.4909978 -15.2029986
  83.6669992 133.0089978 -15.9719986  84.0229911 132.4459373 -15.4117278
  77.4989992 126.9699978 -15.8639986  78.4129992 127.0489978 -15.5909986
  77.5069992 126.2829978 -16.5299986  77.6250655 126.8879205 -15.9167083
  76.1479992 132.3629978 -10.7869986  75.5009992 131.9009978 -11.3189986
  76.5029992 131.6909978 -10.2039986  76.1073741 132.2089774 -10.7810825
  77.0179992 130.4429978  -8.9819986  76.6839992 129.5629978  -8.8099986
  77.2409992 130.7889978  -8.1169986  77.0023721 130.3691938  -8.8415832
  94.5669992 131.2529978  -6.0009986  94.5449992 131.4379978  -5.0619986
  95.2569992 131.8209978  -6.3419986  94.6573439 131.3551887  -5.9185209
  94.1299992 130.8199978  -3.0799986  93.6429992 130.0849978  -3.4509986
  94.6789992 130.4259978  -2.4019986  94.1375247 130.6661057  -3.0391539
  92.5809992 126.6099978   1.5590014  91.7149992 126.5049978   1.9530014
  92.9569992 127.3679978   2.0050014  92.5133401 126.6981708   1.6732620
  93.8819992 124.8659978 -12.9269986  94.7319992 125.2869978 -12.7999986
  93.8869992 124.1259978 -12.3199986  93.9991143 124.8236094 -12.8275250
  94.2759992 122.9199978 -11.1039986  93.5499992 122.4399978 -10.7059986
  94.8579992 123.1249978 -10.3709986  94.2552730 122.8820184 -10.9505851
  94.0349992 125.7049978  -6.1559986  94.8689992 125.3269978  -6.4369986
  94.1469992 126.6479978  -6.2749986  94.1641917 125.7807943  -6.2105139
  92.5219992 128.5829978  -3.8489986  91.8739992 128.9079978  -3.2239986
  92.0039992 128.1419978  -4.5229986  92.3634196 128.5678651  -3.8545848
  94.5449992 122.8209978 -14.7129986  94.0229992 123.1769978 -15.4309986
  94.5119992 123.4959978 -14.0339986  94.4690129 122.9609598 -14.7196645
  92.8939992 120.0599978 -16.1619986  92.9899992 120.7269978 -16.8419986
  92.7539992 119.2449978 -16.6429986  92.8882040 120.0410671 -16.3201622
  92.0629992 121.4409978 -10.5409986  91.9129992 120.4959978 -10.5609986
  91.7089992 121.7219978  -9.6969986  91.9946351 121.3496644 -10.4296780
  77.0979992 123.5189978  -6.5299986  77.2829992 123.4369978  -7.4659986
  77.9479992 123.3949978  -6.1069986  77.2380928 123.4910463  -6.6007107
  92.9189992 123.4109978  -0.9019986  93.5019992 122.6759978  -0.7099986
  93.4829992 124.1829978  -0.8549986  93.0749781 123.4148145  -0.8693836
  94.4159992 121.3139978  -0.2169986  93.5529992 120.9349978  -0.3829986
  95.0199992 120.5749978  -0.2919986  94.3796085 121.1623223  -0.2498305
  92.1409992 117.4679978 -17.0439986  92.7519992 117.0969978 -16.4069986
  91.3039992 117.0469978 -16.8479986  92.1114947 117.3602756 -16.9302748
  91.7739992 119.0229978 -12.0779986  92.0529992 118.1159978 -11.9539986
  92.5329992 119.4569978 -12.4669986  91.9148619 118.9574502 -12.1136205
  92.3849992 119.6049978  -6.6419986  93.3179992 119.8169978  -6.6769986
  92.1499992 119.7059978  -5.7199986  92.4809517 119.6476833  -6.5220870
  92.4149992 120.3419978  -3.8659986  91.5719992 120.6099978  -3.4999986
  92.8569992 121.1639978  -4.0769986  92.3594138 120.4898273  -3.8444482
  76.6959992 118.7889978  -0.3899986  77.6149992 118.6669978  -0.1529986
  76.2459992 118.0389978   0.0000014  76.7610087 118.6709608  -0.3048590
  94.6979992 114.3219978   1.4870014  95.0469992 113.6679978   0.8820014
  94.8449992 115.1589978   1.0470014  94.7656824 114.3456024   1.3446304
  92.3869992 116.2859978 -12.0299986  92.5689992 115.8369978 -11.2049986
  91.7869992 115.7019978 -12.4939986  92.3308187 116.1455552 -11.9797261
  77.9169992 117.1019978  -7.4979986  78.3619992 116.3099978  -7.1959986
  78.3829992 117.8179978  -7.0679986  78.0409718 117.0904534  -7.3984735
  76.2209992 120.1009978  -6.4289986  76.7129992 119.8799978  -7.2199986
  76.5829992 120.9409978  -6.1479986  76.3372923 120.1843468  -6.4992593
  94.2169992 116.4309978  -0.1639986  93.2999992 116.7019978  -0.1989986
  94.3399992 115.8959978  -0.9479986  94.1079672 116.3957885  -0.2748138
  94.2539992 116.3539978 -15.5019986  94.6659992 115.6329978 -15.9769986
  94.9349992 117.0229978 -15.4439986  94.4025536 116.3457766 -15.5591976
  76.5349992 116.3589978 -12.3749986  75.6099992 116.5669978 -12.5039986
  76.9889992 116.8429978 -13.0649986  76.4696298 116.4529299 -12.4859549
  91.3049992 131.3429978 -10.4289986  91.9579992 130.9949978 -11.0369986
  91.8159992 131.8309978  -9.7829986  91.4632777 131.3613815 -10.4247953
  76.4979992 115.0969978  -4.0309986  75.8329992 114.8509978  -3.3879986
  76.0549992 115.7189978  -4.6079986  76.3471168 115.1474214  -4.0210152
  78.6899992 128.2719978   0.1140014  77.8689992 128.4469978  -0.3469986
  78.4379992 128.1989978   1.0340014  78.5435594 128.2860717   0.1753611
  81.6439992 129.2459978  -3.6279986  81.2199992 130.0559978  -3.9099986
  82.5489992 129.3319978  -3.9299986  81.7082138 129.3684160  -3.7073585
  85.9559992 130.6449978  -0.6679986  86.1399992 130.3119978   0.2100014
  86.8019992 130.9549978  -0.9899986  86.0956484 130.6412979  -0.5912383
  88.3009992 131.9309978  -1.4239986  88.9779992 131.2979978  -1.6639986
  88.6219992 132.3319978  -0.6169986  88.4371323 131.8985691  -1.3476842
  93.2179992 114.5209978  -2.3449986  92.4049992 114.8459978  -2.7319986
  93.4509992 113.7599978  -2.8779986  93.1381347 114.4626880  -2.4700159
  79.0459992 132.5029978  -3.5799986  78.3259992 132.9429978  -4.0309986
  78.6809992 132.2519978  -2.7319986  78.8979643 132.5293369  -3.5270871
  81.5129992 132.1029978  -4.5499986  80.6489992 132.1749978  -4.1459986
  81.4579992 132.6499978  -5.3339986  81.3871942 132.1867849  -4.6006000
  86.2239992 131.9909978  -5.3749986  85.7669992 132.5199978  -6.0289986
  86.3869992 132.5939978  -4.6499986  86.1834960 132.1449280  -5.3664726
  88.5519992 130.8689978  -4.4299986  87.6469992 131.0339978  -4.6959986
  88.9799992 131.7219978  -4.4959986  88.4861537 131.0069134  -4.4752905
  91.1559992 132.4389978  -4.1349986  90.9739992 133.3549978  -4.3459986
  91.3329992 132.0279978  -4.9819986  91.1550030 132.5088273  -4.2782834
  78.4609992 131.1259978  -6.6699986  78.4429992 130.6999978  -5.8129986
  79.2659992 130.8069978  -7.0789986  78.5672875 131.0246435  -6.6080485
  80.6019992 129.8359978  -8.0149986  80.3829992 128.9189978  -7.8449986
  81.4259992 129.9759978  -7.5489986  80.6834702 129.7295511  -7.9287473
  83.1389992 130.3059978  -7.1659986  83.3519992 129.4179978  -7.4529986
  83.2039992 130.2709978  -6.2119986  83.1769149 130.1798326  -7.0762631
  86.6479992 115.9699978  -8.0219986  85.9739992 115.3399978  -7.7659986
  87.2119992 115.4859978  -8.6249986  86.6320384 115.8183708  -8.0684980
  91.7909992 114.0769978  -7.9089986  92.3939992 114.6249978  -8.4109986
  90.9209992 114.3959978  -8.1499986  91.7559157 114.1950373  -8.0102090
  93.5179992 115.2159978  -9.5759986  94.1289992 114.7019978 -10.1029986
  93.8999992 116.0929978  -9.5529986  93.6533305 115.2642050  -9.6450582
  78.9749992 114.6039978 -10.1999986  78.1979992 114.3689978 -10.7069986
  79.5049992 113.8069978 -10.1909986  78.9403451 114.4641268 -10.2681373
  77.8109992 114.4019978 -14.3959986  78.2499992 115.0129978 -14.9879986
  77.1769992 114.9399978 -13.9219986  77.7853859 114.5584064 -14.4129695
  83.5539992 114.5299978 -10.3869986  84.4279992 114.9189978 -10.4159986
  83.4179992 114.3149978  -9.4639986  83.6551953 114.5541643 -10.2662383
  89.1109992 114.5599978  -8.7369986  89.1869992 114.6559978  -9.6869986
  88.8359992 113.6529978  -8.6089986  89.0841871 114.4504146  -8.8496056
  90.4639992 114.5859978 -13.0449986  89.7609992 115.2009978 -13.2549986
  90.0189992 113.7489978 -12.9139986  90.3076550 114.5569668 -13.0560163
  77.7119992 130.3499978 -13.4989986  77.0269992 130.3119978 -14.1659986
  77.7159992 131.2629978 -13.2109986  77.6187621 130.4681924 -13.5513874
  79.6719992 116.3179978 -15.9539986  80.1629992 115.6879978 -16.4809986
  80.2949992 116.6139978 -15.2909986  79.8235304 116.2717376 -15.9365060
  84.6979992 116.6109978 -13.4969986  84.8759992 115.9639978 -12.8139986
  84.6439992 117.4449978 -13.0299986  84.7150678 116.6351604 -13.3403699
  86.5759992 131.5589978 -15.1009986  87.4419992 131.9259978 -15.2789986
  86.3299992 131.1199978 -15.9149986  86.6612097 131.5498525 -15.2353981
  93.2849992 131.1219978 -12.4219986  93.0909992 130.3739978 -12.9869986
  93.2459992 131.8799978 -13.0049986  93.2531645 131.1220786 -12.5781852
  78.9319992 115.1179978  -0.6819986  78.5659992 114.3519978  -0.2399986
  79.8449992 115.1469978  -0.3959986  79.0053172 115.0170324  -0.5828110
  80.9049992 114.4679978   0.8530014  81.8039992 114.1939978   0.6690014
  80.5189992 113.7259978   1.3180014  80.9757307 114.3302196   0.8907098
  79.5299992 131.2699978 -16.4739986  79.2619992 131.5559978 -15.5999986
  80.3009992 130.7239978 -16.3209986  79.5975926 131.2352779 -16.3338795
  89.3269992 113.8009978   1.0360014  89.4029992 113.3749978   1.8890014
  90.2199992 113.8139978   0.6930014  89.4582303 113.7443493   1.1065497
  92.5029992 129.8739978  -0.2719986  91.7209992 129.6869978  -0.7919986
  92.4309992 130.8029978  -0.0549986  92.3861924 129.9740637  -0.3138398
 106.9089992 123.7599978 -10.2409986 106.9979992 124.7039978 -10.3729986
 106.2709992 123.4849978 -10.8989986 106.8349062 123.8519812 -10.3480359
 105.8419992 123.0149978  -6.8219986 105.8039992 122.3689978  -6.1169986
 105.5199992 122.5479978  -7.5929986 105.7932679 122.8634276  -6.8297079
  98.2099992 122.6289978  -5.2289986  98.2519992 122.0039978  -4.5059986
  98.9129992 123.2529978  -5.0469986  98.3107345 122.6277873  -5.1054726
 109.5479992 125.9539978  -8.5209986 109.1069992 125.2339978  -8.0699986
 109.5349992 126.6749978  -7.8909986 109.4859215 125.9529291  -8.3741895
  99.1339992 127.0789978  -6.6939986  98.7639992 126.2769978  -7.0639986
 100.0749992 126.9109978  -6.6479986  99.2105984 126.9464638  -6.7384397
  95.7439992 120.7389978 -11.3019986  95.2959992 121.5849978 -11.3199986
  95.1829992 120.1599978 -11.8169986  95.6068546 120.7763993 -11.3741109
  96.4539992 122.9009978  -9.1759986  96.6679992 122.1309978  -8.6479986
  97.1919992 122.9909978  -9.7789986  96.5830200 122.8078587  -9.1852965
 106.6599992 131.0579978  -8.3089986 107.2789992 130.3819978  -8.5819986
 106.4509992 130.8399978  -7.3999986 106.7166056 130.9358869  -8.2236033
 104.2309992 125.4469978  -6.4159986 104.5349992 124.7609978  -7.0109986
 104.9529992 125.5659978  -5.7979986 104.3701240 125.3692314  -6.4139041
 112.8939992 117.0489978  -5.5559986 112.9439992 117.6589978  -4.8199986
 113.3199992 117.5099978  -6.2789986 112.9584108 117.1947709  -5.5529888
 107.3719992 119.8409978  -6.0889986 107.5149992 118.8949978  -6.0689986
 107.2659992 120.0479978  -7.0169986 107.3772403 119.7394797  -6.2117761
 100.5269992 117.9429978  -8.8159986 100.5699992 118.8029978  -9.2349986
 100.0689992 117.3909978  -9.4499986 100.4709871 117.9859245  -8.9589239
 108.2489992 118.0739978 -10.4149986 108.8959992 117.7449978  -9.7909986
 108.7589992 118.5909978 -11.0379986 108.4064351 118.0989067 -10.4138963
  97.1469992 120.3399978  -8.0539986  97.8009992 119.7899978  -7.6219986
  97.1709992 120.0659978  -8.9709986  97.2397199 120.2277167  -8.1188332
 102.3039992 121.8899978  -8.8389986 102.9199992 121.3629978  -8.3299986
 101.7169992 121.2499978  -9.2429986 102.3090154 121.7313954  -8.8239055
 113.2859992 118.5269978  -3.3199986 112.5969992 119.1849978  -3.4149986
 113.3009992 118.3289978  -2.3829986 113.1937756 118.5902603  -3.2064188
  99.3369992 116.8609978  -4.7419986  99.1179992 117.3909978  -5.5089986
  98.6689992 117.0869978  -4.0949986  99.2166975 116.9640967  -4.7594860
 106.7059992 126.3609978 -11.1979986 106.4109992 126.0379978 -12.0499986
 106.3819992 127.2609978 -11.1569986 106.6218460 126.4384464 -11.3090286
 101.9059992 124.5359978  -4.4549986 101.1659992 125.1349978  -4.3509986
 102.6199992 125.0899978  -4.7699986 101.9013500 124.6927829  -4.4833629
 110.0129992 117.3649978  -8.4349986 109.7979992 116.5989978  -7.9019986
 110.6689992 117.8369978  -7.9219986 110.0722673 117.3240728  -8.2928010
  98.9309992 118.7529978  -6.7899986  99.5449992 119.3859978  -6.4169986
  99.4429992 118.2809978  -7.4459986  99.0841962 118.7757249  -6.8277065
 100.3139992 126.5009978  -3.6679986 100.3079992 127.3799978  -4.0459986
  99.4599992 126.4169978  -3.2429986 100.1977925 126.6099535  -3.6623113
  96.4349992 126.1719978 -12.8859986  96.1629992 126.4009978 -13.7739986
  96.4799992 127.0089978 -12.4249986  96.4038097 126.3166163 -12.9453317
 110.0599992 127.7929978  -6.1729986 109.1179992 127.8519978  -6.0109986
 110.3359992 128.6989978  -6.3099986 109.9685865 127.9235288  -6.1693808
 110.3599992 116.0799978  -4.7559986 109.6239992 116.6899978  -4.7929986
 111.0439992 116.4949978  -5.2819986 110.3515367 116.2197551  -4.8321826
 103.3639992 114.1659978  -7.2899986 103.2459992 113.2179978  -7.3439986
 102.5089992 114.4989978  -7.0169986 103.2322805 114.0812202  -7.2604921
 108.3119992 129.5739978  -9.5479986 108.7369992 128.8669978 -10.0329986
 108.6289992 130.3759978  -9.9649986 108.4130266 129.5855190  -9.6707521
 109.4719992 127.4749978 -11.0389986 109.2139992 126.7849978 -11.6509986
 109.5429992 127.0319978 -10.1939986 109.4463050 127.3206814 -11.0084379
 111.1579992 126.0419978  -2.5619986 111.2969992 125.4499978  -3.3009986
 111.3249992 126.9149978  -2.9179986 111.1996193 126.0788896  -2.7113789
 105.6299992 123.0039978 -12.7889986 104.9189992 123.5389978 -13.1409986
 106.3209992 123.0589978 -13.4489986 105.6260751 123.0846777 -12.9264142
 105.6839992 121.4609978 -15.7509986 106.3849992 121.4839978 -15.0989986
 105.9859992 120.8329978 -16.4069986 105.8208202 121.3792212 -15.7504391
 112.9989992 122.3819978  -4.4959986 112.3469992 123.0759978  -4.4069986
 113.4649992 122.5919978  -5.3059986 112.9725937 122.5055019  -4.5932467
 109.0359992 123.2129978 -11.8379986 108.3039992 123.4419978 -11.2639986
 109.4829992 122.4999978 -11.3829986 108.9963963 123.1478729 -11.6980055
 108.9329992 121.3879978  -2.7699986 109.0129992 122.1509978  -2.1979986
 108.3319992 121.6669978  -3.4599986 108.8626547 121.5302457  -2.7849953
 100.6809992 123.8439978  -9.9549986 100.3509992 123.4729978 -10.7729986
 101.2699992 123.1729978  -9.6079986 100.7153970 123.7026063 -10.0200596
 102.0479992 127.2719978  -7.2739986 101.9529992 126.6929978  -8.0299986
 102.7769992 126.9009978  -6.7779986 102.1336011 127.1425561  -7.3103972
 101.0479992 122.6119978  -6.3219986 101.6129992 122.7339978  -7.0839986
 101.3669992 123.2499978  -5.6829986 101.1684166 122.7148791  -6.3399652
 107.3569992 128.1159978  -5.5879986 107.1169992 128.7779978  -4.9399986
 107.1589992 127.2809978  -5.1629986 107.2973826 128.0938115  -5.4418434
 101.9279992 127.0119978  -1.6039986 101.6169992 127.7939978  -1.1489986
 101.2779992 126.8589978  -2.2899986 101.7975538 127.0984087  -1.6344102
 107.9069992 122.3759978 -14.1519986 108.4859992 122.5259978 -13.4059986
 108.3209992 122.8459978 -14.8759986 108.0423358 122.4600954 -14.1476047
  98.8479992 123.2099978  -2.3759986  98.9179992 123.8609978  -1.6769986
  97.9569992 123.3129978  -2.7109986  98.7371690 123.3129249  -2.3256957
 105.6329992 129.1119978 -10.7169986 106.1069992 129.4079978  -9.9399986
 105.0699992 129.8509978 -10.9499986 105.6217890 129.2523036 -10.6421899
 100.1669992 129.0829978  -0.8409986 100.1749992 128.9469978  -1.7879986
  99.2509992 128.9659978  -0.5889986 100.0442528 129.0485463  -0.9366757
 111.6059992 114.1259978 -14.3389986 110.7059992 114.2649978 -14.0439986
 111.8579992 114.9569978 -14.7409986 111.5168683 114.2574055 -14.3529768
  99.6719992 122.9129978 -12.3659986  99.3799992 123.6809978 -12.8569986
  98.9969992 122.2539978 -12.5289986  99.5408497 122.9289745 -12.4551740
 112.7949992 128.4919978 -15.9629986 112.8679992 129.4309978 -15.7929986
 113.6999992 128.1869978 -16.0189986 112.9274170 128.5793282 -15.9472937
  95.7649992 125.2759978  -3.5509986  95.2629992 125.2479978  -4.3659986
  95.7699992 124.3709978  -3.2409986  95.6969832 125.1497486  -3.6205879
  95.5149992 128.0569978  -6.6669986  96.4609992 127.9119978  -6.6859986
  95.4019992 128.8409978  -6.1299986  95.6293578 128.1431697  -6.5969683
 113.7129992 128.7229978  -0.9839986 113.6629992 127.7669978  -1.0219986
 112.8859992 128.9899978  -0.5829986 113.5943831 128.6284680  -0.9349879
 104.6909992 128.2969978  -2.1079986 104.7789992 129.1229978  -1.6329986
 103.8279992 127.9669978  -1.8589986 104.5863357 128.3655468  -2.0092347
 105.1059992 132.0689978 -12.3019986 105.0299992 131.9479978 -13.2489986
 105.1379992 133.0179978 -12.1839986 105.0999380 132.1807677 -12.4154819
  98.7589992 130.8579978 -10.5209986  98.9109992 130.5099978  -9.6429986
  97.9079992 130.5009978 -10.7769986  98.6648344 130.7620879 -10.4353132
 108.2069992 131.2229978 -15.2999986 108.5819992 130.4789978 -15.7709986
 108.2119992 130.9529978 -14.3819986 108.2590098 131.0846392 -15.2403371
 107.8759992 131.1489978 -12.5509986 106.9409992 131.2489978 -12.3719986
 108.1559992 130.4389978 -11.9719986 107.7859471 131.0667933 -12.4483305
 110.8649992 120.2159978  -0.5039986 110.4569992 120.6959978  -1.2249986
 110.9049992 119.3099978  -0.8119986 110.8146221 120.1592449  -0.6441733
  98.0139992 126.5999978  -2.5079986  98.2299992 126.2379978  -1.6479986
  97.1579992 126.2249978  -2.7169986  97.9278810 126.4998837  -2.4187320
 100.6319992 115.0699978  -6.5119986  99.7709992 114.9829978  -6.9199986
 100.6099992 115.9259978  -6.0839986 100.5110491 115.1738003  -6.5100418
 105.2949992 114.7919978  -3.1369986 105.7149992 114.3769978  -2.3839986
 104.3619992 114.6129978  -3.0199986 105.2263736 114.7109910  -3.0181032
 108.6219992 118.5469978  -2.2839986 108.1079992 118.4219978  -1.4859986
 108.4659992 119.4599978  -2.5279986 108.5306967 118.6532123  -2.2079063
 109.3839992 123.4079978 -16.5229986 109.4259992 123.1859978 -17.4529986
 110.2329992 123.8069978 -16.3329986 109.5045253 123.4315498 -16.6246178
 104.9569992 117.2839978 -15.8519986 104.7029992 117.3029978 -14.9299986
 104.6999992 116.4129978 -16.1539986 104.8874508 117.1688280 -15.7665197
 100.7229992 120.0349978  -5.4169986 100.0819992 119.9949978  -4.7079986
 100.7609992 120.9619978  -5.6549986 100.6403010 120.1547668  -5.3520054
 100.7199992 120.2559978 -10.5049986  99.8279992 119.9159978 -10.5639986
 101.1709992 119.8789978 -11.2609986 100.6587642 120.1584910 -10.6152274
 106.2559992 120.6719978 -11.6879986 105.8469992 121.4869978 -11.9799986
 106.9759992 120.5319978 -12.3019986 106.2974439 120.7645372 -11.8109885
 105.3579992 120.8479978  -0.1999986 104.7949992 120.1429978   0.1210014
 106.1839992 120.7269978   0.2680014 105.3926674 120.7352165  -0.0928249
 107.2609992 120.1179978  -8.8739986 107.0649992 120.7239978  -9.5889986
 107.4419992 119.2849978  -9.3079986 107.2586584 120.0882513  -9.0305788
  98.4729992 120.3559978  -3.5499986  98.4349992 120.7559978  -2.6809986
  97.9829992 119.5389978  -3.4599986  98.4015330 120.3002674  -3.4188711
 101.8389992 117.7299978 -16.7509986 101.4079992 117.2849978 -16.0219986
 101.1209992 118.1009978 -17.2639986 101.6829176 117.7192051 -16.7205070
  95.0819992 117.4719978  -9.6989986  95.7119992 117.4429978  -8.9799986
  95.5309992 117.0469978 -10.4299986  95.2290835 117.4105660  -9.6992341
  96.3559992 118.2179978 -14.2749986  96.8299992 118.8089978 -14.8599986
  95.6379992 118.7479978 -13.9279986  96.3238640 118.3705511 -14.3082031
 106.5249992 121.7559978  -4.2029986 106.8479992 121.1249978  -4.8459986
 106.0839992 121.2219978  -3.5419986 106.5096379 121.5973468  -4.2017418
 103.3019992 117.6839978  -9.4189986 102.3909992 117.7409978  -9.1299986
 103.8069992 117.6239978  -8.6079986 103.2456873 117.6836826  -9.2698793
  98.1299992 119.3129978 -10.5919986  97.2409992 119.4119978 -10.9319986
  98.4269992 118.4709978 -10.9379986  98.0484177 119.2127687 -10.6853060
 101.7829992 119.3129978 -12.9349986 102.7149992 119.4419978 -12.7569986
 101.5679992 119.9819978 -13.5849986 101.8814472 119.4210806 -12.9985109
 107.7069992 116.9189978  -6.1539986 107.0299992 117.0499978  -5.4909986
 107.2219992 116.7639978  -6.9649986 107.5487405 116.9159947  -6.1727830
 100.4569992 120.5069978 -15.3689986  99.9149992 120.1279978 -16.0599986
 101.2909992 120.7019978 -15.7969986 100.4954390 120.4814079 -15.5215608
 110.9949992 132.5899978   0.1220014 111.1939992 133.0139978  -0.7119986
 111.6499992 132.9339978   0.7290014 111.1108522 132.6946301   0.0897852
  98.5929992 125.0639978  -0.2699986  99.3249992 125.3189978   0.2920014
  97.8119992 125.2689978   0.2460014  98.5876526 125.1265450  -0.1234824
 104.6219992 120.4709978  -7.5319986 105.1859992 119.9249978  -8.0789986
 104.4739992 119.9499978  -6.7429986 104.6793037 120.3256787  -7.5002771
  99.6239992 116.6079978 -11.1129986  99.3069992 115.7049978 -11.1489986
 100.4049992 116.6099978 -11.6659986  99.6862431 116.4847797 -11.1926898
 103.2479992 118.8599978  -5.1179986 102.4129992 119.3139978  -5.0069986
 103.7719992 119.1359978  -4.3659986 103.2046072 118.9593948  -5.0011864
 103.7929992 125.0729978 -13.4329986 103.0479992 124.5649978 -13.7549986
 103.6579992 125.1219978 -12.4869986 103.6728963 125.0101731 -13.3491174
 110.9429992 124.2059978  -4.6459986 111.5839992 124.6619978  -5.1899986
 110.1119992 124.3189978  -5.1089986 110.9185287 124.2836921  -4.7830113
 107.6899992 117.8869978 -15.2339986 106.7519992 117.9979978 -15.3849986
 107.9879992 118.7429978 -14.9269986 107.6016318 118.0180158 -15.2131855
 105.3119992 125.2569978  -2.1959986 104.9659992 124.8749978  -1.3889986
 105.1119992 126.1899978  -2.1249986 105.2375987 125.3309002  -2.0759539
 108.4089992 119.7539978 -13.5729986 109.3009992 119.6159978 -13.2539986
 108.4649992 120.5449978 -14.1099986 108.5387325 119.8419918 -13.6018783
  98.9169992 124.3679978  -7.6629986  99.6619992 124.3649978  -8.2649986
  98.9949992 123.5439978  -7.1819986  99.0293365 124.2562384  -7.6802570
 105.9179992 126.5309978 -14.4079986 105.6229992 127.3579978 -14.0259986
 105.2149992 125.9119978 -14.2109986 105.7826379 126.5604171 -14.3291346
  95.9249992 122.8279978  -2.3479986  96.1479992 122.4099978  -1.5169986
  95.3229992 122.2159978  -2.7709986  95.8741513 122.6879606  -2.2913260
 102.9419992 122.3449978  -0.1349986 102.6459992 122.1799978  -1.0309986
 103.8729992 122.1249978  -0.1459986 103.0274401 122.2926879  -0.2589794
 107.5619992 127.7189978  -2.2459986 106.6619992 127.9019978  -2.5129986
 107.5959992 127.9779978  -1.3249986 107.4433748 127.7790554  -2.1580836
 113.2939992 119.9629978 -13.8779986 112.7389992 119.5669978 -14.5509986
 113.3939992 120.8739978 -14.1559986 113.2316816 120.0319505 -14.0074967
 113.2569992 125.7639978  -1.0409986 112.4059992 126.0019978  -1.4089986
 113.8469992 125.7469978  -1.7939986 113.2203812 125.7942524  -1.1931547
 111.5889992 128.7489978 -13.4129986 111.2159992 127.9239978 -13.1039986
 111.8659992 128.5659978 -14.3109986 111.5753463 128.6112569 -13.4920475
 108.7489992 123.5569978  -6.3919986 107.8209992 123.3259978  -6.4189986
 109.1999992 122.7799978  -6.7219986 108.6828165 123.4202774  -6.4403210
 101.2919992 127.8859978 -10.2589986 101.8199992 128.6589978 -10.4589986
 100.4119992 128.1099978 -10.5609986 101.2453435 128.0222700 -10.3272690
  97.0469992 122.7479978 -15.6719986  97.6629992 123.3749978 -15.2919986
  96.1849992 123.0639978 -15.3999986  97.0147678 122.8764412 -15.5832791
 102.7199992 125.5489978 -10.6829986 102.4789992 126.4739978 -10.6409986
 101.9789992 125.0899978 -10.2859986 102.5869206 125.6135915 -10.6236231
 103.2339992 129.6979978  -4.3679986 103.5969992 130.5519978  -4.6009986
 103.7659992 129.4059978  -3.6269986 103.3555141 129.7753895  -4.2997903
 101.4029992 130.5699978 -11.1369986 100.4529992 130.6759978 -11.0859986
 101.7549992 131.3909978 -10.7929986 101.3205472 130.6954923 -11.0835148
 106.7779992 125.7969978  -4.6669986 106.3529992 125.5689978  -3.8409986
 107.3589992 125.0579978  -4.8489986 106.7983395 125.6659545  -4.5785586
 108.9809992 126.7259978 -15.5929986 109.3349992 126.3459978 -14.7889986
 108.0329992 126.6319978 -15.5059986 108.9012298 126.6612452 -15.4711313
 109.4369992 130.3489978  -2.1979986 108.8349992 129.7929978  -2.6929986
 109.7179992 131.0159978  -2.8239986 109.3925757 130.3630744  -2.3504325
 113.4849992 131.2049978 -15.3919986 114.2289992 131.7909978 -15.5319986
 112.7909992 131.7739978 -15.0589986 113.4929809 131.3620818 -15.3661410
  97.5589992 117.5819978  -2.7899986  96.6669992 117.9199978  -2.8579986
  97.4609992 116.7259978  -2.3719986  97.4234475 117.5126543  -2.7428296
 109.8469992 125.3979978 -13.3659986 109.5699992 124.6699978 -12.8099986
 110.7749992 125.5169978 -13.1609986 109.9344499 125.3144213 -13.2621956
  97.2109992 129.3859978  -4.3549986  97.4279992 128.4539978  -4.3859986
  97.4569992 129.6609978  -3.4719986  97.2739809 129.2955686  -4.2398309
 102.0089992 127.4079978 -14.6899986 102.1559992 126.8879978 -13.8999986
 102.0059992 128.3149978 -14.3829986 102.0287102 127.4593953 -14.5404075
  98.4619992 124.6599978 -14.1789986  97.7759992 125.0129978 -13.6119986
  98.9849992 125.4229978 -14.4259986  98.4388402 124.8113901 -14.1348199
 106.2939992 117.3229978  -3.8999986 106.9929992 117.3969978  -3.2499986
 105.9129992 116.4579978  -3.7459986 106.3382097 117.2162389  -3.7902003
 107.0779992 116.9749978 -12.8029986 107.2979992 117.4459978 -13.6069986
 107.6369992 117.3689978 -12.1329986 107.1836731 117.0927287 -12.8224967
 104.7469992 129.1049978 -13.9399986 103.9299992 129.6019978 -13.8879986
 105.2759992 129.5809978 -14.5809986 104.7068125 129.2371989 -14.0194694
 104.2779992 118.7029978 -11.9679986 105.0899992 119.2069978 -11.9219986
 104.0339992 118.5579978 -11.0539986 104.3561467 118.7523749 -11.8381425
 104.8139992 119.6889978  -2.7839986 104.9329992 120.2629978  -2.0269986
 105.4689992 119.0009978  -2.6689986 104.9188684 119.6745194  -2.6648326
 105.1619992 115.7839978 -11.0299986 104.8149992 116.4009978 -10.3859986
 105.8209992 116.2849978 -11.5119986 105.2035090 115.9361575 -11.0069319
 102.0849992 130.1489978 -13.9589986 102.2459992 130.9489978 -14.4589986
 101.8879992 130.4559978 -13.0739986 102.0803906 130.2998678 -13.9077667
 100.8199992 116.8469978 -14.3429986 100.7359992 117.7349978 -13.9959986
 101.7099992 116.5819978 -14.1109986 100.9288163 116.9327179 -14.2641404
 111.0179992 117.5959978  -1.9489986 110.1019992 117.8579978  -2.0359986
 111.3539992 117.5929978  -2.8449986 110.9378499 117.6315163  -2.0821234
 109.6209992 121.3459978  -7.8529986 108.8229992 120.9309978  -8.1809986
 110.0659992 120.6559978  -7.3619986 109.5719684 121.1958628  -7.8314773
  99.0779992 127.2739978 -15.2829986  99.6699992 127.9739978 -15.0059986
  99.5369992 126.8409978 -16.0019986  99.2211652 127.3112675 -15.3423467
  97.3939992 119.9389978 -16.1669986  97.3489992 120.8779978 -15.9879986
  96.5059992 119.7029978 -16.4359986  97.2678166 120.0356687 -16.1788476
 110.7069992 130.6019978  -6.2309986 110.5509992 131.2809978  -6.8879986
 111.6399992 130.6739978  -6.0279986 110.8117387 130.7046390  -6.2934658
  98.2019992 114.7199978  -7.4929986  97.9729992 114.7789978  -8.4209986
  97.7599992 113.9289978  -7.1869986  98.1108801 114.6210540  -7.5785271
  97.1329992 128.6609978 -11.3329986  96.2999992 129.1329978 -11.3059986
  97.6779992 129.1709978 -11.9319986  97.0927857 128.7944791 -11.4102858
  96.4209992 131.2729978  -0.0029986  96.9609992 131.0569978   0.7570014
  95.9399992 130.4679978  -0.1929986  96.4299219 131.1345156   0.0754282
 101.0179992 130.1929978   1.6170014 101.7859992 129.7339978   1.9580014
 100.9969992 129.9669978   0.6870014 101.1202135 130.0996668   1.5379491
 105.1099992 129.7009978 -17.0069986 104.4659992 129.0699978 -16.6859986
 105.8719992 129.1699978 -17.2389986 105.1248058 129.5427902 -16.9943962
 107.5949992 128.5729978   0.3460014 107.2439992 127.7159978   0.5900014
 108.3209992 128.7149978   0.9530014 107.6451895 128.4751351   0.4613770
 109.7149992 129.5179978 -16.7739986 109.9979992 128.7229978 -16.3209986
 110.4539992 129.7509978 -17.3349986 109.8537096 129.4407049 -16.7878896
  96.3279992 125.0839978   0.9510014  96.4719992 124.1819978   0.6650014
  95.5559992 125.3699978   0.4640014  96.2432733 124.9991798   0.8459532
 100.6689992 125.4269978 -16.9159986 100.7339992 124.6329978 -16.3859986
 101.3219992 125.3089978 -17.6059986 100.7661605 125.3023430 -16.9367003
 102.9829992 125.0529978   0.3840014 102.6549992 125.3239978  -0.4729986
 103.1349992 124.1119978   0.2960014 102.9586412 124.9629046   0.2547822
 108.7179992 124.9689978  -2.2329986 109.4629992 125.5579978  -2.3519986
 107.9609992 125.5509978  -2.1689986 108.7175470 125.1282128  -2.2406201
  97.1609992 122.2839978   0.3710014  97.5689992 121.4269978   0.2500014
  96.8999992 122.2979978   1.2920014  97.1816016 122.1685119   0.4789192
 101.8189992 123.3999978 -14.6099986 101.3589992 122.9159978 -13.9249986
 102.0739992 122.7309978 -15.2459986 101.7904856 123.2433669 -14.6021603
 101.1079992 121.2929978  -2.2539986 100.4889992 121.9669978  -1.9739986
 101.4519992 121.6139978  -3.0879986 101.0697123 121.4286887  -2.3283612
 102.8899992 121.6429978 -16.3479986 102.7089992 121.4879978 -17.2749986
 103.8399992 121.7509978 -16.3029986 102.9936566 121.6363669 -16.4689071
 106.1269992 123.7639978   1.0230014 107.0809992 123.8479978   0.9960014
 105.9669992 123.0519978   1.6430014 106.2357182 123.6792842   1.1030733
 112.2799992 123.9969978 -16.9019986 112.0059992 123.5729978 -17.7149986
 112.3189992 124.9289978 -17.1189986 112.2477716 124.0648827 -17.0425714
 101.4469992 118.6479978  -1.1719986 101.5969992 117.9189978  -1.7739986
 101.4489992 119.4249978  -1.7309986 101.4677967 118.6532708  -1.3299459
 101.8599992 117.0169978  -3.6789986 102.3949992 117.4689978  -4.3309986
 101.0069992 116.9089978  -4.1019986 101.8180374 117.0642665  -3.8253290
 103.4409992 122.4569978  -3.4399986 104.1919992 122.3009978  -4.0129986
 103.1019992 123.3089978  -3.7149986 103.4979587 122.5508138  -3.5555922
 107.8569992 120.2719978   1.5890014 108.0489992 119.3409978   1.4770014
 108.7149992 120.6969978   1.5780014 107.9992182 120.2020070   1.5721862
 109.1739992 123.0609978  -0.3339986 108.8919992 123.7699978  -0.9119986
 110.1159992 122.9879978  -0.4849986 109.2627921 123.1482193  -0.4335775
  99.9259992 119.8459978   0.7390014  99.1579992 119.3129978   0.5290014
 100.6039992 119.5359978   0.1400014  99.9127235 119.7311754   0.6292413
 102.6649992 114.4739978  -3.2479986 102.5669992 115.4199978  -3.3529986
 101.9229992 114.1009978  -3.7239986 102.5512534 114.5531773  -3.3267400
 103.9289992 118.7949978   0.3160014 103.6939992 118.5759978   1.2170014
 103.1459992 118.5879978  -0.1939986 103.7909095 118.7369892   0.3705353
 106.6449992 117.9229978  -0.6089986 105.6969992 117.9549978  -0.4769986
 106.9569992 117.2969978   0.0450014 106.5575293 117.8427923  -0.5025852
 108.2789992 116.5569978   1.3960014 108.1819992 115.6049978   1.3910014
 107.9569992 116.8249978   2.2570014 108.2222468 116.4630884   1.5116210
  98.1059992 117.7659978   0.4440014  98.3179992 117.0599978  -0.1659986
  97.9949992 117.3289978   1.2880014  98.1200269 117.6101921   0.4745873
 102.8869992 113.7679978  -0.5769986 103.5989992 113.1279978  -0.5909986
 102.7859992 114.0339978  -1.4899986 102.9707387 113.7164330  -0.7024437
 103.2409992 115.4499978   1.4770014 103.1089992 114.9749978   0.6570014
 102.6409992 116.1949978   1.4220014 103.1419070 115.4855789   1.3573251
 102.7869992 132.3329978 -15.3469986 103.7199992 132.4909978 -15.2029986
 102.5229992 133.0089978 -15.9719986 102.8789911 132.4459373 -15.4117278
  96.3549992 126.9699978 -15.8639986  97.2689992 127.0489978 -15.5909986
  96.3629992 126.2829978 -16.5299986  96.4810655 126.8879205 -15.9167083
  95.0039992 132.3629978 -10.7869986  94.3569992 131.9009978 -11.3189986
  95.3589992 131.6909978 -10.2039986  94.9633741 132.2089774 -10.7810825
  95.8739992 130.4429978  -8.9819986  95.5399992 129.5629978  -8.8099986
  96.0969992 130.7889978  -8.1169986  95.8583721 130.3691938  -8.8415832
 113.4229992 131.2529978  -6.0009986 113.4009992 131.4379978  -5.0619986
 114.1129992 131.8209978  -6.3419986 113.5133439 131.3551887  -5.9185209
 112.9859992 130.8199978  -3.0799986 112.4989992 130.0849978  -3.4509986
 113.5349992 130.4259978  -2.4019986 112.9935247 130.6661057  -3.0391539
 111.4369992 126.6099978   1.5590014 110.5709992 126.5049978   1.9530014
 111.8129992 127.3679978   2.0050014 111.3693401 126.6981708   1.6732620
 112.7379992 124.8659978 -12.9269986 113.5879992 125.2869978 -12.7999986
 112.7429992 124.1259978 -12.3199986 112.8551143 124.8236094 -12.8275250
 113.1319992 122.9199978 -11.1039986 112.4059992 122.4399978 -10.7059986
 113.7139992 123.1249978 -10.3709986 113.1112730 122.8820184 -10.9505851
 112.8909992 125.7049978  -6.1559986 113.7249992 125.3269978  -6.4369986
 113.0029992 126.6479978  -6.2749986 113.0201917 125.7807943  -6.2105139
 111.3779992 128.5829978  -3.8489986 110.7299992 128.9079978  -3.2239986
 110.8599992 128.1419978  -4.5229986 111.2194196 128.5678651  -3.8545848
 113.4009992 122.8209978 -14.7129986 112.8789992 123.1769978 -15.4309986
 113.3679992 123.4959978 -14.0339986 113.3250129 122.9609598 -14.7196645
 111.7499992 120.0599978 -16.1619986 111.8459992 120.7269978 -16.8419986
 111.6099992 119.2449978 -16.6429986 111.7442040 120.0410671 -16.3201622
 110.9189992 121.4409978 -10.5409986 110.7689992 120.4959978 -10.5609986
 110.5649992 121.7219978  -9.6969986 110.8506351 121.3496644 -10.4296780
  95.9539992 123.5189978  -6.5299986  96.1389992 123.4369978  -7.4659986
  96.8039992 123.3949978  -6.1069986  96.0940928 123.4910463  -6.6007107
 111.7749992 123.4109978  -0.9019986 112.3579992 122.6759978  -0.7099986
 112.3389992 124.1829978  -0.8549986 111.9309781 123.4148145  -0.8693836
 113.2719992 121.3139978  -0.2169986 112.4089992 120.9349978  -0.3829986
 113.8759992 120.5749978  -0.2919986 113.2356085 121.1623223  -0.2498305
 110.9969992 117.4679978 -17.0439986 111.6079992 117.0969978 -16.4069986
 110.1599992 117.0469978 -16.8479986 110.9674947 117.3602756 -16.9302748
 110.6299992 119.0229978 -12.0779986 110.9089992 118.1159978 -11.9539986
 111.3889992 119.4569978 -12.4669986 110.7708619 118.9574502 -12.1136205
 111.2409992 119.6049978  -6.6419986 112.1739992 119.8169978  -6.6769986
 111.0059992 119.7059978  -5.7199986 111.3369517 119.6476833  -6.5220870
 111.2709992 120.3419978  -3.8659986 110.4279992 120.6099978  -3.4999986
 111.7129992 121.1639978  -4.0769986 111.2154138 120.4898273  -3.8444482
  95.5519992 118.7889978  -0.3899986  96.4709992 118.6669978  -0.1529986
  95.1019992 118.0389978   0.0000014  95.6170087 118.6709608  -0.3048590
 113.5539992 114.3219978   1.4870014 113.9029992 113.6679978   0.8820014
 113.7009992 115.1589978   1.0470014 113.6216824 114.3456024   1.3446304
 111.2429992 116.2859978 -12.0299986 111.4249992 115.8369978 -11.2049986
 110.6429992 115.7019978 -12.4939986 111.1868187 116.1455552 -11.9797261
  96.7729992 117.1019978  -7.4979986  97.2179992 116.3099978  -7.1959986
  97.2389992 117.8179978  -7.0679986  96.8969718 117.0904534  -7.3984735
  95.0769992 120.1009978  -6.4289986  95.5689992 119.8799978  -7.2199986
  95.4389992 120.9409978  -6.1479986  95.1932923 120.1843468  -6.4992593
 113.0729992 116.4309978  -0.1639986 112.1559992 116.7019978  -0.1989986
 113.1959992 115.8959978  -0.9479986 112.9639672 116.3957885  -0.2748138
 113.1099992 116.3539978 -15.5019986 113.5219992 115.6329978 -15.9769986
 113.7909992 117.0229978 -15.4439986 113.2585536 116.3457766 -15.5591976
  95.3909992 116.3589978 -12.3749986  94.4659992 116.5669978 -12.5039986
  95.8449992 116.8429978 -13.0649986  95.3256298 116.4529299 -12.4859549
 110.1609992 131.3429978 -10.4289986 110.8139992 130.9949978 -11.0369986
 110.6719992 131.8309978  -9.7829986 110.3192777 131.3613815 -10.4247953
  95.3539992 115.0969978  -4.0309986  94.6889992 114.8509978  -3.3879986
  94.9109992 115.7189978  -4.6079986  95.2031168 115.1474214  -4.0210152
  97.5459992 128.2719978   0.1140014  96.7249992 128.4469978  -0.3469986
  97.2939992 128.1989978   1.0340014  97.3995594 128.2860717   0.1753611
 100.4999992 129.2459978  -3.6279986 100.0759992 130.0559978  -3.9099986
 101.4049992 129.3319978  -3.9299986 100.5642138 129.3684160  -3.7073585
 104.8119992 130.6449978  -0.6679986 104.9959992 130.3119978   0.2100014
 105.6579992 130.9549978  -0.9899986 104.9516484 130.6412979  -0.5912383
 107.1569992 131.9309978  -1.4239986 107.8339992 131.2979978  -1.6639986
 107.4779992 132.3319978  -0.6169986 107.2931323 131.8985691  -1.3476842
 112.0739992 114.5209978  -2.3449986 111.2609992 114.8459978  -2.7319986
 112.3069992 113.7599978  -2.8779986 111.9941347 114.4626880  -2.4700159
  97.9019992 132.5029978  -3.5799986  97.1819992 132.9429978  -4.0309986
  97.5369992 132.2519978  -2.7319986  97.7539643 132.5293369  -3.5270871
 100.3689992 132.1029978  -4.5499986  99.5049992 132.1749978  -4.1459986
 100.3139992 132.6499978  -5.3339986 100.2431942 132.1867849  -4.6006000
 105.0799992 131.9909978  -5.3749986 104.6229992 132.5199978  -6.0289986
 105.2429992 132.5939978  -4.6499986 105.0394960 132.1449280  -5.3664726
 107.4079992 130.8689978  -4.4299986 106.5029992 131.0339978  -4.6959986
 107.8359992 131.7219978  -4.4959986 107.3421537 131.0069134  -4.4752905
 110.0119992 132.4389978  -4.1349986 109.8299992 133.3549978  -4.3459986
 110.1889992 132.0279978  -4.9819986 110.0110030 132.5088273  -4.2782834
  97.3169992 131.1259978  -6.6699986  97.2989992 130.6999978  -5.8129986
  98.1219992 130.8069978  -7.0789986  97.4232875 131.0246435  -6.6080485
  99.4579992 129.8359978  -8.0149986  99.2389992 128.9189978  -7.8449986
 100.2819992 129.9759978  -7.5489986  99.5394702 129.7295511  -7.9287473
 101.9949992 130.3059978  -7.1659986 102.2079992 129.4179978  -7.4529986
 102.0599992 130.2709978  -6.2119986 102.0329149 130.1798326  -7.0762631
 105.5039992 115.9699978  -8.0219986 104.8299992 115.3399978  -7.7659986
 106.0679992 115.4859978  -8.6249986 105.4880384 115.8183708  -8.0684980
 110.6469992 114.0769978  -7.9089986 111.2499992 114.6249978  -8.4109986
 109.7769992 114.3959978  -8.1499986 110.6119157 114.1950373  -8.0102090
 112.3739992 115.2159978  -9.5759986 112.9849992 114.7019978 -10.1029986
 112.7559992 116.0929978  -9.5529986 112.5093305 115.2642050  -9.6450582
  97.8309992 114.6039978 -10.1999986  97.0539992 114.3689978 -10.7069986
  98.3609992 113.8069978 -10.1909986  97.7963451 114.4641268 -10.2681373
  96.6669992 114.4019978 -14.3959986  97.1059992 115.0129978 -14.9879986
  96.0329992 114.9399978 -13.9219986  96.6413859 114.5584064 -14.4129695
 102.4099992 114.5299978 -10.3869986 103.2839992 114.9189978 -10.4159986
 102.2739992 114.3149978  -9.4639986 102.5111953 114.5541643 -10.2662383
 107.9669992 114.5599978  -8.7369986 108.0429992 114.6559978  -9.6869986
 107.6919992 113.6529978  -8.6089986 107.9401871 114.4504146  -8.8496056
 109.3199992 114.5859978 -13.0449986 108.6169992 115.2009978 -13.2549986
 108.8749992 113.7489978 -12.9139986 109.1636550 114.5569668 -13.0560163
  96.5679992 130.3499978 -13.4989986  95.8829992 130.3119978 -14.1659986
  96.5719992 131.2629978 -13.2109986  96.4747621 130.4681924 -13.5513874
  98.5279992 116.3179978 -15.9539986  99.0189992 115.6879978 -16.4809986
  99.1509992 116.6139978 -15.2909986  98.6795304 116.2717376 -15.9365060
 103.5539992 116.6109978 -13.4969986 103.7319992 115.9639978 -12.8139986
 103.4999992 117.4449978 -13.0299986 103.5710678 116.6351604 -13.3403699
 105.4319992 131.5589978 -15.1009986 106.2979992 131.9259978 -15.2789986
 105.1859992 131.1199978 -15.9149986 105.5172097 131.5498525 -15.2353981
 112.1409992 131.1219978 -12.4219986 111.9469992 130.3739978 -12.9869986
 112.1019992 131.8799978 -13.0049986 112.1091645 131.1220786 -12.5781852
  97.7879992 115.1179978  -0.6819986  97.4219992 114.3519978  -0.2399986
  98.7009992 115.1469978  -0.3959986  97.8613172 115.0170324  -0.5828110
  99.7609992 114.4679978   0.8530014 100.6599992 114.1939978   0.6690014
  99.3749992 113.7259978   1.3180014  99.8317307 114.3302196   0.8907098
  98.3859992 131.2699978 -16.4739986  98.1179992 131.5559978 -15.5999986
  99.1569992 130.7239978 -16.3209986  98.4535926 131.2352779 -16.3338795
 108.1829992 113.8009978   1.0360014 108.2589992 113.3749978   1.8890014
 109.0759992 113.8139978   0.6930014 108.3142303 113.7443493   1.1065497
 111.3589992 129.8739978  -0.2719986 110.5769992 129.6869978  -0.7919986
 111.2869992 130.8029978  -0.0549986 111.2421924 129.9740637  -0.3138398
 125.7649992 123.7599978 -10.2409986 125.8539992 124.7039978 -10.3729986
 125.1269992 123.4849978 -10.8989986 125.6909062 123.8519812 -10.3480359
 124.6979992 123.0149978  -6.8219986 124.6599992 122.3689978  -6.1169986
 124.3759992 122.5479978  -7.5929986 124.6492679 122.8634276  -6.8297079
 117.0659992 122.6289978  -5.2289986 117.1079992 122.0039978  -4.5059986
 117.7689992 123.2529978  -5.0469986 117.1667345 122.6277873  -5.1054726
 128.4039992 125.9539978  -8.5209986 127.9629992 125.2339978  -8.0699986
 128.3909992 126.6749978  -7.8909986 128.3419215 125.9529291  -8.3741895
 117.9899992 127.0789978  -6.6939986 117.6199992 126.2769978  -7.0639986
 118.9309992 126.9109978  -6.6479986 118.0665984 126.9464638  -6.7384397
 114.5999992 120.7389978 -11.3019986 114.1519992 121.5849978 -11.3199986
 114.0389992 120.1599978 -11.8169986 114.4628546 120.7763993 -11.3741109
 115.3099992 122.9009978  -9.1759986 115.5239992 122.1309978  -8.6479986
 116.0479992 122.9909978  -9.7789986 115.4390200 122.8078587  -9.1852965
 125.5159992 131.0579978  -8.3089986 126.1349992 130.3819978  -8.5819986
 125.3069992 130.8399978  -7.3999986 125.5726056 130.9358869  -8.2236033
 123.0869992 125.4469978  -6.4159986 123.3909992 124.7609978  -7.0109986
 123.8089992 125.5659978  -5.7979986 123.2261240 125.3692314  -6.4139041
 131.7499992 117.0489978  -5.5559986 131.7999992 117.6589978  -4.8199986
 132.1759992 117.5099978  -6.2789986 131.8144108 117.1947709  -5.5529888
 126.2279992 119.8409978  -6.0889986 126.3709992 118.8949978  -6.0689986
 126.1219992 120.0479978  -7.0169986 126.2332403 119.7394797  -6.2117761
 119.3829992 117.9429978  -8.8159986 119.4259992 118.8029978  -9.2349986
 118.9249992 117.3909978  -9.4499986 119.3269871 117.9859245  -8.9589239
 127.1049992 118.0739978 -10.4149986 127.7519992 117.7449978  -9.7909986
 127.6149992 118.5909978 -11.0379986 127.2624351 118.0989067 -10.4138963
 116.0029992 120.3399978  -8.0539986 116.6569992 119.7899978  -7.6219986
 116.0269992 120.0659978  -8.9709986 116.0957199 120.2277167  -8.1188332
 121.1599992 121.8899978  -8.8389986 121.7759992 121.3629978  -8.3299986
 120.5729992 121.2499978  -9.2429986 121.1650154 121.7313954  -8.8239055
 132.1419992 118.5269978  -3.3199986 131.4529992 119.1849978  -3.4149986
 132.1569992 118.3289978  -2.3829986 132.0497756 118.5902603  -3.2064188
 118.1929992 116.8609978  -4.7419986 117.9739992 117.3909978  -5.5089986
 117.5249992 117.0869978  -4.0949986 118.0726975 116.9640967  -4.7594860
 125.5619992 126.3609978 -11.1979986 125.2669992 126.0379978 -12.0499986
 125.2379992 127.2609978 -11.1569986 125.4778460 126.4384464 -11.3090286
 120.7619992 124.5359978  -4.4549986 120.0219992 125.1349978  -4.3509986
 121.4759992 125.0899978  -4.7699986 120.7573500 124.6927829  -4.4833629
 128.8689992 117.3649978  -8.4349986 128.6539992 116.5989978  -7.9019986
 129.5249992 117.8369978  -7.9219986 128.9282673 117.3240728  -8.2928010
 117.7869992 118.7529978  -6.7899986 118.4009992 119.3859978  -6.4169986
 118.2989992 118.2809978  -7.4459986 117.9401962 118.7757249  -6.8277065
 119.1699992 126.5009978  -3.6679986 119.1639992 127.3799978  -4.0459986
 118.3159992 126.4169978  -3.2429986 119.0537925 126.6099535  -3.6623113
 115.2909992 126.1719978 -12.8859986 115.0189992 126.4009978 -13.7739986
 115.3359992 127.0089978 -12.4249986 115.2598097 126.3166163 -12.9453317
 128.9159992 127.7929978  -6.1729986 127.9739992 127.8519978  -6.0109986
 129.1919992 128.6989978  -6.3099986 128.8245865 127.9235288  -6.1693808
 129.2159992 116.0799978  -4.7559986 128.4799992 116.6899978  -4.7929986
 129.8999992 116.4949978  -5.2819986 129.2075367 116.2197551  -4.8321826
 122.2199992 114.1659978  -7.2899986 122.1019992 113.2179978  -7.3439986
 121.3649992 114.4989978  -7.0169986 122.0882805 114.0812202  -7.2604921
 127.1679992 129.5739978  -9.5479986 127.5929992 128.8669978 -10.0329986
 127.4849992 130.3759978  -9.9649986 127.2690266 129.5855190  -9.6707521
 128.3279992 127.4749978 -11.0389986 128.0699992 126.7849978 -11.6509986
 128.3989992 127.0319978 -10.1939986 128.3023050 127.3206814 -11.0084379
 130.0139992 126.0419978  -2.5619986 130.1529992 125.4499978  -3.3009986
 130.1809992 126.9149978  -2.9179986 130.0556193 126.0788896  -2.7113789
 124.4859992 123.0039978 -12.7889986 123.7749992 123.5389978 -13.1409986
 125.1769992 123.0589978 -13.4489986 124.4820751 123.0846777 -12.9264142
 124.5399992 121.4609978 -15.7509986 125.2409992 121.4839978 -15.0989986
 124.8419992 120.8329978 -16.4069986 124.6768202 121.3792212 -15.7504391
 131.8549992 122.3819978  -4.4959986 131.2029992 123.0759978  -4.4069986
 132.3209992 122.5919978  -5.3059986 131.8285937 122.5055019  -4.5932467
 127.8919992 123.2129978 -11.8379986 127.1599992 123.4419978 -11.2639986
 128.3389992 122.4999978 -11.3829986 127.8523963 123.1478729 -11.6980055
 127.7889992 121.3879978  -2.7699986 127.8689992 122.1509978  -2.1979986
 127.1879992 121.6669978  -3.4599986 127.7186547 121.5302457  -2.7849953
 119.5369992 123.8439978  -9.9549986 119.2069992 123.4729978 -10.7729986
 120.1259992 123.1729978  -9.6079986 119.5713970 123.7026063 -10.0200596
 120.9039992 127.2719978  -7.2739986 120.8089992 126.6929978  -8.0299986
 121.6329992 126.9009978  -6.7779986 120.9896011 127.1425561  -7.3103972
 119.9039992 122.6119978  -6.3219986 120.4689992 122.7339978  -7.0839986
 120.2229992 123.2499978  -5.6829986 120.0244166 122.7148791  -6.3399652
 126.2129992 128.1159978  -5.5879986 125.9729992 128.7779978  -4.9399986
 126.0149992 127.2809978  -5.1629986 126.1533826 128.0938115  -5.4418434
 120.7839992 127.0119978  -1.6039986 120.4729992 127.7939978  -1.1489986
 120.1339992 126.8589978  -2.2899986 120.6535538 127.0984087  -1.6344102
 126.7629992 122.3759978 -14.1519986 127.3419992 122.5259978 -13.4059986
 127.1769992 122.8459978 -14.8759986 126.8983358 122.4600954 -14.1476047
 117.7039992 123.2099978  -2.3759986 117.7739992 123.8609978  -1.6769986
 116.8129992 123.3129978  -2.7109986 117.5931690 123.3129249  -2.3256957
 124.4889992 129.1119978 -10.7169986 124.9629992 129.4079978  -9.9399986
 123.9259992 129.8509978 -10.9499986 124.4777890 129.2523036 -10.6421899
 119.0229992 129.0829978  -0.8409986 119.0309992 128.9469978  -1.7879986
 118.1069992 128.9659978  -0.5889986 118.9002528 129.0485463  -0.9366757
 130.4619992 114.1259978 -14.3389986 129.5619992 114.2649978 -14.0439986
 130.7139992 114.9569978 -14.7409986 130.3728683 114.2574055 -14.3529768
 118.5279992 122.9129978 -12.3659986 118.2359992 123.6809978 -12.8569986
 117.8529992 122.2539978 -12.5289986 118.3968497 122.9289745 -12.4551740
 131.6509992 128.4919978 -15.9629986 131.7239992 129.4309978 -15.7929986
 132.5559992 128.1869978 -16.0189986 131.7834170 128.5793282 -15.9472937
 114.6209992 125.2759978  -3.5509986 114.1189992 125.2479978  -4.3659986
 114.6259992 124.3709978  -3.2409986 114.5529832 125.1497486  -3.6205879
 114.3709992 128.0569978  -6.6669986 115.3169992 127.9119978  -6.6859986
 114.2579992 128.8409978  -6.1299986 114.4853578 128.1431697  -6.5969683
 132.5689992 128.7229978  -0.9839986 132.5189992 127.7669978  -1.0219986
 131.7419992 128.9899978  -0.5829986 132.4503831 128.6284680  -0.9349879
 123.5469992 128.2969978  -2.1079986 123.6349992 129.1229978  -1.6329986
 122.6839992 127.9669978  -1.8589986 123.4423357 128.3655468  -2.0092347
 123.9619992 132.0689978 -12.3019986 123.8859992 131.9479978 -13.2489986
 123.9939992 133.0179978 -12.1839986 123.9559380 132.1807677 -12.4154819
 117.6149992 130.8579978 -10.5209986 117.7669992 130.5099978  -9.6429986
 116.7639992 130.5009978 -10.7769986 117.5208344 130.7620879 -10.4353132
 127.0629992 131.2229978 -15.2999986 127.4379992 130.4789978 -15.7709986
 127.0679992 130.9529978 -14.3819986 127.1150098 131.0846392 -15.2403371
 126.7319992 131.1489978 -12.5509986 125.7969992 131.2489978 -12.3719986
 127.0119992 130.4389978 -11.9719986 126.6419471 131.0667933 -12.4483305
 129.7209992 120.2159978  -0.5039986 129.3129992 120.6959978  -1.2249986
 129.7609992 119.3099978  -0.8119986 129.6706221 120.1592449  -0.6441733
 116.8699992 126.5999978  -2.5079986 117.0859992 126.2379978  -1.6479986
 116.0139992 126.2249978  -2.7169986 116.7838810 126.4998837  -2.4187320
 119.4879992 115.0699978  -6.5119986 118.6269992 114.9829978  -6.9199986
 119.4659992 115.9259978  -6.0839986 119.3670491 115.1738003  -6.5100418
 124.1509992 114.7919978  -3.1369986 124.5709992 114.3769978  -2.3839986
 123.2179992 114.6129978  -3.0199986 124.0823736 114.7109910  -3.0181032
 127.4779992 118.5469978  -2.2839986 126.9639992 118.4219978  -1.4859986
 127.3219992 119.4599978  -2.5279986 127.3866967 118.6532123  -2.2079063
 128.2399992 123.4079978 -16.5229986 128.2819992 123.1859978 -17.4529986
 129.0889992 123.8069978 -16.3329986 128.3605253 123.4315498 -16.6246178
 123.8129992 117.2839978 -15.8519986 123.5589992 117.3029978 -14.9299986
 123.5559992 116.4129978 -16.1539986 123.7434508 117.1688280 -15.7665197
 119.5789992 120.0349978  -5.4169986 118.9379992 119.9949978  -4.7079986
 119.6169992 120.9619978  -5.6549986 119.4963010 120.1547668  -5.3520054
 119.5759992 120.2559978 -10.5049986 118.6839992 119.9159978 -10.5639986
 120.0269992 119.8789978 -11.2609986 119.5147642 120.1584910 -10.6152274
 125.1119992 120.6719978 -11.6879986 124.7029992 121.4869978 -11.9799986
 125.8319992 120.5319978 -12.3019986 125.1534439 120.7645372 -11.8109885
 124.2139992 120.8479978  -0.1999986 123.6509992 120.1429978   0.1210014
 125.0399992 120.7269978   0.2680014 124.2486674 120.7352165  -0.0928249
 126.1169992 120.1179978  -8.8739986 125.9209992 120.7239978  -9.5889986
 126.2979992 119.2849978  -9.3079986 126.1146584 120.0882513  -9.0305788
 117.3289992 120.3559978  -3.5499986 117.2909992 120.7559978  -2.6809986
 116.8389992 119.5389978  -3.4599986 117.2575330 120.3002674  -3.4188711
 120.6949992 117.7299978 -16.7509986 120.2639992 117.2849978 -16.0219986
 119.9769992 118.1009978 -17.2639986 120.5389176 117.7192052 -16.7205070
 113.9379992 117.4719978  -9.6989986 114.5679992 117.4429978  -8.9799986
 114.3869992 117.0469978 -10.4299986 114.0850835 117.4105660  -9.6992341
 115.2119992 118.2179978 -14.2749986 115.6859992 118.8089978 -14.8599986
 114.4939992 118.7479978 -13.9279986 115.1798640 118.3705511 -14.3082031
 125.3809992 121.7559978  -4.2029986 125.7039992 121.1249978  -4.8459986
 124.9399992 121.2219978  -3.5419986 125.3656379 121.5973468  -4.2017418
 122.1579992 117.6839978  -9.4189986 121.2469992 117.7409978  -9.1299986
 122.6629992 117.6239978  -8.6079986 122.1016873 117.6836826  -9.2698793
 116.9859992 119.3129978 -10.5919986 116.0969992 119.4119978 -10.9319986
 117.2829992 118.4709978 -10.9379986 116.9044177 119.2127687 -10.6853060
 120.6389992 119.3129978 -12.9349986 121.5709992 119.4419978 -12.7569986
 120.4239992 119.9819978 -13.5849986 120.7374472 119.4210806 -12.9985109
 126.5629992 116.9189978  -6.1539986 125.8859992 117.0499978  -5.4909986
 126.0779992 116.7639978  -6.9649986 126.4047405 116.9159947  -6.1727830
 119.3129992 120.5069978 -15.3689986 118.7709992 120.1279978 -16.0599986
 120.1469992 120.7019978 -15.7969986 119.3514390 120.4814079 -15.5215608
 129.8509992 132.5899978   0.1220014 130.0499992 133.0139978  -0.7119986
 130.5059992 132.9339978   0.7290014 129.9668522 132.6946301   0.0897852
 117.4489992 125.0639978  -0.2699986 118.1809992 125.3189978   0.2920014
 116.6679992 125.2689978   0.2460014 117.4436526 125.1265450  -0.1234824
 123.4779992 120.4709978  -7.5319986 124.0419992 119.9249978  -8.0789986
 123.3299992 119.9499978  -6.7429986 123.5353037 120.3256787  -7.5002771
 118.4799992 116.6079978 -11.1129986 118.1629992 115.7049978 -11.1489986
 119.2609992 116.6099978 -11.6659986 118.5422431 116.4847797 -11.1926898
 122.1039992 118.8599978  -5.1179986 121.2689992 119.3139978  -5.0069986
 122.6279992 119.1359978  -4.3659986 122.0606072 118.9593948  -5.0011864
 122.6489992 125.0729978 -13.4329986 121.9039992 124.5649978 -13.7549986
 122.5139992 125.1219978 -12.4869986 122.5288963 125.0101731 -13.3491174
 129.7989992 124.2059978  -4.6459986 130.4399992 124.6619978  -5.1899986
 128.9679992 124.3189978  -5.1089986 129.7745287 124.2836921  -4.7830113
 126.5459992 117.8869978 -15.2339986 125.6079992 117.9979978 -15.3849986
 126.8439992 118.7429978 -14.9269986 126.4576318 118.0180158 -15.2131855
 124.1679992 125.2569978  -2.1959986 123.8219992 124.8749978  -1.3889986
 123.9679992 126.1899978  -2.1249986 124.0935987 125.3309002  -2.0759539
 127.2649992 119.7539978 -13.5729986 128.1569992 119.6159978 -13.2539986
 127.3209992 120.5449978 -14.1099986 127.3947325 119.8419918 -13.6018783
 117.7729992 124.3679978  -7.6629986 118.5179992 124.3649978  -8.2649986
 117.8509992 123.5439978  -7.1819986 117.8853366 124.2562384  -7.6802570
 124.7739992 126.5309978 -14.4079986 124.4789992 127.3579978 -14.0259986
 124.0709992 125.9119978 -14.2109986 124.6386379 126.5604171 -14.3291346
 114.7809992 122.8279978  -2.3479986 115.0039992 122.4099978  -1.5169986
 114.1789992 122.2159978  -2.7709986 114.7301513 122.6879606  -2.2913260
 121.7979992 122.3449978  -0.1349986 121.5019992 122.1799978  -1.0309986
 122.7289992 122.1249978  -0.1459986 121.8834401 122.2926879  -0.2589794
 126.4179992 127.7189978  -2.2459986 125.5179992 127.9019978  -2.5129986
 126.4519992 127.9779978  -1.3249986 126.2993748 127.7790554  -2.1580836
 132.1499992 119.9629978 -13.8779986 131.5949992 119.5669978 -14.5509986
 132.2499992 120.8739978 -14.1559986 132.0876816 120.0319505 -14.0074967
 132.1129992 125.7639978  -1.0409986 131.2619992 126.0019978  -1.4089986
 132.7029992 125.7469978  -1.7939986 132.0763812 125.7942524  -1.1931547
 130.4449992 128.7489978 -13.4129986 130.0719992 127.9239978 -13.1039986
 130.7219992 128.5659978 -14.3109986 130.4313463 128.6112569 -13.4920475
 127.6049992 123.5569978  -6.3919986 126.6769992 123.3259978  -6.4189986
 128.0559992 122.7799978  -6.7219986 127.5388165 123.4202774  -6.4403210
 120.1479992 127.8859978 -10.2589986 120.6759992 128.6589978 -10.4589986
 119.2679992 128.1099978 -10.5609986 120.1013435 128.0222700 -10.3272690
 115.9029992 122.7479978 -15.6719986 116.5189992 123.3749978 -15.2919986
 115.0409992 123.0639978 -15.3999986 115.8707678 122.8764412 -15.5832791
 121.5759992 125.5489978 -10.6829986 121.3349992 126.4739978 -10.6409986
 120.8349992 125.0899978 -10.2859986 121.4429206 125.6135915 -10.6236231
 122.0899992 129.6979978  -4.3679986 122.4529992 130.5519978  -4.6009986
 122.6219992 129.4059978  -3.6269986 122.2115141 129.7753895  -4.2997903
 120.2589992 130.5699978 -11.1369986 119.3089992 130.6759978 -11.0859986
 120.6109992 131.3909978 -10.7929986 120.1765472 130.6954923 -11.0835148
 125.6339992 125.7969978  -4.6669986 125.2089992 125.5689978  -3.8409986
 126.2149992 125.0579978  -4.8489986 125.6543395 125.6659545  -4.5785586
 127.8369992 126.7259978 -15.5929986 128.1909992 126.3459978 -14.7889986
 126.8889992 126.6319978 -15.5059986 127.7572298 126.6612452 -15.4711313
 128.2929992 130.3489978  -2.1979986 127.6909992 129.7929978  -2.6929986
 128.5739992 131.0159978  -2.8239986 128.2485757 130.3630744  -2.3504325
 132.3409992 131.2049978 -15.3919986 133.0849992 131.7909978 -15.5319986
 131.6469992 131.7739978 -15.0589986 132.3489809 131.3620818 -15.3661410
 116.4149992 117.5819978  -2.7899986 115.5229992 117.9199978  -2.8579986
 116.3169992 116.7259978  -2.3719986 116.2794475 117.5126543  -2.7428296
 128.7029992 125.3979978 -13.3659986 128.4259992 124.6699978 -12.8099986
 129.6309992 125.5169978 -13.1609986 128.7904499 125.3144213 -13.2621956
 116.0669992 129.3859978  -4.3549986 116.2839992 128.4539978  -4.3859986
 116.3129992 129.6609978  -3.4719986 116.1299809 129.2955686  -4.2398309
 120.8649992 127.4079978 -14.6899986 121.0119992 126.8879978 -13.8999986
 120.8619992 128.3149978 -14.3829986 120.8847102 127.4593953 -14.5404075
 117.3179992 124.6599978 -14.1789986 116.6319992 125.0129978 -13.6119986
 117.8409992 125.4229978 -14.4259986 117.2948402 124.8113901 -14.1348199
 125.1499992 117.3229978  -3.8999986 125.8489992 117.3969978  -3.2499986
 124.7689992 116.4579978  -3.7459986 125.1942097 117.2162389  -3.7902003
 125.9339992 116.9749978 -12.8029986 126.1539992 117.4459978 -13.6069986
 126.4929992 117.3689978 -12.1329986 126.0396731 117.0927287 -12.8224967
 123.6029992 129.1049978 -13.9399986 122.7859992 129.6019978 -13.8879986
 124.1319992 129.5809978 -14.5809986 123.5628125 129.2371989 -14.0194694
 123.1339992 118.7029978 -11.9679986 123.9459992 119.2069978 -11.9219986
 122.8899992 118.5579978 -11.0539986 123.2121467 118.7523749 -11.8381425
 123.6699992 119.6889978  -2.7839986 123.7889992 120.2629978  -2.0269986
 124.3249992 119.0009978  -2.6689986 123.7748684 119.6745194  -2.6648326
 124.0179992 115.7839978 -11.0299986 123.6709992 116.4009978 -10.3859986
 124.6769992 116.2849978 -11.5119986 124.0595090 115.9361575 -11.0069319
 120.9409992 130.1489978 -13.9589986 121.1019992 130.9489978 -14.4589986
 120.7439992 130.4559978 -13.0739986 120.9363906 130.2998678 -13.9077667
 119.6759992 116.8469978 -14.3429986 119.5919992 117.7349978 -13.9959986
 120.5659992 116.5819978 -14.1109986 119.7848163 116.9327179 -14.2641404
 129.8739992 117.5959978  -1.9489986 128.9579992 117.8579978  -2.0359986
 130.2099992 117.5929978  -2.8449986 129.7938499 117.6315163  -2.0821234
 128.4769992 121.3459978  -7.8529986 127.6789992 120.9309978  -8.1809986
 128.9219992 120.6559978  -7.3619986 128.4279684 121.1958628  -7.8314773
 117.9339992 127.2739978 -15.2829986 118.5259992 127.9739978 -15.0059986
 118.3929992 126.8409978 -16.0019986 118.0771652 127.3112675 -15.3423467
 116.2499992 119.9389978 -16.1669986 116.2049992 120.8779978 -15.9879986
 115.3619992 119.7029978 -16.4359986 116.1238166 120.0356687 -16.1788476
 129.5629992 130.6019978  -6.2309986 129.4069992 131.2809978  -6.8879986
 130.4959992 130.6739978  -6.0279986 129.6677387 130.7046390  -6.2934658
 117.0579992 114.7199978  -7.4929986 116.8289992 114.7789978  -8.4209986
 116.6159992 113.9289978  -7.1869986 116.9668801 114.6210540  -7.5785271
 115.9889992 128.6609978 -11.3329986 115.1559992 129.1329978 -11.3059986
 116.5339992 129.1709978 -11.9319986 115.9487857 128.7944791 -11.4102858
 115.2769992 131.2729978  -0.0029986 115.8169992 131.0569978   0.7570014
 114.7959992 130.4679978  -0.1929986 115.2859219 131.1345156   0.0754282
 119.8739992 130.1929978   1.6170014 120.6419992 129.7339978   1.9580014
 119.8529992 129.9669978   0.6870014 119.9762135 130.0996668   1.5379491
 123.9659992 129.7009978 -17.0069986 123.3219992 129.0699978 -16.6859986
 124.7279992 129.1699978 -17.2389986 123.9808058 129.5427902 -16.9943962
 126.4509992 128.5729978   0.3460014 126.0999992 127.7159978   0.5900014
 127.1769992 128.7149978   0.9530014 126.5011895 128.4751351   0.4613770
 128.5709992 129.5179978 -16.7739986 128.8539992 128.7229978 -16.3209986
 129.3099992 129.7509978 -17.3349986 128.7097096 129.4407049 -16.7878896
 115.1839992 125.0839978   0.9510014 115.3279992 124.1819978   0.6650014
 114.4119992 125.3699978   0.4640014 115.0992733 124.9991798   0.8459532
 119.5249992 125.4269978 -16.9159986 119.5899992 124.6329978 -16.3859986
 120.1779992 125.3089978 -17.6059986 119.6221605 125.3023430 -16.9367003
 121.8389992 125.0529978   0.3840014 121.5109992 125.3239978  -0.4729986
 121.9909992 124.1119978   0.2960014 121.8146412 124.9629046   0.2547822
 127.5739992 124.9689978  -2.2329986 128.3189992 125.5579978  -2.3519986
 126.8169992 125.5509978  -2.1689986 127.5735470 125.1282128  -2.2406201
 116.0169992 122.2839978   0.3710014 116.4249992 121.4269978   0.2500014
 115.7559992 122.2979978   1.2920014 116.0376016 122.1685119   0.4789192
 120.6749992 123.3999978 -14.6099986 120.2149992 122.9159978 -13.9249986
 120.9299992 122.7309978 -15.2459986 120.6464856 123.2433669 -14.6021603
 119.9639992 121.2929978  -2.2539986 119.3449992 121.9669978  -1.9739986
 120.3079992 121.6139978  -3.0879986 119.9257123 121.4286887  -2.3283612
 121.7459992 121.6429978 -16.3479986 121.5649992 121.4879978 -17.2749986
 122.6959992 121.7509978 -16.3029986 121.8496566 121.6363669 -16.4689071
 124.9829992 123.7639978   1.0230014 125.9369992 123.8479978   0.9960014
 124.8229992 123.0519978   1.6430014 125.0917182 123.6792842   1.1030733
 131.1359992 123.9969978 -16.9019986 130.8619992 123.5729978 -17.7149986
 131.1749992 124.9289978 -17.1189986 131.1037716 124.0648827 -17.0425714
 120.3029992 118.6479978  -1.1719986 120.4529992 117.9189978  -1.7739986
 120.3049992 119.4249978  -1.7309986 120.3237967 118.6532708  -1.3299459
 120.7159992 117.0169978  -3.6789986 121.2509992 117.4689978  -4.3309986
 119.8629992 116.9089978  -4.1019986 120.6740374 117.0642665  -3.8253290
 122.2969992 122.4569978  -3.4399986 123.0479992 122.3009978  -4.0129986
 121.9579992 123.3089978  -3.7149986 122.3539587 122.5508138  -3.5555922
 126.7129992 120.2719978   1.5890014 126.9049992 119.3409978   1.4770014
 127.5709992 120.6969978   1.5780014 126.8552182 120.2020070   1.5721862
 128.0299992 123.0609978  -0.3339986 127.7479992 123.7699978  -0.9119986
 128.9719992 122.9879978  -0.4849986 128.1187921 123.1482193  -0.4335775
 118.7819992 119.8459978   0.7390014 118.0139992 119.3129978   0.5290014
 119.4599992 119.5359978   0.1400014 118.7687235 119.7311754   0.6292413
 121.5209992 114.4739978  -3.2479986 121.4229992 115.4199978  -3.3529986
 120.7789992 114.1009978  -3.7239986 121.4072534 114.5531773  -3.3267400
 122.7849992 118.7949978   0.3160014 122.5499992 118.5759978   1.2170014
 122.0019992 118.5879978  -0.1939986 122.6469095 118.7369892   0.3705353
 125.5009992 117.9229978  -0.6089986 124.5529992 117.9549978  -0.4769986
 125.8129992 117.2969978   0.0450014 125.4135293 117.8427923  -0.5025852
 127.1349992 116.5569978   1.3960014 127.0379992 115.6049978   1.3910014
 126.8129992 116.8249978   2.2570014 127.0782468 116.4630884   1.5116210
 116.9619992 117.7659978   0.4440014 117.1739992 117.0599978  -0.1659986
 116.8509992 117.3289978   1.2880014 116.9760269 117.6101921   0.4745873
 121.7429992 113.7679978  -0.5769986 122.4549992 113.1279978  -0.5909986
 121.6419992 114.0339978  -1.4899986 121.8267387 113.7164330  -0.7024437
 122.0969992 115.4499978   1.4770014 121.9649992 114.9749978   0.6570014
 121.4969992 116.1949978   1.4220014 121.9979070 115.4855789   1.3573251
 121.6429992 132.3329978 -15.3469986 122.5759992 132.4909978 -15.2029986
 121.3789992 133.0089978 -15.9719986 121.7349911 132.4459373 -15.4117278
 115.2109992 126.9699978 -15.8639986 116.1249992 127.0489978 -15.5909986
 115.2189992 126.2829978 -16.5299986 115.3370655 126.8879205 -15.9167083
 113.8599992 132.3629978 -10.7869986 113.2129992 131.9009978 -11.3189986
 114.2149992 131.6909978 -10.2039986 113.8193741 132.2089774 -10.7810825
 114.7299992 130.4429978  -8.9819986 114.3959992 129.5629978  -8.8099986
 114.9529992 130.7889978  -8.1169986 114.7143721 130.3691938  -8.8415832
 132.2789992 131.2529978  -6.0009986 132.2569992 131.4379978  -5.0619986
 132.9689992 131.8209978  -6.3419986 132.3693439 131.3551887  -5.9185209
 131.8419992 130.8199978  -3.0799986 131.3549992 130.0849978  -3.4509986
 132.3909992 130.4259978  -2.4019986 131.8495247 130.6661057  -3.0391539
 130.2929992 126.6099978   1.5590014 129.4269992 126.5049978   1.9530014
 130.6689992 127.3679978   2.0050014 130.2253401 126.6981708   1.6732620
 131.5939992 124.8659978 -12.9269986 132.4439992 125.2869978 -12.7999986
 131.5989992 124.1259978 -12.3199986 131.7111143 124.8236094 -12.8275250
 131.9879992 122.9199978 -11.1039986 131.2619992 122.4399978 -10.7059986
 132.5699992 123.1249978 -10.3709986 131.9672730 122.8820184 -10.9505851
 131.7469992 125.7049978  -6.1559986 132.5809992 125.3269978  -6.4369986
 131.8589992 126.6479978  -6.2749986 131.8761917 125.7807943  -6.2105139
 130.2339992 128.5829978  -3.8489986 129.5859992 128.9079978  -3.2239986
 129.7159992 128.1419978  -4.5229986 130.0754196 128.5678651  -3.8545848
 132.2569992 122.8209978 -14.7129986 131.7349992 123.1769978 -15.4309986
 132.2239992 123.4959978 -14.0339986 132.1810129 122.9609598 -14.7196645
 130.6059992 120.0599978 -16.1619986 130.7019992 120.7269978 -16.8419986
 130.4659992 119.2449978 -16.6429986 130.6002040 120.0410671 -16.3201622
 129.7749992 121.4409978 -10.5409986 129.6249992 120.4959978 -10.5609986
 129.4209992 121.7219978  -9.6969986 129.7066351 121.3496644 -10.4296780
 114.8099992 123.5189978  -6.5299986 114.9949992 123.4369978  -7.4659986
 115.6599992 123.3949978  -6.1069986 114.9500928 123.4910463  -6.6007107
 130.6309992 123.4109978  -0.9019986 131.2139992 122.6759978  -0.7099986
 131.1949992 124.1829978  -0.8549986 130.7869781 123.4148145  -0.8693836
 132.1279992 121.3139978  -0.2169986 131.2649992 120.9349978  -0.3829986
 132.7319992 120.5749978  -0.2919986 132.0916085 121.1623223  -0.2498305
 129.8529992 117.4679978 -17.0439986 130.4639992 117.0969978 -16.4069986
 129.0159992 117.0469978 -16.8479986 129.8234947 117.3602756 -16.9302748
 129.4859992 119.0229978 -12.0779986 129.7649992 118.1159978 -11.9539986
 130.2449992 119.4569978 -12.4669986 129.6268619 118.9574502 -12.1136205
 130.0969992 119.6049978  -6.6419986 131.0299992 119.8169978  -6.6769986
 129.8619992 119.7059978  -5.7199986 130.1929517 119.6476833  -6.5220870
 130.1269992 120.3419978  -3.8659986 129.2839992 120.6099978  -3.4999986
 130.5689992 121.1639978  -4.0769986 130.0714138 120.4898273  -3.8444482
 114.4079992 118.7889978  -0.3899986 115.3269992 118.6669978  -0.1529986
 113.9579992 118.0389978   0.0000014 114.4730087 118.6709608  -0.3048590
 132.4099992 114.3219978   1.4870014 132.7589992 113.6679978   0.8820014
 132.5569992 115.1589978   1.0470014 132.4776824 114.3456024   1.3446304
 130.0989992 116.2859978 -12.0299986 130.2809992 115.8369978 -11.2049986
 129.4989992 115.7019978 -12.4939986 130.0428187 116.1455552 -11.9797261
 115.6289992 117.1019978  -7.4979986 116.0739992 116.3099978  -7.1959986
 116.0949992 117.8179978  -7.0679986 115.7529718 117.0904534  -7.3984735
 113.9329992 120.1009978  -6.4289986 114.4249992 119.8799978  -7.2199986
 114.2949992 120.9409978  -6.1479986 114.0492923 120.1843468  -6.4992593
 131.9289992 116.4309978  -0.1639986 131.0119992 116.7019978  -0.1989986
 132.0519992 115.8959978  -0.9479986 131.8199672 116.3957885  -0.2748138
 131.9659992 116.3539978 -15.5019986 132.3779992 115.6329978 -15.9769986
 132.6469992 117.0229978 -15.4439986 132.1145536 116.3457766 -15.5591976
 114.2469992 116.3589978 -12.3749986 113.3219992 116.5669978 -12.5039986
 114.7009992 116.8429978 -13.0649986 114.1816298 116.4529299 -12.4859549
 129.0169992 131.3429978 -10.4289986 129.6699992 130.9949978 -11.0369986
 129.5279992 131.8309978  -9.7829986 129.1752777 131.3613815 -10.4247953
 114.2099992 115.0969978  -4.0309986 113.5449992 114.8509978  -3.3879986
 113.7669992 115.7189978  -4.6079986 114.0591168 115.1474214  -4.0210152
 116.4019992 128.2719978   0.1140014 115.5809992 128.4469978  -0.3469986
 116.1499992 128.1989978   1.0340014 116.2555594 128.2860717   0.1753611
 119.3559992 129.2459978  -3.6279986 118.9319992 130.0559978  -3.9099986
 120.2609992 129.3319978  -3.9299986 119.4202138 129.3684160  -3.7073585
 123.6679992 130.6449978  -0.6679986 123.8519992 130.3119978   0.2100014
 124.5139992 130.9549978  -0.9899986 123.8076484 130.6412979  -0.5912383
 126.0129992 131.9309978  -1.4239986 126.6899992 131.2979978  -1.6639986
 126.3339992 132.3319978  -0.6169986 126.1491323 131.8985691  -1.3476842
 130.9299992 114.5209978  -2.3449986 130.1169992 114.8459978  -2.7319986
 131.1629992 113.7599978  -2.8779986 130.8501347 114.4626880  -2.4700159
 116.7579992 132.5029978  -3.5799986 116.0379992 132.9429978  -4.0309986
 116.3929992 132.2519978  -2.7319986 116.6099643 132.5293369  -3.5270871
 119.2249992 132.1029978  -4.5499986 118.3609992 132.1749978  -4.1459986
 119.1699992 132.6499978  -5.3339986 119.0991942 132.1867849  -4.6006000
 123.9359992 131.9909978  -5.3749986 123.4789992 132.5199978  -6.0289986
 124.0989992 132.5939978  -4.6499986 123.8954960 132.1449280  -5.3664726
 126.2639992 130.8689978  -4.4299986 125.3589992 131.0339978  -4.6959986
 126.6919992 131.7219978  -4.4959986 126.1981537 131.0069134  -4.4752905
 128.8679992 132.4389978  -4.1349986 128.6859992 133.3549978  -4.3459986
 129.0449992 132.0279978  -4.9819986 128.8670030 132.5088273  -4.2782834
 116.1729992 131.1259978  -6.6699986 116.1549992 130.6999978  -5.8129986
 116.9779992 130.8069978  -7.0789986 116.2792875 131.0246435  -6.6080485
 118.3139992 129.8359978  -8.0149986 118.0949992 128.9189978  -7.8449986
 119.1379992 129.9759978  -7.5489986 118.3954702 129.7295511  -7.9287473
 120.8509992 130.3059978  -7.1659986 121.0639992 129.4179978  -7.4529986
 120.9159992 130.2709978  -6.2119986 120.8889149 130.1798326  -7.0762631
 124.3599992 115.9699978  -8.0219986 123.6859992 115.3399978  -7.7659986
 124.9239992 115.4859978  -8.6249986 124.3440384 115.8183708  -8.0684980
 129.5029992 114.0769978  -7.9089986 130.1059992 114.6249978  -8.4109986
 128.6329992 114.3959978  -8.1499986 129.4679157 114.1950373  -8.0102090
 131.2299992 115.2159978  -9.5759986 131.8409992 114.7019978 -10.1029986
 131.6119992 116.0929978  -9.5529986 131.3653305 115.2642050  -9.6450582
 116.6869992 114.6039978 -10.1999986 115.9099992 114.3689978 -10.7069986
 117.2169992 113.8069978 -10.1909986 116.6523451 114.4641268 -10.2681373
 115.5229992 114.4019978 -14.3959986 115.9619992 115.0129978 -14.9879986
 114.8889992 114.9399978 -13.9219986 115.4973859 114.5584064 -14.4129695
 121.2659992 114.5299978 -10.3869986 122.1399992 114.9189978 -10.4159986
 121.1299992 114.3149978  -9.4639986 121.3671953 114.5541643 -10.2662383
 126.8229992 114.5599978  -8.7369986 126.8989992 114.6559978  -9.6869986
 126.5479992 113.6529978  -8.6089986 126.7961871 114.4504146  -8.8496056
 128.1759992 114.5859978 -13.0449986 127.4729992 115.2009978 -13.2549986
 127.7309992 113.7489978 -12.9139986 128.0196550 114.5569668 -13.0560163
 115.4239992 130.3499978 -13.4989986 114.7389992 130.3119978 -14.1659986
 115.4279992 131.2629978 -13.2109986 115.3307621 130.4681924 -13.5513874
 117.3839992 116.3179978 -15.9539986 117.8749992 115.6879978 -16.4809986
 118.0069992 116.6139978 -15.2909986 117.5355304 116.2717376 -15.9365060
 122.4099992 116.6109978 -13.4969986 122.5879992 115.9639978 -12.8139986
 122.3559992 117.4449978 -13.0299986 122.4270678 116.6351604 -13.3403699
 124.2879992 131.5589978 -15.1009986 125.1539992 131.9259978 -15.2789986
 124.0419992 131.1199978 -15.9149986 124.3732097 131.5498525 -15.2353981
 130.9969992 131.1219978 -12.4219986 130.8029992 130.3739978 -12.9869986
 130.9579992 131.8799978 -13.0049986 130.9651645 131.1220786 -12.5781852
 116.6439992 115.1179978  -0.6819986 116.2779992 114.3519978  -0.2399986
 117.5569992 115.1469978  -0.3959986 116.7173172 115.0170324  -0.5828110
 118.6169992 114.4679978   0.8530014 119.5159992 114.1939978   0.6690014
 118.2309992 113.7259978   1.3180014 118.6877307 114.3302196   0.8907098
 117.2419992 131.2699978 -16.4739986 116.9739992 131.5559978 -15.5999986
 118.0129992 130.7239978 -16.3209986 117.3095926 131.2352779 -16.3338795
 127.0389992 113.8009978   1.0360014 127.1149992 113.3749978   1.8890014
 127.9319992 113.8139978   0.6930014 127.1702303 113.7443493   1.1065497
 130.2149992 129.8739978  -0.2719986 129.4329992 129.6869978  -0.7919986
 130.1429992 130.8029978  -0.0549986 130.0981924 129.9740637  -0.3138398
 144.6209992 123.7599978 -10.2409986 144.7099992 124.7039978 -10.3729986
 143.9829992 123.4849978 -10.8989986 144.5469062 123.8519812 -10.3480359
 143.5539992 123.0149978  -6.8219986 143.5159992 122.3689978  -6.1169986
 143.2319992 122.5479978  -7.5929986 143.5052679 122.8634276  -6.8297079
 135.9219992 122.6289978  -5.2289986 135.9639992 122.0039978  -4.5059986
 136.6249992 123.2529978  -5.0469986 136.0227345 122.6277873  -5.1054726
 136.8459992 127.0789978  -6.6939986 136.4759992 126.2769978  -7.0639986
 137.7869992 126.9109978  -6.6479986 136.9225984 126.9464638  -6.7384397
 133.4559992 120.7389978 -11.3019986 133.0079992 121.5849978 -11.3199986
 132.8949992 120.1599978 -11.8169986 133.3188546 120.7763993 -11.3741109
 134.1659992 122.9009978  -9.1759986 134.3799992 122.1309978  -8.6479986
 134.9039992 122.9909978  -9.7789986 134.2950200 122.8078587  -9.1852965
 144.3719992 131.0579978  -8.3089986 144.9909992 130.3819978  -8.5819986
 144.1629992 130.8399978  -7.3999986 144.4286056 130.9358869  -8.2236033
 141.9429992 125.4469978  -6.4159986 142.2469992 124.7609978  -7.0109986
 142.6649992 125.5659978  -5.7979986 142.0821240 125.3692314  -6.4139041
 145.0839992 119.8409978  -6.0889986 145.2269992 118.8949978  -6.0689986
 144.9779992 120.0479978  -7.0169986 145.0892403 119.7394797  -6.2117761
 138.2389992 117.9429978  -8.8159986 138.2819992 118.8029978  -9.2349986
 137.7809992 117.3909978  -9.4499986 138.1829871 117.9859245  -8.9589239
 134.8589992 120.3399978  -8.0539986 135.5129992 119.7899978  -7.6219986
 134.8829992 120.0659978  -8.9709986 134.9517199 120.2277167  -8.1188332
 140.0159992 121.8899978  -8.8389986 140.6319992 121.3629978  -8.3299986
 139.4289992 121.2499978  -9.2429986 140.0210154 121.7313954  -8.8239055
 137.0489992 116.8609978  -4.7419986 136.8299992 117.3909978  -5.5089986
 136.3809992 117.0869978  -4.0949986 136.9286975 116.9640967  -4.7594860
 144.4179992 126.3609978 -11.1979986 144.1229992 126.0379978 -12.0499986
 144.0939992 127.2609978 -11.1569986 144.3338460 126.4384464 -11.3090286
 139.6179992 124.5359978  -4.4549986 138.8779992 125.1349978  -4.3509986
 140.3319992 125.0899978  -4.7699986 139.6133500 124.6927829  -4.4833629
 136.6429992 118.7529978  -6.7899986 137.2569992 119.3859978  -6.4169986
 137.1549992 118.2809978  -7.4459986 136.7961962 118.7757249  -6.8277065
 138.0259992 126.5009978  -3.6679986 138.0199992 127.3799978  -4.0459986
 137.1719992 126.4169978  -3.2429986 137.9097925 126.6099535  -3.6623113
 134.1469992 126.1719978 -12.8859986 133.8749992 126.4009978 -13.7739986
 134.1919992 127.0089978 -12.4249986 134.1158097 126.3166163 -12.9453317
 141.0759992 114.1659978  -7.2899986 140.9579992 113.2179978  -7.3439986
 140.2209992 114.4989978  -7.0169986 140.9442805 114.0812202  -7.2604921
 143.3419992 123.0039978 -12.7889986 142.6309992 123.5389978 -13.1409986
 144.0329992 123.0589978 -13.4489986 143.3380751 123.0846777 -12.9264142
 143.3959992 121.4609978 -15.7509986 144.0969992 121.4839978 -15.0989986
 143.6979992 120.8329978 -16.4069986 143.5328202 121.3792212 -15.7504391
 138.3929992 123.8439978  -9.9549986 138.0629992 123.4729978 -10.7729986
 138.9819992 123.1729978  -9.6079986 138.4273970 123.7026063 -10.0200596
 139.7599992 127.2719978  -7.2739986 139.6649992 126.6929978  -8.0299986
 140.4889992 126.9009978  -6.7779986 139.8456011 127.1425561  -7.3103972
 138.7599992 122.6119978  -6.3219986 139.3249992 122.7339978  -7.0839986
 139.0789992 123.2499978  -5.6829986 138.8804166 122.7148791  -6.3399652
 145.0689992 128.1159978  -5.5879986 144.8289992 128.7779978  -4.9399986
 144.8709992 127.2809978  -5.1629986 145.0093826 128.0938115  -5.4418434
 139.6399992 127.0119978  -1.6039986 139.3289992 127.7939978  -1.1489986
 138.9899992 126.8589978  -2.2899986 139.5095538 127.0984087  -1.6344102
 136.5599992 123.2099978  -2.3759986 136.6299992 123.8609978  -1.6769986
 135.6689992 123.3129978  -2.7109986 136.4491690 123.3129249  -2.3256957
 143.3449992 129.1119978 -10.7169986 143.8189992 129.4079978  -9.9399986
 142.7819992 129.8509978 -10.9499986 143.3337890 129.2523036 -10.6421899
 137.8789992 129.0829978  -0.8409986 137.8869992 128.9469978  -1.7879986
 136.9629992 128.9659978  -0.5889986 137.7562528 129.0485463  -0.9366757
 137.3839992 122.9129978 -12.3659986 137.0919992 123.6809978 -12.8569986
 136.7089992 122.2539978 -12.5289986 137.2528497 122.9289745 -12.4551740
 133.4769992 125.2759978  -3.5509986 132.9749992 125.2479978  -4.3659986
 133.4819992 124.3709978  -3.2409986 133.4089832 125.1497486  -3.6205879
 133.2269992 128.0569978  -6.6669986 134.1729992 127.9119978  -6.6859986
 133.1139992 128.8409978  -6.1299986 133.3413578 128.1431697  -6.5969683
 142.4029992 128.2969978  -2.1079986 142.4909992 129.1229978  -1.6329986
 141.5399992 127.9669978  -1.8589986 142.2983357 128.3655468  -2.0092347
 142.8179992 132.0689978 -12.3019986 142.7419992 131.9479978 -13.2489986
 142.8499992 133.0179978 -12.1839986 142.8119380 132.1807677 -12.4154819
 136.4709992 130.8579978 -10.5209986 136.6229992 130.5099978  -9.6429986
 135.6199992 130.5009978 -10.7769986 136.3768344 130.7620879 -10.4353132
 135.7259992 126.5999978  -2.5079986 135.9419992 126.2379978  -1.6479986
 134.8699992 126.2249978  -2.7169986 135.6398810 126.4998837  -2.4187320
 138.3439992 115.0699978  -6.5119986 137.4829992 114.9829978  -6.9199986
 138.3219992 115.9259978  -6.0839986 138.2230491 115.1738003  -6.5100418
 143.0069992 114.7919978  -3.1369986 143.4269992 114.3769978  -2.3839986
 142.0739992 114.6129978  -3.0199986 142.9383736 114.7109910  -3.0181032
 142.6689992 117.2839978 -15.8519986 142.4149992 117.3029978 -14.9299986
 142.4119992 116.4129978 -16.1539986 142.5994508 117.1688280 -15.7665197
 138.4349992 120.0349978  -5.4169986 137.7939992 119.9949978  -4.7079986
 138.4729992 120.9619978  -5.6549986 138.3523010 120.1547668  -5.3520054
 138.4319992 120.2559978 -10.5049986 137.5399992 119.9159978 -10.5639986
 138.8829992 119.8789978 -11.2609986 138.3707642 120.1584910 -10.6152274
 143.9679992 120.6719978 -11.6879986 143.5589992 121.4869978 -11.9799986
 144.6879992 120.5319978 -12.3019986 144.0094439 120.7645372 -11.8109885
 143.0699992 120.8479978  -0.1999986 142.5069992 120.1429978   0.1210014
 143.8959992 120.7269978   0.2680014 143.1046674 120.7352165  -0.0928249
 144.9729992 120.1179978  -8.8739986 144.7769992 120.7239978  -9.5889986
 145.1539992 119.2849978  -9.3079986 144.9706584 120.0882513  -9.0305788
 136.1849992 120.3559978  -3.5499986 136.1469992 120.7559978  -2.6809986
 135.6949992 119.5389978  -3.4599986 136.1135330 120.3002674  -3.4188711
 139.5509992 117.7299978 -16.7509986 139.1199992 117.2849978 -16.0219986
 138.8329992 118.1009978 -17.2639986 139.3949176 117.7192051 -16.7205070
 132.7939992 117.4719978  -9.6989986 133.4239992 117.4429978  -8.9799986
 133.2429992 117.0469978 -10.4299986 132.9410835 117.4105660  -9.6992341
 134.0679992 118.2179978 -14.2749986 134.5419992 118.8089978 -14.8599986
 133.3499992 118.7479978 -13.9279986 134.0358640 118.3705511 -14.3082031
 144.2369992 121.7559978  -4.2029986 144.5599992 121.1249978  -4.8459986
 143.7959992 121.2219978  -3.5419986 144.2216379 121.5973468  -4.2017418
 141.0139992 117.6839978  -9.4189986 140.1029992 117.7409978  -9.1299986
 141.5189992 117.6239978  -8.6079986 140.9576873 117.6836826  -9.2698793
 135.8419992 119.3129978 -10.5919986 134.9529992 119.4119978 -10.9319986
 136.1389992 118.4709978 -10.9379986 135.7604177 119.2127687 -10.6853060
 139.4949992 119.3129978 -12.9349986 140.4269992 119.4419978 -12.7569986
 139.2799992 119.9819978 -13.5849986 139.5934472 119.4210806 -12.9985109
 145.4189992 116.9189978  -6.1539986 144.7419992 117.0499978  -5.4909986
 144.9339992 116.7639978  -6.9649986 145.2607405 116.9159947  -6.1727830
 138.1689992 120.5069978 -15.3689986 137.6269992 120.1279978 -16.0599986
 139.0029992 120.7019978 -15.7969986 138.2074390 120.4814079 -15.5215608
 136.3049992 125.0639978  -0.2699986 137.0369992 125.3189978   0.2920014
 135.5239992 125.2689978   0.2460014 136.2996526 125.1265450  -0.1234824
 142.3339992 120.4709978  -7.5319986 142.8979992 119.9249978  -8.0789986
 142.1859992 119.9499978  -6.7429986 142.3913037 120.3256787  -7.5002771
 137.3359992 116.6079978 -11.1129986 137.0189992 115.7049978 -11.1489986
 138.1169992 116.6099978 -11.6659986 137.3982431 116.4847797 -11.1926898
 140.9599992 118.8599978  -5.1179986 140.1249992 119.3139978  -5.0069986
 141.4839992 119.1359978  -4.3659986 140.9166072 118.9593948  -5.0011864
 141.5049992 125.0729978 -13.4329986 140.7599992 124.5649978 -13.7549986
 141.3699992 125.1219978 -12.4869986 141.3848963 125.0101731 -13.3491174
 145.4019992 117.8869978 -15.2339986 144.4639992 117.9979978 -15.3849986
 145.6999992 118.7429978 -14.9269986 145.3136318 118.0180158 -15.2131855
 143.0239992 125.2569978  -2.1959986 142.6779992 124.8749978  -1.3889986
 142.8239992 126.1899978  -2.1249986 142.9495987 125.3309002  -2.0759539
 136.6289992 124.3679978  -7.6629986 137.3739992 124.3649978  -8.2649986
 136.7069992 123.5439978  -7.1819986 136.7413365 124.2562384  -7.6802570
 143.6299992 126.5309978 -14.4079986 143.3349992 127.3579978 -14.0259986
 142.9269992 125.9119978 -14.2109986 143.4946379 126.5604171 -14.3291346
 133.6369992 122.8279978  -2.3479986 133.8599992 122.4099978  -1.5169986
 133.0349992 122.2159978  -2.7709986 133.5861513 122.6879606  -2.2913260
 140.6539992 122.3449978  -0.1349986 140.3579992 122.1799978  -1.0309986
 141.5849992 122.1249978  -0.1459986 140.7394401 122.2926879  -0.2589794
 145.2739992 127.7189978  -2.2459986 144.3739992 127.9019978  -2.5129986
 145.3079992 127.9779978  -1.3249986 145.1553748 127.7790554  -2.1580836
 139.0039992 127.8859978 -10.2589986 139.5319992 128.6589978 -10.4589986
 138.1239992 128.1099978 -10.5609986 138.9573435 128.0222700 -10.3272690
 134.7589992 122.7479978 -15.6719986 135.3749992 123.3749978 -15.2919986
 133.8969992 123.0639978 -15.3999986 134.7267678 122.8764412 -15.5832791
 140.4319992 125.5489978 -10.6829986 140.1909992 126.4739978 -10.6409986
 139.6909992 125.0899978 -10.2859986 140.2989206 125.6135915 -10.6236231
 140.9459992 129.6979978  -4.3679986 141.3089992 130.5519978  -4.6009986
 141.4779992 129.4059978  -3.6269986 141.0675141 129.7753895  -4.2997903
 139.1149992 130.5699978 -11.1369986 138.1649992 130.6759978 -11.0859986
 139.4669992 131.3909978 -10.7929986 139.0325472 130.6954923 -11.0835148
 144.4899992 125.7969978  -4.6669986 144.0649992 125.5689978  -3.8409986
 145.0709992 125.0579978  -4.8489986 144.5103395 125.6659545  -4.5785586
 135.2709992 117.5819978  -2.7899986 134.3789992 117.9199978  -2.8579986
 135.1729992 116.7259978  -2.3719986 135.1354475 117.5126543  -2.7428296
 134.9229992 129.3859978  -4.3549986 135.1399992 128.4539978  -4.3859986
 135.1689992 129.6609978  -3.4719986 134.9859809 129.2955686  -4.2398310
 139.7209992 127.4079978 -14.6899986 139.8679992 126.8879978 -13.8999986
 139.7179992 128.3149978 -14.3829986 139.7407102 127.4593953 -14.5404075
 136.1739992 124.6599978 -14.1789986 135.4879992 125.0129978 -13.6119986
 136.6969992 125.4229978 -14.4259986 136.1508402 124.8113901 -14.1348199
 144.0059992 117.3229978  -3.8999986 144.7049992 117.3969978  -3.2499986
 143.6249992 116.4579978  -3.7459986 144.0502097 117.2162389  -3.7902003
 144.7899992 116.9749978 -12.8029986 145.0099992 117.4459978 -13.6069986
 145.3489992 117.3689978 -12.1329986 144.8956731 117.0927287 -12.8224967
 142.4589992 129.1049978 -13.9399986 141.6419992 129.6019978 -13.8879986
 142.9879992 129.5809978 -14.5809986 142.4188125 129.2371989 -14.0194694
 141.9899992 118.7029978 -11.9679986 142.8019992 119.2069978 -11.9219986
 141.7459992 118.5579978 -11.0539986 142.0681467 118.7523749 -11.8381425
 142.5259992 119.6889978  -2.7839986 142.6449992 120.2629978  -2.0269986
 143.1809992 119.0009978  -2.6689986 142.6308684 119.6745194  -2.6648326
 142.8739992 115.7839978 -11.0299986 142.5269992 116.4009978 -10.3859986
 143.5329992 116.2849978 -11.5119986 142.9155090 115.9361575 -11.0069319
 139.7969992 130.1489978 -13.9589986 139.9579992 130.9489978 -14.4589986
 139.5999992 130.4559978 -13.0739986 139.7923906 130.2998678 -13.9077667
 138.5319992 116.8469978 -14.3429986 138.4479992 117.7349978 -13.9959986
 139.4219992 116.5819978 -14.1109986 138.6408163 116.9327179 -14.2641404
 136.7899992 127.2739978 -15.2829986 137.3819992 127.9739978 -15.0059986
 137.2489992 126.8409978 -16.0019986 136.9331652 127.3112675 -15.3423467
 135.1059992 119.9389978 -16.1669986 135.0609992 120.8779978 -15.9879986
 134.2179992 119.7029978 -16.4359986 134.9798166 120.0356687 -16.1788476
 135.9139992 114.7199978  -7.4929986 135.6849992 114.7789978  -8.4209986
 135.4719992 113.9289978  -7.1869986 135.8228801 114.6210540  -7.5785271
 134.8449992 128.6609978 -11.3329986 134.0119992 129.1329978 -11.3059986
 135.3899992 129.1709978 -11.9319986 134.8047857 128.7944791 -11.4102858
 134.1329992 131.2729978  -0.0029986 134.6729992 131.0569978   0.7570014
 133.6519992 130.4679978  -0.1929986 134.1419219 131.1345156   0.0754282
 138.7299992 130.1929978   1.6170014 139.4979992 129.7339978   1.9580014
 138.7089992 129.9669978   0.6870014 138.8322135 130.0996668   1.5379491
 142.8219992 129.7009978 -17.0069986 142.1779992 129.0699978 -16.6859986
 143.5839992 129.1699978 -17.2389986 142.8368058 129.5427902 -16.9943962
 145.3069992 128.5729978   0.3460014 144.9559992 127.7159978   0.5900014
 146.0329992 128.7149978   0.9530014 145.3571895 128.4751351   0.4613770
 134.0399992 125.0839978   0.9510014 134.1839992 124.1819978   0.6650014
 133.2679992 125.3699978   0.4640014 133.9552733 124.9991798   0.8459532
 138.3809992 125.4269978 -16.9159986 138.4459992 124.6329978 -16.3859986
 139.0339992 125.3089978 -17.6059986 138.4781605 125.3023430 -16.9367003
 140.6949992 125.0529978   0.3840014 140.3669992 125.3239978  -0.4729986
 140.8469992 124.1119978   0.2960014 140.6706412 124.9629046   0.2547822
 134.8729992 122.2839978   0.3710014 135.2809992 121.4269978   0.2500014
 134.6119992 122.2979978   1.2920014 134.8936016 122.1685119   0.4789192
 139.5309992 123.3999978 -14.6099986 139.0709992 122.9159978 -13.9249986
 139.7859992 122.7309978 -15.2459986 139.5024856 123.2433669 -14.6021603
 138.8199992 121.2929978  -2.2539986 138.2009992 121.9669978  -1.9739986
 139.1639992 121.6139978  -3.0879986 138.7817123 121.4286887  -2.3283612
 140.6019992 121.6429978 -16.3479986 140.4209992 121.4879978 -17.2749986
 141.5519992 121.7509978 -16.3029986 140.7056566 121.6363669 -16.4689071
 143.8389992 123.7639978   1.0230014 144.7929992 123.8479978   0.9960014
 143.6789992 123.0519978   1.6430014 143.9477182 123.6792842   1.1030733
 139.1589992 118.6479978  -1.1719986 139.3089992 117.9189978  -1.7739986
 139.1609992 119.4249978  -1.7309986 139.1797967 118.6532708  -1.3299459
 139.5719992 117.0169978  -3.6789986 140.1069992 117.4689978  -4.3309986
 138.7189992 116.9089978  -4.1019986 139.5300374 117.0642665  -3.8253290
 141.1529992 122.4569978  -3.4399986 141.9039992 122.3009978  -4.0129986
 140.8139992 123.3089978  -3.7149986 141.2099587 122.5508138  -3.5555922
 145.5689992 120.2719978   1.5890014 145.7609992 119.3409978   1.4770014
 146.4269992 120.6969978   1.5780014 145.7112182 120.2020070   1.5721862
 137.6379992 119.8459978   0.7390014 136.8699992 119.3129978   0.5290014
 138.3159992 119.5359978   0.1400014 137.6247235 119.7311754   0.6292413
 140.3769992 114.4739978  -3.2479986 140.2789992 115.4199978  -3.3529986
 139.6349992 114.1009978  -3.7239986 140.2632534 114.5531773  -3.3267400
 141.6409992 118.7949978   0.3160014 141.4059992 118.5759978   1.2170014
 140.8579992 118.5879978  -0.1939986 141.5029095 118.7369892   0.3705353
 144.3569992 117.9229978  -0.6089986 143.4089992 117.9549978  -0.4769986
 144.6689992 117.2969978   0.0450014 144.2695293 117.8427923  -0.5025852
 135.8179992 117.7659978   0.4440014 136.0299992 117.0599978  -0.1659986
 135.7069992 117.3289978   1.2880014 135.8320269 117.6101921   0.4745873
 140.5989992 113.7679978  -0.5769986 141.3109992 113.1279978  -0.5909986
 140.4979992 114.0339978  -1.4899986 140.6827387 113.7164330  -0.7024437
 140.9529992 115.4499978   1.4770014 140.8209992 114.9749978   0.6570014
 140.3529992 116.1949978   1.4220014 140.8539070 115.4855789   1.3573251
 140.4989992 132.3329978 -15.3469986 141.4319992 132.4909978 -15.2029986
 140.2349992 133.0089978 -15.9719986 140.5909911 132.4459373 -15.4117278
 134.0669992 126.9699978 -15.8639986 134.9809992 127.0489978 -15.5909986
 134.0749992 126.2829978 -16.5299986 134.1930655 126.8879205 -15.9167083
 132.7159992 132.3629978 -10.7869986 132.0689992 131.9009978 -11.3189986
 133.0709992 131.6909978 -10.2039986 132.6753741 132.2089774 -10.7810825
 133.5859992 130.4429978  -8.9819986 133.2519992 129.5629978  -8.8099986
 133.8089992 130.7889978  -8.1169986 133.5703721 130.3691938  -8.8415832
 133.6659992 123.5189978  -6.5299986 133.8509992 123.4369978  -7.4659986
 134.5159992 123.3949978  -6.1069986 133.8060928 123.4910463  -6.6007107
 133.2639992 118.7889978  -0.3899986 134.1829992 118.6669978  -0.1529986
 132.8139992 118.0389978   0.0000014 133.3290087 118.6709608  -0.3048590
 134.4849992 117.1019978  -7.4979986 134.9299992 116.3099978  -7.1959986
 134.9509992 117.8179978  -7.0679986 134.6089718 117.0904534  -7.3984735
 132.7889992 120.1009978  -6.4289986 133.2809992 119.8799978  -7.2199986
 133.1509992 120.9409978  -6.1479986 132.9052923 120.1843468  -6.4992593
 133.1029992 116.3589978 -12.3749986 132.1779992 116.5669978 -12.5039986
 133.5569992 116.8429978 -13.0649986 133.0376298 116.4529299 -12.4859549
 133.0659992 115.0969978  -4.0309986 132.4009992 114.8509978  -3.3879986
 132.6229992 115.7189978  -4.6079986 132.9151168 115.1474214  -4.0210152
 135.2579992 128.2719978   0.1140014 134.4369992 128.4469978  -0.3469986
 135.0059992 128.1989978   1.0340014 135.1115594 128.2860717   0.1753611
 138.2119992 129.2459978  -3.6279986 137.7879992 130.0559978  -3.9099986
 139.1169992 129.3319978  -3.9299986 138.2762138 129.3684160  -3.7073585
 142.5239992 130.6449978  -0.6679986 142.7079992 130.3119978   0.2100014
 143.3699992 130.9549978  -0.9899986 142.6636484 130.6412979  -0.5912383
 144.8689992 131.9309978  -1.4239986 145.5459992 131.2979978  -1.6639986
 145.1899992 132.3319978  -0.6169986 145.0051323 131.8985691  -1.3476842
 135.6139992 132.5029978  -3.5799986 134.8939992 132.9429978  -4.0309986
 135.2489992 132.2519978  -2.7319986 135.4659643 132.5293369  -3.5270871
 138.0809992 132.1029978  -4.5499986 137.2169992 132.1749978  -4.1459986
 138.0259992 132.6499978  -5.3339986 137.9551942 132.1867849  -4.6006000
 142.7919992 131.9909978  -5.3749986 142.3349992 132.5199978  -6.0289986
 142.9549992 132.5939978  -4.6499986 142.7514960 132.1449280  -5.3664726
 145.1199992 130.8689978  -4.4299986 144.2149992 131.0339978  -4.6959986
 145.5479992 131.7219978  -4.4959986 145.0541537 131.0069134  -4.4752905
 135.0289992 131.1259978  -6.6699986 135.0109992 130.6999978  -5.8129986
 135.8339992 130.8069978  -7.0789986 135.1352875 131.0246435  -6.6080485
 137.1699992 129.8359978  -8.0149986 136.9509992 128.9189978  -7.8449986
 137.9939992 129.9759978  -7.5489986 137.2514702 129.7295511  -7.9287473
 139.7069992 130.3059978  -7.1659986 139.9199992 129.4179978  -7.4529986
 139.7719992 130.2709978  -6.2119986 139.7449149 130.1798326  -7.0762631
 143.2159992 115.9699978  -8.0219986 142.5419992 115.3399978  -7.7659986
 143.7799992 115.4859978  -8.6249986 143.2000384 115.8183708  -8.0684980
 135.5429992 114.6039978 -10.1999986 134.7659992 114.3689978 -10.7069986
 136.0729992 113.8069978 -10.1909986 135.5083451 114.4641268 -10.2681373
 134.3789992 114.4019978 -14.3959986 134.8179992 115.0129978 -14.9879986
 133.7449992 114.9399978 -13.9219986 134.3533859 114.5584064 -14.4129695
 140.1219992 114.5299978 -10.3869986 140.9959992 114.9189978 -10.4159986
 139.9859992 114.3149978  -9.4639986 140.2231953 114.5541643 -10.2662383
 134.2799992 130.3499978 -13.4989986 133.5949992 130.3119978 -14.1659986
 134.2839992 131.2629978 -13.2109986 134.1867621 130.4681924 -13.5513874
 136.2399992 116.3179978 -15.9539986 136.7309992 115.6879978 -16.4809986
 136.8629992 116.6139978 -15.2909986 136.3915304 116.2717376 -15.9365060
 141.2659992 116.6109978 -13.4969986 141.4439992 115.9639978 -12.8139986
 141.2119992 117.4449978 -13.0299986 141.2830678 116.6351604 -13.3403699
 143.1439992 131.5589978 -15.1009986 144.0099992 131.9259978 -15.2789986
 142.8979992 131.1199978 -15.9149986 143.2292097 131.5498525 -15.2353981
 135.4999992 115.1179978  -0.6819986 135.1339992 114.3519978  -0.2399986
 136.4129992 115.1469978  -0.3959986 135.5733172 115.0170324  -0.5828110
 137.4729992 114.4679978   0.8530014 138.3719992 114.1939978   0.6690014
 137.0869992 113.7259978   1.3180014 137.5437307 114.3302196   0.8907098
 136.0979992 131.2699978 -16.4739986 135.8299992 131.5559978 -15.5999986
 136.8689992 130.7239978 -16.3209986 136.1655926 131.2352779 -16.3338795
  12.6289992 142.6159978 -10.2409986  12.7179992 143.5599978 -10.3729986
  11.9909992 142.3409978 -10.8989986  12.5549062 142.7079812 -10.3480359
  11.5619992 141.8709978  -6.8219986  11.5239992 141.2249978  -6.1169986
  11.2399992 141.4039978  -7.5929986  11.5132679 141.7194276  -6.8297079
   3.9299992 141.4849978  -5.2289986   3.9719992 140.8599978  -4.5059986
   4.6329992 142.1089978  -5.0469986   4.0307345 141.4837873  -5.1054726
  15.2679992 144.8099978  -8.5209986  14.8269992 144.0899978  -8.0699986
  15.2549992 145.5309978  -7.8909986  15.2059215 144.8089291  -8.3741895
   1.4639992 139.5949978 -11.3019986   1.0159992 140.4409978 -11.3199986
   0.9029992 139.0159978 -11.8169986   1.3268546 139.6323993 -11.3741109
   2.1739992 141.7569978  -9.1759986   2.3879992 140.9869978  -8.6479986
   2.9119992 141.8469978  -9.7789986   2.3030200 141.6638587  -9.1852965
   9.9509992 144.3029978  -6.4159986  10.2549992 143.6169978  -7.0109986
  10.6729992 144.4219978  -5.7979986  10.0901240 144.2252314  -6.4139041
  18.6139992 135.9049978  -5.5559986  18.6639992 136.5149978  -4.8199986
  19.0399992 136.3659978  -6.2789986  18.6784108 136.0507709  -5.5529888
  13.0919992 138.6969978  -6.0889986  13.2349992 137.7509978  -6.0689986
  12.9859992 138.9039978  -7.0169986  13.0972403 138.5954797  -6.2117761
   6.2469992 136.7989978  -8.8159986   6.2899992 137.6589978  -9.2349986
   5.7889992 136.2469978  -9.4499986   6.1909871 136.8419245  -8.9589239
  13.9689992 136.9299978 -10.4149986  14.6159992 136.6009978  -9.7909986
  14.4789992 137.4469978 -11.0379986  14.1264351 136.9549067 -10.4138963
   2.8669992 139.1959978  -8.0539986   3.5209992 138.6459978  -7.6219986
   2.8909992 138.9219978  -8.9709986   2.9597199 139.0837167  -8.1188332
   8.0239992 140.7459978  -8.8389986   8.6399992 140.2189978  -8.3299986
   7.4369992 140.1059978  -9.2429986   8.0290154 140.5873954  -8.8239055
  19.0059992 137.3829978  -3.3199986  18.3169992 138.0409978  -3.4149986
  19.0209992 137.1849978  -2.3829986  18.9137756 137.4462603  -3.2064188
   5.0569992 135.7169978  -4.7419986   4.8379992 136.2469978  -5.5089986
   4.3889992 135.9429978  -4.0949986   4.9366975 135.8200967  -4.7594860
  12.4259992 145.2169978 -11.1979986  12.1309992 144.8939978 -12.0499986
  12.1019992 146.1169978 -11.1569986  12.3418460 145.2944464 -11.3090286
   7.6259992 143.3919978  -4.4549986   6.8859992 143.9909978  -4.3509986
   8.3399992 143.9459978  -4.7699986   7.6213500 143.5487829  -4.4833629
  15.7329992 136.2209978  -8.4349986  15.5179992 135.4549978  -7.9019986
  16.3889992 136.6929978  -7.9219986  15.7922673 136.1800728  -8.2928010
   4.6509992 137.6089978  -6.7899986   5.2649992 138.2419978  -6.4169986
   5.1629992 137.1369978  -7.4459986   4.8041962 137.6317249  -6.8277065
   6.0339992 145.3569978  -3.6679986   6.0279992 146.2359978  -4.0459986
   5.1799992 145.2729978  -3.2429986   5.9177925 145.4659535  -3.6623113
   2.1549992 145.0279978 -12.8859986   1.8829992 145.2569978 -13.7739986
   2.1999992 145.8649978 -12.4249986   2.1238097 145.1726163 -12.9453317
  16.0799992 134.9359978  -4.7559986  15.3439992 135.5459978  -4.7929986
  16.7639992 135.3509978  -5.2819986  16.0715367 135.0757551  -4.8321826
   9.0839992 133.0219978  -7.2899986   8.9659992 132.0739978  -7.3439986
   8.2289992 133.3549978  -7.0169986   8.9522805 132.9372202  -7.2604921
  16.8779992 144.8979978  -2.5619986  17.0169992 144.3059978  -3.3009986
  17.0449992 145.7709978  -2.9179986  16.9196193 144.9348896  -2.7113789
  11.3499992 141.8599978 -12.7889986  10.6389992 142.3949978 -13.1409986
  12.0409992 141.9149978 -13.4489986  11.3460751 141.9406777 -12.9264142
  11.4039992 140.3169978 -15.7509986  12.1049992 140.3399978 -15.0989986
  11.7059992 139.6889978 -16.4069986  11.5408202 140.2352212 -15.7504391
  18.7189992 141.2379978  -4.4959986  18.0669992 141.9319978  -4.4069986
  19.1849992 141.4479978  -5.3059986  18.6925937 141.3615019  -4.5932467
  14.7559992 142.0689978 -11.8379986  14.0239992 142.2979978 -11.2639986
  15.2029992 141.3559978 -11.3829986  14.7163963 142.0038729 -11.6980055
  14.6529992 140.2439978  -2.7699986  14.7329992 141.0069978  -2.1979986
  14.0519992 140.5229978  -3.4599986  14.5826547 140.3862457  -2.7849953
   6.4009992 142.6999978  -9.9549986   6.0709992 142.3289978 -10.7729986
   6.9899992 142.0289978  -9.6079986   6.4353970 142.5586063 -10.0200596
   6.7679992 141.4679978  -6.3219986   7.3329992 141.5899978  -7.0839986
   7.0869992 142.1059978  -5.6829986   6.8884166 141.5708791  -6.3399652
  13.6269992 141.2319978 -14.1519986  14.2059992 141.3819978 -13.4059986
  14.0409992 141.7019978 -14.8759986  13.7623358 141.3160954 -14.1476047
   4.5679992 142.0659978  -2.3759986   4.6379992 142.7169978  -1.6769986
   3.6769992 142.1689978  -2.7109986   4.4571690 142.1689249  -2.3256957
  17.3259992 132.9819978 -14.3389986  16.4259992 133.1209978 -14.0439986
  17.5779992 133.8129978 -14.7409986  17.2368683 133.1134055 -14.3529768
   5.3919992 141.7689978 -12.3659986   5.0999992 142.5369978 -12.8569986
   4.7169992 141.1099978 -12.5289986   5.2608497 141.7849745 -12.4551740
   1.4849992 144.1319978  -3.5509986   0.9829992 144.1039978  -4.3659986
   1.4899992 143.2269978  -3.2409986   1.4169832 144.0057486  -3.6205879
  16.5849992 139.0719978  -0.5039986  16.1769992 139.5519978  -1.2249986
  16.6249992 138.1659978  -0.8119986  16.5346221 139.0152449  -0.6441733
   3.7339992 145.4559978  -2.5079986   3.9499992 145.0939978  -1.6479986
   2.8779992 145.0809978  -2.7169986   3.6478810 145.3558837  -2.4187320
   6.3519992 133.9259978  -6.5119986   5.4909992 133.8389978  -6.9199986
   6.3299992 134.7819978  -6.0839986   6.2310491 134.0298003  -6.5100418
  11.0149992 133.6479978  -3.1369986  11.4349992 133.2329978  -2.3839986
  10.0819992 133.4689978  -3.0199986  10.9463736 133.5669910  -3.0181032
  14.3419992 137.4029978  -2.2839986  13.8279992 137.2779978  -1.4859986
  14.1859992 138.3159978  -2.5279986  14.2506967 137.5092123  -2.2079063
  15.1039992 142.2639978 -16.5229986  15.1459992 142.0419978 -17.4529986
  15.9529992 142.6629978 -16.3329986  15.2245253 142.2875498 -16.6246178
  10.6769992 136.1399978 -15.8519986  10.4229992 136.1589978 -14.9299986
  10.4199992 135.2689978 -16.1539986  10.6074508 136.0248280 -15.7665197
   6.4429992 138.8909978  -5.4169986   5.8019992 138.8509978  -4.7079986
   6.4809992 139.8179978  -5.6549986   6.3603010 139.0107668  -5.3520054
   6.4399992 139.1119978 -10.5049986   5.5479992 138.7719978 -10.5639986
   6.8909992 138.7349978 -11.2609986   6.3787642 139.0144910 -10.6152274
  11.9759992 139.5279978 -11.6879986  11.5669992 140.3429978 -11.9799986
  12.6959992 139.3879978 -12.3019986  12.0174439 139.6205372 -11.8109885
  11.0779992 139.7039978  -0.1999986  10.5149992 138.9989978   0.1210014
  11.9039992 139.5829978   0.2680014  11.1126674 139.5912165  -0.0928249
  12.9809992 138.9739978  -8.8739986  12.7849992 139.5799978  -9.5889986
  13.1619992 138.1409978  -9.3079986  12.9786584 138.9442513  -9.0305788
   4.1929992 139.2119978  -3.5499986   4.1549992 139.6119978  -2.6809986
   3.7029992 138.3949978  -3.4599986   4.1215330 139.1562674  -3.4188711
   7.5589992 136.5859978 -16.7509986   7.1279992 136.1409978 -16.0219986
   6.8409992 136.9569978 -17.2639986   7.4029176 136.5752051 -16.7205070
   0.8019992 136.3279978  -9.6989986   1.4319992 136.2989978  -8.9799986
   1.2509992 135.9029978 -10.4299986   0.9490835 136.2665660  -9.6992341
   2.0759992 137.0739978 -14.2749986   2.5499992 137.6649978 -14.8599986
   1.3579992 137.6039978 -13.9279986   2.0438640 137.2265511 -14.3082031
  12.2449992 140.6119978  -4.2029986  12.5679992 139.9809978  -4.8459986
  11.8039992 140.0779978  -3.5419986  12.2296379 140.4533468  -4.2017418
   9.0219992 136.5399978  -9.4189986   8.1109992 136.5969978  -9.1299986
   9.5269992 136.4799978  -8.6079986   8.9656873 136.5396826  -9.2698793
   3.8499992 138.1689978 -10.5919986   2.9609992 138.2679978 -10.9319986
   4.1469992 137.3269978 -10.9379986   3.7684177 138.0687687 -10.6853060
   7.5029992 138.1689978 -12.9349986   8.4349992 138.2979978 -12.7569986
   7.2879992 138.8379978 -13.5849986   7.6014472 138.2770806 -12.9985109
  13.4269992 135.7749978  -6.1539986  12.7499992 135.9059978  -5.4909986
  12.9419992 135.6199978  -6.9649986  13.2687405 135.7719947  -6.1727830
   6.1769992 139.3629978 -15.3689986   5.6349992 138.9839978 -16.0599986
   7.0109992 139.5579978 -15.7969986   6.2154390 139.3374079 -15.5215608
   4.3129992 143.9199978  -0.2699986   5.0449992 144.1749978   0.2920014
   3.5319992 144.1249978   0.2460014   4.3076526 143.9825450  -0.1234824
  10.3419992 139.3269978  -7.5319986  10.9059992 138.7809978  -8.0789986
  10.1939992 138.8059978  -6.7429986  10.3993037 139.1816787  -7.5002771
   5.3439992 135.4639978 -11.1129986   5.0269992 134.5609978 -11.1489986
   6.1249992 135.4659978 -11.6659986   5.4062431 135.3407797 -11.1926898
   8.9679992 137.7159978  -5.1179986   8.1329992 138.1699978  -5.0069986
   9.4919992 137.9919978  -4.3659986   8.9246072 137.8153948  -5.0011864
   9.5129992 143.9289978 -13.4329986   8.7679992 143.4209978 -13.7549986
   9.3779992 143.9779978 -12.4869986   9.3928963 143.8661731 -13.3491174
  16.6629992 143.0619978  -4.6459986  17.3039992 143.5179978  -5.1899986
  15.8319992 143.1749978  -5.1089986  16.6385287 143.1396921  -4.7830113
  13.4099992 136.7429978 -15.2339986  12.4719992 136.8539978 -15.3849986
  13.7079992 137.5989978 -14.9269986  13.3216318 136.8740158 -15.2131855
  11.0319992 144.1129978  -2.1959986  10.6859992 143.7309978  -1.3889986
  10.8319992 145.0459978  -2.1249986  10.9575987 144.1869002  -2.0759539
  14.1289992 138.6099978 -13.5729986  15.0209992 138.4719978 -13.2539986
  14.1849992 139.4009978 -14.1099986  14.2587325 138.6979918 -13.6018783
   4.6369992 143.2239978  -7.6629986   5.3819992 143.2209978  -8.2649986
   4.7149992 142.3999978  -7.1819986   4.7493365 143.1122384  -7.6802570
  11.6379992 145.3869978 -14.4079986  11.3429992 146.2139978 -14.0259986
  10.9349992 144.7679978 -14.2109986  11.5026379 145.4164171 -14.3291346
   1.6449992 141.6839978  -2.3479986   1.8679992 141.2659978  -1.5169986
   1.0429992 141.0719978  -2.7709986   1.5941513 141.5439606  -2.2913260
   8.6619992 141.2009978  -0.1349986   8.3659992 141.0359978  -1.0309986
   9.5929992 140.9809978  -0.1459986   8.7474401 141.1486879  -0.2589794
  19.0139992 138.8189978 -13.8779986  18.4589992 138.4229978 -14.5509986
  19.1139992 139.7299978 -14.1559986  18.9516816 138.8879505 -14.0074967
  18.9769992 144.6199978  -1.0409986  18.1259992 144.8579978  -1.4089986
  19.5669992 144.6029978  -1.7939986  18.9403812 144.6502524  -1.1931547
  14.4689992 142.4129978  -6.3919986  13.5409992 142.1819978  -6.4189986
  14.9199992 141.6359978  -6.7219986  14.4028165 142.2762774  -6.4403210
   2.7669992 141.6039978 -15.6719986   3.3829992 142.2309978 -15.2919986
   1.9049992 141.9199978 -15.3999986   2.7347678 141.7324412 -15.5832791
   8.4399992 144.4049978 -10.6829986   8.1989992 145.3299978 -10.6409986
   7.6989992 143.9459978 -10.2859986   8.3069206 144.4695915 -10.6236231
  12.4979992 144.6529978  -4.6669986  12.0729992 144.4249978  -3.8409986
  13.0789992 143.9139978  -4.8489986  12.5183395 144.5219545  -4.5785586
   3.2789992 136.4379978  -2.7899986   2.3869992 136.7759978  -2.8579986
   3.1809992 135.5819978  -2.3719986   3.1434475 136.3686543  -2.7428296
  15.5669992 144.2539978 -13.3659986  15.2899992 143.5259978 -12.8099986
  16.4949992 144.3729978 -13.1609986  15.6544499 144.1704213 -13.2621956
   4.1819992 143.5159978 -14.1789986   3.4959992 143.8689978 -13.6119986
   4.7049992 144.2789978 -14.4259986   4.1588402 143.6673901 -14.1348199
  12.0139992 136.1789978  -3.8999986  12.7129992 136.2529978  -3.2499986
  11.6329992 135.3139978  -3.7459986  12.0582097 136.0722389  -3.7902003
  12.7979992 135.8309978 -12.8029986  13.0179992 136.3019978 -13.6069986
  13.3569992 136.2249978 -12.1329986  12.9036731 135.9487287 -12.8224967
   9.9979992 137.5589978 -11.9679986  10.8099992 138.0629978 -11.9219986
   9.7539992 137.4139978 -11.0539986  10.0761467 137.6083749 -11.8381425
  10.5339992 138.5449978  -2.7839986  10.6529992 139.1189978  -2.0269986
  11.1889992 137.8569978  -2.6689986  10.6388684 138.5305194  -2.6648326
  10.8819992 134.6399978 -11.0299986  10.5349992 135.2569978 -10.3859986
  11.5409992 135.1409978 -11.5119986  10.9235090 134.7921575 -11.0069319
   6.5399992 135.7029978 -14.3429986   6.4559992 136.5909978 -13.9959986
   7.4299992 135.4379978 -14.1109986   6.6488163 135.7887179 -14.2641404
  16.7379992 136.4519978  -1.9489986  15.8219992 136.7139978  -2.0359986
  17.0739992 136.4489978  -2.8449986  16.6578499 136.4875163  -2.0821234
  15.3409992 140.2019978  -7.8529986  14.5429992 139.7869978  -8.1809986
  15.7859992 139.5119978  -7.3619986  15.2919684 140.0518628  -7.8314773
   3.1139992 138.7949978 -16.1669986   3.0689992 139.7339978 -15.9879986
   2.2259992 138.5589978 -16.4359986   2.9878166 138.8916687 -16.1788476
   3.9219992 133.5759978  -7.4929986   3.6929992 133.6349978  -8.4209986
   3.4799992 132.7849978  -7.1869986   3.8308801 133.4770540  -7.5785271
   2.0479992 143.9399978   0.9510014   2.1919992 143.0379978   0.6650014
   1.2759992 144.2259978   0.4640014   1.9632733 143.8551798   0.8459532
   6.3889992 144.2829978 -16.9159986   6.4539992 143.4889978 -16.3859986
   7.0419992 144.1649978 -17.6059986   6.4861605 144.1583430 -16.9367003
   8.7029992 143.9089978   0.3840014   8.3749992 144.1799978  -0.4729986
   8.8549992 142.9679978   0.2960014   8.6786412 143.8189046   0.2547822
  14.4379992 143.8249978  -2.2329986  15.1829992 144.4139978  -2.3519986
  13.6809992 144.4069978  -2.1689986  14.4375470 143.9842128  -2.2406201
   2.8809992 141.1399978   0.3710014   3.2889992 140.2829978   0.2500014
   2.6199992 141.1539978   1.2920014   2.9016016 141.0245119   0.4789192
   7.5389992 142.2559978 -14.6099986   7.0789992 141.7719978 -13.9249986
   7.7939992 141.5869978 -15.2459986   7.5104856 142.0993669 -14.6021603
   6.8279992 140.1489978  -2.2539986   6.2089992 140.8229978  -1.9739986
   7.1719992 140.4699978  -3.0879986   6.7897123 140.2846887  -2.3283612
   8.6099992 140.4989978 -16.3479986   8.4289992 140.3439978 -17.2749986
   9.5599992 140.6069978 -16.3029986   8.7136566 140.4923669 -16.4689071
  11.8469992 142.6199978   1.0230014  12.8009992 142.7039978   0.9960014
  11.6869992 141.9079978   1.6430014  11.9557182 142.5352842   1.1030733
  17.9999992 142.8529978 -16.9019986  17.7259992 142.4289978 -17.7149986
  18.0389992 143.7849978 -17.1189986  17.9677716 142.9208827 -17.0425714
   7.1669992 137.5039978  -1.1719986   7.3169992 136.7749978  -1.7739986
   7.1689992 138.2809978  -1.7309986   7.1877967 137.5092708  -1.3299459
   7.5799992 135.8729978  -3.6789986   8.1149992 136.3249978  -4.3309986
   6.7269992 135.7649978  -4.1019986   7.5380374 135.9202665  -3.8253290
   9.1609992 141.3129978  -3.4399986   9.9119992 141.1569978  -4.0129986
   8.8219992 142.1649978  -3.7149986   9.2179587 141.4068138  -3.5555922
  13.5769992 139.1279978   1.5890014  13.7689992 138.1969978   1.4770014
  14.4349992 139.5529978   1.5780014  13.7192182 139.0580070   1.5721862
  14.8939992 141.9169978  -0.3339986  14.6119992 142.6259978  -0.9119986
  15.8359992 141.8439978  -0.4849986  14.9827921 142.0042193  -0.4335775
   5.6459992 138.7019978   0.7390014   4.8779992 138.1689978   0.5290014
   6.3239992 138.3919978   0.1400014   5.6327235 138.5871754   0.6292413
   8.3849992 133.3299978  -3.2479986   8.2869992 134.2759978  -3.3529986
   7.6429992 132.9569978  -3.7239986   8.2712534 133.4091773  -3.3267400
   9.6489992 137.6509978   0.3160014   9.4139992 137.4319978   1.2170014
   8.8659992 137.4439978  -0.1939986   9.5109095 137.5929892   0.3705353
  12.3649992 136.7789978  -0.6089986  11.4169992 136.8109978  -0.4769986
  12.6769992 136.1529978   0.0450014  12.2775293 136.6987923  -0.5025852
  13.9989992 135.4129978   1.3960014  13.9019992 134.4609978   1.3910014
  13.6769992 135.6809978   2.2570014  13.9422468 135.3190884   1.5116210
   3.8259992 136.6219978   0.4440014   4.0379992 135.9159978  -0.1659986
   3.7149992 136.1849978   1.2880014   3.8400269 136.4661921   0.4745873
   8.6069992 132.6239978  -0.5769986   9.3189992 131.9839978  -0.5909986
   8.5059992 132.8899978  -1.4899986   8.6907387 132.5724330  -0.7024437
   8.9609992 134.3059978   1.4770014   8.8289992 133.8309978   0.6570014
   8.3609992 135.0509978   1.4220014   8.8619070 134.3415789   1.3573251
  17.1569992 145.4659978   1.5590014  16.2909992 145.3609978   1.9530014
  17.5329992 146.2239978   2.0050014  17.0893401 145.5541708   1.6732620
  18.4579992 143.7219978 -12.9269986  19.3079992 144.1429978 -12.7999986
  18.4629992 142.9819978 -12.3199986  18.5751143 143.6796094 -12.8275250
  18.8519992 141.7759978 -11.1039986  18.1259992 141.2959978 -10.7059986
  19.4339992 141.9809978 -10.3709986  18.8312730 141.7380184 -10.9505851
  18.6109992 144.5609978  -6.1559986  19.4449992 144.1829978  -6.4369986
  18.7229992 145.5039978  -6.2749986  18.7401917 144.6367943  -6.2105139
  19.1209992 141.6769978 -14.7129986  18.5989992 142.0329978 -15.4309986
  19.0879992 142.3519978 -14.0339986  19.0450129 141.8169598 -14.7196645
  17.4699992 138.9159978 -16.1619986  17.5659992 139.5829978 -16.8419986
  17.3299992 138.1009978 -16.6429986  17.4642040 138.8970671 -16.3201622
  16.6389992 140.2969978 -10.5409986  16.4889992 139.3519978 -10.5609986
  16.2849992 140.5779978  -9.6969986  16.5706351 140.2056644 -10.4296780
   1.6739992 142.3749978  -6.5299986   1.8589992 142.2929978  -7.4659986
   2.5239992 142.2509978  -6.1069986   1.8140928 142.3470463  -6.6007107
  17.4949992 142.2669978  -0.9019986  18.0779992 141.5319978  -0.7099986
  18.0589992 143.0389978  -0.8549986  17.6509781 142.2708145  -0.8693836
  18.9919992 140.1699978  -0.2169986  18.1289992 139.7909978  -0.3829986
  19.5959992 139.4309978  -0.2919986  18.9556085 140.0183223  -0.2498305
  16.7169992 136.3239978 -17.0439986  17.3279992 135.9529978 -16.4069986
  15.8799992 135.9029978 -16.8479986  16.6874947 136.2162756 -16.9302748
  16.3499992 137.8789978 -12.0779986  16.6289992 136.9719978 -11.9539986
  17.1089992 138.3129978 -12.4669986  16.4908619 137.8134502 -12.1136205
  16.9609992 138.4609978  -6.6419986  17.8939992 138.6729978  -6.6769986
  16.7259992 138.5619978  -5.7199986  17.0569517 138.5036833  -6.5220870
  16.9909992 139.1979978  -3.8659986  16.1479992 139.4659978  -3.4999986
  17.4329992 140.0199978  -4.0769986  16.9354138 139.3458273  -3.8444482
   1.2719992 137.6449978  -0.3899986   2.1909992 137.5229978  -0.1529986
   0.8219992 136.8949978   0.0000014   1.3370087 137.5269608  -0.3048590
  19.2739992 133.1779978   1.4870014  19.6229992 132.5239978   0.8820014
  19.4209992 134.0149978   1.0470014  19.3416824 133.2016024   1.3446304
  16.9629992 135.1419978 -12.0299986  17.1449992 134.6929978 -11.2049986
  16.3629992 134.5579978 -12.4939986  16.9068187 135.0015552 -11.9797261
   2.4929992 135.9579978  -7.4979986   2.9379992 135.1659978  -7.1959986
   2.9589992 136.6739978  -7.0679986   2.6169718 135.9464534  -7.3984735
   0.7969992 138.9569978  -6.4289986   1.2889992 138.7359978  -7.2199986
   1.1589992 139.7969978  -6.1479986   0.9132923 139.0403468  -6.4992593
  18.7929992 135.2869978  -0.1639986  17.8759992 135.5579978  -0.1989986
  18.9159992 134.7519978  -0.9479986  18.6839672 135.2517885  -0.2748138
  18.8299992 135.2099978 -15.5019986  19.2419992 134.4889978 -15.9769986
  19.5109992 135.8789978 -15.4439986  18.9785536 135.2017766 -15.5591976
   1.1109992 135.2149978 -12.3749986   0.1859992 135.4229978 -12.5039986
   1.5649992 135.6989978 -13.0649986   1.0456298 135.3089299 -12.4859549
   1.0739992 133.9529978  -4.0309986   0.4089992 133.7069978  -3.3879986
   0.6309992 134.5749978  -4.6079986   0.9231168 134.0034214  -4.0210152
  17.7939992 133.3769978  -2.3449986  16.9809992 133.7019978  -2.7319986
  18.0269992 132.6159978  -2.8779986  17.7141347 133.3186880  -2.4700159
  11.2239992 134.8259978  -8.0219986  10.5499992 134.1959978  -7.7659986
  11.7879992 134.3419978  -8.6249986  11.2080384 134.6743708  -8.0684980
  16.3669992 132.9329978  -7.9089986  16.9699992 133.4809978  -8.4109986
  15.4969992 133.2519978  -8.1499986  16.3319157 133.0510373  -8.0102090
  18.0939992 134.0719978  -9.5759986  18.7049992 133.5579978 -10.1029986
  18.4759992 134.9489978  -9.5529986  18.2293305 134.1202050  -9.6450582
   3.5509992 133.4599978 -10.1999986   2.7739992 133.2249978 -10.7069986
   4.0809992 132.6629978 -10.1909986   3.5163451 133.3201268 -10.2681373
   2.3869992 133.2579978 -14.3959986   2.8259992 133.8689978 -14.9879986
   1.7529992 133.7959978 -13.9219986   2.3613859 133.4144064 -14.4129695
   8.1299992 133.3859978 -10.3869986   9.0039992 133.7749978 -10.4159986
   7.9939992 133.1709978  -9.4639986   8.2311953 133.4101643 -10.2662383
  13.6869992 133.4159978  -8.7369986  13.7629992 133.5119978  -9.6869986
  13.4119992 132.5089978  -8.6089986  13.6601871 133.3064146  -8.8496056
  15.0399992 133.4419978 -13.0449986  14.3369992 134.0569978 -13.2549986
  14.5949992 132.6049978 -12.9139986  14.8836550 133.4129668 -13.0560163
   4.2479992 135.1739978 -15.9539986   4.7389992 134.5439978 -16.4809986
   4.8709992 135.4699978 -15.2909986   4.3995304 135.1277376 -15.9365060
   9.2739992 135.4669978 -13.4969986   9.4519992 134.8199978 -12.8139986
   9.2199992 136.3009978 -13.0299986   9.2910678 135.4911604 -13.3403699
   3.5079992 133.9739978  -0.6819986   3.1419992 133.2079978  -0.2399986
   4.4209992 134.0029978  -0.3959986   3.5813172 133.8730324  -0.5828110
   5.4809992 133.3239978   0.8530014   6.3799992 133.0499978   0.6690014
   5.0949992 132.5819978   1.3180014   5.5517307 133.1862196   0.8907098
  13.9029992 132.6569978   1.0360014  13.9789992 132.2309978   1.8890014
  14.7959992 132.6699978   0.6930014  14.0342303 132.6003493   1.1065497
  31.4849992 142.6159978 -10.2409986  31.5739992 143.5599978 -10.3729986
  30.8469992 142.3409978 -10.8989986  31.4109062 142.7079812 -10.3480359
  30.4179992 141.8709978  -6.8219986  30.3799992 141.2249978  -6.1169986
  30.0959992 141.4039978  -7.5929986  30.3692679 141.7194276  -6.8297079
  22.7859992 141.4849978  -5.2289986  22.8279992 140.8599978  -4.5059986
  23.4889992 142.1089978  -5.0469986  22.8867345 141.4837873  -5.1054726
  34.1239992 144.8099978  -8.5209986  33.6829992 144.0899978  -8.0699986
  34.1109992 145.5309978  -7.8909986  34.0619215 144.8089291  -8.3741895
  20.3199992 139.5949978 -11.3019986  19.8719992 140.4409978 -11.3199986
  19.7589992 139.0159978 -11.8169986  20.1828546 139.6323993 -11.3741109
  21.0299992 141.7569978  -9.1759986  21.2439992 140.9869978  -8.6479986
  21.7679992 141.8469978  -9.7789986  21.1590200 141.6638587  -9.1852965
  28.8069992 144.3029978  -6.4159986  29.1109992 143.6169978  -7.0109986
  29.5289992 144.4219978  -5.7979986  28.9461240 144.2252314  -6.4139041
  37.4699992 135.9049978  -5.5559986  37.5199992 136.5149978  -4.8199986
  37.8959992 136.3659978  -6.2789986  37.5344108 136.0507709  -5.5529888
  31.9479992 138.6969978  -6.0889986  32.0909992 137.7509978  -6.0689986
  31.8419992 138.9039978  -7.0169986  31.9532403 138.5954797  -6.2117761
  25.1029992 136.7989978  -8.8159986  25.1459992 137.6589978  -9.2349986
  24.6449992 136.2469978  -9.4499986  25.0469871 136.8419245  -8.9589239
  32.8249992 136.9299978 -10.4149986  33.4719992 136.6009978  -9.7909986
  33.3349992 137.4469978 -11.0379986  32.9824351 136.9549067 -10.4138963
  21.7229992 139.1959978  -8.0539986  22.3769992 138.6459978  -7.6219986
  21.7469992 138.9219978  -8.9709986  21.8157199 139.0837167  -8.1188332
  26.8799992 140.7459978  -8.8389986  27.4959992 140.2189978  -8.3299986
  26.2929992 140.1059978  -9.2429986  26.8850154 140.5873954  -8.8239055
  37.8619992 137.3829978  -3.3199986  37.1729992 138.0409978  -3.4149986
  37.8769992 137.1849978  -2.3829986  37.7697756 137.4462603  -3.2064188
  23.9129992 135.7169978  -4.7419986  23.6939992 136.2469978  -5.5089986
  23.2449992 135.9429978  -4.0949986  23.7926975 135.8200967  -4.7594860
  31.2819992 145.2169978 -11.1979986  30.9869992 144.8939978 -12.0499986
  30.9579992 146.1169978 -11.1569986  31.1978460 145.2944464 -11.3090286
  26.4819992 143.3919978  -4.4549986  25.7419992 143.9909978  -4.3509986
  27.1959992 143.9459978  -4.7699986  26.4773500 143.5487829  -4.4833629
  34.5889992 136.2209978  -8.4349986  34.3739992 135.4549978  -7.9019986
  35.2449992 136.6929978  -7.9219986  34.6482673 136.1800728  -8.2928010
  23.5069992 137.6089978  -6.7899986  24.1209992 138.2419978  -6.4169986
  24.0189992 137.1369978  -7.4459986  23.6601962 137.6317249  -6.8277065
  24.8899992 145.3569978  -3.6679986  24.8839992 146.2359978  -4.0459986
  24.0359992 145.2729978  -3.2429986  24.7737925 145.4659535  -3.6623113
  21.0109992 145.0279978 -12.8859986  20.7389992 145.2569978 -13.7739986
  21.0559992 145.8649978 -12.4249986  20.9798097 145.1726163 -12.9453317
  34.9359992 134.9359978  -4.7559986  34.1999992 135.5459978  -4.7929986
  35.6199992 135.3509978  -5.2819986  34.9275367 135.0757551  -4.8321826
  27.9399992 133.0219978  -7.2899986  27.8219992 132.0739978  -7.3439986
  27.0849992 133.3549978  -7.0169986  27.8082805 132.9372202  -7.2604921
  35.7339992 144.8979978  -2.5619986  35.8729992 144.3059978  -3.3009986
  35.9009992 145.7709978  -2.9179986  35.7756193 144.9348896  -2.7113789
  30.2059992 141.8599978 -12.7889986  29.4949992 142.3949978 -13.1409986
  30.8969992 141.9149978 -13.4489986  30.2020751 141.9406777 -12.9264142
  30.2599992 140.3169978 -15.7509986  30.9609992 140.3399978 -15.0989986
  30.5619992 139.6889978 -16.4069986  30.3968202 140.2352212 -15.7504391
  37.5749992 141.2379978  -4.4959986  36.9229992 141.9319978  -4.4069986
  38.0409992 141.4479978  -5.3059986  37.5485937 141.3615019  -4.5932467
  33.6119992 142.0689978 -11.8379986  32.8799992 142.2979978 -11.2639986
  34.0589992 141.3559978 -11.3829986  33.5723963 142.0038729 -11.6980055
  33.5089992 140.2439978  -2.7699986  33.5889992 141.0069978  -2.1979986
  32.9079992 140.5229978  -3.4599986  33.4386547 140.3862457  -2.7849953
  25.2569992 142.6999978  -9.9549986  24.9269992 142.3289978 -10.7729986
  25.8459992 142.0289978  -9.6079986  25.2913970 142.5586063 -10.0200596
  25.6239992 141.4679978  -6.3219986  26.1889992 141.5899978  -7.0839986
  25.9429992 142.1059978  -5.6829986  25.7444166 141.5708791  -6.3399652
  32.4829992 141.2319978 -14.1519986  33.0619992 141.3819978 -13.4059986
  32.8969992 141.7019978 -14.8759986  32.6183358 141.3160954 -14.1476047
  23.4239992 142.0659978  -2.3759986  23.4939992 142.7169978  -1.6769986
  22.5329992 142.1689978  -2.7109986  23.3131690 142.1689249  -2.3256957
  36.1819992 132.9819978 -14.3389986  35.2819992 133.1209978 -14.0439986
  36.4339992 133.8129978 -14.7409986  36.0928683 133.1134055 -14.3529768
  24.2479992 141.7689978 -12.3659986  23.9559992 142.5369978 -12.8569986
  23.5729992 141.1099978 -12.5289986  24.1168497 141.7849745 -12.4551740
  20.3409992 144.1319978  -3.5509986  19.8389992 144.1039978  -4.3659986
  20.3459992 143.2269978  -3.2409986  20.2729832 144.0057486  -3.6205879
  35.4409992 139.0719978  -0.5039986  35.0329992 139.5519978  -1.2249986
  35.4809992 138.1659978  -0.8119986  35.3906221 139.0152449  -0.6441733
  22.5899992 145.4559978  -2.5079986  22.8059992 145.0939978  -1.6479986
  21.7339992 145.0809978  -2.7169986  22.5038810 145.3558837  -2.4187320
  25.2079992 133.9259978  -6.5119986  24.3469992 133.8389978  -6.9199986
  25.1859992 134.7819978  -6.0839986  25.0870491 134.0298003  -6.5100418
  29.8709992 133.6479978  -3.1369986  30.2909992 133.2329978  -2.3839986
  28.9379992 133.4689978  -3.0199986  29.8023736 133.5669910  -3.0181032
  33.1979992 137.4029978  -2.2839986  32.6839992 137.2779978  -1.4859986
  33.0419992 138.3159978  -2.5279986  33.1066967 137.5092123  -2.2079063
  33.9599992 142.2639978 -16.5229986  34.0019992 142.0419978 -17.4529986
  34.8089992 142.6629978 -16.3329986  34.0805253 142.2875498 -16.6246178
  29.5329992 136.1399978 -15.8519986  29.2789992 136.1589978 -14.9299986
  29.2759992 135.2689978 -16.1539986  29.4634508 136.0248280 -15.7665197
  25.2989992 138.8909978  -5.4169986  24.6579992 138.8509978  -4.7079986
  25.3369992 139.8179978  -5.6549986  25.2163010 139.0107668  -5.3520054
  25.2959992 139.1119978 -10.5049986  24.4039992 138.7719978 -10.5639986
  25.7469992 138.7349978 -11.2609986  25.2347642 139.0144910 -10.6152274
  30.8319992 139.5279978 -11.6879986  30.4229992 140.3429978 -11.9799986
  31.5519992 139.3879978 -12.3019986  30.8734439 139.6205372 -11.8109885
  29.9339992 139.7039978  -0.1999986  29.3709992 138.9989978   0.1210014
  30.7599992 139.5829978   0.2680014  29.9686674 139.5912165  -0.0928249
  31.8369992 138.9739978  -8.8739986  31.6409992 139.5799978  -9.5889986
  32.0179992 138.1409978  -9.3079986  31.8346584 138.9442513  -9.0305788
  23.0489992 139.2119978  -3.5499986  23.0109992 139.6119978  -2.6809986
  22.5589992 138.3949978  -3.4599986  22.9775330 139.1562674  -3.4188711
  26.4149992 136.5859978 -16.7509986  25.9839992 136.1409978 -16.0219986
  25.6969992 136.9569978 -17.2639986  26.2589176 136.5752052 -16.7205070
  19.6579992 136.3279978  -9.6989986  20.2879992 136.2989978  -8.9799986
  20.1069992 135.9029978 -10.4299986  19.8050835 136.2665660  -9.6992341
  20.9319992 137.0739978 -14.2749986  21.4059992 137.6649978 -14.8599986
  20.2139992 137.6039978 -13.9279986  20.8998640 137.2265511 -14.3082031
  31.1009992 140.6119978  -4.2029986  31.4239992 139.9809978  -4.8459986
  30.6599992 140.0779978  -3.5419986  31.0856379 140.4533468  -4.2017418
  27.8779992 136.5399978  -9.4189986  26.9669992 136.5969978  -9.1299986
  28.3829992 136.4799978  -8.6079986  27.8216873 136.5396826  -9.2698793
  22.7059992 138.1689978 -10.5919986  21.8169992 138.2679978 -10.9319986
  23.0029992 137.3269978 -10.9379986  22.6244177 138.0687687 -10.6853060
  26.3589992 138.1689978 -12.9349986  27.2909992 138.2979978 -12.7569986
  26.1439992 138.8379978 -13.5849986  26.4574472 138.2770806 -12.9985109
  32.2829992 135.7749978  -6.1539986  31.6059992 135.9059978  -5.4909986
  31.7979992 135.6199978  -6.9649986  32.1247405 135.7719947  -6.1727830
  25.0329992 139.3629978 -15.3689986  24.4909992 138.9839978 -16.0599986
  25.8669992 139.5579978 -15.7969986  25.0714390 139.3374079 -15.5215608
  23.1689992 143.9199978  -0.2699986  23.9009992 144.1749978   0.2920014
  22.3879992 144.1249978   0.2460014  23.1636526 143.9825450  -0.1234824
  29.1979992 139.3269978  -7.5319986  29.7619992 138.7809978  -8.0789986
  29.0499992 138.8059978  -6.7429986  29.2553037 139.1816787  -7.5002771
  24.1999992 135.4639978 -11.1129986  23.8829992 134.5609978 -11.1489986
  24.9809992 135.4659978 -11.6659986  24.2622431 135.3407797 -11.1926898
  27.8239992 137.7159978  -5.1179986  26.9889992 138.1699978  -5.0069986
  28.3479992 137.9919978  -4.3659986  27.7806072 137.8153948  -5.0011864
  28.3689992 143.9289978 -13.4329986  27.6239992 143.4209978 -13.7549986
  28.2339992 143.9779978 -12.4869986  28.2488963 143.8661731 -13.3491174
  35.5189992 143.0619978  -4.6459986  36.1599992 143.5179978  -5.1899986
  34.6879992 143.1749978  -5.1089986  35.4945287 143.1396921  -4.7830113
  32.2659992 136.7429978 -15.2339986  31.3279992 136.8539978 -15.3849986
  32.5639992 137.5989978 -14.9269986  32.1776318 136.8740158 -15.2131855
  29.8879992 144.1129978  -2.1959986  29.5419992 143.7309978  -1.3889986
  29.6879992 145.0459978  -2.1249986  29.8135987 144.1869002  -2.0759539
  32.9849992 138.6099978 -13.5729986  33.8769992 138.4719978 -13.2539986
  33.0409992 139.4009978 -14.1099986  33.1147325 138.6979918 -13.6018783
  23.4929992 143.2239978  -7.6629986  24.2379992 143.2209978  -8.2649986
  23.5709992 142.3999978  -7.1819986  23.6053366 143.1122384  -7.6802570
  30.4939992 145.3869978 -14.4079986  30.1989992 146.2139978 -14.0259986
  29.7909992 144.7679978 -14.2109986  30.3586379 145.4164171 -14.3291346
  20.5009992 141.6839978  -2.3479986  20.7239992 141.2659978  -1.5169986
  19.8989992 141.0719978  -2.7709986  20.4501513 141.5439606  -2.2913260
  27.5179992 141.2009978  -0.1349986  27.2219992 141.0359978  -1.0309986
  28.4489992 140.9809978  -0.1459986  27.6034401 141.1486879  -0.2589794
  37.8699992 138.8189978 -13.8779986  37.3149992 138.4229978 -14.5509986
  37.9699992 139.7299978 -14.1559986  37.8076816 138.8879505 -14.0074967
  37.8329992 144.6199978  -1.0409986  36.9819992 144.8579978  -1.4089986
  38.4229992 144.6029978  -1.7939986  37.7963812 144.6502524  -1.1931547
  33.3249992 142.4129978  -6.3919986  32.3969992 142.1819978  -6.4189986
  33.7759992 141.6359978  -6.7219986  33.2588165 142.2762774  -6.4403210
  21.6229992 141.6039978 -15.6719986  22.2389992 142.2309978 -15.2919986
  20.7609992 141.9199978 -15.3999986  21.5907678 141.7324412 -15.5832791
  27.2959992 144.4049978 -10.6829986  27.0549992 145.3299978 -10.6409986
  26.5549992 143.9459978 -10.2859986  27.1629206 144.4695915 -10.6236231
  31.3539992 144.6529978  -4.6669986  30.9289992 144.4249978  -3.8409986
  31.9349992 143.9139978  -4.8489986  31.3743395 144.5219545  -4.5785586
  22.1349992 136.4379978  -2.7899986  21.2429992 136.7759978  -2.8579986
  22.0369992 135.5819978  -2.3719986  21.9994475 136.3686543  -2.7428296
  34.4229992 144.2539978 -13.3659986  34.1459992 143.5259978 -12.8099986
  35.3509992 144.3729978 -13.1609986  34.5104499 144.1704213 -13.2621956
  23.0379992 143.5159978 -14.1789986  22.3519992 143.8689978 -13.6119986
  23.5609992 144.2789978 -14.4259986  23.0148402 143.6673901 -14.1348199
  30.8699992 136.1789978  -3.8999986  31.5689992 136.2529978  -3.2499986
  30.4889992 135.3139978  -3.7459986  30.9142097 136.0722389  -3.7902003
  31.6539992 135.8309978 -12.8029986  31.8739992 136.3019978 -13.6069986
  32.2129992 136.2249978 -12.1329986  31.7596731 135.9487287 -12.8224967
  28.8539992 137.5589978 -11.9679986  29.6659992 138.0629978 -11.9219986
  28.6099992 137.4139978 -11.0539986  28.9321467 137.6083749 -11.8381425
  29.3899992 138.5449978  -2.7839986  29.5089992 139.1189978  -2.0269986
  30.0449992 137.8569978  -2.6689986  29.4948684 138.5305194  -2.6648326
  29.7379992 134.6399978 -11.0299986  29.3909992 135.2569978 -10.3859986
  30.3969992 135.1409978 -11.5119986  29.7795090 134.7921575 -11.0069319
  25.3959992 135.7029978 -14.3429986  25.3119992 136.5909978 -13.9959986
  26.2859992 135.4379978 -14.1109986  25.5048163 135.7887179 -14.2641404
  35.5939992 136.4519978  -1.9489986  34.6779992 136.7139978  -2.0359986
  35.9299992 136.4489978  -2.8449986  35.5138499 136.4875163  -2.0821234
  34.1969992 140.2019978  -7.8529986  33.3989992 139.7869978  -8.1809986
  34.6419992 139.5119978  -7.3619986  34.1479684 140.0518628  -7.8314773
  21.9699992 138.7949978 -16.1669986  21.9249992 139.7339978 -15.9879986
  21.0819992 138.5589978 -16.4359986  21.8438166 138.8916687 -16.1788476
  22.7779992 133.5759978  -7.4929986  22.5489992 133.6349978  -8.4209986
  22.3359992 132.7849978  -7.1869986  22.6868801 133.4770540  -7.5785271
  20.9039992 143.9399978   0.9510014  21.0479992 143.0379978   0.6650014
  20.1319992 144.2259978   0.4640014  20.8192733 143.8551798   0.8459532
  25.2449992 144.2829978 -16.9159986  25.3099992 143.4889978 -16.3859986
  25.8979992 144.1649978 -17.6059986  25.3421605 144.1583430 -16.9367003
  27.5589992 143.9089978   0.3840014  27.2309992 144.1799978  -0.4729986
  27.7109992 142.9679978   0.2960014  27.5346412 143.8189046   0.2547822
  33.2939992 143.8249978  -2.2329986  34.0389992 144.4139978  -2.3519986
  32.5369992 144.4069978  -2.1689986  33.2935470 143.9842128  -2.2406201
  21.7369992 141.1399978   0.3710014  22.1449992 140.2829978   0.2500014
  21.4759992 141.1539978   1.2920014  21.7576016 141.0245119   0.4789192
  26.3949992 142.2559978 -14.6099986  25.9349992 141.7719978 -13.9249986
  26.6499992 141.5869978 -15.2459986  26.3664856 142.0993669 -14.6021603
  25.6839992 140.1489978  -2.2539986  25.0649992 140.8229978  -1.9739986
  26.0279992 140.4699978  -3.0879986  25.6457123 140.2846887  -2.3283612
  27.4659992 140.4989978 -16.3479986  27.2849992 140.3439978 -17.2749986
  28.4159992 140.6069978 -16.3029986  27.5696566 140.4923669 -16.4689071
  30.7029992 142.6199978   1.0230014  31.6569992 142.7039978   0.9960014
  30.5429992 141.9079978   1.6430014  30.8117182 142.5352842   1.1030733
  36.8559992 142.8529978 -16.9019986  36.5819992 142.4289978 -17.7149986
  36.8949992 143.7849978 -17.1189986  36.8237716 142.9208827 -17.0425714
  26.0229992 137.5039978  -1.1719986  26.1729992 136.7749978  -1.7739986
  26.0249992 138.2809978  -1.7309986  26.0437967 137.5092708  -1.3299459
  26.4359992 135.8729978  -3.6789986  26.9709992 136.3249978  -4.3309986
  25.5829992 135.7649978  -4.1019986  26.3940374 135.9202665  -3.8253290
  28.0169992 141.3129978  -3.4399986  28.7679992 141.1569978  -4.0129986
  27.6779992 142.1649978  -3.7149986  28.0739587 141.4068138  -3.5555922
  32.4329992 139.1279978   1.5890014  32.6249992 138.1969978   1.4770014
  33.2909992 139.5529978   1.5780014  32.5752182 139.0580070   1.5721862
  33.7499992 141.9169978  -0.3339986  33.4679992 142.6259978  -0.9119986
  34.6919992 141.8439978  -0.4849986  33.8387921 142.0042193  -0.4335775
  24.5019992 138.7019978   0.7390014  23.7339992 138.1689978   0.5290014
  25.1799992 138.3919978   0.1400014  24.4887235 138.5871754   0.6292413
  27.2409992 133.3299978  -3.2479986  27.1429992 134.2759978  -3.3529986
  26.4989992 132.9569978  -3.7239986  27.1272534 133.4091773  -3.3267400
  28.5049992 137.6509978   0.3160014  28.2699992 137.4319978   1.2170014
  27.7219992 137.4439978  -0.1939986  28.3669095 137.5929892   0.3705353
  31.2209992 136.7789978  -0.6089986  30.2729992 136.8109978  -0.4769986
  31.5329992 136.1529978   0.0450014  31.1335293 136.6987923  -0.5025852
  32.8549992 135.4129978   1.3960014  32.7579992 134.4609978   1.3910014
  32.5329992 135.6809978   2.2570014  32.7982468 135.3190884   1.5116210
  22.6819992 136.6219978   0.4440014  22.8939992 135.9159978  -0.1659986
  22.5709992 136.1849978   1.2880014  22.6960269 136.4661921   0.4745873
  27.4629992 132.6239978  -0.5769986  28.1749992 131.9839978  -0.5909986
  27.3619992 132.8899978  -1.4899986  27.5467387 132.5724330  -0.7024437
  27.8169992 134.3059978   1.4770014  27.6849992 133.8309978   0.6570014
  27.2169992 135.0509978   1.4220014  27.7179070 134.3415789   1.3573251
  36.0129992 145.4659978   1.5590014  35.1469992 145.3609978   1.9530014
  36.3889992 146.2239978   2.0050014  35.9453401 145.5541708   1.6732620
  37.3139992 143.7219978 -12.9269986  38.1639992 144.1429978 -12.7999986
  37.3189992 142.9819978 -12.3199986  37.4311143 143.6796094 -12.8275250
  37.7079992 141.7759978 -11.1039986  36.9819992 141.2959978 -10.7059986
  38.2899992 141.9809978 -10.3709986  37.6872730 141.7380184 -10.9505851
  37.4669992 144.5609978  -6.1559986  38.3009992 144.1829978  -6.4369986
  37.5789992 145.5039978  -6.2749986  37.5961917 144.6367943  -6.2105139
  37.9769992 141.6769978 -14.7129986  37.4549992 142.0329978 -15.4309986
  37.9439992 142.3519978 -14.0339986  37.9010129 141.8169598 -14.7196645
  36.3259992 138.9159978 -16.1619986  36.4219992 139.5829978 -16.8419986
  36.1859992 138.1009978 -16.6429986  36.3202040 138.8970671 -16.3201622
  35.4949992 140.2969978 -10.5409986  35.3449992 139.3519978 -10.5609986
  35.1409992 140.5779978  -9.6969986  35.4266351 140.2056644 -10.4296780
  20.5299992 142.3749978  -6.5299986  20.7149992 142.2929978  -7.4659986
  21.3799992 142.2509978  -6.1069986  20.6700928 142.3470463  -6.6007107
  36.3509992 142.2669978  -0.9019986  36.9339992 141.5319978  -0.7099986
  36.9149992 143.0389978  -0.8549986  36.5069781 142.2708145  -0.8693836
  37.8479992 140.1699978  -0.2169986  36.9849992 139.7909978  -0.3829986
  38.4519992 139.4309978  -0.2919986  37.8116085 140.0183223  -0.2498305
  35.5729992 136.3239978 -17.0439986  36.1839992 135.9529978 -16.4069986
  34.7359992 135.9029978 -16.8479986  35.5434947 136.2162756 -16.9302748
  35.2059992 137.8789978 -12.0779986  35.4849992 136.9719978 -11.9539986
  35.9649992 138.3129978 -12.4669986  35.3468619 137.8134502 -12.1136205
  35.8169992 138.4609978  -6.6419986  36.7499992 138.6729978  -6.6769986
  35.5819992 138.5619978  -5.7199986  35.9129517 138.5036833  -6.5220870
  35.8469992 139.1979978  -3.8659986  35.0039992 139.4659978  -3.4999986
  36.2889992 140.0199978  -4.0769986  35.7914138 139.3458273  -3.8444482
  20.1279992 137.6449978  -0.3899986  21.0469992 137.5229978  -0.1529986
  19.6779992 136.8949978   0.0000014  20.1930087 137.5269608  -0.3048590
  38.1299992 133.1779978   1.4870014  38.4789992 132.5239978   0.8820014
  38.2769992 134.0149978   1.0470014  38.1976824 133.2016024   1.3446304
  35.8189992 135.1419978 -12.0299986  36.0009992 134.6929978 -11.2049986
  35.2189992 134.5579978 -12.4939986  35.7628187 135.0015552 -11.9797261
  21.3489992 135.9579978  -7.4979986  21.7939992 135.1659978  -7.1959986
  21.8149992 136.6739978  -7.0679986  21.4729718 135.9464534  -7.3984735
  19.6529992 138.9569978  -6.4289986  20.1449992 138.7359978  -7.2199986
  20.0149992 139.7969978  -6.1479986  19.7692923 139.0403468  -6.4992593
  37.6489992 135.2869978  -0.1639986  36.7319992 135.5579978  -0.1989986
  37.7719992 134.7519978  -0.9479986  37.5399672 135.2517885  -0.2748138
  37.6859992 135.2099978 -15.5019986  38.0979992 134.4889978 -15.9769986
  38.3669992 135.8789978 -15.4439986  37.8345536 135.2017766 -15.5591976
  19.9669992 135.2149978 -12.3749986  19.0419992 135.4229978 -12.5039986
  20.4209992 135.6989978 -13.0649986  19.9016298 135.3089299 -12.4859549
  19.9299992 133.9529978  -4.0309986  19.2649992 133.7069978  -3.3879986
  19.4869992 134.5749978  -4.6079986  19.7791168 134.0034214  -4.0210152
  36.6499992 133.3769978  -2.3449986  35.8369992 133.7019978  -2.7319986
  36.8829992 132.6159978  -2.8779986  36.5701347 133.3186880  -2.4700159
  30.0799992 134.8259978  -8.0219986  29.4059992 134.1959978  -7.7659986
  30.6439992 134.3419978  -8.6249986  30.0640384 134.6743708  -8.0684980
  35.2229992 132.9329978  -7.9089986  35.8259992 133.4809978  -8.4109986
  34.3529992 133.2519978  -8.1499986  35.1879157 133.0510373  -8.0102090
  36.9499992 134.0719978  -9.5759986  37.5609992 133.5579978 -10.1029986
  37.3319992 134.9489978  -9.5529986  37.0853305 134.1202050  -9.6450582
  22.4069992 133.4599978 -10.1999986  21.6299992 133.2249978 -10.7069986
  22.9369992 132.6629978 -10.1909986  22.3723451 133.3201268 -10.2681373
  21.2429992 133.2579978 -14.3959986  21.6819992 133.8689978 -14.9879986
  20.6089992 133.7959978 -13.9219986  21.2173859 133.4144064 -14.4129695
  26.9859992 133.3859978 -10.3869986  27.8599992 133.7749978 -10.4159986
  26.8499992 133.1709978  -9.4639986  27.0871953 133.4101643 -10.2662383
  32.5429992 133.4159978  -8.7369986  32.6189992 133.5119978  -9.6869986
  32.2679992 132.5089978  -8.6089986  32.5161871 133.3064146  -8.8496056
  33.8959992 133.4419978 -13.0449986  33.1929992 134.0569978 -13.2549986
  33.4509992 132.6049978 -12.9139986  33.7396550 133.4129668 -13.0560163
  23.1039992 135.1739978 -15.9539986  23.5949992 134.5439978 -16.4809986
  23.7269992 135.4699978 -15.2909986  23.2555304 135.1277376 -15.9365060
  28.1299992 135.4669978 -13.4969986  28.3079992 134.8199978 -12.8139986
  28.0759992 136.3009978 -13.0299986  28.1470678 135.4911604 -13.3403699
  22.3639992 133.9739978  -0.6819986  21.9979992 133.2079978  -0.2399986
  23.2769992 134.0029978  -0.3959986  22.4373172 133.8730324  -0.5828110
  24.3369992 133.3239978   0.8530014  25.2359992 133.0499978   0.6690014
  23.9509992 132.5819978   1.3180014  24.4077307 133.1862196   0.8907098
  32.7589992 132.6569978   1.0360014  32.8349992 132.2309978   1.8890014
  33.6519992 132.6699978   0.6930014  32.8902303 132.6003493   1.1065497
  50.3409992 142.6159978 -10.2409986  50.4299992 143.5599978 -10.3729986
  49.7029992 142.3409978 -10.8989986  50.2669062 142.7079812 -10.3480359
  49.2739992 141.8709978  -6.8219986  49.2359992 141.2249978  -6.1169986
  48.9519992 141.4039978  -7.5929986  49.2252679 141.7194276  -6.8297079
  41.6419992 141.4849978  -5.2289986  41.6839992 140.8599978  -4.5059986
  42.3449992 142.1089978  -5.0469986  41.7427345 141.4837873  -5.1054726
  52.9799992 144.8099978  -8.5209986  52.5389992 144.0899978  -8.0699986
  52.9669992 145.5309978  -7.8909986  52.9179215 144.8089291  -8.3741895
  39.1759992 139.5949978 -11.3019986  38.7279992 140.4409978 -11.3199986
  38.6149992 139.0159978 -11.8169986  39.0388546 139.6323993 -11.3741109
  39.8859992 141.7569978  -9.1759986  40.0999992 140.9869978  -8.6479986
  40.6239992 141.8469978  -9.7789986  40.0150200 141.6638587  -9.1852965
  47.6629992 144.3029978  -6.4159986  47.9669992 143.6169978  -7.0109986
  48.3849992 144.4219978  -5.7979986  47.8021240 144.2252314  -6.4139041
  56.3259992 135.9049978  -5.5559986  56.3759992 136.5149978  -4.8199986
  56.7519992 136.3659978  -6.2789986  56.3904108 136.0507709  -5.5529888
  50.8039992 138.6969978  -6.0889986  50.9469992 137.7509978  -6.0689986
  50.6979992 138.9039978  -7.0169986  50.8092403 138.5954797  -6.2117761
  43.9589992 136.7989978  -8.8159986  44.0019992 137.6589978  -9.2349986
  43.5009992 136.2469978  -9.4499986  43.9029871 136.8419245  -8.9589239
  51.6809992 136.9299978 -10.4149986  52.3279992 136.6009978  -9.7909986
  52.1909992 137.4469978 -11.0379986  51.8384351 136.9549067 -10.4138963
  40.5789992 139.1959978  -8.0539986  41.2329992 138.6459978  -7.6219986
  40.6029992 138.9219978  -8.9709986  40.6717199 139.0837167  -8.1188332
  45.7359992 140.7459978  -8.8389986  46.3519992 140.2189978  -8.3299986
  45.1489992 140.1059978  -9.2429986  45.7410154 140.5873954  -8.8239055
  56.7179992 137.3829978  -3.3199986  56.0289992 138.0409978  -3.4149986
  56.7329992 137.1849978  -2.3829986  56.6257756 137.4462603  -3.2064188
  42.7689992 135.7169978  -4.7419986  42.5499992 136.2469978  -5.5089986
  42.1009992 135.9429978  -4.0949986  42.6486975 135.8200967  -4.7594860
  50.1379992 145.2169978 -11.1979986  49.8429992 144.8939978 -12.0499986
  49.8139992 146.1169978 -11.1569986  50.0538460 145.2944464 -11.3090286
  45.3379992 143.3919978  -4.4549986  44.5979992 143.9909978  -4.3509986
  46.0519992 143.9459978  -4.7699986  45.3333500 143.5487829  -4.4833629
  53.4449992 136.2209978  -8.4349986  53.2299992 135.4549978  -7.9019986
  54.1009992 136.6929978  -7.9219986  53.5042673 136.1800728  -8.2928010
  42.3629992 137.6089978  -6.7899986  42.9769992 138.2419978  -6.4169986
  42.8749992 137.1369978  -7.4459986  42.5161962 137.6317249  -6.8277065
  43.7459992 145.3569978  -3.6679986  43.7399992 146.2359978  -4.0459986
  42.8919992 145.2729978  -3.2429986  43.6297925 145.4659535  -3.6623113
  39.8669992 145.0279978 -12.8859986  39.5949992 145.2569978 -13.7739986
  39.9119992 145.8649978 -12.4249986  39.8358097 145.1726163 -12.9453317
  53.7919992 134.9359978  -4.7559986  53.0559992 135.5459978  -4.7929986
  54.4759992 135.3509978  -5.2819986  53.7835367 135.0757551  -4.8321826
  46.7959992 133.0219978  -7.2899986  46.6779992 132.0739978  -7.3439986
  45.9409992 133.3549978  -7.0169986  46.6642805 132.9372202  -7.2604921
  54.5899992 144.8979978  -2.5619986  54.7289992 144.3059978  -3.3009986
  54.7569992 145.7709978  -2.9179986  54.6316193 144.9348896  -2.7113789
  49.0619992 141.8599978 -12.7889986  48.3509992 142.3949978 -13.1409986
  49.7529992 141.9149978 -13.4489986  49.0580751 141.9406777 -12.9264142
  49.1159992 140.3169978 -15.7509986  49.8169992 140.3399978 -15.0989986
  49.4179992 139.6889978 -16.4069986  49.2528202 140.2352212 -15.7504391
  56.4309992 141.2379978  -4.4959986  55.7789992 141.9319978  -4.4069986
  56.8969992 141.4479978  -5.3059986  56.4045937 141.3615019  -4.5932467
  52.4679992 142.0689978 -11.8379986  51.7359992 142.2979978 -11.2639986
  52.9149992 141.3559978 -11.3829986  52.4283963 142.0038729 -11.6980055
  52.3649992 140.2439978  -2.7699986  52.4449992 141.0069978  -2.1979986
  51.7639992 140.5229978  -3.4599986  52.2946547 140.3862457  -2.7849953
  44.1129992 142.6999978  -9.9549986  43.7829992 142.3289978 -10.7729986
  44.7019992 142.0289978  -9.6079986  44.1473970 142.5586063 -10.0200596
  44.4799992 141.4679978  -6.3219986  45.0449992 141.5899978  -7.0839986
  44.7989992 142.1059978  -5.6829986  44.6004166 141.5708791  -6.3399652
  51.3389992 141.2319978 -14.1519986  51.9179992 141.3819978 -13.4059986
  51.7529992 141.7019978 -14.8759986  51.4743358 141.3160955 -14.1476047
  42.2799992 142.0659978  -2.3759986  42.3499992 142.7169978  -1.6769986
  41.3889992 142.1689978  -2.7109986  42.1691690 142.1689249  -2.3256957
  55.0379992 132.9819978 -14.3389986  54.1379992 133.1209978 -14.0439986
  55.2899992 133.8129978 -14.7409986  54.9488683 133.1134055 -14.3529768
  43.1039992 141.7689978 -12.3659986  42.8119992 142.5369978 -12.8569986
  42.4289992 141.1099978 -12.5289986  42.9728497 141.7849745 -12.4551740
  39.1969992 144.1319978  -3.5509986  38.6949992 144.1039978  -4.3659986
  39.2019992 143.2269978  -3.2409986  39.1289832 144.0057486  -3.6205879
  54.2969992 139.0719978  -0.5039986  53.8889992 139.5519978  -1.2249986
  54.3369992 138.1659978  -0.8119986  54.2466221 139.0152449  -0.6441733
  41.4459992 145.4559978  -2.5079986  41.6619992 145.0939978  -1.6479986
  40.5899992 145.0809978  -2.7169986  41.3598810 145.3558837  -2.4187320
  44.0639992 133.9259978  -6.5119986  43.2029992 133.8389978  -6.9199986
  44.0419992 134.7819978  -6.0839986  43.9430491 134.0298003  -6.5100418
  48.7269992 133.6479978  -3.1369986  49.1469992 133.2329978  -2.3839986
  47.7939992 133.4689978  -3.0199986  48.6583736 133.5669910  -3.0181032
  52.0539992 137.4029978  -2.2839986  51.5399992 137.2779978  -1.4859986
  51.8979992 138.3159978  -2.5279986  51.9626967 137.5092123  -2.2079063
  52.8159992 142.2639978 -16.5229986  52.8579992 142.0419978 -17.4529986
  53.6649992 142.6629978 -16.3329986  52.9365253 142.2875498 -16.6246178
  48.3889992 136.1399978 -15.8519986  48.1349992 136.1589978 -14.9299986
  48.1319992 135.2689978 -16.1539986  48.3194508 136.0248280 -15.7665197
  44.1549992 138.8909978  -5.4169986  43.5139992 138.8509978  -4.7079986
  44.1929992 139.8179978  -5.6549986  44.0723010 139.0107668  -5.3520054
  44.1519992 139.1119978 -10.5049986  43.2599992 138.7719978 -10.5639986
  44.6029992 138.7349978 -11.2609986  44.0907642 139.0144910 -10.6152274
  49.6879992 139.5279978 -11.6879986  49.2789992 140.3429978 -11.9799986
  50.4079992 139.3879978 -12.3019986  49.7294439 139.6205372 -11.8109885
  48.7899992 139.7039978  -0.1999986  48.2269992 138.9989978   0.1210014
  49.6159992 139.5829978   0.2680014  48.8246674 139.5912165  -0.0928249
  50.6929992 138.9739978  -8.8739986  50.4969992 139.5799978  -9.5889986
  50.8739992 138.1409978  -9.3079986  50.6906584 138.9442513  -9.0305788
  41.9049992 139.2119978  -3.5499986  41.8669992 139.6119978  -2.6809986
  41.4149992 138.3949978  -3.4599986  41.8335330 139.1562674  -3.4188711
  45.2709992 136.5859978 -16.7509986  44.8399992 136.1409978 -16.0219986
  44.5529992 136.9569978 -17.2639986  45.1149176 136.5752051 -16.7205070
  38.5139992 136.3279978  -9.6989986  39.1439992 136.2989978  -8.9799986
  38.9629992 135.9029978 -10.4299986  38.6610835 136.2665660  -9.6992341
  39.7879992 137.0739978 -14.2749986  40.2619992 137.6649978 -14.8599986
  39.0699992 137.6039978 -13.9279986  39.7558640 137.2265511 -14.3082031
  49.9569992 140.6119978  -4.2029986  50.2799992 139.9809978  -4.8459986
  49.5159992 140.0779978  -3.5419986  49.9416379 140.4533468  -4.2017418
  46.7339992 136.5399978  -9.4189986  45.8229992 136.5969978  -9.1299986
  47.2389992 136.4799978  -8.6079986  46.6776873 136.5396826  -9.2698793
  41.5619992 138.1689978 -10.5919986  40.6729992 138.2679978 -10.9319986
  41.8589992 137.3269978 -10.9379986  41.4804177 138.0687687 -10.6853060
  45.2149992 138.1689978 -12.9349986  46.1469992 138.2979978 -12.7569986
  44.9999992 138.8379978 -13.5849986  45.3134472 138.2770806 -12.9985109
  51.1389992 135.7749978  -6.1539986  50.4619992 135.9059978  -5.4909986
  50.6539992 135.6199978  -6.9649986  50.9807405 135.7719947  -6.1727830
  43.8889992 139.3629978 -15.3689986  43.3469992 138.9839978 -16.0599986
  44.7229992 139.5579978 -15.7969986  43.9274390 139.3374079 -15.5215608
  42.0249992 143.9199978  -0.2699986  42.7569992 144.1749978   0.2920014
  41.2439992 144.1249978   0.2460014  42.0196526 143.9825450  -0.1234824
  48.0539992 139.3269978  -7.5319986  48.6179992 138.7809978  -8.0789986
  47.9059992 138.8059978  -6.7429986  48.1113037 139.1816787  -7.5002771
  43.0559992 135.4639978 -11.1129986  42.7389992 134.5609978 -11.1489986
  43.8369992 135.4659978 -11.6659986  43.1182431 135.3407797 -11.1926898
  46.6799992 137.7159978  -5.1179986  45.8449992 138.1699978  -5.0069986
  47.2039992 137.9919978  -4.3659986  46.6366072 137.8153948  -5.0011864
  47.2249992 143.9289978 -13.4329986  46.4799992 143.4209978 -13.7549986
  47.0899992 143.9779978 -12.4869986  47.1048963 143.8661731 -13.3491174
  54.3749992 143.0619978  -4.6459986  55.0159992 143.5179978  -5.1899986
  53.5439992 143.1749978  -5.1089986  54.3505287 143.1396921  -4.7830113
  51.1219992 136.7429978 -15.2339986  50.1839992 136.8539978 -15.3849986
  51.4199992 137.5989978 -14.9269986  51.0336318 136.8740158 -15.2131855
  48.7439992 144.1129978  -2.1959986  48.3979992 143.7309978  -1.3889986
  48.5439992 145.0459978  -2.1249986  48.6695987 144.1869002  -2.0759539
  51.8409992 138.6099978 -13.5729986  52.7329992 138.4719978 -13.2539986
  51.8969992 139.4009978 -14.1099986  51.9707325 138.6979918 -13.6018783
  42.3489992 143.2239978  -7.6629986  43.0939992 143.2209978  -8.2649986
  42.4269992 142.3999978  -7.1819986  42.4613365 143.1122384  -7.6802570
  49.3499992 145.3869978 -14.4079986  49.0549992 146.2139978 -14.0259986
  48.6469992 144.7679978 -14.2109986  49.2146379 145.4164171 -14.3291346
  39.3569992 141.6839978  -2.3479986  39.5799992 141.2659978  -1.5169986
  38.7549992 141.0719978  -2.7709986  39.3061513 141.5439606  -2.2913260
  46.3739992 141.2009978  -0.1349986  46.0779992 141.0359978  -1.0309986
  47.3049992 140.9809978  -0.1459986  46.4594401 141.1486879  -0.2589794
  56.7259992 138.8189978 -13.8779986  56.1709992 138.4229978 -14.5509986
  56.8259992 139.7299978 -14.1559986  56.6636816 138.8879505 -14.0074967
  56.6889992 144.6199978  -1.0409986  55.8379992 144.8579978  -1.4089986
  57.2789992 144.6029978  -1.7939986  56.6523812 144.6502524  -1.1931547
  52.1809992 142.4129978  -6.3919986  51.2529992 142.1819978  -6.4189986
  52.6319992 141.6359978  -6.7219986  52.1148165 142.2762774  -6.4403210
  40.4789992 141.6039978 -15.6719986  41.0949992 142.2309978 -15.2919986
  39.6169992 141.9199978 -15.3999986  40.4467678 141.7324412 -15.5832791
  46.1519992 144.4049978 -10.6829986  45.9109992 145.3299978 -10.6409986
  45.4109992 143.9459978 -10.2859986  46.0189206 144.4695915 -10.6236231
  50.2099992 144.6529978  -4.6669986  49.7849992 144.4249978  -3.8409986
  50.7909992 143.9139978  -4.8489986  50.2303395 144.5219545  -4.5785586
  40.9909992 136.4379978  -2.7899986  40.0989992 136.7759978  -2.8579986
  40.8929992 135.5819978  -2.3719986  40.8554475 136.3686543  -2.7428296
  53.2789992 144.2539978 -13.3659986  53.0019992 143.5259978 -12.8099986
  54.2069992 144.3729978 -13.1609986  53.3664499 144.1704213 -13.2621956
  41.8939992 143.5159978 -14.1789986  41.2079992 143.8689978 -13.6119986
  42.4169992 144.2789978 -14.4259986  41.8708402 143.6673901 -14.1348199
  49.7259992 136.1789978  -3.8999986  50.4249992 136.2529978  -3.2499986
  49.3449992 135.3139978  -3.7459986  49.7702097 136.0722389  -3.7902003
  50.5099992 135.8309978 -12.8029986  50.7299992 136.3019978 -13.6069986
  51.0689992 136.2249978 -12.1329986  50.6156731 135.9487287 -12.8224967
  47.7099992 137.5589978 -11.9679986  48.5219992 138.0629978 -11.9219986
  47.4659992 137.4139978 -11.0539986  47.7881467 137.6083749 -11.8381425
  48.2459992 138.5449978  -2.7839986  48.3649992 139.1189978  -2.0269986
  48.9009992 137.8569978  -2.6689986  48.3508684 138.5305194  -2.6648326
  48.5939992 134.6399978 -11.0299986  48.2469992 135.2569978 -10.3859986
  49.2529992 135.1409978 -11.5119986  48.6355090 134.7921575 -11.0069319
  44.2519992 135.7029978 -14.3429986  44.1679992 136.5909978 -13.9959986
  45.1419992 135.4379978 -14.1109986  44.3608163 135.7887179 -14.2641404
  54.4499992 136.4519978  -1.9489986  53.5339992 136.7139978  -2.0359986
  54.7859992 136.4489978  -2.8449986  54.3698499 136.4875163  -2.0821234
  53.0529992 140.2019978  -7.8529986  52.2549992 139.7869978  -8.1809986
  53.4979992 139.5119978  -7.3619986  53.0039684 140.0518628  -7.8314773
  40.8259992 138.7949978 -16.1669986  40.7809992 139.7339978 -15.9879986
  39.9379992 138.5589978 -16.4359986  40.6998166 138.8916687 -16.1788476
  41.6339992 133.5759978  -7.4929986  41.4049992 133.6349978  -8.4209986
  41.1919992 132.7849978  -7.1869986  41.5428801 133.4770540  -7.5785271
  39.7599992 143.9399978   0.9510014  39.9039992 143.0379978   0.6650014
  38.9879992 144.2259978   0.4640014  39.6752733 143.8551798   0.8459532
  44.1009992 144.2829978 -16.9159986  44.1659992 143.4889978 -16.3859986
  44.7539992 144.1649978 -17.6059986  44.1981605 144.1583430 -16.9367003
  46.4149992 143.9089978   0.3840014  46.0869992 144.1799978  -0.4729986
  46.5669992 142.9679978   0.2960014  46.3906412 143.8189046   0.2547822
  52.1499992 143.8249978  -2.2329986  52.8949992 144.4139978  -2.3519986
  51.3929992 144.4069978  -2.1689986  52.1495470 143.9842128  -2.2406201
  40.5929992 141.1399978   0.3710014  41.0009992 140.2829978   0.2500014
  40.3319992 141.1539978   1.2920014  40.6136016 141.0245119   0.4789192
  45.2509992 142.2559978 -14.6099986  44.7909992 141.7719978 -13.9249986
  45.5059992 141.5869978 -15.2459986  45.2224856 142.0993669 -14.6021603
  44.5399992 140.1489978  -2.2539986  43.9209992 140.8229978  -1.9739986
  44.8839992 140.4699978  -3.0879986  44.5017123 140.2846887  -2.3283612
  46.3219992 140.4989978 -16.3479986  46.1409992 140.3439978 -17.2749986
  47.2719992 140.6069978 -16.3029986  46.4256566 140.4923669 -16.4689071
  49.5589992 142.6199978   1.0230014  50.5129992 142.7039978   0.9960014
  49.3989992 141.9079978   1.6430014  49.6677182 142.5352842   1.1030733
  55.7119992 142.8529978 -16.9019986  55.4379992 142.4289978 -17.7149986
  55.7509992 143.7849978 -17.1189986  55.6797716 142.9208827 -17.0425714
  44.8789992 137.5039978  -1.1719986  45.0289992 136.7749978  -1.7739986
  44.8809992 138.2809978  -1.7309986  44.8997967 137.5092708  -1.3299459
  45.2919992 135.8729978  -3.6789986  45.8269992 136.3249978  -4.3309986
  44.4389992 135.7649978  -4.1019986  45.2500374 135.9202665  -3.8253290
  46.8729992 141.3129978  -3.4399986  47.6239992 141.1569978  -4.0129986
  46.5339992 142.1649978  -3.7149986  46.9299587 141.4068138  -3.5555922
  51.2889992 139.1279978   1.5890014  51.4809992 138.1969978   1.4770014
  52.1469992 139.5529978   1.5780014  51.4312182 139.0580070   1.5721862
  52.6059992 141.9169978  -0.3339986  52.3239992 142.6259978  -0.9119986
  53.5479992 141.8439978  -0.4849986  52.6947921 142.0042193  -0.4335775
  43.3579992 138.7019978   0.7390014  42.5899992 138.1689978   0.5290014
  44.0359992 138.3919978   0.1400014  43.3447235 138.5871754   0.6292413
  46.0969992 133.3299978  -3.2479986  45.9989992 134.2759978  -3.3529986
  45.3549992 132.9569978  -3.7239986  45.9832534 133.4091773  -3.3267400
  47.3609992 137.6509978   0.3160014  47.1259992 137.4319978   1.2170014
  46.5779992 137.4439978  -0.1939986  47.2229095 137.5929892   0.3705353
  50.0769992 136.7789978  -0.6089986  49.1289992 136.8109978  -0.4769986
  50.3889992 136.1529978   0.0450014  49.9895293 136.6987923  -0.5025852
  51.7109992 135.4129978   1.3960014  51.6139992 134.4609978   1.3910014
  51.3889992 135.6809978   2.2570014  51.6542468 135.3190884   1.5116210
  41.5379992 136.6219978   0.4440014  41.7499992 135.9159978  -0.1659986
  41.4269992 136.1849978   1.2880014  41.5520269 136.4661921   0.4745873
  46.3189992 132.6239978  -0.5769986  47.0309992 131.9839978  -0.5909986
  46.2179992 132.8899978  -1.4899986  46.4027387 132.5724330  -0.7024437
  46.6729992 134.3059978   1.4770014  46.5409992 133.8309978   0.6570014
  46.0729992 135.0509978   1.4220014  46.5739070 134.3415789   1.3573251
  54.8689992 145.4659978   1.5590014  54.0029992 145.3609978   1.9530014
  55.2449992 146.2239978   2.0050014  54.8013401 145.5541708   1.6732620
  56.1699992 143.7219978 -12.9269986  57.0199992 144.1429978 -12.7999986
  56.1749992 142.9819978 -12.3199986  56.2871143 143.6796094 -12.8275250
  56.5639992 141.7759978 -11.1039986  55.8379992 141.2959978 -10.7059986
  57.1459992 141.9809978 -10.3709986  56.5432730 141.7380184 -10.9505851
  56.3229992 144.5609978  -6.1559986  57.1569992 144.1829978  -6.4369986
  56.4349992 145.5039978  -6.2749986  56.4521917 144.6367943  -6.2105139
  56.8329992 141.6769978 -14.7129986  56.3109992 142.0329978 -15.4309986
  56.7999992 142.3519978 -14.0339986  56.7570129 141.8169598 -14.7196645
  55.1819992 138.9159978 -16.1619986  55.2779992 139.5829978 -16.8419986
  55.0419992 138.1009978 -16.6429986  55.1762040 138.8970671 -16.3201622
  54.3509992 140.2969978 -10.5409986  54.2009992 139.3519978 -10.5609986
  53.9969992 140.5779978  -9.6969986  54.2826351 140.2056644 -10.4296780
  39.3859992 142.3749978  -6.5299986  39.5709992 142.2929978  -7.4659986
  40.2359992 142.2509978  -6.1069986  39.5260928 142.3470463  -6.6007107
  55.2069992 142.2669978  -0.9019986  55.7899992 141.5319978  -0.7099986
  55.7709992 143.0389978  -0.8549986  55.3629781 142.2708145  -0.8693836
  56.7039992 140.1699978  -0.2169986  55.8409992 139.7909978  -0.3829986
  57.3079992 139.4309978  -0.2919986  56.6676085 140.0183223  -0.2498305
  54.4289992 136.3239978 -17.0439986  55.0399992 135.9529978 -16.4069986
  53.5919992 135.9029978 -16.8479986  54.3994947 136.2162756 -16.9302748
  54.0619992 137.8789978 -12.0779986  54.3409992 136.9719978 -11.9539986
  54.8209992 138.3129978 -12.4669986  54.2028619 137.8134502 -12.1136205
  54.6729992 138.4609978  -6.6419986  55.6059992 138.6729978  -6.6769986
  54.4379992 138.5619978  -5.7199986  54.7689517 138.5036833  -6.5220870
  54.7029992 139.1979978  -3.8659986  53.8599992 139.4659978  -3.4999986
  55.1449992 140.0199978  -4.0769986  54.6474138 139.3458273  -3.8444482
  38.9839992 137.6449978  -0.3899986  39.9029992 137.5229978  -0.1529986
  38.5339992 136.8949978   0.0000014  39.0490087 137.5269608  -0.3048590
  56.9859992 133.1779978   1.4870014  57.3349992 132.5239978   0.8820014
  57.1329992 134.0149978   1.0470014  57.0536824 133.2016024   1.3446304
  54.6749992 135.1419978 -12.0299986  54.8569992 134.6929978 -11.2049986
  54.0749992 134.5579978 -12.4939986  54.6188187 135.0015552 -11.9797261
  40.2049992 135.9579978  -7.4979986  40.6499992 135.1659978  -7.1959986
  40.6709992 136.6739978  -7.0679986  40.3289718 135.9464534  -7.3984735
  38.5089992 138.9569978  -6.4289986  39.0009992 138.7359978  -7.2199986
  38.8709992 139.7969978  -6.1479986  38.6252923 139.0403468  -6.4992593
  56.5049992 135.2869978  -0.1639986  55.5879992 135.5579978  -0.1989986
  56.6279992 134.7519978  -0.9479986  56.3959672 135.2517885  -0.2748138
  56.5419992 135.2099978 -15.5019986  56.9539992 134.4889978 -15.9769986
  57.2229992 135.8789978 -15.4439986  56.6905536 135.2017766 -15.5591976
  38.8229992 135.2149978 -12.3749986  37.8979992 135.4229978 -12.5039986
  39.2769992 135.6989978 -13.0649986  38.7576298 135.3089299 -12.4859549
  38.7859992 133.9529978  -4.0309986  38.1209992 133.7069978  -3.3879986
  38.3429992 134.5749978  -4.6079986  38.6351168 134.0034214  -4.0210152
  55.5059992 133.3769978  -2.3449986  54.6929992 133.7019978  -2.7319986
  55.7389992 132.6159978  -2.8779986  55.4261347 133.3186880  -2.4700159
  48.9359992 134.8259978  -8.0219986  48.2619992 134.1959978  -7.7659986
  49.4999992 134.3419978  -8.6249986  48.9200384 134.6743708  -8.0684980
  54.0789992 132.9329978  -7.9089986  54.6819992 133.4809978  -8.4109986
  53.2089992 133.2519978  -8.1499986  54.0439157 133.0510373  -8.0102090
  55.8059992 134.0719978  -9.5759986  56.4169992 133.5579978 -10.1029986
  56.1879992 134.9489978  -9.5529986  55.9413305 134.1202050  -9.6450582
  41.2629992 133.4599978 -10.1999986  40.4859992 133.2249978 -10.7069986
  41.7929992 132.6629978 -10.1909986  41.2283451 133.3201268 -10.2681373
  40.0989992 133.2579978 -14.3959986  40.5379992 133.8689978 -14.9879986
  39.4649992 133.7959978 -13.9219986  40.0733859 133.4144064 -14.4129695
  45.8419992 133.3859978 -10.3869986  46.7159992 133.7749978 -10.4159986
  45.7059992 133.1709978  -9.4639986  45.9431953 133.4101643 -10.2662383
  51.3989992 133.4159978  -8.7369986  51.4749992 133.5119978  -9.6869986
  51.1239992 132.5089978  -8.6089986  51.3721871 133.3064146  -8.8496056
  52.7519992 133.4419978 -13.0449986  52.0489992 134.0569978 -13.2549986
  52.3069992 132.6049978 -12.9139986  52.5956550 133.4129668 -13.0560163
  41.9599992 135.1739978 -15.9539986  42.4509992 134.5439978 -16.4809986
  42.5829992 135.4699978 -15.2909986  42.1115304 135.1277376 -15.9365060
  46.9859992 135.4669978 -13.4969986  47.1639992 134.8199978 -12.8139986
  46.9319992 136.3009978 -13.0299986  47.0030678 135.4911604 -13.3403699
  41.2199992 133.9739978  -0.6819986  40.8539992 133.2079978  -0.2399986
  42.1329992 134.0029978  -0.3959986  41.2933172 133.8730324  -0.5828110
  43.1929992 133.3239978   0.8530014  44.0919992 133.0499978   0.6690014
  42.8069992 132.5819978   1.3180014  43.2637307 133.1862196   0.8907098
  51.6149992 132.6569978   1.0360014  51.6909992 132.2309978   1.8890014
  52.5079992 132.6699978   0.6930014  51.7462303 132.6003493   1.1065497
  69.1969992 142.6159978 -10.2409986  69.2859992 143.5599978 -10.3729986
  68.5589992 142.3409978 -10.8989986  69.1229062 142.7079812 -10.3480359
  68.1299992 141.8709978  -6.8219986  68.0919992 141.2249978  -6.1169986
  67.8079992 141.4039978  -7.5929986  68.0812679 141.7194276  -6.8297079
  60.4979992 141.4849978  -5.2289986  60.5399992 140.8599978  -4.5059986
  61.2009992 142.1089978  -5.0469986  60.5987345 141.4837873  -5.1054727
  71.8359992 144.8099978  -8.5209986  71.3949992 144.0899978  -8.0699986
  71.8229992 145.5309978  -7.8909986  71.7739215 144.8089291  -8.3741895
  58.0319992 139.5949978 -11.3019986  57.5839992 140.4409978 -11.3199986
  57.4709992 139.0159978 -11.8169986  57.8948546 139.6323993 -11.3741109
  58.7419992 141.7569978  -9.1759986  58.9559992 140.9869978  -8.6479986
  59.4799992 141.8469978  -9.7789986  58.8710200 141.6638587  -9.1852965
  66.5189992 144.3029978  -6.4159986  66.8229992 143.6169978  -7.0109986
  67.2409992 144.4219978  -5.7979986  66.6581240 144.2252314  -6.4139041
  75.1819992 135.9049978  -5.5559986  75.2319992 136.5149978  -4.8199986
  75.6079992 136.3659978  -6.2789986  75.2464108 136.0507709  -5.5529888
  69.6599992 138.6969978  -6.0889986  69.8029992 137.7509978  -6.0689986
  69.5539992 138.9039978  -7.0169986  69.6652403 138.5954797  -6.2117761
  62.8149992 136.7989978  -8.8159986  62.8579992 137.6589978  -9.2349986
  62.3569992 136.2469978  -9.4499986  62.7589871 136.8419245  -8.9589239
  70.5369992 136.9299978 -10.4149986  71.1839992 136.6009978  -9.7909986
  71.0469992 137.4469978 -11.0379986  70.6944351 136.9549067 -10.4138963
  59.4349992 139.1959978  -8.0539986  60.0889992 138.6459978  -7.6219986
  59.4589992 138.9219978  -8.9709986  59.5277199 139.0837167  -8.1188332
  64.5919992 140.7459978  -8.8389986  65.2079992 140.2189978  -8.3299986
  64.0049992 140.1059978  -9.2429986  64.5970154 140.5873954  -8.8239055
  75.5739992 137.3829978  -3.3199986  74.8849992 138.0409978  -3.4149986
  75.5889992 137.1849978  -2.3829986  75.4817756 137.4462603  -3.2064188
  61.6249992 135.7169978  -4.7419986  61.4059992 136.2469978  -5.5089986
  60.9569992 135.9429978  -4.0949986  61.5046975 135.8200967  -4.7594860
  68.9939992 145.2169978 -11.1979986  68.6989992 144.8939978 -12.0499986
  68.6699992 146.1169978 -11.1569986  68.9098460 145.2944464 -11.3090286
  64.1939992 143.3919978  -4.4549986  63.4539992 143.9909978  -4.3509986
  64.9079992 143.9459978  -4.7699986  64.1893500 143.5487829  -4.4833629
  72.3009992 136.2209978  -8.4349986  72.0859992 135.4549978  -7.9019986
  72.9569992 136.6929978  -7.9219986  72.3602673 136.1800728  -8.2928010
  61.2189992 137.6089978  -6.7899986  61.8329992 138.2419978  -6.4169986
  61.7309992 137.1369978  -7.4459986  61.3721962 137.6317249  -6.8277065
  62.6019992 145.3569978  -3.6679986  62.5959992 146.2359978  -4.0459986
  61.7479992 145.2729978  -3.2429986  62.4857925 145.4659535  -3.6623113
  58.7229992 145.0279978 -12.8859986  58.4509992 145.2569978 -13.7739986
  58.7679992 145.8649978 -12.4249986  58.6918097 145.1726163 -12.9453317
  72.6479992 134.9359978  -4.7559986  71.9119992 135.5459978  -4.7929986
  73.3319992 135.3509978  -5.2819986  72.6395367 135.0757551  -4.8321826
  65.6519992 133.0219978  -7.2899986  65.5339992 132.0739978  -7.3439986
  64.7969992 133.3549978  -7.0169986  65.5202805 132.9372202  -7.2604921
  73.4459992 144.8979978  -2.5619986  73.5849992 144.3059978  -3.3009986
  73.6129992 145.7709978  -2.9179986  73.4876193 144.9348896  -2.7113789
  67.9179992 141.8599978 -12.7889986  67.2069992 142.3949978 -13.1409986
  68.6089992 141.9149978 -13.4489986  67.9140751 141.9406777 -12.9264142
  67.9719992 140.3169978 -15.7509986  68.6729992 140.3399978 -15.0989986
  68.2739992 139.6889978 -16.4069986  68.1088202 140.2352212 -15.7504391
  75.2869992 141.2379978  -4.4959986  74.6349992 141.9319978  -4.4069986
  75.7529992 141.4479978  -5.3059986  75.2605937 141.3615019  -4.5932467
  71.3239992 142.0689978 -11.8379986  70.5919992 142.2979978 -11.2639986
  71.7709992 141.3559978 -11.3829986  71.2843963 142.0038729 -11.6980055
  71.2209992 140.2439978  -2.7699986  71.3009992 141.0069978  -2.1979986
  70.6199992 140.5229978  -3.4599986  71.1506547 140.3862457  -2.7849953
  62.9689992 142.6999978  -9.9549986  62.6389992 142.3289978 -10.7729986
  63.5579992 142.0289978  -9.6079986  63.0033970 142.5586063 -10.0200596
  63.3359992 141.4679978  -6.3219986  63.9009992 141.5899978  -7.0839986
  63.6549992 142.1059978  -5.6829986  63.4564166 141.5708791  -6.3399652
  70.1949992 141.2319978 -14.1519986  70.7739992 141.3819978 -13.4059986
  70.6089992 141.7019978 -14.8759986  70.3303358 141.3160955 -14.1476047
  61.1359992 142.0659978  -2.3759986  61.2059992 142.7169978  -1.6769986
  60.2449992 142.1689978  -2.7109986  61.0251690 142.1689249  -2.3256957
  73.8939992 132.9819978 -14.3389986  72.9939992 133.1209978 -14.0439986
  74.1459992 133.8129978 -14.7409986  73.8048683 133.1134055 -14.3529768
  61.9599992 141.7689978 -12.3659986  61.6679992 142.5369978 -12.8569986
  61.2849992 141.1099978 -12.5289986  61.8288497 141.7849745 -12.4551740
  58.0529992 144.1319978  -3.5509986  57.5509992 144.1039978  -4.3659986
  58.0579992 143.2269978  -3.2409986  57.9849832 144.0057486  -3.6205879
  73.1529992 139.0719978  -0.5039986  72.7449992 139.5519978  -1.2249986
  73.1929992 138.1659978  -0.8119986  73.1026221 139.0152449  -0.6441733
  60.3019992 145.4559978  -2.5079986  60.5179992 145.0939978  -1.6479986
  59.4459992 145.0809978  -2.7169986  60.2158810 145.3558837  -2.4187320
  62.9199992 133.9259978  -6.5119986  62.0589992 133.8389978  -6.9199986
  62.8979992 134.7819978  -6.0839986  62.7990491 134.0298003  -6.5100418
  67.5829992 133.6479978  -3.1369986  68.0029992 133.2329978  -2.3839986
  66.6499992 133.4689978  -3.0199986  67.5143736 133.5669910  -3.0181032
  70.9099992 137.4029978  -2.2839986  70.3959992 137.2779978  -1.4859986
  70.7539992 138.3159978  -2.5279986  70.8186967 137.5092123  -2.2079063
  71.6719992 142.2639978 -16.5229986  71.7139992 142.0419978 -17.4529986
  72.5209992 142.6629978 -16.3329986  71.7925253 142.2875498 -16.6246178
  67.2449992 136.1399978 -15.8519986  66.9909992 136.1589978 -14.9299986
  66.9879992 135.2689978 -16.1539986  67.1754508 136.0248280 -15.7665197
  63.0109992 138.8909978  -5.4169986  62.3699992 138.8509978  -4.7079986
  63.0489992 139.8179978  -5.6549986  62.9283010 139.0107668  -5.3520054
  63.0079992 139.1119978 -10.5049986  62.1159992 138.7719978 -10.5639986
  63.4589992 138.7349978 -11.2609986  62.9467642 139.0144910 -10.6152274
  68.5439992 139.5279978 -11.6879986  68.1349992 140.3429978 -11.9799986
  69.2639992 139.3879978 -12.3019986  68.5854439 139.6205372 -11.8109885
  67.6459992 139.7039978  -0.1999986  67.0829992 138.9989978   0.1210014
  68.4719992 139.5829978   0.2680014  67.6806674 139.5912165  -0.0928249
  69.5489992 138.9739978  -8.8739986  69.3529992 139.5799978  -9.5889986
  69.7299992 138.1409978  -9.3079986  69.5466584 138.9442513  -9.0305788
  60.7609992 139.2119978  -3.5499986  60.7229992 139.6119978  -2.6809986
  60.2709992 138.3949978  -3.4599986  60.6895330 139.1562674  -3.4188711
  64.1269992 136.5859978 -16.7509986  63.6959992 136.1409978 -16.0219986
  63.4089992 136.9569978 -17.2639986  63.9709176 136.5752051 -16.7205070
  57.3699992 136.3279978  -9.6989986  57.9999992 136.2989978  -8.9799986
  57.8189992 135.9029978 -10.4299986  57.5170835 136.2665660  -9.6992341
  58.6439992 137.0739978 -14.2749986  59.1179992 137.6649978 -14.8599986
  57.9259992 137.6039978 -13.9279986  58.6118640 137.2265511 -14.3082031
  68.8129992 140.6119978  -4.2029986  69.1359992 139.9809978  -4.8459986
  68.3719992 140.0779978  -3.5419986  68.7976379 140.4533468  -4.2017418
  65.5899992 136.5399978  -9.4189986  64.6789992 136.5969978  -9.1299986
  66.0949992 136.4799978  -8.6079986  65.5336873 136.5396826  -9.2698793
  60.4179992 138.1689978 -10.5919986  59.5289992 138.2679978 -10.9319986
  60.7149992 137.3269978 -10.9379986  60.3364177 138.0687687 -10.6853060
  64.0709992 138.1689978 -12.9349986  65.0029992 138.2979978 -12.7569986
  63.8559992 138.8379978 -13.5849986  64.1694472 138.2770806 -12.9985109
  69.9949992 135.7749978  -6.1539986  69.3179992 135.9059978  -5.4909986
  69.5099992 135.6199978  -6.9649986  69.8367405 135.7719947  -6.1727830
  62.7449992 139.3629978 -15.3689986  62.2029992 138.9839978 -16.0599986
  63.5789992 139.5579978 -15.7969986  62.7834390 139.3374079 -15.5215608
  60.8809992 143.9199978  -0.2699986  61.6129992 144.1749978   0.2920014
  60.0999992 144.1249978   0.2460014  60.8756526 143.9825450  -0.1234824
  66.9099992 139.3269978  -7.5319986  67.4739992 138.7809978  -8.0789986
  66.7619992 138.8059978  -6.7429986  66.9673037 139.1816787  -7.5002771
  61.9119992 135.4639978 -11.1129986  61.5949992 134.5609978 -11.1489986
  62.6929992 135.4659978 -11.6659986  61.9742431 135.3407797 -11.1926898
  65.5359992 137.7159978  -5.1179986  64.7009992 138.1699978  -5.0069986
  66.0599992 137.9919978  -4.3659986  65.4926072 137.8153948  -5.0011864
  66.0809992 143.9289978 -13.4329986  65.3359992 143.4209978 -13.7549986
  65.9459992 143.9779978 -12.4869986  65.9608963 143.8661731 -13.3491174
  73.2309992 143.0619978  -4.6459986  73.8719992 143.5179978  -5.1899986
  72.3999992 143.1749978  -5.1089986  73.2065287 143.1396921  -4.7830113
  69.9779992 136.7429978 -15.2339986  69.0399992 136.8539978 -15.3849986
  70.2759992 137.5989978 -14.9269986  69.8896318 136.8740158 -15.2131855
  67.5999992 144.1129978  -2.1959986  67.2539992 143.7309978  -1.3889986
  67.3999992 145.0459978  -2.1249986  67.5255987 144.1869002  -2.0759539
  70.6969992 138.6099978 -13.5729986  71.5889992 138.4719978 -13.2539986
  70.7529992 139.4009978 -14.1099986  70.8267325 138.6979918 -13.6018783
  61.2049992 143.2239978  -7.6629986  61.9499992 143.2209978  -8.2649986
  61.2829992 142.3999978  -7.1819986  61.3173365 143.1122384  -7.6802570
  68.2059992 145.3869978 -14.4079986  67.9109992 146.2139978 -14.0259986
  67.5029992 144.7679978 -14.2109986  68.0706379 145.4164171 -14.3291346
  58.2129992 141.6839978  -2.3479986  58.4359992 141.2659978  -1.5169986
  57.6109992 141.0719978  -2.7709986  58.1621513 141.5439606  -2.2913260
  65.2299992 141.2009978  -0.1349986  64.9339992 141.0359978  -1.0309986
  66.1609992 140.9809978  -0.1459986  65.3154401 141.1486880  -0.2589794
  75.5819992 138.8189978 -13.8779986  75.0269992 138.4229978 -14.5509986
  75.6819992 139.7299978 -14.1559986  75.5196816 138.8879505 -14.0074967
  75.5449992 144.6199978  -1.0409986  74.6939992 144.8579978  -1.4089986
  76.1349992 144.6029978  -1.7939986  75.5083812 144.6502524  -1.1931547
  71.0369992 142.4129978  -6.3919986  70.1089992 142.1819978  -6.4189986
  71.4879992 141.6359978  -6.7219986  70.9708165 142.2762774  -6.4403210
  59.3349992 141.6039978 -15.6719986  59.9509992 142.2309978 -15.2919986
  58.4729992 141.9199978 -15.3999986  59.3027678 141.7324412 -15.5832791
  65.0079992 144.4049978 -10.6829986  64.7669992 145.3299978 -10.6409986
  64.2669992 143.9459978 -10.2859986  64.8749206 144.4695915 -10.6236231
  69.0659992 144.6529978  -4.6669986  68.6409992 144.4249978  -3.8409986
  69.6469992 143.9139978  -4.8489986  69.0863395 144.5219545  -4.5785586
  59.8469992 136.4379978  -2.7899986  58.9549992 136.7759978  -2.8579986
  59.7489992 135.5819978  -2.3719986  59.7114475 136.3686543  -2.7428296
  72.1349992 144.2539978 -13.3659986  71.8579992 143.5259978 -12.8099986
  73.0629992 144.3729978 -13.1609986  72.2224499 144.1704213 -13.2621956
  60.7499992 143.5159978 -14.1789986  60.0639992 143.8689978 -13.6119986
  61.2729992 144.2789978 -14.4259986  60.7268402 143.6673901 -14.1348199
  68.5819992 136.1789978  -3.8999986  69.2809992 136.2529978  -3.2499986
  68.2009992 135.3139978  -3.7459986  68.6262097 136.0722389  -3.7902003
  69.3659992 135.8309978 -12.8029986  69.5859992 136.3019978 -13.6069986
  69.9249992 136.2249978 -12.1329986  69.4716731 135.9487287 -12.8224967
  66.5659992 137.5589978 -11.9679986  67.3779992 138.0629978 -11.9219986
  66.3219992 137.4139978 -11.0539986  66.6441467 137.6083749 -11.8381425
  67.1019992 138.5449978  -2.7839986  67.2209992 139.1189978  -2.0269986
  67.7569992 137.8569978  -2.6689986  67.2068684 138.5305194  -2.6648326
  67.4499992 134.6399978 -11.0299986  67.1029992 135.2569978 -10.3859986
  68.1089992 135.1409978 -11.5119986  67.4915090 134.7921575 -11.0069319
  63.1079992 135.7029978 -14.3429986  63.0239992 136.5909978 -13.9959986
  63.9979992 135.4379978 -14.1109986  63.2168163 135.7887179 -14.2641404
  73.3059992 136.4519978  -1.9489986  72.3899992 136.7139978  -2.0359986
  73.6419992 136.4489978  -2.8449986  73.2258499 136.4875163  -2.0821234
  71.9089992 140.2019978  -7.8529986  71.1109992 139.7869978  -8.1809986
  72.3539992 139.5119978  -7.3619986  71.8599684 140.0518628  -7.8314773
  59.6819992 138.7949978 -16.1669986  59.6369992 139.7339978 -15.9879986
  58.7939992 138.5589978 -16.4359986  59.5558166 138.8916687 -16.1788476
  60.4899992 133.5759978  -7.4929986  60.2609992 133.6349978  -8.4209986
  60.0479992 132.7849978  -7.1869986  60.3988801 133.4770540  -7.5785271
  58.6159992 143.9399978   0.9510014  58.7599992 143.0379978   0.6650014
  57.8439992 144.2259978   0.4640014  58.5312733 143.8551798   0.8459532
  62.9569992 144.2829978 -16.9159986  63.0219992 143.4889978 -16.3859986
  63.6099992 144.1649978 -17.6059986  63.0541605 144.1583430 -16.9367003
  65.2709992 143.9089978   0.3840014  64.9429992 144.1799978  -0.4729986
  65.4229992 142.9679978   0.2960014  65.2466412 143.8189046   0.2547822
  71.0059992 143.8249978  -2.2329986  71.7509992 144.4139978  -2.3519986
  70.2489992 144.4069978  -2.1689986  71.0055470 143.9842128  -2.2406201
  59.4489992 141.1399978   0.3710014  59.8569992 140.2829978   0.2500014
  59.1879992 141.1539978   1.2920014  59.4696016 141.0245119   0.4789192
  64.1069992 142.2559978 -14.6099986  63.6469992 141.7719978 -13.9249986
  64.3619992 141.5869978 -15.2459986  64.0784856 142.0993669 -14.6021603
  63.3959992 140.1489978  -2.2539986  62.7769992 140.8229978  -1.9739986
  63.7399992 140.4699978  -3.0879986  63.3577123 140.2846887  -2.3283612
  65.1779992 140.4989978 -16.3479986  64.9969992 140.3439978 -17.2749986
  66.1279992 140.6069978 -16.3029986  65.2816566 140.4923669 -16.4689071
  68.4149992 142.6199978   1.0230014  69.3689992 142.7039978   0.9960014
  68.2549992 141.9079978   1.6430014  68.5237182 142.5352842   1.1030733
  74.5679992 142.8529978 -16.9019986  74.2939992 142.4289978 -17.7149986
  74.6069992 143.7849978 -17.1189986  74.5357716 142.9208827 -17.0425714
  63.7349992 137.5039978  -1.1719986  63.8849992 136.7749978  -1.7739986
  63.7369992 138.2809978  -1.7309986  63.7557967 137.5092708  -1.3299459
  64.1479992 135.8729978  -3.6789986  64.6829992 136.3249978  -4.3309986
  63.2949992 135.7649978  -4.1019986  64.1060374 135.9202665  -3.8253290
  65.7289992 141.3129978  -3.4399986  66.4799992 141.1569978  -4.0129986
  65.3899992 142.1649978  -3.7149986  65.7859587 141.4068138  -3.5555922
  70.1449992 139.1279978   1.5890014  70.3369992 138.1969978   1.4770014
  71.0029992 139.5529978   1.5780014  70.2872182 139.0580070   1.5721862
  71.4619992 141.9169978  -0.3339986  71.1799992 142.6259978  -0.9119986
  72.4039992 141.8439978  -0.4849986  71.5507921 142.0042193  -0.4335775
  62.2139992 138.7019978   0.7390014  61.4459992 138.1689978   0.5290014
  62.8919992 138.3919978   0.1400014  62.2007235 138.5871754   0.6292413
  64.9529992 133.3299978  -3.2479986  64.8549992 134.2759978  -3.3529986
  64.2109992 132.9569978  -3.7239986  64.8392534 133.4091773  -3.3267400
  66.2169992 137.6509978   0.3160014  65.9819992 137.4319978   1.2170014
  65.4339992 137.4439978  -0.1939986  66.0789095 137.5929892   0.3705353
  68.9329992 136.7789978  -0.6089986  67.9849992 136.8109978  -0.4769986
  69.2449992 136.1529978   0.0450014  68.8455293 136.6987923  -0.5025852
  70.5669992 135.4129978   1.3960014  70.4699992 134.4609978   1.3910014
  70.2449992 135.6809978   2.2570014  70.5102468 135.3190884   1.5116210
  60.3939992 136.6219978   0.4440014  60.6059992 135.9159978  -0.1659986
  60.2829992 136.1849978   1.2880014  60.4080269 136.4661921   0.4745873
  65.1749992 132.6239978  -0.5769986  65.8869992 131.9839978  -0.5909986
  65.0739992 132.8899978  -1.4899986  65.2587387 132.5724330  -0.7024437
  65.5289992 134.3059978   1.4770014  65.3969992 133.8309978   0.6570014
  64.9289992 135.0509978   1.4220014  65.4299070 134.3415789   1.3573251
  73.7249992 145.4659978   1.5590014  72.8589992 145.3609978   1.9530014
  74.1009992 146.2239978   2.0050014  73.6573401 145.5541708   1.6732620
  75.0259992 143.7219978 -12.9269986  75.8759992 144.1429978 -12.7999986
  75.0309992 142.9819978 -12.3199986  75.1431143 143.6796094 -12.8275250
  75.4199992 141.7759978 -11.1039986  74.6939992 141.2959978 -10.7059986
  76.0019992 141.9809978 -10.3709986  75.3992730 141.7380184 -10.9505851
  75.1789992 144.5609978  -6.1559986  76.0129992 144.1829978  -6.4369986
  75.2909992 145.5039978  -6.2749986  75.3081917 144.6367943  -6.2105139
  75.6889992 141.6769978 -14.7129986  75.1669992 142.0329978 -15.4309986
  75.6559992 142.3519978 -14.0339986  75.6130129 141.8169598 -14.7196645
  74.0379992 138.9159978 -16.1619986  74.1339992 139.5829978 -16.8419986
  73.8979992 138.1009978 -16.6429986  74.0322040 138.8970671 -16.3201622
  73.2069992 140.2969978 -10.5409986  73.0569992 139.3519978 -10.5609986
  72.8529992 140.5779978  -9.6969986  73.1386351 140.2056644 -10.4296780
  58.2419992 142.3749978  -6.5299986  58.4269992 142.2929978  -7.4659986
  59.0919992 142.2509978  -6.1069986  58.3820928 142.3470463  -6.6007107
  74.0629992 142.2669978  -0.9019986  74.6459992 141.5319978  -0.7099986
  74.6269992 143.0389978  -0.8549986  74.2189781 142.2708145  -0.8693836
  75.5599992 140.1699978  -0.2169986  74.6969992 139.7909978  -0.3829986
  76.1639992 139.4309978  -0.2919986  75.5236085 140.0183223  -0.2498305
  73.2849992 136.3239978 -17.0439986  73.8959992 135.9529978 -16.4069986
  72.4479992 135.9029978 -16.8479986  73.2554947 136.2162756 -16.9302748
  72.9179992 137.8789978 -12.0779986  73.1969992 136.9719978 -11.9539986
  73.6769992 138.3129978 -12.4669986  73.0588619 137.8134502 -12.1136205
  73.5289992 138.4609978  -6.6419986  74.4619992 138.6729978  -6.6769986
  73.2939992 138.5619978  -5.7199986  73.6249517 138.5036833  -6.5220870
  73.5589992 139.1979978  -3.8659986  72.7159992 139.4659978  -3.4999986
  74.0009992 140.0199978  -4.0769986  73.5034138 139.3458273  -3.8444482
  57.8399992 137.6449978  -0.3899986  58.7589992 137.5229978  -0.1529986
  57.3899992 136.8949978   0.0000014  57.9050087 137.5269608  -0.3048590
  75.8419992 133.1779978   1.4870014  76.1909992 132.5239978   0.8820014
  75.9889992 134.0149978   1.0470014  75.9096824 133.2016024   1.3446304
  73.5309992 135.1419978 -12.0299986  73.7129992 134.6929978 -11.2049986
  72.9309992 134.5579978 -12.4939986  73.4748187 135.0015552 -11.9797261
  59.0609992 135.9579978  -7.4979986  59.5059992 135.1659978  -7.1959986
  59.5269992 136.6739978  -7.0679986  59.1849718 135.9464534  -7.3984735
  57.3649992 138.9569978  -6.4289986  57.8569992 138.7359978  -7.2199986
  57.7269992 139.7969978  -6.1479986  57.4812923 139.0403468  -6.4992593
  75.3609992 135.2869978  -0.1639986  74.4439992 135.5579978  -0.1989986
  75.4839992 134.7519978  -0.9479986  75.2519672 135.2517885  -0.2748138
  75.3979992 135.2099978 -15.5019986  75.8099992 134.4889978 -15.9769986
  76.0789992 135.8789978 -15.4439986  75.5465536 135.2017766 -15.5591976
  57.6789992 135.2149978 -12.3749986  56.7539992 135.4229978 -12.5039986
  58.1329992 135.6989978 -13.0649986  57.6136298 135.3089299 -12.4859549
  57.6419992 133.9529978  -4.0309986  56.9769992 133.7069978  -3.3879986
  57.1989992 134.5749978  -4.6079986  57.4911168 134.0034214  -4.0210152
  74.3619992 133.3769978  -2.3449986  73.5489992 133.7019978  -2.7319986
  74.5949992 132.6159978  -2.8779986  74.2821347 133.3186880  -2.4700159
  67.7919992 134.8259978  -8.0219986  67.1179992 134.1959978  -7.7659986
  68.3559992 134.3419978  -8.6249986  67.7760384 134.6743708  -8.0684980
  72.9349992 132.9329978  -7.9089986  73.5379992 133.4809978  -8.4109986
  72.0649992 133.2519978  -8.1499986  72.8999157 133.0510373  -8.0102090
  74.6619992 134.0719978  -9.5759986  75.2729992 133.5579978 -10.1029986
  75.0439992 134.9489978  -9.5529986  74.7973305 134.1202050  -9.6450582
  60.1189992 133.4599978 -10.1999986  59.3419992 133.2249978 -10.7069986
  60.6489992 132.6629978 -10.1909986  60.0843451 133.3201268 -10.2681373
  58.9549992 133.2579978 -14.3959986  59.3939992 133.8689978 -14.9879986
  58.3209992 133.7959978 -13.9219986  58.9293859 133.4144064 -14.4129695
  64.6979992 133.3859978 -10.3869986  65.5719992 133.7749978 -10.4159986
  64.5619992 133.1709978  -9.4639986  64.7991953 133.4101643 -10.2662383
  70.2549992 133.4159978  -8.7369986  70.3309992 133.5119978  -9.6869986
  69.9799992 132.5089978  -8.6089986  70.2281871 133.3064146  -8.8496056
  71.6079992 133.4419978 -13.0449986  70.9049992 134.0569978 -13.2549986
  71.1629992 132.6049978 -12.9139986  71.4516550 133.4129668 -13.0560163
  60.8159992 135.1739978 -15.9539986  61.3069992 134.5439978 -16.4809986
  61.4389992 135.4699978 -15.2909986  60.9675304 135.1277376 -15.9365060
  65.8419992 135.4669978 -13.4969986  66.0199992 134.8199978 -12.8139986
  65.7879992 136.3009978 -13.0299986  65.8590678 135.4911604 -13.3403699
  60.0759992 133.9739978  -0.6819986  59.7099992 133.2079978  -0.2399986
  60.9889992 134.0029978  -0.3959986  60.1493172 133.8730324  -0.5828110
  62.0489992 133.3239978   0.8530014  62.9479992 133.0499978   0.6690014
  61.6629992 132.5819978   1.3180014  62.1197307 133.1862196   0.8907098
  70.4709992 132.6569978   1.0360014  70.5469992 132.2309978   1.8890014
  71.3639992 132.6699978   0.6930014  70.6022303 132.6003493   1.1065497
  88.0529992 142.6159978 -10.2409986  88.1419992 143.5599978 -10.3729986
  87.4149992 142.3409978 -10.8989986  87.9789062 142.7079812 -10.3480359
  86.9859992 141.8709978  -6.8219986  86.9479992 141.2249978  -6.1169986
  86.6639992 141.4039978  -7.5929986  86.9372679 141.7194276  -6.8297079
  79.3539992 141.4849978  -5.2289986  79.3959992 140.8599978  -4.5059986
  80.0569992 142.1089978  -5.0469986  79.4547345 141.4837873  -5.1054727
  90.6919992 144.8099978  -8.5209986  90.2509992 144.0899978  -8.0699986
  90.6789992 145.5309978  -7.8909986  90.6299215 144.8089291  -8.3741895
  76.8879992 139.5949978 -11.3019986  76.4399992 140.4409978 -11.3199986
  76.3269992 139.0159978 -11.8169986  76.7508546 139.6323993 -11.3741109
  77.5979992 141.7569978  -9.1759986  77.8119992 140.9869978  -8.6479986
  78.3359992 141.8469978  -9.7789986  77.7270200 141.6638587  -9.1852965
  85.3749992 144.3029978  -6.4159986  85.6789992 143.6169978  -7.0109986
  86.0969992 144.4219978  -5.7979986  85.5141240 144.2252314  -6.4139041
  94.0379992 135.9049978  -5.5559986  94.0879992 136.5149978  -4.8199986
  94.4639992 136.3659978  -6.2789986  94.1024108 136.0507709  -5.5529888
  88.5159992 138.6969978  -6.0889986  88.6589992 137.7509978  -6.0689986
  88.4099992 138.9039978  -7.0169986  88.5212403 138.5954797  -6.2117761
  81.6709992 136.7989978  -8.8159986  81.7139992 137.6589978  -9.2349986
  81.2129992 136.2469978  -9.4499986  81.6149871 136.8419245  -8.9589239
  89.3929992 136.9299978 -10.4149986  90.0399992 136.6009978  -9.7909986
  89.9029992 137.4469978 -11.0379986  89.5504351 136.9549067 -10.4138963
  78.2909992 139.1959978  -8.0539986  78.9449992 138.6459978  -7.6219986
  78.3149992 138.9219978  -8.9709986  78.3837199 139.0837167  -8.1188332
  83.4479992 140.7459978  -8.8389986  84.0639992 140.2189978  -8.3299986
  82.8609992 140.1059978  -9.2429986  83.4530154 140.5873954  -8.8239055
  94.4299992 137.3829978  -3.3199986  93.7409992 138.0409978  -3.4149986
  94.4449992 137.1849978  -2.3829986  94.3377756 137.4462603  -3.2064188
  80.4809992 135.7169978  -4.7419986  80.2619992 136.2469978  -5.5089986
  79.8129992 135.9429978  -4.0949986  80.3606975 135.8200967  -4.7594860
  87.8499992 145.2169978 -11.1979986  87.5549992 144.8939978 -12.0499986
  87.5259992 146.1169978 -11.1569986  87.7658460 145.2944464 -11.3090286
  83.0499992 143.3919978  -4.4549986  82.3099992 143.9909978  -4.3509986
  83.7639992 143.9459978  -4.7699986  83.0453500 143.5487829  -4.4833629
  91.1569992 136.2209978  -8.4349986  90.9419992 135.4549978  -7.9019986
  91.8129992 136.6929978  -7.9219986  91.2162673 136.1800728  -8.2928010
  80.0749992 137.6089978  -6.7899986  80.6889992 138.2419978  -6.4169986
  80.5869992 137.1369978  -7.4459986  80.2281962 137.6317249  -6.8277065
  81.4579992 145.3569978  -3.6679986  81.4519992 146.2359978  -4.0459986
  80.6039992 145.2729978  -3.2429986  81.3417925 145.4659535  -3.6623113
  77.5789992 145.0279978 -12.8859986  77.3069992 145.2569978 -13.7739986
  77.6239992 145.8649978 -12.4249986  77.5478097 145.1726163 -12.9453317
  91.5039992 134.9359978  -4.7559986  90.7679992 135.5459978  -4.7929986
  92.1879992 135.3509978  -5.2819986  91.4955367 135.0757551  -4.8321826
  84.5079992 133.0219978  -7.2899986  84.3899992 132.0739978  -7.3439986
  83.6529992 133.3549978  -7.0169986  84.3762805 132.9372202  -7.2604921
  92.3019992 144.8979978  -2.5619986  92.4409992 144.3059978  -3.3009986
  92.4689992 145.7709978  -2.9179986  92.3436193 144.9348896  -2.7113789
  86.7739992 141.8599978 -12.7889986  86.0629992 142.3949978 -13.1409986
  87.4649992 141.9149978 -13.4489986  86.7700751 141.9406777 -12.9264142
  86.8279992 140.3169978 -15.7509986  87.5289992 140.3399978 -15.0989986
  87.1299992 139.6889978 -16.4069986  86.9648202 140.2352212 -15.7504391
  94.1429992 141.2379978  -4.4959986  93.4909992 141.9319978  -4.4069986
  94.6089992 141.4479978  -5.3059986  94.1165937 141.3615019  -4.5932467
  90.1799992 142.0689978 -11.8379986  89.4479992 142.2979978 -11.2639986
  90.6269992 141.3559978 -11.3829986  90.1403963 142.0038729 -11.6980055
  90.0769992 140.2439978  -2.7699986  90.1569992 141.0069978  -2.1979986
  89.4759992 140.5229978  -3.4599986  90.0066547 140.3862457  -2.7849953
  81.8249992 142.6999978  -9.9549986  81.4949992 142.3289978 -10.7729986
  82.4139992 142.0289978  -9.6079986  81.8593970 142.5586063 -10.0200596
  82.1919992 141.4679978  -6.3219986  82.7569992 141.5899978  -7.0839986
  82.5109992 142.1059978  -5.6829986  82.3124166 141.5708791  -6.3399652
  89.0509992 141.2319978 -14.1519986  89.6299992 141.3819978 -13.4059986
  89.4649992 141.7019978 -14.8759986  89.1863358 141.3160954 -14.1476047
  79.9919992 142.0659978  -2.3759986  80.0619992 142.7169978  -1.6769986
  79.1009992 142.1689978  -2.7109986  79.8811690 142.1689249  -2.3256957
  92.7499992 132.9819978 -14.3389986  91.8499992 133.1209978 -14.0439986
  93.0019992 133.8129978 -14.7409986  92.6608683 133.1134055 -14.3529768
  80.8159992 141.7689978 -12.3659986  80.5239992 142.5369978 -12.8569986
  80.1409992 141.1099978 -12.5289986  80.6848497 141.7849745 -12.4551740
  76.9089992 144.1319978  -3.5509986  76.4069992 144.1039978  -4.3659986
  76.9139992 143.2269978  -3.2409986  76.8409832 144.0057486  -3.6205879
  92.0089992 139.0719978  -0.5039986  91.6009992 139.5519978  -1.2249986
  92.0489992 138.1659978  -0.8119986  91.9586221 139.0152449  -0.6441733
  79.1579992 145.4559978  -2.5079986  79.3739992 145.0939978  -1.6479986
  78.3019992 145.0809978  -2.7169986  79.0718810 145.3558837  -2.4187320
  81.7759992 133.9259978  -6.5119986  80.9149992 133.8389978  -6.9199986
  81.7539992 134.7819978  -6.0839986  81.6550491 134.0298003  -6.5100418
  86.4389992 133.6479978  -3.1369986  86.8589992 133.2329978  -2.3839986
  85.5059992 133.4689978  -3.0199986  86.3703736 133.5669910  -3.0181032
  89.7659992 137.4029978  -2.2839986  89.2519992 137.2779978  -1.4859986
  89.6099992 138.3159978  -2.5279986  89.6746967 137.5092123  -2.2079063
  90.5279992 142.2639978 -16.5229986  90.5699992 142.0419978 -17.4529986
  91.3769992 142.6629978 -16.3329986  90.6485253 142.2875498 -16.6246178
  86.1009992 136.1399978 -15.8519986  85.8469992 136.1589978 -14.9299986
  85.8439992 135.2689978 -16.1539986  86.0314508 136.0248280 -15.7665197
  81.8669992 138.8909978  -5.4169986  81.2259992 138.8509978  -4.7079986
  81.9049992 139.8179978  -5.6549986  81.7843010 139.0107668  -5.3520054
  81.8639992 139.1119978 -10.5049986  80.9719992 138.7719978 -10.5639986
  82.3149992 138.7349978 -11.2609986  81.8027642 139.0144910 -10.6152274
  87.3999992 139.5279978 -11.6879986  86.9909992 140.3429978 -11.9799986
  88.1199992 139.3879978 -12.3019986  87.4414439 139.6205372 -11.8109885
  86.5019992 139.7039978  -0.1999986  85.9389992 138.9989978   0.1210014
  87.3279992 139.5829978   0.2680014  86.5366674 139.5912165  -0.0928249
  88.4049992 138.9739978  -8.8739986  88.2089992 139.5799978  -9.5889986
  88.5859992 138.1409978  -9.3079986  88.4026584 138.9442513  -9.0305788
  79.6169992 139.2119978  -3.5499986  79.5789992 139.6119978  -2.6809986
  79.1269992 138.3949978  -3.4599986  79.5455330 139.1562674  -3.4188711
  82.9829992 136.5859978 -16.7509986  82.5519992 136.1409978 -16.0219986
  82.2649992 136.9569978 -17.2639986  82.8269176 136.5752051 -16.7205070
  76.2259992 136.3279978  -9.6989986  76.8559992 136.2989978  -8.9799986
  76.6749992 135.9029978 -10.4299986  76.3730835 136.2665660  -9.6992341
  77.4999992 137.0739978 -14.2749986  77.9739992 137.6649978 -14.8599986
  76.7819992 137.6039978 -13.9279986  77.4678640 137.2265511 -14.3082031
  87.6689992 140.6119978  -4.2029986  87.9919992 139.9809978  -4.8459986
  87.2279992 140.0779978  -3.5419986  87.6536379 140.4533468  -4.2017418
  84.4459992 136.5399978  -9.4189986  83.5349992 136.5969978  -9.1299986
  84.9509992 136.4799978  -8.6079986  84.3896873 136.5396826  -9.2698793
  79.2739992 138.1689978 -10.5919986  78.3849992 138.2679978 -10.9319986
  79.5709992 137.3269978 -10.9379986  79.1924177 138.0687687 -10.6853060
  82.9269992 138.1689978 -12.9349986  83.8589992 138.2979978 -12.7569986
  82.7119992 138.8379978 -13.5849986  83.0254472 138.2770806 -12.9985109
  88.8509992 135.7749978  -6.1539986  88.1739992 135.9059978  -5.4909986
  88.3659992 135.6199978  -6.9649986  88.6927405 135.7719947  -6.1727830
  81.6009992 139.3629978 -15.3689986  81.0589992 138.9839978 -16.0599986
  82.4349992 139.5579978 -15.7969986  81.6394390 139.3374079 -15.5215608
  79.7369992 143.9199978  -0.2699986  80.4689992 144.1749978   0.2920014
  78.9559992 144.1249978   0.2460014  79.7316526 143.9825450  -0.1234824
  85.7659992 139.3269978  -7.5319986  86.3299992 138.7809978  -8.0789986
  85.6179992 138.8059978  -6.7429986  85.8233037 139.1816787  -7.5002771
  80.7679992 135.4639978 -11.1129986  80.4509992 134.5609978 -11.1489986
  81.5489992 135.4659978 -11.6659986  80.8302431 135.3407797 -11.1926898
  84.3919992 137.7159978  -5.1179986  83.5569992 138.1699978  -5.0069986
  84.9159992 137.9919978  -4.3659986  84.3486072 137.8153948  -5.0011864
  84.9369992 143.9289978 -13.4329986  84.1919992 143.4209978 -13.7549986
  84.8019992 143.9779978 -12.4869986  84.8168963 143.8661731 -13.3491174
  92.0869992 143.0619978  -4.6459986  92.7279992 143.5179978  -5.1899986
  91.2559992 143.1749978  -5.1089986  92.0625287 143.1396921  -4.7830113
  88.8339992 136.7429978 -15.2339986  87.8959992 136.8539978 -15.3849986
  89.1319992 137.5989978 -14.9269986  88.7456318 136.8740158 -15.2131855
  86.4559992 144.1129978  -2.1959986  86.1099992 143.7309978  -1.3889986
  86.2559992 145.0459978  -2.1249986  86.3815987 144.1869002  -2.0759539
  89.5529992 138.6099978 -13.5729986  90.4449992 138.4719978 -13.2539986
  89.6089992 139.4009978 -14.1099986  89.6827325 138.6979918 -13.6018783
  80.0609992 143.2239978  -7.6629986  80.8059992 143.2209978  -8.2649986
  80.1389992 142.3999978  -7.1819986  80.1733365 143.1122384  -7.6802570
  87.0619992 145.3869978 -14.4079986  86.7669992 146.2139978 -14.0259986
  86.3589992 144.7679978 -14.2109986  86.9266379 145.4164171 -14.3291346
  77.0689992 141.6839978  -2.3479986  77.2919992 141.2659978  -1.5169986
  76.4669992 141.0719978  -2.7709986  77.0181513 141.5439606  -2.2913260
  84.0859992 141.2009978  -0.1349986  83.7899992 141.0359978  -1.0309986
  85.0169992 140.9809978  -0.1459986  84.1714401 141.1486879  -0.2589794
  94.4379992 138.8189978 -13.8779986  93.8829992 138.4229978 -14.5509986
  94.5379992 139.7299978 -14.1559986  94.3756816 138.8879505 -14.0074967
  94.4009992 144.6199978  -1.0409986  93.5499992 144.8579978  -1.4089986
  94.9909992 144.6029978  -1.7939986  94.3643812 144.6502524  -1.1931547
  89.8929992 142.4129978  -6.3919986  88.9649992 142.1819978  -6.4189986
  90.3439992 141.6359978  -6.7219986  89.8268165 142.2762774  -6.4403210
  78.1909992 141.6039978 -15.6719986  78.8069992 142.2309978 -15.2919986
  77.3289992 141.9199978 -15.3999986  78.1587678 141.7324412 -15.5832791
  83.8639992 144.4049978 -10.6829986  83.6229992 145.3299978 -10.6409986
  83.1229992 143.9459978 -10.2859986  83.7309206 144.4695915 -10.6236231
  87.9219992 144.6529978  -4.6669986  87.4969992 144.4249978  -3.8409986
  88.5029992 143.9139978  -4.8489986  87.9423395 144.5219545  -4.5785586
  78.7029992 136.4379978  -2.7899986  77.8109992 136.7759978  -2.8579986
  78.6049992 135.5819978  -2.3719986  78.5674475 136.3686543  -2.7428296
  90.9909992 144.2539978 -13.3659986  90.7139992 143.5259978 -12.8099986
  91.9189992 144.3729978 -13.1609986  91.0784499 144.1704213 -13.2621956
  79.6059992 143.5159978 -14.1789986  78.9199992 143.8689978 -13.6119986
  80.1289992 144.2789978 -14.4259986  79.5828402 143.6673901 -14.1348199
  87.4379992 136.1789978  -3.8999986  88.1369992 136.2529978  -3.2499986
  87.0569992 135.3139978  -3.7459986  87.4822097 136.0722389  -3.7902003
  88.2219992 135.8309978 -12.8029986  88.4419992 136.3019978 -13.6069986
  88.7809992 136.2249978 -12.1329986  88.3276731 135.9487287 -12.8224967
  85.4219992 137.5589978 -11.9679986  86.2339992 138.0629978 -11.9219986
  85.1779992 137.4139978 -11.0539986  85.5001467 137.6083749 -11.8381425
  85.9579992 138.5449978  -2.7839986  86.0769992 139.1189978  -2.0269986
  86.6129992 137.8569978  -2.6689986  86.0628684 138.5305194  -2.6648326
  86.3059992 134.6399978 -11.0299986  85.9589992 135.2569978 -10.3859986
  86.9649992 135.1409978 -11.5119986  86.3475090 134.7921575 -11.0069319
  81.9639992 135.7029978 -14.3429986  81.8799992 136.5909978 -13.9959986
  82.8539992 135.4379978 -14.1109986  82.0728163 135.7887179 -14.2641404
  92.1619992 136.4519978  -1.9489986  91.2459992 136.7139978  -2.0359986
  92.4979992 136.4489978  -2.8449986  92.0818499 136.4875163  -2.0821234
  90.7649992 140.2019978  -7.8529986  89.9669992 139.7869978  -8.1809986
  91.2099992 139.5119978  -7.3619986  90.7159684 140.0518628  -7.8314773
  78.5379992 138.7949978 -16.1669986  78.4929992 139.7339978 -15.9879986
  77.6499992 138.5589978 -16.4359986  78.4118166 138.8916687 -16.1788476
  79.3459992 133.5759978  -7.4929986  79.1169992 133.6349978  -8.4209986
  78.9039992 132.7849978  -7.1869986  79.2548801 133.4770540  -7.5785271
  77.4719992 143.9399978   0.9510014  77.6159992 143.0379978   0.6650014
  76.6999992 144.2259978   0.4640014  77.3872733 143.8551798   0.8459532
  81.8129992 144.2829978 -16.9159986  81.8779992 143.4889978 -16.3859986
  82.4659992 144.1649978 -17.6059986  81.9101605 144.1583430 -16.9367003
  84.1269992 143.9089978   0.3840014  83.7989992 144.1799978  -0.4729986
  84.2789992 142.9679978   0.2960014  84.1026412 143.8189046   0.2547822
  89.8619992 143.8249978  -2.2329986  90.6069992 144.4139978  -2.3519986
  89.1049992 144.4069978  -2.1689986  89.8615470 143.9842128  -2.2406201
  78.3049992 141.1399978   0.3710014  78.7129992 140.2829978   0.2500014
  78.0439992 141.1539978   1.2920014  78.3256016 141.0245119   0.4789192
  82.9629992 142.2559978 -14.6099986  82.5029992 141.7719978 -13.9249986
  83.2179992 141.5869978 -15.2459986  82.9344856 142.0993669 -14.6021603
  82.2519992 140.1489978  -2.2539986  81.6329992 140.8229978  -1.9739986
  82.5959992 140.4699978  -3.0879986  82.2137123 140.2846887  -2.3283612
  84.0339992 140.4989978 -16.3479986  83.8529992 140.3439978 -17.2749986
  84.9839992 140.6069978 -16.3029986  84.1376566 140.4923669 -16.4689071
  87.2709992 142.6199978   1.0230014  88.2249992 142.7039978   0.9960014
  87.1109992 141.9079978   1.6430014  87.3797182 142.5352842   1.1030733
  93.4239992 142.8529978 -16.9019986  93.1499992 142.4289978 -17.7149986
  93.4629992 143.7849978 -17.1189986  93.3917716 142.9208827 -17.0425714
  82.5909992 137.5039978  -1.1719986  82.7409992 136.7749978  -1.7739986
  82.5929992 138.2809978  -1.7309986  82.6117967 137.5092708  -1.3299459
  83.0039992 135.8729978  -3.6789986  83.5389992 136.3249978  -4.3309986
  82.1509992 135.7649978  -4.1019986  82.9620374 135.9202665  -3.8253290
  84.5849992 141.3129978  -3.4399986  85.3359992 141.1569978  -4.0129986
  84.2459992 142.1649978  -3.7149986  84.6419587 141.4068138  -3.5555922
  89.0009992 139.1279978   1.5890014  89.1929992 138.1969978   1.4770014
  89.8589992 139.5529978   1.5780014  89.1432182 139.0580070   1.5721862
  90.3179992 141.9169978  -0.3339986  90.0359992 142.6259978  -0.9119986
  91.2599992 141.8439978  -0.4849986  90.4067921 142.0042193  -0.4335775
  81.0699992 138.7019978   0.7390014  80.3019992 138.1689978   0.5290014
  81.7479992 138.3919978   0.1400014  81.0567235 138.5871754   0.6292413
  83.8089992 133.3299978  -3.2479986  83.7109992 134.2759978  -3.3529986
  83.0669992 132.9569978  -3.7239986  83.6952534 133.4091773  -3.3267400
  85.0729992 137.6509978   0.3160014  84.8379992 137.4319978   1.2170014
  84.2899992 137.4439978  -0.1939986  84.9349095 137.5929892   0.3705353
  87.7889992 136.7789978  -0.6089986  86.8409992 136.8109978  -0.4769986
  88.1009992 136.1529978   0.0450014  87.7015293 136.6987923  -0.5025852
  89.4229992 135.4129978   1.3960014  89.3259992 134.4609978   1.3910014
  89.1009992 135.6809978   2.2570014  89.3662468 135.3190884   1.5116210
  79.2499992 136.6219978   0.4440014  79.4619992 135.9159978  -0.1659986
  79.1389992 136.1849978   1.2880014  79.2640269 136.4661921   0.4745873
  84.0309992 132.6239978  -0.5769986  84.7429992 131.9839978  -0.5909986
  83.9299992 132.8899978  -1.4899986  84.1147387 132.5724330  -0.7024437
  84.3849992 134.3059978   1.4770014  84.2529992 133.8309978   0.6570014
  83.7849992 135.0509978   1.4220014  84.2859070 134.3415789   1.3573251
  92.5809992 145.4659978   1.5590014  91.7149992 145.3609978   1.9530014
  92.9569992 146.2239978   2.0050014  92.5133401 145.5541708   1.6732620
  93.8819992 143.7219978 -12.9269986  94.7319992 144.1429978 -12.7999986
  93.8869992 142.9819978 -12.3199986  93.9991143 143.6796094 -12.8275250
  94.2759992 141.7759978 -11.1039986  93.5499992 141.2959978 -10.7059986
  94.8579992 141.9809978 -10.3709986  94.2552730 141.7380184 -10.9505851
  94.0349992 144.5609978  -6.1559986  94.8689992 144.1829978  -6.4369986
  94.1469992 145.5039978  -6.2749986  94.1641917 144.6367943  -6.2105139
  94.5449992 141.6769978 -14.7129986  94.0229992 142.0329978 -15.4309986
  94.5119992 142.3519978 -14.0339986  94.4690129 141.8169598 -14.7196645
  92.8939992 138.9159978 -16.1619986  92.9899992 139.5829978 -16.8419986
  92.7539992 138.1009978 -16.6429986  92.8882040 138.8970671 -16.3201622
  92.0629992 140.2969978 -10.5409986  91.9129992 139.3519978 -10.5609986
  91.7089992 140.5779978  -9.6969986  91.9946351 140.2056644 -10.4296780
  77.0979992 142.3749978  -6.5299986  77.2829992 142.2929978  -7.4659986
  77.9479992 142.2509978  -6.1069986  77.2380928 142.3470463  -6.6007107
  92.9189992 142.2669978  -0.9019986  93.5019992 141.5319978  -0.7099986
  93.4829992 143.0389978  -0.8549986  93.0749781 142.2708145  -0.8693836
  94.4159992 140.1699978  -0.2169986  93.5529992 139.7909978  -0.3829986
  95.0199992 139.4309978  -0.2919986  94.3796085 140.0183223  -0.2498305
  92.1409992 136.3239978 -17.0439986  92.7519992 135.9529978 -16.4069986
  91.3039992 135.9029978 -16.8479986  92.1114947 136.2162756 -16.9302748
  91.7739992 137.8789978 -12.0779986  92.0529992 136.9719978 -11.9539986
  92.5329992 138.3129978 -12.4669986  91.9148619 137.8134502 -12.1136205
  92.3849992 138.4609978  -6.6419986  93.3179992 138.6729978  -6.6769986
  92.1499992 138.5619978  -5.7199986  92.4809517 138.5036833  -6.5220870
  92.4149992 139.1979978  -3.8659986  91.5719992 139.4659978  -3.4999986
  92.8569992 140.0199978  -4.0769986  92.3594138 139.3458273  -3.8444482
  76.6959992 137.6449978  -0.3899986  77.6149992 137.5229978  -0.1529986
  76.2459992 136.8949978   0.0000014  76.7610087 137.5269608  -0.3048590
  94.6979992 133.1779978   1.4870014  95.0469992 132.5239978   0.8820014
  94.8449992 134.0149978   1.0470014  94.7656824 133.2016024   1.3446304
  92.3869992 135.1419978 -12.0299986  92.5689992 134.6929978 -11.2049986
  91.7869992 134.5579978 -12.4939986  92.3308187 135.0015552 -11.9797261
  77.9169992 135.9579978  -7.4979986  78.3619992 135.1659978  -7.1959986
  78.3829992 136.6739978  -7.0679986  78.0409718 135.9464534  -7.3984735
  76.2209992 138.9569978  -6.4289986  76.7129992 138.7359978  -7.2199986
  76.5829992 139.7969978  -6.1479986  76.3372923 139.0403468  -6.4992593
  94.2169992 135.2869978  -0.1639986  93.2999992 135.5579978  -0.1989986
  94.3399992 134.7519978  -0.9479986  94.1079672 135.2517885  -0.2748138
  94.2539992 135.2099978 -15.5019986  94.6659992 134.4889978 -15.9769986
  94.9349992 135.8789978 -15.4439986  94.4025536 135.2017766 -15.5591976
  76.5349992 135.2149978 -12.3749986  75.6099992 135.4229978 -12.5039986
  76.9889992 135.6989978 -13.0649986  76.4696298 135.3089299 -12.4859549
  76.4979992 133.9529978  -4.0309986  75.8329992 133.7069978  -3.3879986
  76.0549992 134.5749978  -4.6079986  76.3471168 134.0034214  -4.0210152
  93.2179992 133.3769978  -2.3449986  92.4049992 133.7019978  -2.7319986
  93.4509992 132.6159978  -2.8779986  93.1381347 133.3186880  -2.4700159
  86.6479992 134.8259978  -8.0219986  85.9739992 134.1959978  -7.7659986
  87.2119992 134.3419978  -8.6249986  86.6320384 134.6743708  -8.0684980
  91.7909992 132.9329978  -7.9089986  92.3939992 133.4809978  -8.4109986
  90.9209992 133.2519978  -8.1499986  91.7559157 133.0510373  -8.0102090
  93.5179992 134.0719978  -9.5759986  94.1289992 133.5579978 -10.1029986
  93.8999992 134.9489978  -9.5529986  93.6533305 134.1202050  -9.6450582
  78.9749992 133.4599978 -10.1999986  78.1979992 133.2249978 -10.7069986
  79.5049992 132.6629978 -10.1909986  78.9403451 133.3201268 -10.2681373
  77.8109992 133.2579978 -14.3959986  78.2499992 133.8689978 -14.9879986
  77.1769992 133.7959978 -13.9219986  77.7853859 133.4144064 -14.4129695
  83.5539992 133.3859978 -10.3869986  84.4279992 133.7749978 -10.4159986
  83.4179992 133.1709978  -9.4639986  83.6551953 133.4101643 -10.2662383
  89.1109992 133.4159978  -8.7369986  89.1869992 133.5119978  -9.6869986
  88.8359992 132.5089978  -8.6089986  89.0841871 133.3064146  -8.8496056
  90.4639992 133.4419978 -13.0449986  89.7609992 134.0569978 -13.2549986
  90.0189992 132.6049978 -12.9139986  90.3076550 133.4129668 -13.0560163
  79.6719992 135.1739978 -15.9539986  80.1629992 134.5439978 -16.4809986
  80.2949992 135.4699978 -15.2909986  79.8235304 135.1277376 -15.9365060
  84.6979992 135.4669978 -13.4969986  84.8759992 134.8199978 -12.8139986
  84.6439992 136.3009978 -13.0299986  84.7150678 135.4911604 -13.3403699
  78.9319992 133.9739978  -0.6819986  78.5659992 133.2079978  -0.2399986
  79.8449992 134.0029978  -0.3959986  79.0053172 133.8730324  -0.5828110
  80.9049992 133.3239978   0.8530014  81.8039992 133.0499978   0.6690014
  80.5189992 132.5819978   1.3180014  80.9757307 133.1862196   0.8907098
  89.3269992 132.6569978   1.0360014  89.4029992 132.2309978   1.8890014
  90.2199992 132.6699978   0.6930014  89.4582303 132.6003493   1.1065497
 106.9089992 142.6159978 -10.2409986 106.9979992 143.5599978 -10.3729986
 106.2709992 142.3409978 -10.8989986 106.8349062 142.7079812 -10.3480359
 105.8419992 141.8709978  -6.8219986 105.8039992 141.2249978  -6.1169986
 105.5199992 141.4039978  -7.5929986 105.7932679 141.7194276  -6.8297079
  98.2099992 141.4849978  -5.2289986  98.2519992 140.8599978  -4.5059986
  98.9129992 142.1089978  -5.0469986  98.3107345 141.4837873  -5.1054726
 109.5479992 144.8099978  -8.5209986 109.1069992 144.0899978  -8.0699986
 109.5349992 145.5309978  -7.8909986 109.4859215 144.8089291  -8.3741895
  95.7439992 139.5949978 -11.3019986  95.2959992 140.4409978 -11.3199986
  95.1829992 139.0159978 -11.8169986  95.6068546 139.6323993 -11.3741109
  96.4539992 141.7569978  -9.1759986  96.6679992 140.9869978  -8.6479986
  97.1919992 141.8469978  -9.7789986  96.5830200 141.6638587  -9.1852965
 104.2309992 144.3029978  -6.4159986 104.5349992 143.6169978  -7.0109986
 104.9529992 144.4219978  -5.7979986 104.3701240 144.2252314  -6.4139041
 112.8939992 135.9049978  -5.5559986 112.9439992 136.5149978  -4.8199986
 113.3199992 136.3659978  -6.2789986 112.9584108 136.0507709  -5.5529888
 107.3719992 138.6969978  -6.0889986 107.5149992 137.7509978  -6.0689986
 107.2659992 138.9039978  -7.0169986 107.3772403 138.5954797  -6.2117761
 100.5269992 136.7989978  -8.8159986 100.5699992 137.6589978  -9.2349986
 100.0689992 136.2469978  -9.4499986 100.4709871 136.8419245  -8.9589239
 108.2489992 136.9299978 -10.4149986 108.8959992 136.6009978  -9.7909986
 108.7589992 137.4469978 -11.0379986 108.4064351 136.9549067 -10.4138963
  97.1469992 139.1959978  -8.0539986  97.8009992 138.6459978  -7.6219986
  97.1709992 138.9219978  -8.9709986  97.2397199 139.0837167  -8.1188332
 102.3039992 140.7459978  -8.8389986 102.9199992 140.2189978  -8.3299986
 101.7169992 140.1059978  -9.2429986 102.3090154 140.5873954  -8.8239055
 113.2859992 137.3829978  -3.3199986 112.5969992 138.0409978  -3.4149986
 113.3009992 137.1849978  -2.3829986 113.1937756 137.4462603  -3.2064188
  99.3369992 135.7169978  -4.7419986  99.1179992 136.2469978  -5.5089986
  98.6689992 135.9429978  -4.0949986  99.2166975 135.8200967  -4.7594860
 106.7059992 145.2169978 -11.1979986 106.4109992 144.8939978 -12.0499986
 106.3819992 146.1169978 -11.1569986 106.6218460 145.2944464 -11.3090286
 101.9059992 143.3919978  -4.4549986 101.1659992 143.9909978  -4.3509986
 102.6199992 143.9459978  -4.7699986 101.9013500 143.5487829  -4.4833629
 110.0129992 136.2209978  -8.4349986 109.7979992 135.4549978  -7.9019986
 110.6689992 136.6929978  -7.9219986 110.0722673 136.1800728  -8.2928010
  98.9309992 137.6089978  -6.7899986  99.5449992 138.2419978  -6.4169986
  99.4429992 137.1369978  -7.4459986  99.0841962 137.6317249  -6.8277065
 100.3139992 145.3569978  -3.6679986 100.3079992 146.2359978  -4.0459986
  99.4599992 145.2729978  -3.2429986 100.1977925 145.4659535  -3.6623113
  96.4349992 145.0279978 -12.8859986  96.1629992 145.2569978 -13.7739986
  96.4799992 145.8649978 -12.4249986  96.4038097 145.1726163 -12.9453317
 110.3599992 134.9359978  -4.7559986 109.6239992 135.5459978  -4.7929986
 111.0439992 135.3509978  -5.2819986 110.3515367 135.0757551  -4.8321826
 103.3639992 133.0219978  -7.2899986 103.2459992 132.0739978  -7.3439986
 102.5089992 133.3549978  -7.0169986 103.2322805 132.9372202  -7.2604921
 111.1579992 144.8979978  -2.5619986 111.2969992 144.3059978  -3.3009986
 111.3249992 145.7709978  -2.9179986 111.1996193 144.9348896  -2.7113789
 105.6299992 141.8599978 -12.7889986 104.9189992 142.3949978 -13.1409986
 106.3209992 141.9149978 -13.4489986 105.6260751 141.9406777 -12.9264142
 105.6839992 140.3169978 -15.7509986 106.3849992 140.3399978 -15.0989986
 105.9859992 139.6889978 -16.4069986 105.8208202 140.2352212 -15.7504391
 112.9989992 141.2379978  -4.4959986 112.3469992 141.9319978  -4.4069986
 113.4649992 141.4479978  -5.3059986 112.9725937 141.3615019  -4.5932467
 109.0359992 142.0689978 -11.8379986 108.3039992 142.2979978 -11.2639986
 109.4829992 141.3559978 -11.3829986 108.9963963 142.0038729 -11.6980055
 108.9329992 140.2439978  -2.7699986 109.0129992 141.0069978  -2.1979986
 108.3319992 140.5229978  -3.4599986 108.8626547 140.3862457  -2.7849953
 100.6809992 142.6999978  -9.9549986 100.3509992 142.3289978 -10.7729986
 101.2699992 142.0289978  -9.6079986 100.7153970 142.5586063 -10.0200596
 101.0479992 141.4679978  -6.3219986 101.6129992 141.5899978  -7.0839986
 101.3669992 142.1059978  -5.6829986 101.1684166 141.5708791  -6.3399652
 107.9069992 141.2319978 -14.1519986 108.4859992 141.3819978 -13.4059986
 108.3209992 141.7019978 -14.8759986 108.0423358 141.3160954 -14.1476047
  98.8479992 142.0659978  -2.3759986  98.9179992 142.7169978  -1.6769986
  97.9569992 142.1689978  -2.7109986  98.7371690 142.1689249  -2.3256957
 111.6059992 132.9819978 -14.3389986 110.7059992 133.1209978 -14.0439986
 111.8579992 133.8129978 -14.7409986 111.5168683 133.1134055 -14.3529768
  99.6719992 141.7689978 -12.3659986  99.3799992 142.5369978 -12.8569986
  98.9969992 141.1099978 -12.5289986  99.5408497 141.7849745 -12.4551740
  95.7649992 144.1319978  -3.5509986  95.2629992 144.1039978  -4.3659986
  95.7699992 143.2269978  -3.2409986  95.6969832 144.0057486  -3.6205879
 110.8649992 139.0719978  -0.5039986 110.4569992 139.5519978  -1.2249986
 110.9049992 138.1659978  -0.8119986 110.8146221 139.0152449  -0.6441733
  98.0139992 145.4559978  -2.5079986  98.2299992 145.0939978  -1.6479986
  97.1579992 145.0809978  -2.7169986  97.9278810 145.3558837  -2.4187320
 100.6319992 133.9259978  -6.5119986  99.7709992 133.8389978  -6.9199986
 100.6099992 134.7819978  -6.0839986 100.5110491 134.0298003  -6.5100418
 105.2949992 133.6479978  -3.1369986 105.7149992 133.2329978  -2.3839986
 104.3619992 133.4689978  -3.0199986 105.2263736 133.5669910  -3.0181032
 108.6219992 137.4029978  -2.2839986 108.1079992 137.2779978  -1.4859986
 108.4659992 138.3159978  -2.5279986 108.5306967 137.5092123  -2.2079063
 109.3839992 142.2639978 -16.5229986 109.4259992 142.0419978 -17.4529986
 110.2329992 142.6629978 -16.3329986 109.5045253 142.2875498 -16.6246178
 104.9569992 136.1399978 -15.8519986 104.7029992 136.1589978 -14.9299986
 104.6999992 135.2689978 -16.1539986 104.8874508 136.0248280 -15.7665197
 100.7229992 138.8909978  -5.4169986 100.0819992 138.8509978  -4.7079986
 100.7609992 139.8179978  -5.6549986 100.6403010 139.0107668  -5.3520054
 100.7199992 139.1119978 -10.5049986  99.8279992 138.7719978 -10.5639986
 101.1709992 138.7349978 -11.2609986 100.6587642 139.0144910 -10.6152274
 106.2559992 139.5279978 -11.6879986 105.8469992 140.3429978 -11.9799986
 106.9759992 139.3879978 -12.3019986 106.2974439 139.6205372 -11.8109885
 105.3579992 139.7039978  -0.1999986 104.7949992 138.9989978   0.1210014
 106.1839992 139.5829978   0.2680014 105.3926674 139.5912165  -0.0928249
 107.2609992 138.9739978  -8.8739986 107.0649992 139.5799978  -9.5889986
 107.4419992 138.1409978  -9.3079986 107.2586584 138.9442513  -9.0305788
  98.4729992 139.2119978  -3.5499986  98.4349992 139.6119978  -2.6809986
  97.9829992 138.3949978  -3.4599986  98.4015330 139.1562674  -3.4188711
 101.8389992 136.5859978 -16.7509986 101.4079992 136.1409978 -16.0219986
 101.1209992 136.9569978 -17.2639986 101.6829176 136.5752051 -16.7205070
  95.0819992 136.3279978  -9.6989986  95.7119992 136.2989978  -8.9799986
  95.5309992 135.9029978 -10.4299986  95.2290835 136.2665660  -9.6992341
  96.3559992 137.0739978 -14.2749986  96.8299992 137.6649978 -14.8599986
  95.6379992 137.6039978 -13.9279986  96.3238640 137.2265511 -14.3082031
 106.5249992 140.6119978  -4.2029986 106.8479992 139.9809978  -4.8459986
 106.0839992 140.0779978  -3.5419986 106.5096379 140.4533468  -4.2017418
 103.3019992 136.5399978  -9.4189986 102.3909992 136.5969978  -9.1299986
 103.8069992 136.4799978  -8.6079986 103.2456873 136.5396826  -9.2698793
  98.1299992 138.1689978 -10.5919986  97.2409992 138.2679978 -10.9319986
  98.4269992 137.3269978 -10.9379986  98.0484177 138.0687687 -10.6853060
 101.7829992 138.1689978 -12.9349986 102.7149992 138.2979978 -12.7569986
 101.5679992 138.8379978 -13.5849986 101.8814472 138.2770806 -12.9985109
 107.7069992 135.7749978  -6.1539986 107.0299992 135.9059978  -5.4909986
 107.2219992 135.6199978  -6.9649986 107.5487405 135.7719947  -6.1727830
 100.4569992 139.3629978 -15.3689986  99.9149992 138.9839978 -16.0599986
 101.2909992 139.5579978 -15.7969986 100.4954390 139.3374079 -15.5215608
  98.5929992 143.9199978  -0.2699986  99.3249992 144.1749978   0.2920014
  97.8119992 144.1249978   0.2460014  98.5876526 143.9825450  -0.1234824
 104.6219992 139.3269978  -7.5319986 105.1859992 138.7809978  -8.0789986
 104.4739992 138.8059978  -6.7429986 104.6793037 139.1816787  -7.5002771
  99.6239992 135.4639978 -11.1129986  99.3069992 134.5609978 -11.1489986
 100.4049992 135.4659978 -11.6659986  99.6862431 135.3407797 -11.1926898
 103.2479992 137.7159978  -5.1179986 102.4129992 138.1699978  -5.0069986
 103.7719992 137.9919978  -4.3659986 103.2046072 137.8153948  -5.0011864
 103.7929992 143.9289978 -13.4329986 103.0479992 143.4209978 -13.7549986
 103.6579992 143.9779978 -12.4869986 103.6728963 143.8661731 -13.3491174
 110.9429992 143.0619978  -4.6459986 111.5839992 143.5179978  -5.1899986
 110.1119992 143.1749978  -5.1089986 110.9185287 143.1396921  -4.7830113
 107.6899992 136.7429978 -15.2339986 106.7519992 136.8539978 -15.3849986
 107.9879992 137.5989978 -14.9269986 107.6016318 136.8740158 -15.2131855
 105.3119992 144.1129978  -2.1959986 104.9659992 143.7309978  -1.3889986
 105.1119992 145.0459978  -2.1249986 105.2375987 144.1869002  -2.0759539
 108.4089992 138.6099978 -13.5729986 109.3009992 138.4719978 -13.2539986
 108.4649992 139.4009978 -14.1099986 108.5387325 138.6979918 -13.6018783
  98.9169992 143.2239978  -7.6629986  99.6619992 143.2209978  -8.2649986
  98.9949992 142.3999978  -7.1819986  99.0293365 143.1122384  -7.6802570
 105.9179992 145.3869978 -14.4079986 105.6229992 146.2139978 -14.0259986
 105.2149992 144.7679978 -14.2109986 105.7826379 145.4164171 -14.3291346
  95.9249992 141.6839978  -2.3479986  96.1479992 141.2659978  -1.5169986
  95.3229992 141.0719978  -2.7709986  95.8741513 141.5439606  -2.2913260
 102.9419992 141.2009978  -0.1349986 102.6459992 141.0359978  -1.0309986
 103.8729992 140.9809978  -0.1459986 103.0274401 141.1486879  -0.2589794
 113.2939992 138.8189978 -13.8779986 112.7389992 138.4229978 -14.5509986
 113.3939992 139.7299978 -14.1559986 113.2316816 138.8879505 -14.0074967
 113.2569992 144.6199978  -1.0409986 112.4059992 144.8579978  -1.4089986
 113.8469992 144.6029978  -1.7939986 113.2203812 144.6502524  -1.1931547
 108.7489992 142.4129978  -6.3919986 107.8209992 142.1819978  -6.4189986
 109.1999992 141.6359978  -6.7219986 108.6828165 142.2762774  -6.4403210
  97.0469992 141.6039978 -15.6719986  97.6629992 142.2309978 -15.2919986
  96.1849992 141.9199978 -15.3999986  97.0147678 141.7324412 -15.5832791
 102.7199992 144.4049978 -10.6829986 102.4789992 145.3299978 -10.6409986
 101.9789992 143.9459978 -10.2859986 102.5869206 144.4695915 -10.6236231
 106.7779992 144.6529978  -4.6669986 106.3529992 144.4249978  -3.8409986
 107.3589992 143.9139978  -4.8489986 106.7983395 144.5219545  -4.5785586
  97.5589992 136.4379978  -2.7899986  96.6669992 136.7759978  -2.8579986
  97.4609992 135.5819978  -2.3719986  97.4234475 136.3686543  -2.7428296
 109.8469992 144.2539978 -13.3659986 109.5699992 143.5259978 -12.8099986
 110.7749992 144.3729978 -13.1609986 109.9344499 144.1704213 -13.2621956
  98.4619992 143.5159978 -14.1789986  97.7759992 143.8689978 -13.6119986
  98.9849992 144.2789978 -14.4259986  98.4388402 143.6673901 -14.1348199
 106.2939992 136.1789978  -3.8999986 106.9929992 136.2529978  -3.2499986
 105.9129992 135.3139978  -3.7459986 106.3382097 136.0722389  -3.7902003
 107.0779992 135.8309978 -12.8029986 107.2979992 136.3019978 -13.6069986
 107.6369992 136.2249978 -12.1329986 107.1836731 135.9487287 -12.8224967
 104.2779992 137.5589978 -11.9679986 105.0899992 138.0629978 -11.9219986
 104.0339992 137.4139978 -11.0539986 104.3561467 137.6083749 -11.8381425
 104.8139992 138.5449978  -2.7839986 104.9329992 139.1189978  -2.0269986
 105.4689992 137.8569978  -2.6689986 104.9188684 138.5305194  -2.6648326
 105.1619992 134.6399978 -11.0299986 104.8149992 135.2569978 -10.3859986
 105.8209992 135.1409978 -11.5119986 105.2035090 134.7921575 -11.0069319
 100.8199992 135.7029978 -14.3429986 100.7359992 136.5909978 -13.9959986
 101.7099992 135.4379978 -14.1109986 100.9288163 135.7887179 -14.2641404
 111.0179992 136.4519978  -1.9489986 110.1019992 136.7139978  -2.0359986
 111.3539992 136.4489978  -2.8449986 110.9378499 136.4875163  -2.0821234
 109.6209992 140.2019978  -7.8529986 108.8229992 139.7869978  -8.1809986
 110.0659992 139.5119978  -7.3619986 109.5719684 140.0518628  -7.8314773
  97.3939992 138.7949978 -16.1669986  97.3489992 139.7339978 -15.9879986
  96.5059992 138.5589978 -16.4359986  97.2678166 138.8916687 -16.1788476
  98.2019992 133.5759978  -7.4929986  97.9729992 133.6349978  -8.4209986
  97.7599992 132.7849978  -7.1869986  98.1108801 133.4770540  -7.5785271
  96.3279992 143.9399978   0.9510014  96.4719992 143.0379978   0.6650014
  95.5559992 144.2259978   0.4640014  96.2432733 143.8551798   0.8459532
 100.6689992 144.2829978 -16.9159986 100.7339992 143.4889978 -16.3859986
 101.3219992 144.1649978 -17.6059986 100.7661605 144.1583430 -16.9367003
 102.9829992 143.9089978   0.3840014 102.6549992 144.1799978  -0.4729986
 103.1349992 142.9679978   0.2960014 102.9586412 143.8189046   0.2547822
 108.7179992 143.8249978  -2.2329986 109.4629992 144.4139978  -2.3519986
 107.9609992 144.4069978  -2.1689986 108.7175470 143.9842128  -2.2406201
  97.1609992 141.1399978   0.3710014  97.5689992 140.2829978   0.2500014
  96.8999992 141.1539978   1.2920014  97.1816016 141.0245119   0.4789192
 101.8189992 142.2559978 -14.6099986 101.3589992 141.7719978 -13.9249986
 102.0739992 141.5869978 -15.2459986 101.7904856 142.0993669 -14.6021603
 101.1079992 140.1489978  -2.2539986 100.4889992 140.8229978  -1.9739986
 101.4519992 140.4699978  -3.0879986 101.0697123 140.2846887  -2.3283612
 102.8899992 140.4989978 -16.3479986 102.7089992 140.3439978 -17.2749986
 103.8399992 140.6069978 -16.3029986 102.9936566 140.4923669 -16.4689071
 106.1269992 142.6199978   1.0230014 107.0809992 142.7039978   0.9960014
 105.9669992 141.9079978   1.6430014 106.2357182 142.5352842   1.1030733
 112.2799992 142.8529978 -16.9019986 112.0059992 142.4289978 -17.7149986
 112.3189992 143.7849978 -17.1189986 112.2477716 142.9208827 -17.0425714
 101.4469992 137.5039978  -1.1719986 101.5969992 136.7749978  -1.7739986
 101.4489992 138.2809978  -1.7309986 101.4677967 137.5092708  -1.3299459
 101.8599992 135.8729978  -3.6789986 102.3949992 136.3249978  -4.3309986
 101.0069992 135.7649978  -4.1019986 101.8180374 135.9202665  -3.8253290
 103.4409992 141.3129978  -3.4399986 104.1919992 141.1569978  -4.0129986
 103.1019992 142.1649978  -3.7149986 103.4979587 141.4068138  -3.5555922
 107.8569992 139.1279978   1.5890014 108.0489992 138.1969978   1.4770014
 108.7149992 139.5529978   1.5780014 107.9992182 139.0580070   1.5721862
 109.1739992 141.9169978  -0.3339986 108.8919992 142.6259978  -0.9119986
 110.1159992 141.8439978  -0.4849986 109.2627921 142.0042193  -0.4335775
  99.9259992 138.7019978   0.7390014  99.1579992 138.1689978   0.5290014
 100.6039992 138.3919978   0.1400014  99.9127235 138.5871754   0.6292413
 102.6649992 133.3299978  -3.2479986 102.5669992 134.2759978  -3.3529986
 101.9229992 132.9569978  -3.7239986 102.5512534 133.4091773  -3.3267400
 103.9289992 137.6509978   0.3160014 103.6939992 137.4319978   1.2170014
 103.1459992 137.4439978  -0.1939986 103.7909095 137.5929892   0.3705353
 106.6449992 136.7789978  -0.6089986 105.6969992 136.8109978  -0.4769986
 106.9569992 136.1529978   0.0450014 106.5575293 136.6987923  -0.5025852
 108.2789992 135.4129978   1.3960014 108.1819992 134.4609978   1.3910014
 107.9569992 135.6809978   2.2570014 108.2222468 135.3190884   1.5116210
  98.1059992 136.6219978   0.4440014  98.3179992 135.9159978  -0.1659986
  97.9949992 136.1849978   1.2880014  98.1200269 136.4661921   0.4745873
 102.8869992 132.6239978  -0.5769986 103.5989992 131.9839978  -0.5909986
 102.7859992 132.8899978  -1.4899986 102.9707387 132.5724330  -0.7024437
 103.2409992 134.3059978   1.4770014 103.1089992 133.8309978   0.6570014
 102.6409992 135.0509978   1.4220014 103.1419070 134.3415789   1.3573251
 111.4369992 145.4659978   1.5590014 110.5709992 145.3609978   1.9530014
 111.8129992 146.2239978   2.0050014 111.3693401 145.5541708   1.6732620
 112.7379992 143.7219978 -12.9269986 113.5879992 144.1429978 -12.7999986
 112.7429992 142.9819978 -12.3199986 112.8551143 143.6796094 -12.8275250
 113.1319992 141.7759978 -11.1039986 112.4059992 141.2959978 -10.7059986
 113.7139992 141.9809978 -10.3709986 113.1112730 141.7380184 -10.9505851
 112.8909992 144.5609978  -6.1559986 113.7249992 144.1829978  -6.4369986
 113.0029992 145.5039978  -6.2749986 113.0201917 144.6367943  -6.2105139
 113.4009992 141.6769978 -14.7129986 112.8789992 142.0329978 -15.4309986
 113.3679992 142.3519978 -14.0339986 113.3250129 141.8169598 -14.7196645
 111.7499992 138.9159978 -16.1619986 111.8459992 139.5829978 -16.8419986
 111.6099992 138.1009978 -16.6429986 111.7442040 138.8970671 -16.3201622
 110.9189992 140.2969978 -10.5409986 110.7689992 139.3519978 -10.5609986
 110.5649992 140.5779978  -9.6969986 110.8506351 140.2056644 -10.4296780
  95.9539992 142.3749978  -6.5299986  96.1389992 142.2929978  -7.4659986
  96.8039992 142.2509978  -6.1069986  96.0940928 142.3470463  -6.6007107
 111.7749992 142.2669978  -0.9019986 112.3579992 141.5319978  -0.7099986
 112.3389992 143.0389978  -0.8549986 111.9309781 142.2708145  -0.8693836
 113.2719992 140.1699978  -0.2169986 112.4089992 139.7909978  -0.3829986
 113.8759992 139.4309978  -0.2919986 113.2356085 140.0183223  -0.2498305
 110.9969992 136.3239978 -17.0439986 111.6079992 135.9529978 -16.4069986
 110.1599992 135.9029978 -16.8479986 110.9674947 136.2162756 -16.9302748
 110.6299992 137.8789978 -12.0779986 110.9089992 136.9719978 -11.9539986
 111.3889992 138.3129978 -12.4669986 110.7708619 137.8134502 -12.1136205
 111.2409992 138.4609978  -6.6419986 112.1739992 138.6729978  -6.6769986
 111.0059992 138.5619978  -5.7199986 111.3369517 138.5036833  -6.5220870
 111.2709992 139.1979978  -3.8659986 110.4279992 139.4659978  -3.4999986
 111.7129992 140.0199978  -4.0769986 111.2154138 139.3458273  -3.8444482
  95.5519992 137.6449978  -0.3899986  96.4709992 137.5229978  -0.1529986
  95.1019992 136.8949978   0.0000014  95.6170087 137.5269608  -0.3048590
 113.5539992 133.1779978   1.4870014 113.9029992 132.5239978   0.8820014
 113.7009992 134.0149978   1.0470014 113.6216824 133.2016024   1.3446304
 111.2429992 135.1419978 -12.0299986 111.4249992 134.6929978 -11.2049986
 110.6429992 134.5579978 -12.4939986 111.1868187 135.0015552 -11.9797261
  96.7729992 135.9579978  -7.4979986  97.2179992 135.1659978  -7.1959986
  97.2389992 136.6739978  -7.0679986  96.8969718 135.9464534  -7.3984735
  95.0769992 138.9569978  -6.4289986  95.5689992 138.7359978  -7.2199986
  95.4389992 139.7969978  -6.1479986  95.1932923 139.0403468  -6.4992593
 113.0729992 135.2869978  -0.1639986 112.1559992 135.5579978  -0.1989986
 113.1959992 134.7519978  -0.9479986 112.9639672 135.2517885  -0.2748138
 113.1099992 135.2099978 -15.5019986 113.5219992 134.4889978 -15.9769986
 113.7909992 135.8789978 -15.4439986 113.2585536 135.2017766 -15.5591976
  95.3909992 135.2149978 -12.3749986  94.4659992 135.4229978 -12.5039986
  95.8449992 135.6989978 -13.0649986  95.3256298 135.3089299 -12.4859549
  95.3539992 133.9529978  -4.0309986  94.6889992 133.7069978  -3.3879986
  94.9109992 134.5749978  -4.6079986  95.2031168 134.0034214  -4.0210152
 112.0739992 133.3769978  -2.3449986 111.2609992 133.7019978  -2.7319986
 112.3069992 132.6159978  -2.8779986 111.9941347 133.3186880  -2.4700159
 105.5039992 134.8259978  -8.0219986 104.8299992 134.1959978  -7.7659986
 106.0679992 134.3419978  -8.6249986 105.4880384 134.6743708  -8.0684980
 110.6469992 132.9329978  -7.9089986 111.2499992 133.4809978  -8.4109986
 109.7769992 133.2519978  -8.1499986 110.6119157 133.0510373  -8.0102090
 112.3739992 134.0719978  -9.5759986 112.9849992 133.5579978 -10.1029986
 112.7559992 134.9489978  -9.5529986 112.5093305 134.1202050  -9.6450582
  97.8309992 133.4599978 -10.1999986  97.0539992 133.2249978 -10.7069986
  98.3609992 132.6629978 -10.1909986  97.7963451 133.3201268 -10.2681373
  96.6669992 133.2579978 -14.3959986  97.1059992 133.8689978 -14.9879986
  96.0329992 133.7959978 -13.9219986  96.6413859 133.4144064 -14.4129695
 102.4099992 133.3859978 -10.3869986 103.2839992 133.7749978 -10.4159986
 102.2739992 133.1709978  -9.4639986 102.5111953 133.4101643 -10.2662383
 107.9669992 133.4159978  -8.7369986 108.0429992 133.5119978  -9.6869986
 107.6919992 132.5089978  -8.6089986 107.9401871 133.3064146  -8.8496056
 109.3199992 133.4419978 -13.0449986 108.6169992 134.0569978 -13.2549986
 108.8749992 132.6049978 -12.9139986 109.1636550 133.4129668 -13.0560163
  98.5279992 135.1739978 -15.9539986  99.0189992 134.5439978 -16.4809986
  99.1509992 135.4699978 -15.2909986  98.6795304 135.1277376 -15.9365060
 103.5539992 135.4669978 -13.4969986 103.7319992 134.8199978 -12.8139986
 103.4999992 136.3009978 -13.0299986 103.5710678 135.4911604 -13.3403699
  97.7879992 133.9739978  -0.6819986  97.4219992 133.2079978  -0.2399986
  98.7009992 134.0029978  -0.3959986  97.8613172 133.8730324  -0.5828110
  99.7609992 133.3239978   0.8530014 100.6599992 133.0499978   0.6690014
  99.3749992 132.5819978   1.3180014  99.8317307 133.1862196   0.8907098
 108.1829992 132.6569978   1.0360014 108.2589992 132.2309978   1.8890014
 109.0759992 132.6699978   0.6930014 108.3142303 132.6003493   1.1065497
 125.7649992 142.6159978 -10.2409986 125.8539992 143.5599978 -10.3729986
 125.1269992 142.3409978 -10.8989986 125.6909062 142.7079812 -10.3480359
 124.6979992 141.8709978  -6.8219986 124.6599992 141.2249978  -6.1169986
 124.3759992 141.4039978  -7.5929986 124.6492679 141.7194276  -6.8297079
 117.0659992 141.4849978  -5.2289986 117.1079992 140.8599978  -4.5059986
 117.7689992 142.1089978  -5.0469986 117.1667345 141.4837873  -5.1054726
 128.4039992 144.8099978  -8.5209986 127.9629992 144.0899978  -8.0699986
 128.3909992 145.5309978  -7.8909986 128.3419215 144.8089291  -8.3741895
 114.5999992 139.5949978 -11.3019986 114.1519992 140.4409978 -11.3199986
 114.0389992 139.0159978 -11.8169986 114.4628546 139.6323993 -11.3741109
 115.3099992 141.7569978  -9.1759986 115.5239992 140.9869978  -8.6479986
 116.0479992 141.8469978  -9.7789986 115.4390200 141.6638587  -9.1852965
 123.0869992 144.3029978  -6.4159986 123.3909992 143.6169978  -7.0109986
 123.8089992 144.4219978  -5.7979986 123.2261240 144.2252314  -6.4139041
 131.7499992 135.9049978  -5.5559986 131.7999992 136.5149978  -4.8199986
 132.1759992 136.3659978  -6.2789986 131.8144108 136.0507709  -5.5529888
 126.2279992 138.6969978  -6.0889986 126.3709992 137.7509978  -6.0689986
 126.1219992 138.9039978  -7.0169986 126.2332403 138.5954797  -6.2117761
 119.3829992 136.7989978  -8.8159986 119.4259992 137.6589978  -9.2349986
 118.9249992 136.2469978  -9.4499986 119.3269871 136.8419245  -8.9589239
 127.1049992 136.9299978 -10.4149986 127.7519992 136.6009978  -9.7909986
 127.6149992 137.4469978 -11.0379986 127.2624351 136.9549067 -10.4138963
 116.0029992 139.1959978  -8.0539986 116.6569992 138.6459978  -7.6219986
 116.0269992 138.9219978  -8.9709986 116.0957199 139.0837167  -8.1188332
 121.1599992 140.7459978  -8.8389986 121.7759992 140.2189978  -8.3299986
 120.5729992 140.1059978  -9.2429986 121.1650154 140.5873954  -8.8239055
 132.1419992 137.3829978  -3.3199986 131.4529992 138.0409978  -3.4149986
 132.1569992 137.1849978  -2.3829986 132.0497756 137.4462603  -3.2064188
 118.1929992 135.7169978  -4.7419986 117.9739992 136.2469978  -5.5089986
 117.5249992 135.9429978  -4.0949986 118.0726975 135.8200967  -4.7594860
 125.5619992 145.2169978 -11.1979986 125.2669992 144.8939978 -12.0499986
 125.2379992 146.1169978 -11.1569986 125.4778460 145.2944464 -11.3090286
 120.7619992 143.3919978  -4.4549986 120.0219992 143.9909978  -4.3509986
 121.4759992 143.9459978  -4.7699986 120.7573500 143.5487829  -4.4833629
 128.8689992 136.2209978  -8.4349986 128.6539992 135.4549978  -7.9019986
 129.5249992 136.6929978  -7.9219986 128.9282673 136.1800728  -8.2928010
 117.7869992 137.6089978  -6.7899986 118.4009992 138.2419978  -6.4169986
 118.2989992 137.1369978  -7.4459986 117.9401962 137.6317249  -6.8277065
 119.1699992 145.3569978  -3.6679986 119.1639992 146.2359978  -4.0459986
 118.3159992 145.2729978  -3.2429986 119.0537925 145.4659535  -3.6623113
 115.2909992 145.0279978 -12.8859986 115.0189992 145.2569978 -13.7739986
 115.3359992 145.8649978 -12.4249986 115.2598097 145.1726163 -12.9453317
 129.2159992 134.9359978  -4.7559986 128.4799992 135.5459978  -4.7929986
 129.8999992 135.3509978  -5.2819986 129.2075367 135.0757551  -4.8321826
 122.2199992 133.0219978  -7.2899986 122.1019992 132.0739978  -7.3439986
 121.3649992 133.3549978  -7.0169986 122.0882805 132.9372202  -7.2604921
 130.0139992 144.8979978  -2.5619986 130.1529992 144.3059978  -3.3009986
 130.1809992 145.7709978  -2.9179986 130.0556193 144.9348896  -2.7113789
 124.4859992 141.8599978 -12.7889986 123.7749992 142.3949978 -13.1409986
 125.1769992 141.9149978 -13.4489986 124.4820751 141.9406777 -12.9264142
 124.5399992 140.3169978 -15.7509986 125.2409992 140.3399978 -15.0989986
 124.8419992 139.6889978 -16.4069986 124.6768202 140.2352212 -15.7504391
 131.8549992 141.2379978  -4.4959986 131.2029992 141.9319978  -4.4069986
 132.3209992 141.4479978  -5.3059986 131.8285937 141.3615019  -4.5932467
 127.8919992 142.0689978 -11.8379986 127.1599992 142.2979978 -11.2639986
 128.3389992 141.3559978 -11.3829986 127.8523963 142.0038729 -11.6980055
 127.7889992 140.2439978  -2.7699986 127.8689992 141.0069978  -2.1979986
 127.1879992 140.5229978  -3.4599986 127.7186547 140.3862457  -2.7849953
 119.5369992 142.6999978  -9.9549986 119.2069992 142.3289978 -10.7729986
 120.1259992 142.0289978  -9.6079986 119.5713970 142.5586063 -10.0200596
 119.9039992 141.4679978  -6.3219986 120.4689992 141.5899978  -7.0839986
 120.2229992 142.1059978  -5.6829986 120.0244166 141.5708791  -6.3399652
 126.7629992 141.2319978 -14.1519986 127.3419992 141.3819978 -13.4059986
 127.1769992 141.7019978 -14.8759986 126.8983358 141.3160954 -14.1476047
 117.7039992 142.0659978  -2.3759986 117.7739992 142.7169978  -1.6769986
 116.8129992 142.1689978  -2.7109986 117.5931690 142.1689249  -2.3256957
 130.4619992 132.9819978 -14.3389986 129.5619992 133.1209978 -14.0439986
 130.7139992 133.8129978 -14.7409986 130.3728683 133.1134055 -14.3529768
 118.5279992 141.7689978 -12.3659986 118.2359992 142.5369978 -12.8569986
 117.8529992 141.1099978 -12.5289986 118.3968497 141.7849745 -12.4551740
 114.6209992 144.1319978  -3.5509986 114.1189992 144.1039978  -4.3659986
 114.6259992 143.2269978  -3.2409986 114.5529832 144.0057486  -3.6205879
 129.7209992 139.0719978  -0.5039986 129.3129992 139.5519978  -1.2249986
 129.7609992 138.1659978  -0.8119986 129.6706221 139.0152449  -0.6441733
 116.8699992 145.4559978  -2.5079986 117.0859992 145.0939978  -1.6479986
 116.0139992 145.0809978  -2.7169986 116.7838810 145.3558837  -2.4187320
 119.4879992 133.9259978  -6.5119986 118.6269992 133.8389978  -6.9199986
 119.4659992 134.7819978  -6.0839986 119.3670491 134.0298003  -6.5100418
 124.1509992 133.6479978  -3.1369986 124.5709992 133.2329978  -2.3839986
 123.2179992 133.4689978  -3.0199986 124.0823736 133.5669910  -3.0181032
 127.4779992 137.4029978  -2.2839986 126.9639992 137.2779978  -1.4859986
 127.3219992 138.3159978  -2.5279986 127.3866967 137.5092123  -2.2079063
 128.2399992 142.2639978 -16.5229986 128.2819992 142.0419978 -17.4529986
 129.0889992 142.6629978 -16.3329986 128.3605253 142.2875498 -16.6246178
 123.8129992 136.1399978 -15.8519986 123.5589992 136.1589978 -14.9299986
 123.5559992 135.2689978 -16.1539986 123.7434508 136.0248280 -15.7665197
 119.5789992 138.8909978  -5.4169986 118.9379992 138.8509978  -4.7079986
 119.6169992 139.8179978  -5.6549986 119.4963010 139.0107668  -5.3520054
 119.5759992 139.1119978 -10.5049986 118.6839992 138.7719978 -10.5639986
 120.0269992 138.7349978 -11.2609986 119.5147642 139.0144910 -10.6152274
 125.1119992 139.5279978 -11.6879986 124.7029992 140.3429978 -11.9799986
 125.8319992 139.3879978 -12.3019986 125.1534439 139.6205372 -11.8109885
 124.2139992 139.7039978  -0.1999986 123.6509992 138.9989978   0.1210014
 125.0399992 139.5829978   0.2680014 124.2486674 139.5912165  -0.0928249
 126.1169992 138.9739978  -8.8739986 125.9209992 139.5799978  -9.5889986
 126.2979992 138.1409978  -9.3079986 126.1146584 138.9442513  -9.0305788
 117.3289992 139.2119978  -3.5499986 117.2909992 139.6119978  -2.6809986
 116.8389992 138.3949978  -3.4599986 117.2575330 139.1562674  -3.4188711
 120.6949992 136.5859978 -16.7509986 120.2639992 136.1409978 -16.0219986
 119.9769992 136.9569978 -17.2639986 120.5389176 136.5752052 -16.7205070
 113.9379992 136.3279978  -9.6989986 114.5679992 136.2989978  -8.9799986
 114.3869992 135.9029978 -10.4299986 114.0850835 136.2665660  -9.6992341
 115.2119992 137.0739978 -14.2749986 115.6859992 137.6649978 -14.8599986
 114.4939992 137.6039978 -13.9279986 115.1798640 137.2265511 -14.3082031
 125.3809992 140.6119978  -4.2029986 125.7039992 139.9809978  -4.8459986
 124.9399992 140.0779978  -3.5419986 125.3656379 140.4533468  -4.2017418
 122.1579992 136.5399978  -9.4189986 121.2469992 136.5969978  -9.1299986
 122.6629992 136.4799978  -8.6079986 122.1016873 136.5396826  -9.2698793
 116.9859992 138.1689978 -10.5919986 116.0969992 138.2679978 -10.9319986
 117.2829992 137.3269978 -10.9379986 116.9044177 138.0687687 -10.6853060
 120.6389992 138.1689978 -12.9349986 121.5709992 138.2979978 -12.7569986
 120.4239992 138.8379978 -13.5849986 120.7374472 138.2770806 -12.9985109
 126.5629992 135.7749978  -6.1539986 125.8859992 135.9059978  -5.4909986
 126.0779992 135.6199978  -6.9649986 126.4047405 135.7719947  -6.1727830
 119.3129992 139.3629978 -15.3689986 118.7709992 138.9839978 -16.0599986
 120.1469992 139.5579978 -15.7969986 119.3514390 139.3374079 -15.5215608
 117.4489992 143.9199978  -0.2699986 118.1809992 144.1749978   0.2920014
 116.6679992 144.1249978   0.2460014 117.4436526 143.9825450  -0.1234824
 123.4779992 139.3269978  -7.5319986 124.0419992 138.7809978  -8.0789986
 123.3299992 138.8059978  -6.7429986 123.5353037 139.1816787  -7.5002771
 118.4799992 135.4639978 -11.1129986 118.1629992 134.5609978 -11.1489986
 119.2609992 135.4659978 -11.6659986 118.5422431 135.3407797 -11.1926898
 122.1039992 137.7159978  -5.1179986 121.2689992 138.1699978  -5.0069986
 122.6279992 137.9919978  -4.3659986 122.0606072 137.8153948  -5.0011864
 122.6489992 143.9289978 -13.4329986 121.9039992 143.4209978 -13.7549986
 122.5139992 143.9779978 -12.4869986 122.5288963 143.8661731 -13.3491174
 129.7989992 143.0619978  -4.6459986 130.4399992 143.5179978  -5.1899986
 128.9679992 143.1749978  -5.1089986 129.7745287 143.1396921  -4.7830113
 126.5459992 136.7429978 -15.2339986 125.6079992 136.8539978 -15.3849986
 126.8439992 137.5989978 -14.9269986 126.4576318 136.8740158 -15.2131855
 124.1679992 144.1129978  -2.1959986 123.8219992 143.7309978  -1.3889986
 123.9679992 145.0459978  -2.1249986 124.0935987 144.1869002  -2.0759539
 127.2649992 138.6099978 -13.5729986 128.1569992 138.4719978 -13.2539986
 127.3209992 139.4009978 -14.1099986 127.3947325 138.6979918 -13.6018783
 117.7729992 143.2239978  -7.6629986 118.5179992 143.2209978  -8.2649986
 117.8509992 142.3999978  -7.1819986 117.8853366 143.1122384  -7.6802570
 124.7739992 145.3869978 -14.4079986 124.4789992 146.2139978 -14.0259986
 124.0709992 144.7679978 -14.2109986 124.6386379 145.4164171 -14.3291346
 114.7809992 141.6839978  -2.3479986 115.0039992 141.2659978  -1.5169986
 114.1789992 141.0719978  -2.7709986 114.7301513 141.5439606  -2.2913260
 121.7979992 141.2009978  -0.1349986 121.5019992 141.0359978  -1.0309986
 122.7289992 140.9809978  -0.1459986 121.8834401 141.1486879  -0.2589794
 132.1499992 138.8189978 -13.8779986 131.5949992 138.4229978 -14.5509986
 132.2499992 139.7299978 -14.1559986 132.0876816 138.8879505 -14.0074967
 132.1129992 144.6199978  -1.0409986 131.2619992 144.8579978  -1.4089986
 132.7029992 144.6029978  -1.7939986 132.0763812 144.6502524  -1.1931547
 127.6049992 142.4129978  -6.3919986 126.6769992 142.1819978  -6.4189986
 128.0559992 141.6359978  -6.7219986 127.5388165 142.2762774  -6.4403210
 115.9029992 141.6039978 -15.6719986 116.5189992 142.2309978 -15.2919986
 115.0409992 141.9199978 -15.3999986 115.8707678 141.7324412 -15.5832791
 121.5759992 144.4049978 -10.6829986 121.3349992 145.3299978 -10.6409986
 120.8349992 143.9459978 -10.2859986 121.4429206 144.4695915 -10.6236231
 125.6339992 144.6529978  -4.6669986 125.2089992 144.4249978  -3.8409986
 126.2149992 143.9139978  -4.8489986 125.6543395 144.5219545  -4.5785586
 116.4149992 136.4379978  -2.7899986 115.5229992 136.7759978  -2.8579986
 116.3169992 135.5819978  -2.3719986 116.2794475 136.3686543  -2.7428296
 128.7029992 144.2539978 -13.3659986 128.4259992 143.5259978 -12.8099986
 129.6309992 144.3729978 -13.1609986 128.7904499 144.1704213 -13.2621956
 117.3179992 143.5159978 -14.1789986 116.6319992 143.8689978 -13.6119986
 117.8409992 144.2789978 -14.4259986 117.2948402 143.6673901 -14.1348199
 125.1499992 136.1789978  -3.8999986 125.8489992 136.2529978  -3.2499986
 124.7689992 135.3139978  -3.7459986 125.1942097 136.0722389  -3.7902003
 125.9339992 135.8309978 -12.8029986 126.1539992 136.3019978 -13.6069986
 126.4929992 136.2249978 -12.1329986 126.0396731 135.9487287 -12.8224967
 123.1339992 137.5589978 -11.9679986 123.9459992 138.0629978 -11.9219986
 122.8899992 137.4139978 -11.0539986 123.2121467 137.6083749 -11.8381425
 123.6699992 138.5449978  -2.7839986 123.7889992 139.1189978  -2.0269986
 124.3249992 137.8569978  -2.6689986 123.7748684 138.5305194  -2.6648326
 124.0179992 134.6399978 -11.0299986 123.6709992 135.2569978 -10.3859986
 124.6769992 135.1409978 -11.5119986 124.0595090 134.7921575 -11.0069319
 119.6759992 135.7029978 -14.3429986 119.5919992 136.5909978 -13.9959986
 120.5659992 135.4379978 -14.1109986 119.7848163 135.7887179 -14.2641404
 129.8739992 136.4519978  -1.9489986 128.9579992 136.7139978  -2.0359986
 130.2099992 136.4489978  -2.8449986 129.7938499 136.4875163  -2.0821234
 128.4769992 140.2019978  -7.8529986 127.6789992 139.7869978  -8.1809986
 128.9219992 139.5119978  -7.3619986 128.4279684 140.0518628  -7.8314773
 116.2499992 138.7949978 -16.1669986 116.2049992 139.7339978 -15.9879986
 115.3619992 138.5589978 -16.4359986 116.1238166 138.8916687 -16.1788476
 117.0579992 133.5759978  -7.4929986 116.8289992 133.6349978  -8.4209986
 116.6159992 132.7849978  -7.1869986 116.9668801 133.4770540  -7.5785271
 115.1839992 143.9399978   0.9510014 115.3279992 143.0379978   0.6650014
 114.4119992 144.2259978   0.4640014 115.0992733 143.8551798   0.8459532
 119.5249992 144.2829978 -16.9159986 119.5899992 143.4889978 -16.3859986
 120.1779992 144.1649978 -17.6059986 119.6221605 144.1583430 -16.9367003
 121.8389992 143.9089978   0.3840014 121.5109992 144.1799978  -0.4729986
 121.9909992 142.9679978   0.2960014 121.8146412 143.8189046   0.2547822
 127.5739992 143.8249978  -2.2329986 128.3189992 144.4139978  -2.3519986
 126.8169992 144.4069978  -2.1689986 127.5735470 143.9842128  -2.2406201
 116.0169992 141.1399978   0.3710014 116.4249992 140.2829978   0.2500014
 115.7559992 141.1539978   1.2920014 116.0376016 141.0245119   0.4789192
 120.6749992 142.2559978 -14.6099986 120.2149992 141.7719978 -13.9249986
 120.9299992 141.5869978 -15.2459986 120.6464856 142.0993669 -14.6021603
 119.9639992 140.1489978  -2.2539986 119.3449992 140.8229978  -1.9739986
 120.3079992 140.4699978  -3.0879986 119.9257123 140.2846887  -2.3283612
 121.7459992 140.4989978 -16.3479986 121.5649992 140.3439978 -17.2749986
 122.6959992 140.6069978 -16.3029986 121.8496566 140.4923669 -16.4689071
 124.9829992 142.6199978   1.0230014 125.9369992 142.7039978   0.9960014
 124.8229992 141.9079978   1.6430014 125.0917182 142.5352842   1.1030733
 131.1359992 142.8529978 -16.9019986 130.8619992 142.4289978 -17.7149986
 131.1749992 143.7849978 -17.1189986 131.1037716 142.9208827 -17.0425714
 120.3029992 137.5039978  -1.1719986 120.4529992 136.7749978  -1.7739986
 120.3049992 138.2809978  -1.7309986 120.3237967 137.5092708  -1.3299459
 120.7159992 135.8729978  -3.6789986 121.2509992 136.3249978  -4.3309986
 119.8629992 135.7649978  -4.1019986 120.6740374 135.9202665  -3.8253290
 122.2969992 141.3129978  -3.4399986 123.0479992 141.1569978  -4.0129986
 121.9579992 142.1649978  -3.7149986 122.3539587 141.4068138  -3.5555922
 126.7129992 139.1279978   1.5890014 126.9049992 138.1969978   1.4770014
 127.5709992 139.5529978   1.5780014 126.8552182 139.0580070   1.5721862
 128.0299992 141.9169978  -0.3339986 127.7479992 142.6259978  -0.9119986
 128.9719992 141.8439978  -0.4849986 128.1187921 142.0042193  -0.4335775
 118.7819992 138.7019978   0.7390014 118.0139992 138.1689978   0.5290014
 119.4599992 138.3919978   0.1400014 118.7687235 138.5871754   0.6292413
 121.5209992 133.3299978  -3.2479986 121.4229992 134.2759978  -3.3529986
 120.7789992 132.9569978  -3.7239986 121.4072534 133.4091773  -3.3267400
 122.7849992 137.6509978   0.3160014 122.5499992 137.4319978   1.2170014
 122.0019992 137.4439978  -0.1939986 122.6469095 137.5929892   0.3705353
 125.5009992 136.7789978  -0.6089986 124.5529992 136.8109978  -0.4769986
 125.8129992 136.1529978   0.0450014 125.4135293 136.6987923  -0.5025852
 127.1349992 135.4129978   1.3960014 127.0379992 134.4609978   1.3910014
 126.8129992 135.6809978   2.2570014 127.0782468 135.3190884   1.5116210
 116.9619992 136.6219978   0.4440014 117.1739992 135.9159978  -0.1659986
 116.8509992 136.1849978   1.2880014 116.9760269 136.4661921   0.4745873
 121.7429992 132.6239978  -0.5769986 122.4549992 131.9839978  -0.5909986
 121.6419992 132.8899978  -1.4899986 121.8267387 132.5724330  -0.7024437
 122.0969992 134.3059978   1.4770014 121.9649992 133.8309978   0.6570014
 121.4969992 135.0509978   1.4220014 121.9979070 134.3415789   1.3573251
 130.2929992 145.4659978   1.5590014 129.4269992 145.3609978   1.9530014
 130.6689992 146.2239978   2.0050014 130.2253401 145.5541708   1.6732620
 131.5939992 143.7219978 -12.9269986 132.4439992 144.1429978 -12.7999986
 131.5989992 142.9819978 -12.3199986 131.7111143 143.6796094 -12.8275250
 131.9879992 141.7759978 -11.1039986 131.2619992 141.2959978 -10.7059986
 132.5699992 141.9809978 -10.3709986 131.9672730 141.7380184 -10.9505851
 131.7469992 144.5609978  -6.1559986 132.5809992 144.1829978  -6.4369986
 131.8589992 145.5039978  -6.2749986 131.8761917 144.6367943  -6.2105139
 132.2569992 141.6769978 -14.7129986 131.7349992 142.0329978 -15.4309986
 132.2239992 142.3519978 -14.0339986 132.1810129 141.8169598 -14.7196645
 130.6059992 138.9159978 -16.1619986 130.7019992 139.5829978 -16.8419986
 130.4659992 138.1009978 -16.6429986 130.6002040 138.8970671 -16.3201622
 129.7749992 140.2969978 -10.5409986 129.6249992 139.3519978 -10.5609986
 129.4209992 140.5779978  -9.6969986 129.7066351 140.2056644 -10.4296780
 114.8099992 142.3749978  -6.5299986 114.9949992 142.2929978  -7.4659986
 115.6599992 142.2509978  -6.1069986 114.9500928 142.3470463  -6.6007107
 130.6309992 142.2669978  -0.9019986 131.2139992 141.5319978  -0.7099986
 131.1949992 143.0389978  -0.8549986 130.7869781 142.2708145  -0.8693836
 132.1279992 140.1699978  -0.2169986 131.2649992 139.7909978  -0.3829986
 132.7319992 139.4309978  -0.2919986 132.0916085 140.0183223  -0.2498305
 129.8529992 136.3239978 -17.0439986 130.4639992 135.9529978 -16.4069986
 129.0159992 135.9029978 -16.8479986 129.8234947 136.2162756 -16.9302748
 129.4859992 137.8789978 -12.0779986 129.7649992 136.9719978 -11.9539986
 130.2449992 138.3129978 -12.4669986 129.6268619 137.8134502 -12.1136205
 130.0969992 138.4609978  -6.6419986 131.0299992 138.6729978  -6.6769986
 129.8619992 138.5619978  -5.7199986 130.1929517 138.5036833  -6.5220870
 130.1269992 139.1979978  -3.8659986 129.2839992 139.4659978  -3.4999986
 130.5689992 140.0199978  -4.0769986 130.0714138 139.3458273  -3.8444482
 114.4079992 137.6449978  -0.3899986 115.3269992 137.5229978  -0.1529986
 113.9579992 136.8949978   0.0000014 114.4730087 137.5269608  -0.3048590
 132.4099992 133.1779978   1.4870014 132.7589992 132.5239978   0.8820014
 132.5569992 134.0149978   1.0470014 132.4776824 133.2016024   1.3446304
 130.0989992 135.1419978 -12.0299986 130.2809992 134.6929978 -11.2049986
 129.4989992 134.5579978 -12.4939986 130.0428187 135.0015552 -11.9797261
 115.6289992 135.9579978  -7.4979986 116.0739992 135.1659978  -7.1959986
 116.0949992 136.6739978  -7.0679986 115.7529718 135.9464534  -7.3984735
 113.9329992 138.9569978  -6.4289986 114.4249992 138.7359978  -7.2199986
 114.2949992 139.7969978  -6.1479986 114.0492923 139.0403468  -6.4992593
 131.9289992 135.2869978  -0.1639986 131.0119992 135.5579978  -0.1989986
 132.0519992 134.7519978  -0.9479986 131.8199672 135.2517885  -0.2748138
 131.9659992 135.2099978 -15.5019986 132.3779992 134.4889978 -15.9769986
 132.6469992 135.8789978 -15.4439986 132.1145536 135.2017766 -15.5591976
 114.2469992 135.2149978 -12.3749986 113.3219992 135.4229978 -12.5039986
 114.7009992 135.6989978 -13.0649986 114.1816298 135.3089299 -12.4859549
 114.2099992 133.9529978  -4.0309986 113.5449992 133.7069978  -3.3879986
 113.7669992 134.5749978  -4.6079986 114.0591168 134.0034214  -4.0210152
 130.9299992 133.3769978  -2.3449986 130.1169992 133.7019978  -2.7319986
 131.1629992 132.6159978  -2.8779986 130.8501347 133.3186880  -2.4700159
 124.3599992 134.8259978  -8.0219986 123.6859992 134.1959978  -7.7659986
 124.9239992 134.3419978  -8.6249986 124.3440384 134.6743708  -8.0684980
 129.5029992 132.9329978  -7.9089986 130.1059992 133.4809978  -8.4109986
 128.6329992 133.2519978  -8.1499986 129.4679157 133.0510373  -8.0102090
 131.2299992 134.0719978  -9.5759986 131.8409992 133.5579978 -10.1029986
 131.6119992 134.9489978  -9.5529986 131.3653305 134.1202050  -9.6450582
 116.6869992 133.4599978 -10.1999986 115.9099992 133.2249978 -10.7069986
 117.2169992 132.6629978 -10.1909986 116.6523451 133.3201268 -10.2681373
 115.5229992 133.2579978 -14.3959986 115.9619992 133.8689978 -14.9879986
 114.8889992 133.7959978 -13.9219986 115.4973859 133.4144064 -14.4129695
 121.2659992 133.3859978 -10.3869986 122.1399992 133.7749978 -10.4159986
 121.1299992 133.1709978  -9.4639986 121.3671953 133.4101643 -10.2662383
 126.8229992 133.4159978  -8.7369986 126.8989992 133.5119978  -9.6869986
 126.5479992 132.5089978  -8.6089986 126.7961871 133.3064146  -8.8496056
 128.1759992 133.4419978 -13.0449986 127.4729992 134.0569978 -13.2549986
 127.7309992 132.6049978 -12.9139986 128.0196550 133.4129668 -13.0560163
 117.3839992 135.1739978 -15.9539986 117.8749992 134.5439978 -16.4809986
 118.0069992 135.4699978 -15.2909986 117.5355304 135.1277376 -15.9365060
 122.4099992 135.4669978 -13.4969986 122.5879992 134.8199978 -12.8139986
 122.3559992 136.3009978 -13.0299986 122.4270678 135.4911604 -13.3403699
 116.6439992 133.9739978  -0.6819986 116.2779992 133.2079978  -0.2399986
 117.5569992 134.0029978  -0.3959986 116.7173172 133.8730324  -0.5828110
 118.6169992 133.3239978   0.8530014 119.5159992 133.0499978   0.6690014
 118.2309992 132.5819978   1.3180014 118.6877307 133.1862196   0.8907098
 127.0389992 132.6569978   1.0360014 127.1149992 132.2309978   1.8890014
 127.9319992 132.6699978   0.6930014 127.1702303 132.6003493   1.1065497
 144.6209992 142.6159978 -10.2409986 144.7099992 143.5599978 -10.3729986
 143.9829992 142.3409978 -10.8989986 144.5469062 142.7079812 -10.3480359
 143.5539992 141.8709978  -6.8219986 143.5159992 141.2249978  -6.1169986
 143.2319992 141.4039978  -7.5929986 143.5052679 141.7194276  -6.8297079
 135.9219992 141.4849978  -5.2289986 135.9639992 140.8599978  -4.5059986
 136.6249992 142.1089978  -5.0469986 136.0227345 141.4837873  -5.1054726
 133.4559992 139.5949978 -11.3019986 133.0079992 140.4409978 -11.3199986
 132.8949992 139.0159978 -11.8169986 133.3188546 139.6323993 -11.3741109
 134.1659992 141.7569978  -9.1759986 134.3799992 140.9869978  -8.6479986
 134.9039992 141.8469978  -9.7789986 134.2950200 141.6638587  -9.1852965
 141.9429992 144.3029978  -6.4159986 142.2469992 143.6169978  -7.0109986
 142.6649992 144.4219978  -5.7979986 142.0821240 144.2252314  -6.4139041
 145.0839992 138.6969978  -6.0889986 145.2269992 137.7509978  -6.0689986
 144.9779992 138.9039978  -7.0169986 145.0892403 138.5954797  -6.2117761
 138.2389992 136.7989978  -8.8159986 138.2819992 137.6589978  -9.2349986
 137.7809992 136.2469978  -9.4499986 138.1829871 136.8419245  -8.9589239
 134.8589992 139.1959978  -8.0539986 135.5129992 138.6459978  -7.6219986
 134.8829992 138.9219978  -8.9709986 134.9517199 139.0837167  -8.1188332
 140.0159992 140.7459978  -8.8389986 140.6319992 140.2189978  -8.3299986
 139.4289992 140.1059978  -9.2429986 140.0210154 140.5873954  -8.8239055
 137.0489992 135.7169978  -4.7419986 136.8299992 136.2469978  -5.5089986
 136.3809992 135.9429978  -4.0949986 136.9286975 135.8200967  -4.7594860
 144.4179992 145.2169978 -11.1979986 144.1229992 144.8939978 -12.0499986
 144.0939992 146.1169978 -11.1569986 144.3338460 145.2944464 -11.3090286
 139.6179992 143.3919978  -4.4549986 138.8779992 143.9909978  -4.3509986
 140.3319992 143.9459978  -4.7699986 139.6133500 143.5487829  -4.4833629
 136.6429992 137.6089978  -6.7899986 137.2569992 138.2419978  -6.4169986
 137.1549992 137.1369978  -7.4459986 136.7961962 137.6317249  -6.8277065
 138.0259992 145.3569978  -3.6679986 138.0199992 146.2359978  -4.0459986
 137.1719992 145.2729978  -3.2429986 137.9097925 145.4659535  -3.6623113
 134.1469992 145.0279978 -12.8859986 133.8749992 145.2569978 -13.7739986
 134.1919992 145.8649978 -12.4249986 134.1158097 145.1726163 -12.9453317
 141.0759992 133.0219978  -7.2899986 140.9579992 132.0739978  -7.3439986
 140.2209992 133.3549978  -7.0169986 140.9442805 132.9372202  -7.2604921
 143.3419992 141.8599978 -12.7889986 142.6309992 142.3949978 -13.1409986
 144.0329992 141.9149978 -13.4489986 143.3380751 141.9406777 -12.9264142
 143.3959992 140.3169978 -15.7509986 144.0969992 140.3399978 -15.0989986
 143.6979992 139.6889978 -16.4069986 143.5328202 140.2352212 -15.7504391
 138.3929992 142.6999978  -9.9549986 138.0629992 142.3289978 -10.7729986
 138.9819992 142.0289978  -9.6079986 138.4273970 142.5586063 -10.0200596
 138.7599992 141.4679978  -6.3219986 139.3249992 141.5899978  -7.0839986
 139.0789992 142.1059978  -5.6829986 138.8804166 141.5708791  -6.3399652
 136.5599992 142.0659978  -2.3759986 136.6299992 142.7169978  -1.6769986
 135.6689992 142.1689978  -2.7109986 136.4491690 142.1689249  -2.3256957
 137.3839992 141.7689978 -12.3659986 137.0919992 142.5369978 -12.8569986
 136.7089992 141.1099978 -12.5289986 137.2528497 141.7849745 -12.4551740
 133.4769992 144.1319978  -3.5509986 132.9749992 144.1039978  -4.3659986
 133.4819992 143.2269978  -3.2409986 133.4089832 144.0057486  -3.6205879
 135.7259992 145.4559978  -2.5079986 135.9419992 145.0939978  -1.6479986
 134.8699992 145.0809978  -2.7169986 135.6398810 145.3558837  -2.4187320
 138.3439992 133.9259978  -6.5119986 137.4829992 133.8389978  -6.9199986
 138.3219992 134.7819978  -6.0839986 138.2230491 134.0298003  -6.5100418
 143.0069992 133.6479978  -3.1369986 143.4269992 133.2329978  -2.3839986
 142.0739992 133.4689978  -3.0199986 142.9383736 133.5669910  -3.0181032
 142.6689992 136.1399978 -15.8519986 142.4149992 136.1589978 -14.9299986
 142.4119992 135.2689978 -16.1539986 142.5994508 136.0248280 -15.7665197
 138.4349992 138.8909978  -5.4169986 137.7939992 138.8509978  -4.7079986
 138.4729992 139.8179978  -5.6549986 138.3523010 139.0107668  -5.3520054
 138.4319992 139.1119978 -10.5049986 137.5399992 138.7719978 -10.5639986
 138.8829992 138.7349978 -11.2609986 138.3707642 139.0144910 -10.6152274
 143.9679992 139.5279978 -11.6879986 143.5589992 140.3429978 -11.9799986
 144.6879992 139.3879978 -12.3019986 144.0094439 139.6205372 -11.8109885
 143.0699992 139.7039978  -0.1999986 142.5069992 138.9989978   0.1210014
 143.8959992 139.5829978   0.2680014 143.1046674 139.5912165  -0.0928249
 144.9729992 138.9739978  -8.8739986 144.7769992 139.5799978  -9.5889986
 145.1539992 138.1409978  -9.3079986 144.9706584 138.9442513  -9.0305788
 136.1849992 139.2119978  -3.5499986 136.1469992 139.6119978  -2.6809986
 135.6949992 138.3949978  -3.4599986 136.1135330 139.1562674  -3.4188711
 139.5509992 136.5859978 -16.7509986 139.1199992 136.1409978 -16.0219986
 138.8329992 136.9569978 -17.2639986 139.3949176 136.5752051 -16.7205070
 132.7939992 136.3279978  -9.6989986 133.4239992 136.2989978  -8.9799986
 133.2429992 135.9029978 -10.4299986 132.9410835 136.2665660  -9.6992341
 134.0679992 137.0739978 -14.2749986 134.5419992 137.6649978 -14.8599986
 133.3499992 137.6039978 -13.9279986 134.0358640 137.2265511 -14.3082031
 144.2369992 140.6119978  -4.2029986 144.5599992 139.9809978  -4.8459986
 143.7959992 140.0779978  -3.5419986 144.2216379 140.4533468  -4.2017418
 141.0139992 136.5399978  -9.4189986 140.1029992 136.5969978  -9.1299986
 141.5189992 136.4799978  -8.6079986 140.9576873 136.5396826  -9.2698793
 135.8419992 138.1689978 -10.5919986 134.9529992 138.2679978 -10.9319986
 136.1389992 137.3269978 -10.9379986 135.7604177 138.0687687 -10.6853060
 139.4949992 138.1689978 -12.9349986 140.4269992 138.2979978 -12.7569986
 139.2799992 138.8379978 -13.5849986 139.5934472 138.2770806 -12.9985109
 145.4189992 135.7749978  -6.1539986 144.7419992 135.9059978  -5.4909986
 144.9339992 135.6199978  -6.9649986 145.2607405 135.7719947  -6.1727830
 138.1689992 139.3629978 -15.3689986 137.6269992 138.9839978 -16.0599986
 139.0029992 139.5579978 -15.7969986 138.2074390 139.3374079 -15.5215608
 136.3049992 143.9199978  -0.2699986 137.0369992 144.1749978   0.2920014
 135.5239992 144.1249978   0.2460014 136.2996526 143.9825450  -0.1234824
 142.3339992 139.3269978  -7.5319986 142.8979992 138.7809978  -8.0789986
 142.1859992 138.8059978  -6.7429986 142.3913037 139.1816787  -7.5002771
 137.3359992 135.4639978 -11.1129986 137.0189992 134.5609978 -11.1489986
 138.1169992 135.4659978 -11.6659986 137.3982431 135.3407797 -11.1926898
 140.9599992 137.7159978  -5.1179986 140.1249992 138.1699978  -5.0069986
 141.4839992 137.9919978  -4.3659986 140.9166072 137.8153948  -5.0011864
 141.5049992 143.9289978 -13.4329986 140.7599992 143.4209978 -13.7549986
 141.3699992 143.9779978 -12.4869986 141.3848963 143.8661731 -13.3491174
 145.4019992 136.7429978 -15.2339986 144.4639992 136.8539978 -15.3849986
 145.6999992 137.5989978 -14.9269986 145.3136318 136.8740158 -15.2131855
 143.0239992 144.1129978  -2.1959986 142.6779992 143.7309978  -1.3889986
 142.8239992 145.0459978  -2.1249986 142.9495987 144.1869002  -2.0759539
 136.6289992 143.2239978  -7.6629986 137.3739992 143.2209978  -8.2649986
 136.7069992 142.3999978  -7.1819986 136.7413365 143.1122384  -7.6802570
 143.6299992 145.3869978 -14.4079986 143.3349992 146.2139978 -14.0259986
 142.9269992 144.7679978 -14.2109986 143.4946379 145.4164171 -14.3291346
 133.6369992 141.6839978  -2.3479986 133.8599992 141.2659978  -1.5169986
 133.0349992 141.0719978  -2.7709986 133.5861513 141.5439606  -2.2913260
 140.6539992 141.2009978  -0.1349986 140.3579992 141.0359978  -1.0309986
 141.5849992 140.9809978  -0.1459986 140.7394401 141.1486879  -0.2589794
 134.7589992 141.6039978 -15.6719986 135.3749992 142.2309978 -15.2919986
 133.8969992 141.9199978 -15.3999986 134.7267678 141.7324412 -15.5832791
 140.4319992 144.4049978 -10.6829986 140.1909992 145.3299978 -10.6409986
 139.6909992 143.9459978 -10.2859986 140.2989206 144.4695915 -10.6236231
 144.4899992 144.6529978  -4.6669986 144.0649992 144.4249978  -3.8409986
 145.0709992 143.9139978  -4.8489986 144.5103395 144.5219545  -4.5785586
 135.2709992 136.4379978  -2.7899986 134.3789992 136.7759978  -2.8579986
 135.1729992 135.5819978  -2.3719986 135.1354475 136.3686543  -2.7428296
 136.1739992 143.5159978 -14.1789986 135.4879992 143.8689978 -13.6119986
 136.6969992 144.2789978 -14.4259986 136.1508402 143.6673901 -14.1348199
 144.0059992 136.1789978  -3.8999986 144.7049992 136.2529978  -3.2499986
 143.6249992 135.3139978  -3.7459986 144.0502097 136.0722389  -3.7902003
 144.7899992 135.8309978 -12.8029986 145.0099992 136.3019978 -13.6069986
 145.3489992 136.2249978 -12.1329986 144.8956731 135.9487287 -12.8224967
 141.9899992 137.5589978 -11.9679986 142.8019992 138.0629978 -11.9219986
 141.7459992 137.4139978 -11.0539986 142.0681467 137.6083749 -11.8381425
 142.5259992 138.5449978  -2.7839986 142.6449992 139.1189978  -2.0269986
 143.1809992 137.8569978  -2.6689986 142.6308684 138.5305194  -2.6648326
 142.8739992 134.6399978 -11.0299986 142.5269992 135.2569978 -10.3859986
 143.5329992 135.1409978 -11.5119986 142.9155090 134.7921575 -11.0069319
 138.5319992 135.7029978 -14.3429986 138.4479992 136.5909978 -13.9959986
 139.4219992 135.4379978 -14.1109986 138.6408163 135.7887179 -14.2641404
 135.1059992 138.7949978 -16.1669986 135.0609992 139.7339978 -15.9879986
 134.2179992 138.5589978 -16.4359986 134.9798166 138.8916687 -16.1788476
 135.9139992 133.5759978  -7.4929986 135.6849992 133.6349978  -8.4209986
 135.4719992 132.7849978  -7.1869986 135.8228801 133.4770540  -7.5785271
 134.0399992 143.9399978   0.9510014 134.1839992 143.0379978   0.6650014
 133.2679992 144.2259978   0.4640014 133.9552733 143.8551798   0.8459532
 138.3809992 144.2829978 -16.9159986 138.4459992 143.4889978 -16.3859986
 139.0339992 144.1649978 -17.6059986 138.4781605 144.1583430 -16.9367003
 140.6949992 143.9089978   0.3840014 140.3669992 144.1799978  -0.4729986
 140.8469992 142.9679978   0.2960014 140.6706412 143.8189046   0.2547822
 134.8729992 141.1399978   0.3710014 135.2809992 140.2829978   0.2500014
 134.6119992 141.1539978   1.2920014 134.8936016 141.0245119   0.4789192
 139.5309992 142.2559978 -14.6099986 139.0709992 141.7719978 -13.9249986
 139.7859992 141.5869978 -15.2459986 139.5024856 142.0993669 -14.6021603
 138.8199992 140.1489978  -2.2539986 138.2009992 140.8229978  -1.9739986
 139.1639992 140.4699978  -3.0879986 138.7817123 140.2846887  -2.3283612
 140.6019992 140.4989978 -16.3479986 140.4209992 140.3439978 -17.2749986
 141.5519992 140.6069978 -16.3029986 140.7056566 140.4923669 -16.4689071
 143.8389992 142.6199978   1.0230014 144.7929992 142.7039978   0.9960014
 143.6789992 141.9079978   1.6430014 143.9477182 142.5352842   1.1030733
 139.1589992 137.5039978  -1.1719986 139.3089992 136.7749978  -1.7739986
 139.1609992 138.2809978  -1.7309986 139.1797967 137.5092708  -1.3299459
 139.5719992 135.8729978  -3.6789986 140.1069992 136.3249978  -4.3309986
 138.7189992 135.7649978  -4.1019986 139.5300374 135.9202665  -3.8253290
 141.1529992 141.3129978  -3.4399986 141.9039992 141.1569978  -4.0129986
 140.8139992 142.1649978  -3.7149986 141.2099587 141.4068138  -3.5555922
 145.5689992 139.1279978   1.5890014 145.7609992 138.1969978   1.4770014
 146.4269992 139.5529978   1.5780014 145.7112182 139.0580070   1.5721862
 137.6379992 138.7019978   0.7390014 136.8699992 138.1689978   0.5290014
 138.3159992 138.3919978   0.1400014 137.6247235 138.5871754   0.6292413
 140.3769992 133.3299978  -3.2479986 140.2789992 134.2759978  -3.3529986
 139.6349992 132.9569978  -3.7239986 140.2632534 133.4091773  -3.3267400
 141.6409992 137.6509978   0.3160014 141.4059992 137.4319978   1.2170014
 140.8579992 137.4439978  -0.1939986 141.5029095 137.5929892   0.3705353
 144.3569992 136.7789978  -0.6089986 143.4089992 136.8109978  -0.4769986
 144.6689992 136.1529978   0.0450014 144.2695293 136.6987923  -0.5025852
 135.8179992 136.6219978   0.4440014 136.0299992 135.9159978  -0.1659986
 135.7069992 136.1849978   1.2880014 135.8320269 136.4661921   0.4745873
 140.5989992 132.6239978  -0.5769986 141.3109992 131.9839978  -0.5909986
 140.4979992 132.8899978  -1.4899986 140.6827387 132.5724330  -0.7024437
 140.9529992 134.3059978   1.4770014 140.8209992 133.8309978   0.6570014
 140.3529992 135.0509978   1.4220014 140.8539070 134.3415789   1.3573251
 133.6659992 142.3749978  -6.5299986 133.8509992 142.2929978  -7.4659986
 134.5159992 142.2509978  -6.1069986 133.8060928 142.3470463  -6.6007107
 133.2639992 137.6449978  -0.3899986 134.1829992 137.5229978  -0.1529986
 132.8139992 136.8949978   0.0000014 133.3290087 137.5269608  -0.3048590
 134.4849992 135.9579978  -7.4979986 134.9299992 135.1659978  -7.1959986
 134.9509992 136.6739978  -7.0679986 134.6089718 135.9464534  -7.3984735
 132.7889992 138.9569978  -6.4289986 133.2809992 138.7359978  -7.2199986
 133.1509992 139.7969978  -6.1479986 132.9052923 139.0403468  -6.4992593
 133.1029992 135.2149978 -12.3749986 132.1779992 135.4229978 -12.5039986
 133.5569992 135.6989978 -13.0649986 133.0376298 135.3089299 -12.4859549
 133.0659992 133.9529978  -4.0309986 132.4009992 133.7069978  -3.3879986
 132.6229992 134.5749978  -4.6079986 132.9151168 134.0034214  -4.0210152
 143.2159992 134.8259978  -8.0219986 142.5419992 134.1959978  -7.7659986
 143.7799992 134.3419978  -8.6249986 143.2000384 134.6743708  -8.0684980
 135.5429992 133.4599978 -10.1999986 134.7659992 133.2249978 -10.7069986
 136.0729992 132.6629978 -10.1909986 135.5083451 133.3201268 -10.2681373
 134.3789992 133.2579978 -14.3959986 134.8179992 133.8689978 -14.9879986
 133.7449992 133.7959978 -13.9219986 134.3533859 133.4144064 -14.4129695
 140.1219992 133.3859978 -10.3869986 140.9959992 133.7749978 -10.4159986
 139.9859992 133.1709978  -9.4639986 140.2231953 133.4101643 -10.2662383
 136.2399992 135.1739978 -15.9539986 136.7309992 134.5439978 -16.4809986
 136.8629992 135.4699978 -15.2909986 136.3915304 135.1277376 -15.9365060
 141.2659992 135.4669978 -13.4969986 141.4439992 134.8199978 -12.8139986
 141.2119992 136.3009978 -13.0299986 141.2830678 135.4911604 -13.3403699
 135.4999992 133.9739978  -0.6819986 135.1339992 133.2079978  -0.2399986
 136.4129992 134.0029978  -0.3959986 135.5733172 133.8730324  -0.5828110
 137.4729992 133.3239978   0.8530014 138.3719992 133.0499978   0.6690014
 137.0869992 132.5819978   1.3180014 137.5437307 133.1862196   0.8907098
  12.6289992  10.6239978   8.6150014  12.7179992  11.5679978   8.4830014
  11.9909992  10.3489978   7.9570014  12.5549062  10.7159812   8.5079641
  11.5619992   9.8789978  12.0340014  11.5239992   9.2329978  12.7390014
  11.2399992   9.4119978  11.2630014  11.5132679   9.7274276  12.0262921
   3.9299992   9.4929978  13.6270014   3.9719992   8.8679978  14.3500014
   4.6329992  10.1169978  13.8090014   4.0307345   9.4917873  13.7505274
  15.2679992  12.8179978  10.3350014  14.8269992  12.0979978  10.7860014
  15.2549992  13.5389978  10.9650014  15.2059215  12.8169291  10.4818105
   4.8539992  13.9429978  12.1620014   4.4839992  13.1409978  11.7920014
   5.7949992  13.7749978  12.2080014   4.9305984  13.8104638  12.1175603
   1.4639992   7.6029978   7.5540014   1.0159992   8.4489978   7.5360014
   0.9029992   7.0239978   7.0390014   1.3268546   7.6403993   7.4818891
   2.1739992   9.7649978   9.6800014   2.3879992   8.9949978  10.2080014
   2.9119992   9.8549978   9.0770014   2.3030200   9.6718587   9.6707035
  12.3799992  17.9219978  10.5470014  12.9989992  17.2459978  10.2740014
  12.1709992  17.7039978  11.4560014  12.4366056  17.7998869  10.6323967
   9.9509992  12.3109978  12.4400014  10.2549992  11.6249978  11.8450014
  10.6729992  12.4299978  13.0580014  10.0901240  12.2332314  12.4420959
  18.6139992   3.9129978  13.3000014  18.6639992   4.5229978  14.0360014
  19.0399992   4.3739978  12.5770014  18.6784108   4.0587709  13.3030112
  13.0919992   6.7049978  12.7670014  13.2349992   5.7589978  12.7870014
  12.9859992   6.9119978  11.8390014  13.0972403   6.6034797  12.6442239
   6.2469992   4.8069978  10.0400014   6.2899992   5.6669978   9.6210014
   5.7889992   4.2549978   9.4060014   6.1909871   4.8499245   9.8970761
  13.9689992   4.9379978   8.4410014  14.6159992   4.6089978   9.0650014
  14.4789992   5.4549978   7.8180014  14.1264351   4.9629067   8.4421037
   2.8669992   7.2039978  10.8020014   3.5209992   6.6539978  11.2340014
   2.8909992   6.9299978   9.8850014   2.9597199   7.0917167  10.7371668
   8.0239992   8.7539978  10.0170014   8.6399992   8.2269978  10.5260014
   7.4369992   8.1139978   9.6130014   8.0290154   8.5953954  10.0320945
  19.0059992   5.3909978  15.5360014  18.3169992   6.0489978  15.4410014
  19.0209992   5.1929978  16.4730014  18.9137756   5.4542603  15.6495812
   5.0569992   3.7249978  14.1140014   4.8379992   4.2549978  13.3470014
   4.3889992   3.9509978  14.7610014   4.9366975   3.8280967  14.0965140
  12.4259992  13.2249978   7.6580014  12.1309992  12.9019978   6.8060014
  12.1019992  14.1249978   7.6990014  12.3418460  13.3024464   7.5469714
   7.6259992  11.3999978  14.4010014   6.8859992  11.9989978  14.5050014
   8.3399992  11.9539978  14.0860014   7.6213500  11.5567829  14.3726371
  15.7329992   4.2289978  10.4210014  15.5179992   3.4629978  10.9540014
  16.3889992   4.7009978  10.9340014  15.7922673   4.1880728  10.5631990
   4.6509992   5.6169978  12.0660014   5.2649992   6.2499978  12.4390014
   5.1629992   5.1449978  11.4100014   4.8041962   5.6397249  12.0282935
   6.0339992  13.3649978  15.1880014   6.0279992  14.2439978  14.8100014
   5.1799992  13.2809978  15.6130014   5.9177925  13.4739535  15.1936887
   2.1549992  13.0359978   5.9700014   1.8829992  13.2649978   5.0820014
   2.1999992  13.8729978   6.4310014   2.1238097  13.1806163   5.9106683
  15.7799992  14.6569978  12.6830014  14.8379992  14.7159978  12.8450014
  16.0559992  15.5629978  12.5460014  15.6885865  14.7875288  12.6866192
  16.0799992   2.9439978  14.1000014  15.3439992   3.5539978  14.0630014
  16.7639992   3.3589978  13.5740014  16.0715367   3.0837551  14.0238174
   9.0839992   1.0299978  11.5660014   8.9659992   0.0819978  11.5120014
   8.2289992   1.3629978  11.8390014   8.9522805   0.9452202  11.5955079
  14.0319992  16.4379978   9.3080014  14.4569992  15.7309978   8.8230014
  14.3489992  17.2399978   8.8910014  14.1330266  16.4495190   9.1852479
  15.1919992  14.3389978   7.8170014  14.9339992  13.6489978   7.2050014
  15.2629992  13.8959978   8.6620014  15.1663050  14.1846814   7.8475621
  16.8779992  12.9059978  16.2940014  17.0169992  12.3139978  15.5550014
  17.0449992  13.7789978  15.9380014  16.9196193  12.9428896  16.1446211
  11.3499992   9.8679978   6.0670014  10.6389992  10.4029978   5.7150014
  12.0409992   9.9229978   5.4070014  11.3460751   9.9486777   5.9295858
  11.4039992   8.3249978   3.1050014  12.1049992   8.3479978   3.7570014
  11.7059992   7.6969978   2.4490014  11.5408202   8.2432212   3.1055609
  18.7189992   9.2459978  14.3600014  18.0669992   9.9399978  14.4490014
  19.1849992   9.4559978  13.5500014  18.6925937   9.3695019  14.2627533
  14.7559992  10.0769978   7.0180014  14.0239992  10.3059978   7.5920014
  15.2029992   9.3639978   7.4730014  14.7163963  10.0118729   7.1579945
  14.6529992   8.2519978  16.0860014  14.7329992   9.0149978  16.6580014
  14.0519992   8.5309978  15.3960014  14.5826547   8.3942457  16.0710047
   6.4009992  10.7079978   8.9010014   6.0709992  10.3369978   8.0830014
   6.9899992  10.0369978   9.2480014   6.4353970  10.5666063   8.8359404
   7.7679992  14.1359978  11.5820014   7.6729992  13.5569978  10.8260014
   8.4969992  13.7649978  12.0780014   7.8536011  14.0065561  11.5456028
   6.7679992   9.4759978  12.5340014   7.3329992   9.5979978  11.7720014
   7.0869992  10.1139978  13.1730014   6.8884166   9.5788791  12.5160348
  13.0769992  14.9799978  13.2680014  12.8369992  15.6419978  13.9160014
  12.8789992  14.1449978  13.6930014  13.0173826  14.9578115  13.4141566
   7.6479992  13.8759978  17.2520014   7.3369992  14.6579978  17.7070014
   6.9979992  13.7229978  16.5660014   7.5175538  13.9624087  17.2215898
  13.6269992   9.2399978   4.7040014  14.2059992   9.3899978   5.4500014
  14.0409992   9.7099978   3.9800014  13.7623358   9.3240955   4.7083953
   4.5679992  10.0739978  16.4800014   4.6379992  10.7249978  17.1790014
   3.6769992  10.1769978  16.1450014   4.4571690  10.1769249  16.5303043
  11.3529992  15.9759978   8.1390014  11.8269992  16.2719978   8.9160014
  10.7899992  16.7149978   7.9060014  11.3417890  16.1163036   8.2138101
   5.8869992  15.9469978  18.0150014   5.8949992  15.8109978  17.0680014
   4.9709992  15.8299978  18.2670014   5.7642528  15.9125463  17.9193243
  17.3259992   0.9899978   4.5170014  16.4259992   1.1289978   4.8120014
  17.5779992   1.8209978   4.1150014  17.2368683   1.1214055   4.5030232
   5.3919992   9.7769978   6.4900014   5.0999992  10.5449978   5.9990014
   4.7169992   9.1179978   6.3270014   5.2608497   9.7929745   6.4008260
  18.5149992  15.3559978   2.8930014  18.5879992  16.2949978   3.0630014
  19.4199992  15.0509978   2.8370014  18.6474170  15.4433282   2.9087063
   1.4849992  12.1399978  15.3050014   0.9829992  12.1119978  14.4900014
   1.4899992  11.2349978  15.6150014   1.4169832  12.0137486  15.2354121
   1.2349992  14.9209978  12.1890014   2.1809992  14.7759978  12.1700014
   1.1219992  15.7049978  12.7260014   1.3493578  15.0071697  12.2590317
  19.4329992  15.5869978  17.8720014  19.3829992  14.6309978  17.8340014
  18.6059992  15.8539978  18.2730014  19.3143831  15.4924680  17.9210121
  10.4109992  15.1609978  16.7480014  10.4989992  15.9869978  17.2230014
   9.5479992  14.8309978  16.9970014  10.3063357  15.2295468  16.8467653
  10.8259992  18.9329978   6.5540014  10.7499992  18.8119978   5.6070014
  10.8579992  19.8819978   6.6720014  10.8199380  19.0447677   6.4405181
   4.4789992  17.7219978   8.3350014   4.6309992  17.3739978   9.2130014
   3.6279992  17.3649978   8.0790014   4.3848344  17.6260879   8.4206868
  13.9269992  18.0869978   3.5560014  14.3019992  17.3429978   3.0850014
  13.9319992  17.8169978   4.4740014  13.9790098  17.9486392   3.6156629
  13.5959992  18.0129978   6.3050014  12.6609992  18.1129978   6.4840014
  13.8759992  17.3029978   6.8840014  13.5059471  17.9307933   6.4076695
  16.5849992   7.0799978  18.3520014  16.1769992   7.5599978  17.6310014
  16.6249992   6.1739978  18.0440014  16.5346221   7.0232449  18.2118267
   3.7339992  13.4639978  16.3480014   3.9499992  13.1019978  17.2080014
   2.8779992  13.0889978  16.1390014   3.6478810  13.3638837  16.4372680
   6.3519992   1.9339978  12.3440014   5.4909992   1.8469978  11.9360014
   6.3299992   2.7899978  12.7720014   6.2310491   2.0378003  12.3459582
  11.0149992   1.6559978  15.7190014  11.4349992   1.2409978  16.4720014
  10.0819992   1.4769978  15.8360014  10.9463736   1.5749910  15.8378968
  14.3419992   5.4109978  16.5720014  13.8279992   5.2859978  17.3700014
  14.1859992   6.3239978  16.3280014  14.2506967   5.5172123  16.6480937
  15.1039992  10.2719978   2.3330014  15.1459992  10.0499978   1.4030014
  15.9529992  10.6709978   2.5230014  15.2245253  10.2955498   2.2313822
  10.6769992   4.1479978   3.0040014  10.4229992   4.1669978   3.9260014
  10.4199992   3.2769978   2.7020014  10.6074508   4.0328280   3.0894803
   6.4429992   6.8989978  13.4390014   5.8019992   6.8589978  14.1480014
   6.4809992   7.8259978  13.2010014   6.3603010   7.0187668  13.5039946
   6.4399992   7.1199978   8.3510014   5.5479992   6.7799978   8.2920014
   6.8909992   6.7429978   7.5950014   6.3787642   7.0224910   8.2407726
  11.9759992   7.5359978   7.1680014  11.5669992   8.3509978   6.8760014
  12.6959992   7.3959978   6.5540014  12.0174439   7.6285372   7.0450115
  11.0779992   7.7119978  18.6560014  10.5149992   7.0069978  18.9770014
  11.9039992   7.5909978  19.1240014  11.1126674   7.5992165  18.7631751
  12.9809992   6.9819978   9.9820014  12.7849992   7.5879978   9.2670014
  13.1619992   6.1489978   9.5480014  12.9786584   6.9522513   9.8254212
   4.1929992   7.2199978  15.3060014   4.1549992   7.6199978  16.1750014
   3.7029992   6.4029978  15.3960014   4.1215330   7.1642674  15.4371289
   7.5589992   4.5939978   2.1050014   7.1279992   4.1489978   2.8340014
   6.8409992   4.9649978   1.5920014   7.4029176   4.5832051   2.1354930
   0.8019992   4.3359978   9.1570014   1.4319992   4.3069978   9.8760014
   1.2509992   3.9109978   8.4260014   0.9490835   4.2745660   9.1567659
   2.0759992   5.0819978   4.5810014   2.5499992   5.6729978   3.9960014
   1.3579992   5.6119978   4.9280014   2.0438640   5.2345511   4.5477969
  12.2449992   8.6199978  14.6530014  12.5679992   7.9889978  14.0100014
  11.8039992   8.0859978  15.3140014  12.2296379   8.4613468  14.6542582
   9.0219992   4.5479978   9.4370014   8.1109992   4.6049978   9.7260014
   9.5269992   4.4879978  10.2480014   8.9656873   4.5476826   9.5861207
   3.8499992   6.1769978   8.2640014   2.9609992   6.2759978   7.9240014
   4.1469992   5.3349978   7.9180014   3.7684177   6.0767687   8.1706940
   7.5029992   6.1769978   5.9210014   8.4349992   6.3059978   6.0990014
   7.2879992   6.8459978   5.2710014   7.6014472   6.2850806   5.8574891
  13.4269992   3.7829978  12.7020014  12.7499992   3.9139978  13.3650014
  12.9419992   3.6279978  11.8910014  13.2687405   3.7799947  12.6832170
   6.1769992   7.3709978   3.4870014   5.6349992   6.9919978   2.7960014
   7.0109992   7.5659978   3.0590014   6.2154390   7.3454079   3.3344392
  16.7149992  19.4539978  18.9780014  16.9139992  19.8779978  18.1440014
  17.3699992  19.7979978  19.5850014  16.8308522  19.5586301  18.9457852
   4.3129992  11.9279978  18.5860014   5.0449992  12.1829978  19.1480014
   3.5319992  12.1329978  19.1020014   4.3076526  11.9905450  18.7325176
  10.3419992   7.3349978  11.3240014  10.9059992   6.7889978  10.7770014
  10.1939992   6.8139978  12.1130014  10.3993037   7.1896787  11.3557229
   5.3439992   3.4719978   7.7430014   5.0269992   2.5689978   7.7070014
   6.1249992   3.4739978   7.1900014   5.4062431   3.3487797   7.6633102
   8.9679992   5.7239978  13.7380014   8.1329992   6.1779978  13.8490014
   9.4919992   5.9999978  14.4900014   8.9246072   5.8233948  13.8548136
   9.5129992  11.9369978   5.4230014   8.7679992  11.4289978   5.1010014
   9.3779992  11.9859978   6.3690014   9.3928963  11.8741731   5.5068826
  16.6629992  11.0699978  14.2100014  17.3039992  11.5259978  13.6660014
  15.8319992  11.1829978  13.7470014  16.6385287  11.1476921  14.0729887
  13.4099992   4.7509978   3.6220014  12.4719992   4.8619978   3.4710014
  13.7079992   5.6069978   3.9290014  13.3216318   4.8820158   3.6428145
  11.0319992  12.1209978  16.6600014  10.6859992  11.7389978  17.4670014
  10.8319992  13.0539978  16.7310014  10.9575987  12.1949002  16.7800461
  14.1289992   6.6179978   5.2830014  15.0209992   6.4799978   5.6020014
  14.1849992   7.4089978   4.7460014  14.2587325   6.7059918   5.2541217
   4.6369992  11.2319978  11.1930014   5.3819992  11.2289978  10.5910014
   4.7149992  10.4079978  11.6740014   4.7493365  11.1202384  11.1757430
  11.6379992  13.3949978   4.4480014  11.3429992  14.2219978   4.8300014
  10.9349992  12.7759978   4.6450014  11.5026379  13.4244171   4.5268654
   1.6449992   9.6919978  16.5080014   1.8679992   9.2739978  17.3390014
   1.0429992   9.0799978  16.0850014   1.5941513   9.5519606  16.5646740
   8.6619992   9.2089978  18.7210014   8.3659992   9.0439978  17.8250014
   9.5929992   8.9889978  18.7100014   8.7474401   9.1566879  18.5970206
  13.2819992  14.5829978  16.6100014  12.3819992  14.7659978  16.3430014
  13.3159992  14.8419978  17.5310014  13.1633748  14.6430554  16.6979164
  19.0139992   6.8269978   4.9780014  18.4589992   6.4309978   4.3050014
  19.1139992   7.7379978   4.7000014  18.9516816   6.8959505   4.8485033
  18.9769992  12.6279978  17.8150014  18.1259992  12.8659978  17.4470014
  19.5669992  12.6109978  17.0620014  18.9403812  12.6582524  17.6628453
  17.3089992  15.6129978   5.4430014  16.9359992  14.7879978   5.7520014
  17.5859992  15.4299978   4.5450014  17.2953463  15.4752569   5.3639525
  14.4689992  10.4209978  12.4640014  13.5409992  10.1899978  12.4370014
  14.9199992   9.6439978  12.1340014  14.4028165  10.2842774  12.4156790
   7.0119992  14.7499978   8.5970014   7.5399992  15.5229978   8.3970014
   6.1319992  14.9739978   8.2950014   6.9653435  14.8862700   8.5287310
   2.7669992   9.6119978   3.1840014   3.3829992  10.2389978   3.5640014
   1.9049992   9.9279978   3.4560014   2.7347678   9.7404412   3.2727209
   8.4399992  12.4129978   8.1730014   8.1989992  13.3379978   8.2150014
   7.6989992  11.9539978   8.5700014   8.3069206  12.4775915   8.2323769
   8.9539992  16.5619978  14.4880014   9.3169992  17.4159978  14.2550014
   9.4859992  16.2699978  15.2290014   9.0755141  16.6393895  14.5562097
   7.1229992  17.4339978   7.7190014   6.1729992  17.5399978   7.7700014
   7.4749992  18.2549978   8.0630014   7.0405472  17.5594923   7.7724852
  12.4979992  12.6609978  14.1890014  12.0729992  12.4329978  15.0150014
  13.0789992  11.9219978  14.0070014  12.5183395  12.5299545  14.2774414
  14.7009992  13.5899978   3.2630014  15.0549992  13.2099978   4.0670014
  13.7529992  13.4959978   3.3500014  14.6212298  13.5252452   3.3848687
  15.1569992  17.2129978  16.6580014  14.5549992  16.6569978  16.1630014
  15.4379992  17.8799978  16.0320014  15.1125757  17.2270744  16.5055675
  19.2049992  18.0689978   3.4640014  19.9489992  18.6549978   3.3240014
  18.5109992  18.6379978   3.7970014  19.2129809  18.2260818   3.4898590
   3.2789992   4.4459978  16.0660014   2.3869992   4.7839978  15.9980014
   3.1809992   3.5899978  16.4840014   3.1434475   4.3766543  16.1131704
  15.5669992  12.2619978   5.4900014  15.2899992  11.5339978   6.0460014
  16.4949992  12.3809978   5.6950014  15.6544499  12.1784213   5.5938044
   2.9309992  16.2499978  14.5010014   3.1479992  15.3179978  14.4700014
   3.1769992  16.5249978  15.3840014   2.9939809  16.1595686  14.6161691
   8.7919992  14.7019978   1.7100014   9.0309992  13.9529978   1.1630014
   8.5229992  14.3139978   2.5430014   8.7883233  14.5471853   1.7477809
   7.7289992  14.2719978   4.1660014   7.8759992  13.7519978   4.9560014
   7.7259992  15.1789978   4.4730014   7.7487102  14.3233953   4.3155925
   4.1819992  11.5239978   4.6770014   3.4959992  11.8769978   5.2440014
   4.7049992  12.2869978   4.4300014   4.1588402  11.6753901   4.7211801
  12.0139992   4.1869978  14.9560014  12.7129992   4.2609978  15.6060014
  11.6329992   3.3219978  15.1100014  12.0582097   4.0802389  15.0657997
  12.7979992   3.8389978   6.0530014  13.0179992   4.3099978   5.2490014
  13.3569992   4.2329978   6.7230014  12.9036731   3.9567287   6.0335033
  10.4669992  15.9689978   4.9160014   9.6499992  16.4659978   4.9680014
  10.9959992  16.4449978   4.2750014  10.4268125  16.1011989   4.8365306
   9.9979992   5.5669978   6.8880014  10.8099992   6.0709978   6.9340014
   9.7539992   5.4219978   7.8020014  10.0761467   5.6163749   7.0178575
  10.5339992   6.5529978  16.0720014  10.6529992   7.1269978  16.8290014
  11.1889992   5.8649978  16.1870014  10.6388684   6.5385194  16.1911674
  10.8819992   2.6479978   7.8260014  10.5349992   3.2649978   8.4700014
  11.5409992   3.1489978   7.3440014  10.9235090   2.8001575   7.8490681
   7.8049992  17.0129978   4.8970014   7.9659992  17.8129978   4.3970014
   7.6079992  17.3199978   5.7820014   7.8003906  17.1638678   4.9482333
   6.5399992   3.7109978   4.5130014   6.4559992   4.5989978   4.8600014
   7.4299992   3.4459978   4.7450014   6.6488163   3.7967179   4.5918596
  16.7379992   4.4599978  16.9070014  15.8219992   4.7219978  16.8200014
  17.0739992   4.4569978  16.0110014  16.6578499   4.4955163  16.7738766
  15.3409992   8.2099978  11.0030014  14.5429992   7.7949978  10.6750014
  15.7859992   7.5199978  11.4940014  15.2919684   8.0598628  11.0245227
   4.7979992  14.1379978   3.5730014   5.3899992  14.8379978   3.8500014
   5.2569992  13.7049978   2.8540014   4.9411652  14.1752675   3.5136533
   3.1139992   6.8029978   2.6890014   3.0689992   7.7419978   2.8680014
   2.2259992   6.5669978   2.4200014   2.9878166   6.8996687   2.6771524
  16.4269992  17.4659978  12.6250014  16.2709992  18.1449978  11.9680014
  17.3599992  17.5379978  12.8280014  16.5317387  17.5686390  12.5625342
   3.9219992   1.5839978  11.3630014   3.6929992   1.6429978  10.4350014
   3.4799992   0.7929978  11.6690014   3.8308801   1.4850540  11.2774729
   2.8529992  15.5249978   7.5230014   2.0199992  15.9969978   7.5500014
   3.3979992  16.0349978   6.9240014   2.8127857  15.6584791   7.4457142
   2.1409992  18.1369978  18.8530014   2.6809992  17.9209978  19.6130014
   1.6599992  17.3319978  18.6630014   2.1499219  17.9985156  18.9314282
   6.7379992  17.0569978  20.4730014   7.5059992  16.5979978  20.8140014
   6.7169992  16.8309978  19.5430014   6.8402135  16.9636668  20.3939491
  10.8299992  16.5649978   1.8490014  10.1859992  15.9339978   2.1700014
  11.5919992  16.0339978   1.6170014  10.8448058  16.4067902   1.8616038
  13.3149992  15.4369978  19.2020014  12.9639992  14.5799978  19.4460014
  14.0409992  15.5789978  19.8090014  13.3651895  15.3391351  19.3173770
  15.4349992  16.3819978   2.0820014  15.7179992  15.5869978   2.5350014
  16.1739992  16.6149978   1.5210014  15.5737096  16.3047049   2.0681104
   2.0479992  11.9479978  19.8070014   2.1919992  11.0459978  19.5210014
   1.2759992  12.2339978  19.3200014   1.9632733  11.8631798  19.7019532
   6.3889992  12.2909978   1.9400014   6.4539992  11.4969978   2.4700014
   7.0419992  12.1729978   1.2500014   6.4861605  12.1663430   1.9192997
   8.7029992  11.9169978  19.2400014   8.3749992  12.1879978  18.3830014
   8.8549992  10.9759978  19.1520014   8.6786412  11.8269046  19.1107822
  11.7419992  13.3379978   1.6760014  11.4729992  13.5189978   2.5760014
  11.5349992  12.4129978   1.5440014  11.6771191  13.2377119   1.7815524
  14.4379992  11.8329978  16.6230014  15.1829992  12.4219978  16.5040014
  13.6809992  12.4149978  16.6870014  14.4375470  11.9922128  16.6153799
   2.8809992   9.1479978  19.2270014   3.2889992   8.2909978  19.1060014
   2.6199992   9.1619978  20.1480014   2.9016016   9.0325119  19.3349192
   7.5389992  10.2639978   4.2460014   7.0789992   9.7799978   4.9310014
   7.7939992   9.5949978   3.6100014   7.5104856  10.1073669   4.2538397
   6.8279992   8.1569978  16.6020014   6.2089992   8.8309978  16.8820014
   7.1719992   8.4779978  15.7680014   6.7897123   8.2926887  16.5276388
   8.6099992   8.5069978   2.5080014   8.4289992   8.3519978   1.5810014
   9.5599992   8.6149978   2.5530014   8.7136566   8.5003669   2.3870929
  11.8469992  10.6279978  19.8790014  12.8009992  10.7119978  19.8520014
  11.6869992   9.9159978  20.4990014  11.9557182  10.5432842  19.9590733
  17.9999992  10.8609978   1.9540014  17.7259992  10.4369978   1.1410014
  18.0389992  11.7929978   1.7370014  17.9677716  10.9288827   1.8134286
   7.1669992   5.5119978  17.6840014   7.3169992   4.7829978  17.0820014
   7.1689992   6.2889978  17.1250014   7.1877967   5.5172708  17.5260541
   7.5799992   3.8809978  15.1770014   8.1149992   4.3329978  14.5250014
   6.7269992   3.7729978  14.7540014   7.5380374   3.9282665  15.0306710
   9.1609992   9.3209978  15.4160014   9.9119992   9.1649978  14.8430014
   8.8219992  10.1729978  15.1410014   9.2179587   9.4148138  15.3004078
  13.5769992   7.1359978  20.4450014  13.7689992   6.2049978  20.3330014
  14.4349992   7.5609978  20.4340014  13.7192182   7.0660070  20.4281862
  14.8939992   9.9249978  18.5220014  14.6119992  10.6339978  17.9440014
  15.8359992   9.8519978  18.3710014  14.9827921  10.0122193  18.4224225
   5.6459992   6.7099978  19.5950014   4.8779992   6.1769978  19.3850014
   6.3239992   6.3999978  18.9960014   5.6327235   6.5951754  19.4852413
   8.3849992   1.3379978  15.6080014   8.2869992   2.2839978  15.5030014
   7.6429992   0.9649978  15.1320014   8.2712534   1.4171773  15.5292600
   9.6489992   5.6589978  19.1720014   9.4139992   5.4399978  20.0730014
   8.8659992   5.4519978  18.6620014   9.5109095   5.6009892  19.2265353
  12.3649992   4.7869978  18.2470014  11.4169992   4.8189978  18.3790014
  12.6769992   4.1609978  18.9010014  12.2775293   4.7067923  18.3534148
  13.9989992   3.4209978  20.2520014  13.9019992   2.4689978  20.2470014
  13.6769992   3.6889978  21.1130014  13.9422468   3.3270884  20.3676210
   3.8259992   4.6299978  19.3000014   4.0379992   3.9239978  18.6900014
   3.7149992   4.1929978  20.1440014   3.8400269   4.4741921  19.3305873
   8.6069992   0.6319978  18.2790014   9.3189992  -0.0080022  18.2650014
   8.5059992   0.8979978  17.3660014   8.6907387   0.5804330  18.1535563
   8.9609992   2.3139978  20.3330014   8.8289992   1.8389978  19.5130014
   8.3609992   3.0589978  20.2780014   8.8619070   2.3495789  20.2133251
   8.5069992  19.1969978   3.5090014   9.4399992  19.3549978   3.6530014
   8.2429992  19.8729978   2.8840014   8.5989911  19.3099373   3.4442722
   2.0749992  13.8339978   2.9920014   2.9889992  13.9129978   3.2650014
   2.0829992  13.1469978   2.3260014   2.2010655  13.7519205   2.9392917
   0.7239992  19.2269978   8.0690014   0.0769992  18.7649978   7.5370014
   1.0789992  18.5549978   8.6520014   0.6833741  19.0729774   8.0749175
   1.5939992  17.3069978   9.8740014   1.2599992  16.4269978  10.0460014
   1.8169992  17.6529978  10.7390014   1.5783721  17.2331938  10.0144168
  19.1429992  18.1169978  12.8550014  19.1209992  18.3019978  13.7940014
  19.8329992  18.6849978  12.5140014  19.2333439  18.2191887  12.9374791
  18.7059992  17.6839978  15.7760014  18.2189992  16.9489978  15.4050014
  19.2549992  17.2899978  16.4540014  18.7135247  17.5301057  15.8168461
  17.1569992  13.4739978  20.4150014  16.2909992  13.3689978  20.8090014
  17.5329992  14.2319978  20.8610014  17.0893401  13.5621708  20.5292620
  18.4579992  11.7299978   5.9290014  19.3079992  12.1509978   6.0560014
  18.4629992  10.9899978   6.5360014  18.5751143  11.6876094   6.0284750
  18.8519992   9.7839978   7.7520014  18.1259992   9.3039978   8.1500014
  19.4339992   9.9889978   8.4850014  18.8312730   9.7460184   7.9054149
  18.6109992  12.5689978  12.7000014  19.4449992  12.1909978  12.4190014
  18.7229992  13.5119978  12.5810014  18.7401917  12.6447943  12.6454861
  17.0979992  15.4469978  15.0070014  16.4499992  15.7719978  15.6320014
  16.5799992  15.0059978  14.3330014  16.9394196  15.4318651  15.0014152
  19.1209992   9.6849978   4.1430014  18.5989992  10.0409978   3.4250014
  19.0879992  10.3599978   4.8220014  19.0450129   9.8249598   4.1363355
  17.4699992   6.9239978   2.6940014  17.5659992   7.5909978   2.0140014
  17.3299992   6.1089978   2.2130014  17.4642040   6.9050671   2.5358378
  16.6389992   8.3049978   8.3150014  16.4889992   7.3599978   8.2950014
  16.2849992   8.5859978   9.1590014  16.5706351   8.2136644   8.4263220
   1.6739992  10.3829978  12.3260014   1.8589992  10.3009978  11.3900014
   2.5239992  10.2589978  12.7490014   1.8140928  10.3550463  12.2552893
  17.4949992  10.2749978  17.9540014  18.0779992   9.5399978  18.1460014
  18.0589992  11.0469978  18.0010014  17.6509781  10.2788145  17.9866164
  18.9919992   8.1779978  18.6390014  18.1289992   7.7989978  18.4730014
  19.5959992   7.4389978  18.5640014  18.9556085   8.0263223  18.6061695
  16.7169992   4.3319978   1.8120014  17.3279992   3.9609978   2.4490014
  15.8799992   3.9109978   2.0080014  16.6874947   4.2242756   1.9257252
  16.3499992   5.8869978   6.7780014  16.6289992   4.9799978   6.9020014
  17.1089992   6.3209978   6.3890014  16.4908619   5.8214502   6.7423795
  16.9609992   6.4689978  12.2140014  17.8939992   6.6809978  12.1790014
  16.7259992   6.5699978  13.1360014  17.0569517   6.5116833  12.3339130
  16.9909992   7.2059978  14.9900014  16.1479992   7.4739978  15.3560014
  17.4329992   8.0279978  14.7790014  16.9354138   7.3538273  15.0115518
   1.2719992   5.6529978  18.4660014   2.1909992   5.5309978  18.7030014
   0.8219992   4.9029978  18.8560014   1.3370087   5.5349608  18.5511410
  19.2739992   1.1859978  20.3430014  19.6229992   0.5319978  19.7380014
  19.4209992   2.0229978  19.9030014  19.3416824   1.2096024  20.2006304
  16.9629992   3.1499978   6.8260014  17.1449992   2.7009978   7.6510014
  16.3629992   2.5659978   6.3620014  16.9068187   3.0095552   6.8762739
   2.4929992   3.9659978  11.3580014   2.9379992   3.1739978  11.6600014
   2.9589992   4.6819978  11.7880014   2.6169718   3.9544534  11.4575265
   0.7969992   6.9649978  12.4270014   1.2889992   6.7439978  11.6360014
   1.1589992   7.8049978  12.7080014   0.9132923   7.0483468  12.3567407
  18.7929992   3.2949978  18.6920014  17.8759992   3.5659978  18.6570014
  18.9159992   2.7599978  17.9080014  18.6839672   3.2597885  18.5811862
  18.8299992   3.2179978   3.3540014  19.2419992   2.4969978   2.8790014
  19.5109992   3.8869978   3.4120014  18.9785536   3.2097766   3.2968024
   1.1109992   3.2229978   6.4810014   0.1859992   3.4309978   6.3520014
   1.5649992   3.7069978   5.7910014   1.0456298   3.3169299   6.3700451
  15.8809992  18.2069978   8.4270014  16.5339992  17.8589978   7.8190014
  16.3919992  18.6949978   9.0730014  16.0392777  18.2253815   8.4312047
   1.0739992   1.9609978  14.8250014   0.4089992   1.7149978  15.4680014
   0.6309992   2.5829978  14.2480014   0.9231168   2.0114214  14.8349848
   3.2659992  15.1359978  18.9700014   2.4449992  15.3109978  18.5090014
   3.0139992  15.0629978  19.8900014   3.1195594  15.1500717  19.0313611
   6.2199992  16.1099978  15.2280014   5.7959992  16.9199978  14.9460014
   7.1249992  16.1959978  14.9260014   6.2842138  16.2324160  15.1486415
  10.5319992  17.5089978  18.1880014  10.7159992  17.1759978  19.0660014
  11.3779992  17.8189978  17.8660014  10.6716484  17.5052979  18.2647617
  12.8769992  18.7949978  17.4320014  13.5539992  18.1619978  17.1920014
  13.1979992  19.1959978  18.2390014  13.0131323  18.7625691  17.5083158
  17.7939992   1.3849978  16.5110014  16.9809992   1.7099978  16.1240014
  18.0269992   0.6239978  15.9780014  17.7141347   1.3266880  16.3859841
   3.6219992  19.3669978  15.2760014   2.9019992  19.8069978  14.8250014
   3.2569992  19.1159978  16.1240014   3.4739643  19.3933369  15.3289129
   6.0889992  18.9669978  14.3060014   5.2249992  19.0389978  14.7100014
   6.0339992  19.5139978  13.5220014   5.9631942  19.0507849  14.2554000
  10.7999992  18.8549978  13.4810014  10.3429992  19.3839978  12.8270014
  10.9629992  19.4579978  14.2060014  10.7594960  19.0089280  13.4895274
  13.1279992  17.7329978  14.4260014  12.2229992  17.8979978  14.1600014
  13.5559992  18.5859978  14.3600014  13.0621537  17.8709134  14.3807095
  15.7319992  19.3029978  14.7210014  15.5499992  20.2189978  14.5100014
  15.9089992  18.8919978  13.8740014  15.7310030  19.3728273  14.5777166
   3.0369992  17.9899978  12.1860014   3.0189992  17.5639978  13.0430014
   3.8419992  17.6709978  11.7770014   3.1432875  17.8886435  12.2479515
   5.1779992  16.6999978  10.8410014   4.9589992  15.7829978  11.0110014
   6.0019992  16.8399978  11.3070014   5.2594702  16.5935511  10.9272527
   7.7149992  17.1699978  11.6900014   7.9279992  16.2819978  11.4030014
   7.7799992  17.1349978  12.6440014   7.7529149  17.0438326  11.7797369
  11.2239992   2.8339978  10.8340014  10.5499992   2.2039978  11.0900014
  11.7879992   2.3499978  10.2310014  11.2080384   2.6823708  10.7875020
  16.3669992   0.9409978  10.9470014  16.9699992   1.4889978  10.4450014
  15.4969992   1.2599978  10.7060014  16.3319157   1.0590373  10.8457910
  18.0939992   2.0799978   9.2800014  18.7049992   1.5659978   8.7530014
  18.4759992   2.9569978   9.3030014  18.2293305   2.1282050   9.2109418
   3.5509992   1.4679978   8.6560014   2.7739992   1.2329978   8.1490014
   4.0809992   0.6709978   8.6650014   3.5163451   1.3281268   8.5878627
   2.3869992   1.2659978   4.4600014   2.8259992   1.8769978   3.8680014
   1.7529992   1.8039978   4.9340014   2.3613859   1.4224064   4.4430305
   8.1299992   1.3939978   8.4690014   9.0039992   1.7829978   8.4400014
   7.9939992   1.1789978   9.3920014   8.2311953   1.4181643   8.5897617
  13.6869992   1.4239978  10.1190014  13.7629992   1.5199978   9.1690014
  13.4119992   0.5169978  10.2470014  13.6601871   1.3144146  10.0063944
  15.0399992   1.4499978   5.8110014  14.3369992   2.0649978   5.6010014
  14.5949992   0.6129978   5.9420014  14.8836550   1.4209668   5.7999837
   2.2879992  17.2139978   5.3570014   1.6029992  17.1759978   4.6900014
   2.2919992  18.1269978   5.6450014   2.1947621  17.3321924   5.3046126
   4.2479992   3.1819978   2.9020014   4.7389992   2.5519978   2.3750014
   4.8709992   3.4779978   3.5650014   4.3995304   3.1357376   2.9194940
   9.2739992   3.4749978   5.3590014   9.4519992   2.8279978   6.0420014
   9.2199992   4.3089978   5.8260014   9.2910678   3.4991604   5.5156301
  11.1519992  18.4229978   3.7550014  12.0179992  18.7899978   3.5770014
  10.9059992  17.9839978   2.9410014  11.2372097  18.4138525   3.6206019
  17.8609992  17.9859978   6.4340014  17.6669992  17.2379978   5.8690014
  17.8219992  18.7439978   5.8510014  17.8291645  17.9860786   6.2778148
   3.5079992   1.9819978  18.1740014   3.1419992   1.2159978  18.6160014
   4.4209992   2.0109978  18.4600014   3.5813172   1.8810324  18.2731890
   5.4809992   1.3319978  19.7090014   6.3799992   1.0579978  19.5250014
   5.0949992   0.5899978  20.1740014   5.5517307   1.1942196  19.7467098
   4.1059992  18.1339978   2.3820014   3.8379992  18.4199978   3.2560014
   4.8769992  17.5879978   2.5350014   4.1735926  18.0992779   2.5221205
  13.9029992   0.6649978  19.8920014  13.9789992   0.2389978  20.7450014
  14.7959992   0.6779978  19.5490014  14.0342303   0.6083493  19.9625497
  17.0789992  16.7379978  18.5840014  16.2969992  16.5509978  18.0640014
  17.0069992  17.6669978  18.8010014  16.9621924  16.8380637  18.5421602
  31.4849992  10.6239978   8.6150014  31.5739992  11.5679978   8.4830014
  30.8469992  10.3489978   7.9570014  31.4109062  10.7159812   8.5079641
  30.4179992   9.8789978  12.0340014  30.3799992   9.2329978  12.7390014
  30.0959992   9.4119978  11.2630014  30.3692679   9.7274276  12.0262921
  22.7859992   9.4929978  13.6270014  22.8279992   8.8679978  14.3500014
  23.4889992  10.1169978  13.8090014  22.8867345   9.4917873  13.7505274
  34.1239992  12.8179978  10.3350014  33.6829992  12.0979978  10.7860014
  34.1109992  13.5389978  10.9650014  34.0619215  12.8169291  10.4818105
  23.7099992  13.9429978  12.1620014  23.3399992  13.1409978  11.7920014
  24.6509992  13.7749978  12.2080014  23.7865984  13.8104638  12.1175603
  20.3199992   7.6029978   7.5540014  19.8719992   8.4489978   7.5360014
  19.7589992   7.0239978   7.0390014  20.1828546   7.6403993   7.4818891
  21.0299992   9.7649978   9.6800014  21.2439992   8.9949978  10.2080014
  21.7679992   9.8549978   9.0770014  21.1590200   9.6718587   9.6707035
  31.2359992  17.9219978  10.5470014  31.8549992  17.2459978  10.2740014
  31.0269992  17.7039978  11.4560014  31.2926056  17.7998869  10.6323967
  28.8069992  12.3109978  12.4400014  29.1109992  11.6249978  11.8450014
  29.5289992  12.4299978  13.0580014  28.9461240  12.2332314  12.4420959
  37.4699992   3.9129978  13.3000014  37.5199992   4.5229978  14.0360014
  37.8959992   4.3739978  12.5770014  37.5344108   4.0587709  13.3030112
  31.9479992   6.7049978  12.7670014  32.0909992   5.7589978  12.7870014
  31.8419992   6.9119978  11.8390014  31.9532403   6.6034797  12.6442239
  25.1029992   4.8069978  10.0400014  25.1459992   5.6669978   9.6210014
  24.6449992   4.2549978   9.4060014  25.0469871   4.8499245   9.8970761
  32.8249992   4.9379978   8.4410014  33.4719992   4.6089978   9.0650014
  33.3349992   5.4549978   7.8180014  32.9824351   4.9629067   8.4421037
  21.7229992   7.2039978  10.8020014  22.3769992   6.6539978  11.2340014
  21.7469992   6.9299978   9.8850014  21.8157199   7.0917167  10.7371668
  26.8799992   8.7539978  10.0170014  27.4959992   8.2269978  10.5260014
  26.2929992   8.1139978   9.6130014  26.8850154   8.5953954  10.0320945
  37.8619992   5.3909978  15.5360014  37.1729992   6.0489978  15.4410014
  37.8769992   5.1929978  16.4730014  37.7697756   5.4542603  15.6495812
  23.9129992   3.7249978  14.1140014  23.6939992   4.2549978  13.3470014
  23.2449992   3.9509978  14.7610014  23.7926975   3.8280967  14.0965140
  31.2819992  13.2249978   7.6580014  30.9869992  12.9019978   6.8060014
  30.9579992  14.1249978   7.6990014  31.1978460  13.3024464   7.5469714
  26.4819992  11.3999978  14.4010014  25.7419992  11.9989978  14.5050014
  27.1959992  11.9539978  14.0860014  26.4773500  11.5567829  14.3726371
  34.5889992   4.2289978  10.4210014  34.3739992   3.4629978  10.9540014
  35.2449992   4.7009978  10.9340014  34.6482673   4.1880728  10.5631990
  23.5069992   5.6169978  12.0660014  24.1209992   6.2499978  12.4390014
  24.0189992   5.1449978  11.4100014  23.6601962   5.6397249  12.0282935
  24.8899992  13.3649978  15.1880014  24.8839992  14.2439978  14.8100014
  24.0359992  13.2809978  15.6130014  24.7737925  13.4739535  15.1936887
  21.0109992  13.0359978   5.9700014  20.7389992  13.2649978   5.0820014
  21.0559992  13.8729978   6.4310014  20.9798097  13.1806163   5.9106683
  34.6359992  14.6569978  12.6830014  33.6939992  14.7159978  12.8450014
  34.9119992  15.5629978  12.5460014  34.5445865  14.7875288  12.6866192
  34.9359992   2.9439978  14.1000014  34.1999992   3.5539978  14.0630014
  35.6199992   3.3589978  13.5740014  34.9275367   3.0837551  14.0238174
  27.9399992   1.0299978  11.5660014  27.8219992   0.0819978  11.5120014
  27.0849992   1.3629978  11.8390014  27.8082805   0.9452202  11.5955079
  32.8879992  16.4379978   9.3080014  33.3129992  15.7309978   8.8230014
  33.2049992  17.2399978   8.8910014  32.9890266  16.4495190   9.1852479
  34.0479992  14.3389978   7.8170014  33.7899992  13.6489978   7.2050014
  34.1189992  13.8959978   8.6620014  34.0223050  14.1846814   7.8475621
  35.7339992  12.9059978  16.2940014  35.8729992  12.3139978  15.5550014
  35.9009992  13.7789978  15.9380014  35.7756193  12.9428896  16.1446211
  30.2059992   9.8679978   6.0670014  29.4949992  10.4029978   5.7150014
  30.8969992   9.9229978   5.4070014  30.2020751   9.9486777   5.9295858
  30.2599992   8.3249978   3.1050014  30.9609992   8.3479978   3.7570014
  30.5619992   7.6969978   2.4490014  30.3968202   8.2432212   3.1055609
  37.5749992   9.2459978  14.3600014  36.9229992   9.9399978  14.4490014
  38.0409992   9.4559978  13.5500014  37.5485937   9.3695019  14.2627533
  33.6119992  10.0769978   7.0180014  32.8799992  10.3059978   7.5920014
  34.0589992   9.3639978   7.4730014  33.5723963  10.0118729   7.1579945
  33.5089992   8.2519978  16.0860014  33.5889992   9.0149978  16.6580014
  32.9079992   8.5309978  15.3960014  33.4386547   8.3942457  16.0710047
  25.2569992  10.7079978   8.9010014  24.9269992  10.3369978   8.0830014
  25.8459992  10.0369978   9.2480014  25.2913970  10.5666063   8.8359404
  26.6239992  14.1359978  11.5820014  26.5289992  13.5569978  10.8260014
  27.3529992  13.7649978  12.0780014  26.7096011  14.0065561  11.5456028
  25.6239992   9.4759978  12.5340014  26.1889992   9.5979978  11.7720014
  25.9429992  10.1139978  13.1730014  25.7444166   9.5788791  12.5160348
  31.9329992  14.9799978  13.2680014  31.6929992  15.6419978  13.9160014
  31.7349992  14.1449978  13.6930014  31.8733826  14.9578115  13.4141566
  26.5039992  13.8759978  17.2520014  26.1929992  14.6579978  17.7070014
  25.8539992  13.7229978  16.5660014  26.3735538  13.9624087  17.2215898
  32.4829992   9.2399978   4.7040014  33.0619992   9.3899978   5.4500014
  32.8969992   9.7099978   3.9800014  32.6183358   9.3240955   4.7083953
  23.4239992  10.0739978  16.4800014  23.4939992  10.7249978  17.1790014
  22.5329992  10.1769978  16.1450014  23.3131690  10.1769249  16.5303043
  30.2089992  15.9759978   8.1390014  30.6829992  16.2719978   8.9160014
  29.6459992  16.7149978   7.9060014  30.1977890  16.1163036   8.2138101
  24.7429992  15.9469978  18.0150014  24.7509992  15.8109978  17.0680014
  23.8269992  15.8299978  18.2670014  24.6202528  15.9125463  17.9193243
  36.1819992   0.9899978   4.5170014  35.2819992   1.1289978   4.8120014
  36.4339992   1.8209978   4.1150014  36.0928683   1.1214055   4.5030232
  24.2479992   9.7769978   6.4900014  23.9559992  10.5449978   5.9990014
  23.5729992   9.1179978   6.3270014  24.1168497   9.7929745   6.4008260
  37.3709992  15.3559978   2.8930014  37.4439992  16.2949978   3.0630014
  38.2759992  15.0509978   2.8370014  37.5034170  15.4433282   2.9087063
  20.3409992  12.1399978  15.3050014  19.8389992  12.1119978  14.4900014
  20.3459992  11.2349978  15.6150014  20.2729832  12.0137486  15.2354121
  20.0909992  14.9209978  12.1890014  21.0369992  14.7759978  12.1700014
  19.9779992  15.7049978  12.7260014  20.2053578  15.0071697  12.2590317
  38.2889992  15.5869978  17.8720014  38.2389992  14.6309978  17.8340014
  37.4619992  15.8539978  18.2730014  38.1703831  15.4924680  17.9210121
  29.2669992  15.1609978  16.7480014  29.3549992  15.9869978  17.2230014
  28.4039992  14.8309978  16.9970014  29.1623357  15.2295468  16.8467653
  29.6819992  18.9329978   6.5540014  29.6059992  18.8119978   5.6070014
  29.7139992  19.8819978   6.6720014  29.6759380  19.0447677   6.4405181
  23.3349992  17.7219978   8.3350014  23.4869992  17.3739978   9.2130014
  22.4839992  17.3649978   8.0790014  23.2408344  17.6260879   8.4206868
  32.7829992  18.0869978   3.5560014  33.1579992  17.3429978   3.0850014
  32.7879992  17.8169978   4.4740014  32.8350098  17.9486392   3.6156629
  32.4519992  18.0129978   6.3050014  31.5169992  18.1129978   6.4840014
  32.7319992  17.3029978   6.8840014  32.3619471  17.9307933   6.4076695
  35.4409992   7.0799978  18.3520014  35.0329992   7.5599978  17.6310014
  35.4809992   6.1739978  18.0440014  35.3906221   7.0232449  18.2118267
  22.5899992  13.4639978  16.3480014  22.8059992  13.1019978  17.2080014
  21.7339992  13.0889978  16.1390014  22.5038810  13.3638837  16.4372680
  25.2079992   1.9339978  12.3440014  24.3469992   1.8469978  11.9360014
  25.1859992   2.7899978  12.7720014  25.0870491   2.0378003  12.3459582
  29.8709992   1.6559978  15.7190014  30.2909992   1.2409978  16.4720014
  28.9379992   1.4769978  15.8360014  29.8023736   1.5749910  15.8378968
  33.1979992   5.4109978  16.5720014  32.6839992   5.2859978  17.3700014
  33.0419992   6.3239978  16.3280014  33.1066967   5.5172123  16.6480937
  33.9599992  10.2719978   2.3330014  34.0019992  10.0499978   1.4030014
  34.8089992  10.6709978   2.5230014  34.0805253  10.2955498   2.2313822
  29.5329992   4.1479978   3.0040014  29.2789992   4.1669978   3.9260014
  29.2759992   3.2769978   2.7020014  29.4634508   4.0328280   3.0894803
  25.2989992   6.8989978  13.4390014  24.6579992   6.8589978  14.1480014
  25.3369992   7.8259978  13.2010014  25.2163010   7.0187668  13.5039946
  25.2959992   7.1199978   8.3510014  24.4039992   6.7799978   8.2920014
  25.7469992   6.7429978   7.5950014  25.2347642   7.0224910   8.2407726
  30.8319992   7.5359978   7.1680014  30.4229992   8.3509978   6.8760014
  31.5519992   7.3959978   6.5540014  30.8734439   7.6285372   7.0450115
  29.9339992   7.7119978  18.6560014  29.3709992   7.0069978  18.9770014
  30.7599992   7.5909978  19.1240014  29.9686674   7.5992165  18.7631751
  31.8369992   6.9819978   9.9820014  31.6409992   7.5879978   9.2670014
  32.0179992   6.1489978   9.5480014  31.8346584   6.9522513   9.8254212
  23.0489992   7.2199978  15.3060014  23.0109992   7.6199978  16.1750014
  22.5589992   6.4029978  15.3960014  22.9775330   7.1642674  15.4371289
  26.4149992   4.5939978   2.1050014  25.9839992   4.1489978   2.8340014
  25.6969992   4.9649978   1.5920014  26.2589176   4.5832051   2.1354930
  19.6579992   4.3359978   9.1570014  20.2879992   4.3069978   9.8760014
  20.1069992   3.9109978   8.4260014  19.8050835   4.2745660   9.1567659
  20.9319992   5.0819978   4.5810014  21.4059992   5.6729978   3.9960014
  20.2139992   5.6119978   4.9280014  20.8998640   5.2345511   4.5477969
  31.1009992   8.6199978  14.6530014  31.4239992   7.9889978  14.0100014
  30.6599992   8.0859978  15.3140014  31.0856379   8.4613468  14.6542582
  27.8779992   4.5479978   9.4370014  26.9669992   4.6049978   9.7260014
  28.3829992   4.4879978  10.2480014  27.8216873   4.5476826   9.5861207
  22.7059992   6.1769978   8.2640014  21.8169992   6.2759978   7.9240014
  23.0029992   5.3349978   7.9180014  22.6244177   6.0767687   8.1706940
  26.3589992   6.1769978   5.9210014  27.2909992   6.3059978   6.0990014
  26.1439992   6.8459978   5.2710014  26.4574472   6.2850806   5.8574891
  32.2829992   3.7829978  12.7020014  31.6059992   3.9139978  13.3650014
  31.7979992   3.6279978  11.8910014  32.1247405   3.7799947  12.6832170
  25.0329992   7.3709978   3.4870014  24.4909992   6.9919978   2.7960014
  25.8669992   7.5659978   3.0590014  25.0714390   7.3454079   3.3344392
  35.5709992  19.4539978  18.9780014  35.7699992  19.8779978  18.1440014
  36.2259992  19.7979978  19.5850014  35.6868522  19.5586301  18.9457852
  23.1689992  11.9279978  18.5860014  23.9009992  12.1829978  19.1480014
  22.3879992  12.1329978  19.1020014  23.1636526  11.9905450  18.7325176
  29.1979992   7.3349978  11.3240014  29.7619992   6.7889978  10.7770014
  29.0499992   6.8139978  12.1130014  29.2553037   7.1896787  11.3557229
  24.1999992   3.4719978   7.7430014  23.8829992   2.5689978   7.7070014
  24.9809992   3.4739978   7.1900014  24.2622431   3.3487797   7.6633102
  27.8239992   5.7239978  13.7380014  26.9889992   6.1779978  13.8490014
  28.3479992   5.9999978  14.4900014  27.7806072   5.8233948  13.8548136
  28.3689992  11.9369978   5.4230014  27.6239992  11.4289978   5.1010014
  28.2339992  11.9859978   6.3690014  28.2488963  11.8741731   5.5068826
  35.5189992  11.0699978  14.2100014  36.1599992  11.5259978  13.6660014
  34.6879992  11.1829978  13.7470014  35.4945287  11.1476921  14.0729887
  32.2659992   4.7509978   3.6220014  31.3279992   4.8619978   3.4710014
  32.5639992   5.6069978   3.9290014  32.1776318   4.8820158   3.6428145
  29.8879992  12.1209978  16.6600014  29.5419992  11.7389978  17.4670014
  29.6879992  13.0539978  16.7310014  29.8135987  12.1949002  16.7800461
  32.9849992   6.6179978   5.2830014  33.8769992   6.4799978   5.6020014
  33.0409992   7.4089978   4.7460014  33.1147325   6.7059918   5.2541217
  23.4929992  11.2319978  11.1930014  24.2379992  11.2289978  10.5910014
  23.5709992  10.4079978  11.6740014  23.6053365  11.1202384  11.1757430
  30.4939992  13.3949978   4.4480014  30.1989992  14.2219978   4.8300014
  29.7909992  12.7759978   4.6450014  30.3586379  13.4244171   4.5268654
  20.5009992   9.6919978  16.5080014  20.7239992   9.2739978  17.3390014
  19.8989992   9.0799978  16.0850014  20.4501513   9.5519606  16.5646740
  27.5179992   9.2089978  18.7210014  27.2219992   9.0439978  17.8250014
  28.4489992   8.9889978  18.7100014  27.6034401   9.1566880  18.5970206
  32.1379992  14.5829978  16.6100014  31.2379992  14.7659978  16.3430014
  32.1719992  14.8419978  17.5310014  32.0193748  14.6430554  16.6979164
  37.8699992   6.8269978   4.9780014  37.3149992   6.4309978   4.3050014
  37.9699992   7.7379978   4.7000014  37.8076816   6.8959505   4.8485033
  37.8329992  12.6279978  17.8150014  36.9819992  12.8659978  17.4470014
  38.4229992  12.6109978  17.0620014  37.7963812  12.6582524  17.6628453
  36.1649992  15.6129978   5.4430014  35.7919992  14.7879978   5.7520014
  36.4419992  15.4299978   4.5450014  36.1513463  15.4752569   5.3639525
  33.3249992  10.4209978  12.4640014  32.3969992  10.1899978  12.4370014
  33.7759992   9.6439978  12.1340014  33.2588165  10.2842774  12.4156790
  25.8679992  14.7499978   8.5970014  26.3959992  15.5229978   8.3970014
  24.9879992  14.9739978   8.2950014  25.8213435  14.8862700   8.5287310
  21.6229992   9.6119978   3.1840014  22.2389992  10.2389978   3.5640014
  20.7609992   9.9279978   3.4560014  21.5907678   9.7404412   3.2727209
  27.2959992  12.4129978   8.1730014  27.0549992  13.3379978   8.2150014
  26.5549992  11.9539978   8.5700014  27.1629206  12.4775915   8.2323769
  27.8099992  16.5619978  14.4880014  28.1729992  17.4159978  14.2550014
  28.3419992  16.2699978  15.2290014  27.9315141  16.6393895  14.5562097
  25.9789992  17.4339978   7.7190014  25.0289992  17.5399978   7.7700014
  26.3309992  18.2549978   8.0630014  25.8965472  17.5594923   7.7724852
  31.3539992  12.6609978  14.1890014  30.9289992  12.4329978  15.0150014
  31.9349992  11.9219978  14.0070014  31.3743395  12.5299545  14.2774414
  33.5569992  13.5899978   3.2630014  33.9109992  13.2099978   4.0670014
  32.6089992  13.4959978   3.3500014  33.4772298  13.5252452   3.3848687
  34.0129992  17.2129978  16.6580014  33.4109992  16.6569978  16.1630014
  34.2939992  17.8799978  16.0320014  33.9685757  17.2270744  16.5055675
  38.0609992  18.0689978   3.4640014  38.8049992  18.6549978   3.3240014
  37.3669992  18.6379978   3.7970014  38.0689809  18.2260818   3.4898590
  22.1349992   4.4459978  16.0660014  21.2429992   4.7839978  15.9980014
  22.0369992   3.5899978  16.4840014  21.9994475   4.3766543  16.1131704
  34.4229992  12.2619978   5.4900014  34.1459992  11.5339978   6.0460014
  35.3509992  12.3809978   5.6950014  34.5104499  12.1784213   5.5938044
  21.7869992  16.2499978  14.5010014  22.0039992  15.3179978  14.4700014
  22.0329992  16.5249978  15.3840014  21.8499809  16.1595686  14.6161691
  27.6479992  14.7019978   1.7100014  27.8869992  13.9529978   1.1630014
  27.3789992  14.3139978   2.5430014  27.6443233  14.5471853   1.7477809
  26.5849992  14.2719978   4.1660014  26.7319992  13.7519978   4.9560014
  26.5819992  15.1789978   4.4730014  26.6047102  14.3233953   4.3155925
  23.0379992  11.5239978   4.6770014  22.3519992  11.8769978   5.2440014
  23.5609992  12.2869978   4.4300014  23.0148402  11.6753901   4.7211801
  30.8699992   4.1869978  14.9560014  31.5689992   4.2609978  15.6060014
  30.4889992   3.3219978  15.1100014  30.9142097   4.0802389  15.0657997
  31.6539992   3.8389978   6.0530014  31.8739992   4.3099978   5.2490014
  32.2129992   4.2329978   6.7230014  31.7596731   3.9567287   6.0335033
  29.3229992  15.9689978   4.9160014  28.5059992  16.4659978   4.9680014
  29.8519992  16.4449978   4.2750014  29.2828125  16.1011989   4.8365306
  28.8539992   5.5669978   6.8880014  29.6659992   6.0709978   6.9340014
  28.6099992   5.4219978   7.8020014  28.9321467   5.6163749   7.0178575
  29.3899992   6.5529978  16.0720014  29.5089992   7.1269978  16.8290014
  30.0449992   5.8649978  16.1870014  29.4948684   6.5385194  16.1911674
  29.7379992   2.6479978   7.8260014  29.3909992   3.2649978   8.4700014
  30.3969992   3.1489978   7.3440014  29.7795090   2.8001575   7.8490681
  26.6609992  17.0129978   4.8970014  26.8219992  17.8129978   4.3970014
  26.4639992  17.3199978   5.7820014  26.6563906  17.1638678   4.9482333
  25.3959992   3.7109978   4.5130014  25.3119992   4.5989978   4.8600014
  26.2859992   3.4459978   4.7450014  25.5048163   3.7967179   4.5918596
  35.5939992   4.4599978  16.9070014  34.6779992   4.7219978  16.8200014
  35.9299992   4.4569978  16.0110014  35.5138499   4.4955163  16.7738766
  34.1969992   8.2099978  11.0030014  33.3989992   7.7949978  10.6750014
  34.6419992   7.5199978  11.4940014  34.1479684   8.0598628  11.0245227
  23.6539992  14.1379978   3.5730014  24.2459992  14.8379978   3.8500014
  24.1129992  13.7049978   2.8540014  23.7971652  14.1752675   3.5136533
  21.9699992   6.8029978   2.6890014  21.9249992   7.7419978   2.8680014
  21.0819992   6.5669978   2.4200014  21.8438166   6.8996687   2.6771524
  35.2829992  17.4659978  12.6250014  35.1269992  18.1449978  11.9680014
  36.2159992  17.5379978  12.8280014  35.3877387  17.5686390  12.5625342
  22.7779992   1.5839978  11.3630014  22.5489992   1.6429978  10.4350014
  22.3359992   0.7929978  11.6690014  22.6868801   1.4850540  11.2774729
  21.7089992  15.5249978   7.5230014  20.8759992  15.9969978   7.5500014
  22.2539992  16.0349978   6.9240014  21.6687857  15.6584791   7.4457142
  20.9969992  18.1369978  18.8530014  21.5369992  17.9209978  19.6130014
  20.5159992  17.3319978  18.6630014  21.0059219  17.9985156  18.9314282
  25.5939992  17.0569978  20.4730014  26.3619992  16.5979978  20.8140014
  25.5729992  16.8309978  19.5430014  25.6962135  16.9636668  20.3939491
  29.6859992  16.5649978   1.8490014  29.0419992  15.9339978   2.1700014
  30.4479992  16.0339978   1.6170014  29.7008058  16.4067902   1.8616038
  32.1709992  15.4369978  19.2020014  31.8199992  14.5799978  19.4460014
  32.8969992  15.5789978  19.8090014  32.2211895  15.3391351  19.3173770
  34.2909992  16.3819978   2.0820014  34.5739992  15.5869978   2.5350014
  35.0299992  16.6149978   1.5210014  34.4297096  16.3047049   2.0681104
  20.9039992  11.9479978  19.8070014  21.0479992  11.0459978  19.5210014
  20.1319992  12.2339978  19.3200014  20.8192733  11.8631798  19.7019532
  25.2449992  12.2909978   1.9400014  25.3099992  11.4969978   2.4700014
  25.8979992  12.1729978   1.2500014  25.3421605  12.1663430   1.9192997
  27.5589992  11.9169978  19.2400014  27.2309992  12.1879978  18.3830014
  27.7109992  10.9759978  19.1520014  27.5346412  11.8269046  19.1107822
  30.5979992  13.3379978   1.6760014  30.3289992  13.5189978   2.5760014
  30.3909992  12.4129978   1.5440014  30.5331191  13.2377119   1.7815524
  33.2939992  11.8329978  16.6230014  34.0389992  12.4219978  16.5040014
  32.5369992  12.4149978  16.6870014  33.2935470  11.9922128  16.6153799
  21.7369992   9.1479978  19.2270014  22.1449992   8.2909978  19.1060014
  21.4759992   9.1619978  20.1480014  21.7576016   9.0325119  19.3349192
  26.3949992  10.2639978   4.2460014  25.9349992   9.7799978   4.9310014
  26.6499992   9.5949978   3.6100014  26.3664856  10.1073669   4.2538397
  25.6839992   8.1569978  16.6020014  25.0649992   8.8309978  16.8820014
  26.0279992   8.4779978  15.7680014  25.6457123   8.2926887  16.5276388
  27.4659992   8.5069978   2.5080014  27.2849992   8.3519978   1.5810014
  28.4159992   8.6149978   2.5530014  27.5696566   8.5003669   2.3870929
  30.7029992  10.6279978  19.8790014  31.6569992  10.7119978  19.8520014
  30.5429992   9.9159978  20.4990014  30.8117182  10.5432842  19.9590733
  36.8559992  10.8609978   1.9540014  36.5819992  10.4369978   1.1410014
  36.8949992  11.7929978   1.7370014  36.8237716  10.9288827   1.8134286
  26.0229992   5.5119978  17.6840014  26.1729992   4.7829978  17.0820014
  26.0249992   6.2889978  17.1250014  26.0437967   5.5172708  17.5260541
  26.4359992   3.8809978  15.1770014  26.9709992   4.3329978  14.5250014
  25.5829992   3.7729978  14.7540014  26.3940374   3.9282665  15.0306710
  28.0169992   9.3209978  15.4160014  28.7679992   9.1649978  14.8430014
  27.6779992  10.1729978  15.1410014  28.0739587   9.4148138  15.3004078
  32.4329992   7.1359978  20.4450014  32.6249992   6.2049978  20.3330014
  33.2909992   7.5609978  20.4340014  32.5752182   7.0660070  20.4281862
  33.7499992   9.9249978  18.5220014  33.4679992  10.6339978  17.9440014
  34.6919992   9.8519978  18.3710014  33.8387921  10.0122193  18.4224225
  24.5019992   6.7099978  19.5950014  23.7339992   6.1769978  19.3850014
  25.1799992   6.3999978  18.9960014  24.4887235   6.5951754  19.4852413
  27.2409992   1.3379978  15.6080014  27.1429992   2.2839978  15.5030014
  26.4989992   0.9649978  15.1320014  27.1272534   1.4171773  15.5292600
  28.5049992   5.6589978  19.1720014  28.2699992   5.4399978  20.0730014
  27.7219992   5.4519978  18.6620014  28.3669095   5.6009892  19.2265353
  31.2209992   4.7869978  18.2470014  30.2729992   4.8189978  18.3790014
  31.5329992   4.1609978  18.9010014  31.1335293   4.7067923  18.3534148
  32.8549992   3.4209978  20.2520014  32.7579992   2.4689978  20.2470014
  32.5329992   3.6889978  21.1130014  32.7982468   3.3270884  20.3676210
  22.6819992   4.6299978  19.3000014  22.8939992   3.9239978  18.6900014
  22.5709992   4.1929978  20.1440014  22.6960269   4.4741921  19.3305873
  27.4629992   0.6319978  18.2790014  28.1749992  -0.0080022  18.2650014
  27.3619992   0.8979978  17.3660014  27.5467387   0.5804330  18.1535563
  27.8169992   2.3139978  20.3330014  27.6849992   1.8389978  19.5130014
  27.2169992   3.0589978  20.2780014  27.7179070   2.3495789  20.2133251
  27.3629992  19.1969978   3.5090014  28.2959992  19.3549978   3.6530014
  27.0989992  19.8729978   2.8840014  27.4549911  19.3099373   3.4442722
  20.9309992  13.8339978   2.9920014  21.8449992  13.9129978   3.2650014
  20.9389992  13.1469978   2.3260014  21.0570655  13.7519205   2.9392917
  19.5799992  19.2269978   8.0690014  18.9329992  18.7649978   7.5370014
  19.9349992  18.5549978   8.6520014  19.5393741  19.0729774   8.0749175
  20.4499992  17.3069978   9.8740014  20.1159992  16.4269978  10.0460014
  20.6729992  17.6529978  10.7390014  20.4343721  17.2331938  10.0144168
  37.9989992  18.1169978  12.8550014  37.9769992  18.3019978  13.7940014
  38.6889992  18.6849978  12.5140014  38.0893439  18.2191887  12.9374791
  37.5619992  17.6839978  15.7760014  37.0749992  16.9489978  15.4050014
  38.1109992  17.2899978  16.4540014  37.5695247  17.5301057  15.8168461
  36.0129992  13.4739978  20.4150014  35.1469992  13.3689978  20.8090014
  36.3889992  14.2319978  20.8610014  35.9453401  13.5621708  20.5292620
  37.3139992  11.7299978   5.9290014  38.1639992  12.1509978   6.0560014
  37.3189992  10.9899978   6.5360014  37.4311143  11.6876094   6.0284750
  37.7079992   9.7839978   7.7520014  36.9819992   9.3039978   8.1500014
  38.2899992   9.9889978   8.4850014  37.6872730   9.7460184   7.9054149
  37.4669992  12.5689978  12.7000014  38.3009992  12.1909978  12.4190014
  37.5789992  13.5119978  12.5810014  37.5961917  12.6447943  12.6454861
  35.9539992  15.4469978  15.0070014  35.3059992  15.7719978  15.6320014
  35.4359992  15.0059978  14.3330014  35.7954196  15.4318651  15.0014152
  37.9769992   9.6849978   4.1430014  37.4549992  10.0409978   3.4250014
  37.9439992  10.3599978   4.8220014  37.9010129   9.8249598   4.1363355
  36.3259992   6.9239978   2.6940014  36.4219992   7.5909978   2.0140014
  36.1859992   6.1089978   2.2130014  36.3202040   6.9050671   2.5358378
  35.4949992   8.3049978   8.3150014  35.3449992   7.3599978   8.2950014
  35.1409992   8.5859978   9.1590014  35.4266351   8.2136644   8.4263220
  20.5299992  10.3829978  12.3260014  20.7149992  10.3009978  11.3900014
  21.3799992  10.2589978  12.7490014  20.6700928  10.3550463  12.2552893
  36.3509992  10.2749978  17.9540014  36.9339992   9.5399978  18.1460014
  36.9149992  11.0469978  18.0010014  36.5069781  10.2788145  17.9866164
  37.8479992   8.1779978  18.6390014  36.9849992   7.7989978  18.4730014
  38.4519992   7.4389978  18.5640014  37.8116085   8.0263223  18.6061695
  35.5729992   4.3319978   1.8120014  36.1839992   3.9609978   2.4490014
  34.7359992   3.9109978   2.0080014  35.5434947   4.2242756   1.9257252
  35.2059992   5.8869978   6.7780014  35.4849992   4.9799978   6.9020014
  35.9649992   6.3209978   6.3890014  35.3468619   5.8214502   6.7423795
  35.8169992   6.4689978  12.2140014  36.7499992   6.6809978  12.1790014
  35.5819992   6.5699978  13.1360014  35.9129517   6.5116833  12.3339130
  35.8469992   7.2059978  14.9900014  35.0039992   7.4739978  15.3560014
  36.2889992   8.0279978  14.7790014  35.7914138   7.3538273  15.0115518
  20.1279992   5.6529978  18.4660014  21.0469992   5.5309978  18.7030014
  19.6779992   4.9029978  18.8560014  20.1930087   5.5349608  18.5511410
  38.1299992   1.1859978  20.3430014  38.4789992   0.5319978  19.7380014
  38.2769992   2.0229978  19.9030014  38.1976824   1.2096024  20.2006304
  35.8189992   3.1499978   6.8260014  36.0009992   2.7009978   7.6510014
  35.2189992   2.5659978   6.3620014  35.7628187   3.0095552   6.8762739
  21.3489992   3.9659978  11.3580014  21.7939992   3.1739978  11.6600014
  21.8149992   4.6819978  11.7880014  21.4729718   3.9544534  11.4575265
  19.6529992   6.9649978  12.4270014  20.1449992   6.7439978  11.6360014
  20.0149992   7.8049978  12.7080014  19.7692923   7.0483468  12.3567407
  37.6489992   3.2949978  18.6920014  36.7319992   3.5659978  18.6570014
  37.7719992   2.7599978  17.9080014  37.5399672   3.2597885  18.5811862
  37.6859992   3.2179978   3.3540014  38.0979992   2.4969978   2.8790014
  38.3669992   3.8869978   3.4120014  37.8345536   3.2097766   3.2968024
  19.9669992   3.2229978   6.4810014  19.0419992   3.4309978   6.3520014
  20.4209992   3.7069978   5.7910014  19.9016298   3.3169299   6.3700451
  34.7369992  18.2069978   8.4270014  35.3899992  17.8589978   7.8190014
  35.2479992  18.6949978   9.0730014  34.8952777  18.2253815   8.4312047
  19.9299992   1.9609978  14.8250014  19.2649992   1.7149978  15.4680014
  19.4869992   2.5829978  14.2480014  19.7791168   2.0114214  14.8349848
  22.1219992  15.1359978  18.9700014  21.3009992  15.3109978  18.5090014
  21.8699992  15.0629978  19.8900014  21.9755594  15.1500717  19.0313611
  25.0759992  16.1099978  15.2280014  24.6519992  16.9199978  14.9460014
  25.9809992  16.1959978  14.9260014  25.1402138  16.2324160  15.1486415
  29.3879992  17.5089978  18.1880014  29.5719992  17.1759978  19.0660014
  30.2339992  17.8189978  17.8660014  29.5276484  17.5052979  18.2647617
  31.7329992  18.7949978  17.4320014  32.4099992  18.1619978  17.1920014
  32.0539992  19.1959978  18.2390014  31.8691323  18.7625691  17.5083158
  36.6499992   1.3849978  16.5110014  35.8369992   1.7099978  16.1240014
  36.8829992   0.6239978  15.9780014  36.5701347   1.3266880  16.3859841
  22.4779992  19.3669978  15.2760014  21.7579992  19.8069978  14.8250014
  22.1129992  19.1159978  16.1240014  22.3299643  19.3933369  15.3289129
  24.9449992  18.9669978  14.3060014  24.0809992  19.0389978  14.7100014
  24.8899992  19.5139978  13.5220014  24.8191942  19.0507849  14.2554000
  29.6559992  18.8549978  13.4810014  29.1989992  19.3839978  12.8270014
  29.8189992  19.4579978  14.2060014  29.6154960  19.0089280  13.4895274
  31.9839992  17.7329978  14.4260014  31.0789992  17.8979978  14.1600014
  32.4119992  18.5859978  14.3600014  31.9181537  17.8709134  14.3807095
  34.5879992  19.3029978  14.7210014  34.4059992  20.2189978  14.5100014
  34.7649992  18.8919978  13.8740014  34.5870030  19.3728273  14.5777166
  21.8929992  17.9899978  12.1860014  21.8749992  17.5639978  13.0430014
  22.6979992  17.6709978  11.7770014  21.9992875  17.8886435  12.2479515
  24.0339992  16.6999978  10.8410014  23.8149992  15.7829978  11.0110014
  24.8579992  16.8399978  11.3070014  24.1154702  16.5935511  10.9272527
  26.5709992  17.1699978  11.6900014  26.7839992  16.2819978  11.4030014
  26.6359992  17.1349978  12.6440014  26.6089149  17.0438326  11.7797369
  30.0799992   2.8339978  10.8340014  29.4059992   2.2039978  11.0900014
  30.6439992   2.3499978  10.2310014  30.0640384   2.6823708  10.7875020
  35.2229992   0.9409978  10.9470014  35.8259992   1.4889978  10.4450014
  34.3529992   1.2599978  10.7060014  35.1879157   1.0590373  10.8457910
  36.9499992   2.0799978   9.2800014  37.5609992   1.5659978   8.7530014
  37.3319992   2.9569978   9.3030014  37.0853305   2.1282050   9.2109418
  22.4069992   1.4679978   8.6560014  21.6299992   1.2329978   8.1490014
  22.9369992   0.6709978   8.6650014  22.3723451   1.3281268   8.5878627
  21.2429992   1.2659978   4.4600014  21.6819992   1.8769978   3.8680014
  20.6089992   1.8039978   4.9340014  21.2173859   1.4224064   4.4430305
  26.9859992   1.3939978   8.4690014  27.8599992   1.7829978   8.4400014
  26.8499992   1.1789978   9.3920014  27.0871953   1.4181643   8.5897617
  32.5429992   1.4239978  10.1190014  32.6189992   1.5199978   9.1690014
  32.2679992   0.5169978  10.2470014  32.5161871   1.3144146  10.0063944
  33.8959992   1.4499978   5.8110014  33.1929992   2.0649978   5.6010014
  33.4509992   0.6129978   5.9420014  33.7396550   1.4209668   5.7999837
  21.1439992  17.2139978   5.3570014  20.4589992  17.1759978   4.6900014
  21.1479992  18.1269978   5.6450014  21.0507621  17.3321924   5.3046126
  23.1039992   3.1819978   2.9020014  23.5949992   2.5519978   2.3750014
  23.7269992   3.4779978   3.5650014  23.2555304   3.1357376   2.9194940
  28.1299992   3.4749978   5.3590014  28.3079992   2.8279978   6.0420014
  28.0759992   4.3089978   5.8260014  28.1470678   3.4991604   5.5156301
  30.0079992  18.4229978   3.7550014  30.8739992  18.7899978   3.5770014
  29.7619992  17.9839978   2.9410014  30.0932097  18.4138525   3.6206019
  36.7169992  17.9859978   6.4340014  36.5229992  17.2379978   5.8690014
  36.6779992  18.7439978   5.8510014  36.6851645  17.9860786   6.2778148
  22.3639992   1.9819978  18.1740014  21.9979992   1.2159978  18.6160014
  23.2769992   2.0109978  18.4600014  22.4373172   1.8810324  18.2731890
  24.3369992   1.3319978  19.7090014  25.2359992   1.0579978  19.5250014
  23.9509992   0.5899978  20.1740014  24.4077307   1.1942196  19.7467098
  22.9619992  18.1339978   2.3820014  22.6939992  18.4199978   3.2560014
  23.7329992  17.5879978   2.5350014  23.0295926  18.0992779   2.5221205
  32.7589992   0.6649978  19.8920014  32.8349992   0.2389978  20.7450014
  33.6519992   0.6779978  19.5490014  32.8902303   0.6083493  19.9625497
  35.9349992  16.7379978  18.5840014  35.1529992  16.5509978  18.0640014
  35.8629992  17.6669978  18.8010014  35.8181924  16.8380637  18.5421602
  50.3409992  10.6239978   8.6150014  50.4299992  11.5679978   8.4830014
  49.7029992  10.3489978   7.9570014  50.2669062  10.7159812   8.5079641
  49.2739992   9.8789978  12.0340014  49.2359992   9.2329978  12.7390014
  48.9519992   9.4119978  11.2630014  49.2252679   9.7274276  12.0262921
  41.6419992   9.4929978  13.6270014  41.6839992   8.8679978  14.3500014
  42.3449992  10.1169978  13.8090014  41.7427345   9.4917873  13.7505274
  52.9799992  12.8179978  10.3350014  52.5389992  12.0979978  10.7860014
  52.9669992  13.5389978  10.9650014  52.9179215  12.8169291  10.4818105
  42.5659992  13.9429978  12.1620014  42.1959992  13.1409978  11.7920014
  43.5069992  13.7749978  12.2080014  42.6425984  13.8104638  12.1175603
  39.1759992   7.6029978   7.5540014  38.7279992   8.4489978   7.5360014
  38.6149992   7.0239978   7.0390014  39.0388546   7.6403993   7.4818891
  39.8859992   9.7649978   9.6800014  40.0999992   8.9949978  10.2080014
  40.6239992   9.8549978   9.0770014  40.0150200   9.6718587   9.6707035
  50.0919992  17.9219978  10.5470014  50.7109992  17.2459978  10.2740014
  49.8829992  17.7039978  11.4560014  50.1486056  17.7998869  10.6323967
  47.6629992  12.3109978  12.4400014  47.9669992  11.6249978  11.8450014
  48.3849992  12.4299978  13.0580014  47.8021240  12.2332314  12.4420959
  56.3259992   3.9129978  13.3000014  56.3759992   4.5229978  14.0360014
  56.7519992   4.3739978  12.5770014  56.3904108   4.0587709  13.3030112
  50.8039992   6.7049978  12.7670014  50.9469992   5.7589978  12.7870014
  50.6979992   6.9119978  11.8390014  50.8092403   6.6034797  12.6442239
  43.9589992   4.8069978  10.0400014  44.0019992   5.6669978   9.6210014
  43.5009992   4.2549978   9.4060014  43.9029871   4.8499245   9.8970761
  51.6809992   4.9379978   8.4410014  52.3279992   4.6089978   9.0650014
  52.1909992   5.4549978   7.8180014  51.8384351   4.9629067   8.4421037
  40.5789992   7.2039978  10.8020014  41.2329992   6.6539978  11.2340014
  40.6029992   6.9299978   9.8850014  40.6717199   7.0917167  10.7371668
  45.7359992   8.7539978  10.0170014  46.3519992   8.2269978  10.5260014
  45.1489992   8.1139978   9.6130014  45.7410154   8.5953954  10.0320945
  56.7179992   5.3909978  15.5360014  56.0289992   6.0489978  15.4410014
  56.7329992   5.1929978  16.4730014  56.6257756   5.4542603  15.6495812
  42.7689992   3.7249978  14.1140014  42.5499992   4.2549978  13.3470014
  42.1009992   3.9509978  14.7610014  42.6486975   3.8280967  14.0965140
  50.1379992  13.2249978   7.6580014  49.8429992  12.9019978   6.8060014
  49.8139992  14.1249978   7.6990014  50.0538460  13.3024464   7.5469714
  45.3379992  11.3999978  14.4010014  44.5979992  11.9989978  14.5050014
  46.0519992  11.9539978  14.0860014  45.3333500  11.5567829  14.3726371
  53.4449992   4.2289978  10.4210014  53.2299992   3.4629978  10.9540014
  54.1009992   4.7009978  10.9340014  53.5042673   4.1880728  10.5631990
  42.3629992   5.6169978  12.0660014  42.9769992   6.2499978  12.4390014
  42.8749992   5.1449978  11.4100014  42.5161962   5.6397249  12.0282935
  43.7459992  13.3649978  15.1880014  43.7399992  14.2439978  14.8100014
  42.8919992  13.2809978  15.6130014  43.6297925  13.4739535  15.1936887
  39.8669992  13.0359978   5.9700014  39.5949992  13.2649978   5.0820014
  39.9119992  13.8729978   6.4310014  39.8358097  13.1806163   5.9106683
  53.4919992  14.6569978  12.6830014  52.5499992  14.7159978  12.8450014
  53.7679992  15.5629978  12.5460014  53.4005865  14.7875288  12.6866192
  53.7919992   2.9439978  14.1000014  53.0559992   3.5539978  14.0630014
  54.4759992   3.3589978  13.5740014  53.7835367   3.0837551  14.0238174
  46.7959992   1.0299978  11.5660014  46.6779992   0.0819978  11.5120014
  45.9409992   1.3629978  11.8390014  46.6642805   0.9452202  11.5955079
  51.7439992  16.4379978   9.3080014  52.1689992  15.7309978   8.8230014
  52.0609992  17.2399978   8.8910014  51.8450266  16.4495190   9.1852479
  52.9039992  14.3389978   7.8170014  52.6459992  13.6489978   7.2050014
  52.9749992  13.8959978   8.6620014  52.8783050  14.1846814   7.8475621
  54.5899992  12.9059978  16.2940014  54.7289992  12.3139978  15.5550014
  54.7569992  13.7789978  15.9380014  54.6316193  12.9428896  16.1446211
  49.0619992   9.8679978   6.0670014  48.3509992  10.4029978   5.7150014
  49.7529992   9.9229978   5.4070014  49.0580751   9.9486777   5.9295858
  49.1159992   8.3249978   3.1050014  49.8169992   8.3479978   3.7570014
  49.4179992   7.6969978   2.4490014  49.2528202   8.2432212   3.1055609
  56.4309992   9.2459978  14.3600014  55.7789992   9.9399978  14.4490014
  56.8969992   9.4559978  13.5500014  56.4045937   9.3695019  14.2627533
  52.4679992  10.0769978   7.0180014  51.7359992  10.3059978   7.5920014
  52.9149992   9.3639978   7.4730014  52.4283963  10.0118729   7.1579945
  52.3649992   8.2519978  16.0860014  52.4449992   9.0149978  16.6580014
  51.7639992   8.5309978  15.3960014  52.2946547   8.3942457  16.0710047
  44.1129992  10.7079978   8.9010014  43.7829992  10.3369978   8.0830014
  44.7019992  10.0369978   9.2480014  44.1473970  10.5666063   8.8359404
  45.4799992  14.1359978  11.5820014  45.3849992  13.5569978  10.8260014
  46.2089992  13.7649978  12.0780014  45.5656011  14.0065561  11.5456028
  44.4799992   9.4759978  12.5340014  45.0449992   9.5979978  11.7720014
  44.7989992  10.1139978  13.1730014  44.6004166   9.5788791  12.5160348
  50.7889992  14.9799978  13.2680014  50.5489992  15.6419978  13.9160014
  50.5909992  14.1449978  13.6930014  50.7293826  14.9578115  13.4141566
  45.3599992  13.8759978  17.2520014  45.0489992  14.6579978  17.7070014
  44.7099992  13.7229978  16.5660014  45.2295538  13.9624087  17.2215898
  51.3389992   9.2399978   4.7040014  51.9179992   9.3899978   5.4500014
  51.7529992   9.7099978   3.9800014  51.4743358   9.3240955   4.7083953
  42.2799992  10.0739978  16.4800014  42.3499992  10.7249978  17.1790014
  41.3889992  10.1769978  16.1450014  42.1691690  10.1769249  16.5303043
  49.0649992  15.9759978   8.1390014  49.5389992  16.2719978   8.9160014
  48.5019992  16.7149978   7.9060014  49.0537890  16.1163036   8.2138101
  43.5989992  15.9469978  18.0150014  43.6069992  15.8109978  17.0680014
  42.6829992  15.8299978  18.2670014  43.4762528  15.9125463  17.9193243
  55.0379992   0.9899978   4.5170014  54.1379992   1.1289978   4.8120014
  55.2899992   1.8209978   4.1150014  54.9488683   1.1214055   4.5030232
  43.1039992   9.7769978   6.4900014  42.8119992  10.5449978   5.9990014
  42.4289992   9.1179978   6.3270014  42.9728497   9.7929745   6.4008260
  56.2269992  15.3559978   2.8930014  56.2999992  16.2949978   3.0630014
  57.1319992  15.0509978   2.8370014  56.3594170  15.4433282   2.9087063
  39.1969992  12.1399978  15.3050014  38.6949992  12.1119978  14.4900014
  39.2019992  11.2349978  15.6150014  39.1289832  12.0137486  15.2354121
  38.9469992  14.9209978  12.1890014  39.8929992  14.7759978  12.1700014
  38.8339992  15.7049978  12.7260014  39.0613578  15.0071697  12.2590317
  57.1449992  15.5869978  17.8720014  57.0949992  14.6309978  17.8340014
  56.3179992  15.8539978  18.2730014  57.0263831  15.4924680  17.9210121
  48.1229992  15.1609978  16.7480014  48.2109992  15.9869978  17.2230014
  47.2599992  14.8309978  16.9970014  48.0183357  15.2295468  16.8467653
  48.5379992  18.9329978   6.5540014  48.4619992  18.8119978   5.6070014
  48.5699992  19.8819978   6.6720014  48.5319380  19.0447677   6.4405181
  42.1909992  17.7219978   8.3350014  42.3429992  17.3739978   9.2130014
  41.3399992  17.3649978   8.0790014  42.0968344  17.6260879   8.4206868
  51.6389992  18.0869978   3.5560014  52.0139992  17.3429978   3.0850014
  51.6439992  17.8169978   4.4740014  51.6910098  17.9486392   3.6156629
  51.3079992  18.0129978   6.3050014  50.3729992  18.1129978   6.4840014
  51.5879992  17.3029978   6.8840014  51.2179471  17.9307933   6.4076695
  54.2969992   7.0799978  18.3520014  53.8889992   7.5599978  17.6310014
  54.3369992   6.1739978  18.0440014  54.2466221   7.0232449  18.2118267
  41.4459992  13.4639978  16.3480014  41.6619992  13.1019978  17.2080014
  40.5899992  13.0889978  16.1390014  41.3598810  13.3638837  16.4372680
  44.0639992   1.9339978  12.3440014  43.2029992   1.8469978  11.9360014
  44.0419992   2.7899978  12.7720014  43.9430491   2.0378003  12.3459582
  48.7269992   1.6559978  15.7190014  49.1469992   1.2409978  16.4720014
  47.7939992   1.4769978  15.8360014  48.6583736   1.5749910  15.8378968
  52.0539992   5.4109978  16.5720014  51.5399992   5.2859978  17.3700014
  51.8979992   6.3239978  16.3280014  51.9626967   5.5172123  16.6480937
  52.8159992  10.2719978   2.3330014  52.8579992  10.0499978   1.4030014
  53.6649992  10.6709978   2.5230014  52.9365253  10.2955498   2.2313822
  48.3889992   4.1479978   3.0040014  48.1349992   4.1669978   3.9260014
  48.1319992   3.2769978   2.7020014  48.3194508   4.0328280   3.0894803
  44.1549992   6.8989978  13.4390014  43.5139992   6.8589978  14.1480014
  44.1929992   7.8259978  13.2010014  44.0723010   7.0187668  13.5039946
  44.1519992   7.1199978   8.3510014  43.2599992   6.7799978   8.2920014
  44.6029992   6.7429978   7.5950014  44.0907642   7.0224910   8.2407726
  49.6879992   7.5359978   7.1680014  49.2789992   8.3509978   6.8760014
  50.4079992   7.3959978   6.5540014  49.7294439   7.6285372   7.0450115
  48.7899992   7.7119978  18.6560014  48.2269992   7.0069978  18.9770014
  49.6159992   7.5909978  19.1240014  48.8246674   7.5992165  18.7631751
  50.6929992   6.9819978   9.9820014  50.4969992   7.5879978   9.2670014
  50.8739992   6.1489978   9.5480014  50.6906584   6.9522513   9.8254212
  41.9049992   7.2199978  15.3060014  41.8669992   7.6199978  16.1750014
  41.4149992   6.4029978  15.3960014  41.8335330   7.1642674  15.4371289
  45.2709992   4.5939978   2.1050014  44.8399992   4.1489978   2.8340014
  44.5529992   4.9649978   1.5920014  45.1149176   4.5832051   2.1354930
  38.5139992   4.3359978   9.1570014  39.1439992   4.3069978   9.8760014
  38.9629992   3.9109978   8.4260014  38.6610835   4.2745660   9.1567659
  39.7879992   5.0819978   4.5810014  40.2619992   5.6729978   3.9960014
  39.0699992   5.6119978   4.9280014  39.7558640   5.2345511   4.5477969
  49.9569992   8.6199978  14.6530014  50.2799992   7.9889978  14.0100014
  49.5159992   8.0859978  15.3140014  49.9416379   8.4613468  14.6542582
  46.7339992   4.5479978   9.4370014  45.8229992   4.6049978   9.7260014
  47.2389992   4.4879978  10.2480014  46.6776873   4.5476826   9.5861207
  41.5619992   6.1769978   8.2640014  40.6729992   6.2759978   7.9240014
  41.8589992   5.3349978   7.9180014  41.4804177   6.0767687   8.1706940
  45.2149992   6.1769978   5.9210014  46.1469992   6.3059978   6.0990014
  44.9999992   6.8459978   5.2710014  45.3134472   6.2850806   5.8574891
  51.1389992   3.7829978  12.7020014  50.4619992   3.9139978  13.3650014
  50.6539992   3.6279978  11.8910014  50.9807405   3.7799947  12.6832170
  43.8889992   7.3709978   3.4870014  43.3469992   6.9919978   2.7960014
  44.7229992   7.5659978   3.0590014  43.9274390   7.3454079   3.3344392
  54.4269992  19.4539978  18.9780014  54.6259992  19.8779978  18.1440014
  55.0819992  19.7979978  19.5850014  54.5428522  19.5586301  18.9457852
  42.0249992  11.9279978  18.5860014  42.7569992  12.1829978  19.1480014
  41.2439992  12.1329978  19.1020014  42.0196526  11.9905450  18.7325176
  48.0539992   7.3349978  11.3240014  48.6179992   6.7889978  10.7770014
  47.9059992   6.8139978  12.1130014  48.1113037   7.1896787  11.3557229
  43.0559992   3.4719978   7.7430014  42.7389992   2.5689978   7.7070014
  43.8369992   3.4739978   7.1900014  43.1182431   3.3487797   7.6633102
  46.6799992   5.7239978  13.7380014  45.8449992   6.1779978  13.8490014
  47.2039992   5.9999978  14.4900014  46.6366072   5.8233948  13.8548136
  47.2249992  11.9369978   5.4230014  46.4799992  11.4289978   5.1010014
  47.0899992  11.9859978   6.3690014  47.1048963  11.8741731   5.5068826
  54.3749992  11.0699978  14.2100014  55.0159992  11.5259978  13.6660014
  53.5439992  11.1829978  13.7470014  54.3505287  11.1476921  14.0729887
  51.1219992   4.7509978   3.6220014  50.1839992   4.8619978   3.4710014
  51.4199992   5.6069978   3.9290014  51.0336318   4.8820158   3.6428145
  48.7439992  12.1209978  16.6600014  48.3979992  11.7389978  17.4670014
  48.5439992  13.0539978  16.7310014  48.6695987  12.1949002  16.7800461
  51.8409992   6.6179978   5.2830014  52.7329992   6.4799978   5.6020014
  51.8969992   7.4089978   4.7460014  51.9707325   6.7059918   5.2541217
  42.3489992  11.2319978  11.1930014  43.0939992  11.2289978  10.5910014
  42.4269992  10.4079978  11.6740014  42.4613365  11.1202384  11.1757430
  49.3499992  13.3949978   4.4480014  49.0549992  14.2219978   4.8300014
  48.6469992  12.7759978   4.6450014  49.2146379  13.4244171   4.5268654
  39.3569992   9.6919978  16.5080014  39.5799992   9.2739978  17.3390014
  38.7549992   9.0799978  16.0850014  39.3061513   9.5519606  16.5646740
  46.3739992   9.2089978  18.7210014  46.0779992   9.0439978  17.8250014
  47.3049992   8.9889978  18.7100014  46.4594401   9.1566879  18.5970206
  50.9939992  14.5829978  16.6100014  50.0939992  14.7659978  16.3430014
  51.0279992  14.8419978  17.5310014  50.8753748  14.6430554  16.6979164
  56.7259992   6.8269978   4.9780014  56.1709992   6.4309978   4.3050014
  56.8259992   7.7379978   4.7000014  56.6636816   6.8959505   4.8485033
  56.6889992  12.6279978  17.8150014  55.8379992  12.8659978  17.4470014
  57.2789992  12.6109978  17.0620014  56.6523812  12.6582524  17.6628453
  55.0209992  15.6129978   5.4430014  54.6479992  14.7879978   5.7520014
  55.2979992  15.4299978   4.5450014  55.0073463  15.4752569   5.3639525
  52.1809992  10.4209978  12.4640014  51.2529992  10.1899978  12.4370014
  52.6319992   9.6439978  12.1340014  52.1148165  10.2842774  12.4156790
  44.7239992  14.7499978   8.5970014  45.2519992  15.5229978   8.3970014
  43.8439992  14.9739978   8.2950014  44.6773435  14.8862700   8.5287310
  40.4789992   9.6119978   3.1840014  41.0949992  10.2389978   3.5640014
  39.6169992   9.9279978   3.4560014  40.4467678   9.7404412   3.2727209
  46.1519992  12.4129978   8.1730014  45.9109992  13.3379978   8.2150014
  45.4109992  11.9539978   8.5700014  46.0189206  12.4775915   8.2323769
  46.6659992  16.5619978  14.4880014  47.0289992  17.4159978  14.2550014
  47.1979992  16.2699978  15.2290014  46.7875141  16.6393895  14.5562097
  44.8349992  17.4339978   7.7190014  43.8849992  17.5399978   7.7700014
  45.1869992  18.2549978   8.0630014  44.7525472  17.5594923   7.7724852
  50.2099992  12.6609978  14.1890014  49.7849992  12.4329978  15.0150014
  50.7909992  11.9219978  14.0070014  50.2303395  12.5299545  14.2774414
  52.4129992  13.5899978   3.2630014  52.7669992  13.2099978   4.0670014
  51.4649992  13.4959978   3.3500014  52.3332298  13.5252452   3.3848687
  52.8689992  17.2129978  16.6580014  52.2669992  16.6569978  16.1630014
  53.1499992  17.8799978  16.0320014  52.8245757  17.2270744  16.5055675
  56.9169992  18.0689978   3.4640014  57.6609992  18.6549978   3.3240014
  56.2229992  18.6379978   3.7970014  56.9249809  18.2260818   3.4898590
  40.9909992   4.4459978  16.0660014  40.0989992   4.7839978  15.9980014
  40.8929992   3.5899978  16.4840014  40.8554475   4.3766543  16.1131704
  53.2789992  12.2619978   5.4900014  53.0019992  11.5339978   6.0460014
  54.2069992  12.3809978   5.6950014  53.3664499  12.1784213   5.5938044
  40.6429992  16.2499978  14.5010014  40.8599992  15.3179978  14.4700014
  40.8889992  16.5249978  15.3840014  40.7059809  16.1595686  14.6161691
  46.5039992  14.7019978   1.7100014  46.7429992  13.9529978   1.1630014
  46.2349992  14.3139978   2.5430014  46.5003233  14.5471853   1.7477809
  45.4409992  14.2719978   4.1660014  45.5879992  13.7519978   4.9560014
  45.4379992  15.1789978   4.4730014  45.4607102  14.3233953   4.3155925
  41.8939992  11.5239978   4.6770014  41.2079992  11.8769978   5.2440014
  42.4169992  12.2869978   4.4300014  41.8708402  11.6753901   4.7211801
  49.7259992   4.1869978  14.9560014  50.4249992   4.2609978  15.6060014
  49.3449992   3.3219978  15.1100014  49.7702097   4.0802389  15.0657997
  50.5099992   3.8389978   6.0530014  50.7299992   4.3099978   5.2490014
  51.0689992   4.2329978   6.7230014  50.6156731   3.9567287   6.0335033
  48.1789992  15.9689978   4.9160014  47.3619992  16.4659978   4.9680014
  48.7079992  16.4449978   4.2750014  48.1388125  16.1011989   4.8365306
  47.7099992   5.5669978   6.8880014  48.5219992   6.0709978   6.9340014
  47.4659992   5.4219978   7.8020014  47.7881467   5.6163749   7.0178575
  48.2459992   6.5529978  16.0720014  48.3649992   7.1269978  16.8290014
  48.9009992   5.8649978  16.1870014  48.3508684   6.5385194  16.1911674
  48.5939992   2.6479978   7.8260014  48.2469992   3.2649978   8.4700014
  49.2529992   3.1489978   7.3440014  48.6355090   2.8001575   7.8490681
  45.5169992  17.0129978   4.8970014  45.6779992  17.8129978   4.3970014
  45.3199992  17.3199978   5.7820014  45.5123906  17.1638678   4.9482333
  44.2519992   3.7109978   4.5130014  44.1679992   4.5989978   4.8600014
  45.1419992   3.4459978   4.7450014  44.3608163   3.7967179   4.5918596
  54.4499992   4.4599978  16.9070014  53.5339992   4.7219978  16.8200014
  54.7859992   4.4569978  16.0110014  54.3698499   4.4955163  16.7738766
  53.0529992   8.2099978  11.0030014  52.2549992   7.7949978  10.6750014
  53.4979992   7.5199978  11.4940014  53.0039684   8.0598628  11.0245227
  42.5099992  14.1379978   3.5730014  43.1019992  14.8379978   3.8500014
  42.9689992  13.7049978   2.8540014  42.6531652  14.1752675   3.5136533
  40.8259992   6.8029978   2.6890014  40.7809992   7.7419978   2.8680014
  39.9379992   6.5669978   2.4200014  40.6998166   6.8996687   2.6771524
  54.1389992  17.4659978  12.6250014  53.9829992  18.1449978  11.9680014
  55.0719992  17.5379978  12.8280014  54.2437387  17.5686390  12.5625342
  41.6339992   1.5839978  11.3630014  41.4049992   1.6429978  10.4350014
  41.1919992   0.7929978  11.6690014  41.5428801   1.4850540  11.2774729
  40.5649992  15.5249978   7.5230014  39.7319992  15.9969978   7.5500014
  41.1099992  16.0349978   6.9240014  40.5247857  15.6584791   7.4457142
  39.8529992  18.1369978  18.8530014  40.3929992  17.9209978  19.6130014
  39.3719992  17.3319978  18.6630014  39.8619219  17.9985156  18.9314282
  44.4499992  17.0569978  20.4730014  45.2179992  16.5979978  20.8140014
  44.4289992  16.8309978  19.5430014  44.5522135  16.9636668  20.3939491
  48.5419992  16.5649978   1.8490014  47.8979992  15.9339978   2.1700014
  49.3039992  16.0339978   1.6170014  48.5568058  16.4067902   1.8616038
  51.0269992  15.4369978  19.2020014  50.6759992  14.5799978  19.4460014
  51.7529992  15.5789978  19.8090014  51.0771895  15.3391351  19.3173770
  53.1469992  16.3819978   2.0820014  53.4299992  15.5869978   2.5350014
  53.8859992  16.6149978   1.5210014  53.2857096  16.3047049   2.0681104
  39.7599992  11.9479978  19.8070014  39.9039992  11.0459978  19.5210014
  38.9879992  12.2339978  19.3200014  39.6752733  11.8631798  19.7019532
  44.1009992  12.2909978   1.9400014  44.1659992  11.4969978   2.4700014
  44.7539992  12.1729978   1.2500014  44.1981605  12.1663430   1.9192997
  46.4149992  11.9169978  19.2400014  46.0869992  12.1879978  18.3830014
  46.5669992  10.9759978  19.1520014  46.3906412  11.8269046  19.1107822
  49.4539992  13.3379978   1.6760014  49.1849992  13.5189978   2.5760014
  49.2469992  12.4129978   1.5440014  49.3891191  13.2377119   1.7815524
  52.1499992  11.8329978  16.6230014  52.8949992  12.4219978  16.5040014
  51.3929992  12.4149978  16.6870014  52.1495470  11.9922128  16.6153799
  40.5929992   9.1479978  19.2270014  41.0009992   8.2909978  19.1060014
  40.3319992   9.1619978  20.1480014  40.6136016   9.0325119  19.3349192
  45.2509992  10.2639978   4.2460014  44.7909992   9.7799978   4.9310014
  45.5059992   9.5949978   3.6100014  45.2224856  10.1073669   4.2538397
  44.5399992   8.1569978  16.6020014  43.9209992   8.8309978  16.8820014
  44.8839992   8.4779978  15.7680014  44.5017123   8.2926887  16.5276388
  46.3219992   8.5069978   2.5080014  46.1409992   8.3519978   1.5810014
  47.2719992   8.6149978   2.5530014  46.4256566   8.5003669   2.3870929
  49.5589992  10.6279978  19.8790014  50.5129992  10.7119978  19.8520014
  49.3989992   9.9159978  20.4990014  49.6677182  10.5432842  19.9590733
  55.7119992  10.8609978   1.9540014  55.4379992  10.4369978   1.1410014
  55.7509992  11.7929978   1.7370014  55.6797716  10.9288827   1.8134286
  44.8789992   5.5119978  17.6840014  45.0289992   4.7829978  17.0820014
  44.8809992   6.2889978  17.1250014  44.8997967   5.5172708  17.5260541
  45.2919992   3.8809978  15.1770014  45.8269992   4.3329978  14.5250014
  44.4389992   3.7729978  14.7540014  45.2500374   3.9282665  15.0306710
  46.8729992   9.3209978  15.4160014  47.6239992   9.1649978  14.8430014
  46.5339992  10.1729978  15.1410014  46.9299587   9.4148138  15.3004078
  51.2889992   7.1359978  20.4450014  51.4809992   6.2049978  20.3330014
  52.1469992   7.5609978  20.4340014  51.4312182   7.0660070  20.4281862
  52.6059992   9.9249978  18.5220014  52.3239992  10.6339978  17.9440014
  53.5479992   9.8519978  18.3710014  52.6947921  10.0122193  18.4224225
  43.3579992   6.7099978  19.5950014  42.5899992   6.1769978  19.3850014
  44.0359992   6.3999978  18.9960014  43.3447235   6.5951754  19.4852413
  46.0969992   1.3379978  15.6080014  45.9989992   2.2839978  15.5030014
  45.3549992   0.9649978  15.1320014  45.9832534   1.4171773  15.5292600
  47.3609992   5.6589978  19.1720014  47.1259992   5.4399978  20.0730014
  46.5779992   5.4519978  18.6620014  47.2229095   5.6009892  19.2265353
  50.0769992   4.7869978  18.2470014  49.1289992   4.8189978  18.3790014
  50.3889992   4.1609978  18.9010014  49.9895293   4.7067923  18.3534148
  51.7109992   3.4209978  20.2520014  51.6139992   2.4689978  20.2470014
  51.3889992   3.6889978  21.1130014  51.6542468   3.3270884  20.3676210
  41.5379992   4.6299978  19.3000014  41.7499992   3.9239978  18.6900014
  41.4269992   4.1929978  20.1440014  41.5520269   4.4741921  19.3305873
  46.3189992   0.6319978  18.2790014  47.0309992  -0.0080022  18.2650014
  46.2179992   0.8979978  17.3660014  46.4027387   0.5804330  18.1535563
  46.6729992   2.3139978  20.3330014  46.5409992   1.8389978  19.5130014
  46.0729992   3.0589978  20.2780014  46.5739070   2.3495789  20.2133251
  46.2189992  19.1969978   3.5090014  47.1519992  19.3549978   3.6530014
  45.9549992  19.8729978   2.8840014  46.3109911  19.3099373   3.4442722
  39.7869992  13.8339978   2.9920014  40.7009992  13.9129978   3.2650014
  39.7949992  13.1469978   2.3260014  39.9130655  13.7519205   2.9392917
  38.4359992  19.2269978   8.0690014  37.7889992  18.7649978   7.5370014
  38.7909992  18.5549978   8.6520014  38.3953741  19.0729774   8.0749175
  39.3059992  17.3069978   9.8740014  38.9719992  16.4269978  10.0460014
  39.5289992  17.6529978  10.7390014  39.2903721  17.2331938  10.0144168
  56.8549992  18.1169978  12.8550014  56.8329992  18.3019978  13.7940014
  57.5449992  18.6849978  12.5140014  56.9453439  18.2191887  12.9374791
  56.4179992  17.6839978  15.7760014  55.9309992  16.9489978  15.4050014
  56.9669992  17.2899978  16.4540014  56.4255247  17.5301057  15.8168461
  54.8689992  13.4739978  20.4150014  54.0029992  13.3689978  20.8090014
  55.2449992  14.2319978  20.8610014  54.8013401  13.5621708  20.5292620
  56.1699992  11.7299978   5.9290014  57.0199992  12.1509978   6.0560014
  56.1749992  10.9899978   6.5360014  56.2871143  11.6876094   6.0284750
  56.5639992   9.7839978   7.7520014  55.8379992   9.3039978   8.1500014
  57.1459992   9.9889978   8.4850014  56.5432730   9.7460184   7.9054149
  56.3229992  12.5689978  12.7000014  57.1569992  12.1909978  12.4190014
  56.4349992  13.5119978  12.5810014  56.4521917  12.6447943  12.6454861
  54.8099992  15.4469978  15.0070014  54.1619992  15.7719978  15.6320014
  54.2919992  15.0059978  14.3330014  54.6514196  15.4318651  15.0014152
  56.8329992   9.6849978   4.1430014  56.3109992  10.0409978   3.4250014
  56.7999992  10.3599978   4.8220014  56.7570129   9.8249598   4.1363355
  55.1819992   6.9239978   2.6940014  55.2779992   7.5909978   2.0140014
  55.0419992   6.1089978   2.2130014  55.1762040   6.9050671   2.5358378
  54.3509992   8.3049978   8.3150014  54.2009992   7.3599978   8.2950014
  53.9969992   8.5859978   9.1590014  54.2826351   8.2136644   8.4263220
  39.3859992  10.3829978  12.3260014  39.5709992  10.3009978  11.3900014
  40.2359992  10.2589978  12.7490014  39.5260928  10.3550463  12.2552893
  55.2069992  10.2749978  17.9540014  55.7899992   9.5399978  18.1460014
  55.7709992  11.0469978  18.0010014  55.3629781  10.2788145  17.9866164
  56.7039992   8.1779978  18.6390014  55.8409992   7.7989978  18.4730014
  57.3079992   7.4389978  18.5640014  56.6676085   8.0263223  18.6061695
  54.4289992   4.3319978   1.8120014  55.0399992   3.9609978   2.4490014
  53.5919992   3.9109978   2.0080014  54.3994947   4.2242756   1.9257252
  54.0619992   5.8869978   6.7780014  54.3409992   4.9799978   6.9020014
  54.8209992   6.3209978   6.3890014  54.2028619   5.8214502   6.7423795
  54.6729992   6.4689978  12.2140014  55.6059992   6.6809978  12.1790014
  54.4379992   6.5699978  13.1360014  54.7689517   6.5116833  12.3339130
  54.7029992   7.2059978  14.9900014  53.8599992   7.4739978  15.3560014
  55.1449992   8.0279978  14.7790014  54.6474138   7.3538273  15.0115518
  38.9839992   5.6529978  18.4660014  39.9029992   5.5309978  18.7030014
  38.5339992   4.9029978  18.8560014  39.0490087   5.5349608  18.5511410
  56.9859992   1.1859978  20.3430014  57.3349992   0.5319978  19.7380014
  57.1329992   2.0229978  19.9030014  57.0536824   1.2096024  20.2006304
  54.6749992   3.1499978   6.8260014  54.8569992   2.7009978   7.6510014
  54.0749992   2.5659978   6.3620014  54.6188187   3.0095552   6.8762739
  40.2049992   3.9659978  11.3580014  40.6499992   3.1739978  11.6600014
  40.6709992   4.6819978  11.7880014  40.3289718   3.9544534  11.4575265
  38.5089992   6.9649978  12.4270014  39.0009992   6.7439978  11.6360014
  38.8709992   7.8049978  12.7080014  38.6252923   7.0483468  12.3567407
  56.5049992   3.2949978  18.6920014  55.5879992   3.5659978  18.6570014
  56.6279992   2.7599978  17.9080014  56.3959672   3.2597885  18.5811862
  56.5419992   3.2179978   3.3540014  56.9539992   2.4969978   2.8790014
  57.2229992   3.8869978   3.4120014  56.6905536   3.2097766   3.2968024
  38.8229992   3.2229978   6.4810014  37.8979992   3.4309978   6.3520014
  39.2769992   3.7069978   5.7910014  38.7576298   3.3169299   6.3700451
  53.5929992  18.2069978   8.4270014  54.2459992  17.8589978   7.8190014
  54.1039992  18.6949978   9.0730014  53.7512777  18.2253815   8.4312047
  38.7859992   1.9609978  14.8250014  38.1209992   1.7149978  15.4680014
  38.3429992   2.5829978  14.2480014  38.6351168   2.0114214  14.8349848
  40.9779992  15.1359978  18.9700014  40.1569992  15.3109978  18.5090014
  40.7259992  15.0629978  19.8900014  40.8315594  15.1500717  19.0313611
  43.9319992  16.1099978  15.2280014  43.5079992  16.9199978  14.9460014
  44.8369992  16.1959978  14.9260014  43.9962138  16.2324160  15.1486415
  48.2439992  17.5089978  18.1880014  48.4279992  17.1759978  19.0660014
  49.0899992  17.8189978  17.8660014  48.3836484  17.5052979  18.2647617
  50.5889992  18.7949978  17.4320014  51.2659992  18.1619978  17.1920014
  50.9099992  19.1959978  18.2390014  50.7251323  18.7625691  17.5083158
  55.5059992   1.3849978  16.5110014  54.6929992   1.7099978  16.1240014
  55.7389992   0.6239978  15.9780014  55.4261347   1.3266880  16.3859841
  41.3339992  19.3669978  15.2760014  40.6139992  19.8069978  14.8250014
  40.9689992  19.1159978  16.1240014  41.1859643  19.3933369  15.3289129
  43.8009992  18.9669978  14.3060014  42.9369992  19.0389978  14.7100014
  43.7459992  19.5139978  13.5220014  43.6751942  19.0507849  14.2554000
  48.5119992  18.8549978  13.4810014  48.0549992  19.3839978  12.8270014
  48.6749992  19.4579978  14.2060014  48.4714960  19.0089280  13.4895274
  50.8399992  17.7329978  14.4260014  49.9349992  17.8979978  14.1600014
  51.2679992  18.5859978  14.3600014  50.7741537  17.8709134  14.3807095
  53.4439992  19.3029978  14.7210014  53.2619992  20.2189978  14.5100014
  53.6209992  18.8919978  13.8740014  53.4430030  19.3728273  14.5777166
  40.7489992  17.9899978  12.1860014  40.7309992  17.5639978  13.0430014
  41.5539992  17.6709978  11.7770014  40.8552875  17.8886435  12.2479515
  42.8899992  16.6999978  10.8410014  42.6709992  15.7829978  11.0110014
  43.7139992  16.8399978  11.3070014  42.9714702  16.5935511  10.9272527
  45.4269992  17.1699978  11.6900014  45.6399992  16.2819978  11.4030014
  45.4919992  17.1349978  12.6440014  45.4649149  17.0438326  11.7797369
  48.9359992   2.8339978  10.8340014  48.2619992   2.2039978  11.0900014
  49.4999992   2.3499978  10.2310014  48.9200384   2.6823708  10.7875020
  54.0789992   0.9409978  10.9470014  54.6819992   1.4889978  10.4450014
  53.2089992   1.2599978  10.7060014  54.0439157   1.0590373  10.8457910
  55.8059992   2.0799978   9.2800014  56.4169992   1.5659978   8.7530014
  56.1879992   2.9569978   9.3030014  55.9413305   2.1282050   9.2109418
  41.2629992   1.4679978   8.6560014  40.4859992   1.2329978   8.1490014
  41.7929992   0.6709978   8.6650014  41.2283451   1.3281268   8.5878627
  40.0989992   1.2659978   4.4600014  40.5379992   1.8769978   3.8680014
  39.4649992   1.8039978   4.9340014  40.0733859   1.4224064   4.4430305
  45.8419992   1.3939978   8.4690014  46.7159992   1.7829978   8.4400014
  45.7059992   1.1789978   9.3920014  45.9431953   1.4181643   8.5897617
  51.3989992   1.4239978  10.1190014  51.4749992   1.5199978   9.1690014
  51.1239992   0.5169978  10.2470014  51.3721871   1.3144146  10.0063944
  52.7519992   1.4499978   5.8110014  52.0489992   2.0649978   5.6010014
  52.3069992   0.6129978   5.9420014  52.5956550   1.4209668   5.7999837
  39.9999992  17.2139978   5.3570014  39.3149992  17.1759978   4.6900014
  40.0039992  18.1269978   5.6450014  39.9067621  17.3321924   5.3046126
  41.9599992   3.1819978   2.9020014  42.4509992   2.5519978   2.3750014
  42.5829992   3.4779978   3.5650014  42.1115304   3.1357376   2.9194940
  46.9859992   3.4749978   5.3590014  47.1639992   2.8279978   6.0420014
  46.9319992   4.3089978   5.8260014  47.0030678   3.4991604   5.5156301
  48.8639992  18.4229978   3.7550014  49.7299992  18.7899978   3.5770014
  48.6179992  17.9839978   2.9410014  48.9492097  18.4138525   3.6206019
  55.5729992  17.9859978   6.4340014  55.3789992  17.2379978   5.8690014
  55.5339992  18.7439978   5.8510014  55.5411645  17.9860786   6.2778148
  41.2199992   1.9819978  18.1740014  40.8539992   1.2159978  18.6160014
  42.1329992   2.0109978  18.4600014  41.2933172   1.8810324  18.2731890
  43.1929992   1.3319978  19.7090014  44.0919992   1.0579978  19.5250014
  42.8069992   0.5899978  20.1740014  43.2637307   1.1942196  19.7467098
  41.8179992  18.1339978   2.3820014  41.5499992  18.4199978   3.2560014
  42.5889992  17.5879978   2.5350014  41.8855926  18.0992779   2.5221205
  51.6149992   0.6649978  19.8920014  51.6909992   0.2389978  20.7450014
  52.5079992   0.6779978  19.5490014  51.7462303   0.6083493  19.9625497
  54.7909992  16.7379978  18.5840014  54.0089992  16.5509978  18.0640014
  54.7189992  17.6669978  18.8010014  54.6741924  16.8380637  18.5421602
  69.1969992  10.6239978   8.6150014  69.2859992  11.5679978   8.4830014
  68.5589992  10.3489978   7.9570014  69.1229062  10.7159812   8.5079641
  68.1299992   9.8789978  12.0340014  68.0919992   9.2329978  12.7390014
  67.8079992   9.4119978  11.2630014  68.0812679   9.7274276  12.0262921
  60.4979992   9.4929978  13.6270014  60.5399992   8.8679978  14.3500014
  61.2009992  10.1169978  13.8090014  60.5987345   9.4917873  13.7505274
  71.8359992  12.8179978  10.3350014  71.3949992  12.0979978  10.7860014
  71.8229992  13.5389978  10.9650014  71.7739215  12.8169291  10.4818105
  61.4219992  13.9429978  12.1620014  61.0519992  13.1409978  11.7920014
  62.3629992  13.7749978  12.2080014  61.4985984  13.8104638  12.1175603
  58.0319992   7.6029978   7.5540014  57.5839992   8.4489978   7.5360014
  57.4709992   7.0239978   7.0390014  57.8948546   7.6403993   7.4818891
  58.7419992   9.7649978   9.6800014  58.9559992   8.9949978  10.2080014
  59.4799992   9.8549978   9.0770014  58.8710200   9.6718587   9.6707035
  68.9479992  17.9219978  10.5470014  69.5669992  17.2459978  10.2740014
  68.7389992  17.7039978  11.4560014  69.0046056  17.7998869  10.6323967
  66.5189992  12.3109978  12.4400014  66.8229992  11.6249978  11.8450014
  67.2409992  12.4299978  13.0580014  66.6581240  12.2332314  12.4420959
  75.1819992   3.9129978  13.3000014  75.2319992   4.5229978  14.0360014
  75.6079992   4.3739978  12.5770014  75.2464108   4.0587709  13.3030112
  69.6599992   6.7049978  12.7670014  69.8029992   5.7589978  12.7870014
  69.5539992   6.9119978  11.8390014  69.6652403   6.6034797  12.6442239
  62.8149992   4.8069978  10.0400014  62.8579992   5.6669978   9.6210014
  62.3569992   4.2549978   9.4060014  62.7589871   4.8499245   9.8970761
  70.5369992   4.9379978   8.4410014  71.1839992   4.6089978   9.0650014
  71.0469992   5.4549978   7.8180014  70.6944351   4.9629067   8.4421037
  59.4349992   7.2039978  10.8020014  60.0889992   6.6539978  11.2340014
  59.4589992   6.9299978   9.8850014  59.5277199   7.0917167  10.7371668
  64.5919992   8.7539978  10.0170014  65.2079992   8.2269978  10.5260014
  64.0049992   8.1139978   9.6130014  64.5970154   8.5953954  10.0320945
  75.5739992   5.3909978  15.5360014  74.8849992   6.0489978  15.4410014
  75.5889992   5.1929978  16.4730014  75.4817756   5.4542603  15.6495812
  61.6249992   3.7249978  14.1140014  61.4059992   4.2549978  13.3470014
  60.9569992   3.9509978  14.7610014  61.5046975   3.8280967  14.0965140
  68.9939992  13.2249978   7.6580014  68.6989992  12.9019978   6.8060014
  68.6699992  14.1249978   7.6990014  68.9098460  13.3024464   7.5469714
  64.1939992  11.3999978  14.4010014  63.4539992  11.9989978  14.5050014
  64.9079992  11.9539978  14.0860014  64.1893500  11.5567829  14.3726371
  72.3009992   4.2289978  10.4210014  72.0859992   3.4629978  10.9540014
  72.9569992   4.7009978  10.9340014  72.3602673   4.1880728  10.5631990
  61.2189992   5.6169978  12.0660014  61.8329992   6.2499978  12.4390014
  61.7309992   5.1449978  11.4100014  61.3721962   5.6397249  12.0282935
  62.6019992  13.3649978  15.1880014  62.5959992  14.2439978  14.8100014
  61.7479992  13.2809978  15.6130014  62.4857925  13.4739535  15.1936887
  58.7229992  13.0359978   5.9700014  58.4509992  13.2649978   5.0820014
  58.7679992  13.8729978   6.4310014  58.6918097  13.1806163   5.9106683
  72.3479992  14.6569978  12.6830014  71.4059992  14.7159978  12.8450014
  72.6239992  15.5629978  12.5460014  72.2565865  14.7875288  12.6866192
  72.6479992   2.9439978  14.1000014  71.9119992   3.5539978  14.0630014
  73.3319992   3.3589978  13.5740014  72.6395367   3.0837551  14.0238174
  65.6519992   1.0299978  11.5660014  65.5339992   0.0819978  11.5120014
  64.7969992   1.3629978  11.8390014  65.5202805   0.9452202  11.5955079
  70.5999992  16.4379978   9.3080014  71.0249992  15.7309978   8.8230014
  70.9169992  17.2399978   8.8910014  70.7010266  16.4495190   9.1852479
  71.7599992  14.3389978   7.8170014  71.5019992  13.6489978   7.2050014
  71.8309992  13.8959978   8.6620014  71.7343050  14.1846814   7.8475621
  73.4459992  12.9059978  16.2940014  73.5849992  12.3139978  15.5550014
  73.6129992  13.7789978  15.9380014  73.4876193  12.9428896  16.1446211
  67.9179992   9.8679978   6.0670014  67.2069992  10.4029978   5.7150014
  68.6089992   9.9229978   5.4070014  67.9140751   9.9486777   5.9295858
  67.9719992   8.3249978   3.1050014  68.6729992   8.3479978   3.7570014
  68.2739992   7.6969978   2.4490014  68.1088202   8.2432212   3.1055609
  75.2869992   9.2459978  14.3600014  74.6349992   9.9399978  14.4490014
  75.7529992   9.4559978  13.5500014  75.2605937   9.3695019  14.2627533
  71.3239992  10.0769978   7.0180014  70.5919992  10.3059978   7.5920014
  71.7709992   9.3639978   7.4730014  71.2843963  10.0118729   7.1579945
  71.2209992   8.2519978  16.0860014  71.3009992   9.0149978  16.6580014
  70.6199992   8.5309978  15.3960014  71.1506547   8.3942457  16.0710047
  62.9689992  10.7079978   8.9010014  62.6389992  10.3369978   8.0830014
  63.5579992  10.0369978   9.2480014  63.0033970  10.5666063   8.8359404
  64.3359992  14.1359978  11.5820014  64.2409992  13.5569978  10.8260014
  65.0649992  13.7649978  12.0780014  64.4216011  14.0065561  11.5456028
  63.3359992   9.4759978  12.5340014  63.9009992   9.5979978  11.7720014
  63.6549992  10.1139978  13.1730014  63.4564166   9.5788791  12.5160348
  69.6449992  14.9799978  13.2680014  69.4049992  15.6419978  13.9160014
  69.4469992  14.1449978  13.6930014  69.5853826  14.9578115  13.4141566
  64.2159992  13.8759978  17.2520014  63.9049992  14.6579978  17.7070014
  63.5659992  13.7229978  16.5660014  64.0855538  13.9624087  17.2215898
  70.1949992   9.2399978   4.7040014  70.7739992   9.3899978   5.4500014
  70.6089992   9.7099978   3.9800014  70.3303358   9.3240954   4.7083953
  61.1359992  10.0739978  16.4800014  61.2059992  10.7249978  17.1790014
  60.2449992  10.1769978  16.1450014  61.0251690  10.1769249  16.5303043
  67.9209992  15.9759978   8.1390014  68.3949992  16.2719978   8.9160014
  67.3579992  16.7149978   7.9060014  67.9097890  16.1163036   8.2138101
  62.4549992  15.9469978  18.0150014  62.4629992  15.8109978  17.0680014
  61.5389992  15.8299978  18.2670014  62.3322528  15.9125463  17.9193243
  73.8939992   0.9899978   4.5170014  72.9939992   1.1289978   4.8120014
  74.1459992   1.8209978   4.1150014  73.8048683   1.1214055   4.5030232
  61.9599992   9.7769978   6.4900014  61.6679992  10.5449978   5.9990014
  61.2849992   9.1179978   6.3270014  61.8288497   9.7929745   6.4008260
  75.0829992  15.3559978   2.8930014  75.1559992  16.2949978   3.0630014
  75.9879992  15.0509978   2.8370014  75.2154170  15.4433282   2.9087063
  58.0529992  12.1399978  15.3050014  57.5509992  12.1119978  14.4900014
  58.0579992  11.2349978  15.6150014  57.9849832  12.0137486  15.2354121
  57.8029992  14.9209978  12.1890014  58.7489992  14.7759978  12.1700014
  57.6899992  15.7049978  12.7260014  57.9173578  15.0071697  12.2590317
  76.0009992  15.5869978  17.8720014  75.9509992  14.6309978  17.8340014
  75.1739992  15.8539978  18.2730014  75.8823831  15.4924680  17.9210121
  66.9789992  15.1609978  16.7480014  67.0669992  15.9869978  17.2230014
  66.1159992  14.8309978  16.9970014  66.8743357  15.2295468  16.8467653
  67.3939992  18.9329978   6.5540014  67.3179992  18.8119978   5.6070014
  67.4259992  19.8819978   6.6720014  67.3879380  19.0447677   6.4405181
  61.0469992  17.7219978   8.3350014  61.1989992  17.3739978   9.2130014
  60.1959992  17.3649978   8.0790014  60.9528344  17.6260879   8.4206868
  70.4949992  18.0869978   3.5560014  70.8699992  17.3429978   3.0850014
  70.4999992  17.8169978   4.4740014  70.5470098  17.9486392   3.6156629
  70.1639992  18.0129978   6.3050014  69.2289992  18.1129978   6.4840014
  70.4439992  17.3029978   6.8840014  70.0739471  17.9307933   6.4076695
  73.1529992   7.0799978  18.3520014  72.7449992   7.5599978  17.6310014
  73.1929992   6.1739978  18.0440014  73.1026221   7.0232449  18.2118267
  60.3019992  13.4639978  16.3480014  60.5179992  13.1019978  17.2080014
  59.4459992  13.0889978  16.1390014  60.2158810  13.3638837  16.4372680
  62.9199992   1.9339978  12.3440014  62.0589992   1.8469978  11.9360014
  62.8979992   2.7899978  12.7720014  62.7990491   2.0378003  12.3459582
  67.5829992   1.6559978  15.7190014  68.0029992   1.2409978  16.4720014
  66.6499992   1.4769978  15.8360014  67.5143736   1.5749910  15.8378968
  70.9099992   5.4109978  16.5720014  70.3959992   5.2859978  17.3700014
  70.7539992   6.3239978  16.3280014  70.8186967   5.5172123  16.6480937
  71.6719992  10.2719978   2.3330014  71.7139992  10.0499978   1.4030014
  72.5209992  10.6709978   2.5230014  71.7925253  10.2955498   2.2313822
  67.2449992   4.1479978   3.0040014  66.9909992   4.1669978   3.9260014
  66.9879992   3.2769978   2.7020014  67.1754508   4.0328280   3.0894803
  63.0109992   6.8989978  13.4390014  62.3699992   6.8589978  14.1480014
  63.0489992   7.8259978  13.2010014  62.9283010   7.0187668  13.5039946
  63.0079992   7.1199978   8.3510014  62.1159992   6.7799978   8.2920014
  63.4589992   6.7429978   7.5950014  62.9467642   7.0224910   8.2407726
  68.5439992   7.5359978   7.1680014  68.1349992   8.3509978   6.8760014
  69.2639992   7.3959978   6.5540014  68.5854439   7.6285372   7.0450115
  67.6459992   7.7119978  18.6560014  67.0829992   7.0069978  18.9770014
  68.4719992   7.5909978  19.1240014  67.6806674   7.5992165  18.7631751
  69.5489992   6.9819978   9.9820014  69.3529992   7.5879978   9.2670014
  69.7299992   6.1489978   9.5480014  69.5466584   6.9522513   9.8254212
  60.7609992   7.2199978  15.3060014  60.7229992   7.6199978  16.1750014
  60.2709992   6.4029978  15.3960014  60.6895330   7.1642674  15.4371289
  64.1269992   4.5939978   2.1050014  63.6959992   4.1489978   2.8340014
  63.4089992   4.9649978   1.5920014  63.9709176   4.5832051   2.1354930
  57.3699992   4.3359978   9.1570014  57.9999992   4.3069978   9.8760014
  57.8189992   3.9109978   8.4260014  57.5170835   4.2745660   9.1567659
  58.6439992   5.0819978   4.5810014  59.1179992   5.6729978   3.9960014
  57.9259992   5.6119978   4.9280014  58.6118640   5.2345511   4.5477969
  68.8129992   8.6199978  14.6530014  69.1359992   7.9889978  14.0100014
  68.3719992   8.0859978  15.3140014  68.7976379   8.4613468  14.6542582
  65.5899992   4.5479978   9.4370014  64.6789992   4.6049978   9.7260014
  66.0949992   4.4879978  10.2480014  65.5336873   4.5476826   9.5861207
  60.4179992   6.1769978   8.2640014  59.5289992   6.2759978   7.9240014
  60.7149992   5.3349978   7.9180014  60.3364177   6.0767687   8.1706940
  64.0709992   6.1769978   5.9210014  65.0029992   6.3059978   6.0990014
  63.8559992   6.8459978   5.2710014  64.1694472   6.2850806   5.8574891
  69.9949992   3.7829978  12.7020014  69.3179992   3.9139978  13.3650014
  69.5099992   3.6279978  11.8910014  69.8367405   3.7799947  12.6832170
  62.7449992   7.3709978   3.4870014  62.2029992   6.9919978   2.7960014
  63.5789992   7.5659978   3.0590014  62.7834390   7.3454079   3.3344392
  73.2829992  19.4539978  18.9780014  73.4819992  19.8779978  18.1440014
  73.9379992  19.7979978  19.5850014  73.3988522  19.5586301  18.9457852
  60.8809992  11.9279978  18.5860014  61.6129992  12.1829978  19.1480014
  60.0999992  12.1329978  19.1020014  60.8756526  11.9905450  18.7325176
  66.9099992   7.3349978  11.3240014  67.4739992   6.7889978  10.7770014
  66.7619992   6.8139978  12.1130014  66.9673037   7.1896787  11.3557229
  61.9119992   3.4719978   7.7430014  61.5949992   2.5689978   7.7070014
  62.6929992   3.4739978   7.1900014  61.9742431   3.3487797   7.6633102
  65.5359992   5.7239978  13.7380014  64.7009992   6.1779978  13.8490014
  66.0599992   5.9999978  14.4900014  65.4926072   5.8233948  13.8548136
  66.0809992  11.9369978   5.4230014  65.3359992  11.4289978   5.1010014
  65.9459992  11.9859978   6.3690014  65.9608963  11.8741731   5.5068826
  73.2309992  11.0699978  14.2100014  73.8719992  11.5259978  13.6660014
  72.3999992  11.1829978  13.7470014  73.2065287  11.1476921  14.0729887
  69.9779992   4.7509978   3.6220014  69.0399992   4.8619978   3.4710014
  70.2759992   5.6069978   3.9290014  69.8896318   4.8820158   3.6428145
  67.5999992  12.1209978  16.6600014  67.2539992  11.7389978  17.4670014
  67.3999992  13.0539978  16.7310014  67.5255987  12.1949002  16.7800461
  70.6969992   6.6179978   5.2830014  71.5889992   6.4799978   5.6020014
  70.7529992   7.4089978   4.7460014  70.8267325   6.7059918   5.2541217
  61.2049992  11.2319978  11.1930014  61.9499992  11.2289978  10.5910014
  61.2829992  10.4079978  11.6740014  61.3173366  11.1202384  11.1757430
  68.2059992  13.3949978   4.4480014  67.9109992  14.2219978   4.8300014
  67.5029992  12.7759978   4.6450014  68.0706379  13.4244171   4.5268654
  58.2129992   9.6919978  16.5080014  58.4359992   9.2739978  17.3390014
  57.6109992   9.0799978  16.0850014  58.1621513   9.5519606  16.5646740
  65.2299992   9.2089978  18.7210014  64.9339992   9.0439978  17.8250014
  66.1609992   8.9889978  18.7100014  65.3154401   9.1566879  18.5970206
  69.8499992  14.5829978  16.6100014  68.9499992  14.7659978  16.3430014
  69.8839992  14.8419978  17.5310014  69.7313748  14.6430554  16.6979164
  75.5819992   6.8269978   4.9780014  75.0269992   6.4309978   4.3050014
  75.6819992   7.7379978   4.7000014  75.5196816   6.8959505   4.8485033
  75.5449992  12.6279978  17.8150014  74.6939992  12.8659978  17.4470014
  76.1349992  12.6109978  17.0620014  75.5083812  12.6582524  17.6628453
  73.8769992  15.6129978   5.4430014  73.5039992  14.7879978   5.7520014
  74.1539992  15.4299978   4.5450014  73.8633463  15.4752569   5.3639525
  71.0369992  10.4209978  12.4640014  70.1089992  10.1899978  12.4370014
  71.4879992   9.6439978  12.1340014  70.9708165  10.2842774  12.4156790
  63.5799992  14.7499978   8.5970014  64.1079992  15.5229978   8.3970014
  62.6999992  14.9739978   8.2950014  63.5333435  14.8862700   8.5287310
  59.3349992   9.6119978   3.1840014  59.9509992  10.2389978   3.5640014
  58.4729992   9.9279978   3.4560014  59.3027678   9.7404412   3.2727209
  65.0079992  12.4129978   8.1730014  64.7669992  13.3379978   8.2150014
  64.2669992  11.9539978   8.5700014  64.8749206  12.4775915   8.2323769
  65.5219992  16.5619978  14.4880014  65.8849992  17.4159978  14.2550014
  66.0539992  16.2699978  15.2290014  65.6435141  16.6393895  14.5562097
  63.6909992  17.4339978   7.7190014  62.7409992  17.5399978   7.7700014
  64.0429992  18.2549978   8.0630014  63.6085472  17.5594923   7.7724852
  69.0659992  12.6609978  14.1890014  68.6409992  12.4329978  15.0150014
  69.6469992  11.9219978  14.0070014  69.0863395  12.5299545  14.2774414
  71.2689992  13.5899978   3.2630014  71.6229992  13.2099978   4.0670014
  70.3209992  13.4959978   3.3500014  71.1892298  13.5252452   3.3848687
  71.7249992  17.2129978  16.6580014  71.1229992  16.6569978  16.1630014
  72.0059992  17.8799978  16.0320014  71.6805757  17.2270744  16.5055675
  75.7729992  18.0689978   3.4640014  76.5169992  18.6549978   3.3240014
  75.0789992  18.6379978   3.7970014  75.7809809  18.2260818   3.4898590
  59.8469992   4.4459978  16.0660014  58.9549992   4.7839978  15.9980014
  59.7489992   3.5899978  16.4840014  59.7114475   4.3766543  16.1131704
  72.1349992  12.2619978   5.4900014  71.8579992  11.5339978   6.0460014
  73.0629992  12.3809978   5.6950014  72.2224499  12.1784213   5.5938044
  59.4989992  16.2499978  14.5010014  59.7159992  15.3179978  14.4700014
  59.7449992  16.5249978  15.3840014  59.5619808  16.1595686  14.6161691
  65.3599992  14.7019978   1.7100014  65.5989992  13.9529978   1.1630014
  65.0909992  14.3139978   2.5430014  65.3563233  14.5471853   1.7477809
  64.2969992  14.2719978   4.1660014  64.4439992  13.7519978   4.9560014
  64.2939992  15.1789978   4.4730014  64.3167102  14.3233953   4.3155925
  60.7499992  11.5239978   4.6770014  60.0639992  11.8769978   5.2440014
  61.2729992  12.2869978   4.4300014  60.7268402  11.6753901   4.7211801
  68.5819992   4.1869978  14.9560014  69.2809992   4.2609978  15.6060014
  68.2009992   3.3219978  15.1100014  68.6262097   4.0802389  15.0657997
  69.3659992   3.8389978   6.0530014  69.5859992   4.3099978   5.2490014
  69.9249992   4.2329978   6.7230014  69.4716731   3.9567287   6.0335033
  67.0349992  15.9689978   4.9160014  66.2179992  16.4659978   4.9680014
  67.5639992  16.4449978   4.2750014  66.9948125  16.1011989   4.8365306
  66.5659992   5.5669978   6.8880014  67.3779992   6.0709978   6.9340014
  66.3219992   5.4219978   7.8020014  66.6441467   5.6163749   7.0178575
  67.1019992   6.5529978  16.0720014  67.2209992   7.1269978  16.8290014
  67.7569992   5.8649978  16.1870014  67.2068684   6.5385194  16.1911674
  67.4499992   2.6479978   7.8260014  67.1029992   3.2649978   8.4700014
  68.1089992   3.1489978   7.3440014  67.4915090   2.8001575   7.8490681
  64.3729992  17.0129978   4.8970014  64.5339992  17.8129978   4.3970014
  64.1759992  17.3199978   5.7820014  64.3683906  17.1638678   4.9482333
  63.1079992   3.7109978   4.5130014  63.0239992   4.5989978   4.8600014
  63.9979992   3.4459978   4.7450014  63.2168163   3.7967179   4.5918596
  73.3059992   4.4599978  16.9070014  72.3899992   4.7219978  16.8200014
  73.6419992   4.4569978  16.0110014  73.2258499   4.4955163  16.7738766
  71.9089992   8.2099978  11.0030014  71.1109992   7.7949978  10.6750014
  72.3539992   7.5199978  11.4940014  71.8599684   8.0598628  11.0245227
  61.3659992  14.1379978   3.5730014  61.9579992  14.8379978   3.8500014
  61.8249992  13.7049978   2.8540014  61.5091652  14.1752675   3.5136533
  59.6819992   6.8029978   2.6890014  59.6369992   7.7419978   2.8680014
  58.7939992   6.5669978   2.4200014  59.5558166   6.8996687   2.6771524
  72.9949992  17.4659978  12.6250014  72.8389992  18.1449978  11.9680014
  73.9279992  17.5379978  12.8280014  73.0997387  17.5686390  12.5625342
  60.4899992   1.5839978  11.3630014  60.2609992   1.6429978  10.4350014
  60.0479992   0.7929978  11.6690014  60.3988801   1.4850540  11.2774729
  59.4209992  15.5249978   7.5230014  58.5879992  15.9969978   7.5500014
  59.9659992  16.0349978   6.9240014  59.3807857  15.6584791   7.4457142
  58.7089992  18.1369978  18.8530014  59.2489992  17.9209978  19.6130014
  58.2279992  17.3319978  18.6630014  58.7179219  17.9985156  18.9314282
  63.3059992  17.0569978  20.4730014  64.0739992  16.5979978  20.8140014
  63.2849992  16.8309978  19.5430014  63.4082135  16.9636668  20.3939491
  67.3979992  16.5649978   1.8490014  66.7539992  15.9339978   2.1700014
  68.1599992  16.0339978   1.6170014  67.4128058  16.4067902   1.8616038
  69.8829992  15.4369978  19.2020014  69.5319992  14.5799978  19.4460014
  70.6089992  15.5789978  19.8090014  69.9331895  15.3391351  19.3173770
  72.0029992  16.3819978   2.0820014  72.2859992  15.5869978   2.5350014
  72.7419992  16.6149978   1.5210014  72.1417096  16.3047049   2.0681104
  58.6159992  11.9479978  19.8070014  58.7599992  11.0459978  19.5210014
  57.8439992  12.2339978  19.3200014  58.5312733  11.8631798  19.7019532
  62.9569992  12.2909978   1.9400014  63.0219992  11.4969978   2.4700014
  63.6099992  12.1729978   1.2500014  63.0541605  12.1663430   1.9192997
  65.2709992  11.9169978  19.2400014  64.9429992  12.1879978  18.3830014
  65.4229992  10.9759978  19.1520014  65.2466412  11.8269046  19.1107822
  68.3099992  13.3379978   1.6760014  68.0409992  13.5189978   2.5760014
  68.1029992  12.4129978   1.5440014  68.2451191  13.2377119   1.7815524
  71.0059992  11.8329978  16.6230014  71.7509992  12.4219978  16.5040014
  70.2489992  12.4149978  16.6870014  71.0055470  11.9922128  16.6153799
  59.4489992   9.1479978  19.2270014  59.8569992   8.2909978  19.1060014
  59.1879992   9.1619978  20.1480014  59.4696016   9.0325119  19.3349192
  64.1069992  10.2639978   4.2460014  63.6469992   9.7799978   4.9310014
  64.3619992   9.5949978   3.6100014  64.0784856  10.1073669   4.2538397
  63.3959992   8.1569978  16.6020014  62.7769992   8.8309978  16.8820014
  63.7399992   8.4779978  15.7680014  63.3577123   8.2926887  16.5276388
  65.1779992   8.5069978   2.5080014  64.9969992   8.3519978   1.5810014
  66.1279992   8.6149978   2.5530014  65.2816566   8.5003669   2.3870929
  68.4149992  10.6279978  19.8790014  69.3689992  10.7119978  19.8520014
  68.2549992   9.9159978  20.4990014  68.5237182  10.5432842  19.9590733
  74.5679992  10.8609978   1.9540014  74.2939992  10.4369978   1.1410014
  74.6069992  11.7929978   1.7370014  74.5357716  10.9288827   1.8134286
  63.7349992   5.5119978  17.6840014  63.8849992   4.7829978  17.0820014
  63.7369992   6.2889978  17.1250014  63.7557967   5.5172708  17.5260541
  64.1479992   3.8809978  15.1770014  64.6829992   4.3329978  14.5250014
  63.2949992   3.7729978  14.7540014  64.1060374   3.9282665  15.0306710
  65.7289992   9.3209978  15.4160014  66.4799992   9.1649978  14.8430014
  65.3899992  10.1729978  15.1410014  65.7859587   9.4148138  15.3004078
  70.1449992   7.1359978  20.4450014  70.3369992   6.2049978  20.3330014
  71.0029992   7.5609978  20.4340014  70.2872182   7.0660070  20.4281862
  71.4619992   9.9249978  18.5220014  71.1799992  10.6339978  17.9440014
  72.4039992   9.8519978  18.3710014  71.5507921  10.0122193  18.4224225
  62.2139992   6.7099978  19.5950014  61.4459992   6.1769978  19.3850014
  62.8919992   6.3999978  18.9960014  62.2007235   6.5951754  19.4852413
  64.9529992   1.3379978  15.6080014  64.8549992   2.2839978  15.5030014
  64.2109992   0.9649978  15.1320014  64.8392534   1.4171773  15.5292600
  66.2169992   5.6589978  19.1720014  65.9819992   5.4399978  20.0730014
  65.4339992   5.4519978  18.6620014  66.0789095   5.6009892  19.2265353
  68.9329992   4.7869978  18.2470014  67.9849992   4.8189978  18.3790014
  69.2449992   4.1609978  18.9010014  68.8455293   4.7067923  18.3534148
  70.5669992   3.4209978  20.2520014  70.4699992   2.4689978  20.2470014
  70.2449992   3.6889978  21.1130014  70.5102468   3.3270884  20.3676210
  60.3939992   4.6299978  19.3000014  60.6059992   3.9239978  18.6900014
  60.2829992   4.1929978  20.1440014  60.4080269   4.4741921  19.3305873
  65.1749992   0.6319978  18.2790014  65.8869992  -0.0080022  18.2650014
  65.0739992   0.8979978  17.3660014  65.2587387   0.5804330  18.1535563
  65.5289992   2.3139978  20.3330014  65.3969992   1.8389978  19.5130014
  64.9289992   3.0589978  20.2780014  65.4299070   2.3495789  20.2133251
  65.0749992  19.1969978   3.5090014  66.0079992  19.3549978   3.6530014
  64.8109992  19.8729978   2.8840014  65.1669911  19.3099373   3.4442722
  58.6429992  13.8339978   2.9920014  59.5569992  13.9129978   3.2650014
  58.6509992  13.1469978   2.3260014  58.7690655  13.7519205   2.9392917
  57.2919992  19.2269978   8.0690014  56.6449992  18.7649978   7.5370014
  57.6469992  18.5549978   8.6520014  57.2513741  19.0729774   8.0749175
  58.1619992  17.3069978   9.8740014  57.8279992  16.4269978  10.0460014
  58.3849992  17.6529978  10.7390014  58.1463721  17.2331938  10.0144168
  75.7109992  18.1169978  12.8550014  75.6889992  18.3019978  13.7940014
  76.4009992  18.6849978  12.5140014  75.8013439  18.2191887  12.9374791
  75.2739992  17.6839978  15.7760014  74.7869992  16.9489978  15.4050014
  75.8229992  17.2899978  16.4540014  75.2815247  17.5301057  15.8168461
  73.7249992  13.4739978  20.4150014  72.8589992  13.3689978  20.8090014
  74.1009992  14.2319978  20.8610014  73.6573401  13.5621708  20.5292620
  75.0259992  11.7299978   5.9290014  75.8759992  12.1509978   6.0560014
  75.0309992  10.9899978   6.5360014  75.1431143  11.6876094   6.0284750
  75.4199992   9.7839978   7.7520014  74.6939992   9.3039978   8.1500014
  76.0019992   9.9889978   8.4850014  75.3992730   9.7460184   7.9054149
  75.1789992  12.5689978  12.7000014  76.0129992  12.1909978  12.4190014
  75.2909992  13.5119978  12.5810014  75.3081917  12.6447943  12.6454861
  73.6659992  15.4469978  15.0070014  73.0179992  15.7719978  15.6320014
  73.1479992  15.0059978  14.3330014  73.5074196  15.4318651  15.0014152
  75.6889992   9.6849978   4.1430014  75.1669992  10.0409978   3.4250014
  75.6559992  10.3599978   4.8220014  75.6130129   9.8249598   4.1363355
  74.0379992   6.9239978   2.6940014  74.1339992   7.5909978   2.0140014
  73.8979992   6.1089978   2.2130014  74.0322040   6.9050671   2.5358378
  73.2069992   8.3049978   8.3150014  73.0569992   7.3599978   8.2950014
  72.8529992   8.5859978   9.1590014  73.1386351   8.2136644   8.4263220
  58.2419992  10.3829978  12.3260014  58.4269992  10.3009978  11.3900014
  59.0919992  10.2589978  12.7490014  58.3820928  10.3550463  12.2552893
  74.0629992  10.2749978  17.9540014  74.6459992   9.5399978  18.1460014
  74.6269992  11.0469978  18.0010014  74.2189781  10.2788145  17.9866164
  75.5599992   8.1779978  18.6390014  74.6969992   7.7989978  18.4730014
  76.1639992   7.4389978  18.5640014  75.5236085   8.0263223  18.6061695
  73.2849992   4.3319978   1.8120014  73.8959992   3.9609978   2.4490014
  72.4479992   3.9109978   2.0080014  73.2554947   4.2242756   1.9257252
  72.9179992   5.8869978   6.7780014  73.1969992   4.9799978   6.9020014
  73.6769992   6.3209978   6.3890014  73.0588619   5.8214502   6.7423795
  73.5289992   6.4689978  12.2140014  74.4619992   6.6809978  12.1790014
  73.2939992   6.5699978  13.1360014  73.6249517   6.5116833  12.3339130
  73.5589992   7.2059978  14.9900014  72.7159992   7.4739978  15.3560014
  74.0009992   8.0279978  14.7790014  73.5034138   7.3538273  15.0115518
  57.8399992   5.6529978  18.4660014  58.7589992   5.5309978  18.7030014
  57.3899992   4.9029978  18.8560014  57.9050087   5.5349608  18.5511410
  75.8419992   1.1859978  20.3430014  76.1909992   0.5319978  19.7380014
  75.9889992   2.0229978  19.9030014  75.9096824   1.2096024  20.2006304
  73.5309992   3.1499978   6.8260014  73.7129992   2.7009978   7.6510014
  72.9309992   2.5659978   6.3620014  73.4748187   3.0095552   6.8762739
  59.0609992   3.9659978  11.3580014  59.5059992   3.1739978  11.6600014
  59.5269992   4.6819978  11.7880014  59.1849718   3.9544534  11.4575265
  57.3649992   6.9649978  12.4270014  57.8569992   6.7439978  11.6360014
  57.7269992   7.8049978  12.7080014  57.4812923   7.0483468  12.3567407
  75.3609992   3.2949978  18.6920014  74.4439992   3.5659978  18.6570014
  75.4839992   2.7599978  17.9080014  75.2519672   3.2597885  18.5811862
  75.3979992   3.2179978   3.3540014  75.8099992   2.4969978   2.8790014
  76.0789992   3.8869978   3.4120014  75.5465536   3.2097766   3.2968024
  57.6789992   3.2229978   6.4810014  56.7539992   3.4309978   6.3520014
  58.1329992   3.7069978   5.7910014  57.6136298   3.3169299   6.3700451
  72.4489992  18.2069978   8.4270014  73.1019992  17.8589978   7.8190014
  72.9599992  18.6949978   9.0730014  72.6072777  18.2253815   8.4312047
  57.6419992   1.9609978  14.8250014  56.9769992   1.7149978  15.4680014
  57.1989992   2.5829978  14.2480014  57.4911168   2.0114214  14.8349848
  59.8339992  15.1359978  18.9700014  59.0129992  15.3109978  18.5090014
  59.5819992  15.0629978  19.8900014  59.6875594  15.1500717  19.0313611
  62.7879992  16.1099978  15.2280014  62.3639992  16.9199978  14.9460014
  63.6929992  16.1959978  14.9260014  62.8522138  16.2324160  15.1486415
  67.0999992  17.5089978  18.1880014  67.2839992  17.1759978  19.0660014
  67.9459992  17.8189978  17.8660014  67.2396484  17.5052979  18.2647617
  69.4449992  18.7949978  17.4320014  70.1219992  18.1619978  17.1920014
  69.7659992  19.1959978  18.2390014  69.5811323  18.7625691  17.5083158
  74.3619992   1.3849978  16.5110014  73.5489992   1.7099978  16.1240014
  74.5949992   0.6239978  15.9780014  74.2821347   1.3266880  16.3859841
  60.1899992  19.3669978  15.2760014  59.4699992  19.8069978  14.8250014
  59.8249992  19.1159978  16.1240014  60.0419643  19.3933369  15.3289129
  62.6569992  18.9669978  14.3060014  61.7929992  19.0389978  14.7100014
  62.6019992  19.5139978  13.5220014  62.5311942  19.0507849  14.2554000
  67.3679992  18.8549978  13.4810014  66.9109992  19.3839978  12.8270014
  67.5309992  19.4579978  14.2060014  67.3274960  19.0089280  13.4895274
  69.6959992  17.7329978  14.4260014  68.7909992  17.8979978  14.1600014
  70.1239992  18.5859978  14.3600014  69.6301537  17.8709134  14.3807095
  72.2999992  19.3029978  14.7210014  72.1179992  20.2189978  14.5100014
  72.4769992  18.8919978  13.8740014  72.2990030  19.3728273  14.5777166
  59.6049992  17.9899978  12.1860014  59.5869992  17.5639978  13.0430014
  60.4099992  17.6709978  11.7770014  59.7112875  17.8886435  12.2479515
  61.7459992  16.6999978  10.8410014  61.5269992  15.7829978  11.0110014
  62.5699992  16.8399978  11.3070014  61.8274702  16.5935511  10.9272527
  64.2829992  17.1699978  11.6900014  64.4959992  16.2819978  11.4030014
  64.3479992  17.1349978  12.6440014  64.3209149  17.0438326  11.7797369
  67.7919992   2.8339978  10.8340014  67.1179992   2.2039978  11.0900014
  68.3559992   2.3499978  10.2310014  67.7760384   2.6823708  10.7875020
  72.9349992   0.9409978  10.9470014  73.5379992   1.4889978  10.4450014
  72.0649992   1.2599978  10.7060014  72.8999157   1.0590373  10.8457910
  74.6619992   2.0799978   9.2800014  75.2729992   1.5659978   8.7530014
  75.0439992   2.9569978   9.3030014  74.7973305   2.1282050   9.2109418
  60.1189992   1.4679978   8.6560014  59.3419992   1.2329978   8.1490014
  60.6489992   0.6709978   8.6650014  60.0843451   1.3281268   8.5878627
  58.9549992   1.2659978   4.4600014  59.3939992   1.8769978   3.8680014
  58.3209992   1.8039978   4.9340014  58.9293859   1.4224064   4.4430305
  64.6979992   1.3939978   8.4690014  65.5719992   1.7829978   8.4400014
  64.5619992   1.1789978   9.3920014  64.7991953   1.4181643   8.5897617
  70.2549992   1.4239978  10.1190014  70.3309992   1.5199978   9.1690014
  69.9799992   0.5169978  10.2470014  70.2281871   1.3144146  10.0063944
  71.6079992   1.4499978   5.8110014  70.9049992   2.0649978   5.6010014
  71.1629992   0.6129978   5.9420014  71.4516550   1.4209668   5.7999837
  58.8559992  17.2139978   5.3570014  58.1709992  17.1759978   4.6900014
  58.8599992  18.1269978   5.6450014  58.7627621  17.3321924   5.3046126
  60.8159992   3.1819978   2.9020014  61.3069992   2.5519978   2.3750014
  61.4389992   3.4779978   3.5650014  60.9675304   3.1357376   2.9194940
  65.8419992   3.4749978   5.3590014  66.0199992   2.8279978   6.0420014
  65.7879992   4.3089978   5.8260014  65.8590678   3.4991604   5.5156301
  67.7199992  18.4229978   3.7550014  68.5859992  18.7899978   3.5770014
  67.4739992  17.9839978   2.9410014  67.8052097  18.4138525   3.6206019
  74.4289992  17.9859978   6.4340014  74.2349992  17.2379978   5.8690014
  74.3899992  18.7439978   5.8510014  74.3971645  17.9860786   6.2778148
  60.0759992   1.9819978  18.1740014  59.7099992   1.2159978  18.6160014
  60.9889992   2.0109978  18.4600014  60.1493172   1.8810324  18.2731890
  62.0489992   1.3319978  19.7090014  62.9479992   1.0579978  19.5250014
  61.6629992   0.5899978  20.1740014  62.1197307   1.1942196  19.7467098
  60.6739992  18.1339978   2.3820014  60.4059992  18.4199978   3.2560014
  61.4449992  17.5879978   2.5350014  60.7415926  18.0992779   2.5221205
  70.4709992   0.6649978  19.8920014  70.5469992   0.2389978  20.7450014
  71.3639992   0.6779978  19.5490014  70.6022303   0.6083493  19.9625497
  73.6469992  16.7379978  18.5840014  72.8649992  16.5509978  18.0640014
  73.5749992  17.6669978  18.8010014  73.5301924  16.8380637  18.5421602
  88.0529992  10.6239978   8.6150014  88.1419992  11.5679978   8.4830014
  87.4149992  10.3489978   7.9570014  87.9789062  10.7159812   8.5079641
  86.9859992   9.8789978  12.0340014  86.9479992   9.2329978  12.7390014
  86.6639992   9.4119978  11.2630014  86.9372679   9.7274276  12.0262921
  79.3539992   9.4929978  13.6270014  79.3959992   8.8679978  14.3500014
  80.0569992  10.1169978  13.8090014  79.4547345   9.4917873  13.7505274
  90.6919992  12.8179978  10.3350014  90.2509992  12.0979978  10.7860014
  90.6789992  13.5389978  10.9650014  90.6299215  12.8169291  10.4818105
  80.2779992  13.9429978  12.1620014  79.9079992  13.1409978  11.7920014
  81.2189992  13.7749978  12.2080014  80.3545984  13.8104638  12.1175603
  76.8879992   7.6029978   7.5540014  76.4399992   8.4489978   7.5360014
  76.3269992   7.0239978   7.0390014  76.7508546   7.6403993   7.4818891
  77.5979992   9.7649978   9.6800014  77.8119992   8.9949978  10.2080014
  78.3359992   9.8549978   9.0770014  77.7270200   9.6718587   9.6707035
  87.8039992  17.9219978  10.5470014  88.4229992  17.2459978  10.2740014
  87.5949992  17.7039978  11.4560014  87.8606056  17.7998869  10.6323967
  85.3749992  12.3109978  12.4400014  85.6789992  11.6249978  11.8450014
  86.0969992  12.4299978  13.0580014  85.5141240  12.2332314  12.4420959
  94.0379992   3.9129978  13.3000014  94.0879992   4.5229978  14.0360014
  94.4639992   4.3739978  12.5770014  94.1024108   4.0587709  13.3030112
  88.5159992   6.7049978  12.7670014  88.6589992   5.7589978  12.7870014
  88.4099992   6.9119978  11.8390014  88.5212403   6.6034797  12.6442239
  81.6709992   4.8069978  10.0400014  81.7139992   5.6669978   9.6210014
  81.2129992   4.2549978   9.4060014  81.6149871   4.8499245   9.8970761
  89.3929992   4.9379978   8.4410014  90.0399992   4.6089978   9.0650014
  89.9029992   5.4549978   7.8180014  89.5504351   4.9629067   8.4421037
  78.2909992   7.2039978  10.8020014  78.9449992   6.6539978  11.2340014
  78.3149992   6.9299978   9.8850014  78.3837199   7.0917167  10.7371668
  83.4479992   8.7539978  10.0170014  84.0639992   8.2269978  10.5260014
  82.8609992   8.1139978   9.6130014  83.4530154   8.5953954  10.0320945
  94.4299992   5.3909978  15.5360014  93.7409992   6.0489978  15.4410014
  94.4449992   5.1929978  16.4730014  94.3377756   5.4542603  15.6495812
  80.4809992   3.7249978  14.1140014  80.2619992   4.2549978  13.3470014
  79.8129992   3.9509978  14.7610014  80.3606975   3.8280967  14.0965140
  87.8499992  13.2249978   7.6580014  87.5549992  12.9019978   6.8060014
  87.5259992  14.1249978   7.6990014  87.7658460  13.3024464   7.5469714
  83.0499992  11.3999978  14.4010014  82.3099992  11.9989978  14.5050014
  83.7639992  11.9539978  14.0860014  83.0453500  11.5567829  14.3726371
  91.1569992   4.2289978  10.4210014  90.9419992   3.4629978  10.9540014
  91.8129992   4.7009978  10.9340014  91.2162673   4.1880728  10.5631990
  80.0749992   5.6169978  12.0660014  80.6889992   6.2499978  12.4390014
  80.5869992   5.1449978  11.4100014  80.2281962   5.6397249  12.0282935
  81.4579992  13.3649978  15.1880014  81.4519992  14.2439978  14.8100014
  80.6039992  13.2809978  15.6130014  81.3417925  13.4739535  15.1936887
  77.5789992  13.0359978   5.9700014  77.3069992  13.2649978   5.0820014
  77.6239992  13.8729978   6.4310014  77.5478097  13.1806163   5.9106683
  91.2039992  14.6569978  12.6830014  90.2619992  14.7159978  12.8450014
  91.4799992  15.5629978  12.5460014  91.1125865  14.7875288  12.6866192
  91.5039992   2.9439978  14.1000014  90.7679992   3.5539978  14.0630014
  92.1879992   3.3589978  13.5740014  91.4955367   3.0837551  14.0238174
  84.5079992   1.0299978  11.5660014  84.3899992   0.0819978  11.5120014
  83.6529992   1.3629978  11.8390014  84.3762805   0.9452202  11.5955079
  89.4559992  16.4379978   9.3080014  89.8809992  15.7309978   8.8230014
  89.7729992  17.2399978   8.8910014  89.5570266  16.4495190   9.1852479
  90.6159992  14.3389978   7.8170014  90.3579992  13.6489978   7.2050014
  90.6869992  13.8959978   8.6620014  90.5903050  14.1846814   7.8475621
  92.3019992  12.9059978  16.2940014  92.4409992  12.3139978  15.5550014
  92.4689992  13.7789978  15.9380014  92.3436193  12.9428896  16.1446211
  86.7739992   9.8679978   6.0670014  86.0629992  10.4029978   5.7150014
  87.4649992   9.9229978   5.4070014  86.7700751   9.9486777   5.9295858
  86.8279992   8.3249978   3.1050014  87.5289992   8.3479978   3.7570014
  87.1299992   7.6969978   2.4490014  86.9648202   8.2432212   3.1055609
  94.1429992   9.2459978  14.3600014  93.4909992   9.9399978  14.4490014
  94.6089992   9.4559978  13.5500014  94.1165937   9.3695019  14.2627533
  90.1799992  10.0769978   7.0180014  89.4479992  10.3059978   7.5920014
  90.6269992   9.3639978   7.4730014  90.1403963  10.0118729   7.1579945
  90.0769992   8.2519978  16.0860014  90.1569992   9.0149978  16.6580014
  89.4759992   8.5309978  15.3960014  90.0066547   8.3942457  16.0710047
  81.8249992  10.7079978   8.9010014  81.4949992  10.3369978   8.0830014
  82.4139992  10.0369978   9.2480014  81.8593970  10.5666063   8.8359404
  83.1919992  14.1359978  11.5820014  83.0969992  13.5569978  10.8260014
  83.9209992  13.7649978  12.0780014  83.2776011  14.0065561  11.5456028
  82.1919992   9.4759978  12.5340014  82.7569992   9.5979978  11.7720014
  82.5109992  10.1139978  13.1730014  82.3124166   9.5788791  12.5160348
  88.5009992  14.9799978  13.2680014  88.2609992  15.6419978  13.9160014
  88.3029992  14.1449978  13.6930014  88.4413826  14.9578115  13.4141566
  83.0719992  13.8759978  17.2520014  82.7609992  14.6579978  17.7070014
  82.4219992  13.7229978  16.5660014  82.9415538  13.9624087  17.2215898
  89.0509992   9.2399978   4.7040014  89.6299992   9.3899978   5.4500014
  89.4649992   9.7099978   3.9800014  89.1863358   9.3240954   4.7083953
  79.9919992  10.0739978  16.4800014  80.0619992  10.7249978  17.1790014
  79.1009992  10.1769978  16.1450014  79.8811690  10.1769249  16.5303043
  86.7769992  15.9759978   8.1390014  87.2509992  16.2719978   8.9160014
  86.2139992  16.7149978   7.9060014  86.7657890  16.1163036   8.2138101
  81.3109992  15.9469978  18.0150014  81.3189992  15.8109978  17.0680014
  80.3949992  15.8299978  18.2670014  81.1882528  15.9125463  17.9193243
  92.7499992   0.9899978   4.5170014  91.8499992   1.1289978   4.8120014
  93.0019992   1.8209978   4.1150014  92.6608683   1.1214055   4.5030232
  80.8159992   9.7769978   6.4900014  80.5239992  10.5449978   5.9990014
  80.1409992   9.1179978   6.3270014  80.6848497   9.7929745   6.4008260
  93.9389992  15.3559978   2.8930014  94.0119992  16.2949978   3.0630014
  94.8439992  15.0509978   2.8370014  94.0714170  15.4433282   2.9087063
  76.9089992  12.1399978  15.3050014  76.4069992  12.1119978  14.4900014
  76.9139992  11.2349978  15.6150014  76.8409832  12.0137486  15.2354121
  76.6589992  14.9209978  12.1890014  77.6049992  14.7759978  12.1700014
  76.5459992  15.7049978  12.7260014  76.7733578  15.0071697  12.2590317
  94.8569992  15.5869978  17.8720014  94.8069992  14.6309978  17.8340014
  94.0299992  15.8539978  18.2730014  94.7383831  15.4924680  17.9210121
  85.8349992  15.1609978  16.7480014  85.9229992  15.9869978  17.2230014
  84.9719992  14.8309978  16.9970014  85.7303357  15.2295468  16.8467653
  86.2499992  18.9329978   6.5540014  86.1739992  18.8119978   5.6070014
  86.2819992  19.8819978   6.6720014  86.2439380  19.0447677   6.4405181
  79.9029992  17.7219978   8.3350014  80.0549992  17.3739978   9.2130014
  79.0519992  17.3649978   8.0790014  79.8088344  17.6260879   8.4206868
  89.3509992  18.0869978   3.5560014  89.7259992  17.3429978   3.0850014
  89.3559992  17.8169978   4.4740014  89.4030098  17.9486392   3.6156629
  89.0199992  18.0129978   6.3050014  88.0849992  18.1129978   6.4840014
  89.2999992  17.3029978   6.8840014  88.9299471  17.9307933   6.4076695
  92.0089992   7.0799978  18.3520014  91.6009992   7.5599978  17.6310014
  92.0489992   6.1739978  18.0440014  91.9586221   7.0232449  18.2118267
  79.1579992  13.4639978  16.3480014  79.3739992  13.1019978  17.2080014
  78.3019992  13.0889978  16.1390014  79.0718810  13.3638837  16.4372680
  81.7759992   1.9339978  12.3440014  80.9149992   1.8469978  11.9360014
  81.7539992   2.7899978  12.7720014  81.6550491   2.0378003  12.3459582
  86.4389992   1.6559978  15.7190014  86.8589992   1.2409978  16.4720014
  85.5059992   1.4769978  15.8360014  86.3703736   1.5749910  15.8378968
  89.7659992   5.4109978  16.5720014  89.2519992   5.2859978  17.3700014
  89.6099992   6.3239978  16.3280014  89.6746967   5.5172123  16.6480937
  90.5279992  10.2719978   2.3330014  90.5699992  10.0499978   1.4030014
  91.3769992  10.6709978   2.5230014  90.6485253  10.2955498   2.2313822
  86.1009992   4.1479978   3.0040014  85.8469992   4.1669978   3.9260014
  85.8439992   3.2769978   2.7020014  86.0314508   4.0328280   3.0894803
  81.8669992   6.8989978  13.4390014  81.2259992   6.8589978  14.1480014
  81.9049992   7.8259978  13.2010014  81.7843010   7.0187668  13.5039946
  81.8639992   7.1199978   8.3510014  80.9719992   6.7799978   8.2920014
  82.3149992   6.7429978   7.5950014  81.8027642   7.0224910   8.2407726
  87.3999992   7.5359978   7.1680014  86.9909992   8.3509978   6.8760014
  88.1199992   7.3959978   6.5540014  87.4414439   7.6285372   7.0450115
  86.5019992   7.7119978  18.6560014  85.9389992   7.0069978  18.9770014
  87.3279992   7.5909978  19.1240014  86.5366674   7.5992165  18.7631751
  88.4049992   6.9819978   9.9820014  88.2089992   7.5879978   9.2670014
  88.5859992   6.1489978   9.5480014  88.4026584   6.9522513   9.8254212
  79.6169992   7.2199978  15.3060014  79.5789992   7.6199978  16.1750014
  79.1269992   6.4029978  15.3960014  79.5455330   7.1642674  15.4371289
  82.9829992   4.5939978   2.1050014  82.5519992   4.1489978   2.8340014
  82.2649992   4.9649978   1.5920014  82.8269176   4.5832051   2.1354930
  76.2259992   4.3359978   9.1570014  76.8559992   4.3069978   9.8760014
  76.6749992   3.9109978   8.4260014  76.3730835   4.2745660   9.1567659
  77.4999992   5.0819978   4.5810014  77.9739992   5.6729978   3.9960014
  76.7819992   5.6119978   4.9280014  77.4678640   5.2345511   4.5477969
  87.6689992   8.6199978  14.6530014  87.9919992   7.9889978  14.0100014
  87.2279992   8.0859978  15.3140014  87.6536379   8.4613468  14.6542582
  84.4459992   4.5479978   9.4370014  83.5349992   4.6049978   9.7260014
  84.9509992   4.4879978  10.2480014  84.3896873   4.5476826   9.5861207
  79.2739992   6.1769978   8.2640014  78.3849992   6.2759978   7.9240014
  79.5709992   5.3349978   7.9180014  79.1924177   6.0767687   8.1706940
  82.9269992   6.1769978   5.9210014  83.8589992   6.3059978   6.0990014
  82.7119992   6.8459978   5.2710014  83.0254472   6.2850806   5.8574891
  88.8509992   3.7829978  12.7020014  88.1739992   3.9139978  13.3650014
  88.3659992   3.6279978  11.8910014  88.6927405   3.7799947  12.6832170
  81.6009992   7.3709978   3.4870014  81.0589992   6.9919978   2.7960014
  82.4349992   7.5659978   3.0590014  81.6394390   7.3454079   3.3344392
  92.1389992  19.4539978  18.9780014  92.3379992  19.8779978  18.1440014
  92.7939992  19.7979978  19.5850014  92.2548522  19.5586301  18.9457852
  79.7369992  11.9279978  18.5860014  80.4689992  12.1829978  19.1480014
  78.9559992  12.1329978  19.1020014  79.7316526  11.9905450  18.7325176
  85.7659992   7.3349978  11.3240014  86.3299992   6.7889978  10.7770014
  85.6179992   6.8139978  12.1130014  85.8233037   7.1896787  11.3557229
  80.7679992   3.4719978   7.7430014  80.4509992   2.5689978   7.7070014
  81.5489992   3.4739978   7.1900014  80.8302431   3.3487797   7.6633102
  84.3919992   5.7239978  13.7380014  83.5569992   6.1779978  13.8490014
  84.9159992   5.9999978  14.4900014  84.3486072   5.8233948  13.8548136
  84.9369992  11.9369978   5.4230014  84.1919992  11.4289978   5.1010014
  84.8019992  11.9859978   6.3690014  84.8168963  11.8741731   5.5068826
  92.0869992  11.0699978  14.2100014  92.7279992  11.5259978  13.6660014
  91.2559992  11.1829978  13.7470014  92.0625287  11.1476921  14.0729887
  88.8339992   4.7509978   3.6220014  87.8959992   4.8619978   3.4710014
  89.1319992   5.6069978   3.9290014  88.7456318   4.8820158   3.6428145
  86.4559992  12.1209978  16.6600014  86.1099992  11.7389978  17.4670014
  86.2559992  13.0539978  16.7310014  86.3815987  12.1949002  16.7800461
  89.5529992   6.6179978   5.2830014  90.4449992   6.4799978   5.6020014
  89.6089992   7.4089978   4.7460014  89.6827325   6.7059918   5.2541217
  80.0609992  11.2319978  11.1930014  80.8059992  11.2289978  10.5910014
  80.1389992  10.4079978  11.6740014  80.1733365  11.1202384  11.1757430
  87.0619992  13.3949978   4.4480014  86.7669992  14.2219978   4.8300014
  86.3589992  12.7759978   4.6450014  86.9266379  13.4244171   4.5268654
  77.0689992   9.6919978  16.5080014  77.2919992   9.2739978  17.3390014
  76.4669992   9.0799978  16.0850014  77.0181513   9.5519606  16.5646740
  84.0859992   9.2089978  18.7210014  83.7899992   9.0439978  17.8250014
  85.0169992   8.9889978  18.7100014  84.1714401   9.1566879  18.5970206
  88.7059992  14.5829978  16.6100014  87.8059992  14.7659978  16.3430014
  88.7399992  14.8419978  17.5310014  88.5873748  14.6430554  16.6979164
  94.4379992   6.8269978   4.9780014  93.8829992   6.4309978   4.3050014
  94.5379992   7.7379978   4.7000014  94.3756816   6.8959505   4.8485033
  94.4009992  12.6279978  17.8150014  93.5499992  12.8659978  17.4470014
  94.9909992  12.6109978  17.0620014  94.3643812  12.6582524  17.6628453
  92.7329992  15.6129978   5.4430014  92.3599992  14.7879978   5.7520014
  93.0099992  15.4299978   4.5450014  92.7193463  15.4752569   5.3639525
  89.8929992  10.4209978  12.4640014  88.9649992  10.1899978  12.4370014
  90.3439992   9.6439978  12.1340014  89.8268165  10.2842774  12.4156790
  82.4359992  14.7499978   8.5970014  82.9639992  15.5229978   8.3970014
  81.5559992  14.9739978   8.2950014  82.3893435  14.8862700   8.5287310
  78.1909992   9.6119978   3.1840014  78.8069992  10.2389978   3.5640014
  77.3289992   9.9279978   3.4560014  78.1587678   9.7404412   3.2727209
  83.8639992  12.4129978   8.1730014  83.6229992  13.3379978   8.2150014
  83.1229992  11.9539978   8.5700014  83.7309206  12.4775915   8.2323769
  84.3779992  16.5619978  14.4880014  84.7409992  17.4159978  14.2550014
  84.9099992  16.2699978  15.2290014  84.4995141  16.6393895  14.5562097
  82.5469992  17.4339978   7.7190014  81.5969992  17.5399978   7.7700014
  82.8989992  18.2549978   8.0630014  82.4645472  17.5594923   7.7724852
  87.9219992  12.6609978  14.1890014  87.4969992  12.4329978  15.0150014
  88.5029992  11.9219978  14.0070014  87.9423395  12.5299545  14.2774414
  90.1249992  13.5899978   3.2630014  90.4789992  13.2099978   4.0670014
  89.1769992  13.4959978   3.3500014  90.0452298  13.5252452   3.3848687
  90.5809992  17.2129978  16.6580014  89.9789992  16.6569978  16.1630014
  90.8619992  17.8799978  16.0320014  90.5365757  17.2270744  16.5055675
  94.6289992  18.0689978   3.4640014  95.3729992  18.6549978   3.3240014
  93.9349992  18.6379978   3.7970014  94.6369809  18.2260818   3.4898590
  78.7029992   4.4459978  16.0660014  77.8109992   4.7839978  15.9980014
  78.6049992   3.5899978  16.4840014  78.5674475   4.3766543  16.1131704
  90.9909992  12.2619978   5.4900014  90.7139992  11.5339978   6.0460014
  91.9189992  12.3809978   5.6950014  91.0784499  12.1784213   5.5938044
  78.3549992  16.2499978  14.5010014  78.5719992  15.3179978  14.4700014
  78.6009992  16.5249978  15.3840014  78.4179808  16.1595686  14.6161691
  84.2159992  14.7019978   1.7100014  84.4549992  13.9529978   1.1630014
  83.9469992  14.3139978   2.5430014  84.2123233  14.5471853   1.7477809
  83.1529992  14.2719978   4.1660014  83.2999992  13.7519978   4.9560014
  83.1499992  15.1789978   4.4730014  83.1727102  14.3233953   4.3155925
  79.6059992  11.5239978   4.6770014  78.9199992  11.8769978   5.2440014
  80.1289992  12.2869978   4.4300014  79.5828402  11.6753901   4.7211801
  87.4379992   4.1869978  14.9560014  88.1369992   4.2609978  15.6060014
  87.0569992   3.3219978  15.1100014  87.4822097   4.0802389  15.0657997
  88.2219992   3.8389978   6.0530014  88.4419992   4.3099978   5.2490014
  88.7809992   4.2329978   6.7230014  88.3276731   3.9567287   6.0335033
  85.8909992  15.9689978   4.9160014  85.0739992  16.4659978   4.9680014
  86.4199992  16.4449978   4.2750014  85.8508125  16.1011989   4.8365306
  85.4219992   5.5669978   6.8880014  86.2339992   6.0709978   6.9340014
  85.1779992   5.4219978   7.8020014  85.5001467   5.6163749   7.0178575
  85.9579992   6.5529978  16.0720014  86.0769992   7.1269978  16.8290014
  86.6129992   5.8649978  16.1870014  86.0628684   6.5385194  16.1911674
  86.3059992   2.6479978   7.8260014  85.9589992   3.2649978   8.4700014
  86.9649992   3.1489978   7.3440014  86.3475090   2.8001575   7.8490681
  83.2289992  17.0129978   4.8970014  83.3899992  17.8129978   4.3970014
  83.0319992  17.3199978   5.7820014  83.2243906  17.1638678   4.9482333
  81.9639992   3.7109978   4.5130014  81.8799992   4.5989978   4.8600014
  82.8539992   3.4459978   4.7450014  82.0728163   3.7967179   4.5918596
  92.1619992   4.4599978  16.9070014  91.2459992   4.7219978  16.8200014
  92.4979992   4.4569978  16.0110014  92.0818499   4.4955163  16.7738766
  90.7649992   8.2099978  11.0030014  89.9669992   7.7949978  10.6750014
  91.2099992   7.5199978  11.4940014  90.7159684   8.0598628  11.0245227
  80.2219992  14.1379978   3.5730014  80.8139992  14.8379978   3.8500014
  80.6809992  13.7049978   2.8540014  80.3651652  14.1752675   3.5136533
  78.5379992   6.8029978   2.6890014  78.4929992   7.7419978   2.8680014
  77.6499992   6.5669978   2.4200014  78.4118166   6.8996687   2.6771524
  91.8509992  17.4659978  12.6250014  91.6949992  18.1449978  11.9680014
  92.7839992  17.5379978  12.8280014  91.9557387  17.5686390  12.5625342
  79.3459992   1.5839978  11.3630014  79.1169992   1.6429978  10.4350014
  78.9039992   0.7929978  11.6690014  79.2548801   1.4850540  11.2774729
  78.2769992  15.5249978   7.5230014  77.4439992  15.9969978   7.5500014
  78.8219992  16.0349978   6.9240014  78.2367857  15.6584791   7.4457142
  77.5649992  18.1369978  18.8530014  78.1049992  17.9209978  19.6130014
  77.0839992  17.3319978  18.6630014  77.5739219  17.9985156  18.9314282
  82.1619992  17.0569978  20.4730014  82.9299992  16.5979978  20.8140014
  82.1409992  16.8309978  19.5430014  82.2642135  16.9636668  20.3939491
  86.2539992  16.5649978   1.8490014  85.6099992  15.9339978   2.1700014
  87.0159992  16.0339978   1.6170014  86.2688058  16.4067902   1.8616038
  88.7389992  15.4369978  19.2020014  88.3879992  14.5799978  19.4460014
  89.4649992  15.5789978  19.8090014  88.7891895  15.3391351  19.3173770
  90.8589992  16.3819978   2.0820014  91.1419992  15.5869978   2.5350014
  91.5979992  16.6149978   1.5210014  90.9977096  16.3047049   2.0681104
  77.4719992  11.9479978  19.8070014  77.6159992  11.0459978  19.5210014
  76.6999992  12.2339978  19.3200014  77.3872733  11.8631798  19.7019532
  81.8129992  12.2909978   1.9400014  81.8779992  11.4969978   2.4700014
  82.4659992  12.1729978   1.2500014  81.9101605  12.1663430   1.9192997
  84.1269992  11.9169978  19.2400014  83.7989992  12.1879978  18.3830014
  84.2789992  10.9759978  19.1520014  84.1026412  11.8269046  19.1107822
  87.1659992  13.3379978   1.6760014  86.8969992  13.5189978   2.5760014
  86.9589992  12.4129978   1.5440014  87.1011191  13.2377119   1.7815524
  89.8619992  11.8329978  16.6230014  90.6069992  12.4219978  16.5040014
  89.1049992  12.4149978  16.6870014  89.8615470  11.9922128  16.6153799
  78.3049992   9.1479978  19.2270014  78.7129992   8.2909978  19.1060014
  78.0439992   9.1619978  20.1480014  78.3256016   9.0325119  19.3349192
  82.9629992  10.2639978   4.2460014  82.5029992   9.7799978   4.9310014
  83.2179992   9.5949978   3.6100014  82.9344856  10.1073669   4.2538397
  82.2519992   8.1569978  16.6020014  81.6329992   8.8309978  16.8820014
  82.5959992   8.4779978  15.7680014  82.2137123   8.2926887  16.5276388
  84.0339992   8.5069978   2.5080014  83.8529992   8.3519978   1.5810014
  84.9839992   8.6149978   2.5530014  84.1376566   8.5003669   2.3870929
  87.2709992  10.6279978  19.8790014  88.2249992  10.7119978  19.8520014
  87.1109992   9.9159978  20.4990014  87.3797182  10.5432842  19.9590733
  93.4239992  10.8609978   1.9540014  93.1499992  10.4369978   1.1410014
  93.4629992  11.7929978   1.7370014  93.3917716  10.9288827   1.8134286
  82.5909992   5.5119978  17.6840014  82.7409992   4.7829978  17.0820014
  82.5929992   6.2889978  17.1250014  82.6117967   5.5172708  17.5260541
  83.0039992   3.8809978  15.1770014  83.5389992   4.3329978  14.5250014
  82.1509992   3.7729978  14.7540014  82.9620374   3.9282665  15.0306710
  84.5849992   9.3209978  15.4160014  85.3359992   9.1649978  14.8430014
  84.2459992  10.1729978  15.1410014  84.6419587   9.4148138  15.3004078
  89.0009992   7.1359978  20.4450014  89.1929992   6.2049978  20.3330014
  89.8589992   7.5609978  20.4340014  89.1432182   7.0660070  20.4281862
  90.3179992   9.9249978  18.5220014  90.0359992  10.6339978  17.9440014
  91.2599992   9.8519978  18.3710014  90.4067921  10.0122193  18.4224225
  81.0699992   6.7099978  19.5950014  80.3019992   6.1769978  19.3850014
  81.7479992   6.3999978  18.9960014  81.0567235   6.5951754  19.4852413
  83.8089992   1.3379978  15.6080014  83.7109992   2.2839978  15.5030014
  83.0669992   0.9649978  15.1320014  83.6952534   1.4171773  15.5292600
  85.0729992   5.6589978  19.1720014  84.8379992   5.4399978  20.0730014
  84.2899992   5.4519978  18.6620014  84.9349095   5.6009892  19.2265353
  87.7889992   4.7869978  18.2470014  86.8409992   4.8189978  18.3790014
  88.1009992   4.1609978  18.9010014  87.7015293   4.7067923  18.3534148
  89.4229992   3.4209978  20.2520014  89.3259992   2.4689978  20.2470014
  89.1009992   3.6889978  21.1130014  89.3662468   3.3270884  20.3676210
  79.2499992   4.6299978  19.3000014  79.4619992   3.9239978  18.6900014
  79.1389992   4.1929978  20.1440014  79.2640269   4.4741921  19.3305873
  84.0309992   0.6319978  18.2790014  84.7429992  -0.0080022  18.2650014
  83.9299992   0.8979978  17.3660014  84.1147387   0.5804330  18.1535563
  84.3849992   2.3139978  20.3330014  84.2529992   1.8389978  19.5130014
  83.7849992   3.0589978  20.2780014  84.2859070   2.3495789  20.2133251
  83.9309992  19.1969978   3.5090014  84.8639992  19.3549978   3.6530014
  83.6669992  19.8729978   2.8840014  84.0229911  19.3099373   3.4442722
  77.4989992  13.8339978   2.9920014  78.4129992  13.9129978   3.2650014
  77.5069992  13.1469978   2.3260014  77.6250655  13.7519205   2.9392917
  76.1479992  19.2269978   8.0690014  75.5009992  18.7649978   7.5370014
  76.5029992  18.5549978   8.6520014  76.1073741  19.0729774   8.0749175
  77.0179992  17.3069978   9.8740014  76.6839992  16.4269978  10.0460014
  77.2409992  17.6529978  10.7390014  77.0023721  17.2331938  10.0144168
  94.5669992  18.1169978  12.8550014  94.5449992  18.3019978  13.7940014
  95.2569992  18.6849978  12.5140014  94.6573439  18.2191887  12.9374791
  94.1299992  17.6839978  15.7760014  93.6429992  16.9489978  15.4050014
  94.6789992  17.2899978  16.4540014  94.1375247  17.5301057  15.8168461
  92.5809992  13.4739978  20.4150014  91.7149992  13.3689978  20.8090014
  92.9569992  14.2319978  20.8610014  92.5133401  13.5621708  20.5292620
  93.8819992  11.7299978   5.9290014  94.7319992  12.1509978   6.0560014
  93.8869992  10.9899978   6.5360014  93.9991143  11.6876094   6.0284750
  94.2759992   9.7839978   7.7520014  93.5499992   9.3039978   8.1500014
  94.8579992   9.9889978   8.4850014  94.2552730   9.7460184   7.9054149
  94.0349992  12.5689978  12.7000014  94.8689992  12.1909978  12.4190014
  94.1469992  13.5119978  12.5810014  94.1641917  12.6447943  12.6454861
  92.5219992  15.4469978  15.0070014  91.8739992  15.7719978  15.6320014
  92.0039992  15.0059978  14.3330014  92.3634196  15.4318651  15.0014152
  94.5449992   9.6849978   4.1430014  94.0229992  10.0409978   3.4250014
  94.5119992  10.3599978   4.8220014  94.4690129   9.8249598   4.1363355
  92.8939992   6.9239978   2.6940014  92.9899992   7.5909978   2.0140014
  92.7539992   6.1089978   2.2130014  92.8882040   6.9050671   2.5358378
  92.0629992   8.3049978   8.3150014  91.9129992   7.3599978   8.2950014
  91.7089992   8.5859978   9.1590014  91.9946351   8.2136644   8.4263220
  77.0979992  10.3829978  12.3260014  77.2829992  10.3009978  11.3900014
  77.9479992  10.2589978  12.7490014  77.2380928  10.3550463  12.2552893
  92.9189992  10.2749978  17.9540014  93.5019992   9.5399978  18.1460014
  93.4829992  11.0469978  18.0010014  93.0749781  10.2788145  17.9866164
  94.4159992   8.1779978  18.6390014  93.5529992   7.7989978  18.4730014
  95.0199992   7.4389978  18.5640014  94.3796085   8.0263223  18.6061695
  92.1409992   4.3319978   1.8120014  92.7519992   3.9609978   2.4490014
  91.3039992   3.9109978   2.0080014  92.1114947   4.2242756   1.9257252
  91.7739992   5.8869978   6.7780014  92.0529992   4.9799978   6.9020014
  92.5329992   6.3209978   6.3890014  91.9148619   5.8214502   6.7423795
  92.3849992   6.4689978  12.2140014  93.3179992   6.6809978  12.1790014
  92.1499992   6.5699978  13.1360014  92.4809517   6.5116833  12.3339130
  92.4149992   7.2059978  14.9900014  91.5719992   7.4739978  15.3560014
  92.8569992   8.0279978  14.7790014  92.3594138   7.3538273  15.0115518
  76.6959992   5.6529978  18.4660014  77.6149992   5.5309978  18.7030014
  76.2459992   4.9029978  18.8560014  76.7610087   5.5349608  18.5511410
  94.6979992   1.1859978  20.3430014  95.0469992   0.5319978  19.7380014
  94.8449992   2.0229978  19.9030014  94.7656824   1.2096024  20.2006304
  92.3869992   3.1499978   6.8260014  92.5689992   2.7009978   7.6510014
  91.7869992   2.5659978   6.3620014  92.3308187   3.0095552   6.8762739
  77.9169992   3.9659978  11.3580014  78.3619992   3.1739978  11.6600014
  78.3829992   4.6819978  11.7880014  78.0409718   3.9544534  11.4575265
  76.2209992   6.9649978  12.4270014  76.7129992   6.7439978  11.6360014
  76.5829992   7.8049978  12.7080014  76.3372923   7.0483468  12.3567407
  94.2169992   3.2949978  18.6920014  93.2999992   3.5659978  18.6570014
  94.3399992   2.7599978  17.9080014  94.1079672   3.2597885  18.5811862
  94.2539992   3.2179978   3.3540014  94.6659992   2.4969978   2.8790014
  94.9349992   3.8869978   3.4120014  94.4025536   3.2097766   3.2968024
  76.5349992   3.2229978   6.4810014  75.6099992   3.4309978   6.3520014
  76.9889992   3.7069978   5.7910014  76.4696298   3.3169299   6.3700451
  91.3049992  18.2069978   8.4270014  91.9579992  17.8589978   7.8190014
  91.8159992  18.6949978   9.0730014  91.4632777  18.2253815   8.4312047
  76.4979992   1.9609978  14.8250014  75.8329992   1.7149978  15.4680014
  76.0549992   2.5829978  14.2480014  76.3471168   2.0114214  14.8349848
  78.6899992  15.1359978  18.9700014  77.8689992  15.3109978  18.5090014
  78.4379992  15.0629978  19.8900014  78.5435594  15.1500717  19.0313611
  81.6439992  16.1099978  15.2280014  81.2199992  16.9199978  14.9460014
  82.5489992  16.1959978  14.9260014  81.7082138  16.2324160  15.1486415
  85.9559992  17.5089978  18.1880014  86.1399992  17.1759978  19.0660014
  86.8019992  17.8189978  17.8660014  86.0956484  17.5052979  18.2647617
  88.3009992  18.7949978  17.4320014  88.9779992  18.1619978  17.1920014
  88.6219992  19.1959978  18.2390014  88.4371323  18.7625691  17.5083158
  93.2179992   1.3849978  16.5110014  92.4049992   1.7099978  16.1240014
  93.4509992   0.6239978  15.9780014  93.1381347   1.3266880  16.3859841
  79.0459992  19.3669978  15.2760014  78.3259992  19.8069978  14.8250014
  78.6809992  19.1159978  16.1240014  78.8979643  19.3933369  15.3289129
  81.5129992  18.9669978  14.3060014  80.6489992  19.0389978  14.7100014
  81.4579992  19.5139978  13.5220014  81.3871942  19.0507849  14.2554000
  86.2239992  18.8549978  13.4810014  85.7669992  19.3839978  12.8270014
  86.3869992  19.4579978  14.2060014  86.1834960  19.0089280  13.4895274
  88.5519992  17.7329978  14.4260014  87.6469992  17.8979978  14.1600014
  88.9799992  18.5859978  14.3600014  88.4861537  17.8709134  14.3807095
  91.1559992  19.3029978  14.7210014  90.9739992  20.2189978  14.5100014
  91.3329992  18.8919978  13.8740014  91.1550030  19.3728273  14.5777166
  78.4609992  17.9899978  12.1860014  78.4429992  17.5639978  13.0430014
  79.2659992  17.6709978  11.7770014  78.5672875  17.8886435  12.2479515
  80.6019992  16.6999978  10.8410014  80.3829992  15.7829978  11.0110014
  81.4259992  16.8399978  11.3070014  80.6834702  16.5935511  10.9272527
  83.1389992  17.1699978  11.6900014  83.3519992  16.2819978  11.4030014
  83.2039992  17.1349978  12.6440014  83.1769149  17.0438326  11.7797369
  86.6479992   2.8339978  10.8340014  85.9739992   2.2039978  11.0900014
  87.2119992   2.3499978  10.2310014  86.6320384   2.6823708  10.7875020
  91.7909992   0.9409978  10.9470014  92.3939992   1.4889978  10.4450014
  90.9209992   1.2599978  10.7060014  91.7559157   1.0590373  10.8457910
  93.5179992   2.0799978   9.2800014  94.1289992   1.5659978   8.7530014
  93.8999992   2.9569978   9.3030014  93.6533305   2.1282050   9.2109418
  78.9749992   1.4679978   8.6560014  78.1979992   1.2329978   8.1490014
  79.5049992   0.6709978   8.6650014  78.9403451   1.3281268   8.5878627
  77.8109992   1.2659978   4.4600014  78.2499992   1.8769978   3.8680014
  77.1769992   1.8039978   4.9340014  77.7853859   1.4224064   4.4430305
  83.5539992   1.3939978   8.4690014  84.4279992   1.7829978   8.4400014
  83.4179992   1.1789978   9.3920014  83.6551953   1.4181643   8.5897617
  89.1109992   1.4239978  10.1190014  89.1869992   1.5199978   9.1690014
  88.8359992   0.5169978  10.2470014  89.0841871   1.3144146  10.0063944
  90.4639992   1.4499978   5.8110014  89.7609992   2.0649978   5.6010014
  90.0189992   0.6129978   5.9420014  90.3076550   1.4209668   5.7999837
  77.7119992  17.2139978   5.3570014  77.0269992  17.1759978   4.6900014
  77.7159992  18.1269978   5.6450014  77.6187621  17.3321924   5.3046126
  79.6719992   3.1819978   2.9020014  80.1629992   2.5519978   2.3750014
  80.2949992   3.4779978   3.5650014  79.8235304   3.1357376   2.9194940
  84.6979992   3.4749978   5.3590014  84.8759992   2.8279978   6.0420014
  84.6439992   4.3089978   5.8260014  84.7150678   3.4991604   5.5156301
  86.5759992  18.4229978   3.7550014  87.4419992  18.7899978   3.5770014
  86.3299992  17.9839978   2.9410014  86.6612097  18.4138525   3.6206019
  93.2849992  17.9859978   6.4340014  93.0909992  17.2379978   5.8690014
  93.2459992  18.7439978   5.8510014  93.2531645  17.9860786   6.2778148
  78.9319992   1.9819978  18.1740014  78.5659992   1.2159978  18.6160014
  79.8449992   2.0109978  18.4600014  79.0053172   1.8810324  18.2731890
  80.9049992   1.3319978  19.7090014  81.8039992   1.0579978  19.5250014
  80.5189992   0.5899978  20.1740014  80.9757307   1.1942196  19.7467098
  79.5299992  18.1339978   2.3820014  79.2619992  18.4199978   3.2560014
  80.3009992  17.5879978   2.5350014  79.5975926  18.0992779   2.5221205
  89.3269992   0.6649978  19.8920014  89.4029992   0.2389978  20.7450014
  90.2199992   0.6779978  19.5490014  89.4582303   0.6083493  19.9625497
  92.5029992  16.7379978  18.5840014  91.7209992  16.5509978  18.0640014
  92.4309992  17.6669978  18.8010014  92.3861924  16.8380637  18.5421602
 106.9089992  10.6239978   8.6150014 106.9979992  11.5679978   8.4830014
 106.2709992  10.3489978   7.9570014 106.8349062  10.7159812   8.5079641
 105.8419992   9.8789978  12.0340014 105.8039992   9.2329978  12.7390014
 105.5199992   9.4119978  11.2630014 105.7932679   9.7274276  12.0262921
  98.2099992   9.4929978  13.6270014  98.2519992   8.8679978  14.3500014
  98.9129992  10.1169978  13.8090014  98.3107345   9.4917873  13.7505274
 109.5479992  12.8179978  10.3350014 109.1069992  12.0979978  10.7860014
 109.5349992  13.5389978  10.9650014 109.4859215  12.8169291  10.4818105
  99.1339992  13.9429978  12.1620014  98.7639992  13.1409978  11.7920014
 100.0749992  13.7749978  12.2080014  99.2105984  13.8104638  12.1175603
  95.7439992   7.6029978   7.5540014  95.2959992   8.4489978   7.5360014
  95.1829992   7.0239978   7.0390014  95.6068546   7.6403993   7.4818891
  96.4539992   9.7649978   9.6800014  96.6679992   8.9949978  10.2080014
  97.1919992   9.8549978   9.0770014  96.5830200   9.6718587   9.6707035
 106.6599992  17.9219978  10.5470014 107.2789992  17.2459978  10.2740014
 106.4509992  17.7039978  11.4560014 106.7166056  17.7998869  10.6323967
 104.2309992  12.3109978  12.4400014 104.5349992  11.6249978  11.8450014
 104.9529992  12.4299978  13.0580014 104.3701240  12.2332314  12.4420959
 112.8939992   3.9129978  13.3000014 112.9439992   4.5229978  14.0360014
 113.3199992   4.3739978  12.5770014 112.9584108   4.0587709  13.3030112
 107.3719992   6.7049978  12.7670014 107.5149992   5.7589978  12.7870014
 107.2659992   6.9119978  11.8390014 107.3772403   6.6034797  12.6442239
 100.5269992   4.8069978  10.0400014 100.5699992   5.6669978   9.6210014
 100.0689992   4.2549978   9.4060014 100.4709871   4.8499245   9.8970761
 108.2489992   4.9379978   8.4410014 108.8959992   4.6089978   9.0650014
 108.7589992   5.4549978   7.8180014 108.4064351   4.9629067   8.4421037
  97.1469992   7.2039978  10.8020014  97.8009992   6.6539978  11.2340014
  97.1709992   6.9299978   9.8850014  97.2397199   7.0917167  10.7371668
 102.3039992   8.7539978  10.0170014 102.9199992   8.2269978  10.5260014
 101.7169992   8.1139978   9.6130014 102.3090154   8.5953954  10.0320945
 113.2859992   5.3909978  15.5360014 112.5969992   6.0489978  15.4410014
 113.3009992   5.1929978  16.4730014 113.1937756   5.4542603  15.6495812
  99.3369992   3.7249978  14.1140014  99.1179992   4.2549978  13.3470014
  98.6689992   3.9509978  14.7610014  99.2166975   3.8280967  14.0965140
 106.7059992  13.2249978   7.6580014 106.4109992  12.9019978   6.8060014
 106.3819992  14.1249978   7.6990014 106.6218460  13.3024464   7.5469714
 101.9059992  11.3999978  14.4010014 101.1659992  11.9989978  14.5050014
 102.6199992  11.9539978  14.0860014 101.9013500  11.5567829  14.3726371
 110.0129992   4.2289978  10.4210014 109.7979992   3.4629978  10.9540014
 110.6689992   4.7009978  10.9340014 110.0722673   4.1880728  10.5631990
  98.9309992   5.6169978  12.0660014  99.5449992   6.2499978  12.4390014
  99.4429992   5.1449978  11.4100014  99.0841962   5.6397249  12.0282935
 100.3139992  13.3649978  15.1880014 100.3079992  14.2439978  14.8100014
  99.4599992  13.2809978  15.6130014 100.1977925  13.4739535  15.1936887
  96.4349992  13.0359978   5.9700014  96.1629992  13.2649978   5.0820014
  96.4799992  13.8729978   6.4310014  96.4038097  13.1806163   5.9106683
 110.0599992  14.6569978  12.6830014 109.1179992  14.7159978  12.8450014
 110.3359992  15.5629978  12.5460014 109.9685865  14.7875288  12.6866192
 110.3599992   2.9439978  14.1000014 109.6239992   3.5539978  14.0630014
 111.0439992   3.3589978  13.5740014 110.3515367   3.0837551  14.0238174
 103.3639992   1.0299978  11.5660014 103.2459992   0.0819978  11.5120014
 102.5089992   1.3629978  11.8390014 103.2322805   0.9452202  11.5955079
 108.3119992  16.4379978   9.3080014 108.7369992  15.7309978   8.8230014
 108.6289992  17.2399978   8.8910014 108.4130266  16.4495190   9.1852479
 109.4719992  14.3389978   7.8170014 109.2139992  13.6489978   7.2050014
 109.5429992  13.8959978   8.6620014 109.4463050  14.1846814   7.8475621
 111.1579992  12.9059978  16.2940014 111.2969992  12.3139978  15.5550014
 111.3249992  13.7789978  15.9380014 111.1996193  12.9428896  16.1446211
 105.6299992   9.8679978   6.0670014 104.9189992  10.4029978   5.7150014
 106.3209992   9.9229978   5.4070014 105.6260751   9.9486777   5.9295858
 105.6839992   8.3249978   3.1050014 106.3849992   8.3479978   3.7570014
 105.9859992   7.6969978   2.4490014 105.8208202   8.2432212   3.1055609
 112.9989992   9.2459978  14.3600014 112.3469992   9.9399978  14.4490014
 113.4649992   9.4559978  13.5500014 112.9725937   9.3695019  14.2627533
 109.0359992  10.0769978   7.0180014 108.3039992  10.3059978   7.5920014
 109.4829992   9.3639978   7.4730014 108.9963963  10.0118729   7.1579945
 108.9329992   8.2519978  16.0860014 109.0129992   9.0149978  16.6580014
 108.3319992   8.5309978  15.3960014 108.8626547   8.3942457  16.0710047
 100.6809992  10.7079978   8.9010014 100.3509992  10.3369978   8.0830014
 101.2699992  10.0369978   9.2480014 100.7153970  10.5666063   8.8359404
 102.0479992  14.1359978  11.5820014 101.9529992  13.5569978  10.8260014
 102.7769992  13.7649978  12.0780014 102.1336011  14.0065561  11.5456028
 101.0479992   9.4759978  12.5340014 101.6129992   9.5979978  11.7720014
 101.3669992  10.1139978  13.1730014 101.1684166   9.5788791  12.5160348
 107.3569992  14.9799978  13.2680014 107.1169992  15.6419978  13.9160014
 107.1589992  14.1449978  13.6930014 107.2973826  14.9578115  13.4141566
 101.9279992  13.8759978  17.2520014 101.6169992  14.6579978  17.7070014
 101.2779992  13.7229978  16.5660014 101.7975538  13.9624087  17.2215898
 107.9069992   9.2399978   4.7040014 108.4859992   9.3899978   5.4500014
 108.3209992   9.7099978   3.9800014 108.0423358   9.3240955   4.7083953
  98.8479992  10.0739978  16.4800014  98.9179992  10.7249978  17.1790014
  97.9569992  10.1769978  16.1450014  98.7371690  10.1769249  16.5303043
 105.6329992  15.9759978   8.1390014 106.1069992  16.2719978   8.9160014
 105.0699992  16.7149978   7.9060014 105.6217890  16.1163036   8.2138101
 100.1669992  15.9469978  18.0150014 100.1749992  15.8109978  17.0680014
  99.2509992  15.8299978  18.2670014 100.0442528  15.9125463  17.9193243
 111.6059992   0.9899978   4.5170014 110.7059992   1.1289978   4.8120014
 111.8579992   1.8209978   4.1150014 111.5168683   1.1214055   4.5030232
  99.6719992   9.7769978   6.4900014  99.3799992  10.5449978   5.9990014
  98.9969992   9.1179978   6.3270014  99.5408497   9.7929745   6.4008260
 112.7949992  15.3559978   2.8930014 112.8679992  16.2949978   3.0630014
 113.6999992  15.0509978   2.8370014 112.9274170  15.4433282   2.9087063
  95.7649992  12.1399978  15.3050014  95.2629992  12.1119978  14.4900014
  95.7699992  11.2349978  15.6150014  95.6969832  12.0137486  15.2354121
  95.5149992  14.9209978  12.1890014  96.4609992  14.7759978  12.1700014
  95.4019992  15.7049978  12.7260014  95.6293578  15.0071697  12.2590317
 113.7129992  15.5869978  17.8720014 113.6629992  14.6309978  17.8340014
 112.8859992  15.8539978  18.2730014 113.5943831  15.4924680  17.9210121
 104.6909992  15.1609978  16.7480014 104.7789992  15.9869978  17.2230014
 103.8279992  14.8309978  16.9970014 104.5863357  15.2295468  16.8467653
 105.1059992  18.9329978   6.5540014 105.0299992  18.8119978   5.6070014
 105.1379992  19.8819978   6.6720014 105.0999380  19.0447677   6.4405181
  98.7589992  17.7219978   8.3350014  98.9109992  17.3739978   9.2130014
  97.9079992  17.3649978   8.0790014  98.6648344  17.6260879   8.4206868
 108.2069992  18.0869978   3.5560014 108.5819992  17.3429978   3.0850014
 108.2119992  17.8169978   4.4740014 108.2590098  17.9486392   3.6156629
 107.8759992  18.0129978   6.3050014 106.9409992  18.1129978   6.4840014
 108.1559992  17.3029978   6.8840014 107.7859471  17.9307933   6.4076695
 110.8649992   7.0799978  18.3520014 110.4569992   7.5599978  17.6310014
 110.9049992   6.1739978  18.0440014 110.8146221   7.0232449  18.2118267
  98.0139992  13.4639978  16.3480014  98.2299992  13.1019978  17.2080014
  97.1579992  13.0889978  16.1390014  97.9278810  13.3638837  16.4372680
 100.6319992   1.9339978  12.3440014  99.7709992   1.8469978  11.9360014
 100.6099992   2.7899978  12.7720014 100.5110491   2.0378003  12.3459582
 105.2949992   1.6559978  15.7190014 105.7149992   1.2409978  16.4720014
 104.3619992   1.4769978  15.8360014 105.2263736   1.5749910  15.8378968
 108.6219992   5.4109978  16.5720014 108.1079992   5.2859978  17.3700014
 108.4659992   6.3239978  16.3280014 108.5306967   5.5172123  16.6480937
 109.3839992  10.2719978   2.3330014 109.4259992  10.0499978   1.4030014
 110.2329992  10.6709978   2.5230014 109.5045253  10.2955498   2.2313822
 104.9569992   4.1479978   3.0040014 104.7029992   4.1669978   3.9260014
 104.6999992   3.2769978   2.7020014 104.8874508   4.0328280   3.0894803
 100.7229992   6.8989978  13.4390014 100.0819992   6.8589978  14.1480014
 100.7609992   7.8259978  13.2010014 100.6403010   7.0187668  13.5039946
 100.7199992   7.1199978   8.3510014  99.8279992   6.7799978   8.2920014
 101.1709992   6.7429978   7.5950014 100.6587642   7.0224910   8.2407726
 106.2559992   7.5359978   7.1680014 105.8469992   8.3509978   6.8760014
 106.9759992   7.3959978   6.5540014 106.2974439   7.6285372   7.0450115
 105.3579992   7.7119978  18.6560014 104.7949992   7.0069978  18.9770014
 106.1839992   7.5909978  19.1240014 105.3926674   7.5992165  18.7631751
 107.2609992   6.9819978   9.9820014 107.0649992   7.5879978   9.2670014
 107.4419992   6.1489978   9.5480014 107.2586584   6.9522513   9.8254212
  98.4729992   7.2199978  15.3060014  98.4349992   7.6199978  16.1750014
  97.9829992   6.4029978  15.3960014  98.4015330   7.1642674  15.4371289
 101.8389992   4.5939978   2.1050014 101.4079992   4.1489978   2.8340014
 101.1209992   4.9649978   1.5920014 101.6829176   4.5832051   2.1354930
  95.0819992   4.3359978   9.1570014  95.7119992   4.3069978   9.8760014
  95.5309992   3.9109978   8.4260014  95.2290835   4.2745660   9.1567659
  96.3559992   5.0819978   4.5810014  96.8299992   5.6729978   3.9960014
  95.6379992   5.6119978   4.9280014  96.3238640   5.2345511   4.5477969
 106.5249992   8.6199978  14.6530014 106.8479992   7.9889978  14.0100014
 106.0839992   8.0859978  15.3140014 106.5096379   8.4613468  14.6542582
 103.3019992   4.5479978   9.4370014 102.3909992   4.6049978   9.7260014
 103.8069992   4.4879978  10.2480014 103.2456873   4.5476826   9.5861207
  98.1299992   6.1769978   8.2640014  97.2409992   6.2759978   7.9240014
  98.4269992   5.3349978   7.9180014  98.0484177   6.0767687   8.1706940
 101.7829992   6.1769978   5.9210014 102.7149992   6.3059978   6.0990014
 101.5679992   6.8459978   5.2710014 101.8814472   6.2850806   5.8574891
 107.7069992   3.7829978  12.7020014 107.0299992   3.9139978  13.3650014
 107.2219992   3.6279978  11.8910014 107.5487405   3.7799947  12.6832170
 100.4569992   7.3709978   3.4870014  99.9149992   6.9919978   2.7960014
 101.2909992   7.5659978   3.0590014 100.4954390   7.3454079   3.3344392
 110.9949992  19.4539978  18.9780014 111.1939992  19.8779978  18.1440014
 111.6499992  19.7979978  19.5850014 111.1108522  19.5586301  18.9457852
  98.5929992  11.9279978  18.5860014  99.3249992  12.1829978  19.1480014
  97.8119992  12.1329978  19.1020014  98.5876526  11.9905450  18.7325176
 104.6219992   7.3349978  11.3240014 105.1859992   6.7889978  10.7770014
 104.4739992   6.8139978  12.1130014 104.6793037   7.1896787  11.3557229
  99.6239992   3.4719978   7.7430014  99.3069992   2.5689978   7.7070014
 100.4049992   3.4739978   7.1900014  99.6862431   3.3487797   7.6633102
 103.2479992   5.7239978  13.7380014 102.4129992   6.1779978  13.8490014
 103.7719992   5.9999978  14.4900014 103.2046072   5.8233948  13.8548136
 103.7929992  11.9369978   5.4230014 103.0479992  11.4289978   5.1010014
 103.6579992  11.9859978   6.3690014 103.6728963  11.8741731   5.5068826
 110.9429992  11.0699978  14.2100014 111.5839992  11.5259978  13.6660014
 110.1119992  11.1829978  13.7470014 110.9185287  11.1476921  14.0729887
 107.6899992   4.7509978   3.6220014 106.7519992   4.8619978   3.4710014
 107.9879992   5.6069978   3.9290014 107.6016318   4.8820158   3.6428145
 105.3119992  12.1209978  16.6600014 104.9659992  11.7389978  17.4670014
 105.1119992  13.0539978  16.7310014 105.2375987  12.1949002  16.7800461
 108.4089992   6.6179978   5.2830014 109.3009992   6.4799978   5.6020014
 108.4649992   7.4089978   4.7460014 108.5387325   6.7059918   5.2541217
  98.9169992  11.2319978  11.1930014  99.6619992  11.2289978  10.5910014
  98.9949992  10.4079978  11.6740014  99.0293365  11.1202384  11.1757430
 105.9179992  13.3949978   4.4480014 105.6229992  14.2219978   4.8300014
 105.2149992  12.7759978   4.6450014 105.7826379  13.4244171   4.5268654
  95.9249992   9.6919978  16.5080014  96.1479992   9.2739978  17.3390014
  95.3229992   9.0799978  16.0850014  95.8741513   9.5519606  16.5646740
 102.9419992   9.2089978  18.7210014 102.6459992   9.0439978  17.8250014
 103.8729992   8.9889978  18.7100014 103.0274401   9.1566879  18.5970206
 107.5619992  14.5829978  16.6100014 106.6619992  14.7659978  16.3430014
 107.5959992  14.8419978  17.5310014 107.4433748  14.6430554  16.6979164
 113.2939992   6.8269978   4.9780014 112.7389992   6.4309978   4.3050014
 113.3939992   7.7379978   4.7000014 113.2316816   6.8959505   4.8485033
 113.2569992  12.6279978  17.8150014 112.4059992  12.8659978  17.4470014
 113.8469992  12.6109978  17.0620014 113.2203812  12.6582524  17.6628453
 111.5889992  15.6129978   5.4430014 111.2159992  14.7879978   5.7520014
 111.8659992  15.4299978   4.5450014 111.5753463  15.4752569   5.3639525
 108.7489992  10.4209978  12.4640014 107.8209992  10.1899978  12.4370014
 109.1999992   9.6439978  12.1340014 108.6828165  10.2842774  12.4156790
 101.2919992  14.7499978   8.5970014 101.8199992  15.5229978   8.3970014
 100.4119992  14.9739978   8.2950014 101.2453435  14.8862700   8.5287310
  97.0469992   9.6119978   3.1840014  97.6629992  10.2389978   3.5640014
  96.1849992   9.9279978   3.4560014  97.0147678   9.7404412   3.2727209
 102.7199992  12.4129978   8.1730014 102.4789992  13.3379978   8.2150014
 101.9789992  11.9539978   8.5700014 102.5869206  12.4775915   8.2323769
 103.2339992  16.5619978  14.4880014 103.5969992  17.4159978  14.2550014
 103.7659992  16.2699978  15.2290014 103.3555141  16.6393895  14.5562097
 101.4029992  17.4339978   7.7190014 100.4529992  17.5399978   7.7700014
 101.7549992  18.2549978   8.0630014 101.3205472  17.5594923   7.7724852
 106.7779992  12.6609978  14.1890014 106.3529992  12.4329978  15.0150014
 107.3589992  11.9219978  14.0070014 106.7983395  12.5299545  14.2774414
 108.9809992  13.5899978   3.2630014 109.3349992  13.2099978   4.0670014
 108.0329992  13.4959978   3.3500014 108.9012298  13.5252452   3.3848687
 109.4369992  17.2129978  16.6580014 108.8349992  16.6569978  16.1630014
 109.7179992  17.8799978  16.0320014 109.3925757  17.2270744  16.5055675
 113.4849992  18.0689978   3.4640014 114.2289992  18.6549978   3.3240014
 112.7909992  18.6379978   3.7970014 113.4929809  18.2260818   3.4898590
  97.5589992   4.4459978  16.0660014  96.6669992   4.7839978  15.9980014
  97.4609992   3.5899978  16.4840014  97.4234475   4.3766543  16.1131704
 109.8469992  12.2619978   5.4900014 109.5699992  11.5339978   6.0460014
 110.7749992  12.3809978   5.6950014 109.9344499  12.1784213   5.5938044
  97.2109992  16.2499978  14.5010014  97.4279992  15.3179978  14.4700014
  97.4569992  16.5249978  15.3840014  97.2739809  16.1595686  14.6161691
 103.0719992  14.7019978   1.7100014 103.3109992  13.9529978   1.1630014
 102.8029992  14.3139978   2.5430014 103.0683233  14.5471853   1.7477809
 102.0089992  14.2719978   4.1660014 102.1559992  13.7519978   4.9560014
 102.0059992  15.1789978   4.4730014 102.0287102  14.3233953   4.3155925
  98.4619992  11.5239978   4.6770014  97.7759992  11.8769978   5.2440014
  98.9849992  12.2869978   4.4300014  98.4388402  11.6753901   4.7211801
 106.2939992   4.1869978  14.9560014 106.9929992   4.2609978  15.6060014
 105.9129992   3.3219978  15.1100014 106.3382097   4.0802389  15.0657997
 107.0779992   3.8389978   6.0530014 107.2979992   4.3099978   5.2490014
 107.6369992   4.2329978   6.7230014 107.1836731   3.9567287   6.0335033
 104.7469992  15.9689978   4.9160014 103.9299992  16.4659978   4.9680014
 105.2759992  16.4449978   4.2750014 104.7068125  16.1011989   4.8365306
 104.2779992   5.5669978   6.8880014 105.0899992   6.0709978   6.9340014
 104.0339992   5.4219978   7.8020014 104.3561467   5.6163749   7.0178575
 104.8139992   6.5529978  16.0720014 104.9329992   7.1269978  16.8290014
 105.4689992   5.8649978  16.1870014 104.9188684   6.5385194  16.1911674
 105.1619992   2.6479978   7.8260014 104.8149992   3.2649978   8.4700014
 105.8209992   3.1489978   7.3440014 105.2035090   2.8001575   7.8490681
 102.0849992  17.0129978   4.8970014 102.2459992  17.8129978   4.3970014
 101.8879992  17.3199978   5.7820014 102.0803906  17.1638678   4.9482333
 100.8199992   3.7109978   4.5130014 100.7359992   4.5989978   4.8600014
 101.7099992   3.4459978   4.7450014 100.9288163   3.7967179   4.5918596
 111.0179992   4.4599978  16.9070014 110.1019992   4.7219978  16.8200014
 111.3539992   4.4569978  16.0110014 110.9378499   4.4955163  16.7738766
 109.6209992   8.2099978  11.0030014 108.8229992   7.7949978  10.6750014
 110.0659992   7.5199978  11.4940014 109.5719684   8.0598628  11.0245227
  99.0779992  14.1379978   3.5730014  99.6699992  14.8379978   3.8500014
  99.5369992  13.7049978   2.8540014  99.2211652  14.1752675   3.5136533
  97.3939992   6.8029978   2.6890014  97.3489992   7.7419978   2.8680014
  96.5059992   6.5669978   2.4200014  97.2678166   6.8996687   2.6771524
 110.7069992  17.4659978  12.6250014 110.5509992  18.1449978  11.9680014
 111.6399992  17.5379978  12.8280014 110.8117387  17.5686390  12.5625342
  98.2019992   1.5839978  11.3630014  97.9729992   1.6429978  10.4350014
  97.7599992   0.7929978  11.6690014  98.1108801   1.4850540  11.2774729
  97.1329992  15.5249978   7.5230014  96.2999992  15.9969978   7.5500014
  97.6779992  16.0349978   6.9240014  97.0927857  15.6584791   7.4457142
  96.4209992  18.1369978  18.8530014  96.9609992  17.9209978  19.6130014
  95.9399992  17.3319978  18.6630014  96.4299219  17.9985156  18.9314282
 101.0179992  17.0569978  20.4730014 101.7859992  16.5979978  20.8140014
 100.9969992  16.8309978  19.5430014 101.1202135  16.9636668  20.3939491
 105.1099992  16.5649978   1.8490014 104.4659992  15.9339978   2.1700014
 105.8719992  16.0339978   1.6170014 105.1248058  16.4067902   1.8616038
 107.5949992  15.4369978  19.2020014 107.2439992  14.5799978  19.4460014
 108.3209992  15.5789978  19.8090014 107.6451895  15.3391351  19.3173770
 109.7149992  16.3819978   2.0820014 109.9979992  15.5869978   2.5350014
 110.4539992  16.6149978   1.5210014 109.8537096  16.3047049   2.0681104
  96.3279992  11.9479978  19.8070014  96.4719992  11.0459978  19.5210014
  95.5559992  12.2339978  19.3200014  96.2432733  11.8631798  19.7019532
 100.6689992  12.2909978   1.9400014 100.7339992  11.4969978   2.4700014
 101.3219992  12.1729978   1.2500014 100.7661605  12.1663430   1.9192997
 102.9829992  11.9169978  19.2400014 102.6549992  12.1879978  18.3830014
 103.1349992  10.9759978  19.1520014 102.9586412  11.8269046  19.1107822
 106.0219992  13.3379978   1.6760014 105.7529992  13.5189978   2.5760014
 105.8149992  12.4129978   1.5440014 105.9571191  13.2377119   1.7815524
 108.7179992  11.8329978  16.6230014 109.4629992  12.4219978  16.5040014
 107.9609992  12.4149978  16.6870014 108.7175470  11.9922128  16.6153799
  97.1609992   9.1479978  19.2270014  97.5689992   8.2909978  19.1060014
  96.8999992   9.1619978  20.1480014  97.1816016   9.0325119  19.3349192
 101.8189992  10.2639978   4.2460014 101.3589992   9.7799978   4.9310014
 102.0739992   9.5949978   3.6100014 101.7904856  10.1073669   4.2538397
 101.1079992   8.1569978  16.6020014 100.4889992   8.8309978  16.8820014
 101.4519992   8.4779978  15.7680014 101.0697123   8.2926887  16.5276388
 102.8899992   8.5069978   2.5080014 102.7089992   8.3519978   1.5810014
 103.8399992   8.6149978   2.5530014 102.9936566   8.5003669   2.3870929
 106.1269992  10.6279978  19.8790014 107.0809992  10.7119978  19.8520014
 105.9669992   9.9159978  20.4990014 106.2357182  10.5432842  19.9590733
 112.2799992  10.8609978   1.9540014 112.0059992  10.4369978   1.1410014
 112.3189992  11.7929978   1.7370014 112.2477716  10.9288827   1.8134286
 101.4469992   5.5119978  17.6840014 101.5969992   4.7829978  17.0820014
 101.4489992   6.2889978  17.1250014 101.4677967   5.5172708  17.5260541
 101.8599992   3.8809978  15.1770014 102.3949992   4.3329978  14.5250014
 101.0069992   3.7729978  14.7540014 101.8180374   3.9282665  15.0306710
 103.4409992   9.3209978  15.4160014 104.1919992   9.1649978  14.8430014
 103.1019992  10.1729978  15.1410014 103.4979587   9.4148138  15.3004078
 107.8569992   7.1359978  20.4450014 108.0489992   6.2049978  20.3330014
 108.7149992   7.5609978  20.4340014 107.9992182   7.0660070  20.4281862
 109.1739992   9.9249978  18.5220014 108.8919992  10.6339978  17.9440014
 110.1159992   9.8519978  18.3710014 109.2627921  10.0122193  18.4224225
  99.9259992   6.7099978  19.5950014  99.1579992   6.1769978  19.3850014
 100.6039992   6.3999978  18.9960014  99.9127235   6.5951754  19.4852413
 102.6649992   1.3379978  15.6080014 102.5669992   2.2839978  15.5030014
 101.9229992   0.9649978  15.1320014 102.5512534   1.4171773  15.5292600
 103.9289992   5.6589978  19.1720014 103.6939992   5.4399978  20.0730014
 103.1459992   5.4519978  18.6620014 103.7909095   5.6009892  19.2265353
 106.6449992   4.7869978  18.2470014 105.6969992   4.8189978  18.3790014
 106.9569992   4.1609978  18.9010014 106.5575293   4.7067923  18.3534148
 108.2789992   3.4209978  20.2520014 108.1819992   2.4689978  20.2470014
 107.9569992   3.6889978  21.1130014 108.2222468   3.3270884  20.3676210
  98.1059992   4.6299978  19.3000014  98.3179992   3.9239978  18.6900014
  97.9949992   4.1929978  20.1440014  98.1200269   4.4741921  19.3305873
 102.8869992   0.6319978  18.2790014 103.5989992  -0.0080022  18.2650014
 102.7859992   0.8979978  17.3660014 102.9707387   0.5804330  18.1535563
 103.2409992   2.3139978  20.3330014 103.1089992   1.8389978  19.5130014
 102.6409992   3.0589978  20.2780014 103.1419070   2.3495789  20.2133251
 102.7869992  19.1969978   3.5090014 103.7199992  19.3549978   3.6530014
 102.5229992  19.8729978   2.8840014 102.8789911  19.3099373   3.4442722
  96.3549992  13.8339978   2.9920014  97.2689992  13.9129978   3.2650014
  96.3629992  13.1469978   2.3260014  96.4810655  13.7519205   2.9392917
  95.0039992  19.2269978   8.0690014  94.3569992  18.7649978   7.5370014
  95.3589992  18.5549978   8.6520014  94.9633741  19.0729774   8.0749175
  95.8739992  17.3069978   9.8740014  95.5399992  16.4269978  10.0460014
  96.0969992  17.6529978  10.7390014  95.8583721  17.2331938  10.0144168
 113.4229992  18.1169978  12.8550014 113.4009992  18.3019978  13.7940014
 114.1129992  18.6849978  12.5140014 113.5133439  18.2191887  12.9374791
 112.9859992  17.6839978  15.7760014 112.4989992  16.9489978  15.4050014
 113.5349992  17.2899978  16.4540014 112.9935247  17.5301057  15.8168461
 111.4369992  13.4739978  20.4150014 110.5709992  13.3689978  20.8090014
 111.8129992  14.2319978  20.8610014 111.3693401  13.5621708  20.5292620
 112.7379992  11.7299978   5.9290014 113.5879992  12.1509978   6.0560014
 112.7429992  10.9899978   6.5360014 112.8551143  11.6876094   6.0284750
 113.1319992   9.7839978   7.7520014 112.4059992   9.3039978   8.1500014
 113.7139992   9.9889978   8.4850014 113.1112730   9.7460184   7.9054149
 112.8909992  12.5689978  12.7000014 113.7249992  12.1909978  12.4190014
 113.0029992  13.5119978  12.5810014 113.0201917  12.6447943  12.6454861
 111.3779992  15.4469978  15.0070014 110.7299992  15.7719978  15.6320014
 110.8599992  15.0059978  14.3330014 111.2194196  15.4318651  15.0014152
 113.4009992   9.6849978   4.1430014 112.8789992  10.0409978   3.4250014
 113.3679992  10.3599978   4.8220014 113.3250129   9.8249598   4.1363355
 111.7499992   6.9239978   2.6940014 111.8459992   7.5909978   2.0140014
 111.6099992   6.1089978   2.2130014 111.7442040   6.9050671   2.5358378
 110.9189992   8.3049978   8.3150014 110.7689992   7.3599978   8.2950014
 110.5649992   8.5859978   9.1590014 110.8506351   8.2136644   8.4263220
  95.9539992  10.3829978  12.3260014  96.1389992  10.3009978  11.3900014
  96.8039992  10.2589978  12.7490014  96.0940928  10.3550463  12.2552893
 111.7749992  10.2749978  17.9540014 112.3579992   9.5399978  18.1460014
 112.3389992  11.0469978  18.0010014 111.9309781  10.2788145  17.9866164
 113.2719992   8.1779978  18.6390014 112.4089992   7.7989978  18.4730014
 113.8759992   7.4389978  18.5640014 113.2356085   8.0263223  18.6061695
 110.9969992   4.3319978   1.8120014 111.6079992   3.9609978   2.4490014
 110.1599992   3.9109978   2.0080014 110.9674947   4.2242756   1.9257252
 110.6299992   5.8869978   6.7780014 110.9089992   4.9799978   6.9020014
 111.3889992   6.3209978   6.3890014 110.7708619   5.8214502   6.7423795
 111.2409992   6.4689978  12.2140014 112.1739992   6.6809978  12.1790014
 111.0059992   6.5699978  13.1360014 111.3369517   6.5116833  12.3339130
 111.2709992   7.2059978  14.9900014 110.4279992   7.4739978  15.3560014
 111.7129992   8.0279978  14.7790014 111.2154138   7.3538273  15.0115518
  95.5519992   5.6529978  18.4660014  96.4709992   5.5309978  18.7030014
  95.1019992   4.9029978  18.8560014  95.6170087   5.5349608  18.5511410
 113.5539992   1.1859978  20.3430014 113.9029992   0.5319978  19.7380014
 113.7009992   2.0229978  19.9030014 113.6216824   1.2096024  20.2006304
 111.2429992   3.1499978   6.8260014 111.4249992   2.7009978   7.6510014
 110.6429992   2.5659978   6.3620014 111.1868187   3.0095552   6.8762739
  96.7729992   3.9659978  11.3580014  97.2179992   3.1739978  11.6600014
  97.2389992   4.6819978  11.7880014  96.8969718   3.9544534  11.4575265
  95.0769992   6.9649978  12.4270014  95.5689992   6.7439978  11.6360014
  95.4389992   7.8049978  12.7080014  95.1932923   7.0483468  12.3567407
 113.0729992   3.2949978  18.6920014 112.1559992   3.5659978  18.6570014
 113.1959992   2.7599978  17.9080014 112.9639672   3.2597885  18.5811862
 113.1099992   3.2179978   3.3540014 113.5219992   2.4969978   2.8790014
 113.7909992   3.8869978   3.4120014 113.2585536   3.2097766   3.2968024
  95.3909992   3.2229978   6.4810014  94.4659992   3.4309978   6.3520014
  95.8449992   3.7069978   5.7910014  95.3256298   3.3169299   6.3700451
 110.1609992  18.2069978   8.4270014 110.8139992  17.8589978   7.8190014
 110.6719992  18.6949978   9.0730014 110.3192777  18.2253815   8.4312047
  95.3539992   1.9609978  14.8250014  94.6889992   1.7149978  15.4680014
  94.9109992   2.5829978  14.2480014  95.2031168   2.0114214  14.8349848
  97.5459992  15.1359978  18.9700014  96.7249992  15.3109978  18.5090014
  97.2939992  15.0629978  19.8900014  97.3995594  15.1500717  19.0313611
 100.4999992  16.1099978  15.2280014 100.0759992  16.9199978  14.9460014
 101.4049992  16.1959978  14.9260014 100.5642138  16.2324160  15.1486415
 104.8119992  17.5089978  18.1880014 104.9959992  17.1759978  19.0660014
 105.6579992  17.8189978  17.8660014 104.9516484  17.5052979  18.2647617
 107.1569992  18.7949978  17.4320014 107.8339992  18.1619978  17.1920014
 107.4779992  19.1959978  18.2390014 107.2931323  18.7625691  17.5083158
 112.0739992   1.3849978  16.5110014 111.2609992   1.7099978  16.1240014
 112.3069992   0.6239978  15.9780014 111.9941347   1.3266880  16.3859841
  97.9019992  19.3669978  15.2760014  97.1819992  19.8069978  14.8250014
  97.5369992  19.1159978  16.1240014  97.7539643  19.3933369  15.3289129
 100.3689992  18.9669978  14.3060014  99.5049992  19.0389978  14.7100014
 100.3139992  19.5139978  13.5220014 100.2431942  19.0507849  14.2554000
 105.0799992  18.8549978  13.4810014 104.6229992  19.3839978  12.8270014
 105.2429992  19.4579978  14.2060014 105.0394960  19.0089280  13.4895274
 107.4079992  17.7329978  14.4260014 106.5029992  17.8979978  14.1600014
 107.8359992  18.5859978  14.3600014 107.3421537  17.8709134  14.3807095
 110.0119992  19.3029978  14.7210014 109.8299992  20.2189978  14.5100014
 110.1889992  18.8919978  13.8740014 110.0110030  19.3728273  14.5777166
  97.3169992  17.9899978  12.1860014  97.2989992  17.5639978  13.0430014
  98.1219992  17.6709978  11.7770014  97.4232875  17.8886435  12.2479515
  99.4579992  16.6999978  10.8410014  99.2389992  15.7829978  11.0110014
 100.2819992  16.8399978  11.3070014  99.5394702  16.5935511  10.9272527
 101.9949992  17.1699978  11.6900014 102.2079992  16.2819978  11.4030014
 102.0599992  17.1349978  12.6440014 102.0329149  17.0438326  11.7797369
 105.5039992   2.8339978  10.8340014 104.8299992   2.2039978  11.0900014
 106.0679992   2.3499978  10.2310014 105.4880384   2.6823708  10.7875020
 110.6469992   0.9409978  10.9470014 111.2499992   1.4889978  10.4450014
 109.7769992   1.2599978  10.7060014 110.6119157   1.0590373  10.8457910
 112.3739992   2.0799978   9.2800014 112.9849992   1.5659978   8.7530014
 112.7559992   2.9569978   9.3030014 112.5093305   2.1282050   9.2109418
  97.8309992   1.4679978   8.6560014  97.0539992   1.2329978   8.1490014
  98.3609992   0.6709978   8.6650014  97.7963451   1.3281268   8.5878627
  96.6669992   1.2659978   4.4600014  97.1059992   1.8769978   3.8680014
  96.0329992   1.8039978   4.9340014  96.6413859   1.4224064   4.4430305
 102.4099992   1.3939978   8.4690014 103.2839992   1.7829978   8.4400014
 102.2739992   1.1789978   9.3920014 102.5111953   1.4181643   8.5897617
 107.9669992   1.4239978  10.1190014 108.0429992   1.5199978   9.1690014
 107.6919992   0.5169978  10.2470014 107.9401871   1.3144146  10.0063944
 109.3199992   1.4499978   5.8110014 108.6169992   2.0649978   5.6010014
 108.8749992   0.6129978   5.9420014 109.1636550   1.4209668   5.7999837
  96.5679992  17.2139978   5.3570014  95.8829992  17.1759978   4.6900014
  96.5719992  18.1269978   5.6450014  96.4747621  17.3321924   5.3046126
  98.5279992   3.1819978   2.9020014  99.0189992   2.5519978   2.3750014
  99.1509992   3.4779978   3.5650014  98.6795304   3.1357376   2.9194940
 103.5539992   3.4749978   5.3590014 103.7319992   2.8279978   6.0420014
 103.4999992   4.3089978   5.8260014 103.5710678   3.4991604   5.5156301
 105.4319992  18.4229978   3.7550014 106.2979992  18.7899978   3.5770014
 105.1859992  17.9839978   2.9410014 105.5172097  18.4138525   3.6206019
 112.1409992  17.9859978   6.4340014 111.9469992  17.2379978   5.8690014
 112.1019992  18.7439978   5.8510014 112.1091645  17.9860786   6.2778148
  97.7879992   1.9819978  18.1740014  97.4219992   1.2159978  18.6160014
  98.7009992   2.0109978  18.4600014  97.8613172   1.8810324  18.2731890
  99.7609992   1.3319978  19.7090014 100.6599992   1.0579978  19.5250014
  99.3749992   0.5899978  20.1740014  99.8317307   1.1942196  19.7467098
  98.3859992  18.1339978   2.3820014  98.1179992  18.4199978   3.2560014
  99.1569992  17.5879978   2.5350014  98.4535926  18.0992779   2.5221205
 108.1829992   0.6649978  19.8920014 108.2589992   0.2389978  20.7450014
 109.0759992   0.6779978  19.5490014 108.3142303   0.6083493  19.9625497
 111.3589992  16.7379978  18.5840014 110.5769992  16.5509978  18.0640014
 111.2869992  17.6669978  18.8010014 111.2421924  16.8380637  18.5421602
 125.7649992  10.6239978   8.6150014 125.8539992  11.5679978   8.4830014
 125.1269992  10.3489978   7.9570014 125.6909062  10.7159812   8.5079641
 124.6979992   9.8789978  12.0340014 124.6599992   9.2329978  12.7390014
 124.3759992   9.4119978  11.2630014 124.6492679   9.7274276  12.0262921
 117.0659992   9.4929978  13.6270014 117.1079992   8.8679978  14.3500014
 117.7689992  10.1169978  13.8090014 117.1667345   9.4917873  13.7505274
 128.4039992  12.8179978  10.3350014 127.9629992  12.0979978  10.7860014
 128.3909992  13.5389978  10.9650014 128.3419215  12.8169291  10.4818105
 117.9899992  13.9429978  12.1620014 117.6199992  13.1409978  11.7920014
 118.9309992  13.7749978  12.2080014 118.0665984  13.8104638  12.1175603
 114.5999992   7.6029978   7.5540014 114.1519992   8.4489978   7.5360014
 114.0389992   7.0239978   7.0390014 114.4628546   7.6403993   7.4818891
 115.3099992   9.7649978   9.6800014 115.5239992   8.9949978  10.2080014
 116.0479992   9.8549978   9.0770014 115.4390200   9.6718587   9.6707035
 125.5159992  17.9219978  10.5470014 126.1349992  17.2459978  10.2740014
 125.3069992  17.7039978  11.4560014 125.5726056  17.7998869  10.6323967
 123.0869992  12.3109978  12.4400014 123.3909992  11.6249978  11.8450014
 123.8089992  12.4299978  13.0580014 123.2261240  12.2332314  12.4420959
 131.7499992   3.9129978  13.3000014 131.7999992   4.5229978  14.0360014
 132.1759992   4.3739978  12.5770014 131.8144108   4.0587709  13.3030112
 126.2279992   6.7049978  12.7670014 126.3709992   5.7589978  12.7870014
 126.1219992   6.9119978  11.8390014 126.2332403   6.6034797  12.6442239
 119.3829992   4.8069978  10.0400014 119.4259992   5.6669978   9.6210014
 118.9249992   4.2549978   9.4060014 119.3269871   4.8499245   9.8970761
 127.1049992   4.9379978   8.4410014 127.7519992   4.6089978   9.0650014
 127.6149992   5.4549978   7.8180014 127.2624351   4.9629067   8.4421037
 116.0029992   7.2039978  10.8020014 116.6569992   6.6539978  11.2340014
 116.0269992   6.9299978   9.8850014 116.0957199   7.0917167  10.7371668
 121.1599992   8.7539978  10.0170014 121.7759992   8.2269978  10.5260014
 120.5729992   8.1139978   9.6130014 121.1650154   8.5953954  10.0320945
 132.1419992   5.3909978  15.5360014 131.4529992   6.0489978  15.4410014
 132.1569992   5.1929978  16.4730014 132.0497756   5.4542603  15.6495812
 118.1929992   3.7249978  14.1140014 117.9739992   4.2549978  13.3470014
 117.5249992   3.9509978  14.7610014 118.0726975   3.8280967  14.0965140
 125.5619992  13.2249978   7.6580014 125.2669992  12.9019978   6.8060014
 125.2379992  14.1249978   7.6990014 125.4778460  13.3024464   7.5469714
 120.7619992  11.3999978  14.4010014 120.0219992  11.9989978  14.5050014
 121.4759992  11.9539978  14.0860014 120.7573500  11.5567829  14.3726371
 128.8689992   4.2289978  10.4210014 128.6539992   3.4629978  10.9540014
 129.5249992   4.7009978  10.9340014 128.9282673   4.1880728  10.5631990
 117.7869992   5.6169978  12.0660014 118.4009992   6.2499978  12.4390014
 118.2989992   5.1449978  11.4100014 117.9401962   5.6397249  12.0282935
 119.1699992  13.3649978  15.1880014 119.1639992  14.2439978  14.8100014
 118.3159992  13.2809978  15.6130014 119.0537925  13.4739535  15.1936887
 115.2909992  13.0359978   5.9700014 115.0189992  13.2649978   5.0820014
 115.3359992  13.8729978   6.4310014 115.2598097  13.1806163   5.9106683
 128.9159992  14.6569978  12.6830014 127.9739992  14.7159978  12.8450014
 129.1919992  15.5629978  12.5460014 128.8245865  14.7875288  12.6866192
 129.2159992   2.9439978  14.1000014 128.4799992   3.5539978  14.0630014
 129.8999992   3.3589978  13.5740014 129.2075367   3.0837551  14.0238174
 122.2199992   1.0299978  11.5660014 122.1019992   0.0819978  11.5120014
 121.3649992   1.3629978  11.8390014 122.0882805   0.9452202  11.5955079
 127.1679992  16.4379978   9.3080014 127.5929992  15.7309978   8.8230014
 127.4849992  17.2399978   8.8910014 127.2690266  16.4495190   9.1852479
 128.3279992  14.3389978   7.8170014 128.0699992  13.6489978   7.2050014
 128.3989992  13.8959978   8.6620014 128.3023050  14.1846814   7.8475621
 130.0139992  12.9059978  16.2940014 130.1529992  12.3139978  15.5550014
 130.1809992  13.7789978  15.9380014 130.0556193  12.9428896  16.1446211
 124.4859992   9.8679978   6.0670014 123.7749992  10.4029978   5.7150014
 125.1769992   9.9229978   5.4070014 124.4820751   9.9486777   5.9295858
 124.5399992   8.3249978   3.1050014 125.2409992   8.3479978   3.7570014
 124.8419992   7.6969978   2.4490014 124.6768202   8.2432212   3.1055609
 131.8549992   9.2459978  14.3600014 131.2029992   9.9399978  14.4490014
 132.3209992   9.4559978  13.5500014 131.8285937   9.3695019  14.2627533
 127.8919992  10.0769978   7.0180014 127.1599992  10.3059978   7.5920014
 128.3389992   9.3639978   7.4730014 127.8523963  10.0118729   7.1579945
 127.7889992   8.2519978  16.0860014 127.8689992   9.0149978  16.6580014
 127.1879992   8.5309978  15.3960014 127.7186547   8.3942457  16.0710047
 119.5369992  10.7079978   8.9010014 119.2069992  10.3369978   8.0830014
 120.1259992  10.0369978   9.2480014 119.5713970  10.5666063   8.8359404
 120.9039992  14.1359978  11.5820014 120.8089992  13.5569978  10.8260014
 121.6329992  13.7649978  12.0780014 120.9896011  14.0065561  11.5456028
 119.9039992   9.4759978  12.5340014 120.4689992   9.5979978  11.7720014
 120.2229992  10.1139978  13.1730014 120.0244166   9.5788791  12.5160348
 126.2129992  14.9799978  13.2680014 125.9729992  15.6419978  13.9160014
 126.0149992  14.1449978  13.6930014 126.1533826  14.9578115  13.4141566
 120.7839992  13.8759978  17.2520014 120.4729992  14.6579978  17.7070014
 120.1339992  13.7229978  16.5660014 120.6535538  13.9624087  17.2215898
 126.7629992   9.2399978   4.7040014 127.3419992   9.3899978   5.4500014
 127.1769992   9.7099978   3.9800014 126.8983358   9.3240955   4.7083953
 117.7039992  10.0739978  16.4800014 117.7739992  10.7249978  17.1790014
 116.8129992  10.1769978  16.1450014 117.5931690  10.1769249  16.5303043
 124.4889992  15.9759978   8.1390014 124.9629992  16.2719978   8.9160014
 123.9259992  16.7149978   7.9060014 124.4777890  16.1163036   8.2138101
 119.0229992  15.9469978  18.0150014 119.0309992  15.8109978  17.0680014
 118.1069992  15.8299978  18.2670014 118.9002528  15.9125463  17.9193243
 130.4619992   0.9899978   4.5170014 129.5619992   1.1289978   4.8120014
 130.7139992   1.8209978   4.1150014 130.3728683   1.1214055   4.5030232
 118.5279992   9.7769978   6.4900014 118.2359992  10.5449978   5.9990014
 117.8529992   9.1179978   6.3270014 118.3968497   9.7929745   6.4008260
 131.6509992  15.3559978   2.8930014 131.7239992  16.2949978   3.0630014
 132.5559992  15.0509978   2.8370014 131.7834170  15.4433282   2.9087063
 114.6209992  12.1399978  15.3050014 114.1189992  12.1119978  14.4900014
 114.6259992  11.2349978  15.6150014 114.5529832  12.0137486  15.2354121
 114.3709992  14.9209978  12.1890014 115.3169992  14.7759978  12.1700014
 114.2579992  15.7049978  12.7260014 114.4853578  15.0071697  12.2590317
 132.5689992  15.5869978  17.8720014 132.5189992  14.6309978  17.8340014
 131.7419992  15.8539978  18.2730014 132.4503831  15.4924680  17.9210121
 123.5469992  15.1609978  16.7480014 123.6349992  15.9869978  17.2230014
 122.6839992  14.8309978  16.9970014 123.4423357  15.2295468  16.8467653
 123.9619992  18.9329978   6.5540014 123.8859992  18.8119978   5.6070014
 123.9939992  19.8819978   6.6720014 123.9559380  19.0447677   6.4405181
 117.6149992  17.7219978   8.3350014 117.7669992  17.3739978   9.2130014
 116.7639992  17.3649978   8.0790014 117.5208344  17.6260879   8.4206868
 127.0629992  18.0869978   3.5560014 127.4379992  17.3429978   3.0850014
 127.0679992  17.8169978   4.4740014 127.1150098  17.9486392   3.6156629
 126.7319992  18.0129978   6.3050014 125.7969992  18.1129978   6.4840014
 127.0119992  17.3029978   6.8840014 126.6419471  17.9307933   6.4076695
 129.7209992   7.0799978  18.3520014 129.3129992   7.5599978  17.6310014
 129.7609992   6.1739978  18.0440014 129.6706221   7.0232449  18.2118267
 116.8699992  13.4639978  16.3480014 117.0859992  13.1019978  17.2080014
 116.0139992  13.0889978  16.1390014 116.7838810  13.3638837  16.4372680
 119.4879992   1.9339978  12.3440014 118.6269992   1.8469978  11.9360014
 119.4659992   2.7899978  12.7720014 119.3670491   2.0378003  12.3459582
 124.1509992   1.6559978  15.7190014 124.5709992   1.2409978  16.4720014
 123.2179992   1.4769978  15.8360014 124.0823736   1.5749910  15.8378968
 127.4779992   5.4109978  16.5720014 126.9639992   5.2859978  17.3700014
 127.3219992   6.3239978  16.3280014 127.3866967   5.5172123  16.6480937
 128.2399992  10.2719978   2.3330014 128.2819992  10.0499978   1.4030014
 129.0889992  10.6709978   2.5230014 128.3605253  10.2955498   2.2313822
 123.8129992   4.1479978   3.0040014 123.5589992   4.1669978   3.9260014
 123.5559992   3.2769978   2.7020014 123.7434508   4.0328280   3.0894803
 119.5789992   6.8989978  13.4390014 118.9379992   6.8589978  14.1480014
 119.6169992   7.8259978  13.2010014 119.4963010   7.0187668  13.5039946
 119.5759992   7.1199978   8.3510014 118.6839992   6.7799978   8.2920014
 120.0269992   6.7429978   7.5950014 119.5147642   7.0224910   8.2407726
 125.1119992   7.5359978   7.1680014 124.7029992   8.3509978   6.8760014
 125.8319992   7.3959978   6.5540014 125.1534439   7.6285372   7.0450115
 124.2139992   7.7119978  18.6560014 123.6509992   7.0069978  18.9770014
 125.0399992   7.5909978  19.1240014 124.2486674   7.5992165  18.7631751
 126.1169992   6.9819978   9.9820014 125.9209992   7.5879978   9.2670014
 126.2979992   6.1489978   9.5480014 126.1146584   6.9522513   9.8254212
 117.3289992   7.2199978  15.3060014 117.2909992   7.6199978  16.1750014
 116.8389992   6.4029978  15.3960014 117.2575330   7.1642674  15.4371289
 120.6949992   4.5939978   2.1050014 120.2639992   4.1489978   2.8340014
 119.9769992   4.9649978   1.5920014 120.5389176   4.5832051   2.1354930
 113.9379992   4.3359978   9.1570014 114.5679992   4.3069978   9.8760014
 114.3869992   3.9109978   8.4260014 114.0850835   4.2745660   9.1567659
 115.2119992   5.0819978   4.5810014 115.6859992   5.6729978   3.9960014
 114.4939992   5.6119978   4.9280014 115.1798640   5.2345511   4.5477969
 125.3809992   8.6199978  14.6530014 125.7039992   7.9889978  14.0100014
 124.9399992   8.0859978  15.3140014 125.3656379   8.4613468  14.6542582
 122.1579992   4.5479978   9.4370014 121.2469992   4.6049978   9.7260014
 122.6629992   4.4879978  10.2480014 122.1016873   4.5476826   9.5861207
 116.9859992   6.1769978   8.2640014 116.0969992   6.2759978   7.9240014
 117.2829992   5.3349978   7.9180014 116.9044177   6.0767687   8.1706940
 120.6389992   6.1769978   5.9210014 121.5709992   6.3059978   6.0990014
 120.4239992   6.8459978   5.2710014 120.7374472   6.2850806   5.8574891
 126.5629992   3.7829978  12.7020014 125.8859992   3.9139978  13.3650014
 126.0779992   3.6279978  11.8910014 126.4047405   3.7799947  12.6832170
 119.3129992   7.3709978   3.4870014 118.7709992   6.9919978   2.7960014
 120.1469992   7.5659978   3.0590014 119.3514390   7.3454079   3.3344392
 129.8509992  19.4539978  18.9780014 130.0499992  19.8779978  18.1440014
 130.5059992  19.7979978  19.5850014 129.9668522  19.5586301  18.9457852
 117.4489992  11.9279978  18.5860014 118.1809992  12.1829978  19.1480014
 116.6679992  12.1329978  19.1020014 117.4436526  11.9905450  18.7325176
 123.4779992   7.3349978  11.3240014 124.0419992   6.7889978  10.7770014
 123.3299992   6.8139978  12.1130014 123.5353037   7.1896787  11.3557229
 118.4799992   3.4719978   7.7430014 118.1629992   2.5689978   7.7070014
 119.2609992   3.4739978   7.1900014 118.5422431   3.3487797   7.6633102
 122.1039992   5.7239978  13.7380014 121.2689992   6.1779978  13.8490014
 122.6279992   5.9999978  14.4900014 122.0606072   5.8233948  13.8548136
 122.6489992  11.9369978   5.4230014 121.9039992  11.4289978   5.1010014
 122.5139992  11.9859978   6.3690014 122.5288963  11.8741731   5.5068826
 129.7989992  11.0699978  14.2100014 130.4399992  11.5259978  13.6660014
 128.9679992  11.1829978  13.7470014 129.7745287  11.1476921  14.0729887
 126.5459992   4.7509978   3.6220014 125.6079992   4.8619978   3.4710014
 126.8439992   5.6069978   3.9290014 126.4576318   4.8820158   3.6428145
 124.1679992  12.1209978  16.6600014 123.8219992  11.7389978  17.4670014
 123.9679992  13.0539978  16.7310014 124.0935987  12.1949002  16.7800461
 127.2649992   6.6179978   5.2830014 128.1569992   6.4799978   5.6020014
 127.3209992   7.4089978   4.7460014 127.3947325   6.7059918   5.2541217
 117.7729992  11.2319978  11.1930014 118.5179992  11.2289978  10.5910014
 117.8509992  10.4079978  11.6740014 117.8853365  11.1202384  11.1757430
 124.7739992  13.3949978   4.4480014 124.4789992  14.2219978   4.8300014
 124.0709992  12.7759978   4.6450014 124.6386379  13.4244171   4.5268654
 114.7809992   9.6919978  16.5080014 115.0039992   9.2739978  17.3390014
 114.1789992   9.0799978  16.0850014 114.7301513   9.5519606  16.5646740
 121.7979992   9.2089978  18.7210014 121.5019992   9.0439978  17.8250014
 122.7289992   8.9889978  18.7100014 121.8834401   9.1566879  18.5970206
 126.4179992  14.5829978  16.6100014 125.5179992  14.7659978  16.3430014
 126.4519992  14.8419978  17.5310014 126.2993748  14.6430554  16.6979164
 132.1499992   6.8269978   4.9780014 131.5949992   6.4309978   4.3050014
 132.2499992   7.7379978   4.7000014 132.0876816   6.8959505   4.8485033
 132.1129992  12.6279978  17.8150014 131.2619992  12.8659978  17.4470014
 132.7029992  12.6109978  17.0620014 132.0763812  12.6582524  17.6628453
 130.4449992  15.6129978   5.4430014 130.0719992  14.7879978   5.7520014
 130.7219992  15.4299978   4.5450014 130.4313463  15.4752569   5.3639525
 127.6049992  10.4209978  12.4640014 126.6769992  10.1899978  12.4370014
 128.0559992   9.6439978  12.1340014 127.5388165  10.2842774  12.4156790
 120.1479992  14.7499978   8.5970014 120.6759992  15.5229978   8.3970014
 119.2679992  14.9739978   8.2950014 120.1013435  14.8862700   8.5287310
 115.9029992   9.6119978   3.1840014 116.5189992  10.2389978   3.5640014
 115.0409992   9.9279978   3.4560014 115.8707678   9.7404412   3.2727209
 121.5759992  12.4129978   8.1730014 121.3349992  13.3379978   8.2150014
 120.8349992  11.9539978   8.5700014 121.4429206  12.4775915   8.2323769
 122.0899992  16.5619978  14.4880014 122.4529992  17.4159978  14.2550014
 122.6219992  16.2699978  15.2290014 122.2115141  16.6393895  14.5562097
 120.2589992  17.4339978   7.7190014 119.3089992  17.5399978   7.7700014
 120.6109992  18.2549978   8.0630014 120.1765472  17.5594923   7.7724852
 125.6339992  12.6609978  14.1890014 125.2089992  12.4329978  15.0150014
 126.2149992  11.9219978  14.0070014 125.6543395  12.5299545  14.2774414
 127.8369992  13.5899978   3.2630014 128.1909992  13.2099978   4.0670014
 126.8889992  13.4959978   3.3500014 127.7572298  13.5252452   3.3848687
 128.2929992  17.2129978  16.6580014 127.6909992  16.6569978  16.1630014
 128.5739992  17.8799978  16.0320014 128.2485757  17.2270744  16.5055675
 132.3409992  18.0689978   3.4640014 133.0849992  18.6549978   3.3240014
 131.6469992  18.6379978   3.7970014 132.3489809  18.2260818   3.4898590
 116.4149992   4.4459978  16.0660014 115.5229992   4.7839978  15.9980014
 116.3169992   3.5899978  16.4840014 116.2794475   4.3766543  16.1131704
 128.7029992  12.2619978   5.4900014 128.4259992  11.5339978   6.0460014
 129.6309992  12.3809978   5.6950014 128.7904499  12.1784213   5.5938044
 116.0669992  16.2499978  14.5010014 116.2839992  15.3179978  14.4700014
 116.3129992  16.5249978  15.3840014 116.1299809  16.1595686  14.6161691
 121.9279992  14.7019978   1.7100014 122.1669992  13.9529978   1.1630014
 121.6589992  14.3139978   2.5430014 121.9243233  14.5471853   1.7477809
 120.8649992  14.2719978   4.1660014 121.0119992  13.7519978   4.9560014
 120.8619992  15.1789978   4.4730014 120.8847102  14.3233953   4.3155925
 117.3179992  11.5239978   4.6770014 116.6319992  11.8769978   5.2440014
 117.8409992  12.2869978   4.4300014 117.2948402  11.6753901   4.7211801
 125.1499992   4.1869978  14.9560014 125.8489992   4.2609978  15.6060014
 124.7689992   3.3219978  15.1100014 125.1942097   4.0802389  15.0657997
 125.9339992   3.8389978   6.0530014 126.1539992   4.3099978   5.2490014
 126.4929992   4.2329978   6.7230014 126.0396731   3.9567287   6.0335033
 123.6029992  15.9689978   4.9160014 122.7859992  16.4659978   4.9680014
 124.1319992  16.4449978   4.2750014 123.5628125  16.1011989   4.8365306
 123.1339992   5.5669978   6.8880014 123.9459992   6.0709978   6.9340014
 122.8899992   5.4219978   7.8020014 123.2121467   5.6163749   7.0178575
 123.6699992   6.5529978  16.0720014 123.7889992   7.1269978  16.8290014
 124.3249992   5.8649978  16.1870014 123.7748684   6.5385194  16.1911674
 124.0179992   2.6479978   7.8260014 123.6709992   3.2649978   8.4700014
 124.6769992   3.1489978   7.3440014 124.0595090   2.8001575   7.8490681
 120.9409992  17.0129978   4.8970014 121.1019992  17.8129978   4.3970014
 120.7439992  17.3199978   5.7820014 120.9363906  17.1638678   4.9482333
 119.6759992   3.7109978   4.5130014 119.5919992   4.5989978   4.8600014
 120.5659992   3.4459978   4.7450014 119.7848163   3.7967179   4.5918596
 129.8739992   4.4599978  16.9070014 128.9579992   4.7219978  16.8200014
 130.2099992   4.4569978  16.0110014 129.7938499   4.4955163  16.7738766
 128.4769992   8.2099978  11.0030014 127.6789992   7.7949978  10.6750014
 128.9219992   7.5199978  11.4940014 128.4279684   8.0598628  11.0245227
 117.9339992  14.1379978   3.5730014 118.5259992  14.8379978   3.8500014
 118.3929992  13.7049978   2.8540014 118.0771652  14.1752675   3.5136533
 116.2499992   6.8029978   2.6890014 116.2049992   7.7419978   2.8680014
 115.3619992   6.5669978   2.4200014 116.1238166   6.8996687   2.6771524
 129.5629992  17.4659978  12.6250014 129.4069992  18.1449978  11.9680014
 130.4959992  17.5379978  12.8280014 129.6677387  17.5686390  12.5625342
 117.0579992   1.5839978  11.3630014 116.8289992   1.6429978  10.4350014
 116.6159992   0.7929978  11.6690014 116.9668801   1.4850540  11.2774729
 115.9889992  15.5249978   7.5230014 115.1559992  15.9969978   7.5500014
 116.5339992  16.0349978   6.9240014 115.9487857  15.6584791   7.4457142
 115.2769992  18.1369978  18.8530014 115.8169992  17.9209978  19.6130014
 114.7959992  17.3319978  18.6630014 115.2859219  17.9985156  18.9314282
 119.8739992  17.0569978  20.4730014 120.6419992  16.5979978  20.8140014
 119.8529992  16.8309978  19.5430014 119.9762135  16.9636668  20.3939491
 123.9659992  16.5649978   1.8490014 123.3219992  15.9339978   2.1700014
 124.7279992  16.0339978   1.6170014 123.9808058  16.4067902   1.8616038
 126.4509992  15.4369978  19.2020014 126.0999992  14.5799978  19.4460014
 127.1769992  15.5789978  19.8090014 126.5011895  15.3391351  19.3173770
 128.5709992  16.3819978   2.0820014 128.8539992  15.5869978   2.5350014
 129.3099992  16.6149978   1.5210014 128.7097096  16.3047049   2.0681104
 115.1839992  11.9479978  19.8070014 115.3279992  11.0459978  19.5210014
 114.4119992  12.2339978  19.3200014 115.0992733  11.8631798  19.7019532
 119.5249992  12.2909978   1.9400014 119.5899992  11.4969978   2.4700014
 120.1779992  12.1729978   1.2500014 119.6221605  12.1663430   1.9192997
 121.8389992  11.9169978  19.2400014 121.5109992  12.1879978  18.3830014
 121.9909992  10.9759978  19.1520014 121.8146412  11.8269046  19.1107822
 124.8779992  13.3379978   1.6760014 124.6089992  13.5189978   2.5760014
 124.6709992  12.4129978   1.5440014 124.8131191  13.2377119   1.7815524
 127.5739992  11.8329978  16.6230014 128.3189992  12.4219978  16.5040014
 126.8169992  12.4149978  16.6870014 127.5735470  11.9922128  16.6153799
 116.0169992   9.1479978  19.2270014 116.4249992   8.2909978  19.1060014
 115.7559992   9.1619978  20.1480014 116.0376016   9.0325119  19.3349192
 120.6749992  10.2639978   4.2460014 120.2149992   9.7799978   4.9310014
 120.9299992   9.5949978   3.6100014 120.6464856  10.1073669   4.2538397
 119.9639992   8.1569978  16.6020014 119.3449992   8.8309978  16.8820014
 120.3079992   8.4779978  15.7680014 119.9257123   8.2926887  16.5276388
 121.7459992   8.5069978   2.5080014 121.5649992   8.3519978   1.5810014
 122.6959992   8.6149978   2.5530014 121.8496566   8.5003669   2.3870929
 124.9829992  10.6279978  19.8790014 125.9369992  10.7119978  19.8520014
 124.8229992   9.9159978  20.4990014 125.0917182  10.5432842  19.9590733
 131.1359992  10.8609978   1.9540014 130.8619992  10.4369978   1.1410014
 131.1749992  11.7929978   1.7370014 131.1037716  10.9288827   1.8134286
 120.3029992   5.5119978  17.6840014 120.4529992   4.7829978  17.0820014
 120.3049992   6.2889978  17.1250014 120.3237967   5.5172708  17.5260541
 120.7159992   3.8809978  15.1770014 121.2509992   4.3329978  14.5250014
 119.8629992   3.7729978  14.7540014 120.6740374   3.9282665  15.0306710
 122.2969992   9.3209978  15.4160014 123.0479992   9.1649978  14.8430014
 121.9579992  10.1729978  15.1410014 122.3539587   9.4148138  15.3004078
 126.7129992   7.1359978  20.4450014 126.9049992   6.2049978  20.3330014
 127.5709992   7.5609978  20.4340014 126.8552182   7.0660070  20.4281862
 128.0299992   9.9249978  18.5220014 127.7479992  10.6339978  17.9440014
 128.9719992   9.8519978  18.3710014 128.1187921  10.0122193  18.4224225
 118.7819992   6.7099978  19.5950014 118.0139992   6.1769978  19.3850014
 119.4599992   6.3999978  18.9960014 118.7687235   6.5951754  19.4852413
 121.5209992   1.3379978  15.6080014 121.4229992   2.2839978  15.5030014
 120.7789992   0.9649978  15.1320014 121.4072534   1.4171773  15.5292600
 122.7849992   5.6589978  19.1720014 122.5499992   5.4399978  20.0730014
 122.0019992   5.4519978  18.6620014 122.6469095   5.6009892  19.2265353
 125.5009992   4.7869978  18.2470014 124.5529992   4.8189978  18.3790014
 125.8129992   4.1609978  18.9010014 125.4135293   4.7067923  18.3534148
 127.1349992   3.4209978  20.2520014 127.0379992   2.4689978  20.2470014
 126.8129992   3.6889978  21.1130014 127.0782468   3.3270884  20.3676210
 116.9619992   4.6299978  19.3000014 117.1739992   3.9239978  18.6900014
 116.8509992   4.1929978  20.1440014 116.9760269   4.4741921  19.3305873
 121.7429992   0.6319978  18.2790014 122.4549992  -0.0080022  18.2650014
 121.6419992   0.8979978  17.3660014 121.8267387   0.5804330  18.1535563
 122.0969992   2.3139978  20.3330014 121.9649992   1.8389978  19.5130014
 121.4969992   3.0589978  20.2780014 121.9979070   2.3495789  20.2133251
 121.6429992  19.1969978   3.5090014 122.5759992  19.3549978   3.6530014
 121.3789992  19.8729978   2.8840014 121.7349911  19.3099373   3.4442722
 115.2109992  13.8339978   2.9920014 116.1249992  13.9129978   3.2650014
 115.2189992  13.1469978   2.3260014 115.3370655  13.7519205   2.9392917
 113.8599992  19.2269978   8.0690014 113.2129992  18.7649978   7.5370014
 114.2149992  18.5549978   8.6520014 113.8193741  19.0729774   8.0749175
 114.7299992  17.3069978   9.8740014 114.3959992  16.4269978  10.0460014
 114.9529992  17.6529978  10.7390014 114.7143721  17.2331938  10.0144168
 132.2789992  18.1169978  12.8550014 132.2569992  18.3019978  13.7940014
 132.9689992  18.6849978  12.5140014 132.3693439  18.2191887  12.9374791
 131.8419992  17.6839978  15.7760014 131.3549992  16.9489978  15.4050014
 132.3909992  17.2899978  16.4540014 131.8495247  17.5301057  15.8168461
 130.2929992  13.4739978  20.4150014 129.4269992  13.3689978  20.8090014
 130.6689992  14.2319978  20.8610014 130.2253401  13.5621708  20.5292620
 131.5939992  11.7299978   5.9290014 132.4439992  12.1509978   6.0560014
 131.5989992  10.9899978   6.5360014 131.7111143  11.6876094   6.0284750
 131.9879992   9.7839978   7.7520014 131.2619992   9.3039978   8.1500014
 132.5699992   9.9889978   8.4850014 131.9672730   9.7460184   7.9054149
 131.7469992  12.5689978  12.7000014 132.5809992  12.1909978  12.4190014
 131.8589992  13.5119978  12.5810014 131.8761917  12.6447943  12.6454861
 130.2339992  15.4469978  15.0070014 129.5859992  15.7719978  15.6320014
 129.7159992  15.0059978  14.3330014 130.0754196  15.4318651  15.0014152
 132.2569992   9.6849978   4.1430014 131.7349992  10.0409978   3.4250014
 132.2239992  10.3599978   4.8220014 132.1810129   9.8249598   4.1363355
 130.6059992   6.9239978   2.6940014 130.7019992   7.5909978   2.0140014
 130.4659992   6.1089978   2.2130014 130.6002040   6.9050671   2.5358378
 129.7749992   8.3049978   8.3150014 129.6249992   7.3599978   8.2950014
 129.4209992   8.5859978   9.1590014 129.7066351   8.2136644   8.4263220
 114.8099992  10.3829978  12.3260014 114.9949992  10.3009978  11.3900014
 115.6599992  10.2589978  12.7490014 114.9500928  10.3550463  12.2552893
 130.6309992  10.2749978  17.9540014 131.2139992   9.5399978  18.1460014
 131.1949992  11.0469978  18.0010014 130.7869781  10.2788145  17.9866164
 132.1279992   8.1779978  18.6390014 131.2649992   7.7989978  18.4730014
 132.7319992   7.4389978  18.5640014 132.0916085   8.0263223  18.6061695
 129.8529992   4.3319978   1.8120014 130.4639992   3.9609978   2.4490014
 129.0159992   3.9109978   2.0080014 129.8234947   4.2242756   1.9257252
 129.4859992   5.8869978   6.7780014 129.7649992   4.9799978   6.9020014
 130.2449992   6.3209978   6.3890014 129.6268619   5.8214502   6.7423795
 130.0969992   6.4689978  12.2140014 131.0299992   6.6809978  12.1790014
 129.8619992   6.5699978  13.1360014 130.1929517   6.5116833  12.3339130
 130.1269992   7.2059978  14.9900014 129.2839992   7.4739978  15.3560014
 130.5689992   8.0279978  14.7790014 130.0714138   7.3538273  15.0115518
 114.4079992   5.6529978  18.4660014 115.3269992   5.5309978  18.7030014
 113.9579992   4.9029978  18.8560014 114.4730087   5.5349608  18.5511410
 132.4099992   1.1859978  20.3430014 132.7589992   0.5319978  19.7380014
 132.5569992   2.0229978  19.9030014 132.4776824   1.2096024  20.2006304
 130.0989992   3.1499978   6.8260014 130.2809992   2.7009978   7.6510014
 129.4989992   2.5659978   6.3620014 130.0428187   3.0095552   6.8762739
 115.6289992   3.9659978  11.3580014 116.0739992   3.1739978  11.6600014
 116.0949992   4.6819978  11.7880014 115.7529718   3.9544534  11.4575265
 113.9329992   6.9649978  12.4270014 114.4249992   6.7439978  11.6360014
 114.2949992   7.8049978  12.7080014 114.0492923   7.0483468  12.3567407
 131.9289992   3.2949978  18.6920014 131.0119992   3.5659978  18.6570014
 132.0519992   2.7599978  17.9080014 131.8199672   3.2597885  18.5811862
 131.9659992   3.2179978   3.3540014 132.3779992   2.4969978   2.8790014
 132.6469992   3.8869978   3.4120014 132.1145536   3.2097766   3.2968024
 114.2469992   3.2229978   6.4810014 113.3219992   3.4309978   6.3520014
 114.7009992   3.7069978   5.7910014 114.1816298   3.3169299   6.3700451
 129.0169992  18.2069978   8.4270014 129.6699992  17.8589978   7.8190014
 129.5279992  18.6949978   9.0730014 129.1752777  18.2253815   8.4312047
 114.2099992   1.9609978  14.8250014 113.5449992   1.7149978  15.4680014
 113.7669992   2.5829978  14.2480014 114.0591168   2.0114214  14.8349848
 116.4019992  15.1359978  18.9700014 115.5809992  15.3109978  18.5090014
 116.1499992  15.0629978  19.8900014 116.2555594  15.1500717  19.0313611
 119.3559992  16.1099978  15.2280014 118.9319992  16.9199978  14.9460014
 120.2609992  16.1959978  14.9260014 119.4202138  16.2324160  15.1486415
 123.6679992  17.5089978  18.1880014 123.8519992  17.1759978  19.0660014
 124.5139992  17.8189978  17.8660014 123.8076484  17.5052979  18.2647617
 126.0129992  18.7949978  17.4320014 126.6899992  18.1619978  17.1920014
 126.3339992  19.1959978  18.2390014 126.1491323  18.7625691  17.5083158
 130.9299992   1.3849978  16.5110014 130.1169992   1.7099978  16.1240014
 131.1629992   0.6239978  15.9780014 130.8501347   1.3266880  16.3859841
 116.7579992  19.3669978  15.2760014 116.0379992  19.8069978  14.8250014
 116.3929992  19.1159978  16.1240014 116.6099643  19.3933369  15.3289129
 119.2249992  18.9669978  14.3060014 118.3609992  19.0389978  14.7100014
 119.1699992  19.5139978  13.5220014 119.0991942  19.0507849  14.2554000
 123.9359992  18.8549978  13.4810014 123.4789992  19.3839978  12.8270014
 124.0989992  19.4579978  14.2060014 123.8954960  19.0089280  13.4895274
 126.2639992  17.7329978  14.4260014 125.3589992  17.8979978  14.1600014
 126.6919992  18.5859978  14.3600014 126.1981537  17.8709134  14.3807095
 128.8679992  19.3029978  14.7210014 128.6859992  20.2189978  14.5100014
 129.0449992  18.8919978  13.8740014 128.8670030  19.3728273  14.5777166
 116.1729992  17.9899978  12.1860014 116.1549992  17.5639978  13.0430014
 116.9779992  17.6709978  11.7770014 116.2792875  17.8886435  12.2479515
 118.3139992  16.6999978  10.8410014 118.0949992  15.7829978  11.0110014
 119.1379992  16.8399978  11.3070014 118.3954702  16.5935511  10.9272527
 120.8509992  17.1699978  11.6900014 121.0639992  16.2819978  11.4030014
 120.9159992  17.1349978  12.6440014 120.8889149  17.0438326  11.7797369
 124.3599992   2.8339978  10.8340014 123.6859992   2.2039978  11.0900014
 124.9239992   2.3499978  10.2310014 124.3440384   2.6823708  10.7875020
 129.5029992   0.9409978  10.9470014 130.1059992   1.4889978  10.4450014
 128.6329992   1.2599978  10.7060014 129.4679157   1.0590373  10.8457910
 131.2299992   2.0799978   9.2800014 131.8409992   1.5659978   8.7530014
 131.6119992   2.9569978   9.3030014 131.3653305   2.1282050   9.2109418
 116.6869992   1.4679978   8.6560014 115.9099992   1.2329978   8.1490014
 117.2169992   0.6709978   8.6650014 116.6523451   1.3281268   8.5878627
 115.5229992   1.2659978   4.4600014 115.9619992   1.8769978   3.8680014
 114.8889992   1.8039978   4.9340014 115.4973859   1.4224064   4.4430305
 121.2659992   1.3939978   8.4690014 122.1399992   1.7829978   8.4400014
 121.1299992   1.1789978   9.3920014 121.3671953   1.4181643   8.5897617
 126.8229992   1.4239978  10.1190014 126.8989992   1.5199978   9.1690014
 126.5479992   0.5169978  10.2470014 126.7961871   1.3144146  10.0063944
 128.1759992   1.4499978   5.8110014 127.4729992   2.0649978   5.6010014
 127.7309992   0.6129978   5.9420014 128.0196550   1.4209668   5.7999837
 115.4239992  17.2139978   5.3570014 114.7389992  17.1759978   4.6900014
 115.4279992  18.1269978   5.6450014 115.3307621  17.3321924   5.3046126
 117.3839992   3.1819978   2.9020014 117.8749992   2.5519978   2.3750014
 118.0069992   3.4779978   3.5650014 117.5355304   3.1357376   2.9194940
 122.4099992   3.4749978   5.3590014 122.5879992   2.8279978   6.0420014
 122.3559992   4.3089978   5.8260014 122.4270678   3.4991604   5.5156301
 124.2879992  18.4229978   3.7550014 125.1539992  18.7899978   3.5770014
 124.0419992  17.9839978   2.9410014 124.3732097  18.4138525   3.6206019
 130.9969992  17.9859978   6.4340014 130.8029992  17.2379978   5.8690014
 130.9579992  18.7439978   5.8510014 130.9651645  17.9860786   6.2778148
 116.6439992   1.9819978  18.1740014 116.2779992   1.2159978  18.6160014
 117.5569992   2.0109978  18.4600014 116.7173172   1.8810324  18.2731890
 118.6169992   1.3319978  19.7090014 119.5159992   1.0579978  19.5250014
 118.2309992   0.5899978  20.1740014 118.6877307   1.1942196  19.7467098
 117.2419992  18.1339978   2.3820014 116.9739992  18.4199978   3.2560014
 118.0129992  17.5879978   2.5350014 117.3095926  18.0992779   2.5221205
 127.0389992   0.6649978  19.8920014 127.1149992   0.2389978  20.7450014
 127.9319992   0.6779978  19.5490014 127.1702303   0.6083493  19.9625497
 130.2149992  16.7379978  18.5840014 129.4329992  16.5509978  18.0640014
 130.1429992  17.6669978  18.8010014 130.0981924  16.8380637  18.5421602
 144.6209992  10.6239978   8.6150014 144.7099992  11.5679978   8.4830014
 143.9829992  10.3489978   7.9570014 144.5469062  10.7159812   8.5079641
 143.5539992   9.8789978  12.0340014 143.5159992   9.2329978  12.7390014
 143.2319992   9.4119978  11.2630014 143.5052679   9.7274276  12.0262921
 135.9219992   9.4929978  13.6270014 135.9639992   8.8679978  14.3500014
 136.6249992  10.1169978  13.8090014 136.0227345   9.4917873  13.7505274
 136.8459992  13.9429978  12.1620014 136.4759992  13.1409978  11.7920014
 137.7869992  13.7749978  12.2080014 136.9225984  13.8104638  12.1175603
 133.4559992   7.6029978   7.5540014 133.0079992   8.4489978   7.5360014
 132.8949992   7.0239978   7.0390014 133.3188546   7.6403993   7.4818891
 134.1659992   9.7649978   9.6800014 134.3799992   8.9949978  10.2080014
 134.9039992   9.8549978   9.0770014 134.2950200   9.6718587   9.6707035
 144.3719992  17.9219978  10.5470014 144.9909992  17.2459978  10.2740014
 144.1629992  17.7039978  11.4560014 144.4286056  17.7998869  10.6323967
 141.9429992  12.3109978  12.4400014 142.2469992  11.6249978  11.8450014
 142.6649992  12.4299978  13.0580014 142.0821240  12.2332314  12.4420959
 145.0839992   6.7049978  12.7670014 145.2269992   5.7589978  12.7870014
 144.9779992   6.9119978  11.8390014 145.0892403   6.6034797  12.6442239
 138.2389992   4.8069978  10.0400014 138.2819992   5.6669978   9.6210014
 137.7809992   4.2549978   9.4060014 138.1829871   4.8499245   9.8970761
 134.8589992   7.2039978  10.8020014 135.5129992   6.6539978  11.2340014
 134.8829992   6.9299978   9.8850014 134.9517199   7.0917167  10.7371668
 140.0159992   8.7539978  10.0170014 140.6319992   8.2269978  10.5260014
 139.4289992   8.1139978   9.6130014 140.0210154   8.5953954  10.0320945
 137.0489992   3.7249978  14.1140014 136.8299992   4.2549978  13.3470014
 136.3809992   3.9509978  14.7610014 136.9286975   3.8280967  14.0965140
 144.4179992  13.2249978   7.6580014 144.1229992  12.9019978   6.8060014
 144.0939992  14.1249978   7.6990014 144.3338460  13.3024464   7.5469714
 139.6179992  11.3999978  14.4010014 138.8779992  11.9989978  14.5050014
 140.3319992  11.9539978  14.0860014 139.6133500  11.5567829  14.3726371
 136.6429992   5.6169978  12.0660014 137.2569992   6.2499978  12.4390014
 137.1549992   5.1449978  11.4100014 136.7961962   5.6397249  12.0282935
 138.0259992  13.3649978  15.1880014 138.0199992  14.2439978  14.8100014
 137.1719992  13.2809978  15.6130014 137.9097925  13.4739535  15.1936887
 134.1469992  13.0359978   5.9700014 133.8749992  13.2649978   5.0820014
 134.1919992  13.8729978   6.4310014 134.1158097  13.1806163   5.9106683
 141.0759992   1.0299978  11.5660014 140.9579992   0.0819978  11.5120014
 140.2209992   1.3629978  11.8390014 140.9442805   0.9452202  11.5955079
 143.3419992   9.8679978   6.0670014 142.6309992  10.4029978   5.7150014
 144.0329992   9.9229978   5.4070014 143.3380751   9.9486777   5.9295858
 143.3959992   8.3249978   3.1050014 144.0969992   8.3479978   3.7570014
 143.6979992   7.6969978   2.4490014 143.5328202   8.2432212   3.1055609
 138.3929992  10.7079978   8.9010014 138.0629992  10.3369978   8.0830014
 138.9819992  10.0369978   9.2480014 138.4273970  10.5666063   8.8359404
 139.7599992  14.1359978  11.5820014 139.6649992  13.5569978  10.8260014
 140.4889992  13.7649978  12.0780014 139.8456011  14.0065561  11.5456028
 138.7599992   9.4759978  12.5340014 139.3249992   9.5979978  11.7720014
 139.0789992  10.1139978  13.1730014 138.8804166   9.5788791  12.5160348
 145.0689992  14.9799978  13.2680014 144.8289992  15.6419978  13.9160014
 144.8709992  14.1449978  13.6930014 145.0093826  14.9578115  13.4141566
 139.6399992  13.8759978  17.2520014 139.3289992  14.6579978  17.7070014
 138.9899992  13.7229978  16.5660014 139.5095538  13.9624087  17.2215898
 136.5599992  10.0739978  16.4800014 136.6299992  10.7249978  17.1790014
 135.6689992  10.1769978  16.1450014 136.4491690  10.1769249  16.5303043
 143.3449992  15.9759978   8.1390014 143.8189992  16.2719978   8.9160014
 142.7819992  16.7149978   7.9060014 143.3337890  16.1163036   8.2138101
 137.8789992  15.9469978  18.0150014 137.8869992  15.8109978  17.0680014
 136.9629992  15.8299978  18.2670014 137.7562528  15.9125463  17.9193243
 137.3839992   9.7769978   6.4900014 137.0919992  10.5449978   5.9990014
 136.7089992   9.1179978   6.3270014 137.2528497   9.7929745   6.4008260
 133.4769992  12.1399978  15.3050014 132.9749992  12.1119978  14.4900014
 133.4819992  11.2349978  15.6150014 133.4089832  12.0137486  15.2354121
 133.2269992  14.9209978  12.1890014 134.1729992  14.7759978  12.1700014
 133.1139992  15.7049978  12.7260014 133.3413578  15.0071697  12.2590317
 142.4029992  15.1609978  16.7480014 142.4909992  15.9869978  17.2230014
 141.5399992  14.8309978  16.9970014 142.2983357  15.2295468  16.8467653
 142.8179992  18.9329978   6.5540014 142.7419992  18.8119978   5.6070014
 142.8499992  19.8819978   6.6720014 142.8119380  19.0447677   6.4405181
 136.4709992  17.7219978   8.3350014 136.6229992  17.3739978   9.2130014
 135.6199992  17.3649978   8.0790014 136.3768344  17.6260879   8.4206868
 135.7259992  13.4639978  16.3480014 135.9419992  13.1019978  17.2080014
 134.8699992  13.0889978  16.1390014 135.6398810  13.3638837  16.4372680
 138.3439992   1.9339978  12.3440014 137.4829992   1.8469978  11.9360014
 138.3219992   2.7899978  12.7720014 138.2230491   2.0378003  12.3459582
 143.0069992   1.6559978  15.7190014 143.4269992   1.2409978  16.4720014
 142.0739992   1.4769978  15.8360014 142.9383736   1.5749910  15.8378968
 142.6689992   4.1479978   3.0040014 142.4149992   4.1669978   3.9260014
 142.4119992   3.2769978   2.7020014 142.5994508   4.0328280   3.0894803
 138.4349992   6.8989978  13.4390014 137.7939992   6.8589978  14.1480014
 138.4729992   7.8259978  13.2010014 138.3523010   7.0187668  13.5039946
 138.4319992   7.1199978   8.3510014 137.5399992   6.7799978   8.2920014
 138.8829992   6.7429978   7.5950014 138.3707642   7.0224910   8.2407726
 143.9679992   7.5359978   7.1680014 143.5589992   8.3509978   6.8760014
 144.6879992   7.3959978   6.5540014 144.0094439   7.6285372   7.0450115
 143.0699992   7.7119978  18.6560014 142.5069992   7.0069978  18.9770014
 143.8959992   7.5909978  19.1240014 143.1046674   7.5992165  18.7631751
 144.9729992   6.9819978   9.9820014 144.7769992   7.5879978   9.2670014
 145.1539992   6.1489978   9.5480014 144.9706584   6.9522513   9.8254212
 136.1849992   7.2199978  15.3060014 136.1469992   7.6199978  16.1750014
 135.6949992   6.4029978  15.3960014 136.1135330   7.1642674  15.4371289
 139.5509992   4.5939978   2.1050014 139.1199992   4.1489978   2.8340014
 138.8329992   4.9649978   1.5920014 139.3949176   4.5832051   2.1354930
 132.7939992   4.3359978   9.1570014 133.4239992   4.3069978   9.8760014
 133.2429992   3.9109978   8.4260014 132.9410835   4.2745660   9.1567659
 134.0679992   5.0819978   4.5810014 134.5419992   5.6729978   3.9960014
 133.3499992   5.6119978   4.9280014 134.0358640   5.2345511   4.5477969
 144.2369992   8.6199978  14.6530014 144.5599992   7.9889978  14.0100014
 143.7959992   8.0859978  15.3140014 144.2216379   8.4613468  14.6542582
 141.0139992   4.5479978   9.4370014 140.1029992   4.6049978   9.7260014
 141.5189992   4.4879978  10.2480014 140.9576873   4.5476826   9.5861207
 135.8419992   6.1769978   8.2640014 134.9529992   6.2759978   7.9240014
 136.1389992   5.3349978   7.9180014 135.7604177   6.0767687   8.1706940
 139.4949992   6.1769978   5.9210014 140.4269992   6.3059978   6.0990014
 139.2799992   6.8459978   5.2710014 139.5934472   6.2850806   5.8574891
 145.4189992   3.7829978  12.7020014 144.7419992   3.9139978  13.3650014
 144.9339992   3.6279978  11.8910014 145.2607405   3.7799947  12.6832170
 138.1689992   7.3709978   3.4870014 137.6269992   6.9919978   2.7960014
 139.0029992   7.5659978   3.0590014 138.2074390   7.3454079   3.3344392
 136.3049992  11.9279978  18.5860014 137.0369992  12.1829978  19.1480014
 135.5239992  12.1329978  19.1020014 136.2996526  11.9905450  18.7325176
 142.3339992   7.3349978  11.3240014 142.8979992   6.7889978  10.7770014
 142.1859992   6.8139978  12.1130014 142.3913037   7.1896787  11.3557229
 137.3359992   3.4719978   7.7430014 137.0189992   2.5689978   7.7070014
 138.1169992   3.4739978   7.1900014 137.3982431   3.3487797   7.6633102
 140.9599992   5.7239978  13.7380014 140.1249992   6.1779978  13.8490014
 141.4839992   5.9999978  14.4900014 140.9166072   5.8233948  13.8548136
 141.5049992  11.9369978   5.4230014 140.7599992  11.4289978   5.1010014
 141.3699992  11.9859978   6.3690014 141.3848963  11.8741731   5.5068826
 145.4019992   4.7509978   3.6220014 144.4639992   4.8619978   3.4710014
 145.6999992   5.6069978   3.9290014 145.3136318   4.8820158   3.6428145
 143.0239992  12.1209978  16.6600014 142.6779992  11.7389978  17.4670014
 142.8239992  13.0539978  16.7310014 142.9495987  12.1949002  16.7800461
 136.6289992  11.2319978  11.1930014 137.3739992  11.2289978  10.5910014
 136.7069992  10.4079978  11.6740014 136.7413365  11.1202384  11.1757430
 143.6299992  13.3949978   4.4480014 143.3349992  14.2219978   4.8300014
 142.9269992  12.7759978   4.6450014 143.4946379  13.4244171   4.5268654
 133.6369992   9.6919978  16.5080014 133.8599992   9.2739978  17.3390014
 133.0349992   9.0799978  16.0850014 133.5861513   9.5519606  16.5646740
 140.6539992   9.2089978  18.7210014 140.3579992   9.0439978  17.8250014
 141.5849992   8.9889978  18.7100014 140.7394401   9.1566879  18.5970206
 145.2739992  14.5829978  16.6100014 144.3739992  14.7659978  16.3430014
 145.3079992  14.8419978  17.5310014 145.1553748  14.6430554  16.6979164
 139.0039992  14.7499978   8.5970014 139.5319992  15.5229978   8.3970014
 138.1239992  14.9739978   8.2950014 138.9573435  14.8862700   8.5287310
 134.7589992   9.6119978   3.1840014 135.3749992  10.2389978   3.5640014
 133.8969992   9.9279978   3.4560014 134.7267678   9.7404412   3.2727209
 140.4319992  12.4129978   8.1730014 140.1909992  13.3379978   8.2150014
 139.6909992  11.9539978   8.5700014 140.2989206  12.4775915   8.2323769
 140.9459992  16.5619978  14.4880014 141.3089992  17.4159978  14.2550014
 141.4779992  16.2699978  15.2290014 141.0675141  16.6393895  14.5562097
 139.1149992  17.4339978   7.7190014 138.1649992  17.5399978   7.7700014
 139.4669992  18.2549978   8.0630014 139.0325472  17.5594923   7.7724852
 144.4899992  12.6609978  14.1890014 144.0649992  12.4329978  15.0150014
 145.0709992  11.9219978  14.0070014 144.5103395  12.5299545  14.2774414
 135.2709992   4.4459978  16.0660014 134.3789992   4.7839978  15.9980014
 135.1729992   3.5899978  16.4840014 135.1354475   4.3766543  16.1131704
 134.9229992  16.2499978  14.5010014 135.1399992  15.3179978  14.4700014
 135.1689992  16.5249978  15.3840014 134.9859809  16.1595686  14.6161691
 140.7839992  14.7019978   1.7100014 141.0229992  13.9529978   1.1630014
 140.5149992  14.3139978   2.5430014 140.7803233  14.5471853   1.7477809
 139.7209992  14.2719978   4.1660014 139.8679992  13.7519978   4.9560014
 139.7179992  15.1789978   4.4730014 139.7407102  14.3233953   4.3155925
 136.1739992  11.5239978   4.6770014 135.4879992  11.8769978   5.2440014
 136.6969992  12.2869978   4.4300014 136.1508402  11.6753901   4.7211801
 144.0059992   4.1869978  14.9560014 144.7049992   4.2609978  15.6060014
 143.6249992   3.3219978  15.1100014 144.0502097   4.0802389  15.0657997
 144.7899992   3.8389978   6.0530014 145.0099992   4.3099978   5.2490014
 145.3489992   4.2329978   6.7230014 144.8956731   3.9567287   6.0335033
 142.4589992  15.9689978   4.9160014 141.6419992  16.4659978   4.9680014
 142.9879992  16.4449978   4.2750014 142.4188125  16.1011989   4.8365306
 141.9899992   5.5669978   6.8880014 142.8019992   6.0709978   6.9340014
 141.7459992   5.4219978   7.8020014 142.0681467   5.6163749   7.0178575
 142.5259992   6.5529978  16.0720014 142.6449992   7.1269978  16.8290014
 143.1809992   5.8649978  16.1870014 142.6308684   6.5385194  16.1911674
 142.8739992   2.6479978   7.8260014 142.5269992   3.2649978   8.4700014
 143.5329992   3.1489978   7.3440014 142.9155090   2.8001575   7.8490681
 139.7969992  17.0129978   4.8970014 139.9579992  17.8129978   4.3970014
 139.5999992  17.3199978   5.7820014 139.7923906  17.1638678   4.9482333
 138.5319992   3.7109978   4.5130014 138.4479992   4.5989978   4.8600014
 139.4219992   3.4459978   4.7450014 138.6408163   3.7967179   4.5918596
 136.7899992  14.1379978   3.5730014 137.3819992  14.8379978   3.8500014
 137.2489992  13.7049978   2.8540014 136.9331652  14.1752675   3.5136533
 135.1059992   6.8029978   2.6890014 135.0609992   7.7419978   2.8680014
 134.2179992   6.5669978   2.4200014 134.9798166   6.8996687   2.6771524
 135.9139992   1.5839978  11.3630014 135.6849992   1.6429978  10.4350014
 135.4719992   0.7929978  11.6690014 135.8228801   1.4850540  11.2774729
 134.8449992  15.5249978   7.5230014 134.0119992  15.9969978   7.5500014
 135.3899992  16.0349978   6.9240014 134.8047857  15.6584791   7.4457142
 134.1329992  18.1369978  18.8530014 134.6729992  17.9209978  19.6130014
 133.6519992  17.3319978  18.6630014 134.1419219  17.9985156  18.9314282
 138.7299992  17.0569978  20.4730014 139.4979992  16.5979978  20.8140014
 138.7089992  16.8309978  19.5430014 138.8322135  16.9636668  20.3939491
 142.8219992  16.5649978   1.8490014 142.1779992  15.9339978   2.1700014
 143.5839992  16.0339978   1.6170014 142.8368058  16.4067902   1.8616038
 145.3069992  15.4369978  19.2020014 144.9559992  14.5799978  19.4460014
 146.0329992  15.5789978  19.8090014 145.3571895  15.3391351  19.3173770
 134.0399992  11.9479978  19.8070014 134.1839992  11.0459978  19.5210014
 133.2679992  12.2339978  19.3200014 133.9552733  11.8631798  19.7019532
 138.3809992  12.2909978   1.9400014 138.4459992  11.4969978   2.4700014
 139.0339992  12.1729978   1.2500014 138.4781605  12.1663430   1.9192997
 140.6949992  11.9169978  19.2400014 140.3669992  12.1879978  18.3830014
 140.8469992  10.9759978  19.1520014 140.6706412  11.8269046  19.1107822
 143.7339992  13.3379978   1.6760014 143.4649992  13.5189978   2.5760014
 143.5269992  12.4129978   1.5440014 143.6691191  13.2377119   1.7815524
 134.8729992   9.1479978  19.2270014 135.2809992   8.2909978  19.1060014
 134.6119992   9.1619978  20.1480014 134.8936016   9.0325119  19.3349192
 139.5309992  10.2639978   4.2460014 139.0709992   9.7799978   4.9310014
 139.7859992   9.5949978   3.6100014 139.5024856  10.1073669   4.2538397
 138.8199992   8.1569978  16.6020014 138.2009992   8.8309978  16.8820014
 139.1639992   8.4779978  15.7680014 138.7817123   8.2926887  16.5276388
 140.6019992   8.5069978   2.5080014 140.4209992   8.3519978   1.5810014
 141.5519992   8.6149978   2.5530014 140.7056566   8.5003669   2.3870929
 143.8389992  10.6279978  19.8790014 144.7929992  10.7119978  19.8520014
 143.6789992   9.9159978  20.4990014 143.9477182  10.5432842  19.9590733
 139.1589992   5.5119978  17.6840014 139.3089992   4.7829978  17.0820014
 139.1609992   6.2889978  17.1250014 139.1797967   5.5172708  17.5260541
 139.5719992   3.8809978  15.1770014 140.1069992   4.3329978  14.5250014
 138.7189992   3.7729978  14.7540014 139.5300374   3.9282665  15.0306710
 141.1529992   9.3209978  15.4160014 141.9039992   9.1649978  14.8430014
 140.8139992  10.1729978  15.1410014 141.2099587   9.4148138  15.3004078
 145.5689992   7.1359978  20.4450014 145.7609992   6.2049978  20.3330014
 146.4269992   7.5609978  20.4340014 145.7112182   7.0660070  20.4281862
 137.6379992   6.7099978  19.5950014 136.8699992   6.1769978  19.3850014
 138.3159992   6.3999978  18.9960014 137.6247235   6.5951754  19.4852413
 140.3769992   1.3379978  15.6080014 140.2789992   2.2839978  15.5030014
 139.6349992   0.9649978  15.1320014 140.2632534   1.4171773  15.5292600
 141.6409992   5.6589978  19.1720014 141.4059992   5.4399978  20.0730014
 140.8579992   5.4519978  18.6620014 141.5029095   5.6009892  19.2265353
 144.3569992   4.7869978  18.2470014 143.4089992   4.8189978  18.3790014
 144.6689992   4.1609978  18.9010014 144.2695293   4.7067923  18.3534148
 135.8179992   4.6299978  19.3000014 136.0299992   3.9239978  18.6900014
 135.7069992   4.1929978  20.1440014 135.8320269   4.4741921  19.3305873
 140.5989992   0.6319978  18.2790014 141.3109992  -0.0080022  18.2650014
 140.4979992   0.8979978  17.3660014 140.6827387   0.5804330  18.1535563
 140.9529992   2.3139978  20.3330014 140.8209992   1.8389978  19.5130014
 140.3529992   3.0589978  20.2780014 140.8539070   2.3495789  20.2133251
 140.4989992  19.1969978   3.5090014 141.4319992  19.3549978   3.6530014
 140.2349992  19.8729978   2.8840014 140.5909911  19.3099373   3.4442722
 134.0669992  13.8339978   2.9920014 134.9809992  13.9129978   3.2650014
 134.0749992  13.1469978   2.3260014 134.1930655  13.7519205   2.9392917
 132.7159992  19.2269978   8.0690014 132.0689992  18.7649978   7.5370014
 133.0709992  18.5549978   8.6520014 132.6753741  19.0729774   8.0749175
 133.5859992  17.3069978   9.8740014 133.2519992  16.4269978  10.0460014
 133.8089992  17.6529978  10.7390014 133.5703721  17.2331938  10.0144168
 133.6659992  10.3829978  12.3260014 133.8509992  10.3009978  11.3900014
 134.5159992  10.2589978  12.7490014 133.8060928  10.3550463  12.2552893
 133.2639992   5.6529978  18.4660014 134.1829992   5.5309978  18.7030014
 132.8139992   4.9029978  18.8560014 133.3290087   5.5349608  18.5511410
 134.4849992   3.9659978  11.3580014 134.9299992   3.1739978  11.6600014
 134.9509992   4.6819978  11.7880014 134.6089718   3.9544534  11.4575265
 132.7889992   6.9649978  12.4270014 133.2809992   6.7439978  11.6360014
 133.1509992   7.8049978  12.7080014 132.9052923   7.0483468  12.3567407
 133.1029992   3.2229978   6.4810014 132.1779992   3.4309978   6.3520014
 133.5569992   3.7069978   5.7910014 133.0376298   3.3169299   6.3700451
 133.0659992   1.9609978  14.8250014 132.4009992   1.7149978  15.4680014
 132.6229992   2.5829978  14.2480014 132.9151168   2.0114214  14.8349848
 135.2579992  15.1359978  18.9700014 134.4369992  15.3109978  18.5090014
 135.0059992  15.0629978  19.8900014 135.1115594  15.1500717  19.0313611
 138.2119992  16.1099978  15.2280014 137.7879992  16.9199978  14.9460014
 139.1169992  16.1959978  14.9260014 138.2762138  16.2324160  15.1486415
 142.5239992  17.5089978  18.1880014 142.7079992  17.1759978  19.0660014
 143.3699992  17.8189978  17.8660014 142.6636484  17.5052979  18.2647617
 144.8689992  18.7949978  17.4320014 145.5459992  18.1619978  17.1920014
 145.1899992  19.1959978  18.2390014 145.0051323  18.7625691  17.5083158
 135.6139992  19.3669978  15.2760014 134.8939992  19.8069978  14.8250014
 135.2489992  19.1159978  16.1240014 135.4659643  19.3933369  15.3289129
 138.0809992  18.9669978  14.3060014 137.2169992  19.0389978  14.7100014
 138.0259992  19.5139978  13.5220014 137.9551942  19.0507849  14.2554000
 142.7919992  18.8549978  13.4810014 142.3349992  19.3839978  12.8270014
 142.9549992  19.4579978  14.2060014 142.7514960  19.0089280  13.4895274
 145.1199992  17.7329978  14.4260014 144.2149992  17.8979978  14.1600014
 145.5479992  18.5859978  14.3600014 145.0541537  17.8709134  14.3807095
 135.0289992  17.9899978  12.1860014 135.0109992  17.5639978  13.0430014
 135.8339992  17.6709978  11.7770014 135.1352875  17.8886435  12.2479515
 137.1699992  16.6999978  10.8410014 136.9509992  15.7829978  11.0110014
 137.9939992  16.8399978  11.3070014 137.2514702  16.5935511  10.9272527
 139.7069992  17.1699978  11.6900014 139.9199992  16.2819978  11.4030014
 139.7719992  17.1349978  12.6440014 139.7449149  17.0438326  11.7797369
 143.2159992   2.8339978  10.8340014 142.5419992   2.2039978  11.0900014
 143.7799992   2.3499978  10.2310014 143.2000384   2.6823708  10.7875020
 135.5429992   1.4679978   8.6560014 134.7659992   1.2329978   8.1490014
 136.0729992   0.6709978   8.6650014 135.5083451   1.3281268   8.5878627
 134.3789992   1.2659978   4.4600014 134.8179992   1.8769978   3.8680014
 133.7449992   1.8039978   4.9340014 134.3533859   1.4224064   4.4430305
 140.1219992   1.3939978   8.4690014 140.9959992   1.7829978   8.4400014
 139.9859992   1.1789978   9.3920014 140.2231953   1.4181643   8.5897617
 134.2799992  17.2139978   5.3570014 133.5949992  17.1759978   4.6900014
 134.2839992  18.1269978   5.6450014 134.1867621  17.3321924   5.3046126
 136.2399992   3.1819978   2.9020014 136.7309992   2.5519978   2.3750014
 136.8629992   3.4779978   3.5650014 136.3915304   3.1357376   2.9194940
 141.2659992   3.4749978   5.3590014 141.4439992   2.8279978   6.0420014
 141.2119992   4.3089978   5.8260014 141.2830678   3.4991604   5.5156301
 143.1439992  18.4229978   3.7550014 144.0099992  18.7899978   3.5770014
 142.8979992  17.9839978   2.9410014 143.2292097  18.4138525   3.6206019
 135.4999992   1.9819978  18.1740014 135.1339992   1.2159978  18.6160014
 136.4129992   2.0109978  18.4600014 135.5733172   1.8810324  18.2731890
 137.4729992   1.3319978  19.7090014 138.3719992   1.0579978  19.5250014
 137.0869992   0.5899978  20.1740014 137.5437307   1.1942196  19.7467098
 136.0979992  18.1339978   2.3820014 135.8299992  18.4199978   3.2560014
 136.8689992  17.5879978   2.5350014 136.1655926  18.0992779   2.5221205
  12.6289992  29.4799978   8.6150014  12.7179992  30.4239978   8.4830014
  11.9909992  29.2049978   7.9570014  12.5549062  29.5719812   8.5079641
  11.5619992  28.7349978  12.0340014  11.5239992  28.0889978  12.7390014
  11.2399992  28.2679978  11.2630014  11.5132679  28.5834276  12.0262921
   3.9299992  28.3489978  13.6270014   3.9719992  27.7239978  14.3500014
   4.6329992  28.9729978  13.8090014   4.0307345  28.3477873  13.7505274
  15.2679992  31.6739978  10.3350014  14.8269992  30.9539978  10.7860014
  15.2549992  32.3949978  10.9650014  15.2059215  31.6729291  10.4818105
   4.8539992  32.7989978  12.1620014   4.4839992  31.9969978  11.7920014
   5.7949992  32.6309978  12.2080014   4.9305984  32.6664638  12.1175603
   1.4639992  26.4589978   7.5540014   1.0159992  27.3049978   7.5360014
   0.9029992  25.8799978   7.0390014   1.3268546  26.4963993   7.4818891
   2.1739992  28.6209978   9.6800014   2.3879992  27.8509978  10.2080014
   2.9119992  28.7109978   9.0770014   2.3030200  28.5278586   9.6707035
  12.3799992  36.7779978  10.5470014  12.9989992  36.1019978  10.2740014
  12.1709992  36.5599978  11.4560014  12.4366056  36.6558869  10.6323967
   9.9509992  31.1669978  12.4400014  10.2549992  30.4809978  11.8450014
  10.6729992  31.2859978  13.0580014  10.0901240  31.0892314  12.4420959
  18.6139992  22.7689978  13.3000014  18.6639992  23.3789978  14.0360014
  19.0399992  23.2299978  12.5770014  18.6784108  22.9147709  13.3030112
  13.0919992  25.5609978  12.7670014  13.2349992  24.6149978  12.7870014
  12.9859992  25.7679978  11.8390014  13.0972403  25.4594797  12.6442239
   6.2469992  23.6629978  10.0400014   6.2899992  24.5229978   9.6210014
   5.7889992  23.1109978   9.4060014   6.1909871  23.7059245   9.8970761
  13.9689992  23.7939978   8.4410014  14.6159992  23.4649978   9.0650014
  14.4789992  24.3109978   7.8180014  14.1264351  23.8189067   8.4421037
   2.8669992  26.0599978  10.8020014   3.5209992  25.5099978  11.2340014
   2.8909992  25.7859978   9.8850014   2.9597199  25.9477167  10.7371668
   8.0239992  27.6099978  10.0170014   8.6399992  27.0829978  10.5260014
   7.4369992  26.9699978   9.6130014   8.0290154  27.4513954  10.0320945
  19.0059992  24.2469978  15.5360014  18.3169992  24.9049978  15.4410014
  19.0209992  24.0489978  16.4730014  18.9137756  24.3102603  15.6495812
   5.0569992  22.5809978  14.1140014   4.8379992  23.1109978  13.3470014
   4.3889992  22.8069978  14.7610014   4.9366975  22.6840967  14.0965140
  12.4259992  32.0809978   7.6580014  12.1309992  31.7579978   6.8060014
  12.1019992  32.9809978   7.6990014  12.3418460  32.1584464   7.5469714
   7.6259992  30.2559978  14.4010014   6.8859992  30.8549978  14.5050014
   8.3399992  30.8099978  14.0860014   7.6213500  30.4127829  14.3726371
  15.7329992  23.0849978  10.4210014  15.5179992  22.3189978  10.9540014
  16.3889992  23.5569978  10.9340014  15.7922673  23.0440728  10.5631990
   4.6509992  24.4729978  12.0660014   5.2649992  25.1059978  12.4390014
   5.1629992  24.0009978  11.4100014   4.8041962  24.4957249  12.0282935
   6.0339992  32.2209978  15.1880014   6.0279992  33.0999978  14.8100014
   5.1799992  32.1369978  15.6130014   5.9177925  32.3299535  15.1936887
   2.1549992  31.8919978   5.9700014   1.8829992  32.1209978   5.0820014
   2.1999992  32.7289978   6.4310014   2.1238097  32.0366163   5.9106683
  15.7799992  33.5129978  12.6830014  14.8379992  33.5719978  12.8450014
  16.0559992  34.4189978  12.5460014  15.6885865  33.6435288  12.6866192
  16.0799992  21.7999978  14.1000014  15.3439992  22.4099978  14.0630014
  16.7639992  22.2149978  13.5740014  16.0715367  21.9397551  14.0238174
   9.0839992  19.8859978  11.5660014   8.9659992  18.9379978  11.5120014
   8.2289992  20.2189978  11.8390014   8.9522805  19.8012202  11.5955079
  14.0319992  35.2939978   9.3080014  14.4569992  34.5869978   8.8230014
  14.3489992  36.0959978   8.8910014  14.1330266  35.3055190   9.1852479
  15.1919992  33.1949978   7.8170014  14.9339992  32.5049978   7.2050014
  15.2629992  32.7519978   8.6620014  15.1663050  33.0406814   7.8475621
  16.8779992  31.7619978  16.2940014  17.0169992  31.1699978  15.5550014
  17.0449992  32.6349978  15.9380014  16.9196193  31.7988896  16.1446211
  11.3499992  28.7239978   6.0670014  10.6389992  29.2589978   5.7150014
  12.0409992  28.7789978   5.4070014  11.3460751  28.8046777   5.9295858
  11.4039992  27.1809978   3.1050014  12.1049992  27.2039978   3.7570014
  11.7059992  26.5529978   2.4490014  11.5408202  27.0992212   3.1055609
  18.7189992  28.1019978  14.3600014  18.0669992  28.7959978  14.4490014
  19.1849992  28.3119978  13.5500014  18.6925937  28.2255019  14.2627533
  14.7559992  28.9329978   7.0180014  14.0239992  29.1619978   7.5920014
  15.2029992  28.2199978   7.4730014  14.7163963  28.8678729   7.1579945
  14.6529992  27.1079978  16.0860014  14.7329992  27.8709978  16.6580014
  14.0519992  27.3869978  15.3960014  14.5826547  27.2502457  16.0710047
   6.4009992  29.5639978   8.9010014   6.0709992  29.1929978   8.0830014
   6.9899992  28.8929978   9.2480014   6.4353970  29.4226063   8.8359404
   7.7679992  32.9919978  11.5820014   7.6729992  32.4129978  10.8260014
   8.4969992  32.6209978  12.0780014   7.8536011  32.8625561  11.5456028
   6.7679992  28.3319978  12.5340014   7.3329992  28.4539978  11.7720014
   7.0869992  28.9699978  13.1730014   6.8884166  28.4348791  12.5160348
  13.0769992  33.8359978  13.2680014  12.8369992  34.4979978  13.9160014
  12.8789992  33.0009978  13.6930014  13.0173826  33.8138115  13.4141566
   7.6479992  32.7319978  17.2520014   7.3369992  33.5139978  17.7070014
   6.9979992  32.5789978  16.5660014   7.5175538  32.8184087  17.2215898
  13.6269992  28.0959978   4.7040014  14.2059992  28.2459978   5.4500014
  14.0409992  28.5659978   3.9800014  13.7623358  28.1800954   4.7083953
   4.5679992  28.9299978  16.4800014   4.6379992  29.5809978  17.1790014
   3.6769992  29.0329978  16.1450014   4.4571690  29.0329249  16.5303043
  11.3529992  34.8319978   8.1390014  11.8269992  35.1279978   8.9160014
  10.7899992  35.5709978   7.9060014  11.3417890  34.9723036   8.2138101
   5.8869992  34.8029978  18.0150014   5.8949992  34.6669978  17.0680014
   4.9709992  34.6859978  18.2670014   5.7642528  34.7685463  17.9193243
  17.3259992  19.8459978   4.5170014  16.4259992  19.9849978   4.8120014
  17.5779992  20.6769978   4.1150014  17.2368683  19.9774055   4.5030232
   5.3919992  28.6329978   6.4900014   5.0999992  29.4009978   5.9990014
   4.7169992  27.9739978   6.3270014   5.2608497  28.6489745   6.4008260
  18.5149992  34.2119978   2.8930014  18.5879992  35.1509978   3.0630014
  19.4199992  33.9069978   2.8370014  18.6474170  34.2993282   2.9087063
   1.4849992  30.9959978  15.3050014   0.9829992  30.9679978  14.4900014
   1.4899992  30.0909978  15.6150014   1.4169832  30.8697486  15.2354121
   1.2349992  33.7769978  12.1890014   2.1809992  33.6319978  12.1700014
   1.1219992  34.5609978  12.7260014   1.3493578  33.8631697  12.2590317
  19.4329992  34.4429978  17.8720014  19.3829992  33.4869978  17.8340014
  18.6059992  34.7099978  18.2730014  19.3143831  34.3484680  17.9210121
  10.4109992  34.0169978  16.7480014  10.4989992  34.8429978  17.2230014
   9.5479992  33.6869978  16.9970014  10.3063357  34.0855468  16.8467653
  10.8259992  37.7889978   6.5540014  10.7499992  37.6679978   5.6070014
  10.8579992  38.7379978   6.6720014  10.8199380  37.9007677   6.4405181
   4.4789992  36.5779978   8.3350014   4.6309992  36.2299978   9.2130014
   3.6279992  36.2209978   8.0790014   4.3848344  36.4820879   8.4206868
  13.9269992  36.9429978   3.5560014  14.3019992  36.1989978   3.0850014
  13.9319992  36.6729978   4.4740014  13.9790098  36.8046392   3.6156629
  13.5959992  36.8689978   6.3050014  12.6609992  36.9689978   6.4840014
  13.8759992  36.1589978   6.8840014  13.5059471  36.7867933   6.4076695
  16.5849992  25.9359978  18.3520014  16.1769992  26.4159978  17.6310014
  16.6249992  25.0299978  18.0440014  16.5346221  25.8792449  18.2118267
   3.7339992  32.3199978  16.3480014   3.9499992  31.9579978  17.2080014
   2.8779992  31.9449978  16.1390014   3.6478810  32.2198837  16.4372680
   6.3519992  20.7899978  12.3440014   5.4909992  20.7029978  11.9360014
   6.3299992  21.6459978  12.7720014   6.2310491  20.8938003  12.3459582
  11.0149992  20.5119978  15.7190014  11.4349992  20.0969978  16.4720014
  10.0819992  20.3329978  15.8360014  10.9463736  20.4309910  15.8378968
  14.3419992  24.2669978  16.5720014  13.8279992  24.1419978  17.3700014
  14.1859992  25.1799978  16.3280014  14.2506967  24.3732123  16.6480937
  15.1039992  29.1279978   2.3330014  15.1459992  28.9059978   1.4030014
  15.9529992  29.5269978   2.5230014  15.2245253  29.1515498   2.2313822
  10.6769992  23.0039978   3.0040014  10.4229992  23.0229978   3.9260014
  10.4199992  22.1329978   2.7020014  10.6074508  22.8888280   3.0894803
   6.4429992  25.7549978  13.4390014   5.8019992  25.7149978  14.1480014
   6.4809992  26.6819978  13.2010014   6.3603010  25.8747668  13.5039946
   6.4399992  25.9759978   8.3510014   5.5479992  25.6359978   8.2920014
   6.8909992  25.5989978   7.5950014   6.3787642  25.8784910   8.2407726
  11.9759992  26.3919978   7.1680014  11.5669992  27.2069978   6.8760014
  12.6959992  26.2519978   6.5540014  12.0174439  26.4845372   7.0450115
  11.0779992  26.5679978  18.6560014  10.5149992  25.8629978  18.9770014
  11.9039992  26.4469978  19.1240014  11.1126674  26.4552165  18.7631751
  12.9809992  25.8379978   9.9820014  12.7849992  26.4439978   9.2670014
  13.1619992  25.0049978   9.5480014  12.9786584  25.8082513   9.8254212
   4.1929992  26.0759978  15.3060014   4.1549992  26.4759978  16.1750014
   3.7029992  25.2589978  15.3960014   4.1215330  26.0202674  15.4371289
   7.5589992  23.4499978   2.1050014   7.1279992  23.0049978   2.8340014
   6.8409992  23.8209978   1.5920014   7.4029176  23.4392052   2.1354930
   0.8019992  23.1919978   9.1570014   1.4319992  23.1629978   9.8760014
   1.2509992  22.7669978   8.4260014   0.9490835  23.1305660   9.1567659
   2.0759992  23.9379978   4.5810014   2.5499992  24.5289978   3.9960014
   1.3579992  24.4679978   4.9280014   2.0438640  24.0905511   4.5477969
  12.2449992  27.4759978  14.6530014  12.5679992  26.8449978  14.0100014
  11.8039992  26.9419978  15.3140014  12.2296379  27.3173468  14.6542582
   9.0219992  23.4039978   9.4370014   8.1109992  23.4609978   9.7260014
   9.5269992  23.3439978  10.2480014   8.9656873  23.4036826   9.5861207
   3.8499992  25.0329978   8.2640014   2.9609992  25.1319978   7.9240014
   4.1469992  24.1909978   7.9180014   3.7684177  24.9327687   8.1706940
   7.5029992  25.0329978   5.9210014   8.4349992  25.1619978   6.0990014
   7.2879992  25.7019978   5.2710014   7.6014472  25.1410806   5.8574891
  13.4269992  22.6389978  12.7020014  12.7499992  22.7699978  13.3650014
  12.9419992  22.4839978  11.8910014  13.2687405  22.6359947  12.6832170
   6.1769992  26.2269978   3.4870014   5.6349992  25.8479978   2.7960014
   7.0109992  26.4219978   3.0590014   6.2154390  26.2014079   3.3344392
  16.7149992  38.3099978  18.9780014  16.9139992  38.7339978  18.1440014
  17.3699992  38.6539978  19.5850014  16.8308522  38.4146301  18.9457852
   4.3129992  30.7839978  18.5860014   5.0449992  31.0389978  19.1480014
   3.5319992  30.9889978  19.1020014   4.3076526  30.8465450  18.7325176
  10.3419992  26.1909978  11.3240014  10.9059992  25.6449978  10.7770014
  10.1939992  25.6699978  12.1130014  10.3993037  26.0456787  11.3557229
   5.3439992  22.3279978   7.7430014   5.0269992  21.4249978   7.7070014
   6.1249992  22.3299978   7.1900014   5.4062431  22.2047797   7.6633102
   8.9679992  24.5799978  13.7380014   8.1329992  25.0339978  13.8490014
   9.4919992  24.8559978  14.4900014   8.9246072  24.6793948  13.8548136
   9.5129992  30.7929978   5.4230014   8.7679992  30.2849978   5.1010014
   9.3779992  30.8419978   6.3690014   9.3928963  30.7301731   5.5068826
  16.6629992  29.9259978  14.2100014  17.3039992  30.3819978  13.6660014
  15.8319992  30.0389978  13.7470014  16.6385287  30.0036921  14.0729887
  13.4099992  23.6069978   3.6220014  12.4719992  23.7179978   3.4710014
  13.7079992  24.4629978   3.9290014  13.3216318  23.7380158   3.6428145
  11.0319992  30.9769978  16.6600014  10.6859992  30.5949978  17.4670014
  10.8319992  31.9099978  16.7310014  10.9575987  31.0509002  16.7800461
  14.1289992  25.4739978   5.2830014  15.0209992  25.3359978   5.6020014
  14.1849992  26.2649978   4.7460014  14.2587325  25.5619918   5.2541217
   4.6369992  30.0879978  11.1930014   5.3819992  30.0849978  10.5910014
   4.7149992  29.2639978  11.6740014   4.7493365  29.9762384  11.1757430
  11.6379992  32.2509978   4.4480014  11.3429992  33.0779978   4.8300014
  10.9349992  31.6319978   4.6450014  11.5026379  32.2804171   4.5268654
   1.6449992  28.5479978  16.5080014   1.8679992  28.1299978  17.3390014
   1.0429992  27.9359978  16.0850014   1.5941513  28.4079606  16.5646740
   8.6619992  28.0649978  18.7210014   8.3659992  27.8999978  17.8250014
   9.5929992  27.8449978  18.7100014   8.7474401  28.0126879  18.5970206
  13.2819992  33.4389978  16.6100014  12.3819992  33.6219978  16.3430014
  13.3159992  33.6979978  17.5310014  13.1633748  33.4990554  16.6979164
  19.0139992  25.6829978   4.9780014  18.4589992  25.2869978   4.3050014
  19.1139992  26.5939978   4.7000014  18.9516816  25.7519505   4.8485033
  18.9769992  31.4839978  17.8150014  18.1259992  31.7219978  17.4470014
  19.5669992  31.4669978  17.0620014  18.9403812  31.5142524  17.6628453
  17.3089992  34.4689978   5.4430014  16.9359992  33.6439978   5.7520014
  17.5859992  34.2859978   4.5450014  17.2953463  34.3312569   5.3639525
  14.4689992  29.2769978  12.4640014  13.5409992  29.0459978  12.4370014
  14.9199992  28.4999978  12.1340014  14.4028165  29.1402774  12.4156790
   7.0119992  33.6059978   8.5970014   7.5399992  34.3789978   8.3970014
   6.1319992  33.8299978   8.2950014   6.9653435  33.7422700   8.5287310
   2.7669992  28.4679978   3.1840014   3.3829992  29.0949978   3.5640014
   1.9049992  28.7839978   3.4560014   2.7347678  28.5964412   3.2727209
   8.4399992  31.2689978   8.1730014   8.1989992  32.1939978   8.2150014
   7.6989992  30.8099978   8.5700014   8.3069206  31.3335915   8.2323769
   8.9539992  35.4179978  14.4880014   9.3169992  36.2719978  14.2550014
   9.4859992  35.1259978  15.2290014   9.0755141  35.4953895  14.5562097
   7.1229992  36.2899978   7.7190014   6.1729992  36.3959978   7.7700014
   7.4749992  37.1109978   8.0630014   7.0405472  36.4154923   7.7724852
  12.4979992  31.5169978  14.1890014  12.0729992  31.2889978  15.0150014
  13.0789992  30.7779978  14.0070014  12.5183395  31.3859545  14.2774414
  14.7009992  32.4459978   3.2630014  15.0549992  32.0659978   4.0670014
  13.7529992  32.3519978   3.3500014  14.6212298  32.3812452   3.3848687
  15.1569992  36.0689978  16.6580014  14.5549992  35.5129978  16.1630014
  15.4379992  36.7359978  16.0320014  15.1125757  36.0830744  16.5055675
  19.2049992  36.9249978   3.4640014  19.9489992  37.5109978   3.3240014
  18.5109992  37.4939978   3.7970014  19.2129809  37.0820818   3.4898590
   3.2789992  23.3019978  16.0660014   2.3869992  23.6399978  15.9980014
   3.1809992  22.4459978  16.4840014   3.1434475  23.2326543  16.1131704
  15.5669992  31.1179978   5.4900014  15.2899992  30.3899978   6.0460014
  16.4949992  31.2369978   5.6950014  15.6544499  31.0344213   5.5938044
   2.9309992  35.1059978  14.5010014   3.1479992  34.1739978  14.4700014
   3.1769992  35.3809978  15.3840014   2.9939809  35.0155686  14.6161691
   8.7919992  33.5579978   1.7100014   9.0309992  32.8089978   1.1630014
   8.5229992  33.1699978   2.5430014   8.7883233  33.4031853   1.7477809
   7.7289992  33.1279978   4.1660014   7.8759992  32.6079978   4.9560014
   7.7259992  34.0349978   4.4730014   7.7487102  33.1793953   4.3155925
   4.1819992  30.3799978   4.6770014   3.4959992  30.7329978   5.2440014
   4.7049992  31.1429978   4.4300014   4.1588402  30.5313901   4.7211801
  12.0139992  23.0429978  14.9560014  12.7129992  23.1169978  15.6060014
  11.6329992  22.1779978  15.1100014  12.0582097  22.9362389  15.0657997
  12.7979992  22.6949978   6.0530014  13.0179992  23.1659978   5.2490014
  13.3569992  23.0889978   6.7230014  12.9036731  22.8127287   6.0335033
  10.4669992  34.8249978   4.9160014   9.6499992  35.3219978   4.9680014
  10.9959992  35.3009978   4.2750014  10.4268125  34.9571989   4.8365306
   9.9979992  24.4229978   6.8880014  10.8099992  24.9269978   6.9340014
   9.7539992  24.2779978   7.8020014  10.0761467  24.4723749   7.0178575
  10.5339992  25.4089978  16.0720014  10.6529992  25.9829978  16.8290014
  11.1889992  24.7209978  16.1870014  10.6388684  25.3945194  16.1911674
  10.8819992  21.5039978   7.8260014  10.5349992  22.1209978   8.4700014
  11.5409992  22.0049978   7.3440014  10.9235090  21.6561575   7.8490681
   7.8049992  35.8689978   4.8970014   7.9659992  36.6689978   4.3970014
   7.6079992  36.1759978   5.7820014   7.8003906  36.0198678   4.9482333
   6.5399992  22.5669978   4.5130014   6.4559992  23.4549978   4.8600014
   7.4299992  22.3019978   4.7450014   6.6488163  22.6527179   4.5918596
  16.7379992  23.3159978  16.9070014  15.8219992  23.5779978  16.8200014
  17.0739992  23.3129978  16.0110014  16.6578499  23.3515163  16.7738766
  15.3409992  27.0659978  11.0030014  14.5429992  26.6509978  10.6750014
  15.7859992  26.3759978  11.4940014  15.2919684  26.9158628  11.0245227
   4.7979992  32.9939978   3.5730014   5.3899992  33.6939978   3.8500014
   5.2569992  32.5609978   2.8540014   4.9411652  33.0312675   3.5136533
   3.1139992  25.6589978   2.6890014   3.0689992  26.5979978   2.8680014
   2.2259992  25.4229978   2.4200014   2.9878166  25.7556687   2.6771524
  16.4269992  36.3219978  12.6250014  16.2709992  37.0009978  11.9680014
  17.3599992  36.3939978  12.8280014  16.5317387  36.4246390  12.5625342
   3.9219992  20.4399978  11.3630014   3.6929992  20.4989978  10.4350014
   3.4799992  19.6489978  11.6690014   3.8308801  20.3410540  11.2774729
   2.8529992  34.3809978   7.5230014   2.0199992  34.8529978   7.5500014
   3.3979992  34.8909978   6.9240014   2.8127857  34.5144791   7.4457142
   2.1409992  36.9929978  18.8530014   2.6809992  36.7769978  19.6130014
   1.6599992  36.1879978  18.6630014   2.1499219  36.8545156  18.9314282
   6.7379992  35.9129978  20.4730014   7.5059992  35.4539978  20.8140014
   6.7169992  35.6869978  19.5430014   6.8402135  35.8196668  20.3939491
  10.8299992  35.4209978   1.8490014  10.1859992  34.7899978   2.1700014
  11.5919992  34.8899978   1.6170014  10.8448058  35.2627902   1.8616038
  13.3149992  34.2929978  19.2020014  12.9639992  33.4359978  19.4460014
  14.0409992  34.4349978  19.8090014  13.3651895  34.1951351  19.3173770
  15.4349992  35.2379978   2.0820014  15.7179992  34.4429978   2.5350014
  16.1739992  35.4709978   1.5210014  15.5737096  35.1607049   2.0681104
   2.0479992  30.8039978  19.8070014   2.1919992  29.9019978  19.5210014
   1.2759992  31.0899978  19.3200014   1.9632733  30.7191798  19.7019532
   6.3889992  31.1469978   1.9400014   6.4539992  30.3529978   2.4700014
   7.0419992  31.0289978   1.2500014   6.4861605  31.0223430   1.9192997
   8.7029992  30.7729978  19.2400014   8.3749992  31.0439978  18.3830014
   8.8549992  29.8319978  19.1520014   8.6786412  30.6829046  19.1107822
  11.7419992  32.1939978   1.6760014  11.4729992  32.3749978   2.5760014
  11.5349992  31.2689978   1.5440014  11.6771191  32.0937119   1.7815524
  14.4379992  30.6889978  16.6230014  15.1829992  31.2779978  16.5040014
  13.6809992  31.2709978  16.6870014  14.4375470  30.8482128  16.6153799
   2.8809992  28.0039978  19.2270014   3.2889992  27.1469978  19.1060014
   2.6199992  28.0179978  20.1480014   2.9016016  27.8885119  19.3349192
   7.5389992  29.1199978   4.2460014   7.0789992  28.6359978   4.9310014
   7.7939992  28.4509978   3.6100014   7.5104856  28.9633669   4.2538397
   6.8279992  27.0129978  16.6020014   6.2089992  27.6869978  16.8820014
   7.1719992  27.3339978  15.7680014   6.7897123  27.1486887  16.5276388
   8.6099992  27.3629978   2.5080014   8.4289992  27.2079978   1.5810014
   9.5599992  27.4709978   2.5530014   8.7136566  27.3563669   2.3870929
  11.8469992  29.4839978  19.8790014  12.8009992  29.5679978  19.8520014
  11.6869992  28.7719978  20.4990014  11.9557182  29.3992842  19.9590733
  17.9999992  29.7169978   1.9540014  17.7259992  29.2929978   1.1410014
  18.0389992  30.6489978   1.7370014  17.9677716  29.7848827   1.8134286
   7.1669992  24.3679978  17.6840014   7.3169992  23.6389978  17.0820014
   7.1689992  25.1449978  17.1250014   7.1877967  24.3732708  17.5260541
   7.5799992  22.7369978  15.1770014   8.1149992  23.1889978  14.5250014
   6.7269992  22.6289978  14.7540014   7.5380374  22.7842665  15.0306710
   9.1609992  28.1769978  15.4160014   9.9119992  28.0209978  14.8430014
   8.8219992  29.0289978  15.1410014   9.2179587  28.2708138  15.3004078
  13.5769992  25.9919978  20.4450014  13.7689992  25.0609978  20.3330014
  14.4349992  26.4169978  20.4340014  13.7192182  25.9220070  20.4281862
  14.8939992  28.7809978  18.5220014  14.6119992  29.4899978  17.9440014
  15.8359992  28.7079978  18.3710014  14.9827921  28.8682193  18.4224225
   5.6459992  25.5659978  19.5950014   4.8779992  25.0329978  19.3850014
   6.3239992  25.2559978  18.9960014   5.6327235  25.4511754  19.4852413
   8.3849992  20.1939978  15.6080014   8.2869992  21.1399978  15.5030014
   7.6429992  19.8209978  15.1320014   8.2712534  20.2731773  15.5292600
   9.6489992  24.5149978  19.1720014   9.4139992  24.2959978  20.0730014
   8.8659992  24.3079978  18.6620014   9.5109095  24.4569892  19.2265353
  12.3649992  23.6429978  18.2470014  11.4169992  23.6749978  18.3790014
  12.6769992  23.0169978  18.9010014  12.2775293  23.5627923  18.3534148
  13.9989992  22.2769978  20.2520014  13.9019992  21.3249978  20.2470014
  13.6769992  22.5449978  21.1130014  13.9422468  22.1830884  20.3676210
   3.8259992  23.4859978  19.3000014   4.0379992  22.7799978  18.6900014
   3.7149992  23.0489978  20.1440014   3.8400269  23.3301921  19.3305873
   8.6069992  19.4879978  18.2790014   9.3189992  18.8479978  18.2650014
   8.5059992  19.7539978  17.3660014   8.6907387  19.4364330  18.1535563
   8.9609992  21.1699978  20.3330014   8.8289992  20.6949978  19.5130014
   8.3609992  21.9149978  20.2780014   8.8619070  21.2055789  20.2133251
   8.5069992  38.0529978   3.5090014   9.4399992  38.2109978   3.6530014
   8.2429992  38.7289978   2.8840014   8.5989911  38.1659373   3.4442722
   2.0749992  32.6899978   2.9920014   2.9889992  32.7689978   3.2650014
   2.0829992  32.0029978   2.3260014   2.2010655  32.6079205   2.9392917
   0.7239992  38.0829978   8.0690014   0.0769992  37.6209978   7.5370014
   1.0789992  37.4109978   8.6520014   0.6833741  37.9289774   8.0749175
   1.5939992  36.1629978   9.8740014   1.2599992  35.2829978  10.0460014
   1.8169992  36.5089978  10.7390014   1.5783721  36.0891938  10.0144168
  19.1429992  36.9729978  12.8550014  19.1209992  37.1579978  13.7940014
  19.8329992  37.5409978  12.5140014  19.2333439  37.0751887  12.9374791
  18.7059992  36.5399978  15.7760014  18.2189992  35.8049978  15.4050014
  19.2549992  36.1459978  16.4540014  18.7135247  36.3861057  15.8168461
  17.1569992  32.3299978  20.4150014  16.2909992  32.2249978  20.8090014
  17.5329992  33.0879978  20.8610014  17.0893401  32.4181708  20.5292620
  18.4579992  30.5859978   5.9290014  19.3079992  31.0069978   6.0560014
  18.4629992  29.8459978   6.5360014  18.5751143  30.5436094   6.0284750
  18.8519992  28.6399978   7.7520014  18.1259992  28.1599978   8.1500014
  19.4339992  28.8449978   8.4850014  18.8312730  28.6020184   7.9054149
  18.6109992  31.4249978  12.7000014  19.4449992  31.0469978  12.4190014
  18.7229992  32.3679978  12.5810014  18.7401917  31.5007943  12.6454861
  17.0979992  34.3029978  15.0070014  16.4499992  34.6279978  15.6320014
  16.5799992  33.8619978  14.3330014  16.9394196  34.2878651  15.0014152
  19.1209992  28.5409978   4.1430014  18.5989992  28.8969978   3.4250014
  19.0879992  29.2159978   4.8220014  19.0450129  28.6809598   4.1363355
  17.4699992  25.7799978   2.6940014  17.5659992  26.4469978   2.0140014
  17.3299992  24.9649978   2.2130014  17.4642040  25.7610671   2.5358378
  16.6389992  27.1609978   8.3150014  16.4889992  26.2159978   8.2950014
  16.2849992  27.4419978   9.1590014  16.5706351  27.0696644   8.4263220
   1.6739992  29.2389978  12.3260014   1.8589992  29.1569978  11.3900014
   2.5239992  29.1149978  12.7490014   1.8140928  29.2110463  12.2552893
  17.4949992  29.1309978  17.9540014  18.0779992  28.3959978  18.1460014
  18.0589992  29.9029978  18.0010014  17.6509781  29.1348145  17.9866164
  18.9919992  27.0339978  18.6390014  18.1289992  26.6549978  18.4730014
  19.5959992  26.2949978  18.5640014  18.9556085  26.8823223  18.6061695
  16.7169992  23.1879978   1.8120014  17.3279992  22.8169978   2.4490014
  15.8799992  22.7669978   2.0080014  16.6874947  23.0802756   1.9257252
  16.3499992  24.7429978   6.7780014  16.6289992  23.8359978   6.9020014
  17.1089992  25.1769978   6.3890014  16.4908619  24.6774502   6.7423795
  16.9609992  25.3249978  12.2140014  17.8939992  25.5369978  12.1790014
  16.7259992  25.4259978  13.1360014  17.0569517  25.3676833  12.3339130
  16.9909992  26.0619978  14.9900014  16.1479992  26.3299978  15.3560014
  17.4329992  26.8839978  14.7790014  16.9354138  26.2098273  15.0115518
   1.2719992  24.5089978  18.4660014   2.1909992  24.3869978  18.7030014
   0.8219992  23.7589978  18.8560014   1.3370087  24.3909608  18.5511410
  19.2739992  20.0419978  20.3430014  19.6229992  19.3879978  19.7380014
  19.4209992  20.8789978  19.9030014  19.3416824  20.0656024  20.2006304
  16.9629992  22.0059978   6.8260014  17.1449992  21.5569978   7.6510014
  16.3629992  21.4219978   6.3620014  16.9068187  21.8655552   6.8762739
   2.4929992  22.8219978  11.3580014   2.9379992  22.0299978  11.6600014
   2.9589992  23.5379978  11.7880014   2.6169718  22.8104534  11.4575265
   0.7969992  25.8209978  12.4270014   1.2889992  25.5999978  11.6360014
   1.1589992  26.6609978  12.7080014   0.9132923  25.9043468  12.3567407
  18.7929992  22.1509978  18.6920014  17.8759992  22.4219978  18.6570014
  18.9159992  21.6159978  17.9080014  18.6839672  22.1157885  18.5811862
  18.8299992  22.0739978   3.3540014  19.2419992  21.3529978   2.8790014
  19.5109992  22.7429978   3.4120014  18.9785536  22.0657766   3.2968024
   1.1109992  22.0789978   6.4810014   0.1859992  22.2869978   6.3520014
   1.5649992  22.5629978   5.7910014   1.0456298  22.1729299   6.3700451
  15.8809992  37.0629978   8.4270014  16.5339992  36.7149978   7.8190014
  16.3919992  37.5509978   9.0730014  16.0392777  37.0813815   8.4312047
   1.0739992  20.8169978  14.8250014   0.4089992  20.5709978  15.4680014
   0.6309992  21.4389978  14.2480014   0.9231168  20.8674214  14.8349848
   3.2659992  33.9919978  18.9700014   2.4449992  34.1669978  18.5090014
   3.0139992  33.9189978  19.8900014   3.1195594  34.0060717  19.0313611
   6.2199992  34.9659978  15.2280014   5.7959992  35.7759978  14.9460014
   7.1249992  35.0519978  14.9260014   6.2842138  35.0884160  15.1486415
  10.5319992  36.3649978  18.1880014  10.7159992  36.0319978  19.0660014
  11.3779992  36.6749978  17.8660014  10.6716484  36.3612979  18.2647617
  12.8769992  37.6509978  17.4320014  13.5539992  37.0179978  17.1920014
  13.1979992  38.0519978  18.2390014  13.0131323  37.6185691  17.5083158
  17.7939992  20.2409978  16.5110014  16.9809992  20.5659978  16.1240014
  18.0269992  19.4799978  15.9780014  17.7141347  20.1826880  16.3859841
   3.6219992  38.2229978  15.2760014   2.9019992  38.6629978  14.8250014
   3.2569992  37.9719978  16.1240014   3.4739643  38.2493369  15.3289129
   6.0889992  37.8229978  14.3060014   5.2249992  37.8949978  14.7100014
   6.0339992  38.3699978  13.5220014   5.9631942  37.9067849  14.2554000
  10.7999992  37.7109978  13.4810014  10.3429992  38.2399978  12.8270014
  10.9629992  38.3139978  14.2060014  10.7594960  37.8649280  13.4895274
  13.1279992  36.5889978  14.4260014  12.2229992  36.7539978  14.1600014
  13.5559992  37.4419978  14.3600014  13.0621537  36.7269134  14.3807095
  15.7319992  38.1589978  14.7210014  15.5499992  39.0749978  14.5100014
  15.9089992  37.7479978  13.8740014  15.7310030  38.2288273  14.5777166
   3.0369992  36.8459978  12.1860014   3.0189992  36.4199978  13.0430014
   3.8419992  36.5269978  11.7770014   3.1432875  36.7446435  12.2479515
   5.1779992  35.5559978  10.8410014   4.9589992  34.6389978  11.0110014
   6.0019992  35.6959978  11.3070014   5.2594702  35.4495511  10.9272527
   7.7149992  36.0259978  11.6900014   7.9279992  35.1379978  11.4030014
   7.7799992  35.9909978  12.6440014   7.7529149  35.8998326  11.7797369
  11.2239992  21.6899978  10.8340014  10.5499992  21.0599978  11.0900014
  11.7879992  21.2059978  10.2310014  11.2080384  21.5383708  10.7875020
  16.3669992  19.7969978  10.9470014  16.9699992  20.3449978  10.4450014
  15.4969992  20.1159978  10.7060014  16.3319157  19.9150373  10.8457910
  18.0939992  20.9359978   9.2800014  18.7049992  20.4219978   8.7530014
  18.4759992  21.8129978   9.3030014  18.2293305  20.9842050   9.2109418
   3.5509992  20.3239978   8.6560014   2.7739992  20.0889978   8.1490014
   4.0809992  19.5269978   8.6650014   3.5163451  20.1841268   8.5878627
   2.3869992  20.1219978   4.4600014   2.8259992  20.7329978   3.8680014
   1.7529992  20.6599978   4.9340014   2.3613859  20.2784064   4.4430305
   8.1299992  20.2499978   8.4690014   9.0039992  20.6389978   8.4400014
   7.9939992  20.0349978   9.3920014   8.2311953  20.2741643   8.5897617
  13.6869992  20.2799978  10.1190014  13.7629992  20.3759978   9.1690014
  13.4119992  19.3729978  10.2470014  13.6601871  20.1704146  10.0063944
  15.0399992  20.3059978   5.8110014  14.3369992  20.9209978   5.6010014
  14.5949992  19.4689978   5.9420014  14.8836550  20.2769668   5.7999837
   2.2879992  36.0699978   5.3570014   1.6029992  36.0319978   4.6900014
   2.2919992  36.9829978   5.6450014   2.1947621  36.1881924   5.3046126
   4.2479992  22.0379978   2.9020014   4.7389992  21.4079978   2.3750014
   4.8709992  22.3339978   3.5650014   4.3995304  21.9917376   2.9194940
   9.2739992  22.3309978   5.3590014   9.4519992  21.6839978   6.0420014
   9.2199992  23.1649978   5.8260014   9.2910678  22.3551604   5.5156301
  11.1519992  37.2789978   3.7550014  12.0179992  37.6459978   3.5770014
  10.9059992  36.8399978   2.9410014  11.2372097  37.2698525   3.6206019
  17.8609992  36.8419978   6.4340014  17.6669992  36.0939978   5.8690014
  17.8219992  37.5999978   5.8510014  17.8291645  36.8420786   6.2778148
   3.5079992  20.8379978  18.1740014   3.1419992  20.0719978  18.6160014
   4.4209992  20.8669978  18.4600014   3.5813172  20.7370324  18.2731890
   5.4809992  20.1879978  19.7090014   6.3799992  19.9139978  19.5250014
   5.0949992  19.4459978  20.1740014   5.5517307  20.0502196  19.7467098
   4.1059992  36.9899978   2.3820014   3.8379992  37.2759978   3.2560014
   4.8769992  36.4439978   2.5350014   4.1735926  36.9552779   2.5221205
  13.9029992  19.5209978  19.8920014  13.9789992  19.0949978  20.7450014
  14.7959992  19.5339978  19.5490014  14.0342303  19.4643493  19.9625497
  17.0789992  35.5939978  18.5840014  16.2969992  35.4069978  18.0640014
  17.0069992  36.5229978  18.8010014  16.9621924  35.6940637  18.5421602
  31.4849992  29.4799978   8.6150014  31.5739992  30.4239978   8.4830014
  30.8469992  29.2049978   7.9570014  31.4109062  29.5719812   8.5079641
  30.4179992  28.7349978  12.0340014  30.3799992  28.0889978  12.7390014
  30.0959992  28.2679978  11.2630014  30.3692679  28.5834276  12.0262921
  22.7859992  28.3489978  13.6270014  22.8279992  27.7239978  14.3500014
  23.4889992  28.9729978  13.8090014  22.8867345  28.3477873  13.7505274
  34.1239992  31.6739978  10.3350014  33.6829992  30.9539978  10.7860014
  34.1109992  32.3949978  10.9650014  34.0619215  31.6729291  10.4818105
  23.7099992  32.7989978  12.1620014  23.3399992  31.9969978  11.7920014
  24.6509992  32.6309978  12.2080014  23.7865984  32.6664638  12.1175603
  20.3199992  26.4589978   7.5540014  19.8719992  27.3049978   7.5360014
  19.7589992  25.8799978   7.0390014  20.1828546  26.4963993   7.4818891
  21.0299992  28.6209978   9.6800014  21.2439992  27.8509978  10.2080014
  21.7679992  28.7109978   9.0770014  21.1590200  28.5278586   9.6707035
  31.2359992  36.7779978  10.5470014  31.8549992  36.1019978  10.2740014
  31.0269992  36.5599978  11.4560014  31.2926056  36.6558869  10.6323967
  28.8069992  31.1669978  12.4400014  29.1109992  30.4809978  11.8450014
  29.5289992  31.2859978  13.0580014  28.9461240  31.0892314  12.4420959
  37.4699992  22.7689978  13.3000014  37.5199992  23.3789978  14.0360014
  37.8959992  23.2299978  12.5770014  37.5344108  22.9147709  13.3030112
  31.9479992  25.5609978  12.7670014  32.0909992  24.6149978  12.7870014
  31.8419992  25.7679978  11.8390014  31.9532403  25.4594797  12.6442239
  25.1029992  23.6629978  10.0400014  25.1459992  24.5229978   9.6210014
  24.6449992  23.1109978   9.4060014  25.0469871  23.7059245   9.8970761
  32.8249992  23.7939978   8.4410014  33.4719992  23.4649978   9.0650014
  33.3349992  24.3109978   7.8180014  32.9824351  23.8189067   8.4421037
  21.7229992  26.0599978  10.8020014  22.3769992  25.5099978  11.2340014
  21.7469992  25.7859978   9.8850014  21.8157199  25.9477167  10.7371668
  26.8799992  27.6099978  10.0170014  27.4959992  27.0829978  10.5260014
  26.2929992  26.9699978   9.6130014  26.8850154  27.4513954  10.0320945
  37.8619992  24.2469978  15.5360014  37.1729992  24.9049978  15.4410014
  37.8769992  24.0489978  16.4730014  37.7697756  24.3102603  15.6495812
  23.9129992  22.5809978  14.1140014  23.6939992  23.1109978  13.3470014
  23.2449992  22.8069978  14.7610014  23.7926975  22.6840967  14.0965140
  31.2819992  32.0809978   7.6580014  30.9869992  31.7579978   6.8060014
  30.9579992  32.9809978   7.6990014  31.1978460  32.1584464   7.5469714
  26.4819992  30.2559978  14.4010014  25.7419992  30.8549978  14.5050014
  27.1959992  30.8099978  14.0860014  26.4773500  30.4127829  14.3726371
  34.5889992  23.0849978  10.4210014  34.3739992  22.3189978  10.9540014
  35.2449992  23.5569978  10.9340014  34.6482673  23.0440728  10.5631990
  23.5069992  24.4729978  12.0660014  24.1209992  25.1059978  12.4390014
  24.0189992  24.0009978  11.4100014  23.6601962  24.4957249  12.0282935
  24.8899992  32.2209978  15.1880014  24.8839992  33.0999978  14.8100014
  24.0359992  32.1369978  15.6130014  24.7737925  32.3299535  15.1936887
  21.0109992  31.8919978   5.9700014  20.7389992  32.1209978   5.0820014
  21.0559992  32.7289978   6.4310014  20.9798097  32.0366163   5.9106683
  34.6359992  33.5129978  12.6830014  33.6939992  33.5719978  12.8450014
  34.9119992  34.4189978  12.5460014  34.5445865  33.6435288  12.6866192
  34.9359992  21.7999978  14.1000014  34.1999992  22.4099978  14.0630014
  35.6199992  22.2149978  13.5740014  34.9275367  21.9397551  14.0238174
  27.9399992  19.8859978  11.5660014  27.8219992  18.9379978  11.5120014
  27.0849992  20.2189978  11.8390014  27.8082805  19.8012202  11.5955079
  32.8879992  35.2939978   9.3080014  33.3129992  34.5869978   8.8230014
  33.2049992  36.0959978   8.8910014  32.9890266  35.3055190   9.1852479
  34.0479992  33.1949978   7.8170014  33.7899992  32.5049978   7.2050014
  34.1189992  32.7519978   8.6620014  34.0223050  33.0406814   7.8475621
  35.7339992  31.7619978  16.2940014  35.8729992  31.1699978  15.5550014
  35.9009992  32.6349978  15.9380014  35.7756193  31.7988896  16.1446211
  30.2059992  28.7239978   6.0670014  29.4949992  29.2589978   5.7150014
  30.8969992  28.7789978   5.4070014  30.2020751  28.8046777   5.9295858
  30.2599992  27.1809978   3.1050014  30.9609992  27.2039978   3.7570014
  30.5619992  26.5529978   2.4490014  30.3968202  27.0992212   3.1055609
  37.5749992  28.1019978  14.3600014  36.9229992  28.7959978  14.4490014
  38.0409992  28.3119978  13.5500014  37.5485937  28.2255019  14.2627533
  33.6119992  28.9329978   7.0180014  32.8799992  29.1619978   7.5920014
  34.0589992  28.2199978   7.4730014  33.5723963  28.8678729   7.1579945
  33.5089992  27.1079978  16.0860014  33.5889992  27.8709978  16.6580014
  32.9079992  27.3869978  15.3960014  33.4386547  27.2502457  16.0710047
  25.2569992  29.5639978   8.9010014  24.9269992  29.1929978   8.0830014
  25.8459992  28.8929978   9.2480014  25.2913970  29.4226063   8.8359404
  26.6239992  32.9919978  11.5820014  26.5289992  32.4129978  10.8260014
  27.3529992  32.6209978  12.0780014  26.7096011  32.8625561  11.5456028
  25.6239992  28.3319978  12.5340014  26.1889992  28.4539978  11.7720014
  25.9429992  28.9699978  13.1730014  25.7444166  28.4348791  12.5160348
  31.9329992  33.8359978  13.2680014  31.6929992  34.4979978  13.9160014
  31.7349992  33.0009978  13.6930014  31.8733826  33.8138115  13.4141566
  26.5039992  32.7319978  17.2520014  26.1929992  33.5139978  17.7070014
  25.8539992  32.5789978  16.5660014  26.3735538  32.8184087  17.2215898
  32.4829992  28.0959978   4.7040014  33.0619992  28.2459978   5.4500014
  32.8969992  28.5659978   3.9800014  32.6183358  28.1800954   4.7083953
  23.4239992  28.9299978  16.4800014  23.4939992  29.5809978  17.1790014
  22.5329992  29.0329978  16.1450014  23.3131690  29.0329249  16.5303043
  30.2089992  34.8319978   8.1390014  30.6829992  35.1279978   8.9160014
  29.6459992  35.5709978   7.9060014  30.1977890  34.9723036   8.2138101
  24.7429992  34.8029978  18.0150014  24.7509992  34.6669978  17.0680014
  23.8269992  34.6859978  18.2670014  24.6202528  34.7685463  17.9193243
  36.1819992  19.8459978   4.5170014  35.2819992  19.9849978   4.8120014
  36.4339992  20.6769978   4.1150014  36.0928683  19.9774055   4.5030232
  24.2479992  28.6329978   6.4900014  23.9559992  29.4009978   5.9990014
  23.5729992  27.9739978   6.3270014  24.1168497  28.6489745   6.4008260
  37.3709992  34.2119978   2.8930014  37.4439992  35.1509978   3.0630014
  38.2759992  33.9069978   2.8370014  37.5034170  34.2993282   2.9087063
  20.3409992  30.9959978  15.3050014  19.8389992  30.9679978  14.4900014
  20.3459992  30.0909978  15.6150014  20.2729832  30.8697486  15.2354121
  20.0909992  33.7769978  12.1890014  21.0369992  33.6319978  12.1700014
  19.9779992  34.5609978  12.7260014  20.2053578  33.8631697  12.2590317
  38.2889992  34.4429978  17.8720014  38.2389992  33.4869978  17.8340014
  37.4619992  34.7099978  18.2730014  38.1703831  34.3484680  17.9210121
  29.2669992  34.0169978  16.7480014  29.3549992  34.8429978  17.2230014
  28.4039992  33.6869978  16.9970014  29.1623357  34.0855468  16.8467653
  29.6819992  37.7889978   6.5540014  29.6059992  37.6679978   5.6070014
  29.7139992  38.7379978   6.6720014  29.6759380  37.9007677   6.4405181
  23.3349992  36.5779978   8.3350014  23.4869992  36.2299978   9.2130014
  22.4839992  36.2209978   8.0790014  23.2408344  36.4820879   8.4206868
  32.7829992  36.9429978   3.5560014  33.1579992  36.1989978   3.0850014
  32.7879992  36.6729978   4.4740014  32.8350098  36.8046392   3.6156629
  32.4519992  36.8689978   6.3050014  31.5169992  36.9689978   6.4840014
  32.7319992  36.1589978   6.8840014  32.3619471  36.7867933   6.4076695
  35.4409992  25.9359978  18.3520014  35.0329992  26.4159978  17.6310014
  35.4809992  25.0299978  18.0440014  35.3906221  25.8792449  18.2118267
  22.5899992  32.3199978  16.3480014  22.8059992  31.9579978  17.2080014
  21.7339992  31.9449978  16.1390014  22.5038810  32.2198837  16.4372680
  25.2079992  20.7899978  12.3440014  24.3469992  20.7029978  11.9360014
  25.1859992  21.6459978  12.7720014  25.0870491  20.8938003  12.3459582
  29.8709992  20.5119978  15.7190014  30.2909992  20.0969978  16.4720014
  28.9379992  20.3329978  15.8360014  29.8023736  20.4309910  15.8378968
  33.1979992  24.2669978  16.5720014  32.6839992  24.1419978  17.3700014
  33.0419992  25.1799978  16.3280014  33.1066967  24.3732123  16.6480937
  33.9599992  29.1279978   2.3330014  34.0019992  28.9059978   1.4030014
  34.8089992  29.5269978   2.5230014  34.0805253  29.1515498   2.2313822
  29.5329992  23.0039978   3.0040014  29.2789992  23.0229978   3.9260014
  29.2759992  22.1329978   2.7020014  29.4634508  22.8888280   3.0894803
  25.2989992  25.7549978  13.4390014  24.6579992  25.7149978  14.1480014
  25.3369992  26.6819978  13.2010014  25.2163010  25.8747668  13.5039946
  25.2959992  25.9759978   8.3510014  24.4039992  25.6359978   8.2920014
  25.7469992  25.5989978   7.5950014  25.2347642  25.8784910   8.2407726
  30.8319992  26.3919978   7.1680014  30.4229992  27.2069978   6.8760014
  31.5519992  26.2519978   6.5540014  30.8734439  26.4845372   7.0450115
  29.9339992  26.5679978  18.6560014  29.3709992  25.8629978  18.9770014
  30.7599992  26.4469978  19.1240014  29.9686674  26.4552165  18.7631751
  31.8369992  25.8379978   9.9820014  31.6409992  26.4439978   9.2670014
  32.0179992  25.0049978   9.5480014  31.8346584  25.8082513   9.8254212
  23.0489992  26.0759978  15.3060014  23.0109992  26.4759978  16.1750014
  22.5589992  25.2589978  15.3960014  22.9775330  26.0202674  15.4371289
  26.4149992  23.4499978   2.1050014  25.9839992  23.0049978   2.8340014
  25.6969992  23.8209978   1.5920014  26.2589176  23.4392051   2.1354930
  19.6579992  23.1919978   9.1570014  20.2879992  23.1629978   9.8760014
  20.1069992  22.7669978   8.4260014  19.8050835  23.1305660   9.1567659
  20.9319992  23.9379978   4.5810014  21.4059992  24.5289978   3.9960014
  20.2139992  24.4679978   4.9280014  20.8998640  24.0905511   4.5477969
  31.1009992  27.4759978  14.6530014  31.4239992  26.8449978  14.0100014
  30.6599992  26.9419978  15.3140014  31.0856379  27.3173468  14.6542582
  27.8779992  23.4039978   9.4370014  26.9669992  23.4609978   9.7260014
  28.3829992  23.3439978  10.2480014  27.8216873  23.4036826   9.5861207
  22.7059992  25.0329978   8.2640014  21.8169992  25.1319978   7.9240014
  23.0029992  24.1909978   7.9180014  22.6244177  24.9327687   8.1706940
  26.3589992  25.0329978   5.9210014  27.2909992  25.1619978   6.0990014
  26.1439992  25.7019978   5.2710014  26.4574472  25.1410806   5.8574891
  32.2829992  22.6389978  12.7020014  31.6059992  22.7699978  13.3650014
  31.7979992  22.4839978  11.8910014  32.1247405  22.6359947  12.6832170
  25.0329992  26.2269978   3.4870014  24.4909992  25.8479978   2.7960014
  25.8669992  26.4219978   3.0590014  25.0714390  26.2014079   3.3344392
  35.5709992  38.3099978  18.9780014  35.7699992  38.7339978  18.1440014
  36.2259992  38.6539978  19.5850014  35.6868522  38.4146301  18.9457852
  23.1689992  30.7839978  18.5860014  23.9009992  31.0389978  19.1480014
  22.3879992  30.9889978  19.1020014  23.1636526  30.8465450  18.7325176
  29.1979992  26.1909978  11.3240014  29.7619992  25.6449978  10.7770014
  29.0499992  25.6699978  12.1130014  29.2553037  26.0456787  11.3557229
  24.1999992  22.3279978   7.7430014  23.8829992  21.4249978   7.7070014
  24.9809992  22.3299978   7.1900014  24.2622431  22.2047797   7.6633102
  27.8239992  24.5799978  13.7380014  26.9889992  25.0339978  13.8490014
  28.3479992  24.8559978  14.4900014  27.7806072  24.6793948  13.8548136
  28.3689992  30.7929978   5.4230014  27.6239992  30.2849978   5.1010014
  28.2339992  30.8419978   6.3690014  28.2488963  30.7301731   5.5068826
  35.5189992  29.9259978  14.2100014  36.1599992  30.3819978  13.6660014
  34.6879992  30.0389978  13.7470014  35.4945287  30.0036921  14.0729887
  32.2659992  23.6069978   3.6220014  31.3279992  23.7179978   3.4710014
  32.5639992  24.4629978   3.9290014  32.1776318  23.7380158   3.6428145
  29.8879992  30.9769978  16.6600014  29.5419992  30.5949978  17.4670014
  29.6879992  31.9099978  16.7310014  29.8135987  31.0509002  16.7800461
  32.9849992  25.4739978   5.2830014  33.8769992  25.3359978   5.6020014
  33.0409992  26.2649978   4.7460014  33.1147325  25.5619918   5.2541217
  23.4929992  30.0879978  11.1930014  24.2379992  30.0849978  10.5910014
  23.5709992  29.2639978  11.6740014  23.6053365  29.9762384  11.1757430
  30.4939992  32.2509978   4.4480014  30.1989992  33.0779978   4.8300014
  29.7909992  31.6319978   4.6450014  30.3586379  32.2804171   4.5268654
  20.5009992  28.5479978  16.5080014  20.7239992  28.1299978  17.3390014
  19.8989992  27.9359978  16.0850014  20.4501513  28.4079606  16.5646740
  27.5179992  28.0649978  18.7210014  27.2219992  27.8999978  17.8250014
  28.4489992  27.8449978  18.7100014  27.6034401  28.0126879  18.5970206
  32.1379992  33.4389978  16.6100014  31.2379992  33.6219978  16.3430014
  32.1719992  33.6979978  17.5310014  32.0193748  33.4990554  16.6979164
  37.8699992  25.6829978   4.9780014  37.3149992  25.2869978   4.3050014
  37.9699992  26.5939978   4.7000014  37.8076816  25.7519505   4.8485033
  37.8329992  31.4839978  17.8150014  36.9819992  31.7219978  17.4470014
  38.4229992  31.4669978  17.0620014  37.7963812  31.5142524  17.6628453
  36.1649992  34.4689978   5.4430014  35.7919992  33.6439978   5.7520014
  36.4419992  34.2859978   4.5450014  36.1513463  34.3312569   5.3639525
  33.3249992  29.2769978  12.4640014  32.3969992  29.0459978  12.4370014
  33.7759992  28.4999978  12.1340014  33.2588165  29.1402774  12.4156790
  25.8679992  33.6059978   8.5970014  26.3959992  34.3789978   8.3970014
  24.9879992  33.8299978   8.2950014  25.8213435  33.7422700   8.5287310
  21.6229992  28.4679978   3.1840014  22.2389992  29.0949978   3.5640014
  20.7609992  28.7839978   3.4560014  21.5907678  28.5964412   3.2727209
  27.2959992  31.2689978   8.1730014  27.0549992  32.1939978   8.2150014
  26.5549992  30.8099978   8.5700014  27.1629206  31.3335915   8.2323769
  27.8099992  35.4179978  14.4880014  28.1729992  36.2719978  14.2550014
  28.3419992  35.1259978  15.2290014  27.9315141  35.4953895  14.5562097
  25.9789992  36.2899978   7.7190014  25.0289992  36.3959978   7.7700014
  26.3309992  37.1109978   8.0630014  25.8965472  36.4154923   7.7724852
  31.3539992  31.5169978  14.1890014  30.9289992  31.2889978  15.0150014
  31.9349992  30.7779978  14.0070014  31.3743395  31.3859545  14.2774414
  33.5569992  32.4459978   3.2630014  33.9109992  32.0659978   4.0670014
  32.6089992  32.3519978   3.3500014  33.4772298  32.3812452   3.3848687
  34.0129992  36.0689978  16.6580014  33.4109992  35.5129978  16.1630014
  34.2939992  36.7359978  16.0320014  33.9685757  36.0830744  16.5055675
  38.0609992  36.9249978   3.4640014  38.8049992  37.5109978   3.3240014
  37.3669992  37.4939978   3.7970014  38.0689809  37.0820818   3.4898590
  22.1349992  23.3019978  16.0660014  21.2429992  23.6399978  15.9980014
  22.0369992  22.4459978  16.4840014  21.9994475  23.2326543  16.1131704
  34.4229992  31.1179978   5.4900014  34.1459992  30.3899978   6.0460014
  35.3509992  31.2369978   5.6950014  34.5104499  31.0344213   5.5938044
  21.7869992  35.1059978  14.5010014  22.0039992  34.1739978  14.4700014
  22.0329992  35.3809978  15.3840014  21.8499809  35.0155686  14.6161691
  27.6479992  33.5579978   1.7100014  27.8869992  32.8089978   1.1630014
  27.3789992  33.1699978   2.5430014  27.6443233  33.4031853   1.7477809
  26.5849992  33.1279978   4.1660014  26.7319992  32.6079978   4.9560014
  26.5819992  34.0349978   4.4730014  26.6047102  33.1793953   4.3155925
  23.0379992  30.3799978   4.6770014  22.3519992  30.7329978   5.2440014
  23.5609992  31.1429978   4.4300014  23.0148402  30.5313901   4.7211801
  30.8699992  23.0429978  14.9560014  31.5689992  23.1169978  15.6060014
  30.4889992  22.1779978  15.1100014  30.9142097  22.9362389  15.0657997
  31.6539992  22.6949978   6.0530014  31.8739992  23.1659978   5.2490014
  32.2129992  23.0889978   6.7230014  31.7596731  22.8127287   6.0335033
  29.3229992  34.8249978   4.9160014  28.5059992  35.3219978   4.9680014
  29.8519992  35.3009978   4.2750014  29.2828125  34.9571989   4.8365306
  28.8539992  24.4229978   6.8880014  29.6659992  24.9269978   6.9340014
  28.6099992  24.2779978   7.8020014  28.9321467  24.4723749   7.0178575
  29.3899992  25.4089978  16.0720014  29.5089992  25.9829978  16.8290014
  30.0449992  24.7209978  16.1870014  29.4948684  25.3945194  16.1911674
  29.7379992  21.5039978   7.8260014  29.3909992  22.1209978   8.4700014
  30.3969992  22.0049978   7.3440014  29.7795090  21.6561575   7.8490681
  26.6609992  35.8689978   4.8970014  26.8219992  36.6689978   4.3970014
  26.4639992  36.1759978   5.7820014  26.6563906  36.0198678   4.9482333
  25.3959992  22.5669978   4.5130014  25.3119992  23.4549978   4.8600014
  26.2859992  22.3019978   4.7450014  25.5048163  22.6527179   4.5918596
  35.5939992  23.3159978  16.9070014  34.6779992  23.5779978  16.8200014
  35.9299992  23.3129978  16.0110014  35.5138499  23.3515163  16.7738766
  34.1969992  27.0659978  11.0030014  33.3989992  26.6509978  10.6750014
  34.6419992  26.3759978  11.4940014  34.1479684  26.9158628  11.0245227
  23.6539992  32.9939978   3.5730014  24.2459992  33.6939978   3.8500014
  24.1129992  32.5609978   2.8540014  23.7971652  33.0312675   3.5136533
  21.9699992  25.6589978   2.6890014  21.9249992  26.5979978   2.8680014
  21.0819992  25.4229978   2.4200014  21.8438166  25.7556687   2.6771524
  35.2829992  36.3219978  12.6250014  35.1269992  37.0009978  11.9680014
  36.2159992  36.3939978  12.8280014  35.3877387  36.4246390  12.5625342
  22.7779992  20.4399978  11.3630014  22.5489992  20.4989978  10.4350014
  22.3359992  19.6489978  11.6690014  22.6868801  20.3410540  11.2774729
  21.7089992  34.3809978   7.5230014  20.8759992  34.8529978   7.5500014
  22.2539992  34.8909978   6.9240014  21.6687857  34.5144791   7.4457142
  20.9969992  36.9929978  18.8530014  21.5369992  36.7769978  19.6130014
  20.5159992  36.1879978  18.6630014  21.0059219  36.8545156  18.9314282
  25.5939992  35.9129978  20.4730014  26.3619992  35.4539978  20.8140014
  25.5729992  35.6869978  19.5430014  25.6962135  35.8196668  20.3939491
  29.6859992  35.4209978   1.8490014  29.0419992  34.7899978   2.1700014
  30.4479992  34.8899978   1.6170014  29.7008058  35.2627902   1.8616038
  32.1709992  34.2929978  19.2020014  31.8199992  33.4359978  19.4460014
  32.8969992  34.4349978  19.8090014  32.2211895  34.1951351  19.3173770
  34.2909992  35.2379978   2.0820014  34.5739992  34.4429978   2.5350014
  35.0299992  35.4709978   1.5210014  34.4297096  35.1607049   2.0681104
  20.9039992  30.8039978  19.8070014  21.0479992  29.9019978  19.5210014
  20.1319992  31.0899978  19.3200014  20.8192733  30.7191798  19.7019532
  25.2449992  31.1469978   1.9400014  25.3099992  30.3529978   2.4700014
  25.8979992  31.0289978   1.2500014  25.3421605  31.0223430   1.9192997
  27.5589992  30.7729978  19.2400014  27.2309992  31.0439978  18.3830014
  27.7109992  29.8319978  19.1520014  27.5346412  30.6829046  19.1107822
  30.5979992  32.1939978   1.6760014  30.3289992  32.3749978   2.5760014
  30.3909992  31.2689978   1.5440014  30.5331191  32.0937119   1.7815524
  33.2939992  30.6889978  16.6230014  34.0389992  31.2779978  16.5040014
  32.5369992  31.2709978  16.6870014  33.2935470  30.8482128  16.6153799
  21.7369992  28.0039978  19.2270014  22.1449992  27.1469978  19.1060014
  21.4759992  28.0179978  20.1480014  21.7576016  27.8885119  19.3349192
  26.3949992  29.1199978   4.2460014  25.9349992  28.6359978   4.9310014
  26.6499992  28.4509978   3.6100014  26.3664856  28.9633669   4.2538397
  25.6839992  27.0129978  16.6020014  25.0649992  27.6869978  16.8820014
  26.0279992  27.3339978  15.7680014  25.6457123  27.1486887  16.5276388
  27.4659992  27.3629978   2.5080014  27.2849992  27.2079978   1.5810014
  28.4159992  27.4709978   2.5530014  27.5696566  27.3563669   2.3870929
  30.7029992  29.4839978  19.8790014  31.6569992  29.5679978  19.8520014
  30.5429992  28.7719978  20.4990014  30.8117182  29.3992842  19.9590733
  36.8559992  29.7169978   1.9540014  36.5819992  29.2929978   1.1410014
  36.8949992  30.6489978   1.7370014  36.8237716  29.7848827   1.8134286
  26.0229992  24.3679978  17.6840014  26.1729992  23.6389978  17.0820014
  26.0249992  25.1449978  17.1250014  26.0437967  24.3732708  17.5260541
  26.4359992  22.7369978  15.1770014  26.9709992  23.1889978  14.5250014
  25.5829992  22.6289978  14.7540014  26.3940374  22.7842665  15.0306710
  28.0169992  28.1769978  15.4160014  28.7679992  28.0209978  14.8430014
  27.6779992  29.0289978  15.1410014  28.0739587  28.2708138  15.3004078
  32.4329992  25.9919978  20.4450014  32.6249992  25.0609978  20.3330014
  33.2909992  26.4169978  20.4340014  32.5752182  25.9220070  20.4281862
  33.7499992  28.7809978  18.5220014  33.4679992  29.4899978  17.9440014
  34.6919992  28.7079978  18.3710014  33.8387921  28.8682193  18.4224225
  24.5019992  25.5659978  19.5950014  23.7339992  25.0329978  19.3850014
  25.1799992  25.2559978  18.9960014  24.4887235  25.4511754  19.4852413
  27.2409992  20.1939978  15.6080014  27.1429992  21.1399978  15.5030014
  26.4989992  19.8209978  15.1320014  27.1272534  20.2731773  15.5292600
  28.5049992  24.5149978  19.1720014  28.2699992  24.2959978  20.0730014
  27.7219992  24.3079978  18.6620014  28.3669095  24.4569892  19.2265353
  31.2209992  23.6429978  18.2470014  30.2729992  23.6749978  18.3790014
  31.5329992  23.0169978  18.9010014  31.1335293  23.5627923  18.3534148
  32.8549992  22.2769978  20.2520014  32.7579992  21.3249978  20.2470014
  32.5329992  22.5449978  21.1130014  32.7982468  22.1830884  20.3676210
  22.6819992  23.4859978  19.3000014  22.8939992  22.7799978  18.6900014
  22.5709992  23.0489978  20.1440014  22.6960269  23.3301921  19.3305873
  27.4629992  19.4879978  18.2790014  28.1749992  18.8479978  18.2650014
  27.3619992  19.7539978  17.3660014  27.5467387  19.4364330  18.1535563
  27.8169992  21.1699978  20.3330014  27.6849992  20.6949978  19.5130014
  27.2169992  21.9149978  20.2780014  27.7179070  21.2055789  20.2133251
  27.3629992  38.0529978   3.5090014  28.2959992  38.2109978   3.6530014
  27.0989992  38.7289978   2.8840014  27.4549911  38.1659373   3.4442722
  20.9309992  32.6899978   2.9920014  21.8449992  32.7689978   3.2650014
  20.9389992  32.0029978   2.3260014  21.0570655  32.6079205   2.9392917
  19.5799992  38.0829978   8.0690014  18.9329992  37.6209978   7.5370014
  19.9349992  37.4109978   8.6520014  19.5393741  37.9289774   8.0749175
  20.4499992  36.1629978   9.8740014  20.1159992  35.2829978  10.0460014
  20.6729992  36.5089978  10.7390014  20.4343721  36.0891938  10.0144168
  37.9989992  36.9729978  12.8550014  37.9769992  37.1579978  13.7940014
  38.6889992  37.5409978  12.5140014  38.0893439  37.0751887  12.9374791
  37.5619992  36.5399978  15.7760014  37.0749992  35.8049978  15.4050014
  38.1109992  36.1459978  16.4540014  37.5695247  36.3861057  15.8168461
  36.0129992  32.3299978  20.4150014  35.1469992  32.2249978  20.8090014
  36.3889992  33.0879978  20.8610014  35.9453401  32.4181708  20.5292620
  37.3139992  30.5859978   5.9290014  38.1639992  31.0069978   6.0560014
  37.3189992  29.8459978   6.5360014  37.4311143  30.5436094   6.0284750
  37.7079992  28.6399978   7.7520014  36.9819992  28.1599978   8.1500014
  38.2899992  28.8449978   8.4850014  37.6872730  28.6020184   7.9054149
  37.4669992  31.4249978  12.7000014  38.3009992  31.0469978  12.4190014
  37.5789992  32.3679978  12.5810014  37.5961917  31.5007943  12.6454861
  35.9539992  34.3029978  15.0070014  35.3059992  34.6279978  15.6320014
  35.4359992  33.8619978  14.3330014  35.7954196  34.2878651  15.0014152
  37.9769992  28.5409978   4.1430014  37.4549992  28.8969978   3.4250014
  37.9439992  29.2159978   4.8220014  37.9010129  28.6809598   4.1363355
  36.3259992  25.7799978   2.6940014  36.4219992  26.4469978   2.0140014
  36.1859992  24.9649978   2.2130014  36.3202040  25.7610671   2.5358378
  35.4949992  27.1609978   8.3150014  35.3449992  26.2159978   8.2950014
  35.1409992  27.4419978   9.1590014  35.4266351  27.0696644   8.4263220
  20.5299992  29.2389978  12.3260014  20.7149992  29.1569978  11.3900014
  21.3799992  29.1149978  12.7490014  20.6700928  29.2110463  12.2552893
  36.3509992  29.1309978  17.9540014  36.9339992  28.3959978  18.1460014
  36.9149992  29.9029978  18.0010014  36.5069781  29.1348145  17.9866164
  37.8479992  27.0339978  18.6390014  36.9849992  26.6549978  18.4730014
  38.4519992  26.2949978  18.5640014  37.8116085  26.8823223  18.6061695
  35.5729992  23.1879978   1.8120014  36.1839992  22.8169978   2.4490014
  34.7359992  22.7669978   2.0080014  35.5434947  23.0802756   1.9257252
  35.2059992  24.7429978   6.7780014  35.4849992  23.8359978   6.9020014
  35.9649992  25.1769978   6.3890014  35.3468619  24.6774502   6.7423795
  35.8169992  25.3249978  12.2140014  36.7499992  25.5369978  12.1790014
  35.5819992  25.4259978  13.1360014  35.9129517  25.3676833  12.3339130
  35.8469992  26.0619978  14.9900014  35.0039992  26.3299978  15.3560014
  36.2889992  26.8839978  14.7790014  35.7914138  26.2098273  15.0115518
  20.1279992  24.5089978  18.4660014  21.0469992  24.3869978  18.7030014
  19.6779992  23.7589978  18.8560014  20.1930087  24.3909608  18.5511410
  38.1299992  20.0419978  20.3430014  38.4789992  19.3879978  19.7380014
  38.2769992  20.8789978  19.9030014  38.1976824  20.0656024  20.2006304
  35.8189992  22.0059978   6.8260014  36.0009992  21.5569978   7.6510014
  35.2189992  21.4219978   6.3620014  35.7628187  21.8655552   6.8762739
  21.3489992  22.8219978  11.3580014  21.7939992  22.0299978  11.6600014
  21.8149992  23.5379978  11.7880014  21.4729718  22.8104534  11.4575265
  19.6529992  25.8209978  12.4270014  20.1449992  25.5999978  11.6360014
  20.0149992  26.6609978  12.7080014  19.7692923  25.9043468  12.3567407
  37.6489992  22.1509978  18.6920014  36.7319992  22.4219978  18.6570014
  37.7719992  21.6159978  17.9080014  37.5399672  22.1157885  18.5811862
  37.6859992  22.0739978   3.3540014  38.0979992  21.3529978   2.8790014
  38.3669992  22.7429978   3.4120014  37.8345536  22.0657766   3.2968024
  19.9669992  22.0789978   6.4810014  19.0419992  22.2869978   6.3520014
  20.4209992  22.5629978   5.7910014  19.9016298  22.1729299   6.3700451
  34.7369992  37.0629978   8.4270014  35.3899992  36.7149978   7.8190014
  35.2479992  37.5509978   9.0730014  34.8952777  37.0813815   8.4312047
  19.9299992  20.8169978  14.8250014  19.2649992  20.5709978  15.4680014
  19.4869992  21.4389978  14.2480014  19.7791168  20.8674214  14.8349848
  22.1219992  33.9919978  18.9700014  21.3009992  34.1669978  18.5090014
  21.8699992  33.9189978  19.8900014  21.9755594  34.0060717  19.0313611
  25.0759992  34.9659978  15.2280014  24.6519992  35.7759978  14.9460014
  25.9809992  35.0519978  14.9260014  25.1402138  35.0884160  15.1486415
  29.3879992  36.3649978  18.1880014  29.5719992  36.0319978  19.0660014
  30.2339992  36.6749978  17.8660014  29.5276484  36.3612979  18.2647617
  31.7329992  37.6509978  17.4320014  32.4099992  37.0179978  17.1920014
  32.0539992  38.0519978  18.2390014  31.8691323  37.6185691  17.5083158
  36.6499992  20.2409978  16.5110014  35.8369992  20.5659978  16.1240014
  36.8829992  19.4799978  15.9780014  36.5701347  20.1826880  16.3859841
  22.4779992  38.2229978  15.2760014  21.7579992  38.6629978  14.8250014
  22.1129992  37.9719978  16.1240014  22.3299643  38.2493369  15.3289129
  24.9449992  37.8229978  14.3060014  24.0809992  37.8949978  14.7100014
  24.8899992  38.3699978  13.5220014  24.8191942  37.9067849  14.2554000
  29.6559992  37.7109978  13.4810014  29.1989992  38.2399978  12.8270014
  29.8189992  38.3139978  14.2060014  29.6154960  37.8649280  13.4895274
  31.9839992  36.5889978  14.4260014  31.0789992  36.7539978  14.1600014
  32.4119992  37.4419978  14.3600014  31.9181537  36.7269134  14.3807095
  34.5879992  38.1589978  14.7210014  34.4059992  39.0749978  14.5100014
  34.7649992  37.7479978  13.8740014  34.5870030  38.2288273  14.5777166
  21.8929992  36.8459978  12.1860014  21.8749992  36.4199978  13.0430014
  22.6979992  36.5269978  11.7770014  21.9992875  36.7446435  12.2479515
  24.0339992  35.5559978  10.8410014  23.8149992  34.6389978  11.0110014
  24.8579992  35.6959978  11.3070014  24.1154702  35.4495511  10.9272527
  26.5709992  36.0259978  11.6900014  26.7839992  35.1379978  11.4030014
  26.6359992  35.9909978  12.6440014  26.6089149  35.8998326  11.7797369
  30.0799992  21.6899978  10.8340014  29.4059992  21.0599978  11.0900014
  30.6439992  21.2059978  10.2310014  30.0640384  21.5383708  10.7875020
  35.2229992  19.7969978  10.9470014  35.8259992  20.3449978  10.4450014
  34.3529992  20.1159978  10.7060014  35.1879157  19.9150373  10.8457910
  36.9499992  20.9359978   9.2800014  37.5609992  20.4219978   8.7530014
  37.3319992  21.8129978   9.3030014  37.0853305  20.9842050   9.2109418
  22.4069992  20.3239978   8.6560014  21.6299992  20.0889978   8.1490014
  22.9369992  19.5269978   8.6650014  22.3723451  20.1841268   8.5878627
  21.2429992  20.1219978   4.4600014  21.6819992  20.7329978   3.8680014
  20.6089992  20.6599978   4.9340014  21.2173859  20.2784064   4.4430305
  26.9859992  20.2499978   8.4690014  27.8599992  20.6389978   8.4400014
  26.8499992  20.0349978   9.3920014  27.0871953  20.2741643   8.5897617
  32.5429992  20.2799978  10.1190014  32.6189992  20.3759978   9.1690014
  32.2679992  19.3729978  10.2470014  32.5161871  20.1704146  10.0063944
  33.8959992  20.3059978   5.8110014  33.1929992  20.9209978   5.6010014
  33.4509992  19.4689978   5.9420014  33.7396550  20.2769668   5.7999837
  21.1439992  36.0699978   5.3570014  20.4589992  36.0319978   4.6900014
  21.1479992  36.9829978   5.6450014  21.0507621  36.1881924   5.3046126
  23.1039992  22.0379978   2.9020014  23.5949992  21.4079978   2.3750014
  23.7269992  22.3339978   3.5650014  23.2555304  21.9917376   2.9194940
  28.1299992  22.3309978   5.3590014  28.3079992  21.6839978   6.0420014
  28.0759992  23.1649978   5.8260014  28.1470678  22.3551604   5.5156301
  30.0079992  37.2789978   3.7550014  30.8739992  37.6459978   3.5770014
  29.7619992  36.8399978   2.9410014  30.0932097  37.2698525   3.6206019
  36.7169992  36.8419978   6.4340014  36.5229992  36.0939978   5.8690014
  36.6779992  37.5999978   5.8510014  36.6851645  36.8420786   6.2778148
  22.3639992  20.8379978  18.1740014  21.9979992  20.0719978  18.6160014
  23.2769992  20.8669978  18.4600014  22.4373172  20.7370324  18.2731890
  24.3369992  20.1879978  19.7090014  25.2359992  19.9139978  19.5250014
  23.9509992  19.4459978  20.1740014  24.4077307  20.0502196  19.7467098
  22.9619992  36.9899978   2.3820014  22.6939992  37.2759978   3.2560014
  23.7329992  36.4439978   2.5350014  23.0295926  36.9552779   2.5221205
  32.7589992  19.5209978  19.8920014  32.8349992  19.0949978  20.7450014
  33.6519992  19.5339978  19.5490014  32.8902303  19.4643493  19.9625497
  35.9349992  35.5939978  18.5840014  35.1529992  35.4069978  18.0640014
  35.8629992  36.5229978  18.8010014  35.8181924  35.6940637  18.5421602
  50.3409992  29.4799978   8.6150014  50.4299992  30.4239978   8.4830014
  49.7029992  29.2049978   7.9570014  50.2669062  29.5719812   8.5079641
  49.2739992  28.7349978  12.0340014  49.2359992  28.0889978  12.7390014
  48.9519992  28.2679978  11.2630014  49.2252679  28.5834276  12.0262921
  41.6419992  28.3489978  13.6270014  41.6839992  27.7239978  14.3500014
  42.3449992  28.9729978  13.8090014  41.7427345  28.3477873  13.7505274
  52.9799992  31.6739978  10.3350014  52.5389992  30.9539978  10.7860014
  52.9669992  32.3949978  10.9650014  52.9179215  31.6729291  10.4818105
  42.5659992  32.7989978  12.1620014  42.1959992  31.9969978  11.7920014
  43.5069992  32.6309978  12.2080014  42.6425984  32.6664638  12.1175603
  39.1759992  26.4589978   7.5540014  38.7279992  27.3049978   7.5360014
  38.6149992  25.8799978   7.0390014  39.0388546  26.4963993   7.4818891
  39.8859992  28.6209978   9.6800014  40.0999992  27.8509978  10.2080014
  40.6239992  28.7109978   9.0770014  40.0150200  28.5278586   9.6707035
  50.0919992  36.7779978  10.5470014  50.7109992  36.1019978  10.2740014
  49.8829992  36.5599978  11.4560014  50.1486056  36.6558869  10.6323967
  47.6629992  31.1669978  12.4400014  47.9669992  30.4809978  11.8450014
  48.3849992  31.2859978  13.0580014  47.8021240  31.0892314  12.4420959
  56.3259992  22.7689978  13.3000014  56.3759992  23.3789978  14.0360014
  56.7519992  23.2299978  12.5770014  56.3904108  22.9147709  13.3030112
  50.8039992  25.5609978  12.7670014  50.9469992  24.6149978  12.7870014
  50.6979992  25.7679978  11.8390014  50.8092403  25.4594797  12.6442239
  43.9589992  23.6629978  10.0400014  44.0019992  24.5229978   9.6210014
  43.5009992  23.1109978   9.4060014  43.9029871  23.7059245   9.8970761
  51.6809992  23.7939978   8.4410014  52.3279992  23.4649978   9.0650014
  52.1909992  24.3109978   7.8180014  51.8384351  23.8189067   8.4421037
  40.5789992  26.0599978  10.8020014  41.2329992  25.5099978  11.2340014
  40.6029992  25.7859978   9.8850014  40.6717199  25.9477167  10.7371668
  45.7359992  27.6099978  10.0170014  46.3519992  27.0829978  10.5260014
  45.1489992  26.9699978   9.6130014  45.7410154  27.4513954  10.0320945
  56.7179992  24.2469978  15.5360014  56.0289992  24.9049978  15.4410014
  56.7329992  24.0489978  16.4730014  56.6257756  24.3102603  15.6495812
  42.7689992  22.5809978  14.1140014  42.5499992  23.1109978  13.3470014
  42.1009992  22.8069978  14.7610014  42.6486975  22.6840967  14.0965140
  50.1379992  32.0809978   7.6580014  49.8429992  31.7579978   6.8060014
  49.8139992  32.9809978   7.6990014  50.0538460  32.1584464   7.5469714
  45.3379992  30.2559978  14.4010014  44.5979992  30.8549978  14.5050014
  46.0519992  30.8099978  14.0860014  45.3333500  30.4127829  14.3726371
  53.4449992  23.0849978  10.4210014  53.2299992  22.3189978  10.9540014
  54.1009992  23.5569978  10.9340014  53.5042673  23.0440728  10.5631990
  42.3629992  24.4729978  12.0660014  42.9769992  25.1059978  12.4390014
  42.8749992  24.0009978  11.4100014  42.5161962  24.4957249  12.0282935
  43.7459992  32.2209978  15.1880014  43.7399992  33.0999978  14.8100014
  42.8919992  32.1369978  15.6130014  43.6297925  32.3299535  15.1936887
  39.8669992  31.8919978   5.9700014  39.5949992  32.1209978   5.0820014
  39.9119992  32.7289978   6.4310014  39.8358097  32.0366163   5.9106683
  53.4919992  33.5129978  12.6830014  52.5499992  33.5719978  12.8450014
  53.7679992  34.4189978  12.5460014  53.4005865  33.6435288  12.6866192
  53.7919992  21.7999978  14.1000014  53.0559992  22.4099978  14.0630014
  54.4759992  22.2149978  13.5740014  53.7835367  21.9397551  14.0238174
  46.7959992  19.8859978  11.5660014  46.6779992  18.9379978  11.5120014
  45.9409992  20.2189978  11.8390014  46.6642805  19.8012202  11.5955079
  51.7439992  35.2939978   9.3080014  52.1689992  34.5869978   8.8230014
  52.0609992  36.0959978   8.8910014  51.8450266  35.3055190   9.1852479
  52.9039992  33.1949978   7.8170014  52.6459992  32.5049978   7.2050014
  52.9749992  32.7519978   8.6620014  52.8783050  33.0406814   7.8475621
  54.5899992  31.7619978  16.2940014  54.7289992  31.1699978  15.5550014
  54.7569992  32.6349978  15.9380014  54.6316193  31.7988896  16.1446211
  49.0619992  28.7239978   6.0670014  48.3509992  29.2589978   5.7150014
  49.7529992  28.7789978   5.4070014  49.0580751  28.8046777   5.9295858
  49.1159992  27.1809978   3.1050014  49.8169992  27.2039978   3.7570014
  49.4179992  26.5529978   2.4490014  49.2528202  27.0992212   3.1055609
  56.4309992  28.1019978  14.3600014  55.7789992  28.7959978  14.4490014
  56.8969992  28.3119978  13.5500014  56.4045937  28.2255019  14.2627533
  52.4679992  28.9329978   7.0180014  51.7359992  29.1619978   7.5920014
  52.9149992  28.2199978   7.4730014  52.4283963  28.8678729   7.1579945
  52.3649992  27.1079978  16.0860014  52.4449992  27.8709978  16.6580014
  51.7639992  27.3869978  15.3960014  52.2946547  27.2502457  16.0710047
  44.1129992  29.5639978   8.9010014  43.7829992  29.1929978   8.0830014
  44.7019992  28.8929978   9.2480014  44.1473970  29.4226063   8.8359404
  45.4799992  32.9919978  11.5820014  45.3849992  32.4129978  10.8260014
  46.2089992  32.6209978  12.0780014  45.5656011  32.8625561  11.5456028
  44.4799992  28.3319978  12.5340014  45.0449992  28.4539978  11.7720014
  44.7989992  28.9699978  13.1730014  44.6004166  28.4348791  12.5160348
  50.7889992  33.8359978  13.2680014  50.5489992  34.4979978  13.9160014
  50.5909992  33.0009978  13.6930014  50.7293826  33.8138115  13.4141566
  45.3599992  32.7319978  17.2520014  45.0489992  33.5139978  17.7070014
  44.7099992  32.5789978  16.5660014  45.2295538  32.8184087  17.2215898
  51.3389992  28.0959978   4.7040014  51.9179992  28.2459978   5.4500014
  51.7529992  28.5659978   3.9800014  51.4743358  28.1800955   4.7083953
  42.2799992  28.9299978  16.4800014  42.3499992  29.5809978  17.1790014
  41.3889992  29.0329978  16.1450014  42.1691690  29.0329249  16.5303043
  49.0649992  34.8319978   8.1390014  49.5389992  35.1279978   8.9160014
  48.5019992  35.5709978   7.9060014  49.0537890  34.9723036   8.2138101
  43.5989992  34.8029978  18.0150014  43.6069992  34.6669978  17.0680014
  42.6829992  34.6859978  18.2670014  43.4762528  34.7685463  17.9193243
  55.0379992  19.8459978   4.5170014  54.1379992  19.9849978   4.8120014
  55.2899992  20.6769978   4.1150014  54.9488683  19.9774055   4.5030232
  43.1039992  28.6329978   6.4900014  42.8119992  29.4009978   5.9990014
  42.4289992  27.9739978   6.3270014  42.9728497  28.6489745   6.4008260
  56.2269992  34.2119978   2.8930014  56.2999992  35.1509978   3.0630014
  57.1319992  33.9069978   2.8370014  56.3594170  34.2993282   2.9087063
  39.1969992  30.9959978  15.3050014  38.6949992  30.9679978  14.4900014
  39.2019992  30.0909978  15.6150014  39.1289832  30.8697486  15.2354121
  38.9469992  33.7769978  12.1890014  39.8929992  33.6319978  12.1700014
  38.8339992  34.5609978  12.7260014  39.0613578  33.8631697  12.2590317
  57.1449992  34.4429978  17.8720014  57.0949992  33.4869978  17.8340014
  56.3179992  34.7099978  18.2730014  57.0263831  34.3484680  17.9210121
  48.1229992  34.0169978  16.7480014  48.2109992  34.8429978  17.2230014
  47.2599992  33.6869978  16.9970014  48.0183357  34.0855468  16.8467653
  48.5379992  37.7889978   6.5540014  48.4619992  37.6679978   5.6070014
  48.5699992  38.7379978   6.6720014  48.5319380  37.9007677   6.4405181
  42.1909992  36.5779978   8.3350014  42.3429992  36.2299978   9.2130014
  41.3399992  36.2209978   8.0790014  42.0968344  36.4820879   8.4206868
  51.6389992  36.9429978   3.5560014  52.0139992  36.1989978   3.0850014
  51.6439992  36.6729978   4.4740014  51.6910098  36.8046392   3.6156629
  51.3079992  36.8689978   6.3050014  50.3729992  36.9689978   6.4840014
  51.5879992  36.1589978   6.8840014  51.2179471  36.7867933   6.4076695
  54.2969992  25.9359978  18.3520014  53.8889992  26.4159978  17.6310014
  54.3369992  25.0299978  18.0440014  54.2466221  25.8792449  18.2118267
  41.4459992  32.3199978  16.3480014  41.6619992  31.9579978  17.2080014
  40.5899992  31.9449978  16.1390014  41.3598810  32.2198837  16.4372680
  44.0639992  20.7899978  12.3440014  43.2029992  20.7029978  11.9360014
  44.0419992  21.6459978  12.7720014  43.9430491  20.8938003  12.3459582
  48.7269992  20.5119978  15.7190014  49.1469992  20.0969978  16.4720014
  47.7939992  20.3329978  15.8360014  48.6583736  20.4309910  15.8378968
  52.0539992  24.2669978  16.5720014  51.5399992  24.1419978  17.3700014
  51.8979992  25.1799978  16.3280014  51.9626967  24.3732123  16.6480937
  52.8159992  29.1279978   2.3330014  52.8579992  28.9059978   1.4030014
  53.6649992  29.5269978   2.5230014  52.9365253  29.1515498   2.2313822
  48.3889992  23.0039978   3.0040014  48.1349992  23.0229978   3.9260014
  48.1319992  22.1329978   2.7020014  48.3194508  22.8888280   3.0894803
  44.1549992  25.7549978  13.4390014  43.5139992  25.7149978  14.1480014
  44.1929992  26.6819978  13.2010014  44.0723010  25.8747668  13.5039946
  44.1519992  25.9759978   8.3510014  43.2599992  25.6359978   8.2920014
  44.6029992  25.5989978   7.5950014  44.0907642  25.8784910   8.2407726
  49.6879992  26.3919978   7.1680014  49.2789992  27.2069978   6.8760014
  50.4079992  26.2519978   6.5540014  49.7294439  26.4845372   7.0450115
  48.7899992  26.5679978  18.6560014  48.2269992  25.8629978  18.9770014
  49.6159992  26.4469978  19.1240014  48.8246674  26.4552165  18.7631751
  50.6929992  25.8379978   9.9820014  50.4969992  26.4439978   9.2670014
  50.8739992  25.0049978   9.5480014  50.6906584  25.8082513   9.8254212
  41.9049992  26.0759978  15.3060014  41.8669992  26.4759978  16.1750014
  41.4149992  25.2589978  15.3960014  41.8335330  26.0202674  15.4371289
  45.2709992  23.4499978   2.1050014  44.8399992  23.0049978   2.8340014
  44.5529992  23.8209978   1.5920014  45.1149176  23.4392051   2.1354930
  38.5139992  23.1919978   9.1570014  39.1439992  23.1629978   9.8760014
  38.9629992  22.7669978   8.4260014  38.6610835  23.1305660   9.1567659
  39.7879992  23.9379978   4.5810014  40.2619992  24.5289978   3.9960014
  39.0699992  24.4679978   4.9280014  39.7558640  24.0905511   4.5477969
  49.9569992  27.4759978  14.6530014  50.2799992  26.8449978  14.0100014
  49.5159992  26.9419978  15.3140014  49.9416379  27.3173468  14.6542582
  46.7339992  23.4039978   9.4370014  45.8229992  23.4609978   9.7260014
  47.2389992  23.3439978  10.2480014  46.6776873  23.4036826   9.5861207
  41.5619992  25.0329978   8.2640014  40.6729992  25.1319978   7.9240014
  41.8589992  24.1909978   7.9180014  41.4804177  24.9327687   8.1706940
  45.2149992  25.0329978   5.9210014  46.1469992  25.1619978   6.0990014
  44.9999992  25.7019978   5.2710014  45.3134472  25.1410806   5.8574891
  51.1389992  22.6389978  12.7020014  50.4619992  22.7699978  13.3650014
  50.6539992  22.4839978  11.8910014  50.9807405  22.6359947  12.6832170
  43.8889992  26.2269978   3.4870014  43.3469992  25.8479978   2.7960014
  44.7229992  26.4219978   3.0590014  43.9274390  26.2014079   3.3344392
  54.4269992  38.3099978  18.9780014  54.6259992  38.7339978  18.1440014
  55.0819992  38.6539978  19.5850014  54.5428522  38.4146301  18.9457852
  42.0249992  30.7839978  18.5860014  42.7569992  31.0389978  19.1480014
  41.2439992  30.9889978  19.1020014  42.0196526  30.8465450  18.7325176
  48.0539992  26.1909978  11.3240014  48.6179992  25.6449978  10.7770014
  47.9059992  25.6699978  12.1130014  48.1113037  26.0456787  11.3557229
  43.0559992  22.3279978   7.7430014  42.7389992  21.4249978   7.7070014
  43.8369992  22.3299978   7.1900014  43.1182431  22.2047797   7.6633102
  46.6799992  24.5799978  13.7380014  45.8449992  25.0339978  13.8490014
  47.2039992  24.8559978  14.4900014  46.6366072  24.6793948  13.8548136
  47.2249992  30.7929978   5.4230014  46.4799992  30.2849978   5.1010014
  47.0899992  30.8419978   6.3690014  47.1048963  30.7301731   5.5068826
  54.3749992  29.9259978  14.2100014  55.0159992  30.3819978  13.6660014
  53.5439992  30.0389978  13.7470014  54.3505287  30.0036921  14.0729887
  51.1219992  23.6069978   3.6220014  50.1839992  23.7179978   3.4710014
  51.4199992  24.4629978   3.9290014  51.0336318  23.7380158   3.6428145
  48.7439992  30.9769978  16.6600014  48.3979992  30.5949978  17.4670014
  48.5439992  31.9099978  16.7310014  48.6695987  31.0509002  16.7800461
  51.8409992  25.4739978   5.2830014  52.7329992  25.3359978   5.6020014
  51.8969992  26.2649978   4.7460014  51.9707325  25.5619918   5.2541217
  42.3489992  30.0879978  11.1930014  43.0939992  30.0849978  10.5910014
  42.4269992  29.2639978  11.6740014  42.4613365  29.9762384  11.1757430
  49.3499992  32.2509978   4.4480014  49.0549992  33.0779978   4.8300014
  48.6469992  31.6319978   4.6450014  49.2146379  32.2804171   4.5268654
  39.3569992  28.5479978  16.5080014  39.5799992  28.1299978  17.3390014
  38.7549992  27.9359978  16.0850014  39.3061513  28.4079606  16.5646740
  46.3739992  28.0649978  18.7210014  46.0779992  27.8999978  17.8250014
  47.3049992  27.8449978  18.7100014  46.4594401  28.0126879  18.5970206
  50.9939992  33.4389978  16.6100014  50.0939992  33.6219978  16.3430014
  51.0279992  33.6979978  17.5310014  50.8753748  33.4990554  16.6979164
  56.7259992  25.6829978   4.9780014  56.1709992  25.2869978   4.3050014
  56.8259992  26.5939978   4.7000014  56.6636816  25.7519505   4.8485033
  56.6889992  31.4839978  17.8150014  55.8379992  31.7219978  17.4470014
  57.2789992  31.4669978  17.0620014  56.6523812  31.5142524  17.6628453
  55.0209992  34.4689978   5.4430014  54.6479992  33.6439978   5.7520014
  55.2979992  34.2859978   4.5450014  55.0073463  34.3312569   5.3639525
  52.1809992  29.2769978  12.4640014  51.2529992  29.0459978  12.4370014
  52.6319992  28.4999978  12.1340014  52.1148165  29.1402774  12.4156790
  44.7239992  33.6059978   8.5970014  45.2519992  34.3789978   8.3970014
  43.8439992  33.8299978   8.2950014  44.6773435  33.7422700   8.5287310
  40.4789992  28.4679978   3.1840014  41.0949992  29.0949978   3.5640014
  39.6169992  28.7839978   3.4560014  40.4467678  28.5964412   3.2727209
  46.1519992  31.2689978   8.1730014  45.9109992  32.1939978   8.2150014
  45.4109992  30.8099978   8.5700014  46.0189206  31.3335915   8.2323769
  46.6659992  35.4179978  14.4880014  47.0289992  36.2719978  14.2550014
  47.1979992  35.1259978  15.2290014  46.7875141  35.4953895  14.5562097
  44.8349992  36.2899978   7.7190014  43.8849992  36.3959978   7.7700014
  45.1869992  37.1109978   8.0630014  44.7525472  36.4154923   7.7724852
  50.2099992  31.5169978  14.1890014  49.7849992  31.2889978  15.0150014
  50.7909992  30.7779978  14.0070014  50.2303395  31.3859545  14.2774414
  52.4129992  32.4459978   3.2630014  52.7669992  32.0659978   4.0670014
  51.4649992  32.3519978   3.3500014  52.3332298  32.3812452   3.3848687
  52.8689992  36.0689978  16.6580014  52.2669992  35.5129978  16.1630014
  53.1499992  36.7359978  16.0320014  52.8245757  36.0830744  16.5055675
  56.9169992  36.9249978   3.4640014  57.6609992  37.5109978   3.3240014
  56.2229992  37.4939978   3.7970014  56.9249809  37.0820818   3.4898590
  40.9909992  23.3019978  16.0660014  40.0989992  23.6399978  15.9980014
  40.8929992  22.4459978  16.4840014  40.8554475  23.2326543  16.1131704
  53.2789992  31.1179978   5.4900014  53.0019992  30.3899978   6.0460014
  54.2069992  31.2369978   5.6950014  53.3664499  31.0344213   5.5938044
  40.6429992  35.1059978  14.5010014  40.8599992  34.1739978  14.4700014
  40.8889992  35.3809978  15.3840014  40.7059809  35.0155686  14.6161691
  46.5039992  33.5579978   1.7100014  46.7429992  32.8089978   1.1630014
  46.2349992  33.1699978   2.5430014  46.5003233  33.4031853   1.7477809
  45.4409992  33.1279978   4.1660014  45.5879992  32.6079978   4.9560014
  45.4379992  34.0349978   4.4730014  45.4607102  33.1793953   4.3155925
  41.8939992  30.3799978   4.6770014  41.2079992  30.7329978   5.2440014
  42.4169992  31.1429978   4.4300014  41.8708402  30.5313901   4.7211801
  49.7259992  23.0429978  14.9560014  50.4249992  23.1169978  15.6060014
  49.3449992  22.1779978  15.1100014  49.7702097  22.9362389  15.0657997
  50.5099992  22.6949978   6.0530014  50.7299992  23.1659978   5.2490014
  51.0689992  23.0889978   6.7230014  50.6156731  22.8127287   6.0335033
  48.1789992  34.8249978   4.9160014  47.3619992  35.3219978   4.9680014
  48.7079992  35.3009978   4.2750014  48.1388125  34.9571989   4.8365306
  47.7099992  24.4229978   6.8880014  48.5219992  24.9269978   6.9340014
  47.4659992  24.2779978   7.8020014  47.7881467  24.4723749   7.0178575
  48.2459992  25.4089978  16.0720014  48.3649992  25.9829978  16.8290014
  48.9009992  24.7209978  16.1870014  48.3508684  25.3945194  16.1911674
  48.5939992  21.5039978   7.8260014  48.2469992  22.1209978   8.4700014
  49.2529992  22.0049978   7.3440014  48.6355090  21.6561575   7.8490681
  45.5169992  35.8689978   4.8970014  45.6779992  36.6689978   4.3970014
  45.3199992  36.1759978   5.7820014  45.5123906  36.0198678   4.9482333
  44.2519992  22.5669978   4.5130014  44.1679992  23.4549978   4.8600014
  45.1419992  22.3019978   4.7450014  44.3608163  22.6527179   4.5918596
  54.4499992  23.3159978  16.9070014  53.5339992  23.5779978  16.8200014
  54.7859992  23.3129978  16.0110014  54.3698499  23.3515163  16.7738766
  53.0529992  27.0659978  11.0030014  52.2549992  26.6509978  10.6750014
  53.4979992  26.3759978  11.4940014  53.0039684  26.9158628  11.0245227
  42.5099992  32.9939978   3.5730014  43.1019992  33.6939978   3.8500014
  42.9689992  32.5609978   2.8540014  42.6531652  33.0312675   3.5136533
  40.8259992  25.6589978   2.6890014  40.7809992  26.5979978   2.8680014
  39.9379992  25.4229978   2.4200014  40.6998166  25.7556687   2.6771524
  54.1389992  36.3219978  12.6250014  53.9829992  37.0009978  11.9680014
  55.0719992  36.3939978  12.8280014  54.2437387  36.4246390  12.5625342
  41.6339992  20.4399978  11.3630014  41.4049992  20.4989978  10.4350014
  41.1919992  19.6489978  11.6690014  41.5428801  20.3410540  11.2774729
  40.5649992  34.3809978   7.5230014  39.7319992  34.8529978   7.5500014
  41.1099992  34.8909978   6.9240014  40.5247857  34.5144791   7.4457142
  39.8529992  36.9929978  18.8530014  40.3929992  36.7769978  19.6130014
  39.3719992  36.1879978  18.6630014  39.8619219  36.8545156  18.9314282
  44.4499992  35.9129978  20.4730014  45.2179992  35.4539978  20.8140014
  44.4289992  35.6869978  19.5430014  44.5522135  35.8196668  20.3939491
  48.5419992  35.4209978   1.8490014  47.8979992  34.7899978   2.1700014
  49.3039992  34.8899978   1.6170014  48.5568058  35.2627902   1.8616038
  51.0269992  34.2929978  19.2020014  50.6759992  33.4359978  19.4460014
  51.7529992  34.4349978  19.8090014  51.0771895  34.1951351  19.3173770
  53.1469992  35.2379978   2.0820014  53.4299992  34.4429978   2.5350014
  53.8859992  35.4709978   1.5210014  53.2857096  35.1607049   2.0681104
  39.7599992  30.8039978  19.8070014  39.9039992  29.9019978  19.5210014
  38.9879992  31.0899978  19.3200014  39.6752733  30.7191798  19.7019532
  44.1009992  31.1469978   1.9400014  44.1659992  30.3529978   2.4700014
  44.7539992  31.0289978   1.2500014  44.1981605  31.0223430   1.9192997
  46.4149992  30.7729978  19.2400014  46.0869992  31.0439978  18.3830014
  46.5669992  29.8319978  19.1520014  46.3906412  30.6829046  19.1107822
  49.4539992  32.1939978   1.6760014  49.1849992  32.3749978   2.5760014
  49.2469992  31.2689978   1.5440014  49.3891191  32.0937119   1.7815524
  52.1499992  30.6889978  16.6230014  52.8949992  31.2779978  16.5040014
  51.3929992  31.2709978  16.6870014  52.1495470  30.8482128  16.6153799
  40.5929992  28.0039978  19.2270014  41.0009992  27.1469978  19.1060014
  40.3319992  28.0179978  20.1480014  40.6136016  27.8885119  19.3349192
  45.2509992  29.1199978   4.2460014  44.7909992  28.6359978   4.9310014
  45.5059992  28.4509978   3.6100014  45.2224856  28.9633669   4.2538397
  44.5399992  27.0129978  16.6020014  43.9209992  27.6869978  16.8820014
  44.8839992  27.3339978  15.7680014  44.5017123  27.1486887  16.5276388
  46.3219992  27.3629978   2.5080014  46.1409992  27.2079978   1.5810014
  47.2719992  27.4709978   2.5530014  46.4256566  27.3563669   2.3870929
  49.5589992  29.4839978  19.8790014  50.5129992  29.5679978  19.8520014
  49.3989992  28.7719978  20.4990014  49.6677182  29.3992842  19.9590733
  55.7119992  29.7169978   1.9540014  55.4379992  29.2929978   1.1410014
  55.7509992  30.6489978   1.7370014  55.6797716  29.7848827   1.8134286
  44.8789992  24.3679978  17.6840014  45.0289992  23.6389978  17.0820014
  44.8809992  25.1449978  17.1250014  44.8997967  24.3732708  17.5260541
  45.2919992  22.7369978  15.1770014  45.8269992  23.1889978  14.5250014
  44.4389992  22.6289978  14.7540014  45.2500374  22.7842665  15.0306710
  46.8729992  28.1769978  15.4160014  47.6239992  28.0209978  14.8430014
  46.5339992  29.0289978  15.1410014  46.9299587  28.2708138  15.3004078
  51.2889992  25.9919978  20.4450014  51.4809992  25.0609978  20.3330014
  52.1469992  26.4169978  20.4340014  51.4312182  25.9220070  20.4281862
  52.6059992  28.7809978  18.5220014  52.3239992  29.4899978  17.9440014
  53.5479992  28.7079978  18.3710014  52.6947921  28.8682193  18.4224225
  43.3579992  25.5659978  19.5950014  42.5899992  25.0329978  19.3850014
  44.0359992  25.2559978  18.9960014  43.3447235  25.4511754  19.4852413
  46.0969992  20.1939978  15.6080014  45.9989992  21.1399978  15.5030014
  45.3549992  19.8209978  15.1320014  45.9832534  20.2731773  15.5292600
  47.3609992  24.5149978  19.1720014  47.1259992  24.2959978  20.0730014
  46.5779992  24.3079978  18.6620014  47.2229095  24.4569892  19.2265353
  50.0769992  23.6429978  18.2470014  49.1289992  23.6749978  18.3790014
  50.3889992  23.0169978  18.9010014  49.9895293  23.5627923  18.3534148
  51.7109992  22.2769978  20.2520014  51.6139992  21.3249978  20.2470014
  51.3889992  22.5449978  21.1130014  51.6542468  22.1830884  20.3676210
  41.5379992  23.4859978  19.3000014  41.7499992  22.7799978  18.6900014
  41.4269992  23.0489978  20.1440014  41.5520269  23.3301921  19.3305873
  46.3189992  19.4879978  18.2790014  47.0309992  18.8479978  18.2650014
  46.2179992  19.7539978  17.3660014  46.4027387  19.4364330  18.1535563
  46.6729992  21.1699978  20.3330014  46.5409992  20.6949978  19.5130014
  46.0729992  21.9149978  20.2780014  46.5739070  21.2055789  20.2133251
  46.2189992  38.0529978   3.5090014  47.1519992  38.2109978   3.6530014
  45.9549992  38.7289978   2.8840014  46.3109911  38.1659373   3.4442722
  39.7869992  32.6899978   2.9920014  40.7009992  32.7689978   3.2650014
  39.7949992  32.0029978   2.3260014  39.9130655  32.6079205   2.9392917
  38.4359992  38.0829978   8.0690014  37.7889992  37.6209978   7.5370014
  38.7909992  37.4109978   8.6520014  38.3953741  37.9289774   8.0749175
  39.3059992  36.1629978   9.8740014  38.9719992  35.2829978  10.0460014
  39.5289992  36.5089978  10.7390014  39.2903721  36.0891938  10.0144168
  56.8549992  36.9729978  12.8550014  56.8329992  37.1579978  13.7940014
  57.5449992  37.5409978  12.5140014  56.9453439  37.0751887  12.9374791
  56.4179992  36.5399978  15.7760014  55.9309992  35.8049978  15.4050014
  56.9669992  36.1459978  16.4540014  56.4255247  36.3861057  15.8168461
  54.8689992  32.3299978  20.4150014  54.0029992  32.2249978  20.8090014
  55.2449992  33.0879978  20.8610014  54.8013401  32.4181708  20.5292620
  56.1699992  30.5859978   5.9290014  57.0199992  31.0069978   6.0560014
  56.1749992  29.8459978   6.5360014  56.2871143  30.5436094   6.0284750
  56.5639992  28.6399978   7.7520014  55.8379992  28.1599978   8.1500014
  57.1459992  28.8449978   8.4850014  56.5432730  28.6020184   7.9054149
  56.3229992  31.4249978  12.7000014  57.1569992  31.0469978  12.4190014
  56.4349992  32.3679978  12.5810014  56.4521917  31.5007943  12.6454861
  54.8099992  34.3029978  15.0070014  54.1619992  34.6279978  15.6320014
  54.2919992  33.8619978  14.3330014  54.6514196  34.2878651  15.0014152
  56.8329992  28.5409978   4.1430014  56.3109992  28.8969978   3.4250014
  56.7999992  29.2159978   4.8220014  56.7570129  28.6809598   4.1363355
  55.1819992  25.7799978   2.6940014  55.2779992  26.4469978   2.0140014
  55.0419992  24.9649978   2.2130014  55.1762040  25.7610671   2.5358378
  54.3509992  27.1609978   8.3150014  54.2009992  26.2159978   8.2950014
  53.9969992  27.4419978   9.1590014  54.2826351  27.0696644   8.4263220
  39.3859992  29.2389978  12.3260014  39.5709992  29.1569978  11.3900014
  40.2359992  29.1149978  12.7490014  39.5260928  29.2110463  12.2552893
  55.2069992  29.1309978  17.9540014  55.7899992  28.3959978  18.1460014
  55.7709992  29.9029978  18.0010014  55.3629781  29.1348145  17.9866164
  56.7039992  27.0339978  18.6390014  55.8409992  26.6549978  18.4730014
  57.3079992  26.2949978  18.5640014  56.6676085  26.8823223  18.6061695
  54.4289992  23.1879978   1.8120014  55.0399992  22.8169978   2.4490014
  53.5919992  22.7669978   2.0080014  54.3994947  23.0802756   1.9257252
  54.0619992  24.7429978   6.7780014  54.3409992  23.8359978   6.9020014
  54.8209992  25.1769978   6.3890014  54.2028619  24.6774502   6.7423795
  54.6729992  25.3249978  12.2140014  55.6059992  25.5369978  12.1790014
  54.4379992  25.4259978  13.1360014  54.7689517  25.3676833  12.3339130
  54.7029992  26.0619978  14.9900014  53.8599992  26.3299978  15.3560014
  55.1449992  26.8839978  14.7790014  54.6474138  26.2098273  15.0115518
  38.9839992  24.5089978  18.4660014  39.9029992  24.3869978  18.7030014
  38.5339992  23.7589978  18.8560014  39.0490087  24.3909608  18.5511410
  56.9859992  20.0419978  20.3430014  57.3349992  19.3879978  19.7380014
  57.1329992  20.8789978  19.9030014  57.0536824  20.0656024  20.2006304
  54.6749992  22.0059978   6.8260014  54.8569992  21.5569978   7.6510014
  54.0749992  21.4219978   6.3620014  54.6188187  21.8655552   6.8762739
  40.2049992  22.8219978  11.3580014  40.6499992  22.0299978  11.6600014
  40.6709992  23.5379978  11.7880014  40.3289718  22.8104534  11.4575265
  38.5089992  25.8209978  12.4270014  39.0009992  25.5999978  11.6360014
  38.8709992  26.6609978  12.7080014  38.6252923  25.9043468  12.3567407
  56.5049992  22.1509978  18.6920014  55.5879992  22.4219978  18.6570014
  56.6279992  21.6159978  17.9080014  56.3959672  22.1157885  18.5811862
  56.5419992  22.0739978   3.3540014  56.9539992  21.3529978   2.8790014
  57.2229992  22.7429978   3.4120014  56.6905536  22.0657766   3.2968024
  38.8229992  22.0789978   6.4810014  37.8979992  22.2869978   6.3520014
  39.2769992  22.5629978   5.7910014  38.7576298  22.1729299   6.3700451
  53.5929992  37.0629978   8.4270014  54.2459992  36.7149978   7.8190014
  54.1039992  37.5509978   9.0730014  53.7512777  37.0813815   8.4312047
  38.7859992  20.8169978  14.8250014  38.1209992  20.5709978  15.4680014
  38.3429992  21.4389978  14.2480014  38.6351168  20.8674214  14.8349848
  40.9779992  33.9919978  18.9700014  40.1569992  34.1669978  18.5090014
  40.7259992  33.9189978  19.8900014  40.8315594  34.0060717  19.0313611
  43.9319992  34.9659978  15.2280014  43.5079992  35.7759978  14.9460014
  44.8369992  35.0519978  14.9260014  43.9962138  35.0884160  15.1486415
  48.2439992  36.3649978  18.1880014  48.4279992  36.0319978  19.0660014
  49.0899992  36.6749978  17.8660014  48.3836484  36.3612979  18.2647617
  50.5889992  37.6509978  17.4320014  51.2659992  37.0179978  17.1920014
  50.9099992  38.0519978  18.2390014  50.7251323  37.6185691  17.5083158
  55.5059992  20.2409978  16.5110014  54.6929992  20.5659978  16.1240014
  55.7389992  19.4799978  15.9780014  55.4261347  20.1826880  16.3859841
  41.3339992  38.2229978  15.2760014  40.6139992  38.6629978  14.8250014
  40.9689992  37.9719978  16.1240014  41.1859643  38.2493369  15.3289129
  43.8009992  37.8229978  14.3060014  42.9369992  37.8949978  14.7100014
  43.7459992  38.3699978  13.5220014  43.6751942  37.9067849  14.2554000
  48.5119992  37.7109978  13.4810014  48.0549992  38.2399978  12.8270014
  48.6749992  38.3139978  14.2060014  48.4714960  37.8649280  13.4895274
  50.8399992  36.5889978  14.4260014  49.9349992  36.7539978  14.1600014
  51.2679992  37.4419978  14.3600014  50.7741537  36.7269134  14.3807095
  53.4439992  38.1589978  14.7210014  53.2619992  39.0749978  14.5100014
  53.6209992  37.7479978  13.8740014  53.4430030  38.2288273  14.5777166
  40.7489992  36.8459978  12.1860014  40.7309992  36.4199978  13.0430014
  41.5539992  36.5269978  11.7770014  40.8552875  36.7446435  12.2479515
  42.8899992  35.5559978  10.8410014  42.6709992  34.6389978  11.0110014
  43.7139992  35.6959978  11.3070014  42.9714702  35.4495511  10.9272527
  45.4269992  36.0259978  11.6900014  45.6399992  35.1379978  11.4030014
  45.4919992  35.9909978  12.6440014  45.4649149  35.8998326  11.7797369
  48.9359992  21.6899978  10.8340014  48.2619992  21.0599978  11.0900014
  49.4999992  21.2059978  10.2310014  48.9200384  21.5383708  10.7875020
  54.0789992  19.7969978  10.9470014  54.6819992  20.3449978  10.4450014
  53.2089992  20.1159978  10.7060014  54.0439157  19.9150373  10.8457910
  55.8059992  20.9359978   9.2800014  56.4169992  20.4219978   8.7530014
  56.1879992  21.8129978   9.3030014  55.9413305  20.9842050   9.2109418
  41.2629992  20.3239978   8.6560014  40.4859992  20.0889978   8.1490014
  41.7929992  19.5269978   8.6650014  41.2283451  20.1841268   8.5878627
  40.0989992  20.1219978   4.4600014  40.5379992  20.7329978   3.8680014
  39.4649992  20.6599978   4.9340014  40.0733859  20.2784064   4.4430305
  45.8419992  20.2499978   8.4690014  46.7159992  20.6389978   8.4400014
  45.7059992  20.0349978   9.3920014  45.9431953  20.2741643   8.5897617
  51.3989992  20.2799978  10.1190014  51.4749992  20.3759978   9.1690014
  51.1239992  19.3729978  10.2470014  51.3721871  20.1704146  10.0063944
  52.7519992  20.3059978   5.8110014  52.0489992  20.9209978   5.6010014
  52.3069992  19.4689978   5.9420014  52.5956550  20.2769668   5.7999837
  39.9999992  36.0699978   5.3570014  39.3149992  36.0319978   4.6900014
  40.0039992  36.9829978   5.6450014  39.9067621  36.1881924   5.3046126
  41.9599992  22.0379978   2.9020014  42.4509992  21.4079978   2.3750014
  42.5829992  22.3339978   3.5650014  42.1115304  21.9917376   2.9194940
  46.9859992  22.3309978   5.3590014  47.1639992  21.6839978   6.0420014
  46.9319992  23.1649978   5.8260014  47.0030678  22.3551604   5.5156301
  48.8639992  37.2789978   3.7550014  49.7299992  37.6459978   3.5770014
  48.6179992  36.8399978   2.9410014  48.9492097  37.2698525   3.6206019
  55.5729992  36.8419978   6.4340014  55.3789992  36.0939978   5.8690014
  55.5339992  37.5999978   5.8510014  55.5411645  36.8420786   6.2778148
  41.2199992  20.8379978  18.1740014  40.8539992  20.0719978  18.6160014
  42.1329992  20.8669978  18.4600014  41.2933172  20.7370324  18.2731890
  43.1929992  20.1879978  19.7090014  44.0919992  19.9139978  19.5250014
  42.8069992  19.4459978  20.1740014  43.2637307  20.0502196  19.7467098
  41.8179992  36.9899978   2.3820014  41.5499992  37.2759978   3.2560014
  42.5889992  36.4439978   2.5350014  41.8855926  36.9552779   2.5221205
  51.6149992  19.5209978  19.8920014  51.6909992  19.0949978  20.7450014
  52.5079992  19.5339978  19.5490014  51.7462303  19.4643493  19.9625497
  54.7909992  35.5939978  18.5840014  54.0089992  35.4069978  18.0640014
  54.7189992  36.5229978  18.8010014  54.6741924  35.6940637  18.5421602
  69.1969992  29.4799978   8.6150014  69.2859992  30.4239978   8.4830014
  68.5589992  29.2049978   7.9570014  69.1229062  29.5719812   8.5079641
  68.1299992  28.7349978  12.0340014  68.0919992  28.0889978  12.7390014
  67.8079992  28.2679978  11.2630014  68.0812679  28.5834276  12.0262921
  60.4979992  28.3489978  13.6270014  60.5399992  27.7239978  14.3500014
  61.2009992  28.9729978  13.8090014  60.5987345  28.3477873  13.7505274
  71.8359992  31.6739978  10.3350014  71.3949992  30.9539978  10.7860014
  71.8229992  32.3949978  10.9650014  71.7739215  31.6729291  10.4818105
  61.4219992  32.7989978  12.1620014  61.0519992  31.9969978  11.7920014
  62.3629992  32.6309978  12.2080014  61.4985984  32.6664638  12.1175603
  58.0319992  26.4589978   7.5540014  57.5839992  27.3049978   7.5360014
  57.4709992  25.8799978   7.0390014  57.8948546  26.4963993   7.4818891
  58.7419992  28.6209978   9.6800014  58.9559992  27.8509978  10.2080014
  59.4799992  28.7109978   9.0770014  58.8710200  28.5278587   9.6707035
  68.9479992  36.7779978  10.5470014  69.5669992  36.1019978  10.2740014
  68.7389992  36.5599978  11.4560014  69.0046056  36.6558869  10.6323967
  66.5189992  31.1669978  12.4400014  66.8229992  30.4809978  11.8450014
  67.2409992  31.2859978  13.0580014  66.6581240  31.0892314  12.4420959
  75.1819992  22.7689978  13.3000014  75.2319992  23.3789978  14.0360014
  75.6079992  23.2299978  12.5770014  75.2464108  22.9147709  13.3030112
  69.6599992  25.5609978  12.7670014  69.8029992  24.6149978  12.7870014
  69.5539992  25.7679978  11.8390014  69.6652403  25.4594797  12.6442239
  62.8149992  23.6629978  10.0400014  62.8579992  24.5229978   9.6210014
  62.3569992  23.1109978   9.4060014  62.7589871  23.7059245   9.8970761
  70.5369992  23.7939978   8.4410014  71.1839992  23.4649978   9.0650014
  71.0469992  24.3109978   7.8180014  70.6944351  23.8189067   8.4421037
  59.4349992  26.0599978  10.8020014  60.0889992  25.5099978  11.2340014
  59.4589992  25.7859978   9.8850014  59.5277199  25.9477167  10.7371668
  64.5919992  27.6099978  10.0170014  65.2079992  27.0829978  10.5260014
  64.0049992  26.9699978   9.6130014  64.5970154  27.4513954  10.0320945
  75.5739992  24.2469978  15.5360014  74.8849992  24.9049978  15.4410014
  75.5889992  24.0489978  16.4730014  75.4817756  24.3102603  15.6495812
  61.6249992  22.5809978  14.1140014  61.4059992  23.1109978  13.3470014
  60.9569992  22.8069978  14.7610014  61.5046975  22.6840967  14.0965140
  68.9939992  32.0809978   7.6580014  68.6989992  31.7579978   6.8060014
  68.6699992  32.9809978   7.6990014  68.9098460  32.1584464   7.5469714
  64.1939992  30.2559978  14.4010014  63.4539992  30.8549978  14.5050014
  64.9079992  30.8099978  14.0860014  64.1893500  30.4127829  14.3726371
  72.3009992  23.0849978  10.4210014  72.0859992  22.3189978  10.9540014
  72.9569992  23.5569978  10.9340014  72.3602673  23.0440728  10.5631990
  61.2189992  24.4729978  12.0660014  61.8329992  25.1059978  12.4390014
  61.7309992  24.0009978  11.4100014  61.3721962  24.4957249  12.0282935
  62.6019992  32.2209978  15.1880014  62.5959992  33.0999978  14.8100014
  61.7479992  32.1369978  15.6130014  62.4857925  32.3299535  15.1936887
  58.7229992  31.8919978   5.9700014  58.4509992  32.1209978   5.0820014
  58.7679992  32.7289978   6.4310014  58.6918097  32.0366163   5.9106683
  72.3479992  33.5129978  12.6830014  71.4059992  33.5719978  12.8450014
  72.6239992  34.4189978  12.5460014  72.2565865  33.6435288  12.6866192
  72.6479992  21.7999978  14.1000014  71.9119992  22.4099978  14.0630014
  73.3319992  22.2149978  13.5740014  72.6395367  21.9397551  14.0238174
  65.6519992  19.8859978  11.5660014  65.5339992  18.9379978  11.5120014
  64.7969992  20.2189978  11.8390014  65.5202805  19.8012202  11.5955079
  70.5999992  35.2939978   9.3080014  71.0249992  34.5869978   8.8230014
  70.9169992  36.0959978   8.8910014  70.7010266  35.3055190   9.1852479
  71.7599992  33.1949978   7.8170014  71.5019992  32.5049978   7.2050014
  71.8309992  32.7519978   8.6620014  71.7343050  33.0406814   7.8475621
  73.4459992  31.7619978  16.2940014  73.5849992  31.1699978  15.5550014
  73.6129992  32.6349978  15.9380014  73.4876193  31.7988896  16.1446211
  67.9179992  28.7239978   6.0670014  67.2069992  29.2589978   5.7150014
  68.6089992  28.7789978   5.4070014  67.9140751  28.8046777   5.9295858
  67.9719992  27.1809978   3.1050014  68.6729992  27.2039978   3.7570014
  68.2739992  26.5529978   2.4490014  68.1088202  27.0992212   3.1055609
  75.2869992  28.1019978  14.3600014  74.6349992  28.7959978  14.4490014
  75.7529992  28.3119978  13.5500014  75.2605937  28.2255019  14.2627533
  71.3239992  28.9329978   7.0180014  70.5919992  29.1619978   7.5920014
  71.7709992  28.2199978   7.4730014  71.2843963  28.8678729   7.1579945
  71.2209992  27.1079978  16.0860014  71.3009992  27.8709978  16.6580014
  70.6199992  27.3869978  15.3960014  71.1506547  27.2502457  16.0710047
  62.9689992  29.5639978   8.9010014  62.6389992  29.1929978   8.0830014
  63.5579992  28.8929978   9.2480014  63.0033970  29.4226063   8.8359404
  64.3359992  32.9919978  11.5820014  64.2409992  32.4129978  10.8260014
  65.0649992  32.6209978  12.0780014  64.4216011  32.8625561  11.5456028
  63.3359992  28.3319978  12.5340014  63.9009992  28.4539978  11.7720014
  63.6549992  28.9699978  13.1730014  63.4564166  28.4348791  12.5160348
  69.6449992  33.8359978  13.2680014  69.4049992  34.4979978  13.9160014
  69.4469992  33.0009978  13.6930014  69.5853826  33.8138115  13.4141566
  64.2159992  32.7319978  17.2520014  63.9049992  33.5139978  17.7070014
  63.5659992  32.5789978  16.5660014  64.0855538  32.8184087  17.2215898
  70.1949992  28.0959978   4.7040014  70.7739992  28.2459978   5.4500014
  70.6089992  28.5659978   3.9800014  70.3303358  28.1800954   4.7083953
  61.1359992  28.9299978  16.4800014  61.2059992  29.5809978  17.1790014
  60.2449992  29.0329978  16.1450014  61.0251690  29.0329249  16.5303043
  67.9209992  34.8319978   8.1390014  68.3949992  35.1279978   8.9160014
  67.3579992  35.5709978   7.9060014  67.9097890  34.9723036   8.2138101
  62.4549992  34.8029978  18.0150014  62.4629992  34.6669978  17.0680014
  61.5389992  34.6859978  18.2670014  62.3322528  34.7685463  17.9193243
  73.8939992  19.8459978   4.5170014  72.9939992  19.9849978   4.8120014
  74.1459992  20.6769978   4.1150014  73.8048683  19.9774055   4.5030232
  61.9599992  28.6329978   6.4900014  61.6679992  29.4009978   5.9990014
  61.2849992  27.9739978   6.3270014  61.8288497  28.6489745   6.4008260
  75.0829992  34.2119978   2.8930014  75.1559992  35.1509978   3.0630014
  75.9879992  33.9069978   2.8370014  75.2154170  34.2993282   2.9087063
  58.0529992  30.9959978  15.3050014  57.5509992  30.9679978  14.4900014
  58.0579992  30.0909978  15.6150014  57.9849832  30.8697486  15.2354121
  57.8029992  33.7769978  12.1890014  58.7489992  33.6319978  12.1700014
  57.6899992  34.5609978  12.7260014  57.9173578  33.8631697  12.2590317
  76.0009992  34.4429978  17.8720014  75.9509992  33.4869978  17.8340014
  75.1739992  34.7099978  18.2730014  75.8823831  34.3484680  17.9210121
  66.9789992  34.0169978  16.7480014  67.0669992  34.8429978  17.2230014
  66.1159992  33.6869978  16.9970014  66.8743357  34.0855468  16.8467653
  67.3939992  37.7889978   6.5540014  67.3179992  37.6679978   5.6070014
  67.4259992  38.7379978   6.6720014  67.3879380  37.9007677   6.4405181
  61.0469992  36.5779978   8.3350014  61.1989992  36.2299978   9.2130014
  60.1959992  36.2209978   8.0790014  60.9528344  36.4820879   8.4206868
  70.4949992  36.9429978   3.5560014  70.8699992  36.1989978   3.0850014
  70.4999992  36.6729978   4.4740014  70.5470098  36.8046392   3.6156629
  70.1639992  36.8689978   6.3050014  69.2289992  36.9689978   6.4840014
  70.4439992  36.1589978   6.8840014  70.0739471  36.7867933   6.4076695
  73.1529992  25.9359978  18.3520014  72.7449992  26.4159978  17.6310014
  73.1929992  25.0299978  18.0440014  73.1026221  25.8792449  18.2118267
  60.3019992  32.3199978  16.3480014  60.5179992  31.9579978  17.2080014
  59.4459992  31.9449978  16.1390014  60.2158810  32.2198837  16.4372680
  62.9199992  20.7899978  12.3440014  62.0589992  20.7029978  11.9360014
  62.8979992  21.6459978  12.7720014  62.7990491  20.8938003  12.3459582
  67.5829992  20.5119978  15.7190014  68.0029992  20.0969978  16.4720014
  66.6499992  20.3329978  15.8360014  67.5143736  20.4309910  15.8378968
  70.9099992  24.2669978  16.5720014  70.3959992  24.1419978  17.3700014
  70.7539992  25.1799978  16.3280014  70.8186967  24.3732123  16.6480937
  71.6719992  29.1279978   2.3330014  71.7139992  28.9059978   1.4030014
  72.5209992  29.5269978   2.5230014  71.7925253  29.1515498   2.2313822
  67.2449992  23.0039978   3.0040014  66.9909992  23.0229978   3.9260014
  66.9879992  22.1329978   2.7020014  67.1754508  22.8888280   3.0894803
  63.0109992  25.7549978  13.4390014  62.3699992  25.7149978  14.1480014
  63.0489992  26.6819978  13.2010014  62.9283010  25.8747668  13.5039946
  63.0079992  25.9759978   8.3510014  62.1159992  25.6359978   8.2920014
  63.4589992  25.5989978   7.5950014  62.9467642  25.8784910   8.2407726
  68.5439992  26.3919978   7.1680014  68.1349992  27.2069978   6.8760014
  69.2639992  26.2519978   6.5540014  68.5854439  26.4845372   7.0450115
  67.6459992  26.5679978  18.6560014  67.0829992  25.8629978  18.9770014
  68.4719992  26.4469978  19.1240014  67.6806674  26.4552165  18.7631751
  69.5489992  25.8379978   9.9820014  69.3529992  26.4439978   9.2670014
  69.7299992  25.0049978   9.5480014  69.5466584  25.8082513   9.8254212
  60.7609992  26.0759978  15.3060014  60.7229992  26.4759978  16.1750014
  60.2709992  25.2589978  15.3960014  60.6895330  26.0202674  15.4371289
  64.1269992  23.4499978   2.1050014  63.6959992  23.0049978   2.8340014
  63.4089992  23.8209978   1.5920014  63.9709176  23.4392051   2.1354930
  57.3699992  23.1919978   9.1570014  57.9999992  23.1629978   9.8760014
  57.8189992  22.7669978   8.4260014  57.5170835  23.1305660   9.1567659
  58.6439992  23.9379978   4.5810014  59.1179992  24.5289978   3.9960014
  57.9259992  24.4679978   4.9280014  58.6118640  24.0905511   4.5477969
  68.8129992  27.4759978  14.6530014  69.1359992  26.8449978  14.0100014
  68.3719992  26.9419978  15.3140014  68.7976379  27.3173468  14.6542582
  65.5899992  23.4039978   9.4370014  64.6789992  23.4609978   9.7260014
  66.0949992  23.3439978  10.2480014  65.5336873  23.4036826   9.5861207
  60.4179992  25.0329978   8.2640014  59.5289992  25.1319978   7.9240014
  60.7149992  24.1909978   7.9180014  60.3364177  24.9327687   8.1706940
  64.0709992  25.0329978   5.9210014  65.0029992  25.1619978   6.0990014
  63.8559992  25.7019978   5.2710014  64.1694472  25.1410806   5.8574891
  69.9949992  22.6389978  12.7020014  69.3179992  22.7699978  13.3650014
  69.5099992  22.4839978  11.8910014  69.8367405  22.6359947  12.6832170
  62.7449992  26.2269978   3.4870014  62.2029992  25.8479978   2.7960014
  63.5789992  26.4219978   3.0590014  62.7834390  26.2014079   3.3344392
  73.2829992  38.3099978  18.9780014  73.4819992  38.7339978  18.1440014
  73.9379992  38.6539978  19.5850014  73.3988522  38.4146301  18.9457852
  60.8809992  30.7839978  18.5860014  61.6129992  31.0389978  19.1480014
  60.0999992  30.9889978  19.1020014  60.8756526  30.8465450  18.7325176
  66.9099992  26.1909978  11.3240014  67.4739992  25.6449978  10.7770014
  66.7619992  25.6699978  12.1130014  66.9673037  26.0456787  11.3557229
  61.9119992  22.3279978   7.7430014  61.5949992  21.4249978   7.7070014
  62.6929992  22.3299978   7.1900014  61.9742431  22.2047797   7.6633102
  65.5359992  24.5799978  13.7380014  64.7009992  25.0339978  13.8490014
  66.0599992  24.8559978  14.4900014  65.4926072  24.6793948  13.8548136
  66.0809992  30.7929978   5.4230014  65.3359992  30.2849978   5.1010014
  65.9459992  30.8419978   6.3690014  65.9608963  30.7301731   5.5068826
  73.2309992  29.9259978  14.2100014  73.8719992  30.3819978  13.6660014
  72.3999992  30.0389978  13.7470014  73.2065287  30.0036921  14.0729887
  69.9779992  23.6069978   3.6220014  69.0399992  23.7179978   3.4710014
  70.2759992  24.4629978   3.9290014  69.8896318  23.7380158   3.6428145
  67.5999992  30.9769978  16.6600014  67.2539992  30.5949978  17.4670014
  67.3999992  31.9099978  16.7310014  67.5255987  31.0509002  16.7800461
  70.6969992  25.4739978   5.2830014  71.5889992  25.3359978   5.6020014
  70.7529992  26.2649978   4.7460014  70.8267325  25.5619918   5.2541217
  61.2049992  30.0879978  11.1930014  61.9499992  30.0849978  10.5910014
  61.2829992  29.2639978  11.6740014  61.3173366  29.9762384  11.1757430
  68.2059992  32.2509978   4.4480014  67.9109992  33.0779978   4.8300014
  67.5029992  31.6319978   4.6450014  68.0706379  32.2804171   4.5268654
  58.2129992  28.5479978  16.5080014  58.4359992  28.1299978  17.3390014
  57.6109992  27.9359978  16.0850014  58.1621513  28.4079606  16.5646740
  65.2299992  28.0649978  18.7210014  64.9339992  27.8999978  17.8250014
  66.1609992  27.8449978  18.7100014  65.3154401  28.0126879  18.5970206
  69.8499992  33.4389978  16.6100014  68.9499992  33.6219978  16.3430014
  69.8839992  33.6979978  17.5310014  69.7313748  33.4990554  16.6979164
  75.5819992  25.6829978   4.9780014  75.0269992  25.2869978   4.3050014
  75.6819992  26.5939978   4.7000014  75.5196816  25.7519505   4.8485033
  75.5449992  31.4839978  17.8150014  74.6939992  31.7219978  17.4470014
  76.1349992  31.4669978  17.0620014  75.5083812  31.5142524  17.6628453
  73.8769992  34.4689978   5.4430014  73.5039992  33.6439978   5.7520014
  74.1539992  34.2859978   4.5450014  73.8633463  34.3312569   5.3639525
  71.0369992  29.2769978  12.4640014  70.1089992  29.0459978  12.4370014
  71.4879992  28.4999978  12.1340014  70.9708165  29.1402774  12.4156790
  63.5799992  33.6059978   8.5970014  64.1079992  34.3789978   8.3970014
  62.6999992  33.8299978   8.2950014  63.5333435  33.7422700   8.5287310
  59.3349992  28.4679978   3.1840014  59.9509992  29.0949978   3.5640014
  58.4729992  28.7839978   3.4560014  59.3027678  28.5964412   3.2727209
  65.0079992  31.2689978   8.1730014  64.7669992  32.1939978   8.2150014
  64.2669992  30.8099978   8.5700014  64.8749206  31.3335915   8.2323769
  65.5219992  35.4179978  14.4880014  65.8849992  36.2719978  14.2550014
  66.0539992  35.1259978  15.2290014  65.6435141  35.4953895  14.5562097
  63.6909992  36.2899978   7.7190014  62.7409992  36.3959978   7.7700014
  64.0429992  37.1109978   8.0630014  63.6085472  36.4154923   7.7724852
  69.0659992  31.5169978  14.1890014  68.6409992  31.2889978  15.0150014
  69.6469992  30.7779978  14.0070014  69.0863395  31.3859545  14.2774414
  71.2689992  32.4459978   3.2630014  71.6229992  32.0659978   4.0670014
  70.3209992  32.3519978   3.3500014  71.1892298  32.3812452   3.3848687
  71.7249992  36.0689978  16.6580014  71.1229992  35.5129978  16.1630014
  72.0059992  36.7359978  16.0320014  71.6805757  36.0830744  16.5055675
  75.7729992  36.9249978   3.4640014  76.5169992  37.5109978   3.3240014
  75.0789992  37.4939978   3.7970014  75.7809809  37.0820818   3.4898590
  59.8469992  23.3019978  16.0660014  58.9549992  23.6399978  15.9980014
  59.7489992  22.4459978  16.4840014  59.7114475  23.2326543  16.1131704
  72.1349992  31.1179978   5.4900014  71.8579992  30.3899978   6.0460014
  73.0629992  31.2369978   5.6950014  72.2224499  31.0344213   5.5938044
  59.4989992  35.1059978  14.5010014  59.7159992  34.1739978  14.4700014
  59.7449992  35.3809978  15.3840014  59.5619808  35.0155686  14.6161691
  65.3599992  33.5579978   1.7100014  65.5989992  32.8089978   1.1630014
  65.0909992  33.1699978   2.5430014  65.3563233  33.4031853   1.7477809
  64.2969992  33.1279978   4.1660014  64.4439992  32.6079978   4.9560014
  64.2939992  34.0349978   4.4730014  64.3167102  33.1793953   4.3155925
  60.7499992  30.3799978   4.6770014  60.0639992  30.7329978   5.2440014
  61.2729992  31.1429978   4.4300014  60.7268402  30.5313901   4.7211801
  68.5819992  23.0429978  14.9560014  69.2809992  23.1169978  15.6060014
  68.2009992  22.1779978  15.1100014  68.6262097  22.9362389  15.0657997
  69.3659992  22.6949978   6.0530014  69.5859992  23.1659978   5.2490014
  69.9249992  23.0889978   6.7230014  69.4716731  22.8127287   6.0335033
  67.0349992  34.8249978   4.9160014  66.2179992  35.3219978   4.9680014
  67.5639992  35.3009978   4.2750014  66.9948125  34.9571989   4.8365306
  66.5659992  24.4229978   6.8880014  67.3779992  24.9269978   6.9340014
  66.3219992  24.2779978   7.8020014  66.6441467  24.4723749   7.0178575
  67.1019992  25.4089978  16.0720014  67.2209992  25.9829978  16.8290014
  67.7569992  24.7209978  16.1870014  67.2068684  25.3945194  16.1911674
  67.4499992  21.5039978   7.8260014  67.1029992  22.1209978   8.4700014
  68.1089992  22.0049978   7.3440014  67.4915090  21.6561575   7.8490681
  64.3729992  35.8689978   4.8970014  64.5339992  36.6689978   4.3970014
  64.1759992  36.1759978   5.7820014  64.3683906  36.0198678   4.9482333
  63.1079992  22.5669978   4.5130014  63.0239992  23.4549978   4.8600014
  63.9979992  22.3019978   4.7450014  63.2168163  22.6527179   4.5918596
  73.3059992  23.3159978  16.9070014  72.3899992  23.5779978  16.8200014
  73.6419992  23.3129978  16.0110014  73.2258499  23.3515163  16.7738766
  71.9089992  27.0659978  11.0030014  71.1109992  26.6509978  10.6750014
  72.3539992  26.3759978  11.4940014  71.8599684  26.9158628  11.0245227
  61.3659992  32.9939978   3.5730014  61.9579992  33.6939978   3.8500014
  61.8249992  32.5609978   2.8540014  61.5091652  33.0312675   3.5136533
  59.6819992  25.6589978   2.6890014  59.6369992  26.5979978   2.8680014
  58.7939992  25.4229978   2.4200014  59.5558166  25.7556687   2.6771524
  72.9949992  36.3219978  12.6250014  72.8389992  37.0009978  11.9680014
  73.9279992  36.3939978  12.8280014  73.0997387  36.4246390  12.5625342
  60.4899992  20.4399978  11.3630014  60.2609992  20.4989978  10.4350014
  60.0479992  19.6489978  11.6690014  60.3988801  20.3410540  11.2774729
  59.4209992  34.3809978   7.5230014  58.5879992  34.8529978   7.5500014
  59.9659992  34.8909978   6.9240014  59.3807857  34.5144791   7.4457142
  58.7089992  36.9929978  18.8530014  59.2489992  36.7769978  19.6130014
  58.2279992  36.1879978  18.6630014  58.7179219  36.8545156  18.9314282
  63.3059992  35.9129978  20.4730014  64.0739992  35.4539978  20.8140014
  63.2849992  35.6869978  19.5430014  63.4082135  35.8196668  20.3939491
  67.3979992  35.4209978   1.8490014  66.7539992  34.7899978   2.1700014
  68.1599992  34.8899978   1.6170014  67.4128058  35.2627902   1.8616038
  69.8829992  34.2929978  19.2020014  69.5319992  33.4359978  19.4460014
  70.6089992  34.4349978  19.8090014  69.9331895  34.1951351  19.3173770
  72.0029992  35.2379978   2.0820014  72.2859992  34.4429978   2.5350014
  72.7419992  35.4709978   1.5210014  72.1417096  35.1607049   2.0681104
  58.6159992  30.8039978  19.8070014  58.7599992  29.9019978  19.5210014
  57.8439992  31.0899978  19.3200014  58.5312733  30.7191798  19.7019532
  62.9569992  31.1469978   1.9400014  63.0219992  30.3529978   2.4700014
  63.6099992  31.0289978   1.2500014  63.0541605  31.0223430   1.9192997
  65.2709992  30.7729978  19.2400014  64.9429992  31.0439978  18.3830014
  65.4229992  29.8319978  19.1520014  65.2466412  30.6829046  19.1107822
  68.3099992  32.1939978   1.6760014  68.0409992  32.3749978   2.5760014
  68.1029992  31.2689978   1.5440014  68.2451191  32.0937119   1.7815524
  71.0059992  30.6889978  16.6230014  71.7509992  31.2779978  16.5040014
  70.2489992  31.2709978  16.6870014  71.0055470  30.8482128  16.6153799
  59.4489992  28.0039978  19.2270014  59.8569992  27.1469978  19.1060014
  59.1879992  28.0179978  20.1480014  59.4696016  27.8885119  19.3349192
  64.1069992  29.1199978   4.2460014  63.6469992  28.6359978   4.9310014
  64.3619992  28.4509978   3.6100014  64.0784856  28.9633669   4.2538397
  63.3959992  27.0129978  16.6020014  62.7769992  27.6869978  16.8820014
  63.7399992  27.3339978  15.7680014  63.3577123  27.1486887  16.5276388
  65.1779992  27.3629978   2.5080014  64.9969992  27.2079978   1.5810014
  66.1279992  27.4709978   2.5530014  65.2816566  27.3563669   2.3870929
  68.4149992  29.4839978  19.8790014  69.3689992  29.5679978  19.8520014
  68.2549992  28.7719978  20.4990014  68.5237182  29.3992842  19.9590733
  74.5679992  29.7169978   1.9540014  74.2939992  29.2929978   1.1410014
  74.6069992  30.6489978   1.7370014  74.5357716  29.7848827   1.8134286
  63.7349992  24.3679978  17.6840014  63.8849992  23.6389978  17.0820014
  63.7369992  25.1449978  17.1250014  63.7557967  24.3732708  17.5260541
  64.1479992  22.7369978  15.1770014  64.6829992  23.1889978  14.5250014
  63.2949992  22.6289978  14.7540014  64.1060374  22.7842665  15.0306710
  65.7289992  28.1769978  15.4160014  66.4799992  28.0209978  14.8430014
  65.3899992  29.0289978  15.1410014  65.7859587  28.2708138  15.3004078
  70.1449992  25.9919978  20.4450014  70.3369992  25.0609978  20.3330014
  71.0029992  26.4169978  20.4340014  70.2872182  25.9220070  20.4281862
  71.4619992  28.7809978  18.5220014  71.1799992  29.4899978  17.9440014
  72.4039992  28.7079978  18.3710014  71.5507921  28.8682193  18.4224225
  62.2139992  25.5659978  19.5950014  61.4459992  25.0329978  19.3850014
  62.8919992  25.2559978  18.9960014  62.2007235  25.4511754  19.4852413
  64.9529992  20.1939978  15.6080014  64.8549992  21.1399978  15.5030014
  64.2109992  19.8209978  15.1320014  64.8392534  20.2731773  15.5292600
  66.2169992  24.5149978  19.1720014  65.9819992  24.2959978  20.0730014
  65.4339992  24.3079978  18.6620014  66.0789095  24.4569892  19.2265353
  68.9329992  23.6429978  18.2470014  67.9849992  23.6749978  18.3790014
  69.2449992  23.0169978  18.9010014  68.8455293  23.5627923  18.3534148
  70.5669992  22.2769978  20.2520014  70.4699992  21.3249978  20.2470014
  70.2449992  22.5449978  21.1130014  70.5102468  22.1830884  20.3676210
  60.3939992  23.4859978  19.3000014  60.6059992  22.7799978  18.6900014
  60.2829992  23.0489978  20.1440014  60.4080269  23.3301921  19.3305873
  65.1749992  19.4879978  18.2790014  65.8869992  18.8479978  18.2650014
  65.0739992  19.7539978  17.3660014  65.2587387  19.4364330  18.1535563
  65.5289992  21.1699978  20.3330014  65.3969992  20.6949978  19.5130014
  64.9289992  21.9149978  20.2780014  65.4299070  21.2055789  20.2133251
  65.0749992  38.0529978   3.5090014  66.0079992  38.2109978   3.6530014
  64.8109992  38.7289978   2.8840014  65.1669911  38.1659373   3.4442722
  58.6429992  32.6899978   2.9920014  59.5569992  32.7689978   3.2650014
  58.6509992  32.0029978   2.3260014  58.7690655  32.6079205   2.9392917
  57.2919992  38.0829978   8.0690014  56.6449992  37.6209978   7.5370014
  57.6469992  37.4109978   8.6520014  57.2513741  37.9289774   8.0749175
  58.1619992  36.1629978   9.8740014  57.8279992  35.2829978  10.0460014
  58.3849992  36.5089978  10.7390014  58.1463721  36.0891938  10.0144168
  75.7109992  36.9729978  12.8550014  75.6889992  37.1579978  13.7940014
  76.4009992  37.5409978  12.5140014  75.8013439  37.0751887  12.9374791
  75.2739992  36.5399978  15.7760014  74.7869992  35.8049978  15.4050014
  75.8229992  36.1459978  16.4540014  75.2815247  36.3861057  15.8168461
  73.7249992  32.3299978  20.4150014  72.8589992  32.2249978  20.8090014
  74.1009992  33.0879978  20.8610014  73.6573401  32.4181708  20.5292620
  75.0259992  30.5859978   5.9290014  75.8759992  31.0069978   6.0560014
  75.0309992  29.8459978   6.5360014  75.1431143  30.5436094   6.0284750
  75.4199992  28.6399978   7.7520014  74.6939992  28.1599978   8.1500014
  76.0019992  28.8449978   8.4850014  75.3992730  28.6020184   7.9054149
  75.1789992  31.4249978  12.7000014  76.0129992  31.0469978  12.4190014
  75.2909992  32.3679978  12.5810014  75.3081917  31.5007943  12.6454861
  73.6659992  34.3029978  15.0070014  73.0179992  34.6279978  15.6320014
  73.1479992  33.8619978  14.3330014  73.5074196  34.2878651  15.0014152
  75.6889992  28.5409978   4.1430014  75.1669992  28.8969978   3.4250014
  75.6559992  29.2159978   4.8220014  75.6130129  28.6809598   4.1363355
  74.0379992  25.7799978   2.6940014  74.1339992  26.4469978   2.0140014
  73.8979992  24.9649978   2.2130014  74.0322040  25.7610671   2.5358378
  73.2069992  27.1609978   8.3150014  73.0569992  26.2159978   8.2950014
  72.8529992  27.4419978   9.1590014  73.1386351  27.0696644   8.4263220
  58.2419992  29.2389978  12.3260014  58.4269992  29.1569978  11.3900014
  59.0919992  29.1149978  12.7490014  58.3820928  29.2110463  12.2552893
  74.0629992  29.1309978  17.9540014  74.6459992  28.3959978  18.1460014
  74.6269992  29.9029978  18.0010014  74.2189781  29.1348145  17.9866164
  75.5599992  27.0339978  18.6390014  74.6969992  26.6549978  18.4730014
  76.1639992  26.2949978  18.5640014  75.5236085  26.8823223  18.6061695
  73.2849992  23.1879978   1.8120014  73.8959992  22.8169978   2.4490014
  72.4479992  22.7669978   2.0080014  73.2554947  23.0802756   1.9257252
  72.9179992  24.7429978   6.7780014  73.1969992  23.8359978   6.9020014
  73.6769992  25.1769978   6.3890014  73.0588619  24.6774502   6.7423795
  73.5289992  25.3249978  12.2140014  74.4619992  25.5369978  12.1790014
  73.2939992  25.4259978  13.1360014  73.6249517  25.3676833  12.3339130
  73.5589992  26.0619978  14.9900014  72.7159992  26.3299978  15.3560014
  74.0009992  26.8839978  14.7790014  73.5034138  26.2098273  15.0115518
  57.8399992  24.5089978  18.4660014  58.7589992  24.3869978  18.7030014
  57.3899992  23.7589978  18.8560014  57.9050087  24.3909608  18.5511410
  75.8419992  20.0419978  20.3430014  76.1909992  19.3879978  19.7380014
  75.9889992  20.8789978  19.9030014  75.9096824  20.0656024  20.2006304
  73.5309992  22.0059978   6.8260014  73.7129992  21.5569978   7.6510014
  72.9309992  21.4219978   6.3620014  73.4748187  21.8655552   6.8762739
  59.0609992  22.8219978  11.3580014  59.5059992  22.0299978  11.6600014
  59.5269992  23.5379978  11.7880014  59.1849718  22.8104534  11.4575265
  57.3649992  25.8209978  12.4270014  57.8569992  25.5999978  11.6360014
  57.7269992  26.6609978  12.7080014  57.4812923  25.9043468  12.3567407
  75.3609992  22.1509978  18.6920014  74.4439992  22.4219978  18.6570014
  75.4839992  21.6159978  17.9080014  75.2519672  22.1157885  18.5811862
  75.3979992  22.0739978   3.3540014  75.8099992  21.3529978   2.8790014
  76.0789992  22.7429978   3.4120014  75.5465536  22.0657766   3.2968024
  57.6789992  22.0789978   6.4810014  56.7539992  22.2869978   6.3520014
  58.1329992  22.5629978   5.7910014  57.6136298  22.1729299   6.3700451
  72.4489992  37.0629978   8.4270014  73.1019992  36.7149978   7.8190014
  72.9599992  37.5509978   9.0730014  72.6072777  37.0813815   8.4312047
  57.6419992  20.8169978  14.8250014  56.9769992  20.5709978  15.4680014
  57.1989992  21.4389978  14.2480014  57.4911168  20.8674214  14.8349848
  59.8339992  33.9919978  18.9700014  59.0129992  34.1669978  18.5090014
  59.5819992  33.9189978  19.8900014  59.6875594  34.0060717  19.0313611
  62.7879992  34.9659978  15.2280014  62.3639992  35.7759978  14.9460014
  63.6929992  35.0519978  14.9260014  62.8522138  35.0884160  15.1486415
  67.0999992  36.3649978  18.1880014  67.2839992  36.0319978  19.0660014
  67.9459992  36.6749978  17.8660014  67.2396484  36.3612979  18.2647617
  69.4449992  37.6509978  17.4320014  70.1219992  37.0179978  17.1920014
  69.7659992  38.0519978  18.2390014  69.5811323  37.6185691  17.5083158
  74.3619992  20.2409978  16.5110014  73.5489992  20.5659978  16.1240014
  74.5949992  19.4799978  15.9780014  74.2821347  20.1826880  16.3859841
  60.1899992  38.2229978  15.2760014  59.4699992  38.6629978  14.8250014
  59.8249992  37.9719978  16.1240014  60.0419643  38.2493369  15.3289129
  62.6569992  37.8229978  14.3060014  61.7929992  37.8949978  14.7100014
  62.6019992  38.3699978  13.5220014  62.5311942  37.9067849  14.2554000
  67.3679992  37.7109978  13.4810014  66.9109992  38.2399978  12.8270014
  67.5309992  38.3139978  14.2060014  67.3274960  37.8649280  13.4895274
  69.6959992  36.5889978  14.4260014  68.7909992  36.7539978  14.1600014
  70.1239992  37.4419978  14.3600014  69.6301537  36.7269134  14.3807095
  72.2999992  38.1589978  14.7210014  72.1179992  39.0749978  14.5100014
  72.4769992  37.7479978  13.8740014  72.2990030  38.2288273  14.5777166
  59.6049992  36.8459978  12.1860014  59.5869992  36.4199978  13.0430014
  60.4099992  36.5269978  11.7770014  59.7112875  36.7446435  12.2479515
  61.7459992  35.5559978  10.8410014  61.5269992  34.6389978  11.0110014
  62.5699992  35.6959978  11.3070014  61.8274702  35.4495511  10.9272527
  64.2829992  36.0259978  11.6900014  64.4959992  35.1379978  11.4030014
  64.3479992  35.9909978  12.6440014  64.3209149  35.8998326  11.7797369
  67.7919992  21.6899978  10.8340014  67.1179992  21.0599978  11.0900014
  68.3559992  21.2059978  10.2310014  67.7760384  21.5383708  10.7875020
  72.9349992  19.7969978  10.9470014  73.5379992  20.3449978  10.4450014
  72.0649992  20.1159978  10.7060014  72.8999157  19.9150373  10.8457910
  74.6619992  20.9359978   9.2800014  75.2729992  20.4219978   8.7530014
  75.0439992  21.8129978   9.3030014  74.7973305  20.9842050   9.2109418
  60.1189992  20.3239978   8.6560014  59.3419992  20.0889978   8.1490014
  60.6489992  19.5269978   8.6650014  60.0843451  20.1841268   8.5878627
  58.9549992  20.1219978   4.4600014  59.3939992  20.7329978   3.8680014
  58.3209992  20.6599978   4.9340014  58.9293859  20.2784064   4.4430305
  64.6979992  20.2499978   8.4690014  65.5719992  20.6389978   8.4400014
  64.5619992  20.0349978   9.3920014  64.7991953  20.2741643   8.5897617
  70.2549992  20.2799978  10.1190014  70.3309992  20.3759978   9.1690014
  69.9799992  19.3729978  10.2470014  70.2281871  20.1704146  10.0063944
  71.6079992  20.3059978   5.8110014  70.9049992  20.9209978   5.6010014
  71.1629992  19.4689978   5.9420014  71.4516550  20.2769668   5.7999837
  58.8559992  36.0699978   5.3570014  58.1709992  36.0319978   4.6900014
  58.8599992  36.9829978   5.6450014  58.7627621  36.1881924   5.3046126
  60.8159992  22.0379978   2.9020014  61.3069992  21.4079978   2.3750014
  61.4389992  22.3339978   3.5650014  60.9675304  21.9917376   2.9194940
  65.8419992  22.3309978   5.3590014  66.0199992  21.6839978   6.0420014
  65.7879992  23.1649978   5.8260014  65.8590678  22.3551604   5.5156301
  67.7199992  37.2789978   3.7550014  68.5859992  37.6459978   3.5770014
  67.4739992  36.8399978   2.9410014  67.8052097  37.2698525   3.6206019
  74.4289992  36.8419978   6.4340014  74.2349992  36.0939978   5.8690014
  74.3899992  37.5999978   5.8510014  74.3971645  36.8420786   6.2778148
  60.0759992  20.8379978  18.1740014  59.7099992  20.0719978  18.6160014
  60.9889992  20.8669978  18.4600014  60.1493172  20.7370324  18.2731890
  62.0489992  20.1879978  19.7090014  62.9479992  19.9139978  19.5250014
  61.6629992  19.4459978  20.1740014  62.1197307  20.0502196  19.7467098
  60.6739992  36.9899978   2.3820014  60.4059992  37.2759978   3.2560014
  61.4449992  36.4439978   2.5350014  60.7415926  36.9552779   2.5221205
  70.4709992  19.5209978  19.8920014  70.5469992  19.0949978  20.7450014
  71.3639992  19.5339978  19.5490014  70.6022303  19.4643493  19.9625497
  73.6469992  35.5939978  18.5840014  72.8649992  35.4069978  18.0640014
  73.5749992  36.5229978  18.8010014  73.5301924  35.6940637  18.5421602
  88.0529992  29.4799978   8.6150014  88.1419992  30.4239978   8.4830014
  87.4149992  29.2049978   7.9570014  87.9789062  29.5719812   8.5079641
  86.9859992  28.7349978  12.0340014  86.9479992  28.0889978  12.7390014
  86.6639992  28.2679978  11.2630014  86.9372679  28.5834276  12.0262921
  79.3539992  28.3489978  13.6270014  79.3959992  27.7239978  14.3500014
  80.0569992  28.9729978  13.8090014  79.4547345  28.3477873  13.7505274
  90.6919992  31.6739978  10.3350014  90.2509992  30.9539978  10.7860014
  90.6789992  32.3949978  10.9650014  90.6299215  31.6729291  10.4818105
  80.2779992  32.7989978  12.1620014  79.9079992  31.9969978  11.7920014
  81.2189992  32.6309978  12.2080014  80.3545984  32.6664638  12.1175603
  76.8879992  26.4589978   7.5540014  76.4399992  27.3049978   7.5360014
  76.3269992  25.8799978   7.0390014  76.7508546  26.4963993   7.4818891
  77.5979992  28.6209978   9.6800014  77.8119992  27.8509978  10.2080014
  78.3359992  28.7109978   9.0770014  77.7270200  28.5278586   9.6707035
  87.8039992  36.7779978  10.5470014  88.4229992  36.1019978  10.2740014
  87.5949992  36.5599978  11.4560014  87.8606056  36.6558869  10.6323967
  85.3749992  31.1669978  12.4400014  85.6789992  30.4809978  11.8450014
  86.0969992  31.2859978  13.0580014  85.5141240  31.0892314  12.4420959
  94.0379992  22.7689978  13.3000014  94.0879992  23.3789978  14.0360014
  94.4639992  23.2299978  12.5770014  94.1024108  22.9147709  13.3030112
  88.5159992  25.5609978  12.7670014  88.6589992  24.6149978  12.7870014
  88.4099992  25.7679978  11.8390014  88.5212403  25.4594797  12.6442239
  81.6709992  23.6629978  10.0400014  81.7139992  24.5229978   9.6210014
  81.2129992  23.1109978   9.4060014  81.6149871  23.7059245   9.8970761
  89.3929992  23.7939978   8.4410014  90.0399992  23.4649978   9.0650014
  89.9029992  24.3109978   7.8180014  89.5504351  23.8189067   8.4421037
  78.2909992  26.0599978  10.8020014  78.9449992  25.5099978  11.2340014
  78.3149992  25.7859978   9.8850014  78.3837199  25.9477167  10.7371668
  83.4479992  27.6099978  10.0170014  84.0639992  27.0829978  10.5260014
  82.8609992  26.9699978   9.6130014  83.4530154  27.4513954  10.0320945
  94.4299992  24.2469978  15.5360014  93.7409992  24.9049978  15.4410014
  94.4449992  24.0489978  16.4730014  94.3377756  24.3102603  15.6495812
  80.4809992  22.5809978  14.1140014  80.2619992  23.1109978  13.3470014
  79.8129992  22.8069978  14.7610014  80.3606975  22.6840967  14.0965140
  87.8499992  32.0809978   7.6580014  87.5549992  31.7579978   6.8060014
  87.5259992  32.9809978   7.6990014  87.7658460  32.1584464   7.5469714
  83.0499992  30.2559978  14.4010014  82.3099992  30.8549978  14.5050014
  83.7639992  30.8099978  14.0860014  83.0453500  30.4127829  14.3726371
  91.1569992  23.0849978  10.4210014  90.9419992  22.3189978  10.9540014
  91.8129992  23.5569978  10.9340014  91.2162673  23.0440728  10.5631990
  80.0749992  24.4729978  12.0660014  80.6889992  25.1059978  12.4390014
  80.5869992  24.0009978  11.4100014  80.2281962  24.4957249  12.0282935
  81.4579992  32.2209978  15.1880014  81.4519992  33.0999978  14.8100014
  80.6039992  32.1369978  15.6130014  81.3417925  32.3299535  15.1936887
  77.5789992  31.8919978   5.9700014  77.3069992  32.1209978   5.0820014
  77.6239992  32.7289978   6.4310014  77.5478097  32.0366163   5.9106683
  91.2039992  33.5129978  12.6830014  90.2619992  33.5719978  12.8450014
  91.4799992  34.4189978  12.5460014  91.1125865  33.6435288  12.6866192
  91.5039992  21.7999978  14.1000014  90.7679992  22.4099978  14.0630014
  92.1879992  22.2149978  13.5740014  91.4955367  21.9397551  14.0238174
  84.5079992  19.8859978  11.5660014  84.3899992  18.9379978  11.5120014
  83.6529992  20.2189978  11.8390014  84.3762805  19.8012202  11.5955079
  89.4559992  35.2939978   9.3080014  89.8809992  34.5869978   8.8230014
  89.7729992  36.0959978   8.8910014  89.5570266  35.3055190   9.1852479
  90.6159992  33.1949978   7.8170014  90.3579992  32.5049978   7.2050014
  90.6869992  32.7519978   8.6620014  90.5903050  33.0406814   7.8475621
  92.3019992  31.7619978  16.2940014  92.4409992  31.1699978  15.5550014
  92.4689992  32.6349978  15.9380014  92.3436193  31.7988896  16.1446211
  86.7739992  28.7239978   6.0670014  86.0629992  29.2589978   5.7150014
  87.4649992  28.7789978   5.4070014  86.7700751  28.8046777   5.9295858
  86.8279992  27.1809978   3.1050014  87.5289992  27.2039978   3.7570014
  87.1299992  26.5529978   2.4490014  86.9648202  27.0992212   3.1055609
  94.1429992  28.1019978  14.3600014  93.4909992  28.7959978  14.4490014
  94.6089992  28.3119978  13.5500014  94.1165937  28.2255019  14.2627533
  90.1799992  28.9329978   7.0180014  89.4479992  29.1619978   7.5920014
  90.6269992  28.2199978   7.4730014  90.1403963  28.8678729   7.1579945
  90.0769992  27.1079978  16.0860014  90.1569992  27.8709978  16.6580014
  89.4759992  27.3869978  15.3960014  90.0066547  27.2502457  16.0710047
  81.8249992  29.5639978   8.9010014  81.4949992  29.1929978   8.0830014
  82.4139992  28.8929978   9.2480014  81.8593970  29.4226063   8.8359404
  83.1919992  32.9919978  11.5820014  83.0969992  32.4129978  10.8260014
  83.9209992  32.6209978  12.0780014  83.2776011  32.8625561  11.5456028
  82.1919992  28.3319978  12.5340014  82.7569992  28.4539978  11.7720014
  82.5109992  28.9699978  13.1730014  82.3124166  28.4348791  12.5160348
  88.5009992  33.8359978  13.2680014  88.2609992  34.4979978  13.9160014
  88.3029992  33.0009978  13.6930014  88.4413826  33.8138115  13.4141566
  83.0719992  32.7319978  17.2520014  82.7609992  33.5139978  17.7070014
  82.4219992  32.5789978  16.5660014  82.9415538  32.8184087  17.2215898
  89.0509992  28.0959978   4.7040014  89.6299992  28.2459978   5.4500014
  89.4649992  28.5659978   3.9800014  89.1863358  28.1800954   4.7083953
  79.9919992  28.9299978  16.4800014  80.0619992  29.5809978  17.1790014
  79.1009992  29.0329978  16.1450014  79.8811690  29.0329249  16.5303043
  86.7769992  34.8319978   8.1390014  87.2509992  35.1279978   8.9160014
  86.2139992  35.5709978   7.9060014  86.7657890  34.9723036   8.2138101
  81.3109992  34.8029978  18.0150014  81.3189992  34.6669978  17.0680014
  80.3949992  34.6859978  18.2670014  81.1882528  34.7685463  17.9193243
  92.7499992  19.8459978   4.5170014  91.8499992  19.9849978   4.8120014
  93.0019992  20.6769978   4.1150014  92.6608683  19.9774055   4.5030232
  80.8159992  28.6329978   6.4900014  80.5239992  29.4009978   5.9990014
  80.1409992  27.9739978   6.3270014  80.6848497  28.6489745   6.4008260
  93.9389992  34.2119978   2.8930014  94.0119992  35.1509978   3.0630014
  94.8439992  33.9069978   2.8370014  94.0714170  34.2993282   2.9087063
  76.9089992  30.9959978  15.3050014  76.4069992  30.9679978  14.4900014
  76.9139992  30.0909978  15.6150014  76.8409832  30.8697486  15.2354121
  76.6589992  33.7769978  12.1890014  77.6049992  33.6319978  12.1700014
  76.5459992  34.5609978  12.7260014  76.7733578  33.8631697  12.2590317
  94.8569992  34.4429978  17.8720014  94.8069992  33.4869978  17.8340014
  94.0299992  34.7099978  18.2730014  94.7383831  34.3484680  17.9210121
  85.8349992  34.0169978  16.7480014  85.9229992  34.8429978  17.2230014
  84.9719992  33.6869978  16.9970014  85.7303357  34.0855468  16.8467653
  86.2499992  37.7889978   6.5540014  86.1739992  37.6679978   5.6070014
  86.2819992  38.7379978   6.6720014  86.2439380  37.9007677   6.4405181
  79.9029992  36.5779978   8.3350014  80.0549992  36.2299978   9.2130014
  79.0519992  36.2209978   8.0790014  79.8088344  36.4820879   8.4206868
  89.3509992  36.9429978   3.5560014  89.7259992  36.1989978   3.0850014
  89.3559992  36.6729978   4.4740014  89.4030098  36.8046392   3.6156629
  89.0199992  36.8689978   6.3050014  88.0849992  36.9689978   6.4840014
  89.2999992  36.1589978   6.8840014  88.9299471  36.7867933   6.4076695
  92.0089992  25.9359978  18.3520014  91.6009992  26.4159978  17.6310014
  92.0489992  25.0299978  18.0440014  91.9586221  25.8792449  18.2118267
  79.1579992  32.3199978  16.3480014  79.3739992  31.9579978  17.2080014
  78.3019992  31.9449978  16.1390014  79.0718810  32.2198837  16.4372680
  81.7759992  20.7899978  12.3440014  80.9149992  20.7029978  11.9360014
  81.7539992  21.6459978  12.7720014  81.6550491  20.8938003  12.3459582
  86.4389992  20.5119978  15.7190014  86.8589992  20.0969978  16.4720014
  85.5059992  20.3329978  15.8360014  86.3703736  20.4309910  15.8378968
  89.7659992  24.2669978  16.5720014  89.2519992  24.1419978  17.3700014
  89.6099992  25.1799978  16.3280014  89.6746967  24.3732123  16.6480937
  90.5279992  29.1279978   2.3330014  90.5699992  28.9059978   1.4030014
  91.3769992  29.5269978   2.5230014  90.6485253  29.1515498   2.2313822
  86.1009992  23.0039978   3.0040014  85.8469992  23.0229978   3.9260014
  85.8439992  22.1329978   2.7020014  86.0314508  22.8888280   3.0894803
  81.8669992  25.7549978  13.4390014  81.2259992  25.7149978  14.1480014
  81.9049992  26.6819978  13.2010014  81.7843010  25.8747668  13.5039946
  81.8639992  25.9759978   8.3510014  80.9719992  25.6359978   8.2920014
  82.3149992  25.5989978   7.5950014  81.8027642  25.8784910   8.2407726
  87.3999992  26.3919978   7.1680014  86.9909992  27.2069978   6.8760014
  88.1199992  26.2519978   6.5540014  87.4414439  26.4845372   7.0450115
  86.5019992  26.5679978  18.6560014  85.9389992  25.8629978  18.9770014
  87.3279992  26.4469978  19.1240014  86.5366674  26.4552165  18.7631751
  88.4049992  25.8379978   9.9820014  88.2089992  26.4439978   9.2670014
  88.5859992  25.0049978   9.5480014  88.4026584  25.8082513   9.8254212
  79.6169992  26.0759978  15.3060014  79.5789992  26.4759978  16.1750014
  79.1269992  25.2589978  15.3960014  79.5455330  26.0202674  15.4371289
  82.9829992  23.4499978   2.1050014  82.5519992  23.0049978   2.8340014
  82.2649992  23.8209978   1.5920014  82.8269176  23.4392051   2.1354930
  76.2259992  23.1919978   9.1570014  76.8559992  23.1629978   9.8760014
  76.6749992  22.7669978   8.4260014  76.3730835  23.1305660   9.1567659
  77.4999992  23.9379978   4.5810014  77.9739992  24.5289978   3.9960014
  76.7819992  24.4679978   4.9280014  77.4678640  24.0905511   4.5477969
  87.6689992  27.4759978  14.6530014  87.9919992  26.8449978  14.0100014
  87.2279992  26.9419978  15.3140014  87.6536379  27.3173468  14.6542582
  84.4459992  23.4039978   9.4370014  83.5349992  23.4609978   9.7260014
  84.9509992  23.3439978  10.2480014  84.3896873  23.4036826   9.5861207
  79.2739992  25.0329978   8.2640014  78.3849992  25.1319978   7.9240014
  79.5709992  24.1909978   7.9180014  79.1924177  24.9327687   8.1706940
  82.9269992  25.0329978   5.9210014  83.8589992  25.1619978   6.0990014
  82.7119992  25.7019978   5.2710014  83.0254472  25.1410806   5.8574891
  88.8509992  22.6389978  12.7020014  88.1739992  22.7699978  13.3650014
  88.3659992  22.4839978  11.8910014  88.6927405  22.6359947  12.6832170
  81.6009992  26.2269978   3.4870014  81.0589992  25.8479978   2.7960014
  82.4349992  26.4219978   3.0590014  81.6394390  26.2014079   3.3344392
  92.1389992  38.3099978  18.9780014  92.3379992  38.7339978  18.1440014
  92.7939992  38.6539978  19.5850014  92.2548522  38.4146301  18.9457852
  79.7369992  30.7839978  18.5860014  80.4689992  31.0389978  19.1480014
  78.9559992  30.9889978  19.1020014  79.7316526  30.8465450  18.7325176
  85.7659992  26.1909978  11.3240014  86.3299992  25.6449978  10.7770014
  85.6179992  25.6699978  12.1130014  85.8233037  26.0456787  11.3557229
  80.7679992  22.3279978   7.7430014  80.4509992  21.4249978   7.7070014
  81.5489992  22.3299978   7.1900014  80.8302431  22.2047797   7.6633102
  84.3919992  24.5799978  13.7380014  83.5569992  25.0339978  13.8490014
  84.9159992  24.8559978  14.4900014  84.3486072  24.6793948  13.8548136
  84.9369992  30.7929978   5.4230014  84.1919992  30.2849978   5.1010014
  84.8019992  30.8419978   6.3690014  84.8168963  30.7301731   5.5068826
  92.0869992  29.9259978  14.2100014  92.7279992  30.3819978  13.6660014
  91.2559992  30.0389978  13.7470014  92.0625287  30.0036921  14.0729887
  88.8339992  23.6069978   3.6220014  87.8959992  23.7179978   3.4710014
  89.1319992  24.4629978   3.9290014  88.7456318  23.7380158   3.6428145
  86.4559992  30.9769978  16.6600014  86.1099992  30.5949978  17.4670014
  86.2559992  31.9099978  16.7310014  86.3815987  31.0509002  16.7800461
  89.5529992  25.4739978   5.2830014  90.4449992  25.3359978   5.6020014
  89.6089992  26.2649978   4.7460014  89.6827325  25.5619918   5.2541217
  80.0609992  30.0879978  11.1930014  80.8059992  30.0849978  10.5910014
  80.1389992  29.2639978  11.6740014  80.1733365  29.9762384  11.1757430
  87.0619992  32.2509978   4.4480014  86.7669992  33.0779978   4.8300014
  86.3589992  31.6319978   4.6450014  86.9266379  32.2804171   4.5268654
  77.0689992  28.5479978  16.5080014  77.2919992  28.1299978  17.3390014
  76.4669992  27.9359978  16.0850014  77.0181513  28.4079606  16.5646740
  84.0859992  28.0649978  18.7210014  83.7899992  27.8999978  17.8250014
  85.0169992  27.8449978  18.7100014  84.1714401  28.0126879  18.5970206
  88.7059992  33.4389978  16.6100014  87.8059992  33.6219978  16.3430014
  88.7399992  33.6979978  17.5310014  88.5873748  33.4990554  16.6979164
  94.4379992  25.6829978   4.9780014  93.8829992  25.2869978   4.3050014
  94.5379992  26.5939978   4.7000014  94.3756816  25.7519505   4.8485033
  94.4009992  31.4839978  17.8150014  93.5499992  31.7219978  17.4470014
  94.9909992  31.4669978  17.0620014  94.3643812  31.5142524  17.6628453
  92.7329992  34.4689978   5.4430014  92.3599992  33.6439978   5.7520014
  93.0099992  34.2859978   4.5450014  92.7193463  34.3312569   5.3639525
  89.8929992  29.2769978  12.4640014  88.9649992  29.0459978  12.4370014
  90.3439992  28.4999978  12.1340014  89.8268165  29.1402774  12.4156790
  82.4359992  33.6059978   8.5970014  82.9639992  34.3789978   8.3970014
  81.5559992  33.8299978   8.2950014  82.3893435  33.7422700   8.5287310
  78.1909992  28.4679978   3.1840014  78.8069992  29.0949978   3.5640014
  77.3289992  28.7839978   3.4560014  78.1587678  28.5964412   3.2727209
  83.8639992  31.2689978   8.1730014  83.6229992  32.1939978   8.2150014
  83.1229992  30.8099978   8.5700014  83.7309206  31.3335915   8.2323769
  84.3779992  35.4179978  14.4880014  84.7409992  36.2719978  14.2550014
  84.9099992  35.1259978  15.2290014  84.4995141  35.4953895  14.5562097
  82.5469992  36.2899978   7.7190014  81.5969992  36.3959978   7.7700014
  82.8989992  37.1109978   8.0630014  82.4645472  36.4154923   7.7724852
  87.9219992  31.5169978  14.1890014  87.4969992  31.2889978  15.0150014
  88.5029992  30.7779978  14.0070014  87.9423395  31.3859545  14.2774414
  90.1249992  32.4459978   3.2630014  90.4789992  32.0659978   4.0670014
  89.1769992  32.3519978   3.3500014  90.0452298  32.3812452   3.3848687
  90.5809992  36.0689978  16.6580014  89.9789992  35.5129978  16.1630014
  90.8619992  36.7359978  16.0320014  90.5365757  36.0830744  16.5055675
  94.6289992  36.9249978   3.4640014  95.3729992  37.5109978   3.3240014
  93.9349992  37.4939978   3.7970014  94.6369809  37.0820818   3.4898590
  78.7029992  23.3019978  16.0660014  77.8109992  23.6399978  15.9980014
  78.6049992  22.4459978  16.4840014  78.5674475  23.2326543  16.1131704
  90.9909992  31.1179978   5.4900014  90.7139992  30.3899978   6.0460014
  91.9189992  31.2369978   5.6950014  91.0784499  31.0344213   5.5938044
  78.3549992  35.1059978  14.5010014  78.5719992  34.1739978  14.4700014
  78.6009992  35.3809978  15.3840014  78.4179808  35.0155686  14.6161691
  84.2159992  33.5579978   1.7100014  84.4549992  32.8089978   1.1630014
  83.9469992  33.1699978   2.5430014  84.2123233  33.4031853   1.7477809
  83.1529992  33.1279978   4.1660014  83.2999992  32.6079978   4.9560014
  83.1499992  34.0349978   4.4730014  83.1727102  33.1793953   4.3155925
  79.6059992  30.3799978   4.6770014  78.9199992  30.7329978   5.2440014
  80.1289992  31.1429978   4.4300014  79.5828402  30.5313901   4.7211801
  87.4379992  23.0429978  14.9560014  88.1369992  23.1169978  15.6060014
  87.0569992  22.1779978  15.1100014  87.4822097  22.9362389  15.0657997
  88.2219992  22.6949978   6.0530014  88.4419992  23.1659978   5.2490014
  88.7809992  23.0889978   6.7230014  88.3276731  22.8127287   6.0335033
  85.8909992  34.8249978   4.9160014  85.0739992  35.3219978   4.9680014
  86.4199992  35.3009978   4.2750014  85.8508125  34.9571989   4.8365306
  85.4219992  24.4229978   6.8880014  86.2339992  24.9269978   6.9340014
  85.1779992  24.2779978   7.8020014  85.5001467  24.4723749   7.0178575
  85.9579992  25.4089978  16.0720014  86.0769992  25.9829978  16.8290014
  86.6129992  24.7209978  16.1870014  86.0628684  25.3945194  16.1911674
  86.3059992  21.5039978   7.8260014  85.9589992  22.1209978   8.4700014
  86.9649992  22.0049978   7.3440014  86.3475090  21.6561575   7.8490681
  83.2289992  35.8689978   4.8970014  83.3899992  36.6689978   4.3970014
  83.0319992  36.1759978   5.7820014  83.2243906  36.0198678   4.9482333
  81.9639992  22.5669978   4.5130014  81.8799992  23.4549978   4.8600014
  82.8539992  22.3019978   4.7450014  82.0728163  22.6527179   4.5918596
  92.1619992  23.3159978  16.9070014  91.2459992  23.5779978  16.8200014
  92.4979992  23.3129978  16.0110014  92.0818499  23.3515163  16.7738766
  90.7649992  27.0659978  11.0030014  89.9669992  26.6509978  10.6750014
  91.2099992  26.3759978  11.4940014  90.7159684  26.9158628  11.0245227
  80.2219992  32.9939978   3.5730014  80.8139992  33.6939978   3.8500014
  80.6809992  32.5609978   2.8540014  80.3651652  33.0312675   3.5136533
  78.5379992  25.6589978   2.6890014  78.4929992  26.5979978   2.8680014
  77.6499992  25.4229978   2.4200014  78.4118166  25.7556687   2.6771524
  91.8509992  36.3219978  12.6250014  91.6949992  37.0009978  11.9680014
  92.7839992  36.3939978  12.8280014  91.9557387  36.4246390  12.5625342
  79.3459992  20.4399978  11.3630014  79.1169992  20.4989978  10.4350014
  78.9039992  19.6489978  11.6690014  79.2548801  20.3410540  11.2774729
  78.2769992  34.3809978   7.5230014  77.4439992  34.8529978   7.5500014
  78.8219992  34.8909978   6.9240014  78.2367857  34.5144791   7.4457142
  77.5649992  36.9929978  18.8530014  78.1049992  36.7769978  19.6130014
  77.0839992  36.1879978  18.6630014  77.5739219  36.8545156  18.9314282
  82.1619992  35.9129978  20.4730014  82.9299992  35.4539978  20.8140014
  82.1409992  35.6869978  19.5430014  82.2642135  35.8196668  20.3939491
  86.2539992  35.4209978   1.8490014  85.6099992  34.7899978   2.1700014
  87.0159992  34.8899978   1.6170014  86.2688058  35.2627902   1.8616038
  88.7389992  34.2929978  19.2020014  88.3879992  33.4359978  19.4460014
  89.4649992  34.4349978  19.8090014  88.7891895  34.1951351  19.3173770
  90.8589992  35.2379978   2.0820014  91.1419992  34.4429978   2.5350014
  91.5979992  35.4709978   1.5210014  90.9977096  35.1607049   2.0681104
  77.4719992  30.8039978  19.8070014  77.6159992  29.9019978  19.5210014
  76.6999992  31.0899978  19.3200014  77.3872733  30.7191798  19.7019532
  81.8129992  31.1469978   1.9400014  81.8779992  30.3529978   2.4700014
  82.4659992  31.0289978   1.2500014  81.9101605  31.0223430   1.9192997
  84.1269992  30.7729978  19.2400014  83.7989992  31.0439978  18.3830014
  84.2789992  29.8319978  19.1520014  84.1026412  30.6829046  19.1107822
  87.1659992  32.1939978   1.6760014  86.8969992  32.3749978   2.5760014
  86.9589992  31.2689978   1.5440014  87.1011191  32.0937119   1.7815524
  89.8619992  30.6889978  16.6230014  90.6069992  31.2779978  16.5040014
  89.1049992  31.2709978  16.6870014  89.8615470  30.8482128  16.6153799
  78.3049992  28.0039978  19.2270014  78.7129992  27.1469978  19.1060014
  78.0439992  28.0179978  20.1480014  78.3256016  27.8885119  19.3349192
  82.9629992  29.1199978   4.2460014  82.5029992  28.6359978   4.9310014
  83.2179992  28.4509978   3.6100014  82.9344856  28.9633669   4.2538397
  82.2519992  27.0129978  16.6020014  81.6329992  27.6869978  16.8820014
  82.5959992  27.3339978  15.7680014  82.2137123  27.1486887  16.5276388
  84.0339992  27.3629978   2.5080014  83.8529992  27.2079978   1.5810014
  84.9839992  27.4709978   2.5530014  84.1376566  27.3563669   2.3870929
  87.2709992  29.4839978  19.8790014  88.2249992  29.5679978  19.8520014
  87.1109992  28.7719978  20.4990014  87.3797182  29.3992842  19.9590733
  93.4239992  29.7169978   1.9540014  93.1499992  29.2929978   1.1410014
  93.4629992  30.6489978   1.7370014  93.3917716  29.7848827   1.8134286
  82.5909992  24.3679978  17.6840014  82.7409992  23.6389978  17.0820014
  82.5929992  25.1449978  17.1250014  82.6117967  24.3732708  17.5260541
  83.0039992  22.7369978  15.1770014  83.5389992  23.1889978  14.5250014
  82.1509992  22.6289978  14.7540014  82.9620374  22.7842665  15.0306710
  84.5849992  28.1769978  15.4160014  85.3359992  28.0209978  14.8430014
  84.2459992  29.0289978  15.1410014  84.6419587  28.2708138  15.3004078
  89.0009992  25.9919978  20.4450014  89.1929992  25.0609978  20.3330014
  89.8589992  26.4169978  20.4340014  89.1432182  25.9220070  20.4281862
  90.3179992  28.7809978  18.5220014  90.0359992  29.4899978  17.9440014
  91.2599992  28.7079978  18.3710014  90.4067921  28.8682193  18.4224225
  81.0699992  25.5659978  19.5950014  80.3019992  25.0329978  19.3850014
  81.7479992  25.2559978  18.9960014  81.0567235  25.4511754  19.4852413
  83.8089992  20.1939978  15.6080014  83.7109992  21.1399978  15.5030014
  83.0669992  19.8209978  15.1320014  83.6952534  20.2731773  15.5292600
  85.0729992  24.5149978  19.1720014  84.8379992  24.2959978  20.0730014
  84.2899992  24.3079978  18.6620014  84.9349095  24.4569892  19.2265353
  87.7889992  23.6429978  18.2470014  86.8409992  23.6749978  18.3790014
  88.1009992  23.0169978  18.9010014  87.7015293  23.5627923  18.3534148
  89.4229992  22.2769978  20.2520014  89.3259992  21.3249978  20.2470014
  89.1009992  22.5449978  21.1130014  89.3662468  22.1830884  20.3676210
  79.2499992  23.4859978  19.3000014  79.4619992  22.7799978  18.6900014
  79.1389992  23.0489978  20.1440014  79.2640269  23.3301921  19.3305873
  84.0309992  19.4879978  18.2790014  84.7429992  18.8479978  18.2650014
  83.9299992  19.7539978  17.3660014  84.1147387  19.4364330  18.1535563
  84.3849992  21.1699978  20.3330014  84.2529992  20.6949978  19.5130014
  83.7849992  21.9149978  20.2780014  84.2859070  21.2055789  20.2133251
  83.9309992  38.0529978   3.5090014  84.8639992  38.2109978   3.6530014
  83.6669992  38.7289978   2.8840014  84.0229911  38.1659373   3.4442722
  77.4989992  32.6899978   2.9920014  78.4129992  32.7689978   3.2650014
  77.5069992  32.0029978   2.3260014  77.6250655  32.6079205   2.9392917
  76.1479992  38.0829978   8.0690014  75.5009992  37.6209978   7.5370014
  76.5029992  37.4109978   8.6520014  76.1073741  37.9289774   8.0749175
  77.0179992  36.1629978   9.8740014  76.6839992  35.2829978  10.0460014
  77.2409992  36.5089978  10.7390014  77.0023721  36.0891938  10.0144168
  94.5669992  36.9729978  12.8550014  94.5449992  37.1579978  13.7940014
  95.2569992  37.5409978  12.5140014  94.6573439  37.0751887  12.9374791
  94.1299992  36.5399978  15.7760014  93.6429992  35.8049978  15.4050014
  94.6789992  36.1459978  16.4540014  94.1375247  36.3861057  15.8168461
  92.5809992  32.3299978  20.4150014  91.7149992  32.2249978  20.8090014
  92.9569992  33.0879978  20.8610014  92.5133401  32.4181708  20.5292620
  93.8819992  30.5859978   5.9290014  94.7319992  31.0069978   6.0560014
  93.8869992  29.8459978   6.5360014  93.9991143  30.5436094   6.0284750
  94.2759992  28.6399978   7.7520014  93.5499992  28.1599978   8.1500014
  94.8579992  28.8449978   8.4850014  94.2552730  28.6020184   7.9054149
  94.0349992  31.4249978  12.7000014  94.8689992  31.0469978  12.4190014
  94.1469992  32.3679978  12.5810014  94.1641917  31.5007943  12.6454861
  92.5219992  34.3029978  15.0070014  91.8739992  34.6279978  15.6320014
  92.0039992  33.8619978  14.3330014  92.3634196  34.2878651  15.0014152
  94.5449992  28.5409978   4.1430014  94.0229992  28.8969978   3.4250014
  94.5119992  29.2159978   4.8220014  94.4690129  28.6809598   4.1363355
  92.8939992  25.7799978   2.6940014  92.9899992  26.4469978   2.0140014
  92.7539992  24.9649978   2.2130014  92.8882040  25.7610671   2.5358378
  92.0629992  27.1609978   8.3150014  91.9129992  26.2159978   8.2950014
  91.7089992  27.4419978   9.1590014  91.9946351  27.0696644   8.4263220
  77.0979992  29.2389978  12.3260014  77.2829992  29.1569978  11.3900014
  77.9479992  29.1149978  12.7490014  77.2380928  29.2110463  12.2552893
  92.9189992  29.1309978  17.9540014  93.5019992  28.3959978  18.1460014
  93.4829992  29.9029978  18.0010014  93.0749781  29.1348145  17.9866164
  94.4159992  27.0339978  18.6390014  93.5529992  26.6549978  18.4730014
  95.0199992  26.2949978  18.5640014  94.3796085  26.8823223  18.6061695
  92.1409992  23.1879978   1.8120014  92.7519992  22.8169978   2.4490014
  91.3039992  22.7669978   2.0080014  92.1114947  23.0802756   1.9257252
  91.7739992  24.7429978   6.7780014  92.0529992  23.8359978   6.9020014
  92.5329992  25.1769978   6.3890014  91.9148619  24.6774502   6.7423795
  92.3849992  25.3249978  12.2140014  93.3179992  25.5369978  12.1790014
  92.1499992  25.4259978  13.1360014  92.4809517  25.3676833  12.3339130
  92.4149992  26.0619978  14.9900014  91.5719992  26.3299978  15.3560014
  92.8569992  26.8839978  14.7790014  92.3594138  26.2098273  15.0115518
  76.6959992  24.5089978  18.4660014  77.6149992  24.3869978  18.7030014
  76.2459992  23.7589978  18.8560014  76.7610087  24.3909608  18.5511410
  94.6979992  20.0419978  20.3430014  95.0469992  19.3879978  19.7380014
  94.8449992  20.8789978  19.9030014  94.7656824  20.0656024  20.2006304
  92.3869992  22.0059978   6.8260014  92.5689992  21.5569978   7.6510014
  91.7869992  21.4219978   6.3620014  92.3308187  21.8655552   6.8762739
  77.9169992  22.8219978  11.3580014  78.3619992  22.0299978  11.6600014
  78.3829992  23.5379978  11.7880014  78.0409718  22.8104534  11.4575265
  76.2209992  25.8209978  12.4270014  76.7129992  25.5999978  11.6360014
  76.5829992  26.6609978  12.7080014  76.3372923  25.9043468  12.3567407
  94.2169992  22.1509978  18.6920014  93.2999992  22.4219978  18.6570014
  94.3399992  21.6159978  17.9080014  94.1079672  22.1157885  18.5811862
  94.2539992  22.0739978   3.3540014  94.6659992  21.3529978   2.8790014
  94.9349992  22.7429978   3.4120014  94.4025536  22.0657766   3.2968024
  76.5349992  22.0789978   6.4810014  75.6099992  22.2869978   6.3520014
  76.9889992  22.5629978   5.7910014  76.4696298  22.1729299   6.3700451
  91.3049992  37.0629978   8.4270014  91.9579992  36.7149978   7.8190014
  91.8159992  37.5509978   9.0730014  91.4632777  37.0813815   8.4312047
  76.4979992  20.8169978  14.8250014  75.8329992  20.5709978  15.4680014
  76.0549992  21.4389978  14.2480014  76.3471168  20.8674214  14.8349848
  78.6899992  33.9919978  18.9700014  77.8689992  34.1669978  18.5090014
  78.4379992  33.9189978  19.8900014  78.5435594  34.0060717  19.0313611
  81.6439992  34.9659978  15.2280014  81.2199992  35.7759978  14.9460014
  82.5489992  35.0519978  14.9260014  81.7082138  35.0884160  15.1486415
  85.9559992  36.3649978  18.1880014  86.1399992  36.0319978  19.0660014
  86.8019992  36.6749978  17.8660014  86.0956484  36.3612979  18.2647617
  88.3009992  37.6509978  17.4320014  88.9779992  37.0179978  17.1920014
  88.6219992  38.0519978  18.2390014  88.4371323  37.6185691  17.5083158
  93.2179992  20.2409978  16.5110014  92.4049992  20.5659978  16.1240014
  93.4509992  19.4799978  15.9780014  93.1381347  20.1826880  16.3859841
  79.0459992  38.2229978  15.2760014  78.3259992  38.6629978  14.8250014
  78.6809992  37.9719978  16.1240014  78.8979643  38.2493369  15.3289129
  81.5129992  37.8229978  14.3060014  80.6489992  37.8949978  14.7100014
  81.4579992  38.3699978  13.5220014  81.3871942  37.9067849  14.2554000
  86.2239992  37.7109978  13.4810014  85.7669992  38.2399978  12.8270014
  86.3869992  38.3139978  14.2060014  86.1834960  37.8649280  13.4895274
  88.5519992  36.5889978  14.4260014  87.6469992  36.7539978  14.1600014
  88.9799992  37.4419978  14.3600014  88.4861537  36.7269134  14.3807095
  91.1559992  38.1589978  14.7210014  90.9739992  39.0749978  14.5100014
  91.3329992  37.7479978  13.8740014  91.1550030  38.2288273  14.5777166
  78.4609992  36.8459978  12.1860014  78.4429992  36.4199978  13.0430014
  79.2659992  36.5269978  11.7770014  78.5672875  36.7446435  12.2479515
  80.6019992  35.5559978  10.8410014  80.3829992  34.6389978  11.0110014
  81.4259992  35.6959978  11.3070014  80.6834702  35.4495511  10.9272527
  83.1389992  36.0259978  11.6900014  83.3519992  35.1379978  11.4030014
  83.2039992  35.9909978  12.6440014  83.1769149  35.8998326  11.7797369
  86.6479992  21.6899978  10.8340014  85.9739992  21.0599978  11.0900014
  87.2119992  21.2059978  10.2310014  86.6320384  21.5383708  10.7875020
  91.7909992  19.7969978  10.9470014  92.3939992  20.3449978  10.4450014
  90.9209992  20.1159978  10.7060014  91.7559157  19.9150373  10.8457910
  93.5179992  20.9359978   9.2800014  94.1289992  20.4219978   8.7530014
  93.8999992  21.8129978   9.3030014  93.6533305  20.9842050   9.2109418
  78.9749992  20.3239978   8.6560014  78.1979992  20.0889978   8.1490014
  79.5049992  19.5269978   8.6650014  78.9403451  20.1841268   8.5878627
  77.8109992  20.1219978   4.4600014  78.2499992  20.7329978   3.8680014
  77.1769992  20.6599978   4.9340014  77.7853859  20.2784064   4.4430305
  83.5539992  20.2499978   8.4690014  84.4279992  20.6389978   8.4400014
  83.4179992  20.0349978   9.3920014  83.6551953  20.2741643   8.5897617
  89.1109992  20.2799978  10.1190014  89.1869992  20.3759978   9.1690014
  88.8359992  19.3729978  10.2470014  89.0841871  20.1704146  10.0063944
  90.4639992  20.3059978   5.8110014  89.7609992  20.9209978   5.6010014
  90.0189992  19.4689978   5.9420014  90.3076550  20.2769668   5.7999837
  77.7119992  36.0699978   5.3570014  77.0269992  36.0319978   4.6900014
  77.7159992  36.9829978   5.6450014  77.6187621  36.1881924   5.3046126
  79.6719992  22.0379978   2.9020014  80.1629992  21.4079978   2.3750014
  80.2949992  22.3339978   3.5650014  79.8235304  21.9917376   2.9194940
  84.6979992  22.3309978   5.3590014  84.8759992  21.6839978   6.0420014
  84.6439992  23.1649978   5.8260014  84.7150678  22.3551604   5.5156301
  86.5759992  37.2789978   3.7550014  87.4419992  37.6459978   3.5770014
  86.3299992  36.8399978   2.9410014  86.6612097  37.2698525   3.6206019
  93.2849992  36.8419978   6.4340014  93.0909992  36.0939978   5.8690014
  93.2459992  37.5999978   5.8510014  93.2531645  36.8420786   6.2778148
  78.9319992  20.8379978  18.1740014  78.5659992  20.0719978  18.6160014
  79.8449992  20.8669978  18.4600014  79.0053172  20.7370324  18.2731890
  80.9049992  20.1879978  19.7090014  81.8039992  19.9139978  19.5250014
  80.5189992  19.4459978  20.1740014  80.9757307  20.0502196  19.7467098
  79.5299992  36.9899978   2.3820014  79.2619992  37.2759978   3.2560014
  80.3009992  36.4439978   2.5350014  79.5975926  36.9552779   2.5221205
  89.3269992  19.5209978  19.8920014  89.4029992  19.0949978  20.7450014
  90.2199992  19.5339978  19.5490014  89.4582303  19.4643493  19.9625497
  92.5029992  35.5939978  18.5840014  91.7209992  35.4069978  18.0640014
  92.4309992  36.5229978  18.8010014  92.3861924  35.6940637  18.5421602
 106.9089992  29.4799978   8.6150014 106.9979992  30.4239978   8.4830014
 106.2709992  29.2049978   7.9570014 106.8349062  29.5719812   8.5079641
 105.8419992  28.7349978  12.0340014 105.8039992  28.0889978  12.7390014
 105.5199992  28.2679978  11.2630014 105.7932679  28.5834276  12.0262921
  98.2099992  28.3489978  13.6270014  98.2519992  27.7239978  14.3500014
  98.9129992  28.9729978  13.8090014  98.3107345  28.3477873  13.7505274
 109.5479992  31.6739978  10.3350014 109.1069992  30.9539978  10.7860014
 109.5349992  32.3949978  10.9650014 109.4859215  31.6729291  10.4818105
  99.1339992  32.7989978  12.1620014  98.7639992  31.9969978  11.7920014
 100.0749992  32.6309978  12.2080014  99.2105984  32.6664638  12.1175603
  95.7439992  26.4589978   7.5540014  95.2959992  27.3049978   7.5360014
  95.1829992  25.8799978   7.0390014  95.6068546  26.4963993   7.4818891
  96.4539992  28.6209978   9.6800014  96.6679992  27.8509978  10.2080014
  97.1919992  28.7109978   9.0770014  96.5830200  28.5278586   9.6707035
 106.6599992  36.7779978  10.5470014 107.2789992  36.1019978  10.2740014
 106.4509992  36.5599978  11.4560014 106.7166056  36.6558869  10.6323967
 104.2309992  31.1669978  12.4400014 104.5349992  30.4809978  11.8450014
 104.9529992  31.2859978  13.0580014 104.3701240  31.0892314  12.4420959
 112.8939992  22.7689978  13.3000014 112.9439992  23.3789978  14.0360014
 113.3199992  23.2299978  12.5770014 112.9584108  22.9147709  13.3030112
 107.3719992  25.5609978  12.7670014 107.5149992  24.6149978  12.7870014
 107.2659992  25.7679978  11.8390014 107.3772403  25.4594797  12.6442239
 100.5269992  23.6629978  10.0400014 100.5699992  24.5229978   9.6210014
 100.0689992  23.1109978   9.4060014 100.4709871  23.7059245   9.8970761
 108.2489992  23.7939978   8.4410014 108.8959992  23.4649978   9.0650014
 108.7589992  24.3109978   7.8180014 108.4064351  23.8189067   8.4421037
  97.1469992  26.0599978  10.8020014  97.8009992  25.5099978  11.2340014
  97.1709992  25.7859978   9.8850014  97.2397199  25.9477167  10.7371668
 102.3039992  27.6099978  10.0170014 102.9199992  27.0829978  10.5260014
 101.7169992  26.9699978   9.6130014 102.3090154  27.4513954  10.0320945
 113.2859992  24.2469978  15.5360014 112.5969992  24.9049978  15.4410014
 113.3009992  24.0489978  16.4730014 113.1937756  24.3102603  15.6495812
  99.3369992  22.5809978  14.1140014  99.1179992  23.1109978  13.3470014
  98.6689992  22.8069978  14.7610014  99.2166975  22.6840967  14.0965140
 106.7059992  32.0809978   7.6580014 106.4109992  31.7579978   6.8060014
 106.3819992  32.9809978   7.6990014 106.6218460  32.1584464   7.5469714
 101.9059992  30.2559978  14.4010014 101.1659992  30.8549978  14.5050014
 102.6199992  30.8099978  14.0860014 101.9013500  30.4127829  14.3726371
 110.0129992  23.0849978  10.4210014 109.7979992  22.3189978  10.9540014
 110.6689992  23.5569978  10.9340014 110.0722673  23.0440728  10.5631990
  98.9309992  24.4729978  12.0660014  99.5449992  25.1059978  12.4390014
  99.4429992  24.0009978  11.4100014  99.0841962  24.4957249  12.0282935
 100.3139992  32.2209978  15.1880014 100.3079992  33.0999978  14.8100014
  99.4599992  32.1369978  15.6130014 100.1977925  32.3299535  15.1936887
  96.4349992  31.8919978   5.9700014  96.1629992  32.1209978   5.0820014
  96.4799992  32.7289978   6.4310014  96.4038097  32.0366163   5.9106683
 110.0599992  33.5129978  12.6830014 109.1179992  33.5719978  12.8450014
 110.3359992  34.4189978  12.5460014 109.9685865  33.6435288  12.6866192
 110.3599992  21.7999978  14.1000014 109.6239992  22.4099978  14.0630014
 111.0439992  22.2149978  13.5740014 110.3515367  21.9397551  14.0238174
 103.3639992  19.8859978  11.5660014 103.2459992  18.9379978  11.5120014
 102.5089992  20.2189978  11.8390014 103.2322805  19.8012202  11.5955079
 108.3119992  35.2939978   9.3080014 108.7369992  34.5869978   8.8230014
 108.6289992  36.0959978   8.8910014 108.4130266  35.3055190   9.1852479
 109.4719992  33.1949978   7.8170014 109.2139992  32.5049978   7.2050014
 109.5429992  32.7519978   8.6620014 109.4463050  33.0406814   7.8475621
 111.1579992  31.7619978  16.2940014 111.2969992  31.1699978  15.5550014
 111.3249992  32.6349978  15.9380014 111.1996193  31.7988896  16.1446211
 105.6299992  28.7239978   6.0670014 104.9189992  29.2589978   5.7150014
 106.3209992  28.7789978   5.4070014 105.6260751  28.8046777   5.9295858
 105.6839992  27.1809978   3.1050014 106.3849992  27.2039978   3.7570014
 105.9859992  26.5529978   2.4490014 105.8208202  27.0992212   3.1055609
 112.9989992  28.1019978  14.3600014 112.3469992  28.7959978  14.4490014
 113.4649992  28.3119978  13.5500014 112.9725937  28.2255019  14.2627533
 109.0359992  28.9329978   7.0180014 108.3039992  29.1619978   7.5920014
 109.4829992  28.2199978   7.4730014 108.9963963  28.8678729   7.1579945
 108.9329992  27.1079978  16.0860014 109.0129992  27.8709978  16.6580014
 108.3319992  27.3869978  15.3960014 108.8626547  27.2502457  16.0710047
 100.6809992  29.5639978   8.9010014 100.3509992  29.1929978   8.0830014
 101.2699992  28.8929978   9.2480014 100.7153970  29.4226063   8.8359404
 102.0479992  32.9919978  11.5820014 101.9529992  32.4129978  10.8260014
 102.7769992  32.6209978  12.0780014 102.1336011  32.8625561  11.5456028
 101.0479992  28.3319978  12.5340014 101.6129992  28.4539978  11.7720014
 101.3669992  28.9699978  13.1730014 101.1684166  28.4348791  12.5160348
 107.3569992  33.8359978  13.2680014 107.1169992  34.4979978  13.9160014
 107.1589992  33.0009978  13.6930014 107.2973826  33.8138115  13.4141566
 101.9279992  32.7319978  17.2520014 101.6169992  33.5139978  17.7070014
 101.2779992  32.5789978  16.5660014 101.7975538  32.8184087  17.2215898
 107.9069992  28.0959978   4.7040014 108.4859992  28.2459978   5.4500014
 108.3209992  28.5659978   3.9800014 108.0423358  28.1800954   4.7083953
  98.8479992  28.9299978  16.4800014  98.9179992  29.5809978  17.1790014
  97.9569992  29.0329978  16.1450014  98.7371690  29.0329249  16.5303043
 105.6329992  34.8319978   8.1390014 106.1069992  35.1279978   8.9160014
 105.0699992  35.5709978   7.9060014 105.6217890  34.9723036   8.2138101
 100.1669992  34.8029978  18.0150014 100.1749992  34.6669978  17.0680014
  99.2509992  34.6859978  18.2670014 100.0442528  34.7685463  17.9193243
 111.6059992  19.8459978   4.5170014 110.7059992  19.9849978   4.8120014
 111.8579992  20.6769978   4.1150014 111.5168683  19.9774055   4.5030232
  99.6719992  28.6329978   6.4900014  99.3799992  29.4009978   5.9990014
  98.9969992  27.9739978   6.3270014  99.5408497  28.6489745   6.4008260
 112.7949992  34.2119978   2.8930014 112.8679992  35.1509978   3.0630014
 113.6999992  33.9069978   2.8370014 112.9274170  34.2993282   2.9087063
  95.7649992  30.9959978  15.3050014  95.2629992  30.9679978  14.4900014
  95.7699992  30.0909978  15.6150014  95.6969832  30.8697486  15.2354121
  95.5149992  33.7769978  12.1890014  96.4609992  33.6319978  12.1700014
  95.4019992  34.5609978  12.7260014  95.6293578  33.8631697  12.2590317
 113.7129992  34.4429978  17.8720014 113.6629992  33.4869978  17.8340014
 112.8859992  34.7099978  18.2730014 113.5943831  34.3484680  17.9210121
 104.6909992  34.0169978  16.7480014 104.7789992  34.8429978  17.2230014
 103.8279992  33.6869978  16.9970014 104.5863357  34.0855468  16.8467653
 105.1059992  37.7889978   6.5540014 105.0299992  37.6679978   5.6070014
 105.1379992  38.7379978   6.6720014 105.0999380  37.9007677   6.4405181
  98.7589992  36.5779978   8.3350014  98.9109992  36.2299978   9.2130014
  97.9079992  36.2209978   8.0790014  98.6648344  36.4820879   8.4206868
 108.2069992  36.9429978   3.5560014 108.5819992  36.1989978   3.0850014
 108.2119992  36.6729978   4.4740014 108.2590098  36.8046392   3.6156629
 107.8759992  36.8689978   6.3050014 106.9409992  36.9689978   6.4840014
 108.1559992  36.1589978   6.8840014 107.7859471  36.7867933   6.4076695
 110.8649992  25.9359978  18.3520014 110.4569992  26.4159978  17.6310014
 110.9049992  25.0299978  18.0440014 110.8146221  25.8792449  18.2118267
  98.0139992  32.3199978  16.3480014  98.2299992  31.9579978  17.2080014
  97.1579992  31.9449978  16.1390014  97.9278810  32.2198837  16.4372680
 100.6319992  20.7899978  12.3440014  99.7709992  20.7029978  11.9360014
 100.6099992  21.6459978  12.7720014 100.5110491  20.8938003  12.3459582
 105.2949992  20.5119978  15.7190014 105.7149992  20.0969978  16.4720014
 104.3619992  20.3329978  15.8360014 105.2263736  20.4309910  15.8378968
 108.6219992  24.2669978  16.5720014 108.1079992  24.1419978  17.3700014
 108.4659992  25.1799978  16.3280014 108.5306967  24.3732123  16.6480937
 109.3839992  29.1279978   2.3330014 109.4259992  28.9059978   1.4030014
 110.2329992  29.5269978   2.5230014 109.5045253  29.1515498   2.2313822
 104.9569992  23.0039978   3.0040014 104.7029992  23.0229978   3.9260014
 104.6999992  22.1329978   2.7020014 104.8874508  22.8888280   3.0894803
 100.7229992  25.7549978  13.4390014 100.0819992  25.7149978  14.1480014
 100.7609992  26.6819978  13.2010014 100.6403010  25.8747668  13.5039946
 100.7199992  25.9759978   8.3510014  99.8279992  25.6359978   8.2920014
 101.1709992  25.5989978   7.5950014 100.6587642  25.8784910   8.2407726
 106.2559992  26.3919978   7.1680014 105.8469992  27.2069978   6.8760014
 106.9759992  26.2519978   6.5540014 106.2974439  26.4845372   7.0450115
 105.3579992  26.5679978  18.6560014 104.7949992  25.8629978  18.9770014
 106.1839992  26.4469978  19.1240014 105.3926674  26.4552165  18.7631751
 107.2609992  25.8379978   9.9820014 107.0649992  26.4439978   9.2670014
 107.4419992  25.0049978   9.5480014 107.2586584  25.8082513   9.8254212
  98.4729992  26.0759978  15.3060014  98.4349992  26.4759978  16.1750014
  97.9829992  25.2589978  15.3960014  98.4015330  26.0202674  15.4371289
 101.8389992  23.4499978   2.1050014 101.4079992  23.0049978   2.8340014
 101.1209992  23.8209978   1.5920014 101.6829176  23.4392051   2.1354930
  95.0819992  23.1919978   9.1570014  95.7119992  23.1629978   9.8760014
  95.5309992  22.7669978   8.4260014  95.2290835  23.1305660   9.1567659
  96.3559992  23.9379978   4.5810014  96.8299992  24.5289978   3.9960014
  95.6379992  24.4679978   4.9280014  96.3238640  24.0905511   4.5477969
 106.5249992  27.4759978  14.6530014 106.8479992  26.8449978  14.0100014
 106.0839992  26.9419978  15.3140014 106.5096379  27.3173468  14.6542582
 103.3019992  23.4039978   9.4370014 102.3909992  23.4609978   9.7260014
 103.8069992  23.3439978  10.2480014 103.2456873  23.4036826   9.5861207
  98.1299992  25.0329978   8.2640014  97.2409992  25.1319978   7.9240014
  98.4269992  24.1909978   7.9180014  98.0484177  24.9327687   8.1706940
 101.7829992  25.0329978   5.9210014 102.7149992  25.1619978   6.0990014
 101.5679992  25.7019978   5.2710014 101.8814472  25.1410806   5.8574891
 107.7069992  22.6389978  12.7020014 107.0299992  22.7699978  13.3650014
 107.2219992  22.4839978  11.8910014 107.5487405  22.6359947  12.6832170
 100.4569992  26.2269978   3.4870014  99.9149992  25.8479978   2.7960014
 101.2909992  26.4219978   3.0590014 100.4954390  26.2014079   3.3344392
 110.9949992  38.3099978  18.9780014 111.1939992  38.7339978  18.1440014
 111.6499992  38.6539978  19.5850014 111.1108522  38.4146301  18.9457852
  98.5929992  30.7839978  18.5860014  99.3249992  31.0389978  19.1480014
  97.8119992  30.9889978  19.1020014  98.5876526  30.8465450  18.7325176
 104.6219992  26.1909978  11.3240014 105.1859992  25.6449978  10.7770014
 104.4739992  25.6699978  12.1130014 104.6793037  26.0456787  11.3557229
  99.6239992  22.3279978   7.7430014  99.3069992  21.4249978   7.7070014
 100.4049992  22.3299978   7.1900014  99.6862431  22.2047797   7.6633102
 103.2479992  24.5799978  13.7380014 102.4129992  25.0339978  13.8490014
 103.7719992  24.8559978  14.4900014 103.2046072  24.6793948  13.8548136
 103.7929992  30.7929978   5.4230014 103.0479992  30.2849978   5.1010014
 103.6579992  30.8419978   6.3690014 103.6728963  30.7301731   5.5068826
 110.9429992  29.9259978  14.2100014 111.5839992  30.3819978  13.6660014
 110.1119992  30.0389978  13.7470014 110.9185287  30.0036921  14.0729887
 107.6899992  23.6069978   3.6220014 106.7519992  23.7179978   3.4710014
 107.9879992  24.4629978   3.9290014 107.6016318  23.7380158   3.6428145
 105.3119992  30.9769978  16.6600014 104.9659992  30.5949978  17.4670014
 105.1119992  31.9099978  16.7310014 105.2375987  31.0509002  16.7800461
 108.4089992  25.4739978   5.2830014 109.3009992  25.3359978   5.6020014
 108.4649992  26.2649978   4.7460014 108.5387325  25.5619918   5.2541217
  98.9169992  30.0879978  11.1930014  99.6619992  30.0849978  10.5910014
  98.9949992  29.2639978  11.6740014  99.0293365  29.9762384  11.1757430
 105.9179992  32.2509978   4.4480014 105.6229992  33.0779978   4.8300014
 105.2149992  31.6319978   4.6450014 105.7826379  32.2804171   4.5268654
  95.9249992  28.5479978  16.5080014  96.1479992  28.1299978  17.3390014
  95.3229992  27.9359978  16.0850014  95.8741513  28.4079606  16.5646740
 102.9419992  28.0649978  18.7210014 102.6459992  27.8999978  17.8250014
 103.8729992  27.8449978  18.7100014 103.0274401  28.0126879  18.5970206
 107.5619992  33.4389978  16.6100014 106.6619992  33.6219978  16.3430014
 107.5959992  33.6979978  17.5310014 107.4433748  33.4990554  16.6979164
 113.2939992  25.6829978   4.9780014 112.7389992  25.2869978   4.3050014
 113.3939992  26.5939978   4.7000014 113.2316816  25.7519505   4.8485033
 113.2569992  31.4839978  17.8150014 112.4059992  31.7219978  17.4470014
 113.8469992  31.4669978  17.0620014 113.2203812  31.5142524  17.6628453
 111.5889992  34.4689978   5.4430014 111.2159992  33.6439978   5.7520014
 111.8659992  34.2859978   4.5450014 111.5753463  34.3312569   5.3639525
 108.7489992  29.2769978  12.4640014 107.8209992  29.0459978  12.4370014
 109.1999992  28.4999978  12.1340014 108.6828165  29.1402774  12.4156790
 101.2919992  33.6059978   8.5970014 101.8199992  34.3789978   8.3970014
 100.4119992  33.8299978   8.2950014 101.2453435  33.7422700   8.5287310
  97.0469992  28.4679978   3.1840014  97.6629992  29.0949978   3.5640014
  96.1849992  28.7839978   3.4560014  97.0147678  28.5964412   3.2727209
 102.7199992  31.2689978   8.1730014 102.4789992  32.1939978   8.2150014
 101.9789992  30.8099978   8.5700014 102.5869206  31.3335915   8.2323769
 103.2339992  35.4179978  14.4880014 103.5969992  36.2719978  14.2550014
 103.7659992  35.1259978  15.2290014 103.3555141  35.4953895  14.5562097
 101.4029992  36.2899978   7.7190014 100.4529992  36.3959978   7.7700014
 101.7549992  37.1109978   8.0630014 101.3205472  36.4154923   7.7724852
 106.7779992  31.5169978  14.1890014 106.3529992  31.2889978  15.0150014
 107.3589992  30.7779978  14.0070014 106.7983395  31.3859545  14.2774414
 108.9809992  32.4459978   3.2630014 109.3349992  32.0659978   4.0670014
 108.0329992  32.3519978   3.3500014 108.9012298  32.3812452   3.3848687
 109.4369992  36.0689978  16.6580014 108.8349992  35.5129978  16.1630014
 109.7179992  36.7359978  16.0320014 109.3925757  36.0830744  16.5055675
 113.4849992  36.9249978   3.4640014 114.2289992  37.5109978   3.3240014
 112.7909992  37.4939978   3.7970014 113.4929809  37.0820818   3.4898590
  97.5589992  23.3019978  16.0660014  96.6669992  23.6399978  15.9980014
  97.4609992  22.4459978  16.4840014  97.4234475  23.2326543  16.1131704
 109.8469992  31.1179978   5.4900014 109.5699992  30.3899978   6.0460014
 110.7749992  31.2369978   5.6950014 109.9344499  31.0344213   5.5938044
  97.2109992  35.1059978  14.5010014  97.4279992  34.1739978  14.4700014
  97.4569992  35.3809978  15.3840014  97.2739809  35.0155686  14.6161691
 103.0719992  33.5579978   1.7100014 103.3109992  32.8089978   1.1630014
 102.8029992  33.1699978   2.5430014 103.0683233  33.4031853   1.7477809
 102.0089992  33.1279978   4.1660014 102.1559992  32.6079978   4.9560014
 102.0059992  34.0349978   4.4730014 102.0287102  33.1793953   4.3155925
  98.4619992  30.3799978   4.6770014  97.7759992  30.7329978   5.2440014
  98.9849992  31.1429978   4.4300014  98.4388402  30.5313901   4.7211801
 106.2939992  23.0429978  14.9560014 106.9929992  23.1169978  15.6060014
 105.9129992  22.1779978  15.1100014 106.3382097  22.9362389  15.0657997
 107.0779992  22.6949978   6.0530014 107.2979992  23.1659978   5.2490014
 107.6369992  23.0889978   6.7230014 107.1836731  22.8127287   6.0335033
 104.7469992  34.8249978   4.9160014 103.9299992  35.3219978   4.9680014
 105.2759992  35.3009978   4.2750014 104.7068125  34.9571989   4.8365306
 104.2779992  24.4229978   6.8880014 105.0899992  24.9269978   6.9340014
 104.0339992  24.2779978   7.8020014 104.3561467  24.4723749   7.0178575
 104.8139992  25.4089978  16.0720014 104.9329992  25.9829978  16.8290014
 105.4689992  24.7209978  16.1870014 104.9188684  25.3945194  16.1911674
 105.1619992  21.5039978   7.8260014 104.8149992  22.1209978   8.4700014
 105.8209992  22.0049978   7.3440014 105.2035090  21.6561575   7.8490681
 102.0849992  35.8689978   4.8970014 102.2459992  36.6689978   4.3970014
 101.8879992  36.1759978   5.7820014 102.0803906  36.0198678   4.9482333
 100.8199992  22.5669978   4.5130014 100.7359992  23.4549978   4.8600014
 101.7099992  22.3019978   4.7450014 100.9288163  22.6527179   4.5918596
 111.0179992  23.3159978  16.9070014 110.1019992  23.5779978  16.8200014
 111.3539992  23.3129978  16.0110014 110.9378499  23.3515163  16.7738766
 109.6209992  27.0659978  11.0030014 108.8229992  26.6509978  10.6750014
 110.0659992  26.3759978  11.4940014 109.5719684  26.9158628  11.0245227
  99.0779992  32.9939978   3.5730014  99.6699992  33.6939978   3.8500014
  99.5369992  32.5609978   2.8540014  99.2211652  33.0312675   3.5136533
  97.3939992  25.6589978   2.6890014  97.3489992  26.5979978   2.8680014
  96.5059992  25.4229978   2.4200014  97.2678166  25.7556687   2.6771524
 110.7069992  36.3219978  12.6250014 110.5509992  37.0009978  11.9680014
 111.6399992  36.3939978  12.8280014 110.8117387  36.4246390  12.5625342
  98.2019992  20.4399978  11.3630014  97.9729992  20.4989978  10.4350014
  97.7599992  19.6489978  11.6690014  98.1108801  20.3410540  11.2774729
  97.1329992  34.3809978   7.5230014  96.2999992  34.8529978   7.5500014
  97.6779992  34.8909978   6.9240014  97.0927857  34.5144791   7.4457142
  96.4209992  36.9929978  18.8530014  96.9609992  36.7769978  19.6130014
  95.9399992  36.1879978  18.6630014  96.4299219  36.8545156  18.9314282
 101.0179992  35.9129978  20.4730014 101.7859992  35.4539978  20.8140014
 100.9969992  35.6869978  19.5430014 101.1202135  35.8196668  20.3939491
 105.1099992  35.4209978   1.8490014 104.4659992  34.7899978   2.1700014
 105.8719992  34.8899978   1.6170014 105.1248058  35.2627902   1.8616038
 107.5949992  34.2929978  19.2020014 107.2439992  33.4359978  19.4460014
 108.3209992  34.4349978  19.8090014 107.6451895  34.1951351  19.3173770
 109.7149992  35.2379978   2.0820014 109.9979992  34.4429978   2.5350014
 110.4539992  35.4709978   1.5210014 109.8537096  35.1607049   2.0681104
  96.3279992  30.8039978  19.8070014  96.4719992  29.9019978  19.5210014
  95.5559992  31.0899978  19.3200014  96.2432733  30.7191798  19.7019532
 100.6689992  31.1469978   1.9400014 100.7339992  30.3529978   2.4700014
 101.3219992  31.0289978   1.2500014 100.7661605  31.0223430   1.9192997
 102.9829992  30.7729978  19.2400014 102.6549992  31.0439978  18.3830014
 103.1349992  29.8319978  19.1520014 102.9586412  30.6829046  19.1107822
 106.0219992  32.1939978   1.6760014 105.7529992  32.3749978   2.5760014
 105.8149992  31.2689978   1.5440014 105.9571191  32.0937119   1.7815524
 108.7179992  30.6889978  16.6230014 109.4629992  31.2779978  16.5040014
 107.9609992  31.2709978  16.6870014 108.7175470  30.8482128  16.6153799
  97.1609992  28.0039978  19.2270014  97.5689992  27.1469978  19.1060014
  96.8999992  28.0179978  20.1480014  97.1816016  27.8885119  19.3349192
 101.8189992  29.1199978   4.2460014 101.3589992  28.6359978   4.9310014
 102.0739992  28.4509978   3.6100014 101.7904856  28.9633669   4.2538397
 101.1079992  27.0129978  16.6020014 100.4889992  27.6869978  16.8820014
 101.4519992  27.3339978  15.7680014 101.0697123  27.1486887  16.5276388
 102.8899992  27.3629978   2.5080014 102.7089992  27.2079978   1.5810014
 103.8399992  27.4709978   2.5530014 102.9936566  27.3563669   2.3870929
 106.1269992  29.4839978  19.8790014 107.0809992  29.5679978  19.8520014
 105.9669992  28.7719978  20.4990014 106.2357182  29.3992842  19.9590733
 112.2799992  29.7169978   1.9540014 112.0059992  29.2929978   1.1410014
 112.3189992  30.6489978   1.7370014 112.2477716  29.7848827   1.8134286
 101.4469992  24.3679978  17.6840014 101.5969992  23.6389978  17.0820014
 101.4489992  25.1449978  17.1250014 101.4677967  24.3732708  17.5260541
 101.8599992  22.7369978  15.1770014 102.3949992  23.1889978  14.5250014
 101.0069992  22.6289978  14.7540014 101.8180374  22.7842665  15.0306710
 103.4409992  28.1769978  15.4160014 104.1919992  28.0209978  14.8430014
 103.1019992  29.0289978  15.1410014 103.4979587  28.2708138  15.3004078
 107.8569992  25.9919978  20.4450014 108.0489992  25.0609978  20.3330014
 108.7149992  26.4169978  20.4340014 107.9992182  25.9220070  20.4281862
 109.1739992  28.7809978  18.5220014 108.8919992  29.4899978  17.9440014
 110.1159992  28.7079978  18.3710014 109.2627921  28.8682193  18.4224225
  99.9259992  25.5659978  19.5950014  99.1579992  25.0329978  19.3850014
 100.6039992  25.2559978  18.9960014  99.9127235  25.4511754  19.4852413
 102.6649992  20.1939978  15.6080014 102.5669992  21.1399978  15.5030014
 101.9229992  19.8209978  15.1320014 102.5512534  20.2731773  15.5292600
 103.9289992  24.5149978  19.1720014 103.6939992  24.2959978  20.0730014
 103.1459992  24.3079978  18.6620014 103.7909095  24.4569892  19.2265353
 106.6449992  23.6429978  18.2470014 105.6969992  23.6749978  18.3790014
 106.9569992  23.0169978  18.9010014 106.5575293  23.5627923  18.3534148
 108.2789992  22.2769978  20.2520014 108.1819992  21.3249978  20.2470014
 107.9569992  22.5449978  21.1130014 108.2222468  22.1830884  20.3676210
  98.1059992  23.4859978  19.3000014  98.3179992  22.7799978  18.6900014
  97.9949992  23.0489978  20.1440014  98.1200269  23.3301921  19.3305873
 102.8869992  19.4879978  18.2790014 103.5989992  18.8479978  18.2650014
 102.7859992  19.7539978  17.3660014 102.9707387  19.4364330  18.1535563
 103.2409992  21.1699978  20.3330014 103.1089992  20.6949978  19.5130014
 102.6409992  21.9149978  20.2780014 103.1419070  21.2055789  20.2133251
 102.7869992  38.0529978   3.5090014 103.7199992  38.2109978   3.6530014
 102.5229992  38.7289978   2.8840014 102.8789911  38.1659373   3.4442722
  96.3549992  32.6899978   2.9920014  97.2689992  32.7689978   3.2650014
  96.3629992  32.0029978   2.3260014  96.4810655  32.6079205   2.9392917
  95.0039992  38.0829978   8.0690014  94.3569992  37.6209978   7.5370014
  95.3589992  37.4109978   8.6520014  94.9633741  37.9289774   8.0749175
  95.8739992  36.1629978   9.8740014  95.5399992  35.2829978  10.0460014
  96.0969992  36.5089978  10.7390014  95.8583721  36.0891938  10.0144168
 113.4229992  36.9729978  12.8550014 113.4009992  37.1579978  13.7940014
 114.1129992  37.5409978  12.5140014 113.5133439  37.0751887  12.9374791
 112.9859992  36.5399978  15.7760014 112.4989992  35.8049978  15.4050014
 113.5349992  36.1459978  16.4540014 112.9935247  36.3861057  15.8168461
 111.4369992  32.3299978  20.4150014 110.5709992  32.2249978  20.8090014
 111.8129992  33.0879978  20.8610014 111.3693401  32.4181708  20.5292620
 112.7379992  30.5859978   5.9290014 113.5879992  31.0069978   6.0560014
 112.7429992  29.8459978   6.5360014 112.8551143  30.5436094   6.0284750
 113.1319992  28.6399978   7.7520014 112.4059992  28.1599978   8.1500014
 113.7139992  28.8449978   8.4850014 113.1112730  28.6020184   7.9054149
 112.8909992  31.4249978  12.7000014 113.7249992  31.0469978  12.4190014
 113.0029992  32.3679978  12.5810014 113.0201917  31.5007943  12.6454861
 111.3779992  34.3029978  15.0070014 110.7299992  34.6279978  15.6320014
 110.8599992  33.8619978  14.3330014 111.2194196  34.2878651  15.0014152
 113.4009992  28.5409978   4.1430014 112.8789992  28.8969978   3.4250014
 113.3679992  29.2159978   4.8220014 113.3250129  28.6809598   4.1363355
 111.7499992  25.7799978   2.6940014 111.8459992  26.4469978   2.0140014
 111.6099992  24.9649978   2.2130014 111.7442040  25.7610671   2.5358378
 110.9189992  27.1609978   8.3150014 110.7689992  26.2159978   8.2950014
 110.5649992  27.4419978   9.1590014 110.8506351  27.0696644   8.4263220
  95.9539992  29.2389978  12.3260014  96.1389992  29.1569978  11.3900014
  96.8039992  29.1149978  12.7490014  96.0940928  29.2110463  12.2552893
 111.7749992  29.1309978  17.9540014 112.3579992  28.3959978  18.1460014
 112.3389992  29.9029978  18.0010014 111.9309781  29.1348145  17.9866164
 113.2719992  27.0339978  18.6390014 112.4089992  26.6549978  18.4730014
 113.8759992  26.2949978  18.5640014 113.2356085  26.8823223  18.6061695
 110.9969992  23.1879978   1.8120014 111.6079992  22.8169978   2.4490014
 110.1599992  22.7669978   2.0080014 110.9674947  23.0802756   1.9257252
 110.6299992  24.7429978   6.7780014 110.9089992  23.8359978   6.9020014
 111.3889992  25.1769978   6.3890014 110.7708619  24.6774502   6.7423795
 111.2409992  25.3249978  12.2140014 112.1739992  25.5369978  12.1790014
 111.0059992  25.4259978  13.1360014 111.3369517  25.3676833  12.3339130
 111.2709992  26.0619978  14.9900014 110.4279992  26.3299978  15.3560014
 111.7129992  26.8839978  14.7790014 111.2154138  26.2098273  15.0115518
  95.5519992  24.5089978  18.4660014  96.4709992  24.3869978  18.7030014
  95.1019992  23.7589978  18.8560014  95.6170087  24.3909608  18.5511410
 113.5539992  20.0419978  20.3430014 113.9029992  19.3879978  19.7380014
 113.7009992  20.8789978  19.9030014 113.6216824  20.0656024  20.2006304
 111.2429992  22.0059978   6.8260014 111.4249992  21.5569978   7.6510014
 110.6429992  21.4219978   6.3620014 111.1868187  21.8655552   6.8762739
  96.7729992  22.8219978  11.3580014  97.2179992  22.0299978  11.6600014
  97.2389992  23.5379978  11.7880014  96.8969718  22.8104534  11.4575265
  95.0769992  25.8209978  12.4270014  95.5689992  25.5999978  11.6360014
  95.4389992  26.6609978  12.7080014  95.1932923  25.9043468  12.3567407
 113.0729992  22.1509978  18.6920014 112.1559992  22.4219978  18.6570014
 113.1959992  21.6159978  17.9080014 112.9639672  22.1157885  18.5811862
 113.1099992  22.0739978   3.3540014 113.5219992  21.3529978   2.8790014
 113.7909992  22.7429978   3.4120014 113.2585536  22.0657766   3.2968024
  95.3909992  22.0789978   6.4810014  94.4659992  22.2869978   6.3520014
  95.8449992  22.5629978   5.7910014  95.3256298  22.1729299   6.3700451
 110.1609992  37.0629978   8.4270014 110.8139992  36.7149978   7.8190014
 110.6719992  37.5509978   9.0730014 110.3192777  37.0813815   8.4312047
  95.3539992  20.8169978  14.8250014  94.6889992  20.5709978  15.4680014
  94.9109992  21.4389978  14.2480014  95.2031168  20.8674214  14.8349848
  97.5459992  33.9919978  18.9700014  96.7249992  34.1669978  18.5090014
  97.2939992  33.9189978  19.8900014  97.3995594  34.0060717  19.0313611
 100.4999992  34.9659978  15.2280014 100.0759992  35.7759978  14.9460014
 101.4049992  35.0519978  14.9260014 100.5642138  35.0884160  15.1486415
 104.8119992  36.3649978  18.1880014 104.9959992  36.0319978  19.0660014
 105.6579992  36.6749978  17.8660014 104.9516484  36.3612979  18.2647617
 107.1569992  37.6509978  17.4320014 107.8339992  37.0179978  17.1920014
 107.4779992  38.0519978  18.2390014 107.2931323  37.6185691  17.5083158
 112.0739992  20.2409978  16.5110014 111.2609992  20.5659978  16.1240014
 112.3069992  19.4799978  15.9780014 111.9941347  20.1826880  16.3859841
  97.9019992  38.2229978  15.2760014  97.1819992  38.6629978  14.8250014
  97.5369992  37.9719978  16.1240014  97.7539643  38.2493369  15.3289129
 100.3689992  37.8229978  14.3060014  99.5049992  37.8949978  14.7100014
 100.3139992  38.3699978  13.5220014 100.2431942  37.9067849  14.2554000
 105.0799992  37.7109978  13.4810014 104.6229992  38.2399978  12.8270014
 105.2429992  38.3139978  14.2060014 105.0394960  37.8649280  13.4895274
 107.4079992  36.5889978  14.4260014 106.5029992  36.7539978  14.1600014
 107.8359992  37.4419978  14.3600014 107.3421537  36.7269134  14.3807095
 110.0119992  38.1589978  14.7210014 109.8299992  39.0749978  14.5100014
 110.1889992  37.7479978  13.8740014 110.0110030  38.2288273  14.5777166
  97.3169992  36.8459978  12.1860014  97.2989992  36.4199978  13.0430014
  98.1219992  36.5269978  11.7770014  97.4232875  36.7446435  12.2479515
  99.4579992  35.5559978  10.8410014  99.2389992  34.6389978  11.0110014
 100.2819992  35.6959978  11.3070014  99.5394702  35.4495511  10.9272527
 101.9949992  36.0259978  11.6900014 102.2079992  35.1379978  11.4030014
 102.0599992  35.9909978  12.6440014 102.0329149  35.8998326  11.7797369
 105.5039992  21.6899978  10.8340014 104.8299992  21.0599978  11.0900014
 106.0679992  21.2059978  10.2310014 105.4880384  21.5383708  10.7875020
 110.6469992  19.7969978  10.9470014 111.2499992  20.3449978  10.4450014
 109.7769992  20.1159978  10.7060014 110.6119157  19.9150373  10.8457910
 112.3739992  20.9359978   9.2800014 112.9849992  20.4219978   8.7530014
 112.7559992  21.8129978   9.3030014 112.5093305  20.9842050   9.2109418
  97.8309992  20.3239978   8.6560014  97.0539992  20.0889978   8.1490014
  98.3609992  19.5269978   8.6650014  97.7963451  20.1841268   8.5878627
  96.6669992  20.1219978   4.4600014  97.1059992  20.7329978   3.8680014
  96.0329992  20.6599978   4.9340014  96.6413859  20.2784064   4.4430305
 102.4099992  20.2499978   8.4690014 103.2839992  20.6389978   8.4400014
 102.2739992  20.0349978   9.3920014 102.5111953  20.2741643   8.5897617
 107.9669992  20.2799978  10.1190014 108.0429992  20.3759978   9.1690014
 107.6919992  19.3729978  10.2470014 107.9401871  20.1704146  10.0063944
 109.3199992  20.3059978   5.8110014 108.6169992  20.9209978   5.6010014
 108.8749992  19.4689978   5.9420014 109.1636550  20.2769668   5.7999837
  96.5679992  36.0699978   5.3570014  95.8829992  36.0319978   4.6900014
  96.5719992  36.9829978   5.6450014  96.4747621  36.1881924   5.3046126
  98.5279992  22.0379978   2.9020014  99.0189992  21.4079978   2.3750014
  99.1509992  22.3339978   3.5650014  98.6795304  21.9917376   2.9194940
 103.5539992  22.3309978   5.3590014 103.7319992  21.6839978   6.0420014
 103.4999992  23.1649978   5.8260014 103.5710678  22.3551604   5.5156301
 105.4319992  37.2789978   3.7550014 106.2979992  37.6459978   3.5770014
 105.1859992  36.8399978   2.9410014 105.5172097  37.2698525   3.6206019
 112.1409992  36.8419978   6.4340014 111.9469992  36.0939978   5.8690014
 112.1019992  37.5999978   5.8510014 112.1091645  36.8420786   6.2778148
  97.7879992  20.8379978  18.1740014  97.4219992  20.0719978  18.6160014
  98.7009992  20.8669978  18.4600014  97.8613172  20.7370324  18.2731890
  99.7609992  20.1879978  19.7090014 100.6599992  19.9139978  19.5250014
  99.3749992  19.4459978  20.1740014  99.8317307  20.0502196  19.7467098
  98.3859992  36.9899978   2.3820014  98.1179992  37.2759978   3.2560014
  99.1569992  36.4439978   2.5350014  98.4535926  36.9552779   2.5221205
 108.1829992  19.5209978  19.8920014 108.2589992  19.0949978  20.7450014
 109.0759992  19.5339978  19.5490014 108.3142303  19.4643493  19.9625497
 111.3589992  35.5939978  18.5840014 110.5769992  35.4069978  18.0640014
 111.2869992  36.5229978  18.8010014 111.2421924  35.6940637  18.5421602
 125.7649992  29.4799978   8.6150014 125.8539992  30.4239978   8.4830014
 125.1269992  29.2049978   7.9570014 125.6909062  29.5719812   8.5079641
 124.6979992  28.7349978  12.0340014 124.6599992  28.0889978  12.7390014
 124.3759992  28.2679978  11.2630014 124.6492679  28.5834276  12.0262921
 117.0659992  28.3489978  13.6270014 117.1079992  27.7239978  14.3500014
 117.7689992  28.9729978  13.8090014 117.1667345  28.3477873  13.7505274
 128.4039992  31.6739978  10.3350014 127.9629992  30.9539978  10.7860014
 128.3909992  32.3949978  10.9650014 128.3419215  31.6729291  10.4818105
 117.9899992  32.7989978  12.1620014 117.6199992  31.9969978  11.7920014
 118.9309992  32.6309978  12.2080014 118.0665984  32.6664638  12.1175603
 114.5999992  26.4589978   7.5540014 114.1519992  27.3049978   7.5360014
 114.0389992  25.8799978   7.0390014 114.4628546  26.4963993   7.4818891
 115.3099992  28.6209978   9.6800014 115.5239992  27.8509978  10.2080014
 116.0479992  28.7109978   9.0770014 115.4390200  28.5278586   9.6707035
 125.5159992  36.7779978  10.5470014 126.1349992  36.1019978  10.2740014
 125.3069992  36.5599978  11.4560014 125.5726056  36.6558869  10.6323967
 123.0869992  31.1669978  12.4400014 123.3909992  30.4809978  11.8450014
 123.8089992  31.2859978  13.0580014 123.2261240  31.0892314  12.4420959
 131.7499992  22.7689978  13.3000014 131.7999992  23.3789978  14.0360014
 132.1759992  23.2299978  12.5770014 131.8144108  22.9147709  13.3030112
 126.2279992  25.5609978  12.7670014 126.3709992  24.6149978  12.7870014
 126.1219992  25.7679978  11.8390014 126.2332403  25.4594797  12.6442239
 119.3829992  23.6629978  10.0400014 119.4259992  24.5229978   9.6210014
 118.9249992  23.1109978   9.4060014 119.3269871  23.7059245   9.8970761
 127.1049992  23.7939978   8.4410014 127.7519992  23.4649978   9.0650014
 127.6149992  24.3109978   7.8180014 127.2624351  23.8189067   8.4421037
 116.0029992  26.0599978  10.8020014 116.6569992  25.5099978  11.2340014
 116.0269992  25.7859978   9.8850014 116.0957199  25.9477167  10.7371668
 121.1599992  27.6099978  10.0170014 121.7759992  27.0829978  10.5260014
 120.5729992  26.9699978   9.6130014 121.1650154  27.4513954  10.0320945
 132.1419992  24.2469978  15.5360014 131.4529992  24.9049978  15.4410014
 132.1569992  24.0489978  16.4730014 132.0497756  24.3102603  15.6495812
 118.1929992  22.5809978  14.1140014 117.9739992  23.1109978  13.3470014
 117.5249992  22.8069978  14.7610014 118.0726975  22.6840967  14.0965140
 125.5619992  32.0809978   7.6580014 125.2669992  31.7579978   6.8060014
 125.2379992  32.9809978   7.6990014 125.4778460  32.1584464   7.5469714
 120.7619992  30.2559978  14.4010014 120.0219992  30.8549978  14.5050014
 121.4759992  30.8099978  14.0860014 120.7573500  30.4127829  14.3726371
 128.8689992  23.0849978  10.4210014 128.6539992  22.3189978  10.9540014
 129.5249992  23.5569978  10.9340014 128.9282673  23.0440728  10.5631990
 117.7869992  24.4729978  12.0660014 118.4009992  25.1059978  12.4390014
 118.2989992  24.0009978  11.4100014 117.9401962  24.4957249  12.0282935
 119.1699992  32.2209978  15.1880014 119.1639992  33.0999978  14.8100014
 118.3159992  32.1369978  15.6130014 119.0537925  32.3299535  15.1936887
 115.2909992  31.8919978   5.9700014 115.0189992  32.1209978   5.0820014
 115.3359992  32.7289978   6.4310014 115.2598097  32.0366163   5.9106683
 128.9159992  33.5129978  12.6830014 127.9739992  33.5719978  12.8450014
 129.1919992  34.4189978  12.5460014 128.8245865  33.6435288  12.6866192
 129.2159992  21.7999978  14.1000014 128.4799992  22.4099978  14.0630014
 129.8999992  22.2149978  13.5740014 129.2075367  21.9397551  14.0238174
 122.2199992  19.8859978  11.5660014 122.1019992  18.9379978  11.5120014
 121.3649992  20.2189978  11.8390014 122.0882805  19.8012202  11.5955079
 127.1679992  35.2939978   9.3080014 127.5929992  34.5869978   8.8230014
 127.4849992  36.0959978   8.8910014 127.2690266  35.3055190   9.1852479
 128.3279992  33.1949978   7.8170014 128.0699992  32.5049978   7.2050014
 128.3989992  32.7519978   8.6620014 128.3023050  33.0406814   7.8475621
 130.0139992  31.7619978  16.2940014 130.1529992  31.1699978  15.5550014
 130.1809992  32.6349978  15.9380014 130.0556193  31.7988896  16.1446211
 124.4859992  28.7239978   6.0670014 123.7749992  29.2589978   5.7150014
 125.1769992  28.7789978   5.4070014 124.4820751  28.8046777   5.9295858
 124.5399992  27.1809978   3.1050014 125.2409992  27.2039978   3.7570014
 124.8419992  26.5529978   2.4490014 124.6768202  27.0992212   3.1055609
 131.8549992  28.1019978  14.3600014 131.2029992  28.7959978  14.4490014
 132.3209992  28.3119978  13.5500014 131.8285937  28.2255019  14.2627533
 127.8919992  28.9329978   7.0180014 127.1599992  29.1619978   7.5920014
 128.3389992  28.2199978   7.4730014 127.8523963  28.8678729   7.1579945
 127.7889992  27.1079978  16.0860014 127.8689992  27.8709978  16.6580014
 127.1879992  27.3869978  15.3960014 127.7186547  27.2502457  16.0710047
 119.5369992  29.5639978   8.9010014 119.2069992  29.1929978   8.0830014
 120.1259992  28.8929978   9.2480014 119.5713970  29.4226063   8.8359404
 120.9039992  32.9919978  11.5820014 120.8089992  32.4129978  10.8260014
 121.6329992  32.6209978  12.0780014 120.9896011  32.8625561  11.5456028
 119.9039992  28.3319978  12.5340014 120.4689992  28.4539978  11.7720014
 120.2229992  28.9699978  13.1730014 120.0244166  28.4348791  12.5160348
 126.2129992  33.8359978  13.2680014 125.9729992  34.4979978  13.9160014
 126.0149992  33.0009978  13.6930014 126.1533826  33.8138115  13.4141566
 120.7839992  32.7319978  17.2520014 120.4729992  33.5139978  17.7070014
 120.1339992  32.5789978  16.5660014 120.6535538  32.8184087  17.2215898
 126.7629992  28.0959978   4.7040014 127.3419992  28.2459978   5.4500014
 127.1769992  28.5659978   3.9800014 126.8983358  28.1800954   4.7083953
 117.7039992  28.9299978  16.4800014 117.7739992  29.5809978  17.1790014
 116.8129992  29.0329978  16.1450014 117.5931690  29.0329249  16.5303043
 124.4889992  34.8319978   8.1390014 124.9629992  35.1279978   8.9160014
 123.9259992  35.5709978   7.9060014 124.4777890  34.9723036   8.2138101
 119.0229992  34.8029978  18.0150014 119.0309992  34.6669978  17.0680014
 118.1069992  34.6859978  18.2670014 118.9002528  34.7685463  17.9193243
 130.4619992  19.8459978   4.5170014 129.5619992  19.9849978   4.8120014
 130.7139992  20.6769978   4.1150014 130.3728683  19.9774055   4.5030232
 118.5279992  28.6329978   6.4900014 118.2359992  29.4009978   5.9990014
 117.8529992  27.9739978   6.3270014 118.3968497  28.6489745   6.4008260
 131.6509992  34.2119978   2.8930014 131.7239992  35.1509978   3.0630014
 132.5559992  33.9069978   2.8370014 131.7834170  34.2993282   2.9087063
 114.6209992  30.9959978  15.3050014 114.1189992  30.9679978  14.4900014
 114.6259992  30.0909978  15.6150014 114.5529832  30.8697486  15.2354121
 114.3709992  33.7769978  12.1890014 115.3169992  33.6319978  12.1700014
 114.2579992  34.5609978  12.7260014 114.4853578  33.8631697  12.2590317
 132.5689992  34.4429978  17.8720014 132.5189992  33.4869978  17.8340014
 131.7419992  34.7099978  18.2730014 132.4503831  34.3484680  17.9210121
 123.5469992  34.0169978  16.7480014 123.6349992  34.8429978  17.2230014
 122.6839992  33.6869978  16.9970014 123.4423357  34.0855468  16.8467653
 123.9619992  37.7889978   6.5540014 123.8859992  37.6679978   5.6070014
 123.9939992  38.7379978   6.6720014 123.9559380  37.9007677   6.4405181
 117.6149992  36.5779978   8.3350014 117.7669992  36.2299978   9.2130014
 116.7639992  36.2209978   8.0790014 117.5208344  36.4820879   8.4206868
 127.0629992  36.9429978   3.5560014 127.4379992  36.1989978   3.0850014
 127.0679992  36.6729978   4.4740014 127.1150098  36.8046392   3.6156629
 126.7319992  36.8689978   6.3050014 125.7969992  36.9689978   6.4840014
 127.0119992  36.1589978   6.8840014 126.6419471  36.7867933   6.4076695
 129.7209992  25.9359978  18.3520014 129.3129992  26.4159978  17.6310014
 129.7609992  25.0299978  18.0440014 129.6706221  25.8792449  18.2118267
 116.8699992  32.3199978  16.3480014 117.0859992  31.9579978  17.2080014
 116.0139992  31.9449978  16.1390014 116.7838810  32.2198837  16.4372680
 119.4879992  20.7899978  12.3440014 118.6269992  20.7029978  11.9360014
 119.4659992  21.6459978  12.7720014 119.3670491  20.8938003  12.3459582
 124.1509992  20.5119978  15.7190014 124.5709992  20.0969978  16.4720014
 123.2179992  20.3329978  15.8360014 124.0823736  20.4309910  15.8378968
 127.4779992  24.2669978  16.5720014 126.9639992  24.1419978  17.3700014
 127.3219992  25.1799978  16.3280014 127.3866967  24.3732123  16.6480937
 128.2399992  29.1279978   2.3330014 128.2819992  28.9059978   1.4030014
 129.0889992  29.5269978   2.5230014 128.3605253  29.1515498   2.2313822
 123.8129992  23.0039978   3.0040014 123.5589992  23.0229978   3.9260014
 123.5559992  22.1329978   2.7020014 123.7434508  22.8888280   3.0894803
 119.5789992  25.7549978  13.4390014 118.9379992  25.7149978  14.1480014
 119.6169992  26.6819978  13.2010014 119.4963010  25.8747668  13.5039946
 119.5759992  25.9759978   8.3510014 118.6839992  25.6359978   8.2920014
 120.0269992  25.5989978   7.5950014 119.5147642  25.8784910   8.2407726
 125.1119992  26.3919978   7.1680014 124.7029992  27.2069978   6.8760014
 125.8319992  26.2519978   6.5540014 125.1534439  26.4845372   7.0450115
 124.2139992  26.5679978  18.6560014 123.6509992  25.8629978  18.9770014
 125.0399992  26.4469978  19.1240014 124.2486674  26.4552165  18.7631751
 126.1169992  25.8379978   9.9820014 125.9209992  26.4439978   9.2670014
 126.2979992  25.0049978   9.5480014 126.1146584  25.8082513   9.8254212
 117.3289992  26.0759978  15.3060014 117.2909992  26.4759978  16.1750014
 116.8389992  25.2589978  15.3960014 117.2575330  26.0202674  15.4371289
 120.6949992  23.4499978   2.1050014 120.2639992  23.0049978   2.8340014
 119.9769992  23.8209978   1.5920014 120.5389176  23.4392051   2.1354930
 113.9379992  23.1919978   9.1570014 114.5679992  23.1629978   9.8760014
 114.3869992  22.7669978   8.4260014 114.0850835  23.1305660   9.1567659
 115.2119992  23.9379978   4.5810014 115.6859992  24.5289978   3.9960014
 114.4939992  24.4679978   4.9280014 115.1798640  24.0905511   4.5477969
 125.3809992  27.4759978  14.6530014 125.7039992  26.8449978  14.0100014
 124.9399992  26.9419978  15.3140014 125.3656379  27.3173468  14.6542582
 122.1579992  23.4039978   9.4370014 121.2469992  23.4609978   9.7260014
 122.6629992  23.3439978  10.2480014 122.1016873  23.4036826   9.5861207
 116.9859992  25.0329978   8.2640014 116.0969992  25.1319978   7.9240014
 117.2829992  24.1909978   7.9180014 116.9044177  24.9327687   8.1706940
 120.6389992  25.0329978   5.9210014 121.5709992  25.1619978   6.0990014
 120.4239992  25.7019978   5.2710014 120.7374472  25.1410806   5.8574891
 126.5629992  22.6389978  12.7020014 125.8859992  22.7699978  13.3650014
 126.0779992  22.4839978  11.8910014 126.4047405  22.6359947  12.6832170
 119.3129992  26.2269978   3.4870014 118.7709992  25.8479978   2.7960014
 120.1469992  26.4219978   3.0590014 119.3514390  26.2014079   3.3344392
 129.8509992  38.3099978  18.9780014 130.0499992  38.7339978  18.1440014
 130.5059992  38.6539978  19.5850014 129.9668522  38.4146301  18.9457852
 117.4489992  30.7839978  18.5860014 118.1809992  31.0389978  19.1480014
 116.6679992  30.9889978  19.1020014 117.4436526  30.8465450  18.7325176
 123.4779992  26.1909978  11.3240014 124.0419992  25.6449978  10.7770014
 123.3299992  25.6699978  12.1130014 123.5353037  26.0456787  11.3557229
 118.4799992  22.3279978   7.7430014 118.1629992  21.4249978   7.7070014
 119.2609992  22.3299978   7.1900014 118.5422431  22.2047797   7.6633102
 122.1039992  24.5799978  13.7380014 121.2689992  25.0339978  13.8490014
 122.6279992  24.8559978  14.4900014 122.0606072  24.6793948  13.8548136
 122.6489992  30.7929978   5.4230014 121.9039992  30.2849978   5.1010014
 122.5139992  30.8419978   6.3690014 122.5288963  30.7301731   5.5068826
 129.7989992  29.9259978  14.2100014 130.4399992  30.3819978  13.6660014
 128.9679992  30.0389978  13.7470014 129.7745287  30.0036921  14.0729887
 126.5459992  23.6069978   3.6220014 125.6079992  23.7179978   3.4710014
 126.8439992  24.4629978   3.9290014 126.4576318  23.7380158   3.6428145
 124.1679992  30.9769978  16.6600014 123.8219992  30.5949978  17.4670014
 123.9679992  31.9099978  16.7310014 124.0935987  31.0509002  16.7800461
 127.2649992  25.4739978   5.2830014 128.1569992  25.3359978   5.6020014
 127.3209992  26.2649978   4.7460014 127.3947325  25.5619918   5.2541217
 117.7729992  30.0879978  11.1930014 118.5179992  30.0849978  10.5910014
 117.8509992  29.2639978  11.6740014 117.8853365  29.9762384  11.1757430
 124.7739992  32.2509978   4.4480014 124.4789992  33.0779978   4.8300014
 124.0709992  31.6319978   4.6450014 124.6386379  32.2804171   4.5268654
 114.7809992  28.5479978  16.5080014 115.0039992  28.1299978  17.3390014
 114.1789992  27.9359978  16.0850014 114.7301513  28.4079606  16.5646740
 121.7979992  28.0649978  18.7210014 121.5019992  27.8999978  17.8250014
 122.7289992  27.8449978  18.7100014 121.8834401  28.0126879  18.5970206
 126.4179992  33.4389978  16.6100014 125.5179992  33.6219978  16.3430014
 126.4519992  33.6979978  17.5310014 126.2993748  33.4990554  16.6979164
 132.1499992  25.6829978   4.9780014 131.5949992  25.2869978   4.3050014
 132.2499992  26.5939978   4.7000014 132.0876816  25.7519505   4.8485033
 132.1129992  31.4839978  17.8150014 131.2619992  31.7219978  17.4470014
 132.7029992  31.4669978  17.0620014 132.0763812  31.5142524  17.6628453
 130.4449992  34.4689978   5.4430014 130.0719992  33.6439978   5.7520014
 130.7219992  34.2859978   4.5450014 130.4313463  34.3312569   5.3639525
 127.6049992  29.2769978  12.4640014 126.6769992  29.0459978  12.4370014
 128.0559992  28.4999978  12.1340014 127.5388165  29.1402774  12.4156790
 120.1479992  33.6059978   8.5970014 120.6759992  34.3789978   8.3970014
 119.2679992  33.8299978   8.2950014 120.1013435  33.7422700   8.5287310
 115.9029992  28.4679978   3.1840014 116.5189992  29.0949978   3.5640014
 115.0409992  28.7839978   3.4560014 115.8707678  28.5964412   3.2727209
 121.5759992  31.2689978   8.1730014 121.3349992  32.1939978   8.2150014
 120.8349992  30.8099978   8.5700014 121.4429206  31.3335915   8.2323769
 122.0899992  35.4179978  14.4880014 122.4529992  36.2719978  14.2550014
 122.6219992  35.1259978  15.2290014 122.2115141  35.4953895  14.5562097
 120.2589992  36.2899978   7.7190014 119.3089992  36.3959978   7.7700014
 120.6109992  37.1109978   8.0630014 120.1765472  36.4154923   7.7724852
 125.6339992  31.5169978  14.1890014 125.2089992  31.2889978  15.0150014
 126.2149992  30.7779978  14.0070014 125.6543395  31.3859545  14.2774414
 127.8369992  32.4459978   3.2630014 128.1909992  32.0659978   4.0670014
 126.8889992  32.3519978   3.3500014 127.7572298  32.3812452   3.3848687
 128.2929992  36.0689978  16.6580014 127.6909992  35.5129978  16.1630014
 128.5739992  36.7359978  16.0320014 128.2485757  36.0830744  16.5055675
 132.3409992  36.9249978   3.4640014 133.0849992  37.5109978   3.3240014
 131.6469992  37.4939978   3.7970014 132.3489809  37.0820818   3.4898590
 116.4149992  23.3019978  16.0660014 115.5229992  23.6399978  15.9980014
 116.3169992  22.4459978  16.4840014 116.2794475  23.2326543  16.1131704
 128.7029992  31.1179978   5.4900014 128.4259992  30.3899978   6.0460014
 129.6309992  31.2369978   5.6950014 128.7904499  31.0344213   5.5938044
 116.0669992  35.1059978  14.5010014 116.2839992  34.1739978  14.4700014
 116.3129992  35.3809978  15.3840014 116.1299809  35.0155686  14.6161691
 121.9279992  33.5579978   1.7100014 122.1669992  32.8089978   1.1630014
 121.6589992  33.1699978   2.5430014 121.9243233  33.4031853   1.7477809
 120.8649992  33.1279978   4.1660014 121.0119992  32.6079978   4.9560014
 120.8619992  34.0349978   4.4730014 120.8847102  33.1793953   4.3155925
 117.3179992  30.3799978   4.6770014 116.6319992  30.7329978   5.2440014
 117.8409992  31.1429978   4.4300014 117.2948402  30.5313901   4.7211801
 125.1499992  23.0429978  14.9560014 125.8489992  23.1169978  15.6060014
 124.7689992  22.1779978  15.1100014 125.1942097  22.9362389  15.0657997
 125.9339992  22.6949978   6.0530014 126.1539992  23.1659978   5.2490014
 126.4929992  23.0889978   6.7230014 126.0396731  22.8127287   6.0335033
 123.6029992  34.8249978   4.9160014 122.7859992  35.3219978   4.9680014
 124.1319992  35.3009978   4.2750014 123.5628125  34.9571989   4.8365306
 123.1339992  24.4229978   6.8880014 123.9459992  24.9269978   6.9340014
 122.8899992  24.2779978   7.8020014 123.2121467  24.4723749   7.0178575
 123.6699992  25.4089978  16.0720014 123.7889992  25.9829978  16.8290014
 124.3249992  24.7209978  16.1870014 123.7748684  25.3945194  16.1911674
 124.0179992  21.5039978   7.8260014 123.6709992  22.1209978   8.4700014
 124.6769992  22.0049978   7.3440014 124.0595090  21.6561575   7.8490681
 120.9409992  35.8689978   4.8970014 121.1019992  36.6689978   4.3970014
 120.7439992  36.1759978   5.7820014 120.9363906  36.0198678   4.9482333
 119.6759992  22.5669978   4.5130014 119.5919992  23.4549978   4.8600014
 120.5659992  22.3019978   4.7450014 119.7848163  22.6527179   4.5918596
 129.8739992  23.3159978  16.9070014 128.9579992  23.5779978  16.8200014
 130.2099992  23.3129978  16.0110014 129.7938499  23.3515163  16.7738766
 128.4769992  27.0659978  11.0030014 127.6789992  26.6509978  10.6750014
 128.9219992  26.3759978  11.4940014 128.4279684  26.9158628  11.0245227
 117.9339992  32.9939978   3.5730014 118.5259992  33.6939978   3.8500014
 118.3929992  32.5609978   2.8540014 118.0771652  33.0312675   3.5136533
 116.2499992  25.6589978   2.6890014 116.2049992  26.5979978   2.8680014
 115.3619992  25.4229978   2.4200014 116.1238166  25.7556687   2.6771524
 129.5629992  36.3219978  12.6250014 129.4069992  37.0009978  11.9680014
 130.4959992  36.3939978  12.8280014 129.6677387  36.4246390  12.5625342
 117.0579992  20.4399978  11.3630014 116.8289992  20.4989978  10.4350014
 116.6159992  19.6489978  11.6690014 116.9668801  20.3410540  11.2774729
 115.9889992  34.3809978   7.5230014 115.1559992  34.8529978   7.5500014
 116.5339992  34.8909978   6.9240014 115.9487857  34.5144791   7.4457142
 115.2769992  36.9929978  18.8530014 115.8169992  36.7769978  19.6130014
 114.7959992  36.1879978  18.6630014 115.2859219  36.8545156  18.9314282
 119.8739992  35.9129978  20.4730014 120.6419992  35.4539978  20.8140014
 119.8529992  35.6869978  19.5430014 119.9762135  35.8196668  20.3939491
 123.9659992  35.4209978   1.8490014 123.3219992  34.7899978   2.1700014
 124.7279992  34.8899978   1.6170014 123.9808058  35.2627902   1.8616038
 126.4509992  34.2929978  19.2020014 126.0999992  33.4359978  19.4460014
 127.1769992  34.4349978  19.8090014 126.5011895  34.1951351  19.3173770
 128.5709992  35.2379978   2.0820014 128.8539992  34.4429978   2.5350014
 129.3099992  35.4709978   1.5210014 128.7097096  35.1607049   2.0681104
 115.1839992  30.8039978  19.8070014 115.3279992  29.9019978  19.5210014
 114.4119992  31.0899978  19.3200014 115.0992733  30.7191798  19.7019532
 119.5249992  31.1469978   1.9400014 119.5899992  30.3529978   2.4700014
 120.1779992  31.0289978   1.2500014 119.6221605  31.0223430   1.9192997
 121.8389992  30.7729978  19.2400014 121.5109992  31.0439978  18.3830014
 121.9909992  29.8319978  19.1520014 121.8146412  30.6829046  19.1107822
 124.8779992  32.1939978   1.6760014 124.6089992  32.3749978   2.5760014
 124.6709992  31.2689978   1.5440014 124.8131191  32.0937119   1.7815524
 127.5739992  30.6889978  16.6230014 128.3189992  31.2779978  16.5040014
 126.8169992  31.2709978  16.6870014 127.5735470  30.8482128  16.6153799
 116.0169992  28.0039978  19.2270014 116.4249992  27.1469978  19.1060014
 115.7559992  28.0179978  20.1480014 116.0376016  27.8885119  19.3349192
 120.6749992  29.1199978   4.2460014 120.2149992  28.6359978   4.9310014
 120.9299992  28.4509978   3.6100014 120.6464856  28.9633669   4.2538397
 119.9639992  27.0129978  16.6020014 119.3449992  27.6869978  16.8820014
 120.3079992  27.3339978  15.7680014 119.9257123  27.1486887  16.5276388
 121.7459992  27.3629978   2.5080014 121.5649992  27.2079978   1.5810014
 122.6959992  27.4709978   2.5530014 121.8496566  27.3563669   2.3870929
 124.9829992  29.4839978  19.8790014 125.9369992  29.5679978  19.8520014
 124.8229992  28.7719978  20.4990014 125.0917182  29.3992842  19.9590733
 131.1359992  29.7169978   1.9540014 130.8619992  29.2929978   1.1410014
 131.1749992  30.6489978   1.7370014 131.1037716  29.7848827   1.8134286
 120.3029992  24.3679978  17.6840014 120.4529992  23.6389978  17.0820014
 120.3049992  25.1449978  17.1250014 120.3237967  24.3732708  17.5260541
 120.7159992  22.7369978  15.1770014 121.2509992  23.1889978  14.5250014
 119.8629992  22.6289978  14.7540014 120.6740374  22.7842665  15.0306710
 122.2969992  28.1769978  15.4160014 123.0479992  28.0209978  14.8430014
 121.9579992  29.0289978  15.1410014 122.3539587  28.2708138  15.3004078
 126.7129992  25.9919978  20.4450014 126.9049992  25.0609978  20.3330014
 127.5709992  26.4169978  20.4340014 126.8552182  25.9220070  20.4281862
 128.0299992  28.7809978  18.5220014 127.7479992  29.4899978  17.9440014
 128.9719992  28.7079978  18.3710014 128.1187921  28.8682193  18.4224225
 118.7819992  25.5659978  19.5950014 118.0139992  25.0329978  19.3850014
 119.4599992  25.2559978  18.9960014 118.7687235  25.4511754  19.4852413
 121.5209992  20.1939978  15.6080014 121.4229992  21.1399978  15.5030014
 120.7789992  19.8209978  15.1320014 121.4072534  20.2731773  15.5292600
 122.7849992  24.5149978  19.1720014 122.5499992  24.2959978  20.0730014
 122.0019992  24.3079978  18.6620014 122.6469095  24.4569892  19.2265353
 125.5009992  23.6429978  18.2470014 124.5529992  23.6749978  18.3790014
 125.8129992  23.0169978  18.9010014 125.4135293  23.5627923  18.3534148
 127.1349992  22.2769978  20.2520014 127.0379992  21.3249978  20.2470014
 126.8129992  22.5449978  21.1130014 127.0782468  22.1830884  20.3676210
 116.9619992  23.4859978  19.3000014 117.1739992  22.7799978  18.6900014
 116.8509992  23.0489978  20.1440014 116.9760269  23.3301921  19.3305873
 121.7429992  19.4879978  18.2790014 122.4549992  18.8479978  18.2650014
 121.6419992  19.7539978  17.3660014 121.8267387  19.4364330  18.1535563
 122.0969992  21.1699978  20.3330014 121.9649992  20.6949978  19.5130014
 121.4969992  21.9149978  20.2780014 121.9979070  21.2055789  20.2133251
 121.6429992  38.0529978   3.5090014 122.5759992  38.2109978   3.6530014
 121.3789992  38.7289978   2.8840014 121.7349911  38.1659373   3.4442722
 115.2109992  32.6899978   2.9920014 116.1249992  32.7689978   3.2650014
 115.2189992  32.0029978   2.3260014 115.3370655  32.6079205   2.9392917
 113.8599992  38.0829978   8.0690014 113.2129992  37.6209978   7.5370014
 114.2149992  37.4109978   8.6520014 113.8193741  37.9289774   8.0749175
 114.7299992  36.1629978   9.8740014 114.3959992  35.2829978  10.0460014
 114.9529992  36.5089978  10.7390014 114.7143721  36.0891938  10.0144168
 132.2789992  36.9729978  12.8550014 132.2569992  37.1579978  13.7940014
 132.9689992  37.5409978  12.5140014 132.3693439  37.0751887  12.9374791
 131.8419992  36.5399978  15.7760014 131.3549992  35.8049978  15.4050014
 132.3909992  36.1459978  16.4540014 131.8495247  36.3861057  15.8168461
 130.2929992  32.3299978  20.4150014 129.4269992  32.2249978  20.8090014
 130.6689992  33.0879978  20.8610014 130.2253401  32.4181708  20.5292620
 131.5939992  30.5859978   5.9290014 132.4439992  31.0069978   6.0560014
 131.5989992  29.8459978   6.5360014 131.7111143  30.5436094   6.0284750
 131.9879992  28.6399978   7.7520014 131.2619992  28.1599978   8.1500014
 132.5699992  28.8449978   8.4850014 131.9672730  28.6020184   7.9054149
 131.7469992  31.4249978  12.7000014 132.5809992  31.0469978  12.4190014
 131.8589992  32.3679978  12.5810014 131.8761917  31.5007943  12.6454861
 130.2339992  34.3029978  15.0070014 129.5859992  34.6279978  15.6320014
 129.7159992  33.8619978  14.3330014 130.0754196  34.2878651  15.0014152
 132.2569992  28.5409978   4.1430014 131.7349992  28.8969978   3.4250014
 132.2239992  29.2159978   4.8220014 132.1810129  28.6809598   4.1363355
 130.6059992  25.7799978   2.6940014 130.7019992  26.4469978   2.0140014
 130.4659992  24.9649978   2.2130014 130.6002040  25.7610671   2.5358378
 129.7749992  27.1609978   8.3150014 129.6249992  26.2159978   8.2950014
 129.4209992  27.4419978   9.1590014 129.7066351  27.0696644   8.4263220
 114.8099992  29.2389978  12.3260014 114.9949992  29.1569978  11.3900014
 115.6599992  29.1149978  12.7490014 114.9500928  29.2110463  12.2552893
 130.6309992  29.1309978  17.9540014 131.2139992  28.3959978  18.1460014
 131.1949992  29.9029978  18.0010014 130.7869781  29.1348145  17.9866164
 132.1279992  27.0339978  18.6390014 131.2649992  26.6549978  18.4730014
 132.7319992  26.2949978  18.5640014 132.0916085  26.8823223  18.6061695
 129.8529992  23.1879978   1.8120014 130.4639992  22.8169978   2.4490014
 129.0159992  22.7669978   2.0080014 129.8234947  23.0802756   1.9257252
 129.4859992  24.7429978   6.7780014 129.7649992  23.8359978   6.9020014
 130.2449992  25.1769978   6.3890014 129.6268619  24.6774502   6.7423795
 130.0969992  25.3249978  12.2140014 131.0299992  25.5369978  12.1790014
 129.8619992  25.4259978  13.1360014 130.1929517  25.3676833  12.3339130
 130.1269992  26.0619978  14.9900014 129.2839992  26.3299978  15.3560014
 130.5689992  26.8839978  14.7790014 130.0714138  26.2098273  15.0115518
 114.4079992  24.5089978  18.4660014 115.3269992  24.3869978  18.7030014
 113.9579992  23.7589978  18.8560014 114.4730087  24.3909608  18.5511410
 132.4099992  20.0419978  20.3430014 132.7589992  19.3879978  19.7380014
 132.5569992  20.8789978  19.9030014 132.4776824  20.0656024  20.2006304
 130.0989992  22.0059978   6.8260014 130.2809992  21.5569978   7.6510014
 129.4989992  21.4219978   6.3620014 130.0428187  21.8655552   6.8762739
 115.6289992  22.8219978  11.3580014 116.0739992  22.0299978  11.6600014
 116.0949992  23.5379978  11.7880014 115.7529718  22.8104534  11.4575265
 113.9329992  25.8209978  12.4270014 114.4249992  25.5999978  11.6360014
 114.2949992  26.6609978  12.7080014 114.0492923  25.9043468  12.3567407
 131.9289992  22.1509978  18.6920014 131.0119992  22.4219978  18.6570014
 132.0519992  21.6159978  17.9080014 131.8199672  22.1157885  18.5811862
 131.9659992  22.0739978   3.3540014 132.3779992  21.3529978   2.8790014
 132.6469992  22.7429978   3.4120014 132.1145536  22.0657766   3.2968024
 114.2469992  22.0789978   6.4810014 113.3219992  22.2869978   6.3520014
 114.7009992  22.5629978   5.7910014 114.1816298  22.1729299   6.3700451
 129.0169992  37.0629978   8.4270014 129.6699992  36.7149978   7.8190014
 129.5279992  37.5509978   9.0730014 129.1752777  37.0813815   8.4312047
 114.2099992  20.8169978  14.8250014 113.5449992  20.5709978  15.4680014
 113.7669992  21.4389978  14.2480014 114.0591168  20.8674214  14.8349848
 116.4019992  33.9919978  18.9700014 115.5809992  34.1669978  18.5090014
 116.1499992  33.9189978  19.8900014 116.2555594  34.0060717  19.0313611
 119.3559992  34.9659978  15.2280014 118.9319992  35.7759978  14.9460014
 120.2609992  35.0519978  14.9260014 119.4202138  35.0884160  15.1486415
 123.6679992  36.3649978  18.1880014 123.8519992  36.0319978  19.0660014
 124.5139992  36.6749978  17.8660014 123.8076484  36.3612979  18.2647617
 126.0129992  37.6509978  17.4320014 126.6899992  37.0179978  17.1920014
 126.3339992  38.0519978  18.2390014 126.1491323  37.6185691  17.5083158
 130.9299992  20.2409978  16.5110014 130.1169992  20.5659978  16.1240014
 131.1629992  19.4799978  15.9780014 130.8501347  20.1826880  16.3859841
 116.7579992  38.2229978  15.2760014 116.0379992  38.6629978  14.8250014
 116.3929992  37.9719978  16.1240014 116.6099643  38.2493369  15.3289129
 119.2249992  37.8229978  14.3060014 118.3609992  37.8949978  14.7100014
 119.1699992  38.3699978  13.5220014 119.0991942  37.9067849  14.2554000
 123.9359992  37.7109978  13.4810014 123.4789992  38.2399978  12.8270014
 124.0989992  38.3139978  14.2060014 123.8954960  37.8649280  13.4895274
 126.2639992  36.5889978  14.4260014 125.3589992  36.7539978  14.1600014
 126.6919992  37.4419978  14.3600014 126.1981537  36.7269134  14.3807095
 128.8679992  38.1589978  14.7210014 128.6859992  39.0749978  14.5100014
 129.0449992  37.7479978  13.8740014 128.8670030  38.2288273  14.5777166
 116.1729992  36.8459978  12.1860014 116.1549992  36.4199978  13.0430014
 116.9779992  36.5269978  11.7770014 116.2792875  36.7446435  12.2479515
 118.3139992  35.5559978  10.8410014 118.0949992  34.6389978  11.0110014
 119.1379992  35.6959978  11.3070014 118.3954702  35.4495511  10.9272527
 120.8509992  36.0259978  11.6900014 121.0639992  35.1379978  11.4030014
 120.9159992  35.9909978  12.6440014 120.8889149  35.8998326  11.7797369
 124.3599992  21.6899978  10.8340014 123.6859992  21.0599978  11.0900014
 124.9239992  21.2059978  10.2310014 124.3440384  21.5383708  10.7875020
 129.5029992  19.7969978  10.9470014 130.1059992  20.3449978  10.4450014
 128.6329992  20.1159978  10.7060014 129.4679157  19.9150373  10.8457910
 131.2299992  20.9359978   9.2800014 131.8409992  20.4219978   8.7530014
 131.6119992  21.8129978   9.3030014 131.3653305  20.9842050   9.2109418
 116.6869992  20.3239978   8.6560014 115.9099992  20.0889978   8.1490014
 117.2169992  19.5269978   8.6650014 116.6523451  20.1841268   8.5878627
 115.5229992  20.1219978   4.4600014 115.9619992  20.7329978   3.8680014
 114.8889992  20.6599978   4.9340014 115.4973859  20.2784064   4.4430305
 121.2659992  20.2499978   8.4690014 122.1399992  20.6389978   8.4400014
 121.1299992  20.0349978   9.3920014 121.3671953  20.2741643   8.5897617
 126.8229992  20.2799978  10.1190014 126.8989992  20.3759978   9.1690014
 126.5479992  19.3729978  10.2470014 126.7961871  20.1704146  10.0063944
 128.1759992  20.3059978   5.8110014 127.4729992  20.9209978   5.6010014
 127.7309992  19.4689978   5.9420014 128.0196550  20.2769668   5.7999837
 115.4239992  36.0699978   5.3570014 114.7389992  36.0319978   4.6900014
 115.4279992  36.9829978   5.6450014 115.3307621  36.1881924   5.3046126
 117.3839992  22.0379978   2.9020014 117.8749992  21.4079978   2.3750014
 118.0069992  22.3339978   3.5650014 117.5355304  21.9917376   2.9194940
 122.4099992  22.3309978   5.3590014 122.5879992  21.6839978   6.0420014
 122.3559992  23.1649978   5.8260014 122.4270678  22.3551604   5.5156301
 124.2879992  37.2789978   3.7550014 125.1539992  37.6459978   3.5770014
 124.0419992  36.8399978   2.9410014 124.3732097  37.2698525   3.6206019
 130.9969992  36.8419978   6.4340014 130.8029992  36.0939978   5.8690014
 130.9579992  37.5999978   5.8510014 130.9651645  36.8420786   6.2778148
 116.6439992  20.8379978  18.1740014 116.2779992  20.0719978  18.6160014
 117.5569992  20.8669978  18.4600014 116.7173172  20.7370324  18.2731890
 118.6169992  20.1879978  19.7090014 119.5159992  19.9139978  19.5250014
 118.2309992  19.4459978  20.1740014 118.6877307  20.0502196  19.7467098
 117.2419992  36.9899978   2.3820014 116.9739992  37.2759978   3.2560014
 118.0129992  36.4439978   2.5350014 117.3095926  36.9552779   2.5221205
 127.0389992  19.5209978  19.8920014 127.1149992  19.0949978  20.7450014
 127.9319992  19.5339978  19.5490014 127.1702303  19.4643493  19.9625497
 130.2149992  35.5939978  18.5840014 129.4329992  35.4069978  18.0640014
 130.1429992  36.5229978  18.8010014 130.0981924  35.6940637  18.5421602
 144.6209992  29.4799978   8.6150014 144.7099992  30.4239978   8.4830014
 143.9829992  29.2049978   7.9570014 144.5469061  29.5719812   8.5079641
 143.5539992  28.7349978  12.0340014 143.5159992  28.0889978  12.7390014
 143.2319992  28.2679978  11.2630014 143.5052679  28.5834276  12.0262921
 135.9219992  28.3489978  13.6270014 135.9639992  27.7239978  14.3500014
 136.6249992  28.9729978  13.8090014 136.0227345  28.3477873  13.7505274
 136.8459992  32.7989978  12.1620014 136.4759992  31.9969978  11.7920014
 137.7869992  32.6309978  12.2080014 136.9225984  32.6664638  12.1175603
 133.4559992  26.4589978   7.5540014 133.0079992  27.3049978   7.5360014
 132.8949992  25.8799978   7.0390014 133.3188546  26.4963993   7.4818891
 134.1659992  28.6209978   9.6800014 134.3799992  27.8509978  10.2080014
 134.9039992  28.7109978   9.0770014 134.2950200  28.5278586   9.6707035
 144.3719992  36.7779978  10.5470014 144.9909992  36.1019978  10.2740014
 144.1629992  36.5599978  11.4560014 144.4286056  36.6558869  10.6323967
 141.9429992  31.1669978  12.4400014 142.2469992  30.4809978  11.8450014
 142.6649992  31.2859978  13.0580014 142.0821240  31.0892314  12.4420959
 145.0839992  25.5609978  12.7670014 145.2269992  24.6149978  12.7870014
 144.9779992  25.7679978  11.8390014 145.0892403  25.4594797  12.6442239
 138.2389992  23.6629978  10.0400014 138.2819992  24.5229978   9.6210014
 137.7809992  23.1109978   9.4060014 138.1829871  23.7059245   9.8970761
 134.8589992  26.0599978  10.8020014 135.5129992  25.5099978  11.2340014
 134.8829992  25.7859978   9.8850014 134.9517199  25.9477167  10.7371668
 140.0159992  27.6099978  10.0170014 140.6319992  27.0829978  10.5260014
 139.4289992  26.9699978   9.6130014 140.0210154  27.4513954  10.0320945
 137.0489992  22.5809978  14.1140014 136.8299992  23.1109978  13.3470014
 136.3809992  22.8069978  14.7610014 136.9286975  22.6840967  14.0965140
 144.4179992  32.0809978   7.6580014 144.1229992  31.7579978   6.8060014
 144.0939992  32.9809978   7.6990014 144.3338460  32.1584464   7.5469714
 139.6179992  30.2559978  14.4010014 138.8779992  30.8549978  14.5050014
 140.3319992  30.8099978  14.0860014 139.6133500  30.4127829  14.3726371
 136.6429992  24.4729978  12.0660014 137.2569992  25.1059978  12.4390014
 137.1549992  24.0009978  11.4100014 136.7961962  24.4957249  12.0282935
 138.0259992  32.2209978  15.1880014 138.0199992  33.0999978  14.8100014
 137.1719992  32.1369978  15.6130014 137.9097925  32.3299535  15.1936887
 134.1469992  31.8919978   5.9700014 133.8749992  32.1209978   5.0820014
 134.1919992  32.7289978   6.4310014 134.1158097  32.0366163   5.9106683
 141.0759992  19.8859978  11.5660014 140.9579992  18.9379978  11.5120014
 140.2209992  20.2189978  11.8390014 140.9442805  19.8012202  11.5955079
 143.3419992  28.7239978   6.0670014 142.6309992  29.2589978   5.7150014
 144.0329992  28.7789978   5.4070014 143.3380751  28.8046777   5.9295858
 143.3959992  27.1809978   3.1050014 144.0969992  27.2039978   3.7570014
 143.6979992  26.5529978   2.4490014 143.5328202  27.0992212   3.1055609
 138.3929992  29.5639978   8.9010014 138.0629992  29.1929978   8.0830014
 138.9819992  28.8929978   9.2480014 138.4273970  29.4226063   8.8359404
 139.7599992  32.9919978  11.5820014 139.6649992  32.4129978  10.8260014
 140.4889992  32.6209978  12.0780014 139.8456011  32.8625561  11.5456028
 138.7599992  28.3319978  12.5340014 139.3249992  28.4539978  11.7720014
 139.0789992  28.9699978  13.1730014 138.8804166  28.4348791  12.5160348
 145.0689992  33.8359978  13.2680014 144.8289992  34.4979978  13.9160014
 144.8709992  33.0009978  13.6930014 145.0093826  33.8138115  13.4141566
 139.6399992  32.7319978  17.2520014 139.3289992  33.5139978  17.7070014
 138.9899992  32.5789978  16.5660014 139.5095538  32.8184087  17.2215898
 136.5599992  28.9299978  16.4800014 136.6299992  29.5809978  17.1790014
 135.6689992  29.0329978  16.1450014 136.4491690  29.0329249  16.5303043
 143.3449992  34.8319978   8.1390014 143.8189992  35.1279978   8.9160014
 142.7819992  35.5709978   7.9060014 143.3337890  34.9723036   8.2138101
 137.8789992  34.8029978  18.0150014 137.8869992  34.6669978  17.0680014
 136.9629992  34.6859978  18.2670014 137.7562528  34.7685463  17.9193243
 137.3839992  28.6329978   6.4900014 137.0919992  29.4009978   5.9990014
 136.7089992  27.9739978   6.3270014 137.2528497  28.6489745   6.4008260
 133.4769992  30.9959978  15.3050014 132.9749992  30.9679978  14.4900014
 133.4819992  30.0909978  15.6150014 133.4089832  30.8697486  15.2354121
 133.2269992  33.7769978  12.1890014 134.1729992  33.6319978  12.1700014
 133.1139992  34.5609978  12.7260014 133.3413578  33.8631697  12.2590317
 142.4029992  34.0169978  16.7480014 142.4909992  34.8429978  17.2230014
 141.5399992  33.6869978  16.9970014 142.2983357  34.0855468  16.8467653
 142.8179992  37.7889978   6.5540014 142.7419992  37.6679978   5.6070014
 142.8499992  38.7379978   6.6720014 142.8119380  37.9007677   6.4405181
 136.4709992  36.5779978   8.3350014 136.6229992  36.2299978   9.2130014
 135.6199992  36.2209978   8.0790014 136.3768344  36.4820879   8.4206868
 135.7259992  32.3199978  16.3480014 135.9419992  31.9579978  17.2080014
 134.8699992  31.9449978  16.1390014 135.6398810  32.2198837  16.4372680
 138.3439992  20.7899978  12.3440014 137.4829992  20.7029978  11.9360014
 138.3219992  21.6459978  12.7720014 138.2230491  20.8938003  12.3459582
 143.0069992  20.5119978  15.7190014 143.4269992  20.0969978  16.4720014
 142.0739992  20.3329978  15.8360014 142.9383736  20.4309910  15.8378968
 142.6689992  23.0039978   3.0040014 142.4149992  23.0229978   3.9260014
 142.4119992  22.1329978   2.7020014 142.5994508  22.8888280   3.0894803
 138.4349992  25.7549978  13.4390014 137.7939992  25.7149978  14.1480014
 138.4729992  26.6819978  13.2010014 138.3523010  25.8747668  13.5039946
 138.4319992  25.9759978   8.3510014 137.5399992  25.6359978   8.2920014
 138.8829992  25.5989978   7.5950014 138.3707642  25.8784910   8.2407726
 143.9679992  26.3919978   7.1680014 143.5589992  27.2069978   6.8760014
 144.6879992  26.2519978   6.5540014 144.0094439  26.4845372   7.0450115
 143.0699992  26.5679978  18.6560014 142.5069992  25.8629978  18.9770014
 143.8959992  26.4469978  19.1240014 143.1046674  26.4552165  18.7631751
 144.9729992  25.8379978   9.9820014 144.7769992  26.4439978   9.2670014
 145.1539992  25.0049978   9.5480014 144.9706584  25.8082513   9.8254212
 136.1849992  26.0759978  15.3060014 136.1469992  26.4759978  16.1750014
 135.6949992  25.2589978  15.3960014 136.1135330  26.0202674  15.4371289
 139.5509992  23.4499978   2.1050014 139.1199992  23.0049978   2.8340014
 138.8329992  23.8209978   1.5920014 139.3949176  23.4392051   2.1354930
 132.7939992  23.1919978   9.1570014 133.4239992  23.1629978   9.8760014
 133.2429992  22.7669978   8.4260014 132.9410835  23.1305660   9.1567659
 134.0679992  23.9379978   4.5810014 134.5419992  24.5289978   3.9960014
 133.3499992  24.4679978   4.9280014 134.0358640  24.0905511   4.5477969
 144.2369992  27.4759978  14.6530014 144.5599992  26.8449978  14.0100014
 143.7959992  26.9419978  15.3140014 144.2216379  27.3173468  14.6542582
 141.0139992  23.4039978   9.4370014 140.1029992  23.4609978   9.7260014
 141.5189992  23.3439978  10.2480014 140.9576873  23.4036826   9.5861207
 135.8419992  25.0329978   8.2640014 134.9529992  25.1319978   7.9240014
 136.1389992  24.1909978   7.9180014 135.7604177  24.9327687   8.1706940
 139.4949992  25.0329978   5.9210014 140.4269992  25.1619978   6.0990014
 139.2799992  25.7019978   5.2710014 139.5934472  25.1410806   5.8574891
 145.4189992  22.6389978  12.7020014 144.7419992  22.7699978  13.3650014
 144.9339992  22.4839978  11.8910014 145.2607405  22.6359947  12.6832170
 138.1689992  26.2269978   3.4870014 137.6269992  25.8479978   2.7960014
 139.0029992  26.4219978   3.0590014 138.2074390  26.2014079   3.3344392
 136.3049992  30.7839978  18.5860014 137.0369992  31.0389978  19.1480014
 135.5239992  30.9889978  19.1020014 136.2996526  30.8465450  18.7325176
 142.3339992  26.1909978  11.3240014 142.8979992  25.6449978  10.7770014
 142.1859992  25.6699978  12.1130014 142.3913037  26.0456787  11.3557229
 137.3359992  22.3279978   7.7430014 137.0189992  21.4249978   7.7070014
 138.1169992  22.3299978   7.1900014 137.3982431  22.2047797   7.6633102
 140.9599992  24.5799978  13.7380014 140.1249992  25.0339978  13.8490014
 141.4839992  24.8559978  14.4900014 140.9166072  24.6793948  13.8548136
 141.5049992  30.7929978   5.4230014 140.7599992  30.2849978   5.1010014
 141.3699992  30.8419978   6.3690014 141.3848963  30.7301731   5.5068826
 145.4019992  23.6069978   3.6220014 144.4639992  23.7179978   3.4710014
 145.6999992  24.4629978   3.9290014 145.3136318  23.7380158   3.6428145
 143.0239992  30.9769978  16.6600014 142.6779992  30.5949978  17.4670014
 142.8239992  31.9099978  16.7310014 142.9495987  31.0509002  16.7800461
 136.6289992  30.0879978  11.1930014 137.3739992  30.0849978  10.5910014
 136.7069992  29.2639978  11.6740014 136.7413365  29.9762384  11.1757430
 143.6299992  32.2509978   4.4480014 143.3349992  33.0779978   4.8300014
 142.9269992  31.6319978   4.6450014 143.4946379  32.2804171   4.5268654
 133.6369992  28.5479978  16.5080014 133.8599992  28.1299978  17.3390014
 133.0349992  27.9359978  16.0850014 133.5861513  28.4079606  16.5646740
 140.6539992  28.0649978  18.7210014 140.3579992  27.8999978  17.8250014
 141.5849992  27.8449978  18.7100014 140.7394401  28.0126879  18.5970206
 145.2739992  33.4389978  16.6100014 144.3739992  33.6219978  16.3430014
 145.3079992  33.6979978  17.5310014 145.1553748  33.4990554  16.6979164
 139.0039992  33.6059978   8.5970014 139.5319992  34.3789978   8.3970014
 138.1239992  33.8299978   8.2950014 138.9573435  33.7422700   8.5287310
 134.7589992  28.4679978   3.1840014 135.3749992  29.0949978   3.5640014
 133.8969992  28.7839978   3.4560014 134.7267678  28.5964412   3.2727209
 140.4319992  31.2689978   8.1730014 140.1909992  32.1939978   8.2150014
 139.6909992  30.8099978   8.5700014 140.2989206  31.3335915   8.2323769
 140.9459992  35.4179978  14.4880014 141.3089992  36.2719978  14.2550014
 141.4779992  35.1259978  15.2290014 141.0675141  35.4953895  14.5562097
 139.1149992  36.2899978   7.7190014 138.1649992  36.3959978   7.7700014
 139.4669992  37.1109978   8.0630014 139.0325472  36.4154923   7.7724852
 144.4899992  31.5169978  14.1890014 144.0649992  31.2889978  15.0150014
 145.0709992  30.7779978  14.0070014 144.5103395  31.3859545  14.2774414
 135.2709992  23.3019978  16.0660014 134.3789992  23.6399978  15.9980014
 135.1729992  22.4459978  16.4840014 135.1354475  23.2326543  16.1131704
 134.9229992  35.1059978  14.5010014 135.1399992  34.1739978  14.4700014
 135.1689992  35.3809978  15.3840014 134.9859809  35.0155686  14.6161691
 140.7839992  33.5579978   1.7100014 141.0229992  32.8089978   1.1630014
 140.5149992  33.1699978   2.5430014 140.7803233  33.4031853   1.7477809
 139.7209992  33.1279978   4.1660014 139.8679992  32.6079978   4.9560014
 139.7179992  34.0349978   4.4730014 139.7407102  33.1793953   4.3155925
 136.1739992  30.3799978   4.6770014 135.4879992  30.7329978   5.2440014
 136.6969992  31.1429978   4.4300014 136.1508402  30.5313901   4.7211801
 144.0059992  23.0429978  14.9560014 144.7049992  23.1169978  15.6060014
 143.6249992  22.1779978  15.1100014 144.0502097  22.9362389  15.0657997
 144.7899992  22.6949978   6.0530014 145.0099992  23.1659978   5.2490014
 145.3489992  23.0889978   6.7230014 144.8956731  22.8127287   6.0335033
 142.4589992  34.8249978   4.9160014 141.6419992  35.3219978   4.9680014
 142.9879992  35.3009978   4.2750014 142.4188125  34.9571989   4.8365306
 141.9899992  24.4229978   6.8880014 142.8019992  24.9269978   6.9340014
 141.7459992  24.2779978   7.8020014 142.0681467  24.4723749   7.0178575
 142.5259992  25.4089978  16.0720014 142.6449992  25.9829978  16.8290014
 143.1809992  24.7209978  16.1870014 142.6308684  25.3945194  16.1911674
 142.8739992  21.5039978   7.8260014 142.5269992  22.1209978   8.4700014
 143.5329992  22.0049978   7.3440014 142.9155090  21.6561575   7.8490681
 139.7969992  35.8689978   4.8970014 139.9579992  36.6689978   4.3970014
 139.5999992  36.1759978   5.7820014 139.7923906  36.0198678   4.9482333
 138.5319992  22.5669978   4.5130014 138.4479992  23.4549978   4.8600014
 139.4219992  22.3019978   4.7450014 138.6408163  22.6527179   4.5918596
 136.7899992  32.9939978   3.5730014 137.3819992  33.6939978   3.8500014
 137.2489992  32.5609978   2.8540014 136.9331652  33.0312675   3.5136533
 135.1059992  25.6589978   2.6890014 135.0609992  26.5979978   2.8680014
 134.2179992  25.4229978   2.4200014 134.9798166  25.7556687   2.6771524
 135.9139992  20.4399978  11.3630014 135.6849992  20.4989978  10.4350014
 135.4719992  19.6489978  11.6690014 135.8228801  20.3410540  11.2774729
 134.8449992  34.3809978   7.5230014 134.0119992  34.8529978   7.5500014
 135.3899992  34.8909978   6.9240014 134.8047857  34.5144791   7.4457142
 134.1329992  36.9929978  18.8530014 134.6729992  36.7769978  19.6130014
 133.6519992  36.1879978  18.6630014 134.1419219  36.8545156  18.9314282
 138.7299992  35.9129978  20.4730014 139.4979992  35.4539978  20.8140014
 138.7089992  35.6869978  19.5430014 138.8322135  35.8196668  20.3939491
 142.8219992  35.4209978   1.8490014 142.1779992  34.7899978   2.1700014
 143.5839992  34.8899978   1.6170014 142.8368058  35.2627902   1.8616038
 145.3069992  34.2929978  19.2020014 144.9559992  33.4359978  19.4460014
 146.0329992  34.4349978  19.8090014 145.3571895  34.1951351  19.3173770
 134.0399992  30.8039978  19.8070014 134.1839992  29.9019978  19.5210014
 133.2679992  31.0899978  19.3200014 133.9552733  30.7191798  19.7019532
 138.3809992  31.1469978   1.9400014 138.4459992  30.3529978   2.4700014
 139.0339992  31.0289978   1.2500014 138.4781605  31.0223430   1.9192997
 140.6949992  30.7729978  19.2400014 140.3669992  31.0439978  18.3830014
 140.8469992  29.8319978  19.1520014 140.6706412  30.6829046  19.1107822
 143.7339992  32.1939978   1.6760014 143.4649992  32.3749978   2.5760014
 143.5269992  31.2689978   1.5440014 143.6691191  32.0937119   1.7815524
 134.8729992  28.0039978  19.2270014 135.2809992  27.1469978  19.1060014
 134.6119992  28.0179978  20.1480014 134.8936016  27.8885119  19.3349192
 139.5309992  29.1199978   4.2460014 139.0709992  28.6359978   4.9310014
 139.7859992  28.4509978   3.6100014 139.5024856  28.9633669   4.2538397
 138.8199992  27.0129978  16.6020014 138.2009992  27.6869978  16.8820014
 139.1639992  27.3339978  15.7680014 138.7817123  27.1486887  16.5276388
 140.6019992  27.3629978   2.5080014 140.4209992  27.2079978   1.5810014
 141.5519992  27.4709978   2.5530014 140.7056566  27.3563669   2.3870929
 143.8389992  29.4839978  19.8790014 144.7929992  29.5679978  19.8520014
 143.6789992  28.7719978  20.4990014 143.9477182  29.3992842  19.9590733
 139.1589992  24.3679978  17.6840014 139.3089992  23.6389978  17.0820014
 139.1609992  25.1449978  17.1250014 139.1797967  24.3732708  17.5260541
 139.5719992  22.7369978  15.1770014 140.1069992  23.1889978  14.5250014
 138.7189992  22.6289978  14.7540014 139.5300374  22.7842665  15.0306710
 141.1529992  28.1769978  15.4160014 141.9039992  28.0209978  14.8430014
 140.8139992  29.0289978  15.1410014 141.2099587  28.2708138  15.3004078
 145.5689992  25.9919978  20.4450014 145.7609992  25.0609978  20.3330014
 146.4269992  26.4169978  20.4340014 145.7112182  25.9220070  20.4281862
 137.6379992  25.5659978  19.5950014 136.8699992  25.0329978  19.3850014
 138.3159992  25.2559978  18.9960014 137.6247235  25.4511754  19.4852413
 140.3769992  20.1939978  15.6080014 140.2789992  21.1399978  15.5030014
 139.6349992  19.8209978  15.1320014 140.2632534  20.2731773  15.5292600
 141.6409992  24.5149978  19.1720014 141.4059992  24.2959978  20.0730014
 140.8579992  24.3079978  18.6620014 141.5029095  24.4569892  19.2265353
 144.3569992  23.6429978  18.2470014 143.4089992  23.6749978  18.3790014
 144.6689992  23.0169978  18.9010014 144.2695293  23.5627923  18.3534148
 135.8179992  23.4859978  19.3000014 136.0299992  22.7799978  18.6900014
 135.7069992  23.0489978  20.1440014 135.8320269  23.3301921  19.3305873
 140.5989992  19.4879978  18.2790014 141.3109992  18.8479978  18.2650014
 140.4979992  19.7539978  17.3660014 140.6827387  19.4364330  18.1535563
 140.9529992  21.1699978  20.3330014 140.8209992  20.6949978  19.5130014
 140.3529992  21.9149978  20.2780014 140.8539070  21.2055789  20.2133251
 140.4989992  38.0529978   3.5090014 141.4319992  38.2109978   3.6530014
 140.2349992  38.7289978   2.8840014 140.5909911  38.1659373   3.4442722
 134.0669992  32.6899978   2.9920014 134.9809992  32.7689978   3.2650014
 134.0749992  32.0029978   2.3260014 134.1930655  32.6079205   2.9392917
 132.7159992  38.0829978   8.0690014 132.0689992  37.6209978   7.5370014
 133.0709992  37.4109978   8.6520014 132.6753741  37.9289774   8.0749175
 133.5859992  36.1629978   9.8740014 133.2519992  35.2829978  10.0460014
 133.8089992  36.5089978  10.7390014 133.5703721  36.0891938  10.0144168
 133.6659992  29.2389978  12.3260014 133.8509992  29.1569978  11.3900014
 134.5159992  29.1149978  12.7490014 133.8060928  29.2110463  12.2552893
 133.2639992  24.5089978  18.4660014 134.1829992  24.3869978  18.7030014
 132.8139992  23.7589978  18.8560014 133.3290087  24.3909608  18.5511410
 134.4849992  22.8219978  11.3580014 134.9299992  22.0299978  11.6600014
 134.9509992  23.5379978  11.7880014 134.6089718  22.8104534  11.4575265
 132.7889992  25.8209978  12.4270014 133.2809992  25.5999978  11.6360014
 133.1509992  26.6609978  12.7080014 132.9052923  25.9043468  12.3567407
 133.1029992  22.0789978   6.4810014 132.1779992  22.2869978   6.3520014
 133.5569992  22.5629978   5.7910014 133.0376298  22.1729299   6.3700451
 133.0659992  20.8169978  14.8250014 132.4009992  20.5709978  15.4680014
 132.6229992  21.4389978  14.2480014 132.9151168  20.8674214  14.8349848
 135.2579992  33.9919978  18.9700014 134.4369992  34.1669978  18.5090014
 135.0059992  33.9189978  19.8900014 135.1115594  34.0060717  19.0313611
 138.2119992  34.9659978  15.2280014 137.7879992  35.7759978  14.9460014
 139.1169992  35.0519978  14.9260014 138.2762138  35.0884160  15.1486415
 142.5239992  36.3649978  18.1880014 142.7079992  36.0319978  19.0660014
 143.3699992  36.6749978  17.8660014 142.6636484  36.3612979  18.2647617
 144.8689992  37.6509978  17.4320014 145.5459992  37.0179978  17.1920014
 145.1899992  38.0519978  18.2390014 145.0051323  37.6185691  17.5083158
 135.6139992  38.2229978  15.2760014 134.8939992  38.6629978  14.8250014
 135.2489992  37.9719978  16.1240014 135.4659643  38.2493369  15.3289129
 138.0809992  37.8229978  14.3060014 137.2169992  37.8949978  14.7100014
 138.0259992  38.3699978  13.5220014 137.9551942  37.9067849  14.2554000
 142.7919992  37.7109978  13.4810014 142.3349992  38.2399978  12.8270014
 142.9549992  38.3139978  14.2060014 142.7514960  37.8649280  13.4895274
 145.1199992  36.5889978  14.4260014 144.2149992  36.7539978  14.1600014
 145.5479992  37.4419978  14.3600014 145.0541537  36.7269134  14.3807095
 135.0289992  36.8459978  12.1860014 135.0109992  36.4199978  13.0430014
 135.8339992  36.5269978  11.7770014 135.1352875  36.7446435  12.2479515
 137.1699992  35.5559978  10.8410014 136.9509992  34.6389978  11.0110014
 137.9939992  35.6959978  11.3070014 137.2514702  35.4495511  10.9272527
 139.7069992  36.0259978  11.6900014 139.9199992  35.1379978  11.4030014
 139.7719992  35.9909978  12.6440014 139.7449149  35.8998326  11.7797369
 143.2159992  21.6899978  10.8340014 142.5419992  21.0599978  11.0900014
 143.7799992  21.2059978  10.2310014 143.2000384  21.5383708  10.7875020
 135.5429992  20.3239978   8.6560014 134.7659992  20.0889978   8.1490014
 136.0729992  19.5269978   8.6650014 135.5083451  20.1841268   8.5878627
 134.3789992  20.1219978   4.4600014 134.8179992  20.7329978   3.8680014
 133.7449992  20.6599978   4.9340014 134.3533859  20.2784064   4.4430305
 140.1219992  20.2499978   8.4690014 140.9959992  20.6389978   8.4400014
 139.9859992  20.0349978   9.3920014 140.2231953  20.2741643   8.5897617
 134.2799992  36.0699978   5.3570014 133.5949992  36.0319978   4.6900014
 134.2839992  36.9829978   5.6450014 134.1867621  36.1881924   5.3046126
 136.2399992  22.0379978   2.9020014 136.7309992  21.4079978   2.3750014
 136.8629992  22.3339978   3.5650014 136.3915304  21.9917376   2.9194940
 141.2659992  22.3309978   5.3590014 141.4439992  21.6839978   6.0420014
 141.2119992  23.1649978   5.8260014 141.2830678  22.3551604   5.5156301
 143.1439992  37.2789978   3.7550014 144.0099992  37.6459978   3.5770014
 142.8979992  36.8399978   2.9410014 143.2292097  37.2698525   3.6206019
 135.4999992  20.8379978  18.1740014 135.1339992  20.0719978  18.6160014
 136.4129992  20.8669978  18.4600014 135.5733172  20.7370324  18.2731890
 137.4729992  20.1879978  19.7090014 138.3719992  19.9139978  19.5250014
 137.0869992  19.4459978  20.1740014 137.5437307  20.0502196  19.7467098
 136.0979992  36.9899978   2.3820014 135.8299992  37.2759978   3.2560014
 136.8689992  36.4439978   2.5350014 136.1655926  36.9552779   2.5221205
  12.6289992  48.3359978   8.6150014  12.7179992  49.2799978   8.4830014
  11.9909992  48.0609978   7.9570014  12.5549062  48.4279812   8.5079641
  11.5619992  47.5909978  12.0340014  11.5239992  46.9449978  12.7390014
  11.2399992  47.1239978  11.2630014  11.5132679  47.4394276  12.0262921
   3.9299992  47.2049978  13.6270014   3.9719992  46.5799978  14.3500014
   4.6329992  47.8289978  13.8090014   4.0307345  47.2037873  13.7505274
  15.2679992  50.5299978  10.3350014  14.8269992  49.8099978  10.7860014
  15.2549992  51.2509978  10.9650014  15.2059215  50.5289291  10.4818105
   4.8539992  51.6549978  12.1620014   4.4839992  50.8529978  11.7920014
   5.7949992  51.4869978  12.2080014   4.9305984  51.5224638  12.1175603
   1.4639992  45.3149978   7.5540014   1.0159992  46.1609978   7.5360014
   0.9029992  44.7359978   7.0390014   1.3268546  45.3523993   7.4818891
   2.1739992  47.4769978   9.6800014   2.3879992  46.7069978  10.2080014
   2.9119992  47.5669978   9.0770014   2.3030200  47.3838587   9.6707035
  12.3799992  55.6339978  10.5470014  12.9989992  54.9579978  10.2740014
  12.1709992  55.4159978  11.4560014  12.4366056  55.5118869  10.6323967
   9.9509992  50.0229978  12.4400014  10.2549992  49.3369978  11.8450014
  10.6729992  50.1419978  13.0580014  10.0901240  49.9452314  12.4420959
  18.6139992  41.6249978  13.3000014  18.6639992  42.2349978  14.0360014
  19.0399992  42.0859978  12.5770014  18.6784108  41.7707709  13.3030112
  13.0919992  44.4169978  12.7670014  13.2349992  43.4709978  12.7870014
  12.9859992  44.6239978  11.8390014  13.0972403  44.3154797  12.6442239
   6.2469992  42.5189978  10.0400014   6.2899992  43.3789978   9.6210014
   5.7889992  41.9669978   9.4060014   6.1909871  42.5619245   9.8970761
  13.9689992  42.6499978   8.4410014  14.6159992  42.3209978   9.0650014
  14.4789992  43.1669978   7.8180014  14.1264351  42.6749067   8.4421037
   2.8669992  44.9159978  10.8020014   3.5209992  44.3659978  11.2340014
   2.8909992  44.6419978   9.8850014   2.9597199  44.8037167  10.7371668
   8.0239992  46.4659978  10.0170014   8.6399992  45.9389978  10.5260014
   7.4369992  45.8259978   9.6130014   8.0290154  46.3073954  10.0320945
  19.0059992  43.1029978  15.5360014  18.3169992  43.7609978  15.4410014
  19.0209992  42.9049978  16.4730014  18.9137756  43.1662603  15.6495812
   5.0569992  41.4369978  14.1140014   4.8379992  41.9669978  13.3470014
   4.3889992  41.6629978  14.7610014   4.9366975  41.5400967  14.0965140
  12.4259992  50.9369978   7.6580014  12.1309992  50.6139978   6.8060014
  12.1019992  51.8369978   7.6990014  12.3418460  51.0144464   7.5469714
   7.6259992  49.1119978  14.4010014   6.8859992  49.7109978  14.5050014
   8.3399992  49.6659978  14.0860014   7.6213500  49.2687829  14.3726371
  15.7329992  41.9409978  10.4210014  15.5179992  41.1749978  10.9540014
  16.3889992  42.4129978  10.9340014  15.7922673  41.9000728  10.5631990
   4.6509992  43.3289978  12.0660014   5.2649992  43.9619978  12.4390014
   5.1629992  42.8569978  11.4100014   4.8041962  43.3517249  12.0282935
   6.0339992  51.0769978  15.1880014   6.0279992  51.9559978  14.8100014
   5.1799992  50.9929978  15.6130014   5.9177925  51.1859535  15.1936887
   2.1549992  50.7479978   5.9700014   1.8829992  50.9769978   5.0820014
   2.1999992  51.5849978   6.4310014   2.1238097  50.8926163   5.9106683
  15.7799992  52.3689978  12.6830014  14.8379992  52.4279978  12.8450014
  16.0559992  53.2749978  12.5460014  15.6885865  52.4995288  12.6866192
  16.0799992  40.6559978  14.1000014  15.3439992  41.2659978  14.0630014
  16.7639992  41.0709978  13.5740014  16.0715367  40.7957551  14.0238174
   9.0839992  38.7419978  11.5660014   8.9659992  37.7939978  11.5120014
   8.2289992  39.0749978  11.8390014   8.9522805  38.6572202  11.5955079
  14.0319992  54.1499978   9.3080014  14.4569992  53.4429978   8.8230014
  14.3489992  54.9519978   8.8910014  14.1330266  54.1615190   9.1852479
  15.1919992  52.0509978   7.8170014  14.9339992  51.3609978   7.2050014
  15.2629992  51.6079978   8.6620014  15.1663050  51.8966814   7.8475621
  16.8779992  50.6179978  16.2940014  17.0169992  50.0259978  15.5550014
  17.0449992  51.4909978  15.9380014  16.9196193  50.6548896  16.1446211
  11.3499992  47.5799978   6.0670014  10.6389992  48.1149978   5.7150014
  12.0409992  47.6349978   5.4070014  11.3460751  47.6606777   5.9295858
  11.4039992  46.0369978   3.1050014  12.1049992  46.0599978   3.7570014
  11.7059992  45.4089978   2.4490014  11.5408202  45.9552212   3.1055609
  18.7189992  46.9579978  14.3600014  18.0669992  47.6519978  14.4490014
  19.1849992  47.1679978  13.5500014  18.6925937  47.0815019  14.2627533
  14.7559992  47.7889978   7.0180014  14.0239992  48.0179978   7.5920014
  15.2029992  47.0759978   7.4730014  14.7163963  47.7238729   7.1579945
  14.6529992  45.9639978  16.0860014  14.7329992  46.7269978  16.6580014
  14.0519992  46.2429978  15.3960014  14.5826547  46.1062457  16.0710047
   6.4009992  48.4199978   8.9010014   6.0709992  48.0489978   8.0830014
   6.9899992  47.7489978   9.2480014   6.4353970  48.2786063   8.8359404
   7.7679992  51.8479978  11.5820014   7.6729992  51.2689978  10.8260014
   8.4969992  51.4769978  12.0780014   7.8536011  51.7185561  11.5456028
   6.7679992  47.1879978  12.5340014   7.3329992  47.3099978  11.7720014
   7.0869992  47.8259978  13.1730014   6.8884166  47.2908791  12.5160348
  13.0769992  52.6919978  13.2680014  12.8369992  53.3539978  13.9160014
  12.8789992  51.8569978  13.6930014  13.0173826  52.6698115  13.4141566
   7.6479992  51.5879978  17.2520014   7.3369992  52.3699978  17.7070014
   6.9979992  51.4349978  16.5660014   7.5175538  51.6744087  17.2215898
  13.6269992  46.9519978   4.7040014  14.2059992  47.1019978   5.4500014
  14.0409992  47.4219978   3.9800014  13.7623358  47.0360954   4.7083953
   4.5679992  47.7859978  16.4800014   4.6379992  48.4369978  17.1790014
   3.6769992  47.8889978  16.1450014   4.4571690  47.8889249  16.5303043
  11.3529992  53.6879978   8.1390014  11.8269992  53.9839978   8.9160014
  10.7899992  54.4269978   7.9060014  11.3417890  53.8283036   8.2138101
   5.8869992  53.6589978  18.0150014   5.8949992  53.5229978  17.0680014
   4.9709992  53.5419978  18.2670014   5.7642528  53.6245463  17.9193243
  17.3259992  38.7019978   4.5170014  16.4259992  38.8409978   4.8120014
  17.5779992  39.5329978   4.1150014  17.2368683  38.8334055   4.5030232
   5.3919992  47.4889978   6.4900014   5.0999992  48.2569978   5.9990014
   4.7169992  46.8299978   6.3270014   5.2608497  47.5049745   6.4008260
  18.5149992  53.0679978   2.8930014  18.5879992  54.0069978   3.0630014
  19.4199992  52.7629978   2.8370014  18.6474170  53.1553282   2.9087063
   1.4849992  49.8519978  15.3050014   0.9829992  49.8239978  14.4900014
   1.4899992  48.9469978  15.6150014   1.4169832  49.7257486  15.2354121
   1.2349992  52.6329978  12.1890014   2.1809992  52.4879978  12.1700014
   1.1219992  53.4169978  12.7260014   1.3493578  52.7191697  12.2590317
  19.4329992  53.2989978  17.8720014  19.3829992  52.3429978  17.8340014
  18.6059992  53.5659978  18.2730014  19.3143831  53.2044680  17.9210121
  10.4109992  52.8729978  16.7480014  10.4989992  53.6989978  17.2230014
   9.5479992  52.5429978  16.9970014  10.3063357  52.9415468  16.8467653
  10.8259992  56.6449978   6.5540014  10.7499992  56.5239978   5.6070014
  10.8579992  57.5939978   6.6720014  10.8199380  56.7567677   6.4405181
   4.4789992  55.4339978   8.3350014   4.6309992  55.0859978   9.2130014
   3.6279992  55.0769978   8.0790014   4.3848344  55.3380879   8.4206868
  13.9269992  55.7989978   3.5560014  14.3019992  55.0549978   3.0850014
  13.9319992  55.5289978   4.4740014  13.9790098  55.6606392   3.6156629
  13.5959992  55.7249978   6.3050014  12.6609992  55.8249978   6.4840014
  13.8759992  55.0149978   6.8840014  13.5059471  55.6427933   6.4076695
  16.5849992  44.7919978  18.3520014  16.1769992  45.2719978  17.6310014
  16.6249992  43.8859978  18.0440014  16.5346221  44.7352449  18.2118267
   3.7339992  51.1759978  16.3480014   3.9499992  50.8139978  17.2080014
   2.8779992  50.8009978  16.1390014   3.6478810  51.0758837  16.4372680
   6.3519992  39.6459978  12.3440014   5.4909992  39.5589978  11.9360014
   6.3299992  40.5019978  12.7720014   6.2310491  39.7498003  12.3459582
  11.0149992  39.3679978  15.7190014  11.4349992  38.9529978  16.4720014
  10.0819992  39.1889978  15.8360014  10.9463736  39.2869910  15.8378968
  14.3419992  43.1229978  16.5720014  13.8279992  42.9979978  17.3700014
  14.1859992  44.0359978  16.3280014  14.2506967  43.2292123  16.6480937
  15.1039992  47.9839978   2.3330014  15.1459992  47.7619978   1.4030014
  15.9529992  48.3829978   2.5230014  15.2245253  48.0075498   2.2313822
  10.6769992  41.8599978   3.0040014  10.4229992  41.8789978   3.9260014
  10.4199992  40.9889978   2.7020014  10.6074508  41.7448280   3.0894803
   6.4429992  44.6109978  13.4390014   5.8019992  44.5709978  14.1480014
   6.4809992  45.5379978  13.2010014   6.3603010  44.7307668  13.5039946
   6.4399992  44.8319978   8.3510014   5.5479992  44.4919978   8.2920014
   6.8909992  44.4549978   7.5950014   6.3787642  44.7344910   8.2407726
  11.9759992  45.2479978   7.1680014  11.5669992  46.0629978   6.8760014
  12.6959992  45.1079978   6.5540014  12.0174439  45.3405372   7.0450115
  11.0779992  45.4239978  18.6560014  10.5149992  44.7189978  18.9770014
  11.9039992  45.3029978  19.1240014  11.1126674  45.3112165  18.7631751
  12.9809992  44.6939978   9.9820014  12.7849992  45.2999978   9.2670014
  13.1619992  43.8609978   9.5480014  12.9786584  44.6642513   9.8254212
   4.1929992  44.9319978  15.3060014   4.1549992  45.3319978  16.1750014
   3.7029992  44.1149978  15.3960014   4.1215330  44.8762674  15.4371289
   7.5589992  42.3059978   2.1050014   7.1279992  41.8609978   2.8340014
   6.8409992  42.6769978   1.5920014   7.4029176  42.2952051   2.1354930
   0.8019992  42.0479978   9.1570014   1.4319992  42.0189978   9.8760014
   1.2509992  41.6229978   8.4260014   0.9490835  41.9865660   9.1567659
   2.0759992  42.7939978   4.5810014   2.5499992  43.3849978   3.9960014
   1.3579992  43.3239978   4.9280014   2.0438640  42.9465511   4.5477969
  12.2449992  46.3319978  14.6530014  12.5679992  45.7009978  14.0100014
  11.8039992  45.7979978  15.3140014  12.2296379  46.1733468  14.6542582
   9.0219992  42.2599978   9.4370014   8.1109992  42.3169978   9.7260014
   9.5269992  42.1999978  10.2480014   8.9656873  42.2596826   9.5861207
   3.8499992  43.8889978   8.2640014   2.9609992  43.9879978   7.9240014
   4.1469992  43.0469978   7.9180014   3.7684177  43.7887687   8.1706940
   7.5029992  43.8889978   5.9210014   8.4349992  44.0179978   6.0990014
   7.2879992  44.5579978   5.2710014   7.6014472  43.9970806   5.8574891
  13.4269992  41.4949978  12.7020014  12.7499992  41.6259978  13.3650014
  12.9419992  41.3399978  11.8910014  13.2687405  41.4919947  12.6832170
   6.1769992  45.0829978   3.4870014   5.6349992  44.7039978   2.7960014
   7.0109992  45.2779978   3.0590014   6.2154390  45.0574079   3.3344392
  16.7149992  57.1659978  18.9780014  16.9139992  57.5899978  18.1440014
  17.3699992  57.5099978  19.5850014  16.8308522  57.2706301  18.9457852
   4.3129992  49.6399978  18.5860014   5.0449992  49.8949978  19.1480014
   3.5319992  49.8449978  19.1020014   4.3076526  49.7025450  18.7325176
  10.3419992  45.0469978  11.3240014  10.9059992  44.5009978  10.7770014
  10.1939992  44.5259978  12.1130014  10.3993037  44.9016787  11.3557229
   5.3439992  41.1839978   7.7430014   5.0269992  40.2809978   7.7070014
   6.1249992  41.1859978   7.1900014   5.4062431  41.0607797   7.6633102
   8.9679992  43.4359978  13.7380014   8.1329992  43.8899978  13.8490014
   9.4919992  43.7119978  14.4900014   8.9246072  43.5353948  13.8548136
   9.5129992  49.6489978   5.4230014   8.7679992  49.1409978   5.1010014
   9.3779992  49.6979978   6.3690014   9.3928963  49.5861731   5.5068826
  16.6629992  48.7819978  14.2100014  17.3039992  49.2379978  13.6660014
  15.8319992  48.8949978  13.7470014  16.6385287  48.8596921  14.0729887
  13.4099992  42.4629978   3.6220014  12.4719992  42.5739978   3.4710014
  13.7079992  43.3189978   3.9290014  13.3216318  42.5940158   3.6428145
  11.0319992  49.8329978  16.6600014  10.6859992  49.4509978  17.4670014
  10.8319992  50.7659978  16.7310014  10.9575987  49.9069002  16.7800461
  14.1289992  44.3299978   5.2830014  15.0209992  44.1919978   5.6020014
  14.1849992  45.1209978   4.7460014  14.2587325  44.4179918   5.2541217
   4.6369992  48.9439978  11.1930014   5.3819992  48.9409978  10.5910014
   4.7149992  48.1199978  11.6740014   4.7493365  48.8322384  11.1757430
  11.6379992  51.1069978   4.4480014  11.3429992  51.9339978   4.8300014
  10.9349992  50.4879978   4.6450014  11.5026379  51.1364171   4.5268654
   1.6449992  47.4039978  16.5080014   1.8679992  46.9859978  17.3390014
   1.0429992  46.7919978  16.0850014   1.5941513  47.2639606  16.5646740
   8.6619992  46.9209978  18.7210014   8.3659992  46.7559978  17.8250014
   9.5929992  46.7009978  18.7100014   8.7474401  46.8686879  18.5970206
  13.2819992  52.2949978  16.6100014  12.3819992  52.4779978  16.3430014
  13.3159992  52.5539978  17.5310014  13.1633748  52.3550554  16.6979164
  19.0139992  44.5389978   4.9780014  18.4589992  44.1429978   4.3050014
  19.1139992  45.4499978   4.7000014  18.9516816  44.6079505   4.8485033
  18.9769992  50.3399978  17.8150014  18.1259992  50.5779978  17.4470014
  19.5669992  50.3229978  17.0620014  18.9403812  50.3702524  17.6628453
  17.3089992  53.3249978   5.4430014  16.9359992  52.4999978   5.7520014
  17.5859992  53.1419978   4.5450014  17.2953463  53.1872569   5.3639525
  14.4689992  48.1329978  12.4640014  13.5409992  47.9019978  12.4370014
  14.9199992  47.3559978  12.1340014  14.4028165  47.9962774  12.4156790
   7.0119992  52.4619978   8.5970014   7.5399992  53.2349978   8.3970014
   6.1319992  52.6859978   8.2950014   6.9653435  52.5982700   8.5287310
   2.7669992  47.3239978   3.1840014   3.3829992  47.9509978   3.5640014
   1.9049992  47.6399978   3.4560014   2.7347678  47.4524412   3.2727209
   8.4399992  50.1249978   8.1730014   8.1989992  51.0499978   8.2150014
   7.6989992  49.6659978   8.5700014   8.3069206  50.1895915   8.2323769
   8.9539992  54.2739978  14.4880014   9.3169992  55.1279978  14.2550014
   9.4859992  53.9819978  15.2290014   9.0755141  54.3513895  14.5562097
   7.1229992  55.1459978   7.7190014   6.1729992  55.2519978   7.7700014
   7.4749992  55.9669978   8.0630014   7.0405472  55.2714923   7.7724852
  12.4979992  50.3729978  14.1890014  12.0729992  50.1449978  15.0150014
  13.0789992  49.6339978  14.0070014  12.5183395  50.2419545  14.2774414
  14.7009992  51.3019978   3.2630014  15.0549992  50.9219978   4.0670014
  13.7529992  51.2079978   3.3500014  14.6212298  51.2372452   3.3848687
  15.1569992  54.9249978  16.6580014  14.5549992  54.3689978  16.1630014
  15.4379992  55.5919978  16.0320014  15.1125757  54.9390744  16.5055675
  19.2049992  55.7809978   3.4640014  19.9489992  56.3669978   3.3240014
  18.5109992  56.3499978   3.7970014  19.2129809  55.9380818   3.4898590
   3.2789992  42.1579978  16.0660014   2.3869992  42.4959978  15.9980014
   3.1809992  41.3019978  16.4840014   3.1434475  42.0886543  16.1131704
  15.5669992  49.9739978   5.4900014  15.2899992  49.2459978   6.0460014
  16.4949992  50.0929978   5.6950014  15.6544499  49.8904213   5.5938044
   2.9309992  53.9619978  14.5010014   3.1479992  53.0299978  14.4700014
   3.1769992  54.2369978  15.3840014   2.9939809  53.8715686  14.6161691
   8.7919992  52.4139978   1.7100014   9.0309992  51.6649978   1.1630014
   8.5229992  52.0259978   2.5430014   8.7883233  52.2591853   1.7477809
   7.7289992  51.9839978   4.1660014   7.8759992  51.4639978   4.9560014
   7.7259992  52.8909978   4.4730014   7.7487102  52.0353953   4.3155925
   4.1819992  49.2359978   4.6770014   3.4959992  49.5889978   5.2440014
   4.7049992  49.9989978   4.4300014   4.1588402  49.3873901   4.7211801
  12.0139992  41.8989978  14.9560014  12.7129992  41.9729978  15.6060014
  11.6329992  41.0339978  15.1100014  12.0582097  41.7922389  15.0657997
  12.7979992  41.5509978   6.0530014  13.0179992  42.0219978   5.2490014
  13.3569992  41.9449978   6.7230014  12.9036731  41.6687287   6.0335033
  10.4669992  53.6809978   4.9160014   9.6499992  54.1779978   4.9680014
  10.9959992  54.1569978   4.2750014  10.4268125  53.8131989   4.8365306
   9.9979992  43.2789978   6.8880014  10.8099992  43.7829978   6.9340014
   9.7539992  43.1339978   7.8020014  10.0761467  43.3283749   7.0178575
  10.5339992  44.2649978  16.0720014  10.6529992  44.8389978  16.8290014
  11.1889992  43.5769978  16.1870014  10.6388684  44.2505194  16.1911674
  10.8819992  40.3599978   7.8260014  10.5349992  40.9769978   8.4700014
  11.5409992  40.8609978   7.3440014  10.9235090  40.5121575   7.8490681
   7.8049992  54.7249978   4.8970014   7.9659992  55.5249978   4.3970014
   7.6079992  55.0319978   5.7820014   7.8003906  54.8758678   4.9482333
   6.5399992  41.4229978   4.5130014   6.4559992  42.3109978   4.8600014
   7.4299992  41.1579978   4.7450014   6.6488163  41.5087179   4.5918596
  16.7379992  42.1719978  16.9070014  15.8219992  42.4339978  16.8200014
  17.0739992  42.1689978  16.0110014  16.6578499  42.2075163  16.7738766
  15.3409992  45.9219978  11.0030014  14.5429992  45.5069978  10.6750014
  15.7859992  45.2319978  11.4940014  15.2919684  45.7718628  11.0245227
   4.7979992  51.8499978   3.5730014   5.3899992  52.5499978   3.8500014
   5.2569992  51.4169978   2.8540014   4.9411652  51.8872675   3.5136533
   3.1139992  44.5149978   2.6890014   3.0689992  45.4539978   2.8680014
   2.2259992  44.2789978   2.4200014   2.9878166  44.6116687   2.6771524
  16.4269992  55.1779978  12.6250014  16.2709992  55.8569978  11.9680014
  17.3599992  55.2499978  12.8280014  16.5317387  55.2806390  12.5625342
   3.9219992  39.2959978  11.3630014   3.6929992  39.3549978  10.4350014
   3.4799992  38.5049978  11.6690014   3.8308801  39.1970540  11.2774729
   2.8529992  53.2369978   7.5230014   2.0199992  53.7089978   7.5500014
   3.3979992  53.7469978   6.9240014   2.8127857  53.3704791   7.4457142
   2.1409992  55.8489978  18.8530014   2.6809992  55.6329978  19.6130014
   1.6599992  55.0439978  18.6630014   2.1499219  55.7105156  18.9314282
   6.7379992  54.7689978  20.4730014   7.5059992  54.3099978  20.8140014
   6.7169992  54.5429978  19.5430014   6.8402135  54.6756668  20.3939491
  10.8299992  54.2769978   1.8490014  10.1859992  53.6459978   2.1700014
  11.5919992  53.7459978   1.6170014  10.8448058  54.1187902   1.8616038
  13.3149992  53.1489978  19.2020014  12.9639992  52.2919978  19.4460014
  14.0409992  53.2909978  19.8090014  13.3651895  53.0511351  19.3173770
  15.4349992  54.0939978   2.0820014  15.7179992  53.2989978   2.5350014
  16.1739992  54.3269978   1.5210014  15.5737096  54.0167049   2.0681104
   2.0479992  49.6599978  19.8070014   2.1919992  48.7579978  19.5210014
   1.2759992  49.9459978  19.3200014   1.9632733  49.5751798  19.7019532
   6.3889992  50.0029978   1.9400014   6.4539992  49.2089978   2.4700014
   7.0419992  49.8849978   1.2500014   6.4861605  49.8783430   1.9192997
   8.7029992  49.6289978  19.2400014   8.3749992  49.8999978  18.3830014
   8.8549992  48.6879978  19.1520014   8.6786412  49.5389046  19.1107822
  11.7419992  51.0499978   1.6760014  11.4729992  51.2309978   2.5760014
  11.5349992  50.1249978   1.5440014  11.6771191  50.9497119   1.7815524
  14.4379992  49.5449978  16.6230014  15.1829992  50.1339978  16.5040014
  13.6809992  50.1269978  16.6870014  14.4375470  49.7042128  16.6153799
   2.8809992  46.8599978  19.2270014   3.2889992  46.0029978  19.1060014
   2.6199992  46.8739978  20.1480014   2.9016016  46.7445119  19.3349192
   7.5389992  47.9759978   4.2460014   7.0789992  47.4919978   4.9310014
   7.7939992  47.3069978   3.6100014   7.5104856  47.8193669   4.2538397
   6.8279992  45.8689978  16.6020014   6.2089992  46.5429978  16.8820014
   7.1719992  46.1899978  15.7680014   6.7897123  46.0046887  16.5276388
   8.6099992  46.2189978   2.5080014   8.4289992  46.0639978   1.5810014
   9.5599992  46.3269978   2.5530014   8.7136566  46.2123669   2.3870929
  11.8469992  48.3399978  19.8790014  12.8009992  48.4239978  19.8520014
  11.6869992  47.6279978  20.4990014  11.9557182  48.2552842  19.9590733
  17.9999992  48.5729978   1.9540014  17.7259992  48.1489978   1.1410014
  18.0389992  49.5049978   1.7370014  17.9677716  48.6408827   1.8134286
   7.1669992  43.2239978  17.6840014   7.3169992  42.4949978  17.0820014
   7.1689992  44.0009978  17.1250014   7.1877967  43.2292708  17.5260541
   7.5799992  41.5929978  15.1770014   8.1149992  42.0449978  14.5250014
   6.7269992  41.4849978  14.7540014   7.5380374  41.6402665  15.0306710
   9.1609992  47.0329978  15.4160014   9.9119992  46.8769978  14.8430014
   8.8219992  47.8849978  15.1410014   9.2179587  47.1268138  15.3004078
  13.5769992  44.8479978  20.4450014  13.7689992  43.9169978  20.3330014
  14.4349992  45.2729978  20.4340014  13.7192182  44.7780070  20.4281862
  14.8939992  47.6369978  18.5220014  14.6119992  48.3459978  17.9440014
  15.8359992  47.5639978  18.3710014  14.9827921  47.7242193  18.4224225
   5.6459992  44.4219978  19.5950014   4.8779992  43.8889978  19.3850014
   6.3239992  44.1119978  18.9960014   5.6327235  44.3071754  19.4852413
   8.3849992  39.0499978  15.6080014   8.2869992  39.9959978  15.5030014
   7.6429992  38.6769978  15.1320014   8.2712534  39.1291773  15.5292600
   9.6489992  43.3709978  19.1720014   9.4139992  43.1519978  20.0730014
   8.8659992  43.1639978  18.6620014   9.5109095  43.3129892  19.2265353
  12.3649992  42.4989978  18.2470014  11.4169992  42.5309978  18.3790014
  12.6769992  41.8729978  18.9010014  12.2775293  42.4187923  18.3534148
  13.9989992  41.1329978  20.2520014  13.9019992  40.1809978  20.2470014
  13.6769992  41.4009978  21.1130014  13.9422468  41.0390884  20.3676210
   3.8259992  42.3419978  19.3000014   4.0379992  41.6359978  18.6900014
   3.7149992  41.9049978  20.1440014   3.8400269  42.1861921  19.3305873
   8.6069992  38.3439978  18.2790014   9.3189992  37.7039978  18.2650014
   8.5059992  38.6099978  17.3660014   8.6907387  38.2924330  18.1535563
   8.9609992  40.0259978  20.3330014   8.8289992  39.5509978  19.5130014
   8.3609992  40.7709978  20.2780014   8.8619070  40.0615789  20.2133251
   8.5069992  56.9089978   3.5090014   9.4399992  57.0669978   3.6530014
   8.2429992  57.5849978   2.8840014   8.5989911  57.0219373   3.4442722
   2.0749992  51.5459978   2.9920014   2.9889992  51.6249978   3.2650014
   2.0829992  50.8589978   2.3260014   2.2010655  51.4639205   2.9392917
   0.7239992  56.9389978   8.0690014   0.0769992  56.4769978   7.5370014
   1.0789992  56.2669978   8.6520014   0.6833741  56.7849774   8.0749175
   1.5939992  55.0189978   9.8740014   1.2599992  54.1389978  10.0460014
   1.8169992  55.3649978  10.7390014   1.5783721  54.9451938  10.0144168
  19.1429992  55.8289978  12.8550014  19.1209992  56.0139978  13.7940014
  19.8329992  56.3969978  12.5140014  19.2333439  55.9311887  12.9374791
  18.7059992  55.3959978  15.7760014  18.2189992  54.6609978  15.4050014
  19.2549992  55.0019978  16.4540014  18.7135247  55.2421057  15.8168461
  17.1569992  51.1859978  20.4150014  16.2909992  51.0809978  20.8090014
  17.5329992  51.9439978  20.8610014  17.0893401  51.2741708  20.5292620
  18.4579992  49.4419978   5.9290014  19.3079992  49.8629978   6.0560014
  18.4629992  48.7019978   6.5360014  18.5751143  49.3996094   6.0284750
  18.8519992  47.4959978   7.7520014  18.1259992  47.0159978   8.1500014
  19.4339992  47.7009978   8.4850014  18.8312730  47.4580184   7.9054149
  18.6109992  50.2809978  12.7000014  19.4449992  49.9029978  12.4190014
  18.7229992  51.2239978  12.5810014  18.7401917  50.3567943  12.6454861
  17.0979992  53.1589978  15.0070014  16.4499992  53.4839978  15.6320014
  16.5799992  52.7179978  14.3330014  16.9394196  53.1438651  15.0014152
  19.1209992  47.3969978   4.1430014  18.5989992  47.7529978   3.4250014
  19.0879992  48.0719978   4.8220014  19.0450129  47.5369598   4.1363355
  17.4699992  44.6359978   2.6940014  17.5659992  45.3029978   2.0140014
  17.3299992  43.8209978   2.2130014  17.4642040  44.6170671   2.5358378
  16.6389992  46.0169978   8.3150014  16.4889992  45.0719978   8.2950014
  16.2849992  46.2979978   9.1590014  16.5706351  45.9256644   8.4263220
   1.6739992  48.0949978  12.3260014   1.8589992  48.0129978  11.3900014
   2.5239992  47.9709978  12.7490014   1.8140928  48.0670463  12.2552893
  17.4949992  47.9869978  17.9540014  18.0779992  47.2519978  18.1460014
  18.0589992  48.7589978  18.0010014  17.6509781  47.9908145  17.9866164
  18.9919992  45.8899978  18.6390014  18.1289992  45.5109978  18.4730014
  19.5959992  45.1509978  18.5640014  18.9556085  45.7383223  18.6061695
  16.7169992  42.0439978   1.8120014  17.3279992  41.6729978   2.4490014
  15.8799992  41.6229978   2.0080014  16.6874947  41.9362756   1.9257252
  16.3499992  43.5989978   6.7780014  16.6289992  42.6919978   6.9020014
  17.1089992  44.0329978   6.3890014  16.4908619  43.5334502   6.7423795
  16.9609992  44.1809978  12.2140014  17.8939992  44.3929978  12.1790014
  16.7259992  44.2819978  13.1360014  17.0569517  44.2236833  12.3339130
  16.9909992  44.9179978  14.9900014  16.1479992  45.1859978  15.3560014
  17.4329992  45.7399978  14.7790014  16.9354138  45.0658273  15.0115518
   1.2719992  43.3649978  18.4660014   2.1909992  43.2429978  18.7030014
   0.8219992  42.6149978  18.8560014   1.3370087  43.2469608  18.5511410
  19.2739992  38.8979978  20.3430014  19.6229992  38.2439978  19.7380014
  19.4209992  39.7349978  19.9030014  19.3416824  38.9216024  20.2006304
  16.9629992  40.8619978   6.8260014  17.1449992  40.4129978   7.6510014
  16.3629992  40.2779978   6.3620014  16.9068187  40.7215552   6.8762739
   2.4929992  41.6779978  11.3580014   2.9379992  40.8859978  11.6600014
   2.9589992  42.3939978  11.7880014   2.6169718  41.6664534  11.4575265
   0.7969992  44.6769978  12.4270014   1.2889992  44.4559978  11.6360014
   1.1589992  45.5169978  12.7080014   0.9132923  44.7603468  12.3567407
  18.7929992  41.0069978  18.6920014  17.8759992  41.2779978  18.6570014
  18.9159992  40.4719978  17.9080014  18.6839672  40.9717885  18.5811862
  18.8299992  40.9299978   3.3540014  19.2419992  40.2089978   2.8790014
  19.5109992  41.5989978   3.4120014  18.9785536  40.9217766   3.2968024
   1.1109992  40.9349978   6.4810014   0.1859992  41.1429978   6.3520014
   1.5649992  41.4189978   5.7910014   1.0456298  41.0289299   6.3700451
  15.8809992  55.9189978   8.4270014  16.5339992  55.5709978   7.8190014
  16.3919992  56.4069978   9.0730014  16.0392777  55.9373815   8.4312047
   1.0739992  39.6729978  14.8250014   0.4089992  39.4269978  15.4680014
   0.6309992  40.2949978  14.2480014   0.9231168  39.7234214  14.8349848
   3.2659992  52.8479978  18.9700014   2.4449992  53.0229978  18.5090014
   3.0139992  52.7749978  19.8900014   3.1195594  52.8620717  19.0313611
   6.2199992  53.8219978  15.2280014   5.7959992  54.6319978  14.9460014
   7.1249992  53.9079978  14.9260014   6.2842138  53.9444160  15.1486415
  10.5319992  55.2209978  18.1880014  10.7159992  54.8879978  19.0660014
  11.3779992  55.5309978  17.8660014  10.6716484  55.2172979  18.2647617
  12.8769992  56.5069978  17.4320014  13.5539992  55.8739978  17.1920014
  13.1979992  56.9079978  18.2390014  13.0131323  56.4745691  17.5083158
  17.7939992  39.0969978  16.5110014  16.9809992  39.4219978  16.1240014
  18.0269992  38.3359978  15.9780014  17.7141347  39.0386880  16.3859841
   3.6219992  57.0789978  15.2760014   2.9019992  57.5189978  14.8250014
   3.2569992  56.8279978  16.1240014   3.4739643  57.1053369  15.3289129
   6.0889992  56.6789978  14.3060014   5.2249992  56.7509978  14.7100014
   6.0339992  57.2259978  13.5220014   5.9631942  56.7627849  14.2554000
  10.7999992  56.5669978  13.4810014  10.3429992  57.0959978  12.8270014
  10.9629992  57.1699978  14.2060014  10.7594960  56.7209280  13.4895274
  13.1279992  55.4449978  14.4260014  12.2229992  55.6099978  14.1600014
  13.5559992  56.2979978  14.3600014  13.0621537  55.5829134  14.3807095
  15.7319992  57.0149978  14.7210014  15.5499992  57.9309978  14.5100014
  15.9089992  56.6039978  13.8740014  15.7310030  57.0848273  14.5777166
   3.0369992  55.7019978  12.1860014   3.0189992  55.2759978  13.0430014
   3.8419992  55.3829978  11.7770014   3.1432875  55.6006435  12.2479515
   5.1779992  54.4119978  10.8410014   4.9589992  53.4949978  11.0110014
   6.0019992  54.5519978  11.3070014   5.2594702  54.3055511  10.9272527
   7.7149992  54.8819978  11.6900014   7.9279992  53.9939978  11.4030014
   7.7799992  54.8469978  12.6440014   7.7529149  54.7558326  11.7797369
  11.2239992  40.5459978  10.8340014  10.5499992  39.9159978  11.0900014
  11.7879992  40.0619978  10.2310014  11.2080384  40.3943708  10.7875020
  16.3669992  38.6529978  10.9470014  16.9699992  39.2009978  10.4450014
  15.4969992  38.9719978  10.7060014  16.3319157  38.7710373  10.8457910
  18.0939992  39.7919978   9.2800014  18.7049992  39.2779978   8.7530014
  18.4759992  40.6689978   9.3030014  18.2293305  39.8402050   9.2109418
   3.5509992  39.1799978   8.6560014   2.7739992  38.9449978   8.1490014
   4.0809992  38.3829978   8.6650014   3.5163451  39.0401268   8.5878627
   2.3869992  38.9779978   4.4600014   2.8259992  39.5889978   3.8680014
   1.7529992  39.5159978   4.9340014   2.3613859  39.1344064   4.4430305
   8.1299992  39.1059978   8.4690014   9.0039992  39.4949978   8.4400014
   7.9939992  38.8909978   9.3920014   8.2311953  39.1301643   8.5897617
  13.6869992  39.1359978  10.1190014  13.7629992  39.2319978   9.1690014
  13.4119992  38.2289978  10.2470014  13.6601871  39.0264146  10.0063944
  15.0399992  39.1619978   5.8110014  14.3369992  39.7769978   5.6010014
  14.5949992  38.3249978   5.9420014  14.8836550  39.1329668   5.7999837
   2.2879992  54.9259978   5.3570014   1.6029992  54.8879978   4.6900014
   2.2919992  55.8389978   5.6450014   2.1947621  55.0441924   5.3046126
   4.2479992  40.8939978   2.9020014   4.7389992  40.2639978   2.3750014
   4.8709992  41.1899978   3.5650014   4.3995304  40.8477376   2.9194940
   9.2739992  41.1869978   5.3590014   9.4519992  40.5399978   6.0420014
   9.2199992  42.0209978   5.8260014   9.2910678  41.2111604   5.5156301
  11.1519992  56.1349978   3.7550014  12.0179992  56.5019978   3.5770014
  10.9059992  55.6959978   2.9410014  11.2372097  56.1258525   3.6206019
  17.8609992  55.6979978   6.4340014  17.6669992  54.9499978   5.8690014
  17.8219992  56.4559978   5.8510014  17.8291645  55.6980786   6.2778148
   3.5079992  39.6939978  18.1740014   3.1419992  38.9279978  18.6160014
   4.4209992  39.7229978  18.4600014   3.5813172  39.5930324  18.2731890
   5.4809992  39.0439978  19.7090014   6.3799992  38.7699978  19.5250014
   5.0949992  38.3019978  20.1740014   5.5517307  38.9062196  19.7467098
   4.1059992  55.8459978   2.3820014   3.8379992  56.1319978   3.2560014
   4.8769992  55.2999978   2.5350014   4.1735926  55.8112779   2.5221205
  13.9029992  38.3769978  19.8920014  13.9789992  37.9509978  20.7450014
  14.7959992  38.3899978  19.5490014  14.0342303  38.3203493  19.9625497
  17.0789992  54.4499978  18.5840014  16.2969992  54.2629978  18.0640014
  17.0069992  55.3789978  18.8010014  16.9621924  54.5500637  18.5421602
  31.4849992  48.3359978   8.6150014  31.5739992  49.2799978   8.4830014
  30.8469992  48.0609978   7.9570014  31.4109062  48.4279812   8.5079641
  30.4179992  47.5909978  12.0340014  30.3799992  46.9449978  12.7390014
  30.0959992  47.1239978  11.2630014  30.3692679  47.4394276  12.0262921
  22.7859992  47.2049978  13.6270014  22.8279992  46.5799978  14.3500014
  23.4889992  47.8289978  13.8090014  22.8867345  47.2037873  13.7505274
  34.1239992  50.5299978  10.3350014  33.6829992  49.8099978  10.7860014
  34.1109992  51.2509978  10.9650014  34.0619215  50.5289291  10.4818105
  23.7099992  51.6549978  12.1620014  23.3399992  50.8529978  11.7920014
  24.6509992  51.4869978  12.2080014  23.7865984  51.5224638  12.1175603
  20.3199992  45.3149978   7.5540014  19.8719992  46.1609978   7.5360014
  19.7589992  44.7359978   7.0390014  20.1828546  45.3523993   7.4818891
  21.0299992  47.4769978   9.6800014  21.2439992  46.7069978  10.2080014
  21.7679992  47.5669978   9.0770014  21.1590200  47.3838587   9.6707035
  31.2359992  55.6339978  10.5470014  31.8549992  54.9579978  10.2740014
  31.0269992  55.4159978  11.4560014  31.2926056  55.5118869  10.6323967
  28.8069992  50.0229978  12.4400014  29.1109992  49.3369978  11.8450014
  29.5289992  50.1419978  13.0580014  28.9461240  49.9452314  12.4420959
  37.4699992  41.6249978  13.3000014  37.5199992  42.2349978  14.0360014
  37.8959992  42.0859978  12.5770014  37.5344108  41.7707709  13.3030112
  31.9479992  44.4169978  12.7670014  32.0909992  43.4709978  12.7870014
  31.8419992  44.6239978  11.8390014  31.9532403  44.3154797  12.6442239
  25.1029992  42.5189978  10.0400014  25.1459992  43.3789978   9.6210014
  24.6449992  41.9669978   9.4060014  25.0469871  42.5619245   9.8970761
  32.8249992  42.6499978   8.4410014  33.4719992  42.3209978   9.0650014
  33.3349992  43.1669978   7.8180014  32.9824351  42.6749067   8.4421037
  21.7229992  44.9159978  10.8020014  22.3769992  44.3659978  11.2340014
  21.7469992  44.6419978   9.8850014  21.8157199  44.8037167  10.7371668
  26.8799992  46.4659978  10.0170014  27.4959992  45.9389978  10.5260014
  26.2929992  45.8259978   9.6130014  26.8850154  46.3073954  10.0320945
  37.8619992  43.1029978  15.5360014  37.1729992  43.7609978  15.4410014
  37.8769992  42.9049978  16.4730014  37.7697756  43.1662603  15.6495812
  23.9129992  41.4369978  14.1140014  23.6939992  41.9669978  13.3470014
  23.2449992  41.6629978  14.7610014  23.7926975  41.5400967  14.0965140
  31.2819992  50.9369978   7.6580014  30.9869992  50.6139978   6.8060014
  30.9579992  51.8369978   7.6990014  31.1978460  51.0144464   7.5469714
  26.4819992  49.1119978  14.4010014  25.7419992  49.7109978  14.5050014
  27.1959992  49.6659978  14.0860014  26.4773500  49.2687829  14.3726371
  34.5889992  41.9409978  10.4210014  34.3739992  41.1749978  10.9540014
  35.2449992  42.4129978  10.9340014  34.6482673  41.9000728  10.5631990
  23.5069992  43.3289978  12.0660014  24.1209992  43.9619978  12.4390014
  24.0189992  42.8569978  11.4100014  23.6601962  43.3517249  12.0282935
  24.8899992  51.0769978  15.1880014  24.8839992  51.9559978  14.8100014
  24.0359992  50.9929978  15.6130014  24.7737925  51.1859535  15.1936887
  21.0109992  50.7479978   5.9700014  20.7389992  50.9769978   5.0820014
  21.0559992  51.5849978   6.4310014  20.9798097  50.8926163   5.9106683
  34.6359992  52.3689978  12.6830014  33.6939992  52.4279978  12.8450014
  34.9119992  53.2749978  12.5460014  34.5445865  52.4995288  12.6866192
  34.9359992  40.6559978  14.1000014  34.1999992  41.2659978  14.0630014
  35.6199992  41.0709978  13.5740014  34.9275367  40.7957551  14.0238174
  27.9399992  38.7419978  11.5660014  27.8219992  37.7939978  11.5120014
  27.0849992  39.0749978  11.8390014  27.8082805  38.6572202  11.5955079
  32.8879992  54.1499978   9.3080014  33.3129992  53.4429978   8.8230014
  33.2049992  54.9519978   8.8910014  32.9890266  54.1615190   9.1852479
  34.0479992  52.0509978   7.8170014  33.7899992  51.3609978   7.2050014
  34.1189992  51.6079978   8.6620014  34.0223050  51.8966814   7.8475621
  35.7339992  50.6179978  16.2940014  35.8729992  50.0259978  15.5550014
  35.9009992  51.4909978  15.9380014  35.7756193  50.6548896  16.1446211
  30.2059992  47.5799978   6.0670014  29.4949992  48.1149978   5.7150014
  30.8969992  47.6349978   5.4070014  30.2020751  47.6606777   5.9295858
  30.2599992  46.0369978   3.1050014  30.9609992  46.0599978   3.7570014
  30.5619992  45.4089978   2.4490014  30.3968202  45.9552212   3.1055609
  37.5749992  46.9579978  14.3600014  36.9229992  47.6519978  14.4490014
  38.0409992  47.1679978  13.5500014  37.5485937  47.0815019  14.2627533
  33.6119992  47.7889978   7.0180014  32.8799992  48.0179978   7.5920014
  34.0589992  47.0759978   7.4730014  33.5723963  47.7238729   7.1579945
  33.5089992  45.9639978  16.0860014  33.5889992  46.7269978  16.6580014
  32.9079992  46.2429978  15.3960014  33.4386547  46.1062457  16.0710047
  25.2569992  48.4199978   8.9010014  24.9269992  48.0489978   8.0830014
  25.8459992  47.7489978   9.2480014  25.2913970  48.2786063   8.8359404
  26.6239992  51.8479978  11.5820014  26.5289992  51.2689978  10.8260014
  27.3529992  51.4769978  12.0780014  26.7096011  51.7185561  11.5456028
  25.6239992  47.1879978  12.5340014  26.1889992  47.3099978  11.7720014
  25.9429992  47.8259978  13.1730014  25.7444166  47.2908791  12.5160348
  31.9329992  52.6919978  13.2680014  31.6929992  53.3539978  13.9160014
  31.7349992  51.8569978  13.6930014  31.8733826  52.6698115  13.4141566
  26.5039992  51.5879978  17.2520014  26.1929992  52.3699978  17.7070014
  25.8539992  51.4349978  16.5660014  26.3735538  51.6744087  17.2215898
  32.4829992  46.9519978   4.7040014  33.0619992  47.1019978   5.4500014
  32.8969992  47.4219978   3.9800014  32.6183358  47.0360954   4.7083953
  23.4239992  47.7859978  16.4800014  23.4939992  48.4369978  17.1790014
  22.5329992  47.8889978  16.1450014  23.3131690  47.8889249  16.5303043
  30.2089992  53.6879978   8.1390014  30.6829992  53.9839978   8.9160014
  29.6459992  54.4269978   7.9060014  30.1977890  53.8283036   8.2138101
  24.7429992  53.6589978  18.0150014  24.7509992  53.5229978  17.0680014
  23.8269992  53.5419978  18.2670014  24.6202528  53.6245463  17.9193243
  36.1819992  38.7019978   4.5170014  35.2819992  38.8409978   4.8120014
  36.4339992  39.5329978   4.1150014  36.0928683  38.8334055   4.5030232
  24.2479992  47.4889978   6.4900014  23.9559992  48.2569978   5.9990014
  23.5729992  46.8299978   6.3270014  24.1168497  47.5049745   6.4008260
  37.3709992  53.0679978   2.8930014  37.4439992  54.0069978   3.0630014
  38.2759992  52.7629978   2.8370014  37.5034170  53.1553282   2.9087063
  20.3409992  49.8519978  15.3050014  19.8389992  49.8239978  14.4900014
  20.3459992  48.9469978  15.6150014  20.2729832  49.7257486  15.2354121
  20.0909992  52.6329978  12.1890014  21.0369992  52.4879978  12.1700014
  19.9779992  53.4169978  12.7260014  20.2053578  52.7191697  12.2590317
  38.2889992  53.2989978  17.8720014  38.2389992  52.3429978  17.8340014
  37.4619992  53.5659978  18.2730014  38.1703831  53.2044680  17.9210121
  29.2669992  52.8729978  16.7480014  29.3549992  53.6989978  17.2230014
  28.4039992  52.5429978  16.9970014  29.1623357  52.9415468  16.8467653
  29.6819992  56.6449978   6.5540014  29.6059992  56.5239978   5.6070014
  29.7139992  57.5939978   6.6720014  29.6759380  56.7567677   6.4405181
  23.3349992  55.4339978   8.3350014  23.4869992  55.0859978   9.2130014
  22.4839992  55.0769978   8.0790014  23.2408344  55.3380879   8.4206868
  32.7829992  55.7989978   3.5560014  33.1579992  55.0549978   3.0850014
  32.7879992  55.5289978   4.4740014  32.8350098  55.6606392   3.6156629
  32.4519992  55.7249978   6.3050014  31.5169992  55.8249978   6.4840014
  32.7319992  55.0149978   6.8840014  32.3619471  55.6427933   6.4076695
  35.4409992  44.7919978  18.3520014  35.0329992  45.2719978  17.6310014
  35.4809992  43.8859978  18.0440014  35.3906221  44.7352449  18.2118267
  22.5899992  51.1759978  16.3480014  22.8059992  50.8139978  17.2080014
  21.7339992  50.8009978  16.1390014  22.5038810  51.0758837  16.4372680
  25.2079992  39.6459978  12.3440014  24.3469992  39.5589978  11.9360014
  25.1859992  40.5019978  12.7720014  25.0870491  39.7498003  12.3459582
  29.8709992  39.3679978  15.7190014  30.2909992  38.9529978  16.4720014
  28.9379992  39.1889978  15.8360014  29.8023736  39.2869910  15.8378968
  33.1979992  43.1229978  16.5720014  32.6839992  42.9979978  17.3700014
  33.0419992  44.0359978  16.3280014  33.1066967  43.2292123  16.6480937
  33.9599992  47.9839978   2.3330014  34.0019992  47.7619978   1.4030014
  34.8089992  48.3829978   2.5230014  34.0805253  48.0075498   2.2313822
  29.5329992  41.8599978   3.0040014  29.2789992  41.8789978   3.9260014
  29.2759992  40.9889978   2.7020014  29.4634508  41.7448280   3.0894803
  25.2989992  44.6109978  13.4390014  24.6579992  44.5709978  14.1480014
  25.3369992  45.5379978  13.2010014  25.2163010  44.7307668  13.5039946
  25.2959992  44.8319978   8.3510014  24.4039992  44.4919978   8.2920014
  25.7469992  44.4549978   7.5950014  25.2347642  44.7344910   8.2407726
  30.8319992  45.2479978   7.1680014  30.4229992  46.0629978   6.8760014
  31.5519992  45.1079978   6.5540014  30.8734439  45.3405372   7.0450115
  29.9339992  45.4239978  18.6560014  29.3709992  44.7189978  18.9770014
  30.7599992  45.3029978  19.1240014  29.9686674  45.3112165  18.7631751
  31.8369992  44.6939978   9.9820014  31.6409992  45.2999978   9.2670014
  32.0179992  43.8609978   9.5480014  31.8346584  44.6642513   9.8254212
  23.0489992  44.9319978  15.3060014  23.0109992  45.3319978  16.1750014
  22.5589992  44.1149978  15.3960014  22.9775330  44.8762674  15.4371289
  26.4149992  42.3059978   2.1050014  25.9839992  41.8609978   2.8340014
  25.6969992  42.6769978   1.5920014  26.2589176  42.2952051   2.1354930
  19.6579992  42.0479978   9.1570014  20.2879992  42.0189978   9.8760014
  20.1069992  41.6229978   8.4260014  19.8050835  41.9865660   9.1567659
  20.9319992  42.7939978   4.5810014  21.4059992  43.3849978   3.9960014
  20.2139992  43.3239978   4.9280014  20.8998640  42.9465511   4.5477969
  31.1009992  46.3319978  14.6530014  31.4239992  45.7009978  14.0100014
  30.6599992  45.7979978  15.3140014  31.0856379  46.1733468  14.6542582
  27.8779992  42.2599978   9.4370014  26.9669992  42.3169978   9.7260014
  28.3829992  42.1999978  10.2480014  27.8216873  42.2596826   9.5861207
  22.7059992  43.8889978   8.2640014  21.8169992  43.9879978   7.9240014
  23.0029992  43.0469978   7.9180014  22.6244177  43.7887687   8.1706940
  26.3589992  43.8889978   5.9210014  27.2909992  44.0179978   6.0990014
  26.1439992  44.5579978   5.2710014  26.4574472  43.9970806   5.8574891
  32.2829992  41.4949978  12.7020014  31.6059992  41.6259978  13.3650014
  31.7979992  41.3399978  11.8910014  32.1247405  41.4919947  12.6832170
  25.0329992  45.0829978   3.4870014  24.4909992  44.7039978   2.7960014
  25.8669992  45.2779978   3.0590014  25.0714390  45.0574079   3.3344392
  35.5709992  57.1659978  18.9780014  35.7699992  57.5899978  18.1440014
  36.2259992  57.5099978  19.5850014  35.6868522  57.2706301  18.9457852
  23.1689992  49.6399978  18.5860014  23.9009992  49.8949978  19.1480014
  22.3879992  49.8449978  19.1020014  23.1636526  49.7025450  18.7325176
  29.1979992  45.0469978  11.3240014  29.7619992  44.5009978  10.7770014
  29.0499992  44.5259978  12.1130014  29.2553037  44.9016787  11.3557229
  24.1999992  41.1839978   7.7430014  23.8829992  40.2809978   7.7070014
  24.9809992  41.1859978   7.1900014  24.2622431  41.0607797   7.6633102
  27.8239992  43.4359978  13.7380014  26.9889992  43.8899978  13.8490014
  28.3479992  43.7119978  14.4900014  27.7806072  43.5353948  13.8548136
  28.3689992  49.6489978   5.4230014  27.6239992  49.1409978   5.1010014
  28.2339992  49.6979978   6.3690014  28.2488963  49.5861731   5.5068826
  35.5189992  48.7819978  14.2100014  36.1599992  49.2379978  13.6660014
  34.6879992  48.8949978  13.7470014  35.4945287  48.8596921  14.0729887
  32.2659992  42.4629978   3.6220014  31.3279992  42.5739978   3.4710014
  32.5639992  43.3189978   3.9290014  32.1776318  42.5940158   3.6428145
  29.8879992  49.8329978  16.6600014  29.5419992  49.4509978  17.4670014
  29.6879992  50.7659978  16.7310014  29.8135987  49.9069002  16.7800461
  32.9849992  44.3299978   5.2830014  33.8769992  44.1919978   5.6020014
  33.0409992  45.1209978   4.7460014  33.1147325  44.4179918   5.2541217
  23.4929992  48.9439978  11.1930014  24.2379992  48.9409978  10.5910014
  23.5709992  48.1199978  11.6740014  23.6053365  48.8322384  11.1757430
  30.4939992  51.1069978   4.4480014  30.1989992  51.9339978   4.8300014
  29.7909992  50.4879978   4.6450014  30.3586379  51.1364171   4.5268654
  20.5009992  47.4039978  16.5080014  20.7239992  46.9859978  17.3390014
  19.8989992  46.7919978  16.0850014  20.4501513  47.2639606  16.5646740
  27.5179992  46.9209978  18.7210014  27.2219992  46.7559978  17.8250014
  28.4489992  46.7009978  18.7100014  27.6034401  46.8686879  18.5970206
  32.1379992  52.2949978  16.6100014  31.2379992  52.4779978  16.3430014
  32.1719992  52.5539978  17.5310014  32.0193748  52.3550554  16.6979164
  37.8699992  44.5389978   4.9780014  37.3149992  44.1429978   4.3050014
  37.9699992  45.4499978   4.7000014  37.8076816  44.6079505   4.8485033
  37.8329992  50.3399978  17.8150014  36.9819992  50.5779978  17.4470014
  38.4229992  50.3229978  17.0620014  37.7963812  50.3702524  17.6628453
  36.1649992  53.3249978   5.4430014  35.7919992  52.4999978   5.7520014
  36.4419992  53.1419978   4.5450014  36.1513463  53.1872569   5.3639525
  33.3249992  48.1329978  12.4640014  32.3969992  47.9019978  12.4370014
  33.7759992  47.3559978  12.1340014  33.2588165  47.9962774  12.4156790
  25.8679992  52.4619978   8.5970014  26.3959992  53.2349978   8.3970014
  24.9879992  52.6859978   8.2950014  25.8213435  52.5982700   8.5287310
  21.6229992  47.3239978   3.1840014  22.2389992  47.9509978   3.5640014
  20.7609992  47.6399978   3.4560014  21.5907678  47.4524412   3.2727209
  27.2959992  50.1249978   8.1730014  27.0549992  51.0499978   8.2150014
  26.5549992  49.6659978   8.5700014  27.1629206  50.1895915   8.2323769
  27.8099992  54.2739978  14.4880014  28.1729992  55.1279978  14.2550014
  28.3419992  53.9819978  15.2290014  27.9315141  54.3513895  14.5562097
  25.9789992  55.1459978   7.7190014  25.0289992  55.2519978   7.7700014
  26.3309992  55.9669978   8.0630014  25.8965472  55.2714923   7.7724852
  31.3539992  50.3729978  14.1890014  30.9289992  50.1449978  15.0150014
  31.9349992  49.6339978  14.0070014  31.3743395  50.2419545  14.2774414
  33.5569992  51.3019978   3.2630014  33.9109992  50.9219978   4.0670014
  32.6089992  51.2079978   3.3500014  33.4772298  51.2372452   3.3848687
  34.0129992  54.9249978  16.6580014  33.4109992  54.3689978  16.1630014
  34.2939992  55.5919978  16.0320014  33.9685757  54.9390744  16.5055675
  38.0609992  55.7809978   3.4640014  38.8049992  56.3669978   3.3240014
  37.3669992  56.3499978   3.7970014  38.0689809  55.9380818   3.4898590
  22.1349992  42.1579978  16.0660014  21.2429992  42.4959978  15.9980014
  22.0369992  41.3019978  16.4840014  21.9994475  42.0886543  16.1131704
  34.4229992  49.9739978   5.4900014  34.1459992  49.2459978   6.0460014
  35.3509992  50.0929978   5.6950014  34.5104499  49.8904213   5.5938044
  21.7869992  53.9619978  14.5010014  22.0039992  53.0299978  14.4700014
  22.0329992  54.2369978  15.3840014  21.8499809  53.8715686  14.6161691
  27.6479992  52.4139978   1.7100014  27.8869992  51.6649978   1.1630014
  27.3789992  52.0259978   2.5430014  27.6443233  52.2591853   1.7477809
  26.5849992  51.9839978   4.1660014  26.7319992  51.4639978   4.9560014
  26.5819992  52.8909978   4.4730014  26.6047102  52.0353953   4.3155925
  23.0379992  49.2359978   4.6770014  22.3519992  49.5889978   5.2440014
  23.5609992  49.9989978   4.4300014  23.0148402  49.3873901   4.7211801
  30.8699992  41.8989978  14.9560014  31.5689992  41.9729978  15.6060014
  30.4889992  41.0339978  15.1100014  30.9142097  41.7922389  15.0657997
  31.6539992  41.5509978   6.0530014  31.8739992  42.0219978   5.2490014
  32.2129992  41.9449978   6.7230014  31.7596731  41.6687287   6.0335033
  29.3229992  53.6809978   4.9160014  28.5059992  54.1779978   4.9680014
  29.8519992  54.1569978   4.2750014  29.2828125  53.8131989   4.8365306
  28.8539992  43.2789978   6.8880014  29.6659992  43.7829978   6.9340014
  28.6099992  43.1339978   7.8020014  28.9321467  43.3283749   7.0178575
  29.3899992  44.2649978  16.0720014  29.5089992  44.8389978  16.8290014
  30.0449992  43.5769978  16.1870014  29.4948684  44.2505194  16.1911674
  29.7379992  40.3599978   7.8260014  29.3909992  40.9769978   8.4700014
  30.3969992  40.8609978   7.3440014  29.7795090  40.5121575   7.8490681
  26.6609992  54.7249978   4.8970014  26.8219992  55.5249978   4.3970014
  26.4639992  55.0319978   5.7820014  26.6563906  54.8758678   4.9482333
  25.3959992  41.4229978   4.5130014  25.3119992  42.3109978   4.8600014
  26.2859992  41.1579978   4.7450014  25.5048163  41.5087179   4.5918596
  35.5939992  42.1719978  16.9070014  34.6779992  42.4339978  16.8200014
  35.9299992  42.1689978  16.0110014  35.5138499  42.2075163  16.7738766
  34.1969992  45.9219978  11.0030014  33.3989992  45.5069978  10.6750014
  34.6419992  45.2319978  11.4940014  34.1479684  45.7718628  11.0245227
  23.6539992  51.8499978   3.5730014  24.2459992  52.5499978   3.8500014
  24.1129992  51.4169978   2.8540014  23.7971652  51.8872675   3.5136533
  21.9699992  44.5149978   2.6890014  21.9249992  45.4539978   2.8680014
  21.0819992  44.2789978   2.4200014  21.8438166  44.6116687   2.6771524
  35.2829992  55.1779978  12.6250014  35.1269992  55.8569978  11.9680014
  36.2159992  55.2499978  12.8280014  35.3877387  55.2806390  12.5625342
  22.7779992  39.2959978  11.3630014  22.5489992  39.3549978  10.4350014
  22.3359992  38.5049978  11.6690014  22.6868801  39.1970540  11.2774729
  21.7089992  53.2369978   7.5230014  20.8759992  53.7089978   7.5500014
  22.2539992  53.7469978   6.9240014  21.6687857  53.3704791   7.4457142
  20.9969992  55.8489978  18.8530014  21.5369992  55.6329978  19.6130014
  20.5159992  55.0439978  18.6630014  21.0059219  55.7105156  18.9314282
  25.5939992  54.7689978  20.4730014  26.3619992  54.3099978  20.8140014
  25.5729992  54.5429978  19.5430014  25.6962135  54.6756668  20.3939491
  29.6859992  54.2769978   1.8490014  29.0419992  53.6459978   2.1700014
  30.4479992  53.7459978   1.6170014  29.7008058  54.1187902   1.8616038
  32.1709992  53.1489978  19.2020014  31.8199992  52.2919978  19.4460014
  32.8969992  53.2909978  19.8090014  32.2211895  53.0511351  19.3173770
  34.2909992  54.0939978   2.0820014  34.5739992  53.2989978   2.5350014
  35.0299992  54.3269978   1.5210014  34.4297096  54.0167049   2.0681104
  20.9039992  49.6599978  19.8070014  21.0479992  48.7579978  19.5210014
  20.1319992  49.9459978  19.3200014  20.8192733  49.5751798  19.7019532
  25.2449992  50.0029978   1.9400014  25.3099992  49.2089978   2.4700014
  25.8979992  49.8849978   1.2500014  25.3421605  49.8783430   1.9192997
  27.5589992  49.6289978  19.2400014  27.2309992  49.8999978  18.3830014
  27.7109992  48.6879978  19.1520014  27.5346412  49.5389046  19.1107822
  30.5979992  51.0499978   1.6760014  30.3289992  51.2309978   2.5760014
  30.3909992  50.1249978   1.5440014  30.5331191  50.9497119   1.7815524
  33.2939992  49.5449978  16.6230014  34.0389992  50.1339978  16.5040014
  32.5369992  50.1269978  16.6870014  33.2935470  49.7042128  16.6153799
  21.7369992  46.8599978  19.2270014  22.1449992  46.0029978  19.1060014
  21.4759992  46.8739978  20.1480014  21.7576016  46.7445119  19.3349192
  26.3949992  47.9759978   4.2460014  25.9349992  47.4919978   4.9310014
  26.6499992  47.3069978   3.6100014  26.3664856  47.8193669   4.2538397
  25.6839992  45.8689978  16.6020014  25.0649992  46.5429978  16.8820014
  26.0279992  46.1899978  15.7680014  25.6457123  46.0046887  16.5276388
  27.4659992  46.2189978   2.5080014  27.2849992  46.0639978   1.5810014
  28.4159992  46.3269978   2.5530014  27.5696566  46.2123669   2.3870929
  30.7029992  48.3399978  19.8790014  31.6569992  48.4239978  19.8520014
  30.5429992  47.6279978  20.4990014  30.8117182  48.2552842  19.9590733
  36.8559992  48.5729978   1.9540014  36.5819992  48.1489978   1.1410014
  36.8949992  49.5049978   1.7370014  36.8237716  48.6408827   1.8134286
  26.0229992  43.2239978  17.6840014  26.1729992  42.4949978  17.0820014
  26.0249992  44.0009978  17.1250014  26.0437967  43.2292708  17.5260541
  26.4359992  41.5929978  15.1770014  26.9709992  42.0449978  14.5250014
  25.5829992  41.4849978  14.7540014  26.3940374  41.6402665  15.0306710
  28.0169992  47.0329978  15.4160014  28.7679992  46.8769978  14.8430014
  27.6779992  47.8849978  15.1410014  28.0739587  47.1268138  15.3004078
  32.4329992  44.8479978  20.4450014  32.6249992  43.9169978  20.3330014
  33.2909992  45.2729978  20.4340014  32.5752182  44.7780070  20.4281862
  33.7499992  47.6369978  18.5220014  33.4679992  48.3459978  17.9440014
  34.6919992  47.5639978  18.3710014  33.8387921  47.7242193  18.4224225
  24.5019992  44.4219978  19.5950014  23.7339992  43.8889978  19.3850014
  25.1799992  44.1119978  18.9960014  24.4887235  44.3071754  19.4852413
  27.2409992  39.0499978  15.6080014  27.1429992  39.9959978  15.5030014
  26.4989992  38.6769978  15.1320014  27.1272534  39.1291773  15.5292600
  28.5049992  43.3709978  19.1720014  28.2699992  43.1519978  20.0730014
  27.7219992  43.1639978  18.6620014  28.3669095  43.3129892  19.2265353
  31.2209992  42.4989978  18.2470014  30.2729992  42.5309978  18.3790014
  31.5329992  41.8729978  18.9010014  31.1335293  42.4187923  18.3534148
  32.8549992  41.1329978  20.2520014  32.7579992  40.1809978  20.2470014
  32.5329992  41.4009978  21.1130014  32.7982468  41.0390884  20.3676210
  22.6819992  42.3419978  19.3000014  22.8939992  41.6359978  18.6900014
  22.5709992  41.9049978  20.1440014  22.6960269  42.1861921  19.3305873
  27.4629992  38.3439978  18.2790014  28.1749992  37.7039978  18.2650014
  27.3619992  38.6099978  17.3660014  27.5467387  38.2924330  18.1535563
  27.8169992  40.0259978  20.3330014  27.6849992  39.5509978  19.5130014
  27.2169992  40.7709978  20.2780014  27.7179070  40.0615789  20.2133251
  27.3629992  56.9089978   3.5090014  28.2959992  57.0669978   3.6530014
  27.0989992  57.5849978   2.8840014  27.4549911  57.0219373   3.4442722
  20.9309992  51.5459978   2.9920014  21.8449992  51.6249978   3.2650014
  20.9389992  50.8589978   2.3260014  21.0570655  51.4639205   2.9392917
  19.5799992  56.9389978   8.0690014  18.9329992  56.4769978   7.5370014
  19.9349992  56.2669978   8.6520014  19.5393741  56.7849774   8.0749175
  20.4499992  55.0189978   9.8740014  20.1159992  54.1389978  10.0460014
  20.6729992  55.3649978  10.7390014  20.4343721  54.9451938  10.0144168
  37.9989992  55.8289978  12.8550014  37.9769992  56.0139978  13.7940014
  38.6889992  56.3969978  12.5140014  38.0893439  55.9311887  12.9374791
  37.5619992  55.3959978  15.7760014  37.0749992  54.6609978  15.4050014
  38.1109992  55.0019978  16.4540014  37.5695247  55.2421057  15.8168461
  36.0129992  51.1859978  20.4150014  35.1469992  51.0809978  20.8090014
  36.3889992  51.9439978  20.8610014  35.9453401  51.2741708  20.5292620
  37.3139992  49.4419978   5.9290014  38.1639992  49.8629978   6.0560014
  37.3189992  48.7019978   6.5360014  37.4311143  49.3996094   6.0284750
  37.7079992  47.4959978   7.7520014  36.9819992  47.0159978   8.1500014
  38.2899992  47.7009978   8.4850014  37.6872730  47.4580184   7.9054149
  37.4669992  50.2809978  12.7000014  38.3009992  49.9029978  12.4190014
  37.5789992  51.2239978  12.5810014  37.5961917  50.3567943  12.6454861
  35.9539992  53.1589978  15.0070014  35.3059992  53.4839978  15.6320014
  35.4359992  52.7179978  14.3330014  35.7954196  53.1438651  15.0014152
  37.9769992  47.3969978   4.1430014  37.4549992  47.7529978   3.4250014
  37.9439992  48.0719978   4.8220014  37.9010129  47.5369598   4.1363355
  36.3259992  44.6359978   2.6940014  36.4219992  45.3029978   2.0140014
  36.1859992  43.8209978   2.2130014  36.3202040  44.6170671   2.5358378
  35.4949992  46.0169978   8.3150014  35.3449992  45.0719978   8.2950014
  35.1409992  46.2979978   9.1590014  35.4266351  45.9256644   8.4263220
  20.5299992  48.0949978  12.3260014  20.7149992  48.0129978  11.3900014
  21.3799992  47.9709978  12.7490014  20.6700928  48.0670463  12.2552893
  36.3509992  47.9869978  17.9540014  36.9339992  47.2519978  18.1460014
  36.9149992  48.7589978  18.0010014  36.5069781  47.9908145  17.9866164
  37.8479992  45.8899978  18.6390014  36.9849992  45.5109978  18.4730014
  38.4519992  45.1509978  18.5640014  37.8116085  45.7383223  18.6061695
  35.5729992  42.0439978   1.8120014  36.1839992  41.6729978   2.4490014
  34.7359992  41.6229978   2.0080014  35.5434947  41.9362756   1.9257252
  35.2059992  43.5989978   6.7780014  35.4849992  42.6919978   6.9020014
  35.9649992  44.0329978   6.3890014  35.3468619  43.5334502   6.7423795
  35.8169992  44.1809978  12.2140014  36.7499992  44.3929978  12.1790014
  35.5819992  44.2819978  13.1360014  35.9129517  44.2236833  12.3339130
  35.8469992  44.9179978  14.9900014  35.0039992  45.1859978  15.3560014
  36.2889992  45.7399978  14.7790014  35.7914138  45.0658273  15.0115518
  20.1279992  43.3649978  18.4660014  21.0469992  43.2429978  18.7030014
  19.6779992  42.6149978  18.8560014  20.1930087  43.2469608  18.5511410
  38.1299992  38.8979978  20.3430014  38.4789992  38.2439978  19.7380014
  38.2769992  39.7349978  19.9030014  38.1976824  38.9216024  20.2006304
  35.8189992  40.8619978   6.8260014  36.0009992  40.4129978   7.6510014
  35.2189992  40.2779978   6.3620014  35.7628187  40.7215552   6.8762739
  21.3489992  41.6779978  11.3580014  21.7939992  40.8859978  11.6600014
  21.8149992  42.3939978  11.7880014  21.4729718  41.6664534  11.4575265
  19.6529992  44.6769978  12.4270014  20.1449992  44.4559978  11.6360014
  20.0149992  45.5169978  12.7080014  19.7692923  44.7603468  12.3567407
  37.6489992  41.0069978  18.6920014  36.7319992  41.2779978  18.6570014
  37.7719992  40.4719978  17.9080014  37.5399672  40.9717885  18.5811862
  37.6859992  40.9299978   3.3540014  38.0979992  40.2089978   2.8790014
  38.3669992  41.5989978   3.4120014  37.8345536  40.9217766   3.2968024
  19.9669992  40.9349978   6.4810014  19.0419992  41.1429978   6.3520014
  20.4209992  41.4189978   5.7910014  19.9016298  41.0289299   6.3700451
  34.7369992  55.9189978   8.4270014  35.3899992  55.5709978   7.8190014
  35.2479992  56.4069978   9.0730014  34.8952777  55.9373815   8.4312047
  19.9299992  39.6729978  14.8250014  19.2649992  39.4269978  15.4680014
  19.4869992  40.2949978  14.2480014  19.7791168  39.7234214  14.8349848
  22.1219992  52.8479978  18.9700014  21.3009992  53.0229978  18.5090014
  21.8699992  52.7749978  19.8900014  21.9755594  52.8620717  19.0313611
  25.0759992  53.8219978  15.2280014  24.6519992  54.6319978  14.9460014
  25.9809992  53.9079978  14.9260014  25.1402138  53.9444160  15.1486415
  29.3879992  55.2209978  18.1880014  29.5719992  54.8879978  19.0660014
  30.2339992  55.5309978  17.8660014  29.5276484  55.2172979  18.2647617
  31.7329992  56.5069978  17.4320014  32.4099992  55.8739978  17.1920014
  32.0539992  56.9079978  18.2390014  31.8691323  56.4745691  17.5083158
  36.6499992  39.0969978  16.5110014  35.8369992  39.4219978  16.1240014
  36.8829992  38.3359978  15.9780014  36.5701347  39.0386880  16.3859841
  22.4779992  57.0789978  15.2760014  21.7579992  57.5189978  14.8250014
  22.1129992  56.8279978  16.1240014  22.3299643  57.1053369  15.3289129
  24.9449992  56.6789978  14.3060014  24.0809992  56.7509978  14.7100014
  24.8899992  57.2259978  13.5220014  24.8191942  56.7627849  14.2554000
  29.6559992  56.5669978  13.4810014  29.1989992  57.0959978  12.8270014
  29.8189992  57.1699978  14.2060014  29.6154960  56.7209280  13.4895274
  31.9839992  55.4449978  14.4260014  31.0789992  55.6099978  14.1600014
  32.4119992  56.2979978  14.3600014  31.9181537  55.5829134  14.3807095
  34.5879992  57.0149978  14.7210014  34.4059992  57.9309978  14.5100014
  34.7649992  56.6039978  13.8740014  34.5870030  57.0848273  14.5777166
  21.8929992  55.7019978  12.1860014  21.8749992  55.2759978  13.0430014
  22.6979992  55.3829978  11.7770014  21.9992875  55.6006435  12.2479515
  24.0339992  54.4119978  10.8410014  23.8149992  53.4949978  11.0110014
  24.8579992  54.5519978  11.3070014  24.1154702  54.3055511  10.9272527
  26.5709992  54.8819978  11.6900014  26.7839992  53.9939978  11.4030014
  26.6359992  54.8469978  12.6440014  26.6089149  54.7558326  11.7797369
  30.0799992  40.5459978  10.8340014  29.4059992  39.9159978  11.0900014
  30.6439992  40.0619978  10.2310014  30.0640384  40.3943708  10.7875020
  35.2229992  38.6529978  10.9470014  35.8259992  39.2009978  10.4450014
  34.3529992  38.9719978  10.7060014  35.1879157  38.7710373  10.8457910
  36.9499992  39.7919978   9.2800014  37.5609992  39.2779978   8.7530014
  37.3319992  40.6689978   9.3030014  37.0853305  39.8402050   9.2109418
  22.4069992  39.1799978   8.6560014  21.6299992  38.9449978   8.1490014
  22.9369992  38.3829978   8.6650014  22.3723451  39.0401268   8.5878627
  21.2429992  38.9779978   4.4600014  21.6819992  39.5889978   3.8680014
  20.6089992  39.5159978   4.9340014  21.2173859  39.1344064   4.4430305
  26.9859992  39.1059978   8.4690014  27.8599992  39.4949978   8.4400014
  26.8499992  38.8909978   9.3920014  27.0871953  39.1301643   8.5897617
  32.5429992  39.1359978  10.1190014  32.6189992  39.2319978   9.1690014
  32.2679992  38.2289978  10.2470014  32.5161871  39.0264146  10.0063944
  33.8959992  39.1619978   5.8110014  33.1929992  39.7769978   5.6010014
  33.4509992  38.3249978   5.9420014  33.7396550  39.1329668   5.7999837
  21.1439992  54.9259978   5.3570014  20.4589992  54.8879978   4.6900014
  21.1479992  55.8389978   5.6450014  21.0507621  55.0441924   5.3046126
  23.1039992  40.8939978   2.9020014  23.5949992  40.2639978   2.3750014
  23.7269992  41.1899978   3.5650014  23.2555304  40.8477376   2.9194940
  28.1299992  41.1869978   5.3590014  28.3079992  40.5399978   6.0420014
  28.0759992  42.0209978   5.8260014  28.1470678  41.2111604   5.5156301
  30.0079992  56.1349978   3.7550014  30.8739992  56.5019978   3.5770014
  29.7619992  55.6959978   2.9410014  30.0932097  56.1258525   3.6206019
  36.7169992  55.6979978   6.4340014  36.5229992  54.9499978   5.8690014
  36.6779992  56.4559978   5.8510014  36.6851645  55.6980786   6.2778148
  22.3639992  39.6939978  18.1740014  21.9979992  38.9279978  18.6160014
  23.2769992  39.7229978  18.4600014  22.4373172  39.5930324  18.2731890
  24.3369992  39.0439978  19.7090014  25.2359992  38.7699978  19.5250014
  23.9509992  38.3019978  20.1740014  24.4077307  38.9062196  19.7467098
  22.9619992  55.8459978   2.3820014  22.6939992  56.1319978   3.2560014
  23.7329992  55.2999978   2.5350014  23.0295926  55.8112779   2.5221205
  32.7589992  38.3769978  19.8920014  32.8349992  37.9509978  20.7450014
  33.6519992  38.3899978  19.5490014  32.8902303  38.3203493  19.9625497
  35.9349992  54.4499978  18.5840014  35.1529992  54.2629978  18.0640014
  35.8629992  55.3789978  18.8010014  35.8181924  54.5500637  18.5421602
  50.3409992  48.3359978   8.6150014  50.4299992  49.2799978   8.4830014
  49.7029992  48.0609978   7.9570014  50.2669062  48.4279812   8.5079641
  49.2739992  47.5909978  12.0340014  49.2359992  46.9449978  12.7390014
  48.9519992  47.1239978  11.2630014  49.2252679  47.4394276  12.0262921
  41.6419992  47.2049978  13.6270014  41.6839992  46.5799978  14.3500014
  42.3449992  47.8289978  13.8090014  41.7427345  47.2037873  13.7505274
  52.9799992  50.5299978  10.3350014  52.5389992  49.8099978  10.7860014
  52.9669992  51.2509978  10.9650014  52.9179215  50.5289291  10.4818105
  42.5659992  51.6549978  12.1620014  42.1959992  50.8529978  11.7920014
  43.5069992  51.4869978  12.2080014  42.6425984  51.5224638  12.1175603
  39.1759992  45.3149978   7.5540014  38.7279992  46.1609978   7.5360014
  38.6149992  44.7359978   7.0390014  39.0388546  45.3523993   7.4818891
  39.8859992  47.4769978   9.6800014  40.0999992  46.7069978  10.2080014
  40.6239992  47.5669978   9.0770014  40.0150200  47.3838587   9.6707035
  50.0919992  55.6339978  10.5470014  50.7109992  54.9579978  10.2740014
  49.8829992  55.4159978  11.4560014  50.1486056  55.5118869  10.6323967
  47.6629992  50.0229978  12.4400014  47.9669992  49.3369978  11.8450014
  48.3849992  50.1419978  13.0580014  47.8021240  49.9452314  12.4420959
  56.3259992  41.6249978  13.3000014  56.3759992  42.2349978  14.0360014
  56.7519992  42.0859978  12.5770014  56.3904108  41.7707709  13.3030112
  50.8039992  44.4169978  12.7670014  50.9469992  43.4709978  12.7870014
  50.6979992  44.6239978  11.8390014  50.8092403  44.3154797  12.6442239
  43.9589992  42.5189978  10.0400014  44.0019992  43.3789978   9.6210014
  43.5009992  41.9669978   9.4060014  43.9029871  42.5619245   9.8970761
  51.6809992  42.6499978   8.4410014  52.3279992  42.3209978   9.0650014
  52.1909992  43.1669978   7.8180014  51.8384351  42.6749067   8.4421037
  40.5789992  44.9159978  10.8020014  41.2329992  44.3659978  11.2340014
  40.6029992  44.6419978   9.8850014  40.6717199  44.8037167  10.7371668
  45.7359992  46.4659978  10.0170014  46.3519992  45.9389978  10.5260014
  45.1489992  45.8259978   9.6130014  45.7410154  46.3073954  10.0320945
  56.7179992  43.1029978  15.5360014  56.0289992  43.7609978  15.4410014
  56.7329992  42.9049978  16.4730014  56.6257756  43.1662603  15.6495812
  42.7689992  41.4369978  14.1140014  42.5499992  41.9669978  13.3470014
  42.1009992  41.6629978  14.7610014  42.6486975  41.5400967  14.0965140
  50.1379992  50.9369978   7.6580014  49.8429992  50.6139978   6.8060014
  49.8139992  51.8369978   7.6990014  50.0538460  51.0144464   7.5469714
  45.3379992  49.1119978  14.4010014  44.5979992  49.7109978  14.5050014
  46.0519992  49.6659978  14.0860014  45.3333500  49.2687829  14.3726371
  53.4449992  41.9409978  10.4210014  53.2299992  41.1749978  10.9540014
  54.1009992  42.4129978  10.9340014  53.5042673  41.9000728  10.5631990
  42.3629992  43.3289978  12.0660014  42.9769992  43.9619978  12.4390014
  42.8749992  42.8569978  11.4100014  42.5161962  43.3517249  12.0282935
  43.7459992  51.0769978  15.1880014  43.7399992  51.9559978  14.8100014
  42.8919992  50.9929978  15.6130014  43.6297925  51.1859535  15.1936887
  39.8669992  50.7479978   5.9700014  39.5949992  50.9769978   5.0820014
  39.9119992  51.5849978   6.4310014  39.8358097  50.8926163   5.9106683
  53.4919992  52.3689978  12.6830014  52.5499992  52.4279978  12.8450014
  53.7679992  53.2749978  12.5460014  53.4005865  52.4995288  12.6866192
  53.7919992  40.6559978  14.1000014  53.0559992  41.2659978  14.0630014
  54.4759992  41.0709978  13.5740014  53.7835367  40.7957551  14.0238174
  46.7959992  38.7419978  11.5660014  46.6779992  37.7939978  11.5120014
  45.9409992  39.0749978  11.8390014  46.6642805  38.6572202  11.5955079
  51.7439992  54.1499978   9.3080014  52.1689992  53.4429978   8.8230014
  52.0609992  54.9519978   8.8910014  51.8450266  54.1615190   9.1852479
  52.9039992  52.0509978   7.8170014  52.6459992  51.3609978   7.2050014
  52.9749992  51.6079978   8.6620014  52.8783050  51.8966814   7.8475621
  54.5899992  50.6179978  16.2940014  54.7289992  50.0259978  15.5550014
  54.7569992  51.4909978  15.9380014  54.6316193  50.6548896  16.1446211
  49.0619992  47.5799978   6.0670014  48.3509992  48.1149978   5.7150014
  49.7529992  47.6349978   5.4070014  49.0580751  47.6606777   5.9295858
  49.1159992  46.0369978   3.1050014  49.8169992  46.0599978   3.7570014
  49.4179992  45.4089978   2.4490014  49.2528202  45.9552212   3.1055609
  56.4309992  46.9579978  14.3600014  55.7789992  47.6519978  14.4490014
  56.8969992  47.1679978  13.5500014  56.4045937  47.0815019  14.2627533
  52.4679992  47.7889978   7.0180014  51.7359992  48.0179978   7.5920014
  52.9149992  47.0759978   7.4730014  52.4283963  47.7238729   7.1579945
  52.3649992  45.9639978  16.0860014  52.4449992  46.7269978  16.6580014
  51.7639992  46.2429978  15.3960014  52.2946547  46.1062457  16.0710047
  44.1129992  48.4199978   8.9010014  43.7829992  48.0489978   8.0830014
  44.7019992  47.7489978   9.2480014  44.1473970  48.2786063   8.8359404
  45.4799992  51.8479978  11.5820014  45.3849992  51.2689978  10.8260014
  46.2089992  51.4769978  12.0780014  45.5656011  51.7185561  11.5456028
  44.4799992  47.1879978  12.5340014  45.0449992  47.3099978  11.7720014
  44.7989992  47.8259978  13.1730014  44.6004166  47.2908791  12.5160348
  50.7889992  52.6919978  13.2680014  50.5489992  53.3539978  13.9160014
  50.5909992  51.8569978  13.6930014  50.7293826  52.6698115  13.4141566
  45.3599992  51.5879978  17.2520014  45.0489992  52.3699978  17.7070014
  44.7099992  51.4349978  16.5660014  45.2295538  51.6744087  17.2215898
  51.3389992  46.9519978   4.7040014  51.9179992  47.1019978   5.4500014
  51.7529992  47.4219978   3.9800014  51.4743358  47.0360955   4.7083953
  42.2799992  47.7859978  16.4800014  42.3499992  48.4369978  17.1790014
  41.3889992  47.8889978  16.1450014  42.1691690  47.8889249  16.5303043
  49.0649992  53.6879978   8.1390014  49.5389992  53.9839978   8.9160014
  48.5019992  54.4269978   7.9060014  49.0537890  53.8283036   8.2138101
  43.5989992  53.6589978  18.0150014  43.6069992  53.5229978  17.0680014
  42.6829992  53.5419978  18.2670014  43.4762528  53.6245463  17.9193243
  55.0379992  38.7019978   4.5170014  54.1379992  38.8409978   4.8120014
  55.2899992  39.5329978   4.1150014  54.9488683  38.8334055   4.5030232
  43.1039992  47.4889978   6.4900014  42.8119992  48.2569978   5.9990014
  42.4289992  46.8299978   6.3270014  42.9728497  47.5049745   6.4008260
  56.2269992  53.0679978   2.8930014  56.2999992  54.0069978   3.0630014
  57.1319992  52.7629978   2.8370014  56.3594170  53.1553282   2.9087063
  39.1969992  49.8519978  15.3050014  38.6949992  49.8239978  14.4900014
  39.2019992  48.9469978  15.6150014  39.1289832  49.7257486  15.2354121
  38.9469992  52.6329978  12.1890014  39.8929992  52.4879978  12.1700014
  38.8339992  53.4169978  12.7260014  39.0613578  52.7191697  12.2590317
  57.1449992  53.2989978  17.8720014  57.0949992  52.3429978  17.8340014
  56.3179992  53.5659978  18.2730014  57.0263831  53.2044680  17.9210121
  48.1229992  52.8729978  16.7480014  48.2109992  53.6989978  17.2230014
  47.2599992  52.5429978  16.9970014  48.0183357  52.9415468  16.8467653
  48.5379992  56.6449978   6.5540014  48.4619992  56.5239978   5.6070014
  48.5699992  57.5939978   6.6720014  48.5319380  56.7567677   6.4405181
  42.1909992  55.4339978   8.3350014  42.3429992  55.0859978   9.2130014
  41.3399992  55.0769978   8.0790014  42.0968344  55.3380879   8.4206868
  51.6389992  55.7989978   3.5560014  52.0139992  55.0549978   3.0850014
  51.6439992  55.5289978   4.4740014  51.6910098  55.6606392   3.6156629
  51.3079992  55.7249978   6.3050014  50.3729992  55.8249978   6.4840014
  51.5879992  55.0149978   6.8840014  51.2179471  55.6427933   6.4076695
  54.2969992  44.7919978  18.3520014  53.8889992  45.2719978  17.6310014
  54.3369992  43.8859978  18.0440014  54.2466221  44.7352449  18.2118267
  41.4459992  51.1759978  16.3480014  41.6619992  50.8139978  17.2080014
  40.5899992  50.8009978  16.1390014  41.3598810  51.0758837  16.4372680
  44.0639992  39.6459978  12.3440014  43.2029992  39.5589978  11.9360014
  44.0419992  40.5019978  12.7720014  43.9430491  39.7498003  12.3459582
  48.7269992  39.3679978  15.7190014  49.1469992  38.9529978  16.4720014
  47.7939992  39.1889978  15.8360014  48.6583736  39.2869910  15.8378968
  52.0539992  43.1229978  16.5720014  51.5399992  42.9979978  17.3700014
  51.8979992  44.0359978  16.3280014  51.9626967  43.2292123  16.6480937
  52.8159992  47.9839978   2.3330014  52.8579992  47.7619978   1.4030014
  53.6649992  48.3829978   2.5230014  52.9365253  48.0075498   2.2313822
  48.3889992  41.8599978   3.0040014  48.1349992  41.8789978   3.9260014
  48.1319992  40.9889978   2.7020014  48.3194508  41.7448280   3.0894803
  44.1549992  44.6109978  13.4390014  43.5139992  44.5709978  14.1480014
  44.1929992  45.5379978  13.2010014  44.0723010  44.7307668  13.5039946
  44.1519992  44.8319978   8.3510014  43.2599992  44.4919978   8.2920014
  44.6029992  44.4549978   7.5950014  44.0907642  44.7344910   8.2407726
  49.6879992  45.2479978   7.1680014  49.2789992  46.0629978   6.8760014
  50.4079992  45.1079978   6.5540014  49.7294439  45.3405372   7.0450115
  48.7899992  45.4239978  18.6560014  48.2269992  44.7189978  18.9770014
  49.6159992  45.3029978  19.1240014  48.8246674  45.3112165  18.7631751
  50.6929992  44.6939978   9.9820014  50.4969992  45.2999978   9.2670014
  50.8739992  43.8609978   9.5480014  50.6906584  44.6642513   9.8254212
  41.9049992  44.9319978  15.3060014  41.8669992  45.3319978  16.1750014
  41.4149992  44.1149978  15.3960014  41.8335330  44.8762674  15.4371289
  45.2709992  42.3059978   2.1050014  44.8399992  41.8609978   2.8340014
  44.5529992  42.6769978   1.5920014  45.1149176  42.2952051   2.1354930
  38.5139992  42.0479978   9.1570014  39.1439992  42.0189978   9.8760014
  38.9629992  41.6229978   8.4260014  38.6610835  41.9865660   9.1567659
  39.7879992  42.7939978   4.5810014  40.2619992  43.3849978   3.9960014
  39.0699992  43.3239978   4.9280014  39.7558640  42.9465511   4.5477969
  49.9569992  46.3319978  14.6530014  50.2799992  45.7009978  14.0100014
  49.5159992  45.7979978  15.3140014  49.9416379  46.1733468  14.6542582
  46.7339992  42.2599978   9.4370014  45.8229992  42.3169978   9.7260014
  47.2389992  42.1999978  10.2480014  46.6776873  42.2596826   9.5861207
  41.5619992  43.8889978   8.2640014  40.6729992  43.9879978   7.9240014
  41.8589992  43.0469978   7.9180014  41.4804177  43.7887687   8.1706940
  45.2149992  43.8889978   5.9210014  46.1469992  44.0179978   6.0990014
  44.9999992  44.5579978   5.2710014  45.3134472  43.9970806   5.8574891
  51.1389992  41.4949978  12.7020014  50.4619992  41.6259978  13.3650014
  50.6539992  41.3399978  11.8910014  50.9807405  41.4919947  12.6832170
  43.8889992  45.0829978   3.4870014  43.3469992  44.7039978   2.7960014
  44.7229992  45.2779978   3.0590014  43.9274390  45.0574079   3.3344392
  54.4269992  57.1659978  18.9780014  54.6259992  57.5899978  18.1440014
  55.0819992  57.5099978  19.5850014  54.5428522  57.2706301  18.9457852
  42.0249992  49.6399978  18.5860014  42.7569992  49.8949978  19.1480014
  41.2439992  49.8449978  19.1020014  42.0196526  49.7025450  18.7325176
  48.0539992  45.0469978  11.3240014  48.6179992  44.5009978  10.7770014
  47.9059992  44.5259978  12.1130014  48.1113037  44.9016787  11.3557229
  43.0559992  41.1839978   7.7430014  42.7389992  40.2809978   7.7070014
  43.8369992  41.1859978   7.1900014  43.1182431  41.0607797   7.6633102
  46.6799992  43.4359978  13.7380014  45.8449992  43.8899978  13.8490014
  47.2039992  43.7119978  14.4900014  46.6366072  43.5353948  13.8548136
  47.2249992  49.6489978   5.4230014  46.4799992  49.1409978   5.1010014
  47.0899992  49.6979978   6.3690014  47.1048963  49.5861731   5.5068826
  54.3749992  48.7819978  14.2100014  55.0159992  49.2379978  13.6660014
  53.5439992  48.8949978  13.7470014  54.3505287  48.8596921  14.0729887
  51.1219992  42.4629978   3.6220014  50.1839992  42.5739978   3.4710014
  51.4199992  43.3189978   3.9290014  51.0336318  42.5940158   3.6428145
  48.7439992  49.8329978  16.6600014  48.3979992  49.4509978  17.4670014
  48.5439992  50.7659978  16.7310014  48.6695987  49.9069002  16.7800461
  51.8409992  44.3299978   5.2830014  52.7329992  44.1919978   5.6020014
  51.8969992  45.1209978   4.7460014  51.9707325  44.4179918   5.2541217
  42.3489992  48.9439978  11.1930014  43.0939992  48.9409978  10.5910014
  42.4269992  48.1199978  11.6740014  42.4613365  48.8322384  11.1757430
  49.3499992  51.1069978   4.4480014  49.0549992  51.9339978   4.8300014
  48.6469992  50.4879978   4.6450014  49.2146379  51.1364171   4.5268654
  39.3569992  47.4039978  16.5080014  39.5799992  46.9859978  17.3390014
  38.7549992  46.7919978  16.0850014  39.3061513  47.2639606  16.5646740
  46.3739992  46.9209978  18.7210014  46.0779992  46.7559978  17.8250014
  47.3049992  46.7009978  18.7100014  46.4594401  46.8686879  18.5970206
  50.9939992  52.2949978  16.6100014  50.0939992  52.4779978  16.3430014
  51.0279992  52.5539978  17.5310014  50.8753748  52.3550554  16.6979164
  56.7259992  44.5389978   4.9780014  56.1709992  44.1429978   4.3050014
  56.8259992  45.4499978   4.7000014  56.6636816  44.6079505   4.8485033
  56.6889992  50.3399978  17.8150014  55.8379992  50.5779978  17.4470014
  57.2789992  50.3229978  17.0620014  56.6523812  50.3702524  17.6628453
  55.0209992  53.3249978   5.4430014  54.6479992  52.4999978   5.7520014
  55.2979992  53.1419978   4.5450014  55.0073463  53.1872569   5.3639525
  52.1809992  48.1329978  12.4640014  51.2529992  47.9019978  12.4370014
  52.6319992  47.3559978  12.1340014  52.1148165  47.9962774  12.4156790
  44.7239992  52.4619978   8.5970014  45.2519992  53.2349978   8.3970014
  43.8439992  52.6859978   8.2950014  44.6773435  52.5982700   8.5287310
  40.4789992  47.3239978   3.1840014  41.0949992  47.9509978   3.5640014
  39.6169992  47.6399978   3.4560014  40.4467678  47.4524412   3.2727209
  46.1519992  50.1249978   8.1730014  45.9109992  51.0499978   8.2150014
  45.4109992  49.6659978   8.5700014  46.0189206  50.1895915   8.2323769
  46.6659992  54.2739978  14.4880014  47.0289992  55.1279978  14.2550014
  47.1979992  53.9819978  15.2290014  46.7875141  54.3513895  14.5562097
  44.8349992  55.1459978   7.7190014  43.8849992  55.2519978   7.7700014
  45.1869992  55.9669978   8.0630014  44.7525472  55.2714923   7.7724852
  50.2099992  50.3729978  14.1890014  49.7849992  50.1449978  15.0150014
  50.7909992  49.6339978  14.0070014  50.2303395  50.2419545  14.2774414
  52.4129992  51.3019978   3.2630014  52.7669992  50.9219978   4.0670014
  51.4649992  51.2079978   3.3500014  52.3332298  51.2372452   3.3848687
  52.8689992  54.9249978  16.6580014  52.2669992  54.3689978  16.1630014
  53.1499992  55.5919978  16.0320014  52.8245757  54.9390744  16.5055675
  56.9169992  55.7809978   3.4640014  57.6609992  56.3669978   3.3240014
  56.2229992  56.3499978   3.7970014  56.9249809  55.9380818   3.4898590
  40.9909992  42.1579978  16.0660014  40.0989992  42.4959978  15.9980014
  40.8929992  41.3019978  16.4840014  40.8554475  42.0886543  16.1131704
  53.2789992  49.9739978   5.4900014  53.0019992  49.2459978   6.0460014
  54.2069992  50.0929978   5.6950014  53.3664499  49.8904213   5.5938044
  40.6429992  53.9619978  14.5010014  40.8599992  53.0299978  14.4700014
  40.8889992  54.2369978  15.3840014  40.7059809  53.8715686  14.6161691
  46.5039992  52.4139978   1.7100014  46.7429992  51.6649978   1.1630014
  46.2349992  52.0259978   2.5430014  46.5003233  52.2591853   1.7477809
  45.4409992  51.9839978   4.1660014  45.5879992  51.4639978   4.9560014
  45.4379992  52.8909978   4.4730014  45.4607102  52.0353953   4.3155925
  41.8939992  49.2359978   4.6770014  41.2079992  49.5889978   5.2440014
  42.4169992  49.9989978   4.4300014  41.8708402  49.3873901   4.7211801
  49.7259992  41.8989978  14.9560014  50.4249992  41.9729978  15.6060014
  49.3449992  41.0339978  15.1100014  49.7702097  41.7922389  15.0657997
  50.5099992  41.5509978   6.0530014  50.7299992  42.0219978   5.2490014
  51.0689992  41.9449978   6.7230014  50.6156731  41.6687287   6.0335033
  48.1789992  53.6809978   4.9160014  47.3619992  54.1779978   4.9680014
  48.7079992  54.1569978   4.2750014  48.1388125  53.8131989   4.8365306
  47.7099992  43.2789978   6.8880014  48.5219992  43.7829978   6.9340014
  47.4659992  43.1339978   7.8020014  47.7881467  43.3283749   7.0178575
  48.2459992  44.2649978  16.0720014  48.3649992  44.8389978  16.8290014
  48.9009992  43.5769978  16.1870014  48.3508684  44.2505194  16.1911674
  48.5939992  40.3599978   7.8260014  48.2469992  40.9769978   8.4700014
  49.2529992  40.8609978   7.3440014  48.6355090  40.5121575   7.8490681
  45.5169992  54.7249978   4.8970014  45.6779992  55.5249978   4.3970014
  45.3199992  55.0319978   5.7820014  45.5123906  54.8758678   4.9482333
  44.2519992  41.4229978   4.5130014  44.1679992  42.3109978   4.8600014
  45.1419992  41.1579978   4.7450014  44.3608163  41.5087179   4.5918596
  54.4499992  42.1719978  16.9070014  53.5339992  42.4339978  16.8200014
  54.7859992  42.1689978  16.0110014  54.3698499  42.2075163  16.7738766
  53.0529992  45.9219978  11.0030014  52.2549992  45.5069978  10.6750014
  53.4979992  45.2319978  11.4940014  53.0039684  45.7718628  11.0245227
  42.5099992  51.8499978   3.5730014  43.1019992  52.5499978   3.8500014
  42.9689992  51.4169978   2.8540014  42.6531652  51.8872675   3.5136533
  40.8259992  44.5149978   2.6890014  40.7809992  45.4539978   2.8680014
  39.9379992  44.2789978   2.4200014  40.6998166  44.6116687   2.6771524
  54.1389992  55.1779978  12.6250014  53.9829992  55.8569978  11.9680014
  55.0719992  55.2499978  12.8280014  54.2437387  55.2806390  12.5625342
  41.6339992  39.2959978  11.3630014  41.4049992  39.3549978  10.4350014
  41.1919992  38.5049978  11.6690014  41.5428801  39.1970540  11.2774729
  40.5649992  53.2369978   7.5230014  39.7319992  53.7089978   7.5500014
  41.1099992  53.7469978   6.9240014  40.5247857  53.3704791   7.4457142
  39.8529992  55.8489978  18.8530014  40.3929992  55.6329978  19.6130014
  39.3719992  55.0439978  18.6630014  39.8619219  55.7105156  18.9314282
  44.4499992  54.7689978  20.4730014  45.2179992  54.3099978  20.8140014
  44.4289992  54.5429978  19.5430014  44.5522135  54.6756668  20.3939491
  48.5419992  54.2769978   1.8490014  47.8979992  53.6459978   2.1700014
  49.3039992  53.7459978   1.6170014  48.5568058  54.1187902   1.8616038
  51.0269992  53.1489978  19.2020014  50.6759992  52.2919978  19.4460014
  51.7529992  53.2909978  19.8090014  51.0771895  53.0511351  19.3173770
  53.1469992  54.0939978   2.0820014  53.4299992  53.2989978   2.5350014
  53.8859992  54.3269978   1.5210014  53.2857096  54.0167049   2.0681104
  39.7599992  49.6599978  19.8070014  39.9039992  48.7579978  19.5210014
  38.9879992  49.9459978  19.3200014  39.6752733  49.5751798  19.7019532
  44.1009992  50.0029978   1.9400014  44.1659992  49.2089978   2.4700014
  44.7539992  49.8849978   1.2500014  44.1981605  49.8783430   1.9192997
  46.4149992  49.6289978  19.2400014  46.0869992  49.8999978  18.3830014
  46.5669992  48.6879978  19.1520014  46.3906412  49.5389046  19.1107822
  49.4539992  51.0499978   1.6760014  49.1849992  51.2309978   2.5760014
  49.2469992  50.1249978   1.5440014  49.3891191  50.9497119   1.7815524
  52.1499992  49.5449978  16.6230014  52.8949992  50.1339978  16.5040014
  51.3929992  50.1269978  16.6870014  52.1495470  49.7042128  16.6153799
  40.5929992  46.8599978  19.2270014  41.0009992  46.0029978  19.1060014
  40.3319992  46.8739978  20.1480014  40.6136016  46.7445119  19.3349192
  45.2509992  47.9759978   4.2460014  44.7909992  47.4919978   4.9310014
  45.5059992  47.3069978   3.6100014  45.2224856  47.8193669   4.2538397
  44.5399992  45.8689978  16.6020014  43.9209992  46.5429978  16.8820014
  44.8839992  46.1899978  15.7680014  44.5017123  46.0046887  16.5276388
  46.3219992  46.2189978   2.5080014  46.1409992  46.0639978   1.5810014
  47.2719992  46.3269978   2.5530014  46.4256566  46.2123669   2.3870929
  49.5589992  48.3399978  19.8790014  50.5129992  48.4239978  19.8520014
  49.3989992  47.6279978  20.4990014  49.6677182  48.2552842  19.9590733
  55.7119992  48.5729978   1.9540014  55.4379992  48.1489978   1.1410014
  55.7509992  49.5049978   1.7370014  55.6797716  48.6408827   1.8134286
  44.8789992  43.2239978  17.6840014  45.0289992  42.4949978  17.0820014
  44.8809992  44.0009978  17.1250014  44.8997967  43.2292708  17.5260541
  45.2919992  41.5929978  15.1770014  45.8269992  42.0449978  14.5250014
  44.4389992  41.4849978  14.7540014  45.2500374  41.6402665  15.0306710
  46.8729992  47.0329978  15.4160014  47.6239992  46.8769978  14.8430014
  46.5339992  47.8849978  15.1410014  46.9299587  47.1268138  15.3004078
  51.2889992  44.8479978  20.4450014  51.4809992  43.9169978  20.3330014
  52.1469992  45.2729978  20.4340014  51.4312182  44.7780070  20.4281862
  52.6059992  47.6369978  18.5220014  52.3239992  48.3459978  17.9440014
  53.5479992  47.5639978  18.3710014  52.6947921  47.7242193  18.4224225
  43.3579992  44.4219978  19.5950014  42.5899992  43.8889978  19.3850014
  44.0359992  44.1119978  18.9960014  43.3447235  44.3071754  19.4852413
  46.0969992  39.0499978  15.6080014  45.9989992  39.9959978  15.5030014
  45.3549992  38.6769978  15.1320014  45.9832534  39.1291773  15.5292600
  47.3609992  43.3709978  19.1720014  47.1259992  43.1519978  20.0730014
  46.5779992  43.1639978  18.6620014  47.2229095  43.3129892  19.2265353
  50.0769992  42.4989978  18.2470014  49.1289992  42.5309978  18.3790014
  50.3889992  41.8729978  18.9010014  49.9895293  42.4187923  18.3534148
  51.7109992  41.1329978  20.2520014  51.6139992  40.1809978  20.2470014
  51.3889992  41.4009978  21.1130014  51.6542468  41.0390884  20.3676210
  41.5379992  42.3419978  19.3000014  41.7499992  41.6359978  18.6900014
  41.4269992  41.9049978  20.1440014  41.5520269  42.1861921  19.3305873
  46.3189992  38.3439978  18.2790014  47.0309992  37.7039978  18.2650014
  46.2179992  38.6099978  17.3660014  46.4027387  38.2924330  18.1535563
  46.6729992  40.0259978  20.3330014  46.5409992  39.5509978  19.5130014
  46.0729992  40.7709978  20.2780014  46.5739070  40.0615789  20.2133251
  46.2189992  56.9089978   3.5090014  47.1519992  57.0669978   3.6530014
  45.9549992  57.5849978   2.8840014  46.3109911  57.0219373   3.4442722
  39.7869992  51.5459978   2.9920014  40.7009992  51.6249978   3.2650014
  39.7949992  50.8589978   2.3260014  39.9130655  51.4639205   2.9392917
  38.4359992  56.9389978   8.0690014  37.7889992  56.4769978   7.5370014
  38.7909992  56.2669978   8.6520014  38.3953741  56.7849774   8.0749175
  39.3059992  55.0189978   9.8740014  38.9719992  54.1389978  10.0460014
  39.5289992  55.3649978  10.7390014  39.2903721  54.9451938  10.0144168
  56.8549992  55.8289978  12.8550014  56.8329992  56.0139978  13.7940014
  57.5449992  56.3969978  12.5140014  56.9453439  55.9311887  12.9374791
  56.4179992  55.3959978  15.7760014  55.9309992  54.6609978  15.4050014
  56.9669992  55.0019978  16.4540014  56.4255247  55.2421057  15.8168461
  54.8689992  51.1859978  20.4150014  54.0029992  51.0809978  20.8090014
  55.2449992  51.9439978  20.8610014  54.8013401  51.2741708  20.5292620
  56.1699992  49.4419978   5.9290014  57.0199992  49.8629978   6.0560014
  56.1749992  48.7019978   6.5360014  56.2871143  49.3996094   6.0284750
  56.5639992  47.4959978   7.7520014  55.8379992  47.0159978   8.1500014
  57.1459992  47.7009978   8.4850014  56.5432730  47.4580184   7.9054149
  56.3229992  50.2809978  12.7000014  57.1569992  49.9029978  12.4190014
  56.4349992  51.2239978  12.5810014  56.4521917  50.3567943  12.6454861
  54.8099992  53.1589978  15.0070014  54.1619992  53.4839978  15.6320014
  54.2919992  52.7179978  14.3330014  54.6514196  53.1438651  15.0014152
  56.8329992  47.3969978   4.1430014  56.3109992  47.7529978   3.4250014
  56.7999992  48.0719978   4.8220014  56.7570129  47.5369598   4.1363355
  55.1819992  44.6359978   2.6940014  55.2779992  45.3029978   2.0140014
  55.0419992  43.8209978   2.2130014  55.1762040  44.6170671   2.5358378
  54.3509992  46.0169978   8.3150014  54.2009992  45.0719978   8.2950014
  53.9969992  46.2979978   9.1590014  54.2826351  45.9256644   8.4263220
  39.3859992  48.0949978  12.3260014  39.5709992  48.0129978  11.3900014
  40.2359992  47.9709978  12.7490014  39.5260928  48.0670463  12.2552893
  55.2069992  47.9869978  17.9540014  55.7899992  47.2519978  18.1460014
  55.7709992  48.7589978  18.0010014  55.3629781  47.9908145  17.9866164
  56.7039992  45.8899978  18.6390014  55.8409992  45.5109978  18.4730014
  57.3079992  45.1509978  18.5640014  56.6676085  45.7383223  18.6061695
  54.4289992  42.0439978   1.8120014  55.0399992  41.6729978   2.4490014
  53.5919992  41.6229978   2.0080014  54.3994947  41.9362756   1.9257252
  54.0619992  43.5989978   6.7780014  54.3409992  42.6919978   6.9020014
  54.8209992  44.0329978   6.3890014  54.2028619  43.5334502   6.7423795
  54.6729992  44.1809978  12.2140014  55.6059992  44.3929978  12.1790014
  54.4379992  44.2819978  13.1360014  54.7689517  44.2236833  12.3339130
  54.7029992  44.9179978  14.9900014  53.8599992  45.1859978  15.3560014
  55.1449992  45.7399978  14.7790014  54.6474138  45.0658273  15.0115518
  38.9839992  43.3649978  18.4660014  39.9029992  43.2429978  18.7030014
  38.5339992  42.6149978  18.8560014  39.0490087  43.2469608  18.5511410
  56.9859992  38.8979978  20.3430014  57.3349992  38.2439978  19.7380014
  57.1329992  39.7349978  19.9030014  57.0536824  38.9216024  20.2006304
  54.6749992  40.8619978   6.8260014  54.8569992  40.4129978   7.6510014
  54.0749992  40.2779978   6.3620014  54.6188187  40.7215552   6.8762739
  40.2049992  41.6779978  11.3580014  40.6499992  40.8859978  11.6600014
  40.6709992  42.3939978  11.7880014  40.3289718  41.6664534  11.4575265
  38.5089992  44.6769978  12.4270014  39.0009992  44.4559978  11.6360014
  38.8709992  45.5169978  12.7080014  38.6252923  44.7603468  12.3567407
  56.5049992  41.0069978  18.6920014  55.5879992  41.2779978  18.6570014
  56.6279992  40.4719978  17.9080014  56.3959672  40.9717885  18.5811862
  56.5419992  40.9299978   3.3540014  56.9539992  40.2089978   2.8790014
  57.2229992  41.5989978   3.4120014  56.6905536  40.9217766   3.2968024
  38.8229992  40.9349978   6.4810014  37.8979992  41.1429978   6.3520014
  39.2769992  41.4189978   5.7910014  38.7576298  41.0289299   6.3700451
  53.5929992  55.9189978   8.4270014  54.2459992  55.5709978   7.8190014
  54.1039992  56.4069978   9.0730014  53.7512777  55.9373815   8.4312047
  38.7859992  39.6729978  14.8250014  38.1209992  39.4269978  15.4680014
  38.3429992  40.2949978  14.2480014  38.6351168  39.7234214  14.8349848
  40.9779992  52.8479978  18.9700014  40.1569992  53.0229978  18.5090014
  40.7259992  52.7749978  19.8900014  40.8315594  52.8620717  19.0313611
  43.9319992  53.8219978  15.2280014  43.5079992  54.6319978  14.9460014
  44.8369992  53.9079978  14.9260014  43.9962138  53.9444160  15.1486415
  48.2439992  55.2209978  18.1880014  48.4279992  54.8879978  19.0660014
  49.0899992  55.5309978  17.8660014  48.3836484  55.2172979  18.2647617
  50.5889992  56.5069978  17.4320014  51.2659992  55.8739978  17.1920014
  50.9099992  56.9079978  18.2390014  50.7251323  56.4745691  17.5083158
  55.5059992  39.0969978  16.5110014  54.6929992  39.4219978  16.1240014
  55.7389992  38.3359978  15.9780014  55.4261347  39.0386880  16.3859841
  41.3339992  57.0789978  15.2760014  40.6139992  57.5189978  14.8250014
  40.9689992  56.8279978  16.1240014  41.1859643  57.1053369  15.3289129
  43.8009992  56.6789978  14.3060014  42.9369992  56.7509978  14.7100014
  43.7459992  57.2259978  13.5220014  43.6751942  56.7627849  14.2554000
  48.5119992  56.5669978  13.4810014  48.0549992  57.0959978  12.8270014
  48.6749992  57.1699978  14.2060014  48.4714960  56.7209280  13.4895274
  50.8399992  55.4449978  14.4260014  49.9349992  55.6099978  14.1600014
  51.2679992  56.2979978  14.3600014  50.7741537  55.5829134  14.3807095
  53.4439992  57.0149978  14.7210014  53.2619992  57.9309978  14.5100014
  53.6209992  56.6039978  13.8740014  53.4430030  57.0848273  14.5777166
  40.7489992  55.7019978  12.1860014  40.7309992  55.2759978  13.0430014
  41.5539992  55.3829978  11.7770014  40.8552875  55.6006435  12.2479515
  42.8899992  54.4119978  10.8410014  42.6709992  53.4949978  11.0110014
  43.7139992  54.5519978  11.3070014  42.9714702  54.3055511  10.9272527
  45.4269992  54.8819978  11.6900014  45.6399992  53.9939978  11.4030014
  45.4919992  54.8469978  12.6440014  45.4649149  54.7558326  11.7797369
  48.9359992  40.5459978  10.8340014  48.2619992  39.9159978  11.0900014
  49.4999992  40.0619978  10.2310014  48.9200384  40.3943708  10.7875020
  54.0789992  38.6529978  10.9470014  54.6819992  39.2009978  10.4450014
  53.2089992  38.9719978  10.7060014  54.0439157  38.7710373  10.8457910
  55.8059992  39.7919978   9.2800014  56.4169992  39.2779978   8.7530014
  56.1879992  40.6689978   9.3030014  55.9413305  39.8402050   9.2109418
  41.2629992  39.1799978   8.6560014  40.4859992  38.9449978   8.1490014
  41.7929992  38.3829978   8.6650014  41.2283451  39.0401268   8.5878627
  40.0989992  38.9779978   4.4600014  40.5379992  39.5889978   3.8680014
  39.4649992  39.5159978   4.9340014  40.0733859  39.1344064   4.4430305
  45.8419992  39.1059978   8.4690014  46.7159992  39.4949978   8.4400014
  45.7059992  38.8909978   9.3920014  45.9431953  39.1301643   8.5897617
  51.3989992  39.1359978  10.1190014  51.4749992  39.2319978   9.1690014
  51.1239992  38.2289978  10.2470014  51.3721871  39.0264146  10.0063944
  52.7519992  39.1619978   5.8110014  52.0489992  39.7769978   5.6010014
  52.3069992  38.3249978   5.9420014  52.5956550  39.1329668   5.7999837
  39.9999992  54.9259978   5.3570014  39.3149992  54.8879978   4.6900014
  40.0039992  55.8389978   5.6450014  39.9067621  55.0441924   5.3046126
  41.9599992  40.8939978   2.9020014  42.4509992  40.2639978   2.3750014
  42.5829992  41.1899978   3.5650014  42.1115304  40.8477376   2.9194940
  46.9859992  41.1869978   5.3590014  47.1639992  40.5399978   6.0420014
  46.9319992  42.0209978   5.8260014  47.0030678  41.2111604   5.5156301
  48.8639992  56.1349978   3.7550014  49.7299992  56.5019978   3.5770014
  48.6179992  55.6959978   2.9410014  48.9492097  56.1258525   3.6206019
  55.5729992  55.6979978   6.4340014  55.3789992  54.9499978   5.8690014
  55.5339992  56.4559978   5.8510014  55.5411645  55.6980786   6.2778148
  41.2199992  39.6939978  18.1740014  40.8539992  38.9279978  18.6160014
  42.1329992  39.7229978  18.4600014  41.2933172  39.5930324  18.2731890
  43.1929992  39.0439978  19.7090014  44.0919992  38.7699978  19.5250014
  42.8069992  38.3019978  20.1740014  43.2637307  38.9062196  19.7467098
  41.8179992  55.8459978   2.3820014  41.5499992  56.1319978   3.2560014
  42.5889992  55.2999978   2.5350014  41.8855926  55.8112779   2.5221205
  51.6149992  38.3769978  19.8920014  51.6909992  37.9509978  20.7450014
  52.5079992  38.3899978  19.5490014  51.7462303  38.3203493  19.9625497
  54.7909992  54.4499978  18.5840014  54.0089992  54.2629978  18.0640014
  54.7189992  55.3789978  18.8010014  54.6741924  54.5500637  18.5421602
  69.1969992  48.3359978   8.6150014  69.2859992  49.2799978   8.4830014
  68.5589992  48.0609978   7.9570014  69.1229062  48.4279812   8.5079641
  68.1299992  47.5909978  12.0340014  68.0919992  46.9449978  12.7390014
  67.8079992  47.1239978  11.2630014  68.0812679  47.4394276  12.0262921
  60.4979992  47.2049978  13.6270014  60.5399992  46.5799978  14.3500014
  61.2009992  47.8289978  13.8090014  60.5987345  47.2037873  13.7505274
  71.8359992  50.5299978  10.3350014  71.3949992  49.8099978  10.7860014
  71.8229992  51.2509978  10.9650014  71.7739215  50.5289291  10.4818105
  61.4219992  51.6549978  12.1620014  61.0519992  50.8529978  11.7920014
  62.3629992  51.4869978  12.2080014  61.4985984  51.5224638  12.1175603
  58.0319992  45.3149978   7.5540014  57.5839992  46.1609978   7.5360014
  57.4709992  44.7359978   7.0390014  57.8948546  45.3523993   7.4818891
  58.7419992  47.4769978   9.6800014  58.9559992  46.7069978  10.2080014
  59.4799992  47.5669978   9.0770014  58.8710200  47.3838587   9.6707035
  68.9479992  55.6339978  10.5470014  69.5669992  54.9579978  10.2740014
  68.7389992  55.4159978  11.4560014  69.0046056  55.5118869  10.6323967
  66.5189992  50.0229978  12.4400014  66.8229992  49.3369978  11.8450014
  67.2409992  50.1419978  13.0580014  66.6581240  49.9452314  12.4420959
  75.1819992  41.6249978  13.3000014  75.2319992  42.2349978  14.0360014
  75.6079992  42.0859978  12.5770014  75.2464108  41.7707709  13.3030112
  69.6599992  44.4169978  12.7670014  69.8029992  43.4709978  12.7870014
  69.5539992  44.6239978  11.8390014  69.6652403  44.3154797  12.6442239
  62.8149992  42.5189978  10.0400014  62.8579992  43.3789978   9.6210014
  62.3569992  41.9669978   9.4060014  62.7589871  42.5619245   9.8970761
  70.5369992  42.6499978   8.4410014  71.1839992  42.3209978   9.0650014
  71.0469992  43.1669978   7.8180014  70.6944351  42.6749067   8.4421037
  59.4349992  44.9159978  10.8020014  60.0889992  44.3659978  11.2340014
  59.4589992  44.6419978   9.8850014  59.5277199  44.8037167  10.7371668
  64.5919992  46.4659978  10.0170014  65.2079992  45.9389978  10.5260014
  64.0049992  45.8259978   9.6130014  64.5970154  46.3073954  10.0320945
  75.5739992  43.1029978  15.5360014  74.8849992  43.7609978  15.4410014
  75.5889992  42.9049978  16.4730014  75.4817756  43.1662603  15.6495812
  61.6249992  41.4369978  14.1140014  61.4059992  41.9669978  13.3470014
  60.9569992  41.6629978  14.7610014  61.5046975  41.5400967  14.0965140
  68.9939992  50.9369978   7.6580014  68.6989992  50.6139978   6.8060014
  68.6699992  51.8369978   7.6990014  68.9098460  51.0144464   7.5469714
  64.1939992  49.1119978  14.4010014  63.4539992  49.7109978  14.5050014
  64.9079992  49.6659978  14.0860014  64.1893500  49.2687829  14.3726371
  72.3009992  41.9409978  10.4210014  72.0859992  41.1749978  10.9540014
  72.9569992  42.4129978  10.9340014  72.3602673  41.9000728  10.5631990
  61.2189992  43.3289978  12.0660014  61.8329992  43.9619978  12.4390014
  61.7309992  42.8569978  11.4100014  61.3721962  43.3517249  12.0282935
  62.6019992  51.0769978  15.1880014  62.5959992  51.9559978  14.8100014
  61.7479992  50.9929978  15.6130014  62.4857925  51.1859535  15.1936887
  58.7229992  50.7479978   5.9700014  58.4509992  50.9769978   5.0820014
  58.7679992  51.5849978   6.4310014  58.6918097  50.8926163   5.9106683
  72.3479992  52.3689978  12.6830014  71.4059992  52.4279978  12.8450014
  72.6239992  53.2749978  12.5460014  72.2565865  52.4995288  12.6866192
  72.6479992  40.6559978  14.1000014  71.9119992  41.2659978  14.0630014
  73.3319992  41.0709978  13.5740014  72.6395367  40.7957551  14.0238174
  65.6519992  38.7419978  11.5660014  65.5339992  37.7939978  11.5120014
  64.7969992  39.0749978  11.8390014  65.5202805  38.6572202  11.5955079
  70.5999992  54.1499978   9.3080014  71.0249992  53.4429978   8.8230014
  70.9169992  54.9519978   8.8910014  70.7010266  54.1615190   9.1852479
  71.7599992  52.0509978   7.8170014  71.5019992  51.3609978   7.2050014
  71.8309992  51.6079978   8.6620014  71.7343050  51.8966814   7.8475621
  73.4459992  50.6179978  16.2940014  73.5849992  50.0259978  15.5550014
  73.6129992  51.4909978  15.9380014  73.4876193  50.6548896  16.1446211
  67.9179992  47.5799978   6.0670014  67.2069992  48.1149978   5.7150014
  68.6089992  47.6349978   5.4070014  67.9140751  47.6606777   5.9295858
  67.9719992  46.0369978   3.1050014  68.6729992  46.0599978   3.7570014
  68.2739992  45.4089978   2.4490014  68.1088202  45.9552212   3.1055609
  75.2869992  46.9579978  14.3600014  74.6349992  47.6519978  14.4490014
  75.7529992  47.1679978  13.5500014  75.2605937  47.0815019  14.2627533
  71.3239992  47.7889978   7.0180014  70.5919992  48.0179978   7.5920014
  71.7709992  47.0759978   7.4730014  71.2843963  47.7238729   7.1579945
  71.2209992  45.9639978  16.0860014  71.3009992  46.7269978  16.6580014
  70.6199992  46.2429978  15.3960014  71.1506547  46.1062457  16.0710047
  62.9689992  48.4199978   8.9010014  62.6389992  48.0489978   8.0830014
  63.5579992  47.7489978   9.2480014  63.0033970  48.2786063   8.8359404
  64.3359992  51.8479978  11.5820014  64.2409992  51.2689978  10.8260014
  65.0649992  51.4769978  12.0780014  64.4216011  51.7185561  11.5456028
  63.3359992  47.1879978  12.5340014  63.9009992  47.3099978  11.7720014
  63.6549992  47.8259978  13.1730014  63.4564166  47.2908791  12.5160348
  69.6449992  52.6919978  13.2680014  69.4049992  53.3539978  13.9160014
  69.4469992  51.8569978  13.6930014  69.5853826  52.6698115  13.4141566
  64.2159992  51.5879978  17.2520014  63.9049992  52.3699978  17.7070014
  63.5659992  51.4349978  16.5660014  64.0855538  51.6744087  17.2215898
  70.1949992  46.9519978   4.7040014  70.7739992  47.1019978   5.4500014
  70.6089992  47.4219978   3.9800014  70.3303358  47.0360954   4.7083953
  61.1359992  47.7859978  16.4800014  61.2059992  48.4369978  17.1790014
  60.2449992  47.8889978  16.1450014  61.0251690  47.8889249  16.5303043
  67.9209992  53.6879978   8.1390014  68.3949992  53.9839978   8.9160014
  67.3579992  54.4269978   7.9060014  67.9097890  53.8283036   8.2138101
  62.4549992  53.6589978  18.0150014  62.4629992  53.5229978  17.0680014
  61.5389992  53.5419978  18.2670014  62.3322528  53.6245463  17.9193243
  73.8939992  38.7019978   4.5170014  72.9939992  38.8409978   4.8120014
  74.1459992  39.5329978   4.1150014  73.8048683  38.8334055   4.5030232
  61.9599992  47.4889978   6.4900014  61.6679992  48.2569978   5.9990014
  61.2849992  46.8299978   6.3270014  61.8288497  47.5049745   6.4008260
  75.0829992  53.0679978   2.8930014  75.1559992  54.0069978   3.0630014
  75.9879992  52.7629978   2.8370014  75.2154170  53.1553282   2.9087063
  58.0529992  49.8519978  15.3050014  57.5509992  49.8239978  14.4900014
  58.0579992  48.9469978  15.6150014  57.9849832  49.7257486  15.2354121
  57.8029992  52.6329978  12.1890014  58.7489992  52.4879978  12.1700014
  57.6899992  53.4169978  12.7260014  57.9173578  52.7191697  12.2590317
  76.0009992  53.2989978  17.8720014  75.9509992  52.3429978  17.8340014
  75.1739992  53.5659978  18.2730014  75.8823831  53.2044680  17.9210121
  66.9789992  52.8729978  16.7480014  67.0669992  53.6989978  17.2230014
  66.1159992  52.5429978  16.9970014  66.8743357  52.9415468  16.8467653
  67.3939992  56.6449978   6.5540014  67.3179992  56.5239978   5.6070014
  67.4259992  57.5939978   6.6720014  67.3879380  56.7567677   6.4405181
  61.0469992  55.4339978   8.3350014  61.1989992  55.0859978   9.2130014
  60.1959992  55.0769978   8.0790014  60.9528344  55.3380879   8.4206868
  70.4949992  55.7989978   3.5560014  70.8699992  55.0549978   3.0850014
  70.4999992  55.5289978   4.4740014  70.5470098  55.6606392   3.6156629
  70.1639992  55.7249978   6.3050014  69.2289992  55.8249978   6.4840014
  70.4439992  55.0149978   6.8840014  70.0739471  55.6427933   6.4076695
  73.1529992  44.7919978  18.3520014  72.7449992  45.2719978  17.6310014
  73.1929992  43.8859978  18.0440014  73.1026221  44.7352449  18.2118267
  60.3019992  51.1759978  16.3480014  60.5179992  50.8139978  17.2080014
  59.4459992  50.8009978  16.1390014  60.2158810  51.0758837  16.4372680
  62.9199992  39.6459978  12.3440014  62.0589992  39.5589978  11.9360014
  62.8979992  40.5019978  12.7720014  62.7990491  39.7498003  12.3459582
  67.5829992  39.3679978  15.7190014  68.0029992  38.9529978  16.4720014
  66.6499992  39.1889978  15.8360014  67.5143736  39.2869910  15.8378968
  70.9099992  43.1229978  16.5720014  70.3959992  42.9979978  17.3700014
  70.7539992  44.0359978  16.3280014  70.8186967  43.2292123  16.6480937
  71.6719992  47.9839978   2.3330014  71.7139992  47.7619978   1.4030014
  72.5209992  48.3829978   2.5230014  71.7925253  48.0075498   2.2313822
  67.2449992  41.8599978   3.0040014  66.9909992  41.8789978   3.9260014
  66.9879992  40.9889978   2.7020014  67.1754508  41.7448280   3.0894803
  63.0109992  44.6109978  13.4390014  62.3699992  44.5709978  14.1480014
  63.0489992  45.5379978  13.2010014  62.9283010  44.7307668  13.5039946
  63.0079992  44.8319978   8.3510014  62.1159992  44.4919978   8.2920014
  63.4589992  44.4549978   7.5950014  62.9467642  44.7344910   8.2407726
  68.5439992  45.2479978   7.1680014  68.1349992  46.0629978   6.8760014
  69.2639992  45.1079978   6.5540014  68.5854439  45.3405372   7.0450115
  67.6459992  45.4239978  18.6560014  67.0829992  44.7189978  18.9770014
  68.4719992  45.3029978  19.1240014  67.6806674  45.3112165  18.7631751
  69.5489992  44.6939978   9.9820014  69.3529992  45.2999978   9.2670014
  69.7299992  43.8609978   9.5480014  69.5466584  44.6642513   9.8254212
  60.7609992  44.9319978  15.3060014  60.7229992  45.3319978  16.1750014
  60.2709992  44.1149978  15.3960014  60.6895330  44.8762674  15.4371289
  64.1269992  42.3059978   2.1050014  63.6959992  41.8609978   2.8340014
  63.4089992  42.6769978   1.5920014  63.9709176  42.2952051   2.1354930
  57.3699992  42.0479978   9.1570014  57.9999992  42.0189978   9.8760014
  57.8189992  41.6229978   8.4260014  57.5170835  41.9865660   9.1567659
  58.6439992  42.7939978   4.5810014  59.1179992  43.3849978   3.9960014
  57.9259992  43.3239978   4.9280014  58.6118640  42.9465511   4.5477969
  68.8129992  46.3319978  14.6530014  69.1359992  45.7009978  14.0100014
  68.3719992  45.7979978  15.3140014  68.7976379  46.1733468  14.6542582
  65.5899992  42.2599978   9.4370014  64.6789992  42.3169978   9.7260014
  66.0949992  42.1999978  10.2480014  65.5336873  42.2596826   9.5861207
  60.4179992  43.8889978   8.2640014  59.5289992  43.9879978   7.9240014
  60.7149992  43.0469978   7.9180014  60.3364177  43.7887687   8.1706940
  64.0709992  43.8889978   5.9210014  65.0029992  44.0179978   6.0990014
  63.8559992  44.5579978   5.2710014  64.1694472  43.9970806   5.8574891
  69.9949992  41.4949978  12.7020014  69.3179992  41.6259978  13.3650014
  69.5099992  41.3399978  11.8910014  69.8367405  41.4919947  12.6832170
  62.7449992  45.0829978   3.4870014  62.2029992  44.7039978   2.7960014
  63.5789992  45.2779978   3.0590014  62.7834390  45.0574079   3.3344392
  73.2829992  57.1659978  18.9780014  73.4819992  57.5899978  18.1440014
  73.9379992  57.5099978  19.5850014  73.3988522  57.2706301  18.9457852
  60.8809992  49.6399978  18.5860014  61.6129992  49.8949978  19.1480014
  60.0999992  49.8449978  19.1020014  60.8756526  49.7025450  18.7325176
  66.9099992  45.0469978  11.3240014  67.4739992  44.5009978  10.7770014
  66.7619992  44.5259978  12.1130014  66.9673037  44.9016787  11.3557229
  61.9119992  41.1839978   7.7430014  61.5949992  40.2809978   7.7070014
  62.6929992  41.1859978   7.1900014  61.9742431  41.0607797   7.6633102
  65.5359992  43.4359978  13.7380014  64.7009992  43.8899978  13.8490014
  66.0599992  43.7119978  14.4900014  65.4926072  43.5353948  13.8548136
  66.0809992  49.6489978   5.4230014  65.3359992  49.1409978   5.1010014
  65.9459992  49.6979978   6.3690014  65.9608963  49.5861731   5.5068826
  73.2309992  48.7819978  14.2100014  73.8719992  49.2379978  13.6660014
  72.3999992  48.8949978  13.7470014  73.2065287  48.8596921  14.0729887
  69.9779992  42.4629978   3.6220014  69.0399992  42.5739978   3.4710014
  70.2759992  43.3189978   3.9290014  69.8896318  42.5940158   3.6428145
  67.5999992  49.8329978  16.6600014  67.2539992  49.4509978  17.4670014
  67.3999992  50.7659978  16.7310014  67.5255987  49.9069002  16.7800461
  70.6969992  44.3299978   5.2830014  71.5889992  44.1919978   5.6020014
  70.7529992  45.1209978   4.7460014  70.8267325  44.4179918   5.2541217
  61.2049992  48.9439978  11.1930014  61.9499992  48.9409978  10.5910014
  61.2829992  48.1199978  11.6740014  61.3173366  48.8322384  11.1757430
  68.2059992  51.1069978   4.4480014  67.9109992  51.9339978   4.8300014
  67.5029992  50.4879978   4.6450014  68.0706379  51.1364171   4.5268654
  58.2129992  47.4039978  16.5080014  58.4359992  46.9859978  17.3390014
  57.6109992  46.7919978  16.0850014  58.1621513  47.2639606  16.5646740
  65.2299992  46.9209978  18.7210014  64.9339992  46.7559978  17.8250014
  66.1609992  46.7009978  18.7100014  65.3154401  46.8686879  18.5970206
  69.8499992  52.2949978  16.6100014  68.9499992  52.4779978  16.3430014
  69.8839992  52.5539978  17.5310014  69.7313748  52.3550554  16.6979164
  75.5819992  44.5389978   4.9780014  75.0269992  44.1429978   4.3050014
  75.6819992  45.4499978   4.7000014  75.5196816  44.6079505   4.8485033
  75.5449992  50.3399978  17.8150014  74.6939992  50.5779978  17.4470014
  76.1349992  50.3229978  17.0620014  75.5083812  50.3702524  17.6628453
  73.8769992  53.3249978   5.4430014  73.5039992  52.4999978   5.7520014
  74.1539992  53.1419978   4.5450014  73.8633463  53.1872569   5.3639525
  71.0369992  48.1329978  12.4640014  70.1089992  47.9019978  12.4370014
  71.4879992  47.3559978  12.1340014  70.9708165  47.9962774  12.4156790
  63.5799992  52.4619978   8.5970014  64.1079992  53.2349978   8.3970014
  62.6999992  52.6859978   8.2950014  63.5333435  52.5982700   8.5287310
  59.3349992  47.3239978   3.1840014  59.9509992  47.9509978   3.5640014
  58.4729992  47.6399978   3.4560014  59.3027678  47.4524412   3.2727209
  65.0079992  50.1249978   8.1730014  64.7669992  51.0499978   8.2150014
  64.2669992  49.6659978   8.5700014  64.8749206  50.1895915   8.2323769
  65.5219992  54.2739978  14.4880014  65.8849992  55.1279978  14.2550014
  66.0539992  53.9819978  15.2290014  65.6435141  54.3513895  14.5562097
  63.6909992  55.1459978   7.7190014  62.7409992  55.2519978   7.7700014
  64.0429992  55.9669978   8.0630014  63.6085472  55.2714923   7.7724852
  69.0659992  50.3729978  14.1890014  68.6409992  50.1449978  15.0150014
  69.6469992  49.6339978  14.0070014  69.0863395  50.2419545  14.2774414
  71.2689992  51.3019978   3.2630014  71.6229992  50.9219978   4.0670014
  70.3209992  51.2079978   3.3500014  71.1892298  51.2372452   3.3848687
  71.7249992  54.9249978  16.6580014  71.1229992  54.3689978  16.1630014
  72.0059992  55.5919978  16.0320014  71.6805757  54.9390744  16.5055675
  75.7729992  55.7809978   3.4640014  76.5169992  56.3669978   3.3240014
  75.0789992  56.3499978   3.7970014  75.7809809  55.9380818   3.4898590
  59.8469992  42.1579978  16.0660014  58.9549992  42.4959978  15.9980014
  59.7489992  41.3019978  16.4840014  59.7114475  42.0886543  16.1131704
  72.1349992  49.9739978   5.4900014  71.8579992  49.2459978   6.0460014
  73.0629992  50.0929978   5.6950014  72.2224499  49.8904213   5.5938044
  59.4989992  53.9619978  14.5010014  59.7159992  53.0299978  14.4700014
  59.7449992  54.2369978  15.3840014  59.5619809  53.8715686  14.6161691
  65.3599992  52.4139978   1.7100014  65.5989992  51.6649978   1.1630014
  65.0909992  52.0259978   2.5430014  65.3563233  52.2591853   1.7477809
  64.2969992  51.9839978   4.1660014  64.4439992  51.4639978   4.9560014
  64.2939992  52.8909978   4.4730014  64.3167102  52.0353953   4.3155925
  60.7499992  49.2359978   4.6770014  60.0639992  49.5889978   5.2440014
  61.2729992  49.9989978   4.4300014  60.7268402  49.3873901   4.7211801
  68.5819992  41.8989978  14.9560014  69.2809992  41.9729978  15.6060014
  68.2009992  41.0339978  15.1100014  68.6262097  41.7922389  15.0657997
  69.3659992  41.5509978   6.0530014  69.5859992  42.0219978   5.2490014
  69.9249992  41.9449978   6.7230014  69.4716731  41.6687287   6.0335033
  67.0349992  53.6809978   4.9160014  66.2179992  54.1779978   4.9680014
  67.5639992  54.1569978   4.2750014  66.9948125  53.8131989   4.8365306
  66.5659992  43.2789978   6.8880014  67.3779992  43.7829978   6.9340014
  66.3219992  43.1339978   7.8020014  66.6441467  43.3283749   7.0178575
  67.1019992  44.2649978  16.0720014  67.2209992  44.8389978  16.8290014
  67.7569992  43.5769978  16.1870014  67.2068684  44.2505194  16.1911674
  67.4499992  40.3599978   7.8260014  67.1029992  40.9769978   8.4700014
  68.1089992  40.8609978   7.3440014  67.4915090  40.5121575   7.8490681
  64.3729992  54.7249978   4.8970014  64.5339992  55.5249978   4.3970014
  64.1759992  55.0319978   5.7820014  64.3683906  54.8758678   4.9482333
  63.1079992  41.4229978   4.5130014  63.0239992  42.3109978   4.8600014
  63.9979992  41.1579978   4.7450014  63.2168163  41.5087179   4.5918596
  73.3059992  42.1719978  16.9070014  72.3899992  42.4339978  16.8200014
  73.6419992  42.1689978  16.0110014  73.2258499  42.2075163  16.7738766
  71.9089992  45.9219978  11.0030014  71.1109992  45.5069978  10.6750014
  72.3539992  45.2319978  11.4940014  71.8599684  45.7718628  11.0245227
  61.3659992  51.8499978   3.5730014  61.9579992  52.5499978   3.8500014
  61.8249992  51.4169978   2.8540014  61.5091652  51.8872675   3.5136533
  59.6819992  44.5149978   2.6890014  59.6369992  45.4539978   2.8680014
  58.7939992  44.2789978   2.4200014  59.5558166  44.6116687   2.6771524
  72.9949992  55.1779978  12.6250014  72.8389992  55.8569978  11.9680014
  73.9279992  55.2499978  12.8280014  73.0997387  55.2806390  12.5625342
  60.4899992  39.2959978  11.3630014  60.2609992  39.3549978  10.4350014
  60.0479992  38.5049978  11.6690014  60.3988801  39.1970540  11.2774729
  59.4209992  53.2369978   7.5230014  58.5879992  53.7089978   7.5500014
  59.9659992  53.7469978   6.9240014  59.3807857  53.3704791   7.4457142
  58.7089992  55.8489978  18.8530014  59.2489992  55.6329978  19.6130014
  58.2279992  55.0439978  18.6630014  58.7179219  55.7105156  18.9314282
  63.3059992  54.7689978  20.4730014  64.0739992  54.3099978  20.8140014
  63.2849992  54.5429978  19.5430014  63.4082135  54.6756668  20.3939491
  67.3979992  54.2769978   1.8490014  66.7539992  53.6459978   2.1700014
  68.1599992  53.7459978   1.6170014  67.4128058  54.1187902   1.8616038
  69.8829992  53.1489978  19.2020014  69.5319992  52.2919978  19.4460014
  70.6089992  53.2909978  19.8090014  69.9331895  53.0511351  19.3173770
  72.0029992  54.0939978   2.0820014  72.2859992  53.2989978   2.5350014
  72.7419992  54.3269978   1.5210014  72.1417096  54.0167049   2.0681104
  58.6159992  49.6599978  19.8070014  58.7599992  48.7579978  19.5210014
  57.8439992  49.9459978  19.3200014  58.5312733  49.5751798  19.7019532
  62.9569992  50.0029978   1.9400014  63.0219992  49.2089978   2.4700014
  63.6099992  49.8849978   1.2500014  63.0541605  49.8783430   1.9192997
  65.2709992  49.6289978  19.2400014  64.9429992  49.8999978  18.3830014
  65.4229992  48.6879978  19.1520014  65.2466412  49.5389046  19.1107822
  68.3099992  51.0499978   1.6760014  68.0409992  51.2309978   2.5760014
  68.1029992  50.1249978   1.5440014  68.2451191  50.9497119   1.7815524
  71.0059992  49.5449978  16.6230014  71.7509992  50.1339978  16.5040014
  70.2489992  50.1269978  16.6870014  71.0055470  49.7042128  16.6153799
  59.4489992  46.8599978  19.2270014  59.8569992  46.0029978  19.1060014
  59.1879992  46.8739978  20.1480014  59.4696016  46.7445119  19.3349192
  64.1069992  47.9759978   4.2460014  63.6469992  47.4919978   4.9310014
  64.3619992  47.3069978   3.6100014  64.0784856  47.8193669   4.2538397
  63.3959992  45.8689978  16.6020014  62.7769992  46.5429978  16.8820014
  63.7399992  46.1899978  15.7680014  63.3577123  46.0046887  16.5276388
  65.1779992  46.2189978   2.5080014  64.9969992  46.0639978   1.5810014
  66.1279992  46.3269978   2.5530014  65.2816566  46.2123669   2.3870929
  68.4149992  48.3399978  19.8790014  69.3689992  48.4239978  19.8520014
  68.2549992  47.6279978  20.4990014  68.5237182  48.2552842  19.9590733
  74.5679992  48.5729978   1.9540014  74.2939992  48.1489978   1.1410014
  74.6069992  49.5049978   1.7370014  74.5357716  48.6408827   1.8134286
  63.7349992  43.2239978  17.6840014  63.8849992  42.4949978  17.0820014
  63.7369992  44.0009978  17.1250014  63.7557967  43.2292708  17.5260541
  64.1479992  41.5929978  15.1770014  64.6829992  42.0449978  14.5250014
  63.2949992  41.4849978  14.7540014  64.1060374  41.6402665  15.0306710
  65.7289992  47.0329978  15.4160014  66.4799992  46.8769978  14.8430014
  65.3899992  47.8849978  15.1410014  65.7859587  47.1268138  15.3004078
  70.1449992  44.8479978  20.4450014  70.3369992  43.9169978  20.3330014
  71.0029992  45.2729978  20.4340014  70.2872182  44.7780070  20.4281862
  71.4619992  47.6369978  18.5220014  71.1799992  48.3459978  17.9440014
  72.4039992  47.5639978  18.3710014  71.5507921  47.7242193  18.4224225
  62.2139992  44.4219978  19.5950014  61.4459992  43.8889978  19.3850014
  62.8919992  44.1119978  18.9960014  62.2007235  44.3071754  19.4852413
  64.9529992  39.0499978  15.6080014  64.8549992  39.9959978  15.5030014
  64.2109992  38.6769978  15.1320014  64.8392534  39.1291773  15.5292600
  66.2169992  43.3709978  19.1720014  65.9819992  43.1519978  20.0730014
  65.4339992  43.1639978  18.6620014  66.0789095  43.3129892  19.2265353
  68.9329992  42.4989978  18.2470014  67.9849992  42.5309978  18.3790014
  69.2449992  41.8729978  18.9010014  68.8455293  42.4187923  18.3534148
  70.5669992  41.1329978  20.2520014  70.4699992  40.1809978  20.2470014
  70.2449992  41.4009978  21.1130014  70.5102468  41.0390884  20.3676210
  60.3939992  42.3419978  19.3000014  60.6059992  41.6359978  18.6900014
  60.2829992  41.9049978  20.1440014  60.4080269  42.1861921  19.3305873
  65.1749992  38.3439978  18.2790014  65.8869992  37.7039978  18.2650014
  65.0739992  38.6099978  17.3660014  65.2587387  38.2924330  18.1535563
  65.5289992  40.0259978  20.3330014  65.3969992  39.5509978  19.5130014
  64.9289992  40.7709978  20.2780014  65.4299070  40.0615789  20.2133251
  65.0749992  56.9089978   3.5090014  66.0079992  57.0669978   3.6530014
  64.8109992  57.5849978   2.8840014  65.1669911  57.0219373   3.4442722
  58.6429992  51.5459978   2.9920014  59.5569992  51.6249978   3.2650014
  58.6509992  50.8589978   2.3260014  58.7690655  51.4639205   2.9392917
  57.2919992  56.9389978   8.0690014  56.6449992  56.4769978   7.5370014
  57.6469992  56.2669978   8.6520014  57.2513741  56.7849774   8.0749175
  58.1619992  55.0189978   9.8740014  57.8279992  54.1389978  10.0460014
  58.3849992  55.3649978  10.7390014  58.1463721  54.9451938  10.0144168
  75.7109992  55.8289978  12.8550014  75.6889992  56.0139978  13.7940014
  76.4009992  56.3969978  12.5140014  75.8013439  55.9311887  12.9374791
  75.2739992  55.3959978  15.7760014  74.7869992  54.6609978  15.4050014
  75.8229992  55.0019978  16.4540014  75.2815247  55.2421057  15.8168461
  73.7249992  51.1859978  20.4150014  72.8589992  51.0809978  20.8090014
  74.1009992  51.9439978  20.8610014  73.6573401  51.2741708  20.5292620
  75.0259992  49.4419978   5.9290014  75.8759992  49.8629978   6.0560014
  75.0309992  48.7019978   6.5360014  75.1431143  49.3996094   6.0284750
  75.4199992  47.4959978   7.7520014  74.6939992  47.0159978   8.1500014
  76.0019992  47.7009978   8.4850014  75.3992730  47.4580184   7.9054149
  75.1789992  50.2809978  12.7000014  76.0129992  49.9029978  12.4190014
  75.2909992  51.2239978  12.5810014  75.3081917  50.3567943  12.6454861
  73.6659992  53.1589978  15.0070014  73.0179992  53.4839978  15.6320014
  73.1479992  52.7179978  14.3330014  73.5074196  53.1438651  15.0014152
  75.6889992  47.3969978   4.1430014  75.1669992  47.7529978   3.4250014
  75.6559992  48.0719978   4.8220014  75.6130129  47.5369598   4.1363355
  74.0379992  44.6359978   2.6940014  74.1339992  45.3029978   2.0140014
  73.8979992  43.8209978   2.2130014  74.0322040  44.6170671   2.5358378
  73.2069992  46.0169978   8.3150014  73.0569992  45.0719978   8.2950014
  72.8529992  46.2979978   9.1590014  73.1386351  45.9256644   8.4263220
  58.2419992  48.0949978  12.3260014  58.4269992  48.0129978  11.3900014
  59.0919992  47.9709978  12.7490014  58.3820928  48.0670463  12.2552893
  74.0629992  47.9869978  17.9540014  74.6459992  47.2519978  18.1460014
  74.6269992  48.7589978  18.0010014  74.2189781  47.9908145  17.9866164
  75.5599992  45.8899978  18.6390014  74.6969992  45.5109978  18.4730014
  76.1639992  45.1509978  18.5640014  75.5236085  45.7383223  18.6061695
  73.2849992  42.0439978   1.8120014  73.8959992  41.6729978   2.4490014
  72.4479992  41.6229978   2.0080014  73.2554947  41.9362756   1.9257252
  72.9179992  43.5989978   6.7780014  73.1969992  42.6919978   6.9020014
  73.6769992  44.0329978   6.3890014  73.0588619  43.5334502   6.7423795
  73.5289992  44.1809978  12.2140014  74.4619992  44.3929978  12.1790014
  73.2939992  44.2819978  13.1360014  73.6249517  44.2236833  12.3339130
  73.5589992  44.9179978  14.9900014  72.7159992  45.1859978  15.3560014
  74.0009992  45.7399978  14.7790014  73.5034138  45.0658273  15.0115518
  57.8399992  43.3649978  18.4660014  58.7589992  43.2429978  18.7030014
  57.3899992  42.6149978  18.8560014  57.9050087  43.2469608  18.5511410
  75.8419992  38.8979978  20.3430014  76.1909992  38.2439978  19.7380014
  75.9889992  39.7349978  19.9030014  75.9096824  38.9216024  20.2006304
  73.5309992  40.8619978   6.8260014  73.7129992  40.4129978   7.6510014
  72.9309992  40.2779978   6.3620014  73.4748187  40.7215552   6.8762739
  59.0609992  41.6779978  11.3580014  59.5059992  40.8859978  11.6600014
  59.5269992  42.3939978  11.7880014  59.1849718  41.6664534  11.4575265
  57.3649992  44.6769978  12.4270014  57.8569992  44.4559978  11.6360014
  57.7269992  45.5169978  12.7080014  57.4812923  44.7603468  12.3567407
  75.3609992  41.0069978  18.6920014  74.4439992  41.2779978  18.6570014
  75.4839992  40.4719978  17.9080014  75.2519672  40.9717885  18.5811862
  75.3979992  40.9299978   3.3540014  75.8099992  40.2089978   2.8790014
  76.0789992  41.5989978   3.4120014  75.5465536  40.9217766   3.2968024
  57.6789992  40.9349978   6.4810014  56.7539992  41.1429978   6.3520014
  58.1329992  41.4189978   5.7910014  57.6136298  41.0289299   6.3700451
  72.4489992  55.9189978   8.4270014  73.1019992  55.5709978   7.8190014
  72.9599992  56.4069978   9.0730014  72.6072777  55.9373815   8.4312047
  57.6419992  39.6729978  14.8250014  56.9769992  39.4269978  15.4680014
  57.1989992  40.2949978  14.2480014  57.4911168  39.7234214  14.8349848
  59.8339992  52.8479978  18.9700014  59.0129992  53.0229978  18.5090014
  59.5819992  52.7749978  19.8900014  59.6875594  52.8620717  19.0313611
  62.7879992  53.8219978  15.2280014  62.3639992  54.6319978  14.9460014
  63.6929992  53.9079978  14.9260014  62.8522138  53.9444160  15.1486415
  67.0999992  55.2209978  18.1880014  67.2839992  54.8879978  19.0660014
  67.9459992  55.5309978  17.8660014  67.2396484  55.2172979  18.2647617
  69.4449992  56.5069978  17.4320014  70.1219992  55.8739978  17.1920014
  69.7659992  56.9079978  18.2390014  69.5811323  56.4745691  17.5083158
  74.3619992  39.0969978  16.5110014  73.5489992  39.4219978  16.1240014
  74.5949992  38.3359978  15.9780014  74.2821347  39.0386880  16.3859841
  60.1899992  57.0789978  15.2760014  59.4699992  57.5189978  14.8250014
  59.8249992  56.8279978  16.1240014  60.0419643  57.1053369  15.3289129
  62.6569992  56.6789978  14.3060014  61.7929992  56.7509978  14.7100014
  62.6019992  57.2259978  13.5220014  62.5311942  56.7627849  14.2554000
  67.3679992  56.5669978  13.4810014  66.9109992  57.0959978  12.8270014
  67.5309992  57.1699978  14.2060014  67.3274960  56.7209280  13.4895274
  69.6959992  55.4449978  14.4260014  68.7909992  55.6099978  14.1600014
  70.1239992  56.2979978  14.3600014  69.6301537  55.5829134  14.3807095
  72.2999992  57.0149978  14.7210014  72.1179992  57.9309978  14.5100014
  72.4769992  56.6039978  13.8740014  72.2990030  57.0848273  14.5777166
  59.6049992  55.7019978  12.1860014  59.5869992  55.2759978  13.0430014
  60.4099992  55.3829978  11.7770014  59.7112875  55.6006435  12.2479515
  61.7459992  54.4119978  10.8410014  61.5269992  53.4949978  11.0110014
  62.5699992  54.5519978  11.3070014  61.8274702  54.3055511  10.9272527
  64.2829992  54.8819978  11.6900014  64.4959992  53.9939978  11.4030014
  64.3479992  54.8469978  12.6440014  64.3209149  54.7558326  11.7797369
  67.7919992  40.5459978  10.8340014  67.1179992  39.9159978  11.0900014
  68.3559992  40.0619978  10.2310014  67.7760384  40.3943708  10.7875020
  72.9349992  38.6529978  10.9470014  73.5379992  39.2009978  10.4450014
  72.0649992  38.9719978  10.7060014  72.8999157  38.7710373  10.8457910
  74.6619992  39.7919978   9.2800014  75.2729992  39.2779978   8.7530014
  75.0439992  40.6689978   9.3030014  74.7973305  39.8402050   9.2109418
  60.1189992  39.1799978   8.6560014  59.3419992  38.9449978   8.1490014
  60.6489992  38.3829978   8.6650014  60.0843451  39.0401268   8.5878627
  58.9549992  38.9779978   4.4600014  59.3939992  39.5889978   3.8680014
  58.3209992  39.5159978   4.9340014  58.9293859  39.1344064   4.4430305
  64.6979992  39.1059978   8.4690014  65.5719992  39.4949978   8.4400014
  64.5619992  38.8909978   9.3920014  64.7991953  39.1301643   8.5897617
  70.2549992  39.1359978  10.1190014  70.3309992  39.2319978   9.1690014
  69.9799992  38.2289978  10.2470014  70.2281871  39.0264146  10.0063944
  71.6079992  39.1619978   5.8110014  70.9049992  39.7769978   5.6010014
  71.1629992  38.3249978   5.9420014  71.4516550  39.1329668   5.7999837
  58.8559992  54.9259978   5.3570014  58.1709992  54.8879978   4.6900014
  58.8599992  55.8389978   5.6450014  58.7627621  55.0441924   5.3046126
  60.8159992  40.8939978   2.9020014  61.3069992  40.2639978   2.3750014
  61.4389992  41.1899978   3.5650014  60.9675304  40.8477376   2.9194940
  65.8419992  41.1869978   5.3590014  66.0199992  40.5399978   6.0420014
  65.7879992  42.0209978   5.8260014  65.8590678  41.2111604   5.5156301
  67.7199992  56.1349978   3.7550014  68.5859992  56.5019978   3.5770014
  67.4739992  55.6959978   2.9410014  67.8052097  56.1258525   3.6206019
  74.4289992  55.6979978   6.4340014  74.2349992  54.9499978   5.8690014
  74.3899992  56.4559978   5.8510014  74.3971645  55.6980786   6.2778148
  60.0759992  39.6939978  18.1740014  59.7099992  38.9279978  18.6160014
  60.9889992  39.7229978  18.4600014  60.1493172  39.5930324  18.2731890
  62.0489992  39.0439978  19.7090014  62.9479992  38.7699978  19.5250014
  61.6629992  38.3019978  20.1740014  62.1197307  38.9062196  19.7467098
  60.6739992  55.8459978   2.3820014  60.4059992  56.1319978   3.2560014
  61.4449992  55.2999978   2.5350014  60.7415926  55.8112779   2.5221205
  70.4709992  38.3769978  19.8920014  70.5469992  37.9509978  20.7450014
  71.3639992  38.3899978  19.5490014  70.6022303  38.3203493  19.9625497
  73.6469992  54.4499978  18.5840014  72.8649992  54.2629978  18.0640014
  73.5749992  55.3789978  18.8010014  73.5301924  54.5500637  18.5421602
  88.0529992  48.3359978   8.6150014  88.1419992  49.2799978   8.4830014
  87.4149992  48.0609978   7.9570014  87.9789062  48.4279812   8.5079641
  86.9859992  47.5909978  12.0340014  86.9479992  46.9449978  12.7390014
  86.6639992  47.1239978  11.2630014  86.9372679  47.4394276  12.0262921
  79.3539992  47.2049978  13.6270014  79.3959992  46.5799978  14.3500014
  80.0569992  47.8289978  13.8090014  79.4547345  47.2037873  13.7505274
  90.6919992  50.5299978  10.3350014  90.2509992  49.8099978  10.7860014
  90.6789992  51.2509978  10.9650014  90.6299215  50.5289291  10.4818105
  80.2779992  51.6549978  12.1620014  79.9079992  50.8529978  11.7920014
  81.2189992  51.4869978  12.2080014  80.3545984  51.5224638  12.1175603
  76.8879992  45.3149978   7.5540014  76.4399992  46.1609978   7.5360014
  76.3269992  44.7359978   7.0390014  76.7508546  45.3523993   7.4818891
  77.5979992  47.4769978   9.6800014  77.8119992  46.7069978  10.2080014
  78.3359992  47.5669978   9.0770014  77.7270200  47.3838586   9.6707035
  87.8039992  55.6339978  10.5470014  88.4229992  54.9579978  10.2740014
  87.5949992  55.4159978  11.4560014  87.8606056  55.5118869  10.6323967
  85.3749992  50.0229978  12.4400014  85.6789992  49.3369978  11.8450014
  86.0969992  50.1419978  13.0580014  85.5141240  49.9452314  12.4420959
  94.0379992  41.6249978  13.3000014  94.0879992  42.2349978  14.0360014
  94.4639992  42.0859978  12.5770014  94.1024108  41.7707709  13.3030112
  88.5159992  44.4169978  12.7670014  88.6589992  43.4709978  12.7870014
  88.4099992  44.6239978  11.8390014  88.5212403  44.3154797  12.6442239
  81.6709992  42.5189978  10.0400014  81.7139992  43.3789978   9.6210014
  81.2129992  41.9669978   9.4060014  81.6149871  42.5619245   9.8970761
  89.3929992  42.6499978   8.4410014  90.0399992  42.3209978   9.0650014
  89.9029992  43.1669978   7.8180014  89.5504351  42.6749067   8.4421037
  78.2909992  44.9159978  10.8020014  78.9449992  44.3659978  11.2340014
  78.3149992  44.6419978   9.8850014  78.3837199  44.8037167  10.7371668
  83.4479992  46.4659978  10.0170014  84.0639992  45.9389978  10.5260014
  82.8609992  45.8259978   9.6130014  83.4530154  46.3073954  10.0320945
  94.4299992  43.1029978  15.5360014  93.7409992  43.7609978  15.4410014
  94.4449992  42.9049978  16.4730014  94.3377756  43.1662603  15.6495812
  80.4809992  41.4369978  14.1140014  80.2619992  41.9669978  13.3470014
  79.8129992  41.6629978  14.7610014  80.3606975  41.5400967  14.0965140
  87.8499992  50.9369978   7.6580014  87.5549992  50.6139978   6.8060014
  87.5259992  51.8369978   7.6990014  87.7658460  51.0144464   7.5469714
  83.0499992  49.1119978  14.4010014  82.3099992  49.7109978  14.5050014
  83.7639992  49.6659978  14.0860014  83.0453500  49.2687829  14.3726371
  91.1569992  41.9409978  10.4210014  90.9419992  41.1749978  10.9540014
  91.8129992  42.4129978  10.9340014  91.2162673  41.9000728  10.5631990
  80.0749992  43.3289978  12.0660014  80.6889992  43.9619978  12.4390014
  80.5869992  42.8569978  11.4100014  80.2281962  43.3517249  12.0282935
  81.4579992  51.0769978  15.1880014  81.4519992  51.9559978  14.8100014
  80.6039992  50.9929978  15.6130014  81.3417925  51.1859535  15.1936887
  77.5789992  50.7479978   5.9700014  77.3069992  50.9769978   5.0820014
  77.6239992  51.5849978   6.4310014  77.5478097  50.8926163   5.9106683
  91.2039992  52.3689978  12.6830014  90.2619992  52.4279978  12.8450014
  91.4799992  53.2749978  12.5460014  91.1125865  52.4995288  12.6866192
  91.5039992  40.6559978  14.1000014  90.7679992  41.2659978  14.0630014
  92.1879992  41.0709978  13.5740014  91.4955367  40.7957551  14.0238174
  84.5079992  38.7419978  11.5660014  84.3899992  37.7939978  11.5120014
  83.6529992  39.0749978  11.8390014  84.3762805  38.6572202  11.5955079
  89.4559992  54.1499978   9.3080014  89.8809992  53.4429978   8.8230014
  89.7729992  54.9519978   8.8910014  89.5570266  54.1615190   9.1852479
  90.6159992  52.0509978   7.8170014  90.3579992  51.3609978   7.2050014
  90.6869992  51.6079978   8.6620014  90.5903050  51.8966814   7.8475621
  92.3019992  50.6179978  16.2940014  92.4409992  50.0259978  15.5550014
  92.4689992  51.4909978  15.9380014  92.3436193  50.6548896  16.1446211
  86.7739992  47.5799978   6.0670014  86.0629992  48.1149978   5.7150014
  87.4649992  47.6349978   5.4070014  86.7700751  47.6606777   5.9295858
  86.8279992  46.0369978   3.1050014  87.5289992  46.0599978   3.7570014
  87.1299992  45.4089978   2.4490014  86.9648202  45.9552212   3.1055609
  94.1429992  46.9579978  14.3600014  93.4909992  47.6519978  14.4490014
  94.6089992  47.1679978  13.5500014  94.1165937  47.0815019  14.2627533
  90.1799992  47.7889978   7.0180014  89.4479992  48.0179978   7.5920014
  90.6269992  47.0759978   7.4730014  90.1403963  47.7238729   7.1579945
  90.0769992  45.9639978  16.0860014  90.1569992  46.7269978  16.6580014
  89.4759992  46.2429978  15.3960014  90.0066547  46.1062457  16.0710047
  81.8249992  48.4199978   8.9010014  81.4949992  48.0489978   8.0830014
  82.4139992  47.7489978   9.2480014  81.8593970  48.2786063   8.8359404
  83.1919992  51.8479978  11.5820014  83.0969992  51.2689978  10.8260014
  83.9209992  51.4769978  12.0780014  83.2776011  51.7185561  11.5456028
  82.1919992  47.1879978  12.5340014  82.7569992  47.3099978  11.7720014
  82.5109992  47.8259978  13.1730014  82.3124166  47.2908791  12.5160348
  88.5009992  52.6919978  13.2680014  88.2609992  53.3539978  13.9160014
  88.3029992  51.8569978  13.6930014  88.4413826  52.6698115  13.4141566
  83.0719992  51.5879978  17.2520014  82.7609992  52.3699978  17.7070014
  82.4219992  51.4349978  16.5660014  82.9415538  51.6744087  17.2215898
  89.0509992  46.9519978   4.7040014  89.6299992  47.1019978   5.4500014
  89.4649992  47.4219978   3.9800014  89.1863358  47.0360954   4.7083953
  79.9919992  47.7859978  16.4800014  80.0619992  48.4369978  17.1790014
  79.1009992  47.8889978  16.1450014  79.8811690  47.8889249  16.5303043
  86.7769992  53.6879978   8.1390014  87.2509992  53.9839978   8.9160014
  86.2139992  54.4269978   7.9060014  86.7657890  53.8283036   8.2138101
  81.3109992  53.6589978  18.0150014  81.3189992  53.5229978  17.0680014
  80.3949992  53.5419978  18.2670014  81.1882528  53.6245463  17.9193243
  92.7499992  38.7019978   4.5170014  91.8499992  38.8409978   4.8120014
  93.0019992  39.5329978   4.1150014  92.6608683  38.8334055   4.5030232
  80.8159992  47.4889978   6.4900014  80.5239992  48.2569978   5.9990014
  80.1409992  46.8299978   6.3270014  80.6848497  47.5049745   6.4008260
  93.9389992  53.0679978   2.8930014  94.0119992  54.0069978   3.0630014
  94.8439992  52.7629978   2.8370014  94.0714170  53.1553282   2.9087063
  76.9089992  49.8519978  15.3050014  76.4069992  49.8239978  14.4900014
  76.9139992  48.9469978  15.6150014  76.8409832  49.7257486  15.2354121
  76.6589992  52.6329978  12.1890014  77.6049992  52.4879978  12.1700014
  76.5459992  53.4169978  12.7260014  76.7733578  52.7191697  12.2590317
  94.8569992  53.2989978  17.8720014  94.8069992  52.3429978  17.8340014
  94.0299992  53.5659978  18.2730014  94.7383831  53.2044680  17.9210121
  85.8349992  52.8729978  16.7480014  85.9229992  53.6989978  17.2230014
  84.9719992  52.5429978  16.9970014  85.7303357  52.9415468  16.8467653
  86.2499992  56.6449978   6.5540014  86.1739992  56.5239978   5.6070014
  86.2819992  57.5939978   6.6720014  86.2439380  56.7567677   6.4405181
  79.9029992  55.4339978   8.3350014  80.0549992  55.0859978   9.2130014
  79.0519992  55.0769978   8.0790014  79.8088344  55.3380879   8.4206868
  89.3509992  55.7989978   3.5560014  89.7259992  55.0549978   3.0850014
  89.3559992  55.5289978   4.4740014  89.4030098  55.6606392   3.6156629
  89.0199992  55.7249978   6.3050014  88.0849992  55.8249978   6.4840014
  89.2999992  55.0149978   6.8840014  88.9299471  55.6427933   6.4076695
  92.0089992  44.7919978  18.3520014  91.6009992  45.2719978  17.6310014
  92.0489992  43.8859978  18.0440014  91.9586221  44.7352449  18.2118267
  79.1579992  51.1759978  16.3480014  79.3739992  50.8139978  17.2080014
  78.3019992  50.8009978  16.1390014  79.0718810  51.0758837  16.4372680
  81.7759992  39.6459978  12.3440014  80.9149992  39.5589978  11.9360014
  81.7539992  40.5019978  12.7720014  81.6550491  39.7498003  12.3459582
  86.4389992  39.3679978  15.7190014  86.8589992  38.9529978  16.4720014
  85.5059992  39.1889978  15.8360014  86.3703736  39.2869910  15.8378968
  89.7659992  43.1229978  16.5720014  89.2519992  42.9979978  17.3700014
  89.6099992  44.0359978  16.3280014  89.6746967  43.2292123  16.6480937
  90.5279992  47.9839978   2.3330014  90.5699992  47.7619978   1.4030014
  91.3769992  48.3829978   2.5230014  90.6485253  48.0075498   2.2313822
  86.1009992  41.8599978   3.0040014  85.8469992  41.8789978   3.9260014
  85.8439992  40.9889978   2.7020014  86.0314508  41.7448280   3.0894803
  81.8669992  44.6109978  13.4390014  81.2259992  44.5709978  14.1480014
  81.9049992  45.5379978  13.2010014  81.7843010  44.7307668  13.5039946
  81.8639992  44.8319978   8.3510014  80.9719992  44.4919978   8.2920014
  82.3149992  44.4549978   7.5950014  81.8027642  44.7344910   8.2407726
  87.3999992  45.2479978   7.1680014  86.9909992  46.0629978   6.8760014
  88.1199992  45.1079978   6.5540014  87.4414439  45.3405372   7.0450115
  86.5019992  45.4239978  18.6560014  85.9389992  44.7189978  18.9770014
  87.3279992  45.3029978  19.1240014  86.5366674  45.3112165  18.7631751
  88.4049992  44.6939978   9.9820014  88.2089992  45.2999978   9.2670014
  88.5859992  43.8609978   9.5480014  88.4026584  44.6642513   9.8254212
  79.6169992  44.9319978  15.3060014  79.5789992  45.3319978  16.1750014
  79.1269992  44.1149978  15.3960014  79.5455330  44.8762674  15.4371289
  82.9829992  42.3059978   2.1050014  82.5519992  41.8609978   2.8340014
  82.2649992  42.6769978   1.5920014  82.8269176  42.2952051   2.1354930
  76.2259992  42.0479978   9.1570014  76.8559992  42.0189978   9.8760014
  76.6749992  41.6229978   8.4260014  76.3730835  41.9865660   9.1567659
  77.4999992  42.7939978   4.5810014  77.9739992  43.3849978   3.9960014
  76.7819992  43.3239978   4.9280014  77.4678640  42.9465511   4.5477969
  87.6689992  46.3319978  14.6530014  87.9919992  45.7009978  14.0100014
  87.2279992  45.7979978  15.3140014  87.6536379  46.1733468  14.6542582
  84.4459992  42.2599978   9.4370014  83.5349992  42.3169978   9.7260014
  84.9509992  42.1999978  10.2480014  84.3896873  42.2596826   9.5861207
  79.2739992  43.8889978   8.2640014  78.3849992  43.9879978   7.9240014
  79.5709992  43.0469978   7.9180014  79.1924177  43.7887687   8.1706940
  82.9269992  43.8889978   5.9210014  83.8589992  44.0179978   6.0990014
  82.7119992  44.5579978   5.2710014  83.0254472  43.9970806   5.8574891
  88.8509992  41.4949978  12.7020014  88.1739992  41.6259978  13.3650014
  88.3659992  41.3399978  11.8910014  88.6927405  41.4919947  12.6832170
  81.6009992  45.0829978   3.4870014  81.0589992  44.7039978   2.7960014
  82.4349992  45.2779978   3.0590014  81.6394390  45.0574079   3.3344392
  92.1389992  57.1659978  18.9780014  92.3379992  57.5899978  18.1440014
  92.7939992  57.5099978  19.5850014  92.2548522  57.2706301  18.9457852
  79.7369992  49.6399978  18.5860014  80.4689992  49.8949978  19.1480014
  78.9559992  49.8449978  19.1020014  79.7316526  49.7025450  18.7325176
  85.7659992  45.0469978  11.3240014  86.3299992  44.5009978  10.7770014
  85.6179992  44.5259978  12.1130014  85.8233037  44.9016787  11.3557229
  80.7679992  41.1839978   7.7430014  80.4509992  40.2809978   7.7070014
  81.5489992  41.1859978   7.1900014  80.8302431  41.0607797   7.6633102
  84.3919992  43.4359978  13.7380014  83.5569992  43.8899978  13.8490014
  84.9159992  43.7119978  14.4900014  84.3486072  43.5353948  13.8548136
  84.9369992  49.6489978   5.4230014  84.1919992  49.1409978   5.1010014
  84.8019992  49.6979978   6.3690014  84.8168963  49.5861731   5.5068826
  92.0869992  48.7819978  14.2100014  92.7279992  49.2379978  13.6660014
  91.2559992  48.8949978  13.7470014  92.0625287  48.8596921  14.0729887
  88.8339992  42.4629978   3.6220014  87.8959992  42.5739978   3.4710014
  89.1319992  43.3189978   3.9290014  88.7456318  42.5940158   3.6428145
  86.4559992  49.8329978  16.6600014  86.1099992  49.4509978  17.4670014
  86.2559992  50.7659978  16.7310014  86.3815987  49.9069002  16.7800461
  89.5529992  44.3299978   5.2830014  90.4449992  44.1919978   5.6020014
  89.6089992  45.1209978   4.7460014  89.6827325  44.4179918   5.2541217
  80.0609992  48.9439978  11.1930014  80.8059992  48.9409978  10.5910014
  80.1389992  48.1199978  11.6740014  80.1733365  48.8322384  11.1757430
  87.0619992  51.1069978   4.4480014  86.7669992  51.9339978   4.8300014
  86.3589992  50.4879978   4.6450014  86.9266379  51.1364171   4.5268654
  77.0689992  47.4039978  16.5080014  77.2919992  46.9859978  17.3390014
  76.4669992  46.7919978  16.0850014  77.0181513  47.2639606  16.5646740
  84.0859992  46.9209978  18.7210014  83.7899992  46.7559978  17.8250014
  85.0169992  46.7009978  18.7100014  84.1714401  46.8686879  18.5970206
  88.7059992  52.2949978  16.6100014  87.8059992  52.4779978  16.3430014
  88.7399992  52.5539978  17.5310014  88.5873748  52.3550554  16.6979164
  94.4379992  44.5389978   4.9780014  93.8829992  44.1429978   4.3050014
  94.5379992  45.4499978   4.7000014  94.3756816  44.6079505   4.8485033
  94.4009992  50.3399978  17.8150014  93.5499992  50.5779978  17.4470014
  94.9909992  50.3229978  17.0620014  94.3643812  50.3702524  17.6628453
  92.7329992  53.3249978   5.4430014  92.3599992  52.4999978   5.7520014
  93.0099992  53.1419978   4.5450014  92.7193463  53.1872569   5.3639525
  89.8929992  48.1329978  12.4640014  88.9649992  47.9019978  12.4370014
  90.3439992  47.3559978  12.1340014  89.8268165  47.9962774  12.4156790
  82.4359992  52.4619978   8.5970014  82.9639992  53.2349978   8.3970014
  81.5559992  52.6859978   8.2950014  82.3893435  52.5982700   8.5287310
  78.1909992  47.3239978   3.1840014  78.8069992  47.9509978   3.5640014
  77.3289992  47.6399978   3.4560014  78.1587678  47.4524412   3.2727209
  83.8639992  50.1249978   8.1730014  83.6229992  51.0499978   8.2150014
  83.1229992  49.6659978   8.5700014  83.7309206  50.1895915   8.2323769
  84.3779992  54.2739978  14.4880014  84.7409992  55.1279978  14.2550014
  84.9099992  53.9819978  15.2290014  84.4995141  54.3513895  14.5562097
  82.5469992  55.1459978   7.7190014  81.5969992  55.2519978   7.7700014
  82.8989992  55.9669978   8.0630014  82.4645472  55.2714923   7.7724852
  87.9219992  50.3729978  14.1890014  87.4969992  50.1449978  15.0150014
  88.5029992  49.6339978  14.0070014  87.9423395  50.2419545  14.2774414
  90.1249992  51.3019978   3.2630014  90.4789992  50.9219978   4.0670014
  89.1769992  51.2079978   3.3500014  90.0452298  51.2372452   3.3848687
  90.5809992  54.9249978  16.6580014  89.9789992  54.3689978  16.1630014
  90.8619992  55.5919978  16.0320014  90.5365757  54.9390744  16.5055675
  94.6289992  55.7809978   3.4640014  95.3729992  56.3669978   3.3240014
  93.9349992  56.3499978   3.7970014  94.6369809  55.9380818   3.4898590
  78.7029992  42.1579978  16.0660014  77.8109992  42.4959978  15.9980014
  78.6049992  41.3019978  16.4840014  78.5674475  42.0886543  16.1131704
  90.9909992  49.9739978   5.4900014  90.7139992  49.2459978   6.0460014
  91.9189992  50.0929978   5.6950014  91.0784499  49.8904213   5.5938044
  78.3549992  53.9619978  14.5010014  78.5719992  53.0299978  14.4700014
  78.6009992  54.2369978  15.3840014  78.4179809  53.8715686  14.6161691
  84.2159992  52.4139978   1.7100014  84.4549992  51.6649978   1.1630014
  83.9469992  52.0259978   2.5430014  84.2123233  52.2591853   1.7477809
  83.1529992  51.9839978   4.1660014  83.2999992  51.4639978   4.9560014
  83.1499992  52.8909978   4.4730014  83.1727102  52.0353953   4.3155925
  79.6059992  49.2359978   4.6770014  78.9199992  49.5889978   5.2440014
  80.1289992  49.9989978   4.4300014  79.5828402  49.3873901   4.7211801
  87.4379992  41.8989978  14.9560014  88.1369992  41.9729978  15.6060014
  87.0569992  41.0339978  15.1100014  87.4822097  41.7922389  15.0657997
  88.2219992  41.5509978   6.0530014  88.4419992  42.0219978   5.2490014
  88.7809992  41.9449978   6.7230014  88.3276731  41.6687287   6.0335033
  85.8909992  53.6809978   4.9160014  85.0739992  54.1779978   4.9680014
  86.4199992  54.1569978   4.2750014  85.8508125  53.8131989   4.8365306
  85.4219992  43.2789978   6.8880014  86.2339992  43.7829978   6.9340014
  85.1779992  43.1339978   7.8020014  85.5001467  43.3283749   7.0178575
  85.9579992  44.2649978  16.0720014  86.0769992  44.8389978  16.8290014
  86.6129992  43.5769978  16.1870014  86.0628684  44.2505194  16.1911674
  86.3059992  40.3599978   7.8260014  85.9589992  40.9769978   8.4700014
  86.9649992  40.8609978   7.3440014  86.3475090  40.5121575   7.8490681
  83.2289992  54.7249978   4.8970014  83.3899992  55.5249978   4.3970014
  83.0319992  55.0319978   5.7820014  83.2243906  54.8758678   4.9482333
  81.9639992  41.4229978   4.5130014  81.8799992  42.3109978   4.8600014
  82.8539992  41.1579978   4.7450014  82.0728163  41.5087179   4.5918596
  92.1619992  42.1719978  16.9070014  91.2459992  42.4339978  16.8200014
  92.4979992  42.1689978  16.0110014  92.0818499  42.2075163  16.7738766
  90.7649992  45.9219978  11.0030014  89.9669992  45.5069978  10.6750014
  91.2099992  45.2319978  11.4940014  90.7159684  45.7718628  11.0245227
  80.2219992  51.8499978   3.5730014  80.8139992  52.5499978   3.8500014
  80.6809992  51.4169978   2.8540014  80.3651652  51.8872675   3.5136533
  78.5379992  44.5149978   2.6890014  78.4929992  45.4539978   2.8680014
  77.6499992  44.2789978   2.4200014  78.4118166  44.6116687   2.6771524
  91.8509992  55.1779978  12.6250014  91.6949992  55.8569978  11.9680014
  92.7839992  55.2499978  12.8280014  91.9557387  55.2806390  12.5625342
  79.3459992  39.2959978  11.3630014  79.1169992  39.3549978  10.4350014
  78.9039992  38.5049978  11.6690014  79.2548801  39.1970540  11.2774729
  78.2769992  53.2369978   7.5230014  77.4439992  53.7089978   7.5500014
  78.8219992  53.7469978   6.9240014  78.2367857  53.3704791   7.4457142
  77.5649992  55.8489978  18.8530014  78.1049992  55.6329978  19.6130014
  77.0839992  55.0439978  18.6630014  77.5739219  55.7105156  18.9314282
  82.1619992  54.7689978  20.4730014  82.9299992  54.3099978  20.8140014
  82.1409992  54.5429978  19.5430014  82.2642135  54.6756668  20.3939491
  86.2539992  54.2769978   1.8490014  85.6099992  53.6459978   2.1700014
  87.0159992  53.7459978   1.6170014  86.2688058  54.1187902   1.8616038
  88.7389992  53.1489978  19.2020014  88.3879992  52.2919978  19.4460014
  89.4649992  53.2909978  19.8090014  88.7891895  53.0511351  19.3173770
  90.8589992  54.0939978   2.0820014  91.1419992  53.2989978   2.5350014
  91.5979992  54.3269978   1.5210014  90.9977096  54.0167049   2.0681104
  77.4719992  49.6599978  19.8070014  77.6159992  48.7579978  19.5210014
  76.6999992  49.9459978  19.3200014  77.3872733  49.5751798  19.7019532
  81.8129992  50.0029978   1.9400014  81.8779992  49.2089978   2.4700014
  82.4659992  49.8849978   1.2500014  81.9101605  49.8783430   1.9192997
  84.1269992  49.6289978  19.2400014  83.7989992  49.8999978  18.3830014
  84.2789992  48.6879978  19.1520014  84.1026412  49.5389046  19.1107822
  87.1659992  51.0499978   1.6760014  86.8969992  51.2309978   2.5760014
  86.9589992  50.1249978   1.5440014  87.1011191  50.9497119   1.7815524
  89.8619992  49.5449978  16.6230014  90.6069992  50.1339978  16.5040014
  89.1049992  50.1269978  16.6870014  89.8615470  49.7042128  16.6153799
  78.3049992  46.8599978  19.2270014  78.7129992  46.0029978  19.1060014
  78.0439992  46.8739978  20.1480014  78.3256016  46.7445119  19.3349192
  82.9629992  47.9759978   4.2460014  82.5029992  47.4919978   4.9310014
  83.2179992  47.3069978   3.6100014  82.9344856  47.8193669   4.2538397
  82.2519992  45.8689978  16.6020014  81.6329992  46.5429978  16.8820014
  82.5959992  46.1899978  15.7680014  82.2137123  46.0046887  16.5276388
  84.0339992  46.2189978   2.5080014  83.8529992  46.0639978   1.5810014
  84.9839992  46.3269978   2.5530014  84.1376566  46.2123669   2.3870929
  87.2709992  48.3399978  19.8790014  88.2249992  48.4239978  19.8520014
  87.1109992  47.6279978  20.4990014  87.3797182  48.2552842  19.9590733
  93.4239992  48.5729978   1.9540014  93.1499992  48.1489978   1.1410014
  93.4629992  49.5049978   1.7370014  93.3917716  48.6408827   1.8134286
  82.5909992  43.2239978  17.6840014  82.7409992  42.4949978  17.0820014
  82.5929992  44.0009978  17.1250014  82.6117967  43.2292708  17.5260541
  83.0039992  41.5929978  15.1770014  83.5389992  42.0449978  14.5250014
  82.1509992  41.4849978  14.7540014  82.9620374  41.6402665  15.0306710
  84.5849992  47.0329978  15.4160014  85.3359992  46.8769978  14.8430014
  84.2459992  47.8849978  15.1410014  84.6419587  47.1268138  15.3004078
  89.0009992  44.8479978  20.4450014  89.1929992  43.9169978  20.3330014
  89.8589992  45.2729978  20.4340014  89.1432182  44.7780070  20.4281862
  90.3179992  47.6369978  18.5220014  90.0359992  48.3459978  17.9440014
  91.2599992  47.5639978  18.3710014  90.4067921  47.7242193  18.4224225
  81.0699992  44.4219978  19.5950014  80.3019992  43.8889978  19.3850014
  81.7479992  44.1119978  18.9960014  81.0567235  44.3071754  19.4852413
  83.8089992  39.0499978  15.6080014  83.7109992  39.9959978  15.5030014
  83.0669992  38.6769978  15.1320014  83.6952534  39.1291773  15.5292600
  85.0729992  43.3709978  19.1720014  84.8379992  43.1519978  20.0730014
  84.2899992  43.1639978  18.6620014  84.9349095  43.3129892  19.2265353
  87.7889992  42.4989978  18.2470014  86.8409992  42.5309978  18.3790014
  88.1009992  41.8729978  18.9010014  87.7015293  42.4187923  18.3534148
  89.4229992  41.1329978  20.2520014  89.3259992  40.1809978  20.2470014
  89.1009992  41.4009978  21.1130014  89.3662468  41.0390884  20.3676210
  79.2499992  42.3419978  19.3000014  79.4619992  41.6359978  18.6900014
  79.1389992  41.9049978  20.1440014  79.2640269  42.1861921  19.3305873
  84.0309992  38.3439978  18.2790014  84.7429992  37.7039978  18.2650014
  83.9299992  38.6099978  17.3660014  84.1147387  38.2924330  18.1535563
  84.3849992  40.0259978  20.3330014  84.2529992  39.5509978  19.5130014
  83.7849992  40.7709978  20.2780014  84.2859070  40.0615789  20.2133251
  83.9309992  56.9089978   3.5090014  84.8639992  57.0669978   3.6530014
  83.6669992  57.5849978   2.8840014  84.0229911  57.0219373   3.4442722
  77.4989992  51.5459978   2.9920014  78.4129992  51.6249978   3.2650014
  77.5069992  50.8589978   2.3260014  77.6250655  51.4639205   2.9392917
  76.1479992  56.9389978   8.0690014  75.5009992  56.4769978   7.5370014
  76.5029992  56.2669978   8.6520014  76.1073741  56.7849774   8.0749175
  77.0179992  55.0189978   9.8740014  76.6839992  54.1389978  10.0460014
  77.2409992  55.3649978  10.7390014  77.0023721  54.9451938  10.0144168
  94.5669992  55.8289978  12.8550014  94.5449992  56.0139978  13.7940014
  95.2569992  56.3969978  12.5140014  94.6573439  55.9311887  12.9374791
  94.1299992  55.3959978  15.7760014  93.6429992  54.6609978  15.4050014
  94.6789992  55.0019978  16.4540014  94.1375247  55.2421057  15.8168461
  92.5809992  51.1859978  20.4150014  91.7149992  51.0809978  20.8090014
  92.9569992  51.9439978  20.8610014  92.5133401  51.2741708  20.5292620
  93.8819992  49.4419978   5.9290014  94.7319992  49.8629978   6.0560014
  93.8869992  48.7019978   6.5360014  93.9991143  49.3996094   6.0284750
  94.2759992  47.4959978   7.7520014  93.5499992  47.0159978   8.1500014
  94.8579992  47.7009978   8.4850014  94.2552730  47.4580184   7.9054149
  94.0349992  50.2809978  12.7000014  94.8689992  49.9029978  12.4190014
  94.1469992  51.2239978  12.5810014  94.1641917  50.3567943  12.6454861
  92.5219992  53.1589978  15.0070014  91.8739992  53.4839978  15.6320014
  92.0039992  52.7179978  14.3330014  92.3634196  53.1438651  15.0014152
  94.5449992  47.3969978   4.1430014  94.0229992  47.7529978   3.4250014
  94.5119992  48.0719978   4.8220014  94.4690129  47.5369598   4.1363355
  92.8939992  44.6359978   2.6940014  92.9899992  45.3029978   2.0140014
  92.7539992  43.8209978   2.2130014  92.8882040  44.6170671   2.5358378
  92.0629992  46.0169978   8.3150014  91.9129992  45.0719978   8.2950014
  91.7089992  46.2979978   9.1590014  91.9946351  45.9256644   8.4263220
  77.0979992  48.0949978  12.3260014  77.2829992  48.0129978  11.3900014
  77.9479992  47.9709978  12.7490014  77.2380928  48.0670463  12.2552893
  92.9189992  47.9869978  17.9540014  93.5019992  47.2519978  18.1460014
  93.4829992  48.7589978  18.0010014  93.0749781  47.9908145  17.9866164
  94.4159992  45.8899978  18.6390014  93.5529992  45.5109978  18.4730014
  95.0199992  45.1509978  18.5640014  94.3796085  45.7383223  18.6061695
  92.1409992  42.0439978   1.8120014  92.7519992  41.6729978   2.4490014
  91.3039992  41.6229978   2.0080014  92.1114947  41.9362756   1.9257252
  91.7739992  43.5989978   6.7780014  92.0529992  42.6919978   6.9020014
  92.5329992  44.0329978   6.3890014  91.9148619  43.5334502   6.7423795
  92.3849992  44.1809978  12.2140014  93.3179992  44.3929978  12.1790014
  92.1499992  44.2819978  13.1360014  92.4809517  44.2236833  12.3339130
  92.4149992  44.9179978  14.9900014  91.5719992  45.1859978  15.3560014
  92.8569992  45.7399978  14.7790014  92.3594138  45.0658273  15.0115518
  76.6959992  43.3649978  18.4660014  77.6149992  43.2429978  18.7030014
  76.2459992  42.6149978  18.8560014  76.7610087  43.2469608  18.5511410
  94.6979992  38.8979978  20.3430014  95.0469992  38.2439978  19.7380014
  94.8449992  39.7349978  19.9030014  94.7656824  38.9216024  20.2006304
  92.3869992  40.8619978   6.8260014  92.5689992  40.4129978   7.6510014
  91.7869992  40.2779978   6.3620014  92.3308187  40.7215552   6.8762739
  77.9169992  41.6779978  11.3580014  78.3619992  40.8859978  11.6600014
  78.3829992  42.3939978  11.7880014  78.0409718  41.6664534  11.4575265
  76.2209992  44.6769978  12.4270014  76.7129992  44.4559978  11.6360014
  76.5829992  45.5169978  12.7080014  76.3372923  44.7603468  12.3567407
  94.2169992  41.0069978  18.6920014  93.2999992  41.2779978  18.6570014
  94.3399992  40.4719978  17.9080014  94.1079672  40.9717885  18.5811862
  94.2539992  40.9299978   3.3540014  94.6659992  40.2089978   2.8790014
  94.9349992  41.5989978   3.4120014  94.4025536  40.9217766   3.2968024
  76.5349992  40.9349978   6.4810014  75.6099992  41.1429978   6.3520014
  76.9889992  41.4189978   5.7910014  76.4696298  41.0289299   6.3700451
  91.3049992  55.9189978   8.4270014  91.9579992  55.5709978   7.8190014
  91.8159992  56.4069978   9.0730014  91.4632777  55.9373815   8.4312047
  76.4979992  39.6729978  14.8250014  75.8329992  39.4269978  15.4680014
  76.0549992  40.2949978  14.2480014  76.3471168  39.7234214  14.8349848
  78.6899992  52.8479978  18.9700014  77.8689992  53.0229978  18.5090014
  78.4379992  52.7749978  19.8900014  78.5435594  52.8620717  19.0313611
  81.6439992  53.8219978  15.2280014  81.2199992  54.6319978  14.9460014
  82.5489992  53.9079978  14.9260014  81.7082138  53.9444160  15.1486415
  85.9559992  55.2209978  18.1880014  86.1399992  54.8879978  19.0660014
  86.8019992  55.5309978  17.8660014  86.0956484  55.2172979  18.2647617
  88.3009992  56.5069978  17.4320014  88.9779992  55.8739978  17.1920014
  88.6219992  56.9079978  18.2390014  88.4371323  56.4745691  17.5083158
  93.2179992  39.0969978  16.5110014  92.4049992  39.4219978  16.1240014
  93.4509992  38.3359978  15.9780014  93.1381347  39.0386880  16.3859841
  79.0459992  57.0789978  15.2760014  78.3259992  57.5189978  14.8250014
  78.6809992  56.8279978  16.1240014  78.8979643  57.1053369  15.3289129
  81.5129992  56.6789978  14.3060014  80.6489992  56.7509978  14.7100014
  81.4579992  57.2259978  13.5220014  81.3871942  56.7627849  14.2554000
  86.2239992  56.5669978  13.4810014  85.7669992  57.0959978  12.8270014
  86.3869992  57.1699978  14.2060014  86.1834960  56.7209280  13.4895274
  88.5519992  55.4449978  14.4260014  87.6469992  55.6099978  14.1600014
  88.9799992  56.2979978  14.3600014  88.4861537  55.5829134  14.3807095
  91.1559992  57.0149978  14.7210014  90.9739992  57.9309978  14.5100014
  91.3329992  56.6039978  13.8740014  91.1550030  57.0848273  14.5777166
  78.4609992  55.7019978  12.1860014  78.4429992  55.2759978  13.0430014
  79.2659992  55.3829978  11.7770014  78.5672875  55.6006435  12.2479515
  80.6019992  54.4119978  10.8410014  80.3829992  53.4949978  11.0110014
  81.4259992  54.5519978  11.3070014  80.6834702  54.3055511  10.9272527
  83.1389992  54.8819978  11.6900014  83.3519992  53.9939978  11.4030014
  83.2039992  54.8469978  12.6440014  83.1769149  54.7558326  11.7797369
  86.6479992  40.5459978  10.8340014  85.9739992  39.9159978  11.0900014
  87.2119992  40.0619978  10.2310014  86.6320384  40.3943708  10.7875020
  91.7909992  38.6529978  10.9470014  92.3939992  39.2009978  10.4450014
  90.9209992  38.9719978  10.7060014  91.7559157  38.7710373  10.8457910
  93.5179992  39.7919978   9.2800014  94.1289992  39.2779978   8.7530014
  93.8999992  40.6689978   9.3030014  93.6533305  39.8402050   9.2109418
  78.9749992  39.1799978   8.6560014  78.1979992  38.9449978   8.1490014
  79.5049992  38.3829978   8.6650014  78.9403451  39.0401268   8.5878627
  77.8109992  38.9779978   4.4600014  78.2499992  39.5889978   3.8680014
  77.1769992  39.5159978   4.9340014  77.7853859  39.1344064   4.4430305
  83.5539992  39.1059978   8.4690014  84.4279992  39.4949978   8.4400014
  83.4179992  38.8909978   9.3920014  83.6551953  39.1301643   8.5897617
  89.1109992  39.1359978  10.1190014  89.1869992  39.2319978   9.1690014
  88.8359992  38.2289978  10.2470014  89.0841871  39.0264146  10.0063944
  90.4639992  39.1619978   5.8110014  89.7609992  39.7769978   5.6010014
  90.0189992  38.3249978   5.9420014  90.3076550  39.1329668   5.7999837
  77.7119992  54.9259978   5.3570014  77.0269992  54.8879978   4.6900014
  77.7159992  55.8389978   5.6450014  77.6187621  55.0441924   5.3046126
  79.6719992  40.8939978   2.9020014  80.1629992  40.2639978   2.3750014
  80.2949992  41.1899978   3.5650014  79.8235304  40.8477376   2.9194940
  84.6979992  41.1869978   5.3590014  84.8759992  40.5399978   6.0420014
  84.6439992  42.0209978   5.8260014  84.7150678  41.2111604   5.5156301
  86.5759992  56.1349978   3.7550014  87.4419992  56.5019978   3.5770014
  86.3299992  55.6959978   2.9410014  86.6612097  56.1258525   3.6206019
  93.2849992  55.6979978   6.4340014  93.0909992  54.9499978   5.8690014
  93.2459992  56.4559978   5.8510014  93.2531645  55.6980786   6.2778148
  78.9319992  39.6939978  18.1740014  78.5659992  38.9279978  18.6160014
  79.8449992  39.7229978  18.4600014  79.0053172  39.5930324  18.2731890
  80.9049992  39.0439978  19.7090014  81.8039992  38.7699978  19.5250014
  80.5189992  38.3019978  20.1740014  80.9757307  38.9062196  19.7467098
  79.5299992  55.8459978   2.3820014  79.2619992  56.1319978   3.2560014
  80.3009992  55.2999978   2.5350014  79.5975926  55.8112779   2.5221205
  89.3269992  38.3769978  19.8920014  89.4029992  37.9509978  20.7450014
  90.2199992  38.3899978  19.5490014  89.4582303  38.3203493  19.9625497
  92.5029992  54.4499978  18.5840014  91.7209992  54.2629978  18.0640014
  92.4309992  55.3789978  18.8010014  92.3861924  54.5500637  18.5421602
 106.9089992  48.3359978   8.6150014 106.9979992  49.2799978   8.4830014
 106.2709992  48.0609978   7.9570014 106.8349062  48.4279812   8.5079641
 105.8419992  47.5909978  12.0340014 105.8039992  46.9449978  12.7390014
 105.5199992  47.1239978  11.2630014 105.7932679  47.4394276  12.0262921
  98.2099992  47.2049978  13.6270014  98.2519992  46.5799978  14.3500014
  98.9129992  47.8289978  13.8090014  98.3107345  47.2037873  13.7505274
 109.5479992  50.5299978  10.3350014 109.1069992  49.8099978  10.7860014
 109.5349992  51.2509978  10.9650014 109.4859215  50.5289291  10.4818105
  99.1339992  51.6549978  12.1620014  98.7639992  50.8529978  11.7920014
 100.0749992  51.4869978  12.2080014  99.2105984  51.5224638  12.1175603
  95.7439992  45.3149978   7.5540014  95.2959992  46.1609978   7.5360014
  95.1829992  44.7359978   7.0390014  95.6068546  45.3523993   7.4818891
  96.4539992  47.4769978   9.6800014  96.6679992  46.7069978  10.2080014
  97.1919992  47.5669978   9.0770014  96.5830200  47.3838587   9.6707035
 106.6599992  55.6339978  10.5470014 107.2789992  54.9579978  10.2740014
 106.4509992  55.4159978  11.4560014 106.7166056  55.5118869  10.6323967
 104.2309992  50.0229978  12.4400014 104.5349992  49.3369978  11.8450014
 104.9529992  50.1419978  13.0580014 104.3701240  49.9452314  12.4420959
 112.8939992  41.6249978  13.3000014 112.9439992  42.2349978  14.0360014
 113.3199992  42.0859978  12.5770014 112.9584108  41.7707709  13.3030112
 107.3719992  44.4169978  12.7670014 107.5149992  43.4709978  12.7870014
 107.2659992  44.6239978  11.8390014 107.3772403  44.3154797  12.6442239
 100.5269992  42.5189978  10.0400014 100.5699992  43.3789978   9.6210014
 100.0689992  41.9669978   9.4060014 100.4709871  42.5619245   9.8970761
 108.2489992  42.6499978   8.4410014 108.8959992  42.3209978   9.0650014
 108.7589992  43.1669978   7.8180014 108.4064351  42.6749067   8.4421037
  97.1469992  44.9159978  10.8020014  97.8009992  44.3659978  11.2340014
  97.1709992  44.6419978   9.8850014  97.2397199  44.8037167  10.7371668
 102.3039992  46.4659978  10.0170014 102.9199992  45.9389978  10.5260014
 101.7169992  45.8259978   9.6130014 102.3090154  46.3073954  10.0320945
 113.2859992  43.1029978  15.5360014 112.5969992  43.7609978  15.4410014
 113.3009992  42.9049978  16.4730014 113.1937756  43.1662603  15.6495812
  99.3369992  41.4369978  14.1140014  99.1179992  41.9669978  13.3470014
  98.6689992  41.6629978  14.7610014  99.2166975  41.5400967  14.0965140
 106.7059992  50.9369978   7.6580014 106.4109992  50.6139978   6.8060014
 106.3819992  51.8369978   7.6990014 106.6218460  51.0144464   7.5469714
 101.9059992  49.1119978  14.4010014 101.1659992  49.7109978  14.5050014
 102.6199992  49.6659978  14.0860014 101.9013500  49.2687829  14.3726371
 110.0129992  41.9409978  10.4210014 109.7979992  41.1749978  10.9540014
 110.6689992  42.4129978  10.9340014 110.0722673  41.9000728  10.5631990
  98.9309992  43.3289978  12.0660014  99.5449992  43.9619978  12.4390014
  99.4429992  42.8569978  11.4100014  99.0841962  43.3517249  12.0282935
 100.3139992  51.0769978  15.1880014 100.3079992  51.9559978  14.8100014
  99.4599992  50.9929978  15.6130014 100.1977925  51.1859535  15.1936887
  96.4349992  50.7479978   5.9700014  96.1629992  50.9769978   5.0820014
  96.4799992  51.5849978   6.4310014  96.4038097  50.8926163   5.9106683
 110.0599992  52.3689978  12.6830014 109.1179992  52.4279978  12.8450014
 110.3359992  53.2749978  12.5460014 109.9685865  52.4995288  12.6866192
 110.3599992  40.6559978  14.1000014 109.6239992  41.2659978  14.0630014
 111.0439992  41.0709978  13.5740014 110.3515367  40.7957551  14.0238174
 103.3639992  38.7419978  11.5660014 103.2459992  37.7939978  11.5120014
 102.5089992  39.0749978  11.8390014 103.2322805  38.6572202  11.5955079
 108.3119992  54.1499978   9.3080014 108.7369992  53.4429978   8.8230014
 108.6289992  54.9519978   8.8910014 108.4130266  54.1615190   9.1852479
 109.4719992  52.0509978   7.8170014 109.2139992  51.3609978   7.2050014
 109.5429992  51.6079978   8.6620014 109.4463050  51.8966814   7.8475621
 111.1579992  50.6179978  16.2940014 111.2969992  50.0259978  15.5550014
 111.3249992  51.4909978  15.9380014 111.1996193  50.6548896  16.1446211
 105.6299992  47.5799978   6.0670014 104.9189992  48.1149978   5.7150014
 106.3209992  47.6349978   5.4070014 105.6260751  47.6606777   5.9295858
 105.6839992  46.0369978   3.1050014 106.3849992  46.0599978   3.7570014
 105.9859992  45.4089978   2.4490014 105.8208202  45.9552212   3.1055609
 112.9989992  46.9579978  14.3600014 112.3469992  47.6519978  14.4490014
 113.4649992  47.1679978  13.5500014 112.9725937  47.0815019  14.2627533
 109.0359992  47.7889978   7.0180014 108.3039992  48.0179978   7.5920014
 109.4829992  47.0759978   7.4730014 108.9963963  47.7238729   7.1579945
 108.9329992  45.9639978  16.0860014 109.0129992  46.7269978  16.6580014
 108.3319992  46.2429978  15.3960014 108.8626547  46.1062457  16.0710047
 100.6809992  48.4199978   8.9010014 100.3509992  48.0489978   8.0830014
 101.2699992  47.7489978   9.2480014 100.7153970  48.2786063   8.8359404
 102.0479992  51.8479978  11.5820014 101.9529992  51.2689978  10.8260014
 102.7769992  51.4769978  12.0780014 102.1336011  51.7185561  11.5456028
 101.0479992  47.1879978  12.5340014 101.6129992  47.3099978  11.7720014
 101.3669992  47.8259978  13.1730014 101.1684166  47.2908791  12.5160348
 107.3569992  52.6919978  13.2680014 107.1169992  53.3539978  13.9160014
 107.1589992  51.8569978  13.6930014 107.2973826  52.6698115  13.4141566
 101.9279992  51.5879978  17.2520014 101.6169992  52.3699978  17.7070014
 101.2779992  51.4349978  16.5660014 101.7975538  51.6744087  17.2215898
 107.9069992  46.9519978   4.7040014 108.4859992  47.1019978   5.4500014
 108.3209992  47.4219978   3.9800014 108.0423358  47.0360954   4.7083953
  98.8479992  47.7859978  16.4800014  98.9179992  48.4369978  17.1790014
  97.9569992  47.8889978  16.1450014  98.7371690  47.8889249  16.5303043
 105.6329992  53.6879978   8.1390014 106.1069992  53.9839978   8.9160014
 105.0699992  54.4269978   7.9060014 105.6217890  53.8283036   8.2138101
 100.1669992  53.6589978  18.0150014 100.1749992  53.5229978  17.0680014
  99.2509992  53.5419978  18.2670014 100.0442528  53.6245463  17.9193243
 111.6059992  38.7019978   4.5170014 110.7059992  38.8409978   4.8120014
 111.8579992  39.5329978   4.1150014 111.5168683  38.8334055   4.5030232
  99.6719992  47.4889978   6.4900014  99.3799992  48.2569978   5.9990014
  98.9969992  46.8299978   6.3270014  99.5408497  47.5049745   6.4008260
 112.7949992  53.0679978   2.8930014 112.8679992  54.0069978   3.0630014
 113.6999992  52.7629978   2.8370014 112.9274170  53.1553282   2.9087063
  95.7649992  49.8519978  15.3050014  95.2629992  49.8239978  14.4900014
  95.7699992  48.9469978  15.6150014  95.6969832  49.7257486  15.2354121
  95.5149992  52.6329978  12.1890014  96.4609992  52.4879978  12.1700014
  95.4019992  53.4169978  12.7260014  95.6293578  52.7191697  12.2590317
 113.7129992  53.2989978  17.8720014 113.6629992  52.3429978  17.8340014
 112.8859992  53.5659978  18.2730014 113.5943831  53.2044680  17.9210121
 104.6909992  52.8729978  16.7480014 104.7789992  53.6989978  17.2230014
 103.8279992  52.5429978  16.9970014 104.5863357  52.9415468  16.8467653
 105.1059992  56.6449978   6.5540014 105.0299992  56.5239978   5.6070014
 105.1379992  57.5939978   6.6720014 105.0999380  56.7567677   6.4405181
  98.7589992  55.4339978   8.3350014  98.9109992  55.0859978   9.2130014
  97.9079992  55.0769978   8.0790014  98.6648344  55.3380879   8.4206868
 108.2069992  55.7989978   3.5560014 108.5819992  55.0549978   3.0850014
 108.2119992  55.5289978   4.4740014 108.2590098  55.6606392   3.6156629
 107.8759992  55.7249978   6.3050014 106.9409992  55.8249978   6.4840014
 108.1559992  55.0149978   6.8840014 107.7859471  55.6427933   6.4076695
 110.8649992  44.7919978  18.3520014 110.4569992  45.2719978  17.6310014
 110.9049992  43.8859978  18.0440014 110.8146221  44.7352449  18.2118267
  98.0139992  51.1759978  16.3480014  98.2299992  50.8139978  17.2080014
  97.1579992  50.8009978  16.1390014  97.9278810  51.0758837  16.4372680
 100.6319992  39.6459978  12.3440014  99.7709992  39.5589978  11.9360014
 100.6099992  40.5019978  12.7720014 100.5110491  39.7498003  12.3459582
 105.2949992  39.3679978  15.7190014 105.7149992  38.9529978  16.4720014
 104.3619992  39.1889978  15.8360014 105.2263736  39.2869910  15.8378968
 108.6219992  43.1229978  16.5720014 108.1079992  42.9979978  17.3700014
 108.4659992  44.0359978  16.3280014 108.5306967  43.2292123  16.6480937
 109.3839992  47.9839978   2.3330014 109.4259992  47.7619978   1.4030014
 110.2329992  48.3829978   2.5230014 109.5045253  48.0075498   2.2313822
 104.9569992  41.8599978   3.0040014 104.7029992  41.8789978   3.9260014
 104.6999992  40.9889978   2.7020014 104.8874508  41.7448280   3.0894803
 100.7229992  44.6109978  13.4390014 100.0819992  44.5709978  14.1480014
 100.7609992  45.5379978  13.2010014 100.6403010  44.7307668  13.5039946
 100.7199992  44.8319978   8.3510014  99.8279992  44.4919978   8.2920014
 101.1709992  44.4549978   7.5950014 100.6587642  44.7344910   8.2407726
 106.2559992  45.2479978   7.1680014 105.8469992  46.0629978   6.8760014
 106.9759992  45.1079978   6.5540014 106.2974439  45.3405372   7.0450115
 105.3579992  45.4239978  18.6560014 104.7949992  44.7189978  18.9770014
 106.1839992  45.3029978  19.1240014 105.3926674  45.3112165  18.7631751
 107.2609992  44.6939978   9.9820014 107.0649992  45.2999978   9.2670014
 107.4419992  43.8609978   9.5480014 107.2586584  44.6642513   9.8254212
  98.4729992  44.9319978  15.3060014  98.4349992  45.3319978  16.1750014
  97.9829992  44.1149978  15.3960014  98.4015330  44.8762674  15.4371289
 101.8389992  42.3059978   2.1050014 101.4079992  41.8609978   2.8340014
 101.1209992  42.6769978   1.5920014 101.6829176  42.2952051   2.1354930
  95.0819992  42.0479978   9.1570014  95.7119992  42.0189978   9.8760014
  95.5309992  41.6229978   8.4260014  95.2290835  41.9865660   9.1567659
  96.3559992  42.7939978   4.5810014  96.8299992  43.3849978   3.9960014
  95.6379992  43.3239978   4.9280014  96.3238640  42.9465511   4.5477969
 106.5249992  46.3319978  14.6530014 106.8479992  45.7009978  14.0100014
 106.0839992  45.7979978  15.3140014 106.5096379  46.1733468  14.6542582
 103.3019992  42.2599978   9.4370014 102.3909992  42.3169978   9.7260014
 103.8069992  42.1999978  10.2480014 103.2456873  42.2596826   9.5861207
  98.1299992  43.8889978   8.2640014  97.2409992  43.9879978   7.9240014
  98.4269992  43.0469978   7.9180014  98.0484177  43.7887687   8.1706940
 101.7829992  43.8889978   5.9210014 102.7149992  44.0179978   6.0990014
 101.5679992  44.5579978   5.2710014 101.8814472  43.9970806   5.8574891
 107.7069992  41.4949978  12.7020014 107.0299992  41.6259978  13.3650014
 107.2219992  41.3399978  11.8910014 107.5487405  41.4919947  12.6832170
 100.4569992  45.0829978   3.4870014  99.9149992  44.7039978   2.7960014
 101.2909992  45.2779978   3.0590014 100.4954390  45.0574079   3.3344392
 110.9949992  57.1659978  18.9780014 111.1939992  57.5899978  18.1440014
 111.6499992  57.5099978  19.5850014 111.1108522  57.2706301  18.9457852
  98.5929992  49.6399978  18.5860014  99.3249992  49.8949978  19.1480014
  97.8119992  49.8449978  19.1020014  98.5876526  49.7025450  18.7325176
 104.6219992  45.0469978  11.3240014 105.1859992  44.5009978  10.7770014
 104.4739992  44.5259978  12.1130014 104.6793037  44.9016787  11.3557229
  99.6239992  41.1839978   7.7430014  99.3069992  40.2809978   7.7070014
 100.4049992  41.1859978   7.1900014  99.6862431  41.0607797   7.6633102
 103.2479992  43.4359978  13.7380014 102.4129992  43.8899978  13.8490014
 103.7719992  43.7119978  14.4900014 103.2046072  43.5353948  13.8548136
 103.7929992  49.6489978   5.4230014 103.0479992  49.1409978   5.1010014
 103.6579992  49.6979978   6.3690014 103.6728963  49.5861731   5.5068826
 110.9429992  48.7819978  14.2100014 111.5839992  49.2379978  13.6660014
 110.1119992  48.8949978  13.7470014 110.9185287  48.8596921  14.0729887
 107.6899992  42.4629978   3.6220014 106.7519992  42.5739978   3.4710014
 107.9879992  43.3189978   3.9290014 107.6016318  42.5940158   3.6428145
 105.3119992  49.8329978  16.6600014 104.9659992  49.4509978  17.4670014
 105.1119992  50.7659978  16.7310014 105.2375987  49.9069002  16.7800461
 108.4089992  44.3299978   5.2830014 109.3009992  44.1919978   5.6020014
 108.4649992  45.1209978   4.7460014 108.5387325  44.4179918   5.2541217
  98.9169992  48.9439978  11.1930014  99.6619992  48.9409978  10.5910014
  98.9949992  48.1199978  11.6740014  99.0293365  48.8322384  11.1757430
 105.9179992  51.1069978   4.4480014 105.6229992  51.9339978   4.8300014
 105.2149992  50.4879978   4.6450014 105.7826379  51.1364171   4.5268654
  95.9249992  47.4039978  16.5080014  96.1479992  46.9859978  17.3390014
  95.3229992  46.7919978  16.0850014  95.8741513  47.2639606  16.5646740
 102.9419992  46.9209978  18.7210014 102.6459992  46.7559978  17.8250014
 103.8729992  46.7009978  18.7100014 103.0274401  46.8686879  18.5970206
 107.5619992  52.2949978  16.6100014 106.6619992  52.4779978  16.3430014
 107.5959992  52.5539978  17.5310014 107.4433748  52.3550554  16.6979164
 113.2939992  44.5389978   4.9780014 112.7389992  44.1429978   4.3050014
 113.3939992  45.4499978   4.7000014 113.2316816  44.6079505   4.8485033
 113.2569992  50.3399978  17.8150014 112.4059992  50.5779978  17.4470014
 113.8469992  50.3229978  17.0620014 113.2203812  50.3702524  17.6628453
 111.5889992  53.3249978   5.4430014 111.2159992  52.4999978   5.7520014
 111.8659992  53.1419978   4.5450014 111.5753463  53.1872569   5.3639525
 108.7489992  48.1329978  12.4640014 107.8209992  47.9019978  12.4370014
 109.1999992  47.3559978  12.1340014 108.6828165  47.9962774  12.4156790
 101.2919992  52.4619978   8.5970014 101.8199992  53.2349978   8.3970014
 100.4119992  52.6859978   8.2950014 101.2453435  52.5982700   8.5287310
  97.0469992  47.3239978   3.1840014  97.6629992  47.9509978   3.5640014
  96.1849992  47.6399978   3.4560014  97.0147678  47.4524412   3.2727209
 102.7199992  50.1249978   8.1730014 102.4789992  51.0499978   8.2150014
 101.9789992  49.6659978   8.5700014 102.5869206  50.1895915   8.2323769
 103.2339992  54.2739978  14.4880014 103.5969992  55.1279978  14.2550014
 103.7659992  53.9819978  15.2290014 103.3555141  54.3513895  14.5562097
 101.4029992  55.1459978   7.7190014 100.4529992  55.2519978   7.7700014
 101.7549992  55.9669978   8.0630014 101.3205472  55.2714923   7.7724852
 106.7779992  50.3729978  14.1890014 106.3529992  50.1449978  15.0150014
 107.3589992  49.6339978  14.0070014 106.7983395  50.2419545  14.2774414
 108.9809992  51.3019978   3.2630014 109.3349992  50.9219978   4.0670014
 108.0329992  51.2079978   3.3500014 108.9012298  51.2372452   3.3848687
 109.4369992  54.9249978  16.6580014 108.8349992  54.3689978  16.1630014
 109.7179992  55.5919978  16.0320014 109.3925757  54.9390744  16.5055675
 113.4849992  55.7809978   3.4640014 114.2289992  56.3669978   3.3240014
 112.7909992  56.3499978   3.7970014 113.4929809  55.9380818   3.4898590
  97.5589992  42.1579978  16.0660014  96.6669992  42.4959978  15.9980014
  97.4609992  41.3019978  16.4840014  97.4234475  42.0886543  16.1131704
 109.8469992  49.9739978   5.4900014 109.5699992  49.2459978   6.0460014
 110.7749992  50.0929978   5.6950014 109.9344499  49.8904213   5.5938044
  97.2109992  53.9619978  14.5010014  97.4279992  53.0299978  14.4700014
  97.4569992  54.2369978  15.3840014  97.2739809  53.8715686  14.6161691
 103.0719992  52.4139978   1.7100014 103.3109992  51.6649978   1.1630014
 102.8029992  52.0259978   2.5430014 103.0683233  52.2591853   1.7477809
 102.0089992  51.9839978   4.1660014 102.1559992  51.4639978   4.9560014
 102.0059992  52.8909978   4.4730014 102.0287102  52.0353953   4.3155925
  98.4619992  49.2359978   4.6770014  97.7759992  49.5889978   5.2440014
  98.9849992  49.9989978   4.4300014  98.4388402  49.3873901   4.7211801
 106.2939992  41.8989978  14.9560014 106.9929992  41.9729978  15.6060014
 105.9129992  41.0339978  15.1100014 106.3382097  41.7922389  15.0657997
 107.0779992  41.5509978   6.0530014 107.2979992  42.0219978   5.2490014
 107.6369992  41.9449978   6.7230014 107.1836731  41.6687287   6.0335033
 104.7469992  53.6809978   4.9160014 103.9299992  54.1779978   4.9680014
 105.2759992  54.1569978   4.2750014 104.7068125  53.8131989   4.8365306
 104.2779992  43.2789978   6.8880014 105.0899992  43.7829978   6.9340014
 104.0339992  43.1339978   7.8020014 104.3561467  43.3283749   7.0178575
 104.8139992  44.2649978  16.0720014 104.9329992  44.8389978  16.8290014
 105.4689992  43.5769978  16.1870014 104.9188684  44.2505194  16.1911674
 105.1619992  40.3599978   7.8260014 104.8149992  40.9769978   8.4700014
 105.8209992  40.8609978   7.3440014 105.2035090  40.5121575   7.8490681
 102.0849992  54.7249978   4.8970014 102.2459992  55.5249978   4.3970014
 101.8879992  55.0319978   5.7820014 102.0803906  54.8758678   4.9482333
 100.8199992  41.4229978   4.5130014 100.7359992  42.3109978   4.8600014
 101.7099992  41.1579978   4.7450014 100.9288163  41.5087179   4.5918596
 111.0179992  42.1719978  16.9070014 110.1019992  42.4339978  16.8200014
 111.3539992  42.1689978  16.0110014 110.9378499  42.2075163  16.7738766
 109.6209992  45.9219978  11.0030014 108.8229992  45.5069978  10.6750014
 110.0659992  45.2319978  11.4940014 109.5719684  45.7718628  11.0245227
  99.0779992  51.8499978   3.5730014  99.6699992  52.5499978   3.8500014
  99.5369992  51.4169978   2.8540014  99.2211652  51.8872675   3.5136533
  97.3939992  44.5149978   2.6890014  97.3489992  45.4539978   2.8680014
  96.5059992  44.2789978   2.4200014  97.2678166  44.6116687   2.6771524
 110.7069992  55.1779978  12.6250014 110.5509992  55.8569978  11.9680014
 111.6399992  55.2499978  12.8280014 110.8117387  55.2806390  12.5625342
  98.2019992  39.2959978  11.3630014  97.9729992  39.3549978  10.4350014
  97.7599992  38.5049978  11.6690014  98.1108801  39.1970540  11.2774729
  97.1329992  53.2369978   7.5230014  96.2999992  53.7089978   7.5500014
  97.6779992  53.7469978   6.9240014  97.0927857  53.3704791   7.4457142
  96.4209992  55.8489978  18.8530014  96.9609992  55.6329978  19.6130014
  95.9399992  55.0439978  18.6630014  96.4299219  55.7105156  18.9314282
 101.0179992  54.7689978  20.4730014 101.7859992  54.3099978  20.8140014
 100.9969992  54.5429978  19.5430014 101.1202135  54.6756668  20.3939491
 105.1099992  54.2769978   1.8490014 104.4659992  53.6459978   2.1700014
 105.8719992  53.7459978   1.6170014 105.1248058  54.1187902   1.8616038
 107.5949992  53.1489978  19.2020014 107.2439992  52.2919978  19.4460014
 108.3209992  53.2909978  19.8090014 107.6451895  53.0511351  19.3173770
 109.7149992  54.0939978   2.0820014 109.9979992  53.2989978   2.5350014
 110.4539992  54.3269978   1.5210014 109.8537096  54.0167049   2.0681104
  96.3279992  49.6599978  19.8070014  96.4719992  48.7579978  19.5210014
  95.5559992  49.9459978  19.3200014  96.2432733  49.5751798  19.7019532
 100.6689992  50.0029978   1.9400014 100.7339992  49.2089978   2.4700014
 101.3219992  49.8849978   1.2500014 100.7661605  49.8783430   1.9192997
 102.9829992  49.6289978  19.2400014 102.6549992  49.8999978  18.3830014
 103.1349992  48.6879978  19.1520014 102.9586412  49.5389046  19.1107822
 106.0219992  51.0499978   1.6760014 105.7529992  51.2309978   2.5760014
 105.8149992  50.1249978   1.5440014 105.9571191  50.9497119   1.7815524
 108.7179992  49.5449978  16.6230014 109.4629992  50.1339978  16.5040014
 107.9609992  50.1269978  16.6870014 108.7175470  49.7042128  16.6153799
  97.1609992  46.8599978  19.2270014  97.5689992  46.0029978  19.1060014
  96.8999992  46.8739978  20.1480014  97.1816016  46.7445119  19.3349192
 101.8189992  47.9759978   4.2460014 101.3589992  47.4919978   4.9310014
 102.0739992  47.3069978   3.6100014 101.7904856  47.8193669   4.2538397
 101.1079992  45.8689978  16.6020014 100.4889992  46.5429978  16.8820014
 101.4519992  46.1899978  15.7680014 101.0697123  46.0046887  16.5276388
 102.8899992  46.2189978   2.5080014 102.7089992  46.0639978   1.5810014
 103.8399992  46.3269978   2.5530014 102.9936566  46.2123669   2.3870929
 106.1269992  48.3399978  19.8790014 107.0809992  48.4239978  19.8520014
 105.9669992  47.6279978  20.4990014 106.2357182  48.2552842  19.9590733
 112.2799992  48.5729978   1.9540014 112.0059992  48.1489978   1.1410014
 112.3189992  49.5049978   1.7370014 112.2477716  48.6408827   1.8134286
 101.4469992  43.2239978  17.6840014 101.5969992  42.4949978  17.0820014
 101.4489992  44.0009978  17.1250014 101.4677967  43.2292708  17.5260541
 101.8599992  41.5929978  15.1770014 102.3949992  42.0449978  14.5250014
 101.0069992  41.4849978  14.7540014 101.8180374  41.6402665  15.0306710
 103.4409992  47.0329978  15.4160014 104.1919992  46.8769978  14.8430014
 103.1019992  47.8849978  15.1410014 103.4979587  47.1268138  15.3004078
 107.8569992  44.8479978  20.4450014 108.0489992  43.9169978  20.3330014
 108.7149992  45.2729978  20.4340014 107.9992182  44.7780070  20.4281862
 109.1739992  47.6369978  18.5220014 108.8919992  48.3459978  17.9440014
 110.1159992  47.5639978  18.3710014 109.2627921  47.7242193  18.4224225
  99.9259992  44.4219978  19.5950014  99.1579992  43.8889978  19.3850014
 100.6039992  44.1119978  18.9960014  99.9127235  44.3071754  19.4852413
 102.6649992  39.0499978  15.6080014 102.5669992  39.9959978  15.5030014
 101.9229992  38.6769978  15.1320014 102.5512534  39.1291773  15.5292600
 103.9289992  43.3709978  19.1720014 103.6939992  43.1519978  20.0730014
 103.1459992  43.1639978  18.6620014 103.7909095  43.3129892  19.2265353
 106.6449992  42.4989978  18.2470014 105.6969992  42.5309978  18.3790014
 106.9569992  41.8729978  18.9010014 106.5575293  42.4187923  18.3534148
 108.2789992  41.1329978  20.2520014 108.1819992  40.1809978  20.2470014
 107.9569992  41.4009978  21.1130014 108.2222468  41.0390884  20.3676210
  98.1059992  42.3419978  19.3000014  98.3179992  41.6359978  18.6900014
  97.9949992  41.9049978  20.1440014  98.1200269  42.1861921  19.3305873
 102.8869992  38.3439978  18.2790014 103.5989992  37.7039978  18.2650014
 102.7859992  38.6099978  17.3660014 102.9707387  38.2924330  18.1535563
 103.2409992  40.0259978  20.3330014 103.1089992  39.5509978  19.5130014
 102.6409992  40.7709978  20.2780014 103.1419070  40.0615789  20.2133251
 102.7869992  56.9089978   3.5090014 103.7199992  57.0669978   3.6530014
 102.5229992  57.5849978   2.8840014 102.8789911  57.0219373   3.4442722
  96.3549992  51.5459978   2.9920014  97.2689992  51.6249978   3.2650014
  96.3629992  50.8589978   2.3260014  96.4810655  51.4639205   2.9392917
  95.0039992  56.9389978   8.0690014  94.3569992  56.4769978   7.5370014
  95.3589992  56.2669978   8.6520014  94.9633741  56.7849774   8.0749175
  95.8739992  55.0189978   9.8740014  95.5399992  54.1389978  10.0460014
  96.0969992  55.3649978  10.7390014  95.8583721  54.9451938  10.0144168
 113.4229992  55.8289978  12.8550014 113.4009992  56.0139978  13.7940014
 114.1129992  56.3969978  12.5140014 113.5133439  55.9311887  12.9374791
 112.9859992  55.3959978  15.7760014 112.4989992  54.6609978  15.4050014
 113.5349992  55.0019978  16.4540014 112.9935247  55.2421057  15.8168461
 111.4369992  51.1859978  20.4150014 110.5709992  51.0809978  20.8090014
 111.8129992  51.9439978  20.8610014 111.3693401  51.2741708  20.5292620
 112.7379992  49.4419978   5.9290014 113.5879992  49.8629978   6.0560014
 112.7429992  48.7019978   6.5360014 112.8551143  49.3996094   6.0284750
 113.1319992  47.4959978   7.7520014 112.4059992  47.0159978   8.1500014
 113.7139992  47.7009978   8.4850014 113.1112730  47.4580184   7.9054149
 112.8909992  50.2809978  12.7000014 113.7249992  49.9029978  12.4190014
 113.0029992  51.2239978  12.5810014 113.0201917  50.3567943  12.6454861
 111.3779992  53.1589978  15.0070014 110.7299992  53.4839978  15.6320014
 110.8599992  52.7179978  14.3330014 111.2194196  53.1438651  15.0014152
 113.4009992  47.3969978   4.1430014 112.8789992  47.7529978   3.4250014
 113.3679992  48.0719978   4.8220014 113.3250129  47.5369598   4.1363355
 111.7499992  44.6359978   2.6940014 111.8459992  45.3029978   2.0140014
 111.6099992  43.8209978   2.2130014 111.7442040  44.6170671   2.5358378
 110.9189992  46.0169978   8.3150014 110.7689992  45.0719978   8.2950014
 110.5649992  46.2979978   9.1590014 110.8506351  45.9256644   8.4263220
  95.9539992  48.0949978  12.3260014  96.1389992  48.0129978  11.3900014
  96.8039992  47.9709978  12.7490014  96.0940928  48.0670463  12.2552893
 111.7749992  47.9869978  17.9540014 112.3579992  47.2519978  18.1460014
 112.3389992  48.7589978  18.0010014 111.9309781  47.9908145  17.9866164
 113.2719992  45.8899978  18.6390014 112.4089992  45.5109978  18.4730014
 113.8759992  45.1509978  18.5640014 113.2356085  45.7383223  18.6061695
 110.9969992  42.0439978   1.8120014 111.6079992  41.6729978   2.4490014
 110.1599992  41.6229978   2.0080014 110.9674947  41.9362756   1.9257252
 110.6299992  43.5989978   6.7780014 110.9089992  42.6919978   6.9020014
 111.3889992  44.0329978   6.3890014 110.7708619  43.5334502   6.7423795
 111.2409992  44.1809978  12.2140014 112.1739992  44.3929978  12.1790014
 111.0059992  44.2819978  13.1360014 111.3369517  44.2236833  12.3339130
 111.2709992  44.9179978  14.9900014 110.4279992  45.1859978  15.3560014
 111.7129992  45.7399978  14.7790014 111.2154138  45.0658273  15.0115518
  95.5519992  43.3649978  18.4660014  96.4709992  43.2429978  18.7030014
  95.1019992  42.6149978  18.8560014  95.6170087  43.2469608  18.5511410
 113.5539992  38.8979978  20.3430014 113.9029992  38.2439978  19.7380014
 113.7009992  39.7349978  19.9030014 113.6216824  38.9216024  20.2006304
 111.2429992  40.8619978   6.8260014 111.4249992  40.4129978   7.6510014
 110.6429992  40.2779978   6.3620014 111.1868187  40.7215552   6.8762739
  96.7729992  41.6779978  11.3580014  97.2179992  40.8859978  11.6600014
  97.2389992  42.3939978  11.7880014  96.8969718  41.6664534  11.4575265
  95.0769992  44.6769978  12.4270014  95.5689992  44.4559978  11.6360014
  95.4389992  45.5169978  12.7080014  95.1932923  44.7603468  12.3567407
 113.0729992  41.0069978  18.6920014 112.1559992  41.2779978  18.6570014
 113.1959992  40.4719978  17.9080014 112.9639672  40.9717885  18.5811862
 113.1099992  40.9299978   3.3540014 113.5219992  40.2089978   2.8790014
 113.7909992  41.5989978   3.4120014 113.2585536  40.9217766   3.2968024
  95.3909992  40.9349978   6.4810014  94.4659992  41.1429978   6.3520014
  95.8449992  41.4189978   5.7910014  95.3256298  41.0289299   6.3700451
 110.1609992  55.9189978   8.4270014 110.8139992  55.5709978   7.8190014
 110.6719992  56.4069978   9.0730014 110.3192777  55.9373815   8.4312047
  95.3539992  39.6729978  14.8250014  94.6889992  39.4269978  15.4680014
  94.9109992  40.2949978  14.2480014  95.2031168  39.7234214  14.8349848
  97.5459992  52.8479978  18.9700014  96.7249992  53.0229978  18.5090014
  97.2939992  52.7749978  19.8900014  97.3995594  52.8620717  19.0313611
 100.4999992  53.8219978  15.2280014 100.0759992  54.6319978  14.9460014
 101.4049992  53.9079978  14.9260014 100.5642138  53.9444160  15.1486415
 104.8119992  55.2209978  18.1880014 104.9959992  54.8879978  19.0660014
 105.6579992  55.5309978  17.8660014 104.9516484  55.2172979  18.2647617
 107.1569992  56.5069978  17.4320014 107.8339992  55.8739978  17.1920014
 107.4779992  56.9079978  18.2390014 107.2931323  56.4745691  17.5083158
 112.0739992  39.0969978  16.5110014 111.2609992  39.4219978  16.1240014
 112.3069992  38.3359978  15.9780014 111.9941347  39.0386880  16.3859841
  97.9019992  57.0789978  15.2760014  97.1819992  57.5189978  14.8250014
  97.5369992  56.8279978  16.1240014  97.7539643  57.1053369  15.3289129
 100.3689992  56.6789978  14.3060014  99.5049992  56.7509978  14.7100014
 100.3139992  57.2259978  13.5220014 100.2431942  56.7627849  14.2554000
 105.0799992  56.5669978  13.4810014 104.6229992  57.0959978  12.8270014
 105.2429992  57.1699978  14.2060014 105.0394960  56.7209280  13.4895274
 107.4079992  55.4449978  14.4260014 106.5029992  55.6099978  14.1600014
 107.8359992  56.2979978  14.3600014 107.3421537  55.5829134  14.3807095
 110.0119992  57.0149978  14.7210014 109.8299992  57.9309978  14.5100014
 110.1889992  56.6039978  13.8740014 110.0110030  57.0848273  14.5777166
  97.3169992  55.7019978  12.1860014  97.2989992  55.2759978  13.0430014
  98.1219992  55.3829978  11.7770014  97.4232875  55.6006435  12.2479515
  99.4579992  54.4119978  10.8410014  99.2389992  53.4949978  11.0110014
 100.2819992  54.5519978  11.3070014  99.5394702  54.3055511  10.9272527
 101.9949992  54.8819978  11.6900014 102.2079992  53.9939978  11.4030014
 102.0599992  54.8469978  12.6440014 102.0329149  54.7558326  11.7797369
 105.5039992  40.5459978  10.8340014 104.8299992  39.9159978  11.0900014
 106.0679992  40.0619978  10.2310014 105.4880384  40.3943708  10.7875020
 110.6469992  38.6529978  10.9470014 111.2499992  39.2009978  10.4450014
 109.7769992  38.9719978  10.7060014 110.6119157  38.7710373  10.8457910
 112.3739992  39.7919978   9.2800014 112.9849992  39.2779978   8.7530014
 112.7559992  40.6689978   9.3030014 112.5093305  39.8402050   9.2109418
  97.8309992  39.1799978   8.6560014  97.0539992  38.9449978   8.1490014
  98.3609992  38.3829978   8.6650014  97.7963451  39.0401268   8.5878627
  96.6669992  38.9779978   4.4600014  97.1059992  39.5889978   3.8680014
  96.0329992  39.5159978   4.9340014  96.6413859  39.1344064   4.4430305
 102.4099992  39.1059978   8.4690014 103.2839992  39.4949978   8.4400014
 102.2739992  38.8909978   9.3920014 102.5111953  39.1301643   8.5897617
 107.9669992  39.1359978  10.1190014 108.0429992  39.2319978   9.1690014
 107.6919992  38.2289978  10.2470014 107.9401871  39.0264146  10.0063944
 109.3199992  39.1619978   5.8110014 108.6169992  39.7769978   5.6010014
 108.8749992  38.3249978   5.9420014 109.1636550  39.1329668   5.7999837
  96.5679992  54.9259978   5.3570014  95.8829992  54.8879978   4.6900014
  96.5719992  55.8389978   5.6450014  96.4747621  55.0441924   5.3046126
  98.5279992  40.8939978   2.9020014  99.0189992  40.2639978   2.3750014
  99.1509992  41.1899978   3.5650014  98.6795304  40.8477376   2.9194940
 103.5539992  41.1869978   5.3590014 103.7319992  40.5399978   6.0420014
 103.4999992  42.0209978   5.8260014 103.5710678  41.2111604   5.5156301
 105.4319992  56.1349978   3.7550014 106.2979992  56.5019978   3.5770014
 105.1859992  55.6959978   2.9410014 105.5172097  56.1258525   3.6206019
 112.1409992  55.6979978   6.4340014 111.9469992  54.9499978   5.8690014
 112.1019992  56.4559978   5.8510014 112.1091645  55.6980786   6.2778148
  97.7879992  39.6939978  18.1740014  97.4219992  38.9279978  18.6160014
  98.7009992  39.7229978  18.4600014  97.8613172  39.5930324  18.2731890
  99.7609992  39.0439978  19.7090014 100.6599992  38.7699978  19.5250014
  99.3749992  38.3019978  20.1740014  99.8317307  38.9062196  19.7467098
  98.3859992  55.8459978   2.3820014  98.1179992  56.1319978   3.2560014
  99.1569992  55.2999978   2.5350014  98.4535926  55.8112779   2.5221205
 108.1829992  38.3769978  19.8920014 108.2589992  37.9509978  20.7450014
 109.0759992  38.3899978  19.5490014 108.3142303  38.3203493  19.9625497
 111.3589992  54.4499978  18.5840014 110.5769992  54.2629978  18.0640014
 111.2869992  55.3789978  18.8010014 111.2421924  54.5500637  18.5421602
 125.7649992  48.3359978   8.6150014 125.8539992  49.2799978   8.4830014
 125.1269992  48.0609978   7.9570014 125.6909062  48.4279812   8.5079641
 124.6979992  47.5909978  12.0340014 124.6599992  46.9449978  12.7390014
 124.3759992  47.1239978  11.2630014 124.6492679  47.4394276  12.0262921
 117.0659992  47.2049978  13.6270014 117.1079992  46.5799978  14.3500014
 117.7689992  47.8289978  13.8090014 117.1667345  47.2037873  13.7505274
 128.4039992  50.5299978  10.3350014 127.9629992  49.8099978  10.7860014
 128.3909992  51.2509978  10.9650014 128.3419215  50.5289291  10.4818105
 117.9899992  51.6549978  12.1620014 117.6199992  50.8529978  11.7920014
 118.9309992  51.4869978  12.2080014 118.0665984  51.5224638  12.1175603
 114.5999992  45.3149978   7.5540014 114.1519992  46.1609978   7.5360014
 114.0389992  44.7359978   7.0390014 114.4628546  45.3523993   7.4818891
 115.3099992  47.4769978   9.6800014 115.5239992  46.7069978  10.2080014
 116.0479992  47.5669978   9.0770014 115.4390200  47.3838587   9.6707035
 125.5159992  55.6339978  10.5470014 126.1349992  54.9579978  10.2740014
 125.3069992  55.4159978  11.4560014 125.5726056  55.5118869  10.6323967
 123.0869992  50.0229978  12.4400014 123.3909992  49.3369978  11.8450014
 123.8089992  50.1419978  13.0580014 123.2261240  49.9452314  12.4420959
 131.7499992  41.6249978  13.3000014 131.7999992  42.2349978  14.0360014
 132.1759992  42.0859978  12.5770014 131.8144108  41.7707709  13.3030112
 126.2279992  44.4169978  12.7670014 126.3709992  43.4709978  12.7870014
 126.1219992  44.6239978  11.8390014 126.2332403  44.3154797  12.6442239
 119.3829992  42.5189978  10.0400014 119.4259992  43.3789978   9.6210014
 118.9249992  41.9669978   9.4060014 119.3269871  42.5619245   9.8970761
 127.1049992  42.6499978   8.4410014 127.7519992  42.3209978   9.0650014
 127.6149992  43.1669978   7.8180014 127.2624351  42.6749067   8.4421037
 116.0029992  44.9159978  10.8020014 116.6569992  44.3659978  11.2340014
 116.0269992  44.6419978   9.8850014 116.0957199  44.8037167  10.7371668
 121.1599992  46.4659978  10.0170014 121.7759992  45.9389978  10.5260014
 120.5729992  45.8259978   9.6130014 121.1650154  46.3073954  10.0320945
 132.1419992  43.1029978  15.5360014 131.4529992  43.7609978  15.4410014
 132.1569992  42.9049978  16.4730014 132.0497756  43.1662603  15.6495812
 118.1929992  41.4369978  14.1140014 117.9739992  41.9669978  13.3470014
 117.5249992  41.6629978  14.7610014 118.0726975  41.5400967  14.0965140
 125.5619992  50.9369978   7.6580014 125.2669992  50.6139978   6.8060014
 125.2379992  51.8369978   7.6990014 125.4778460  51.0144464   7.5469714
 120.7619992  49.1119978  14.4010014 120.0219992  49.7109978  14.5050014
 121.4759992  49.6659978  14.0860014 120.7573500  49.2687829  14.3726371
 128.8689992  41.9409978  10.4210014 128.6539992  41.1749978  10.9540014
 129.5249992  42.4129978  10.9340014 128.9282673  41.9000728  10.5631990
 117.7869992  43.3289978  12.0660014 118.4009992  43.9619978  12.4390014
 118.2989992  42.8569978  11.4100014 117.9401962  43.3517249  12.0282935
 119.1699992  51.0769978  15.1880014 119.1639992  51.9559978  14.8100014
 118.3159992  50.9929978  15.6130014 119.0537925  51.1859535  15.1936887
 115.2909992  50.7479978   5.9700014 115.0189992  50.9769978   5.0820014
 115.3359992  51.5849978   6.4310014 115.2598097  50.8926163   5.9106683
 128.9159992  52.3689978  12.6830014 127.9739992  52.4279978  12.8450014
 129.1919992  53.2749978  12.5460014 128.8245865  52.4995288  12.6866192
 129.2159992  40.6559978  14.1000014 128.4799992  41.2659978  14.0630014
 129.8999992  41.0709978  13.5740014 129.2075367  40.7957551  14.0238174
 122.2199992  38.7419978  11.5660014 122.1019992  37.7939978  11.5120014
 121.3649992  39.0749978  11.8390014 122.0882805  38.6572202  11.5955079
 127.1679992  54.1499978   9.3080014 127.5929992  53.4429978   8.8230014
 127.4849992  54.9519978   8.8910014 127.2690266  54.1615190   9.1852479
 128.3279992  52.0509978   7.8170014 128.0699992  51.3609978   7.2050014
 128.3989992  51.6079978   8.6620014 128.3023050  51.8966814   7.8475621
 130.0139992  50.6179978  16.2940014 130.1529992  50.0259978  15.5550014
 130.1809992  51.4909978  15.9380014 130.0556193  50.6548896  16.1446211
 124.4859992  47.5799978   6.0670014 123.7749992  48.1149978   5.7150014
 125.1769992  47.6349978   5.4070014 124.4820751  47.6606777   5.9295858
 124.5399992  46.0369978   3.1050014 125.2409992  46.0599978   3.7570014
 124.8419992  45.4089978   2.4490014 124.6768202  45.9552212   3.1055609
 131.8549992  46.9579978  14.3600014 131.2029992  47.6519978  14.4490014
 132.3209992  47.1679978  13.5500014 131.8285937  47.0815019  14.2627533
 127.8919992  47.7889978   7.0180014 127.1599992  48.0179978   7.5920014
 128.3389992  47.0759978   7.4730014 127.8523963  47.7238729   7.1579945
 127.7889992  45.9639978  16.0860014 127.8689992  46.7269978  16.6580014
 127.1879992  46.2429978  15.3960014 127.7186547  46.1062457  16.0710047
 119.5369992  48.4199978   8.9010014 119.2069992  48.0489978   8.0830014
 120.1259992  47.7489978   9.2480014 119.5713970  48.2786063   8.8359404
 120.9039992  51.8479978  11.5820014 120.8089992  51.2689978  10.8260014
 121.6329992  51.4769978  12.0780014 120.9896011  51.7185561  11.5456028
 119.9039992  47.1879978  12.5340014 120.4689992  47.3099978  11.7720014
 120.2229992  47.8259978  13.1730014 120.0244166  47.2908791  12.5160348
 126.2129992  52.6919978  13.2680014 125.9729992  53.3539978  13.9160014
 126.0149992  51.8569978  13.6930014 126.1533826  52.6698115  13.4141566
 120.7839992  51.5879978  17.2520014 120.4729992  52.3699978  17.7070014
 120.1339992  51.4349978  16.5660014 120.6535538  51.6744087  17.2215898
 126.7629992  46.9519978   4.7040014 127.3419992  47.1019978   5.4500014
 127.1769992  47.4219978   3.9800014 126.8983358  47.0360954   4.7083953
 117.7039992  47.7859978  16.4800014 117.7739992  48.4369978  17.1790014
 116.8129992  47.8889978  16.1450014 117.5931690  47.8889249  16.5303043
 124.4889992  53.6879978   8.1390014 124.9629992  53.9839978   8.9160014
 123.9259992  54.4269978   7.9060014 124.4777890  53.8283036   8.2138101
 119.0229992  53.6589978  18.0150014 119.0309992  53.5229978  17.0680014
 118.1069992  53.5419978  18.2670014 118.9002528  53.6245463  17.9193243
 130.4619992  38.7019978   4.5170014 129.5619992  38.8409978   4.8120014
 130.7139992  39.5329978   4.1150014 130.3728683  38.8334055   4.5030232
 118.5279992  47.4889978   6.4900014 118.2359992  48.2569978   5.9990014
 117.8529992  46.8299978   6.3270014 118.3968497  47.5049745   6.4008260
 131.6509992  53.0679978   2.8930014 131.7239992  54.0069978   3.0630014
 132.5559992  52.7629978   2.8370014 131.7834170  53.1553282   2.9087063
 114.6209992  49.8519978  15.3050014 114.1189992  49.8239978  14.4900014
 114.6259992  48.9469978  15.6150014 114.5529832  49.7257486  15.2354121
 114.3709992  52.6329978  12.1890014 115.3169992  52.4879978  12.1700014
 114.2579992  53.4169978  12.7260014 114.4853578  52.7191697  12.2590317
 132.5689992  53.2989978  17.8720014 132.5189992  52.3429978  17.8340014
 131.7419992  53.5659978  18.2730014 132.4503831  53.2044680  17.9210121
 123.5469992  52.8729978  16.7480014 123.6349992  53.6989978  17.2230014
 122.6839992  52.5429978  16.9970014 123.4423357  52.9415468  16.8467653
 123.9619992  56.6449978   6.5540014 123.8859992  56.5239978   5.6070014
 123.9939992  57.5939978   6.6720014 123.9559380  56.7567677   6.4405181
 117.6149992  55.4339978   8.3350014 117.7669992  55.0859978   9.2130014
 116.7639992  55.0769978   8.0790014 117.5208344  55.3380879   8.4206868
 127.0629992  55.7989978   3.5560014 127.4379992  55.0549978   3.0850014
 127.0679992  55.5289978   4.4740014 127.1150098  55.6606392   3.6156629
 126.7319992  55.7249978   6.3050014 125.7969992  55.8249978   6.4840014
 127.0119992  55.0149978   6.8840014 126.6419471  55.6427933   6.4076695
 129.7209992  44.7919978  18.3520014 129.3129992  45.2719978  17.6310014
 129.7609992  43.8859978  18.0440014 129.6706221  44.7352449  18.2118267
 116.8699992  51.1759978  16.3480014 117.0859992  50.8139978  17.2080014
 116.0139992  50.8009978  16.1390014 116.7838810  51.0758837  16.4372680
 119.4879992  39.6459978  12.3440014 118.6269992  39.5589978  11.9360014
 119.4659992  40.5019978  12.7720014 119.3670491  39.7498003  12.3459582
 124.1509992  39.3679978  15.7190014 124.5709992  38.9529978  16.4720014
 123.2179992  39.1889978  15.8360014 124.0823736  39.2869910  15.8378968
 127.4779992  43.1229978  16.5720014 126.9639992  42.9979978  17.3700014
 127.3219992  44.0359978  16.3280014 127.3866967  43.2292123  16.6480937
 128.2399992  47.9839978   2.3330014 128.2819992  47.7619978   1.4030014
 129.0889992  48.3829978   2.5230014 128.3605253  48.0075498   2.2313822
 123.8129992  41.8599978   3.0040014 123.5589992  41.8789978   3.9260014
 123.5559992  40.9889978   2.7020014 123.7434508  41.7448280   3.0894803
 119.5789992  44.6109978  13.4390014 118.9379992  44.5709978  14.1480014
 119.6169992  45.5379978  13.2010014 119.4963010  44.7307668  13.5039946
 119.5759992  44.8319978   8.3510014 118.6839992  44.4919978   8.2920014
 120.0269992  44.4549978   7.5950014 119.5147642  44.7344910   8.2407726
 125.1119992  45.2479978   7.1680014 124.7029992  46.0629978   6.8760014
 125.8319992  45.1079978   6.5540014 125.1534439  45.3405372   7.0450115
 124.2139992  45.4239978  18.6560014 123.6509992  44.7189978  18.9770014
 125.0399992  45.3029978  19.1240014 124.2486674  45.3112165  18.7631751
 126.1169992  44.6939978   9.9820014 125.9209992  45.2999978   9.2670014
 126.2979992  43.8609978   9.5480014 126.1146584  44.6642513   9.8254212
 117.3289992  44.9319978  15.3060014 117.2909992  45.3319978  16.1750014
 116.8389992  44.1149978  15.3960014 117.2575330  44.8762674  15.4371289
 120.6949992  42.3059978   2.1050014 120.2639992  41.8609978   2.8340014
 119.9769992  42.6769978   1.5920014 120.5389176  42.2952051   2.1354930
 113.9379992  42.0479978   9.1570014 114.5679992  42.0189978   9.8760014
 114.3869992  41.6229978   8.4260014 114.0850835  41.9865660   9.1567659
 115.2119992  42.7939978   4.5810014 115.6859992  43.3849978   3.9960014
 114.4939992  43.3239978   4.9280014 115.1798640  42.9465511   4.5477969
 125.3809992  46.3319978  14.6530014 125.7039992  45.7009978  14.0100014
 124.9399992  45.7979978  15.3140014 125.3656379  46.1733468  14.6542582
 122.1579992  42.2599978   9.4370014 121.2469992  42.3169978   9.7260014
 122.6629992  42.1999978  10.2480014 122.1016873  42.2596826   9.5861207
 116.9859992  43.8889978   8.2640014 116.0969992  43.9879978   7.9240014
 117.2829992  43.0469978   7.9180014 116.9044177  43.7887687   8.1706940
 120.6389992  43.8889978   5.9210014 121.5709992  44.0179978   6.0990014
 120.4239992  44.5579978   5.2710014 120.7374472  43.9970806   5.8574891
 126.5629992  41.4949978  12.7020014 125.8859992  41.6259978  13.3650014
 126.0779992  41.3399978  11.8910014 126.4047405  41.4919947  12.6832170
 119.3129992  45.0829978   3.4870014 118.7709992  44.7039978   2.7960014
 120.1469992  45.2779978   3.0590014 119.3514390  45.0574079   3.3344392
 129.8509992  57.1659978  18.9780014 130.0499992  57.5899978  18.1440014
 130.5059992  57.5099978  19.5850014 129.9668522  57.2706301  18.9457852
 117.4489992  49.6399978  18.5860014 118.1809992  49.8949978  19.1480014
 116.6679992  49.8449978  19.1020014 117.4436526  49.7025450  18.7325176
 123.4779992  45.0469978  11.3240014 124.0419992  44.5009978  10.7770014
 123.3299992  44.5259978  12.1130014 123.5353037  44.9016787  11.3557229
 118.4799992  41.1839978   7.7430014 118.1629992  40.2809978   7.7070014
 119.2609992  41.1859978   7.1900014 118.5422431  41.0607797   7.6633102
 122.1039992  43.4359978  13.7380014 121.2689992  43.8899978  13.8490014
 122.6279992  43.7119978  14.4900014 122.0606072  43.5353948  13.8548136
 122.6489992  49.6489978   5.4230014 121.9039992  49.1409978   5.1010014
 122.5139992  49.6979978   6.3690014 122.5288963  49.5861731   5.5068826
 129.7989992  48.7819978  14.2100014 130.4399992  49.2379978  13.6660014
 128.9679992  48.8949978  13.7470014 129.7745287  48.8596921  14.0729887
 126.5459992  42.4629978   3.6220014 125.6079992  42.5739978   3.4710014
 126.8439992  43.3189978   3.9290014 126.4576318  42.5940158   3.6428145
 124.1679992  49.8329978  16.6600014 123.8219992  49.4509978  17.4670014
 123.9679992  50.7659978  16.7310014 124.0935987  49.9069002  16.7800461
 127.2649992  44.3299978   5.2830014 128.1569992  44.1919978   5.6020014
 127.3209992  45.1209978   4.7460014 127.3947325  44.4179918   5.2541217
 117.7729992  48.9439978  11.1930014 118.5179992  48.9409978  10.5910014
 117.8509992  48.1199978  11.6740014 117.8853365  48.8322384  11.1757430
 124.7739992  51.1069978   4.4480014 124.4789992  51.9339978   4.8300014
 124.0709992  50.4879978   4.6450014 124.6386379  51.1364171   4.5268654
 114.7809992  47.4039978  16.5080014 115.0039992  46.9859978  17.3390014
 114.1789992  46.7919978  16.0850014 114.7301513  47.2639606  16.5646740
 121.7979992  46.9209978  18.7210014 121.5019992  46.7559978  17.8250014
 122.7289992  46.7009978  18.7100014 121.8834401  46.8686879  18.5970206
 126.4179992  52.2949978  16.6100014 125.5179992  52.4779978  16.3430014
 126.4519992  52.5539978  17.5310014 126.2993748  52.3550554  16.6979164
 132.1499992  44.5389978   4.9780014 131.5949992  44.1429978   4.3050014
 132.2499992  45.4499978   4.7000014 132.0876816  44.6079505   4.8485033
 132.1129992  50.3399978  17.8150014 131.2619992  50.5779978  17.4470014
 132.7029992  50.3229978  17.0620014 132.0763812  50.3702524  17.6628453
 130.4449992  53.3249978   5.4430014 130.0719992  52.4999978   5.7520014
 130.7219992  53.1419978   4.5450014 130.4313463  53.1872569   5.3639525
 127.6049992  48.1329978  12.4640014 126.6769992  47.9019978  12.4370014
 128.0559992  47.3559978  12.1340014 127.5388165  47.9962774  12.4156790
 120.1479992  52.4619978   8.5970014 120.6759992  53.2349978   8.3970014
 119.2679992  52.6859978   8.2950014 120.1013435  52.5982700   8.5287310
 115.9029992  47.3239978   3.1840014 116.5189992  47.9509978   3.5640014
 115.0409992  47.6399978   3.4560014 115.8707678  47.4524412   3.2727209
 121.5759992  50.1249978   8.1730014 121.3349992  51.0499978   8.2150014
 120.8349992  49.6659978   8.5700014 121.4429206  50.1895915   8.2323769
 122.0899992  54.2739978  14.4880014 122.4529992  55.1279978  14.2550014
 122.6219992  53.9819978  15.2290014 122.2115141  54.3513895  14.5562097
 120.2589992  55.1459978   7.7190014 119.3089992  55.2519978   7.7700014
 120.6109992  55.9669978   8.0630014 120.1765472  55.2714923   7.7724852
 125.6339992  50.3729978  14.1890014 125.2089992  50.1449978  15.0150014
 126.2149992  49.6339978  14.0070014 125.6543395  50.2419545  14.2774414
 127.8369992  51.3019978   3.2630014 128.1909992  50.9219978   4.0670014
 126.8889992  51.2079978   3.3500014 127.7572298  51.2372452   3.3848687
 128.2929992  54.9249978  16.6580014 127.6909992  54.3689978  16.1630014
 128.5739992  55.5919978  16.0320014 128.2485757  54.9390744  16.5055675
 132.3409992  55.7809978   3.4640014 133.0849992  56.3669978   3.3240014
 131.6469992  56.3499978   3.7970014 132.3489809  55.9380818   3.4898590
 116.4149992  42.1579978  16.0660014 115.5229992  42.4959978  15.9980014
 116.3169992  41.3019978  16.4840014 116.2794475  42.0886543  16.1131704
 128.7029992  49.9739978   5.4900014 128.4259992  49.2459978   6.0460014
 129.6309992  50.0929978   5.6950014 128.7904499  49.8904213   5.5938044
 116.0669992  53.9619978  14.5010014 116.2839992  53.0299978  14.4700014
 116.3129992  54.2369978  15.3840014 116.1299809  53.8715686  14.6161691
 121.9279992  52.4139978   1.7100014 122.1669992  51.6649978   1.1630014
 121.6589992  52.0259978   2.5430014 121.9243233  52.2591853   1.7477809
 120.8649992  51.9839978   4.1660014 121.0119992  51.4639978   4.9560014
 120.8619992  52.8909978   4.4730014 120.8847102  52.0353953   4.3155925
 117.3179992  49.2359978   4.6770014 116.6319992  49.5889978   5.2440014
 117.8409992  49.9989978   4.4300014 117.2948402  49.3873901   4.7211801
 125.1499992  41.8989978  14.9560014 125.8489992  41.9729978  15.6060014
 124.7689992  41.0339978  15.1100014 125.1942097  41.7922389  15.0657997
 125.9339992  41.5509978   6.0530014 126.1539992  42.0219978   5.2490014
 126.4929992  41.9449978   6.7230014 126.0396731  41.6687287   6.0335033
 123.6029992  53.6809978   4.9160014 122.7859992  54.1779978   4.9680014
 124.1319992  54.1569978   4.2750014 123.5628125  53.8131989   4.8365306
 123.1339992  43.2789978   6.8880014 123.9459992  43.7829978   6.9340014
 122.8899992  43.1339978   7.8020014 123.2121467  43.3283749   7.0178575
 123.6699992  44.2649978  16.0720014 123.7889992  44.8389978  16.8290014
 124.3249992  43.5769978  16.1870014 123.7748684  44.2505194  16.1911674
 124.0179992  40.3599978   7.8260014 123.6709992  40.9769978   8.4700014
 124.6769992  40.8609978   7.3440014 124.0595090  40.5121575   7.8490681
 120.9409992  54.7249978   4.8970014 121.1019992  55.5249978   4.3970014
 120.7439992  55.0319978   5.7820014 120.9363906  54.8758678   4.9482333
 119.6759992  41.4229978   4.5130014 119.5919992  42.3109978   4.8600014
 120.5659992  41.1579978   4.7450014 119.7848163  41.5087179   4.5918596
 129.8739992  42.1719978  16.9070014 128.9579992  42.4339978  16.8200014
 130.2099992  42.1689978  16.0110014 129.7938499  42.2075163  16.7738766
 128.4769992  45.9219978  11.0030014 127.6789992  45.5069978  10.6750014
 128.9219992  45.2319978  11.4940014 128.4279684  45.7718628  11.0245227
 117.9339992  51.8499978   3.5730014 118.5259992  52.5499978   3.8500014
 118.3929992  51.4169978   2.8540014 118.0771652  51.8872675   3.5136533
 116.2499992  44.5149978   2.6890014 116.2049992  45.4539978   2.8680014
 115.3619992  44.2789978   2.4200014 116.1238166  44.6116687   2.6771524
 129.5629992  55.1779978  12.6250014 129.4069992  55.8569978  11.9680014
 130.4959992  55.2499978  12.8280014 129.6677387  55.2806390  12.5625342
 117.0579992  39.2959978  11.3630014 116.8289992  39.3549978  10.4350014
 116.6159992  38.5049978  11.6690014 116.9668801  39.1970540  11.2774729
 115.9889992  53.2369978   7.5230014 115.1559992  53.7089978   7.5500014
 116.5339992  53.7469978   6.9240014 115.9487857  53.3704791   7.4457142
 115.2769992  55.8489978  18.8530014 115.8169992  55.6329978  19.6130014
 114.7959992  55.0439978  18.6630014 115.2859219  55.7105156  18.9314282
 119.8739992  54.7689978  20.4730014 120.6419992  54.3099978  20.8140014
 119.8529992  54.5429978  19.5430014 119.9762135  54.6756668  20.3939491
 123.9659992  54.2769978   1.8490014 123.3219992  53.6459978   2.1700014
 124.7279992  53.7459978   1.6170014 123.9808058  54.1187902   1.8616038
 126.4509992  53.1489978  19.2020014 126.0999992  52.2919978  19.4460014
 127.1769992  53.2909978  19.8090014 126.5011895  53.0511351  19.3173770
 128.5709992  54.0939978   2.0820014 128.8539992  53.2989978   2.5350014
 129.3099992  54.3269978   1.5210014 128.7097096  54.0167049   2.0681104
 115.1839992  49.6599978  19.8070014 115.3279992  48.7579978  19.5210014
 114.4119992  49.9459978  19.3200014 115.0992733  49.5751798  19.7019532
 119.5249992  50.0029978   1.9400014 119.5899992  49.2089978   2.4700014
 120.1779992  49.8849978   1.2500014 119.6221605  49.8783430   1.9192997
 121.8389992  49.6289978  19.2400014 121.5109992  49.8999978  18.3830014
 121.9909992  48.6879978  19.1520014 121.8146412  49.5389046  19.1107822
 124.8779992  51.0499978   1.6760014 124.6089992  51.2309978   2.5760014
 124.6709992  50.1249978   1.5440014 124.8131191  50.9497119   1.7815524
 127.5739992  49.5449978  16.6230014 128.3189992  50.1339978  16.5040014
 126.8169992  50.1269978  16.6870014 127.5735470  49.7042128  16.6153799
 116.0169992  46.8599978  19.2270014 116.4249992  46.0029978  19.1060014
 115.7559992  46.8739978  20.1480014 116.0376016  46.7445119  19.3349192
 120.6749992  47.9759978   4.2460014 120.2149992  47.4919978   4.9310014
 120.9299992  47.3069978   3.6100014 120.6464856  47.8193669   4.2538397
 119.9639992  45.8689978  16.6020014 119.3449992  46.5429978  16.8820014
 120.3079992  46.1899978  15.7680014 119.9257123  46.0046887  16.5276388
 121.7459992  46.2189978   2.5080014 121.5649992  46.0639978   1.5810014
 122.6959992  46.3269978   2.5530014 121.8496566  46.2123669   2.3870929
 124.9829992  48.3399978  19.8790014 125.9369992  48.4239978  19.8520014
 124.8229992  47.6279978  20.4990014 125.0917182  48.2552842  19.9590733
 131.1359992  48.5729978   1.9540014 130.8619992  48.1489978   1.1410014
 131.1749992  49.5049978   1.7370014 131.1037716  48.6408827   1.8134286
 120.3029992  43.2239978  17.6840014 120.4529992  42.4949978  17.0820014
 120.3049992  44.0009978  17.1250014 120.3237967  43.2292708  17.5260541
 120.7159992  41.5929978  15.1770014 121.2509992  42.0449978  14.5250014
 119.8629992  41.4849978  14.7540014 120.6740374  41.6402665  15.0306710
 122.2969992  47.0329978  15.4160014 123.0479992  46.8769978  14.8430014
 121.9579992  47.8849978  15.1410014 122.3539587  47.1268138  15.3004078
 126.7129992  44.8479978  20.4450014 126.9049992  43.9169978  20.3330014
 127.5709992  45.2729978  20.4340014 126.8552182  44.7780070  20.4281862
 128.0299992  47.6369978  18.5220014 127.7479992  48.3459978  17.9440014
 128.9719992  47.5639978  18.3710014 128.1187921  47.7242193  18.4224225
 118.7819992  44.4219978  19.5950014 118.0139992  43.8889978  19.3850014
 119.4599992  44.1119978  18.9960014 118.7687235  44.3071754  19.4852413
 121.5209992  39.0499978  15.6080014 121.4229992  39.9959978  15.5030014
 120.7789992  38.6769978  15.1320014 121.4072534  39.1291773  15.5292600
 122.7849992  43.3709978  19.1720014 122.5499992  43.1519978  20.0730014
 122.0019992  43.1639978  18.6620014 122.6469095  43.3129892  19.2265353
 125.5009992  42.4989978  18.2470014 124.5529992  42.5309978  18.3790014
 125.8129992  41.8729978  18.9010014 125.4135293  42.4187923  18.3534148
 127.1349992  41.1329978  20.2520014 127.0379992  40.1809978  20.2470014
 126.8129992  41.4009978  21.1130014 127.0782468  41.0390884  20.3676210
 116.9619992  42.3419978  19.3000014 117.1739992  41.6359978  18.6900014
 116.8509992  41.9049978  20.1440014 116.9760269  42.1861921  19.3305873
 121.7429992  38.3439978  18.2790014 122.4549992  37.7039978  18.2650014
 121.6419992  38.6099978  17.3660014 121.8267387  38.2924330  18.1535563
 122.0969992  40.0259978  20.3330014 121.9649992  39.5509978  19.5130014
 121.4969992  40.7709978  20.2780014 121.9979070  40.0615789  20.2133251
 121.6429992  56.9089978   3.5090014 122.5759992  57.0669978   3.6530014
 121.3789992  57.5849978   2.8840014 121.7349911  57.0219373   3.4442722
 115.2109992  51.5459978   2.9920014 116.1249992  51.6249978   3.2650014
 115.2189992  50.8589978   2.3260014 115.3370655  51.4639205   2.9392917
 113.8599992  56.9389978   8.0690014 113.2129992  56.4769978   7.5370014
 114.2149992  56.2669978   8.6520014 113.8193741  56.7849774   8.0749175
 114.7299992  55.0189978   9.8740014 114.3959992  54.1389978  10.0460014
 114.9529992  55.3649978  10.7390014 114.7143721  54.9451938  10.0144168
 132.2789992  55.8289978  12.8550014 132.2569992  56.0139978  13.7940014
 132.9689992  56.3969978  12.5140014 132.3693439  55.9311887  12.9374791
 131.8419992  55.3959978  15.7760014 131.3549992  54.6609978  15.4050014
 132.3909992  55.0019978  16.4540014 131.8495247  55.2421057  15.8168461
 130.2929992  51.1859978  20.4150014 129.4269992  51.0809978  20.8090014
 130.6689992  51.9439978  20.8610014 130.2253401  51.2741708  20.5292620
 131.5939992  49.4419978   5.9290014 132.4439992  49.8629978   6.0560014
 131.5989992  48.7019978   6.5360014 131.7111143  49.3996094   6.0284750
 131.9879992  47.4959978   7.7520014 131.2619992  47.0159978   8.1500014
 132.5699992  47.7009978   8.4850014 131.9672730  47.4580184   7.9054149
 131.7469992  50.2809978  12.7000014 132.5809992  49.9029978  12.4190014
 131.8589992  51.2239978  12.5810014 131.8761917  50.3567943  12.6454861
 130.2339992  53.1589978  15.0070014 129.5859992  53.4839978  15.6320014
 129.7159992  52.7179978  14.3330014 130.0754196  53.1438651  15.0014152
 132.2569992  47.3969978   4.1430014 131.7349992  47.7529978   3.4250014
 132.2239992  48.0719978   4.8220014 132.1810129  47.5369598   4.1363355
 130.6059992  44.6359978   2.6940014 130.7019992  45.3029978   2.0140014
 130.4659992  43.8209978   2.2130014 130.6002040  44.6170671   2.5358378
 129.7749992  46.0169978   8.3150014 129.6249992  45.0719978   8.2950014
 129.4209992  46.2979978   9.1590014 129.7066351  45.9256644   8.4263220
 114.8099992  48.0949978  12.3260014 114.9949992  48.0129978  11.3900014
 115.6599992  47.9709978  12.7490014 114.9500928  48.0670463  12.2552893
 130.6309992  47.9869978  17.9540014 131.2139992  47.2519978  18.1460014
 131.1949992  48.7589978  18.0010014 130.7869781  47.9908145  17.9866164
 132.1279992  45.8899978  18.6390014 131.2649992  45.5109978  18.4730014
 132.7319992  45.1509978  18.5640014 132.0916085  45.7383223  18.6061695
 129.8529992  42.0439978   1.8120014 130.4639992  41.6729978   2.4490014
 129.0159992  41.6229978   2.0080014 129.8234947  41.9362756   1.9257252
 129.4859992  43.5989978   6.7780014 129.7649992  42.6919978   6.9020014
 130.2449992  44.0329978   6.3890014 129.6268619  43.5334502   6.7423795
 130.0969992  44.1809978  12.2140014 131.0299992  44.3929978  12.1790014
 129.8619992  44.2819978  13.1360014 130.1929517  44.2236833  12.3339130
 130.1269992  44.9179978  14.9900014 129.2839992  45.1859978  15.3560014
 130.5689992  45.7399978  14.7790014 130.0714138  45.0658273  15.0115518
 114.4079992  43.3649978  18.4660014 115.3269992  43.2429978  18.7030014
 113.9579992  42.6149978  18.8560014 114.4730087  43.2469608  18.5511410
 132.4099992  38.8979978  20.3430014 132.7589992  38.2439978  19.7380014
 132.5569992  39.7349978  19.9030014 132.4776824  38.9216024  20.2006304
 130.0989992  40.8619978   6.8260014 130.2809992  40.4129978   7.6510014
 129.4989992  40.2779978   6.3620014 130.0428187  40.7215552   6.8762739
 115.6289992  41.6779978  11.3580014 116.0739992  40.8859978  11.6600014
 116.0949992  42.3939978  11.7880014 115.7529718  41.6664534  11.4575265
 113.9329992  44.6769978  12.4270014 114.4249992  44.4559978  11.6360014
 114.2949992  45.5169978  12.7080014 114.0492923  44.7603468  12.3567407
 131.9289992  41.0069978  18.6920014 131.0119992  41.2779978  18.6570014
 132.0519992  40.4719978  17.9080014 131.8199672  40.9717885  18.5811862
 131.9659992  40.9299978   3.3540014 132.3779992  40.2089978   2.8790014
 132.6469992  41.5989978   3.4120014 132.1145536  40.9217766   3.2968024
 114.2469992  40.9349978   6.4810014 113.3219992  41.1429978   6.3520014
 114.7009992  41.4189978   5.7910014 114.1816298  41.0289299   6.3700451
 129.0169992  55.9189978   8.4270014 129.6699992  55.5709978   7.8190014
 129.5279992  56.4069978   9.0730014 129.1752777  55.9373815   8.4312047
 114.2099992  39.6729978  14.8250014 113.5449992  39.4269978  15.4680014
 113.7669992  40.2949978  14.2480014 114.0591168  39.7234214  14.8349848
 116.4019992  52.8479978  18.9700014 115.5809992  53.0229978  18.5090014
 116.1499992  52.7749978  19.8900014 116.2555594  52.8620717  19.0313611
 119.3559992  53.8219978  15.2280014 118.9319992  54.6319978  14.9460014
 120.2609992  53.9079978  14.9260014 119.4202138  53.9444160  15.1486415
 123.6679992  55.2209978  18.1880014 123.8519992  54.8879978  19.0660014
 124.5139992  55.5309978  17.8660014 123.8076484  55.2172979  18.2647617
 126.0129992  56.5069978  17.4320014 126.6899992  55.8739978  17.1920014
 126.3339992  56.9079978  18.2390014 126.1491323  56.4745691  17.5083158
 130.9299992  39.0969978  16.5110014 130.1169992  39.4219978  16.1240014
 131.1629992  38.3359978  15.9780014 130.8501347  39.0386880  16.3859841
 116.7579992  57.0789978  15.2760014 116.0379992  57.5189978  14.8250014
 116.3929992  56.8279978  16.1240014 116.6099643  57.1053369  15.3289129
 119.2249992  56.6789978  14.3060014 118.3609992  56.7509978  14.7100014
 119.1699992  57.2259978  13.5220014 119.0991942  56.7627849  14.2554000
 123.9359992  56.5669978  13.4810014 123.4789992  57.0959978  12.8270014
 124.0989992  57.1699978  14.2060014 123.8954960  56.7209280  13.4895274
 126.2639992  55.4449978  14.4260014 125.3589992  55.6099978  14.1600014
 126.6919992  56.2979978  14.3600014 126.1981537  55.5829134  14.3807095
 128.8679992  57.0149978  14.7210014 128.6859992  57.9309978  14.5100014
 129.0449992  56.6039978  13.8740014 128.8670030  57.0848273  14.5777166
 116.1729992  55.7019978  12.1860014 116.1549992  55.2759978  13.0430014
 116.9779992  55.3829978  11.7770014 116.2792875  55.6006435  12.2479515
 118.3139992  54.4119978  10.8410014 118.0949992  53.4949978  11.0110014
 119.1379992  54.5519978  11.3070014 118.3954702  54.3055511  10.9272527
 120.8509992  54.8819978  11.6900014 121.0639992  53.9939978  11.4030014
 120.9159992  54.8469978  12.6440014 120.8889149  54.7558326  11.7797369
 124.3599992  40.5459978  10.8340014 123.6859992  39.9159978  11.0900014
 124.9239992  40.0619978  10.2310014 124.3440384  40.3943708  10.7875020
 129.5029992  38.6529978  10.9470014 130.1059992  39.2009978  10.4450014
 128.6329992  38.9719978  10.7060014 129.4679157  38.7710373  10.8457910
 131.2299992  39.7919978   9.2800014 131.8409992  39.2779978   8.7530014
 131.6119992  40.6689978   9.3030014 131.3653305  39.8402050   9.2109418
 116.6869992  39.1799978   8.6560014 115.9099992  38.9449978   8.1490014
 117.2169992  38.3829978   8.6650014 116.6523451  39.0401268   8.5878627
 115.5229992  38.9779978   4.4600014 115.9619992  39.5889978   3.8680014
 114.8889992  39.5159978   4.9340014 115.4973859  39.1344064   4.4430305
 121.2659992  39.1059978   8.4690014 122.1399992  39.4949978   8.4400014
 121.1299992  38.8909978   9.3920014 121.3671953  39.1301643   8.5897617
 126.8229992  39.1359978  10.1190014 126.8989992  39.2319978   9.1690014
 126.5479992  38.2289978  10.2470014 126.7961871  39.0264146  10.0063944
 128.1759992  39.1619978   5.8110014 127.4729992  39.7769978   5.6010014
 127.7309992  38.3249978   5.9420014 128.0196550  39.1329668   5.7999837
 115.4239992  54.9259978   5.3570014 114.7389992  54.8879978   4.6900014
 115.4279992  55.8389978   5.6450014 115.3307621  55.0441924   5.3046126
 117.3839992  40.8939978   2.9020014 117.8749992  40.2639978   2.3750014
 118.0069992  41.1899978   3.5650014 117.5355304  40.8477376   2.9194940
 122.4099992  41.1869978   5.3590014 122.5879992  40.5399978   6.0420014
 122.3559992  42.0209978   5.8260014 122.4270678  41.2111604   5.5156301
 124.2879992  56.1349978   3.7550014 125.1539992  56.5019978   3.5770014
 124.0419992  55.6959978   2.9410014 124.3732097  56.1258525   3.6206019
 130.9969992  55.6979978   6.4340014 130.8029992  54.9499978   5.8690014
 130.9579992  56.4559978   5.8510014 130.9651645  55.6980786   6.2778148
 116.6439992  39.6939978  18.1740014 116.2779992  38.9279978  18.6160014
 117.5569992  39.7229978  18.4600014 116.7173172  39.5930324  18.2731890
 118.6169992  39.0439978  19.7090014 119.5159992  38.7699978  19.5250014
 118.2309992  38.3019978  20.1740014 118.6877307  38.9062196  19.7467098
 117.2419992  55.8459978   2.3820014 116.9739992  56.1319978   3.2560014
 118.0129992  55.2999978   2.5350014 117.3095926  55.8112779   2.5221205
 127.0389992  38.3769978  19.8920014 127.1149992  37.9509978  20.7450014
 127.9319992  38.3899978  19.5490014 127.1702303  38.3203493  19.9625497
 130.2149992  54.4499978  18.5840014 129.4329992  54.2629978  18.0640014
 130.1429992  55.3789978  18.8010014 130.0981924  54.5500637  18.5421602
 144.6209992  48.3359978   8.6150014 144.7099992  49.2799978   8.4830014
 143.9829992  48.0609978   7.9570014 144.5469061  48.4279812   8.5079641
 143.5539992  47.5909978  12.0340014 143.5159992  46.9449978  12.7390014
 143.2319992  47.1239978  11.2630014 143.5052679  47.4394276  12.0262921
 135.9219992  47.2049978  13.6270014 135.9639992  46.5799978  14.3500014
 136.6249992  47.8289978  13.8090014 136.0227345  47.2037873  13.7505274
 136.8459992  51.6549978  12.1620014 136.4759992  50.8529978  11.7920014
 137.7869992  51.4869978  12.2080014 136.9225984  51.5224638  12.1175603
 133.4559992  45.3149978   7.5540014 133.0079992  46.1609978   7.5360014
 132.8949992  44.7359978   7.0390014 133.3188546  45.3523993   7.4818891
 134.1659992  47.4769978   9.6800014 134.3799992  46.7069978  10.2080014
 134.9039992  47.5669978   9.0770014 134.2950200  47.3838587   9.6707035
 144.3719992  55.6339978  10.5470014 144.9909992  54.9579978  10.2740014
 144.1629992  55.4159978  11.4560014 144.4286056  55.5118869  10.6323967
 141.9429992  50.0229978  12.4400014 142.2469992  49.3369978  11.8450014
 142.6649992  50.1419978  13.0580014 142.0821240  49.9452314  12.4420959
 145.0839992  44.4169978  12.7670014 145.2269992  43.4709978  12.7870014
 144.9779992  44.6239978  11.8390014 145.0892403  44.3154797  12.6442239
 138.2389992  42.5189978  10.0400014 138.2819992  43.3789978   9.6210014
 137.7809992  41.9669978   9.4060014 138.1829871  42.5619245   9.8970761
 134.8589992  44.9159978  10.8020014 135.5129992  44.3659978  11.2340014
 134.8829992  44.6419978   9.8850014 134.9517199  44.8037167  10.7371668
 140.0159992  46.4659978  10.0170014 140.6319992  45.9389978  10.5260014
 139.4289992  45.8259978   9.6130014 140.0210154  46.3073954  10.0320945
 137.0489992  41.4369978  14.1140014 136.8299992  41.9669978  13.3470014
 136.3809992  41.6629978  14.7610014 136.9286975  41.5400967  14.0965140
 144.4179992  50.9369978   7.6580014 144.1229992  50.6139978   6.8060014
 144.0939992  51.8369978   7.6990014 144.3338460  51.0144464   7.5469714
 139.6179992  49.1119978  14.4010014 138.8779992  49.7109978  14.5050014
 140.3319992  49.6659978  14.0860014 139.6133500  49.2687829  14.3726371
 136.6429992  43.3289978  12.0660014 137.2569992  43.9619978  12.4390014
 137.1549992  42.8569978  11.4100014 136.7961962  43.3517249  12.0282935
 138.0259992  51.0769978  15.1880014 138.0199992  51.9559978  14.8100014
 137.1719992  50.9929978  15.6130014 137.9097925  51.1859535  15.1936887
 134.1469992  50.7479978   5.9700014 133.8749992  50.9769978   5.0820014
 134.1919992  51.5849978   6.4310014 134.1158097  50.8926163   5.9106683
 141.0759992  38.7419978  11.5660014 140.9579992  37.7939978  11.5120014
 140.2209992  39.0749978  11.8390014 140.9442805  38.6572202  11.5955079
 143.3419992  47.5799978   6.0670014 142.6309992  48.1149978   5.7150014
 144.0329992  47.6349978   5.4070014 143.3380751  47.6606777   5.9295858
 143.3959992  46.0369978   3.1050014 144.0969992  46.0599978   3.7570014
 143.6979992  45.4089978   2.4490014 143.5328202  45.9552212   3.1055609
 138.3929992  48.4199978   8.9010014 138.0629992  48.0489978   8.0830014
 138.9819992  47.7489978   9.2480014 138.4273970  48.2786063   8.8359404
 139.7599992  51.8479978  11.5820014 139.6649992  51.2689978  10.8260014
 140.4889992  51.4769978  12.0780014 139.8456011  51.7185561  11.5456028
 138.7599992  47.1879978  12.5340014 139.3249992  47.3099978  11.7720014
 139.0789992  47.8259978  13.1730014 138.8804166  47.2908791  12.5160348
 145.0689992  52.6919978  13.2680014 144.8289992  53.3539978  13.9160014
 144.8709992  51.8569978  13.6930014 145.0093826  52.6698115  13.4141566
 139.6399992  51.5879978  17.2520014 139.3289992  52.3699978  17.7070014
 138.9899992  51.4349978  16.5660014 139.5095538  51.6744087  17.2215898
 136.5599992  47.7859978  16.4800014 136.6299992  48.4369978  17.1790014
 135.6689992  47.8889978  16.1450014 136.4491690  47.8889249  16.5303043
 143.3449992  53.6879978   8.1390014 143.8189992  53.9839978   8.9160014
 142.7819992  54.4269978   7.9060014 143.3337890  53.8283036   8.2138101
 137.8789992  53.6589978  18.0150014 137.8869992  53.5229978  17.0680014
 136.9629992  53.5419978  18.2670014 137.7562528  53.6245463  17.9193243
 137.3839992  47.4889978   6.4900014 137.0919992  48.2569978   5.9990014
 136.7089992  46.8299978   6.3270014 137.2528497  47.5049745   6.4008260
 133.4769992  49.8519978  15.3050014 132.9749992  49.8239978  14.4900014
 133.4819992  48.9469978  15.6150014 133.4089832  49.7257486  15.2354121
 133.2269992  52.6329978  12.1890014 134.1729992  52.4879978  12.1700014
 133.1139992  53.4169978  12.7260014 133.3413578  52.7191697  12.2590317
 142.4029992  52.8729978  16.7480014 142.4909992  53.6989978  17.2230014
 141.5399992  52.5429978  16.9970014 142.2983357  52.9415468  16.8467653
 142.8179992  56.6449978   6.5540014 142.7419992  56.5239978   5.6070014
 142.8499992  57.5939978   6.6720014 142.8119380  56.7567677   6.4405181
 136.4709992  55.4339978   8.3350014 136.6229992  55.0859978   9.2130014
 135.6199992  55.0769978   8.0790014 136.3768344  55.3380879   8.4206868
 135.7259992  51.1759978  16.3480014 135.9419992  50.8139978  17.2080014
 134.8699992  50.8009978  16.1390014 135.6398810  51.0758837  16.4372680
 138.3439992  39.6459978  12.3440014 137.4829992  39.5589978  11.9360014
 138.3219992  40.5019978  12.7720014 138.2230491  39.7498003  12.3459582
 143.0069992  39.3679978  15.7190014 143.4269992  38.9529978  16.4720014
 142.0739992  39.1889978  15.8360014 142.9383736  39.2869910  15.8378968
 142.6689992  41.8599978   3.0040014 142.4149992  41.8789978   3.9260014
 142.4119992  40.9889978   2.7020014 142.5994508  41.7448280   3.0894803
 138.4349992  44.6109978  13.4390014 137.7939992  44.5709978  14.1480014
 138.4729992  45.5379978  13.2010014 138.3523010  44.7307668  13.5039946
 138.4319992  44.8319978   8.3510014 137.5399992  44.4919978   8.2920014
 138.8829992  44.4549978   7.5950014 138.3707642  44.7344910   8.2407726
 143.9679992  45.2479978   7.1680014 143.5589992  46.0629978   6.8760014
 144.6879992  45.1079978   6.5540014 144.0094439  45.3405372   7.0450115
 143.0699992  45.4239978  18.6560014 142.5069992  44.7189978  18.9770014
 143.8959992  45.3029978  19.1240014 143.1046674  45.3112165  18.7631751
 144.9729992  44.6939978   9.9820014 144.7769992  45.2999978   9.2670014
 145.1539992  43.8609978   9.5480014 144.9706584  44.6642513   9.8254212
 136.1849992  44.9319978  15.3060014 136.1469992  45.3319978  16.1750014
 135.6949992  44.1149978  15.3960014 136.1135330  44.8762674  15.4371289
 139.5509992  42.3059978   2.1050014 139.1199992  41.8609978   2.8340014
 138.8329992  42.6769978   1.5920014 139.3949176  42.2952051   2.1354930
 132.7939992  42.0479978   9.1570014 133.4239992  42.0189978   9.8760014
 133.2429992  41.6229978   8.4260014 132.9410835  41.9865660   9.1567659
 134.0679992  42.7939978   4.5810014 134.5419992  43.3849978   3.9960014
 133.3499992  43.3239978   4.9280014 134.0358640  42.9465511   4.5477969
 144.2369992  46.3319978  14.6530014 144.5599992  45.7009978  14.0100014
 143.7959992  45.7979978  15.3140014 144.2216379  46.1733468  14.6542582
 141.0139992  42.2599978   9.4370014 140.1029992  42.3169978   9.7260014
 141.5189992  42.1999978  10.2480014 140.9576873  42.2596826   9.5861207
 135.8419992  43.8889978   8.2640014 134.9529992  43.9879978   7.9240014
 136.1389992  43.0469978   7.9180014 135.7604177  43.7887687   8.1706940
 139.4949992  43.8889978   5.9210014 140.4269992  44.0179978   6.0990014
 139.2799992  44.5579978   5.2710014 139.5934472  43.9970806   5.8574891
 145.4189992  41.4949978  12.7020014 144.7419992  41.6259978  13.3650014
 144.9339992  41.3399978  11.8910014 145.2607405  41.4919947  12.6832170
 138.1689992  45.0829978   3.4870014 137.6269992  44.7039978   2.7960014
 139.0029992  45.2779978   3.0590014 138.2074390  45.0574079   3.3344392
 136.3049992  49.6399978  18.5860014 137.0369992  49.8949978  19.1480014
 135.5239992  49.8449978  19.1020014 136.2996526  49.7025450  18.7325176
 142.3339992  45.0469978  11.3240014 142.8979992  44.5009978  10.7770014
 142.1859992  44.5259978  12.1130014 142.3913037  44.9016787  11.3557229
 137.3359992  41.1839978   7.7430014 137.0189992  40.2809978   7.7070014
 138.1169992  41.1859978   7.1900014 137.3982431  41.0607797   7.6633102
 140.9599992  43.4359978  13.7380014 140.1249992  43.8899978  13.8490014
 141.4839992  43.7119978  14.4900014 140.9166072  43.5353948  13.8548136
 141.5049992  49.6489978   5.4230014 140.7599992  49.1409978   5.1010014
 141.3699992  49.6979978   6.3690014 141.3848963  49.5861731   5.5068826
 145.4019992  42.4629978   3.6220014 144.4639992  42.5739978   3.4710014
 145.6999992  43.3189978   3.9290014 145.3136318  42.5940158   3.6428145
 143.0239992  49.8329978  16.6600014 142.6779992  49.4509978  17.4670014
 142.8239992  50.7659978  16.7310014 142.9495987  49.9069002  16.7800461
 136.6289992  48.9439978  11.1930014 137.3739992  48.9409978  10.5910014
 136.7069992  48.1199978  11.6740014 136.7413365  48.8322384  11.1757430
 143.6299992  51.1069978   4.4480014 143.3349992  51.9339978   4.8300014
 142.9269992  50.4879978   4.6450014 143.4946379  51.1364171   4.5268654
 133.6369992  47.4039978  16.5080014 133.8599992  46.9859978  17.3390014
 133.0349992  46.7919978  16.0850014 133.5861513  47.2639606  16.5646740
 140.6539992  46.9209978  18.7210014 140.3579992  46.7559978  17.8250014
 141.5849992  46.7009978  18.7100014 140.7394401  46.8686879  18.5970206
 145.2739992  52.2949978  16.6100014 144.3739992  52.4779978  16.3430014
 145.3079992  52.5539978  17.5310014 145.1553748  52.3550554  16.6979164
 139.0039992  52.4619978   8.5970014 139.5319992  53.2349978   8.3970014
 138.1239992  52.6859978   8.2950014 138.9573435  52.5982700   8.5287310
 134.7589992  47.3239978   3.1840014 135.3749992  47.9509978   3.5640014
 133.8969992  47.6399978   3.4560014 134.7267678  47.4524412   3.2727209
 140.4319992  50.1249978   8.1730014 140.1909992  51.0499978   8.2150014
 139.6909992  49.6659978   8.5700014 140.2989206  50.1895915   8.2323769
 140.9459992  54.2739978  14.4880014 141.3089992  55.1279978  14.2550014
 141.4779992  53.9819978  15.2290014 141.0675141  54.3513895  14.5562097
 139.1149992  55.1459978   7.7190014 138.1649992  55.2519978   7.7700014
 139.4669992  55.9669978   8.0630014 139.0325472  55.2714923   7.7724852
 144.4899992  50.3729978  14.1890014 144.0649992  50.1449978  15.0150014
 145.0709992  49.6339978  14.0070014 144.5103395  50.2419545  14.2774414
 135.2709992  42.1579978  16.0660014 134.3789992  42.4959978  15.9980014
 135.1729992  41.3019978  16.4840014 135.1354475  42.0886543  16.1131704
 134.9229992  53.9619978  14.5010014 135.1399992  53.0299978  14.4700014
 135.1689992  54.2369978  15.3840014 134.9859809  53.8715686  14.6161691
 140.7839992  52.4139978   1.7100014 141.0229992  51.6649978   1.1630014
 140.5149992  52.0259978   2.5430014 140.7803233  52.2591853   1.7477809
 139.7209992  51.9839978   4.1660014 139.8679992  51.4639978   4.9560014
 139.7179992  52.8909978   4.4730014 139.7407102  52.0353953   4.3155925
 136.1739992  49.2359978   4.6770014 135.4879992  49.5889978   5.2440014
 136.6969992  49.9989978   4.4300014 136.1508402  49.3873901   4.7211801
 144.0059992  41.8989978  14.9560014 144.7049992  41.9729978  15.6060014
 143.6249992  41.0339978  15.1100014 144.0502097  41.7922389  15.0657997
 144.7899992  41.5509978   6.0530014 145.0099992  42.0219978   5.2490014
 145.3489992  41.9449978   6.7230014 144.8956731  41.6687287   6.0335033
 142.4589992  53.6809978   4.9160014 141.6419992  54.1779978   4.9680014
 142.9879992  54.1569978   4.2750014 142.4188125  53.8131989   4.8365306
 141.9899992  43.2789978   6.8880014 142.8019992  43.7829978   6.9340014
 141.7459992  43.1339978   7.8020014 142.0681467  43.3283749   7.0178575
 142.5259992  44.2649978  16.0720014 142.6449992  44.8389978  16.8290014
 143.1809992  43.5769978  16.1870014 142.6308684  44.2505194  16.1911674
 142.8739992  40.3599978   7.8260014 142.5269992  40.9769978   8.4700014
 143.5329992  40.8609978   7.3440014 142.9155090  40.5121575   7.8490681
 139.7969992  54.7249978   4.8970014 139.9579992  55.5249978   4.3970014
 139.5999992  55.0319978   5.7820014 139.7923906  54.8758678   4.9482333
 138.5319992  41.4229978   4.5130014 138.4479992  42.3109978   4.8600014
 139.4219992  41.1579978   4.7450014 138.6408163  41.5087179   4.5918596
 136.7899992  51.8499978   3.5730014 137.3819992  52.5499978   3.8500014
 137.2489992  51.4169978   2.8540014 136.9331652  51.8872675   3.5136533
 135.1059992  44.5149978   2.6890014 135.0609992  45.4539978   2.8680014
 134.2179992  44.2789978   2.4200014 134.9798166  44.6116687   2.6771524
 135.9139992  39.2959978  11.3630014 135.6849992  39.3549978  10.4350014
 135.4719992  38.5049978  11.6690014 135.8228801  39.1970540  11.2774729
 134.8449992  53.2369978   7.5230014 134.0119992  53.7089978   7.5500014
 135.3899992  53.7469978   6.9240014 134.8047857  53.3704791   7.4457142
 134.1329992  55.8489978  18.8530014 134.6729992  55.6329978  19.6130014
 133.6519992  55.0439978  18.6630014 134.1419219  55.7105156  18.9314282
 138.7299992  54.7689978  20.4730014 139.4979992  54.3099978  20.8140014
 138.7089992  54.5429978  19.5430014 138.8322135  54.6756668  20.3939491
 142.8219992  54.2769978   1.8490014 142.1779992  53.6459978   2.1700014
 143.5839992  53.7459978   1.6170014 142.8368058  54.1187902   1.8616038
 145.3069992  53.1489978  19.2020014 144.9559992  52.2919978  19.4460014
 146.0329992  53.2909978  19.8090014 145.3571895  53.0511351  19.3173770
 134.0399992  49.6599978  19.8070014 134.1839992  48.7579978  19.5210014
 133.2679992  49.9459978  19.3200014 133.9552733  49.5751798  19.7019532
 138.3809992  50.0029978   1.9400014 138.4459992  49.2089978   2.4700014
 139.0339992  49.8849978   1.2500014 138.4781605  49.8783430   1.9192997
 140.6949992  49.6289978  19.2400014 140.3669992  49.8999978  18.3830014
 140.8469992  48.6879978  19.1520014 140.6706412  49.5389046  19.1107822
 143.7339992  51.0499978   1.6760014 143.4649992  51.2309978   2.5760014
 143.5269992  50.1249978   1.5440014 143.6691191  50.9497119   1.7815524
 134.8729992  46.8599978  19.2270014 135.2809992  46.0029978  19.1060014
 134.6119992  46.8739978  20.1480014 134.8936016  46.7445119  19.3349192
 139.5309992  47.9759978   4.2460014 139.0709992  47.4919978   4.9310014
 139.7859992  47.3069978   3.6100014 139.5024856  47.8193669   4.2538397
 138.8199992  45.8689978  16.6020014 138.2009992  46.5429978  16.8820014
 139.1639992  46.1899978  15.7680014 138.7817123  46.0046887  16.5276388
 140.6019992  46.2189978   2.5080014 140.4209992  46.0639978   1.5810014
 141.5519992  46.3269978   2.5530014 140.7056566  46.2123669   2.3870929
 143.8389992  48.3399978  19.8790014 144.7929992  48.4239978  19.8520014
 143.6789992  47.6279978  20.4990014 143.9477182  48.2552842  19.9590733
 139.1589992  43.2239978  17.6840014 139.3089992  42.4949978  17.0820014
 139.1609992  44.0009978  17.1250014 139.1797967  43.2292708  17.5260541
 139.5719992  41.5929978  15.1770014 140.1069992  42.0449978  14.5250014
 138.7189992  41.4849978  14.7540014 139.5300374  41.6402665  15.0306710
 141.1529992  47.0329978  15.4160014 141.9039992  46.8769978  14.8430014
 140.8139992  47.8849978  15.1410014 141.2099587  47.1268138  15.3004078
 145.5689992  44.8479978  20.4450014 145.7609992  43.9169978  20.3330014
 146.4269992  45.2729978  20.4340014 145.7112182  44.7780070  20.4281862
 137.6379992  44.4219978  19.5950014 136.8699992  43.8889978  19.3850014
 138.3159992  44.1119978  18.9960014 137.6247235  44.3071754  19.4852413
 140.3769992  39.0499978  15.6080014 140.2789992  39.9959978  15.5030014
 139.6349992  38.6769978  15.1320014 140.2632534  39.1291773  15.5292600
 141.6409992  43.3709978  19.1720014 141.4059992  43.1519978  20.0730014
 140.8579992  43.1639978  18.6620014 141.5029095  43.3129892  19.2265353
 144.3569992  42.4989978  18.2470014 143.4089992  42.5309978  18.3790014
 144.6689992  41.8729978  18.9010014 144.2695293  42.4187923  18.3534148
 135.8179992  42.3419978  19.3000014 136.0299992  41.6359978  18.6900014
 135.7069992  41.9049978  20.1440014 135.8320269  42.1861921  19.3305873
 140.5989992  38.3439978  18.2790014 141.3109992  37.7039978  18.2650014
 140.4979992  38.6099978  17.3660014 140.6827387  38.2924330  18.1535563
 140.9529992  40.0259978  20.3330014 140.8209992  39.5509978  19.5130014
 140.3529992  40.7709978  20.2780014 140.8539070  40.0615789  20.2133251
 140.4989992  56.9089978   3.5090014 141.4319992  57.0669978   3.6530014
 140.2349992  57.5849978   2.8840014 140.5909911  57.0219373   3.4442722
 134.0669992  51.5459978   2.9920014 134.9809992  51.6249978   3.2650014
 134.0749992  50.8589978   2.3260014 134.1930655  51.4639205   2.9392917
 132.7159992  56.9389978   8.0690014 132.0689992  56.4769978   7.5370014
 133.0709992  56.2669978   8.6520014 132.6753741  56.7849774   8.0749175
 133.5859992  55.0189978   9.8740014 133.2519992  54.1389978  10.0460014
 133.8089992  55.3649978  10.7390014 133.5703721  54.9451938  10.0144168
 133.6659992  48.0949978  12.3260014 133.8509992  48.0129978  11.3900014
 134.5159992  47.9709978  12.7490014 133.8060928  48.0670463  12.2552893
 133.2639992  43.3649978  18.4660014 134.1829992  43.2429978  18.7030014
 132.8139992  42.6149978  18.8560014 133.3290087  43.2469608  18.5511410
 134.4849992  41.6779978  11.3580014 134.9299992  40.8859978  11.6600014
 134.9509992  42.3939978  11.7880014 134.6089718  41.6664534  11.4575265
 132.7889992  44.6769978  12.4270014 133.2809992  44.4559978  11.6360014
 133.1509992  45.5169978  12.7080014 132.9052923  44.7603468  12.3567407
 133.1029992  40.9349978   6.4810014 132.1779992  41.1429978   6.3520014
 133.5569992  41.4189978   5.7910014 133.0376298  41.0289299   6.3700451
 133.0659992  39.6729978  14.8250014 132.4009992  39.4269978  15.4680014
 132.6229992  40.2949978  14.2480014 132.9151168  39.7234214  14.8349848
 135.2579992  52.8479978  18.9700014 134.4369992  53.0229978  18.5090014
 135.0059992  52.7749978  19.8900014 135.1115594  52.8620717  19.0313611
 138.2119992  53.8219978  15.2280014 137.7879992  54.6319978  14.9460014
 139.1169992  53.9079978  14.9260014 138.2762138  53.9444160  15.1486415
 142.5239992  55.2209978  18.1880014 142.7079992  54.8879978  19.0660014
 143.3699992  55.5309978  17.8660014 142.6636484  55.2172979  18.2647617
 144.8689992  56.5069978  17.4320014 145.5459992  55.8739978  17.1920014
 145.1899992  56.9079978  18.2390014 145.0051323  56.4745691  17.5083158
 135.6139992  57.0789978  15.2760014 134.8939992  57.5189978  14.8250014
 135.2489992  56.8279978  16.1240014 135.4659643  57.1053369  15.3289129
 138.0809992  56.6789978  14.3060014 137.2169992  56.7509978  14.7100014
 138.0259992  57.2259978  13.5220014 137.9551942  56.7627849  14.2554000
 142.7919992  56.5669978  13.4810014 142.3349992  57.0959978  12.8270014
 142.9549992  57.1699978  14.2060014 142.7514960  56.7209280  13.4895274
 145.1199992  55.4449978  14.4260014 144.2149992  55.6099978  14.1600014
 145.5479992  56.2979978  14.3600014 145.0541537  55.5829134  14.3807095
 135.0289992  55.7019978  12.1860014 135.0109992  55.2759978  13.0430014
 135.8339992  55.3829978  11.7770014 135.1352875  55.6006435  12.2479515
 137.1699992  54.4119978  10.8410014 136.9509992  53.4949978  11.0110014
 137.9939992  54.5519978  11.3070014 137.2514702  54.3055511  10.9272527
 139.7069992  54.8819978  11.6900014 139.9199992  53.9939978  11.4030014
 139.7719992  54.8469978  12.6440014 139.7449149  54.7558326  11.7797369
 143.2159992  40.5459978  10.8340014 142.5419992  39.9159978  11.0900014
 143.7799992  40.0619978  10.2310014 143.2000384  40.3943708  10.7875020
 135.5429992  39.1799978   8.6560014 134.7659992  38.9449978   8.1490014
 136.0729992  38.3829978   8.6650014 135.5083451  39.0401268   8.5878627
 134.3789992  38.9779978   4.4600014 134.8179992  39.5889978   3.8680014
 133.7449992  39.5159978   4.9340014 134.3533859  39.1344064   4.4430305
 140.1219992  39.1059978   8.4690014 140.9959992  39.4949978   8.4400014
 139.9859992  38.8909978   9.3920014 140.2231953  39.1301643   8.5897617
 134.2799992  54.9259978   5.3570014 133.5949992  54.8879978   4.6900014
 134.2839992  55.8389978   5.6450014 134.1867621  55.0441924   5.3046126
 136.2399992  40.8939978   2.9020014 136.7309992  40.2639978   2.3750014
 136.8629992  41.1899978   3.5650014 136.3915304  40.8477376   2.9194940
 141.2659992  41.1869978   5.3590014 141.4439992  40.5399978   6.0420014
 141.2119992  42.0209978   5.8260014 141.2830678  41.2111604   5.5156301
 143.1439992  56.1349978   3.7550014 144.0099992  56.5019978   3.5770014
 142.8979992  55.6959978   2.9410014 143.2292097  56.1258525   3.6206019
 135.4999992  39.6939978  18.1740014 135.1339992  38.9279978  18.6160014
 136.4129992  39.7229978  18.4600014 135.5733172  39.5930324  18.2731890
 137.4729992  39.0439978  19.7090014 138.3719992  38.7699978  19.5250014
 137.0869992  38.3019978  20.1740014 137.5437307  38.9062196  19.7467098
 136.0979992  55.8459978   2.3820014 135.8299992  56.1319978   3.2560014
 136.8689992  55.2999978   2.5350014 136.1655926  55.8112779   2.5221205
  12.6289992  67.1919978   8.6150014  12.7179992  68.1359978   8.4830014
  11.9909992  66.9169978   7.9570014  12.5549062  67.2839812   8.5079641
  11.5619992  66.4469978  12.0340014  11.5239992  65.8009978  12.7390014
  11.2399992  65.9799978  11.2630014  11.5132679  66.2954276  12.0262921
   3.9299992  66.0609978  13.6270014   3.9719992  65.4359978  14.3500014
   4.6329992  66.6849978  13.8090014   4.0307345  66.0597873  13.7505274
  15.2679992  69.3859978  10.3350014  14.8269992  68.6659978  10.7860014
  15.2549992  70.1069978  10.9650014  15.2059215  69.3849291  10.4818105
   4.8539992  70.5109978  12.1620014   4.4839992  69.7089978  11.7920014
   5.7949992  70.3429978  12.2080014   4.9305984  70.3784638  12.1175603
   1.4639992  64.1709978   7.5540014   1.0159992  65.0169978   7.5360014
   0.9029992  63.5919978   7.0390014   1.3268546  64.2083993   7.4818891
   2.1739992  66.3329978   9.6800014   2.3879992  65.5629978  10.2080014
   2.9119992  66.4229978   9.0770014   2.3030200  66.2398587   9.6707035
  12.3799992  74.4899978  10.5470014  12.9989992  73.8139978  10.2740014
  12.1709992  74.2719978  11.4560014  12.4366056  74.3678869  10.6323967
   9.9509992  68.8789978  12.4400014  10.2549992  68.1929978  11.8450014
  10.6729992  68.9979978  13.0580014  10.0901240  68.8012314  12.4420959
  18.6139992  60.4809978  13.3000014  18.6639992  61.0909978  14.0360014
  19.0399992  60.9419978  12.5770014  18.6784108  60.6267709  13.3030112
  13.0919992  63.2729978  12.7670014  13.2349992  62.3269978  12.7870014
  12.9859992  63.4799978  11.8390014  13.0972403  63.1714797  12.6442239
   6.2469992  61.3749978  10.0400014   6.2899992  62.2349978   9.6210014
   5.7889992  60.8229978   9.4060014   6.1909871  61.4179245   9.8970761
  13.9689992  61.5059978   8.4410014  14.6159992  61.1769978   9.0650014
  14.4789992  62.0229978   7.8180014  14.1264351  61.5309067   8.4421037
   2.8669992  63.7719978  10.8020014   3.5209992  63.2219978  11.2340014
   2.8909992  63.4979978   9.8850014   2.9597199  63.6597167  10.7371668
   8.0239992  65.3219978  10.0170014   8.6399992  64.7949978  10.5260014
   7.4369992  64.6819978   9.6130014   8.0290154  65.1633954  10.0320945
  19.0059992  61.9589978  15.5360014  18.3169992  62.6169978  15.4410014
  19.0209992  61.7609978  16.4730014  18.9137756  62.0222603  15.6495812
   5.0569992  60.2929978  14.1140014   4.8379992  60.8229978  13.3470014
   4.3889992  60.5189978  14.7610014   4.9366975  60.3960967  14.0965140
  12.4259992  69.7929978   7.6580014  12.1309992  69.4699978   6.8060014
  12.1019992  70.6929978   7.6990014  12.3418460  69.8704464   7.5469714
   7.6259992  67.9679978  14.4010014   6.8859992  68.5669978  14.5050014
   8.3399992  68.5219978  14.0860014   7.6213500  68.1247829  14.3726371
  15.7329992  60.7969978  10.4210014  15.5179992  60.0309978  10.9540014
  16.3889992  61.2689978  10.9340014  15.7922673  60.7560728  10.5631990
   4.6509992  62.1849978  12.0660014   5.2649992  62.8179978  12.4390014
   5.1629992  61.7129978  11.4100014   4.8041962  62.2077249  12.0282935
   6.0339992  69.9329978  15.1880014   6.0279992  70.8119978  14.8100014
   5.1799992  69.8489978  15.6130014   5.9177925  70.0419535  15.1936887
   2.1549992  69.6039978   5.9700014   1.8829992  69.8329978   5.0820014
   2.1999992  70.4409978   6.4310014   2.1238097  69.7486163   5.9106683
  15.7799992  71.2249978  12.6830014  14.8379992  71.2839978  12.8450014
  16.0559992  72.1309978  12.5460014  15.6885865  71.3555288  12.6866192
  16.0799992  59.5119978  14.1000014  15.3439992  60.1219978  14.0630014
  16.7639992  59.9269978  13.5740014  16.0715367  59.6517551  14.0238174
   9.0839992  57.5979978  11.5660014   8.9659992  56.6499978  11.5120014
   8.2289992  57.9309978  11.8390014   8.9522805  57.5132202  11.5955079
  14.0319992  73.0059978   9.3080014  14.4569992  72.2989978   8.8230014
  14.3489992  73.8079978   8.8910014  14.1330266  73.0175190   9.1852479
  15.1919992  70.9069978   7.8170014  14.9339992  70.2169978   7.2050014
  15.2629992  70.4639978   8.6620014  15.1663050  70.7526814   7.8475621
  16.8779992  69.4739978  16.2940014  17.0169992  68.8819978  15.5550014
  17.0449992  70.3469978  15.9380014  16.9196193  69.5108896  16.1446211
  11.3499992  66.4359978   6.0670014  10.6389992  66.9709978   5.7150014
  12.0409992  66.4909978   5.4070014  11.3460751  66.5166777   5.9295858
  11.4039992  64.8929978   3.1050014  12.1049992  64.9159978   3.7570014
  11.7059992  64.2649978   2.4490014  11.5408202  64.8112212   3.1055609
  18.7189992  65.8139978  14.3600014  18.0669992  66.5079978  14.4490014
  19.1849992  66.0239978  13.5500014  18.6925937  65.9375019  14.2627533
  14.7559992  66.6449978   7.0180014  14.0239992  66.8739978   7.5920014
  15.2029992  65.9319978   7.4730014  14.7163963  66.5798729   7.1579945
  14.6529992  64.8199978  16.0860014  14.7329992  65.5829978  16.6580014
  14.0519992  65.0989978  15.3960014  14.5826547  64.9622457  16.0710047
   6.4009992  67.2759978   8.9010014   6.0709992  66.9049978   8.0830014
   6.9899992  66.6049978   9.2480014   6.4353970  67.1346063   8.8359404
   7.7679992  70.7039978  11.5820014   7.6729992  70.1249978  10.8260014
   8.4969992  70.3329978  12.0780014   7.8536011  70.5745561  11.5456028
   6.7679992  66.0439978  12.5340014   7.3329992  66.1659978  11.7720014
   7.0869992  66.6819978  13.1730014   6.8884166  66.1468791  12.5160348
  13.0769992  71.5479978  13.2680014  12.8369992  72.2099978  13.9160014
  12.8789992  70.7129978  13.6930014  13.0173826  71.5258115  13.4141566
   7.6479992  70.4439978  17.2520014   7.3369992  71.2259978  17.7070014
   6.9979992  70.2909978  16.5660014   7.5175538  70.5304087  17.2215898
  13.6269992  65.8079978   4.7040014  14.2059992  65.9579978   5.4500014
  14.0409992  66.2779978   3.9800014  13.7623358  65.8920954   4.7083953
   4.5679992  66.6419978  16.4800014   4.6379992  67.2929978  17.1790014
   3.6769992  66.7449978  16.1450014   4.4571690  66.7449249  16.5303043
  11.3529992  72.5439978   8.1390014  11.8269992  72.8399978   8.9160014
  10.7899992  73.2829978   7.9060014  11.3417890  72.6843036   8.2138101
   5.8869992  72.5149978  18.0150014   5.8949992  72.3789978  17.0680014
   4.9709992  72.3979978  18.2670014   5.7642528  72.4805463  17.9193243
  17.3259992  57.5579978   4.5170014  16.4259992  57.6969978   4.8120014
  17.5779992  58.3889978   4.1150014  17.2368683  57.6894055   4.5030232
   5.3919992  66.3449978   6.4900014   5.0999992  67.1129978   5.9990014
   4.7169992  65.6859978   6.3270014   5.2608497  66.3609745   6.4008260
  18.5149992  71.9239978   2.8930014  18.5879992  72.8629978   3.0630014
  19.4199992  71.6189978   2.8370014  18.6474170  72.0113282   2.9087063
   1.4849992  68.7079978  15.3050014   0.9829992  68.6799978  14.4900014
   1.4899992  67.8029978  15.6150014   1.4169832  68.5817486  15.2354121
   1.2349992  71.4889978  12.1890014   2.1809992  71.3439978  12.1700014
   1.1219992  72.2729978  12.7260014   1.3493578  71.5751697  12.2590317
  19.4329992  72.1549978  17.8720014  19.3829992  71.1989978  17.8340014
  18.6059992  72.4219978  18.2730014  19.3143831  72.0604680  17.9210121
  10.4109992  71.7289978  16.7480014  10.4989992  72.5549978  17.2230014
   9.5479992  71.3989978  16.9970014  10.3063357  71.7975468  16.8467653
  10.8259992  75.5009978   6.5540014  10.7499992  75.3799978   5.6070014
  10.8579992  76.4499978   6.6720014  10.8199380  75.6127677   6.4405181
   4.4789992  74.2899978   8.3350014   4.6309992  73.9419978   9.2130014
   3.6279992  73.9329978   8.0790014   4.3848344  74.1940879   8.4206868
  13.9269992  74.6549978   3.5560014  14.3019992  73.9109978   3.0850014
  13.9319992  74.3849978   4.4740014  13.9790098  74.5166392   3.6156629
  13.5959992  74.5809978   6.3050014  12.6609992  74.6809978   6.4840014
  13.8759992  73.8709978   6.8840014  13.5059471  74.4987933   6.4076695
  16.5849992  63.6479978  18.3520014  16.1769992  64.1279978  17.6310014
  16.6249992  62.7419978  18.0440014  16.5346221  63.5912449  18.2118267
   3.7339992  70.0319978  16.3480014   3.9499992  69.6699978  17.2080014
   2.8779992  69.6569978  16.1390014   3.6478810  69.9318837  16.4372680
   6.3519992  58.5019978  12.3440014   5.4909992  58.4149978  11.9360014
   6.3299992  59.3579978  12.7720014   6.2310491  58.6058003  12.3459582
  11.0149992  58.2239978  15.7190014  11.4349992  57.8089978  16.4720014
  10.0819992  58.0449978  15.8360014  10.9463736  58.1429910  15.8378968
  14.3419992  61.9789978  16.5720014  13.8279992  61.8539978  17.3700014
  14.1859992  62.8919978  16.3280014  14.2506967  62.0852123  16.6480937
  15.1039992  66.8399978   2.3330014  15.1459992  66.6179978   1.4030014
  15.9529992  67.2389978   2.5230014  15.2245253  66.8635498   2.2313822
  10.6769992  60.7159978   3.0040014  10.4229992  60.7349978   3.9260014
  10.4199992  59.8449978   2.7020014  10.6074508  60.6008280   3.0894803
   6.4429992  63.4669978  13.4390014   5.8019992  63.4269978  14.1480014
   6.4809992  64.3939978  13.2010014   6.3603010  63.5867668  13.5039946
   6.4399992  63.6879978   8.3510014   5.5479992  63.3479978   8.2920014
   6.8909992  63.3109978   7.5950014   6.3787642  63.5904910   8.2407726
  11.9759992  64.1039978   7.1680014  11.5669992  64.9189978   6.8760014
  12.6959992  63.9639978   6.5540014  12.0174439  64.1965372   7.0450115
  11.0779992  64.2799978  18.6560014  10.5149992  63.5749978  18.9770014
  11.9039992  64.1589978  19.1240014  11.1126674  64.1672165  18.7631751
  12.9809992  63.5499978   9.9820014  12.7849992  64.1559978   9.2670014
  13.1619992  62.7169978   9.5480014  12.9786584  63.5202513   9.8254212
   4.1929992  63.7879978  15.3060014   4.1549992  64.1879978  16.1750014
   3.7029992  62.9709978  15.3960014   4.1215330  63.7322674  15.4371289
   7.5589992  61.1619978   2.1050014   7.1279992  60.7169978   2.8340014
   6.8409992  61.5329978   1.5920014   7.4029176  61.1512051   2.1354930
   0.8019992  60.9039978   9.1570014   1.4319992  60.8749978   9.8760014
   1.2509992  60.4789978   8.4260014   0.9490835  60.8425660   9.1567659
   2.0759992  61.6499978   4.5810014   2.5499992  62.2409978   3.9960014
   1.3579992  62.1799978   4.9280014   2.0438640  61.8025511   4.5477969
  12.2449992  65.1879978  14.6530014  12.5679992  64.5569978  14.0100014
  11.8039992  64.6539978  15.3140014  12.2296379  65.0293468  14.6542582
   9.0219992  61.1159978   9.4370014   8.1109992  61.1729978   9.7260014
   9.5269992  61.0559978  10.2480014   8.9656873  61.1156826   9.5861207
   3.8499992  62.7449978   8.2640014   2.9609992  62.8439978   7.9240014
   4.1469992  61.9029978   7.9180014   3.7684177  62.6447687   8.1706940
   7.5029992  62.7449978   5.9210014   8.4349992  62.8739978   6.0990014
   7.2879992  63.4139978   5.2710014   7.6014472  62.8530806   5.8574891
  13.4269992  60.3509978  12.7020014  12.7499992  60.4819978  13.3650014
  12.9419992  60.1959978  11.8910014  13.2687405  60.3479947  12.6832170
   6.1769992  63.9389978   3.4870014   5.6349992  63.5599978   2.7960014
   7.0109992  64.1339978   3.0590014   6.2154390  63.9134079   3.3344392
  16.7149992  76.0219978  18.9780014  16.9139992  76.4459978  18.1440014
  17.3699992  76.3659978  19.5850014  16.8308522  76.1266301  18.9457852
   4.3129992  68.4959978  18.5860014   5.0449992  68.7509978  19.1480014
   3.5319992  68.7009978  19.1020014   4.3076526  68.5585450  18.7325176
  10.3419992  63.9029978  11.3240014  10.9059992  63.3569978  10.7770014
  10.1939992  63.3819978  12.1130014  10.3993037  63.7576787  11.3557229
   5.3439992  60.0399978   7.7430014   5.0269992  59.1369978   7.7070014
   6.1249992  60.0419978   7.1900014   5.4062431  59.9167797   7.6633102
   8.9679992  62.2919978  13.7380014   8.1329992  62.7459978  13.8490014
   9.4919992  62.5679978  14.4900014   8.9246072  62.3913948  13.8548136
   9.5129992  68.5049978   5.4230014   8.7679992  67.9969978   5.1010014
   9.3779992  68.5539978   6.3690014   9.3928963  68.4421731   5.5068826
  16.6629992  67.6379978  14.2100014  17.3039992  68.0939978  13.6660014
  15.8319992  67.7509978  13.7470014  16.6385287  67.7156921  14.0729887
  13.4099992  61.3189978   3.6220014  12.4719992  61.4299978   3.4710014
  13.7079992  62.1749978   3.9290014  13.3216318  61.4500158   3.6428145
  11.0319992  68.6889978  16.6600014  10.6859992  68.3069978  17.4670014
  10.8319992  69.6219978  16.7310014  10.9575987  68.7629002  16.7800461
  14.1289992  63.1859978   5.2830014  15.0209992  63.0479978   5.6020014
  14.1849992  63.9769978   4.7460014  14.2587325  63.2739918   5.2541217
   4.6369992  67.7999978  11.1930014   5.3819992  67.7969978  10.5910014
   4.7149992  66.9759978  11.6740014   4.7493365  67.6882384  11.1757430
  11.6379992  69.9629978   4.4480014  11.3429992  70.7899978   4.8300014
  10.9349992  69.3439978   4.6450014  11.5026379  69.9924171   4.5268654
   1.6449992  66.2599978  16.5080014   1.8679992  65.8419978  17.3390014
   1.0429992  65.6479978  16.0850014   1.5941513  66.1199606  16.5646740
   8.6619992  65.7769978  18.7210014   8.3659992  65.6119978  17.8250014
   9.5929992  65.5569978  18.7100014   8.7474401  65.7246879  18.5970206
  13.2819992  71.1509978  16.6100014  12.3819992  71.3339978  16.3430014
  13.3159992  71.4099978  17.5310014  13.1633748  71.2110554  16.6979164
  19.0139992  63.3949978   4.9780014  18.4589992  62.9989978   4.3050014
  19.1139992  64.3059978   4.7000014  18.9516816  63.4639505   4.8485033
  18.9769992  69.1959978  17.8150014  18.1259992  69.4339978  17.4470014
  19.5669992  69.1789978  17.0620014  18.9403812  69.2262524  17.6628453
  17.3089992  72.1809978   5.4430014  16.9359992  71.3559978   5.7520014
  17.5859992  71.9979978   4.5450014  17.2953463  72.0432569   5.3639525
  14.4689992  66.9889978  12.4640014  13.5409992  66.7579978  12.4370014
  14.9199992  66.2119978  12.1340014  14.4028165  66.8522774  12.4156790
   7.0119992  71.3179978   8.5970014   7.5399992  72.0909978   8.3970014
   6.1319992  71.5419978   8.2950014   6.9653435  71.4542700   8.5287310
   2.7669992  66.1799978   3.1840014   3.3829992  66.8069978   3.5640014
   1.9049992  66.4959978   3.4560014   2.7347678  66.3084412   3.2727209
   8.4399992  68.9809978   8.1730014   8.1989992  69.9059978   8.2150014
   7.6989992  68.5219978   8.5700014   8.3069206  69.0455915   8.2323769
   8.9539992  73.1299978  14.4880014   9.3169992  73.9839978  14.2550014
   9.4859992  72.8379978  15.2290014   9.0755141  73.2073895  14.5562097
   7.1229992  74.0019978   7.7190014   6.1729992  74.1079978   7.7700014
   7.4749992  74.8229978   8.0630014   7.0405472  74.1274923   7.7724852
  12.4979992  69.2289978  14.1890014  12.0729992  69.0009978  15.0150014
  13.0789992  68.4899978  14.0070014  12.5183395  69.0979545  14.2774414
  14.7009992  70.1579978   3.2630014  15.0549992  69.7779978   4.0670014
  13.7529992  70.0639978   3.3500014  14.6212298  70.0932452   3.3848687
  15.1569992  73.7809978  16.6580014  14.5549992  73.2249978  16.1630014
  15.4379992  74.4479978  16.0320014  15.1125757  73.7950744  16.5055675
  19.2049992  74.6369978   3.4640014  19.9489992  75.2229978   3.3240014
  18.5109992  75.2059978   3.7970014  19.2129809  74.7940818   3.4898590
   3.2789992  61.0139978  16.0660014   2.3869992  61.3519978  15.9980014
   3.1809992  60.1579978  16.4840014   3.1434475  60.9446543  16.1131704
  15.5669992  68.8299978   5.4900014  15.2899992  68.1019978   6.0460014
  16.4949992  68.9489978   5.6950014  15.6544499  68.7464213   5.5938044
   2.9309992  72.8179978  14.5010014   3.1479992  71.8859978  14.4700014
   3.1769992  73.0929978  15.3840014   2.9939809  72.7275686  14.6161691
   8.7919992  71.2699978   1.7100014   9.0309992  70.5209978   1.1630014
   8.5229992  70.8819978   2.5430014   8.7883233  71.1151853   1.7477809
   7.7289992  70.8399978   4.1660014   7.8759992  70.3199978   4.9560014
   7.7259992  71.7469978   4.4730014   7.7487102  70.8913953   4.3155925
   4.1819992  68.0919978   4.6770014   3.4959992  68.4449978   5.2440014
   4.7049992  68.8549978   4.4300014   4.1588402  68.2433901   4.7211801
  12.0139992  60.7549978  14.9560014  12.7129992  60.8289978  15.6060014
  11.6329992  59.8899978  15.1100014  12.0582097  60.6482389  15.0657997
  12.7979992  60.4069978   6.0530014  13.0179992  60.8779978   5.2490014
  13.3569992  60.8009978   6.7230014  12.9036732  60.5247287   6.0335033
  10.4669992  72.5369978   4.9160014   9.6499992  73.0339978   4.9680014
  10.9959992  73.0129978   4.2750014  10.4268125  72.6691989   4.8365306
   9.9979992  62.1349978   6.8880014  10.8099992  62.6389978   6.9340014
   9.7539992  61.9899978   7.8020014  10.0761467  62.1843749   7.0178575
  10.5339992  63.1209978  16.0720014  10.6529992  63.6949978  16.8290014
  11.1889992  62.4329978  16.1870014  10.6388684  63.1065194  16.1911674
  10.8819992  59.2159978   7.8260014  10.5349992  59.8329978   8.4700014
  11.5409992  59.7169978   7.3440014  10.9235090  59.3681575   7.8490681
   7.8049992  73.5809978   4.8970014   7.9659992  74.3809978   4.3970014
   7.6079992  73.8879978   5.7820014   7.8003906  73.7318678   4.9482333
   6.5399992  60.2789978   4.5130014   6.4559992  61.1669978   4.8600014
   7.4299992  60.0139978   4.7450014   6.6488163  60.3647179   4.5918596
  16.7379992  61.0279978  16.9070014  15.8219992  61.2899978  16.8200014
  17.0739992  61.0249978  16.0110014  16.6578499  61.0635163  16.7738766
  15.3409992  64.7779978  11.0030014  14.5429992  64.3629978  10.6750014
  15.7859992  64.0879978  11.4940014  15.2919684  64.6278628  11.0245227
   4.7979992  70.7059978   3.5730014   5.3899992  71.4059978   3.8500014
   5.2569992  70.2729978   2.8540014   4.9411652  70.7432675   3.5136533
   3.1139992  63.3709978   2.6890014   3.0689992  64.3099978   2.8680014
   2.2259992  63.1349978   2.4200014   2.9878166  63.4676687   2.6771524
  16.4269992  74.0339978  12.6250014  16.2709992  74.7129978  11.9680014
  17.3599992  74.1059978  12.8280014  16.5317387  74.1366390  12.5625342
   3.9219992  58.1519978  11.3630014   3.6929992  58.2109978  10.4350014
   3.4799992  57.3609978  11.6690014   3.8308801  58.0530540  11.2774729
   2.8529992  72.0929978   7.5230014   2.0199992  72.5649978   7.5500014
   3.3979992  72.6029978   6.9240014   2.8127857  72.2264791   7.4457142
   2.1409992  74.7049978  18.8530014   2.6809992  74.4889978  19.6130014
   1.6599992  73.8999978  18.6630014   2.1499219  74.5665156  18.9314282
   6.7379992  73.6249978  20.4730014   7.5059992  73.1659978  20.8140014
   6.7169992  73.3989978  19.5430014   6.8402135  73.5316668  20.3939491
  10.8299992  73.1329978   1.8490014  10.1859992  72.5019978   2.1700014
  11.5919992  72.6019978   1.6170014  10.8448058  72.9747902   1.8616038
  13.3149992  72.0049978  19.2020014  12.9639992  71.1479978  19.4460014
  14.0409992  72.1469978  19.8090014  13.3651895  71.9071351  19.3173770
  15.4349992  72.9499978   2.0820014  15.7179992  72.1549978   2.5350014
  16.1739992  73.1829978   1.5210014  15.5737096  72.8727049   2.0681104
   2.0479992  68.5159978  19.8070014   2.1919992  67.6139978  19.5210014
   1.2759992  68.8019978  19.3200014   1.9632733  68.4311798  19.7019532
   6.3889992  68.8589978   1.9400014   6.4539992  68.0649978   2.4700014
   7.0419992  68.7409978   1.2500014   6.4861605  68.7343430   1.9192997
   8.7029992  68.4849978  19.2400014   8.3749992  68.7559978  18.3830014
   8.8549992  67.5439978  19.1520014   8.6786412  68.3949046  19.1107822
  11.7419992  69.9059978   1.6760014  11.4729992  70.0869978   2.5760014
  11.5349992  68.9809978   1.5440014  11.6771191  69.8057119   1.7815524
  14.4379992  68.4009978  16.6230014  15.1829992  68.9899978  16.5040014
  13.6809992  68.9829978  16.6870014  14.4375470  68.5602128  16.6153799
   2.8809992  65.7159978  19.2270014   3.2889992  64.8589978  19.1060014
   2.6199992  65.7299978  20.1480014   2.9016016  65.6005119  19.3349192
   7.5389992  66.8319978   4.2460014   7.0789992  66.3479978   4.9310014
   7.7939992  66.1629978   3.6100014   7.5104856  66.6753669   4.2538397
   6.8279992  64.7249978  16.6020014   6.2089992  65.3989978  16.8820014
   7.1719992  65.0459978  15.7680014   6.7897123  64.8606887  16.5276388
   8.6099992  65.0749978   2.5080014   8.4289992  64.9199978   1.5810014
   9.5599992  65.1829978   2.5530014   8.7136566  65.0683669   2.3870929
  11.8469992  67.1959978  19.8790014  12.8009992  67.2799978  19.8520014
  11.6869992  66.4839978  20.4990014  11.9557182  67.1112842  19.9590733
  17.9999992  67.4289978   1.9540014  17.7259992  67.0049978   1.1410014
  18.0389992  68.3609978   1.7370014  17.9677716  67.4968827   1.8134286
   7.1669992  62.0799978  17.6840014   7.3169992  61.3509978  17.0820014
   7.1689992  62.8569978  17.1250014   7.1877967  62.0852708  17.5260541
   7.5799992  60.4489978  15.1770014   8.1149992  60.9009978  14.5250014
   6.7269992  60.3409978  14.7540014   7.5380374  60.4962665  15.0306710
   9.1609992  65.8889978  15.4160014   9.9119992  65.7329978  14.8430014
   8.8219992  66.7409978  15.1410014   9.2179587  65.9828138  15.3004078
  13.5769992  63.7039978  20.4450014  13.7689992  62.7729978  20.3330014
  14.4349992  64.1289978  20.4340014  13.7192182  63.6340070  20.4281862
  14.8939992  66.4929978  18.5220014  14.6119992  67.2019978  17.9440014
  15.8359992  66.4199978  18.3710014  14.9827921  66.5802193  18.4224225
   5.6459992  63.2779978  19.5950014   4.8779992  62.7449978  19.3850014
   6.3239992  62.9679978  18.9960014   5.6327235  63.1631754  19.4852413
   8.3849992  57.9059978  15.6080014   8.2869992  58.8519978  15.5030014
   7.6429992  57.5329978  15.1320014   8.2712534  57.9851773  15.5292600
   9.6489992  62.2269978  19.1720014   9.4139992  62.0079978  20.0730014
   8.8659992  62.0199978  18.6620014   9.5109095  62.1689892  19.2265353
  12.3649992  61.3549978  18.2470014  11.4169992  61.3869978  18.3790014
  12.6769992  60.7289978  18.9010014  12.2775293  61.2747923  18.3534148
  13.9989992  59.9889978  20.2520014  13.9019992  59.0369978  20.2470014
  13.6769992  60.2569978  21.1130014  13.9422468  59.8950884  20.3676210
   3.8259992  61.1979978  19.3000014   4.0379992  60.4919978  18.6900014
   3.7149992  60.7609978  20.1440014   3.8400269  61.0421921  19.3305873
   8.6069992  57.1999978  18.2790014   9.3189992  56.5599978  18.2650014
   8.5059992  57.4659978  17.3660014   8.6907387  57.1484330  18.1535563
   8.9609992  58.8819978  20.3330014   8.8289992  58.4069978  19.5130014
   8.3609992  59.6269978  20.2780014   8.8619070  58.9175789  20.2133251
   8.5069992  75.7649978   3.5090014   9.4399992  75.9229978   3.6530014
   8.2429992  76.4409978   2.8840014   8.5989911  75.8779373   3.4442722
   2.0749992  70.4019978   2.9920014   2.9889992  70.4809978   3.2650014
   2.0829992  69.7149978   2.3260014   2.2010655  70.3199205   2.9392917
   0.7239992  75.7949978   8.0690014   0.0769992  75.3329978   7.5370014
   1.0789992  75.1229978   8.6520014   0.6833741  75.6409774   8.0749175
   1.5939992  73.8749978   9.8740014   1.2599992  72.9949978  10.0460014
   1.8169992  74.2209978  10.7390014   1.5783721  73.8011938  10.0144168
  19.1429992  74.6849978  12.8550014  19.1209992  74.8699978  13.7940014
  19.8329992  75.2529978  12.5140014  19.2333439  74.7871887  12.9374791
  18.7059992  74.2519978  15.7760014  18.2189992  73.5169978  15.4050014
  19.2549992  73.8579978  16.4540014  18.7135247  74.0981057  15.8168461
  17.1569992  70.0419978  20.4150014  16.2909992  69.9369978  20.8090014
  17.5329992  70.7999978  20.8610014  17.0893401  70.1301708  20.5292620
  18.4579992  68.2979978   5.9290014  19.3079992  68.7189978   6.0560014
  18.4629992  67.5579978   6.5360014  18.5751143  68.2556094   6.0284750
  18.8519992  66.3519978   7.7520014  18.1259992  65.8719978   8.1500014
  19.4339992  66.5569978   8.4850014  18.8312730  66.3140184   7.9054149
  18.6109992  69.1369978  12.7000014  19.4449992  68.7589978  12.4190014
  18.7229992  70.0799978  12.5810014  18.7401917  69.2127943  12.6454861
  17.0979992  72.0149978  15.0070014  16.4499992  72.3399978  15.6320014
  16.5799992  71.5739978  14.3330014  16.9394196  71.9998651  15.0014152
  19.1209992  66.2529978   4.1430014  18.5989992  66.6089978   3.4250014
  19.0879992  66.9279978   4.8220014  19.0450129  66.3929598   4.1363355
  17.4699992  63.4919978   2.6940014  17.5659992  64.1589978   2.0140014
  17.3299992  62.6769978   2.2130014  17.4642040  63.4730671   2.5358378
  16.6389992  64.8729978   8.3150014  16.4889992  63.9279978   8.2950014
  16.2849992  65.1539978   9.1590014  16.5706351  64.7816644   8.4263220
   1.6739992  66.9509978  12.3260014   1.8589992  66.8689978  11.3900014
   2.5239992  66.8269978  12.7490014   1.8140928  66.9230463  12.2552893
  17.4949992  66.8429978  17.9540014  18.0779992  66.1079978  18.1460014
  18.0589992  67.6149978  18.0010014  17.6509781  66.8468145  17.9866164
  18.9919992  64.7459978  18.6390014  18.1289992  64.3669978  18.4730014
  19.5959992  64.0069978  18.5640014  18.9556085  64.5943223  18.6061695
  16.7169992  60.8999978   1.8120014  17.3279992  60.5289978   2.4490014
  15.8799992  60.4789978   2.0080014  16.6874947  60.7922756   1.9257252
  16.3499992  62.4549978   6.7780014  16.6289992  61.5479978   6.9020014
  17.1089992  62.8889978   6.3890014  16.4908619  62.3894502   6.7423795
  16.9609992  63.0369978  12.2140014  17.8939992  63.2489978  12.1790014
  16.7259992  63.1379978  13.1360014  17.0569517  63.0796833  12.3339130
  16.9909992  63.7739978  14.9900014  16.1479992  64.0419978  15.3560014
  17.4329992  64.5959978  14.7790014  16.9354138  63.9218273  15.0115518
   1.2719992  62.2209978  18.4660014   2.1909992  62.0989978  18.7030014
   0.8219992  61.4709978  18.8560014   1.3370087  62.1029608  18.5511410
  19.2739992  57.7539978  20.3430014  19.6229992  57.0999978  19.7380014
  19.4209992  58.5909978  19.9030014  19.3416824  57.7776024  20.2006304
  16.9629992  59.7179978   6.8260014  17.1449992  59.2689978   7.6510014
  16.3629992  59.1339978   6.3620014  16.9068187  59.5775552   6.8762739
   2.4929992  60.5339978  11.3580014   2.9379992  59.7419978  11.6600014
   2.9589992  61.2499978  11.7880014   2.6169718  60.5224534  11.4575265
   0.7969992  63.5329978  12.4270014   1.2889992  63.3119978  11.6360014
   1.1589992  64.3729978  12.7080014   0.9132923  63.6163468  12.3567407
  18.7929992  59.8629978  18.6920014  17.8759992  60.1339978  18.6570014
  18.9159992  59.3279978  17.9080014  18.6839672  59.8277885  18.5811862
  18.8299992  59.7859978   3.3540014  19.2419992  59.0649978   2.8790014
  19.5109992  60.4549978   3.4120014  18.9785536  59.7777766   3.2968024
   1.1109992  59.7909978   6.4810014   0.1859992  59.9989978   6.3520014
   1.5649992  60.2749978   5.7910014   1.0456298  59.8849299   6.3700451
  15.8809992  74.7749978   8.4270014  16.5339992  74.4269978   7.8190014
  16.3919992  75.2629978   9.0730014  16.0392777  74.7933815   8.4312047
   1.0739992  58.5289978  14.8250014   0.4089992  58.2829978  15.4680014
   0.6309992  59.1509978  14.2480014   0.9231168  58.5794214  14.8349848
   3.2659992  71.7039978  18.9700014   2.4449992  71.8789978  18.5090014
   3.0139992  71.6309978  19.8900014   3.1195594  71.7180717  19.0313611
   6.2199992  72.6779978  15.2280014   5.7959992  73.4879978  14.9460014
   7.1249992  72.7639978  14.9260014   6.2842138  72.8004160  15.1486415
  10.5319992  74.0769978  18.1880014  10.7159992  73.7439978  19.0660014
  11.3779992  74.3869978  17.8660014  10.6716484  74.0732979  18.2647617
  12.8769992  75.3629978  17.4320014  13.5539992  74.7299978  17.1920014
  13.1979992  75.7639978  18.2390014  13.0131323  75.3305691  17.5083158
  17.7939992  57.9529978  16.5110014  16.9809992  58.2779978  16.1240014
  18.0269992  57.1919978  15.9780014  17.7141347  57.8946880  16.3859841
   3.6219992  75.9349978  15.2760014   2.9019992  76.3749978  14.8250014
   3.2569992  75.6839978  16.1240014   3.4739643  75.9613369  15.3289129
   6.0889992  75.5349978  14.3060014   5.2249992  75.6069978  14.7100014
   6.0339992  76.0819978  13.5220014   5.9631942  75.6187849  14.2554000
  10.7999992  75.4229978  13.4810014  10.3429992  75.9519978  12.8270014
  10.9629992  76.0259978  14.2060014  10.7594960  75.5769280  13.4895274
  13.1279992  74.3009978  14.4260014  12.2229992  74.4659978  14.1600014
  13.5559992  75.1539978  14.3600014  13.0621537  74.4389134  14.3807095
  15.7319992  75.8709978  14.7210014  15.5499992  76.7869978  14.5100014
  15.9089992  75.4599978  13.8740014  15.7310030  75.9408273  14.5777166
   3.0369992  74.5579978  12.1860014   3.0189992  74.1319978  13.0430014
   3.8419992  74.2389978  11.7770014   3.1432875  74.4566435  12.2479515
   5.1779992  73.2679978  10.8410014   4.9589992  72.3509978  11.0110014
   6.0019992  73.4079978  11.3070014   5.2594702  73.1615511  10.9272527
   7.7149992  73.7379978  11.6900014   7.9279992  72.8499978  11.4030014
   7.7799992  73.7029978  12.6440014   7.7529149  73.6118326  11.7797369
  11.2239992  59.4019978  10.8340014  10.5499992  58.7719978  11.0900014
  11.7879992  58.9179978  10.2310014  11.2080384  59.2503708  10.7875020
  16.3669992  57.5089978  10.9470014  16.9699992  58.0569978  10.4450014
  15.4969992  57.8279978  10.7060014  16.3319157  57.6270373  10.8457910
  18.0939992  58.6479978   9.2800014  18.7049992  58.1339978   8.7530014
  18.4759992  59.5249978   9.3030014  18.2293305  58.6962050   9.2109418
   3.5509992  58.0359978   8.6560014   2.7739992  57.8009978   8.1490014
   4.0809992  57.2389978   8.6650014   3.5163451  57.8961268   8.5878627
   2.3869992  57.8339978   4.4600014   2.8259992  58.4449978   3.8680014
   1.7529992  58.3719978   4.9340014   2.3613859  57.9904064   4.4430305
   8.1299992  57.9619978   8.4690014   9.0039992  58.3509978   8.4400014
   7.9939992  57.7469978   9.3920014   8.2311953  57.9861643   8.5897617
  13.6869992  57.9919978  10.1190014  13.7629992  58.0879978   9.1690014
  13.4119992  57.0849978  10.2470014  13.6601871  57.8824146  10.0063944
  15.0399992  58.0179978   5.8110014  14.3369992  58.6329978   5.6010014
  14.5949992  57.1809978   5.9420014  14.8836550  57.9889668   5.7999837
   2.2879992  73.7819978   5.3570014   1.6029992  73.7439978   4.6900014
   2.2919992  74.6949978   5.6450014   2.1947621  73.9001924   5.3046126
   4.2479992  59.7499978   2.9020014   4.7389992  59.1199978   2.3750014
   4.8709992  60.0459978   3.5650014   4.3995304  59.7037376   2.9194940
   9.2739992  60.0429978   5.3590014   9.4519992  59.3959978   6.0420014
   9.2199992  60.8769978   5.8260014   9.2910678  60.0671604   5.5156301
  11.1519992  74.9909978   3.7550014  12.0179992  75.3579978   3.5770014
  10.9059992  74.5519978   2.9410014  11.2372097  74.9818525   3.6206019
  17.8609992  74.5539978   6.4340014  17.6669992  73.8059978   5.8690014
  17.8219992  75.3119978   5.8510014  17.8291645  74.5540786   6.2778148
   3.5079992  58.5499978  18.1740014   3.1419992  57.7839978  18.6160014
   4.4209992  58.5789978  18.4600014   3.5813172  58.4490324  18.2731890
   5.4809992  57.8999978  19.7090014   6.3799992  57.6259978  19.5250014
   5.0949992  57.1579978  20.1740014   5.5517307  57.7622196  19.7467098
   4.1059992  74.7019978   2.3820014   3.8379992  74.9879978   3.2560014
   4.8769992  74.1559978   2.5350014   4.1735927  74.6672779   2.5221205
  13.9029992  57.2329978  19.8920014  13.9789992  56.8069978  20.7450014
  14.7959992  57.2459978  19.5490014  14.0342303  57.1763493  19.9625497
  17.0789992  73.3059978  18.5840014  16.2969992  73.1189978  18.0640014
  17.0069992  74.2349978  18.8010014  16.9621924  73.4060637  18.5421602
  31.4849992  67.1919978   8.6150014  31.5739992  68.1359978   8.4830014
  30.8469992  66.9169978   7.9570014  31.4109062  67.2839812   8.5079641
  30.4179992  66.4469978  12.0340014  30.3799992  65.8009978  12.7390014
  30.0959992  65.9799978  11.2630014  30.3692679  66.2954276  12.0262921
  22.7859992  66.0609978  13.6270014  22.8279992  65.4359978  14.3500014
  23.4889992  66.6849978  13.8090014  22.8867345  66.0597873  13.7505274
  34.1239992  69.3859978  10.3350014  33.6829992  68.6659978  10.7860014
  34.1109992  70.1069978  10.9650014  34.0619215  69.3849291  10.4818105
  23.7099992  70.5109978  12.1620014  23.3399992  69.7089978  11.7920014
  24.6509992  70.3429978  12.2080014  23.7865984  70.3784638  12.1175603
  20.3199992  64.1709978   7.5540014  19.8719992  65.0169978   7.5360014
  19.7589992  63.5919978   7.0390014  20.1828546  64.2083993   7.4818891
  21.0299992  66.3329978   9.6800014  21.2439992  65.5629978  10.2080014
  21.7679992  66.4229978   9.0770014  21.1590200  66.2398587   9.6707035
  31.2359992  74.4899978  10.5470014  31.8549992  73.8139978  10.2740014
  31.0269992  74.2719978  11.4560014  31.2926056  74.3678869  10.6323967
  28.8069992  68.8789978  12.4400014  29.1109992  68.1929978  11.8450014
  29.5289992  68.9979978  13.0580014  28.9461240  68.8012314  12.4420959
  37.4699992  60.4809978  13.3000014  37.5199992  61.0909978  14.0360014
  37.8959992  60.9419978  12.5770014  37.5344108  60.6267709  13.3030112
  31.9479992  63.2729978  12.7670014  32.0909992  62.3269978  12.7870014
  31.8419992  63.4799978  11.8390014  31.9532403  63.1714797  12.6442239
  25.1029992  61.3749978  10.0400014  25.1459992  62.2349978   9.6210014
  24.6449992  60.8229978   9.4060014  25.0469871  61.4179245   9.8970761
  32.8249992  61.5059978   8.4410014  33.4719992  61.1769978   9.0650014
  33.3349992  62.0229978   7.8180014  32.9824351  61.5309067   8.4421037
  21.7229992  63.7719978  10.8020014  22.3769992  63.2219978  11.2340014
  21.7469992  63.4979978   9.8850014  21.8157199  63.6597167  10.7371668
  26.8799992  65.3219978  10.0170014  27.4959992  64.7949978  10.5260014
  26.2929992  64.6819978   9.6130014  26.8850154  65.1633954  10.0320945
  37.8619992  61.9589978  15.5360014  37.1729992  62.6169978  15.4410014
  37.8769992  61.7609978  16.4730014  37.7697756  62.0222603  15.6495812
  23.9129992  60.2929978  14.1140014  23.6939992  60.8229978  13.3470014
  23.2449992  60.5189978  14.7610014  23.7926975  60.3960967  14.0965140
  31.2819992  69.7929978   7.6580014  30.9869992  69.4699978   6.8060014
  30.9579992  70.6929978   7.6990014  31.1978460  69.8704464   7.5469714
  26.4819992  67.9679978  14.4010014  25.7419992  68.5669978  14.5050014
  27.1959992  68.5219978  14.0860014  26.4773500  68.1247829  14.3726371
  34.5889992  60.7969978  10.4210014  34.3739992  60.0309978  10.9540014
  35.2449992  61.2689978  10.9340014  34.6482673  60.7560728  10.5631990
  23.5069992  62.1849978  12.0660014  24.1209992  62.8179978  12.4390014
  24.0189992  61.7129978  11.4100014  23.6601962  62.2077249  12.0282935
  24.8899992  69.9329978  15.1880014  24.8839992  70.8119978  14.8100014
  24.0359992  69.8489978  15.6130014  24.7737925  70.0419535  15.1936887
  21.0109992  69.6039978   5.9700014  20.7389992  69.8329978   5.0820014
  21.0559992  70.4409978   6.4310014  20.9798097  69.7486163   5.9106683
  34.6359992  71.2249978  12.6830014  33.6939992  71.2839978  12.8450014
  34.9119992  72.1309978  12.5460014  34.5445865  71.3555288  12.6866192
  34.9359992  59.5119978  14.1000014  34.1999992  60.1219978  14.0630014
  35.6199992  59.9269978  13.5740014  34.9275367  59.6517551  14.0238174
  27.9399992  57.5979978  11.5660014  27.8219992  56.6499978  11.5120014
  27.0849992  57.9309978  11.8390014  27.8082805  57.5132202  11.5955079
  32.8879992  73.0059978   9.3080014  33.3129992  72.2989978   8.8230014
  33.2049992  73.8079978   8.8910014  32.9890266  73.0175190   9.1852479
  34.0479992  70.9069978   7.8170014  33.7899992  70.2169978   7.2050014
  34.1189992  70.4639978   8.6620014  34.0223050  70.7526814   7.8475621
  35.7339992  69.4739978  16.2940014  35.8729992  68.8819978  15.5550014
  35.9009992  70.3469978  15.9380014  35.7756193  69.5108896  16.1446211
  30.2059992  66.4359978   6.0670014  29.4949992  66.9709978   5.7150014
  30.8969992  66.4909978   5.4070014  30.2020751  66.5166777   5.9295858
  30.2599992  64.8929978   3.1050014  30.9609992  64.9159978   3.7570014
  30.5619992  64.2649978   2.4490014  30.3968202  64.8112212   3.1055609
  37.5749992  65.8139978  14.3600014  36.9229992  66.5079978  14.4490014
  38.0409992  66.0239978  13.5500014  37.5485937  65.9375019  14.2627533
  33.6119992  66.6449978   7.0180014  32.8799992  66.8739978   7.5920014
  34.0589992  65.9319978   7.4730014  33.5723963  66.5798729   7.1579945
  33.5089992  64.8199978  16.0860014  33.5889992  65.5829978  16.6580014
  32.9079992  65.0989978  15.3960014  33.4386547  64.9622457  16.0710047
  25.2569992  67.2759978   8.9010014  24.9269992  66.9049978   8.0830014
  25.8459992  66.6049978   9.2480014  25.2913970  67.1346063   8.8359404
  26.6239992  70.7039978  11.5820014  26.5289992  70.1249978  10.8260014
  27.3529992  70.3329978  12.0780014  26.7096011  70.5745561  11.5456028
  25.6239992  66.0439978  12.5340014  26.1889992  66.1659978  11.7720014
  25.9429992  66.6819978  13.1730014  25.7444166  66.1468791  12.5160348
  31.9329992  71.5479978  13.2680014  31.6929992  72.2099978  13.9160014
  31.7349992  70.7129978  13.6930014  31.8733826  71.5258115  13.4141566
  26.5039992  70.4439978  17.2520014  26.1929992  71.2259978  17.7070014
  25.8539992  70.2909978  16.5660014  26.3735538  70.5304087  17.2215898
  32.4829992  65.8079978   4.7040014  33.0619992  65.9579978   5.4500014
  32.8969992  66.2779978   3.9800014  32.6183358  65.8920954   4.7083953
  23.4239992  66.6419978  16.4800014  23.4939992  67.2929978  17.1790014
  22.5329992  66.7449978  16.1450014  23.3131690  66.7449249  16.5303043
  30.2089992  72.5439978   8.1390014  30.6829992  72.8399978   8.9160014
  29.6459992  73.2829978   7.9060014  30.1977890  72.6843036   8.2138101
  24.7429992  72.5149978  18.0150014  24.7509992  72.3789978  17.0680014
  23.8269992  72.3979978  18.2670014  24.6202528  72.4805463  17.9193243
  36.1819992  57.5579978   4.5170014  35.2819992  57.6969978   4.8120014
  36.4339992  58.3889978   4.1150014  36.0928683  57.6894055   4.5030232
  24.2479992  66.3449978   6.4900014  23.9559992  67.1129978   5.9990014
  23.5729992  65.6859978   6.3270014  24.1168497  66.3609745   6.4008260
  37.3709992  71.9239978   2.8930014  37.4439992  72.8629978   3.0630014
  38.2759992  71.6189978   2.8370014  37.5034170  72.0113282   2.9087063
  20.3409992  68.7079978  15.3050014  19.8389992  68.6799978  14.4900014
  20.3459992  67.8029978  15.6150014  20.2729832  68.5817486  15.2354121
  20.0909992  71.4889978  12.1890014  21.0369992  71.3439978  12.1700014
  19.9779992  72.2729978  12.7260014  20.2053578  71.5751697  12.2590317
  38.2889992  72.1549978  17.8720014  38.2389992  71.1989978  17.8340014
  37.4619992  72.4219978  18.2730014  38.1703831  72.0604680  17.9210121
  29.2669992  71.7289978  16.7480014  29.3549992  72.5549978  17.2230014
  28.4039992  71.3989978  16.9970014  29.1623357  71.7975468  16.8467653
  29.6819992  75.5009978   6.5540014  29.6059992  75.3799978   5.6070014
  29.7139992  76.4499978   6.6720014  29.6759380  75.6127677   6.4405181
  23.3349992  74.2899978   8.3350014  23.4869992  73.9419978   9.2130014
  22.4839992  73.9329978   8.0790014  23.2408344  74.1940879   8.4206868
  32.7829992  74.6549978   3.5560014  33.1579992  73.9109978   3.0850014
  32.7879992  74.3849978   4.4740014  32.8350098  74.5166392   3.6156629
  32.4519992  74.5809978   6.3050014  31.5169992  74.6809978   6.4840014
  32.7319992  73.8709978   6.8840014  32.3619471  74.4987933   6.4076695
  35.4409992  63.6479978  18.3520014  35.0329992  64.1279978  17.6310014
  35.4809992  62.7419978  18.0440014  35.3906221  63.5912449  18.2118267
  22.5899992  70.0319978  16.3480014  22.8059992  69.6699978  17.2080014
  21.7339992  69.6569978  16.1390014  22.5038810  69.9318837  16.4372680
  25.2079992  58.5019978  12.3440014  24.3469992  58.4149978  11.9360014
  25.1859992  59.3579978  12.7720014  25.0870491  58.6058003  12.3459582
  29.8709992  58.2239978  15.7190014  30.2909992  57.8089978  16.4720014
  28.9379992  58.0449978  15.8360014  29.8023736  58.1429910  15.8378968
  33.1979992  61.9789978  16.5720014  32.6839992  61.8539978  17.3700014
  33.0419992  62.8919978  16.3280014  33.1066967  62.0852123  16.6480937
  33.9599992  66.8399978   2.3330014  34.0019992  66.6179978   1.4030014
  34.8089992  67.2389978   2.5230014  34.0805253  66.8635498   2.2313822
  29.5329992  60.7159978   3.0040014  29.2789992  60.7349978   3.9260014
  29.2759992  59.8449978   2.7020014  29.4634508  60.6008280   3.0894803
  25.2989992  63.4669978  13.4390014  24.6579992  63.4269978  14.1480014
  25.3369992  64.3939978  13.2010014  25.2163010  63.5867668  13.5039946
  25.2959992  63.6879978   8.3510014  24.4039992  63.3479978   8.2920014
  25.7469992  63.3109978   7.5950014  25.2347642  63.5904910   8.2407726
  30.8319992  64.1039978   7.1680014  30.4229992  64.9189978   6.8760014
  31.5519992  63.9639978   6.5540014  30.8734439  64.1965372   7.0450115
  29.9339992  64.2799978  18.6560014  29.3709992  63.5749978  18.9770014
  30.7599992  64.1589978  19.1240014  29.9686674  64.1672165  18.7631751
  31.8369992  63.5499978   9.9820014  31.6409992  64.1559978   9.2670014
  32.0179992  62.7169978   9.5480014  31.8346584  63.5202513   9.8254212
  23.0489992  63.7879978  15.3060014  23.0109992  64.1879978  16.1750014
  22.5589992  62.9709978  15.3960014  22.9775330  63.7322674  15.4371289
  26.4149992  61.1619978   2.1050014  25.9839992  60.7169978   2.8340014
  25.6969992  61.5329978   1.5920014  26.2589176  61.1512051   2.1354930
  19.6579992  60.9039978   9.1570014  20.2879992  60.8749978   9.8760014
  20.1069992  60.4789978   8.4260014  19.8050835  60.8425660   9.1567659
  20.9319992  61.6499978   4.5810014  21.4059992  62.2409978   3.9960014
  20.2139992  62.1799978   4.9280014  20.8998640  61.8025511   4.5477969
  31.1009992  65.1879978  14.6530014  31.4239992  64.5569978  14.0100014
  30.6599992  64.6539978  15.3140014  31.0856379  65.0293468  14.6542582
  27.8779992  61.1159978   9.4370014  26.9669992  61.1729978   9.7260014
  28.3829992  61.0559978  10.2480014  27.8216873  61.1156826   9.5861207
  22.7059992  62.7449978   8.2640014  21.8169992  62.8439978   7.9240014
  23.0029992  61.9029978   7.9180014  22.6244177  62.6447687   8.1706940
  26.3589992  62.7449978   5.9210014  27.2909992  62.8739978   6.0990014
  26.1439992  63.4139978   5.2710014  26.4574472  62.8530806   5.8574891
  32.2829992  60.3509978  12.7020014  31.6059992  60.4819978  13.3650014
  31.7979992  60.1959978  11.8910014  32.1247405  60.3479947  12.6832170
  25.0329992  63.9389978   3.4870014  24.4909992  63.5599978   2.7960014
  25.8669992  64.1339978   3.0590014  25.0714390  63.9134079   3.3344392
  35.5709992  76.0219978  18.9780014  35.7699992  76.4459978  18.1440014
  36.2259992  76.3659978  19.5850014  35.6868522  76.1266301  18.9457852
  23.1689992  68.4959978  18.5860014  23.9009992  68.7509978  19.1480014
  22.3879992  68.7009978  19.1020014  23.1636526  68.5585450  18.7325176
  29.1979992  63.9029978  11.3240014  29.7619992  63.3569978  10.7770014
  29.0499992  63.3819978  12.1130014  29.2553037  63.7576787  11.3557229
  24.1999992  60.0399978   7.7430014  23.8829992  59.1369978   7.7070014
  24.9809992  60.0419978   7.1900014  24.2622431  59.9167797   7.6633102
  27.8239992  62.2919978  13.7380014  26.9889992  62.7459978  13.8490014
  28.3479992  62.5679978  14.4900014  27.7806072  62.3913948  13.8548136
  28.3689992  68.5049978   5.4230014  27.6239992  67.9969978   5.1010014
  28.2339992  68.5539978   6.3690014  28.2488963  68.4421731   5.5068826
  35.5189992  67.6379978  14.2100014  36.1599992  68.0939978  13.6660014
  34.6879992  67.7509978  13.7470014  35.4945287  67.7156921  14.0729887
  32.2659992  61.3189978   3.6220014  31.3279992  61.4299978   3.4710014
  32.5639992  62.1749978   3.9290014  32.1776318  61.4500158   3.6428145
  29.8879992  68.6889978  16.6600014  29.5419992  68.3069978  17.4670014
  29.6879992  69.6219978  16.7310014  29.8135987  68.7629002  16.7800461
  32.9849992  63.1859978   5.2830014  33.8769992  63.0479978   5.6020014
  33.0409992  63.9769978   4.7460014  33.1147325  63.2739918   5.2541217
  23.4929992  67.7999978  11.1930014  24.2379992  67.7969978  10.5910014
  23.5709992  66.9759978  11.6740014  23.6053365  67.6882384  11.1757430
  30.4939992  69.9629978   4.4480014  30.1989992  70.7899978   4.8300014
  29.7909992  69.3439978   4.6450014  30.3586379  69.9924171   4.5268654
  20.5009992  66.2599978  16.5080014  20.7239992  65.8419978  17.3390014
  19.8989992  65.6479978  16.0850014  20.4501513  66.1199606  16.5646740
  27.5179992  65.7769978  18.7210014  27.2219992  65.6119978  17.8250014
  28.4489992  65.5569978  18.7100014  27.6034401  65.7246879  18.5970206
  32.1379992  71.1509978  16.6100014  31.2379992  71.3339978  16.3430014
  32.1719992  71.4099978  17.5310014  32.0193748  71.2110554  16.6979164
  37.8699992  63.3949978   4.9780014  37.3149992  62.9989978   4.3050014
  37.9699992  64.3059978   4.7000014  37.8076816  63.4639505   4.8485033
  37.8329992  69.1959978  17.8150014  36.9819992  69.4339978  17.4470014
  38.4229992  69.1789978  17.0620014  37.7963812  69.2262524  17.6628453
  36.1649992  72.1809978   5.4430014  35.7919992  71.3559978   5.7520014
  36.4419992  71.9979978   4.5450014  36.1513463  72.0432569   5.3639525
  33.3249992  66.9889978  12.4640014  32.3969992  66.7579978  12.4370014
  33.7759992  66.2119978  12.1340014  33.2588165  66.8522774  12.4156790
  25.8679992  71.3179978   8.5970014  26.3959992  72.0909978   8.3970014
  24.9879992  71.5419978   8.2950014  25.8213435  71.4542700   8.5287310
  21.6229992  66.1799978   3.1840014  22.2389992  66.8069978   3.5640014
  20.7609992  66.4959978   3.4560014  21.5907678  66.3084412   3.2727209
  27.2959992  68.9809978   8.1730014  27.0549992  69.9059978   8.2150014
  26.5549992  68.5219978   8.5700014  27.1629206  69.0455915   8.2323769
  27.8099992  73.1299978  14.4880014  28.1729992  73.9839978  14.2550014
  28.3419992  72.8379978  15.2290014  27.9315141  73.2073895  14.5562097
  25.9789992  74.0019978   7.7190014  25.0289992  74.1079978   7.7700014
  26.3309992  74.8229978   8.0630014  25.8965472  74.1274923   7.7724852
  31.3539992  69.2289978  14.1890014  30.9289992  69.0009978  15.0150014
  31.9349992  68.4899978  14.0070014  31.3743395  69.0979545  14.2774414
  33.5569992  70.1579978   3.2630014  33.9109992  69.7779978   4.0670014
  32.6089992  70.0639978   3.3500014  33.4772298  70.0932452   3.3848687
  34.0129992  73.7809978  16.6580014  33.4109992  73.2249978  16.1630014
  34.2939992  74.4479978  16.0320014  33.9685757  73.7950744  16.5055675
  38.0609992  74.6369978   3.4640014  38.8049992  75.2229978   3.3240014
  37.3669992  75.2059978   3.7970014  38.0689809  74.7940818   3.4898590
  22.1349992  61.0139978  16.0660014  21.2429992  61.3519978  15.9980014
  22.0369992  60.1579978  16.4840014  21.9994475  60.9446543  16.1131704
  34.4229992  68.8299978   5.4900014  34.1459992  68.1019978   6.0460014
  35.3509992  68.9489978   5.6950014  34.5104499  68.7464213   5.5938044
  21.7869992  72.8179978  14.5010014  22.0039992  71.8859978  14.4700014
  22.0329992  73.0929978  15.3840014  21.8499809  72.7275686  14.6161691
  27.6479992  71.2699978   1.7100014  27.8869992  70.5209978   1.1630014
  27.3789992  70.8819978   2.5430014  27.6443233  71.1151853   1.7477809
  26.5849992  70.8399978   4.1660014  26.7319992  70.3199978   4.9560014
  26.5819992  71.7469978   4.4730014  26.6047102  70.8913953   4.3155925
  23.0379992  68.0919978   4.6770014  22.3519992  68.4449978   5.2440014
  23.5609992  68.8549978   4.4300014  23.0148402  68.2433901   4.7211801
  30.8699992  60.7549978  14.9560014  31.5689992  60.8289978  15.6060014
  30.4889992  59.8899978  15.1100014  30.9142097  60.6482389  15.0657997
  31.6539992  60.4069978   6.0530014  31.8739992  60.8779978   5.2490014
  32.2129992  60.8009978   6.7230014  31.7596731  60.5247287   6.0335033
  29.3229992  72.5369978   4.9160014  28.5059992  73.0339978   4.9680014
  29.8519992  73.0129978   4.2750014  29.2828125  72.6691989   4.8365306
  28.8539992  62.1349978   6.8880014  29.6659992  62.6389978   6.9340014
  28.6099992  61.9899978   7.8020014  28.9321467  62.1843749   7.0178575
  29.3899992  63.1209978  16.0720014  29.5089992  63.6949978  16.8290014
  30.0449992  62.4329978  16.1870014  29.4948684  63.1065194  16.1911674
  29.7379992  59.2159978   7.8260014  29.3909992  59.8329978   8.4700014
  30.3969992  59.7169978   7.3440014  29.7795090  59.3681575   7.8490681
  26.6609992  73.5809978   4.8970014  26.8219992  74.3809978   4.3970014
  26.4639992  73.8879978   5.7820014  26.6563906  73.7318678   4.9482333
  25.3959992  60.2789978   4.5130014  25.3119992  61.1669978   4.8600014
  26.2859992  60.0139978   4.7450014  25.5048163  60.3647179   4.5918596
  35.5939992  61.0279978  16.9070014  34.6779992  61.2899978  16.8200014
  35.9299992  61.0249978  16.0110014  35.5138499  61.0635163  16.7738766
  34.1969992  64.7779978  11.0030014  33.3989992  64.3629978  10.6750014
  34.6419992  64.0879978  11.4940014  34.1479684  64.6278628  11.0245227
  23.6539992  70.7059978   3.5730014  24.2459992  71.4059978   3.8500014
  24.1129992  70.2729978   2.8540014  23.7971652  70.7432675   3.5136533
  21.9699992  63.3709978   2.6890014  21.9249992  64.3099978   2.8680014
  21.0819992  63.1349978   2.4200014  21.8438166  63.4676687   2.6771524
  35.2829992  74.0339978  12.6250014  35.1269992  74.7129978  11.9680014
  36.2159992  74.1059978  12.8280014  35.3877387  74.1366390  12.5625342
  22.7779992  58.1519978  11.3630014  22.5489992  58.2109978  10.4350014
  22.3359992  57.3609978  11.6690014  22.6868801  58.0530540  11.2774729
  21.7089992  72.0929978   7.5230014  20.8759992  72.5649978   7.5500014
  22.2539992  72.6029978   6.9240014  21.6687857  72.2264791   7.4457142
  20.9969992  74.7049978  18.8530014  21.5369992  74.4889978  19.6130014
  20.5159992  73.8999978  18.6630014  21.0059219  74.5665156  18.9314282
  25.5939992  73.6249978  20.4730014  26.3619992  73.1659978  20.8140014
  25.5729992  73.3989978  19.5430014  25.6962135  73.5316668  20.3939491
  29.6859992  73.1329978   1.8490014  29.0419992  72.5019978   2.1700014
  30.4479992  72.6019978   1.6170014  29.7008058  72.9747902   1.8616038
  32.1709992  72.0049978  19.2020014  31.8199992  71.1479978  19.4460014
  32.8969992  72.1469978  19.8090014  32.2211895  71.9071351  19.3173770
  34.2909992  72.9499978   2.0820014  34.5739992  72.1549978   2.5350014
  35.0299992  73.1829978   1.5210014  34.4297096  72.8727049   2.0681104
  25.2449992  68.8589978   1.9400014  25.3099992  68.0649978   2.4700014
  25.8979992  68.7409978   1.2500014  25.3421605  68.7343430   1.9192997
  27.5589992  68.4849978  19.2400014  27.2309992  68.7559978  18.3830014
  27.7109992  67.5439978  19.1520014  27.5346412  68.3949046  19.1107822
  30.5979992  69.9059978   1.6760014  30.3289992  70.0869978   2.5760014
  30.3909992  68.9809978   1.5440014  30.5331191  69.8057119   1.7815524
  33.2939992  68.4009978  16.6230014  34.0389992  68.9899978  16.5040014
  32.5369992  68.9829978  16.6870014  33.2935470  68.5602128  16.6153799
  21.7369992  65.7159978  19.2270014  22.1449992  64.8589978  19.1060014
  21.4759992  65.7299978  20.1480014  21.7576016  65.6005119  19.3349192
  26.3949992  66.8319978   4.2460014  25.9349992  66.3479978   4.9310014
  26.6499992  66.1629978   3.6100014  26.3664856  66.6753669   4.2538397
  25.6839992  64.7249978  16.6020014  25.0649992  65.3989978  16.8820014
  26.0279992  65.0459978  15.7680014  25.6457123  64.8606887  16.5276388
  27.4659992  65.0749978   2.5080014  27.2849992  64.9199978   1.5810014
  28.4159992  65.1829978   2.5530014  27.5696566  65.0683669   2.3870929
  30.7029992  67.1959978  19.8790014  31.6569992  67.2799978  19.8520014
  30.5429992  66.4839978  20.4990014  30.8117182  67.1112842  19.9590733
  36.8559992  67.4289978   1.9540014  36.5819992  67.0049978   1.1410014
  36.8949992  68.3609978   1.7370014  36.8237716  67.4968827   1.8134286
  26.0229992  62.0799978  17.6840014  26.1729992  61.3509978  17.0820014
  26.0249992  62.8569978  17.1250014  26.0437967  62.0852708  17.5260541
  26.4359992  60.4489978  15.1770014  26.9709992  60.9009978  14.5250014
  25.5829992  60.3409978  14.7540014  26.3940374  60.4962665  15.0306710
  28.0169992  65.8889978  15.4160014  28.7679992  65.7329978  14.8430014
  27.6779992  66.7409978  15.1410014  28.0739587  65.9828138  15.3004078
  32.4329992  63.7039978  20.4450014  32.6249992  62.7729978  20.3330014
  33.2909992  64.1289978  20.4340014  32.5752182  63.6340070  20.4281862
  33.7499992  66.4929978  18.5220014  33.4679992  67.2019978  17.9440014
  34.6919992  66.4199978  18.3710014  33.8387921  66.5802193  18.4224225
  24.5019992  63.2779978  19.5950014  23.7339992  62.7449978  19.3850014
  25.1799992  62.9679978  18.9960014  24.4887235  63.1631754  19.4852413
  27.2409992  57.9059978  15.6080014  27.1429992  58.8519978  15.5030014
  26.4989992  57.5329978  15.1320014  27.1272534  57.9851773  15.5292600
  28.5049992  62.2269978  19.1720014  28.2699992  62.0079978  20.0730014
  27.7219992  62.0199978  18.6620014  28.3669095  62.1689892  19.2265353
  31.2209992  61.3549978  18.2470014  30.2729992  61.3869978  18.3790014
  31.5329992  60.7289978  18.9010014  31.1335293  61.2747923  18.3534148
  32.8549992  59.9889978  20.2520014  32.7579992  59.0369978  20.2470014
  32.5329992  60.2569978  21.1130014  32.7982468  59.8950884  20.3676210
  22.6819992  61.1979978  19.3000014  22.8939992  60.4919978  18.6900014
  22.5709992  60.7609978  20.1440014  22.6960269  61.0421921  19.3305873
  27.4629992  57.1999978  18.2790014  28.1749992  56.5599978  18.2650014
  27.3619992  57.4659978  17.3660014  27.5467387  57.1484330  18.1535563
  27.8169992  58.8819978  20.3330014  27.6849992  58.4069978  19.5130014
  27.2169992  59.6269978  20.2780014  27.7179070  58.9175789  20.2133251
  27.3629992  75.7649978   3.5090014  28.2959992  75.9229978   3.6530014
  27.0989992  76.4409978   2.8840014  27.4549911  75.8779373   3.4442722
  20.9309992  70.4019978   2.9920014  21.8449992  70.4809978   3.2650014
  20.9389992  69.7149978   2.3260014  21.0570655  70.3199205   2.9392917
  19.5799992  75.7949978   8.0690014  18.9329992  75.3329978   7.5370014
  19.9349992  75.1229978   8.6520014  19.5393741  75.6409774   8.0749175
  20.4499992  73.8749978   9.8740014  20.1159992  72.9949978  10.0460014
  20.6729992  74.2209978  10.7390014  20.4343721  73.8011938  10.0144168
  37.9989992  74.6849978  12.8550014  37.9769992  74.8699978  13.7940014
  38.6889992  75.2529978  12.5140014  38.0893439  74.7871887  12.9374791
  37.5619992  74.2519978  15.7760014  37.0749992  73.5169978  15.4050014
  38.1109992  73.8579978  16.4540014  37.5695247  74.0981057  15.8168461
  36.0129992  70.0419978  20.4150014  35.1469992  69.9369978  20.8090014
  36.3889992  70.7999978  20.8610014  35.9453401  70.1301708  20.5292620
  37.3139992  68.2979978   5.9290014  38.1639992  68.7189978   6.0560014
  37.3189992  67.5579978   6.5360014  37.4311143  68.2556094   6.0284750
  37.7079992  66.3519978   7.7520014  36.9819992  65.8719978   8.1500014
  38.2899992  66.5569978   8.4850014  37.6872730  66.3140184   7.9054149
  37.4669992  69.1369978  12.7000014  38.3009992  68.7589978  12.4190014
  37.5789992  70.0799978  12.5810014  37.5961917  69.2127943  12.6454861
  35.9539992  72.0149978  15.0070014  35.3059992  72.3399978  15.6320014
  35.4359992  71.5739978  14.3330014  35.7954196  71.9998651  15.0014152
  37.9769992  66.2529978   4.1430014  37.4549992  66.6089978   3.4250014
  37.9439992  66.9279978   4.8220014  37.9010129  66.3929598   4.1363355
  36.3259992  63.4919978   2.6940014  36.4219992  64.1589978   2.0140014
  36.1859992  62.6769978   2.2130014  36.3202040  63.4730671   2.5358378
  35.4949992  64.8729978   8.3150014  35.3449992  63.9279978   8.2950014
  35.1409992  65.1539978   9.1590014  35.4266351  64.7816644   8.4263220
  20.5299992  66.9509978  12.3260014  20.7149992  66.8689978  11.3900014
  21.3799992  66.8269978  12.7490014  20.6700928  66.9230463  12.2552893
  36.3509992  66.8429978  17.9540014  36.9339992  66.1079978  18.1460014
  36.9149992  67.6149978  18.0010014  36.5069781  66.8468145  17.9866164
  37.8479992  64.7459978  18.6390014  36.9849992  64.3669978  18.4730014
  38.4519992  64.0069978  18.5640014  37.8116085  64.5943223  18.6061695
  35.5729992  60.8999978   1.8120014  36.1839992  60.5289978   2.4490014
  34.7359992  60.4789978   2.0080014  35.5434947  60.7922756   1.9257252
  35.2059992  62.4549978   6.7780014  35.4849992  61.5479978   6.9020014
  35.9649992  62.8889978   6.3890014  35.3468619  62.3894502   6.7423795
  35.8169992  63.0369978  12.2140014  36.7499992  63.2489978  12.1790014
  35.5819992  63.1379978  13.1360014  35.9129517  63.0796833  12.3339130
  35.8469992  63.7739978  14.9900014  35.0039992  64.0419978  15.3560014
  36.2889992  64.5959978  14.7790014  35.7914138  63.9218273  15.0115518
  20.1279992  62.2209978  18.4660014  21.0469992  62.0989978  18.7030014
  19.6779992  61.4709978  18.8560014  20.1930087  62.1029608  18.5511410
  38.1299992  57.7539978  20.3430014  38.4789992  57.0999978  19.7380014
  38.2769992  58.5909978  19.9030014  38.1976824  57.7776024  20.2006304
  35.8189992  59.7179978   6.8260014  36.0009992  59.2689978   7.6510014
  35.2189992  59.1339978   6.3620014  35.7628187  59.5775552   6.8762739
  21.3489992  60.5339978  11.3580014  21.7939992  59.7419978  11.6600014
  21.8149992  61.2499978  11.7880014  21.4729718  60.5224534  11.4575265
  19.6529992  63.5329978  12.4270014  20.1449992  63.3119978  11.6360014
  20.0149992  64.3729978  12.7080014  19.7692923  63.6163468  12.3567407
  37.6489992  59.8629978  18.6920014  36.7319992  60.1339978  18.6570014
  37.7719992  59.3279978  17.9080014  37.5399672  59.8277885  18.5811862
  37.6859992  59.7859978   3.3540014  38.0979992  59.0649978   2.8790014
  38.3669992  60.4549978   3.4120014  37.8345536  59.7777766   3.2968024
  19.9669992  59.7909978   6.4810014  19.0419992  59.9989978   6.3520014
  20.4209992  60.2749978   5.7910014  19.9016298  59.8849299   6.3700451
  34.7369992  74.7749978   8.4270014  35.3899992  74.4269978   7.8190014
  35.2479992  75.2629978   9.0730014  34.8952777  74.7933815   8.4312047
  19.9299992  58.5289978  14.8250014  19.2649992  58.2829978  15.4680014
  19.4869992  59.1509978  14.2480014  19.7791168  58.5794214  14.8349848
  22.1219992  71.7039978  18.9700014  21.3009992  71.8789978  18.5090014
  21.8699992  71.6309978  19.8900014  21.9755594  71.7180717  19.0313611
  25.0759992  72.6779978  15.2280014  24.6519992  73.4879978  14.9460014
  25.9809992  72.7639978  14.9260014  25.1402138  72.8004160  15.1486415
  29.3879992  74.0769978  18.1880014  29.5719992  73.7439978  19.0660014
  30.2339992  74.3869978  17.8660014  29.5276484  74.0732979  18.2647617
  31.7329992  75.3629978  17.4320014  32.4099992  74.7299978  17.1920014
  32.0539992  75.7639978  18.2390014  31.8691323  75.3305691  17.5083158
  36.6499992  57.9529978  16.5110014  35.8369992  58.2779978  16.1240014
  36.8829992  57.1919978  15.9780014  36.5701347  57.8946880  16.3859841
  22.4779992  75.9349978  15.2760014  21.7579992  76.3749978  14.8250014
  22.1129992  75.6839978  16.1240014  22.3299643  75.9613369  15.3289129
  24.9449992  75.5349978  14.3060014  24.0809992  75.6069978  14.7100014
  24.8899992  76.0819978  13.5220014  24.8191942  75.6187849  14.2554000
  29.6559992  75.4229978  13.4810014  29.1989992  75.9519978  12.8270014
  29.8189992  76.0259978  14.2060014  29.6154960  75.5769280  13.4895274
  31.9839992  74.3009978  14.4260014  31.0789992  74.4659978  14.1600014
  32.4119992  75.1539978  14.3600014  31.9181537  74.4389134  14.3807095
  34.5879992  75.8709978  14.7210014  34.4059992  76.7869978  14.5100014
  34.7649992  75.4599978  13.8740014  34.5870030  75.9408273  14.5777166
  21.8929992  74.5579978  12.1860014  21.8749992  74.1319978  13.0430014
  22.6979992  74.2389978  11.7770014  21.9992875  74.4566435  12.2479515
  24.0339992  73.2679978  10.8410014  23.8149992  72.3509978  11.0110014
  24.8579992  73.4079978  11.3070014  24.1154702  73.1615511  10.9272527
  26.5709992  73.7379978  11.6900014  26.7839992  72.8499978  11.4030014
  26.6359992  73.7029978  12.6440014  26.6089149  73.6118326  11.7797369
  30.0799992  59.4019978  10.8340014  29.4059992  58.7719978  11.0900014
  30.6439992  58.9179978  10.2310014  30.0640384  59.2503708  10.7875020
  35.2229992  57.5089978  10.9470014  35.8259992  58.0569978  10.4450014
  34.3529992  57.8279978  10.7060014  35.1879157  57.6270373  10.8457910
  36.9499992  58.6479978   9.2800014  37.5609992  58.1339978   8.7530014
  37.3319992  59.5249978   9.3030014  37.0853305  58.6962050   9.2109418
  22.4069992  58.0359978   8.6560014  21.6299992  57.8009978   8.1490014
  22.9369992  57.2389978   8.6650014  22.3723451  57.8961268   8.5878627
  21.2429992  57.8339978   4.4600014  21.6819992  58.4449978   3.8680014
  20.6089992  58.3719978   4.9340014  21.2173859  57.9904064   4.4430305
  26.9859992  57.9619978   8.4690014  27.8599992  58.3509978   8.4400014
  26.8499992  57.7469978   9.3920014  27.0871953  57.9861643   8.5897617
  32.5429992  57.9919978  10.1190014  32.6189992  58.0879978   9.1690014
  32.2679992  57.0849978  10.2470014  32.5161871  57.8824146  10.0063944
  33.8959992  58.0179978   5.8110014  33.1929992  58.6329978   5.6010014
  33.4509992  57.1809978   5.9420014  33.7396550  57.9889668   5.7999837
  21.1439992  73.7819978   5.3570014  20.4589992  73.7439978   4.6900014
  21.1479992  74.6949978   5.6450014  21.0507621  73.9001924   5.3046126
  23.1039992  59.7499978   2.9020014  23.5949992  59.1199978   2.3750014
  23.7269992  60.0459978   3.5650014  23.2555304  59.7037376   2.9194940
  28.1299992  60.0429978   5.3590014  28.3079992  59.3959978   6.0420014
  28.0759992  60.8769978   5.8260014  28.1470678  60.0671604   5.5156301
  30.0079992  74.9909978   3.7550014  30.8739992  75.3579978   3.5770014
  29.7619992  74.5519978   2.9410014  30.0932097  74.9818525   3.6206019
  36.7169992  74.5539978   6.4340014  36.5229992  73.8059978   5.8690014
  36.6779992  75.3119978   5.8510014  36.6851645  74.5540786   6.2778148
  22.3639992  58.5499978  18.1740014  21.9979992  57.7839978  18.6160014
  23.2769992  58.5789978  18.4600014  22.4373172  58.4490324  18.2731890
  24.3369992  57.8999978  19.7090014  25.2359992  57.6259978  19.5250014
  23.9509992  57.1579978  20.1740014  24.4077307  57.7622196  19.7467098
  22.9619992  74.7019978   2.3820014  22.6939992  74.9879978   3.2560014
  23.7329992  74.1559978   2.5350014  23.0295927  74.6672779   2.5221205
  32.7589992  57.2329978  19.8920014  32.8349992  56.8069978  20.7450014
  33.6519992  57.2459978  19.5490014  32.8902303  57.1763493  19.9625497
  35.9349992  73.3059978  18.5840014  35.1529992  73.1189978  18.0640014
  35.8629992  74.2349978  18.8010014  35.8181924  73.4060637  18.5421602
  50.3409992  67.1919978   8.6150014  50.4299992  68.1359978   8.4830014
  49.7029992  66.9169978   7.9570014  50.2669062  67.2839812   8.5079641
  49.2739992  66.4469978  12.0340014  49.2359992  65.8009978  12.7390014
  48.9519992  65.9799978  11.2630014  49.2252679  66.2954276  12.0262921
  41.6419992  66.0609978  13.6270014  41.6839992  65.4359978  14.3500014
  42.3449992  66.6849978  13.8090014  41.7427345  66.0597873  13.7505274
  52.9799992  69.3859978  10.3350014  52.5389992  68.6659978  10.7860014
  52.9669992  70.1069978  10.9650014  52.9179215  69.3849291  10.4818105
  42.5659992  70.5109978  12.1620014  42.1959992  69.7089978  11.7920014
  43.5069992  70.3429978  12.2080014  42.6425984  70.3784638  12.1175603
  39.1759992  64.1709978   7.5540014  38.7279992  65.0169978   7.5360014
  38.6149992  63.5919978   7.0390014  39.0388546  64.2083993   7.4818891
  39.8859992  66.3329978   9.6800014  40.0999992  65.5629978  10.2080014
  40.6239992  66.4229978   9.0770014  40.0150200  66.2398587   9.6707035
  50.0919992  74.4899978  10.5470014  50.7109992  73.8139978  10.2740014
  49.8829992  74.2719978  11.4560014  50.1486056  74.3678869  10.6323967
  47.6629992  68.8789978  12.4400014  47.9669992  68.1929978  11.8450014
  48.3849992  68.9979978  13.0580014  47.8021240  68.8012314  12.4420959
  56.3259992  60.4809978  13.3000014  56.3759992  61.0909978  14.0360014
  56.7519992  60.9419978  12.5770014  56.3904108  60.6267709  13.3030112
  50.8039992  63.2729978  12.7670014  50.9469992  62.3269978  12.7870014
  50.6979992  63.4799978  11.8390014  50.8092403  63.1714797  12.6442239
  43.9589992  61.3749978  10.0400014  44.0019992  62.2349978   9.6210014
  43.5009992  60.8229978   9.4060014  43.9029871  61.4179245   9.8970761
  51.6809992  61.5059978   8.4410014  52.3279992  61.1769978   9.0650014
  52.1909992  62.0229978   7.8180014  51.8384351  61.5309067   8.4421037
  40.5789992  63.7719978  10.8020014  41.2329992  63.2219978  11.2340014
  40.6029992  63.4979978   9.8850014  40.6717199  63.6597167  10.7371668
  45.7359992  65.3219978  10.0170014  46.3519992  64.7949978  10.5260014
  45.1489992  64.6819978   9.6130014  45.7410154  65.1633954  10.0320945
  56.7179992  61.9589978  15.5360014  56.0289992  62.6169978  15.4410014
  56.7329992  61.7609978  16.4730014  56.6257756  62.0222603  15.6495812
  42.7689992  60.2929978  14.1140014  42.5499992  60.8229978  13.3470014
  42.1009992  60.5189978  14.7610014  42.6486975  60.3960967  14.0965140
  50.1379992  69.7929978   7.6580014  49.8429992  69.4699978   6.8060014
  49.8139992  70.6929978   7.6990014  50.0538460  69.8704464   7.5469714
  45.3379992  67.9679978  14.4010014  44.5979992  68.5669978  14.5050014
  46.0519992  68.5219978  14.0860014  45.3333500  68.1247829  14.3726371
  53.4449992  60.7969978  10.4210014  53.2299992  60.0309978  10.9540014
  54.1009992  61.2689978  10.9340014  53.5042673  60.7560728  10.5631990
  42.3629992  62.1849978  12.0660014  42.9769992  62.8179978  12.4390014
  42.8749992  61.7129978  11.4100014  42.5161962  62.2077249  12.0282935
  43.7459992  69.9329978  15.1880014  43.7399992  70.8119978  14.8100014
  42.8919992  69.8489978  15.6130014  43.6297925  70.0419535  15.1936887
  39.8669992  69.6039978   5.9700014  39.5949992  69.8329978   5.0820014
  39.9119992  70.4409978   6.4310014  39.8358097  69.7486163   5.9106683
  53.4919992  71.2249978  12.6830014  52.5499992  71.2839978  12.8450014
  53.7679992  72.1309978  12.5460014  53.4005865  71.3555288  12.6866192
  53.7919992  59.5119978  14.1000014  53.0559992  60.1219978  14.0630014
  54.4759992  59.9269978  13.5740014  53.7835367  59.6517551  14.0238174
  46.7959992  57.5979978  11.5660014  46.6779992  56.6499978  11.5120014
  45.9409992  57.9309978  11.8390014  46.6642805  57.5132202  11.5955079
  51.7439992  73.0059978   9.3080014  52.1689992  72.2989978   8.8230014
  52.0609992  73.8079978   8.8910014  51.8450266  73.0175190   9.1852479
  52.9039992  70.9069978   7.8170014  52.6459992  70.2169978   7.2050014
  52.9749992  70.4639978   8.6620014  52.8783050  70.7526814   7.8475621
  54.5899992  69.4739978  16.2940014  54.7289992  68.8819978  15.5550014
  54.7569992  70.3469978  15.9380014  54.6316193  69.5108896  16.1446211
  49.0619992  66.4359978   6.0670014  48.3509992  66.9709978   5.7150014
  49.7529992  66.4909978   5.4070014  49.0580751  66.5166777   5.9295858
  49.1159992  64.8929978   3.1050014  49.8169992  64.9159978   3.7570014
  49.4179992  64.2649978   2.4490014  49.2528202  64.8112212   3.1055609
  56.4309992  65.8139978  14.3600014  55.7789992  66.5079978  14.4490014
  56.8969992  66.0239978  13.5500014  56.4045937  65.9375019  14.2627533
  52.4679992  66.6449978   7.0180014  51.7359992  66.8739978   7.5920014
  52.9149992  65.9319978   7.4730014  52.4283963  66.5798729   7.1579945
  52.3649992  64.8199978  16.0860014  52.4449992  65.5829978  16.6580014
  51.7639992  65.0989978  15.3960014  52.2946547  64.9622457  16.0710047
  44.1129992  67.2759978   8.9010014  43.7829992  66.9049978   8.0830014
  44.7019992  66.6049978   9.2480014  44.1473970  67.1346063   8.8359404
  45.4799992  70.7039978  11.5820014  45.3849992  70.1249978  10.8260014
  46.2089992  70.3329978  12.0780014  45.5656011  70.5745561  11.5456028
  44.4799992  66.0439978  12.5340014  45.0449992  66.1659978  11.7720014
  44.7989992  66.6819978  13.1730014  44.6004166  66.1468791  12.5160348
  50.7889992  71.5479978  13.2680014  50.5489992  72.2099978  13.9160014
  50.5909992  70.7129978  13.6930014  50.7293826  71.5258115  13.4141566
  45.3599992  70.4439978  17.2520014  45.0489992  71.2259978  17.7070014
  44.7099992  70.2909978  16.5660014  45.2295538  70.5304087  17.2215898
  51.3389992  65.8079978   4.7040014  51.9179992  65.9579978   5.4500014
  51.7529992  66.2779978   3.9800014  51.4743358  65.8920954   4.7083953
  42.2799992  66.6419978  16.4800014  42.3499992  67.2929978  17.1790014
  41.3889992  66.7449978  16.1450014  42.1691690  66.7449249  16.5303043
  49.0649992  72.5439978   8.1390014  49.5389992  72.8399978   8.9160014
  48.5019992  73.2829978   7.9060014  49.0537890  72.6843036   8.2138101
  43.5989992  72.5149978  18.0150014  43.6069992  72.3789978  17.0680014
  42.6829992  72.3979978  18.2670014  43.4762528  72.4805463  17.9193243
  55.0379992  57.5579978   4.5170014  54.1379992  57.6969978   4.8120014
  55.2899992  58.3889978   4.1150014  54.9488683  57.6894055   4.5030232
  43.1039992  66.3449978   6.4900014  42.8119992  67.1129978   5.9990014
  42.4289992  65.6859978   6.3270014  42.9728497  66.3609745   6.4008260
  56.2269992  71.9239978   2.8930014  56.2999992  72.8629978   3.0630014
  57.1319992  71.6189978   2.8370014  56.3594170  72.0113282   2.9087063
  39.1969992  68.7079978  15.3050014  38.6949992  68.6799978  14.4900014
  39.2019992  67.8029978  15.6150014  39.1289832  68.5817486  15.2354121
  38.9469992  71.4889978  12.1890014  39.8929992  71.3439978  12.1700014
  38.8339992  72.2729978  12.7260014  39.0613578  71.5751697  12.2590317
  57.1449992  72.1549978  17.8720014  57.0949992  71.1989978  17.8340014
  56.3179992  72.4219978  18.2730014  57.0263831  72.0604680  17.9210121
  48.1229992  71.7289978  16.7480014  48.2109992  72.5549978  17.2230014
  47.2599992  71.3989978  16.9970014  48.0183357  71.7975468  16.8467653
  48.5379992  75.5009978   6.5540014  48.4619992  75.3799978   5.6070014
  48.5699992  76.4499978   6.6720014  48.5319380  75.6127677   6.4405181
  42.1909992  74.2899978   8.3350014  42.3429992  73.9419978   9.2130014
  41.3399992  73.9329978   8.0790014  42.0968344  74.1940879   8.4206868
  51.6389992  74.6549978   3.5560014  52.0139992  73.9109978   3.0850014
  51.6439992  74.3849978   4.4740014  51.6910098  74.5166392   3.6156629
  51.3079992  74.5809978   6.3050014  50.3729992  74.6809978   6.4840014
  51.5879992  73.8709978   6.8840014  51.2179471  74.4987933   6.4076695
  54.2969992  63.6479978  18.3520014  53.8889992  64.1279978  17.6310014
  54.3369992  62.7419978  18.0440014  54.2466221  63.5912449  18.2118267
  41.4459992  70.0319978  16.3480014  41.6619992  69.6699978  17.2080014
  40.5899992  69.6569978  16.1390014  41.3598810  69.9318837  16.4372680
  44.0639992  58.5019978  12.3440014  43.2029992  58.4149978  11.9360014
  44.0419992  59.3579978  12.7720014  43.9430491  58.6058003  12.3459582
  48.7269992  58.2239978  15.7190014  49.1469992  57.8089978  16.4720014
  47.7939992  58.0449978  15.8360014  48.6583736  58.1429910  15.8378968
  52.0539992  61.9789978  16.5720014  51.5399992  61.8539978  17.3700014
  51.8979992  62.8919978  16.3280014  51.9626967  62.0852123  16.6480937
  52.8159992  66.8399978   2.3330014  52.8579992  66.6179978   1.4030014
  53.6649992  67.2389978   2.5230014  52.9365253  66.8635498   2.2313822
  48.3889992  60.7159978   3.0040014  48.1349992  60.7349978   3.9260014
  48.1319992  59.8449978   2.7020014  48.3194508  60.6008280   3.0894803
  44.1549992  63.4669978  13.4390014  43.5139992  63.4269978  14.1480014
  44.1929992  64.3939978  13.2010014  44.0723010  63.5867668  13.5039946
  44.1519992  63.6879978   8.3510014  43.2599992  63.3479978   8.2920014
  44.6029992  63.3109978   7.5950014  44.0907642  63.5904910   8.2407726
  49.6879992  64.1039978   7.1680014  49.2789992  64.9189978   6.8760014
  50.4079992  63.9639978   6.5540014  49.7294439  64.1965372   7.0450115
  48.7899992  64.2799978  18.6560014  48.2269992  63.5749978  18.9770014
  49.6159992  64.1589978  19.1240014  48.8246674  64.1672165  18.7631751
  50.6929992  63.5499978   9.9820014  50.4969992  64.1559978   9.2670014
  50.8739992  62.7169978   9.5480014  50.6906584  63.5202513   9.8254212
  41.9049992  63.7879978  15.3060014  41.8669992  64.1879978  16.1750014
  41.4149992  62.9709978  15.3960014  41.8335330  63.7322674  15.4371289
  45.2709992  61.1619978   2.1050014  44.8399992  60.7169978   2.8340014
  44.5529992  61.5329978   1.5920014  45.1149176  61.1512051   2.1354930
  38.5139992  60.9039978   9.1570014  39.1439992  60.8749978   9.8760014
  38.9629992  60.4789978   8.4260014  38.6610835  60.8425660   9.1567659
  39.7879992  61.6499978   4.5810014  40.2619992  62.2409978   3.9960014
  39.0699992  62.1799978   4.9280014  39.7558640  61.8025511   4.5477969
  49.9569992  65.1879978  14.6530014  50.2799992  64.5569978  14.0100014
  49.5159992  64.6539978  15.3140014  49.9416379  65.0293468  14.6542582
  46.7339992  61.1159978   9.4370014  45.8229992  61.1729978   9.7260014
  47.2389992  61.0559978  10.2480014  46.6776873  61.1156826   9.5861207
  41.5619992  62.7449978   8.2640014  40.6729992  62.8439978   7.9240014
  41.8589992  61.9029978   7.9180014  41.4804177  62.6447687   8.1706940
  45.2149992  62.7449978   5.9210014  46.1469992  62.8739978   6.0990014
  44.9999992  63.4139978   5.2710014  45.3134472  62.8530806   5.8574891
  51.1389992  60.3509978  12.7020014  50.4619992  60.4819978  13.3650014
  50.6539992  60.1959978  11.8910014  50.9807405  60.3479947  12.6832170
  43.8889992  63.9389978   3.4870014  43.3469992  63.5599978   2.7960014
  44.7229992  64.1339978   3.0590014  43.9274390  63.9134079   3.3344392
  42.0249992  68.4959978  18.5860014  42.7569992  68.7509978  19.1480014
  41.2439992  68.7009978  19.1020014  42.0196526  68.5585450  18.7325176
  48.0539992  63.9029978  11.3240014  48.6179992  63.3569978  10.7770014
  47.9059992  63.3819978  12.1130014  48.1113037  63.7576787  11.3557229
  43.0559992  60.0399978   7.7430014  42.7389992  59.1369978   7.7070014
  43.8369992  60.0419978   7.1900014  43.1182431  59.9167797   7.6633102
  46.6799992  62.2919978  13.7380014  45.8449992  62.7459978  13.8490014
  47.2039992  62.5679978  14.4900014  46.6366072  62.3913948  13.8548136
  47.2249992  68.5049978   5.4230014  46.4799992  67.9969978   5.1010014
  47.0899992  68.5539978   6.3690014  47.1048963  68.4421731   5.5068826
  54.3749992  67.6379978  14.2100014  55.0159992  68.0939978  13.6660014
  53.5439992  67.7509978  13.7470014  54.3505287  67.7156921  14.0729887
  51.1219992  61.3189978   3.6220014  50.1839992  61.4299978   3.4710014
  51.4199992  62.1749978   3.9290014  51.0336318  61.4500158   3.6428145
  48.7439992  68.6889978  16.6600014  48.3979992  68.3069978  17.4670014
  48.5439992  69.6219978  16.7310014  48.6695987  68.7629002  16.7800461
  51.8409992  63.1859978   5.2830014  52.7329992  63.0479978   5.6020014
  51.8969992  63.9769978   4.7460014  51.9707325  63.2739918   5.2541217
  42.3489992  67.7999978  11.1930014  43.0939992  67.7969978  10.5910014
  42.4269992  66.9759978  11.6740014  42.4613365  67.6882384  11.1757430
  49.3499992  69.9629978   4.4480014  49.0549992  70.7899978   4.8300014
  48.6469992  69.3439978   4.6450014  49.2146379  69.9924171   4.5268654
  39.3569992  66.2599978  16.5080014  39.5799992  65.8419978  17.3390014
  38.7549992  65.6479978  16.0850014  39.3061513  66.1199606  16.5646740
  46.3739992  65.7769978  18.7210014  46.0779992  65.6119978  17.8250014
  47.3049992  65.5569978  18.7100014  46.4594401  65.7246879  18.5970206
  50.9939992  71.1509978  16.6100014  50.0939992  71.3339978  16.3430014
  51.0279992  71.4099978  17.5310014  50.8753748  71.2110554  16.6979164
  56.7259992  63.3949978   4.9780014  56.1709992  62.9989978   4.3050014
  56.8259992  64.3059978   4.7000014  56.6636816  63.4639505   4.8485033
  56.6889992  69.1959978  17.8150014  55.8379992  69.4339978  17.4470014
  57.2789992  69.1789978  17.0620014  56.6523812  69.2262524  17.6628453
  55.0209992  72.1809978   5.4430014  54.6479992  71.3559978   5.7520014
  55.2979992  71.9979978   4.5450014  55.0073463  72.0432569   5.3639525
  52.1809992  66.9889978  12.4640014  51.2529992  66.7579978  12.4370014
  52.6319992  66.2119978  12.1340014  52.1148165  66.8522774  12.4156790
  44.7239992  71.3179978   8.5970014  45.2519992  72.0909978   8.3970014
  43.8439992  71.5419978   8.2950014  44.6773435  71.4542700   8.5287310
  40.4789992  66.1799978   3.1840014  41.0949992  66.8069978   3.5640014
  39.6169992  66.4959978   3.4560014  40.4467678  66.3084412   3.2727209
  46.1519992  68.9809978   8.1730014  45.9109992  69.9059978   8.2150014
  45.4109992  68.5219978   8.5700014  46.0189206  69.0455915   8.2323769
  46.6659992  73.1299978  14.4880014  47.0289992  73.9839978  14.2550014
  47.1979992  72.8379978  15.2290014  46.7875141  73.2073895  14.5562097
  44.8349992  74.0019978   7.7190014  43.8849992  74.1079978   7.7700014
  45.1869992  74.8229978   8.0630014  44.7525472  74.1274923   7.7724852
  50.2099992  69.2289978  14.1890014  49.7849992  69.0009978  15.0150014
  50.7909992  68.4899978  14.0070014  50.2303395  69.0979545  14.2774414
  52.4129992  70.1579978   3.2630014  52.7669992  69.7779978   4.0670014
  51.4649992  70.0639978   3.3500014  52.3332298  70.0932452   3.3848687
  52.8689992  73.7809978  16.6580014  52.2669992  73.2249978  16.1630014
  53.1499992  74.4479978  16.0320014  52.8245757  73.7950744  16.5055675
  56.9169992  74.6369978   3.4640014  57.6609992  75.2229978   3.3240014
  56.2229992  75.2059978   3.7970014  56.9249809  74.7940818   3.4898590
  40.9909992  61.0139978  16.0660014  40.0989992  61.3519978  15.9980014
  40.8929992  60.1579978  16.4840014  40.8554475  60.9446543  16.1131704
  53.2789992  68.8299978   5.4900014  53.0019992  68.1019978   6.0460014
  54.2069992  68.9489978   5.6950014  53.3664499  68.7464213   5.5938044
  40.6429992  72.8179978  14.5010014  40.8599992  71.8859978  14.4700014
  40.8889992  73.0929978  15.3840014  40.7059809  72.7275686  14.6161691
  46.5039992  71.2699978   1.7100014  46.7429992  70.5209978   1.1630014
  46.2349992  70.8819978   2.5430014  46.5003233  71.1151853   1.7477809
  45.4409992  70.8399978   4.1660014  45.5879992  70.3199978   4.9560014
  45.4379992  71.7469978   4.4730014  45.4607102  70.8913953   4.3155925
  41.8939992  68.0919978   4.6770014  41.2079992  68.4449978   5.2440014
  42.4169992  68.8549978   4.4300014  41.8708402  68.2433901   4.7211801
  49.7259992  60.7549978  14.9560014  50.4249992  60.8289978  15.6060014
  49.3449992  59.8899978  15.1100014  49.7702097  60.6482389  15.0657997
  50.5099992  60.4069978   6.0530014  50.7299992  60.8779978   5.2490014
  51.0689992  60.8009978   6.7230014  50.6156731  60.5247287   6.0335033
  48.1789992  72.5369978   4.9160014  47.3619992  73.0339978   4.9680014
  48.7079992  73.0129978   4.2750014  48.1388125  72.6691989   4.8365306
  47.7099992  62.1349978   6.8880014  48.5219992  62.6389978   6.9340014
  47.4659992  61.9899978   7.8020014  47.7881467  62.1843749   7.0178575
  48.2459992  63.1209978  16.0720014  48.3649992  63.6949978  16.8290014
  48.9009992  62.4329978  16.1870014  48.3508684  63.1065194  16.1911674
  48.5939992  59.2159978   7.8260014  48.2469992  59.8329978   8.4700014
  49.2529992  59.7169978   7.3440014  48.6355090  59.3681575   7.8490681
  45.5169992  73.5809978   4.8970014  45.6779992  74.3809978   4.3970014
  45.3199992  73.8879978   5.7820014  45.5123906  73.7318678   4.9482333
  44.2519992  60.2789978   4.5130014  44.1679992  61.1669978   4.8600014
  45.1419992  60.0139978   4.7450014  44.3608163  60.3647179   4.5918596
  54.4499992  61.0279978  16.9070014  53.5339992  61.2899978  16.8200014
  54.7859992  61.0249978  16.0110014  54.3698499  61.0635163  16.7738766
  53.0529992  64.7779978  11.0030014  52.2549992  64.3629978  10.6750014
  53.4979992  64.0879978  11.4940014  53.0039684  64.6278628  11.0245227
  42.5099992  70.7059978   3.5730014  43.1019992  71.4059978   3.8500014
  42.9689992  70.2729978   2.8540014  42.6531652  70.7432675   3.5136533
  40.8259992  63.3709978   2.6890014  40.7809992  64.3099978   2.8680014
  39.9379992  63.1349978   2.4200014  40.6998166  63.4676687   2.6771524
  54.1389992  74.0339978  12.6250014  53.9829992  74.7129978  11.9680014
  55.0719992  74.1059978  12.8280014  54.2437387  74.1366390  12.5625342
  41.6339992  58.1519978  11.3630014  41.4049992  58.2109978  10.4350014
  41.1919992  57.3609978  11.6690014  41.5428801  58.0530540  11.2774729
  40.5649992  72.0929978   7.5230014  39.7319992  72.5649978   7.5500014
  41.1099992  72.6029978   6.9240014  40.5247857  72.2264791   7.4457142
  39.8529992  74.7049978  18.8530014  40.3929992  74.4889978  19.6130014
  39.3719992  73.8999978  18.6630014  39.8619219  74.5665156  18.9314282
  44.4499992  73.6249978  20.4730014  45.2179992  73.1659978  20.8140014
  44.4289992  73.3989978  19.5430014  44.5522135  73.5316668  20.3939491
  48.5419992  73.1329978   1.8490014  47.8979992  72.5019978   2.1700014
  49.3039992  72.6019978   1.6170014  48.5568058  72.9747902   1.8616038
  53.1469992  72.9499978   2.0820014  53.4299992  72.1549978   2.5350014
  53.8859992  73.1829978   1.5210014  53.2857096  72.8727049   2.0681104
  39.7599992  68.5159978  19.8070014  39.9039992  67.6139978  19.5210014
  38.9879992  68.8019978  19.3200014  39.6752733  68.4311798  19.7019532
  44.1009992  68.8589978   1.9400014  44.1659992  68.0649978   2.4700014
  44.7539992  68.7409978   1.2500014  44.1981605  68.7343430   1.9192997
  46.4149992  68.4849978  19.2400014  46.0869992  68.7559978  18.3830014
  46.5669992  67.5439978  19.1520014  46.3906412  68.3949046  19.1107822
  49.4539992  69.9059978   1.6760014  49.1849992  70.0869978   2.5760014
  49.2469992  68.9809978   1.5440014  49.3891191  69.8057119   1.7815524
  52.1499992  68.4009978  16.6230014  52.8949992  68.9899978  16.5040014
  51.3929992  68.9829978  16.6870014  52.1495470  68.5602128  16.6153799
  40.5929992  65.7159978  19.2270014  41.0009992  64.8589978  19.1060014
  40.3319992  65.7299978  20.1480014  40.6136016  65.6005119  19.3349192
  45.2509992  66.8319978   4.2460014  44.7909992  66.3479978   4.9310014
  45.5059992  66.1629978   3.6100014  45.2224856  66.6753669   4.2538397
  44.5399992  64.7249978  16.6020014  43.9209992  65.3989978  16.8820014
  44.8839992  65.0459978  15.7680014  44.5017123  64.8606887  16.5276388
  46.3219992  65.0749978   2.5080014  46.1409992  64.9199978   1.5810014
  47.2719992  65.1829978   2.5530014  46.4256566  65.0683669   2.3870929
  49.5589992  67.1959978  19.8790014  50.5129992  67.2799978  19.8520014
  49.3989992  66.4839978  20.4990014  49.6677182  67.1112842  19.9590733
  55.7119992  67.4289978   1.9540014  55.4379992  67.0049978   1.1410014
  55.7509992  68.3609978   1.7370014  55.6797716  67.4968827   1.8134286
  44.8789992  62.0799978  17.6840014  45.0289992  61.3509978  17.0820014
  44.8809992  62.8569978  17.1250014  44.8997967  62.0852708  17.5260541
  45.2919992  60.4489978  15.1770014  45.8269992  60.9009978  14.5250014
  44.4389992  60.3409978  14.7540014  45.2500374  60.4962665  15.0306710
  46.8729992  65.8889978  15.4160014  47.6239992  65.7329978  14.8430014
  46.5339992  66.7409978  15.1410014  46.9299587  65.9828138  15.3004078
  51.2889992  63.7039978  20.4450014  51.4809992  62.7729978  20.3330014
  52.1469992  64.1289978  20.4340014  51.4312182  63.6340070  20.4281862
  52.6059992  66.4929978  18.5220014  52.3239992  67.2019978  17.9440014
  53.5479992  66.4199978  18.3710014  52.6947921  66.5802193  18.4224225
  43.3579992  63.2779978  19.5950014  42.5899992  62.7449978  19.3850014
  44.0359992  62.9679978  18.9960014  43.3447235  63.1631754  19.4852413
  46.0969992  57.9059978  15.6080014  45.9989992  58.8519978  15.5030014
  45.3549992  57.5329978  15.1320014  45.9832534  57.9851773  15.5292600
  47.3609992  62.2269978  19.1720014  47.1259992  62.0079978  20.0730014
  46.5779992  62.0199978  18.6620014  47.2229095  62.1689892  19.2265353
  50.0769992  61.3549978  18.2470014  49.1289992  61.3869978  18.3790014
  50.3889992  60.7289978  18.9010014  49.9895293  61.2747923  18.3534148
  51.7109992  59.9889978  20.2520014  51.6139992  59.0369978  20.2470014
  51.3889992  60.2569978  21.1130014  51.6542468  59.8950884  20.3676210
  41.5379992  61.1979978  19.3000014  41.7499992  60.4919978  18.6900014
  41.4269992  60.7609978  20.1440014  41.5520269  61.0421921  19.3305873
  46.3189992  57.1999978  18.2790014  47.0309992  56.5599978  18.2650014
  46.2179992  57.4659978  17.3660014  46.4027387  57.1484330  18.1535563
  46.6729992  58.8819978  20.3330014  46.5409992  58.4069978  19.5130014
  46.0729992  59.6269978  20.2780014  46.5739070  58.9175789  20.2133251
  46.2189992  75.7649978   3.5090014  47.1519992  75.9229978   3.6530014
  45.9549992  76.4409978   2.8840014  46.3109911  75.8779373   3.4442722
  39.7869992  70.4019978   2.9920014  40.7009992  70.4809978   3.2650014
  39.7949992  69.7149978   2.3260014  39.9130655  70.3199205   2.9392917
  38.4359992  75.7949978   8.0690014  37.7889992  75.3329978   7.5370014
  38.7909992  75.1229978   8.6520014  38.3953741  75.6409774   8.0749175
  39.3059992  73.8749978   9.8740014  38.9719992  72.9949978  10.0460014
  39.5289992  74.2209978  10.7390014  39.2903721  73.8011938  10.0144168
  56.8549992  74.6849978  12.8550014  56.8329992  74.8699978  13.7940014
  57.5449992  75.2529978  12.5140014  56.9453439  74.7871887  12.9374791
  56.4179992  74.2519978  15.7760014  55.9309992  73.5169978  15.4050014
  56.9669992  73.8579978  16.4540014  56.4255247  74.0981057  15.8168461
  56.1699992  68.2979978   5.9290014  57.0199992  68.7189978   6.0560014
  56.1749992  67.5579978   6.5360014  56.2871143  68.2556094   6.0284750
  56.5639992  66.3519978   7.7520014  55.8379992  65.8719978   8.1500014
  57.1459992  66.5569978   8.4850014  56.5432730  66.3140184   7.9054149
  56.3229992  69.1369978  12.7000014  57.1569992  68.7589978  12.4190014
  56.4349992  70.0799978  12.5810014  56.4521917  69.2127943  12.6454861
  54.8099992  72.0149978  15.0070014  54.1619992  72.3399978  15.6320014
  54.2919992  71.5739978  14.3330014  54.6514196  71.9998651  15.0014152
  56.8329992  66.2529978   4.1430014  56.3109992  66.6089978   3.4250014
  56.7999992  66.9279978   4.8220014  56.7570129  66.3929598   4.1363355
  55.1819992  63.4919978   2.6940014  55.2779992  64.1589978   2.0140014
  55.0419992  62.6769978   2.2130014  55.1762040  63.4730671   2.5358378
  54.3509992  64.8729978   8.3150014  54.2009992  63.9279978   8.2950014
  53.9969992  65.1539978   9.1590014  54.2826351  64.7816644   8.4263220
  39.3859992  66.9509978  12.3260014  39.5709992  66.8689978  11.3900014
  40.2359992  66.8269978  12.7490014  39.5260928  66.9230463  12.2552893
  55.2069992  66.8429978  17.9540014  55.7899992  66.1079978  18.1460014
  55.7709992  67.6149978  18.0010014  55.3629781  66.8468145  17.9866164
  56.7039992  64.7459978  18.6390014  55.8409992  64.3669978  18.4730014
  57.3079992  64.0069978  18.5640014  56.6676085  64.5943223  18.6061695
  54.4289992  60.8999978   1.8120014  55.0399992  60.5289978   2.4490014
  53.5919992  60.4789978   2.0080014  54.3994947  60.7922756   1.9257252
  54.0619992  62.4549978   6.7780014  54.3409992  61.5479978   6.9020014
  54.8209992  62.8889978   6.3890014  54.2028619  62.3894502   6.7423795
  54.6729992  63.0369978  12.2140014  55.6059992  63.2489978  12.1790014
  54.4379992  63.1379978  13.1360014  54.7689517  63.0796833  12.3339130
  54.7029992  63.7739978  14.9900014  53.8599992  64.0419978  15.3560014
  55.1449992  64.5959978  14.7790014  54.6474138  63.9218273  15.0115518
  38.9839992  62.2209978  18.4660014  39.9029992  62.0989978  18.7030014
  38.5339992  61.4709978  18.8560014  39.0490087  62.1029608  18.5511410
  56.9859992  57.7539978  20.3430014  57.3349992  57.0999978  19.7380014
  57.1329992  58.5909978  19.9030014  57.0536824  57.7776024  20.2006304
  54.6749992  59.7179978   6.8260014  54.8569992  59.2689978   7.6510014
  54.0749992  59.1339978   6.3620014  54.6188187  59.5775552   6.8762739
  40.2049992  60.5339978  11.3580014  40.6499992  59.7419978  11.6600014
  40.6709992  61.2499978  11.7880014  40.3289718  60.5224534  11.4575265
  38.5089992  63.5329978  12.4270014  39.0009992  63.3119978  11.6360014
  38.8709992  64.3729978  12.7080014  38.6252923  63.6163468  12.3567407
  56.5049992  59.8629978  18.6920014  55.5879992  60.1339978  18.6570014
  56.6279992  59.3279978  17.9080014  56.3959672  59.8277885  18.5811862
  56.5419992  59.7859978   3.3540014  56.9539992  59.0649978   2.8790014
  57.2229992  60.4549978   3.4120014  56.6905536  59.7777766   3.2968024
  38.8229992  59.7909978   6.4810014  37.8979992  59.9989978   6.3520014
  39.2769992  60.2749978   5.7910014  38.7576298  59.8849299   6.3700451
  53.5929992  74.7749978   8.4270014  54.2459992  74.4269978   7.8190014
  54.1039992  75.2629978   9.0730014  53.7512777  74.7933815   8.4312047
  38.7859992  58.5289978  14.8250014  38.1209992  58.2829978  15.4680014
  38.3429992  59.1509978  14.2480014  38.6351168  58.5794214  14.8349848
  40.9779992  71.7039978  18.9700014  40.1569992  71.8789978  18.5090014
  40.7259992  71.6309978  19.8900014  40.8315594  71.7180717  19.0313611
  43.9319992  72.6779978  15.2280014  43.5079992  73.4879978  14.9460014
  44.8369992  72.7639978  14.9260014  43.9962138  72.8004160  15.1486415
  48.2439992  74.0769978  18.1880014  48.4279992  73.7439978  19.0660014
  49.0899992  74.3869978  17.8660014  48.3836484  74.0732979  18.2647617
  50.5889992  75.3629978  17.4320014  51.2659992  74.7299978  17.1920014
  50.9099992  75.7639978  18.2390014  50.7251323  75.3305691  17.5083158
  55.5059992  57.9529978  16.5110014  54.6929992  58.2779978  16.1240014
  55.7389992  57.1919978  15.9780014  55.4261347  57.8946880  16.3859841
  41.3339992  75.9349978  15.2760014  40.6139992  76.3749978  14.8250014
  40.9689992  75.6839978  16.1240014  41.1859643  75.9613369  15.3289129
  43.8009992  75.5349978  14.3060014  42.9369992  75.6069978  14.7100014
  43.7459992  76.0819978  13.5220014  43.6751942  75.6187849  14.2554000
  48.5119992  75.4229978  13.4810014  48.0549992  75.9519978  12.8270014
  48.6749992  76.0259978  14.2060014  48.4714960  75.5769280  13.4895274
  50.8399992  74.3009978  14.4260014  49.9349992  74.4659978  14.1600014
  51.2679992  75.1539978  14.3600014  50.7741537  74.4389134  14.3807095
  53.4439992  75.8709978  14.7210014  53.2619992  76.7869978  14.5100014
  53.6209992  75.4599978  13.8740014  53.4430030  75.9408273  14.5777166
  40.7489992  74.5579978  12.1860014  40.7309992  74.1319978  13.0430014
  41.5539992  74.2389978  11.7770014  40.8552875  74.4566435  12.2479515
  42.8899992  73.2679978  10.8410014  42.6709992  72.3509978  11.0110014
  43.7139992  73.4079978  11.3070014  42.9714702  73.1615511  10.9272527
  45.4269992  73.7379978  11.6900014  45.6399992  72.8499978  11.4030014
  45.4919992  73.7029978  12.6440014  45.4649149  73.6118326  11.7797369
  48.9359992  59.4019978  10.8340014  48.2619992  58.7719978  11.0900014
  49.4999992  58.9179978  10.2310014  48.9200384  59.2503708  10.7875020
  54.0789992  57.5089978  10.9470014  54.6819992  58.0569978  10.4450014
  53.2089992  57.8279978  10.7060014  54.0439157  57.6270373  10.8457910
  55.8059992  58.6479978   9.2800014  56.4169992  58.1339978   8.7530014
  56.1879992  59.5249978   9.3030014  55.9413305  58.6962050   9.2109418
  41.2629992  58.0359978   8.6560014  40.4859992  57.8009978   8.1490014
  41.7929992  57.2389978   8.6650014  41.2283451  57.8961268   8.5878627
  40.0989992  57.8339978   4.4600014  40.5379992  58.4449978   3.8680014
  39.4649992  58.3719978   4.9340014  40.0733859  57.9904064   4.4430305
  45.8419992  57.9619978   8.4690014  46.7159992  58.3509978   8.4400014
  45.7059992  57.7469978   9.3920014  45.9431953  57.9861643   8.5897617
  51.3989992  57.9919978  10.1190014  51.4749992  58.0879978   9.1690014
  51.1239992  57.0849978  10.2470014  51.3721871  57.8824146  10.0063944
  52.7519992  58.0179978   5.8110014  52.0489992  58.6329978   5.6010014
  52.3069992  57.1809978   5.9420014  52.5956550  57.9889668   5.7999837
  39.9999992  73.7819978   5.3570014  39.3149992  73.7439978   4.6900014
  40.0039992  74.6949978   5.6450014  39.9067621  73.9001924   5.3046126
  41.9599992  59.7499978   2.9020014  42.4509992  59.1199978   2.3750014
  42.5829992  60.0459978   3.5650014  42.1115304  59.7037376   2.9194940
  46.9859992  60.0429978   5.3590014  47.1639992  59.3959978   6.0420014
  46.9319992  60.8769978   5.8260014  47.0030678  60.0671604   5.5156301
  48.8639992  74.9909978   3.7550014  49.7299992  75.3579978   3.5770014
  48.6179992  74.5519978   2.9410014  48.9492097  74.9818525   3.6206019
  55.5729992  74.5539978   6.4340014  55.3789992  73.8059978   5.8690014
  55.5339992  75.3119978   5.8510014  55.5411645  74.5540786   6.2778148
  41.2199992  58.5499978  18.1740014  40.8539992  57.7839978  18.6160014
  42.1329992  58.5789978  18.4600014  41.2933172  58.4490324  18.2731890
  43.1929992  57.8999978  19.7090014  44.0919992  57.6259978  19.5250014
  42.8069992  57.1579978  20.1740014  43.2637307  57.7622196  19.7467098
  41.8179992  74.7019978   2.3820014  41.5499992  74.9879978   3.2560014
  42.5889992  74.1559978   2.5350014  41.8855927  74.6672779   2.5221205
  51.6149992  57.2329978  19.8920014  51.6909992  56.8069978  20.7450014
  52.5079992  57.2459978  19.5490014  51.7462303  57.1763493  19.9625497
  69.1969992  67.1919978   8.6150014  69.2859992  68.1359978   8.4830014
  68.5589992  66.9169978   7.9570014  69.1229061  67.2839812   8.5079641
  68.1299992  66.4469978  12.0340014  68.0919992  65.8009978  12.7390014
  67.8079992  65.9799978  11.2630014  68.0812679  66.2954276  12.0262921
  60.4979992  66.0609978  13.6270014  60.5399992  65.4359978  14.3500014
  61.2009992  66.6849978  13.8090014  60.5987345  66.0597873  13.7505274
  71.8359992  69.3859978  10.3350014  71.3949992  68.6659978  10.7860014
  71.8229992  70.1069978  10.9650014  71.7739215  69.3849291  10.4818105
  61.4219992  70.5109978  12.1620014  61.0519992  69.7089978  11.7920014
  62.3629992  70.3429978  12.2080014  61.4985984  70.3784638  12.1175603
  58.0319992  64.1709978   7.5540014  57.5839992  65.0169978   7.5360014
  57.4709992  63.5919978   7.0390014  57.8948546  64.2083993   7.4818891
  58.7419992  66.3329978   9.6800014  58.9559992  65.5629978  10.2080014
  59.4799992  66.4229978   9.0770014  58.8710200  66.2398587   9.6707035
  68.9479992  74.4899978  10.5470014  69.5669992  73.8139978  10.2740014
  68.7389992  74.2719978  11.4560014  69.0046056  74.3678869  10.6323967
  66.5189992  68.8789978  12.4400014  66.8229992  68.1929978  11.8450014
  67.2409992  68.9979978  13.0580014  66.6581240  68.8012314  12.4420959
  75.1819992  60.4809978  13.3000014  75.2319992  61.0909978  14.0360014
  75.6079992  60.9419978  12.5770014  75.2464108  60.6267709  13.3030112
  69.6599992  63.2729978  12.7670014  69.8029992  62.3269978  12.7870014
  69.5539992  63.4799978  11.8390014  69.6652403  63.1714797  12.6442239
  62.8149992  61.3749978  10.0400014  62.8579992  62.2349978   9.6210014
  62.3569992  60.8229978   9.4060014  62.7589871  61.4179245   9.8970761
  70.5369992  61.5059978   8.4410014  71.1839992  61.1769978   9.0650014
  71.0469992  62.0229978   7.8180014  70.6944351  61.5309067   8.4421037
  59.4349992  63.7719978  10.8020014  60.0889992  63.2219978  11.2340014
  59.4589992  63.4979978   9.8850014  59.5277199  63.6597167  10.7371668
  64.5919992  65.3219978  10.0170014  65.2079992  64.7949978  10.5260014
  64.0049992  64.6819978   9.6130014  64.5970154  65.1633954  10.0320945
  75.5739992  61.9589978  15.5360014  74.8849992  62.6169978  15.4410014
  75.5889992  61.7609978  16.4730014  75.4817756  62.0222603  15.6495812
  61.6249992  60.2929978  14.1140014  61.4059992  60.8229978  13.3470014
  60.9569992  60.5189978  14.7610014  61.5046975  60.3960967  14.0965140
  68.9939992  69.7929978   7.6580014  68.6989992  69.4699978   6.8060014
  68.6699992  70.6929978   7.6990014  68.9098460  69.8704464   7.5469714
  64.1939992  67.9679978  14.4010014  63.4539992  68.5669978  14.5050014
  64.9079992  68.5219978  14.0860014  64.1893500  68.1247829  14.3726371
  72.3009992  60.7969978  10.4210014  72.0859992  60.0309978  10.9540014
  72.9569992  61.2689978  10.9340014  72.3602673  60.7560728  10.5631990
  61.2189992  62.1849978  12.0660014  61.8329992  62.8179978  12.4390014
  61.7309992  61.7129978  11.4100014  61.3721962  62.2077249  12.0282935
  62.6019992  69.9329978  15.1880014  62.5959992  70.8119978  14.8100014
  61.7479992  69.8489978  15.6130014  62.4857925  70.0419535  15.1936887
  58.7229992  69.6039978   5.9700014  58.4509992  69.8329978   5.0820014
  58.7679992  70.4409978   6.4310014  58.6918097  69.7486163   5.9106683
  72.3479992  71.2249978  12.6830014  71.4059992  71.2839978  12.8450014
  72.6239992  72.1309978  12.5460014  72.2565865  71.3555288  12.6866192
  72.6479992  59.5119978  14.1000014  71.9119992  60.1219978  14.0630014
  73.3319992  59.9269978  13.5740014  72.6395367  59.6517551  14.0238174
  65.6519992  57.5979978  11.5660014  65.5339992  56.6499978  11.5120014
  64.7969992  57.9309978  11.8390014  65.5202805  57.5132202  11.5955079
  70.5999992  73.0059978   9.3080014  71.0249992  72.2989978   8.8230014
  70.9169992  73.8079978   8.8910014  70.7010266  73.0175190   9.1852479
  71.7599992  70.9069978   7.8170014  71.5019992  70.2169978   7.2050014
  71.8309992  70.4639978   8.6620014  71.7343050  70.7526814   7.8475621
  73.4459992  69.4739978  16.2940014  73.5849992  68.8819978  15.5550014
  73.6129992  70.3469978  15.9380014  73.4876193  69.5108896  16.1446211
  67.9179992  66.4359978   6.0670014  67.2069992  66.9709978   5.7150014
  68.6089992  66.4909978   5.4070014  67.9140751  66.5166777   5.9295858
  67.9719992  64.8929978   3.1050014  68.6729992  64.9159978   3.7570014
  68.2739992  64.2649978   2.4490014  68.1088202  64.8112212   3.1055609
  75.2869992  65.8139978  14.3600014  74.6349992  66.5079978  14.4490014
  75.7529992  66.0239978  13.5500014  75.2605937  65.9375019  14.2627533
  71.3239992  66.6449978   7.0180014  70.5919992  66.8739978   7.5920014
  71.7709992  65.9319978   7.4730014  71.2843963  66.5798729   7.1579945
  71.2209992  64.8199978  16.0860014  71.3009992  65.5829978  16.6580014
  70.6199992  65.0989978  15.3960014  71.1506547  64.9622457  16.0710047
  62.9689992  67.2759978   8.9010014  62.6389992  66.9049978   8.0830014
  63.5579992  66.6049978   9.2480014  63.0033970  67.1346063   8.8359404
  64.3359992  70.7039978  11.5820014  64.2409992  70.1249978  10.8260014
  65.0649992  70.3329978  12.0780014  64.4216011  70.5745561  11.5456028
  63.3359992  66.0439978  12.5340014  63.9009992  66.1659978  11.7720014
  63.6549992  66.6819978  13.1730014  63.4564166  66.1468791  12.5160348
  69.6449992  71.5479978  13.2680014  69.4049992  72.2099978  13.9160014
  69.4469992  70.7129978  13.6930014  69.5853826  71.5258115  13.4141566
  64.2159992  70.4439978  17.2520014  63.9049992  71.2259978  17.7070014
  63.5659992  70.2909978  16.5660014  64.0855538  70.5304087  17.2215898
  70.1949992  65.8079978   4.7040014  70.7739992  65.9579978   5.4500014
  70.6089992  66.2779978   3.9800014  70.3303358  65.8920954   4.7083953
  61.1359992  66.6419978  16.4800014  61.2059992  67.2929978  17.1790014
  60.2449992  66.7449978  16.1450014  61.0251690  66.7449249  16.5303043
  67.9209992  72.5439978   8.1390014  68.3949992  72.8399978   8.9160014
  67.3579992  73.2829978   7.9060014  67.9097890  72.6843036   8.2138101
  73.8939992  57.5579978   4.5170014  72.9939992  57.6969978   4.8120014
  74.1459992  58.3889978   4.1150014  73.8048683  57.6894055   4.5030232
  61.9599992  66.3449978   6.4900014  61.6679992  67.1129978   5.9990014
  61.2849992  65.6859978   6.3270014  61.8288497  66.3609745   6.4008260
  75.0829992  71.9239978   2.8930014  75.1559992  72.8629978   3.0630014
  75.9879992  71.6189978   2.8370014  75.2154170  72.0113282   2.9087063
  58.0529992  68.7079978  15.3050014  57.5509992  68.6799978  14.4900014
  58.0579992  67.8029978  15.6150014  57.9849832  68.5817486  15.2354121
  57.8029992  71.4889978  12.1890014  58.7489992  71.3439978  12.1700014
  57.6899992  72.2729978  12.7260014  57.9173578  71.5751697  12.2590317
  76.0009992  72.1549978  17.8720014  75.9509992  71.1989978  17.8340014
  75.1739992  72.4219978  18.2730014  75.8823831  72.0604680  17.9210121
  66.9789992  71.7289978  16.7480014  67.0669992  72.5549978  17.2230014
  66.1159992  71.3989978  16.9970014  66.8743357  71.7975468  16.8467653
  67.3939992  75.5009978   6.5540014  67.3179992  75.3799978   5.6070014
  67.4259992  76.4499978   6.6720014  67.3879380  75.6127677   6.4405181
  61.0469992  74.2899978   8.3350014  61.1989992  73.9419978   9.2130014
  60.1959992  73.9329978   8.0790014  60.9528344  74.1940879   8.4206868
  70.4949992  74.6549978   3.5560014  70.8699992  73.9109978   3.0850014
  70.4999992  74.3849978   4.4740014  70.5470098  74.5166392   3.6156629
  70.1639992  74.5809978   6.3050014  69.2289992  74.6809978   6.4840014
  70.4439992  73.8709978   6.8840014  70.0739471  74.4987933   6.4076695
  73.1529992  63.6479978  18.3520014  72.7449992  64.1279978  17.6310014
  73.1929992  62.7419978  18.0440014  73.1026221  63.5912449  18.2118267
  60.3019992  70.0319978  16.3480014  60.5179992  69.6699978  17.2080014
  59.4459992  69.6569978  16.1390014  60.2158810  69.9318837  16.4372680
  62.9199992  58.5019978  12.3440014  62.0589992  58.4149978  11.9360014
  62.8979992  59.3579978  12.7720014  62.7990491  58.6058003  12.3459582
  67.5829992  58.2239978  15.7190014  68.0029992  57.8089978  16.4720014
  66.6499992  58.0449978  15.8360014  67.5143736  58.1429910  15.8378968
  70.9099992  61.9789978  16.5720014  70.3959992  61.8539978  17.3700014
  70.7539992  62.8919978  16.3280014  70.8186967  62.0852123  16.6480937
  71.6719992  66.8399978   2.3330014  71.7139992  66.6179978   1.4030014
  72.5209992  67.2389978   2.5230014  71.7925253  66.8635498   2.2313822
  67.2449992  60.7159978   3.0040014  66.9909992  60.7349978   3.9260014
  66.9879992  59.8449978   2.7020014  67.1754508  60.6008280   3.0894803
  63.0109992  63.4669978  13.4390014  62.3699992  63.4269978  14.1480014
  63.0489992  64.3939978  13.2010014  62.9283010  63.5867668  13.5039946
  63.0079992  63.6879978   8.3510014  62.1159992  63.3479978   8.2920014
  63.4589992  63.3109978   7.5950014  62.9467642  63.5904910   8.2407726
  68.5439992  64.1039978   7.1680014  68.1349992  64.9189978   6.8760014
  69.2639992  63.9639978   6.5540014  68.5854439  64.1965372   7.0450115
  67.6459992  64.2799978  18.6560014  67.0829992  63.5749978  18.9770014
  68.4719992  64.1589978  19.1240014  67.6806674  64.1672165  18.7631751
  69.5489992  63.5499978   9.9820014  69.3529992  64.1559978   9.2670014
  69.7299992  62.7169978   9.5480014  69.5466584  63.5202513   9.8254212
  60.7609992  63.7879978  15.3060014  60.7229992  64.1879978  16.1750014
  60.2709992  62.9709978  15.3960014  60.6895330  63.7322674  15.4371289
  64.1269992  61.1619978   2.1050014  63.6959992  60.7169978   2.8340014
  63.4089992  61.5329978   1.5920014  63.9709176  61.1512051   2.1354930
  57.3699992  60.9039978   9.1570014  57.9999992  60.8749978   9.8760014
  57.8189992  60.4789978   8.4260014  57.5170835  60.8425660   9.1567659
  58.6439992  61.6499978   4.5810014  59.1179992  62.2409978   3.9960014
  57.9259992  62.1799978   4.9280014  58.6118640  61.8025511   4.5477969
  68.8129992  65.1879978  14.6530014  69.1359992  64.5569978  14.0100014
  68.3719992  64.6539978  15.3140014  68.7976379  65.0293468  14.6542582
  65.5899992  61.1159978   9.4370014  64.6789992  61.1729978   9.7260014
  66.0949992  61.0559978  10.2480014  65.5336873  61.1156826   9.5861207
  60.4179992  62.7449978   8.2640014  59.5289992  62.8439978   7.9240014
  60.7149992  61.9029978   7.9180014  60.3364177  62.6447687   8.1706940
  64.0709992  62.7449978   5.9210014  65.0029992  62.8739978   6.0990014
  63.8559992  63.4139978   5.2710014  64.1694472  62.8530806   5.8574891
  69.9949992  60.3509978  12.7020014  69.3179992  60.4819978  13.3650014
  69.5099992  60.1959978  11.8910014  69.8367405  60.3479947  12.6832170
  62.7449992  63.9389978   3.4870014  62.2029992  63.5599978   2.7960014
  63.5789992  64.1339978   3.0590014  62.7834390  63.9134079   3.3344392
  73.2829992  76.0219978  18.9780014  73.4819992  76.4459978  18.1440014
  73.9379992  76.3659978  19.5850014  73.3988522  76.1266301  18.9457852
  60.8809992  68.4959978  18.5860014  61.6129992  68.7509978  19.1480014
  60.0999992  68.7009978  19.1020014  60.8756526  68.5585450  18.7325176
  66.9099992  63.9029978  11.3240014  67.4739992  63.3569978  10.7770014
  66.7619992  63.3819978  12.1130014  66.9673037  63.7576787  11.3557229
  61.9119992  60.0399978   7.7430014  61.5949992  59.1369978   7.7070014
  62.6929992  60.0419978   7.1900014  61.9742431  59.9167797   7.6633102
  65.5359992  62.2919978  13.7380014  64.7009992  62.7459978  13.8490014
  66.0599992  62.5679978  14.4900014  65.4926072  62.3913948  13.8548136
  66.0809992  68.5049978   5.4230014  65.3359992  67.9969978   5.1010014
  65.9459992  68.5539978   6.3690014  65.9608963  68.4421731   5.5068826
  73.2309992  67.6379978  14.2100014  73.8719992  68.0939978  13.6660014
  72.3999992  67.7509978  13.7470014  73.2065287  67.7156921  14.0729887
  69.9779992  61.3189978   3.6220014  69.0399992  61.4299978   3.4710014
  70.2759992  62.1749978   3.9290014  69.8896318  61.4500158   3.6428145
  67.5999992  68.6889978  16.6600014  67.2539992  68.3069978  17.4670014
  67.3999992  69.6219978  16.7310014  67.5255987  68.7629002  16.7800461
  70.6969992  63.1859978   5.2830014  71.5889992  63.0479978   5.6020014
  70.7529992  63.9769978   4.7460014  70.8267325  63.2739918   5.2541217
  61.2049992  67.7999978  11.1930014  61.9499992  67.7969978  10.5910014
  61.2829992  66.9759978  11.6740014  61.3173365  67.6882384  11.1757430
  68.2059992  69.9629978   4.4480014  67.9109992  70.7899978   4.8300014
  67.5029992  69.3439978   4.6450014  68.0706379  69.9924171   4.5268654
  58.2129992  66.2599978  16.5080014  58.4359992  65.8419978  17.3390014
  57.6109992  65.6479978  16.0850014  58.1621513  66.1199606  16.5646740
  65.2299992  65.7769978  18.7210014  64.9339992  65.6119978  17.8250014
  66.1609992  65.5569978  18.7100014  65.3154401  65.7246879  18.5970206
  69.8499992  71.1509978  16.6100014  68.9499992  71.3339978  16.3430014
  69.8839992  71.4099978  17.5310014  69.7313748  71.2110554  16.6979164
  75.5819992  63.3949978   4.9780014  75.0269992  62.9989978   4.3050014
  75.6819992  64.3059978   4.7000014  75.5196816  63.4639505   4.8485033
  75.5449992  69.1959978  17.8150014  74.6939992  69.4339978  17.4470014
  76.1349992  69.1789978  17.0620014  75.5083812  69.2262524  17.6628453
  73.8769992  72.1809978   5.4430014  73.5039992  71.3559978   5.7520014
  74.1539992  71.9979978   4.5450014  73.8633463  72.0432569   5.3639525
  71.0369992  66.9889978  12.4640014  70.1089992  66.7579978  12.4370014
  71.4879992  66.2119978  12.1340014  70.9708165  66.8522774  12.4156790
  63.5799992  71.3179978   8.5970014  64.1079992  72.0909978   8.3970014
  62.6999992  71.5419978   8.2950014  63.5333435  71.4542700   8.5287310
  59.3349992  66.1799978   3.1840014  59.9509992  66.8069978   3.5640014
  58.4729992  66.4959978   3.4560014  59.3027678  66.3084412   3.2727209
  65.0079992  68.9809978   8.1730014  64.7669992  69.9059978   8.2150014
  64.2669992  68.5219978   8.5700014  64.8749206  69.0455915   8.2323769
  65.5219992  73.1299978  14.4880014  65.8849992  73.9839978  14.2550014
  66.0539992  72.8379978  15.2290014  65.6435141  73.2073895  14.5562097
  63.6909992  74.0019978   7.7190014  62.7409992  74.1079978   7.7700014
  64.0429992  74.8229978   8.0630014  63.6085472  74.1274923   7.7724852
  69.0659992  69.2289978  14.1890014  68.6409992  69.0009978  15.0150014
  69.6469992  68.4899978  14.0070014  69.0863395  69.0979545  14.2774414
  71.2689992  70.1579978   3.2630014  71.6229992  69.7779978   4.0670014
  70.3209992  70.0639978   3.3500014  71.1892298  70.0932452   3.3848687
  71.7249992  73.7809978  16.6580014  71.1229992  73.2249978  16.1630014
  72.0059992  74.4479978  16.0320014  71.6805757  73.7950744  16.5055675
  75.7729992  74.6369978   3.4640014  76.5169992  75.2229978   3.3240014
  75.0789992  75.2059978   3.7970014  75.7809809  74.7940818   3.4898590
  59.8469992  61.0139978  16.0660014  58.9549992  61.3519978  15.9980014
  59.7489992  60.1579978  16.4840014  59.7114475  60.9446543  16.1131704
  72.1349992  68.8299978   5.4900014  71.8579992  68.1019978   6.0460014
  73.0629992  68.9489978   5.6950014  72.2224499  68.7464213   5.5938044
  59.4989992  72.8179978  14.5010014  59.7159992  71.8859978  14.4700014
  59.7449992  73.0929978  15.3840014  59.5619809  72.7275686  14.6161691
  65.3599992  71.2699978   1.7100014  65.5989992  70.5209978   1.1630014
  65.0909992  70.8819978   2.5430014  65.3563233  71.1151853   1.7477809
  64.2969992  70.8399978   4.1660014  64.4439992  70.3199978   4.9560014
  64.2939992  71.7469978   4.4730014  64.3167102  70.8913953   4.3155925
  60.7499992  68.0919978   4.6770014  60.0639992  68.4449978   5.2440014
  61.2729992  68.8549978   4.4300014  60.7268402  68.2433901   4.7211801
  68.5819992  60.7549978  14.9560014  69.2809992  60.8289978  15.6060014
  68.2009992  59.8899978  15.1100014  68.6262097  60.6482389  15.0657997
  69.3659992  60.4069978   6.0530014  69.5859992  60.8779978   5.2490014
  69.9249992  60.8009978   6.7230014  69.4716731  60.5247287   6.0335033
  67.0349992  72.5369978   4.9160014  66.2179992  73.0339978   4.9680014
  67.5639992  73.0129978   4.2750014  66.9948125  72.6691989   4.8365306
  66.5659992  62.1349978   6.8880014  67.3779992  62.6389978   6.9340014
  66.3219992  61.9899978   7.8020014  66.6441467  62.1843749   7.0178575
  67.1019992  63.1209978  16.0720014  67.2209992  63.6949978  16.8290014
  67.7569992  62.4329978  16.1870014  67.2068684  63.1065194  16.1911674
  67.4499992  59.2159978   7.8260014  67.1029992  59.8329978   8.4700014
  68.1089992  59.7169978   7.3440014  67.4915090  59.3681575   7.8490681
  64.3729992  73.5809978   4.8970014  64.5339992  74.3809978   4.3970014
  64.1759992  73.8879978   5.7820014  64.3683906  73.7318678   4.9482333
  63.1079992  60.2789978   4.5130014  63.0239992  61.1669978   4.8600014
  63.9979992  60.0139978   4.7450014  63.2168163  60.3647179   4.5918596
  73.3059992  61.0279978  16.9070014  72.3899992  61.2899978  16.8200014
  73.6419992  61.0249978  16.0110014  73.2258499  61.0635163  16.7738766
  71.9089992  64.7779978  11.0030014  71.1109992  64.3629978  10.6750014
  72.3539992  64.0879978  11.4940014  71.8599684  64.6278628  11.0245227
  61.3659992  70.7059978   3.5730014  61.9579992  71.4059978   3.8500014
  61.8249992  70.2729978   2.8540014  61.5091652  70.7432675   3.5136533
  59.6819992  63.3709978   2.6890014  59.6369992  64.3099978   2.8680014
  58.7939992  63.1349978   2.4200014  59.5558166  63.4676687   2.6771524
  72.9949992  74.0339978  12.6250014  72.8389992  74.7129978  11.9680014
  73.9279992  74.1059978  12.8280014  73.0997387  74.1366390  12.5625342
  60.4899992  58.1519978  11.3630014  60.2609992  58.2109978  10.4350014
  60.0479992  57.3609978  11.6690014  60.3988801  58.0530540  11.2774729
  59.4209992  72.0929978   7.5230014  58.5879992  72.5649978   7.5500014
  59.9659992  72.6029978   6.9240014  59.3807857  72.2264791   7.4457142
  67.3979992  73.1329978   1.8490014  66.7539992  72.5019978   2.1700014
  68.1599992  72.6019978   1.6170014  67.4128058  72.9747902   1.8616038
  72.0029992  72.9499978   2.0820014  72.2859992  72.1549978   2.5350014
  72.7419992  73.1829978   1.5210014  72.1417096  72.8727049   2.0681104
  58.6159992  68.5159978  19.8070014  58.7599992  67.6139978  19.5210014
  57.8439992  68.8019978  19.3200014  58.5312733  68.4311798  19.7019532
  62.9569992  68.8589978   1.9400014  63.0219992  68.0649978   2.4700014
  63.6099992  68.7409978   1.2500014  63.0541605  68.7343430   1.9192997
  65.2709992  68.4849978  19.2400014  64.9429992  68.7559978  18.3830014
  65.4229992  67.5439978  19.1520014  65.2466412  68.3949046  19.1107822
  68.3099992  69.9059978   1.6760014  68.0409992  70.0869978   2.5760014
  68.1029992  68.9809978   1.5440014  68.2451191  69.8057119   1.7815524
  71.0059992  68.4009978  16.6230014  71.7509992  68.9899978  16.5040014
  70.2489992  68.9829978  16.6870014  71.0055470  68.5602128  16.6153799
  59.4489992  65.7159978  19.2270014  59.8569992  64.8589978  19.1060014
  59.1879992  65.7299978  20.1480014  59.4696016  65.6005119  19.3349192
  64.1069992  66.8319978   4.2460014  63.6469992  66.3479978   4.9310014
  64.3619992  66.1629978   3.6100014  64.0784856  66.6753669   4.2538397
  63.3959992  64.7249978  16.6020014  62.7769992  65.3989978  16.8820014
  63.7399992  65.0459978  15.7680014  63.3577123  64.8606887  16.5276388
  65.1779992  65.0749978   2.5080014  64.9969992  64.9199978   1.5810014
  66.1279992  65.1829978   2.5530014  65.2816566  65.0683669   2.3870929
  74.5679992  67.4289978   1.9540014  74.2939992  67.0049978   1.1410014
  74.6069992  68.3609978   1.7370014  74.5357716  67.4968827   1.8134286
  63.7349992  62.0799978  17.6840014  63.8849992  61.3509978  17.0820014
  63.7369992  62.8569978  17.1250014  63.7557967  62.0852708  17.5260541
  64.1479992  60.4489978  15.1770014  64.6829992  60.9009978  14.5250014
  63.2949992  60.3409978  14.7540014  64.1060374  60.4962665  15.0306710
  65.7289992  65.8889978  15.4160014  66.4799992  65.7329978  14.8430014
  65.3899992  66.7409978  15.1410014  65.7859587  65.9828138  15.3004078
  70.1449992  63.7039978  20.4450014  70.3369992  62.7729978  20.3330014
  71.0029992  64.1289978  20.4340014  70.2872182  63.6340070  20.4281862
  71.4619992  66.4929978  18.5220014  71.1799992  67.2019978  17.9440014
  72.4039992  66.4199978  18.3710014  71.5507921  66.5802193  18.4224225
  62.2139992  63.2779978  19.5950014  61.4459992  62.7449978  19.3850014
  62.8919992  62.9679978  18.9960014  62.2007235  63.1631754  19.4852413
  64.9529992  57.9059978  15.6080014  64.8549992  58.8519978  15.5030014
  64.2109992  57.5329978  15.1320014  64.8392534  57.9851773  15.5292600
  66.2169992  62.2269978  19.1720014  65.9819992  62.0079978  20.0730014
  65.4339992  62.0199978  18.6620014  66.0789095  62.1689892  19.2265353
  68.9329992  61.3549978  18.2470014  67.9849992  61.3869978  18.3790014
  69.2449992  60.7289978  18.9010014  68.8455293  61.2747923  18.3534148
  70.5669992  59.9889978  20.2520014  70.4699992  59.0369978  20.2470014
  70.2449992  60.2569978  21.1130014  70.5102468  59.8950884  20.3676210
  60.3939992  61.1979978  19.3000014  60.6059992  60.4919978  18.6900014
  60.2829992  60.7609978  20.1440014  60.4080269  61.0421921  19.3305873
  65.1749992  57.1999978  18.2790014  65.8869992  56.5599978  18.2650014
  65.0739992  57.4659978  17.3660014  65.2587387  57.1484330  18.1535563
  65.5289992  58.8819978  20.3330014  65.3969992  58.4069978  19.5130014
  64.9289992  59.6269978  20.2780014  65.4299070  58.9175789  20.2133251
  65.0749992  75.7649978   3.5090014  66.0079992  75.9229978   3.6530014
  64.8109992  76.4409978   2.8840014  65.1669911  75.8779373   3.4442722
  58.6429992  70.4019978   2.9920014  59.5569992  70.4809978   3.2650014
  58.6509992  69.7149978   2.3260014  58.7690655  70.3199205   2.9392917
  57.2919992  75.7949978   8.0690014  56.6449992  75.3329978   7.5370014
  57.6469992  75.1229978   8.6520014  57.2513741  75.6409774   8.0749175
  58.1619992  73.8749978   9.8740014  57.8279992  72.9949978  10.0460014
  58.3849992  74.2209978  10.7390014  58.1463721  73.8011938  10.0144168
  75.7109992  74.6849978  12.8550014  75.6889992  74.8699978  13.7940014
  76.4009992  75.2529978  12.5140014  75.8013439  74.7871887  12.9374791
  75.2739992  74.2519978  15.7760014  74.7869992  73.5169978  15.4050014
  75.8229992  73.8579978  16.4540014  75.2815247  74.0981057  15.8168461
  73.7249992  70.0419978  20.4150014  72.8589992  69.9369978  20.8090014
  74.1009992  70.7999978  20.8610014  73.6573401  70.1301708  20.5292620
  75.0259992  68.2979978   5.9290014  75.8759992  68.7189978   6.0560014
  75.0309992  67.5579978   6.5360014  75.1431143  68.2556094   6.0284750
  75.4199992  66.3519978   7.7520014  74.6939992  65.8719978   8.1500014
  76.0019992  66.5569978   8.4850014  75.3992730  66.3140184   7.9054149
  75.1789992  69.1369978  12.7000014  76.0129992  68.7589978  12.4190014
  75.2909992  70.0799978  12.5810014  75.3081917  69.2127943  12.6454861
  73.6659992  72.0149978  15.0070014  73.0179992  72.3399978  15.6320014
  73.1479992  71.5739978  14.3330014  73.5074196  71.9998651  15.0014152
  75.6889992  66.2529978   4.1430014  75.1669992  66.6089978   3.4250014
  75.6559992  66.9279978   4.8220014  75.6130129  66.3929598   4.1363355
  74.0379992  63.4919978   2.6940014  74.1339992  64.1589978   2.0140014
  73.8979992  62.6769978   2.2130014  74.0322040  63.4730671   2.5358378
  73.2069992  64.8729978   8.3150014  73.0569992  63.9279978   8.2950014
  72.8529992  65.1539978   9.1590014  73.1386351  64.7816644   8.4263220
  58.2419992  66.9509978  12.3260014  58.4269992  66.8689978  11.3900014
  59.0919992  66.8269978  12.7490014  58.3820928  66.9230463  12.2552893
  74.0629992  66.8429978  17.9540014  74.6459992  66.1079978  18.1460014
  74.6269992  67.6149978  18.0010014  74.2189781  66.8468145  17.9866164
  75.5599992  64.7459978  18.6390014  74.6969992  64.3669978  18.4730014
  76.1639992  64.0069978  18.5640014  75.5236085  64.5943223  18.6061695
  73.2849992  60.8999978   1.8120014  73.8959992  60.5289978   2.4490014
  72.4479992  60.4789978   2.0080014  73.2554947  60.7922756   1.9257252
  72.9179992  62.4549978   6.7780014  73.1969992  61.5479978   6.9020014
  73.6769992  62.8889978   6.3890014  73.0588619  62.3894502   6.7423795
  73.5289992  63.0369978  12.2140014  74.4619992  63.2489978  12.1790014
  73.2939992  63.1379978  13.1360014  73.6249517  63.0796833  12.3339130
  73.5589992  63.7739978  14.9900014  72.7159992  64.0419978  15.3560014
  74.0009992  64.5959978  14.7790014  73.5034138  63.9218273  15.0115518
  57.8399992  62.2209978  18.4660014  58.7589992  62.0989978  18.7030014
  57.3899992  61.4709978  18.8560014  57.9050087  62.1029608  18.5511410
  75.8419992  57.7539978  20.3430014  76.1909992  57.0999978  19.7380014
  75.9889992  58.5909978  19.9030014  75.9096824  57.7776024  20.2006304
  73.5309992  59.7179978   6.8260014  73.7129992  59.2689978   7.6510014
  72.9309992  59.1339978   6.3620014  73.4748187  59.5775552   6.8762739
  59.0609992  60.5339978  11.3580014  59.5059992  59.7419978  11.6600014
  59.5269992  61.2499978  11.7880014  59.1849718  60.5224534  11.4575265
  57.3649992  63.5329978  12.4270014  57.8569992  63.3119978  11.6360014
  57.7269992  64.3729978  12.7080014  57.4812923  63.6163468  12.3567407
  75.3609992  59.8629978  18.6920014  74.4439992  60.1339978  18.6570014
  75.4839992  59.3279978  17.9080014  75.2519672  59.8277885  18.5811862
  75.3979992  59.7859978   3.3540014  75.8099992  59.0649978   2.8790014
  76.0789992  60.4549978   3.4120014  75.5465536  59.7777766   3.2968024
  57.6789992  59.7909978   6.4810014  56.7539992  59.9989978   6.3520014
  58.1329992  60.2749978   5.7910014  57.6136298  59.8849299   6.3700451
  72.4489992  74.7749978   8.4270014  73.1019992  74.4269978   7.8190014
  72.9599992  75.2629978   9.0730014  72.6072777  74.7933815   8.4312047
  57.6419992  58.5289978  14.8250014  56.9769992  58.2829978  15.4680014
  57.1989992  59.1509978  14.2480014  57.4911168  58.5794214  14.8349848
  62.7879992  72.6779978  15.2280014  62.3639992  73.4879978  14.9460014
  63.6929992  72.7639978  14.9260014  62.8522138  72.8004160  15.1486415
  67.0999992  74.0769978  18.1880014  67.2839992  73.7439978  19.0660014
  67.9459992  74.3869978  17.8660014  67.2396484  74.0732979  18.2647617
  69.4449992  75.3629978  17.4320014  70.1219992  74.7299978  17.1920014
  69.7659992  75.7639978  18.2390014  69.5811323  75.3305691  17.5083158
  74.3619992  57.9529978  16.5110014  73.5489992  58.2779978  16.1240014
  74.5949992  57.1919978  15.9780014  74.2821347  57.8946880  16.3859841
  60.1899992  75.9349978  15.2760014  59.4699992  76.3749978  14.8250014
  59.8249992  75.6839978  16.1240014  60.0419643  75.9613369  15.3289129
  62.6569992  75.5349978  14.3060014  61.7929992  75.6069978  14.7100014
  62.6019992  76.0819978  13.5220014  62.5311942  75.6187849  14.2554000
  67.3679992  75.4229978  13.4810014  66.9109992  75.9519978  12.8270014
  67.5309992  76.0259978  14.2060014  67.3274960  75.5769280  13.4895274
  69.6959992  74.3009978  14.4260014  68.7909992  74.4659978  14.1600014
  70.1239992  75.1539978  14.3600014  69.6301537  74.4389134  14.3807095
  72.2999992  75.8709978  14.7210014  72.1179992  76.7869978  14.5100014
  72.4769992  75.4599978  13.8740014  72.2990030  75.9408273  14.5777166
  59.6049992  74.5579978  12.1860014  59.5869992  74.1319978  13.0430014
  60.4099992  74.2389978  11.7770014  59.7112875  74.4566435  12.2479515
  61.7459992  73.2679978  10.8410014  61.5269992  72.3509978  11.0110014
  62.5699992  73.4079978  11.3070014  61.8274702  73.1615511  10.9272527
  64.2829992  73.7379978  11.6900014  64.4959992  72.8499978  11.4030014
  64.3479992  73.7029978  12.6440014  64.3209149  73.6118326  11.7797369
  67.7919992  59.4019978  10.8340014  67.1179992  58.7719978  11.0900014
  68.3559992  58.9179978  10.2310014  67.7760384  59.2503708  10.7875020
  72.9349992  57.5089978  10.9470014  73.5379992  58.0569978  10.4450014
  72.0649992  57.8279978  10.7060014  72.8999157  57.6270373  10.8457910
  74.6619992  58.6479978   9.2800014  75.2729992  58.1339978   8.7530014
  75.0439992  59.5249978   9.3030014  74.7973305  58.6962050   9.2109418
  60.1189992  58.0359978   8.6560014  59.3419992  57.8009978   8.1490014
  60.6489992  57.2389978   8.6650014  60.0843451  57.8961268   8.5878627
  58.9549992  57.8339978   4.4600014  59.3939992  58.4449978   3.8680014
  58.3209992  58.3719978   4.9340014  58.9293859  57.9904064   4.4430305
  64.6979992  57.9619978   8.4690014  65.5719992  58.3509978   8.4400014
  64.5619992  57.7469978   9.3920014  64.7991953  57.9861643   8.5897617
  70.2549992  57.9919978  10.1190014  70.3309992  58.0879978   9.1690014
  69.9799992  57.0849978  10.2470014  70.2281871  57.8824146  10.0063944
  71.6079992  58.0179978   5.8110014  70.9049992  58.6329978   5.6010014
  71.1629992  57.1809978   5.9420014  71.4516550  57.9889668   5.7999837
  58.8559992  73.7819978   5.3570014  58.1709992  73.7439978   4.6900014
  58.8599992  74.6949978   5.6450014  58.7627621  73.9001924   5.3046126
  60.8159992  59.7499978   2.9020014  61.3069992  59.1199978   2.3750014
  61.4389992  60.0459978   3.5650014  60.9675304  59.7037376   2.9194940
  65.8419992  60.0429978   5.3590014  66.0199992  59.3959978   6.0420014
  65.7879992  60.8769978   5.8260014  65.8590678  60.0671604   5.5156301
  67.7199992  74.9909978   3.7550014  68.5859992  75.3579978   3.5770014
  67.4739992  74.5519978   2.9410014  67.8052097  74.9818525   3.6206019
  74.4289992  74.5539978   6.4340014  74.2349992  73.8059978   5.8690014
  74.3899992  75.3119978   5.8510014  74.3971645  74.5540786   6.2778148
  60.0759992  58.5499978  18.1740014  59.7099992  57.7839978  18.6160014
  60.9889992  58.5789978  18.4600014  60.1493172  58.4490324  18.2731890
  62.0489992  57.8999978  19.7090014  62.9479992  57.6259978  19.5250014
  61.6629992  57.1579978  20.1740014  62.1197307  57.7622196  19.7467098
  60.6739992  74.7019978   2.3820014  60.4059992  74.9879978   3.2560014
  61.4449992  74.1559978   2.5350014  60.7415926  74.6672779   2.5221205
  70.4709992  57.2329978  19.8920014  70.5469992  56.8069978  20.7450014
  71.3639992  57.2459978  19.5490014  70.6022303  57.1763493  19.9625497
  73.6469992  73.3059978  18.5840014  72.8649992  73.1189978  18.0640014
  73.5749992  74.2349978  18.8010014  73.5301924  73.4060637  18.5421602
  88.0529992  67.1919978   8.6150014  88.1419992  68.1359978   8.4830014
  87.4149992  66.9169978   7.9570014  87.9789062  67.2839812   8.5079641
  86.9859992  66.4469978  12.0340014  86.9479992  65.8009978  12.7390014
  86.6639992  65.9799978  11.2630014  86.9372679  66.2954276  12.0262921
  79.3539992  66.0609978  13.6270014  79.3959992  65.4359978  14.3500014
  80.0569992  66.6849978  13.8090014  79.4547345  66.0597873  13.7505274
  90.6919992  69.3859978  10.3350014  90.2509992  68.6659978  10.7860014
  90.6789992  70.1069978  10.9650014  90.6299215  69.3849291  10.4818105
  80.2779992  70.5109978  12.1620014  79.9079992  69.7089978  11.7920014
  81.2189992  70.3429978  12.2080014  80.3545984  70.3784638  12.1175603
  76.8879992  64.1709978   7.5540014  76.4399992  65.0169978   7.5360014
  76.3269992  63.5919978   7.0390014  76.7508546  64.2083993   7.4818891
  77.5979992  66.3329978   9.6800014  77.8119992  65.5629978  10.2080014
  78.3359992  66.4229978   9.0770014  77.7270200  66.2398586   9.6707035
  87.8039992  74.4899978  10.5470014  88.4229992  73.8139978  10.2740014
  87.5949992  74.2719978  11.4560014  87.8606056  74.3678869  10.6323967
  85.3749992  68.8789978  12.4400014  85.6789992  68.1929978  11.8450014
  86.0969992  68.9979978  13.0580014  85.5141240  68.8012314  12.4420959
  94.0379992  60.4809978  13.3000014  94.0879992  61.0909978  14.0360014
  94.4639992  60.9419978  12.5770014  94.1024108  60.6267709  13.3030112
  88.5159992  63.2729978  12.7670014  88.6589992  62.3269978  12.7870014
  88.4099992  63.4799978  11.8390014  88.5212403  63.1714797  12.6442239
  81.6709992  61.3749978  10.0400014  81.7139992  62.2349978   9.6210014
  81.2129992  60.8229978   9.4060014  81.6149871  61.4179245   9.8970761
  89.3929992  61.5059978   8.4410014  90.0399992  61.1769978   9.0650014
  89.9029992  62.0229978   7.8180014  89.5504351  61.5309067   8.4421037
  78.2909992  63.7719978  10.8020014  78.9449992  63.2219978  11.2340014
  78.3149992  63.4979978   9.8850014  78.3837199  63.6597167  10.7371668
  83.4479992  65.3219978  10.0170014  84.0639992  64.7949978  10.5260014
  82.8609992  64.6819978   9.6130014  83.4530154  65.1633954  10.0320945
  94.4299992  61.9589978  15.5360014  93.7409992  62.6169978  15.4410014
  94.4449992  61.7609978  16.4730014  94.3377756  62.0222603  15.6495812
  80.4809992  60.2929978  14.1140014  80.2619992  60.8229978  13.3470014
  79.8129992  60.5189978  14.7610014  80.3606975  60.3960967  14.0965140
  87.8499992  69.7929978   7.6580014  87.5549992  69.4699978   6.8060014
  87.5259992  70.6929978   7.6990014  87.7658460  69.8704464   7.5469714
  83.0499992  67.9679978  14.4010014  82.3099992  68.5669978  14.5050014
  83.7639992  68.5219978  14.0860014  83.0453500  68.1247829  14.3726371
  91.1569992  60.7969978  10.4210014  90.9419992  60.0309978  10.9540014
  91.8129992  61.2689978  10.9340014  91.2162673  60.7560728  10.5631990
  80.0749992  62.1849978  12.0660014  80.6889992  62.8179978  12.4390014
  80.5869992  61.7129978  11.4100014  80.2281962  62.2077249  12.0282935
  81.4579992  69.9329978  15.1880014  81.4519992  70.8119978  14.8100014
  80.6039992  69.8489978  15.6130014  81.3417925  70.0419535  15.1936887
  77.5789992  69.6039978   5.9700014  77.3069992  69.8329978   5.0820014
  77.6239992  70.4409978   6.4310014  77.5478097  69.7486163   5.9106683
  91.2039992  71.2249978  12.6830014  90.2619992  71.2839978  12.8450014
  91.4799992  72.1309978  12.5460014  91.1125865  71.3555288  12.6866192
  91.5039992  59.5119978  14.1000014  90.7679992  60.1219978  14.0630014
  92.1879992  59.9269978  13.5740014  91.4955367  59.6517551  14.0238174
  84.5079992  57.5979978  11.5660014  84.3899992  56.6499978  11.5120014
  83.6529992  57.9309978  11.8390014  84.3762805  57.5132202  11.5955079
  89.4559992  73.0059978   9.3080014  89.8809992  72.2989978   8.8230014
  89.7729992  73.8079978   8.8910014  89.5570266  73.0175190   9.1852479
  90.6159992  70.9069978   7.8170014  90.3579992  70.2169978   7.2050014
  90.6869992  70.4639978   8.6620014  90.5903050  70.7526814   7.8475621
  92.3019992  69.4739978  16.2940014  92.4409992  68.8819978  15.5550014
  92.4689992  70.3469978  15.9380014  92.3436193  69.5108896  16.1446211
  86.7739992  66.4359978   6.0670014  86.0629992  66.9709978   5.7150014
  87.4649992  66.4909978   5.4070014  86.7700751  66.5166777   5.9295858
  86.8279992  64.8929978   3.1050014  87.5289992  64.9159978   3.7570014
  87.1299992  64.2649978   2.4490014  86.9648202  64.8112212   3.1055609
  94.1429992  65.8139978  14.3600014  93.4909992  66.5079978  14.4490014
  94.6089992  66.0239978  13.5500014  94.1165937  65.9375019  14.2627533
  90.1799992  66.6449978   7.0180014  89.4479992  66.8739978   7.5920014
  90.6269992  65.9319978   7.4730014  90.1403963  66.5798729   7.1579945
  90.0769992  64.8199978  16.0860014  90.1569992  65.5829978  16.6580014
  89.4759992  65.0989978  15.3960014  90.0066547  64.9622457  16.0710047
  81.8249992  67.2759978   8.9010014  81.4949992  66.9049978   8.0830014
  82.4139992  66.6049978   9.2480014  81.8593970  67.1346063   8.8359404
  83.1919992  70.7039978  11.5820014  83.0969992  70.1249978  10.8260014
  83.9209992  70.3329978  12.0780014  83.2776011  70.5745561  11.5456028
  82.1919992  66.0439978  12.5340014  82.7569992  66.1659978  11.7720014
  82.5109992  66.6819978  13.1730014  82.3124166  66.1468791  12.5160348
  88.5009992  71.5479978  13.2680014  88.2609992  72.2099978  13.9160014
  88.3029992  70.7129978  13.6930014  88.4413826  71.5258115  13.4141566
  83.0719992  70.4439978  17.2520014  82.7609992  71.2259978  17.7070014
  82.4219992  70.2909978  16.5660014  82.9415538  70.5304087  17.2215898
  89.0509992  65.8079978   4.7040014  89.6299992  65.9579978   5.4500014
  89.4649992  66.2779978   3.9800014  89.1863358  65.8920954   4.7083953
  79.9919992  66.6419978  16.4800014  80.0619992  67.2929978  17.1790014
  79.1009992  66.7449978  16.1450014  79.8811690  66.7449249  16.5303043
  86.7769992  72.5439978   8.1390014  87.2509992  72.8399978   8.9160014
  86.2139992  73.2829978   7.9060014  86.7657890  72.6843036   8.2138101
  81.3109992  72.5149978  18.0150014  81.3189992  72.3789978  17.0680014
  80.3949992  72.3979978  18.2670014  81.1882528  72.4805463  17.9193243
  92.7499992  57.5579978   4.5170014  91.8499992  57.6969978   4.8120014
  93.0019992  58.3889978   4.1150014  92.6608683  57.6894055   4.5030232
  80.8159992  66.3449978   6.4900014  80.5239992  67.1129978   5.9990014
  80.1409992  65.6859978   6.3270014  80.6848497  66.3609745   6.4008260
  93.9389992  71.9239978   2.8930014  94.0119992  72.8629978   3.0630014
  94.8439992  71.6189978   2.8370014  94.0714170  72.0113282   2.9087063
  76.9089992  68.7079978  15.3050014  76.4069992  68.6799978  14.4900014
  76.9139992  67.8029978  15.6150014  76.8409832  68.5817486  15.2354121
  76.6589992  71.4889978  12.1890014  77.6049992  71.3439978  12.1700014
  76.5459992  72.2729978  12.7260014  76.7733578  71.5751697  12.2590317
  94.8569992  72.1549978  17.8720014  94.8069992  71.1989978  17.8340014
  94.0299992  72.4219978  18.2730014  94.7383831  72.0604680  17.9210121
  85.8349992  71.7289978  16.7480014  85.9229992  72.5549978  17.2230014
  84.9719992  71.3989978  16.9970014  85.7303357  71.7975468  16.8467653
  86.2499992  75.5009978   6.5540014  86.1739992  75.3799978   5.6070014
  86.2819992  76.4499978   6.6720014  86.2439380  75.6127677   6.4405181
  79.9029992  74.2899978   8.3350014  80.0549992  73.9419978   9.2130014
  79.0519992  73.9329978   8.0790014  79.8088344  74.1940879   8.4206868
  89.3509992  74.6549978   3.5560014  89.7259992  73.9109978   3.0850014
  89.3559992  74.3849978   4.4740014  89.4030098  74.5166392   3.6156629
  89.0199992  74.5809978   6.3050014  88.0849992  74.6809978   6.4840014
  89.2999992  73.8709978   6.8840014  88.9299471  74.4987933   6.4076695
  92.0089992  63.6479978  18.3520014  91.6009992  64.1279978  17.6310014
  92.0489992  62.7419978  18.0440014  91.9586221  63.5912449  18.2118267
  79.1579992  70.0319978  16.3480014  79.3739992  69.6699978  17.2080014
  78.3019992  69.6569978  16.1390014  79.0718810  69.9318837  16.4372680
  81.7759992  58.5019978  12.3440014  80.9149992  58.4149978  11.9360014
  81.7539992  59.3579978  12.7720014  81.6550491  58.6058003  12.3459582
  86.4389992  58.2239978  15.7190014  86.8589992  57.8089978  16.4720014
  85.5059992  58.0449978  15.8360014  86.3703736  58.1429910  15.8378968
  89.7659992  61.9789978  16.5720014  89.2519992  61.8539978  17.3700014
  89.6099992  62.8919978  16.3280014  89.6746967  62.0852123  16.6480937
  90.5279992  66.8399978   2.3330014  90.5699992  66.6179978   1.4030014
  91.3769992  67.2389978   2.5230014  90.6485253  66.8635498   2.2313822
  86.1009992  60.7159978   3.0040014  85.8469992  60.7349978   3.9260014
  85.8439992  59.8449978   2.7020014  86.0314508  60.6008280   3.0894803
  81.8669992  63.4669978  13.4390014  81.2259992  63.4269978  14.1480014
  81.9049992  64.3939978  13.2010014  81.7843010  63.5867668  13.5039946
  81.8639992  63.6879978   8.3510014  80.9719992  63.3479978   8.2920014
  82.3149992  63.3109978   7.5950014  81.8027642  63.5904910   8.2407726
  87.3999992  64.1039978   7.1680014  86.9909992  64.9189978   6.8760014
  88.1199992  63.9639978   6.5540014  87.4414439  64.1965372   7.0450115
  86.5019992  64.2799978  18.6560014  85.9389992  63.5749978  18.9770014
  87.3279992  64.1589978  19.1240014  86.5366674  64.1672165  18.7631751
  88.4049992  63.5499978   9.9820014  88.2089992  64.1559978   9.2670014
  88.5859992  62.7169978   9.5480014  88.4026584  63.5202513   9.8254212
  79.6169992  63.7879978  15.3060014  79.5789992  64.1879978  16.1750014
  79.1269992  62.9709978  15.3960014  79.5455330  63.7322674  15.4371289
  82.9829992  61.1619978   2.1050014  82.5519992  60.7169978   2.8340014
  82.2649992  61.5329978   1.5920014  82.8269176  61.1512051   2.1354930
  76.2259992  60.9039978   9.1570014  76.8559992  60.8749978   9.8760014
  76.6749992  60.4789978   8.4260014  76.3730835  60.8425660   9.1567659
  77.4999992  61.6499978   4.5810014  77.9739992  62.2409978   3.9960014
  76.7819992  62.1799978   4.9280014  77.4678640  61.8025511   4.5477969
  87.6689992  65.1879978  14.6530014  87.9919992  64.5569978  14.0100014
  87.2279992  64.6539978  15.3140014  87.6536379  65.0293468  14.6542582
  84.4459992  61.1159978   9.4370014  83.5349992  61.1729978   9.7260014
  84.9509992  61.0559978  10.2480014  84.3896873  61.1156826   9.5861207
  79.2739992  62.7449978   8.2640014  78.3849992  62.8439978   7.9240014
  79.5709992  61.9029978   7.9180014  79.1924177  62.6447687   8.1706940
  82.9269992  62.7449978   5.9210014  83.8589992  62.8739978   6.0990014
  82.7119992  63.4139978   5.2710014  83.0254472  62.8530806   5.8574891
  88.8509992  60.3509978  12.7020014  88.1739992  60.4819978  13.3650014
  88.3659992  60.1959978  11.8910014  88.6927405  60.3479947  12.6832170
  81.6009992  63.9389978   3.4870014  81.0589992  63.5599978   2.7960014
  82.4349992  64.1339978   3.0590014  81.6394390  63.9134079   3.3344392
  92.1389992  76.0219978  18.9780014  92.3379992  76.4459978  18.1440014
  92.7939992  76.3659978  19.5850014  92.2548522  76.1266301  18.9457852
  79.7369992  68.4959978  18.5860014  80.4689992  68.7509978  19.1480014
  78.9559992  68.7009978  19.1020014  79.7316526  68.5585450  18.7325176
  85.7659992  63.9029978  11.3240014  86.3299992  63.3569978  10.7770014
  85.6179992  63.3819978  12.1130014  85.8233037  63.7576787  11.3557229
  80.7679992  60.0399978   7.7430014  80.4509992  59.1369978   7.7070014
  81.5489992  60.0419978   7.1900014  80.8302431  59.9167797   7.6633102
  84.3919992  62.2919978  13.7380014  83.5569992  62.7459978  13.8490014
  84.9159992  62.5679978  14.4900014  84.3486072  62.3913948  13.8548136
  84.9369992  68.5049978   5.4230014  84.1919992  67.9969978   5.1010014
  84.8019992  68.5539978   6.3690014  84.8168963  68.4421731   5.5068826
  92.0869992  67.6379978  14.2100014  92.7279992  68.0939978  13.6660014
  91.2559992  67.7509978  13.7470014  92.0625287  67.7156921  14.0729887
  88.8339992  61.3189978   3.6220014  87.8959992  61.4299978   3.4710014
  89.1319992  62.1749978   3.9290014  88.7456318  61.4500158   3.6428145
  86.4559992  68.6889978  16.6600014  86.1099992  68.3069978  17.4670014
  86.2559992  69.6219978  16.7310014  86.3815987  68.7629002  16.7800461
  89.5529992  63.1859978   5.2830014  90.4449992  63.0479978   5.6020014
  89.6089992  63.9769978   4.7460014  89.6827325  63.2739918   5.2541217
  80.0609992  67.7999978  11.1930014  80.8059992  67.7969978  10.5910014
  80.1389992  66.9759978  11.6740014  80.1733365  67.6882384  11.1757430
  87.0619992  69.9629978   4.4480014  86.7669992  70.7899978   4.8300014
  86.3589992  69.3439978   4.6450014  86.9266379  69.9924171   4.5268654
  77.0689992  66.2599978  16.5080014  77.2919992  65.8419978  17.3390014
  76.4669992  65.6479978  16.0850014  77.0181513  66.1199606  16.5646740
  84.0859992  65.7769978  18.7210014  83.7899992  65.6119978  17.8250014
  85.0169992  65.5569978  18.7100014  84.1714401  65.7246880  18.5970206
  88.7059992  71.1509978  16.6100014  87.8059992  71.3339978  16.3430014
  88.7399992  71.4099978  17.5310014  88.5873748  71.2110554  16.6979164
  94.4379992  63.3949978   4.9780014  93.8829992  62.9989978   4.3050014
  94.5379992  64.3059978   4.7000014  94.3756816  63.4639505   4.8485033
  94.4009992  69.1959978  17.8150014  93.5499992  69.4339978  17.4470014
  94.9909992  69.1789978  17.0620014  94.3643812  69.2262524  17.6628453
  92.7329992  72.1809978   5.4430014  92.3599992  71.3559978   5.7520014
  93.0099992  71.9979978   4.5450014  92.7193463  72.0432569   5.3639525
  89.8929992  66.9889978  12.4640014  88.9649992  66.7579978  12.4370014
  90.3439992  66.2119978  12.1340014  89.8268165  66.8522774  12.4156790
  82.4359992  71.3179978   8.5970014  82.9639992  72.0909978   8.3970014
  81.5559992  71.5419978   8.2950014  82.3893435  71.4542700   8.5287310
  78.1909992  66.1799978   3.1840014  78.8069992  66.8069978   3.5640014
  77.3289992  66.4959978   3.4560014  78.1587678  66.3084412   3.2727209
  83.8639992  68.9809978   8.1730014  83.6229992  69.9059978   8.2150014
  83.1229992  68.5219978   8.5700014  83.7309206  69.0455915   8.2323769
  84.3779992  73.1299978  14.4880014  84.7409992  73.9839978  14.2550014
  84.9099992  72.8379978  15.2290014  84.4995141  73.2073895  14.5562097
  82.5469992  74.0019978   7.7190014  81.5969992  74.1079978   7.7700014
  82.8989992  74.8229978   8.0630014  82.4645472  74.1274923   7.7724852
  87.9219992  69.2289978  14.1890014  87.4969992  69.0009978  15.0150014
  88.5029992  68.4899978  14.0070014  87.9423395  69.0979545  14.2774414
  90.1249992  70.1579978   3.2630014  90.4789992  69.7779978   4.0670014
  89.1769992  70.0639978   3.3500014  90.0452298  70.0932452   3.3848687
  90.5809992  73.7809978  16.6580014  89.9789992  73.2249978  16.1630014
  90.8619992  74.4479978  16.0320014  90.5365757  73.7950744  16.5055675
  94.6289992  74.6369978   3.4640014  95.3729992  75.2229978   3.3240014
  93.9349992  75.2059978   3.7970014  94.6369809  74.7940818   3.4898590
  78.7029992  61.0139978  16.0660014  77.8109992  61.3519978  15.9980014
  78.6049992  60.1579978  16.4840014  78.5674475  60.9446543  16.1131704
  90.9909992  68.8299978   5.4900014  90.7139992  68.1019978   6.0460014
  91.9189992  68.9489978   5.6950014  91.0784499  68.7464213   5.5938044
  78.3549992  72.8179978  14.5010014  78.5719992  71.8859978  14.4700014
  78.6009992  73.0929978  15.3840014  78.4179809  72.7275686  14.6161691
  84.2159992  71.2699978   1.7100014  84.4549992  70.5209978   1.1630014
  83.9469992  70.8819978   2.5430014  84.2123233  71.1151853   1.7477809
  83.1529992  70.8399978   4.1660014  83.2999992  70.3199978   4.9560014
  83.1499992  71.7469978   4.4730014  83.1727102  70.8913953   4.3155925
  79.6059992  68.0919978   4.6770014  78.9199992  68.4449978   5.2440014
  80.1289992  68.8549978   4.4300014  79.5828402  68.2433901   4.7211801
  87.4379992  60.7549978  14.9560014  88.1369992  60.8289978  15.6060014
  87.0569992  59.8899978  15.1100014  87.4822097  60.6482389  15.0657997
  88.2219992  60.4069978   6.0530014  88.4419992  60.8779978   5.2490014
  88.7809992  60.8009978   6.7230014  88.3276732  60.5247287   6.0335033
  85.8909992  72.5369978   4.9160014  85.0739992  73.0339978   4.9680014
  86.4199992  73.0129978   4.2750014  85.8508125  72.6691989   4.8365306
  85.4219992  62.1349978   6.8880014  86.2339992  62.6389978   6.9340014
  85.1779992  61.9899978   7.8020014  85.5001467  62.1843749   7.0178575
  85.9579992  63.1209978  16.0720014  86.0769992  63.6949978  16.8290014
  86.6129992  62.4329978  16.1870014  86.0628684  63.1065194  16.1911674
  86.3059992  59.2159978   7.8260014  85.9589992  59.8329978   8.4700014
  86.9649992  59.7169978   7.3440014  86.3475090  59.3681575   7.8490681
  83.2289992  73.5809978   4.8970014  83.3899992  74.3809978   4.3970014
  83.0319992  73.8879978   5.7820014  83.2243906  73.7318678   4.9482333
  81.9639992  60.2789978   4.5130014  81.8799992  61.1669978   4.8600014
  82.8539992  60.0139978   4.7450014  82.0728163  60.3647179   4.5918596
  92.1619992  61.0279978  16.9070014  91.2459992  61.2899978  16.8200014
  92.4979992  61.0249978  16.0110014  92.0818499  61.0635163  16.7738766
  90.7649992  64.7779978  11.0030014  89.9669992  64.3629978  10.6750014
  91.2099992  64.0879978  11.4940014  90.7159684  64.6278628  11.0245227
  80.2219992  70.7059978   3.5730014  80.8139992  71.4059978   3.8500014
  80.6809992  70.2729978   2.8540014  80.3651652  70.7432675   3.5136533
  78.5379992  63.3709978   2.6890014  78.4929992  64.3099978   2.8680014
  77.6499992  63.1349978   2.4200014  78.4118166  63.4676687   2.6771524
  91.8509992  74.0339978  12.6250014  91.6949992  74.7129978  11.9680014
  92.7839992  74.1059978  12.8280014  91.9557387  74.1366390  12.5625342
  79.3459992  58.1519978  11.3630014  79.1169992  58.2109978  10.4350014
  78.9039992  57.3609978  11.6690014  79.2548801  58.0530540  11.2774729
  78.2769992  72.0929978   7.5230014  77.4439992  72.5649978   7.5500014
  78.8219992  72.6029978   6.9240014  78.2367857  72.2264791   7.4457142
  77.5649992  74.7049978  18.8530014  78.1049992  74.4889978  19.6130014
  77.0839992  73.8999978  18.6630014  77.5739219  74.5665156  18.9314282
  82.1619992  73.6249978  20.4730014  82.9299992  73.1659978  20.8140014
  82.1409992  73.3989978  19.5430014  82.2642135  73.5316668  20.3939491
  86.2539992  73.1329978   1.8490014  85.6099992  72.5019978   2.1700014
  87.0159992  72.6019978   1.6170014  86.2688058  72.9747902   1.8616038
  88.7389992  72.0049978  19.2020014  88.3879992  71.1479978  19.4460014
  89.4649992  72.1469978  19.8090014  88.7891895  71.9071351  19.3173770
  90.8589992  72.9499978   2.0820014  91.1419992  72.1549978   2.5350014
  91.5979992  73.1829978   1.5210014  90.9977096  72.8727049   2.0681104
  77.4719992  68.5159978  19.8070014  77.6159992  67.6139978  19.5210014
  76.6999992  68.8019978  19.3200014  77.3872733  68.4311798  19.7019532
  81.8129992  68.8589978   1.9400014  81.8779992  68.0649978   2.4700014
  82.4659992  68.7409978   1.2500014  81.9101605  68.7343430   1.9192997
  84.1269992  68.4849978  19.2400014  83.7989992  68.7559978  18.3830014
  84.2789992  67.5439978  19.1520014  84.1026412  68.3949046  19.1107822
  87.1659992  69.9059978   1.6760014  86.8969992  70.0869978   2.5760014
  86.9589992  68.9809978   1.5440014  87.1011191  69.8057119   1.7815524
  89.8619992  68.4009978  16.6230014  90.6069992  68.9899978  16.5040014
  89.1049992  68.9829978  16.6870014  89.8615470  68.5602128  16.6153799
  78.3049992  65.7159978  19.2270014  78.7129992  64.8589978  19.1060014
  78.0439992  65.7299978  20.1480014  78.3256016  65.6005119  19.3349192
  82.9629992  66.8319978   4.2460014  82.5029992  66.3479978   4.9310014
  83.2179992  66.1629978   3.6100014  82.9344856  66.6753669   4.2538397
  82.2519992  64.7249978  16.6020014  81.6329992  65.3989978  16.8820014
  82.5959992  65.0459978  15.7680014  82.2137123  64.8606887  16.5276388
  84.0339992  65.0749978   2.5080014  83.8529992  64.9199978   1.5810014
  84.9839992  65.1829978   2.5530014  84.1376566  65.0683669   2.3870929
  87.2709992  67.1959978  19.8790014  88.2249992  67.2799978  19.8520014
  87.1109992  66.4839978  20.4990014  87.3797182  67.1112842  19.9590733
  93.4239992  67.4289978   1.9540014  93.1499992  67.0049978   1.1410014
  93.4629992  68.3609978   1.7370014  93.3917716  67.4968827   1.8134286
  82.5909992  62.0799978  17.6840014  82.7409992  61.3509978  17.0820014
  82.5929992  62.8569978  17.1250014  82.6117967  62.0852708  17.5260541
  83.0039992  60.4489978  15.1770014  83.5389992  60.9009978  14.5250014
  82.1509992  60.3409978  14.7540014  82.9620374  60.4962665  15.0306710
  84.5849992  65.8889978  15.4160014  85.3359992  65.7329978  14.8430014
  84.2459992  66.7409978  15.1410014  84.6419587  65.9828138  15.3004078
  89.0009992  63.7039978  20.4450014  89.1929992  62.7729978  20.3330014
  89.8589992  64.1289978  20.4340014  89.1432182  63.6340070  20.4281862
  90.3179992  66.4929978  18.5220014  90.0359992  67.2019978  17.9440014
  91.2599992  66.4199978  18.3710014  90.4067921  66.5802193  18.4224225
  81.0699992  63.2779978  19.5950014  80.3019992  62.7449978  19.3850014
  81.7479992  62.9679978  18.9960014  81.0567235  63.1631754  19.4852413
  83.8089992  57.9059978  15.6080014  83.7109992  58.8519978  15.5030014
  83.0669992  57.5329978  15.1320014  83.6952534  57.9851773  15.5292600
  85.0729992  62.2269978  19.1720014  84.8379992  62.0079978  20.0730014
  84.2899992  62.0199978  18.6620014  84.9349095  62.1689892  19.2265353
  87.7889992  61.3549978  18.2470014  86.8409992  61.3869978  18.3790014
  88.1009992  60.7289978  18.9010014  87.7015293  61.2747923  18.3534148
  89.4229992  59.9889978  20.2520014  89.3259992  59.0369978  20.2470014
  89.1009992  60.2569978  21.1130014  89.3662468  59.8950884  20.3676210
  79.2499992  61.1979978  19.3000014  79.4619992  60.4919978  18.6900014
  79.1389992  60.7609978  20.1440014  79.2640269  61.0421921  19.3305873
  84.0309992  57.1999978  18.2790014  84.7429992  56.5599978  18.2650014
  83.9299992  57.4659978  17.3660014  84.1147387  57.1484330  18.1535563
  84.3849992  58.8819978  20.3330014  84.2529992  58.4069978  19.5130014
  83.7849992  59.6269978  20.2780014  84.2859070  58.9175789  20.2133251
  83.9309992  75.7649978   3.5090014  84.8639992  75.9229978   3.6530014
  83.6669992  76.4409978   2.8840014  84.0229911  75.8779373   3.4442722
  77.4989992  70.4019978   2.9920014  78.4129992  70.4809978   3.2650014
  77.5069992  69.7149978   2.3260014  77.6250655  70.3199205   2.9392917
  76.1479992  75.7949978   8.0690014  75.5009992  75.3329978   7.5370014
  76.5029992  75.1229978   8.6520014  76.1073741  75.6409774   8.0749175
  77.0179992  73.8749978   9.8740014  76.6839992  72.9949978  10.0460014
  77.2409992  74.2209978  10.7390014  77.0023721  73.8011938  10.0144168
  94.5669992  74.6849978  12.8550014  94.5449992  74.8699978  13.7940014
  95.2569992  75.2529978  12.5140014  94.6573439  74.7871887  12.9374791
  94.1299992  74.2519978  15.7760014  93.6429992  73.5169978  15.4050014
  94.6789992  73.8579978  16.4540014  94.1375247  74.0981057  15.8168461
  92.5809992  70.0419978  20.4150014  91.7149992  69.9369978  20.8090014
  92.9569992  70.7999978  20.8610014  92.5133401  70.1301708  20.5292620
  93.8819992  68.2979978   5.9290014  94.7319992  68.7189978   6.0560014
  93.8869992  67.5579978   6.5360014  93.9991143  68.2556094   6.0284750
  94.2759992  66.3519978   7.7520014  93.5499992  65.8719978   8.1500014
  94.8579992  66.5569978   8.4850014  94.2552730  66.3140184   7.9054149
  94.0349992  69.1369978  12.7000014  94.8689992  68.7589978  12.4190014
  94.1469992  70.0799978  12.5810014  94.1641917  69.2127943  12.6454861
  92.5219992  72.0149978  15.0070014  91.8739992  72.3399978  15.6320014
  92.0039992  71.5739978  14.3330014  92.3634196  71.9998651  15.0014152
  94.5449992  66.2529978   4.1430014  94.0229992  66.6089978   3.4250014
  94.5119992  66.9279978   4.8220014  94.4690129  66.3929598   4.1363355
  92.8939992  63.4919978   2.6940014  92.9899992  64.1589978   2.0140014
  92.7539992  62.6769978   2.2130014  92.8882040  63.4730671   2.5358378
  92.0629992  64.8729978   8.3150014  91.9129992  63.9279978   8.2950014
  91.7089992  65.1539978   9.1590014  91.9946351  64.7816644   8.4263220
  77.0979992  66.9509978  12.3260014  77.2829992  66.8689978  11.3900014
  77.9479992  66.8269978  12.7490014  77.2380928  66.9230463  12.2552893
  92.9189992  66.8429978  17.9540014  93.5019992  66.1079978  18.1460014
  93.4829992  67.6149978  18.0010014  93.0749781  66.8468145  17.9866164
  94.4159992  64.7459978  18.6390014  93.5529992  64.3669978  18.4730014
  95.0199992  64.0069978  18.5640014  94.3796085  64.5943223  18.6061695
  92.1409992  60.8999978   1.8120014  92.7519992  60.5289978   2.4490014
  91.3039992  60.4789978   2.0080014  92.1114947  60.7922756   1.9257252
  91.7739992  62.4549978   6.7780014  92.0529992  61.5479978   6.9020014
  92.5329992  62.8889978   6.3890014  91.9148619  62.3894502   6.7423795
  92.3849992  63.0369978  12.2140014  93.3179992  63.2489978  12.1790014
  92.1499992  63.1379978  13.1360014  92.4809517  63.0796833  12.3339130
  92.4149992  63.7739978  14.9900014  91.5719992  64.0419978  15.3560014
  92.8569992  64.5959978  14.7790014  92.3594138  63.9218273  15.0115518
  76.6959992  62.2209978  18.4660014  77.6149992  62.0989978  18.7030014
  76.2459992  61.4709978  18.8560014  76.7610087  62.1029608  18.5511410
  94.6979992  57.7539978  20.3430014  95.0469992  57.0999978  19.7380014
  94.8449992  58.5909978  19.9030014  94.7656824  57.7776024  20.2006304
  92.3869992  59.7179978   6.8260014  92.5689992  59.2689978   7.6510014
  91.7869992  59.1339978   6.3620014  92.3308187  59.5775552   6.8762739
  77.9169992  60.5339978  11.3580014  78.3619992  59.7419978  11.6600014
  78.3829992  61.2499978  11.7880014  78.0409718  60.5224534  11.4575265
  76.2209992  63.5329978  12.4270014  76.7129992  63.3119978  11.6360014
  76.5829992  64.3729978  12.7080014  76.3372923  63.6163468  12.3567407
  94.2169992  59.8629978  18.6920014  93.2999992  60.1339978  18.6570014
  94.3399992  59.3279978  17.9080014  94.1079672  59.8277885  18.5811862
  94.2539992  59.7859978   3.3540014  94.6659992  59.0649978   2.8790014
  94.9349992  60.4549978   3.4120014  94.4025536  59.7777766   3.2968024
  76.5349992  59.7909978   6.4810014  75.6099992  59.9989978   6.3520014
  76.9889992  60.2749978   5.7910014  76.4696298  59.8849299   6.3700451
  91.3049992  74.7749978   8.4270014  91.9579992  74.4269978   7.8190014
  91.8159992  75.2629978   9.0730014  91.4632777  74.7933815   8.4312047
  76.4979992  58.5289978  14.8250014  75.8329992  58.2829978  15.4680014
  76.0549992  59.1509978  14.2480014  76.3471168  58.5794214  14.8349848
  78.6899992  71.7039978  18.9700014  77.8689992  71.8789978  18.5090014
  78.4379992  71.6309978  19.8900014  78.5435594  71.7180717  19.0313611
  81.6439992  72.6779978  15.2280014  81.2199992  73.4879978  14.9460014
  82.5489992  72.7639978  14.9260014  81.7082138  72.8004160  15.1486415
  85.9559992  74.0769978  18.1880014  86.1399992  73.7439978  19.0660014
  86.8019992  74.3869978  17.8660014  86.0956484  74.0732979  18.2647617
  88.3009992  75.3629978  17.4320014  88.9779992  74.7299978  17.1920014
  88.6219992  75.7639978  18.2390014  88.4371323  75.3305691  17.5083158
  93.2179992  57.9529978  16.5110014  92.4049992  58.2779978  16.1240014
  93.4509992  57.1919978  15.9780014  93.1381347  57.8946880  16.3859841
  79.0459992  75.9349978  15.2760014  78.3259992  76.3749978  14.8250014
  78.6809992  75.6839978  16.1240014  78.8979643  75.9613369  15.3289129
  81.5129992  75.5349978  14.3060014  80.6489992  75.6069978  14.7100014
  81.4579992  76.0819978  13.5220014  81.3871942  75.6187849  14.2554000
  86.2239992  75.4229978  13.4810014  85.7669992  75.9519978  12.8270014
  86.3869992  76.0259978  14.2060014  86.1834960  75.5769280  13.4895274
  88.5519992  74.3009978  14.4260014  87.6469992  74.4659978  14.1600014
  88.9799992  75.1539978  14.3600014  88.4861537  74.4389134  14.3807095
  91.1559992  75.8709978  14.7210014  90.9739992  76.7869978  14.5100014
  91.3329992  75.4599978  13.8740014  91.1550030  75.9408273  14.5777166
  78.4609992  74.5579978  12.1860014  78.4429992  74.1319978  13.0430014
  79.2659992  74.2389978  11.7770014  78.5672875  74.4566435  12.2479515
  80.6019992  73.2679978  10.8410014  80.3829992  72.3509978  11.0110014
  81.4259992  73.4079978  11.3070014  80.6834702  73.1615511  10.9272527
  83.1389992  73.7379978  11.6900014  83.3519992  72.8499978  11.4030014
  83.2039992  73.7029978  12.6440014  83.1769149  73.6118326  11.7797369
  86.6479992  59.4019978  10.8340014  85.9739992  58.7719978  11.0900014
  87.2119992  58.9179978  10.2310014  86.6320384  59.2503708  10.7875020
  91.7909992  57.5089978  10.9470014  92.3939992  58.0569978  10.4450014
  90.9209992  57.8279978  10.7060014  91.7559157  57.6270373  10.8457910
  93.5179992  58.6479978   9.2800014  94.1289992  58.1339978   8.7530014
  93.8999992  59.5249978   9.3030014  93.6533305  58.6962050   9.2109418
  78.9749992  58.0359978   8.6560014  78.1979992  57.8009978   8.1490014
  79.5049992  57.2389978   8.6650014  78.9403451  57.8961268   8.5878627
  77.8109992  57.8339978   4.4600014  78.2499992  58.4449978   3.8680014
  77.1769992  58.3719978   4.9340014  77.7853859  57.9904064   4.4430305
  83.5539992  57.9619978   8.4690014  84.4279992  58.3509978   8.4400014
  83.4179992  57.7469978   9.3920014  83.6551953  57.9861643   8.5897617
  89.1109992  57.9919978  10.1190014  89.1869992  58.0879978   9.1690014
  88.8359992  57.0849978  10.2470014  89.0841871  57.8824146  10.0063944
  90.4639992  58.0179978   5.8110014  89.7609992  58.6329978   5.6010014
  90.0189992  57.1809978   5.9420014  90.3076550  57.9889668   5.7999837
  77.7119992  73.7819978   5.3570014  77.0269992  73.7439978   4.6900014
  77.7159992  74.6949978   5.6450014  77.6187621  73.9001924   5.3046126
  79.6719992  59.7499978   2.9020014  80.1629992  59.1199978   2.3750014
  80.2949992  60.0459978   3.5650014  79.8235304  59.7037376   2.9194940
  84.6979992  60.0429978   5.3590014  84.8759992  59.3959978   6.0420014
  84.6439992  60.8769978   5.8260014  84.7150678  60.0671604   5.5156301
  86.5759992  74.9909978   3.7550014  87.4419992  75.3579978   3.5770014
  86.3299992  74.5519978   2.9410014  86.6612097  74.9818525   3.6206019
  93.2849992  74.5539978   6.4340014  93.0909992  73.8059978   5.8690014
  93.2459992  75.3119978   5.8510014  93.2531645  74.5540786   6.2778148
  78.9319992  58.5499978  18.1740014  78.5659992  57.7839978  18.6160014
  79.8449992  58.5789978  18.4600014  79.0053172  58.4490324  18.2731890
  80.9049992  57.8999978  19.7090014  81.8039992  57.6259978  19.5250014
  80.5189992  57.1579978  20.1740014  80.9757307  57.7622196  19.7467098
  79.5299992  74.7019978   2.3820014  79.2619992  74.9879978   3.2560014
  80.3009992  74.1559978   2.5350014  79.5975927  74.6672779   2.5221205
  89.3269992  57.2329978  19.8920014  89.4029992  56.8069978  20.7450014
  90.2199992  57.2459978  19.5490014  89.4582303  57.1763493  19.9625497
  92.5029992  73.3059978  18.5840014  91.7209992  73.1189978  18.0640014
  92.4309992  74.2349978  18.8010014  92.3861924  73.4060637  18.5421602
 106.9089992  67.1919978   8.6150014 106.9979992  68.1359978   8.4830014
 106.2709992  66.9169978   7.9570014 106.8349062  67.2839812   8.5079641
 105.8419992  66.4469978  12.0340014 105.8039992  65.8009978  12.7390014
 105.5199992  65.9799978  11.2630014 105.7932679  66.2954276  12.0262921
  98.2099992  66.0609978  13.6270014  98.2519992  65.4359978  14.3500014
  98.9129992  66.6849978  13.8090014  98.3107345  66.0597873  13.7505273
 109.5479992  69.3859978  10.3350014 109.1069992  68.6659978  10.7860014
 109.5349992  70.1069978  10.9650014 109.4859215  69.3849291  10.4818105
  99.1339992  70.5109978  12.1620014  98.7639992  69.7089978  11.7920014
 100.0749992  70.3429978  12.2080014  99.2105984  70.3784638  12.1175603
  95.7439992  64.1709978   7.5540014  95.2959992  65.0169978   7.5360014
  95.1829992  63.5919978   7.0390014  95.6068546  64.2083993   7.4818891
  96.4539992  66.3329978   9.6800014  96.6679992  65.5629978  10.2080014
  97.1919992  66.4229978   9.0770014  96.5830200  66.2398587   9.6707035
 106.6599992  74.4899978  10.5470014 107.2789992  73.8139978  10.2740014
 106.4509992  74.2719978  11.4560014 106.7166056  74.3678869  10.6323967
 104.2309992  68.8789978  12.4400014 104.5349992  68.1929978  11.8450014
 104.9529992  68.9979978  13.0580014 104.3701240  68.8012314  12.4420959
 112.8939992  60.4809978  13.3000014 112.9439992  61.0909978  14.0360014
 113.3199992  60.9419978  12.5770014 112.9584108  60.6267709  13.3030112
 107.3719992  63.2729978  12.7670014 107.5149992  62.3269978  12.7870014
 107.2659992  63.4799978  11.8390014 107.3772403  63.1714797  12.6442239
 100.5269992  61.3749978  10.0400014 100.5699992  62.2349978   9.6210014
 100.0689992  60.8229978   9.4060014 100.4709871  61.4179245   9.8970761
 108.2489992  61.5059978   8.4410014 108.8959992  61.1769978   9.0650014
 108.7589992  62.0229978   7.8180014 108.4064351  61.5309067   8.4421037
  97.1469992  63.7719978  10.8020014  97.8009992  63.2219978  11.2340014
  97.1709992  63.4979978   9.8850014  97.2397199  63.6597167  10.7371668
 102.3039992  65.3219978  10.0170014 102.9199992  64.7949978  10.5260014
 101.7169992  64.6819978   9.6130014 102.3090154  65.1633954  10.0320945
 113.2859992  61.9589978  15.5360014 112.5969992  62.6169978  15.4410014
 113.3009992  61.7609978  16.4730014 113.1937756  62.0222603  15.6495812
  99.3369992  60.2929978  14.1140014  99.1179992  60.8229978  13.3470014
  98.6689992  60.5189978  14.7610014  99.2166975  60.3960967  14.0965140
 106.7059992  69.7929978   7.6580014 106.4109992  69.4699978   6.8060014
 106.3819992  70.6929978   7.6990014 106.6218460  69.8704464   7.5469714
 101.9059992  67.9679978  14.4010014 101.1659992  68.5669978  14.5050014
 102.6199992  68.5219978  14.0860014 101.9013500  68.1247829  14.3726371
 110.0129992  60.7969978  10.4210014 109.7979992  60.0309978  10.9540014
 110.6689992  61.2689978  10.9340014 110.0722673  60.7560728  10.5631990
  98.9309992  62.1849978  12.0660014  99.5449992  62.8179978  12.4390014
  99.4429992  61.7129978  11.4100014  99.0841962  62.2077249  12.0282935
 100.3139992  69.9329978  15.1880014 100.3079992  70.8119978  14.8100014
  99.4599992  69.8489978  15.6130014 100.1977925  70.0419535  15.1936887
  96.4349992  69.6039978   5.9700014  96.1629992  69.8329978   5.0820014
  96.4799992  70.4409978   6.4310014  96.4038097  69.7486163   5.9106683
 110.0599992  71.2249978  12.6830014 109.1179992  71.2839978  12.8450014
 110.3359992  72.1309978  12.5460014 109.9685865  71.3555288  12.6866192
 110.3599992  59.5119978  14.1000014 109.6239992  60.1219978  14.0630014
 111.0439992  59.9269978  13.5740014 110.3515367  59.6517551  14.0238174
 103.3639992  57.5979978  11.5660014 103.2459992  56.6499978  11.5120014
 102.5089992  57.9309978  11.8390014 103.2322805  57.5132202  11.5955079
 108.3119992  73.0059978   9.3080014 108.7369992  72.2989978   8.8230014
 108.6289992  73.8079978   8.8910014 108.4130266  73.0175190   9.1852479
 109.4719992  70.9069978   7.8170014 109.2139992  70.2169978   7.2050014
 109.5429992  70.4639978   8.6620014 109.4463050  70.7526814   7.8475621
 111.1579992  69.4739978  16.2940014 111.2969992  68.8819978  15.5550014
 111.3249992  70.3469978  15.9380014 111.1996193  69.5108896  16.1446211
 105.6299992  66.4359978   6.0670014 104.9189992  66.9709978   5.7150014
 106.3209992  66.4909978   5.4070014 105.6260751  66.5166777   5.9295858
 105.6839992  64.8929978   3.1050014 106.3849992  64.9159978   3.7570014
 105.9859992  64.2649978   2.4490014 105.8208202  64.8112212   3.1055609
 112.9989992  65.8139978  14.3600014 112.3469992  66.5079978  14.4490014
 113.4649992  66.0239978  13.5500014 112.9725937  65.9375019  14.2627533
 109.0359992  66.6449978   7.0180014 108.3039992  66.8739978   7.5920014
 109.4829992  65.9319978   7.4730014 108.9963963  66.5798729   7.1579945
 108.9329992  64.8199978  16.0860014 109.0129992  65.5829978  16.6580014
 108.3319992  65.0989978  15.3960014 108.8626547  64.9622457  16.0710047
 100.6809992  67.2759978   8.9010014 100.3509992  66.9049978   8.0830014
 101.2699992  66.6049978   9.2480014 100.7153970  67.1346063   8.8359404
 102.0479992  70.7039978  11.5820014 101.9529992  70.1249978  10.8260014
 102.7769992  70.3329978  12.0780014 102.1336011  70.5745561  11.5456028
 101.0479992  66.0439978  12.5340014 101.6129992  66.1659978  11.7720014
 101.3669992  66.6819978  13.1730014 101.1684166  66.1468791  12.5160348
 107.3569992  71.5479978  13.2680014 107.1169992  72.2099978  13.9160014
 107.1589992  70.7129978  13.6930014 107.2973826  71.5258115  13.4141566
 101.9279992  70.4439978  17.2520014 101.6169992  71.2259978  17.7070014
 101.2779992  70.2909978  16.5660014 101.7975538  70.5304087  17.2215898
 107.9069992  65.8079978   4.7040014 108.4859992  65.9579978   5.4500014
 108.3209992  66.2779978   3.9800014 108.0423358  65.8920954   4.7083953
  98.8479992  66.6419978  16.4800014  98.9179992  67.2929978  17.1790014
  97.9569992  66.7449978  16.1450014  98.7371690  66.7449249  16.5303043
 105.6329992  72.5439978   8.1390014 106.1069992  72.8399978   8.9160014
 105.0699992  73.2829978   7.9060014 105.6217890  72.6843036   8.2138101
 100.1669992  72.5149978  18.0150014 100.1749992  72.3789978  17.0680014
  99.2509992  72.3979978  18.2670014 100.0442528  72.4805463  17.9193243
 111.6059992  57.5579978   4.5170014 110.7059992  57.6969978   4.8120014
 111.8579992  58.3889978   4.1150014 111.5168683  57.6894055   4.5030232
  99.6719992  66.3449978   6.4900014  99.3799992  67.1129978   5.9990014
  98.9969992  65.6859978   6.3270014  99.5408497  66.3609745   6.4008260
 112.7949992  71.9239978   2.8930014 112.8679992  72.8629978   3.0630014
 113.6999992  71.6189978   2.8370014 112.9274170  72.0113282   2.9087063
  95.7649992  68.7079978  15.3050014  95.2629992  68.6799978  14.4900014
  95.7699992  67.8029978  15.6150014  95.6969832  68.5817486  15.2354121
  95.5149992  71.4889978  12.1890014  96.4609992  71.3439978  12.1700014
  95.4019992  72.2729978  12.7260014  95.6293578  71.5751697  12.2590317
 113.7129992  72.1549978  17.8720014 113.6629992  71.1989978  17.8340014
 112.8859992  72.4219978  18.2730014 113.5943831  72.0604680  17.9210121
 104.6909992  71.7289978  16.7480014 104.7789992  72.5549978  17.2230014
 103.8279992  71.3989978  16.9970014 104.5863357  71.7975468  16.8467653
 105.1059992  75.5009978   6.5540014 105.0299992  75.3799978   5.6070014
 105.1379992  76.4499978   6.6720014 105.0999380  75.6127677   6.4405181
  98.7589992  74.2899978   8.3350014  98.9109992  73.9419978   9.2130014
  97.9079992  73.9329978   8.0790014  98.6648344  74.1940879   8.4206868
 108.2069992  74.6549978   3.5560014 108.5819992  73.9109978   3.0850014
 108.2119992  74.3849978   4.4740014 108.2590098  74.5166392   3.6156629
 107.8759992  74.5809978   6.3050014 106.9409992  74.6809978   6.4840014
 108.1559992  73.8709978   6.8840014 107.7859471  74.4987933   6.4076695
 110.8649992  63.6479978  18.3520014 110.4569992  64.1279978  17.6310014
 110.9049992  62.7419978  18.0440014 110.8146221  63.5912449  18.2118267
  98.0139992  70.0319978  16.3480014  98.2299992  69.6699978  17.2080014
  97.1579992  69.6569978  16.1390014  97.9278810  69.9318837  16.4372680
 100.6319992  58.5019978  12.3440014  99.7709992  58.4149978  11.9360014
 100.6099992  59.3579978  12.7720014 100.5110491  58.6058003  12.3459582
 105.2949992  58.2239978  15.7190014 105.7149992  57.8089978  16.4720014
 104.3619992  58.0449978  15.8360014 105.2263736  58.1429910  15.8378968
 108.6219992  61.9789978  16.5720014 108.1079992  61.8539978  17.3700014
 108.4659992  62.8919978  16.3280014 108.5306967  62.0852123  16.6480937
 109.3839992  66.8399978   2.3330014 109.4259992  66.6179978   1.4030014
 110.2329992  67.2389978   2.5230014 109.5045253  66.8635498   2.2313822
 104.9569992  60.7159978   3.0040014 104.7029992  60.7349978   3.9260014
 104.6999992  59.8449978   2.7020014 104.8874508  60.6008280   3.0894803
 100.7229992  63.4669978  13.4390014 100.0819992  63.4269978  14.1480014
 100.7609992  64.3939978  13.2010014 100.6403010  63.5867668  13.5039946
 100.7199992  63.6879978   8.3510014  99.8279992  63.3479978   8.2920014
 101.1709992  63.3109978   7.5950014 100.6587642  63.5904910   8.2407726
 106.2559992  64.1039978   7.1680014 105.8469992  64.9189978   6.8760014
 106.9759992  63.9639978   6.5540014 106.2974439  64.1965372   7.0450115
 105.3579992  64.2799978  18.6560014 104.7949992  63.5749978  18.9770014
 106.1839992  64.1589978  19.1240014 105.3926674  64.1672165  18.7631751
 107.2609992  63.5499978   9.9820014 107.0649992  64.1559978   9.2670014
 107.4419992  62.7169978   9.5480014 107.2586584  63.5202513   9.8254212
  98.4729992  63.7879978  15.3060014  98.4349992  64.1879978  16.1750014
  97.9829992  62.9709978  15.3960014  98.4015330  63.7322674  15.4371289
 101.8389992  61.1619978   2.1050014 101.4079992  60.7169978   2.8340014
 101.1209992  61.5329978   1.5920014 101.6829176  61.1512051   2.1354930
  95.0819992  60.9039978   9.1570014  95.7119992  60.8749978   9.8760014
  95.5309992  60.4789978   8.4260014  95.2290835  60.8425660   9.1567659
  96.3559992  61.6499978   4.5810014  96.8299992  62.2409978   3.9960014
  95.6379992  62.1799978   4.9280014  96.3238640  61.8025511   4.5477969
 106.5249992  65.1879978  14.6530014 106.8479992  64.5569978  14.0100014
 106.0839992  64.6539978  15.3140014 106.5096379  65.0293468  14.6542582
 103.3019992  61.1159978   9.4370014 102.3909992  61.1729978   9.7260014
 103.8069992  61.0559978  10.2480014 103.2456873  61.1156826   9.5861207
  98.1299992  62.7449978   8.2640014  97.2409992  62.8439978   7.9240014
  98.4269992  61.9029978   7.9180014  98.0484177  62.6447687   8.1706940
 101.7829992  62.7449978   5.9210014 102.7149992  62.8739978   6.0990014
 101.5679992  63.4139978   5.2710014 101.8814472  62.8530806   5.8574891
 107.7069992  60.3509978  12.7020014 107.0299992  60.4819978  13.3650014
 107.2219992  60.1959978  11.8910014 107.5487405  60.3479947  12.6832170
 100.4569992  63.9389978   3.4870014  99.9149992  63.5599978   2.7960014
 101.2909992  64.1339978   3.0590014 100.4954390  63.9134079   3.3344392
 110.9949992  76.0219978  18.9780014 111.1939992  76.4459978  18.1440014
 111.6499992  76.3659978  19.5850014 111.1108522  76.1266301  18.9457852
  98.5929992  68.4959978  18.5860014  99.3249992  68.7509978  19.1480014
  97.8119992  68.7009978  19.1020014  98.5876526  68.5585450  18.7325176
 104.6219992  63.9029978  11.3240014 105.1859992  63.3569978  10.7770014
 104.4739992  63.3819978  12.1130014 104.6793037  63.7576787  11.3557229
  99.6239992  60.0399978   7.7430014  99.3069992  59.1369978   7.7070014
 100.4049992  60.0419978   7.1900014  99.6862431  59.9167797   7.6633102
 103.2479992  62.2919978  13.7380014 102.4129992  62.7459978  13.8490014
 103.7719992  62.5679978  14.4900014 103.2046072  62.3913948  13.8548136
 103.7929992  68.5049978   5.4230014 103.0479992  67.9969978   5.1010014
 103.6579992  68.5539978   6.3690014 103.6728963  68.4421731   5.5068826
 110.9429992  67.6379978  14.2100014 111.5839992  68.0939978  13.6660014
 110.1119992  67.7509978  13.7470014 110.9185287  67.7156921  14.0729887
 107.6899992  61.3189978   3.6220014 106.7519992  61.4299978   3.4710014
 107.9879992  62.1749978   3.9290014 107.6016318  61.4500158   3.6428145
 105.3119992  68.6889978  16.6600014 104.9659992  68.3069978  17.4670014
 105.1119992  69.6219978  16.7310014 105.2375987  68.7629002  16.7800461
 108.4089992  63.1859978   5.2830014 109.3009992  63.0479978   5.6020014
 108.4649992  63.9769978   4.7460014 108.5387325  63.2739918   5.2541217
  98.9169992  67.7999978  11.1930014  99.6619992  67.7969978  10.5910014
  98.9949992  66.9759978  11.6740014  99.0293365  67.6882384  11.1757430
 105.9179992  69.9629978   4.4480014 105.6229992  70.7899978   4.8300014
 105.2149992  69.3439978   4.6450014 105.7826379  69.9924171   4.5268654
  95.9249992  66.2599978  16.5080014  96.1479992  65.8419978  17.3390014
  95.3229992  65.6479978  16.0850014  95.8741513  66.1199606  16.5646740
 102.9419992  65.7769978  18.7210014 102.6459992  65.6119978  17.8250014
 103.8729992  65.5569978  18.7100014 103.0274401  65.7246880  18.5970206
 107.5619992  71.1509978  16.6100014 106.6619992  71.3339978  16.3430014
 107.5959992  71.4099978  17.5310014 107.4433748  71.2110554  16.6979164
 113.2939992  63.3949978   4.9780014 112.7389992  62.9989978   4.3050014
 113.3939992  64.3059978   4.7000014 113.2316816  63.4639505   4.8485033
 113.2569992  69.1959978  17.8150014 112.4059992  69.4339978  17.4470014
 113.8469992  69.1789978  17.0620014 113.2203812  69.2262524  17.6628453
 111.5889992  72.1809978   5.4430014 111.2159992  71.3559978   5.7520014
 111.8659992  71.9979978   4.5450014 111.5753463  72.0432569   5.3639525
 108.7489992  66.9889978  12.4640014 107.8209992  66.7579978  12.4370014
 109.1999992  66.2119978  12.1340014 108.6828165  66.8522774  12.4156790
 101.2919992  71.3179978   8.5970014 101.8199992  72.0909978   8.3970014
 100.4119992  71.5419978   8.2950014 101.2453435  71.4542700   8.5287310
  97.0469992  66.1799978   3.1840014  97.6629992  66.8069978   3.5640014
  96.1849992  66.4959978   3.4560014  97.0147678  66.3084412   3.2727209
 102.7199992  68.9809978   8.1730014 102.4789992  69.9059978   8.2150014
 101.9789992  68.5219978   8.5700014 102.5869206  69.0455915   8.2323769
 103.2339992  73.1299978  14.4880014 103.5969992  73.9839978  14.2550014
 103.7659992  72.8379978  15.2290014 103.3555141  73.2073895  14.5562097
 101.4029992  74.0019978   7.7190014 100.4529992  74.1079978   7.7700014
 101.7549992  74.8229978   8.0630014 101.3205472  74.1274923   7.7724852
 106.7779992  69.2289978  14.1890014 106.3529992  69.0009978  15.0150014
 107.3589992  68.4899978  14.0070014 106.7983395  69.0979545  14.2774414
 108.9809992  70.1579978   3.2630014 109.3349992  69.7779978   4.0670014
 108.0329992  70.0639978   3.3500014 108.9012298  70.0932452   3.3848687
 109.4369992  73.7809978  16.6580014 108.8349992  73.2249978  16.1630014
 109.7179992  74.4479978  16.0320014 109.3925757  73.7950744  16.5055675
 113.4849992  74.6369978   3.4640014 114.2289992  75.2229978   3.3240014
 112.7909992  75.2059978   3.7970014 113.4929809  74.7940818   3.4898590
  97.5589992  61.0139978  16.0660014  96.6669992  61.3519978  15.9980014
  97.4609992  60.1579978  16.4840014  97.4234475  60.9446543  16.1131704
 109.8469992  68.8299978   5.4900014 109.5699992  68.1019978   6.0460014
 110.7749992  68.9489978   5.6950014 109.9344499  68.7464213   5.5938044
  97.2109992  72.8179978  14.5010014  97.4279992  71.8859978  14.4700014
  97.4569992  73.0929978  15.3840014  97.2739809  72.7275686  14.6161691
 103.0719992  71.2699978   1.7100014 103.3109992  70.5209978   1.1630014
 102.8029992  70.8819978   2.5430014 103.0683233  71.1151853   1.7477809
 102.0089992  70.8399978   4.1660014 102.1559992  70.3199978   4.9560014
 102.0059992  71.7469978   4.4730014 102.0287102  70.8913953   4.3155925
  98.4619992  68.0919978   4.6770014  97.7759992  68.4449978   5.2440014
  98.9849992  68.8549978   4.4300014  98.4388402  68.2433901   4.7211801
 106.2939992  60.7549978  14.9560014 106.9929992  60.8289978  15.6060014
 105.9129992  59.8899978  15.1100014 106.3382097  60.6482389  15.0657997
 107.0779992  60.4069978   6.0530014 107.2979992  60.8779978   5.2490014
 107.6369992  60.8009978   6.7230014 107.1836732  60.5247287   6.0335033
 104.7469992  72.5369978   4.9160014 103.9299992  73.0339978   4.9680014
 105.2759992  73.0129978   4.2750014 104.7068125  72.6691989   4.8365306
 104.2779992  62.1349978   6.8880014 105.0899992  62.6389978   6.9340014
 104.0339992  61.9899978   7.8020014 104.3561467  62.1843749   7.0178575
 104.8139992  63.1209978  16.0720014 104.9329992  63.6949978  16.8290014
 105.4689992  62.4329978  16.1870014 104.9188684  63.1065194  16.1911674
 105.1619992  59.2159978   7.8260014 104.8149992  59.8329978   8.4700014
 105.8209992  59.7169978   7.3440014 105.2035090  59.3681575   7.8490681
 102.0849992  73.5809978   4.8970014 102.2459992  74.3809978   4.3970014
 101.8879992  73.8879978   5.7820014 102.0803906  73.7318678   4.9482333
 100.8199992  60.2789978   4.5130014 100.7359992  61.1669978   4.8600014
 101.7099992  60.0139978   4.7450014 100.9288163  60.3647179   4.5918596
 111.0179992  61.0279978  16.9070014 110.1019992  61.2899978  16.8200014
 111.3539992  61.0249978  16.0110014 110.9378499  61.0635163  16.7738766
 109.6209992  64.7779978  11.0030014 108.8229992  64.3629978  10.6750014
 110.0659992  64.0879978  11.4940014 109.5719684  64.6278628  11.0245227
  99.0779992  70.7059978   3.5730014  99.6699992  71.4059978   3.8500014
  99.5369992  70.2729978   2.8540014  99.2211652  70.7432675   3.5136533
  97.3939992  63.3709978   2.6890014  97.3489992  64.3099978   2.8680014
  96.5059992  63.1349978   2.4200014  97.2678166  63.4676687   2.6771524
 110.7069992  74.0339978  12.6250014 110.5509992  74.7129978  11.9680014
 111.6399992  74.1059978  12.8280014 110.8117387  74.1366390  12.5625342
  98.2019992  58.1519978  11.3630014  97.9729992  58.2109978  10.4350014
  97.7599992  57.3609978  11.6690014  98.1108801  58.0530540  11.2774729
  97.1329992  72.0929978   7.5230014  96.2999992  72.5649978   7.5500014
  97.6779992  72.6029978   6.9240014  97.0927857  72.2264791   7.4457142
  96.4209992  74.7049978  18.8530014  96.9609992  74.4889978  19.6130014
  95.9399992  73.8999978  18.6630014  96.4299219  74.5665156  18.9314282
 101.0179992  73.6249978  20.4730014 101.7859992  73.1659978  20.8140014
 100.9969992  73.3989978  19.5430014 101.1202135  73.5316668  20.3939491
 105.1099992  73.1329978   1.8490014 104.4659992  72.5019978   2.1700014
 105.8719992  72.6019978   1.6170014 105.1248058  72.9747902   1.8616038
 107.5949992  72.0049978  19.2020014 107.2439992  71.1479978  19.4460014
 108.3209992  72.1469978  19.8090014 107.6451895  71.9071351  19.3173770
 109.7149992  72.9499978   2.0820014 109.9979992  72.1549978   2.5350014
 110.4539992  73.1829978   1.5210014 109.8537096  72.8727049   2.0681104
  96.3279992  68.5159978  19.8070014  96.4719992  67.6139978  19.5210014
  95.5559992  68.8019978  19.3200014  96.2432733  68.4311798  19.7019532
 100.6689992  68.8589978   1.9400014 100.7339992  68.0649978   2.4700014
 101.3219992  68.7409978   1.2500014 100.7661605  68.7343430   1.9192997
 102.9829992  68.4849978  19.2400014 102.6549992  68.7559978  18.3830014
 103.1349992  67.5439978  19.1520014 102.9586412  68.3949046  19.1107822
 106.0219992  69.9059978   1.6760014 105.7529992  70.0869978   2.5760014
 105.8149992  68.9809978   1.5440014 105.9571191  69.8057119   1.7815524
 108.7179992  68.4009978  16.6230014 109.4629992  68.9899978  16.5040014
 107.9609992  68.9829978  16.6870014 108.7175470  68.5602128  16.6153799
  97.1609992  65.7159978  19.2270014  97.5689992  64.8589978  19.1060014
  96.8999992  65.7299978  20.1480014  97.1816016  65.6005119  19.3349192
 101.8189992  66.8319978   4.2460014 101.3589992  66.3479978   4.9310014
 102.0739992  66.1629978   3.6100014 101.7904856  66.6753669   4.2538397
 101.1079992  64.7249978  16.6020014 100.4889992  65.3989978  16.8820014
 101.4519992  65.0459978  15.7680014 101.0697123  64.8606887  16.5276388
 102.8899992  65.0749978   2.5080014 102.7089992  64.9199978   1.5810014
 103.8399992  65.1829978   2.5530014 102.9936566  65.0683669   2.3870929
 106.1269992  67.1959978  19.8790014 107.0809992  67.2799978  19.8520014
 105.9669992  66.4839978  20.4990014 106.2357182  67.1112842  19.9590733
 112.2799992  67.4289978   1.9540014 112.0059992  67.0049978   1.1410014
 112.3189992  68.3609978   1.7370014 112.2477716  67.4968827   1.8134286
 101.4469992  62.0799978  17.6840014 101.5969992  61.3509978  17.0820014
 101.4489992  62.8569978  17.1250014 101.4677967  62.0852708  17.5260541
 101.8599992  60.4489978  15.1770014 102.3949992  60.9009978  14.5250014
 101.0069992  60.3409978  14.7540014 101.8180374  60.4962665  15.0306710
 103.4409992  65.8889978  15.4160014 104.1919992  65.7329978  14.8430014
 103.1019992  66.7409978  15.1410014 103.4979587  65.9828138  15.3004078
 107.8569992  63.7039978  20.4450014 108.0489992  62.7729978  20.3330014
 108.7149992  64.1289978  20.4340014 107.9992182  63.6340070  20.4281862
 109.1739992  66.4929978  18.5220014 108.8919992  67.2019978  17.9440014
 110.1159992  66.4199978  18.3710014 109.2627921  66.5802193  18.4224225
  99.9259992  63.2779978  19.5950014  99.1579992  62.7449978  19.3850014
 100.6039992  62.9679978  18.9960014  99.9127235  63.1631754  19.4852413
 102.6649992  57.9059978  15.6080014 102.5669992  58.8519978  15.5030014
 101.9229992  57.5329978  15.1320014 102.5512534  57.9851773  15.5292600
 103.9289992  62.2269978  19.1720014 103.6939992  62.0079978  20.0730014
 103.1459992  62.0199978  18.6620014 103.7909095  62.1689892  19.2265353
 106.6449992  61.3549978  18.2470014 105.6969992  61.3869978  18.3790014
 106.9569992  60.7289978  18.9010014 106.5575293  61.2747923  18.3534148
 108.2789992  59.9889978  20.2520014 108.1819992  59.0369978  20.2470014
 107.9569992  60.2569978  21.1130014 108.2222468  59.8950884  20.3676210
  98.1059992  61.1979978  19.3000014  98.3179992  60.4919978  18.6900014
  97.9949992  60.7609978  20.1440014  98.1200269  61.0421921  19.3305873
 102.8869992  57.1999978  18.2790014 103.5989992  56.5599978  18.2650014
 102.7859992  57.4659978  17.3660014 102.9707387  57.1484330  18.1535563
 103.2409992  58.8819978  20.3330014 103.1089992  58.4069978  19.5130014
 102.6409992  59.6269978  20.2780014 103.1419070  58.9175789  20.2133251
 102.7869992  75.7649978   3.5090014 103.7199992  75.9229978   3.6530014
 102.5229992  76.4409978   2.8840014 102.8789911  75.8779373   3.4442722
  96.3549992  70.4019978   2.9920014  97.2689992  70.4809978   3.2650014
  96.3629992  69.7149978   2.3260014  96.4810655  70.3199205   2.9392917
  95.0039992  75.7949978   8.0690014  94.3569992  75.3329978   7.5370014
  95.3589992  75.1229978   8.6520014  94.9633741  75.6409774   8.0749175
  95.8739992  73.8749978   9.8740014  95.5399992  72.9949978  10.0460014
  96.0969992  74.2209978  10.7390014  95.8583721  73.8011938  10.0144168
 113.4229992  74.6849978  12.8550014 113.4009992  74.8699978  13.7940014
 114.1129992  75.2529978  12.5140014 113.5133439  74.7871887  12.9374791
 112.9859992  74.2519978  15.7760014 112.4989992  73.5169978  15.4050014
 113.5349992  73.8579978  16.4540014 112.9935247  74.0981057  15.8168461
 111.4369992  70.0419978  20.4150014 110.5709992  69.9369978  20.8090014
 111.8129992  70.7999978  20.8610014 111.3693401  70.1301708  20.5292620
 112.7379992  68.2979978   5.9290014 113.5879992  68.7189978   6.0560014
 112.7429992  67.5579978   6.5360014 112.8551143  68.2556094   6.0284750
 113.1319992  66.3519978   7.7520014 112.4059992  65.8719978   8.1500014
 113.7139992  66.5569978   8.4850014 113.1112730  66.3140184   7.9054149
 112.8909992  69.1369978  12.7000014 113.7249992  68.7589978  12.4190014
 113.0029992  70.0799978  12.5810014 113.0201917  69.2127943  12.6454861
 111.3779992  72.0149978  15.0070014 110.7299992  72.3399978  15.6320014
 110.8599992  71.5739978  14.3330014 111.2194196  71.9998651  15.0014152
 113.4009992  66.2529978   4.1430014 112.8789992  66.6089978   3.4250014
 113.3679992  66.9279978   4.8220014 113.3250129  66.3929598   4.1363355
 111.7499992  63.4919978   2.6940014 111.8459992  64.1589978   2.0140014
 111.6099992  62.6769978   2.2130014 111.7442040  63.4730671   2.5358378
 110.9189992  64.8729978   8.3150014 110.7689992  63.9279978   8.2950014
 110.5649992  65.1539978   9.1590014 110.8506351  64.7816644   8.4263220
  95.9539992  66.9509978  12.3260014  96.1389992  66.8689978  11.3900014
  96.8039992  66.8269978  12.7490014  96.0940928  66.9230463  12.2552893
 111.7749992  66.8429978  17.9540014 112.3579992  66.1079978  18.1460014
 112.3389992  67.6149978  18.0010014 111.9309781  66.8468145  17.9866164
 113.2719992  64.7459978  18.6390014 112.4089992  64.3669978  18.4730014
 113.8759992  64.0069978  18.5640014 113.2356085  64.5943223  18.6061695
 110.9969992  60.8999978   1.8120014 111.6079992  60.5289978   2.4490014
 110.1599992  60.4789978   2.0080014 110.9674947  60.7922756   1.9257252
 110.6299992  62.4549978   6.7780014 110.9089992  61.5479978   6.9020014
 111.3889992  62.8889978   6.3890014 110.7708619  62.3894502   6.7423795
 111.2409992  63.0369978  12.2140014 112.1739992  63.2489978  12.1790014
 111.0059992  63.1379978  13.1360014 111.3369517  63.0796833  12.3339130
 111.2709992  63.7739978  14.9900014 110.4279992  64.0419978  15.3560014
 111.7129992  64.5959978  14.7790014 111.2154138  63.9218273  15.0115518
  95.5519992  62.2209978  18.4660014  96.4709992  62.0989978  18.7030014
  95.1019992  61.4709978  18.8560014  95.6170087  62.1029608  18.5511410
 113.5539992  57.7539978  20.3430014 113.9029992  57.0999978  19.7380014
 113.7009992  58.5909978  19.9030014 113.6216824  57.7776024  20.2006304
 111.2429992  59.7179978   6.8260014 111.4249992  59.2689978   7.6510014
 110.6429992  59.1339978   6.3620014 111.1868187  59.5775552   6.8762739
  96.7729992  60.5339978  11.3580014  97.2179992  59.7419978  11.6600014
  97.2389992  61.2499978  11.7880014  96.8969718  60.5224534  11.4575265
  95.0769992  63.5329978  12.4270014  95.5689992  63.3119978  11.6360014
  95.4389992  64.3729978  12.7080014  95.1932923  63.6163468  12.3567407
 113.0729992  59.8629978  18.6920014 112.1559992  60.1339978  18.6570014
 113.1959992  59.3279978  17.9080014 112.9639672  59.8277885  18.5811862
 113.1099992  59.7859978   3.3540014 113.5219992  59.0649978   2.8790014
 113.7909992  60.4549978   3.4120014 113.2585536  59.7777766   3.2968024
  95.3909992  59.7909978   6.4810014  94.4659992  59.9989978   6.3520014
  95.8449992  60.2749978   5.7910014  95.3256298  59.8849299   6.3700451
 110.1609992  74.7749978   8.4270014 110.8139992  74.4269978   7.8190014
 110.6719992  75.2629978   9.0730014 110.3192777  74.7933815   8.4312047
  95.3539992  58.5289978  14.8250014  94.6889992  58.2829978  15.4680014
  94.9109992  59.1509978  14.2480014  95.2031168  58.5794214  14.8349848
  97.5459992  71.7039978  18.9700014  96.7249992  71.8789978  18.5090014
  97.2939992  71.6309978  19.8900014  97.3995594  71.7180717  19.0313611
 100.4999992  72.6779978  15.2280014 100.0759992  73.4879978  14.9460014
 101.4049992  72.7639978  14.9260014 100.5642138  72.8004160  15.1486415
 104.8119992  74.0769978  18.1880014 104.9959992  73.7439978  19.0660014
 105.6579992  74.3869978  17.8660014 104.9516484  74.0732979  18.2647617
 107.1569992  75.3629978  17.4320014 107.8339992  74.7299978  17.1920014
 107.4779992  75.7639978  18.2390014 107.2931323  75.3305691  17.5083158
 112.0739992  57.9529978  16.5110014 111.2609992  58.2779978  16.1240014
 112.3069992  57.1919978  15.9780014 111.9941347  57.8946880  16.3859841
  97.9019992  75.9349978  15.2760014  97.1819992  76.3749978  14.8250014
  97.5369992  75.6839978  16.1240014  97.7539643  75.9613369  15.3289129
 100.3689992  75.5349978  14.3060014  99.5049992  75.6069978  14.7100014
 100.3139992  76.0819978  13.5220014 100.2431942  75.6187849  14.2554000
 105.0799992  75.4229978  13.4810014 104.6229992  75.9519978  12.8270014
 105.2429992  76.0259978  14.2060014 105.0394960  75.5769280  13.4895274
 107.4079992  74.3009978  14.4260014 106.5029992  74.4659978  14.1600014
 107.8359992  75.1539978  14.3600014 107.3421537  74.4389134  14.3807095
 110.0119992  75.8709978  14.7210014 109.8299992  76.7869978  14.5100014
 110.1889992  75.4599978  13.8740014 110.0110030  75.9408273  14.5777166
  97.3169992  74.5579978  12.1860014  97.2989992  74.1319978  13.0430014
  98.1219992  74.2389978  11.7770014  97.4232875  74.4566435  12.2479515
  99.4579992  73.2679978  10.8410014  99.2389992  72.3509978  11.0110014
 100.2819992  73.4079978  11.3070014  99.5394702  73.1615511  10.9272527
 101.9949992  73.7379978  11.6900014 102.2079992  72.8499978  11.4030014
 102.0599992  73.7029978  12.6440014 102.0329149  73.6118326  11.7797369
 105.5039992  59.4019978  10.8340014 104.8299992  58.7719978  11.0900014
 106.0679992  58.9179978  10.2310014 105.4880384  59.2503708  10.7875020
 110.6469992  57.5089978  10.9470014 111.2499992  58.0569978  10.4450014
 109.7769992  57.8279978  10.7060014 110.6119157  57.6270373  10.8457910
 112.3739992  58.6479978   9.2800014 112.9849992  58.1339978   8.7530014
 112.7559992  59.5249978   9.3030014 112.5093305  58.6962050   9.2109418
  97.8309992  58.0359978   8.6560014  97.0539992  57.8009978   8.1490014
  98.3609992  57.2389978   8.6650014  97.7963451  57.8961268   8.5878627
  96.6669992  57.8339978   4.4600014  97.1059992  58.4449978   3.8680014
  96.0329992  58.3719978   4.9340014  96.6413859  57.9904064   4.4430305
 102.4099992  57.9619978   8.4690014 103.2839992  58.3509978   8.4400014
 102.2739992  57.7469978   9.3920014 102.5111953  57.9861643   8.5897617
 107.9669992  57.9919978  10.1190014 108.0429992  58.0879978   9.1690014
 107.6919992  57.0849978  10.2470014 107.9401871  57.8824146  10.0063944
 109.3199992  58.0179978   5.8110014 108.6169992  58.6329978   5.6010014
 108.8749992  57.1809978   5.9420014 109.1636550  57.9889668   5.7999837
  96.5679992  73.7819978   5.3570014  95.8829992  73.7439978   4.6900014
  96.5719992  74.6949978   5.6450014  96.4747621  73.9001924   5.3046126
  98.5279992  59.7499978   2.9020014  99.0189992  59.1199978   2.3750014
  99.1509992  60.0459978   3.5650014  98.6795304  59.7037376   2.9194940
 103.5539992  60.0429978   5.3590014 103.7319992  59.3959978   6.0420014
 103.4999992  60.8769978   5.8260014 103.5710678  60.0671604   5.5156301
 105.4319992  74.9909978   3.7550014 106.2979992  75.3579978   3.5770014
 105.1859992  74.5519978   2.9410014 105.5172097  74.9818525   3.6206019
 112.1409992  74.5539978   6.4340014 111.9469992  73.8059978   5.8690014
 112.1019992  75.3119978   5.8510014 112.1091645  74.5540786   6.2778148
  97.7879992  58.5499978  18.1740014  97.4219992  57.7839978  18.6160014
  98.7009992  58.5789978  18.4600014  97.8613172  58.4490324  18.2731890
  99.7609992  57.8999978  19.7090014 100.6599992  57.6259978  19.5250014
  99.3749992  57.1579978  20.1740014  99.8317307  57.7622196  19.7467098
  98.3859992  74.7019978   2.3820014  98.1179992  74.9879978   3.2560014
  99.1569992  74.1559978   2.5350014  98.4535926  74.6672779   2.5221205
 108.1829992  57.2329978  19.8920014 108.2589992  56.8069978  20.7450014
 109.0759992  57.2459978  19.5490014 108.3142303  57.1763493  19.9625497
 111.3589992  73.3059978  18.5840014 110.5769992  73.1189978  18.0640014
 111.2869992  74.2349978  18.8010014 111.2421924  73.4060637  18.5421602
 125.7649992  67.1919978   8.6150014 125.8539992  68.1359978   8.4830014
 125.1269992  66.9169978   7.9570014 125.6909062  67.2839812   8.5079641
 124.6979992  66.4469978  12.0340014 124.6599992  65.8009978  12.7390014
 124.3759992  65.9799978  11.2630014 124.6492679  66.2954276  12.0262921
 117.0659992  66.0609978  13.6270014 117.1079992  65.4359978  14.3500014
 117.7689992  66.6849978  13.8090014 117.1667345  66.0597873  13.7505274
 128.4039992  69.3859978  10.3350014 127.9629992  68.6659978  10.7860014
 128.3909992  70.1069978  10.9650014 128.3419215  69.3849291  10.4818105
 117.9899992  70.5109978  12.1620014 117.6199992  69.7089978  11.7920014
 118.9309992  70.3429978  12.2080014 118.0665984  70.3784638  12.1175603
 114.5999992  64.1709978   7.5540014 114.1519992  65.0169978   7.5360014
 114.0389992  63.5919978   7.0390014 114.4628546  64.2083993   7.4818891
 115.3099992  66.3329978   9.6800014 115.5239992  65.5629978  10.2080014
 116.0479992  66.4229978   9.0770014 115.4390200  66.2398587   9.6707035
 125.5159992  74.4899978  10.5470014 126.1349992  73.8139978  10.2740014
 125.3069992  74.2719978  11.4560014 125.5726056  74.3678869  10.6323967
 123.0869992  68.8789978  12.4400014 123.3909992  68.1929978  11.8450014
 123.8089992  68.9979978  13.0580014 123.2261240  68.8012314  12.4420959
 131.7499992  60.4809978  13.3000014 131.7999992  61.0909978  14.0360014
 132.1759992  60.9419978  12.5770014 131.8144108  60.6267709  13.3030112
 126.2279992  63.2729978  12.7670014 126.3709992  62.3269978  12.7870014
 126.1219992  63.4799978  11.8390014 126.2332403  63.1714797  12.6442239
 119.3829992  61.3749978  10.0400014 119.4259992  62.2349978   9.6210014
 118.9249992  60.8229978   9.4060014 119.3269871  61.4179245   9.8970761
 127.1049992  61.5059978   8.4410014 127.7519992  61.1769978   9.0650014
 127.6149992  62.0229978   7.8180014 127.2624351  61.5309067   8.4421037
 116.0029992  63.7719978  10.8020014 116.6569992  63.2219978  11.2340014
 116.0269992  63.4979978   9.8850014 116.0957199  63.6597167  10.7371668
 121.1599992  65.3219978  10.0170014 121.7759992  64.7949978  10.5260014
 120.5729992  64.6819978   9.6130014 121.1650154  65.1633954  10.0320945
 132.1419992  61.9589978  15.5360014 131.4529992  62.6169978  15.4410014
 132.1569992  61.7609978  16.4730014 132.0497756  62.0222603  15.6495812
 118.1929992  60.2929978  14.1140014 117.9739992  60.8229978  13.3470014
 117.5249992  60.5189978  14.7610014 118.0726975  60.3960967  14.0965140
 125.5619992  69.7929978   7.6580014 125.2669992  69.4699978   6.8060014
 125.2379992  70.6929978   7.6990014 125.4778460  69.8704464   7.5469714
 120.7619992  67.9679978  14.4010014 120.0219992  68.5669978  14.5050014
 121.4759992  68.5219978  14.0860014 120.7573500  68.1247829  14.3726371
 128.8689992  60.7969978  10.4210014 128.6539992  60.0309978  10.9540014
 129.5249992  61.2689978  10.9340014 128.9282673  60.7560728  10.5631990
 117.7869992  62.1849978  12.0660014 118.4009992  62.8179978  12.4390014
 118.2989992  61.7129978  11.4100014 117.9401962  62.2077249  12.0282935
 119.1699992  69.9329978  15.1880014 119.1639992  70.8119978  14.8100014
 118.3159992  69.8489978  15.6130014 119.0537925  70.0419535  15.1936887
 115.2909992  69.6039978   5.9700014 115.0189992  69.8329978   5.0820014
 115.3359992  70.4409978   6.4310014 115.2598097  69.7486163   5.9106683
 128.9159992  71.2249978  12.6830014 127.9739992  71.2839978  12.8450014
 129.1919992  72.1309978  12.5460014 128.8245865  71.3555288  12.6866192
 129.2159992  59.5119978  14.1000014 128.4799992  60.1219978  14.0630014
 129.8999992  59.9269978  13.5740014 129.2075367  59.6517551  14.0238174
 122.2199992  57.5979978  11.5660014 122.1019992  56.6499978  11.5120014
 121.3649992  57.9309978  11.8390014 122.0882805  57.5132202  11.5955079
 127.1679992  73.0059978   9.3080014 127.5929992  72.2989978   8.8230014
 127.4849992  73.8079978   8.8910014 127.2690266  73.0175190   9.1852479
 128.3279992  70.9069978   7.8170014 128.0699992  70.2169978   7.2050014
 128.3989992  70.4639978   8.6620014 128.3023050  70.7526814   7.8475621
 130.0139992  69.4739978  16.2940014 130.1529992  68.8819978  15.5550014
 130.1809992  70.3469978  15.9380014 130.0556193  69.5108896  16.1446211
 124.4859992  66.4359978   6.0670014 123.7749992  66.9709978   5.7150014
 125.1769992  66.4909978   5.4070014 124.4820751  66.5166777   5.9295858
 124.5399992  64.8929978   3.1050014 125.2409992  64.9159978   3.7570014
 124.8419992  64.2649978   2.4490014 124.6768202  64.8112212   3.1055609
 131.8549992  65.8139978  14.3600014 131.2029992  66.5079978  14.4490014
 132.3209992  66.0239978  13.5500014 131.8285937  65.9375019  14.2627533
 127.8919992  66.6449978   7.0180014 127.1599992  66.8739978   7.5920014
 128.3389992  65.9319978   7.4730014 127.8523963  66.5798729   7.1579945
 127.7889992  64.8199978  16.0860014 127.8689992  65.5829978  16.6580014
 127.1879992  65.0989978  15.3960014 127.7186547  64.9622457  16.0710047
 119.5369992  67.2759978   8.9010014 119.2069992  66.9049978   8.0830014
 120.1259992  66.6049978   9.2480014 119.5713970  67.1346063   8.8359404
 120.9039992  70.7039978  11.5820014 120.8089992  70.1249978  10.8260014
 121.6329992  70.3329978  12.0780014 120.9896011  70.5745561  11.5456028
 119.9039992  66.0439978  12.5340014 120.4689992  66.1659978  11.7720014
 120.2229992  66.6819978  13.1730014 120.0244166  66.1468791  12.5160348
 126.2129992  71.5479978  13.2680014 125.9729992  72.2099978  13.9160014
 126.0149992  70.7129978  13.6930014 126.1533826  71.5258115  13.4141566
 120.7839992  70.4439978  17.2520014 120.4729992  71.2259978  17.7070014
 120.1339992  70.2909978  16.5660014 120.6535538  70.5304087  17.2215898
 126.7629992  65.8079978   4.7040014 127.3419992  65.9579978   5.4500014
 127.1769992  66.2779978   3.9800014 126.8983358  65.8920954   4.7083953
 117.7039992  66.6419978  16.4800014 117.7739992  67.2929978  17.1790014
 116.8129992  66.7449978  16.1450014 117.5931690  66.7449249  16.5303043
 124.4889992  72.5439978   8.1390014 124.9629992  72.8399978   8.9160014
 123.9259992  73.2829978   7.9060014 124.4777890  72.6843036   8.2138101
 119.0229992  72.5149978  18.0150014 119.0309992  72.3789978  17.0680014
 118.1069992  72.3979978  18.2670014 118.9002528  72.4805463  17.9193243
 130.4619992  57.5579978   4.5170014 129.5619992  57.6969978   4.8120014
 130.7139992  58.3889978   4.1150014 130.3728683  57.6894055   4.5030232
 118.5279992  66.3449978   6.4900014 118.2359992  67.1129978   5.9990014
 117.8529992  65.6859978   6.3270014 118.3968497  66.3609745   6.4008260
 131.6509992  71.9239978   2.8930014 131.7239992  72.8629978   3.0630014
 132.5559992  71.6189978   2.8370014 131.7834170  72.0113282   2.9087063
 114.6209992  68.7079978  15.3050014 114.1189992  68.6799978  14.4900014
 114.6259992  67.8029978  15.6150014 114.5529832  68.5817486  15.2354121
 114.3709992  71.4889978  12.1890014 115.3169992  71.3439978  12.1700014
 114.2579992  72.2729978  12.7260014 114.4853578  71.5751697  12.2590317
 132.5689992  72.1549978  17.8720014 132.5189992  71.1989978  17.8340014
 131.7419992  72.4219978  18.2730014 132.4503831  72.0604680  17.9210121
 123.5469992  71.7289978  16.7480014 123.6349992  72.5549978  17.2230014
 122.6839992  71.3989978  16.9970014 123.4423357  71.7975468  16.8467653
 123.9619992  75.5009978   6.5540014 123.8859992  75.3799978   5.6070014
 123.9939992  76.4499978   6.6720014 123.9559380  75.6127677   6.4405181
 117.6149992  74.2899978   8.3350014 117.7669992  73.9419978   9.2130014
 116.7639992  73.9329978   8.0790014 117.5208344  74.1940879   8.4206868
 127.0629992  74.6549978   3.5560014 127.4379992  73.9109978   3.0850014
 127.0679992  74.3849978   4.4740014 127.1150098  74.5166392   3.6156629
 126.7319992  74.5809978   6.3050014 125.7969992  74.6809978   6.4840014
 127.0119992  73.8709978   6.8840014 126.6419471  74.4987933   6.4076695
 129.7209992  63.6479978  18.3520014 129.3129992  64.1279978  17.6310014
 129.7609992  62.7419978  18.0440014 129.6706221  63.5912449  18.2118267
 116.8699992  70.0319978  16.3480014 117.0859992  69.6699978  17.2080014
 116.0139992  69.6569978  16.1390014 116.7838810  69.9318837  16.4372680
 119.4879992  58.5019978  12.3440014 118.6269992  58.4149978  11.9360014
 119.4659992  59.3579978  12.7720014 119.3670491  58.6058003  12.3459582
 124.1509992  58.2239978  15.7190014 124.5709992  57.8089978  16.4720014
 123.2179992  58.0449978  15.8360014 124.0823736  58.1429910  15.8378968
 127.4779992  61.9789978  16.5720014 126.9639992  61.8539978  17.3700014
 127.3219992  62.8919978  16.3280014 127.3866967  62.0852123  16.6480937
 128.2399992  66.8399978   2.3330014 128.2819992  66.6179978   1.4030014
 129.0889992  67.2389978   2.5230014 128.3605253  66.8635498   2.2313822
 123.8129992  60.7159978   3.0040014 123.5589992  60.7349978   3.9260014
 123.5559992  59.8449978   2.7020014 123.7434508  60.6008280   3.0894803
 119.5789992  63.4669978  13.4390014 118.9379992  63.4269978  14.1480014
 119.6169992  64.3939978  13.2010014 119.4963010  63.5867668  13.5039946
 119.5759992  63.6879978   8.3510014 118.6839992  63.3479978   8.2920014
 120.0269992  63.3109978   7.5950014 119.5147642  63.5904910   8.2407726
 125.1119992  64.1039978   7.1680014 124.7029992  64.9189978   6.8760014
 125.8319992  63.9639978   6.5540014 125.1534439  64.1965372   7.0450115
 124.2139992  64.2799978  18.6560014 123.6509992  63.5749978  18.9770014
 125.0399992  64.1589978  19.1240014 124.2486674  64.1672165  18.7631751
 126.1169992  63.5499978   9.9820014 125.9209992  64.1559978   9.2670014
 126.2979992  62.7169978   9.5480014 126.1146584  63.5202513   9.8254212
 117.3289992  63.7879978  15.3060014 117.2909992  64.1879978  16.1750014
 116.8389992  62.9709978  15.3960014 117.2575330  63.7322674  15.4371289
 120.6949992  61.1619978   2.1050014 120.2639992  60.7169978   2.8340014
 119.9769992  61.5329978   1.5920014 120.5389176  61.1512051   2.1354930
 113.9379992  60.9039978   9.1570014 114.5679992  60.8749978   9.8760014
 114.3869992  60.4789978   8.4260014 114.0850835  60.8425660   9.1567659
 115.2119992  61.6499978   4.5810014 115.6859992  62.2409978   3.9960014
 114.4939992  62.1799978   4.9280014 115.1798640  61.8025511   4.5477969
 125.3809992  65.1879978  14.6530014 125.7039992  64.5569978  14.0100014
 124.9399992  64.6539978  15.3140014 125.3656379  65.0293468  14.6542582
 122.1579992  61.1159978   9.4370014 121.2469992  61.1729978   9.7260014
 122.6629992  61.0559978  10.2480014 122.1016873  61.1156826   9.5861207
 116.9859992  62.7449978   8.2640014 116.0969992  62.8439978   7.9240014
 117.2829992  61.9029978   7.9180014 116.9044177  62.6447687   8.1706940
 120.6389992  62.7449978   5.9210014 121.5709992  62.8739978   6.0990014
 120.4239992  63.4139978   5.2710014 120.7374472  62.8530806   5.8574891
 126.5629992  60.3509978  12.7020014 125.8859992  60.4819978  13.3650014
 126.0779992  60.1959978  11.8910014 126.4047405  60.3479947  12.6832170
 119.3129992  63.9389978   3.4870014 118.7709992  63.5599978   2.7960014
 120.1469992  64.1339978   3.0590014 119.3514390  63.9134079   3.3344392
 129.8509992  76.0219978  18.9780014 130.0499992  76.4459978  18.1440014
 130.5059992  76.3659978  19.5850014 129.9668522  76.1266301  18.9457852
 117.4489992  68.4959978  18.5860014 118.1809992  68.7509978  19.1480014
 116.6679992  68.7009978  19.1020014 117.4436526  68.5585450  18.7325176
 123.4779992  63.9029978  11.3240014 124.0419992  63.3569978  10.7770014
 123.3299992  63.3819978  12.1130014 123.5353037  63.7576787  11.3557229
 118.4799992  60.0399978   7.7430014 118.1629992  59.1369978   7.7070014
 119.2609992  60.0419978   7.1900014 118.5422431  59.9167797   7.6633102
 122.1039992  62.2919978  13.7380014 121.2689992  62.7459978  13.8490014
 122.6279992  62.5679978  14.4900014 122.0606072  62.3913948  13.8548136
 122.6489992  68.5049978   5.4230014 121.9039992  67.9969978   5.1010014
 122.5139992  68.5539978   6.3690014 122.5288963  68.4421731   5.5068826
 129.7989992  67.6379978  14.2100014 130.4399992  68.0939978  13.6660014
 128.9679992  67.7509978  13.7470014 129.7745287  67.7156921  14.0729887
 126.5459992  61.3189978   3.6220014 125.6079992  61.4299978   3.4710014
 126.8439992  62.1749978   3.9290014 126.4576318  61.4500158   3.6428145
 124.1679992  68.6889978  16.6600014 123.8219992  68.3069978  17.4670014
 123.9679992  69.6219978  16.7310014 124.0935987  68.7629002  16.7800461
 127.2649992  63.1859978   5.2830014 128.1569992  63.0479978   5.6020014
 127.3209992  63.9769978   4.7460014 127.3947325  63.2739918   5.2541217
 117.7729992  67.7999978  11.1930014 118.5179992  67.7969978  10.5910014
 117.8509992  66.9759978  11.6740014 117.8853365  67.6882384  11.1757430
 124.7739992  69.9629978   4.4480014 124.4789992  70.7899978   4.8300014
 124.0709992  69.3439978   4.6450014 124.6386379  69.9924171   4.5268654
 114.7809992  66.2599978  16.5080014 115.0039992  65.8419978  17.3390014
 114.1789992  65.6479978  16.0850014 114.7301513  66.1199606  16.5646740
 121.7979992  65.7769978  18.7210014 121.5019992  65.6119978  17.8250014
 122.7289992  65.5569978  18.7100014 121.8834401  65.7246879  18.5970206
 126.4179992  71.1509978  16.6100014 125.5179992  71.3339978  16.3430014
 126.4519992  71.4099978  17.5310014 126.2993748  71.2110554  16.6979164
 132.1499992  63.3949978   4.9780014 131.5949992  62.9989978   4.3050014
 132.2499992  64.3059978   4.7000014 132.0876816  63.4639505   4.8485033
 132.1129992  69.1959978  17.8150014 131.2619992  69.4339978  17.4470014
 132.7029992  69.1789978  17.0620014 132.0763812  69.2262524  17.6628453
 130.4449992  72.1809978   5.4430014 130.0719992  71.3559978   5.7520014
 130.7219992  71.9979978   4.5450014 130.4313463  72.0432569   5.3639525
 127.6049992  66.9889978  12.4640014 126.6769992  66.7579978  12.4370014
 128.0559992  66.2119978  12.1340014 127.5388165  66.8522774  12.4156790
 120.1479992  71.3179978   8.5970014 120.6759992  72.0909978   8.3970014
 119.2679992  71.5419978   8.2950014 120.1013435  71.4542700   8.5287310
 115.9029992  66.1799978   3.1840014 116.5189992  66.8069978   3.5640014
 115.0409992  66.4959978   3.4560014 115.8707678  66.3084412   3.2727209
 121.5759992  68.9809978   8.1730014 121.3349992  69.9059978   8.2150014
 120.8349992  68.5219978   8.5700014 121.4429206  69.0455915   8.2323769
 122.0899992  73.1299978  14.4880014 122.4529992  73.9839978  14.2550014
 122.6219992  72.8379978  15.2290014 122.2115141  73.2073895  14.5562097
 120.2589992  74.0019978   7.7190014 119.3089992  74.1079978   7.7700014
 120.6109992  74.8229978   8.0630014 120.1765472  74.1274923   7.7724852
 125.6339992  69.2289978  14.1890014 125.2089992  69.0009978  15.0150014
 126.2149992  68.4899978  14.0070014 125.6543395  69.0979545  14.2774414
 127.8369992  70.1579978   3.2630014 128.1909992  69.7779978   4.0670014
 126.8889992  70.0639978   3.3500014 127.7572298  70.0932452   3.3848687
 128.2929992  73.7809978  16.6580014 127.6909992  73.2249978  16.1630014
 128.5739992  74.4479978  16.0320014 128.2485757  73.7950744  16.5055675
 132.3409992  74.6369978   3.4640014 133.0849992  75.2229978   3.3240014
 131.6469992  75.2059978   3.7970014 132.3489809  74.7940818   3.4898590
 116.4149992  61.0139978  16.0660014 115.5229992  61.3519978  15.9980014
 116.3169992  60.1579978  16.4840014 116.2794475  60.9446543  16.1131704
 128.7029992  68.8299978   5.4900014 128.4259992  68.1019978   6.0460014
 129.6309992  68.9489978   5.6950014 128.7904499  68.7464213   5.5938044
 116.0669992  72.8179978  14.5010014 116.2839992  71.8859978  14.4700014
 116.3129992  73.0929978  15.3840014 116.1299809  72.7275686  14.6161691
 121.9279992  71.2699978   1.7100014 122.1669992  70.5209978   1.1630014
 121.6589992  70.8819978   2.5430014 121.9243233  71.1151853   1.7477809
 120.8649992  70.8399978   4.1660014 121.0119992  70.3199978   4.9560014
 120.8619992  71.7469978   4.4730014 120.8847102  70.8913953   4.3155925
 117.3179992  68.0919978   4.6770014 116.6319992  68.4449978   5.2440014
 117.8409992  68.8549978   4.4300014 117.2948402  68.2433901   4.7211801
 125.1499992  60.7549978  14.9560014 125.8489992  60.8289978  15.6060014
 124.7689992  59.8899978  15.1100014 125.1942097  60.6482389  15.0657997
 125.9339992  60.4069978   6.0530014 126.1539992  60.8779978   5.2490014
 126.4929992  60.8009978   6.7230014 126.0396731  60.5247287   6.0335033
 123.6029992  72.5369978   4.9160014 122.7859992  73.0339978   4.9680014
 124.1319992  73.0129978   4.2750014 123.5628125  72.6691989   4.8365306
 123.1339992  62.1349978   6.8880014 123.9459992  62.6389978   6.9340014
 122.8899992  61.9899978   7.8020014 123.2121467  62.1843749   7.0178575
 123.6699992  63.1209978  16.0720014 123.7889992  63.6949978  16.8290014
 124.3249992  62.4329978  16.1870014 123.7748684  63.1065194  16.1911674
 124.0179992  59.2159978   7.8260014 123.6709992  59.8329978   8.4700014
 124.6769992  59.7169978   7.3440014 124.0595090  59.3681575   7.8490681
 120.9409992  73.5809978   4.8970014 121.1019992  74.3809978   4.3970014
 120.7439992  73.8879978   5.7820014 120.9363906  73.7318678   4.9482333
 119.6759992  60.2789978   4.5130014 119.5919992  61.1669978   4.8600014
 120.5659992  60.0139978   4.7450014 119.7848163  60.3647179   4.5918596
 129.8739992  61.0279978  16.9070014 128.9579992  61.2899978  16.8200014
 130.2099992  61.0249978  16.0110014 129.7938499  61.0635163  16.7738766
 128.4769992  64.7779978  11.0030014 127.6789992  64.3629978  10.6750014
 128.9219992  64.0879978  11.4940014 128.4279684  64.6278628  11.0245227
 117.9339992  70.7059978   3.5730014 118.5259992  71.4059978   3.8500014
 118.3929992  70.2729978   2.8540014 118.0771652  70.7432675   3.5136533
 116.2499992  63.3709978   2.6890014 116.2049992  64.3099978   2.8680014
 115.3619992  63.1349978   2.4200014 116.1238166  63.4676687   2.6771524
 129.5629992  74.0339978  12.6250014 129.4069992  74.7129978  11.9680014
 130.4959992  74.1059978  12.8280014 129.6677387  74.1366390  12.5625342
 117.0579992  58.1519978  11.3630014 116.8289992  58.2109978  10.4350014
 116.6159992  57.3609978  11.6690014 116.9668801  58.0530540  11.2774729
 115.9889992  72.0929978   7.5230014 115.1559992  72.5649978   7.5500014
 116.5339992  72.6029978   6.9240014 115.9487857  72.2264791   7.4457142
 115.2769992  74.7049978  18.8530014 115.8169992  74.4889978  19.6130014
 114.7959992  73.8999978  18.6630014 115.2859219  74.5665156  18.9314282
 119.8739992  73.6249978  20.4730014 120.6419992  73.1659978  20.8140014
 119.8529992  73.3989978  19.5430014 119.9762135  73.5316668  20.3939491
 123.9659992  73.1329978   1.8490014 123.3219992  72.5019978   2.1700014
 124.7279992  72.6019978   1.6170014 123.9808058  72.9747902   1.8616038
 126.4509992  72.0049978  19.2020014 126.0999992  71.1479978  19.4460014
 127.1769992  72.1469978  19.8090014 126.5011895  71.9071351  19.3173770
 128.5709992  72.9499978   2.0820014 128.8539992  72.1549978   2.5350014
 129.3099992  73.1829978   1.5210014 128.7097096  72.8727049   2.0681104
 115.1839992  68.5159978  19.8070014 115.3279992  67.6139978  19.5210014
 114.4119992  68.8019978  19.3200014 115.0992733  68.4311798  19.7019532
 119.5249992  68.8589978   1.9400014 119.5899992  68.0649978   2.4700014
 120.1779992  68.7409978   1.2500014 119.6221605  68.7343430   1.9192997
 121.8389992  68.4849978  19.2400014 121.5109992  68.7559978  18.3830014
 121.9909992  67.5439978  19.1520014 121.8146412  68.3949046  19.1107822
 124.8779992  69.9059978   1.6760014 124.6089992  70.0869978   2.5760014
 124.6709992  68.9809978   1.5440014 124.8131191  69.8057119   1.7815524
 127.5739992  68.4009978  16.6230014 128.3189992  68.9899978  16.5040014
 126.8169992  68.9829978  16.6870014 127.5735470  68.5602128  16.6153799
 116.0169992  65.7159978  19.2270014 116.4249992  64.8589978  19.1060014
 115.7559992  65.7299978  20.1480014 116.0376016  65.6005119  19.3349192
 120.6749992  66.8319978   4.2460014 120.2149992  66.3479978   4.9310014
 120.9299992  66.1629978   3.6100014 120.6464856  66.6753669   4.2538397
 119.9639992  64.7249978  16.6020014 119.3449992  65.3989978  16.8820014
 120.3079992  65.0459978  15.7680014 119.9257123  64.8606887  16.5276388
 121.7459992  65.0749978   2.5080014 121.5649992  64.9199978   1.5810014
 122.6959992  65.1829978   2.5530014 121.8496566  65.0683669   2.3870929
 124.9829992  67.1959978  19.8790014 125.9369992  67.2799978  19.8520014
 124.8229992  66.4839978  20.4990014 125.0917182  67.1112842  19.9590733
 131.1359992  67.4289978   1.9540014 130.8619992  67.0049978   1.1410014
 131.1749992  68.3609978   1.7370014 131.1037716  67.4968827   1.8134286
 120.3029992  62.0799978  17.6840014 120.4529992  61.3509978  17.0820014
 120.3049992  62.8569978  17.1250014 120.3237967  62.0852708  17.5260541
 120.7159992  60.4489978  15.1770014 121.2509992  60.9009978  14.5250014
 119.8629992  60.3409978  14.7540014 120.6740374  60.4962665  15.0306710
 122.2969992  65.8889978  15.4160014 123.0479992  65.7329978  14.8430014
 121.9579992  66.7409978  15.1410014 122.3539587  65.9828138  15.3004078
 126.7129992  63.7039978  20.4450014 126.9049992  62.7729978  20.3330014
 127.5709992  64.1289978  20.4340014 126.8552182  63.6340070  20.4281862
 128.0299992  66.4929978  18.5220014 127.7479992  67.2019978  17.9440014
 128.9719992  66.4199978  18.3710014 128.1187921  66.5802193  18.4224225
 118.7819992  63.2779978  19.5950014 118.0139992  62.7449978  19.3850014
 119.4599992  62.9679978  18.9960014 118.7687235  63.1631754  19.4852413
 121.5209992  57.9059978  15.6080014 121.4229992  58.8519978  15.5030014
 120.7789992  57.5329978  15.1320014 121.4072534  57.9851773  15.5292600
 122.7849992  62.2269978  19.1720014 122.5499992  62.0079978  20.0730014
 122.0019992  62.0199978  18.6620014 122.6469095  62.1689892  19.2265353
 125.5009992  61.3549978  18.2470014 124.5529992  61.3869978  18.3790014
 125.8129992  60.7289978  18.9010014 125.4135293  61.2747923  18.3534148
 127.1349992  59.9889978  20.2520014 127.0379992  59.0369978  20.2470014
 126.8129992  60.2569978  21.1130014 127.0782468  59.8950884  20.3676210
 116.9619992  61.1979978  19.3000014 117.1739992  60.4919978  18.6900014
 116.8509992  60.7609978  20.1440014 116.9760269  61.0421921  19.3305873
 121.7429992  57.1999978  18.2790014 122.4549992  56.5599978  18.2650014
 121.6419992  57.4659978  17.3660014 121.8267387  57.1484330  18.1535563
 122.0969992  58.8819978  20.3330014 121.9649992  58.4069978  19.5130014
 121.4969992  59.6269978  20.2780014 121.9979070  58.9175789  20.2133251
 121.6429992  75.7649978   3.5090014 122.5759992  75.9229978   3.6530014
 121.3789992  76.4409978   2.8840014 121.7349911  75.8779373   3.4442722
 115.2109992  70.4019978   2.9920014 116.1249992  70.4809978   3.2650014
 115.2189992  69.7149978   2.3260014 115.3370655  70.3199205   2.9392917
 113.8599992  75.7949978   8.0690014 113.2129992  75.3329978   7.5370014
 114.2149992  75.1229978   8.6520014 113.8193741  75.6409774   8.0749175
 114.7299992  73.8749978   9.8740014 114.3959992  72.9949978  10.0460014
 114.9529992  74.2209978  10.7390014 114.7143721  73.8011938  10.0144168
 132.2789992  74.6849978  12.8550014 132.2569992  74.8699978  13.7940014
 132.9689992  75.2529978  12.5140014 132.3693439  74.7871887  12.9374791
 131.8419992  74.2519978  15.7760014 131.3549992  73.5169978  15.4050014
 132.3909992  73.8579978  16.4540014 131.8495247  74.0981057  15.8168461
 130.2929992  70.0419978  20.4150014 129.4269992  69.9369978  20.8090014
 130.6689992  70.7999978  20.8610014 130.2253401  70.1301708  20.5292620
 131.5939992  68.2979978   5.9290014 132.4439992  68.7189978   6.0560014
 131.5989992  67.5579978   6.5360014 131.7111143  68.2556094   6.0284750
 131.9879992  66.3519978   7.7520014 131.2619992  65.8719978   8.1500014
 132.5699992  66.5569978   8.4850014 131.9672730  66.3140184   7.9054149
 131.7469992  69.1369978  12.7000014 132.5809992  68.7589978  12.4190014
 131.8589992  70.0799978  12.5810014 131.8761917  69.2127943  12.6454861
 130.2339992  72.0149978  15.0070014 129.5859992  72.3399978  15.6320014
 129.7159992  71.5739978  14.3330014 130.0754196  71.9998651  15.0014152
 132.2569992  66.2529978   4.1430014 131.7349992  66.6089978   3.4250014
 132.2239992  66.9279978   4.8220014 132.1810129  66.3929598   4.1363355
 130.6059992  63.4919978   2.6940014 130.7019992  64.1589978   2.0140014
 130.4659992  62.6769978   2.2130014 130.6002040  63.4730671   2.5358378
 129.7749992  64.8729978   8.3150014 129.6249992  63.9279978   8.2950014
 129.4209992  65.1539978   9.1590014 129.7066351  64.7816644   8.4263220
 114.8099992  66.9509978  12.3260014 114.9949992  66.8689978  11.3900014
 115.6599992  66.8269978  12.7490014 114.9500928  66.9230463  12.2552893
 130.6309992  66.8429978  17.9540014 131.2139992  66.1079978  18.1460014
 131.1949992  67.6149978  18.0010014 130.7869781  66.8468145  17.9866164
 132.1279992  64.7459978  18.6390014 131.2649992  64.3669978  18.4730014
 132.7319992  64.0069978  18.5640014 132.0916085  64.5943223  18.6061695
 129.8529992  60.8999978   1.8120014 130.4639992  60.5289978   2.4490014
 129.0159992  60.4789978   2.0080014 129.8234947  60.7922756   1.9257252
 129.4859992  62.4549978   6.7780014 129.7649992  61.5479978   6.9020014
 130.2449992  62.8889978   6.3890014 129.6268619  62.3894502   6.7423795
 130.0969992  63.0369978  12.2140014 131.0299992  63.2489978  12.1790014
 129.8619992  63.1379978  13.1360014 130.1929517  63.0796833  12.3339130
 130.1269992  63.7739978  14.9900014 129.2839992  64.0419978  15.3560014
 130.5689992  64.5959978  14.7790014 130.0714138  63.9218273  15.0115518
 114.4079992  62.2209978  18.4660014 115.3269992  62.0989978  18.7030014
 113.9579992  61.4709978  18.8560014 114.4730087  62.1029608  18.5511410
 132.4099992  57.7539978  20.3430014 132.7589992  57.0999978  19.7380014
 132.5569992  58.5909978  19.9030014 132.4776824  57.7776024  20.2006304
 130.0989992  59.7179978   6.8260014 130.2809992  59.2689978   7.6510014
 129.4989992  59.1339978   6.3620014 130.0428187  59.5775552   6.8762739
 115.6289992  60.5339978  11.3580014 116.0739992  59.7419978  11.6600014
 116.0949992  61.2499978  11.7880014 115.7529718  60.5224534  11.4575265
 113.9329992  63.5329978  12.4270014 114.4249992  63.3119978  11.6360014
 114.2949992  64.3729978  12.7080014 114.0492923  63.6163468  12.3567407
 131.9289992  59.8629978  18.6920014 131.0119992  60.1339978  18.6570014
 132.0519992  59.3279978  17.9080014 131.8199672  59.8277885  18.5811862
 131.9659992  59.7859978   3.3540014 132.3779992  59.0649978   2.8790014
 132.6469992  60.4549978   3.4120014 132.1145536  59.7777766   3.2968024
 114.2469992  59.7909978   6.4810014 113.3219992  59.9989978   6.3520014
 114.7009992  60.2749978   5.7910014 114.1816298  59.8849299   6.3700451
 129.0169992  74.7749978   8.4270014 129.6699992  74.4269978   7.8190014
 129.5279992  75.2629978   9.0730014 129.1752777  74.7933815   8.4312047
 114.2099992  58.5289978  14.8250014 113.5449992  58.2829978  15.4680014
 113.7669992  59.1509978  14.2480014 114.0591168  58.5794214  14.8349848
 116.4019992  71.7039978  18.9700014 115.5809992  71.8789978  18.5090014
 116.1499992  71.6309978  19.8900014 116.2555594  71.7180717  19.0313611
 119.3559992  72.6779978  15.2280014 118.9319992  73.4879978  14.9460014
 120.2609992  72.7639978  14.9260014 119.4202138  72.8004160  15.1486415
 123.6679992  74.0769978  18.1880014 123.8519992  73.7439978  19.0660014
 124.5139992  74.3869978  17.8660014 123.8076484  74.0732979  18.2647617
 126.0129992  75.3629978  17.4320014 126.6899992  74.7299978  17.1920014
 126.3339992  75.7639978  18.2390014 126.1491323  75.3305691  17.5083158
 130.9299992  57.9529978  16.5110014 130.1169992  58.2779978  16.1240014
 131.1629992  57.1919978  15.9780014 130.8501347  57.8946880  16.3859841
 116.7579992  75.9349978  15.2760014 116.0379992  76.3749978  14.8250014
 116.3929992  75.6839978  16.1240014 116.6099643  75.9613369  15.3289129
 119.2249992  75.5349978  14.3060014 118.3609992  75.6069978  14.7100014
 119.1699992  76.0819978  13.5220014 119.0991942  75.6187849  14.2554000
 123.9359992  75.4229978  13.4810014 123.4789992  75.9519978  12.8270014
 124.0989992  76.0259978  14.2060014 123.8954960  75.5769280  13.4895274
 126.2639992  74.3009978  14.4260014 125.3589992  74.4659978  14.1600014
 126.6919992  75.1539978  14.3600014 126.1981537  74.4389134  14.3807095
 128.8679992  75.8709978  14.7210014 128.6859992  76.7869978  14.5100014
 129.0449992  75.4599978  13.8740014 128.8670030  75.9408273  14.5777166
 116.1729992  74.5579978  12.1860014 116.1549992  74.1319978  13.0430014
 116.9779992  74.2389978  11.7770014 116.2792875  74.4566435  12.2479515
 118.3139992  73.2679978  10.8410014 118.0949992  72.3509978  11.0110014
 119.1379992  73.4079978  11.3070014 118.3954702  73.1615511  10.9272527
 120.8509992  73.7379978  11.6900014 121.0639992  72.8499978  11.4030014
 120.9159992  73.7029978  12.6440014 120.8889149  73.6118326  11.7797369
 124.3599992  59.4019978  10.8340014 123.6859992  58.7719978  11.0900014
 124.9239992  58.9179978  10.2310014 124.3440384  59.2503708  10.7875020
 129.5029992  57.5089978  10.9470014 130.1059992  58.0569978  10.4450014
 128.6329992  57.8279978  10.7060014 129.4679157  57.6270373  10.8457910
 131.2299992  58.6479978   9.2800014 131.8409992  58.1339978   8.7530014
 131.6119992  59.5249978   9.3030014 131.3653305  58.6962050   9.2109418
 116.6869992  58.0359978   8.6560014 115.9099992  57.8009978   8.1490014
 117.2169992  57.2389978   8.6650014 116.6523451  57.8961268   8.5878627
 115.5229992  57.8339978   4.4600014 115.9619992  58.4449978   3.8680014
 114.8889992  58.3719978   4.9340014 115.4973859  57.9904064   4.4430305
 121.2659992  57.9619978   8.4690014 122.1399992  58.3509978   8.4400014
 121.1299992  57.7469978   9.3920014 121.3671953  57.9861643   8.5897617
 126.8229992  57.9919978  10.1190014 126.8989992  58.0879978   9.1690014
 126.5479992  57.0849978  10.2470014 126.7961871  57.8824146  10.0063944
 128.1759992  58.0179978   5.8110014 127.4729992  58.6329978   5.6010014
 127.7309992  57.1809978   5.9420014 128.0196550  57.9889668   5.7999837
 115.4239992  73.7819978   5.3570014 114.7389992  73.7439978   4.6900014
 115.4279992  74.6949978   5.6450014 115.3307621  73.9001924   5.3046126
 117.3839992  59.7499978   2.9020014 117.8749992  59.1199978   2.3750014
 118.0069992  60.0459978   3.5650014 117.5355304  59.7037376   2.9194940
 122.4099992  60.0429978   5.3590014 122.5879992  59.3959978   6.0420014
 122.3559992  60.8769978   5.8260014 122.4270678  60.0671604   5.5156301
 124.2879992  74.9909978   3.7550014 125.1539992  75.3579978   3.5770014
 124.0419992  74.5519978   2.9410014 124.3732097  74.9818525   3.6206019
 130.9969992  74.5539978   6.4340014 130.8029992  73.8059978   5.8690014
 130.9579992  75.3119978   5.8510014 130.9651645  74.5540786   6.2778148
 116.6439992  58.5499978  18.1740014 116.2779992  57.7839978  18.6160014
 117.5569992  58.5789978  18.4600014 116.7173172  58.4490324  18.2731890
 118.6169992  57.8999978  19.7090014 119.5159992  57.6259978  19.5250014
 118.2309992  57.1579978  20.1740014 118.6877307  57.7622196  19.7467098
 117.2419992  74.7019978   2.3820014 116.9739992  74.9879978   3.2560014
 118.0129992  74.1559978   2.5350014 117.3095927  74.6672779   2.5221205
 127.0389992  57.2329978  19.8920014 127.1149992  56.8069978  20.7450014
 127.9319992  57.2459978  19.5490014 127.1702303  57.1763493  19.9625497
 130.2149992  73.3059978  18.5840014 129.4329992  73.1189978  18.0640014
 130.1429992  74.2349978  18.8010014 130.0981924  73.4060637  18.5421602
 144.6209992  67.1919978   8.6150014 144.7099992  68.1359978   8.4830014
 143.9829992  66.9169978   7.9570014 144.5469062  67.2839812   8.5079641
 143.5539992  66.4469978  12.0340014 143.5159992  65.8009978  12.7390014
 143.2319992  65.9799978  11.2630014 143.5052679  66.2954276  12.0262921
 135.9219992  66.0609978  13.6270014 135.9639992  65.4359978  14.3500014
 136.6249992  66.6849978  13.8090014 136.0227345  66.0597873  13.7505274
 136.8459992  70.5109978  12.1620014 136.4759992  69.7089978  11.7920014
 137.7869992  70.3429978  12.2080014 136.9225984  70.3784638  12.1175603
 133.4559992  64.1709978   7.5540014 133.0079992  65.0169978   7.5360014
 132.8949992  63.5919978   7.0390014 133.3188546  64.2083993   7.4818891
 134.1659992  66.3329978   9.6800014 134.3799992  65.5629978  10.2080014
 134.9039992  66.4229978   9.0770014 134.2950200  66.2398587   9.6707035
 144.3719992  74.4899978  10.5470014 144.9909992  73.8139978  10.2740014
 144.1629992  74.2719978  11.4560014 144.4286056  74.3678869  10.6323967
 141.9429992  68.8789978  12.4400014 142.2469992  68.1929978  11.8450014
 142.6649992  68.9979978  13.0580014 142.0821240  68.8012314  12.4420959
 145.0839992  63.2729978  12.7670014 145.2269992  62.3269978  12.7870014
 144.9779992  63.4799978  11.8390014 145.0892403  63.1714797  12.6442239
 138.2389992  61.3749978  10.0400014 138.2819992  62.2349978   9.6210014
 137.7809992  60.8229978   9.4060014 138.1829871  61.4179245   9.8970761
 134.8589992  63.7719978  10.8020014 135.5129992  63.2219978  11.2340014
 134.8829992  63.4979978   9.8850014 134.9517199  63.6597167  10.7371668
 140.0159992  65.3219978  10.0170014 140.6319992  64.7949978  10.5260014
 139.4289992  64.6819978   9.6130014 140.0210154  65.1633954  10.0320945
 137.0489992  60.2929978  14.1140014 136.8299992  60.8229978  13.3470014
 136.3809992  60.5189978  14.7610014 136.9286975  60.3960967  14.0965140
 144.4179992  69.7929978   7.6580014 144.1229992  69.4699978   6.8060014
 144.0939992  70.6929978   7.6990014 144.3338460  69.8704464   7.5469714
 139.6179992  67.9679978  14.4010014 138.8779992  68.5669978  14.5050014
 140.3319992  68.5219978  14.0860014 139.6133500  68.1247829  14.3726371
 136.6429992  62.1849978  12.0660014 137.2569992  62.8179978  12.4390014
 137.1549992  61.7129978  11.4100014 136.7961962  62.2077249  12.0282935
 138.0259992  69.9329978  15.1880014 138.0199992  70.8119978  14.8100014
 137.1719992  69.8489978  15.6130014 137.9097925  70.0419535  15.1936887
 134.1469992  69.6039978   5.9700014 133.8749992  69.8329978   5.0820014
 134.1919992  70.4409978   6.4310014 134.1158097  69.7486163   5.9106683
 141.0759992  57.5979978  11.5660014 140.9579992  56.6499978  11.5120014
 140.2209992  57.9309978  11.8390014 140.9442805  57.5132202  11.5955079
 143.3419992  66.4359978   6.0670014 142.6309992  66.9709978   5.7150014
 144.0329992  66.4909978   5.4070014 143.3380751  66.5166777   5.9295858
 143.3959992  64.8929978   3.1050014 144.0969992  64.9159978   3.7570014
 143.6979992  64.2649978   2.4490014 143.5328202  64.8112212   3.1055609
 138.3929992  67.2759978   8.9010014 138.0629992  66.9049978   8.0830014
 138.9819992  66.6049978   9.2480014 138.4273970  67.1346063   8.8359404
 139.7599992  70.7039978  11.5820014 139.6649992  70.1249978  10.8260014
 140.4889992  70.3329978  12.0780014 139.8456011  70.5745561  11.5456028
 138.7599992  66.0439978  12.5340014 139.3249992  66.1659978  11.7720014
 139.0789992  66.6819978  13.1730014 138.8804166  66.1468791  12.5160348
 145.0689992  71.5479978  13.2680014 144.8289992  72.2099978  13.9160014
 144.8709992  70.7129978  13.6930014 145.0093826  71.5258115  13.4141566
 139.6399992  70.4439978  17.2520014 139.3289992  71.2259978  17.7070014
 138.9899992  70.2909978  16.5660014 139.5095538  70.5304087  17.2215898
 136.5599992  66.6419978  16.4800014 136.6299992  67.2929978  17.1790014
 135.6689992  66.7449978  16.1450014 136.4491690  66.7449249  16.5303043
 143.3449992  72.5439978   8.1390014 143.8189992  72.8399978   8.9160014
 142.7819992  73.2829978   7.9060014 143.3337890  72.6843036   8.2138101
 137.8789992  72.5149978  18.0150014 137.8869992  72.3789978  17.0680014
 136.9629992  72.3979978  18.2670014 137.7562528  72.4805463  17.9193243
 137.3839992  66.3449978   6.4900014 137.0919992  67.1129978   5.9990014
 136.7089992  65.6859978   6.3270014 137.2528497  66.3609745   6.4008260
 133.4769992  68.7079978  15.3050014 132.9749992  68.6799978  14.4900014
 133.4819992  67.8029978  15.6150014 133.4089832  68.5817486  15.2354121
 133.2269992  71.4889978  12.1890014 134.1729992  71.3439978  12.1700014
 133.1139992  72.2729978  12.7260014 133.3413578  71.5751697  12.2590317
 142.4029992  71.7289978  16.7480014 142.4909992  72.5549978  17.2230014
 141.5399992  71.3989978  16.9970014 142.2983357  71.7975468  16.8467653
 142.8179992  75.5009978   6.5540014 142.7419992  75.3799978   5.6070014
 142.8499992  76.4499978   6.6720014 142.8119380  75.6127677   6.4405181
 136.4709992  74.2899978   8.3350014 136.6229992  73.9419978   9.2130014
 135.6199992  73.9329978   8.0790014 136.3768344  74.1940879   8.4206868
 135.7259992  70.0319978  16.3480014 135.9419992  69.6699978  17.2080014
 134.8699992  69.6569978  16.1390014 135.6398810  69.9318837  16.4372680
 138.3439992  58.5019978  12.3440014 137.4829992  58.4149978  11.9360014
 138.3219992  59.3579978  12.7720014 138.2230491  58.6058003  12.3459582
 143.0069992  58.2239978  15.7190014 143.4269992  57.8089978  16.4720014
 142.0739992  58.0449978  15.8360014 142.9383736  58.1429910  15.8378968
 142.6689992  60.7159978   3.0040014 142.4149992  60.7349978   3.9260014
 142.4119992  59.8449978   2.7020014 142.5994508  60.6008280   3.0894803
 138.4349992  63.4669978  13.4390014 137.7939992  63.4269978  14.1480014
 138.4729992  64.3939978  13.2010014 138.3523010  63.5867668  13.5039946
 138.4319992  63.6879978   8.3510014 137.5399992  63.3479978   8.2920014
 138.8829992  63.3109978   7.5950014 138.3707642  63.5904910   8.2407726
 143.9679992  64.1039978   7.1680014 143.5589992  64.9189978   6.8760014
 144.6879992  63.9639978   6.5540014 144.0094439  64.1965372   7.0450115
 143.0699992  64.2799978  18.6560014 142.5069992  63.5749978  18.9770014
 143.8959992  64.1589978  19.1240014 143.1046674  64.1672165  18.7631751
 144.9729992  63.5499978   9.9820014 144.7769992  64.1559978   9.2670014
 145.1539992  62.7169978   9.5480014 144.9706584  63.5202513   9.8254212
 136.1849992  63.7879978  15.3060014 136.1469992  64.1879978  16.1750014
 135.6949992  62.9709978  15.3960014 136.1135330  63.7322674  15.4371289
 139.5509992  61.1619978   2.1050014 139.1199992  60.7169978   2.8340014
 138.8329992  61.5329978   1.5920014 139.3949176  61.1512051   2.1354930
 132.7939992  60.9039978   9.1570014 133.4239992  60.8749978   9.8760014
 133.2429992  60.4789978   8.4260014 132.9410835  60.8425660   9.1567659
 134.0679992  61.6499978   4.5810014 134.5419992  62.2409978   3.9960014
 133.3499992  62.1799978   4.9280014 134.0358640  61.8025511   4.5477969
 144.2369992  65.1879978  14.6530014 144.5599992  64.5569978  14.0100014
 143.7959992  64.6539978  15.3140014 144.2216379  65.0293468  14.6542582
 141.0139992  61.1159978   9.4370014 140.1029992  61.1729978   9.7260014
 141.5189992  61.0559978  10.2480014 140.9576873  61.1156826   9.5861207
 135.8419992  62.7449978   8.2640014 134.9529992  62.8439978   7.9240014
 136.1389992  61.9029978   7.9180014 135.7604177  62.6447687   8.1706940
 139.4949992  62.7449978   5.9210014 140.4269992  62.8739978   6.0990014
 139.2799992  63.4139978   5.2710014 139.5934472  62.8530806   5.8574891
 145.4189992  60.3509978  12.7020014 144.7419992  60.4819978  13.3650014
 144.9339992  60.1959978  11.8910014 145.2607405  60.3479947  12.6832170
 138.1689992  63.9389978   3.4870014 137.6269992  63.5599978   2.7960014
 139.0029992  64.1339978   3.0590014 138.2074390  63.9134079   3.3344392
 136.3049992  68.4959978  18.5860014 137.0369992  68.7509978  19.1480014
 135.5239992  68.7009978  19.1020014 136.2996526  68.5585450  18.7325176
 142.3339992  63.9029978  11.3240014 142.8979992  63.3569978  10.7770014
 142.1859992  63.3819978  12.1130014 142.3913037  63.7576787  11.3557229
 137.3359992  60.0399978   7.7430014 137.0189992  59.1369978   7.7070014
 138.1169992  60.0419978   7.1900014 137.3982431  59.9167797   7.6633102
 140.9599992  62.2919978  13.7380014 140.1249992  62.7459978  13.8490014
 141.4839992  62.5679978  14.4900014 140.9166072  62.3913948  13.8548136
 141.5049992  68.5049978   5.4230014 140.7599992  67.9969978   5.1010014
 141.3699992  68.5539978   6.3690014 141.3848963  68.4421731   5.5068826
 145.4019992  61.3189978   3.6220014 144.4639992  61.4299978   3.4710014
 145.6999992  62.1749978   3.9290014 145.3136318  61.4500158   3.6428145
 143.0239992  68.6889978  16.6600014 142.6779992  68.3069978  17.4670014
 142.8239992  69.6219978  16.7310014 142.9495987  68.7629002  16.7800461
 136.6289992  67.7999978  11.1930014 137.3739992  67.7969978  10.5910014
 136.7069992  66.9759978  11.6740014 136.7413365  67.6882384  11.1757430
 143.6299992  69.9629978   4.4480014 143.3349992  70.7899978   4.8300014
 142.9269992  69.3439978   4.6450014 143.4946379  69.9924171   4.5268654
 133.6369992  66.2599978  16.5080014 133.8599992  65.8419978  17.3390014
 133.0349992  65.6479978  16.0850014 133.5861513  66.1199606  16.5646740
 140.6539992  65.7769978  18.7210014 140.3579992  65.6119978  17.8250014
 141.5849992  65.5569978  18.7100014 140.7394401  65.7246879  18.5970206
 145.2739992  71.1509978  16.6100014 144.3739992  71.3339978  16.3430014
 145.3079992  71.4099978  17.5310014 145.1553748  71.2110554  16.6979164
 139.0039992  71.3179978   8.5970014 139.5319992  72.0909978   8.3970014
 138.1239992  71.5419978   8.2950014 138.9573435  71.4542700   8.5287310
 134.7589992  66.1799978   3.1840014 135.3749992  66.8069978   3.5640014
 133.8969992  66.4959978   3.4560014 134.7267678  66.3084412   3.2727209
 140.4319992  68.9809978   8.1730014 140.1909992  69.9059978   8.2150014
 139.6909992  68.5219978   8.5700014 140.2989206  69.0455915   8.2323769
 140.9459992  73.1299978  14.4880014 141.3089992  73.9839978  14.2550014
 141.4779992  72.8379978  15.2290014 141.0675141  73.2073895  14.5562097
 139.1149992  74.0019978   7.7190014 138.1649992  74.1079978   7.7700014
 139.4669992  74.8229978   8.0630014 139.0325472  74.1274923   7.7724852
 144.4899992  69.2289978  14.1890014 144.0649992  69.0009978  15.0150014
 145.0709992  68.4899978  14.0070014 144.5103395  69.0979545  14.2774414
 135.2709992  61.0139978  16.0660014 134.3789992  61.3519978  15.9980014
 135.1729992  60.1579978  16.4840014 135.1354475  60.9446543  16.1131704
 134.9229992  72.8179978  14.5010014 135.1399992  71.8859978  14.4700014
 135.1689992  73.0929978  15.3840014 134.9859809  72.7275686  14.6161691
 140.7839992  71.2699978   1.7100014 141.0229992  70.5209978   1.1630014
 140.5149992  70.8819978   2.5430014 140.7803233  71.1151853   1.7477809
 139.7209992  70.8399978   4.1660014 139.8679992  70.3199978   4.9560014
 139.7179992  71.7469978   4.4730014 139.7407102  70.8913953   4.3155925
 136.1739992  68.0919978   4.6770014 135.4879992  68.4449978   5.2440014
 136.6969992  68.8549978   4.4300014 136.1508402  68.2433901   4.7211801
 144.0059992  60.7549978  14.9560014 144.7049992  60.8289978  15.6060014
 143.6249992  59.8899978  15.1100014 144.0502097  60.6482389  15.0657997
 144.7899992  60.4069978   6.0530014 145.0099992  60.8779978   5.2490014
 145.3489992  60.8009978   6.7230014 144.8956731  60.5247287   6.0335033
 142.4589992  72.5369978   4.9160014 141.6419992  73.0339978   4.9680014
 142.9879992  73.0129978   4.2750014 142.4188125  72.6691989   4.8365306
 141.9899992  62.1349978   6.8880014 142.8019992  62.6389978   6.9340014
 141.7459992  61.9899978   7.8020014 142.0681467  62.1843749   7.0178575
 142.5259992  63.1209978  16.0720014 142.6449992  63.6949978  16.8290014
 143.1809992  62.4329978  16.1870014 142.6308684  63.1065194  16.1911674
 142.8739992  59.2159978   7.8260014 142.5269992  59.8329978   8.4700014
 143.5329992  59.7169978   7.3440014 142.9155090  59.3681575   7.8490681
 139.7969992  73.5809978   4.8970014 139.9579992  74.3809978   4.3970014
 139.5999992  73.8879978   5.7820014 139.7923906  73.7318678   4.9482333
 138.5319992  60.2789978   4.5130014 138.4479992  61.1669978   4.8600014
 139.4219992  60.0139978   4.7450014 138.6408163  60.3647179   4.5918596
 136.7899992  70.7059978   3.5730014 137.3819992  71.4059978   3.8500014
 137.2489992  70.2729978   2.8540014 136.9331652  70.7432675   3.5136533
 135.1059992  63.3709978   2.6890014 135.0609992  64.3099978   2.8680014
 134.2179992  63.1349978   2.4200014 134.9798166  63.4676687   2.6771524
 135.9139992  58.1519978  11.3630014 135.6849992  58.2109978  10.4350014
 135.4719992  57.3609978  11.6690014 135.8228801  58.0530540  11.2774729
 134.8449992  72.0929978   7.5230014 134.0119992  72.5649978   7.5500014
 135.3899992  72.6029978   6.9240014 134.8047857  72.2264791   7.4457142
 134.1329992  74.7049978  18.8530014 134.6729992  74.4889978  19.6130014
 133.6519992  73.8999978  18.6630014 134.1419219  74.5665156  18.9314282
 138.7299992  73.6249978  20.4730014 139.4979992  73.1659978  20.8140014
 138.7089992  73.3989978  19.5430014 138.8322135  73.5316668  20.3939491
 142.8219992  73.1329978   1.8490014 142.1779992  72.5019978   2.1700014
 143.5839992  72.6019978   1.6170014 142.8368058  72.9747902   1.8616038
 145.3069992  72.0049978  19.2020014 144.9559992  71.1479978  19.4460014
 146.0329992  72.1469978  19.8090014 145.3571895  71.9071351  19.3173770
 134.0399992  68.5159978  19.8070014 134.1839992  67.6139978  19.5210014
 133.2679992  68.8019978  19.3200014 133.9552733  68.4311798  19.7019532
 138.3809992  68.8589978   1.9400014 138.4459992  68.0649978   2.4700014
 139.0339992  68.7409978   1.2500014 138.4781605  68.7343430   1.9192997
 140.6949992  68.4849978  19.2400014 140.3669992  68.7559978  18.3830014
 140.8469992  67.5439978  19.1520014 140.6706412  68.3949046  19.1107822
 143.7339992  69.9059978   1.6760014 143.4649992  70.0869978   2.5760014
 143.5269992  68.9809978   1.5440014 143.6691191  69.8057119   1.7815524
 134.8729992  65.7159978  19.2270014 135.2809992  64.8589978  19.1060014
 134.6119992  65.7299978  20.1480014 134.8936016  65.6005119  19.3349192
 139.5309992  66.8319978   4.2460014 139.0709992  66.3479978   4.9310014
 139.7859992  66.1629978   3.6100014 139.5024856  66.6753669   4.2538397
 138.8199992  64.7249978  16.6020014 138.2009992  65.3989978  16.8820014
 139.1639992  65.0459978  15.7680014 138.7817123  64.8606887  16.5276388
 140.6019992  65.0749978   2.5080014 140.4209992  64.9199978   1.5810014
 141.5519992  65.1829978   2.5530014 140.7056566  65.0683669   2.3870929
 143.8389992  67.1959978  19.8790014 144.7929992  67.2799978  19.8520014
 143.6789992  66.4839978  20.4990014 143.9477182  67.1112842  19.9590733
 139.1589992  62.0799978  17.6840014 139.3089992  61.3509978  17.0820014
 139.1609992  62.8569978  17.1250014 139.1797967  62.0852708  17.5260541
 139.5719992  60.4489978  15.1770014 140.1069992  60.9009978  14.5250014
 138.7189992  60.3409978  14.7540014 139.5300374  60.4962665  15.0306710
 141.1529992  65.8889978  15.4160014 141.9039992  65.7329978  14.8430014
 140.8139992  66.7409978  15.1410014 141.2099587  65.9828138  15.3004078
 145.5689992  63.7039978  20.4450014 145.7609992  62.7729978  20.3330014
 146.4269992  64.1289978  20.4340014 145.7112182  63.6340070  20.4281862
 137.6379992  63.2779978  19.5950014 136.8699992  62.7449978  19.3850014
 138.3159992  62.9679978  18.9960014 137.6247235  63.1631754  19.4852413
 140.3769992  57.9059978  15.6080014 140.2789992  58.8519978  15.5030014
 139.6349992  57.5329978  15.1320014 140.2632534  57.9851773  15.5292600
 141.6409992  62.2269978  19.1720014 141.4059992  62.0079978  20.0730014
 140.8579992  62.0199978  18.6620014 141.5029095  62.1689892  19.2265353
 144.3569992  61.3549978  18.2470014 143.4089992  61.3869978  18.3790014
 144.6689992  60.7289978  18.9010014 144.2695293  61.2747923  18.3534148
 135.8179992  61.1979978  19.3000014 136.0299992  60.4919978  18.6900014
 135.7069992  60.7609978  20.1440014 135.8320269  61.0421921  19.3305873
 140.5989992  57.1999978  18.2790014 141.3109992  56.5599978  18.2650014
 140.4979992  57.4659978  17.3660014 140.6827387  57.1484330  18.1535563
 140.9529992  58.8819978  20.3330014 140.8209992  58.4069978  19.5130014
 140.3529992  59.6269978  20.2780014 140.8539070  58.9175789  20.2133251
 140.4989992  75.7649978   3.5090014 141.4319992  75.9229978   3.6530014
 140.2349992  76.4409978   2.8840014 140.5909911  75.8779373   3.4442722
 134.0669992  70.4019978   2.9920014 134.9809992  70.4809978   3.2650014
 134.0749992  69.7149978   2.3260014 134.1930655  70.3199205   2.9392917
 132.7159992  75.7949978   8.0690014 132.0689992  75.3329978   7.5370014
 133.0709992  75.1229978   8.6520014 132.6753741  75.6409774   8.0749175
 133.5859992  73.8749978   9.8740014 133.2519992  72.9949978  10.0460014
 133.8089992  74.2209978  10.7390014 133.5703721  73.8011938  10.0144168
 133.6659992  66.9509978  12.3260014 133.8509992  66.8689978  11.3900014
 134.5159992  66.8269978  12.7490014 133.8060928  66.9230463  12.2552893
 133.2639992  62.2209978  18.4660014 134.1829992  62.0989978  18.7030014
 132.8139992  61.4709978  18.8560014 133.3290087  62.1029608  18.5511410
 134.4849992  60.5339978  11.3580014 134.9299992  59.7419978  11.6600014
 134.9509992  61.2499978  11.7880014 134.6089718  60.5224534  11.4575265
 132.7889992  63.5329978  12.4270014 133.2809992  63.3119978  11.6360014
 133.1509992  64.3729978  12.7080014 132.9052923  63.6163468  12.3567407
 133.1029992  59.7909978   6.4810014 132.1779992  59.9989978   6.3520014
 133.5569992  60.2749978   5.7910014 133.0376298  59.8849299   6.3700451
 133.0659992  58.5289978  14.8250014 132.4009992  58.2829978  15.4680014
 132.6229992  59.1509978  14.2480014 132.9151168  58.5794214  14.8349848
 135.2579992  71.7039978  18.9700014 134.4369992  71.8789978  18.5090014
 135.0059992  71.6309978  19.8900014 135.1115594  71.7180717  19.0313611
 138.2119992  72.6779978  15.2280014 137.7879992  73.4879978  14.9460014
 139.1169992  72.7639978  14.9260014 138.2762138  72.8004160  15.1486415
 142.5239992  74.0769978  18.1880014 142.7079992  73.7439978  19.0660014
 143.3699992  74.3869978  17.8660014 142.6636484  74.0732979  18.2647617
 144.8689992  75.3629978  17.4320014 145.5459992  74.7299978  17.1920014
 145.1899992  75.7639978  18.2390014 145.0051323  75.3305691  17.5083158
 135.6139992  75.9349978  15.2760014 134.8939992  76.3749978  14.8250014
 135.2489992  75.6839978  16.1240014 135.4659643  75.9613369  15.3289129
 138.0809992  75.5349978  14.3060014 137.2169992  75.6069978  14.7100014
 138.0259992  76.0819978  13.5220014 137.9551942  75.6187849  14.2554000
 142.7919992  75.4229978  13.4810014 142.3349992  75.9519978  12.8270014
 142.9549992  76.0259978  14.2060014 142.7514960  75.5769280  13.4895274
 145.1199992  74.3009978  14.4260014 144.2149992  74.4659978  14.1600014
 145.5479992  75.1539978  14.3600014 145.0541537  74.4389134  14.3807095
 135.0289992  74.5579978  12.1860014 135.0109992  74.1319978  13.0430014
 135.8339992  74.2389978  11.7770014 135.1352875  74.4566435  12.2479515
 137.1699992  73.2679978  10.8410014 136.9509992  72.3509978  11.0110014
 137.9939992  73.4079978  11.3070014 137.2514702  73.1615511  10.9272527
 139.7069992  73.7379978  11.6900014 139.9199992  72.8499978  11.4030014
 139.7719992  73.7029978  12.6440014 139.7449149  73.6118326  11.7797369
 143.2159992  59.4019978  10.8340014 142.5419992  58.7719978  11.0900014
 143.7799992  58.9179978  10.2310014 143.2000384  59.2503708  10.7875020
 135.5429992  58.0359978   8.6560014 134.7659992  57.8009978   8.1490014
 136.0729992  57.2389978   8.6650014 135.5083451  57.8961268   8.5878627
 134.3789992  57.8339978   4.4600014 134.8179992  58.4449978   3.8680014
 133.7449992  58.3719978   4.9340014 134.3533859  57.9904064   4.4430305
 140.1219992  57.9619978   8.4690014 140.9959992  58.3509978   8.4400014
 139.9859992  57.7469978   9.3920014 140.2231953  57.9861643   8.5897617
 134.2799992  73.7819978   5.3570014 133.5949992  73.7439978   4.6900014
 134.2839992  74.6949978   5.6450014 134.1867621  73.9001924   5.3046126
 136.2399992  59.7499978   2.9020014 136.7309992  59.1199978   2.3750014
 136.8629992  60.0459978   3.5650014 136.3915304  59.7037376   2.9194940
 141.2659992  60.0429978   5.3590014 141.4439992  59.3959978   6.0420014
 141.2119992  60.8769978   5.8260014 141.2830678  60.0671604   5.5156301
 143.1439992  74.9909978   3.7550014 144.0099992  75.3579978   3.5770014
 142.8979992  74.5519978   2.9410014 143.2292097  74.9818525   3.6206019
 135.4999992  58.5499978  18.1740014 135.1339992  57.7839978  18.6160014
 136.4129992  58.5789978  18.4600014 135.5733172  58.4490324  18.2731890
 137.4729992  57.8999978  19.7090014 138.3719992  57.6259978  19.5250014
 137.0869992  57.1579978  20.1740014 137.5437307  57.7622196  19.7467098
 136.0979992  74.7019978   2.3820014 135.8299992  74.9879978   3.2560014
 136.8689992  74.1559978   2.5350014 136.1655927  74.6672779   2.5221205
  12.6289992  86.0479978   8.6150014  12.7179992  86.9919978   8.4830014
  11.9909992  85.7729978   7.9570014  12.5549062  86.1399812   8.5079641
  11.5619992  85.3029978  12.0340014  11.5239992  84.6569978  12.7390014
  11.2399992  84.8359978  11.2630014  11.5132679  85.1514276  12.0262921
   3.9299992  84.9169978  13.6270014   3.9719992  84.2919978  14.3500014
   4.6329992  85.5409978  13.8090014   4.0307345  84.9157873  13.7505273
  15.2679992  88.2419978  10.3350014  14.8269992  87.5219978  10.7860014
  15.2549992  88.9629978  10.9650014  15.2059215  88.2409291  10.4818105
   4.8539992  89.3669978  12.1620014   4.4839992  88.5649978  11.7920014
   5.7949992  89.1989978  12.2080014   4.9305984  89.2344638  12.1175603
   1.4639992  83.0269978   7.5540014   1.0159992  83.8729978   7.5360014
   0.9029992  82.4479978   7.0390014   1.3268546  83.0643993   7.4818891
   2.1739992  85.1889978   9.6800014   2.3879992  84.4189978  10.2080014
   2.9119992  85.2789978   9.0770014   2.3030200  85.0958587   9.6707035
  12.3799992  93.3459978  10.5470014  12.9989992  92.6699978  10.2740014
  12.1709992  93.1279978  11.4560014  12.4366056  93.2238869  10.6323967
   9.9509992  87.7349978  12.4400014  10.2549992  87.0489978  11.8450014
  10.6729992  87.8539978  13.0580014  10.0901240  87.6572314  12.4420959
  18.6139992  79.3369978  13.3000014  18.6639992  79.9469978  14.0360014
  19.0399992  79.7979978  12.5770014  18.6784108  79.4827709  13.3030112
  13.0919992  82.1289978  12.7670014  13.2349992  81.1829978  12.7870014
  12.9859992  82.3359978  11.8390014  13.0972403  82.0274797  12.6442239
   6.2469992  80.2309978  10.0400014   6.2899992  81.0909978   9.6210014
   5.7889992  79.6789978   9.4060014   6.1909871  80.2739245   9.8970761
  13.9689992  80.3619978   8.4410014  14.6159992  80.0329978   9.0650014
  14.4789992  80.8789978   7.8180014  14.1264351  80.3869067   8.4421037
   2.8669992  82.6279978  10.8020014   3.5209992  82.0779978  11.2340014
   2.8909992  82.3539978   9.8850014   2.9597199  82.5157167  10.7371668
   8.0239992  84.1779978  10.0170014   8.6399992  83.6509978  10.5260014
   7.4369992  83.5379978   9.6130014   8.0290154  84.0193954  10.0320945
  19.0059992  80.8149978  15.5360014  18.3169992  81.4729978  15.4410014
  19.0209992  80.6169978  16.4730014  18.9137756  80.8782603  15.6495812
   5.0569992  79.1489978  14.1140014   4.8379992  79.6789978  13.3470014
   4.3889992  79.3749978  14.7610014   4.9366975  79.2520967  14.0965140
  12.4259992  88.6489978   7.6580014  12.1309992  88.3259978   6.8060014
  12.1019992  89.5489978   7.6990014  12.3418460  88.7264464   7.5469714
   7.6259992  86.8239978  14.4010014   6.8859992  87.4229978  14.5050014
   8.3399992  87.3779978  14.0860014   7.6213500  86.9807829  14.3726371
  15.7329992  79.6529978  10.4210014  15.5179992  78.8869978  10.9540014
  16.3889992  80.1249978  10.9340014  15.7922673  79.6120728  10.5631990
   4.6509992  81.0409978  12.0660014   5.2649992  81.6739978  12.4390014
   5.1629992  80.5689978  11.4100014   4.8041962  81.0637249  12.0282935
   6.0339992  88.7889978  15.1880014   6.0279992  89.6679978  14.8100014
   5.1799992  88.7049978  15.6130014   5.9177925  88.8979535  15.1936887
   2.1549992  88.4599978   5.9700014   1.8829992  88.6889978   5.0820014
   2.1999992  89.2969978   6.4310014   2.1238097  88.6046163   5.9106683
  15.7799992  90.0809978  12.6830014  14.8379992  90.1399978  12.8450014
  16.0559992  90.9869978  12.5460014  15.6885865  90.2115288  12.6866192
  16.0799992  78.3679978  14.1000014  15.3439992  78.9779978  14.0630014
  16.7639992  78.7829978  13.5740014  16.0715367  78.5077551  14.0238174
   9.0839992  76.4539978  11.5660014   8.9659992  75.5059978  11.5120014
   8.2289992  76.7869978  11.8390014   8.9522805  76.3692202  11.5955079
  14.0319992  91.8619978   9.3080014  14.4569992  91.1549978   8.8230014
  14.3489992  92.6639978   8.8910014  14.1330266  91.8735190   9.1852479
  15.1919992  89.7629978   7.8170014  14.9339992  89.0729978   7.2050014
  15.2629992  89.3199978   8.6620014  15.1663050  89.6086814   7.8475621
  16.8779992  88.3299978  16.2940014  17.0169992  87.7379978  15.5550014
  17.0449992  89.2029978  15.9380014  16.9196193  88.3668896  16.1446211
  11.3499992  85.2919978   6.0670014  10.6389992  85.8269978   5.7150014
  12.0409992  85.3469978   5.4070014  11.3460751  85.3726777   5.9295858
  11.4039992  83.7489978   3.1050014  12.1049992  83.7719978   3.7570014
  11.7059992  83.1209978   2.4490014  11.5408202  83.6672212   3.1055609
  18.7189992  84.6699978  14.3600014  18.0669992  85.3639978  14.4490014
  19.1849992  84.8799978  13.5500014  18.6925937  84.7935019  14.2627533
  14.7559992  85.5009978   7.0180014  14.0239992  85.7299978   7.5920014
  15.2029992  84.7879978   7.4730014  14.7163963  85.4358729   7.1579945
  14.6529992  83.6759978  16.0860014  14.7329992  84.4389978  16.6580014
  14.0519992  83.9549978  15.3960014  14.5826547  83.8182457  16.0710047
   6.4009992  86.1319978   8.9010014   6.0709992  85.7609978   8.0830014
   6.9899992  85.4609978   9.2480014   6.4353970  85.9906063   8.8359404
   7.7679992  89.5599978  11.5820014   7.6729992  88.9809978  10.8260014
   8.4969992  89.1889978  12.0780014   7.8536011  89.4305561  11.5456028
   6.7679992  84.8999978  12.5340014   7.3329992  85.0219978  11.7720014
   7.0869992  85.5379978  13.1730014   6.8884166  85.0028791  12.5160348
  13.0769992  90.4039978  13.2680014  12.8369992  91.0659978  13.9160014
  12.8789992  89.5689978  13.6930014  13.0173826  90.3818115  13.4141566
   7.6479992  89.2999978  17.2520014   7.3369992  90.0819978  17.7070014
   6.9979992  89.1469978  16.5660014   7.5175538  89.3864087  17.2215898
  13.6269992  84.6639978   4.7040014  14.2059992  84.8139978   5.4500014
  14.0409992  85.1339978   3.9800014  13.7623358  84.7480954   4.7083953
   4.5679992  85.4979978  16.4800014   4.6379992  86.1489978  17.1790014
   3.6769992  85.6009978  16.1450014   4.4571690  85.6009249  16.5303043
  11.3529992  91.3999978   8.1390014  11.8269992  91.6959978   8.9160014
  10.7899992  92.1389978   7.9060014  11.3417890  91.5403036   8.2138101
   5.8869992  91.3709978  18.0150014   5.8949992  91.2349978  17.0680014
   4.9709992  91.2539978  18.2670014   5.7642528  91.3365463  17.9193243
  17.3259992  76.4139978   4.5170014  16.4259992  76.5529978   4.8120014
  17.5779992  77.2449978   4.1150014  17.2368683  76.5454055   4.5030232
   5.3919992  85.2009978   6.4900014   5.0999992  85.9689978   5.9990014
   4.7169992  84.5419978   6.3270014   5.2608497  85.2169745   6.4008260
  18.5149992  90.7799978   2.8930014  18.5879992  91.7189978   3.0630014
  19.4199992  90.4749978   2.8370014  18.6474170  90.8673282   2.9087063
   1.4849992  87.5639978  15.3050014   0.9829992  87.5359978  14.4900014
   1.4899992  86.6589978  15.6150014   1.4169832  87.4377486  15.2354121
   1.2349992  90.3449978  12.1890014   2.1809992  90.1999978  12.1700014
   1.1219992  91.1289978  12.7260014   1.3493578  90.4311697  12.2590317
  19.4329992  91.0109978  17.8720014  19.3829992  90.0549978  17.8340014
  18.6059992  91.2779978  18.2730014  19.3143831  90.9164680  17.9210121
  10.4109992  90.5849978  16.7480014  10.4989992  91.4109978  17.2230014
   9.5479992  90.2549978  16.9970014  10.3063357  90.6535468  16.8467653
  10.8259992  94.3569978   6.5540014  10.7499992  94.2359978   5.6070014
  10.8579992  95.3059978   6.6720014  10.8199380  94.4687677   6.4405181
   4.4789992  93.1459978   8.3350014   4.6309992  92.7979978   9.2130014
   3.6279992  92.7889978   8.0790014   4.3848344  93.0500879   8.4206868
  13.9269992  93.5109978   3.5560014  14.3019992  92.7669978   3.0850014
  13.9319992  93.2409978   4.4740014  13.9790098  93.3726392   3.6156629
  13.5959992  93.4369978   6.3050014  12.6609992  93.5369978   6.4840014
  13.8759992  92.7269978   6.8840014  13.5059471  93.3547933   6.4076695
  16.5849992  82.5039978  18.3520014  16.1769992  82.9839978  17.6310014
  16.6249992  81.5979978  18.0440014  16.5346221  82.4472449  18.2118267
   3.7339992  88.8879978  16.3480014   3.9499992  88.5259978  17.2080014
   2.8779992  88.5129978  16.1390014   3.6478810  88.7878837  16.4372680
   6.3519992  77.3579978  12.3440014   5.4909992  77.2709978  11.9360014
   6.3299992  78.2139978  12.7720014   6.2310491  77.4618003  12.3459582
  11.0149992  77.0799978  15.7190014  11.4349992  76.6649978  16.4720014
  10.0819992  76.9009978  15.8360014  10.9463736  76.9989910  15.8378968
  14.3419992  80.8349978  16.5720014  13.8279992  80.7099978  17.3700014
  14.1859992  81.7479978  16.3280014  14.2506967  80.9412123  16.6480937
  15.1039992  85.6959978   2.3330014  15.1459992  85.4739978   1.4030014
  15.9529992  86.0949978   2.5230014  15.2245253  85.7195498   2.2313822
  10.6769992  79.5719978   3.0040014  10.4229992  79.5909978   3.9260014
  10.4199992  78.7009978   2.7020014  10.6074508  79.4568280   3.0894803
   6.4429992  82.3229978  13.4390014   5.8019992  82.2829978  14.1480014
   6.4809992  83.2499978  13.2010014   6.3603010  82.4427668  13.5039946
   6.4399992  82.5439978   8.3510014   5.5479992  82.2039978   8.2920014
   6.8909992  82.1669978   7.5950014   6.3787642  82.4464910   8.2407726
  11.9759992  82.9599978   7.1680014  11.5669992  83.7749978   6.8760014
  12.6959992  82.8199978   6.5540014  12.0174439  83.0525372   7.0450115
  11.0779992  83.1359978  18.6560014  10.5149992  82.4309978  18.9770014
  11.9039992  83.0149978  19.1240014  11.1126674  83.0232165  18.7631751
  12.9809992  82.4059978   9.9820014  12.7849992  83.0119978   9.2670014
  13.1619992  81.5729978   9.5480014  12.9786584  82.3762513   9.8254212
   4.1929992  82.6439978  15.3060014   4.1549992  83.0439978  16.1750014
   3.7029992  81.8269978  15.3960014   4.1215330  82.5882674  15.4371289
   7.5589992  80.0179978   2.1050014   7.1279992  79.5729978   2.8340014
   6.8409992  80.3889978   1.5920014   7.4029176  80.0072052   2.1354930
   0.8019992  79.7599978   9.1570014   1.4319992  79.7309978   9.8760014
   1.2509992  79.3349978   8.4260014   0.9490835  79.6985660   9.1567659
   2.0759992  80.5059978   4.5810014   2.5499992  81.0969978   3.9960014
   1.3579992  81.0359978   4.9280014   2.0438640  80.6585511   4.5477969
  12.2449992  84.0439978  14.6530014  12.5679992  83.4129978  14.0100014
  11.8039992  83.5099978  15.3140014  12.2296379  83.8853468  14.6542582
   9.0219992  79.9719978   9.4370014   8.1109992  80.0289978   9.7260014
   9.5269992  79.9119978  10.2480014   8.9656873  79.9716826   9.5861207
   3.8499992  81.6009978   8.2640014   2.9609992  81.6999978   7.9240014
   4.1469992  80.7589978   7.9180014   3.7684177  81.5007687   8.1706940
   7.5029992  81.6009978   5.9210014   8.4349992  81.7299978   6.0990014
   7.2879992  82.2699978   5.2710014   7.6014472  81.7090806   5.8574891
  13.4269992  79.2069978  12.7020014  12.7499992  79.3379978  13.3650014
  12.9419992  79.0519978  11.8910014  13.2687405  79.2039947  12.6832170
   6.1769992  82.7949978   3.4870014   5.6349992  82.4159978   2.7960014
   7.0109992  82.9899978   3.0590014   6.2154390  82.7694079   3.3344392
  16.7149992  94.8779978  18.9780014  16.9139992  95.3019978  18.1440014
  17.3699992  95.2219978  19.5850014  16.8308522  94.9826301  18.9457852
   4.3129992  87.3519978  18.5860014   5.0449992  87.6069978  19.1480014
   3.5319992  87.5569978  19.1020014   4.3076526  87.4145450  18.7325176
  10.3419992  82.7589978  11.3240014  10.9059992  82.2129978  10.7770014
  10.1939992  82.2379978  12.1130014  10.3993037  82.6136787  11.3557229
   5.3439992  78.8959978   7.7430014   5.0269992  77.9929978   7.7070014
   6.1249992  78.8979978   7.1900014   5.4062431  78.7727797   7.6633102
   8.9679992  81.1479978  13.7380014   8.1329992  81.6019978  13.8490014
   9.4919992  81.4239978  14.4900014   8.9246072  81.2473948  13.8548136
   9.5129992  87.3609978   5.4230014   8.7679992  86.8529978   5.1010014
   9.3779992  87.4099978   6.3690014   9.3928963  87.2981731   5.5068826
  16.6629992  86.4939978  14.2100014  17.3039992  86.9499978  13.6660014
  15.8319992  86.6069978  13.7470014  16.6385287  86.5716921  14.0729887
  13.4099992  80.1749978   3.6220014  12.4719992  80.2859978   3.4710014
  13.7079992  81.0309978   3.9290014  13.3216318  80.3060158   3.6428145
  11.0319992  87.5449978  16.6600014  10.6859992  87.1629978  17.4670014
  10.8319992  88.4779978  16.7310014  10.9575987  87.6189002  16.7800461
  14.1289992  82.0419978   5.2830014  15.0209992  81.9039978   5.6020014
  14.1849992  82.8329978   4.7460014  14.2587325  82.1299918   5.2541217
   4.6369992  86.6559978  11.1930014   5.3819992  86.6529978  10.5910014
   4.7149992  85.8319978  11.6740014   4.7493365  86.5442384  11.1757430
  11.6379992  88.8189978   4.4480014  11.3429992  89.6459978   4.8300014
  10.9349992  88.1999978   4.6450014  11.5026379  88.8484171   4.5268654
   1.6449992  85.1159978  16.5080014   1.8679992  84.6979978  17.3390014
   1.0429992  84.5039978  16.0850014   1.5941513  84.9759606  16.5646740
   8.6619992  84.6329978  18.7210014   8.3659992  84.4679978  17.8250014
   9.5929992  84.4129978  18.7100014   8.7474401  84.5806879  18.5970206
  13.2819992  90.0069978  16.6100014  12.3819992  90.1899978  16.3430014
  13.3159992  90.2659978  17.5310014  13.1633748  90.0670554  16.6979164
  19.0139992  82.2509978   4.9780014  18.4589992  81.8549978   4.3050014
  19.1139992  83.1619978   4.7000014  18.9516816  82.3199505   4.8485033
  18.9769992  88.0519978  17.8150014  18.1259992  88.2899978  17.4470014
  19.5669992  88.0349978  17.0620014  18.9403812  88.0822524  17.6628453
  17.3089992  91.0369978   5.4430014  16.9359992  90.2119978   5.7520014
  17.5859992  90.8539978   4.5450014  17.2953463  90.8992569   5.3639525
  14.4689992  85.8449978  12.4640014  13.5409992  85.6139978  12.4370014
  14.9199992  85.0679978  12.1340014  14.4028165  85.7082774  12.4156790
   7.0119992  90.1739978   8.5970014   7.5399992  90.9469978   8.3970014
   6.1319992  90.3979978   8.2950014   6.9653435  90.3102700   8.5287310
   2.7669992  85.0359978   3.1840014   3.3829992  85.6629978   3.5640014
   1.9049992  85.3519978   3.4560014   2.7347678  85.1644412   3.2727209
   8.4399992  87.8369978   8.1730014   8.1989992  88.7619978   8.2150014
   7.6989992  87.3779978   8.5700014   8.3069206  87.9015915   8.2323769
   8.9539992  91.9859978  14.4880014   9.3169992  92.8399978  14.2550014
   9.4859992  91.6939978  15.2290014   9.0755141  92.0633895  14.5562097
   7.1229992  92.8579978   7.7190014   6.1729992  92.9639978   7.7700014
   7.4749992  93.6789978   8.0630014   7.0405472  92.9834923   7.7724852
  12.4979992  88.0849978  14.1890014  12.0729992  87.8569978  15.0150014
  13.0789992  87.3459978  14.0070014  12.5183395  87.9539545  14.2774414
  14.7009992  89.0139978   3.2630014  15.0549992  88.6339978   4.0670014
  13.7529992  88.9199978   3.3500014  14.6212298  88.9492452   3.3848687
  15.1569992  92.6369978  16.6580014  14.5549992  92.0809978  16.1630014
  15.4379992  93.3039978  16.0320014  15.1125757  92.6510744  16.5055675
  19.2049992  93.4929978   3.4640014  19.9489992  94.0789978   3.3240014
  18.5109992  94.0619978   3.7970014  19.2129809  93.6500818   3.4898590
   3.2789992  79.8699978  16.0660014   2.3869992  80.2079978  15.9980014
   3.1809992  79.0139978  16.4840014   3.1434475  79.8006543  16.1131704
  15.5669992  87.6859978   5.4900014  15.2899992  86.9579978   6.0460014
  16.4949992  87.8049978   5.6950014  15.6544499  87.6024213   5.5938044
   2.9309992  91.6739978  14.5010014   3.1479992  90.7419978  14.4700014
   3.1769992  91.9489978  15.3840014   2.9939809  91.5835686  14.6161691
   8.7919992  90.1259978   1.7100014   9.0309992  89.3769978   1.1630014
   8.5229992  89.7379978   2.5430014   8.7883233  89.9711853   1.7477809
   7.7289992  89.6959978   4.1660014   7.8759992  89.1759978   4.9560014
   7.7259992  90.6029978   4.4730014   7.7487102  89.7473953   4.3155925
   4.1819992  86.9479978   4.6770014   3.4959992  87.3009978   5.2440014
   4.7049992  87.7109978   4.4300014   4.1588402  87.0993901   4.7211801
  12.0139992  79.6109978  14.9560014  12.7129992  79.6849978  15.6060014
  11.6329992  78.7459978  15.1100014  12.0582097  79.5042389  15.0657997
  12.7979992  79.2629978   6.0530014  13.0179992  79.7339978   5.2490014
  13.3569992  79.6569978   6.7230014  12.9036732  79.3807287   6.0335033
  10.4669992  91.3929978   4.9160014   9.6499992  91.8899978   4.9680014
  10.9959992  91.8689978   4.2750014  10.4268125  91.5251989   4.8365306
   9.9979992  80.9909978   6.8880014  10.8099992  81.4949978   6.9340014
   9.7539992  80.8459978   7.8020014  10.0761467  81.0403749   7.0178575
  10.5339992  81.9769978  16.0720014  10.6529992  82.5509978  16.8290014
  11.1889992  81.2889978  16.1870014  10.6388684  81.9625194  16.1911674
  10.8819992  78.0719978   7.8260014  10.5349992  78.6889978   8.4700014
  11.5409992  78.5729978   7.3440014  10.9235090  78.2241575   7.8490681
   7.8049992  92.4369978   4.8970014   7.9659992  93.2369978   4.3970014
   7.6079992  92.7439978   5.7820014   7.8003906  92.5878678   4.9482333
   6.5399992  79.1349978   4.5130014   6.4559992  80.0229978   4.8600014
   7.4299992  78.8699978   4.7450014   6.6488163  79.2207179   4.5918596
  16.7379992  79.8839978  16.9070014  15.8219992  80.1459978  16.8200014
  17.0739992  79.8809978  16.0110014  16.6578499  79.9195163  16.7738766
  15.3409992  83.6339978  11.0030014  14.5429992  83.2189978  10.6750014
  15.7859992  82.9439978  11.4940014  15.2919684  83.4838628  11.0245227
   4.7979992  89.5619978   3.5730014   5.3899992  90.2619978   3.8500014
   5.2569992  89.1289978   2.8540014   4.9411652  89.5992675   3.5136533
   3.1139992  82.2269978   2.6890014   3.0689992  83.1659978   2.8680014
   2.2259992  81.9909978   2.4200014   2.9878166  82.3236687   2.6771524
  16.4269992  92.8899978  12.6250014  16.2709992  93.5689978  11.9680014
  17.3599992  92.9619978  12.8280014  16.5317387  92.9926390  12.5625342
   3.9219992  77.0079978  11.3630014   3.6929992  77.0669978  10.4350014
   3.4799992  76.2169978  11.6690014   3.8308801  76.9090540  11.2774729
   2.8529992  90.9489978   7.5230014   2.0199992  91.4209978   7.5500014
   3.3979992  91.4589978   6.9240014   2.8127857  91.0824791   7.4457142
   2.1409992  93.5609978  18.8530014   2.6809992  93.3449978  19.6130014
   1.6599992  92.7559978  18.6630014   2.1499219  93.4225156  18.9314282
   6.7379992  92.4809978  20.4730014   7.5059992  92.0219978  20.8140014
   6.7169992  92.2549978  19.5430014   6.8402135  92.3876668  20.3939491
  10.8299992  91.9889978   1.8490014  10.1859992  91.3579978   2.1700014
  11.5919992  91.4579978   1.6170014  10.8448058  91.8307902   1.8616038
  13.3149992  90.8609978  19.2020014  12.9639992  90.0039978  19.4460014
  14.0409992  91.0029978  19.8090014  13.3651895  90.7631351  19.3173770
  15.4349992  91.8059978   2.0820014  15.7179992  91.0109978   2.5350014
  16.1739992  92.0389978   1.5210014  15.5737096  91.7287049   2.0681104
   2.0479992  87.3719978  19.8070014   2.1919992  86.4699978  19.5210014
   1.2759992  87.6579978  19.3200014   1.9632733  87.2871798  19.7019532
   6.3889992  87.7149978   1.9400014   6.4539992  86.9209978   2.4700014
   7.0419992  87.5969978   1.2500014   6.4861605  87.5903430   1.9192997
   8.7029992  87.3409978  19.2400014   8.3749992  87.6119978  18.3830014
   8.8549992  86.3999978  19.1520014   8.6786412  87.2509046  19.1107822
  11.7419992  88.7619978   1.6760014  11.4729992  88.9429978   2.5760014
  11.5349992  87.8369978   1.5440014  11.6771191  88.6617119   1.7815524
  14.4379992  87.2569978  16.6230014  15.1829992  87.8459978  16.5040014
  13.6809992  87.8389978  16.6870014  14.4375470  87.4162128  16.6153799
   2.8809992  84.5719978  19.2270014   3.2889992  83.7149978  19.1060014
   2.6199992  84.5859978  20.1480014   2.9016016  84.4565119  19.3349192
   7.5389992  85.6879978   4.2460014   7.0789992  85.2039978   4.9310014
   7.7939992  85.0189978   3.6100014   7.5104856  85.5313669   4.2538397
   6.8279992  83.5809978  16.6020014   6.2089992  84.2549978  16.8820014
   7.1719992  83.9019978  15.7680014   6.7897123  83.7166887  16.5276388
   8.6099992  83.9309978   2.5080014   8.4289992  83.7759978   1.5810014
   9.5599992  84.0389978   2.5530014   8.7136566  83.9243669   2.3870929
  11.8469992  86.0519978  19.8790014  12.8009992  86.1359978  19.8520014
  11.6869992  85.3399978  20.4990014  11.9557182  85.9672842  19.9590733
  17.9999992  86.2849978   1.9540014  17.7259992  85.8609978   1.1410014
  18.0389992  87.2169978   1.7370014  17.9677716  86.3528827   1.8134286
   7.1669992  80.9359978  17.6840014   7.3169992  80.2069978  17.0820014
   7.1689992  81.7129978  17.1250014   7.1877967  80.9412708  17.5260541
   7.5799992  79.3049978  15.1770014   8.1149992  79.7569978  14.5250014
   6.7269992  79.1969978  14.7540014   7.5380374  79.3522665  15.0306710
   9.1609992  84.7449978  15.4160014   9.9119992  84.5889978  14.8430014
   8.8219992  85.5969978  15.1410014   9.2179587  84.8388138  15.3004078
  13.5769992  82.5599978  20.4450014  13.7689992  81.6289978  20.3330014
  14.4349992  82.9849978  20.4340014  13.7192182  82.4900070  20.4281862
  14.8939992  85.3489978  18.5220014  14.6119992  86.0579978  17.9440014
  15.8359992  85.2759978  18.3710014  14.9827921  85.4362193  18.4224225
   5.6459992  82.1339978  19.5950014   4.8779992  81.6009978  19.3850014
   6.3239992  81.8239978  18.9960014   5.6327235  82.0191754  19.4852413
   8.3849992  76.7619978  15.6080014   8.2869992  77.7079978  15.5030014
   7.6429992  76.3889978  15.1320014   8.2712534  76.8411773  15.5292600
   9.6489992  81.0829978  19.1720014   9.4139992  80.8639978  20.0730014
   8.8659992  80.8759978  18.6620014   9.5109095  81.0249892  19.2265353
  12.3649992  80.2109978  18.2470014  11.4169992  80.2429978  18.3790014
  12.6769992  79.5849978  18.9010014  12.2775293  80.1307923  18.3534148
  13.9989992  78.8449978  20.2520014  13.9019992  77.8929978  20.2470014
  13.6769992  79.1129978  21.1130014  13.9422468  78.7510884  20.3676210
   3.8259992  80.0539978  19.3000014   4.0379992  79.3479978  18.6900014
   3.7149992  79.6169978  20.1440014   3.8400269  79.8981921  19.3305873
   8.6069992  76.0559978  18.2790014   9.3189992  75.4159978  18.2650014
   8.5059992  76.3219978  17.3660014   8.6907387  76.0044330  18.1535563
   8.9609992  77.7379978  20.3330014   8.8289992  77.2629978  19.5130014
   8.3609992  78.4829978  20.2780014   8.8619070  77.7735789  20.2133251
   8.5069992  94.6209978   3.5090014   9.4399992  94.7789978   3.6530014
   8.2429992  95.2969978   2.8840014   8.5989911  94.7339373   3.4442722
   2.0749992  89.2579978   2.9920014   2.9889992  89.3369978   3.2650014
   2.0829992  88.5709978   2.3260014   2.2010655  89.1759205   2.9392917
   0.7239992  94.6509978   8.0690014   0.0769992  94.1889978   7.5370014
   1.0789992  93.9789978   8.6520014   0.6833741  94.4969774   8.0749175
   1.5939992  92.7309978   9.8740014   1.2599992  91.8509978  10.0460014
   1.8169992  93.0769978  10.7390014   1.5783721  92.6571938  10.0144168
  19.1429992  93.5409978  12.8550014  19.1209992  93.7259978  13.7940014
  19.8329992  94.1089978  12.5140014  19.2333439  93.6431887  12.9374791
  18.7059992  93.1079978  15.7760014  18.2189992  92.3729978  15.4050014
  19.2549992  92.7139978  16.4540014  18.7135247  92.9541057  15.8168461
  17.1569992  88.8979978  20.4150014  16.2909992  88.7929978  20.8090014
  17.5329992  89.6559978  20.8610014  17.0893401  88.9861708  20.5292620
  18.4579992  87.1539978   5.9290014  19.3079992  87.5749978   6.0560014
  18.4629992  86.4139978   6.5360014  18.5751143  87.1116094   6.0284750
  18.8519992  85.2079978   7.7520014  18.1259992  84.7279978   8.1500014
  19.4339992  85.4129978   8.4850014  18.8312730  85.1700184   7.9054149
  18.6109992  87.9929978  12.7000014  19.4449992  87.6149978  12.4190014
  18.7229992  88.9359978  12.5810014  18.7401917  88.0687943  12.6454861
  17.0979992  90.8709978  15.0070014  16.4499992  91.1959978  15.6320014
  16.5799992  90.4299978  14.3330014  16.9394196  90.8558651  15.0014152
  19.1209992  85.1089978   4.1430014  18.5989992  85.4649978   3.4250014
  19.0879992  85.7839978   4.8220014  19.0450129  85.2489598   4.1363355
  17.4699992  82.3479978   2.6940014  17.5659992  83.0149978   2.0140014
  17.3299992  81.5329978   2.2130014  17.4642040  82.3290671   2.5358378
  16.6389992  83.7289978   8.3150014  16.4889992  82.7839978   8.2950014
  16.2849992  84.0099978   9.1590014  16.5706351  83.6376644   8.4263220
   1.6739992  85.8069978  12.3260014   1.8589992  85.7249978  11.3900014
   2.5239992  85.6829978  12.7490014   1.8140928  85.7790463  12.2552893
  17.4949992  85.6989978  17.9540014  18.0779992  84.9639978  18.1460014
  18.0589992  86.4709978  18.0010014  17.6509781  85.7028145  17.9866164
  18.9919992  83.6019978  18.6390014  18.1289992  83.2229978  18.4730014
  19.5959992  82.8629978  18.5640014  18.9556085  83.4503223  18.6061694
  16.7169992  79.7559978   1.8120014  17.3279992  79.3849978   2.4490014
  15.8799992  79.3349978   2.0080014  16.6874947  79.6482756   1.9257252
  16.3499992  81.3109978   6.7780014  16.6289992  80.4039978   6.9020014
  17.1089992  81.7449978   6.3890014  16.4908619  81.2454502   6.7423795
  16.9609992  81.8929978  12.2140014  17.8939992  82.1049978  12.1790014
  16.7259992  81.9939978  13.1360014  17.0569517  81.9356833  12.3339130
  16.9909992  82.6299978  14.9900014  16.1479992  82.8979978  15.3560014
  17.4329992  83.4519978  14.7790014  16.9354138  82.7778273  15.0115518
   1.2719992  81.0769978  18.4660014   2.1909992  80.9549978  18.7030014
   0.8219992  80.3269978  18.8560014   1.3370087  80.9589608  18.5511410
  19.2739992  76.6099978  20.3430014  19.6229992  75.9559978  19.7380014
  19.4209992  77.4469978  19.9030014  19.3416824  76.6336024  20.2006304
  16.9629992  78.5739978   6.8260014  17.1449992  78.1249978   7.6510014
  16.3629992  77.9899978   6.3620014  16.9068187  78.4335552   6.8762739
   2.4929992  79.3899978  11.3580014   2.9379992  78.5979978  11.6600014
   2.9589992  80.1059978  11.7880014   2.6169718  79.3784534  11.4575265
   0.7969992  82.3889978  12.4270014   1.2889992  82.1679978  11.6360014
   1.1589992  83.2289978  12.7080014   0.9132923  82.4723468  12.3567407
  18.7929992  78.7189978  18.6920014  17.8759992  78.9899978  18.6570014
  18.9159992  78.1839978  17.9080014  18.6839672  78.6837885  18.5811862
  18.8299992  78.6419978   3.3540014  19.2419992  77.9209978   2.8790014
  19.5109992  79.3109978   3.4120014  18.9785536  78.6337766   3.2968024
   1.1109992  78.6469978   6.4810014   0.1859992  78.8549978   6.3520014
   1.5649992  79.1309978   5.7910014   1.0456298  78.7409299   6.3700451
  15.8809992  93.6309978   8.4270014  16.5339992  93.2829978   7.8190014
  16.3919992  94.1189978   9.0730014  16.0392777  93.6493815   8.4312047
   1.0739992  77.3849978  14.8250014   0.4089992  77.1389978  15.4680014
   0.6309992  78.0069978  14.2480014   0.9231168  77.4354214  14.8349848
   3.2659992  90.5599978  18.9700014   2.4449992  90.7349978  18.5090014
   3.0139992  90.4869978  19.8900014   3.1195594  90.5740717  19.0313611
   6.2199992  91.5339978  15.2280014   5.7959992  92.3439978  14.9460014
   7.1249992  91.6199978  14.9260014   6.2842138  91.6564160  15.1486415
  10.5319992  92.9329978  18.1880014  10.7159992  92.5999978  19.0660014
  11.3779992  93.2429978  17.8660014  10.6716484  92.9292979  18.2647617
  12.8769992  94.2189978  17.4320014  13.5539992  93.5859978  17.1920014
  13.1979992  94.6199978  18.2390014  13.0131323  94.1865691  17.5083158
  17.7939992  76.8089978  16.5110014  16.9809992  77.1339978  16.1240014
  18.0269992  76.0479978  15.9780014  17.7141347  76.7506880  16.3859841
   3.6219992  94.7909978  15.2760014   2.9019992  95.2309978  14.8250014
   3.2569992  94.5399978  16.1240014   3.4739643  94.8173369  15.3289129
   6.0889992  94.3909978  14.3060014   5.2249992  94.4629978  14.7100014
   6.0339992  94.9379978  13.5220014   5.9631942  94.4747849  14.2554000
  10.7999992  94.2789978  13.4810014  10.3429992  94.8079978  12.8270014
  10.9629992  94.8819978  14.2060014  10.7594960  94.4329280  13.4895274
  13.1279992  93.1569978  14.4260014  12.2229992  93.3219978  14.1600014
  13.5559992  94.0099978  14.3600014  13.0621537  93.2949134  14.3807095
  15.7319992  94.7269978  14.7210014  15.5499992  95.6429978  14.5100014
  15.9089992  94.3159978  13.8740014  15.7310030  94.7968273  14.5777166
   3.0369992  93.4139978  12.1860014   3.0189992  92.9879978  13.0430014
   3.8419992  93.0949978  11.7770014   3.1432875  93.3126435  12.2479515
   5.1779992  92.1239978  10.8410014   4.9589992  91.2069978  11.0110014
   6.0019992  92.2639978  11.3070014   5.2594702  92.0175511  10.9272527
   7.7149992  92.5939978  11.6900014   7.9279992  91.7059978  11.4030014
   7.7799992  92.5589978  12.6440014   7.7529149  92.4678326  11.7797369
  11.2239992  78.2579978  10.8340014  10.5499992  77.6279978  11.0900014
  11.7879992  77.7739978  10.2310014  11.2080384  78.1063708  10.7875020
  16.3669992  76.3649978  10.9470014  16.9699992  76.9129978  10.4450014
  15.4969992  76.6839978  10.7060014  16.3319157  76.4830373  10.8457910
  18.0939992  77.5039978   9.2800014  18.7049992  76.9899978   8.7530014
  18.4759992  78.3809978   9.3030014  18.2293305  77.5522050   9.2109418
   3.5509992  76.8919978   8.6560014   2.7739992  76.6569978   8.1490014
   4.0809992  76.0949978   8.6650014   3.5163451  76.7521268   8.5878627
   2.3869992  76.6899978   4.4600014   2.8259992  77.3009978   3.8680014
   1.7529992  77.2279978   4.9340014   2.3613859  76.8464064   4.4430305
   8.1299992  76.8179978   8.4690014   9.0039992  77.2069978   8.4400014
   7.9939992  76.6029978   9.3920014   8.2311953  76.8421643   8.5897617
  13.6869992  76.8479978  10.1190014  13.7629992  76.9439978   9.1690014
  13.4119992  75.9409978  10.2470014  13.6601871  76.7384146  10.0063944
  15.0399992  76.8739978   5.8110014  14.3369992  77.4889978   5.6010014
  14.5949992  76.0369978   5.9420014  14.8836550  76.8449668   5.7999837
   2.2879992  92.6379978   5.3570014   1.6029992  92.5999978   4.6900014
   2.2919992  93.5509978   5.6450014   2.1947621  92.7561924   5.3046126
   4.2479992  78.6059978   2.9020014   4.7389992  77.9759978   2.3750014
   4.8709992  78.9019978   3.5650014   4.3995304  78.5597376   2.9194940
   9.2739992  78.8989978   5.3590014   9.4519992  78.2519978   6.0420014
   9.2199992  79.7329978   5.8260014   9.2910678  78.9231604   5.5156301
  11.1519992  93.8469978   3.7550014  12.0179992  94.2139978   3.5770014
  10.9059992  93.4079978   2.9410014  11.2372097  93.8378525   3.6206019
  17.8609992  93.4099978   6.4340014  17.6669992  92.6619978   5.8690014
  17.8219992  94.1679978   5.8510014  17.8291645  93.4100786   6.2778148
   3.5079992  77.4059978  18.1740014   3.1419992  76.6399978  18.6160014
   4.4209992  77.4349978  18.4600014   3.5813172  77.3050324  18.2731890
   5.4809992  76.7559978  19.7090014   6.3799992  76.4819978  19.5250014
   5.0949992  76.0139978  20.1740014   5.5517307  76.6182196  19.7467098
   4.1059992  93.5579978   2.3820014   3.8379992  93.8439978   3.2560014
   4.8769992  93.0119978   2.5350014   4.1735926  93.5232779   2.5221205
  13.9029992  76.0889978  19.8920014  13.9789992  75.6629978  20.7450014
  14.7959992  76.1019978  19.5490014  14.0342303  76.0323493  19.9625497
  17.0789992  92.1619978  18.5840014  16.2969992  91.9749978  18.0640014
  17.0069992  93.0909978  18.8010014  16.9621924  92.2620637  18.5421602
  31.4849992  86.0479978   8.6150014  31.5739992  86.9919978   8.4830014
  30.8469992  85.7729978   7.9570014  31.4109062  86.1399812   8.5079641
  30.4179992  85.3029978  12.0340014  30.3799992  84.6569978  12.7390014
  30.0959992  84.8359978  11.2630014  30.3692679  85.1514276  12.0262921
  22.7859992  84.9169978  13.6270014  22.8279992  84.2919978  14.3500014
  23.4889992  85.5409978  13.8090014  22.8867345  84.9157873  13.7505273
  34.1239992  88.2419978  10.3350014  33.6829992  87.5219978  10.7860014
  34.1109992  88.9629978  10.9650014  34.0619215  88.2409291  10.4818105
  23.7099992  89.3669978  12.1620014  23.3399992  88.5649978  11.7920014
  24.6509992  89.1989978  12.2080014  23.7865984  89.2344638  12.1175603
  20.3199992  83.0269978   7.5540014  19.8719992  83.8729978   7.5360014
  19.7589992  82.4479978   7.0390014  20.1828546  83.0643993   7.4818891
  21.0299992  85.1889978   9.6800014  21.2439992  84.4189978  10.2080014
  21.7679992  85.2789978   9.0770014  21.1590200  85.0958587   9.6707035
  31.2359992  93.3459978  10.5470014  31.8549992  92.6699978  10.2740014
  31.0269992  93.1279978  11.4560014  31.2926056  93.2238869  10.6323967
  28.8069992  87.7349978  12.4400014  29.1109992  87.0489978  11.8450014
  29.5289992  87.8539978  13.0580014  28.9461240  87.6572314  12.4420959
  37.4699992  79.3369978  13.3000014  37.5199992  79.9469978  14.0360014
  37.8959992  79.7979978  12.5770014  37.5344108  79.4827709  13.3030112
  31.9479992  82.1289978  12.7670014  32.0909992  81.1829978  12.7870014
  31.8419992  82.3359978  11.8390014  31.9532403  82.0274797  12.6442239
  25.1029992  80.2309978  10.0400014  25.1459992  81.0909978   9.6210014
  24.6449992  79.6789978   9.4060014  25.0469871  80.2739245   9.8970761
  32.8249992  80.3619978   8.4410014  33.4719992  80.0329978   9.0650014
  33.3349992  80.8789978   7.8180014  32.9824351  80.3869067   8.4421037
  21.7229992  82.6279978  10.8020014  22.3769992  82.0779978  11.2340014
  21.7469992  82.3539978   9.8850014  21.8157199  82.5157167  10.7371668
  26.8799992  84.1779978  10.0170014  27.4959992  83.6509978  10.5260014
  26.2929992  83.5379978   9.6130014  26.8850154  84.0193954  10.0320945
  37.8619992  80.8149978  15.5360014  37.1729992  81.4729978  15.4410014
  37.8769992  80.6169978  16.4730014  37.7697756  80.8782603  15.6495812
  23.9129992  79.1489978  14.1140014  23.6939992  79.6789978  13.3470014
  23.2449992  79.3749978  14.7610014  23.7926975  79.2520967  14.0965140
  31.2819992  88.6489978   7.6580014  30.9869992  88.3259978   6.8060014
  30.9579992  89.5489978   7.6990014  31.1978460  88.7264464   7.5469714
  26.4819992  86.8239978  14.4010014  25.7419992  87.4229978  14.5050014
  27.1959992  87.3779978  14.0860014  26.4773500  86.9807829  14.3726371
  34.5889992  79.6529978  10.4210014  34.3739992  78.8869978  10.9540014
  35.2449992  80.1249978  10.9340014  34.6482673  79.6120728  10.5631990
  23.5069992  81.0409978  12.0660014  24.1209992  81.6739978  12.4390014
  24.0189992  80.5689978  11.4100014  23.6601962  81.0637249  12.0282935
  24.8899992  88.7889978  15.1880014  24.8839992  89.6679978  14.8100014
  24.0359992  88.7049978  15.6130014  24.7737925  88.8979535  15.1936887
  21.0109992  88.4599978   5.9700014  20.7389992  88.6889978   5.0820014
  21.0559992  89.2969978   6.4310014  20.9798097  88.6046163   5.9106683
  34.6359992  90.0809978  12.6830014  33.6939992  90.1399978  12.8450014
  34.9119992  90.9869978  12.5460014  34.5445865  90.2115288  12.6866192
  34.9359992  78.3679978  14.1000014  34.1999992  78.9779978  14.0630014
  35.6199992  78.7829978  13.5740014  34.9275367  78.5077551  14.0238174
  27.9399992  76.4539978  11.5660014  27.8219992  75.5059978  11.5120014
  27.0849992  76.7869978  11.8390014  27.8082805  76.3692202  11.5955079
  32.8879992  91.8619978   9.3080014  33.3129992  91.1549978   8.8230014
  33.2049992  92.6639978   8.8910014  32.9890266  91.8735190   9.1852479
  34.0479992  89.7629978   7.8170014  33.7899992  89.0729978   7.2050014
  34.1189992  89.3199978   8.6620014  34.0223050  89.6086814   7.8475621
  35.7339992  88.3299978  16.2940014  35.8729992  87.7379978  15.5550014
  35.9009992  89.2029978  15.9380014  35.7756193  88.3668896  16.1446211
  30.2059992  85.2919978   6.0670014  29.4949992  85.8269978   5.7150014
  30.8969992  85.3469978   5.4070014  30.2020751  85.3726777   5.9295858
  30.2599992  83.7489978   3.1050014  30.9609992  83.7719978   3.7570014
  30.5619992  83.1209978   2.4490014  30.3968202  83.6672212   3.1055609
  37.5749992  84.6699978  14.3600014  36.9229992  85.3639978  14.4490014
  38.0409992  84.8799978  13.5500014  37.5485937  84.7935019  14.2627533
  33.6119992  85.5009978   7.0180014  32.8799992  85.7299978   7.5920014
  34.0589992  84.7879978   7.4730014  33.5723963  85.4358729   7.1579945
  33.5089992  83.6759978  16.0860014  33.5889992  84.4389978  16.6580014
  32.9079992  83.9549978  15.3960014  33.4386547  83.8182457  16.0710047
  25.2569992  86.1319978   8.9010014  24.9269992  85.7609978   8.0830014
  25.8459992  85.4609978   9.2480014  25.2913970  85.9906063   8.8359404
  26.6239992  89.5599978  11.5820014  26.5289992  88.9809978  10.8260014
  27.3529992  89.1889978  12.0780014  26.7096011  89.4305561  11.5456028
  25.6239992  84.8999978  12.5340014  26.1889992  85.0219978  11.7720014
  25.9429992  85.5379978  13.1730014  25.7444166  85.0028791  12.5160348
  31.9329992  90.4039978  13.2680014  31.6929992  91.0659978  13.9160014
  31.7349992  89.5689978  13.6930014  31.8733826  90.3818115  13.4141566
  26.5039992  89.2999978  17.2520014  26.1929992  90.0819978  17.7070014
  25.8539992  89.1469978  16.5660014  26.3735538  89.3864087  17.2215898
  32.4829992  84.6639978   4.7040014  33.0619992  84.8139978   5.4500014
  32.8969992  85.1339978   3.9800014  32.6183358  84.7480954   4.7083953
  23.4239992  85.4979978  16.4800014  23.4939992  86.1489978  17.1790014
  22.5329992  85.6009978  16.1450014  23.3131690  85.6009249  16.5303043
  30.2089992  91.3999978   8.1390014  30.6829992  91.6959978   8.9160014
  29.6459992  92.1389978   7.9060014  30.1977890  91.5403036   8.2138101
  24.7429992  91.3709978  18.0150014  24.7509992  91.2349978  17.0680014
  23.8269992  91.2539978  18.2670014  24.6202528  91.3365463  17.9193243
  36.1819992  76.4139978   4.5170014  35.2819992  76.5529978   4.8120014
  36.4339992  77.2449978   4.1150014  36.0928683  76.5454055   4.5030232
  24.2479992  85.2009978   6.4900014  23.9559992  85.9689978   5.9990014
  23.5729992  84.5419978   6.3270014  24.1168497  85.2169745   6.4008260
  37.3709992  90.7799978   2.8930014  37.4439992  91.7189978   3.0630014
  38.2759992  90.4749978   2.8370014  37.5034170  90.8673282   2.9087063
  20.3409992  87.5639978  15.3050014  19.8389992  87.5359978  14.4900014
  20.3459992  86.6589978  15.6150014  20.2729832  87.4377486  15.2354121
  20.0909992  90.3449978  12.1890014  21.0369992  90.1999978  12.1700014
  19.9779992  91.1289978  12.7260014  20.2053578  90.4311697  12.2590317
  38.2889992  91.0109978  17.8720014  38.2389992  90.0549978  17.8340014
  37.4619992  91.2779978  18.2730014  38.1703831  90.9164680  17.9210121
  29.2669992  90.5849978  16.7480014  29.3549992  91.4109978  17.2230014
  28.4039992  90.2549978  16.9970014  29.1623357  90.6535468  16.8467653
  29.6819992  94.3569978   6.5540014  29.6059992  94.2359978   5.6070014
  29.7139992  95.3059978   6.6720014  29.6759380  94.4687677   6.4405181
  23.3349992  93.1459978   8.3350014  23.4869992  92.7979978   9.2130014
  22.4839992  92.7889978   8.0790014  23.2408344  93.0500879   8.4206868
  32.7829992  93.5109978   3.5560014  33.1579992  92.7669978   3.0850014
  32.7879992  93.2409978   4.4740014  32.8350098  93.3726392   3.6156629
  32.4519992  93.4369978   6.3050014  31.5169992  93.5369978   6.4840014
  32.7319992  92.7269978   6.8840014  32.3619471  93.3547933   6.4076695
  35.4409992  82.5039978  18.3520014  35.0329992  82.9839978  17.6310014
  35.4809992  81.5979978  18.0440014  35.3906221  82.4472449  18.2118267
  22.5899992  88.8879978  16.3480014  22.8059992  88.5259978  17.2080014
  21.7339992  88.5129978  16.1390014  22.5038810  88.7878837  16.4372680
  25.2079992  77.3579978  12.3440014  24.3469992  77.2709978  11.9360014
  25.1859992  78.2139978  12.7720014  25.0870491  77.4618003  12.3459582
  29.8709992  77.0799978  15.7190014  30.2909992  76.6649978  16.4720014
  28.9379992  76.9009978  15.8360014  29.8023736  76.9989910  15.8378968
  33.1979992  80.8349978  16.5720014  32.6839992  80.7099978  17.3700014
  33.0419992  81.7479978  16.3280014  33.1066967  80.9412123  16.6480937
  33.9599992  85.6959978   2.3330014  34.0019992  85.4739978   1.4030014
  34.8089992  86.0949978   2.5230014  34.0805253  85.7195498   2.2313822
  29.5329992  79.5719978   3.0040014  29.2789992  79.5909978   3.9260014
  29.2759992  78.7009978   2.7020014  29.4634508  79.4568280   3.0894803
  25.2989992  82.3229978  13.4390014  24.6579992  82.2829978  14.1480014
  25.3369992  83.2499978  13.2010014  25.2163010  82.4427668  13.5039946
  25.2959992  82.5439978   8.3510014  24.4039992  82.2039978   8.2920014
  25.7469992  82.1669978   7.5950014  25.2347642  82.4464910   8.2407726
  30.8319992  82.9599978   7.1680014  30.4229992  83.7749978   6.8760014
  31.5519992  82.8199978   6.5540014  30.8734439  83.0525372   7.0450115
  29.9339992  83.1359978  18.6560014  29.3709992  82.4309978  18.9770014
  30.7599992  83.0149978  19.1240014  29.9686674  83.0232165  18.7631751
  31.8369992  82.4059978   9.9820014  31.6409992  83.0119978   9.2670014
  32.0179992  81.5729978   9.5480014  31.8346584  82.3762513   9.8254212
  23.0489992  82.6439978  15.3060014  23.0109992  83.0439978  16.1750014
  22.5589992  81.8269978  15.3960014  22.9775330  82.5882674  15.4371289
  26.4149992  80.0179978   2.1050014  25.9839992  79.5729978   2.8340014
  25.6969992  80.3889978   1.5920014  26.2589176  80.0072051   2.1354930
  19.6579992  79.7599978   9.1570014  20.2879992  79.7309978   9.8760014
  20.1069992  79.3349978   8.4260014  19.8050835  79.6985660   9.1567659
  20.9319992  80.5059978   4.5810014  21.4059992  81.0969978   3.9960014
  20.2139992  81.0359978   4.9280014  20.8998640  80.6585511   4.5477969
  31.1009992  84.0439978  14.6530014  31.4239992  83.4129978  14.0100014
  30.6599992  83.5099978  15.3140014  31.0856379  83.8853468  14.6542582
  27.8779992  79.9719978   9.4370014  26.9669992  80.0289978   9.7260014
  28.3829992  79.9119978  10.2480014  27.8216873  79.9716826   9.5861207
  22.7059992  81.6009978   8.2640014  21.8169992  81.6999978   7.9240014
  23.0029992  80.7589978   7.9180014  22.6244177  81.5007687   8.1706940
  26.3589992  81.6009978   5.9210014  27.2909992  81.7299978   6.0990014
  26.1439992  82.2699978   5.2710014  26.4574472  81.7090806   5.8574891
  32.2829992  79.2069978  12.7020014  31.6059992  79.3379978  13.3650014
  31.7979992  79.0519978  11.8910014  32.1247405  79.2039947  12.6832170
  25.0329992  82.7949978   3.4870014  24.4909992  82.4159978   2.7960014
  25.8669992  82.9899978   3.0590014  25.0714390  82.7694079   3.3344392
  35.5709992  94.8779978  18.9780014  35.7699992  95.3019978  18.1440014
  36.2259992  95.2219978  19.5850014  35.6868522  94.9826301  18.9457852
  23.1689992  87.3519978  18.5860014  23.9009992  87.6069978  19.1480014
  22.3879992  87.5569978  19.1020014  23.1636526  87.4145450  18.7325176
  29.1979992  82.7589978  11.3240014  29.7619992  82.2129978  10.7770014
  29.0499992  82.2379978  12.1130014  29.2553037  82.6136787  11.3557229
  24.1999992  78.8959978   7.7430014  23.8829992  77.9929978   7.7070014
  24.9809992  78.8979978   7.1900014  24.2622431  78.7727797   7.6633102
  27.8239992  81.1479978  13.7380014  26.9889992  81.6019978  13.8490014
  28.3479992  81.4239978  14.4900014  27.7806072  81.2473948  13.8548136
  28.3689992  87.3609978   5.4230014  27.6239992  86.8529978   5.1010014
  28.2339992  87.4099978   6.3690014  28.2488963  87.2981731   5.5068826
  35.5189992  86.4939978  14.2100014  36.1599992  86.9499978  13.6660014
  34.6879992  86.6069978  13.7470014  35.4945287  86.5716921  14.0729887
  32.2659992  80.1749978   3.6220014  31.3279992  80.2859978   3.4710014
  32.5639992  81.0309978   3.9290014  32.1776318  80.3060158   3.6428145
  29.8879992  87.5449978  16.6600014  29.5419992  87.1629978  17.4670014
  29.6879992  88.4779978  16.7310014  29.8135987  87.6189002  16.7800461
  32.9849992  82.0419978   5.2830014  33.8769992  81.9039978   5.6020014
  33.0409992  82.8329978   4.7460014  33.1147325  82.1299918   5.2541217
  23.4929992  86.6559978  11.1930014  24.2379992  86.6529978  10.5910014
  23.5709992  85.8319978  11.6740014  23.6053365  86.5442384  11.1757430
  30.4939992  88.8189978   4.4480014  30.1989992  89.6459978   4.8300014
  29.7909992  88.1999978   4.6450014  30.3586379  88.8484171   4.5268654
  20.5009992  85.1159978  16.5080014  20.7239992  84.6979978  17.3390014
  19.8989992  84.5039978  16.0850014  20.4501513  84.9759606  16.5646740
  27.5179992  84.6329978  18.7210014  27.2219992  84.4679978  17.8250014
  28.4489992  84.4129978  18.7100014  27.6034401  84.5806879  18.5970206
  32.1379992  90.0069978  16.6100014  31.2379992  90.1899978  16.3430014
  32.1719992  90.2659978  17.5310014  32.0193748  90.0670554  16.6979164
  37.8699992  82.2509978   4.9780014  37.3149992  81.8549978   4.3050014
  37.9699992  83.1619978   4.7000014  37.8076816  82.3199505   4.8485033
  37.8329992  88.0519978  17.8150014  36.9819992  88.2899978  17.4470014
  38.4229992  88.0349978  17.0620014  37.7963812  88.0822524  17.6628453
  36.1649992  91.0369978   5.4430014  35.7919992  90.2119978   5.7520014
  36.4419992  90.8539978   4.5450014  36.1513463  90.8992569   5.3639525
  33.3249992  85.8449978  12.4640014  32.3969992  85.6139978  12.4370014
  33.7759992  85.0679978  12.1340014  33.2588165  85.7082774  12.4156790
  25.8679992  90.1739978   8.5970014  26.3959992  90.9469978   8.3970014
  24.9879992  90.3979978   8.2950014  25.8213435  90.3102700   8.5287310
  21.6229992  85.0359978   3.1840014  22.2389992  85.6629978   3.5640014
  20.7609992  85.3519978   3.4560014  21.5907678  85.1644412   3.2727209
  27.2959992  87.8369978   8.1730014  27.0549992  88.7619978   8.2150014
  26.5549992  87.3779978   8.5700014  27.1629206  87.9015915   8.2323769
  27.8099992  91.9859978  14.4880014  28.1729992  92.8399978  14.2550014
  28.3419992  91.6939978  15.2290014  27.9315141  92.0633895  14.5562097
  25.9789992  92.8579978   7.7190014  25.0289992  92.9639978   7.7700014
  26.3309992  93.6789978   8.0630014  25.8965472  92.9834923   7.7724852
  31.3539992  88.0849978  14.1890014  30.9289992  87.8569978  15.0150014
  31.9349992  87.3459978  14.0070014  31.3743395  87.9539545  14.2774414
  33.5569992  89.0139978   3.2630014  33.9109992  88.6339978   4.0670014
  32.6089992  88.9199978   3.3500014  33.4772298  88.9492452   3.3848687
  34.0129992  92.6369978  16.6580014  33.4109992  92.0809978  16.1630014
  34.2939992  93.3039978  16.0320014  33.9685757  92.6510744  16.5055675
  38.0609992  93.4929978   3.4640014  38.8049992  94.0789978   3.3240014
  37.3669992  94.0619978   3.7970014  38.0689809  93.6500818   3.4898590
  22.1349992  79.8699978  16.0660014  21.2429992  80.2079978  15.9980014
  22.0369992  79.0139978  16.4840014  21.9994475  79.8006543  16.1131704
  34.4229992  87.6859978   5.4900014  34.1459992  86.9579978   6.0460014
  35.3509992  87.8049978   5.6950014  34.5104499  87.6024213   5.5938044
  21.7869992  91.6739978  14.5010014  22.0039992  90.7419978  14.4700014
  22.0329992  91.9489978  15.3840014  21.8499809  91.5835686  14.6161691
  27.6479992  90.1259978   1.7100014  27.8869992  89.3769978   1.1630014
  27.3789992  89.7379978   2.5430014  27.6443233  89.9711853   1.7477809
  26.5849992  89.6959978   4.1660014  26.7319992  89.1759978   4.9560014
  26.5819992  90.6029978   4.4730014  26.6047102  89.7473953   4.3155925
  23.0379992  86.9479978   4.6770014  22.3519992  87.3009978   5.2440014
  23.5609992  87.7109978   4.4300014  23.0148402  87.0993901   4.7211801
  30.8699992  79.6109978  14.9560014  31.5689992  79.6849978  15.6060014
  30.4889992  78.7459978  15.1100014  30.9142097  79.5042389  15.0657997
  31.6539992  79.2629978   6.0530014  31.8739992  79.7339978   5.2490014
  32.2129992  79.6569978   6.7230014  31.7596731  79.3807287   6.0335033
  29.3229992  91.3929978   4.9160014  28.5059992  91.8899978   4.9680014
  29.8519992  91.8689978   4.2750014  29.2828125  91.5251989   4.8365306
  28.8539992  80.9909978   6.8880014  29.6659992  81.4949978   6.9340014
  28.6099992  80.8459978   7.8020014  28.9321467  81.0403749   7.0178575
  29.3899992  81.9769978  16.0720014  29.5089992  82.5509978  16.8290014
  30.0449992  81.2889978  16.1870014  29.4948684  81.9625194  16.1911674
  29.7379992  78.0719978   7.8260014  29.3909992  78.6889978   8.4700014
  30.3969992  78.5729978   7.3440014  29.7795090  78.2241575   7.8490681
  26.6609992  92.4369978   4.8970014  26.8219992  93.2369978   4.3970014
  26.4639992  92.7439978   5.7820014  26.6563906  92.5878678   4.9482333
  25.3959992  79.1349978   4.5130014  25.3119992  80.0229978   4.8600014
  26.2859992  78.8699978   4.7450014  25.5048163  79.2207179   4.5918596
  35.5939992  79.8839978  16.9070014  34.6779992  80.1459978  16.8200014
  35.9299992  79.8809978  16.0110014  35.5138499  79.9195163  16.7738766
  34.1969992  83.6339978  11.0030014  33.3989992  83.2189978  10.6750014
  34.6419992  82.9439978  11.4940014  34.1479684  83.4838628  11.0245227
  23.6539992  89.5619978   3.5730014  24.2459992  90.2619978   3.8500014
  24.1129992  89.1289978   2.8540014  23.7971652  89.5992675   3.5136533
  21.9699992  82.2269978   2.6890014  21.9249992  83.1659978   2.8680014
  21.0819992  81.9909978   2.4200014  21.8438166  82.3236687   2.6771524
  35.2829992  92.8899978  12.6250014  35.1269992  93.5689978  11.9680014
  36.2159992  92.9619978  12.8280014  35.3877387  92.9926390  12.5625342
  22.7779992  77.0079978  11.3630014  22.5489992  77.0669978  10.4350014
  22.3359992  76.2169978  11.6690014  22.6868801  76.9090540  11.2774729
  21.7089992  90.9489978   7.5230014  20.8759992  91.4209978   7.5500014
  22.2539992  91.4589978   6.9240014  21.6687857  91.0824791   7.4457142
  20.9969992  93.5609978  18.8530014  21.5369992  93.3449978  19.6130014
  20.5159992  92.7559978  18.6630014  21.0059219  93.4225156  18.9314282
  25.5939992  92.4809978  20.4730014  26.3619992  92.0219978  20.8140014
  25.5729992  92.2549978  19.5430014  25.6962135  92.3876668  20.3939491
  29.6859992  91.9889978   1.8490014  29.0419992  91.3579978   2.1700014
  30.4479992  91.4579978   1.6170014  29.7008058  91.8307902   1.8616038
  32.1709992  90.8609978  19.2020014  31.8199992  90.0039978  19.4460014
  32.8969992  91.0029978  19.8090014  32.2211895  90.7631351  19.3173770
  34.2909992  91.8059978   2.0820014  34.5739992  91.0109978   2.5350014
  35.0299992  92.0389978   1.5210014  34.4297096  91.7287049   2.0681104
  20.9039992  87.3719978  19.8070014  21.0479992  86.4699978  19.5210014
  20.1319992  87.6579978  19.3200014  20.8192733  87.2871798  19.7019532
  25.2449992  87.7149978   1.9400014  25.3099992  86.9209978   2.4700014
  25.8979992  87.5969978   1.2500014  25.3421605  87.5903430   1.9192997
  27.5589992  87.3409978  19.2400014  27.2309992  87.6119978  18.3830014
  27.7109992  86.3999978  19.1520014  27.5346412  87.2509046  19.1107822
  30.5979992  88.7619978   1.6760014  30.3289992  88.9429978   2.5760014
  30.3909992  87.8369978   1.5440014  30.5331191  88.6617119   1.7815524
  33.2939992  87.2569978  16.6230014  34.0389992  87.8459978  16.5040014
  32.5369992  87.8389978  16.6870014  33.2935470  87.4162128  16.6153799
  21.7369992  84.5719978  19.2270014  22.1449992  83.7149978  19.1060014
  21.4759992  84.5859978  20.1480014  21.7576016  84.4565119  19.3349192
  26.3949992  85.6879978   4.2460014  25.9349992  85.2039978   4.9310014
  26.6499992  85.0189978   3.6100014  26.3664856  85.5313669   4.2538397
  25.6839992  83.5809978  16.6020014  25.0649992  84.2549978  16.8820014
  26.0279992  83.9019978  15.7680014  25.6457123  83.7166887  16.5276388
  27.4659992  83.9309978   2.5080014  27.2849992  83.7759978   1.5810014
  28.4159992  84.0389978   2.5530014  27.5696566  83.9243669   2.3870929
  30.7029992  86.0519978  19.8790014  31.6569992  86.1359978  19.8520014
  30.5429992  85.3399978  20.4990014  30.8117182  85.9672842  19.9590733
  36.8559992  86.2849978   1.9540014  36.5819992  85.8609978   1.1410014
  36.8949992  87.2169978   1.7370014  36.8237716  86.3528827   1.8134286
  26.0229992  80.9359978  17.6840014  26.1729992  80.2069978  17.0820014
  26.0249992  81.7129978  17.1250014  26.0437967  80.9412708  17.5260541
  26.4359992  79.3049978  15.1770014  26.9709992  79.7569978  14.5250014
  25.5829992  79.1969978  14.7540014  26.3940374  79.3522665  15.0306710
  28.0169992  84.7449978  15.4160014  28.7679992  84.5889978  14.8430014
  27.6779992  85.5969978  15.1410014  28.0739587  84.8388138  15.3004078
  32.4329992  82.5599978  20.4450014  32.6249992  81.6289978  20.3330014
  33.2909992  82.9849978  20.4340014  32.5752182  82.4900070  20.4281862
  33.7499992  85.3489978  18.5220014  33.4679992  86.0579978  17.9440014
  34.6919992  85.2759978  18.3710014  33.8387921  85.4362193  18.4224225
  24.5019992  82.1339978  19.5950014  23.7339992  81.6009978  19.3850014
  25.1799992  81.8239978  18.9960014  24.4887235  82.0191754  19.4852413
  27.2409992  76.7619978  15.6080014  27.1429992  77.7079978  15.5030014
  26.4989992  76.3889978  15.1320014  27.1272534  76.8411773  15.5292600
  28.5049992  81.0829978  19.1720014  28.2699992  80.8639978  20.0730014
  27.7219992  80.8759978  18.6620014  28.3669095  81.0249892  19.2265353
  31.2209992  80.2109978  18.2470014  30.2729992  80.2429978  18.3790014
  31.5329992  79.5849978  18.9010014  31.1335293  80.1307923  18.3534148
  32.8549992  78.8449978  20.2520014  32.7579992  77.8929978  20.2470014
  32.5329992  79.1129978  21.1130014  32.7982468  78.7510884  20.3676210
  22.6819992  80.0539978  19.3000014  22.8939992  79.3479978  18.6900014
  22.5709992  79.6169978  20.1440014  22.6960269  79.8981921  19.3305873
  27.4629992  76.0559978  18.2790014  28.1749992  75.4159978  18.2650014
  27.3619992  76.3219978  17.3660014  27.5467387  76.0044330  18.1535563
  27.8169992  77.7379978  20.3330014  27.6849992  77.2629978  19.5130014
  27.2169992  78.4829978  20.2780014  27.7179070  77.7735789  20.2133251
  27.3629992  94.6209978   3.5090014  28.2959992  94.7789978   3.6530014
  27.0989992  95.2969978   2.8840014  27.4549911  94.7339373   3.4442722
  20.9309992  89.2579978   2.9920014  21.8449992  89.3369978   3.2650014
  20.9389992  88.5709978   2.3260014  21.0570655  89.1759205   2.9392917
  19.5799992  94.6509978   8.0690014  18.9329992  94.1889978   7.5370014
  19.9349992  93.9789978   8.6520014  19.5393741  94.4969774   8.0749175
  20.4499992  92.7309978   9.8740014  20.1159992  91.8509978  10.0460014
  20.6729992  93.0769978  10.7390014  20.4343721  92.6571938  10.0144168
  37.9989992  93.5409978  12.8550014  37.9769992  93.7259978  13.7940014
  38.6889992  94.1089978  12.5140014  38.0893439  93.6431887  12.9374791
  37.5619992  93.1079978  15.7760014  37.0749992  92.3729978  15.4050014
  38.1109992  92.7139978  16.4540014  37.5695247  92.9541057  15.8168461
  36.0129992  88.8979978  20.4150014  35.1469992  88.7929978  20.8090014
  36.3889992  89.6559978  20.8610014  35.9453401  88.9861708  20.5292620
  37.3139992  87.1539978   5.9290014  38.1639992  87.5749978   6.0560014
  37.3189992  86.4139978   6.5360014  37.4311143  87.1116094   6.0284750
  37.7079992  85.2079978   7.7520014  36.9819992  84.7279978   8.1500014
  38.2899992  85.4129978   8.4850014  37.6872730  85.1700184   7.9054149
  37.4669992  87.9929978  12.7000014  38.3009992  87.6149978  12.4190014
  37.5789992  88.9359978  12.5810014  37.5961917  88.0687943  12.6454861
  35.9539992  90.8709978  15.0070014  35.3059992  91.1959978  15.6320014
  35.4359992  90.4299978  14.3330014  35.7954196  90.8558651  15.0014152
  37.9769992  85.1089978   4.1430014  37.4549992  85.4649978   3.4250014
  37.9439992  85.7839978   4.8220014  37.9010129  85.2489598   4.1363355
  36.3259992  82.3479978   2.6940014  36.4219992  83.0149978   2.0140014
  36.1859992  81.5329978   2.2130014  36.3202040  82.3290671   2.5358378
  35.4949992  83.7289978   8.3150014  35.3449992  82.7839978   8.2950014
  35.1409992  84.0099978   9.1590014  35.4266351  83.6376644   8.4263220
  20.5299992  85.8069978  12.3260014  20.7149992  85.7249978  11.3900014
  21.3799992  85.6829978  12.7490014  20.6700928  85.7790463  12.2552893
  36.3509992  85.6989978  17.9540014  36.9339992  84.9639978  18.1460014
  36.9149992  86.4709978  18.0010014  36.5069781  85.7028145  17.9866164
  37.8479992  83.6019978  18.6390014  36.9849992  83.2229978  18.4730014
  38.4519992  82.8629978  18.5640014  37.8116085  83.4503223  18.6061694
  35.5729992  79.7559978   1.8120014  36.1839992  79.3849978   2.4490014
  34.7359992  79.3349978   2.0080014  35.5434947  79.6482756   1.9257252
  35.2059992  81.3109978   6.7780014  35.4849992  80.4039978   6.9020014
  35.9649992  81.7449978   6.3890014  35.3468619  81.2454502   6.7423795
  35.8169992  81.8929978  12.2140014  36.7499992  82.1049978  12.1790014
  35.5819992  81.9939978  13.1360014  35.9129517  81.9356833  12.3339130
  35.8469992  82.6299978  14.9900014  35.0039992  82.8979978  15.3560014
  36.2889992  83.4519978  14.7790014  35.7914138  82.7778273  15.0115518
  20.1279992  81.0769978  18.4660014  21.0469992  80.9549978  18.7030014
  19.6779992  80.3269978  18.8560014  20.1930087  80.9589608  18.5511410
  38.1299992  76.6099978  20.3430014  38.4789992  75.9559978  19.7380014
  38.2769992  77.4469978  19.9030014  38.1976824  76.6336024  20.2006304
  35.8189992  78.5739978   6.8260014  36.0009992  78.1249978   7.6510014
  35.2189992  77.9899978   6.3620014  35.7628187  78.4335552   6.8762739
  21.3489992  79.3899978  11.3580014  21.7939992  78.5979978  11.6600014
  21.8149992  80.1059978  11.7880014  21.4729718  79.3784534  11.4575265
  19.6529992  82.3889978  12.4270014  20.1449992  82.1679978  11.6360014
  20.0149992  83.2289978  12.7080014  19.7692923  82.4723468  12.3567407
  37.6489992  78.7189978  18.6920014  36.7319992  78.9899978  18.6570014
  37.7719992  78.1839978  17.9080014  37.5399672  78.6837885  18.5811862
  37.6859992  78.6419978   3.3540014  38.0979992  77.9209978   2.8790014
  38.3669992  79.3109978   3.4120014  37.8345536  78.6337766   3.2968024
  19.9669992  78.6469978   6.4810014  19.0419992  78.8549978   6.3520014
  20.4209992  79.1309978   5.7910014  19.9016298  78.7409299   6.3700451
  34.7369992  93.6309978   8.4270014  35.3899992  93.2829978   7.8190014
  35.2479992  94.1189978   9.0730014  34.8952777  93.6493815   8.4312047
  19.9299992  77.3849978  14.8250014  19.2649992  77.1389978  15.4680014
  19.4869992  78.0069978  14.2480014  19.7791168  77.4354214  14.8349848
  22.1219992  90.5599978  18.9700014  21.3009992  90.7349978  18.5090014
  21.8699992  90.4869978  19.8900014  21.9755594  90.5740717  19.0313611
  25.0759992  91.5339978  15.2280014  24.6519992  92.3439978  14.9460014
  25.9809992  91.6199978  14.9260014  25.1402138  91.6564160  15.1486415
  29.3879992  92.9329978  18.1880014  29.5719992  92.5999978  19.0660014
  30.2339992  93.2429978  17.8660014  29.5276484  92.9292979  18.2647617
  31.7329992  94.2189978  17.4320014  32.4099992  93.5859978  17.1920014
  32.0539992  94.6199978  18.2390014  31.8691323  94.1865691  17.5083158
  36.6499992  76.8089978  16.5110014  35.8369992  77.1339978  16.1240014
  36.8829992  76.0479978  15.9780014  36.5701347  76.7506880  16.3859841
  22.4779992  94.7909978  15.2760014  21.7579992  95.2309978  14.8250014
  22.1129992  94.5399978  16.1240014  22.3299643  94.8173369  15.3289129
  24.9449992  94.3909978  14.3060014  24.0809992  94.4629978  14.7100014
  24.8899992  94.9379978  13.5220014  24.8191942  94.4747849  14.2554000
  29.6559992  94.2789978  13.4810014  29.1989992  94.8079978  12.8270014
  29.8189992  94.8819978  14.2060014  29.6154960  94.4329280  13.4895274
  31.9839992  93.1569978  14.4260014  31.0789992  93.3219978  14.1600014
  32.4119992  94.0099978  14.3600014  31.9181537  93.2949134  14.3807095
  34.5879992  94.7269978  14.7210014  34.4059992  95.6429978  14.5100014
  34.7649992  94.3159978  13.8740014  34.5870030  94.7968273  14.5777166
  21.8929992  93.4139978  12.1860014  21.8749992  92.9879978  13.0430014
  22.6979992  93.0949978  11.7770014  21.9992875  93.3126435  12.2479515
  24.0339992  92.1239978  10.8410014  23.8149992  91.2069978  11.0110014
  24.8579992  92.2639978  11.3070014  24.1154702  92.0175511  10.9272527
  26.5709992  92.5939978  11.6900014  26.7839992  91.7059978  11.4030014
  26.6359992  92.5589978  12.6440014  26.6089149  92.4678326  11.7797369
  30.0799992  78.2579978  10.8340014  29.4059992  77.6279978  11.0900014
  30.6439992  77.7739978  10.2310014  30.0640384  78.1063708  10.7875020
  35.2229992  76.3649978  10.9470014  35.8259992  76.9129978  10.4450014
  34.3529992  76.6839978  10.7060014  35.1879157  76.4830373  10.8457910
  36.9499992  77.5039978   9.2800014  37.5609992  76.9899978   8.7530014
  37.3319992  78.3809978   9.3030014  37.0853305  77.5522050   9.2109418
  22.4069992  76.8919978   8.6560014  21.6299992  76.6569978   8.1490014
  22.9369992  76.0949978   8.6650014  22.3723451  76.7521268   8.5878627
  21.2429992  76.6899978   4.4600014  21.6819992  77.3009978   3.8680014
  20.6089992  77.2279978   4.9340014  21.2173859  76.8464064   4.4430305
  26.9859992  76.8179978   8.4690014  27.8599992  77.2069978   8.4400014
  26.8499992  76.6029978   9.3920014  27.0871953  76.8421643   8.5897617
  32.5429992  76.8479978  10.1190014  32.6189992  76.9439978   9.1690014
  32.2679992  75.9409978  10.2470014  32.5161871  76.7384146  10.0063944
  33.8959992  76.8739978   5.8110014  33.1929992  77.4889978   5.6010014
  33.4509992  76.0369978   5.9420014  33.7396550  76.8449668   5.7999837
  21.1439992  92.6379978   5.3570014  20.4589992  92.5999978   4.6900014
  21.1479992  93.5509978   5.6450014  21.0507621  92.7561924   5.3046126
  23.1039992  78.6059978   2.9020014  23.5949992  77.9759978   2.3750014
  23.7269992  78.9019978   3.5650014  23.2555304  78.5597376   2.9194940
  28.1299992  78.8989978   5.3590014  28.3079992  78.2519978   6.0420014
  28.0759992  79.7329978   5.8260014  28.1470678  78.9231604   5.5156301
  30.0079992  93.8469978   3.7550014  30.8739992  94.2139978   3.5770014
  29.7619992  93.4079978   2.9410014  30.0932097  93.8378525   3.6206019
  36.7169992  93.4099978   6.4340014  36.5229992  92.6619978   5.8690014
  36.6779992  94.1679978   5.8510014  36.6851645  93.4100786   6.2778148
  22.3639992  77.4059978  18.1740014  21.9979992  76.6399978  18.6160014
  23.2769992  77.4349978  18.4600014  22.4373172  77.3050324  18.2731890
  24.3369992  76.7559978  19.7090014  25.2359992  76.4819978  19.5250014
  23.9509992  76.0139978  20.1740014  24.4077307  76.6182196  19.7467098
  22.9619992  93.5579978   2.3820014  22.6939992  93.8439978   3.2560014
  23.7329992  93.0119978   2.5350014  23.0295926  93.5232779   2.5221205
  32.7589992  76.0889978  19.8920014  32.8349992  75.6629978  20.7450014
  33.6519992  76.1019978  19.5490014  32.8902303  76.0323493  19.9625497
  35.9349992  92.1619978  18.5840014  35.1529992  91.9749978  18.0640014
  35.8629992  93.0909978  18.8010014  35.8181924  92.2620637  18.5421602
  50.3409992  86.0479978   8.6150014  50.4299992  86.9919978   8.4830014
  49.7029992  85.7729978   7.9570014  50.2669061  86.1399812   8.5079641
  49.2739992  85.3029978  12.0340014  49.2359992  84.6569978  12.7390014
  48.9519992  84.8359978  11.2630014  49.2252679  85.1514276  12.0262921
  41.6419992  84.9169978  13.6270014  41.6839992  84.2919978  14.3500014
  42.3449992  85.5409978  13.8090014  41.7427345  84.9157873  13.7505273
  52.9799992  88.2419978  10.3350014  52.5389992  87.5219978  10.7860014
  52.9669992  88.9629978  10.9650014  52.9179215  88.2409291  10.4818105
  42.5659992  89.3669978  12.1620014  42.1959992  88.5649978  11.7920014
  43.5069992  89.1989978  12.2080014  42.6425984  89.2344638  12.1175603
  39.1759992  83.0269978   7.5540014  38.7279992  83.8729978   7.5360014
  38.6149992  82.4479978   7.0390014  39.0388546  83.0643993   7.4818891
  39.8859992  85.1889978   9.6800014  40.0999992  84.4189978  10.2080014
  40.6239992  85.2789978   9.0770014  40.0150200  85.0958587   9.6707035
  50.0919992  93.3459978  10.5470014  50.7109992  92.6699978  10.2740014
  49.8829992  93.1279978  11.4560014  50.1486056  93.2238869  10.6323967
  47.6629992  87.7349978  12.4400014  47.9669992  87.0489978  11.8450014
  48.3849992  87.8539978  13.0580014  47.8021240  87.6572314  12.4420959
  56.3259992  79.3369978  13.3000014  56.3759992  79.9469978  14.0360014
  56.7519992  79.7979978  12.5770014  56.3904108  79.4827709  13.3030112
  50.8039992  82.1289978  12.7670014  50.9469992  81.1829978  12.7870014
  50.6979992  82.3359978  11.8390014  50.8092403  82.0274797  12.6442239
  43.9589992  80.2309978  10.0400014  44.0019992  81.0909978   9.6210014
  43.5009992  79.6789978   9.4060014  43.9029871  80.2739245   9.8970761
  51.6809992  80.3619978   8.4410014  52.3279992  80.0329978   9.0650014
  52.1909992  80.8789978   7.8180014  51.8384351  80.3869067   8.4421037
  40.5789992  82.6279978  10.8020014  41.2329992  82.0779978  11.2340014
  40.6029992  82.3539978   9.8850014  40.6717199  82.5157167  10.7371668
  45.7359992  84.1779978  10.0170014  46.3519992  83.6509978  10.5260014
  45.1489992  83.5379978   9.6130014  45.7410154  84.0193954  10.0320945
  56.7179992  80.8149978  15.5360014  56.0289992  81.4729978  15.4410014
  56.7329992  80.6169978  16.4730014  56.6257756  80.8782603  15.6495812
  42.7689992  79.1489978  14.1140014  42.5499992  79.6789978  13.3470014
  42.1009992  79.3749978  14.7610014  42.6486975  79.2520967  14.0965140
  50.1379992  88.6489978   7.6580014  49.8429992  88.3259978   6.8060014
  49.8139992  89.5489978   7.6990014  50.0538460  88.7264464   7.5469714
  45.3379992  86.8239978  14.4010014  44.5979992  87.4229978  14.5050014
  46.0519992  87.3779978  14.0860014  45.3333500  86.9807829  14.3726371
  53.4449992  79.6529978  10.4210014  53.2299992  78.8869978  10.9540014
  54.1009992  80.1249978  10.9340014  53.5042673  79.6120728  10.5631990
  42.3629992  81.0409978  12.0660014  42.9769992  81.6739978  12.4390014
  42.8749992  80.5689978  11.4100014  42.5161962  81.0637249  12.0282935
  43.7459992  88.7889978  15.1880014  43.7399992  89.6679978  14.8100014
  42.8919992  88.7049978  15.6130014  43.6297925  88.8979535  15.1936887
  39.8669992  88.4599978   5.9700014  39.5949992  88.6889978   5.0820014
  39.9119992  89.2969978   6.4310014  39.8358097  88.6046163   5.9106683
  53.4919992  90.0809978  12.6830014  52.5499992  90.1399978  12.8450014
  53.7679992  90.9869978  12.5460014  53.4005865  90.2115288  12.6866192
  53.7919992  78.3679978  14.1000014  53.0559992  78.9779978  14.0630014
  54.4759992  78.7829978  13.5740014  53.7835367  78.5077551  14.0238174
  46.7959992  76.4539978  11.5660014  46.6779992  75.5059978  11.5120014
  45.9409992  76.7869978  11.8390014  46.6642805  76.3692202  11.5955079
  51.7439992  91.8619978   9.3080014  52.1689992  91.1549978   8.8230014
  52.0609992  92.6639978   8.8910014  51.8450266  91.8735190   9.1852479
  52.9039992  89.7629978   7.8170014  52.6459992  89.0729978   7.2050014
  52.9749992  89.3199978   8.6620014  52.8783050  89.6086814   7.8475621
  54.5899992  88.3299978  16.2940014  54.7289992  87.7379978  15.5550014
  54.7569992  89.2029978  15.9380014  54.6316193  88.3668896  16.1446211
  49.0619992  85.2919978   6.0670014  48.3509992  85.8269978   5.7150014
  49.7529992  85.3469978   5.4070014  49.0580751  85.3726777   5.9295858
  49.1159992  83.7489978   3.1050014  49.8169992  83.7719978   3.7570014
  49.4179992  83.1209978   2.4490014  49.2528202  83.6672212   3.1055609
  56.4309992  84.6699978  14.3600014  55.7789992  85.3639978  14.4490014
  56.8969992  84.8799978  13.5500014  56.4045937  84.7935019  14.2627533
  52.4679992  85.5009978   7.0180014  51.7359992  85.7299978   7.5920014
  52.9149992  84.7879978   7.4730014  52.4283963  85.4358729   7.1579945
  52.3649992  83.6759978  16.0860014  52.4449992  84.4389978  16.6580014
  51.7639992  83.9549978  15.3960014  52.2946547  83.8182457  16.0710047
  44.1129992  86.1319978   8.9010014  43.7829992  85.7609978   8.0830014
  44.7019992  85.4609978   9.2480014  44.1473970  85.9906063   8.8359404
  45.4799992  89.5599978  11.5820014  45.3849992  88.9809978  10.8260014
  46.2089992  89.1889978  12.0780014  45.5656011  89.4305561  11.5456028
  44.4799992  84.8999978  12.5340014  45.0449992  85.0219978  11.7720014
  44.7989992  85.5379978  13.1730014  44.6004166  85.0028791  12.5160348
  50.7889992  90.4039978  13.2680014  50.5489992  91.0659978  13.9160014
  50.5909992  89.5689978  13.6930014  50.7293826  90.3818115  13.4141566
  45.3599992  89.2999978  17.2520014  45.0489992  90.0819978  17.7070014
  44.7099992  89.1469978  16.5660014  45.2295538  89.3864087  17.2215898
  51.3389992  84.6639978   4.7040014  51.9179992  84.8139978   5.4500014
  51.7529992  85.1339978   3.9800014  51.4743358  84.7480955   4.7083953
  42.2799992  85.4979978  16.4800014  42.3499992  86.1489978  17.1790014
  41.3889992  85.6009978  16.1450014  42.1691690  85.6009249  16.5303043
  49.0649992  91.3999978   8.1390014  49.5389992  91.6959978   8.9160014
  48.5019992  92.1389978   7.9060014  49.0537890  91.5403036   8.2138101
  43.5989992  91.3709978  18.0150014  43.6069992  91.2349978  17.0680014
  42.6829992  91.2539978  18.2670014  43.4762528  91.3365463  17.9193243
  55.0379992  76.4139978   4.5170014  54.1379992  76.5529978   4.8120014
  55.2899992  77.2449978   4.1150014  54.9488683  76.5454055   4.5030232
  43.1039992  85.2009978   6.4900014  42.8119992  85.9689978   5.9990014
  42.4289992  84.5419978   6.3270014  42.9728497  85.2169745   6.4008260
  56.2269992  90.7799978   2.8930014  56.2999992  91.7189978   3.0630014
  57.1319992  90.4749978   2.8370014  56.3594170  90.8673282   2.9087063
  39.1969992  87.5639978  15.3050014  38.6949992  87.5359978  14.4900014
  39.2019992  86.6589978  15.6150014  39.1289832  87.4377486  15.2354121
  38.9469992  90.3449978  12.1890014  39.8929992  90.1999978  12.1700014
  38.8339992  91.1289978  12.7260014  39.0613578  90.4311697  12.2590317
  57.1449992  91.0109978  17.8720014  57.0949992  90.0549978  17.8340014
  56.3179992  91.2779978  18.2730014  57.0263831  90.9164680  17.9210121
  48.1229992  90.5849978  16.7480014  48.2109992  91.4109978  17.2230014
  47.2599992  90.2549978  16.9970014  48.0183357  90.6535468  16.8467653
  48.5379992  94.3569978   6.5540014  48.4619992  94.2359978   5.6070014
  48.5699992  95.3059978   6.6720014  48.5319380  94.4687677   6.4405181
  42.1909992  93.1459978   8.3350014  42.3429992  92.7979978   9.2130014
  41.3399992  92.7889978   8.0790014  42.0968344  93.0500879   8.4206868
  51.6389992  93.5109978   3.5560014  52.0139992  92.7669978   3.0850014
  51.6439992  93.2409978   4.4740014  51.6910098  93.3726392   3.6156629
  51.3079992  93.4369978   6.3050014  50.3729992  93.5369978   6.4840014
  51.5879992  92.7269978   6.8840014  51.2179471  93.3547933   6.4076695
  54.2969992  82.5039978  18.3520014  53.8889992  82.9839978  17.6310014
  54.3369992  81.5979978  18.0440014  54.2466221  82.4472449  18.2118267
  41.4459992  88.8879978  16.3480014  41.6619992  88.5259978  17.2080014
  40.5899992  88.5129978  16.1390014  41.3598810  88.7878837  16.4372680
  44.0639992  77.3579978  12.3440014  43.2029992  77.2709978  11.9360014
  44.0419992  78.2139978  12.7720014  43.9430491  77.4618003  12.3459582
  48.7269992  77.0799978  15.7190014  49.1469992  76.6649978  16.4720014
  47.7939992  76.9009978  15.8360014  48.6583736  76.9989910  15.8378968
  52.0539992  80.8349978  16.5720014  51.5399992  80.7099978  17.3700014
  51.8979992  81.7479978  16.3280014  51.9626967  80.9412123  16.6480937
  52.8159992  85.6959978   2.3330014  52.8579992  85.4739978   1.4030014
  53.6649992  86.0949978   2.5230014  52.9365253  85.7195498   2.2313822
  48.3889992  79.5719978   3.0040014  48.1349992  79.5909978   3.9260014
  48.1319992  78.7009978   2.7020014  48.3194508  79.4568280   3.0894803
  44.1549992  82.3229978  13.4390014  43.5139992  82.2829978  14.1480014
  44.1929992  83.2499978  13.2010014  44.0723010  82.4427668  13.5039946
  44.1519992  82.5439978   8.3510014  43.2599992  82.2039978   8.2920014
  44.6029992  82.1669978   7.5950014  44.0907642  82.4464910   8.2407726
  49.6879992  82.9599978   7.1680014  49.2789992  83.7749978   6.8760014
  50.4079992  82.8199978   6.5540014  49.7294439  83.0525372   7.0450115
  48.7899992  83.1359978  18.6560014  48.2269992  82.4309978  18.9770014
  49.6159992  83.0149978  19.1240014  48.8246674  83.0232165  18.7631751
  50.6929992  82.4059978   9.9820014  50.4969992  83.0119978   9.2670014
  50.8739992  81.5729978   9.5480014  50.6906584  82.3762513   9.8254212
  41.9049992  82.6439978  15.3060014  41.8669992  83.0439978  16.1750014
  41.4149992  81.8269978  15.3960014  41.8335330  82.5882674  15.4371289
  45.2709992  80.0179978   2.1050014  44.8399992  79.5729978   2.8340014
  44.5529992  80.3889978   1.5920014  45.1149176  80.0072051   2.1354930
  38.5139992  79.7599978   9.1570014  39.1439992  79.7309978   9.8760014
  38.9629992  79.3349978   8.4260014  38.6610835  79.6985660   9.1567659
  39.7879992  80.5059978   4.5810014  40.2619992  81.0969978   3.9960014
  39.0699992  81.0359978   4.9280014  39.7558640  80.6585511   4.5477969
  49.9569992  84.0439978  14.6530014  50.2799992  83.4129978  14.0100014
  49.5159992  83.5099978  15.3140014  49.9416379  83.8853468  14.6542582
  46.7339992  79.9719978   9.4370014  45.8229992  80.0289978   9.7260014
  47.2389992  79.9119978  10.2480014  46.6776873  79.9716826   9.5861207
  41.5619992  81.6009978   8.2640014  40.6729992  81.6999978   7.9240014
  41.8589992  80.7589978   7.9180014  41.4804177  81.5007687   8.1706940
  45.2149992  81.6009978   5.9210014  46.1469992  81.7299978   6.0990014
  44.9999992  82.2699978   5.2710014  45.3134472  81.7090806   5.8574891
  51.1389992  79.2069978  12.7020014  50.4619992  79.3379978  13.3650014
  50.6539992  79.0519978  11.8910014  50.9807405  79.2039947  12.6832170
  43.8889992  82.7949978   3.4870014  43.3469992  82.4159978   2.7960014
  44.7229992  82.9899978   3.0590014  43.9274390  82.7694079   3.3344392
  54.4269992  94.8779978  18.9780014  54.6259992  95.3019978  18.1440014
  55.0819992  95.2219978  19.5850014  54.5428522  94.9826301  18.9457852
  42.0249992  87.3519978  18.5860014  42.7569992  87.6069978  19.1480014
  41.2439992  87.5569978  19.1020014  42.0196526  87.4145450  18.7325176
  48.0539992  82.7589978  11.3240014  48.6179992  82.2129978  10.7770014
  47.9059992  82.2379978  12.1130014  48.1113037  82.6136787  11.3557229
  43.0559992  78.8959978   7.7430014  42.7389992  77.9929978   7.7070014
  43.8369992  78.8979978   7.1900014  43.1182431  78.7727797   7.6633102
  46.6799992  81.1479978  13.7380014  45.8449992  81.6019978  13.8490014
  47.2039992  81.4239978  14.4900014  46.6366072  81.2473948  13.8548136
  47.2249992  87.3609978   5.4230014  46.4799992  86.8529978   5.1010014
  47.0899992  87.4099978   6.3690014  47.1048963  87.2981731   5.5068826
  54.3749992  86.4939978  14.2100014  55.0159992  86.9499978  13.6660014
  53.5439992  86.6069978  13.7470014  54.3505287  86.5716921  14.0729887
  51.1219992  80.1749978   3.6220014  50.1839992  80.2859978   3.4710014
  51.4199992  81.0309978   3.9290014  51.0336318  80.3060158   3.6428145
  48.7439992  87.5449978  16.6600014  48.3979992  87.1629978  17.4670014
  48.5439992  88.4779978  16.7310014  48.6695987  87.6189002  16.7800461
  51.8409992  82.0419978   5.2830014  52.7329992  81.9039978   5.6020014
  51.8969992  82.8329978   4.7460014  51.9707325  82.1299918   5.2541217
  42.3489992  86.6559978  11.1930014  43.0939992  86.6529978  10.5910014
  42.4269992  85.8319978  11.6740014  42.4613365  86.5442384  11.1757430
  49.3499992  88.8189978   4.4480014  49.0549992  89.6459978   4.8300014
  48.6469992  88.1999978   4.6450014  49.2146379  88.8484171   4.5268654
  39.3569992  85.1159978  16.5080014  39.5799992  84.6979978  17.3390014
  38.7549992  84.5039978  16.0850014  39.3061513  84.9759606  16.5646740
  46.3739992  84.6329978  18.7210014  46.0779992  84.4679978  17.8250014
  47.3049992  84.4129978  18.7100014  46.4594401  84.5806879  18.5970206
  50.9939992  90.0069978  16.6100014  50.0939992  90.1899978  16.3430014
  51.0279992  90.2659978  17.5310014  50.8753748  90.0670554  16.6979164
  56.7259992  82.2509978   4.9780014  56.1709992  81.8549978   4.3050014
  56.8259992  83.1619978   4.7000014  56.6636816  82.3199505   4.8485033
  56.6889992  88.0519978  17.8150014  55.8379992  88.2899978  17.4470014
  57.2789992  88.0349978  17.0620014  56.6523812  88.0822524  17.6628453
  55.0209992  91.0369978   5.4430014  54.6479992  90.2119978   5.7520014
  55.2979992  90.8539978   4.5450014  55.0073463  90.8992569   5.3639525
  52.1809992  85.8449978  12.4640014  51.2529992  85.6139978  12.4370014
  52.6319992  85.0679978  12.1340014  52.1148165  85.7082774  12.4156790
  44.7239992  90.1739978   8.5970014  45.2519992  90.9469978   8.3970014
  43.8439992  90.3979978   8.2950014  44.6773435  90.3102700   8.5287310
  40.4789992  85.0359978   3.1840014  41.0949992  85.6629978   3.5640014
  39.6169992  85.3519978   3.4560014  40.4467678  85.1644412   3.2727209
  46.1519992  87.8369978   8.1730014  45.9109992  88.7619978   8.2150014
  45.4109992  87.3779978   8.5700014  46.0189206  87.9015915   8.2323769
  46.6659992  91.9859978  14.4880014  47.0289992  92.8399978  14.2550014
  47.1979992  91.6939978  15.2290014  46.7875141  92.0633895  14.5562097
  44.8349992  92.8579978   7.7190014  43.8849992  92.9639978   7.7700014
  45.1869992  93.6789978   8.0630014  44.7525472  92.9834923   7.7724852
  50.2099992  88.0849978  14.1890014  49.7849992  87.8569978  15.0150014
  50.7909992  87.3459978  14.0070014  50.2303395  87.9539545  14.2774414
  52.4129992  89.0139978   3.2630014  52.7669992  88.6339978   4.0670014
  51.4649992  88.9199978   3.3500014  52.3332298  88.9492452   3.3848687
  52.8689992  92.6369978  16.6580014  52.2669992  92.0809978  16.1630014
  53.1499992  93.3039978  16.0320014  52.8245757  92.6510744  16.5055675
  56.9169992  93.4929978   3.4640014  57.6609992  94.0789978   3.3240014
  56.2229992  94.0619978   3.7970014  56.9249809  93.6500818   3.4898590
  40.9909992  79.8699978  16.0660014  40.0989992  80.2079978  15.9980014
  40.8929992  79.0139978  16.4840014  40.8554475  79.8006543  16.1131704
  53.2789992  87.6859978   5.4900014  53.0019992  86.9579978   6.0460014
  54.2069992  87.8049978   5.6950014  53.3664499  87.6024213   5.5938044
  40.6429992  91.6739978  14.5010014  40.8599992  90.7419978  14.4700014
  40.8889992  91.9489978  15.3840014  40.7059809  91.5835686  14.6161691
  46.5039992  90.1259978   1.7100014  46.7429992  89.3769978   1.1630014
  46.2349992  89.7379978   2.5430014  46.5003233  89.9711853   1.7477809
  45.4409992  89.6959978   4.1660014  45.5879992  89.1759978   4.9560014
  45.4379992  90.6029978   4.4730014  45.4607102  89.7473953   4.3155925
  41.8939992  86.9479978   4.6770014  41.2079992  87.3009978   5.2440014
  42.4169992  87.7109978   4.4300014  41.8708402  87.0993901   4.7211801
  49.7259992  79.6109978  14.9560014  50.4249992  79.6849978  15.6060014
  49.3449992  78.7459978  15.1100014  49.7702097  79.5042389  15.0657997
  50.5099992  79.2629978   6.0530014  50.7299992  79.7339978   5.2490014
  51.0689992  79.6569978   6.7230014  50.6156731  79.3807287   6.0335033
  48.1789992  91.3929978   4.9160014  47.3619992  91.8899978   4.9680014
  48.7079992  91.8689978   4.2750014  48.1388125  91.5251989   4.8365306
  47.7099992  80.9909978   6.8880014  48.5219992  81.4949978   6.9340014
  47.4659992  80.8459978   7.8020014  47.7881467  81.0403749   7.0178575
  48.2459992  81.9769978  16.0720014  48.3649992  82.5509978  16.8290014
  48.9009992  81.2889978  16.1870014  48.3508684  81.9625194  16.1911674
  48.5939992  78.0719978   7.8260014  48.2469992  78.6889978   8.4700014
  49.2529992  78.5729978   7.3440014  48.6355090  78.2241575   7.8490681
  45.5169992  92.4369978   4.8970014  45.6779992  93.2369978   4.3970014
  45.3199992  92.7439978   5.7820014  45.5123906  92.5878678   4.9482333
  44.2519992  79.1349978   4.5130014  44.1679992  80.0229978   4.8600014
  45.1419992  78.8699978   4.7450014  44.3608163  79.2207179   4.5918596
  54.4499992  79.8839978  16.9070014  53.5339992  80.1459978  16.8200014
  54.7859992  79.8809978  16.0110014  54.3698499  79.9195163  16.7738766
  53.0529992  83.6339978  11.0030014  52.2549992  83.2189978  10.6750014
  53.4979992  82.9439978  11.4940014  53.0039684  83.4838628  11.0245227
  42.5099992  89.5619978   3.5730014  43.1019992  90.2619978   3.8500014
  42.9689992  89.1289978   2.8540014  42.6531652  89.5992675   3.5136533
  40.8259992  82.2269978   2.6890014  40.7809992  83.1659978   2.8680014
  39.9379992  81.9909978   2.4200014  40.6998166  82.3236687   2.6771524
  54.1389992  92.8899978  12.6250014  53.9829992  93.5689978  11.9680014
  55.0719992  92.9619978  12.8280014  54.2437387  92.9926390  12.5625342
  41.6339992  77.0079978  11.3630014  41.4049992  77.0669978  10.4350014
  41.1919992  76.2169978  11.6690014  41.5428801  76.9090540  11.2774729
  40.5649992  90.9489978   7.5230014  39.7319992  91.4209978   7.5500014
  41.1099992  91.4589978   6.9240014  40.5247857  91.0824791   7.4457142
  39.8529992  93.5609978  18.8530014  40.3929992  93.3449978  19.6130014
  39.3719992  92.7559978  18.6630014  39.8619219  93.4225156  18.9314282
  44.4499992  92.4809978  20.4730014  45.2179992  92.0219978  20.8140014
  44.4289992  92.2549978  19.5430014  44.5522135  92.3876668  20.3939491
  48.5419992  91.9889978   1.8490014  47.8979992  91.3579978   2.1700014
  49.3039992  91.4579978   1.6170014  48.5568058  91.8307902   1.8616038
  51.0269992  90.8609978  19.2020014  50.6759992  90.0039978  19.4460014
  51.7529992  91.0029978  19.8090014  51.0771895  90.7631351  19.3173770
  53.1469992  91.8059978   2.0820014  53.4299992  91.0109978   2.5350014
  53.8859992  92.0389978   1.5210014  53.2857096  91.7287049   2.0681104
  39.7599992  87.3719978  19.8070014  39.9039992  86.4699978  19.5210014
  38.9879992  87.6579978  19.3200014  39.6752733  87.2871798  19.7019532
  44.1009992  87.7149978   1.9400014  44.1659992  86.9209978   2.4700014
  44.7539992  87.5969978   1.2500014  44.1981605  87.5903430   1.9192997
  46.4149992  87.3409978  19.2400014  46.0869992  87.6119978  18.3830014
  46.5669992  86.3999978  19.1520014  46.3906412  87.2509046  19.1107822
  49.4539992  88.7619978   1.6760014  49.1849992  88.9429978   2.5760014
  49.2469992  87.8369978   1.5440014  49.3891191  88.6617119   1.7815524
  52.1499992  87.2569978  16.6230014  52.8949992  87.8459978  16.5040014
  51.3929992  87.8389978  16.6870014  52.1495470  87.4162128  16.6153799
  40.5929992  84.5719978  19.2270014  41.0009992  83.7149978  19.1060014
  40.3319992  84.5859978  20.1480014  40.6136016  84.4565119  19.3349192
  45.2509992  85.6879978   4.2460014  44.7909992  85.2039978   4.9310014
  45.5059992  85.0189978   3.6100014  45.2224856  85.5313669   4.2538397
  44.5399992  83.5809978  16.6020014  43.9209992  84.2549978  16.8820014
  44.8839992  83.9019978  15.7680014  44.5017123  83.7166887  16.5276388
  46.3219992  83.9309978   2.5080014  46.1409992  83.7759978   1.5810014
  47.2719992  84.0389978   2.5530014  46.4256566  83.9243669   2.3870929
  49.5589992  86.0519978  19.8790014  50.5129992  86.1359978  19.8520014
  49.3989992  85.3399978  20.4990014  49.6677182  85.9672842  19.9590733
  55.7119992  86.2849978   1.9540014  55.4379992  85.8609978   1.1410014
  55.7509992  87.2169978   1.7370014  55.6797716  86.3528827   1.8134286
  44.8789992  80.9359978  17.6840014  45.0289992  80.2069978  17.0820014
  44.8809992  81.7129978  17.1250014  44.8997967  80.9412708  17.5260541
  45.2919992  79.3049978  15.1770014  45.8269992  79.7569978  14.5250014
  44.4389992  79.1969978  14.7540014  45.2500374  79.3522665  15.0306710
  46.8729992  84.7449978  15.4160014  47.6239992  84.5889978  14.8430014
  46.5339992  85.5969978  15.1410014  46.9299587  84.8388138  15.3004078
  51.2889992  82.5599978  20.4450014  51.4809992  81.6289978  20.3330014
  52.1469992  82.9849978  20.4340014  51.4312182  82.4900070  20.4281862
  52.6059992  85.3489978  18.5220014  52.3239992  86.0579978  17.9440014
  53.5479992  85.2759978  18.3710014  52.6947921  85.4362193  18.4224225
  43.3579992  82.1339978  19.5950014  42.5899992  81.6009978  19.3850014
  44.0359992  81.8239978  18.9960014  43.3447235  82.0191754  19.4852413
  46.0969992  76.7619978  15.6080014  45.9989992  77.7079978  15.5030014
  45.3549992  76.3889978  15.1320014  45.9832534  76.8411773  15.5292600
  47.3609992  81.0829978  19.1720014  47.1259992  80.8639978  20.0730014
  46.5779992  80.8759978  18.6620014  47.2229095  81.0249892  19.2265353
  50.0769992  80.2109978  18.2470014  49.1289992  80.2429978  18.3790014
  50.3889992  79.5849978  18.9010014  49.9895293  80.1307923  18.3534148
  51.7109992  78.8449978  20.2520014  51.6139992  77.8929978  20.2470014
  51.3889992  79.1129978  21.1130014  51.6542468  78.7510884  20.3676210
  41.5379992  80.0539978  19.3000014  41.7499992  79.3479978  18.6900014
  41.4269992  79.6169978  20.1440014  41.5520269  79.8981921  19.3305873
  46.3189992  76.0559978  18.2790014  47.0309992  75.4159978  18.2650014
  46.2179992  76.3219978  17.3660014  46.4027387  76.0044330  18.1535563
  46.6729992  77.7379978  20.3330014  46.5409992  77.2629978  19.5130014
  46.0729992  78.4829978  20.2780014  46.5739070  77.7735789  20.2133251
  46.2189992  94.6209978   3.5090014  47.1519992  94.7789978   3.6530014
  45.9549992  95.2969978   2.8840014  46.3109911  94.7339373   3.4442722
  39.7869992  89.2579978   2.9920014  40.7009992  89.3369978   3.2650014
  39.7949992  88.5709978   2.3260014  39.9130655  89.1759205   2.9392917
  38.4359992  94.6509978   8.0690014  37.7889992  94.1889978   7.5370014
  38.7909992  93.9789978   8.6520014  38.3953741  94.4969774   8.0749175
  39.3059992  92.7309978   9.8740014  38.9719992  91.8509978  10.0460014
  39.5289992  93.0769978  10.7390014  39.2903721  92.6571938  10.0144168
  56.8549992  93.5409978  12.8550014  56.8329992  93.7259978  13.7940014
  57.5449992  94.1089978  12.5140014  56.9453439  93.6431887  12.9374791
  56.4179992  93.1079978  15.7760014  55.9309992  92.3729978  15.4050014
  56.9669992  92.7139978  16.4540014  56.4255247  92.9541057  15.8168461
  54.8689992  88.8979978  20.4150014  54.0029992  88.7929978  20.8090014
  55.2449992  89.6559978  20.8610014  54.8013401  88.9861708  20.5292620
  56.1699992  87.1539978   5.9290014  57.0199992  87.5749978   6.0560014
  56.1749992  86.4139978   6.5360014  56.2871143  87.1116094   6.0284750
  56.5639992  85.2079978   7.7520014  55.8379992  84.7279978   8.1500014
  57.1459992  85.4129978   8.4850014  56.5432730  85.1700184   7.9054149
  56.3229992  87.9929978  12.7000014  57.1569992  87.6149978  12.4190014
  56.4349992  88.9359978  12.5810014  56.4521917  88.0687943  12.6454861
  54.8099992  90.8709978  15.0070014  54.1619992  91.1959978  15.6320014
  54.2919992  90.4299978  14.3330014  54.6514196  90.8558651  15.0014152
  56.8329992  85.1089978   4.1430014  56.3109992  85.4649978   3.4250014
  56.7999992  85.7839978   4.8220014  56.7570129  85.2489598   4.1363355
  55.1819992  82.3479978   2.6940014  55.2779992  83.0149978   2.0140014
  55.0419992  81.5329978   2.2130014  55.1762040  82.3290671   2.5358378
  54.3509992  83.7289978   8.3150014  54.2009992  82.7839978   8.2950014
  53.9969992  84.0099978   9.1590014  54.2826351  83.6376644   8.4263220
  39.3859992  85.8069978  12.3260014  39.5709992  85.7249978  11.3900014
  40.2359992  85.6829978  12.7490014  39.5260928  85.7790463  12.2552893
  55.2069992  85.6989978  17.9540014  55.7899992  84.9639978  18.1460014
  55.7709992  86.4709978  18.0010014  55.3629781  85.7028145  17.9866164
  56.7039992  83.6019978  18.6390014  55.8409992  83.2229978  18.4730014
  57.3079992  82.8629978  18.5640014  56.6676085  83.4503223  18.6061694
  54.4289992  79.7559978   1.8120014  55.0399992  79.3849978   2.4490014
  53.5919992  79.3349978   2.0080014  54.3994947  79.6482756   1.9257252
  54.0619992  81.3109978   6.7780014  54.3409992  80.4039978   6.9020014
  54.8209992  81.7449978   6.3890014  54.2028619  81.2454502   6.7423795
  54.6729992  81.8929978  12.2140014  55.6059992  82.1049978  12.1790014
  54.4379992  81.9939978  13.1360014  54.7689517  81.9356833  12.3339130
  54.7029992  82.6299978  14.9900014  53.8599992  82.8979978  15.3560014
  55.1449992  83.4519978  14.7790014  54.6474138  82.7778273  15.0115518
  38.9839992  81.0769978  18.4660014  39.9029992  80.9549978  18.7030014
  38.5339992  80.3269978  18.8560014  39.0490087  80.9589608  18.5511410
  54.6749992  78.5739978   6.8260014  54.8569992  78.1249978   7.6510014
  54.0749992  77.9899978   6.3620014  54.6188187  78.4335552   6.8762739
  40.2049992  79.3899978  11.3580014  40.6499992  78.5979978  11.6600014
  40.6709992  80.1059978  11.7880014  40.3289718  79.3784534  11.4575265
  38.5089992  82.3889978  12.4270014  39.0009992  82.1679978  11.6360014
  38.8709992  83.2289978  12.7080014  38.6252923  82.4723468  12.3567407
  56.5419992  78.6419978   3.3540014  56.9539992  77.9209978   2.8790014
  57.2229992  79.3109978   3.4120014  56.6905536  78.6337766   3.2968024
  38.8229992  78.6469978   6.4810014  37.8979992  78.8549978   6.3520014
  39.2769992  79.1309978   5.7910014  38.7576298  78.7409299   6.3700451
  53.5929992  93.6309978   8.4270014  54.2459992  93.2829978   7.8190014
  54.1039992  94.1189978   9.0730014  53.7512777  93.6493815   8.4312047
  38.7859992  77.3849978  14.8250014  38.1209992  77.1389978  15.4680014
  38.3429992  78.0069978  14.2480014  38.6351168  77.4354214  14.8349848
  40.9779992  90.5599978  18.9700014  40.1569992  90.7349978  18.5090014
  40.7259992  90.4869978  19.8900014  40.8315594  90.5740717  19.0313611
  43.9319992  91.5339978  15.2280014  43.5079992  92.3439978  14.9460014
  44.8369992  91.6199978  14.9260014  43.9962138  91.6564160  15.1486415
  48.2439992  92.9329978  18.1880014  48.4279992  92.5999978  19.0660014
  49.0899992  93.2429978  17.8660014  48.3836484  92.9292979  18.2647617
  50.5889992  94.2189978  17.4320014  51.2659992  93.5859978  17.1920014
  50.9099992  94.6199978  18.2390014  50.7251323  94.1865691  17.5083158
  55.5059992  76.8089978  16.5110014  54.6929992  77.1339978  16.1240014
  55.7389992  76.0479978  15.9780014  55.4261347  76.7506880  16.3859841
  41.3339992  94.7909978  15.2760014  40.6139992  95.2309978  14.8250014
  40.9689992  94.5399978  16.1240014  41.1859643  94.8173369  15.3289129
  43.8009992  94.3909978  14.3060014  42.9369992  94.4629978  14.7100014
  43.7459992  94.9379978  13.5220014  43.6751942  94.4747849  14.2554000
  48.5119992  94.2789978  13.4810014  48.0549992  94.8079978  12.8270014
  48.6749992  94.8819978  14.2060014  48.4714960  94.4329280  13.4895274
  50.8399992  93.1569978  14.4260014  49.9349992  93.3219978  14.1600014
  51.2679992  94.0099978  14.3600014  50.7741537  93.2949134  14.3807095
  53.4439992  94.7269978  14.7210014  53.2619992  95.6429978  14.5100014
  53.6209992  94.3159978  13.8740014  53.4430030  94.7968273  14.5777166
  40.7489992  93.4139978  12.1860014  40.7309992  92.9879978  13.0430014
  41.5539992  93.0949978  11.7770014  40.8552875  93.3126435  12.2479515
  42.8899992  92.1239978  10.8410014  42.6709992  91.2069978  11.0110014
  43.7139992  92.2639978  11.3070014  42.9714702  92.0175511  10.9272527
  45.4269992  92.5939978  11.6900014  45.6399992  91.7059978  11.4030014
  45.4919992  92.5589978  12.6440014  45.4649149  92.4678326  11.7797369
  48.9359992  78.2579978  10.8340014  48.2619992  77.6279978  11.0900014
  49.4999992  77.7739978  10.2310014  48.9200384  78.1063708  10.7875020
  54.0789992  76.3649978  10.9470014  54.6819992  76.9129978  10.4450014
  53.2089992  76.6839978  10.7060014  54.0439157  76.4830373  10.8457910
  55.8059992  77.5039978   9.2800014  56.4169992  76.9899978   8.7530014
  56.1879992  78.3809978   9.3030014  55.9413305  77.5522050   9.2109418
  41.2629992  76.8919978   8.6560014  40.4859992  76.6569978   8.1490014
  41.7929992  76.0949978   8.6650014  41.2283451  76.7521268   8.5878627
  40.0989992  76.6899978   4.4600014  40.5379992  77.3009978   3.8680014
  39.4649992  77.2279978   4.9340014  40.0733859  76.8464064   4.4430305
  45.8419992  76.8179978   8.4690014  46.7159992  77.2069978   8.4400014
  45.7059992  76.6029978   9.3920014  45.9431953  76.8421643   8.5897617
  51.3989992  76.8479978  10.1190014  51.4749992  76.9439978   9.1690014
  51.1239992  75.9409978  10.2470014  51.3721871  76.7384146  10.0063944
  52.7519992  76.8739978   5.8110014  52.0489992  77.4889978   5.6010014
  52.3069992  76.0369978   5.9420014  52.5956550  76.8449668   5.7999837
  39.9999992  92.6379978   5.3570014  39.3149992  92.5999978   4.6900014
  40.0039992  93.5509978   5.6450014  39.9067621  92.7561924   5.3046126
  41.9599992  78.6059978   2.9020014  42.4509992  77.9759978   2.3750014
  42.5829992  78.9019978   3.5650014  42.1115304  78.5597376   2.9194940
  46.9859992  78.8989978   5.3590014  47.1639992  78.2519978   6.0420014
  46.9319992  79.7329978   5.8260014  47.0030678  78.9231604   5.5156301
  48.8639992  93.8469978   3.7550014  49.7299992  94.2139978   3.5770014
  48.6179992  93.4079978   2.9410014  48.9492097  93.8378525   3.6206019
  55.5729992  93.4099978   6.4340014  55.3789992  92.6619978   5.8690014
  55.5339992  94.1679978   5.8510014  55.5411645  93.4100786   6.2778148
  41.2199992  77.4059978  18.1740014  40.8539992  76.6399978  18.6160014
  42.1329992  77.4349978  18.4600014  41.2933172  77.3050324  18.2731890
  43.1929992  76.7559978  19.7090014  44.0919992  76.4819978  19.5250014
  42.8069992  76.0139978  20.1740014  43.2637307  76.6182196  19.7467098
  41.8179992  93.5579978   2.3820014  41.5499992  93.8439978   3.2560014
  42.5889992  93.0119978   2.5350014  41.8855926  93.5232779   2.5221205
  54.7909992  92.1619978  18.5840014  54.0089992  91.9749978  18.0640014
  54.7189992  93.0909978  18.8010014  54.6741924  92.2620637  18.5421602
  69.1969992  86.0479978   8.6150014  69.2859992  86.9919978   8.4830014
  68.5589992  85.7729978   7.9570014  69.1229062  86.1399812   8.5079641
  68.1299992  85.3029978  12.0340014  68.0919992  84.6569978  12.7390014
  67.8079992  84.8359978  11.2630014  68.0812679  85.1514276  12.0262921
  60.4979992  84.9169978  13.6270014  60.5399992  84.2919978  14.3500014
  61.2009992  85.5409978  13.8090014  60.5987345  84.9157873  13.7505274
  71.8359992  88.2419978  10.3350014  71.3949992  87.5219978  10.7860014
  71.8229992  88.9629978  10.9650014  71.7739215  88.2409291  10.4818105
  61.4219992  89.3669978  12.1620014  61.0519992  88.5649978  11.7920014
  62.3629992  89.1989978  12.2080014  61.4985984  89.2344638  12.1175603
  58.0319992  83.0269978   7.5540014  57.5839992  83.8729978   7.5360014
  57.4709992  82.4479978   7.0390014  57.8948546  83.0643993   7.4818891
  58.7419992  85.1889978   9.6800014  58.9559992  84.4189978  10.2080014
  59.4799992  85.2789978   9.0770014  58.8710200  85.0958587   9.6707035
  68.9479992  93.3459978  10.5470014  69.5669992  92.6699978  10.2740014
  68.7389992  93.1279978  11.4560014  69.0046056  93.2238869  10.6323967
  66.5189992  87.7349978  12.4400014  66.8229992  87.0489978  11.8450014
  67.2409992  87.8539978  13.0580014  66.6581240  87.6572314  12.4420959
  75.1819992  79.3369978  13.3000014  75.2319992  79.9469978  14.0360014
  75.6079992  79.7979978  12.5770014  75.2464108  79.4827709  13.3030112
  69.6599992  82.1289978  12.7670014  69.8029992  81.1829978  12.7870014
  69.5539992  82.3359978  11.8390014  69.6652403  82.0274797  12.6442239
  62.8149992  80.2309978  10.0400014  62.8579992  81.0909978   9.6210014
  62.3569992  79.6789978   9.4060014  62.7589871  80.2739245   9.8970761
  70.5369992  80.3619978   8.4410014  71.1839992  80.0329978   9.0650014
  71.0469992  80.8789978   7.8180014  70.6944351  80.3869067   8.4421037
  59.4349992  82.6279978  10.8020014  60.0889992  82.0779978  11.2340014
  59.4589992  82.3539978   9.8850014  59.5277199  82.5157167  10.7371668
  64.5919992  84.1779978  10.0170014  65.2079992  83.6509978  10.5260014
  64.0049992  83.5379978   9.6130014  64.5970154  84.0193954  10.0320945
  75.5739992  80.8149978  15.5360014  74.8849992  81.4729978  15.4410014
  75.5889992  80.6169978  16.4730014  75.4817756  80.8782603  15.6495812
  68.9939992  88.6489978   7.6580014  68.6989992  88.3259978   6.8060014
  68.6699992  89.5489978   7.6990014  68.9098460  88.7264464   7.5469714
  64.1939992  86.8239978  14.4010014  63.4539992  87.4229978  14.5050014
  64.9079992  87.3779978  14.0860014  64.1893500  86.9807829  14.3726371
  72.3009992  79.6529978  10.4210014  72.0859992  78.8869978  10.9540014
  72.9569992  80.1249978  10.9340014  72.3602673  79.6120728  10.5631990
  61.2189992  81.0409978  12.0660014  61.8329992  81.6739978  12.4390014
  61.7309992  80.5689978  11.4100014  61.3721962  81.0637249  12.0282935
  62.6019992  88.7889978  15.1880014  62.5959992  89.6679978  14.8100014
  61.7479992  88.7049978  15.6130014  62.4857925  88.8979535  15.1936887
  58.7229992  88.4599978   5.9700014  58.4509992  88.6889978   5.0820014
  58.7679992  89.2969978   6.4310014  58.6918097  88.6046163   5.9106683
  72.3479992  90.0809978  12.6830014  71.4059992  90.1399978  12.8450014
  72.6239992  90.9869978  12.5460014  72.2565865  90.2115288  12.6866192
  72.6479992  78.3679978  14.1000014  71.9119992  78.9779978  14.0630014
  73.3319992  78.7829978  13.5740014  72.6395367  78.5077551  14.0238174
  65.6519992  76.4539978  11.5660014  65.5339992  75.5059978  11.5120014
  64.7969992  76.7869978  11.8390014  65.5202805  76.3692202  11.5955079
  70.5999992  91.8619978   9.3080014  71.0249992  91.1549978   8.8230014
  70.9169992  92.6639978   8.8910014  70.7010266  91.8735190   9.1852479
  71.7599992  89.7629978   7.8170014  71.5019992  89.0729978   7.2050014
  71.8309992  89.3199978   8.6620014  71.7343050  89.6086814   7.8475621
  73.4459992  88.3299978  16.2940014  73.5849992  87.7379978  15.5550014
  73.6129992  89.2029978  15.9380014  73.4876193  88.3668896  16.1446211
  67.9179992  85.2919978   6.0670014  67.2069992  85.8269978   5.7150014
  68.6089992  85.3469978   5.4070014  67.9140751  85.3726777   5.9295858
  67.9719992  83.7489978   3.1050014  68.6729992  83.7719978   3.7570014
  68.2739992  83.1209978   2.4490014  68.1088202  83.6672212   3.1055609
  75.2869992  84.6699978  14.3600014  74.6349992  85.3639978  14.4490014
  75.7529992  84.8799978  13.5500014  75.2605937  84.7935019  14.2627533
  71.3239992  85.5009978   7.0180014  70.5919992  85.7299978   7.5920014
  71.7709992  84.7879978   7.4730014  71.2843963  85.4358729   7.1579945
  71.2209992  83.6759978  16.0860014  71.3009992  84.4389978  16.6580014
  70.6199992  83.9549978  15.3960014  71.1506547  83.8182457  16.0710047
  62.9689992  86.1319978   8.9010014  62.6389992  85.7609978   8.0830014
  63.5579992  85.4609978   9.2480014  63.0033970  85.9906063   8.8359404
  64.3359992  89.5599978  11.5820014  64.2409992  88.9809978  10.8260014
  65.0649992  89.1889978  12.0780014  64.4216011  89.4305561  11.5456028
  63.3359992  84.8999978  12.5340014  63.9009992  85.0219978  11.7720014
  63.6549992  85.5379978  13.1730014  63.4564166  85.0028791  12.5160348
  69.6449992  90.4039978  13.2680014  69.4049992  91.0659978  13.9160014
  69.4469992  89.5689978  13.6930014  69.5853826  90.3818115  13.4141566
  64.2159992  89.2999978  17.2520014  63.9049992  90.0819978  17.7070014
  63.5659992  89.1469978  16.5660014  64.0855538  89.3864087  17.2215898
  70.1949992  84.6639978   4.7040014  70.7739992  84.8139978   5.4500014
  70.6089992  85.1339978   3.9800014  70.3303358  84.7480954   4.7083953
  61.1359992  85.4979978  16.4800014  61.2059992  86.1489978  17.1790014
  60.2449992  85.6009978  16.1450014  61.0251690  85.6009249  16.5303043
  67.9209992  91.3999978   8.1390014  68.3949992  91.6959978   8.9160014
  67.3579992  92.1389978   7.9060014  67.9097890  91.5403036   8.2138101
  62.4549992  91.3709978  18.0150014  62.4629992  91.2349978  17.0680014
  61.5389992  91.2539978  18.2670014  62.3322528  91.3365463  17.9193243
  73.8939992  76.4139978   4.5170014  72.9939992  76.5529978   4.8120014
  74.1459992  77.2449978   4.1150014  73.8048683  76.5454055   4.5030232
  61.9599992  85.2009978   6.4900014  61.6679992  85.9689978   5.9990014
  61.2849992  84.5419978   6.3270014  61.8288497  85.2169745   6.4008260
  75.0829992  90.7799978   2.8930014  75.1559992  91.7189978   3.0630014
  75.9879992  90.4749978   2.8370014  75.2154170  90.8673282   2.9087063
  58.0529992  87.5639978  15.3050014  57.5509992  87.5359978  14.4900014
  58.0579992  86.6589978  15.6150014  57.9849832  87.4377486  15.2354121
  57.8029992  90.3449978  12.1890014  58.7489992  90.1999978  12.1700014
  57.6899992  91.1289978  12.7260014  57.9173578  90.4311697  12.2590317
  76.0009992  91.0109978  17.8720014  75.9509992  90.0549978  17.8340014
  75.1739992  91.2779978  18.2730014  75.8823831  90.9164680  17.9210121
  66.9789992  90.5849978  16.7480014  67.0669992  91.4109978  17.2230014
  66.1159992  90.2549978  16.9970014  66.8743357  90.6535468  16.8467653
  67.3939992  94.3569978   6.5540014  67.3179992  94.2359978   5.6070014
  67.4259992  95.3059978   6.6720014  67.3879380  94.4687677   6.4405181
  61.0469992  93.1459978   8.3350014  61.1989992  92.7979978   9.2130014
  60.1959992  92.7889978   8.0790014  60.9528344  93.0500879   8.4206868
  70.4949992  93.5109978   3.5560014  70.8699992  92.7669978   3.0850014
  70.4999992  93.2409978   4.4740014  70.5470098  93.3726392   3.6156629
  70.1639992  93.4369978   6.3050014  69.2289992  93.5369978   6.4840014
  70.4439992  92.7269978   6.8840014  70.0739471  93.3547933   6.4076695
  73.1529992  82.5039978  18.3520014  72.7449992  82.9839978  17.6310014
  73.1929992  81.5979978  18.0440014  73.1026221  82.4472449  18.2118267
  60.3019992  88.8879978  16.3480014  60.5179992  88.5259978  17.2080014
  59.4459992  88.5129978  16.1390014  60.2158810  88.7878837  16.4372680
  62.9199992  77.3579978  12.3440014  62.0589992  77.2709978  11.9360014
  62.8979992  78.2139978  12.7720014  62.7990491  77.4618003  12.3459582
  67.5829992  77.0799978  15.7190014  68.0029992  76.6649978  16.4720014
  66.6499992  76.9009978  15.8360014  67.5143736  76.9989910  15.8378968
  70.9099992  80.8349978  16.5720014  70.3959992  80.7099978  17.3700014
  70.7539992  81.7479978  16.3280014  70.8186967  80.9412123  16.6480937
  71.6719992  85.6959978   2.3330014  71.7139992  85.4739978   1.4030014
  72.5209992  86.0949978   2.5230014  71.7925253  85.7195498   2.2313822
  67.2449992  79.5719978   3.0040014  66.9909992  79.5909978   3.9260014
  66.9879992  78.7009978   2.7020014  67.1754508  79.4568280   3.0894803
  63.0109992  82.3229978  13.4390014  62.3699992  82.2829978  14.1480014
  63.0489992  83.2499978  13.2010014  62.9283010  82.4427668  13.5039946
  63.0079992  82.5439978   8.3510014  62.1159992  82.2039978   8.2920014
  63.4589992  82.1669978   7.5950014  62.9467642  82.4464910   8.2407726
  68.5439992  82.9599978   7.1680014  68.1349992  83.7749978   6.8760014
  69.2639992  82.8199978   6.5540014  68.5854439  83.0525372   7.0450115
  67.6459992  83.1359978  18.6560014  67.0829992  82.4309978  18.9770014
  68.4719992  83.0149978  19.1240014  67.6806674  83.0232165  18.7631751
  69.5489992  82.4059978   9.9820014  69.3529992  83.0119978   9.2670014
  69.7299992  81.5729978   9.5480014  69.5466584  82.3762513   9.8254212
  60.7609992  82.6439978  15.3060014  60.7229992  83.0439978  16.1750014
  60.2709992  81.8269978  15.3960014  60.6895330  82.5882674  15.4371289
  64.1269992  80.0179978   2.1050014  63.6959992  79.5729978   2.8340014
  63.4089992  80.3889978   1.5920014  63.9709176  80.0072051   2.1354930
  57.3699992  79.7599978   9.1570014  57.9999992  79.7309978   9.8760014
  57.8189992  79.3349978   8.4260014  57.5170835  79.6985660   9.1567659
  58.6439992  80.5059978   4.5810014  59.1179992  81.0969978   3.9960014
  57.9259992  81.0359978   4.9280014  58.6118640  80.6585511   4.5477969
  68.8129992  84.0439978  14.6530014  69.1359992  83.4129978  14.0100014
  68.3719992  83.5099978  15.3140014  68.7976379  83.8853468  14.6542582
  65.5899992  79.9719978   9.4370014  64.6789992  80.0289978   9.7260014
  66.0949992  79.9119978  10.2480014  65.5336873  79.9716826   9.5861207
  60.4179992  81.6009978   8.2640014  59.5289992  81.6999978   7.9240014
  60.7149992  80.7589978   7.9180014  60.3364177  81.5007687   8.1706940
  64.0709992  81.6009978   5.9210014  65.0029992  81.7299978   6.0990014
  63.8559992  82.2699978   5.2710014  64.1694472  81.7090806   5.8574891
  69.9949992  79.2069978  12.7020014  69.3179992  79.3379978  13.3650014
  69.5099992  79.0519978  11.8910014  69.8367405  79.2039947  12.6832170
  62.7449992  82.7949978   3.4870014  62.2029992  82.4159978   2.7960014
  63.5789992  82.9899978   3.0590014  62.7834390  82.7694079   3.3344392
  73.2829992  94.8779978  18.9780014  73.4819992  95.3019978  18.1440014
  73.9379992  95.2219978  19.5850014  73.3988522  94.9826301  18.9457852
  60.8809992  87.3519978  18.5860014  61.6129992  87.6069978  19.1480014
  60.0999992  87.5569978  19.1020014  60.8756526  87.4145450  18.7325176
  66.9099992  82.7589978  11.3240014  67.4739992  82.2129978  10.7770014
  66.7619992  82.2379978  12.1130014  66.9673037  82.6136787  11.3557229
  61.9119992  78.8959978   7.7430014  61.5949992  77.9929978   7.7070014
  62.6929992  78.8979978   7.1900014  61.9742431  78.7727797   7.6633102
  65.5359992  81.1479978  13.7380014  64.7009992  81.6019978  13.8490014
  66.0599992  81.4239978  14.4900014  65.4926072  81.2473948  13.8548136
  66.0809992  87.3609978   5.4230014  65.3359992  86.8529978   5.1010014
  65.9459992  87.4099978   6.3690014  65.9608963  87.2981731   5.5068826
  73.2309992  86.4939978  14.2100014  73.8719992  86.9499978  13.6660014
  72.3999992  86.6069978  13.7470014  73.2065287  86.5716921  14.0729887
  69.9779992  80.1749978   3.6220014  69.0399992  80.2859978   3.4710014
  70.2759992  81.0309978   3.9290014  69.8896318  80.3060158   3.6428145
  67.5999992  87.5449978  16.6600014  67.2539992  87.1629978  17.4670014
  67.3999992  88.4779978  16.7310014  67.5255987  87.6189002  16.7800461
  70.6969992  82.0419978   5.2830014  71.5889992  81.9039978   5.6020014
  70.7529992  82.8329978   4.7460014  70.8267325  82.1299918   5.2541217
  61.2049992  86.6559978  11.1930014  61.9499992  86.6529978  10.5910014
  61.2829992  85.8319978  11.6740014  61.3173365  86.5442384  11.1757430
  68.2059992  88.8189978   4.4480014  67.9109992  89.6459978   4.8300014
  67.5029992  88.1999978   4.6450014  68.0706379  88.8484171   4.5268654
  58.2129992  85.1159978  16.5080014  58.4359992  84.6979978  17.3390014
  57.6109992  84.5039978  16.0850014  58.1621513  84.9759606  16.5646740
  69.8499992  90.0069978  16.6100014  68.9499992  90.1899978  16.3430014
  69.8839992  90.2659978  17.5310014  69.7313748  90.0670554  16.6979164
  75.5819992  82.2509978   4.9780014  75.0269992  81.8549978   4.3050014
  75.6819992  83.1619978   4.7000014  75.5196816  82.3199505   4.8485033
  75.5449992  88.0519978  17.8150014  74.6939992  88.2899978  17.4470014
  76.1349992  88.0349978  17.0620014  75.5083812  88.0822524  17.6628453
  73.8769992  91.0369978   5.4430014  73.5039992  90.2119978   5.7520014
  74.1539992  90.8539978   4.5450014  73.8633463  90.8992569   5.3639525
  71.0369992  85.8449978  12.4640014  70.1089992  85.6139978  12.4370014
  71.4879992  85.0679978  12.1340014  70.9708165  85.7082774  12.4156790
  63.5799992  90.1739978   8.5970014  64.1079992  90.9469978   8.3970014
  62.6999992  90.3979978   8.2950014  63.5333435  90.3102700   8.5287310
  59.3349992  85.0359978   3.1840014  59.9509992  85.6629978   3.5640014
  58.4729992  85.3519978   3.4560014  59.3027678  85.1644412   3.2727209
  65.0079992  87.8369978   8.1730014  64.7669992  88.7619978   8.2150014
  64.2669992  87.3779978   8.5700014  64.8749206  87.9015915   8.2323769
  65.5219992  91.9859978  14.4880014  65.8849992  92.8399978  14.2550014
  66.0539992  91.6939978  15.2290014  65.6435141  92.0633895  14.5562097
  63.6909992  92.8579978   7.7190014  62.7409992  92.9639978   7.7700014
  64.0429992  93.6789978   8.0630014  63.6085472  92.9834923   7.7724852
  69.0659992  88.0849978  14.1890014  68.6409992  87.8569978  15.0150014
  69.6469992  87.3459978  14.0070014  69.0863395  87.9539545  14.2774414
  71.2689992  89.0139978   3.2630014  71.6229992  88.6339978   4.0670014
  70.3209992  88.9199978   3.3500014  71.1892298  88.9492452   3.3848687
  71.7249992  92.6369978  16.6580014  71.1229992  92.0809978  16.1630014
  72.0059992  93.3039978  16.0320014  71.6805757  92.6510744  16.5055675
  75.7729992  93.4929978   3.4640014  76.5169992  94.0789978   3.3240014
  75.0789992  94.0619978   3.7970014  75.7809809  93.6500818   3.4898590
  59.8469992  79.8699978  16.0660014  58.9549992  80.2079978  15.9980014
  59.7489992  79.0139978  16.4840014  59.7114475  79.8006543  16.1131704
  72.1349992  87.6859978   5.4900014  71.8579992  86.9579978   6.0460014
  73.0629992  87.8049978   5.6950014  72.2224499  87.6024213   5.5938044
  59.4989992  91.6739978  14.5010014  59.7159992  90.7419978  14.4700014
  59.7449992  91.9489978  15.3840014  59.5619809  91.5835686  14.6161691
  65.3599992  90.1259978   1.7100014  65.5989992  89.3769978   1.1630014
  65.0909992  89.7379978   2.5430014  65.3563233  89.9711853   1.7477809
  64.2969992  89.6959978   4.1660014  64.4439992  89.1759978   4.9560014
  64.2939992  90.6029978   4.4730014  64.3167102  89.7473953   4.3155925
  60.7499992  86.9479978   4.6770014  60.0639992  87.3009978   5.2440014
  61.2729992  87.7109978   4.4300014  60.7268402  87.0993901   4.7211801
  68.5819992  79.6109978  14.9560014  69.2809992  79.6849978  15.6060014
  68.2009992  78.7459978  15.1100014  68.6262097  79.5042389  15.0657997
  69.3659992  79.2629978   6.0530014  69.5859992  79.7339978   5.2490014
  69.9249992  79.6569978   6.7230014  69.4716731  79.3807287   6.0335033
  67.0349992  91.3929978   4.9160014  66.2179992  91.8899978   4.9680014
  67.5639992  91.8689978   4.2750014  66.9948125  91.5251989   4.8365306
  66.5659992  80.9909978   6.8880014  67.3779992  81.4949978   6.9340014
  66.3219992  80.8459978   7.8020014  66.6441467  81.0403749   7.0178575
  67.1019992  81.9769978  16.0720014  67.2209992  82.5509978  16.8290014
  67.7569992  81.2889978  16.1870014  67.2068684  81.9625194  16.1911674
  67.4499992  78.0719978   7.8260014  67.1029992  78.6889978   8.4700014
  68.1089992  78.5729978   7.3440014  67.4915090  78.2241575   7.8490681
  64.3729992  92.4369978   4.8970014  64.5339992  93.2369978   4.3970014
  64.1759992  92.7439978   5.7820014  64.3683906  92.5878678   4.9482333
  63.1079992  79.1349978   4.5130014  63.0239992  80.0229978   4.8600014
  63.9979992  78.8699978   4.7450014  63.2168163  79.2207179   4.5918596
  73.3059992  79.8839978  16.9070014  72.3899992  80.1459978  16.8200014
  73.6419992  79.8809978  16.0110014  73.2258499  79.9195163  16.7738766
  71.9089992  83.6339978  11.0030014  71.1109992  83.2189978  10.6750014
  72.3539992  82.9439978  11.4940014  71.8599684  83.4838628  11.0245227
  61.3659992  89.5619978   3.5730014  61.9579992  90.2619978   3.8500014
  61.8249992  89.1289978   2.8540014  61.5091652  89.5992675   3.5136533
  59.6819992  82.2269978   2.6890014  59.6369992  83.1659978   2.8680014
  58.7939992  81.9909978   2.4200014  59.5558166  82.3236687   2.6771524
  72.9949992  92.8899978  12.6250014  72.8389992  93.5689978  11.9680014
  73.9279992  92.9619978  12.8280014  73.0997387  92.9926390  12.5625342
  60.4899992  77.0079978  11.3630014  60.2609992  77.0669978  10.4350014
  60.0479992  76.2169978  11.6690014  60.3988801  76.9090540  11.2774729
  59.4209992  90.9489978   7.5230014  58.5879992  91.4209978   7.5500014
  59.9659992  91.4589978   6.9240014  59.3807857  91.0824791   7.4457142
  58.7089992  93.5609978  18.8530014  59.2489992  93.3449978  19.6130014
  58.2279992  92.7559978  18.6630014  58.7179219  93.4225156  18.9314282
  63.3059992  92.4809978  20.4730014  64.0739992  92.0219978  20.8140014
  63.2849992  92.2549978  19.5430014  63.4082135  92.3876668  20.3939491
  67.3979992  91.9889978   1.8490014  66.7539992  91.3579978   2.1700014
  68.1599992  91.4579978   1.6170014  67.4128058  91.8307902   1.8616038
  69.8829992  90.8609978  19.2020014  69.5319992  90.0039978  19.4460014
  70.6089992  91.0029978  19.8090014  69.9331895  90.7631351  19.3173770
  72.0029992  91.8059978   2.0820014  72.2859992  91.0109978   2.5350014
  72.7419992  92.0389978   1.5210014  72.1417096  91.7287049   2.0681104
  58.6159992  87.3719978  19.8070014  58.7599992  86.4699978  19.5210014
  57.8439992  87.6579978  19.3200014  58.5312733  87.2871798  19.7019532
  62.9569992  87.7149978   1.9400014  63.0219992  86.9209978   2.4700014
  63.6099992  87.5969978   1.2500014  63.0541605  87.5903430   1.9192997
  65.2709992  87.3409978  19.2400014  64.9429992  87.6119978  18.3830014
  65.4229992  86.3999978  19.1520014  65.2466412  87.2509046  19.1107822
  68.3099992  88.7619978   1.6760014  68.0409992  88.9429978   2.5760014
  68.1029992  87.8369978   1.5440014  68.2451191  88.6617119   1.7815524
  71.0059992  87.2569978  16.6230014  71.7509992  87.8459978  16.5040014
  70.2489992  87.8389978  16.6870014  71.0055470  87.4162128  16.6153799
  59.4489992  84.5719978  19.2270014  59.8569992  83.7149978  19.1060014
  59.1879992  84.5859978  20.1480014  59.4696016  84.4565119  19.3349192
  64.1069992  85.6879978   4.2460014  63.6469992  85.2039978   4.9310014
  64.3619992  85.0189978   3.6100014  64.0784856  85.5313669   4.2538397
  63.3959992  83.5809978  16.6020014  62.7769992  84.2549978  16.8820014
  63.7399992  83.9019978  15.7680014  63.3577123  83.7166887  16.5276388
  65.1779992  83.9309978   2.5080014  64.9969992  83.7759978   1.5810014
  66.1279992  84.0389978   2.5530014  65.2816566  83.9243669   2.3870929
  68.4149992  86.0519978  19.8790014  69.3689992  86.1359978  19.8520014
  68.2549992  85.3399978  20.4990014  68.5237182  85.9672842  19.9590733
  74.5679992  86.2849978   1.9540014  74.2939992  85.8609978   1.1410014
  74.6069992  87.2169978   1.7370014  74.5357716  86.3528827   1.8134286
  65.7289992  84.7449978  15.4160014  66.4799992  84.5889978  14.8430014
  65.3899992  85.5969978  15.1410014  65.7859587  84.8388138  15.3004078
  70.1449992  82.5599978  20.4450014  70.3369992  81.6289978  20.3330014
  71.0029992  82.9849978  20.4340014  70.2872182  82.4900070  20.4281862
  71.4619992  85.3489978  18.5220014  71.1799992  86.0579978  17.9440014
  72.4039992  85.2759978  18.3710014  71.5507921  85.4362193  18.4224225
  65.0749992  94.6209978   3.5090014  66.0079992  94.7789978   3.6530014
  64.8109992  95.2969978   2.8840014  65.1669911  94.7339373   3.4442722
  58.6429992  89.2579978   2.9920014  59.5569992  89.3369978   3.2650014
  58.6509992  88.5709978   2.3260014  58.7690655  89.1759205   2.9392917
  57.2919992  94.6509978   8.0690014  56.6449992  94.1889978   7.5370014
  57.6469992  93.9789978   8.6520014  57.2513741  94.4969774   8.0749175
  58.1619992  92.7309978   9.8740014  57.8279992  91.8509978  10.0460014
  58.3849992  93.0769978  10.7390014  58.1463721  92.6571938  10.0144168
  75.7109992  93.5409978  12.8550014  75.6889992  93.7259978  13.7940014
  76.4009992  94.1089978  12.5140014  75.8013439  93.6431887  12.9374791
  75.2739992  93.1079978  15.7760014  74.7869992  92.3729978  15.4050014
  75.8229992  92.7139978  16.4540014  75.2815247  92.9541057  15.8168461
  73.7249992  88.8979978  20.4150014  72.8589992  88.7929978  20.8090014
  74.1009992  89.6559978  20.8610014  73.6573401  88.9861708  20.5292620
  75.0259992  87.1539978   5.9290014  75.8759992  87.5749978   6.0560014
  75.0309992  86.4139978   6.5360014  75.1431143  87.1116094   6.0284750
  75.4199992  85.2079978   7.7520014  74.6939992  84.7279978   8.1500014
  76.0019992  85.4129978   8.4850014  75.3992730  85.1700184   7.9054149
  75.1789992  87.9929978  12.7000014  76.0129992  87.6149978  12.4190014
  75.2909992  88.9359978  12.5810014  75.3081917  88.0687943  12.6454861
  73.6659992  90.8709978  15.0070014  73.0179992  91.1959978  15.6320014
  73.1479992  90.4299978  14.3330014  73.5074196  90.8558651  15.0014152
  75.6889992  85.1089978   4.1430014  75.1669992  85.4649978   3.4250014
  75.6559992  85.7839978   4.8220014  75.6130129  85.2489598   4.1363355
  74.0379992  82.3479978   2.6940014  74.1339992  83.0149978   2.0140014
  73.8979992  81.5329978   2.2130014  74.0322040  82.3290671   2.5358378
  73.2069992  83.7289978   8.3150014  73.0569992  82.7839978   8.2950014
  72.8529992  84.0099978   9.1590014  73.1386351  83.6376644   8.4263220
  58.2419992  85.8069978  12.3260014  58.4269992  85.7249978  11.3900014
  59.0919992  85.6829978  12.7490014  58.3820928  85.7790463  12.2552893
  74.0629992  85.6989978  17.9540014  74.6459992  84.9639978  18.1460014
  74.6269992  86.4709978  18.0010014  74.2189781  85.7028145  17.9866164
  75.5599992  83.6019978  18.6390014  74.6969992  83.2229978  18.4730014
  76.1639992  82.8629978  18.5640014  75.5236085  83.4503223  18.6061695
  73.2849992  79.7559978   1.8120014  73.8959992  79.3849978   2.4490014
  72.4479992  79.3349978   2.0080014  73.2554947  79.6482756   1.9257252
  72.9179992  81.3109978   6.7780014  73.1969992  80.4039978   6.9020014
  73.6769992  81.7449978   6.3890014  73.0588619  81.2454502   6.7423795
  73.5289992  81.8929978  12.2140014  74.4619992  82.1049978  12.1790014
  73.2939992  81.9939978  13.1360014  73.6249517  81.9356833  12.3339130
  73.5589992  82.6299978  14.9900014  72.7159992  82.8979978  15.3560014
  74.0009992  83.4519978  14.7790014  73.5034138  82.7778273  15.0115518
  75.8419992  76.6099978  20.3430014  76.1909992  75.9559978  19.7380014
  75.9889992  77.4469978  19.9030014  75.9096824  76.6336024  20.2006304
  73.5309992  78.5739978   6.8260014  73.7129992  78.1249978   7.6510014
  72.9309992  77.9899978   6.3620014  73.4748187  78.4335552   6.8762739
  59.0609992  79.3899978  11.3580014  59.5059992  78.5979978  11.6600014
  59.5269992  80.1059978  11.7880014  59.1849718  79.3784534  11.4575265
  57.3649992  82.3889978  12.4270014  57.8569992  82.1679978  11.6360014
  57.7269992  83.2289978  12.7080014  57.4812923  82.4723468  12.3567407
  75.3609992  78.7189978  18.6920014  74.4439992  78.9899978  18.6570014
  75.4839992  78.1839978  17.9080014  75.2519672  78.6837885  18.5811862
  75.3979992  78.6419978   3.3540014  75.8099992  77.9209978   2.8790014
  76.0789992  79.3109978   3.4120014  75.5465536  78.6337766   3.2968024
  57.6789992  78.6469978   6.4810014  56.7539992  78.8549978   6.3520014
  58.1329992  79.1309978   5.7910014  57.6136298  78.7409299   6.3700451
  72.4489992  93.6309978   8.4270014  73.1019992  93.2829978   7.8190014
  72.9599992  94.1189978   9.0730014  72.6072777  93.6493815   8.4312047
  57.6419992  77.3849978  14.8250014  56.9769992  77.1389978  15.4680014
  57.1989992  78.0069978  14.2480014  57.4911168  77.4354214  14.8349848
  59.8339992  90.5599978  18.9700014  59.0129992  90.7349978  18.5090014
  59.5819992  90.4869978  19.8900014  59.6875594  90.5740717  19.0313611
  62.7879992  91.5339978  15.2280014  62.3639992  92.3439978  14.9460014
  63.6929992  91.6199978  14.9260014  62.8522138  91.6564160  15.1486415
  67.0999992  92.9329978  18.1880014  67.2839992  92.5999978  19.0660014
  67.9459992  93.2429978  17.8660014  67.2396484  92.9292979  18.2647617
  69.4449992  94.2189978  17.4320014  70.1219992  93.5859978  17.1920014
  69.7659992  94.6199978  18.2390014  69.5811323  94.1865691  17.5083158
  74.3619992  76.8089978  16.5110014  73.5489992  77.1339978  16.1240014
  74.5949992  76.0479978  15.9780014  74.2821347  76.7506880  16.3859841
  60.1899992  94.7909978  15.2760014  59.4699992  95.2309978  14.8250014
  59.8249992  94.5399978  16.1240014  60.0419643  94.8173369  15.3289129
  62.6569992  94.3909978  14.3060014  61.7929992  94.4629978  14.7100014
  62.6019992  94.9379978  13.5220014  62.5311942  94.4747849  14.2554000
  67.3679992  94.2789978  13.4810014  66.9109992  94.8079978  12.8270014
  67.5309992  94.8819978  14.2060014  67.3274960  94.4329280  13.4895274
  69.6959992  93.1569978  14.4260014  68.7909992  93.3219978  14.1600014
  70.1239992  94.0099978  14.3600014  69.6301537  93.2949134  14.3807095
  72.2999992  94.7269978  14.7210014  72.1179992  95.6429978  14.5100014
  72.4769992  94.3159978  13.8740014  72.2990030  94.7968273  14.5777166
  59.6049992  93.4139978  12.1860014  59.5869992  92.9879978  13.0430014
  60.4099992  93.0949978  11.7770014  59.7112875  93.3126435  12.2479515
  61.7459992  92.1239978  10.8410014  61.5269992  91.2069978  11.0110014
  62.5699992  92.2639978  11.3070014  61.8274702  92.0175511  10.9272527
  64.2829992  92.5939978  11.6900014  64.4959992  91.7059978  11.4030014
  64.3479992  92.5589978  12.6440014  64.3209149  92.4678326  11.7797369
  67.7919992  78.2579978  10.8340014  67.1179992  77.6279978  11.0900014
  68.3559992  77.7739978  10.2310014  67.7760384  78.1063708  10.7875020
  72.9349992  76.3649978  10.9470014  73.5379992  76.9129978  10.4450014
  72.0649992  76.6839978  10.7060014  72.8999157  76.4830373  10.8457910
  74.6619992  77.5039978   9.2800014  75.2729992  76.9899978   8.7530014
  75.0439992  78.3809978   9.3030014  74.7973305  77.5522050   9.2109418
  60.1189992  76.8919978   8.6560014  59.3419992  76.6569978   8.1490014
  60.6489992  76.0949978   8.6650014  60.0843451  76.7521268   8.5878627
  58.9549992  76.6899978   4.4600014  59.3939992  77.3009978   3.8680014
  58.3209992  77.2279978   4.9340014  58.9293859  76.8464064   4.4430305
  64.6979992  76.8179978   8.4690014  65.5719992  77.2069978   8.4400014
  64.5619992  76.6029978   9.3920014  64.7991953  76.8421643   8.5897617
  70.2549992  76.8479978  10.1190014  70.3309992  76.9439978   9.1690014
  69.9799992  75.9409978  10.2470014  70.2281871  76.7384146  10.0063944
  71.6079992  76.8739978   5.8110014  70.9049992  77.4889978   5.6010014
  71.1629992  76.0369978   5.9420014  71.4516550  76.8449668   5.7999837
  58.8559992  92.6379978   5.3570014  58.1709992  92.5999978   4.6900014
  58.8599992  93.5509978   5.6450014  58.7627621  92.7561924   5.3046126
  60.8159992  78.6059978   2.9020014  61.3069992  77.9759978   2.3750014
  61.4389992  78.9019978   3.5650014  60.9675304  78.5597376   2.9194940
  65.8419992  78.8989978   5.3590014  66.0199992  78.2519978   6.0420014
  65.7879992  79.7329978   5.8260014  65.8590678  78.9231604   5.5156301
  67.7199992  93.8469978   3.7550014  68.5859992  94.2139978   3.5770014
  67.4739992  93.4079978   2.9410014  67.8052097  93.8378525   3.6206019
  74.4289992  93.4099978   6.4340014  74.2349992  92.6619978   5.8690014
  74.3899992  94.1679978   5.8510014  74.3971645  93.4100786   6.2778148
  60.6739992  93.5579978   2.3820014  60.4059992  93.8439978   3.2560014
  61.4449992  93.0119978   2.5350014  60.7415926  93.5232779   2.5221205
  73.6469992  92.1619978  18.5840014  72.8649992  91.9749978  18.0640014
  73.5749992  93.0909978  18.8010014  73.5301924  92.2620637  18.5421602
  88.0529992  86.0479978   8.6150014  88.1419992  86.9919978   8.4830014
  87.4149992  85.7729978   7.9570014  87.9789062  86.1399812   8.5079641
  86.9859992  85.3029978  12.0340014  86.9479992  84.6569978  12.7390014
  86.6639992  84.8359978  11.2630014  86.9372679  85.1514276  12.0262921
  79.3539992  84.9169978  13.6270014  79.3959992  84.2919978  14.3500014
  80.0569992  85.5409978  13.8090014  79.4547345  84.9157873  13.7505274
  90.6919992  88.2419978  10.3350014  90.2509992  87.5219978  10.7860014
  90.6789992  88.9629978  10.9650014  90.6299215  88.2409291  10.4818105
  80.2779992  89.3669978  12.1620014  79.9079992  88.5649978  11.7920014
  81.2189992  89.1989978  12.2080014  80.3545984  89.2344638  12.1175603
  76.8879992  83.0269978   7.5540014  76.4399992  83.8729978   7.5360014
  76.3269992  82.4479978   7.0390014  76.7508546  83.0643993   7.4818891
  77.5979992  85.1889978   9.6800014  77.8119992  84.4189978  10.2080014
  78.3359992  85.2789978   9.0770014  77.7270200  85.0958586   9.6707035
  87.8039992  93.3459978  10.5470014  88.4229992  92.6699978  10.2740014
  87.5949992  93.1279978  11.4560014  87.8606056  93.2238869  10.6323967
  85.3749992  87.7349978  12.4400014  85.6789992  87.0489978  11.8450014
  86.0969992  87.8539978  13.0580014  85.5141240  87.6572314  12.4420959
  94.0379992  79.3369978  13.3000014  94.0879992  79.9469978  14.0360014
  94.4639992  79.7979978  12.5770014  94.1024108  79.4827709  13.3030112
  88.5159992  82.1289978  12.7670014  88.6589992  81.1829978  12.7870014
  88.4099992  82.3359978  11.8390014  88.5212403  82.0274797  12.6442239
  81.6709992  80.2309978  10.0400014  81.7139992  81.0909978   9.6210014
  81.2129992  79.6789978   9.4060014  81.6149871  80.2739245   9.8970761
  89.3929992  80.3619978   8.4410014  90.0399992  80.0329978   9.0650014
  89.9029992  80.8789978   7.8180014  89.5504351  80.3869067   8.4421037
  78.2909992  82.6279978  10.8020014  78.9449992  82.0779978  11.2340014
  78.3149992  82.3539978   9.8850014  78.3837199  82.5157167  10.7371668
  83.4479992  84.1779978  10.0170014  84.0639992  83.6509978  10.5260014
  82.8609992  83.5379978   9.6130014  83.4530154  84.0193954  10.0320945
  94.4299992  80.8149978  15.5360014  93.7409992  81.4729978  15.4410014
  94.4449992  80.6169978  16.4730014  94.3377756  80.8782603  15.6495812
  80.4809992  79.1489978  14.1140014  80.2619992  79.6789978  13.3470014
  79.8129992  79.3749978  14.7610014  80.3606975  79.2520967  14.0965140
  87.8499992  88.6489978   7.6580014  87.5549992  88.3259978   6.8060014
  87.5259992  89.5489978   7.6990014  87.7658460  88.7264464   7.5469714
  83.0499992  86.8239978  14.4010014  82.3099992  87.4229978  14.5050014
  83.7639992  87.3779978  14.0860014  83.0453500  86.9807829  14.3726371
  91.1569992  79.6529978  10.4210014  90.9419992  78.8869978  10.9540014
  91.8129992  80.1249978  10.9340014  91.2162673  79.6120728  10.5631990
  80.0749992  81.0409978  12.0660014  80.6889992  81.6739978  12.4390014
  80.5869992  80.5689978  11.4100014  80.2281962  81.0637249  12.0282935
  81.4579992  88.7889978  15.1880014  81.4519992  89.6679978  14.8100014
  80.6039992  88.7049978  15.6130014  81.3417925  88.8979535  15.1936887
  77.5789992  88.4599978   5.9700014  77.3069992  88.6889978   5.0820014
  77.6239992  89.2969978   6.4310014  77.5478097  88.6046163   5.9106683
  91.2039992  90.0809978  12.6830014  90.2619992  90.1399978  12.8450014
  91.4799992  90.9869978  12.5460014  91.1125865  90.2115288  12.6866192
  91.5039992  78.3679978  14.1000014  90.7679992  78.9779978  14.0630014
  92.1879992  78.7829978  13.5740014  91.4955367  78.5077551  14.0238174
  84.5079992  76.4539978  11.5660014  84.3899992  75.5059978  11.5120014
  83.6529992  76.7869978  11.8390014  84.3762805  76.3692202  11.5955079
  89.4559992  91.8619978   9.3080014  89.8809992  91.1549978   8.8230014
  89.7729992  92.6639978   8.8910014  89.5570266  91.8735190   9.1852479
  90.6159992  89.7629978   7.8170014  90.3579992  89.0729978   7.2050014
  90.6869992  89.3199978   8.6620014  90.5903050  89.6086814   7.8475621
  92.3019992  88.3299978  16.2940014  92.4409992  87.7379978  15.5550014
  92.4689992  89.2029978  15.9380014  92.3436193  88.3668896  16.1446211
  86.7739992  85.2919978   6.0670014  86.0629992  85.8269978   5.7150014
  87.4649992  85.3469978   5.4070014  86.7700751  85.3726777   5.9295858
  86.8279992  83.7489978   3.1050014  87.5289992  83.7719978   3.7570014
  87.1299992  83.1209978   2.4490014  86.9648202  83.6672212   3.1055609
  94.1429992  84.6699978  14.3600014  93.4909992  85.3639978  14.4490014
  94.6089992  84.8799978  13.5500014  94.1165937  84.7935019  14.2627533
  90.1799992  85.5009978   7.0180014  89.4479992  85.7299978   7.5920014
  90.6269992  84.7879978   7.4730014  90.1403963  85.4358729   7.1579945
  90.0769992  83.6759978  16.0860014  90.1569992  84.4389978  16.6580014
  89.4759992  83.9549978  15.3960014  90.0066547  83.8182457  16.0710047
  81.8249992  86.1319978   8.9010014  81.4949992  85.7609978   8.0830014
  82.4139992  85.4609978   9.2480014  81.8593970  85.9906063   8.8359404
  83.1919992  89.5599978  11.5820014  83.0969992  88.9809978  10.8260014
  83.9209992  89.1889978  12.0780014  83.2776011  89.4305561  11.5456028
  82.1919992  84.8999978  12.5340014  82.7569992  85.0219978  11.7720014
  82.5109992  85.5379978  13.1730014  82.3124166  85.0028791  12.5160348
  88.5009992  90.4039978  13.2680014  88.2609992  91.0659978  13.9160014
  88.3029992  89.5689978  13.6930014  88.4413826  90.3818115  13.4141566
  83.0719992  89.2999978  17.2520014  82.7609992  90.0819978  17.7070014
  82.4219992  89.1469978  16.5660014  82.9415538  89.3864087  17.2215898
  89.0509992  84.6639978   4.7040014  89.6299992  84.8139978   5.4500014
  89.4649992  85.1339978   3.9800014  89.1863358  84.7480954   4.7083953
  79.9919992  85.4979978  16.4800014  80.0619992  86.1489978  17.1790014
  79.1009992  85.6009978  16.1450014  79.8811690  85.6009249  16.5303043
  86.7769992  91.3999978   8.1390014  87.2509992  91.6959978   8.9160014
  86.2139992  92.1389978   7.9060014  86.7657890  91.5403036   8.2138101
  81.3109992  91.3709978  18.0150014  81.3189992  91.2349978  17.0680014
  80.3949992  91.2539978  18.2670014  81.1882528  91.3365463  17.9193243
  92.7499992  76.4139978   4.5170014  91.8499992  76.5529978   4.8120014
  93.0019992  77.2449978   4.1150014  92.6608683  76.5454055   4.5030232
  80.8159992  85.2009978   6.4900014  80.5239992  85.9689978   5.9990014
  80.1409992  84.5419978   6.3270014  80.6848497  85.2169745   6.4008260
  93.9389992  90.7799978   2.8930014  94.0119992  91.7189978   3.0630014
  94.8439992  90.4749978   2.8370014  94.0714170  90.8673282   2.9087063
  76.9089992  87.5639978  15.3050014  76.4069992  87.5359978  14.4900014
  76.9139992  86.6589978  15.6150014  76.8409832  87.4377486  15.2354121
  76.6589992  90.3449978  12.1890014  77.6049992  90.1999978  12.1700014
  76.5459992  91.1289978  12.7260014  76.7733578  90.4311697  12.2590317
  94.8569992  91.0109978  17.8720014  94.8069992  90.0549978  17.8340014
  94.0299992  91.2779978  18.2730014  94.7383831  90.9164680  17.9210121
  85.8349992  90.5849978  16.7480014  85.9229992  91.4109978  17.2230014
  84.9719992  90.2549978  16.9970014  85.7303357  90.6535468  16.8467653
  86.2499992  94.3569978   6.5540014  86.1739992  94.2359978   5.6070014
  86.2819992  95.3059978   6.6720014  86.2439380  94.4687677   6.4405181
  79.9029992  93.1459978   8.3350014  80.0549992  92.7979978   9.2130014
  79.0519992  92.7889978   8.0790014  79.8088344  93.0500879   8.4206868
  89.3509992  93.5109978   3.5560014  89.7259992  92.7669978   3.0850014
  89.3559992  93.2409978   4.4740014  89.4030098  93.3726392   3.6156629
  89.0199992  93.4369978   6.3050014  88.0849992  93.5369978   6.4840014
  89.2999992  92.7269978   6.8840014  88.9299471  93.3547933   6.4076695
  92.0089992  82.5039978  18.3520014  91.6009992  82.9839978  17.6310014
  92.0489992  81.5979978  18.0440014  91.9586221  82.4472449  18.2118267
  79.1579992  88.8879978  16.3480014  79.3739992  88.5259978  17.2080014
  78.3019992  88.5129978  16.1390014  79.0718810  88.7878837  16.4372680
  81.7759992  77.3579978  12.3440014  80.9149992  77.2709978  11.9360014
  81.7539992  78.2139978  12.7720014  81.6550491  77.4618003  12.3459582
  86.4389992  77.0799978  15.7190014  86.8589992  76.6649978  16.4720014
  85.5059992  76.9009978  15.8360014  86.3703736  76.9989910  15.8378968
  89.7659992  80.8349978  16.5720014  89.2519992  80.7099978  17.3700014
  89.6099992  81.7479978  16.3280014  89.6746967  80.9412123  16.6480937
  90.5279992  85.6959978   2.3330014  90.5699992  85.4739978   1.4030014
  91.3769992  86.0949978   2.5230014  90.6485253  85.7195498   2.2313822
  86.1009992  79.5719978   3.0040014  85.8469992  79.5909978   3.9260014
  85.8439992  78.7009978   2.7020014  86.0314508  79.4568280   3.0894803
  81.8669992  82.3229978  13.4390014  81.2259992  82.2829978  14.1480014
  81.9049992  83.2499978  13.2010014  81.7843010  82.4427668  13.5039946
  81.8639992  82.5439978   8.3510014  80.9719992  82.2039978   8.2920014
  82.3149992  82.1669978   7.5950014  81.8027642  82.4464910   8.2407726
  87.3999992  82.9599978   7.1680014  86.9909992  83.7749978   6.8760014
  88.1199992  82.8199978   6.5540014  87.4414439  83.0525372   7.0450115
  86.5019992  83.1359978  18.6560014  85.9389992  82.4309978  18.9770014
  87.3279992  83.0149978  19.1240014  86.5366674  83.0232165  18.7631751
  88.4049992  82.4059978   9.9820014  88.2089992  83.0119978   9.2670014
  88.5859992  81.5729978   9.5480014  88.4026584  82.3762513   9.8254212
  79.6169992  82.6439978  15.3060014  79.5789992  83.0439978  16.1750014
  79.1269992  81.8269978  15.3960014  79.5455330  82.5882674  15.4371289
  82.9829992  80.0179978   2.1050014  82.5519992  79.5729978   2.8340014
  82.2649992  80.3889978   1.5920014  82.8269176  80.0072051   2.1354930
  76.2259992  79.7599978   9.1570014  76.8559992  79.7309978   9.8760014
  76.6749992  79.3349978   8.4260014  76.3730835  79.6985660   9.1567659
  77.4999992  80.5059978   4.5810014  77.9739992  81.0969978   3.9960014
  76.7819992  81.0359978   4.9280014  77.4678640  80.6585511   4.5477969
  87.6689992  84.0439978  14.6530014  87.9919992  83.4129978  14.0100014
  87.2279992  83.5099978  15.3140014  87.6536379  83.8853468  14.6542582
  84.4459992  79.9719978   9.4370014  83.5349992  80.0289978   9.7260014
  84.9509992  79.9119978  10.2480014  84.3896873  79.9716826   9.5861207
  79.2739992  81.6009978   8.2640014  78.3849992  81.6999978   7.9240014
  79.5709992  80.7589978   7.9180014  79.1924177  81.5007687   8.1706940
  82.9269992  81.6009978   5.9210014  83.8589992  81.7299978   6.0990014
  82.7119992  82.2699978   5.2710014  83.0254472  81.7090806   5.8574891
  88.8509992  79.2069978  12.7020014  88.1739992  79.3379978  13.3650014
  88.3659992  79.0519978  11.8910014  88.6927405  79.2039947  12.6832170
  81.6009992  82.7949978   3.4870014  81.0589992  82.4159978   2.7960014
  82.4349992  82.9899978   3.0590014  81.6394390  82.7694079   3.3344392
  92.1389992  94.8779978  18.9780014  92.3379992  95.3019978  18.1440014
  92.7939992  95.2219978  19.5850014  92.2548522  94.9826301  18.9457852
  79.7369992  87.3519978  18.5860014  80.4689992  87.6069978  19.1480014
  78.9559992  87.5569978  19.1020014  79.7316526  87.4145450  18.7325176
  85.7659992  82.7589978  11.3240014  86.3299992  82.2129978  10.7770014
  85.6179992  82.2379978  12.1130014  85.8233037  82.6136787  11.3557229
  80.7679992  78.8959978   7.7430014  80.4509992  77.9929978   7.7070014
  81.5489992  78.8979978   7.1900014  80.8302431  78.7727797   7.6633102
  84.3919992  81.1479978  13.7380014  83.5569992  81.6019978  13.8490014
  84.9159992  81.4239978  14.4900014  84.3486072  81.2473948  13.8548136
  84.9369992  87.3609978   5.4230014  84.1919992  86.8529978   5.1010014
  84.8019992  87.4099978   6.3690014  84.8168963  87.2981731   5.5068826
  92.0869992  86.4939978  14.2100014  92.7279992  86.9499978  13.6660014
  91.2559992  86.6069978  13.7470014  92.0625287  86.5716921  14.0729887
  88.8339992  80.1749978   3.6220014  87.8959992  80.2859978   3.4710014
  89.1319992  81.0309978   3.9290014  88.7456318  80.3060158   3.6428145
  86.4559992  87.5449978  16.6600014  86.1099992  87.1629978  17.4670014
  86.2559992  88.4779978  16.7310014  86.3815987  87.6189002  16.7800461
  89.5529992  82.0419978   5.2830014  90.4449992  81.9039978   5.6020014
  89.6089992  82.8329978   4.7460014  89.6827325  82.1299918   5.2541217
  80.0609992  86.6559978  11.1930014  80.8059992  86.6529978  10.5910014
  80.1389992  85.8319978  11.6740014  80.1733365  86.5442384  11.1757430
  87.0619992  88.8189978   4.4480014  86.7669992  89.6459978   4.8300014
  86.3589992  88.1999978   4.6450014  86.9266379  88.8484171   4.5268654
  77.0689992  85.1159978  16.5080014  77.2919992  84.6979978  17.3390014
  76.4669992  84.5039978  16.0850014  77.0181513  84.9759606  16.5646740
  84.0859992  84.6329978  18.7210014  83.7899992  84.4679978  17.8250014
  85.0169992  84.4129978  18.7100014  84.1714401  84.5806879  18.5970206
  88.7059992  90.0069978  16.6100014  87.8059992  90.1899978  16.3430014
  88.7399992  90.2659978  17.5310014  88.5873748  90.0670554  16.6979164
  94.4379992  82.2509978   4.9780014  93.8829992  81.8549978   4.3050014
  94.5379992  83.1619978   4.7000014  94.3756816  82.3199505   4.8485033
  94.4009992  88.0519978  17.8150014  93.5499992  88.2899978  17.4470014
  94.9909992  88.0349978  17.0620014  94.3643812  88.0822524  17.6628453
  92.7329992  91.0369978   5.4430014  92.3599992  90.2119978   5.7520014
  93.0099992  90.8539978   4.5450014  92.7193463  90.8992569   5.3639525
  89.8929992  85.8449978  12.4640014  88.9649992  85.6139978  12.4370014
  90.3439992  85.0679978  12.1340014  89.8268165  85.7082774  12.4156790
  82.4359992  90.1739978   8.5970014  82.9639992  90.9469978   8.3970014
  81.5559992  90.3979978   8.2950014  82.3893435  90.3102700   8.5287310
  78.1909992  85.0359978   3.1840014  78.8069992  85.6629978   3.5640014
  77.3289992  85.3519978   3.4560014  78.1587678  85.1644412   3.2727209
  83.8639992  87.8369978   8.1730014  83.6229992  88.7619978   8.2150014
  83.1229992  87.3779978   8.5700014  83.7309206  87.9015915   8.2323769
  84.3779992  91.9859978  14.4880014  84.7409992  92.8399978  14.2550014
  84.9099992  91.6939978  15.2290014  84.4995141  92.0633895  14.5562097
  82.5469992  92.8579978   7.7190014  81.5969992  92.9639978   7.7700014
  82.8989992  93.6789978   8.0630014  82.4645472  92.9834923   7.7724852
  87.9219992  88.0849978  14.1890014  87.4969992  87.8569978  15.0150014
  88.5029992  87.3459978  14.0070014  87.9423395  87.9539545  14.2774414
  90.1249992  89.0139978   3.2630014  90.4789992  88.6339978   4.0670014
  89.1769992  88.9199978   3.3500014  90.0452298  88.9492452   3.3848687
  90.5809992  92.6369978  16.6580014  89.9789992  92.0809978  16.1630014
  90.8619992  93.3039978  16.0320014  90.5365757  92.6510744  16.5055675
  94.6289992  93.4929978   3.4640014  95.3729992  94.0789978   3.3240014
  93.9349992  94.0619978   3.7970014  94.6369809  93.6500818   3.4898590
  78.7029992  79.8699978  16.0660014  77.8109992  80.2079978  15.9980014
  78.6049992  79.0139978  16.4840014  78.5674475  79.8006543  16.1131704
  90.9909992  87.6859978   5.4900014  90.7139992  86.9579978   6.0460014
  91.9189992  87.8049978   5.6950014  91.0784499  87.6024213   5.5938044
  78.3549992  91.6739978  14.5010014  78.5719992  90.7419978  14.4700014
  78.6009992  91.9489978  15.3840014  78.4179809  91.5835686  14.6161691
  84.2159992  90.1259978   1.7100014  84.4549992  89.3769978   1.1630014
  83.9469992  89.7379978   2.5430014  84.2123233  89.9711853   1.7477809
  83.1529992  89.6959978   4.1660014  83.2999992  89.1759978   4.9560014
  83.1499992  90.6029978   4.4730014  83.1727102  89.7473953   4.3155925
  79.6059992  86.9479978   4.6770014  78.9199992  87.3009978   5.2440014
  80.1289992  87.7109978   4.4300014  79.5828402  87.0993901   4.7211801
  87.4379992  79.6109978  14.9560014  88.1369992  79.6849978  15.6060014
  87.0569992  78.7459978  15.1100014  87.4822097  79.5042389  15.0657997
  88.2219992  79.2629978   6.0530014  88.4419992  79.7339978   5.2490014
  88.7809992  79.6569978   6.7230014  88.3276732  79.3807287   6.0335033
  85.8909992  91.3929978   4.9160014  85.0739992  91.8899978   4.9680014
  86.4199992  91.8689978   4.2750014  85.8508125  91.5251989   4.8365306
  85.4219992  80.9909978   6.8880014  86.2339992  81.4949978   6.9340014
  85.1779992  80.8459978   7.8020014  85.5001467  81.0403749   7.0178575
  85.9579992  81.9769978  16.0720014  86.0769992  82.5509978  16.8290014
  86.6129992  81.2889978  16.1870014  86.0628684  81.9625194  16.1911674
  86.3059992  78.0719978   7.8260014  85.9589992  78.6889978   8.4700014
  86.9649992  78.5729978   7.3440014  86.3475090  78.2241575   7.8490681
  83.2289992  92.4369978   4.8970014  83.3899992  93.2369978   4.3970014
  83.0319992  92.7439978   5.7820014  83.2243906  92.5878678   4.9482333
  81.9639992  79.1349978   4.5130014  81.8799992  80.0229978   4.8600014
  82.8539992  78.8699978   4.7450014  82.0728163  79.2207179   4.5918596
  92.1619992  79.8839978  16.9070014  91.2459992  80.1459978  16.8200014
  92.4979992  79.8809978  16.0110014  92.0818499  79.9195163  16.7738766
  90.7649992  83.6339978  11.0030014  89.9669992  83.2189978  10.6750014
  91.2099992  82.9439978  11.4940014  90.7159684  83.4838628  11.0245227
  80.2219992  89.5619978   3.5730014  80.8139992  90.2619978   3.8500014
  80.6809992  89.1289978   2.8540014  80.3651652  89.5992675   3.5136533
  78.5379992  82.2269978   2.6890014  78.4929992  83.1659978   2.8680014
  77.6499992  81.9909978   2.4200014  78.4118166  82.3236687   2.6771524
  91.8509992  92.8899978  12.6250014  91.6949992  93.5689978  11.9680014
  92.7839992  92.9619978  12.8280014  91.9557387  92.9926390  12.5625342
  79.3459992  77.0079978  11.3630014  79.1169992  77.0669978  10.4350014
  78.9039992  76.2169978  11.6690014  79.2548801  76.9090540  11.2774729
  78.2769992  90.9489978   7.5230014  77.4439992  91.4209978   7.5500014
  78.8219992  91.4589978   6.9240014  78.2367857  91.0824791   7.4457142
  77.5649992  93.5609978  18.8530014  78.1049992  93.3449978  19.6130014
  77.0839992  92.7559978  18.6630014  77.5739219  93.4225156  18.9314282
  82.1619992  92.4809978  20.4730014  82.9299992  92.0219978  20.8140014
  82.1409992  92.2549978  19.5430014  82.2642135  92.3876668  20.3939491
  86.2539992  91.9889978   1.8490014  85.6099992  91.3579978   2.1700014
  87.0159992  91.4579978   1.6170014  86.2688058  91.8307902   1.8616038
  88.7389992  90.8609978  19.2020014  88.3879992  90.0039978  19.4460014
  89.4649992  91.0029978  19.8090014  88.7891895  90.7631351  19.3173770
  90.8589992  91.8059978   2.0820014  91.1419992  91.0109978   2.5350014
  91.5979992  92.0389978   1.5210014  90.9977096  91.7287049   2.0681104
  77.4719992  87.3719978  19.8070014  77.6159992  86.4699978  19.5210014
  76.6999992  87.6579978  19.3200014  77.3872733  87.2871798  19.7019532
  81.8129992  87.7149978   1.9400014  81.8779992  86.9209978   2.4700014
  82.4659992  87.5969978   1.2500014  81.9101605  87.5903430   1.9192997
  84.1269992  87.3409978  19.2400014  83.7989992  87.6119978  18.3830014
  84.2789992  86.3999978  19.1520014  84.1026412  87.2509046  19.1107822
  87.1659992  88.7619978   1.6760014  86.8969992  88.9429978   2.5760014
  86.9589992  87.8369978   1.5440014  87.1011191  88.6617119   1.7815524
  89.8619992  87.2569978  16.6230014  90.6069992  87.8459978  16.5040014
  89.1049992  87.8389978  16.6870014  89.8615470  87.4162128  16.6153799
  78.3049992  84.5719978  19.2270014  78.7129992  83.7149978  19.1060014
  78.0439992  84.5859978  20.1480014  78.3256016  84.4565119  19.3349192
  82.9629992  85.6879978   4.2460014  82.5029992  85.2039978   4.9310014
  83.2179992  85.0189978   3.6100014  82.9344856  85.5313669   4.2538397
  82.2519992  83.5809978  16.6020014  81.6329992  84.2549978  16.8820014
  82.5959992  83.9019978  15.7680014  82.2137123  83.7166887  16.5276388
  84.0339992  83.9309978   2.5080014  83.8529992  83.7759978   1.5810014
  84.9839992  84.0389978   2.5530014  84.1376566  83.9243669   2.3870929
  87.2709992  86.0519978  19.8790014  88.2249992  86.1359978  19.8520014
  87.1109992  85.3399978  20.4990014  87.3797182  85.9672842  19.9590733
  93.4239992  86.2849978   1.9540014  93.1499992  85.8609978   1.1410014
  93.4629992  87.2169978   1.7370014  93.3917716  86.3528827   1.8134286
  82.5909992  80.9359978  17.6840014  82.7409992  80.2069978  17.0820014
  82.5929992  81.7129978  17.1250014  82.6117967  80.9412708  17.5260541
  83.0039992  79.3049978  15.1770014  83.5389992  79.7569978  14.5250014
  82.1509992  79.1969978  14.7540014  82.9620374  79.3522665  15.0306710
  84.5849992  84.7449978  15.4160014  85.3359992  84.5889978  14.8430014
  84.2459992  85.5969978  15.1410014  84.6419587  84.8388138  15.3004078
  89.0009992  82.5599978  20.4450014  89.1929992  81.6289978  20.3330014
  89.8589992  82.9849978  20.4340014  89.1432182  82.4900070  20.4281862
  90.3179992  85.3489978  18.5220014  90.0359992  86.0579978  17.9440014
  91.2599992  85.2759978  18.3710014  90.4067921  85.4362193  18.4224225
  81.0699992  82.1339978  19.5950014  80.3019992  81.6009978  19.3850014
  81.7479992  81.8239978  18.9960014  81.0567235  82.0191754  19.4852413
  83.8089992  76.7619978  15.6080014  83.7109992  77.7079978  15.5030014
  83.0669992  76.3889978  15.1320014  83.6952534  76.8411773  15.5292600
  85.0729992  81.0829978  19.1720014  84.8379992  80.8639978  20.0730014
  84.2899992  80.8759978  18.6620014  84.9349095  81.0249892  19.2265353
  87.7889992  80.2109978  18.2470014  86.8409992  80.2429978  18.3790014
  88.1009992  79.5849978  18.9010014  87.7015293  80.1307923  18.3534148
  89.4229992  78.8449978  20.2520014  89.3259992  77.8929978  20.2470014
  89.1009992  79.1129978  21.1130014  89.3662468  78.7510884  20.3676210
  79.2499992  80.0539978  19.3000014  79.4619992  79.3479978  18.6900014
  79.1389992  79.6169978  20.1440014  79.2640269  79.8981921  19.3305873
  84.0309992  76.0559978  18.2790014  84.7429992  75.4159978  18.2650014
  83.9299992  76.3219978  17.3660014  84.1147387  76.0044330  18.1535563
  84.3849992  77.7379978  20.3330014  84.2529992  77.2629978  19.5130014
  83.7849992  78.4829978  20.2780014  84.2859070  77.7735789  20.2133251
  83.9309992  94.6209978   3.5090014  84.8639992  94.7789978   3.6530014
  83.6669992  95.2969978   2.8840014  84.0229911  94.7339373   3.4442722
  77.4989992  89.2579978   2.9920014  78.4129992  89.3369978   3.2650014
  77.5069992  88.5709978   2.3260014  77.6250655  89.1759205   2.9392917
  76.1479992  94.6509978   8.0690014  75.5009992  94.1889978   7.5370014
  76.5029992  93.9789978   8.6520014  76.1073741  94.4969774   8.0749175
  77.0179992  92.7309978   9.8740014  76.6839992  91.8509978  10.0460014
  77.2409992  93.0769978  10.7390014  77.0023721  92.6571938  10.0144168
  94.5669992  93.5409978  12.8550014  94.5449992  93.7259978  13.7940014
  95.2569992  94.1089978  12.5140014  94.6573439  93.6431887  12.9374791
  94.1299992  93.1079978  15.7760014  93.6429992  92.3729978  15.4050014
  94.6789992  92.7139978  16.4540014  94.1375247  92.9541057  15.8168461
  92.5809992  88.8979978  20.4150014  91.7149992  88.7929978  20.8090014
  92.9569992  89.6559978  20.8610014  92.5133401  88.9861708  20.5292620
  93.8819992  87.1539978   5.9290014  94.7319992  87.5749978   6.0560014
  93.8869992  86.4139978   6.5360014  93.9991143  87.1116094   6.0284750
  94.2759992  85.2079978   7.7520014  93.5499992  84.7279978   8.1500014
  94.8579992  85.4129978   8.4850014  94.2552730  85.1700184   7.9054149
  94.0349992  87.9929978  12.7000014  94.8689992  87.6149978  12.4190014
  94.1469992  88.9359978  12.5810014  94.1641917  88.0687943  12.6454861
  92.5219992  90.8709978  15.0070014  91.8739992  91.1959978  15.6320014
  92.0039992  90.4299978  14.3330014  92.3634196  90.8558651  15.0014152
  94.5449992  85.1089978   4.1430014  94.0229992  85.4649978   3.4250014
  94.5119992  85.7839978   4.8220014  94.4690129  85.2489598   4.1363355
  92.8939992  82.3479978   2.6940014  92.9899992  83.0149978   2.0140014
  92.7539992  81.5329978   2.2130014  92.8882040  82.3290671   2.5358378
  92.0629992  83.7289978   8.3150014  91.9129992  82.7839978   8.2950014
  91.7089992  84.0099978   9.1590014  91.9946351  83.6376644   8.4263220
  77.0979992  85.8069978  12.3260014  77.2829992  85.7249978  11.3900014
  77.9479992  85.6829978  12.7490014  77.2380928  85.7790463  12.2552893
  92.9189992  85.6989978  17.9540014  93.5019992  84.9639978  18.1460014
  93.4829992  86.4709978  18.0010014  93.0749781  85.7028145  17.9866164
  94.4159992  83.6019978  18.6390014  93.5529992  83.2229978  18.4730014
  95.0199992  82.8629978  18.5640014  94.3796085  83.4503223  18.6061694
  92.1409992  79.7559978   1.8120014  92.7519992  79.3849978   2.4490014
  91.3039992  79.3349978   2.0080014  92.1114947  79.6482756   1.9257252
  91.7739992  81.3109978   6.7780014  92.0529992  80.4039978   6.9020014
  92.5329992  81.7449978   6.3890014  91.9148619  81.2454502   6.7423795
  92.3849992  81.8929978  12.2140014  93.3179992  82.1049978  12.1790014
  92.1499992  81.9939978  13.1360014  92.4809517  81.9356833  12.3339130
  92.4149992  82.6299978  14.9900014  91.5719992  82.8979978  15.3560014
  92.8569992  83.4519978  14.7790014  92.3594138  82.7778273  15.0115518
  76.6959992  81.0769978  18.4660014  77.6149992  80.9549978  18.7030014
  76.2459992  80.3269978  18.8560014  76.7610087  80.9589608  18.5511410
  94.6979992  76.6099978  20.3430014  95.0469992  75.9559978  19.7380014
  94.8449992  77.4469978  19.9030014  94.7656824  76.6336024  20.2006304
  92.3869992  78.5739978   6.8260014  92.5689992  78.1249978   7.6510014
  91.7869992  77.9899978   6.3620014  92.3308187  78.4335552   6.8762739
  77.9169992  79.3899978  11.3580014  78.3619992  78.5979978  11.6600014
  78.3829992  80.1059978  11.7880014  78.0409718  79.3784534  11.4575265
  76.2209992  82.3889978  12.4270014  76.7129992  82.1679978  11.6360014
  76.5829992  83.2289978  12.7080014  76.3372923  82.4723468  12.3567407
  94.2169992  78.7189978  18.6920014  93.2999992  78.9899978  18.6570014
  94.3399992  78.1839978  17.9080014  94.1079672  78.6837885  18.5811862
  94.2539992  78.6419978   3.3540014  94.6659992  77.9209978   2.8790014
  94.9349992  79.3109978   3.4120014  94.4025536  78.6337766   3.2968024
  76.5349992  78.6469978   6.4810014  75.6099992  78.8549978   6.3520014
  76.9889992  79.1309978   5.7910014  76.4696298  78.7409299   6.3700451
  91.3049992  93.6309978   8.4270014  91.9579992  93.2829978   7.8190014
  91.8159992  94.1189978   9.0730014  91.4632777  93.6493815   8.4312047
  76.4979992  77.3849978  14.8250014  75.8329992  77.1389978  15.4680014
  76.0549992  78.0069978  14.2480014  76.3471168  77.4354214  14.8349848
  78.6899992  90.5599978  18.9700014  77.8689992  90.7349978  18.5090014
  78.4379992  90.4869978  19.8900014  78.5435594  90.5740717  19.0313611
  81.6439992  91.5339978  15.2280014  81.2199992  92.3439978  14.9460014
  82.5489992  91.6199978  14.9260014  81.7082138  91.6564160  15.1486415
  85.9559992  92.9329978  18.1880014  86.1399992  92.5999978  19.0660014
  86.8019992  93.2429978  17.8660014  86.0956484  92.9292979  18.2647617
  88.3009992  94.2189978  17.4320014  88.9779992  93.5859978  17.1920014
  88.6219992  94.6199978  18.2390014  88.4371323  94.1865691  17.5083158
  93.2179992  76.8089978  16.5110014  92.4049992  77.1339978  16.1240014
  93.4509992  76.0479978  15.9780014  93.1381347  76.7506880  16.3859841
  79.0459992  94.7909978  15.2760014  78.3259992  95.2309978  14.8250014
  78.6809992  94.5399978  16.1240014  78.8979643  94.8173369  15.3289129
  81.5129992  94.3909978  14.3060014  80.6489992  94.4629978  14.7100014
  81.4579992  94.9379978  13.5220014  81.3871942  94.4747849  14.2554000
  86.2239992  94.2789978  13.4810014  85.7669992  94.8079978  12.8270014
  86.3869992  94.8819978  14.2060014  86.1834960  94.4329280  13.4895274
  88.5519992  93.1569978  14.4260014  87.6469992  93.3219978  14.1600014
  88.9799992  94.0099978  14.3600014  88.4861537  93.2949134  14.3807095
  91.1559992  94.7269978  14.7210014  90.9739992  95.6429978  14.5100014
  91.3329992  94.3159978  13.8740014  91.1550030  94.7968273  14.5777166
  78.4609992  93.4139978  12.1860014  78.4429992  92.9879978  13.0430014
  79.2659992  93.0949978  11.7770014  78.5672875  93.3126435  12.2479515
  80.6019992  92.1239978  10.8410014  80.3829992  91.2069978  11.0110014
  81.4259992  92.2639978  11.3070014  80.6834702  92.0175511  10.9272527
  83.1389992  92.5939978  11.6900014  83.3519992  91.7059978  11.4030014
  83.2039992  92.5589978  12.6440014  83.1769149  92.4678326  11.7797369
  86.6479992  78.2579978  10.8340014  85.9739992  77.6279978  11.0900014
  87.2119992  77.7739978  10.2310014  86.6320384  78.1063708  10.7875020
  91.7909992  76.3649978  10.9470014  92.3939992  76.9129978  10.4450014
  90.9209992  76.6839978  10.7060014  91.7559157  76.4830373  10.8457910
  93.5179992  77.5039978   9.2800014  94.1289992  76.9899978   8.7530014
  93.8999992  78.3809978   9.3030014  93.6533305  77.5522050   9.2109418
  78.9749992  76.8919978   8.6560014  78.1979992  76.6569978   8.1490014
  79.5049992  76.0949978   8.6650014  78.9403451  76.7521268   8.5878627
  77.8109992  76.6899978   4.4600014  78.2499992  77.3009978   3.8680014
  77.1769992  77.2279978   4.9340014  77.7853859  76.8464064   4.4430305
  83.5539992  76.8179978   8.4690014  84.4279992  77.2069978   8.4400014
  83.4179992  76.6029978   9.3920014  83.6551953  76.8421643   8.5897617
  89.1109992  76.8479978  10.1190014  89.1869992  76.9439978   9.1690014
  88.8359992  75.9409978  10.2470014  89.0841871  76.7384146  10.0063944
  90.4639992  76.8739978   5.8110014  89.7609992  77.4889978   5.6010014
  90.0189992  76.0369978   5.9420014  90.3076550  76.8449668   5.7999837
  77.7119992  92.6379978   5.3570014  77.0269992  92.5999978   4.6900014
  77.7159992  93.5509978   5.6450014  77.6187621  92.7561924   5.3046126
  79.6719992  78.6059978   2.9020014  80.1629992  77.9759978   2.3750014
  80.2949992  78.9019978   3.5650014  79.8235304  78.5597376   2.9194940
  84.6979992  78.8989978   5.3590014  84.8759992  78.2519978   6.0420014
  84.6439992  79.7329978   5.8260014  84.7150678  78.9231604   5.5156301
  86.5759992  93.8469978   3.7550014  87.4419992  94.2139978   3.5770014
  86.3299992  93.4079978   2.9410014  86.6612097  93.8378525   3.6206019
  93.2849992  93.4099978   6.4340014  93.0909992  92.6619978   5.8690014
  93.2459992  94.1679978   5.8510014  93.2531645  93.4100786   6.2778148
  78.9319992  77.4059978  18.1740014  78.5659992  76.6399978  18.6160014
  79.8449992  77.4349978  18.4600014  79.0053172  77.3050324  18.2731890
  80.9049992  76.7559978  19.7090014  81.8039992  76.4819978  19.5250014
  80.5189992  76.0139978  20.1740014  80.9757307  76.6182196  19.7467098
  79.5299992  93.5579978   2.3820014  79.2619992  93.8439978   3.2560014
  80.3009992  93.0119978   2.5350014  79.5975926  93.5232779   2.5221205
  89.3269992  76.0889978  19.8920014  89.4029992  75.6629978  20.7450014
  90.2199992  76.1019978  19.5490014  89.4582303  76.0323493  19.9625497
  92.5029992  92.1619978  18.5840014  91.7209992  91.9749978  18.0640014
  92.4309992  93.0909978  18.8010014  92.3861924  92.2620637  18.5421602
 106.9089992  86.0479978   8.6150014 106.9979992  86.9919978   8.4830014
 106.2709992  85.7729978   7.9570014 106.8349062  86.1399812   8.5079641
 105.8419992  85.3029978  12.0340014 105.8039992  84.6569978  12.7390014
 105.5199992  84.8359978  11.2630014 105.7932679  85.1514276  12.0262921
  98.2099992  84.9169978  13.6270014  98.2519992  84.2919978  14.3500014
  98.9129992  85.5409978  13.8090014  98.3107345  84.9157873  13.7505274
 109.5479992  88.2419978  10.3350014 109.1069992  87.5219978  10.7860014
 109.5349992  88.9629978  10.9650014 109.4859215  88.2409291  10.4818105
  99.1339992  89.3669978  12.1620014  98.7639992  88.5649978  11.7920014
 100.0749992  89.1989978  12.2080014  99.2105984  89.2344638  12.1175603
  95.7439992  83.0269978   7.5540014  95.2959992  83.8729978   7.5360014
  95.1829992  82.4479978   7.0390014  95.6068546  83.0643993   7.4818891
  96.4539992  85.1889978   9.6800014  96.6679992  84.4189978  10.2080014
  97.1919992  85.2789978   9.0770014  96.5830200  85.0958587   9.6707035
 106.6599992  93.3459978  10.5470014 107.2789992  92.6699978  10.2740014
 106.4509992  93.1279978  11.4560014 106.7166056  93.2238869  10.6323967
 104.2309992  87.7349978  12.4400014 104.5349992  87.0489978  11.8450014
 104.9529992  87.8539978  13.0580014 104.3701240  87.6572314  12.4420959
 112.8939992  79.3369978  13.3000014 112.9439992  79.9469978  14.0360014
 113.3199992  79.7979978  12.5770014 112.9584108  79.4827709  13.3030112
 107.3719992  82.1289978  12.7670014 107.5149992  81.1829978  12.7870014
 107.2659992  82.3359978  11.8390014 107.3772403  82.0274797  12.6442239
 100.5269992  80.2309978  10.0400014 100.5699992  81.0909978   9.6210014
 100.0689992  79.6789978   9.4060014 100.4709871  80.2739245   9.8970761
 108.2489992  80.3619978   8.4410014 108.8959992  80.0329978   9.0650014
 108.7589992  80.8789978   7.8180014 108.4064351  80.3869067   8.4421037
  97.1469992  82.6279978  10.8020014  97.8009992  82.0779978  11.2340014
  97.1709992  82.3539978   9.8850014  97.2397199  82.5157167  10.7371668
 102.3039992  84.1779978  10.0170014 102.9199992  83.6509978  10.5260014
 101.7169992  83.5379978   9.6130014 102.3090154  84.0193954  10.0320945
 113.2859992  80.8149978  15.5360014 112.5969992  81.4729978  15.4410014
 113.3009992  80.6169978  16.4730014 113.1937756  80.8782603  15.6495812
  99.3369992  79.1489978  14.1140014  99.1179992  79.6789978  13.3470014
  98.6689992  79.3749978  14.7610014  99.2166975  79.2520967  14.0965140
 106.7059992  88.6489978   7.6580014 106.4109992  88.3259978   6.8060014
 106.3819992  89.5489978   7.6990014 106.6218460  88.7264464   7.5469714
 101.9059992  86.8239978  14.4010014 101.1659992  87.4229978  14.5050014
 102.6199992  87.3779978  14.0860014 101.9013500  86.9807829  14.3726371
 110.0129992  79.6529978  10.4210014 109.7979992  78.8869978  10.9540014
 110.6689992  80.1249978  10.9340014 110.0722673  79.6120728  10.5631990
  98.9309992  81.0409978  12.0660014  99.5449992  81.6739978  12.4390014
  99.4429992  80.5689978  11.4100014  99.0841962  81.0637249  12.0282935
 100.3139992  88.7889978  15.1880014 100.3079992  89.6679978  14.8100014
  99.4599992  88.7049978  15.6130014 100.1977925  88.8979535  15.1936887
  96.4349992  88.4599978   5.9700014  96.1629992  88.6889978   5.0820014
  96.4799992  89.2969978   6.4310014  96.4038097  88.6046163   5.9106683
 110.0599992  90.0809978  12.6830014 109.1179992  90.1399978  12.8450014
 110.3359992  90.9869978  12.5460014 109.9685865  90.2115288  12.6866192
 110.3599992  78.3679978  14.1000014 109.6239992  78.9779978  14.0630014
 111.0439992  78.7829978  13.5740014 110.3515367  78.5077551  14.0238174
 103.3639992  76.4539978  11.5660014 103.2459992  75.5059978  11.5120014
 102.5089992  76.7869978  11.8390014 103.2322805  76.3692202  11.5955079
 108.3119992  91.8619978   9.3080014 108.7369992  91.1549978   8.8230014
 108.6289992  92.6639978   8.8910014 108.4130266  91.8735190   9.1852479
 109.4719992  89.7629978   7.8170014 109.2139992  89.0729978   7.2050014
 109.5429992  89.3199978   8.6620014 109.4463050  89.6086814   7.8475621
 111.1579992  88.3299978  16.2940014 111.2969992  87.7379978  15.5550014
 111.3249992  89.2029978  15.9380014 111.1996193  88.3668896  16.1446211
 105.6299992  85.2919978   6.0670014 104.9189992  85.8269978   5.7150014
 106.3209992  85.3469978   5.4070014 105.6260751  85.3726777   5.9295858
 105.6839992  83.7489978   3.1050014 106.3849992  83.7719978   3.7570014
 105.9859992  83.1209978   2.4490014 105.8208202  83.6672212   3.1055609
 112.9989992  84.6699978  14.3600014 112.3469992  85.3639978  14.4490014
 113.4649992  84.8799978  13.5500014 112.9725937  84.7935019  14.2627533
 109.0359992  85.5009978   7.0180014 108.3039992  85.7299978   7.5920014
 109.4829992  84.7879978   7.4730014 108.9963963  85.4358729   7.1579945
 108.9329992  83.6759978  16.0860014 109.0129992  84.4389978  16.6580014
 108.3319992  83.9549978  15.3960014 108.8626547  83.8182457  16.0710047
 100.6809992  86.1319978   8.9010014 100.3509992  85.7609978   8.0830014
 101.2699992  85.4609978   9.2480014 100.7153970  85.9906063   8.8359404
 102.0479992  89.5599978  11.5820014 101.9529992  88.9809978  10.8260014
 102.7769992  89.1889978  12.0780014 102.1336011  89.4305561  11.5456028
 101.0479992  84.8999978  12.5340014 101.6129992  85.0219978  11.7720014
 101.3669992  85.5379978  13.1730014 101.1684166  85.0028791  12.5160348
 107.3569992  90.4039978  13.2680014 107.1169992  91.0659978  13.9160014
 107.1589992  89.5689978  13.6930014 107.2973826  90.3818115  13.4141566
 101.9279992  89.2999978  17.2520014 101.6169992  90.0819978  17.7070014
 101.2779992  89.1469978  16.5660014 101.7975538  89.3864087  17.2215898
 107.9069992  84.6639978   4.7040014 108.4859992  84.8139978   5.4500014
 108.3209992  85.1339978   3.9800014 108.0423358  84.7480954   4.7083953
  98.8479992  85.4979978  16.4800014  98.9179992  86.1489978  17.1790014
  97.9569992  85.6009978  16.1450014  98.7371690  85.6009249  16.5303043
 105.6329992  91.3999978   8.1390014 106.1069992  91.6959978   8.9160014
 105.0699992  92.1389978   7.9060014 105.6217890  91.5403036   8.2138101
 100.1669992  91.3709978  18.0150014 100.1749992  91.2349978  17.0680014
  99.2509992  91.2539978  18.2670014 100.0442528  91.3365463  17.9193243
 111.6059992  76.4139978   4.5170014 110.7059992  76.5529978   4.8120014
 111.8579992  77.2449978   4.1150014 111.5168683  76.5454055   4.5030232
  99.6719992  85.2009978   6.4900014  99.3799992  85.9689978   5.9990014
  98.9969992  84.5419978   6.3270014  99.5408497  85.2169745   6.4008260
 112.7949992  90.7799978   2.8930014 112.8679992  91.7189978   3.0630014
 113.6999992  90.4749978   2.8370014 112.9274170  90.8673282   2.9087063
  95.7649992  87.5639978  15.3050014  95.2629992  87.5359978  14.4900014
  95.7699992  86.6589978  15.6150014  95.6969832  87.4377486  15.2354121
  95.5149992  90.3449978  12.1890014  96.4609992  90.1999978  12.1700014
  95.4019992  91.1289978  12.7260014  95.6293578  90.4311697  12.2590317
 113.7129992  91.0109978  17.8720014 113.6629992  90.0549978  17.8340014
 112.8859992  91.2779978  18.2730014 113.5943831  90.9164680  17.9210121
 104.6909992  90.5849978  16.7480014 104.7789992  91.4109978  17.2230014
 103.8279992  90.2549978  16.9970014 104.5863357  90.6535468  16.8467653
 105.1059992  94.3569978   6.5540014 105.0299992  94.2359978   5.6070014
 105.1379992  95.3059978   6.6720014 105.0999380  94.4687677   6.4405181
  98.7589992  93.1459978   8.3350014  98.9109992  92.7979978   9.2130014
  97.9079992  92.7889978   8.0790014  98.6648344  93.0500879   8.4206868
 108.2069992  93.5109978   3.5560014 108.5819992  92.7669978   3.0850014
 108.2119992  93.2409978   4.4740014 108.2590098  93.3726392   3.6156629
 107.8759992  93.4369978   6.3050014 106.9409992  93.5369978   6.4840014
 108.1559992  92.7269978   6.8840014 107.7859471  93.3547933   6.4076695
 110.8649992  82.5039978  18.3520014 110.4569992  82.9839978  17.6310014
 110.9049992  81.5979978  18.0440014 110.8146221  82.4472449  18.2118267
  98.0139992  88.8879978  16.3480014  98.2299992  88.5259978  17.2080014
  97.1579992  88.5129978  16.1390014  97.9278810  88.7878837  16.4372680
 100.6319992  77.3579978  12.3440014  99.7709992  77.2709978  11.9360014
 100.6099992  78.2139978  12.7720014 100.5110491  77.4618003  12.3459582
 105.2949992  77.0799978  15.7190014 105.7149992  76.6649978  16.4720014
 104.3619992  76.9009978  15.8360014 105.2263736  76.9989910  15.8378968
 108.6219992  80.8349978  16.5720014 108.1079992  80.7099978  17.3700014
 108.4659992  81.7479978  16.3280014 108.5306967  80.9412123  16.6480937
 109.3839992  85.6959978   2.3330014 109.4259992  85.4739978   1.4030014
 110.2329992  86.0949978   2.5230014 109.5045253  85.7195498   2.2313822
 104.9569992  79.5719978   3.0040014 104.7029992  79.5909978   3.9260014
 104.6999992  78.7009978   2.7020014 104.8874508  79.4568280   3.0894803
 100.7229992  82.3229978  13.4390014 100.0819992  82.2829978  14.1480014
 100.7609992  83.2499978  13.2010014 100.6403010  82.4427668  13.5039946
 100.7199992  82.5439978   8.3510014  99.8279992  82.2039978   8.2920014
 101.1709992  82.1669978   7.5950014 100.6587642  82.4464910   8.2407726
 106.2559992  82.9599978   7.1680014 105.8469992  83.7749978   6.8760014
 106.9759992  82.8199978   6.5540014 106.2974439  83.0525372   7.0450115
 105.3579992  83.1359978  18.6560014 104.7949992  82.4309978  18.9770014
 106.1839992  83.0149978  19.1240014 105.3926674  83.0232165  18.7631751
 107.2609992  82.4059978   9.9820014 107.0649992  83.0119978   9.2670014
 107.4419992  81.5729978   9.5480014 107.2586584  82.3762513   9.8254212
  98.4729992  82.6439978  15.3060014  98.4349992  83.0439978  16.1750014
  97.9829992  81.8269978  15.3960014  98.4015330  82.5882674  15.4371289
 101.8389992  80.0179978   2.1050014 101.4079992  79.5729978   2.8340014
 101.1209992  80.3889978   1.5920014 101.6829176  80.0072051   2.1354930
  95.0819992  79.7599978   9.1570014  95.7119992  79.7309978   9.8760014
  95.5309992  79.3349978   8.4260014  95.2290835  79.6985660   9.1567659
  96.3559992  80.5059978   4.5810014  96.8299992  81.0969978   3.9960014
  95.6379992  81.0359978   4.9280014  96.3238640  80.6585511   4.5477969
 106.5249992  84.0439978  14.6530014 106.8479992  83.4129978  14.0100014
 106.0839992  83.5099978  15.3140014 106.5096379  83.8853468  14.6542582
 103.3019992  79.9719978   9.4370014 102.3909992  80.0289978   9.7260014
 103.8069992  79.9119978  10.2480014 103.2456873  79.9716826   9.5861207
  98.1299992  81.6009978   8.2640014  97.2409992  81.6999978   7.9240014
  98.4269992  80.7589978   7.9180014  98.0484177  81.5007687   8.1706940
 101.7829992  81.6009978   5.9210014 102.7149992  81.7299978   6.0990014
 101.5679992  82.2699978   5.2710014 101.8814472  81.7090806   5.8574891
 107.7069992  79.2069978  12.7020014 107.0299992  79.3379978  13.3650014
 107.2219992  79.0519978  11.8910014 107.5487405  79.2039947  12.6832170
 100.4569992  82.7949978   3.4870014  99.9149992  82.4159978   2.7960014
 101.2909992  82.9899978   3.0590014 100.4954390  82.7694079   3.3344392
 110.9949992  94.8779978  18.9780014 111.1939992  95.3019978  18.1440014
 111.6499992  95.2219978  19.5850014 111.1108522  94.9826301  18.9457852
  98.5929992  87.3519978  18.5860014  99.3249992  87.6069978  19.1480014
  97.8119992  87.5569978  19.1020014  98.5876526  87.4145450  18.7325176
 104.6219992  82.7589978  11.3240014 105.1859992  82.2129978  10.7770014
 104.4739992  82.2379978  12.1130014 104.6793037  82.6136787  11.3557229
  99.6239992  78.8959978   7.7430014  99.3069992  77.9929978   7.7070014
 100.4049992  78.8979978   7.1900014  99.6862431  78.7727797   7.6633102
 103.2479992  81.1479978  13.7380014 102.4129992  81.6019978  13.8490014
 103.7719992  81.4239978  14.4900014 103.2046072  81.2473948  13.8548136
 103.7929992  87.3609978   5.4230014 103.0479992  86.8529978   5.1010014
 103.6579992  87.4099978   6.3690014 103.6728963  87.2981731   5.5068826
 110.9429992  86.4939978  14.2100014 111.5839992  86.9499978  13.6660014
 110.1119992  86.6069978  13.7470014 110.9185287  86.5716921  14.0729887
 107.6899992  80.1749978   3.6220014 106.7519992  80.2859978   3.4710014
 107.9879992  81.0309978   3.9290014 107.6016318  80.3060158   3.6428145
 105.3119992  87.5449978  16.6600014 104.9659992  87.1629978  17.4670014
 105.1119992  88.4779978  16.7310014 105.2375987  87.6189002  16.7800461
 108.4089992  82.0419978   5.2830014 109.3009992  81.9039978   5.6020014
 108.4649992  82.8329978   4.7460014 108.5387325  82.1299918   5.2541217
  98.9169992  86.6559978  11.1930014  99.6619992  86.6529978  10.5910014
  98.9949992  85.8319978  11.6740014  99.0293365  86.5442384  11.1757430
 105.9179992  88.8189978   4.4480014 105.6229992  89.6459978   4.8300014
 105.2149992  88.1999978   4.6450014 105.7826379  88.8484171   4.5268654
  95.9249992  85.1159978  16.5080014  96.1479992  84.6979978  17.3390014
  95.3229992  84.5039978  16.0850014  95.8741513  84.9759606  16.5646740
 102.9419992  84.6329978  18.7210014 102.6459992  84.4679978  17.8250014
 103.8729992  84.4129978  18.7100014 103.0274401  84.5806879  18.5970206
 107.5619992  90.0069978  16.6100014 106.6619992  90.1899978  16.3430014
 107.5959992  90.2659978  17.5310014 107.4433748  90.0670554  16.6979164
 113.2939992  82.2509978   4.9780014 112.7389992  81.8549978   4.3050014
 113.3939992  83.1619978   4.7000014 113.2316816  82.3199505   4.8485033
 113.2569992  88.0519978  17.8150014 112.4059992  88.2899978  17.4470014
 113.8469992  88.0349978  17.0620014 113.2203812  88.0822524  17.6628453
 111.5889992  91.0369978   5.4430014 111.2159992  90.2119978   5.7520014
 111.8659992  90.8539978   4.5450014 111.5753463  90.8992569   5.3639525
 108.7489992  85.8449978  12.4640014 107.8209992  85.6139978  12.4370014
 109.1999992  85.0679978  12.1340014 108.6828165  85.7082774  12.4156790
 101.2919992  90.1739978   8.5970014 101.8199992  90.9469978   8.3970014
 100.4119992  90.3979978   8.2950014 101.2453435  90.3102700   8.5287310
  97.0469992  85.0359978   3.1840014  97.6629992  85.6629978   3.5640014
  96.1849992  85.3519978   3.4560014  97.0147678  85.1644412   3.2727209
 102.7199992  87.8369978   8.1730014 102.4789992  88.7619978   8.2150014
 101.9789992  87.3779978   8.5700014 102.5869206  87.9015915   8.2323769
 103.2339992  91.9859978  14.4880014 103.5969992  92.8399978  14.2550014
 103.7659992  91.6939978  15.2290014 103.3555141  92.0633895  14.5562097
 101.4029992  92.8579978   7.7190014 100.4529992  92.9639978   7.7700014
 101.7549992  93.6789978   8.0630014 101.3205472  92.9834923   7.7724852
 106.7779992  88.0849978  14.1890014 106.3529992  87.8569978  15.0150014
 107.3589992  87.3459978  14.0070014 106.7983395  87.9539545  14.2774414
 108.9809992  89.0139978   3.2630014 109.3349992  88.6339978   4.0670014
 108.0329992  88.9199978   3.3500014 108.9012298  88.9492452   3.3848687
 109.4369992  92.6369978  16.6580014 108.8349992  92.0809978  16.1630014
 109.7179992  93.3039978  16.0320014 109.3925757  92.6510744  16.5055675
 113.4849992  93.4929978   3.4640014 114.2289992  94.0789978   3.3240014
 112.7909992  94.0619978   3.7970014 113.4929809  93.6500818   3.4898590
  97.5589992  79.8699978  16.0660014  96.6669992  80.2079978  15.9980014
  97.4609992  79.0139978  16.4840014  97.4234475  79.8006543  16.1131704
 109.8469992  87.6859978   5.4900014 109.5699992  86.9579978   6.0460014
 110.7749992  87.8049978   5.6950014 109.9344499  87.6024213   5.5938044
  97.2109992  91.6739978  14.5010014  97.4279992  90.7419978  14.4700014
  97.4569992  91.9489978  15.3840014  97.2739809  91.5835686  14.6161691
 103.0719992  90.1259978   1.7100014 103.3109992  89.3769978   1.1630014
 102.8029992  89.7379978   2.5430014 103.0683233  89.9711853   1.7477809
 102.0089992  89.6959978   4.1660014 102.1559992  89.1759978   4.9560014
 102.0059992  90.6029978   4.4730014 102.0287102  89.7473953   4.3155925
  98.4619992  86.9479978   4.6770014  97.7759992  87.3009978   5.2440014
  98.9849992  87.7109978   4.4300014  98.4388402  87.0993901   4.7211801
 106.2939992  79.6109978  14.9560014 106.9929992  79.6849978  15.6060014
 105.9129992  78.7459978  15.1100014 106.3382097  79.5042389  15.0657997
 107.0779992  79.2629978   6.0530014 107.2979992  79.7339978   5.2490014
 107.6369992  79.6569978   6.7230014 107.1836732  79.3807287   6.0335033
 104.7469992  91.3929978   4.9160014 103.9299992  91.8899978   4.9680014
 105.2759992  91.8689978   4.2750014 104.7068125  91.5251989   4.8365306
 104.2779992  80.9909978   6.8880014 105.0899992  81.4949978   6.9340014
 104.0339992  80.8459978   7.8020014 104.3561467  81.0403749   7.0178575
 104.8139992  81.9769978  16.0720014 104.9329992  82.5509978  16.8290014
 105.4689992  81.2889978  16.1870014 104.9188684  81.9625194  16.1911674
 105.1619992  78.0719978   7.8260014 104.8149992  78.6889978   8.4700014
 105.8209992  78.5729978   7.3440014 105.2035090  78.2241575   7.8490681
 102.0849992  92.4369978   4.8970014 102.2459992  93.2369978   4.3970014
 101.8879992  92.7439978   5.7820014 102.0803906  92.5878678   4.9482333
 100.8199992  79.1349978   4.5130014 100.7359992  80.0229978   4.8600014
 101.7099992  78.8699978   4.7450014 100.9288163  79.2207179   4.5918596
 111.0179992  79.8839978  16.9070014 110.1019992  80.1459978  16.8200014
 111.3539992  79.8809978  16.0110014 110.9378499  79.9195163  16.7738766
 109.6209992  83.6339978  11.0030014 108.8229992  83.2189978  10.6750014
 110.0659992  82.9439978  11.4940014 109.5719684  83.4838628  11.0245227
  99.0779992  89.5619978   3.5730014  99.6699992  90.2619978   3.8500014
  99.5369992  89.1289978   2.8540014  99.2211652  89.5992675   3.5136533
  97.3939992  82.2269978   2.6890014  97.3489992  83.1659978   2.8680014
  96.5059992  81.9909978   2.4200014  97.2678166  82.3236687   2.6771524
 110.7069992  92.8899978  12.6250014 110.5509992  93.5689978  11.9680014
 111.6399992  92.9619978  12.8280014 110.8117387  92.9926390  12.5625342
  98.2019992  77.0079978  11.3630014  97.9729992  77.0669978  10.4350014
  97.7599992  76.2169978  11.6690014  98.1108801  76.9090540  11.2774729
  97.1329992  90.9489978   7.5230014  96.2999992  91.4209978   7.5500014
  97.6779992  91.4589978   6.9240014  97.0927857  91.0824791   7.4457142
  96.4209992  93.5609978  18.8530014  96.9609992  93.3449978  19.6130014
  95.9399992  92.7559978  18.6630014  96.4299219  93.4225156  18.9314282
 101.0179992  92.4809978  20.4730014 101.7859992  92.0219978  20.8140014
 100.9969992  92.2549978  19.5430014 101.1202135  92.3876668  20.3939491
 105.1099992  91.9889978   1.8490014 104.4659992  91.3579978   2.1700014
 105.8719992  91.4579978   1.6170014 105.1248058  91.8307902   1.8616038
 107.5949992  90.8609978  19.2020014 107.2439992  90.0039978  19.4460014
 108.3209992  91.0029978  19.8090014 107.6451895  90.7631351  19.3173770
 109.7149992  91.8059978   2.0820014 109.9979992  91.0109978   2.5350014
 110.4539992  92.0389978   1.5210014 109.8537096  91.7287049   2.0681104
  96.3279992  87.3719978  19.8070014  96.4719992  86.4699978  19.5210014
  95.5559992  87.6579978  19.3200014  96.2432733  87.2871798  19.7019532
 100.6689992  87.7149978   1.9400014 100.7339992  86.9209978   2.4700014
 101.3219992  87.5969978   1.2500014 100.7661605  87.5903430   1.9192997
 102.9829992  87.3409978  19.2400014 102.6549992  87.6119978  18.3830014
 103.1349992  86.3999978  19.1520014 102.9586412  87.2509046  19.1107822
 106.0219992  88.7619978   1.6760014 105.7529992  88.9429978   2.5760014
 105.8149992  87.8369978   1.5440014 105.9571191  88.6617119   1.7815524
 108.7179992  87.2569978  16.6230014 109.4629992  87.8459978  16.5040014
 107.9609992  87.8389978  16.6870014 108.7175470  87.4162128  16.6153799
  97.1609992  84.5719978  19.2270014  97.5689992  83.7149978  19.1060014
  96.8999992  84.5859978  20.1480014  97.1816016  84.4565119  19.3349192
 101.8189992  85.6879978   4.2460014 101.3589992  85.2039978   4.9310014
 102.0739992  85.0189978   3.6100014 101.7904856  85.5313669   4.2538397
 101.1079992  83.5809978  16.6020014 100.4889992  84.2549978  16.8820014
 101.4519992  83.9019978  15.7680014 101.0697123  83.7166887  16.5276388
 102.8899992  83.9309978   2.5080014 102.7089992  83.7759978   1.5810014
 103.8399992  84.0389978   2.5530014 102.9936566  83.9243669   2.3870929
 106.1269992  86.0519978  19.8790014 107.0809992  86.1359978  19.8520014
 105.9669992  85.3399978  20.4990014 106.2357182  85.9672842  19.9590733
 112.2799992  86.2849978   1.9540014 112.0059992  85.8609978   1.1410014
 112.3189992  87.2169978   1.7370014 112.2477716  86.3528827   1.8134286
 101.4469992  80.9359978  17.6840014 101.5969992  80.2069978  17.0820014
 101.4489992  81.7129978  17.1250014 101.4677967  80.9412708  17.5260541
 101.8599992  79.3049978  15.1770014 102.3949992  79.7569978  14.5250014
 101.0069992  79.1969978  14.7540014 101.8180374  79.3522665  15.0306710
 103.4409992  84.7449978  15.4160014 104.1919992  84.5889978  14.8430014
 103.1019992  85.5969978  15.1410014 103.4979587  84.8388138  15.3004078
 107.8569992  82.5599978  20.4450014 108.0489992  81.6289978  20.3330014
 108.7149992  82.9849978  20.4340014 107.9992182  82.4900070  20.4281862
 109.1739992  85.3489978  18.5220014 108.8919992  86.0579978  17.9440014
 110.1159992  85.2759978  18.3710014 109.2627921  85.4362193  18.4224225
  99.9259992  82.1339978  19.5950014  99.1579992  81.6009978  19.3850014
 100.6039992  81.8239978  18.9960014  99.9127235  82.0191754  19.4852413
 102.6649992  76.7619978  15.6080014 102.5669992  77.7079978  15.5030014
 101.9229992  76.3889978  15.1320014 102.5512534  76.8411773  15.5292600
 103.9289992  81.0829978  19.1720014 103.6939992  80.8639978  20.0730014
 103.1459992  80.8759978  18.6620014 103.7909095  81.0249892  19.2265353
 106.6449992  80.2109978  18.2470014 105.6969992  80.2429978  18.3790014
 106.9569992  79.5849978  18.9010014 106.5575293  80.1307923  18.3534148
 108.2789992  78.8449978  20.2520014 108.1819992  77.8929978  20.2470014
 107.9569992  79.1129978  21.1130014 108.2222468  78.7510884  20.3676210
  98.1059992  80.0539978  19.3000014  98.3179992  79.3479978  18.6900014
  97.9949992  79.6169978  20.1440014  98.1200269  79.8981921  19.3305873
 102.8869992  76.0559978  18.2790014 103.5989992  75.4159978  18.2650014
 102.7859992  76.3219978  17.3660014 102.9707387  76.0044330  18.1535563
 103.2409992  77.7379978  20.3330014 103.1089992  77.2629978  19.5130014
 102.6409992  78.4829978  20.2780014 103.1419070  77.7735789  20.2133251
 102.7869992  94.6209978   3.5090014 103.7199992  94.7789978   3.6530014
 102.5229992  95.2969978   2.8840014 102.8789911  94.7339373   3.4442722
  96.3549992  89.2579978   2.9920014  97.2689992  89.3369978   3.2650014
  96.3629992  88.5709978   2.3260014  96.4810655  89.1759205   2.9392917
  95.0039992  94.6509978   8.0690014  94.3569992  94.1889978   7.5370014
  95.3589992  93.9789978   8.6520014  94.9633741  94.4969774   8.0749175
  95.8739992  92.7309978   9.8740014  95.5399992  91.8509978  10.0460014
  96.0969992  93.0769978  10.7390014  95.8583721  92.6571938  10.0144168
 113.4229992  93.5409978  12.8550014 113.4009992  93.7259978  13.7940014
 114.1129992  94.1089978  12.5140014 113.5133439  93.6431887  12.9374791
 112.9859992  93.1079978  15.7760014 112.4989992  92.3729978  15.4050014
 113.5349992  92.7139978  16.4540014 112.9935247  92.9541057  15.8168461
 111.4369992  88.8979978  20.4150014 110.5709992  88.7929978  20.8090014
 111.8129992  89.6559978  20.8610014 111.3693401  88.9861708  20.5292620
 112.7379992  87.1539978   5.9290014 113.5879992  87.5749978   6.0560014
 112.7429992  86.4139978   6.5360014 112.8551143  87.1116094   6.0284750
 113.1319992  85.2079978   7.7520014 112.4059992  84.7279978   8.1500014
 113.7139992  85.4129978   8.4850014 113.1112730  85.1700184   7.9054149
 112.8909992  87.9929978  12.7000014 113.7249992  87.6149978  12.4190014
 113.0029992  88.9359978  12.5810014 113.0201917  88.0687943  12.6454861
 111.3779992  90.8709978  15.0070014 110.7299992  91.1959978  15.6320014
 110.8599992  90.4299978  14.3330014 111.2194196  90.8558651  15.0014152
 113.4009992  85.1089978   4.1430014 112.8789992  85.4649978   3.4250014
 113.3679992  85.7839978   4.8220014 113.3250129  85.2489598   4.1363355
 111.7499992  82.3479978   2.6940014 111.8459992  83.0149978   2.0140014
 111.6099992  81.5329978   2.2130014 111.7442040  82.3290671   2.5358378
 110.9189992  83.7289978   8.3150014 110.7689992  82.7839978   8.2950014
 110.5649992  84.0099978   9.1590014 110.8506351  83.6376644   8.4263220
  95.9539992  85.8069978  12.3260014  96.1389992  85.7249978  11.3900014
  96.8039992  85.6829978  12.7490014  96.0940928  85.7790463  12.2552893
 111.7749992  85.6989978  17.9540014 112.3579992  84.9639978  18.1460014
 112.3389992  86.4709978  18.0010014 111.9309781  85.7028145  17.9866164
 113.2719992  83.6019978  18.6390014 112.4089992  83.2229978  18.4730014
 113.8759992  82.8629978  18.5640014 113.2356085  83.4503223  18.6061694
 110.9969992  79.7559978   1.8120014 111.6079992  79.3849978   2.4490014
 110.1599992  79.3349978   2.0080014 110.9674947  79.6482756   1.9257252
 110.6299992  81.3109978   6.7780014 110.9089992  80.4039978   6.9020014
 111.3889992  81.7449978   6.3890014 110.7708619  81.2454502   6.7423795
 111.2409992  81.8929978  12.2140014 112.1739992  82.1049978  12.1790014
 111.0059992  81.9939978  13.1360014 111.3369517  81.9356833  12.3339130
 111.2709992  82.6299978  14.9900014 110.4279992  82.8979978  15.3560014
 111.7129992  83.4519978  14.7790014 111.2154138  82.7778273  15.0115518
  95.5519992  81.0769978  18.4660014  96.4709992  80.9549978  18.7030014
  95.1019992  80.3269978  18.8560014  95.6170087  80.9589608  18.5511410
 113.5539992  76.6099978  20.3430014 113.9029992  75.9559978  19.7380014
 113.7009992  77.4469978  19.9030014 113.6216824  76.6336024  20.2006304
 111.2429992  78.5739978   6.8260014 111.4249992  78.1249978   7.6510014
 110.6429992  77.9899978   6.3620014 111.1868187  78.4335552   6.8762739
  96.7729992  79.3899978  11.3580014  97.2179992  78.5979978  11.6600014
  97.2389992  80.1059978  11.7880014  96.8969718  79.3784534  11.4575265
  95.0769992  82.3889978  12.4270014  95.5689992  82.1679978  11.6360014
  95.4389992  83.2289978  12.7080014  95.1932923  82.4723468  12.3567407
 113.0729992  78.7189978  18.6920014 112.1559992  78.9899978  18.6570014
 113.1959992  78.1839978  17.9080014 112.9639672  78.6837885  18.5811862
 113.1099992  78.6419978   3.3540014 113.5219992  77.9209978   2.8790014
 113.7909992  79.3109978   3.4120014 113.2585536  78.6337766   3.2968024
  95.3909992  78.6469978   6.4810014  94.4659992  78.8549978   6.3520014
  95.8449992  79.1309978   5.7910014  95.3256298  78.7409299   6.3700451
 110.1609992  93.6309978   8.4270014 110.8139992  93.2829978   7.8190014
 110.6719992  94.1189978   9.0730014 110.3192777  93.6493815   8.4312047
  95.3539992  77.3849978  14.8250014  94.6889992  77.1389978  15.4680014
  94.9109992  78.0069978  14.2480014  95.2031168  77.4354214  14.8349848
  97.5459992  90.5599978  18.9700014  96.7249992  90.7349978  18.5090014
  97.2939992  90.4869978  19.8900014  97.3995594  90.5740717  19.0313611
 100.4999992  91.5339978  15.2280014 100.0759992  92.3439978  14.9460014
 101.4049992  91.6199978  14.9260014 100.5642138  91.6564160  15.1486415
 104.8119992  92.9329978  18.1880014 104.9959992  92.5999978  19.0660014
 105.6579992  93.2429978  17.8660014 104.9516484  92.9292979  18.2647617
 107.1569992  94.2189978  17.4320014 107.8339992  93.5859978  17.1920014
 107.4779992  94.6199978  18.2390014 107.2931323  94.1865691  17.5083158
 112.0739992  76.8089978  16.5110014 111.2609992  77.1339978  16.1240014
 112.3069992  76.0479978  15.9780014 111.9941347  76.7506880  16.3859841
  97.9019992  94.7909978  15.2760014  97.1819992  95.2309978  14.8250014
  97.5369992  94.5399978  16.1240014  97.7539643  94.8173369  15.3289129
 100.3689992  94.3909978  14.3060014  99.5049992  94.4629978  14.7100014
 100.3139992  94.9379978  13.5220014 100.2431942  94.4747849  14.2554000
 105.0799992  94.2789978  13.4810014 104.6229992  94.8079978  12.8270014
 105.2429992  94.8819978  14.2060014 105.0394960  94.4329280  13.4895274
 107.4079992  93.1569978  14.4260014 106.5029992  93.3219978  14.1600014
 107.8359992  94.0099978  14.3600014 107.3421537  93.2949134  14.3807095
 110.0119992  94.7269978  14.7210014 109.8299992  95.6429978  14.5100014
 110.1889992  94.3159978  13.8740014 110.0110030  94.7968273  14.5777166
  97.3169992  93.4139978  12.1860014  97.2989992  92.9879978  13.0430014
  98.1219992  93.0949978  11.7770014  97.4232875  93.3126435  12.2479515
  99.4579992  92.1239978  10.8410014  99.2389992  91.2069978  11.0110014
 100.2819992  92.2639978  11.3070014  99.5394702  92.0175511  10.9272527
 101.9949992  92.5939978  11.6900014 102.2079992  91.7059978  11.4030014
 102.0599992  92.5589978  12.6440014 102.0329149  92.4678326  11.7797369
 105.5039992  78.2579978  10.8340014 104.8299992  77.6279978  11.0900014
 106.0679992  77.7739978  10.2310014 105.4880384  78.1063708  10.7875020
 110.6469992  76.3649978  10.9470014 111.2499992  76.9129978  10.4450014
 109.7769992  76.6839978  10.7060014 110.6119157  76.4830373  10.8457910
 112.3739992  77.5039978   9.2800014 112.9849992  76.9899978   8.7530014
 112.7559992  78.3809978   9.3030014 112.5093305  77.5522050   9.2109418
  97.8309992  76.8919978   8.6560014  97.0539992  76.6569978   8.1490014
  98.3609992  76.0949978   8.6650014  97.7963451  76.7521268   8.5878627
  96.6669992  76.6899978   4.4600014  97.1059992  77.3009978   3.8680014
  96.0329992  77.2279978   4.9340014  96.6413859  76.8464064   4.4430305
 102.4099992  76.8179978   8.4690014 103.2839992  77.2069978   8.4400014
 102.2739992  76.6029978   9.3920014 102.5111953  76.8421643   8.5897617
 107.9669992  76.8479978  10.1190014 108.0429992  76.9439978   9.1690014
 107.6919992  75.9409978  10.2470014 107.9401871  76.7384146  10.0063944
 109.3199992  76.8739978   5.8110014 108.6169992  77.4889978   5.6010014
 108.8749992  76.0369978   5.9420014 109.1636550  76.8449668   5.7999837
  96.5679992  92.6379978   5.3570014  95.8829992  92.5999978   4.6900014
  96.5719992  93.5509978   5.6450014  96.4747621  92.7561924   5.3046126
  98.5279992  78.6059978   2.9020014  99.0189992  77.9759978   2.3750014
  99.1509992  78.9019978   3.5650014  98.6795304  78.5597376   2.9194940
 103.5539992  78.8989978   5.3590014 103.7319992  78.2519978   6.0420014
 103.4999992  79.7329978   5.8260014 103.5710678  78.9231604   5.5156301
 105.4319992  93.8469978   3.7550014 106.2979992  94.2139978   3.5770014
 105.1859992  93.4079978   2.9410014 105.5172097  93.8378525   3.6206019
 112.1409992  93.4099978   6.4340014 111.9469992  92.6619978   5.8690014
 112.1019992  94.1679978   5.8510014 112.1091645  93.4100786   6.2778148
  97.7879992  77.4059978  18.1740014  97.4219992  76.6399978  18.6160014
  98.7009992  77.4349978  18.4600014  97.8613172  77.3050324  18.2731890
  99.7609992  76.7559978  19.7090014 100.6599992  76.4819978  19.5250014
  99.3749992  76.0139978  20.1740014  99.8317307  76.6182196  19.7467098
  98.3859992  93.5579978   2.3820014  98.1179992  93.8439978   3.2560014
  99.1569992  93.0119978   2.5350014  98.4535926  93.5232779   2.5221205
 108.1829992  76.0889978  19.8920014 108.2589992  75.6629978  20.7450014
 109.0759992  76.1019978  19.5490014 108.3142303  76.0323493  19.9625497
 111.3589992  92.1619978  18.5840014 110.5769992  91.9749978  18.0640014
 111.2869992  93.0909978  18.8010014 111.2421924  92.2620637  18.5421602
 125.7649992  86.0479978   8.6150014 125.8539992  86.9919978   8.4830014
 125.1269992  85.7729978   7.9570014 125.6909062  86.1399812   8.5079641
 124.6979992  85.3029978  12.0340014 124.6599992  84.6569978  12.7390014
 124.3759992  84.8359978  11.2630014 124.6492679  85.1514276  12.0262921
 117.0659992  84.9169978  13.6270014 117.1079992  84.2919978  14.3500014
 117.7689992  85.5409978  13.8090014 117.1667345  84.9157873  13.7505273
 128.4039992  88.2419978  10.3350014 127.9629992  87.5219978  10.7860014
 128.3909992  88.9629978  10.9650014 128.3419215  88.2409291  10.4818105
 117.9899992  89.3669978  12.1620014 117.6199992  88.5649978  11.7920014
 118.9309992  89.1989978  12.2080014 118.0665984  89.2344638  12.1175603
 114.5999992  83.0269978   7.5540014 114.1519992  83.8729978   7.5360014
 114.0389992  82.4479978   7.0390014 114.4628546  83.0643993   7.4818891
 115.3099992  85.1889978   9.6800014 115.5239992  84.4189978  10.2080014
 116.0479992  85.2789978   9.0770014 115.4390200  85.0958587   9.6707035
 125.5159992  93.3459978  10.5470014 126.1349992  92.6699978  10.2740014
 125.3069992  93.1279978  11.4560014 125.5726056  93.2238869  10.6323967
 123.0869992  87.7349978  12.4400014 123.3909992  87.0489978  11.8450014
 123.8089992  87.8539978  13.0580014 123.2261240  87.6572314  12.4420959
 131.7499992  79.3369978  13.3000014 131.7999992  79.9469978  14.0360014
 132.1759992  79.7979978  12.5770014 131.8144108  79.4827709  13.3030112
 126.2279992  82.1289978  12.7670014 126.3709992  81.1829978  12.7870014
 126.1219992  82.3359978  11.8390014 126.2332403  82.0274797  12.6442239
 119.3829992  80.2309978  10.0400014 119.4259992  81.0909978   9.6210014
 118.9249992  79.6789978   9.4060014 119.3269871  80.2739245   9.8970761
 127.1049992  80.3619978   8.4410014 127.7519992  80.0329978   9.0650014
 127.6149992  80.8789978   7.8180014 127.2624351  80.3869067   8.4421037
 116.0029992  82.6279978  10.8020014 116.6569992  82.0779978  11.2340014
 116.0269992  82.3539978   9.8850014 116.0957199  82.5157167  10.7371668
 121.1599992  84.1779978  10.0170014 121.7759992  83.6509978  10.5260014
 120.5729992  83.5379978   9.6130014 121.1650154  84.0193954  10.0320945
 132.1419992  80.8149978  15.5360014 131.4529992  81.4729978  15.4410014
 132.1569992  80.6169978  16.4730014 132.0497756  80.8782603  15.6495812
 118.1929992  79.1489978  14.1140014 117.9739992  79.6789978  13.3470014
 117.5249992  79.3749978  14.7610014 118.0726975  79.2520967  14.0965140
 125.5619992  88.6489978   7.6580014 125.2669992  88.3259978   6.8060014
 125.2379992  89.5489978   7.6990014 125.4778460  88.7264464   7.5469714
 120.7619992  86.8239978  14.4010014 120.0219992  87.4229978  14.5050014
 121.4759992  87.3779978  14.0860014 120.7573500  86.9807829  14.3726371
 128.8689992  79.6529978  10.4210014 128.6539992  78.8869978  10.9540014
 129.5249992  80.1249978  10.9340014 128.9282673  79.6120728  10.5631990
 117.7869992  81.0409978  12.0660014 118.4009992  81.6739978  12.4390014
 118.2989992  80.5689978  11.4100014 117.9401962  81.0637249  12.0282935
 119.1699992  88.7889978  15.1880014 119.1639992  89.6679978  14.8100014
 118.3159992  88.7049978  15.6130014 119.0537925  88.8979535  15.1936887
 115.2909992  88.4599978   5.9700014 115.0189992  88.6889978   5.0820014
 115.3359992  89.2969978   6.4310014 115.2598097  88.6046163   5.9106683
 128.9159992  90.0809978  12.6830014 127.9739992  90.1399978  12.8450014
 129.1919992  90.9869978  12.5460014 128.8245865  90.2115288  12.6866192
 129.2159992  78.3679978  14.1000014 128.4799992  78.9779978  14.0630014
 129.8999992  78.7829978  13.5740014 129.2075367  78.5077551  14.0238174
 122.2199992  76.4539978  11.5660014 122.1019992  75.5059978  11.5120014
 121.3649992  76.7869978  11.8390014 122.0882805  76.3692202  11.5955079
 127.1679992  91.8619978   9.3080014 127.5929992  91.1549978   8.8230014
 127.4849992  92.6639978   8.8910014 127.2690266  91.8735190   9.1852479
 128.3279992  89.7629978   7.8170014 128.0699992  89.0729978   7.2050014
 128.3989992  89.3199978   8.6620014 128.3023050  89.6086814   7.8475621
 130.0139992  88.3299978  16.2940014 130.1529992  87.7379978  15.5550014
 130.1809992  89.2029978  15.9380014 130.0556193  88.3668896  16.1446211
 124.4859992  85.2919978   6.0670014 123.7749992  85.8269978   5.7150014
 125.1769992  85.3469978   5.4070014 124.4820751  85.3726777   5.9295858
 124.5399992  83.7489978   3.1050014 125.2409992  83.7719978   3.7570014
 124.8419992  83.1209978   2.4490014 124.6768202  83.6672212   3.1055609
 131.8549992  84.6699978  14.3600014 131.2029992  85.3639978  14.4490014
 132.3209992  84.8799978  13.5500014 131.8285937  84.7935019  14.2627533
 127.8919992  85.5009978   7.0180014 127.1599992  85.7299978   7.5920014
 128.3389992  84.7879978   7.4730014 127.8523963  85.4358729   7.1579945
 127.7889992  83.6759978  16.0860014 127.8689992  84.4389978  16.6580014
 127.1879992  83.9549978  15.3960014 127.7186547  83.8182457  16.0710047
 119.5369992  86.1319978   8.9010014 119.2069992  85.7609978   8.0830014
 120.1259992  85.4609978   9.2480014 119.5713970  85.9906063   8.8359404
 120.9039992  89.5599978  11.5820014 120.8089992  88.9809978  10.8260014
 121.6329992  89.1889978  12.0780014 120.9896011  89.4305561  11.5456028
 119.9039992  84.8999978  12.5340014 120.4689992  85.0219978  11.7720014
 120.2229992  85.5379978  13.1730014 120.0244166  85.0028791  12.5160348
 126.2129992  90.4039978  13.2680014 125.9729992  91.0659978  13.9160014
 126.0149992  89.5689978  13.6930014 126.1533826  90.3818115  13.4141566
 120.7839992  89.2999978  17.2520014 120.4729992  90.0819978  17.7070014
 120.1339992  89.1469978  16.5660014 120.6535538  89.3864087  17.2215898
 126.7629992  84.6639978   4.7040014 127.3419992  84.8139978   5.4500014
 127.1769992  85.1339978   3.9800014 126.8983358  84.7480954   4.7083953
 117.7039992  85.4979978  16.4800014 117.7739992  86.1489978  17.1790014
 116.8129992  85.6009978  16.1450014 117.5931690  85.6009249  16.5303043
 124.4889992  91.3999978   8.1390014 124.9629992  91.6959978   8.9160014
 123.9259992  92.1389978   7.9060014 124.4777890  91.5403036   8.2138101
 119.0229992  91.3709978  18.0150014 119.0309992  91.2349978  17.0680014
 118.1069992  91.2539978  18.2670014 118.9002528  91.3365463  17.9193243
 130.4619992  76.4139978   4.5170014 129.5619992  76.5529978   4.8120014
 130.7139992  77.2449978   4.1150014 130.3728683  76.5454055   4.5030232
 118.5279992  85.2009978   6.4900014 118.2359992  85.9689978   5.9990014
 117.8529992  84.5419978   6.3270014 118.3968497  85.2169745   6.4008260
 131.6509992  90.7799978   2.8930014 131.7239992  91.7189978   3.0630014
 132.5559992  90.4749978   2.8370014 131.7834170  90.8673282   2.9087063
 114.6209992  87.5639978  15.3050014 114.1189992  87.5359978  14.4900014
 114.6259992  86.6589978  15.6150014 114.5529832  87.4377486  15.2354121
 114.3709992  90.3449978  12.1890014 115.3169992  90.1999978  12.1700014
 114.2579992  91.1289978  12.7260014 114.4853578  90.4311697  12.2590317
 132.5689992  91.0109978  17.8720014 132.5189992  90.0549978  17.8340014
 131.7419992  91.2779978  18.2730014 132.4503831  90.9164680  17.9210121
 123.5469992  90.5849978  16.7480014 123.6349992  91.4109978  17.2230014
 122.6839992  90.2549978  16.9970014 123.4423357  90.6535468  16.8467653
 123.9619992  94.3569978   6.5540014 123.8859992  94.2359978   5.6070014
 123.9939992  95.3059978   6.6720014 123.9559380  94.4687677   6.4405181
 117.6149992  93.1459978   8.3350014 117.7669992  92.7979978   9.2130014
 116.7639992  92.7889978   8.0790014 117.5208344  93.0500879   8.4206868
 127.0629992  93.5109978   3.5560014 127.4379992  92.7669978   3.0850014
 127.0679992  93.2409978   4.4740014 127.1150098  93.3726392   3.6156629
 126.7319992  93.4369978   6.3050014 125.7969992  93.5369978   6.4840014
 127.0119992  92.7269978   6.8840014 126.6419471  93.3547933   6.4076695
 129.7209992  82.5039978  18.3520014 129.3129992  82.9839978  17.6310014
 129.7609992  81.5979978  18.0440014 129.6706221  82.4472449  18.2118267
 116.8699992  88.8879978  16.3480014 117.0859992  88.5259978  17.2080014
 116.0139992  88.5129978  16.1390014 116.7838810  88.7878837  16.4372680
 119.4879992  77.3579978  12.3440014 118.6269992  77.2709978  11.9360014
 119.4659992  78.2139978  12.7720014 119.3670491  77.4618003  12.3459582
 124.1509992  77.0799978  15.7190014 124.5709992  76.6649978  16.4720014
 123.2179992  76.9009978  15.8360014 124.0823736  76.9989910  15.8378968
 127.4779992  80.8349978  16.5720014 126.9639992  80.7099978  17.3700014
 127.3219992  81.7479978  16.3280014 127.3866967  80.9412123  16.6480937
 128.2399992  85.6959978   2.3330014 128.2819992  85.4739978   1.4030014
 129.0889992  86.0949978   2.5230014 128.3605253  85.7195498   2.2313822
 123.8129992  79.5719978   3.0040014 123.5589992  79.5909978   3.9260014
 123.5559992  78.7009978   2.7020014 123.7434508  79.4568280   3.0894803
 119.5789992  82.3229978  13.4390014 118.9379992  82.2829978  14.1480014
 119.6169992  83.2499978  13.2010014 119.4963010  82.4427668  13.5039946
 119.5759992  82.5439978   8.3510014 118.6839992  82.2039978   8.2920014
 120.0269992  82.1669978   7.5950014 119.5147642  82.4464910   8.2407726
 125.1119992  82.9599978   7.1680014 124.7029992  83.7749978   6.8760014
 125.8319992  82.8199978   6.5540014 125.1534439  83.0525372   7.0450115
 124.2139992  83.1359978  18.6560014 123.6509992  82.4309978  18.9770014
 125.0399992  83.0149978  19.1240014 124.2486674  83.0232165  18.7631751
 126.1169992  82.4059978   9.9820014 125.9209992  83.0119978   9.2670014
 126.2979992  81.5729978   9.5480014 126.1146584  82.3762513   9.8254212
 117.3289992  82.6439978  15.3060014 117.2909992  83.0439978  16.1750014
 116.8389992  81.8269978  15.3960014 117.2575330  82.5882674  15.4371289
 120.6949992  80.0179978   2.1050014 120.2639992  79.5729978   2.8340014
 119.9769992  80.3889978   1.5920014 120.5389176  80.0072051   2.1354930
 113.9379992  79.7599978   9.1570014 114.5679992  79.7309978   9.8760014
 114.3869992  79.3349978   8.4260014 114.0850835  79.6985660   9.1567659
 115.2119992  80.5059978   4.5810014 115.6859992  81.0969978   3.9960014
 114.4939992  81.0359978   4.9280014 115.1798640  80.6585511   4.5477969
 125.3809992  84.0439978  14.6530014 125.7039992  83.4129978  14.0100014
 124.9399992  83.5099978  15.3140014 125.3656379  83.8853468  14.6542582
 122.1579992  79.9719978   9.4370014 121.2469992  80.0289978   9.7260014
 122.6629992  79.9119978  10.2480014 122.1016873  79.9716826   9.5861207
 116.9859992  81.6009978   8.2640014 116.0969992  81.6999978   7.9240014
 117.2829992  80.7589978   7.9180014 116.9044177  81.5007687   8.1706940
 120.6389992  81.6009978   5.9210014 121.5709992  81.7299978   6.0990014
 120.4239992  82.2699978   5.2710014 120.7374472  81.7090806   5.8574891
 126.5629992  79.2069978  12.7020014 125.8859992  79.3379978  13.3650014
 126.0779992  79.0519978  11.8910014 126.4047405  79.2039947  12.6832170
 119.3129992  82.7949978   3.4870014 118.7709992  82.4159978   2.7960014
 120.1469992  82.9899978   3.0590014 119.3514390  82.7694079   3.3344392
 129.8509992  94.8779978  18.9780014 130.0499992  95.3019978  18.1440014
 130.5059992  95.2219978  19.5850014 129.9668522  94.9826301  18.9457852
 117.4489992  87.3519978  18.5860014 118.1809992  87.6069978  19.1480014
 116.6679992  87.5569978  19.1020014 117.4436526  87.4145450  18.7325176
 123.4779992  82.7589978  11.3240014 124.0419992  82.2129978  10.7770014
 123.3299992  82.2379978  12.1130014 123.5353037  82.6136787  11.3557229
 118.4799992  78.8959978   7.7430014 118.1629992  77.9929978   7.7070014
 119.2609992  78.8979978   7.1900014 118.5422431  78.7727797   7.6633102
 122.1039992  81.1479978  13.7380014 121.2689992  81.6019978  13.8490014
 122.6279992  81.4239978  14.4900014 122.0606072  81.2473948  13.8548136
 122.6489992  87.3609978   5.4230014 121.9039992  86.8529978   5.1010014
 122.5139992  87.4099978   6.3690014 122.5288963  87.2981731   5.5068826
 129.7989992  86.4939978  14.2100014 130.4399992  86.9499978  13.6660014
 128.9679992  86.6069978  13.7470014 129.7745287  86.5716921  14.0729887
 126.5459992  80.1749978   3.6220014 125.6079992  80.2859978   3.4710014
 126.8439992  81.0309978   3.9290014 126.4576318  80.3060158   3.6428145
 124.1679992  87.5449978  16.6600014 123.8219992  87.1629978  17.4670014
 123.9679992  88.4779978  16.7310014 124.0935987  87.6189002  16.7800461
 127.2649992  82.0419978   5.2830014 128.1569992  81.9039978   5.6020014
 127.3209992  82.8329978   4.7460014 127.3947325  82.1299918   5.2541217
 117.7729992  86.6559978  11.1930014 118.5179992  86.6529978  10.5910014
 117.8509992  85.8319978  11.6740014 117.8853365  86.5442384  11.1757430
 124.7739992  88.8189978   4.4480014 124.4789992  89.6459978   4.8300014
 124.0709992  88.1999978   4.6450014 124.6386379  88.8484171   4.5268654
 114.7809992  85.1159978  16.5080014 115.0039992  84.6979978  17.3390014
 114.1789992  84.5039978  16.0850014 114.7301513  84.9759606  16.5646740
 121.7979992  84.6329978  18.7210014 121.5019992  84.4679978  17.8250014
 122.7289992  84.4129978  18.7100014 121.8834401  84.5806879  18.5970206
 126.4179992  90.0069978  16.6100014 125.5179992  90.1899978  16.3430014
 126.4519992  90.2659978  17.5310014 126.2993748  90.0670554  16.6979164
 132.1499992  82.2509978   4.9780014 131.5949992  81.8549978   4.3050014
 132.2499992  83.1619978   4.7000014 132.0876816  82.3199505   4.8485033
 132.1129992  88.0519978  17.8150014 131.2619992  88.2899978  17.4470014
 132.7029992  88.0349978  17.0620014 132.0763812  88.0822524  17.6628453
 130.4449992  91.0369978   5.4430014 130.0719992  90.2119978   5.7520014
 130.7219992  90.8539978   4.5450014 130.4313463  90.8992569   5.3639525
 127.6049992  85.8449978  12.4640014 126.6769992  85.6139978  12.4370014
 128.0559992  85.0679978  12.1340014 127.5388165  85.7082774  12.4156790
 120.1479992  90.1739978   8.5970014 120.6759992  90.9469978   8.3970014
 119.2679992  90.3979978   8.2950014 120.1013435  90.3102700   8.5287310
 115.9029992  85.0359978   3.1840014 116.5189992  85.6629978   3.5640014
 115.0409992  85.3519978   3.4560014 115.8707678  85.1644412   3.2727209
 121.5759992  87.8369978   8.1730014 121.3349992  88.7619978   8.2150014
 120.8349992  87.3779978   8.5700014 121.4429206  87.9015915   8.2323769
 122.0899992  91.9859978  14.4880014 122.4529992  92.8399978  14.2550014
 122.6219992  91.6939978  15.2290014 122.2115141  92.0633895  14.5562097
 120.2589992  92.8579978   7.7190014 119.3089992  92.9639978   7.7700014
 120.6109992  93.6789978   8.0630014 120.1765472  92.9834923   7.7724852
 125.6339992  88.0849978  14.1890014 125.2089992  87.8569978  15.0150014
 126.2149992  87.3459978  14.0070014 125.6543395  87.9539545  14.2774414
 127.8369992  89.0139978   3.2630014 128.1909992  88.6339978   4.0670014
 126.8889992  88.9199978   3.3500014 127.7572298  88.9492452   3.3848687
 128.2929992  92.6369978  16.6580014 127.6909992  92.0809978  16.1630014
 128.5739992  93.3039978  16.0320014 128.2485757  92.6510744  16.5055675
 132.3409992  93.4929978   3.4640014 133.0849992  94.0789978   3.3240014
 131.6469992  94.0619978   3.7970014 132.3489809  93.6500818   3.4898590
 116.4149992  79.8699978  16.0660014 115.5229992  80.2079978  15.9980014
 116.3169992  79.0139978  16.4840014 116.2794475  79.8006543  16.1131704
 128.7029992  87.6859978   5.4900014 128.4259992  86.9579978   6.0460014
 129.6309992  87.8049978   5.6950014 128.7904499  87.6024213   5.5938044
 116.0669992  91.6739978  14.5010014 116.2839992  90.7419978  14.4700014
 116.3129992  91.9489978  15.3840014 116.1299809  91.5835686  14.6161691
 121.9279992  90.1259978   1.7100014 122.1669992  89.3769978   1.1630014
 121.6589992  89.7379978   2.5430014 121.9243233  89.9711853   1.7477809
 120.8649992  89.6959978   4.1660014 121.0119992  89.1759978   4.9560014
 120.8619992  90.6029978   4.4730014 120.8847102  89.7473953   4.3155925
 117.3179992  86.9479978   4.6770014 116.6319992  87.3009978   5.2440014
 117.8409992  87.7109978   4.4300014 117.2948402  87.0993901   4.7211801
 125.1499992  79.6109978  14.9560014 125.8489992  79.6849978  15.6060014
 124.7689992  78.7459978  15.1100014 125.1942097  79.5042389  15.0657997
 125.9339992  79.2629978   6.0530014 126.1539992  79.7339978   5.2490014
 126.4929992  79.6569978   6.7230014 126.0396731  79.3807287   6.0335033
 123.6029992  91.3929978   4.9160014 122.7859992  91.8899978   4.9680014
 124.1319992  91.8689978   4.2750014 123.5628125  91.5251989   4.8365306
 123.1339992  80.9909978   6.8880014 123.9459992  81.4949978   6.9340014
 122.8899992  80.8459978   7.8020014 123.2121467  81.0403749   7.0178575
 123.6699992  81.9769978  16.0720014 123.7889992  82.5509978  16.8290014
 124.3249992  81.2889978  16.1870014 123.7748684  81.9625194  16.1911674
 124.0179992  78.0719978   7.8260014 123.6709992  78.6889978   8.4700014
 124.6769992  78.5729978   7.3440014 124.0595090  78.2241575   7.8490681
 120.9409992  92.4369978   4.8970014 121.1019992  93.2369978   4.3970014
 120.7439992  92.7439978   5.7820014 120.9363906  92.5878678   4.9482333
 119.6759992  79.1349978   4.5130014 119.5919992  80.0229978   4.8600014
 120.5659992  78.8699978   4.7450014 119.7848163  79.2207179   4.5918596
 129.8739992  79.8839978  16.9070014 128.9579992  80.1459978  16.8200014
 130.2099992  79.8809978  16.0110014 129.7938499  79.9195163  16.7738766
 128.4769992  83.6339978  11.0030014 127.6789992  83.2189978  10.6750014
 128.9219992  82.9439978  11.4940014 128.4279684  83.4838628  11.0245227
 117.9339992  89.5619978   3.5730014 118.5259992  90.2619978   3.8500014
 118.3929992  89.1289978   2.8540014 118.0771652  89.5992675   3.5136533
 116.2499992  82.2269978   2.6890014 116.2049992  83.1659978   2.8680014
 115.3619992  81.9909978   2.4200014 116.1238166  82.3236687   2.6771524
 129.5629992  92.8899978  12.6250014 129.4069992  93.5689978  11.9680014
 130.4959992  92.9619978  12.8280014 129.6677387  92.9926390  12.5625342
 117.0579992  77.0079978  11.3630014 116.8289992  77.0669978  10.4350014
 116.6159992  76.2169978  11.6690014 116.9668801  76.9090540  11.2774729
 115.9889992  90.9489978   7.5230014 115.1559992  91.4209978   7.5500014
 116.5339992  91.4589978   6.9240014 115.9487857  91.0824791   7.4457142
 115.2769992  93.5609978  18.8530014 115.8169992  93.3449978  19.6130014
 114.7959992  92.7559978  18.6630014 115.2859219  93.4225156  18.9314282
 119.8739992  92.4809978  20.4730014 120.6419992  92.0219978  20.8140014
 119.8529992  92.2549978  19.5430014 119.9762135  92.3876668  20.3939491
 123.9659992  91.9889978   1.8490014 123.3219992  91.3579978   2.1700014
 124.7279992  91.4579978   1.6170014 123.9808058  91.8307902   1.8616038
 126.4509992  90.8609978  19.2020014 126.0999992  90.0039978  19.4460014
 127.1769992  91.0029978  19.8090014 126.5011895  90.7631351  19.3173770
 128.5709992  91.8059978   2.0820014 128.8539992  91.0109978   2.5350014
 129.3099992  92.0389978   1.5210014 128.7097096  91.7287049   2.0681104
 115.1839992  87.3719978  19.8070014 115.3279992  86.4699978  19.5210014
 114.4119992  87.6579978  19.3200014 115.0992733  87.2871798  19.7019532
 119.5249992  87.7149978   1.9400014 119.5899992  86.9209978   2.4700014
 120.1779992  87.5969978   1.2500014 119.6221605  87.5903430   1.9192997
 121.8389992  87.3409978  19.2400014 121.5109992  87.6119978  18.3830014
 121.9909992  86.3999978  19.1520014 121.8146412  87.2509046  19.1107822
 124.8779992  88.7619978   1.6760014 124.6089992  88.9429978   2.5760014
 124.6709992  87.8369978   1.5440014 124.8131191  88.6617119   1.7815524
 127.5739992  87.2569978  16.6230014 128.3189992  87.8459978  16.5040014
 126.8169992  87.8389978  16.6870014 127.5735470  87.4162128  16.6153799
 116.0169992  84.5719978  19.2270014 116.4249992  83.7149978  19.1060014
 115.7559992  84.5859978  20.1480014 116.0376016  84.4565119  19.3349192
 120.6749992  85.6879978   4.2460014 120.2149992  85.2039978   4.9310014
 120.9299992  85.0189978   3.6100014 120.6464856  85.5313669   4.2538397
 119.9639992  83.5809978  16.6020014 119.3449992  84.2549978  16.8820014
 120.3079992  83.9019978  15.7680014 119.9257123  83.7166887  16.5276388
 121.7459992  83.9309978   2.5080014 121.5649992  83.7759978   1.5810014
 122.6959992  84.0389978   2.5530014 121.8496566  83.9243669   2.3870929
 124.9829992  86.0519978  19.8790014 125.9369992  86.1359978  19.8520014
 124.8229992  85.3399978  20.4990014 125.0917182  85.9672842  19.9590733
 131.1359992  86.2849978   1.9540014 130.8619992  85.8609978   1.1410014
 131.1749992  87.2169978   1.7370014 131.1037716  86.3528827   1.8134286
 120.3029992  80.9359978  17.6840014 120.4529992  80.2069978  17.0820014
 120.3049992  81.7129978  17.1250014 120.3237967  80.9412708  17.5260541
 120.7159992  79.3049978  15.1770014 121.2509992  79.7569978  14.5250014
 119.8629992  79.1969978  14.7540014 120.6740374  79.3522665  15.0306710
 122.2969992  84.7449978  15.4160014 123.0479992  84.5889978  14.8430014
 121.9579992  85.5969978  15.1410014 122.3539587  84.8388138  15.3004078
 126.7129992  82.5599978  20.4450014 126.9049992  81.6289978  20.3330014
 127.5709992  82.9849978  20.4340014 126.8552182  82.4900070  20.4281862
 128.0299992  85.3489978  18.5220014 127.7479992  86.0579978  17.9440014
 128.9719992  85.2759978  18.3710014 128.1187921  85.4362193  18.4224225
 118.7819992  82.1339978  19.5950014 118.0139992  81.6009978  19.3850014
 119.4599992  81.8239978  18.9960014 118.7687235  82.0191754  19.4852413
 121.5209992  76.7619978  15.6080014 121.4229992  77.7079978  15.5030014
 120.7789992  76.3889978  15.1320014 121.4072534  76.8411773  15.5292600
 122.7849992  81.0829978  19.1720014 122.5499992  80.8639978  20.0730014
 122.0019992  80.8759978  18.6620014 122.6469095  81.0249892  19.2265353
 125.5009992  80.2109978  18.2470014 124.5529992  80.2429978  18.3790014
 125.8129992  79.5849978  18.9010014 125.4135293  80.1307923  18.3534148
 127.1349992  78.8449978  20.2520014 127.0379992  77.8929978  20.2470014
 126.8129992  79.1129978  21.1130014 127.0782468  78.7510884  20.3676210
 116.9619992  80.0539978  19.3000014 117.1739992  79.3479978  18.6900014
 116.8509992  79.6169978  20.1440014 116.9760269  79.8981921  19.3305873
 121.7429992  76.0559978  18.2790014 122.4549992  75.4159978  18.2650014
 121.6419992  76.3219978  17.3660014 121.8267387  76.0044330  18.1535563
 122.0969992  77.7379978  20.3330014 121.9649992  77.2629978  19.5130014
 121.4969992  78.4829978  20.2780014 121.9979070  77.7735789  20.2133251
 121.6429992  94.6209978   3.5090014 122.5759992  94.7789978   3.6530014
 121.3789992  95.2969978   2.8840014 121.7349911  94.7339373   3.4442722
 115.2109992  89.2579978   2.9920014 116.1249992  89.3369978   3.2650014
 115.2189992  88.5709978   2.3260014 115.3370655  89.1759205   2.9392917
 113.8599992  94.6509978   8.0690014 113.2129992  94.1889978   7.5370014
 114.2149992  93.9789978   8.6520014 113.8193741  94.4969774   8.0749175
 114.7299992  92.7309978   9.8740014 114.3959992  91.8509978  10.0460014
 114.9529992  93.0769978  10.7390014 114.7143721  92.6571938  10.0144168
 132.2789992  93.5409978  12.8550014 132.2569992  93.7259978  13.7940014
 132.9689992  94.1089978  12.5140014 132.3693439  93.6431887  12.9374791
 131.8419992  93.1079978  15.7760014 131.3549992  92.3729978  15.4050014
 132.3909992  92.7139978  16.4540014 131.8495247  92.9541057  15.8168461
 130.2929992  88.8979978  20.4150014 129.4269992  88.7929978  20.8090014
 130.6689992  89.6559978  20.8610014 130.2253401  88.9861708  20.5292620
 131.5939992  87.1539978   5.9290014 132.4439992  87.5749978   6.0560014
 131.5989992  86.4139978   6.5360014 131.7111143  87.1116094   6.0284750
 131.9879992  85.2079978   7.7520014 131.2619992  84.7279978   8.1500014
 132.5699992  85.4129978   8.4850014 131.9672730  85.1700184   7.9054149
 131.7469992  87.9929978  12.7000014 132.5809992  87.6149978  12.4190014
 131.8589992  88.9359978  12.5810014 131.8761917  88.0687943  12.6454861
 130.2339992  90.8709978  15.0070014 129.5859992  91.1959978  15.6320014
 129.7159992  90.4299978  14.3330014 130.0754196  90.8558651  15.0014152
 132.2569992  85.1089978   4.1430014 131.7349992  85.4649978   3.4250014
 132.2239992  85.7839978   4.8220014 132.1810129  85.2489598   4.1363355
 130.6059992  82.3479978   2.6940014 130.7019992  83.0149978   2.0140014
 130.4659992  81.5329978   2.2130014 130.6002040  82.3290671   2.5358378
 129.7749992  83.7289978   8.3150014 129.6249992  82.7839978   8.2950014
 129.4209992  84.0099978   9.1590014 129.7066351  83.6376644   8.4263220
 114.8099992  85.8069978  12.3260014 114.9949992  85.7249978  11.3900014
 115.6599992  85.6829978  12.7490014 114.9500928  85.7790463  12.2552893
 130.6309992  85.6989978  17.9540014 131.2139992  84.9639978  18.1460014
 131.1949992  86.4709978  18.0010014 130.7869781  85.7028145  17.9866164
 132.1279992  83.6019978  18.6390014 131.2649992  83.2229978  18.4730014
 132.7319992  82.8629978  18.5640014 132.0916085  83.4503223  18.6061694
 129.8529992  79.7559978   1.8120014 130.4639992  79.3849978   2.4490014
 129.0159992  79.3349978   2.0080014 129.8234947  79.6482756   1.9257252
 129.4859992  81.3109978   6.7780014 129.7649992  80.4039978   6.9020014
 130.2449992  81.7449978   6.3890014 129.6268619  81.2454502   6.7423795
 130.0969992  81.8929978  12.2140014 131.0299992  82.1049978  12.1790014
 129.8619992  81.9939978  13.1360014 130.1929517  81.9356833  12.3339130
 130.1269992  82.6299978  14.9900014 129.2839992  82.8979978  15.3560014
 130.5689992  83.4519978  14.7790014 130.0714138  82.7778273  15.0115518
 114.4079992  81.0769978  18.4660014 115.3269992  80.9549978  18.7030014
 113.9579992  80.3269978  18.8560014 114.4730087  80.9589608  18.5511410
 132.4099992  76.6099978  20.3430014 132.7589992  75.9559978  19.7380014
 132.5569992  77.4469978  19.9030014 132.4776824  76.6336024  20.2006304
 130.0989992  78.5739978   6.8260014 130.2809992  78.1249978   7.6510014
 129.4989992  77.9899978   6.3620014 130.0428187  78.4335552   6.8762739
 115.6289992  79.3899978  11.3580014 116.0739992  78.5979978  11.6600014
 116.0949992  80.1059978  11.7880014 115.7529718  79.3784534  11.4575265
 113.9329992  82.3889978  12.4270014 114.4249992  82.1679978  11.6360014
 114.2949992  83.2289978  12.7080014 114.0492923  82.4723468  12.3567407
 131.9289992  78.7189978  18.6920014 131.0119992  78.9899978  18.6570014
 132.0519992  78.1839978  17.9080014 131.8199672  78.6837885  18.5811862
 131.9659992  78.6419978   3.3540014 132.3779992  77.9209978   2.8790014
 132.6469992  79.3109978   3.4120014 132.1145536  78.6337766   3.2968024
 114.2469992  78.6469978   6.4810014 113.3219992  78.8549978   6.3520014
 114.7009992  79.1309978   5.7910014 114.1816298  78.7409299   6.3700451
 129.0169992  93.6309978   8.4270014 129.6699992  93.2829978   7.8190014
 129.5279992  94.1189978   9.0730014 129.1752777  93.6493815   8.4312047
 114.2099992  77.3849978  14.8250014 113.5449992  77.1389978  15.4680014
 113.7669992  78.0069978  14.2480014 114.0591168  77.4354214  14.8349848
 116.4019992  90.5599978  18.9700014 115.5809992  90.7349978  18.5090014
 116.1499992  90.4869978  19.8900014 116.2555594  90.5740717  19.0313611
 119.3559992  91.5339978  15.2280014 118.9319992  92.3439978  14.9460014
 120.2609992  91.6199978  14.9260014 119.4202138  91.6564160  15.1486415
 123.6679992  92.9329978  18.1880014 123.8519992  92.5999978  19.0660014
 124.5139992  93.2429978  17.8660014 123.8076484  92.9292979  18.2647617
 126.0129992  94.2189978  17.4320014 126.6899992  93.5859978  17.1920014
 126.3339992  94.6199978  18.2390014 126.1491323  94.1865691  17.5083158
 130.9299992  76.8089978  16.5110014 130.1169992  77.1339978  16.1240014
 131.1629992  76.0479978  15.9780014 130.8501347  76.7506880  16.3859841
 116.7579992  94.7909978  15.2760014 116.0379992  95.2309978  14.8250014
 116.3929992  94.5399978  16.1240014 116.6099643  94.8173369  15.3289129
 119.2249992  94.3909978  14.3060014 118.3609992  94.4629978  14.7100014
 119.1699992  94.9379978  13.5220014 119.0991942  94.4747849  14.2554000
 123.9359992  94.2789978  13.4810014 123.4789992  94.8079978  12.8270014
 124.0989992  94.8819978  14.2060014 123.8954960  94.4329280  13.4895274
 126.2639992  93.1569978  14.4260014 125.3589992  93.3219978  14.1600014
 126.6919992  94.0099978  14.3600014 126.1981537  93.2949134  14.3807095
 128.8679992  94.7269978  14.7210014 128.6859992  95.6429978  14.5100014
 129.0449992  94.3159978  13.8740014 128.8670030  94.7968273  14.5777166
 116.1729992  93.4139978  12.1860014 116.1549992  92.9879978  13.0430014
 116.9779992  93.0949978  11.7770014 116.2792875  93.3126435  12.2479515
 118.3139992  92.1239978  10.8410014 118.0949992  91.2069978  11.0110014
 119.1379992  92.2639978  11.3070014 118.3954702  92.0175511  10.9272527
 120.8509992  92.5939978  11.6900014 121.0639992  91.7059978  11.4030014
 120.9159992  92.5589978  12.6440014 120.8889149  92.4678326  11.7797369
 124.3599992  78.2579978  10.8340014 123.6859992  77.6279978  11.0900014
 124.9239992  77.7739978  10.2310014 124.3440384  78.1063708  10.7875020
 129.5029992  76.3649978  10.9470014 130.1059992  76.9129978  10.4450014
 128.6329992  76.6839978  10.7060014 129.4679157  76.4830373  10.8457910
 131.2299992  77.5039978   9.2800014 131.8409992  76.9899978   8.7530014
 131.6119992  78.3809978   9.3030014 131.3653305  77.5522050   9.2109418
 116.6869992  76.8919978   8.6560014 115.9099992  76.6569978   8.1490014
 117.2169992  76.0949978   8.6650014 116.6523451  76.7521268   8.5878627
 115.5229992  76.6899978   4.4600014 115.9619992  77.3009978   3.8680014
 114.8889992  77.2279978   4.9340014 115.4973859  76.8464064   4.4430305
 121.2659992  76.8179978   8.4690014 122.1399992  77.2069978   8.4400014
 121.1299992  76.6029978   9.3920014 121.3671953  76.8421643   8.5897617
 126.8229992  76.8479978  10.1190014 126.8989992  76.9439978   9.1690014
 126.5479992  75.9409978  10.2470014 126.7961871  76.7384146  10.0063944
 128.1759992  76.8739978   5.8110014 127.4729992  77.4889978   5.6010014
 127.7309992  76.0369978   5.9420014 128.0196550  76.8449668   5.7999837
 115.4239992  92.6379978   5.3570014 114.7389992  92.5999978   4.6900014
 115.4279992  93.5509978   5.6450014 115.3307621  92.7561924   5.3046126
 117.3839992  78.6059978   2.9020014 117.8749992  77.9759978   2.3750014
 118.0069992  78.9019978   3.5650014 117.5355304  78.5597376   2.9194940
 122.4099992  78.8989978   5.3590014 122.5879992  78.2519978   6.0420014
 122.3559992  79.7329978   5.8260014 122.4270678  78.9231604   5.5156301
 124.2879992  93.8469978   3.7550014 125.1539992  94.2139978   3.5770014
 124.0419992  93.4079978   2.9410014 124.3732097  93.8378525   3.6206019
 130.9969992  93.4099978   6.4340014 130.8029992  92.6619978   5.8690014
 130.9579992  94.1679978   5.8510014 130.9651645  93.4100786   6.2778148
 116.6439992  77.4059978  18.1740014 116.2779992  76.6399978  18.6160014
 117.5569992  77.4349978  18.4600014 116.7173172  77.3050324  18.2731890
 118.6169992  76.7559978  19.7090014 119.5159992  76.4819978  19.5250014
 118.2309992  76.0139978  20.1740014 118.6877307  76.6182196  19.7467098
 117.2419992  93.5579978   2.3820014 116.9739992  93.8439978   3.2560014
 118.0129992  93.0119978   2.5350014 117.3095926  93.5232779   2.5221205
 127.0389992  76.0889978  19.8920014 127.1149992  75.6629978  20.7450014
 127.9319992  76.1019978  19.5490014 127.1702303  76.0323493  19.9625497
 130.2149992  92.1619978  18.5840014 129.4329992  91.9749978  18.0640014
 130.1429992  93.0909978  18.8010014 130.0981924  92.2620637  18.5421602
 144.6209992  86.0479978   8.6150014 144.7099992  86.9919978   8.4830014
 143.9829992  85.7729978   7.9570014 144.5469062  86.1399812   8.5079641
 143.5539992  85.3029978  12.0340014 143.5159992  84.6569978  12.7390014
 143.2319992  84.8359978  11.2630014 143.5052679  85.1514276  12.0262921
 135.9219992  84.9169978  13.6270014 135.9639992  84.2919978  14.3500014
 136.6249992  85.5409978  13.8090014 136.0227345  84.9157873  13.7505273
 136.8459992  89.3669978  12.1620014 136.4759992  88.5649978  11.7920014
 137.7869992  89.1989978  12.2080014 136.9225984  89.2344638  12.1175603
 133.4559992  83.0269978   7.5540014 133.0079992  83.8729978   7.5360014
 132.8949992  82.4479978   7.0390014 133.3188546  83.0643993   7.4818891
 134.1659992  85.1889978   9.6800014 134.3799992  84.4189978  10.2080014
 134.9039992  85.2789978   9.0770014 134.2950200  85.0958587   9.6707035
 144.3719992  93.3459978  10.5470014 144.9909992  92.6699978  10.2740014
 144.1629992  93.1279978  11.4560014 144.4286056  93.2238869  10.6323967
 141.9429992  87.7349978  12.4400014 142.2469992  87.0489978  11.8450014
 142.6649992  87.8539978  13.0580014 142.0821240  87.6572314  12.4420959
 145.0839992  82.1289978  12.7670014 145.2269992  81.1829978  12.7870014
 144.9779992  82.3359978  11.8390014 145.0892403  82.0274797  12.6442239
 138.2389992  80.2309978  10.0400014 138.2819992  81.0909978   9.6210014
 137.7809992  79.6789978   9.4060014 138.1829871  80.2739245   9.8970761
 134.8589992  82.6279978  10.8020014 135.5129992  82.0779978  11.2340014
 134.8829992  82.3539978   9.8850014 134.9517199  82.5157167  10.7371668
 140.0159992  84.1779978  10.0170014 140.6319992  83.6509978  10.5260014
 139.4289992  83.5379978   9.6130014 140.0210154  84.0193954  10.0320945
 137.0489992  79.1489978  14.1140014 136.8299992  79.6789978  13.3470014
 136.3809992  79.3749978  14.7610014 136.9286975  79.2520967  14.0965140
 144.4179992  88.6489978   7.6580014 144.1229992  88.3259978   6.8060014
 144.0939992  89.5489978   7.6990014 144.3338460  88.7264464   7.5469714
 139.6179992  86.8239978  14.4010014 138.8779992  87.4229978  14.5050014
 140.3319992  87.3779978  14.0860014 139.6133500  86.9807829  14.3726371
 136.6429992  81.0409978  12.0660014 137.2569992  81.6739978  12.4390014
 137.1549992  80.5689978  11.4100014 136.7961962  81.0637249  12.0282935
 138.0259992  88.7889978  15.1880014 138.0199992  89.6679978  14.8100014
 137.1719992  88.7049978  15.6130014 137.9097925  88.8979535  15.1936887
 134.1469992  88.4599978   5.9700014 133.8749992  88.6889978   5.0820014
 134.1919992  89.2969978   6.4310014 134.1158097  88.6046163   5.9106683
 141.0759992  76.4539978  11.5660014 140.9579992  75.5059978  11.5120014
 140.2209992  76.7869978  11.8390014 140.9442805  76.3692202  11.5955079
 143.3419992  85.2919978   6.0670014 142.6309992  85.8269978   5.7150014
 144.0329992  85.3469978   5.4070014 143.3380751  85.3726777   5.9295858
 143.3959992  83.7489978   3.1050014 144.0969992  83.7719978   3.7570014
 143.6979992  83.1209978   2.4490014 143.5328202  83.6672212   3.1055609
 138.3929992  86.1319978   8.9010014 138.0629992  85.7609978   8.0830014
 138.9819992  85.4609978   9.2480014 138.4273970  85.9906063   8.8359404
 139.7599992  89.5599978  11.5820014 139.6649992  88.9809978  10.8260014
 140.4889992  89.1889978  12.0780014 139.8456011  89.4305561  11.5456028
 138.7599992  84.8999978  12.5340014 139.3249992  85.0219978  11.7720014
 139.0789992  85.5379978  13.1730014 138.8804166  85.0028791  12.5160348
 145.0689992  90.4039978  13.2680014 144.8289992  91.0659978  13.9160014
 144.8709992  89.5689978  13.6930014 145.0093826  90.3818115  13.4141566
 139.6399992  89.2999978  17.2520014 139.3289992  90.0819978  17.7070014
 138.9899992  89.1469978  16.5660014 139.5095538  89.3864087  17.2215898
 136.5599992  85.4979978  16.4800014 136.6299992  86.1489978  17.1790014
 135.6689992  85.6009978  16.1450014 136.4491690  85.6009249  16.5303043
 143.3449992  91.3999978   8.1390014 143.8189992  91.6959978   8.9160014
 142.7819992  92.1389978   7.9060014 143.3337890  91.5403036   8.2138101
 137.8789992  91.3709978  18.0150014 137.8869992  91.2349978  17.0680014
 136.9629992  91.2539978  18.2670014 137.7562528  91.3365463  17.9193243
 137.3839992  85.2009978   6.4900014 137.0919992  85.9689978   5.9990014
 136.7089992  84.5419978   6.3270014 137.2528497  85.2169745   6.4008260
 133.4769992  87.5639978  15.3050014 132.9749992  87.5359978  14.4900014
 133.4819992  86.6589978  15.6150014 133.4089832  87.4377486  15.2354121
 133.2269992  90.3449978  12.1890014 134.1729992  90.1999978  12.1700014
 133.1139992  91.1289978  12.7260014 133.3413578  90.4311697  12.2590317
 142.4029992  90.5849978  16.7480014 142.4909992  91.4109978  17.2230014
 141.5399992  90.2549978  16.9970014 142.2983357  90.6535468  16.8467653
 142.8179992  94.3569978   6.5540014 142.7419992  94.2359978   5.6070014
 142.8499992  95.3059978   6.6720014 142.8119380  94.4687677   6.4405181
 136.4709992  93.1459978   8.3350014 136.6229992  92.7979978   9.2130014
 135.6199992  92.7889978   8.0790014 136.3768344  93.0500879   8.4206868
 135.7259992  88.8879978  16.3480014 135.9419992  88.5259978  17.2080014
 134.8699992  88.5129978  16.1390014 135.6398810  88.7878837  16.4372680
 138.3439992  77.3579978  12.3440014 137.4829992  77.2709978  11.9360014
 138.3219992  78.2139978  12.7720014 138.2230491  77.4618003  12.3459582
 143.0069992  77.0799978  15.7190014 143.4269992  76.6649978  16.4720014
 142.0739992  76.9009978  15.8360014 142.9383736  76.9989910  15.8378968
 142.6689992  79.5719978   3.0040014 142.4149992  79.5909978   3.9260014
 142.4119992  78.7009978   2.7020014 142.5994508  79.4568280   3.0894803
 138.4349992  82.3229978  13.4390014 137.7939992  82.2829978  14.1480014
 138.4729992  83.2499978  13.2010014 138.3523010  82.4427668  13.5039946
 138.4319992  82.5439978   8.3510014 137.5399992  82.2039978   8.2920014
 138.8829992  82.1669978   7.5950014 138.3707642  82.4464910   8.2407726
 143.9679992  82.9599978   7.1680014 143.5589992  83.7749978   6.8760014
 144.6879992  82.8199978   6.5540014 144.0094439  83.0525372   7.0450115
 143.0699992  83.1359978  18.6560014 142.5069992  82.4309978  18.9770014
 143.8959992  83.0149978  19.1240014 143.1046674  83.0232165  18.7631751
 144.9729992  82.4059978   9.9820014 144.7769992  83.0119978   9.2670014
 145.1539992  81.5729978   9.5480014 144.9706584  82.3762513   9.8254212
 136.1849992  82.6439978  15.3060014 136.1469992  83.0439978  16.1750014
 135.6949992  81.8269978  15.3960014 136.1135330  82.5882674  15.4371289
 139.5509992  80.0179978   2.1050014 139.1199992  79.5729978   2.8340014
 138.8329992  80.3889978   1.5920014 139.3949176  80.0072051   2.1354930
 132.7939992  79.7599978   9.1570014 133.4239992  79.7309978   9.8760014
 133.2429992  79.3349978   8.4260014 132.9410835  79.6985660   9.1567659
 134.0679992  80.5059978   4.5810014 134.5419992  81.0969978   3.9960014
 133.3499992  81.0359978   4.9280014 134.0358640  80.6585511   4.5477969
 144.2369992  84.0439978  14.6530014 144.5599992  83.4129978  14.0100014
 143.7959992  83.5099978  15.3140014 144.2216379  83.8853468  14.6542582
 141.0139992  79.9719978   9.4370014 140.1029992  80.0289978   9.7260014
 141.5189992  79.9119978  10.2480014 140.9576873  79.9716826   9.5861207
 135.8419992  81.6009978   8.2640014 134.9529992  81.6999978   7.9240014
 136.1389992  80.7589978   7.9180014 135.7604177  81.5007687   8.1706940
 139.4949992  81.6009978   5.9210014 140.4269992  81.7299978   6.0990014
 139.2799992  82.2699978   5.2710014 139.5934472  81.7090806   5.8574891
 145.4189992  79.2069978  12.7020014 144.7419992  79.3379978  13.3650014
 144.9339992  79.0519978  11.8910014 145.2607405  79.2039947  12.6832170
 138.1689992  82.7949978   3.4870014 137.6269992  82.4159978   2.7960014
 139.0029992  82.9899978   3.0590014 138.2074390  82.7694079   3.3344392
 136.3049992  87.3519978  18.5860014 137.0369992  87.6069978  19.1480014
 135.5239992  87.5569978  19.1020014 136.2996526  87.4145450  18.7325176
 142.3339992  82.7589978  11.3240014 142.8979992  82.2129978  10.7770014
 142.1859992  82.2379978  12.1130014 142.3913037  82.6136787  11.3557229
 137.3359992  78.8959978   7.7430014 137.0189992  77.9929978   7.7070014
 138.1169992  78.8979978   7.1900014 137.3982431  78.7727797   7.6633102
 140.9599992  81.1479978  13.7380014 140.1249992  81.6019978  13.8490014
 141.4839992  81.4239978  14.4900014 140.9166072  81.2473948  13.8548136
 141.5049992  87.3609978   5.4230014 140.7599992  86.8529978   5.1010014
 141.3699992  87.4099978   6.3690014 141.3848963  87.2981731   5.5068826
 145.4019992  80.1749978   3.6220014 144.4639992  80.2859978   3.4710014
 145.6999992  81.0309978   3.9290014 145.3136318  80.3060158   3.6428145
 143.0239992  87.5449978  16.6600014 142.6779992  87.1629978  17.4670014
 142.8239992  88.4779978  16.7310014 142.9495987  87.6189002  16.7800461
 136.6289992  86.6559978  11.1930014 137.3739992  86.6529978  10.5910014
 136.7069992  85.8319978  11.6740014 136.7413365  86.5442384  11.1757430
 143.6299992  88.8189978   4.4480014 143.3349992  89.6459978   4.8300014
 142.9269992  88.1999978   4.6450014 143.4946379  88.8484171   4.5268654
 133.6369992  85.1159978  16.5080014 133.8599992  84.6979978  17.3390014
 133.0349992  84.5039978  16.0850014 133.5861513  84.9759606  16.5646740
 140.6539992  84.6329978  18.7210014 140.3579992  84.4679978  17.8250014
 141.5849992  84.4129978  18.7100014 140.7394401  84.5806879  18.5970206
 145.2739992  90.0069978  16.6100014 144.3739992  90.1899978  16.3430014
 145.3079992  90.2659978  17.5310014 145.1553748  90.0670554  16.6979164
 139.0039992  90.1739978   8.5970014 139.5319992  90.9469978   8.3970014
 138.1239992  90.3979978   8.2950014 138.9573435  90.3102700   8.5287310
 134.7589992  85.0359978   3.1840014 135.3749992  85.6629978   3.5640014
 133.8969992  85.3519978   3.4560014 134.7267678  85.1644412   3.2727209
 140.4319992  87.8369978   8.1730014 140.1909992  88.7619978   8.2150014
 139.6909992  87.3779978   8.5700014 140.2989206  87.9015915   8.2323769
 140.9459992  91.9859978  14.4880014 141.3089992  92.8399978  14.2550014
 141.4779992  91.6939978  15.2290014 141.0675141  92.0633895  14.5562097
 139.1149992  92.8579978   7.7190014 138.1649992  92.9639978   7.7700014
 139.4669992  93.6789978   8.0630014 139.0325472  92.9834923   7.7724852
 144.4899992  88.0849978  14.1890014 144.0649992  87.8569978  15.0150014
 145.0709992  87.3459978  14.0070014 144.5103395  87.9539545  14.2774414
 135.2709992  79.8699978  16.0660014 134.3789992  80.2079978  15.9980014
 135.1729992  79.0139978  16.4840014 135.1354475  79.8006543  16.1131704
 134.9229992  91.6739978  14.5010014 135.1399992  90.7419978  14.4700014
 135.1689992  91.9489978  15.3840014 134.9859809  91.5835686  14.6161691
 140.7839992  90.1259978   1.7100014 141.0229992  89.3769978   1.1630014
 140.5149992  89.7379978   2.5430014 140.7803233  89.9711853   1.7477809
 139.7209992  89.6959978   4.1660014 139.8679992  89.1759978   4.9560014
 139.7179992  90.6029978   4.4730014 139.7407102  89.7473953   4.3155925
 136.1739992  86.9479978   4.6770014 135.4879992  87.3009978   5.2440014
 136.6969992  87.7109978   4.4300014 136.1508402  87.0993901   4.7211801
 144.0059992  79.6109978  14.9560014 144.7049992  79.6849978  15.6060014
 143.6249992  78.7459978  15.1100014 144.0502097  79.5042389  15.0657997
 144.7899992  79.2629978   6.0530014 145.0099992  79.7339978   5.2490014
 145.3489992  79.6569978   6.7230014 144.8956731  79.3807287   6.0335033
 142.4589992  91.3929978   4.9160014 141.6419992  91.8899978   4.9680014
 142.9879992  91.8689978   4.2750014 142.4188125  91.5251989   4.8365306
 141.9899992  80.9909978   6.8880014 142.8019992  81.4949978   6.9340014
 141.7459992  80.8459978   7.8020014 142.0681467  81.0403749   7.0178575
 142.5259992  81.9769978  16.0720014 142.6449992  82.5509978  16.8290014
 143.1809992  81.2889978  16.1870014 142.6308684  81.9625194  16.1911674
 142.8739992  78.0719978   7.8260014 142.5269992  78.6889978   8.4700014
 143.5329992  78.5729978   7.3440014 142.9155090  78.2241575   7.8490681
 139.7969992  92.4369978   4.8970014 139.9579992  93.2369978   4.3970014
 139.5999992  92.7439978   5.7820014 139.7923906  92.5878678   4.9482333
 138.5319992  79.1349978   4.5130014 138.4479992  80.0229978   4.8600014
 139.4219992  78.8699978   4.7450014 138.6408163  79.2207179   4.5918596
 136.7899992  89.5619978   3.5730014 137.3819992  90.2619978   3.8500014
 137.2489992  89.1289978   2.8540014 136.9331652  89.5992675   3.5136533
 135.1059992  82.2269978   2.6890014 135.0609992  83.1659978   2.8680014
 134.2179992  81.9909978   2.4200014 134.9798166  82.3236687   2.6771524
 135.9139992  77.0079978  11.3630014 135.6849992  77.0669978  10.4350014
 135.4719992  76.2169978  11.6690014 135.8228801  76.9090540  11.2774729
 134.8449992  90.9489978   7.5230014 134.0119992  91.4209978   7.5500014
 135.3899992  91.4589978   6.9240014 134.8047857  91.0824791   7.4457142
 134.1329992  93.5609978  18.8530014 134.6729992  93.3449978  19.6130014
 133.6519992  92.7559978  18.6630014 134.1419219  93.4225156  18.9314282
 138.7299992  92.4809978  20.4730014 139.4979992  92.0219978  20.8140014
 138.7089992  92.2549978  19.5430014 138.8322135  92.3876668  20.3939491
 142.8219992  91.9889978   1.8490014 142.1779992  91.3579978   2.1700014
 143.5839992  91.4579978   1.6170014 142.8368058  91.8307902   1.8616038
 145.3069992  90.8609978  19.2020014 144.9559992  90.0039978  19.4460014
 146.0329992  91.0029978  19.8090014 145.3571895  90.7631351  19.3173770
 134.0399992  87.3719978  19.8070014 134.1839992  86.4699978  19.5210014
 133.2679992  87.6579978  19.3200014 133.9552733  87.2871798  19.7019532
 138.3809992  87.7149978   1.9400014 138.4459992  86.9209978   2.4700014
 139.0339992  87.5969978   1.2500014 138.4781605  87.5903430   1.9192997
 140.6949992  87.3409978  19.2400014 140.3669992  87.6119978  18.3830014
 140.8469992  86.3999978  19.1520014 140.6706412  87.2509046  19.1107822
 143.7339992  88.7619978   1.6760014 143.4649992  88.9429978   2.5760014
 143.5269992  87.8369978   1.5440014 143.6691191  88.6617119   1.7815524
 134.8729992  84.5719978  19.2270014 135.2809992  83.7149978  19.1060014
 134.6119992  84.5859978  20.1480014 134.8936016  84.4565119  19.3349192
 139.5309992  85.6879978   4.2460014 139.0709992  85.2039978   4.9310014
 139.7859992  85.0189978   3.6100014 139.5024856  85.5313669   4.2538397
 138.8199992  83.5809978  16.6020014 138.2009992  84.2549978  16.8820014
 139.1639992  83.9019978  15.7680014 138.7817123  83.7166887  16.5276388
 140.6019992  83.9309978   2.5080014 140.4209992  83.7759978   1.5810014
 141.5519992  84.0389978   2.5530014 140.7056566  83.9243669   2.3870929
 143.8389992  86.0519978  19.8790014 144.7929992  86.1359978  19.8520014
 143.6789992  85.3399978  20.4990014 143.9477182  85.9672842  19.9590733
 139.1589992  80.9359978  17.6840014 139.3089992  80.2069978  17.0820014
 139.1609992  81.7129978  17.1250014 139.1797967  80.9412708  17.5260541
 139.5719992  79.3049978  15.1770014 140.1069992  79.7569978  14.5250014
 138.7189992  79.1969978  14.7540014 139.5300374  79.3522665  15.0306710
 141.1529992  84.7449978  15.4160014 141.9039992  84.5889978  14.8430014
 140.8139992  85.5969978  15.1410014 141.2099587  84.8388138  15.3004078
 145.5689992  82.5599978  20.4450014 145.7609992  81.6289978  20.3330014
 146.4269992  82.9849978  20.4340014 145.7112182  82.4900070  20.4281862
 137.6379992  82.1339978  19.5950014 136.8699992  81.6009978  19.3850014
 138.3159992  81.8239978  18.9960014 137.6247235  82.0191754  19.4852413
 140.3769992  76.7619978  15.6080014 140.2789992  77.7079978  15.5030014
 139.6349992  76.3889978  15.1320014 140.2632534  76.8411773  15.5292600
 141.6409992  81.0829978  19.1720014 141.4059992  80.8639978  20.0730014
 140.8579992  80.8759978  18.6620014 141.5029095  81.0249892  19.2265353
 144.3569992  80.2109978  18.2470014 143.4089992  80.2429978  18.3790014
 144.6689992  79.5849978  18.9010014 144.2695293  80.1307923  18.3534148
 135.8179992  80.0539978  19.3000014 136.0299992  79.3479978  18.6900014
 135.7069992  79.6169978  20.1440014 135.8320269  79.8981921  19.3305873
 140.5989992  76.0559978  18.2790014 141.3109992  75.4159978  18.2650014
 140.4979992  76.3219978  17.3660014 140.6827387  76.0044330  18.1535563
 140.9529992  77.7379978  20.3330014 140.8209992  77.2629978  19.5130014
 140.3529992  78.4829978  20.2780014 140.8539070  77.7735789  20.2133251
 140.4989992  94.6209978   3.5090014 141.4319992  94.7789978   3.6530014
 140.2349992  95.2969978   2.8840014 140.5909911  94.7339373   3.4442722
 134.0669992  89.2579978   2.9920014 134.9809992  89.3369978   3.2650014
 134.0749992  88.5709978   2.3260014 134.1930655  89.1759205   2.9392917
 132.7159992  94.6509978   8.0690014 132.0689992  94.1889978   7.5370014
 133.0709992  93.9789978   8.6520014 132.6753741  94.4969774   8.0749175
 133.5859992  92.7309978   9.8740014 133.2519992  91.8509978  10.0460014
 133.8089992  93.0769978  10.7390014 133.5703721  92.6571938  10.0144168
 133.6659992  85.8069978  12.3260014 133.8509992  85.7249978  11.3900014
 134.5159992  85.6829978  12.7490014 133.8060928  85.7790463  12.2552893
 133.2639992  81.0769978  18.4660014 134.1829992  80.9549978  18.7030014
 132.8139992  80.3269978  18.8560014 133.3290087  80.9589608  18.5511410
 134.4849992  79.3899978  11.3580014 134.9299992  78.5979978  11.6600014
 134.9509992  80.1059978  11.7880014 134.6089718  79.3784534  11.4575265
 132.7889992  82.3889978  12.4270014 133.2809992  82.1679978  11.6360014
 133.1509992  83.2289978  12.7080014 132.9052923  82.4723468  12.3567407
 133.1029992  78.6469978   6.4810014 132.1779992  78.8549978   6.3520014
 133.5569992  79.1309978   5.7910014 133.0376298  78.7409299   6.3700451
 133.0659992  77.3849978  14.8250014 132.4009992  77.1389978  15.4680014
 132.6229992  78.0069978  14.2480014 132.9151168  77.4354214  14.8349848
 135.2579992  90.5599978  18.9700014 134.4369992  90.7349978  18.5090014
 135.0059992  90.4869978  19.8900014 135.1115594  90.5740717  19.0313611
 138.2119992  91.5339978  15.2280014 137.7879992  92.3439978  14.9460014
 139.1169992  91.6199978  14.9260014 138.2762138  91.6564160  15.1486415
 142.5239992  92.9329978  18.1880014 142.7079992  92.5999978  19.0660014
 143.3699992  93.2429978  17.8660014 142.6636484  92.9292979  18.2647617
 144.8689992  94.2189978  17.4320014 145.5459992  93.5859978  17.1920014
 145.1899992  94.6199978  18.2390014 145.0051323  94.1865691  17.5083158
 135.6139992  94.7909978  15.2760014 134.8939992  95.2309978  14.8250014
 135.2489992  94.5399978  16.1240014 135.4659643  94.8173369  15.3289129
 138.0809992  94.3909978  14.3060014 137.2169992  94.4629978  14.7100014
 138.0259992  94.9379978  13.5220014 137.9551942  94.4747849  14.2554000
 142.7919992  94.2789978  13.4810014 142.3349992  94.8079978  12.8270014
 142.9549992  94.8819978  14.2060014 142.7514960  94.4329280  13.4895274
 145.1199992  93.1569978  14.4260014 144.2149992  93.3219978  14.1600014
 145.5479992  94.0099978  14.3600014 145.0541537  93.2949134  14.3807095
 135.0289992  93.4139978  12.1860014 135.0109992  92.9879978  13.0430014
 135.8339992  93.0949978  11.7770014 135.1352875  93.3126435  12.2479515
 137.1699992  92.1239978  10.8410014 136.9509992  91.2069978  11.0110014
 137.9939992  92.2639978  11.3070014 137.2514702  92.0175511  10.9272527
 139.7069992  92.5939978  11.6900014 139.9199992  91.7059978  11.4030014
 139.7719992  92.5589978  12.6440014 139.7449149  92.4678326  11.7797369
 143.2159992  78.2579978  10.8340014 142.5419992  77.6279978  11.0900014
 143.7799992  77.7739978  10.2310014 143.2000384  78.1063708  10.7875020
 135.5429992  76.8919978   8.6560014 134.7659992  76.6569978   8.1490014
 136.0729992  76.0949978   8.6650014 135.5083451  76.7521268   8.5878627
 134.3789992  76.6899978   4.4600014 134.8179992  77.3009978   3.8680014
 133.7449992  77.2279978   4.9340014 134.3533859  76.8464064   4.4430305
 140.1219992  76.8179978   8.4690014 140.9959992  77.2069978   8.4400014
 139.9859992  76.6029978   9.3920014 140.2231953  76.8421643   8.5897617
 134.2799992  92.6379978   5.3570014 133.5949992  92.5999978   4.6900014
 134.2839992  93.5509978   5.6450014 134.1867621  92.7561924   5.3046126
 136.2399992  78.6059978   2.9020014 136.7309992  77.9759978   2.3750014
 136.8629992  78.9019978   3.5650014 136.3915304  78.5597376   2.9194940
 141.2659992  78.8989978   5.3590014 141.4439992  78.2519978   6.0420014
 141.2119992  79.7329978   5.8260014 141.2830678  78.9231604   5.5156301
 143.1439992  93.8469978   3.7550014 144.0099992  94.2139978   3.5770014
 142.8979992  93.4079978   2.9410014 143.2292097  93.8378525   3.6206019
 135.4999992  77.4059978  18.1740014 135.1339992  76.6399978  18.6160014
 136.4129992  77.4349978  18.4600014 135.5733172  77.3050324  18.2731890
 137.4729992  76.7559978  19.7090014 138.3719992  76.4819978  19.5250014
 137.0869992  76.0139978  20.1740014 137.5437307  76.6182196  19.7467098
 136.0979992  93.5579978   2.3820014 135.8299992  93.8439978   3.2560014
 136.8689992  93.0119978   2.5350014 136.1655926  93.5232779   2.5221205
  12.6289992 104.9039978   8.6150014  12.7179992 105.8479978   8.4830014
  11.9909992 104.6289978   7.9570014  12.5549062 104.9959812   8.5079641
  11.5619992 104.1589978  12.0340014  11.5239992 103.5129978  12.7390014
  11.2399992 103.6919978  11.2630014  11.5132679 104.0074276  12.0262921
   3.9299992 103.7729978  13.6270014   3.9719992 103.1479978  14.3500014
   4.6329992 104.3969978  13.8090014   4.0307345 103.7717873  13.7505273
  15.2679992 107.0979978  10.3350014  14.8269992 106.3779978  10.7860014
  15.2549992 107.8189978  10.9650014  15.2059215 107.0969291  10.4818105
   4.8539992 108.2229978  12.1620014   4.4839992 107.4209978  11.7920014
   5.7949992 108.0549978  12.2080014   4.9305984 108.0904638  12.1175603
   1.4639992 101.8829978   7.5540014   1.0159992 102.7289978   7.5360014
   0.9029992 101.3039978   7.0390014   1.3268546 101.9203993   7.4818891
   2.1739992 104.0449978   9.6800014   2.3879992 103.2749978  10.2080014
   2.9119992 104.1349978   9.0770014   2.3030200 103.9518587   9.6707035
  12.3799992 112.2019978  10.5470014  12.9989992 111.5259978  10.2740014
  12.1709992 111.9839978  11.4560014  12.4366056 112.0798869  10.6323967
   9.9509992 106.5909978  12.4400014  10.2549992 105.9049978  11.8450014
  10.6729992 106.7099978  13.0580014  10.0901240 106.5132314  12.4420959
  18.6139992  98.1929978  13.3000014  18.6639992  98.8029978  14.0360014
  19.0399992  98.6539978  12.5770014  18.6784108  98.3387709  13.3030112
  13.0919992 100.9849978  12.7670014  13.2349992 100.0389978  12.7870014
  12.9859992 101.1919978  11.8390014  13.0972403 100.8834797  12.6442239
   6.2469992  99.0869978  10.0400014   6.2899992  99.9469978   9.6210014
   5.7889992  98.5349978   9.4060014   6.1909871  99.1299245   9.8970761
  13.9689992  99.2179978   8.4410014  14.6159992  98.8889978   9.0650014
  14.4789992  99.7349978   7.8180014  14.1264351  99.2429067   8.4421037
   2.8669992 101.4839978  10.8020014   3.5209992 100.9339978  11.2340014
   2.8909992 101.2099978   9.8850014   2.9597199 101.3717167  10.7371668
   8.0239992 103.0339978  10.0170014   8.6399992 102.5069978  10.5260014
   7.4369992 102.3939978   9.6130014   8.0290154 102.8753954  10.0320945
  19.0059992  99.6709978  15.5360014  18.3169992 100.3289978  15.4410014
  19.0209992  99.4729978  16.4730014  18.9137756  99.7342603  15.6495812
   5.0569992  98.0049978  14.1140014   4.8379992  98.5349978  13.3470014
   4.3889992  98.2309978  14.7610014   4.9366975  98.1080967  14.0965140
  12.4259992 107.5049978   7.6580014  12.1309992 107.1819978   6.8060014
  12.1019992 108.4049978   7.6990014  12.3418460 107.5824464   7.5469714
   7.6259992 105.6799978  14.4010014   6.8859992 106.2789978  14.5050014
   8.3399992 106.2339978  14.0860014   7.6213500 105.8367829  14.3726371
  15.7329992  98.5089978  10.4210014  15.5179992  97.7429978  10.9540014
  16.3889992  98.9809978  10.9340014  15.7922673  98.4680728  10.5631990
   4.6509992  99.8969978  12.0660014   5.2649992 100.5299978  12.4390014
   5.1629992  99.4249978  11.4100014   4.8041962  99.9197249  12.0282935
   6.0339992 107.6449978  15.1880014   6.0279992 108.5239978  14.8100014
   5.1799992 107.5609978  15.6130014   5.9177925 107.7539535  15.1936887
   2.1549992 107.3159978   5.9700014   1.8829992 107.5449978   5.0820014
   2.1999992 108.1529978   6.4310014   2.1238097 107.4606163   5.9106683
  15.7799992 108.9369978  12.6830014  14.8379992 108.9959978  12.8450014
  16.0559992 109.8429978  12.5460014  15.6885865 109.0675288  12.6866192
  16.0799992  97.2239978  14.1000014  15.3439992  97.8339978  14.0630014
  16.7639992  97.6389978  13.5740014  16.0715367  97.3637551  14.0238174
   9.0839992  95.3099978  11.5660014   8.9659992  94.3619978  11.5120014
   8.2289992  95.6429978  11.8390014   8.9522805  95.2252202  11.5955079
  14.0319992 110.7179978   9.3080014  14.4569992 110.0109978   8.8230014
  14.3489992 111.5199978   8.8910014  14.1330266 110.7295190   9.1852479
  15.1919992 108.6189978   7.8170014  14.9339992 107.9289978   7.2050014
  15.2629992 108.1759978   8.6620014  15.1663050 108.4646814   7.8475621
  16.8779992 107.1859978  16.2940014  17.0169992 106.5939978  15.5550014
  17.0449992 108.0589978  15.9380014  16.9196193 107.2228896  16.1446211
  11.3499992 104.1479978   6.0670014  10.6389992 104.6829978   5.7150014
  12.0409992 104.2029978   5.4070014  11.3460751 104.2286777   5.9295858
  11.4039992 102.6049978   3.1050014  12.1049992 102.6279978   3.7570014
  11.7059992 101.9769978   2.4490014  11.5408202 102.5232212   3.1055609
  18.7189992 103.5259978  14.3600014  18.0669992 104.2199978  14.4490014
  19.1849992 103.7359978  13.5500014  18.6925937 103.6495019  14.2627533
  14.7559992 104.3569978   7.0180014  14.0239992 104.5859978   7.5920014
  15.2029992 103.6439978   7.4730014  14.7163963 104.2918729   7.1579945
  14.6529992 102.5319978  16.0860014  14.7329992 103.2949978  16.6580014
  14.0519992 102.8109978  15.3960014  14.5826547 102.6742457  16.0710047
   6.4009992 104.9879978   8.9010014   6.0709992 104.6169978   8.0830014
   6.9899992 104.3169978   9.2480014   6.4353970 104.8466063   8.8359404
   7.7679992 108.4159978  11.5820014   7.6729992 107.8369978  10.8260014
   8.4969992 108.0449978  12.0780014   7.8536011 108.2865561  11.5456028
   6.7679992 103.7559978  12.5340014   7.3329992 103.8779978  11.7720014
   7.0869992 104.3939978  13.1730014   6.8884166 103.8588791  12.5160348
  13.0769992 109.2599978  13.2680014  12.8369992 109.9219978  13.9160014
  12.8789992 108.4249978  13.6930014  13.0173826 109.2378115  13.4141566
   7.6479992 108.1559978  17.2520014   7.3369992 108.9379978  17.7070014
   6.9979992 108.0029978  16.5660014   7.5175538 108.2424087  17.2215898
  13.6269992 103.5199978   4.7040014  14.2059992 103.6699978   5.4500014
  14.0409992 103.9899978   3.9800014  13.7623358 103.6040955   4.7083953
   4.5679992 104.3539978  16.4800014   4.6379992 105.0049978  17.1790014
   3.6769992 104.4569978  16.1450014   4.4571690 104.4569249  16.5303043
  11.3529992 110.2559978   8.1390014  11.8269992 110.5519978   8.9160014
  10.7899992 110.9949978   7.9060014  11.3417890 110.3963036   8.2138101
   5.8869992 110.2269978  18.0150014   5.8949992 110.0909978  17.0680014
   4.9709992 110.1099978  18.2670014   5.7642528 110.1925463  17.9193243
  17.3259992  95.2699978   4.5170014  16.4259992  95.4089978   4.8120014
  17.5779992  96.1009978   4.1150014  17.2368683  95.4014055   4.5030232
   5.3919992 104.0569978   6.4900014   5.0999992 104.8249978   5.9990014
   4.7169992 103.3979978   6.3270014   5.2608497 104.0729745   6.4008260
  18.5149992 109.6359978   2.8930014  18.5879992 110.5749978   3.0630014
  19.4199992 109.3309978   2.8370014  18.6474170 109.7233282   2.9087063
   1.4849992 106.4199978  15.3050014   0.9829992 106.3919978  14.4900014
   1.4899992 105.5149978  15.6150014   1.4169832 106.2937486  15.2354121
   1.2349992 109.2009978  12.1890014   2.1809992 109.0559978  12.1700014
   1.1219992 109.9849978  12.7260014   1.3493578 109.2871697  12.2590317
  19.4329992 109.8669978  17.8720014  19.3829992 108.9109978  17.8340014
  18.6059992 110.1339978  18.2730014  19.3143831 109.7724680  17.9210121
  10.4109992 109.4409978  16.7480014  10.4989992 110.2669978  17.2230014
   9.5479992 109.1109978  16.9970014  10.3063357 109.5095468  16.8467653
  10.8259992 113.2129978   6.5540014  10.7499992 113.0919978   5.6070014
  10.8579992 114.1619978   6.6720014  10.8199380 113.3247677   6.4405181
   4.4789992 112.0019978   8.3350014   4.6309992 111.6539978   9.2130014
   3.6279992 111.6449978   8.0790014   4.3848344 111.9060879   8.4206868
  13.9269992 112.3669978   3.5560014  14.3019992 111.6229978   3.0850014
  13.9319992 112.0969978   4.4740014  13.9790098 112.2286392   3.6156629
  13.5959992 112.2929978   6.3050014  12.6609992 112.3929978   6.4840014
  13.8759992 111.5829978   6.8840014  13.5059471 112.2107933   6.4076695
  16.5849992 101.3599978  18.3520014  16.1769992 101.8399978  17.6310014
  16.6249992 100.4539978  18.0440014  16.5346221 101.3032449  18.2118267
   3.7339992 107.7439978  16.3480014   3.9499992 107.3819978  17.2080014
   2.8779992 107.3689978  16.1390014   3.6478810 107.6438837  16.4372680
   6.3519992  96.2139978  12.3440014   5.4909992  96.1269978  11.9360014
   6.3299992  97.0699978  12.7720014   6.2310491  96.3178003  12.3459582
  11.0149992  95.9359978  15.7190014  11.4349992  95.5209978  16.4720014
  10.0819992  95.7569978  15.8360014  10.9463736  95.8549910  15.8378968
  14.3419992  99.6909978  16.5720014  13.8279992  99.5659978  17.3700014
  14.1859992 100.6039978  16.3280014  14.2506967  99.7972123  16.6480937
  15.1039992 104.5519978   2.3330014  15.1459992 104.3299978   1.4030014
  15.9529992 104.9509978   2.5230014  15.2245253 104.5755498   2.2313822
  10.6769992  98.4279978   3.0040014  10.4229992  98.4469978   3.9260014
  10.4199992  97.5569978   2.7020014  10.6074508  98.3128280   3.0894803
   6.4429992 101.1789978  13.4390014   5.8019992 101.1389978  14.1480014
   6.4809992 102.1059978  13.2010014   6.3603010 101.2987668  13.5039946
   6.4399992 101.3999978   8.3510014   5.5479992 101.0599978   8.2920014
   6.8909992 101.0229978   7.5950014   6.3787642 101.3024910   8.2407726
  11.9759992 101.8159978   7.1680014  11.5669992 102.6309978   6.8760014
  12.6959992 101.6759978   6.5540014  12.0174439 101.9085372   7.0450115
  11.0779992 101.9919978  18.6560014  10.5149992 101.2869978  18.9770014
  11.9039992 101.8709978  19.1240014  11.1126674 101.8792165  18.7631751
  12.9809992 101.2619978   9.9820014  12.7849992 101.8679978   9.2670014
  13.1619992 100.4289978   9.5480014  12.9786584 101.2322513   9.8254212
   4.1929992 101.4999978  15.3060014   4.1549992 101.8999978  16.1750014
   3.7029992 100.6829978  15.3960014   4.1215330 101.4442674  15.4371289
   7.5589992  98.8739978   2.1050014   7.1279992  98.4289978   2.8340014
   6.8409992  99.2449978   1.5920014   7.4029176  98.8632051   2.1354930
   0.8019992  98.6159978   9.1570014   1.4319992  98.5869978   9.8760014
   1.2509992  98.1909978   8.4260014   0.9490835  98.5545660   9.1567659
   2.0759992  99.3619978   4.5810014   2.5499992  99.9529978   3.9960014
   1.3579992  99.8919978   4.9280014   2.0438640  99.5145511   4.5477969
  12.2449992 102.8999978  14.6530014  12.5679992 102.2689978  14.0100014
  11.8039992 102.3659978  15.3140014  12.2296379 102.7413468  14.6542582
   9.0219992  98.8279978   9.4370014   8.1109992  98.8849978   9.7260014
   9.5269992  98.7679978  10.2480014   8.9656873  98.8276826   9.5861207
   3.8499992 100.4569978   8.2640014   2.9609992 100.5559978   7.9240014
   4.1469992  99.6149978   7.9180014   3.7684177 100.3567687   8.1706940
   7.5029992 100.4569978   5.9210014   8.4349992 100.5859978   6.0990014
   7.2879992 101.1259978   5.2710014   7.6014472 100.5650806   5.8574891
  13.4269992  98.0629978  12.7020014  12.7499992  98.1939978  13.3650014
  12.9419992  97.9079978  11.8910014  13.2687405  98.0599947  12.6832170
   6.1769992 101.6509978   3.4870014   5.6349992 101.2719978   2.7960014
   7.0109992 101.8459978   3.0590014   6.2154390 101.6254079   3.3344392
  16.7149992 113.7339978  18.9780014  16.9139992 114.1579978  18.1440014
  17.3699992 114.0779978  19.5850014  16.8308522 113.8386301  18.9457852
   4.3129992 106.2079978  18.5860014   5.0449992 106.4629978  19.1480014
   3.5319992 106.4129978  19.1020014   4.3076526 106.2705450  18.7325176
  10.3419992 101.6149978  11.3240014  10.9059992 101.0689978  10.7770014
  10.1939992 101.0939978  12.1130014  10.3993037 101.4696787  11.3557229
   5.3439992  97.7519978   7.7430014   5.0269992  96.8489978   7.7070014
   6.1249992  97.7539978   7.1900014   5.4062431  97.6287797   7.6633102
   8.9679992 100.0039978  13.7380014   8.1329992 100.4579978  13.8490014
   9.4919992 100.2799978  14.4900014   8.9246072 100.1033948  13.8548136
   9.5129992 106.2169978   5.4230014   8.7679992 105.7089978   5.1010014
   9.3779992 106.2659978   6.3690014   9.3928963 106.1541731   5.5068826
  16.6629992 105.3499978  14.2100014  17.3039992 105.8059978  13.6660014
  15.8319992 105.4629978  13.7470014  16.6385287 105.4276921  14.0729887
  13.4099992  99.0309978   3.6220014  12.4719992  99.1419978   3.4710014
  13.7079992  99.8869978   3.9290014  13.3216318  99.1620158   3.6428145
  11.0319992 106.4009978  16.6600014  10.6859992 106.0189978  17.4670014
  10.8319992 107.3339978  16.7310014  10.9575987 106.4749002  16.7800461
  14.1289992 100.8979978   5.2830014  15.0209992 100.7599978   5.6020014
  14.1849992 101.6889978   4.7460014  14.2587325 100.9859918   5.2541217
   4.6369992 105.5119978  11.1930014   5.3819992 105.5089978  10.5910014
   4.7149992 104.6879978  11.6740014   4.7493365 105.4002384  11.1757430
  11.6379992 107.6749978   4.4480014  11.3429992 108.5019978   4.8300014
  10.9349992 107.0559978   4.6450014  11.5026379 107.7044171   4.5268654
   1.6449992 103.9719978  16.5080014   1.8679992 103.5539978  17.3390014
   1.0429992 103.3599978  16.0850014   1.5941513 103.8319606  16.5646740
   8.6619992 103.4889978  18.7210014   8.3659992 103.3239978  17.8250014
   9.5929992 103.2689978  18.7100014   8.7474401 103.4366879  18.5970206
  13.2819992 108.8629978  16.6100014  12.3819992 109.0459978  16.3430014
  13.3159992 109.1219978  17.5310014  13.1633748 108.9230554  16.6979164
  19.0139992 101.1069978   4.9780014  18.4589992 100.7109978   4.3050014
  19.1139992 102.0179978   4.7000014  18.9516816 101.1759505   4.8485033
  18.9769992 106.9079978  17.8150014  18.1259992 107.1459978  17.4470014
  19.5669992 106.8909978  17.0620014  18.9403812 106.9382524  17.6628453
  17.3089992 109.8929978   5.4430014  16.9359992 109.0679978   5.7520014
  17.5859992 109.7099978   4.5450014  17.2953463 109.7552569   5.3639525
  14.4689992 104.7009978  12.4640014  13.5409992 104.4699978  12.4370014
  14.9199992 103.9239978  12.1340014  14.4028165 104.5642774  12.4156790
   7.0119992 109.0299978   8.5970014   7.5399992 109.8029978   8.3970014
   6.1319992 109.2539978   8.2950014   6.9653435 109.1662700   8.5287310
   2.7669992 103.8919978   3.1840014   3.3829992 104.5189978   3.5640014
   1.9049992 104.2079978   3.4560014   2.7347678 104.0204412   3.2727209
   8.4399992 106.6929978   8.1730014   8.1989992 107.6179978   8.2150014
   7.6989992 106.2339978   8.5700014   8.3069206 106.7575915   8.2323769
   8.9539992 110.8419978  14.4880014   9.3169992 111.6959978  14.2550014
   9.4859992 110.5499978  15.2290014   9.0755141 110.9193895  14.5562097
   7.1229992 111.7139978   7.7190014   6.1729992 111.8199978   7.7700014
   7.4749992 112.5349978   8.0630014   7.0405472 111.8394923   7.7724852
  12.4979992 106.9409978  14.1890014  12.0729992 106.7129978  15.0150014
  13.0789992 106.2019978  14.0070014  12.5183395 106.8099545  14.2774414
  14.7009992 107.8699978   3.2630014  15.0549992 107.4899978   4.0670014
  13.7529992 107.7759978   3.3500014  14.6212298 107.8052452   3.3848687
  15.1569992 111.4929978  16.6580014  14.5549992 110.9369978  16.1630014
  15.4379992 112.1599978  16.0320014  15.1125757 111.5070744  16.5055675
  19.2049992 112.3489978   3.4640014  19.9489992 112.9349978   3.3240014
  18.5109992 112.9179978   3.7970014  19.2129809 112.5060818   3.4898590
   3.2789992  98.7259978  16.0660014   2.3869992  99.0639978  15.9980014
   3.1809992  97.8699978  16.4840014   3.1434475  98.6566543  16.1131704
  15.5669992 106.5419978   5.4900014  15.2899992 105.8139978   6.0460014
  16.4949992 106.6609978   5.6950014  15.6544499 106.4584213   5.5938044
   2.9309992 110.5299978  14.5010014   3.1479992 109.5979978  14.4700014
   3.1769992 110.8049978  15.3840014   2.9939809 110.4395686  14.6161691
   8.7919992 108.9819978   1.7100014   9.0309992 108.2329978   1.1630014
   8.5229992 108.5939978   2.5430014   8.7883233 108.8271853   1.7477809
   7.7289992 108.5519978   4.1660014   7.8759992 108.0319978   4.9560014
   7.7259992 109.4589978   4.4730014   7.7487102 108.6033953   4.3155925
   4.1819992 105.8039978   4.6770014   3.4959992 106.1569978   5.2440014
   4.7049992 106.5669978   4.4300014   4.1588402 105.9553901   4.7211801
  12.0139992  98.4669978  14.9560014  12.7129992  98.5409978  15.6060014
  11.6329992  97.6019978  15.1100014  12.0582097  98.3602389  15.0657997
  12.7979992  98.1189978   6.0530014  13.0179992  98.5899978   5.2490014
  13.3569992  98.5129978   6.7230014  12.9036731  98.2367287   6.0335033
  10.4669992 110.2489978   4.9160014   9.6499992 110.7459978   4.9680014
  10.9959992 110.7249978   4.2750014  10.4268125 110.3811989   4.8365306
   9.9979992  99.8469978   6.8880014  10.8099992 100.3509978   6.9340014
   9.7539992  99.7019978   7.8020014  10.0761467  99.8963749   7.0178575
  10.5339992 100.8329978  16.0720014  10.6529992 101.4069978  16.8290014
  11.1889992 100.1449978  16.1870014  10.6388684 100.8185194  16.1911674
  10.8819992  96.9279978   7.8260014  10.5349992  97.5449978   8.4700014
  11.5409992  97.4289978   7.3440014  10.9235090  97.0801575   7.8490681
   7.8049992 111.2929978   4.8970014   7.9659992 112.0929978   4.3970014
   7.6079992 111.5999978   5.7820014   7.8003906 111.4438678   4.9482333
   6.5399992  97.9909978   4.5130014   6.4559992  98.8789978   4.8600014
   7.4299992  97.7259978   4.7450014   6.6488163  98.0767179   4.5918596
  16.7379992  98.7399978  16.9070014  15.8219992  99.0019978  16.8200014
  17.0739992  98.7369978  16.0110014  16.6578499  98.7755163  16.7738766
  15.3409992 102.4899978  11.0030014  14.5429992 102.0749978  10.6750014
  15.7859992 101.7999978  11.4940014  15.2919684 102.3398628  11.0245227
   4.7979992 108.4179978   3.5730014   5.3899992 109.1179978   3.8500014
   5.2569992 107.9849978   2.8540014   4.9411652 108.4552675   3.5136533
   3.1139992 101.0829978   2.6890014   3.0689992 102.0219978   2.8680014
   2.2259992 100.8469978   2.4200014   2.9878166 101.1796687   2.6771524
  16.4269992 111.7459978  12.6250014  16.2709992 112.4249978  11.9680014
  17.3599992 111.8179978  12.8280014  16.5317387 111.8486390  12.5625342
   3.9219992  95.8639978  11.3630014   3.6929992  95.9229978  10.4350014
   3.4799992  95.0729978  11.6690014   3.8308801  95.7650540  11.2774729
   2.8529992 109.8049978   7.5230014   2.0199992 110.2769978   7.5500014
   3.3979992 110.3149978   6.9240014   2.8127857 109.9384791   7.4457142
   2.1409992 112.4169978  18.8530014   2.6809992 112.2009978  19.6130014
   1.6599992 111.6119978  18.6630014   2.1499219 112.2785156  18.9314282
   6.7379992 111.3369978  20.4730014   7.5059992 110.8779978  20.8140014
   6.7169992 111.1109978  19.5430014   6.8402135 111.2436668  20.3939491
  10.8299992 110.8449978   1.8490014  10.1859992 110.2139978   2.1700014
  11.5919992 110.3139978   1.6170014  10.8448058 110.6867902   1.8616038
  13.3149992 109.7169978  19.2020014  12.9639992 108.8599978  19.4460014
  14.0409992 109.8589978  19.8090014  13.3651895 109.6191351  19.3173770
  15.4349992 110.6619978   2.0820014  15.7179992 109.8669978   2.5350014
  16.1739992 110.8949978   1.5210014  15.5737096 110.5847049   2.0681104
   2.0479992 106.2279978  19.8070014   2.1919992 105.3259978  19.5210014
   1.2759992 106.5139978  19.3200014   1.9632733 106.1431798  19.7019532
   6.3889992 106.5709978   1.9400014   6.4539992 105.7769978   2.4700014
   7.0419992 106.4529978   1.2500014   6.4861605 106.4463430   1.9192997
   8.7029992 106.1969978  19.2400014   8.3749992 106.4679978  18.3830014
   8.8549992 105.2559978  19.1520014   8.6786412 106.1069046  19.1107822
  11.7419992 107.6179978   1.6760014  11.4729992 107.7989978   2.5760014
  11.5349992 106.6929978   1.5440014  11.6771191 107.5177119   1.7815524
  14.4379992 106.1129978  16.6230014  15.1829992 106.7019978  16.5040014
  13.6809992 106.6949978  16.6870014  14.4375470 106.2722128  16.6153799
   2.8809992 103.4279978  19.2270014   3.2889992 102.5709978  19.1060014
   2.6199992 103.4419978  20.1480014   2.9016016 103.3125119  19.3349192
   7.5389992 104.5439978   4.2460014   7.0789992 104.0599978   4.9310014
   7.7939992 103.8749978   3.6100014   7.5104856 104.3873669   4.2538397
   6.8279992 102.4369978  16.6020014   6.2089992 103.1109978  16.8820014
   7.1719992 102.7579978  15.7680014   6.7897123 102.5726887  16.5276388
   8.6099992 102.7869978   2.5080014   8.4289992 102.6319978   1.5810014
   9.5599992 102.8949978   2.5530014   8.7136566 102.7803669   2.3870929
  11.8469992 104.9079978  19.8790014  12.8009992 104.9919978  19.8520014
  11.6869992 104.1959978  20.4990014  11.9557182 104.8232842  19.9590733
  17.9999992 105.1409978   1.9540014  17.7259992 104.7169978   1.1410014
  18.0389992 106.0729978   1.7370014  17.9677716 105.2088827   1.8134286
   7.1669992  99.7919978  17.6840014   7.3169992  99.0629978  17.0820014
   7.1689992 100.5689978  17.1250014   7.1877967  99.7972708  17.5260541
   7.5799992  98.1609978  15.1770014   8.1149992  98.6129978  14.5250014
   6.7269992  98.0529978  14.7540014   7.5380374  98.2082665  15.0306710
   9.1609992 103.6009978  15.4160014   9.9119992 103.4449978  14.8430014
   8.8219992 104.4529978  15.1410014   9.2179587 103.6948138  15.3004078
  13.5769992 101.4159978  20.4450014  13.7689992 100.4849978  20.3330014
  14.4349992 101.8409978  20.4340014  13.7192182 101.3460070  20.4281862
  14.8939992 104.2049978  18.5220014  14.6119992 104.9139978  17.9440014
  15.8359992 104.1319978  18.3710014  14.9827921 104.2922193  18.4224225
   5.6459992 100.9899978  19.5950014   4.8779992 100.4569978  19.3850014
   6.3239992 100.6799978  18.9960014   5.6327235 100.8751754  19.4852413
   8.3849992  95.6179978  15.6080014   8.2869992  96.5639978  15.5030014
   7.6429992  95.2449978  15.1320014   8.2712534  95.6971773  15.5292600
   9.6489992  99.9389978  19.1720014   9.4139992  99.7199978  20.0730014
   8.8659992  99.7319978  18.6620014   9.5109095  99.8809892  19.2265353
  12.3649992  99.0669978  18.2470014  11.4169992  99.0989978  18.3790014
  12.6769992  98.4409978  18.9010014  12.2775293  98.9867923  18.3534148
  13.9989992  97.7009978  20.2520014  13.9019992  96.7489978  20.2470014
  13.6769992  97.9689978  21.1130014  13.9422468  97.6070884  20.3676210
   3.8259992  98.9099978  19.3000014   4.0379992  98.2039978  18.6900014
   3.7149992  98.4729978  20.1440014   3.8400269  98.7541921  19.3305873
   8.6069992  94.9119978  18.2790014   9.3189992  94.2719978  18.2650014
   8.5059992  95.1779978  17.3660014   8.6907387  94.8604330  18.1535563
   8.9609992  96.5939978  20.3330014   8.8289992  96.1189978  19.5130014
   8.3609992  97.3389978  20.2780014   8.8619070  96.6295789  20.2133251
   8.5069992 113.4769978   3.5090014   9.4399992 113.6349978   3.6530014
   8.2429992 114.1529978   2.8840014   8.5989911 113.5899373   3.4442722
   2.0749992 108.1139978   2.9920014   2.9889992 108.1929978   3.2650014
   2.0829992 107.4269978   2.3260014   2.2010655 108.0319205   2.9392917
   0.7239992 113.5069978   8.0690014   0.0769992 113.0449978   7.5370014
   1.0789992 112.8349978   8.6520014   0.6833741 113.3529774   8.0749175
   1.5939992 111.5869978   9.8740014   1.2599992 110.7069978  10.0460014
   1.8169992 111.9329978  10.7390014   1.5783721 111.5131938  10.0144168
  19.1429992 112.3969978  12.8550014  19.1209992 112.5819978  13.7940014
  19.8329992 112.9649978  12.5140014  19.2333439 112.4991887  12.9374791
  18.7059992 111.9639978  15.7760014  18.2189992 111.2289978  15.4050014
  19.2549992 111.5699978  16.4540014  18.7135247 111.8101057  15.8168461
  17.1569992 107.7539978  20.4150014  16.2909992 107.6489978  20.8090014
  17.5329992 108.5119978  20.8610014  17.0893401 107.8421708  20.5292620
  18.4579992 106.0099978   5.9290014  19.3079992 106.4309978   6.0560014
  18.4629992 105.2699978   6.5360014  18.5751143 105.9676094   6.0284750
  18.8519992 104.0639978   7.7520014  18.1259992 103.5839978   8.1500014
  19.4339992 104.2689978   8.4850014  18.8312730 104.0260184   7.9054149
  18.6109992 106.8489978  12.7000014  19.4449992 106.4709978  12.4190014
  18.7229992 107.7919978  12.5810014  18.7401917 106.9247943  12.6454861
  17.0979992 109.7269978  15.0070014  16.4499992 110.0519978  15.6320014
  16.5799992 109.2859978  14.3330014  16.9394196 109.7118651  15.0014152
  19.1209992 103.9649978   4.1430014  18.5989992 104.3209978   3.4250014
  19.0879992 104.6399978   4.8220014  19.0450129 104.1049598   4.1363355
  17.4699992 101.2039978   2.6940014  17.5659992 101.8709978   2.0140014
  17.3299992 100.3889978   2.2130014  17.4642040 101.1850671   2.5358378
  16.6389992 102.5849978   8.3150014  16.4889992 101.6399978   8.2950014
  16.2849992 102.8659978   9.1590014  16.5706351 102.4936644   8.4263220
   1.6739992 104.6629978  12.3260014   1.8589992 104.5809978  11.3900014
   2.5239992 104.5389978  12.7490014   1.8140928 104.6350463  12.2552893
  17.4949992 104.5549978  17.9540014  18.0779992 103.8199978  18.1460014
  18.0589992 105.3269978  18.0010014  17.6509781 104.5588145  17.9866164
  18.9919992 102.4579978  18.6390014  18.1289992 102.0789978  18.4730014
  19.5959992 101.7189978  18.5640014  18.9556085 102.3063223  18.6061695
  16.7169992  98.6119978   1.8120014  17.3279992  98.2409978   2.4490014
  15.8799992  98.1909978   2.0080014  16.6874947  98.5042756   1.9257252
  16.3499992 100.1669978   6.7780014  16.6289992  99.2599978   6.9020014
  17.1089992 100.6009978   6.3890014  16.4908619 100.1014502   6.7423795
  16.9609992 100.7489978  12.2140014  17.8939992 100.9609978  12.1790014
  16.7259992 100.8499978  13.1360014  17.0569517 100.7916833  12.3339130
  16.9909992 101.4859978  14.9900014  16.1479992 101.7539978  15.3560014
  17.4329992 102.3079978  14.7790014  16.9354138 101.6338273  15.0115518
   1.2719992  99.9329978  18.4660014   2.1909992  99.8109978  18.7030014
   0.8219992  99.1829978  18.8560014   1.3370087  99.8149608  18.5511410
  19.2739992  95.4659978  20.3430014  19.6229992  94.8119978  19.7380014
  19.4209992  96.3029978  19.9030014  19.3416824  95.4896024  20.2006304
  16.9629992  97.4299978   6.8260014  17.1449992  96.9809978   7.6510014
  16.3629992  96.8459978   6.3620014  16.9068187  97.2895552   6.8762739
   2.4929992  98.2459978  11.3580014   2.9379992  97.4539978  11.6600014
   2.9589992  98.9619978  11.7880014   2.6169718  98.2344534  11.4575265
   0.7969992 101.2449978  12.4270014   1.2889992 101.0239978  11.6360014
   1.1589992 102.0849978  12.7080014   0.9132923 101.3283468  12.3567407
  18.7929992  97.5749978  18.6920014  17.8759992  97.8459978  18.6570014
  18.9159992  97.0399978  17.9080014  18.6839672  97.5397885  18.5811862
  18.8299992  97.4979978   3.3540014  19.2419992  96.7769978   2.8790014
  19.5109992  98.1669978   3.4120014  18.9785536  97.4897766   3.2968024
   1.1109992  97.5029978   6.4810014   0.1859992  97.7109978   6.3520014
   1.5649992  97.9869978   5.7910014   1.0456298  97.5969299   6.3700451
  15.8809992 112.4869978   8.4270014  16.5339992 112.1389978   7.8190014
  16.3919992 112.9749978   9.0730014  16.0392777 112.5053815   8.4312047
   1.0739992  96.2409978  14.8250014   0.4089992  95.9949978  15.4680014
   0.6309992  96.8629978  14.2480014   0.9231168  96.2914214  14.8349848
   3.2659992 109.4159978  18.9700014   2.4449992 109.5909978  18.5090014
   3.0139992 109.3429978  19.8900014   3.1195594 109.4300717  19.0313611
   6.2199992 110.3899978  15.2280014   5.7959992 111.1999978  14.9460014
   7.1249992 110.4759978  14.9260014   6.2842138 110.5124160  15.1486415
  10.5319992 111.7889978  18.1880014  10.7159992 111.4559978  19.0660014
  11.3779992 112.0989978  17.8660014  10.6716484 111.7852979  18.2647617
  12.8769992 113.0749978  17.4320014  13.5539992 112.4419978  17.1920014
  13.1979992 113.4759978  18.2390014  13.0131323 113.0425691  17.5083158
  17.7939992  95.6649978  16.5110014  16.9809992  95.9899978  16.1240014
  18.0269992  94.9039978  15.9780014  17.7141347  95.6066880  16.3859841
   3.6219992 113.6469978  15.2760014   2.9019992 114.0869978  14.8250014
   3.2569992 113.3959978  16.1240014   3.4739643 113.6733369  15.3289129
   6.0889992 113.2469978  14.3060014   5.2249992 113.3189978  14.7100014
   6.0339992 113.7939978  13.5220014   5.9631942 113.3307849  14.2554000
  10.7999992 113.1349978  13.4810014  10.3429992 113.6639978  12.8270014
  10.9629992 113.7379978  14.2060014  10.7594960 113.2889280  13.4895274
  13.1279992 112.0129978  14.4260014  12.2229992 112.1779978  14.1600014
  13.5559992 112.8659978  14.3600014  13.0621537 112.1509134  14.3807095
  15.7319992 113.5829978  14.7210014  15.5499992 114.4989978  14.5100014
  15.9089992 113.1719978  13.8740014  15.7310030 113.6528273  14.5777166
   3.0369992 112.2699978  12.1860014   3.0189992 111.8439978  13.0430014
   3.8419992 111.9509978  11.7770014   3.1432875 112.1686435  12.2479515
   5.1779992 110.9799978  10.8410014   4.9589992 110.0629978  11.0110014
   6.0019992 111.1199978  11.3070014   5.2594702 110.8735511  10.9272527
   7.7149992 111.4499978  11.6900014   7.9279992 110.5619978  11.4030014
   7.7799992 111.4149978  12.6440014   7.7529149 111.3238326  11.7797369
  11.2239992  97.1139978  10.8340014  10.5499992  96.4839978  11.0900014
  11.7879992  96.6299978  10.2310014  11.2080384  96.9623708  10.7875020
  16.3669992  95.2209978  10.9470014  16.9699992  95.7689978  10.4450014
  15.4969992  95.5399978  10.7060014  16.3319157  95.3390373  10.8457910
  18.0939992  96.3599978   9.2800014  18.7049992  95.8459978   8.7530014
  18.4759992  97.2369978   9.3030014  18.2293305  96.4082050   9.2109418
   3.5509992  95.7479978   8.6560014   2.7739992  95.5129978   8.1490014
   4.0809992  94.9509978   8.6650014   3.5163451  95.6081268   8.5878627
   2.3869992  95.5459978   4.4600014   2.8259992  96.1569978   3.8680014
   1.7529992  96.0839978   4.9340014   2.3613859  95.7024064   4.4430305
   8.1299992  95.6739978   8.4690014   9.0039992  96.0629978   8.4400014
   7.9939992  95.4589978   9.3920014   8.2311953  95.6981643   8.5897617
  13.6869992  95.7039978  10.1190014  13.7629992  95.7999978   9.1690014
  13.4119992  94.7969978  10.2470014  13.6601871  95.5944146  10.0063944
  15.0399992  95.7299978   5.8110014  14.3369992  96.3449978   5.6010014
  14.5949992  94.8929978   5.9420014  14.8836550  95.7009668   5.7999837
   2.2879992 111.4939978   5.3570014   1.6029992 111.4559978   4.6900014
   2.2919992 112.4069978   5.6450014   2.1947621 111.6121924   5.3046126
   4.2479992  97.4619978   2.9020014   4.7389992  96.8319978   2.3750014
   4.8709992  97.7579978   3.5650014   4.3995304  97.4157376   2.9194940
   9.2739992  97.7549978   5.3590014   9.4519992  97.1079978   6.0420014
   9.2199992  98.5889978   5.8260014   9.2910678  97.7791604   5.5156301
  11.1519992 112.7029978   3.7550014  12.0179992 113.0699978   3.5770014
  10.9059992 112.2639978   2.9410014  11.2372097 112.6938525   3.6206019
  17.8609992 112.2659978   6.4340014  17.6669992 111.5179978   5.8690014
  17.8219992 113.0239978   5.8510014  17.8291645 112.2660786   6.2778148
   3.5079992  96.2619978  18.1740014   3.1419992  95.4959978  18.6160014
   4.4209992  96.2909978  18.4600014   3.5813172  96.1610324  18.2731890
   5.4809992  95.6119978  19.7090014   6.3799992  95.3379978  19.5250014
   5.0949992  94.8699978  20.1740014   5.5517307  95.4742196  19.7467098
   4.1059992 112.4139978   2.3820014   3.8379992 112.6999978   3.2560014
   4.8769992 111.8679978   2.5350014   4.1735926 112.3792779   2.5221205
  13.9029992  94.9449978  19.8920014  13.9789992  94.5189978  20.7450014
  14.7959992  94.9579978  19.5490014  14.0342303  94.8883493  19.9625497
  17.0789992 111.0179978  18.5840014  16.2969992 110.8309978  18.0640014
  17.0069992 111.9469978  18.8010014  16.9621924 111.1180637  18.5421602
  31.4849992 104.9039978   8.6150014  31.5739992 105.8479978   8.4830014
  30.8469992 104.6289978   7.9570014  31.4109062 104.9959812   8.5079641
  30.4179992 104.1589978  12.0340014  30.3799992 103.5129978  12.7390014
  30.0959992 103.6919978  11.2630014  30.3692679 104.0074276  12.0262921
  22.7859992 103.7729978  13.6270014  22.8279992 103.1479978  14.3500014
  23.4889992 104.3969978  13.8090014  22.8867345 103.7717873  13.7505273
  34.1239992 107.0979978  10.3350014  33.6829992 106.3779978  10.7860014
  34.1109992 107.8189978  10.9650014  34.0619215 107.0969291  10.4818105
  23.7099992 108.2229978  12.1620014  23.3399992 107.4209978  11.7920014
  24.6509992 108.0549978  12.2080014  23.7865984 108.0904638  12.1175603
  20.3199992 101.8829978   7.5540014  19.8719992 102.7289978   7.5360014
  19.7589992 101.3039978   7.0390014  20.1828546 101.9203993   7.4818891
  21.0299992 104.0449978   9.6800014  21.2439992 103.2749978  10.2080014
  21.7679992 104.1349978   9.0770014  21.1590200 103.9518587   9.6707035
  31.2359992 112.2019978  10.5470014  31.8549992 111.5259978  10.2740014
  31.0269992 111.9839978  11.4560014  31.2926056 112.0798869  10.6323967
  28.8069992 106.5909978  12.4400014  29.1109992 105.9049978  11.8450014
  29.5289992 106.7099978  13.0580014  28.9461240 106.5132314  12.4420959
  37.4699992  98.1929978  13.3000014  37.5199992  98.8029978  14.0360014
  37.8959992  98.6539978  12.5770014  37.5344108  98.3387709  13.3030112
  31.9479992 100.9849978  12.7670014  32.0909992 100.0389978  12.7870014
  31.8419992 101.1919978  11.8390014  31.9532403 100.8834797  12.6442239
  25.1029992  99.0869978  10.0400014  25.1459992  99.9469978   9.6210014
  24.6449992  98.5349978   9.4060014  25.0469871  99.1299245   9.8970761
  32.8249992  99.2179978   8.4410014  33.4719992  98.8889978   9.0650014
  33.3349992  99.7349978   7.8180014  32.9824351  99.2429067   8.4421037
  21.7229992 101.4839978  10.8020014  22.3769992 100.9339978  11.2340014
  21.7469992 101.2099978   9.8850014  21.8157199 101.3717167  10.7371668
  26.8799992 103.0339978  10.0170014  27.4959992 102.5069978  10.5260014
  26.2929992 102.3939978   9.6130014  26.8850154 102.8753954  10.0320945
  37.8619992  99.6709978  15.5360014  37.1729992 100.3289978  15.4410014
  37.8769992  99.4729978  16.4730014  37.7697756  99.7342603  15.6495812
  23.9129992  98.0049978  14.1140014  23.6939992  98.5349978  13.3470014
  23.2449992  98.2309978  14.7610014  23.7926975  98.1080967  14.0965140
  31.2819992 107.5049978   7.6580014  30.9869992 107.1819978   6.8060014
  30.9579992 108.4049978   7.6990014  31.1978460 107.5824464   7.5469714
  26.4819992 105.6799978  14.4010014  25.7419992 106.2789978  14.5050014
  27.1959992 106.2339978  14.0860014  26.4773500 105.8367829  14.3726371
  34.5889992  98.5089978  10.4210014  34.3739992  97.7429978  10.9540014
  35.2449992  98.9809978  10.9340014  34.6482673  98.4680728  10.5631990
  23.5069992  99.8969978  12.0660014  24.1209992 100.5299978  12.4390014
  24.0189992  99.4249978  11.4100014  23.6601962  99.9197249  12.0282935
  24.8899992 107.6449978  15.1880014  24.8839992 108.5239978  14.8100014
  24.0359992 107.5609978  15.6130014  24.7737925 107.7539535  15.1936887
  21.0109992 107.3159978   5.9700014  20.7389992 107.5449978   5.0820014
  21.0559992 108.1529978   6.4310014  20.9798097 107.4606163   5.9106683
  34.6359992 108.9369978  12.6830014  33.6939992 108.9959978  12.8450014
  34.9119992 109.8429978  12.5460014  34.5445865 109.0675288  12.6866192
  34.9359992  97.2239978  14.1000014  34.1999992  97.8339978  14.0630014
  35.6199992  97.6389978  13.5740014  34.9275367  97.3637551  14.0238174
  27.9399992  95.3099978  11.5660014  27.8219992  94.3619978  11.5120014
  27.0849992  95.6429978  11.8390014  27.8082805  95.2252202  11.5955079
  32.8879992 110.7179978   9.3080014  33.3129992 110.0109978   8.8230014
  33.2049992 111.5199978   8.8910014  32.9890266 110.7295190   9.1852479
  34.0479992 108.6189978   7.8170014  33.7899992 107.9289978   7.2050014
  34.1189992 108.1759978   8.6620014  34.0223050 108.4646814   7.8475621
  35.7339992 107.1859978  16.2940014  35.8729992 106.5939978  15.5550014
  35.9009992 108.0589978  15.9380014  35.7756193 107.2228896  16.1446211
  30.2059992 104.1479978   6.0670014  29.4949992 104.6829978   5.7150014
  30.8969992 104.2029978   5.4070014  30.2020751 104.2286777   5.9295858
  30.2599992 102.6049978   3.1050014  30.9609992 102.6279978   3.7570014
  30.5619992 101.9769978   2.4490014  30.3968202 102.5232212   3.1055609
  37.5749992 103.5259978  14.3600014  36.9229992 104.2199978  14.4490014
  38.0409992 103.7359978  13.5500014  37.5485937 103.6495019  14.2627533
  33.6119992 104.3569978   7.0180014  32.8799992 104.5859978   7.5920014
  34.0589992 103.6439978   7.4730014  33.5723963 104.2918729   7.1579945
  33.5089992 102.5319978  16.0860014  33.5889992 103.2949978  16.6580014
  32.9079992 102.8109978  15.3960014  33.4386547 102.6742457  16.0710047
  25.2569992 104.9879978   8.9010014  24.9269992 104.6169978   8.0830014
  25.8459992 104.3169978   9.2480014  25.2913970 104.8466063   8.8359404
  26.6239992 108.4159978  11.5820014  26.5289992 107.8369978  10.8260014
  27.3529992 108.0449978  12.0780014  26.7096011 108.2865561  11.5456028
  25.6239992 103.7559978  12.5340014  26.1889992 103.8779978  11.7720014
  25.9429992 104.3939978  13.1730014  25.7444166 103.8588791  12.5160348
  31.9329992 109.2599978  13.2680014  31.6929992 109.9219978  13.9160014
  31.7349992 108.4249978  13.6930014  31.8733826 109.2378115  13.4141566
  26.5039992 108.1559978  17.2520014  26.1929992 108.9379978  17.7070014
  25.8539992 108.0029978  16.5660014  26.3735538 108.2424087  17.2215898
  32.4829992 103.5199978   4.7040014  33.0619992 103.6699978   5.4500014
  32.8969992 103.9899978   3.9800014  32.6183358 103.6040955   4.7083953
  23.4239992 104.3539978  16.4800014  23.4939992 105.0049978  17.1790014
  22.5329992 104.4569978  16.1450014  23.3131690 104.4569249  16.5303043
  30.2089992 110.2559978   8.1390014  30.6829992 110.5519978   8.9160014
  29.6459992 110.9949978   7.9060014  30.1977890 110.3963036   8.2138101
  24.7429992 110.2269978  18.0150014  24.7509992 110.0909978  17.0680014
  23.8269992 110.1099978  18.2670014  24.6202528 110.1925463  17.9193243
  36.1819992  95.2699978   4.5170014  35.2819992  95.4089978   4.8120014
  36.4339992  96.1009978   4.1150014  36.0928683  95.4014055   4.5030232
  24.2479992 104.0569978   6.4900014  23.9559992 104.8249978   5.9990014
  23.5729992 103.3979978   6.3270014  24.1168497 104.0729745   6.4008260
  37.3709992 109.6359978   2.8930014  37.4439992 110.5749978   3.0630014
  38.2759992 109.3309978   2.8370014  37.5034170 109.7233282   2.9087063
  20.3409992 106.4199978  15.3050014  19.8389992 106.3919978  14.4900014
  20.3459992 105.5149978  15.6150014  20.2729832 106.2937486  15.2354121
  20.0909992 109.2009978  12.1890014  21.0369992 109.0559978  12.1700014
  19.9779992 109.9849978  12.7260014  20.2053578 109.2871697  12.2590317
  38.2889992 109.8669978  17.8720014  38.2389992 108.9109978  17.8340014
  37.4619992 110.1339978  18.2730014  38.1703831 109.7724680  17.9210121
  29.2669992 109.4409978  16.7480014  29.3549992 110.2669978  17.2230014
  28.4039992 109.1109978  16.9970014  29.1623357 109.5095468  16.8467653
  29.6819992 113.2129978   6.5540014  29.6059992 113.0919978   5.6070014
  29.7139992 114.1619978   6.6720014  29.6759380 113.3247677   6.4405181
  23.3349992 112.0019978   8.3350014  23.4869992 111.6539978   9.2130014
  22.4839992 111.6449978   8.0790014  23.2408344 111.9060879   8.4206868
  32.7829992 112.3669978   3.5560014  33.1579992 111.6229978   3.0850014
  32.7879992 112.0969978   4.4740014  32.8350098 112.2286392   3.6156629
  32.4519992 112.2929978   6.3050014  31.5169992 112.3929978   6.4840014
  32.7319992 111.5829978   6.8840014  32.3619471 112.2107933   6.4076695
  35.4409992 101.3599978  18.3520014  35.0329992 101.8399978  17.6310014
  35.4809992 100.4539978  18.0440014  35.3906221 101.3032449  18.2118267
  22.5899992 107.7439978  16.3480014  22.8059992 107.3819978  17.2080014
  21.7339992 107.3689978  16.1390014  22.5038810 107.6438837  16.4372680
  25.2079992  96.2139978  12.3440014  24.3469992  96.1269978  11.9360014
  25.1859992  97.0699978  12.7720014  25.0870491  96.3178003  12.3459582
  29.8709992  95.9359978  15.7190014  30.2909992  95.5209978  16.4720014
  28.9379992  95.7569978  15.8360014  29.8023736  95.8549910  15.8378968
  33.1979992  99.6909978  16.5720014  32.6839992  99.5659978  17.3700014
  33.0419992 100.6039978  16.3280014  33.1066967  99.7972123  16.6480937
  33.9599992 104.5519978   2.3330014  34.0019992 104.3299978   1.4030014
  34.8089992 104.9509978   2.5230014  34.0805253 104.5755498   2.2313822
  29.5329992  98.4279978   3.0040014  29.2789992  98.4469978   3.9260014
  29.2759992  97.5569978   2.7020014  29.4634508  98.3128280   3.0894803
  25.2989992 101.1789978  13.4390014  24.6579992 101.1389978  14.1480014
  25.3369992 102.1059978  13.2010014  25.2163010 101.2987668  13.5039946
  25.2959992 101.3999978   8.3510014  24.4039992 101.0599978   8.2920014
  25.7469992 101.0229978   7.5950014  25.2347642 101.3024910   8.2407726
  30.8319992 101.8159978   7.1680014  30.4229992 102.6309978   6.8760014
  31.5519992 101.6759978   6.5540014  30.8734439 101.9085372   7.0450115
  29.9339992 101.9919978  18.6560014  29.3709992 101.2869978  18.9770014
  30.7599992 101.8709978  19.1240014  29.9686674 101.8792165  18.7631751
  31.8369992 101.2619978   9.9820014  31.6409992 101.8679978   9.2670014
  32.0179992 100.4289978   9.5480014  31.8346584 101.2322513   9.8254212
  23.0489992 101.4999978  15.3060014  23.0109992 101.8999978  16.1750014
  22.5589992 100.6829978  15.3960014  22.9775330 101.4442674  15.4371289
  26.4149992  98.8739978   2.1050014  25.9839992  98.4289978   2.8340014
  25.6969992  99.2449978   1.5920014  26.2589176  98.8632051   2.1354930
  19.6579992  98.6159978   9.1570014  20.2879992  98.5869978   9.8760014
  20.1069992  98.1909978   8.4260014  19.8050835  98.5545660   9.1567659
  20.9319992  99.3619978   4.5810014  21.4059992  99.9529978   3.9960014
  20.2139992  99.8919978   4.9280014  20.8998640  99.5145511   4.5477969
  31.1009992 102.8999978  14.6530014  31.4239992 102.2689978  14.0100014
  30.6599992 102.3659978  15.3140014  31.0856379 102.7413468  14.6542582
  27.8779992  98.8279978   9.4370014  26.9669992  98.8849978   9.7260014
  28.3829992  98.7679978  10.2480014  27.8216873  98.8276826   9.5861207
  22.7059992 100.4569978   8.2640014  21.8169992 100.5559978   7.9240014
  23.0029992  99.6149978   7.9180014  22.6244177 100.3567687   8.1706940
  26.3589992 100.4569978   5.9210014  27.2909992 100.5859978   6.0990014
  26.1439992 101.1259978   5.2710014  26.4574472 100.5650806   5.8574891
  32.2829992  98.0629978  12.7020014  31.6059992  98.1939978  13.3650014
  31.7979992  97.9079978  11.8910014  32.1247405  98.0599947  12.6832170
  25.0329992 101.6509978   3.4870014  24.4909992 101.2719978   2.7960014
  25.8669992 101.8459978   3.0590014  25.0714390 101.6254079   3.3344392
  35.5709992 113.7339978  18.9780014  35.7699992 114.1579978  18.1440014
  36.2259992 114.0779978  19.5850014  35.6868522 113.8386301  18.9457852
  23.1689992 106.2079978  18.5860014  23.9009992 106.4629978  19.1480014
  22.3879992 106.4129978  19.1020014  23.1636526 106.2705450  18.7325176
  29.1979992 101.6149978  11.3240014  29.7619992 101.0689978  10.7770014
  29.0499992 101.0939978  12.1130014  29.2553037 101.4696787  11.3557229
  24.1999992  97.7519978   7.7430014  23.8829992  96.8489978   7.7070014
  24.9809992  97.7539978   7.1900014  24.2622431  97.6287797   7.6633102
  27.8239992 100.0039978  13.7380014  26.9889992 100.4579978  13.8490014
  28.3479992 100.2799978  14.4900014  27.7806072 100.1033948  13.8548136
  28.3689992 106.2169978   5.4230014  27.6239992 105.7089978   5.1010014
  28.2339992 106.2659978   6.3690014  28.2488963 106.1541731   5.5068826
  35.5189992 105.3499978  14.2100014  36.1599992 105.8059978  13.6660014
  34.6879992 105.4629978  13.7470014  35.4945287 105.4276921  14.0729887
  32.2659992  99.0309978   3.6220014  31.3279992  99.1419978   3.4710014
  32.5639992  99.8869978   3.9290014  32.1776318  99.1620158   3.6428145
  29.8879992 106.4009978  16.6600014  29.5419992 106.0189978  17.4670014
  29.6879992 107.3339978  16.7310014  29.8135987 106.4749002  16.7800461
  32.9849992 100.8979978   5.2830014  33.8769992 100.7599978   5.6020014
  33.0409992 101.6889978   4.7460014  33.1147325 100.9859918   5.2541217
  23.4929992 105.5119978  11.1930014  24.2379992 105.5089978  10.5910014
  23.5709992 104.6879978  11.6740014  23.6053365 105.4002384  11.1757430
  30.4939992 107.6749978   4.4480014  30.1989992 108.5019978   4.8300014
  29.7909992 107.0559978   4.6450014  30.3586379 107.7044171   4.5268654
  20.5009992 103.9719978  16.5080014  20.7239992 103.5539978  17.3390014
  19.8989992 103.3599978  16.0850014  20.4501513 103.8319606  16.5646740
  27.5179992 103.4889978  18.7210014  27.2219992 103.3239978  17.8250014
  28.4489992 103.2689978  18.7100014  27.6034401 103.4366879  18.5970206
  32.1379992 108.8629978  16.6100014  31.2379992 109.0459978  16.3430014
  32.1719992 109.1219978  17.5310014  32.0193748 108.9230554  16.6979164
  37.8699992 101.1069978   4.9780014  37.3149992 100.7109978   4.3050014
  37.9699992 102.0179978   4.7000014  37.8076816 101.1759505   4.8485033
  37.8329992 106.9079978  17.8150014  36.9819992 107.1459978  17.4470014
  38.4229992 106.8909978  17.0620014  37.7963812 106.9382524  17.6628453
  36.1649992 109.8929978   5.4430014  35.7919992 109.0679978   5.7520014
  36.4419992 109.7099978   4.5450014  36.1513463 109.7552569   5.3639525
  33.3249992 104.7009978  12.4640014  32.3969992 104.4699978  12.4370014
  33.7759992 103.9239978  12.1340014  33.2588165 104.5642774  12.4156790
  25.8679992 109.0299978   8.5970014  26.3959992 109.8029978   8.3970014
  24.9879992 109.2539978   8.2950014  25.8213435 109.1662700   8.5287310
  21.6229992 103.8919978   3.1840014  22.2389992 104.5189978   3.5640014
  20.7609992 104.2079978   3.4560014  21.5907678 104.0204412   3.2727209
  27.2959992 106.6929978   8.1730014  27.0549992 107.6179978   8.2150014
  26.5549992 106.2339978   8.5700014  27.1629206 106.7575915   8.2323769
  27.8099992 110.8419978  14.4880014  28.1729992 111.6959978  14.2550014
  28.3419992 110.5499978  15.2290014  27.9315141 110.9193895  14.5562097
  25.9789992 111.7139978   7.7190014  25.0289992 111.8199978   7.7700014
  26.3309992 112.5349978   8.0630014  25.8965472 111.8394923   7.7724852
  31.3539992 106.9409978  14.1890014  30.9289992 106.7129978  15.0150014
  31.9349992 106.2019978  14.0070014  31.3743395 106.8099545  14.2774414
  33.5569992 107.8699978   3.2630014  33.9109992 107.4899978   4.0670014
  32.6089992 107.7759978   3.3500014  33.4772298 107.8052452   3.3848687
  34.0129992 111.4929978  16.6580014  33.4109992 110.9369978  16.1630014
  34.2939992 112.1599978  16.0320014  33.9685757 111.5070744  16.5055675
  38.0609992 112.3489978   3.4640014  38.8049992 112.9349978   3.3240014
  37.3669992 112.9179978   3.7970014  38.0689809 112.5060818   3.4898590
  22.1349992  98.7259978  16.0660014  21.2429992  99.0639978  15.9980014
  22.0369992  97.8699978  16.4840014  21.9994475  98.6566543  16.1131704
  34.4229992 106.5419978   5.4900014  34.1459992 105.8139978   6.0460014
  35.3509992 106.6609978   5.6950014  34.5104499 106.4584213   5.5938044
  21.7869992 110.5299978  14.5010014  22.0039992 109.5979978  14.4700014
  22.0329992 110.8049978  15.3840014  21.8499809 110.4395686  14.6161691
  27.6479992 108.9819978   1.7100014  27.8869992 108.2329978   1.1630014
  27.3789992 108.5939978   2.5430014  27.6443233 108.8271853   1.7477809
  26.5849992 108.5519978   4.1660014  26.7319992 108.0319978   4.9560014
  26.5819992 109.4589978   4.4730014  26.6047102 108.6033953   4.3155925
  23.0379992 105.8039978   4.6770014  22.3519992 106.1569978   5.2440014
  23.5609992 106.5669978   4.4300014  23.0148402 105.9553901   4.7211801
  30.8699992  98.4669978  14.9560014  31.5689992  98.5409978  15.6060014
  30.4889992  97.6019978  15.1100014  30.9142097  98.3602389  15.0657997
  31.6539992  98.1189978   6.0530014  31.8739992  98.5899978   5.2490014
  32.2129992  98.5129978   6.7230014  31.7596731  98.2367287   6.0335033
  29.3229992 110.2489978   4.9160014  28.5059992 110.7459978   4.9680014
  29.8519992 110.7249978   4.2750014  29.2828125 110.3811989   4.8365306
  28.8539992  99.8469978   6.8880014  29.6659992 100.3509978   6.9340014
  28.6099992  99.7019978   7.8020014  28.9321467  99.8963749   7.0178575
  29.3899992 100.8329978  16.0720014  29.5089992 101.4069978  16.8290014
  30.0449992 100.1449978  16.1870014  29.4948684 100.8185194  16.1911674
  29.7379992  96.9279978   7.8260014  29.3909992  97.5449978   8.4700014
  30.3969992  97.4289978   7.3440014  29.7795090  97.0801575   7.8490681
  26.6609992 111.2929978   4.8970014  26.8219992 112.0929978   4.3970014
  26.4639992 111.5999978   5.7820014  26.6563906 111.4438678   4.9482333
  25.3959992  97.9909978   4.5130014  25.3119992  98.8789978   4.8600014
  26.2859992  97.7259978   4.7450014  25.5048163  98.0767179   4.5918596
  35.5939992  98.7399978  16.9070014  34.6779992  99.0019978  16.8200014
  35.9299992  98.7369978  16.0110014  35.5138499  98.7755163  16.7738766
  34.1969992 102.4899978  11.0030014  33.3989992 102.0749978  10.6750014
  34.6419992 101.7999978  11.4940014  34.1479684 102.3398628  11.0245227
  23.6539992 108.4179978   3.5730014  24.2459992 109.1179978   3.8500014
  24.1129992 107.9849978   2.8540014  23.7971652 108.4552675   3.5136533
  21.9699992 101.0829978   2.6890014  21.9249992 102.0219978   2.8680014
  21.0819992 100.8469978   2.4200014  21.8438166 101.1796687   2.6771524
  35.2829992 111.7459978  12.6250014  35.1269992 112.4249978  11.9680014
  36.2159992 111.8179978  12.8280014  35.3877387 111.8486390  12.5625342
  22.7779992  95.8639978  11.3630014  22.5489992  95.9229978  10.4350014
  22.3359992  95.0729978  11.6690014  22.6868801  95.7650540  11.2774729
  21.7089992 109.8049978   7.5230014  20.8759992 110.2769978   7.5500014
  22.2539992 110.3149978   6.9240014  21.6687857 109.9384791   7.4457142
  20.9969992 112.4169978  18.8530014  21.5369992 112.2009978  19.6130014
  20.5159992 111.6119978  18.6630014  21.0059219 112.2785156  18.9314282
  25.5939992 111.3369978  20.4730014  26.3619992 110.8779978  20.8140014
  25.5729992 111.1109978  19.5430014  25.6962135 111.2436668  20.3939491
  29.6859992 110.8449978   1.8490014  29.0419992 110.2139978   2.1700014
  30.4479992 110.3139978   1.6170014  29.7008058 110.6867902   1.8616038
  32.1709992 109.7169978  19.2020014  31.8199992 108.8599978  19.4460014
  32.8969992 109.8589978  19.8090014  32.2211895 109.6191351  19.3173770
  34.2909992 110.6619978   2.0820014  34.5739992 109.8669978   2.5350014
  35.0299992 110.8949978   1.5210014  34.4297096 110.5847049   2.0681104
  20.9039992 106.2279978  19.8070014  21.0479992 105.3259978  19.5210014
  20.1319992 106.5139978  19.3200014  20.8192733 106.1431798  19.7019532
  25.2449992 106.5709978   1.9400014  25.3099992 105.7769978   2.4700014
  25.8979992 106.4529978   1.2500014  25.3421605 106.4463430   1.9192997
  27.5589992 106.1969978  19.2400014  27.2309992 106.4679978  18.3830014
  27.7109992 105.2559978  19.1520014  27.5346412 106.1069046  19.1107822
  30.5979992 107.6179978   1.6760014  30.3289992 107.7989978   2.5760014
  30.3909992 106.6929978   1.5440014  30.5331191 107.5177119   1.7815524
  33.2939992 106.1129978  16.6230014  34.0389992 106.7019978  16.5040014
  32.5369992 106.6949978  16.6870014  33.2935470 106.2722128  16.6153799
  21.7369992 103.4279978  19.2270014  22.1449992 102.5709978  19.1060014
  21.4759992 103.4419978  20.1480014  21.7576016 103.3125119  19.3349192
  26.3949992 104.5439978   4.2460014  25.9349992 104.0599978   4.9310014
  26.6499992 103.8749978   3.6100014  26.3664856 104.3873669   4.2538397
  25.6839992 102.4369978  16.6020014  25.0649992 103.1109978  16.8820014
  26.0279992 102.7579978  15.7680014  25.6457123 102.5726887  16.5276388
  27.4659992 102.7869978   2.5080014  27.2849992 102.6319978   1.5810014
  28.4159992 102.8949978   2.5530014  27.5696566 102.7803669   2.3870929
  30.7029992 104.9079978  19.8790014  31.6569992 104.9919978  19.8520014
  30.5429992 104.1959978  20.4990014  30.8117182 104.8232842  19.9590733
  36.8559992 105.1409978   1.9540014  36.5819992 104.7169978   1.1410014
  36.8949992 106.0729978   1.7370014  36.8237716 105.2088827   1.8134286
  26.0229992  99.7919978  17.6840014  26.1729992  99.0629978  17.0820014
  26.0249992 100.5689978  17.1250014  26.0437967  99.7972708  17.5260541
  26.4359992  98.1609978  15.1770014  26.9709992  98.6129978  14.5250014
  25.5829992  98.0529978  14.7540014  26.3940374  98.2082665  15.0306710
  28.0169992 103.6009978  15.4160014  28.7679992 103.4449978  14.8430014
  27.6779992 104.4529978  15.1410014  28.0739587 103.6948138  15.3004078
  32.4329992 101.4159978  20.4450014  32.6249992 100.4849978  20.3330014
  33.2909992 101.8409978  20.4340014  32.5752182 101.3460070  20.4281862
  33.7499992 104.2049978  18.5220014  33.4679992 104.9139978  17.9440014
  34.6919992 104.1319978  18.3710014  33.8387921 104.2922193  18.4224225
  24.5019992 100.9899978  19.5950014  23.7339992 100.4569978  19.3850014
  25.1799992 100.6799978  18.9960014  24.4887235 100.8751754  19.4852413
  27.2409992  95.6179978  15.6080014  27.1429992  96.5639978  15.5030014
  26.4989992  95.2449978  15.1320014  27.1272534  95.6971773  15.5292600
  28.5049992  99.9389978  19.1720014  28.2699992  99.7199978  20.0730014
  27.7219992  99.7319978  18.6620014  28.3669095  99.8809892  19.2265353
  31.2209992  99.0669978  18.2470014  30.2729992  99.0989978  18.3790014
  31.5329992  98.4409978  18.9010014  31.1335293  98.9867923  18.3534148
  32.8549992  97.7009978  20.2520014  32.7579992  96.7489978  20.2470014
  32.5329992  97.9689978  21.1130014  32.7982468  97.6070884  20.3676210
  22.6819992  98.9099978  19.3000014  22.8939992  98.2039978  18.6900014
  22.5709992  98.4729978  20.1440014  22.6960269  98.7541921  19.3305873
  27.4629992  94.9119978  18.2790014  28.1749992  94.2719978  18.2650014
  27.3619992  95.1779978  17.3660014  27.5467387  94.8604330  18.1535563
  27.8169992  96.5939978  20.3330014  27.6849992  96.1189978  19.5130014
  27.2169992  97.3389978  20.2780014  27.7179070  96.6295789  20.2133251
  27.3629992 113.4769978   3.5090014  28.2959992 113.6349978   3.6530014
  27.0989992 114.1529978   2.8840014  27.4549911 113.5899373   3.4442722
  20.9309992 108.1139978   2.9920014  21.8449992 108.1929978   3.2650014
  20.9389992 107.4269978   2.3260014  21.0570655 108.0319205   2.9392917
  19.5799992 113.5069978   8.0690014  18.9329992 113.0449978   7.5370014
  19.9349992 112.8349978   8.6520014  19.5393741 113.3529774   8.0749175
  20.4499992 111.5869978   9.8740014  20.1159992 110.7069978  10.0460014
  20.6729992 111.9329978  10.7390014  20.4343721 111.5131938  10.0144168
  37.9989992 112.3969978  12.8550014  37.9769992 112.5819978  13.7940014
  38.6889992 112.9649978  12.5140014  38.0893439 112.4991887  12.9374791
  37.5619992 111.9639978  15.7760014  37.0749992 111.2289978  15.4050014
  38.1109992 111.5699978  16.4540014  37.5695247 111.8101057  15.8168461
  36.0129992 107.7539978  20.4150014  35.1469992 107.6489978  20.8090014
  36.3889992 108.5119978  20.8610014  35.9453401 107.8421708  20.5292620
  37.3139992 106.0099978   5.9290014  38.1639992 106.4309978   6.0560014
  37.3189992 105.2699978   6.5360014  37.4311143 105.9676094   6.0284750
  37.7079992 104.0639978   7.7520014  36.9819992 103.5839978   8.1500014
  38.2899992 104.2689978   8.4850014  37.6872730 104.0260184   7.9054149
  37.4669992 106.8489978  12.7000014  38.3009992 106.4709978  12.4190014
  37.5789992 107.7919978  12.5810014  37.5961917 106.9247943  12.6454861
  35.9539992 109.7269978  15.0070014  35.3059992 110.0519978  15.6320014
  35.4359992 109.2859978  14.3330014  35.7954196 109.7118651  15.0014152
  37.9769992 103.9649978   4.1430014  37.4549992 104.3209978   3.4250014
  37.9439992 104.6399978   4.8220014  37.9010129 104.1049598   4.1363355
  36.3259992 101.2039978   2.6940014  36.4219992 101.8709978   2.0140014
  36.1859992 100.3889978   2.2130014  36.3202040 101.1850671   2.5358378
  35.4949992 102.5849978   8.3150014  35.3449992 101.6399978   8.2950014
  35.1409992 102.8659978   9.1590014  35.4266351 102.4936644   8.4263220
  20.5299992 104.6629978  12.3260014  20.7149992 104.5809978  11.3900014
  21.3799992 104.5389978  12.7490014  20.6700928 104.6350463  12.2552893
  36.3509992 104.5549978  17.9540014  36.9339992 103.8199978  18.1460014
  36.9149992 105.3269978  18.0010014  36.5069781 104.5588145  17.9866164
  37.8479992 102.4579978  18.6390014  36.9849992 102.0789978  18.4730014
  38.4519992 101.7189978  18.5640014  37.8116085 102.3063223  18.6061695
  35.5729992  98.6119978   1.8120014  36.1839992  98.2409978   2.4490014
  34.7359992  98.1909978   2.0080014  35.5434947  98.5042756   1.9257252
  35.2059992 100.1669978   6.7780014  35.4849992  99.2599978   6.9020014
  35.9649992 100.6009978   6.3890014  35.3468619 100.1014502   6.7423795
  35.8169992 100.7489978  12.2140014  36.7499992 100.9609978  12.1790014
  35.5819992 100.8499978  13.1360014  35.9129517 100.7916833  12.3339130
  35.8469992 101.4859978  14.9900014  35.0039992 101.7539978  15.3560014
  36.2889992 102.3079978  14.7790014  35.7914138 101.6338273  15.0115518
  20.1279992  99.9329978  18.4660014  21.0469992  99.8109978  18.7030014
  19.6779992  99.1829978  18.8560014  20.1930087  99.8149608  18.5511410
  38.1299992  95.4659978  20.3430014  38.4789992  94.8119978  19.7380014
  38.2769992  96.3029978  19.9030014  38.1976824  95.4896024  20.2006304
  35.8189992  97.4299978   6.8260014  36.0009992  96.9809978   7.6510014
  35.2189992  96.8459978   6.3620014  35.7628187  97.2895552   6.8762739
  21.3489992  98.2459978  11.3580014  21.7939992  97.4539978  11.6600014
  21.8149992  98.9619978  11.7880014  21.4729718  98.2344534  11.4575265
  19.6529992 101.2449978  12.4270014  20.1449992 101.0239978  11.6360014
  20.0149992 102.0849978  12.7080014  19.7692923 101.3283468  12.3567407
  37.6489992  97.5749978  18.6920014  36.7319992  97.8459978  18.6570014
  37.7719992  97.0399978  17.9080014  37.5399672  97.5397885  18.5811862
  37.6859992  97.4979978   3.3540014  38.0979992  96.7769978   2.8790014
  38.3669992  98.1669978   3.4120014  37.8345536  97.4897766   3.2968024
  19.9669992  97.5029978   6.4810014  19.0419992  97.7109978   6.3520014
  20.4209992  97.9869978   5.7910014  19.9016298  97.5969299   6.3700451
  34.7369992 112.4869978   8.4270014  35.3899992 112.1389978   7.8190014
  35.2479992 112.9749978   9.0730014  34.8952777 112.5053815   8.4312047
  19.9299992  96.2409978  14.8250014  19.2649992  95.9949978  15.4680014
  19.4869992  96.8629978  14.2480014  19.7791168  96.2914214  14.8349848
  22.1219992 109.4159978  18.9700014  21.3009992 109.5909978  18.5090014
  21.8699992 109.3429978  19.8900014  21.9755594 109.4300717  19.0313611
  25.0759992 110.3899978  15.2280014  24.6519992 111.1999978  14.9460014
  25.9809992 110.4759978  14.9260014  25.1402138 110.5124160  15.1486415
  29.3879992 111.7889978  18.1880014  29.5719992 111.4559978  19.0660014
  30.2339992 112.0989978  17.8660014  29.5276484 111.7852979  18.2647617
  31.7329992 113.0749978  17.4320014  32.4099992 112.4419978  17.1920014
  32.0539992 113.4759978  18.2390014  31.8691323 113.0425691  17.5083158
  36.6499992  95.6649978  16.5110014  35.8369992  95.9899978  16.1240014
  36.8829992  94.9039978  15.9780014  36.5701347  95.6066880  16.3859841
  22.4779992 113.6469978  15.2760014  21.7579992 114.0869978  14.8250014
  22.1129992 113.3959978  16.1240014  22.3299643 113.6733369  15.3289129
  24.9449992 113.2469978  14.3060014  24.0809992 113.3189978  14.7100014
  24.8899992 113.7939978  13.5220014  24.8191942 113.3307849  14.2554000
  29.6559992 113.1349978  13.4810014  29.1989992 113.6639978  12.8270014
  29.8189992 113.7379978  14.2060014  29.6154960 113.2889280  13.4895274
  31.9839992 112.0129978  14.4260014  31.0789992 112.1779978  14.1600014
  32.4119992 112.8659978  14.3600014  31.9181537 112.1509134  14.3807095
  34.5879992 113.5829978  14.7210014  34.4059992 114.4989978  14.5100014
  34.7649992 113.1719978  13.8740014  34.5870030 113.6528273  14.5777166
  21.8929992 112.2699978  12.1860014  21.8749992 111.8439978  13.0430014
  22.6979992 111.9509978  11.7770014  21.9992875 112.1686435  12.2479515
  24.0339992 110.9799978  10.8410014  23.8149992 110.0629978  11.0110014
  24.8579992 111.1199978  11.3070014  24.1154702 110.8735511  10.9272527
  26.5709992 111.4499978  11.6900014  26.7839992 110.5619978  11.4030014
  26.6359992 111.4149978  12.6440014  26.6089149 111.3238326  11.7797369
  30.0799992  97.1139978  10.8340014  29.4059992  96.4839978  11.0900014
  30.6439992  96.6299978  10.2310014  30.0640384  96.9623708  10.7875020
  35.2229992  95.2209978  10.9470014  35.8259992  95.7689978  10.4450014
  34.3529992  95.5399978  10.7060014  35.1879157  95.3390373  10.8457910
  36.9499992  96.3599978   9.2800014  37.5609992  95.8459978   8.7530014
  37.3319992  97.2369978   9.3030014  37.0853305  96.4082050   9.2109418
  22.4069992  95.7479978   8.6560014  21.6299992  95.5129978   8.1490014
  22.9369992  94.9509978   8.6650014  22.3723451  95.6081268   8.5878627
  21.2429992  95.5459978   4.4600014  21.6819992  96.1569978   3.8680014
  20.6089992  96.0839978   4.9340014  21.2173859  95.7024064   4.4430305
  26.9859992  95.6739978   8.4690014  27.8599992  96.0629978   8.4400014
  26.8499992  95.4589978   9.3920014  27.0871953  95.6981643   8.5897617
  32.5429992  95.7039978  10.1190014  32.6189992  95.7999978   9.1690014
  32.2679992  94.7969978  10.2470014  32.5161871  95.5944146  10.0063944
  33.8959992  95.7299978   5.8110014  33.1929992  96.3449978   5.6010014
  33.4509992  94.8929978   5.9420014  33.7396550  95.7009668   5.7999837
  21.1439992 111.4939978   5.3570014  20.4589992 111.4559978   4.6900014
  21.1479992 112.4069978   5.6450014  21.0507621 111.6121924   5.3046126
  23.1039992  97.4619978   2.9020014  23.5949992  96.8319978   2.3750014
  23.7269992  97.7579978   3.5650014  23.2555304  97.4157376   2.9194940
  28.1299992  97.7549978   5.3590014  28.3079992  97.1079978   6.0420014
  28.0759992  98.5889978   5.8260014  28.1470678  97.7791604   5.5156301
  30.0079992 112.7029978   3.7550014  30.8739992 113.0699978   3.5770014
  29.7619992 112.2639978   2.9410014  30.0932097 112.6938525   3.6206019
  36.7169992 112.2659978   6.4340014  36.5229992 111.5179978   5.8690014
  36.6779992 113.0239978   5.8510014  36.6851645 112.2660786   6.2778148
  22.3639992  96.2619978  18.1740014  21.9979992  95.4959978  18.6160014
  23.2769992  96.2909978  18.4600014  22.4373172  96.1610324  18.2731890
  24.3369992  95.6119978  19.7090014  25.2359992  95.3379978  19.5250014
  23.9509992  94.8699978  20.1740014  24.4077307  95.4742196  19.7467098
  22.9619992 112.4139978   2.3820014  22.6939992 112.6999978   3.2560014
  23.7329992 111.8679978   2.5350014  23.0295926 112.3792779   2.5221205
  32.7589992  94.9449978  19.8920014  32.8349992  94.5189978  20.7450014
  33.6519992  94.9579978  19.5490014  32.8902303  94.8883493  19.9625497
  35.9349992 111.0179978  18.5840014  35.1529992 110.8309978  18.0640014
  35.8629992 111.9469978  18.8010014  35.8181924 111.1180637  18.5421602
  50.3409992 104.9039978   8.6150014  50.4299992 105.8479978   8.4830014
  49.7029992 104.6289978   7.9570014  50.2669062 104.9959812   8.5079641
  49.2739992 104.1589978  12.0340014  49.2359992 103.5129978  12.7390014
  48.9519992 103.6919978  11.2630014  49.2252679 104.0074276  12.0262921
  41.6419992 103.7729978  13.6270014  41.6839992 103.1479978  14.3500014
  42.3449992 104.3969978  13.8090014  41.7427345 103.7717873  13.7505273
  52.9799992 107.0979978  10.3350014  52.5389992 106.3779978  10.7860014
  52.9669992 107.8189978  10.9650014  52.9179215 107.0969291  10.4818105
  42.5659992 108.2229978  12.1620014  42.1959992 107.4209978  11.7920014
  43.5069992 108.0549978  12.2080014  42.6425984 108.0904638  12.1175603
  39.1759992 101.8829978   7.5540014  38.7279992 102.7289978   7.5360014
  38.6149992 101.3039978   7.0390014  39.0388546 101.9203993   7.4818891
  39.8859992 104.0449978   9.6800014  40.0999992 103.2749978  10.2080014
  40.6239992 104.1349978   9.0770014  40.0150200 103.9518587   9.6707035
  50.0919992 112.2019978  10.5470014  50.7109992 111.5259978  10.2740014
  49.8829992 111.9839978  11.4560014  50.1486056 112.0798869  10.6323967
  47.6629992 106.5909978  12.4400014  47.9669992 105.9049978  11.8450014
  48.3849992 106.7099978  13.0580014  47.8021240 106.5132314  12.4420959
  56.3259992  98.1929978  13.3000014  56.3759992  98.8029978  14.0360014
  56.7519992  98.6539978  12.5770014  56.3904108  98.3387709  13.3030112
  50.8039992 100.9849978  12.7670014  50.9469992 100.0389978  12.7870014
  50.6979992 101.1919978  11.8390014  50.8092403 100.8834797  12.6442239
  43.9589992  99.0869978  10.0400014  44.0019992  99.9469978   9.6210014
  43.5009992  98.5349978   9.4060014  43.9029871  99.1299245   9.8970761
  51.6809992  99.2179978   8.4410014  52.3279992  98.8889978   9.0650014
  52.1909992  99.7349978   7.8180014  51.8384351  99.2429067   8.4421037
  40.5789992 101.4839978  10.8020014  41.2329992 100.9339978  11.2340014
  40.6029992 101.2099978   9.8850014  40.6717199 101.3717167  10.7371668
  45.7359992 103.0339978  10.0170014  46.3519992 102.5069978  10.5260014
  45.1489992 102.3939978   9.6130014  45.7410154 102.8753954  10.0320945
  56.7179992  99.6709978  15.5360014  56.0289992 100.3289978  15.4410014
  56.7329992  99.4729978  16.4730014  56.6257756  99.7342603  15.6495812
  42.7689992  98.0049978  14.1140014  42.5499992  98.5349978  13.3470014
  42.1009992  98.2309978  14.7610014  42.6486975  98.1080967  14.0965140
  50.1379992 107.5049978   7.6580014  49.8429992 107.1819978   6.8060014
  49.8139992 108.4049978   7.6990014  50.0538460 107.5824464   7.5469714
  45.3379992 105.6799978  14.4010014  44.5979992 106.2789978  14.5050014
  46.0519992 106.2339978  14.0860014  45.3333500 105.8367829  14.3726371
  53.4449992  98.5089978  10.4210014  53.2299992  97.7429978  10.9540014
  54.1009992  98.9809978  10.9340014  53.5042673  98.4680728  10.5631990
  42.3629992  99.8969978  12.0660014  42.9769992 100.5299978  12.4390014
  42.8749992  99.4249978  11.4100014  42.5161962  99.9197249  12.0282935
  43.7459992 107.6449978  15.1880014  43.7399992 108.5239978  14.8100014
  42.8919992 107.5609978  15.6130014  43.6297925 107.7539535  15.1936887
  39.8669992 107.3159978   5.9700014  39.5949992 107.5449978   5.0820014
  39.9119992 108.1529978   6.4310014  39.8358097 107.4606163   5.9106683
  53.4919992 108.9369978  12.6830014  52.5499992 108.9959978  12.8450014
  53.7679992 109.8429978  12.5460014  53.4005865 109.0675288  12.6866192
  53.7919992  97.2239978  14.1000014  53.0559992  97.8339978  14.0630014
  54.4759992  97.6389978  13.5740014  53.7835367  97.3637551  14.0238174
  46.7959992  95.3099978  11.5660014  46.6779992  94.3619978  11.5120014
  45.9409992  95.6429978  11.8390014  46.6642805  95.2252202  11.5955079
  51.7439992 110.7179978   9.3080014  52.1689992 110.0109978   8.8230014
  52.0609992 111.5199978   8.8910014  51.8450266 110.7295190   9.1852479
  52.9039992 108.6189978   7.8170014  52.6459992 107.9289978   7.2050014
  52.9749992 108.1759978   8.6620014  52.8783050 108.4646814   7.8475621
  54.5899992 107.1859978  16.2940014  54.7289992 106.5939978  15.5550014
  54.7569992 108.0589978  15.9380014  54.6316193 107.2228896  16.1446211
  49.0619992 104.1479978   6.0670014  48.3509992 104.6829978   5.7150014
  49.7529992 104.2029978   5.4070014  49.0580751 104.2286777   5.9295858
  49.1159992 102.6049978   3.1050014  49.8169992 102.6279978   3.7570014
  49.4179992 101.9769978   2.4490014  49.2528202 102.5232212   3.1055609
  56.4309992 103.5259978  14.3600014  55.7789992 104.2199978  14.4490014
  56.8969992 103.7359978  13.5500014  56.4045937 103.6495019  14.2627533
  52.4679992 104.3569978   7.0180014  51.7359992 104.5859978   7.5920014
  52.9149992 103.6439978   7.4730014  52.4283963 104.2918729   7.1579945
  52.3649992 102.5319978  16.0860014  52.4449992 103.2949978  16.6580014
  51.7639992 102.8109978  15.3960014  52.2946547 102.6742457  16.0710047
  44.1129992 104.9879978   8.9010014  43.7829992 104.6169978   8.0830014
  44.7019992 104.3169978   9.2480014  44.1473970 104.8466063   8.8359404
  45.4799992 108.4159978  11.5820014  45.3849992 107.8369978  10.8260014
  46.2089992 108.0449978  12.0780014  45.5656011 108.2865561  11.5456028
  44.4799992 103.7559978  12.5340014  45.0449992 103.8779978  11.7720014
  44.7989992 104.3939978  13.1730014  44.6004166 103.8588791  12.5160348
  50.7889992 109.2599978  13.2680014  50.5489992 109.9219978  13.9160014
  50.5909992 108.4249978  13.6930014  50.7293826 109.2378115  13.4141566
  45.3599992 108.1559978  17.2520014  45.0489992 108.9379978  17.7070014
  44.7099992 108.0029978  16.5660014  45.2295538 108.2424087  17.2215898
  51.3389992 103.5199978   4.7040014  51.9179992 103.6699978   5.4500014
  51.7529992 103.9899978   3.9800014  51.4743358 103.6040955   4.7083953
  42.2799992 104.3539978  16.4800014  42.3499992 105.0049978  17.1790014
  41.3889992 104.4569978  16.1450014  42.1691690 104.4569249  16.5303043
  49.0649992 110.2559978   8.1390014  49.5389992 110.5519978   8.9160014
  48.5019992 110.9949978   7.9060014  49.0537890 110.3963036   8.2138101
  43.5989992 110.2269978  18.0150014  43.6069992 110.0909978  17.0680014
  42.6829992 110.1099978  18.2670014  43.4762528 110.1925463  17.9193243
  55.0379992  95.2699978   4.5170014  54.1379992  95.4089978   4.8120014
  55.2899992  96.1009978   4.1150014  54.9488683  95.4014055   4.5030232
  43.1039992 104.0569978   6.4900014  42.8119992 104.8249978   5.9990014
  42.4289992 103.3979978   6.3270014  42.9728497 104.0729745   6.4008260
  56.2269992 109.6359978   2.8930014  56.2999992 110.5749978   3.0630014
  57.1319992 109.3309978   2.8370014  56.3594170 109.7233282   2.9087063
  39.1969992 106.4199978  15.3050014  38.6949992 106.3919978  14.4900014
  39.2019992 105.5149978  15.6150014  39.1289832 106.2937486  15.2354121
  38.9469992 109.2009978  12.1890014  39.8929992 109.0559978  12.1700014
  38.8339992 109.9849978  12.7260014  39.0613578 109.2871697  12.2590317
  57.1449992 109.8669978  17.8720014  57.0949992 108.9109978  17.8340014
  56.3179992 110.1339978  18.2730014  57.0263831 109.7724680  17.9210121
  48.1229992 109.4409978  16.7480014  48.2109992 110.2669978  17.2230014
  47.2599992 109.1109978  16.9970014  48.0183357 109.5095468  16.8467653
  48.5379992 113.2129978   6.5540014  48.4619992 113.0919978   5.6070014
  48.5699992 114.1619978   6.6720014  48.5319380 113.3247677   6.4405181
  42.1909992 112.0019978   8.3350014  42.3429992 111.6539978   9.2130014
  41.3399992 111.6449978   8.0790014  42.0968344 111.9060879   8.4206868
  51.6389992 112.3669978   3.5560014  52.0139992 111.6229978   3.0850014
  51.6439992 112.0969978   4.4740014  51.6910098 112.2286392   3.6156629
  51.3079992 112.2929978   6.3050014  50.3729992 112.3929978   6.4840014
  51.5879992 111.5829978   6.8840014  51.2179471 112.2107933   6.4076695
  54.2969992 101.3599978  18.3520014  53.8889992 101.8399978  17.6310014
  54.3369992 100.4539978  18.0440014  54.2466221 101.3032449  18.2118267
  41.4459992 107.7439978  16.3480014  41.6619992 107.3819978  17.2080014
  40.5899992 107.3689978  16.1390014  41.3598810 107.6438837  16.4372680
  44.0639992  96.2139978  12.3440014  43.2029992  96.1269978  11.9360014
  44.0419992  97.0699978  12.7720014  43.9430491  96.3178003  12.3459582
  48.7269992  95.9359978  15.7190014  49.1469992  95.5209978  16.4720014
  47.7939992  95.7569978  15.8360014  48.6583736  95.8549910  15.8378968
  52.0539992  99.6909978  16.5720014  51.5399992  99.5659978  17.3700014
  51.8979992 100.6039978  16.3280014  51.9626967  99.7972123  16.6480937
  52.8159992 104.5519978   2.3330014  52.8579992 104.3299978   1.4030014
  53.6649992 104.9509978   2.5230014  52.9365253 104.5755498   2.2313822
  48.3889992  98.4279978   3.0040014  48.1349992  98.4469978   3.9260014
  48.1319992  97.5569978   2.7020014  48.3194508  98.3128280   3.0894803
  44.1549992 101.1789978  13.4390014  43.5139992 101.1389978  14.1480014
  44.1929992 102.1059978  13.2010014  44.0723010 101.2987668  13.5039946
  44.1519992 101.3999978   8.3510014  43.2599992 101.0599978   8.2920014
  44.6029992 101.0229978   7.5950014  44.0907642 101.3024910   8.2407726
  49.6879992 101.8159978   7.1680014  49.2789992 102.6309978   6.8760014
  50.4079992 101.6759978   6.5540014  49.7294439 101.9085372   7.0450115
  48.7899992 101.9919978  18.6560014  48.2269992 101.2869978  18.9770014
  49.6159992 101.8709978  19.1240014  48.8246674 101.8792165  18.7631751
  50.6929992 101.2619978   9.9820014  50.4969992 101.8679978   9.2670014
  50.8739992 100.4289978   9.5480014  50.6906584 101.2322513   9.8254212
  41.9049992 101.4999978  15.3060014  41.8669992 101.8999978  16.1750014
  41.4149992 100.6829978  15.3960014  41.8335330 101.4442674  15.4371289
  45.2709992  98.8739978   2.1050014  44.8399992  98.4289978   2.8340014
  44.5529992  99.2449978   1.5920014  45.1149176  98.8632051   2.1354930
  38.5139992  98.6159978   9.1570014  39.1439992  98.5869978   9.8760014
  38.9629992  98.1909978   8.4260014  38.6610835  98.5545660   9.1567659
  39.7879992  99.3619978   4.5810014  40.2619992  99.9529978   3.9960014
  39.0699992  99.8919978   4.9280014  39.7558640  99.5145511   4.5477969
  49.9569992 102.8999978  14.6530014  50.2799992 102.2689978  14.0100014
  49.5159992 102.3659978  15.3140014  49.9416379 102.7413468  14.6542582
  46.7339992  98.8279978   9.4370014  45.8229992  98.8849978   9.7260014
  47.2389992  98.7679978  10.2480014  46.6776873  98.8276826   9.5861207
  41.5619992 100.4569978   8.2640014  40.6729992 100.5559978   7.9240014
  41.8589992  99.6149978   7.9180014  41.4804177 100.3567687   8.1706940
  45.2149992 100.4569978   5.9210014  46.1469992 100.5859978   6.0990014
  44.9999992 101.1259978   5.2710014  45.3134472 100.5650806   5.8574891
  51.1389992  98.0629978  12.7020014  50.4619992  98.1939978  13.3650014
  50.6539992  97.9079978  11.8910014  50.9807405  98.0599947  12.6832170
  43.8889992 101.6509978   3.4870014  43.3469992 101.2719978   2.7960014
  44.7229992 101.8459978   3.0590014  43.9274390 101.6254079   3.3344392
  54.4269992 113.7339978  18.9780014  54.6259992 114.1579978  18.1440014
  55.0819992 114.0779978  19.5850014  54.5428522 113.8386301  18.9457852
  42.0249992 106.2079978  18.5860014  42.7569992 106.4629978  19.1480014
  41.2439992 106.4129978  19.1020014  42.0196526 106.2705450  18.7325176
  48.0539992 101.6149978  11.3240014  48.6179992 101.0689978  10.7770014
  47.9059992 101.0939978  12.1130014  48.1113037 101.4696787  11.3557229
  43.0559992  97.7519978   7.7430014  42.7389992  96.8489978   7.7070014
  43.8369992  97.7539978   7.1900014  43.1182431  97.6287797   7.6633102
  46.6799992 100.0039978  13.7380014  45.8449992 100.4579978  13.8490014
  47.2039992 100.2799978  14.4900014  46.6366072 100.1033948  13.8548136
  47.2249992 106.2169978   5.4230014  46.4799992 105.7089978   5.1010014
  47.0899992 106.2659978   6.3690014  47.1048963 106.1541731   5.5068826
  54.3749992 105.3499978  14.2100014  55.0159992 105.8059978  13.6660014
  53.5439992 105.4629978  13.7470014  54.3505287 105.4276921  14.0729887
  51.1219992  99.0309978   3.6220014  50.1839992  99.1419978   3.4710014
  51.4199992  99.8869978   3.9290014  51.0336318  99.1620158   3.6428145
  48.7439992 106.4009978  16.6600014  48.3979992 106.0189978  17.4670014
  48.5439992 107.3339978  16.7310014  48.6695987 106.4749002  16.7800461
  51.8409992 100.8979978   5.2830014  52.7329992 100.7599978   5.6020014
  51.8969992 101.6889978   4.7460014  51.9707325 100.9859918   5.2541217
  42.3489992 105.5119978  11.1930014  43.0939992 105.5089978  10.5910014
  42.4269992 104.6879978  11.6740014  42.4613366 105.4002384  11.1757430
  49.3499992 107.6749978   4.4480014  49.0549992 108.5019978   4.8300014
  48.6469992 107.0559978   4.6450014  49.2146379 107.7044171   4.5268654
  39.3569992 103.9719978  16.5080014  39.5799992 103.5539978  17.3390014
  38.7549992 103.3599978  16.0850014  39.3061513 103.8319606  16.5646740
  46.3739992 103.4889978  18.7210014  46.0779992 103.3239978  17.8250014
  47.3049992 103.2689978  18.7100014  46.4594401 103.4366879  18.5970206
  50.9939992 108.8629978  16.6100014  50.0939992 109.0459978  16.3430014
  51.0279992 109.1219978  17.5310014  50.8753748 108.9230554  16.6979164
  56.7259992 101.1069978   4.9780014  56.1709992 100.7109978   4.3050014
  56.8259992 102.0179978   4.7000014  56.6636816 101.1759505   4.8485033
  56.6889992 106.9079978  17.8150014  55.8379992 107.1459978  17.4470014
  57.2789992 106.8909978  17.0620014  56.6523812 106.9382524  17.6628453
  55.0209992 109.8929978   5.4430014  54.6479992 109.0679978   5.7520014
  55.2979992 109.7099978   4.5450014  55.0073463 109.7552569   5.3639525
  52.1809992 104.7009978  12.4640014  51.2529992 104.4699978  12.4370014
  52.6319992 103.9239978  12.1340014  52.1148165 104.5642774  12.4156790
  44.7239992 109.0299978   8.5970014  45.2519992 109.8029978   8.3970014
  43.8439992 109.2539978   8.2950014  44.6773435 109.1662700   8.5287310
  40.4789992 103.8919978   3.1840014  41.0949992 104.5189978   3.5640014
  39.6169992 104.2079978   3.4560014  40.4467678 104.0204412   3.2727209
  46.1519992 106.6929978   8.1730014  45.9109992 107.6179978   8.2150014
  45.4109992 106.2339978   8.5700014  46.0189206 106.7575915   8.2323769
  46.6659992 110.8419978  14.4880014  47.0289992 111.6959978  14.2550014
  47.1979992 110.5499978  15.2290014  46.7875141 110.9193895  14.5562097
  44.8349992 111.7139978   7.7190014  43.8849992 111.8199978   7.7700014
  45.1869992 112.5349978   8.0630014  44.7525472 111.8394923   7.7724852
  50.2099992 106.9409978  14.1890014  49.7849992 106.7129978  15.0150014
  50.7909992 106.2019978  14.0070014  50.2303395 106.8099545  14.2774414
  52.4129992 107.8699978   3.2630014  52.7669992 107.4899978   4.0670014
  51.4649992 107.7759978   3.3500014  52.3332298 107.8052452   3.3848687
  52.8689992 111.4929978  16.6580014  52.2669992 110.9369978  16.1630014
  53.1499992 112.1599978  16.0320014  52.8245757 111.5070744  16.5055675
  56.9169992 112.3489978   3.4640014  57.6609992 112.9349978   3.3240014
  56.2229992 112.9179978   3.7970014  56.9249809 112.5060818   3.4898590
  40.9909992  98.7259978  16.0660014  40.0989992  99.0639978  15.9980014
  40.8929992  97.8699978  16.4840014  40.8554475  98.6566543  16.1131704
  53.2789992 106.5419978   5.4900014  53.0019992 105.8139978   6.0460014
  54.2069992 106.6609978   5.6950014  53.3664499 106.4584213   5.5938044
  40.6429992 110.5299978  14.5010014  40.8599992 109.5979978  14.4700014
  40.8889992 110.8049978  15.3840014  40.7059809 110.4395686  14.6161691
  46.5039992 108.9819978   1.7100014  46.7429992 108.2329978   1.1630014
  46.2349992 108.5939978   2.5430014  46.5003233 108.8271853   1.7477809
  45.4409992 108.5519978   4.1660014  45.5879992 108.0319978   4.9560014
  45.4379992 109.4589978   4.4730014  45.4607102 108.6033953   4.3155925
  41.8939992 105.8039978   4.6770014  41.2079992 106.1569978   5.2440014
  42.4169992 106.5669978   4.4300014  41.8708402 105.9553901   4.7211801
  49.7259992  98.4669978  14.9560014  50.4249992  98.5409978  15.6060014
  49.3449992  97.6019978  15.1100014  49.7702097  98.3602389  15.0657997
  50.5099992  98.1189978   6.0530014  50.7299992  98.5899978   5.2490014
  51.0689992  98.5129978   6.7230014  50.6156731  98.2367287   6.0335033
  48.1789992 110.2489978   4.9160014  47.3619992 110.7459978   4.9680014
  48.7079992 110.7249978   4.2750014  48.1388125 110.3811989   4.8365306
  47.7099992  99.8469978   6.8880014  48.5219992 100.3509978   6.9340014
  47.4659992  99.7019978   7.8020014  47.7881467  99.8963749   7.0178575
  48.2459992 100.8329978  16.0720014  48.3649992 101.4069978  16.8290014
  48.9009992 100.1449978  16.1870014  48.3508684 100.8185194  16.1911674
  48.5939992  96.9279978   7.8260014  48.2469992  97.5449978   8.4700014
  49.2529992  97.4289978   7.3440014  48.6355090  97.0801575   7.8490681
  45.5169992 111.2929978   4.8970014  45.6779992 112.0929978   4.3970014
  45.3199992 111.5999978   5.7820014  45.5123906 111.4438678   4.9482333
  44.2519992  97.9909978   4.5130014  44.1679992  98.8789978   4.8600014
  45.1419992  97.7259978   4.7450014  44.3608163  98.0767179   4.5918596
  54.4499992  98.7399978  16.9070014  53.5339992  99.0019978  16.8200014
  54.7859992  98.7369978  16.0110014  54.3698499  98.7755163  16.7738766
  53.0529992 102.4899978  11.0030014  52.2549992 102.0749978  10.6750014
  53.4979992 101.7999978  11.4940014  53.0039684 102.3398628  11.0245227
  42.5099992 108.4179978   3.5730014  43.1019992 109.1179978   3.8500014
  42.9689992 107.9849978   2.8540014  42.6531652 108.4552675   3.5136533
  40.8259992 101.0829978   2.6890014  40.7809992 102.0219978   2.8680014
  39.9379992 100.8469978   2.4200014  40.6998166 101.1796687   2.6771524
  54.1389992 111.7459978  12.6250014  53.9829992 112.4249978  11.9680014
  55.0719992 111.8179978  12.8280014  54.2437387 111.8486390  12.5625342
  41.6339992  95.8639978  11.3630014  41.4049992  95.9229978  10.4350014
  41.1919992  95.0729978  11.6690014  41.5428801  95.7650540  11.2774729
  40.5649992 109.8049978   7.5230014  39.7319992 110.2769978   7.5500014
  41.1099992 110.3149978   6.9240014  40.5247857 109.9384791   7.4457142
  39.8529992 112.4169978  18.8530014  40.3929992 112.2009978  19.6130014
  39.3719992 111.6119978  18.6630014  39.8619219 112.2785156  18.9314282
  44.4499992 111.3369978  20.4730014  45.2179992 110.8779978  20.8140014
  44.4289992 111.1109978  19.5430014  44.5522135 111.2436668  20.3939491
  48.5419992 110.8449978   1.8490014  47.8979992 110.2139978   2.1700014
  49.3039992 110.3139978   1.6170014  48.5568058 110.6867902   1.8616038
  51.0269992 109.7169978  19.2020014  50.6759992 108.8599978  19.4460014
  51.7529992 109.8589978  19.8090014  51.0771895 109.6191351  19.3173770
  53.1469992 110.6619978   2.0820014  53.4299992 109.8669978   2.5350014
  53.8859992 110.8949978   1.5210014  53.2857096 110.5847049   2.0681104
  39.7599992 106.2279978  19.8070014  39.9039992 105.3259978  19.5210014
  38.9879992 106.5139978  19.3200014  39.6752733 106.1431798  19.7019532
  44.1009992 106.5709978   1.9400014  44.1659992 105.7769978   2.4700014
  44.7539992 106.4529978   1.2500014  44.1981605 106.4463430   1.9192997
  46.4149992 106.1969978  19.2400014  46.0869992 106.4679978  18.3830014
  46.5669992 105.2559978  19.1520014  46.3906412 106.1069046  19.1107822
  49.4539992 107.6179978   1.6760014  49.1849992 107.7989978   2.5760014
  49.2469992 106.6929978   1.5440014  49.3891191 107.5177119   1.7815524
  52.1499992 106.1129978  16.6230014  52.8949992 106.7019978  16.5040014
  51.3929992 106.6949978  16.6870014  52.1495470 106.2722128  16.6153799
  40.5929992 103.4279978  19.2270014  41.0009992 102.5709978  19.1060014
  40.3319992 103.4419978  20.1480014  40.6136016 103.3125119  19.3349192
  45.2509992 104.5439978   4.2460014  44.7909992 104.0599978   4.9310014
  45.5059992 103.8749978   3.6100014  45.2224856 104.3873669   4.2538397
  44.5399992 102.4369978  16.6020014  43.9209992 103.1109978  16.8820014
  44.8839992 102.7579978  15.7680014  44.5017123 102.5726887  16.5276388
  46.3219992 102.7869978   2.5080014  46.1409992 102.6319978   1.5810014
  47.2719992 102.8949978   2.5530014  46.4256566 102.7803669   2.3870929
  49.5589992 104.9079978  19.8790014  50.5129992 104.9919978  19.8520014
  49.3989992 104.1959978  20.4990014  49.6677182 104.8232842  19.9590733
  55.7119992 105.1409978   1.9540014  55.4379992 104.7169978   1.1410014
  55.7509992 106.0729978   1.7370014  55.6797716 105.2088827   1.8134286
  44.8789992  99.7919978  17.6840014  45.0289992  99.0629978  17.0820014
  44.8809992 100.5689978  17.1250014  44.8997967  99.7972708  17.5260541
  45.2919992  98.1609978  15.1770014  45.8269992  98.6129978  14.5250014
  44.4389992  98.0529978  14.7540014  45.2500374  98.2082665  15.0306710
  46.8729992 103.6009978  15.4160014  47.6239992 103.4449978  14.8430014
  46.5339992 104.4529978  15.1410014  46.9299587 103.6948138  15.3004078
  51.2889992 101.4159978  20.4450014  51.4809992 100.4849978  20.3330014
  52.1469992 101.8409978  20.4340014  51.4312182 101.3460070  20.4281862
  52.6059992 104.2049978  18.5220014  52.3239992 104.9139978  17.9440014
  53.5479992 104.1319978  18.3710014  52.6947921 104.2922193  18.4224225
  43.3579992 100.9899978  19.5950014  42.5899992 100.4569978  19.3850014
  44.0359992 100.6799978  18.9960014  43.3447235 100.8751754  19.4852413
  46.0969992  95.6179978  15.6080014  45.9989992  96.5639978  15.5030014
  45.3549992  95.2449978  15.1320014  45.9832534  95.6971773  15.5292600
  47.3609992  99.9389978  19.1720014  47.1259992  99.7199978  20.0730014
  46.5779992  99.7319978  18.6620014  47.2229095  99.8809892  19.2265353
  50.0769992  99.0669978  18.2470014  49.1289992  99.0989978  18.3790014
  50.3889992  98.4409978  18.9010014  49.9895293  98.9867923  18.3534148
  51.7109992  97.7009978  20.2520014  51.6139992  96.7489978  20.2470014
  51.3889992  97.9689978  21.1130014  51.6542468  97.6070884  20.3676210
  41.5379992  98.9099978  19.3000014  41.7499992  98.2039978  18.6900014
  41.4269992  98.4729978  20.1440014  41.5520269  98.7541921  19.3305873
  46.3189992  94.9119978  18.2790014  47.0309992  94.2719978  18.2650014
  46.2179992  95.1779978  17.3660014  46.4027387  94.8604330  18.1535563
  46.6729992  96.5939978  20.3330014  46.5409992  96.1189978  19.5130014
  46.0729992  97.3389978  20.2780014  46.5739070  96.6295789  20.2133251
  46.2189992 113.4769978   3.5090014  47.1519992 113.6349978   3.6530014
  45.9549992 114.1529978   2.8840014  46.3109911 113.5899373   3.4442722
  39.7869992 108.1139978   2.9920014  40.7009992 108.1929978   3.2650014
  39.7949992 107.4269978   2.3260014  39.9130655 108.0319205   2.9392917
  38.4359992 113.5069978   8.0690014  37.7889992 113.0449978   7.5370014
  38.7909992 112.8349978   8.6520014  38.3953741 113.3529774   8.0749175
  39.3059992 111.5869978   9.8740014  38.9719992 110.7069978  10.0460014
  39.5289992 111.9329978  10.7390014  39.2903721 111.5131938  10.0144168
  56.8549992 112.3969978  12.8550014  56.8329992 112.5819978  13.7940014
  57.5449992 112.9649978  12.5140014  56.9453439 112.4991887  12.9374791
  56.4179992 111.9639978  15.7760014  55.9309992 111.2289978  15.4050014
  56.9669992 111.5699978  16.4540014  56.4255247 111.8101057  15.8168461
  54.8689992 107.7539978  20.4150014  54.0029992 107.6489978  20.8090014
  55.2449992 108.5119978  20.8610014  54.8013401 107.8421708  20.5292620
  56.1699992 106.0099978   5.9290014  57.0199992 106.4309978   6.0560014
  56.1749992 105.2699978   6.5360014  56.2871143 105.9676094   6.0284750
  56.5639992 104.0639978   7.7520014  55.8379992 103.5839978   8.1500014
  57.1459992 104.2689978   8.4850014  56.5432730 104.0260184   7.9054149
  56.3229992 106.8489978  12.7000014  57.1569992 106.4709978  12.4190014
  56.4349992 107.7919978  12.5810014  56.4521917 106.9247943  12.6454861
  54.8099992 109.7269978  15.0070014  54.1619992 110.0519978  15.6320014
  54.2919992 109.2859978  14.3330014  54.6514196 109.7118651  15.0014152
  56.8329992 103.9649978   4.1430014  56.3109992 104.3209978   3.4250014
  56.7999992 104.6399978   4.8220014  56.7570129 104.1049598   4.1363355
  55.1819992 101.2039978   2.6940014  55.2779992 101.8709978   2.0140014
  55.0419992 100.3889978   2.2130014  55.1762040 101.1850671   2.5358378
  54.3509992 102.5849978   8.3150014  54.2009992 101.6399978   8.2950014
  53.9969992 102.8659978   9.1590014  54.2826351 102.4936644   8.4263220
  39.3859992 104.6629978  12.3260014  39.5709992 104.5809978  11.3900014
  40.2359992 104.5389978  12.7490014  39.5260928 104.6350463  12.2552893
  55.2069992 104.5549978  17.9540014  55.7899992 103.8199978  18.1460014
  55.7709992 105.3269978  18.0010014  55.3629781 104.5588145  17.9866164
  56.7039992 102.4579978  18.6390014  55.8409992 102.0789978  18.4730014
  57.3079992 101.7189978  18.5640014  56.6676085 102.3063223  18.6061695
  54.4289992  98.6119978   1.8120014  55.0399992  98.2409978   2.4490014
  53.5919992  98.1909978   2.0080014  54.3994947  98.5042756   1.9257252
  54.0619992 100.1669978   6.7780014  54.3409992  99.2599978   6.9020014
  54.8209992 100.6009978   6.3890014  54.2028619 100.1014502   6.7423795
  54.6729992 100.7489978  12.2140014  55.6059992 100.9609978  12.1790014
  54.4379992 100.8499978  13.1360014  54.7689517 100.7916833  12.3339130
  54.7029992 101.4859978  14.9900014  53.8599992 101.7539978  15.3560014
  55.1449992 102.3079978  14.7790014  54.6474138 101.6338273  15.0115518
  38.9839992  99.9329978  18.4660014  39.9029992  99.8109978  18.7030014
  38.5339992  99.1829978  18.8560014  39.0490087  99.8149608  18.5511410
  56.9859992  95.4659978  20.3430014  57.3349992  94.8119978  19.7380014
  57.1329992  96.3029978  19.9030014  57.0536824  95.4896024  20.2006304
  54.6749992  97.4299978   6.8260014  54.8569992  96.9809978   7.6510014
  54.0749992  96.8459978   6.3620014  54.6188187  97.2895552   6.8762739
  40.2049992  98.2459978  11.3580014  40.6499992  97.4539978  11.6600014
  40.6709992  98.9619978  11.7880014  40.3289718  98.2344534  11.4575265
  38.5089992 101.2449978  12.4270014  39.0009992 101.0239978  11.6360014
  38.8709992 102.0849978  12.7080014  38.6252923 101.3283468  12.3567407
  56.5049992  97.5749978  18.6920014  55.5879992  97.8459978  18.6570014
  56.6279992  97.0399978  17.9080014  56.3959672  97.5397885  18.5811862
  56.5419992  97.4979978   3.3540014  56.9539992  96.7769978   2.8790014
  57.2229992  98.1669978   3.4120014  56.6905536  97.4897766   3.2968024
  38.8229992  97.5029978   6.4810014  37.8979992  97.7109978   6.3520014
  39.2769992  97.9869978   5.7910014  38.7576298  97.5969299   6.3700451
  53.5929992 112.4869978   8.4270014  54.2459992 112.1389978   7.8190014
  54.1039992 112.9749978   9.0730014  53.7512777 112.5053815   8.4312047
  38.7859992  96.2409978  14.8250014  38.1209992  95.9949978  15.4680014
  38.3429992  96.8629978  14.2480014  38.6351168  96.2914214  14.8349848
  40.9779992 109.4159978  18.9700014  40.1569992 109.5909978  18.5090014
  40.7259992 109.3429978  19.8900014  40.8315594 109.4300717  19.0313611
  43.9319992 110.3899978  15.2280014  43.5079992 111.1999978  14.9460014
  44.8369992 110.4759978  14.9260014  43.9962138 110.5124160  15.1486415
  48.2439992 111.7889978  18.1880014  48.4279992 111.4559978  19.0660014
  49.0899992 112.0989978  17.8660014  48.3836484 111.7852979  18.2647617
  50.5889992 113.0749978  17.4320014  51.2659992 112.4419978  17.1920014
  50.9099992 113.4759978  18.2390014  50.7251323 113.0425691  17.5083158
  55.5059992  95.6649978  16.5110014  54.6929992  95.9899978  16.1240014
  55.7389992  94.9039978  15.9780014  55.4261347  95.6066880  16.3859841
  41.3339992 113.6469978  15.2760014  40.6139992 114.0869978  14.8250014
  40.9689992 113.3959978  16.1240014  41.1859643 113.6733369  15.3289129
  43.8009992 113.2469978  14.3060014  42.9369992 113.3189978  14.7100014
  43.7459992 113.7939978  13.5220014  43.6751942 113.3307849  14.2554000
  48.5119992 113.1349978  13.4810014  48.0549992 113.6639978  12.8270014
  48.6749992 113.7379978  14.2060014  48.4714960 113.2889280  13.4895274
  50.8399992 112.0129978  14.4260014  49.9349992 112.1779978  14.1600014
  51.2679992 112.8659978  14.3600014  50.7741537 112.1509134  14.3807095
  53.4439992 113.5829978  14.7210014  53.2619992 114.4989978  14.5100014
  53.6209992 113.1719978  13.8740014  53.4430030 113.6528273  14.5777166
  40.7489992 112.2699978  12.1860014  40.7309992 111.8439978  13.0430014
  41.5539992 111.9509978  11.7770014  40.8552875 112.1686435  12.2479515
  42.8899992 110.9799978  10.8410014  42.6709992 110.0629978  11.0110014
  43.7139992 111.1199978  11.3070014  42.9714702 110.8735511  10.9272527
  45.4269992 111.4499978  11.6900014  45.6399992 110.5619978  11.4030014
  45.4919992 111.4149978  12.6440014  45.4649149 111.3238326  11.7797369
  48.9359992  97.1139978  10.8340014  48.2619992  96.4839978  11.0900014
  49.4999992  96.6299978  10.2310014  48.9200384  96.9623708  10.7875020
  54.0789992  95.2209978  10.9470014  54.6819992  95.7689978  10.4450014
  53.2089992  95.5399978  10.7060014  54.0439157  95.3390373  10.8457910
  55.8059992  96.3599978   9.2800014  56.4169992  95.8459978   8.7530014
  56.1879992  97.2369978   9.3030014  55.9413305  96.4082050   9.2109418
  41.2629992  95.7479978   8.6560014  40.4859992  95.5129978   8.1490014
  41.7929992  94.9509978   8.6650014  41.2283451  95.6081268   8.5878627
  40.0989992  95.5459978   4.4600014  40.5379992  96.1569978   3.8680014
  39.4649992  96.0839978   4.9340014  40.0733859  95.7024064   4.4430305
  45.8419992  95.6739978   8.4690014  46.7159992  96.0629978   8.4400014
  45.7059992  95.4589978   9.3920014  45.9431953  95.6981643   8.5897617
  51.3989992  95.7039978  10.1190014  51.4749992  95.7999978   9.1690014
  51.1239992  94.7969978  10.2470014  51.3721871  95.5944146  10.0063944
  52.7519992  95.7299978   5.8110014  52.0489992  96.3449978   5.6010014
  52.3069992  94.8929978   5.9420014  52.5956550  95.7009668   5.7999837
  39.9999992 111.4939978   5.3570014  39.3149992 111.4559978   4.6900014
  40.0039992 112.4069978   5.6450014  39.9067621 111.6121924   5.3046126
  41.9599992  97.4619978   2.9020014  42.4509992  96.8319978   2.3750014
  42.5829992  97.7579978   3.5650014  42.1115304  97.4157376   2.9194940
  46.9859992  97.7549978   5.3590014  47.1639992  97.1079978   6.0420014
  46.9319992  98.5889978   5.8260014  47.0030678  97.7791604   5.5156301
  48.8639992 112.7029978   3.7550014  49.7299992 113.0699978   3.5770014
  48.6179992 112.2639978   2.9410014  48.9492097 112.6938525   3.6206019
  55.5729992 112.2659978   6.4340014  55.3789992 111.5179978   5.8690014
  55.5339992 113.0239978   5.8510014  55.5411645 112.2660786   6.2778148
  41.2199992  96.2619978  18.1740014  40.8539992  95.4959978  18.6160014
  42.1329992  96.2909978  18.4600014  41.2933172  96.1610324  18.2731890
  43.1929992  95.6119978  19.7090014  44.0919992  95.3379978  19.5250014
  42.8069992  94.8699978  20.1740014  43.2637307  95.4742196  19.7467098
  41.8179992 112.4139978   2.3820014  41.5499992 112.6999978   3.2560014
  42.5889992 111.8679978   2.5350014  41.8855926 112.3792779   2.5221205
  51.6149992  94.9449978  19.8920014  51.6909992  94.5189978  20.7450014
  52.5079992  94.9579978  19.5490014  51.7462303  94.8883493  19.9625497
  54.7909992 111.0179978  18.5840014  54.0089992 110.8309978  18.0640014
  54.7189992 111.9469978  18.8010014  54.6741924 111.1180637  18.5421602
  69.1969992 104.9039978   8.6150014  69.2859992 105.8479978   8.4830014
  68.5589992 104.6289978   7.9570014  69.1229062 104.9959812   8.5079641
  68.1299992 104.1589978  12.0340014  68.0919992 103.5129978  12.7390014
  67.8079992 103.6919978  11.2630014  68.0812679 104.0074276  12.0262921
  60.4979992 103.7729978  13.6270014  60.5399992 103.1479978  14.3500014
  61.2009992 104.3969978  13.8090014  60.5987345 103.7717873  13.7505274
  71.8359992 107.0979978  10.3350014  71.3949992 106.3779978  10.7860014
  71.8229992 107.8189978  10.9650014  71.7739215 107.0969291  10.4818105
  61.4219992 108.2229978  12.1620014  61.0519992 107.4209978  11.7920014
  62.3629992 108.0549978  12.2080014  61.4985984 108.0904638  12.1175603
  58.0319992 101.8829978   7.5540014  57.5839992 102.7289978   7.5360014
  57.4709992 101.3039978   7.0390014  57.8948546 101.9203993   7.4818891
  58.7419992 104.0449978   9.6800014  58.9559992 103.2749978  10.2080014
  59.4799992 104.1349978   9.0770014  58.8710200 103.9518587   9.6707035
  68.9479992 112.2019978  10.5470014  69.5669992 111.5259978  10.2740014
  68.7389992 111.9839978  11.4560014  69.0046056 112.0798869  10.6323967
  66.5189992 106.5909978  12.4400014  66.8229992 105.9049978  11.8450014
  67.2409992 106.7099978  13.0580014  66.6581240 106.5132314  12.4420959
  75.1819992  98.1929978  13.3000014  75.2319992  98.8029978  14.0360014
  75.6079992  98.6539978  12.5770014  75.2464108  98.3387709  13.3030112
  69.6599992 100.9849978  12.7670014  69.8029992 100.0389978  12.7870014
  69.5539992 101.1919978  11.8390014  69.6652403 100.8834797  12.6442239
  62.8149992  99.0869978  10.0400014  62.8579992  99.9469978   9.6210014
  62.3569992  98.5349978   9.4060014  62.7589871  99.1299245   9.8970761
  70.5369992  99.2179978   8.4410014  71.1839992  98.8889978   9.0650014
  71.0469992  99.7349978   7.8180014  70.6944351  99.2429067   8.4421037
  59.4349992 101.4839978  10.8020014  60.0889992 100.9339978  11.2340014
  59.4589992 101.2099978   9.8850014  59.5277199 101.3717167  10.7371668
  64.5919992 103.0339978  10.0170014  65.2079992 102.5069978  10.5260014
  64.0049992 102.3939978   9.6130014  64.5970154 102.8753954  10.0320945
  75.5739992  99.6709978  15.5360014  74.8849992 100.3289978  15.4410014
  75.5889992  99.4729978  16.4730014  75.4817756  99.7342603  15.6495812
  61.6249992  98.0049978  14.1140014  61.4059992  98.5349978  13.3470014
  60.9569992  98.2309978  14.7610014  61.5046975  98.1080967  14.0965140
  68.9939992 107.5049978   7.6580014  68.6989992 107.1819978   6.8060014
  68.6699992 108.4049978   7.6990014  68.9098460 107.5824464   7.5469714
  64.1939992 105.6799978  14.4010014  63.4539992 106.2789978  14.5050014
  64.9079992 106.2339978  14.0860014  64.1893500 105.8367829  14.3726371
  72.3009992  98.5089978  10.4210014  72.0859992  97.7429978  10.9540014
  72.9569992  98.9809978  10.9340014  72.3602673  98.4680728  10.5631990
  61.2189992  99.8969978  12.0660014  61.8329992 100.5299978  12.4390014
  61.7309992  99.4249978  11.4100014  61.3721962  99.9197249  12.0282935
  62.6019992 107.6449978  15.1880014  62.5959992 108.5239978  14.8100014
  61.7479992 107.5609978  15.6130014  62.4857925 107.7539535  15.1936887
  58.7229992 107.3159978   5.9700014  58.4509992 107.5449978   5.0820014
  58.7679992 108.1529978   6.4310014  58.6918097 107.4606163   5.9106683
  72.3479992 108.9369978  12.6830014  71.4059992 108.9959978  12.8450014
  72.6239992 109.8429978  12.5460014  72.2565865 109.0675288  12.6866192
  72.6479992  97.2239978  14.1000014  71.9119992  97.8339978  14.0630014
  73.3319992  97.6389978  13.5740014  72.6395367  97.3637551  14.0238174
  65.6519992  95.3099978  11.5660014  65.5339992  94.3619978  11.5120014
  64.7969992  95.6429978  11.8390014  65.5202805  95.2252202  11.5955079
  70.5999992 110.7179978   9.3080014  71.0249992 110.0109978   8.8230014
  70.9169992 111.5199978   8.8910014  70.7010266 110.7295190   9.1852479
  71.7599992 108.6189978   7.8170014  71.5019992 107.9289978   7.2050014
  71.8309992 108.1759978   8.6620014  71.7343050 108.4646814   7.8475621
  73.4459992 107.1859978  16.2940014  73.5849992 106.5939978  15.5550014
  73.6129992 108.0589978  15.9380014  73.4876193 107.2228896  16.1446211
  67.9179992 104.1479978   6.0670014  67.2069992 104.6829978   5.7150014
  68.6089992 104.2029978   5.4070014  67.9140751 104.2286777   5.9295858
  67.9719992 102.6049978   3.1050014  68.6729992 102.6279978   3.7570014
  68.2739992 101.9769978   2.4490014  68.1088202 102.5232212   3.1055609
  75.2869992 103.5259978  14.3600014  74.6349992 104.2199978  14.4490014
  75.7529992 103.7359978  13.5500014  75.2605937 103.6495019  14.2627533
  71.3239992 104.3569978   7.0180014  70.5919992 104.5859978   7.5920014
  71.7709992 103.6439978   7.4730014  71.2843963 104.2918729   7.1579945
  71.2209992 102.5319978  16.0860014  71.3009992 103.2949978  16.6580014
  70.6199992 102.8109978  15.3960014  71.1506547 102.6742457  16.0710047
  62.9689992 104.9879978   8.9010014  62.6389992 104.6169978   8.0830014
  63.5579992 104.3169978   9.2480014  63.0033970 104.8466063   8.8359404
  64.3359992 108.4159978  11.5820014  64.2409992 107.8369978  10.8260014
  65.0649992 108.0449978  12.0780014  64.4216011 108.2865561  11.5456028
  63.3359992 103.7559978  12.5340014  63.9009992 103.8779978  11.7720014
  63.6549992 104.3939978  13.1730014  63.4564166 103.8588791  12.5160348
  69.6449992 109.2599978  13.2680014  69.4049992 109.9219978  13.9160014
  69.4469992 108.4249978  13.6930014  69.5853826 109.2378115  13.4141566
  64.2159992 108.1559978  17.2520014  63.9049992 108.9379978  17.7070014
  63.5659992 108.0029978  16.5660014  64.0855538 108.2424087  17.2215898
  70.1949992 103.5199978   4.7040014  70.7739992 103.6699978   5.4500014
  70.6089992 103.9899978   3.9800014  70.3303358 103.6040954   4.7083953
  61.1359992 104.3539978  16.4800014  61.2059992 105.0049978  17.1790014
  60.2449992 104.4569978  16.1450014  61.0251690 104.4569249  16.5303043
  67.9209992 110.2559978   8.1390014  68.3949992 110.5519978   8.9160014
  67.3579992 110.9949978   7.9060014  67.9097890 110.3963036   8.2138101
  62.4549992 110.2269978  18.0150014  62.4629992 110.0909978  17.0680014
  61.5389992 110.1099978  18.2670014  62.3322528 110.1925463  17.9193243
  73.8939992  95.2699978   4.5170014  72.9939992  95.4089978   4.8120014
  74.1459992  96.1009978   4.1150014  73.8048683  95.4014055   4.5030232
  61.9599992 104.0569978   6.4900014  61.6679992 104.8249978   5.9990014
  61.2849992 103.3979978   6.3270014  61.8288497 104.0729745   6.4008260
  75.0829992 109.6359978   2.8930014  75.1559992 110.5749978   3.0630014
  75.9879992 109.3309978   2.8370014  75.2154170 109.7233282   2.9087063
  58.0529992 106.4199978  15.3050014  57.5509992 106.3919978  14.4900014
  58.0579992 105.5149978  15.6150014  57.9849832 106.2937486  15.2354121
  57.8029992 109.2009978  12.1890014  58.7489992 109.0559978  12.1700014
  57.6899992 109.9849978  12.7260014  57.9173578 109.2871697  12.2590317
  76.0009992 109.8669978  17.8720014  75.9509992 108.9109978  17.8340014
  75.1739992 110.1339978  18.2730014  75.8823831 109.7724680  17.9210121
  66.9789992 109.4409978  16.7480014  67.0669992 110.2669978  17.2230014
  66.1159992 109.1109978  16.9970014  66.8743357 109.5095468  16.8467653
  67.3939992 113.2129978   6.5540014  67.3179992 113.0919978   5.6070014
  67.4259992 114.1619978   6.6720014  67.3879380 113.3247677   6.4405181
  61.0469992 112.0019978   8.3350014  61.1989992 111.6539978   9.2130014
  60.1959992 111.6449978   8.0790014  60.9528344 111.9060879   8.4206868
  70.4949992 112.3669978   3.5560014  70.8699992 111.6229978   3.0850014
  70.4999992 112.0969978   4.4740014  70.5470098 112.2286392   3.6156629
  70.1639992 112.2929978   6.3050014  69.2289992 112.3929978   6.4840014
  70.4439992 111.5829978   6.8840014  70.0739471 112.2107933   6.4076695
  73.1529992 101.3599978  18.3520014  72.7449992 101.8399978  17.6310014
  73.1929992 100.4539978  18.0440014  73.1026221 101.3032449  18.2118267
  60.3019992 107.7439978  16.3480014  60.5179992 107.3819978  17.2080014
  59.4459992 107.3689978  16.1390014  60.2158810 107.6438837  16.4372680
  62.9199992  96.2139978  12.3440014  62.0589992  96.1269978  11.9360014
  62.8979992  97.0699978  12.7720014  62.7990491  96.3178003  12.3459582
  67.5829992  95.9359978  15.7190014  68.0029992  95.5209978  16.4720014
  66.6499992  95.7569978  15.8360014  67.5143736  95.8549910  15.8378968
  70.9099992  99.6909978  16.5720014  70.3959992  99.5659978  17.3700014
  70.7539992 100.6039978  16.3280014  70.8186967  99.7972123  16.6480937
  71.6719992 104.5519978   2.3330014  71.7139992 104.3299978   1.4030014
  72.5209992 104.9509978   2.5230014  71.7925253 104.5755498   2.2313822
  67.2449992  98.4279978   3.0040014  66.9909992  98.4469978   3.9260014
  66.9879992  97.5569978   2.7020014  67.1754508  98.3128280   3.0894803
  63.0109992 101.1789978  13.4390014  62.3699992 101.1389978  14.1480014
  63.0489992 102.1059978  13.2010014  62.9283010 101.2987668  13.5039946
  63.0079992 101.3999978   8.3510014  62.1159992 101.0599978   8.2920014
  63.4589992 101.0229978   7.5950014  62.9467642 101.3024910   8.2407726
  68.5439992 101.8159978   7.1680014  68.1349992 102.6309978   6.8760014
  69.2639992 101.6759978   6.5540014  68.5854439 101.9085372   7.0450115
  67.6459992 101.9919978  18.6560014  67.0829992 101.2869978  18.9770014
  68.4719992 101.8709978  19.1240014  67.6806674 101.8792165  18.7631751
  69.5489992 101.2619978   9.9820014  69.3529992 101.8679978   9.2670014
  69.7299992 100.4289978   9.5480014  69.5466584 101.2322513   9.8254212
  60.7609992 101.4999978  15.3060014  60.7229992 101.8999978  16.1750014
  60.2709992 100.6829978  15.3960014  60.6895330 101.4442674  15.4371289
  64.1269992  98.8739978   2.1050014  63.6959992  98.4289978   2.8340014
  63.4089992  99.2449978   1.5920014  63.9709176  98.8632051   2.1354930
  57.3699992  98.6159978   9.1570014  57.9999992  98.5869978   9.8760014
  57.8189992  98.1909978   8.4260014  57.5170835  98.5545660   9.1567659
  58.6439992  99.3619978   4.5810014  59.1179992  99.9529978   3.9960014
  57.9259992  99.8919978   4.9280014  58.6118640  99.5145511   4.5477969
  68.8129992 102.8999978  14.6530014  69.1359992 102.2689978  14.0100014
  68.3719992 102.3659978  15.3140014  68.7976379 102.7413468  14.6542582
  65.5899992  98.8279978   9.4370014  64.6789992  98.8849978   9.7260014
  66.0949992  98.7679978  10.2480014  65.5336873  98.8276826   9.5861207
  60.4179992 100.4569978   8.2640014  59.5289992 100.5559978   7.9240014
  60.7149992  99.6149978   7.9180014  60.3364177 100.3567687   8.1706940
  64.0709992 100.4569978   5.9210014  65.0029992 100.5859978   6.0990014
  63.8559992 101.1259978   5.2710014  64.1694472 100.5650806   5.8574891
  69.9949992  98.0629978  12.7020014  69.3179992  98.1939978  13.3650014
  69.5099992  97.9079978  11.8910014  69.8367405  98.0599947  12.6832170
  62.7449992 101.6509978   3.4870014  62.2029992 101.2719978   2.7960014
  63.5789992 101.8459978   3.0590014  62.7834390 101.6254079   3.3344392
  73.2829992 113.7339978  18.9780014  73.4819992 114.1579978  18.1440014
  73.9379992 114.0779978  19.5850014  73.3988522 113.8386301  18.9457852
  60.8809992 106.2079978  18.5860014  61.6129992 106.4629978  19.1480014
  60.0999992 106.4129978  19.1020014  60.8756526 106.2705450  18.7325176
  66.9099992 101.6149978  11.3240014  67.4739992 101.0689978  10.7770014
  66.7619992 101.0939978  12.1130014  66.9673037 101.4696787  11.3557229
  61.9119992  97.7519978   7.7430014  61.5949992  96.8489978   7.7070014
  62.6929992  97.7539978   7.1900014  61.9742431  97.6287797   7.6633102
  65.5359992 100.0039978  13.7380014  64.7009992 100.4579978  13.8490014
  66.0599992 100.2799978  14.4900014  65.4926072 100.1033948  13.8548136
  66.0809992 106.2169978   5.4230014  65.3359992 105.7089978   5.1010014
  65.9459992 106.2659978   6.3690014  65.9608963 106.1541731   5.5068826
  73.2309992 105.3499978  14.2100014  73.8719992 105.8059978  13.6660014
  72.3999992 105.4629978  13.7470014  73.2065287 105.4276921  14.0729887
  69.9779992  99.0309978   3.6220014  69.0399992  99.1419978   3.4710014
  70.2759992  99.8869978   3.9290014  69.8896318  99.1620158   3.6428145
  67.5999992 106.4009978  16.6600014  67.2539992 106.0189978  17.4670014
  67.3999992 107.3339978  16.7310014  67.5255987 106.4749002  16.7800461
  70.6969992 100.8979978   5.2830014  71.5889992 100.7599978   5.6020014
  70.7529992 101.6889978   4.7460014  70.8267325 100.9859918   5.2541217
  61.2049992 105.5119978  11.1930014  61.9499992 105.5089978  10.5910014
  61.2829992 104.6879978  11.6740014  61.3173365 105.4002384  11.1757430
  68.2059992 107.6749978   4.4480014  67.9109992 108.5019978   4.8300014
  67.5029992 107.0559978   4.6450014  68.0706379 107.7044171   4.5268654
  58.2129992 103.9719978  16.5080014  58.4359992 103.5539978  17.3390014
  57.6109992 103.3599978  16.0850014  58.1621513 103.8319606  16.5646740
  65.2299992 103.4889978  18.7210014  64.9339992 103.3239978  17.8250014
  66.1609992 103.2689978  18.7100014  65.3154401 103.4366879  18.5970206
  69.8499992 108.8629978  16.6100014  68.9499992 109.0459978  16.3430014
  69.8839992 109.1219978  17.5310014  69.7313748 108.9230554  16.6979164
  75.5819992 101.1069978   4.9780014  75.0269992 100.7109978   4.3050014
  75.6819992 102.0179978   4.7000014  75.5196816 101.1759505   4.8485033
  75.5449992 106.9079978  17.8150014  74.6939992 107.1459978  17.4470014
  76.1349992 106.8909978  17.0620014  75.5083812 106.9382524  17.6628453
  73.8769992 109.8929978   5.4430014  73.5039992 109.0679978   5.7520014
  74.1539992 109.7099978   4.5450014  73.8633463 109.7552569   5.3639525
  71.0369992 104.7009978  12.4640014  70.1089992 104.4699978  12.4370014
  71.4879992 103.9239978  12.1340014  70.9708165 104.5642774  12.4156790
  63.5799992 109.0299978   8.5970014  64.1079992 109.8029978   8.3970014
  62.6999992 109.2539978   8.2950014  63.5333435 109.1662700   8.5287310
  59.3349992 103.8919978   3.1840014  59.9509992 104.5189978   3.5640014
  58.4729992 104.2079978   3.4560014  59.3027678 104.0204412   3.2727209
  65.0079992 106.6929978   8.1730014  64.7669992 107.6179978   8.2150014
  64.2669992 106.2339978   8.5700014  64.8749206 106.7575915   8.2323769
  65.5219992 110.8419978  14.4880014  65.8849992 111.6959978  14.2550014
  66.0539992 110.5499978  15.2290014  65.6435141 110.9193895  14.5562097
  63.6909992 111.7139978   7.7190014  62.7409992 111.8199978   7.7700014
  64.0429992 112.5349978   8.0630014  63.6085472 111.8394923   7.7724852
  69.0659992 106.9409978  14.1890014  68.6409992 106.7129978  15.0150014
  69.6469992 106.2019978  14.0070014  69.0863395 106.8099545  14.2774414
  71.2689992 107.8699978   3.2630014  71.6229992 107.4899978   4.0670014
  70.3209992 107.7759978   3.3500014  71.1892298 107.8052452   3.3848687
  71.7249992 111.4929978  16.6580014  71.1229992 110.9369978  16.1630014
  72.0059992 112.1599978  16.0320014  71.6805757 111.5070744  16.5055675
  75.7729992 112.3489978   3.4640014  76.5169992 112.9349978   3.3240014
  75.0789992 112.9179978   3.7970014  75.7809809 112.5060818   3.4898590
  59.8469992  98.7259978  16.0660014  58.9549992  99.0639978  15.9980014
  59.7489992  97.8699978  16.4840014  59.7114475  98.6566543  16.1131704
  72.1349992 106.5419978   5.4900014  71.8579992 105.8139978   6.0460014
  73.0629992 106.6609978   5.6950014  72.2224499 106.4584213   5.5938044
  59.4989992 110.5299978  14.5010014  59.7159992 109.5979978  14.4700014
  59.7449992 110.8049978  15.3840014  59.5619808 110.4395686  14.6161691
  65.3599992 108.9819978   1.7100014  65.5989992 108.2329978   1.1630014
  65.0909992 108.5939978   2.5430014  65.3563233 108.8271853   1.7477809
  64.2969992 108.5519978   4.1660014  64.4439992 108.0319978   4.9560014
  64.2939992 109.4589978   4.4730014  64.3167102 108.6033953   4.3155925
  60.7499992 105.8039978   4.6770014  60.0639992 106.1569978   5.2440014
  61.2729992 106.5669978   4.4300014  60.7268402 105.9553901   4.7211801
  68.5819992  98.4669978  14.9560014  69.2809992  98.5409978  15.6060014
  68.2009992  97.6019978  15.1100014  68.6262097  98.3602389  15.0657997
  69.3659992  98.1189978   6.0530014  69.5859992  98.5899978   5.2490014
  69.9249992  98.5129978   6.7230014  69.4716731  98.2367287   6.0335033
  67.0349992 110.2489978   4.9160014  66.2179992 110.7459978   4.9680014
  67.5639992 110.7249978   4.2750014  66.9948125 110.3811989   4.8365306
  66.5659992  99.8469978   6.8880014  67.3779992 100.3509978   6.9340014
  66.3219992  99.7019978   7.8020014  66.6441467  99.8963749   7.0178575
  67.1019992 100.8329978  16.0720014  67.2209992 101.4069978  16.8290014
  67.7569992 100.1449978  16.1870014  67.2068684 100.8185194  16.1911674
  67.4499992  96.9279978   7.8260014  67.1029992  97.5449978   8.4700014
  68.1089992  97.4289978   7.3440014  67.4915090  97.0801575   7.8490681
  64.3729992 111.2929978   4.8970014  64.5339992 112.0929978   4.3970014
  64.1759992 111.5999978   5.7820014  64.3683906 111.4438678   4.9482333
  63.1079992  97.9909978   4.5130014  63.0239992  98.8789978   4.8600014
  63.9979992  97.7259978   4.7450014  63.2168163  98.0767179   4.5918596
  73.3059992  98.7399978  16.9070014  72.3899992  99.0019978  16.8200014
  73.6419992  98.7369978  16.0110014  73.2258499  98.7755163  16.7738766
  71.9089992 102.4899978  11.0030014  71.1109992 102.0749978  10.6750014
  72.3539992 101.7999978  11.4940014  71.8599684 102.3398628  11.0245227
  61.3659992 108.4179978   3.5730014  61.9579992 109.1179978   3.8500014
  61.8249992 107.9849978   2.8540014  61.5091652 108.4552675   3.5136533
  59.6819992 101.0829978   2.6890014  59.6369992 102.0219978   2.8680014
  58.7939992 100.8469978   2.4200014  59.5558166 101.1796687   2.6771524
  72.9949992 111.7459978  12.6250014  72.8389992 112.4249978  11.9680014
  73.9279992 111.8179978  12.8280014  73.0997387 111.8486390  12.5625342
  60.4899992  95.8639978  11.3630014  60.2609992  95.9229978  10.4350014
  60.0479992  95.0729978  11.6690014  60.3988801  95.7650540  11.2774729
  59.4209992 109.8049978   7.5230014  58.5879992 110.2769978   7.5500014
  59.9659992 110.3149978   6.9240014  59.3807857 109.9384791   7.4457142
  58.7089992 112.4169978  18.8530014  59.2489992 112.2009978  19.6130014
  58.2279992 111.6119978  18.6630014  58.7179219 112.2785156  18.9314282
  63.3059992 111.3369978  20.4730014  64.0739992 110.8779978  20.8140014
  63.2849992 111.1109978  19.5430014  63.4082135 111.2436668  20.3939491
  67.3979992 110.8449978   1.8490014  66.7539992 110.2139978   2.1700014
  68.1599992 110.3139978   1.6170014  67.4128058 110.6867902   1.8616038
  69.8829992 109.7169978  19.2020014  69.5319992 108.8599978  19.4460014
  70.6089992 109.8589978  19.8090014  69.9331895 109.6191351  19.3173770
  72.0029992 110.6619978   2.0820014  72.2859992 109.8669978   2.5350014
  72.7419992 110.8949978   1.5210014  72.1417096 110.5847049   2.0681104
  58.6159992 106.2279978  19.8070014  58.7599992 105.3259978  19.5210014
  57.8439992 106.5139978  19.3200014  58.5312733 106.1431798  19.7019532
  62.9569992 106.5709978   1.9400014  63.0219992 105.7769978   2.4700014
  63.6099992 106.4529978   1.2500014  63.0541605 106.4463430   1.9192997
  65.2709992 106.1969978  19.2400014  64.9429992 106.4679978  18.3830014
  65.4229992 105.2559978  19.1520014  65.2466412 106.1069046  19.1107822
  68.3099992 107.6179978   1.6760014  68.0409992 107.7989978   2.5760014
  68.1029992 106.6929978   1.5440014  68.2451191 107.5177119   1.7815524
  71.0059992 106.1129978  16.6230014  71.7509992 106.7019978  16.5040014
  70.2489992 106.6949978  16.6870014  71.0055470 106.2722128  16.6153799
  59.4489992 103.4279978  19.2270014  59.8569992 102.5709978  19.1060014
  59.1879992 103.4419978  20.1480014  59.4696016 103.3125119  19.3349192
  64.1069992 104.5439978   4.2460014  63.6469992 104.0599978   4.9310014
  64.3619992 103.8749978   3.6100014  64.0784856 104.3873669   4.2538397
  63.3959992 102.4369978  16.6020014  62.7769992 103.1109978  16.8820014
  63.7399992 102.7579978  15.7680014  63.3577123 102.5726887  16.5276388
  65.1779992 102.7869978   2.5080014  64.9969992 102.6319978   1.5810014
  66.1279992 102.8949978   2.5530014  65.2816566 102.7803669   2.3870929
  68.4149992 104.9079978  19.8790014  69.3689992 104.9919978  19.8520014
  68.2549992 104.1959978  20.4990014  68.5237182 104.8232842  19.9590733
  74.5679992 105.1409978   1.9540014  74.2939992 104.7169978   1.1410014
  74.6069992 106.0729978   1.7370014  74.5357716 105.2088827   1.8134286
  63.7349992  99.7919978  17.6840014  63.8849992  99.0629978  17.0820014
  63.7369992 100.5689978  17.1250014  63.7557967  99.7972708  17.5260541
  64.1479992  98.1609978  15.1770014  64.6829992  98.6129978  14.5250014
  63.2949992  98.0529978  14.7540014  64.1060374  98.2082665  15.0306710
  65.7289992 103.6009978  15.4160014  66.4799992 103.4449978  14.8430014
  65.3899992 104.4529978  15.1410014  65.7859587 103.6948138  15.3004078
  70.1449992 101.4159978  20.4450014  70.3369992 100.4849978  20.3330014
  71.0029992 101.8409978  20.4340014  70.2872182 101.3460070  20.4281862
  71.4619992 104.2049978  18.5220014  71.1799992 104.9139978  17.9440014
  72.4039992 104.1319978  18.3710014  71.5507921 104.2922193  18.4224225
  62.2139992 100.9899978  19.5950014  61.4459992 100.4569978  19.3850014
  62.8919992 100.6799978  18.9960014  62.2007235 100.8751754  19.4852413
  64.9529992  95.6179978  15.6080014  64.8549992  96.5639978  15.5030014
  64.2109992  95.2449978  15.1320014  64.8392534  95.6971773  15.5292600
  66.2169992  99.9389978  19.1720014  65.9819992  99.7199978  20.0730014
  65.4339992  99.7319978  18.6620014  66.0789095  99.8809892  19.2265353
  68.9329992  99.0669978  18.2470014  67.9849992  99.0989978  18.3790014
  69.2449992  98.4409978  18.9010014  68.8455293  98.9867923  18.3534148
  70.5669992  97.7009978  20.2520014  70.4699992  96.7489978  20.2470014
  70.2449992  97.9689978  21.1130014  70.5102468  97.6070884  20.3676210
  60.3939992  98.9099978  19.3000014  60.6059992  98.2039978  18.6900014
  60.2829992  98.4729978  20.1440014  60.4080269  98.7541921  19.3305873
  65.1749992  94.9119978  18.2790014  65.8869992  94.2719978  18.2650014
  65.0739992  95.1779978  17.3660014  65.2587387  94.8604330  18.1535563
  65.5289992  96.5939978  20.3330014  65.3969992  96.1189978  19.5130014
  64.9289992  97.3389978  20.2780014  65.4299070  96.6295789  20.2133251
  65.0749992 113.4769978   3.5090014  66.0079992 113.6349978   3.6530014
  64.8109992 114.1529978   2.8840014  65.1669911 113.5899373   3.4442722
  58.6429992 108.1139978   2.9920014  59.5569992 108.1929978   3.2650014
  58.6509992 107.4269978   2.3260014  58.7690655 108.0319205   2.9392917
  57.2919992 113.5069978   8.0690014  56.6449992 113.0449978   7.5370014
  57.6469992 112.8349978   8.6520014  57.2513741 113.3529774   8.0749175
  58.1619992 111.5869978   9.8740014  57.8279992 110.7069978  10.0460014
  58.3849992 111.9329978  10.7390014  58.1463721 111.5131938  10.0144168
  75.7109992 112.3969978  12.8550014  75.6889992 112.5819978  13.7940014
  76.4009992 112.9649978  12.5140014  75.8013439 112.4991887  12.9374791
  75.2739992 111.9639978  15.7760014  74.7869992 111.2289978  15.4050014
  75.8229992 111.5699978  16.4540014  75.2815247 111.8101057  15.8168461
  73.7249992 107.7539978  20.4150014  72.8589992 107.6489978  20.8090014
  74.1009992 108.5119978  20.8610014  73.6573401 107.8421708  20.5292620
  75.0259992 106.0099978   5.9290014  75.8759992 106.4309978   6.0560014
  75.0309992 105.2699978   6.5360014  75.1431143 105.9676094   6.0284750
  75.4199992 104.0639978   7.7520014  74.6939992 103.5839978   8.1500014
  76.0019992 104.2689978   8.4850014  75.3992730 104.0260184   7.9054149
  75.1789992 106.8489978  12.7000014  76.0129992 106.4709978  12.4190014
  75.2909992 107.7919978  12.5810014  75.3081917 106.9247943  12.6454861
  73.6659992 109.7269978  15.0070014  73.0179992 110.0519978  15.6320014
  73.1479992 109.2859978  14.3330014  73.5074196 109.7118651  15.0014152
  75.6889992 103.9649978   4.1430014  75.1669992 104.3209978   3.4250014
  75.6559992 104.6399978   4.8220014  75.6130129 104.1049598   4.1363355
  74.0379992 101.2039978   2.6940014  74.1339992 101.8709978   2.0140014
  73.8979992 100.3889978   2.2130014  74.0322040 101.1850671   2.5358378
  73.2069992 102.5849978   8.3150014  73.0569992 101.6399978   8.2950014
  72.8529992 102.8659978   9.1590014  73.1386351 102.4936644   8.4263220
  58.2419992 104.6629978  12.3260014  58.4269992 104.5809978  11.3900014
  59.0919992 104.5389978  12.7490014  58.3820928 104.6350463  12.2552893
  74.0629992 104.5549978  17.9540014  74.6459992 103.8199978  18.1460014
  74.6269992 105.3269978  18.0010014  74.2189781 104.5588145  17.9866164
  75.5599992 102.4579978  18.6390014  74.6969992 102.0789978  18.4730014
  76.1639992 101.7189978  18.5640014  75.5236085 102.3063223  18.6061695
  73.2849992  98.6119978   1.8120014  73.8959992  98.2409978   2.4490014
  72.4479992  98.1909978   2.0080014  73.2554947  98.5042756   1.9257252
  72.9179992 100.1669978   6.7780014  73.1969992  99.2599978   6.9020014
  73.6769992 100.6009978   6.3890014  73.0588619 100.1014502   6.7423795
  73.5289992 100.7489978  12.2140014  74.4619992 100.9609978  12.1790014
  73.2939992 100.8499978  13.1360014  73.6249517 100.7916833  12.3339130
  73.5589992 101.4859978  14.9900014  72.7159992 101.7539978  15.3560014
  74.0009992 102.3079978  14.7790014  73.5034138 101.6338273  15.0115518
  57.8399992  99.9329978  18.4660014  58.7589992  99.8109978  18.7030014
  57.3899992  99.1829978  18.8560014  57.9050087  99.8149608  18.5511410
  75.8419992  95.4659978  20.3430014  76.1909992  94.8119978  19.7380014
  75.9889992  96.3029978  19.9030014  75.9096824  95.4896024  20.2006304
  73.5309992  97.4299978   6.8260014  73.7129992  96.9809978   7.6510014
  72.9309992  96.8459978   6.3620014  73.4748187  97.2895552   6.8762739
  59.0609992  98.2459978  11.3580014  59.5059992  97.4539978  11.6600014
  59.5269992  98.9619978  11.7880014  59.1849718  98.2344534  11.4575265
  57.3649992 101.2449978  12.4270014  57.8569992 101.0239978  11.6360014
  57.7269992 102.0849978  12.7080014  57.4812923 101.3283468  12.3567407
  75.3609992  97.5749978  18.6920014  74.4439992  97.8459978  18.6570014
  75.4839992  97.0399978  17.9080014  75.2519672  97.5397885  18.5811862
  75.3979992  97.4979978   3.3540014  75.8099992  96.7769978   2.8790014
  76.0789992  98.1669978   3.4120014  75.5465536  97.4897766   3.2968024
  57.6789992  97.5029978   6.4810014  56.7539992  97.7109978   6.3520014
  58.1329992  97.9869978   5.7910014  57.6136298  97.5969299   6.3700451
  72.4489992 112.4869978   8.4270014  73.1019992 112.1389978   7.8190014
  72.9599992 112.9749978   9.0730014  72.6072777 112.5053815   8.4312047
  57.6419992  96.2409978  14.8250014  56.9769992  95.9949978  15.4680014
  57.1989992  96.8629978  14.2480014  57.4911168  96.2914214  14.8349848
  59.8339992 109.4159978  18.9700014  59.0129992 109.5909978  18.5090014
  59.5819992 109.3429978  19.8900014  59.6875594 109.4300717  19.0313611
  62.7879992 110.3899978  15.2280014  62.3639992 111.1999978  14.9460014
  63.6929992 110.4759978  14.9260014  62.8522138 110.5124160  15.1486415
  67.0999992 111.7889978  18.1880014  67.2839992 111.4559978  19.0660014
  67.9459992 112.0989978  17.8660014  67.2396484 111.7852979  18.2647617
  69.4449992 113.0749978  17.4320014  70.1219992 112.4419978  17.1920014
  69.7659992 113.4759978  18.2390014  69.5811323 113.0425691  17.5083158
  74.3619992  95.6649978  16.5110014  73.5489992  95.9899978  16.1240014
  74.5949992  94.9039978  15.9780014  74.2821347  95.6066880  16.3859841
  60.1899992 113.6469978  15.2760014  59.4699992 114.0869978  14.8250014
  59.8249992 113.3959978  16.1240014  60.0419643 113.6733369  15.3289129
  62.6569992 113.2469978  14.3060014  61.7929992 113.3189978  14.7100014
  62.6019992 113.7939978  13.5220014  62.5311942 113.3307849  14.2554000
  67.3679992 113.1349978  13.4810014  66.9109992 113.6639978  12.8270014
  67.5309992 113.7379978  14.2060014  67.3274960 113.2889280  13.4895274
  69.6959992 112.0129978  14.4260014  68.7909992 112.1779978  14.1600014
  70.1239992 112.8659978  14.3600014  69.6301537 112.1509134  14.3807095
  72.2999992 113.5829978  14.7210014  72.1179992 114.4989978  14.5100014
  72.4769992 113.1719978  13.8740014  72.2990030 113.6528273  14.5777166
  59.6049992 112.2699978  12.1860014  59.5869992 111.8439978  13.0430014
  60.4099992 111.9509978  11.7770014  59.7112875 112.1686435  12.2479515
  61.7459992 110.9799978  10.8410014  61.5269992 110.0629978  11.0110014
  62.5699992 111.1199978  11.3070014  61.8274702 110.8735511  10.9272527
  64.2829992 111.4499978  11.6900014  64.4959992 110.5619978  11.4030014
  64.3479992 111.4149978  12.6440014  64.3209149 111.3238326  11.7797369
  67.7919992  97.1139978  10.8340014  67.1179992  96.4839978  11.0900014
  68.3559992  96.6299978  10.2310014  67.7760384  96.9623708  10.7875020
  72.9349992  95.2209978  10.9470014  73.5379992  95.7689978  10.4450014
  72.0649992  95.5399978  10.7060014  72.8999157  95.3390373  10.8457910
  74.6619992  96.3599978   9.2800014  75.2729992  95.8459978   8.7530014
  75.0439992  97.2369978   9.3030014  74.7973305  96.4082050   9.2109418
  60.1189992  95.7479978   8.6560014  59.3419992  95.5129978   8.1490014
  60.6489992  94.9509978   8.6650014  60.0843451  95.6081268   8.5878627
  58.9549992  95.5459978   4.4600014  59.3939992  96.1569978   3.8680014
  58.3209992  96.0839978   4.9340014  58.9293859  95.7024064   4.4430305
  64.6979992  95.6739978   8.4690014  65.5719992  96.0629978   8.4400014
  64.5619992  95.4589978   9.3920014  64.7991953  95.6981643   8.5897617
  70.2549992  95.7039978  10.1190014  70.3309992  95.7999978   9.1690014
  69.9799992  94.7969978  10.2470014  70.2281871  95.5944146  10.0063944
  71.6079992  95.7299978   5.8110014  70.9049992  96.3449978   5.6010014
  71.1629992  94.8929978   5.9420014  71.4516550  95.7009668   5.7999837
  58.8559992 111.4939978   5.3570014  58.1709992 111.4559978   4.6900014
  58.8599992 112.4069978   5.6450014  58.7627621 111.6121924   5.3046126
  60.8159992  97.4619978   2.9020014  61.3069992  96.8319978   2.3750014
  61.4389992  97.7579978   3.5650014  60.9675304  97.4157376   2.9194940
  65.8419992  97.7549978   5.3590014  66.0199992  97.1079978   6.0420014
  65.7879992  98.5889978   5.8260014  65.8590678  97.7791604   5.5156301
  67.7199992 112.7029978   3.7550014  68.5859992 113.0699978   3.5770014
  67.4739992 112.2639978   2.9410014  67.8052097 112.6938525   3.6206019
  74.4289992 112.2659978   6.4340014  74.2349992 111.5179978   5.8690014
  74.3899992 113.0239978   5.8510014  74.3971645 112.2660786   6.2778148
  60.0759992  96.2619978  18.1740014  59.7099992  95.4959978  18.6160014
  60.9889992  96.2909978  18.4600014  60.1493172  96.1610324  18.2731890
  62.0489992  95.6119978  19.7090014  62.9479992  95.3379978  19.5250014
  61.6629992  94.8699978  20.1740014  62.1197307  95.4742196  19.7467098
  60.6739992 112.4139978   2.3820014  60.4059992 112.6999978   3.2560014
  61.4449992 111.8679978   2.5350014  60.7415926 112.3792779   2.5221205
  70.4709992  94.9449978  19.8920014  70.5469992  94.5189978  20.7450014
  71.3639992  94.9579978  19.5490014  70.6022303  94.8883493  19.9625497
  73.6469992 111.0179978  18.5840014  72.8649992 110.8309978  18.0640014
  73.5749992 111.9469978  18.8010014  73.5301924 111.1180637  18.5421602
  88.0529992 104.9039978   8.6150014  88.1419992 105.8479978   8.4830014
  87.4149992 104.6289978   7.9570014  87.9789062 104.9959812   8.5079641
  86.9859992 104.1589978  12.0340014  86.9479992 103.5129978  12.7390014
  86.6639992 103.6919978  11.2630014  86.9372679 104.0074276  12.0262921
  79.3539992 103.7729978  13.6270014  79.3959992 103.1479978  14.3500014
  80.0569992 104.3969978  13.8090014  79.4547345 103.7717873  13.7505274
  90.6919992 107.0979978  10.3350014  90.2509992 106.3779978  10.7860014
  90.6789992 107.8189978  10.9650014  90.6299215 107.0969291  10.4818105
  80.2779992 108.2229978  12.1620014  79.9079992 107.4209978  11.7920014
  81.2189992 108.0549978  12.2080014  80.3545984 108.0904638  12.1175603
  76.8879992 101.8829978   7.5540014  76.4399992 102.7289978   7.5360014
  76.3269992 101.3039978   7.0390014  76.7508546 101.9203993   7.4818891
  77.5979992 104.0449978   9.6800014  77.8119992 103.2749978  10.2080014
  78.3359992 104.1349978   9.0770014  77.7270200 103.9518586   9.6707035
  87.8039992 112.2019978  10.5470014  88.4229992 111.5259978  10.2740014
  87.5949992 111.9839978  11.4560014  87.8606056 112.0798869  10.6323967
  85.3749992 106.5909978  12.4400014  85.6789992 105.9049978  11.8450014
  86.0969992 106.7099978  13.0580014  85.5141240 106.5132314  12.4420959
  94.0379992  98.1929978  13.3000014  94.0879992  98.8029978  14.0360014
  94.4639992  98.6539978  12.5770014  94.1024108  98.3387709  13.3030112
  88.5159992 100.9849978  12.7670014  88.6589992 100.0389978  12.7870014
  88.4099992 101.1919978  11.8390014  88.5212403 100.8834797  12.6442239
  81.6709992  99.0869978  10.0400014  81.7139992  99.9469978   9.6210014
  81.2129992  98.5349978   9.4060014  81.6149871  99.1299245   9.8970761
  89.3929992  99.2179978   8.4410014  90.0399992  98.8889978   9.0650014
  89.9029992  99.7349978   7.8180014  89.5504351  99.2429067   8.4421037
  78.2909992 101.4839978  10.8020014  78.9449992 100.9339978  11.2340014
  78.3149992 101.2099978   9.8850014  78.3837199 101.3717167  10.7371668
  83.4479992 103.0339978  10.0170014  84.0639992 102.5069978  10.5260014
  82.8609992 102.3939978   9.6130014  83.4530154 102.8753954  10.0320945
  94.4299992  99.6709978  15.5360014  93.7409992 100.3289978  15.4410014
  94.4449992  99.4729978  16.4730014  94.3377756  99.7342603  15.6495812
  80.4809992  98.0049978  14.1140014  80.2619992  98.5349978  13.3470014
  79.8129992  98.2309978  14.7610014  80.3606975  98.1080967  14.0965140
  87.8499992 107.5049978   7.6580014  87.5549992 107.1819978   6.8060014
  87.5259992 108.4049978   7.6990014  87.7658460 107.5824464   7.5469714
  83.0499992 105.6799978  14.4010014  82.3099992 106.2789978  14.5050014
  83.7639992 106.2339978  14.0860014  83.0453500 105.8367829  14.3726371
  91.1569992  98.5089978  10.4210014  90.9419992  97.7429978  10.9540014
  91.8129992  98.9809978  10.9340014  91.2162673  98.4680728  10.5631990
  80.0749992  99.8969978  12.0660014  80.6889992 100.5299978  12.4390014
  80.5869992  99.4249978  11.4100014  80.2281962  99.9197249  12.0282935
  81.4579992 107.6449978  15.1880014  81.4519992 108.5239978  14.8100014
  80.6039992 107.5609978  15.6130014  81.3417925 107.7539535  15.1936887
  77.5789992 107.3159978   5.9700014  77.3069992 107.5449978   5.0820014
  77.6239992 108.1529978   6.4310014  77.5478097 107.4606163   5.9106683
  91.2039992 108.9369978  12.6830014  90.2619992 108.9959978  12.8450014
  91.4799992 109.8429978  12.5460014  91.1125865 109.0675288  12.6866192
  91.5039992  97.2239978  14.1000014  90.7679992  97.8339978  14.0630014
  92.1879992  97.6389978  13.5740014  91.4955367  97.3637551  14.0238174
  84.5079992  95.3099978  11.5660014  84.3899992  94.3619978  11.5120014
  83.6529992  95.6429978  11.8390014  84.3762805  95.2252202  11.5955079
  89.4559992 110.7179978   9.3080014  89.8809992 110.0109978   8.8230014
  89.7729992 111.5199978   8.8910014  89.5570266 110.7295190   9.1852479
  90.6159992 108.6189978   7.8170014  90.3579992 107.9289978   7.2050014
  90.6869992 108.1759978   8.6620014  90.5903050 108.4646814   7.8475621
  92.3019992 107.1859978  16.2940014  92.4409992 106.5939978  15.5550014
  92.4689992 108.0589978  15.9380014  92.3436193 107.2228896  16.1446211
  86.7739992 104.1479978   6.0670014  86.0629992 104.6829978   5.7150014
  87.4649992 104.2029978   5.4070014  86.7700751 104.2286777   5.9295858
  86.8279992 102.6049978   3.1050014  87.5289992 102.6279978   3.7570014
  87.1299992 101.9769978   2.4490014  86.9648202 102.5232212   3.1055609
  94.1429992 103.5259978  14.3600014  93.4909992 104.2199978  14.4490014
  94.6089992 103.7359978  13.5500014  94.1165937 103.6495019  14.2627533
  90.1799992 104.3569978   7.0180014  89.4479992 104.5859978   7.5920014
  90.6269992 103.6439978   7.4730014  90.1403963 104.2918729   7.1579945
  90.0769992 102.5319978  16.0860014  90.1569992 103.2949978  16.6580014
  89.4759992 102.8109978  15.3960014  90.0066547 102.6742457  16.0710047
  81.8249992 104.9879978   8.9010014  81.4949992 104.6169978   8.0830014
  82.4139992 104.3169978   9.2480014  81.8593970 104.8466063   8.8359404
  83.1919992 108.4159978  11.5820014  83.0969992 107.8369978  10.8260014
  83.9209992 108.0449978  12.0780014  83.2776011 108.2865561  11.5456028
  82.1919992 103.7559978  12.5340014  82.7569992 103.8779978  11.7720014
  82.5109992 104.3939978  13.1730014  82.3124166 103.8588791  12.5160348
  88.5009992 109.2599978  13.2680014  88.2609992 109.9219978  13.9160014
  88.3029992 108.4249978  13.6930014  88.4413826 109.2378115  13.4141566
  83.0719992 108.1559978  17.2520014  82.7609992 108.9379978  17.7070014
  82.4219992 108.0029978  16.5660014  82.9415538 108.2424087  17.2215898
  89.0509992 103.5199978   4.7040014  89.6299992 103.6699978   5.4500014
  89.4649992 103.9899978   3.9800014  89.1863358 103.6040954   4.7083953
  79.9919992 104.3539978  16.4800014  80.0619992 105.0049978  17.1790014
  79.1009992 104.4569978  16.1450014  79.8811690 104.4569249  16.5303043
  86.7769992 110.2559978   8.1390014  87.2509992 110.5519978   8.9160014
  86.2139992 110.9949978   7.9060014  86.7657890 110.3963036   8.2138101
  81.3109992 110.2269978  18.0150014  81.3189992 110.0909978  17.0680014
  80.3949992 110.1099978  18.2670014  81.1882528 110.1925463  17.9193243
  92.7499992  95.2699978   4.5170014  91.8499992  95.4089978   4.8120014
  93.0019992  96.1009978   4.1150014  92.6608683  95.4014055   4.5030232
  80.8159992 104.0569978   6.4900014  80.5239992 104.8249978   5.9990014
  80.1409992 103.3979978   6.3270014  80.6848497 104.0729745   6.4008260
  93.9389992 109.6359978   2.8930014  94.0119992 110.5749978   3.0630014
  94.8439992 109.3309978   2.8370014  94.0714170 109.7233282   2.9087063
  76.9089992 106.4199978  15.3050014  76.4069992 106.3919978  14.4900014
  76.9139992 105.5149978  15.6150014  76.8409832 106.2937486  15.2354121
  76.6589992 109.2009978  12.1890014  77.6049992 109.0559978  12.1700014
  76.5459992 109.9849978  12.7260014  76.7733578 109.2871697  12.2590317
  94.8569992 109.8669978  17.8720014  94.8069992 108.9109978  17.8340014
  94.0299992 110.1339978  18.2730014  94.7383831 109.7724680  17.9210121
  85.8349992 109.4409978  16.7480014  85.9229992 110.2669978  17.2230014
  84.9719992 109.1109978  16.9970014  85.7303357 109.5095468  16.8467653
  86.2499992 113.2129978   6.5540014  86.1739992 113.0919978   5.6070014
  86.2819992 114.1619978   6.6720014  86.2439380 113.3247677   6.4405181
  79.9029992 112.0019978   8.3350014  80.0549992 111.6539978   9.2130014
  79.0519992 111.6449978   8.0790014  79.8088344 111.9060879   8.4206868
  89.3509992 112.3669978   3.5560014  89.7259992 111.6229978   3.0850014
  89.3559992 112.0969978   4.4740014  89.4030098 112.2286392   3.6156629
  89.0199992 112.2929978   6.3050014  88.0849992 112.3929978   6.4840014
  89.2999992 111.5829978   6.8840014  88.9299471 112.2107933   6.4076695
  92.0089992 101.3599978  18.3520014  91.6009992 101.8399978  17.6310014
  92.0489992 100.4539978  18.0440014  91.9586221 101.3032449  18.2118267
  79.1579992 107.7439978  16.3480014  79.3739992 107.3819978  17.2080014
  78.3019992 107.3689978  16.1390014  79.0718810 107.6438837  16.4372680
  81.7759992  96.2139978  12.3440014  80.9149992  96.1269978  11.9360014
  81.7539992  97.0699978  12.7720014  81.6550491  96.3178003  12.3459582
  86.4389992  95.9359978  15.7190014  86.8589992  95.5209978  16.4720014
  85.5059992  95.7569978  15.8360014  86.3703736  95.8549910  15.8378968
  89.7659992  99.6909978  16.5720014  89.2519992  99.5659978  17.3700014
  89.6099992 100.6039978  16.3280014  89.6746967  99.7972123  16.6480937
  90.5279992 104.5519978   2.3330014  90.5699992 104.3299978   1.4030014
  91.3769992 104.9509978   2.5230014  90.6485253 104.5755498   2.2313822
  86.1009992  98.4279978   3.0040014  85.8469992  98.4469978   3.9260014
  85.8439992  97.5569978   2.7020014  86.0314508  98.3128280   3.0894803
  81.8669992 101.1789978  13.4390014  81.2259992 101.1389978  14.1480014
  81.9049992 102.1059978  13.2010014  81.7843010 101.2987668  13.5039946
  81.8639992 101.3999978   8.3510014  80.9719992 101.0599978   8.2920014
  82.3149992 101.0229978   7.5950014  81.8027642 101.3024910   8.2407726
  87.3999992 101.8159978   7.1680014  86.9909992 102.6309978   6.8760014
  88.1199992 101.6759978   6.5540014  87.4414439 101.9085372   7.0450115
  86.5019992 101.9919978  18.6560014  85.9389992 101.2869978  18.9770014
  87.3279992 101.8709978  19.1240014  86.5366674 101.8792165  18.7631751
  88.4049992 101.2619978   9.9820014  88.2089992 101.8679978   9.2670014
  88.5859992 100.4289978   9.5480014  88.4026584 101.2322513   9.8254212
  79.6169992 101.4999978  15.3060014  79.5789992 101.8999978  16.1750014
  79.1269992 100.6829978  15.3960014  79.5455330 101.4442674  15.4371289
  82.9829992  98.8739978   2.1050014  82.5519992  98.4289978   2.8340014
  82.2649992  99.2449978   1.5920014  82.8269176  98.8632051   2.1354930
  76.2259992  98.6159978   9.1570014  76.8559992  98.5869978   9.8760014
  76.6749992  98.1909978   8.4260014  76.3730835  98.5545660   9.1567659
  77.4999992  99.3619978   4.5810014  77.9739992  99.9529978   3.9960014
  76.7819992  99.8919978   4.9280014  77.4678640  99.5145511   4.5477969
  87.6689992 102.8999978  14.6530014  87.9919992 102.2689978  14.0100014
  87.2279992 102.3659978  15.3140014  87.6536379 102.7413468  14.6542582
  84.4459992  98.8279978   9.4370014  83.5349992  98.8849978   9.7260014
  84.9509992  98.7679978  10.2480014  84.3896873  98.8276826   9.5861207
  79.2739992 100.4569978   8.2640014  78.3849992 100.5559978   7.9240014
  79.5709992  99.6149978   7.9180014  79.1924177 100.3567687   8.1706940
  82.9269992 100.4569978   5.9210014  83.8589992 100.5859978   6.0990014
  82.7119992 101.1259978   5.2710014  83.0254472 100.5650806   5.8574891
  88.8509992  98.0629978  12.7020014  88.1739992  98.1939978  13.3650014
  88.3659992  97.9079978  11.8910014  88.6927405  98.0599947  12.6832170
  81.6009992 101.6509978   3.4870014  81.0589992 101.2719978   2.7960014
  82.4349992 101.8459978   3.0590014  81.6394390 101.6254079   3.3344392
  92.1389992 113.7339978  18.9780014  92.3379992 114.1579978  18.1440014
  92.7939992 114.0779978  19.5850014  92.2548522 113.8386301  18.9457852
  79.7369992 106.2079978  18.5860014  80.4689992 106.4629978  19.1480014
  78.9559992 106.4129978  19.1020014  79.7316526 106.2705450  18.7325176
  85.7659992 101.6149978  11.3240014  86.3299992 101.0689978  10.7770014
  85.6179992 101.0939978  12.1130014  85.8233037 101.4696787  11.3557229
  80.7679992  97.7519978   7.7430014  80.4509992  96.8489978   7.7070014
  81.5489992  97.7539978   7.1900014  80.8302431  97.6287797   7.6633102
  84.3919992 100.0039978  13.7380014  83.5569992 100.4579978  13.8490014
  84.9159992 100.2799978  14.4900014  84.3486072 100.1033948  13.8548136
  84.9369992 106.2169978   5.4230014  84.1919992 105.7089978   5.1010014
  84.8019992 106.2659978   6.3690014  84.8168963 106.1541731   5.5068826
  92.0869992 105.3499978  14.2100014  92.7279992 105.8059978  13.6660014
  91.2559992 105.4629978  13.7470014  92.0625287 105.4276921  14.0729887
  88.8339992  99.0309978   3.6220014  87.8959992  99.1419978   3.4710014
  89.1319992  99.8869978   3.9290014  88.7456318  99.1620158   3.6428145
  86.4559992 106.4009978  16.6600014  86.1099992 106.0189978  17.4670014
  86.2559992 107.3339978  16.7310014  86.3815987 106.4749002  16.7800461
  89.5529992 100.8979978   5.2830014  90.4449992 100.7599978   5.6020014
  89.6089992 101.6889978   4.7460014  89.6827325 100.9859918   5.2541217
  80.0609992 105.5119978  11.1930014  80.8059992 105.5089978  10.5910014
  80.1389992 104.6879978  11.6740014  80.1733365 105.4002384  11.1757430
  87.0619992 107.6749978   4.4480014  86.7669992 108.5019978   4.8300014
  86.3589992 107.0559978   4.6450014  86.9266379 107.7044171   4.5268654
  77.0689992 103.9719978  16.5080014  77.2919992 103.5539978  17.3390014
  76.4669992 103.3599978  16.0850014  77.0181513 103.8319606  16.5646740
  84.0859992 103.4889978  18.7210014  83.7899992 103.3239978  17.8250014
  85.0169992 103.2689978  18.7100014  84.1714401 103.4366879  18.5970206
  88.7059992 108.8629978  16.6100014  87.8059992 109.0459978  16.3430014
  88.7399992 109.1219978  17.5310014  88.5873748 108.9230554  16.6979164
  94.4379992 101.1069978   4.9780014  93.8829992 100.7109978   4.3050014
  94.5379992 102.0179978   4.7000014  94.3756816 101.1759505   4.8485033
  94.4009992 106.9079978  17.8150014  93.5499992 107.1459978  17.4470014
  94.9909992 106.8909978  17.0620014  94.3643812 106.9382524  17.6628453
  92.7329992 109.8929978   5.4430014  92.3599992 109.0679978   5.7520014
  93.0099992 109.7099978   4.5450014  92.7193463 109.7552569   5.3639525
  89.8929992 104.7009978  12.4640014  88.9649992 104.4699978  12.4370014
  90.3439992 103.9239978  12.1340014  89.8268165 104.5642774  12.4156790
  82.4359992 109.0299978   8.5970014  82.9639992 109.8029978   8.3970014
  81.5559992 109.2539978   8.2950014  82.3893435 109.1662700   8.5287310
  78.1909992 103.8919978   3.1840014  78.8069992 104.5189978   3.5640014
  77.3289992 104.2079978   3.4560014  78.1587678 104.0204412   3.2727209
  83.8639992 106.6929978   8.1730014  83.6229992 107.6179978   8.2150014
  83.1229992 106.2339978   8.5700014  83.7309206 106.7575915   8.2323769
  84.3779992 110.8419978  14.4880014  84.7409992 111.6959978  14.2550014
  84.9099992 110.5499978  15.2290014  84.4995141 110.9193895  14.5562097
  82.5469992 111.7139978   7.7190014  81.5969992 111.8199978   7.7700014
  82.8989992 112.5349978   8.0630014  82.4645472 111.8394923   7.7724852
  87.9219992 106.9409978  14.1890014  87.4969992 106.7129978  15.0150014
  88.5029992 106.2019978  14.0070014  87.9423395 106.8099545  14.2774414
  90.1249992 107.8699978   3.2630014  90.4789992 107.4899978   4.0670014
  89.1769992 107.7759978   3.3500014  90.0452298 107.8052452   3.3848687
  90.5809992 111.4929978  16.6580014  89.9789992 110.9369978  16.1630014
  90.8619992 112.1599978  16.0320014  90.5365757 111.5070744  16.5055675
  94.6289992 112.3489978   3.4640014  95.3729992 112.9349978   3.3240014
  93.9349992 112.9179978   3.7970014  94.6369809 112.5060818   3.4898590
  78.7029992  98.7259978  16.0660014  77.8109992  99.0639978  15.9980014
  78.6049992  97.8699978  16.4840014  78.5674475  98.6566543  16.1131704
  90.9909992 106.5419978   5.4900014  90.7139992 105.8139978   6.0460014
  91.9189992 106.6609978   5.6950014  91.0784499 106.4584213   5.5938044
  78.3549992 110.5299978  14.5010014  78.5719992 109.5979978  14.4700014
  78.6009992 110.8049978  15.3840014  78.4179808 110.4395686  14.6161691
  84.2159992 108.9819978   1.7100014  84.4549992 108.2329978   1.1630014
  83.9469992 108.5939978   2.5430014  84.2123233 108.8271853   1.7477809
  83.1529992 108.5519978   4.1660014  83.2999992 108.0319978   4.9560014
  83.1499992 109.4589978   4.4730014  83.1727102 108.6033953   4.3155925
  79.6059992 105.8039978   4.6770014  78.9199992 106.1569978   5.2440014
  80.1289992 106.5669978   4.4300014  79.5828402 105.9553901   4.7211801
  87.4379992  98.4669978  14.9560014  88.1369992  98.5409978  15.6060014
  87.0569992  97.6019978  15.1100014  87.4822097  98.3602389  15.0657997
  88.2219992  98.1189978   6.0530014  88.4419992  98.5899978   5.2490014
  88.7809992  98.5129978   6.7230014  88.3276732  98.2367287   6.0335033
  85.8909992 110.2489978   4.9160014  85.0739992 110.7459978   4.9680014
  86.4199992 110.7249978   4.2750014  85.8508125 110.3811989   4.8365306
  85.4219992  99.8469978   6.8880014  86.2339992 100.3509978   6.9340014
  85.1779992  99.7019978   7.8020014  85.5001467  99.8963749   7.0178575
  85.9579992 100.8329978  16.0720014  86.0769992 101.4069978  16.8290014
  86.6129992 100.1449978  16.1870014  86.0628684 100.8185194  16.1911674
  86.3059992  96.9279978   7.8260014  85.9589992  97.5449978   8.4700014
  86.9649992  97.4289978   7.3440014  86.3475090  97.0801575   7.8490681
  83.2289992 111.2929978   4.8970014  83.3899992 112.0929978   4.3970014
  83.0319992 111.5999978   5.7820014  83.2243906 111.4438678   4.9482333
  81.9639992  97.9909978   4.5130014  81.8799992  98.8789978   4.8600014
  82.8539992  97.7259978   4.7450014  82.0728163  98.0767179   4.5918596
  92.1619992  98.7399978  16.9070014  91.2459992  99.0019978  16.8200014
  92.4979992  98.7369978  16.0110014  92.0818499  98.7755163  16.7738766
  90.7649992 102.4899978  11.0030014  89.9669992 102.0749978  10.6750014
  91.2099992 101.7999978  11.4940014  90.7159684 102.3398628  11.0245227
  80.2219992 108.4179978   3.5730014  80.8139992 109.1179978   3.8500014
  80.6809992 107.9849978   2.8540014  80.3651652 108.4552675   3.5136533
  78.5379992 101.0829978   2.6890014  78.4929992 102.0219978   2.8680014
  77.6499992 100.8469978   2.4200014  78.4118166 101.1796687   2.6771524
  91.8509992 111.7459978  12.6250014  91.6949992 112.4249978  11.9680014
  92.7839992 111.8179978  12.8280014  91.9557387 111.8486390  12.5625342
  79.3459992  95.8639978  11.3630014  79.1169992  95.9229978  10.4350014
  78.9039992  95.0729978  11.6690014  79.2548801  95.7650540  11.2774729
  78.2769992 109.8049978   7.5230014  77.4439992 110.2769978   7.5500014
  78.8219992 110.3149978   6.9240014  78.2367857 109.9384791   7.4457142
  77.5649992 112.4169978  18.8530014  78.1049992 112.2009978  19.6130014
  77.0839992 111.6119978  18.6630014  77.5739219 112.2785156  18.9314282
  82.1619992 111.3369978  20.4730014  82.9299992 110.8779978  20.8140014
  82.1409992 111.1109978  19.5430014  82.2642135 111.2436668  20.3939491
  86.2539992 110.8449978   1.8490014  85.6099992 110.2139978   2.1700014
  87.0159992 110.3139978   1.6170014  86.2688058 110.6867902   1.8616038
  88.7389992 109.7169978  19.2020014  88.3879992 108.8599978  19.4460014
  89.4649992 109.8589978  19.8090014  88.7891895 109.6191351  19.3173770
  90.8589992 110.6619978   2.0820014  91.1419992 109.8669978   2.5350014
  91.5979992 110.8949978   1.5210014  90.9977096 110.5847049   2.0681104
  77.4719992 106.2279978  19.8070014  77.6159992 105.3259978  19.5210014
  76.6999992 106.5139978  19.3200014  77.3872733 106.1431798  19.7019532
  81.8129992 106.5709978   1.9400014  81.8779992 105.7769978   2.4700014
  82.4659992 106.4529978   1.2500014  81.9101605 106.4463430   1.9192997
  84.1269992 106.1969978  19.2400014  83.7989992 106.4679978  18.3830014
  84.2789992 105.2559978  19.1520014  84.1026412 106.1069046  19.1107822
  87.1659992 107.6179978   1.6760014  86.8969992 107.7989978   2.5760014
  86.9589992 106.6929978   1.5440014  87.1011191 107.5177119   1.7815524
  89.8619992 106.1129978  16.6230014  90.6069992 106.7019978  16.5040014
  89.1049992 106.6949978  16.6870014  89.8615470 106.2722128  16.6153799
  78.3049992 103.4279978  19.2270014  78.7129992 102.5709978  19.1060014
  78.0439992 103.4419978  20.1480014  78.3256016 103.3125119  19.3349192
  82.9629992 104.5439978   4.2460014  82.5029992 104.0599978   4.9310014
  83.2179992 103.8749978   3.6100014  82.9344856 104.3873669   4.2538397
  82.2519992 102.4369978  16.6020014  81.6329992 103.1109978  16.8820014
  82.5959992 102.7579978  15.7680014  82.2137123 102.5726887  16.5276388
  84.0339992 102.7869978   2.5080014  83.8529992 102.6319978   1.5810014
  84.9839992 102.8949978   2.5530014  84.1376566 102.7803669   2.3870929
  87.2709992 104.9079978  19.8790014  88.2249992 104.9919978  19.8520014
  87.1109992 104.1959978  20.4990014  87.3797182 104.8232842  19.9590733
  93.4239992 105.1409978   1.9540014  93.1499992 104.7169978   1.1410014
  93.4629992 106.0729978   1.7370014  93.3917716 105.2088827   1.8134286
  82.5909992  99.7919978  17.6840014  82.7409992  99.0629978  17.0820014
  82.5929992 100.5689978  17.1250014  82.6117967  99.7972708  17.5260541
  83.0039992  98.1609978  15.1770014  83.5389992  98.6129978  14.5250014
  82.1509992  98.0529978  14.7540014  82.9620374  98.2082665  15.0306710
  84.5849992 103.6009978  15.4160014  85.3359992 103.4449978  14.8430014
  84.2459992 104.4529978  15.1410014  84.6419587 103.6948138  15.3004078
  89.0009992 101.4159978  20.4450014  89.1929992 100.4849978  20.3330014
  89.8589992 101.8409978  20.4340014  89.1432182 101.3460070  20.4281862
  90.3179992 104.2049978  18.5220014  90.0359992 104.9139978  17.9440014
  91.2599992 104.1319978  18.3710014  90.4067921 104.2922193  18.4224225
  81.0699992 100.9899978  19.5950014  80.3019992 100.4569978  19.3850014
  81.7479992 100.6799978  18.9960014  81.0567235 100.8751754  19.4852413
  83.8089992  95.6179978  15.6080014  83.7109992  96.5639978  15.5030014
  83.0669992  95.2449978  15.1320014  83.6952534  95.6971773  15.5292600
  85.0729992  99.9389978  19.1720014  84.8379992  99.7199978  20.0730014
  84.2899992  99.7319978  18.6620014  84.9349095  99.8809892  19.2265353
  87.7889992  99.0669978  18.2470014  86.8409992  99.0989978  18.3790014
  88.1009992  98.4409978  18.9010014  87.7015293  98.9867923  18.3534148
  89.4229992  97.7009978  20.2520014  89.3259992  96.7489978  20.2470014
  89.1009992  97.9689978  21.1130014  89.3662468  97.6070884  20.3676210
  79.2499992  98.9099978  19.3000014  79.4619992  98.2039978  18.6900014
  79.1389992  98.4729978  20.1440014  79.2640269  98.7541921  19.3305873
  84.0309992  94.9119978  18.2790014  84.7429992  94.2719978  18.2650014
  83.9299992  95.1779978  17.3660014  84.1147387  94.8604330  18.1535563
  84.3849992  96.5939978  20.3330014  84.2529992  96.1189978  19.5130014
  83.7849992  97.3389978  20.2780014  84.2859070  96.6295789  20.2133251
  83.9309992 113.4769978   3.5090014  84.8639992 113.6349978   3.6530014
  83.6669992 114.1529978   2.8840014  84.0229911 113.5899373   3.4442722
  77.4989992 108.1139978   2.9920014  78.4129992 108.1929978   3.2650014
  77.5069992 107.4269978   2.3260014  77.6250655 108.0319205   2.9392917
  76.1479992 113.5069978   8.0690014  75.5009992 113.0449978   7.5370014
  76.5029992 112.8349978   8.6520014  76.1073741 113.3529774   8.0749175
  77.0179992 111.5869978   9.8740014  76.6839992 110.7069978  10.0460014
  77.2409992 111.9329978  10.7390014  77.0023721 111.5131938  10.0144168
  94.5669992 112.3969978  12.8550014  94.5449992 112.5819978  13.7940014
  95.2569992 112.9649978  12.5140014  94.6573439 112.4991887  12.9374791
  94.1299992 111.9639978  15.7760014  93.6429992 111.2289978  15.4050014
  94.6789992 111.5699978  16.4540014  94.1375247 111.8101057  15.8168461
  92.5809992 107.7539978  20.4150014  91.7149992 107.6489978  20.8090014
  92.9569992 108.5119978  20.8610014  92.5133401 107.8421708  20.5292620
  93.8819992 106.0099978   5.9290014  94.7319992 106.4309978   6.0560014
  93.8869992 105.2699978   6.5360014  93.9991143 105.9676094   6.0284750
  94.2759992 104.0639978   7.7520014  93.5499992 103.5839978   8.1500014
  94.8579992 104.2689978   8.4850014  94.2552730 104.0260184   7.9054149
  94.0349992 106.8489978  12.7000014  94.8689992 106.4709978  12.4190014
  94.1469992 107.7919978  12.5810014  94.1641917 106.9247943  12.6454861
  92.5219992 109.7269978  15.0070014  91.8739992 110.0519978  15.6320014
  92.0039992 109.2859978  14.3330014  92.3634196 109.7118651  15.0014152
  94.5449992 103.9649978   4.1430014  94.0229992 104.3209978   3.4250014
  94.5119992 104.6399978   4.8220014  94.4690129 104.1049598   4.1363355
  92.8939992 101.2039978   2.6940014  92.9899992 101.8709978   2.0140014
  92.7539992 100.3889978   2.2130014  92.8882040 101.1850671   2.5358378
  92.0629992 102.5849978   8.3150014  91.9129992 101.6399978   8.2950014
  91.7089992 102.8659978   9.1590014  91.9946351 102.4936644   8.4263220
  77.0979992 104.6629978  12.3260014  77.2829992 104.5809978  11.3900014
  77.9479992 104.5389978  12.7490014  77.2380928 104.6350463  12.2552893
  92.9189992 104.5549978  17.9540014  93.5019992 103.8199978  18.1460014
  93.4829992 105.3269978  18.0010014  93.0749781 104.5588145  17.9866164
  94.4159992 102.4579978  18.6390014  93.5529992 102.0789978  18.4730014
  95.0199992 101.7189978  18.5640014  94.3796085 102.3063223  18.6061695
  92.1409992  98.6119978   1.8120014  92.7519992  98.2409978   2.4490014
  91.3039992  98.1909978   2.0080014  92.1114947  98.5042756   1.9257252
  91.7739992 100.1669978   6.7780014  92.0529992  99.2599978   6.9020014
  92.5329992 100.6009978   6.3890014  91.9148619 100.1014502   6.7423795
  92.3849992 100.7489978  12.2140014  93.3179992 100.9609978  12.1790014
  92.1499992 100.8499978  13.1360014  92.4809517 100.7916833  12.3339130
  92.4149992 101.4859978  14.9900014  91.5719992 101.7539978  15.3560014
  92.8569992 102.3079978  14.7790014  92.3594138 101.6338273  15.0115518
  76.6959992  99.9329978  18.4660014  77.6149992  99.8109978  18.7030014
  76.2459992  99.1829978  18.8560014  76.7610087  99.8149608  18.5511410
  94.6979992  95.4659978  20.3430014  95.0469992  94.8119978  19.7380014
  94.8449992  96.3029978  19.9030014  94.7656824  95.4896024  20.2006304
  92.3869992  97.4299978   6.8260014  92.5689992  96.9809978   7.6510014
  91.7869992  96.8459978   6.3620014  92.3308187  97.2895552   6.8762739
  77.9169992  98.2459978  11.3580014  78.3619992  97.4539978  11.6600014
  78.3829992  98.9619978  11.7880014  78.0409718  98.2344534  11.4575265
  76.2209992 101.2449978  12.4270014  76.7129992 101.0239978  11.6360014
  76.5829992 102.0849978  12.7080014  76.3372923 101.3283468  12.3567407
  94.2169992  97.5749978  18.6920014  93.2999992  97.8459978  18.6570014
  94.3399992  97.0399978  17.9080014  94.1079672  97.5397885  18.5811862
  94.2539992  97.4979978   3.3540014  94.6659992  96.7769978   2.8790014
  94.9349992  98.1669978   3.4120014  94.4025536  97.4897766   3.2968024
  76.5349992  97.5029978   6.4810014  75.6099992  97.7109978   6.3520014
  76.9889992  97.9869978   5.7910014  76.4696298  97.5969299   6.3700451
  91.3049992 112.4869978   8.4270014  91.9579992 112.1389978   7.8190014
  91.8159992 112.9749978   9.0730014  91.4632777 112.5053815   8.4312047
  76.4979992  96.2409978  14.8250014  75.8329992  95.9949978  15.4680014
  76.0549992  96.8629978  14.2480014  76.3471168  96.2914214  14.8349848
  78.6899992 109.4159978  18.9700014  77.8689992 109.5909978  18.5090014
  78.4379992 109.3429978  19.8900014  78.5435594 109.4300717  19.0313611
  81.6439992 110.3899978  15.2280014  81.2199992 111.1999978  14.9460014
  82.5489992 110.4759978  14.9260014  81.7082138 110.5124160  15.1486415
  85.9559992 111.7889978  18.1880014  86.1399992 111.4559978  19.0660014
  86.8019992 112.0989978  17.8660014  86.0956484 111.7852979  18.2647617
  88.3009992 113.0749978  17.4320014  88.9779992 112.4419978  17.1920014
  88.6219992 113.4759978  18.2390014  88.4371323 113.0425691  17.5083158
  93.2179992  95.6649978  16.5110014  92.4049992  95.9899978  16.1240014
  93.4509992  94.9039978  15.9780014  93.1381347  95.6066880  16.3859841
  79.0459992 113.6469978  15.2760014  78.3259992 114.0869978  14.8250014
  78.6809992 113.3959978  16.1240014  78.8979643 113.6733369  15.3289129
  81.5129992 113.2469978  14.3060014  80.6489992 113.3189978  14.7100014
  81.4579992 113.7939978  13.5220014  81.3871942 113.3307849  14.2554000
  86.2239992 113.1349978  13.4810014  85.7669992 113.6639978  12.8270014
  86.3869992 113.7379978  14.2060014  86.1834960 113.2889280  13.4895274
  88.5519992 112.0129978  14.4260014  87.6469992 112.1779978  14.1600014
  88.9799992 112.8659978  14.3600014  88.4861537 112.1509134  14.3807095
  91.1559992 113.5829978  14.7210014  90.9739992 114.4989978  14.5100014
  91.3329992 113.1719978  13.8740014  91.1550030 113.6528273  14.5777166
  78.4609992 112.2699978  12.1860014  78.4429992 111.8439978  13.0430014
  79.2659992 111.9509978  11.7770014  78.5672875 112.1686435  12.2479515
  80.6019992 110.9799978  10.8410014  80.3829992 110.0629978  11.0110014
  81.4259992 111.1199978  11.3070014  80.6834702 110.8735511  10.9272527
  83.1389992 111.4499978  11.6900014  83.3519992 110.5619978  11.4030014
  83.2039992 111.4149978  12.6440014  83.1769149 111.3238326  11.7797369
  86.6479992  97.1139978  10.8340014  85.9739992  96.4839978  11.0900014
  87.2119992  96.6299978  10.2310014  86.6320384  96.9623708  10.7875020
  91.7909992  95.2209978  10.9470014  92.3939992  95.7689978  10.4450014
  90.9209992  95.5399978  10.7060014  91.7559157  95.3390373  10.8457910
  93.5179992  96.3599978   9.2800014  94.1289992  95.8459978   8.7530014
  93.8999992  97.2369978   9.3030014  93.6533305  96.4082050   9.2109418
  78.9749992  95.7479978   8.6560014  78.1979992  95.5129978   8.1490014
  79.5049992  94.9509978   8.6650014  78.9403451  95.6081268   8.5878627
  77.8109992  95.5459978   4.4600014  78.2499992  96.1569978   3.8680014
  77.1769992  96.0839978   4.9340014  77.7853859  95.7024064   4.4430305
  83.5539992  95.6739978   8.4690014  84.4279992  96.0629978   8.4400014
  83.4179992  95.4589978   9.3920014  83.6551953  95.6981643   8.5897617
  89.1109992  95.7039978  10.1190014  89.1869992  95.7999978   9.1690014
  88.8359992  94.7969978  10.2470014  89.0841871  95.5944146  10.0063944
  90.4639992  95.7299978   5.8110014  89.7609992  96.3449978   5.6010014
  90.0189992  94.8929978   5.9420014  90.3076550  95.7009668   5.7999837
  77.7119992 111.4939978   5.3570014  77.0269992 111.4559978   4.6900014
  77.7159992 112.4069978   5.6450014  77.6187621 111.6121924   5.3046126
  79.6719992  97.4619978   2.9020014  80.1629992  96.8319978   2.3750014
  80.2949992  97.7579978   3.5650014  79.8235304  97.4157376   2.9194940
  84.6979992  97.7549978   5.3590014  84.8759992  97.1079978   6.0420014
  84.6439992  98.5889978   5.8260014  84.7150678  97.7791604   5.5156301
  86.5759992 112.7029978   3.7550014  87.4419992 113.0699978   3.5770014
  86.3299992 112.2639978   2.9410014  86.6612097 112.6938525   3.6206019
  93.2849992 112.2659978   6.4340014  93.0909992 111.5179978   5.8690014
  93.2459992 113.0239978   5.8510014  93.2531645 112.2660786   6.2778148
  78.9319992  96.2619978  18.1740014  78.5659992  95.4959978  18.6160014
  79.8449992  96.2909978  18.4600014  79.0053172  96.1610324  18.2731890
  80.9049992  95.6119978  19.7090014  81.8039992  95.3379978  19.5250014
  80.5189992  94.8699978  20.1740014  80.9757307  95.4742196  19.7467098
  79.5299992 112.4139978   2.3820014  79.2619992 112.6999978   3.2560014
  80.3009992 111.8679978   2.5350014  79.5975926 112.3792779   2.5221205
  89.3269992  94.9449978  19.8920014  89.4029992  94.5189978  20.7450014
  90.2199992  94.9579978  19.5490014  89.4582303  94.8883493  19.9625497
  92.5029992 111.0179978  18.5840014  91.7209992 110.8309978  18.0640014
  92.4309992 111.9469978  18.8010014  92.3861924 111.1180637  18.5421602
 106.9089992 104.9039978   8.6150014 106.9979992 105.8479978   8.4830014
 106.2709992 104.6289978   7.9570014 106.8349062 104.9959812   8.5079641
 105.8419992 104.1589978  12.0340014 105.8039992 103.5129978  12.7390014
 105.5199992 103.6919978  11.2630014 105.7932679 104.0074276  12.0262921
  98.2099992 103.7729978  13.6270014  98.2519992 103.1479978  14.3500014
  98.9129992 104.3969978  13.8090014  98.3107345 103.7717873  13.7505274
 109.5479992 107.0979978  10.3350014 109.1069992 106.3779978  10.7860014
 109.5349992 107.8189978  10.9650014 109.4859215 107.0969291  10.4818105
  99.1339992 108.2229978  12.1620014  98.7639992 107.4209978  11.7920014
 100.0749992 108.0549978  12.2080014  99.2105984 108.0904638  12.1175603
  95.7439992 101.8829978   7.5540014  95.2959992 102.7289978   7.5360014
  95.1829992 101.3039978   7.0390014  95.6068546 101.9203993   7.4818891
  96.4539992 104.0449978   9.6800014  96.6679992 103.2749978  10.2080014
  97.1919992 104.1349978   9.0770014  96.5830200 103.9518587   9.6707035
 106.6599992 112.2019978  10.5470014 107.2789992 111.5259978  10.2740014
 106.4509992 111.9839978  11.4560014 106.7166056 112.0798869  10.6323967
 104.2309992 106.5909978  12.4400014 104.5349992 105.9049978  11.8450014
 104.9529992 106.7099978  13.0580014 104.3701240 106.5132314  12.4420959
 112.8939992  98.1929978  13.3000014 112.9439992  98.8029978  14.0360014
 113.3199992  98.6539978  12.5770014 112.9584108  98.3387709  13.3030112
 107.3719992 100.9849978  12.7670014 107.5149992 100.0389978  12.7870014
 107.2659992 101.1919978  11.8390014 107.3772403 100.8834797  12.6442239
 100.5269992  99.0869978  10.0400014 100.5699992  99.9469978   9.6210014
 100.0689992  98.5349978   9.4060014 100.4709871  99.1299245   9.8970761
 108.2489992  99.2179978   8.4410014 108.8959992  98.8889978   9.0650014
 108.7589992  99.7349978   7.8180014 108.4064351  99.2429067   8.4421037
  97.1469992 101.4839978  10.8020014  97.8009992 100.9339978  11.2340014
  97.1709992 101.2099978   9.8850014  97.2397199 101.3717167  10.7371668
 102.3039992 103.0339978  10.0170014 102.9199992 102.5069978  10.5260014
 101.7169992 102.3939978   9.6130014 102.3090154 102.8753954  10.0320945
 113.2859992  99.6709978  15.5360014 112.5969992 100.3289978  15.4410014
 113.3009992  99.4729978  16.4730014 113.1937756  99.7342603  15.6495812
  99.3369992  98.0049978  14.1140014  99.1179992  98.5349978  13.3470014
  98.6689992  98.2309978  14.7610014  99.2166975  98.1080967  14.0965140
 106.7059992 107.5049978   7.6580014 106.4109992 107.1819978   6.8060014
 106.3819992 108.4049978   7.6990014 106.6218460 107.5824464   7.5469714
 101.9059992 105.6799978  14.4010014 101.1659992 106.2789978  14.5050014
 102.6199992 106.2339978  14.0860014 101.9013500 105.8367829  14.3726371
 110.0129992  98.5089978  10.4210014 109.7979992  97.7429978  10.9540014
 110.6689992  98.9809978  10.9340014 110.0722673  98.4680728  10.5631990
  98.9309992  99.8969978  12.0660014  99.5449992 100.5299978  12.4390014
  99.4429992  99.4249978  11.4100014  99.0841962  99.9197249  12.0282935
 100.3139992 107.6449978  15.1880014 100.3079992 108.5239978  14.8100014
  99.4599992 107.5609978  15.6130014 100.1977925 107.7539535  15.1936887
  96.4349992 107.3159978   5.9700014  96.1629992 107.5449978   5.0820014
  96.4799992 108.1529978   6.4310014  96.4038097 107.4606163   5.9106683
 110.0599992 108.9369978  12.6830014 109.1179992 108.9959978  12.8450014
 110.3359992 109.8429978  12.5460014 109.9685865 109.0675288  12.6866192
 110.3599992  97.2239978  14.1000014 109.6239992  97.8339978  14.0630014
 111.0439992  97.6389978  13.5740014 110.3515367  97.3637551  14.0238174
 103.3639992  95.3099978  11.5660014 103.2459992  94.3619978  11.5120014
 102.5089992  95.6429978  11.8390014 103.2322805  95.2252202  11.5955079
 108.3119992 110.7179978   9.3080014 108.7369992 110.0109978   8.8230014
 108.6289992 111.5199978   8.8910014 108.4130266 110.7295190   9.1852479
 109.4719992 108.6189978   7.8170014 109.2139992 107.9289978   7.2050014
 109.5429992 108.1759978   8.6620014 109.4463050 108.4646814   7.8475621
 111.1579992 107.1859978  16.2940014 111.2969992 106.5939978  15.5550014
 111.3249992 108.0589978  15.9380014 111.1996193 107.2228896  16.1446211
 105.6299992 104.1479978   6.0670014 104.9189992 104.6829978   5.7150014
 106.3209992 104.2029978   5.4070014 105.6260751 104.2286777   5.9295858
 105.6839992 102.6049978   3.1050014 106.3849992 102.6279978   3.7570014
 105.9859992 101.9769978   2.4490014 105.8208202 102.5232212   3.1055609
 112.9989992 103.5259978  14.3600014 112.3469992 104.2199978  14.4490014
 113.4649992 103.7359978  13.5500014 112.9725937 103.6495019  14.2627533
 109.0359992 104.3569978   7.0180014 108.3039992 104.5859978   7.5920014
 109.4829992 103.6439978   7.4730014 108.9963963 104.2918729   7.1579945
 108.9329992 102.5319978  16.0860014 109.0129992 103.2949978  16.6580014
 108.3319992 102.8109978  15.3960014 108.8626547 102.6742457  16.0710047
 100.6809992 104.9879978   8.9010014 100.3509992 104.6169978   8.0830014
 101.2699992 104.3169978   9.2480014 100.7153970 104.8466063   8.8359404
 102.0479992 108.4159978  11.5820014 101.9529992 107.8369978  10.8260014
 102.7769992 108.0449978  12.0780014 102.1336011 108.2865561  11.5456028
 101.0479992 103.7559978  12.5340014 101.6129992 103.8779978  11.7720014
 101.3669992 104.3939978  13.1730014 101.1684166 103.8588791  12.5160348
 107.3569992 109.2599978  13.2680014 107.1169992 109.9219978  13.9160014
 107.1589992 108.4249978  13.6930014 107.2973826 109.2378115  13.4141566
 101.9279992 108.1559978  17.2520014 101.6169992 108.9379978  17.7070014
 101.2779992 108.0029978  16.5660014 101.7975538 108.2424087  17.2215898
 107.9069992 103.5199978   4.7040014 108.4859992 103.6699978   5.4500014
 108.3209992 103.9899978   3.9800014 108.0423358 103.6040955   4.7083953
  98.8479992 104.3539978  16.4800014  98.9179992 105.0049978  17.1790014
  97.9569992 104.4569978  16.1450014  98.7371690 104.4569249  16.5303043
 105.6329992 110.2559978   8.1390014 106.1069992 110.5519978   8.9160014
 105.0699992 110.9949978   7.9060014 105.6217890 110.3963036   8.2138101
 100.1669992 110.2269978  18.0150014 100.1749992 110.0909978  17.0680014
  99.2509992 110.1099978  18.2670014 100.0442528 110.1925463  17.9193243
 111.6059992  95.2699978   4.5170014 110.7059992  95.4089978   4.8120014
 111.8579992  96.1009978   4.1150014 111.5168683  95.4014055   4.5030232
  99.6719992 104.0569978   6.4900014  99.3799992 104.8249978   5.9990014
  98.9969992 103.3979978   6.3270014  99.5408497 104.0729745   6.4008260
 112.7949992 109.6359978   2.8930014 112.8679992 110.5749978   3.0630014
 113.6999992 109.3309978   2.8370014 112.9274170 109.7233282   2.9087063
  95.7649992 106.4199978  15.3050014  95.2629992 106.3919978  14.4900014
  95.7699992 105.5149978  15.6150014  95.6969832 106.2937486  15.2354121
  95.5149992 109.2009978  12.1890014  96.4609992 109.0559978  12.1700014
  95.4019992 109.9849978  12.7260014  95.6293578 109.2871697  12.2590317
 113.7129992 109.8669978  17.8720014 113.6629992 108.9109978  17.8340014
 112.8859992 110.1339978  18.2730014 113.5943831 109.7724680  17.9210121
 104.6909992 109.4409978  16.7480014 104.7789992 110.2669978  17.2230014
 103.8279992 109.1109978  16.9970014 104.5863357 109.5095468  16.8467653
 105.1059992 113.2129978   6.5540014 105.0299992 113.0919978   5.6070014
 105.1379992 114.1619978   6.6720014 105.0999380 113.3247677   6.4405181
  98.7589992 112.0019978   8.3350014  98.9109992 111.6539978   9.2130014
  97.9079992 111.6449978   8.0790014  98.6648344 111.9060879   8.4206868
 108.2069992 112.3669978   3.5560014 108.5819992 111.6229978   3.0850014
 108.2119992 112.0969978   4.4740014 108.2590098 112.2286392   3.6156629
 107.8759992 112.2929978   6.3050014 106.9409992 112.3929978   6.4840014
 108.1559992 111.5829978   6.8840014 107.7859471 112.2107933   6.4076695
 110.8649992 101.3599978  18.3520014 110.4569992 101.8399978  17.6310014
 110.9049992 100.4539978  18.0440014 110.8146221 101.3032449  18.2118267
  98.0139992 107.7439978  16.3480014  98.2299992 107.3819978  17.2080014
  97.1579992 107.3689978  16.1390014  97.9278810 107.6438837  16.4372680
 100.6319992  96.2139978  12.3440014  99.7709992  96.1269978  11.9360014
 100.6099992  97.0699978  12.7720014 100.5110491  96.3178003  12.3459582
 105.2949992  95.9359978  15.7190014 105.7149992  95.5209978  16.4720014
 104.3619992  95.7569978  15.8360014 105.2263736  95.8549910  15.8378968
 108.6219992  99.6909978  16.5720014 108.1079992  99.5659978  17.3700014
 108.4659992 100.6039978  16.3280014 108.5306967  99.7972123  16.6480937
 109.3839992 104.5519978   2.3330014 109.4259992 104.3299978   1.4030014
 110.2329992 104.9509978   2.5230014 109.5045253 104.5755498   2.2313822
 104.9569992  98.4279978   3.0040014 104.7029992  98.4469978   3.9260014
 104.6999992  97.5569978   2.7020014 104.8874508  98.3128280   3.0894803
 100.7229992 101.1789978  13.4390014 100.0819992 101.1389978  14.1480014
 100.7609992 102.1059978  13.2010014 100.6403010 101.2987668  13.5039946
 100.7199992 101.3999978   8.3510014  99.8279992 101.0599978   8.2920014
 101.1709992 101.0229978   7.5950014 100.6587642 101.3024910   8.2407726
 106.2559992 101.8159978   7.1680014 105.8469992 102.6309978   6.8760014
 106.9759992 101.6759978   6.5540014 106.2974439 101.9085372   7.0450115
 105.3579992 101.9919978  18.6560014 104.7949992 101.2869978  18.9770014
 106.1839992 101.8709978  19.1240014 105.3926674 101.8792165  18.7631751
 107.2609992 101.2619978   9.9820014 107.0649992 101.8679978   9.2670014
 107.4419992 100.4289978   9.5480014 107.2586584 101.2322513   9.8254212
  98.4729992 101.4999978  15.3060014  98.4349992 101.8999978  16.1750014
  97.9829992 100.6829978  15.3960014  98.4015330 101.4442674  15.4371289
 101.8389992  98.8739978   2.1050014 101.4079992  98.4289978   2.8340014
 101.1209992  99.2449978   1.5920014 101.6829176  98.8632051   2.1354930
  95.0819992  98.6159978   9.1570014  95.7119992  98.5869978   9.8760014
  95.5309992  98.1909978   8.4260014  95.2290835  98.5545660   9.1567659
  96.3559992  99.3619978   4.5810014  96.8299992  99.9529978   3.9960014
  95.6379992  99.8919978   4.9280014  96.3238640  99.5145511   4.5477969
 106.5249992 102.8999978  14.6530014 106.8479992 102.2689978  14.0100014
 106.0839992 102.3659978  15.3140014 106.5096379 102.7413468  14.6542582
 103.3019992  98.8279978   9.4370014 102.3909992  98.8849978   9.7260014
 103.8069992  98.7679978  10.2480014 103.2456873  98.8276826   9.5861207
  98.1299992 100.4569978   8.2640014  97.2409992 100.5559978   7.9240014
  98.4269992  99.6149978   7.9180014  98.0484177 100.3567687   8.1706940
 101.7829992 100.4569978   5.9210014 102.7149992 100.5859978   6.0990014
 101.5679992 101.1259978   5.2710014 101.8814472 100.5650806   5.8574891
 107.7069992  98.0629978  12.7020014 107.0299992  98.1939978  13.3650014
 107.2219992  97.9079978  11.8910014 107.5487405  98.0599947  12.6832170
 100.4569992 101.6509978   3.4870014  99.9149992 101.2719978   2.7960014
 101.2909992 101.8459978   3.0590014 100.4954390 101.6254079   3.3344392
 110.9949992 113.7339978  18.9780014 111.1939992 114.1579978  18.1440014
 111.6499992 114.0779978  19.5850014 111.1108522 113.8386301  18.9457852
  98.5929992 106.2079978  18.5860014  99.3249992 106.4629978  19.1480014
  97.8119992 106.4129978  19.1020014  98.5876526 106.2705450  18.7325176
 104.6219992 101.6149978  11.3240014 105.1859992 101.0689978  10.7770014
 104.4739992 101.0939978  12.1130014 104.6793037 101.4696787  11.3557229
  99.6239992  97.7519978   7.7430014  99.3069992  96.8489978   7.7070014
 100.4049992  97.7539978   7.1900014  99.6862431  97.6287797   7.6633102
 103.2479992 100.0039978  13.7380014 102.4129992 100.4579978  13.8490014
 103.7719992 100.2799978  14.4900014 103.2046072 100.1033948  13.8548136
 103.7929992 106.2169978   5.4230014 103.0479992 105.7089978   5.1010014
 103.6579992 106.2659978   6.3690014 103.6728963 106.1541731   5.5068826
 110.9429992 105.3499978  14.2100014 111.5839992 105.8059978  13.6660014
 110.1119992 105.4629978  13.7470014 110.9185287 105.4276921  14.0729887
 107.6899992  99.0309978   3.6220014 106.7519992  99.1419978   3.4710014
 107.9879992  99.8869978   3.9290014 107.6016318  99.1620158   3.6428145
 105.3119992 106.4009978  16.6600014 104.9659992 106.0189978  17.4670014
 105.1119992 107.3339978  16.7310014 105.2375987 106.4749002  16.7800461
 108.4089992 100.8979978   5.2830014 109.3009992 100.7599978   5.6020014
 108.4649992 101.6889978   4.7460014 108.5387325 100.9859918   5.2541217
  98.9169992 105.5119978  11.1930014  99.6619992 105.5089978  10.5910014
  98.9949992 104.6879978  11.6740014  99.0293365 105.4002384  11.1757430
 105.9179992 107.6749978   4.4480014 105.6229992 108.5019978   4.8300014
 105.2149992 107.0559978   4.6450014 105.7826379 107.7044171   4.5268654
  95.9249992 103.9719978  16.5080014  96.1479992 103.5539978  17.3390014
  95.3229992 103.3599978  16.0850014  95.8741513 103.8319606  16.5646740
 102.9419992 103.4889978  18.7210014 102.6459992 103.3239978  17.8250014
 103.8729992 103.2689978  18.7100014 103.0274401 103.4366879  18.5970206
 107.5619992 108.8629978  16.6100014 106.6619992 109.0459978  16.3430014
 107.5959992 109.1219978  17.5310014 107.4433748 108.9230554  16.6979164
 113.2939992 101.1069978   4.9780014 112.7389992 100.7109978   4.3050014
 113.3939992 102.0179978   4.7000014 113.2316816 101.1759505   4.8485033
 113.2569992 106.9079978  17.8150014 112.4059992 107.1459978  17.4470014
 113.8469992 106.8909978  17.0620014 113.2203812 106.9382524  17.6628453
 111.5889992 109.8929978   5.4430014 111.2159992 109.0679978   5.7520014
 111.8659992 109.7099978   4.5450014 111.5753463 109.7552569   5.3639525
 108.7489992 104.7009978  12.4640014 107.8209992 104.4699978  12.4370014
 109.1999992 103.9239978  12.1340014 108.6828165 104.5642774  12.4156790
 101.2919992 109.0299978   8.5970014 101.8199992 109.8029978   8.3970014
 100.4119992 109.2539978   8.2950014 101.2453435 109.1662700   8.5287310
  97.0469992 103.8919978   3.1840014  97.6629992 104.5189978   3.5640014
  96.1849992 104.2079978   3.4560014  97.0147678 104.0204412   3.2727209
 102.7199992 106.6929978   8.1730014 102.4789992 107.6179978   8.2150014
 101.9789992 106.2339978   8.5700014 102.5869206 106.7575915   8.2323769
 103.2339992 110.8419978  14.4880014 103.5969992 111.6959978  14.2550014
 103.7659992 110.5499978  15.2290014 103.3555141 110.9193895  14.5562097
 101.4029992 111.7139978   7.7190014 100.4529992 111.8199978   7.7700014
 101.7549992 112.5349978   8.0630014 101.3205472 111.8394923   7.7724852
 106.7779992 106.9409978  14.1890014 106.3529992 106.7129978  15.0150014
 107.3589992 106.2019978  14.0070014 106.7983395 106.8099545  14.2774414
 108.9809992 107.8699978   3.2630014 109.3349992 107.4899978   4.0670014
 108.0329992 107.7759978   3.3500014 108.9012298 107.8052452   3.3848687
 109.4369992 111.4929978  16.6580014 108.8349992 110.9369978  16.1630014
 109.7179992 112.1599978  16.0320014 109.3925757 111.5070744  16.5055675
 113.4849992 112.3489978   3.4640014 114.2289992 112.9349978   3.3240014
 112.7909992 112.9179978   3.7970014 113.4929809 112.5060818   3.4898590
  97.5589992  98.7259978  16.0660014  96.6669992  99.0639978  15.9980014
  97.4609992  97.8699978  16.4840014  97.4234475  98.6566543  16.1131704
 109.8469992 106.5419978   5.4900014 109.5699992 105.8139978   6.0460014
 110.7749992 106.6609978   5.6950014 109.9344499 106.4584213   5.5938044
  97.2109992 110.5299978  14.5010014  97.4279992 109.5979978  14.4700014
  97.4569992 110.8049978  15.3840014  97.2739809 110.4395686  14.6161691
 103.0719992 108.9819978   1.7100014 103.3109992 108.2329978   1.1630014
 102.8029992 108.5939978   2.5430014 103.0683233 108.8271853   1.7477809
 102.0089992 108.5519978   4.1660014 102.1559992 108.0319978   4.9560014
 102.0059992 109.4589978   4.4730014 102.0287102 108.6033953   4.3155925
  98.4619992 105.8039978   4.6770014  97.7759992 106.1569978   5.2440014
  98.9849992 106.5669978   4.4300014  98.4388402 105.9553901   4.7211801
 106.2939992  98.4669978  14.9560014 106.9929992  98.5409978  15.6060014
 105.9129992  97.6019978  15.1100014 106.3382097  98.3602389  15.0657997
 107.0779992  98.1189978   6.0530014 107.2979992  98.5899978   5.2490014
 107.6369992  98.5129978   6.7230014 107.1836732  98.2367287   6.0335033
 104.7469992 110.2489978   4.9160014 103.9299992 110.7459978   4.9680014
 105.2759992 110.7249978   4.2750014 104.7068125 110.3811989   4.8365306
 104.2779992  99.8469978   6.8880014 105.0899992 100.3509978   6.9340014
 104.0339992  99.7019978   7.8020014 104.3561467  99.8963749   7.0178575
 104.8139992 100.8329978  16.0720014 104.9329992 101.4069978  16.8290014
 105.4689992 100.1449978  16.1870014 104.9188684 100.8185194  16.1911674
 105.1619992  96.9279978   7.8260014 104.8149992  97.5449978   8.4700014
 105.8209992  97.4289978   7.3440014 105.2035090  97.0801575   7.8490681
 102.0849992 111.2929978   4.8970014 102.2459992 112.0929978   4.3970014
 101.8879992 111.5999978   5.7820014 102.0803906 111.4438678   4.9482333
 100.8199992  97.9909978   4.5130014 100.7359992  98.8789978   4.8600014
 101.7099992  97.7259978   4.7450014 100.9288163  98.0767179   4.5918596
 111.0179992  98.7399978  16.9070014 110.1019992  99.0019978  16.8200014
 111.3539992  98.7369978  16.0110014 110.9378499  98.7755163  16.7738766
 109.6209992 102.4899978  11.0030014 108.8229992 102.0749978  10.6750014
 110.0659992 101.7999978  11.4940014 109.5719684 102.3398628  11.0245227
  99.0779992 108.4179978   3.5730014  99.6699992 109.1179978   3.8500014
  99.5369992 107.9849978   2.8540014  99.2211652 108.4552675   3.5136533
  97.3939992 101.0829978   2.6890014  97.3489992 102.0219978   2.8680014
  96.5059992 100.8469978   2.4200014  97.2678166 101.1796687   2.6771524
 110.7069992 111.7459978  12.6250014 110.5509992 112.4249978  11.9680014
 111.6399992 111.8179978  12.8280014 110.8117387 111.8486390  12.5625342
  98.2019992  95.8639978  11.3630014  97.9729992  95.9229978  10.4350014
  97.7599992  95.0729978  11.6690014  98.1108801  95.7650540  11.2774729
  97.1329992 109.8049978   7.5230014  96.2999992 110.2769978   7.5500014
  97.6779992 110.3149978   6.9240014  97.0927857 109.9384791   7.4457142
  96.4209992 112.4169978  18.8530014  96.9609992 112.2009978  19.6130014
  95.9399992 111.6119978  18.6630014  96.4299219 112.2785156  18.9314282
 101.0179992 111.3369978  20.4730014 101.7859992 110.8779978  20.8140014
 100.9969992 111.1109978  19.5430014 101.1202135 111.2436668  20.3939491
 105.1099992 110.8449978   1.8490014 104.4659992 110.2139978   2.1700014
 105.8719992 110.3139978   1.6170014 105.1248058 110.6867902   1.8616038
 107.5949992 109.7169978  19.2020014 107.2439992 108.8599978  19.4460014
 108.3209992 109.8589978  19.8090014 107.6451895 109.6191351  19.3173770
 109.7149992 110.6619978   2.0820014 109.9979992 109.8669978   2.5350014
 110.4539992 110.8949978   1.5210014 109.8537096 110.5847049   2.0681104
  96.3279992 106.2279978  19.8070014  96.4719992 105.3259978  19.5210014
  95.5559992 106.5139978  19.3200014  96.2432733 106.1431798  19.7019532
 100.6689992 106.5709978   1.9400014 100.7339992 105.7769978   2.4700014
 101.3219992 106.4529978   1.2500014 100.7661605 106.4463430   1.9192997
 102.9829992 106.1969978  19.2400014 102.6549992 106.4679978  18.3830014
 103.1349992 105.2559978  19.1520014 102.9586412 106.1069046  19.1107822
 106.0219992 107.6179978   1.6760014 105.7529992 107.7989978   2.5760014
 105.8149992 106.6929978   1.5440014 105.9571191 107.5177119   1.7815524
 108.7179992 106.1129978  16.6230014 109.4629992 106.7019978  16.5040014
 107.9609992 106.6949978  16.6870014 108.7175470 106.2722128  16.6153799
  97.1609992 103.4279978  19.2270014  97.5689992 102.5709978  19.1060014
  96.8999992 103.4419978  20.1480014  97.1816016 103.3125119  19.3349192
 101.8189992 104.5439978   4.2460014 101.3589992 104.0599978   4.9310014
 102.0739992 103.8749978   3.6100014 101.7904856 104.3873669   4.2538397
 101.1079992 102.4369978  16.6020014 100.4889992 103.1109978  16.8820014
 101.4519992 102.7579978  15.7680014 101.0697123 102.5726887  16.5276388
 102.8899992 102.7869978   2.5080014 102.7089992 102.6319978   1.5810014
 103.8399992 102.8949978   2.5530014 102.9936566 102.7803669   2.3870929
 106.1269992 104.9079978  19.8790014 107.0809992 104.9919978  19.8520014
 105.9669992 104.1959978  20.4990014 106.2357182 104.8232842  19.9590733
 112.2799992 105.1409978   1.9540014 112.0059992 104.7169978   1.1410014
 112.3189992 106.0729978   1.7370014 112.2477716 105.2088827   1.8134286
 101.4469992  99.7919978  17.6840014 101.5969992  99.0629978  17.0820014
 101.4489992 100.5689978  17.1250014 101.4677967  99.7972708  17.5260541
 101.8599992  98.1609978  15.1770014 102.3949992  98.6129978  14.5250014
 101.0069992  98.0529978  14.7540014 101.8180374  98.2082665  15.0306710
 103.4409992 103.6009978  15.4160014 104.1919992 103.4449978  14.8430014
 103.1019992 104.4529978  15.1410014 103.4979587 103.6948138  15.3004078
 107.8569992 101.4159978  20.4450014 108.0489992 100.4849978  20.3330014
 108.7149992 101.8409978  20.4340014 107.9992182 101.3460070  20.4281862
 109.1739992 104.2049978  18.5220014 108.8919992 104.9139978  17.9440014
 110.1159992 104.1319978  18.3710014 109.2627921 104.2922193  18.4224225
  99.9259992 100.9899978  19.5950014  99.1579992 100.4569978  19.3850014
 100.6039992 100.6799978  18.9960014  99.9127235 100.8751754  19.4852413
 102.6649992  95.6179978  15.6080014 102.5669992  96.5639978  15.5030014
 101.9229992  95.2449978  15.1320014 102.5512534  95.6971773  15.5292600
 103.9289992  99.9389978  19.1720014 103.6939992  99.7199978  20.0730014
 103.1459992  99.7319978  18.6620014 103.7909095  99.8809892  19.2265353
 106.6449992  99.0669978  18.2470014 105.6969992  99.0989978  18.3790014
 106.9569992  98.4409978  18.9010014 106.5575293  98.9867923  18.3534148
 108.2789992  97.7009978  20.2520014 108.1819992  96.7489978  20.2470014
 107.9569992  97.9689978  21.1130014 108.2222468  97.6070884  20.3676210
  98.1059992  98.9099978  19.3000014  98.3179992  98.2039978  18.6900014
  97.9949992  98.4729978  20.1440014  98.1200269  98.7541921  19.3305873
 102.8869992  94.9119978  18.2790014 103.5989992  94.2719978  18.2650014
 102.7859992  95.1779978  17.3660014 102.9707387  94.8604330  18.1535563
 103.2409992  96.5939978  20.3330014 103.1089992  96.1189978  19.5130014
 102.6409992  97.3389978  20.2780014 103.1419070  96.6295789  20.2133251
 102.7869992 113.4769978   3.5090014 103.7199992 113.6349978   3.6530014
 102.5229992 114.1529978   2.8840014 102.8789911 113.5899373   3.4442722
  96.3549992 108.1139978   2.9920014  97.2689992 108.1929978   3.2650014
  96.3629992 107.4269978   2.3260014  96.4810655 108.0319205   2.9392917
  95.0039992 113.5069978   8.0690014  94.3569992 113.0449978   7.5370014
  95.3589992 112.8349978   8.6520014  94.9633741 113.3529774   8.0749175
  95.8739992 111.5869978   9.8740014  95.5399992 110.7069978  10.0460014
  96.0969992 111.9329978  10.7390014  95.8583721 111.5131938  10.0144168
 113.4229992 112.3969978  12.8550014 113.4009992 112.5819978  13.7940014
 114.1129992 112.9649978  12.5140014 113.5133439 112.4991887  12.9374791
 112.9859992 111.9639978  15.7760014 112.4989992 111.2289978  15.4050014
 113.5349992 111.5699978  16.4540014 112.9935247 111.8101057  15.8168461
 111.4369992 107.7539978  20.4150014 110.5709992 107.6489978  20.8090014
 111.8129992 108.5119978  20.8610014 111.3693401 107.8421708  20.5292620
 112.7379992 106.0099978   5.9290014 113.5879992 106.4309978   6.0560014
 112.7429992 105.2699978   6.5360014 112.8551143 105.9676094   6.0284750
 113.1319992 104.0639978   7.7520014 112.4059992 103.5839978   8.1500014
 113.7139992 104.2689978   8.4850014 113.1112730 104.0260184   7.9054149
 112.8909992 106.8489978  12.7000014 113.7249992 106.4709978  12.4190014
 113.0029992 107.7919978  12.5810014 113.0201917 106.9247943  12.6454861
 111.3779992 109.7269978  15.0070014 110.7299992 110.0519978  15.6320014
 110.8599992 109.2859978  14.3330014 111.2194196 109.7118651  15.0014152
 113.4009992 103.9649978   4.1430014 112.8789992 104.3209978   3.4250014
 113.3679992 104.6399978   4.8220014 113.3250129 104.1049598   4.1363355
 111.7499992 101.2039978   2.6940014 111.8459992 101.8709978   2.0140014
 111.6099992 100.3889978   2.2130014 111.7442040 101.1850671   2.5358378
 110.9189992 102.5849978   8.3150014 110.7689992 101.6399978   8.2950014
 110.5649992 102.8659978   9.1590014 110.8506351 102.4936644   8.4263220
  95.9539992 104.6629978  12.3260014  96.1389992 104.5809978  11.3900014
  96.8039992 104.5389978  12.7490014  96.0940928 104.6350463  12.2552893
 111.7749992 104.5549978  17.9540014 112.3579992 103.8199978  18.1460014
 112.3389992 105.3269978  18.0010014 111.9309781 104.5588145  17.9866164
 113.2719992 102.4579978  18.6390014 112.4089992 102.0789978  18.4730014
 113.8759992 101.7189978  18.5640014 113.2356085 102.3063223  18.6061695
 110.9969992  98.6119978   1.8120014 111.6079992  98.2409978   2.4490014
 110.1599992  98.1909978   2.0080014 110.9674947  98.5042756   1.9257252
 110.6299992 100.1669978   6.7780014 110.9089992  99.2599978   6.9020014
 111.3889992 100.6009978   6.3890014 110.7708619 100.1014502   6.7423795
 111.2409992 100.7489978  12.2140014 112.1739992 100.9609978  12.1790014
 111.0059992 100.8499978  13.1360014 111.3369517 100.7916833  12.3339130
 111.2709992 101.4859978  14.9900014 110.4279992 101.7539978  15.3560014
 111.7129992 102.3079978  14.7790014 111.2154138 101.6338273  15.0115518
  95.5519992  99.9329978  18.4660014  96.4709992  99.8109978  18.7030014
  95.1019992  99.1829978  18.8560014  95.6170087  99.8149608  18.5511410
 113.5539992  95.4659978  20.3430014 113.9029992  94.8119978  19.7380014
 113.7009992  96.3029978  19.9030014 113.6216824  95.4896024  20.2006304
 111.2429992  97.4299978   6.8260014 111.4249992  96.9809978   7.6510014
 110.6429992  96.8459978   6.3620014 111.1868187  97.2895552   6.8762739
  96.7729992  98.2459978  11.3580014  97.2179992  97.4539978  11.6600014
  97.2389992  98.9619978  11.7880014  96.8969718  98.2344534  11.4575265
  95.0769992 101.2449978  12.4270014  95.5689992 101.0239978  11.6360014
  95.4389992 102.0849978  12.7080014  95.1932923 101.3283468  12.3567407
 113.0729992  97.5749978  18.6920014 112.1559992  97.8459978  18.6570014
 113.1959992  97.0399978  17.9080014 112.9639672  97.5397885  18.5811862
 113.1099992  97.4979978   3.3540014 113.5219992  96.7769978   2.8790014
 113.7909992  98.1669978   3.4120014 113.2585536  97.4897766   3.2968024
  95.3909992  97.5029978   6.4810014  94.4659992  97.7109978   6.3520014
  95.8449992  97.9869978   5.7910014  95.3256298  97.5969299   6.3700451
 110.1609992 112.4869978   8.4270014 110.8139992 112.1389978   7.8190014
 110.6719992 112.9749978   9.0730014 110.3192777 112.5053815   8.4312047
  95.3539992  96.2409978  14.8250014  94.6889992  95.9949978  15.4680014
  94.9109992  96.8629978  14.2480014  95.2031168  96.2914214  14.8349848
  97.5459992 109.4159978  18.9700014  96.7249992 109.5909978  18.5090014
  97.2939992 109.3429978  19.8900014  97.3995594 109.4300717  19.0313611
 100.4999992 110.3899978  15.2280014 100.0759992 111.1999978  14.9460014
 101.4049992 110.4759978  14.9260014 100.5642138 110.5124160  15.1486415
 104.8119992 111.7889978  18.1880014 104.9959992 111.4559978  19.0660014
 105.6579992 112.0989978  17.8660014 104.9516484 111.7852979  18.2647617
 107.1569992 113.0749978  17.4320014 107.8339992 112.4419978  17.1920014
 107.4779992 113.4759978  18.2390014 107.2931323 113.0425691  17.5083158
 112.0739992  95.6649978  16.5110014 111.2609992  95.9899978  16.1240014
 112.3069992  94.9039978  15.9780014 111.9941347  95.6066880  16.3859841
  97.9019992 113.6469978  15.2760014  97.1819992 114.0869978  14.8250014
  97.5369992 113.3959978  16.1240014  97.7539643 113.6733369  15.3289129
 100.3689992 113.2469978  14.3060014  99.5049992 113.3189978  14.7100014
 100.3139992 113.7939978  13.5220014 100.2431942 113.3307849  14.2554000
 105.0799992 113.1349978  13.4810014 104.6229992 113.6639978  12.8270014
 105.2429992 113.7379978  14.2060014 105.0394960 113.2889280  13.4895274
 107.4079992 112.0129978  14.4260014 106.5029992 112.1779978  14.1600014
 107.8359992 112.8659978  14.3600014 107.3421537 112.1509134  14.3807095
 110.0119992 113.5829978  14.7210014 109.8299992 114.4989978  14.5100014
 110.1889992 113.1719978  13.8740014 110.0110030 113.6528273  14.5777166
  97.3169992 112.2699978  12.1860014  97.2989992 111.8439978  13.0430014
  98.1219992 111.9509978  11.7770014  97.4232875 112.1686435  12.2479515
  99.4579992 110.9799978  10.8410014  99.2389992 110.0629978  11.0110014
 100.2819992 111.1199978  11.3070014  99.5394702 110.8735511  10.9272527
 101.9949992 111.4499978  11.6900014 102.2079992 110.5619978  11.4030014
 102.0599992 111.4149978  12.6440014 102.0329149 111.3238326  11.7797369
 105.5039992  97.1139978  10.8340014 104.8299992  96.4839978  11.0900014
 106.0679992  96.6299978  10.2310014 105.4880384  96.9623708  10.7875020
 110.6469992  95.2209978  10.9470014 111.2499992  95.7689978  10.4450014
 109.7769992  95.5399978  10.7060014 110.6119157  95.3390373  10.8457910
 112.3739992  96.3599978   9.2800014 112.9849992  95.8459978   8.7530014
 112.7559992  97.2369978   9.3030014 112.5093305  96.4082050   9.2109418
  97.8309992  95.7479978   8.6560014  97.0539992  95.5129978   8.1490014
  98.3609992  94.9509978   8.6650014  97.7963451  95.6081268   8.5878627
  96.6669992  95.5459978   4.4600014  97.1059992  96.1569978   3.8680014
  96.0329992  96.0839978   4.9340014  96.6413859  95.7024064   4.4430305
 102.4099992  95.6739978   8.4690014 103.2839992  96.0629978   8.4400014
 102.2739992  95.4589978   9.3920014 102.5111953  95.6981643   8.5897617
 107.9669992  95.7039978  10.1190014 108.0429992  95.7999978   9.1690014
 107.6919992  94.7969978  10.2470014 107.9401871  95.5944146  10.0063944
 109.3199992  95.7299978   5.8110014 108.6169992  96.3449978   5.6010014
 108.8749992  94.8929978   5.9420014 109.1636550  95.7009668   5.7999837
  96.5679992 111.4939978   5.3570014  95.8829992 111.4559978   4.6900014
  96.5719992 112.4069978   5.6450014  96.4747621 111.6121924   5.3046126
  98.5279992  97.4619978   2.9020014  99.0189992  96.8319978   2.3750014
  99.1509992  97.7579978   3.5650014  98.6795304  97.4157376   2.9194940
 103.5539992  97.7549978   5.3590014 103.7319992  97.1079978   6.0420014
 103.4999992  98.5889978   5.8260014 103.5710678  97.7791604   5.5156301
 105.4319992 112.7029978   3.7550014 106.2979992 113.0699978   3.5770014
 105.1859992 112.2639978   2.9410014 105.5172097 112.6938525   3.6206019
 112.1409992 112.2659978   6.4340014 111.9469992 111.5179978   5.8690014
 112.1019992 113.0239978   5.8510014 112.1091645 112.2660786   6.2778148
  97.7879992  96.2619978  18.1740014  97.4219992  95.4959978  18.6160014
  98.7009992  96.2909978  18.4600014  97.8613172  96.1610324  18.2731890
  99.7609992  95.6119978  19.7090014 100.6599992  95.3379978  19.5250014
  99.3749992  94.8699978  20.1740014  99.8317307  95.4742196  19.7467098
  98.3859992 112.4139978   2.3820014  98.1179992 112.6999978   3.2560014
  99.1569992 111.8679978   2.5350014  98.4535926 112.3792779   2.5221205
 108.1829992  94.9449978  19.8920014 108.2589992  94.5189978  20.7450014
 109.0759992  94.9579978  19.5490014 108.3142303  94.8883493  19.9625497
 111.3589992 111.0179978  18.5840014 110.5769992 110.8309978  18.0640014
 111.2869992 111.9469978  18.8010014 111.2421924 111.1180637  18.5421602
 125.7649992 104.9039978   8.6150014 125.8539992 105.8479978   8.4830014
 125.1269992 104.6289978   7.9570014 125.6909062 104.9959812   8.5079641
 124.6979992 104.1589978  12.0340014 124.6599992 103.5129978  12.7390014
 124.3759992 103.6919978  11.2630014 124.6492679 104.0074276  12.0262921
 117.0659992 103.7729978  13.6270014 117.1079992 103.1479978  14.3500014
 117.7689992 104.3969978  13.8090014 117.1667345 103.7717873  13.7505273
 128.4039992 107.0979978  10.3350014 127.9629992 106.3779978  10.7860014
 128.3909992 107.8189978  10.9650014 128.3419215 107.0969291  10.4818105
 117.9899992 108.2229978  12.1620014 117.6199992 107.4209978  11.7920014
 118.9309992 108.0549978  12.2080014 118.0665984 108.0904638  12.1175603
 114.5999992 101.8829978   7.5540014 114.1519992 102.7289978   7.5360014
 114.0389992 101.3039978   7.0390014 114.4628546 101.9203993   7.4818891
 115.3099992 104.0449978   9.6800014 115.5239992 103.2749978  10.2080014
 116.0479992 104.1349978   9.0770014 115.4390200 103.9518587   9.6707035
 125.5159992 112.2019978  10.5470014 126.1349992 111.5259978  10.2740014
 125.3069992 111.9839978  11.4560014 125.5726056 112.0798869  10.6323967
 123.0869992 106.5909978  12.4400014 123.3909992 105.9049978  11.8450014
 123.8089992 106.7099978  13.0580014 123.2261240 106.5132314  12.4420959
 131.7499992  98.1929978  13.3000014 131.7999992  98.8029978  14.0360014
 132.1759992  98.6539978  12.5770014 131.8144108  98.3387709  13.3030112
 126.2279992 100.9849978  12.7670014 126.3709992 100.0389978  12.7870014
 126.1219992 101.1919978  11.8390014 126.2332403 100.8834797  12.6442239
 119.3829992  99.0869978  10.0400014 119.4259992  99.9469978   9.6210014
 118.9249992  98.5349978   9.4060014 119.3269871  99.1299245   9.8970761
 127.1049992  99.2179978   8.4410014 127.7519992  98.8889978   9.0650014
 127.6149992  99.7349978   7.8180014 127.2624351  99.2429067   8.4421037
 116.0029992 101.4839978  10.8020014 116.6569992 100.9339978  11.2340014
 116.0269992 101.2099978   9.8850014 116.0957199 101.3717167  10.7371668
 121.1599992 103.0339978  10.0170014 121.7759992 102.5069978  10.5260014
 120.5729992 102.3939978   9.6130014 121.1650154 102.8753954  10.0320945
 132.1419992  99.6709978  15.5360014 131.4529992 100.3289978  15.4410014
 132.1569992  99.4729978  16.4730014 132.0497756  99.7342603  15.6495812
 118.1929992  98.0049978  14.1140014 117.9739992  98.5349978  13.3470014
 117.5249992  98.2309978  14.7610014 118.0726975  98.1080967  14.0965140
 125.5619992 107.5049978   7.6580014 125.2669992 107.1819978   6.8060014
 125.2379992 108.4049978   7.6990014 125.4778460 107.5824464   7.5469714
 120.7619992 105.6799978  14.4010014 120.0219992 106.2789978  14.5050014
 121.4759992 106.2339978  14.0860014 120.7573500 105.8367829  14.3726371
 128.8689992  98.5089978  10.4210014 128.6539992  97.7429978  10.9540014
 129.5249992  98.9809978  10.9340014 128.9282673  98.4680728  10.5631990
 117.7869992  99.8969978  12.0660014 118.4009992 100.5299978  12.4390014
 118.2989992  99.4249978  11.4100014 117.9401962  99.9197249  12.0282935
 119.1699992 107.6449978  15.1880014 119.1639992 108.5239978  14.8100014
 118.3159992 107.5609978  15.6130014 119.0537925 107.7539535  15.1936887
 115.2909992 107.3159978   5.9700014 115.0189992 107.5449978   5.0820014
 115.3359992 108.1529978   6.4310014 115.2598097 107.4606163   5.9106683
 128.9159992 108.9369978  12.6830014 127.9739992 108.9959978  12.8450014
 129.1919992 109.8429978  12.5460014 128.8245865 109.0675288  12.6866192
 129.2159992  97.2239978  14.1000014 128.4799992  97.8339978  14.0630014
 129.8999992  97.6389978  13.5740014 129.2075367  97.3637551  14.0238174
 122.2199992  95.3099978  11.5660014 122.1019992  94.3619978  11.5120014
 121.3649992  95.6429978  11.8390014 122.0882805  95.2252202  11.5955079
 127.1679992 110.7179978   9.3080014 127.5929992 110.0109978   8.8230014
 127.4849992 111.5199978   8.8910014 127.2690266 110.7295190   9.1852479
 128.3279992 108.6189978   7.8170014 128.0699992 107.9289978   7.2050014
 128.3989992 108.1759978   8.6620014 128.3023050 108.4646814   7.8475621
 130.0139992 107.1859978  16.2940014 130.1529992 106.5939978  15.5550014
 130.1809992 108.0589978  15.9380014 130.0556193 107.2228896  16.1446211
 124.4859992 104.1479978   6.0670014 123.7749992 104.6829978   5.7150014
 125.1769992 104.2029978   5.4070014 124.4820751 104.2286777   5.9295858
 124.5399992 102.6049978   3.1050014 125.2409992 102.6279978   3.7570014
 124.8419992 101.9769978   2.4490014 124.6768202 102.5232212   3.1055609
 131.8549992 103.5259978  14.3600014 131.2029992 104.2199978  14.4490014
 132.3209992 103.7359978  13.5500014 131.8285937 103.6495019  14.2627533
 127.8919992 104.3569978   7.0180014 127.1599992 104.5859978   7.5920014
 128.3389992 103.6439978   7.4730014 127.8523963 104.2918729   7.1579945
 127.7889992 102.5319978  16.0860014 127.8689992 103.2949978  16.6580014
 127.1879992 102.8109978  15.3960014 127.7186547 102.6742457  16.0710047
 119.5369992 104.9879978   8.9010014 119.2069992 104.6169978   8.0830014
 120.1259992 104.3169978   9.2480014 119.5713970 104.8466063   8.8359404
 120.9039992 108.4159978  11.5820014 120.8089992 107.8369978  10.8260014
 121.6329992 108.0449978  12.0780014 120.9896011 108.2865561  11.5456028
 119.9039992 103.7559978  12.5340014 120.4689992 103.8779978  11.7720014
 120.2229992 104.3939978  13.1730014 120.0244166 103.8588791  12.5160348
 126.2129992 109.2599978  13.2680014 125.9729992 109.9219978  13.9160014
 126.0149992 108.4249978  13.6930014 126.1533826 109.2378115  13.4141566
 120.7839992 108.1559978  17.2520014 120.4729992 108.9379978  17.7070014
 120.1339992 108.0029978  16.5660014 120.6535538 108.2424087  17.2215898
 126.7629992 103.5199978   4.7040014 127.3419992 103.6699978   5.4500014
 127.1769992 103.9899978   3.9800014 126.8983358 103.6040955   4.7083953
 117.7039992 104.3539978  16.4800014 117.7739992 105.0049978  17.1790014
 116.8129992 104.4569978  16.1450014 117.5931690 104.4569249  16.5303043
 124.4889992 110.2559978   8.1390014 124.9629992 110.5519978   8.9160014
 123.9259992 110.9949978   7.9060014 124.4777890 110.3963036   8.2138101
 119.0229992 110.2269978  18.0150014 119.0309992 110.0909978  17.0680014
 118.1069992 110.1099978  18.2670014 118.9002528 110.1925463  17.9193243
 130.4619992  95.2699978   4.5170014 129.5619992  95.4089978   4.8120014
 130.7139992  96.1009978   4.1150014 130.3728683  95.4014055   4.5030232
 118.5279992 104.0569978   6.4900014 118.2359992 104.8249978   5.9990014
 117.8529992 103.3979978   6.3270014 118.3968497 104.0729745   6.4008260
 131.6509992 109.6359978   2.8930014 131.7239992 110.5749978   3.0630014
 132.5559992 109.3309978   2.8370014 131.7834170 109.7233282   2.9087063
 114.6209992 106.4199978  15.3050014 114.1189992 106.3919978  14.4900014
 114.6259992 105.5149978  15.6150014 114.5529832 106.2937486  15.2354121
 114.3709992 109.2009978  12.1890014 115.3169992 109.0559978  12.1700014
 114.2579992 109.9849978  12.7260014 114.4853578 109.2871697  12.2590317
 132.5689992 109.8669978  17.8720014 132.5189992 108.9109978  17.8340014
 131.7419992 110.1339978  18.2730014 132.4503831 109.7724680  17.9210121
 123.5469992 109.4409978  16.7480014 123.6349992 110.2669978  17.2230014
 122.6839992 109.1109978  16.9970014 123.4423357 109.5095468  16.8467653
 123.9619992 113.2129978   6.5540014 123.8859992 113.0919978   5.6070014
 123.9939992 114.1619978   6.6720014 123.9559380 113.3247677   6.4405181
 117.6149992 112.0019978   8.3350014 117.7669992 111.6539978   9.2130014
 116.7639992 111.6449978   8.0790014 117.5208344 111.9060879   8.4206868
 127.0629992 112.3669978   3.5560014 127.4379992 111.6229978   3.0850014
 127.0679992 112.0969978   4.4740014 127.1150098 112.2286392   3.6156629
 126.7319992 112.2929978   6.3050014 125.7969992 112.3929978   6.4840014
 127.0119992 111.5829978   6.8840014 126.6419471 112.2107933   6.4076695
 129.7209992 101.3599978  18.3520014 129.3129992 101.8399978  17.6310014
 129.7609992 100.4539978  18.0440014 129.6706221 101.3032449  18.2118267
 116.8699992 107.7439978  16.3480014 117.0859992 107.3819978  17.2080014
 116.0139992 107.3689978  16.1390014 116.7838810 107.6438837  16.4372680
 119.4879992  96.2139978  12.3440014 118.6269992  96.1269978  11.9360014
 119.4659992  97.0699978  12.7720014 119.3670491  96.3178003  12.3459582
 124.1509992  95.9359978  15.7190014 124.5709992  95.5209978  16.4720014
 123.2179992  95.7569978  15.8360014 124.0823736  95.8549910  15.8378968
 127.4779992  99.6909978  16.5720014 126.9639992  99.5659978  17.3700014
 127.3219992 100.6039978  16.3280014 127.3866967  99.7972123  16.6480937
 128.2399992 104.5519978   2.3330014 128.2819992 104.3299978   1.4030014
 129.0889992 104.9509978   2.5230014 128.3605253 104.5755498   2.2313822
 123.8129992  98.4279978   3.0040014 123.5589992  98.4469978   3.9260014
 123.5559992  97.5569978   2.7020014 123.7434508  98.3128280   3.0894803
 119.5789992 101.1789978  13.4390014 118.9379992 101.1389978  14.1480014
 119.6169992 102.1059978  13.2010014 119.4963010 101.2987668  13.5039946
 119.5759992 101.3999978   8.3510014 118.6839992 101.0599978   8.2920014
 120.0269992 101.0229978   7.5950014 119.5147642 101.3024910   8.2407726
 125.1119992 101.8159978   7.1680014 124.7029992 102.6309978   6.8760014
 125.8319992 101.6759978   6.5540014 125.1534439 101.9085372   7.0450115
 124.2139992 101.9919978  18.6560014 123.6509992 101.2869978  18.9770014
 125.0399992 101.8709978  19.1240014 124.2486674 101.8792165  18.7631751
 126.1169992 101.2619978   9.9820014 125.9209992 101.8679978   9.2670014
 126.2979992 100.4289978   9.5480014 126.1146584 101.2322513   9.8254212
 117.3289992 101.4999978  15.3060014 117.2909992 101.8999978  16.1750014
 116.8389992 100.6829978  15.3960014 117.2575330 101.4442674  15.4371289
 120.6949992  98.8739978   2.1050014 120.2639992  98.4289978   2.8340014
 119.9769992  99.2449978   1.5920014 120.5389176  98.8632051   2.1354930
 113.9379992  98.6159978   9.1570014 114.5679992  98.5869978   9.8760014
 114.3869992  98.1909978   8.4260014 114.0850835  98.5545660   9.1567659
 115.2119992  99.3619978   4.5810014 115.6859992  99.9529978   3.9960014
 114.4939992  99.8919978   4.9280014 115.1798640  99.5145511   4.5477969
 125.3809992 102.8999978  14.6530014 125.7039992 102.2689978  14.0100014
 124.9399992 102.3659978  15.3140014 125.3656379 102.7413468  14.6542582
 122.1579992  98.8279978   9.4370014 121.2469992  98.8849978   9.7260014
 122.6629992  98.7679978  10.2480014 122.1016873  98.8276826   9.5861207
 116.9859992 100.4569978   8.2640014 116.0969992 100.5559978   7.9240014
 117.2829992  99.6149978   7.9180014 116.9044177 100.3567687   8.1706940
 120.6389992 100.4569978   5.9210014 121.5709992 100.5859978   6.0990014
 120.4239992 101.1259978   5.2710014 120.7374472 100.5650806   5.8574891
 126.5629992  98.0629978  12.7020014 125.8859992  98.1939978  13.3650014
 126.0779992  97.9079978  11.8910014 126.4047405  98.0599947  12.6832170
 119.3129992 101.6509978   3.4870014 118.7709992 101.2719978   2.7960014
 120.1469992 101.8459978   3.0590014 119.3514390 101.6254079   3.3344392
 129.8509992 113.7339978  18.9780014 130.0499992 114.1579978  18.1440014
 130.5059992 114.0779978  19.5850014 129.9668522 113.8386301  18.9457852
 117.4489992 106.2079978  18.5860014 118.1809992 106.4629978  19.1480014
 116.6679992 106.4129978  19.1020014 117.4436526 106.2705450  18.7325176
 123.4779992 101.6149978  11.3240014 124.0419992 101.0689978  10.7770014
 123.3299992 101.0939978  12.1130014 123.5353037 101.4696787  11.3557229
 118.4799992  97.7519978   7.7430014 118.1629992  96.8489978   7.7070014
 119.2609992  97.7539978   7.1900014 118.5422431  97.6287797   7.6633102
 122.1039992 100.0039978  13.7380014 121.2689992 100.4579978  13.8490014
 122.6279992 100.2799978  14.4900014 122.0606072 100.1033948  13.8548136
 122.6489992 106.2169978   5.4230014 121.9039992 105.7089978   5.1010014
 122.5139992 106.2659978   6.3690014 122.5288963 106.1541731   5.5068826
 129.7989992 105.3499978  14.2100014 130.4399992 105.8059978  13.6660014
 128.9679992 105.4629978  13.7470014 129.7745287 105.4276921  14.0729887
 126.5459992  99.0309978   3.6220014 125.6079992  99.1419978   3.4710014
 126.8439992  99.8869978   3.9290014 126.4576318  99.1620158   3.6428145
 124.1679992 106.4009978  16.6600014 123.8219992 106.0189978  17.4670014
 123.9679992 107.3339978  16.7310014 124.0935987 106.4749002  16.7800461
 127.2649992 100.8979978   5.2830014 128.1569992 100.7599978   5.6020014
 127.3209992 101.6889978   4.7460014 127.3947325 100.9859918   5.2541217
 117.7729992 105.5119978  11.1930014 118.5179992 105.5089978  10.5910014
 117.8509992 104.6879978  11.6740014 117.8853365 105.4002384  11.1757430
 124.7739992 107.6749978   4.4480014 124.4789992 108.5019978   4.8300014
 124.0709992 107.0559978   4.6450014 124.6386379 107.7044171   4.5268654
 114.7809992 103.9719978  16.5080014 115.0039992 103.5539978  17.3390014
 114.1789992 103.3599978  16.0850014 114.7301513 103.8319606  16.5646740
 121.7979992 103.4889978  18.7210014 121.5019992 103.3239978  17.8250014
 122.7289992 103.2689978  18.7100014 121.8834401 103.4366880  18.5970206
 126.4179992 108.8629978  16.6100014 125.5179992 109.0459978  16.3430014
 126.4519992 109.1219978  17.5310014 126.2993748 108.9230554  16.6979164
 132.1499992 101.1069978   4.9780014 131.5949992 100.7109978   4.3050014
 132.2499992 102.0179978   4.7000014 132.0876816 101.1759505   4.8485033
 132.1129992 106.9079978  17.8150014 131.2619992 107.1459978  17.4470014
 132.7029992 106.8909978  17.0620014 132.0763812 106.9382524  17.6628453
 130.4449992 109.8929978   5.4430014 130.0719992 109.0679978   5.7520014
 130.7219992 109.7099978   4.5450014 130.4313463 109.7552569   5.3639525
 127.6049992 104.7009978  12.4640014 126.6769992 104.4699978  12.4370014
 128.0559992 103.9239978  12.1340014 127.5388165 104.5642774  12.4156790
 120.1479992 109.0299978   8.5970014 120.6759992 109.8029978   8.3970014
 119.2679992 109.2539978   8.2950014 120.1013435 109.1662700   8.5287310
 115.9029992 103.8919978   3.1840014 116.5189992 104.5189978   3.5640014
 115.0409992 104.2079978   3.4560014 115.8707678 104.0204412   3.2727209
 121.5759992 106.6929978   8.1730014 121.3349992 107.6179978   8.2150014
 120.8349992 106.2339978   8.5700014 121.4429206 106.7575915   8.2323769
 122.0899992 110.8419978  14.4880014 122.4529992 111.6959978  14.2550014
 122.6219992 110.5499978  15.2290014 122.2115141 110.9193895  14.5562097
 120.2589992 111.7139978   7.7190014 119.3089992 111.8199978   7.7700014
 120.6109992 112.5349978   8.0630014 120.1765472 111.8394923   7.7724852
 125.6339992 106.9409978  14.1890014 125.2089992 106.7129978  15.0150014
 126.2149992 106.2019978  14.0070014 125.6543395 106.8099545  14.2774414
 127.8369992 107.8699978   3.2630014 128.1909992 107.4899978   4.0670014
 126.8889992 107.7759978   3.3500014 127.7572298 107.8052452   3.3848687
 128.2929992 111.4929978  16.6580014 127.6909992 110.9369978  16.1630014
 128.5739992 112.1599978  16.0320014 128.2485757 111.5070744  16.5055675
 132.3409992 112.3489978   3.4640014 133.0849992 112.9349978   3.3240014
 131.6469992 112.9179978   3.7970014 132.3489809 112.5060818   3.4898590
 116.4149992  98.7259978  16.0660014 115.5229992  99.0639978  15.9980014
 116.3169992  97.8699978  16.4840014 116.2794475  98.6566543  16.1131704
 128.7029992 106.5419978   5.4900014 128.4259992 105.8139978   6.0460014
 129.6309992 106.6609978   5.6950014 128.7904499 106.4584213   5.5938044
 116.0669992 110.5299978  14.5010014 116.2839992 109.5979978  14.4700014
 116.3129992 110.8049978  15.3840014 116.1299809 110.4395686  14.6161691
 121.9279992 108.9819978   1.7100014 122.1669992 108.2329978   1.1630014
 121.6589992 108.5939978   2.5430014 121.9243233 108.8271853   1.7477809
 120.8649992 108.5519978   4.1660014 121.0119992 108.0319978   4.9560014
 120.8619992 109.4589978   4.4730014 120.8847102 108.6033953   4.3155925
 117.3179992 105.8039978   4.6770014 116.6319992 106.1569978   5.2440014
 117.8409992 106.5669978   4.4300014 117.2948402 105.9553901   4.7211801
 125.1499992  98.4669978  14.9560014 125.8489992  98.5409978  15.6060014
 124.7689992  97.6019978  15.1100014 125.1942097  98.3602389  15.0657997
 125.9339992  98.1189978   6.0530014 126.1539992  98.5899978   5.2490014
 126.4929992  98.5129978   6.7230014 126.0396731  98.2367287   6.0335033
 123.6029992 110.2489978   4.9160014 122.7859992 110.7459978   4.9680014
 124.1319992 110.7249978   4.2750014 123.5628125 110.3811989   4.8365306
 123.1339992  99.8469978   6.8880014 123.9459992 100.3509978   6.9340014
 122.8899992  99.7019978   7.8020014 123.2121467  99.8963749   7.0178575
 123.6699992 100.8329978  16.0720014 123.7889992 101.4069978  16.8290014
 124.3249992 100.1449978  16.1870014 123.7748684 100.8185194  16.1911674
 124.0179992  96.9279978   7.8260014 123.6709992  97.5449978   8.4700014
 124.6769992  97.4289978   7.3440014 124.0595090  97.0801575   7.8490681
 120.9409992 111.2929978   4.8970014 121.1019992 112.0929978   4.3970014
 120.7439992 111.5999978   5.7820014 120.9363906 111.4438678   4.9482333
 119.6759992  97.9909978   4.5130014 119.5919992  98.8789978   4.8600014
 120.5659992  97.7259978   4.7450014 119.7848163  98.0767179   4.5918596
 129.8739992  98.7399978  16.9070014 128.9579992  99.0019978  16.8200014
 130.2099992  98.7369978  16.0110014 129.7938499  98.7755163  16.7738766
 128.4769992 102.4899978  11.0030014 127.6789992 102.0749978  10.6750014
 128.9219992 101.7999978  11.4940014 128.4279684 102.3398628  11.0245227
 117.9339992 108.4179978   3.5730014 118.5259992 109.1179978   3.8500014
 118.3929992 107.9849978   2.8540014 118.0771652 108.4552675   3.5136533
 116.2499992 101.0829978   2.6890014 116.2049992 102.0219978   2.8680014
 115.3619992 100.8469978   2.4200014 116.1238166 101.1796687   2.6771524
 129.5629992 111.7459978  12.6250014 129.4069992 112.4249978  11.9680014
 130.4959992 111.8179978  12.8280014 129.6677387 111.8486390  12.5625342
 117.0579992  95.8639978  11.3630014 116.8289992  95.9229978  10.4350014
 116.6159992  95.0729978  11.6690014 116.9668801  95.7650540  11.2774729
 115.9889992 109.8049978   7.5230014 115.1559992 110.2769978   7.5500014
 116.5339992 110.3149978   6.9240014 115.9487857 109.9384791   7.4457142
 115.2769992 112.4169978  18.8530014 115.8169992 112.2009978  19.6130014
 114.7959992 111.6119978  18.6630014 115.2859219 112.2785156  18.9314282
 119.8739992 111.3369978  20.4730014 120.6419992 110.8779978  20.8140014
 119.8529992 111.1109978  19.5430014 119.9762135 111.2436668  20.3939491
 123.9659992 110.8449978   1.8490014 123.3219992 110.2139978   2.1700014
 124.7279992 110.3139978   1.6170014 123.9808058 110.6867902   1.8616038
 126.4509992 109.7169978  19.2020014 126.0999992 108.8599978  19.4460014
 127.1769992 109.8589978  19.8090014 126.5011895 109.6191351  19.3173770
 128.5709992 110.6619978   2.0820014 128.8539992 109.8669978   2.5350014
 129.3099992 110.8949978   1.5210014 128.7097096 110.5847049   2.0681104
 115.1839992 106.2279978  19.8070014 115.3279992 105.3259978  19.5210014
 114.4119992 106.5139978  19.3200014 115.0992733 106.1431798  19.7019532
 119.5249992 106.5709978   1.9400014 119.5899992 105.7769978   2.4700014
 120.1779992 106.4529978   1.2500014 119.6221605 106.4463430   1.9192997
 121.8389992 106.1969978  19.2400014 121.5109992 106.4679978  18.3830014
 121.9909992 105.2559978  19.1520014 121.8146412 106.1069046  19.1107822
 124.8779992 107.6179978   1.6760014 124.6089992 107.7989978   2.5760014
 124.6709992 106.6929978   1.5440014 124.8131191 107.5177119   1.7815524
 127.5739992 106.1129978  16.6230014 128.3189992 106.7019978  16.5040014
 126.8169992 106.6949978  16.6870014 127.5735470 106.2722128  16.6153799
 116.0169992 103.4279978  19.2270014 116.4249992 102.5709978  19.1060014
 115.7559992 103.4419978  20.1480014 116.0376016 103.3125119  19.3349192
 120.6749992 104.5439978   4.2460014 120.2149992 104.0599978   4.9310014
 120.9299992 103.8749978   3.6100014 120.6464856 104.3873669   4.2538397
 119.9639992 102.4369978  16.6020014 119.3449992 103.1109978  16.8820014
 120.3079992 102.7579978  15.7680014 119.9257123 102.5726887  16.5276388
 121.7459992 102.7869978   2.5080014 121.5649992 102.6319978   1.5810014
 122.6959992 102.8949978   2.5530014 121.8496566 102.7803669   2.3870929
 124.9829992 104.9079978  19.8790014 125.9369992 104.9919978  19.8520014
 124.8229992 104.1959978  20.4990014 125.0917182 104.8232842  19.9590733
 131.1359992 105.1409978   1.9540014 130.8619992 104.7169978   1.1410014
 131.1749992 106.0729978   1.7370014 131.1037716 105.2088827   1.8134286
 120.3029992  99.7919978  17.6840014 120.4529992  99.0629978  17.0820014
 120.3049992 100.5689978  17.1250014 120.3237967  99.7972708  17.5260541
 120.7159992  98.1609978  15.1770014 121.2509992  98.6129978  14.5250014
 119.8629992  98.0529978  14.7540014 120.6740374  98.2082665  15.0306710
 122.2969992 103.6009978  15.4160014 123.0479992 103.4449978  14.8430014
 121.9579992 104.4529978  15.1410014 122.3539587 103.6948138  15.3004078
 126.7129992 101.4159978  20.4450014 126.9049992 100.4849978  20.3330014
 127.5709992 101.8409978  20.4340014 126.8552182 101.3460070  20.4281862
 128.0299992 104.2049978  18.5220014 127.7479992 104.9139978  17.9440014
 128.9719992 104.1319978  18.3710014 128.1187921 104.2922193  18.4224225
 118.7819992 100.9899978  19.5950014 118.0139992 100.4569978  19.3850014
 119.4599992 100.6799978  18.9960014 118.7687235 100.8751754  19.4852413
 121.5209992  95.6179978  15.6080014 121.4229992  96.5639978  15.5030014
 120.7789992  95.2449978  15.1320014 121.4072534  95.6971773  15.5292600
 122.7849992  99.9389978  19.1720014 122.5499992  99.7199978  20.0730014
 122.0019992  99.7319978  18.6620014 122.6469095  99.8809892  19.2265353
 125.5009992  99.0669978  18.2470014 124.5529992  99.0989978  18.3790014
 125.8129992  98.4409978  18.9010014 125.4135293  98.9867923  18.3534148
 127.1349992  97.7009978  20.2520014 127.0379992  96.7489978  20.2470014
 126.8129992  97.9689978  21.1130014 127.0782468  97.6070884  20.3676210
 116.9619992  98.9099978  19.3000014 117.1739992  98.2039978  18.6900014
 116.8509992  98.4729978  20.1440014 116.9760269  98.7541921  19.3305873
 121.7429992  94.9119978  18.2790014 122.4549992  94.2719978  18.2650014
 121.6419992  95.1779978  17.3660014 121.8267387  94.8604330  18.1535563
 122.0969992  96.5939978  20.3330014 121.9649992  96.1189978  19.5130014
 121.4969992  97.3389978  20.2780014 121.9979070  96.6295789  20.2133251
 121.6429992 113.4769978   3.5090014 122.5759992 113.6349978   3.6530014
 121.3789992 114.1529978   2.8840014 121.7349911 113.5899373   3.4442722
 115.2109992 108.1139978   2.9920014 116.1249992 108.1929978   3.2650014
 115.2189992 107.4269978   2.3260014 115.3370655 108.0319205   2.9392917
 113.8599992 113.5069978   8.0690014 113.2129992 113.0449978   7.5370014
 114.2149992 112.8349978   8.6520014 113.8193741 113.3529774   8.0749175
 114.7299992 111.5869978   9.8740014 114.3959992 110.7069978  10.0460014
 114.9529992 111.9329978  10.7390014 114.7143721 111.5131938  10.0144168
 132.2789992 112.3969978  12.8550014 132.2569992 112.5819978  13.7940014
 132.9689992 112.9649978  12.5140014 132.3693439 112.4991887  12.9374791
 131.8419992 111.9639978  15.7760014 131.3549992 111.2289978  15.4050014
 132.3909992 111.5699978  16.4540014 131.8495247 111.8101057  15.8168461
 130.2929992 107.7539978  20.4150014 129.4269992 107.6489978  20.8090014
 130.6689992 108.5119978  20.8610014 130.2253401 107.8421708  20.5292620
 131.5939992 106.0099978   5.9290014 132.4439992 106.4309978   6.0560014
 131.5989992 105.2699978   6.5360014 131.7111143 105.9676094   6.0284750
 131.9879992 104.0639978   7.7520014 131.2619992 103.5839978   8.1500014
 132.5699992 104.2689978   8.4850014 131.9672730 104.0260184   7.9054149
 131.7469992 106.8489978  12.7000014 132.5809992 106.4709978  12.4190014
 131.8589992 107.7919978  12.5810014 131.8761917 106.9247943  12.6454861
 130.2339992 109.7269978  15.0070014 129.5859992 110.0519978  15.6320014
 129.7159992 109.2859978  14.3330014 130.0754196 109.7118651  15.0014152
 132.2569992 103.9649978   4.1430014 131.7349992 104.3209978   3.4250014
 132.2239992 104.6399978   4.8220014 132.1810129 104.1049598   4.1363355
 130.6059992 101.2039978   2.6940014 130.7019992 101.8709978   2.0140014
 130.4659992 100.3889978   2.2130014 130.6002040 101.1850671   2.5358378
 129.7749992 102.5849978   8.3150014 129.6249992 101.6399978   8.2950014
 129.4209992 102.8659978   9.1590014 129.7066351 102.4936644   8.4263220
 114.8099992 104.6629978  12.3260014 114.9949992 104.5809978  11.3900014
 115.6599992 104.5389978  12.7490014 114.9500928 104.6350463  12.2552893
 130.6309992 104.5549978  17.9540014 131.2139992 103.8199978  18.1460014
 131.1949992 105.3269978  18.0010014 130.7869781 104.5588145  17.9866164
 132.1279992 102.4579978  18.6390014 131.2649992 102.0789978  18.4730014
 132.7319992 101.7189978  18.5640014 132.0916085 102.3063223  18.6061695
 129.8529992  98.6119978   1.8120014 130.4639992  98.2409978   2.4490014
 129.0159992  98.1909978   2.0080014 129.8234947  98.5042756   1.9257252
 129.4859992 100.1669978   6.7780014 129.7649992  99.2599978   6.9020014
 130.2449992 100.6009978   6.3890014 129.6268619 100.1014502   6.7423795
 130.0969992 100.7489978  12.2140014 131.0299992 100.9609978  12.1790014
 129.8619992 100.8499978  13.1360014 130.1929517 100.7916833  12.3339130
 130.1269992 101.4859978  14.9900014 129.2839992 101.7539978  15.3560014
 130.5689992 102.3079978  14.7790014 130.0714138 101.6338273  15.0115518
 114.4079992  99.9329978  18.4660014 115.3269992  99.8109978  18.7030014
 113.9579992  99.1829978  18.8560014 114.4730087  99.8149608  18.5511410
 132.4099992  95.4659978  20.3430014 132.7589992  94.8119978  19.7380014
 132.5569992  96.3029978  19.9030014 132.4776824  95.4896024  20.2006304
 130.0989992  97.4299978   6.8260014 130.2809992  96.9809978   7.6510014
 129.4989992  96.8459978   6.3620014 130.0428187  97.2895552   6.8762739
 115.6289992  98.2459978  11.3580014 116.0739992  97.4539978  11.6600014
 116.0949992  98.9619978  11.7880014 115.7529718  98.2344534  11.4575265
 113.9329992 101.2449978  12.4270014 114.4249992 101.0239978  11.6360014
 114.2949992 102.0849978  12.7080014 114.0492923 101.3283468  12.3567407
 131.9289992  97.5749978  18.6920014 131.0119992  97.8459978  18.6570014
 132.0519992  97.0399978  17.9080014 131.8199672  97.5397885  18.5811862
 131.9659992  97.4979978   3.3540014 132.3779992  96.7769978   2.8790014
 132.6469992  98.1669978   3.4120014 132.1145536  97.4897766   3.2968024
 114.2469992  97.5029978   6.4810014 113.3219992  97.7109978   6.3520014
 114.7009992  97.9869978   5.7910014 114.1816298  97.5969299   6.3700451
 129.0169992 112.4869978   8.4270014 129.6699992 112.1389978   7.8190014
 129.5279992 112.9749978   9.0730014 129.1752777 112.5053815   8.4312047
 114.2099992  96.2409978  14.8250014 113.5449992  95.9949978  15.4680014
 113.7669992  96.8629978  14.2480014 114.0591168  96.2914214  14.8349848
 116.4019992 109.4159978  18.9700014 115.5809992 109.5909978  18.5090014
 116.1499992 109.3429978  19.8900014 116.2555594 109.4300717  19.0313611
 119.3559992 110.3899978  15.2280014 118.9319992 111.1999978  14.9460014
 120.2609992 110.4759978  14.9260014 119.4202138 110.5124160  15.1486415
 123.6679992 111.7889978  18.1880014 123.8519992 111.4559978  19.0660014
 124.5139992 112.0989978  17.8660014 123.8076484 111.7852979  18.2647617
 126.0129992 113.0749978  17.4320014 126.6899992 112.4419978  17.1920014
 126.3339992 113.4759978  18.2390014 126.1491323 113.0425691  17.5083158
 130.9299992  95.6649978  16.5110014 130.1169992  95.9899978  16.1240014
 131.1629992  94.9039978  15.9780014 130.8501347  95.6066880  16.3859841
 116.7579992 113.6469978  15.2760014 116.0379992 114.0869978  14.8250014
 116.3929992 113.3959978  16.1240014 116.6099643 113.6733369  15.3289129
 119.2249992 113.2469978  14.3060014 118.3609992 113.3189978  14.7100014
 119.1699992 113.7939978  13.5220014 119.0991942 113.3307849  14.2554000
 123.9359992 113.1349978  13.4810014 123.4789992 113.6639978  12.8270014
 124.0989992 113.7379978  14.2060014 123.8954960 113.2889280  13.4895274
 126.2639992 112.0129978  14.4260014 125.3589992 112.1779978  14.1600014
 126.6919992 112.8659978  14.3600014 126.1981537 112.1509134  14.3807095
 128.8679992 113.5829978  14.7210014 128.6859992 114.4989978  14.5100014
 129.0449992 113.1719978  13.8740014 128.8670030 113.6528273  14.5777166
 116.1729992 112.2699978  12.1860014 116.1549992 111.8439978  13.0430014
 116.9779992 111.9509978  11.7770014 116.2792875 112.1686435  12.2479515
 118.3139992 110.9799978  10.8410014 118.0949992 110.0629978  11.0110014
 119.1379992 111.1199978  11.3070014 118.3954702 110.8735511  10.9272527
 120.8509992 111.4499978  11.6900014 121.0639992 110.5619978  11.4030014
 120.9159992 111.4149978  12.6440014 120.8889149 111.3238326  11.7797369
 124.3599992  97.1139978  10.8340014 123.6859992  96.4839978  11.0900014
 124.9239992  96.6299978  10.2310014 124.3440384  96.9623708  10.7875020
 129.5029992  95.2209978  10.9470014 130.1059992  95.7689978  10.4450014
 128.6329992  95.5399978  10.7060014 129.4679157  95.3390373  10.8457910
 131.2299992  96.3599978   9.2800014 131.8409992  95.8459978   8.7530014
 131.6119992  97.2369978   9.3030014 131.3653305  96.4082050   9.2109418
 116.6869992  95.7479978   8.6560014 115.9099992  95.5129978   8.1490014
 117.2169992  94.9509978   8.6650014 116.6523451  95.6081268   8.5878627
 115.5229992  95.5459978   4.4600014 115.9619992  96.1569978   3.8680014
 114.8889992  96.0839978   4.9340014 115.4973859  95.7024064   4.4430305
 121.2659992  95.6739978   8.4690014 122.1399992  96.0629978   8.4400014
 121.1299992  95.4589978   9.3920014 121.3671953  95.6981643   8.5897617
 126.8229992  95.7039978  10.1190014 126.8989992  95.7999978   9.1690014
 126.5479992  94.7969978  10.2470014 126.7961871  95.5944146  10.0063944
 128.1759992  95.7299978   5.8110014 127.4729992  96.3449978   5.6010014
 127.7309992  94.8929978   5.9420014 128.0196550  95.7009668   5.7999837
 115.4239992 111.4939978   5.3570014 114.7389992 111.4559978   4.6900014
 115.4279992 112.4069978   5.6450014 115.3307621 111.6121924   5.3046126
 117.3839992  97.4619978   2.9020014 117.8749992  96.8319978   2.3750014
 118.0069992  97.7579978   3.5650014 117.5355304  97.4157376   2.9194940
 122.4099992  97.7549978   5.3590014 122.5879992  97.1079978   6.0420014
 122.3559992  98.5889978   5.8260014 122.4270678  97.7791604   5.5156301
 124.2879992 112.7029978   3.7550014 125.1539992 113.0699978   3.5770014
 124.0419992 112.2639978   2.9410014 124.3732097 112.6938525   3.6206019
 130.9969992 112.2659978   6.4340014 130.8029992 111.5179978   5.8690014
 130.9579992 113.0239978   5.8510014 130.9651645 112.2660786   6.2778148
 116.6439992  96.2619978  18.1740014 116.2779992  95.4959978  18.6160014
 117.5569992  96.2909978  18.4600014 116.7173172  96.1610324  18.2731890
 118.6169992  95.6119978  19.7090014 119.5159992  95.3379978  19.5250014
 118.2309992  94.8699978  20.1740014 118.6877307  95.4742196  19.7467098
 117.2419992 112.4139978   2.3820014 116.9739992 112.6999978   3.2560014
 118.0129992 111.8679978   2.5350014 117.3095926 112.3792779   2.5221205
 127.0389992  94.9449978  19.8920014 127.1149992  94.5189978  20.7450014
 127.9319992  94.9579978  19.5490014 127.1702303  94.8883493  19.9625497
 130.2149992 111.0179978  18.5840014 129.4329992 110.8309978  18.0640014
 130.1429992 111.9469978  18.8010014 130.0981924 111.1180637  18.5421602
 144.6209992 104.9039978   8.6150014 144.7099992 105.8479978   8.4830014
 143.9829992 104.6289978   7.9570014 144.5469061 104.9959812   8.5079641
 143.5539992 104.1589978  12.0340014 143.5159992 103.5129978  12.7390014
 143.2319992 103.6919978  11.2630014 143.5052679 104.0074276  12.0262921
 135.9219992 103.7729978  13.6270014 135.9639992 103.1479978  14.3500014
 136.6249992 104.3969978  13.8090014 136.0227345 103.7717873  13.7505273
 136.8459992 108.2229978  12.1620014 136.4759992 107.4209978  11.7920014
 137.7869992 108.0549978  12.2080014 136.9225984 108.0904638  12.1175603
 133.4559992 101.8829978   7.5540014 133.0079992 102.7289978   7.5360014
 132.8949992 101.3039978   7.0390014 133.3188546 101.9203993   7.4818891
 134.1659992 104.0449978   9.6800014 134.3799992 103.2749978  10.2080014
 134.9039992 104.1349978   9.0770014 134.2950200 103.9518587   9.6707035
 144.3719992 112.2019978  10.5470014 144.9909992 111.5259978  10.2740014
 144.1629992 111.9839978  11.4560014 144.4286056 112.0798869  10.6323967
 141.9429992 106.5909978  12.4400014 142.2469992 105.9049978  11.8450014
 142.6649992 106.7099978  13.0580014 142.0821240 106.5132314  12.4420959
 145.0839992 100.9849978  12.7670014 145.2269992 100.0389978  12.7870014
 144.9779992 101.1919978  11.8390014 145.0892403 100.8834797  12.6442239
 138.2389992  99.0869978  10.0400014 138.2819992  99.9469978   9.6210014
 137.7809992  98.5349978   9.4060014 138.1829871  99.1299245   9.8970761
 134.8589992 101.4839978  10.8020014 135.5129992 100.9339978  11.2340014
 134.8829992 101.2099978   9.8850014 134.9517199 101.3717167  10.7371668
 140.0159992 103.0339978  10.0170014 140.6319992 102.5069978  10.5260014
 139.4289992 102.3939978   9.6130014 140.0210154 102.8753954  10.0320945
 137.0489992  98.0049978  14.1140014 136.8299992  98.5349978  13.3470014
 136.3809992  98.2309978  14.7610014 136.9286975  98.1080967  14.0965140
 144.4179992 107.5049978   7.6580014 144.1229992 107.1819978   6.8060014
 144.0939992 108.4049978   7.6990014 144.3338460 107.5824464   7.5469714
 139.6179992 105.6799978  14.4010014 138.8779992 106.2789978  14.5050014
 140.3319992 106.2339978  14.0860014 139.6133500 105.8367829  14.3726371
 136.6429992  99.8969978  12.0660014 137.2569992 100.5299978  12.4390014
 137.1549992  99.4249978  11.4100014 136.7961962  99.9197249  12.0282935
 138.0259992 107.6449978  15.1880014 138.0199992 108.5239978  14.8100014
 137.1719992 107.5609978  15.6130014 137.9097925 107.7539535  15.1936887
 134.1469992 107.3159978   5.9700014 133.8749992 107.5449978   5.0820014
 134.1919992 108.1529978   6.4310014 134.1158097 107.4606163   5.9106683
 141.0759992  95.3099978  11.5660014 140.9579992  94.3619978  11.5120014
 140.2209992  95.6429978  11.8390014 140.9442805  95.2252202  11.5955079
 143.3419992 104.1479978   6.0670014 142.6309992 104.6829978   5.7150014
 144.0329992 104.2029978   5.4070014 143.3380751 104.2286777   5.9295858
 143.3959992 102.6049978   3.1050014 144.0969992 102.6279978   3.7570014
 143.6979992 101.9769978   2.4490014 143.5328202 102.5232212   3.1055609
 138.3929992 104.9879978   8.9010014 138.0629992 104.6169978   8.0830014
 138.9819992 104.3169978   9.2480014 138.4273970 104.8466063   8.8359404
 139.7599992 108.4159978  11.5820014 139.6649992 107.8369978  10.8260014
 140.4889992 108.0449978  12.0780014 139.8456011 108.2865561  11.5456028
 138.7599992 103.7559978  12.5340014 139.3249992 103.8779978  11.7720014
 139.0789992 104.3939978  13.1730014 138.8804166 103.8588791  12.5160348
 145.0689992 109.2599978  13.2680014 144.8289992 109.9219978  13.9160014
 144.8709992 108.4249978  13.6930014 145.0093826 109.2378115  13.4141566
 139.6399992 108.1559978  17.2520014 139.3289992 108.9379978  17.7070014
 138.9899992 108.0029978  16.5660014 139.5095538 108.2424087  17.2215898
 136.5599992 104.3539978  16.4800014 136.6299992 105.0049978  17.1790014
 135.6689992 104.4569978  16.1450014 136.4491690 104.4569249  16.5303043
 143.3449992 110.2559978   8.1390014 143.8189992 110.5519978   8.9160014
 142.7819992 110.9949978   7.9060014 143.3337890 110.3963036   8.2138101
 137.8789992 110.2269978  18.0150014 137.8869992 110.0909978  17.0680014
 136.9629992 110.1099978  18.2670014 137.7562528 110.1925463  17.9193243
 137.3839992 104.0569978   6.4900014 137.0919992 104.8249978   5.9990014
 136.7089992 103.3979978   6.3270014 137.2528497 104.0729745   6.4008260
 133.4769992 106.4199978  15.3050014 132.9749992 106.3919978  14.4900014
 133.4819992 105.5149978  15.6150014 133.4089832 106.2937486  15.2354121
 133.2269992 109.2009978  12.1890014 134.1729992 109.0559978  12.1700014
 133.1139992 109.9849978  12.7260014 133.3413578 109.2871697  12.2590317
 142.4029992 109.4409978  16.7480014 142.4909992 110.2669978  17.2230014
 141.5399992 109.1109978  16.9970014 142.2983357 109.5095468  16.8467653
 142.8179992 113.2129978   6.5540014 142.7419992 113.0919978   5.6070014
 142.8499992 114.1619978   6.6720014 142.8119380 113.3247677   6.4405181
 136.4709992 112.0019978   8.3350014 136.6229992 111.6539978   9.2130014
 135.6199992 111.6449978   8.0790014 136.3768344 111.9060879   8.4206868
 135.7259992 107.7439978  16.3480014 135.9419992 107.3819978  17.2080014
 134.8699992 107.3689978  16.1390014 135.6398810 107.6438837  16.4372680
 138.3439992  96.2139978  12.3440014 137.4829992  96.1269978  11.9360014
 138.3219992  97.0699978  12.7720014 138.2230491  96.3178003  12.3459582
 143.0069992  95.9359978  15.7190014 143.4269992  95.5209978  16.4720014
 142.0739992  95.7569978  15.8360014 142.9383736  95.8549910  15.8378968
 142.6689992  98.4279978   3.0040014 142.4149992  98.4469978   3.9260014
 142.4119992  97.5569978   2.7020014 142.5994508  98.3128280   3.0894803
 138.4349992 101.1789978  13.4390014 137.7939992 101.1389978  14.1480014
 138.4729992 102.1059978  13.2010014 138.3523010 101.2987668  13.5039946
 138.4319992 101.3999978   8.3510014 137.5399992 101.0599978   8.2920014
 138.8829992 101.0229978   7.5950014 138.3707642 101.3024910   8.2407726
 143.9679992 101.8159978   7.1680014 143.5589992 102.6309978   6.8760014
 144.6879992 101.6759978   6.5540014 144.0094439 101.9085372   7.0450115
 143.0699992 101.9919978  18.6560014 142.5069992 101.2869978  18.9770014
 143.8959992 101.8709978  19.1240014 143.1046674 101.8792165  18.7631751
 144.9729992 101.2619978   9.9820014 144.7769992 101.8679978   9.2670014
 145.1539992 100.4289978   9.5480014 144.9706584 101.2322513   9.8254212
 136.1849992 101.4999978  15.3060014 136.1469992 101.8999978  16.1750014
 135.6949992 100.6829978  15.3960014 136.1135330 101.4442674  15.4371289
 139.5509992  98.8739978   2.1050014 139.1199992  98.4289978   2.8340014
 138.8329992  99.2449978   1.5920014 139.3949176  98.8632051   2.1354930
 132.7939992  98.6159978   9.1570014 133.4239992  98.5869978   9.8760014
 133.2429992  98.1909978   8.4260014 132.9410835  98.5545660   9.1567659
 134.0679992  99.3619978   4.5810014 134.5419992  99.9529978   3.9960014
 133.3499992  99.8919978   4.9280014 134.0358640  99.5145511   4.5477969
 144.2369992 102.8999978  14.6530014 144.5599992 102.2689978  14.0100014
 143.7959992 102.3659978  15.3140014 144.2216379 102.7413468  14.6542582
 141.0139992  98.8279978   9.4370014 140.1029992  98.8849978   9.7260014
 141.5189992  98.7679978  10.2480014 140.9576873  98.8276826   9.5861207
 135.8419992 100.4569978   8.2640014 134.9529992 100.5559978   7.9240014
 136.1389992  99.6149978   7.9180014 135.7604177 100.3567687   8.1706940
 139.4949992 100.4569978   5.9210014 140.4269992 100.5859978   6.0990014
 139.2799992 101.1259978   5.2710014 139.5934472 100.5650806   5.8574891
 145.4189992  98.0629978  12.7020014 144.7419992  98.1939978  13.3650014
 144.9339992  97.9079978  11.8910014 145.2607405  98.0599947  12.6832170
 138.1689992 101.6509978   3.4870014 137.6269992 101.2719978   2.7960014
 139.0029992 101.8459978   3.0590014 138.2074390 101.6254079   3.3344392
 136.3049992 106.2079978  18.5860014 137.0369992 106.4629978  19.1480014
 135.5239992 106.4129978  19.1020014 136.2996526 106.2705450  18.7325176
 142.3339992 101.6149978  11.3240014 142.8979992 101.0689978  10.7770014
 142.1859992 101.0939978  12.1130014 142.3913037 101.4696787  11.3557229
 137.3359992  97.7519978   7.7430014 137.0189992  96.8489978   7.7070014
 138.1169992  97.7539978   7.1900014 137.3982431  97.6287797   7.6633102
 140.9599992 100.0039978  13.7380014 140.1249992 100.4579978  13.8490014
 141.4839992 100.2799978  14.4900014 140.9166072 100.1033948  13.8548136
 141.5049992 106.2169978   5.4230014 140.7599992 105.7089978   5.1010014
 141.3699992 106.2659978   6.3690014 141.3848963 106.1541731   5.5068826
 145.4019992  99.0309978   3.6220014 144.4639992  99.1419978   3.4710014
 145.6999992  99.8869978   3.9290014 145.3136318  99.1620158   3.6428145
 143.0239992 106.4009978  16.6600014 142.6779992 106.0189978  17.4670014
 142.8239992 107.3339978  16.7310014 142.9495987 106.4749002  16.7800461
 136.6289992 105.5119978  11.1930014 137.3739992 105.5089978  10.5910014
 136.7069992 104.6879978  11.6740014 136.7413365 105.4002384  11.1757430
 143.6299992 107.6749978   4.4480014 143.3349992 108.5019978   4.8300014
 142.9269992 107.0559978   4.6450014 143.4946379 107.7044171   4.5268654
 133.6369992 103.9719978  16.5080014 133.8599992 103.5539978  17.3390014
 133.0349992 103.3599978  16.0850014 133.5861513 103.8319606  16.5646740
 140.6539992 103.4889978  18.7210014 140.3579992 103.3239978  17.8250014
 141.5849992 103.2689978  18.7100014 140.7394401 103.4366879  18.5970206
 145.2739992 108.8629978  16.6100014 144.3739992 109.0459978  16.3430014
 145.3079992 109.1219978  17.5310014 145.1553748 108.9230554  16.6979164
 139.0039992 109.0299978   8.5970014 139.5319992 109.8029978   8.3970014
 138.1239992 109.2539978   8.2950014 138.9573435 109.1662700   8.5287310
 134.7589992 103.8919978   3.1840014 135.3749992 104.5189978   3.5640014
 133.8969992 104.2079978   3.4560014 134.7267678 104.0204412   3.2727209
 140.4319992 106.6929978   8.1730014 140.1909992 107.6179978   8.2150014
 139.6909992 106.2339978   8.5700014 140.2989206 106.7575915   8.2323769
 140.9459992 110.8419978  14.4880014 141.3089992 111.6959978  14.2550014
 141.4779992 110.5499978  15.2290014 141.0675141 110.9193895  14.5562097
 139.1149992 111.7139978   7.7190014 138.1649992 111.8199978   7.7700014
 139.4669992 112.5349978   8.0630014 139.0325472 111.8394923   7.7724852
 144.4899992 106.9409978  14.1890014 144.0649992 106.7129978  15.0150014
 145.0709992 106.2019978  14.0070014 144.5103395 106.8099545  14.2774414
 135.2709992  98.7259978  16.0660014 134.3789992  99.0639978  15.9980014
 135.1729992  97.8699978  16.4840014 135.1354475  98.6566543  16.1131704
 134.9229992 110.5299978  14.5010014 135.1399992 109.5979978  14.4700014
 135.1689992 110.8049978  15.3840014 134.9859809 110.4395686  14.6161691
 140.7839992 108.9819978   1.7100014 141.0229992 108.2329978   1.1630014
 140.5149992 108.5939978   2.5430014 140.7803233 108.8271853   1.7477809
 139.7209992 108.5519978   4.1660014 139.8679992 108.0319978   4.9560014
 139.7179992 109.4589978   4.4730014 139.7407102 108.6033953   4.3155925
 136.1739992 105.8039978   4.6770014 135.4879992 106.1569978   5.2440014
 136.6969992 106.5669978   4.4300014 136.1508402 105.9553901   4.7211801
 144.0059992  98.4669978  14.9560014 144.7049992  98.5409978  15.6060014
 143.6249992  97.6019978  15.1100014 144.0502097  98.3602389  15.0657997
 144.7899992  98.1189978   6.0530014 145.0099992  98.5899978   5.2490014
 145.3489992  98.5129978   6.7230014 144.8956732  98.2367287   6.0335033
 142.4589992 110.2489978   4.9160014 141.6419992 110.7459978   4.9680014
 142.9879992 110.7249978   4.2750014 142.4188125 110.3811989   4.8365306
 141.9899992  99.8469978   6.8880014 142.8019992 100.3509978   6.9340014
 141.7459992  99.7019978   7.8020014 142.0681467  99.8963749   7.0178575
 142.5259992 100.8329978  16.0720014 142.6449992 101.4069978  16.8290014
 143.1809992 100.1449978  16.1870014 142.6308684 100.8185194  16.1911674
 142.8739992  96.9279978   7.8260014 142.5269992  97.5449978   8.4700014
 143.5329992  97.4289978   7.3440014 142.9155090  97.0801575   7.8490681
 139.7969992 111.2929978   4.8970014 139.9579992 112.0929978   4.3970014
 139.5999992 111.5999978   5.7820014 139.7923906 111.4438678   4.9482333
 138.5319992  97.9909978   4.5130014 138.4479992  98.8789978   4.8600014
 139.4219992  97.7259978   4.7450014 138.6408163  98.0767179   4.5918596
 136.7899992 108.4179978   3.5730014 137.3819992 109.1179978   3.8500014
 137.2489992 107.9849978   2.8540014 136.9331652 108.4552675   3.5136533
 135.1059992 101.0829978   2.6890014 135.0609992 102.0219978   2.8680014
 134.2179992 100.8469978   2.4200014 134.9798166 101.1796687   2.6771524
 135.9139992  95.8639978  11.3630014 135.6849992  95.9229978  10.4350014
 135.4719992  95.0729978  11.6690014 135.8228801  95.7650540  11.2774729
 134.8449992 109.8049978   7.5230014 134.0119992 110.2769978   7.5500014
 135.3899992 110.3149978   6.9240014 134.8047857 109.9384791   7.4457142
 134.1329992 112.4169978  18.8530014 134.6729992 112.2009978  19.6130014
 133.6519992 111.6119978  18.6630014 134.1419219 112.2785156  18.9314282
 138.7299992 111.3369978  20.4730014 139.4979992 110.8779978  20.8140014
 138.7089992 111.1109978  19.5430014 138.8322135 111.2436668  20.3939491
 142.8219992 110.8449978   1.8490014 142.1779992 110.2139978   2.1700014
 143.5839992 110.3139978   1.6170014 142.8368058 110.6867902   1.8616038
 145.3069992 109.7169978  19.2020014 144.9559992 108.8599978  19.4460014
 146.0329992 109.8589978  19.8090014 145.3571895 109.6191351  19.3173770
 134.0399992 106.2279978  19.8070014 134.1839992 105.3259978  19.5210014
 133.2679992 106.5139978  19.3200014 133.9552733 106.1431798  19.7019532
 138.3809992 106.5709978   1.9400014 138.4459992 105.7769978   2.4700014
 139.0339992 106.4529978   1.2500014 138.4781605 106.4463430   1.9192997
 140.6949992 106.1969978  19.2400014 140.3669992 106.4679978  18.3830014
 140.8469992 105.2559978  19.1520014 140.6706412 106.1069046  19.1107822
 143.7339992 107.6179978   1.6760014 143.4649992 107.7989978   2.5760014
 143.5269992 106.6929978   1.5440014 143.6691191 107.5177119   1.7815524
 134.8729992 103.4279978  19.2270014 135.2809992 102.5709978  19.1060014
 134.6119992 103.4419978  20.1480014 134.8936016 103.3125119  19.3349192
 139.5309992 104.5439978   4.2460014 139.0709992 104.0599978   4.9310014
 139.7859992 103.8749978   3.6100014 139.5024856 104.3873669   4.2538397
 138.8199992 102.4369978  16.6020014 138.2009992 103.1109978  16.8820014
 139.1639992 102.7579978  15.7680014 138.7817123 102.5726887  16.5276388
 140.6019992 102.7869978   2.5080014 140.4209992 102.6319978   1.5810014
 141.5519992 102.8949978   2.5530014 140.7056566 102.7803669   2.3870929
 143.8389992 104.9079978  19.8790014 144.7929992 104.9919978  19.8520014
 143.6789992 104.1959978  20.4990014 143.9477182 104.8232842  19.9590733
 139.1589992  99.7919978  17.6840014 139.3089992  99.0629978  17.0820014
 139.1609992 100.5689978  17.1250014 139.1797967  99.7972708  17.5260541
 139.5719992  98.1609978  15.1770014 140.1069992  98.6129978  14.5250014
 138.7189992  98.0529978  14.7540014 139.5300374  98.2082665  15.0306710
 141.1529992 103.6009978  15.4160014 141.9039992 103.4449978  14.8430014
 140.8139992 104.4529978  15.1410014 141.2099587 103.6948138  15.3004078
 145.5689992 101.4159978  20.4450014 145.7609992 100.4849978  20.3330014
 146.4269992 101.8409978  20.4340014 145.7112182 101.3460070  20.4281862
 137.6379992 100.9899978  19.5950014 136.8699992 100.4569978  19.3850014
 138.3159992 100.6799978  18.9960014 137.6247235 100.8751754  19.4852413
 140.3769992  95.6179978  15.6080014 140.2789992  96.5639978  15.5030014
 139.6349992  95.2449978  15.1320014 140.2632534  95.6971773  15.5292600
 141.6409992  99.9389978  19.1720014 141.4059992  99.7199978  20.0730014
 140.8579992  99.7319978  18.6620014 141.5029095  99.8809892  19.2265353
 144.3569992  99.0669978  18.2470014 143.4089992  99.0989978  18.3790014
 144.6689992  98.4409978  18.9010014 144.2695293  98.9867923  18.3534148
 135.8179992  98.9099978  19.3000014 136.0299992  98.2039978  18.6900014
 135.7069992  98.4729978  20.1440014 135.8320269  98.7541921  19.3305873
 140.5989992  94.9119978  18.2790014 141.3109992  94.2719978  18.2650014
 140.4979992  95.1779978  17.3660014 140.6827387  94.8604330  18.1535563
 140.9529992  96.5939978  20.3330014 140.8209992  96.1189978  19.5130014
 140.3529992  97.3389978  20.2780014 140.8539070  96.6295789  20.2133251
 140.4989992 113.4769978   3.5090014 141.4319992 113.6349978   3.6530014
 140.2349992 114.1529978   2.8840014 140.5909911 113.5899373   3.4442722
 134.0669992 108.1139978   2.9920014 134.9809992 108.1929978   3.2650014
 134.0749992 107.4269978   2.3260014 134.1930655 108.0319205   2.9392917
 132.7159992 113.5069978   8.0690014 132.0689992 113.0449978   7.5370014
 133.0709992 112.8349978   8.6520014 132.6753741 113.3529774   8.0749175
 133.5859992 111.5869978   9.8740014 133.2519992 110.7069978  10.0460014
 133.8089992 111.9329978  10.7390014 133.5703721 111.5131938  10.0144168
 133.6659992 104.6629978  12.3260014 133.8509992 104.5809978  11.3900014
 134.5159992 104.5389978  12.7490014 133.8060928 104.6350463  12.2552893
 133.2639992  99.9329978  18.4660014 134.1829992  99.8109978  18.7030014
 132.8139992  99.1829978  18.8560014 133.3290087  99.8149608  18.5511410
 134.4849992  98.2459978  11.3580014 134.9299992  97.4539978  11.6600014
 134.9509992  98.9619978  11.7880014 134.6089718  98.2344534  11.4575265
 132.7889992 101.2449978  12.4270014 133.2809992 101.0239978  11.6360014
 133.1509992 102.0849978  12.7080014 132.9052923 101.3283468  12.3567407
 133.1029992  97.5029978   6.4810014 132.1779992  97.7109978   6.3520014
 133.5569992  97.9869978   5.7910014 133.0376298  97.5969299   6.3700451
 133.0659992  96.2409978  14.8250014 132.4009992  95.9949978  15.4680014
 132.6229992  96.8629978  14.2480014 132.9151168  96.2914214  14.8349848
 135.2579992 109.4159978  18.9700014 134.4369992 109.5909978  18.5090014
 135.0059992 109.3429978  19.8900014 135.1115594 109.4300717  19.0313611
 138.2119992 110.3899978  15.2280014 137.7879992 111.1999978  14.9460014
 139.1169992 110.4759978  14.9260014 138.2762138 110.5124160  15.1486415
 142.5239992 111.7889978  18.1880014 142.7079992 111.4559978  19.0660014
 143.3699992 112.0989978  17.8660014 142.6636484 111.7852979  18.2647617
 144.8689992 113.0749978  17.4320014 145.5459992 112.4419978  17.1920014
 145.1899992 113.4759978  18.2390014 145.0051323 113.0425691  17.5083158
 135.6139992 113.6469978  15.2760014 134.8939992 114.0869978  14.8250014
 135.2489992 113.3959978  16.1240014 135.4659643 113.6733369  15.3289129
 138.0809992 113.2469978  14.3060014 137.2169992 113.3189978  14.7100014
 138.0259992 113.7939978  13.5220014 137.9551942 113.3307849  14.2554000
 142.7919992 113.1349978  13.4810014 142.3349992 113.6639978  12.8270014
 142.9549992 113.7379978  14.2060014 142.7514960 113.2889280  13.4895274
 145.1199992 112.0129978  14.4260014 144.2149992 112.1779978  14.1600014
 145.5479992 112.8659978  14.3600014 145.0541537 112.1509134  14.3807095
 135.0289992 112.2699978  12.1860014 135.0109992 111.8439978  13.0430014
 135.8339992 111.9509978  11.7770014 135.1352875 112.1686435  12.2479515
 137.1699992 110.9799978  10.8410014 136.9509992 110.0629978  11.0110014
 137.9939992 111.1199978  11.3070014 137.2514702 110.8735511  10.9272527
 139.7069992 111.4499978  11.6900014 139.9199992 110.5619978  11.4030014
 139.7719992 111.4149978  12.6440014 139.7449149 111.3238326  11.7797369
 143.2159992  97.1139978  10.8340014 142.5419992  96.4839978  11.0900014
 143.7799992  96.6299978  10.2310014 143.2000384  96.9623708  10.7875020
 135.5429992  95.7479978   8.6560014 134.7659992  95.5129978   8.1490014
 136.0729992  94.9509978   8.6650014 135.5083451  95.6081268   8.5878627
 134.3789992  95.5459978   4.4600014 134.8179992  96.1569978   3.8680014
 133.7449992  96.0839978   4.9340014 134.3533859  95.7024064   4.4430305
 140.1219992  95.6739978   8.4690014 140.9959992  96.0629978   8.4400014
 139.9859992  95.4589978   9.3920014 140.2231953  95.6981643   8.5897617
 134.2799992 111.4939978   5.3570014 133.5949992 111.4559978   4.6900014
 134.2839992 112.4069978   5.6450014 134.1867621 111.6121924   5.3046126
 136.2399992  97.4619978   2.9020014 136.7309992  96.8319978   2.3750014
 136.8629992  97.7579978   3.5650014 136.3915304  97.4157376   2.9194940
 141.2659992  97.7549978   5.3590014 141.4439992  97.1079978   6.0420014
 141.2119992  98.5889978   5.8260014 141.2830678  97.7791604   5.5156301
 143.1439992 112.7029978   3.7550014 144.0099992 113.0699978   3.5770014
 142.8979992 112.2639978   2.9410014 143.2292097 112.6938525   3.6206019
 135.4999992  96.2619978  18.1740014 135.1339992  95.4959978  18.6160014
 136.4129992  96.2909978  18.4600014 135.5733172  96.1610324  18.2731890
 137.4729992  95.6119978  19.7090014 138.3719992  95.3379978  19.5250014
 137.0869992  94.8699978  20.1740014 137.5437307  95.4742196  19.7467098
 136.0979992 112.4139978   2.3820014 135.8299992 112.6999978   3.2560014
 136.8689992 111.8679978   2.5350014 136.1655926 112.3792779   2.5221205
  12.6289992 123.7599978   8.6150014  12.7179992 124.7039978   8.4830014
  11.9909992 123.4849978   7.9570014  12.5549062 123.8519812   8.5079641
  11.5619992 123.0149978  12.0340014  11.5239992 122.3689978  12.7390014
  11.2399992 122.5479978  11.2630014  11.5132679 122.8634276  12.0262921
   3.9299992 122.6289978  13.6270014   3.9719992 122.0039978  14.3500014
   4.6329992 123.2529978  13.8090014   4.0307345 122.6277873  13.7505274
  15.2679992 125.9539978  10.3350014  14.8269992 125.2339978  10.7860014
  15.2549992 126.6749978  10.9650014  15.2059215 125.9529291  10.4818105
   4.8539992 127.0789978  12.1620014   4.4839992 126.2769978  11.7920014
   5.7949992 126.9109978  12.2080014   4.9305984 126.9464638  12.1175603
   1.4639992 120.7389978   7.5540014   1.0159992 121.5849978   7.5360014
   0.9029992 120.1599978   7.0390014   1.3268546 120.7763993   7.4818891
   2.1739992 122.9009978   9.6800014   2.3879992 122.1309978  10.2080014
   2.9119992 122.9909978   9.0770014   2.3030200 122.8078586   9.6707035
  12.3799992 131.0579978  10.5470014  12.9989992 130.3819978  10.2740014
  12.1709992 130.8399978  11.4560014  12.4366056 130.9358869  10.6323967
   9.9509992 125.4469978  12.4400014  10.2549992 124.7609978  11.8450014
  10.6729992 125.5659978  13.0580014  10.0901240 125.3692314  12.4420959
  18.6139992 117.0489978  13.3000014  18.6639992 117.6589978  14.0360014
  19.0399992 117.5099978  12.5770014  18.6784108 117.1947709  13.3030112
  13.0919992 119.8409978  12.7670014  13.2349992 118.8949978  12.7870014
  12.9859992 120.0479978  11.8390014  13.0972403 119.7394797  12.6442239
   6.2469992 117.9429978  10.0400014   6.2899992 118.8029978   9.6210014
   5.7889992 117.3909978   9.4060014   6.1909871 117.9859245   9.8970761
  13.9689992 118.0739978   8.4410014  14.6159992 117.7449978   9.0650014
  14.4789992 118.5909978   7.8180014  14.1264351 118.0989067   8.4421037
   2.8669992 120.3399978  10.8020014   3.5209992 119.7899978  11.2340014
   2.8909992 120.0659978   9.8850014   2.9597199 120.2277167  10.7371668
   8.0239992 121.8899978  10.0170014   8.6399992 121.3629978  10.5260014
   7.4369992 121.2499978   9.6130014   8.0290154 121.7313954  10.0320945
  19.0059992 118.5269978  15.5360014  18.3169992 119.1849978  15.4410014
  19.0209992 118.3289978  16.4730014  18.9137756 118.5902603  15.6495812
   5.0569992 116.8609978  14.1140014   4.8379992 117.3909978  13.3470014
   4.3889992 117.0869978  14.7610014   4.9366975 116.9640967  14.0965140
  12.4259992 126.3609978   7.6580014  12.1309992 126.0379978   6.8060014
  12.1019992 127.2609978   7.6990014  12.3418460 126.4384464   7.5469714
   7.6259992 124.5359978  14.4010014   6.8859992 125.1349978  14.5050014
   8.3399992 125.0899978  14.0860014   7.6213500 124.6927829  14.3726371
  15.7329992 117.3649978  10.4210014  15.5179992 116.5989978  10.9540014
  16.3889992 117.8369978  10.9340014  15.7922673 117.3240728  10.5631990
   4.6509992 118.7529978  12.0660014   5.2649992 119.3859978  12.4390014
   5.1629992 118.2809978  11.4100014   4.8041962 118.7757249  12.0282935
   6.0339992 126.5009978  15.1880014   6.0279992 127.3799978  14.8100014
   5.1799992 126.4169978  15.6130014   5.9177925 126.6099535  15.1936887
   2.1549992 126.1719978   5.9700014   1.8829992 126.4009978   5.0820014
   2.1999992 127.0089978   6.4310014   2.1238097 126.3166163   5.9106683
  15.7799992 127.7929978  12.6830014  14.8379992 127.8519978  12.8450014
  16.0559992 128.6989978  12.5460014  15.6885865 127.9235288  12.6866192
  16.0799992 116.0799978  14.1000014  15.3439992 116.6899978  14.0630014
  16.7639992 116.4949978  13.5740014  16.0715367 116.2197551  14.0238174
   9.0839992 114.1659978  11.5660014   8.9659992 113.2179978  11.5120014
   8.2289992 114.4989978  11.8390014   8.9522805 114.0812202  11.5955079
  14.0319992 129.5739978   9.3080014  14.4569992 128.8669978   8.8230014
  14.3489992 130.3759978   8.8910014  14.1330266 129.5855190   9.1852479
  15.1919992 127.4749978   7.8170014  14.9339992 126.7849978   7.2050014
  15.2629992 127.0319978   8.6620014  15.1663050 127.3206814   7.8475621
  16.8779992 126.0419978  16.2940014  17.0169992 125.4499978  15.5550014
  17.0449992 126.9149978  15.9380014  16.9196193 126.0788896  16.1446211
  11.3499992 123.0039978   6.0670014  10.6389992 123.5389978   5.7150014
  12.0409992 123.0589978   5.4070014  11.3460751 123.0846777   5.9295858
  11.4039992 121.4609978   3.1050014  12.1049992 121.4839978   3.7570014
  11.7059992 120.8329978   2.4490014  11.5408202 121.3792212   3.1055609
  18.7189992 122.3819978  14.3600014  18.0669992 123.0759978  14.4490014
  19.1849992 122.5919978  13.5500014  18.6925937 122.5055019  14.2627533
  14.7559992 123.2129978   7.0180014  14.0239992 123.4419978   7.5920014
  15.2029992 122.4999978   7.4730014  14.7163963 123.1478729   7.1579945
  14.6529992 121.3879978  16.0860014  14.7329992 122.1509978  16.6580014
  14.0519992 121.6669978  15.3960014  14.5826547 121.5302457  16.0710047
   6.4009992 123.8439978   8.9010014   6.0709992 123.4729978   8.0830014
   6.9899992 123.1729978   9.2480014   6.4353970 123.7026063   8.8359404
   7.7679992 127.2719978  11.5820014   7.6729992 126.6929978  10.8260014
   8.4969992 126.9009978  12.0780014   7.8536011 127.1425561  11.5456028
   6.7679992 122.6119978  12.5340014   7.3329992 122.7339978  11.7720014
   7.0869992 123.2499978  13.1730014   6.8884166 122.7148791  12.5160348
  13.0769992 128.1159978  13.2680014  12.8369992 128.7779978  13.9160014
  12.8789992 127.2809978  13.6930014  13.0173826 128.0938115  13.4141566
   7.6479992 127.0119978  17.2520014   7.3369992 127.7939978  17.7070014
   6.9979992 126.8589978  16.5660014   7.5175538 127.0984087  17.2215898
  13.6269992 122.3759978   4.7040014  14.2059992 122.5259978   5.4500014
  14.0409992 122.8459978   3.9800014  13.7623358 122.4600954   4.7083953
   4.5679992 123.2099978  16.4800014   4.6379992 123.8609978  17.1790014
   3.6769992 123.3129978  16.1450014   4.4571690 123.3129249  16.5303043
  11.3529992 129.1119978   8.1390014  11.8269992 129.4079978   8.9160014
  10.7899992 129.8509978   7.9060014  11.3417890 129.2523036   8.2138101
   5.8869992 129.0829978  18.0150014   5.8949992 128.9469978  17.0680014
   4.9709992 128.9659978  18.2670014   5.7642528 129.0485463  17.9193243
  17.3259992 114.1259978   4.5170014  16.4259992 114.2649978   4.8120014
  17.5779992 114.9569978   4.1150014  17.2368683 114.2574055   4.5030232
   5.3919992 122.9129978   6.4900014   5.0999992 123.6809978   5.9990014
   4.7169992 122.2539978   6.3270014   5.2608497 122.9289745   6.4008260
  18.5149992 128.4919978   2.8930014  18.5879992 129.4309978   3.0630014
  19.4199992 128.1869978   2.8370014  18.6474170 128.5793282   2.9087063
   1.4849992 125.2759978  15.3050014   0.9829992 125.2479978  14.4900014
   1.4899992 124.3709978  15.6150014   1.4169832 125.1497486  15.2354121
   1.2349992 128.0569978  12.1890014   2.1809992 127.9119978  12.1700014
   1.1219992 128.8409978  12.7260014   1.3493578 128.1431697  12.2590317
  19.4329992 128.7229978  17.8720014  19.3829992 127.7669978  17.8340014
  18.6059992 128.9899978  18.2730014  19.3143831 128.6284680  17.9210121
  10.4109992 128.2969978  16.7480014  10.4989992 129.1229978  17.2230014
   9.5479992 127.9669978  16.9970014  10.3063357 128.3655468  16.8467653
  10.8259992 132.0689978   6.5540014  10.7499992 131.9479978   5.6070014
  10.8579992 133.0179978   6.6720014  10.8199380 132.1807677   6.4405181
   4.4789992 130.8579978   8.3350014   4.6309992 130.5099978   9.2130014
   3.6279992 130.5009978   8.0790014   4.3848344 130.7620879   8.4206868
  13.9269992 131.2229978   3.5560014  14.3019992 130.4789978   3.0850014
  13.9319992 130.9529978   4.4740014  13.9790098 131.0846392   3.6156629
  13.5959992 131.1489978   6.3050014  12.6609992 131.2489978   6.4840014
  13.8759992 130.4389978   6.8840014  13.5059471 131.0667933   6.4076695
  16.5849992 120.2159978  18.3520014  16.1769992 120.6959978  17.6310014
  16.6249992 119.3099978  18.0440014  16.5346221 120.1592449  18.2118267
   3.7339992 126.5999978  16.3480014   3.9499992 126.2379978  17.2080014
   2.8779992 126.2249978  16.1390014   3.6478810 126.4998837  16.4372680
   6.3519992 115.0699978  12.3440014   5.4909992 114.9829978  11.9360014
   6.3299992 115.9259978  12.7720014   6.2310491 115.1738003  12.3459582
  11.0149992 114.7919978  15.7190014  11.4349992 114.3769978  16.4720014
  10.0819992 114.6129978  15.8360014  10.9463736 114.7109910  15.8378968
  14.3419992 118.5469978  16.5720014  13.8279992 118.4219978  17.3700014
  14.1859992 119.4599978  16.3280014  14.2506967 118.6532123  16.6480937
  15.1039992 123.4079978   2.3330014  15.1459992 123.1859978   1.4030014
  15.9529992 123.8069978   2.5230014  15.2245253 123.4315498   2.2313822
  10.6769992 117.2839978   3.0040014  10.4229992 117.3029978   3.9260014
  10.4199992 116.4129978   2.7020014  10.6074508 117.1688280   3.0894803
   6.4429992 120.0349978  13.4390014   5.8019992 119.9949978  14.1480014
   6.4809992 120.9619978  13.2010014   6.3603010 120.1547668  13.5039946
   6.4399992 120.2559978   8.3510014   5.5479992 119.9159978   8.2920014
   6.8909992 119.8789978   7.5950014   6.3787642 120.1584910   8.2407726
  11.9759992 120.6719978   7.1680014  11.5669992 121.4869978   6.8760014
  12.6959992 120.5319978   6.5540014  12.0174439 120.7645372   7.0450115
  11.0779992 120.8479978  18.6560014  10.5149992 120.1429978  18.9770014
  11.9039992 120.7269978  19.1240014  11.1126674 120.7352165  18.7631751
  12.9809992 120.1179978   9.9820014  12.7849992 120.7239978   9.2670014
  13.1619992 119.2849978   9.5480014  12.9786584 120.0882513   9.8254212
   4.1929992 120.3559978  15.3060014   4.1549992 120.7559978  16.1750014
   3.7029992 119.5389978  15.3960014   4.1215330 120.3002674  15.4371289
   7.5589992 117.7299978   2.1050014   7.1279992 117.2849978   2.8340014
   6.8409992 118.1009978   1.5920014   7.4029176 117.7192051   2.1354930
   0.8019992 117.4719978   9.1570014   1.4319992 117.4429978   9.8760014
   1.2509992 117.0469978   8.4260014   0.9490835 117.4105660   9.1567659
   2.0759992 118.2179978   4.5810014   2.5499992 118.8089978   3.9960014
   1.3579992 118.7479978   4.9280014   2.0438640 118.3705511   4.5477969
  12.2449992 121.7559978  14.6530014  12.5679992 121.1249978  14.0100014
  11.8039992 121.2219978  15.3140014  12.2296379 121.5973468  14.6542582
   9.0219992 117.6839978   9.4370014   8.1109992 117.7409978   9.7260014
   9.5269992 117.6239978  10.2480014   8.9656873 117.6836826   9.5861207
   3.8499992 119.3129978   8.2640014   2.9609992 119.4119978   7.9240014
   4.1469992 118.4709978   7.9180014   3.7684177 119.2127687   8.1706940
   7.5029992 119.3129978   5.9210014   8.4349992 119.4419978   6.0990014
   7.2879992 119.9819978   5.2710014   7.6014472 119.4210806   5.8574891
  13.4269992 116.9189978  12.7020014  12.7499992 117.0499978  13.3650014
  12.9419992 116.7639978  11.8910014  13.2687405 116.9159947  12.6832170
   6.1769992 120.5069978   3.4870014   5.6349992 120.1279978   2.7960014
   7.0109992 120.7019978   3.0590014   6.2154390 120.4814079   3.3344392
  16.7149992 132.5899978  18.9780014  16.9139992 133.0139978  18.1440014
  17.3699992 132.9339978  19.5850014  16.8308522 132.6946301  18.9457852
   4.3129992 125.0639978  18.5860014   5.0449992 125.3189978  19.1480014
   3.5319992 125.2689978  19.1020014   4.3076526 125.1265450  18.7325176
  10.3419992 120.4709978  11.3240014  10.9059992 119.9249978  10.7770014
  10.1939992 119.9499978  12.1130014  10.3993037 120.3256787  11.3557229
   5.3439992 116.6079978   7.7430014   5.0269992 115.7049978   7.7070014
   6.1249992 116.6099978   7.1900014   5.4062431 116.4847797   7.6633102
   8.9679992 118.8599978  13.7380014   8.1329992 119.3139978  13.8490014
   9.4919992 119.1359978  14.4900014   8.9246072 118.9593948  13.8548136
   9.5129992 125.0729978   5.4230014   8.7679992 124.5649978   5.1010014
   9.3779992 125.1219978   6.3690014   9.3928963 125.0101731   5.5068826
  16.6629992 124.2059978  14.2100014  17.3039992 124.6619978  13.6660014
  15.8319992 124.3189978  13.7470014  16.6385287 124.2836921  14.0729887
  13.4099992 117.8869978   3.6220014  12.4719992 117.9979978   3.4710014
  13.7079992 118.7429978   3.9290014  13.3216318 118.0180158   3.6428145
  11.0319992 125.2569978  16.6600014  10.6859992 124.8749978  17.4670014
  10.8319992 126.1899978  16.7310014  10.9575987 125.3309002  16.7800461
  14.1289992 119.7539978   5.2830014  15.0209992 119.6159978   5.6020014
  14.1849992 120.5449978   4.7460014  14.2587325 119.8419918   5.2541217
   4.6369992 124.3679978  11.1930014   5.3819992 124.3649978  10.5910014
   4.7149992 123.5439978  11.6740014   4.7493365 124.2562384  11.1757430
  11.6379992 126.5309978   4.4480014  11.3429992 127.3579978   4.8300014
  10.9349992 125.9119978   4.6450014  11.5026379 126.5604171   4.5268654
   1.6449992 122.8279978  16.5080014   1.8679992 122.4099978  17.3390014
   1.0429992 122.2159978  16.0850014   1.5941513 122.6879606  16.5646740
   8.6619992 122.3449978  18.7210014   8.3659992 122.1799978  17.8250014
   9.5929992 122.1249978  18.7100014   8.7474401 122.2926879  18.5970206
  13.2819992 127.7189978  16.6100014  12.3819992 127.9019978  16.3430014
  13.3159992 127.9779978  17.5310014  13.1633748 127.7790554  16.6979164
  19.0139992 119.9629978   4.9780014  18.4589992 119.5669978   4.3050014
  19.1139992 120.8739978   4.7000014  18.9516816 120.0319505   4.8485033
  18.9769992 125.7639978  17.8150014  18.1259992 126.0019978  17.4470014
  19.5669992 125.7469978  17.0620014  18.9403812 125.7942524  17.6628453
  17.3089992 128.7489978   5.4430014  16.9359992 127.9239978   5.7520014
  17.5859992 128.5659978   4.5450014  17.2953463 128.6112569   5.3639525
  14.4689992 123.5569978  12.4640014  13.5409992 123.3259978  12.4370014
  14.9199992 122.7799978  12.1340014  14.4028165 123.4202774  12.4156790
   7.0119992 127.8859978   8.5970014   7.5399992 128.6589978   8.3970014
   6.1319992 128.1099978   8.2950014   6.9653435 128.0222700   8.5287310
   2.7669992 122.7479978   3.1840014   3.3829992 123.3749978   3.5640014
   1.9049992 123.0639978   3.4560014   2.7347678 122.8764412   3.2727209
   8.4399992 125.5489978   8.1730014   8.1989992 126.4739978   8.2150014
   7.6989992 125.0899978   8.5700014   8.3069206 125.6135915   8.2323769
   8.9539992 129.6979978  14.4880014   9.3169992 130.5519978  14.2550014
   9.4859992 129.4059978  15.2290014   9.0755141 129.7753895  14.5562097
   7.1229992 130.5699978   7.7190014   6.1729992 130.6759978   7.7700014
   7.4749992 131.3909978   8.0630014   7.0405472 130.6954923   7.7724852
  12.4979992 125.7969978  14.1890014  12.0729992 125.5689978  15.0150014
  13.0789992 125.0579978  14.0070014  12.5183395 125.6659545  14.2774414
  14.7009992 126.7259978   3.2630014  15.0549992 126.3459978   4.0670014
  13.7529992 126.6319978   3.3500014  14.6212298 126.6612452   3.3848687
  15.1569992 130.3489978  16.6580014  14.5549992 129.7929978  16.1630014
  15.4379992 131.0159978  16.0320014  15.1125757 130.3630744  16.5055675
  19.2049992 131.2049978   3.4640014  19.9489992 131.7909978   3.3240014
  18.5109992 131.7739978   3.7970014  19.2129809 131.3620818   3.4898590
   3.2789992 117.5819978  16.0660014   2.3869992 117.9199978  15.9980014
   3.1809992 116.7259978  16.4840014   3.1434475 117.5126543  16.1131704
  15.5669992 125.3979978   5.4900014  15.2899992 124.6699978   6.0460014
  16.4949992 125.5169978   5.6950014  15.6544499 125.3144213   5.5938044
   2.9309992 129.3859978  14.5010014   3.1479992 128.4539978  14.4700014
   3.1769992 129.6609978  15.3840014   2.9939809 129.2955686  14.6161691
   8.7919992 127.8379978   1.7100014   9.0309992 127.0889978   1.1630014
   8.5229992 127.4499978   2.5430014   8.7883233 127.6831853   1.7477809
   7.7289992 127.4079978   4.1660014   7.8759992 126.8879978   4.9560014
   7.7259992 128.3149978   4.4730014   7.7487102 127.4593953   4.3155925
   4.1819992 124.6599978   4.6770014   3.4959992 125.0129978   5.2440014
   4.7049992 125.4229978   4.4300014   4.1588402 124.8113901   4.7211801
  12.0139992 117.3229978  14.9560014  12.7129992 117.3969978  15.6060014
  11.6329992 116.4579978  15.1100014  12.0582097 117.2162389  15.0657997
  12.7979992 116.9749978   6.0530014  13.0179992 117.4459978   5.2490014
  13.3569992 117.3689978   6.7230014  12.9036731 117.0927287   6.0335033
  10.4669992 129.1049978   4.9160014   9.6499992 129.6019978   4.9680014
  10.9959992 129.5809978   4.2750014  10.4268125 129.2371989   4.8365306
   9.9979992 118.7029978   6.8880014  10.8099992 119.2069978   6.9340014
   9.7539992 118.5579978   7.8020014  10.0761467 118.7523749   7.0178575
  10.5339992 119.6889978  16.0720014  10.6529992 120.2629978  16.8290014
  11.1889992 119.0009978  16.1870014  10.6388684 119.6745194  16.1911674
  10.8819992 115.7839978   7.8260014  10.5349992 116.4009978   8.4700014
  11.5409992 116.2849978   7.3440014  10.9235090 115.9361575   7.8490681
   7.8049992 130.1489978   4.8970014   7.9659992 130.9489978   4.3970014
   7.6079992 130.4559978   5.7820014   7.8003906 130.2998678   4.9482333
   6.5399992 116.8469978   4.5130014   6.4559992 117.7349978   4.8600014
   7.4299992 116.5819978   4.7450014   6.6488163 116.9327179   4.5918596
  16.7379992 117.5959978  16.9070014  15.8219992 117.8579978  16.8200014
  17.0739992 117.5929978  16.0110014  16.6578499 117.6315163  16.7738766
  15.3409992 121.3459978  11.0030014  14.5429992 120.9309978  10.6750014
  15.7859992 120.6559978  11.4940014  15.2919684 121.1958628  11.0245227
   4.7979992 127.2739978   3.5730014   5.3899992 127.9739978   3.8500014
   5.2569992 126.8409978   2.8540014   4.9411652 127.3112675   3.5136533
   3.1139992 119.9389978   2.6890014   3.0689992 120.8779978   2.8680014
   2.2259992 119.7029978   2.4200014   2.9878166 120.0356687   2.6771524
  16.4269992 130.6019978  12.6250014  16.2709992 131.2809978  11.9680014
  17.3599992 130.6739978  12.8280014  16.5317387 130.7046390  12.5625342
   3.9219992 114.7199978  11.3630014   3.6929992 114.7789978  10.4350014
   3.4799992 113.9289978  11.6690014   3.8308801 114.6210540  11.2774729
   2.8529992 128.6609978   7.5230014   2.0199992 129.1329978   7.5500014
   3.3979992 129.1709978   6.9240014   2.8127857 128.7944791   7.4457142
   2.1409992 131.2729978  18.8530014   2.6809992 131.0569978  19.6130014
   1.6599992 130.4679978  18.6630014   2.1499219 131.1345156  18.9314282
   6.7379992 130.1929978  20.4730014   7.5059992 129.7339978  20.8140014
   6.7169992 129.9669978  19.5430014   6.8402135 130.0996668  20.3939491
  10.8299992 129.7009978   1.8490014  10.1859992 129.0699978   2.1700014
  11.5919992 129.1699978   1.6170014  10.8448058 129.5427902   1.8616038
  13.3149992 128.5729978  19.2020014  12.9639992 127.7159978  19.4460014
  14.0409992 128.7149978  19.8090014  13.3651895 128.4751351  19.3173770
  15.4349992 129.5179978   2.0820014  15.7179992 128.7229978   2.5350014
  16.1739992 129.7509978   1.5210014  15.5737096 129.4407049   2.0681104
   2.0479992 125.0839978  19.8070014   2.1919992 124.1819978  19.5210014
   1.2759992 125.3699978  19.3200014   1.9632733 124.9991798  19.7019532
   6.3889992 125.4269978   1.9400014   6.4539992 124.6329978   2.4700014
   7.0419992 125.3089978   1.2500014   6.4861605 125.3023430   1.9192997
   8.7029992 125.0529978  19.2400014   8.3749992 125.3239978  18.3830014
   8.8549992 124.1119978  19.1520014   8.6786412 124.9629046  19.1107822
  11.7419992 126.4739978   1.6760014  11.4729992 126.6549978   2.5760014
  11.5349992 125.5489978   1.5440014  11.6771191 126.3737119   1.7815524
  14.4379992 124.9689978  16.6230014  15.1829992 125.5579978  16.5040014
  13.6809992 125.5509978  16.6870014  14.4375470 125.1282128  16.6153799
   2.8809992 122.2839978  19.2270014   3.2889992 121.4269978  19.1060014
   2.6199992 122.2979978  20.1480014   2.9016016 122.1685119  19.3349192
   7.5389992 123.3999978   4.2460014   7.0789992 122.9159978   4.9310014
   7.7939992 122.7309978   3.6100014   7.5104856 123.2433669   4.2538397
   6.8279992 121.2929978  16.6020014   6.2089992 121.9669978  16.8820014
   7.1719992 121.6139978  15.7680014   6.7897123 121.4286887  16.5276388
   8.6099992 121.6429978   2.5080014   8.4289992 121.4879978   1.5810014
   9.5599992 121.7509978   2.5530014   8.7136566 121.6363669   2.3870929
  11.8469992 123.7639978  19.8790014  12.8009992 123.8479978  19.8520014
  11.6869992 123.0519978  20.4990014  11.9557182 123.6792842  19.9590733
  17.9999992 123.9969978   1.9540014  17.7259992 123.5729978   1.1410014
  18.0389992 124.9289978   1.7370014  17.9677716 124.0648827   1.8134286
   7.1669992 118.6479978  17.6840014   7.3169992 117.9189978  17.0820014
   7.1689992 119.4249978  17.1250014   7.1877967 118.6532708  17.5260541
   7.5799992 117.0169978  15.1770014   8.1149992 117.4689978  14.5250014
   6.7269992 116.9089978  14.7540014   7.5380374 117.0642665  15.0306710
   9.1609992 122.4569978  15.4160014   9.9119992 122.3009978  14.8430014
   8.8219992 123.3089978  15.1410014   9.2179587 122.5508138  15.3004078
  13.5769992 120.2719978  20.4450014  13.7689992 119.3409978  20.3330014
  14.4349992 120.6969978  20.4340014  13.7192182 120.2020070  20.4281862
  14.8939992 123.0609978  18.5220014  14.6119992 123.7699978  17.9440014
  15.8359992 122.9879978  18.3710014  14.9827921 123.1482193  18.4224225
   5.6459992 119.8459978  19.5950014   4.8779992 119.3129978  19.3850014
   6.3239992 119.5359978  18.9960014   5.6327235 119.7311754  19.4852413
   8.3849992 114.4739978  15.6080014   8.2869992 115.4199978  15.5030014
   7.6429992 114.1009978  15.1320014   8.2712534 114.5531773  15.5292600
   9.6489992 118.7949978  19.1720014   9.4139992 118.5759978  20.0730014
   8.8659992 118.5879978  18.6620014   9.5109095 118.7369892  19.2265353
  12.3649992 117.9229978  18.2470014  11.4169992 117.9549978  18.3790014
  12.6769992 117.2969978  18.9010014  12.2775293 117.8427923  18.3534148
  13.9989992 116.5569978  20.2520014  13.9019992 115.6049978  20.2470014
  13.6769992 116.8249978  21.1130014  13.9422468 116.4630884  20.3676210
   3.8259992 117.7659978  19.3000014   4.0379992 117.0599978  18.6900014
   3.7149992 117.3289978  20.1440014   3.8400269 117.6101921  19.3305873
   8.6069992 113.7679978  18.2790014   9.3189992 113.1279978  18.2650014
   8.5059992 114.0339978  17.3660014   8.6907387 113.7164330  18.1535563
   8.9609992 115.4499978  20.3330014   8.8289992 114.9749978  19.5130014
   8.3609992 116.1949978  20.2780014   8.8619070 115.4855789  20.2133251
   8.5069992 132.3329978   3.5090014   9.4399992 132.4909978   3.6530014
   8.2429992 133.0089978   2.8840014   8.5989911 132.4459373   3.4442722
   2.0749992 126.9699978   2.9920014   2.9889992 127.0489978   3.2650014
   2.0829992 126.2829978   2.3260014   2.2010655 126.8879205   2.9392917
   0.7239992 132.3629978   8.0690014   0.0769992 131.9009978   7.5370014
   1.0789992 131.6909978   8.6520014   0.6833741 132.2089774   8.0749175
   1.5939992 130.4429978   9.8740014   1.2599992 129.5629978  10.0460014
   1.8169992 130.7889978  10.7390014   1.5783721 130.3691938  10.0144168
  19.1429992 131.2529978  12.8550014  19.1209992 131.4379978  13.7940014
  19.8329992 131.8209978  12.5140014  19.2333439 131.3551887  12.9374791
  18.7059992 130.8199978  15.7760014  18.2189992 130.0849978  15.4050014
  19.2549992 130.4259978  16.4540014  18.7135247 130.6661057  15.8168461
  17.1569992 126.6099978  20.4150014  16.2909992 126.5049978  20.8090014
  17.5329992 127.3679978  20.8610014  17.0893401 126.6981708  20.5292620
  18.4579992 124.8659978   5.9290014  19.3079992 125.2869978   6.0560014
  18.4629992 124.1259978   6.5360014  18.5751143 124.8236094   6.0284750
  18.8519992 122.9199978   7.7520014  18.1259992 122.4399978   8.1500014
  19.4339992 123.1249978   8.4850014  18.8312730 122.8820184   7.9054149
  18.6109992 125.7049978  12.7000014  19.4449992 125.3269978  12.4190014
  18.7229992 126.6479978  12.5810014  18.7401917 125.7807943  12.6454861
  17.0979992 128.5829978  15.0070014  16.4499992 128.9079978  15.6320014
  16.5799992 128.1419978  14.3330014  16.9394196 128.5678651  15.0014152
  19.1209992 122.8209978   4.1430014  18.5989992 123.1769978   3.4250014
  19.0879992 123.4959978   4.8220014  19.0450129 122.9609598   4.1363355
  17.4699992 120.0599978   2.6940014  17.5659992 120.7269978   2.0140014
  17.3299992 119.2449978   2.2130014  17.4642040 120.0410671   2.5358378
  16.6389992 121.4409978   8.3150014  16.4889992 120.4959978   8.2950014
  16.2849992 121.7219978   9.1590014  16.5706351 121.3496644   8.4263220
   1.6739992 123.5189978  12.3260014   1.8589992 123.4369978  11.3900014
   2.5239992 123.3949978  12.7490014   1.8140928 123.4910463  12.2552893
  17.4949992 123.4109978  17.9540014  18.0779992 122.6759978  18.1460014
  18.0589992 124.1829978  18.0010014  17.6509781 123.4148145  17.9866164
  18.9919992 121.3139978  18.6390014  18.1289992 120.9349978  18.4730014
  19.5959992 120.5749978  18.5640014  18.9556085 121.1623223  18.6061695
  16.7169992 117.4679978   1.8120014  17.3279992 117.0969978   2.4490014
  15.8799992 117.0469978   2.0080014  16.6874947 117.3602756   1.9257252
  16.3499992 119.0229978   6.7780014  16.6289992 118.1159978   6.9020014
  17.1089992 119.4569978   6.3890014  16.4908619 118.9574502   6.7423795
  16.9609992 119.6049978  12.2140014  17.8939992 119.8169978  12.1790014
  16.7259992 119.7059978  13.1360014  17.0569517 119.6476833  12.3339130
  16.9909992 120.3419978  14.9900014  16.1479992 120.6099978  15.3560014
  17.4329992 121.1639978  14.7790014  16.9354138 120.4898273  15.0115518
   1.2719992 118.7889978  18.4660014   2.1909992 118.6669978  18.7030014
   0.8219992 118.0389978  18.8560014   1.3370087 118.6709608  18.5511410
  19.2739992 114.3219978  20.3430014  19.6229992 113.6679978  19.7380014
  19.4209992 115.1589978  19.9030014  19.3416824 114.3456024  20.2006304
  16.9629992 116.2859978   6.8260014  17.1449992 115.8369978   7.6510014
  16.3629992 115.7019978   6.3620014  16.9068187 116.1455552   6.8762739
   2.4929992 117.1019978  11.3580014   2.9379992 116.3099978  11.6600014
   2.9589992 117.8179978  11.7880014   2.6169718 117.0904534  11.4575265
   0.7969992 120.1009978  12.4270014   1.2889992 119.8799978  11.6360014
   1.1589992 120.9409978  12.7080014   0.9132923 120.1843468  12.3567407
  18.7929992 116.4309978  18.6920014  17.8759992 116.7019978  18.6570014
  18.9159992 115.8959978  17.9080014  18.6839672 116.3957885  18.5811862
  18.8299992 116.3539978   3.3540014  19.2419992 115.6329978   2.8790014
  19.5109992 117.0229978   3.4120014  18.9785536 116.3457766   3.2968024
   1.1109992 116.3589978   6.4810014   0.1859992 116.5669978   6.3520014
   1.5649992 116.8429978   5.7910014   1.0456298 116.4529299   6.3700451
  15.8809992 131.3429978   8.4270014  16.5339992 130.9949978   7.8190014
  16.3919992 131.8309978   9.0730014  16.0392777 131.3613815   8.4312047
   1.0739992 115.0969978  14.8250014   0.4089992 114.8509978  15.4680014
   0.6309992 115.7189978  14.2480014   0.9231168 115.1474214  14.8349848
   3.2659992 128.2719978  18.9700014   2.4449992 128.4469978  18.5090014
   3.0139992 128.1989978  19.8900014   3.1195594 128.2860717  19.0313611
   6.2199992 129.2459978  15.2280014   5.7959992 130.0559978  14.9460014
   7.1249992 129.3319978  14.9260014   6.2842138 129.3684160  15.1486415
  10.5319992 130.6449978  18.1880014  10.7159992 130.3119978  19.0660014
  11.3779992 130.9549978  17.8660014  10.6716484 130.6412979  18.2647617
  12.8769992 131.9309978  17.4320014  13.5539992 131.2979978  17.1920014
  13.1979992 132.3319978  18.2390014  13.0131323 131.8985691  17.5083158
  17.7939992 114.5209978  16.5110014  16.9809992 114.8459978  16.1240014
  18.0269992 113.7599978  15.9780014  17.7141347 114.4626880  16.3859841
   3.6219992 132.5029978  15.2760014   2.9019992 132.9429978  14.8250014
   3.2569992 132.2519978  16.1240014   3.4739643 132.5293369  15.3289129
   6.0889992 132.1029978  14.3060014   5.2249992 132.1749978  14.7100014
   6.0339992 132.6499978  13.5220014   5.9631942 132.1867849  14.2554000
  10.7999992 131.9909978  13.4810014  10.3429992 132.5199978  12.8270014
  10.9629992 132.5939978  14.2060014  10.7594960 132.1449280  13.4895274
  13.1279992 130.8689978  14.4260014  12.2229992 131.0339978  14.1600014
  13.5559992 131.7219978  14.3600014  13.0621537 131.0069134  14.3807095
  15.7319992 132.4389978  14.7210014  15.5499992 133.3549978  14.5100014
  15.9089992 132.0279978  13.8740014  15.7310030 132.5088273  14.5777166
   3.0369992 131.1259978  12.1860014   3.0189992 130.6999978  13.0430014
   3.8419992 130.8069978  11.7770014   3.1432875 131.0246435  12.2479515
   5.1779992 129.8359978  10.8410014   4.9589992 128.9189978  11.0110014
   6.0019992 129.9759978  11.3070014   5.2594702 129.7295511  10.9272527
   7.7149992 130.3059978  11.6900014   7.9279992 129.4179978  11.4030014
   7.7799992 130.2709978  12.6440014   7.7529149 130.1798326  11.7797369
  11.2239992 115.9699978  10.8340014  10.5499992 115.3399978  11.0900014
  11.7879992 115.4859978  10.2310014  11.2080384 115.8183708  10.7875020
  16.3669992 114.0769978  10.9470014  16.9699992 114.6249978  10.4450014
  15.4969992 114.3959978  10.7060014  16.3319157 114.1950373  10.8457910
  18.0939992 115.2159978   9.2800014  18.7049992 114.7019978   8.7530014
  18.4759992 116.0929978   9.3030014  18.2293305 115.2642050   9.2109418
   3.5509992 114.6039978   8.6560014   2.7739992 114.3689978   8.1490014
   4.0809992 113.8069978   8.6650014   3.5163451 114.4641268   8.5878627
   2.3869992 114.4019978   4.4600014   2.8259992 115.0129978   3.8680014
   1.7529992 114.9399978   4.9340014   2.3613859 114.5584064   4.4430305
   8.1299992 114.5299978   8.4690014   9.0039992 114.9189978   8.4400014
   7.9939992 114.3149978   9.3920014   8.2311953 114.5541643   8.5897617
  13.6869992 114.5599978  10.1190014  13.7629992 114.6559978   9.1690014
  13.4119992 113.6529978  10.2470014  13.6601871 114.4504146  10.0063944
  15.0399992 114.5859978   5.8110014  14.3369992 115.2009978   5.6010014
  14.5949992 113.7489978   5.9420014  14.8836550 114.5569668   5.7999837
   2.2879992 130.3499978   5.3570014   1.6029992 130.3119978   4.6900014
   2.2919992 131.2629978   5.6450014   2.1947621 130.4681924   5.3046126
   4.2479992 116.3179978   2.9020014   4.7389992 115.6879978   2.3750014
   4.8709992 116.6139978   3.5650014   4.3995304 116.2717376   2.9194940
   9.2739992 116.6109978   5.3590014   9.4519992 115.9639978   6.0420014
   9.2199992 117.4449978   5.8260014   9.2910678 116.6351604   5.5156301
  11.1519992 131.5589978   3.7550014  12.0179992 131.9259978   3.5770014
  10.9059992 131.1199978   2.9410014  11.2372097 131.5498525   3.6206019
  17.8609992 131.1219978   6.4340014  17.6669992 130.3739978   5.8690014
  17.8219992 131.8799978   5.8510014  17.8291645 131.1220786   6.2778148
   3.5079992 115.1179978  18.1740014   3.1419992 114.3519978  18.6160014
   4.4209992 115.1469978  18.4600014   3.5813172 115.0170324  18.2731890
   5.4809992 114.4679978  19.7090014   6.3799992 114.1939978  19.5250014
   5.0949992 113.7259978  20.1740014   5.5517307 114.3302196  19.7467098
   4.1059992 131.2699978   2.3820014   3.8379992 131.5559978   3.2560014
   4.8769992 130.7239978   2.5350014   4.1735926 131.2352779   2.5221205
  13.9029992 113.8009978  19.8920014  13.9789992 113.3749978  20.7450014
  14.7959992 113.8139978  19.5490014  14.0342303 113.7443493  19.9625497
  17.0789992 129.8739978  18.5840014  16.2969992 129.6869978  18.0640014
  17.0069992 130.8029978  18.8010014  16.9621924 129.9740637  18.5421602
  31.4849992 123.7599978   8.6150014  31.5739992 124.7039978   8.4830014
  30.8469992 123.4849978   7.9570014  31.4109062 123.8519812   8.5079641
  30.4179992 123.0149978  12.0340014  30.3799992 122.3689978  12.7390014
  30.0959992 122.5479978  11.2630014  30.3692679 122.8634276  12.0262921
  22.7859992 122.6289978  13.6270014  22.8279992 122.0039978  14.3500014
  23.4889992 123.2529978  13.8090014  22.8867345 122.6277873  13.7505274
  34.1239992 125.9539978  10.3350014  33.6829992 125.2339978  10.7860014
  34.1109992 126.6749978  10.9650014  34.0619215 125.9529291  10.4818105
  23.7099992 127.0789978  12.1620014  23.3399992 126.2769978  11.7920014
  24.6509992 126.9109978  12.2080014  23.7865984 126.9464638  12.1175603
  20.3199992 120.7389978   7.5540014  19.8719992 121.5849978   7.5360014
  19.7589992 120.1599978   7.0390014  20.1828546 120.7763993   7.4818891
  21.0299992 122.9009978   9.6800014  21.2439992 122.1309978  10.2080014
  21.7679992 122.9909978   9.0770014  21.1590200 122.8078586   9.6707035
  31.2359992 131.0579978  10.5470014  31.8549992 130.3819978  10.2740014
  31.0269992 130.8399978  11.4560014  31.2926056 130.9358869  10.6323967
  28.8069992 125.4469978  12.4400014  29.1109992 124.7609978  11.8450014
  29.5289992 125.5659978  13.0580014  28.9461240 125.3692314  12.4420959
  37.4699992 117.0489978  13.3000014  37.5199992 117.6589978  14.0360014
  37.8959992 117.5099978  12.5770014  37.5344108 117.1947709  13.3030112
  31.9479992 119.8409978  12.7670014  32.0909992 118.8949978  12.7870014
  31.8419992 120.0479978  11.8390014  31.9532403 119.7394797  12.6442239
  25.1029992 117.9429978  10.0400014  25.1459992 118.8029978   9.6210014
  24.6449992 117.3909978   9.4060014  25.0469871 117.9859245   9.8970761
  32.8249992 118.0739978   8.4410014  33.4719992 117.7449978   9.0650014
  33.3349992 118.5909978   7.8180014  32.9824351 118.0989067   8.4421037
  21.7229992 120.3399978  10.8020014  22.3769992 119.7899978  11.2340014
  21.7469992 120.0659978   9.8850014  21.8157199 120.2277167  10.7371668
  26.8799992 121.8899978  10.0170014  27.4959992 121.3629978  10.5260014
  26.2929992 121.2499978   9.6130014  26.8850154 121.7313954  10.0320945
  37.8619992 118.5269978  15.5360014  37.1729992 119.1849978  15.4410014
  37.8769992 118.3289978  16.4730014  37.7697756 118.5902603  15.6495812
  23.9129992 116.8609978  14.1140014  23.6939992 117.3909978  13.3470014
  23.2449992 117.0869978  14.7610014  23.7926975 116.9640967  14.0965140
  31.2819992 126.3609978   7.6580014  30.9869992 126.0379978   6.8060014
  30.9579992 127.2609978   7.6990014  31.1978460 126.4384464   7.5469714
  26.4819992 124.5359978  14.4010014  25.7419992 125.1349978  14.5050014
  27.1959992 125.0899978  14.0860014  26.4773500 124.6927829  14.3726371
  34.5889992 117.3649978  10.4210014  34.3739992 116.5989978  10.9540014
  35.2449992 117.8369978  10.9340014  34.6482673 117.3240728  10.5631990
  23.5069992 118.7529978  12.0660014  24.1209992 119.3859978  12.4390014
  24.0189992 118.2809978  11.4100014  23.6601962 118.7757249  12.0282935
  24.8899992 126.5009978  15.1880014  24.8839992 127.3799978  14.8100014
  24.0359992 126.4169978  15.6130014  24.7737925 126.6099535  15.1936887
  21.0109992 126.1719978   5.9700014  20.7389992 126.4009978   5.0820014
  21.0559992 127.0089978   6.4310014  20.9798097 126.3166163   5.9106683
  34.6359992 127.7929978  12.6830014  33.6939992 127.8519978  12.8450014
  34.9119992 128.6989978  12.5460014  34.5445865 127.9235288  12.6866192
  34.9359992 116.0799978  14.1000014  34.1999992 116.6899978  14.0630014
  35.6199992 116.4949978  13.5740014  34.9275367 116.2197551  14.0238174
  27.9399992 114.1659978  11.5660014  27.8219992 113.2179978  11.5120014
  27.0849992 114.4989978  11.8390014  27.8082805 114.0812202  11.5955079
  32.8879992 129.5739978   9.3080014  33.3129992 128.8669978   8.8230014
  33.2049992 130.3759978   8.8910014  32.9890266 129.5855190   9.1852479
  34.0479992 127.4749978   7.8170014  33.7899992 126.7849978   7.2050014
  34.1189992 127.0319978   8.6620014  34.0223050 127.3206814   7.8475621
  35.7339992 126.0419978  16.2940014  35.8729992 125.4499978  15.5550014
  35.9009992 126.9149978  15.9380014  35.7756193 126.0788896  16.1446211
  30.2059992 123.0039978   6.0670014  29.4949992 123.5389978   5.7150014
  30.8969992 123.0589978   5.4070014  30.2020751 123.0846777   5.9295858
  30.2599992 121.4609978   3.1050014  30.9609992 121.4839978   3.7570014
  30.5619992 120.8329978   2.4490014  30.3968202 121.3792212   3.1055609
  37.5749992 122.3819978  14.3600014  36.9229992 123.0759978  14.4490014
  38.0409992 122.5919978  13.5500014  37.5485937 122.5055019  14.2627533
  33.6119992 123.2129978   7.0180014  32.8799992 123.4419978   7.5920014
  34.0589992 122.4999978   7.4730014  33.5723963 123.1478729   7.1579945
  33.5089992 121.3879978  16.0860014  33.5889992 122.1509978  16.6580014
  32.9079992 121.6669978  15.3960014  33.4386547 121.5302457  16.0710047
  25.2569992 123.8439978   8.9010014  24.9269992 123.4729978   8.0830014
  25.8459992 123.1729978   9.2480014  25.2913970 123.7026063   8.8359404
  26.6239992 127.2719978  11.5820014  26.5289992 126.6929978  10.8260014
  27.3529992 126.9009978  12.0780014  26.7096011 127.1425561  11.5456028
  25.6239992 122.6119978  12.5340014  26.1889992 122.7339978  11.7720014
  25.9429992 123.2499978  13.1730014  25.7444166 122.7148791  12.5160348
  31.9329992 128.1159978  13.2680014  31.6929992 128.7779978  13.9160014
  31.7349992 127.2809978  13.6930014  31.8733826 128.0938115  13.4141566
  26.5039992 127.0119978  17.2520014  26.1929992 127.7939978  17.7070014
  25.8539992 126.8589978  16.5660014  26.3735538 127.0984087  17.2215898
  32.4829992 122.3759978   4.7040014  33.0619992 122.5259978   5.4500014
  32.8969992 122.8459978   3.9800014  32.6183358 122.4600954   4.7083953
  23.4239992 123.2099978  16.4800014  23.4939992 123.8609978  17.1790014
  22.5329992 123.3129978  16.1450014  23.3131690 123.3129249  16.5303043
  30.2089992 129.1119978   8.1390014  30.6829992 129.4079978   8.9160014
  29.6459992 129.8509978   7.9060014  30.1977890 129.2523036   8.2138101
  24.7429992 129.0829978  18.0150014  24.7509992 128.9469978  17.0680014
  23.8269992 128.9659978  18.2670014  24.6202528 129.0485463  17.9193243
  36.1819992 114.1259978   4.5170014  35.2819992 114.2649978   4.8120014
  36.4339992 114.9569978   4.1150014  36.0928683 114.2574055   4.5030232
  24.2479992 122.9129978   6.4900014  23.9559992 123.6809978   5.9990014
  23.5729992 122.2539978   6.3270014  24.1168497 122.9289745   6.4008260
  37.3709992 128.4919978   2.8930014  37.4439992 129.4309978   3.0630014
  38.2759992 128.1869978   2.8370014  37.5034170 128.5793282   2.9087063
  20.3409992 125.2759978  15.3050014  19.8389992 125.2479978  14.4900014
  20.3459992 124.3709978  15.6150014  20.2729832 125.1497486  15.2354121
  20.0909992 128.0569978  12.1890014  21.0369992 127.9119978  12.1700014
  19.9779992 128.8409978  12.7260014  20.2053578 128.1431697  12.2590317
  38.2889992 128.7229978  17.8720014  38.2389992 127.7669978  17.8340014
  37.4619992 128.9899978  18.2730014  38.1703831 128.6284680  17.9210121
  29.2669992 128.2969978  16.7480014  29.3549992 129.1229978  17.2230014
  28.4039992 127.9669978  16.9970014  29.1623357 128.3655468  16.8467653
  29.6819992 132.0689978   6.5540014  29.6059992 131.9479978   5.6070014
  29.7139992 133.0179978   6.6720014  29.6759380 132.1807677   6.4405181
  23.3349992 130.8579978   8.3350014  23.4869992 130.5099978   9.2130014
  22.4839992 130.5009978   8.0790014  23.2408344 130.7620879   8.4206868
  32.7829992 131.2229978   3.5560014  33.1579992 130.4789978   3.0850014
  32.7879992 130.9529978   4.4740014  32.8350098 131.0846392   3.6156629
  32.4519992 131.1489978   6.3050014  31.5169992 131.2489978   6.4840014
  32.7319992 130.4389978   6.8840014  32.3619471 131.0667933   6.4076695
  35.4409992 120.2159978  18.3520014  35.0329992 120.6959978  17.6310014
  35.4809992 119.3099978  18.0440014  35.3906221 120.1592449  18.2118267
  22.5899992 126.5999978  16.3480014  22.8059992 126.2379978  17.2080014
  21.7339992 126.2249978  16.1390014  22.5038810 126.4998837  16.4372680
  25.2079992 115.0699978  12.3440014  24.3469992 114.9829978  11.9360014
  25.1859992 115.9259978  12.7720014  25.0870491 115.1738003  12.3459582
  29.8709992 114.7919978  15.7190014  30.2909992 114.3769978  16.4720014
  28.9379992 114.6129978  15.8360014  29.8023736 114.7109910  15.8378968
  33.1979992 118.5469978  16.5720014  32.6839992 118.4219978  17.3700014
  33.0419992 119.4599978  16.3280014  33.1066967 118.6532123  16.6480937
  33.9599992 123.4079978   2.3330014  34.0019992 123.1859978   1.4030014
  34.8089992 123.8069978   2.5230014  34.0805253 123.4315498   2.2313822
  29.5329992 117.2839978   3.0040014  29.2789992 117.3029978   3.9260014
  29.2759992 116.4129978   2.7020014  29.4634508 117.1688280   3.0894803
  25.2989992 120.0349978  13.4390014  24.6579992 119.9949978  14.1480014
  25.3369992 120.9619978  13.2010014  25.2163010 120.1547668  13.5039946
  25.2959992 120.2559978   8.3510014  24.4039992 119.9159978   8.2920014
  25.7469992 119.8789978   7.5950014  25.2347642 120.1584910   8.2407726
  30.8319992 120.6719978   7.1680014  30.4229992 121.4869978   6.8760014
  31.5519992 120.5319978   6.5540014  30.8734439 120.7645372   7.0450115
  29.9339992 120.8479978  18.6560014  29.3709992 120.1429978  18.9770014
  30.7599992 120.7269978  19.1240014  29.9686674 120.7352165  18.7631751
  31.8369992 120.1179978   9.9820014  31.6409992 120.7239978   9.2670014
  32.0179992 119.2849978   9.5480014  31.8346584 120.0882513   9.8254212
  23.0489992 120.3559978  15.3060014  23.0109992 120.7559978  16.1750014
  22.5589992 119.5389978  15.3960014  22.9775330 120.3002674  15.4371289
  26.4149992 117.7299978   2.1050014  25.9839992 117.2849978   2.8340014
  25.6969992 118.1009978   1.5920014  26.2589176 117.7192051   2.1354930
  19.6579992 117.4719978   9.1570014  20.2879992 117.4429978   9.8760014
  20.1069992 117.0469978   8.4260014  19.8050835 117.4105660   9.1567659
  20.9319992 118.2179978   4.5810014  21.4059992 118.8089978   3.9960014
  20.2139992 118.7479978   4.9280014  20.8998640 118.3705511   4.5477969
  31.1009992 121.7559978  14.6530014  31.4239992 121.1249978  14.0100014
  30.6599992 121.2219978  15.3140014  31.0856379 121.5973468  14.6542582
  27.8779992 117.6839978   9.4370014  26.9669992 117.7409978   9.7260014
  28.3829992 117.6239978  10.2480014  27.8216873 117.6836826   9.5861207
  22.7059992 119.3129978   8.2640014  21.8169992 119.4119978   7.9240014
  23.0029992 118.4709978   7.9180014  22.6244177 119.2127687   8.1706940
  26.3589992 119.3129978   5.9210014  27.2909992 119.4419978   6.0990014
  26.1439992 119.9819978   5.2710014  26.4574472 119.4210806   5.8574891
  32.2829992 116.9189978  12.7020014  31.6059992 117.0499978  13.3650014
  31.7979992 116.7639978  11.8910014  32.1247405 116.9159947  12.6832170
  25.0329992 120.5069978   3.4870014  24.4909992 120.1279978   2.7960014
  25.8669992 120.7019978   3.0590014  25.0714390 120.4814079   3.3344392
  35.5709992 132.5899978  18.9780014  35.7699992 133.0139978  18.1440014
  36.2259992 132.9339978  19.5850014  35.6868522 132.6946301  18.9457852
  23.1689992 125.0639978  18.5860014  23.9009992 125.3189978  19.1480014
  22.3879992 125.2689978  19.1020014  23.1636526 125.1265450  18.7325176
  29.1979992 120.4709978  11.3240014  29.7619992 119.9249978  10.7770014
  29.0499992 119.9499978  12.1130014  29.2553037 120.3256787  11.3557229
  24.1999992 116.6079978   7.7430014  23.8829992 115.7049978   7.7070014
  24.9809992 116.6099978   7.1900014  24.2622431 116.4847797   7.6633102
  27.8239992 118.8599978  13.7380014  26.9889992 119.3139978  13.8490014
  28.3479992 119.1359978  14.4900014  27.7806072 118.9593948  13.8548136
  28.3689992 125.0729978   5.4230014  27.6239992 124.5649978   5.1010014
  28.2339992 125.1219978   6.3690014  28.2488963 125.0101731   5.5068826
  35.5189992 124.2059978  14.2100014  36.1599992 124.6619978  13.6660014
  34.6879992 124.3189978  13.7470014  35.4945287 124.2836921  14.0729887
  32.2659992 117.8869978   3.6220014  31.3279992 117.9979978   3.4710014
  32.5639992 118.7429978   3.9290014  32.1776318 118.0180158   3.6428145
  29.8879992 125.2569978  16.6600014  29.5419992 124.8749978  17.4670014
  29.6879992 126.1899978  16.7310014  29.8135987 125.3309002  16.7800461
  32.9849992 119.7539978   5.2830014  33.8769992 119.6159978   5.6020014
  33.0409992 120.5449978   4.7460014  33.1147325 119.8419918   5.2541217
  23.4929992 124.3679978  11.1930014  24.2379992 124.3649978  10.5910014
  23.5709992 123.5439978  11.6740014  23.6053365 124.2562384  11.1757430
  30.4939992 126.5309978   4.4480014  30.1989992 127.3579978   4.8300014
  29.7909992 125.9119978   4.6450014  30.3586379 126.5604171   4.5268654
  20.5009992 122.8279978  16.5080014  20.7239992 122.4099978  17.3390014
  19.8989992 122.2159978  16.0850014  20.4501513 122.6879606  16.5646740
  27.5179992 122.3449978  18.7210014  27.2219992 122.1799978  17.8250014
  28.4489992 122.1249978  18.7100014  27.6034401 122.2926879  18.5970206
  32.1379992 127.7189978  16.6100014  31.2379992 127.9019978  16.3430014
  32.1719992 127.9779978  17.5310014  32.0193748 127.7790554  16.6979164
  37.8699992 119.9629978   4.9780014  37.3149992 119.5669978   4.3050014
  37.9699992 120.8739978   4.7000014  37.8076816 120.0319505   4.8485033
  37.8329992 125.7639978  17.8150014  36.9819992 126.0019978  17.4470014
  38.4229992 125.7469978  17.0620014  37.7963812 125.7942524  17.6628453
  36.1649992 128.7489978   5.4430014  35.7919992 127.9239978   5.7520014
  36.4419992 128.5659978   4.5450014  36.1513463 128.6112569   5.3639525
  33.3249992 123.5569978  12.4640014  32.3969992 123.3259978  12.4370014
  33.7759992 122.7799978  12.1340014  33.2588165 123.4202774  12.4156790
  25.8679992 127.8859978   8.5970014  26.3959992 128.6589978   8.3970014
  24.9879992 128.1099978   8.2950014  25.8213435 128.0222700   8.5287310
  21.6229992 122.7479978   3.1840014  22.2389992 123.3749978   3.5640014
  20.7609992 123.0639978   3.4560014  21.5907678 122.8764412   3.2727209
  27.2959992 125.5489978   8.1730014  27.0549992 126.4739978   8.2150014
  26.5549992 125.0899978   8.5700014  27.1629206 125.6135915   8.2323769
  27.8099992 129.6979978  14.4880014  28.1729992 130.5519978  14.2550014
  28.3419992 129.4059978  15.2290014  27.9315141 129.7753895  14.5562097
  25.9789992 130.5699978   7.7190014  25.0289992 130.6759978   7.7700014
  26.3309992 131.3909978   8.0630014  25.8965472 130.6954923   7.7724852
  31.3539992 125.7969978  14.1890014  30.9289992 125.5689978  15.0150014
  31.9349992 125.0579978  14.0070014  31.3743395 125.6659545  14.2774414
  33.5569992 126.7259978   3.2630014  33.9109992 126.3459978   4.0670014
  32.6089992 126.6319978   3.3500014  33.4772298 126.6612452   3.3848687
  34.0129992 130.3489978  16.6580014  33.4109992 129.7929978  16.1630014
  34.2939992 131.0159978  16.0320014  33.9685757 130.3630744  16.5055675
  38.0609992 131.2049978   3.4640014  38.8049992 131.7909978   3.3240014
  37.3669992 131.7739978   3.7970014  38.0689809 131.3620818   3.4898590
  22.1349992 117.5819978  16.0660014  21.2429992 117.9199978  15.9980014
  22.0369992 116.7259978  16.4840014  21.9994475 117.5126543  16.1131704
  34.4229992 125.3979978   5.4900014  34.1459992 124.6699978   6.0460014
  35.3509992 125.5169978   5.6950014  34.5104499 125.3144213   5.5938044
  21.7869992 129.3859978  14.5010014  22.0039992 128.4539978  14.4700014
  22.0329992 129.6609978  15.3840014  21.8499809 129.2955686  14.6161691
  27.6479992 127.8379978   1.7100014  27.8869992 127.0889978   1.1630014
  27.3789992 127.4499978   2.5430014  27.6443233 127.6831853   1.7477809
  26.5849992 127.4079978   4.1660014  26.7319992 126.8879978   4.9560014
  26.5819992 128.3149978   4.4730014  26.6047102 127.4593953   4.3155925
  23.0379992 124.6599978   4.6770014  22.3519992 125.0129978   5.2440014
  23.5609992 125.4229978   4.4300014  23.0148402 124.8113901   4.7211801
  30.8699992 117.3229978  14.9560014  31.5689992 117.3969978  15.6060014
  30.4889992 116.4579978  15.1100014  30.9142097 117.2162389  15.0657997
  31.6539992 116.9749978   6.0530014  31.8739992 117.4459978   5.2490014
  32.2129992 117.3689978   6.7230014  31.7596731 117.0927287   6.0335033
  29.3229992 129.1049978   4.9160014  28.5059992 129.6019978   4.9680014
  29.8519992 129.5809978   4.2750014  29.2828125 129.2371989   4.8365306
  28.8539992 118.7029978   6.8880014  29.6659992 119.2069978   6.9340014
  28.6099992 118.5579978   7.8020014  28.9321467 118.7523749   7.0178575
  29.3899992 119.6889978  16.0720014  29.5089992 120.2629978  16.8290014
  30.0449992 119.0009978  16.1870014  29.4948684 119.6745194  16.1911674
  29.7379992 115.7839978   7.8260014  29.3909992 116.4009978   8.4700014
  30.3969992 116.2849978   7.3440014  29.7795090 115.9361575   7.8490681
  26.6609992 130.1489978   4.8970014  26.8219992 130.9489978   4.3970014
  26.4639992 130.4559978   5.7820014  26.6563906 130.2998678   4.9482333
  25.3959992 116.8469978   4.5130014  25.3119992 117.7349978   4.8600014
  26.2859992 116.5819978   4.7450014  25.5048163 116.9327179   4.5918596
  35.5939992 117.5959978  16.9070014  34.6779992 117.8579978  16.8200014
  35.9299992 117.5929978  16.0110014  35.5138499 117.6315163  16.7738766
  34.1969992 121.3459978  11.0030014  33.3989992 120.9309978  10.6750014
  34.6419992 120.6559978  11.4940014  34.1479684 121.1958628  11.0245227
  23.6539992 127.2739978   3.5730014  24.2459992 127.9739978   3.8500014
  24.1129992 126.8409978   2.8540014  23.7971652 127.3112675   3.5136533
  21.9699992 119.9389978   2.6890014  21.9249992 120.8779978   2.8680014
  21.0819992 119.7029978   2.4200014  21.8438166 120.0356687   2.6771524
  35.2829992 130.6019978  12.6250014  35.1269992 131.2809978  11.9680014
  36.2159992 130.6739978  12.8280014  35.3877387 130.7046390  12.5625342
  22.7779992 114.7199978  11.3630014  22.5489992 114.7789978  10.4350014
  22.3359992 113.9289978  11.6690014  22.6868801 114.6210540  11.2774729
  21.7089992 128.6609978   7.5230014  20.8759992 129.1329978   7.5500014
  22.2539992 129.1709978   6.9240014  21.6687857 128.7944791   7.4457142
  20.9969992 131.2729978  18.8530014  21.5369992 131.0569978  19.6130014
  20.5159992 130.4679978  18.6630014  21.0059219 131.1345156  18.9314282
  25.5939992 130.1929978  20.4730014  26.3619992 129.7339978  20.8140014
  25.5729992 129.9669978  19.5430014  25.6962135 130.0996668  20.3939491
  29.6859992 129.7009978   1.8490014  29.0419992 129.0699978   2.1700014
  30.4479992 129.1699978   1.6170014  29.7008058 129.5427902   1.8616038
  32.1709992 128.5729978  19.2020014  31.8199992 127.7159978  19.4460014
  32.8969992 128.7149978  19.8090014  32.2211895 128.4751351  19.3173770
  34.2909992 129.5179978   2.0820014  34.5739992 128.7229978   2.5350014
  35.0299992 129.7509978   1.5210014  34.4297096 129.4407049   2.0681104
  20.9039992 125.0839978  19.8070014  21.0479992 124.1819978  19.5210014
  20.1319992 125.3699978  19.3200014  20.8192733 124.9991798  19.7019532
  25.2449992 125.4269978   1.9400014  25.3099992 124.6329978   2.4700014
  25.8979992 125.3089978   1.2500014  25.3421605 125.3023430   1.9192997
  27.5589992 125.0529978  19.2400014  27.2309992 125.3239978  18.3830014
  27.7109992 124.1119978  19.1520014  27.5346412 124.9629046  19.1107822
  30.5979992 126.4739978   1.6760014  30.3289992 126.6549978   2.5760014
  30.3909992 125.5489978   1.5440014  30.5331191 126.3737119   1.7815524
  33.2939992 124.9689978  16.6230014  34.0389992 125.5579978  16.5040014
  32.5369992 125.5509978  16.6870014  33.2935470 125.1282128  16.6153799
  21.7369992 122.2839978  19.2270014  22.1449992 121.4269978  19.1060014
  21.4759992 122.2979978  20.1480014  21.7576016 122.1685119  19.3349192
  26.3949992 123.3999978   4.2460014  25.9349992 122.9159978   4.9310014
  26.6499992 122.7309978   3.6100014  26.3664856 123.2433669   4.2538397
  25.6839992 121.2929978  16.6020014  25.0649992 121.9669978  16.8820014
  26.0279992 121.6139978  15.7680014  25.6457123 121.4286887  16.5276388
  27.4659992 121.6429978   2.5080014  27.2849992 121.4879978   1.5810014
  28.4159992 121.7509978   2.5530014  27.5696566 121.6363669   2.3870929
  30.7029992 123.7639978  19.8790014  31.6569992 123.8479978  19.8520014
  30.5429992 123.0519978  20.4990014  30.8117182 123.6792842  19.9590733
  36.8559992 123.9969978   1.9540014  36.5819992 123.5729978   1.1410014
  36.8949992 124.9289978   1.7370014  36.8237716 124.0648827   1.8134286
  26.0229992 118.6479978  17.6840014  26.1729992 117.9189978  17.0820014
  26.0249992 119.4249978  17.1250014  26.0437967 118.6532708  17.5260541
  26.4359992 117.0169978  15.1770014  26.9709992 117.4689978  14.5250014
  25.5829992 116.9089978  14.7540014  26.3940374 117.0642665  15.0306710
  28.0169992 122.4569978  15.4160014  28.7679992 122.3009978  14.8430014
  27.6779992 123.3089978  15.1410014  28.0739587 122.5508138  15.3004078
  32.4329992 120.2719978  20.4450014  32.6249992 119.3409978  20.3330014
  33.2909992 120.6969978  20.4340014  32.5752182 120.2020070  20.4281862
  33.7499992 123.0609978  18.5220014  33.4679992 123.7699978  17.9440014
  34.6919992 122.9879978  18.3710014  33.8387921 123.1482193  18.4224225
  24.5019992 119.8459978  19.5950014  23.7339992 119.3129978  19.3850014
  25.1799992 119.5359978  18.9960014  24.4887235 119.7311754  19.4852413
  27.2409992 114.4739978  15.6080014  27.1429992 115.4199978  15.5030014
  26.4989992 114.1009978  15.1320014  27.1272534 114.5531773  15.5292600
  28.5049992 118.7949978  19.1720014  28.2699992 118.5759978  20.0730014
  27.7219992 118.5879978  18.6620014  28.3669095 118.7369892  19.2265353
  31.2209992 117.9229978  18.2470014  30.2729992 117.9549978  18.3790014
  31.5329992 117.2969978  18.9010014  31.1335293 117.8427923  18.3534148
  32.8549992 116.5569978  20.2520014  32.7579992 115.6049978  20.2470014
  32.5329992 116.8249978  21.1130014  32.7982468 116.4630884  20.3676210
  22.6819992 117.7659978  19.3000014  22.8939992 117.0599978  18.6900014
  22.5709992 117.3289978  20.1440014  22.6960269 117.6101921  19.3305873
  27.4629992 113.7679978  18.2790014  28.1749992 113.1279978  18.2650014
  27.3619992 114.0339978  17.3660014  27.5467387 113.7164330  18.1535563
  27.8169992 115.4499978  20.3330014  27.6849992 114.9749978  19.5130014
  27.2169992 116.1949978  20.2780014  27.7179070 115.4855789  20.2133251
  27.3629992 132.3329978   3.5090014  28.2959992 132.4909978   3.6530014
  27.0989992 133.0089978   2.8840014  27.4549911 132.4459373   3.4442722
  20.9309992 126.9699978   2.9920014  21.8449992 127.0489978   3.2650014
  20.9389992 126.2829978   2.3260014  21.0570655 126.8879205   2.9392917
  19.5799992 132.3629978   8.0690014  18.9329992 131.9009978   7.5370014
  19.9349992 131.6909978   8.6520014  19.5393741 132.2089774   8.0749175
  20.4499992 130.4429978   9.8740014  20.1159992 129.5629978  10.0460014
  20.6729992 130.7889978  10.7390014  20.4343721 130.3691938  10.0144168
  37.9989992 131.2529978  12.8550014  37.9769992 131.4379978  13.7940014
  38.6889992 131.8209978  12.5140014  38.0893439 131.3551887  12.9374791
  37.5619992 130.8199978  15.7760014  37.0749992 130.0849978  15.4050014
  38.1109992 130.4259978  16.4540014  37.5695247 130.6661057  15.8168461
  36.0129992 126.6099978  20.4150014  35.1469992 126.5049978  20.8090014
  36.3889992 127.3679978  20.8610014  35.9453401 126.6981708  20.5292620
  37.3139992 124.8659978   5.9290014  38.1639992 125.2869978   6.0560014
  37.3189992 124.1259978   6.5360014  37.4311143 124.8236094   6.0284750
  37.7079992 122.9199978   7.7520014  36.9819992 122.4399978   8.1500014
  38.2899992 123.1249978   8.4850014  37.6872730 122.8820184   7.9054149
  37.4669992 125.7049978  12.7000014  38.3009992 125.3269978  12.4190014
  37.5789992 126.6479978  12.5810014  37.5961917 125.7807943  12.6454861
  35.9539992 128.5829978  15.0070014  35.3059992 128.9079978  15.6320014
  35.4359992 128.1419978  14.3330014  35.7954196 128.5678651  15.0014152
  37.9769992 122.8209978   4.1430014  37.4549992 123.1769978   3.4250014
  37.9439992 123.4959978   4.8220014  37.9010129 122.9609598   4.1363355
  36.3259992 120.0599978   2.6940014  36.4219992 120.7269978   2.0140014
  36.1859992 119.2449978   2.2130014  36.3202040 120.0410671   2.5358378
  35.4949992 121.4409978   8.3150014  35.3449992 120.4959978   8.2950014
  35.1409992 121.7219978   9.1590014  35.4266351 121.3496644   8.4263220
  20.5299992 123.5189978  12.3260014  20.7149992 123.4369978  11.3900014
  21.3799992 123.3949978  12.7490014  20.6700928 123.4910463  12.2552893
  36.3509992 123.4109978  17.9540014  36.9339992 122.6759978  18.1460014
  36.9149992 124.1829978  18.0010014  36.5069781 123.4148145  17.9866164
  37.8479992 121.3139978  18.6390014  36.9849992 120.9349978  18.4730014
  38.4519992 120.5749978  18.5640014  37.8116085 121.1623223  18.6061695
  35.5729992 117.4679978   1.8120014  36.1839992 117.0969978   2.4490014
  34.7359992 117.0469978   2.0080014  35.5434947 117.3602756   1.9257252
  35.2059992 119.0229978   6.7780014  35.4849992 118.1159978   6.9020014
  35.9649992 119.4569978   6.3890014  35.3468619 118.9574502   6.7423795
  35.8169992 119.6049978  12.2140014  36.7499992 119.8169978  12.1790014
  35.5819992 119.7059978  13.1360014  35.9129517 119.6476833  12.3339130
  35.8469992 120.3419978  14.9900014  35.0039992 120.6099978  15.3560014
  36.2889992 121.1639978  14.7790014  35.7914138 120.4898273  15.0115518
  20.1279992 118.7889978  18.4660014  21.0469992 118.6669978  18.7030014
  19.6779992 118.0389978  18.8560014  20.1930087 118.6709608  18.5511410
  38.1299992 114.3219978  20.3430014  38.4789992 113.6679978  19.7380014
  38.2769992 115.1589978  19.9030014  38.1976824 114.3456024  20.2006304
  35.8189992 116.2859978   6.8260014  36.0009992 115.8369978   7.6510014
  35.2189992 115.7019978   6.3620014  35.7628187 116.1455552   6.8762739
  21.3489992 117.1019978  11.3580014  21.7939992 116.3099978  11.6600014
  21.8149992 117.8179978  11.7880014  21.4729718 117.0904534  11.4575265
  19.6529992 120.1009978  12.4270014  20.1449992 119.8799978  11.6360014
  20.0149992 120.9409978  12.7080014  19.7692923 120.1843468  12.3567407
  37.6489992 116.4309978  18.6920014  36.7319992 116.7019978  18.6570014
  37.7719992 115.8959978  17.9080014  37.5399672 116.3957885  18.5811862
  37.6859992 116.3539978   3.3540014  38.0979992 115.6329978   2.8790014
  38.3669992 117.0229978   3.4120014  37.8345536 116.3457766   3.2968024
  19.9669992 116.3589978   6.4810014  19.0419992 116.5669978   6.3520014
  20.4209992 116.8429978   5.7910014  19.9016298 116.4529299   6.3700451
  34.7369992 131.3429978   8.4270014  35.3899992 130.9949978   7.8190014
  35.2479992 131.8309978   9.0730014  34.8952777 131.3613815   8.4312047
  19.9299992 115.0969978  14.8250014  19.2649992 114.8509978  15.4680014
  19.4869992 115.7189978  14.2480014  19.7791168 115.1474214  14.8349848
  22.1219992 128.2719978  18.9700014  21.3009992 128.4469978  18.5090014
  21.8699992 128.1989978  19.8900014  21.9755594 128.2860717  19.0313611
  25.0759992 129.2459978  15.2280014  24.6519992 130.0559978  14.9460014
  25.9809992 129.3319978  14.9260014  25.1402138 129.3684160  15.1486415
  29.3879992 130.6449978  18.1880014  29.5719992 130.3119978  19.0660014
  30.2339992 130.9549978  17.8660014  29.5276484 130.6412979  18.2647617
  31.7329992 131.9309978  17.4320014  32.4099992 131.2979978  17.1920014
  32.0539992 132.3319978  18.2390014  31.8691323 131.8985691  17.5083158
  36.6499992 114.5209978  16.5110014  35.8369992 114.8459978  16.1240014
  36.8829992 113.7599978  15.9780014  36.5701347 114.4626880  16.3859841
  22.4779992 132.5029978  15.2760014  21.7579992 132.9429978  14.8250014
  22.1129992 132.2519978  16.1240014  22.3299643 132.5293369  15.3289129
  24.9449992 132.1029978  14.3060014  24.0809992 132.1749978  14.7100014
  24.8899992 132.6499978  13.5220014  24.8191942 132.1867849  14.2554000
  29.6559992 131.9909978  13.4810014  29.1989992 132.5199978  12.8270014
  29.8189992 132.5939978  14.2060014  29.6154960 132.1449280  13.4895274
  31.9839992 130.8689978  14.4260014  31.0789992 131.0339978  14.1600014
  32.4119992 131.7219978  14.3600014  31.9181537 131.0069134  14.3807095
  34.5879992 132.4389978  14.7210014  34.4059992 133.3549978  14.5100014
  34.7649992 132.0279978  13.8740014  34.5870030 132.5088273  14.5777166
  21.8929992 131.1259978  12.1860014  21.8749992 130.6999978  13.0430014
  22.6979992 130.8069978  11.7770014  21.9992875 131.0246435  12.2479515
  24.0339992 129.8359978  10.8410014  23.8149992 128.9189978  11.0110014
  24.8579992 129.9759978  11.3070014  24.1154702 129.7295511  10.9272527
  26.5709992 130.3059978  11.6900014  26.7839992 129.4179978  11.4030014
  26.6359992 130.2709978  12.6440014  26.6089149 130.1798326  11.7797369
  30.0799992 115.9699978  10.8340014  29.4059992 115.3399978  11.0900014
  30.6439992 115.4859978  10.2310014  30.0640384 115.8183708  10.7875020
  35.2229992 114.0769978  10.9470014  35.8259992 114.6249978  10.4450014
  34.3529992 114.3959978  10.7060014  35.1879157 114.1950373  10.8457910
  36.9499992 115.2159978   9.2800014  37.5609992 114.7019978   8.7530014
  37.3319992 116.0929978   9.3030014  37.0853305 115.2642050   9.2109418
  22.4069992 114.6039978   8.6560014  21.6299992 114.3689978   8.1490014
  22.9369992 113.8069978   8.6650014  22.3723451 114.4641268   8.5878627
  21.2429992 114.4019978   4.4600014  21.6819992 115.0129978   3.8680014
  20.6089992 114.9399978   4.9340014  21.2173859 114.5584064   4.4430305
  26.9859992 114.5299978   8.4690014  27.8599992 114.9189978   8.4400014
  26.8499992 114.3149978   9.3920014  27.0871953 114.5541643   8.5897617
  32.5429992 114.5599978  10.1190014  32.6189992 114.6559978   9.1690014
  32.2679992 113.6529978  10.2470014  32.5161871 114.4504146  10.0063944
  33.8959992 114.5859978   5.8110014  33.1929992 115.2009978   5.6010014
  33.4509992 113.7489978   5.9420014  33.7396550 114.5569668   5.7999837
  21.1439992 130.3499978   5.3570014  20.4589992 130.3119978   4.6900014
  21.1479992 131.2629978   5.6450014  21.0507621 130.4681924   5.3046126
  23.1039992 116.3179978   2.9020014  23.5949992 115.6879978   2.3750014
  23.7269992 116.6139978   3.5650014  23.2555304 116.2717376   2.9194940
  28.1299992 116.6109978   5.3590014  28.3079992 115.9639978   6.0420014
  28.0759992 117.4449978   5.8260014  28.1470678 116.6351604   5.5156301
  30.0079992 131.5589978   3.7550014  30.8739992 131.9259978   3.5770014
  29.7619992 131.1199978   2.9410014  30.0932097 131.5498525   3.6206019
  36.7169992 131.1219978   6.4340014  36.5229992 130.3739978   5.8690014
  36.6779992 131.8799978   5.8510014  36.6851645 131.1220786   6.2778148
  22.3639992 115.1179978  18.1740014  21.9979992 114.3519978  18.6160014
  23.2769992 115.1469978  18.4600014  22.4373172 115.0170324  18.2731890
  24.3369992 114.4679978  19.7090014  25.2359992 114.1939978  19.5250014
  23.9509992 113.7259978  20.1740014  24.4077307 114.3302196  19.7467098
  22.9619992 131.2699978   2.3820014  22.6939992 131.5559978   3.2560014
  23.7329992 130.7239978   2.5350014  23.0295926 131.2352779   2.5221205
  32.7589992 113.8009978  19.8920014  32.8349992 113.3749978  20.7450014
  33.6519992 113.8139978  19.5490014  32.8902303 113.7443493  19.9625497
  35.9349992 129.8739978  18.5840014  35.1529992 129.6869978  18.0640014
  35.8629992 130.8029978  18.8010014  35.8181924 129.9740637  18.5421602
  50.3409992 123.7599978   8.6150014  50.4299992 124.7039978   8.4830014
  49.7029992 123.4849978   7.9570014  50.2669062 123.8519812   8.5079641
  49.2739992 123.0149978  12.0340014  49.2359992 122.3689978  12.7390014
  48.9519992 122.5479978  11.2630014  49.2252679 122.8634276  12.0262921
  41.6419992 122.6289978  13.6270014  41.6839992 122.0039978  14.3500014
  42.3449992 123.2529978  13.8090014  41.7427345 122.6277873  13.7505274
  52.9799992 125.9539978  10.3350014  52.5389992 125.2339978  10.7860014
  52.9669992 126.6749978  10.9650014  52.9179215 125.9529291  10.4818105
  42.5659992 127.0789978  12.1620014  42.1959992 126.2769978  11.7920014
  43.5069992 126.9109978  12.2080014  42.6425984 126.9464638  12.1175603
  39.1759992 120.7389978   7.5540014  38.7279992 121.5849978   7.5360014
  38.6149992 120.1599978   7.0390014  39.0388546 120.7763993   7.4818891
  39.8859992 122.9009978   9.6800014  40.0999992 122.1309978  10.2080014
  40.6239992 122.9909978   9.0770014  40.0150200 122.8078586   9.6707035
  50.0919992 131.0579978  10.5470014  50.7109992 130.3819978  10.2740014
  49.8829992 130.8399978  11.4560014  50.1486056 130.9358869  10.6323967
  47.6629992 125.4469978  12.4400014  47.9669992 124.7609978  11.8450014
  48.3849992 125.5659978  13.0580014  47.8021240 125.3692314  12.4420959
  56.3259992 117.0489978  13.3000014  56.3759992 117.6589978  14.0360014
  56.7519992 117.5099978  12.5770014  56.3904108 117.1947709  13.3030112
  50.8039992 119.8409978  12.7670014  50.9469992 118.8949978  12.7870014
  50.6979992 120.0479978  11.8390014  50.8092403 119.7394797  12.6442239
  43.9589992 117.9429978  10.0400014  44.0019992 118.8029978   9.6210014
  43.5009992 117.3909978   9.4060014  43.9029871 117.9859245   9.8970761
  51.6809992 118.0739978   8.4410014  52.3279992 117.7449978   9.0650014
  52.1909992 118.5909978   7.8180014  51.8384351 118.0989067   8.4421037
  40.5789992 120.3399978  10.8020014  41.2329992 119.7899978  11.2340014
  40.6029992 120.0659978   9.8850014  40.6717199 120.2277167  10.7371668
  45.7359992 121.8899978  10.0170014  46.3519992 121.3629978  10.5260014
  45.1489992 121.2499978   9.6130014  45.7410154 121.7313954  10.0320945
  56.7179992 118.5269978  15.5360014  56.0289992 119.1849978  15.4410014
  56.7329992 118.3289978  16.4730014  56.6257756 118.5902603  15.6495812
  42.7689992 116.8609978  14.1140014  42.5499992 117.3909978  13.3470014
  42.1009992 117.0869978  14.7610014  42.6486975 116.9640967  14.0965140
  50.1379992 126.3609978   7.6580014  49.8429992 126.0379978   6.8060014
  49.8139992 127.2609978   7.6990014  50.0538460 126.4384464   7.5469714
  45.3379992 124.5359978  14.4010014  44.5979992 125.1349978  14.5050014
  46.0519992 125.0899978  14.0860014  45.3333500 124.6927829  14.3726371
  53.4449992 117.3649978  10.4210014  53.2299992 116.5989978  10.9540014
  54.1009992 117.8369978  10.9340014  53.5042673 117.3240728  10.5631990
  42.3629992 118.7529978  12.0660014  42.9769992 119.3859978  12.4390014
  42.8749992 118.2809978  11.4100014  42.5161962 118.7757249  12.0282935
  43.7459992 126.5009978  15.1880014  43.7399992 127.3799978  14.8100014
  42.8919992 126.4169978  15.6130014  43.6297925 126.6099535  15.1936887
  39.8669992 126.1719978   5.9700014  39.5949992 126.4009978   5.0820014
  39.9119992 127.0089978   6.4310014  39.8358097 126.3166163   5.9106683
  53.4919992 127.7929978  12.6830014  52.5499992 127.8519978  12.8450014
  53.7679992 128.6989978  12.5460014  53.4005865 127.9235288  12.6866192
  53.7919992 116.0799978  14.1000014  53.0559992 116.6899978  14.0630014
  54.4759992 116.4949978  13.5740014  53.7835367 116.2197551  14.0238174
  46.7959992 114.1659978  11.5660014  46.6779992 113.2179978  11.5120014
  45.9409992 114.4989978  11.8390014  46.6642805 114.0812202  11.5955079
  51.7439992 129.5739978   9.3080014  52.1689992 128.8669978   8.8230014
  52.0609992 130.3759978   8.8910014  51.8450266 129.5855190   9.1852479
  52.9039992 127.4749978   7.8170014  52.6459992 126.7849978   7.2050014
  52.9749992 127.0319978   8.6620014  52.8783050 127.3206814   7.8475621
  54.5899992 126.0419978  16.2940014  54.7289992 125.4499978  15.5550014
  54.7569992 126.9149978  15.9380014  54.6316193 126.0788896  16.1446211
  49.0619992 123.0039978   6.0670014  48.3509992 123.5389978   5.7150014
  49.7529992 123.0589978   5.4070014  49.0580751 123.0846777   5.9295858
  49.1159992 121.4609978   3.1050014  49.8169992 121.4839978   3.7570014
  49.4179992 120.8329978   2.4490014  49.2528202 121.3792212   3.1055609
  56.4309992 122.3819978  14.3600014  55.7789992 123.0759978  14.4490014
  56.8969992 122.5919978  13.5500014  56.4045937 122.5055019  14.2627533
  52.4679992 123.2129978   7.0180014  51.7359992 123.4419978   7.5920014
  52.9149992 122.4999978   7.4730014  52.4283963 123.1478729   7.1579945
  52.3649992 121.3879978  16.0860014  52.4449992 122.1509978  16.6580014
  51.7639992 121.6669978  15.3960014  52.2946547 121.5302457  16.0710047
  44.1129992 123.8439978   8.9010014  43.7829992 123.4729978   8.0830014
  44.7019992 123.1729978   9.2480014  44.1473970 123.7026063   8.8359404
  45.4799992 127.2719978  11.5820014  45.3849992 126.6929978  10.8260014
  46.2089992 126.9009978  12.0780014  45.5656011 127.1425561  11.5456028
  44.4799992 122.6119978  12.5340014  45.0449992 122.7339978  11.7720014
  44.7989992 123.2499978  13.1730014  44.6004166 122.7148791  12.5160348
  50.7889992 128.1159978  13.2680014  50.5489992 128.7779978  13.9160014
  50.5909992 127.2809978  13.6930014  50.7293826 128.0938115  13.4141566
  45.3599992 127.0119978  17.2520014  45.0489992 127.7939978  17.7070014
  44.7099992 126.8589978  16.5660014  45.2295538 127.0984087  17.2215898
  51.3389992 122.3759978   4.7040014  51.9179992 122.5259978   5.4500014
  51.7529992 122.8459978   3.9800014  51.4743358 122.4600955   4.7083953
  42.2799992 123.2099978  16.4800014  42.3499992 123.8609978  17.1790014
  41.3889992 123.3129978  16.1450014  42.1691690 123.3129249  16.5303043
  49.0649992 129.1119978   8.1390014  49.5389992 129.4079978   8.9160014
  48.5019992 129.8509978   7.9060014  49.0537890 129.2523036   8.2138101
  43.5989992 129.0829978  18.0150014  43.6069992 128.9469978  17.0680014
  42.6829992 128.9659978  18.2670014  43.4762528 129.0485463  17.9193243
  55.0379992 114.1259978   4.5170014  54.1379992 114.2649978   4.8120014
  55.2899992 114.9569978   4.1150014  54.9488683 114.2574055   4.5030232
  43.1039992 122.9129978   6.4900014  42.8119992 123.6809978   5.9990014
  42.4289992 122.2539978   6.3270014  42.9728497 122.9289745   6.4008260
  56.2269992 128.4919978   2.8930014  56.2999992 129.4309978   3.0630014
  57.1319992 128.1869978   2.8370014  56.3594170 128.5793282   2.9087063
  39.1969992 125.2759978  15.3050014  38.6949992 125.2479978  14.4900014
  39.2019992 124.3709978  15.6150014  39.1289832 125.1497486  15.2354121
  38.9469992 128.0569978  12.1890014  39.8929992 127.9119978  12.1700014
  38.8339992 128.8409978  12.7260014  39.0613578 128.1431697  12.2590317
  57.1449992 128.7229978  17.8720014  57.0949992 127.7669978  17.8340014
  56.3179992 128.9899978  18.2730014  57.0263831 128.6284680  17.9210121
  48.1229992 128.2969978  16.7480014  48.2109992 129.1229978  17.2230014
  47.2599992 127.9669978  16.9970014  48.0183357 128.3655468  16.8467653
  48.5379992 132.0689978   6.5540014  48.4619992 131.9479978   5.6070014
  48.5699992 133.0179978   6.6720014  48.5319380 132.1807677   6.4405181
  42.1909992 130.8579978   8.3350014  42.3429992 130.5099978   9.2130014
  41.3399992 130.5009978   8.0790014  42.0968344 130.7620879   8.4206868
  51.6389992 131.2229978   3.5560014  52.0139992 130.4789978   3.0850014
  51.6439992 130.9529978   4.4740014  51.6910098 131.0846392   3.6156629
  51.3079992 131.1489978   6.3050014  50.3729992 131.2489978   6.4840014
  51.5879992 130.4389978   6.8840014  51.2179471 131.0667933   6.4076695
  54.2969992 120.2159978  18.3520014  53.8889992 120.6959978  17.6310014
  54.3369992 119.3099978  18.0440014  54.2466221 120.1592449  18.2118267
  41.4459992 126.5999978  16.3480014  41.6619992 126.2379978  17.2080014
  40.5899992 126.2249978  16.1390014  41.3598810 126.4998837  16.4372680
  44.0639992 115.0699978  12.3440014  43.2029992 114.9829978  11.9360014
  44.0419992 115.9259978  12.7720014  43.9430491 115.1738003  12.3459582
  48.7269992 114.7919978  15.7190014  49.1469992 114.3769978  16.4720014
  47.7939992 114.6129978  15.8360014  48.6583736 114.7109910  15.8378968
  52.0539992 118.5469978  16.5720014  51.5399992 118.4219978  17.3700014
  51.8979992 119.4599978  16.3280014  51.9626967 118.6532123  16.6480937
  52.8159992 123.4079978   2.3330014  52.8579992 123.1859978   1.4030014
  53.6649992 123.8069978   2.5230014  52.9365253 123.4315498   2.2313822
  48.3889992 117.2839978   3.0040014  48.1349992 117.3029978   3.9260014
  48.1319992 116.4129978   2.7020014  48.3194508 117.1688280   3.0894803
  44.1549992 120.0349978  13.4390014  43.5139992 119.9949978  14.1480014
  44.1929992 120.9619978  13.2010014  44.0723010 120.1547668  13.5039946
  44.1519992 120.2559978   8.3510014  43.2599992 119.9159978   8.2920014
  44.6029992 119.8789978   7.5950014  44.0907642 120.1584910   8.2407726
  49.6879992 120.6719978   7.1680014  49.2789992 121.4869978   6.8760014
  50.4079992 120.5319978   6.5540014  49.7294439 120.7645372   7.0450115
  48.7899992 120.8479978  18.6560014  48.2269992 120.1429978  18.9770014
  49.6159992 120.7269978  19.1240014  48.8246674 120.7352165  18.7631751
  50.6929992 120.1179978   9.9820014  50.4969992 120.7239978   9.2670014
  50.8739992 119.2849978   9.5480014  50.6906584 120.0882513   9.8254212
  41.9049992 120.3559978  15.3060014  41.8669992 120.7559978  16.1750014
  41.4149992 119.5389978  15.3960014  41.8335330 120.3002674  15.4371289
  45.2709992 117.7299978   2.1050014  44.8399992 117.2849978   2.8340014
  44.5529992 118.1009978   1.5920014  45.1149176 117.7192051   2.1354930
  38.5139992 117.4719978   9.1570014  39.1439992 117.4429978   9.8760014
  38.9629992 117.0469978   8.4260014  38.6610835 117.4105660   9.1567659
  39.7879992 118.2179978   4.5810014  40.2619992 118.8089978   3.9960014
  39.0699992 118.7479978   4.9280014  39.7558640 118.3705511   4.5477969
  49.9569992 121.7559978  14.6530014  50.2799992 121.1249978  14.0100014
  49.5159992 121.2219978  15.3140014  49.9416379 121.5973468  14.6542582
  46.7339992 117.6839978   9.4370014  45.8229992 117.7409978   9.7260014
  47.2389992 117.6239978  10.2480014  46.6776873 117.6836826   9.5861207
  41.5619992 119.3129978   8.2640014  40.6729992 119.4119978   7.9240014
  41.8589992 118.4709978   7.9180014  41.4804177 119.2127687   8.1706940
  45.2149992 119.3129978   5.9210014  46.1469992 119.4419978   6.0990014
  44.9999992 119.9819978   5.2710014  45.3134472 119.4210806   5.8574891
  51.1389992 116.9189978  12.7020014  50.4619992 117.0499978  13.3650014
  50.6539992 116.7639978  11.8910014  50.9807405 116.9159947  12.6832170
  43.8889992 120.5069978   3.4870014  43.3469992 120.1279978   2.7960014
  44.7229992 120.7019978   3.0590014  43.9274390 120.4814079   3.3344392
  54.4269992 132.5899978  18.9780014  54.6259992 133.0139978  18.1440014
  55.0819992 132.9339978  19.5850014  54.5428522 132.6946301  18.9457852
  42.0249992 125.0639978  18.5860014  42.7569992 125.3189978  19.1480014
  41.2439992 125.2689978  19.1020014  42.0196526 125.1265450  18.7325176
  48.0539992 120.4709978  11.3240014  48.6179992 119.9249978  10.7770014
  47.9059992 119.9499978  12.1130014  48.1113037 120.3256787  11.3557229
  43.0559992 116.6079978   7.7430014  42.7389992 115.7049978   7.7070014
  43.8369992 116.6099978   7.1900014  43.1182431 116.4847797   7.6633102
  46.6799992 118.8599978  13.7380014  45.8449992 119.3139978  13.8490014
  47.2039992 119.1359978  14.4900014  46.6366072 118.9593948  13.8548136
  47.2249992 125.0729978   5.4230014  46.4799992 124.5649978   5.1010014
  47.0899992 125.1219978   6.3690014  47.1048963 125.0101731   5.5068826
  54.3749992 124.2059978  14.2100014  55.0159992 124.6619978  13.6660014
  53.5439992 124.3189978  13.7470014  54.3505287 124.2836921  14.0729887
  51.1219992 117.8869978   3.6220014  50.1839992 117.9979978   3.4710014
  51.4199992 118.7429978   3.9290014  51.0336318 118.0180158   3.6428145
  48.7439992 125.2569978  16.6600014  48.3979992 124.8749978  17.4670014
  48.5439992 126.1899978  16.7310014  48.6695987 125.3309002  16.7800461
  51.8409992 119.7539978   5.2830014  52.7329992 119.6159978   5.6020014
  51.8969992 120.5449978   4.7460014  51.9707325 119.8419918   5.2541217
  42.3489992 124.3679978  11.1930014  43.0939992 124.3649978  10.5910014
  42.4269992 123.5439978  11.6740014  42.4613366 124.2562384  11.1757430
  49.3499992 126.5309978   4.4480014  49.0549992 127.3579978   4.8300014
  48.6469992 125.9119978   4.6450014  49.2146379 126.5604171   4.5268654
  39.3569992 122.8279978  16.5080014  39.5799992 122.4099978  17.3390014
  38.7549992 122.2159978  16.0850014  39.3061513 122.6879606  16.5646740
  46.3739992 122.3449978  18.7210014  46.0779992 122.1799978  17.8250014
  47.3049992 122.1249978  18.7100014  46.4594401 122.2926879  18.5970206
  50.9939992 127.7189978  16.6100014  50.0939992 127.9019978  16.3430014
  51.0279992 127.9779978  17.5310014  50.8753748 127.7790554  16.6979164
  56.7259992 119.9629978   4.9780014  56.1709992 119.5669978   4.3050014
  56.8259992 120.8739978   4.7000014  56.6636816 120.0319505   4.8485033
  56.6889992 125.7639978  17.8150014  55.8379992 126.0019978  17.4470014
  57.2789992 125.7469978  17.0620014  56.6523812 125.7942524  17.6628453
  55.0209992 128.7489978   5.4430014  54.6479992 127.9239978   5.7520014
  55.2979992 128.5659978   4.5450014  55.0073463 128.6112569   5.3639525
  52.1809992 123.5569978  12.4640014  51.2529992 123.3259978  12.4370014
  52.6319992 122.7799978  12.1340014  52.1148165 123.4202774  12.4156790
  44.7239992 127.8859978   8.5970014  45.2519992 128.6589978   8.3970014
  43.8439992 128.1099978   8.2950014  44.6773435 128.0222700   8.5287310
  40.4789992 122.7479978   3.1840014  41.0949992 123.3749978   3.5640014
  39.6169992 123.0639978   3.4560014  40.4467678 122.8764412   3.2727209
  46.1519992 125.5489978   8.1730014  45.9109992 126.4739978   8.2150014
  45.4109992 125.0899978   8.5700014  46.0189206 125.6135915   8.2323769
  46.6659992 129.6979978  14.4880014  47.0289992 130.5519978  14.2550014
  47.1979992 129.4059978  15.2290014  46.7875141 129.7753895  14.5562097
  44.8349992 130.5699978   7.7190014  43.8849992 130.6759978   7.7700014
  45.1869992 131.3909978   8.0630014  44.7525472 130.6954923   7.7724852
  50.2099992 125.7969978  14.1890014  49.7849992 125.5689978  15.0150014
  50.7909992 125.0579978  14.0070014  50.2303395 125.6659545  14.2774414
  52.4129992 126.7259978   3.2630014  52.7669992 126.3459978   4.0670014
  51.4649992 126.6319978   3.3500014  52.3332298 126.6612452   3.3848687
  52.8689992 130.3489978  16.6580014  52.2669992 129.7929978  16.1630014
  53.1499992 131.0159978  16.0320014  52.8245757 130.3630744  16.5055675
  56.9169992 131.2049978   3.4640014  57.6609992 131.7909978   3.3240014
  56.2229992 131.7739978   3.7970014  56.9249809 131.3620818   3.4898590
  40.9909992 117.5819978  16.0660014  40.0989992 117.9199978  15.9980014
  40.8929992 116.7259978  16.4840014  40.8554475 117.5126543  16.1131704
  53.2789992 125.3979978   5.4900014  53.0019992 124.6699978   6.0460014
  54.2069992 125.5169978   5.6950014  53.3664499 125.3144213   5.5938044
  40.6429992 129.3859978  14.5010014  40.8599992 128.4539978  14.4700014
  40.8889992 129.6609978  15.3840014  40.7059809 129.2955686  14.6161691
  46.5039992 127.8379978   1.7100014  46.7429992 127.0889978   1.1630014
  46.2349992 127.4499978   2.5430014  46.5003233 127.6831853   1.7477809
  45.4409992 127.4079978   4.1660014  45.5879992 126.8879978   4.9560014
  45.4379992 128.3149978   4.4730014  45.4607102 127.4593953   4.3155925
  41.8939992 124.6599978   4.6770014  41.2079992 125.0129978   5.2440014
  42.4169992 125.4229978   4.4300014  41.8708402 124.8113901   4.7211801
  49.7259992 117.3229978  14.9560014  50.4249992 117.3969978  15.6060014
  49.3449992 116.4579978  15.1100014  49.7702097 117.2162389  15.0657997
  50.5099992 116.9749978   6.0530014  50.7299992 117.4459978   5.2490014
  51.0689992 117.3689978   6.7230014  50.6156731 117.0927287   6.0335033
  48.1789992 129.1049978   4.9160014  47.3619992 129.6019978   4.9680014
  48.7079992 129.5809978   4.2750014  48.1388125 129.2371989   4.8365306
  47.7099992 118.7029978   6.8880014  48.5219992 119.2069978   6.9340014
  47.4659992 118.5579978   7.8020014  47.7881467 118.7523749   7.0178575
  48.2459992 119.6889978  16.0720014  48.3649992 120.2629978  16.8290014
  48.9009992 119.0009978  16.1870014  48.3508684 119.6745194  16.1911674
  48.5939992 115.7839978   7.8260014  48.2469992 116.4009978   8.4700014
  49.2529992 116.2849978   7.3440014  48.6355090 115.9361575   7.8490681
  45.5169992 130.1489978   4.8970014  45.6779992 130.9489978   4.3970014
  45.3199992 130.4559978   5.7820014  45.5123906 130.2998678   4.9482333
  44.2519992 116.8469978   4.5130014  44.1679992 117.7349978   4.8600014
  45.1419992 116.5819978   4.7450014  44.3608163 116.9327179   4.5918596
  54.4499992 117.5959978  16.9070014  53.5339992 117.8579978  16.8200014
  54.7859992 117.5929978  16.0110014  54.3698499 117.6315163  16.7738766
  53.0529992 121.3459978  11.0030014  52.2549992 120.9309978  10.6750014
  53.4979992 120.6559978  11.4940014  53.0039684 121.1958628  11.0245227
  42.5099992 127.2739978   3.5730014  43.1019992 127.9739978   3.8500014
  42.9689992 126.8409978   2.8540014  42.6531652 127.3112675   3.5136533
  40.8259992 119.9389978   2.6890014  40.7809992 120.8779978   2.8680014
  39.9379992 119.7029978   2.4200014  40.6998166 120.0356687   2.6771524
  54.1389992 130.6019978  12.6250014  53.9829992 131.2809978  11.9680014
  55.0719992 130.6739978  12.8280014  54.2437387 130.7046390  12.5625342
  41.6339992 114.7199978  11.3630014  41.4049992 114.7789978  10.4350014
  41.1919992 113.9289978  11.6690014  41.5428801 114.6210540  11.2774729
  40.5649992 128.6609978   7.5230014  39.7319992 129.1329978   7.5500014
  41.1099992 129.1709978   6.9240014  40.5247857 128.7944791   7.4457142
  39.8529992 131.2729978  18.8530014  40.3929992 131.0569978  19.6130014
  39.3719992 130.4679978  18.6630014  39.8619219 131.1345156  18.9314282
  44.4499992 130.1929978  20.4730014  45.2179992 129.7339978  20.8140014
  44.4289992 129.9669978  19.5430014  44.5522135 130.0996668  20.3939491
  48.5419992 129.7009978   1.8490014  47.8979992 129.0699978   2.1700014
  49.3039992 129.1699978   1.6170014  48.5568058 129.5427902   1.8616038
  51.0269992 128.5729978  19.2020014  50.6759992 127.7159978  19.4460014
  51.7529992 128.7149978  19.8090014  51.0771895 128.4751351  19.3173770
  53.1469992 129.5179978   2.0820014  53.4299992 128.7229978   2.5350014
  53.8859992 129.7509978   1.5210014  53.2857096 129.4407049   2.0681104
  39.7599992 125.0839978  19.8070014  39.9039992 124.1819978  19.5210014
  38.9879992 125.3699978  19.3200014  39.6752733 124.9991798  19.7019532
  44.1009992 125.4269978   1.9400014  44.1659992 124.6329978   2.4700014
  44.7539992 125.3089978   1.2500014  44.1981605 125.3023430   1.9192997
  46.4149992 125.0529978  19.2400014  46.0869992 125.3239978  18.3830014
  46.5669992 124.1119978  19.1520014  46.3906412 124.9629046  19.1107822
  49.4539992 126.4739978   1.6760014  49.1849992 126.6549978   2.5760014
  49.2469992 125.5489978   1.5440014  49.3891191 126.3737119   1.7815524
  52.1499992 124.9689978  16.6230014  52.8949992 125.5579978  16.5040014
  51.3929992 125.5509978  16.6870014  52.1495470 125.1282128  16.6153799
  40.5929992 122.2839978  19.2270014  41.0009992 121.4269978  19.1060014
  40.3319992 122.2979978  20.1480014  40.6136016 122.1685119  19.3349192
  45.2509992 123.3999978   4.2460014  44.7909992 122.9159978   4.9310014
  45.5059992 122.7309978   3.6100014  45.2224856 123.2433669   4.2538397
  44.5399992 121.2929978  16.6020014  43.9209992 121.9669978  16.8820014
  44.8839992 121.6139978  15.7680014  44.5017123 121.4286887  16.5276388
  46.3219992 121.6429978   2.5080014  46.1409992 121.4879978   1.5810014
  47.2719992 121.7509978   2.5530014  46.4256566 121.6363669   2.3870929
  49.5589992 123.7639978  19.8790014  50.5129992 123.8479978  19.8520014
  49.3989992 123.0519978  20.4990014  49.6677182 123.6792842  19.9590733
  55.7119992 123.9969978   1.9540014  55.4379992 123.5729978   1.1410014
  55.7509992 124.9289978   1.7370014  55.6797716 124.0648827   1.8134286
  44.8789992 118.6479978  17.6840014  45.0289992 117.9189978  17.0820014
  44.8809992 119.4249978  17.1250014  44.8997967 118.6532708  17.5260541
  45.2919992 117.0169978  15.1770014  45.8269992 117.4689978  14.5250014
  44.4389992 116.9089978  14.7540014  45.2500374 117.0642665  15.0306710
  46.8729992 122.4569978  15.4160014  47.6239992 122.3009978  14.8430014
  46.5339992 123.3089978  15.1410014  46.9299587 122.5508138  15.3004078
  51.2889992 120.2719978  20.4450014  51.4809992 119.3409978  20.3330014
  52.1469992 120.6969978  20.4340014  51.4312182 120.2020070  20.4281862
  52.6059992 123.0609978  18.5220014  52.3239992 123.7699978  17.9440014
  53.5479992 122.9879978  18.3710014  52.6947921 123.1482193  18.4224225
  43.3579992 119.8459978  19.5950014  42.5899992 119.3129978  19.3850014
  44.0359992 119.5359978  18.9960014  43.3447235 119.7311754  19.4852413
  46.0969992 114.4739978  15.6080014  45.9989992 115.4199978  15.5030014
  45.3549992 114.1009978  15.1320014  45.9832534 114.5531773  15.5292600
  47.3609992 118.7949978  19.1720014  47.1259992 118.5759978  20.0730014
  46.5779992 118.5879978  18.6620014  47.2229095 118.7369892  19.2265353
  50.0769992 117.9229978  18.2470014  49.1289992 117.9549978  18.3790014
  50.3889992 117.2969978  18.9010014  49.9895293 117.8427923  18.3534148
  51.7109992 116.5569978  20.2520014  51.6139992 115.6049978  20.2470014
  51.3889992 116.8249978  21.1130014  51.6542468 116.4630884  20.3676210
  41.5379992 117.7659978  19.3000014  41.7499992 117.0599978  18.6900014
  41.4269992 117.3289978  20.1440014  41.5520269 117.6101921  19.3305873
  46.3189992 113.7679978  18.2790014  47.0309992 113.1279978  18.2650014
  46.2179992 114.0339978  17.3660014  46.4027387 113.7164330  18.1535563
  46.6729992 115.4499978  20.3330014  46.5409992 114.9749978  19.5130014
  46.0729992 116.1949978  20.2780014  46.5739070 115.4855789  20.2133251
  46.2189992 132.3329978   3.5090014  47.1519992 132.4909978   3.6530014
  45.9549992 133.0089978   2.8840014  46.3109911 132.4459373   3.4442722
  39.7869992 126.9699978   2.9920014  40.7009992 127.0489978   3.2650014
  39.7949992 126.2829978   2.3260014  39.9130655 126.8879205   2.9392917
  38.4359992 132.3629978   8.0690014  37.7889992 131.9009978   7.5370014
  38.7909992 131.6909978   8.6520014  38.3953741 132.2089774   8.0749175
  39.3059992 130.4429978   9.8740014  38.9719992 129.5629978  10.0460014
  39.5289992 130.7889978  10.7390014  39.2903721 130.3691938  10.0144168
  56.8549992 131.2529978  12.8550014  56.8329992 131.4379978  13.7940014
  57.5449992 131.8209978  12.5140014  56.9453439 131.3551887  12.9374791
  56.4179992 130.8199978  15.7760014  55.9309992 130.0849978  15.4050014
  56.9669992 130.4259978  16.4540014  56.4255247 130.6661057  15.8168461
  54.8689992 126.6099978  20.4150014  54.0029992 126.5049978  20.8090014
  55.2449992 127.3679978  20.8610014  54.8013401 126.6981708  20.5292620
  56.1699992 124.8659978   5.9290014  57.0199992 125.2869978   6.0560014
  56.1749992 124.1259978   6.5360014  56.2871143 124.8236094   6.0284750
  56.5639992 122.9199978   7.7520014  55.8379992 122.4399978   8.1500014
  57.1459992 123.1249978   8.4850014  56.5432730 122.8820184   7.9054149
  56.3229992 125.7049978  12.7000014  57.1569992 125.3269978  12.4190014
  56.4349992 126.6479978  12.5810014  56.4521917 125.7807943  12.6454861
  54.8099992 128.5829978  15.0070014  54.1619992 128.9079978  15.6320014
  54.2919992 128.1419978  14.3330014  54.6514196 128.5678651  15.0014152
  56.8329992 122.8209978   4.1430014  56.3109992 123.1769978   3.4250014
  56.7999992 123.4959978   4.8220014  56.7570129 122.9609598   4.1363355
  55.1819992 120.0599978   2.6940014  55.2779992 120.7269978   2.0140014
  55.0419992 119.2449978   2.2130014  55.1762040 120.0410671   2.5358378
  54.3509992 121.4409978   8.3150014  54.2009992 120.4959978   8.2950014
  53.9969992 121.7219978   9.1590014  54.2826351 121.3496644   8.4263220
  39.3859992 123.5189978  12.3260014  39.5709992 123.4369978  11.3900014
  40.2359992 123.3949978  12.7490014  39.5260928 123.4910463  12.2552893
  55.2069992 123.4109978  17.9540014  55.7899992 122.6759978  18.1460014
  55.7709992 124.1829978  18.0010014  55.3629781 123.4148145  17.9866164
  56.7039992 121.3139978  18.6390014  55.8409992 120.9349978  18.4730014
  57.3079992 120.5749978  18.5640014  56.6676085 121.1623223  18.6061695
  54.4289992 117.4679978   1.8120014  55.0399992 117.0969978   2.4490014
  53.5919992 117.0469978   2.0080014  54.3994947 117.3602756   1.9257252
  54.0619992 119.0229978   6.7780014  54.3409992 118.1159978   6.9020014
  54.8209992 119.4569978   6.3890014  54.2028619 118.9574502   6.7423795
  54.6729992 119.6049978  12.2140014  55.6059992 119.8169978  12.1790014
  54.4379992 119.7059978  13.1360014  54.7689517 119.6476833  12.3339130
  54.7029992 120.3419978  14.9900014  53.8599992 120.6099978  15.3560014
  55.1449992 121.1639978  14.7790014  54.6474138 120.4898273  15.0115518
  38.9839992 118.7889978  18.4660014  39.9029992 118.6669978  18.7030014
  38.5339992 118.0389978  18.8560014  39.0490087 118.6709608  18.5511410
  56.9859992 114.3219978  20.3430014  57.3349992 113.6679978  19.7380014
  57.1329992 115.1589978  19.9030014  57.0536824 114.3456024  20.2006304
  54.6749992 116.2859978   6.8260014  54.8569992 115.8369978   7.6510014
  54.0749992 115.7019978   6.3620014  54.6188187 116.1455552   6.8762739
  40.2049992 117.1019978  11.3580014  40.6499992 116.3099978  11.6600014
  40.6709992 117.8179978  11.7880014  40.3289718 117.0904534  11.4575265
  38.5089992 120.1009978  12.4270014  39.0009992 119.8799978  11.6360014
  38.8709992 120.9409978  12.7080014  38.6252923 120.1843468  12.3567407
  56.5049992 116.4309978  18.6920014  55.5879992 116.7019978  18.6570014
  56.6279992 115.8959978  17.9080014  56.3959672 116.3957885  18.5811862
  56.5419992 116.3539978   3.3540014  56.9539992 115.6329978   2.8790014
  57.2229992 117.0229978   3.4120014  56.6905536 116.3457766   3.2968024
  38.8229992 116.3589978   6.4810014  37.8979992 116.5669978   6.3520014
  39.2769992 116.8429978   5.7910014  38.7576298 116.4529299   6.3700451
  53.5929992 131.3429978   8.4270014  54.2459992 130.9949978   7.8190014
  54.1039992 131.8309978   9.0730014  53.7512777 131.3613815   8.4312047
  38.7859992 115.0969978  14.8250014  38.1209992 114.8509978  15.4680014
  38.3429992 115.7189978  14.2480014  38.6351168 115.1474214  14.8349848
  40.9779992 128.2719978  18.9700014  40.1569992 128.4469978  18.5090014
  40.7259992 128.1989978  19.8900014  40.8315594 128.2860717  19.0313611
  43.9319992 129.2459978  15.2280014  43.5079992 130.0559978  14.9460014
  44.8369992 129.3319978  14.9260014  43.9962138 129.3684160  15.1486415
  48.2439992 130.6449978  18.1880014  48.4279992 130.3119978  19.0660014
  49.0899992 130.9549978  17.8660014  48.3836484 130.6412979  18.2647617
  50.5889992 131.9309978  17.4320014  51.2659992 131.2979978  17.1920014
  50.9099992 132.3319978  18.2390014  50.7251323 131.8985691  17.5083158
  55.5059992 114.5209978  16.5110014  54.6929992 114.8459978  16.1240014
  55.7389992 113.7599978  15.9780014  55.4261347 114.4626880  16.3859841
  41.3339992 132.5029978  15.2760014  40.6139992 132.9429978  14.8250014
  40.9689992 132.2519978  16.1240014  41.1859643 132.5293369  15.3289129
  43.8009992 132.1029978  14.3060014  42.9369992 132.1749978  14.7100014
  43.7459992 132.6499978  13.5220014  43.6751942 132.1867849  14.2554000
  48.5119992 131.9909978  13.4810014  48.0549992 132.5199978  12.8270014
  48.6749992 132.5939978  14.2060014  48.4714960 132.1449280  13.4895274
  50.8399992 130.8689978  14.4260014  49.9349992 131.0339978  14.1600014
  51.2679992 131.7219978  14.3600014  50.7741537 131.0069134  14.3807095
  53.4439992 132.4389978  14.7210014  53.2619992 133.3549978  14.5100014
  53.6209992 132.0279978  13.8740014  53.4430030 132.5088273  14.5777166
  40.7489992 131.1259978  12.1860014  40.7309992 130.6999978  13.0430014
  41.5539992 130.8069978  11.7770014  40.8552875 131.0246435  12.2479515
  42.8899992 129.8359978  10.8410014  42.6709992 128.9189978  11.0110014
  43.7139992 129.9759978  11.3070014  42.9714702 129.7295511  10.9272527
  45.4269992 130.3059978  11.6900014  45.6399992 129.4179978  11.4030014
  45.4919992 130.2709978  12.6440014  45.4649149 130.1798326  11.7797369
  48.9359992 115.9699978  10.8340014  48.2619992 115.3399978  11.0900014
  49.4999992 115.4859978  10.2310014  48.9200384 115.8183708  10.7875020
  54.0789992 114.0769978  10.9470014  54.6819992 114.6249978  10.4450014
  53.2089992 114.3959978  10.7060014  54.0439157 114.1950373  10.8457910
  55.8059992 115.2159978   9.2800014  56.4169992 114.7019978   8.7530014
  56.1879992 116.0929978   9.3030014  55.9413305 115.2642050   9.2109418
  41.2629992 114.6039978   8.6560014  40.4859992 114.3689978   8.1490014
  41.7929992 113.8069978   8.6650014  41.2283451 114.4641268   8.5878627
  40.0989992 114.4019978   4.4600014  40.5379992 115.0129978   3.8680014
  39.4649992 114.9399978   4.9340014  40.0733859 114.5584064   4.4430305
  45.8419992 114.5299978   8.4690014  46.7159992 114.9189978   8.4400014
  45.7059992 114.3149978   9.3920014  45.9431953 114.5541643   8.5897617
  51.3989992 114.5599978  10.1190014  51.4749992 114.6559978   9.1690014
  51.1239992 113.6529978  10.2470014  51.3721871 114.4504146  10.0063944
  52.7519992 114.5859978   5.8110014  52.0489992 115.2009978   5.6010014
  52.3069992 113.7489978   5.9420014  52.5956550 114.5569668   5.7999837
  39.9999992 130.3499978   5.3570014  39.3149992 130.3119978   4.6900014
  40.0039992 131.2629978   5.6450014  39.9067621 130.4681924   5.3046126
  41.9599992 116.3179978   2.9020014  42.4509992 115.6879978   2.3750014
  42.5829992 116.6139978   3.5650014  42.1115304 116.2717376   2.9194940
  46.9859992 116.6109978   5.3590014  47.1639992 115.9639978   6.0420014
  46.9319992 117.4449978   5.8260014  47.0030678 116.6351604   5.5156301
  48.8639992 131.5589978   3.7550014  49.7299992 131.9259978   3.5770014
  48.6179992 131.1199978   2.9410014  48.9492097 131.5498525   3.6206019
  55.5729992 131.1219978   6.4340014  55.3789992 130.3739978   5.8690014
  55.5339992 131.8799978   5.8510014  55.5411645 131.1220786   6.2778148
  41.2199992 115.1179978  18.1740014  40.8539992 114.3519978  18.6160014
  42.1329992 115.1469978  18.4600014  41.2933172 115.0170324  18.2731890
  43.1929992 114.4679978  19.7090014  44.0919992 114.1939978  19.5250014
  42.8069992 113.7259978  20.1740014  43.2637307 114.3302196  19.7467098
  41.8179992 131.2699978   2.3820014  41.5499992 131.5559978   3.2560014
  42.5889992 130.7239978   2.5350014  41.8855926 131.2352779   2.5221205
  51.6149992 113.8009978  19.8920014  51.6909992 113.3749978  20.7450014
  52.5079992 113.8139978  19.5490014  51.7462303 113.7443493  19.9625497
  54.7909992 129.8739978  18.5840014  54.0089992 129.6869978  18.0640014
  54.7189992 130.8029978  18.8010014  54.6741924 129.9740637  18.5421602
  69.1969992 123.7599978   8.6150014  69.2859992 124.7039978   8.4830014
  68.5589992 123.4849978   7.9570014  69.1229062 123.8519812   8.5079641
  68.1299992 123.0149978  12.0340014  68.0919992 122.3689978  12.7390014
  67.8079992 122.5479978  11.2630014  68.0812679 122.8634276  12.0262921
  60.4979992 122.6289978  13.6270014  60.5399992 122.0039978  14.3500014
  61.2009992 123.2529978  13.8090014  60.5987345 122.6277873  13.7505274
  71.8359992 125.9539978  10.3350014  71.3949992 125.2339978  10.7860014
  71.8229992 126.6749978  10.9650014  71.7739215 125.9529291  10.4818105
  61.4219992 127.0789978  12.1620014  61.0519992 126.2769978  11.7920014
  62.3629992 126.9109978  12.2080014  61.4985984 126.9464638  12.1175603
  58.0319992 120.7389978   7.5540014  57.5839992 121.5849978   7.5360014
  57.4709992 120.1599978   7.0390014  57.8948546 120.7763993   7.4818891
  58.7419992 122.9009978   9.6800014  58.9559992 122.1309978  10.2080014
  59.4799992 122.9909978   9.0770014  58.8710200 122.8078587   9.6707035
  68.9479992 131.0579978  10.5470014  69.5669992 130.3819978  10.2740014
  68.7389992 130.8399978  11.4560014  69.0046056 130.9358869  10.6323967
  66.5189992 125.4469978  12.4400014  66.8229992 124.7609978  11.8450014
  67.2409992 125.5659978  13.0580014  66.6581240 125.3692314  12.4420959
  75.1819992 117.0489978  13.3000014  75.2319992 117.6589978  14.0360014
  75.6079992 117.5099978  12.5770014  75.2464108 117.1947709  13.3030112
  69.6599992 119.8409978  12.7670014  69.8029992 118.8949978  12.7870014
  69.5539992 120.0479978  11.8390014  69.6652403 119.7394797  12.6442239
  62.8149992 117.9429978  10.0400014  62.8579992 118.8029978   9.6210014
  62.3569992 117.3909978   9.4060014  62.7589871 117.9859245   9.8970761
  70.5369992 118.0739978   8.4410014  71.1839992 117.7449978   9.0650014
  71.0469992 118.5909978   7.8180014  70.6944351 118.0989067   8.4421037
  59.4349992 120.3399978  10.8020014  60.0889992 119.7899978  11.2340014
  59.4589992 120.0659978   9.8850014  59.5277199 120.2277167  10.7371668
  64.5919992 121.8899978  10.0170014  65.2079992 121.3629978  10.5260014
  64.0049992 121.2499978   9.6130014  64.5970154 121.7313954  10.0320945
  75.5739992 118.5269978  15.5360014  74.8849992 119.1849978  15.4410014
  75.5889992 118.3289978  16.4730014  75.4817756 118.5902603  15.6495812
  61.6249992 116.8609978  14.1140014  61.4059992 117.3909978  13.3470014
  60.9569992 117.0869978  14.7610014  61.5046975 116.9640967  14.0965140
  68.9939992 126.3609978   7.6580014  68.6989992 126.0379978   6.8060014
  68.6699992 127.2609978   7.6990014  68.9098460 126.4384464   7.5469714
  64.1939992 124.5359978  14.4010014  63.4539992 125.1349978  14.5050014
  64.9079992 125.0899978  14.0860014  64.1893500 124.6927829  14.3726371
  72.3009992 117.3649978  10.4210014  72.0859992 116.5989978  10.9540014
  72.9569992 117.8369978  10.9340014  72.3602673 117.3240728  10.5631990
  61.2189992 118.7529978  12.0660014  61.8329992 119.3859978  12.4390014
  61.7309992 118.2809978  11.4100014  61.3721962 118.7757249  12.0282935
  62.6019992 126.5009978  15.1880014  62.5959992 127.3799978  14.8100014
  61.7479992 126.4169978  15.6130014  62.4857925 126.6099535  15.1936887
  58.7229992 126.1719978   5.9700014  58.4509992 126.4009978   5.0820014
  58.7679992 127.0089978   6.4310014  58.6918097 126.3166163   5.9106683
  72.3479992 127.7929978  12.6830014  71.4059992 127.8519978  12.8450014
  72.6239992 128.6989978  12.5460014  72.2565865 127.9235288  12.6866192
  72.6479992 116.0799978  14.1000014  71.9119992 116.6899978  14.0630014
  73.3319992 116.4949978  13.5740014  72.6395367 116.2197551  14.0238174
  65.6519992 114.1659978  11.5660014  65.5339992 113.2179978  11.5120014
  64.7969992 114.4989978  11.8390014  65.5202805 114.0812202  11.5955079
  70.5999992 129.5739978   9.3080014  71.0249992 128.8669978   8.8230014
  70.9169992 130.3759978   8.8910014  70.7010266 129.5855190   9.1852479
  71.7599992 127.4749978   7.8170014  71.5019992 126.7849978   7.2050014
  71.8309992 127.0319978   8.6620014  71.7343050 127.3206814   7.8475621
  73.4459992 126.0419978  16.2940014  73.5849992 125.4499978  15.5550014
  73.6129992 126.9149978  15.9380014  73.4876193 126.0788896  16.1446211
  67.9179992 123.0039978   6.0670014  67.2069992 123.5389978   5.7150014
  68.6089992 123.0589978   5.4070014  67.9140751 123.0846777   5.9295858
  67.9719992 121.4609978   3.1050014  68.6729992 121.4839978   3.7570014
  68.2739992 120.8329978   2.4490014  68.1088202 121.3792212   3.1055609
  75.2869992 122.3819978  14.3600014  74.6349992 123.0759978  14.4490014
  75.7529992 122.5919978  13.5500014  75.2605937 122.5055019  14.2627533
  71.3239992 123.2129978   7.0180014  70.5919992 123.4419978   7.5920014
  71.7709992 122.4999978   7.4730014  71.2843963 123.1478729   7.1579945
  71.2209992 121.3879978  16.0860014  71.3009992 122.1509978  16.6580014
  70.6199992 121.6669978  15.3960014  71.1506547 121.5302457  16.0710047
  62.9689992 123.8439978   8.9010014  62.6389992 123.4729978   8.0830014
  63.5579992 123.1729978   9.2480014  63.0033970 123.7026063   8.8359404
  64.3359992 127.2719978  11.5820014  64.2409992 126.6929978  10.8260014
  65.0649992 126.9009978  12.0780014  64.4216011 127.1425561  11.5456028
  63.3359992 122.6119978  12.5340014  63.9009992 122.7339978  11.7720014
  63.6549992 123.2499978  13.1730014  63.4564166 122.7148791  12.5160348
  69.6449992 128.1159978  13.2680014  69.4049992 128.7779978  13.9160014
  69.4469992 127.2809978  13.6930014  69.5853826 128.0938115  13.4141566
  64.2159992 127.0119978  17.2520014  63.9049992 127.7939978  17.7070014
  63.5659992 126.8589978  16.5660014  64.0855538 127.0984087  17.2215898
  70.1949992 122.3759978   4.7040014  70.7739992 122.5259978   5.4500014
  70.6089992 122.8459978   3.9800014  70.3303358 122.4600955   4.7083953
  61.1359992 123.2099978  16.4800014  61.2059992 123.8609978  17.1790014
  60.2449992 123.3129978  16.1450014  61.0251690 123.3129249  16.5303043
  67.9209992 129.1119978   8.1390014  68.3949992 129.4079978   8.9160014
  67.3579992 129.8509978   7.9060014  67.9097890 129.2523036   8.2138101
  62.4549992 129.0829978  18.0150014  62.4629992 128.9469978  17.0680014
  61.5389992 128.9659978  18.2670014  62.3322528 129.0485463  17.9193243
  73.8939992 114.1259978   4.5170014  72.9939992 114.2649978   4.8120014
  74.1459992 114.9569978   4.1150014  73.8048683 114.2574055   4.5030232
  61.9599992 122.9129978   6.4900014  61.6679992 123.6809978   5.9990014
  61.2849992 122.2539978   6.3270014  61.8288497 122.9289745   6.4008260
  75.0829992 128.4919978   2.8930014  75.1559992 129.4309978   3.0630014
  75.9879992 128.1869978   2.8370014  75.2154170 128.5793282   2.9087063
  58.0529992 125.2759978  15.3050014  57.5509992 125.2479978  14.4900014
  58.0579992 124.3709978  15.6150014  57.9849832 125.1497486  15.2354121
  57.8029992 128.0569978  12.1890014  58.7489992 127.9119978  12.1700014
  57.6899992 128.8409978  12.7260014  57.9173578 128.1431697  12.2590317
  76.0009992 128.7229978  17.8720014  75.9509992 127.7669978  17.8340014
  75.1739992 128.9899978  18.2730014  75.8823831 128.6284680  17.9210121
  66.9789992 128.2969978  16.7480014  67.0669992 129.1229978  17.2230014
  66.1159992 127.9669978  16.9970014  66.8743357 128.3655468  16.8467653
  67.3939992 132.0689978   6.5540014  67.3179992 131.9479978   5.6070014
  67.4259992 133.0179978   6.6720014  67.3879380 132.1807677   6.4405181
  61.0469992 130.8579978   8.3350014  61.1989992 130.5099978   9.2130014
  60.1959992 130.5009978   8.0790014  60.9528344 130.7620879   8.4206868
  70.4949992 131.2229978   3.5560014  70.8699992 130.4789978   3.0850014
  70.4999992 130.9529978   4.4740014  70.5470098 131.0846392   3.6156629
  70.1639992 131.1489978   6.3050014  69.2289992 131.2489978   6.4840014
  70.4439992 130.4389978   6.8840014  70.0739471 131.0667933   6.4076695
  73.1529992 120.2159978  18.3520014  72.7449992 120.6959978  17.6310014
  73.1929992 119.3099978  18.0440014  73.1026221 120.1592449  18.2118267
  60.3019992 126.5999978  16.3480014  60.5179992 126.2379978  17.2080014
  59.4459992 126.2249978  16.1390014  60.2158810 126.4998837  16.4372680
  62.9199992 115.0699978  12.3440014  62.0589992 114.9829978  11.9360014
  62.8979992 115.9259978  12.7720014  62.7990491 115.1738003  12.3459582
  67.5829992 114.7919978  15.7190014  68.0029992 114.3769978  16.4720014
  66.6499992 114.6129978  15.8360014  67.5143736 114.7109910  15.8378968
  70.9099992 118.5469978  16.5720014  70.3959992 118.4219978  17.3700014
  70.7539992 119.4599978  16.3280014  70.8186967 118.6532123  16.6480937
  71.6719992 123.4079978   2.3330014  71.7139992 123.1859978   1.4030014
  72.5209992 123.8069978   2.5230014  71.7925253 123.4315498   2.2313822
  67.2449992 117.2839978   3.0040014  66.9909992 117.3029978   3.9260014
  66.9879992 116.4129978   2.7020014  67.1754508 117.1688280   3.0894803
  63.0109992 120.0349978  13.4390014  62.3699992 119.9949978  14.1480014
  63.0489992 120.9619978  13.2010014  62.9283010 120.1547668  13.5039946
  63.0079992 120.2559978   8.3510014  62.1159992 119.9159978   8.2920014
  63.4589992 119.8789978   7.5950014  62.9467642 120.1584910   8.2407726
  68.5439992 120.6719978   7.1680014  68.1349992 121.4869978   6.8760014
  69.2639992 120.5319978   6.5540014  68.5854439 120.7645372   7.0450115
  67.6459992 120.8479978  18.6560014  67.0829992 120.1429978  18.9770014
  68.4719992 120.7269978  19.1240014  67.6806674 120.7352165  18.7631751
  69.5489992 120.1179978   9.9820014  69.3529992 120.7239978   9.2670014
  69.7299992 119.2849978   9.5480014  69.5466584 120.0882513   9.8254212
  64.1269992 117.7299978   2.1050014  63.6959992 117.2849978   2.8340014
  63.4089992 118.1009978   1.5920014  63.9709176 117.7192051   2.1354930
  57.3699992 117.4719978   9.1570014  57.9999992 117.4429978   9.8760014
  57.8189992 117.0469978   8.4260014  57.5170835 117.4105660   9.1567659
  58.6439992 118.2179978   4.5810014  59.1179992 118.8089978   3.9960014
  57.9259992 118.7479978   4.9280014  58.6118640 118.3705511   4.5477969
  68.8129992 121.7559978  14.6530014  69.1359992 121.1249978  14.0100014
  68.3719992 121.2219978  15.3140014  68.7976379 121.5973468  14.6542582
  65.5899992 117.6839978   9.4370014  64.6789992 117.7409978   9.7260014
  66.0949992 117.6239978  10.2480014  65.5336873 117.6836826   9.5861207
  60.4179992 119.3129978   8.2640014  59.5289992 119.4119978   7.9240014
  60.7149992 118.4709978   7.9180014  60.3364177 119.2127687   8.1706940
  64.0709992 119.3129978   5.9210014  65.0029992 119.4419978   6.0990014
  63.8559992 119.9819978   5.2710014  64.1694472 119.4210806   5.8574891
  69.9949992 116.9189978  12.7020014  69.3179992 117.0499978  13.3650014
  69.5099992 116.7639978  11.8910014  69.8367405 116.9159947  12.6832170
  62.7449992 120.5069978   3.4870014  62.2029992 120.1279978   2.7960014
  63.5789992 120.7019978   3.0590014  62.7834390 120.4814079   3.3344392
  73.2829992 132.5899978  18.9780014  73.4819992 133.0139978  18.1440014
  73.9379992 132.9339978  19.5850014  73.3988522 132.6946301  18.9457852
  60.8809992 125.0639978  18.5860014  61.6129992 125.3189978  19.1480014
  60.0999992 125.2689978  19.1020014  60.8756526 125.1265450  18.7325176
  66.9099992 120.4709978  11.3240014  67.4739992 119.9249978  10.7770014
  66.7619992 119.9499978  12.1130014  66.9673037 120.3256787  11.3557229
  61.9119992 116.6079978   7.7430014  61.5949992 115.7049978   7.7070014
  62.6929992 116.6099978   7.1900014  61.9742431 116.4847797   7.6633102
  65.5359992 118.8599978  13.7380014  64.7009992 119.3139978  13.8490014
  66.0599992 119.1359978  14.4900014  65.4926072 118.9593948  13.8548136
  66.0809992 125.0729978   5.4230014  65.3359992 124.5649978   5.1010014
  65.9459992 125.1219978   6.3690014  65.9608963 125.0101731   5.5068826
  73.2309992 124.2059978  14.2100014  73.8719992 124.6619978  13.6660014
  72.3999992 124.3189978  13.7470014  73.2065287 124.2836921  14.0729887
  69.9779992 117.8869978   3.6220014  69.0399992 117.9979978   3.4710014
  70.2759992 118.7429978   3.9290014  69.8896318 118.0180158   3.6428145
  67.5999992 125.2569978  16.6600014  67.2539992 124.8749978  17.4670014
  67.3999992 126.1899978  16.7310014  67.5255987 125.3309002  16.7800461
  70.6969992 119.7539978   5.2830014  71.5889992 119.6159978   5.6020014
  70.7529992 120.5449978   4.7460014  70.8267325 119.8419918   5.2541217
  61.2049992 124.3679978  11.1930014  61.9499992 124.3649978  10.5910014
  61.2829992 123.5439978  11.6740014  61.3173365 124.2562384  11.1757430
  68.2059992 126.5309978   4.4480014  67.9109992 127.3579978   4.8300014
  67.5029992 125.9119978   4.6450014  68.0706379 126.5604171   4.5268654
  58.2129992 122.8279978  16.5080014  58.4359992 122.4099978  17.3390014
  57.6109992 122.2159978  16.0850014  58.1621513 122.6879606  16.5646740
  65.2299992 122.3449978  18.7210014  64.9339992 122.1799978  17.8250014
  66.1609992 122.1249978  18.7100014  65.3154401 122.2926879  18.5970206
  69.8499992 127.7189978  16.6100014  68.9499992 127.9019978  16.3430014
  69.8839992 127.9779978  17.5310014  69.7313748 127.7790554  16.6979164
  75.5819992 119.9629978   4.9780014  75.0269992 119.5669978   4.3050014
  75.6819992 120.8739978   4.7000014  75.5196816 120.0319505   4.8485033
  75.5449992 125.7639978  17.8150014  74.6939992 126.0019978  17.4470014
  76.1349992 125.7469978  17.0620014  75.5083812 125.7942524  17.6628453
  73.8769992 128.7489978   5.4430014  73.5039992 127.9239978   5.7520014
  74.1539992 128.5659978   4.5450014  73.8633463 128.6112569   5.3639525
  71.0369992 123.5569978  12.4640014  70.1089992 123.3259978  12.4370014
  71.4879992 122.7799978  12.1340014  70.9708165 123.4202774  12.4156790
  63.5799992 127.8859978   8.5970014  64.1079992 128.6589978   8.3970014
  62.6999992 128.1099978   8.2950014  63.5333435 128.0222700   8.5287310
  59.3349992 122.7479978   3.1840014  59.9509992 123.3749978   3.5640014
  58.4729992 123.0639978   3.4560014  59.3027678 122.8764412   3.2727209
  65.0079992 125.5489978   8.1730014  64.7669992 126.4739978   8.2150014
  64.2669992 125.0899978   8.5700014  64.8749206 125.6135915   8.2323769
  65.5219992 129.6979978  14.4880014  65.8849992 130.5519978  14.2550014
  66.0539992 129.4059978  15.2290014  65.6435141 129.7753895  14.5562097
  63.6909992 130.5699978   7.7190014  62.7409992 130.6759978   7.7700014
  64.0429992 131.3909978   8.0630014  63.6085472 130.6954923   7.7724852
  69.0659992 125.7969978  14.1890014  68.6409992 125.5689978  15.0150014
  69.6469992 125.0579978  14.0070014  69.0863395 125.6659545  14.2774414
  71.2689992 126.7259978   3.2630014  71.6229992 126.3459978   4.0670014
  70.3209992 126.6319978   3.3500014  71.1892298 126.6612452   3.3848687
  71.7249992 130.3489978  16.6580014  71.1229992 129.7929978  16.1630014
  72.0059992 131.0159978  16.0320014  71.6805757 130.3630744  16.5055675
  75.7729992 131.2049978   3.4640014  76.5169992 131.7909978   3.3240014
  75.0789992 131.7739978   3.7970014  75.7809809 131.3620818   3.4898590
  59.8469992 117.5819978  16.0660014  58.9549992 117.9199978  15.9980014
  59.7489992 116.7259978  16.4840014  59.7114475 117.5126543  16.1131704
  72.1349992 125.3979978   5.4900014  71.8579992 124.6699978   6.0460014
  73.0629992 125.5169978   5.6950014  72.2224499 125.3144213   5.5938044
  59.4989992 129.3859978  14.5010014  59.7159992 128.4539978  14.4700014
  59.7449992 129.6609978  15.3840014  59.5619808 129.2955686  14.6161691
  65.3599992 127.8379978   1.7100014  65.5989992 127.0889978   1.1630014
  65.0909992 127.4499978   2.5430014  65.3563233 127.6831853   1.7477809
  64.2969992 127.4079978   4.1660014  64.4439992 126.8879978   4.9560014
  64.2939992 128.3149978   4.4730014  64.3167102 127.4593953   4.3155925
  60.7499992 124.6599978   4.6770014  60.0639992 125.0129978   5.2440014
  61.2729992 125.4229978   4.4300014  60.7268402 124.8113901   4.7211801
  68.5819992 117.3229978  14.9560014  69.2809992 117.3969978  15.6060014
  68.2009992 116.4579978  15.1100014  68.6262097 117.2162389  15.0657997
  69.3659992 116.9749978   6.0530014  69.5859992 117.4459978   5.2490014
  69.9249992 117.3689978   6.7230014  69.4716731 117.0927287   6.0335033
  67.0349992 129.1049978   4.9160014  66.2179992 129.6019978   4.9680014
  67.5639992 129.5809978   4.2750014  66.9948125 129.2371989   4.8365306
  66.5659992 118.7029978   6.8880014  67.3779992 119.2069978   6.9340014
  66.3219992 118.5579978   7.8020014  66.6441467 118.7523749   7.0178575
  67.1019992 119.6889978  16.0720014  67.2209992 120.2629978  16.8290014
  67.7569992 119.0009978  16.1870014  67.2068684 119.6745194  16.1911674
  67.4499992 115.7839978   7.8260014  67.1029992 116.4009978   8.4700014
  68.1089992 116.2849978   7.3440014  67.4915090 115.9361575   7.8490681
  64.3729992 130.1489978   4.8970014  64.5339992 130.9489978   4.3970014
  64.1759992 130.4559978   5.7820014  64.3683906 130.2998678   4.9482333
  63.1079992 116.8469978   4.5130014  63.0239992 117.7349978   4.8600014
  63.9979992 116.5819978   4.7450014  63.2168163 116.9327179   4.5918596
  73.3059992 117.5959978  16.9070014  72.3899992 117.8579978  16.8200014
  73.6419992 117.5929978  16.0110014  73.2258499 117.6315163  16.7738766
  71.9089992 121.3459978  11.0030014  71.1109992 120.9309978  10.6750014
  72.3539992 120.6559978  11.4940014  71.8599684 121.1958628  11.0245227
  61.3659992 127.2739978   3.5730014  61.9579992 127.9739978   3.8500014
  61.8249992 126.8409978   2.8540014  61.5091652 127.3112675   3.5136533
  59.6819992 119.9389978   2.6890014  59.6369992 120.8779978   2.8680014
  58.7939992 119.7029978   2.4200014  59.5558166 120.0356687   2.6771524
  72.9949992 130.6019978  12.6250014  72.8389992 131.2809978  11.9680014
  73.9279992 130.6739978  12.8280014  73.0997387 130.7046390  12.5625342
  60.4899992 114.7199978  11.3630014  60.2609992 114.7789978  10.4350014
  60.0479992 113.9289978  11.6690014  60.3988801 114.6210540  11.2774729
  59.4209992 128.6609978   7.5230014  58.5879992 129.1329978   7.5500014
  59.9659992 129.1709978   6.9240014  59.3807857 128.7944791   7.4457142
  58.7089992 131.2729978  18.8530014  59.2489992 131.0569978  19.6130014
  58.2279992 130.4679978  18.6630014  58.7179219 131.1345156  18.9314282
  63.3059992 130.1929978  20.4730014  64.0739992 129.7339978  20.8140014
  63.2849992 129.9669978  19.5430014  63.4082135 130.0996668  20.3939491
  67.3979992 129.7009978   1.8490014  66.7539992 129.0699978   2.1700014
  68.1599992 129.1699978   1.6170014  67.4128058 129.5427902   1.8616038
  69.8829992 128.5729978  19.2020014  69.5319992 127.7159978  19.4460014
  70.6089992 128.7149978  19.8090014  69.9331895 128.4751351  19.3173770
  72.0029992 129.5179978   2.0820014  72.2859992 128.7229978   2.5350014
  72.7419992 129.7509978   1.5210014  72.1417096 129.4407049   2.0681104
  58.6159992 125.0839978  19.8070014  58.7599992 124.1819978  19.5210014
  57.8439992 125.3699978  19.3200014  58.5312733 124.9991798  19.7019532
  62.9569992 125.4269978   1.9400014  63.0219992 124.6329978   2.4700014
  63.6099992 125.3089978   1.2500014  63.0541605 125.3023430   1.9192997
  65.2709992 125.0529978  19.2400014  64.9429992 125.3239978  18.3830014
  65.4229992 124.1119978  19.1520014  65.2466412 124.9629046  19.1107822
  68.3099992 126.4739978   1.6760014  68.0409992 126.6549978   2.5760014
  68.1029992 125.5489978   1.5440014  68.2451191 126.3737119   1.7815524
  71.0059992 124.9689978  16.6230014  71.7509992 125.5579978  16.5040014
  70.2489992 125.5509978  16.6870014  71.0055470 125.1282128  16.6153799
  59.4489992 122.2839978  19.2270014  59.8569992 121.4269978  19.1060014
  59.1879992 122.2979978  20.1480014  59.4696016 122.1685119  19.3349192
  64.1069992 123.3999978   4.2460014  63.6469992 122.9159978   4.9310014
  64.3619992 122.7309978   3.6100014  64.0784856 123.2433669   4.2538397
  63.3959992 121.2929978  16.6020014  62.7769992 121.9669978  16.8820014
  63.7399992 121.6139978  15.7680014  63.3577123 121.4286887  16.5276388
  65.1779992 121.6429978   2.5080014  64.9969992 121.4879978   1.5810014
  66.1279992 121.7509978   2.5530014  65.2816566 121.6363669   2.3870929
  68.4149992 123.7639978  19.8790014  69.3689992 123.8479978  19.8520014
  68.2549992 123.0519978  20.4990014  68.5237182 123.6792842  19.9590733
  74.5679992 123.9969978   1.9540014  74.2939992 123.5729978   1.1410014
  74.6069992 124.9289978   1.7370014  74.5357716 124.0648827   1.8134286
  63.7349992 118.6479978  17.6840014  63.8849992 117.9189978  17.0820014
  63.7369992 119.4249978  17.1250014  63.7557967 118.6532708  17.5260541
  64.1479992 117.0169978  15.1770014  64.6829992 117.4689978  14.5250014
  63.2949992 116.9089978  14.7540014  64.1060374 117.0642665  15.0306710
  65.7289992 122.4569978  15.4160014  66.4799992 122.3009978  14.8430014
  65.3899992 123.3089978  15.1410014  65.7859587 122.5508138  15.3004078
  70.1449992 120.2719978  20.4450014  70.3369992 119.3409978  20.3330014
  71.0029992 120.6969978  20.4340014  70.2872182 120.2020070  20.4281862
  71.4619992 123.0609978  18.5220014  71.1799992 123.7699978  17.9440014
  72.4039992 122.9879978  18.3710014  71.5507921 123.1482193  18.4224225
  62.2139992 119.8459978  19.5950014  61.4459992 119.3129978  19.3850014
  62.8919992 119.5359978  18.9960014  62.2007235 119.7311754  19.4852413
  64.9529992 114.4739978  15.6080014  64.8549992 115.4199978  15.5030014
  64.2109992 114.1009978  15.1320014  64.8392534 114.5531773  15.5292600
  66.2169992 118.7949978  19.1720014  65.9819992 118.5759978  20.0730014
  65.4339992 118.5879978  18.6620014  66.0789095 118.7369892  19.2265353
  68.9329992 117.9229978  18.2470014  67.9849992 117.9549978  18.3790014
  69.2449992 117.2969978  18.9010014  68.8455293 117.8427923  18.3534148
  70.5669992 116.5569978  20.2520014  70.4699992 115.6049978  20.2470014
  70.2449992 116.8249978  21.1130014  70.5102468 116.4630884  20.3676210
  60.3939992 117.7659978  19.3000014  60.6059992 117.0599978  18.6900014
  60.2829992 117.3289978  20.1440014  60.4080269 117.6101921  19.3305873
  65.1749992 113.7679978  18.2790014  65.8869992 113.1279978  18.2650014
  65.0739992 114.0339978  17.3660014  65.2587387 113.7164330  18.1535563
  65.5289992 115.4499978  20.3330014  65.3969992 114.9749978  19.5130014
  64.9289992 116.1949978  20.2780014  65.4299070 115.4855789  20.2133251
  65.0749992 132.3329978   3.5090014  66.0079992 132.4909978   3.6530014
  64.8109992 133.0089978   2.8840014  65.1669911 132.4459373   3.4442722
  58.6429992 126.9699978   2.9920014  59.5569992 127.0489978   3.2650014
  58.6509992 126.2829978   2.3260014  58.7690655 126.8879205   2.9392917
  57.2919992 132.3629978   8.0690014  56.6449992 131.9009978   7.5370014
  57.6469992 131.6909978   8.6520014  57.2513741 132.2089774   8.0749175
  58.1619992 130.4429978   9.8740014  57.8279992 129.5629978  10.0460014
  58.3849992 130.7889978  10.7390014  58.1463721 130.3691938  10.0144168
  75.7109992 131.2529978  12.8550014  75.6889992 131.4379978  13.7940014
  76.4009992 131.8209978  12.5140014  75.8013439 131.3551887  12.9374791
  75.2739992 130.8199978  15.7760014  74.7869992 130.0849978  15.4050014
  75.8229992 130.4259978  16.4540014  75.2815247 130.6661057  15.8168461
  73.7249992 126.6099978  20.4150014  72.8589992 126.5049978  20.8090014
  74.1009992 127.3679978  20.8610014  73.6573401 126.6981708  20.5292620
  75.0259992 124.8659978   5.9290014  75.8759992 125.2869978   6.0560014
  75.0309992 124.1259978   6.5360014  75.1431143 124.8236094   6.0284750
  75.4199992 122.9199978   7.7520014  74.6939992 122.4399978   8.1500014
  76.0019992 123.1249978   8.4850014  75.3992730 122.8820184   7.9054149
  75.1789992 125.7049978  12.7000014  76.0129992 125.3269978  12.4190014
  75.2909992 126.6479978  12.5810014  75.3081917 125.7807943  12.6454861
  73.6659992 128.5829978  15.0070014  73.0179992 128.9079978  15.6320014
  73.1479992 128.1419978  14.3330014  73.5074196 128.5678651  15.0014152
  75.6889992 122.8209978   4.1430014  75.1669992 123.1769978   3.4250014
  75.6559992 123.4959978   4.8220014  75.6130129 122.9609598   4.1363355
  74.0379992 120.0599978   2.6940014  74.1339992 120.7269978   2.0140014
  73.8979992 119.2449978   2.2130014  74.0322040 120.0410671   2.5358378
  73.2069992 121.4409978   8.3150014  73.0569992 120.4959978   8.2950014
  72.8529992 121.7219978   9.1590014  73.1386351 121.3496644   8.4263220
  58.2419992 123.5189978  12.3260014  58.4269992 123.4369978  11.3900014
  59.0919992 123.3949978  12.7490014  58.3820928 123.4910463  12.2552893
  74.0629992 123.4109978  17.9540014  74.6459992 122.6759978  18.1460014
  74.6269992 124.1829978  18.0010014  74.2189781 123.4148145  17.9866164
  75.5599992 121.3139978  18.6390014  74.6969992 120.9349978  18.4730014
  76.1639992 120.5749978  18.5640014  75.5236085 121.1623223  18.6061695
  73.2849992 117.4679978   1.8120014  73.8959992 117.0969978   2.4490014
  72.4479992 117.0469978   2.0080014  73.2554947 117.3602756   1.9257252
  72.9179992 119.0229978   6.7780014  73.1969992 118.1159978   6.9020014
  73.6769992 119.4569978   6.3890014  73.0588619 118.9574502   6.7423795
  73.5289992 119.6049978  12.2140014  74.4619992 119.8169978  12.1790014
  73.2939992 119.7059978  13.1360014  73.6249517 119.6476833  12.3339130
  73.5589992 120.3419978  14.9900014  72.7159992 120.6099978  15.3560014
  74.0009992 121.1639978  14.7790014  73.5034138 120.4898273  15.0115518
  57.8399992 118.7889978  18.4660014  58.7589992 118.6669978  18.7030014
  57.3899992 118.0389978  18.8560014  57.9050087 118.6709608  18.5511410
  75.8419992 114.3219978  20.3430014  76.1909992 113.6679978  19.7380014
  75.9889992 115.1589978  19.9030014  75.9096824 114.3456024  20.2006304
  73.5309992 116.2859978   6.8260014  73.7129992 115.8369978   7.6510014
  72.9309992 115.7019978   6.3620014  73.4748187 116.1455552   6.8762739
  59.0609992 117.1019978  11.3580014  59.5059992 116.3099978  11.6600014
  59.5269992 117.8179978  11.7880014  59.1849718 117.0904534  11.4575265
  57.3649992 120.1009978  12.4270014  57.8569992 119.8799978  11.6360014
  57.7269992 120.9409978  12.7080014  57.4812923 120.1843468  12.3567407
  75.3609992 116.4309978  18.6920014  74.4439992 116.7019978  18.6570014
  75.4839992 115.8959978  17.9080014  75.2519672 116.3957885  18.5811862
  75.3979992 116.3539978   3.3540014  75.8099992 115.6329978   2.8790014
  76.0789992 117.0229978   3.4120014  75.5465536 116.3457766   3.2968024
  57.6789992 116.3589978   6.4810014  56.7539992 116.5669978   6.3520014
  58.1329992 116.8429978   5.7910014  57.6136298 116.4529299   6.3700451
  72.4489992 131.3429978   8.4270014  73.1019992 130.9949978   7.8190014
  72.9599992 131.8309978   9.0730014  72.6072777 131.3613815   8.4312047
  57.6419992 115.0969978  14.8250014  56.9769992 114.8509978  15.4680014
  57.1989992 115.7189978  14.2480014  57.4911168 115.1474214  14.8349848
  59.8339992 128.2719978  18.9700014  59.0129992 128.4469978  18.5090014
  59.5819992 128.1989978  19.8900014  59.6875594 128.2860717  19.0313611
  62.7879992 129.2459978  15.2280014  62.3639992 130.0559978  14.9460014
  63.6929992 129.3319978  14.9260014  62.8522138 129.3684160  15.1486415
  67.0999992 130.6449978  18.1880014  67.2839992 130.3119978  19.0660014
  67.9459992 130.9549978  17.8660014  67.2396484 130.6412979  18.2647617
  69.4449992 131.9309978  17.4320014  70.1219992 131.2979978  17.1920014
  69.7659992 132.3319978  18.2390014  69.5811323 131.8985691  17.5083158
  74.3619992 114.5209978  16.5110014  73.5489992 114.8459978  16.1240014
  74.5949992 113.7599978  15.9780014  74.2821347 114.4626880  16.3859841
  60.1899992 132.5029978  15.2760014  59.4699992 132.9429978  14.8250014
  59.8249992 132.2519978  16.1240014  60.0419643 132.5293369  15.3289129
  62.6569992 132.1029978  14.3060014  61.7929992 132.1749978  14.7100014
  62.6019992 132.6499978  13.5220014  62.5311942 132.1867849  14.2554000
  67.3679992 131.9909978  13.4810014  66.9109992 132.5199978  12.8270014
  67.5309992 132.5939978  14.2060014  67.3274960 132.1449280  13.4895274
  69.6959992 130.8689978  14.4260014  68.7909992 131.0339978  14.1600014
  70.1239992 131.7219978  14.3600014  69.6301537 131.0069134  14.3807095
  72.2999992 132.4389978  14.7210014  72.1179992 133.3549978  14.5100014
  72.4769992 132.0279978  13.8740014  72.2990030 132.5088273  14.5777166
  59.6049992 131.1259978  12.1860014  59.5869992 130.6999978  13.0430014
  60.4099992 130.8069978  11.7770014  59.7112875 131.0246435  12.2479515
  61.7459992 129.8359978  10.8410014  61.5269992 128.9189978  11.0110014
  62.5699992 129.9759978  11.3070014  61.8274702 129.7295511  10.9272527
  64.2829992 130.3059978  11.6900014  64.4959992 129.4179978  11.4030014
  64.3479992 130.2709978  12.6440014  64.3209149 130.1798326  11.7797369
  67.7919992 115.9699978  10.8340014  67.1179992 115.3399978  11.0900014
  68.3559992 115.4859978  10.2310014  67.7760384 115.8183708  10.7875020
  72.9349992 114.0769978  10.9470014  73.5379992 114.6249978  10.4450014
  72.0649992 114.3959978  10.7060014  72.8999157 114.1950373  10.8457910
  74.6619992 115.2159978   9.2800014  75.2729992 114.7019978   8.7530014
  75.0439992 116.0929978   9.3030014  74.7973305 115.2642050   9.2109418
  60.1189992 114.6039978   8.6560014  59.3419992 114.3689978   8.1490014
  60.6489992 113.8069978   8.6650014  60.0843451 114.4641268   8.5878627
  58.9549992 114.4019978   4.4600014  59.3939992 115.0129978   3.8680014
  58.3209992 114.9399978   4.9340014  58.9293859 114.5584064   4.4430305
  64.6979992 114.5299978   8.4690014  65.5719992 114.9189978   8.4400014
  64.5619992 114.3149978   9.3920014  64.7991953 114.5541643   8.5897617
  70.2549992 114.5599978  10.1190014  70.3309992 114.6559978   9.1690014
  69.9799992 113.6529978  10.2470014  70.2281871 114.4504146  10.0063944
  71.6079992 114.5859978   5.8110014  70.9049992 115.2009978   5.6010014
  71.1629992 113.7489978   5.9420014  71.4516550 114.5569668   5.7999837
  58.8559992 130.3499978   5.3570014  58.1709992 130.3119978   4.6900014
  58.8599992 131.2629978   5.6450014  58.7627621 130.4681924   5.3046126
  60.8159992 116.3179978   2.9020014  61.3069992 115.6879978   2.3750014
  61.4389992 116.6139978   3.5650014  60.9675304 116.2717376   2.9194940
  65.8419992 116.6109978   5.3590014  66.0199992 115.9639978   6.0420014
  65.7879992 117.4449978   5.8260014  65.8590678 116.6351604   5.5156301
  67.7199992 131.5589978   3.7550014  68.5859992 131.9259978   3.5770014
  67.4739992 131.1199978   2.9410014  67.8052097 131.5498525   3.6206019
  74.4289992 131.1219978   6.4340014  74.2349992 130.3739978   5.8690014
  74.3899992 131.8799978   5.8510014  74.3971645 131.1220786   6.2778148
  60.0759992 115.1179978  18.1740014  59.7099992 114.3519978  18.6160014
  60.9889992 115.1469978  18.4600014  60.1493172 115.0170324  18.2731890
  62.0489992 114.4679978  19.7090014  62.9479992 114.1939978  19.5250014
  61.6629992 113.7259978  20.1740014  62.1197307 114.3302196  19.7467098
  60.6739992 131.2699978   2.3820014  60.4059992 131.5559978   3.2560014
  61.4449992 130.7239978   2.5350014  60.7415927 131.2352779   2.5221205
  70.4709992 113.8009978  19.8920014  70.5469992 113.3749978  20.7450014
  71.3639992 113.8139978  19.5490014  70.6022303 113.7443493  19.9625497
  73.6469992 129.8739978  18.5840014  72.8649992 129.6869978  18.0640014
  73.5749992 130.8029978  18.8010014  73.5301924 129.9740637  18.5421602
  88.0529992 123.7599978   8.6150014  88.1419992 124.7039978   8.4830014
  87.4149992 123.4849978   7.9570014  87.9789062 123.8519812   8.5079641
  86.9859992 123.0149978  12.0340014  86.9479992 122.3689978  12.7390014
  86.6639992 122.5479978  11.2630014  86.9372679 122.8634276  12.0262921
  79.3539992 122.6289978  13.6270014  79.3959992 122.0039978  14.3500014
  80.0569992 123.2529978  13.8090014  79.4547345 122.6277873  13.7505274
  90.6919992 125.9539978  10.3350014  90.2509992 125.2339978  10.7860014
  90.6789992 126.6749978  10.9650014  90.6299215 125.9529291  10.4818105
  80.2779992 127.0789978  12.1620014  79.9079992 126.2769978  11.7920014
  81.2189992 126.9109978  12.2080014  80.3545984 126.9464638  12.1175603
  76.8879992 120.7389978   7.5540014  76.4399992 121.5849978   7.5360014
  76.3269992 120.1599978   7.0390014  76.7508546 120.7763993   7.4818891
  77.5979992 122.9009978   9.6800014  77.8119992 122.1309978  10.2080014
  78.3359992 122.9909978   9.0770014  77.7270200 122.8078586   9.6707035
  87.8039992 131.0579978  10.5470014  88.4229992 130.3819978  10.2740014
  87.5949992 130.8399978  11.4560014  87.8606056 130.9358869  10.6323967
  85.3749992 125.4469978  12.4400014  85.6789992 124.7609978  11.8450014
  86.0969992 125.5659978  13.0580014  85.5141240 125.3692314  12.4420959
  94.0379992 117.0489978  13.3000014  94.0879992 117.6589978  14.0360014
  94.4639992 117.5099978  12.5770014  94.1024108 117.1947709  13.3030112
  88.5159992 119.8409978  12.7670014  88.6589992 118.8949978  12.7870014
  88.4099992 120.0479978  11.8390014  88.5212403 119.7394797  12.6442239
  81.6709992 117.9429978  10.0400014  81.7139992 118.8029978   9.6210014
  81.2129992 117.3909978   9.4060014  81.6149871 117.9859245   9.8970761
  89.3929992 118.0739978   8.4410014  90.0399992 117.7449978   9.0650014
  89.9029992 118.5909978   7.8180014  89.5504351 118.0989067   8.4421037
  78.2909992 120.3399978  10.8020014  78.9449992 119.7899978  11.2340014
  78.3149992 120.0659978   9.8850014  78.3837199 120.2277167  10.7371668
  83.4479992 121.8899978  10.0170014  84.0639992 121.3629978  10.5260014
  82.8609992 121.2499978   9.6130014  83.4530154 121.7313954  10.0320945
  94.4299992 118.5269978  15.5360014  93.7409992 119.1849978  15.4410014
  94.4449992 118.3289978  16.4730014  94.3377756 118.5902603  15.6495812
  80.4809992 116.8609978  14.1140014  80.2619992 117.3909978  13.3470014
  79.8129992 117.0869978  14.7610014  80.3606975 116.9640967  14.0965140
  87.8499992 126.3609978   7.6580014  87.5549992 126.0379978   6.8060014
  87.5259992 127.2609978   7.6990014  87.7658460 126.4384464   7.5469714
  83.0499992 124.5359978  14.4010014  82.3099992 125.1349978  14.5050014
  83.7639992 125.0899978  14.0860014  83.0453500 124.6927829  14.3726371
  91.1569992 117.3649978  10.4210014  90.9419992 116.5989978  10.9540014
  91.8129992 117.8369978  10.9340014  91.2162673 117.3240728  10.5631990
  80.0749992 118.7529978  12.0660014  80.6889992 119.3859978  12.4390014
  80.5869992 118.2809978  11.4100014  80.2281962 118.7757249  12.0282935
  81.4579992 126.5009978  15.1880014  81.4519992 127.3799978  14.8100014
  80.6039992 126.4169978  15.6130014  81.3417925 126.6099535  15.1936887
  77.5789992 126.1719978   5.9700014  77.3069992 126.4009978   5.0820014
  77.6239992 127.0089978   6.4310014  77.5478097 126.3166163   5.9106683
  91.2039992 127.7929978  12.6830014  90.2619992 127.8519978  12.8450014
  91.4799992 128.6989978  12.5460014  91.1125865 127.9235288  12.6866192
  91.5039992 116.0799978  14.1000014  90.7679992 116.6899978  14.0630014
  92.1879992 116.4949978  13.5740014  91.4955367 116.2197551  14.0238174
  84.5079992 114.1659978  11.5660014  84.3899992 113.2179978  11.5120014
  83.6529992 114.4989978  11.8390014  84.3762805 114.0812202  11.5955079
  89.4559992 129.5739978   9.3080014  89.8809992 128.8669978   8.8230014
  89.7729992 130.3759978   8.8910014  89.5570266 129.5855190   9.1852479
  90.6159992 127.4749978   7.8170014  90.3579992 126.7849978   7.2050014
  90.6869992 127.0319978   8.6620014  90.5903050 127.3206814   7.8475621
  92.3019992 126.0419978  16.2940014  92.4409992 125.4499978  15.5550014
  92.4689992 126.9149978  15.9380014  92.3436193 126.0788896  16.1446211
  86.7739992 123.0039978   6.0670014  86.0629992 123.5389978   5.7150014
  87.4649992 123.0589978   5.4070014  86.7700751 123.0846777   5.9295858
  86.8279992 121.4609978   3.1050014  87.5289992 121.4839978   3.7570014
  87.1299992 120.8329978   2.4490014  86.9648202 121.3792212   3.1055609
  94.1429992 122.3819978  14.3600014  93.4909992 123.0759978  14.4490014
  94.6089992 122.5919978  13.5500014  94.1165937 122.5055019  14.2627533
  90.1799992 123.2129978   7.0180014  89.4479992 123.4419978   7.5920014
  90.6269992 122.4999978   7.4730014  90.1403963 123.1478729   7.1579945
  90.0769992 121.3879978  16.0860014  90.1569992 122.1509978  16.6580014
  89.4759992 121.6669978  15.3960014  90.0066547 121.5302457  16.0710047
  81.8249992 123.8439978   8.9010014  81.4949992 123.4729978   8.0830014
  82.4139992 123.1729978   9.2480014  81.8593970 123.7026063   8.8359404
  83.1919992 127.2719978  11.5820014  83.0969992 126.6929978  10.8260014
  83.9209992 126.9009978  12.0780014  83.2776011 127.1425561  11.5456028
  82.1919992 122.6119978  12.5340014  82.7569992 122.7339978  11.7720014
  82.5109992 123.2499978  13.1730014  82.3124166 122.7148791  12.5160348
  88.5009992 128.1159978  13.2680014  88.2609992 128.7779978  13.9160014
  88.3029992 127.2809978  13.6930014  88.4413826 128.0938115  13.4141566
  83.0719992 127.0119978  17.2520014  82.7609992 127.7939978  17.7070014
  82.4219992 126.8589978  16.5660014  82.9415538 127.0984087  17.2215898
  89.0509992 122.3759978   4.7040014  89.6299992 122.5259978   5.4500014
  89.4649992 122.8459978   3.9800014  89.1863358 122.4600954   4.7083953
  79.9919992 123.2099978  16.4800014  80.0619992 123.8609978  17.1790014
  79.1009992 123.3129978  16.1450014  79.8811690 123.3129249  16.5303043
  86.7769992 129.1119978   8.1390014  87.2509992 129.4079978   8.9160014
  86.2139992 129.8509978   7.9060014  86.7657890 129.2523036   8.2138101
  81.3109992 129.0829978  18.0150014  81.3189992 128.9469978  17.0680014
  80.3949992 128.9659978  18.2670014  81.1882528 129.0485463  17.9193243
  92.7499992 114.1259978   4.5170014  91.8499992 114.2649978   4.8120014
  93.0019992 114.9569978   4.1150014  92.6608683 114.2574055   4.5030232
  80.8159992 122.9129978   6.4900014  80.5239992 123.6809978   5.9990014
  80.1409992 122.2539978   6.3270014  80.6848497 122.9289745   6.4008260
  93.9389992 128.4919978   2.8930014  94.0119992 129.4309978   3.0630014
  94.8439992 128.1869978   2.8370014  94.0714170 128.5793282   2.9087063
  76.9089992 125.2759978  15.3050014  76.4069992 125.2479978  14.4900014
  76.9139992 124.3709978  15.6150014  76.8409832 125.1497486  15.2354121
  76.6589992 128.0569978  12.1890014  77.6049992 127.9119978  12.1700014
  76.5459992 128.8409978  12.7260014  76.7733578 128.1431697  12.2590317
  94.8569992 128.7229978  17.8720014  94.8069992 127.7669978  17.8340014
  94.0299992 128.9899978  18.2730014  94.7383831 128.6284680  17.9210121
  85.8349992 128.2969978  16.7480014  85.9229992 129.1229978  17.2230014
  84.9719992 127.9669978  16.9970014  85.7303357 128.3655468  16.8467653
  86.2499992 132.0689978   6.5540014  86.1739992 131.9479978   5.6070014
  86.2819992 133.0179978   6.6720014  86.2439380 132.1807677   6.4405181
  79.9029992 130.8579978   8.3350014  80.0549992 130.5099978   9.2130014
  79.0519992 130.5009978   8.0790014  79.8088344 130.7620879   8.4206868
  89.3509992 131.2229978   3.5560014  89.7259992 130.4789978   3.0850014
  89.3559992 130.9529978   4.4740014  89.4030098 131.0846392   3.6156629
  89.0199992 131.1489978   6.3050014  88.0849992 131.2489978   6.4840014
  89.2999992 130.4389978   6.8840014  88.9299471 131.0667933   6.4076695
  92.0089992 120.2159978  18.3520014  91.6009992 120.6959978  17.6310014
  92.0489992 119.3099978  18.0440014  91.9586221 120.1592449  18.2118267
  79.1579992 126.5999978  16.3480014  79.3739992 126.2379978  17.2080014
  78.3019992 126.2249978  16.1390014  79.0718810 126.4998837  16.4372680
  81.7759992 115.0699978  12.3440014  80.9149992 114.9829978  11.9360014
  81.7539992 115.9259978  12.7720014  81.6550491 115.1738003  12.3459582
  86.4389992 114.7919978  15.7190014  86.8589992 114.3769978  16.4720014
  85.5059992 114.6129978  15.8360014  86.3703736 114.7109910  15.8378968
  89.7659992 118.5469978  16.5720014  89.2519992 118.4219978  17.3700014
  89.6099992 119.4599978  16.3280014  89.6746967 118.6532123  16.6480937
  90.5279992 123.4079978   2.3330014  90.5699992 123.1859978   1.4030014
  91.3769992 123.8069978   2.5230014  90.6485253 123.4315498   2.2313822
  86.1009992 117.2839978   3.0040014  85.8469992 117.3029978   3.9260014
  85.8439992 116.4129978   2.7020014  86.0314508 117.1688280   3.0894803
  81.8669992 120.0349978  13.4390014  81.2259992 119.9949978  14.1480014
  81.9049992 120.9619978  13.2010014  81.7843010 120.1547668  13.5039946
  81.8639992 120.2559978   8.3510014  80.9719992 119.9159978   8.2920014
  82.3149992 119.8789978   7.5950014  81.8027642 120.1584910   8.2407726
  87.3999992 120.6719978   7.1680014  86.9909992 121.4869978   6.8760014
  88.1199992 120.5319978   6.5540014  87.4414439 120.7645372   7.0450115
  86.5019992 120.8479978  18.6560014  85.9389992 120.1429978  18.9770014
  87.3279992 120.7269978  19.1240014  86.5366674 120.7352165  18.7631751
  88.4049992 120.1179978   9.9820014  88.2089992 120.7239978   9.2670014
  88.5859992 119.2849978   9.5480014  88.4026584 120.0882513   9.8254212
  79.6169992 120.3559978  15.3060014  79.5789992 120.7559978  16.1750014
  79.1269992 119.5389978  15.3960014  79.5455330 120.3002674  15.4371289
  82.9829992 117.7299978   2.1050014  82.5519992 117.2849978   2.8340014
  82.2649992 118.1009978   1.5920014  82.8269176 117.7192051   2.1354930
  76.2259992 117.4719978   9.1570014  76.8559992 117.4429978   9.8760014
  76.6749992 117.0469978   8.4260014  76.3730835 117.4105660   9.1567659
  77.4999992 118.2179978   4.5810014  77.9739992 118.8089978   3.9960014
  76.7819992 118.7479978   4.9280014  77.4678640 118.3705511   4.5477969
  87.6689992 121.7559978  14.6530014  87.9919992 121.1249978  14.0100014
  87.2279992 121.2219978  15.3140014  87.6536379 121.5973468  14.6542582
  84.4459992 117.6839978   9.4370014  83.5349992 117.7409978   9.7260014
  84.9509992 117.6239978  10.2480014  84.3896873 117.6836826   9.5861207
  79.2739992 119.3129978   8.2640014  78.3849992 119.4119978   7.9240014
  79.5709992 118.4709978   7.9180014  79.1924177 119.2127687   8.1706940
  82.9269992 119.3129978   5.9210014  83.8589992 119.4419978   6.0990014
  82.7119992 119.9819978   5.2710014  83.0254472 119.4210806   5.8574891
  88.8509992 116.9189978  12.7020014  88.1739992 117.0499978  13.3650014
  88.3659992 116.7639978  11.8910014  88.6927405 116.9159947  12.6832170
  81.6009992 120.5069978   3.4870014  81.0589992 120.1279978   2.7960014
  82.4349992 120.7019978   3.0590014  81.6394390 120.4814079   3.3344392
  92.1389992 132.5899978  18.9780014  92.3379992 133.0139978  18.1440014
  92.7939992 132.9339978  19.5850014  92.2548522 132.6946301  18.9457852
  79.7369992 125.0639978  18.5860014  80.4689992 125.3189978  19.1480014
  78.9559992 125.2689978  19.1020014  79.7316526 125.1265450  18.7325176
  85.7659992 120.4709978  11.3240014  86.3299992 119.9249978  10.7770014
  85.6179992 119.9499978  12.1130014  85.8233037 120.3256787  11.3557229
  80.7679992 116.6079978   7.7430014  80.4509992 115.7049978   7.7070014
  81.5489992 116.6099978   7.1900014  80.8302431 116.4847797   7.6633102
  84.3919992 118.8599978  13.7380014  83.5569992 119.3139978  13.8490014
  84.9159992 119.1359978  14.4900014  84.3486072 118.9593948  13.8548136
  84.9369992 125.0729978   5.4230014  84.1919992 124.5649978   5.1010014
  84.8019992 125.1219978   6.3690014  84.8168963 125.0101731   5.5068826
  92.0869992 124.2059978  14.2100014  92.7279992 124.6619978  13.6660014
  91.2559992 124.3189978  13.7470014  92.0625287 124.2836921  14.0729887
  88.8339992 117.8869978   3.6220014  87.8959992 117.9979978   3.4710014
  89.1319992 118.7429978   3.9290014  88.7456318 118.0180158   3.6428145
  86.4559992 125.2569978  16.6600014  86.1099992 124.8749978  17.4670014
  86.2559992 126.1899978  16.7310014  86.3815987 125.3309002  16.7800461
  89.5529992 119.7539978   5.2830014  90.4449992 119.6159978   5.6020014
  89.6089992 120.5449978   4.7460014  89.6827325 119.8419918   5.2541217
  80.0609992 124.3679978  11.1930014  80.8059992 124.3649978  10.5910014
  80.1389992 123.5439978  11.6740014  80.1733365 124.2562384  11.1757430
  87.0619992 126.5309978   4.4480014  86.7669992 127.3579978   4.8300014
  86.3589992 125.9119978   4.6450014  86.9266379 126.5604171   4.5268654
  77.0689992 122.8279978  16.5080014  77.2919992 122.4099978  17.3390014
  76.4669992 122.2159978  16.0850014  77.0181513 122.6879606  16.5646740
  84.0859992 122.3449978  18.7210014  83.7899992 122.1799978  17.8250014
  85.0169992 122.1249978  18.7100014  84.1714401 122.2926879  18.5970206
  88.7059992 127.7189978  16.6100014  87.8059992 127.9019978  16.3430014
  88.7399992 127.9779978  17.5310014  88.5873748 127.7790554  16.6979164
  94.4379992 119.9629978   4.9780014  93.8829992 119.5669978   4.3050014
  94.5379992 120.8739978   4.7000014  94.3756816 120.0319505   4.8485033
  94.4009992 125.7639978  17.8150014  93.5499992 126.0019978  17.4470014
  94.9909992 125.7469978  17.0620014  94.3643812 125.7942524  17.6628453
  92.7329992 128.7489978   5.4430014  92.3599992 127.9239978   5.7520014
  93.0099992 128.5659978   4.5450014  92.7193463 128.6112569   5.3639525
  89.8929992 123.5569978  12.4640014  88.9649992 123.3259978  12.4370014
  90.3439992 122.7799978  12.1340014  89.8268165 123.4202774  12.4156790
  82.4359992 127.8859978   8.5970014  82.9639992 128.6589978   8.3970014
  81.5559992 128.1099978   8.2950014  82.3893435 128.0222700   8.5287310
  78.1909992 122.7479978   3.1840014  78.8069992 123.3749978   3.5640014
  77.3289992 123.0639978   3.4560014  78.1587678 122.8764412   3.2727209
  83.8639992 125.5489978   8.1730014  83.6229992 126.4739978   8.2150014
  83.1229992 125.0899978   8.5700014  83.7309206 125.6135915   8.2323769
  84.3779992 129.6979978  14.4880014  84.7409992 130.5519978  14.2550014
  84.9099992 129.4059978  15.2290014  84.4995141 129.7753895  14.5562097
  82.5469992 130.5699978   7.7190014  81.5969992 130.6759978   7.7700014
  82.8989992 131.3909978   8.0630014  82.4645472 130.6954923   7.7724852
  87.9219992 125.7969978  14.1890014  87.4969992 125.5689978  15.0150014
  88.5029992 125.0579978  14.0070014  87.9423395 125.6659545  14.2774414
  90.1249992 126.7259978   3.2630014  90.4789992 126.3459978   4.0670014
  89.1769992 126.6319978   3.3500014  90.0452298 126.6612452   3.3848687
  90.5809992 130.3489978  16.6580014  89.9789992 129.7929978  16.1630014
  90.8619992 131.0159978  16.0320014  90.5365757 130.3630744  16.5055675
  94.6289992 131.2049978   3.4640014  95.3729992 131.7909978   3.3240014
  93.9349992 131.7739978   3.7970014  94.6369809 131.3620818   3.4898590
  78.7029992 117.5819978  16.0660014  77.8109992 117.9199978  15.9980014
  78.6049992 116.7259978  16.4840014  78.5674475 117.5126543  16.1131704
  90.9909992 125.3979978   5.4900014  90.7139992 124.6699978   6.0460014
  91.9189992 125.5169978   5.6950014  91.0784499 125.3144213   5.5938044
  78.3549992 129.3859978  14.5010014  78.5719992 128.4539978  14.4700014
  78.6009992 129.6609978  15.3840014  78.4179808 129.2955686  14.6161691
  84.2159992 127.8379978   1.7100014  84.4549992 127.0889978   1.1630014
  83.9469992 127.4499978   2.5430014  84.2123233 127.6831853   1.7477809
  83.1529992 127.4079978   4.1660014  83.2999992 126.8879978   4.9560014
  83.1499992 128.3149978   4.4730014  83.1727102 127.4593953   4.3155925
  79.6059992 124.6599978   4.6770014  78.9199992 125.0129978   5.2440014
  80.1289992 125.4229978   4.4300014  79.5828402 124.8113901   4.7211801
  87.4379992 117.3229978  14.9560014  88.1369992 117.3969978  15.6060014
  87.0569992 116.4579978  15.1100014  87.4822097 117.2162389  15.0657997
  88.2219992 116.9749978   6.0530014  88.4419992 117.4459978   5.2490014
  88.7809992 117.3689978   6.7230014  88.3276731 117.0927287   6.0335033
  85.8909992 129.1049978   4.9160014  85.0739992 129.6019978   4.9680014
  86.4199992 129.5809978   4.2750014  85.8508125 129.2371989   4.8365306
  85.4219992 118.7029978   6.8880014  86.2339992 119.2069978   6.9340014
  85.1779992 118.5579978   7.8020014  85.5001467 118.7523749   7.0178575
  85.9579992 119.6889978  16.0720014  86.0769992 120.2629978  16.8290014
  86.6129992 119.0009978  16.1870014  86.0628684 119.6745194  16.1911674
  86.3059992 115.7839978   7.8260014  85.9589992 116.4009978   8.4700014
  86.9649992 116.2849978   7.3440014  86.3475090 115.9361575   7.8490681
  83.2289992 130.1489978   4.8970014  83.3899992 130.9489978   4.3970014
  83.0319992 130.4559978   5.7820014  83.2243906 130.2998678   4.9482333
  81.9639992 116.8469978   4.5130014  81.8799992 117.7349978   4.8600014
  82.8539992 116.5819978   4.7450014  82.0728163 116.9327179   4.5918596
  92.1619992 117.5959978  16.9070014  91.2459992 117.8579978  16.8200014
  92.4979992 117.5929978  16.0110014  92.0818499 117.6315163  16.7738766
  90.7649992 121.3459978  11.0030014  89.9669992 120.9309978  10.6750014
  91.2099992 120.6559978  11.4940014  90.7159684 121.1958628  11.0245227
  80.2219992 127.2739978   3.5730014  80.8139992 127.9739978   3.8500014
  80.6809992 126.8409978   2.8540014  80.3651652 127.3112675   3.5136533
  78.5379992 119.9389978   2.6890014  78.4929992 120.8779978   2.8680014
  77.6499992 119.7029978   2.4200014  78.4118166 120.0356687   2.6771524
  91.8509992 130.6019978  12.6250014  91.6949992 131.2809978  11.9680014
  92.7839992 130.6739978  12.8280014  91.9557387 130.7046390  12.5625342
  79.3459992 114.7199978  11.3630014  79.1169992 114.7789978  10.4350014
  78.9039992 113.9289978  11.6690014  79.2548801 114.6210540  11.2774729
  78.2769992 128.6609978   7.5230014  77.4439992 129.1329978   7.5500014
  78.8219992 129.1709978   6.9240014  78.2367857 128.7944791   7.4457142
  77.5649992 131.2729978  18.8530014  78.1049992 131.0569978  19.6130014
  77.0839992 130.4679978  18.6630014  77.5739219 131.1345156  18.9314282
  82.1619992 130.1929978  20.4730014  82.9299992 129.7339978  20.8140014
  82.1409992 129.9669978  19.5430014  82.2642135 130.0996668  20.3939491
  86.2539992 129.7009978   1.8490014  85.6099992 129.0699978   2.1700014
  87.0159992 129.1699978   1.6170014  86.2688058 129.5427902   1.8616038
  88.7389992 128.5729978  19.2020014  88.3879992 127.7159978  19.4460014
  89.4649992 128.7149978  19.8090014  88.7891895 128.4751351  19.3173770
  90.8589992 129.5179978   2.0820014  91.1419992 128.7229978   2.5350014
  91.5979992 129.7509978   1.5210014  90.9977096 129.4407049   2.0681104
  77.4719992 125.0839978  19.8070014  77.6159992 124.1819978  19.5210014
  76.6999992 125.3699978  19.3200014  77.3872733 124.9991798  19.7019532
  81.8129992 125.4269978   1.9400014  81.8779992 124.6329978   2.4700014
  82.4659992 125.3089978   1.2500014  81.9101605 125.3023430   1.9192997
  84.1269992 125.0529978  19.2400014  83.7989992 125.3239978  18.3830014
  84.2789992 124.1119978  19.1520014  84.1026412 124.9629046  19.1107822
  87.1659992 126.4739978   1.6760014  86.8969992 126.6549978   2.5760014
  86.9589992 125.5489978   1.5440014  87.1011191 126.3737119   1.7815524
  89.8619992 124.9689978  16.6230014  90.6069992 125.5579978  16.5040014
  89.1049992 125.5509978  16.6870014  89.8615470 125.1282128  16.6153799
  78.3049992 122.2839978  19.2270014  78.7129992 121.4269978  19.1060014
  78.0439992 122.2979978  20.1480014  78.3256016 122.1685119  19.3349192
  82.9629992 123.3999978   4.2460014  82.5029992 122.9159978   4.9310014
  83.2179992 122.7309978   3.6100014  82.9344856 123.2433669   4.2538397
  82.2519992 121.2929978  16.6020014  81.6329992 121.9669978  16.8820014
  82.5959992 121.6139978  15.7680014  82.2137123 121.4286887  16.5276388
  84.0339992 121.6429978   2.5080014  83.8529992 121.4879978   1.5810014
  84.9839992 121.7509978   2.5530014  84.1376566 121.6363669   2.3870929
  87.2709992 123.7639978  19.8790014  88.2249992 123.8479978  19.8520014
  87.1109992 123.0519978  20.4990014  87.3797182 123.6792842  19.9590733
  93.4239992 123.9969978   1.9540014  93.1499992 123.5729978   1.1410014
  93.4629992 124.9289978   1.7370014  93.3917716 124.0648827   1.8134286
  82.5909992 118.6479978  17.6840014  82.7409992 117.9189978  17.0820014
  82.5929992 119.4249978  17.1250014  82.6117967 118.6532708  17.5260541
  83.0039992 117.0169978  15.1770014  83.5389992 117.4689978  14.5250014
  82.1509992 116.9089978  14.7540014  82.9620374 117.0642665  15.0306710
  84.5849992 122.4569978  15.4160014  85.3359992 122.3009978  14.8430014
  84.2459992 123.3089978  15.1410014  84.6419587 122.5508138  15.3004078
  89.0009992 120.2719978  20.4450014  89.1929992 119.3409978  20.3330014
  89.8589992 120.6969978  20.4340014  89.1432182 120.2020070  20.4281862
  90.3179992 123.0609978  18.5220014  90.0359992 123.7699978  17.9440014
  91.2599992 122.9879978  18.3710014  90.4067921 123.1482193  18.4224225
  81.0699992 119.8459978  19.5950014  80.3019992 119.3129978  19.3850014
  81.7479992 119.5359978  18.9960014  81.0567235 119.7311754  19.4852413
  83.8089992 114.4739978  15.6080014  83.7109992 115.4199978  15.5030014
  83.0669992 114.1009978  15.1320014  83.6952534 114.5531773  15.5292600
  85.0729992 118.7949978  19.1720014  84.8379992 118.5759978  20.0730014
  84.2899992 118.5879978  18.6620014  84.9349095 118.7369892  19.2265353
  87.7889992 117.9229978  18.2470014  86.8409992 117.9549978  18.3790014
  88.1009992 117.2969978  18.9010014  87.7015293 117.8427923  18.3534148
  89.4229992 116.5569978  20.2520014  89.3259992 115.6049978  20.2470014
  89.1009992 116.8249978  21.1130014  89.3662468 116.4630884  20.3676210
  79.2499992 117.7659978  19.3000014  79.4619992 117.0599978  18.6900014
  79.1389992 117.3289978  20.1440014  79.2640269 117.6101921  19.3305873
  84.0309992 113.7679978  18.2790014  84.7429992 113.1279978  18.2650014
  83.9299992 114.0339978  17.3660014  84.1147387 113.7164330  18.1535563
  84.3849992 115.4499978  20.3330014  84.2529992 114.9749978  19.5130014
  83.7849992 116.1949978  20.2780014  84.2859070 115.4855789  20.2133251
  83.9309992 132.3329978   3.5090014  84.8639992 132.4909978   3.6530014
  83.6669992 133.0089978   2.8840014  84.0229911 132.4459373   3.4442722
  77.4989992 126.9699978   2.9920014  78.4129992 127.0489978   3.2650014
  77.5069992 126.2829978   2.3260014  77.6250655 126.8879205   2.9392917
  76.1479992 132.3629978   8.0690014  75.5009992 131.9009978   7.5370014
  76.5029992 131.6909978   8.6520014  76.1073741 132.2089774   8.0749175
  77.0179992 130.4429978   9.8740014  76.6839992 129.5629978  10.0460014
  77.2409992 130.7889978  10.7390014  77.0023721 130.3691938  10.0144168
  94.5669992 131.2529978  12.8550014  94.5449992 131.4379978  13.7940014
  95.2569992 131.8209978  12.5140014  94.6573439 131.3551887  12.9374791
  94.1299992 130.8199978  15.7760014  93.6429992 130.0849978  15.4050014
  94.6789992 130.4259978  16.4540014  94.1375247 130.6661057  15.8168461
  92.5809992 126.6099978  20.4150014  91.7149992 126.5049978  20.8090014
  92.9569992 127.3679978  20.8610014  92.5133401 126.6981708  20.5292620
  93.8819992 124.8659978   5.9290014  94.7319992 125.2869978   6.0560014
  93.8869992 124.1259978   6.5360014  93.9991143 124.8236094   6.0284750
  94.2759992 122.9199978   7.7520014  93.5499992 122.4399978   8.1500014
  94.8579992 123.1249978   8.4850014  94.2552730 122.8820184   7.9054149
  94.0349992 125.7049978  12.7000014  94.8689992 125.3269978  12.4190014
  94.1469992 126.6479978  12.5810014  94.1641917 125.7807943  12.6454861
  92.5219992 128.5829978  15.0070014  91.8739992 128.9079978  15.6320014
  92.0039992 128.1419978  14.3330014  92.3634196 128.5678651  15.0014152
  94.5449992 122.8209978   4.1430014  94.0229992 123.1769978   3.4250014
  94.5119992 123.4959978   4.8220014  94.4690129 122.9609598   4.1363355
  92.8939992 120.0599978   2.6940014  92.9899992 120.7269978   2.0140014
  92.7539992 119.2449978   2.2130014  92.8882040 120.0410671   2.5358378
  92.0629992 121.4409978   8.3150014  91.9129992 120.4959978   8.2950014
  91.7089992 121.7219978   9.1590014  91.9946351 121.3496644   8.4263220
  77.0979992 123.5189978  12.3260014  77.2829992 123.4369978  11.3900014
  77.9479992 123.3949978  12.7490014  77.2380928 123.4910463  12.2552893
  92.9189992 123.4109978  17.9540014  93.5019992 122.6759978  18.1460014
  93.4829992 124.1829978  18.0010014  93.0749781 123.4148145  17.9866164
  94.4159992 121.3139978  18.6390014  93.5529992 120.9349978  18.4730014
  95.0199992 120.5749978  18.5640014  94.3796085 121.1623223  18.6061695
  92.1409992 117.4679978   1.8120014  92.7519992 117.0969978   2.4490014
  91.3039992 117.0469978   2.0080014  92.1114947 117.3602756   1.9257252
  91.7739992 119.0229978   6.7780014  92.0529992 118.1159978   6.9020014
  92.5329992 119.4569978   6.3890014  91.9148619 118.9574502   6.7423795
  92.3849992 119.6049978  12.2140014  93.3179992 119.8169978  12.1790014
  92.1499992 119.7059978  13.1360014  92.4809517 119.6476833  12.3339130
  92.4149992 120.3419978  14.9900014  91.5719992 120.6099978  15.3560014
  92.8569992 121.1639978  14.7790014  92.3594138 120.4898273  15.0115518
  76.6959992 118.7889978  18.4660014  77.6149992 118.6669978  18.7030014
  76.2459992 118.0389978  18.8560014  76.7610087 118.6709608  18.5511410
  94.6979992 114.3219978  20.3430014  95.0469992 113.6679978  19.7380014
  94.8449992 115.1589978  19.9030014  94.7656824 114.3456024  20.2006304
  92.3869992 116.2859978   6.8260014  92.5689992 115.8369978   7.6510014
  91.7869992 115.7019978   6.3620014  92.3308187 116.1455552   6.8762739
  77.9169992 117.1019978  11.3580014  78.3619992 116.3099978  11.6600014
  78.3829992 117.8179978  11.7880014  78.0409718 117.0904534  11.4575265
  76.2209992 120.1009978  12.4270014  76.7129992 119.8799978  11.6360014
  76.5829992 120.9409978  12.7080014  76.3372923 120.1843468  12.3567407
  94.2169992 116.4309978  18.6920014  93.2999992 116.7019978  18.6570014
  94.3399992 115.8959978  17.9080014  94.1079672 116.3957885  18.5811862
  94.2539992 116.3539978   3.3540014  94.6659992 115.6329978   2.8790014
  94.9349992 117.0229978   3.4120014  94.4025536 116.3457766   3.2968024
  76.5349992 116.3589978   6.4810014  75.6099992 116.5669978   6.3520014
  76.9889992 116.8429978   5.7910014  76.4696298 116.4529299   6.3700451
  91.3049992 131.3429978   8.4270014  91.9579992 130.9949978   7.8190014
  91.8159992 131.8309978   9.0730014  91.4632777 131.3613815   8.4312047
  76.4979992 115.0969978  14.8250014  75.8329992 114.8509978  15.4680014
  76.0549992 115.7189978  14.2480014  76.3471168 115.1474214  14.8349848
  78.6899992 128.2719978  18.9700014  77.8689992 128.4469978  18.5090014
  78.4379992 128.1989978  19.8900014  78.5435594 128.2860717  19.0313611
  81.6439992 129.2459978  15.2280014  81.2199992 130.0559978  14.9460014
  82.5489992 129.3319978  14.9260014  81.7082138 129.3684160  15.1486415
  85.9559992 130.6449978  18.1880014  86.1399992 130.3119978  19.0660014
  86.8019992 130.9549978  17.8660014  86.0956484 130.6412979  18.2647617
  88.3009992 131.9309978  17.4320014  88.9779992 131.2979978  17.1920014
  88.6219992 132.3319978  18.2390014  88.4371323 131.8985691  17.5083158
  93.2179992 114.5209978  16.5110014  92.4049992 114.8459978  16.1240014
  93.4509992 113.7599978  15.9780014  93.1381347 114.4626880  16.3859841
  79.0459992 132.5029978  15.2760014  78.3259992 132.9429978  14.8250014
  78.6809992 132.2519978  16.1240014  78.8979643 132.5293369  15.3289129
  81.5129992 132.1029978  14.3060014  80.6489992 132.1749978  14.7100014
  81.4579992 132.6499978  13.5220014  81.3871942 132.1867849  14.2554000
  86.2239992 131.9909978  13.4810014  85.7669992 132.5199978  12.8270014
  86.3869992 132.5939978  14.2060014  86.1834960 132.1449280  13.4895274
  88.5519992 130.8689978  14.4260014  87.6469992 131.0339978  14.1600014
  88.9799992 131.7219978  14.3600014  88.4861537 131.0069134  14.3807095
  91.1559992 132.4389978  14.7210014  90.9739992 133.3549978  14.5100014
  91.3329992 132.0279978  13.8740014  91.1550030 132.5088273  14.5777166
  78.4609992 131.1259978  12.1860014  78.4429992 130.6999978  13.0430014
  79.2659992 130.8069978  11.7770014  78.5672875 131.0246435  12.2479515
  80.6019992 129.8359978  10.8410014  80.3829992 128.9189978  11.0110014
  81.4259992 129.9759978  11.3070014  80.6834702 129.7295511  10.9272527
  83.1389992 130.3059978  11.6900014  83.3519992 129.4179978  11.4030014
  83.2039992 130.2709978  12.6440014  83.1769149 130.1798326  11.7797369
  86.6479992 115.9699978  10.8340014  85.9739992 115.3399978  11.0900014
  87.2119992 115.4859978  10.2310014  86.6320384 115.8183708  10.7875020
  91.7909992 114.0769978  10.9470014  92.3939992 114.6249978  10.4450014
  90.9209992 114.3959978  10.7060014  91.7559157 114.1950373  10.8457910
  93.5179992 115.2159978   9.2800014  94.1289992 114.7019978   8.7530014
  93.8999992 116.0929978   9.3030014  93.6533305 115.2642050   9.2109418
  78.9749992 114.6039978   8.6560014  78.1979992 114.3689978   8.1490014
  79.5049992 113.8069978   8.6650014  78.9403451 114.4641268   8.5878627
  77.8109992 114.4019978   4.4600014  78.2499992 115.0129978   3.8680014
  77.1769992 114.9399978   4.9340014  77.7853859 114.5584064   4.4430305
  83.5539992 114.5299978   8.4690014  84.4279992 114.9189978   8.4400014
  83.4179992 114.3149978   9.3920014  83.6551953 114.5541643   8.5897617
  89.1109992 114.5599978  10.1190014  89.1869992 114.6559978   9.1690014
  88.8359992 113.6529978  10.2470014  89.0841871 114.4504146  10.0063944
  90.4639992 114.5859978   5.8110014  89.7609992 115.2009978   5.6010014
  90.0189992 113.7489978   5.9420014  90.3076550 114.5569668   5.7999837
  77.7119992 130.3499978   5.3570014  77.0269992 130.3119978   4.6900014
  77.7159992 131.2629978   5.6450014  77.6187621 130.4681924   5.3046126
  79.6719992 116.3179978   2.9020014  80.1629992 115.6879978   2.3750014
  80.2949992 116.6139978   3.5650014  79.8235304 116.2717376   2.9194940
  84.6979992 116.6109978   5.3590014  84.8759992 115.9639978   6.0420014
  84.6439992 117.4449978   5.8260014  84.7150678 116.6351604   5.5156301
  86.5759992 131.5589978   3.7550014  87.4419992 131.9259978   3.5770014
  86.3299992 131.1199978   2.9410014  86.6612097 131.5498525   3.6206019
  93.2849992 131.1219978   6.4340014  93.0909992 130.3739978   5.8690014
  93.2459992 131.8799978   5.8510014  93.2531645 131.1220786   6.2778148
  78.9319992 115.1179978  18.1740014  78.5659992 114.3519978  18.6160014
  79.8449992 115.1469978  18.4600014  79.0053172 115.0170324  18.2731890
  80.9049992 114.4679978  19.7090014  81.8039992 114.1939978  19.5250014
  80.5189992 113.7259978  20.1740014  80.9757307 114.3302196  19.7467098
  79.5299992 131.2699978   2.3820014  79.2619992 131.5559978   3.2560014
  80.3009992 130.7239978   2.5350014  79.5975927 131.2352779   2.5221205
  89.3269992 113.8009978  19.8920014  89.4029992 113.3749978  20.7450014
  90.2199992 113.8139978  19.5490014  89.4582303 113.7443493  19.9625497
  92.5029992 129.8739978  18.5840014  91.7209992 129.6869978  18.0640014
  92.4309992 130.8029978  18.8010014  92.3861924 129.9740637  18.5421602
 106.9089992 123.7599978   8.6150014 106.9979992 124.7039978   8.4830014
 106.2709992 123.4849978   7.9570014 106.8349062 123.8519812   8.5079641
 105.8419992 123.0149978  12.0340014 105.8039992 122.3689978  12.7390014
 105.5199992 122.5479978  11.2630014 105.7932679 122.8634276  12.0262921
  98.2099992 122.6289978  13.6270014  98.2519992 122.0039978  14.3500014
  98.9129992 123.2529978  13.8090014  98.3107345 122.6277873  13.7505274
 109.5479992 125.9539978  10.3350014 109.1069992 125.2339978  10.7860014
 109.5349992 126.6749978  10.9650014 109.4859215 125.9529291  10.4818105
  99.1339992 127.0789978  12.1620014  98.7639992 126.2769978  11.7920014
 100.0749992 126.9109978  12.2080014  99.2105984 126.9464638  12.1175603
  95.7439992 120.7389978   7.5540014  95.2959992 121.5849978   7.5360014
  95.1829992 120.1599978   7.0390014  95.6068546 120.7763993   7.4818891
  96.4539992 122.9009978   9.6800014  96.6679992 122.1309978  10.2080014
  97.1919992 122.9909978   9.0770014  96.5830200 122.8078586   9.6707035
 106.6599992 131.0579978  10.5470014 107.2789992 130.3819978  10.2740014
 106.4509992 130.8399978  11.4560014 106.7166056 130.9358869  10.6323967
 104.2309992 125.4469978  12.4400014 104.5349992 124.7609978  11.8450014
 104.9529992 125.5659978  13.0580014 104.3701240 125.3692314  12.4420959
 112.8939992 117.0489978  13.3000014 112.9439992 117.6589978  14.0360014
 113.3199992 117.5099978  12.5770014 112.9584108 117.1947709  13.3030112
 107.3719992 119.8409978  12.7670014 107.5149992 118.8949978  12.7870014
 107.2659992 120.0479978  11.8390014 107.3772403 119.7394797  12.6442239
 100.5269992 117.9429978  10.0400014 100.5699992 118.8029978   9.6210014
 100.0689992 117.3909978   9.4060014 100.4709871 117.9859245   9.8970761
 108.2489992 118.0739978   8.4410014 108.8959992 117.7449978   9.0650014
 108.7589992 118.5909978   7.8180014 108.4064351 118.0989067   8.4421037
  97.1469992 120.3399978  10.8020014  97.8009992 119.7899978  11.2340014
  97.1709992 120.0659978   9.8850014  97.2397199 120.2277167  10.7371668
 102.3039992 121.8899978  10.0170014 102.9199992 121.3629978  10.5260014
 101.7169992 121.2499978   9.6130014 102.3090154 121.7313954  10.0320945
 113.2859992 118.5269978  15.5360014 112.5969992 119.1849978  15.4410014
 113.3009992 118.3289978  16.4730014 113.1937756 118.5902603  15.6495812
  99.3369992 116.8609978  14.1140014  99.1179992 117.3909978  13.3470014
  98.6689992 117.0869978  14.7610014  99.2166975 116.9640967  14.0965140
 106.7059992 126.3609978   7.6580014 106.4109992 126.0379978   6.8060014
 106.3819992 127.2609978   7.6990014 106.6218460 126.4384464   7.5469714
 101.9059992 124.5359978  14.4010014 101.1659992 125.1349978  14.5050014
 102.6199992 125.0899978  14.0860014 101.9013500 124.6927829  14.3726371
 110.0129992 117.3649978  10.4210014 109.7979992 116.5989978  10.9540014
 110.6689992 117.8369978  10.9340014 110.0722673 117.3240728  10.5631990
  98.9309992 118.7529978  12.0660014  99.5449992 119.3859978  12.4390014
  99.4429992 118.2809978  11.4100014  99.0841962 118.7757249  12.0282935
 100.3139992 126.5009978  15.1880014 100.3079992 127.3799978  14.8100014
  99.4599992 126.4169978  15.6130014 100.1977925 126.6099535  15.1936887
  96.4349992 126.1719978   5.9700014  96.1629992 126.4009978   5.0820014
  96.4799992 127.0089978   6.4310014  96.4038097 126.3166163   5.9106683
 110.0599992 127.7929978  12.6830014 109.1179992 127.8519978  12.8450014
 110.3359992 128.6989978  12.5460014 109.9685865 127.9235288  12.6866192
 110.3599992 116.0799978  14.1000014 109.6239992 116.6899978  14.0630014
 111.0439992 116.4949978  13.5740014 110.3515367 116.2197551  14.0238174
 103.3639992 114.1659978  11.5660014 103.2459992 113.2179978  11.5120014
 102.5089992 114.4989978  11.8390014 103.2322805 114.0812202  11.5955079
 108.3119992 129.5739978   9.3080014 108.7369992 128.8669978   8.8230014
 108.6289992 130.3759978   8.8910014 108.4130266 129.5855190   9.1852479
 109.4719992 127.4749978   7.8170014 109.2139992 126.7849978   7.2050014
 109.5429992 127.0319978   8.6620014 109.4463050 127.3206814   7.8475621
 111.1579992 126.0419978  16.2940014 111.2969992 125.4499978  15.5550014
 111.3249992 126.9149978  15.9380014 111.1996193 126.0788896  16.1446211
 105.6299992 123.0039978   6.0670014 104.9189992 123.5389978   5.7150014
 106.3209992 123.0589978   5.4070014 105.6260751 123.0846777   5.9295858
 105.6839992 121.4609978   3.1050014 106.3849992 121.4839978   3.7570014
 105.9859992 120.8329978   2.4490014 105.8208202 121.3792212   3.1055609
 112.9989992 122.3819978  14.3600014 112.3469992 123.0759978  14.4490014
 113.4649992 122.5919978  13.5500014 112.9725937 122.5055019  14.2627533
 109.0359992 123.2129978   7.0180014 108.3039992 123.4419978   7.5920014
 109.4829992 122.4999978   7.4730014 108.9963963 123.1478729   7.1579945
 108.9329992 121.3879978  16.0860014 109.0129992 122.1509978  16.6580014
 108.3319992 121.6669978  15.3960014 108.8626547 121.5302457  16.0710047
 100.6809992 123.8439978   8.9010014 100.3509992 123.4729978   8.0830014
 101.2699992 123.1729978   9.2480014 100.7153970 123.7026063   8.8359404
 102.0479992 127.2719978  11.5820014 101.9529992 126.6929978  10.8260014
 102.7769992 126.9009978  12.0780014 102.1336011 127.1425561  11.5456028
 101.0479992 122.6119978  12.5340014 101.6129992 122.7339978  11.7720014
 101.3669992 123.2499978  13.1730014 101.1684166 122.7148791  12.5160348
 107.3569992 128.1159978  13.2680014 107.1169992 128.7779978  13.9160014
 107.1589992 127.2809978  13.6930014 107.2973826 128.0938115  13.4141566
 101.9279992 127.0119978  17.2520014 101.6169992 127.7939978  17.7070014
 101.2779992 126.8589978  16.5660014 101.7975538 127.0984087  17.2215898
 107.9069992 122.3759978   4.7040014 108.4859992 122.5259978   5.4500014
 108.3209992 122.8459978   3.9800014 108.0423358 122.4600954   4.7083953
  98.8479992 123.2099978  16.4800014  98.9179992 123.8609978  17.1790014
  97.9569992 123.3129978  16.1450014  98.7371690 123.3129249  16.5303043
 105.6329992 129.1119978   8.1390014 106.1069992 129.4079978   8.9160014
 105.0699992 129.8509978   7.9060014 105.6217890 129.2523036   8.2138101
 100.1669992 129.0829978  18.0150014 100.1749992 128.9469978  17.0680014
  99.2509992 128.9659978  18.2670014 100.0442528 129.0485463  17.9193243
 111.6059992 114.1259978   4.5170014 110.7059992 114.2649978   4.8120014
 111.8579992 114.9569978   4.1150014 111.5168683 114.2574055   4.5030232
  99.6719992 122.9129978   6.4900014  99.3799992 123.6809978   5.9990014
  98.9969992 122.2539978   6.3270014  99.5408497 122.9289745   6.4008260
 112.7949992 128.4919978   2.8930014 112.8679992 129.4309978   3.0630014
 113.6999992 128.1869978   2.8370014 112.9274170 128.5793282   2.9087063
  95.7649992 125.2759978  15.3050014  95.2629992 125.2479978  14.4900014
  95.7699992 124.3709978  15.6150014  95.6969832 125.1497486  15.2354121
  95.5149992 128.0569978  12.1890014  96.4609992 127.9119978  12.1700014
  95.4019992 128.8409978  12.7260014  95.6293578 128.1431697  12.2590317
 113.7129992 128.7229978  17.8720014 113.6629992 127.7669978  17.8340014
 112.8859992 128.9899978  18.2730014 113.5943831 128.6284680  17.9210121
 104.6909992 128.2969978  16.7480014 104.7789992 129.1229978  17.2230014
 103.8279992 127.9669978  16.9970014 104.5863357 128.3655468  16.8467653
 105.1059992 132.0689978   6.5540014 105.0299992 131.9479978   5.6070014
 105.1379992 133.0179978   6.6720014 105.0999380 132.1807677   6.4405181
  98.7589992 130.8579978   8.3350014  98.9109992 130.5099978   9.2130014
  97.9079992 130.5009978   8.0790014  98.6648344 130.7620879   8.4206868
 108.2069992 131.2229978   3.5560014 108.5819992 130.4789978   3.0850014
 108.2119992 130.9529978   4.4740014 108.2590098 131.0846392   3.6156629
 107.8759992 131.1489978   6.3050014 106.9409992 131.2489978   6.4840014
 108.1559992 130.4389978   6.8840014 107.7859471 131.0667933   6.4076695
 110.8649992 120.2159978  18.3520014 110.4569992 120.6959978  17.6310014
 110.9049992 119.3099978  18.0440014 110.8146221 120.1592449  18.2118267
  98.0139992 126.5999978  16.3480014  98.2299992 126.2379978  17.2080014
  97.1579992 126.2249978  16.1390014  97.9278810 126.4998837  16.4372680
 100.6319992 115.0699978  12.3440014  99.7709992 114.9829978  11.9360014
 100.6099992 115.9259978  12.7720014 100.5110491 115.1738003  12.3459582
 105.2949992 114.7919978  15.7190014 105.7149992 114.3769978  16.4720014
 104.3619992 114.6129978  15.8360014 105.2263736 114.7109910  15.8378968
 108.6219992 118.5469978  16.5720014 108.1079992 118.4219978  17.3700014
 108.4659992 119.4599978  16.3280014 108.5306967 118.6532123  16.6480937
 109.3839992 123.4079978   2.3330014 109.4259992 123.1859978   1.4030014
 110.2329992 123.8069978   2.5230014 109.5045253 123.4315498   2.2313822
 104.9569992 117.2839978   3.0040014 104.7029992 117.3029978   3.9260014
 104.6999992 116.4129978   2.7020014 104.8874508 117.1688280   3.0894803
 100.7229992 120.0349978  13.4390014 100.0819992 119.9949978  14.1480014
 100.7609992 120.9619978  13.2010014 100.6403010 120.1547668  13.5039946
 100.7199992 120.2559978   8.3510014  99.8279992 119.9159978   8.2920014
 101.1709992 119.8789978   7.5950014 100.6587642 120.1584910   8.2407726
 106.2559992 120.6719978   7.1680014 105.8469992 121.4869978   6.8760014
 106.9759992 120.5319978   6.5540014 106.2974439 120.7645372   7.0450115
 105.3579992 120.8479978  18.6560014 104.7949992 120.1429978  18.9770014
 106.1839992 120.7269978  19.1240014 105.3926674 120.7352165  18.7631751
 107.2609992 120.1179978   9.9820014 107.0649992 120.7239978   9.2670014
 107.4419992 119.2849978   9.5480014 107.2586584 120.0882513   9.8254212
  98.4729992 120.3559978  15.3060014  98.4349992 120.7559978  16.1750014
  97.9829992 119.5389978  15.3960014  98.4015330 120.3002674  15.4371289
 101.8389992 117.7299978   2.1050014 101.4079992 117.2849978   2.8340014
 101.1209992 118.1009978   1.5920014 101.6829176 117.7192051   2.1354930
  95.0819992 117.4719978   9.1570014  95.7119992 117.4429978   9.8760014
  95.5309992 117.0469978   8.4260014  95.2290835 117.4105660   9.1567659
  96.3559992 118.2179978   4.5810014  96.8299992 118.8089978   3.9960014
  95.6379992 118.7479978   4.9280014  96.3238640 118.3705511   4.5477969
 106.5249992 121.7559978  14.6530014 106.8479992 121.1249978  14.0100014
 106.0839992 121.2219978  15.3140014 106.5096379 121.5973468  14.6542582
 103.3019992 117.6839978   9.4370014 102.3909992 117.7409978   9.7260014
 103.8069992 117.6239978  10.2480014 103.2456873 117.6836826   9.5861207
  98.1299992 119.3129978   8.2640014  97.2409992 119.4119978   7.9240014
  98.4269992 118.4709978   7.9180014  98.0484177 119.2127687   8.1706940
 101.7829992 119.3129978   5.9210014 102.7149992 119.4419978   6.0990014
 101.5679992 119.9819978   5.2710014 101.8814472 119.4210806   5.8574891
 107.7069992 116.9189978  12.7020014 107.0299992 117.0499978  13.3650014
 107.2219992 116.7639978  11.8910014 107.5487405 116.9159947  12.6832170
 100.4569992 120.5069978   3.4870014  99.9149992 120.1279978   2.7960014
 101.2909992 120.7019978   3.0590014 100.4954390 120.4814079   3.3344392
 110.9949992 132.5899978  18.9780014 111.1939992 133.0139978  18.1440014
 111.6499992 132.9339978  19.5850014 111.1108522 132.6946301  18.9457852
  98.5929992 125.0639978  18.5860014  99.3249992 125.3189978  19.1480014
  97.8119992 125.2689978  19.1020014  98.5876526 125.1265450  18.7325176
 104.6219992 120.4709978  11.3240014 105.1859992 119.9249978  10.7770014
 104.4739992 119.9499978  12.1130014 104.6793037 120.3256787  11.3557229
  99.6239992 116.6079978   7.7430014  99.3069992 115.7049978   7.7070014
 100.4049992 116.6099978   7.1900014  99.6862431 116.4847797   7.6633102
 103.2479992 118.8599978  13.7380014 102.4129992 119.3139978  13.8490014
 103.7719992 119.1359978  14.4900014 103.2046072 118.9593948  13.8548136
 103.7929992 125.0729978   5.4230014 103.0479992 124.5649978   5.1010014
 103.6579992 125.1219978   6.3690014 103.6728963 125.0101731   5.5068826
 110.9429992 124.2059978  14.2100014 111.5839992 124.6619978  13.6660014
 110.1119992 124.3189978  13.7470014 110.9185287 124.2836921  14.0729887
 107.6899992 117.8869978   3.6220014 106.7519992 117.9979978   3.4710014
 107.9879992 118.7429978   3.9290014 107.6016318 118.0180158   3.6428145
 105.3119992 125.2569978  16.6600014 104.9659992 124.8749978  17.4670014
 105.1119992 126.1899978  16.7310014 105.2375987 125.3309002  16.7800461
 108.4089992 119.7539978   5.2830014 109.3009992 119.6159978   5.6020014
 108.4649992 120.5449978   4.7460014 108.5387325 119.8419918   5.2541217
  98.9169992 124.3679978  11.1930014  99.6619992 124.3649978  10.5910014
  98.9949992 123.5439978  11.6740014  99.0293365 124.2562384  11.1757430
 105.9179992 126.5309978   4.4480014 105.6229992 127.3579978   4.8300014
 105.2149992 125.9119978   4.6450014 105.7826379 126.5604171   4.5268654
  95.9249992 122.8279978  16.5080014  96.1479992 122.4099978  17.3390014
  95.3229992 122.2159978  16.0850014  95.8741513 122.6879606  16.5646740
 102.9419992 122.3449978  18.7210014 102.6459992 122.1799978  17.8250014
 103.8729992 122.1249978  18.7100014 103.0274401 122.2926879  18.5970206
 107.5619992 127.7189978  16.6100014 106.6619992 127.9019978  16.3430014
 107.5959992 127.9779978  17.5310014 107.4433748 127.7790554  16.6979164
 113.2939992 119.9629978   4.9780014 112.7389992 119.5669978   4.3050014
 113.3939992 120.8739978   4.7000014 113.2316816 120.0319505   4.8485033
 113.2569992 125.7639978  17.8150014 112.4059992 126.0019978  17.4470014
 113.8469992 125.7469978  17.0620014 113.2203812 125.7942524  17.6628453
 111.5889992 128.7489978   5.4430014 111.2159992 127.9239978   5.7520014
 111.8659992 128.5659978   4.5450014 111.5753463 128.6112569   5.3639525
 108.7489992 123.5569978  12.4640014 107.8209992 123.3259978  12.4370014
 109.1999992 122.7799978  12.1340014 108.6828165 123.4202774  12.4156790
 101.2919992 127.8859978   8.5970014 101.8199992 128.6589978   8.3970014
 100.4119992 128.1099978   8.2950014 101.2453435 128.0222700   8.5287310
  97.0469992 122.7479978   3.1840014  97.6629992 123.3749978   3.5640014
  96.1849992 123.0639978   3.4560014  97.0147678 122.8764412   3.2727209
 102.7199992 125.5489978   8.1730014 102.4789992 126.4739978   8.2150014
 101.9789992 125.0899978   8.5700014 102.5869206 125.6135915   8.2323769
 103.2339992 129.6979978  14.4880014 103.5969992 130.5519978  14.2550014
 103.7659992 129.4059978  15.2290014 103.3555141 129.7753895  14.5562097
 101.4029992 130.5699978   7.7190014 100.4529992 130.6759978   7.7700014
 101.7549992 131.3909978   8.0630014 101.3205472 130.6954923   7.7724852
 106.7779992 125.7969978  14.1890014 106.3529992 125.5689978  15.0150014
 107.3589992 125.0579978  14.0070014 106.7983395 125.6659545  14.2774414
 108.9809992 126.7259978   3.2630014 109.3349992 126.3459978   4.0670014
 108.0329992 126.6319978   3.3500014 108.9012298 126.6612452   3.3848687
 109.4369992 130.3489978  16.6580014 108.8349992 129.7929978  16.1630014
 109.7179992 131.0159978  16.0320014 109.3925757 130.3630744  16.5055675
 113.4849992 131.2049978   3.4640014 114.2289992 131.7909978   3.3240014
 112.7909992 131.7739978   3.7970014 113.4929809 131.3620818   3.4898590
  97.5589992 117.5819978  16.0660014  96.6669992 117.9199978  15.9980014
  97.4609992 116.7259978  16.4840014  97.4234475 117.5126543  16.1131704
 109.8469992 125.3979978   5.4900014 109.5699992 124.6699978   6.0460014
 110.7749992 125.5169978   5.6950014 109.9344499 125.3144213   5.5938044
  97.2109992 129.3859978  14.5010014  97.4279992 128.4539978  14.4700014
  97.4569992 129.6609978  15.3840014  97.2739809 129.2955686  14.6161691
 103.0719992 127.8379978   1.7100014 103.3109992 127.0889978   1.1630014
 102.8029992 127.4499978   2.5430014 103.0683233 127.6831853   1.7477809
 102.0089992 127.4079978   4.1660014 102.1559992 126.8879978   4.9560014
 102.0059992 128.3149978   4.4730014 102.0287102 127.4593953   4.3155925
  98.4619992 124.6599978   4.6770014  97.7759992 125.0129978   5.2440014
  98.9849992 125.4229978   4.4300014  98.4388402 124.8113901   4.7211801
 106.2939992 117.3229978  14.9560014 106.9929992 117.3969978  15.6060014
 105.9129992 116.4579978  15.1100014 106.3382097 117.2162389  15.0657997
 107.0779992 116.9749978   6.0530014 107.2979992 117.4459978   5.2490014
 107.6369992 117.3689978   6.7230014 107.1836731 117.0927287   6.0335033
 104.7469992 129.1049978   4.9160014 103.9299992 129.6019978   4.9680014
 105.2759992 129.5809978   4.2750014 104.7068125 129.2371989   4.8365306
 104.2779992 118.7029978   6.8880014 105.0899992 119.2069978   6.9340014
 104.0339992 118.5579978   7.8020014 104.3561467 118.7523749   7.0178575
 104.8139992 119.6889978  16.0720014 104.9329992 120.2629978  16.8290014
 105.4689992 119.0009978  16.1870014 104.9188684 119.6745194  16.1911674
 105.1619992 115.7839978   7.8260014 104.8149992 116.4009978   8.4700014
 105.8209992 116.2849978   7.3440014 105.2035090 115.9361575   7.8490681
 102.0849992 130.1489978   4.8970014 102.2459992 130.9489978   4.3970014
 101.8879992 130.4559978   5.7820014 102.0803906 130.2998678   4.9482333
 100.8199992 116.8469978   4.5130014 100.7359992 117.7349978   4.8600014
 101.7099992 116.5819978   4.7450014 100.9288163 116.9327179   4.5918596
 111.0179992 117.5959978  16.9070014 110.1019992 117.8579978  16.8200014
 111.3539992 117.5929978  16.0110014 110.9378499 117.6315163  16.7738766
 109.6209992 121.3459978  11.0030014 108.8229992 120.9309978  10.6750014
 110.0659992 120.6559978  11.4940014 109.5719684 121.1958628  11.0245227
  99.0779992 127.2739978   3.5730014  99.6699992 127.9739978   3.8500014
  99.5369992 126.8409978   2.8540014  99.2211652 127.3112675   3.5136533
  97.3939992 119.9389978   2.6890014  97.3489992 120.8779978   2.8680014
  96.5059992 119.7029978   2.4200014  97.2678166 120.0356687   2.6771524
 110.7069992 130.6019978  12.6250014 110.5509992 131.2809978  11.9680014
 111.6399992 130.6739978  12.8280014 110.8117387 130.7046390  12.5625342
  98.2019992 114.7199978  11.3630014  97.9729992 114.7789978  10.4350014
  97.7599992 113.9289978  11.6690014  98.1108801 114.6210540  11.2774729
  97.1329992 128.6609978   7.5230014  96.2999992 129.1329978   7.5500014
  97.6779992 129.1709978   6.9240014  97.0927857 128.7944791   7.4457142
  96.4209992 131.2729978  18.8530014  96.9609992 131.0569978  19.6130014
  95.9399992 130.4679978  18.6630014  96.4299219 131.1345156  18.9314282
 101.0179992 130.1929978  20.4730014 101.7859992 129.7339978  20.8140014
 100.9969992 129.9669978  19.5430014 101.1202135 130.0996668  20.3939491
 105.1099992 129.7009978   1.8490014 104.4659992 129.0699978   2.1700014
 105.8719992 129.1699978   1.6170014 105.1248058 129.5427902   1.8616038
 107.5949992 128.5729978  19.2020014 107.2439992 127.7159978  19.4460014
 108.3209992 128.7149978  19.8090014 107.6451895 128.4751351  19.3173770
 109.7149992 129.5179978   2.0820014 109.9979992 128.7229978   2.5350014
 110.4539992 129.7509978   1.5210014 109.8537096 129.4407049   2.0681104
  96.3279992 125.0839978  19.8070014  96.4719992 124.1819978  19.5210014
  95.5559992 125.3699978  19.3200014  96.2432733 124.9991798  19.7019532
 100.6689992 125.4269978   1.9400014 100.7339992 124.6329978   2.4700014
 101.3219992 125.3089978   1.2500014 100.7661605 125.3023430   1.9192997
 102.9829992 125.0529978  19.2400014 102.6549992 125.3239978  18.3830014
 103.1349992 124.1119978  19.1520014 102.9586412 124.9629046  19.1107822
 106.0219992 126.4739978   1.6760014 105.7529992 126.6549978   2.5760014
 105.8149992 125.5489978   1.5440014 105.9571191 126.3737119   1.7815524
 108.7179992 124.9689978  16.6230014 109.4629992 125.5579978  16.5040014
 107.9609992 125.5509978  16.6870014 108.7175470 125.1282128  16.6153799
  97.1609992 122.2839978  19.2270014  97.5689992 121.4269978  19.1060014
  96.8999992 122.2979978  20.1480014  97.1816016 122.1685119  19.3349192
 101.8189992 123.3999978   4.2460014 101.3589992 122.9159978   4.9310014
 102.0739992 122.7309978   3.6100014 101.7904856 123.2433669   4.2538397
 101.1079992 121.2929978  16.6020014 100.4889992 121.9669978  16.8820014
 101.4519992 121.6139978  15.7680014 101.0697123 121.4286887  16.5276388
 102.8899992 121.6429978   2.5080014 102.7089992 121.4879978   1.5810014
 103.8399992 121.7509978   2.5530014 102.9936566 121.6363669   2.3870929
 106.1269992 123.7639978  19.8790014 107.0809992 123.8479978  19.8520014
 105.9669992 123.0519978  20.4990014 106.2357182 123.6792842  19.9590733
 112.2799992 123.9969978   1.9540014 112.0059992 123.5729978   1.1410014
 112.3189992 124.9289978   1.7370014 112.2477716 124.0648827   1.8134286
 101.4469992 118.6479978  17.6840014 101.5969992 117.9189978  17.0820014
 101.4489992 119.4249978  17.1250014 101.4677967 118.6532708  17.5260541
 101.8599992 117.0169978  15.1770014 102.3949992 117.4689978  14.5250014
 101.0069992 116.9089978  14.7540014 101.8180374 117.0642665  15.0306710
 103.4409992 122.4569978  15.4160014 104.1919992 122.3009978  14.8430014
 103.1019992 123.3089978  15.1410014 103.4979587 122.5508138  15.3004078
 107.8569992 120.2719978  20.4450014 108.0489992 119.3409978  20.3330014
 108.7149992 120.6969978  20.4340014 107.9992182 120.2020070  20.4281862
 109.1739992 123.0609978  18.5220014 108.8919992 123.7699978  17.9440014
 110.1159992 122.9879978  18.3710014 109.2627921 123.1482193  18.4224225
  99.9259992 119.8459978  19.5950014  99.1579992 119.3129978  19.3850014
 100.6039992 119.5359978  18.9960014  99.9127235 119.7311754  19.4852413
 102.6649992 114.4739978  15.6080014 102.5669992 115.4199978  15.5030014
 101.9229992 114.1009978  15.1320014 102.5512534 114.5531773  15.5292600
 103.9289992 118.7949978  19.1720014 103.6939992 118.5759978  20.0730014
 103.1459992 118.5879978  18.6620014 103.7909095 118.7369892  19.2265353
 106.6449992 117.9229978  18.2470014 105.6969992 117.9549978  18.3790014
 106.9569992 117.2969978  18.9010014 106.5575293 117.8427923  18.3534148
 108.2789992 116.5569978  20.2520014 108.1819992 115.6049978  20.2470014
 107.9569992 116.8249978  21.1130014 108.2222468 116.4630884  20.3676210
  98.1059992 117.7659978  19.3000014  98.3179992 117.0599978  18.6900014
  97.9949992 117.3289978  20.1440014  98.1200269 117.6101921  19.3305873
 102.8869992 113.7679978  18.2790014 103.5989992 113.1279978  18.2650014
 102.7859992 114.0339978  17.3660014 102.9707387 113.7164330  18.1535563
 103.2409992 115.4499978  20.3330014 103.1089992 114.9749978  19.5130014
 102.6409992 116.1949978  20.2780014 103.1419070 115.4855789  20.2133251
 102.7869992 132.3329978   3.5090014 103.7199992 132.4909978   3.6530014
 102.5229992 133.0089978   2.8840014 102.8789911 132.4459373   3.4442722
  96.3549992 126.9699978   2.9920014  97.2689992 127.0489978   3.2650014
  96.3629992 126.2829978   2.3260014  96.4810655 126.8879205   2.9392917
  95.0039992 132.3629978   8.0690014  94.3569992 131.9009978   7.5370014
  95.3589992 131.6909978   8.6520014  94.9633741 132.2089774   8.0749175
  95.8739992 130.4429978   9.8740014  95.5399992 129.5629978  10.0460014
  96.0969992 130.7889978  10.7390014  95.8583721 130.3691938  10.0144168
 113.4229992 131.2529978  12.8550014 113.4009992 131.4379978  13.7940014
 114.1129992 131.8209978  12.5140014 113.5133439 131.3551887  12.9374791
 112.9859992 130.8199978  15.7760014 112.4989992 130.0849978  15.4050014
 113.5349992 130.4259978  16.4540014 112.9935247 130.6661057  15.8168461
 111.4369992 126.6099978  20.4150014 110.5709992 126.5049978  20.8090014
 111.8129992 127.3679978  20.8610014 111.3693401 126.6981708  20.5292620
 112.7379992 124.8659978   5.9290014 113.5879992 125.2869978   6.0560014
 112.7429992 124.1259978   6.5360014 112.8551143 124.8236094   6.0284750
 113.1319992 122.9199978   7.7520014 112.4059992 122.4399978   8.1500014
 113.7139992 123.1249978   8.4850014 113.1112730 122.8820184   7.9054149
 112.8909992 125.7049978  12.7000014 113.7249992 125.3269978  12.4190014
 113.0029992 126.6479978  12.5810014 113.0201917 125.7807943  12.6454861
 111.3779992 128.5829978  15.0070014 110.7299992 128.9079978  15.6320014
 110.8599992 128.1419978  14.3330014 111.2194196 128.5678651  15.0014152
 113.4009992 122.8209978   4.1430014 112.8789992 123.1769978   3.4250014
 113.3679992 123.4959978   4.8220014 113.3250129 122.9609598   4.1363355
 111.7499992 120.0599978   2.6940014 111.8459992 120.7269978   2.0140014
 111.6099992 119.2449978   2.2130014 111.7442040 120.0410671   2.5358378
 110.9189992 121.4409978   8.3150014 110.7689992 120.4959978   8.2950014
 110.5649992 121.7219978   9.1590014 110.8506351 121.3496644   8.4263220
  95.9539992 123.5189978  12.3260014  96.1389992 123.4369978  11.3900014
  96.8039992 123.3949978  12.7490014  96.0940928 123.4910463  12.2552893
 111.7749992 123.4109978  17.9540014 112.3579992 122.6759978  18.1460014
 112.3389992 124.1829978  18.0010014 111.9309781 123.4148145  17.9866164
 113.2719992 121.3139978  18.6390014 112.4089992 120.9349978  18.4730014
 113.8759992 120.5749978  18.5640014 113.2356085 121.1623223  18.6061695
 110.9969992 117.4679978   1.8120014 111.6079992 117.0969978   2.4490014
 110.1599992 117.0469978   2.0080014 110.9674947 117.3602756   1.9257252
 110.6299992 119.0229978   6.7780014 110.9089992 118.1159978   6.9020014
 111.3889992 119.4569978   6.3890014 110.7708619 118.9574502   6.7423795
 111.2409992 119.6049978  12.2140014 112.1739992 119.8169978  12.1790014
 111.0059992 119.7059978  13.1360014 111.3369517 119.6476833  12.3339130
 111.2709992 120.3419978  14.9900014 110.4279992 120.6099978  15.3560014
 111.7129992 121.1639978  14.7790014 111.2154138 120.4898273  15.0115518
  95.5519992 118.7889978  18.4660014  96.4709992 118.6669978  18.7030014
  95.1019992 118.0389978  18.8560014  95.6170087 118.6709608  18.5511410
 113.5539992 114.3219978  20.3430014 113.9029992 113.6679978  19.7380014
 113.7009992 115.1589978  19.9030014 113.6216824 114.3456024  20.2006304
 111.2429992 116.2859978   6.8260014 111.4249992 115.8369978   7.6510014
 110.6429992 115.7019978   6.3620014 111.1868187 116.1455552   6.8762739
  96.7729992 117.1019978  11.3580014  97.2179992 116.3099978  11.6600014
  97.2389992 117.8179978  11.7880014  96.8969718 117.0904534  11.4575265
  95.0769992 120.1009978  12.4270014  95.5689992 119.8799978  11.6360014
  95.4389992 120.9409978  12.7080014  95.1932923 120.1843468  12.3567407
 113.0729992 116.4309978  18.6920014 112.1559992 116.7019978  18.6570014
 113.1959992 115.8959978  17.9080014 112.9639672 116.3957885  18.5811862
 113.1099992 116.3539978   3.3540014 113.5219992 115.6329978   2.8790014
 113.7909992 117.0229978   3.4120014 113.2585536 116.3457766   3.2968024
  95.3909992 116.3589978   6.4810014  94.4659992 116.5669978   6.3520014
  95.8449992 116.8429978   5.7910014  95.3256298 116.4529299   6.3700451
 110.1609992 131.3429978   8.4270014 110.8139992 130.9949978   7.8190014
 110.6719992 131.8309978   9.0730014 110.3192777 131.3613815   8.4312047
  95.3539992 115.0969978  14.8250014  94.6889992 114.8509978  15.4680014
  94.9109992 115.7189978  14.2480014  95.2031168 115.1474214  14.8349848
  97.5459992 128.2719978  18.9700014  96.7249992 128.4469978  18.5090014
  97.2939992 128.1989978  19.8900014  97.3995594 128.2860717  19.0313611
 100.4999992 129.2459978  15.2280014 100.0759992 130.0559978  14.9460014
 101.4049992 129.3319978  14.9260014 100.5642138 129.3684160  15.1486415
 104.8119992 130.6449978  18.1880014 104.9959992 130.3119978  19.0660014
 105.6579992 130.9549978  17.8660014 104.9516484 130.6412979  18.2647617
 107.1569992 131.9309978  17.4320014 107.8339992 131.2979978  17.1920014
 107.4779992 132.3319978  18.2390014 107.2931323 131.8985691  17.5083158
 112.0739992 114.5209978  16.5110014 111.2609992 114.8459978  16.1240014
 112.3069992 113.7599978  15.9780014 111.9941347 114.4626880  16.3859841
  97.9019992 132.5029978  15.2760014  97.1819992 132.9429978  14.8250014
  97.5369992 132.2519978  16.1240014  97.7539643 132.5293369  15.3289129
 100.3689992 132.1029978  14.3060014  99.5049992 132.1749978  14.7100014
 100.3139992 132.6499978  13.5220014 100.2431942 132.1867849  14.2554000
 105.0799992 131.9909978  13.4810014 104.6229992 132.5199978  12.8270014
 105.2429992 132.5939978  14.2060014 105.0394960 132.1449280  13.4895274
 107.4079992 130.8689978  14.4260014 106.5029992 131.0339978  14.1600014
 107.8359992 131.7219978  14.3600014 107.3421537 131.0069134  14.3807095
 110.0119992 132.4389978  14.7210014 109.8299992 133.3549978  14.5100014
 110.1889992 132.0279978  13.8740014 110.0110030 132.5088273  14.5777166
  97.3169992 131.1259978  12.1860014  97.2989992 130.6999978  13.0430014
  98.1219992 130.8069978  11.7770014  97.4232875 131.0246435  12.2479515
  99.4579992 129.8359978  10.8410014  99.2389992 128.9189978  11.0110014
 100.2819992 129.9759978  11.3070014  99.5394702 129.7295511  10.9272527
 101.9949992 130.3059978  11.6900014 102.2079992 129.4179978  11.4030014
 102.0599992 130.2709978  12.6440014 102.0329149 130.1798326  11.7797369
 105.5039992 115.9699978  10.8340014 104.8299992 115.3399978  11.0900014
 106.0679992 115.4859978  10.2310014 105.4880384 115.8183708  10.7875020
 110.6469992 114.0769978  10.9470014 111.2499992 114.6249978  10.4450014
 109.7769992 114.3959978  10.7060014 110.6119157 114.1950373  10.8457910
 112.3739992 115.2159978   9.2800014 112.9849992 114.7019978   8.7530014
 112.7559992 116.0929978   9.3030014 112.5093305 115.2642050   9.2109418
  97.8309992 114.6039978   8.6560014  97.0539992 114.3689978   8.1490014
  98.3609992 113.8069978   8.6650014  97.7963451 114.4641268   8.5878627
  96.6669992 114.4019978   4.4600014  97.1059992 115.0129978   3.8680014
  96.0329992 114.9399978   4.9340014  96.6413859 114.5584064   4.4430305
 102.4099992 114.5299978   8.4690014 103.2839992 114.9189978   8.4400014
 102.2739992 114.3149978   9.3920014 102.5111953 114.5541643   8.5897617
 107.9669992 114.5599978  10.1190014 108.0429992 114.6559978   9.1690014
 107.6919992 113.6529978  10.2470014 107.9401871 114.4504146  10.0063944
 109.3199992 114.5859978   5.8110014 108.6169992 115.2009978   5.6010014
 108.8749992 113.7489978   5.9420014 109.1636550 114.5569668   5.7999837
  96.5679992 130.3499978   5.3570014  95.8829992 130.3119978   4.6900014
  96.5719992 131.2629978   5.6450014  96.4747621 130.4681924   5.3046126
  98.5279992 116.3179978   2.9020014  99.0189992 115.6879978   2.3750014
  99.1509992 116.6139978   3.5650014  98.6795304 116.2717376   2.9194940
 103.5539992 116.6109978   5.3590014 103.7319992 115.9639978   6.0420014
 103.4999992 117.4449978   5.8260014 103.5710678 116.6351604   5.5156301
 105.4319992 131.5589978   3.7550014 106.2979992 131.9259978   3.5770014
 105.1859992 131.1199978   2.9410014 105.5172097 131.5498525   3.6206019
 112.1409992 131.1219978   6.4340014 111.9469992 130.3739978   5.8690014
 112.1019992 131.8799978   5.8510014 112.1091645 131.1220786   6.2778148
  97.7879992 115.1179978  18.1740014  97.4219992 114.3519978  18.6160014
  98.7009992 115.1469978  18.4600014  97.8613172 115.0170324  18.2731890
  99.7609992 114.4679978  19.7090014 100.6599992 114.1939978  19.5250014
  99.3749992 113.7259978  20.1740014  99.8317307 114.3302196  19.7467098
  98.3859992 131.2699978   2.3820014  98.1179992 131.5559978   3.2560014
  99.1569992 130.7239978   2.5350014  98.4535926 131.2352779   2.5221205
 108.1829992 113.8009978  19.8920014 108.2589992 113.3749978  20.7450014
 109.0759992 113.8139978  19.5490014 108.3142303 113.7443493  19.9625497
 111.3589992 129.8739978  18.5840014 110.5769992 129.6869978  18.0640014
 111.2869992 130.8029978  18.8010014 111.2421924 129.9740637  18.5421602
 125.7649992 123.7599978   8.6150014 125.8539992 124.7039978   8.4830014
 125.1269992 123.4849978   7.9570014 125.6909062 123.8519812   8.5079641
 124.6979992 123.0149978  12.0340014 124.6599992 122.3689978  12.7390014
 124.3759992 122.5479978  11.2630014 124.6492679 122.8634276  12.0262921
 117.0659992 122.6289978  13.6270014 117.1079992 122.0039978  14.3500014
 117.7689992 123.2529978  13.8090014 117.1667345 122.6277873  13.7505274
 128.4039992 125.9539978  10.3350014 127.9629992 125.2339978  10.7860014
 128.3909992 126.6749978  10.9650014 128.3419215 125.9529291  10.4818105
 117.9899992 127.0789978  12.1620014 117.6199992 126.2769978  11.7920014
 118.9309992 126.9109978  12.2080014 118.0665984 126.9464638  12.1175603
 114.5999992 120.7389978   7.5540014 114.1519992 121.5849978   7.5360014
 114.0389992 120.1599978   7.0390014 114.4628546 120.7763993   7.4818891
 115.3099992 122.9009978   9.6800014 115.5239992 122.1309978  10.2080014
 116.0479992 122.9909978   9.0770014 115.4390200 122.8078586   9.6707035
 125.5159992 131.0579978  10.5470014 126.1349992 130.3819978  10.2740014
 125.3069992 130.8399978  11.4560014 125.5726056 130.9358869  10.6323967
 123.0869992 125.4469978  12.4400014 123.3909992 124.7609978  11.8450014
 123.8089992 125.5659978  13.0580014 123.2261240 125.3692314  12.4420959
 131.7499992 117.0489978  13.3000014 131.7999992 117.6589978  14.0360014
 132.1759992 117.5099978  12.5770014 131.8144108 117.1947709  13.3030112
 126.2279992 119.8409978  12.7670014 126.3709992 118.8949978  12.7870014
 126.1219992 120.0479978  11.8390014 126.2332403 119.7394797  12.6442239
 119.3829992 117.9429978  10.0400014 119.4259992 118.8029978   9.6210014
 118.9249992 117.3909978   9.4060014 119.3269871 117.9859245   9.8970761
 127.1049992 118.0739978   8.4410014 127.7519992 117.7449978   9.0650014
 127.6149992 118.5909978   7.8180014 127.2624351 118.0989067   8.4421037
 116.0029992 120.3399978  10.8020014 116.6569992 119.7899978  11.2340014
 116.0269992 120.0659978   9.8850014 116.0957199 120.2277167  10.7371668
 121.1599992 121.8899978  10.0170014 121.7759992 121.3629978  10.5260014
 120.5729992 121.2499978   9.6130014 121.1650154 121.7313954  10.0320945
 132.1419992 118.5269978  15.5360014 131.4529992 119.1849978  15.4410014
 132.1569992 118.3289978  16.4730014 132.0497756 118.5902603  15.6495812
 118.1929992 116.8609978  14.1140014 117.9739992 117.3909978  13.3470014
 117.5249992 117.0869978  14.7610014 118.0726975 116.9640967  14.0965140
 125.5619992 126.3609978   7.6580014 125.2669992 126.0379978   6.8060014
 125.2379992 127.2609978   7.6990014 125.4778460 126.4384464   7.5469714
 120.7619992 124.5359978  14.4010014 120.0219992 125.1349978  14.5050014
 121.4759992 125.0899978  14.0860014 120.7573500 124.6927829  14.3726371
 128.8689992 117.3649978  10.4210014 128.6539992 116.5989978  10.9540014
 129.5249992 117.8369978  10.9340014 128.9282673 117.3240728  10.5631990
 117.7869992 118.7529978  12.0660014 118.4009992 119.3859978  12.4390014
 118.2989992 118.2809978  11.4100014 117.9401962 118.7757249  12.0282935
 119.1699992 126.5009978  15.1880014 119.1639992 127.3799978  14.8100014
 118.3159992 126.4169978  15.6130014 119.0537925 126.6099535  15.1936887
 115.2909992 126.1719978   5.9700014 115.0189992 126.4009978   5.0820014
 115.3359992 127.0089978   6.4310014 115.2598097 126.3166163   5.9106683
 128.9159992 127.7929978  12.6830014 127.9739992 127.8519978  12.8450014
 129.1919992 128.6989978  12.5460014 128.8245865 127.9235288  12.6866192
 129.2159992 116.0799978  14.1000014 128.4799992 116.6899978  14.0630014
 129.8999992 116.4949978  13.5740014 129.2075367 116.2197551  14.0238174
 122.2199992 114.1659978  11.5660014 122.1019992 113.2179978  11.5120014
 121.3649992 114.4989978  11.8390014 122.0882805 114.0812202  11.5955079
 127.1679992 129.5739978   9.3080014 127.5929992 128.8669978   8.8230014
 127.4849992 130.3759978   8.8910014 127.2690266 129.5855190   9.1852479
 128.3279992 127.4749978   7.8170014 128.0699992 126.7849978   7.2050014
 128.3989992 127.0319978   8.6620014 128.3023050 127.3206814   7.8475621
 130.0139992 126.0419978  16.2940014 130.1529992 125.4499978  15.5550014
 130.1809992 126.9149978  15.9380014 130.0556193 126.0788896  16.1446211
 124.4859992 123.0039978   6.0670014 123.7749992 123.5389978   5.7150014
 125.1769992 123.0589978   5.4070014 124.4820751 123.0846777   5.9295858
 124.5399992 121.4609978   3.1050014 125.2409992 121.4839978   3.7570014
 124.8419992 120.8329978   2.4490014 124.6768202 121.3792212   3.1055609
 131.8549992 122.3819978  14.3600014 131.2029992 123.0759978  14.4490014
 132.3209992 122.5919978  13.5500014 131.8285937 122.5055019  14.2627533
 127.8919992 123.2129978   7.0180014 127.1599992 123.4419978   7.5920014
 128.3389992 122.4999978   7.4730014 127.8523963 123.1478729   7.1579945
 127.7889992 121.3879978  16.0860014 127.8689992 122.1509978  16.6580014
 127.1879992 121.6669978  15.3960014 127.7186547 121.5302457  16.0710047
 119.5369992 123.8439978   8.9010014 119.2069992 123.4729978   8.0830014
 120.1259992 123.1729978   9.2480014 119.5713970 123.7026063   8.8359404
 120.9039992 127.2719978  11.5820014 120.8089992 126.6929978  10.8260014
 121.6329992 126.9009978  12.0780014 120.9896011 127.1425561  11.5456028
 119.9039992 122.6119978  12.5340014 120.4689992 122.7339978  11.7720014
 120.2229992 123.2499978  13.1730014 120.0244166 122.7148791  12.5160348
 126.2129992 128.1159978  13.2680014 125.9729992 128.7779978  13.9160014
 126.0149992 127.2809978  13.6930014 126.1533826 128.0938115  13.4141566
 120.7839992 127.0119978  17.2520014 120.4729992 127.7939978  17.7070014
 120.1339992 126.8589978  16.5660014 120.6535538 127.0984087  17.2215898
 126.7629992 122.3759978   4.7040014 127.3419992 122.5259978   5.4500014
 127.1769992 122.8459978   3.9800014 126.8983358 122.4600954   4.7083953
 117.7039992 123.2099978  16.4800014 117.7739992 123.8609978  17.1790014
 116.8129992 123.3129978  16.1450014 117.5931690 123.3129249  16.5303043
 124.4889992 129.1119978   8.1390014 124.9629992 129.4079978   8.9160014
 123.9259992 129.8509978   7.9060014 124.4777890 129.2523036   8.2138101
 119.0229992 129.0829978  18.0150014 119.0309992 128.9469978  17.0680014
 118.1069992 128.9659978  18.2670014 118.9002528 129.0485463  17.9193243
 130.4619992 114.1259978   4.5170014 129.5619992 114.2649978   4.8120014
 130.7139992 114.9569978   4.1150014 130.3728683 114.2574055   4.5030232
 118.5279992 122.9129978   6.4900014 118.2359992 123.6809978   5.9990014
 117.8529992 122.2539978   6.3270014 118.3968497 122.9289745   6.4008260
 131.6509992 128.4919978   2.8930014 131.7239992 129.4309978   3.0630014
 132.5559992 128.1869978   2.8370014 131.7834170 128.5793282   2.9087063
 114.6209992 125.2759978  15.3050014 114.1189992 125.2479978  14.4900014
 114.6259992 124.3709978  15.6150014 114.5529832 125.1497486  15.2354121
 114.3709992 128.0569978  12.1890014 115.3169992 127.9119978  12.1700014
 114.2579992 128.8409978  12.7260014 114.4853578 128.1431697  12.2590317
 132.5689992 128.7229978  17.8720014 132.5189992 127.7669978  17.8340014
 131.7419992 128.9899978  18.2730014 132.4503831 128.6284680  17.9210121
 123.5469992 128.2969978  16.7480014 123.6349992 129.1229978  17.2230014
 122.6839992 127.9669978  16.9970014 123.4423357 128.3655468  16.8467653
 123.9619992 132.0689978   6.5540014 123.8859992 131.9479978   5.6070014
 123.9939992 133.0179978   6.6720014 123.9559380 132.1807677   6.4405181
 117.6149992 130.8579978   8.3350014 117.7669992 130.5099978   9.2130014
 116.7639992 130.5009978   8.0790014 117.5208344 130.7620879   8.4206868
 127.0629992 131.2229978   3.5560014 127.4379992 130.4789978   3.0850014
 127.0679992 130.9529978   4.4740014 127.1150098 131.0846392   3.6156629
 126.7319992 131.1489978   6.3050014 125.7969992 131.2489978   6.4840014
 127.0119992 130.4389978   6.8840014 126.6419471 131.0667933   6.4076695
 129.7209992 120.2159978  18.3520014 129.3129992 120.6959978  17.6310014
 129.7609992 119.3099978  18.0440014 129.6706221 120.1592449  18.2118267
 116.8699992 126.5999978  16.3480014 117.0859992 126.2379978  17.2080014
 116.0139992 126.2249978  16.1390014 116.7838810 126.4998837  16.4372680
 119.4879992 115.0699978  12.3440014 118.6269992 114.9829978  11.9360014
 119.4659992 115.9259978  12.7720014 119.3670491 115.1738003  12.3459582
 124.1509992 114.7919978  15.7190014 124.5709992 114.3769978  16.4720014
 123.2179992 114.6129978  15.8360014 124.0823736 114.7109910  15.8378968
 127.4779992 118.5469978  16.5720014 126.9639992 118.4219978  17.3700014
 127.3219992 119.4599978  16.3280014 127.3866967 118.6532123  16.6480937
 128.2399992 123.4079978   2.3330014 128.2819992 123.1859978   1.4030014
 129.0889992 123.8069978   2.5230014 128.3605253 123.4315498   2.2313822
 123.8129992 117.2839978   3.0040014 123.5589992 117.3029978   3.9260014
 123.5559992 116.4129978   2.7020014 123.7434508 117.1688280   3.0894803
 119.5789992 120.0349978  13.4390014 118.9379992 119.9949978  14.1480014
 119.6169992 120.9619978  13.2010014 119.4963010 120.1547668  13.5039946
 119.5759992 120.2559978   8.3510014 118.6839992 119.9159978   8.2920014
 120.0269992 119.8789978   7.5950014 119.5147642 120.1584910   8.2407726
 125.1119992 120.6719978   7.1680014 124.7029992 121.4869978   6.8760014
 125.8319992 120.5319978   6.5540014 125.1534439 120.7645372   7.0450115
 124.2139992 120.8479978  18.6560014 123.6509992 120.1429978  18.9770014
 125.0399992 120.7269978  19.1240014 124.2486674 120.7352165  18.7631751
 126.1169992 120.1179978   9.9820014 125.9209992 120.7239978   9.2670014
 126.2979992 119.2849978   9.5480014 126.1146584 120.0882513   9.8254212
 117.3289992 120.3559978  15.3060014 117.2909992 120.7559978  16.1750014
 116.8389992 119.5389978  15.3960014 117.2575330 120.3002674  15.4371289
 120.6949992 117.7299978   2.1050014 120.2639992 117.2849978   2.8340014
 119.9769992 118.1009978   1.5920014 120.5389176 117.7192051   2.1354930
 113.9379992 117.4719978   9.1570014 114.5679992 117.4429978   9.8760014
 114.3869992 117.0469978   8.4260014 114.0850835 117.4105660   9.1567659
 115.2119992 118.2179978   4.5810014 115.6859992 118.8089978   3.9960014
 114.4939992 118.7479978   4.9280014 115.1798640 118.3705511   4.5477969
 125.3809992 121.7559978  14.6530014 125.7039992 121.1249978  14.0100014
 124.9399992 121.2219978  15.3140014 125.3656379 121.5973468  14.6542582
 122.1579992 117.6839978   9.4370014 121.2469992 117.7409978   9.7260014
 122.6629992 117.6239978  10.2480014 122.1016873 117.6836826   9.5861207
 116.9859992 119.3129978   8.2640014 116.0969992 119.4119978   7.9240014
 117.2829992 118.4709978   7.9180014 116.9044177 119.2127687   8.1706940
 120.6389992 119.3129978   5.9210014 121.5709992 119.4419978   6.0990014
 120.4239992 119.9819978   5.2710014 120.7374472 119.4210806   5.8574891
 126.5629992 116.9189978  12.7020014 125.8859992 117.0499978  13.3650014
 126.0779992 116.7639978  11.8910014 126.4047405 116.9159947  12.6832170
 119.3129992 120.5069978   3.4870014 118.7709992 120.1279978   2.7960014
 120.1469992 120.7019978   3.0590014 119.3514390 120.4814079   3.3344392
 129.8509992 132.5899978  18.9780014 130.0499992 133.0139978  18.1440014
 130.5059992 132.9339978  19.5850014 129.9668522 132.6946301  18.9457852
 117.4489992 125.0639978  18.5860014 118.1809992 125.3189978  19.1480014
 116.6679992 125.2689978  19.1020014 117.4436526 125.1265450  18.7325176
 123.4779992 120.4709978  11.3240014 124.0419992 119.9249978  10.7770014
 123.3299992 119.9499978  12.1130014 123.5353037 120.3256787  11.3557229
 118.4799992 116.6079978   7.7430014 118.1629992 115.7049978   7.7070014
 119.2609992 116.6099978   7.1900014 118.5422431 116.4847797   7.6633102
 122.1039992 118.8599978  13.7380014 121.2689992 119.3139978  13.8490014
 122.6279992 119.1359978  14.4900014 122.0606072 118.9593948  13.8548136
 122.6489992 125.0729978   5.4230014 121.9039992 124.5649978   5.1010014
 122.5139992 125.1219978   6.3690014 122.5288963 125.0101731   5.5068826
 129.7989992 124.2059978  14.2100014 130.4399992 124.6619978  13.6660014
 128.9679992 124.3189978  13.7470014 129.7745287 124.2836921  14.0729887
 126.5459992 117.8869978   3.6220014 125.6079992 117.9979978   3.4710014
 126.8439992 118.7429978   3.9290014 126.4576318 118.0180158   3.6428145
 124.1679992 125.2569978  16.6600014 123.8219992 124.8749978  17.4670014
 123.9679992 126.1899978  16.7310014 124.0935987 125.3309002  16.7800461
 127.2649992 119.7539978   5.2830014 128.1569992 119.6159978   5.6020014
 127.3209992 120.5449978   4.7460014 127.3947325 119.8419918   5.2541217
 117.7729992 124.3679978  11.1930014 118.5179992 124.3649978  10.5910014
 117.8509992 123.5439978  11.6740014 117.8853365 124.2562384  11.1757430
 124.7739992 126.5309978   4.4480014 124.4789992 127.3579978   4.8300014
 124.0709992 125.9119978   4.6450014 124.6386379 126.5604171   4.5268654
 114.7809992 122.8279978  16.5080014 115.0039992 122.4099978  17.3390014
 114.1789992 122.2159978  16.0850014 114.7301513 122.6879606  16.5646740
 121.7979992 122.3449978  18.7210014 121.5019992 122.1799978  17.8250014
 122.7289992 122.1249978  18.7100014 121.8834401 122.2926879  18.5970206
 126.4179992 127.7189978  16.6100014 125.5179992 127.9019978  16.3430014
 126.4519992 127.9779978  17.5310014 126.2993748 127.7790554  16.6979164
 132.1499992 119.9629978   4.9780014 131.5949992 119.5669978   4.3050014
 132.2499992 120.8739978   4.7000014 132.0876816 120.0319505   4.8485033
 132.1129992 125.7639978  17.8150014 131.2619992 126.0019978  17.4470014
 132.7029992 125.7469978  17.0620014 132.0763812 125.7942524  17.6628453
 130.4449992 128.7489978   5.4430014 130.0719992 127.9239978   5.7520014
 130.7219992 128.5659978   4.5450014 130.4313463 128.6112569   5.3639525
 127.6049992 123.5569978  12.4640014 126.6769992 123.3259978  12.4370014
 128.0559992 122.7799978  12.1340014 127.5388165 123.4202774  12.4156790
 120.1479992 127.8859978   8.5970014 120.6759992 128.6589978   8.3970014
 119.2679992 128.1099978   8.2950014 120.1013435 128.0222700   8.5287310
 115.9029992 122.7479978   3.1840014 116.5189992 123.3749978   3.5640014
 115.0409992 123.0639978   3.4560014 115.8707678 122.8764412   3.2727209
 121.5759992 125.5489978   8.1730014 121.3349992 126.4739978   8.2150014
 120.8349992 125.0899978   8.5700014 121.4429206 125.6135915   8.2323769
 122.0899992 129.6979978  14.4880014 122.4529992 130.5519978  14.2550014
 122.6219992 129.4059978  15.2290014 122.2115141 129.7753895  14.5562097
 120.2589992 130.5699978   7.7190014 119.3089992 130.6759978   7.7700014
 120.6109992 131.3909978   8.0630014 120.1765472 130.6954923   7.7724852
 125.6339992 125.7969978  14.1890014 125.2089992 125.5689978  15.0150014
 126.2149992 125.0579978  14.0070014 125.6543395 125.6659545  14.2774414
 127.8369992 126.7259978   3.2630014 128.1909992 126.3459978   4.0670014
 126.8889992 126.6319978   3.3500014 127.7572298 126.6612452   3.3848687
 128.2929992 130.3489978  16.6580014 127.6909992 129.7929978  16.1630014
 128.5739992 131.0159978  16.0320014 128.2485757 130.3630744  16.5055675
 132.3409992 131.2049978   3.4640014 133.0849992 131.7909978   3.3240014
 131.6469992 131.7739978   3.7970014 132.3489809 131.3620818   3.4898590
 116.4149992 117.5819978  16.0660014 115.5229992 117.9199978  15.9980014
 116.3169992 116.7259978  16.4840014 116.2794475 117.5126543  16.1131704
 128.7029992 125.3979978   5.4900014 128.4259992 124.6699978   6.0460014
 129.6309992 125.5169978   5.6950014 128.7904499 125.3144213   5.5938044
 116.0669992 129.3859978  14.5010014 116.2839992 128.4539978  14.4700014
 116.3129992 129.6609978  15.3840014 116.1299809 129.2955686  14.6161691
 121.9279992 127.8379978   1.7100014 122.1669992 127.0889978   1.1630014
 121.6589992 127.4499978   2.5430014 121.9243233 127.6831853   1.7477809
 120.8649992 127.4079978   4.1660014 121.0119992 126.8879978   4.9560014
 120.8619992 128.3149978   4.4730014 120.8847102 127.4593953   4.3155925
 117.3179992 124.6599978   4.6770014 116.6319992 125.0129978   5.2440014
 117.8409992 125.4229978   4.4300014 117.2948402 124.8113901   4.7211801
 125.1499992 117.3229978  14.9560014 125.8489992 117.3969978  15.6060014
 124.7689992 116.4579978  15.1100014 125.1942097 117.2162389  15.0657997
 125.9339992 116.9749978   6.0530014 126.1539992 117.4459978   5.2490014
 126.4929992 117.3689978   6.7230014 126.0396731 117.0927287   6.0335033
 123.6029992 129.1049978   4.9160014 122.7859992 129.6019978   4.9680014
 124.1319992 129.5809978   4.2750014 123.5628125 129.2371989   4.8365306
 123.1339992 118.7029978   6.8880014 123.9459992 119.2069978   6.9340014
 122.8899992 118.5579978   7.8020014 123.2121467 118.7523749   7.0178575
 123.6699992 119.6889978  16.0720014 123.7889992 120.2629978  16.8290014
 124.3249992 119.0009978  16.1870014 123.7748684 119.6745194  16.1911674
 124.0179992 115.7839978   7.8260014 123.6709992 116.4009978   8.4700014
 124.6769992 116.2849978   7.3440014 124.0595090 115.9361575   7.8490681
 120.9409992 130.1489978   4.8970014 121.1019992 130.9489978   4.3970014
 120.7439992 130.4559978   5.7820014 120.9363906 130.2998678   4.9482333
 119.6759992 116.8469978   4.5130014 119.5919992 117.7349978   4.8600014
 120.5659992 116.5819978   4.7450014 119.7848163 116.9327179   4.5918596
 129.8739992 117.5959978  16.9070014 128.9579992 117.8579978  16.8200014
 130.2099992 117.5929978  16.0110014 129.7938499 117.6315163  16.7738766
 128.4769992 121.3459978  11.0030014 127.6789992 120.9309978  10.6750014
 128.9219992 120.6559978  11.4940014 128.4279684 121.1958628  11.0245227
 117.9339992 127.2739978   3.5730014 118.5259992 127.9739978   3.8500014
 118.3929992 126.8409978   2.8540014 118.0771652 127.3112675   3.5136533
 116.2499992 119.9389978   2.6890014 116.2049992 120.8779978   2.8680014
 115.3619992 119.7029978   2.4200014 116.1238166 120.0356687   2.6771524
 129.5629992 130.6019978  12.6250014 129.4069992 131.2809978  11.9680014
 130.4959992 130.6739978  12.8280014 129.6677387 130.7046390  12.5625342
 117.0579992 114.7199978  11.3630014 116.8289992 114.7789978  10.4350014
 116.6159992 113.9289978  11.6690014 116.9668801 114.6210540  11.2774729
 115.9889992 128.6609978   7.5230014 115.1559992 129.1329978   7.5500014
 116.5339992 129.1709978   6.9240014 115.9487857 128.7944791   7.4457142
 115.2769992 131.2729978  18.8530014 115.8169992 131.0569978  19.6130014
 114.7959992 130.4679978  18.6630014 115.2859219 131.1345156  18.9314282
 119.8739992 130.1929978  20.4730014 120.6419992 129.7339978  20.8140014
 119.8529992 129.9669978  19.5430014 119.9762135 130.0996668  20.3939491
 123.9659992 129.7009978   1.8490014 123.3219992 129.0699978   2.1700014
 124.7279992 129.1699978   1.6170014 123.9808058 129.5427902   1.8616038
 126.4509992 128.5729978  19.2020014 126.0999992 127.7159978  19.4460014
 127.1769992 128.7149978  19.8090014 126.5011895 128.4751351  19.3173770
 128.5709992 129.5179978   2.0820014 128.8539992 128.7229978   2.5350014
 129.3099992 129.7509978   1.5210014 128.7097096 129.4407049   2.0681104
 115.1839992 125.0839978  19.8070014 115.3279992 124.1819978  19.5210014
 114.4119992 125.3699978  19.3200014 115.0992733 124.9991798  19.7019532
 119.5249992 125.4269978   1.9400014 119.5899992 124.6329978   2.4700014
 120.1779992 125.3089978   1.2500014 119.6221605 125.3023430   1.9192997
 121.8389992 125.0529978  19.2400014 121.5109992 125.3239978  18.3830014
 121.9909992 124.1119978  19.1520014 121.8146412 124.9629046  19.1107822
 124.8779992 126.4739978   1.6760014 124.6089992 126.6549978   2.5760014
 124.6709992 125.5489978   1.5440014 124.8131191 126.3737119   1.7815524
 127.5739992 124.9689978  16.6230014 128.3189992 125.5579978  16.5040014
 126.8169992 125.5509978  16.6870014 127.5735470 125.1282128  16.6153799
 116.0169992 122.2839978  19.2270014 116.4249992 121.4269978  19.1060014
 115.7559992 122.2979978  20.1480014 116.0376016 122.1685119  19.3349192
 120.6749992 123.3999978   4.2460014 120.2149992 122.9159978   4.9310014
 120.9299992 122.7309978   3.6100014 120.6464856 123.2433669   4.2538397
 119.9639992 121.2929978  16.6020014 119.3449992 121.9669978  16.8820014
 120.3079992 121.6139978  15.7680014 119.9257123 121.4286887  16.5276388
 121.7459992 121.6429978   2.5080014 121.5649992 121.4879978   1.5810014
 122.6959992 121.7509978   2.5530014 121.8496566 121.6363669   2.3870929
 124.9829992 123.7639978  19.8790014 125.9369992 123.8479978  19.8520014
 124.8229992 123.0519978  20.4990014 125.0917182 123.6792842  19.9590733
 131.1359992 123.9969978   1.9540014 130.8619992 123.5729978   1.1410014
 131.1749992 124.9289978   1.7370014 131.1037716 124.0648827   1.8134286
 120.3029992 118.6479978  17.6840014 120.4529992 117.9189978  17.0820014
 120.3049992 119.4249978  17.1250014 120.3237967 118.6532708  17.5260541
 120.7159992 117.0169978  15.1770014 121.2509992 117.4689978  14.5250014
 119.8629992 116.9089978  14.7540014 120.6740374 117.0642665  15.0306710
 122.2969992 122.4569978  15.4160014 123.0479992 122.3009978  14.8430014
 121.9579992 123.3089978  15.1410014 122.3539587 122.5508138  15.3004078
 126.7129992 120.2719978  20.4450014 126.9049992 119.3409978  20.3330014
 127.5709992 120.6969978  20.4340014 126.8552182 120.2020070  20.4281862
 128.0299992 123.0609978  18.5220014 127.7479992 123.7699978  17.9440014
 128.9719992 122.9879978  18.3710014 128.1187921 123.1482193  18.4224225
 118.7819992 119.8459978  19.5950014 118.0139992 119.3129978  19.3850014
 119.4599992 119.5359978  18.9960014 118.7687235 119.7311754  19.4852413
 121.5209992 114.4739978  15.6080014 121.4229992 115.4199978  15.5030014
 120.7789992 114.1009978  15.1320014 121.4072534 114.5531773  15.5292600
 122.7849992 118.7949978  19.1720014 122.5499992 118.5759978  20.0730014
 122.0019992 118.5879978  18.6620014 122.6469095 118.7369892  19.2265353
 125.5009992 117.9229978  18.2470014 124.5529992 117.9549978  18.3790014
 125.8129992 117.2969978  18.9010014 125.4135293 117.8427923  18.3534148
 127.1349992 116.5569978  20.2520014 127.0379992 115.6049978  20.2470014
 126.8129992 116.8249978  21.1130014 127.0782468 116.4630884  20.3676210
 116.9619992 117.7659978  19.3000014 117.1739992 117.0599978  18.6900014
 116.8509992 117.3289978  20.1440014 116.9760269 117.6101921  19.3305873
 121.7429992 113.7679978  18.2790014 122.4549992 113.1279978  18.2650014
 121.6419992 114.0339978  17.3660014 121.8267387 113.7164330  18.1535563
 122.0969992 115.4499978  20.3330014 121.9649992 114.9749978  19.5130014
 121.4969992 116.1949978  20.2780014 121.9979070 115.4855789  20.2133251
 121.6429992 132.3329978   3.5090014 122.5759992 132.4909978   3.6530014
 121.3789992 133.0089978   2.8840014 121.7349911 132.4459373   3.4442722
 115.2109992 126.9699978   2.9920014 116.1249992 127.0489978   3.2650014
 115.2189992 126.2829978   2.3260014 115.3370655 126.8879205   2.9392917
 113.8599992 132.3629978   8.0690014 113.2129992 131.9009978   7.5370014
 114.2149992 131.6909978   8.6520014 113.8193741 132.2089774   8.0749175
 114.7299992 130.4429978   9.8740014 114.3959992 129.5629978  10.0460014
 114.9529992 130.7889978  10.7390014 114.7143721 130.3691938  10.0144168
 132.2789992 131.2529978  12.8550014 132.2569992 131.4379978  13.7940014
 132.9689992 131.8209978  12.5140014 132.3693439 131.3551887  12.9374791
 131.8419992 130.8199978  15.7760014 131.3549992 130.0849978  15.4050014
 132.3909992 130.4259978  16.4540014 131.8495247 130.6661057  15.8168461
 130.2929992 126.6099978  20.4150014 129.4269992 126.5049978  20.8090014
 130.6689992 127.3679978  20.8610014 130.2253401 126.6981708  20.5292620
 131.5939992 124.8659978   5.9290014 132.4439992 125.2869978   6.0560014
 131.5989992 124.1259978   6.5360014 131.7111143 124.8236094   6.0284750
 131.9879992 122.9199978   7.7520014 131.2619992 122.4399978   8.1500014
 132.5699992 123.1249978   8.4850014 131.9672730 122.8820184   7.9054149
 131.7469992 125.7049978  12.7000014 132.5809992 125.3269978  12.4190014
 131.8589992 126.6479978  12.5810014 131.8761917 125.7807943  12.6454861
 130.2339992 128.5829978  15.0070014 129.5859992 128.9079978  15.6320014
 129.7159992 128.1419978  14.3330014 130.0754196 128.5678651  15.0014152
 132.2569992 122.8209978   4.1430014 131.7349992 123.1769978   3.4250014
 132.2239992 123.4959978   4.8220014 132.1810129 122.9609598   4.1363355
 130.6059992 120.0599978   2.6940014 130.7019992 120.7269978   2.0140014
 130.4659992 119.2449978   2.2130014 130.6002040 120.0410671   2.5358378
 129.7749992 121.4409978   8.3150014 129.6249992 120.4959978   8.2950014
 129.4209992 121.7219978   9.1590014 129.7066351 121.3496644   8.4263220
 114.8099992 123.5189978  12.3260014 114.9949992 123.4369978  11.3900014
 115.6599992 123.3949978  12.7490014 114.9500928 123.4910463  12.2552893
 130.6309992 123.4109978  17.9540014 131.2139992 122.6759978  18.1460014
 131.1949992 124.1829978  18.0010014 130.7869781 123.4148145  17.9866164
 132.1279992 121.3139978  18.6390014 131.2649992 120.9349978  18.4730014
 132.7319992 120.5749978  18.5640014 132.0916085 121.1623223  18.6061695
 129.8529992 117.4679978   1.8120014 130.4639992 117.0969978   2.4490014
 129.0159992 117.0469978   2.0080014 129.8234947 117.3602756   1.9257252
 129.4859992 119.0229978   6.7780014 129.7649992 118.1159978   6.9020014
 130.2449992 119.4569978   6.3890014 129.6268619 118.9574502   6.7423795
 130.0969992 119.6049978  12.2140014 131.0299992 119.8169978  12.1790014
 129.8619992 119.7059978  13.1360014 130.1929517 119.6476833  12.3339130
 130.1269992 120.3419978  14.9900014 129.2839992 120.6099978  15.3560014
 130.5689992 121.1639978  14.7790014 130.0714138 120.4898273  15.0115518
 114.4079992 118.7889978  18.4660014 115.3269992 118.6669978  18.7030014
 113.9579992 118.0389978  18.8560014 114.4730087 118.6709608  18.5511410
 132.4099992 114.3219978  20.3430014 132.7589992 113.6679978  19.7380014
 132.5569992 115.1589978  19.9030014 132.4776824 114.3456024  20.2006304
 130.0989992 116.2859978   6.8260014 130.2809992 115.8369978   7.6510014
 129.4989992 115.7019978   6.3620014 130.0428187 116.1455552   6.8762739
 115.6289992 117.1019978  11.3580014 116.0739992 116.3099978  11.6600014
 116.0949992 117.8179978  11.7880014 115.7529718 117.0904534  11.4575265
 113.9329992 120.1009978  12.4270014 114.4249992 119.8799978  11.6360014
 114.2949992 120.9409978  12.7080014 114.0492923 120.1843468  12.3567407
 131.9289992 116.4309978  18.6920014 131.0119992 116.7019978  18.6570014
 132.0519992 115.8959978  17.9080014 131.8199672 116.3957885  18.5811862
 131.9659992 116.3539978   3.3540014 132.3779992 115.6329978   2.8790014
 132.6469992 117.0229978   3.4120014 132.1145536 116.3457766   3.2968024
 114.2469992 116.3589978   6.4810014 113.3219992 116.5669978   6.3520014
 114.7009992 116.8429978   5.7910014 114.1816298 116.4529299   6.3700451
 129.0169992 131.3429978   8.4270014 129.6699992 130.9949978   7.8190014
 129.5279992 131.8309978   9.0730014 129.1752777 131.3613815   8.4312047
 114.2099992 115.0969978  14.8250014 113.5449992 114.8509978  15.4680014
 113.7669992 115.7189978  14.2480014 114.0591168 115.1474214  14.8349848
 116.4019992 128.2719978  18.9700014 115.5809992 128.4469978  18.5090014
 116.1499992 128.1989978  19.8900014 116.2555594 128.2860717  19.0313611
 119.3559992 129.2459978  15.2280014 118.9319992 130.0559978  14.9460014
 120.2609992 129.3319978  14.9260014 119.4202138 129.3684160  15.1486415
 123.6679992 130.6449978  18.1880014 123.8519992 130.3119978  19.0660014
 124.5139992 130.9549978  17.8660014 123.8076484 130.6412979  18.2647617
 126.0129992 131.9309978  17.4320014 126.6899992 131.2979978  17.1920014
 126.3339992 132.3319978  18.2390014 126.1491323 131.8985691  17.5083158
 130.9299992 114.5209978  16.5110014 130.1169992 114.8459978  16.1240014
 131.1629992 113.7599978  15.9780014 130.8501347 114.4626880  16.3859841
 116.7579992 132.5029978  15.2760014 116.0379992 132.9429978  14.8250014
 116.3929992 132.2519978  16.1240014 116.6099643 132.5293369  15.3289129
 119.2249992 132.1029978  14.3060014 118.3609992 132.1749978  14.7100014
 119.1699992 132.6499978  13.5220014 119.0991942 132.1867849  14.2554000
 123.9359992 131.9909978  13.4810014 123.4789992 132.5199978  12.8270014
 124.0989992 132.5939978  14.2060014 123.8954960 132.1449280  13.4895274
 126.2639992 130.8689978  14.4260014 125.3589992 131.0339978  14.1600014
 126.6919992 131.7219978  14.3600014 126.1981537 131.0069134  14.3807095
 128.8679992 132.4389978  14.7210014 128.6859992 133.3549978  14.5100014
 129.0449992 132.0279978  13.8740014 128.8670030 132.5088273  14.5777166
 116.1729992 131.1259978  12.1860014 116.1549992 130.6999978  13.0430014
 116.9779992 130.8069978  11.7770014 116.2792875 131.0246435  12.2479515
 118.3139992 129.8359978  10.8410014 118.0949992 128.9189978  11.0110014
 119.1379992 129.9759978  11.3070014 118.3954702 129.7295511  10.9272527
 120.8509992 130.3059978  11.6900014 121.0639992 129.4179978  11.4030014
 120.9159992 130.2709978  12.6440014 120.8889149 130.1798326  11.7797369
 124.3599992 115.9699978  10.8340014 123.6859992 115.3399978  11.0900014
 124.9239992 115.4859978  10.2310014 124.3440384 115.8183708  10.7875020
 129.5029992 114.0769978  10.9470014 130.1059992 114.6249978  10.4450014
 128.6329992 114.3959978  10.7060014 129.4679157 114.1950373  10.8457910
 131.2299992 115.2159978   9.2800014 131.8409992 114.7019978   8.7530014
 131.6119992 116.0929978   9.3030014 131.3653305 115.2642050   9.2109418
 116.6869992 114.6039978   8.6560014 115.9099992 114.3689978   8.1490014
 117.2169992 113.8069978   8.6650014 116.6523451 114.4641268   8.5878627
 115.5229992 114.4019978   4.4600014 115.9619992 115.0129978   3.8680014
 114.8889992 114.9399978   4.9340014 115.4973859 114.5584064   4.4430305
 121.2659992 114.5299978   8.4690014 122.1399992 114.9189978   8.4400014
 121.1299992 114.3149978   9.3920014 121.3671953 114.5541643   8.5897617
 126.8229992 114.5599978  10.1190014 126.8989992 114.6559978   9.1690014
 126.5479992 113.6529978  10.2470014 126.7961871 114.4504146  10.0063944
 128.1759992 114.5859978   5.8110014 127.4729992 115.2009978   5.6010014
 127.7309992 113.7489978   5.9420014 128.0196550 114.5569668   5.7999837
 115.4239992 130.3499978   5.3570014 114.7389992 130.3119978   4.6900014
 115.4279992 131.2629978   5.6450014 115.3307621 130.4681924   5.3046126
 117.3839992 116.3179978   2.9020014 117.8749992 115.6879978   2.3750014
 118.0069992 116.6139978   3.5650014 117.5355304 116.2717376   2.9194940
 122.4099992 116.6109978   5.3590014 122.5879992 115.9639978   6.0420014
 122.3559992 117.4449978   5.8260014 122.4270678 116.6351604   5.5156301
 124.2879992 131.5589978   3.7550014 125.1539992 131.9259978   3.5770014
 124.0419992 131.1199978   2.9410014 124.3732097 131.5498525   3.6206019
 130.9969992 131.1219978   6.4340014 130.8029992 130.3739978   5.8690014
 130.9579992 131.8799978   5.8510014 130.9651645 131.1220786   6.2778148
 116.6439992 115.1179978  18.1740014 116.2779992 114.3519978  18.6160014
 117.5569992 115.1469978  18.4600014 116.7173172 115.0170324  18.2731890
 118.6169992 114.4679978  19.7090014 119.5159992 114.1939978  19.5250014
 118.2309992 113.7259978  20.1740014 118.6877307 114.3302196  19.7467098
 117.2419992 131.2699978   2.3820014 116.9739992 131.5559978   3.2560014
 118.0129992 130.7239978   2.5350014 117.3095926 131.2352779   2.5221205
 127.0389992 113.8009978  19.8920014 127.1149992 113.3749978  20.7450014
 127.9319992 113.8139978  19.5490014 127.1702303 113.7443493  19.9625497
 130.2149992 129.8739978  18.5840014 129.4329992 129.6869978  18.0640014
 130.1429992 130.8029978  18.8010014 130.0981924 129.9740637  18.5421602
 144.6209992 123.7599978   8.6150014 144.7099992 124.7039978   8.4830014
 143.9829992 123.4849978   7.9570014 144.5469061 123.8519812   8.5079641
 143.5539992 123.0149978  12.0340014 143.5159992 122.3689978  12.7390014
 143.2319992 122.5479978  11.2630014 143.5052679 122.8634276  12.0262921
 135.9219992 122.6289978  13.6270014 135.9639992 122.0039978  14.3500014
 136.6249992 123.2529978  13.8090014 136.0227345 122.6277873  13.7505274
 136.8459992 127.0789978  12.1620014 136.4759992 126.2769978  11.7920014
 137.7869992 126.9109978  12.2080014 136.9225984 126.9464638  12.1175603
 133.4559992 120.7389978   7.5540014 133.0079992 121.5849978   7.5360014
 132.8949992 120.1599978   7.0390014 133.3188546 120.7763993   7.4818891
 134.1659992 122.9009978   9.6800014 134.3799992 122.1309978  10.2080014
 134.9039992 122.9909978   9.0770014 134.2950200 122.8078586   9.6707035
 144.3719992 131.0579978  10.5470014 144.9909992 130.3819978  10.2740014
 144.1629992 130.8399978  11.4560014 144.4286056 130.9358869  10.6323967
 141.9429992 125.4469978  12.4400014 142.2469992 124.7609978  11.8450014
 142.6649992 125.5659978  13.0580014 142.0821240 125.3692314  12.4420959
 145.0839992 119.8409978  12.7670014 145.2269992 118.8949978  12.7870014
 144.9779992 120.0479978  11.8390014 145.0892403 119.7394797  12.6442239
 138.2389992 117.9429978  10.0400014 138.2819992 118.8029978   9.6210014
 137.7809992 117.3909978   9.4060014 138.1829871 117.9859245   9.8970761
 134.8589992 120.3399978  10.8020014 135.5129992 119.7899978  11.2340014
 134.8829992 120.0659978   9.8850014 134.9517199 120.2277167  10.7371668
 140.0159992 121.8899978  10.0170014 140.6319992 121.3629978  10.5260014
 139.4289992 121.2499978   9.6130014 140.0210154 121.7313954  10.0320945
 137.0489992 116.8609978  14.1140014 136.8299992 117.3909978  13.3470014
 136.3809992 117.0869978  14.7610014 136.9286975 116.9640967  14.0965140
 144.4179992 126.3609978   7.6580014 144.1229992 126.0379978   6.8060014
 144.0939992 127.2609978   7.6990014 144.3338460 126.4384464   7.5469714
 139.6179992 124.5359978  14.4010014 138.8779992 125.1349978  14.5050014
 140.3319992 125.0899978  14.0860014 139.6133500 124.6927829  14.3726371
 136.6429992 118.7529978  12.0660014 137.2569992 119.3859978  12.4390014
 137.1549992 118.2809978  11.4100014 136.7961962 118.7757249  12.0282935
 138.0259992 126.5009978  15.1880014 138.0199992 127.3799978  14.8100014
 137.1719992 126.4169978  15.6130014 137.9097925 126.6099535  15.1936887
 134.1469992 126.1719978   5.9700014 133.8749992 126.4009978   5.0820014
 134.1919992 127.0089978   6.4310014 134.1158097 126.3166163   5.9106683
 141.0759992 114.1659978  11.5660014 140.9579992 113.2179978  11.5120014
 140.2209992 114.4989978  11.8390014 140.9442805 114.0812202  11.5955079
 143.3419992 123.0039978   6.0670014 142.6309992 123.5389978   5.7150014
 144.0329992 123.0589978   5.4070014 143.3380751 123.0846777   5.9295858
 143.3959992 121.4609978   3.1050014 144.0969992 121.4839978   3.7570014
 143.6979992 120.8329978   2.4490014 143.5328202 121.3792212   3.1055609
 138.3929992 123.8439978   8.9010014 138.0629992 123.4729978   8.0830014
 138.9819992 123.1729978   9.2480014 138.4273970 123.7026063   8.8359404
 139.7599992 127.2719978  11.5820014 139.6649992 126.6929978  10.8260014
 140.4889992 126.9009978  12.0780014 139.8456011 127.1425561  11.5456028
 138.7599992 122.6119978  12.5340014 139.3249992 122.7339978  11.7720014
 139.0789992 123.2499978  13.1730014 138.8804166 122.7148791  12.5160348
 145.0689992 128.1159978  13.2680014 144.8289992 128.7779978  13.9160014
 144.8709992 127.2809978  13.6930014 145.0093826 128.0938115  13.4141566
 139.6399992 127.0119978  17.2520014 139.3289992 127.7939978  17.7070014
 138.9899992 126.8589978  16.5660014 139.5095538 127.0984087  17.2215898
 136.5599992 123.2099978  16.4800014 136.6299992 123.8609978  17.1790014
 135.6689992 123.3129978  16.1450014 136.4491690 123.3129249  16.5303043
 143.3449992 129.1119978   8.1390014 143.8189992 129.4079978   8.9160014
 142.7819992 129.8509978   7.9060014 143.3337890 129.2523036   8.2138101
 137.8789992 129.0829978  18.0150014 137.8869992 128.9469978  17.0680014
 136.9629992 128.9659978  18.2670014 137.7562528 129.0485463  17.9193243
 137.3839992 122.9129978   6.4900014 137.0919992 123.6809978   5.9990014
 136.7089992 122.2539978   6.3270014 137.2528497 122.9289745   6.4008260
 133.4769992 125.2759978  15.3050014 132.9749992 125.2479978  14.4900014
 133.4819992 124.3709978  15.6150014 133.4089832 125.1497486  15.2354121
 133.2269992 128.0569978  12.1890014 134.1729992 127.9119978  12.1700014
 133.1139992 128.8409978  12.7260014 133.3413578 128.1431697  12.2590317
 142.4029992 128.2969978  16.7480014 142.4909992 129.1229978  17.2230014
 141.5399992 127.9669978  16.9970014 142.2983357 128.3655468  16.8467653
 142.8179992 132.0689978   6.5540014 142.7419992 131.9479978   5.6070014
 142.8499992 133.0179978   6.6720014 142.8119380 132.1807677   6.4405181
 136.4709992 130.8579978   8.3350014 136.6229992 130.5099978   9.2130014
 135.6199992 130.5009978   8.0790014 136.3768344 130.7620879   8.4206868
 135.7259992 126.5999978  16.3480014 135.9419992 126.2379978  17.2080014
 134.8699992 126.2249978  16.1390014 135.6398810 126.4998837  16.4372680
 138.3439992 115.0699978  12.3440014 137.4829992 114.9829978  11.9360014
 138.3219992 115.9259978  12.7720014 138.2230491 115.1738003  12.3459582
 143.0069992 114.7919978  15.7190014 143.4269992 114.3769978  16.4720014
 142.0739992 114.6129978  15.8360014 142.9383736 114.7109910  15.8378968
 142.6689992 117.2839978   3.0040014 142.4149992 117.3029978   3.9260014
 142.4119992 116.4129978   2.7020014 142.5994508 117.1688280   3.0894803
 138.4349992 120.0349978  13.4390014 137.7939992 119.9949978  14.1480014
 138.4729992 120.9619978  13.2010014 138.3523010 120.1547668  13.5039946
 138.4319992 120.2559978   8.3510014 137.5399992 119.9159978   8.2920014
 138.8829992 119.8789978   7.5950014 138.3707642 120.1584910   8.2407726
 143.9679992 120.6719978   7.1680014 143.5589992 121.4869978   6.8760014
 144.6879992 120.5319978   6.5540014 144.0094439 120.7645372   7.0450115
 143.0699992 120.8479978  18.6560014 142.5069992 120.1429978  18.9770014
 143.8959992 120.7269978  19.1240014 143.1046674 120.7352165  18.7631751
 144.9729992 120.1179978   9.9820014 144.7769992 120.7239978   9.2670014
 145.1539992 119.2849978   9.5480014 144.9706584 120.0882513   9.8254212
 136.1849992 120.3559978  15.3060014 136.1469992 120.7559978  16.1750014
 135.6949992 119.5389978  15.3960014 136.1135330 120.3002674  15.4371289
 139.5509992 117.7299978   2.1050014 139.1199992 117.2849978   2.8340014
 138.8329992 118.1009978   1.5920014 139.3949176 117.7192051   2.1354930
 132.7939992 117.4719978   9.1570014 133.4239992 117.4429978   9.8760014
 133.2429992 117.0469978   8.4260014 132.9410835 117.4105660   9.1567659
 134.0679992 118.2179978   4.5810014 134.5419992 118.8089978   3.9960014
 133.3499992 118.7479978   4.9280014 134.0358640 118.3705511   4.5477969
 144.2369992 121.7559978  14.6530014 144.5599992 121.1249978  14.0100014
 143.7959992 121.2219978  15.3140014 144.2216379 121.5973468  14.6542582
 141.0139992 117.6839978   9.4370014 140.1029992 117.7409978   9.7260014
 141.5189992 117.6239978  10.2480014 140.9576873 117.6836826   9.5861207
 135.8419992 119.3129978   8.2640014 134.9529992 119.4119978   7.9240014
 136.1389992 118.4709978   7.9180014 135.7604177 119.2127687   8.1706940
 139.4949992 119.3129978   5.9210014 140.4269992 119.4419978   6.0990014
 139.2799992 119.9819978   5.2710014 139.5934472 119.4210806   5.8574891
 145.4189992 116.9189978  12.7020014 144.7419992 117.0499978  13.3650014
 144.9339992 116.7639978  11.8910014 145.2607405 116.9159947  12.6832170
 138.1689992 120.5069978   3.4870014 137.6269992 120.1279978   2.7960014
 139.0029992 120.7019978   3.0590014 138.2074390 120.4814079   3.3344392
 136.3049992 125.0639978  18.5860014 137.0369992 125.3189978  19.1480014
 135.5239992 125.2689978  19.1020014 136.2996526 125.1265450  18.7325176
 142.3339992 120.4709978  11.3240014 142.8979992 119.9249978  10.7770014
 142.1859992 119.9499978  12.1130014 142.3913037 120.3256787  11.3557229
 137.3359992 116.6079978   7.7430014 137.0189992 115.7049978   7.7070014
 138.1169992 116.6099978   7.1900014 137.3982431 116.4847797   7.6633102
 140.9599992 118.8599978  13.7380014 140.1249992 119.3139978  13.8490014
 141.4839992 119.1359978  14.4900014 140.9166072 118.9593948  13.8548136
 141.5049992 125.0729978   5.4230014 140.7599992 124.5649978   5.1010014
 141.3699992 125.1219978   6.3690014 141.3848963 125.0101731   5.5068826
 145.4019992 117.8869978   3.6220014 144.4639992 117.9979978   3.4710014
 145.6999992 118.7429978   3.9290014 145.3136318 118.0180158   3.6428145
 143.0239992 125.2569978  16.6600014 142.6779992 124.8749978  17.4670014
 142.8239992 126.1899978  16.7310014 142.9495987 125.3309002  16.7800461
 136.6289992 124.3679978  11.1930014 137.3739992 124.3649978  10.5910014
 136.7069992 123.5439978  11.6740014 136.7413365 124.2562384  11.1757430
 143.6299992 126.5309978   4.4480014 143.3349992 127.3579978   4.8300014
 142.9269992 125.9119978   4.6450014 143.4946379 126.5604171   4.5268654
 133.6369992 122.8279978  16.5080014 133.8599992 122.4099978  17.3390014
 133.0349992 122.2159978  16.0850014 133.5861513 122.6879606  16.5646740
 140.6539992 122.3449978  18.7210014 140.3579992 122.1799978  17.8250014
 141.5849992 122.1249978  18.7100014 140.7394401 122.2926879  18.5970206
 145.2739992 127.7189978  16.6100014 144.3739992 127.9019978  16.3430014
 145.3079992 127.9779978  17.5310014 145.1553748 127.7790554  16.6979164
 139.0039992 127.8859978   8.5970014 139.5319992 128.6589978   8.3970014
 138.1239992 128.1099978   8.2950014 138.9573435 128.0222700   8.5287310
 134.7589992 122.7479978   3.1840014 135.3749992 123.3749978   3.5640014
 133.8969992 123.0639978   3.4560014 134.7267678 122.8764412   3.2727209
 140.4319992 125.5489978   8.1730014 140.1909992 126.4739978   8.2150014
 139.6909992 125.0899978   8.5700014 140.2989206 125.6135915   8.2323769
 140.9459992 129.6979978  14.4880014 141.3089992 130.5519978  14.2550014
 141.4779992 129.4059978  15.2290014 141.0675141 129.7753895  14.5562097
 139.1149992 130.5699978   7.7190014 138.1649992 130.6759978   7.7700014
 139.4669992 131.3909978   8.0630014 139.0325472 130.6954923   7.7724852
 144.4899992 125.7969978  14.1890014 144.0649992 125.5689978  15.0150014
 145.0709992 125.0579978  14.0070014 144.5103395 125.6659545  14.2774414
 135.2709992 117.5819978  16.0660014 134.3789992 117.9199978  15.9980014
 135.1729992 116.7259978  16.4840014 135.1354475 117.5126543  16.1131704
 134.9229992 129.3859978  14.5010014 135.1399992 128.4539978  14.4700014
 135.1689992 129.6609978  15.3840014 134.9859809 129.2955686  14.6161691
 140.7839992 127.8379978   1.7100014 141.0229992 127.0889978   1.1630014
 140.5149992 127.4499978   2.5430014 140.7803233 127.6831853   1.7477809
 139.7209992 127.4079978   4.1660014 139.8679992 126.8879978   4.9560014
 139.7179992 128.3149978   4.4730014 139.7407102 127.4593953   4.3155925
 136.1739992 124.6599978   4.6770014 135.4879992 125.0129978   5.2440014
 136.6969992 125.4229978   4.4300014 136.1508402 124.8113901   4.7211801
 144.0059992 117.3229978  14.9560014 144.7049992 117.3969978  15.6060014
 143.6249992 116.4579978  15.1100014 144.0502097 117.2162389  15.0657997
 144.7899992 116.9749978   6.0530014 145.0099992 117.4459978   5.2490014
 145.3489992 117.3689978   6.7230014 144.8956731 117.0927287   6.0335033
 142.4589992 129.1049978   4.9160014 141.6419992 129.6019978   4.9680014
 142.9879992 129.5809978   4.2750014 142.4188125 129.2371989   4.8365306
 141.9899992 118.7029978   6.8880014 142.8019992 119.2069978   6.9340014
 141.7459992 118.5579978   7.8020014 142.0681467 118.7523749   7.0178575
 142.5259992 119.6889978  16.0720014 142.6449992 120.2629978  16.8290014
 143.1809992 119.0009978  16.1870014 142.6308684 119.6745194  16.1911674
 142.8739992 115.7839978   7.8260014 142.5269992 116.4009978   8.4700014
 143.5329992 116.2849978   7.3440014 142.9155090 115.9361575   7.8490681
 139.7969992 130.1489978   4.8970014 139.9579992 130.9489978   4.3970014
 139.5999992 130.4559978   5.7820014 139.7923906 130.2998678   4.9482333
 138.5319992 116.8469978   4.5130014 138.4479992 117.7349978   4.8600014
 139.4219992 116.5819978   4.7450014 138.6408163 116.9327179   4.5918596
 136.7899992 127.2739978   3.5730014 137.3819992 127.9739978   3.8500014
 137.2489992 126.8409978   2.8540014 136.9331652 127.3112675   3.5136533
 135.1059992 119.9389978   2.6890014 135.0609992 120.8779978   2.8680014
 134.2179992 119.7029978   2.4200014 134.9798166 120.0356687   2.6771524
 135.9139992 114.7199978  11.3630014 135.6849992 114.7789978  10.4350014
 135.4719992 113.9289978  11.6690014 135.8228801 114.6210540  11.2774729
 134.8449992 128.6609978   7.5230014 134.0119992 129.1329978   7.5500014
 135.3899992 129.1709978   6.9240014 134.8047857 128.7944791   7.4457142
 134.1329992 131.2729978  18.8530014 134.6729992 131.0569978  19.6130014
 133.6519992 130.4679978  18.6630014 134.1419219 131.1345156  18.9314282
 138.7299992 130.1929978  20.4730014 139.4979992 129.7339978  20.8140014
 138.7089992 129.9669978  19.5430014 138.8322135 130.0996668  20.3939491
 142.8219992 129.7009978   1.8490014 142.1779992 129.0699978   2.1700014
 143.5839992 129.1699978   1.6170014 142.8368058 129.5427902   1.8616038
 145.3069992 128.5729978  19.2020014 144.9559992 127.7159978  19.4460014
 146.0329992 128.7149978  19.8090014 145.3571895 128.4751351  19.3173770
 134.0399992 125.0839978  19.8070014 134.1839992 124.1819978  19.5210014
 133.2679992 125.3699978  19.3200014 133.9552733 124.9991798  19.7019532
 138.3809992 125.4269978   1.9400014 138.4459992 124.6329978   2.4700014
 139.0339992 125.3089978   1.2500014 138.4781605 125.3023430   1.9192997
 140.6949992 125.0529978  19.2400014 140.3669992 125.3239978  18.3830014
 140.8469992 124.1119978  19.1520014 140.6706412 124.9629046  19.1107822
 143.7339992 126.4739978   1.6760014 143.4649992 126.6549978   2.5760014
 143.5269992 125.5489978   1.5440014 143.6691191 126.3737119   1.7815524
 134.8729992 122.2839978  19.2270014 135.2809992 121.4269978  19.1060014
 134.6119992 122.2979978  20.1480014 134.8936016 122.1685119  19.3349192
 139.5309992 123.3999978   4.2460014 139.0709992 122.9159978   4.9310014
 139.7859992 122.7309978   3.6100014 139.5024856 123.2433669   4.2538397
 138.8199992 121.2929978  16.6020014 138.2009992 121.9669978  16.8820014
 139.1639992 121.6139978  15.7680014 138.7817123 121.4286887  16.5276388
 140.6019992 121.6429978   2.5080014 140.4209992 121.4879978   1.5810014
 141.5519992 121.7509978   2.5530014 140.7056566 121.6363669   2.3870929
 143.8389992 123.7639978  19.8790014 144.7929992 123.8479978  19.8520014
 143.6789992 123.0519978  20.4990014 143.9477182 123.6792842  19.9590733
 139.1589992 118.6479978  17.6840014 139.3089992 117.9189978  17.0820014
 139.1609992 119.4249978  17.1250014 139.1797967 118.6532708  17.5260541
 139.5719992 117.0169978  15.1770014 140.1069992 117.4689978  14.5250014
 138.7189992 116.9089978  14.7540014 139.5300374 117.0642665  15.0306710
 141.1529992 122.4569978  15.4160014 141.9039992 122.3009978  14.8430014
 140.8139992 123.3089978  15.1410014 141.2099587 122.5508138  15.3004078
 145.5689992 120.2719978  20.4450014 145.7609992 119.3409978  20.3330014
 146.4269992 120.6969978  20.4340014 145.7112182 120.2020070  20.4281862
 137.6379992 119.8459978  19.5950014 136.8699992 119.3129978  19.3850014
 138.3159992 119.5359978  18.9960014 137.6247235 119.7311754  19.4852413
 140.3769992 114.4739978  15.6080014 140.2789992 115.4199978  15.5030014
 139.6349992 114.1009978  15.1320014 140.2632534 114.5531773  15.5292600
 141.6409992 118.7949978  19.1720014 141.4059992 118.5759978  20.0730014
 140.8579992 118.5879978  18.6620014 141.5029095 118.7369892  19.2265353
 144.3569992 117.9229978  18.2470014 143.4089992 117.9549978  18.3790014
 144.6689992 117.2969978  18.9010014 144.2695293 117.8427923  18.3534148
 135.8179992 117.7659978  19.3000014 136.0299992 117.0599978  18.6900014
 135.7069992 117.3289978  20.1440014 135.8320269 117.6101921  19.3305873
 140.5989992 113.7679978  18.2790014 141.3109992 113.1279978  18.2650014
 140.4979992 114.0339978  17.3660014 140.6827387 113.7164330  18.1535563
 140.9529992 115.4499978  20.3330014 140.8209992 114.9749978  19.5130014
 140.3529992 116.1949978  20.2780014 140.8539070 115.4855789  20.2133251
 140.4989992 132.3329978   3.5090014 141.4319992 132.4909978   3.6530014
 140.2349992 133.0089978   2.8840014 140.5909911 132.4459373   3.4442722
 134.0669992 126.9699978   2.9920014 134.9809992 127.0489978   3.2650014
 134.0749992 126.2829978   2.3260014 134.1930655 126.8879205   2.9392917
 132.7159992 132.3629978   8.0690014 132.0689992 131.9009978   7.5370014
 133.0709992 131.6909978   8.6520014 132.6753741 132.2089774   8.0749175
 133.5859992 130.4429978   9.8740014 133.2519992 129.5629978  10.0460014
 133.8089992 130.7889978  10.7390014 133.5703721 130.3691938  10.0144168
 133.6659992 123.5189978  12.3260014 133.8509992 123.4369978  11.3900014
 134.5159992 123.3949978  12.7490014 133.8060928 123.4910463  12.2552893
 133.2639992 118.7889978  18.4660014 134.1829992 118.6669978  18.7030014
 132.8139992 118.0389978  18.8560014 133.3290087 118.6709608  18.5511410
 134.4849992 117.1019978  11.3580014 134.9299992 116.3099978  11.6600014
 134.9509992 117.8179978  11.7880014 134.6089718 117.0904534  11.4575265
 132.7889992 120.1009978  12.4270014 133.2809992 119.8799978  11.6360014
 133.1509992 120.9409978  12.7080014 132.9052923 120.1843468  12.3567407
 133.1029992 116.3589978   6.4810014 132.1779992 116.5669978   6.3520014
 133.5569992 116.8429978   5.7910014 133.0376298 116.4529299   6.3700451
 133.0659992 115.0969978  14.8250014 132.4009992 114.8509978  15.4680014
 132.6229992 115.7189978  14.2480014 132.9151168 115.1474214  14.8349848
 135.2579992 128.2719978  18.9700014 134.4369992 128.4469978  18.5090014
 135.0059992 128.1989978  19.8900014 135.1115594 128.2860717  19.0313611
 138.2119992 129.2459978  15.2280014 137.7879992 130.0559978  14.9460014
 139.1169992 129.3319978  14.9260014 138.2762138 129.3684160  15.1486415
 142.5239992 130.6449978  18.1880014 142.7079992 130.3119978  19.0660014
 143.3699992 130.9549978  17.8660014 142.6636484 130.6412979  18.2647617
 144.8689992 131.9309978  17.4320014 145.5459992 131.2979978  17.1920014
 145.1899992 132.3319978  18.2390014 145.0051323 131.8985691  17.5083158
 135.6139992 132.5029978  15.2760014 134.8939992 132.9429978  14.8250014
 135.2489992 132.2519978  16.1240014 135.4659643 132.5293369  15.3289129
 138.0809992 132.1029978  14.3060014 137.2169992 132.1749978  14.7100014
 138.0259992 132.6499978  13.5220014 137.9551942 132.1867849  14.2554000
 142.7919992 131.9909978  13.4810014 142.3349992 132.5199978  12.8270014
 142.9549992 132.5939978  14.2060014 142.7514960 132.1449280  13.4895274
 145.1199992 130.8689978  14.4260014 144.2149992 131.0339978  14.1600014
 145.5479992 131.7219978  14.3600014 145.0541537 131.0069134  14.3807095
 135.0289992 131.1259978  12.1860014 135.0109992 130.6999978  13.0430014
 135.8339992 130.8069978  11.7770014 135.1352875 131.0246435  12.2479515
 137.1699992 129.8359978  10.8410014 136.9509992 128.9189978  11.0110014
 137.9939992 129.9759978  11.3070014 137.2514702 129.7295511  10.9272527
 139.7069992 130.3059978  11.6900014 139.9199992 129.4179978  11.4030014
 139.7719992 130.2709978  12.6440014 139.7449149 130.1798326  11.7797369
 143.2159992 115.9699978  10.8340014 142.5419992 115.3399978  11.0900014
 143.7799992 115.4859978  10.2310014 143.2000384 115.8183708  10.7875020
 135.5429992 114.6039978   8.6560014 134.7659992 114.3689978   8.1490014
 136.0729992 113.8069978   8.6650014 135.5083451 114.4641268   8.5878627
 134.3789992 114.4019978   4.4600014 134.8179992 115.0129978   3.8680014
 133.7449992 114.9399978   4.9340014 134.3533859 114.5584064   4.4430305
 140.1219992 114.5299978   8.4690014 140.9959992 114.9189978   8.4400014
 139.9859992 114.3149978   9.3920014 140.2231953 114.5541643   8.5897617
 134.2799992 130.3499978   5.3570014 133.5949992 130.3119978   4.6900014
 134.2839992 131.2629978   5.6450014 134.1867621 130.4681924   5.3046126
 136.2399992 116.3179978   2.9020014 136.7309992 115.6879978   2.3750014
 136.8629992 116.6139978   3.5650014 136.3915304 116.2717376   2.9194940
 141.2659992 116.6109978   5.3590014 141.4439992 115.9639978   6.0420014
 141.2119992 117.4449978   5.8260014 141.2830678 116.6351604   5.5156301
 143.1439992 131.5589978   3.7550014 144.0099992 131.9259978   3.5770014
 142.8979992 131.1199978   2.9410014 143.2292097 131.5498525   3.6206019
 135.4999992 115.1179978  18.1740014 135.1339992 114.3519978  18.6160014
 136.4129992 115.1469978  18.4600014 135.5733172 115.0170324  18.2731890
 137.4729992 114.4679978  19.7090014 138.3719992 114.1939978  19.5250014
 137.0869992 113.7259978  20.1740014 137.5437307 114.3302196  19.7467098
 136.0979992 131.2699978   2.3820014 135.8299992 131.5559978   3.2560014
 136.8689992 130.7239978   2.5350014 136.1655926 131.2352779   2.5221205
  12.6289992 142.6159978   8.6150014  12.7179992 143.5599978   8.4830014
  11.9909992 142.3409978   7.9570014  12.5549062 142.7079812   8.5079641
  11.5619992 141.8709978  12.0340014  11.5239992 141.2249978  12.7390014
  11.2399992 141.4039978  11.2630014  11.5132679 141.7194276  12.0262921
   3.9299992 141.4849978  13.6270014   3.9719992 140.8599978  14.3500014
   4.6329992 142.1089978  13.8090014   4.0307345 141.4837873  13.7505274
  15.2679992 144.8099978  10.3350014  14.8269992 144.0899978  10.7860014
  15.2549992 145.5309978  10.9650014  15.2059215 144.8089291  10.4818105
   1.4639992 139.5949978   7.5540014   1.0159992 140.4409978   7.5360014
   0.9029992 139.0159978   7.0390014   1.3268546 139.6323993   7.4818891
   2.1739992 141.7569978   9.6800014   2.3879992 140.9869978  10.2080014
   2.9119992 141.8469978   9.0770014   2.3030200 141.6638587   9.6707035
   9.9509992 144.3029978  12.4400014  10.2549992 143.6169978  11.8450014
  10.6729992 144.4219978  13.0580014  10.0901240 144.2252314  12.4420959
  18.6139992 135.9049978  13.3000014  18.6639992 136.5149978  14.0360014
  19.0399992 136.3659978  12.5770014  18.6784108 136.0507709  13.3030112
  13.0919992 138.6969978  12.7670014  13.2349992 137.7509978  12.7870014
  12.9859992 138.9039978  11.8390014  13.0972403 138.5954797  12.6442239
   6.2469992 136.7989978  10.0400014   6.2899992 137.6589978   9.6210014
   5.7889992 136.2469978   9.4060014   6.1909871 136.8419245   9.8970761
  13.9689992 136.9299978   8.4410014  14.6159992 136.6009978   9.0650014
  14.4789992 137.4469978   7.8180014  14.1264351 136.9549067   8.4421037
   2.8669992 139.1959978  10.8020014   3.5209992 138.6459978  11.2340014
   2.8909992 138.9219978   9.8850014   2.9597199 139.0837167  10.7371668
   8.0239992 140.7459978  10.0170014   8.6399992 140.2189978  10.5260014
   7.4369992 140.1059978   9.6130014   8.0290154 140.5873954  10.0320945
  19.0059992 137.3829978  15.5360014  18.3169992 138.0409978  15.4410014
  19.0209992 137.1849978  16.4730014  18.9137756 137.4462603  15.6495812
   5.0569992 135.7169978  14.1140014   4.8379992 136.2469978  13.3470014
   4.3889992 135.9429978  14.7610014   4.9366975 135.8200967  14.0965140
  12.4259992 145.2169978   7.6580014  12.1309992 144.8939978   6.8060014
  12.1019992 146.1169978   7.6990014  12.3418460 145.2944464   7.5469714
   7.6259992 143.3919978  14.4010014   6.8859992 143.9909978  14.5050014
   8.3399992 143.9459978  14.0860014   7.6213500 143.5487829  14.3726371
  15.7329992 136.2209978  10.4210014  15.5179992 135.4549978  10.9540014
  16.3889992 136.6929978  10.9340014  15.7922673 136.1800728  10.5631990
   4.6509992 137.6089978  12.0660014   5.2649992 138.2419978  12.4390014
   5.1629992 137.1369978  11.4100014   4.8041962 137.6317249  12.0282935
   6.0339992 145.3569978  15.1880014   6.0279992 146.2359978  14.8100014
   5.1799992 145.2729978  15.6130014   5.9177925 145.4659535  15.1936887
   2.1549992 145.0279978   5.9700014   1.8829992 145.2569978   5.0820014
   2.1999992 145.8649978   6.4310014   2.1238097 145.1726163   5.9106683
  16.0799992 134.9359978  14.1000014  15.3439992 135.5459978  14.0630014
  16.7639992 135.3509978  13.5740014  16.0715367 135.0757551  14.0238174
   9.0839992 133.0219978  11.5660014   8.9659992 132.0739978  11.5120014
   8.2289992 133.3549978  11.8390014   8.9522805 132.9372202  11.5955079
  16.8779992 144.8979978  16.2940014  17.0169992 144.3059978  15.5550014
  17.0449992 145.7709978  15.9380014  16.9196193 144.9348896  16.1446211
  11.3499992 141.8599978   6.0670014  10.6389992 142.3949978   5.7150014
  12.0409992 141.9149978   5.4070014  11.3460751 141.9406777   5.9295858
  11.4039992 140.3169978   3.1050014  12.1049992 140.3399978   3.7570014
  11.7059992 139.6889978   2.4490014  11.5408202 140.2352212   3.1055609
  18.7189992 141.2379978  14.3600014  18.0669992 141.9319978  14.4490014
  19.1849992 141.4479978  13.5500014  18.6925937 141.3615019  14.2627533
  14.7559992 142.0689978   7.0180014  14.0239992 142.2979978   7.5920014
  15.2029992 141.3559978   7.4730014  14.7163963 142.0038729   7.1579945
  14.6529992 140.2439978  16.0860014  14.7329992 141.0069978  16.6580014
  14.0519992 140.5229978  15.3960014  14.5826547 140.3862457  16.0710047
   6.4009992 142.6999978   8.9010014   6.0709992 142.3289978   8.0830014
   6.9899992 142.0289978   9.2480014   6.4353970 142.5586063   8.8359404
   6.7679992 141.4679978  12.5340014   7.3329992 141.5899978  11.7720014
   7.0869992 142.1059978  13.1730014   6.8884166 141.5708791  12.5160348
  13.6269992 141.2319978   4.7040014  14.2059992 141.3819978   5.4500014
  14.0409992 141.7019978   3.9800014  13.7623358 141.3160954   4.7083953
   4.5679992 142.0659978  16.4800014   4.6379992 142.7169978  17.1790014
   3.6769992 142.1689978  16.1450014   4.4571690 142.1689249  16.5303043
  17.3259992 132.9819978   4.5170014  16.4259992 133.1209978   4.8120014
  17.5779992 133.8129978   4.1150014  17.2368683 133.1134055   4.5030232
   5.3919992 141.7689978   6.4900014   5.0999992 142.5369978   5.9990014
   4.7169992 141.1099978   6.3270014   5.2608497 141.7849745   6.4008260
   1.4849992 144.1319978  15.3050014   0.9829992 144.1039978  14.4900014
   1.4899992 143.2269978  15.6150014   1.4169832 144.0057486  15.2354121
  16.5849992 139.0719978  18.3520014  16.1769992 139.5519978  17.6310014
  16.6249992 138.1659978  18.0440014  16.5346221 139.0152449  18.2118267
   3.7339992 145.4559978  16.3480014   3.9499992 145.0939978  17.2080014
   2.8779992 145.0809978  16.1390014   3.6478810 145.3558837  16.4372680
   6.3519992 133.9259978  12.3440014   5.4909992 133.8389978  11.9360014
   6.3299992 134.7819978  12.7720014   6.2310491 134.0298003  12.3459582
  11.0149992 133.6479978  15.7190014  11.4349992 133.2329978  16.4720014
  10.0819992 133.4689978  15.8360014  10.9463736 133.5669910  15.8378968
  14.3419992 137.4029978  16.5720014  13.8279992 137.2779978  17.3700014
  14.1859992 138.3159978  16.3280014  14.2506967 137.5092123  16.6480937
  15.1039992 142.2639978   2.3330014  15.1459992 142.0419978   1.4030014
  15.9529992 142.6629978   2.5230014  15.2245253 142.2875498   2.2313822
  10.6769992 136.1399978   3.0040014  10.4229992 136.1589978   3.9260014
  10.4199992 135.2689978   2.7020014  10.6074508 136.0248280   3.0894803
   6.4429992 138.8909978  13.4390014   5.8019992 138.8509978  14.1480014
   6.4809992 139.8179978  13.2010014   6.3603010 139.0107668  13.5039946
   6.4399992 139.1119978   8.3510014   5.5479992 138.7719978   8.2920014
   6.8909992 138.7349978   7.5950014   6.3787642 139.0144910   8.2407726
  11.9759992 139.5279978   7.1680014  11.5669992 140.3429978   6.8760014
  12.6959992 139.3879978   6.5540014  12.0174439 139.6205372   7.0450115
  11.0779992 139.7039978  18.6560014  10.5149992 138.9989978  18.9770014
  11.9039992 139.5829978  19.1240014  11.1126674 139.5912165  18.7631751
  12.9809992 138.9739978   9.9820014  12.7849992 139.5799978   9.2670014
  13.1619992 138.1409978   9.5480014  12.9786584 138.9442513   9.8254212
   4.1929992 139.2119978  15.3060014   4.1549992 139.6119978  16.1750014
   3.7029992 138.3949978  15.3960014   4.1215330 139.1562674  15.4371289
   7.5589992 136.5859978   2.1050014   7.1279992 136.1409978   2.8340014
   6.8409992 136.9569978   1.5920014   7.4029176 136.5752051   2.1354930
   0.8019992 136.3279978   9.1570014   1.4319992 136.2989978   9.8760014
   1.2509992 135.9029978   8.4260014   0.9490835 136.2665660   9.1567659
   2.0759992 137.0739978   4.5810014   2.5499992 137.6649978   3.9960014
   1.3579992 137.6039978   4.9280014   2.0438640 137.2265511   4.5477969
  12.2449992 140.6119978  14.6530014  12.5679992 139.9809978  14.0100014
  11.8039992 140.0779978  15.3140014  12.2296379 140.4533468  14.6542582
   9.0219992 136.5399978   9.4370014   8.1109992 136.5969978   9.7260014
   9.5269992 136.4799978  10.2480014   8.9656873 136.5396826   9.5861207
   3.8499992 138.1689978   8.2640014   2.9609992 138.2679978   7.9240014
   4.1469992 137.3269978   7.9180014   3.7684177 138.0687687   8.1706940
   7.5029992 138.1689978   5.9210014   8.4349992 138.2979978   6.0990014
   7.2879992 138.8379978   5.2710014   7.6014472 138.2770806   5.8574891
  13.4269992 135.7749978  12.7020014  12.7499992 135.9059978  13.3650014
  12.9419992 135.6199978  11.8910014  13.2687405 135.7719947  12.6832170
   6.1769992 139.3629978   3.4870014   5.6349992 138.9839978   2.7960014
   7.0109992 139.5579978   3.0590014   6.2154390 139.3374079   3.3344392
   4.3129992 143.9199978  18.5860014   5.0449992 144.1749978  19.1480014
   3.5319992 144.1249978  19.1020014   4.3076526 143.9825450  18.7325176
  10.3419992 139.3269978  11.3240014  10.9059992 138.7809978  10.7770014
  10.1939992 138.8059978  12.1130014  10.3993037 139.1816787  11.3557229
   5.3439992 135.4639978   7.7430014   5.0269992 134.5609978   7.7070014
   6.1249992 135.4659978   7.1900014   5.4062431 135.3407797   7.6633102
   8.9679992 137.7159978  13.7380014   8.1329992 138.1699978  13.8490014
   9.4919992 137.9919978  14.4900014   8.9246072 137.8153948  13.8548136
   9.5129992 143.9289978   5.4230014   8.7679992 143.4209978   5.1010014
   9.3779992 143.9779978   6.3690014   9.3928963 143.8661731   5.5068826
  16.6629992 143.0619978  14.2100014  17.3039992 143.5179978  13.6660014
  15.8319992 143.1749978  13.7470014  16.6385287 143.1396921  14.0729887
  13.4099992 136.7429978   3.6220014  12.4719992 136.8539978   3.4710014
  13.7079992 137.5989978   3.9290014  13.3216318 136.8740158   3.6428145
  11.0319992 144.1129978  16.6600014  10.6859992 143.7309978  17.4670014
  10.8319992 145.0459978  16.7310014  10.9575987 144.1869002  16.7800461
  14.1289992 138.6099978   5.2830014  15.0209992 138.4719978   5.6020014
  14.1849992 139.4009978   4.7460014  14.2587325 138.6979918   5.2541217
   4.6369992 143.2239978  11.1930014   5.3819992 143.2209978  10.5910014
   4.7149992 142.3999978  11.6740014   4.7493365 143.1122384  11.1757430
  11.6379992 145.3869978   4.4480014  11.3429992 146.2139978   4.8300014
  10.9349992 144.7679978   4.6450014  11.5026379 145.4164171   4.5268654
   1.6449992 141.6839978  16.5080014   1.8679992 141.2659978  17.3390014
   1.0429992 141.0719978  16.0850014   1.5941513 141.5439606  16.5646740
   8.6619992 141.2009978  18.7210014   8.3659992 141.0359978  17.8250014
   9.5929992 140.9809978  18.7100014   8.7474401 141.1486879  18.5970206
  19.0139992 138.8189978   4.9780014  18.4589992 138.4229978   4.3050014
  19.1139992 139.7299978   4.7000014  18.9516816 138.8879505   4.8485033
  18.9769992 144.6199978  17.8150014  18.1259992 144.8579978  17.4470014
  19.5669992 144.6029978  17.0620014  18.9403812 144.6502524  17.6628453
  14.4689992 142.4129978  12.4640014  13.5409992 142.1819978  12.4370014
  14.9199992 141.6359978  12.1340014  14.4028165 142.2762774  12.4156790
   2.7669992 141.6039978   3.1840014   3.3829992 142.2309978   3.5640014
   1.9049992 141.9199978   3.4560014   2.7347678 141.7324412   3.2727209
   8.4399992 144.4049978   8.1730014   8.1989992 145.3299978   8.2150014
   7.6989992 143.9459978   8.5700014   8.3069206 144.4695915   8.2323769
  12.4979992 144.6529978  14.1890014  12.0729992 144.4249978  15.0150014
  13.0789992 143.9139978  14.0070014  12.5183395 144.5219545  14.2774414
   3.2789992 136.4379978  16.0660014   2.3869992 136.7759978  15.9980014
   3.1809992 135.5819978  16.4840014   3.1434475 136.3686543  16.1131704
  15.5669992 144.2539978   5.4900014  15.2899992 143.5259978   6.0460014
  16.4949992 144.3729978   5.6950014  15.6544499 144.1704213   5.5938044
   4.1819992 143.5159978   4.6770014   3.4959992 143.8689978   5.2440014
   4.7049992 144.2789978   4.4300014   4.1588402 143.6673901   4.7211801
  12.0139992 136.1789978  14.9560014  12.7129992 136.2529978  15.6060014
  11.6329992 135.3139978  15.1100014  12.0582097 136.0722389  15.0657997
  12.7979992 135.8309978   6.0530014  13.0179992 136.3019978   5.2490014
  13.3569992 136.2249978   6.7230014  12.9036731 135.9487287   6.0335033
   9.9979992 137.5589978   6.8880014  10.8099992 138.0629978   6.9340014
   9.7539992 137.4139978   7.8020014  10.0761467 137.6083749   7.0178575
  10.5339992 138.5449978  16.0720014  10.6529992 139.1189978  16.8290014
  11.1889992 137.8569978  16.1870014  10.6388684 138.5305194  16.1911674
  10.8819992 134.6399978   7.8260014  10.5349992 135.2569978   8.4700014
  11.5409992 135.1409978   7.3440014  10.9235090 134.7921575   7.8490681
   6.5399992 135.7029978   4.5130014   6.4559992 136.5909978   4.8600014
   7.4299992 135.4379978   4.7450014   6.6488163 135.7887179   4.5918596
  16.7379992 136.4519978  16.9070014  15.8219992 136.7139978  16.8200014
  17.0739992 136.4489978  16.0110014  16.6578499 136.4875163  16.7738766
  15.3409992 140.2019978  11.0030014  14.5429992 139.7869978  10.6750014
  15.7859992 139.5119978  11.4940014  15.2919684 140.0518628  11.0245227
   3.1139992 138.7949978   2.6890014   3.0689992 139.7339978   2.8680014
   2.2259992 138.5589978   2.4200014   2.9878166 138.8916687   2.6771524
   3.9219992 133.5759978  11.3630014   3.6929992 133.6349978  10.4350014
   3.4799992 132.7849978  11.6690014   3.8308801 133.4770540  11.2774729
   2.0479992 143.9399978  19.8070014   2.1919992 143.0379978  19.5210014
   1.2759992 144.2259978  19.3200014   1.9632733 143.8551798  19.7019532
   6.3889992 144.2829978   1.9400014   6.4539992 143.4889978   2.4700014
   7.0419992 144.1649978   1.2500014   6.4861605 144.1583430   1.9192997
   8.7029992 143.9089978  19.2400014   8.3749992 144.1799978  18.3830014
   8.8549992 142.9679978  19.1520014   8.6786412 143.8189046  19.1107822
  11.7419992 145.3299978   1.6760014  11.4729992 145.5109978   2.5760014
  11.5349992 144.4049978   1.5440014  11.6771191 145.2297119   1.7815524
  14.4379992 143.8249978  16.6230014  15.1829992 144.4139978  16.5040014
  13.6809992 144.4069978  16.6870014  14.4375470 143.9842128  16.6153799
   2.8809992 141.1399978  19.2270014   3.2889992 140.2829978  19.1060014
   2.6199992 141.1539978  20.1480014   2.9016016 141.0245119  19.3349192
   7.5389992 142.2559978   4.2460014   7.0789992 141.7719978   4.9310014
   7.7939992 141.5869978   3.6100014   7.5104856 142.0993669   4.2538397
   6.8279992 140.1489978  16.6020014   6.2089992 140.8229978  16.8820014
   7.1719992 140.4699978  15.7680014   6.7897123 140.2846887  16.5276388
   8.6099992 140.4989978   2.5080014   8.4289992 140.3439978   1.5810014
   9.5599992 140.6069978   2.5530014   8.7136566 140.4923669   2.3870929
  11.8469992 142.6199978  19.8790014  12.8009992 142.7039978  19.8520014
  11.6869992 141.9079978  20.4990014  11.9557182 142.5352842  19.9590733
  17.9999992 142.8529978   1.9540014  17.7259992 142.4289978   1.1410014
  18.0389992 143.7849978   1.7370014  17.9677716 142.9208827   1.8134286
   7.1669992 137.5039978  17.6840014   7.3169992 136.7749978  17.0820014
   7.1689992 138.2809978  17.1250014   7.1877967 137.5092708  17.5260541
   7.5799992 135.8729978  15.1770014   8.1149992 136.3249978  14.5250014
   6.7269992 135.7649978  14.7540014   7.5380374 135.9202665  15.0306710
   9.1609992 141.3129978  15.4160014   9.9119992 141.1569978  14.8430014
   8.8219992 142.1649978  15.1410014   9.2179587 141.4068138  15.3004078
  13.5769992 139.1279978  20.4450014  13.7689992 138.1969978  20.3330014
  14.4349992 139.5529978  20.4340014  13.7192182 139.0580070  20.4281862
  14.8939992 141.9169978  18.5220014  14.6119992 142.6259978  17.9440014
  15.8359992 141.8439978  18.3710014  14.9827921 142.0042193  18.4224225
   5.6459992 138.7019978  19.5950014   4.8779992 138.1689978  19.3850014
   6.3239992 138.3919978  18.9960014   5.6327235 138.5871754  19.4852413
   8.3849992 133.3299978  15.6080014   8.2869992 134.2759978  15.5030014
   7.6429992 132.9569978  15.1320014   8.2712534 133.4091773  15.5292600
   9.6489992 137.6509978  19.1720014   9.4139992 137.4319978  20.0730014
   8.8659992 137.4439978  18.6620014   9.5109095 137.5929892  19.2265353
  12.3649992 136.7789978  18.2470014  11.4169992 136.8109978  18.3790014
  12.6769992 136.1529978  18.9010014  12.2775293 136.6987923  18.3534148
  13.9989992 135.4129978  20.2520014  13.9019992 134.4609978  20.2470014
  13.6769992 135.6809978  21.1130014  13.9422468 135.3190884  20.3676210
   3.8259992 136.6219978  19.3000014   4.0379992 135.9159978  18.6900014
   3.7149992 136.1849978  20.1440014   3.8400269 136.4661921  19.3305873
   8.6069992 132.6239978  18.2790014   9.3189992 131.9839978  18.2650014
   8.5059992 132.8899978  17.3660014   8.6907387 132.5724330  18.1535563
   8.9609992 134.3059978  20.3330014   8.8289992 133.8309978  19.5130014
   8.3609992 135.0509978  20.2780014   8.8619070 134.3415789  20.2133251
  17.1569992 145.4659978  20.4150014  16.2909992 145.3609978  20.8090014
  17.5329992 146.2239978  20.8610014  17.0893401 145.5541708  20.5292620
  18.4579992 143.7219978   5.9290014  19.3079992 144.1429978   6.0560014
  18.4629992 142.9819978   6.5360014  18.5751143 143.6796094   6.0284750
  18.8519992 141.7759978   7.7520014  18.1259992 141.2959978   8.1500014
  19.4339992 141.9809978   8.4850014  18.8312730 141.7380184   7.9054149
  18.6109992 144.5609978  12.7000014  19.4449992 144.1829978  12.4190014
  18.7229992 145.5039978  12.5810014  18.7401917 144.6367943  12.6454861
  19.1209992 141.6769978   4.1430014  18.5989992 142.0329978   3.4250014
  19.0879992 142.3519978   4.8220014  19.0450129 141.8169598   4.1363355
  17.4699992 138.9159978   2.6940014  17.5659992 139.5829978   2.0140014
  17.3299992 138.1009978   2.2130014  17.4642040 138.8970671   2.5358378
  16.6389992 140.2969978   8.3150014  16.4889992 139.3519978   8.2950014
  16.2849992 140.5779978   9.1590014  16.5706351 140.2056644   8.4263220
   1.6739992 142.3749978  12.3260014   1.8589992 142.2929978  11.3900014
   2.5239992 142.2509978  12.7490014   1.8140928 142.3470463  12.2552893
  17.4949992 142.2669978  17.9540014  18.0779992 141.5319978  18.1460014
  18.0589992 143.0389978  18.0010014  17.6509781 142.2708145  17.9866164
  18.9919992 140.1699978  18.6390014  18.1289992 139.7909978  18.4730014
  19.5959992 139.4309978  18.5640014  18.9556085 140.0183223  18.6061695
  16.7169992 136.3239978   1.8120014  17.3279992 135.9529978   2.4490014
  15.8799992 135.9029978   2.0080014  16.6874947 136.2162756   1.9257252
  16.3499992 137.8789978   6.7780014  16.6289992 136.9719978   6.9020014
  17.1089992 138.3129978   6.3890014  16.4908619 137.8134502   6.7423795
  16.9609992 138.4609978  12.2140014  17.8939992 138.6729978  12.1790014
  16.7259992 138.5619978  13.1360014  17.0569517 138.5036833  12.3339130
  16.9909992 139.1979978  14.9900014  16.1479992 139.4659978  15.3560014
  17.4329992 140.0199978  14.7790014  16.9354138 139.3458273  15.0115518
   1.2719992 137.6449978  18.4660014   2.1909992 137.5229978  18.7030014
   0.8219992 136.8949978  18.8560014   1.3370087 137.5269608  18.5511410
  19.2739992 133.1779978  20.3430014  19.6229992 132.5239978  19.7380014
  19.4209992 134.0149978  19.9030014  19.3416824 133.2016024  20.2006304
  16.9629992 135.1419978   6.8260014  17.1449992 134.6929978   7.6510014
  16.3629992 134.5579978   6.3620014  16.9068187 135.0015552   6.8762739
   2.4929992 135.9579978  11.3580014   2.9379992 135.1659978  11.6600014
   2.9589992 136.6739978  11.7880014   2.6169718 135.9464534  11.4575265
   0.7969992 138.9569978  12.4270014   1.2889992 138.7359978  11.6360014
   1.1589992 139.7969978  12.7080014   0.9132923 139.0403468  12.3567407
  18.7929992 135.2869978  18.6920014  17.8759992 135.5579978  18.6570014
  18.9159992 134.7519978  17.9080014  18.6839672 135.2517885  18.5811862
  18.8299992 135.2099978   3.3540014  19.2419992 134.4889978   2.8790014
  19.5109992 135.8789978   3.4120014  18.9785536 135.2017766   3.2968024
   1.1109992 135.2149978   6.4810014   0.1859992 135.4229978   6.3520014
   1.5649992 135.6989978   5.7910014   1.0456298 135.3089299   6.3700451
   1.0739992 133.9529978  14.8250014   0.4089992 133.7069978  15.4680014
   0.6309992 134.5749978  14.2480014   0.9231168 134.0034214  14.8349848
  17.7939992 133.3769978  16.5110014  16.9809992 133.7019978  16.1240014
  18.0269992 132.6159978  15.9780014  17.7141347 133.3186880  16.3859841
  11.2239992 134.8259978  10.8340014  10.5499992 134.1959978  11.0900014
  11.7879992 134.3419978  10.2310014  11.2080384 134.6743708  10.7875020
  16.3669992 132.9329978  10.9470014  16.9699992 133.4809978  10.4450014
  15.4969992 133.2519978  10.7060014  16.3319157 133.0510373  10.8457910
  18.0939992 134.0719978   9.2800014  18.7049992 133.5579978   8.7530014
  18.4759992 134.9489978   9.3030014  18.2293305 134.1202050   9.2109418
   3.5509992 133.4599978   8.6560014   2.7739992 133.2249978   8.1490014
   4.0809992 132.6629978   8.6650014   3.5163451 133.3201268   8.5878627
   2.3869992 133.2579978   4.4600014   2.8259992 133.8689978   3.8680014
   1.7529992 133.7959978   4.9340014   2.3613859 133.4144064   4.4430305
   8.1299992 133.3859978   8.4690014   9.0039992 133.7749978   8.4400014
   7.9939992 133.1709978   9.3920014   8.2311953 133.4101643   8.5897617
  13.6869992 133.4159978  10.1190014  13.7629992 133.5119978   9.1690014
  13.4119992 132.5089978  10.2470014  13.6601871 133.3064146  10.0063944
  15.0399992 133.4419978   5.8110014  14.3369992 134.0569978   5.6010014
  14.5949992 132.6049978   5.9420014  14.8836550 133.4129668   5.7999837
   4.2479992 135.1739978   2.9020014   4.7389992 134.5439978   2.3750014
   4.8709992 135.4699978   3.5650014   4.3995304 135.1277376   2.9194940
   9.2739992 135.4669978   5.3590014   9.4519992 134.8199978   6.0420014
   9.2199992 136.3009978   5.8260014   9.2910678 135.4911604   5.5156301
   3.5079992 133.9739978  18.1740014   3.1419992 133.2079978  18.6160014
   4.4209992 134.0029978  18.4600014   3.5813172 133.8730324  18.2731890
   5.4809992 133.3239978  19.7090014   6.3799992 133.0499978  19.5250014
   5.0949992 132.5819978  20.1740014   5.5517307 133.1862196  19.7467098
  13.9029992 132.6569978  19.8920014  13.9789992 132.2309978  20.7450014
  14.7959992 132.6699978  19.5490014  14.0342303 132.6003493  19.9625497
  31.4849992 142.6159978   8.6150014  31.5739992 143.5599978   8.4830014
  30.8469992 142.3409978   7.9570014  31.4109062 142.7079812   8.5079641
  30.4179992 141.8709978  12.0340014  30.3799992 141.2249978  12.7390014
  30.0959992 141.4039978  11.2630014  30.3692679 141.7194276  12.0262921
  22.7859992 141.4849978  13.6270014  22.8279992 140.8599978  14.3500014
  23.4889992 142.1089978  13.8090014  22.8867345 141.4837873  13.7505274
  34.1239992 144.8099978  10.3350014  33.6829992 144.0899978  10.7860014
  34.1109992 145.5309978  10.9650014  34.0619215 144.8089291  10.4818105
  20.3199992 139.5949978   7.5540014  19.8719992 140.4409978   7.5360014
  19.7589992 139.0159978   7.0390014  20.1828546 139.6323993   7.4818891
  21.0299992 141.7569978   9.6800014  21.2439992 140.9869978  10.2080014
  21.7679992 141.8469978   9.0770014  21.1590200 141.6638587   9.6707035
  28.8069992 144.3029978  12.4400014  29.1109992 143.6169978  11.8450014
  29.5289992 144.4219978  13.0580014  28.9461240 144.2252314  12.4420959
  37.4699992 135.9049978  13.3000014  37.5199992 136.5149978  14.0360014
  37.8959992 136.3659978  12.5770014  37.5344108 136.0507709  13.3030112
  31.9479992 138.6969978  12.7670014  32.0909992 137.7509978  12.7870014
  31.8419992 138.9039978  11.8390014  31.9532403 138.5954797  12.6442239
  25.1029992 136.7989978  10.0400014  25.1459992 137.6589978   9.6210014
  24.6449992 136.2469978   9.4060014  25.0469871 136.8419245   9.8970761
  32.8249992 136.9299978   8.4410014  33.4719992 136.6009978   9.0650014
  33.3349992 137.4469978   7.8180014  32.9824351 136.9549067   8.4421037
  21.7229992 139.1959978  10.8020014  22.3769992 138.6459978  11.2340014
  21.7469992 138.9219978   9.8850014  21.8157199 139.0837167  10.7371668
  26.8799992 140.7459978  10.0170014  27.4959992 140.2189978  10.5260014
  26.2929992 140.1059978   9.6130014  26.8850154 140.5873954  10.0320945
  37.8619992 137.3829978  15.5360014  37.1729992 138.0409978  15.4410014
  37.8769992 137.1849978  16.4730014  37.7697756 137.4462603  15.6495812
  23.9129992 135.7169978  14.1140014  23.6939992 136.2469978  13.3470014
  23.2449992 135.9429978  14.7610014  23.7926975 135.8200967  14.0965140
  31.2819992 145.2169978   7.6580014  30.9869992 144.8939978   6.8060014
  30.9579992 146.1169978   7.6990014  31.1978460 145.2944464   7.5469714
  26.4819992 143.3919978  14.4010014  25.7419992 143.9909978  14.5050014
  27.1959992 143.9459978  14.0860014  26.4773500 143.5487829  14.3726371
  34.5889992 136.2209978  10.4210014  34.3739992 135.4549978  10.9540014
  35.2449992 136.6929978  10.9340014  34.6482673 136.1800728  10.5631990
  23.5069992 137.6089978  12.0660014  24.1209992 138.2419978  12.4390014
  24.0189992 137.1369978  11.4100014  23.6601962 137.6317249  12.0282935
  24.8899992 145.3569978  15.1880014  24.8839992 146.2359978  14.8100014
  24.0359992 145.2729978  15.6130014  24.7737925 145.4659535  15.1936887
  21.0109992 145.0279978   5.9700014  20.7389992 145.2569978   5.0820014
  21.0559992 145.8649978   6.4310014  20.9798097 145.1726163   5.9106683
  34.9359992 134.9359978  14.1000014  34.1999992 135.5459978  14.0630014
  35.6199992 135.3509978  13.5740014  34.9275367 135.0757551  14.0238174
  27.9399992 133.0219978  11.5660014  27.8219992 132.0739978  11.5120014
  27.0849992 133.3549978  11.8390014  27.8082805 132.9372202  11.5955079
  35.7339992 144.8979978  16.2940014  35.8729992 144.3059978  15.5550014
  35.9009992 145.7709978  15.9380014  35.7756193 144.9348896  16.1446211
  30.2059992 141.8599978   6.0670014  29.4949992 142.3949978   5.7150014
  30.8969992 141.9149978   5.4070014  30.2020751 141.9406777   5.9295858
  30.2599992 140.3169978   3.1050014  30.9609992 140.3399978   3.7570014
  30.5619992 139.6889978   2.4490014  30.3968202 140.2352212   3.1055609
  37.5749992 141.2379978  14.3600014  36.9229992 141.9319978  14.4490014
  38.0409992 141.4479978  13.5500014  37.5485937 141.3615019  14.2627533
  33.6119992 142.0689978   7.0180014  32.8799992 142.2979978   7.5920014
  34.0589992 141.3559978   7.4730014  33.5723963 142.0038729   7.1579945
  33.5089992 140.2439978  16.0860014  33.5889992 141.0069978  16.6580014
  32.9079992 140.5229978  15.3960014  33.4386547 140.3862457  16.0710047
  25.2569992 142.6999978   8.9010014  24.9269992 142.3289978   8.0830014
  25.8459992 142.0289978   9.2480014  25.2913970 142.5586063   8.8359404
  25.6239992 141.4679978  12.5340014  26.1889992 141.5899978  11.7720014
  25.9429992 142.1059978  13.1730014  25.7444166 141.5708791  12.5160348
  32.4829992 141.2319978   4.7040014  33.0619992 141.3819978   5.4500014
  32.8969992 141.7019978   3.9800014  32.6183358 141.3160954   4.7083953
  23.4239992 142.0659978  16.4800014  23.4939992 142.7169978  17.1790014
  22.5329992 142.1689978  16.1450014  23.3131690 142.1689249  16.5303043
  36.1819992 132.9819978   4.5170014  35.2819992 133.1209978   4.8120014
  36.4339992 133.8129978   4.1150014  36.0928683 133.1134055   4.5030232
  24.2479992 141.7689978   6.4900014  23.9559992 142.5369978   5.9990014
  23.5729992 141.1099978   6.3270014  24.1168497 141.7849745   6.4008260
  20.3409992 144.1319978  15.3050014  19.8389992 144.1039978  14.4900014
  20.3459992 143.2269978  15.6150014  20.2729832 144.0057486  15.2354121
  35.4409992 139.0719978  18.3520014  35.0329992 139.5519978  17.6310014
  35.4809992 138.1659978  18.0440014  35.3906221 139.0152449  18.2118267
  22.5899992 145.4559978  16.3480014  22.8059992 145.0939978  17.2080014
  21.7339992 145.0809978  16.1390014  22.5038810 145.3558837  16.4372680
  25.2079992 133.9259978  12.3440014  24.3469992 133.8389978  11.9360014
  25.1859992 134.7819978  12.7720014  25.0870491 134.0298003  12.3459582
  29.8709992 133.6479978  15.7190014  30.2909992 133.2329978  16.4720014
  28.9379992 133.4689978  15.8360014  29.8023736 133.5669910  15.8378968
  33.1979992 137.4029978  16.5720014  32.6839992 137.2779978  17.3700014
  33.0419992 138.3159978  16.3280014  33.1066967 137.5092123  16.6480937
  33.9599992 142.2639978   2.3330014  34.0019992 142.0419978   1.4030014
  34.8089992 142.6629978   2.5230014  34.0805253 142.2875498   2.2313822
  29.5329992 136.1399978   3.0040014  29.2789992 136.1589978   3.9260014
  29.2759992 135.2689978   2.7020014  29.4634508 136.0248280   3.0894803
  25.2989992 138.8909978  13.4390014  24.6579992 138.8509978  14.1480014
  25.3369992 139.8179978  13.2010014  25.2163010 139.0107668  13.5039946
  25.2959992 139.1119978   8.3510014  24.4039992 138.7719978   8.2920014
  25.7469992 138.7349978   7.5950014  25.2347642 139.0144910   8.2407726
  30.8319992 139.5279978   7.1680014  30.4229992 140.3429978   6.8760014
  31.5519992 139.3879978   6.5540014  30.8734439 139.6205372   7.0450115
  29.9339992 139.7039978  18.6560014  29.3709992 138.9989978  18.9770014
  30.7599992 139.5829978  19.1240014  29.9686674 139.5912165  18.7631751
  31.8369992 138.9739978   9.9820014  31.6409992 139.5799978   9.2670014
  32.0179992 138.1409978   9.5480014  31.8346584 138.9442513   9.8254212
  23.0489992 139.2119978  15.3060014  23.0109992 139.6119978  16.1750014
  22.5589992 138.3949978  15.3960014  22.9775330 139.1562674  15.4371289
  26.4149992 136.5859978   2.1050014  25.9839992 136.1409978   2.8340014
  25.6969992 136.9569978   1.5920014  26.2589176 136.5752051   2.1354930
  19.6579992 136.3279978   9.1570014  20.2879992 136.2989978   9.8760014
  20.1069992 135.9029978   8.4260014  19.8050835 136.2665660   9.1567659
  20.9319992 137.0739978   4.5810014  21.4059992 137.6649978   3.9960014
  20.2139992 137.6039978   4.9280014  20.8998640 137.2265511   4.5477969
  31.1009992 140.6119978  14.6530014  31.4239992 139.9809978  14.0100014
  30.6599992 140.0779978  15.3140014  31.0856379 140.4533468  14.6542582
  27.8779992 136.5399978   9.4370014  26.9669992 136.5969978   9.7260014
  28.3829992 136.4799978  10.2480014  27.8216873 136.5396826   9.5861207
  22.7059992 138.1689978   8.2640014  21.8169992 138.2679978   7.9240014
  23.0029992 137.3269978   7.9180014  22.6244177 138.0687687   8.1706940
  26.3589992 138.1689978   5.9210014  27.2909992 138.2979978   6.0990014
  26.1439992 138.8379978   5.2710014  26.4574472 138.2770806   5.8574891
  32.2829992 135.7749978  12.7020014  31.6059992 135.9059978  13.3650014
  31.7979992 135.6199978  11.8910014  32.1247405 135.7719947  12.6832170
  25.0329992 139.3629978   3.4870014  24.4909992 138.9839978   2.7960014
  25.8669992 139.5579978   3.0590014  25.0714390 139.3374079   3.3344392
  23.1689992 143.9199978  18.5860014  23.9009992 144.1749978  19.1480014
  22.3879992 144.1249978  19.1020014  23.1636526 143.9825450  18.7325176
  29.1979992 139.3269978  11.3240014  29.7619992 138.7809978  10.7770014
  29.0499992 138.8059978  12.1130014  29.2553037 139.1816787  11.3557229
  24.1999992 135.4639978   7.7430014  23.8829992 134.5609978   7.7070014
  24.9809992 135.4659978   7.1900014  24.2622431 135.3407797   7.6633102
  27.8239992 137.7159978  13.7380014  26.9889992 138.1699978  13.8490014
  28.3479992 137.9919978  14.4900014  27.7806072 137.8153948  13.8548136
  28.3689992 143.9289978   5.4230014  27.6239992 143.4209978   5.1010014
  28.2339992 143.9779978   6.3690014  28.2488963 143.8661731   5.5068826
  35.5189992 143.0619978  14.2100014  36.1599992 143.5179978  13.6660014
  34.6879992 143.1749978  13.7470014  35.4945287 143.1396921  14.0729887
  32.2659992 136.7429978   3.6220014  31.3279992 136.8539978   3.4710014
  32.5639992 137.5989978   3.9290014  32.1776318 136.8740158   3.6428145
  29.8879992 144.1129978  16.6600014  29.5419992 143.7309978  17.4670014
  29.6879992 145.0459978  16.7310014  29.8135987 144.1869002  16.7800461
  32.9849992 138.6099978   5.2830014  33.8769992 138.4719978   5.6020014
  33.0409992 139.4009978   4.7460014  33.1147325 138.6979918   5.2541217
  23.4929992 143.2239978  11.1930014  24.2379992 143.2209978  10.5910014
  23.5709992 142.3999978  11.6740014  23.6053365 143.1122384  11.1757430
  30.4939992 145.3869978   4.4480014  30.1989992 146.2139978   4.8300014
  29.7909992 144.7679978   4.6450014  30.3586379 145.4164171   4.5268654
  20.5009992 141.6839978  16.5080014  20.7239992 141.2659978  17.3390014
  19.8989992 141.0719978  16.0850014  20.4501513 141.5439606  16.5646740
  27.5179992 141.2009978  18.7210014  27.2219992 141.0359978  17.8250014
  28.4489992 140.9809978  18.7100014  27.6034401 141.1486879  18.5970206
  37.8699992 138.8189978   4.9780014  37.3149992 138.4229978   4.3050014
  37.9699992 139.7299978   4.7000014  37.8076816 138.8879505   4.8485033
  37.8329992 144.6199978  17.8150014  36.9819992 144.8579978  17.4470014
  38.4229992 144.6029978  17.0620014  37.7963812 144.6502524  17.6628453
  33.3249992 142.4129978  12.4640014  32.3969992 142.1819978  12.4370014
  33.7759992 141.6359978  12.1340014  33.2588165 142.2762774  12.4156790
  21.6229992 141.6039978   3.1840014  22.2389992 142.2309978   3.5640014
  20.7609992 141.9199978   3.4560014  21.5907678 141.7324412   3.2727209
  27.2959992 144.4049978   8.1730014  27.0549992 145.3299978   8.2150014
  26.5549992 143.9459978   8.5700014  27.1629206 144.4695915   8.2323769
  31.3539992 144.6529978  14.1890014  30.9289992 144.4249978  15.0150014
  31.9349992 143.9139978  14.0070014  31.3743395 144.5219545  14.2774414
  22.1349992 136.4379978  16.0660014  21.2429992 136.7759978  15.9980014
  22.0369992 135.5819978  16.4840014  21.9994475 136.3686543  16.1131704
  34.4229992 144.2539978   5.4900014  34.1459992 143.5259978   6.0460014
  35.3509992 144.3729978   5.6950014  34.5104499 144.1704213   5.5938044
  23.0379992 143.5159978   4.6770014  22.3519992 143.8689978   5.2440014
  23.5609992 144.2789978   4.4300014  23.0148402 143.6673901   4.7211801
  30.8699992 136.1789978  14.9560014  31.5689992 136.2529978  15.6060014
  30.4889992 135.3139978  15.1100014  30.9142097 136.0722389  15.0657997
  31.6539992 135.8309978   6.0530014  31.8739992 136.3019978   5.2490014
  32.2129992 136.2249978   6.7230014  31.7596731 135.9487287   6.0335033
  28.8539992 137.5589978   6.8880014  29.6659992 138.0629978   6.9340014
  28.6099992 137.4139978   7.8020014  28.9321467 137.6083749   7.0178575
  29.3899992 138.5449978  16.0720014  29.5089992 139.1189978  16.8290014
  30.0449992 137.8569978  16.1870014  29.4948684 138.5305194  16.1911674
  29.7379992 134.6399978   7.8260014  29.3909992 135.2569978   8.4700014
  30.3969992 135.1409978   7.3440014  29.7795090 134.7921575   7.8490681
  25.3959992 135.7029978   4.5130014  25.3119992 136.5909978   4.8600014
  26.2859992 135.4379978   4.7450014  25.5048163 135.7887179   4.5918596
  35.5939992 136.4519978  16.9070014  34.6779992 136.7139978  16.8200014
  35.9299992 136.4489978  16.0110014  35.5138499 136.4875163  16.7738766
  34.1969992 140.2019978  11.0030014  33.3989992 139.7869978  10.6750014
  34.6419992 139.5119978  11.4940014  34.1479684 140.0518628  11.0245227
  21.9699992 138.7949978   2.6890014  21.9249992 139.7339978   2.8680014
  21.0819992 138.5589978   2.4200014  21.8438166 138.8916687   2.6771524
  22.7779992 133.5759978  11.3630014  22.5489992 133.6349978  10.4350014
  22.3359992 132.7849978  11.6690014  22.6868801 133.4770540  11.2774729
  20.9039992 143.9399978  19.8070014  21.0479992 143.0379978  19.5210014
  20.1319992 144.2259978  19.3200014  20.8192733 143.8551798  19.7019532
  25.2449992 144.2829978   1.9400014  25.3099992 143.4889978   2.4700014
  25.8979992 144.1649978   1.2500014  25.3421605 144.1583430   1.9192997
  27.5589992 143.9089978  19.2400014  27.2309992 144.1799978  18.3830014
  27.7109992 142.9679978  19.1520014  27.5346412 143.8189046  19.1107822
  30.5979992 145.3299978   1.6760014  30.3289992 145.5109978   2.5760014
  30.3909992 144.4049978   1.5440014  30.5331191 145.2297119   1.7815524
  33.2939992 143.8249978  16.6230014  34.0389992 144.4139978  16.5040014
  32.5369992 144.4069978  16.6870014  33.2935470 143.9842128  16.6153799
  21.7369992 141.1399978  19.2270014  22.1449992 140.2829978  19.1060014
  21.4759992 141.1539978  20.1480014  21.7576016 141.0245119  19.3349192
  26.3949992 142.2559978   4.2460014  25.9349992 141.7719978   4.9310014
  26.6499992 141.5869978   3.6100014  26.3664856 142.0993669   4.2538397
  25.6839992 140.1489978  16.6020014  25.0649992 140.8229978  16.8820014
  26.0279992 140.4699978  15.7680014  25.6457123 140.2846887  16.5276388
  27.4659992 140.4989978   2.5080014  27.2849992 140.3439978   1.5810014
  28.4159992 140.6069978   2.5530014  27.5696566 140.4923669   2.3870929
  30.7029992 142.6199978  19.8790014  31.6569992 142.7039978  19.8520014
  30.5429992 141.9079978  20.4990014  30.8117182 142.5352842  19.9590733
  36.8559992 142.8529978   1.9540014  36.5819992 142.4289978   1.1410014
  36.8949992 143.7849978   1.7370014  36.8237716 142.9208827   1.8134286
  26.0229992 137.5039978  17.6840014  26.1729992 136.7749978  17.0820014
  26.0249992 138.2809978  17.1250014  26.0437967 137.5092708  17.5260541
  26.4359992 135.8729978  15.1770014  26.9709992 136.3249978  14.5250014
  25.5829992 135.7649978  14.7540014  26.3940374 135.9202665  15.0306710
  28.0169992 141.3129978  15.4160014  28.7679992 141.1569978  14.8430014
  27.6779992 142.1649978  15.1410014  28.0739587 141.4068138  15.3004078
  32.4329992 139.1279978  20.4450014  32.6249992 138.1969978  20.3330014
  33.2909992 139.5529978  20.4340014  32.5752182 139.0580070  20.4281862
  33.7499992 141.9169978  18.5220014  33.4679992 142.6259978  17.9440014
  34.6919992 141.8439978  18.3710014  33.8387921 142.0042193  18.4224225
  24.5019992 138.7019978  19.5950014  23.7339992 138.1689978  19.3850014
  25.1799992 138.3919978  18.9960014  24.4887235 138.5871754  19.4852413
  27.2409992 133.3299978  15.6080014  27.1429992 134.2759978  15.5030014
  26.4989992 132.9569978  15.1320014  27.1272534 133.4091773  15.5292600
  28.5049992 137.6509978  19.1720014  28.2699992 137.4319978  20.0730014
  27.7219992 137.4439978  18.6620014  28.3669095 137.5929892  19.2265353
  31.2209992 136.7789978  18.2470014  30.2729992 136.8109978  18.3790014
  31.5329992 136.1529978  18.9010014  31.1335293 136.6987923  18.3534148
  32.8549992 135.4129978  20.2520014  32.7579992 134.4609978  20.2470014
  32.5329992 135.6809978  21.1130014  32.7982468 135.3190884  20.3676210
  22.6819992 136.6219978  19.3000014  22.8939992 135.9159978  18.6900014
  22.5709992 136.1849978  20.1440014  22.6960269 136.4661921  19.3305873
  27.4629992 132.6239978  18.2790014  28.1749992 131.9839978  18.2650014
  27.3619992 132.8899978  17.3660014  27.5467387 132.5724330  18.1535563
  27.8169992 134.3059978  20.3330014  27.6849992 133.8309978  19.5130014
  27.2169992 135.0509978  20.2780014  27.7179070 134.3415789  20.2133251
  36.0129992 145.4659978  20.4150014  35.1469992 145.3609978  20.8090014
  36.3889992 146.2239978  20.8610014  35.9453401 145.5541708  20.5292620
  37.3139992 143.7219978   5.9290014  38.1639992 144.1429978   6.0560014
  37.3189992 142.9819978   6.5360014  37.4311143 143.6796094   6.0284750
  37.7079992 141.7759978   7.7520014  36.9819992 141.2959978   8.1500014
  38.2899992 141.9809978   8.4850014  37.6872730 141.7380184   7.9054149
  37.4669992 144.5609978  12.7000014  38.3009992 144.1829978  12.4190014
  37.5789992 145.5039978  12.5810014  37.5961917 144.6367943  12.6454861
  37.9769992 141.6769978   4.1430014  37.4549992 142.0329978   3.4250014
  37.9439992 142.3519978   4.8220014  37.9010129 141.8169598   4.1363355
  36.3259992 138.9159978   2.6940014  36.4219992 139.5829978   2.0140014
  36.1859992 138.1009978   2.2130014  36.3202040 138.8970671   2.5358378
  35.4949992 140.2969978   8.3150014  35.3449992 139.3519978   8.2950014
  35.1409992 140.5779978   9.1590014  35.4266351 140.2056644   8.4263220
  20.5299992 142.3749978  12.3260014  20.7149992 142.2929978  11.3900014
  21.3799992 142.2509978  12.7490014  20.6700928 142.3470463  12.2552893
  36.3509992 142.2669978  17.9540014  36.9339992 141.5319978  18.1460014
  36.9149992 143.0389978  18.0010014  36.5069781 142.2708145  17.9866164
  37.8479992 140.1699978  18.6390014  36.9849992 139.7909978  18.4730014
  38.4519992 139.4309978  18.5640014  37.8116085 140.0183223  18.6061695
  35.5729992 136.3239978   1.8120014  36.1839992 135.9529978   2.4490014
  34.7359992 135.9029978   2.0080014  35.5434947 136.2162756   1.9257252
  35.2059992 137.8789978   6.7780014  35.4849992 136.9719978   6.9020014
  35.9649992 138.3129978   6.3890014  35.3468619 137.8134502   6.7423795
  35.8169992 138.4609978  12.2140014  36.7499992 138.6729978  12.1790014
  35.5819992 138.5619978  13.1360014  35.9129517 138.5036833  12.3339130
  35.8469992 139.1979978  14.9900014  35.0039992 139.4659978  15.3560014
  36.2889992 140.0199978  14.7790014  35.7914138 139.3458273  15.0115518
  20.1279992 137.6449978  18.4660014  21.0469992 137.5229978  18.7030014
  19.6779992 136.8949978  18.8560014  20.1930087 137.5269608  18.5511410
  38.1299992 133.1779978  20.3430014  38.4789992 132.5239978  19.7380014
  38.2769992 134.0149978  19.9030014  38.1976824 133.2016024  20.2006304
  35.8189992 135.1419978   6.8260014  36.0009992 134.6929978   7.6510014
  35.2189992 134.5579978   6.3620014  35.7628187 135.0015552   6.8762739
  21.3489992 135.9579978  11.3580014  21.7939992 135.1659978  11.6600014
  21.8149992 136.6739978  11.7880014  21.4729718 135.9464534  11.4575265
  19.6529992 138.9569978  12.4270014  20.1449992 138.7359978  11.6360014
  20.0149992 139.7969978  12.7080014  19.7692923 139.0403468  12.3567407
  37.6489992 135.2869978  18.6920014  36.7319992 135.5579978  18.6570014
  37.7719992 134.7519978  17.9080014  37.5399672 135.2517885  18.5811862
  37.6859992 135.2099978   3.3540014  38.0979992 134.4889978   2.8790014
  38.3669992 135.8789978   3.4120014  37.8345536 135.2017766   3.2968024
  19.9669992 135.2149978   6.4810014  19.0419992 135.4229978   6.3520014
  20.4209992 135.6989978   5.7910014  19.9016298 135.3089299   6.3700451
  19.9299992 133.9529978  14.8250014  19.2649992 133.7069978  15.4680014
  19.4869992 134.5749978  14.2480014  19.7791168 134.0034214  14.8349848
  36.6499992 133.3769978  16.5110014  35.8369992 133.7019978  16.1240014
  36.8829992 132.6159978  15.9780014  36.5701347 133.3186880  16.3859841
  30.0799992 134.8259978  10.8340014  29.4059992 134.1959978  11.0900014
  30.6439992 134.3419978  10.2310014  30.0640384 134.6743708  10.7875020
  35.2229992 132.9329978  10.9470014  35.8259992 133.4809978  10.4450014
  34.3529992 133.2519978  10.7060014  35.1879157 133.0510373  10.8457910
  36.9499992 134.0719978   9.2800014  37.5609992 133.5579978   8.7530014
  37.3319992 134.9489978   9.3030014  37.0853305 134.1202050   9.2109418
  22.4069992 133.4599978   8.6560014  21.6299992 133.2249978   8.1490014
  22.9369992 132.6629978   8.6650014  22.3723451 133.3201268   8.5878627
  21.2429992 133.2579978   4.4600014  21.6819992 133.8689978   3.8680014
  20.6089992 133.7959978   4.9340014  21.2173859 133.4144064   4.4430305
  26.9859992 133.3859978   8.4690014  27.8599992 133.7749978   8.4400014
  26.8499992 133.1709978   9.3920014  27.0871953 133.4101643   8.5897617
  32.5429992 133.4159978  10.1190014  32.6189992 133.5119978   9.1690014
  32.2679992 132.5089978  10.2470014  32.5161871 133.3064146  10.0063944
  33.8959992 133.4419978   5.8110014  33.1929992 134.0569978   5.6010014
  33.4509992 132.6049978   5.9420014  33.7396550 133.4129668   5.7999837
  23.1039992 135.1739978   2.9020014  23.5949992 134.5439978   2.3750014
  23.7269992 135.4699978   3.5650014  23.2555304 135.1277376   2.9194940
  28.1299992 135.4669978   5.3590014  28.3079992 134.8199978   6.0420014
  28.0759992 136.3009978   5.8260014  28.1470678 135.4911604   5.5156301
  22.3639992 133.9739978  18.1740014  21.9979992 133.2079978  18.6160014
  23.2769992 134.0029978  18.4600014  22.4373172 133.8730324  18.2731890
  24.3369992 133.3239978  19.7090014  25.2359992 133.0499978  19.5250014
  23.9509992 132.5819978  20.1740014  24.4077307 133.1862196  19.7467098
  32.7589992 132.6569978  19.8920014  32.8349992 132.2309978  20.7450014
  33.6519992 132.6699978  19.5490014  32.8902303 132.6003493  19.9625497
  50.3409992 142.6159978   8.6150014  50.4299992 143.5599978   8.4830014
  49.7029992 142.3409978   7.9570014  50.2669062 142.7079812   8.5079641
  49.2739992 141.8709978  12.0340014  49.2359992 141.2249978  12.7390014
  48.9519992 141.4039978  11.2630014  49.2252679 141.7194276  12.0262921
  41.6419992 141.4849978  13.6270014  41.6839992 140.8599978  14.3500014
  42.3449992 142.1089978  13.8090014  41.7427345 141.4837873  13.7505274
  52.9799992 144.8099978  10.3350014  52.5389992 144.0899978  10.7860014
  52.9669992 145.5309978  10.9650014  52.9179215 144.8089291  10.4818105
  39.1759992 139.5949978   7.5540014  38.7279992 140.4409978   7.5360014
  38.6149992 139.0159978   7.0390014  39.0388546 139.6323993   7.4818891
  39.8859992 141.7569978   9.6800014  40.0999992 140.9869978  10.2080014
  40.6239992 141.8469978   9.0770014  40.0150200 141.6638587   9.6707035
  47.6629992 144.3029978  12.4400014  47.9669992 143.6169978  11.8450014
  48.3849992 144.4219978  13.0580014  47.8021240 144.2252314  12.4420959
  56.3259992 135.9049978  13.3000014  56.3759992 136.5149978  14.0360014
  56.7519992 136.3659978  12.5770014  56.3904108 136.0507709  13.3030112
  50.8039992 138.6969978  12.7670014  50.9469992 137.7509978  12.7870014
  50.6979992 138.9039978  11.8390014  50.8092403 138.5954797  12.6442239
  43.9589992 136.7989978  10.0400014  44.0019992 137.6589978   9.6210014
  43.5009992 136.2469978   9.4060014  43.9029871 136.8419245   9.8970761
  51.6809992 136.9299978   8.4410014  52.3279992 136.6009978   9.0650014
  52.1909992 137.4469978   7.8180014  51.8384351 136.9549067   8.4421037
  40.5789992 139.1959978  10.8020014  41.2329992 138.6459978  11.2340014
  40.6029992 138.9219978   9.8850014  40.6717199 139.0837167  10.7371668
  45.7359992 140.7459978  10.0170014  46.3519992 140.2189978  10.5260014
  45.1489992 140.1059978   9.6130014  45.7410154 140.5873954  10.0320945
  56.7179992 137.3829978  15.5360014  56.0289992 138.0409978  15.4410014
  56.7329992 137.1849978  16.4730014  56.6257756 137.4462603  15.6495812
  42.7689992 135.7169978  14.1140014  42.5499992 136.2469978  13.3470014
  42.1009992 135.9429978  14.7610014  42.6486975 135.8200967  14.0965140
  50.1379992 145.2169978   7.6580014  49.8429992 144.8939978   6.8060014
  49.8139992 146.1169978   7.6990014  50.0538460 145.2944464   7.5469714
  45.3379992 143.3919978  14.4010014  44.5979992 143.9909978  14.5050014
  46.0519992 143.9459978  14.0860014  45.3333500 143.5487829  14.3726371
  53.4449992 136.2209978  10.4210014  53.2299992 135.4549978  10.9540014
  54.1009992 136.6929978  10.9340014  53.5042673 136.1800728  10.5631990
  42.3629992 137.6089978  12.0660014  42.9769992 138.2419978  12.4390014
  42.8749992 137.1369978  11.4100014  42.5161962 137.6317249  12.0282935
  43.7459992 145.3569978  15.1880014  43.7399992 146.2359978  14.8100014
  42.8919992 145.2729978  15.6130014  43.6297925 145.4659535  15.1936887
  39.8669992 145.0279978   5.9700014  39.5949992 145.2569978   5.0820014
  39.9119992 145.8649978   6.4310014  39.8358097 145.1726163   5.9106683
  53.7919992 134.9359978  14.1000014  53.0559992 135.5459978  14.0630014
  54.4759992 135.3509978  13.5740014  53.7835367 135.0757551  14.0238174
  46.7959992 133.0219978  11.5660014  46.6779992 132.0739978  11.5120014
  45.9409992 133.3549978  11.8390014  46.6642805 132.9372202  11.5955079
  54.5899992 144.8979978  16.2940014  54.7289992 144.3059978  15.5550014
  54.7569992 145.7709978  15.9380014  54.6316193 144.9348896  16.1446211
  49.0619992 141.8599978   6.0670014  48.3509992 142.3949978   5.7150014
  49.7529992 141.9149978   5.4070014  49.0580751 141.9406777   5.9295858
  49.1159992 140.3169978   3.1050014  49.8169992 140.3399978   3.7570014
  49.4179992 139.6889978   2.4490014  49.2528202 140.2352212   3.1055609
  56.4309992 141.2379978  14.3600014  55.7789992 141.9319978  14.4490014
  56.8969992 141.4479978  13.5500014  56.4045937 141.3615019  14.2627533
  52.4679992 142.0689978   7.0180014  51.7359992 142.2979978   7.5920014
  52.9149992 141.3559978   7.4730014  52.4283963 142.0038729   7.1579945
  52.3649992 140.2439978  16.0860014  52.4449992 141.0069978  16.6580014
  51.7639992 140.5229978  15.3960014  52.2946547 140.3862457  16.0710047
  44.1129992 142.6999978   8.9010014  43.7829992 142.3289978   8.0830014
  44.7019992 142.0289978   9.2480014  44.1473970 142.5586063   8.8359404
  44.4799992 141.4679978  12.5340014  45.0449992 141.5899978  11.7720014
  44.7989992 142.1059978  13.1730014  44.6004166 141.5708791  12.5160348
  51.3389992 141.2319978   4.7040014  51.9179992 141.3819978   5.4500014
  51.7529992 141.7019978   3.9800014  51.4743358 141.3160955   4.7083953
  42.2799992 142.0659978  16.4800014  42.3499992 142.7169978  17.1790014
  41.3889992 142.1689978  16.1450014  42.1691690 142.1689249  16.5303043
  55.0379992 132.9819978   4.5170014  54.1379992 133.1209978   4.8120014
  55.2899992 133.8129978   4.1150014  54.9488683 133.1134055   4.5030232
  43.1039992 141.7689978   6.4900014  42.8119992 142.5369978   5.9990014
  42.4289992 141.1099978   6.3270014  42.9728497 141.7849745   6.4008260
  39.1969992 144.1319978  15.3050014  38.6949992 144.1039978  14.4900014
  39.2019992 143.2269978  15.6150014  39.1289832 144.0057486  15.2354121
  54.2969992 139.0719978  18.3520014  53.8889992 139.5519978  17.6310014
  54.3369992 138.1659978  18.0440014  54.2466221 139.0152449  18.2118267
  41.4459992 145.4559978  16.3480014  41.6619992 145.0939978  17.2080014
  40.5899992 145.0809978  16.1390014  41.3598810 145.3558837  16.4372680
  44.0639992 133.9259978  12.3440014  43.2029992 133.8389978  11.9360014
  44.0419992 134.7819978  12.7720014  43.9430491 134.0298003  12.3459582
  48.7269992 133.6479978  15.7190014  49.1469992 133.2329978  16.4720014
  47.7939992 133.4689978  15.8360014  48.6583736 133.5669910  15.8378968
  52.0539992 137.4029978  16.5720014  51.5399992 137.2779978  17.3700014
  51.8979992 138.3159978  16.3280014  51.9626967 137.5092123  16.6480937
  52.8159992 142.2639978   2.3330014  52.8579992 142.0419978   1.4030014
  53.6649992 142.6629978   2.5230014  52.9365253 142.2875498   2.2313822
  48.3889992 136.1399978   3.0040014  48.1349992 136.1589978   3.9260014
  48.1319992 135.2689978   2.7020014  48.3194508 136.0248280   3.0894803
  44.1549992 138.8909978  13.4390014  43.5139992 138.8509978  14.1480014
  44.1929992 139.8179978  13.2010014  44.0723010 139.0107668  13.5039946
  44.1519992 139.1119978   8.3510014  43.2599992 138.7719978   8.2920014
  44.6029992 138.7349978   7.5950014  44.0907642 139.0144910   8.2407726
  49.6879992 139.5279978   7.1680014  49.2789992 140.3429978   6.8760014
  50.4079992 139.3879978   6.5540014  49.7294439 139.6205372   7.0450115
  48.7899992 139.7039978  18.6560014  48.2269992 138.9989978  18.9770014
  49.6159992 139.5829978  19.1240014  48.8246674 139.5912165  18.7631751
  50.6929992 138.9739978   9.9820014  50.4969992 139.5799978   9.2670014
  50.8739992 138.1409978   9.5480014  50.6906584 138.9442513   9.8254212
  41.9049992 139.2119978  15.3060014  41.8669992 139.6119978  16.1750014
  41.4149992 138.3949978  15.3960014  41.8335330 139.1562674  15.4371289
  45.2709992 136.5859978   2.1050014  44.8399992 136.1409978   2.8340014
  44.5529992 136.9569978   1.5920014  45.1149176 136.5752051   2.1354930
  38.5139992 136.3279978   9.1570014  39.1439992 136.2989978   9.8760014
  38.9629992 135.9029978   8.4260014  38.6610835 136.2665660   9.1567659
  39.7879992 137.0739978   4.5810014  40.2619992 137.6649978   3.9960014
  39.0699992 137.6039978   4.9280014  39.7558640 137.2265511   4.5477969
  49.9569992 140.6119978  14.6530014  50.2799992 139.9809978  14.0100014
  49.5159992 140.0779978  15.3140014  49.9416379 140.4533468  14.6542582
  46.7339992 136.5399978   9.4370014  45.8229992 136.5969978   9.7260014
  47.2389992 136.4799978  10.2480014  46.6776873 136.5396826   9.5861207
  41.5619992 138.1689978   8.2640014  40.6729992 138.2679978   7.9240014
  41.8589992 137.3269978   7.9180014  41.4804177 138.0687687   8.1706940
  45.2149992 138.1689978   5.9210014  46.1469992 138.2979978   6.0990014
  44.9999992 138.8379978   5.2710014  45.3134472 138.2770806   5.8574891
  51.1389992 135.7749978  12.7020014  50.4619992 135.9059978  13.3650014
  50.6539992 135.6199978  11.8910014  50.9807405 135.7719947  12.6832170
  43.8889992 139.3629978   3.4870014  43.3469992 138.9839978   2.7960014
  44.7229992 139.5579978   3.0590014  43.9274390 139.3374079   3.3344392
  42.0249992 143.9199978  18.5860014  42.7569992 144.1749978  19.1480014
  41.2439992 144.1249978  19.1020014  42.0196526 143.9825450  18.7325176
  48.0539992 139.3269978  11.3240014  48.6179992 138.7809978  10.7770014
  47.9059992 138.8059978  12.1130014  48.1113037 139.1816787  11.3557229
  43.0559992 135.4639978   7.7430014  42.7389992 134.5609978   7.7070014
  43.8369992 135.4659978   7.1900014  43.1182431 135.3407797   7.6633102
  46.6799992 137.7159978  13.7380014  45.8449992 138.1699978  13.8490014
  47.2039992 137.9919978  14.4900014  46.6366072 137.8153948  13.8548136
  47.2249992 143.9289978   5.4230014  46.4799992 143.4209978   5.1010014
  47.0899992 143.9779978   6.3690014  47.1048963 143.8661731   5.5068826
  54.3749992 143.0619978  14.2100014  55.0159992 143.5179978  13.6660014
  53.5439992 143.1749978  13.7470014  54.3505287 143.1396921  14.0729887
  51.1219992 136.7429978   3.6220014  50.1839992 136.8539978   3.4710014
  51.4199992 137.5989978   3.9290014  51.0336318 136.8740158   3.6428145
  48.7439992 144.1129978  16.6600014  48.3979992 143.7309978  17.4670014
  48.5439992 145.0459978  16.7310014  48.6695987 144.1869002  16.7800461
  51.8409992 138.6099978   5.2830014  52.7329992 138.4719978   5.6020014
  51.8969992 139.4009978   4.7460014  51.9707325 138.6979918   5.2541217
  42.3489992 143.2239978  11.1930014  43.0939992 143.2209978  10.5910014
  42.4269992 142.3999978  11.6740014  42.4613365 143.1122384  11.1757430
  49.3499992 145.3869978   4.4480014  49.0549992 146.2139978   4.8300014
  48.6469992 144.7679978   4.6450014  49.2146379 145.4164171   4.5268654
  39.3569992 141.6839978  16.5080014  39.5799992 141.2659978  17.3390014
  38.7549992 141.0719978  16.0850014  39.3061513 141.5439606  16.5646740
  46.3739992 141.2009978  18.7210014  46.0779992 141.0359978  17.8250014
  47.3049992 140.9809978  18.7100014  46.4594401 141.1486879  18.5970206
  56.7259992 138.8189978   4.9780014  56.1709992 138.4229978   4.3050014
  56.8259992 139.7299978   4.7000014  56.6636816 138.8879505   4.8485033
  56.6889992 144.6199978  17.8150014  55.8379992 144.8579978  17.4470014
  57.2789992 144.6029978  17.0620014  56.6523812 144.6502524  17.6628453
  52.1809992 142.4129978  12.4640014  51.2529992 142.1819978  12.4370014
  52.6319992 141.6359978  12.1340014  52.1148165 142.2762774  12.4156790
  40.4789992 141.6039978   3.1840014  41.0949992 142.2309978   3.5640014
  39.6169992 141.9199978   3.4560014  40.4467678 141.7324412   3.2727209
  46.1519992 144.4049978   8.1730014  45.9109992 145.3299978   8.2150014
  45.4109992 143.9459978   8.5700014  46.0189206 144.4695915   8.2323769
  50.2099992 144.6529978  14.1890014  49.7849992 144.4249978  15.0150014
  50.7909992 143.9139978  14.0070014  50.2303395 144.5219545  14.2774414
  40.9909992 136.4379978  16.0660014  40.0989992 136.7759978  15.9980014
  40.8929992 135.5819978  16.4840014  40.8554475 136.3686543  16.1131704
  53.2789992 144.2539978   5.4900014  53.0019992 143.5259978   6.0460014
  54.2069992 144.3729978   5.6950014  53.3664499 144.1704213   5.5938044
  41.8939992 143.5159978   4.6770014  41.2079992 143.8689978   5.2440014
  42.4169992 144.2789978   4.4300014  41.8708402 143.6673901   4.7211801
  49.7259992 136.1789978  14.9560014  50.4249992 136.2529978  15.6060014
  49.3449992 135.3139978  15.1100014  49.7702097 136.0722389  15.0657997
  50.5099992 135.8309978   6.0530014  50.7299992 136.3019978   5.2490014
  51.0689992 136.2249978   6.7230014  50.6156731 135.9487287   6.0335033
  47.7099992 137.5589978   6.8880014  48.5219992 138.0629978   6.9340014
  47.4659992 137.4139978   7.8020014  47.7881467 137.6083749   7.0178575
  48.2459992 138.5449978  16.0720014  48.3649992 139.1189978  16.8290014
  48.9009992 137.8569978  16.1870014  48.3508684 138.5305194  16.1911674
  48.5939992 134.6399978   7.8260014  48.2469992 135.2569978   8.4700014
  49.2529992 135.1409978   7.3440014  48.6355090 134.7921575   7.8490681
  44.2519992 135.7029978   4.5130014  44.1679992 136.5909978   4.8600014
  45.1419992 135.4379978   4.7450014  44.3608163 135.7887179   4.5918596
  54.4499992 136.4519978  16.9070014  53.5339992 136.7139978  16.8200014
  54.7859992 136.4489978  16.0110014  54.3698499 136.4875163  16.7738766
  53.0529992 140.2019978  11.0030014  52.2549992 139.7869978  10.6750014
  53.4979992 139.5119978  11.4940014  53.0039684 140.0518628  11.0245227
  40.8259992 138.7949978   2.6890014  40.7809992 139.7339978   2.8680014
  39.9379992 138.5589978   2.4200014  40.6998166 138.8916687   2.6771524
  41.6339992 133.5759978  11.3630014  41.4049992 133.6349978  10.4350014
  41.1919992 132.7849978  11.6690014  41.5428801 133.4770540  11.2774729
  39.7599992 143.9399978  19.8070014  39.9039992 143.0379978  19.5210014
  38.9879992 144.2259978  19.3200014  39.6752733 143.8551798  19.7019532
  44.1009992 144.2829978   1.9400014  44.1659992 143.4889978   2.4700014
  44.7539992 144.1649978   1.2500014  44.1981605 144.1583430   1.9192997
  46.4149992 143.9089978  19.2400014  46.0869992 144.1799978  18.3830014
  46.5669992 142.9679978  19.1520014  46.3906412 143.8189046  19.1107822
  49.4539992 145.3299978   1.6760014  49.1849992 145.5109978   2.5760014
  49.2469992 144.4049978   1.5440014  49.3891191 145.2297119   1.7815524
  52.1499992 143.8249978  16.6230014  52.8949992 144.4139978  16.5040014
  51.3929992 144.4069978  16.6870014  52.1495470 143.9842128  16.6153799
  40.5929992 141.1399978  19.2270014  41.0009992 140.2829978  19.1060014
  40.3319992 141.1539978  20.1480014  40.6136016 141.0245119  19.3349192
  45.2509992 142.2559978   4.2460014  44.7909992 141.7719978   4.9310014
  45.5059992 141.5869978   3.6100014  45.2224856 142.0993669   4.2538397
  44.5399992 140.1489978  16.6020014  43.9209992 140.8229978  16.8820014
  44.8839992 140.4699978  15.7680014  44.5017123 140.2846887  16.5276388
  46.3219992 140.4989978   2.5080014  46.1409992 140.3439978   1.5810014
  47.2719992 140.6069978   2.5530014  46.4256566 140.4923669   2.3870929
  49.5589992 142.6199978  19.8790014  50.5129992 142.7039978  19.8520014
  49.3989992 141.9079978  20.4990014  49.6677182 142.5352842  19.9590733
  55.7119992 142.8529978   1.9540014  55.4379992 142.4289978   1.1410014
  55.7509992 143.7849978   1.7370014  55.6797716 142.9208827   1.8134286
  44.8789992 137.5039978  17.6840014  45.0289992 136.7749978  17.0820014
  44.8809992 138.2809978  17.1250014  44.8997967 137.5092708  17.5260541
  45.2919992 135.8729978  15.1770014  45.8269992 136.3249978  14.5250014
  44.4389992 135.7649978  14.7540014  45.2500374 135.9202665  15.0306710
  46.8729992 141.3129978  15.4160014  47.6239992 141.1569978  14.8430014
  46.5339992 142.1649978  15.1410014  46.9299587 141.4068138  15.3004078
  51.2889992 139.1279978  20.4450014  51.4809992 138.1969978  20.3330014
  52.1469992 139.5529978  20.4340014  51.4312182 139.0580070  20.4281862
  52.6059992 141.9169978  18.5220014  52.3239992 142.6259978  17.9440014
  53.5479992 141.8439978  18.3710014  52.6947921 142.0042193  18.4224225
  43.3579992 138.7019978  19.5950014  42.5899992 138.1689978  19.3850014
  44.0359992 138.3919978  18.9960014  43.3447235 138.5871754  19.4852413
  46.0969992 133.3299978  15.6080014  45.9989992 134.2759978  15.5030014
  45.3549992 132.9569978  15.1320014  45.9832534 133.4091773  15.5292600
  47.3609992 137.6509978  19.1720014  47.1259992 137.4319978  20.0730014
  46.5779992 137.4439978  18.6620014  47.2229095 137.5929892  19.2265353
  50.0769992 136.7789978  18.2470014  49.1289992 136.8109978  18.3790014
  50.3889992 136.1529978  18.9010014  49.9895293 136.6987923  18.3534148
  51.7109992 135.4129978  20.2520014  51.6139992 134.4609978  20.2470014
  51.3889992 135.6809978  21.1130014  51.6542468 135.3190884  20.3676210
  41.5379992 136.6219978  19.3000014  41.7499992 135.9159978  18.6900014
  41.4269992 136.1849978  20.1440014  41.5520269 136.4661921  19.3305873
  46.3189992 132.6239978  18.2790014  47.0309992 131.9839978  18.2650014
  46.2179992 132.8899978  17.3660014  46.4027387 132.5724330  18.1535563
  46.6729992 134.3059978  20.3330014  46.5409992 133.8309978  19.5130014
  46.0729992 135.0509978  20.2780014  46.5739070 134.3415789  20.2133251
  54.8689992 145.4659978  20.4150014  54.0029992 145.3609978  20.8090014
  55.2449992 146.2239978  20.8610014  54.8013401 145.5541708  20.5292620
  56.1699992 143.7219978   5.9290014  57.0199992 144.1429978   6.0560014
  56.1749992 142.9819978   6.5360014  56.2871143 143.6796094   6.0284750
  56.5639992 141.7759978   7.7520014  55.8379992 141.2959978   8.1500014
  57.1459992 141.9809978   8.4850014  56.5432730 141.7380184   7.9054149
  56.3229992 144.5609978  12.7000014  57.1569992 144.1829978  12.4190014
  56.4349992 145.5039978  12.5810014  56.4521917 144.6367943  12.6454861
  56.8329992 141.6769978   4.1430014  56.3109992 142.0329978   3.4250014
  56.7999992 142.3519978   4.8220014  56.7570129 141.8169598   4.1363355
  55.1819992 138.9159978   2.6940014  55.2779992 139.5829978   2.0140014
  55.0419992 138.1009978   2.2130014  55.1762040 138.8970671   2.5358378
  54.3509992 140.2969978   8.3150014  54.2009992 139.3519978   8.2950014
  53.9969992 140.5779978   9.1590014  54.2826351 140.2056644   8.4263220
  39.3859992 142.3749978  12.3260014  39.5709992 142.2929978  11.3900014
  40.2359992 142.2509978  12.7490014  39.5260928 142.3470463  12.2552893
  55.2069992 142.2669978  17.9540014  55.7899992 141.5319978  18.1460014
  55.7709992 143.0389978  18.0010014  55.3629781 142.2708145  17.9866164
  56.7039992 140.1699978  18.6390014  55.8409992 139.7909978  18.4730014
  57.3079992 139.4309978  18.5640014  56.6676085 140.0183223  18.6061695
  54.4289992 136.3239978   1.8120014  55.0399992 135.9529978   2.4490014
  53.5919992 135.9029978   2.0080014  54.3994947 136.2162756   1.9257252
  54.0619992 137.8789978   6.7780014  54.3409992 136.9719978   6.9020014
  54.8209992 138.3129978   6.3890014  54.2028619 137.8134502   6.7423795
  54.6729992 138.4609978  12.2140014  55.6059992 138.6729978  12.1790014
  54.4379992 138.5619978  13.1360014  54.7689517 138.5036833  12.3339130
  54.7029992 139.1979978  14.9900014  53.8599992 139.4659978  15.3560014
  55.1449992 140.0199978  14.7790014  54.6474138 139.3458273  15.0115518
  38.9839992 137.6449978  18.4660014  39.9029992 137.5229978  18.7030014
  38.5339992 136.8949978  18.8560014  39.0490087 137.5269608  18.5511410
  56.9859992 133.1779978  20.3430014  57.3349992 132.5239978  19.7380014
  57.1329992 134.0149978  19.9030014  57.0536824 133.2016024  20.2006304
  54.6749992 135.1419978   6.8260014  54.8569992 134.6929978   7.6510014
  54.0749992 134.5579978   6.3620014  54.6188187 135.0015552   6.8762739
  40.2049992 135.9579978  11.3580014  40.6499992 135.1659978  11.6600014
  40.6709992 136.6739978  11.7880014  40.3289718 135.9464534  11.4575265
  38.5089992 138.9569978  12.4270014  39.0009992 138.7359978  11.6360014
  38.8709992 139.7969978  12.7080014  38.6252923 139.0403468  12.3567407
  56.5049992 135.2869978  18.6920014  55.5879992 135.5579978  18.6570014
  56.6279992 134.7519978  17.9080014  56.3959672 135.2517885  18.5811862
  56.5419992 135.2099978   3.3540014  56.9539992 134.4889978   2.8790014
  57.2229992 135.8789978   3.4120014  56.6905536 135.2017766   3.2968024
  38.8229992 135.2149978   6.4810014  37.8979992 135.4229978   6.3520014
  39.2769992 135.6989978   5.7910014  38.7576298 135.3089299   6.3700451
  38.7859992 133.9529978  14.8250014  38.1209992 133.7069978  15.4680014
  38.3429992 134.5749978  14.2480014  38.6351168 134.0034214  14.8349848
  55.5059992 133.3769978  16.5110014  54.6929992 133.7019978  16.1240014
  55.7389992 132.6159978  15.9780014  55.4261347 133.3186880  16.3859841
  48.9359992 134.8259978  10.8340014  48.2619992 134.1959978  11.0900014
  49.4999992 134.3419978  10.2310014  48.9200384 134.6743708  10.7875020
  54.0789992 132.9329978  10.9470014  54.6819992 133.4809978  10.4450014
  53.2089992 133.2519978  10.7060014  54.0439157 133.0510373  10.8457910
  55.8059992 134.0719978   9.2800014  56.4169992 133.5579978   8.7530014
  56.1879992 134.9489978   9.3030014  55.9413305 134.1202050   9.2109418
  41.2629992 133.4599978   8.6560014  40.4859992 133.2249978   8.1490014
  41.7929992 132.6629978   8.6650014  41.2283451 133.3201268   8.5878627
  40.0989992 133.2579978   4.4600014  40.5379992 133.8689978   3.8680014
  39.4649992 133.7959978   4.9340014  40.0733859 133.4144064   4.4430305
  45.8419992 133.3859978   8.4690014  46.7159992 133.7749978   8.4400014
  45.7059992 133.1709978   9.3920014  45.9431953 133.4101643   8.5897617
  51.3989992 133.4159978  10.1190014  51.4749992 133.5119978   9.1690014
  51.1239992 132.5089978  10.2470014  51.3721871 133.3064146  10.0063944
  52.7519992 133.4419978   5.8110014  52.0489992 134.0569978   5.6010014
  52.3069992 132.6049978   5.9420014  52.5956550 133.4129668   5.7999837
  41.9599992 135.1739978   2.9020014  42.4509992 134.5439978   2.3750014
  42.5829992 135.4699978   3.5650014  42.1115304 135.1277376   2.9194940
  46.9859992 135.4669978   5.3590014  47.1639992 134.8199978   6.0420014
  46.9319992 136.3009978   5.8260014  47.0030678 135.4911604   5.5156301
  41.2199992 133.9739978  18.1740014  40.8539992 133.2079978  18.6160014
  42.1329992 134.0029978  18.4600014  41.2933172 133.8730324  18.2731890
  43.1929992 133.3239978  19.7090014  44.0919992 133.0499978  19.5250014
  42.8069992 132.5819978  20.1740014  43.2637307 133.1862196  19.7467098
  51.6149992 132.6569978  19.8920014  51.6909992 132.2309978  20.7450014
  52.5079992 132.6699978  19.5490014  51.7462303 132.6003493  19.9625497
  69.1969992 142.6159978   8.6150014  69.2859992 143.5599978   8.4830014
  68.5589992 142.3409978   7.9570014  69.1229062 142.7079812   8.5079641
  68.1299992 141.8709978  12.0340014  68.0919992 141.2249978  12.7390014
  67.8079992 141.4039978  11.2630014  68.0812679 141.7194276  12.0262921
  60.4979992 141.4849978  13.6270014  60.5399992 140.8599978  14.3500014
  61.2009992 142.1089978  13.8090014  60.5987345 141.4837873  13.7505273
  71.8359992 144.8099978  10.3350014  71.3949992 144.0899978  10.7860014
  71.8229992 145.5309978  10.9650014  71.7739215 144.8089291  10.4818105
  58.0319992 139.5949978   7.5540014  57.5839992 140.4409978   7.5360014
  57.4709992 139.0159978   7.0390014  57.8948546 139.6323993   7.4818891
  58.7419992 141.7569978   9.6800014  58.9559992 140.9869978  10.2080014
  59.4799992 141.8469978   9.0770014  58.8710200 141.6638586   9.6707035
  66.5189992 144.3029978  12.4400014  66.8229992 143.6169978  11.8450014
  67.2409992 144.4219978  13.0580014  66.6581240 144.2252314  12.4420959
  75.1819992 135.9049978  13.3000014  75.2319992 136.5149978  14.0360014
  75.6079992 136.3659978  12.5770014  75.2464108 136.0507709  13.3030112
  69.6599992 138.6969978  12.7670014  69.8029992 137.7509978  12.7870014
  69.5539992 138.9039978  11.8390014  69.6652403 138.5954797  12.6442239
  62.8149992 136.7989978  10.0400014  62.8579992 137.6589978   9.6210014
  62.3569992 136.2469978   9.4060014  62.7589871 136.8419245   9.8970761
  70.5369992 136.9299978   8.4410014  71.1839992 136.6009978   9.0650014
  71.0469992 137.4469978   7.8180014  70.6944351 136.9549067   8.4421037
  59.4349992 139.1959978  10.8020014  60.0889992 138.6459978  11.2340014
  59.4589992 138.9219978   9.8850014  59.5277199 139.0837167  10.7371668
  64.5919992 140.7459978  10.0170014  65.2079992 140.2189978  10.5260014
  64.0049992 140.1059978   9.6130014  64.5970154 140.5873954  10.0320945
  75.5739992 137.3829978  15.5360014  74.8849992 138.0409978  15.4410014
  75.5889992 137.1849978  16.4730014  75.4817756 137.4462603  15.6495812
  61.6249992 135.7169978  14.1140014  61.4059992 136.2469978  13.3470014
  60.9569992 135.9429978  14.7610014  61.5046975 135.8200967  14.0965140
  68.9939992 145.2169978   7.6580014  68.6989992 144.8939978   6.8060014
  68.6699992 146.1169978   7.6990014  68.9098460 145.2944464   7.5469714
  64.1939992 143.3919978  14.4010014  63.4539992 143.9909978  14.5050014
  64.9079992 143.9459978  14.0860014  64.1893500 143.5487829  14.3726371
  72.3009992 136.2209978  10.4210014  72.0859992 135.4549978  10.9540014
  72.9569992 136.6929978  10.9340014  72.3602673 136.1800728  10.5631990
  61.2189992 137.6089978  12.0660014  61.8329992 138.2419978  12.4390014
  61.7309992 137.1369978  11.4100014  61.3721962 137.6317249  12.0282935
  62.6019992 145.3569978  15.1880014  62.5959992 146.2359978  14.8100014
  61.7479992 145.2729978  15.6130014  62.4857925 145.4659535  15.1936887
  58.7229992 145.0279978   5.9700014  58.4509992 145.2569978   5.0820014
  58.7679992 145.8649978   6.4310014  58.6918097 145.1726163   5.9106683
  72.6479992 134.9359978  14.1000014  71.9119992 135.5459978  14.0630014
  73.3319992 135.3509978  13.5740014  72.6395367 135.0757551  14.0238174
  65.6519992 133.0219978  11.5660014  65.5339992 132.0739978  11.5120014
  64.7969992 133.3549978  11.8390014  65.5202805 132.9372202  11.5955079
  73.4459992 144.8979978  16.2940014  73.5849992 144.3059978  15.5550014
  73.6129992 145.7709978  15.9380014  73.4876193 144.9348896  16.1446211
  67.9179992 141.8599978   6.0670014  67.2069992 142.3949978   5.7150014
  68.6089992 141.9149978   5.4070014  67.9140751 141.9406777   5.9295858
  67.9719992 140.3169978   3.1050014  68.6729992 140.3399978   3.7570014
  68.2739992 139.6889978   2.4490014  68.1088202 140.2352212   3.1055609
  75.2869992 141.2379978  14.3600014  74.6349992 141.9319978  14.4490014
  75.7529992 141.4479978  13.5500014  75.2605937 141.3615019  14.2627533
  71.3239992 142.0689978   7.0180014  70.5919992 142.2979978   7.5920014
  71.7709992 141.3559978   7.4730014  71.2843963 142.0038729   7.1579945
  71.2209992 140.2439978  16.0860014  71.3009992 141.0069978  16.6580014
  70.6199992 140.5229978  15.3960014  71.1506547 140.3862457  16.0710047
  62.9689992 142.6999978   8.9010014  62.6389992 142.3289978   8.0830014
  63.5579992 142.0289978   9.2480014  63.0033970 142.5586063   8.8359404
  63.3359992 141.4679978  12.5340014  63.9009992 141.5899978  11.7720014
  63.6549992 142.1059978  13.1730014  63.4564166 141.5708791  12.5160348
  70.1949992 141.2319978   4.7040014  70.7739992 141.3819978   5.4500014
  70.6089992 141.7019978   3.9800014  70.3303358 141.3160955   4.7083953
  61.1359992 142.0659978  16.4800014  61.2059992 142.7169978  17.1790014
  60.2449992 142.1689978  16.1450014  61.0251690 142.1689249  16.5303043
  73.8939992 132.9819978   4.5170014  72.9939992 133.1209978   4.8120014
  74.1459992 133.8129978   4.1150014  73.8048683 133.1134055   4.5030232
  61.9599992 141.7689978   6.4900014  61.6679992 142.5369978   5.9990014
  61.2849992 141.1099978   6.3270014  61.8288497 141.7849745   6.4008260
  58.0529992 144.1319978  15.3050014  57.5509992 144.1039978  14.4900014
  58.0579992 143.2269978  15.6150014  57.9849832 144.0057486  15.2354121
  73.1529992 139.0719978  18.3520014  72.7449992 139.5519978  17.6310014
  73.1929992 138.1659978  18.0440014  73.1026221 139.0152449  18.2118267
  60.3019992 145.4559978  16.3480014  60.5179992 145.0939978  17.2080014
  59.4459992 145.0809978  16.1390014  60.2158810 145.3558837  16.4372680
  62.9199992 133.9259978  12.3440014  62.0589992 133.8389978  11.9360014
  62.8979992 134.7819978  12.7720014  62.7990491 134.0298003  12.3459582
  67.5829992 133.6479978  15.7190014  68.0029992 133.2329978  16.4720014
  66.6499992 133.4689978  15.8360014  67.5143736 133.5669910  15.8378968
  70.9099992 137.4029978  16.5720014  70.3959992 137.2779978  17.3700014
  70.7539992 138.3159978  16.3280014  70.8186967 137.5092123  16.6480937
  71.6719992 142.2639978   2.3330014  71.7139992 142.0419978   1.4030014
  72.5209992 142.6629978   2.5230014  71.7925253 142.2875498   2.2313822
  67.2449992 136.1399978   3.0040014  66.9909992 136.1589978   3.9260014
  66.9879992 135.2689978   2.7020014  67.1754508 136.0248280   3.0894803
  63.0109992 138.8909978  13.4390014  62.3699992 138.8509978  14.1480014
  63.0489992 139.8179978  13.2010014  62.9283010 139.0107668  13.5039946
  63.0079992 139.1119978   8.3510014  62.1159992 138.7719978   8.2920014
  63.4589992 138.7349978   7.5950014  62.9467642 139.0144910   8.2407726
  68.5439992 139.5279978   7.1680014  68.1349992 140.3429978   6.8760014
  69.2639992 139.3879978   6.5540014  68.5854439 139.6205372   7.0450115
  67.6459992 139.7039978  18.6560014  67.0829992 138.9989978  18.9770014
  68.4719992 139.5829978  19.1240014  67.6806674 139.5912165  18.7631751
  69.5489992 138.9739978   9.9820014  69.3529992 139.5799978   9.2670014
  69.7299992 138.1409978   9.5480014  69.5466584 138.9442513   9.8254212
  60.7609992 139.2119978  15.3060014  60.7229992 139.6119978  16.1750014
  60.2709992 138.3949978  15.3960014  60.6895330 139.1562674  15.4371289
  64.1269992 136.5859978   2.1050014  63.6959992 136.1409978   2.8340014
  63.4089992 136.9569978   1.5920014  63.9709176 136.5752051   2.1354930
  57.3699992 136.3279978   9.1570014  57.9999992 136.2989978   9.8760014
  57.8189992 135.9029978   8.4260014  57.5170835 136.2665660   9.1567659
  58.6439992 137.0739978   4.5810014  59.1179992 137.6649978   3.9960014
  57.9259992 137.6039978   4.9280014  58.6118640 137.2265511   4.5477969
  68.8129992 140.6119978  14.6530014  69.1359992 139.9809978  14.0100014
  68.3719992 140.0779978  15.3140014  68.7976379 140.4533468  14.6542582
  65.5899992 136.5399978   9.4370014  64.6789992 136.5969978   9.7260014
  66.0949992 136.4799978  10.2480014  65.5336873 136.5396826   9.5861207
  60.4179992 138.1689978   8.2640014  59.5289992 138.2679978   7.9240014
  60.7149992 137.3269978   7.9180014  60.3364177 138.0687687   8.1706940
  64.0709992 138.1689978   5.9210014  65.0029992 138.2979978   6.0990014
  63.8559992 138.8379978   5.2710014  64.1694472 138.2770806   5.8574891
  69.9949992 135.7749978  12.7020014  69.3179992 135.9059978  13.3650014
  69.5099992 135.6199978  11.8910014  69.8367405 135.7719947  12.6832170
  62.7449992 139.3629978   3.4870014  62.2029992 138.9839978   2.7960014
  63.5789992 139.5579978   3.0590014  62.7834390 139.3374079   3.3344392
  60.8809992 143.9199978  18.5860014  61.6129992 144.1749978  19.1480014
  60.0999992 144.1249978  19.1020014  60.8756526 143.9825450  18.7325176
  66.9099992 139.3269978  11.3240014  67.4739992 138.7809978  10.7770014
  66.7619992 138.8059978  12.1130014  66.9673037 139.1816787  11.3557229
  61.9119992 135.4639978   7.7430014  61.5949992 134.5609978   7.7070014
  62.6929992 135.4659978   7.1900014  61.9742431 135.3407797   7.6633102
  65.5359992 137.7159978  13.7380014  64.7009992 138.1699978  13.8490014
  66.0599992 137.9919978  14.4900014  65.4926072 137.8153948  13.8548136
  66.0809992 143.9289978   5.4230014  65.3359992 143.4209978   5.1010014
  65.9459992 143.9779978   6.3690014  65.9608963 143.8661731   5.5068826
  73.2309992 143.0619978  14.2100014  73.8719992 143.5179978  13.6660014
  72.3999992 143.1749978  13.7470014  73.2065287 143.1396921  14.0729887
  69.9779992 136.7429978   3.6220014  69.0399992 136.8539978   3.4710014
  70.2759992 137.5989978   3.9290014  69.8896318 136.8740158   3.6428145
  67.5999992 144.1129978  16.6600014  67.2539992 143.7309978  17.4670014
  67.3999992 145.0459978  16.7310014  67.5255987 144.1869002  16.7800461
  70.6969992 138.6099978   5.2830014  71.5889992 138.4719978   5.6020014
  70.7529992 139.4009978   4.7460014  70.8267325 138.6979918   5.2541217
  61.2049992 143.2239978  11.1930014  61.9499992 143.2209978  10.5910014
  61.2829992 142.3999978  11.6740014  61.3173366 143.1122384  11.1757430
  68.2059992 145.3869978   4.4480014  67.9109992 146.2139978   4.8300014
  67.5029992 144.7679978   4.6450014  68.0706379 145.4164171   4.5268654
  58.2129992 141.6839978  16.5080014  58.4359992 141.2659978  17.3390014
  57.6109992 141.0719978  16.0850014  58.1621513 141.5439606  16.5646740
  65.2299992 141.2009978  18.7210014  64.9339992 141.0359978  17.8250014
  66.1609992 140.9809978  18.7100014  65.3154401 141.1486880  18.5970206
  75.5819992 138.8189978   4.9780014  75.0269992 138.4229978   4.3050014
  75.6819992 139.7299978   4.7000014  75.5196816 138.8879505   4.8485033
  75.5449992 144.6199978  17.8150014  74.6939992 144.8579978  17.4470014
  76.1349992 144.6029978  17.0620014  75.5083812 144.6502524  17.6628453
  71.0369992 142.4129978  12.4640014  70.1089992 142.1819978  12.4370014
  71.4879992 141.6359978  12.1340014  70.9708165 142.2762774  12.4156790
  59.3349992 141.6039978   3.1840014  59.9509992 142.2309978   3.5640014
  58.4729992 141.9199978   3.4560014  59.3027678 141.7324412   3.2727209
  65.0079992 144.4049978   8.1730014  64.7669992 145.3299978   8.2150014
  64.2669992 143.9459978   8.5700014  64.8749206 144.4695915   8.2323769
  69.0659992 144.6529978  14.1890014  68.6409992 144.4249978  15.0150014
  69.6469992 143.9139978  14.0070014  69.0863395 144.5219545  14.2774414
  59.8469992 136.4379978  16.0660014  58.9549992 136.7759978  15.9980014
  59.7489992 135.5819978  16.4840014  59.7114475 136.3686543  16.1131704
  72.1349992 144.2539978   5.4900014  71.8579992 143.5259978   6.0460014
  73.0629992 144.3729978   5.6950014  72.2224499 144.1704213   5.5938044
  60.7499992 143.5159978   4.6770014  60.0639992 143.8689978   5.2440014
  61.2729992 144.2789978   4.4300014  60.7268402 143.6673901   4.7211801
  68.5819992 136.1789978  14.9560014  69.2809992 136.2529978  15.6060014
  68.2009992 135.3139978  15.1100014  68.6262097 136.0722389  15.0657997
  69.3659992 135.8309978   6.0530014  69.5859992 136.3019978   5.2490014
  69.9249992 136.2249978   6.7230014  69.4716731 135.9487287   6.0335033
  66.5659992 137.5589978   6.8880014  67.3779992 138.0629978   6.9340014
  66.3219992 137.4139978   7.8020014  66.6441467 137.6083749   7.0178575
  67.1019992 138.5449978  16.0720014  67.2209992 139.1189978  16.8290014
  67.7569992 137.8569978  16.1870014  67.2068684 138.5305194  16.1911674
  67.4499992 134.6399978   7.8260014  67.1029992 135.2569978   8.4700014
  68.1089992 135.1409978   7.3440014  67.4915090 134.7921575   7.8490681
  63.1079992 135.7029978   4.5130014  63.0239992 136.5909978   4.8600014
  63.9979992 135.4379978   4.7450014  63.2168163 135.7887179   4.5918596
  73.3059992 136.4519978  16.9070014  72.3899992 136.7139978  16.8200014
  73.6419992 136.4489978  16.0110014  73.2258499 136.4875163  16.7738766
  71.9089992 140.2019978  11.0030014  71.1109992 139.7869978  10.6750014
  72.3539992 139.5119978  11.4940014  71.8599684 140.0518628  11.0245227
  59.6819992 138.7949978   2.6890014  59.6369992 139.7339978   2.8680014
  58.7939992 138.5589978   2.4200014  59.5558166 138.8916687   2.6771524
  60.4899992 133.5759978  11.3630014  60.2609992 133.6349978  10.4350014
  60.0479992 132.7849978  11.6690014  60.3988801 133.4770540  11.2774729
  58.6159992 143.9399978  19.8070014  58.7599992 143.0379978  19.5210014
  57.8439992 144.2259978  19.3200014  58.5312733 143.8551798  19.7019532
  62.9569992 144.2829978   1.9400014  63.0219992 143.4889978   2.4700014
  63.6099992 144.1649978   1.2500014  63.0541605 144.1583430   1.9192997
  65.2709992 143.9089978  19.2400014  64.9429992 144.1799978  18.3830014
  65.4229992 142.9679978  19.1520014  65.2466412 143.8189046  19.1107822
  68.3099992 145.3299978   1.6760014  68.0409992 145.5109978   2.5760014
  68.1029992 144.4049978   1.5440014  68.2451191 145.2297119   1.7815524
  71.0059992 143.8249978  16.6230014  71.7509992 144.4139978  16.5040014
  70.2489992 144.4069978  16.6870014  71.0055470 143.9842128  16.6153799
  59.4489992 141.1399978  19.2270014  59.8569992 140.2829978  19.1060014
  59.1879992 141.1539978  20.1480014  59.4696016 141.0245119  19.3349192
  64.1069992 142.2559978   4.2460014  63.6469992 141.7719978   4.9310014
  64.3619992 141.5869978   3.6100014  64.0784856 142.0993669   4.2538397
  63.3959992 140.1489978  16.6020014  62.7769992 140.8229978  16.8820014
  63.7399992 140.4699978  15.7680014  63.3577123 140.2846887  16.5276388
  65.1779992 140.4989978   2.5080014  64.9969992 140.3439978   1.5810014
  66.1279992 140.6069978   2.5530014  65.2816566 140.4923669   2.3870929
  68.4149992 142.6199978  19.8790014  69.3689992 142.7039978  19.8520014
  68.2549992 141.9079978  20.4990014  68.5237182 142.5352842  19.9590733
  74.5679992 142.8529978   1.9540014  74.2939992 142.4289978   1.1410014
  74.6069992 143.7849978   1.7370014  74.5357716 142.9208827   1.8134286
  63.7349992 137.5039978  17.6840014  63.8849992 136.7749978  17.0820014
  63.7369992 138.2809978  17.1250014  63.7557967 137.5092708  17.5260541
  64.1479992 135.8729978  15.1770014  64.6829992 136.3249978  14.5250014
  63.2949992 135.7649978  14.7540014  64.1060374 135.9202665  15.0306710
  65.7289992 141.3129978  15.4160014  66.4799992 141.1569978  14.8430014
  65.3899992 142.1649978  15.1410014  65.7859587 141.4068138  15.3004078
  70.1449992 139.1279978  20.4450014  70.3369992 138.1969978  20.3330014
  71.0029992 139.5529978  20.4340014  70.2872182 139.0580070  20.4281862
  71.4619992 141.9169978  18.5220014  71.1799992 142.6259978  17.9440014
  72.4039992 141.8439978  18.3710014  71.5507921 142.0042193  18.4224225
  62.2139992 138.7019978  19.5950014  61.4459992 138.1689978  19.3850014
  62.8919992 138.3919978  18.9960014  62.2007235 138.5871754  19.4852413
  64.9529992 133.3299978  15.6080014  64.8549992 134.2759978  15.5030014
  64.2109992 132.9569978  15.1320014  64.8392534 133.4091773  15.5292600
  66.2169992 137.6509978  19.1720014  65.9819992 137.4319978  20.0730014
  65.4339992 137.4439978  18.6620014  66.0789095 137.5929892  19.2265353
  68.9329992 136.7789978  18.2470014  67.9849992 136.8109978  18.3790014
  69.2449992 136.1529978  18.9010014  68.8455293 136.6987923  18.3534148
  70.5669992 135.4129978  20.2520014  70.4699992 134.4609978  20.2470014
  70.2449992 135.6809978  21.1130014  70.5102468 135.3190884  20.3676210
  60.3939992 136.6219978  19.3000014  60.6059992 135.9159978  18.6900014
  60.2829992 136.1849978  20.1440014  60.4080269 136.4661921  19.3305873
  65.1749992 132.6239978  18.2790014  65.8869992 131.9839978  18.2650014
  65.0739992 132.8899978  17.3660014  65.2587387 132.5724330  18.1535563
  65.5289992 134.3059978  20.3330014  65.3969992 133.8309978  19.5130014
  64.9289992 135.0509978  20.2780014  65.4299070 134.3415789  20.2133251
  73.7249992 145.4659978  20.4150014  72.8589992 145.3609978  20.8090014
  74.1009992 146.2239978  20.8610014  73.6573401 145.5541708  20.5292620
  75.0259992 143.7219978   5.9290014  75.8759992 144.1429978   6.0560014
  75.0309992 142.9819978   6.5360014  75.1431143 143.6796094   6.0284750
  75.4199992 141.7759978   7.7520014  74.6939992 141.2959978   8.1500014
  76.0019992 141.9809978   8.4850014  75.3992730 141.7380184   7.9054149
  75.1789992 144.5609978  12.7000014  76.0129992 144.1829978  12.4190014
  75.2909992 145.5039978  12.5810014  75.3081917 144.6367943  12.6454861
  75.6889992 141.6769978   4.1430014  75.1669992 142.0329978   3.4250014
  75.6559992 142.3519978   4.8220014  75.6130129 141.8169598   4.1363355
  74.0379992 138.9159978   2.6940014  74.1339992 139.5829978   2.0140014
  73.8979992 138.1009978   2.2130014  74.0322040 138.8970671   2.5358378
  73.2069992 140.2969978   8.3150014  73.0569992 139.3519978   8.2950014
  72.8529992 140.5779978   9.1590014  73.1386351 140.2056644   8.4263220
  58.2419992 142.3749978  12.3260014  58.4269992 142.2929978  11.3900014
  59.0919992 142.2509978  12.7490014  58.3820928 142.3470463  12.2552893
  74.0629992 142.2669978  17.9540014  74.6459992 141.5319978  18.1460014
  74.6269992 143.0389978  18.0010014  74.2189781 142.2708145  17.9866164
  75.5599992 140.1699978  18.6390014  74.6969992 139.7909978  18.4730014
  76.1639992 139.4309978  18.5640014  75.5236085 140.0183223  18.6061695
  73.2849992 136.3239978   1.8120014  73.8959992 135.9529978   2.4490014
  72.4479992 135.9029978   2.0080014  73.2554947 136.2162756   1.9257252
  72.9179992 137.8789978   6.7780014  73.1969992 136.9719978   6.9020014
  73.6769992 138.3129978   6.3890014  73.0588619 137.8134502   6.7423795
  73.5289992 138.4609978  12.2140014  74.4619992 138.6729978  12.1790014
  73.2939992 138.5619978  13.1360014  73.6249517 138.5036833  12.3339130
  73.5589992 139.1979978  14.9900014  72.7159992 139.4659978  15.3560014
  74.0009992 140.0199978  14.7790014  73.5034138 139.3458273  15.0115518
  57.8399992 137.6449978  18.4660014  58.7589992 137.5229978  18.7030014
  57.3899992 136.8949978  18.8560014  57.9050087 137.5269608  18.5511410
  75.8419992 133.1779978  20.3430014  76.1909992 132.5239978  19.7380014
  75.9889992 134.0149978  19.9030014  75.9096824 133.2016024  20.2006304
  73.5309992 135.1419978   6.8260014  73.7129992 134.6929978   7.6510014
  72.9309992 134.5579978   6.3620014  73.4748187 135.0015552   6.8762739
  59.0609992 135.9579978  11.3580014  59.5059992 135.1659978  11.6600014
  59.5269992 136.6739978  11.7880014  59.1849718 135.9464534  11.4575265
  57.3649992 138.9569978  12.4270014  57.8569992 138.7359978  11.6360014
  57.7269992 139.7969978  12.7080014  57.4812923 139.0403468  12.3567407
  75.3609992 135.2869978  18.6920014  74.4439992 135.5579978  18.6570014
  75.4839992 134.7519978  17.9080014  75.2519672 135.2517885  18.5811862
  75.3979992 135.2099978   3.3540014  75.8099992 134.4889978   2.8790014
  76.0789992 135.8789978   3.4120014  75.5465536 135.2017766   3.2968024
  57.6789992 135.2149978   6.4810014  56.7539992 135.4229978   6.3520014
  58.1329992 135.6989978   5.7910014  57.6136298 135.3089299   6.3700451
  57.6419992 133.9529978  14.8250014  56.9769992 133.7069978  15.4680014
  57.1989992 134.5749978  14.2480014  57.4911168 134.0034214  14.8349848
  74.3619992 133.3769978  16.5110014  73.5489992 133.7019978  16.1240014
  74.5949992 132.6159978  15.9780014  74.2821347 133.3186880  16.3859841
  67.7919992 134.8259978  10.8340014  67.1179992 134.1959978  11.0900014
  68.3559992 134.3419978  10.2310014  67.7760384 134.6743708  10.7875020
  72.9349992 132.9329978  10.9470014  73.5379992 133.4809978  10.4450014
  72.0649992 133.2519978  10.7060014  72.8999157 133.0510373  10.8457910
  74.6619992 134.0719978   9.2800014  75.2729992 133.5579978   8.7530014
  75.0439992 134.9489978   9.3030014  74.7973305 134.1202050   9.2109418
  60.1189992 133.4599978   8.6560014  59.3419992 133.2249978   8.1490014
  60.6489992 132.6629978   8.6650014  60.0843451 133.3201268   8.5878627
  58.9549992 133.2579978   4.4600014  59.3939992 133.8689978   3.8680014
  58.3209992 133.7959978   4.9340014  58.9293859 133.4144064   4.4430305
  64.6979992 133.3859978   8.4690014  65.5719992 133.7749978   8.4400014
  64.5619992 133.1709978   9.3920014  64.7991953 133.4101643   8.5897617
  70.2549992 133.4159978  10.1190014  70.3309992 133.5119978   9.1690014
  69.9799992 132.5089978  10.2470014  70.2281871 133.3064146  10.0063944
  71.6079992 133.4419978   5.8110014  70.9049992 134.0569978   5.6010014
  71.1629992 132.6049978   5.9420014  71.4516550 133.4129668   5.7999837
  60.8159992 135.1739978   2.9020014  61.3069992 134.5439978   2.3750014
  61.4389992 135.4699978   3.5650014  60.9675304 135.1277376   2.9194940
  65.8419992 135.4669978   5.3590014  66.0199992 134.8199978   6.0420014
  65.7879992 136.3009978   5.8260014  65.8590678 135.4911604   5.5156301
  60.0759992 133.9739978  18.1740014  59.7099992 133.2079978  18.6160014
  60.9889992 134.0029978  18.4600014  60.1493172 133.8730324  18.2731890
  62.0489992 133.3239978  19.7090014  62.9479992 133.0499978  19.5250014
  61.6629992 132.5819978  20.1740014  62.1197307 133.1862196  19.7467098
  70.4709992 132.6569978  19.8920014  70.5469992 132.2309978  20.7450014
  71.3639992 132.6699978  19.5490014  70.6022303 132.6003493  19.9625497
  88.0529992 142.6159978   8.6150014  88.1419992 143.5599978   8.4830014
  87.4149992 142.3409978   7.9570014  87.9789062 142.7079812   8.5079641
  86.9859992 141.8709978  12.0340014  86.9479992 141.2249978  12.7390014
  86.6639992 141.4039978  11.2630014  86.9372679 141.7194276  12.0262921
  79.3539992 141.4849978  13.6270014  79.3959992 140.8599978  14.3500014
  80.0569992 142.1089978  13.8090014  79.4547345 141.4837873  13.7505273
  90.6919992 144.8099978  10.3350014  90.2509992 144.0899978  10.7860014
  90.6789992 145.5309978  10.9650014  90.6299215 144.8089291  10.4818105
  76.8879992 139.5949978   7.5540014  76.4399992 140.4409978   7.5360014
  76.3269992 139.0159978   7.0390014  76.7508546 139.6323993   7.4818891
  77.5979992 141.7569978   9.6800014  77.8119992 140.9869978  10.2080014
  78.3359992 141.8469978   9.0770014  77.7270200 141.6638587   9.6707035
  85.3749992 144.3029978  12.4400014  85.6789992 143.6169978  11.8450014
  86.0969992 144.4219978  13.0580014  85.5141240 144.2252314  12.4420959
  94.0379992 135.9049978  13.3000014  94.0879992 136.5149978  14.0360014
  94.4639992 136.3659978  12.5770014  94.1024108 136.0507709  13.3030112
  88.5159992 138.6969978  12.7670014  88.6589992 137.7509978  12.7870014
  88.4099992 138.9039978  11.8390014  88.5212403 138.5954797  12.6442239
  81.6709992 136.7989978  10.0400014  81.7139992 137.6589978   9.6210014
  81.2129992 136.2469978   9.4060014  81.6149871 136.8419245   9.8970761
  89.3929992 136.9299978   8.4410014  90.0399992 136.6009978   9.0650014
  89.9029992 137.4469978   7.8180014  89.5504351 136.9549067   8.4421037
  78.2909992 139.1959978  10.8020014  78.9449992 138.6459978  11.2340014
  78.3149992 138.9219978   9.8850014  78.3837199 139.0837167  10.7371668
  83.4479992 140.7459978  10.0170014  84.0639992 140.2189978  10.5260014
  82.8609992 140.1059978   9.6130014  83.4530154 140.5873954  10.0320945
  94.4299992 137.3829978  15.5360014  93.7409992 138.0409978  15.4410014
  94.4449992 137.1849978  16.4730014  94.3377756 137.4462603  15.6495812
  80.4809992 135.7169978  14.1140014  80.2619992 136.2469978  13.3470014
  79.8129992 135.9429978  14.7610014  80.3606975 135.8200967  14.0965140
  87.8499992 145.2169978   7.6580014  87.5549992 144.8939978   6.8060014
  87.5259992 146.1169978   7.6990014  87.7658460 145.2944464   7.5469714
  83.0499992 143.3919978  14.4010014  82.3099992 143.9909978  14.5050014
  83.7639992 143.9459978  14.0860014  83.0453500 143.5487829  14.3726371
  91.1569992 136.2209978  10.4210014  90.9419992 135.4549978  10.9540014
  91.8129992 136.6929978  10.9340014  91.2162673 136.1800728  10.5631990
  80.0749992 137.6089978  12.0660014  80.6889992 138.2419978  12.4390014
  80.5869992 137.1369978  11.4100014  80.2281962 137.6317249  12.0282935
  81.4579992 145.3569978  15.1880014  81.4519992 146.2359978  14.8100014
  80.6039992 145.2729978  15.6130014  81.3417925 145.4659535  15.1936887
  77.5789992 145.0279978   5.9700014  77.3069992 145.2569978   5.0820014
  77.6239992 145.8649978   6.4310014  77.5478097 145.1726163   5.9106683
  91.5039992 134.9359978  14.1000014  90.7679992 135.5459978  14.0630014
  92.1879992 135.3509978  13.5740014  91.4955367 135.0757551  14.0238174
  84.5079992 133.0219978  11.5660014  84.3899992 132.0739978  11.5120014
  83.6529992 133.3549978  11.8390014  84.3762805 132.9372202  11.5955079
  92.3019992 144.8979978  16.2940014  92.4409992 144.3059978  15.5550014
  92.4689992 145.7709978  15.9380014  92.3436193 144.9348896  16.1446211
  86.7739992 141.8599978   6.0670014  86.0629992 142.3949978   5.7150014
  87.4649992 141.9149978   5.4070014  86.7700751 141.9406777   5.9295858
  86.8279992 140.3169978   3.1050014  87.5289992 140.3399978   3.7570014
  87.1299992 139.6889978   2.4490014  86.9648202 140.2352212   3.1055609
  94.1429992 141.2379978  14.3600014  93.4909992 141.9319978  14.4490014
  94.6089992 141.4479978  13.5500014  94.1165937 141.3615019  14.2627533
  90.1799992 142.0689978   7.0180014  89.4479992 142.2979978   7.5920014
  90.6269992 141.3559978   7.4730014  90.1403963 142.0038729   7.1579945
  90.0769992 140.2439978  16.0860014  90.1569992 141.0069978  16.6580014
  89.4759992 140.5229978  15.3960014  90.0066547 140.3862457  16.0710047
  81.8249992 142.6999978   8.9010014  81.4949992 142.3289978   8.0830014
  82.4139992 142.0289978   9.2480014  81.8593970 142.5586063   8.8359404
  82.1919992 141.4679978  12.5340014  82.7569992 141.5899978  11.7720014
  82.5109992 142.1059978  13.1730014  82.3124166 141.5708791  12.5160348
  89.0509992 141.2319978   4.7040014  89.6299992 141.3819978   5.4500014
  89.4649992 141.7019978   3.9800014  89.1863358 141.3160954   4.7083953
  79.9919992 142.0659978  16.4800014  80.0619992 142.7169978  17.1790014
  79.1009992 142.1689978  16.1450014  79.8811690 142.1689249  16.5303043
  92.7499992 132.9819978   4.5170014  91.8499992 133.1209978   4.8120014
  93.0019992 133.8129978   4.1150014  92.6608683 133.1134055   4.5030232
  80.8159992 141.7689978   6.4900014  80.5239992 142.5369978   5.9990014
  80.1409992 141.1099978   6.3270014  80.6848497 141.7849745   6.4008260
  76.9089992 144.1319978  15.3050014  76.4069992 144.1039978  14.4900014
  76.9139992 143.2269978  15.6150014  76.8409832 144.0057486  15.2354121
  92.0089992 139.0719978  18.3520014  91.6009992 139.5519978  17.6310014
  92.0489992 138.1659978  18.0440014  91.9586221 139.0152449  18.2118267
  79.1579992 145.4559978  16.3480014  79.3739992 145.0939978  17.2080014
  78.3019992 145.0809978  16.1390014  79.0718810 145.3558837  16.4372680
  81.7759992 133.9259978  12.3440014  80.9149992 133.8389978  11.9360014
  81.7539992 134.7819978  12.7720014  81.6550491 134.0298003  12.3459582
  86.4389992 133.6479978  15.7190014  86.8589992 133.2329978  16.4720014
  85.5059992 133.4689978  15.8360014  86.3703736 133.5669910  15.8378968
  89.7659992 137.4029978  16.5720014  89.2519992 137.2779978  17.3700014
  89.6099992 138.3159978  16.3280014  89.6746967 137.5092123  16.6480937
  90.5279992 142.2639978   2.3330014  90.5699992 142.0419978   1.4030014
  91.3769992 142.6629978   2.5230014  90.6485253 142.2875498   2.2313822
  86.1009992 136.1399978   3.0040014  85.8469992 136.1589978   3.9260014
  85.8439992 135.2689978   2.7020014  86.0314508 136.0248280   3.0894803
  81.8669992 138.8909978  13.4390014  81.2259992 138.8509978  14.1480014
  81.9049992 139.8179978  13.2010014  81.7843010 139.0107668  13.5039946
  81.8639992 139.1119978   8.3510014  80.9719992 138.7719978   8.2920014
  82.3149992 138.7349978   7.5950014  81.8027642 139.0144910   8.2407726
  87.3999992 139.5279978   7.1680014  86.9909992 140.3429978   6.8760014
  88.1199992 139.3879978   6.5540014  87.4414439 139.6205372   7.0450115
  86.5019992 139.7039978  18.6560014  85.9389992 138.9989978  18.9770014
  87.3279992 139.5829978  19.1240014  86.5366674 139.5912165  18.7631751
  88.4049992 138.9739978   9.9820014  88.2089992 139.5799978   9.2670014
  88.5859992 138.1409978   9.5480014  88.4026584 138.9442513   9.8254212
  79.6169992 139.2119978  15.3060014  79.5789992 139.6119978  16.1750014
  79.1269992 138.3949978  15.3960014  79.5455330 139.1562674  15.4371289
  82.9829992 136.5859978   2.1050014  82.5519992 136.1409978   2.8340014
  82.2649992 136.9569978   1.5920014  82.8269176 136.5752051   2.1354930
  76.2259992 136.3279978   9.1570014  76.8559992 136.2989978   9.8760014
  76.6749992 135.9029978   8.4260014  76.3730835 136.2665660   9.1567659
  77.4999992 137.0739978   4.5810014  77.9739992 137.6649978   3.9960014
  76.7819992 137.6039978   4.9280014  77.4678640 137.2265511   4.5477969
  87.6689992 140.6119978  14.6530014  87.9919992 139.9809978  14.0100014
  87.2279992 140.0779978  15.3140014  87.6536379 140.4533468  14.6542582
  84.4459992 136.5399978   9.4370014  83.5349992 136.5969978   9.7260014
  84.9509992 136.4799978  10.2480014  84.3896873 136.5396826   9.5861207
  79.2739992 138.1689978   8.2640014  78.3849992 138.2679978   7.9240014
  79.5709992 137.3269978   7.9180014  79.1924177 138.0687687   8.1706940
  82.9269992 138.1689978   5.9210014  83.8589992 138.2979978   6.0990014
  82.7119992 138.8379978   5.2710014  83.0254472 138.2770806   5.8574891
  88.8509992 135.7749978  12.7020014  88.1739992 135.9059978  13.3650014
  88.3659992 135.6199978  11.8910014  88.6927405 135.7719947  12.6832170
  81.6009992 139.3629978   3.4870014  81.0589992 138.9839978   2.7960014
  82.4349992 139.5579978   3.0590014  81.6394390 139.3374079   3.3344392
  79.7369992 143.9199978  18.5860014  80.4689992 144.1749978  19.1480014
  78.9559992 144.1249978  19.1020014  79.7316526 143.9825450  18.7325176
  85.7659992 139.3269978  11.3240014  86.3299992 138.7809978  10.7770014
  85.6179992 138.8059978  12.1130014  85.8233037 139.1816787  11.3557229
  80.7679992 135.4639978   7.7430014  80.4509992 134.5609978   7.7070014
  81.5489992 135.4659978   7.1900014  80.8302431 135.3407797   7.6633102
  84.3919992 137.7159978  13.7380014  83.5569992 138.1699978  13.8490014
  84.9159992 137.9919978  14.4900014  84.3486072 137.8153948  13.8548136
  84.9369992 143.9289978   5.4230014  84.1919992 143.4209978   5.1010014
  84.8019992 143.9779978   6.3690014  84.8168963 143.8661731   5.5068826
  92.0869992 143.0619978  14.2100014  92.7279992 143.5179978  13.6660014
  91.2559992 143.1749978  13.7470014  92.0625287 143.1396921  14.0729887
  88.8339992 136.7429978   3.6220014  87.8959992 136.8539978   3.4710014
  89.1319992 137.5989978   3.9290014  88.7456318 136.8740158   3.6428145
  86.4559992 144.1129978  16.6600014  86.1099992 143.7309978  17.4670014
  86.2559992 145.0459978  16.7310014  86.3815987 144.1869002  16.7800461
  89.5529992 138.6099978   5.2830014  90.4449992 138.4719978   5.6020014
  89.6089992 139.4009978   4.7460014  89.6827325 138.6979918   5.2541217
  80.0609992 143.2239978  11.1930014  80.8059992 143.2209978  10.5910014
  80.1389992 142.3999978  11.6740014  80.1733365 143.1122384  11.1757430
  87.0619992 145.3869978   4.4480014  86.7669992 146.2139978   4.8300014
  86.3589992 144.7679978   4.6450014  86.9266379 145.4164171   4.5268654
  77.0689992 141.6839978  16.5080014  77.2919992 141.2659978  17.3390014
  76.4669992 141.0719978  16.0850014  77.0181513 141.5439606  16.5646740
  84.0859992 141.2009978  18.7210014  83.7899992 141.0359978  17.8250014
  85.0169992 140.9809978  18.7100014  84.1714401 141.1486879  18.5970206
  94.4379992 138.8189978   4.9780014  93.8829992 138.4229978   4.3050014
  94.5379992 139.7299978   4.7000014  94.3756816 138.8879505   4.8485033
  94.4009992 144.6199978  17.8150014  93.5499992 144.8579978  17.4470014
  94.9909992 144.6029978  17.0620014  94.3643812 144.6502524  17.6628453
  89.8929992 142.4129978  12.4640014  88.9649992 142.1819978  12.4370014
  90.3439992 141.6359978  12.1340014  89.8268165 142.2762774  12.4156790
  78.1909992 141.6039978   3.1840014  78.8069992 142.2309978   3.5640014
  77.3289992 141.9199978   3.4560014  78.1587678 141.7324412   3.2727209
  83.8639992 144.4049978   8.1730014  83.6229992 145.3299978   8.2150014
  83.1229992 143.9459978   8.5700014  83.7309206 144.4695915   8.2323769
  87.9219992 144.6529978  14.1890014  87.4969992 144.4249978  15.0150014
  88.5029992 143.9139978  14.0070014  87.9423395 144.5219545  14.2774414
  78.7029992 136.4379978  16.0660014  77.8109992 136.7759978  15.9980014
  78.6049992 135.5819978  16.4840014  78.5674475 136.3686543  16.1131704
  90.9909992 144.2539978   5.4900014  90.7139992 143.5259978   6.0460014
  91.9189992 144.3729978   5.6950014  91.0784499 144.1704213   5.5938044
  79.6059992 143.5159978   4.6770014  78.9199992 143.8689978   5.2440014
  80.1289992 144.2789978   4.4300014  79.5828402 143.6673901   4.7211801
  87.4379992 136.1789978  14.9560014  88.1369992 136.2529978  15.6060014
  87.0569992 135.3139978  15.1100014  87.4822097 136.0722389  15.0657997
  88.2219992 135.8309978   6.0530014  88.4419992 136.3019978   5.2490014
  88.7809992 136.2249978   6.7230014  88.3276731 135.9487287   6.0335033
  85.4219992 137.5589978   6.8880014  86.2339992 138.0629978   6.9340014
  85.1779992 137.4139978   7.8020014  85.5001467 137.6083749   7.0178575
  85.9579992 138.5449978  16.0720014  86.0769992 139.1189978  16.8290014
  86.6129992 137.8569978  16.1870014  86.0628684 138.5305194  16.1911674
  86.3059992 134.6399978   7.8260014  85.9589992 135.2569978   8.4700014
  86.9649992 135.1409978   7.3440014  86.3475090 134.7921575   7.8490681
  81.9639992 135.7029978   4.5130014  81.8799992 136.5909978   4.8600014
  82.8539992 135.4379978   4.7450014  82.0728163 135.7887179   4.5918596
  92.1619992 136.4519978  16.9070014  91.2459992 136.7139978  16.8200014
  92.4979992 136.4489978  16.0110014  92.0818499 136.4875163  16.7738766
  90.7649992 140.2019978  11.0030014  89.9669992 139.7869978  10.6750014
  91.2099992 139.5119978  11.4940014  90.7159684 140.0518628  11.0245227
  78.5379992 138.7949978   2.6890014  78.4929992 139.7339978   2.8680014
  77.6499992 138.5589978   2.4200014  78.4118166 138.8916687   2.6771524
  79.3459992 133.5759978  11.3630014  79.1169992 133.6349978  10.4350014
  78.9039992 132.7849978  11.6690014  79.2548801 133.4770540  11.2774729
  77.4719992 143.9399978  19.8070014  77.6159992 143.0379978  19.5210014
  76.6999992 144.2259978  19.3200014  77.3872733 143.8551798  19.7019532
  81.8129992 144.2829978   1.9400014  81.8779992 143.4889978   2.4700014
  82.4659992 144.1649978   1.2500014  81.9101605 144.1583430   1.9192997
  84.1269992 143.9089978  19.2400014  83.7989992 144.1799978  18.3830014
  84.2789992 142.9679978  19.1520014  84.1026412 143.8189046  19.1107822
  87.1659992 145.3299978   1.6760014  86.8969992 145.5109978   2.5760014
  86.9589992 144.4049978   1.5440014  87.1011191 145.2297119   1.7815524
  89.8619992 143.8249978  16.6230014  90.6069992 144.4139978  16.5040014
  89.1049992 144.4069978  16.6870014  89.8615470 143.9842128  16.6153799
  78.3049992 141.1399978  19.2270014  78.7129992 140.2829978  19.1060014
  78.0439992 141.1539978  20.1480014  78.3256016 141.0245119  19.3349192
  82.9629992 142.2559978   4.2460014  82.5029992 141.7719978   4.9310014
  83.2179992 141.5869978   3.6100014  82.9344856 142.0993669   4.2538397
  82.2519992 140.1489978  16.6020014  81.6329992 140.8229978  16.8820014
  82.5959992 140.4699978  15.7680014  82.2137123 140.2846887  16.5276388
  84.0339992 140.4989978   2.5080014  83.8529992 140.3439978   1.5810014
  84.9839992 140.6069978   2.5530014  84.1376566 140.4923669   2.3870929
  87.2709992 142.6199978  19.8790014  88.2249992 142.7039978  19.8520014
  87.1109992 141.9079978  20.4990014  87.3797182 142.5352842  19.9590733
  93.4239992 142.8529978   1.9540014  93.1499992 142.4289978   1.1410014
  93.4629992 143.7849978   1.7370014  93.3917716 142.9208827   1.8134286
  82.5909992 137.5039978  17.6840014  82.7409992 136.7749978  17.0820014
  82.5929992 138.2809978  17.1250014  82.6117967 137.5092708  17.5260541
  83.0039992 135.8729978  15.1770014  83.5389992 136.3249978  14.5250014
  82.1509992 135.7649978  14.7540014  82.9620374 135.9202665  15.0306710
  84.5849992 141.3129978  15.4160014  85.3359992 141.1569978  14.8430014
  84.2459992 142.1649978  15.1410014  84.6419587 141.4068138  15.3004078
  89.0009992 139.1279978  20.4450014  89.1929992 138.1969978  20.3330014
  89.8589992 139.5529978  20.4340014  89.1432182 139.0580070  20.4281862
  90.3179992 141.9169978  18.5220014  90.0359992 142.6259978  17.9440014
  91.2599992 141.8439978  18.3710014  90.4067921 142.0042193  18.4224225
  81.0699992 138.7019978  19.5950014  80.3019992 138.1689978  19.3850014
  81.7479992 138.3919978  18.9960014  81.0567235 138.5871754  19.4852413
  83.8089992 133.3299978  15.6080014  83.7109992 134.2759978  15.5030014
  83.0669992 132.9569978  15.1320014  83.6952534 133.4091773  15.5292600
  85.0729992 137.6509978  19.1720014  84.8379992 137.4319978  20.0730014
  84.2899992 137.4439978  18.6620014  84.9349095 137.5929892  19.2265353
  87.7889992 136.7789978  18.2470014  86.8409992 136.8109978  18.3790014
  88.1009992 136.1529978  18.9010014  87.7015293 136.6987923  18.3534148
  89.4229992 135.4129978  20.2520014  89.3259992 134.4609978  20.2470014
  89.1009992 135.6809978  21.1130014  89.3662468 135.3190884  20.3676210
  79.2499992 136.6219978  19.3000014  79.4619992 135.9159978  18.6900014
  79.1389992 136.1849978  20.1440014  79.2640269 136.4661921  19.3305873
  84.0309992 132.6239978  18.2790014  84.7429992 131.9839978  18.2650014
  83.9299992 132.8899978  17.3660014  84.1147387 132.5724330  18.1535563
  84.3849992 134.3059978  20.3330014  84.2529992 133.8309978  19.5130014
  83.7849992 135.0509978  20.2780014  84.2859070 134.3415789  20.2133251
  92.5809992 145.4659978  20.4150014  91.7149992 145.3609978  20.8090014
  92.9569992 146.2239978  20.8610014  92.5133401 145.5541708  20.5292620
  93.8819992 143.7219978   5.9290014  94.7319992 144.1429978   6.0560014
  93.8869992 142.9819978   6.5360014  93.9991143 143.6796094   6.0284750
  94.2759992 141.7759978   7.7520014  93.5499992 141.2959978   8.1500014
  94.8579992 141.9809978   8.4850014  94.2552730 141.7380184   7.9054149
  94.0349992 144.5609978  12.7000014  94.8689992 144.1829978  12.4190014
  94.1469992 145.5039978  12.5810014  94.1641917 144.6367943  12.6454861
  94.5449992 141.6769978   4.1430014  94.0229992 142.0329978   3.4250014
  94.5119992 142.3519978   4.8220014  94.4690129 141.8169598   4.1363355
  92.8939992 138.9159978   2.6940014  92.9899992 139.5829978   2.0140014
  92.7539992 138.1009978   2.2130014  92.8882040 138.8970671   2.5358378
  92.0629992 140.2969978   8.3150014  91.9129992 139.3519978   8.2950014
  91.7089992 140.5779978   9.1590014  91.9946351 140.2056644   8.4263220
  77.0979992 142.3749978  12.3260014  77.2829992 142.2929978  11.3900014
  77.9479992 142.2509978  12.7490014  77.2380928 142.3470463  12.2552893
  92.9189992 142.2669978  17.9540014  93.5019992 141.5319978  18.1460014
  93.4829992 143.0389978  18.0010014  93.0749781 142.2708145  17.9866164
  94.4159992 140.1699978  18.6390014  93.5529992 139.7909978  18.4730014
  95.0199992 139.4309978  18.5640014  94.3796085 140.0183223  18.6061695
  92.1409992 136.3239978   1.8120014  92.7519992 135.9529978   2.4490014
  91.3039992 135.9029978   2.0080014  92.1114947 136.2162756   1.9257252
  91.7739992 137.8789978   6.7780014  92.0529992 136.9719978   6.9020014
  92.5329992 138.3129978   6.3890014  91.9148619 137.8134502   6.7423795
  92.3849992 138.4609978  12.2140014  93.3179992 138.6729978  12.1790014
  92.1499992 138.5619978  13.1360014  92.4809517 138.5036833  12.3339130
  92.4149992 139.1979978  14.9900014  91.5719992 139.4659978  15.3560014
  92.8569992 140.0199978  14.7790014  92.3594138 139.3458273  15.0115518
  76.6959992 137.6449978  18.4660014  77.6149992 137.5229978  18.7030014
  76.2459992 136.8949978  18.8560014  76.7610087 137.5269608  18.5511410
  94.6979992 133.1779978  20.3430014  95.0469992 132.5239978  19.7380014
  94.8449992 134.0149978  19.9030014  94.7656824 133.2016024  20.2006304
  92.3869992 135.1419978   6.8260014  92.5689992 134.6929978   7.6510014
  91.7869992 134.5579978   6.3620014  92.3308187 135.0015552   6.8762739
  77.9169992 135.9579978  11.3580014  78.3619992 135.1659978  11.6600014
  78.3829992 136.6739978  11.7880014  78.0409718 135.9464534  11.4575265
  76.2209992 138.9569978  12.4270014  76.7129992 138.7359978  11.6360014
  76.5829992 139.7969978  12.7080014  76.3372923 139.0403468  12.3567407
  94.2169992 135.2869978  18.6920014  93.2999992 135.5579978  18.6570014
  94.3399992 134.7519978  17.9080014  94.1079672 135.2517885  18.5811862
  94.2539992 135.2099978   3.3540014  94.6659992 134.4889978   2.8790014
  94.9349992 135.8789978   3.4120014  94.4025536 135.2017766   3.2968024
  76.5349992 135.2149978   6.4810014  75.6099992 135.4229978   6.3520014
  76.9889992 135.6989978   5.7910014  76.4696298 135.3089299   6.3700451
  76.4979992 133.9529978  14.8250014  75.8329992 133.7069978  15.4680014
  76.0549992 134.5749978  14.2480014  76.3471168 134.0034214  14.8349848
  93.2179992 133.3769978  16.5110014  92.4049992 133.7019978  16.1240014
  93.4509992 132.6159978  15.9780014  93.1381347 133.3186880  16.3859841
  86.6479992 134.8259978  10.8340014  85.9739992 134.1959978  11.0900014
  87.2119992 134.3419978  10.2310014  86.6320384 134.6743708  10.7875020
  91.7909992 132.9329978  10.9470014  92.3939992 133.4809978  10.4450014
  90.9209992 133.2519978  10.7060014  91.7559157 133.0510373  10.8457910
  93.5179992 134.0719978   9.2800014  94.1289992 133.5579978   8.7530014
  93.8999992 134.9489978   9.3030014  93.6533305 134.1202050   9.2109418
  78.9749992 133.4599978   8.6560014  78.1979992 133.2249978   8.1490014
  79.5049992 132.6629978   8.6650014  78.9403451 133.3201268   8.5878627
  77.8109992 133.2579978   4.4600014  78.2499992 133.8689978   3.8680014
  77.1769992 133.7959978   4.9340014  77.7853859 133.4144064   4.4430305
  83.5539992 133.3859978   8.4690014  84.4279992 133.7749978   8.4400014
  83.4179992 133.1709978   9.3920014  83.6551953 133.4101643   8.5897617
  89.1109992 133.4159978  10.1190014  89.1869992 133.5119978   9.1690014
  88.8359992 132.5089978  10.2470014  89.0841871 133.3064146  10.0063944
  90.4639992 133.4419978   5.8110014  89.7609992 134.0569978   5.6010014
  90.0189992 132.6049978   5.9420014  90.3076550 133.4129668   5.7999837
  79.6719992 135.1739978   2.9020014  80.1629992 134.5439978   2.3750014
  80.2949992 135.4699978   3.5650014  79.8235304 135.1277376   2.9194940
  84.6979992 135.4669978   5.3590014  84.8759992 134.8199978   6.0420014
  84.6439992 136.3009978   5.8260014  84.7150678 135.4911604   5.5156301
  78.9319992 133.9739978  18.1740014  78.5659992 133.2079978  18.6160014
  79.8449992 134.0029978  18.4600014  79.0053172 133.8730324  18.2731890
  80.9049992 133.3239978  19.7090014  81.8039992 133.0499978  19.5250014
  80.5189992 132.5819978  20.1740014  80.9757307 133.1862196  19.7467098
  89.3269992 132.6569978  19.8920014  89.4029992 132.2309978  20.7450014
  90.2199992 132.6699978  19.5490014  89.4582303 132.6003493  19.9625497
 106.9089992 142.6159978   8.6150014 106.9979992 143.5599978   8.4830014
 106.2709992 142.3409978   7.9570014 106.8349062 142.7079812   8.5079641
 105.8419992 141.8709978  12.0340014 105.8039992 141.2249978  12.7390014
 105.5199992 141.4039978  11.2630014 105.7932679 141.7194276  12.0262921
  98.2099992 141.4849978  13.6270014  98.2519992 140.8599978  14.3500014
  98.9129992 142.1089978  13.8090014  98.3107345 141.4837873  13.7505274
 109.5479992 144.8099978  10.3350014 109.1069992 144.0899978  10.7860014
 109.5349992 145.5309978  10.9650014 109.4859215 144.8089291  10.4818105
  95.7439992 139.5949978   7.5540014  95.2959992 140.4409978   7.5360014
  95.1829992 139.0159978   7.0390014  95.6068546 139.6323993   7.4818891
  96.4539992 141.7569978   9.6800014  96.6679992 140.9869978  10.2080014
  97.1919992 141.8469978   9.0770014  96.5830200 141.6638587   9.6707035
 104.2309992 144.3029978  12.4400014 104.5349992 143.6169978  11.8450014
 104.9529992 144.4219978  13.0580014 104.3701240 144.2252314  12.4420959
 112.8939992 135.9049978  13.3000014 112.9439992 136.5149978  14.0360014
 113.3199992 136.3659978  12.5770014 112.9584108 136.0507709  13.3030112
 107.3719992 138.6969978  12.7670014 107.5149992 137.7509978  12.7870014
 107.2659992 138.9039978  11.8390014 107.3772403 138.5954797  12.6442239
 100.5269992 136.7989978  10.0400014 100.5699992 137.6589978   9.6210014
 100.0689992 136.2469978   9.4060014 100.4709871 136.8419245   9.8970761
 108.2489992 136.9299978   8.4410014 108.8959992 136.6009978   9.0650014
 108.7589992 137.4469978   7.8180014 108.4064351 136.9549067   8.4421037
  97.1469992 139.1959978  10.8020014  97.8009992 138.6459978  11.2340014
  97.1709992 138.9219978   9.8850014  97.2397199 139.0837167  10.7371668
 102.3039992 140.7459978  10.0170014 102.9199992 140.2189978  10.5260014
 101.7169992 140.1059978   9.6130014 102.3090154 140.5873954  10.0320945
 113.2859992 137.3829978  15.5360014 112.5969992 138.0409978  15.4410014
 113.3009992 137.1849978  16.4730014 113.1937756 137.4462603  15.6495812
  99.3369992 135.7169978  14.1140014  99.1179992 136.2469978  13.3470014
  98.6689992 135.9429978  14.7610014  99.2166975 135.8200967  14.0965140
 106.7059992 145.2169978   7.6580014 106.4109992 144.8939978   6.8060014
 106.3819992 146.1169978   7.6990014 106.6218460 145.2944464   7.5469714
 101.9059992 143.3919978  14.4010014 101.1659992 143.9909978  14.5050014
 102.6199992 143.9459978  14.0860014 101.9013500 143.5487829  14.3726371
 110.0129992 136.2209978  10.4210014 109.7979992 135.4549978  10.9540014
 110.6689992 136.6929978  10.9340014 110.0722673 136.1800728  10.5631990
  98.9309992 137.6089978  12.0660014  99.5449992 138.2419978  12.4390014
  99.4429992 137.1369978  11.4100014  99.0841962 137.6317249  12.0282935
 100.3139992 145.3569978  15.1880014 100.3079992 146.2359978  14.8100014
  99.4599992 145.2729978  15.6130014 100.1977925 145.4659535  15.1936887
  96.4349992 145.0279978   5.9700014  96.1629992 145.2569978   5.0820014
  96.4799992 145.8649978   6.4310014  96.4038097 145.1726163   5.9106683
 110.3599992 134.9359978  14.1000014 109.6239992 135.5459978  14.0630014
 111.0439992 135.3509978  13.5740014 110.3515367 135.0757551  14.0238174
 103.3639992 133.0219978  11.5660014 103.2459992 132.0739978  11.5120014
 102.5089992 133.3549978  11.8390014 103.2322805 132.9372202  11.5955079
 111.1579992 144.8979978  16.2940014 111.2969992 144.3059978  15.5550014
 111.3249992 145.7709978  15.9380014 111.1996193 144.9348896  16.1446211
 105.6299992 141.8599978   6.0670014 104.9189992 142.3949978   5.7150014
 106.3209992 141.9149978   5.4070014 105.6260751 141.9406777   5.9295858
 105.6839992 140.3169978   3.1050014 106.3849992 140.3399978   3.7570014
 105.9859992 139.6889978   2.4490014 105.8208202 140.2352212   3.1055609
 112.9989992 141.2379978  14.3600014 112.3469992 141.9319978  14.4490014
 113.4649992 141.4479978  13.5500014 112.9725937 141.3615019  14.2627533
 109.0359992 142.0689978   7.0180014 108.3039992 142.2979978   7.5920014
 109.4829992 141.3559978   7.4730014 108.9963963 142.0038729   7.1579945
 108.9329992 140.2439978  16.0860014 109.0129992 141.0069978  16.6580014
 108.3319992 140.5229978  15.3960014 108.8626547 140.3862457  16.0710047
 100.6809992 142.6999978   8.9010014 100.3509992 142.3289978   8.0830014
 101.2699992 142.0289978   9.2480014 100.7153970 142.5586063   8.8359404
 101.0479992 141.4679978  12.5340014 101.6129992 141.5899978  11.7720014
 101.3669992 142.1059978  13.1730014 101.1684166 141.5708791  12.5160348
 107.9069992 141.2319978   4.7040014 108.4859992 141.3819978   5.4500014
 108.3209992 141.7019978   3.9800014 108.0423358 141.3160954   4.7083953
  98.8479992 142.0659978  16.4800014  98.9179992 142.7169978  17.1790014
  97.9569992 142.1689978  16.1450014  98.7371690 142.1689249  16.5303043
 111.6059992 132.9819978   4.5170014 110.7059992 133.1209978   4.8120014
 111.8579992 133.8129978   4.1150014 111.5168683 133.1134055   4.5030232
  99.6719992 141.7689978   6.4900014  99.3799992 142.5369978   5.9990014
  98.9969992 141.1099978   6.3270014  99.5408497 141.7849745   6.4008260
  95.7649992 144.1319978  15.3050014  95.2629992 144.1039978  14.4900014
  95.7699992 143.2269978  15.6150014  95.6969832 144.0057486  15.2354121
 110.8649992 139.0719978  18.3520014 110.4569992 139.5519978  17.6310014
 110.9049992 138.1659978  18.0440014 110.8146221 139.0152449  18.2118267
  98.0139992 145.4559978  16.3480014  98.2299992 145.0939978  17.2080014
  97.1579992 145.0809978  16.1390014  97.9278810 145.3558837  16.4372680
 100.6319992 133.9259978  12.3440014  99.7709992 133.8389978  11.9360014
 100.6099992 134.7819978  12.7720014 100.5110491 134.0298003  12.3459582
 105.2949992 133.6479978  15.7190014 105.7149992 133.2329978  16.4720014
 104.3619992 133.4689978  15.8360014 105.2263736 133.5669910  15.8378968
 108.6219992 137.4029978  16.5720014 108.1079992 137.2779978  17.3700014
 108.4659992 138.3159978  16.3280014 108.5306967 137.5092123  16.6480937
 109.3839992 142.2639978   2.3330014 109.4259992 142.0419978   1.4030014
 110.2329992 142.6629978   2.5230014 109.5045253 142.2875498   2.2313822
 104.9569992 136.1399978   3.0040014 104.7029992 136.1589978   3.9260014
 104.6999992 135.2689978   2.7020014 104.8874508 136.0248280   3.0894803
 100.7229992 138.8909978  13.4390014 100.0819992 138.8509978  14.1480014
 100.7609992 139.8179978  13.2010014 100.6403010 139.0107668  13.5039946
 100.7199992 139.1119978   8.3510014  99.8279992 138.7719978   8.2920014
 101.1709992 138.7349978   7.5950014 100.6587642 139.0144910   8.2407726
 106.2559992 139.5279978   7.1680014 105.8469992 140.3429978   6.8760014
 106.9759992 139.3879978   6.5540014 106.2974439 139.6205372   7.0450115
 105.3579992 139.7039978  18.6560014 104.7949992 138.9989978  18.9770014
 106.1839992 139.5829978  19.1240014 105.3926674 139.5912165  18.7631751
 107.2609992 138.9739978   9.9820014 107.0649992 139.5799978   9.2670014
 107.4419992 138.1409978   9.5480014 107.2586584 138.9442513   9.8254212
  98.4729992 139.2119978  15.3060014  98.4349992 139.6119978  16.1750014
  97.9829992 138.3949978  15.3960014  98.4015330 139.1562674  15.4371289
 101.8389992 136.5859978   2.1050014 101.4079992 136.1409978   2.8340014
 101.1209992 136.9569978   1.5920014 101.6829176 136.5752051   2.1354930
  95.0819992 136.3279978   9.1570014  95.7119992 136.2989978   9.8760014
  95.5309992 135.9029978   8.4260014  95.2290835 136.2665660   9.1567659
  96.3559992 137.0739978   4.5810014  96.8299992 137.6649978   3.9960014
  95.6379992 137.6039978   4.9280014  96.3238640 137.2265511   4.5477969
 106.5249992 140.6119978  14.6530014 106.8479992 139.9809978  14.0100014
 106.0839992 140.0779978  15.3140014 106.5096379 140.4533468  14.6542582
 103.3019992 136.5399978   9.4370014 102.3909992 136.5969978   9.7260014
 103.8069992 136.4799978  10.2480014 103.2456873 136.5396826   9.5861207
  98.1299992 138.1689978   8.2640014  97.2409992 138.2679978   7.9240014
  98.4269992 137.3269978   7.9180014  98.0484177 138.0687687   8.1706940
 101.7829992 138.1689978   5.9210014 102.7149992 138.2979978   6.0990014
 101.5679992 138.8379978   5.2710014 101.8814472 138.2770806   5.8574891
 107.7069992 135.7749978  12.7020014 107.0299992 135.9059978  13.3650014
 107.2219992 135.6199978  11.8910014 107.5487405 135.7719947  12.6832170
 100.4569992 139.3629978   3.4870014  99.9149992 138.9839978   2.7960014
 101.2909992 139.5579978   3.0590014 100.4954390 139.3374079   3.3344392
  98.5929992 143.9199978  18.5860014  99.3249992 144.1749978  19.1480014
  97.8119992 144.1249978  19.1020014  98.5876526 143.9825450  18.7325176
 104.6219992 139.3269978  11.3240014 105.1859992 138.7809978  10.7770014
 104.4739992 138.8059978  12.1130014 104.6793037 139.1816787  11.3557229
  99.6239992 135.4639978   7.7430014  99.3069992 134.5609978   7.7070014
 100.4049992 135.4659978   7.1900014  99.6862431 135.3407797   7.6633102
 103.2479992 137.7159978  13.7380014 102.4129992 138.1699978  13.8490014
 103.7719992 137.9919978  14.4900014 103.2046072 137.8153948  13.8548136
 103.7929992 143.9289978   5.4230014 103.0479992 143.4209978   5.1010014
 103.6579992 143.9779978   6.3690014 103.6728963 143.8661731   5.5068826
 110.9429992 143.0619978  14.2100014 111.5839992 143.5179978  13.6660014
 110.1119992 143.1749978  13.7470014 110.9185287 143.1396921  14.0729887
 107.6899992 136.7429978   3.6220014 106.7519992 136.8539978   3.4710014
 107.9879992 137.5989978   3.9290014 107.6016318 136.8740158   3.6428145
 105.3119992 144.1129978  16.6600014 104.9659992 143.7309978  17.4670014
 105.1119992 145.0459978  16.7310014 105.2375987 144.1869002  16.7800461
 108.4089992 138.6099978   5.2830014 109.3009992 138.4719978   5.6020014
 108.4649992 139.4009978   4.7460014 108.5387325 138.6979918   5.2541217
  98.9169992 143.2239978  11.1930014  99.6619992 143.2209978  10.5910014
  98.9949992 142.3999978  11.6740014  99.0293365 143.1122384  11.1757430
 105.9179992 145.3869978   4.4480014 105.6229992 146.2139978   4.8300014
 105.2149992 144.7679978   4.6450014 105.7826379 145.4164171   4.5268654
  95.9249992 141.6839978  16.5080014  96.1479992 141.2659978  17.3390014
  95.3229992 141.0719978  16.0850014  95.8741513 141.5439606  16.5646740
 102.9419992 141.2009978  18.7210014 102.6459992 141.0359978  17.8250014
 103.8729992 140.9809978  18.7100014 103.0274401 141.1486879  18.5970206
 113.2939992 138.8189978   4.9780014 112.7389992 138.4229978   4.3050014
 113.3939992 139.7299978   4.7000014 113.2316816 138.8879505   4.8485033
 113.2569992 144.6199978  17.8150014 112.4059992 144.8579978  17.4470014
 113.8469992 144.6029978  17.0620014 113.2203812 144.6502524  17.6628453
 108.7489992 142.4129978  12.4640014 107.8209992 142.1819978  12.4370014
 109.1999992 141.6359978  12.1340014 108.6828165 142.2762774  12.4156790
  97.0469992 141.6039978   3.1840014  97.6629992 142.2309978   3.5640014
  96.1849992 141.9199978   3.4560014  97.0147678 141.7324412   3.2727209
 102.7199992 144.4049978   8.1730014 102.4789992 145.3299978   8.2150014
 101.9789992 143.9459978   8.5700014 102.5869206 144.4695915   8.2323769
 106.7779992 144.6529978  14.1890014 106.3529992 144.4249978  15.0150014
 107.3589992 143.9139978  14.0070014 106.7983395 144.5219545  14.2774414
  97.5589992 136.4379978  16.0660014  96.6669992 136.7759978  15.9980014
  97.4609992 135.5819978  16.4840014  97.4234475 136.3686543  16.1131704
 109.8469992 144.2539978   5.4900014 109.5699992 143.5259978   6.0460014
 110.7749992 144.3729978   5.6950014 109.9344499 144.1704213   5.5938044
  98.4619992 143.5159978   4.6770014  97.7759992 143.8689978   5.2440014
  98.9849992 144.2789978   4.4300014  98.4388402 143.6673901   4.7211801
 106.2939992 136.1789978  14.9560014 106.9929992 136.2529978  15.6060014
 105.9129992 135.3139978  15.1100014 106.3382097 136.0722389  15.0657997
 107.0779992 135.8309978   6.0530014 107.2979992 136.3019978   5.2490014
 107.6369992 136.2249978   6.7230014 107.1836731 135.9487287   6.0335033
 104.2779992 137.5589978   6.8880014 105.0899992 138.0629978   6.9340014
 104.0339992 137.4139978   7.8020014 104.3561467 137.6083749   7.0178575
 104.8139992 138.5449978  16.0720014 104.9329992 139.1189978  16.8290014
 105.4689992 137.8569978  16.1870014 104.9188684 138.5305194  16.1911674
 105.1619992 134.6399978   7.8260014 104.8149992 135.2569978   8.4700014
 105.8209992 135.1409978   7.3440014 105.2035090 134.7921575   7.8490681
 100.8199992 135.7029978   4.5130014 100.7359992 136.5909978   4.8600014
 101.7099992 135.4379978   4.7450014 100.9288163 135.7887179   4.5918596
 111.0179992 136.4519978  16.9070014 110.1019992 136.7139978  16.8200014
 111.3539992 136.4489978  16.0110014 110.9378499 136.4875163  16.7738766
 109.6209992 140.2019978  11.0030014 108.8229992 139.7869978  10.6750014
 110.0659992 139.5119978  11.4940014 109.5719684 140.0518628  11.0245227
  97.3939992 138.7949978   2.6890014  97.3489992 139.7339978   2.8680014
  96.5059992 138.5589978   2.4200014  97.2678166 138.8916687   2.6771524
  98.2019992 133.5759978  11.3630014  97.9729992 133.6349978  10.4350014
  97.7599992 132.7849978  11.6690014  98.1108801 133.4770540  11.2774729
  96.3279992 143.9399978  19.8070014  96.4719992 143.0379978  19.5210014
  95.5559992 144.2259978  19.3200014  96.2432733 143.8551798  19.7019532
 100.6689992 144.2829978   1.9400014 100.7339992 143.4889978   2.4700014
 101.3219992 144.1649978   1.2500014 100.7661605 144.1583430   1.9192997
 102.9829992 143.9089978  19.2400014 102.6549992 144.1799978  18.3830014
 103.1349992 142.9679978  19.1520014 102.9586412 143.8189046  19.1107822
 106.0219992 145.3299978   1.6760014 105.7529992 145.5109978   2.5760014
 105.8149992 144.4049978   1.5440014 105.9571191 145.2297119   1.7815524
 108.7179992 143.8249978  16.6230014 109.4629992 144.4139978  16.5040014
 107.9609992 144.4069978  16.6870014 108.7175470 143.9842128  16.6153799
  97.1609992 141.1399978  19.2270014  97.5689992 140.2829978  19.1060014
  96.8999992 141.1539978  20.1480014  97.1816016 141.0245119  19.3349192
 101.8189992 142.2559978   4.2460014 101.3589992 141.7719978   4.9310014
 102.0739992 141.5869978   3.6100014 101.7904856 142.0993669   4.2538397
 101.1079992 140.1489978  16.6020014 100.4889992 140.8229978  16.8820014
 101.4519992 140.4699978  15.7680014 101.0697123 140.2846887  16.5276388
 102.8899992 140.4989978   2.5080014 102.7089992 140.3439978   1.5810014
 103.8399992 140.6069978   2.5530014 102.9936566 140.4923669   2.3870929
 106.1269992 142.6199978  19.8790014 107.0809992 142.7039978  19.8520014
 105.9669992 141.9079978  20.4990014 106.2357182 142.5352842  19.9590733
 112.2799992 142.8529978   1.9540014 112.0059992 142.4289978   1.1410014
 112.3189992 143.7849978   1.7370014 112.2477716 142.9208827   1.8134286
 101.4469992 137.5039978  17.6840014 101.5969992 136.7749978  17.0820014
 101.4489992 138.2809978  17.1250014 101.4677967 137.5092708  17.5260541
 101.8599992 135.8729978  15.1770014 102.3949992 136.3249978  14.5250014
 101.0069992 135.7649978  14.7540014 101.8180374 135.9202665  15.0306710
 103.4409992 141.3129978  15.4160014 104.1919992 141.1569978  14.8430014
 103.1019992 142.1649978  15.1410014 103.4979587 141.4068138  15.3004078
 107.8569992 139.1279978  20.4450014 108.0489992 138.1969978  20.3330014
 108.7149992 139.5529978  20.4340014 107.9992182 139.0580070  20.4281862
 109.1739992 141.9169978  18.5220014 108.8919992 142.6259978  17.9440014
 110.1159992 141.8439978  18.3710014 109.2627921 142.0042193  18.4224225
  99.9259992 138.7019978  19.5950014  99.1579992 138.1689978  19.3850014
 100.6039992 138.3919978  18.9960014  99.9127235 138.5871754  19.4852413
 102.6649992 133.3299978  15.6080014 102.5669992 134.2759978  15.5030014
 101.9229992 132.9569978  15.1320014 102.5512534 133.4091773  15.5292600
 103.9289992 137.6509978  19.1720014 103.6939992 137.4319978  20.0730014
 103.1459992 137.4439978  18.6620014 103.7909095 137.5929892  19.2265353
 106.6449992 136.7789978  18.2470014 105.6969992 136.8109978  18.3790014
 106.9569992 136.1529978  18.9010014 106.5575293 136.6987923  18.3534148
 108.2789992 135.4129978  20.2520014 108.1819992 134.4609978  20.2470014
 107.9569992 135.6809978  21.1130014 108.2222468 135.3190884  20.3676210
  98.1059992 136.6219978  19.3000014  98.3179992 135.9159978  18.6900014
  97.9949992 136.1849978  20.1440014  98.1200269 136.4661921  19.3305873
 102.8869992 132.6239978  18.2790014 103.5989992 131.9839978  18.2650014
 102.7859992 132.8899978  17.3660014 102.9707387 132.5724330  18.1535563
 103.2409992 134.3059978  20.3330014 103.1089992 133.8309978  19.5130014
 102.6409992 135.0509978  20.2780014 103.1419070 134.3415789  20.2133251
 111.4369992 145.4659978  20.4150014 110.5709992 145.3609978  20.8090014
 111.8129992 146.2239978  20.8610014 111.3693401 145.5541708  20.5292620
 112.7379992 143.7219978   5.9290014 113.5879992 144.1429978   6.0560014
 112.7429992 142.9819978   6.5360014 112.8551143 143.6796094   6.0284750
 113.1319992 141.7759978   7.7520014 112.4059992 141.2959978   8.1500014
 113.7139992 141.9809978   8.4850014 113.1112730 141.7380184   7.9054149
 112.8909992 144.5609978  12.7000014 113.7249992 144.1829978  12.4190014
 113.0029992 145.5039978  12.5810014 113.0201917 144.6367943  12.6454861
 113.4009992 141.6769978   4.1430014 112.8789992 142.0329978   3.4250014
 113.3679992 142.3519978   4.8220014 113.3250129 141.8169598   4.1363355
 111.7499992 138.9159978   2.6940014 111.8459992 139.5829978   2.0140014
 111.6099992 138.1009978   2.2130014 111.7442040 138.8970671   2.5358378
 110.9189992 140.2969978   8.3150014 110.7689992 139.3519978   8.2950014
 110.5649992 140.5779978   9.1590014 110.8506351 140.2056644   8.4263220
  95.9539992 142.3749978  12.3260014  96.1389992 142.2929978  11.3900014
  96.8039992 142.2509978  12.7490014  96.0940928 142.3470463  12.2552893
 111.7749992 142.2669978  17.9540014 112.3579992 141.5319978  18.1460014
 112.3389992 143.0389978  18.0010014 111.9309781 142.2708145  17.9866164
 113.2719992 140.1699978  18.6390014 112.4089992 139.7909978  18.4730014
 113.8759992 139.4309978  18.5640014 113.2356085 140.0183223  18.6061695
 110.9969992 136.3239978   1.8120014 111.6079992 135.9529978   2.4490014
 110.1599992 135.9029978   2.0080014 110.9674947 136.2162756   1.9257252
 110.6299992 137.8789978   6.7780014 110.9089992 136.9719978   6.9020014
 111.3889992 138.3129978   6.3890014 110.7708619 137.8134502   6.7423795
 111.2409992 138.4609978  12.2140014 112.1739992 138.6729978  12.1790014
 111.0059992 138.5619978  13.1360014 111.3369517 138.5036833  12.3339130
 111.2709992 139.1979978  14.9900014 110.4279992 139.4659978  15.3560014
 111.7129992 140.0199978  14.7790014 111.2154138 139.3458273  15.0115518
  95.5519992 137.6449978  18.4660014  96.4709992 137.5229978  18.7030014
  95.1019992 136.8949978  18.8560014  95.6170087 137.5269608  18.5511410
 113.5539992 133.1779978  20.3430014 113.9029992 132.5239978  19.7380014
 113.7009992 134.0149978  19.9030014 113.6216824 133.2016024  20.2006304
 111.2429992 135.1419978   6.8260014 111.4249992 134.6929978   7.6510014
 110.6429992 134.5579978   6.3620014 111.1868187 135.0015552   6.8762739
  96.7729992 135.9579978  11.3580014  97.2179992 135.1659978  11.6600014
  97.2389992 136.6739978  11.7880014  96.8969718 135.9464534  11.4575265
  95.0769992 138.9569978  12.4270014  95.5689992 138.7359978  11.6360014
  95.4389992 139.7969978  12.7080014  95.1932923 139.0403468  12.3567407
 113.0729992 135.2869978  18.6920014 112.1559992 135.5579978  18.6570014
 113.1959992 134.7519978  17.9080014 112.9639672 135.2517885  18.5811862
 113.1099992 135.2099978   3.3540014 113.5219992 134.4889978   2.8790014
 113.7909992 135.8789978   3.4120014 113.2585536 135.2017766   3.2968024
  95.3909992 135.2149978   6.4810014  94.4659992 135.4229978   6.3520014
  95.8449992 135.6989978   5.7910014  95.3256298 135.3089299   6.3700451
  95.3539992 133.9529978  14.8250014  94.6889992 133.7069978  15.4680014
  94.9109992 134.5749978  14.2480014  95.2031168 134.0034214  14.8349848
 112.0739992 133.3769978  16.5110014 111.2609992 133.7019978  16.1240014
 112.3069992 132.6159978  15.9780014 111.9941347 133.3186880  16.3859841
 105.5039992 134.8259978  10.8340014 104.8299992 134.1959978  11.0900014
 106.0679992 134.3419978  10.2310014 105.4880384 134.6743708  10.7875020
 110.6469992 132.9329978  10.9470014 111.2499992 133.4809978  10.4450014
 109.7769992 133.2519978  10.7060014 110.6119157 133.0510373  10.8457910
 112.3739992 134.0719978   9.2800014 112.9849992 133.5579978   8.7530014
 112.7559992 134.9489978   9.3030014 112.5093305 134.1202050   9.2109418
  97.8309992 133.4599978   8.6560014  97.0539992 133.2249978   8.1490014
  98.3609992 132.6629978   8.6650014  97.7963451 133.3201268   8.5878627
  96.6669992 133.2579978   4.4600014  97.1059992 133.8689978   3.8680014
  96.0329992 133.7959978   4.9340014  96.6413859 133.4144064   4.4430305
 102.4099992 133.3859978   8.4690014 103.2839992 133.7749978   8.4400014
 102.2739992 133.1709978   9.3920014 102.5111953 133.4101643   8.5897617
 107.9669992 133.4159978  10.1190014 108.0429992 133.5119978   9.1690014
 107.6919992 132.5089978  10.2470014 107.9401871 133.3064146  10.0063944
 109.3199992 133.4419978   5.8110014 108.6169992 134.0569978   5.6010014
 108.8749992 132.6049978   5.9420014 109.1636550 133.4129668   5.7999837
  98.5279992 135.1739978   2.9020014  99.0189992 134.5439978   2.3750014
  99.1509992 135.4699978   3.5650014  98.6795304 135.1277376   2.9194940
 103.5539992 135.4669978   5.3590014 103.7319992 134.8199978   6.0420014
 103.4999992 136.3009978   5.8260014 103.5710678 135.4911604   5.5156301
  97.7879992 133.9739978  18.1740014  97.4219992 133.2079978  18.6160014
  98.7009992 134.0029978  18.4600014  97.8613172 133.8730324  18.2731890
  99.7609992 133.3239978  19.7090014 100.6599992 133.0499978  19.5250014
  99.3749992 132.5819978  20.1740014  99.8317307 133.1862196  19.7467098
 108.1829992 132.6569978  19.8920014 108.2589992 132.2309978  20.7450014
 109.0759992 132.6699978  19.5490014 108.3142303 132.6003493  19.9625497
 125.7649992 142.6159978   8.6150014 125.8539992 143.5599978   8.4830014
 125.1269992 142.3409978   7.9570014 125.6909062 142.7079812   8.5079641
 124.6979992 141.8709978  12.0340014 124.6599992 141.2249978  12.7390014
 124.3759992 141.4039978  11.2630014 124.6492679 141.7194276  12.0262921
 117.0659992 141.4849978  13.6270014 117.1079992 140.8599978  14.3500014
 117.7689992 142.1089978  13.8090014 117.1667345 141.4837873  13.7505274
 128.4039992 144.8099978  10.3350014 127.9629992 144.0899978  10.7860014
 128.3909992 145.5309978  10.9650014 128.3419215 144.8089291  10.4818105
 114.5999992 139.5949978   7.5540014 114.1519992 140.4409978   7.5360014
 114.0389992 139.0159978   7.0390014 114.4628546 139.6323993   7.4818891
 115.3099992 141.7569978   9.6800014 115.5239992 140.9869978  10.2080014
 116.0479992 141.8469978   9.0770014 115.4390200 141.6638587   9.6707035
 123.0869992 144.3029978  12.4400014 123.3909992 143.6169978  11.8450014
 123.8089992 144.4219978  13.0580014 123.2261240 144.2252314  12.4420959
 131.7499992 135.9049978  13.3000014 131.7999992 136.5149978  14.0360014
 132.1759992 136.3659978  12.5770014 131.8144108 136.0507709  13.3030112
 126.2279992 138.6969978  12.7670014 126.3709992 137.7509978  12.7870014
 126.1219992 138.9039978  11.8390014 126.2332403 138.5954797  12.6442239
 119.3829992 136.7989978  10.0400014 119.4259992 137.6589978   9.6210014
 118.9249992 136.2469978   9.4060014 119.3269871 136.8419245   9.8970761
 127.1049992 136.9299978   8.4410014 127.7519992 136.6009978   9.0650014
 127.6149992 137.4469978   7.8180014 127.2624351 136.9549067   8.4421037
 116.0029992 139.1959978  10.8020014 116.6569992 138.6459978  11.2340014
 116.0269992 138.9219978   9.8850014 116.0957199 139.0837167  10.7371668
 121.1599992 140.7459978  10.0170014 121.7759992 140.2189978  10.5260014
 120.5729992 140.1059978   9.6130014 121.1650154 140.5873954  10.0320945
 132.1419992 137.3829978  15.5360014 131.4529992 138.0409978  15.4410014
 132.1569992 137.1849978  16.4730014 132.0497756 137.4462603  15.6495812
 118.1929992 135.7169978  14.1140014 117.9739992 136.2469978  13.3470014
 117.5249992 135.9429978  14.7610014 118.0726975 135.8200967  14.0965140
 125.5619992 145.2169978   7.6580014 125.2669992 144.8939978   6.8060014
 125.2379992 146.1169978   7.6990014 125.4778460 145.2944464   7.5469714
 120.7619992 143.3919978  14.4010014 120.0219992 143.9909978  14.5050014
 121.4759992 143.9459978  14.0860014 120.7573500 143.5487829  14.3726371
 128.8689992 136.2209978  10.4210014 128.6539992 135.4549978  10.9540014
 129.5249992 136.6929978  10.9340014 128.9282673 136.1800728  10.5631990
 117.7869992 137.6089978  12.0660014 118.4009992 138.2419978  12.4390014
 118.2989992 137.1369978  11.4100014 117.9401962 137.6317249  12.0282935
 119.1699992 145.3569978  15.1880014 119.1639992 146.2359978  14.8100014
 118.3159992 145.2729978  15.6130014 119.0537925 145.4659535  15.1936887
 115.2909992 145.0279978   5.9700014 115.0189992 145.2569978   5.0820014
 115.3359992 145.8649978   6.4310014 115.2598097 145.1726163   5.9106683
 129.2159992 134.9359978  14.1000014 128.4799992 135.5459978  14.0630014
 129.8999992 135.3509978  13.5740014 129.2075367 135.0757551  14.0238174
 122.2199992 133.0219978  11.5660014 122.1019992 132.0739978  11.5120014
 121.3649992 133.3549978  11.8390014 122.0882805 132.9372202  11.5955079
 130.0139992 144.8979978  16.2940014 130.1529992 144.3059978  15.5550014
 130.1809992 145.7709978  15.9380014 130.0556193 144.9348896  16.1446211
 124.4859992 141.8599978   6.0670014 123.7749992 142.3949978   5.7150014
 125.1769992 141.9149978   5.4070014 124.4820751 141.9406777   5.9295858
 124.5399992 140.3169978   3.1050014 125.2409992 140.3399978   3.7570014
 124.8419992 139.6889978   2.4490014 124.6768202 140.2352212   3.1055609
 131.8549992 141.2379978  14.3600014 131.2029992 141.9319978  14.4490014
 132.3209992 141.4479978  13.5500014 131.8285937 141.3615019  14.2627533
 127.8919992 142.0689978   7.0180014 127.1599992 142.2979978   7.5920014
 128.3389992 141.3559978   7.4730014 127.8523963 142.0038729   7.1579945
 127.7889992 140.2439978  16.0860014 127.8689992 141.0069978  16.6580014
 127.1879992 140.5229978  15.3960014 127.7186547 140.3862457  16.0710047
 119.5369992 142.6999978   8.9010014 119.2069992 142.3289978   8.0830014
 120.1259992 142.0289978   9.2480014 119.5713970 142.5586063   8.8359404
 119.9039992 141.4679978  12.5340014 120.4689992 141.5899978  11.7720014
 120.2229992 142.1059978  13.1730014 120.0244166 141.5708791  12.5160348
 126.7629992 141.2319978   4.7040014 127.3419992 141.3819978   5.4500014
 127.1769992 141.7019978   3.9800014 126.8983358 141.3160954   4.7083953
 117.7039992 142.0659978  16.4800014 117.7739992 142.7169978  17.1790014
 116.8129992 142.1689978  16.1450014 117.5931690 142.1689249  16.5303043
 130.4619992 132.9819978   4.5170014 129.5619992 133.1209978   4.8120014
 130.7139992 133.8129978   4.1150014 130.3728683 133.1134055   4.5030232
 118.5279992 141.7689978   6.4900014 118.2359992 142.5369978   5.9990014
 117.8529992 141.1099978   6.3270014 118.3968497 141.7849745   6.4008260
 114.6209992 144.1319978  15.3050014 114.1189992 144.1039978  14.4900014
 114.6259992 143.2269978  15.6150014 114.5529832 144.0057486  15.2354121
 129.7209992 139.0719978  18.3520014 129.3129992 139.5519978  17.6310014
 129.7609992 138.1659978  18.0440014 129.6706221 139.0152449  18.2118267
 116.8699992 145.4559978  16.3480014 117.0859992 145.0939978  17.2080014
 116.0139992 145.0809978  16.1390014 116.7838810 145.3558837  16.4372680
 119.4879992 133.9259978  12.3440014 118.6269992 133.8389978  11.9360014
 119.4659992 134.7819978  12.7720014 119.3670491 134.0298003  12.3459582
 124.1509992 133.6479978  15.7190014 124.5709992 133.2329978  16.4720014
 123.2179992 133.4689978  15.8360014 124.0823736 133.5669910  15.8378968
 127.4779992 137.4029978  16.5720014 126.9639992 137.2779978  17.3700014
 127.3219992 138.3159978  16.3280014 127.3866967 137.5092123  16.6480937
 128.2399992 142.2639978   2.3330014 128.2819992 142.0419978   1.4030014
 129.0889992 142.6629978   2.5230014 128.3605253 142.2875498   2.2313822
 123.8129992 136.1399978   3.0040014 123.5589992 136.1589978   3.9260014
 123.5559992 135.2689978   2.7020014 123.7434508 136.0248280   3.0894803
 119.5789992 138.8909978  13.4390014 118.9379992 138.8509978  14.1480014
 119.6169992 139.8179978  13.2010014 119.4963010 139.0107668  13.5039946
 119.5759992 139.1119978   8.3510014 118.6839992 138.7719978   8.2920014
 120.0269992 138.7349978   7.5950014 119.5147642 139.0144910   8.2407726
 125.1119992 139.5279978   7.1680014 124.7029992 140.3429978   6.8760014
 125.8319992 139.3879978   6.5540014 125.1534439 139.6205372   7.0450115
 124.2139992 139.7039978  18.6560014 123.6509992 138.9989978  18.9770014
 125.0399992 139.5829978  19.1240014 124.2486674 139.5912165  18.7631751
 126.1169992 138.9739978   9.9820014 125.9209992 139.5799978   9.2670014
 126.2979992 138.1409978   9.5480014 126.1146584 138.9442513   9.8254212
 117.3289992 139.2119978  15.3060014 117.2909992 139.6119978  16.1750014
 116.8389992 138.3949978  15.3960014 117.2575330 139.1562674  15.4371289
 120.6949992 136.5859978   2.1050014 120.2639992 136.1409978   2.8340014
 119.9769992 136.9569978   1.5920014 120.5389176 136.5752051   2.1354930
 113.9379992 136.3279978   9.1570014 114.5679992 136.2989978   9.8760014
 114.3869992 135.9029978   8.4260014 114.0850835 136.2665660   9.1567659
 115.2119992 137.0739978   4.5810014 115.6859992 137.6649978   3.9960014
 114.4939992 137.6039978   4.9280014 115.1798640 137.2265511   4.5477969
 125.3809992 140.6119978  14.6530014 125.7039992 139.9809978  14.0100014
 124.9399992 140.0779978  15.3140014 125.3656379 140.4533468  14.6542582
 122.1579992 136.5399978   9.4370014 121.2469992 136.5969978   9.7260014
 122.6629992 136.4799978  10.2480014 122.1016873 136.5396826   9.5861207
 116.9859992 138.1689978   8.2640014 116.0969992 138.2679978   7.9240014
 117.2829992 137.3269978   7.9180014 116.9044177 138.0687687   8.1706940
 120.6389992 138.1689978   5.9210014 121.5709992 138.2979978   6.0990014
 120.4239992 138.8379978   5.2710014 120.7374472 138.2770806   5.8574891
 126.5629992 135.7749978  12.7020014 125.8859992 135.9059978  13.3650014
 126.0779992 135.6199978  11.8910014 126.4047405 135.7719947  12.6832170
 119.3129992 139.3629978   3.4870014 118.7709992 138.9839978   2.7960014
 120.1469992 139.5579978   3.0590014 119.3514390 139.3374079   3.3344392
 117.4489992 143.9199978  18.5860014 118.1809992 144.1749978  19.1480014
 116.6679992 144.1249978  19.1020014 117.4436526 143.9825450  18.7325176
 123.4779992 139.3269978  11.3240014 124.0419992 138.7809978  10.7770014
 123.3299992 138.8059978  12.1130014 123.5353037 139.1816787  11.3557229
 118.4799992 135.4639978   7.7430014 118.1629992 134.5609978   7.7070014
 119.2609992 135.4659978   7.1900014 118.5422431 135.3407797   7.6633102
 122.1039992 137.7159978  13.7380014 121.2689992 138.1699978  13.8490014
 122.6279992 137.9919978  14.4900014 122.0606072 137.8153948  13.8548136
 122.6489992 143.9289978   5.4230014 121.9039992 143.4209978   5.1010014
 122.5139992 143.9779978   6.3690014 122.5288963 143.8661731   5.5068826
 129.7989992 143.0619978  14.2100014 130.4399992 143.5179978  13.6660014
 128.9679992 143.1749978  13.7470014 129.7745287 143.1396921  14.0729887
 126.5459992 136.7429978   3.6220014 125.6079992 136.8539978   3.4710014
 126.8439992 137.5989978   3.9290014 126.4576318 136.8740158   3.6428145
 124.1679992 144.1129978  16.6600014 123.8219992 143.7309978  17.4670014
 123.9679992 145.0459978  16.7310014 124.0935987 144.1869002  16.7800461
 127.2649992 138.6099978   5.2830014 128.1569992 138.4719978   5.6020014
 127.3209992 139.4009978   4.7460014 127.3947325 138.6979918   5.2541217
 117.7729992 143.2239978  11.1930014 118.5179992 143.2209978  10.5910014
 117.8509992 142.3999978  11.6740014 117.8853365 143.1122384  11.1757430
 124.7739992 145.3869978   4.4480014 124.4789992 146.2139978   4.8300014
 124.0709992 144.7679978   4.6450014 124.6386379 145.4164171   4.5268654
 114.7809992 141.6839978  16.5080014 115.0039992 141.2659978  17.3390014
 114.1789992 141.0719978  16.0850014 114.7301513 141.5439606  16.5646740
 121.7979992 141.2009978  18.7210014 121.5019992 141.0359978  17.8250014
 122.7289992 140.9809978  18.7100014 121.8834401 141.1486879  18.5970206
 132.1499992 138.8189978   4.9780014 131.5949992 138.4229978   4.3050014
 132.2499992 139.7299978   4.7000014 132.0876816 138.8879505   4.8485033
 132.1129992 144.6199978  17.8150014 131.2619992 144.8579978  17.4470014
 132.7029992 144.6029978  17.0620014 132.0763812 144.6502524  17.6628453
 127.6049992 142.4129978  12.4640014 126.6769992 142.1819978  12.4370014
 128.0559992 141.6359978  12.1340014 127.5388165 142.2762774  12.4156790
 115.9029992 141.6039978   3.1840014 116.5189992 142.2309978   3.5640014
 115.0409992 141.9199978   3.4560014 115.8707678 141.7324412   3.2727209
 121.5759992 144.4049978   8.1730014 121.3349992 145.3299978   8.2150014
 120.8349992 143.9459978   8.5700014 121.4429206 144.4695915   8.2323769
 125.6339992 144.6529978  14.1890014 125.2089992 144.4249978  15.0150014
 126.2149992 143.9139978  14.0070014 125.6543395 144.5219545  14.2774414
 116.4149992 136.4379978  16.0660014 115.5229992 136.7759978  15.9980014
 116.3169992 135.5819978  16.4840014 116.2794475 136.3686543  16.1131704
 128.7029992 144.2539978   5.4900014 128.4259992 143.5259978   6.0460014
 129.6309992 144.3729978   5.6950014 128.7904499 144.1704213   5.5938044
 117.3179992 143.5159978   4.6770014 116.6319992 143.8689978   5.2440014
 117.8409992 144.2789978   4.4300014 117.2948402 143.6673901   4.7211801
 125.1499992 136.1789978  14.9560014 125.8489992 136.2529978  15.6060014
 124.7689992 135.3139978  15.1100014 125.1942097 136.0722389  15.0657997
 125.9339992 135.8309978   6.0530014 126.1539992 136.3019978   5.2490014
 126.4929992 136.2249978   6.7230014 126.0396731 135.9487287   6.0335033
 123.1339992 137.5589978   6.8880014 123.9459992 138.0629978   6.9340014
 122.8899992 137.4139978   7.8020014 123.2121467 137.6083749   7.0178575
 123.6699992 138.5449978  16.0720014 123.7889992 139.1189978  16.8290014
 124.3249992 137.8569978  16.1870014 123.7748684 138.5305194  16.1911674
 124.0179992 134.6399978   7.8260014 123.6709992 135.2569978   8.4700014
 124.6769992 135.1409978   7.3440014 124.0595090 134.7921575   7.8490681
 119.6759992 135.7029978   4.5130014 119.5919992 136.5909978   4.8600014
 120.5659992 135.4379978   4.7450014 119.7848163 135.7887179   4.5918596
 129.8739992 136.4519978  16.9070014 128.9579992 136.7139978  16.8200014
 130.2099992 136.4489978  16.0110014 129.7938499 136.4875163  16.7738766
 128.4769992 140.2019978  11.0030014 127.6789992 139.7869978  10.6750014
 128.9219992 139.5119978  11.4940014 128.4279684 140.0518628  11.0245227
 116.2499992 138.7949978   2.6890014 116.2049992 139.7339978   2.8680014
 115.3619992 138.5589978   2.4200014 116.1238166 138.8916687   2.6771524
 117.0579992 133.5759978  11.3630014 116.8289992 133.6349978  10.4350014
 116.6159992 132.7849978  11.6690014 116.9668801 133.4770540  11.2774729
 115.1839992 143.9399978  19.8070014 115.3279992 143.0379978  19.5210014
 114.4119992 144.2259978  19.3200014 115.0992733 143.8551798  19.7019532
 119.5249992 144.2829978   1.9400014 119.5899992 143.4889978   2.4700014
 120.1779992 144.1649978   1.2500014 119.6221605 144.1583430   1.9192997
 121.8389992 143.9089978  19.2400014 121.5109992 144.1799978  18.3830014
 121.9909992 142.9679978  19.1520014 121.8146412 143.8189046  19.1107822
 124.8779992 145.3299978   1.6760014 124.6089992 145.5109978   2.5760014
 124.6709992 144.4049978   1.5440014 124.8131191 145.2297119   1.7815524
 127.5739992 143.8249978  16.6230014 128.3189992 144.4139978  16.5040014
 126.8169992 144.4069978  16.6870014 127.5735470 143.9842128  16.6153799
 116.0169992 141.1399978  19.2270014 116.4249992 140.2829978  19.1060014
 115.7559992 141.1539978  20.1480014 116.0376016 141.0245119  19.3349192
 120.6749992 142.2559978   4.2460014 120.2149992 141.7719978   4.9310014
 120.9299992 141.5869978   3.6100014 120.6464856 142.0993669   4.2538397
 119.9639992 140.1489978  16.6020014 119.3449992 140.8229978  16.8820014
 120.3079992 140.4699978  15.7680014 119.9257123 140.2846887  16.5276388
 121.7459992 140.4989978   2.5080014 121.5649992 140.3439978   1.5810014
 122.6959992 140.6069978   2.5530014 121.8496566 140.4923669   2.3870929
 124.9829992 142.6199978  19.8790014 125.9369992 142.7039978  19.8520014
 124.8229992 141.9079978  20.4990014 125.0917182 142.5352842  19.9590733
 131.1359992 142.8529978   1.9540014 130.8619992 142.4289978   1.1410014
 131.1749992 143.7849978   1.7370014 131.1037716 142.9208827   1.8134286
 120.3029992 137.5039978  17.6840014 120.4529992 136.7749978  17.0820014
 120.3049992 138.2809978  17.1250014 120.3237967 137.5092708  17.5260541
 120.7159992 135.8729978  15.1770014 121.2509992 136.3249978  14.5250014
 119.8629992 135.7649978  14.7540014 120.6740374 135.9202665  15.0306710
 122.2969992 141.3129978  15.4160014 123.0479992 141.1569978  14.8430014
 121.9579992 142.1649978  15.1410014 122.3539587 141.4068138  15.3004078
 126.7129992 139.1279978  20.4450014 126.9049992 138.1969978  20.3330014
 127.5709992 139.5529978  20.4340014 126.8552182 139.0580070  20.4281862
 128.0299992 141.9169978  18.5220014 127.7479992 142.6259978  17.9440014
 128.9719992 141.8439978  18.3710014 128.1187921 142.0042193  18.4224225
 118.7819992 138.7019978  19.5950014 118.0139992 138.1689978  19.3850014
 119.4599992 138.3919978  18.9960014 118.7687235 138.5871754  19.4852413
 121.5209992 133.3299978  15.6080014 121.4229992 134.2759978  15.5030014
 120.7789992 132.9569978  15.1320014 121.4072534 133.4091773  15.5292600
 122.7849992 137.6509978  19.1720014 122.5499992 137.4319978  20.0730014
 122.0019992 137.4439978  18.6620014 122.6469095 137.5929892  19.2265353
 125.5009992 136.7789978  18.2470014 124.5529992 136.8109978  18.3790014
 125.8129992 136.1529978  18.9010014 125.4135293 136.6987923  18.3534148
 127.1349992 135.4129978  20.2520014 127.0379992 134.4609978  20.2470014
 126.8129992 135.6809978  21.1130014 127.0782468 135.3190884  20.3676210
 116.9619992 136.6219978  19.3000014 117.1739992 135.9159978  18.6900014
 116.8509992 136.1849978  20.1440014 116.9760269 136.4661921  19.3305873
 121.7429992 132.6239978  18.2790014 122.4549992 131.9839978  18.2650014
 121.6419992 132.8899978  17.3660014 121.8267387 132.5724330  18.1535563
 122.0969992 134.3059978  20.3330014 121.9649992 133.8309978  19.5130014
 121.4969992 135.0509978  20.2780014 121.9979070 134.3415789  20.2133251
 130.2929992 145.4659978  20.4150014 129.4269992 145.3609978  20.8090014
 130.6689992 146.2239978  20.8610014 130.2253401 145.5541708  20.5292620
 131.5939992 143.7219978   5.9290014 132.4439992 144.1429978   6.0560014
 131.5989992 142.9819978   6.5360014 131.7111143 143.6796094   6.0284750
 131.9879992 141.7759978   7.7520014 131.2619992 141.2959978   8.1500014
 132.5699992 141.9809978   8.4850014 131.9672730 141.7380184   7.9054149
 131.7469992 144.5609978  12.7000014 132.5809992 144.1829978  12.4190014
 131.8589992 145.5039978  12.5810014 131.8761917 144.6367943  12.6454861
 132.2569992 141.6769978   4.1430014 131.7349992 142.0329978   3.4250014
 132.2239992 142.3519978   4.8220014 132.1810129 141.8169598   4.1363355
 130.6059992 138.9159978   2.6940014 130.7019992 139.5829978   2.0140014
 130.4659992 138.1009978   2.2130014 130.6002040 138.8970671   2.5358378
 129.7749992 140.2969978   8.3150014 129.6249992 139.3519978   8.2950014
 129.4209992 140.5779978   9.1590014 129.7066351 140.2056644   8.4263220
 114.8099992 142.3749978  12.3260014 114.9949992 142.2929978  11.3900014
 115.6599992 142.2509978  12.7490014 114.9500928 142.3470463  12.2552893
 130.6309992 142.2669978  17.9540014 131.2139992 141.5319978  18.1460014
 131.1949992 143.0389978  18.0010014 130.7869781 142.2708145  17.9866164
 132.1279992 140.1699978  18.6390014 131.2649992 139.7909978  18.4730014
 132.7319992 139.4309978  18.5640014 132.0916085 140.0183223  18.6061695
 129.8529992 136.3239978   1.8120014 130.4639992 135.9529978   2.4490014
 129.0159992 135.9029978   2.0080014 129.8234947 136.2162756   1.9257252
 129.4859992 137.8789978   6.7780014 129.7649992 136.9719978   6.9020014
 130.2449992 138.3129978   6.3890014 129.6268619 137.8134502   6.7423795
 130.0969992 138.4609978  12.2140014 131.0299992 138.6729978  12.1790014
 129.8619992 138.5619978  13.1360014 130.1929517 138.5036833  12.3339130
 130.1269992 139.1979978  14.9900014 129.2839992 139.4659978  15.3560014
 130.5689992 140.0199978  14.7790014 130.0714138 139.3458273  15.0115518
 114.4079992 137.6449978  18.4660014 115.3269992 137.5229978  18.7030014
 113.9579992 136.8949978  18.8560014 114.4730087 137.5269608  18.5511410
 132.4099992 133.1779978  20.3430014 132.7589992 132.5239978  19.7380014
 132.5569992 134.0149978  19.9030014 132.4776824 133.2016024  20.2006304
 130.0989992 135.1419978   6.8260014 130.2809992 134.6929978   7.6510014
 129.4989992 134.5579978   6.3620014 130.0428187 135.0015552   6.8762739
 115.6289992 135.9579978  11.3580014 116.0739992 135.1659978  11.6600014
 116.0949992 136.6739978  11.7880014 115.7529718 135.9464534  11.4575265
 113.9329992 138.9569978  12.4270014 114.4249992 138.7359978  11.6360014
 114.2949992 139.7969978  12.7080014 114.0492923 139.0403468  12.3567407
 131.9289992 135.2869978  18.6920014 131.0119992 135.5579978  18.6570014
 132.0519992 134.7519978  17.9080014 131.8199672 135.2517885  18.5811862
 131.9659992 135.2099978   3.3540014 132.3779992 134.4889978   2.8790014
 132.6469992 135.8789978   3.4120014 132.1145536 135.2017766   3.2968024
 114.2469992 135.2149978   6.4810014 113.3219992 135.4229978   6.3520014
 114.7009992 135.6989978   5.7910014 114.1816298 135.3089299   6.3700451
 114.2099992 133.9529978  14.8250014 113.5449992 133.7069978  15.4680014
 113.7669992 134.5749978  14.2480014 114.0591168 134.0034214  14.8349848
 130.9299992 133.3769978  16.5110014 130.1169992 133.7019978  16.1240014
 131.1629992 132.6159978  15.9780014 130.8501347 133.3186880  16.3859841
 124.3599992 134.8259978  10.8340014 123.6859992 134.1959978  11.0900014
 124.9239992 134.3419978  10.2310014 124.3440384 134.6743708  10.7875020
 129.5029992 132.9329978  10.9470014 130.1059992 133.4809978  10.4450014
 128.6329992 133.2519978  10.7060014 129.4679157 133.0510373  10.8457910
 131.2299992 134.0719978   9.2800014 131.8409992 133.5579978   8.7530014
 131.6119992 134.9489978   9.3030014 131.3653305 134.1202050   9.2109418
 116.6869992 133.4599978   8.6560014 115.9099992 133.2249978   8.1490014
 117.2169992 132.6629978   8.6650014 116.6523451 133.3201268   8.5878627
 115.5229992 133.2579978   4.4600014 115.9619992 133.8689978   3.8680014
 114.8889992 133.7959978   4.9340014 115.4973859 133.4144064   4.4430305
 121.2659992 133.3859978   8.4690014 122.1399992 133.7749978   8.4400014
 121.1299992 133.1709978   9.3920014 121.3671953 133.4101643   8.5897617
 126.8229992 133.4159978  10.1190014 126.8989992 133.5119978   9.1690014
 126.5479992 132.5089978  10.2470014 126.7961871 133.3064146  10.0063944
 128.1759992 133.4419978   5.8110014 127.4729992 134.0569978   5.6010014
 127.7309992 132.6049978   5.9420014 128.0196550 133.4129668   5.7999837
 117.3839992 135.1739978   2.9020014 117.8749992 134.5439978   2.3750014
 118.0069992 135.4699978   3.5650014 117.5355304 135.1277376   2.9194940
 122.4099992 135.4669978   5.3590014 122.5879992 134.8199978   6.0420014
 122.3559992 136.3009978   5.8260014 122.4270678 135.4911604   5.5156301
 116.6439992 133.9739978  18.1740014 116.2779992 133.2079978  18.6160014
 117.5569992 134.0029978  18.4600014 116.7173172 133.8730324  18.2731890
 118.6169992 133.3239978  19.7090014 119.5159992 133.0499978  19.5250014
 118.2309992 132.5819978  20.1740014 118.6877307 133.1862196  19.7467098
 127.0389992 132.6569978  19.8920014 127.1149992 132.2309978  20.7450014
 127.9319992 132.6699978  19.5490014 127.1702303 132.6003493  19.9625497
 144.6209992 142.6159978   8.6150014 144.7099992 143.5599978   8.4830014
 143.9829992 142.3409978   7.9570014 144.5469062 142.7079812   8.5079641
 143.5539992 141.8709978  12.0340014 143.5159992 141.2249978  12.7390014
 143.2319992 141.4039978  11.2630014 143.5052679 141.7194276  12.0262921
 135.9219992 141.4849978  13.6270014 135.9639992 140.8599978  14.3500014
 136.6249992 142.1089978  13.8090014 136.0227345 141.4837873  13.7505274
 133.4559992 139.5949978   7.5540014 133.0079992 140.4409978   7.5360014
 132.8949992 139.0159978   7.0390014 133.3188546 139.6323993   7.4818891
 134.1659992 141.7569978   9.6800014 134.3799992 140.9869978  10.2080014
 134.9039992 141.8469978   9.0770014 134.2950200 141.6638587   9.6707035
 141.9429992 144.3029978  12.4400014 142.2469992 143.6169978  11.8450014
 142.6649992 144.4219978  13.0580014 142.0821240 144.2252314  12.4420959
 145.0839992 138.6969978  12.7670014 145.2269992 137.7509978  12.7870014
 144.9779992 138.9039978  11.8390014 145.0892403 138.5954797  12.6442239
 138.2389992 136.7989978  10.0400014 138.2819992 137.6589978   9.6210014
 137.7809992 136.2469978   9.4060014 138.1829871 136.8419245   9.8970761
 134.8589992 139.1959978  10.8020014 135.5129992 138.6459978  11.2340014
 134.8829992 138.9219978   9.8850014 134.9517199 139.0837167  10.7371668
 140.0159992 140.7459978  10.0170014 140.6319992 140.2189978  10.5260014
 139.4289992 140.1059978   9.6130014 140.0210154 140.5873954  10.0320945
 137.0489992 135.7169978  14.1140014 136.8299992 136.2469978  13.3470014
 136.3809992 135.9429978  14.7610014 136.9286975 135.8200967  14.0965140
 144.4179992 145.2169978   7.6580014 144.1229992 144.8939978   6.8060014
 144.0939992 146.1169978   7.6990014 144.3338460 145.2944464   7.5469714
 139.6179992 143.3919978  14.4010014 138.8779992 143.9909978  14.5050014
 140.3319992 143.9459978  14.0860014 139.6133500 143.5487829  14.3726371
 136.6429992 137.6089978  12.0660014 137.2569992 138.2419978  12.4390014
 137.1549992 137.1369978  11.4100014 136.7961962 137.6317249  12.0282935
 138.0259992 145.3569978  15.1880014 138.0199992 146.2359978  14.8100014
 137.1719992 145.2729978  15.6130014 137.9097925 145.4659535  15.1936887
 134.1469992 145.0279978   5.9700014 133.8749992 145.2569978   5.0820014
 134.1919992 145.8649978   6.4310014 134.1158097 145.1726163   5.9106683
 141.0759992 133.0219978  11.5660014 140.9579992 132.0739978  11.5120014
 140.2209992 133.3549978  11.8390014 140.9442805 132.9372202  11.5955079
 143.3419992 141.8599978   6.0670014 142.6309992 142.3949978   5.7150014
 144.0329992 141.9149978   5.4070014 143.3380751 141.9406777   5.9295858
 143.3959992 140.3169978   3.1050014 144.0969992 140.3399978   3.7570014
 143.6979992 139.6889978   2.4490014 143.5328202 140.2352212   3.1055609
 138.3929992 142.6999978   8.9010014 138.0629992 142.3289978   8.0830014
 138.9819992 142.0289978   9.2480014 138.4273970 142.5586063   8.8359404
 138.7599992 141.4679978  12.5340014 139.3249992 141.5899978  11.7720014
 139.0789992 142.1059978  13.1730014 138.8804166 141.5708791  12.5160348
 136.5599992 142.0659978  16.4800014 136.6299992 142.7169978  17.1790014
 135.6689992 142.1689978  16.1450014 136.4491690 142.1689249  16.5303043
 137.3839992 141.7689978   6.4900014 137.0919992 142.5369978   5.9990014
 136.7089992 141.1099978   6.3270014 137.2528497 141.7849745   6.4008260
 133.4769992 144.1319978  15.3050014 132.9749992 144.1039978  14.4900014
 133.4819992 143.2269978  15.6150014 133.4089832 144.0057486  15.2354121
 135.7259992 145.4559978  16.3480014 135.9419992 145.0939978  17.2080014
 134.8699992 145.0809978  16.1390014 135.6398810 145.3558837  16.4372680
 138.3439992 133.9259978  12.3440014 137.4829992 133.8389978  11.9360014
 138.3219992 134.7819978  12.7720014 138.2230491 134.0298003  12.3459582
 143.0069992 133.6479978  15.7190014 143.4269992 133.2329978  16.4720014
 142.0739992 133.4689978  15.8360014 142.9383736 133.5669910  15.8378968
 142.6689992 136.1399978   3.0040014 142.4149992 136.1589978   3.9260014
 142.4119992 135.2689978   2.7020014 142.5994508 136.0248280   3.0894803
 138.4349992 138.8909978  13.4390014 137.7939992 138.8509978  14.1480014
 138.4729992 139.8179978  13.2010014 138.3523010 139.0107668  13.5039946
 138.4319992 139.1119978   8.3510014 137.5399992 138.7719978   8.2920014
 138.8829992 138.7349978   7.5950014 138.3707642 139.0144910   8.2407726
 143.9679992 139.5279978   7.1680014 143.5589992 140.3429978   6.8760014
 144.6879992 139.3879978   6.5540014 144.0094439 139.6205372   7.0450115
 143.0699992 139.7039978  18.6560014 142.5069992 138.9989978  18.9770014
 143.8959992 139.5829978  19.1240014 143.1046674 139.5912165  18.7631751
 144.9729992 138.9739978   9.9820014 144.7769992 139.5799978   9.2670014
 145.1539992 138.1409978   9.5480014 144.9706584 138.9442513   9.8254212
 136.1849992 139.2119978  15.3060014 136.1469992 139.6119978  16.1750014
 135.6949992 138.3949978  15.3960014 136.1135330 139.1562674  15.4371289
 139.5509992 136.5859978   2.1050014 139.1199992 136.1409978   2.8340014
 138.8329992 136.9569978   1.5920014 139.3949176 136.5752051   2.1354930
 132.7939992 136.3279978   9.1570014 133.4239992 136.2989978   9.8760014
 133.2429992 135.9029978   8.4260014 132.9410835 136.2665660   9.1567659
 134.0679992 137.0739978   4.5810014 134.5419992 137.6649978   3.9960014
 133.3499992 137.6039978   4.9280014 134.0358640 137.2265511   4.5477969
 144.2369992 140.6119978  14.6530014 144.5599992 139.9809978  14.0100014
 143.7959992 140.0779978  15.3140014 144.2216379 140.4533468  14.6542582
 141.0139992 136.5399978   9.4370014 140.1029992 136.5969978   9.7260014
 141.5189992 136.4799978  10.2480014 140.9576873 136.5396826   9.5861207
 135.8419992 138.1689978   8.2640014 134.9529992 138.2679978   7.9240014
 136.1389992 137.3269978   7.9180014 135.7604177 138.0687687   8.1706940
 139.4949992 138.1689978   5.9210014 140.4269992 138.2979978   6.0990014
 139.2799992 138.8379978   5.2710014 139.5934472 138.2770806   5.8574891
 145.4189992 135.7749978  12.7020014 144.7419992 135.9059978  13.3650014
 144.9339992 135.6199978  11.8910014 145.2607405 135.7719947  12.6832170
 138.1689992 139.3629978   3.4870014 137.6269992 138.9839978   2.7960014
 139.0029992 139.5579978   3.0590014 138.2074390 139.3374079   3.3344392
 136.3049992 143.9199978  18.5860014 137.0369992 144.1749978  19.1480014
 135.5239992 144.1249978  19.1020014 136.2996526 143.9825450  18.7325176
 142.3339992 139.3269978  11.3240014 142.8979992 138.7809978  10.7770014
 142.1859992 138.8059978  12.1130014 142.3913037 139.1816787  11.3557229
 137.3359992 135.4639978   7.7430014 137.0189992 134.5609978   7.7070014
 138.1169992 135.4659978   7.1900014 137.3982431 135.3407797   7.6633102
 140.9599992 137.7159978  13.7380014 140.1249992 138.1699978  13.8490014
 141.4839992 137.9919978  14.4900014 140.9166072 137.8153948  13.8548136
 141.5049992 143.9289978   5.4230014 140.7599992 143.4209978   5.1010014
 141.3699992 143.9779978   6.3690014 141.3848963 143.8661731   5.5068826
 145.4019992 136.7429978   3.6220014 144.4639992 136.8539978   3.4710014
 145.6999992 137.5989978   3.9290014 145.3136318 136.8740158   3.6428145
 143.0239992 144.1129978  16.6600014 142.6779992 143.7309978  17.4670014
 142.8239992 145.0459978  16.7310014 142.9495987 144.1869002  16.7800461
 136.6289992 143.2239978  11.1930014 137.3739992 143.2209978  10.5910014
 136.7069992 142.3999978  11.6740014 136.7413365 143.1122384  11.1757430
 143.6299992 145.3869978   4.4480014 143.3349992 146.2139978   4.8300014
 142.9269992 144.7679978   4.6450014 143.4946379 145.4164171   4.5268654
 133.6369992 141.6839978  16.5080014 133.8599992 141.2659978  17.3390014
 133.0349992 141.0719978  16.0850014 133.5861513 141.5439606  16.5646740
 140.6539992 141.2009978  18.7210014 140.3579992 141.0359978  17.8250014
 141.5849992 140.9809978  18.7100014 140.7394401 141.1486879  18.5970206
 134.7589992 141.6039978   3.1840014 135.3749992 142.2309978   3.5640014
 133.8969992 141.9199978   3.4560014 134.7267678 141.7324412   3.2727209
 140.4319992 144.4049978   8.1730014 140.1909992 145.3299978   8.2150014
 139.6909992 143.9459978   8.5700014 140.2989206 144.4695915   8.2323769
 144.4899992 144.6529978  14.1890014 144.0649992 144.4249978  15.0150014
 145.0709992 143.9139978  14.0070014 144.5103395 144.5219545  14.2774414
 135.2709992 136.4379978  16.0660014 134.3789992 136.7759978  15.9980014
 135.1729992 135.5819978  16.4840014 135.1354475 136.3686543  16.1131704
 136.1739992 143.5159978   4.6770014 135.4879992 143.8689978   5.2440014
 136.6969992 144.2789978   4.4300014 136.1508402 143.6673901   4.7211801
 144.0059992 136.1789978  14.9560014 144.7049992 136.2529978  15.6060014
 143.6249992 135.3139978  15.1100014 144.0502097 136.0722389  15.0657997
 144.7899992 135.8309978   6.0530014 145.0099992 136.3019978   5.2490014
 145.3489992 136.2249978   6.7230014 144.8956731 135.9487287   6.0335033
 141.9899992 137.5589978   6.8880014 142.8019992 138.0629978   6.9340014
 141.7459992 137.4139978   7.8020014 142.0681467 137.6083749   7.0178575
 142.5259992 138.5449978  16.0720014 142.6449992 139.1189978  16.8290014
 143.1809992 137.8569978  16.1870014 142.6308684 138.5305194  16.1911674
 142.8739992 134.6399978   7.8260014 142.5269992 135.2569978   8.4700014
 143.5329992 135.1409978   7.3440014 142.9155090 134.7921575   7.8490681
 138.5319992 135.7029978   4.5130014 138.4479992 136.5909978   4.8600014
 139.4219992 135.4379978   4.7450014 138.6408163 135.7887179   4.5918596
 135.1059992 138.7949978   2.6890014 135.0609992 139.7339978   2.8680014
 134.2179992 138.5589978   2.4200014 134.9798166 138.8916687   2.6771524
 135.9139992 133.5759978  11.3630014 135.6849992 133.6349978  10.4350014
 135.4719992 132.7849978  11.6690014 135.8228801 133.4770540  11.2774729
 134.0399992 143.9399978  19.8070014 134.1839992 143.0379978  19.5210014
 133.2679992 144.2259978  19.3200014 133.9552733 143.8551798  19.7019532
 138.3809992 144.2829978   1.9400014 138.4459992 143.4889978   2.4700014
 139.0339992 144.1649978   1.2500014 138.4781605 144.1583430   1.9192997
 140.6949992 143.9089978  19.2400014 140.3669992 144.1799978  18.3830014
 140.8469992 142.9679978  19.1520014 140.6706412 143.8189046  19.1107822
 143.7339992 145.3299978   1.6760014 143.4649992 145.5109978   2.5760014
 143.5269992 144.4049978   1.5440014 143.6691191 145.2297119   1.7815524
 134.8729992 141.1399978  19.2270014 135.2809992 140.2829978  19.1060014
 134.6119992 141.1539978  20.1480014 134.8936016 141.0245119  19.3349192
 139.5309992 142.2559978   4.2460014 139.0709992 141.7719978   4.9310014
 139.7859992 141.5869978   3.6100014 139.5024856 142.0993669   4.2538397
 138.8199992 140.1489978  16.6020014 138.2009992 140.8229978  16.8820014
 139.1639992 140.4699978  15.7680014 138.7817123 140.2846887  16.5276388
 140.6019992 140.4989978   2.5080014 140.4209992 140.3439978   1.5810014
 141.5519992 140.6069978   2.5530014 140.7056566 140.4923669   2.3870929
 143.8389992 142.6199978  19.8790014 144.7929992 142.7039978  19.8520014
 143.6789992 141.9079978  20.4990014 143.9477182 142.5352842  19.9590733
 139.1589992 137.5039978  17.6840014 139.3089992 136.7749978  17.0820014
 139.1609992 138.2809978  17.1250014 139.1797967 137.5092708  17.5260541
 139.5719992 135.8729978  15.1770014 140.1069992 136.3249978  14.5250014
 138.7189992 135.7649978  14.7540014 139.5300374 135.9202665  15.0306710
 141.1529992 141.3129978  15.4160014 141.9039992 141.1569978  14.8430014
 140.8139992 142.1649978  15.1410014 141.2099587 141.4068138  15.3004078
 145.5689992 139.1279978  20.4450014 145.7609992 138.1969978  20.3330014
 146.4269992 139.5529978  20.4340014 145.7112182 139.0580070  20.4281862
 137.6379992 138.7019978  19.5950014 136.8699992 138.1689978  19.3850014
 138.3159992 138.3919978  18.9960014 137.6247235 138.5871754  19.4852413
 140.3769992 133.3299978  15.6080014 140.2789992 134.2759978  15.5030014
 139.6349992 132.9569978  15.1320014 140.2632534 133.4091773  15.5292600
 141.6409992 137.6509978  19.1720014 141.4059992 137.4319978  20.0730014
 140.8579992 137.4439978  18.6620014 141.5029095 137.5929892  19.2265353
 144.3569992 136.7789978  18.2470014 143.4089992 136.8109978  18.3790014
 144.6689992 136.1529978  18.9010014 144.2695293 136.6987923  18.3534148
 135.8179992 136.6219978  19.3000014 136.0299992 135.9159978  18.6900014
 135.7069992 136.1849978  20.1440014 135.8320269 136.4661921  19.3305873
 140.5989992 132.6239978  18.2790014 141.3109992 131.9839978  18.2650014
 140.4979992 132.8899978  17.3660014 140.6827387 132.5724330  18.1535563
 140.9529992 134.3059978  20.3330014 140.8209992 133.8309978  19.5130014
 140.3529992 135.0509978  20.2780014 140.8539070 134.3415789  20.2133251
 133.6659992 142.3749978  12.3260014 133.8509992 142.2929978  11.3900014
 134.5159992 142.2509978  12.7490014 133.8060928 142.3470463  12.2552893
 133.2639992 137.6449978  18.4660014 134.1829992 137.5229978  18.7030014
 132.8139992 136.8949978  18.8560014 133.3290087 137.5269608  18.5511410
 134.4849992 135.9579978  11.3580014 134.9299992 135.1659978  11.6600014
 134.9509992 136.6739978  11.7880014 134.6089718 135.9464534  11.4575265
 132.7889992 138.9569978  12.4270014 133.2809992 138.7359978  11.6360014
 133.1509992 139.7969978  12.7080014 132.9052923 139.0403468  12.3567407
 133.1029992 135.2149978   6.4810014 132.1779992 135.4229978   6.3520014
 133.5569992 135.6989978   5.7910014 133.0376298 135.3089299   6.3700451
 133.0659992 133.9529978  14.8250014 132.4009992 133.7069978  15.4680014
 132.6229992 134.5749978  14.2480014 132.9151168 134.0034214  14.8349848
 143.2159992 134.8259978  10.8340014 142.5419992 134.1959978  11.0900014
 143.7799992 134.3419978  10.2310014 143.2000384 134.6743708  10.7875020
 135.5429992 133.4599978   8.6560014 134.7659992 133.2249978   8.1490014
 136.0729992 132.6629978   8.6650014 135.5083451 133.3201268   8.5878627
 134.3789992 133.2579978   4.4600014 134.8179992 133.8689978   3.8680014
 133.7449992 133.7959978   4.9340014 134.3533859 133.4144064   4.4430305
 140.1219992 133.3859978   8.4690014 140.9959992 133.7749978   8.4400014
 139.9859992 133.1709978   9.3920014 140.2231953 133.4101643   8.5897617
 136.2399992 135.1739978   2.9020014 136.7309992 134.5439978   2.3750014
 136.8629992 135.4699978   3.5650014 136.3915304 135.1277376   2.9194940
 141.2659992 135.4669978   5.3590014 141.4439992 134.8199978   6.0420014
 141.2119992 136.3009978   5.8260014 141.2830678 135.4911604   5.5156301
 135.4999992 133.9739978  18.1740014 135.1339992 133.2079978  18.6160014
 136.4129992 134.0029978  18.4600014 135.5733172 133.8730324  18.2731890
 137.4729992 133.3239978  19.7090014 138.3719992 133.0499978  19.5250014
 137.0869992 132.5819978  20.1740014 137.5437307 133.1862196  19.7467098
  12.6289992  10.6239978  27.4710014  12.7179992  11.5679978  27.3390014
  11.9909992  10.3489978  26.8130014  12.5549062  10.7159812  27.3639641
  11.5619992   9.8789978  30.8900014  11.5239992   9.2329978  31.5950014
  11.2399992   9.4119978  30.1190014  11.5132679   9.7274276  30.8822921
   3.9299992   9.4929978  32.4830014   3.9719992   8.8679978  33.2060014
   4.6329992  10.1169978  32.6650014   4.0307345   9.4917873  32.6065274
  15.2679992  12.8179978  29.1910014  14.8269992  12.0979978  29.6420014
  15.2549992  13.5389978  29.8210014  15.2059215  12.8169291  29.3378105
   4.8539992  13.9429978  31.0180014   4.4839992  13.1409978  30.6480014
   5.7949992  13.7749978  31.0640014   4.9305984  13.8104638  30.9735603
   1.4639992   7.6029978  26.4100014   1.0159992   8.4489978  26.3920014
   0.9029992   7.0239978  25.8950014   1.3268546   7.6403993  26.3378891
   2.1739992   9.7649978  28.5360014   2.3879992   8.9949978  29.0640014
   2.9119992   9.8549978  27.9330014   2.3030200   9.6718587  28.5267035
  12.3799992  17.9219978  29.4030014  12.9989992  17.2459978  29.1300014
  12.1709992  17.7039978  30.3120014  12.4366056  17.7998869  29.4883967
   9.9509992  12.3109978  31.2960014  10.2549992  11.6249978  30.7010014
  10.6729992  12.4299978  31.9140014  10.0901240  12.2332314  31.2980959
  18.6139992   3.9129978  32.1560014  18.6639992   4.5229978  32.8920014
  19.0399992   4.3739978  31.4330014  18.6784108   4.0587709  32.1590112
  13.0919992   6.7049978  31.6230014  13.2349992   5.7589978  31.6430014
  12.9859992   6.9119978  30.6950014  13.0972403   6.6034797  31.5002239
   6.2469992   4.8069978  28.8960014   6.2899992   5.6669978  28.4770014
   5.7889992   4.2549978  28.2620014   6.1909871   4.8499245  28.7530761
  13.9689992   4.9379978  27.2970014  14.6159992   4.6089978  27.9210014
  14.4789992   5.4549978  26.6740014  14.1264351   4.9629067  27.2981037
   2.8669992   7.2039978  29.6580014   3.5209992   6.6539978  30.0900014
   2.8909992   6.9299978  28.7410014   2.9597199   7.0917167  29.5931668
   8.0239992   8.7539978  28.8730014   8.6399992   8.2269978  29.3820014
   7.4369992   8.1139978  28.4690014   8.0290154   8.5953954  28.8880945
  19.0059992   5.3909978  34.3920014  18.3169992   6.0489978  34.2970014
  19.0209992   5.1929978  35.3290014  18.9137756   5.4542603  34.5055812
   5.0569992   3.7249978  32.9700014   4.8379992   4.2549978  32.2030014
   4.3889992   3.9509978  33.6170014   4.9366975   3.8280967  32.9525140
  12.4259992  13.2249978  26.5140014  12.1309992  12.9019978  25.6620014
  12.1019992  14.1249978  26.5550014  12.3418460  13.3024464  26.4029714
   7.6259992  11.3999978  33.2570014   6.8859992  11.9989978  33.3610014
   8.3399992  11.9539978  32.9420014   7.6213500  11.5567829  33.2286371
  15.7329992   4.2289978  29.2770014  15.5179992   3.4629978  29.8100014
  16.3889992   4.7009978  29.7900014  15.7922673   4.1880728  29.4191990
   4.6509992   5.6169978  30.9220014   5.2649992   6.2499978  31.2950014
   5.1629992   5.1449978  30.2660014   4.8041962   5.6397249  30.8842935
   6.0339992  13.3649978  34.0440014   6.0279992  14.2439978  33.6660014
   5.1799992  13.2809978  34.4690014   5.9177925  13.4739535  34.0496887
   2.1549992  13.0359978  24.8260014   1.8829992  13.2649978  23.9380014
   2.1999992  13.8729978  25.2870014   2.1238097  13.1806163  24.7666683
  15.7799992  14.6569978  31.5390014  14.8379992  14.7159978  31.7010014
  16.0559992  15.5629978  31.4020014  15.6885865  14.7875288  31.5426192
  16.0799992   2.9439978  32.9560014  15.3439992   3.5539978  32.9190014
  16.7639992   3.3589978  32.4300014  16.0715367   3.0837551  32.8798174
   9.0839992   1.0299978  30.4220014   8.9659992   0.0819978  30.3680014
   8.2289992   1.3629978  30.6950014   8.9522805   0.9452202  30.4515079
  14.0319992  16.4379978  28.1640014  14.4569992  15.7309978  27.6790014
  14.3489992  17.2399978  27.7470014  14.1330266  16.4495190  28.0412479
  15.1919992  14.3389978  26.6730014  14.9339992  13.6489978  26.0610014
  15.2629992  13.8959978  27.5180014  15.1663050  14.1846814  26.7035621
  16.8779992  12.9059978  35.1500014  17.0169992  12.3139978  34.4110014
  17.0449992  13.7789978  34.7940014  16.9196193  12.9428896  35.0006211
  11.3499992   9.8679978  24.9230014  10.6389992  10.4029978  24.5710014
  12.0409992   9.9229978  24.2630014  11.3460751   9.9486777  24.7855858
  11.4039992   8.3249978  21.9610014  12.1049992   8.3479978  22.6130014
  11.7059992   7.6969978  21.3050014  11.5408202   8.2432212  21.9615609
  18.7189992   9.2459978  33.2160014  18.0669992   9.9399978  33.3050014
  19.1849992   9.4559978  32.4060014  18.6925937   9.3695019  33.1187533
  14.7559992  10.0769978  25.8740014  14.0239992  10.3059978  26.4480014
  15.2029992   9.3639978  26.3290014  14.7163963  10.0118729  26.0139945
  14.6529992   8.2519978  34.9420014  14.7329992   9.0149978  35.5140014
  14.0519992   8.5309978  34.2520014  14.5826547   8.3942457  34.9270047
   6.4009992  10.7079978  27.7570014   6.0709992  10.3369978  26.9390014
   6.9899992  10.0369978  28.1040014   6.4353970  10.5666063  27.6919404
   7.7679992  14.1359978  30.4380014   7.6729992  13.5569978  29.6820014
   8.4969992  13.7649978  30.9340014   7.8536011  14.0065561  30.4016028
   6.7679992   9.4759978  31.3900014   7.3329992   9.5979978  30.6280014
   7.0869992  10.1139978  32.0290014   6.8884166   9.5788791  31.3720348
  13.0769992  14.9799978  32.1240014  12.8369992  15.6419978  32.7720014
  12.8789992  14.1449978  32.5490014  13.0173826  14.9578115  32.2701566
   7.6479992  13.8759978  36.1080014   7.3369992  14.6579978  36.5630014
   6.9979992  13.7229978  35.4220014   7.5175538  13.9624087  36.0775898
  13.6269992   9.2399978  23.5600014  14.2059992   9.3899978  24.3060014
  14.0409992   9.7099978  22.8360014  13.7623358   9.3240955  23.5643953
   4.5679992  10.0739978  35.3360014   4.6379992  10.7249978  36.0350014
   3.6769992  10.1769978  35.0010014   4.4571690  10.1769249  35.3863043
  11.3529992  15.9759978  26.9950014  11.8269992  16.2719978  27.7720014
  10.7899992  16.7149978  26.7620014  11.3417890  16.1163036  27.0698101
   5.8869992  15.9469978  36.8710014   5.8949992  15.8109978  35.9240014
   4.9709992  15.8299978  37.1230014   5.7642528  15.9125463  36.7753243
  17.3259992   0.9899978  23.3730014  16.4259992   1.1289978  23.6680014
  17.5779992   1.8209978  22.9710014  17.2368683   1.1214055  23.3590232
   5.3919992   9.7769978  25.3460014   5.0999992  10.5449978  24.8550014
   4.7169992   9.1179978  25.1830014   5.2608497   9.7929745  25.2568260
  18.5149992  15.3559978  21.7490014  18.5879992  16.2949978  21.9190014
  19.4199992  15.0509978  21.6930014  18.6474170  15.4433282  21.7647063
   1.4849992  12.1399978  34.1610014   0.9829992  12.1119978  33.3460014
   1.4899992  11.2349978  34.4710014   1.4169832  12.0137486  34.0914121
   1.2349992  14.9209978  31.0450014   2.1809992  14.7759978  31.0260014
   1.1219992  15.7049978  31.5820014   1.3493578  15.0071697  31.1150317
  19.4329992  15.5869978  36.7280014  19.3829992  14.6309978  36.6900014
  18.6059992  15.8539978  37.1290014  19.3143831  15.4924680  36.7770121
  10.4109992  15.1609978  35.6040014  10.4989992  15.9869978  36.0790014
   9.5479992  14.8309978  35.8530014  10.3063357  15.2295468  35.7027653
  10.8259992  18.9329978  25.4100014  10.7499992  18.8119978  24.4630014
  10.8579992  19.8819978  25.5280014  10.8199380  19.0447677  25.2965181
   4.4789992  17.7219978  27.1910014   4.6309992  17.3739978  28.0690014
   3.6279992  17.3649978  26.9350014   4.3848344  17.6260879  27.2766868
  13.9269992  18.0869978  22.4120014  14.3019992  17.3429978  21.9410014
  13.9319992  17.8169978  23.3300014  13.9790098  17.9486392  22.4716629
  13.5959992  18.0129978  25.1610014  12.6609992  18.1129978  25.3400014
  13.8759992  17.3029978  25.7400014  13.5059471  17.9307933  25.2636695
  16.5849992   7.0799978  37.2080014  16.1769992   7.5599978  36.4870014
  16.6249992   6.1739978  36.9000014  16.5346221   7.0232449  37.0678267
   3.7339992  13.4639978  35.2040014   3.9499992  13.1019978  36.0640014
   2.8779992  13.0889978  34.9950014   3.6478810  13.3638837  35.2932680
   6.3519992   1.9339978  31.2000014   5.4909992   1.8469978  30.7920014
   6.3299992   2.7899978  31.6280014   6.2310491   2.0378003  31.2019582
  11.0149992   1.6559978  34.5750014  11.4349992   1.2409978  35.3280014
  10.0819992   1.4769978  34.6920014  10.9463736   1.5749910  34.6938968
  14.3419992   5.4109978  35.4280014  13.8279992   5.2859978  36.2260014
  14.1859992   6.3239978  35.1840014  14.2506967   5.5172123  35.5040937
  15.1039992  10.2719978  21.1890014  15.1459992  10.0499978  20.2590014
  15.9529992  10.6709978  21.3790014  15.2245253  10.2955498  21.0873822
  10.6769992   4.1479978  21.8600014  10.4229992   4.1669978  22.7820014
  10.4199992   3.2769978  21.5580014  10.6074508   4.0328280  21.9454803
   6.4429992   6.8989978  32.2950014   5.8019992   6.8589978  33.0040014
   6.4809992   7.8259978  32.0570014   6.3603010   7.0187668  32.3599946
   6.4399992   7.1199978  27.2070014   5.5479992   6.7799978  27.1480014
   6.8909992   6.7429978  26.4510014   6.3787642   7.0224910  27.0967726
  11.9759992   7.5359978  26.0240014  11.5669992   8.3509978  25.7320014
  12.6959992   7.3959978  25.4100014  12.0174439   7.6285372  25.9010115
  11.0779992   7.7119978  37.5120014  10.5149992   7.0069978  37.8330014
  11.9039992   7.5909978  37.9800014  11.1126674   7.5992165  37.6191751
  12.9809992   6.9819978  28.8380014  12.7849992   7.5879978  28.1230014
  13.1619992   6.1489978  28.4040014  12.9786584   6.9522513  28.6814212
   4.1929992   7.2199978  34.1620014   4.1549992   7.6199978  35.0310014
   3.7029992   6.4029978  34.2520014   4.1215330   7.1642674  34.2931289
   7.5589992   4.5939978  20.9610014   7.1279992   4.1489978  21.6900014
   6.8409992   4.9649978  20.4480014   7.4029176   4.5832051  20.9914930
   0.8019992   4.3359978  28.0130014   1.4319992   4.3069978  28.7320014
   1.2509992   3.9109978  27.2820014   0.9490835   4.2745660  28.0127659
   2.0759992   5.0819978  23.4370014   2.5499992   5.6729978  22.8520014
   1.3579992   5.6119978  23.7840014   2.0438640   5.2345511  23.4037969
  12.2449992   8.6199978  33.5090014  12.5679992   7.9889978  32.8660014
  11.8039992   8.0859978  34.1700014  12.2296379   8.4613468  33.5102582
   9.0219992   4.5479978  28.2930014   8.1109992   4.6049978  28.5820014
   9.5269992   4.4879978  29.1040014   8.9656873   4.5476826  28.4421207
   3.8499992   6.1769978  27.1200014   2.9609992   6.2759978  26.7800014
   4.1469992   5.3349978  26.7740014   3.7684177   6.0767687  27.0266940
   7.5029992   6.1769978  24.7770014   8.4349992   6.3059978  24.9550014
   7.2879992   6.8459978  24.1270014   7.6014472   6.2850806  24.7134891
  13.4269992   3.7829978  31.5580014  12.7499992   3.9139978  32.2210014
  12.9419992   3.6279978  30.7470014  13.2687405   3.7799947  31.5392170
   6.1769992   7.3709978  22.3430014   5.6349992   6.9919978  21.6520014
   7.0109992   7.5659978  21.9150014   6.2154390   7.3454079  22.1904392
  16.7149992  19.4539978  37.8340014  16.9139992  19.8779978  37.0000014
  17.3699992  19.7979978  38.4410014  16.8308522  19.5586301  37.8017852
   4.3129992  11.9279978  37.4420014   5.0449992  12.1829978  38.0040014
   3.5319992  12.1329978  37.9580014   4.3076526  11.9905450  37.5885176
  10.3419992   7.3349978  30.1800014  10.9059992   6.7889978  29.6330014
  10.1939992   6.8139978  30.9690014  10.3993037   7.1896787  30.2117229
   5.3439992   3.4719978  26.5990014   5.0269992   2.5689978  26.5630014
   6.1249992   3.4739978  26.0460014   5.4062431   3.3487797  26.5193102
   8.9679992   5.7239978  32.5940014   8.1329992   6.1779978  32.7050014
   9.4919992   5.9999978  33.3460014   8.9246072   5.8233948  32.7108136
   9.5129992  11.9369978  24.2790014   8.7679992  11.4289978  23.9570014
   9.3779992  11.9859978  25.2250014   9.3928963  11.8741731  24.3628826
  16.6629992  11.0699978  33.0660014  17.3039992  11.5259978  32.5220014
  15.8319992  11.1829978  32.6030014  16.6385287  11.1476921  32.9289887
  13.4099992   4.7509978  22.4780014  12.4719992   4.8619978  22.3270014
  13.7079992   5.6069978  22.7850014  13.3216318   4.8820158  22.4988145
  11.0319992  12.1209978  35.5160014  10.6859992  11.7389978  36.3230014
  10.8319992  13.0539978  35.5870014  10.9575987  12.1949002  35.6360461
  14.1289992   6.6179978  24.1390014  15.0209992   6.4799978  24.4580014
  14.1849992   7.4089978  23.6020014  14.2587325   6.7059918  24.1101217
   4.6369992  11.2319978  30.0490014   5.3819992  11.2289978  29.4470014
   4.7149992  10.4079978  30.5300014   4.7493366  11.1202384  30.0317430
  11.6379992  13.3949978  23.3040014  11.3429992  14.2219978  23.6860014
  10.9349992  12.7759978  23.5010014  11.5026379  13.4244171  23.3828654
   1.6449992   9.6919978  35.3640014   1.8679992   9.2739978  36.1950014
   1.0429992   9.0799978  34.9410014   1.5941513   9.5519606  35.4206740
   8.6619992   9.2089978  37.5770014   8.3659992   9.0439978  36.6810014
   9.5929992   8.9889978  37.5660014   8.7474401   9.1566879  37.4530206
  13.2819992  14.5829978  35.4660014  12.3819992  14.7659978  35.1990014
  13.3159992  14.8419978  36.3870014  13.1633748  14.6430554  35.5539164
  19.0139992   6.8269978  23.8340014  18.4589992   6.4309978  23.1610014
  19.1139992   7.7379978  23.5560014  18.9516816   6.8959505  23.7045033
  18.9769992  12.6279978  36.6710014  18.1259992  12.8659978  36.3030014
  19.5669992  12.6109978  35.9180014  18.9403812  12.6582524  36.5188453
  17.3089992  15.6129978  24.2990014  16.9359992  14.7879978  24.6080014
  17.5859992  15.4299978  23.4010014  17.2953463  15.4752569  24.2199525
  14.4689992  10.4209978  31.3200014  13.5409992  10.1899978  31.2930014
  14.9199992   9.6439978  30.9900014  14.4028165  10.2842774  31.2716790
   7.0119992  14.7499978  27.4530014   7.5399992  15.5229978  27.2530014
   6.1319992  14.9739978  27.1510014   6.9653435  14.8862700  27.3847310
   2.7669992   9.6119978  22.0400014   3.3829992  10.2389978  22.4200014
   1.9049992   9.9279978  22.3120014   2.7347678   9.7404412  22.1287209
   8.4399992  12.4129978  27.0290014   8.1989992  13.3379978  27.0710014
   7.6989992  11.9539978  27.4260014   8.3069206  12.4775915  27.0883769
   8.9539992  16.5619978  33.3440014   9.3169992  17.4159978  33.1110014
   9.4859992  16.2699978  34.0850014   9.0755141  16.6393895  33.4122097
   7.1229992  17.4339978  26.5750014   6.1729992  17.5399978  26.6260014
   7.4749992  18.2549978  26.9190014   7.0405472  17.5594923  26.6284852
  12.4979992  12.6609978  33.0450014  12.0729992  12.4329978  33.8710014
  13.0789992  11.9219978  32.8630014  12.5183395  12.5299545  33.1334414
  14.7009992  13.5899978  22.1190014  15.0549992  13.2099978  22.9230014
  13.7529992  13.4959978  22.2060014  14.6212298  13.5252452  22.2408687
  15.1569992  17.2129978  35.5140014  14.5549992  16.6569978  35.0190014
  15.4379992  17.8799978  34.8880014  15.1125757  17.2270744  35.3615675
  19.2049992  18.0689978  22.3200014  19.9489992  18.6549978  22.1800014
  18.5109992  18.6379978  22.6530014  19.2129809  18.2260818  22.3458590
   3.2789992   4.4459978  34.9220014   2.3869992   4.7839978  34.8540014
   3.1809992   3.5899978  35.3400014   3.1434475   4.3766543  34.9691704
  15.5669992  12.2619978  24.3460014  15.2899992  11.5339978  24.9020014
  16.4949992  12.3809978  24.5510014  15.6544499  12.1784213  24.4498044
   2.9309992  16.2499978  33.3570014   3.1479992  15.3179978  33.3260014
   3.1769992  16.5249978  34.2400014   2.9939809  16.1595686  33.4721691
   8.7919992  14.7019978  20.5660014   9.0309992  13.9529978  20.0190014
   8.5229992  14.3139978  21.3990014   8.7883233  14.5471853  20.6037809
   7.7289992  14.2719978  23.0220014   7.8759992  13.7519978  23.8120014
   7.7259992  15.1789978  23.3290014   7.7487102  14.3233953  23.1715925
   4.1819992  11.5239978  23.5330014   3.4959992  11.8769978  24.1000014
   4.7049992  12.2869978  23.2860014   4.1588402  11.6753901  23.5771801
  12.0139992   4.1869978  33.8120014  12.7129992   4.2609978  34.4620014
  11.6329992   3.3219978  33.9660014  12.0582097   4.0802389  33.9217997
  12.7979992   3.8389978  24.9090014  13.0179992   4.3099978  24.1050014
  13.3569992   4.2329978  25.5790014  12.9036731   3.9567287  24.8895033
  10.4669992  15.9689978  23.7720014   9.6499992  16.4659978  23.8240014
  10.9959992  16.4449978  23.1310014  10.4268125  16.1011989  23.6925306
   9.9979992   5.5669978  25.7440014  10.8099992   6.0709978  25.7900014
   9.7539992   5.4219978  26.6580014  10.0761467   5.6163749  25.8738575
  10.5339992   6.5529978  34.9280014  10.6529992   7.1269978  35.6850014
  11.1889992   5.8649978  35.0430014  10.6388684   6.5385194  35.0471674
  10.8819992   2.6479978  26.6820014  10.5349992   3.2649978  27.3260014
  11.5409992   3.1489978  26.2000014  10.9235090   2.8001575  26.7050681
   7.8049992  17.0129978  23.7530014   7.9659992  17.8129978  23.2530014
   7.6079992  17.3199978  24.6380014   7.8003906  17.1638678  23.8042333
   6.5399992   3.7109978  23.3690014   6.4559992   4.5989978  23.7160014
   7.4299992   3.4459978  23.6010014   6.6488163   3.7967179  23.4478596
  16.7379992   4.4599978  35.7630014  15.8219992   4.7219978  35.6760014
  17.0739992   4.4569978  34.8670014  16.6578499   4.4955163  35.6298766
  15.3409992   8.2099978  29.8590014  14.5429992   7.7949978  29.5310014
  15.7859992   7.5199978  30.3500014  15.2919684   8.0598628  29.8805227
   4.7979992  14.1379978  22.4290014   5.3899992  14.8379978  22.7060014
   5.2569992  13.7049978  21.7100014   4.9411652  14.1752675  22.3696533
   3.1139992   6.8029978  21.5450014   3.0689992   7.7419978  21.7240014
   2.2259992   6.5669978  21.2760014   2.9878166   6.8996687  21.5331524
  16.4269992  17.4659978  31.4810014  16.2709992  18.1449978  30.8240014
  17.3599992  17.5379978  31.6840014  16.5317387  17.5686390  31.4185342
   3.9219992   1.5839978  30.2190014   3.6929992   1.6429978  29.2910014
   3.4799992   0.7929978  30.5250014   3.8308801   1.4850540  30.1334729
   2.8529992  15.5249978  26.3790014   2.0199992  15.9969978  26.4060014
   3.3979992  16.0349978  25.7800014   2.8127857  15.6584791  26.3017142
   2.1409992  18.1369978  37.7090014   2.6809992  17.9209978  38.4690014
   1.6599992  17.3319978  37.5190014   2.1499219  17.9985156  37.7874282
   6.7379992  17.0569978  39.3290014   7.5059992  16.5979978  39.6700014
   6.7169992  16.8309978  38.3990014   6.8402135  16.9636668  39.2499491
  10.8299992  16.5649978  20.7050014  10.1859992  15.9339978  21.0260014
  11.5919992  16.0339978  20.4730014  10.8448058  16.4067902  20.7176038
  13.3149992  15.4369978  38.0580014  12.9639992  14.5799978  38.3020014
  14.0409992  15.5789978  38.6650014  13.3651895  15.3391351  38.1733770
  15.4349992  16.3819978  20.9380014  15.7179992  15.5869978  21.3910014
  16.1739992  16.6149978  20.3770014  15.5737096  16.3047049  20.9241104
   2.0479992  11.9479978  38.6630014   2.1919992  11.0459978  38.3770014
   1.2759992  12.2339978  38.1760014   1.9632733  11.8631798  38.5579532
   6.3889992  12.2909978  20.7960014   6.4539992  11.4969978  21.3260014
   7.0419992  12.1729978  20.1060014   6.4861605  12.1663430  20.7752997
   8.7029992  11.9169978  38.0960014   8.3749992  12.1879978  37.2390014
   8.8549992  10.9759978  38.0080014   8.6786412  11.8269046  37.9667822
  11.7419992  13.3379978  20.5320014  11.4729992  13.5189978  21.4320014
  11.5349992  12.4129978  20.4000014  11.6771191  13.2377119  20.6375524
  14.4379992  11.8329978  35.4790014  15.1829992  12.4219978  35.3600014
  13.6809992  12.4149978  35.5430014  14.4375470  11.9922128  35.4713799
   2.8809992   9.1479978  38.0830014   3.2889992   8.2909978  37.9620014
   2.6199992   9.1619978  39.0040014   2.9016016   9.0325119  38.1909192
   7.5389992  10.2639978  23.1020014   7.0789992   9.7799978  23.7870014
   7.7939992   9.5949978  22.4660014   7.5104856  10.1073669  23.1098397
   6.8279992   8.1569978  35.4580014   6.2089992   8.8309978  35.7380014
   7.1719992   8.4779978  34.6240014   6.7897123   8.2926887  35.3836388
   8.6099992   8.5069978  21.3640014   8.4289992   8.3519978  20.4370014
   9.5599992   8.6149978  21.4090014   8.7136566   8.5003669  21.2430929
  11.8469992  10.6279978  38.7350014  12.8009992  10.7119978  38.7080014
  11.6869992   9.9159978  39.3550014  11.9557182  10.5432842  38.8150733
  17.9999992  10.8609978  20.8100014  17.7259992  10.4369978  19.9970014
  18.0389992  11.7929978  20.5930014  17.9677716  10.9288827  20.6694286
   7.1669992   5.5119978  36.5400014   7.3169992   4.7829978  35.9380014
   7.1689992   6.2889978  35.9810014   7.1877967   5.5172708  36.3820541
   7.5799992   3.8809978  34.0330014   8.1149992   4.3329978  33.3810014
   6.7269992   3.7729978  33.6100014   7.5380374   3.9282665  33.8866710
   9.1609992   9.3209978  34.2720014   9.9119992   9.1649978  33.6990014
   8.8219992  10.1729978  33.9970014   9.2179587   9.4148138  34.1564078
  13.5769992   7.1359978  39.3010014  13.7689992   6.2049978  39.1890014
  14.4349992   7.5609978  39.2900014  13.7192182   7.0660070  39.2841862
  14.8939992   9.9249978  37.3780014  14.6119992  10.6339978  36.8000014
  15.8359992   9.8519978  37.2270014  14.9827921  10.0122193  37.2784225
   5.6459992   6.7099978  38.4510014   4.8779992   6.1769978  38.2410014
   6.3239992   6.3999978  37.8520014   5.6327235   6.5951754  38.3412413
   8.3849992   1.3379978  34.4640014   8.2869992   2.2839978  34.3590014
   7.6429992   0.9649978  33.9880014   8.2712534   1.4171773  34.3852600
   9.6489992   5.6589978  38.0280014   9.4139992   5.4399978  38.9290014
   8.8659992   5.4519978  37.5180014   9.5109095   5.6009892  38.0825353
  12.3649992   4.7869978  37.1030014  11.4169992   4.8189978  37.2350014
  12.6769992   4.1609978  37.7570014  12.2775293   4.7067923  37.2094148
  13.9989992   3.4209978  39.1080014  13.9019992   2.4689978  39.1030014
  13.6769992   3.6889978  39.9690014  13.9422468   3.3270884  39.2236210
   3.8259992   4.6299978  38.1560014   4.0379992   3.9239978  37.5460014
   3.7149992   4.1929978  39.0000014   3.8400269   4.4741921  38.1865873
   8.6069992   0.6319978  37.1350014   9.3189992  -0.0080022  37.1210014
   8.5059992   0.8979978  36.2220014   8.6907387   0.5804330  37.0095563
   8.9609992   2.3139978  39.1890014   8.8289992   1.8389978  38.3690014
   8.3609992   3.0589978  39.1340014   8.8619070   2.3495789  39.0693251
   8.5069992  19.1969978  22.3650014   9.4399992  19.3549978  22.5090014
   8.2429992  19.8729978  21.7400014   8.5989911  19.3099373  22.3002722
   2.0749992  13.8339978  21.8480014   2.9889992  13.9129978  22.1210014
   2.0829992  13.1469978  21.1820014   2.2010655  13.7519205  21.7952917
   0.7239992  19.2269978  26.9250014   0.0769992  18.7649978  26.3930014
   1.0789992  18.5549978  27.5080014   0.6833741  19.0729774  26.9309175
   1.5939992  17.3069978  28.7300014   1.2599992  16.4269978  28.9020014
   1.8169992  17.6529978  29.5950014   1.5783721  17.2331938  28.8704168
  19.1429992  18.1169978  31.7110014  19.1209992  18.3019978  32.6500014
  19.8329992  18.6849978  31.3700014  19.2333439  18.2191887  31.7934791
  18.7059992  17.6839978  34.6320014  18.2189992  16.9489978  34.2610014
  19.2549992  17.2899978  35.3100014  18.7135247  17.5301057  34.6728461
  17.1569992  13.4739978  39.2710014  16.2909992  13.3689978  39.6650014
  17.5329992  14.2319978  39.7170014  17.0893401  13.5621708  39.3852620
  18.4579992  11.7299978  24.7850014  19.3079992  12.1509978  24.9120014
  18.4629992  10.9899978  25.3920014  18.5751143  11.6876094  24.8844750
  18.8519992   9.7839978  26.6080014  18.1259992   9.3039978  27.0060014
  19.4339992   9.9889978  27.3410014  18.8312730   9.7460184  26.7614149
  18.6109992  12.5689978  31.5560014  19.4449992  12.1909978  31.2750014
  18.7229992  13.5119978  31.4370014  18.7401917  12.6447943  31.5014861
  17.0979992  15.4469978  33.8630014  16.4499992  15.7719978  34.4880014
  16.5799992  15.0059978  33.1890014  16.9394196  15.4318651  33.8574152
  19.1209992   9.6849978  22.9990014  18.5989992  10.0409978  22.2810014
  19.0879992  10.3599978  23.6780014  19.0450129   9.8249598  22.9923355
  17.4699992   6.9239978  21.5500014  17.5659992   7.5909978  20.8700014
  17.3299992   6.1089978  21.0690014  17.4642040   6.9050671  21.3918378
  16.6389992   8.3049978  27.1710014  16.4889992   7.3599978  27.1510014
  16.2849992   8.5859978  28.0150014  16.5706351   8.2136644  27.2823220
   1.6739992  10.3829978  31.1820014   1.8589992  10.3009978  30.2460014
   2.5239992  10.2589978  31.6050014   1.8140928  10.3550463  31.1112893
  17.4949992  10.2749978  36.8100014  18.0779992   9.5399978  37.0020014
  18.0589992  11.0469978  36.8570014  17.6509781  10.2788145  36.8426164
  18.9919992   8.1779978  37.4950014  18.1289992   7.7989978  37.3290014
  19.5959992   7.4389978  37.4200014  18.9556085   8.0263223  37.4621695
  16.7169992   4.3319978  20.6680014  17.3279992   3.9609978  21.3050014
  15.8799992   3.9109978  20.8640014  16.6874947   4.2242756  20.7817252
  16.3499992   5.8869978  25.6340014  16.6289992   4.9799978  25.7580014
  17.1089992   6.3209978  25.2450014  16.4908619   5.8214502  25.5983795
  16.9609992   6.4689978  31.0700014  17.8939992   6.6809978  31.0350014
  16.7259992   6.5699978  31.9920014  17.0569517   6.5116833  31.1899130
  16.9909992   7.2059978  33.8460014  16.1479992   7.4739978  34.2120014
  17.4329992   8.0279978  33.6350014  16.9354138   7.3538273  33.8675518
   1.2719992   5.6529978  37.3220014   2.1909992   5.5309978  37.5590014
   0.8219992   4.9029978  37.7120014   1.3370087   5.5349608  37.4071410
  19.2739992   1.1859978  39.1990014  19.6229992   0.5319978  38.5940014
  19.4209992   2.0229978  38.7590014  19.3416824   1.2096024  39.0566304
  16.9629992   3.1499978  25.6820014  17.1449992   2.7009978  26.5070014
  16.3629992   2.5659978  25.2180014  16.9068187   3.0095552  25.7322739
   2.4929992   3.9659978  30.2140014   2.9379992   3.1739978  30.5160014
   2.9589992   4.6819978  30.6440014   2.6169718   3.9544534  30.3135265
   0.7969992   6.9649978  31.2830014   1.2889992   6.7439978  30.4920014
   1.1589992   7.8049978  31.5640014   0.9132923   7.0483468  31.2127407
  18.7929992   3.2949978  37.5480014  17.8759992   3.5659978  37.5130014
  18.9159992   2.7599978  36.7640014  18.6839672   3.2597885  37.4371862
  18.8299992   3.2179978  22.2100014  19.2419992   2.4969978  21.7350014
  19.5109992   3.8869978  22.2680014  18.9785536   3.2097766  22.1528024
   1.1109992   3.2229978  25.3370014   0.1859992   3.4309978  25.2080014
   1.5649992   3.7069978  24.6470014   1.0456298   3.3169299  25.2260451
  15.8809992  18.2069978  27.2830014  16.5339992  17.8589978  26.6750014
  16.3919992  18.6949978  27.9290014  16.0392777  18.2253815  27.2872047
   1.0739992   1.9609978  33.6810014   0.4089992   1.7149978  34.3240014
   0.6309992   2.5829978  33.1040014   0.9231168   2.0114214  33.6909848
   3.2659992  15.1359978  37.8260014   2.4449992  15.3109978  37.3650014
   3.0139992  15.0629978  38.7460014   3.1195594  15.1500717  37.8873611
   6.2199992  16.1099978  34.0840014   5.7959992  16.9199978  33.8020014
   7.1249992  16.1959978  33.7820014   6.2842138  16.2324160  34.0046415
  10.5319992  17.5089978  37.0440014  10.7159992  17.1759978  37.9220014
  11.3779992  17.8189978  36.7220014  10.6716484  17.5052979  37.1207617
  12.8769992  18.7949978  36.2880014  13.5539992  18.1619978  36.0480014
  13.1979992  19.1959978  37.0950014  13.0131323  18.7625691  36.3643158
  17.7939992   1.3849978  35.3670014  16.9809992   1.7099978  34.9800014
  18.0269992   0.6239978  34.8340014  17.7141347   1.3266880  35.2419841
   3.6219992  19.3669978  34.1320014   2.9019992  19.8069978  33.6810014
   3.2569992  19.1159978  34.9800014   3.4739643  19.3933369  34.1849129
   6.0889992  18.9669978  33.1620014   5.2249992  19.0389978  33.5660014
   6.0339992  19.5139978  32.3780014   5.9631942  19.0507849  33.1114000
  10.7999992  18.8549978  32.3370014  10.3429992  19.3839978  31.6830014
  10.9629992  19.4579978  33.0620014  10.7594960  19.0089280  32.3455274
  13.1279992  17.7329978  33.2820014  12.2229992  17.8979978  33.0160014
  13.5559992  18.5859978  33.2160014  13.0621537  17.8709134  33.2367095
  15.7319992  19.3029978  33.5770014  15.5499992  20.2189978  33.3660014
  15.9089992  18.8919978  32.7300014  15.7310030  19.3728273  33.4337166
   3.0369992  17.9899978  31.0420014   3.0189992  17.5639978  31.8990014
   3.8419992  17.6709978  30.6330014   3.1432875  17.8886435  31.1039515
   5.1779992  16.6999978  29.6970014   4.9589992  15.7829978  29.8670014
   6.0019992  16.8399978  30.1630014   5.2594702  16.5935511  29.7832527
   7.7149992  17.1699978  30.5460014   7.9279992  16.2819978  30.2590014
   7.7799992  17.1349978  31.5000014   7.7529149  17.0438326  30.6357369
  11.2239992   2.8339978  29.6900014  10.5499992   2.2039978  29.9460014
  11.7879992   2.3499978  29.0870014  11.2080384   2.6823708  29.6435020
  16.3669992   0.9409978  29.8030014  16.9699992   1.4889978  29.3010014
  15.4969992   1.2599978  29.5620014  16.3319157   1.0590373  29.7017910
  18.0939992   2.0799978  28.1360014  18.7049992   1.5659978  27.6090014
  18.4759992   2.9569978  28.1590014  18.2293305   2.1282050  28.0669418
   3.5509992   1.4679978  27.5120014   2.7739992   1.2329978  27.0050014
   4.0809992   0.6709978  27.5210014   3.5163451   1.3281268  27.4438627
   2.3869992   1.2659978  23.3160014   2.8259992   1.8769978  22.7240014
   1.7529992   1.8039978  23.7900014   2.3613859   1.4224064  23.2990305
   8.1299992   1.3939978  27.3250014   9.0039992   1.7829978  27.2960014
   7.9939992   1.1789978  28.2480014   8.2311953   1.4181643  27.4457617
  13.6869992   1.4239978  28.9750014  13.7629992   1.5199978  28.0250014
  13.4119992   0.5169978  29.1030014  13.6601871   1.3144146  28.8623944
  15.0399992   1.4499978  24.6670014  14.3369992   2.0649978  24.4570014
  14.5949992   0.6129978  24.7980014  14.8836550   1.4209668  24.6559837
   2.2879992  17.2139978  24.2130014   1.6029992  17.1759978  23.5460014
   2.2919992  18.1269978  24.5010014   2.1947621  17.3321924  24.1606126
   4.2479992   3.1819978  21.7580014   4.7389992   2.5519978  21.2310014
   4.8709992   3.4779978  22.4210014   4.3995304   3.1357376  21.7754940
   9.2739992   3.4749978  24.2150014   9.4519992   2.8279978  24.8980014
   9.2199992   4.3089978  24.6820014   9.2910678   3.4991604  24.3716301
  11.1519992  18.4229978  22.6110014  12.0179992  18.7899978  22.4330014
  10.9059992  17.9839978  21.7970014  11.2372097  18.4138525  22.4766019
  17.8609992  17.9859978  25.2900014  17.6669992  17.2379978  24.7250014
  17.8219992  18.7439978  24.7070014  17.8291645  17.9860786  25.1338148
   3.5079992   1.9819978  37.0300014   3.1419992   1.2159978  37.4720014
   4.4209992   2.0109978  37.3160014   3.5813172   1.8810324  37.1291890
   5.4809992   1.3319978  38.5650014   6.3799992   1.0579978  38.3810014
   5.0949992   0.5899978  39.0300014   5.5517307   1.1942196  38.6027098
   4.1059992  18.1339978  21.2380014   3.8379992  18.4199978  22.1120014
   4.8769992  17.5879978  21.3910014   4.1735926  18.0992779  21.3781205
  13.9029992   0.6649978  38.7480014  13.9789992   0.2389978  39.6010014
  14.7959992   0.6779978  38.4050014  14.0342303   0.6083493  38.8185497
  17.0789992  16.7379978  37.4400014  16.2969992  16.5509978  36.9200014
  17.0069992  17.6669978  37.6570014  16.9621924  16.8380637  37.3981602
  31.4849992  10.6239978  27.4710014  31.5739992  11.5679978  27.3390014
  30.8469992  10.3489978  26.8130014  31.4109062  10.7159812  27.3639641
  30.4179992   9.8789978  30.8900014  30.3799992   9.2329978  31.5950014
  30.0959992   9.4119978  30.1190014  30.3692679   9.7274276  30.8822921
  22.7859992   9.4929978  32.4830014  22.8279992   8.8679978  33.2060014
  23.4889992  10.1169978  32.6650014  22.8867345   9.4917873  32.6065274
  34.1239992  12.8179978  29.1910014  33.6829992  12.0979978  29.6420014
  34.1109992  13.5389978  29.8210014  34.0619215  12.8169291  29.3378105
  23.7099992  13.9429978  31.0180014  23.3399992  13.1409978  30.6480014
  24.6509992  13.7749978  31.0640014  23.7865984  13.8104638  30.9735603
  20.3199992   7.6029978  26.4100014  19.8719992   8.4489978  26.3920014
  19.7589992   7.0239978  25.8950014  20.1828546   7.6403993  26.3378891
  21.0299992   9.7649978  28.5360014  21.2439992   8.9949978  29.0640014
  21.7679992   9.8549978  27.9330014  21.1590200   9.6718587  28.5267035
  31.2359992  17.9219978  29.4030014  31.8549992  17.2459978  29.1300014
  31.0269992  17.7039978  30.3120014  31.2926056  17.7998869  29.4883967
  28.8069992  12.3109978  31.2960014  29.1109992  11.6249978  30.7010014
  29.5289992  12.4299978  31.9140014  28.9461240  12.2332314  31.2980959
  37.4699992   3.9129978  32.1560014  37.5199992   4.5229978  32.8920014
  37.8959992   4.3739978  31.4330014  37.5344108   4.0587709  32.1590112
  31.9479992   6.7049978  31.6230014  32.0909992   5.7589978  31.6430014
  31.8419992   6.9119978  30.6950014  31.9532403   6.6034797  31.5002239
  25.1029992   4.8069978  28.8960014  25.1459992   5.6669978  28.4770014
  24.6449992   4.2549978  28.2620014  25.0469871   4.8499245  28.7530761
  32.8249992   4.9379978  27.2970014  33.4719992   4.6089978  27.9210014
  33.3349992   5.4549978  26.6740014  32.9824351   4.9629067  27.2981037
  21.7229992   7.2039978  29.6580014  22.3769992   6.6539978  30.0900014
  21.7469992   6.9299978  28.7410014  21.8157199   7.0917167  29.5931668
  26.8799992   8.7539978  28.8730014  27.4959992   8.2269978  29.3820014
  26.2929992   8.1139978  28.4690014  26.8850154   8.5953954  28.8880945
  37.8619992   5.3909978  34.3920014  37.1729992   6.0489978  34.2970014
  37.8769992   5.1929978  35.3290014  37.7697756   5.4542603  34.5055812
  23.9129992   3.7249978  32.9700014  23.6939992   4.2549978  32.2030014
  23.2449992   3.9509978  33.6170014  23.7926975   3.8280967  32.9525140
  31.2819992  13.2249978  26.5140014  30.9869992  12.9019978  25.6620014
  30.9579992  14.1249978  26.5550014  31.1978460  13.3024464  26.4029714
  26.4819992  11.3999978  33.2570014  25.7419992  11.9989978  33.3610014
  27.1959992  11.9539978  32.9420014  26.4773500  11.5567829  33.2286371
  34.5889992   4.2289978  29.2770014  34.3739992   3.4629978  29.8100014
  35.2449992   4.7009978  29.7900014  34.6482673   4.1880728  29.4191990
  23.5069992   5.6169978  30.9220014  24.1209992   6.2499978  31.2950014
  24.0189992   5.1449978  30.2660014  23.6601962   5.6397249  30.8842935
  24.8899992  13.3649978  34.0440014  24.8839992  14.2439978  33.6660014
  24.0359992  13.2809978  34.4690014  24.7737925  13.4739535  34.0496887
  21.0109992  13.0359978  24.8260014  20.7389992  13.2649978  23.9380014
  21.0559992  13.8729978  25.2870014  20.9798097  13.1806163  24.7666683
  34.6359992  14.6569978  31.5390014  33.6939992  14.7159978  31.7010014
  34.9119992  15.5629978  31.4020014  34.5445865  14.7875288  31.5426192
  34.9359992   2.9439978  32.9560014  34.1999992   3.5539978  32.9190014
  35.6199992   3.3589978  32.4300014  34.9275367   3.0837551  32.8798174
  27.9399992   1.0299978  30.4220014  27.8219992   0.0819978  30.3680014
  27.0849992   1.3629978  30.6950014  27.8082805   0.9452202  30.4515079
  32.8879992  16.4379978  28.1640014  33.3129992  15.7309978  27.6790014
  33.2049992  17.2399978  27.7470014  32.9890266  16.4495190  28.0412479
  34.0479992  14.3389978  26.6730014  33.7899992  13.6489978  26.0610014
  34.1189992  13.8959978  27.5180014  34.0223050  14.1846814  26.7035621
  35.7339992  12.9059978  35.1500014  35.8729992  12.3139978  34.4110014
  35.9009992  13.7789978  34.7940014  35.7756193  12.9428896  35.0006211
  30.2059992   9.8679978  24.9230014  29.4949992  10.4029978  24.5710014
  30.8969992   9.9229978  24.2630014  30.2020751   9.9486777  24.7855858
  30.2599992   8.3249978  21.9610014  30.9609992   8.3479978  22.6130014
  30.5619992   7.6969978  21.3050014  30.3968202   8.2432212  21.9615609
  37.5749992   9.2459978  33.2160014  36.9229992   9.9399978  33.3050014
  38.0409992   9.4559978  32.4060014  37.5485937   9.3695019  33.1187533
  33.6119992  10.0769978  25.8740014  32.8799992  10.3059978  26.4480014
  34.0589992   9.3639978  26.3290014  33.5723963  10.0118729  26.0139945
  33.5089992   8.2519978  34.9420014  33.5889992   9.0149978  35.5140014
  32.9079992   8.5309978  34.2520014  33.4386547   8.3942457  34.9270047
  25.2569992  10.7079978  27.7570014  24.9269992  10.3369978  26.9390014
  25.8459992  10.0369978  28.1040014  25.2913970  10.5666063  27.6919404
  26.6239992  14.1359978  30.4380014  26.5289992  13.5569978  29.6820014
  27.3529992  13.7649978  30.9340014  26.7096011  14.0065561  30.4016028
  25.6239992   9.4759978  31.3900014  26.1889992   9.5979978  30.6280014
  25.9429992  10.1139978  32.0290014  25.7444166   9.5788791  31.3720348
  31.9329992  14.9799978  32.1240014  31.6929992  15.6419978  32.7720014
  31.7349992  14.1449978  32.5490014  31.8733826  14.9578115  32.2701566
  26.5039992  13.8759978  36.1080014  26.1929992  14.6579978  36.5630014
  25.8539992  13.7229978  35.4220014  26.3735538  13.9624087  36.0775898
  32.4829992   9.2399978  23.5600014  33.0619992   9.3899978  24.3060014
  32.8969992   9.7099978  22.8360014  32.6183358   9.3240955  23.5643953
  23.4239992  10.0739978  35.3360014  23.4939992  10.7249978  36.0350014
  22.5329992  10.1769978  35.0010014  23.3131690  10.1769249  35.3863043
  30.2089992  15.9759978  26.9950014  30.6829992  16.2719978  27.7720014
  29.6459992  16.7149978  26.7620014  30.1977890  16.1163036  27.0698101
  24.7429992  15.9469978  36.8710014  24.7509992  15.8109978  35.9240014
  23.8269992  15.8299978  37.1230014  24.6202528  15.9125463  36.7753243
  36.1819992   0.9899978  23.3730014  35.2819992   1.1289978  23.6680014
  36.4339992   1.8209978  22.9710014  36.0928683   1.1214055  23.3590232
  24.2479992   9.7769978  25.3460014  23.9559992  10.5449978  24.8550014
  23.5729992   9.1179978  25.1830014  24.1168497   9.7929745  25.2568260
  37.3709992  15.3559978  21.7490014  37.4439992  16.2949978  21.9190014
  38.2759992  15.0509978  21.6930014  37.5034170  15.4433282  21.7647063
  20.3409992  12.1399978  34.1610014  19.8389992  12.1119978  33.3460014
  20.3459992  11.2349978  34.4710014  20.2729832  12.0137486  34.0914121
  20.0909992  14.9209978  31.0450014  21.0369992  14.7759978  31.0260014
  19.9779992  15.7049978  31.5820014  20.2053578  15.0071697  31.1150317
  38.2889992  15.5869978  36.7280014  38.2389992  14.6309978  36.6900014
  37.4619992  15.8539978  37.1290014  38.1703831  15.4924680  36.7770121
  29.2669992  15.1609978  35.6040014  29.3549992  15.9869978  36.0790014
  28.4039992  14.8309978  35.8530014  29.1623357  15.2295468  35.7027653
  29.6819992  18.9329978  25.4100014  29.6059992  18.8119978  24.4630014
  29.7139992  19.8819978  25.5280014  29.6759380  19.0447677  25.2965181
  23.3349992  17.7219978  27.1910014  23.4869992  17.3739978  28.0690014
  22.4839992  17.3649978  26.9350014  23.2408344  17.6260879  27.2766868
  32.7829992  18.0869978  22.4120014  33.1579992  17.3429978  21.9410014
  32.7879992  17.8169978  23.3300014  32.8350098  17.9486392  22.4716629
  32.4519992  18.0129978  25.1610014  31.5169992  18.1129978  25.3400014
  32.7319992  17.3029978  25.7400014  32.3619471  17.9307933  25.2636695
  35.4409992   7.0799978  37.2080014  35.0329992   7.5599978  36.4870014
  35.4809992   6.1739978  36.9000014  35.3906221   7.0232449  37.0678267
  22.5899992  13.4639978  35.2040014  22.8059992  13.1019978  36.0640014
  21.7339992  13.0889978  34.9950014  22.5038810  13.3638837  35.2932680
  25.2079992   1.9339978  31.2000014  24.3469992   1.8469978  30.7920014
  25.1859992   2.7899978  31.6280014  25.0870491   2.0378003  31.2019582
  29.8709992   1.6559978  34.5750014  30.2909992   1.2409978  35.3280014
  28.9379992   1.4769978  34.6920014  29.8023736   1.5749910  34.6938968
  33.1979992   5.4109978  35.4280014  32.6839992   5.2859978  36.2260014
  33.0419992   6.3239978  35.1840014  33.1066967   5.5172123  35.5040937
  33.9599992  10.2719978  21.1890014  34.0019992  10.0499978  20.2590014
  34.8089992  10.6709978  21.3790014  34.0805253  10.2955498  21.0873822
  29.5329992   4.1479978  21.8600014  29.2789992   4.1669978  22.7820014
  29.2759992   3.2769978  21.5580014  29.4634508   4.0328280  21.9454803
  25.2989992   6.8989978  32.2950014  24.6579992   6.8589978  33.0040014
  25.3369992   7.8259978  32.0570014  25.2163010   7.0187668  32.3599946
  25.2959992   7.1199978  27.2070014  24.4039992   6.7799978  27.1480014
  25.7469992   6.7429978  26.4510014  25.2347642   7.0224910  27.0967726
  30.8319992   7.5359978  26.0240014  30.4229992   8.3509978  25.7320014
  31.5519992   7.3959978  25.4100014  30.8734439   7.6285372  25.9010115
  29.9339992   7.7119978  37.5120014  29.3709992   7.0069978  37.8330014
  30.7599992   7.5909978  37.9800014  29.9686674   7.5992165  37.6191751
  31.8369992   6.9819978  28.8380014  31.6409992   7.5879978  28.1230014
  32.0179992   6.1489978  28.4040014  31.8346584   6.9522513  28.6814212
  23.0489992   7.2199978  34.1620014  23.0109992   7.6199978  35.0310014
  22.5589992   6.4029978  34.2520014  22.9775330   7.1642674  34.2931289
  26.4149992   4.5939978  20.9610014  25.9839992   4.1489978  21.6900014
  25.6969992   4.9649978  20.4480014  26.2589176   4.5832051  20.9914930
  19.6579992   4.3359978  28.0130014  20.2879992   4.3069978  28.7320014
  20.1069992   3.9109978  27.2820014  19.8050835   4.2745660  28.0127659
  20.9319992   5.0819978  23.4370014  21.4059992   5.6729978  22.8520014
  20.2139992   5.6119978  23.7840014  20.8998640   5.2345511  23.4037969
  31.1009992   8.6199978  33.5090014  31.4239992   7.9889978  32.8660014
  30.6599992   8.0859978  34.1700014  31.0856379   8.4613468  33.5102582
  27.8779992   4.5479978  28.2930014  26.9669992   4.6049978  28.5820014
  28.3829992   4.4879978  29.1040014  27.8216873   4.5476826  28.4421207
  22.7059992   6.1769978  27.1200014  21.8169992   6.2759978  26.7800014
  23.0029992   5.3349978  26.7740014  22.6244177   6.0767687  27.0266940
  26.3589992   6.1769978  24.7770014  27.2909992   6.3059978  24.9550014
  26.1439992   6.8459978  24.1270014  26.4574472   6.2850806  24.7134891
  32.2829992   3.7829978  31.5580014  31.6059992   3.9139978  32.2210014
  31.7979992   3.6279978  30.7470014  32.1247405   3.7799947  31.5392170
  25.0329992   7.3709978  22.3430014  24.4909992   6.9919978  21.6520014
  25.8669992   7.5659978  21.9150014  25.0714390   7.3454079  22.1904392
  35.5709992  19.4539978  37.8340014  35.7699992  19.8779978  37.0000014
  36.2259992  19.7979978  38.4410014  35.6868522  19.5586301  37.8017852
  23.1689992  11.9279978  37.4420014  23.9009992  12.1829978  38.0040014
  22.3879992  12.1329978  37.9580014  23.1636526  11.9905450  37.5885176
  29.1979992   7.3349978  30.1800014  29.7619992   6.7889978  29.6330014
  29.0499992   6.8139978  30.9690014  29.2553037   7.1896787  30.2117229
  24.1999992   3.4719978  26.5990014  23.8829992   2.5689978  26.5630014
  24.9809992   3.4739978  26.0460014  24.2622431   3.3487797  26.5193102
  27.8239992   5.7239978  32.5940014  26.9889992   6.1779978  32.7050014
  28.3479992   5.9999978  33.3460014  27.7806072   5.8233948  32.7108136
  28.3689992  11.9369978  24.2790014  27.6239992  11.4289978  23.9570014
  28.2339992  11.9859978  25.2250014  28.2488963  11.8741731  24.3628826
  35.5189992  11.0699978  33.0660014  36.1599992  11.5259978  32.5220014
  34.6879992  11.1829978  32.6030014  35.4945287  11.1476921  32.9289887
  32.2659992   4.7509978  22.4780014  31.3279992   4.8619978  22.3270014
  32.5639992   5.6069978  22.7850014  32.1776318   4.8820158  22.4988145
  29.8879992  12.1209978  35.5160014  29.5419992  11.7389978  36.3230014
  29.6879992  13.0539978  35.5870014  29.8135987  12.1949002  35.6360461
  32.9849992   6.6179978  24.1390014  33.8769992   6.4799978  24.4580014
  33.0409992   7.4089978  23.6020014  33.1147325   6.7059918  24.1101217
  23.4929992  11.2319978  30.0490014  24.2379992  11.2289978  29.4470014
  23.5709992  10.4079978  30.5300014  23.6053365  11.1202384  30.0317430
  30.4939992  13.3949978  23.3040014  30.1989992  14.2219978  23.6860014
  29.7909992  12.7759978  23.5010014  30.3586379  13.4244171  23.3828654
  20.5009992   9.6919978  35.3640014  20.7239992   9.2739978  36.1950014
  19.8989992   9.0799978  34.9410014  20.4501513   9.5519606  35.4206740
  27.5179992   9.2089978  37.5770014  27.2219992   9.0439978  36.6810014
  28.4489992   8.9889978  37.5660014  27.6034401   9.1566880  37.4530206
  32.1379992  14.5829978  35.4660014  31.2379992  14.7659978  35.1990014
  32.1719992  14.8419978  36.3870014  32.0193748  14.6430554  35.5539164
  37.8699992   6.8269978  23.8340014  37.3149992   6.4309978  23.1610014
  37.9699992   7.7379978  23.5560014  37.8076816   6.8959505  23.7045033
  37.8329992  12.6279978  36.6710014  36.9819992  12.8659978  36.3030014
  38.4229992  12.6109978  35.9180014  37.7963812  12.6582524  36.5188453
  36.1649992  15.6129978  24.2990014  35.7919992  14.7879978  24.6080014
  36.4419992  15.4299978  23.4010014  36.1513463  15.4752569  24.2199525
  33.3249992  10.4209978  31.3200014  32.3969992  10.1899978  31.2930014
  33.7759992   9.6439978  30.9900014  33.2588165  10.2842774  31.2716790
  25.8679992  14.7499978  27.4530014  26.3959992  15.5229978  27.2530014
  24.9879992  14.9739978  27.1510014  25.8213435  14.8862700  27.3847310
  21.6229992   9.6119978  22.0400014  22.2389992  10.2389978  22.4200014
  20.7609992   9.9279978  22.3120014  21.5907678   9.7404412  22.1287209
  27.2959992  12.4129978  27.0290014  27.0549992  13.3379978  27.0710014
  26.5549992  11.9539978  27.4260014  27.1629206  12.4775915  27.0883769
  27.8099992  16.5619978  33.3440014  28.1729992  17.4159978  33.1110014
  28.3419992  16.2699978  34.0850014  27.9315141  16.6393895  33.4122097
  25.9789992  17.4339978  26.5750014  25.0289992  17.5399978  26.6260014
  26.3309992  18.2549978  26.9190014  25.8965472  17.5594923  26.6284852
  31.3539992  12.6609978  33.0450014  30.9289992  12.4329978  33.8710014
  31.9349992  11.9219978  32.8630014  31.3743395  12.5299545  33.1334414
  33.5569992  13.5899978  22.1190014  33.9109992  13.2099978  22.9230014
  32.6089992  13.4959978  22.2060014  33.4772298  13.5252452  22.2408687
  34.0129992  17.2129978  35.5140014  33.4109992  16.6569978  35.0190014
  34.2939992  17.8799978  34.8880014  33.9685757  17.2270744  35.3615675
  38.0609992  18.0689978  22.3200014  38.8049992  18.6549978  22.1800014
  37.3669992  18.6379978  22.6530014  38.0689809  18.2260818  22.3458590
  22.1349992   4.4459978  34.9220014  21.2429992   4.7839978  34.8540014
  22.0369992   3.5899978  35.3400014  21.9994475   4.3766543  34.9691704
  34.4229992  12.2619978  24.3460014  34.1459992  11.5339978  24.9020014
  35.3509992  12.3809978  24.5510014  34.5104499  12.1784213  24.4498044
  21.7869992  16.2499978  33.3570014  22.0039992  15.3179978  33.3260014
  22.0329992  16.5249978  34.2400014  21.8499809  16.1595686  33.4721691
  27.6479992  14.7019978  20.5660014  27.8869992  13.9529978  20.0190014
  27.3789992  14.3139978  21.3990014  27.6443233  14.5471853  20.6037809
  26.5849992  14.2719978  23.0220014  26.7319992  13.7519978  23.8120014
  26.5819992  15.1789978  23.3290014  26.6047102  14.3233953  23.1715925
  23.0379992  11.5239978  23.5330014  22.3519992  11.8769978  24.1000014
  23.5609992  12.2869978  23.2860014  23.0148402  11.6753901  23.5771801
  30.8699992   4.1869978  33.8120014  31.5689992   4.2609978  34.4620014
  30.4889992   3.3219978  33.9660014  30.9142097   4.0802389  33.9217997
  31.6539992   3.8389978  24.9090014  31.8739992   4.3099978  24.1050014
  32.2129992   4.2329978  25.5790014  31.7596731   3.9567287  24.8895033
  29.3229992  15.9689978  23.7720014  28.5059992  16.4659978  23.8240014
  29.8519992  16.4449978  23.1310014  29.2828125  16.1011989  23.6925306
  28.8539992   5.5669978  25.7440014  29.6659992   6.0709978  25.7900014
  28.6099992   5.4219978  26.6580014  28.9321467   5.6163749  25.8738575
  29.3899992   6.5529978  34.9280014  29.5089992   7.1269978  35.6850014
  30.0449992   5.8649978  35.0430014  29.4948684   6.5385194  35.0471674
  29.7379992   2.6479978  26.6820014  29.3909992   3.2649978  27.3260014
  30.3969992   3.1489978  26.2000014  29.7795090   2.8001575  26.7050681
  26.6609992  17.0129978  23.7530014  26.8219992  17.8129978  23.2530014
  26.4639992  17.3199978  24.6380014  26.6563906  17.1638678  23.8042333
  25.3959992   3.7109978  23.3690014  25.3119992   4.5989978  23.7160014
  26.2859992   3.4459978  23.6010014  25.5048163   3.7967179  23.4478596
  35.5939992   4.4599978  35.7630014  34.6779992   4.7219978  35.6760014
  35.9299992   4.4569978  34.8670014  35.5138499   4.4955163  35.6298766
  34.1969992   8.2099978  29.8590014  33.3989992   7.7949978  29.5310014
  34.6419992   7.5199978  30.3500014  34.1479684   8.0598628  29.8805227
  23.6539992  14.1379978  22.4290014  24.2459992  14.8379978  22.7060014
  24.1129992  13.7049978  21.7100014  23.7971652  14.1752675  22.3696533
  21.9699992   6.8029978  21.5450014  21.9249992   7.7419978  21.7240014
  21.0819992   6.5669978  21.2760014  21.8438166   6.8996687  21.5331524
  35.2829992  17.4659978  31.4810014  35.1269992  18.1449978  30.8240014
  36.2159992  17.5379978  31.6840014  35.3877387  17.5686390  31.4185342
  22.7779992   1.5839978  30.2190014  22.5489992   1.6429978  29.2910014
  22.3359992   0.7929978  30.5250014  22.6868801   1.4850540  30.1334729
  21.7089992  15.5249978  26.3790014  20.8759992  15.9969978  26.4060014
  22.2539992  16.0349978  25.7800014  21.6687857  15.6584791  26.3017142
  20.9969992  18.1369978  37.7090014  21.5369992  17.9209978  38.4690014
  20.5159992  17.3319978  37.5190014  21.0059219  17.9985156  37.7874282
  25.5939992  17.0569978  39.3290014  26.3619992  16.5979978  39.6700014
  25.5729992  16.8309978  38.3990014  25.6962135  16.9636668  39.2499491
  29.6859992  16.5649978  20.7050014  29.0419992  15.9339978  21.0260014
  30.4479992  16.0339978  20.4730014  29.7008058  16.4067902  20.7176038
  32.1709992  15.4369978  38.0580014  31.8199992  14.5799978  38.3020014
  32.8969992  15.5789978  38.6650014  32.2211895  15.3391351  38.1733770
  34.2909992  16.3819978  20.9380014  34.5739992  15.5869978  21.3910014
  35.0299992  16.6149978  20.3770014  34.4297096  16.3047049  20.9241104
  20.9039992  11.9479978  38.6630014  21.0479992  11.0459978  38.3770014
  20.1319992  12.2339978  38.1760014  20.8192733  11.8631798  38.5579532
  25.2449992  12.2909978  20.7960014  25.3099992  11.4969978  21.3260014
  25.8979992  12.1729978  20.1060014  25.3421605  12.1663430  20.7752997
  27.5589992  11.9169978  38.0960014  27.2309992  12.1879978  37.2390014
  27.7109992  10.9759978  38.0080014  27.5346412  11.8269046  37.9667822
  30.5979992  13.3379978  20.5320014  30.3289992  13.5189978  21.4320014
  30.3909992  12.4129978  20.4000014  30.5331191  13.2377119  20.6375524
  33.2939992  11.8329978  35.4790014  34.0389992  12.4219978  35.3600014
  32.5369992  12.4149978  35.5430014  33.2935470  11.9922128  35.4713799
  21.7369992   9.1479978  38.0830014  22.1449992   8.2909978  37.9620014
  21.4759992   9.1619978  39.0040014  21.7576016   9.0325119  38.1909192
  26.3949992  10.2639978  23.1020014  25.9349992   9.7799978  23.7870014
  26.6499992   9.5949978  22.4660014  26.3664856  10.1073669  23.1098397
  25.6839992   8.1569978  35.4580014  25.0649992   8.8309978  35.7380014
  26.0279992   8.4779978  34.6240014  25.6457123   8.2926887  35.3836388
  27.4659992   8.5069978  21.3640014  27.2849992   8.3519978  20.4370014
  28.4159992   8.6149978  21.4090014  27.5696566   8.5003669  21.2430929
  30.7029992  10.6279978  38.7350014  31.6569992  10.7119978  38.7080014
  30.5429992   9.9159978  39.3550014  30.8117182  10.5432842  38.8150733
  36.8559992  10.8609978  20.8100014  36.5819992  10.4369978  19.9970014
  36.8949992  11.7929978  20.5930014  36.8237716  10.9288827  20.6694286
  26.0229992   5.5119978  36.5400014  26.1729992   4.7829978  35.9380014
  26.0249992   6.2889978  35.9810014  26.0437967   5.5172708  36.3820541
  26.4359992   3.8809978  34.0330014  26.9709992   4.3329978  33.3810014
  25.5829992   3.7729978  33.6100014  26.3940374   3.9282665  33.8866710
  28.0169992   9.3209978  34.2720014  28.7679992   9.1649978  33.6990014
  27.6779992  10.1729978  33.9970014  28.0739587   9.4148138  34.1564078
  32.4329992   7.1359978  39.3010014  32.6249992   6.2049978  39.1890014
  33.2909992   7.5609978  39.2900014  32.5752182   7.0660070  39.2841862
  33.7499992   9.9249978  37.3780014  33.4679992  10.6339978  36.8000014
  34.6919992   9.8519978  37.2270014  33.8387921  10.0122193  37.2784225
  24.5019992   6.7099978  38.4510014  23.7339992   6.1769978  38.2410014
  25.1799992   6.3999978  37.8520014  24.4887235   6.5951754  38.3412413
  27.2409992   1.3379978  34.4640014  27.1429992   2.2839978  34.3590014
  26.4989992   0.9649978  33.9880014  27.1272534   1.4171773  34.3852600
  28.5049992   5.6589978  38.0280014  28.2699992   5.4399978  38.9290014
  27.7219992   5.4519978  37.5180014  28.3669095   5.6009892  38.0825353
  31.2209992   4.7869978  37.1030014  30.2729992   4.8189978  37.2350014
  31.5329992   4.1609978  37.7570014  31.1335293   4.7067923  37.2094148
  32.8549992   3.4209978  39.1080014  32.7579992   2.4689978  39.1030014
  32.5329992   3.6889978  39.9690014  32.7982468   3.3270884  39.2236210
  22.6819992   4.6299978  38.1560014  22.8939992   3.9239978  37.5460014
  22.5709992   4.1929978  39.0000014  22.6960269   4.4741921  38.1865873
  27.4629992   0.6319978  37.1350014  28.1749992  -0.0080022  37.1210014
  27.3619992   0.8979978  36.2220014  27.5467387   0.5804330  37.0095563
  27.8169992   2.3139978  39.1890014  27.6849992   1.8389978  38.3690014
  27.2169992   3.0589978  39.1340014  27.7179070   2.3495789  39.0693251
  27.3629992  19.1969978  22.3650014  28.2959992  19.3549978  22.5090014
  27.0989992  19.8729978  21.7400014  27.4549911  19.3099373  22.3002722
  20.9309992  13.8339978  21.8480014  21.8449992  13.9129978  22.1210014
  20.9389992  13.1469978  21.1820014  21.0570655  13.7519205  21.7952917
  19.5799992  19.2269978  26.9250014  18.9329992  18.7649978  26.3930014
  19.9349992  18.5549978  27.5080014  19.5393741  19.0729774  26.9309175
  20.4499992  17.3069978  28.7300014  20.1159992  16.4269978  28.9020014
  20.6729992  17.6529978  29.5950014  20.4343721  17.2331938  28.8704168
  37.9989992  18.1169978  31.7110014  37.9769992  18.3019978  32.6500014
  38.6889992  18.6849978  31.3700014  38.0893439  18.2191887  31.7934791
  37.5619992  17.6839978  34.6320014  37.0749992  16.9489978  34.2610014
  38.1109992  17.2899978  35.3100014  37.5695247  17.5301057  34.6728461
  36.0129992  13.4739978  39.2710014  35.1469992  13.3689978  39.6650014
  36.3889992  14.2319978  39.7170014  35.9453401  13.5621708  39.3852620
  37.3139992  11.7299978  24.7850014  38.1639992  12.1509978  24.9120014
  37.3189992  10.9899978  25.3920014  37.4311143  11.6876094  24.8844750
  37.7079992   9.7839978  26.6080014  36.9819992   9.3039978  27.0060014
  38.2899992   9.9889978  27.3410014  37.6872730   9.7460184  26.7614149
  37.4669992  12.5689978  31.5560014  38.3009992  12.1909978  31.2750014
  37.5789992  13.5119978  31.4370014  37.5961917  12.6447943  31.5014861
  35.9539992  15.4469978  33.8630014  35.3059992  15.7719978  34.4880014
  35.4359992  15.0059978  33.1890014  35.7954196  15.4318651  33.8574152
  37.9769992   9.6849978  22.9990014  37.4549992  10.0409978  22.2810014
  37.9439992  10.3599978  23.6780014  37.9010129   9.8249598  22.9923355
  36.3259992   6.9239978  21.5500014  36.4219992   7.5909978  20.8700014
  36.1859992   6.1089978  21.0690014  36.3202040   6.9050671  21.3918378
  35.4949992   8.3049978  27.1710014  35.3449992   7.3599978  27.1510014
  35.1409992   8.5859978  28.0150014  35.4266351   8.2136644  27.2823220
  20.5299992  10.3829978  31.1820014  20.7149992  10.3009978  30.2460014
  21.3799992  10.2589978  31.6050014  20.6700928  10.3550463  31.1112893
  36.3509992  10.2749978  36.8100014  36.9339992   9.5399978  37.0020014
  36.9149992  11.0469978  36.8570014  36.5069781  10.2788145  36.8426164
  37.8479992   8.1779978  37.4950014  36.9849992   7.7989978  37.3290014
  38.4519992   7.4389978  37.4200014  37.8116085   8.0263223  37.4621695
  35.5729992   4.3319978  20.6680014  36.1839992   3.9609978  21.3050014
  34.7359992   3.9109978  20.8640014  35.5434947   4.2242756  20.7817252
  35.2059992   5.8869978  25.6340014  35.4849992   4.9799978  25.7580014
  35.9649992   6.3209978  25.2450014  35.3468619   5.8214502  25.5983795
  35.8169992   6.4689978  31.0700014  36.7499992   6.6809978  31.0350014
  35.5819992   6.5699978  31.9920014  35.9129517   6.5116833  31.1899130
  35.8469992   7.2059978  33.8460014  35.0039992   7.4739978  34.2120014
  36.2889992   8.0279978  33.6350014  35.7914138   7.3538273  33.8675518
  20.1279992   5.6529978  37.3220014  21.0469992   5.5309978  37.5590014
  19.6779992   4.9029978  37.7120014  20.1930087   5.5349608  37.4071410
  38.1299992   1.1859978  39.1990014  38.4789992   0.5319978  38.5940014
  38.2769992   2.0229978  38.7590014  38.1976824   1.2096024  39.0566304
  35.8189992   3.1499978  25.6820014  36.0009992   2.7009978  26.5070014
  35.2189992   2.5659978  25.2180014  35.7628187   3.0095552  25.7322739
  21.3489992   3.9659978  30.2140014  21.7939992   3.1739978  30.5160014
  21.8149992   4.6819978  30.6440014  21.4729718   3.9544534  30.3135265
  19.6529992   6.9649978  31.2830014  20.1449992   6.7439978  30.4920014
  20.0149992   7.8049978  31.5640014  19.7692923   7.0483468  31.2127407
  37.6489992   3.2949978  37.5480014  36.7319992   3.5659978  37.5130014
  37.7719992   2.7599978  36.7640014  37.5399672   3.2597885  37.4371862
  37.6859992   3.2179978  22.2100014  38.0979992   2.4969978  21.7350014
  38.3669992   3.8869978  22.2680014  37.8345536   3.2097766  22.1528024
  19.9669992   3.2229978  25.3370014  19.0419992   3.4309978  25.2080014
  20.4209992   3.7069978  24.6470014  19.9016298   3.3169299  25.2260451
  34.7369992  18.2069978  27.2830014  35.3899992  17.8589978  26.6750014
  35.2479992  18.6949978  27.9290014  34.8952777  18.2253815  27.2872047
  19.9299992   1.9609978  33.6810014  19.2649992   1.7149978  34.3240014
  19.4869992   2.5829978  33.1040014  19.7791168   2.0114214  33.6909848
  22.1219992  15.1359978  37.8260014  21.3009992  15.3109978  37.3650014
  21.8699992  15.0629978  38.7460014  21.9755594  15.1500717  37.8873611
  25.0759992  16.1099978  34.0840014  24.6519992  16.9199978  33.8020014
  25.9809992  16.1959978  33.7820014  25.1402138  16.2324160  34.0046415
  29.3879992  17.5089978  37.0440014  29.5719992  17.1759978  37.9220014
  30.2339992  17.8189978  36.7220014  29.5276484  17.5052979  37.1207617
  31.7329992  18.7949978  36.2880014  32.4099992  18.1619978  36.0480014
  32.0539992  19.1959978  37.0950014  31.8691323  18.7625691  36.3643158
  36.6499992   1.3849978  35.3670014  35.8369992   1.7099978  34.9800014
  36.8829992   0.6239978  34.8340014  36.5701347   1.3266880  35.2419841
  22.4779992  19.3669978  34.1320014  21.7579992  19.8069978  33.6810014
  22.1129992  19.1159978  34.9800014  22.3299643  19.3933369  34.1849129
  24.9449992  18.9669978  33.1620014  24.0809992  19.0389978  33.5660014
  24.8899992  19.5139978  32.3780014  24.8191942  19.0507849  33.1114000
  29.6559992  18.8549978  32.3370014  29.1989992  19.3839978  31.6830014
  29.8189992  19.4579978  33.0620014  29.6154960  19.0089280  32.3455274
  31.9839992  17.7329978  33.2820014  31.0789992  17.8979978  33.0160014
  32.4119992  18.5859978  33.2160014  31.9181537  17.8709134  33.2367095
  34.5879992  19.3029978  33.5770014  34.4059992  20.2189978  33.3660014
  34.7649992  18.8919978  32.7300014  34.5870030  19.3728273  33.4337166
  21.8929992  17.9899978  31.0420014  21.8749992  17.5639978  31.8990014
  22.6979992  17.6709978  30.6330014  21.9992875  17.8886435  31.1039515
  24.0339992  16.6999978  29.6970014  23.8149992  15.7829978  29.8670014
  24.8579992  16.8399978  30.1630014  24.1154702  16.5935511  29.7832527
  26.5709992  17.1699978  30.5460014  26.7839992  16.2819978  30.2590014
  26.6359992  17.1349978  31.5000014  26.6089149  17.0438326  30.6357369
  30.0799992   2.8339978  29.6900014  29.4059992   2.2039978  29.9460014
  30.6439992   2.3499978  29.0870014  30.0640384   2.6823708  29.6435020
  35.2229992   0.9409978  29.8030014  35.8259992   1.4889978  29.3010014
  34.3529992   1.2599978  29.5620014  35.1879157   1.0590373  29.7017910
  36.9499992   2.0799978  28.1360014  37.5609992   1.5659978  27.6090014
  37.3319992   2.9569978  28.1590014  37.0853305   2.1282050  28.0669418
  22.4069992   1.4679978  27.5120014  21.6299992   1.2329978  27.0050014
  22.9369992   0.6709978  27.5210014  22.3723451   1.3281268  27.4438627
  21.2429992   1.2659978  23.3160014  21.6819992   1.8769978  22.7240014
  20.6089992   1.8039978  23.7900014  21.2173859   1.4224064  23.2990305
  26.9859992   1.3939978  27.3250014  27.8599992   1.7829978  27.2960014
  26.8499992   1.1789978  28.2480014  27.0871953   1.4181643  27.4457617
  32.5429992   1.4239978  28.9750014  32.6189992   1.5199978  28.0250014
  32.2679992   0.5169978  29.1030014  32.5161871   1.3144146  28.8623944
  33.8959992   1.4499978  24.6670014  33.1929992   2.0649978  24.4570014
  33.4509992   0.6129978  24.7980014  33.7396550   1.4209668  24.6559837
  21.1439992  17.2139978  24.2130014  20.4589992  17.1759978  23.5460014
  21.1479992  18.1269978  24.5010014  21.0507621  17.3321924  24.1606126
  23.1039992   3.1819978  21.7580014  23.5949992   2.5519978  21.2310014
  23.7269992   3.4779978  22.4210014  23.2555304   3.1357376  21.7754940
  28.1299992   3.4749978  24.2150014  28.3079992   2.8279978  24.8980014
  28.0759992   4.3089978  24.6820014  28.1470678   3.4991604  24.3716301
  30.0079992  18.4229978  22.6110014  30.8739992  18.7899978  22.4330014
  29.7619992  17.9839978  21.7970014  30.0932097  18.4138525  22.4766019
  36.7169992  17.9859978  25.2900014  36.5229992  17.2379978  24.7250014
  36.6779992  18.7439978  24.7070014  36.6851645  17.9860786  25.1338148
  22.3639992   1.9819978  37.0300014  21.9979992   1.2159978  37.4720014
  23.2769992   2.0109978  37.3160014  22.4373172   1.8810324  37.1291890
  24.3369992   1.3319978  38.5650014  25.2359992   1.0579978  38.3810014
  23.9509992   0.5899978  39.0300014  24.4077307   1.1942196  38.6027098
  22.9619992  18.1339978  21.2380014  22.6939992  18.4199978  22.1120014
  23.7329992  17.5879978  21.3910014  23.0295926  18.0992779  21.3781205
  32.7589992   0.6649978  38.7480014  32.8349992   0.2389978  39.6010014
  33.6519992   0.6779978  38.4050014  32.8902303   0.6083493  38.8185497
  35.9349992  16.7379978  37.4400014  35.1529992  16.5509978  36.9200014
  35.8629992  17.6669978  37.6570014  35.8181924  16.8380637  37.3981602
  50.3409992  10.6239978  27.4710014  50.4299992  11.5679978  27.3390014
  49.7029992  10.3489978  26.8130014  50.2669062  10.7159812  27.3639641
  49.2739992   9.8789978  30.8900014  49.2359992   9.2329978  31.5950014
  48.9519992   9.4119978  30.1190014  49.2252679   9.7274276  30.8822921
  41.6419992   9.4929978  32.4830014  41.6839992   8.8679978  33.2060014
  42.3449992  10.1169978  32.6650014  41.7427345   9.4917873  32.6065274
  52.9799992  12.8179978  29.1910014  52.5389992  12.0979978  29.6420014
  52.9669992  13.5389978  29.8210014  52.9179215  12.8169291  29.3378105
  42.5659992  13.9429978  31.0180014  42.1959992  13.1409978  30.6480014
  43.5069992  13.7749978  31.0640014  42.6425984  13.8104638  30.9735603
  39.1759992   7.6029978  26.4100014  38.7279992   8.4489978  26.3920014
  38.6149992   7.0239978  25.8950014  39.0388546   7.6403993  26.3378891
  39.8859992   9.7649978  28.5360014  40.0999992   8.9949978  29.0640014
  40.6239992   9.8549978  27.9330014  40.0150200   9.6718587  28.5267035
  50.0919992  17.9219978  29.4030014  50.7109992  17.2459978  29.1300014
  49.8829992  17.7039978  30.3120014  50.1486056  17.7998869  29.4883967
  47.6629992  12.3109978  31.2960014  47.9669992  11.6249978  30.7010014
  48.3849992  12.4299978  31.9140014  47.8021240  12.2332314  31.2980959
  56.3259992   3.9129978  32.1560014  56.3759992   4.5229978  32.8920014
  56.7519992   4.3739978  31.4330014  56.3904108   4.0587709  32.1590112
  50.8039992   6.7049978  31.6230014  50.9469992   5.7589978  31.6430014
  50.6979992   6.9119978  30.6950014  50.8092403   6.6034797  31.5002239
  43.9589992   4.8069978  28.8960014  44.0019992   5.6669978  28.4770014
  43.5009992   4.2549978  28.2620014  43.9029871   4.8499245  28.7530761
  51.6809992   4.9379978  27.2970014  52.3279992   4.6089978  27.9210014
  52.1909992   5.4549978  26.6740014  51.8384351   4.9629067  27.2981037
  40.5789992   7.2039978  29.6580014  41.2329992   6.6539978  30.0900014
  40.6029992   6.9299978  28.7410014  40.6717199   7.0917167  29.5931668
  45.7359992   8.7539978  28.8730014  46.3519992   8.2269978  29.3820014
  45.1489992   8.1139978  28.4690014  45.7410154   8.5953954  28.8880945
  56.7179992   5.3909978  34.3920014  56.0289992   6.0489978  34.2970014
  56.7329992   5.1929978  35.3290014  56.6257756   5.4542603  34.5055812
  42.7689992   3.7249978  32.9700014  42.5499992   4.2549978  32.2030014
  42.1009992   3.9509978  33.6170014  42.6486975   3.8280967  32.9525140
  50.1379992  13.2249978  26.5140014  49.8429992  12.9019978  25.6620014
  49.8139992  14.1249978  26.5550014  50.0538460  13.3024464  26.4029714
  45.3379992  11.3999978  33.2570014  44.5979992  11.9989978  33.3610014
  46.0519992  11.9539978  32.9420014  45.3333500  11.5567829  33.2286371
  53.4449992   4.2289978  29.2770014  53.2299992   3.4629978  29.8100014
  54.1009992   4.7009978  29.7900014  53.5042673   4.1880728  29.4191990
  42.3629992   5.6169978  30.9220014  42.9769992   6.2499978  31.2950014
  42.8749992   5.1449978  30.2660014  42.5161962   5.6397249  30.8842935
  43.7459992  13.3649978  34.0440014  43.7399992  14.2439978  33.6660014
  42.8919992  13.2809978  34.4690014  43.6297925  13.4739535  34.0496887
  39.8669992  13.0359978  24.8260014  39.5949992  13.2649978  23.9380014
  39.9119992  13.8729978  25.2870014  39.8358097  13.1806163  24.7666683
  53.4919992  14.6569978  31.5390014  52.5499992  14.7159978  31.7010014
  53.7679992  15.5629978  31.4020014  53.4005865  14.7875288  31.5426192
  53.7919992   2.9439978  32.9560014  53.0559992   3.5539978  32.9190014
  54.4759992   3.3589978  32.4300014  53.7835367   3.0837551  32.8798174
  46.7959992   1.0299978  30.4220014  46.6779992   0.0819978  30.3680014
  45.9409992   1.3629978  30.6950014  46.6642805   0.9452202  30.4515079
  51.7439992  16.4379978  28.1640014  52.1689992  15.7309978  27.6790014
  52.0609992  17.2399978  27.7470014  51.8450266  16.4495190  28.0412479
  52.9039992  14.3389978  26.6730014  52.6459992  13.6489978  26.0610014
  52.9749992  13.8959978  27.5180014  52.8783050  14.1846814  26.7035621
  54.5899992  12.9059978  35.1500014  54.7289992  12.3139978  34.4110014
  54.7569992  13.7789978  34.7940014  54.6316193  12.9428896  35.0006211
  49.0619992   9.8679978  24.9230014  48.3509992  10.4029978  24.5710014
  49.7529992   9.9229978  24.2630014  49.0580751   9.9486777  24.7855858
  49.1159992   8.3249978  21.9610014  49.8169992   8.3479978  22.6130014
  49.4179992   7.6969978  21.3050014  49.2528202   8.2432212  21.9615609
  56.4309992   9.2459978  33.2160014  55.7789992   9.9399978  33.3050014
  56.8969992   9.4559978  32.4060014  56.4045937   9.3695019  33.1187533
  52.4679992  10.0769978  25.8740014  51.7359992  10.3059978  26.4480014
  52.9149992   9.3639978  26.3290014  52.4283963  10.0118729  26.0139945
  52.3649992   8.2519978  34.9420014  52.4449992   9.0149978  35.5140014
  51.7639992   8.5309978  34.2520014  52.2946547   8.3942457  34.9270047
  44.1129992  10.7079978  27.7570014  43.7829992  10.3369978  26.9390014
  44.7019992  10.0369978  28.1040014  44.1473970  10.5666063  27.6919404
  45.4799992  14.1359978  30.4380014  45.3849992  13.5569978  29.6820014
  46.2089992  13.7649978  30.9340014  45.5656011  14.0065561  30.4016028
  44.4799992   9.4759978  31.3900014  45.0449992   9.5979978  30.6280014
  44.7989992  10.1139978  32.0290014  44.6004166   9.5788791  31.3720348
  50.7889992  14.9799978  32.1240014  50.5489992  15.6419978  32.7720014
  50.5909992  14.1449978  32.5490014  50.7293826  14.9578115  32.2701566
  45.3599992  13.8759978  36.1080014  45.0489992  14.6579978  36.5630014
  44.7099992  13.7229978  35.4220014  45.2295538  13.9624087  36.0775898
  51.3389992   9.2399978  23.5600014  51.9179992   9.3899978  24.3060014
  51.7529992   9.7099978  22.8360014  51.4743358   9.3240955  23.5643953
  42.2799992  10.0739978  35.3360014  42.3499992  10.7249978  36.0350014
  41.3889992  10.1769978  35.0010014  42.1691690  10.1769249  35.3863043
  49.0649992  15.9759978  26.9950014  49.5389992  16.2719978  27.7720014
  48.5019992  16.7149978  26.7620014  49.0537890  16.1163036  27.0698101
  43.5989992  15.9469978  36.8710014  43.6069992  15.8109978  35.9240014
  42.6829992  15.8299978  37.1230014  43.4762528  15.9125463  36.7753243
  55.0379992   0.9899978  23.3730014  54.1379992   1.1289978  23.6680014
  55.2899992   1.8209978  22.9710014  54.9488683   1.1214055  23.3590232
  43.1039992   9.7769978  25.3460014  42.8119992  10.5449978  24.8550014
  42.4289992   9.1179978  25.1830014  42.9728497   9.7929745  25.2568260
  56.2269992  15.3559978  21.7490014  56.2999992  16.2949978  21.9190014
  57.1319992  15.0509978  21.6930014  56.3594170  15.4433282  21.7647063
  39.1969992  12.1399978  34.1610014  38.6949992  12.1119978  33.3460014
  39.2019992  11.2349978  34.4710014  39.1289832  12.0137486  34.0914121
  38.9469992  14.9209978  31.0450014  39.8929992  14.7759978  31.0260014
  38.8339992  15.7049978  31.5820014  39.0613578  15.0071697  31.1150317
  57.1449992  15.5869978  36.7280014  57.0949992  14.6309978  36.6900014
  56.3179992  15.8539978  37.1290014  57.0263831  15.4924680  36.7770121
  48.1229992  15.1609978  35.6040014  48.2109992  15.9869978  36.0790014
  47.2599992  14.8309978  35.8530014  48.0183357  15.2295468  35.7027653
  48.5379992  18.9329978  25.4100014  48.4619992  18.8119978  24.4630014
  48.5699992  19.8819978  25.5280014  48.5319380  19.0447677  25.2965181
  42.1909992  17.7219978  27.1910014  42.3429992  17.3739978  28.0690014
  41.3399992  17.3649978  26.9350014  42.0968344  17.6260879  27.2766868
  51.6389992  18.0869978  22.4120014  52.0139992  17.3429978  21.9410014
  51.6439992  17.8169978  23.3300014  51.6910098  17.9486392  22.4716629
  51.3079992  18.0129978  25.1610014  50.3729992  18.1129978  25.3400014
  51.5879992  17.3029978  25.7400014  51.2179471  17.9307933  25.2636695
  54.2969992   7.0799978  37.2080014  53.8889992   7.5599978  36.4870014
  54.3369992   6.1739978  36.9000014  54.2466221   7.0232449  37.0678267
  41.4459992  13.4639978  35.2040014  41.6619992  13.1019978  36.0640014
  40.5899992  13.0889978  34.9950014  41.3598810  13.3638837  35.2932680
  44.0639992   1.9339978  31.2000014  43.2029992   1.8469978  30.7920014
  44.0419992   2.7899978  31.6280014  43.9430491   2.0378003  31.2019582
  48.7269992   1.6559978  34.5750014  49.1469992   1.2409978  35.3280014
  47.7939992   1.4769978  34.6920014  48.6583736   1.5749910  34.6938968
  52.0539992   5.4109978  35.4280014  51.5399992   5.2859978  36.2260014
  51.8979992   6.3239978  35.1840014  51.9626967   5.5172123  35.5040937
  52.8159992  10.2719978  21.1890014  52.8579992  10.0499978  20.2590014
  53.6649992  10.6709978  21.3790014  52.9365253  10.2955498  21.0873822
  48.3889992   4.1479978  21.8600014  48.1349992   4.1669978  22.7820014
  48.1319992   3.2769978  21.5580014  48.3194508   4.0328280  21.9454803
  44.1549992   6.8989978  32.2950014  43.5139992   6.8589978  33.0040014
  44.1929992   7.8259978  32.0570014  44.0723010   7.0187668  32.3599946
  44.1519992   7.1199978  27.2070014  43.2599992   6.7799978  27.1480014
  44.6029992   6.7429978  26.4510014  44.0907642   7.0224910  27.0967726
  49.6879992   7.5359978  26.0240014  49.2789992   8.3509978  25.7320014
  50.4079992   7.3959978  25.4100014  49.7294439   7.6285372  25.9010115
  48.7899992   7.7119978  37.5120014  48.2269992   7.0069978  37.8330014
  49.6159992   7.5909978  37.9800014  48.8246674   7.5992165  37.6191751
  50.6929992   6.9819978  28.8380014  50.4969992   7.5879978  28.1230014
  50.8739992   6.1489978  28.4040014  50.6906584   6.9522513  28.6814212
  41.9049992   7.2199978  34.1620014  41.8669992   7.6199978  35.0310014
  41.4149992   6.4029978  34.2520014  41.8335330   7.1642674  34.2931289
  45.2709992   4.5939978  20.9610014  44.8399992   4.1489978  21.6900014
  44.5529992   4.9649978  20.4480014  45.1149176   4.5832051  20.9914930
  38.5139992   4.3359978  28.0130014  39.1439992   4.3069978  28.7320014
  38.9629992   3.9109978  27.2820014  38.6610835   4.2745660  28.0127659
  39.7879992   5.0819978  23.4370014  40.2619992   5.6729978  22.8520014
  39.0699992   5.6119978  23.7840014  39.7558640   5.2345511  23.4037969
  49.9569992   8.6199978  33.5090014  50.2799992   7.9889978  32.8660014
  49.5159992   8.0859978  34.1700014  49.9416379   8.4613468  33.5102582
  46.7339992   4.5479978  28.2930014  45.8229992   4.6049978  28.5820014
  47.2389992   4.4879978  29.1040014  46.6776873   4.5476826  28.4421207
  41.5619992   6.1769978  27.1200014  40.6729992   6.2759978  26.7800014
  41.8589992   5.3349978  26.7740014  41.4804177   6.0767687  27.0266940
  45.2149992   6.1769978  24.7770014  46.1469992   6.3059978  24.9550014
  44.9999992   6.8459978  24.1270014  45.3134472   6.2850806  24.7134891
  51.1389992   3.7829978  31.5580014  50.4619992   3.9139978  32.2210014
  50.6539992   3.6279978  30.7470014  50.9807405   3.7799947  31.5392170
  43.8889992   7.3709978  22.3430014  43.3469992   6.9919978  21.6520014
  44.7229992   7.5659978  21.9150014  43.9274390   7.3454079  22.1904392
  54.4269992  19.4539978  37.8340014  54.6259992  19.8779978  37.0000014
  55.0819992  19.7979978  38.4410014  54.5428522  19.5586301  37.8017852
  42.0249992  11.9279978  37.4420014  42.7569992  12.1829978  38.0040014
  41.2439992  12.1329978  37.9580014  42.0196526  11.9905450  37.5885176
  48.0539992   7.3349978  30.1800014  48.6179992   6.7889978  29.6330014
  47.9059992   6.8139978  30.9690014  48.1113037   7.1896787  30.2117229
  43.0559992   3.4719978  26.5990014  42.7389992   2.5689978  26.5630014
  43.8369992   3.4739978  26.0460014  43.1182431   3.3487797  26.5193102
  46.6799992   5.7239978  32.5940014  45.8449992   6.1779978  32.7050014
  47.2039992   5.9999978  33.3460014  46.6366072   5.8233948  32.7108136
  47.2249992  11.9369978  24.2790014  46.4799992  11.4289978  23.9570014
  47.0899992  11.9859978  25.2250014  47.1048963  11.8741731  24.3628826
  54.3749992  11.0699978  33.0660014  55.0159992  11.5259978  32.5220014
  53.5439992  11.1829978  32.6030014  54.3505287  11.1476921  32.9289887
  51.1219992   4.7509978  22.4780014  50.1839992   4.8619978  22.3270014
  51.4199992   5.6069978  22.7850014  51.0336318   4.8820158  22.4988145
  48.7439992  12.1209978  35.5160014  48.3979992  11.7389978  36.3230014
  48.5439992  13.0539978  35.5870014  48.6695987  12.1949002  35.6360461
  51.8409992   6.6179978  24.1390014  52.7329992   6.4799978  24.4580014
  51.8969992   7.4089978  23.6020014  51.9707325   6.7059918  24.1101217
  42.3489992  11.2319978  30.0490014  43.0939992  11.2289978  29.4470014
  42.4269992  10.4079978  30.5300014  42.4613365  11.1202384  30.0317430
  49.3499992  13.3949978  23.3040014  49.0549992  14.2219978  23.6860014
  48.6469992  12.7759978  23.5010014  49.2146379  13.4244171  23.3828654
  39.3569992   9.6919978  35.3640014  39.5799992   9.2739978  36.1950014
  38.7549992   9.0799978  34.9410014  39.3061513   9.5519606  35.4206740
  46.3739992   9.2089978  37.5770014  46.0779992   9.0439978  36.6810014
  47.3049992   8.9889978  37.5660014  46.4594401   9.1566879  37.4530206
  50.9939992  14.5829978  35.4660014  50.0939992  14.7659978  35.1990014
  51.0279992  14.8419978  36.3870014  50.8753748  14.6430554  35.5539164
  56.7259992   6.8269978  23.8340014  56.1709992   6.4309978  23.1610014
  56.8259992   7.7379978  23.5560014  56.6636816   6.8959505  23.7045033
  56.6889992  12.6279978  36.6710014  55.8379992  12.8659978  36.3030014
  57.2789992  12.6109978  35.9180014  56.6523812  12.6582524  36.5188453
  55.0209992  15.6129978  24.2990014  54.6479992  14.7879978  24.6080014
  55.2979992  15.4299978  23.4010014  55.0073463  15.4752569  24.2199525
  52.1809992  10.4209978  31.3200014  51.2529992  10.1899978  31.2930014
  52.6319992   9.6439978  30.9900014  52.1148165  10.2842774  31.2716790
  44.7239992  14.7499978  27.4530014  45.2519992  15.5229978  27.2530014
  43.8439992  14.9739978  27.1510014  44.6773435  14.8862700  27.3847310
  40.4789992   9.6119978  22.0400014  41.0949992  10.2389978  22.4200014
  39.6169992   9.9279978  22.3120014  40.4467678   9.7404412  22.1287209
  46.1519992  12.4129978  27.0290014  45.9109992  13.3379978  27.0710014
  45.4109992  11.9539978  27.4260014  46.0189206  12.4775915  27.0883769
  46.6659992  16.5619978  33.3440014  47.0289992  17.4159978  33.1110014
  47.1979992  16.2699978  34.0850014  46.7875141  16.6393895  33.4122097
  44.8349992  17.4339978  26.5750014  43.8849992  17.5399978  26.6260014
  45.1869992  18.2549978  26.9190014  44.7525472  17.5594923  26.6284852
  50.2099992  12.6609978  33.0450014  49.7849992  12.4329978  33.8710014
  50.7909992  11.9219978  32.8630014  50.2303395  12.5299545  33.1334414
  52.4129992  13.5899978  22.1190014  52.7669992  13.2099978  22.9230014
  51.4649992  13.4959978  22.2060014  52.3332298  13.5252452  22.2408687
  52.8689992  17.2129978  35.5140014  52.2669992  16.6569978  35.0190014
  53.1499992  17.8799978  34.8880014  52.8245757  17.2270744  35.3615675
  56.9169992  18.0689978  22.3200014  57.6609992  18.6549978  22.1800014
  56.2229992  18.6379978  22.6530014  56.9249809  18.2260818  22.3458590
  40.9909992   4.4459978  34.9220014  40.0989992   4.7839978  34.8540014
  40.8929992   3.5899978  35.3400014  40.8554475   4.3766543  34.9691704
  53.2789992  12.2619978  24.3460014  53.0019992  11.5339978  24.9020014
  54.2069992  12.3809978  24.5510014  53.3664499  12.1784213  24.4498044
  40.6429992  16.2499978  33.3570014  40.8599992  15.3179978  33.3260014
  40.8889992  16.5249978  34.2400014  40.7059809  16.1595686  33.4721691
  46.5039992  14.7019978  20.5660014  46.7429992  13.9529978  20.0190014
  46.2349992  14.3139978  21.3990014  46.5003233  14.5471853  20.6037809
  45.4409992  14.2719978  23.0220014  45.5879992  13.7519978  23.8120014
  45.4379992  15.1789978  23.3290014  45.4607102  14.3233953  23.1715925
  41.8939992  11.5239978  23.5330014  41.2079992  11.8769978  24.1000014
  42.4169992  12.2869978  23.2860014  41.8708402  11.6753901  23.5771801
  49.7259992   4.1869978  33.8120014  50.4249992   4.2609978  34.4620014
  49.3449992   3.3219978  33.9660014  49.7702097   4.0802389  33.9217997
  50.5099992   3.8389978  24.9090014  50.7299992   4.3099978  24.1050014
  51.0689992   4.2329978  25.5790014  50.6156731   3.9567287  24.8895033
  48.1789992  15.9689978  23.7720014  47.3619992  16.4659978  23.8240014
  48.7079992  16.4449978  23.1310014  48.1388125  16.1011989  23.6925306
  47.7099992   5.5669978  25.7440014  48.5219992   6.0709978  25.7900014
  47.4659992   5.4219978  26.6580014  47.7881467   5.6163749  25.8738575
  48.2459992   6.5529978  34.9280014  48.3649992   7.1269978  35.6850014
  48.9009992   5.8649978  35.0430014  48.3508684   6.5385194  35.0471674
  48.5939992   2.6479978  26.6820014  48.2469992   3.2649978  27.3260014
  49.2529992   3.1489978  26.2000014  48.6355090   2.8001575  26.7050681
  45.5169992  17.0129978  23.7530014  45.6779992  17.8129978  23.2530014
  45.3199992  17.3199978  24.6380014  45.5123906  17.1638678  23.8042333
  44.2519992   3.7109978  23.3690014  44.1679992   4.5989978  23.7160014
  45.1419992   3.4459978  23.6010014  44.3608163   3.7967179  23.4478596
  54.4499992   4.4599978  35.7630014  53.5339992   4.7219978  35.6760014
  54.7859992   4.4569978  34.8670014  54.3698499   4.4955163  35.6298766
  53.0529992   8.2099978  29.8590014  52.2549992   7.7949978  29.5310014
  53.4979992   7.5199978  30.3500014  53.0039684   8.0598628  29.8805227
  42.5099992  14.1379978  22.4290014  43.1019992  14.8379978  22.7060014
  42.9689992  13.7049978  21.7100014  42.6531652  14.1752675  22.3696533
  40.8259992   6.8029978  21.5450014  40.7809992   7.7419978  21.7240014
  39.9379992   6.5669978  21.2760014  40.6998166   6.8996687  21.5331524
  54.1389992  17.4659978  31.4810014  53.9829992  18.1449978  30.8240014
  55.0719992  17.5379978  31.6840014  54.2437387  17.5686390  31.4185342
  41.6339992   1.5839978  30.2190014  41.4049992   1.6429978  29.2910014
  41.1919992   0.7929978  30.5250014  41.5428801   1.4850540  30.1334729
  40.5649992  15.5249978  26.3790014  39.7319992  15.9969978  26.4060014
  41.1099992  16.0349978  25.7800014  40.5247857  15.6584791  26.3017142
  39.8529992  18.1369978  37.7090014  40.3929992  17.9209978  38.4690014
  39.3719992  17.3319978  37.5190014  39.8619219  17.9985156  37.7874282
  44.4499992  17.0569978  39.3290014  45.2179992  16.5979978  39.6700014
  44.4289992  16.8309978  38.3990014  44.5522135  16.9636668  39.2499491
  48.5419992  16.5649978  20.7050014  47.8979992  15.9339978  21.0260014
  49.3039992  16.0339978  20.4730014  48.5568058  16.4067902  20.7176038
  51.0269992  15.4369978  38.0580014  50.6759992  14.5799978  38.3020014
  51.7529992  15.5789978  38.6650014  51.0771895  15.3391351  38.1733770
  53.1469992  16.3819978  20.9380014  53.4299992  15.5869978  21.3910014
  53.8859992  16.6149978  20.3770014  53.2857096  16.3047049  20.9241104
  39.7599992  11.9479978  38.6630014  39.9039992  11.0459978  38.3770014
  38.9879992  12.2339978  38.1760014  39.6752733  11.8631798  38.5579532
  44.1009992  12.2909978  20.7960014  44.1659992  11.4969978  21.3260014
  44.7539992  12.1729978  20.1060014  44.1981605  12.1663430  20.7752997
  46.4149992  11.9169978  38.0960014  46.0869992  12.1879978  37.2390014
  46.5669992  10.9759978  38.0080014  46.3906412  11.8269046  37.9667822
  49.4539992  13.3379978  20.5320014  49.1849992  13.5189978  21.4320014
  49.2469992  12.4129978  20.4000014  49.3891191  13.2377119  20.6375524
  52.1499992  11.8329978  35.4790014  52.8949992  12.4219978  35.3600014
  51.3929992  12.4149978  35.5430014  52.1495470  11.9922128  35.4713799
  40.5929992   9.1479978  38.0830014  41.0009992   8.2909978  37.9620014
  40.3319992   9.1619978  39.0040014  40.6136016   9.0325119  38.1909192
  45.2509992  10.2639978  23.1020014  44.7909992   9.7799978  23.7870014
  45.5059992   9.5949978  22.4660014  45.2224856  10.1073669  23.1098397
  44.5399992   8.1569978  35.4580014  43.9209992   8.8309978  35.7380014
  44.8839992   8.4779978  34.6240014  44.5017123   8.2926887  35.3836388
  46.3219992   8.5069978  21.3640014  46.1409992   8.3519978  20.4370014
  47.2719992   8.6149978  21.4090014  46.4256566   8.5003669  21.2430929
  49.5589992  10.6279978  38.7350014  50.5129992  10.7119978  38.7080014
  49.3989992   9.9159978  39.3550014  49.6677182  10.5432842  38.8150733
  55.7119992  10.8609978  20.8100014  55.4379992  10.4369978  19.9970014
  55.7509992  11.7929978  20.5930014  55.6797716  10.9288827  20.6694286
  44.8789992   5.5119978  36.5400014  45.0289992   4.7829978  35.9380014
  44.8809992   6.2889978  35.9810014  44.8997967   5.5172708  36.3820541
  45.2919992   3.8809978  34.0330014  45.8269992   4.3329978  33.3810014
  44.4389992   3.7729978  33.6100014  45.2500374   3.9282665  33.8866710
  46.8729992   9.3209978  34.2720014  47.6239992   9.1649978  33.6990014
  46.5339992  10.1729978  33.9970014  46.9299587   9.4148138  34.1564078
  51.2889992   7.1359978  39.3010014  51.4809992   6.2049978  39.1890014
  52.1469992   7.5609978  39.2900014  51.4312182   7.0660070  39.2841862
  52.6059992   9.9249978  37.3780014  52.3239992  10.6339978  36.8000014
  53.5479992   9.8519978  37.2270014  52.6947921  10.0122193  37.2784225
  43.3579992   6.7099978  38.4510014  42.5899992   6.1769978  38.2410014
  44.0359992   6.3999978  37.8520014  43.3447235   6.5951754  38.3412413
  46.0969992   1.3379978  34.4640014  45.9989992   2.2839978  34.3590014
  45.3549992   0.9649978  33.9880014  45.9832534   1.4171773  34.3852600
  47.3609992   5.6589978  38.0280014  47.1259992   5.4399978  38.9290014
  46.5779992   5.4519978  37.5180014  47.2229095   5.6009892  38.0825353
  50.0769992   4.7869978  37.1030014  49.1289992   4.8189978  37.2350014
  50.3889992   4.1609978  37.7570014  49.9895293   4.7067923  37.2094148
  51.7109992   3.4209978  39.1080014  51.6139992   2.4689978  39.1030014
  51.3889992   3.6889978  39.9690014  51.6542468   3.3270884  39.2236210
  41.5379992   4.6299978  38.1560014  41.7499992   3.9239978  37.5460014
  41.4269992   4.1929978  39.0000014  41.5520269   4.4741921  38.1865873
  46.3189992   0.6319978  37.1350014  47.0309992  -0.0080022  37.1210014
  46.2179992   0.8979978  36.2220014  46.4027387   0.5804330  37.0095563
  46.6729992   2.3139978  39.1890014  46.5409992   1.8389978  38.3690014
  46.0729992   3.0589978  39.1340014  46.5739070   2.3495789  39.0693251
  46.2189992  19.1969978  22.3650014  47.1519992  19.3549978  22.5090014
  45.9549992  19.8729978  21.7400014  46.3109911  19.3099373  22.3002722
  39.7869992  13.8339978  21.8480014  40.7009992  13.9129978  22.1210014
  39.7949992  13.1469978  21.1820014  39.9130655  13.7519205  21.7952917
  38.4359992  19.2269978  26.9250014  37.7889992  18.7649978  26.3930014
  38.7909992  18.5549978  27.5080014  38.3953741  19.0729774  26.9309175
  39.3059992  17.3069978  28.7300014  38.9719992  16.4269978  28.9020014
  39.5289992  17.6529978  29.5950014  39.2903721  17.2331938  28.8704168
  56.8549992  18.1169978  31.7110014  56.8329992  18.3019978  32.6500014
  57.5449992  18.6849978  31.3700014  56.9453439  18.2191887  31.7934791
  56.4179992  17.6839978  34.6320014  55.9309992  16.9489978  34.2610014
  56.9669992  17.2899978  35.3100014  56.4255247  17.5301057  34.6728461
  54.8689992  13.4739978  39.2710014  54.0029992  13.3689978  39.6650014
  55.2449992  14.2319978  39.7170014  54.8013401  13.5621708  39.3852620
  56.1699992  11.7299978  24.7850014  57.0199992  12.1509978  24.9120014
  56.1749992  10.9899978  25.3920014  56.2871143  11.6876094  24.8844750
  56.5639992   9.7839978  26.6080014  55.8379992   9.3039978  27.0060014
  57.1459992   9.9889978  27.3410014  56.5432730   9.7460184  26.7614149
  56.3229992  12.5689978  31.5560014  57.1569992  12.1909978  31.2750014
  56.4349992  13.5119978  31.4370014  56.4521917  12.6447943  31.5014861
  54.8099992  15.4469978  33.8630014  54.1619992  15.7719978  34.4880014
  54.2919992  15.0059978  33.1890014  54.6514196  15.4318651  33.8574152
  56.8329992   9.6849978  22.9990014  56.3109992  10.0409978  22.2810014
  56.7999992  10.3599978  23.6780014  56.7570129   9.8249598  22.9923355
  55.1819992   6.9239978  21.5500014  55.2779992   7.5909978  20.8700014
  55.0419992   6.1089978  21.0690014  55.1762040   6.9050671  21.3918378
  54.3509992   8.3049978  27.1710014  54.2009992   7.3599978  27.1510014
  53.9969992   8.5859978  28.0150014  54.2826351   8.2136644  27.2823220
  39.3859992  10.3829978  31.1820014  39.5709992  10.3009978  30.2460014
  40.2359992  10.2589978  31.6050014  39.5260928  10.3550463  31.1112893
  55.2069992  10.2749978  36.8100014  55.7899992   9.5399978  37.0020014
  55.7709992  11.0469978  36.8570014  55.3629781  10.2788145  36.8426164
  56.7039992   8.1779978  37.4950014  55.8409992   7.7989978  37.3290014
  57.3079992   7.4389978  37.4200014  56.6676085   8.0263223  37.4621695
  54.4289992   4.3319978  20.6680014  55.0399992   3.9609978  21.3050014
  53.5919992   3.9109978  20.8640014  54.3994947   4.2242756  20.7817252
  54.0619992   5.8869978  25.6340014  54.3409992   4.9799978  25.7580014
  54.8209992   6.3209978  25.2450014  54.2028619   5.8214502  25.5983795
  54.6729992   6.4689978  31.0700014  55.6059992   6.6809978  31.0350014
  54.4379992   6.5699978  31.9920014  54.7689517   6.5116833  31.1899130
  54.7029992   7.2059978  33.8460014  53.8599992   7.4739978  34.2120014
  55.1449992   8.0279978  33.6350014  54.6474138   7.3538273  33.8675518
  38.9839992   5.6529978  37.3220014  39.9029992   5.5309978  37.5590014
  38.5339992   4.9029978  37.7120014  39.0490087   5.5349608  37.4071410
  56.9859992   1.1859978  39.1990014  57.3349992   0.5319978  38.5940014
  57.1329992   2.0229978  38.7590014  57.0536824   1.2096024  39.0566304
  54.6749992   3.1499978  25.6820014  54.8569992   2.7009978  26.5070014
  54.0749992   2.5659978  25.2180014  54.6188187   3.0095552  25.7322739
  40.2049992   3.9659978  30.2140014  40.6499992   3.1739978  30.5160014
  40.6709992   4.6819978  30.6440014  40.3289718   3.9544534  30.3135265
  38.5089992   6.9649978  31.2830014  39.0009992   6.7439978  30.4920014
  38.8709992   7.8049978  31.5640014  38.6252923   7.0483468  31.2127407
  56.5049992   3.2949978  37.5480014  55.5879992   3.5659978  37.5130014
  56.6279992   2.7599978  36.7640014  56.3959672   3.2597885  37.4371862
  56.5419992   3.2179978  22.2100014  56.9539992   2.4969978  21.7350014
  57.2229992   3.8869978  22.2680014  56.6905536   3.2097766  22.1528024
  38.8229992   3.2229978  25.3370014  37.8979992   3.4309978  25.2080014
  39.2769992   3.7069978  24.6470014  38.7576298   3.3169299  25.2260451
  53.5929992  18.2069978  27.2830014  54.2459992  17.8589978  26.6750014
  54.1039992  18.6949978  27.9290014  53.7512777  18.2253815  27.2872047
  38.7859992   1.9609978  33.6810014  38.1209992   1.7149978  34.3240014
  38.3429992   2.5829978  33.1040014  38.6351168   2.0114214  33.6909848
  40.9779992  15.1359978  37.8260014  40.1569992  15.3109978  37.3650014
  40.7259992  15.0629978  38.7460014  40.8315594  15.1500717  37.8873611
  43.9319992  16.1099978  34.0840014  43.5079992  16.9199978  33.8020014
  44.8369992  16.1959978  33.7820014  43.9962138  16.2324160  34.0046415
  48.2439992  17.5089978  37.0440014  48.4279992  17.1759978  37.9220014
  49.0899992  17.8189978  36.7220014  48.3836484  17.5052979  37.1207617
  50.5889992  18.7949978  36.2880014  51.2659992  18.1619978  36.0480014
  50.9099992  19.1959978  37.0950014  50.7251323  18.7625691  36.3643158
  55.5059992   1.3849978  35.3670014  54.6929992   1.7099978  34.9800014
  55.7389992   0.6239978  34.8340014  55.4261347   1.3266880  35.2419841
  41.3339992  19.3669978  34.1320014  40.6139992  19.8069978  33.6810014
  40.9689992  19.1159978  34.9800014  41.1859643  19.3933369  34.1849129
  43.8009992  18.9669978  33.1620014  42.9369992  19.0389978  33.5660014
  43.7459992  19.5139978  32.3780014  43.6751942  19.0507849  33.1114000
  48.5119992  18.8549978  32.3370014  48.0549992  19.3839978  31.6830014
  48.6749992  19.4579978  33.0620014  48.4714960  19.0089280  32.3455274
  50.8399992  17.7329978  33.2820014  49.9349992  17.8979978  33.0160014
  51.2679992  18.5859978  33.2160014  50.7741537  17.8709134  33.2367095
  53.4439992  19.3029978  33.5770014  53.2619992  20.2189978  33.3660014
  53.6209992  18.8919978  32.7300014  53.4430030  19.3728273  33.4337166
  40.7489992  17.9899978  31.0420014  40.7309992  17.5639978  31.8990014
  41.5539992  17.6709978  30.6330014  40.8552875  17.8886435  31.1039515
  42.8899992  16.6999978  29.6970014  42.6709992  15.7829978  29.8670014
  43.7139992  16.8399978  30.1630014  42.9714702  16.5935511  29.7832527
  45.4269992  17.1699978  30.5460014  45.6399992  16.2819978  30.2590014
  45.4919992  17.1349978  31.5000014  45.4649149  17.0438326  30.6357369
  48.9359992   2.8339978  29.6900014  48.2619992   2.2039978  29.9460014
  49.4999992   2.3499978  29.0870014  48.9200384   2.6823708  29.6435020
  54.0789992   0.9409978  29.8030014  54.6819992   1.4889978  29.3010014
  53.2089992   1.2599978  29.5620014  54.0439157   1.0590373  29.7017910
  55.8059992   2.0799978  28.1360014  56.4169992   1.5659978  27.6090014
  56.1879992   2.9569978  28.1590014  55.9413305   2.1282050  28.0669418
  41.2629992   1.4679978  27.5120014  40.4859992   1.2329978  27.0050014
  41.7929992   0.6709978  27.5210014  41.2283451   1.3281268  27.4438627
  40.0989992   1.2659978  23.3160014  40.5379992   1.8769978  22.7240014
  39.4649992   1.8039978  23.7900014  40.0733859   1.4224064  23.2990305
  45.8419992   1.3939978  27.3250014  46.7159992   1.7829978  27.2960014
  45.7059992   1.1789978  28.2480014  45.9431953   1.4181643  27.4457617
  51.3989992   1.4239978  28.9750014  51.4749992   1.5199978  28.0250014
  51.1239992   0.5169978  29.1030014  51.3721871   1.3144146  28.8623944
  52.7519992   1.4499978  24.6670014  52.0489992   2.0649978  24.4570014
  52.3069992   0.6129978  24.7980014  52.5956550   1.4209668  24.6559837
  39.9999992  17.2139978  24.2130014  39.3149992  17.1759978  23.5460014
  40.0039992  18.1269978  24.5010014  39.9067621  17.3321924  24.1606126
  41.9599992   3.1819978  21.7580014  42.4509992   2.5519978  21.2310014
  42.5829992   3.4779978  22.4210014  42.1115304   3.1357376  21.7754940
  46.9859992   3.4749978  24.2150014  47.1639992   2.8279978  24.8980014
  46.9319992   4.3089978  24.6820014  47.0030678   3.4991604  24.3716301
  48.8639992  18.4229978  22.6110014  49.7299992  18.7899978  22.4330014
  48.6179992  17.9839978  21.7970014  48.9492097  18.4138525  22.4766019
  55.5729992  17.9859978  25.2900014  55.3789992  17.2379978  24.7250014
  55.5339992  18.7439978  24.7070014  55.5411645  17.9860786  25.1338148
  41.2199992   1.9819978  37.0300014  40.8539992   1.2159978  37.4720014
  42.1329992   2.0109978  37.3160014  41.2933172   1.8810324  37.1291890
  43.1929992   1.3319978  38.5650014  44.0919992   1.0579978  38.3810014
  42.8069992   0.5899978  39.0300014  43.2637307   1.1942196  38.6027098
  41.8179992  18.1339978  21.2380014  41.5499992  18.4199978  22.1120014
  42.5889992  17.5879978  21.3910014  41.8855926  18.0992779  21.3781205
  51.6149992   0.6649978  38.7480014  51.6909992   0.2389978  39.6010014
  52.5079992   0.6779978  38.4050014  51.7462303   0.6083493  38.8185497
  54.7909992  16.7379978  37.4400014  54.0089992  16.5509978  36.9200014
  54.7189992  17.6669978  37.6570014  54.6741924  16.8380637  37.3981602
  69.1969992  10.6239978  27.4710014  69.2859992  11.5679978  27.3390014
  68.5589992  10.3489978  26.8130014  69.1229061  10.7159812  27.3639641
  68.1299992   9.8789978  30.8900014  68.0919992   9.2329978  31.5950014
  67.8079992   9.4119978  30.1190014  68.0812679   9.7274276  30.8822921
  60.4979992   9.4929978  32.4830014  60.5399992   8.8679978  33.2060014
  61.2009992  10.1169978  32.6650014  60.5987345   9.4917873  32.6065274
  71.8359992  12.8179978  29.1910014  71.3949992  12.0979978  29.6420014
  71.8229992  13.5389978  29.8210014  71.7739215  12.8169291  29.3378105
  61.4219992  13.9429978  31.0180014  61.0519992  13.1409978  30.6480014
  62.3629992  13.7749978  31.0640014  61.4985984  13.8104638  30.9735603
  58.0319992   7.6029978  26.4100014  57.5839992   8.4489978  26.3920014
  57.4709992   7.0239978  25.8950014  57.8948546   7.6403993  26.3378891
  58.7419992   9.7649978  28.5360014  58.9559992   8.9949978  29.0640014
  59.4799992   9.8549978  27.9330014  58.8710200   9.6718587  28.5267035
  68.9479992  17.9219978  29.4030014  69.5669992  17.2459978  29.1300014
  68.7389992  17.7039978  30.3120014  69.0046056  17.7998869  29.4883967
  66.5189992  12.3109978  31.2960014  66.8229992  11.6249978  30.7010014
  67.2409992  12.4299978  31.9140014  66.6581240  12.2332314  31.2980959
  75.1819992   3.9129978  32.1560014  75.2319992   4.5229978  32.8920014
  75.6079992   4.3739978  31.4330014  75.2464108   4.0587709  32.1590112
  69.6599992   6.7049978  31.6230014  69.8029992   5.7589978  31.6430014
  69.5539992   6.9119978  30.6950014  69.6652403   6.6034797  31.5002239
  62.8149992   4.8069978  28.8960014  62.8579992   5.6669978  28.4770014
  62.3569992   4.2549978  28.2620014  62.7589871   4.8499245  28.7530761
  70.5369992   4.9379978  27.2970014  71.1839992   4.6089978  27.9210014
  71.0469992   5.4549978  26.6740014  70.6944351   4.9629067  27.2981037
  59.4349992   7.2039978  29.6580014  60.0889992   6.6539978  30.0900014
  59.4589992   6.9299978  28.7410014  59.5277199   7.0917167  29.5931668
  64.5919992   8.7539978  28.8730014  65.2079992   8.2269978  29.3820014
  64.0049992   8.1139978  28.4690014  64.5970154   8.5953954  28.8880945
  75.5739992   5.3909978  34.3920014  74.8849992   6.0489978  34.2970014
  75.5889992   5.1929978  35.3290014  75.4817756   5.4542603  34.5055812
  61.6249992   3.7249978  32.9700014  61.4059992   4.2549978  32.2030014
  60.9569992   3.9509978  33.6170014  61.5046975   3.8280967  32.9525140
  68.9939992  13.2249978  26.5140014  68.6989992  12.9019978  25.6620014
  68.6699992  14.1249978  26.5550014  68.9098460  13.3024464  26.4029714
  64.1939992  11.3999978  33.2570014  63.4539992  11.9989978  33.3610014
  64.9079992  11.9539978  32.9420014  64.1893500  11.5567829  33.2286371
  72.3009992   4.2289978  29.2770014  72.0859992   3.4629978  29.8100014
  72.9569992   4.7009978  29.7900014  72.3602673   4.1880728  29.4191990
  61.2189992   5.6169978  30.9220014  61.8329992   6.2499978  31.2950014
  61.7309992   5.1449978  30.2660014  61.3721962   5.6397249  30.8842935
  62.6019992  13.3649978  34.0440014  62.5959992  14.2439978  33.6660014
  61.7479992  13.2809978  34.4690014  62.4857925  13.4739535  34.0496887
  58.7229992  13.0359978  24.8260014  58.4509992  13.2649978  23.9380014
  58.7679992  13.8729978  25.2870014  58.6918097  13.1806163  24.7666683
  72.3479992  14.6569978  31.5390014  71.4059992  14.7159978  31.7010014
  72.6239992  15.5629978  31.4020014  72.2565865  14.7875288  31.5426192
  72.6479992   2.9439978  32.9560014  71.9119992   3.5539978  32.9190014
  73.3319992   3.3589978  32.4300014  72.6395367   3.0837551  32.8798174
  65.6519992   1.0299978  30.4220014  65.5339992   0.0819978  30.3680014
  64.7969992   1.3629978  30.6950014  65.5202805   0.9452202  30.4515079
  70.5999992  16.4379978  28.1640014  71.0249992  15.7309978  27.6790014
  70.9169992  17.2399978  27.7470014  70.7010266  16.4495190  28.0412479
  71.7599992  14.3389978  26.6730014  71.5019992  13.6489978  26.0610014
  71.8309992  13.8959978  27.5180014  71.7343050  14.1846814  26.7035621
  73.4459992  12.9059978  35.1500014  73.5849992  12.3139978  34.4110014
  73.6129992  13.7789978  34.7940014  73.4876193  12.9428896  35.0006211
  67.9179992   9.8679978  24.9230014  67.2069992  10.4029978  24.5710014
  68.6089992   9.9229978  24.2630014  67.9140751   9.9486777  24.7855858
  67.9719992   8.3249978  21.9610014  68.6729992   8.3479978  22.6130014
  68.2739992   7.6969978  21.3050014  68.1088202   8.2432212  21.9615609
  75.2869992   9.2459978  33.2160014  74.6349992   9.9399978  33.3050014
  75.7529992   9.4559978  32.4060014  75.2605937   9.3695019  33.1187533
  71.3239992  10.0769978  25.8740014  70.5919992  10.3059978  26.4480014
  71.7709992   9.3639978  26.3290014  71.2843963  10.0118729  26.0139945
  71.2209992   8.2519978  34.9420014  71.3009992   9.0149978  35.5140014
  70.6199992   8.5309978  34.2520014  71.1506547   8.3942457  34.9270047
  62.9689992  10.7079978  27.7570014  62.6389992  10.3369978  26.9390014
  63.5579992  10.0369978  28.1040014  63.0033970  10.5666063  27.6919404
  64.3359992  14.1359978  30.4380014  64.2409992  13.5569978  29.6820014
  65.0649992  13.7649978  30.9340014  64.4216011  14.0065561  30.4016028
  63.3359992   9.4759978  31.3900014  63.9009992   9.5979978  30.6280014
  63.6549992  10.1139978  32.0290014  63.4564166   9.5788791  31.3720348
  69.6449992  14.9799978  32.1240014  69.4049992  15.6419978  32.7720014
  69.4469992  14.1449978  32.5490014  69.5853826  14.9578115  32.2701566
  64.2159992  13.8759978  36.1080014  63.9049992  14.6579978  36.5630014
  63.5659992  13.7229978  35.4220014  64.0855538  13.9624087  36.0775898
  70.1949992   9.2399978  23.5600014  70.7739992   9.3899978  24.3060014
  70.6089992   9.7099978  22.8360014  70.3303358   9.3240954  23.5643953
  61.1359992  10.0739978  35.3360014  61.2059992  10.7249978  36.0350014
  60.2449992  10.1769978  35.0010014  61.0251690  10.1769249  35.3863043
  67.9209992  15.9759978  26.9950014  68.3949992  16.2719978  27.7720014
  67.3579992  16.7149978  26.7620014  67.9097890  16.1163036  27.0698101
  62.4549992  15.9469978  36.8710014  62.4629992  15.8109978  35.9240014
  61.5389992  15.8299978  37.1230014  62.3322528  15.9125463  36.7753243
  73.8939992   0.9899978  23.3730014  72.9939992   1.1289978  23.6680014
  74.1459992   1.8209978  22.9710014  73.8048683   1.1214055  23.3590232
  61.9599992   9.7769978  25.3460014  61.6679992  10.5449978  24.8550014
  61.2849992   9.1179978  25.1830014  61.8288497   9.7929745  25.2568260
  75.0829992  15.3559978  21.7490014  75.1559992  16.2949978  21.9190014
  75.9879992  15.0509978  21.6930014  75.2154170  15.4433282  21.7647063
  58.0529992  12.1399978  34.1610014  57.5509992  12.1119978  33.3460014
  58.0579992  11.2349978  34.4710014  57.9849832  12.0137486  34.0914121
  57.8029992  14.9209978  31.0450014  58.7489992  14.7759978  31.0260014
  57.6899992  15.7049978  31.5820014  57.9173578  15.0071697  31.1150317
  76.0009992  15.5869978  36.7280014  75.9509992  14.6309978  36.6900014
  75.1739992  15.8539978  37.1290014  75.8823831  15.4924680  36.7770121
  66.9789992  15.1609978  35.6040014  67.0669992  15.9869978  36.0790014
  66.1159992  14.8309978  35.8530014  66.8743357  15.2295468  35.7027653
  67.3939992  18.9329978  25.4100014  67.3179992  18.8119978  24.4630014
  67.4259992  19.8819978  25.5280014  67.3879380  19.0447677  25.2965181
  61.0469992  17.7219978  27.1910014  61.1989992  17.3739978  28.0690014
  60.1959992  17.3649978  26.9350014  60.9528344  17.6260879  27.2766868
  70.4949992  18.0869978  22.4120014  70.8699992  17.3429978  21.9410014
  70.4999992  17.8169978  23.3300014  70.5470098  17.9486392  22.4716629
  70.1639992  18.0129978  25.1610014  69.2289992  18.1129978  25.3400014
  70.4439992  17.3029978  25.7400014  70.0739471  17.9307933  25.2636695
  73.1529992   7.0799978  37.2080014  72.7449992   7.5599978  36.4870014
  73.1929992   6.1739978  36.9000014  73.1026221   7.0232449  37.0678267
  60.3019992  13.4639978  35.2040014  60.5179992  13.1019978  36.0640014
  59.4459992  13.0889978  34.9950014  60.2158810  13.3638837  35.2932680
  62.9199992   1.9339978  31.2000014  62.0589992   1.8469978  30.7920014
  62.8979992   2.7899978  31.6280014  62.7990491   2.0378003  31.2019582
  67.5829992   1.6559978  34.5750014  68.0029992   1.2409978  35.3280014
  66.6499992   1.4769978  34.6920014  67.5143736   1.5749910  34.6938968
  70.9099992   5.4109978  35.4280014  70.3959992   5.2859978  36.2260014
  70.7539992   6.3239978  35.1840014  70.8186967   5.5172123  35.5040937
  71.6719992  10.2719978  21.1890014  71.7139992  10.0499978  20.2590014
  72.5209992  10.6709978  21.3790014  71.7925253  10.2955498  21.0873822
  67.2449992   4.1479978  21.8600014  66.9909992   4.1669978  22.7820014
  66.9879992   3.2769978  21.5580014  67.1754508   4.0328280  21.9454803
  63.0109992   6.8989978  32.2950014  62.3699992   6.8589978  33.0040014
  63.0489992   7.8259978  32.0570014  62.9283010   7.0187668  32.3599946
  63.0079992   7.1199978  27.2070014  62.1159992   6.7799978  27.1480014
  63.4589992   6.7429978  26.4510014  62.9467642   7.0224910  27.0967726
  68.5439992   7.5359978  26.0240014  68.1349992   8.3509978  25.7320014
  69.2639992   7.3959978  25.4100014  68.5854439   7.6285372  25.9010115
  67.6459992   7.7119978  37.5120014  67.0829992   7.0069978  37.8330014
  68.4719992   7.5909978  37.9800014  67.6806674   7.5992165  37.6191751
  69.5489992   6.9819978  28.8380014  69.3529992   7.5879978  28.1230014
  69.7299992   6.1489978  28.4040014  69.5466584   6.9522513  28.6814212
  60.7609992   7.2199978  34.1620014  60.7229992   7.6199978  35.0310014
  60.2709992   6.4029978  34.2520014  60.6895330   7.1642674  34.2931289
  64.1269992   4.5939978  20.9610014  63.6959992   4.1489978  21.6900014
  63.4089992   4.9649978  20.4480014  63.9709176   4.5832051  20.9914930
  57.3699992   4.3359978  28.0130014  57.9999992   4.3069978  28.7320014
  57.8189992   3.9109978  27.2820014  57.5170835   4.2745660  28.0127659
  58.6439992   5.0819978  23.4370014  59.1179992   5.6729978  22.8520014
  57.9259992   5.6119978  23.7840014  58.6118640   5.2345511  23.4037969
  68.8129992   8.6199978  33.5090014  69.1359992   7.9889978  32.8660014
  68.3719992   8.0859978  34.1700014  68.7976379   8.4613468  33.5102582
  65.5899992   4.5479978  28.2930014  64.6789992   4.6049978  28.5820014
  66.0949992   4.4879978  29.1040014  65.5336873   4.5476826  28.4421207
  60.4179992   6.1769978  27.1200014  59.5289992   6.2759978  26.7800014
  60.7149992   5.3349978  26.7740014  60.3364177   6.0767687  27.0266940
  64.0709992   6.1769978  24.7770014  65.0029992   6.3059978  24.9550014
  63.8559992   6.8459978  24.1270014  64.1694472   6.2850806  24.7134891
  69.9949992   3.7829978  31.5580014  69.3179992   3.9139978  32.2210014
  69.5099992   3.6279978  30.7470014  69.8367405   3.7799947  31.5392170
  62.7449992   7.3709978  22.3430014  62.2029992   6.9919978  21.6520014
  63.5789992   7.5659978  21.9150014  62.7834390   7.3454079  22.1904392
  73.2829992  19.4539978  37.8340014  73.4819992  19.8779978  37.0000014
  73.9379992  19.7979978  38.4410014  73.3988522  19.5586301  37.8017852
  60.8809992  11.9279978  37.4420014  61.6129992  12.1829978  38.0040014
  60.0999992  12.1329978  37.9580014  60.8756526  11.9905450  37.5885176
  66.9099992   7.3349978  30.1800014  67.4739992   6.7889978  29.6330014
  66.7619992   6.8139978  30.9690014  66.9673037   7.1896787  30.2117229
  61.9119992   3.4719978  26.5990014  61.5949992   2.5689978  26.5630014
  62.6929992   3.4739978  26.0460014  61.9742431   3.3487797  26.5193102
  65.5359992   5.7239978  32.5940014  64.7009992   6.1779978  32.7050014
  66.0599992   5.9999978  33.3460014  65.4926072   5.8233948  32.7108136
  66.0809992  11.9369978  24.2790014  65.3359992  11.4289978  23.9570014
  65.9459992  11.9859978  25.2250014  65.9608963  11.8741731  24.3628826
  73.2309992  11.0699978  33.0660014  73.8719992  11.5259978  32.5220014
  72.3999992  11.1829978  32.6030014  73.2065287  11.1476921  32.9289887
  69.9779992   4.7509978  22.4780014  69.0399992   4.8619978  22.3270014
  70.2759992   5.6069978  22.7850014  69.8896318   4.8820158  22.4988145
  67.5999992  12.1209978  35.5160014  67.2539992  11.7389978  36.3230014
  67.3999992  13.0539978  35.5870014  67.5255987  12.1949002  35.6360461
  70.6969992   6.6179978  24.1390014  71.5889992   6.4799978  24.4580014
  70.7529992   7.4089978  23.6020014  70.8267325   6.7059918  24.1101217
  61.2049992  11.2319978  30.0490014  61.9499992  11.2289978  29.4470014
  61.2829992  10.4079978  30.5300014  61.3173365  11.1202384  30.0317430
  68.2059992  13.3949978  23.3040014  67.9109992  14.2219978  23.6860014
  67.5029992  12.7759978  23.5010014  68.0706379  13.4244171  23.3828654
  58.2129992   9.6919978  35.3640014  58.4359992   9.2739978  36.1950014
  57.6109992   9.0799978  34.9410014  58.1621513   9.5519606  35.4206740
  65.2299992   9.2089978  37.5770014  64.9339992   9.0439978  36.6810014
  66.1609992   8.9889978  37.5660014  65.3154401   9.1566879  37.4530206
  69.8499992  14.5829978  35.4660014  68.9499992  14.7659978  35.1990014
  69.8839992  14.8419978  36.3870014  69.7313748  14.6430554  35.5539164
  75.5819992   6.8269978  23.8340014  75.0269992   6.4309978  23.1610014
  75.6819992   7.7379978  23.5560014  75.5196816   6.8959505  23.7045033
  75.5449992  12.6279978  36.6710014  74.6939992  12.8659978  36.3030014
  76.1349992  12.6109978  35.9180014  75.5083812  12.6582524  36.5188453
  73.8769992  15.6129978  24.2990014  73.5039992  14.7879978  24.6080014
  74.1539992  15.4299978  23.4010014  73.8633463  15.4752569  24.2199525
  71.0369992  10.4209978  31.3200014  70.1089992  10.1899978  31.2930014
  71.4879992   9.6439978  30.9900014  70.9708165  10.2842774  31.2716790
  63.5799992  14.7499978  27.4530014  64.1079992  15.5229978  27.2530014
  62.6999992  14.9739978  27.1510014  63.5333435  14.8862700  27.3847310
  59.3349992   9.6119978  22.0400014  59.9509992  10.2389978  22.4200014
  58.4729992   9.9279978  22.3120014  59.3027678   9.7404412  22.1287209
  65.0079992  12.4129978  27.0290014  64.7669992  13.3379978  27.0710014
  64.2669992  11.9539978  27.4260014  64.8749206  12.4775915  27.0883769
  65.5219992  16.5619978  33.3440014  65.8849992  17.4159978  33.1110014
  66.0539992  16.2699978  34.0850014  65.6435141  16.6393895  33.4122097
  63.6909992  17.4339978  26.5750014  62.7409992  17.5399978  26.6260014
  64.0429992  18.2549978  26.9190014  63.6085472  17.5594923  26.6284852
  69.0659992  12.6609978  33.0450014  68.6409992  12.4329978  33.8710014
  69.6469992  11.9219978  32.8630014  69.0863395  12.5299545  33.1334414
  71.2689992  13.5899978  22.1190014  71.6229992  13.2099978  22.9230014
  70.3209992  13.4959978  22.2060014  71.1892298  13.5252452  22.2408687
  71.7249992  17.2129978  35.5140014  71.1229992  16.6569978  35.0190014
  72.0059992  17.8799978  34.8880014  71.6805757  17.2270744  35.3615675
  75.7729992  18.0689978  22.3200014  76.5169992  18.6549978  22.1800014
  75.0789992  18.6379978  22.6530014  75.7809809  18.2260818  22.3458590
  59.8469992   4.4459978  34.9220014  58.9549992   4.7839978  34.8540014
  59.7489992   3.5899978  35.3400014  59.7114475   4.3766543  34.9691704
  72.1349992  12.2619978  24.3460014  71.8579992  11.5339978  24.9020014
  73.0629992  12.3809978  24.5510014  72.2224499  12.1784213  24.4498044
  59.4989992  16.2499978  33.3570014  59.7159992  15.3179978  33.3260014
  59.7449992  16.5249978  34.2400014  59.5619809  16.1595686  33.4721691
  65.3599992  14.7019978  20.5660014  65.5989992  13.9529978  20.0190014
  65.0909992  14.3139978  21.3990014  65.3563233  14.5471853  20.6037809
  64.2969992  14.2719978  23.0220014  64.4439992  13.7519978  23.8120014
  64.2939992  15.1789978  23.3290014  64.3167102  14.3233953  23.1715925
  60.7499992  11.5239978  23.5330014  60.0639992  11.8769978  24.1000014
  61.2729992  12.2869978  23.2860014  60.7268402  11.6753901  23.5771801
  68.5819992   4.1869978  33.8120014  69.2809992   4.2609978  34.4620014
  68.2009992   3.3219978  33.9660014  68.6262097   4.0802389  33.9217997
  69.3659992   3.8389978  24.9090014  69.5859992   4.3099978  24.1050014
  69.9249992   4.2329978  25.5790014  69.4716731   3.9567287  24.8895033
  67.0349992  15.9689978  23.7720014  66.2179992  16.4659978  23.8240014
  67.5639992  16.4449978  23.1310014  66.9948125  16.1011989  23.6925306
  66.5659992   5.5669978  25.7440014  67.3779992   6.0709978  25.7900014
  66.3219992   5.4219978  26.6580014  66.6441467   5.6163749  25.8738575
  67.1019992   6.5529978  34.9280014  67.2209992   7.1269978  35.6850014
  67.7569992   5.8649978  35.0430014  67.2068684   6.5385194  35.0471674
  67.4499992   2.6479978  26.6820014  67.1029992   3.2649978  27.3260014
  68.1089992   3.1489978  26.2000014  67.4915090   2.8001575  26.7050681
  64.3729992  17.0129978  23.7530014  64.5339992  17.8129978  23.2530014
  64.1759992  17.3199978  24.6380014  64.3683906  17.1638678  23.8042333
  63.1079992   3.7109978  23.3690014  63.0239992   4.5989978  23.7160014
  63.9979992   3.4459978  23.6010014  63.2168163   3.7967179  23.4478596
  73.3059992   4.4599978  35.7630014  72.3899992   4.7219978  35.6760014
  73.6419992   4.4569978  34.8670014  73.2258499   4.4955163  35.6298766
  71.9089992   8.2099978  29.8590014  71.1109992   7.7949978  29.5310014
  72.3539992   7.5199978  30.3500014  71.8599684   8.0598628  29.8805227
  61.3659992  14.1379978  22.4290014  61.9579992  14.8379978  22.7060014
  61.8249992  13.7049978  21.7100014  61.5091652  14.1752675  22.3696533
  59.6819992   6.8029978  21.5450014  59.6369992   7.7419978  21.7240014
  58.7939992   6.5669978  21.2760014  59.5558166   6.8996687  21.5331524
  72.9949992  17.4659978  31.4810014  72.8389992  18.1449978  30.8240014
  73.9279992  17.5379978  31.6840014  73.0997387  17.5686390  31.4185342
  60.4899992   1.5839978  30.2190014  60.2609992   1.6429978  29.2910014
  60.0479992   0.7929978  30.5250014  60.3988801   1.4850540  30.1334729
  59.4209992  15.5249978  26.3790014  58.5879992  15.9969978  26.4060014
  59.9659992  16.0349978  25.7800014  59.3807857  15.6584791  26.3017142
  58.7089992  18.1369978  37.7090014  59.2489992  17.9209978  38.4690014
  58.2279992  17.3319978  37.5190014  58.7179219  17.9985156  37.7874282
  63.3059992  17.0569978  39.3290014  64.0739992  16.5979978  39.6700014
  63.2849992  16.8309978  38.3990014  63.4082135  16.9636668  39.2499491
  67.3979992  16.5649978  20.7050014  66.7539992  15.9339978  21.0260014
  68.1599992  16.0339978  20.4730014  67.4128058  16.4067902  20.7176038
  69.8829992  15.4369978  38.0580014  69.5319992  14.5799978  38.3020014
  70.6089992  15.5789978  38.6650014  69.9331895  15.3391351  38.1733770
  72.0029992  16.3819978  20.9380014  72.2859992  15.5869978  21.3910014
  72.7419992  16.6149978  20.3770014  72.1417096  16.3047049  20.9241104
  58.6159992  11.9479978  38.6630014  58.7599992  11.0459978  38.3770014
  57.8439992  12.2339978  38.1760014  58.5312733  11.8631798  38.5579532
  62.9569992  12.2909978  20.7960014  63.0219992  11.4969978  21.3260014
  63.6099992  12.1729978  20.1060014  63.0541605  12.1663430  20.7752997
  65.2709992  11.9169978  38.0960014  64.9429992  12.1879978  37.2390014
  65.4229992  10.9759978  38.0080014  65.2466412  11.8269046  37.9667822
  68.3099992  13.3379978  20.5320014  68.0409992  13.5189978  21.4320014
  68.1029992  12.4129978  20.4000014  68.2451191  13.2377119  20.6375524
  71.0059992  11.8329978  35.4790014  71.7509992  12.4219978  35.3600014
  70.2489992  12.4149978  35.5430014  71.0055470  11.9922128  35.4713799
  59.4489992   9.1479978  38.0830014  59.8569992   8.2909978  37.9620014
  59.1879992   9.1619978  39.0040014  59.4696016   9.0325119  38.1909192
  64.1069992  10.2639978  23.1020014  63.6469992   9.7799978  23.7870014
  64.3619992   9.5949978  22.4660014  64.0784856  10.1073669  23.1098397
  63.3959992   8.1569978  35.4580014  62.7769992   8.8309978  35.7380014
  63.7399992   8.4779978  34.6240014  63.3577123   8.2926887  35.3836388
  65.1779992   8.5069978  21.3640014  64.9969992   8.3519978  20.4370014
  66.1279992   8.6149978  21.4090014  65.2816566   8.5003669  21.2430929
  68.4149992  10.6279978  38.7350014  69.3689992  10.7119978  38.7080014
  68.2549992   9.9159978  39.3550014  68.5237182  10.5432842  38.8150733
  74.5679992  10.8609978  20.8100014  74.2939992  10.4369978  19.9970014
  74.6069992  11.7929978  20.5930014  74.5357716  10.9288827  20.6694286
  63.7349992   5.5119978  36.5400014  63.8849992   4.7829978  35.9380014
  63.7369992   6.2889978  35.9810014  63.7557967   5.5172708  36.3820541
  64.1479992   3.8809978  34.0330014  64.6829992   4.3329978  33.3810014
  63.2949992   3.7729978  33.6100014  64.1060374   3.9282665  33.8866710
  65.7289992   9.3209978  34.2720014  66.4799992   9.1649978  33.6990014
  65.3899992  10.1729978  33.9970014  65.7859587   9.4148138  34.1564078
  70.1449992   7.1359978  39.3010014  70.3369992   6.2049978  39.1890014
  71.0029992   7.5609978  39.2900014  70.2872182   7.0660070  39.2841862
  71.4619992   9.9249978  37.3780014  71.1799992  10.6339978  36.8000014
  72.4039992   9.8519978  37.2270014  71.5507921  10.0122193  37.2784225
  62.2139992   6.7099978  38.4510014  61.4459992   6.1769978  38.2410014
  62.8919992   6.3999978  37.8520014  62.2007235   6.5951754  38.3412413
  64.9529992   1.3379978  34.4640014  64.8549992   2.2839978  34.3590014
  64.2109992   0.9649978  33.9880014  64.8392534   1.4171773  34.3852600
  66.2169992   5.6589978  38.0280014  65.9819992   5.4399978  38.9290014
  65.4339992   5.4519978  37.5180014  66.0789095   5.6009892  38.0825353
  68.9329992   4.7869978  37.1030014  67.9849992   4.8189978  37.2350014
  69.2449992   4.1609978  37.7570014  68.8455293   4.7067923  37.2094148
  70.5669992   3.4209978  39.1080014  70.4699992   2.4689978  39.1030014
  70.2449992   3.6889978  39.9690014  70.5102468   3.3270884  39.2236210
  60.3939992   4.6299978  38.1560014  60.6059992   3.9239978  37.5460014
  60.2829992   4.1929978  39.0000014  60.4080269   4.4741921  38.1865873
  65.1749992   0.6319978  37.1350014  65.8869992  -0.0080022  37.1210014
  65.0739992   0.8979978  36.2220014  65.2587387   0.5804330  37.0095563
  65.5289992   2.3139978  39.1890014  65.3969992   1.8389978  38.3690014
  64.9289992   3.0589978  39.1340014  65.4299070   2.3495789  39.0693251
  65.0749992  19.1969978  22.3650014  66.0079992  19.3549978  22.5090014
  64.8109992  19.8729978  21.7400014  65.1669911  19.3099373  22.3002722
  58.6429992  13.8339978  21.8480014  59.5569992  13.9129978  22.1210014
  58.6509992  13.1469978  21.1820014  58.7690655  13.7519205  21.7952917
  57.2919992  19.2269978  26.9250014  56.6449992  18.7649978  26.3930014
  57.6469992  18.5549978  27.5080014  57.2513741  19.0729774  26.9309175
  58.1619992  17.3069978  28.7300014  57.8279992  16.4269978  28.9020014
  58.3849992  17.6529978  29.5950014  58.1463721  17.2331938  28.8704168
  75.7109992  18.1169978  31.7110014  75.6889992  18.3019978  32.6500014
  76.4009992  18.6849978  31.3700014  75.8013439  18.2191887  31.7934791
  75.2739992  17.6839978  34.6320014  74.7869992  16.9489978  34.2610014
  75.8229992  17.2899978  35.3100014  75.2815247  17.5301057  34.6728461
  73.7249992  13.4739978  39.2710014  72.8589992  13.3689978  39.6650014
  74.1009992  14.2319978  39.7170014  73.6573401  13.5621708  39.3852620
  75.0259992  11.7299978  24.7850014  75.8759992  12.1509978  24.9120014
  75.0309992  10.9899978  25.3920014  75.1431143  11.6876094  24.8844750
  75.4199992   9.7839978  26.6080014  74.6939992   9.3039978  27.0060014
  76.0019992   9.9889978  27.3410014  75.3992730   9.7460184  26.7614149
  75.1789992  12.5689978  31.5560014  76.0129992  12.1909978  31.2750014
  75.2909992  13.5119978  31.4370014  75.3081917  12.6447943  31.5014861
  73.6659992  15.4469978  33.8630014  73.0179992  15.7719978  34.4880014
  73.1479992  15.0059978  33.1890014  73.5074196  15.4318651  33.8574152
  75.6889992   9.6849978  22.9990014  75.1669992  10.0409978  22.2810014
  75.6559992  10.3599978  23.6780014  75.6130129   9.8249598  22.9923355
  74.0379992   6.9239978  21.5500014  74.1339992   7.5909978  20.8700014
  73.8979992   6.1089978  21.0690014  74.0322040   6.9050671  21.3918378
  73.2069992   8.3049978  27.1710014  73.0569992   7.3599978  27.1510014
  72.8529992   8.5859978  28.0150014  73.1386351   8.2136644  27.2823220
  58.2419992  10.3829978  31.1820014  58.4269992  10.3009978  30.2460014
  59.0919992  10.2589978  31.6050014  58.3820928  10.3550463  31.1112893
  74.0629992  10.2749978  36.8100014  74.6459992   9.5399978  37.0020014
  74.6269992  11.0469978  36.8570014  74.2189781  10.2788145  36.8426164
  75.5599992   8.1779978  37.4950014  74.6969992   7.7989978  37.3290014
  76.1639992   7.4389978  37.4200014  75.5236085   8.0263223  37.4621694
  73.2849992   4.3319978  20.6680014  73.8959992   3.9609978  21.3050014
  72.4479992   3.9109978  20.8640014  73.2554947   4.2242756  20.7817252
  72.9179992   5.8869978  25.6340014  73.1969992   4.9799978  25.7580014
  73.6769992   6.3209978  25.2450014  73.0588619   5.8214502  25.5983795
  73.5289992   6.4689978  31.0700014  74.4619992   6.6809978  31.0350014
  73.2939992   6.5699978  31.9920014  73.6249517   6.5116833  31.1899130
  73.5589992   7.2059978  33.8460014  72.7159992   7.4739978  34.2120014
  74.0009992   8.0279978  33.6350014  73.5034138   7.3538273  33.8675518
  57.8399992   5.6529978  37.3220014  58.7589992   5.5309978  37.5590014
  57.3899992   4.9029978  37.7120014  57.9050087   5.5349608  37.4071410
  75.8419992   1.1859978  39.1990014  76.1909992   0.5319978  38.5940014
  75.9889992   2.0229978  38.7590014  75.9096824   1.2096024  39.0566304
  73.5309992   3.1499978  25.6820014  73.7129992   2.7009978  26.5070014
  72.9309992   2.5659978  25.2180014  73.4748187   3.0095552  25.7322739
  59.0609992   3.9659978  30.2140014  59.5059992   3.1739978  30.5160014
  59.5269992   4.6819978  30.6440014  59.1849718   3.9544534  30.3135265
  57.3649992   6.9649978  31.2830014  57.8569992   6.7439978  30.4920014
  57.7269992   7.8049978  31.5640014  57.4812923   7.0483468  31.2127407
  75.3609992   3.2949978  37.5480014  74.4439992   3.5659978  37.5130014
  75.4839992   2.7599978  36.7640014  75.2519672   3.2597885  37.4371862
  75.3979992   3.2179978  22.2100014  75.8099992   2.4969978  21.7350014
  76.0789992   3.8869978  22.2680014  75.5465536   3.2097766  22.1528024
  57.6789992   3.2229978  25.3370014  56.7539992   3.4309978  25.2080014
  58.1329992   3.7069978  24.6470014  57.6136298   3.3169299  25.2260451
  72.4489992  18.2069978  27.2830014  73.1019992  17.8589978  26.6750014
  72.9599992  18.6949978  27.9290014  72.6072777  18.2253815  27.2872047
  57.6419992   1.9609978  33.6810014  56.9769992   1.7149978  34.3240014
  57.1989992   2.5829978  33.1040014  57.4911168   2.0114214  33.6909848
  59.8339992  15.1359978  37.8260014  59.0129992  15.3109978  37.3650014
  59.5819992  15.0629978  38.7460014  59.6875594  15.1500717  37.8873611
  62.7879992  16.1099978  34.0840014  62.3639992  16.9199978  33.8020014
  63.6929992  16.1959978  33.7820014  62.8522138  16.2324160  34.0046415
  67.0999992  17.5089978  37.0440014  67.2839992  17.1759978  37.9220014
  67.9459992  17.8189978  36.7220014  67.2396484  17.5052979  37.1207617
  69.4449992  18.7949978  36.2880014  70.1219992  18.1619978  36.0480014
  69.7659992  19.1959978  37.0950014  69.5811323  18.7625691  36.3643158
  74.3619992   1.3849978  35.3670014  73.5489992   1.7099978  34.9800014
  74.5949992   0.6239978  34.8340014  74.2821347   1.3266880  35.2419841
  60.1899992  19.3669978  34.1320014  59.4699992  19.8069978  33.6810014
  59.8249992  19.1159978  34.9800014  60.0419643  19.3933369  34.1849129
  62.6569992  18.9669978  33.1620014  61.7929992  19.0389978  33.5660014
  62.6019992  19.5139978  32.3780014  62.5311942  19.0507849  33.1114000
  67.3679992  18.8549978  32.3370014  66.9109992  19.3839978  31.6830014
  67.5309992  19.4579978  33.0620014  67.3274960  19.0089280  32.3455274
  69.6959992  17.7329978  33.2820014  68.7909992  17.8979978  33.0160014
  70.1239992  18.5859978  33.2160014  69.6301537  17.8709134  33.2367095
  72.2999992  19.3029978  33.5770014  72.1179992  20.2189978  33.3660014
  72.4769992  18.8919978  32.7300014  72.2990030  19.3728273  33.4337166
  59.6049992  17.9899978  31.0420014  59.5869992  17.5639978  31.8990014
  60.4099992  17.6709978  30.6330014  59.7112875  17.8886435  31.1039515
  61.7459992  16.6999978  29.6970014  61.5269992  15.7829978  29.8670014
  62.5699992  16.8399978  30.1630014  61.8274702  16.5935511  29.7832527
  64.2829992  17.1699978  30.5460014  64.4959992  16.2819978  30.2590014
  64.3479992  17.1349978  31.5000014  64.3209149  17.0438326  30.6357369
  67.7919992   2.8339978  29.6900014  67.1179992   2.2039978  29.9460014
  68.3559992   2.3499978  29.0870014  67.7760384   2.6823708  29.6435020
  72.9349992   0.9409978  29.8030014  73.5379992   1.4889978  29.3010014
  72.0649992   1.2599978  29.5620014  72.8999157   1.0590373  29.7017910
  74.6619992   2.0799978  28.1360014  75.2729992   1.5659978  27.6090014
  75.0439992   2.9569978  28.1590014  74.7973305   2.1282050  28.0669418
  60.1189992   1.4679978  27.5120014  59.3419992   1.2329978  27.0050014
  60.6489992   0.6709978  27.5210014  60.0843451   1.3281268  27.4438627
  58.9549992   1.2659978  23.3160014  59.3939992   1.8769978  22.7240014
  58.3209992   1.8039978  23.7900014  58.9293859   1.4224064  23.2990305
  64.6979992   1.3939978  27.3250014  65.5719992   1.7829978  27.2960014
  64.5619992   1.1789978  28.2480014  64.7991953   1.4181643  27.4457617
  70.2549992   1.4239978  28.9750014  70.3309992   1.5199978  28.0250014
  69.9799992   0.5169978  29.1030014  70.2281871   1.3144146  28.8623944
  71.6079992   1.4499978  24.6670014  70.9049992   2.0649978  24.4570014
  71.1629992   0.6129978  24.7980014  71.4516550   1.4209668  24.6559837
  58.8559992  17.2139978  24.2130014  58.1709992  17.1759978  23.5460014
  58.8599992  18.1269978  24.5010014  58.7627621  17.3321924  24.1606126
  60.8159992   3.1819978  21.7580014  61.3069992   2.5519978  21.2310014
  61.4389992   3.4779978  22.4210014  60.9675304   3.1357376  21.7754940
  65.8419992   3.4749978  24.2150014  66.0199992   2.8279978  24.8980014
  65.7879992   4.3089978  24.6820014  65.8590678   3.4991604  24.3716301
  67.7199992  18.4229978  22.6110014  68.5859992  18.7899978  22.4330014
  67.4739992  17.9839978  21.7970014  67.8052097  18.4138525  22.4766019
  74.4289992  17.9859978  25.2900014  74.2349992  17.2379978  24.7250014
  74.3899992  18.7439978  24.7070014  74.3971645  17.9860786  25.1338148
  60.0759992   1.9819978  37.0300014  59.7099992   1.2159978  37.4720014
  60.9889992   2.0109978  37.3160014  60.1493172   1.8810324  37.1291890
  62.0489992   1.3319978  38.5650014  62.9479992   1.0579978  38.3810014
  61.6629992   0.5899978  39.0300014  62.1197307   1.1942196  38.6027098
  60.6739992  18.1339978  21.2380014  60.4059992  18.4199978  22.1120014
  61.4449992  17.5879978  21.3910014  60.7415926  18.0992779  21.3781205
  70.4709992   0.6649978  38.7480014  70.5469992   0.2389978  39.6010014
  71.3639992   0.6779978  38.4050014  70.6022303   0.6083493  38.8185497
  73.6469992  16.7379978  37.4400014  72.8649992  16.5509978  36.9200014
  73.5749992  17.6669978  37.6570014  73.5301924  16.8380637  37.3981602
  88.0529992  10.6239978  27.4710014  88.1419992  11.5679978  27.3390014
  87.4149992  10.3489978  26.8130014  87.9789062  10.7159812  27.3639641
  86.9859992   9.8789978  30.8900014  86.9479992   9.2329978  31.5950014
  86.6639992   9.4119978  30.1190014  86.9372679   9.7274276  30.8822921
  79.3539992   9.4929978  32.4830014  79.3959992   8.8679978  33.2060014
  80.0569992  10.1169978  32.6650014  79.4547345   9.4917873  32.6065274
  90.6919992  12.8179978  29.1910014  90.2509992  12.0979978  29.6420014
  90.6789992  13.5389978  29.8210014  90.6299215  12.8169291  29.3378105
  80.2779992  13.9429978  31.0180014  79.9079992  13.1409978  30.6480014
  81.2189992  13.7749978  31.0640014  80.3545984  13.8104638  30.9735603
  76.8879992   7.6029978  26.4100014  76.4399992   8.4489978  26.3920014
  76.3269992   7.0239978  25.8950014  76.7508546   7.6403993  26.3378891
  77.5979992   9.7649978  28.5360014  77.8119992   8.9949978  29.0640014
  78.3359992   9.8549978  27.9330014  77.7270200   9.6718587  28.5267035
  87.8039992  17.9219978  29.4030014  88.4229992  17.2459978  29.1300014
  87.5949992  17.7039978  30.3120014  87.8606056  17.7998869  29.4883967
  85.3749992  12.3109978  31.2960014  85.6789992  11.6249978  30.7010014
  86.0969992  12.4299978  31.9140014  85.5141240  12.2332314  31.2980959
  94.0379992   3.9129978  32.1560014  94.0879992   4.5229978  32.8920014
  94.4639992   4.3739978  31.4330014  94.1024108   4.0587709  32.1590112
  88.5159992   6.7049978  31.6230014  88.6589992   5.7589978  31.6430014
  88.4099992   6.9119978  30.6950014  88.5212403   6.6034797  31.5002239
  81.6709992   4.8069978  28.8960014  81.7139992   5.6669978  28.4770014
  81.2129992   4.2549978  28.2620014  81.6149871   4.8499245  28.7530761
  89.3929992   4.9379978  27.2970014  90.0399992   4.6089978  27.9210014
  89.9029992   5.4549978  26.6740014  89.5504351   4.9629067  27.2981037
  78.2909992   7.2039978  29.6580014  78.9449992   6.6539978  30.0900014
  78.3149992   6.9299978  28.7410014  78.3837199   7.0917167  29.5931668
  83.4479992   8.7539978  28.8730014  84.0639992   8.2269978  29.3820014
  82.8609992   8.1139978  28.4690014  83.4530154   8.5953954  28.8880945
  94.4299992   5.3909978  34.3920014  93.7409992   6.0489978  34.2970014
  94.4449992   5.1929978  35.3290014  94.3377756   5.4542603  34.5055812
  80.4809992   3.7249978  32.9700014  80.2619992   4.2549978  32.2030014
  79.8129992   3.9509978  33.6170014  80.3606975   3.8280967  32.9525140
  87.8499992  13.2249978  26.5140014  87.5549992  12.9019978  25.6620014
  87.5259992  14.1249978  26.5550014  87.7658460  13.3024464  26.4029714
  83.0499992  11.3999978  33.2570014  82.3099992  11.9989978  33.3610014
  83.7639992  11.9539978  32.9420014  83.0453500  11.5567829  33.2286371
  91.1569992   4.2289978  29.2770014  90.9419992   3.4629978  29.8100014
  91.8129992   4.7009978  29.7900014  91.2162673   4.1880728  29.4191990
  80.0749992   5.6169978  30.9220014  80.6889992   6.2499978  31.2950014
  80.5869992   5.1449978  30.2660014  80.2281962   5.6397249  30.8842935
  81.4579992  13.3649978  34.0440014  81.4519992  14.2439978  33.6660014
  80.6039992  13.2809978  34.4690014  81.3417925  13.4739535  34.0496887
  77.5789992  13.0359978  24.8260014  77.3069992  13.2649978  23.9380014
  77.6239992  13.8729978  25.2870014  77.5478097  13.1806163  24.7666683
  91.2039992  14.6569978  31.5390014  90.2619992  14.7159978  31.7010014
  91.4799992  15.5629978  31.4020014  91.1125865  14.7875288  31.5426192
  91.5039992   2.9439978  32.9560014  90.7679992   3.5539978  32.9190014
  92.1879992   3.3589978  32.4300014  91.4955367   3.0837551  32.8798174
  84.5079992   1.0299978  30.4220014  84.3899992   0.0819978  30.3680014
  83.6529992   1.3629978  30.6950014  84.3762805   0.9452202  30.4515079
  89.4559992  16.4379978  28.1640014  89.8809992  15.7309978  27.6790014
  89.7729992  17.2399978  27.7470014  89.5570266  16.4495190  28.0412479
  90.6159992  14.3389978  26.6730014  90.3579992  13.6489978  26.0610014
  90.6869992  13.8959978  27.5180014  90.5903050  14.1846814  26.7035621
  92.3019992  12.9059978  35.1500014  92.4409992  12.3139978  34.4110014
  92.4689992  13.7789978  34.7940014  92.3436193  12.9428896  35.0006211
  86.7739992   9.8679978  24.9230014  86.0629992  10.4029978  24.5710014
  87.4649992   9.9229978  24.2630014  86.7700751   9.9486777  24.7855858
  86.8279992   8.3249978  21.9610014  87.5289992   8.3479978  22.6130014
  87.1299992   7.6969978  21.3050014  86.9648202   8.2432212  21.9615609
  94.1429992   9.2459978  33.2160014  93.4909992   9.9399978  33.3050014
  94.6089992   9.4559978  32.4060014  94.1165937   9.3695019  33.1187533
  90.1799992  10.0769978  25.8740014  89.4479992  10.3059978  26.4480014
  90.6269992   9.3639978  26.3290014  90.1403963  10.0118729  26.0139945
  90.0769992   8.2519978  34.9420014  90.1569992   9.0149978  35.5140014
  89.4759992   8.5309978  34.2520014  90.0066547   8.3942457  34.9270047
  81.8249992  10.7079978  27.7570014  81.4949992  10.3369978  26.9390014
  82.4139992  10.0369978  28.1040014  81.8593970  10.5666063  27.6919404
  83.1919992  14.1359978  30.4380014  83.0969992  13.5569978  29.6820014
  83.9209992  13.7649978  30.9340014  83.2776011  14.0065561  30.4016028
  82.1919992   9.4759978  31.3900014  82.7569992   9.5979978  30.6280014
  82.5109992  10.1139978  32.0290014  82.3124166   9.5788791  31.3720348
  88.5009992  14.9799978  32.1240014  88.2609992  15.6419978  32.7720014
  88.3029992  14.1449978  32.5490014  88.4413826  14.9578115  32.2701566
  83.0719992  13.8759978  36.1080014  82.7609992  14.6579978  36.5630014
  82.4219992  13.7229978  35.4220014  82.9415538  13.9624087  36.0775898
  89.0509992   9.2399978  23.5600014  89.6299992   9.3899978  24.3060014
  89.4649992   9.7099978  22.8360014  89.1863358   9.3240954  23.5643953
  79.9919992  10.0739978  35.3360014  80.0619992  10.7249978  36.0350014
  79.1009992  10.1769978  35.0010014  79.8811690  10.1769249  35.3863043
  86.7769992  15.9759978  26.9950014  87.2509992  16.2719978  27.7720014
  86.2139992  16.7149978  26.7620014  86.7657890  16.1163036  27.0698101
  81.3109992  15.9469978  36.8710014  81.3189992  15.8109978  35.9240014
  80.3949992  15.8299978  37.1230014  81.1882528  15.9125463  36.7753243
  92.7499992   0.9899978  23.3730014  91.8499992   1.1289978  23.6680014
  93.0019992   1.8209978  22.9710014  92.6608683   1.1214055  23.3590232
  80.8159992   9.7769978  25.3460014  80.5239992  10.5449978  24.8550014
  80.1409992   9.1179978  25.1830014  80.6848497   9.7929745  25.2568260
  93.9389992  15.3559978  21.7490014  94.0119992  16.2949978  21.9190014
  94.8439992  15.0509978  21.6930014  94.0714170  15.4433282  21.7647063
  76.9089992  12.1399978  34.1610014  76.4069992  12.1119978  33.3460014
  76.9139992  11.2349978  34.4710014  76.8409832  12.0137486  34.0914121
  76.6589992  14.9209978  31.0450014  77.6049992  14.7759978  31.0260014
  76.5459992  15.7049978  31.5820014  76.7733578  15.0071697  31.1150317
  94.8569992  15.5869978  36.7280014  94.8069992  14.6309978  36.6900014
  94.0299992  15.8539978  37.1290014  94.7383831  15.4924680  36.7770121
  85.8349992  15.1609978  35.6040014  85.9229992  15.9869978  36.0790014
  84.9719992  14.8309978  35.8530014  85.7303357  15.2295468  35.7027653
  86.2499992  18.9329978  25.4100014  86.1739992  18.8119978  24.4630014
  86.2819992  19.8819978  25.5280014  86.2439380  19.0447677  25.2965181
  79.9029992  17.7219978  27.1910014  80.0549992  17.3739978  28.0690014
  79.0519992  17.3649978  26.9350014  79.8088344  17.6260879  27.2766868
  89.3509992  18.0869978  22.4120014  89.7259992  17.3429978  21.9410014
  89.3559992  17.8169978  23.3300014  89.4030098  17.9486392  22.4716629
  89.0199992  18.0129978  25.1610014  88.0849992  18.1129978  25.3400014
  89.2999992  17.3029978  25.7400014  88.9299471  17.9307933  25.2636695
  92.0089992   7.0799978  37.2080014  91.6009992   7.5599978  36.4870014
  92.0489992   6.1739978  36.9000014  91.9586221   7.0232449  37.0678267
  79.1579992  13.4639978  35.2040014  79.3739992  13.1019978  36.0640014
  78.3019992  13.0889978  34.9950014  79.0718810  13.3638837  35.2932680
  81.7759992   1.9339978  31.2000014  80.9149992   1.8469978  30.7920014
  81.7539992   2.7899978  31.6280014  81.6550491   2.0378003  31.2019582
  86.4389992   1.6559978  34.5750014  86.8589992   1.2409978  35.3280014
  85.5059992   1.4769978  34.6920014  86.3703736   1.5749910  34.6938968
  89.7659992   5.4109978  35.4280014  89.2519992   5.2859978  36.2260014
  89.6099992   6.3239978  35.1840014  89.6746967   5.5172123  35.5040937
  90.5279992  10.2719978  21.1890014  90.5699992  10.0499978  20.2590014
  91.3769992  10.6709978  21.3790014  90.6485253  10.2955498  21.0873822
  86.1009992   4.1479978  21.8600014  85.8469992   4.1669978  22.7820014
  85.8439992   3.2769978  21.5580014  86.0314508   4.0328280  21.9454803
  81.8669992   6.8989978  32.2950014  81.2259992   6.8589978  33.0040014
  81.9049992   7.8259978  32.0570014  81.7843010   7.0187668  32.3599946
  81.8639992   7.1199978  27.2070014  80.9719992   6.7799978  27.1480014
  82.3149992   6.7429978  26.4510014  81.8027642   7.0224910  27.0967726
  87.3999992   7.5359978  26.0240014  86.9909992   8.3509978  25.7320014
  88.1199992   7.3959978  25.4100014  87.4414439   7.6285372  25.9010115
  86.5019992   7.7119978  37.5120014  85.9389992   7.0069978  37.8330014
  87.3279992   7.5909978  37.9800014  86.5366674   7.5992165  37.6191751
  88.4049992   6.9819978  28.8380014  88.2089992   7.5879978  28.1230014
  88.5859992   6.1489978  28.4040014  88.4026584   6.9522513  28.6814212
  79.6169992   7.2199978  34.1620014  79.5789992   7.6199978  35.0310014
  79.1269992   6.4029978  34.2520014  79.5455330   7.1642674  34.2931289
  82.9829992   4.5939978  20.9610014  82.5519992   4.1489978  21.6900014
  82.2649992   4.9649978  20.4480014  82.8269176   4.5832051  20.9914930
  76.2259992   4.3359978  28.0130014  76.8559992   4.3069978  28.7320014
  76.6749992   3.9109978  27.2820014  76.3730835   4.2745660  28.0127659
  77.4999992   5.0819978  23.4370014  77.9739992   5.6729978  22.8520014
  76.7819992   5.6119978  23.7840014  77.4678640   5.2345511  23.4037969
  87.6689992   8.6199978  33.5090014  87.9919992   7.9889978  32.8660014
  87.2279992   8.0859978  34.1700014  87.6536379   8.4613468  33.5102582
  84.4459992   4.5479978  28.2930014  83.5349992   4.6049978  28.5820014
  84.9509992   4.4879978  29.1040014  84.3896873   4.5476826  28.4421207
  79.2739992   6.1769978  27.1200014  78.3849992   6.2759978  26.7800014
  79.5709992   5.3349978  26.7740014  79.1924177   6.0767687  27.0266940
  82.9269992   6.1769978  24.7770014  83.8589992   6.3059978  24.9550014
  82.7119992   6.8459978  24.1270014  83.0254472   6.2850806  24.7134891
  88.8509992   3.7829978  31.5580014  88.1739992   3.9139978  32.2210014
  88.3659992   3.6279978  30.7470014  88.6927405   3.7799947  31.5392170
  81.6009992   7.3709978  22.3430014  81.0589992   6.9919978  21.6520014
  82.4349992   7.5659978  21.9150014  81.6394390   7.3454079  22.1904392
  92.1389992  19.4539978  37.8340014  92.3379992  19.8779978  37.0000014
  92.7939992  19.7979978  38.4410014  92.2548522  19.5586301  37.8017852
  79.7369992  11.9279978  37.4420014  80.4689992  12.1829978  38.0040014
  78.9559992  12.1329978  37.9580014  79.7316526  11.9905450  37.5885176
  85.7659992   7.3349978  30.1800014  86.3299992   6.7889978  29.6330014
  85.6179992   6.8139978  30.9690014  85.8233037   7.1896787  30.2117229
  80.7679992   3.4719978  26.5990014  80.4509992   2.5689978  26.5630014
  81.5489992   3.4739978  26.0460014  80.8302431   3.3487797  26.5193102
  84.3919992   5.7239978  32.5940014  83.5569992   6.1779978  32.7050014
  84.9159992   5.9999978  33.3460014  84.3486072   5.8233948  32.7108136
  84.9369992  11.9369978  24.2790014  84.1919992  11.4289978  23.9570014
  84.8019992  11.9859978  25.2250014  84.8168963  11.8741731  24.3628826
  92.0869992  11.0699978  33.0660014  92.7279992  11.5259978  32.5220014
  91.2559992  11.1829978  32.6030014  92.0625287  11.1476921  32.9289887
  88.8339992   4.7509978  22.4780014  87.8959992   4.8619978  22.3270014
  89.1319992   5.6069978  22.7850014  88.7456318   4.8820158  22.4988145
  86.4559992  12.1209978  35.5160014  86.1099992  11.7389978  36.3230014
  86.2559992  13.0539978  35.5870014  86.3815987  12.1949002  35.6360461
  89.5529992   6.6179978  24.1390014  90.4449992   6.4799978  24.4580014
  89.6089992   7.4089978  23.6020014  89.6827325   6.7059918  24.1101217
  80.0609992  11.2319978  30.0490014  80.8059992  11.2289978  29.4470014
  80.1389992  10.4079978  30.5300014  80.1733365  11.1202384  30.0317430
  87.0619992  13.3949978  23.3040014  86.7669992  14.2219978  23.6860014
  86.3589992  12.7759978  23.5010014  86.9266379  13.4244171  23.3828654
  77.0689992   9.6919978  35.3640014  77.2919992   9.2739978  36.1950014
  76.4669992   9.0799978  34.9410014  77.0181513   9.5519606  35.4206740
  84.0859992   9.2089978  37.5770014  83.7899992   9.0439978  36.6810014
  85.0169992   8.9889978  37.5660014  84.1714401   9.1566879  37.4530206
  88.7059992  14.5829978  35.4660014  87.8059992  14.7659978  35.1990014
  88.7399992  14.8419978  36.3870014  88.5873748  14.6430554  35.5539164
  94.4379992   6.8269978  23.8340014  93.8829992   6.4309978  23.1610014
  94.5379992   7.7379978  23.5560014  94.3756816   6.8959505  23.7045033
  94.4009992  12.6279978  36.6710014  93.5499992  12.8659978  36.3030014
  94.9909992  12.6109978  35.9180014  94.3643812  12.6582524  36.5188453
  92.7329992  15.6129978  24.2990014  92.3599992  14.7879978  24.6080014
  93.0099992  15.4299978  23.4010014  92.7193463  15.4752569  24.2199525
  89.8929992  10.4209978  31.3200014  88.9649992  10.1899978  31.2930014
  90.3439992   9.6439978  30.9900014  89.8268165  10.2842774  31.2716790
  82.4359992  14.7499978  27.4530014  82.9639992  15.5229978  27.2530014
  81.5559992  14.9739978  27.1510014  82.3893435  14.8862700  27.3847310
  78.1909992   9.6119978  22.0400014  78.8069992  10.2389978  22.4200014
  77.3289992   9.9279978  22.3120014  78.1587678   9.7404412  22.1287209
  83.8639992  12.4129978  27.0290014  83.6229992  13.3379978  27.0710014
  83.1229992  11.9539978  27.4260014  83.7309206  12.4775915  27.0883769
  84.3779992  16.5619978  33.3440014  84.7409992  17.4159978  33.1110014
  84.9099992  16.2699978  34.0850014  84.4995141  16.6393895  33.4122097
  82.5469992  17.4339978  26.5750014  81.5969992  17.5399978  26.6260014
  82.8989992  18.2549978  26.9190014  82.4645472  17.5594923  26.6284852
  87.9219992  12.6609978  33.0450014  87.4969992  12.4329978  33.8710014
  88.5029992  11.9219978  32.8630014  87.9423395  12.5299545  33.1334414
  90.1249992  13.5899978  22.1190014  90.4789992  13.2099978  22.9230014
  89.1769992  13.4959978  22.2060014  90.0452298  13.5252452  22.2408687
  90.5809992  17.2129978  35.5140014  89.9789992  16.6569978  35.0190014
  90.8619992  17.8799978  34.8880014  90.5365757  17.2270744  35.3615675
  94.6289992  18.0689978  22.3200014  95.3729992  18.6549978  22.1800014
  93.9349992  18.6379978  22.6530014  94.6369809  18.2260818  22.3458590
  78.7029992   4.4459978  34.9220014  77.8109992   4.7839978  34.8540014
  78.6049992   3.5899978  35.3400014  78.5674475   4.3766543  34.9691704
  90.9909992  12.2619978  24.3460014  90.7139992  11.5339978  24.9020014
  91.9189992  12.3809978  24.5510014  91.0784499  12.1784213  24.4498044
  78.3549992  16.2499978  33.3570014  78.5719992  15.3179978  33.3260014
  78.6009992  16.5249978  34.2400014  78.4179809  16.1595686  33.4721691
  84.2159992  14.7019978  20.5660014  84.4549992  13.9529978  20.0190014
  83.9469992  14.3139978  21.3990014  84.2123233  14.5471853  20.6037809
  83.1529992  14.2719978  23.0220014  83.2999992  13.7519978  23.8120014
  83.1499992  15.1789978  23.3290014  83.1727102  14.3233953  23.1715925
  79.6059992  11.5239978  23.5330014  78.9199992  11.8769978  24.1000014
  80.1289992  12.2869978  23.2860014  79.5828402  11.6753901  23.5771801
  87.4379992   4.1869978  33.8120014  88.1369992   4.2609978  34.4620014
  87.0569992   3.3219978  33.9660014  87.4822097   4.0802389  33.9217997
  88.2219992   3.8389978  24.9090014  88.4419992   4.3099978  24.1050014
  88.7809992   4.2329978  25.5790014  88.3276731   3.9567287  24.8895033
  85.8909992  15.9689978  23.7720014  85.0739992  16.4659978  23.8240014
  86.4199992  16.4449978  23.1310014  85.8508125  16.1011989  23.6925306
  85.4219992   5.5669978  25.7440014  86.2339992   6.0709978  25.7900014
  85.1779992   5.4219978  26.6580014  85.5001467   5.6163749  25.8738575
  85.9579992   6.5529978  34.9280014  86.0769992   7.1269978  35.6850014
  86.6129992   5.8649978  35.0430014  86.0628684   6.5385194  35.0471674
  86.3059992   2.6479978  26.6820014  85.9589992   3.2649978  27.3260014
  86.9649992   3.1489978  26.2000014  86.3475090   2.8001575  26.7050681
  83.2289992  17.0129978  23.7530014  83.3899992  17.8129978  23.2530014
  83.0319992  17.3199978  24.6380014  83.2243906  17.1638678  23.8042333
  81.9639992   3.7109978  23.3690014  81.8799992   4.5989978  23.7160014
  82.8539992   3.4459978  23.6010014  82.0728163   3.7967179  23.4478596
  92.1619992   4.4599978  35.7630014  91.2459992   4.7219978  35.6760014
  92.4979992   4.4569978  34.8670014  92.0818499   4.4955163  35.6298766
  90.7649992   8.2099978  29.8590014  89.9669992   7.7949978  29.5310014
  91.2099992   7.5199978  30.3500014  90.7159684   8.0598628  29.8805227
  80.2219992  14.1379978  22.4290014  80.8139992  14.8379978  22.7060014
  80.6809992  13.7049978  21.7100014  80.3651652  14.1752675  22.3696533
  78.5379992   6.8029978  21.5450014  78.4929992   7.7419978  21.7240014
  77.6499992   6.5669978  21.2760014  78.4118166   6.8996687  21.5331524
  91.8509992  17.4659978  31.4810014  91.6949992  18.1449978  30.8240014
  92.7839992  17.5379978  31.6840014  91.9557387  17.5686390  31.4185342
  79.3459992   1.5839978  30.2190014  79.1169992   1.6429978  29.2910014
  78.9039992   0.7929978  30.5250014  79.2548801   1.4850540  30.1334729
  78.2769992  15.5249978  26.3790014  77.4439992  15.9969978  26.4060014
  78.8219992  16.0349978  25.7800014  78.2367857  15.6584791  26.3017142
  77.5649992  18.1369978  37.7090014  78.1049992  17.9209978  38.4690014
  77.0839992  17.3319978  37.5190014  77.5739219  17.9985156  37.7874282
  82.1619992  17.0569978  39.3290014  82.9299992  16.5979978  39.6700014
  82.1409992  16.8309978  38.3990014  82.2642135  16.9636668  39.2499491
  86.2539992  16.5649978  20.7050014  85.6099992  15.9339978  21.0260014
  87.0159992  16.0339978  20.4730014  86.2688058  16.4067902  20.7176038
  88.7389992  15.4369978  38.0580014  88.3879992  14.5799978  38.3020014
  89.4649992  15.5789978  38.6650014  88.7891895  15.3391351  38.1733770
  90.8589992  16.3819978  20.9380014  91.1419992  15.5869978  21.3910014
  91.5979992  16.6149978  20.3770014  90.9977096  16.3047049  20.9241104
  77.4719992  11.9479978  38.6630014  77.6159992  11.0459978  38.3770014
  76.6999992  12.2339978  38.1760014  77.3872733  11.8631798  38.5579532
  81.8129992  12.2909978  20.7960014  81.8779992  11.4969978  21.3260014
  82.4659992  12.1729978  20.1060014  81.9101605  12.1663430  20.7752997
  84.1269992  11.9169978  38.0960014  83.7989992  12.1879978  37.2390014
  84.2789992  10.9759978  38.0080014  84.1026412  11.8269046  37.9667822
  87.1659992  13.3379978  20.5320014  86.8969992  13.5189978  21.4320014
  86.9589992  12.4129978  20.4000014  87.1011191  13.2377119  20.6375524
  89.8619992  11.8329978  35.4790014  90.6069992  12.4219978  35.3600014
  89.1049992  12.4149978  35.5430014  89.8615470  11.9922128  35.4713799
  78.3049992   9.1479978  38.0830014  78.7129992   8.2909978  37.9620014
  78.0439992   9.1619978  39.0040014  78.3256016   9.0325119  38.1909192
  82.9629992  10.2639978  23.1020014  82.5029992   9.7799978  23.7870014
  83.2179992   9.5949978  22.4660014  82.9344856  10.1073669  23.1098397
  82.2519992   8.1569978  35.4580014  81.6329992   8.8309978  35.7380014
  82.5959992   8.4779978  34.6240014  82.2137123   8.2926887  35.3836388
  84.0339992   8.5069978  21.3640014  83.8529992   8.3519978  20.4370014
  84.9839992   8.6149978  21.4090014  84.1376566   8.5003669  21.2430929
  87.2709992  10.6279978  38.7350014  88.2249992  10.7119978  38.7080014
  87.1109992   9.9159978  39.3550014  87.3797182  10.5432842  38.8150733
  93.4239992  10.8609978  20.8100014  93.1499992  10.4369978  19.9970014
  93.4629992  11.7929978  20.5930014  93.3917716  10.9288827  20.6694286
  82.5909992   5.5119978  36.5400014  82.7409992   4.7829978  35.9380014
  82.5929992   6.2889978  35.9810014  82.6117967   5.5172708  36.3820541
  83.0039992   3.8809978  34.0330014  83.5389992   4.3329978  33.3810014
  82.1509992   3.7729978  33.6100014  82.9620374   3.9282665  33.8866710
  84.5849992   9.3209978  34.2720014  85.3359992   9.1649978  33.6990014
  84.2459992  10.1729978  33.9970014  84.6419587   9.4148138  34.1564078
  89.0009992   7.1359978  39.3010014  89.1929992   6.2049978  39.1890014
  89.8589992   7.5609978  39.2900014  89.1432182   7.0660070  39.2841862
  90.3179992   9.9249978  37.3780014  90.0359992  10.6339978  36.8000014
  91.2599992   9.8519978  37.2270014  90.4067921  10.0122193  37.2784225
  81.0699992   6.7099978  38.4510014  80.3019992   6.1769978  38.2410014
  81.7479992   6.3999978  37.8520014  81.0567235   6.5951754  38.3412413
  83.8089992   1.3379978  34.4640014  83.7109992   2.2839978  34.3590014
  83.0669992   0.9649978  33.9880014  83.6952534   1.4171773  34.3852600
  85.0729992   5.6589978  38.0280014  84.8379992   5.4399978  38.9290014
  84.2899992   5.4519978  37.5180014  84.9349095   5.6009892  38.0825353
  87.7889992   4.7869978  37.1030014  86.8409992   4.8189978  37.2350014
  88.1009992   4.1609978  37.7570014  87.7015293   4.7067923  37.2094148
  89.4229992   3.4209978  39.1080014  89.3259992   2.4689978  39.1030014
  89.1009992   3.6889978  39.9690014  89.3662468   3.3270884  39.2236210
  79.2499992   4.6299978  38.1560014  79.4619992   3.9239978  37.5460014
  79.1389992   4.1929978  39.0000014  79.2640269   4.4741921  38.1865873
  84.0309992   0.6319978  37.1350014  84.7429992  -0.0080022  37.1210014
  83.9299992   0.8979978  36.2220014  84.1147387   0.5804330  37.0095563
  84.3849992   2.3139978  39.1890014  84.2529992   1.8389978  38.3690014
  83.7849992   3.0589978  39.1340014  84.2859070   2.3495789  39.0693251
  83.9309992  19.1969978  22.3650014  84.8639992  19.3549978  22.5090014
  83.6669992  19.8729978  21.7400014  84.0229911  19.3099373  22.3002722
  77.4989992  13.8339978  21.8480014  78.4129992  13.9129978  22.1210014
  77.5069992  13.1469978  21.1820014  77.6250655  13.7519205  21.7952917
  76.1479992  19.2269978  26.9250014  75.5009992  18.7649978  26.3930014
  76.5029992  18.5549978  27.5080014  76.1073741  19.0729774  26.9309175
  77.0179992  17.3069978  28.7300014  76.6839992  16.4269978  28.9020014
  77.2409992  17.6529978  29.5950014  77.0023721  17.2331938  28.8704168
  94.5669992  18.1169978  31.7110014  94.5449992  18.3019978  32.6500014
  95.2569992  18.6849978  31.3700014  94.6573439  18.2191887  31.7934791
  94.1299992  17.6839978  34.6320014  93.6429992  16.9489978  34.2610014
  94.6789992  17.2899978  35.3100014  94.1375247  17.5301057  34.6728461
  92.5809992  13.4739978  39.2710014  91.7149992  13.3689978  39.6650014
  92.9569992  14.2319978  39.7170014  92.5133401  13.5621708  39.3852620
  93.8819992  11.7299978  24.7850014  94.7319992  12.1509978  24.9120014
  93.8869992  10.9899978  25.3920014  93.9991143  11.6876094  24.8844750
  94.2759992   9.7839978  26.6080014  93.5499992   9.3039978  27.0060014
  94.8579992   9.9889978  27.3410014  94.2552730   9.7460184  26.7614149
  94.0349992  12.5689978  31.5560014  94.8689992  12.1909978  31.2750014
  94.1469992  13.5119978  31.4370014  94.1641917  12.6447943  31.5014861
  92.5219992  15.4469978  33.8630014  91.8739992  15.7719978  34.4880014
  92.0039992  15.0059978  33.1890014  92.3634196  15.4318651  33.8574152
  94.5449992   9.6849978  22.9990014  94.0229992  10.0409978  22.2810014
  94.5119992  10.3599978  23.6780014  94.4690129   9.8249598  22.9923355
  92.8939992   6.9239978  21.5500014  92.9899992   7.5909978  20.8700014
  92.7539992   6.1089978  21.0690014  92.8882040   6.9050671  21.3918378
  92.0629992   8.3049978  27.1710014  91.9129992   7.3599978  27.1510014
  91.7089992   8.5859978  28.0150014  91.9946351   8.2136644  27.2823220
  77.0979992  10.3829978  31.1820014  77.2829992  10.3009978  30.2460014
  77.9479992  10.2589978  31.6050014  77.2380928  10.3550463  31.1112893
  92.9189992  10.2749978  36.8100014  93.5019992   9.5399978  37.0020014
  93.4829992  11.0469978  36.8570014  93.0749781  10.2788145  36.8426164
  94.4159992   8.1779978  37.4950014  93.5529992   7.7989978  37.3290014
  95.0199992   7.4389978  37.4200014  94.3796085   8.0263223  37.4621695
  92.1409992   4.3319978  20.6680014  92.7519992   3.9609978  21.3050014
  91.3039992   3.9109978  20.8640014  92.1114947   4.2242756  20.7817252
  91.7739992   5.8869978  25.6340014  92.0529992   4.9799978  25.7580014
  92.5329992   6.3209978  25.2450014  91.9148619   5.8214502  25.5983795
  92.3849992   6.4689978  31.0700014  93.3179992   6.6809978  31.0350014
  92.1499992   6.5699978  31.9920014  92.4809517   6.5116833  31.1899130
  92.4149992   7.2059978  33.8460014  91.5719992   7.4739978  34.2120014
  92.8569992   8.0279978  33.6350014  92.3594138   7.3538273  33.8675518
  76.6959992   5.6529978  37.3220014  77.6149992   5.5309978  37.5590014
  76.2459992   4.9029978  37.7120014  76.7610087   5.5349608  37.4071410
  94.6979992   1.1859978  39.1990014  95.0469992   0.5319978  38.5940014
  94.8449992   2.0229978  38.7590014  94.7656824   1.2096024  39.0566304
  92.3869992   3.1499978  25.6820014  92.5689992   2.7009978  26.5070014
  91.7869992   2.5659978  25.2180014  92.3308187   3.0095552  25.7322739
  77.9169992   3.9659978  30.2140014  78.3619992   3.1739978  30.5160014
  78.3829992   4.6819978  30.6440014  78.0409718   3.9544534  30.3135265
  76.2209992   6.9649978  31.2830014  76.7129992   6.7439978  30.4920014
  76.5829992   7.8049978  31.5640014  76.3372923   7.0483468  31.2127407
  94.2169992   3.2949978  37.5480014  93.2999992   3.5659978  37.5130014
  94.3399992   2.7599978  36.7640014  94.1079672   3.2597885  37.4371862
  94.2539992   3.2179978  22.2100014  94.6659992   2.4969978  21.7350014
  94.9349992   3.8869978  22.2680014  94.4025536   3.2097766  22.1528024
  76.5349992   3.2229978  25.3370014  75.6099992   3.4309978  25.2080014
  76.9889992   3.7069978  24.6470014  76.4696298   3.3169299  25.2260451
  91.3049992  18.2069978  27.2830014  91.9579992  17.8589978  26.6750014
  91.8159992  18.6949978  27.9290014  91.4632777  18.2253815  27.2872047
  76.4979992   1.9609978  33.6810014  75.8329992   1.7149978  34.3240014
  76.0549992   2.5829978  33.1040014  76.3471168   2.0114214  33.6909848
  78.6899992  15.1359978  37.8260014  77.8689992  15.3109978  37.3650014
  78.4379992  15.0629978  38.7460014  78.5435594  15.1500717  37.8873611
  81.6439992  16.1099978  34.0840014  81.2199992  16.9199978  33.8020014
  82.5489992  16.1959978  33.7820014  81.7082138  16.2324160  34.0046415
  85.9559992  17.5089978  37.0440014  86.1399992  17.1759978  37.9220014
  86.8019992  17.8189978  36.7220014  86.0956484  17.5052979  37.1207617
  88.3009992  18.7949978  36.2880014  88.9779992  18.1619978  36.0480014
  88.6219992  19.1959978  37.0950014  88.4371323  18.7625691  36.3643158
  93.2179992   1.3849978  35.3670014  92.4049992   1.7099978  34.9800014
  93.4509992   0.6239978  34.8340014  93.1381347   1.3266880  35.2419841
  79.0459992  19.3669978  34.1320014  78.3259992  19.8069978  33.6810014
  78.6809992  19.1159978  34.9800014  78.8979643  19.3933369  34.1849129
  81.5129992  18.9669978  33.1620014  80.6489992  19.0389978  33.5660014
  81.4579992  19.5139978  32.3780014  81.3871942  19.0507849  33.1114000
  86.2239992  18.8549978  32.3370014  85.7669992  19.3839978  31.6830014
  86.3869992  19.4579978  33.0620014  86.1834960  19.0089280  32.3455274
  88.5519992  17.7329978  33.2820014  87.6469992  17.8979978  33.0160014
  88.9799992  18.5859978  33.2160014  88.4861537  17.8709134  33.2367095
  91.1559992  19.3029978  33.5770014  90.9739992  20.2189978  33.3660014
  91.3329992  18.8919978  32.7300014  91.1550030  19.3728273  33.4337166
  78.4609992  17.9899978  31.0420014  78.4429992  17.5639978  31.8990014
  79.2659992  17.6709978  30.6330014  78.5672875  17.8886435  31.1039515
  80.6019992  16.6999978  29.6970014  80.3829992  15.7829978  29.8670014
  81.4259992  16.8399978  30.1630014  80.6834702  16.5935511  29.7832527
  83.1389992  17.1699978  30.5460014  83.3519992  16.2819978  30.2590014
  83.2039992  17.1349978  31.5000014  83.1769149  17.0438326  30.6357369
  86.6479992   2.8339978  29.6900014  85.9739992   2.2039978  29.9460014
  87.2119992   2.3499978  29.0870014  86.6320384   2.6823708  29.6435020
  91.7909992   0.9409978  29.8030014  92.3939992   1.4889978  29.3010014
  90.9209992   1.2599978  29.5620014  91.7559157   1.0590373  29.7017910
  93.5179992   2.0799978  28.1360014  94.1289992   1.5659978  27.6090014
  93.8999992   2.9569978  28.1590014  93.6533305   2.1282050  28.0669418
  78.9749992   1.4679978  27.5120014  78.1979992   1.2329978  27.0050014
  79.5049992   0.6709978  27.5210014  78.9403451   1.3281268  27.4438627
  77.8109992   1.2659978  23.3160014  78.2499992   1.8769978  22.7240014
  77.1769992   1.8039978  23.7900014  77.7853859   1.4224064  23.2990305
  83.5539992   1.3939978  27.3250014  84.4279992   1.7829978  27.2960014
  83.4179992   1.1789978  28.2480014  83.6551953   1.4181643  27.4457617
  89.1109992   1.4239978  28.9750014  89.1869992   1.5199978  28.0250014
  88.8359992   0.5169978  29.1030014  89.0841871   1.3144146  28.8623944
  90.4639992   1.4499978  24.6670014  89.7609992   2.0649978  24.4570014
  90.0189992   0.6129978  24.7980014  90.3076550   1.4209668  24.6559837
  77.7119992  17.2139978  24.2130014  77.0269992  17.1759978  23.5460014
  77.7159992  18.1269978  24.5010014  77.6187621  17.3321924  24.1606126
  79.6719992   3.1819978  21.7580014  80.1629992   2.5519978  21.2310014
  80.2949992   3.4779978  22.4210014  79.8235304   3.1357376  21.7754940
  84.6979992   3.4749978  24.2150014  84.8759992   2.8279978  24.8980014
  84.6439992   4.3089978  24.6820014  84.7150678   3.4991604  24.3716301
  86.5759992  18.4229978  22.6110014  87.4419992  18.7899978  22.4330014
  86.3299992  17.9839978  21.7970014  86.6612097  18.4138525  22.4766019
  93.2849992  17.9859978  25.2900014  93.0909992  17.2379978  24.7250014
  93.2459992  18.7439978  24.7070014  93.2531645  17.9860786  25.1338148
  78.9319992   1.9819978  37.0300014  78.5659992   1.2159978  37.4720014
  79.8449992   2.0109978  37.3160014  79.0053172   1.8810324  37.1291890
  80.9049992   1.3319978  38.5650014  81.8039992   1.0579978  38.3810014
  80.5189992   0.5899978  39.0300014  80.9757307   1.1942196  38.6027098
  79.5299992  18.1339978  21.2380014  79.2619992  18.4199978  22.1120014
  80.3009992  17.5879978  21.3910014  79.5975926  18.0992779  21.3781205
  89.3269992   0.6649978  38.7480014  89.4029992   0.2389978  39.6010014
  90.2199992   0.6779978  38.4050014  89.4582303   0.6083493  38.8185497
  92.5029992  16.7379978  37.4400014  91.7209992  16.5509978  36.9200014
  92.4309992  17.6669978  37.6570014  92.3861924  16.8380637  37.3981602
 106.9089992  10.6239978  27.4710014 106.9979992  11.5679978  27.3390014
 106.2709992  10.3489978  26.8130014 106.8349062  10.7159812  27.3639641
 105.8419992   9.8789978  30.8900014 105.8039992   9.2329978  31.5950014
 105.5199992   9.4119978  30.1190014 105.7932679   9.7274276  30.8822921
  98.2099992   9.4929978  32.4830014  98.2519992   8.8679978  33.2060014
  98.9129992  10.1169978  32.6650014  98.3107345   9.4917873  32.6065274
 109.5479992  12.8179978  29.1910014 109.1069992  12.0979978  29.6420014
 109.5349992  13.5389978  29.8210014 109.4859215  12.8169291  29.3378105
  99.1339992  13.9429978  31.0180014  98.7639992  13.1409978  30.6480014
 100.0749992  13.7749978  31.0640014  99.2105984  13.8104638  30.9735603
  95.7439992   7.6029978  26.4100014  95.2959992   8.4489978  26.3920014
  95.1829992   7.0239978  25.8950014  95.6068546   7.6403993  26.3378891
  96.4539992   9.7649978  28.5360014  96.6679992   8.9949978  29.0640014
  97.1919992   9.8549978  27.9330014  96.5830200   9.6718587  28.5267035
 106.6599992  17.9219978  29.4030014 107.2789992  17.2459978  29.1300014
 106.4509992  17.7039978  30.3120014 106.7166056  17.7998869  29.4883967
 104.2309992  12.3109978  31.2960014 104.5349992  11.6249978  30.7010014
 104.9529992  12.4299978  31.9140014 104.3701240  12.2332314  31.2980959
 112.8939992   3.9129978  32.1560014 112.9439992   4.5229978  32.8920014
 113.3199992   4.3739978  31.4330014 112.9584108   4.0587709  32.1590112
 107.3719992   6.7049978  31.6230014 107.5149992   5.7589978  31.6430014
 107.2659992   6.9119978  30.6950014 107.3772403   6.6034797  31.5002239
 100.5269992   4.8069978  28.8960014 100.5699992   5.6669978  28.4770014
 100.0689992   4.2549978  28.2620014 100.4709871   4.8499245  28.7530761
 108.2489992   4.9379978  27.2970014 108.8959992   4.6089978  27.9210014
 108.7589992   5.4549978  26.6740014 108.4064351   4.9629067  27.2981037
  97.1469992   7.2039978  29.6580014  97.8009992   6.6539978  30.0900014
  97.1709992   6.9299978  28.7410014  97.2397199   7.0917167  29.5931668
 102.3039992   8.7539978  28.8730014 102.9199992   8.2269978  29.3820014
 101.7169992   8.1139978  28.4690014 102.3090154   8.5953954  28.8880945
 113.2859992   5.3909978  34.3920014 112.5969992   6.0489978  34.2970014
 113.3009992   5.1929978  35.3290014 113.1937756   5.4542603  34.5055812
  99.3369992   3.7249978  32.9700014  99.1179992   4.2549978  32.2030014
  98.6689992   3.9509978  33.6170014  99.2166975   3.8280967  32.9525140
 106.7059992  13.2249978  26.5140014 106.4109992  12.9019978  25.6620014
 106.3819992  14.1249978  26.5550014 106.6218460  13.3024464  26.4029714
 101.9059992  11.3999978  33.2570014 101.1659992  11.9989978  33.3610014
 102.6199992  11.9539978  32.9420014 101.9013500  11.5567829  33.2286371
 110.0129992   4.2289978  29.2770014 109.7979992   3.4629978  29.8100014
 110.6689992   4.7009978  29.7900014 110.0722673   4.1880728  29.4191990
  98.9309992   5.6169978  30.9220014  99.5449992   6.2499978  31.2950014
  99.4429992   5.1449978  30.2660014  99.0841962   5.6397249  30.8842935
 100.3139992  13.3649978  34.0440014 100.3079992  14.2439978  33.6660014
  99.4599992  13.2809978  34.4690014 100.1977925  13.4739535  34.0496887
  96.4349992  13.0359978  24.8260014  96.1629992  13.2649978  23.9380014
  96.4799992  13.8729978  25.2870014  96.4038097  13.1806163  24.7666683
 110.0599992  14.6569978  31.5390014 109.1179992  14.7159978  31.7010014
 110.3359992  15.5629978  31.4020014 109.9685865  14.7875288  31.5426192
 110.3599992   2.9439978  32.9560014 109.6239992   3.5539978  32.9190014
 111.0439992   3.3589978  32.4300014 110.3515367   3.0837551  32.8798174
 103.3639992   1.0299978  30.4220014 103.2459992   0.0819978  30.3680014
 102.5089992   1.3629978  30.6950014 103.2322805   0.9452202  30.4515079
 108.3119992  16.4379978  28.1640014 108.7369992  15.7309978  27.6790014
 108.6289992  17.2399978  27.7470014 108.4130266  16.4495190  28.0412479
 109.4719992  14.3389978  26.6730014 109.2139992  13.6489978  26.0610014
 109.5429992  13.8959978  27.5180014 109.4463050  14.1846814  26.7035621
 111.1579992  12.9059978  35.1500014 111.2969992  12.3139978  34.4110014
 111.3249992  13.7789978  34.7940014 111.1996193  12.9428896  35.0006211
 105.6299992   9.8679978  24.9230014 104.9189992  10.4029978  24.5710014
 106.3209992   9.9229978  24.2630014 105.6260751   9.9486777  24.7855858
 105.6839992   8.3249978  21.9610014 106.3849992   8.3479978  22.6130014
 105.9859992   7.6969978  21.3050014 105.8208202   8.2432212  21.9615609
 112.9989992   9.2459978  33.2160014 112.3469992   9.9399978  33.3050014
 113.4649992   9.4559978  32.4060014 112.9725937   9.3695019  33.1187533
 109.0359992  10.0769978  25.8740014 108.3039992  10.3059978  26.4480014
 109.4829992   9.3639978  26.3290014 108.9963963  10.0118729  26.0139945
 108.9329992   8.2519978  34.9420014 109.0129992   9.0149978  35.5140014
 108.3319992   8.5309978  34.2520014 108.8626547   8.3942457  34.9270047
 100.6809992  10.7079978  27.7570014 100.3509992  10.3369978  26.9390014
 101.2699992  10.0369978  28.1040014 100.7153970  10.5666063  27.6919404
 102.0479992  14.1359978  30.4380014 101.9529992  13.5569978  29.6820014
 102.7769992  13.7649978  30.9340014 102.1336011  14.0065561  30.4016028
 101.0479992   9.4759978  31.3900014 101.6129992   9.5979978  30.6280014
 101.3669992  10.1139978  32.0290014 101.1684166   9.5788791  31.3720348
 107.3569992  14.9799978  32.1240014 107.1169992  15.6419978  32.7720014
 107.1589992  14.1449978  32.5490014 107.2973826  14.9578115  32.2701566
 101.9279992  13.8759978  36.1080014 101.6169992  14.6579978  36.5630014
 101.2779992  13.7229978  35.4220014 101.7975538  13.9624087  36.0775898
 107.9069992   9.2399978  23.5600014 108.4859992   9.3899978  24.3060014
 108.3209992   9.7099978  22.8360014 108.0423358   9.3240955  23.5643953
  98.8479992  10.0739978  35.3360014  98.9179992  10.7249978  36.0350014
  97.9569992  10.1769978  35.0010014  98.7371690  10.1769249  35.3863043
 105.6329992  15.9759978  26.9950014 106.1069992  16.2719978  27.7720014
 105.0699992  16.7149978  26.7620014 105.6217890  16.1163036  27.0698101
 100.1669992  15.9469978  36.8710014 100.1749992  15.8109978  35.9240014
  99.2509992  15.8299978  37.1230014 100.0442528  15.9125463  36.7753243
 111.6059992   0.9899978  23.3730014 110.7059992   1.1289978  23.6680014
 111.8579992   1.8209978  22.9710014 111.5168683   1.1214055  23.3590232
  99.6719992   9.7769978  25.3460014  99.3799992  10.5449978  24.8550014
  98.9969992   9.1179978  25.1830014  99.5408497   9.7929745  25.2568260
 112.7949992  15.3559978  21.7490014 112.8679992  16.2949978  21.9190014
 113.6999992  15.0509978  21.6930014 112.9274170  15.4433282  21.7647063
  95.7649992  12.1399978  34.1610014  95.2629992  12.1119978  33.3460014
  95.7699992  11.2349978  34.4710014  95.6969832  12.0137486  34.0914121
  95.5149992  14.9209978  31.0450014  96.4609992  14.7759978  31.0260014
  95.4019992  15.7049978  31.5820014  95.6293578  15.0071697  31.1150317
 113.7129992  15.5869978  36.7280014 113.6629992  14.6309978  36.6900014
 112.8859992  15.8539978  37.1290014 113.5943831  15.4924680  36.7770121
 104.6909992  15.1609978  35.6040014 104.7789992  15.9869978  36.0790014
 103.8279992  14.8309978  35.8530014 104.5863357  15.2295468  35.7027653
 105.1059992  18.9329978  25.4100014 105.0299992  18.8119978  24.4630014
 105.1379992  19.8819978  25.5280014 105.0999380  19.0447677  25.2965181
  98.7589992  17.7219978  27.1910014  98.9109992  17.3739978  28.0690014
  97.9079992  17.3649978  26.9350014  98.6648344  17.6260879  27.2766868
 108.2069992  18.0869978  22.4120014 108.5819992  17.3429978  21.9410014
 108.2119992  17.8169978  23.3300014 108.2590098  17.9486392  22.4716629
 107.8759992  18.0129978  25.1610014 106.9409992  18.1129978  25.3400014
 108.1559992  17.3029978  25.7400014 107.7859471  17.9307933  25.2636695
 110.8649992   7.0799978  37.2080014 110.4569992   7.5599978  36.4870014
 110.9049992   6.1739978  36.9000014 110.8146221   7.0232449  37.0678267
  98.0139992  13.4639978  35.2040014  98.2299992  13.1019978  36.0640014
  97.1579992  13.0889978  34.9950014  97.9278810  13.3638837  35.2932680
 100.6319992   1.9339978  31.2000014  99.7709992   1.8469978  30.7920014
 100.6099992   2.7899978  31.6280014 100.5110491   2.0378003  31.2019582
 105.2949992   1.6559978  34.5750014 105.7149992   1.2409978  35.3280014
 104.3619992   1.4769978  34.6920014 105.2263736   1.5749910  34.6938968
 108.6219992   5.4109978  35.4280014 108.1079992   5.2859978  36.2260014
 108.4659992   6.3239978  35.1840014 108.5306967   5.5172123  35.5040937
 109.3839992  10.2719978  21.1890014 109.4259992  10.0499978  20.2590014
 110.2329992  10.6709978  21.3790014 109.5045253  10.2955498  21.0873822
 104.9569992   4.1479978  21.8600014 104.7029992   4.1669978  22.7820014
 104.6999992   3.2769978  21.5580014 104.8874508   4.0328280  21.9454803
 100.7229992   6.8989978  32.2950014 100.0819992   6.8589978  33.0040014
 100.7609992   7.8259978  32.0570014 100.6403010   7.0187668  32.3599946
 100.7199992   7.1199978  27.2070014  99.8279992   6.7799978  27.1480014
 101.1709992   6.7429978  26.4510014 100.6587642   7.0224910  27.0967726
 106.2559992   7.5359978  26.0240014 105.8469992   8.3509978  25.7320014
 106.9759992   7.3959978  25.4100014 106.2974439   7.6285372  25.9010115
 105.3579992   7.7119978  37.5120014 104.7949992   7.0069978  37.8330014
 106.1839992   7.5909978  37.9800014 105.3926674   7.5992165  37.6191751
 107.2609992   6.9819978  28.8380014 107.0649992   7.5879978  28.1230014
 107.4419992   6.1489978  28.4040014 107.2586584   6.9522513  28.6814212
  98.4729992   7.2199978  34.1620014  98.4349992   7.6199978  35.0310014
  97.9829992   6.4029978  34.2520014  98.4015330   7.1642674  34.2931289
 101.8389992   4.5939978  20.9610014 101.4079992   4.1489978  21.6900014
 101.1209992   4.9649978  20.4480014 101.6829176   4.5832051  20.9914930
  95.0819992   4.3359978  28.0130014  95.7119992   4.3069978  28.7320014
  95.5309992   3.9109978  27.2820014  95.2290835   4.2745660  28.0127659
  96.3559992   5.0819978  23.4370014  96.8299992   5.6729978  22.8520014
  95.6379992   5.6119978  23.7840014  96.3238640   5.2345511  23.4037969
 106.5249992   8.6199978  33.5090014 106.8479992   7.9889978  32.8660014
 106.0839992   8.0859978  34.1700014 106.5096379   8.4613468  33.5102582
 103.3019992   4.5479978  28.2930014 102.3909992   4.6049978  28.5820014
 103.8069992   4.4879978  29.1040014 103.2456873   4.5476826  28.4421207
  98.1299992   6.1769978  27.1200014  97.2409992   6.2759978  26.7800014
  98.4269992   5.3349978  26.7740014  98.0484177   6.0767687  27.0266940
 101.7829992   6.1769978  24.7770014 102.7149992   6.3059978  24.9550014
 101.5679992   6.8459978  24.1270014 101.8814472   6.2850806  24.7134891
 107.7069992   3.7829978  31.5580014 107.0299992   3.9139978  32.2210014
 107.2219992   3.6279978  30.7470014 107.5487405   3.7799947  31.5392170
 100.4569992   7.3709978  22.3430014  99.9149992   6.9919978  21.6520014
 101.2909992   7.5659978  21.9150014 100.4954390   7.3454079  22.1904392
 110.9949992  19.4539978  37.8340014 111.1939992  19.8779978  37.0000014
 111.6499992  19.7979978  38.4410014 111.1108522  19.5586301  37.8017852
  98.5929992  11.9279978  37.4420014  99.3249992  12.1829978  38.0040014
  97.8119992  12.1329978  37.9580014  98.5876526  11.9905450  37.5885176
 104.6219992   7.3349978  30.1800014 105.1859992   6.7889978  29.6330014
 104.4739992   6.8139978  30.9690014 104.6793037   7.1896787  30.2117229
  99.6239992   3.4719978  26.5990014  99.3069992   2.5689978  26.5630014
 100.4049992   3.4739978  26.0460014  99.6862431   3.3487797  26.5193102
 103.2479992   5.7239978  32.5940014 102.4129992   6.1779978  32.7050014
 103.7719992   5.9999978  33.3460014 103.2046072   5.8233948  32.7108136
 103.7929992  11.9369978  24.2790014 103.0479992  11.4289978  23.9570014
 103.6579992  11.9859978  25.2250014 103.6728963  11.8741731  24.3628826
 110.9429992  11.0699978  33.0660014 111.5839992  11.5259978  32.5220014
 110.1119992  11.1829978  32.6030014 110.9185287  11.1476921  32.9289887
 107.6899992   4.7509978  22.4780014 106.7519992   4.8619978  22.3270014
 107.9879992   5.6069978  22.7850014 107.6016318   4.8820158  22.4988145
 105.3119992  12.1209978  35.5160014 104.9659992  11.7389978  36.3230014
 105.1119992  13.0539978  35.5870014 105.2375987  12.1949002  35.6360461
 108.4089992   6.6179978  24.1390014 109.3009992   6.4799978  24.4580014
 108.4649992   7.4089978  23.6020014 108.5387325   6.7059918  24.1101217
  98.9169992  11.2319978  30.0490014  99.6619992  11.2289978  29.4470014
  98.9949992  10.4079978  30.5300014  99.0293365  11.1202384  30.0317430
 105.9179992  13.3949978  23.3040014 105.6229992  14.2219978  23.6860014
 105.2149992  12.7759978  23.5010014 105.7826379  13.4244171  23.3828654
  95.9249992   9.6919978  35.3640014  96.1479992   9.2739978  36.1950014
  95.3229992   9.0799978  34.9410014  95.8741513   9.5519606  35.4206740
 102.9419992   9.2089978  37.5770014 102.6459992   9.0439978  36.6810014
 103.8729992   8.9889978  37.5660014 103.0274401   9.1566879  37.4530206
 107.5619992  14.5829978  35.4660014 106.6619992  14.7659978  35.1990014
 107.5959992  14.8419978  36.3870014 107.4433748  14.6430554  35.5539164
 113.2939992   6.8269978  23.8340014 112.7389992   6.4309978  23.1610014
 113.3939992   7.7379978  23.5560014 113.2316816   6.8959505  23.7045033
 113.2569992  12.6279978  36.6710014 112.4059992  12.8659978  36.3030014
 113.8469992  12.6109978  35.9180014 113.2203812  12.6582524  36.5188453
 111.5889992  15.6129978  24.2990014 111.2159992  14.7879978  24.6080014
 111.8659992  15.4299978  23.4010014 111.5753463  15.4752569  24.2199525
 108.7489992  10.4209978  31.3200014 107.8209992  10.1899978  31.2930014
 109.1999992   9.6439978  30.9900014 108.6828165  10.2842774  31.2716790
 101.2919992  14.7499978  27.4530014 101.8199992  15.5229978  27.2530014
 100.4119992  14.9739978  27.1510014 101.2453435  14.8862700  27.3847310
  97.0469992   9.6119978  22.0400014  97.6629992  10.2389978  22.4200014
  96.1849992   9.9279978  22.3120014  97.0147678   9.7404412  22.1287209
 102.7199992  12.4129978  27.0290014 102.4789992  13.3379978  27.0710014
 101.9789992  11.9539978  27.4260014 102.5869206  12.4775915  27.0883769
 103.2339992  16.5619978  33.3440014 103.5969992  17.4159978  33.1110014
 103.7659992  16.2699978  34.0850014 103.3555141  16.6393895  33.4122097
 101.4029992  17.4339978  26.5750014 100.4529992  17.5399978  26.6260014
 101.7549992  18.2549978  26.9190014 101.3205472  17.5594923  26.6284852
 106.7779992  12.6609978  33.0450014 106.3529992  12.4329978  33.8710014
 107.3589992  11.9219978  32.8630014 106.7983395  12.5299545  33.1334414
 108.9809992  13.5899978  22.1190014 109.3349992  13.2099978  22.9230014
 108.0329992  13.4959978  22.2060014 108.9012298  13.5252452  22.2408687
 109.4369992  17.2129978  35.5140014 108.8349992  16.6569978  35.0190014
 109.7179992  17.8799978  34.8880014 109.3925757  17.2270744  35.3615675
 113.4849992  18.0689978  22.3200014 114.2289992  18.6549978  22.1800014
 112.7909992  18.6379978  22.6530014 113.4929809  18.2260818  22.3458590
  97.5589992   4.4459978  34.9220014  96.6669992   4.7839978  34.8540014
  97.4609992   3.5899978  35.3400014  97.4234475   4.3766543  34.9691704
 109.8469992  12.2619978  24.3460014 109.5699992  11.5339978  24.9020014
 110.7749992  12.3809978  24.5510014 109.9344499  12.1784213  24.4498044
  97.2109992  16.2499978  33.3570014  97.4279992  15.3179978  33.3260014
  97.4569992  16.5249978  34.2400014  97.2739809  16.1595686  33.4721691
 103.0719992  14.7019978  20.5660014 103.3109992  13.9529978  20.0190014
 102.8029992  14.3139978  21.3990014 103.0683233  14.5471853  20.6037809
 102.0089992  14.2719978  23.0220014 102.1559992  13.7519978  23.8120014
 102.0059992  15.1789978  23.3290014 102.0287102  14.3233953  23.1715925
  98.4619992  11.5239978  23.5330014  97.7759992  11.8769978  24.1000014
  98.9849992  12.2869978  23.2860014  98.4388402  11.6753901  23.5771801
 106.2939992   4.1869978  33.8120014 106.9929992   4.2609978  34.4620014
 105.9129992   3.3219978  33.9660014 106.3382097   4.0802389  33.9217997
 107.0779992   3.8389978  24.9090014 107.2979992   4.3099978  24.1050014
 107.6369992   4.2329978  25.5790014 107.1836731   3.9567287  24.8895033
 104.7469992  15.9689978  23.7720014 103.9299992  16.4659978  23.8240014
 105.2759992  16.4449978  23.1310014 104.7068125  16.1011989  23.6925306
 104.2779992   5.5669978  25.7440014 105.0899992   6.0709978  25.7900014
 104.0339992   5.4219978  26.6580014 104.3561467   5.6163749  25.8738575
 104.8139992   6.5529978  34.9280014 104.9329992   7.1269978  35.6850014
 105.4689992   5.8649978  35.0430014 104.9188684   6.5385194  35.0471674
 105.1619992   2.6479978  26.6820014 104.8149992   3.2649978  27.3260014
 105.8209992   3.1489978  26.2000014 105.2035090   2.8001575  26.7050681
 102.0849992  17.0129978  23.7530014 102.2459992  17.8129978  23.2530014
 101.8879992  17.3199978  24.6380014 102.0803906  17.1638678  23.8042333
 100.8199992   3.7109978  23.3690014 100.7359992   4.5989978  23.7160014
 101.7099992   3.4459978  23.6010014 100.9288163   3.7967179  23.4478596
 111.0179992   4.4599978  35.7630014 110.1019992   4.7219978  35.6760014
 111.3539992   4.4569978  34.8670014 110.9378499   4.4955163  35.6298766
 109.6209992   8.2099978  29.8590014 108.8229992   7.7949978  29.5310014
 110.0659992   7.5199978  30.3500014 109.5719684   8.0598628  29.8805227
  99.0779992  14.1379978  22.4290014  99.6699992  14.8379978  22.7060014
  99.5369992  13.7049978  21.7100014  99.2211652  14.1752675  22.3696533
  97.3939992   6.8029978  21.5450014  97.3489992   7.7419978  21.7240014
  96.5059992   6.5669978  21.2760014  97.2678166   6.8996687  21.5331524
 110.7069992  17.4659978  31.4810014 110.5509992  18.1449978  30.8240014
 111.6399992  17.5379978  31.6840014 110.8117387  17.5686390  31.4185342
  98.2019992   1.5839978  30.2190014  97.9729992   1.6429978  29.2910014
  97.7599992   0.7929978  30.5250014  98.1108801   1.4850540  30.1334729
  97.1329992  15.5249978  26.3790014  96.2999992  15.9969978  26.4060014
  97.6779992  16.0349978  25.7800014  97.0927857  15.6584791  26.3017142
  96.4209992  18.1369978  37.7090014  96.9609992  17.9209978  38.4690014
  95.9399992  17.3319978  37.5190014  96.4299219  17.9985156  37.7874282
 101.0179992  17.0569978  39.3290014 101.7859992  16.5979978  39.6700014
 100.9969992  16.8309978  38.3990014 101.1202135  16.9636668  39.2499491
 105.1099992  16.5649978  20.7050014 104.4659992  15.9339978  21.0260014
 105.8719992  16.0339978  20.4730014 105.1248058  16.4067902  20.7176038
 107.5949992  15.4369978  38.0580014 107.2439992  14.5799978  38.3020014
 108.3209992  15.5789978  38.6650014 107.6451895  15.3391351  38.1733770
 109.7149992  16.3819978  20.9380014 109.9979992  15.5869978  21.3910014
 110.4539992  16.6149978  20.3770014 109.8537096  16.3047049  20.9241104
  96.3279992  11.9479978  38.6630014  96.4719992  11.0459978  38.3770014
  95.5559992  12.2339978  38.1760014  96.2432733  11.8631798  38.5579532
 100.6689992  12.2909978  20.7960014 100.7339992  11.4969978  21.3260014
 101.3219992  12.1729978  20.1060014 100.7661605  12.1663430  20.7752997
 102.9829992  11.9169978  38.0960014 102.6549992  12.1879978  37.2390014
 103.1349992  10.9759978  38.0080014 102.9586412  11.8269046  37.9667822
 106.0219992  13.3379978  20.5320014 105.7529992  13.5189978  21.4320014
 105.8149992  12.4129978  20.4000014 105.9571191  13.2377119  20.6375524
 108.7179992  11.8329978  35.4790014 109.4629992  12.4219978  35.3600014
 107.9609992  12.4149978  35.5430014 108.7175470  11.9922128  35.4713799
  97.1609992   9.1479978  38.0830014  97.5689992   8.2909978  37.9620014
  96.8999992   9.1619978  39.0040014  97.1816016   9.0325119  38.1909192
 101.8189992  10.2639978  23.1020014 101.3589992   9.7799978  23.7870014
 102.0739992   9.5949978  22.4660014 101.7904856  10.1073669  23.1098397
 101.1079992   8.1569978  35.4580014 100.4889992   8.8309978  35.7380014
 101.4519992   8.4779978  34.6240014 101.0697123   8.2926887  35.3836388
 102.8899992   8.5069978  21.3640014 102.7089992   8.3519978  20.4370014
 103.8399992   8.6149978  21.4090014 102.9936566   8.5003669  21.2430929
 106.1269992  10.6279978  38.7350014 107.0809992  10.7119978  38.7080014
 105.9669992   9.9159978  39.3550014 106.2357182  10.5432842  38.8150733
 112.2799992  10.8609978  20.8100014 112.0059992  10.4369978  19.9970014
 112.3189992  11.7929978  20.5930014 112.2477716  10.9288827  20.6694286
 101.4469992   5.5119978  36.5400014 101.5969992   4.7829978  35.9380014
 101.4489992   6.2889978  35.9810014 101.4677967   5.5172708  36.3820541
 101.8599992   3.8809978  34.0330014 102.3949992   4.3329978  33.3810014
 101.0069992   3.7729978  33.6100014 101.8180374   3.9282665  33.8866710
 103.4409992   9.3209978  34.2720014 104.1919992   9.1649978  33.6990014
 103.1019992  10.1729978  33.9970014 103.4979587   9.4148138  34.1564078
 107.8569992   7.1359978  39.3010014 108.0489992   6.2049978  39.1890014
 108.7149992   7.5609978  39.2900014 107.9992182   7.0660070  39.2841862
 109.1739992   9.9249978  37.3780014 108.8919992  10.6339978  36.8000014
 110.1159992   9.8519978  37.2270014 109.2627921  10.0122193  37.2784225
  99.9259992   6.7099978  38.4510014  99.1579992   6.1769978  38.2410014
 100.6039992   6.3999978  37.8520014  99.9127235   6.5951754  38.3412413
 102.6649992   1.3379978  34.4640014 102.5669992   2.2839978  34.3590014
 101.9229992   0.9649978  33.9880014 102.5512534   1.4171773  34.3852600
 103.9289992   5.6589978  38.0280014 103.6939992   5.4399978  38.9290014
 103.1459992   5.4519978  37.5180014 103.7909095   5.6009892  38.0825353
 106.6449992   4.7869978  37.1030014 105.6969992   4.8189978  37.2350014
 106.9569992   4.1609978  37.7570014 106.5575293   4.7067923  37.2094148
 108.2789992   3.4209978  39.1080014 108.1819992   2.4689978  39.1030014
 107.9569992   3.6889978  39.9690014 108.2222468   3.3270884  39.2236210
  98.1059992   4.6299978  38.1560014  98.3179992   3.9239978  37.5460014
  97.9949992   4.1929978  39.0000014  98.1200269   4.4741921  38.1865873
 102.8869992   0.6319978  37.1350014 103.5989992  -0.0080022  37.1210014
 102.7859992   0.8979978  36.2220014 102.9707387   0.5804330  37.0095563
 103.2409992   2.3139978  39.1890014 103.1089992   1.8389978  38.3690014
 102.6409992   3.0589978  39.1340014 103.1419070   2.3495789  39.0693251
 102.7869992  19.1969978  22.3650014 103.7199992  19.3549978  22.5090014
 102.5229992  19.8729978  21.7400014 102.8789911  19.3099373  22.3002722
  96.3549992  13.8339978  21.8480014  97.2689992  13.9129978  22.1210014
  96.3629992  13.1469978  21.1820014  96.4810655  13.7519205  21.7952917
  95.0039992  19.2269978  26.9250014  94.3569992  18.7649978  26.3930014
  95.3589992  18.5549978  27.5080014  94.9633741  19.0729774  26.9309175
  95.8739992  17.3069978  28.7300014  95.5399992  16.4269978  28.9020014
  96.0969992  17.6529978  29.5950014  95.8583721  17.2331938  28.8704168
 113.4229992  18.1169978  31.7110014 113.4009992  18.3019978  32.6500014
 114.1129992  18.6849978  31.3700014 113.5133439  18.2191887  31.7934791
 112.9859992  17.6839978  34.6320014 112.4989992  16.9489978  34.2610014
 113.5349992  17.2899978  35.3100014 112.9935247  17.5301057  34.6728461
 111.4369992  13.4739978  39.2710014 110.5709992  13.3689978  39.6650014
 111.8129992  14.2319978  39.7170014 111.3693401  13.5621708  39.3852620
 112.7379992  11.7299978  24.7850014 113.5879992  12.1509978  24.9120014
 112.7429992  10.9899978  25.3920014 112.8551143  11.6876094  24.8844750
 113.1319992   9.7839978  26.6080014 112.4059992   9.3039978  27.0060014
 113.7139992   9.9889978  27.3410014 113.1112730   9.7460184  26.7614149
 112.8909992  12.5689978  31.5560014 113.7249992  12.1909978  31.2750014
 113.0029992  13.5119978  31.4370014 113.0201917  12.6447943  31.5014861
 111.3779992  15.4469978  33.8630014 110.7299992  15.7719978  34.4880014
 110.8599992  15.0059978  33.1890014 111.2194196  15.4318651  33.8574152
 113.4009992   9.6849978  22.9990014 112.8789992  10.0409978  22.2810014
 113.3679992  10.3599978  23.6780014 113.3250129   9.8249598  22.9923355
 111.7499992   6.9239978  21.5500014 111.8459992   7.5909978  20.8700014
 111.6099992   6.1089978  21.0690014 111.7442040   6.9050671  21.3918378
 110.9189992   8.3049978  27.1710014 110.7689992   7.3599978  27.1510014
 110.5649992   8.5859978  28.0150014 110.8506351   8.2136644  27.2823220
  95.9539992  10.3829978  31.1820014  96.1389992  10.3009978  30.2460014
  96.8039992  10.2589978  31.6050014  96.0940928  10.3550463  31.1112893
 111.7749992  10.2749978  36.8100014 112.3579992   9.5399978  37.0020014
 112.3389992  11.0469978  36.8570014 111.9309781  10.2788145  36.8426164
 113.2719992   8.1779978  37.4950014 112.4089992   7.7989978  37.3290014
 113.8759992   7.4389978  37.4200014 113.2356085   8.0263223  37.4621695
 110.9969992   4.3319978  20.6680014 111.6079992   3.9609978  21.3050014
 110.1599992   3.9109978  20.8640014 110.9674947   4.2242756  20.7817252
 110.6299992   5.8869978  25.6340014 110.9089992   4.9799978  25.7580014
 111.3889992   6.3209978  25.2450014 110.7708619   5.8214502  25.5983795
 111.2409992   6.4689978  31.0700014 112.1739992   6.6809978  31.0350014
 111.0059992   6.5699978  31.9920014 111.3369517   6.5116833  31.1899130
 111.2709992   7.2059978  33.8460014 110.4279992   7.4739978  34.2120014
 111.7129992   8.0279978  33.6350014 111.2154138   7.3538273  33.8675518
  95.5519992   5.6529978  37.3220014  96.4709992   5.5309978  37.5590014
  95.1019992   4.9029978  37.7120014  95.6170087   5.5349608  37.4071410
 113.5539992   1.1859978  39.1990014 113.9029992   0.5319978  38.5940014
 113.7009992   2.0229978  38.7590014 113.6216824   1.2096024  39.0566304
 111.2429992   3.1499978  25.6820014 111.4249992   2.7009978  26.5070014
 110.6429992   2.5659978  25.2180014 111.1868187   3.0095552  25.7322739
  96.7729992   3.9659978  30.2140014  97.2179992   3.1739978  30.5160014
  97.2389992   4.6819978  30.6440014  96.8969718   3.9544534  30.3135265
  95.0769992   6.9649978  31.2830014  95.5689992   6.7439978  30.4920014
  95.4389992   7.8049978  31.5640014  95.1932923   7.0483468  31.2127407
 113.0729992   3.2949978  37.5480014 112.1559992   3.5659978  37.5130014
 113.1959992   2.7599978  36.7640014 112.9639672   3.2597885  37.4371862
 113.1099992   3.2179978  22.2100014 113.5219992   2.4969978  21.7350014
 113.7909992   3.8869978  22.2680014 113.2585536   3.2097766  22.1528024
  95.3909992   3.2229978  25.3370014  94.4659992   3.4309978  25.2080014
  95.8449992   3.7069978  24.6470014  95.3256298   3.3169299  25.2260451
 110.1609992  18.2069978  27.2830014 110.8139992  17.8589978  26.6750014
 110.6719992  18.6949978  27.9290014 110.3192777  18.2253815  27.2872047
  95.3539992   1.9609978  33.6810014  94.6889992   1.7149978  34.3240014
  94.9109992   2.5829978  33.1040014  95.2031168   2.0114214  33.6909848
  97.5459992  15.1359978  37.8260014  96.7249992  15.3109978  37.3650014
  97.2939992  15.0629978  38.7460014  97.3995594  15.1500717  37.8873611
 100.4999992  16.1099978  34.0840014 100.0759992  16.9199978  33.8020014
 101.4049992  16.1959978  33.7820014 100.5642138  16.2324160  34.0046415
 104.8119992  17.5089978  37.0440014 104.9959992  17.1759978  37.9220014
 105.6579992  17.8189978  36.7220014 104.9516484  17.5052979  37.1207617
 107.1569992  18.7949978  36.2880014 107.8339992  18.1619978  36.0480014
 107.4779992  19.1959978  37.0950014 107.2931323  18.7625691  36.3643158
 112.0739992   1.3849978  35.3670014 111.2609992   1.7099978  34.9800014
 112.3069992   0.6239978  34.8340014 111.9941347   1.3266880  35.2419841
  97.9019992  19.3669978  34.1320014  97.1819992  19.8069978  33.6810014
  97.5369992  19.1159978  34.9800014  97.7539643  19.3933369  34.1849129
 100.3689992  18.9669978  33.1620014  99.5049992  19.0389978  33.5660014
 100.3139992  19.5139978  32.3780014 100.2431942  19.0507849  33.1114000
 105.0799992  18.8549978  32.3370014 104.6229992  19.3839978  31.6830014
 105.2429992  19.4579978  33.0620014 105.0394960  19.0089280  32.3455274
 107.4079992  17.7329978  33.2820014 106.5029992  17.8979978  33.0160014
 107.8359992  18.5859978  33.2160014 107.3421537  17.8709134  33.2367095
 110.0119992  19.3029978  33.5770014 109.8299992  20.2189978  33.3660014
 110.1889992  18.8919978  32.7300014 110.0110030  19.3728273  33.4337166
  97.3169992  17.9899978  31.0420014  97.2989992  17.5639978  31.8990014
  98.1219992  17.6709978  30.6330014  97.4232875  17.8886435  31.1039515
  99.4579992  16.6999978  29.6970014  99.2389992  15.7829978  29.8670014
 100.2819992  16.8399978  30.1630014  99.5394702  16.5935511  29.7832527
 101.9949992  17.1699978  30.5460014 102.2079992  16.2819978  30.2590014
 102.0599992  17.1349978  31.5000014 102.0329149  17.0438326  30.6357369
 105.5039992   2.8339978  29.6900014 104.8299992   2.2039978  29.9460014
 106.0679992   2.3499978  29.0870014 105.4880384   2.6823708  29.6435020
 110.6469992   0.9409978  29.8030014 111.2499992   1.4889978  29.3010014
 109.7769992   1.2599978  29.5620014 110.6119157   1.0590373  29.7017910
 112.3739992   2.0799978  28.1360014 112.9849992   1.5659978  27.6090014
 112.7559992   2.9569978  28.1590014 112.5093305   2.1282050  28.0669418
  97.8309992   1.4679978  27.5120014  97.0539992   1.2329978  27.0050014
  98.3609992   0.6709978  27.5210014  97.7963451   1.3281268  27.4438627
  96.6669992   1.2659978  23.3160014  97.1059992   1.8769978  22.7240014
  96.0329992   1.8039978  23.7900014  96.6413859   1.4224064  23.2990305
 102.4099992   1.3939978  27.3250014 103.2839992   1.7829978  27.2960014
 102.2739992   1.1789978  28.2480014 102.5111953   1.4181643  27.4457617
 107.9669992   1.4239978  28.9750014 108.0429992   1.5199978  28.0250014
 107.6919992   0.5169978  29.1030014 107.9401871   1.3144146  28.8623944
 109.3199992   1.4499978  24.6670014 108.6169992   2.0649978  24.4570014
 108.8749992   0.6129978  24.7980014 109.1636550   1.4209668  24.6559837
  96.5679992  17.2139978  24.2130014  95.8829992  17.1759978  23.5460014
  96.5719992  18.1269978  24.5010014  96.4747621  17.3321924  24.1606126
  98.5279992   3.1819978  21.7580014  99.0189992   2.5519978  21.2310014
  99.1509992   3.4779978  22.4210014  98.6795304   3.1357376  21.7754940
 103.5539992   3.4749978  24.2150014 103.7319992   2.8279978  24.8980014
 103.4999992   4.3089978  24.6820014 103.5710678   3.4991604  24.3716301
 105.4319992  18.4229978  22.6110014 106.2979992  18.7899978  22.4330014
 105.1859992  17.9839978  21.7970014 105.5172097  18.4138525  22.4766019
 112.1409992  17.9859978  25.2900014 111.9469992  17.2379978  24.7250014
 112.1019992  18.7439978  24.7070014 112.1091645  17.9860786  25.1338148
  97.7879992   1.9819978  37.0300014  97.4219992   1.2159978  37.4720014
  98.7009992   2.0109978  37.3160014  97.8613172   1.8810324  37.1291890
  99.7609992   1.3319978  38.5650014 100.6599992   1.0579978  38.3810014
  99.3749992   0.5899978  39.0300014  99.8317307   1.1942196  38.6027098
  98.3859992  18.1339978  21.2380014  98.1179992  18.4199978  22.1120014
  99.1569992  17.5879978  21.3910014  98.4535927  18.0992779  21.3781205
 108.1829992   0.6649978  38.7480014 108.2589992   0.2389978  39.6010014
 109.0759992   0.6779978  38.4050014 108.3142303   0.6083493  38.8185497
 111.3589992  16.7379978  37.4400014 110.5769992  16.5509978  36.9200014
 111.2869992  17.6669978  37.6570014 111.2421924  16.8380637  37.3981602
 125.7649992  10.6239978  27.4710014 125.8539992  11.5679978  27.3390014
 125.1269992  10.3489978  26.8130014 125.6909062  10.7159812  27.3639641
 124.6979992   9.8789978  30.8900014 124.6599992   9.2329978  31.5950014
 124.3759992   9.4119978  30.1190014 124.6492679   9.7274276  30.8822921
 117.0659992   9.4929978  32.4830014 117.1079992   8.8679978  33.2060014
 117.7689992  10.1169978  32.6650014 117.1667345   9.4917873  32.6065274
 128.4039992  12.8179978  29.1910014 127.9629992  12.0979978  29.6420014
 128.3909992  13.5389978  29.8210014 128.3419215  12.8169291  29.3378105
 117.9899992  13.9429978  31.0180014 117.6199992  13.1409978  30.6480014
 118.9309992  13.7749978  31.0640014 118.0665984  13.8104638  30.9735603
 114.5999992   7.6029978  26.4100014 114.1519992   8.4489978  26.3920014
 114.0389992   7.0239978  25.8950014 114.4628546   7.6403993  26.3378891
 115.3099992   9.7649978  28.5360014 115.5239992   8.9949978  29.0640014
 116.0479992   9.8549978  27.9330014 115.4390200   9.6718587  28.5267035
 125.5159992  17.9219978  29.4030014 126.1349992  17.2459978  29.1300014
 125.3069992  17.7039978  30.3120014 125.5726056  17.7998869  29.4883967
 123.0869992  12.3109978  31.2960014 123.3909992  11.6249978  30.7010014
 123.8089992  12.4299978  31.9140014 123.2261240  12.2332314  31.2980959
 131.7499992   3.9129978  32.1560014 131.7999992   4.5229978  32.8920014
 132.1759992   4.3739978  31.4330014 131.8144108   4.0587709  32.1590112
 126.2279992   6.7049978  31.6230014 126.3709992   5.7589978  31.6430014
 126.1219992   6.9119978  30.6950014 126.2332403   6.6034797  31.5002239
 119.3829992   4.8069978  28.8960014 119.4259992   5.6669978  28.4770014
 118.9249992   4.2549978  28.2620014 119.3269871   4.8499245  28.7530761
 127.1049992   4.9379978  27.2970014 127.7519992   4.6089978  27.9210014
 127.6149992   5.4549978  26.6740014 127.2624351   4.9629067  27.2981037
 116.0029992   7.2039978  29.6580014 116.6569992   6.6539978  30.0900014
 116.0269992   6.9299978  28.7410014 116.0957199   7.0917167  29.5931668
 121.1599992   8.7539978  28.8730014 121.7759992   8.2269978  29.3820014
 120.5729992   8.1139978  28.4690014 121.1650154   8.5953954  28.8880945
 132.1419992   5.3909978  34.3920014 131.4529992   6.0489978  34.2970014
 132.1569992   5.1929978  35.3290014 132.0497756   5.4542603  34.5055812
 118.1929992   3.7249978  32.9700014 117.9739992   4.2549978  32.2030014
 117.5249992   3.9509978  33.6170014 118.0726975   3.8280967  32.9525140
 125.5619992  13.2249978  26.5140014 125.2669992  12.9019978  25.6620014
 125.2379992  14.1249978  26.5550014 125.4778460  13.3024464  26.4029714
 120.7619992  11.3999978  33.2570014 120.0219992  11.9989978  33.3610014
 121.4759992  11.9539978  32.9420014 120.7573500  11.5567829  33.2286371
 128.8689992   4.2289978  29.2770014 128.6539992   3.4629978  29.8100014
 129.5249992   4.7009978  29.7900014 128.9282673   4.1880728  29.4191990
 117.7869992   5.6169978  30.9220014 118.4009992   6.2499978  31.2950014
 118.2989992   5.1449978  30.2660014 117.9401962   5.6397249  30.8842935
 119.1699992  13.3649978  34.0440014 119.1639992  14.2439978  33.6660014
 118.3159992  13.2809978  34.4690014 119.0537925  13.4739535  34.0496887
 115.2909992  13.0359978  24.8260014 115.0189992  13.2649978  23.9380014
 115.3359992  13.8729978  25.2870014 115.2598097  13.1806163  24.7666683
 128.9159992  14.6569978  31.5390014 127.9739992  14.7159978  31.7010014
 129.1919992  15.5629978  31.4020014 128.8245865  14.7875288  31.5426192
 129.2159992   2.9439978  32.9560014 128.4799992   3.5539978  32.9190014
 129.8999992   3.3589978  32.4300014 129.2075367   3.0837551  32.8798174
 122.2199992   1.0299978  30.4220014 122.1019992   0.0819978  30.3680014
 121.3649992   1.3629978  30.6950014 122.0882805   0.9452202  30.4515079
 127.1679992  16.4379978  28.1640014 127.5929992  15.7309978  27.6790014
 127.4849992  17.2399978  27.7470014 127.2690266  16.4495190  28.0412479
 128.3279992  14.3389978  26.6730014 128.0699992  13.6489978  26.0610014
 128.3989992  13.8959978  27.5180014 128.3023050  14.1846814  26.7035621
 130.0139992  12.9059978  35.1500014 130.1529992  12.3139978  34.4110014
 130.1809992  13.7789978  34.7940014 130.0556193  12.9428896  35.0006211
 124.4859992   9.8679978  24.9230014 123.7749992  10.4029978  24.5710014
 125.1769992   9.9229978  24.2630014 124.4820751   9.9486777  24.7855858
 124.5399992   8.3249978  21.9610014 125.2409992   8.3479978  22.6130014
 124.8419992   7.6969978  21.3050014 124.6768202   8.2432212  21.9615609
 131.8549992   9.2459978  33.2160014 131.2029992   9.9399978  33.3050014
 132.3209992   9.4559978  32.4060014 131.8285937   9.3695019  33.1187533
 127.8919992  10.0769978  25.8740014 127.1599992  10.3059978  26.4480014
 128.3389992   9.3639978  26.3290014 127.8523963  10.0118729  26.0139945
 127.7889992   8.2519978  34.9420014 127.8689992   9.0149978  35.5140014
 127.1879992   8.5309978  34.2520014 127.7186547   8.3942457  34.9270047
 119.5369992  10.7079978  27.7570014 119.2069992  10.3369978  26.9390014
 120.1259992  10.0369978  28.1040014 119.5713970  10.5666063  27.6919404
 120.9039992  14.1359978  30.4380014 120.8089992  13.5569978  29.6820014
 121.6329992  13.7649978  30.9340014 120.9896011  14.0065561  30.4016028
 119.9039992   9.4759978  31.3900014 120.4689992   9.5979978  30.6280014
 120.2229992  10.1139978  32.0290014 120.0244166   9.5788791  31.3720348
 126.2129992  14.9799978  32.1240014 125.9729992  15.6419978  32.7720014
 126.0149992  14.1449978  32.5490014 126.1533826  14.9578115  32.2701566
 120.7839992  13.8759978  36.1080014 120.4729992  14.6579978  36.5630014
 120.1339992  13.7229978  35.4220014 120.6535538  13.9624087  36.0775898
 126.7629992   9.2399978  23.5600014 127.3419992   9.3899978  24.3060014
 127.1769992   9.7099978  22.8360014 126.8983358   9.3240955  23.5643953
 117.7039992  10.0739978  35.3360014 117.7739992  10.7249978  36.0350014
 116.8129992  10.1769978  35.0010014 117.5931690  10.1769249  35.3863043
 124.4889992  15.9759978  26.9950014 124.9629992  16.2719978  27.7720014
 123.9259992  16.7149978  26.7620014 124.4777890  16.1163036  27.0698101
 119.0229992  15.9469978  36.8710014 119.0309992  15.8109978  35.9240014
 118.1069992  15.8299978  37.1230014 118.9002528  15.9125463  36.7753243
 130.4619992   0.9899978  23.3730014 129.5619992   1.1289978  23.6680014
 130.7139992   1.8209978  22.9710014 130.3728683   1.1214055  23.3590232
 118.5279992   9.7769978  25.3460014 118.2359992  10.5449978  24.8550014
 117.8529992   9.1179978  25.1830014 118.3968497   9.7929745  25.2568260
 131.6509992  15.3559978  21.7490014 131.7239992  16.2949978  21.9190014
 132.5559992  15.0509978  21.6930014 131.7834170  15.4433282  21.7647063
 114.6209992  12.1399978  34.1610014 114.1189992  12.1119978  33.3460014
 114.6259992  11.2349978  34.4710014 114.5529832  12.0137486  34.0914121
 114.3709992  14.9209978  31.0450014 115.3169992  14.7759978  31.0260014
 114.2579992  15.7049978  31.5820014 114.4853578  15.0071697  31.1150317
 132.5689992  15.5869978  36.7280014 132.5189992  14.6309978  36.6900014
 131.7419992  15.8539978  37.1290014 132.4503831  15.4924680  36.7770121
 123.5469992  15.1609978  35.6040014 123.6349992  15.9869978  36.0790014
 122.6839992  14.8309978  35.8530014 123.4423357  15.2295468  35.7027653
 123.9619992  18.9329978  25.4100014 123.8859992  18.8119978  24.4630014
 123.9939992  19.8819978  25.5280014 123.9559380  19.0447677  25.2965181
 117.6149992  17.7219978  27.1910014 117.7669992  17.3739978  28.0690014
 116.7639992  17.3649978  26.9350014 117.5208344  17.6260879  27.2766868
 127.0629992  18.0869978  22.4120014 127.4379992  17.3429978  21.9410014
 127.0679992  17.8169978  23.3300014 127.1150098  17.9486392  22.4716629
 126.7319992  18.0129978  25.1610014 125.7969992  18.1129978  25.3400014
 127.0119992  17.3029978  25.7400014 126.6419471  17.9307933  25.2636695
 129.7209992   7.0799978  37.2080014 129.3129992   7.5599978  36.4870014
 129.7609992   6.1739978  36.9000014 129.6706221   7.0232449  37.0678267
 116.8699992  13.4639978  35.2040014 117.0859992  13.1019978  36.0640014
 116.0139992  13.0889978  34.9950014 116.7838810  13.3638837  35.2932680
 119.4879992   1.9339978  31.2000014 118.6269992   1.8469978  30.7920014
 119.4659992   2.7899978  31.6280014 119.3670491   2.0378003  31.2019582
 124.1509992   1.6559978  34.5750014 124.5709992   1.2409978  35.3280014
 123.2179992   1.4769978  34.6920014 124.0823736   1.5749910  34.6938968
 127.4779992   5.4109978  35.4280014 126.9639992   5.2859978  36.2260014
 127.3219992   6.3239978  35.1840014 127.3866967   5.5172123  35.5040937
 128.2399992  10.2719978  21.1890014 128.2819992  10.0499978  20.2590014
 129.0889992  10.6709978  21.3790014 128.3605253  10.2955498  21.0873822
 123.8129992   4.1479978  21.8600014 123.5589992   4.1669978  22.7820014
 123.5559992   3.2769978  21.5580014 123.7434508   4.0328280  21.9454803
 119.5789992   6.8989978  32.2950014 118.9379992   6.8589978  33.0040014
 119.6169992   7.8259978  32.0570014 119.4963010   7.0187668  32.3599946
 119.5759992   7.1199978  27.2070014 118.6839992   6.7799978  27.1480014
 120.0269992   6.7429978  26.4510014 119.5147642   7.0224910  27.0967726
 125.1119992   7.5359978  26.0240014 124.7029992   8.3509978  25.7320014
 125.8319992   7.3959978  25.4100014 125.1534439   7.6285372  25.9010115
 124.2139992   7.7119978  37.5120014 123.6509992   7.0069978  37.8330014
 125.0399992   7.5909978  37.9800014 124.2486674   7.5992165  37.6191751
 126.1169992   6.9819978  28.8380014 125.9209992   7.5879978  28.1230014
 126.2979992   6.1489978  28.4040014 126.1146584   6.9522513  28.6814212
 117.3289992   7.2199978  34.1620014 117.2909992   7.6199978  35.0310014
 116.8389992   6.4029978  34.2520014 117.2575330   7.1642674  34.2931289
 120.6949992   4.5939978  20.9610014 120.2639992   4.1489978  21.6900014
 119.9769992   4.9649978  20.4480014 120.5389176   4.5832051  20.9914930
 113.9379992   4.3359978  28.0130014 114.5679992   4.3069978  28.7320014
 114.3869992   3.9109978  27.2820014 114.0850835   4.2745660  28.0127659
 115.2119992   5.0819978  23.4370014 115.6859992   5.6729978  22.8520014
 114.4939992   5.6119978  23.7840014 115.1798640   5.2345511  23.4037969
 125.3809992   8.6199978  33.5090014 125.7039992   7.9889978  32.8660014
 124.9399992   8.0859978  34.1700014 125.3656379   8.4613468  33.5102582
 122.1579992   4.5479978  28.2930014 121.2469992   4.6049978  28.5820014
 122.6629992   4.4879978  29.1040014 122.1016873   4.5476826  28.4421207
 116.9859992   6.1769978  27.1200014 116.0969992   6.2759978  26.7800014
 117.2829992   5.3349978  26.7740014 116.9044177   6.0767687  27.0266940
 120.6389992   6.1769978  24.7770014 121.5709992   6.3059978  24.9550014
 120.4239992   6.8459978  24.1270014 120.7374472   6.2850806  24.7134891
 126.5629992   3.7829978  31.5580014 125.8859992   3.9139978  32.2210014
 126.0779992   3.6279978  30.7470014 126.4047405   3.7799947  31.5392170
 119.3129992   7.3709978  22.3430014 118.7709992   6.9919978  21.6520014
 120.1469992   7.5659978  21.9150014 119.3514390   7.3454079  22.1904392
 129.8509992  19.4539978  37.8340014 130.0499992  19.8779978  37.0000014
 130.5059992  19.7979978  38.4410014 129.9668522  19.5586301  37.8017852
 117.4489992  11.9279978  37.4420014 118.1809992  12.1829978  38.0040014
 116.6679992  12.1329978  37.9580014 117.4436526  11.9905450  37.5885176
 123.4779992   7.3349978  30.1800014 124.0419992   6.7889978  29.6330014
 123.3299992   6.8139978  30.9690014 123.5353037   7.1896787  30.2117229
 118.4799992   3.4719978  26.5990014 118.1629992   2.5689978  26.5630014
 119.2609992   3.4739978  26.0460014 118.5422431   3.3487797  26.5193102
 122.1039992   5.7239978  32.5940014 121.2689992   6.1779978  32.7050014
 122.6279992   5.9999978  33.3460014 122.0606072   5.8233948  32.7108136
 122.6489992  11.9369978  24.2790014 121.9039992  11.4289978  23.9570014
 122.5139992  11.9859978  25.2250014 122.5288963  11.8741731  24.3628826
 129.7989992  11.0699978  33.0660014 130.4399992  11.5259978  32.5220014
 128.9679992  11.1829978  32.6030014 129.7745287  11.1476921  32.9289887
 126.5459992   4.7509978  22.4780014 125.6079992   4.8619978  22.3270014
 126.8439992   5.6069978  22.7850014 126.4576318   4.8820158  22.4988145
 124.1679992  12.1209978  35.5160014 123.8219992  11.7389978  36.3230014
 123.9679992  13.0539978  35.5870014 124.0935987  12.1949002  35.6360461
 127.2649992   6.6179978  24.1390014 128.1569992   6.4799978  24.4580014
 127.3209992   7.4089978  23.6020014 127.3947325   6.7059918  24.1101217
 117.7729992  11.2319978  30.0490014 118.5179992  11.2289978  29.4470014
 117.8509992  10.4079978  30.5300014 117.8853365  11.1202384  30.0317430
 124.7739992  13.3949978  23.3040014 124.4789992  14.2219978  23.6860014
 124.0709992  12.7759978  23.5010014 124.6386379  13.4244171  23.3828654
 114.7809992   9.6919978  35.3640014 115.0039992   9.2739978  36.1950014
 114.1789992   9.0799978  34.9410014 114.7301513   9.5519606  35.4206740
 121.7979992   9.2089978  37.5770014 121.5019992   9.0439978  36.6810014
 122.7289992   8.9889978  37.5660014 121.8834401   9.1566879  37.4530206
 126.4179992  14.5829978  35.4660014 125.5179992  14.7659978  35.1990014
 126.4519992  14.8419978  36.3870014 126.2993748  14.6430554  35.5539164
 132.1499992   6.8269978  23.8340014 131.5949992   6.4309978  23.1610014
 132.2499992   7.7379978  23.5560014 132.0876816   6.8959505  23.7045033
 132.1129992  12.6279978  36.6710014 131.2619992  12.8659978  36.3030014
 132.7029992  12.6109978  35.9180014 132.0763812  12.6582524  36.5188453
 130.4449992  15.6129978  24.2990014 130.0719992  14.7879978  24.6080014
 130.7219992  15.4299978  23.4010014 130.4313463  15.4752569  24.2199525
 127.6049992  10.4209978  31.3200014 126.6769992  10.1899978  31.2930014
 128.0559992   9.6439978  30.9900014 127.5388165  10.2842774  31.2716790
 120.1479992  14.7499978  27.4530014 120.6759992  15.5229978  27.2530014
 119.2679992  14.9739978  27.1510014 120.1013435  14.8862700  27.3847310
 115.9029992   9.6119978  22.0400014 116.5189992  10.2389978  22.4200014
 115.0409992   9.9279978  22.3120014 115.8707678   9.7404412  22.1287209
 121.5759992  12.4129978  27.0290014 121.3349992  13.3379978  27.0710014
 120.8349992  11.9539978  27.4260014 121.4429206  12.4775915  27.0883769
 122.0899992  16.5619978  33.3440014 122.4529992  17.4159978  33.1110014
 122.6219992  16.2699978  34.0850014 122.2115141  16.6393895  33.4122097
 120.2589992  17.4339978  26.5750014 119.3089992  17.5399978  26.6260014
 120.6109992  18.2549978  26.9190014 120.1765472  17.5594923  26.6284852
 125.6339992  12.6609978  33.0450014 125.2089992  12.4329978  33.8710014
 126.2149992  11.9219978  32.8630014 125.6543395  12.5299545  33.1334414
 127.8369992  13.5899978  22.1190014 128.1909992  13.2099978  22.9230014
 126.8889992  13.4959978  22.2060014 127.7572298  13.5252452  22.2408687
 128.2929992  17.2129978  35.5140014 127.6909992  16.6569978  35.0190014
 128.5739992  17.8799978  34.8880014 128.2485757  17.2270744  35.3615675
 132.3409992  18.0689978  22.3200014 133.0849992  18.6549978  22.1800014
 131.6469992  18.6379978  22.6530014 132.3489809  18.2260818  22.3458590
 116.4149992   4.4459978  34.9220014 115.5229992   4.7839978  34.8540014
 116.3169992   3.5899978  35.3400014 116.2794475   4.3766543  34.9691704
 128.7029992  12.2619978  24.3460014 128.4259992  11.5339978  24.9020014
 129.6309992  12.3809978  24.5510014 128.7904499  12.1784213  24.4498044
 116.0669992  16.2499978  33.3570014 116.2839992  15.3179978  33.3260014
 116.3129992  16.5249978  34.2400014 116.1299809  16.1595686  33.4721691
 121.9279992  14.7019978  20.5660014 122.1669992  13.9529978  20.0190014
 121.6589992  14.3139978  21.3990014 121.9243233  14.5471853  20.6037809
 120.8649992  14.2719978  23.0220014 121.0119992  13.7519978  23.8120014
 120.8619992  15.1789978  23.3290014 120.8847102  14.3233953  23.1715925
 117.3179992  11.5239978  23.5330014 116.6319992  11.8769978  24.1000014
 117.8409992  12.2869978  23.2860014 117.2948402  11.6753901  23.5771801
 125.1499992   4.1869978  33.8120014 125.8489992   4.2609978  34.4620014
 124.7689992   3.3219978  33.9660014 125.1942097   4.0802389  33.9217997
 125.9339992   3.8389978  24.9090014 126.1539992   4.3099978  24.1050014
 126.4929992   4.2329978  25.5790014 126.0396731   3.9567287  24.8895033
 123.6029992  15.9689978  23.7720014 122.7859992  16.4659978  23.8240014
 124.1319992  16.4449978  23.1310014 123.5628125  16.1011989  23.6925306
 123.1339992   5.5669978  25.7440014 123.9459992   6.0709978  25.7900014
 122.8899992   5.4219978  26.6580014 123.2121467   5.6163749  25.8738575
 123.6699992   6.5529978  34.9280014 123.7889992   7.1269978  35.6850014
 124.3249992   5.8649978  35.0430014 123.7748684   6.5385194  35.0471674
 124.0179992   2.6479978  26.6820014 123.6709992   3.2649978  27.3260014
 124.6769992   3.1489978  26.2000014 124.0595090   2.8001575  26.7050681
 120.9409992  17.0129978  23.7530014 121.1019992  17.8129978  23.2530014
 120.7439992  17.3199978  24.6380014 120.9363906  17.1638678  23.8042333
 119.6759992   3.7109978  23.3690014 119.5919992   4.5989978  23.7160014
 120.5659992   3.4459978  23.6010014 119.7848163   3.7967179  23.4478596
 129.8739992   4.4599978  35.7630014 128.9579992   4.7219978  35.6760014
 130.2099992   4.4569978  34.8670014 129.7938499   4.4955163  35.6298766
 128.4769992   8.2099978  29.8590014 127.6789992   7.7949978  29.5310014
 128.9219992   7.5199978  30.3500014 128.4279684   8.0598628  29.8805227
 117.9339992  14.1379978  22.4290014 118.5259992  14.8379978  22.7060014
 118.3929992  13.7049978  21.7100014 118.0771652  14.1752675  22.3696533
 116.2499992   6.8029978  21.5450014 116.2049992   7.7419978  21.7240014
 115.3619992   6.5669978  21.2760014 116.1238166   6.8996687  21.5331524
 129.5629992  17.4659978  31.4810014 129.4069992  18.1449978  30.8240014
 130.4959992  17.5379978  31.6840014 129.6677387  17.5686390  31.4185342
 117.0579992   1.5839978  30.2190014 116.8289992   1.6429978  29.2910014
 116.6159992   0.7929978  30.5250014 116.9668801   1.4850540  30.1334729
 115.9889992  15.5249978  26.3790014 115.1559992  15.9969978  26.4060014
 116.5339992  16.0349978  25.7800014 115.9487857  15.6584791  26.3017142
 115.2769992  18.1369978  37.7090014 115.8169992  17.9209978  38.4690014
 114.7959992  17.3319978  37.5190014 115.2859219  17.9985156  37.7874282
 119.8739992  17.0569978  39.3290014 120.6419992  16.5979978  39.6700014
 119.8529992  16.8309978  38.3990014 119.9762135  16.9636668  39.2499491
 123.9659992  16.5649978  20.7050014 123.3219992  15.9339978  21.0260014
 124.7279992  16.0339978  20.4730014 123.9808058  16.4067902  20.7176038
 126.4509992  15.4369978  38.0580014 126.0999992  14.5799978  38.3020014
 127.1769992  15.5789978  38.6650014 126.5011895  15.3391351  38.1733770
 128.5709992  16.3819978  20.9380014 128.8539992  15.5869978  21.3910014
 129.3099992  16.6149978  20.3770014 128.7097096  16.3047049  20.9241104
 115.1839992  11.9479978  38.6630014 115.3279992  11.0459978  38.3770014
 114.4119992  12.2339978  38.1760014 115.0992733  11.8631798  38.5579532
 119.5249992  12.2909978  20.7960014 119.5899992  11.4969978  21.3260014
 120.1779992  12.1729978  20.1060014 119.6221605  12.1663430  20.7752997
 121.8389992  11.9169978  38.0960014 121.5109992  12.1879978  37.2390014
 121.9909992  10.9759978  38.0080014 121.8146412  11.8269046  37.9667822
 124.8779992  13.3379978  20.5320014 124.6089992  13.5189978  21.4320014
 124.6709992  12.4129978  20.4000014 124.8131191  13.2377119  20.6375524
 127.5739992  11.8329978  35.4790014 128.3189992  12.4219978  35.3600014
 126.8169992  12.4149978  35.5430014 127.5735470  11.9922128  35.4713799
 116.0169992   9.1479978  38.0830014 116.4249992   8.2909978  37.9620014
 115.7559992   9.1619978  39.0040014 116.0376016   9.0325119  38.1909192
 120.6749992  10.2639978  23.1020014 120.2149992   9.7799978  23.7870014
 120.9299992   9.5949978  22.4660014 120.6464856  10.1073669  23.1098397
 119.9639992   8.1569978  35.4580014 119.3449992   8.8309978  35.7380014
 120.3079992   8.4779978  34.6240014 119.9257123   8.2926887  35.3836388
 121.7459992   8.5069978  21.3640014 121.5649992   8.3519978  20.4370014
 122.6959992   8.6149978  21.4090014 121.8496566   8.5003669  21.2430929
 124.9829992  10.6279978  38.7350014 125.9369992  10.7119978  38.7080014
 124.8229992   9.9159978  39.3550014 125.0917182  10.5432842  38.8150733
 131.1359992  10.8609978  20.8100014 130.8619992  10.4369978  19.9970014
 131.1749992  11.7929978  20.5930014 131.1037716  10.9288827  20.6694286
 120.3029992   5.5119978  36.5400014 120.4529992   4.7829978  35.9380014
 120.3049992   6.2889978  35.9810014 120.3237967   5.5172708  36.3820541
 120.7159992   3.8809978  34.0330014 121.2509992   4.3329978  33.3810014
 119.8629992   3.7729978  33.6100014 120.6740374   3.9282665  33.8866710
 122.2969992   9.3209978  34.2720014 123.0479992   9.1649978  33.6990014
 121.9579992  10.1729978  33.9970014 122.3539587   9.4148138  34.1564078
 126.7129992   7.1359978  39.3010014 126.9049992   6.2049978  39.1890014
 127.5709992   7.5609978  39.2900014 126.8552182   7.0660070  39.2841862
 128.0299992   9.9249978  37.3780014 127.7479992  10.6339978  36.8000014
 128.9719992   9.8519978  37.2270014 128.1187921  10.0122193  37.2784225
 118.7819992   6.7099978  38.4510014 118.0139992   6.1769978  38.2410014
 119.4599992   6.3999978  37.8520014 118.7687235   6.5951754  38.3412413
 121.5209992   1.3379978  34.4640014 121.4229992   2.2839978  34.3590014
 120.7789992   0.9649978  33.9880014 121.4072534   1.4171773  34.3852600
 122.7849992   5.6589978  38.0280014 122.5499992   5.4399978  38.9290014
 122.0019992   5.4519978  37.5180014 122.6469095   5.6009892  38.0825353
 125.5009992   4.7869978  37.1030014 124.5529992   4.8189978  37.2350014
 125.8129992   4.1609978  37.7570014 125.4135293   4.7067923  37.2094148
 127.1349992   3.4209978  39.1080014 127.0379992   2.4689978  39.1030014
 126.8129992   3.6889978  39.9690014 127.0782468   3.3270884  39.2236210
 116.9619992   4.6299978  38.1560014 117.1739992   3.9239978  37.5460014
 116.8509992   4.1929978  39.0000014 116.9760269   4.4741921  38.1865873
 121.7429992   0.6319978  37.1350014 122.4549992  -0.0080022  37.1210014
 121.6419992   0.8979978  36.2220014 121.8267387   0.5804330  37.0095563
 122.0969992   2.3139978  39.1890014 121.9649992   1.8389978  38.3690014
 121.4969992   3.0589978  39.1340014 121.9979070   2.3495789  39.0693251
 121.6429992  19.1969978  22.3650014 122.5759992  19.3549978  22.5090014
 121.3789992  19.8729978  21.7400014 121.7349911  19.3099373  22.3002722
 115.2109992  13.8339978  21.8480014 116.1249992  13.9129978  22.1210014
 115.2189992  13.1469978  21.1820014 115.3370655  13.7519205  21.7952917
 113.8599992  19.2269978  26.9250014 113.2129992  18.7649978  26.3930014
 114.2149992  18.5549978  27.5080014 113.8193741  19.0729774  26.9309175
 114.7299992  17.3069978  28.7300014 114.3959992  16.4269978  28.9020014
 114.9529992  17.6529978  29.5950014 114.7143721  17.2331938  28.8704168
 132.2789992  18.1169978  31.7110014 132.2569992  18.3019978  32.6500014
 132.9689992  18.6849978  31.3700014 132.3693439  18.2191887  31.7934791
 131.8419992  17.6839978  34.6320014 131.3549992  16.9489978  34.2610014
 132.3909992  17.2899978  35.3100014 131.8495247  17.5301057  34.6728461
 130.2929992  13.4739978  39.2710014 129.4269992  13.3689978  39.6650014
 130.6689992  14.2319978  39.7170014 130.2253401  13.5621708  39.3852620
 131.5939992  11.7299978  24.7850014 132.4439992  12.1509978  24.9120014
 131.5989992  10.9899978  25.3920014 131.7111143  11.6876094  24.8844750
 131.9879992   9.7839978  26.6080014 131.2619992   9.3039978  27.0060014
 132.5699992   9.9889978  27.3410014 131.9672730   9.7460184  26.7614149
 131.7469992  12.5689978  31.5560014 132.5809992  12.1909978  31.2750014
 131.8589992  13.5119978  31.4370014 131.8761917  12.6447943  31.5014861
 130.2339992  15.4469978  33.8630014 129.5859992  15.7719978  34.4880014
 129.7159992  15.0059978  33.1890014 130.0754196  15.4318651  33.8574152
 132.2569992   9.6849978  22.9990014 131.7349992  10.0409978  22.2810014
 132.2239992  10.3599978  23.6780014 132.1810129   9.8249598  22.9923355
 130.6059992   6.9239978  21.5500014 130.7019992   7.5909978  20.8700014
 130.4659992   6.1089978  21.0690014 130.6002040   6.9050671  21.3918378
 129.7749992   8.3049978  27.1710014 129.6249992   7.3599978  27.1510014
 129.4209992   8.5859978  28.0150014 129.7066351   8.2136644  27.2823220
 114.8099992  10.3829978  31.1820014 114.9949992  10.3009978  30.2460014
 115.6599992  10.2589978  31.6050014 114.9500928  10.3550463  31.1112893
 130.6309992  10.2749978  36.8100014 131.2139992   9.5399978  37.0020014
 131.1949992  11.0469978  36.8570014 130.7869781  10.2788145  36.8426164
 132.1279992   8.1779978  37.4950014 131.2649992   7.7989978  37.3290014
 132.7319992   7.4389978  37.4200014 132.0916085   8.0263223  37.4621695
 129.8529992   4.3319978  20.6680014 130.4639992   3.9609978  21.3050014
 129.0159992   3.9109978  20.8640014 129.8234947   4.2242756  20.7817252
 129.4859992   5.8869978  25.6340014 129.7649992   4.9799978  25.7580014
 130.2449992   6.3209978  25.2450014 129.6268619   5.8214502  25.5983795
 130.0969992   6.4689978  31.0700014 131.0299992   6.6809978  31.0350014
 129.8619992   6.5699978  31.9920014 130.1929517   6.5116833  31.1899130
 130.1269992   7.2059978  33.8460014 129.2839992   7.4739978  34.2120014
 130.5689992   8.0279978  33.6350014 130.0714138   7.3538273  33.8675518
 114.4079992   5.6529978  37.3220014 115.3269992   5.5309978  37.5590014
 113.9579992   4.9029978  37.7120014 114.4730087   5.5349608  37.4071410
 132.4099992   1.1859978  39.1990014 132.7589992   0.5319978  38.5940014
 132.5569992   2.0229978  38.7590014 132.4776824   1.2096024  39.0566304
 130.0989992   3.1499978  25.6820014 130.2809992   2.7009978  26.5070014
 129.4989992   2.5659978  25.2180014 130.0428187   3.0095552  25.7322739
 115.6289992   3.9659978  30.2140014 116.0739992   3.1739978  30.5160014
 116.0949992   4.6819978  30.6440014 115.7529718   3.9544534  30.3135265
 113.9329992   6.9649978  31.2830014 114.4249992   6.7439978  30.4920014
 114.2949992   7.8049978  31.5640014 114.0492923   7.0483468  31.2127407
 131.9289992   3.2949978  37.5480014 131.0119992   3.5659978  37.5130014
 132.0519992   2.7599978  36.7640014 131.8199672   3.2597885  37.4371862
 131.9659992   3.2179978  22.2100014 132.3779992   2.4969978  21.7350014
 132.6469992   3.8869978  22.2680014 132.1145536   3.2097766  22.1528024
 114.2469992   3.2229978  25.3370014 113.3219992   3.4309978  25.2080014
 114.7009992   3.7069978  24.6470014 114.1816298   3.3169299  25.2260451
 129.0169992  18.2069978  27.2830014 129.6699992  17.8589978  26.6750014
 129.5279992  18.6949978  27.9290014 129.1752777  18.2253815  27.2872047
 114.2099992   1.9609978  33.6810014 113.5449992   1.7149978  34.3240014
 113.7669992   2.5829978  33.1040014 114.0591168   2.0114214  33.6909848
 116.4019992  15.1359978  37.8260014 115.5809992  15.3109978  37.3650014
 116.1499992  15.0629978  38.7460014 116.2555594  15.1500717  37.8873611
 119.3559992  16.1099978  34.0840014 118.9319992  16.9199978  33.8020014
 120.2609992  16.1959978  33.7820014 119.4202138  16.2324160  34.0046415
 123.6679992  17.5089978  37.0440014 123.8519992  17.1759978  37.9220014
 124.5139992  17.8189978  36.7220014 123.8076484  17.5052979  37.1207617
 126.0129992  18.7949978  36.2880014 126.6899992  18.1619978  36.0480014
 126.3339992  19.1959978  37.0950014 126.1491323  18.7625691  36.3643158
 130.9299992   1.3849978  35.3670014 130.1169992   1.7099978  34.9800014
 131.1629992   0.6239978  34.8340014 130.8501347   1.3266880  35.2419841
 116.7579992  19.3669978  34.1320014 116.0379992  19.8069978  33.6810014
 116.3929992  19.1159978  34.9800014 116.6099643  19.3933369  34.1849129
 119.2249992  18.9669978  33.1620014 118.3609992  19.0389978  33.5660014
 119.1699992  19.5139978  32.3780014 119.0991942  19.0507849  33.1114000
 123.9359992  18.8549978  32.3370014 123.4789992  19.3839978  31.6830014
 124.0989992  19.4579978  33.0620014 123.8954960  19.0089280  32.3455274
 126.2639992  17.7329978  33.2820014 125.3589992  17.8979978  33.0160014
 126.6919992  18.5859978  33.2160014 126.1981537  17.8709134  33.2367095
 128.8679992  19.3029978  33.5770014 128.6859992  20.2189978  33.3660014
 129.0449992  18.8919978  32.7300014 128.8670030  19.3728273  33.4337166
 116.1729992  17.9899978  31.0420014 116.1549992  17.5639978  31.8990014
 116.9779992  17.6709978  30.6330014 116.2792875  17.8886435  31.1039515
 118.3139992  16.6999978  29.6970014 118.0949992  15.7829978  29.8670014
 119.1379992  16.8399978  30.1630014 118.3954702  16.5935511  29.7832527
 120.8509992  17.1699978  30.5460014 121.0639992  16.2819978  30.2590014
 120.9159992  17.1349978  31.5000014 120.8889149  17.0438326  30.6357369
 124.3599992   2.8339978  29.6900014 123.6859992   2.2039978  29.9460014
 124.9239992   2.3499978  29.0870014 124.3440384   2.6823708  29.6435020
 129.5029992   0.9409978  29.8030014 130.1059992   1.4889978  29.3010014
 128.6329992   1.2599978  29.5620014 129.4679157   1.0590373  29.7017910
 131.2299992   2.0799978  28.1360014 131.8409992   1.5659978  27.6090014
 131.6119992   2.9569978  28.1590014 131.3653305   2.1282050  28.0669418
 116.6869992   1.4679978  27.5120014 115.9099992   1.2329978  27.0050014
 117.2169992   0.6709978  27.5210014 116.6523451   1.3281268  27.4438627
 115.5229992   1.2659978  23.3160014 115.9619992   1.8769978  22.7240014
 114.8889992   1.8039978  23.7900014 115.4973859   1.4224064  23.2990305
 121.2659992   1.3939978  27.3250014 122.1399992   1.7829978  27.2960014
 121.1299992   1.1789978  28.2480014 121.3671953   1.4181643  27.4457617
 126.8229992   1.4239978  28.9750014 126.8989992   1.5199978  28.0250014
 126.5479992   0.5169978  29.1030014 126.7961871   1.3144146  28.8623944
 128.1759992   1.4499978  24.6670014 127.4729992   2.0649978  24.4570014
 127.7309992   0.6129978  24.7980014 128.0196550   1.4209668  24.6559837
 115.4239992  17.2139978  24.2130014 114.7389992  17.1759978  23.5460014
 115.4279992  18.1269978  24.5010014 115.3307621  17.3321924  24.1606126
 117.3839992   3.1819978  21.7580014 117.8749992   2.5519978  21.2310014
 118.0069992   3.4779978  22.4210014 117.5355304   3.1357376  21.7754940
 122.4099992   3.4749978  24.2150014 122.5879992   2.8279978  24.8980014
 122.3559992   4.3089978  24.6820014 122.4270678   3.4991604  24.3716301
 124.2879992  18.4229978  22.6110014 125.1539992  18.7899978  22.4330014
 124.0419992  17.9839978  21.7970014 124.3732097  18.4138525  22.4766019
 130.9969992  17.9859978  25.2900014 130.8029992  17.2379978  24.7250014
 130.9579992  18.7439978  24.7070014 130.9651645  17.9860786  25.1338148
 116.6439992   1.9819978  37.0300014 116.2779992   1.2159978  37.4720014
 117.5569992   2.0109978  37.3160014 116.7173172   1.8810324  37.1291890
 118.6169992   1.3319978  38.5650014 119.5159992   1.0579978  38.3810014
 118.2309992   0.5899978  39.0300014 118.6877307   1.1942196  38.6027098
 117.2419992  18.1339978  21.2380014 116.9739992  18.4199978  22.1120014
 118.0129992  17.5879978  21.3910014 117.3095926  18.0992779  21.3781205
 127.0389992   0.6649978  38.7480014 127.1149992   0.2389978  39.6010014
 127.9319992   0.6779978  38.4050014 127.1702303   0.6083493  38.8185497
 130.2149992  16.7379978  37.4400014 129.4329992  16.5509978  36.9200014
 130.1429992  17.6669978  37.6570014 130.0981924  16.8380637  37.3981602
 144.6209992  10.6239978  27.4710014 144.7099992  11.5679978  27.3390014
 143.9829992  10.3489978  26.8130014 144.5469062  10.7159812  27.3639641
 143.5539992   9.8789978  30.8900014 143.5159992   9.2329978  31.5950014
 143.2319992   9.4119978  30.1190014 143.5052679   9.7274276  30.8822921
 135.9219992   9.4929978  32.4830014 135.9639992   8.8679978  33.2060014
 136.6249992  10.1169978  32.6650014 136.0227345   9.4917873  32.6065274
 136.8459992  13.9429978  31.0180014 136.4759992  13.1409978  30.6480014
 137.7869992  13.7749978  31.0640014 136.9225984  13.8104638  30.9735603
 133.4559992   7.6029978  26.4100014 133.0079992   8.4489978  26.3920014
 132.8949992   7.0239978  25.8950014 133.3188546   7.6403993  26.3378891
 134.1659992   9.7649978  28.5360014 134.3799992   8.9949978  29.0640014
 134.9039992   9.8549978  27.9330014 134.2950200   9.6718587  28.5267035
 144.3719992  17.9219978  29.4030014 144.9909992  17.2459978  29.1300014
 144.1629992  17.7039978  30.3120014 144.4286056  17.7998869  29.4883967
 141.9429992  12.3109978  31.2960014 142.2469992  11.6249978  30.7010014
 142.6649992  12.4299978  31.9140014 142.0821240  12.2332314  31.2980959
 145.0839992   6.7049978  31.6230014 145.2269992   5.7589978  31.6430014
 144.9779992   6.9119978  30.6950014 145.0892403   6.6034797  31.5002239
 138.2389992   4.8069978  28.8960014 138.2819992   5.6669978  28.4770014
 137.7809992   4.2549978  28.2620014 138.1829871   4.8499245  28.7530761
 134.8589992   7.2039978  29.6580014 135.5129992   6.6539978  30.0900014
 134.8829992   6.9299978  28.7410014 134.9517199   7.0917167  29.5931668
 140.0159992   8.7539978  28.8730014 140.6319992   8.2269978  29.3820014
 139.4289992   8.1139978  28.4690014 140.0210154   8.5953954  28.8880945
 137.0489992   3.7249978  32.9700014 136.8299992   4.2549978  32.2030014
 136.3809992   3.9509978  33.6170014 136.9286975   3.8280967  32.9525140
 144.4179992  13.2249978  26.5140014 144.1229992  12.9019978  25.6620014
 144.0939992  14.1249978  26.5550014 144.3338460  13.3024464  26.4029714
 139.6179992  11.3999978  33.2570014 138.8779992  11.9989978  33.3610014
 140.3319992  11.9539978  32.9420014 139.6133500  11.5567829  33.2286371
 136.6429992   5.6169978  30.9220014 137.2569992   6.2499978  31.2950014
 137.1549992   5.1449978  30.2660014 136.7961962   5.6397249  30.8842935
 138.0259992  13.3649978  34.0440014 138.0199992  14.2439978  33.6660014
 137.1719992  13.2809978  34.4690014 137.9097925  13.4739535  34.0496887
 134.1469992  13.0359978  24.8260014 133.8749992  13.2649978  23.9380014
 134.1919992  13.8729978  25.2870014 134.1158097  13.1806163  24.7666683
 141.0759992   1.0299978  30.4220014 140.9579992   0.0819978  30.3680014
 140.2209992   1.3629978  30.6950014 140.9442805   0.9452202  30.4515079
 143.3419992   9.8679978  24.9230014 142.6309992  10.4029978  24.5710014
 144.0329992   9.9229978  24.2630014 143.3380751   9.9486777  24.7855858
 143.3959992   8.3249978  21.9610014 144.0969992   8.3479978  22.6130014
 143.6979992   7.6969978  21.3050014 143.5328202   8.2432212  21.9615609
 138.3929992  10.7079978  27.7570014 138.0629992  10.3369978  26.9390014
 138.9819992  10.0369978  28.1040014 138.4273970  10.5666063  27.6919404
 139.7599992  14.1359978  30.4380014 139.6649992  13.5569978  29.6820014
 140.4889992  13.7649978  30.9340014 139.8456011  14.0065561  30.4016028
 138.7599992   9.4759978  31.3900014 139.3249992   9.5979978  30.6280014
 139.0789992  10.1139978  32.0290014 138.8804166   9.5788791  31.3720348
 145.0689992  14.9799978  32.1240014 144.8289992  15.6419978  32.7720014
 144.8709992  14.1449978  32.5490014 145.0093826  14.9578115  32.2701566
 139.6399992  13.8759978  36.1080014 139.3289992  14.6579978  36.5630014
 138.9899992  13.7229978  35.4220014 139.5095538  13.9624087  36.0775898
 136.5599992  10.0739978  35.3360014 136.6299992  10.7249978  36.0350014
 135.6689992  10.1769978  35.0010014 136.4491690  10.1769249  35.3863043
 143.3449992  15.9759978  26.9950014 143.8189992  16.2719978  27.7720014
 142.7819992  16.7149978  26.7620014 143.3337890  16.1163036  27.0698101
 137.8789992  15.9469978  36.8710014 137.8869992  15.8109978  35.9240014
 136.9629992  15.8299978  37.1230014 137.7562528  15.9125463  36.7753243
 137.3839992   9.7769978  25.3460014 137.0919992  10.5449978  24.8550014
 136.7089992   9.1179978  25.1830014 137.2528497   9.7929745  25.2568260
 133.4769992  12.1399978  34.1610014 132.9749992  12.1119978  33.3460014
 133.4819992  11.2349978  34.4710014 133.4089832  12.0137486  34.0914121
 133.2269992  14.9209978  31.0450014 134.1729992  14.7759978  31.0260014
 133.1139992  15.7049978  31.5820014 133.3413578  15.0071697  31.1150317
 142.4029992  15.1609978  35.6040014 142.4909992  15.9869978  36.0790014
 141.5399992  14.8309978  35.8530014 142.2983357  15.2295468  35.7027653
 142.8179992  18.9329978  25.4100014 142.7419992  18.8119978  24.4630014
 142.8499992  19.8819978  25.5280014 142.8119380  19.0447677  25.2965181
 136.4709992  17.7219978  27.1910014 136.6229992  17.3739978  28.0690014
 135.6199992  17.3649978  26.9350014 136.3768344  17.6260879  27.2766868
 135.7259992  13.4639978  35.2040014 135.9419992  13.1019978  36.0640014
 134.8699992  13.0889978  34.9950014 135.6398810  13.3638837  35.2932680
 138.3439992   1.9339978  31.2000014 137.4829992   1.8469978  30.7920014
 138.3219992   2.7899978  31.6280014 138.2230491   2.0378003  31.2019582
 143.0069992   1.6559978  34.5750014 143.4269992   1.2409978  35.3280014
 142.0739992   1.4769978  34.6920014 142.9383736   1.5749910  34.6938968
 142.6689992   4.1479978  21.8600014 142.4149992   4.1669978  22.7820014
 142.4119992   3.2769978  21.5580014 142.5994508   4.0328280  21.9454803
 138.4349992   6.8989978  32.2950014 137.7939992   6.8589978  33.0040014
 138.4729992   7.8259978  32.0570014 138.3523010   7.0187668  32.3599946
 138.4319992   7.1199978  27.2070014 137.5399992   6.7799978  27.1480014
 138.8829992   6.7429978  26.4510014 138.3707642   7.0224910  27.0967726
 143.9679992   7.5359978  26.0240014 143.5589992   8.3509978  25.7320014
 144.6879992   7.3959978  25.4100014 144.0094439   7.6285372  25.9010115
 143.0699992   7.7119978  37.5120014 142.5069992   7.0069978  37.8330014
 143.8959992   7.5909978  37.9800014 143.1046674   7.5992165  37.6191751
 144.9729992   6.9819978  28.8380014 144.7769992   7.5879978  28.1230014
 145.1539992   6.1489978  28.4040014 144.9706584   6.9522513  28.6814212
 136.1849992   7.2199978  34.1620014 136.1469992   7.6199978  35.0310014
 135.6949992   6.4029978  34.2520014 136.1135330   7.1642674  34.2931289
 139.5509992   4.5939978  20.9610014 139.1199992   4.1489978  21.6900014
 138.8329992   4.9649978  20.4480014 139.3949176   4.5832051  20.9914930
 132.7939992   4.3359978  28.0130014 133.4239992   4.3069978  28.7320014
 133.2429992   3.9109978  27.2820014 132.9410835   4.2745660  28.0127659
 134.0679992   5.0819978  23.4370014 134.5419992   5.6729978  22.8520014
 133.3499992   5.6119978  23.7840014 134.0358640   5.2345511  23.4037969
 144.2369992   8.6199978  33.5090014 144.5599992   7.9889978  32.8660014
 143.7959992   8.0859978  34.1700014 144.2216379   8.4613468  33.5102582
 141.0139992   4.5479978  28.2930014 140.1029992   4.6049978  28.5820014
 141.5189992   4.4879978  29.1040014 140.9576873   4.5476826  28.4421207
 135.8419992   6.1769978  27.1200014 134.9529992   6.2759978  26.7800014
 136.1389992   5.3349978  26.7740014 135.7604177   6.0767687  27.0266940
 139.4949992   6.1769978  24.7770014 140.4269992   6.3059978  24.9550014
 139.2799992   6.8459978  24.1270014 139.5934472   6.2850806  24.7134891
 145.4189992   3.7829978  31.5580014 144.7419992   3.9139978  32.2210014
 144.9339992   3.6279978  30.7470014 145.2607405   3.7799947  31.5392170
 138.1689992   7.3709978  22.3430014 137.6269992   6.9919978  21.6520014
 139.0029992   7.5659978  21.9150014 138.2074390   7.3454079  22.1904392
 136.3049992  11.9279978  37.4420014 137.0369992  12.1829978  38.0040014
 135.5239992  12.1329978  37.9580014 136.2996526  11.9905450  37.5885176
 142.3339992   7.3349978  30.1800014 142.8979992   6.7889978  29.6330014
 142.1859992   6.8139978  30.9690014 142.3913037   7.1896787  30.2117229
 137.3359992   3.4719978  26.5990014 137.0189992   2.5689978  26.5630014
 138.1169992   3.4739978  26.0460014 137.3982431   3.3487797  26.5193102
 140.9599992   5.7239978  32.5940014 140.1249992   6.1779978  32.7050014
 141.4839992   5.9999978  33.3460014 140.9166072   5.8233948  32.7108136
 141.5049992  11.9369978  24.2790014 140.7599992  11.4289978  23.9570014
 141.3699992  11.9859978  25.2250014 141.3848963  11.8741731  24.3628826
 145.4019992   4.7509978  22.4780014 144.4639992   4.8619978  22.3270014
 145.6999992   5.6069978  22.7850014 145.3136318   4.8820158  22.4988145
 143.0239992  12.1209978  35.5160014 142.6779992  11.7389978  36.3230014
 142.8239992  13.0539978  35.5870014 142.9495987  12.1949002  35.6360461
 136.6289992  11.2319978  30.0490014 137.3739992  11.2289978  29.4470014
 136.7069992  10.4079978  30.5300014 136.7413365  11.1202384  30.0317430
 143.6299992  13.3949978  23.3040014 143.3349992  14.2219978  23.6860014
 142.9269992  12.7759978  23.5010014 143.4946379  13.4244171  23.3828654
 133.6369992   9.6919978  35.3640014 133.8599992   9.2739978  36.1950014
 133.0349992   9.0799978  34.9410014 133.5861513   9.5519606  35.4206740
 140.6539992   9.2089978  37.5770014 140.3579992   9.0439978  36.6810014
 141.5849992   8.9889978  37.5660014 140.7394401   9.1566879  37.4530206
 145.2739992  14.5829978  35.4660014 144.3739992  14.7659978  35.1990014
 145.3079992  14.8419978  36.3870014 145.1553748  14.6430554  35.5539164
 139.0039992  14.7499978  27.4530014 139.5319992  15.5229978  27.2530014
 138.1239992  14.9739978  27.1510014 138.9573435  14.8862700  27.3847310
 134.7589992   9.6119978  22.0400014 135.3749992  10.2389978  22.4200014
 133.8969992   9.9279978  22.3120014 134.7267678   9.7404412  22.1287209
 140.4319992  12.4129978  27.0290014 140.1909992  13.3379978  27.0710014
 139.6909992  11.9539978  27.4260014 140.2989206  12.4775915  27.0883769
 140.9459992  16.5619978  33.3440014 141.3089992  17.4159978  33.1110014
 141.4779992  16.2699978  34.0850014 141.0675141  16.6393895  33.4122097
 139.1149992  17.4339978  26.5750014 138.1649992  17.5399978  26.6260014
 139.4669992  18.2549978  26.9190014 139.0325472  17.5594923  26.6284852
 144.4899992  12.6609978  33.0450014 144.0649992  12.4329978  33.8710014
 145.0709992  11.9219978  32.8630014 144.5103395  12.5299545  33.1334414
 135.2709992   4.4459978  34.9220014 134.3789992   4.7839978  34.8540014
 135.1729992   3.5899978  35.3400014 135.1354475   4.3766543  34.9691704
 134.9229992  16.2499978  33.3570014 135.1399992  15.3179978  33.3260014
 135.1689992  16.5249978  34.2400014 134.9859809  16.1595686  33.4721691
 140.7839992  14.7019978  20.5660014 141.0229992  13.9529978  20.0190014
 140.5149992  14.3139978  21.3990014 140.7803233  14.5471853  20.6037809
 139.7209992  14.2719978  23.0220014 139.8679992  13.7519978  23.8120014
 139.7179992  15.1789978  23.3290014 139.7407102  14.3233953  23.1715925
 136.1739992  11.5239978  23.5330014 135.4879992  11.8769978  24.1000014
 136.6969992  12.2869978  23.2860014 136.1508402  11.6753901  23.5771801
 144.0059992   4.1869978  33.8120014 144.7049992   4.2609978  34.4620014
 143.6249992   3.3219978  33.9660014 144.0502097   4.0802389  33.9217997
 144.7899992   3.8389978  24.9090014 145.0099992   4.3099978  24.1050014
 145.3489992   4.2329978  25.5790014 144.8956731   3.9567287  24.8895033
 142.4589992  15.9689978  23.7720014 141.6419992  16.4659978  23.8240014
 142.9879992  16.4449978  23.1310014 142.4188125  16.1011989  23.6925306
 141.9899992   5.5669978  25.7440014 142.8019992   6.0709978  25.7900014
 141.7459992   5.4219978  26.6580014 142.0681467   5.6163749  25.8738575
 142.5259992   6.5529978  34.9280014 142.6449992   7.1269978  35.6850014
 143.1809992   5.8649978  35.0430014 142.6308684   6.5385194  35.0471674
 142.8739992   2.6479978  26.6820014 142.5269992   3.2649978  27.3260014
 143.5329992   3.1489978  26.2000014 142.9155090   2.8001575  26.7050681
 139.7969992  17.0129978  23.7530014 139.9579992  17.8129978  23.2530014
 139.5999992  17.3199978  24.6380014 139.7923906  17.1638678  23.8042333
 138.5319992   3.7109978  23.3690014 138.4479992   4.5989978  23.7160014
 139.4219992   3.4459978  23.6010014 138.6408163   3.7967179  23.4478596
 136.7899992  14.1379978  22.4290014 137.3819992  14.8379978  22.7060014
 137.2489992  13.7049978  21.7100014 136.9331652  14.1752675  22.3696533
 135.1059992   6.8029978  21.5450014 135.0609992   7.7419978  21.7240014
 134.2179992   6.5669978  21.2760014 134.9798166   6.8996687  21.5331524
 135.9139992   1.5839978  30.2190014 135.6849992   1.6429978  29.2910014
 135.4719992   0.7929978  30.5250014 135.8228801   1.4850540  30.1334729
 134.8449992  15.5249978  26.3790014 134.0119992  15.9969978  26.4060014
 135.3899992  16.0349978  25.7800014 134.8047857  15.6584791  26.3017142
 134.1329992  18.1369978  37.7090014 134.6729992  17.9209978  38.4690014
 133.6519992  17.3319978  37.5190014 134.1419219  17.9985156  37.7874282
 138.7299992  17.0569978  39.3290014 139.4979992  16.5979978  39.6700014
 138.7089992  16.8309978  38.3990014 138.8322135  16.9636668  39.2499491
 142.8219992  16.5649978  20.7050014 142.1779992  15.9339978  21.0260014
 143.5839992  16.0339978  20.4730014 142.8368058  16.4067902  20.7176038
 145.3069992  15.4369978  38.0580014 144.9559992  14.5799978  38.3020014
 146.0329992  15.5789978  38.6650014 145.3571895  15.3391351  38.1733770
 134.0399992  11.9479978  38.6630014 134.1839992  11.0459978  38.3770014
 133.2679992  12.2339978  38.1760014 133.9552733  11.8631798  38.5579532
 138.3809992  12.2909978  20.7960014 138.4459992  11.4969978  21.3260014
 139.0339992  12.1729978  20.1060014 138.4781605  12.1663430  20.7752997
 140.6949992  11.9169978  38.0960014 140.3669992  12.1879978  37.2390014
 140.8469992  10.9759978  38.0080014 140.6706412  11.8269046  37.9667822
 143.7339992  13.3379978  20.5320014 143.4649992  13.5189978  21.4320014
 143.5269992  12.4129978  20.4000014 143.6691191  13.2377119  20.6375524
 134.8729992   9.1479978  38.0830014 135.2809992   8.2909978  37.9620014
 134.6119992   9.1619978  39.0040014 134.8936016   9.0325119  38.1909192
 139.5309992  10.2639978  23.1020014 139.0709992   9.7799978  23.7870014
 139.7859992   9.5949978  22.4660014 139.5024856  10.1073669  23.1098397
 138.8199992   8.1569978  35.4580014 138.2009992   8.8309978  35.7380014
 139.1639992   8.4779978  34.6240014 138.7817123   8.2926887  35.3836388
 140.6019992   8.5069978  21.3640014 140.4209992   8.3519978  20.4370014
 141.5519992   8.6149978  21.4090014 140.7056566   8.5003669  21.2430929
 143.8389992  10.6279978  38.7350014 144.7929992  10.7119978  38.7080014
 143.6789992   9.9159978  39.3550014 143.9477182  10.5432842  38.8150733
 139.1589992   5.5119978  36.5400014 139.3089992   4.7829978  35.9380014
 139.1609992   6.2889978  35.9810014 139.1797967   5.5172708  36.3820541
 139.5719992   3.8809978  34.0330014 140.1069992   4.3329978  33.3810014
 138.7189992   3.7729978  33.6100014 139.5300374   3.9282665  33.8866710
 141.1529992   9.3209978  34.2720014 141.9039992   9.1649978  33.6990014
 140.8139992  10.1729978  33.9970014 141.2099587   9.4148138  34.1564078
 145.5689992   7.1359978  39.3010014 145.7609992   6.2049978  39.1890014
 146.4269992   7.5609978  39.2900014 145.7112182   7.0660070  39.2841862
 137.6379992   6.7099978  38.4510014 136.8699992   6.1769978  38.2410014
 138.3159992   6.3999978  37.8520014 137.6247235   6.5951754  38.3412413
 140.3769992   1.3379978  34.4640014 140.2789992   2.2839978  34.3590014
 139.6349992   0.9649978  33.9880014 140.2632534   1.4171773  34.3852600
 141.6409992   5.6589978  38.0280014 141.4059992   5.4399978  38.9290014
 140.8579992   5.4519978  37.5180014 141.5029095   5.6009892  38.0825353
 144.3569992   4.7869978  37.1030014 143.4089992   4.8189978  37.2350014
 144.6689992   4.1609978  37.7570014 144.2695293   4.7067923  37.2094148
 135.8179992   4.6299978  38.1560014 136.0299992   3.9239978  37.5460014
 135.7069992   4.1929978  39.0000014 135.8320269   4.4741921  38.1865873
 140.5989992   0.6319978  37.1350014 141.3109992  -0.0080022  37.1210014
 140.4979992   0.8979978  36.2220014 140.6827387   0.5804330  37.0095563
 140.9529992   2.3139978  39.1890014 140.8209992   1.8389978  38.3690014
 140.3529992   3.0589978  39.1340014 140.8539070   2.3495789  39.0693251
 140.4989992  19.1969978  22.3650014 141.4319992  19.3549978  22.5090014
 140.2349992  19.8729978  21.7400014 140.5909911  19.3099373  22.3002722
 134.0669992  13.8339978  21.8480014 134.9809992  13.9129978  22.1210014
 134.0749992  13.1469978  21.1820014 134.1930655  13.7519205  21.7952917
 132.7159992  19.2269978  26.9250014 132.0689992  18.7649978  26.3930014
 133.0709992  18.5549978  27.5080014 132.6753741  19.0729774  26.9309175
 133.5859992  17.3069978  28.7300014 133.2519992  16.4269978  28.9020014
 133.8089992  17.6529978  29.5950014 133.5703721  17.2331938  28.8704168
 133.6659992  10.3829978  31.1820014 133.8509992  10.3009978  30.2460014
 134.5159992  10.2589978  31.6050014 133.8060928  10.3550463  31.1112893
 133.2639992   5.6529978  37.3220014 134.1829992   5.5309978  37.5590014
 132.8139992   4.9029978  37.7120014 133.3290087   5.5349608  37.4071410
 134.4849992   3.9659978  30.2140014 134.9299992   3.1739978  30.5160014
 134.9509992   4.6819978  30.6440014 134.6089718   3.9544534  30.3135265
 132.7889992   6.9649978  31.2830014 133.2809992   6.7439978  30.4920014
 133.1509992   7.8049978  31.5640014 132.9052923   7.0483468  31.2127407
 133.1029992   3.2229978  25.3370014 132.1779992   3.4309978  25.2080014
 133.5569992   3.7069978  24.6470014 133.0376298   3.3169299  25.2260451
 133.0659992   1.9609978  33.6810014 132.4009992   1.7149978  34.3240014
 132.6229992   2.5829978  33.1040014 132.9151168   2.0114214  33.6909848
 135.2579992  15.1359978  37.8260014 134.4369992  15.3109978  37.3650014
 135.0059992  15.0629978  38.7460014 135.1115594  15.1500717  37.8873611
 138.2119992  16.1099978  34.0840014 137.7879992  16.9199978  33.8020014
 139.1169992  16.1959978  33.7820014 138.2762138  16.2324160  34.0046415
 142.5239992  17.5089978  37.0440014 142.7079992  17.1759978  37.9220014
 143.3699992  17.8189978  36.7220014 142.6636484  17.5052979  37.1207617
 144.8689992  18.7949978  36.2880014 145.5459992  18.1619978  36.0480014
 145.1899992  19.1959978  37.0950014 145.0051323  18.7625691  36.3643158
 135.6139992  19.3669978  34.1320014 134.8939992  19.8069978  33.6810014
 135.2489992  19.1159978  34.9800014 135.4659643  19.3933369  34.1849129
 138.0809992  18.9669978  33.1620014 137.2169992  19.0389978  33.5660014
 138.0259992  19.5139978  32.3780014 137.9551942  19.0507849  33.1114000
 142.7919992  18.8549978  32.3370014 142.3349992  19.3839978  31.6830014
 142.9549992  19.4579978  33.0620014 142.7514960  19.0089280  32.3455274
 145.1199992  17.7329978  33.2820014 144.2149992  17.8979978  33.0160014
 145.5479992  18.5859978  33.2160014 145.0541537  17.8709134  33.2367095
 135.0289992  17.9899978  31.0420014 135.0109992  17.5639978  31.8990014
 135.8339992  17.6709978  30.6330014 135.1352875  17.8886435  31.1039515
 137.1699992  16.6999978  29.6970014 136.9509992  15.7829978  29.8670014
 137.9939992  16.8399978  30.1630014 137.2514702  16.5935511  29.7832527
 139.7069992  17.1699978  30.5460014 139.9199992  16.2819978  30.2590014
 139.7719992  17.1349978  31.5000014 139.7449149  17.0438326  30.6357369
 143.2159992   2.8339978  29.6900014 142.5419992   2.2039978  29.9460014
 143.7799992   2.3499978  29.0870014 143.2000384   2.6823708  29.6435020
 135.5429992   1.4679978  27.5120014 134.7659992   1.2329978  27.0050014
 136.0729992   0.6709978  27.5210014 135.5083451   1.3281268  27.4438627
 134.3789992   1.2659978  23.3160014 134.8179992   1.8769978  22.7240014
 133.7449992   1.8039978  23.7900014 134.3533859   1.4224064  23.2990305
 140.1219992   1.3939978  27.3250014 140.9959992   1.7829978  27.2960014
 139.9859992   1.1789978  28.2480014 140.2231953   1.4181643  27.4457617
 134.2799992  17.2139978  24.2130014 133.5949992  17.1759978  23.5460014
 134.2839992  18.1269978  24.5010014 134.1867621  17.3321924  24.1606126
 136.2399992   3.1819978  21.7580014 136.7309992   2.5519978  21.2310014
 136.8629992   3.4779978  22.4210014 136.3915304   3.1357376  21.7754940
 141.2659992   3.4749978  24.2150014 141.4439992   2.8279978  24.8980014
 141.2119992   4.3089978  24.6820014 141.2830678   3.4991604  24.3716301
 143.1439992  18.4229978  22.6110014 144.0099992  18.7899978  22.4330014
 142.8979992  17.9839978  21.7970014 143.2292097  18.4138525  22.4766019
 135.4999992   1.9819978  37.0300014 135.1339992   1.2159978  37.4720014
 136.4129992   2.0109978  37.3160014 135.5733172   1.8810324  37.1291890
 137.4729992   1.3319978  38.5650014 138.3719992   1.0579978  38.3810014
 137.0869992   0.5899978  39.0300014 137.5437307   1.1942196  38.6027098
 136.0979992  18.1339978  21.2380014 135.8299992  18.4199978  22.1120014
 136.8689992  17.5879978  21.3910014 136.1655926  18.0992779  21.3781205
  12.6289992  29.4799978  27.4710014  12.7179992  30.4239978  27.3390014
  11.9909992  29.2049978  26.8130014  12.5549062  29.5719812  27.3639641
  11.5619992  28.7349978  30.8900014  11.5239992  28.0889978  31.5950014
  11.2399992  28.2679978  30.1190014  11.5132679  28.5834276  30.8822921
   3.9299992  28.3489978  32.4830014   3.9719992  27.7239978  33.2060014
   4.6329992  28.9729978  32.6650014   4.0307345  28.3477873  32.6065274
  15.2679992  31.6739978  29.1910014  14.8269992  30.9539978  29.6420014
  15.2549992  32.3949978  29.8210014  15.2059215  31.6729291  29.3378105
   4.8539992  32.7989978  31.0180014   4.4839992  31.9969978  30.6480014
   5.7949992  32.6309978  31.0640014   4.9305984  32.6664638  30.9735603
   1.4639992  26.4589978  26.4100014   1.0159992  27.3049978  26.3920014
   0.9029992  25.8799978  25.8950014   1.3268546  26.4963993  26.3378891
   2.1739992  28.6209978  28.5360014   2.3879992  27.8509978  29.0640014
   2.9119992  28.7109978  27.9330014   2.3030200  28.5278587  28.5267035
  12.3799992  36.7779978  29.4030014  12.9989992  36.1019978  29.1300014
  12.1709992  36.5599978  30.3120014  12.4366056  36.6558869  29.4883967
   9.9509992  31.1669978  31.2960014  10.2549992  30.4809978  30.7010014
  10.6729992  31.2859978  31.9140014  10.0901240  31.0892314  31.2980959
  18.6139992  22.7689978  32.1560014  18.6639992  23.3789978  32.8920014
  19.0399992  23.2299978  31.4330014  18.6784108  22.9147709  32.1590112
  13.0919992  25.5609978  31.6230014  13.2349992  24.6149978  31.6430014
  12.9859992  25.7679978  30.6950014  13.0972403  25.4594797  31.5002239
   6.2469992  23.6629978  28.8960014   6.2899992  24.5229978  28.4770014
   5.7889992  23.1109978  28.2620014   6.1909871  23.7059245  28.7530761
  13.9689992  23.7939978  27.2970014  14.6159992  23.4649978  27.9210014
  14.4789992  24.3109978  26.6740014  14.1264351  23.8189067  27.2981037
   2.8669992  26.0599978  29.6580014   3.5209992  25.5099978  30.0900014
   2.8909992  25.7859978  28.7410014   2.9597199  25.9477167  29.5931668
   8.0239992  27.6099978  28.8730014   8.6399992  27.0829978  29.3820014
   7.4369992  26.9699978  28.4690014   8.0290154  27.4513954  28.8880945
  19.0059992  24.2469978  34.3920014  18.3169992  24.9049978  34.2970014
  19.0209992  24.0489978  35.3290014  18.9137756  24.3102603  34.5055812
   5.0569992  22.5809978  32.9700014   4.8379992  23.1109978  32.2030014
   4.3889992  22.8069978  33.6170014   4.9366975  22.6840967  32.9525140
  12.4259992  32.0809978  26.5140014  12.1309992  31.7579978  25.6620014
  12.1019992  32.9809978  26.5550014  12.3418460  32.1584464  26.4029714
   7.6259992  30.2559978  33.2570014   6.8859992  30.8549978  33.3610014
   8.3399992  30.8099978  32.9420014   7.6213500  30.4127829  33.2286371
  15.7329992  23.0849978  29.2770014  15.5179992  22.3189978  29.8100014
  16.3889992  23.5569978  29.7900014  15.7922673  23.0440728  29.4191990
   4.6509992  24.4729978  30.9220014   5.2649992  25.1059978  31.2950014
   5.1629992  24.0009978  30.2660014   4.8041962  24.4957249  30.8842935
   6.0339992  32.2209978  34.0440014   6.0279992  33.0999978  33.6660014
   5.1799992  32.1369978  34.4690014   5.9177925  32.3299535  34.0496887
   2.1549992  31.8919978  24.8260014   1.8829992  32.1209978  23.9380014
   2.1999992  32.7289978  25.2870014   2.1238097  32.0366163  24.7666683
  15.7799992  33.5129978  31.5390014  14.8379992  33.5719978  31.7010014
  16.0559992  34.4189978  31.4020014  15.6885865  33.6435288  31.5426192
  16.0799992  21.7999978  32.9560014  15.3439992  22.4099978  32.9190014
  16.7639992  22.2149978  32.4300014  16.0715367  21.9397551  32.8798174
   9.0839992  19.8859978  30.4220014   8.9659992  18.9379978  30.3680014
   8.2289992  20.2189978  30.6950014   8.9522805  19.8012202  30.4515079
  14.0319992  35.2939978  28.1640014  14.4569992  34.5869978  27.6790014
  14.3489992  36.0959978  27.7470014  14.1330266  35.3055190  28.0412479
  15.1919992  33.1949978  26.6730014  14.9339992  32.5049978  26.0610014
  15.2629992  32.7519978  27.5180014  15.1663050  33.0406814  26.7035621
  16.8779992  31.7619978  35.1500014  17.0169992  31.1699978  34.4110014
  17.0449992  32.6349978  34.7940014  16.9196193  31.7988896  35.0006211
  11.3499992  28.7239978  24.9230014  10.6389992  29.2589978  24.5710014
  12.0409992  28.7789978  24.2630014  11.3460751  28.8046777  24.7855858
  11.4039992  27.1809978  21.9610014  12.1049992  27.2039978  22.6130014
  11.7059992  26.5529978  21.3050014  11.5408202  27.0992212  21.9615609
  18.7189992  28.1019978  33.2160014  18.0669992  28.7959978  33.3050014
  19.1849992  28.3119978  32.4060014  18.6925937  28.2255019  33.1187533
  14.7559992  28.9329978  25.8740014  14.0239992  29.1619978  26.4480014
  15.2029992  28.2199978  26.3290014  14.7163963  28.8678729  26.0139945
  14.6529992  27.1079978  34.9420014  14.7329992  27.8709978  35.5140014
  14.0519992  27.3869978  34.2520014  14.5826547  27.2502457  34.9270047
   6.4009992  29.5639978  27.7570014   6.0709992  29.1929978  26.9390014
   6.9899992  28.8929978  28.1040014   6.4353970  29.4226063  27.6919404
   7.7679992  32.9919978  30.4380014   7.6729992  32.4129978  29.6820014
   8.4969992  32.6209978  30.9340014   7.8536011  32.8625561  30.4016028
   6.7679992  28.3319978  31.3900014   7.3329992  28.4539978  30.6280014
   7.0869992  28.9699978  32.0290014   6.8884166  28.4348791  31.3720348
  13.0769992  33.8359978  32.1240014  12.8369992  34.4979978  32.7720014
  12.8789992  33.0009978  32.5490014  13.0173826  33.8138115  32.2701566
   7.6479992  32.7319978  36.1080014   7.3369992  33.5139978  36.5630014
   6.9979992  32.5789978  35.4220014   7.5175538  32.8184087  36.0775898
  13.6269992  28.0959978  23.5600014  14.2059992  28.2459978  24.3060014
  14.0409992  28.5659978  22.8360014  13.7623358  28.1800954  23.5643953
   4.5679992  28.9299978  35.3360014   4.6379992  29.5809978  36.0350014
   3.6769992  29.0329978  35.0010014   4.4571690  29.0329249  35.3863043
  11.3529992  34.8319978  26.9950014  11.8269992  35.1279978  27.7720014
  10.7899992  35.5709978  26.7620014  11.3417890  34.9723036  27.0698101
   5.8869992  34.8029978  36.8710014   5.8949992  34.6669978  35.9240014
   4.9709992  34.6859978  37.1230014   5.7642528  34.7685463  36.7753243
  17.3259992  19.8459978  23.3730014  16.4259992  19.9849978  23.6680014
  17.5779992  20.6769978  22.9710014  17.2368683  19.9774055  23.3590232
   5.3919992  28.6329978  25.3460014   5.0999992  29.4009978  24.8550014
   4.7169992  27.9739978  25.1830014   5.2608497  28.6489745  25.2568260
  18.5149992  34.2119978  21.7490014  18.5879992  35.1509978  21.9190014
  19.4199992  33.9069978  21.6930014  18.6474170  34.2993282  21.7647063
   1.4849992  30.9959978  34.1610014   0.9829992  30.9679978  33.3460014
   1.4899992  30.0909978  34.4710014   1.4169832  30.8697486  34.0914121
   1.2349992  33.7769978  31.0450014   2.1809992  33.6319978  31.0260014
   1.1219992  34.5609978  31.5820014   1.3493578  33.8631697  31.1150317
  19.4329992  34.4429978  36.7280014  19.3829992  33.4869978  36.6900014
  18.6059992  34.7099978  37.1290014  19.3143831  34.3484680  36.7770121
  10.4109992  34.0169978  35.6040014  10.4989992  34.8429978  36.0790014
   9.5479992  33.6869978  35.8530014  10.3063357  34.0855468  35.7027653
  10.8259992  37.7889978  25.4100014  10.7499992  37.6679978  24.4630014
  10.8579992  38.7379978  25.5280014  10.8199380  37.9007677  25.2965181
   4.4789992  36.5779978  27.1910014   4.6309992  36.2299978  28.0690014
   3.6279992  36.2209978  26.9350014   4.3848344  36.4820879  27.2766868
  13.9269992  36.9429978  22.4120014  14.3019992  36.1989978  21.9410014
  13.9319992  36.6729978  23.3300014  13.9790098  36.8046392  22.4716629
  13.5959992  36.8689978  25.1610014  12.6609992  36.9689978  25.3400014
  13.8759992  36.1589978  25.7400014  13.5059471  36.7867933  25.2636695
  16.5849992  25.9359978  37.2080014  16.1769992  26.4159978  36.4870014
  16.6249992  25.0299978  36.9000014  16.5346221  25.8792449  37.0678267
   3.7339992  32.3199978  35.2040014   3.9499992  31.9579978  36.0640014
   2.8779992  31.9449978  34.9950014   3.6478810  32.2198837  35.2932680
   6.3519992  20.7899978  31.2000014   5.4909992  20.7029978  30.7920014
   6.3299992  21.6459978  31.6280014   6.2310491  20.8938003  31.2019582
  11.0149992  20.5119978  34.5750014  11.4349992  20.0969978  35.3280014
  10.0819992  20.3329978  34.6920014  10.9463736  20.4309910  34.6938968
  14.3419992  24.2669978  35.4280014  13.8279992  24.1419978  36.2260014
  14.1859992  25.1799978  35.1840014  14.2506967  24.3732123  35.5040937
  15.1039992  29.1279978  21.1890014  15.1459992  28.9059978  20.2590014
  15.9529992  29.5269978  21.3790014  15.2245253  29.1515498  21.0873822
  10.6769992  23.0039978  21.8600014  10.4229992  23.0229978  22.7820014
  10.4199992  22.1329978  21.5580014  10.6074508  22.8888280  21.9454803
   6.4429992  25.7549978  32.2950014   5.8019992  25.7149978  33.0040014
   6.4809992  26.6819978  32.0570014   6.3603010  25.8747668  32.3599946
   6.4399992  25.9759978  27.2070014   5.5479992  25.6359978  27.1480014
   6.8909992  25.5989978  26.4510014   6.3787642  25.8784910  27.0967726
  11.9759992  26.3919978  26.0240014  11.5669992  27.2069978  25.7320014
  12.6959992  26.2519978  25.4100014  12.0174439  26.4845372  25.9010115
  11.0779992  26.5679978  37.5120014  10.5149992  25.8629978  37.8330014
  11.9039992  26.4469978  37.9800014  11.1126674  26.4552165  37.6191751
  12.9809992  25.8379978  28.8380014  12.7849992  26.4439978  28.1230014
  13.1619992  25.0049978  28.4040014  12.9786584  25.8082513  28.6814212
   4.1929992  26.0759978  34.1620014   4.1549992  26.4759978  35.0310014
   3.7029992  25.2589978  34.2520014   4.1215330  26.0202674  34.2931289
   7.5589992  23.4499978  20.9610014   7.1279992  23.0049978  21.6900014
   6.8409992  23.8209978  20.4480014   7.4029176  23.4392051  20.9914930
   0.8019992  23.1919978  28.0130014   1.4319992  23.1629978  28.7320014
   1.2509992  22.7669978  27.2820014   0.9490835  23.1305660  28.0127659
   2.0759992  23.9379978  23.4370014   2.5499992  24.5289978  22.8520014
   1.3579992  24.4679978  23.7840014   2.0438640  24.0905511  23.4037969
  12.2449992  27.4759978  33.5090014  12.5679992  26.8449978  32.8660014
  11.8039992  26.9419978  34.1700014  12.2296379  27.3173468  33.5102582
   9.0219992  23.4039978  28.2930014   8.1109992  23.4609978  28.5820014
   9.5269992  23.3439978  29.1040014   8.9656873  23.4036826  28.4421207
   3.8499992  25.0329978  27.1200014   2.9609992  25.1319978  26.7800014
   4.1469992  24.1909978  26.7740014   3.7684177  24.9327687  27.0266940
   7.5029992  25.0329978  24.7770014   8.4349992  25.1619978  24.9550014
   7.2879992  25.7019978  24.1270014   7.6014472  25.1410806  24.7134891
  13.4269992  22.6389978  31.5580014  12.7499992  22.7699978  32.2210014
  12.9419992  22.4839978  30.7470014  13.2687405  22.6359947  31.5392170
   6.1769992  26.2269978  22.3430014   5.6349992  25.8479978  21.6520014
   7.0109992  26.4219978  21.9150014   6.2154390  26.2014079  22.1904392
  16.7149992  38.3099978  37.8340014  16.9139992  38.7339978  37.0000014
  17.3699992  38.6539978  38.4410014  16.8308522  38.4146301  37.8017852
   4.3129992  30.7839978  37.4420014   5.0449992  31.0389978  38.0040014
   3.5319992  30.9889978  37.9580014   4.3076526  30.8465450  37.5885176
  10.3419992  26.1909978  30.1800014  10.9059992  25.6449978  29.6330014
  10.1939992  25.6699978  30.9690014  10.3993037  26.0456787  30.2117229
   5.3439992  22.3279978  26.5990014   5.0269992  21.4249978  26.5630014
   6.1249992  22.3299978  26.0460014   5.4062431  22.2047797  26.5193102
   8.9679992  24.5799978  32.5940014   8.1329992  25.0339978  32.7050014
   9.4919992  24.8559978  33.3460014   8.9246072  24.6793948  32.7108136
   9.5129992  30.7929978  24.2790014   8.7679992  30.2849978  23.9570014
   9.3779992  30.8419978  25.2250014   9.3928963  30.7301731  24.3628826
  16.6629992  29.9259978  33.0660014  17.3039992  30.3819978  32.5220014
  15.8319992  30.0389978  32.6030014  16.6385287  30.0036921  32.9289887
  13.4099992  23.6069978  22.4780014  12.4719992  23.7179978  22.3270014
  13.7079992  24.4629978  22.7850014  13.3216318  23.7380158  22.4988145
  11.0319992  30.9769978  35.5160014  10.6859992  30.5949978  36.3230014
  10.8319992  31.9099978  35.5870014  10.9575987  31.0509002  35.6360461
  14.1289992  25.4739978  24.1390014  15.0209992  25.3359978  24.4580014
  14.1849992  26.2649978  23.6020014  14.2587325  25.5619918  24.1101217
   4.6369992  30.0879978  30.0490014   5.3819992  30.0849978  29.4470014
   4.7149992  29.2639978  30.5300014   4.7493366  29.9762384  30.0317430
  11.6379992  32.2509978  23.3040014  11.3429992  33.0779978  23.6860014
  10.9349992  31.6319978  23.5010014  11.5026379  32.2804171  23.3828654
   1.6449992  28.5479978  35.3640014   1.8679992  28.1299978  36.1950014
   1.0429992  27.9359978  34.9410014   1.5941513  28.4079606  35.4206740
   8.6619992  28.0649978  37.5770014   8.3659992  27.8999978  36.6810014
   9.5929992  27.8449978  37.5660014   8.7474401  28.0126879  37.4530206
  13.2819992  33.4389978  35.4660014  12.3819992  33.6219978  35.1990014
  13.3159992  33.6979978  36.3870014  13.1633748  33.4990554  35.5539164
  19.0139992  25.6829978  23.8340014  18.4589992  25.2869978  23.1610014
  19.1139992  26.5939978  23.5560014  18.9516816  25.7519505  23.7045033
  18.9769992  31.4839978  36.6710014  18.1259992  31.7219978  36.3030014
  19.5669992  31.4669978  35.9180014  18.9403812  31.5142524  36.5188453
  17.3089992  34.4689978  24.2990014  16.9359992  33.6439978  24.6080014
  17.5859992  34.2859978  23.4010014  17.2953463  34.3312569  24.2199525
  14.4689992  29.2769978  31.3200014  13.5409992  29.0459978  31.2930014
  14.9199992  28.4999978  30.9900014  14.4028165  29.1402774  31.2716790
   7.0119992  33.6059978  27.4530014   7.5399992  34.3789978  27.2530014
   6.1319992  33.8299978  27.1510014   6.9653435  33.7422700  27.3847310
   2.7669992  28.4679978  22.0400014   3.3829992  29.0949978  22.4200014
   1.9049992  28.7839978  22.3120014   2.7347678  28.5964412  22.1287209
   8.4399992  31.2689978  27.0290014   8.1989992  32.1939978  27.0710014
   7.6989992  30.8099978  27.4260014   8.3069206  31.3335915  27.0883769
   8.9539992  35.4179978  33.3440014   9.3169992  36.2719978  33.1110014
   9.4859992  35.1259978  34.0850014   9.0755141  35.4953895  33.4122097
   7.1229992  36.2899978  26.5750014   6.1729992  36.3959978  26.6260014
   7.4749992  37.1109978  26.9190014   7.0405472  36.4154923  26.6284852
  12.4979992  31.5169978  33.0450014  12.0729992  31.2889978  33.8710014
  13.0789992  30.7779978  32.8630014  12.5183395  31.3859545  33.1334414
  14.7009992  32.4459978  22.1190014  15.0549992  32.0659978  22.9230014
  13.7529992  32.3519978  22.2060014  14.6212298  32.3812452  22.2408687
  15.1569992  36.0689978  35.5140014  14.5549992  35.5129978  35.0190014
  15.4379992  36.7359978  34.8880014  15.1125757  36.0830744  35.3615675
  19.2049992  36.9249978  22.3200014  19.9489992  37.5109978  22.1800014
  18.5109992  37.4939978  22.6530014  19.2129809  37.0820818  22.3458590
   3.2789992  23.3019978  34.9220014   2.3869992  23.6399978  34.8540014
   3.1809992  22.4459978  35.3400014   3.1434475  23.2326543  34.9691704
  15.5669992  31.1179978  24.3460014  15.2899992  30.3899978  24.9020014
  16.4949992  31.2369978  24.5510014  15.6544499  31.0344213  24.4498044
   2.9309992  35.1059978  33.3570014   3.1479992  34.1739978  33.3260014
   3.1769992  35.3809978  34.2400014   2.9939809  35.0155686  33.4721691
   8.7919992  33.5579978  20.5660014   9.0309992  32.8089978  20.0190014
   8.5229992  33.1699978  21.3990014   8.7883233  33.4031853  20.6037809
   7.7289992  33.1279978  23.0220014   7.8759992  32.6079978  23.8120014
   7.7259992  34.0349978  23.3290014   7.7487102  33.1793953  23.1715925
   4.1819992  30.3799978  23.5330014   3.4959992  30.7329978  24.1000014
   4.7049992  31.1429978  23.2860014   4.1588402  30.5313901  23.5771801
  12.0139992  23.0429978  33.8120014  12.7129992  23.1169978  34.4620014
  11.6329992  22.1779978  33.9660014  12.0582097  22.9362389  33.9217997
  12.7979992  22.6949978  24.9090014  13.0179992  23.1659978  24.1050014
  13.3569992  23.0889978  25.5790014  12.9036731  22.8127287  24.8895033
  10.4669992  34.8249978  23.7720014   9.6499992  35.3219978  23.8240014
  10.9959992  35.3009978  23.1310014  10.4268125  34.9571989  23.6925306
   9.9979992  24.4229978  25.7440014  10.8099992  24.9269978  25.7900014
   9.7539992  24.2779978  26.6580014  10.0761467  24.4723749  25.8738575
  10.5339992  25.4089978  34.9280014  10.6529992  25.9829978  35.6850014
  11.1889992  24.7209978  35.0430014  10.6388684  25.3945194  35.0471674
  10.8819992  21.5039978  26.6820014  10.5349992  22.1209978  27.3260014
  11.5409992  22.0049978  26.2000014  10.9235090  21.6561575  26.7050681
   7.8049992  35.8689978  23.7530014   7.9659992  36.6689978  23.2530014
   7.6079992  36.1759978  24.6380014   7.8003906  36.0198678  23.8042333
   6.5399992  22.5669978  23.3690014   6.4559992  23.4549978  23.7160014
   7.4299992  22.3019978  23.6010014   6.6488163  22.6527179  23.4478596
  16.7379992  23.3159978  35.7630014  15.8219992  23.5779978  35.6760014
  17.0739992  23.3129978  34.8670014  16.6578499  23.3515163  35.6298766
  15.3409992  27.0659978  29.8590014  14.5429992  26.6509978  29.5310014
  15.7859992  26.3759978  30.3500014  15.2919684  26.9158628  29.8805227
   4.7979992  32.9939978  22.4290014   5.3899992  33.6939978  22.7060014
   5.2569992  32.5609978  21.7100014   4.9411652  33.0312675  22.3696533
   3.1139992  25.6589978  21.5450014   3.0689992  26.5979978  21.7240014
   2.2259992  25.4229978  21.2760014   2.9878166  25.7556687  21.5331524
  16.4269992  36.3219978  31.4810014  16.2709992  37.0009978  30.8240014
  17.3599992  36.3939978  31.6840014  16.5317387  36.4246390  31.4185342
   3.9219992  20.4399978  30.2190014   3.6929992  20.4989978  29.2910014
   3.4799992  19.6489978  30.5250014   3.8308801  20.3410540  30.1334729
   2.8529992  34.3809978  26.3790014   2.0199992  34.8529978  26.4060014
   3.3979992  34.8909978  25.7800014   2.8127857  34.5144791  26.3017142
   2.1409992  36.9929978  37.7090014   2.6809992  36.7769978  38.4690014
   1.6599992  36.1879978  37.5190014   2.1499219  36.8545156  37.7874282
   6.7379992  35.9129978  39.3290014   7.5059992  35.4539978  39.6700014
   6.7169992  35.6869978  38.3990014   6.8402135  35.8196668  39.2499491
  10.8299992  35.4209978  20.7050014  10.1859992  34.7899978  21.0260014
  11.5919992  34.8899978  20.4730014  10.8448058  35.2627902  20.7176038
  13.3149992  34.2929978  38.0580014  12.9639992  33.4359978  38.3020014
  14.0409992  34.4349978  38.6650014  13.3651895  34.1951351  38.1733770
  15.4349992  35.2379978  20.9380014  15.7179992  34.4429978  21.3910014
  16.1739992  35.4709978  20.3770014  15.5737096  35.1607049  20.9241104
   2.0479992  30.8039978  38.6630014   2.1919992  29.9019978  38.3770014
   1.2759992  31.0899978  38.1760014   1.9632733  30.7191798  38.5579532
   6.3889992  31.1469978  20.7960014   6.4539992  30.3529978  21.3260014
   7.0419992  31.0289978  20.1060014   6.4861605  31.0223430  20.7752997
   8.7029992  30.7729978  38.0960014   8.3749992  31.0439978  37.2390014
   8.8549992  29.8319978  38.0080014   8.6786412  30.6829046  37.9667822
  11.7419992  32.1939978  20.5320014  11.4729992  32.3749978  21.4320014
  11.5349992  31.2689978  20.4000014  11.6771191  32.0937119  20.6375524
  14.4379992  30.6889978  35.4790014  15.1829992  31.2779978  35.3600014
  13.6809992  31.2709978  35.5430014  14.4375470  30.8482128  35.4713799
   2.8809992  28.0039978  38.0830014   3.2889992  27.1469978  37.9620014
   2.6199992  28.0179978  39.0040014   2.9016016  27.8885119  38.1909192
   7.5389992  29.1199978  23.1020014   7.0789992  28.6359978  23.7870014
   7.7939992  28.4509978  22.4660014   7.5104856  28.9633669  23.1098397
   6.8279992  27.0129978  35.4580014   6.2089992  27.6869978  35.7380014
   7.1719992  27.3339978  34.6240014   6.7897123  27.1486887  35.3836388
   8.6099992  27.3629978  21.3640014   8.4289992  27.2079978  20.4370014
   9.5599992  27.4709978  21.4090014   8.7136566  27.3563669  21.2430929
  11.8469992  29.4839978  38.7350014  12.8009992  29.5679978  38.7080014
  11.6869992  28.7719978  39.3550014  11.9557182  29.3992842  38.8150733
  17.9999992  29.7169978  20.8100014  17.7259992  29.2929978  19.9970014
  18.0389992  30.6489978  20.5930014  17.9677716  29.7848827  20.6694286
   7.1669992  24.3679978  36.5400014   7.3169992  23.6389978  35.9380014
   7.1689992  25.1449978  35.9810014   7.1877967  24.3732708  36.3820541
   7.5799992  22.7369978  34.0330014   8.1149992  23.1889978  33.3810014
   6.7269992  22.6289978  33.6100014   7.5380374  22.7842665  33.8866710
   9.1609992  28.1769978  34.2720014   9.9119992  28.0209978  33.6990014
   8.8219992  29.0289978  33.9970014   9.2179587  28.2708138  34.1564078
  13.5769992  25.9919978  39.3010014  13.7689992  25.0609978  39.1890014
  14.4349992  26.4169978  39.2900014  13.7192182  25.9220070  39.2841862
  14.8939992  28.7809978  37.3780014  14.6119992  29.4899978  36.8000014
  15.8359992  28.7079978  37.2270014  14.9827921  28.8682193  37.2784225
   5.6459992  25.5659978  38.4510014   4.8779992  25.0329978  38.2410014
   6.3239992  25.2559978  37.8520014   5.6327235  25.4511754  38.3412413
   8.3849992  20.1939978  34.4640014   8.2869992  21.1399978  34.3590014
   7.6429992  19.8209978  33.9880014   8.2712534  20.2731773  34.3852600
   9.6489992  24.5149978  38.0280014   9.4139992  24.2959978  38.9290014
   8.8659992  24.3079978  37.5180014   9.5109095  24.4569892  38.0825353
  12.3649992  23.6429978  37.1030014  11.4169992  23.6749978  37.2350014
  12.6769992  23.0169978  37.7570014  12.2775293  23.5627923  37.2094148
  13.9989992  22.2769978  39.1080014  13.9019992  21.3249978  39.1030014
  13.6769992  22.5449978  39.9690014  13.9422468  22.1830884  39.2236210
   3.8259992  23.4859978  38.1560014   4.0379992  22.7799978  37.5460014
   3.7149992  23.0489978  39.0000014   3.8400269  23.3301921  38.1865873
   8.6069992  19.4879978  37.1350014   9.3189992  18.8479978  37.1210014
   8.5059992  19.7539978  36.2220014   8.6907387  19.4364330  37.0095563
   8.9609992  21.1699978  39.1890014   8.8289992  20.6949978  38.3690014
   8.3609992  21.9149978  39.1340014   8.8619070  21.2055789  39.0693251
   8.5069992  38.0529978  22.3650014   9.4399992  38.2109978  22.5090014
   8.2429992  38.7289978  21.7400014   8.5989911  38.1659373  22.3002722
   2.0749992  32.6899978  21.8480014   2.9889992  32.7689978  22.1210014
   2.0829992  32.0029978  21.1820014   2.2010655  32.6079205  21.7952917
   0.7239992  38.0829978  26.9250014   0.0769992  37.6209978  26.3930014
   1.0789992  37.4109978  27.5080014   0.6833741  37.9289774  26.9309175
   1.5939992  36.1629978  28.7300014   1.2599992  35.2829978  28.9020014
   1.8169992  36.5089978  29.5950014   1.5783721  36.0891938  28.8704168
  19.1429992  36.9729978  31.7110014  19.1209992  37.1579978  32.6500014
  19.8329992  37.5409978  31.3700014  19.2333439  37.0751887  31.7934791
  18.7059992  36.5399978  34.6320014  18.2189992  35.8049978  34.2610014
  19.2549992  36.1459978  35.3100014  18.7135247  36.3861057  34.6728461
  17.1569992  32.3299978  39.2710014  16.2909992  32.2249978  39.6650014
  17.5329992  33.0879978  39.7170014  17.0893401  32.4181708  39.3852620
  18.4579992  30.5859978  24.7850014  19.3079992  31.0069978  24.9120014
  18.4629992  29.8459978  25.3920014  18.5751143  30.5436094  24.8844750
  18.8519992  28.6399978  26.6080014  18.1259992  28.1599978  27.0060014
  19.4339992  28.8449978  27.3410014  18.8312730  28.6020184  26.7614149
  18.6109992  31.4249978  31.5560014  19.4449992  31.0469978  31.2750014
  18.7229992  32.3679978  31.4370014  18.7401917  31.5007943  31.5014861
  17.0979992  34.3029978  33.8630014  16.4499992  34.6279978  34.4880014
  16.5799992  33.8619978  33.1890014  16.9394196  34.2878651  33.8574152
  19.1209992  28.5409978  22.9990014  18.5989992  28.8969978  22.2810014
  19.0879992  29.2159978  23.6780014  19.0450129  28.6809598  22.9923355
  17.4699992  25.7799978  21.5500014  17.5659992  26.4469978  20.8700014
  17.3299992  24.9649978  21.0690014  17.4642040  25.7610671  21.3918378
  16.6389992  27.1609978  27.1710014  16.4889992  26.2159978  27.1510014
  16.2849992  27.4419978  28.0150014  16.5706351  27.0696644  27.2823220
   1.6739992  29.2389978  31.1820014   1.8589992  29.1569978  30.2460014
   2.5239992  29.1149978  31.6050014   1.8140928  29.2110463  31.1112893
  17.4949992  29.1309978  36.8100014  18.0779992  28.3959978  37.0020014
  18.0589992  29.9029978  36.8570014  17.6509781  29.1348145  36.8426164
  18.9919992  27.0339978  37.4950014  18.1289992  26.6549978  37.3290014
  19.5959992  26.2949978  37.4200014  18.9556085  26.8823223  37.4621695
  16.7169992  23.1879978  20.6680014  17.3279992  22.8169978  21.3050014
  15.8799992  22.7669978  20.8640014  16.6874947  23.0802756  20.7817252
  16.3499992  24.7429978  25.6340014  16.6289992  23.8359978  25.7580014
  17.1089992  25.1769978  25.2450014  16.4908619  24.6774502  25.5983795
  16.9609992  25.3249978  31.0700014  17.8939992  25.5369978  31.0350014
  16.7259992  25.4259978  31.9920014  17.0569517  25.3676833  31.1899130
  16.9909992  26.0619978  33.8460014  16.1479992  26.3299978  34.2120014
  17.4329992  26.8839978  33.6350014  16.9354138  26.2098273  33.8675518
   1.2719992  24.5089978  37.3220014   2.1909992  24.3869978  37.5590014
   0.8219992  23.7589978  37.7120014   1.3370087  24.3909608  37.4071410
  19.2739992  20.0419978  39.1990014  19.6229992  19.3879978  38.5940014
  19.4209992  20.8789978  38.7590014  19.3416824  20.0656024  39.0566304
  16.9629992  22.0059978  25.6820014  17.1449992  21.5569978  26.5070014
  16.3629992  21.4219978  25.2180014  16.9068187  21.8655552  25.7322739
   2.4929992  22.8219978  30.2140014   2.9379992  22.0299978  30.5160014
   2.9589992  23.5379978  30.6440014   2.6169718  22.8104534  30.3135265
   0.7969992  25.8209978  31.2830014   1.2889992  25.5999978  30.4920014
   1.1589992  26.6609978  31.5640014   0.9132923  25.9043468  31.2127407
  18.7929992  22.1509978  37.5480014  17.8759992  22.4219978  37.5130014
  18.9159992  21.6159978  36.7640014  18.6839672  22.1157885  37.4371862
  18.8299992  22.0739978  22.2100014  19.2419992  21.3529978  21.7350014
  19.5109992  22.7429978  22.2680014  18.9785536  22.0657766  22.1528024
   1.1109992  22.0789978  25.3370014   0.1859992  22.2869978  25.2080014
   1.5649992  22.5629978  24.6470014   1.0456298  22.1729299  25.2260451
  15.8809992  37.0629978  27.2830014  16.5339992  36.7149978  26.6750014
  16.3919992  37.5509978  27.9290014  16.0392777  37.0813815  27.2872047
   1.0739992  20.8169978  33.6810014   0.4089992  20.5709978  34.3240014
   0.6309992  21.4389978  33.1040014   0.9231168  20.8674214  33.6909848
   3.2659992  33.9919978  37.8260014   2.4449992  34.1669978  37.3650014
   3.0139992  33.9189978  38.7460014   3.1195594  34.0060717  37.8873611
   6.2199992  34.9659978  34.0840014   5.7959992  35.7759978  33.8020014
   7.1249992  35.0519978  33.7820014   6.2842138  35.0884160  34.0046415
  10.5319992  36.3649978  37.0440014  10.7159992  36.0319978  37.9220014
  11.3779992  36.6749978  36.7220014  10.6716484  36.3612979  37.1207617
  12.8769992  37.6509978  36.2880014  13.5539992  37.0179978  36.0480014
  13.1979992  38.0519978  37.0950014  13.0131323  37.6185691  36.3643158
  17.7939992  20.2409978  35.3670014  16.9809992  20.5659978  34.9800014
  18.0269992  19.4799978  34.8340014  17.7141347  20.1826880  35.2419841
   3.6219992  38.2229978  34.1320014   2.9019992  38.6629978  33.6810014
   3.2569992  37.9719978  34.9800014   3.4739643  38.2493369  34.1849129
   6.0889992  37.8229978  33.1620014   5.2249992  37.8949978  33.5660014
   6.0339992  38.3699978  32.3780014   5.9631942  37.9067849  33.1114000
  10.7999992  37.7109978  32.3370014  10.3429992  38.2399978  31.6830014
  10.9629992  38.3139978  33.0620014  10.7594960  37.8649280  32.3455274
  13.1279992  36.5889978  33.2820014  12.2229992  36.7539978  33.0160014
  13.5559992  37.4419978  33.2160014  13.0621537  36.7269134  33.2367095
  15.7319992  38.1589978  33.5770014  15.5499992  39.0749978  33.3660014
  15.9089992  37.7479978  32.7300014  15.7310030  38.2288273  33.4337166
   3.0369992  36.8459978  31.0420014   3.0189992  36.4199978  31.8990014
   3.8419992  36.5269978  30.6330014   3.1432875  36.7446435  31.1039515
   5.1779992  35.5559978  29.6970014   4.9589992  34.6389978  29.8670014
   6.0019992  35.6959978  30.1630014   5.2594702  35.4495511  29.7832527
   7.7149992  36.0259978  30.5460014   7.9279992  35.1379978  30.2590014
   7.7799992  35.9909978  31.5000014   7.7529149  35.8998326  30.6357369
  11.2239992  21.6899978  29.6900014  10.5499992  21.0599978  29.9460014
  11.7879992  21.2059978  29.0870014  11.2080384  21.5383708  29.6435020
  16.3669992  19.7969978  29.8030014  16.9699992  20.3449978  29.3010014
  15.4969992  20.1159978  29.5620014  16.3319157  19.9150373  29.7017910
  18.0939992  20.9359978  28.1360014  18.7049992  20.4219978  27.6090014
  18.4759992  21.8129978  28.1590014  18.2293305  20.9842050  28.0669418
   3.5509992  20.3239978  27.5120014   2.7739992  20.0889978  27.0050014
   4.0809992  19.5269978  27.5210014   3.5163451  20.1841268  27.4438627
   2.3869992  20.1219978  23.3160014   2.8259992  20.7329978  22.7240014
   1.7529992  20.6599978  23.7900014   2.3613859  20.2784064  23.2990305
   8.1299992  20.2499978  27.3250014   9.0039992  20.6389978  27.2960014
   7.9939992  20.0349978  28.2480014   8.2311953  20.2741643  27.4457617
  13.6869992  20.2799978  28.9750014  13.7629992  20.3759978  28.0250014
  13.4119992  19.3729978  29.1030014  13.6601871  20.1704146  28.8623944
  15.0399992  20.3059978  24.6670014  14.3369992  20.9209978  24.4570014
  14.5949992  19.4689978  24.7980014  14.8836550  20.2769668  24.6559837
   2.2879992  36.0699978  24.2130014   1.6029992  36.0319978  23.5460014
   2.2919992  36.9829978  24.5010014   2.1947621  36.1881924  24.1606126
   4.2479992  22.0379978  21.7580014   4.7389992  21.4079978  21.2310014
   4.8709992  22.3339978  22.4210014   4.3995304  21.9917376  21.7754940
   9.2739992  22.3309978  24.2150014   9.4519992  21.6839978  24.8980014
   9.2199992  23.1649978  24.6820014   9.2910678  22.3551604  24.3716301
  11.1519992  37.2789978  22.6110014  12.0179992  37.6459978  22.4330014
  10.9059992  36.8399978  21.7970014  11.2372097  37.2698525  22.4766019
  17.8609992  36.8419978  25.2900014  17.6669992  36.0939978  24.7250014
  17.8219992  37.5999978  24.7070014  17.8291645  36.8420786  25.1338148
   3.5079992  20.8379978  37.0300014   3.1419992  20.0719978  37.4720014
   4.4209992  20.8669978  37.3160014   3.5813172  20.7370324  37.1291890
   5.4809992  20.1879978  38.5650014   6.3799992  19.9139978  38.3810014
   5.0949992  19.4459978  39.0300014   5.5517307  20.0502196  38.6027098
   4.1059992  36.9899978  21.2380014   3.8379992  37.2759978  22.1120014
   4.8769992  36.4439978  21.3910014   4.1735926  36.9552779  21.3781205
  13.9029992  19.5209978  38.7480014  13.9789992  19.0949978  39.6010014
  14.7959992  19.5339978  38.4050014  14.0342303  19.4643493  38.8185497
  17.0789992  35.5939978  37.4400014  16.2969992  35.4069978  36.9200014
  17.0069992  36.5229978  37.6570014  16.9621924  35.6940637  37.3981602
  31.4849992  29.4799978  27.4710014  31.5739992  30.4239978  27.3390014
  30.8469992  29.2049978  26.8130014  31.4109062  29.5719812  27.3639641
  30.4179992  28.7349978  30.8900014  30.3799992  28.0889978  31.5950014
  30.0959992  28.2679978  30.1190014  30.3692679  28.5834276  30.8822921
  22.7859992  28.3489978  32.4830014  22.8279992  27.7239978  33.2060014
  23.4889992  28.9729978  32.6650014  22.8867345  28.3477873  32.6065274
  34.1239992  31.6739978  29.1910014  33.6829992  30.9539978  29.6420014
  34.1109992  32.3949978  29.8210014  34.0619215  31.6729291  29.3378105
  23.7099992  32.7989978  31.0180014  23.3399992  31.9969978  30.6480014
  24.6509992  32.6309978  31.0640014  23.7865984  32.6664638  30.9735603
  20.3199992  26.4589978  26.4100014  19.8719992  27.3049978  26.3920014
  19.7589992  25.8799978  25.8950014  20.1828546  26.4963993  26.3378891
  21.0299992  28.6209978  28.5360014  21.2439992  27.8509978  29.0640014
  21.7679992  28.7109978  27.9330014  21.1590200  28.5278587  28.5267035
  31.2359992  36.7779978  29.4030014  31.8549992  36.1019978  29.1300014
  31.0269992  36.5599978  30.3120014  31.2926056  36.6558869  29.4883967
  28.8069992  31.1669978  31.2960014  29.1109992  30.4809978  30.7010014
  29.5289992  31.2859978  31.9140014  28.9461240  31.0892314  31.2980959
  37.4699992  22.7689978  32.1560014  37.5199992  23.3789978  32.8920014
  37.8959992  23.2299978  31.4330014  37.5344108  22.9147709  32.1590112
  31.9479992  25.5609978  31.6230014  32.0909992  24.6149978  31.6430014
  31.8419992  25.7679978  30.6950014  31.9532403  25.4594797  31.5002239
  25.1029992  23.6629978  28.8960014  25.1459992  24.5229978  28.4770014
  24.6449992  23.1109978  28.2620014  25.0469871  23.7059245  28.7530761
  32.8249992  23.7939978  27.2970014  33.4719992  23.4649978  27.9210014
  33.3349992  24.3109978  26.6740014  32.9824351  23.8189067  27.2981037
  21.7229992  26.0599978  29.6580014  22.3769992  25.5099978  30.0900014
  21.7469992  25.7859978  28.7410014  21.8157199  25.9477167  29.5931668
  26.8799992  27.6099978  28.8730014  27.4959992  27.0829978  29.3820014
  26.2929992  26.9699978  28.4690014  26.8850154  27.4513954  28.8880945
  37.8619992  24.2469978  34.3920014  37.1729992  24.9049978  34.2970014
  37.8769992  24.0489978  35.3290014  37.7697756  24.3102603  34.5055812
  23.9129992  22.5809978  32.9700014  23.6939992  23.1109978  32.2030014
  23.2449992  22.8069978  33.6170014  23.7926975  22.6840967  32.9525140
  31.2819992  32.0809978  26.5140014  30.9869992  31.7579978  25.6620014
  30.9579992  32.9809978  26.5550014  31.1978460  32.1584464  26.4029714
  26.4819992  30.2559978  33.2570014  25.7419992  30.8549978  33.3610014
  27.1959992  30.8099978  32.9420014  26.4773500  30.4127829  33.2286371
  34.5889992  23.0849978  29.2770014  34.3739992  22.3189978  29.8100014
  35.2449992  23.5569978  29.7900014  34.6482673  23.0440728  29.4191990
  23.5069992  24.4729978  30.9220014  24.1209992  25.1059978  31.2950014
  24.0189992  24.0009978  30.2660014  23.6601962  24.4957249  30.8842935
  24.8899992  32.2209978  34.0440014  24.8839992  33.0999978  33.6660014
  24.0359992  32.1369978  34.4690014  24.7737925  32.3299535  34.0496887
  21.0109992  31.8919978  24.8260014  20.7389992  32.1209978  23.9380014
  21.0559992  32.7289978  25.2870014  20.9798097  32.0366163  24.7666683
  34.6359992  33.5129978  31.5390014  33.6939992  33.5719978  31.7010014
  34.9119992  34.4189978  31.4020014  34.5445865  33.6435288  31.5426192
  34.9359992  21.7999978  32.9560014  34.1999992  22.4099978  32.9190014
  35.6199992  22.2149978  32.4300014  34.9275367  21.9397551  32.8798174
  27.9399992  19.8859978  30.4220014  27.8219992  18.9379978  30.3680014
  27.0849992  20.2189978  30.6950014  27.8082805  19.8012202  30.4515079
  32.8879992  35.2939978  28.1640014  33.3129992  34.5869978  27.6790014
  33.2049992  36.0959978  27.7470014  32.9890266  35.3055190  28.0412479
  34.0479992  33.1949978  26.6730014  33.7899992  32.5049978  26.0610014
  34.1189992  32.7519978  27.5180014  34.0223050  33.0406814  26.7035621
  35.7339992  31.7619978  35.1500014  35.8729992  31.1699978  34.4110014
  35.9009992  32.6349978  34.7940014  35.7756193  31.7988896  35.0006211
  30.2059992  28.7239978  24.9230014  29.4949992  29.2589978  24.5710014
  30.8969992  28.7789978  24.2630014  30.2020751  28.8046777  24.7855858
  30.2599992  27.1809978  21.9610014  30.9609992  27.2039978  22.6130014
  30.5619992  26.5529978  21.3050014  30.3968202  27.0992212  21.9615609
  37.5749992  28.1019978  33.2160014  36.9229992  28.7959978  33.3050014
  38.0409992  28.3119978  32.4060014  37.5485937  28.2255019  33.1187533
  33.6119992  28.9329978  25.8740014  32.8799992  29.1619978  26.4480014
  34.0589992  28.2199978  26.3290014  33.5723963  28.8678729  26.0139945
  33.5089992  27.1079978  34.9420014  33.5889992  27.8709978  35.5140014
  32.9079992  27.3869978  34.2520014  33.4386547  27.2502457  34.9270047
  25.2569992  29.5639978  27.7570014  24.9269992  29.1929978  26.9390014
  25.8459992  28.8929978  28.1040014  25.2913970  29.4226063  27.6919404
  26.6239992  32.9919978  30.4380014  26.5289992  32.4129978  29.6820014
  27.3529992  32.6209978  30.9340014  26.7096011  32.8625561  30.4016028
  25.6239992  28.3319978  31.3900014  26.1889992  28.4539978  30.6280014
  25.9429992  28.9699978  32.0290014  25.7444166  28.4348791  31.3720348
  31.9329992  33.8359978  32.1240014  31.6929992  34.4979978  32.7720014
  31.7349992  33.0009978  32.5490014  31.8733826  33.8138115  32.2701566
  26.5039992  32.7319978  36.1080014  26.1929992  33.5139978  36.5630014
  25.8539992  32.5789978  35.4220014  26.3735538  32.8184087  36.0775898
  32.4829992  28.0959978  23.5600014  33.0619992  28.2459978  24.3060014
  32.8969992  28.5659978  22.8360014  32.6183358  28.1800954  23.5643953
  23.4239992  28.9299978  35.3360014  23.4939992  29.5809978  36.0350014
  22.5329992  29.0329978  35.0010014  23.3131690  29.0329249  35.3863043
  30.2089992  34.8319978  26.9950014  30.6829992  35.1279978  27.7720014
  29.6459992  35.5709978  26.7620014  30.1977890  34.9723036  27.0698101
  24.7429992  34.8029978  36.8710014  24.7509992  34.6669978  35.9240014
  23.8269992  34.6859978  37.1230014  24.6202528  34.7685463  36.7753243
  36.1819992  19.8459978  23.3730014  35.2819992  19.9849978  23.6680014
  36.4339992  20.6769978  22.9710014  36.0928683  19.9774055  23.3590232
  24.2479992  28.6329978  25.3460014  23.9559992  29.4009978  24.8550014
  23.5729992  27.9739978  25.1830014  24.1168497  28.6489745  25.2568260
  37.3709992  34.2119978  21.7490014  37.4439992  35.1509978  21.9190014
  38.2759992  33.9069978  21.6930014  37.5034170  34.2993282  21.7647063
  20.3409992  30.9959978  34.1610014  19.8389992  30.9679978  33.3460014
  20.3459992  30.0909978  34.4710014  20.2729832  30.8697486  34.0914121
  20.0909992  33.7769978  31.0450014  21.0369992  33.6319978  31.0260014
  19.9779992  34.5609978  31.5820014  20.2053578  33.8631697  31.1150317
  38.2889992  34.4429978  36.7280014  38.2389992  33.4869978  36.6900014
  37.4619992  34.7099978  37.1290014  38.1703831  34.3484680  36.7770121
  29.2669992  34.0169978  35.6040014  29.3549992  34.8429978  36.0790014
  28.4039992  33.6869978  35.8530014  29.1623357  34.0855468  35.7027653
  29.6819992  37.7889978  25.4100014  29.6059992  37.6679978  24.4630014
  29.7139992  38.7379978  25.5280014  29.6759380  37.9007677  25.2965181
  23.3349992  36.5779978  27.1910014  23.4869992  36.2299978  28.0690014
  22.4839992  36.2209978  26.9350014  23.2408344  36.4820879  27.2766868
  32.7829992  36.9429978  22.4120014  33.1579992  36.1989978  21.9410014
  32.7879992  36.6729978  23.3300014  32.8350098  36.8046392  22.4716629
  32.4519992  36.8689978  25.1610014  31.5169992  36.9689978  25.3400014
  32.7319992  36.1589978  25.7400014  32.3619471  36.7867933  25.2636695
  35.4409992  25.9359978  37.2080014  35.0329992  26.4159978  36.4870014
  35.4809992  25.0299978  36.9000014  35.3906221  25.8792449  37.0678267
  22.5899992  32.3199978  35.2040014  22.8059992  31.9579978  36.0640014
  21.7339992  31.9449978  34.9950014  22.5038810  32.2198837  35.2932680
  25.2079992  20.7899978  31.2000014  24.3469992  20.7029978  30.7920014
  25.1859992  21.6459978  31.6280014  25.0870491  20.8938003  31.2019582
  29.8709992  20.5119978  34.5750014  30.2909992  20.0969978  35.3280014
  28.9379992  20.3329978  34.6920014  29.8023736  20.4309910  34.6938968
  33.1979992  24.2669978  35.4280014  32.6839992  24.1419978  36.2260014
  33.0419992  25.1799978  35.1840014  33.1066967  24.3732123  35.5040937
  33.9599992  29.1279978  21.1890014  34.0019992  28.9059978  20.2590014
  34.8089992  29.5269978  21.3790014  34.0805253  29.1515498  21.0873822
  29.5329992  23.0039978  21.8600014  29.2789992  23.0229978  22.7820014
  29.2759992  22.1329978  21.5580014  29.4634508  22.8888280  21.9454803
  25.2989992  25.7549978  32.2950014  24.6579992  25.7149978  33.0040014
  25.3369992  26.6819978  32.0570014  25.2163010  25.8747668  32.3599946
  25.2959992  25.9759978  27.2070014  24.4039992  25.6359978  27.1480014
  25.7469992  25.5989978  26.4510014  25.2347642  25.8784910  27.0967726
  30.8319992  26.3919978  26.0240014  30.4229992  27.2069978  25.7320014
  31.5519992  26.2519978  25.4100014  30.8734439  26.4845372  25.9010115
  29.9339992  26.5679978  37.5120014  29.3709992  25.8629978  37.8330014
  30.7599992  26.4469978  37.9800014  29.9686674  26.4552165  37.6191751
  31.8369992  25.8379978  28.8380014  31.6409992  26.4439978  28.1230014
  32.0179992  25.0049978  28.4040014  31.8346584  25.8082513  28.6814212
  23.0489992  26.0759978  34.1620014  23.0109992  26.4759978  35.0310014
  22.5589992  25.2589978  34.2520014  22.9775330  26.0202674  34.2931289
  26.4149992  23.4499978  20.9610014  25.9839992  23.0049978  21.6900014
  25.6969992  23.8209978  20.4480014  26.2589176  23.4392051  20.9914930
  19.6579992  23.1919978  28.0130014  20.2879992  23.1629978  28.7320014
  20.1069992  22.7669978  27.2820014  19.8050835  23.1305660  28.0127659
  20.9319992  23.9379978  23.4370014  21.4059992  24.5289978  22.8520014
  20.2139992  24.4679978  23.7840014  20.8998640  24.0905511  23.4037969
  31.1009992  27.4759978  33.5090014  31.4239992  26.8449978  32.8660014
  30.6599992  26.9419978  34.1700014  31.0856379  27.3173468  33.5102582
  27.8779992  23.4039978  28.2930014  26.9669992  23.4609978  28.5820014
  28.3829992  23.3439978  29.1040014  27.8216873  23.4036826  28.4421207
  22.7059992  25.0329978  27.1200014  21.8169992  25.1319978  26.7800014
  23.0029992  24.1909978  26.7740014  22.6244177  24.9327687  27.0266940
  26.3589992  25.0329978  24.7770014  27.2909992  25.1619978  24.9550014
  26.1439992  25.7019978  24.1270014  26.4574472  25.1410806  24.7134891
  32.2829992  22.6389978  31.5580014  31.6059992  22.7699978  32.2210014
  31.7979992  22.4839978  30.7470014  32.1247405  22.6359947  31.5392170
  25.0329992  26.2269978  22.3430014  24.4909992  25.8479978  21.6520014
  25.8669992  26.4219978  21.9150014  25.0714390  26.2014079  22.1904392
  35.5709992  38.3099978  37.8340014  35.7699992  38.7339978  37.0000014
  36.2259992  38.6539978  38.4410014  35.6868522  38.4146301  37.8017852
  23.1689992  30.7839978  37.4420014  23.9009992  31.0389978  38.0040014
  22.3879992  30.9889978  37.9580014  23.1636526  30.8465450  37.5885176
  29.1979992  26.1909978  30.1800014  29.7619992  25.6449978  29.6330014
  29.0499992  25.6699978  30.9690014  29.2553037  26.0456787  30.2117229
  24.1999992  22.3279978  26.5990014  23.8829992  21.4249978  26.5630014
  24.9809992  22.3299978  26.0460014  24.2622431  22.2047797  26.5193102
  27.8239992  24.5799978  32.5940014  26.9889992  25.0339978  32.7050014
  28.3479992  24.8559978  33.3460014  27.7806072  24.6793948  32.7108136
  28.3689992  30.7929978  24.2790014  27.6239992  30.2849978  23.9570014
  28.2339992  30.8419978  25.2250014  28.2488963  30.7301731  24.3628826
  35.5189992  29.9259978  33.0660014  36.1599992  30.3819978  32.5220014
  34.6879992  30.0389978  32.6030014  35.4945287  30.0036921  32.9289887
  32.2659992  23.6069978  22.4780014  31.3279992  23.7179978  22.3270014
  32.5639992  24.4629978  22.7850014  32.1776318  23.7380158  22.4988145
  29.8879992  30.9769978  35.5160014  29.5419992  30.5949978  36.3230014
  29.6879992  31.9099978  35.5870014  29.8135987  31.0509002  35.6360461
  32.9849992  25.4739978  24.1390014  33.8769992  25.3359978  24.4580014
  33.0409992  26.2649978  23.6020014  33.1147325  25.5619918  24.1101217
  23.4929992  30.0879978  30.0490014  24.2379992  30.0849978  29.4470014
  23.5709992  29.2639978  30.5300014  23.6053365  29.9762384  30.0317430
  30.4939992  32.2509978  23.3040014  30.1989992  33.0779978  23.6860014
  29.7909992  31.6319978  23.5010014  30.3586379  32.2804171  23.3828654
  20.5009992  28.5479978  35.3640014  20.7239992  28.1299978  36.1950014
  19.8989992  27.9359978  34.9410014  20.4501513  28.4079606  35.4206740
  27.5179992  28.0649978  37.5770014  27.2219992  27.8999978  36.6810014
  28.4489992  27.8449978  37.5660014  27.6034401  28.0126879  37.4530206
  32.1379992  33.4389978  35.4660014  31.2379992  33.6219978  35.1990014
  32.1719992  33.6979978  36.3870014  32.0193748  33.4990554  35.5539164
  37.8699992  25.6829978  23.8340014  37.3149992  25.2869978  23.1610014
  37.9699992  26.5939978  23.5560014  37.8076816  25.7519505  23.7045033
  37.8329992  31.4839978  36.6710014  36.9819992  31.7219978  36.3030014
  38.4229992  31.4669978  35.9180014  37.7963812  31.5142524  36.5188453
  36.1649992  34.4689978  24.2990014  35.7919992  33.6439978  24.6080014
  36.4419992  34.2859978  23.4010014  36.1513463  34.3312569  24.2199525
  33.3249992  29.2769978  31.3200014  32.3969992  29.0459978  31.2930014
  33.7759992  28.4999978  30.9900014  33.2588165  29.1402774  31.2716790
  25.8679992  33.6059978  27.4530014  26.3959992  34.3789978  27.2530014
  24.9879992  33.8299978  27.1510014  25.8213435  33.7422700  27.3847310
  21.6229992  28.4679978  22.0400014  22.2389992  29.0949978  22.4200014
  20.7609992  28.7839978  22.3120014  21.5907678  28.5964412  22.1287209
  27.2959992  31.2689978  27.0290014  27.0549992  32.1939978  27.0710014
  26.5549992  30.8099978  27.4260014  27.1629206  31.3335915  27.0883769
  27.8099992  35.4179978  33.3440014  28.1729992  36.2719978  33.1110014
  28.3419992  35.1259978  34.0850014  27.9315141  35.4953895  33.4122097
  25.9789992  36.2899978  26.5750014  25.0289992  36.3959978  26.6260014
  26.3309992  37.1109978  26.9190014  25.8965472  36.4154923  26.6284852
  31.3539992  31.5169978  33.0450014  30.9289992  31.2889978  33.8710014
  31.9349992  30.7779978  32.8630014  31.3743395  31.3859545  33.1334414
  33.5569992  32.4459978  22.1190014  33.9109992  32.0659978  22.9230014
  32.6089992  32.3519978  22.2060014  33.4772298  32.3812452  22.2408687
  34.0129992  36.0689978  35.5140014  33.4109992  35.5129978  35.0190014
  34.2939992  36.7359978  34.8880014  33.9685757  36.0830744  35.3615675
  38.0609992  36.9249978  22.3200014  38.8049992  37.5109978  22.1800014
  37.3669992  37.4939978  22.6530014  38.0689809  37.0820818  22.3458590
  22.1349992  23.3019978  34.9220014  21.2429992  23.6399978  34.8540014
  22.0369992  22.4459978  35.3400014  21.9994475  23.2326543  34.9691704
  34.4229992  31.1179978  24.3460014  34.1459992  30.3899978  24.9020014
  35.3509992  31.2369978  24.5510014  34.5104499  31.0344213  24.4498044
  21.7869992  35.1059978  33.3570014  22.0039992  34.1739978  33.3260014
  22.0329992  35.3809978  34.2400014  21.8499809  35.0155686  33.4721691
  27.6479992  33.5579978  20.5660014  27.8869992  32.8089978  20.0190014
  27.3789992  33.1699978  21.3990014  27.6443233  33.4031853  20.6037809
  26.5849992  33.1279978  23.0220014  26.7319992  32.6079978  23.8120014
  26.5819992  34.0349978  23.3290014  26.6047102  33.1793953  23.1715925
  23.0379992  30.3799978  23.5330014  22.3519992  30.7329978  24.1000014
  23.5609992  31.1429978  23.2860014  23.0148402  30.5313901  23.5771801
  30.8699992  23.0429978  33.8120014  31.5689992  23.1169978  34.4620014
  30.4889992  22.1779978  33.9660014  30.9142097  22.9362389  33.9217997
  31.6539992  22.6949978  24.9090014  31.8739992  23.1659978  24.1050014
  32.2129992  23.0889978  25.5790014  31.7596731  22.8127287  24.8895033
  29.3229992  34.8249978  23.7720014  28.5059992  35.3219978  23.8240014
  29.8519992  35.3009978  23.1310014  29.2828125  34.9571989  23.6925306
  28.8539992  24.4229978  25.7440014  29.6659992  24.9269978  25.7900014
  28.6099992  24.2779978  26.6580014  28.9321467  24.4723749  25.8738575
  29.3899992  25.4089978  34.9280014  29.5089992  25.9829978  35.6850014
  30.0449992  24.7209978  35.0430014  29.4948684  25.3945194  35.0471674
  29.7379992  21.5039978  26.6820014  29.3909992  22.1209978  27.3260014
  30.3969992  22.0049978  26.2000014  29.7795090  21.6561575  26.7050681
  26.6609992  35.8689978  23.7530014  26.8219992  36.6689978  23.2530014
  26.4639992  36.1759978  24.6380014  26.6563906  36.0198678  23.8042333
  25.3959992  22.5669978  23.3690014  25.3119992  23.4549978  23.7160014
  26.2859992  22.3019978  23.6010014  25.5048163  22.6527179  23.4478596
  35.5939992  23.3159978  35.7630014  34.6779992  23.5779978  35.6760014
  35.9299992  23.3129978  34.8670014  35.5138499  23.3515163  35.6298766
  34.1969992  27.0659978  29.8590014  33.3989992  26.6509978  29.5310014
  34.6419992  26.3759978  30.3500014  34.1479684  26.9158628  29.8805227
  23.6539992  32.9939978  22.4290014  24.2459992  33.6939978  22.7060014
  24.1129992  32.5609978  21.7100014  23.7971652  33.0312675  22.3696533
  21.9699992  25.6589978  21.5450014  21.9249992  26.5979978  21.7240014
  21.0819992  25.4229978  21.2760014  21.8438166  25.7556687  21.5331524
  35.2829992  36.3219978  31.4810014  35.1269992  37.0009978  30.8240014
  36.2159992  36.3939978  31.6840014  35.3877387  36.4246390  31.4185342
  22.7779992  20.4399978  30.2190014  22.5489992  20.4989978  29.2910014
  22.3359992  19.6489978  30.5250014  22.6868801  20.3410540  30.1334729
  21.7089992  34.3809978  26.3790014  20.8759992  34.8529978  26.4060014
  22.2539992  34.8909978  25.7800014  21.6687857  34.5144791  26.3017142
  20.9969992  36.9929978  37.7090014  21.5369992  36.7769978  38.4690014
  20.5159992  36.1879978  37.5190014  21.0059219  36.8545156  37.7874282
  25.5939992  35.9129978  39.3290014  26.3619992  35.4539978  39.6700014
  25.5729992  35.6869978  38.3990014  25.6962135  35.8196668  39.2499491
  29.6859992  35.4209978  20.7050014  29.0419992  34.7899978  21.0260014
  30.4479992  34.8899978  20.4730014  29.7008058  35.2627902  20.7176038
  32.1709992  34.2929978  38.0580014  31.8199992  33.4359978  38.3020014
  32.8969992  34.4349978  38.6650014  32.2211895  34.1951351  38.1733770
  34.2909992  35.2379978  20.9380014  34.5739992  34.4429978  21.3910014
  35.0299992  35.4709978  20.3770014  34.4297096  35.1607049  20.9241104
  20.9039992  30.8039978  38.6630014  21.0479992  29.9019978  38.3770014
  20.1319992  31.0899978  38.1760014  20.8192733  30.7191798  38.5579532
  25.2449992  31.1469978  20.7960014  25.3099992  30.3529978  21.3260014
  25.8979992  31.0289978  20.1060014  25.3421605  31.0223430  20.7752997
  27.5589992  30.7729978  38.0960014  27.2309992  31.0439978  37.2390014
  27.7109992  29.8319978  38.0080014  27.5346412  30.6829046  37.9667822
  30.5979992  32.1939978  20.5320014  30.3289992  32.3749978  21.4320014
  30.3909992  31.2689978  20.4000014  30.5331191  32.0937119  20.6375524
  33.2939992  30.6889978  35.4790014  34.0389992  31.2779978  35.3600014
  32.5369992  31.2709978  35.5430014  33.2935470  30.8482128  35.4713799
  21.7369992  28.0039978  38.0830014  22.1449992  27.1469978  37.9620014
  21.4759992  28.0179978  39.0040014  21.7576016  27.8885119  38.1909192
  26.3949992  29.1199978  23.1020014  25.9349992  28.6359978  23.7870014
  26.6499992  28.4509978  22.4660014  26.3664856  28.9633669  23.1098397
  25.6839992  27.0129978  35.4580014  25.0649992  27.6869978  35.7380014
  26.0279992  27.3339978  34.6240014  25.6457123  27.1486887  35.3836388
  27.4659992  27.3629978  21.3640014  27.2849992  27.2079978  20.4370014
  28.4159992  27.4709978  21.4090014  27.5696566  27.3563669  21.2430929
  30.7029992  29.4839978  38.7350014  31.6569992  29.5679978  38.7080014
  30.5429992  28.7719978  39.3550014  30.8117182  29.3992842  38.8150733
  36.8559992  29.7169978  20.8100014  36.5819992  29.2929978  19.9970014
  36.8949992  30.6489978  20.5930014  36.8237716  29.7848827  20.6694286
  26.0229992  24.3679978  36.5400014  26.1729992  23.6389978  35.9380014
  26.0249992  25.1449978  35.9810014  26.0437967  24.3732708  36.3820541
  26.4359992  22.7369978  34.0330014  26.9709992  23.1889978  33.3810014
  25.5829992  22.6289978  33.6100014  26.3940374  22.7842665  33.8866710
  28.0169992  28.1769978  34.2720014  28.7679992  28.0209978  33.6990014
  27.6779992  29.0289978  33.9970014  28.0739587  28.2708138  34.1564078
  32.4329992  25.9919978  39.3010014  32.6249992  25.0609978  39.1890014
  33.2909992  26.4169978  39.2900014  32.5752182  25.9220070  39.2841862
  33.7499992  28.7809978  37.3780014  33.4679992  29.4899978  36.8000014
  34.6919992  28.7079978  37.2270014  33.8387921  28.8682193  37.2784225
  24.5019992  25.5659978  38.4510014  23.7339992  25.0329978  38.2410014
  25.1799992  25.2559978  37.8520014  24.4887235  25.4511754  38.3412413
  27.2409992  20.1939978  34.4640014  27.1429992  21.1399978  34.3590014
  26.4989992  19.8209978  33.9880014  27.1272534  20.2731773  34.3852600
  28.5049992  24.5149978  38.0280014  28.2699992  24.2959978  38.9290014
  27.7219992  24.3079978  37.5180014  28.3669095  24.4569892  38.0825353
  31.2209992  23.6429978  37.1030014  30.2729992  23.6749978  37.2350014
  31.5329992  23.0169978  37.7570014  31.1335293  23.5627923  37.2094148
  32.8549992  22.2769978  39.1080014  32.7579992  21.3249978  39.1030014
  32.5329992  22.5449978  39.9690014  32.7982468  22.1830884  39.2236210
  22.6819992  23.4859978  38.1560014  22.8939992  22.7799978  37.5460014
  22.5709992  23.0489978  39.0000014  22.6960269  23.3301921  38.1865873
  27.4629992  19.4879978  37.1350014  28.1749992  18.8479978  37.1210014
  27.3619992  19.7539978  36.2220014  27.5467387  19.4364330  37.0095563
  27.8169992  21.1699978  39.1890014  27.6849992  20.6949978  38.3690014
  27.2169992  21.9149978  39.1340014  27.7179070  21.2055789  39.0693251
  27.3629992  38.0529978  22.3650014  28.2959992  38.2109978  22.5090014
  27.0989992  38.7289978  21.7400014  27.4549911  38.1659373  22.3002722
  20.9309992  32.6899978  21.8480014  21.8449992  32.7689978  22.1210014
  20.9389992  32.0029978  21.1820014  21.0570655  32.6079205  21.7952917
  19.5799992  38.0829978  26.9250014  18.9329992  37.6209978  26.3930014
  19.9349992  37.4109978  27.5080014  19.5393741  37.9289774  26.9309175
  20.4499992  36.1629978  28.7300014  20.1159992  35.2829978  28.9020014
  20.6729992  36.5089978  29.5950014  20.4343721  36.0891938  28.8704168
  37.9989992  36.9729978  31.7110014  37.9769992  37.1579978  32.6500014
  38.6889992  37.5409978  31.3700014  38.0893439  37.0751887  31.7934791
  37.5619992  36.5399978  34.6320014  37.0749992  35.8049978  34.2610014
  38.1109992  36.1459978  35.3100014  37.5695247  36.3861057  34.6728461
  36.0129992  32.3299978  39.2710014  35.1469992  32.2249978  39.6650014
  36.3889992  33.0879978  39.7170014  35.9453401  32.4181708  39.3852620
  37.3139992  30.5859978  24.7850014  38.1639992  31.0069978  24.9120014
  37.3189992  29.8459978  25.3920014  37.4311143  30.5436094  24.8844750
  37.7079992  28.6399978  26.6080014  36.9819992  28.1599978  27.0060014
  38.2899992  28.8449978  27.3410014  37.6872730  28.6020184  26.7614149
  37.4669992  31.4249978  31.5560014  38.3009992  31.0469978  31.2750014
  37.5789992  32.3679978  31.4370014  37.5961917  31.5007943  31.5014861
  35.9539992  34.3029978  33.8630014  35.3059992  34.6279978  34.4880014
  35.4359992  33.8619978  33.1890014  35.7954196  34.2878651  33.8574152
  37.9769992  28.5409978  22.9990014  37.4549992  28.8969978  22.2810014
  37.9439992  29.2159978  23.6780014  37.9010129  28.6809598  22.9923355
  36.3259992  25.7799978  21.5500014  36.4219992  26.4469978  20.8700014
  36.1859992  24.9649978  21.0690014  36.3202040  25.7610671  21.3918378
  35.4949992  27.1609978  27.1710014  35.3449992  26.2159978  27.1510014
  35.1409992  27.4419978  28.0150014  35.4266351  27.0696644  27.2823220
  20.5299992  29.2389978  31.1820014  20.7149992  29.1569978  30.2460014
  21.3799992  29.1149978  31.6050014  20.6700928  29.2110463  31.1112893
  36.3509992  29.1309978  36.8100014  36.9339992  28.3959978  37.0020014
  36.9149992  29.9029978  36.8570014  36.5069781  29.1348145  36.8426164
  37.8479992  27.0339978  37.4950014  36.9849992  26.6549978  37.3290014
  38.4519992  26.2949978  37.4200014  37.8116085  26.8823223  37.4621695
  35.5729992  23.1879978  20.6680014  36.1839992  22.8169978  21.3050014
  34.7359992  22.7669978  20.8640014  35.5434947  23.0802756  20.7817252
  35.2059992  24.7429978  25.6340014  35.4849992  23.8359978  25.7580014
  35.9649992  25.1769978  25.2450014  35.3468619  24.6774502  25.5983795
  35.8169992  25.3249978  31.0700014  36.7499992  25.5369978  31.0350014
  35.5819992  25.4259978  31.9920014  35.9129517  25.3676833  31.1899130
  35.8469992  26.0619978  33.8460014  35.0039992  26.3299978  34.2120014
  36.2889992  26.8839978  33.6350014  35.7914138  26.2098273  33.8675518
  20.1279992  24.5089978  37.3220014  21.0469992  24.3869978  37.5590014
  19.6779992  23.7589978  37.7120014  20.1930087  24.3909608  37.4071410
  38.1299992  20.0419978  39.1990014  38.4789992  19.3879978  38.5940014
  38.2769992  20.8789978  38.7590014  38.1976824  20.0656024  39.0566304
  35.8189992  22.0059978  25.6820014  36.0009992  21.5569978  26.5070014
  35.2189992  21.4219978  25.2180014  35.7628187  21.8655552  25.7322739
  21.3489992  22.8219978  30.2140014  21.7939992  22.0299978  30.5160014
  21.8149992  23.5379978  30.6440014  21.4729718  22.8104534  30.3135265
  19.6529992  25.8209978  31.2830014  20.1449992  25.5999978  30.4920014
  20.0149992  26.6609978  31.5640014  19.7692923  25.9043468  31.2127407
  37.6489992  22.1509978  37.5480014  36.7319992  22.4219978  37.5130014
  37.7719992  21.6159978  36.7640014  37.5399672  22.1157885  37.4371862
  37.6859992  22.0739978  22.2100014  38.0979992  21.3529978  21.7350014
  38.3669992  22.7429978  22.2680014  37.8345536  22.0657766  22.1528024
  19.9669992  22.0789978  25.3370014  19.0419992  22.2869978  25.2080014
  20.4209992  22.5629978  24.6470014  19.9016298  22.1729299  25.2260451
  34.7369992  37.0629978  27.2830014  35.3899992  36.7149978  26.6750014
  35.2479992  37.5509978  27.9290014  34.8952777  37.0813815  27.2872047
  19.9299992  20.8169978  33.6810014  19.2649992  20.5709978  34.3240014
  19.4869992  21.4389978  33.1040014  19.7791168  20.8674214  33.6909848
  22.1219992  33.9919978  37.8260014  21.3009992  34.1669978  37.3650014
  21.8699992  33.9189978  38.7460014  21.9755594  34.0060717  37.8873611
  25.0759992  34.9659978  34.0840014  24.6519992  35.7759978  33.8020014
  25.9809992  35.0519978  33.7820014  25.1402138  35.0884160  34.0046415
  29.3879992  36.3649978  37.0440014  29.5719992  36.0319978  37.9220014
  30.2339992  36.6749978  36.7220014  29.5276484  36.3612979  37.1207617
  31.7329992  37.6509978  36.2880014  32.4099992  37.0179978  36.0480014
  32.0539992  38.0519978  37.0950014  31.8691323  37.6185691  36.3643158
  36.6499992  20.2409978  35.3670014  35.8369992  20.5659978  34.9800014
  36.8829992  19.4799978  34.8340014  36.5701347  20.1826880  35.2419841
  22.4779992  38.2229978  34.1320014  21.7579992  38.6629978  33.6810014
  22.1129992  37.9719978  34.9800014  22.3299643  38.2493369  34.1849129
  24.9449992  37.8229978  33.1620014  24.0809992  37.8949978  33.5660014
  24.8899992  38.3699978  32.3780014  24.8191942  37.9067849  33.1114000
  29.6559992  37.7109978  32.3370014  29.1989992  38.2399978  31.6830014
  29.8189992  38.3139978  33.0620014  29.6154960  37.8649280  32.3455274
  31.9839992  36.5889978  33.2820014  31.0789992  36.7539978  33.0160014
  32.4119992  37.4419978  33.2160014  31.9181537  36.7269134  33.2367095
  34.5879992  38.1589978  33.5770014  34.4059992  39.0749978  33.3660014
  34.7649992  37.7479978  32.7300014  34.5870030  38.2288273  33.4337166
  21.8929992  36.8459978  31.0420014  21.8749992  36.4199978  31.8990014
  22.6979992  36.5269978  30.6330014  21.9992875  36.7446435  31.1039515
  24.0339992  35.5559978  29.6970014  23.8149992  34.6389978  29.8670014
  24.8579992  35.6959978  30.1630014  24.1154702  35.4495511  29.7832527
  26.5709992  36.0259978  30.5460014  26.7839992  35.1379978  30.2590014
  26.6359992  35.9909978  31.5000014  26.6089149  35.8998326  30.6357369
  30.0799992  21.6899978  29.6900014  29.4059992  21.0599978  29.9460014
  30.6439992  21.2059978  29.0870014  30.0640384  21.5383708  29.6435020
  35.2229992  19.7969978  29.8030014  35.8259992  20.3449978  29.3010014
  34.3529992  20.1159978  29.5620014  35.1879157  19.9150373  29.7017910
  36.9499992  20.9359978  28.1360014  37.5609992  20.4219978  27.6090014
  37.3319992  21.8129978  28.1590014  37.0853305  20.9842050  28.0669418
  22.4069992  20.3239978  27.5120014  21.6299992  20.0889978  27.0050014
  22.9369992  19.5269978  27.5210014  22.3723451  20.1841268  27.4438627
  21.2429992  20.1219978  23.3160014  21.6819992  20.7329978  22.7240014
  20.6089992  20.6599978  23.7900014  21.2173859  20.2784064  23.2990305
  26.9859992  20.2499978  27.3250014  27.8599992  20.6389978  27.2960014
  26.8499992  20.0349978  28.2480014  27.0871953  20.2741643  27.4457617
  32.5429992  20.2799978  28.9750014  32.6189992  20.3759978  28.0250014
  32.2679992  19.3729978  29.1030014  32.5161871  20.1704146  28.8623944
  33.8959992  20.3059978  24.6670014  33.1929992  20.9209978  24.4570014
  33.4509992  19.4689978  24.7980014  33.7396550  20.2769668  24.6559837
  21.1439992  36.0699978  24.2130014  20.4589992  36.0319978  23.5460014
  21.1479992  36.9829978  24.5010014  21.0507621  36.1881924  24.1606126
  23.1039992  22.0379978  21.7580014  23.5949992  21.4079978  21.2310014
  23.7269992  22.3339978  22.4210014  23.2555304  21.9917376  21.7754940
  28.1299992  22.3309978  24.2150014  28.3079992  21.6839978  24.8980014
  28.0759992  23.1649978  24.6820014  28.1470678  22.3551604  24.3716301
  30.0079992  37.2789978  22.6110014  30.8739992  37.6459978  22.4330014
  29.7619992  36.8399978  21.7970014  30.0932097  37.2698525  22.4766019
  36.7169992  36.8419978  25.2900014  36.5229992  36.0939978  24.7250014
  36.6779992  37.5999978  24.7070014  36.6851645  36.8420786  25.1338148
  22.3639992  20.8379978  37.0300014  21.9979992  20.0719978  37.4720014
  23.2769992  20.8669978  37.3160014  22.4373172  20.7370324  37.1291890
  24.3369992  20.1879978  38.5650014  25.2359992  19.9139978  38.3810014
  23.9509992  19.4459978  39.0300014  24.4077307  20.0502196  38.6027098
  22.9619992  36.9899978  21.2380014  22.6939992  37.2759978  22.1120014
  23.7329992  36.4439978  21.3910014  23.0295926  36.9552779  21.3781205
  32.7589992  19.5209978  38.7480014  32.8349992  19.0949978  39.6010014
  33.6519992  19.5339978  38.4050014  32.8902303  19.4643493  38.8185497
  35.9349992  35.5939978  37.4400014  35.1529992  35.4069978  36.9200014
  35.8629992  36.5229978  37.6570014  35.8181924  35.6940637  37.3981602
  50.3409992  29.4799978  27.4710014  50.4299992  30.4239978  27.3390014
  49.7029992  29.2049978  26.8130014  50.2669062  29.5719812  27.3639641
  49.2739992  28.7349978  30.8900014  49.2359992  28.0889978  31.5950014
  48.9519992  28.2679978  30.1190014  49.2252679  28.5834276  30.8822921
  41.6419992  28.3489978  32.4830014  41.6839992  27.7239978  33.2060014
  42.3449992  28.9729978  32.6650014  41.7427345  28.3477873  32.6065274
  52.9799992  31.6739978  29.1910014  52.5389992  30.9539978  29.6420014
  52.9669992  32.3949978  29.8210014  52.9179215  31.6729291  29.3378105
  42.5659992  32.7989978  31.0180014  42.1959992  31.9969978  30.6480014
  43.5069992  32.6309978  31.0640014  42.6425984  32.6664638  30.9735603
  39.1759992  26.4589978  26.4100014  38.7279992  27.3049978  26.3920014
  38.6149992  25.8799978  25.8950014  39.0388546  26.4963993  26.3378891
  39.8859992  28.6209978  28.5360014  40.0999992  27.8509978  29.0640014
  40.6239992  28.7109978  27.9330014  40.0150200  28.5278587  28.5267035
  50.0919992  36.7779978  29.4030014  50.7109992  36.1019978  29.1300014
  49.8829992  36.5599978  30.3120014  50.1486056  36.6558869  29.4883967
  47.6629992  31.1669978  31.2960014  47.9669992  30.4809978  30.7010014
  48.3849992  31.2859978  31.9140014  47.8021240  31.0892314  31.2980959
  56.3259992  22.7689978  32.1560014  56.3759992  23.3789978  32.8920014
  56.7519992  23.2299978  31.4330014  56.3904108  22.9147709  32.1590112
  50.8039992  25.5609978  31.6230014  50.9469992  24.6149978  31.6430014
  50.6979992  25.7679978  30.6950014  50.8092403  25.4594797  31.5002239
  43.9589992  23.6629978  28.8960014  44.0019992  24.5229978  28.4770014
  43.5009992  23.1109978  28.2620014  43.9029871  23.7059245  28.7530761
  51.6809992  23.7939978  27.2970014  52.3279992  23.4649978  27.9210014
  52.1909992  24.3109978  26.6740014  51.8384351  23.8189067  27.2981037
  40.5789992  26.0599978  29.6580014  41.2329992  25.5099978  30.0900014
  40.6029992  25.7859978  28.7410014  40.6717199  25.9477167  29.5931668
  45.7359992  27.6099978  28.8730014  46.3519992  27.0829978  29.3820014
  45.1489992  26.9699978  28.4690014  45.7410154  27.4513954  28.8880945
  56.7179992  24.2469978  34.3920014  56.0289992  24.9049978  34.2970014
  56.7329992  24.0489978  35.3290014  56.6257756  24.3102603  34.5055812
  42.7689992  22.5809978  32.9700014  42.5499992  23.1109978  32.2030014
  42.1009992  22.8069978  33.6170014  42.6486975  22.6840967  32.9525140
  50.1379992  32.0809978  26.5140014  49.8429992  31.7579978  25.6620014
  49.8139992  32.9809978  26.5550014  50.0538460  32.1584464  26.4029714
  45.3379992  30.2559978  33.2570014  44.5979992  30.8549978  33.3610014
  46.0519992  30.8099978  32.9420014  45.3333500  30.4127829  33.2286371
  53.4449992  23.0849978  29.2770014  53.2299992  22.3189978  29.8100014
  54.1009992  23.5569978  29.7900014  53.5042673  23.0440728  29.4191990
  42.3629992  24.4729978  30.9220014  42.9769992  25.1059978  31.2950014
  42.8749992  24.0009978  30.2660014  42.5161962  24.4957249  30.8842935
  43.7459992  32.2209978  34.0440014  43.7399992  33.0999978  33.6660014
  42.8919992  32.1369978  34.4690014  43.6297925  32.3299535  34.0496887
  39.8669992  31.8919978  24.8260014  39.5949992  32.1209978  23.9380014
  39.9119992  32.7289978  25.2870014  39.8358097  32.0366163  24.7666683
  53.4919992  33.5129978  31.5390014  52.5499992  33.5719978  31.7010014
  53.7679992  34.4189978  31.4020014  53.4005865  33.6435288  31.5426192
  53.7919992  21.7999978  32.9560014  53.0559992  22.4099978  32.9190014
  54.4759992  22.2149978  32.4300014  53.7835367  21.9397551  32.8798174
  46.7959992  19.8859978  30.4220014  46.6779992  18.9379978  30.3680014
  45.9409992  20.2189978  30.6950014  46.6642805  19.8012202  30.4515079
  51.7439992  35.2939978  28.1640014  52.1689992  34.5869978  27.6790014
  52.0609992  36.0959978  27.7470014  51.8450266  35.3055190  28.0412479
  52.9039992  33.1949978  26.6730014  52.6459992  32.5049978  26.0610014
  52.9749992  32.7519978  27.5180014  52.8783050  33.0406814  26.7035621
  54.5899992  31.7619978  35.1500014  54.7289992  31.1699978  34.4110014
  54.7569992  32.6349978  34.7940014  54.6316193  31.7988896  35.0006211
  49.0619992  28.7239978  24.9230014  48.3509992  29.2589978  24.5710014
  49.7529992  28.7789978  24.2630014  49.0580751  28.8046777  24.7855858
  49.1159992  27.1809978  21.9610014  49.8169992  27.2039978  22.6130014
  49.4179992  26.5529978  21.3050014  49.2528202  27.0992212  21.9615609
  56.4309992  28.1019978  33.2160014  55.7789992  28.7959978  33.3050014
  56.8969992  28.3119978  32.4060014  56.4045937  28.2255019  33.1187533
  52.4679992  28.9329978  25.8740014  51.7359992  29.1619978  26.4480014
  52.9149992  28.2199978  26.3290014  52.4283963  28.8678729  26.0139945
  52.3649992  27.1079978  34.9420014  52.4449992  27.8709978  35.5140014
  51.7639992  27.3869978  34.2520014  52.2946547  27.2502457  34.9270047
  44.1129992  29.5639978  27.7570014  43.7829992  29.1929978  26.9390014
  44.7019992  28.8929978  28.1040014  44.1473970  29.4226063  27.6919404
  45.4799992  32.9919978  30.4380014  45.3849992  32.4129978  29.6820014
  46.2089992  32.6209978  30.9340014  45.5656011  32.8625561  30.4016028
  44.4799992  28.3319978  31.3900014  45.0449992  28.4539978  30.6280014
  44.7989992  28.9699978  32.0290014  44.6004166  28.4348791  31.3720348
  50.7889992  33.8359978  32.1240014  50.5489992  34.4979978  32.7720014
  50.5909992  33.0009978  32.5490014  50.7293826  33.8138115  32.2701566
  45.3599992  32.7319978  36.1080014  45.0489992  33.5139978  36.5630014
  44.7099992  32.5789978  35.4220014  45.2295538  32.8184087  36.0775898
  51.3389992  28.0959978  23.5600014  51.9179992  28.2459978  24.3060014
  51.7529992  28.5659978  22.8360014  51.4743358  28.1800955  23.5643953
  42.2799992  28.9299978  35.3360014  42.3499992  29.5809978  36.0350014
  41.3889992  29.0329978  35.0010014  42.1691690  29.0329249  35.3863043
  49.0649992  34.8319978  26.9950014  49.5389992  35.1279978  27.7720014
  48.5019992  35.5709978  26.7620014  49.0537890  34.9723036  27.0698101
  43.5989992  34.8029978  36.8710014  43.6069992  34.6669978  35.9240014
  42.6829992  34.6859978  37.1230014  43.4762528  34.7685463  36.7753243
  55.0379992  19.8459978  23.3730014  54.1379992  19.9849978  23.6680014
  55.2899992  20.6769978  22.9710014  54.9488683  19.9774055  23.3590232
  43.1039992  28.6329978  25.3460014  42.8119992  29.4009978  24.8550014
  42.4289992  27.9739978  25.1830014  42.9728497  28.6489745  25.2568260
  56.2269992  34.2119978  21.7490014  56.2999992  35.1509978  21.9190014
  57.1319992  33.9069978  21.6930014  56.3594170  34.2993282  21.7647063
  39.1969992  30.9959978  34.1610014  38.6949992  30.9679978  33.3460014
  39.2019992  30.0909978  34.4710014  39.1289832  30.8697486  34.0914121
  38.9469992  33.7769978  31.0450014  39.8929992  33.6319978  31.0260014
  38.8339992  34.5609978  31.5820014  39.0613578  33.8631697  31.1150317
  57.1449992  34.4429978  36.7280014  57.0949992  33.4869978  36.6900014
  56.3179992  34.7099978  37.1290014  57.0263831  34.3484680  36.7770121
  48.1229992  34.0169978  35.6040014  48.2109992  34.8429978  36.0790014
  47.2599992  33.6869978  35.8530014  48.0183357  34.0855468  35.7027653
  48.5379992  37.7889978  25.4100014  48.4619992  37.6679978  24.4630014
  48.5699992  38.7379978  25.5280014  48.5319380  37.9007677  25.2965181
  42.1909992  36.5779978  27.1910014  42.3429992  36.2299978  28.0690014
  41.3399992  36.2209978  26.9350014  42.0968344  36.4820879  27.2766868
  51.6389992  36.9429978  22.4120014  52.0139992  36.1989978  21.9410014
  51.6439992  36.6729978  23.3300014  51.6910098  36.8046392  22.4716629
  51.3079992  36.8689978  25.1610014  50.3729992  36.9689978  25.3400014
  51.5879992  36.1589978  25.7400014  51.2179471  36.7867933  25.2636695
  54.2969992  25.9359978  37.2080014  53.8889992  26.4159978  36.4870014
  54.3369992  25.0299978  36.9000014  54.2466221  25.8792449  37.0678267
  41.4459992  32.3199978  35.2040014  41.6619992  31.9579978  36.0640014
  40.5899992  31.9449978  34.9950014  41.3598810  32.2198837  35.2932680
  44.0639992  20.7899978  31.2000014  43.2029992  20.7029978  30.7920014
  44.0419992  21.6459978  31.6280014  43.9430491  20.8938003  31.2019582
  48.7269992  20.5119978  34.5750014  49.1469992  20.0969978  35.3280014
  47.7939992  20.3329978  34.6920014  48.6583736  20.4309910  34.6938968
  52.0539992  24.2669978  35.4280014  51.5399992  24.1419978  36.2260014
  51.8979992  25.1799978  35.1840014  51.9626967  24.3732123  35.5040937
  52.8159992  29.1279978  21.1890014  52.8579992  28.9059978  20.2590014
  53.6649992  29.5269978  21.3790014  52.9365253  29.1515498  21.0873822
  48.3889992  23.0039978  21.8600014  48.1349992  23.0229978  22.7820014
  48.1319992  22.1329978  21.5580014  48.3194508  22.8888280  21.9454803
  44.1549992  25.7549978  32.2950014  43.5139992  25.7149978  33.0040014
  44.1929992  26.6819978  32.0570014  44.0723010  25.8747668  32.3599946
  44.1519992  25.9759978  27.2070014  43.2599992  25.6359978  27.1480014
  44.6029992  25.5989978  26.4510014  44.0907642  25.8784910  27.0967726
  49.6879992  26.3919978  26.0240014  49.2789992  27.2069978  25.7320014
  50.4079992  26.2519978  25.4100014  49.7294439  26.4845372  25.9010115
  48.7899992  26.5679978  37.5120014  48.2269992  25.8629978  37.8330014
  49.6159992  26.4469978  37.9800014  48.8246674  26.4552165  37.6191751
  50.6929992  25.8379978  28.8380014  50.4969992  26.4439978  28.1230014
  50.8739992  25.0049978  28.4040014  50.6906584  25.8082513  28.6814212
  41.9049992  26.0759978  34.1620014  41.8669992  26.4759978  35.0310014
  41.4149992  25.2589978  34.2520014  41.8335330  26.0202674  34.2931289
  45.2709992  23.4499978  20.9610014  44.8399992  23.0049978  21.6900014
  44.5529992  23.8209978  20.4480014  45.1149176  23.4392051  20.9914930
  38.5139992  23.1919978  28.0130014  39.1439992  23.1629978  28.7320014
  38.9629992  22.7669978  27.2820014  38.6610835  23.1305660  28.0127659
  39.7879992  23.9379978  23.4370014  40.2619992  24.5289978  22.8520014
  39.0699992  24.4679978  23.7840014  39.7558640  24.0905511  23.4037969
  49.9569992  27.4759978  33.5090014  50.2799992  26.8449978  32.8660014
  49.5159992  26.9419978  34.1700014  49.9416379  27.3173468  33.5102582
  46.7339992  23.4039978  28.2930014  45.8229992  23.4609978  28.5820014
  47.2389992  23.3439978  29.1040014  46.6776873  23.4036826  28.4421207
  41.5619992  25.0329978  27.1200014  40.6729992  25.1319978  26.7800014
  41.8589992  24.1909978  26.7740014  41.4804177  24.9327687  27.0266940
  45.2149992  25.0329978  24.7770014  46.1469992  25.1619978  24.9550014
  44.9999992  25.7019978  24.1270014  45.3134472  25.1410806  24.7134891
  51.1389992  22.6389978  31.5580014  50.4619992  22.7699978  32.2210014
  50.6539992  22.4839978  30.7470014  50.9807405  22.6359947  31.5392170
  43.8889992  26.2269978  22.3430014  43.3469992  25.8479978  21.6520014
  44.7229992  26.4219978  21.9150014  43.9274390  26.2014079  22.1904392
  54.4269992  38.3099978  37.8340014  54.6259992  38.7339978  37.0000014
  55.0819992  38.6539978  38.4410014  54.5428522  38.4146301  37.8017852
  42.0249992  30.7839978  37.4420014  42.7569992  31.0389978  38.0040014
  41.2439992  30.9889978  37.9580014  42.0196526  30.8465450  37.5885176
  48.0539992  26.1909978  30.1800014  48.6179992  25.6449978  29.6330014
  47.9059992  25.6699978  30.9690014  48.1113037  26.0456787  30.2117229
  43.0559992  22.3279978  26.5990014  42.7389992  21.4249978  26.5630014
  43.8369992  22.3299978  26.0460014  43.1182431  22.2047797  26.5193102
  46.6799992  24.5799978  32.5940014  45.8449992  25.0339978  32.7050014
  47.2039992  24.8559978  33.3460014  46.6366072  24.6793948  32.7108136
  47.2249992  30.7929978  24.2790014  46.4799992  30.2849978  23.9570014
  47.0899992  30.8419978  25.2250014  47.1048963  30.7301731  24.3628826
  54.3749992  29.9259978  33.0660014  55.0159992  30.3819978  32.5220014
  53.5439992  30.0389978  32.6030014  54.3505287  30.0036921  32.9289887
  51.1219992  23.6069978  22.4780014  50.1839992  23.7179978  22.3270014
  51.4199992  24.4629978  22.7850014  51.0336318  23.7380158  22.4988145
  48.7439992  30.9769978  35.5160014  48.3979992  30.5949978  36.3230014
  48.5439992  31.9099978  35.5870014  48.6695987  31.0509002  35.6360461
  51.8409992  25.4739978  24.1390014  52.7329992  25.3359978  24.4580014
  51.8969992  26.2649978  23.6020014  51.9707325  25.5619918  24.1101217
  42.3489992  30.0879978  30.0490014  43.0939992  30.0849978  29.4470014
  42.4269992  29.2639978  30.5300014  42.4613365  29.9762384  30.0317430
  49.3499992  32.2509978  23.3040014  49.0549992  33.0779978  23.6860014
  48.6469992  31.6319978  23.5010014  49.2146379  32.2804171  23.3828654
  39.3569992  28.5479978  35.3640014  39.5799992  28.1299978  36.1950014
  38.7549992  27.9359978  34.9410014  39.3061513  28.4079606  35.4206740
  46.3739992  28.0649978  37.5770014  46.0779992  27.8999978  36.6810014
  47.3049992  27.8449978  37.5660014  46.4594401  28.0126879  37.4530206
  50.9939992  33.4389978  35.4660014  50.0939992  33.6219978  35.1990014
  51.0279992  33.6979978  36.3870014  50.8753748  33.4990554  35.5539164
  56.7259992  25.6829978  23.8340014  56.1709992  25.2869978  23.1610014
  56.8259992  26.5939978  23.5560014  56.6636816  25.7519505  23.7045033
  56.6889992  31.4839978  36.6710014  55.8379992  31.7219978  36.3030014
  57.2789992  31.4669978  35.9180014  56.6523812  31.5142524  36.5188453
  55.0209992  34.4689978  24.2990014  54.6479992  33.6439978  24.6080014
  55.2979992  34.2859978  23.4010014  55.0073463  34.3312569  24.2199525
  52.1809992  29.2769978  31.3200014  51.2529992  29.0459978  31.2930014
  52.6319992  28.4999978  30.9900014  52.1148165  29.1402774  31.2716790
  44.7239992  33.6059978  27.4530014  45.2519992  34.3789978  27.2530014
  43.8439992  33.8299978  27.1510014  44.6773435  33.7422700  27.3847310
  40.4789992  28.4679978  22.0400014  41.0949992  29.0949978  22.4200014
  39.6169992  28.7839978  22.3120014  40.4467678  28.5964412  22.1287209
  46.1519992  31.2689978  27.0290014  45.9109992  32.1939978  27.0710014
  45.4109992  30.8099978  27.4260014  46.0189206  31.3335915  27.0883769
  46.6659992  35.4179978  33.3440014  47.0289992  36.2719978  33.1110014
  47.1979992  35.1259978  34.0850014  46.7875141  35.4953895  33.4122097
  44.8349992  36.2899978  26.5750014  43.8849992  36.3959978  26.6260014
  45.1869992  37.1109978  26.9190014  44.7525472  36.4154923  26.6284852
  50.2099992  31.5169978  33.0450014  49.7849992  31.2889978  33.8710014
  50.7909992  30.7779978  32.8630014  50.2303395  31.3859545  33.1334414
  52.4129992  32.4459978  22.1190014  52.7669992  32.0659978  22.9230014
  51.4649992  32.3519978  22.2060014  52.3332298  32.3812452  22.2408687
  52.8689992  36.0689978  35.5140014  52.2669992  35.5129978  35.0190014
  53.1499992  36.7359978  34.8880014  52.8245757  36.0830744  35.3615675
  56.9169992  36.9249978  22.3200014  57.6609992  37.5109978  22.1800014
  56.2229992  37.4939978  22.6530014  56.9249809  37.0820818  22.3458590
  40.9909992  23.3019978  34.9220014  40.0989992  23.6399978  34.8540014
  40.8929992  22.4459978  35.3400014  40.8554475  23.2326543  34.9691704
  53.2789992  31.1179978  24.3460014  53.0019992  30.3899978  24.9020014
  54.2069992  31.2369978  24.5510014  53.3664499  31.0344213  24.4498044
  40.6429992  35.1059978  33.3570014  40.8599992  34.1739978  33.3260014
  40.8889992  35.3809978  34.2400014  40.7059809  35.0155686  33.4721691
  46.5039992  33.5579978  20.5660014  46.7429992  32.8089978  20.0190014
  46.2349992  33.1699978  21.3990014  46.5003233  33.4031853  20.6037809
  45.4409992  33.1279978  23.0220014  45.5879992  32.6079978  23.8120014
  45.4379992  34.0349978  23.3290014  45.4607102  33.1793953  23.1715925
  41.8939992  30.3799978  23.5330014  41.2079992  30.7329978  24.1000014
  42.4169992  31.1429978  23.2860014  41.8708402  30.5313901  23.5771801
  49.7259992  23.0429978  33.8120014  50.4249992  23.1169978  34.4620014
  49.3449992  22.1779978  33.9660014  49.7702097  22.9362389  33.9217997
  50.5099992  22.6949978  24.9090014  50.7299992  23.1659978  24.1050014
  51.0689992  23.0889978  25.5790014  50.6156731  22.8127287  24.8895033
  48.1789992  34.8249978  23.7720014  47.3619992  35.3219978  23.8240014
  48.7079992  35.3009978  23.1310014  48.1388125  34.9571989  23.6925306
  47.7099992  24.4229978  25.7440014  48.5219992  24.9269978  25.7900014
  47.4659992  24.2779978  26.6580014  47.7881467  24.4723749  25.8738575
  48.2459992  25.4089978  34.9280014  48.3649992  25.9829978  35.6850014
  48.9009992  24.7209978  35.0430014  48.3508684  25.3945194  35.0471674
  48.5939992  21.5039978  26.6820014  48.2469992  22.1209978  27.3260014
  49.2529992  22.0049978  26.2000014  48.6355090  21.6561575  26.7050681
  45.5169992  35.8689978  23.7530014  45.6779992  36.6689978  23.2530014
  45.3199992  36.1759978  24.6380014  45.5123906  36.0198678  23.8042333
  44.2519992  22.5669978  23.3690014  44.1679992  23.4549978  23.7160014
  45.1419992  22.3019978  23.6010014  44.3608163  22.6527179  23.4478596
  54.4499992  23.3159978  35.7630014  53.5339992  23.5779978  35.6760014
  54.7859992  23.3129978  34.8670014  54.3698499  23.3515163  35.6298766
  53.0529992  27.0659978  29.8590014  52.2549992  26.6509978  29.5310014
  53.4979992  26.3759978  30.3500014  53.0039684  26.9158628  29.8805227
  42.5099992  32.9939978  22.4290014  43.1019992  33.6939978  22.7060014
  42.9689992  32.5609978  21.7100014  42.6531652  33.0312675  22.3696533
  40.8259992  25.6589978  21.5450014  40.7809992  26.5979978  21.7240014
  39.9379992  25.4229978  21.2760014  40.6998166  25.7556687  21.5331524
  54.1389992  36.3219978  31.4810014  53.9829992  37.0009978  30.8240014
  55.0719992  36.3939978  31.6840014  54.2437387  36.4246390  31.4185342
  41.6339992  20.4399978  30.2190014  41.4049992  20.4989978  29.2910014
  41.1919992  19.6489978  30.5250014  41.5428801  20.3410540  30.1334729
  40.5649992  34.3809978  26.3790014  39.7319992  34.8529978  26.4060014
  41.1099992  34.8909978  25.7800014  40.5247857  34.5144791  26.3017142
  39.8529992  36.9929978  37.7090014  40.3929992  36.7769978  38.4690014
  39.3719992  36.1879978  37.5190014  39.8619219  36.8545156  37.7874282
  44.4499992  35.9129978  39.3290014  45.2179992  35.4539978  39.6700014
  44.4289992  35.6869978  38.3990014  44.5522135  35.8196668  39.2499491
  48.5419992  35.4209978  20.7050014  47.8979992  34.7899978  21.0260014
  49.3039992  34.8899978  20.4730014  48.5568058  35.2627902  20.7176038
  51.0269992  34.2929978  38.0580014  50.6759992  33.4359978  38.3020014
  51.7529992  34.4349978  38.6650014  51.0771895  34.1951351  38.1733770
  53.1469992  35.2379978  20.9380014  53.4299992  34.4429978  21.3910014
  53.8859992  35.4709978  20.3770014  53.2857096  35.1607049  20.9241104
  39.7599992  30.8039978  38.6630014  39.9039992  29.9019978  38.3770014
  38.9879992  31.0899978  38.1760014  39.6752733  30.7191798  38.5579532
  44.1009992  31.1469978  20.7960014  44.1659992  30.3529978  21.3260014
  44.7539992  31.0289978  20.1060014  44.1981605  31.0223430  20.7752997
  46.4149992  30.7729978  38.0960014  46.0869992  31.0439978  37.2390014
  46.5669992  29.8319978  38.0080014  46.3906412  30.6829046  37.9667822
  49.4539992  32.1939978  20.5320014  49.1849992  32.3749978  21.4320014
  49.2469992  31.2689978  20.4000014  49.3891191  32.0937119  20.6375524
  52.1499992  30.6889978  35.4790014  52.8949992  31.2779978  35.3600014
  51.3929992  31.2709978  35.5430014  52.1495470  30.8482128  35.4713799
  40.5929992  28.0039978  38.0830014  41.0009992  27.1469978  37.9620014
  40.3319992  28.0179978  39.0040014  40.6136016  27.8885119  38.1909192
  45.2509992  29.1199978  23.1020014  44.7909992  28.6359978  23.7870014
  45.5059992  28.4509978  22.4660014  45.2224856  28.9633669  23.1098397
  44.5399992  27.0129978  35.4580014  43.9209992  27.6869978  35.7380014
  44.8839992  27.3339978  34.6240014  44.5017123  27.1486887  35.3836388
  46.3219992  27.3629978  21.3640014  46.1409992  27.2079978  20.4370014
  47.2719992  27.4709978  21.4090014  46.4256566  27.3563669  21.2430929
  49.5589992  29.4839978  38.7350014  50.5129992  29.5679978  38.7080014
  49.3989992  28.7719978  39.3550014  49.6677182  29.3992842  38.8150733
  55.7119992  29.7169978  20.8100014  55.4379992  29.2929978  19.9970014
  55.7509992  30.6489978  20.5930014  55.6797716  29.7848827  20.6694286
  44.8789992  24.3679978  36.5400014  45.0289992  23.6389978  35.9380014
  44.8809992  25.1449978  35.9810014  44.8997967  24.3732708  36.3820541
  45.2919992  22.7369978  34.0330014  45.8269992  23.1889978  33.3810014
  44.4389992  22.6289978  33.6100014  45.2500374  22.7842665  33.8866710
  46.8729992  28.1769978  34.2720014  47.6239992  28.0209978  33.6990014
  46.5339992  29.0289978  33.9970014  46.9299587  28.2708138  34.1564078
  51.2889992  25.9919978  39.3010014  51.4809992  25.0609978  39.1890014
  52.1469992  26.4169978  39.2900014  51.4312182  25.9220070  39.2841862
  52.6059992  28.7809978  37.3780014  52.3239992  29.4899978  36.8000014
  53.5479992  28.7079978  37.2270014  52.6947921  28.8682193  37.2784225
  43.3579992  25.5659978  38.4510014  42.5899992  25.0329978  38.2410014
  44.0359992  25.2559978  37.8520014  43.3447235  25.4511754  38.3412413
  46.0969992  20.1939978  34.4640014  45.9989992  21.1399978  34.3590014
  45.3549992  19.8209978  33.9880014  45.9832534  20.2731773  34.3852600
  47.3609992  24.5149978  38.0280014  47.1259992  24.2959978  38.9290014
  46.5779992  24.3079978  37.5180014  47.2229095  24.4569892  38.0825353
  50.0769992  23.6429978  37.1030014  49.1289992  23.6749978  37.2350014
  50.3889992  23.0169978  37.7570014  49.9895293  23.5627923  37.2094148
  51.7109992  22.2769978  39.1080014  51.6139992  21.3249978  39.1030014
  51.3889992  22.5449978  39.9690014  51.6542468  22.1830884  39.2236210
  41.5379992  23.4859978  38.1560014  41.7499992  22.7799978  37.5460014
  41.4269992  23.0489978  39.0000014  41.5520269  23.3301921  38.1865873
  46.3189992  19.4879978  37.1350014  47.0309992  18.8479978  37.1210014
  46.2179992  19.7539978  36.2220014  46.4027387  19.4364330  37.0095563
  46.6729992  21.1699978  39.1890014  46.5409992  20.6949978  38.3690014
  46.0729992  21.9149978  39.1340014  46.5739070  21.2055789  39.0693251
  46.2189992  38.0529978  22.3650014  47.1519992  38.2109978  22.5090014
  45.9549992  38.7289978  21.7400014  46.3109911  38.1659373  22.3002722
  39.7869992  32.6899978  21.8480014  40.7009992  32.7689978  22.1210014
  39.7949992  32.0029978  21.1820014  39.9130655  32.6079205  21.7952917
  38.4359992  38.0829978  26.9250014  37.7889992  37.6209978  26.3930014
  38.7909992  37.4109978  27.5080014  38.3953741  37.9289774  26.9309175
  39.3059992  36.1629978  28.7300014  38.9719992  35.2829978  28.9020014
  39.5289992  36.5089978  29.5950014  39.2903721  36.0891938  28.8704168
  56.8549992  36.9729978  31.7110014  56.8329992  37.1579978  32.6500014
  57.5449992  37.5409978  31.3700014  56.9453439  37.0751887  31.7934791
  56.4179992  36.5399978  34.6320014  55.9309992  35.8049978  34.2610014
  56.9669992  36.1459978  35.3100014  56.4255247  36.3861057  34.6728461
  54.8689992  32.3299978  39.2710014  54.0029992  32.2249978  39.6650014
  55.2449992  33.0879978  39.7170014  54.8013401  32.4181708  39.3852620
  56.1699992  30.5859978  24.7850014  57.0199992  31.0069978  24.9120014
  56.1749992  29.8459978  25.3920014  56.2871143  30.5436094  24.8844750
  56.5639992  28.6399978  26.6080014  55.8379992  28.1599978  27.0060014
  57.1459992  28.8449978  27.3410014  56.5432730  28.6020184  26.7614149
  56.3229992  31.4249978  31.5560014  57.1569992  31.0469978  31.2750014
  56.4349992  32.3679978  31.4370014  56.4521917  31.5007943  31.5014861
  54.8099992  34.3029978  33.8630014  54.1619992  34.6279978  34.4880014
  54.2919992  33.8619978  33.1890014  54.6514196  34.2878651  33.8574152
  56.8329992  28.5409978  22.9990014  56.3109992  28.8969978  22.2810014
  56.7999992  29.2159978  23.6780014  56.7570129  28.6809598  22.9923355
  55.1819992  25.7799978  21.5500014  55.2779992  26.4469978  20.8700014
  55.0419992  24.9649978  21.0690014  55.1762040  25.7610671  21.3918378
  54.3509992  27.1609978  27.1710014  54.2009992  26.2159978  27.1510014
  53.9969992  27.4419978  28.0150014  54.2826351  27.0696644  27.2823220
  39.3859992  29.2389978  31.1820014  39.5709992  29.1569978  30.2460014
  40.2359992  29.1149978  31.6050014  39.5260928  29.2110463  31.1112893
  55.2069992  29.1309978  36.8100014  55.7899992  28.3959978  37.0020014
  55.7709992  29.9029978  36.8570014  55.3629781  29.1348145  36.8426164
  56.7039992  27.0339978  37.4950014  55.8409992  26.6549978  37.3290014
  57.3079992  26.2949978  37.4200014  56.6676085  26.8823223  37.4621695
  54.4289992  23.1879978  20.6680014  55.0399992  22.8169978  21.3050014
  53.5919992  22.7669978  20.8640014  54.3994947  23.0802756  20.7817252
  54.0619992  24.7429978  25.6340014  54.3409992  23.8359978  25.7580014
  54.8209992  25.1769978  25.2450014  54.2028619  24.6774502  25.5983795
  54.6729992  25.3249978  31.0700014  55.6059992  25.5369978  31.0350014
  54.4379992  25.4259978  31.9920014  54.7689517  25.3676833  31.1899130
  54.7029992  26.0619978  33.8460014  53.8599992  26.3299978  34.2120014
  55.1449992  26.8839978  33.6350014  54.6474138  26.2098273  33.8675518
  38.9839992  24.5089978  37.3220014  39.9029992  24.3869978  37.5590014
  38.5339992  23.7589978  37.7120014  39.0490087  24.3909608  37.4071410
  56.9859992  20.0419978  39.1990014  57.3349992  19.3879978  38.5940014
  57.1329992  20.8789978  38.7590014  57.0536824  20.0656024  39.0566304
  54.6749992  22.0059978  25.6820014  54.8569992  21.5569978  26.5070014
  54.0749992  21.4219978  25.2180014  54.6188187  21.8655552  25.7322739
  40.2049992  22.8219978  30.2140014  40.6499992  22.0299978  30.5160014
  40.6709992  23.5379978  30.6440014  40.3289718  22.8104534  30.3135265
  38.5089992  25.8209978  31.2830014  39.0009992  25.5999978  30.4920014
  38.8709992  26.6609978  31.5640014  38.6252923  25.9043468  31.2127407
  56.5049992  22.1509978  37.5480014  55.5879992  22.4219978  37.5130014
  56.6279992  21.6159978  36.7640014  56.3959672  22.1157885  37.4371862
  56.5419992  22.0739978  22.2100014  56.9539992  21.3529978  21.7350014
  57.2229992  22.7429978  22.2680014  56.6905536  22.0657766  22.1528024
  38.8229992  22.0789978  25.3370014  37.8979992  22.2869978  25.2080014
  39.2769992  22.5629978  24.6470014  38.7576298  22.1729299  25.2260451
  53.5929992  37.0629978  27.2830014  54.2459992  36.7149978  26.6750014
  54.1039992  37.5509978  27.9290014  53.7512777  37.0813815  27.2872047
  38.7859992  20.8169978  33.6810014  38.1209992  20.5709978  34.3240014
  38.3429992  21.4389978  33.1040014  38.6351168  20.8674214  33.6909848
  40.9779992  33.9919978  37.8260014  40.1569992  34.1669978  37.3650014
  40.7259992  33.9189978  38.7460014  40.8315594  34.0060717  37.8873611
  43.9319992  34.9659978  34.0840014  43.5079992  35.7759978  33.8020014
  44.8369992  35.0519978  33.7820014  43.9962138  35.0884160  34.0046415
  48.2439992  36.3649978  37.0440014  48.4279992  36.0319978  37.9220014
  49.0899992  36.6749978  36.7220014  48.3836484  36.3612979  37.1207617
  50.5889992  37.6509978  36.2880014  51.2659992  37.0179978  36.0480014
  50.9099992  38.0519978  37.0950014  50.7251323  37.6185691  36.3643158
  55.5059992  20.2409978  35.3670014  54.6929992  20.5659978  34.9800014
  55.7389992  19.4799978  34.8340014  55.4261347  20.1826880  35.2419841
  41.3339992  38.2229978  34.1320014  40.6139992  38.6629978  33.6810014
  40.9689992  37.9719978  34.9800014  41.1859643  38.2493369  34.1849129
  43.8009992  37.8229978  33.1620014  42.9369992  37.8949978  33.5660014
  43.7459992  38.3699978  32.3780014  43.6751942  37.9067849  33.1114000
  48.5119992  37.7109978  32.3370014  48.0549992  38.2399978  31.6830014
  48.6749992  38.3139978  33.0620014  48.4714960  37.8649280  32.3455274
  50.8399992  36.5889978  33.2820014  49.9349992  36.7539978  33.0160014
  51.2679992  37.4419978  33.2160014  50.7741537  36.7269134  33.2367095
  53.4439992  38.1589978  33.5770014  53.2619992  39.0749978  33.3660014
  53.6209992  37.7479978  32.7300014  53.4430030  38.2288273  33.4337166
  40.7489992  36.8459978  31.0420014  40.7309992  36.4199978  31.8990014
  41.5539992  36.5269978  30.6330014  40.8552875  36.7446435  31.1039515
  42.8899992  35.5559978  29.6970014  42.6709992  34.6389978  29.8670014
  43.7139992  35.6959978  30.1630014  42.9714702  35.4495511  29.7832527
  45.4269992  36.0259978  30.5460014  45.6399992  35.1379978  30.2590014
  45.4919992  35.9909978  31.5000014  45.4649149  35.8998326  30.6357369
  48.9359992  21.6899978  29.6900014  48.2619992  21.0599978  29.9460014
  49.4999992  21.2059978  29.0870014  48.9200384  21.5383708  29.6435020
  54.0789992  19.7969978  29.8030014  54.6819992  20.3449978  29.3010014
  53.2089992  20.1159978  29.5620014  54.0439157  19.9150373  29.7017910
  55.8059992  20.9359978  28.1360014  56.4169992  20.4219978  27.6090014
  56.1879992  21.8129978  28.1590014  55.9413305  20.9842050  28.0669418
  41.2629992  20.3239978  27.5120014  40.4859992  20.0889978  27.0050014
  41.7929992  19.5269978  27.5210014  41.2283451  20.1841268  27.4438627
  40.0989992  20.1219978  23.3160014  40.5379992  20.7329978  22.7240014
  39.4649992  20.6599978  23.7900014  40.0733859  20.2784064  23.2990305
  45.8419992  20.2499978  27.3250014  46.7159992  20.6389978  27.2960014
  45.7059992  20.0349978  28.2480014  45.9431953  20.2741643  27.4457617
  51.3989992  20.2799978  28.9750014  51.4749992  20.3759978  28.0250014
  51.1239992  19.3729978  29.1030014  51.3721871  20.1704146  28.8623944
  52.7519992  20.3059978  24.6670014  52.0489992  20.9209978  24.4570014
  52.3069992  19.4689978  24.7980014  52.5956550  20.2769668  24.6559837
  39.9999992  36.0699978  24.2130014  39.3149992  36.0319978  23.5460014
  40.0039992  36.9829978  24.5010014  39.9067621  36.1881924  24.1606126
  41.9599992  22.0379978  21.7580014  42.4509992  21.4079978  21.2310014
  42.5829992  22.3339978  22.4210014  42.1115304  21.9917376  21.7754940
  46.9859992  22.3309978  24.2150014  47.1639992  21.6839978  24.8980014
  46.9319992  23.1649978  24.6820014  47.0030678  22.3551604  24.3716301
  48.8639992  37.2789978  22.6110014  49.7299992  37.6459978  22.4330014
  48.6179992  36.8399978  21.7970014  48.9492097  37.2698525  22.4766019
  55.5729992  36.8419978  25.2900014  55.3789992  36.0939978  24.7250014
  55.5339992  37.5999978  24.7070014  55.5411645  36.8420786  25.1338148
  41.2199992  20.8379978  37.0300014  40.8539992  20.0719978  37.4720014
  42.1329992  20.8669978  37.3160014  41.2933172  20.7370324  37.1291890
  43.1929992  20.1879978  38.5650014  44.0919992  19.9139978  38.3810014
  42.8069992  19.4459978  39.0300014  43.2637307  20.0502196  38.6027098
  41.8179992  36.9899978  21.2380014  41.5499992  37.2759978  22.1120014
  42.5889992  36.4439978  21.3910014  41.8855926  36.9552779  21.3781205
  51.6149992  19.5209978  38.7480014  51.6909992  19.0949978  39.6010014
  52.5079992  19.5339978  38.4050014  51.7462303  19.4643493  38.8185497
  54.7909992  35.5939978  37.4400014  54.0089992  35.4069978  36.9200014
  54.7189992  36.5229978  37.6570014  54.6741924  35.6940637  37.3981602
  69.1969992  29.4799978  27.4710014  69.2859992  30.4239978  27.3390014
  68.5589992  29.2049978  26.8130014  69.1229062  29.5719812  27.3639641
  68.1299992  28.7349978  30.8900014  68.0919992  28.0889978  31.5950014
  67.8079992  28.2679978  30.1190014  68.0812679  28.5834276  30.8822921
  60.4979992  28.3489978  32.4830014  60.5399992  27.7239978  33.2060014
  61.2009992  28.9729978  32.6650014  60.5987345  28.3477873  32.6065274
  71.8359992  31.6739978  29.1910014  71.3949992  30.9539978  29.6420014
  71.8229992  32.3949978  29.8210014  71.7739215  31.6729291  29.3378105
  61.4219992  32.7989978  31.0180014  61.0519992  31.9969978  30.6480014
  62.3629992  32.6309978  31.0640014  61.4985984  32.6664638  30.9735603
  58.0319992  26.4589978  26.4100014  57.5839992  27.3049978  26.3920014
  57.4709992  25.8799978  25.8950014  57.8948546  26.4963993  26.3378891
  58.7419992  28.6209978  28.5360014  58.9559992  27.8509978  29.0640014
  59.4799992  28.7109978  27.9330014  58.8710200  28.5278587  28.5267035
  68.9479992  36.7779978  29.4030014  69.5669992  36.1019978  29.1300014
  68.7389992  36.5599978  30.3120014  69.0046056  36.6558869  29.4883967
  66.5189992  31.1669978  31.2960014  66.8229992  30.4809978  30.7010014
  67.2409992  31.2859978  31.9140014  66.6581240  31.0892314  31.2980959
  75.1819992  22.7689978  32.1560014  75.2319992  23.3789978  32.8920014
  75.6079992  23.2299978  31.4330014  75.2464108  22.9147709  32.1590112
  69.6599992  25.5609978  31.6230014  69.8029992  24.6149978  31.6430014
  69.5539992  25.7679978  30.6950014  69.6652403  25.4594797  31.5002239
  62.8149992  23.6629978  28.8960014  62.8579992  24.5229978  28.4770014
  62.3569992  23.1109978  28.2620014  62.7589871  23.7059245  28.7530761
  70.5369992  23.7939978  27.2970014  71.1839992  23.4649978  27.9210014
  71.0469992  24.3109978  26.6740014  70.6944351  23.8189067  27.2981037
  59.4349992  26.0599978  29.6580014  60.0889992  25.5099978  30.0900014
  59.4589992  25.7859978  28.7410014  59.5277199  25.9477167  29.5931668
  64.5919992  27.6099978  28.8730014  65.2079992  27.0829978  29.3820014
  64.0049992  26.9699978  28.4690014  64.5970154  27.4513954  28.8880945
  75.5739992  24.2469978  34.3920014  74.8849992  24.9049978  34.2970014
  75.5889992  24.0489978  35.3290014  75.4817756  24.3102603  34.5055812
  61.6249992  22.5809978  32.9700014  61.4059992  23.1109978  32.2030014
  60.9569992  22.8069978  33.6170014  61.5046975  22.6840967  32.9525140
  68.9939992  32.0809978  26.5140014  68.6989992  31.7579978  25.6620014
  68.6699992  32.9809978  26.5550014  68.9098460  32.1584464  26.4029714
  64.1939992  30.2559978  33.2570014  63.4539992  30.8549978  33.3610014
  64.9079992  30.8099978  32.9420014  64.1893500  30.4127829  33.2286371
  72.3009992  23.0849978  29.2770014  72.0859992  22.3189978  29.8100014
  72.9569992  23.5569978  29.7900014  72.3602673  23.0440728  29.4191990
  61.2189992  24.4729978  30.9220014  61.8329992  25.1059978  31.2950014
  61.7309992  24.0009978  30.2660014  61.3721962  24.4957249  30.8842935
  62.6019992  32.2209978  34.0440014  62.5959992  33.0999978  33.6660014
  61.7479992  32.1369978  34.4690014  62.4857925  32.3299535  34.0496887
  58.7229992  31.8919978  24.8260014  58.4509992  32.1209978  23.9380014
  58.7679992  32.7289978  25.2870014  58.6918097  32.0366163  24.7666683
  72.3479992  33.5129978  31.5390014  71.4059992  33.5719978  31.7010014
  72.6239992  34.4189978  31.4020014  72.2565865  33.6435288  31.5426192
  72.6479992  21.7999978  32.9560014  71.9119992  22.4099978  32.9190014
  73.3319992  22.2149978  32.4300014  72.6395367  21.9397551  32.8798174
  65.6519992  19.8859978  30.4220014  65.5339992  18.9379978  30.3680014
  64.7969992  20.2189978  30.6950014  65.5202805  19.8012202  30.4515079
  70.5999992  35.2939978  28.1640014  71.0249992  34.5869978  27.6790014
  70.9169992  36.0959978  27.7470014  70.7010266  35.3055190  28.0412479
  71.7599992  33.1949978  26.6730014  71.5019992  32.5049978  26.0610014
  71.8309992  32.7519978  27.5180014  71.7343050  33.0406814  26.7035621
  73.4459992  31.7619978  35.1500014  73.5849992  31.1699978  34.4110014
  73.6129992  32.6349978  34.7940014  73.4876193  31.7988896  35.0006211
  67.9179992  28.7239978  24.9230014  67.2069992  29.2589978  24.5710014
  68.6089992  28.7789978  24.2630014  67.9140751  28.8046777  24.7855858
  67.9719992  27.1809978  21.9610014  68.6729992  27.2039978  22.6130014
  68.2739992  26.5529978  21.3050014  68.1088202  27.0992212  21.9615609
  75.2869992  28.1019978  33.2160014  74.6349992  28.7959978  33.3050014
  75.7529992  28.3119978  32.4060014  75.2605937  28.2255019  33.1187533
  71.3239992  28.9329978  25.8740014  70.5919992  29.1619978  26.4480014
  71.7709992  28.2199978  26.3290014  71.2843963  28.8678729  26.0139945
  71.2209992  27.1079978  34.9420014  71.3009992  27.8709978  35.5140014
  70.6199992  27.3869978  34.2520014  71.1506547  27.2502457  34.9270047
  62.9689992  29.5639978  27.7570014  62.6389992  29.1929978  26.9390014
  63.5579992  28.8929978  28.1040014  63.0033970  29.4226063  27.6919404
  64.3359992  32.9919978  30.4380014  64.2409992  32.4129978  29.6820014
  65.0649992  32.6209978  30.9340014  64.4216011  32.8625561  30.4016028
  63.3359992  28.3319978  31.3900014  63.9009992  28.4539978  30.6280014
  63.6549992  28.9699978  32.0290014  63.4564166  28.4348791  31.3720348
  69.6449992  33.8359978  32.1240014  69.4049992  34.4979978  32.7720014
  69.4469992  33.0009978  32.5490014  69.5853826  33.8138115  32.2701566
  64.2159992  32.7319978  36.1080014  63.9049992  33.5139978  36.5630014
  63.5659992  32.5789978  35.4220014  64.0855538  32.8184087  36.0775898
  70.1949992  28.0959978  23.5600014  70.7739992  28.2459978  24.3060014
  70.6089992  28.5659978  22.8360014  70.3303358  28.1800954  23.5643953
  61.1359992  28.9299978  35.3360014  61.2059992  29.5809978  36.0350014
  60.2449992  29.0329978  35.0010014  61.0251690  29.0329249  35.3863043
  67.9209992  34.8319978  26.9950014  68.3949992  35.1279978  27.7720014
  67.3579992  35.5709978  26.7620014  67.9097890  34.9723036  27.0698101
  62.4549992  34.8029978  36.8710014  62.4629992  34.6669978  35.9240014
  61.5389992  34.6859978  37.1230014  62.3322528  34.7685463  36.7753243
  73.8939992  19.8459978  23.3730014  72.9939992  19.9849978  23.6680014
  74.1459992  20.6769978  22.9710014  73.8048683  19.9774055  23.3590232
  61.9599992  28.6329978  25.3460014  61.6679992  29.4009978  24.8550014
  61.2849992  27.9739978  25.1830014  61.8288497  28.6489745  25.2568260
  75.0829992  34.2119978  21.7490014  75.1559992  35.1509978  21.9190014
  75.9879992  33.9069978  21.6930014  75.2154170  34.2993282  21.7647063
  58.0529992  30.9959978  34.1610014  57.5509992  30.9679978  33.3460014
  58.0579992  30.0909978  34.4710014  57.9849832  30.8697486  34.0914121
  57.8029992  33.7769978  31.0450014  58.7489992  33.6319978  31.0260014
  57.6899992  34.5609978  31.5820014  57.9173578  33.8631697  31.1150317
  76.0009992  34.4429978  36.7280014  75.9509992  33.4869978  36.6900014
  75.1739992  34.7099978  37.1290014  75.8823831  34.3484680  36.7770121
  66.9789992  34.0169978  35.6040014  67.0669992  34.8429978  36.0790014
  66.1159992  33.6869978  35.8530014  66.8743357  34.0855468  35.7027653
  67.3939992  37.7889978  25.4100014  67.3179992  37.6679978  24.4630014
  67.4259992  38.7379978  25.5280014  67.3879380  37.9007677  25.2965181
  61.0469992  36.5779978  27.1910014  61.1989992  36.2299978  28.0690014
  60.1959992  36.2209978  26.9350014  60.9528344  36.4820879  27.2766868
  70.4949992  36.9429978  22.4120014  70.8699992  36.1989978  21.9410014
  70.4999992  36.6729978  23.3300014  70.5470098  36.8046392  22.4716629
  70.1639992  36.8689978  25.1610014  69.2289992  36.9689978  25.3400014
  70.4439992  36.1589978  25.7400014  70.0739471  36.7867933  25.2636695
  73.1529992  25.9359978  37.2080014  72.7449992  26.4159978  36.4870014
  73.1929992  25.0299978  36.9000014  73.1026221  25.8792449  37.0678267
  60.3019992  32.3199978  35.2040014  60.5179992  31.9579978  36.0640014
  59.4459992  31.9449978  34.9950014  60.2158810  32.2198837  35.2932680
  62.9199992  20.7899978  31.2000014  62.0589992  20.7029978  30.7920014
  62.8979992  21.6459978  31.6280014  62.7990491  20.8938003  31.2019582
  67.5829992  20.5119978  34.5750014  68.0029992  20.0969978  35.3280014
  66.6499992  20.3329978  34.6920014  67.5143736  20.4309910  34.6938968
  70.9099992  24.2669978  35.4280014  70.3959992  24.1419978  36.2260014
  70.7539992  25.1799978  35.1840014  70.8186967  24.3732123  35.5040937
  71.6719992  29.1279978  21.1890014  71.7139992  28.9059978  20.2590014
  72.5209992  29.5269978  21.3790014  71.7925253  29.1515498  21.0873822
  67.2449992  23.0039978  21.8600014  66.9909992  23.0229978  22.7820014
  66.9879992  22.1329978  21.5580014  67.1754508  22.8888280  21.9454803
  63.0109992  25.7549978  32.2950014  62.3699992  25.7149978  33.0040014
  63.0489992  26.6819978  32.0570014  62.9283010  25.8747668  32.3599946
  63.0079992  25.9759978  27.2070014  62.1159992  25.6359978  27.1480014
  63.4589992  25.5989978  26.4510014  62.9467642  25.8784910  27.0967726
  68.5439992  26.3919978  26.0240014  68.1349992  27.2069978  25.7320014
  69.2639992  26.2519978  25.4100014  68.5854439  26.4845372  25.9010115
  67.6459992  26.5679978  37.5120014  67.0829992  25.8629978  37.8330014
  68.4719992  26.4469978  37.9800014  67.6806674  26.4552165  37.6191751
  69.5489992  25.8379978  28.8380014  69.3529992  26.4439978  28.1230014
  69.7299992  25.0049978  28.4040014  69.5466584  25.8082513  28.6814212
  60.7609992  26.0759978  34.1620014  60.7229992  26.4759978  35.0310014
  60.2709992  25.2589978  34.2520014  60.6895330  26.0202674  34.2931289
  64.1269992  23.4499978  20.9610014  63.6959992  23.0049978  21.6900014
  63.4089992  23.8209978  20.4480014  63.9709176  23.4392051  20.9914930
  57.3699992  23.1919978  28.0130014  57.9999992  23.1629978  28.7320014
  57.8189992  22.7669978  27.2820014  57.5170835  23.1305660  28.0127659
  58.6439992  23.9379978  23.4370014  59.1179992  24.5289978  22.8520014
  57.9259992  24.4679978  23.7840014  58.6118640  24.0905511  23.4037969
  68.8129992  27.4759978  33.5090014  69.1359992  26.8449978  32.8660014
  68.3719992  26.9419978  34.1700014  68.7976379  27.3173468  33.5102582
  65.5899992  23.4039978  28.2930014  64.6789992  23.4609978  28.5820014
  66.0949992  23.3439978  29.1040014  65.5336873  23.4036826  28.4421207
  60.4179992  25.0329978  27.1200014  59.5289992  25.1319978  26.7800014
  60.7149992  24.1909978  26.7740014  60.3364177  24.9327687  27.0266940
  64.0709992  25.0329978  24.7770014  65.0029992  25.1619978  24.9550014
  63.8559992  25.7019978  24.1270014  64.1694472  25.1410806  24.7134891
  69.9949992  22.6389978  31.5580014  69.3179992  22.7699978  32.2210014
  69.5099992  22.4839978  30.7470014  69.8367405  22.6359947  31.5392170
  62.7449992  26.2269978  22.3430014  62.2029992  25.8479978  21.6520014
  63.5789992  26.4219978  21.9150014  62.7834390  26.2014079  22.1904392
  73.2829992  38.3099978  37.8340014  73.4819992  38.7339978  37.0000014
  73.9379992  38.6539978  38.4410014  73.3988522  38.4146301  37.8017852
  60.8809992  30.7839978  37.4420014  61.6129992  31.0389978  38.0040014
  60.0999992  30.9889978  37.9580014  60.8756526  30.8465450  37.5885176
  66.9099992  26.1909978  30.1800014  67.4739992  25.6449978  29.6330014
  66.7619992  25.6699978  30.9690014  66.9673037  26.0456787  30.2117229
  61.9119992  22.3279978  26.5990014  61.5949992  21.4249978  26.5630014
  62.6929992  22.3299978  26.0460014  61.9742431  22.2047797  26.5193102
  65.5359992  24.5799978  32.5940014  64.7009992  25.0339978  32.7050014
  66.0599992  24.8559978  33.3460014  65.4926072  24.6793948  32.7108136
  66.0809992  30.7929978  24.2790014  65.3359992  30.2849978  23.9570014
  65.9459992  30.8419978  25.2250014  65.9608963  30.7301731  24.3628826
  73.2309992  29.9259978  33.0660014  73.8719992  30.3819978  32.5220014
  72.3999992  30.0389978  32.6030014  73.2065287  30.0036921  32.9289887
  69.9779992  23.6069978  22.4780014  69.0399992  23.7179978  22.3270014
  70.2759992  24.4629978  22.7850014  69.8896318  23.7380158  22.4988145
  67.5999992  30.9769978  35.5160014  67.2539992  30.5949978  36.3230014
  67.3999992  31.9099978  35.5870014  67.5255987  31.0509002  35.6360461
  70.6969992  25.4739978  24.1390014  71.5889992  25.3359978  24.4580014
  70.7529992  26.2649978  23.6020014  70.8267325  25.5619918  24.1101217
  61.2049992  30.0879978  30.0490014  61.9499992  30.0849978  29.4470014
  61.2829992  29.2639978  30.5300014  61.3173365  29.9762384  30.0317430
  68.2059992  32.2509978  23.3040014  67.9109992  33.0779978  23.6860014
  67.5029992  31.6319978  23.5010014  68.0706379  32.2804171  23.3828654
  58.2129992  28.5479978  35.3640014  58.4359992  28.1299978  36.1950014
  57.6109992  27.9359978  34.9410014  58.1621513  28.4079606  35.4206740
  65.2299992  28.0649978  37.5770014  64.9339992  27.8999978  36.6810014
  66.1609992  27.8449978  37.5660014  65.3154401  28.0126879  37.4530206
  69.8499992  33.4389978  35.4660014  68.9499992  33.6219978  35.1990014
  69.8839992  33.6979978  36.3870014  69.7313748  33.4990554  35.5539164
  75.5819992  25.6829978  23.8340014  75.0269992  25.2869978  23.1610014
  75.6819992  26.5939978  23.5560014  75.5196816  25.7519505  23.7045033
  75.5449992  31.4839978  36.6710014  74.6939992  31.7219978  36.3030014
  76.1349992  31.4669978  35.9180014  75.5083812  31.5142524  36.5188453
  73.8769992  34.4689978  24.2990014  73.5039992  33.6439978  24.6080014
  74.1539992  34.2859978  23.4010014  73.8633463  34.3312569  24.2199525
  71.0369992  29.2769978  31.3200014  70.1089992  29.0459978  31.2930014
  71.4879992  28.4999978  30.9900014  70.9708165  29.1402774  31.2716790
  63.5799992  33.6059978  27.4530014  64.1079992  34.3789978  27.2530014
  62.6999992  33.8299978  27.1510014  63.5333435  33.7422700  27.3847310
  59.3349992  28.4679978  22.0400014  59.9509992  29.0949978  22.4200014
  58.4729992  28.7839978  22.3120014  59.3027678  28.5964412  22.1287209
  65.0079992  31.2689978  27.0290014  64.7669992  32.1939978  27.0710014
  64.2669992  30.8099978  27.4260014  64.8749206  31.3335915  27.0883769
  65.5219992  35.4179978  33.3440014  65.8849992  36.2719978  33.1110014
  66.0539992  35.1259978  34.0850014  65.6435141  35.4953895  33.4122097
  63.6909992  36.2899978  26.5750014  62.7409992  36.3959978  26.6260014
  64.0429992  37.1109978  26.9190014  63.6085472  36.4154923  26.6284852
  69.0659992  31.5169978  33.0450014  68.6409992  31.2889978  33.8710014
  69.6469992  30.7779978  32.8630014  69.0863395  31.3859545  33.1334414
  71.2689992  32.4459978  22.1190014  71.6229992  32.0659978  22.9230014
  70.3209992  32.3519978  22.2060014  71.1892298  32.3812452  22.2408687
  71.7249992  36.0689978  35.5140014  71.1229992  35.5129978  35.0190014
  72.0059992  36.7359978  34.8880014  71.6805757  36.0830744  35.3615675
  75.7729992  36.9249978  22.3200014  76.5169992  37.5109978  22.1800014
  75.0789992  37.4939978  22.6530014  75.7809809  37.0820818  22.3458590
  59.8469992  23.3019978  34.9220014  58.9549992  23.6399978  34.8540014
  59.7489992  22.4459978  35.3400014  59.7114475  23.2326543  34.9691704
  72.1349992  31.1179978  24.3460014  71.8579992  30.3899978  24.9020014
  73.0629992  31.2369978  24.5510014  72.2224499  31.0344213  24.4498044
  59.4989992  35.1059978  33.3570014  59.7159992  34.1739978  33.3260014
  59.7449992  35.3809978  34.2400014  59.5619809  35.0155686  33.4721691
  65.3599992  33.5579978  20.5660014  65.5989992  32.8089978  20.0190014
  65.0909992  33.1699978  21.3990014  65.3563233  33.4031853  20.6037809
  64.2969992  33.1279978  23.0220014  64.4439992  32.6079978  23.8120014
  64.2939992  34.0349978  23.3290014  64.3167102  33.1793953  23.1715925
  60.7499992  30.3799978  23.5330014  60.0639992  30.7329978  24.1000014
  61.2729992  31.1429978  23.2860014  60.7268402  30.5313901  23.5771801
  68.5819992  23.0429978  33.8120014  69.2809992  23.1169978  34.4620014
  68.2009992  22.1779978  33.9660014  68.6262097  22.9362389  33.9217997
  69.3659992  22.6949978  24.9090014  69.5859992  23.1659978  24.1050014
  69.9249992  23.0889978  25.5790014  69.4716731  22.8127287  24.8895033
  67.0349992  34.8249978  23.7720014  66.2179992  35.3219978  23.8240014
  67.5639992  35.3009978  23.1310014  66.9948125  34.9571989  23.6925306
  66.5659992  24.4229978  25.7440014  67.3779992  24.9269978  25.7900014
  66.3219992  24.2779978  26.6580014  66.6441467  24.4723749  25.8738575
  67.1019992  25.4089978  34.9280014  67.2209992  25.9829978  35.6850014
  67.7569992  24.7209978  35.0430014  67.2068684  25.3945194  35.0471674
  67.4499992  21.5039978  26.6820014  67.1029992  22.1209978  27.3260014
  68.1089992  22.0049978  26.2000014  67.4915090  21.6561575  26.7050681
  64.3729992  35.8689978  23.7530014  64.5339992  36.6689978  23.2530014
  64.1759992  36.1759978  24.6380014  64.3683906  36.0198678  23.8042333
  63.1079992  22.5669978  23.3690014  63.0239992  23.4549978  23.7160014
  63.9979992  22.3019978  23.6010014  63.2168163  22.6527179  23.4478596
  73.3059992  23.3159978  35.7630014  72.3899992  23.5779978  35.6760014
  73.6419992  23.3129978  34.8670014  73.2258499  23.3515163  35.6298766
  71.9089992  27.0659978  29.8590014  71.1109992  26.6509978  29.5310014
  72.3539992  26.3759978  30.3500014  71.8599684  26.9158628  29.8805227
  61.3659992  32.9939978  22.4290014  61.9579992  33.6939978  22.7060014
  61.8249992  32.5609978  21.7100014  61.5091652  33.0312675  22.3696533
  59.6819992  25.6589978  21.5450014  59.6369992  26.5979978  21.7240014
  58.7939992  25.4229978  21.2760014  59.5558166  25.7556687  21.5331524
  72.9949992  36.3219978  31.4810014  72.8389992  37.0009978  30.8240014
  73.9279992  36.3939978  31.6840014  73.0997387  36.4246390  31.4185342
  60.4899992  20.4399978  30.2190014  60.2609992  20.4989978  29.2910014
  60.0479992  19.6489978  30.5250014  60.3988801  20.3410540  30.1334729
  59.4209992  34.3809978  26.3790014  58.5879992  34.8529978  26.4060014
  59.9659992  34.8909978  25.7800014  59.3807857  34.5144791  26.3017142
  58.7089992  36.9929978  37.7090014  59.2489992  36.7769978  38.4690014
  58.2279992  36.1879978  37.5190014  58.7179219  36.8545156  37.7874282
  63.3059992  35.9129978  39.3290014  64.0739992  35.4539978  39.6700014
  63.2849992  35.6869978  38.3990014  63.4082135  35.8196668  39.2499491
  67.3979992  35.4209978  20.7050014  66.7539992  34.7899978  21.0260014
  68.1599992  34.8899978  20.4730014  67.4128058  35.2627902  20.7176038
  69.8829992  34.2929978  38.0580014  69.5319992  33.4359978  38.3020014
  70.6089992  34.4349978  38.6650014  69.9331895  34.1951351  38.1733770
  72.0029992  35.2379978  20.9380014  72.2859992  34.4429978  21.3910014
  72.7419992  35.4709978  20.3770014  72.1417096  35.1607049  20.9241104
  58.6159992  30.8039978  38.6630014  58.7599992  29.9019978  38.3770014
  57.8439992  31.0899978  38.1760014  58.5312733  30.7191798  38.5579532
  62.9569992  31.1469978  20.7960014  63.0219992  30.3529978  21.3260014
  63.6099992  31.0289978  20.1060014  63.0541605  31.0223430  20.7752997
  65.2709992  30.7729978  38.0960014  64.9429992  31.0439978  37.2390014
  65.4229992  29.8319978  38.0080014  65.2466412  30.6829046  37.9667822
  68.3099992  32.1939978  20.5320014  68.0409992  32.3749978  21.4320014
  68.1029992  31.2689978  20.4000014  68.2451191  32.0937119  20.6375524
  71.0059992  30.6889978  35.4790014  71.7509992  31.2779978  35.3600014
  70.2489992  31.2709978  35.5430014  71.0055470  30.8482128  35.4713799
  59.4489992  28.0039978  38.0830014  59.8569992  27.1469978  37.9620014
  59.1879992  28.0179978  39.0040014  59.4696016  27.8885119  38.1909192
  64.1069992  29.1199978  23.1020014  63.6469992  28.6359978  23.7870014
  64.3619992  28.4509978  22.4660014  64.0784856  28.9633669  23.1098397
  63.3959992  27.0129978  35.4580014  62.7769992  27.6869978  35.7380014
  63.7399992  27.3339978  34.6240014  63.3577123  27.1486887  35.3836388
  65.1779992  27.3629978  21.3640014  64.9969992  27.2079978  20.4370014
  66.1279992  27.4709978  21.4090014  65.2816566  27.3563669  21.2430929
  68.4149992  29.4839978  38.7350014  69.3689992  29.5679978  38.7080014
  68.2549992  28.7719978  39.3550014  68.5237182  29.3992842  38.8150733
  74.5679992  29.7169978  20.8100014  74.2939992  29.2929978  19.9970014
  74.6069992  30.6489978  20.5930014  74.5357716  29.7848827  20.6694286
  63.7349992  24.3679978  36.5400014  63.8849992  23.6389978  35.9380014
  63.7369992  25.1449978  35.9810014  63.7557967  24.3732708  36.3820541
  64.1479992  22.7369978  34.0330014  64.6829992  23.1889978  33.3810014
  63.2949992  22.6289978  33.6100014  64.1060374  22.7842665  33.8866710
  65.7289992  28.1769978  34.2720014  66.4799992  28.0209978  33.6990014
  65.3899992  29.0289978  33.9970014  65.7859587  28.2708138  34.1564078
  70.1449992  25.9919978  39.3010014  70.3369992  25.0609978  39.1890014
  71.0029992  26.4169978  39.2900014  70.2872182  25.9220070  39.2841862
  71.4619992  28.7809978  37.3780014  71.1799992  29.4899978  36.8000014
  72.4039992  28.7079978  37.2270014  71.5507921  28.8682193  37.2784225
  62.2139992  25.5659978  38.4510014  61.4459992  25.0329978  38.2410014
  62.8919992  25.2559978  37.8520014  62.2007235  25.4511754  38.3412413
  64.9529992  20.1939978  34.4640014  64.8549992  21.1399978  34.3590014
  64.2109992  19.8209978  33.9880014  64.8392534  20.2731773  34.3852600
  66.2169992  24.5149978  38.0280014  65.9819992  24.2959978  38.9290014
  65.4339992  24.3079978  37.5180014  66.0789095  24.4569892  38.0825353
  68.9329992  23.6429978  37.1030014  67.9849992  23.6749978  37.2350014
  69.2449992  23.0169978  37.7570014  68.8455293  23.5627923  37.2094148
  70.5669992  22.2769978  39.1080014  70.4699992  21.3249978  39.1030014
  70.2449992  22.5449978  39.9690014  70.5102468  22.1830884  39.2236210
  60.3939992  23.4859978  38.1560014  60.6059992  22.7799978  37.5460014
  60.2829992  23.0489978  39.0000014  60.4080269  23.3301921  38.1865873
  65.1749992  19.4879978  37.1350014  65.8869992  18.8479978  37.1210014
  65.0739992  19.7539978  36.2220014  65.2587387  19.4364330  37.0095563
  65.5289992  21.1699978  39.1890014  65.3969992  20.6949978  38.3690014
  64.9289992  21.9149978  39.1340014  65.4299070  21.2055789  39.0693251
  65.0749992  38.0529978  22.3650014  66.0079992  38.2109978  22.5090014
  64.8109992  38.7289978  21.7400014  65.1669911  38.1659373  22.3002722
  58.6429992  32.6899978  21.8480014  59.5569992  32.7689978  22.1210014
  58.6509992  32.0029978  21.1820014  58.7690655  32.6079205  21.7952917
  57.2919992  38.0829978  26.9250014  56.6449992  37.6209978  26.3930014
  57.6469992  37.4109978  27.5080014  57.2513741  37.9289774  26.9309175
  58.1619992  36.1629978  28.7300014  57.8279992  35.2829978  28.9020014
  58.3849992  36.5089978  29.5950014  58.1463721  36.0891938  28.8704168
  75.7109992  36.9729978  31.7110014  75.6889992  37.1579978  32.6500014
  76.4009992  37.5409978  31.3700014  75.8013439  37.0751887  31.7934791
  75.2739992  36.5399978  34.6320014  74.7869992  35.8049978  34.2610014
  75.8229992  36.1459978  35.3100014  75.2815247  36.3861057  34.6728461
  73.7249992  32.3299978  39.2710014  72.8589992  32.2249978  39.6650014
  74.1009992  33.0879978  39.7170014  73.6573401  32.4181708  39.3852620
  75.0259992  30.5859978  24.7850014  75.8759992  31.0069978  24.9120014
  75.0309992  29.8459978  25.3920014  75.1431143  30.5436094  24.8844750
  75.4199992  28.6399978  26.6080014  74.6939992  28.1599978  27.0060014
  76.0019992  28.8449978  27.3410014  75.3992730  28.6020184  26.7614149
  75.1789992  31.4249978  31.5560014  76.0129992  31.0469978  31.2750014
  75.2909992  32.3679978  31.4370014  75.3081917  31.5007943  31.5014861
  73.6659992  34.3029978  33.8630014  73.0179992  34.6279978  34.4880014
  73.1479992  33.8619978  33.1890014  73.5074196  34.2878651  33.8574152
  75.6889992  28.5409978  22.9990014  75.1669992  28.8969978  22.2810014
  75.6559992  29.2159978  23.6780014  75.6130129  28.6809598  22.9923355
  74.0379992  25.7799978  21.5500014  74.1339992  26.4469978  20.8700014
  73.8979992  24.9649978  21.0690014  74.0322040  25.7610671  21.3918378
  73.2069992  27.1609978  27.1710014  73.0569992  26.2159978  27.1510014
  72.8529992  27.4419978  28.0150014  73.1386351  27.0696644  27.2823220
  58.2419992  29.2389978  31.1820014  58.4269992  29.1569978  30.2460014
  59.0919992  29.1149978  31.6050014  58.3820928  29.2110463  31.1112893
  74.0629992  29.1309978  36.8100014  74.6459992  28.3959978  37.0020014
  74.6269992  29.9029978  36.8570014  74.2189781  29.1348145  36.8426164
  75.5599992  27.0339978  37.4950014  74.6969992  26.6549978  37.3290014
  76.1639992  26.2949978  37.4200014  75.5236085  26.8823223  37.4621694
  73.2849992  23.1879978  20.6680014  73.8959992  22.8169978  21.3050014
  72.4479992  22.7669978  20.8640014  73.2554947  23.0802756  20.7817252
  72.9179992  24.7429978  25.6340014  73.1969992  23.8359978  25.7580014
  73.6769992  25.1769978  25.2450014  73.0588619  24.6774502  25.5983795
  73.5289992  25.3249978  31.0700014  74.4619992  25.5369978  31.0350014
  73.2939992  25.4259978  31.9920014  73.6249517  25.3676833  31.1899130
  73.5589992  26.0619978  33.8460014  72.7159992  26.3299978  34.2120014
  74.0009992  26.8839978  33.6350014  73.5034138  26.2098273  33.8675518
  57.8399992  24.5089978  37.3220014  58.7589992  24.3869978  37.5590014
  57.3899992  23.7589978  37.7120014  57.9050087  24.3909608  37.4071410
  75.8419992  20.0419978  39.1990014  76.1909992  19.3879978  38.5940014
  75.9889992  20.8789978  38.7590014  75.9096824  20.0656024  39.0566304
  73.5309992  22.0059978  25.6820014  73.7129992  21.5569978  26.5070014
  72.9309992  21.4219978  25.2180014  73.4748187  21.8655552  25.7322739
  59.0609992  22.8219978  30.2140014  59.5059992  22.0299978  30.5160014
  59.5269992  23.5379978  30.6440014  59.1849718  22.8104534  30.3135265
  57.3649992  25.8209978  31.2830014  57.8569992  25.5999978  30.4920014
  57.7269992  26.6609978  31.5640014  57.4812923  25.9043468  31.2127407
  75.3609992  22.1509978  37.5480014  74.4439992  22.4219978  37.5130014
  75.4839992  21.6159978  36.7640014  75.2519672  22.1157885  37.4371862
  75.3979992  22.0739978  22.2100014  75.8099992  21.3529978  21.7350014
  76.0789992  22.7429978  22.2680014  75.5465536  22.0657766  22.1528024
  57.6789992  22.0789978  25.3370014  56.7539992  22.2869978  25.2080014
  58.1329992  22.5629978  24.6470014  57.6136298  22.1729299  25.2260451
  72.4489992  37.0629978  27.2830014  73.1019992  36.7149978  26.6750014
  72.9599992  37.5509978  27.9290014  72.6072777  37.0813815  27.2872047
  57.6419992  20.8169978  33.6810014  56.9769992  20.5709978  34.3240014
  57.1989992  21.4389978  33.1040014  57.4911168  20.8674214  33.6909848
  59.8339992  33.9919978  37.8260014  59.0129992  34.1669978  37.3650014
  59.5819992  33.9189978  38.7460014  59.6875594  34.0060717  37.8873611
  62.7879992  34.9659978  34.0840014  62.3639992  35.7759978  33.8020014
  63.6929992  35.0519978  33.7820014  62.8522138  35.0884160  34.0046415
  67.0999992  36.3649978  37.0440014  67.2839992  36.0319978  37.9220014
  67.9459992  36.6749978  36.7220014  67.2396484  36.3612979  37.1207617
  69.4449992  37.6509978  36.2880014  70.1219992  37.0179978  36.0480014
  69.7659992  38.0519978  37.0950014  69.5811323  37.6185691  36.3643158
  74.3619992  20.2409978  35.3670014  73.5489992  20.5659978  34.9800014
  74.5949992  19.4799978  34.8340014  74.2821347  20.1826880  35.2419841
  60.1899992  38.2229978  34.1320014  59.4699992  38.6629978  33.6810014
  59.8249992  37.9719978  34.9800014  60.0419643  38.2493369  34.1849129
  62.6569992  37.8229978  33.1620014  61.7929992  37.8949978  33.5660014
  62.6019992  38.3699978  32.3780014  62.5311942  37.9067849  33.1114000
  67.3679992  37.7109978  32.3370014  66.9109992  38.2399978  31.6830014
  67.5309992  38.3139978  33.0620014  67.3274960  37.8649280  32.3455274
  69.6959992  36.5889978  33.2820014  68.7909992  36.7539978  33.0160014
  70.1239992  37.4419978  33.2160014  69.6301537  36.7269134  33.2367095
  72.2999992  38.1589978  33.5770014  72.1179992  39.0749978  33.3660014
  72.4769992  37.7479978  32.7300014  72.2990030  38.2288273  33.4337166
  59.6049992  36.8459978  31.0420014  59.5869992  36.4199978  31.8990014
  60.4099992  36.5269978  30.6330014  59.7112875  36.7446435  31.1039515
  61.7459992  35.5559978  29.6970014  61.5269992  34.6389978  29.8670014
  62.5699992  35.6959978  30.1630014  61.8274702  35.4495511  29.7832527
  64.2829992  36.0259978  30.5460014  64.4959992  35.1379978  30.2590014
  64.3479992  35.9909978  31.5000014  64.3209149  35.8998326  30.6357369
  67.7919992  21.6899978  29.6900014  67.1179992  21.0599978  29.9460014
  68.3559992  21.2059978  29.0870014  67.7760384  21.5383708  29.6435020
  72.9349992  19.7969978  29.8030014  73.5379992  20.3449978  29.3010014
  72.0649992  20.1159978  29.5620014  72.8999157  19.9150373  29.7017910
  74.6619992  20.9359978  28.1360014  75.2729992  20.4219978  27.6090014
  75.0439992  21.8129978  28.1590014  74.7973305  20.9842050  28.0669418
  60.1189992  20.3239978  27.5120014  59.3419992  20.0889978  27.0050014
  60.6489992  19.5269978  27.5210014  60.0843451  20.1841268  27.4438627
  58.9549992  20.1219978  23.3160014  59.3939992  20.7329978  22.7240014
  58.3209992  20.6599978  23.7900014  58.9293859  20.2784064  23.2990305
  64.6979992  20.2499978  27.3250014  65.5719992  20.6389978  27.2960014
  64.5619992  20.0349978  28.2480014  64.7991953  20.2741643  27.4457617
  70.2549992  20.2799978  28.9750014  70.3309992  20.3759978  28.0250014
  69.9799992  19.3729978  29.1030014  70.2281871  20.1704146  28.8623944
  71.6079992  20.3059978  24.6670014  70.9049992  20.9209978  24.4570014
  71.1629992  19.4689978  24.7980014  71.4516550  20.2769668  24.6559837
  58.8559992  36.0699978  24.2130014  58.1709992  36.0319978  23.5460014
  58.8599992  36.9829978  24.5010014  58.7627621  36.1881924  24.1606126
  60.8159992  22.0379978  21.7580014  61.3069992  21.4079978  21.2310014
  61.4389992  22.3339978  22.4210014  60.9675304  21.9917376  21.7754940
  65.8419992  22.3309978  24.2150014  66.0199992  21.6839978  24.8980014
  65.7879992  23.1649978  24.6820014  65.8590678  22.3551604  24.3716301
  67.7199992  37.2789978  22.6110014  68.5859992  37.6459978  22.4330014
  67.4739992  36.8399978  21.7970014  67.8052097  37.2698525  22.4766019
  74.4289992  36.8419978  25.2900014  74.2349992  36.0939978  24.7250014
  74.3899992  37.5999978  24.7070014  74.3971645  36.8420786  25.1338148
  60.0759992  20.8379978  37.0300014  59.7099992  20.0719978  37.4720014
  60.9889992  20.8669978  37.3160014  60.1493172  20.7370324  37.1291890
  62.0489992  20.1879978  38.5650014  62.9479992  19.9139978  38.3810014
  61.6629992  19.4459978  39.0300014  62.1197307  20.0502196  38.6027098
  60.6739992  36.9899978  21.2380014  60.4059992  37.2759978  22.1120014
  61.4449992  36.4439978  21.3910014  60.7415926  36.9552779  21.3781205
  70.4709992  19.5209978  38.7480014  70.5469992  19.0949978  39.6010014
  71.3639992  19.5339978  38.4050014  70.6022303  19.4643493  38.8185497
  73.6469992  35.5939978  37.4400014  72.8649992  35.4069978  36.9200014
  73.5749992  36.5229978  37.6570014  73.5301924  35.6940637  37.3981602
  88.0529992  29.4799978  27.4710014  88.1419992  30.4239978  27.3390014
  87.4149992  29.2049978  26.8130014  87.9789062  29.5719812  27.3639641
  86.9859992  28.7349978  30.8900014  86.9479992  28.0889978  31.5950014
  86.6639992  28.2679978  30.1190014  86.9372679  28.5834276  30.8822921
  79.3539992  28.3489978  32.4830014  79.3959992  27.7239978  33.2060014
  80.0569992  28.9729978  32.6650014  79.4547345  28.3477873  32.6065274
  90.6919992  31.6739978  29.1910014  90.2509992  30.9539978  29.6420014
  90.6789992  32.3949978  29.8210014  90.6299215  31.6729291  29.3378105
  80.2779992  32.7989978  31.0180014  79.9079992  31.9969978  30.6480014
  81.2189992  32.6309978  31.0640014  80.3545984  32.6664638  30.9735603
  76.8879992  26.4589978  26.4100014  76.4399992  27.3049978  26.3920014
  76.3269992  25.8799978  25.8950014  76.7508546  26.4963993  26.3378891
  77.5979992  28.6209978  28.5360014  77.8119992  27.8509978  29.0640014
  78.3359992  28.7109978  27.9330014  77.7270200  28.5278587  28.5267035
  87.8039992  36.7779978  29.4030014  88.4229992  36.1019978  29.1300014
  87.5949992  36.5599978  30.3120014  87.8606056  36.6558869  29.4883967
  85.3749992  31.1669978  31.2960014  85.6789992  30.4809978  30.7010014
  86.0969992  31.2859978  31.9140014  85.5141240  31.0892314  31.2980959
  94.0379992  22.7689978  32.1560014  94.0879992  23.3789978  32.8920014
  94.4639992  23.2299978  31.4330014  94.1024108  22.9147709  32.1590112
  88.5159992  25.5609978  31.6230014  88.6589992  24.6149978  31.6430014
  88.4099992  25.7679978  30.6950014  88.5212403  25.4594797  31.5002239
  81.6709992  23.6629978  28.8960014  81.7139992  24.5229978  28.4770014
  81.2129992  23.1109978  28.2620014  81.6149871  23.7059245  28.7530761
  89.3929992  23.7939978  27.2970014  90.0399992  23.4649978  27.9210014
  89.9029992  24.3109978  26.6740014  89.5504351  23.8189067  27.2981037
  78.2909992  26.0599978  29.6580014  78.9449992  25.5099978  30.0900014
  78.3149992  25.7859978  28.7410014  78.3837199  25.9477167  29.5931668
  83.4479992  27.6099978  28.8730014  84.0639992  27.0829978  29.3820014
  82.8609992  26.9699978  28.4690014  83.4530154  27.4513954  28.8880945
  94.4299992  24.2469978  34.3920014  93.7409992  24.9049978  34.2970014
  94.4449992  24.0489978  35.3290014  94.3377756  24.3102603  34.5055812
  80.4809992  22.5809978  32.9700014  80.2619992  23.1109978  32.2030014
  79.8129992  22.8069978  33.6170014  80.3606975  22.6840967  32.9525140
  87.8499992  32.0809978  26.5140014  87.5549992  31.7579978  25.6620014
  87.5259992  32.9809978  26.5550014  87.7658460  32.1584464  26.4029714
  83.0499992  30.2559978  33.2570014  82.3099992  30.8549978  33.3610014
  83.7639992  30.8099978  32.9420014  83.0453500  30.4127829  33.2286371
  91.1569992  23.0849978  29.2770014  90.9419992  22.3189978  29.8100014
  91.8129992  23.5569978  29.7900014  91.2162673  23.0440728  29.4191990
  80.0749992  24.4729978  30.9220014  80.6889992  25.1059978  31.2950014
  80.5869992  24.0009978  30.2660014  80.2281962  24.4957249  30.8842935
  81.4579992  32.2209978  34.0440014  81.4519992  33.0999978  33.6660014
  80.6039992  32.1369978  34.4690014  81.3417925  32.3299535  34.0496887
  77.5789992  31.8919978  24.8260014  77.3069992  32.1209978  23.9380014
  77.6239992  32.7289978  25.2870014  77.5478097  32.0366163  24.7666683
  91.2039992  33.5129978  31.5390014  90.2619992  33.5719978  31.7010014
  91.4799992  34.4189978  31.4020014  91.1125865  33.6435288  31.5426192
  91.5039992  21.7999978  32.9560014  90.7679992  22.4099978  32.9190014
  92.1879992  22.2149978  32.4300014  91.4955367  21.9397551  32.8798174
  84.5079992  19.8859978  30.4220014  84.3899992  18.9379978  30.3680014
  83.6529992  20.2189978  30.6950014  84.3762805  19.8012202  30.4515079
  89.4559992  35.2939978  28.1640014  89.8809992  34.5869978  27.6790014
  89.7729992  36.0959978  27.7470014  89.5570266  35.3055190  28.0412479
  90.6159992  33.1949978  26.6730014  90.3579992  32.5049978  26.0610014
  90.6869992  32.7519978  27.5180014  90.5903050  33.0406814  26.7035621
  92.3019992  31.7619978  35.1500014  92.4409992  31.1699978  34.4110014
  92.4689992  32.6349978  34.7940014  92.3436193  31.7988896  35.0006211
  86.7739992  28.7239978  24.9230014  86.0629992  29.2589978  24.5710014
  87.4649992  28.7789978  24.2630014  86.7700751  28.8046777  24.7855858
  86.8279992  27.1809978  21.9610014  87.5289992  27.2039978  22.6130014
  87.1299992  26.5529978  21.3050014  86.9648202  27.0992212  21.9615609
  94.1429992  28.1019978  33.2160014  93.4909992  28.7959978  33.3050014
  94.6089992  28.3119978  32.4060014  94.1165937  28.2255019  33.1187533
  90.1799992  28.9329978  25.8740014  89.4479992  29.1619978  26.4480014
  90.6269992  28.2199978  26.3290014  90.1403963  28.8678729  26.0139945
  90.0769992  27.1079978  34.9420014  90.1569992  27.8709978  35.5140014
  89.4759992  27.3869978  34.2520014  90.0066547  27.2502457  34.9270047
  81.8249992  29.5639978  27.7570014  81.4949992  29.1929978  26.9390014
  82.4139992  28.8929978  28.1040014  81.8593970  29.4226063  27.6919404
  83.1919992  32.9919978  30.4380014  83.0969992  32.4129978  29.6820014
  83.9209992  32.6209978  30.9340014  83.2776011  32.8625561  30.4016028
  82.1919992  28.3319978  31.3900014  82.7569992  28.4539978  30.6280014
  82.5109992  28.9699978  32.0290014  82.3124166  28.4348791  31.3720348
  88.5009992  33.8359978  32.1240014  88.2609992  34.4979978  32.7720014
  88.3029992  33.0009978  32.5490014  88.4413826  33.8138115  32.2701566
  83.0719992  32.7319978  36.1080014  82.7609992  33.5139978  36.5630014
  82.4219992  32.5789978  35.4220014  82.9415538  32.8184087  36.0775898
  89.0509992  28.0959978  23.5600014  89.6299992  28.2459978  24.3060014
  89.4649992  28.5659978  22.8360014  89.1863358  28.1800954  23.5643953
  79.9919992  28.9299978  35.3360014  80.0619992  29.5809978  36.0350014
  79.1009992  29.0329978  35.0010014  79.8811690  29.0329249  35.3863043
  86.7769992  34.8319978  26.9950014  87.2509992  35.1279978  27.7720014
  86.2139992  35.5709978  26.7620014  86.7657890  34.9723036  27.0698101
  81.3109992  34.8029978  36.8710014  81.3189992  34.6669978  35.9240014
  80.3949992  34.6859978  37.1230014  81.1882528  34.7685463  36.7753243
  92.7499992  19.8459978  23.3730014  91.8499992  19.9849978  23.6680014
  93.0019992  20.6769978  22.9710014  92.6608683  19.9774055  23.3590232
  80.8159992  28.6329978  25.3460014  80.5239992  29.4009978  24.8550014
  80.1409992  27.9739978  25.1830014  80.6848497  28.6489745  25.2568260
  93.9389992  34.2119978  21.7490014  94.0119992  35.1509978  21.9190014
  94.8439992  33.9069978  21.6930014  94.0714170  34.2993282  21.7647063
  76.9089992  30.9959978  34.1610014  76.4069992  30.9679978  33.3460014
  76.9139992  30.0909978  34.4710014  76.8409832  30.8697486  34.0914121
  76.6589992  33.7769978  31.0450014  77.6049992  33.6319978  31.0260014
  76.5459992  34.5609978  31.5820014  76.7733578  33.8631697  31.1150317
  94.8569992  34.4429978  36.7280014  94.8069992  33.4869978  36.6900014
  94.0299992  34.7099978  37.1290014  94.7383831  34.3484680  36.7770121
  85.8349992  34.0169978  35.6040014  85.9229992  34.8429978  36.0790014
  84.9719992  33.6869978  35.8530014  85.7303357  34.0855468  35.7027653
  86.2499992  37.7889978  25.4100014  86.1739992  37.6679978  24.4630014
  86.2819992  38.7379978  25.5280014  86.2439380  37.9007677  25.2965181
  79.9029992  36.5779978  27.1910014  80.0549992  36.2299978  28.0690014
  79.0519992  36.2209978  26.9350014  79.8088344  36.4820879  27.2766868
  89.3509992  36.9429978  22.4120014  89.7259992  36.1989978  21.9410014
  89.3559992  36.6729978  23.3300014  89.4030098  36.8046392  22.4716629
  89.0199992  36.8689978  25.1610014  88.0849992  36.9689978  25.3400014
  89.2999992  36.1589978  25.7400014  88.9299471  36.7867933  25.2636695
  92.0089992  25.9359978  37.2080014  91.6009992  26.4159978  36.4870014
  92.0489992  25.0299978  36.9000014  91.9586221  25.8792449  37.0678267
  79.1579992  32.3199978  35.2040014  79.3739992  31.9579978  36.0640014
  78.3019992  31.9449978  34.9950014  79.0718810  32.2198837  35.2932680
  81.7759992  20.7899978  31.2000014  80.9149992  20.7029978  30.7920014
  81.7539992  21.6459978  31.6280014  81.6550491  20.8938003  31.2019582
  86.4389992  20.5119978  34.5750014  86.8589992  20.0969978  35.3280014
  85.5059992  20.3329978  34.6920014  86.3703736  20.4309910  34.6938968
  89.7659992  24.2669978  35.4280014  89.2519992  24.1419978  36.2260014
  89.6099992  25.1799978  35.1840014  89.6746967  24.3732123  35.5040937
  90.5279992  29.1279978  21.1890014  90.5699992  28.9059978  20.2590014
  91.3769992  29.5269978  21.3790014  90.6485253  29.1515498  21.0873822
  86.1009992  23.0039978  21.8600014  85.8469992  23.0229978  22.7820014
  85.8439992  22.1329978  21.5580014  86.0314508  22.8888280  21.9454803
  81.8669992  25.7549978  32.2950014  81.2259992  25.7149978  33.0040014
  81.9049992  26.6819978  32.0570014  81.7843010  25.8747668  32.3599946
  81.8639992  25.9759978  27.2070014  80.9719992  25.6359978  27.1480014
  82.3149992  25.5989978  26.4510014  81.8027642  25.8784910  27.0967726
  87.3999992  26.3919978  26.0240014  86.9909992  27.2069978  25.7320014
  88.1199992  26.2519978  25.4100014  87.4414439  26.4845372  25.9010115
  86.5019992  26.5679978  37.5120014  85.9389992  25.8629978  37.8330014
  87.3279992  26.4469978  37.9800014  86.5366674  26.4552165  37.6191751
  88.4049992  25.8379978  28.8380014  88.2089992  26.4439978  28.1230014
  88.5859992  25.0049978  28.4040014  88.4026584  25.8082513  28.6814212
  79.6169992  26.0759978  34.1620014  79.5789992  26.4759978  35.0310014
  79.1269992  25.2589978  34.2520014  79.5455330  26.0202674  34.2931289
  82.9829992  23.4499978  20.9610014  82.5519992  23.0049978  21.6900014
  82.2649992  23.8209978  20.4480014  82.8269176  23.4392051  20.9914930
  76.2259992  23.1919978  28.0130014  76.8559992  23.1629978  28.7320014
  76.6749992  22.7669978  27.2820014  76.3730835  23.1305660  28.0127659
  77.4999992  23.9379978  23.4370014  77.9739992  24.5289978  22.8520014
  76.7819992  24.4679978  23.7840014  77.4678640  24.0905511  23.4037969
  87.6689992  27.4759978  33.5090014  87.9919992  26.8449978  32.8660014
  87.2279992  26.9419978  34.1700014  87.6536379  27.3173468  33.5102582
  84.4459992  23.4039978  28.2930014  83.5349992  23.4609978  28.5820014
  84.9509992  23.3439978  29.1040014  84.3896873  23.4036826  28.4421207
  79.2739992  25.0329978  27.1200014  78.3849992  25.1319978  26.7800014
  79.5709992  24.1909978  26.7740014  79.1924177  24.9327687  27.0266940
  82.9269992  25.0329978  24.7770014  83.8589992  25.1619978  24.9550014
  82.7119992  25.7019978  24.1270014  83.0254472  25.1410806  24.7134891
  88.8509992  22.6389978  31.5580014  88.1739992  22.7699978  32.2210014
  88.3659992  22.4839978  30.7470014  88.6927405  22.6359947  31.5392170
  81.6009992  26.2269978  22.3430014  81.0589992  25.8479978  21.6520014
  82.4349992  26.4219978  21.9150014  81.6394390  26.2014079  22.1904392
  92.1389992  38.3099978  37.8340014  92.3379992  38.7339978  37.0000014
  92.7939992  38.6539978  38.4410014  92.2548522  38.4146301  37.8017852
  79.7369992  30.7839978  37.4420014  80.4689992  31.0389978  38.0040014
  78.9559992  30.9889978  37.9580014  79.7316526  30.8465450  37.5885176
  85.7659992  26.1909978  30.1800014  86.3299992  25.6449978  29.6330014
  85.6179992  25.6699978  30.9690014  85.8233037  26.0456787  30.2117229
  80.7679992  22.3279978  26.5990014  80.4509992  21.4249978  26.5630014
  81.5489992  22.3299978  26.0460014  80.8302431  22.2047797  26.5193102
  84.3919992  24.5799978  32.5940014  83.5569992  25.0339978  32.7050014
  84.9159992  24.8559978  33.3460014  84.3486072  24.6793948  32.7108136
  84.9369992  30.7929978  24.2790014  84.1919992  30.2849978  23.9570014
  84.8019992  30.8419978  25.2250014  84.8168963  30.7301731  24.3628826
  92.0869992  29.9259978  33.0660014  92.7279992  30.3819978  32.5220014
  91.2559992  30.0389978  32.6030014  92.0625287  30.0036921  32.9289887
  88.8339992  23.6069978  22.4780014  87.8959992  23.7179978  22.3270014
  89.1319992  24.4629978  22.7850014  88.7456318  23.7380158  22.4988145
  86.4559992  30.9769978  35.5160014  86.1099992  30.5949978  36.3230014
  86.2559992  31.9099978  35.5870014  86.3815987  31.0509002  35.6360461
  89.5529992  25.4739978  24.1390014  90.4449992  25.3359978  24.4580014
  89.6089992  26.2649978  23.6020014  89.6827325  25.5619918  24.1101217
  80.0609992  30.0879978  30.0490014  80.8059992  30.0849978  29.4470014
  80.1389992  29.2639978  30.5300014  80.1733365  29.9762384  30.0317430
  87.0619992  32.2509978  23.3040014  86.7669992  33.0779978  23.6860014
  86.3589992  31.6319978  23.5010014  86.9266379  32.2804171  23.3828654
  77.0689992  28.5479978  35.3640014  77.2919992  28.1299978  36.1950014
  76.4669992  27.9359978  34.9410014  77.0181513  28.4079606  35.4206740
  84.0859992  28.0649978  37.5770014  83.7899992  27.8999978  36.6810014
  85.0169992  27.8449978  37.5660014  84.1714401  28.0126879  37.4530206
  88.7059992  33.4389978  35.4660014  87.8059992  33.6219978  35.1990014
  88.7399992  33.6979978  36.3870014  88.5873748  33.4990554  35.5539164
  94.4379992  25.6829978  23.8340014  93.8829992  25.2869978  23.1610014
  94.5379992  26.5939978  23.5560014  94.3756816  25.7519505  23.7045033
  94.4009992  31.4839978  36.6710014  93.5499992  31.7219978  36.3030014
  94.9909992  31.4669978  35.9180014  94.3643812  31.5142524  36.5188453
  92.7329992  34.4689978  24.2990014  92.3599992  33.6439978  24.6080014
  93.0099992  34.2859978  23.4010014  92.7193463  34.3312569  24.2199525
  89.8929992  29.2769978  31.3200014  88.9649992  29.0459978  31.2930014
  90.3439992  28.4999978  30.9900014  89.8268165  29.1402774  31.2716790
  82.4359992  33.6059978  27.4530014  82.9639992  34.3789978  27.2530014
  81.5559992  33.8299978  27.1510014  82.3893435  33.7422700  27.3847310
  78.1909992  28.4679978  22.0400014  78.8069992  29.0949978  22.4200014
  77.3289992  28.7839978  22.3120014  78.1587678  28.5964412  22.1287209
  83.8639992  31.2689978  27.0290014  83.6229992  32.1939978  27.0710014
  83.1229992  30.8099978  27.4260014  83.7309206  31.3335915  27.0883769
  84.3779992  35.4179978  33.3440014  84.7409992  36.2719978  33.1110014
  84.9099992  35.1259978  34.0850014  84.4995141  35.4953895  33.4122097
  82.5469992  36.2899978  26.5750014  81.5969992  36.3959978  26.6260014
  82.8989992  37.1109978  26.9190014  82.4645472  36.4154923  26.6284852
  87.9219992  31.5169978  33.0450014  87.4969992  31.2889978  33.8710014
  88.5029992  30.7779978  32.8630014  87.9423395  31.3859545  33.1334414
  90.1249992  32.4459978  22.1190014  90.4789992  32.0659978  22.9230014
  89.1769992  32.3519978  22.2060014  90.0452298  32.3812452  22.2408687
  90.5809992  36.0689978  35.5140014  89.9789992  35.5129978  35.0190014
  90.8619992  36.7359978  34.8880014  90.5365757  36.0830744  35.3615675
  94.6289992  36.9249978  22.3200014  95.3729992  37.5109978  22.1800014
  93.9349992  37.4939978  22.6530014  94.6369809  37.0820818  22.3458590
  78.7029992  23.3019978  34.9220014  77.8109992  23.6399978  34.8540014
  78.6049992  22.4459978  35.3400014  78.5674475  23.2326543  34.9691704
  90.9909992  31.1179978  24.3460014  90.7139992  30.3899978  24.9020014
  91.9189992  31.2369978  24.5510014  91.0784499  31.0344213  24.4498044
  78.3549992  35.1059978  33.3570014  78.5719992  34.1739978  33.3260014
  78.6009992  35.3809978  34.2400014  78.4179809  35.0155686  33.4721691
  84.2159992  33.5579978  20.5660014  84.4549992  32.8089978  20.0190014
  83.9469992  33.1699978  21.3990014  84.2123233  33.4031853  20.6037809
  83.1529992  33.1279978  23.0220014  83.2999992  32.6079978  23.8120014
  83.1499992  34.0349978  23.3290014  83.1727102  33.1793953  23.1715925
  79.6059992  30.3799978  23.5330014  78.9199992  30.7329978  24.1000014
  80.1289992  31.1429978  23.2860014  79.5828402  30.5313901  23.5771801
  87.4379992  23.0429978  33.8120014  88.1369992  23.1169978  34.4620014
  87.0569992  22.1779978  33.9660014  87.4822097  22.9362389  33.9217997
  88.2219992  22.6949978  24.9090014  88.4419992  23.1659978  24.1050014
  88.7809992  23.0889978  25.5790014  88.3276731  22.8127287  24.8895033
  85.8909992  34.8249978  23.7720014  85.0739992  35.3219978  23.8240014
  86.4199992  35.3009978  23.1310014  85.8508125  34.9571989  23.6925306
  85.4219992  24.4229978  25.7440014  86.2339992  24.9269978  25.7900014
  85.1779992  24.2779978  26.6580014  85.5001467  24.4723749  25.8738575
  85.9579992  25.4089978  34.9280014  86.0769992  25.9829978  35.6850014
  86.6129992  24.7209978  35.0430014  86.0628684  25.3945194  35.0471674
  86.3059992  21.5039978  26.6820014  85.9589992  22.1209978  27.3260014
  86.9649992  22.0049978  26.2000014  86.3475090  21.6561575  26.7050681
  83.2289992  35.8689978  23.7530014  83.3899992  36.6689978  23.2530014
  83.0319992  36.1759978  24.6380014  83.2243906  36.0198678  23.8042333
  81.9639992  22.5669978  23.3690014  81.8799992  23.4549978  23.7160014
  82.8539992  22.3019978  23.6010014  82.0728163  22.6527179  23.4478596
  92.1619992  23.3159978  35.7630014  91.2459992  23.5779978  35.6760014
  92.4979992  23.3129978  34.8670014  92.0818499  23.3515163  35.6298766
  90.7649992  27.0659978  29.8590014  89.9669992  26.6509978  29.5310014
  91.2099992  26.3759978  30.3500014  90.7159684  26.9158628  29.8805227
  80.2219992  32.9939978  22.4290014  80.8139992  33.6939978  22.7060014
  80.6809992  32.5609978  21.7100014  80.3651652  33.0312675  22.3696533
  78.5379992  25.6589978  21.5450014  78.4929992  26.5979978  21.7240014
  77.6499992  25.4229978  21.2760014  78.4118166  25.7556687  21.5331524
  91.8509992  36.3219978  31.4810014  91.6949992  37.0009978  30.8240014
  92.7839992  36.3939978  31.6840014  91.9557387  36.4246390  31.4185342
  79.3459992  20.4399978  30.2190014  79.1169992  20.4989978  29.2910014
  78.9039992  19.6489978  30.5250014  79.2548801  20.3410540  30.1334729
  78.2769992  34.3809978  26.3790014  77.4439992  34.8529978  26.4060014
  78.8219992  34.8909978  25.7800014  78.2367857  34.5144791  26.3017142
  77.5649992  36.9929978  37.7090014  78.1049992  36.7769978  38.4690014
  77.0839992  36.1879978  37.5190014  77.5739219  36.8545156  37.7874282
  82.1619992  35.9129978  39.3290014  82.9299992  35.4539978  39.6700014
  82.1409992  35.6869978  38.3990014  82.2642135  35.8196668  39.2499491
  86.2539992  35.4209978  20.7050014  85.6099992  34.7899978  21.0260014
  87.0159992  34.8899978  20.4730014  86.2688058  35.2627902  20.7176038
  88.7389992  34.2929978  38.0580014  88.3879992  33.4359978  38.3020014
  89.4649992  34.4349978  38.6650014  88.7891895  34.1951351  38.1733770
  90.8589992  35.2379978  20.9380014  91.1419992  34.4429978  21.3910014
  91.5979992  35.4709978  20.3770014  90.9977096  35.1607049  20.9241104
  77.4719992  30.8039978  38.6630014  77.6159992  29.9019978  38.3770014
  76.6999992  31.0899978  38.1760014  77.3872733  30.7191798  38.5579532
  81.8129992  31.1469978  20.7960014  81.8779992  30.3529978  21.3260014
  82.4659992  31.0289978  20.1060014  81.9101605  31.0223430  20.7752997
  84.1269992  30.7729978  38.0960014  83.7989992  31.0439978  37.2390014
  84.2789992  29.8319978  38.0080014  84.1026412  30.6829046  37.9667822
  87.1659992  32.1939978  20.5320014  86.8969992  32.3749978  21.4320014
  86.9589992  31.2689978  20.4000014  87.1011191  32.0937119  20.6375524
  89.8619992  30.6889978  35.4790014  90.6069992  31.2779978  35.3600014
  89.1049992  31.2709978  35.5430014  89.8615470  30.8482128  35.4713799
  78.3049992  28.0039978  38.0830014  78.7129992  27.1469978  37.9620014
  78.0439992  28.0179978  39.0040014  78.3256016  27.8885119  38.1909192
  82.9629992  29.1199978  23.1020014  82.5029992  28.6359978  23.7870014
  83.2179992  28.4509978  22.4660014  82.9344856  28.9633669  23.1098397
  82.2519992  27.0129978  35.4580014  81.6329992  27.6869978  35.7380014
  82.5959992  27.3339978  34.6240014  82.2137123  27.1486887  35.3836388
  84.0339992  27.3629978  21.3640014  83.8529992  27.2079978  20.4370014
  84.9839992  27.4709978  21.4090014  84.1376566  27.3563669  21.2430929
  87.2709992  29.4839978  38.7350014  88.2249992  29.5679978  38.7080014
  87.1109992  28.7719978  39.3550014  87.3797182  29.3992842  38.8150733
  93.4239992  29.7169978  20.8100014  93.1499992  29.2929978  19.9970014
  93.4629992  30.6489978  20.5930014  93.3917716  29.7848827  20.6694286
  82.5909992  24.3679978  36.5400014  82.7409992  23.6389978  35.9380014
  82.5929992  25.1449978  35.9810014  82.6117967  24.3732708  36.3820541
  83.0039992  22.7369978  34.0330014  83.5389992  23.1889978  33.3810014
  82.1509992  22.6289978  33.6100014  82.9620374  22.7842665  33.8866710
  84.5849992  28.1769978  34.2720014  85.3359992  28.0209978  33.6990014
  84.2459992  29.0289978  33.9970014  84.6419587  28.2708138  34.1564078
  89.0009992  25.9919978  39.3010014  89.1929992  25.0609978  39.1890014
  89.8589992  26.4169978  39.2900014  89.1432182  25.9220070  39.2841862
  90.3179992  28.7809978  37.3780014  90.0359992  29.4899978  36.8000014
  91.2599992  28.7079978  37.2270014  90.4067921  28.8682193  37.2784225
  81.0699992  25.5659978  38.4510014  80.3019992  25.0329978  38.2410014
  81.7479992  25.2559978  37.8520014  81.0567235  25.4511754  38.3412413
  83.8089992  20.1939978  34.4640014  83.7109992  21.1399978  34.3590014
  83.0669992  19.8209978  33.9880014  83.6952534  20.2731773  34.3852600
  85.0729992  24.5149978  38.0280014  84.8379992  24.2959978  38.9290014
  84.2899992  24.3079978  37.5180014  84.9349095  24.4569892  38.0825353
  87.7889992  23.6429978  37.1030014  86.8409992  23.6749978  37.2350014
  88.1009992  23.0169978  37.7570014  87.7015293  23.5627923  37.2094148
  89.4229992  22.2769978  39.1080014  89.3259992  21.3249978  39.1030014
  89.1009992  22.5449978  39.9690014  89.3662468  22.1830884  39.2236210
  79.2499992  23.4859978  38.1560014  79.4619992  22.7799978  37.5460014
  79.1389992  23.0489978  39.0000014  79.2640269  23.3301921  38.1865873
  84.0309992  19.4879978  37.1350014  84.7429992  18.8479978  37.1210014
  83.9299992  19.7539978  36.2220014  84.1147387  19.4364330  37.0095563
  84.3849992  21.1699978  39.1890014  84.2529992  20.6949978  38.3690014
  83.7849992  21.9149978  39.1340014  84.2859070  21.2055789  39.0693251
  83.9309992  38.0529978  22.3650014  84.8639992  38.2109978  22.5090014
  83.6669992  38.7289978  21.7400014  84.0229911  38.1659373  22.3002722
  77.4989992  32.6899978  21.8480014  78.4129992  32.7689978  22.1210014
  77.5069992  32.0029978  21.1820014  77.6250655  32.6079205  21.7952917
  76.1479992  38.0829978  26.9250014  75.5009992  37.6209978  26.3930014
  76.5029992  37.4109978  27.5080014  76.1073741  37.9289774  26.9309175
  77.0179992  36.1629978  28.7300014  76.6839992  35.2829978  28.9020014
  77.2409992  36.5089978  29.5950014  77.0023721  36.0891938  28.8704168
  94.5669992  36.9729978  31.7110014  94.5449992  37.1579978  32.6500014
  95.2569992  37.5409978  31.3700014  94.6573439  37.0751887  31.7934791
  94.1299992  36.5399978  34.6320014  93.6429992  35.8049978  34.2610014
  94.6789992  36.1459978  35.3100014  94.1375247  36.3861057  34.6728461
  92.5809992  32.3299978  39.2710014  91.7149992  32.2249978  39.6650014
  92.9569992  33.0879978  39.7170014  92.5133401  32.4181708  39.3852620
  93.8819992  30.5859978  24.7850014  94.7319992  31.0069978  24.9120014
  93.8869992  29.8459978  25.3920014  93.9991143  30.5436094  24.8844750
  94.2759992  28.6399978  26.6080014  93.5499992  28.1599978  27.0060014
  94.8579992  28.8449978  27.3410014  94.2552730  28.6020184  26.7614149
  94.0349992  31.4249978  31.5560014  94.8689992  31.0469978  31.2750014
  94.1469992  32.3679978  31.4370014  94.1641917  31.5007943  31.5014861
  92.5219992  34.3029978  33.8630014  91.8739992  34.6279978  34.4880014
  92.0039992  33.8619978  33.1890014  92.3634196  34.2878651  33.8574152
  94.5449992  28.5409978  22.9990014  94.0229992  28.8969978  22.2810014
  94.5119992  29.2159978  23.6780014  94.4690129  28.6809598  22.9923355
  92.8939992  25.7799978  21.5500014  92.9899992  26.4469978  20.8700014
  92.7539992  24.9649978  21.0690014  92.8882040  25.7610671  21.3918378
  92.0629992  27.1609978  27.1710014  91.9129992  26.2159978  27.1510014
  91.7089992  27.4419978  28.0150014  91.9946351  27.0696644  27.2823220
  77.0979992  29.2389978  31.1820014  77.2829992  29.1569978  30.2460014
  77.9479992  29.1149978  31.6050014  77.2380928  29.2110463  31.1112893
  92.9189992  29.1309978  36.8100014  93.5019992  28.3959978  37.0020014
  93.4829992  29.9029978  36.8570014  93.0749781  29.1348145  36.8426164
  94.4159992  27.0339978  37.4950014  93.5529992  26.6549978  37.3290014
  95.0199992  26.2949978  37.4200014  94.3796085  26.8823223  37.4621695
  92.1409992  23.1879978  20.6680014  92.7519992  22.8169978  21.3050014
  91.3039992  22.7669978  20.8640014  92.1114947  23.0802756  20.7817252
  91.7739992  24.7429978  25.6340014  92.0529992  23.8359978  25.7580014
  92.5329992  25.1769978  25.2450014  91.9148619  24.6774502  25.5983795
  92.3849992  25.3249978  31.0700014  93.3179992  25.5369978  31.0350014
  92.1499992  25.4259978  31.9920014  92.4809517  25.3676833  31.1899130
  92.4149992  26.0619978  33.8460014  91.5719992  26.3299978  34.2120014
  92.8569992  26.8839978  33.6350014  92.3594138  26.2098273  33.8675518
  76.6959992  24.5089978  37.3220014  77.6149992  24.3869978  37.5590014
  76.2459992  23.7589978  37.7120014  76.7610087  24.3909608  37.4071410
  94.6979992  20.0419978  39.1990014  95.0469992  19.3879978  38.5940014
  94.8449992  20.8789978  38.7590014  94.7656824  20.0656024  39.0566304
  92.3869992  22.0059978  25.6820014  92.5689992  21.5569978  26.5070014
  91.7869992  21.4219978  25.2180014  92.3308187  21.8655552  25.7322739
  77.9169992  22.8219978  30.2140014  78.3619992  22.0299978  30.5160014
  78.3829992  23.5379978  30.6440014  78.0409718  22.8104534  30.3135265
  76.2209992  25.8209978  31.2830014  76.7129992  25.5999978  30.4920014
  76.5829992  26.6609978  31.5640014  76.3372923  25.9043468  31.2127407
  94.2169992  22.1509978  37.5480014  93.2999992  22.4219978  37.5130014
  94.3399992  21.6159978  36.7640014  94.1079672  22.1157885  37.4371862
  94.2539992  22.0739978  22.2100014  94.6659992  21.3529978  21.7350014
  94.9349992  22.7429978  22.2680014  94.4025536  22.0657766  22.1528024
  76.5349992  22.0789978  25.3370014  75.6099992  22.2869978  25.2080014
  76.9889992  22.5629978  24.6470014  76.4696298  22.1729299  25.2260451
  91.3049992  37.0629978  27.2830014  91.9579992  36.7149978  26.6750014
  91.8159992  37.5509978  27.9290014  91.4632777  37.0813815  27.2872047
  76.4979992  20.8169978  33.6810014  75.8329992  20.5709978  34.3240014
  76.0549992  21.4389978  33.1040014  76.3471168  20.8674214  33.6909848
  78.6899992  33.9919978  37.8260014  77.8689992  34.1669978  37.3650014
  78.4379992  33.9189978  38.7460014  78.5435594  34.0060717  37.8873611
  81.6439992  34.9659978  34.0840014  81.2199992  35.7759978  33.8020014
  82.5489992  35.0519978  33.7820014  81.7082138  35.0884160  34.0046415
  85.9559992  36.3649978  37.0440014  86.1399992  36.0319978  37.9220014
  86.8019992  36.6749978  36.7220014  86.0956484  36.3612979  37.1207617
  88.3009992  37.6509978  36.2880014  88.9779992  37.0179978  36.0480014
  88.6219992  38.0519978  37.0950014  88.4371323  37.6185691  36.3643158
  93.2179992  20.2409978  35.3670014  92.4049992  20.5659978  34.9800014
  93.4509992  19.4799978  34.8340014  93.1381347  20.1826880  35.2419841
  79.0459992  38.2229978  34.1320014  78.3259992  38.6629978  33.6810014
  78.6809992  37.9719978  34.9800014  78.8979643  38.2493369  34.1849129
  81.5129992  37.8229978  33.1620014  80.6489992  37.8949978  33.5660014
  81.4579992  38.3699978  32.3780014  81.3871942  37.9067849  33.1114000
  86.2239992  37.7109978  32.3370014  85.7669992  38.2399978  31.6830014
  86.3869992  38.3139978  33.0620014  86.1834960  37.8649280  32.3455274
  88.5519992  36.5889978  33.2820014  87.6469992  36.7539978  33.0160014
  88.9799992  37.4419978  33.2160014  88.4861537  36.7269134  33.2367095
  91.1559992  38.1589978  33.5770014  90.9739992  39.0749978  33.3660014
  91.3329992  37.7479978  32.7300014  91.1550030  38.2288273  33.4337166
  78.4609992  36.8459978  31.0420014  78.4429992  36.4199978  31.8990014
  79.2659992  36.5269978  30.6330014  78.5672875  36.7446435  31.1039515
  80.6019992  35.5559978  29.6970014  80.3829992  34.6389978  29.8670014
  81.4259992  35.6959978  30.1630014  80.6834702  35.4495511  29.7832527
  83.1389992  36.0259978  30.5460014  83.3519992  35.1379978  30.2590014
  83.2039992  35.9909978  31.5000014  83.1769149  35.8998326  30.6357369
  86.6479992  21.6899978  29.6900014  85.9739992  21.0599978  29.9460014
  87.2119992  21.2059978  29.0870014  86.6320384  21.5383708  29.6435020
  91.7909992  19.7969978  29.8030014  92.3939992  20.3449978  29.3010014
  90.9209992  20.1159978  29.5620014  91.7559157  19.9150373  29.7017910
  93.5179992  20.9359978  28.1360014  94.1289992  20.4219978  27.6090014
  93.8999992  21.8129978  28.1590014  93.6533305  20.9842050  28.0669418
  78.9749992  20.3239978  27.5120014  78.1979992  20.0889978  27.0050014
  79.5049992  19.5269978  27.5210014  78.9403451  20.1841268  27.4438627
  77.8109992  20.1219978  23.3160014  78.2499992  20.7329978  22.7240014
  77.1769992  20.6599978  23.7900014  77.7853859  20.2784064  23.2990305
  83.5539992  20.2499978  27.3250014  84.4279992  20.6389978  27.2960014
  83.4179992  20.0349978  28.2480014  83.6551953  20.2741643  27.4457617
  89.1109992  20.2799978  28.9750014  89.1869992  20.3759978  28.0250014
  88.8359992  19.3729978  29.1030014  89.0841871  20.1704146  28.8623944
  90.4639992  20.3059978  24.6670014  89.7609992  20.9209978  24.4570014
  90.0189992  19.4689978  24.7980014  90.3076550  20.2769668  24.6559837
  77.7119992  36.0699978  24.2130014  77.0269992  36.0319978  23.5460014
  77.7159992  36.9829978  24.5010014  77.6187621  36.1881924  24.1606126
  79.6719992  22.0379978  21.7580014  80.1629992  21.4079978  21.2310014
  80.2949992  22.3339978  22.4210014  79.8235304  21.9917376  21.7754940
  84.6979992  22.3309978  24.2150014  84.8759992  21.6839978  24.8980014
  84.6439992  23.1649978  24.6820014  84.7150678  22.3551604  24.3716301
  86.5759992  37.2789978  22.6110014  87.4419992  37.6459978  22.4330014
  86.3299992  36.8399978  21.7970014  86.6612097  37.2698525  22.4766019
  93.2849992  36.8419978  25.2900014  93.0909992  36.0939978  24.7250014
  93.2459992  37.5999978  24.7070014  93.2531645  36.8420786  25.1338148
  78.9319992  20.8379978  37.0300014  78.5659992  20.0719978  37.4720014
  79.8449992  20.8669978  37.3160014  79.0053172  20.7370324  37.1291890
  80.9049992  20.1879978  38.5650014  81.8039992  19.9139978  38.3810014
  80.5189992  19.4459978  39.0300014  80.9757307  20.0502196  38.6027098
  79.5299992  36.9899978  21.2380014  79.2619992  37.2759978  22.1120014
  80.3009992  36.4439978  21.3910014  79.5975926  36.9552779  21.3781205
  89.3269992  19.5209978  38.7480014  89.4029992  19.0949978  39.6010014
  90.2199992  19.5339978  38.4050014  89.4582303  19.4643493  38.8185497
  92.5029992  35.5939978  37.4400014  91.7209992  35.4069978  36.9200014
  92.4309992  36.5229978  37.6570014  92.3861924  35.6940637  37.3981602
 106.9089992  29.4799978  27.4710014 106.9979992  30.4239978  27.3390014
 106.2709992  29.2049978  26.8130014 106.8349062  29.5719812  27.3639641
 105.8419992  28.7349978  30.8900014 105.8039992  28.0889978  31.5950014
 105.5199992  28.2679978  30.1190014 105.7932679  28.5834276  30.8822921
  98.2099992  28.3489978  32.4830014  98.2519992  27.7239978  33.2060014
  98.9129992  28.9729978  32.6650014  98.3107345  28.3477873  32.6065274
 109.5479992  31.6739978  29.1910014 109.1069992  30.9539978  29.6420014
 109.5349992  32.3949978  29.8210014 109.4859215  31.6729291  29.3378105
  99.1339992  32.7989978  31.0180014  98.7639992  31.9969978  30.6480014
 100.0749992  32.6309978  31.0640014  99.2105984  32.6664638  30.9735603
  95.7439992  26.4589978  26.4100014  95.2959992  27.3049978  26.3920014
  95.1829992  25.8799978  25.8950014  95.6068546  26.4963993  26.3378891
  96.4539992  28.6209978  28.5360014  96.6679992  27.8509978  29.0640014
  97.1919992  28.7109978  27.9330014  96.5830200  28.5278587  28.5267035
 106.6599992  36.7779978  29.4030014 107.2789992  36.1019978  29.1300014
 106.4509992  36.5599978  30.3120014 106.7166056  36.6558869  29.4883967
 104.2309992  31.1669978  31.2960014 104.5349992  30.4809978  30.7010014
 104.9529992  31.2859978  31.9140014 104.3701240  31.0892314  31.2980959
 112.8939992  22.7689978  32.1560014 112.9439992  23.3789978  32.8920014
 113.3199992  23.2299978  31.4330014 112.9584108  22.9147709  32.1590112
 107.3719992  25.5609978  31.6230014 107.5149992  24.6149978  31.6430014
 107.2659992  25.7679978  30.6950014 107.3772403  25.4594797  31.5002239
 100.5269992  23.6629978  28.8960014 100.5699992  24.5229978  28.4770014
 100.0689992  23.1109978  28.2620014 100.4709871  23.7059245  28.7530761
 108.2489992  23.7939978  27.2970014 108.8959992  23.4649978  27.9210014
 108.7589992  24.3109978  26.6740014 108.4064351  23.8189067  27.2981037
  97.1469992  26.0599978  29.6580014  97.8009992  25.5099978  30.0900014
  97.1709992  25.7859978  28.7410014  97.2397199  25.9477167  29.5931668
 102.3039992  27.6099978  28.8730014 102.9199992  27.0829978  29.3820014
 101.7169992  26.9699978  28.4690014 102.3090154  27.4513954  28.8880945
 113.2859992  24.2469978  34.3920014 112.5969992  24.9049978  34.2970014
 113.3009992  24.0489978  35.3290014 113.1937756  24.3102603  34.5055812
  99.3369992  22.5809978  32.9700014  99.1179992  23.1109978  32.2030014
  98.6689992  22.8069978  33.6170014  99.2166975  22.6840967  32.9525140
 106.7059992  32.0809978  26.5140014 106.4109992  31.7579978  25.6620014
 106.3819992  32.9809978  26.5550014 106.6218460  32.1584464  26.4029714
 101.9059992  30.2559978  33.2570014 101.1659992  30.8549978  33.3610014
 102.6199992  30.8099978  32.9420014 101.9013500  30.4127829  33.2286371
 110.0129992  23.0849978  29.2770014 109.7979992  22.3189978  29.8100014
 110.6689992  23.5569978  29.7900014 110.0722673  23.0440728  29.4191990
  98.9309992  24.4729978  30.9220014  99.5449992  25.1059978  31.2950014
  99.4429992  24.0009978  30.2660014  99.0841962  24.4957249  30.8842935
 100.3139992  32.2209978  34.0440014 100.3079992  33.0999978  33.6660014
  99.4599992  32.1369978  34.4690014 100.1977925  32.3299535  34.0496887
  96.4349992  31.8919978  24.8260014  96.1629992  32.1209978  23.9380014
  96.4799992  32.7289978  25.2870014  96.4038097  32.0366163  24.7666683
 110.0599992  33.5129978  31.5390014 109.1179992  33.5719978  31.7010014
 110.3359992  34.4189978  31.4020014 109.9685865  33.6435288  31.5426192
 110.3599992  21.7999978  32.9560014 109.6239992  22.4099978  32.9190014
 111.0439992  22.2149978  32.4300014 110.3515367  21.9397551  32.8798174
 103.3639992  19.8859978  30.4220014 103.2459992  18.9379978  30.3680014
 102.5089992  20.2189978  30.6950014 103.2322805  19.8012202  30.4515079
 108.3119992  35.2939978  28.1640014 108.7369992  34.5869978  27.6790014
 108.6289992  36.0959978  27.7470014 108.4130266  35.3055190  28.0412479
 109.4719992  33.1949978  26.6730014 109.2139992  32.5049978  26.0610014
 109.5429992  32.7519978  27.5180014 109.4463050  33.0406814  26.7035621
 111.1579992  31.7619978  35.1500014 111.2969992  31.1699978  34.4110014
 111.3249992  32.6349978  34.7940014 111.1996193  31.7988896  35.0006211
 105.6299992  28.7239978  24.9230014 104.9189992  29.2589978  24.5710014
 106.3209992  28.7789978  24.2630014 105.6260751  28.8046777  24.7855858
 105.6839992  27.1809978  21.9610014 106.3849992  27.2039978  22.6130014
 105.9859992  26.5529978  21.3050014 105.8208202  27.0992212  21.9615609
 112.9989992  28.1019978  33.2160014 112.3469992  28.7959978  33.3050014
 113.4649992  28.3119978  32.4060014 112.9725937  28.2255019  33.1187533
 109.0359992  28.9329978  25.8740014 108.3039992  29.1619978  26.4480014
 109.4829992  28.2199978  26.3290014 108.9963963  28.8678729  26.0139945
 108.9329992  27.1079978  34.9420014 109.0129992  27.8709978  35.5140014
 108.3319992  27.3869978  34.2520014 108.8626547  27.2502457  34.9270047
 100.6809992  29.5639978  27.7570014 100.3509992  29.1929978  26.9390014
 101.2699992  28.8929978  28.1040014 100.7153970  29.4226063  27.6919404
 102.0479992  32.9919978  30.4380014 101.9529992  32.4129978  29.6820014
 102.7769992  32.6209978  30.9340014 102.1336011  32.8625561  30.4016028
 101.0479992  28.3319978  31.3900014 101.6129992  28.4539978  30.6280014
 101.3669992  28.9699978  32.0290014 101.1684166  28.4348791  31.3720348
 107.3569992  33.8359978  32.1240014 107.1169992  34.4979978  32.7720014
 107.1589992  33.0009978  32.5490014 107.2973826  33.8138115  32.2701566
 101.9279992  32.7319978  36.1080014 101.6169992  33.5139978  36.5630014
 101.2779992  32.5789978  35.4220014 101.7975538  32.8184087  36.0775898
 107.9069992  28.0959978  23.5600014 108.4859992  28.2459978  24.3060014
 108.3209992  28.5659978  22.8360014 108.0423358  28.1800954  23.5643953
  98.8479992  28.9299978  35.3360014  98.9179992  29.5809978  36.0350014
  97.9569992  29.0329978  35.0010014  98.7371690  29.0329249  35.3863043
 105.6329992  34.8319978  26.9950014 106.1069992  35.1279978  27.7720014
 105.0699992  35.5709978  26.7620014 105.6217890  34.9723036  27.0698101
 100.1669992  34.8029978  36.8710014 100.1749992  34.6669978  35.9240014
  99.2509992  34.6859978  37.1230014 100.0442528  34.7685463  36.7753243
 111.6059992  19.8459978  23.3730014 110.7059992  19.9849978  23.6680014
 111.8579992  20.6769978  22.9710014 111.5168683  19.9774055  23.3590232
  99.6719992  28.6329978  25.3460014  99.3799992  29.4009978  24.8550014
  98.9969992  27.9739978  25.1830014  99.5408497  28.6489745  25.2568260
 112.7949992  34.2119978  21.7490014 112.8679992  35.1509978  21.9190014
 113.6999992  33.9069978  21.6930014 112.9274170  34.2993282  21.7647063
  95.7649992  30.9959978  34.1610014  95.2629992  30.9679978  33.3460014
  95.7699992  30.0909978  34.4710014  95.6969832  30.8697486  34.0914121
  95.5149992  33.7769978  31.0450014  96.4609992  33.6319978  31.0260014
  95.4019992  34.5609978  31.5820014  95.6293578  33.8631697  31.1150317
 113.7129992  34.4429978  36.7280014 113.6629992  33.4869978  36.6900014
 112.8859992  34.7099978  37.1290014 113.5943831  34.3484680  36.7770121
 104.6909992  34.0169978  35.6040014 104.7789992  34.8429978  36.0790014
 103.8279992  33.6869978  35.8530014 104.5863357  34.0855468  35.7027653
 105.1059992  37.7889978  25.4100014 105.0299992  37.6679978  24.4630014
 105.1379992  38.7379978  25.5280014 105.0999380  37.9007677  25.2965181
  98.7589992  36.5779978  27.1910014  98.9109992  36.2299978  28.0690014
  97.9079992  36.2209978  26.9350014  98.6648344  36.4820879  27.2766868
 108.2069992  36.9429978  22.4120014 108.5819992  36.1989978  21.9410014
 108.2119992  36.6729978  23.3300014 108.2590098  36.8046392  22.4716629
 107.8759992  36.8689978  25.1610014 106.9409992  36.9689978  25.3400014
 108.1559992  36.1589978  25.7400014 107.7859471  36.7867933  25.2636695
 110.8649992  25.9359978  37.2080014 110.4569992  26.4159978  36.4870014
 110.9049992  25.0299978  36.9000014 110.8146221  25.8792449  37.0678267
  98.0139992  32.3199978  35.2040014  98.2299992  31.9579978  36.0640014
  97.1579992  31.9449978  34.9950014  97.9278810  32.2198837  35.2932680
 100.6319992  20.7899978  31.2000014  99.7709992  20.7029978  30.7920014
 100.6099992  21.6459978  31.6280014 100.5110491  20.8938003  31.2019582
 105.2949992  20.5119978  34.5750014 105.7149992  20.0969978  35.3280014
 104.3619992  20.3329978  34.6920014 105.2263736  20.4309910  34.6938968
 108.6219992  24.2669978  35.4280014 108.1079992  24.1419978  36.2260014
 108.4659992  25.1799978  35.1840014 108.5306967  24.3732123  35.5040937
 109.3839992  29.1279978  21.1890014 109.4259992  28.9059978  20.2590014
 110.2329992  29.5269978  21.3790014 109.5045253  29.1515498  21.0873822
 104.9569992  23.0039978  21.8600014 104.7029992  23.0229978  22.7820014
 104.6999992  22.1329978  21.5580014 104.8874508  22.8888280  21.9454803
 100.7229992  25.7549978  32.2950014 100.0819992  25.7149978  33.0040014
 100.7609992  26.6819978  32.0570014 100.6403010  25.8747668  32.3599946
 100.7199992  25.9759978  27.2070014  99.8279992  25.6359978  27.1480014
 101.1709992  25.5989978  26.4510014 100.6587642  25.8784910  27.0967726
 106.2559992  26.3919978  26.0240014 105.8469992  27.2069978  25.7320014
 106.9759992  26.2519978  25.4100014 106.2974439  26.4845372  25.9010115
 105.3579992  26.5679978  37.5120014 104.7949992  25.8629978  37.8330014
 106.1839992  26.4469978  37.9800014 105.3926674  26.4552165  37.6191751
 107.2609992  25.8379978  28.8380014 107.0649992  26.4439978  28.1230014
 107.4419992  25.0049978  28.4040014 107.2586584  25.8082513  28.6814212
  98.4729992  26.0759978  34.1620014  98.4349992  26.4759978  35.0310014
  97.9829992  25.2589978  34.2520014  98.4015330  26.0202674  34.2931289
 101.8389992  23.4499978  20.9610014 101.4079992  23.0049978  21.6900014
 101.1209992  23.8209978  20.4480014 101.6829176  23.4392051  20.9914930
  95.0819992  23.1919978  28.0130014  95.7119992  23.1629978  28.7320014
  95.5309992  22.7669978  27.2820014  95.2290835  23.1305660  28.0127659
  96.3559992  23.9379978  23.4370014  96.8299992  24.5289978  22.8520014
  95.6379992  24.4679978  23.7840014  96.3238640  24.0905511  23.4037969
 106.5249992  27.4759978  33.5090014 106.8479992  26.8449978  32.8660014
 106.0839992  26.9419978  34.1700014 106.5096379  27.3173468  33.5102582
 103.3019992  23.4039978  28.2930014 102.3909992  23.4609978  28.5820014
 103.8069992  23.3439978  29.1040014 103.2456873  23.4036826  28.4421207
  98.1299992  25.0329978  27.1200014  97.2409992  25.1319978  26.7800014
  98.4269992  24.1909978  26.7740014  98.0484177  24.9327687  27.0266940
 101.7829992  25.0329978  24.7770014 102.7149992  25.1619978  24.9550014
 101.5679992  25.7019978  24.1270014 101.8814472  25.1410806  24.7134891
 107.7069992  22.6389978  31.5580014 107.0299992  22.7699978  32.2210014
 107.2219992  22.4839978  30.7470014 107.5487405  22.6359947  31.5392170
 100.4569992  26.2269978  22.3430014  99.9149992  25.8479978  21.6520014
 101.2909992  26.4219978  21.9150014 100.4954390  26.2014079  22.1904392
 110.9949992  38.3099978  37.8340014 111.1939992  38.7339978  37.0000014
 111.6499992  38.6539978  38.4410014 111.1108522  38.4146301  37.8017852
  98.5929992  30.7839978  37.4420014  99.3249992  31.0389978  38.0040014
  97.8119992  30.9889978  37.9580014  98.5876526  30.8465450  37.5885176
 104.6219992  26.1909978  30.1800014 105.1859992  25.6449978  29.6330014
 104.4739992  25.6699978  30.9690014 104.6793037  26.0456787  30.2117229
  99.6239992  22.3279978  26.5990014  99.3069992  21.4249978  26.5630014
 100.4049992  22.3299978  26.0460014  99.6862431  22.2047797  26.5193102
 103.2479992  24.5799978  32.5940014 102.4129992  25.0339978  32.7050014
 103.7719992  24.8559978  33.3460014 103.2046072  24.6793948  32.7108136
 103.7929992  30.7929978  24.2790014 103.0479992  30.2849978  23.9570014
 103.6579992  30.8419978  25.2250014 103.6728963  30.7301731  24.3628826
 110.9429992  29.9259978  33.0660014 111.5839992  30.3819978  32.5220014
 110.1119992  30.0389978  32.6030014 110.9185287  30.0036921  32.9289887
 107.6899992  23.6069978  22.4780014 106.7519992  23.7179978  22.3270014
 107.9879992  24.4629978  22.7850014 107.6016318  23.7380158  22.4988145
 105.3119992  30.9769978  35.5160014 104.9659992  30.5949978  36.3230014
 105.1119992  31.9099978  35.5870014 105.2375987  31.0509002  35.6360461
 108.4089992  25.4739978  24.1390014 109.3009992  25.3359978  24.4580014
 108.4649992  26.2649978  23.6020014 108.5387325  25.5619918  24.1101217
  98.9169992  30.0879978  30.0490014  99.6619992  30.0849978  29.4470014
  98.9949992  29.2639978  30.5300014  99.0293365  29.9762384  30.0317430
 105.9179992  32.2509978  23.3040014 105.6229992  33.0779978  23.6860014
 105.2149992  31.6319978  23.5010014 105.7826379  32.2804171  23.3828654
  95.9249992  28.5479978  35.3640014  96.1479992  28.1299978  36.1950014
  95.3229992  27.9359978  34.9410014  95.8741513  28.4079606  35.4206740
 102.9419992  28.0649978  37.5770014 102.6459992  27.8999978  36.6810014
 103.8729992  27.8449978  37.5660014 103.0274401  28.0126879  37.4530206
 107.5619992  33.4389978  35.4660014 106.6619992  33.6219978  35.1990014
 107.5959992  33.6979978  36.3870014 107.4433748  33.4990554  35.5539164
 113.2939992  25.6829978  23.8340014 112.7389992  25.2869978  23.1610014
 113.3939992  26.5939978  23.5560014 113.2316816  25.7519505  23.7045033
 113.2569992  31.4839978  36.6710014 112.4059992  31.7219978  36.3030014
 113.8469992  31.4669978  35.9180014 113.2203812  31.5142524  36.5188453
 111.5889992  34.4689978  24.2990014 111.2159992  33.6439978  24.6080014
 111.8659992  34.2859978  23.4010014 111.5753463  34.3312569  24.2199525
 108.7489992  29.2769978  31.3200014 107.8209992  29.0459978  31.2930014
 109.1999992  28.4999978  30.9900014 108.6828165  29.1402774  31.2716790
 101.2919992  33.6059978  27.4530014 101.8199992  34.3789978  27.2530014
 100.4119992  33.8299978  27.1510014 101.2453435  33.7422700  27.3847310
  97.0469992  28.4679978  22.0400014  97.6629992  29.0949978  22.4200014
  96.1849992  28.7839978  22.3120014  97.0147678  28.5964412  22.1287209
 102.7199992  31.2689978  27.0290014 102.4789992  32.1939978  27.0710014
 101.9789992  30.8099978  27.4260014 102.5869206  31.3335915  27.0883769
 103.2339992  35.4179978  33.3440014 103.5969992  36.2719978  33.1110014
 103.7659992  35.1259978  34.0850014 103.3555141  35.4953895  33.4122097
 101.4029992  36.2899978  26.5750014 100.4529992  36.3959978  26.6260014
 101.7549992  37.1109978  26.9190014 101.3205472  36.4154923  26.6284852
 106.7779992  31.5169978  33.0450014 106.3529992  31.2889978  33.8710014
 107.3589992  30.7779978  32.8630014 106.7983395  31.3859545  33.1334414
 108.9809992  32.4459978  22.1190014 109.3349992  32.0659978  22.9230014
 108.0329992  32.3519978  22.2060014 108.9012298  32.3812452  22.2408687
 109.4369992  36.0689978  35.5140014 108.8349992  35.5129978  35.0190014
 109.7179992  36.7359978  34.8880014 109.3925757  36.0830744  35.3615675
 113.4849992  36.9249978  22.3200014 114.2289992  37.5109978  22.1800014
 112.7909992  37.4939978  22.6530014 113.4929809  37.0820818  22.3458590
  97.5589992  23.3019978  34.9220014  96.6669992  23.6399978  34.8540014
  97.4609992  22.4459978  35.3400014  97.4234475  23.2326543  34.9691704
 109.8469992  31.1179978  24.3460014 109.5699992  30.3899978  24.9020014
 110.7749992  31.2369978  24.5510014 109.9344499  31.0344213  24.4498044
  97.2109992  35.1059978  33.3570014  97.4279992  34.1739978  33.3260014
  97.4569992  35.3809978  34.2400014  97.2739809  35.0155686  33.4721691
 103.0719992  33.5579978  20.5660014 103.3109992  32.8089978  20.0190014
 102.8029992  33.1699978  21.3990014 103.0683233  33.4031853  20.6037809
 102.0089992  33.1279978  23.0220014 102.1559992  32.6079978  23.8120014
 102.0059992  34.0349978  23.3290014 102.0287102  33.1793953  23.1715925
  98.4619992  30.3799978  23.5330014  97.7759992  30.7329978  24.1000014
  98.9849992  31.1429978  23.2860014  98.4388402  30.5313901  23.5771801
 106.2939992  23.0429978  33.8120014 106.9929992  23.1169978  34.4620014
 105.9129992  22.1779978  33.9660014 106.3382097  22.9362389  33.9217997
 107.0779992  22.6949978  24.9090014 107.2979992  23.1659978  24.1050014
 107.6369992  23.0889978  25.5790014 107.1836731  22.8127287  24.8895033
 104.7469992  34.8249978  23.7720014 103.9299992  35.3219978  23.8240014
 105.2759992  35.3009978  23.1310014 104.7068125  34.9571989  23.6925306
 104.2779992  24.4229978  25.7440014 105.0899992  24.9269978  25.7900014
 104.0339992  24.2779978  26.6580014 104.3561467  24.4723749  25.8738575
 104.8139992  25.4089978  34.9280014 104.9329992  25.9829978  35.6850014
 105.4689992  24.7209978  35.0430014 104.9188684  25.3945194  35.0471674
 105.1619992  21.5039978  26.6820014 104.8149992  22.1209978  27.3260014
 105.8209992  22.0049978  26.2000014 105.2035090  21.6561575  26.7050681
 102.0849992  35.8689978  23.7530014 102.2459992  36.6689978  23.2530014
 101.8879992  36.1759978  24.6380014 102.0803906  36.0198678  23.8042333
 100.8199992  22.5669978  23.3690014 100.7359992  23.4549978  23.7160014
 101.7099992  22.3019978  23.6010014 100.9288163  22.6527179  23.4478596
 111.0179992  23.3159978  35.7630014 110.1019992  23.5779978  35.6760014
 111.3539992  23.3129978  34.8670014 110.9378499  23.3515163  35.6298766
 109.6209992  27.0659978  29.8590014 108.8229992  26.6509978  29.5310014
 110.0659992  26.3759978  30.3500014 109.5719684  26.9158628  29.8805227
  99.0779992  32.9939978  22.4290014  99.6699992  33.6939978  22.7060014
  99.5369992  32.5609978  21.7100014  99.2211652  33.0312675  22.3696533
  97.3939992  25.6589978  21.5450014  97.3489992  26.5979978  21.7240014
  96.5059992  25.4229978  21.2760014  97.2678166  25.7556687  21.5331524
 110.7069992  36.3219978  31.4810014 110.5509992  37.0009978  30.8240014
 111.6399992  36.3939978  31.6840014 110.8117387  36.4246390  31.4185342
  98.2019992  20.4399978  30.2190014  97.9729992  20.4989978  29.2910014
  97.7599992  19.6489978  30.5250014  98.1108801  20.3410540  30.1334729
  97.1329992  34.3809978  26.3790014  96.2999992  34.8529978  26.4060014
  97.6779992  34.8909978  25.7800014  97.0927857  34.5144791  26.3017142
  96.4209992  36.9929978  37.7090014  96.9609992  36.7769978  38.4690014
  95.9399992  36.1879978  37.5190014  96.4299219  36.8545156  37.7874282
 101.0179992  35.9129978  39.3290014 101.7859992  35.4539978  39.6700014
 100.9969992  35.6869978  38.3990014 101.1202135  35.8196668  39.2499491
 105.1099992  35.4209978  20.7050014 104.4659992  34.7899978  21.0260014
 105.8719992  34.8899978  20.4730014 105.1248058  35.2627902  20.7176038
 107.5949992  34.2929978  38.0580014 107.2439992  33.4359978  38.3020014
 108.3209992  34.4349978  38.6650014 107.6451895  34.1951351  38.1733770
 109.7149992  35.2379978  20.9380014 109.9979992  34.4429978  21.3910014
 110.4539992  35.4709978  20.3770014 109.8537096  35.1607049  20.9241104
  96.3279992  30.8039978  38.6630014  96.4719992  29.9019978  38.3770014
  95.5559992  31.0899978  38.1760014  96.2432733  30.7191798  38.5579532
 100.6689992  31.1469978  20.7960014 100.7339992  30.3529978  21.3260014
 101.3219992  31.0289978  20.1060014 100.7661605  31.0223430  20.7752997
 102.9829992  30.7729978  38.0960014 102.6549992  31.0439978  37.2390014
 103.1349992  29.8319978  38.0080014 102.9586412  30.6829046  37.9667822
 106.0219992  32.1939978  20.5320014 105.7529992  32.3749978  21.4320014
 105.8149992  31.2689978  20.4000014 105.9571191  32.0937119  20.6375524
 108.7179992  30.6889978  35.4790014 109.4629992  31.2779978  35.3600014
 107.9609992  31.2709978  35.5430014 108.7175470  30.8482128  35.4713799
  97.1609992  28.0039978  38.0830014  97.5689992  27.1469978  37.9620014
  96.8999992  28.0179978  39.0040014  97.1816016  27.8885119  38.1909192
 101.8189992  29.1199978  23.1020014 101.3589992  28.6359978  23.7870014
 102.0739992  28.4509978  22.4660014 101.7904856  28.9633669  23.1098397
 101.1079992  27.0129978  35.4580014 100.4889992  27.6869978  35.7380014
 101.4519992  27.3339978  34.6240014 101.0697123  27.1486887  35.3836388
 102.8899992  27.3629978  21.3640014 102.7089992  27.2079978  20.4370014
 103.8399992  27.4709978  21.4090014 102.9936566  27.3563669  21.2430929
 106.1269992  29.4839978  38.7350014 107.0809992  29.5679978  38.7080014
 105.9669992  28.7719978  39.3550014 106.2357182  29.3992842  38.8150733
 112.2799992  29.7169978  20.8100014 112.0059992  29.2929978  19.9970014
 112.3189992  30.6489978  20.5930014 112.2477716  29.7848827  20.6694286
 101.4469992  24.3679978  36.5400014 101.5969992  23.6389978  35.9380014
 101.4489992  25.1449978  35.9810014 101.4677967  24.3732708  36.3820541
 101.8599992  22.7369978  34.0330014 102.3949992  23.1889978  33.3810014
 101.0069992  22.6289978  33.6100014 101.8180374  22.7842665  33.8866710
 103.4409992  28.1769978  34.2720014 104.1919992  28.0209978  33.6990014
 103.1019992  29.0289978  33.9970014 103.4979587  28.2708138  34.1564078
 107.8569992  25.9919978  39.3010014 108.0489992  25.0609978  39.1890014
 108.7149992  26.4169978  39.2900014 107.9992182  25.9220070  39.2841862
 109.1739992  28.7809978  37.3780014 108.8919992  29.4899978  36.8000014
 110.1159992  28.7079978  37.2270014 109.2627921  28.8682193  37.2784225
  99.9259992  25.5659978  38.4510014  99.1579992  25.0329978  38.2410014
 100.6039992  25.2559978  37.8520014  99.9127235  25.4511754  38.3412413
 102.6649992  20.1939978  34.4640014 102.5669992  21.1399978  34.3590014
 101.9229992  19.8209978  33.9880014 102.5512534  20.2731773  34.3852600
 103.9289992  24.5149978  38.0280014 103.6939992  24.2959978  38.9290014
 103.1459992  24.3079978  37.5180014 103.7909095  24.4569892  38.0825353
 106.6449992  23.6429978  37.1030014 105.6969992  23.6749978  37.2350014
 106.9569992  23.0169978  37.7570014 106.5575293  23.5627923  37.2094148
 108.2789992  22.2769978  39.1080014 108.1819992  21.3249978  39.1030014
 107.9569992  22.5449978  39.9690014 108.2222468  22.1830884  39.2236210
  98.1059992  23.4859978  38.1560014  98.3179992  22.7799978  37.5460014
  97.9949992  23.0489978  39.0000014  98.1200269  23.3301921  38.1865873
 102.8869992  19.4879978  37.1350014 103.5989992  18.8479978  37.1210014
 102.7859992  19.7539978  36.2220014 102.9707387  19.4364330  37.0095563
 103.2409992  21.1699978  39.1890014 103.1089992  20.6949978  38.3690014
 102.6409992  21.9149978  39.1340014 103.1419070  21.2055789  39.0693251
 102.7869992  38.0529978  22.3650014 103.7199992  38.2109978  22.5090014
 102.5229992  38.7289978  21.7400014 102.8789911  38.1659373  22.3002722
  96.3549992  32.6899978  21.8480014  97.2689992  32.7689978  22.1210014
  96.3629992  32.0029978  21.1820014  96.4810655  32.6079205  21.7952917
  95.0039992  38.0829978  26.9250014  94.3569992  37.6209978  26.3930014
  95.3589992  37.4109978  27.5080014  94.9633741  37.9289774  26.9309175
  95.8739992  36.1629978  28.7300014  95.5399992  35.2829978  28.9020014
  96.0969992  36.5089978  29.5950014  95.8583721  36.0891938  28.8704168
 113.4229992  36.9729978  31.7110014 113.4009992  37.1579978  32.6500014
 114.1129992  37.5409978  31.3700014 113.5133439  37.0751887  31.7934791
 112.9859992  36.5399978  34.6320014 112.4989992  35.8049978  34.2610014
 113.5349992  36.1459978  35.3100014 112.9935247  36.3861057  34.6728461
 111.4369992  32.3299978  39.2710014 110.5709992  32.2249978  39.6650014
 111.8129992  33.0879978  39.7170014 111.3693401  32.4181708  39.3852620
 112.7379992  30.5859978  24.7850014 113.5879992  31.0069978  24.9120014
 112.7429992  29.8459978  25.3920014 112.8551143  30.5436094  24.8844750
 113.1319992  28.6399978  26.6080014 112.4059992  28.1599978  27.0060014
 113.7139992  28.8449978  27.3410014 113.1112730  28.6020184  26.7614149
 112.8909992  31.4249978  31.5560014 113.7249992  31.0469978  31.2750014
 113.0029992  32.3679978  31.4370014 113.0201917  31.5007943  31.5014861
 111.3779992  34.3029978  33.8630014 110.7299992  34.6279978  34.4880014
 110.8599992  33.8619978  33.1890014 111.2194196  34.2878651  33.8574152
 113.4009992  28.5409978  22.9990014 112.8789992  28.8969978  22.2810014
 113.3679992  29.2159978  23.6780014 113.3250129  28.6809598  22.9923355
 111.7499992  25.7799978  21.5500014 111.8459992  26.4469978  20.8700014
 111.6099992  24.9649978  21.0690014 111.7442040  25.7610671  21.3918378
 110.9189992  27.1609978  27.1710014 110.7689992  26.2159978  27.1510014
 110.5649992  27.4419978  28.0150014 110.8506351  27.0696644  27.2823220
  95.9539992  29.2389978  31.1820014  96.1389992  29.1569978  30.2460014
  96.8039992  29.1149978  31.6050014  96.0940928  29.2110463  31.1112893
 111.7749992  29.1309978  36.8100014 112.3579992  28.3959978  37.0020014
 112.3389992  29.9029978  36.8570014 111.9309781  29.1348145  36.8426164
 113.2719992  27.0339978  37.4950014 112.4089992  26.6549978  37.3290014
 113.8759992  26.2949978  37.4200014 113.2356085  26.8823223  37.4621695
 110.9969992  23.1879978  20.6680014 111.6079992  22.8169978  21.3050014
 110.1599992  22.7669978  20.8640014 110.9674947  23.0802756  20.7817252
 110.6299992  24.7429978  25.6340014 110.9089992  23.8359978  25.7580014
 111.3889992  25.1769978  25.2450014 110.7708619  24.6774502  25.5983795
 111.2409992  25.3249978  31.0700014 112.1739992  25.5369978  31.0350014
 111.0059992  25.4259978  31.9920014 111.3369517  25.3676833  31.1899130
 111.2709992  26.0619978  33.8460014 110.4279992  26.3299978  34.2120014
 111.7129992  26.8839978  33.6350014 111.2154138  26.2098273  33.8675518
  95.5519992  24.5089978  37.3220014  96.4709992  24.3869978  37.5590014
  95.1019992  23.7589978  37.7120014  95.6170087  24.3909608  37.4071410
 113.5539992  20.0419978  39.1990014 113.9029992  19.3879978  38.5940014
 113.7009992  20.8789978  38.7590014 113.6216824  20.0656024  39.0566304
 111.2429992  22.0059978  25.6820014 111.4249992  21.5569978  26.5070014
 110.6429992  21.4219978  25.2180014 111.1868187  21.8655552  25.7322739
  96.7729992  22.8219978  30.2140014  97.2179992  22.0299978  30.5160014
  97.2389992  23.5379978  30.6440014  96.8969718  22.8104534  30.3135265
  95.0769992  25.8209978  31.2830014  95.5689992  25.5999978  30.4920014
  95.4389992  26.6609978  31.5640014  95.1932923  25.9043468  31.2127407
 113.0729992  22.1509978  37.5480014 112.1559992  22.4219978  37.5130014
 113.1959992  21.6159978  36.7640014 112.9639672  22.1157885  37.4371862
 113.1099992  22.0739978  22.2100014 113.5219992  21.3529978  21.7350014
 113.7909992  22.7429978  22.2680014 113.2585536  22.0657766  22.1528024
  95.3909992  22.0789978  25.3370014  94.4659992  22.2869978  25.2080014
  95.8449992  22.5629978  24.6470014  95.3256298  22.1729299  25.2260451
 110.1609992  37.0629978  27.2830014 110.8139992  36.7149978  26.6750014
 110.6719992  37.5509978  27.9290014 110.3192777  37.0813815  27.2872047
  95.3539992  20.8169978  33.6810014  94.6889992  20.5709978  34.3240014
  94.9109992  21.4389978  33.1040014  95.2031168  20.8674214  33.6909848
  97.5459992  33.9919978  37.8260014  96.7249992  34.1669978  37.3650014
  97.2939992  33.9189978  38.7460014  97.3995594  34.0060717  37.8873611
 100.4999992  34.9659978  34.0840014 100.0759992  35.7759978  33.8020014
 101.4049992  35.0519978  33.7820014 100.5642138  35.0884160  34.0046415
 104.8119992  36.3649978  37.0440014 104.9959992  36.0319978  37.9220014
 105.6579992  36.6749978  36.7220014 104.9516484  36.3612979  37.1207617
 107.1569992  37.6509978  36.2880014 107.8339992  37.0179978  36.0480014
 107.4779992  38.0519978  37.0950014 107.2931323  37.6185691  36.3643158
 112.0739992  20.2409978  35.3670014 111.2609992  20.5659978  34.9800014
 112.3069992  19.4799978  34.8340014 111.9941347  20.1826880  35.2419841
  97.9019992  38.2229978  34.1320014  97.1819992  38.6629978  33.6810014
  97.5369992  37.9719978  34.9800014  97.7539643  38.2493369  34.1849129
 100.3689992  37.8229978  33.1620014  99.5049992  37.8949978  33.5660014
 100.3139992  38.3699978  32.3780014 100.2431942  37.9067849  33.1114000
 105.0799992  37.7109978  32.3370014 104.6229992  38.2399978  31.6830014
 105.2429992  38.3139978  33.0620014 105.0394960  37.8649280  32.3455274
 107.4079992  36.5889978  33.2820014 106.5029992  36.7539978  33.0160014
 107.8359992  37.4419978  33.2160014 107.3421537  36.7269134  33.2367095
 110.0119992  38.1589978  33.5770014 109.8299992  39.0749978  33.3660014
 110.1889992  37.7479978  32.7300014 110.0110030  38.2288273  33.4337166
  97.3169992  36.8459978  31.0420014  97.2989992  36.4199978  31.8990014
  98.1219992  36.5269978  30.6330014  97.4232875  36.7446435  31.1039515
  99.4579992  35.5559978  29.6970014  99.2389992  34.6389978  29.8670014
 100.2819992  35.6959978  30.1630014  99.5394702  35.4495511  29.7832527
 101.9949992  36.0259978  30.5460014 102.2079992  35.1379978  30.2590014
 102.0599992  35.9909978  31.5000014 102.0329149  35.8998326  30.6357369
 105.5039992  21.6899978  29.6900014 104.8299992  21.0599978  29.9460014
 106.0679992  21.2059978  29.0870014 105.4880384  21.5383708  29.6435020
 110.6469992  19.7969978  29.8030014 111.2499992  20.3449978  29.3010014
 109.7769992  20.1159978  29.5620014 110.6119157  19.9150373  29.7017910
 112.3739992  20.9359978  28.1360014 112.9849992  20.4219978  27.6090014
 112.7559992  21.8129978  28.1590014 112.5093305  20.9842050  28.0669418
  97.8309992  20.3239978  27.5120014  97.0539992  20.0889978  27.0050014
  98.3609992  19.5269978  27.5210014  97.7963451  20.1841268  27.4438627
  96.6669992  20.1219978  23.3160014  97.1059992  20.7329978  22.7240014
  96.0329992  20.6599978  23.7900014  96.6413859  20.2784064  23.2990305
 102.4099992  20.2499978  27.3250014 103.2839992  20.6389978  27.2960014
 102.2739992  20.0349978  28.2480014 102.5111953  20.2741643  27.4457617
 107.9669992  20.2799978  28.9750014 108.0429992  20.3759978  28.0250014
 107.6919992  19.3729978  29.1030014 107.9401871  20.1704146  28.8623944
 109.3199992  20.3059978  24.6670014 108.6169992  20.9209978  24.4570014
 108.8749992  19.4689978  24.7980014 109.1636550  20.2769668  24.6559837
  96.5679992  36.0699978  24.2130014  95.8829992  36.0319978  23.5460014
  96.5719992  36.9829978  24.5010014  96.4747621  36.1881924  24.1606126
  98.5279992  22.0379978  21.7580014  99.0189992  21.4079978  21.2310014
  99.1509992  22.3339978  22.4210014  98.6795304  21.9917376  21.7754940
 103.5539992  22.3309978  24.2150014 103.7319992  21.6839978  24.8980014
 103.4999992  23.1649978  24.6820014 103.5710678  22.3551604  24.3716301
 105.4319992  37.2789978  22.6110014 106.2979992  37.6459978  22.4330014
 105.1859992  36.8399978  21.7970014 105.5172097  37.2698525  22.4766019
 112.1409992  36.8419978  25.2900014 111.9469992  36.0939978  24.7250014
 112.1019992  37.5999978  24.7070014 112.1091645  36.8420786  25.1338148
  97.7879992  20.8379978  37.0300014  97.4219992  20.0719978  37.4720014
  98.7009992  20.8669978  37.3160014  97.8613172  20.7370324  37.1291890
  99.7609992  20.1879978  38.5650014 100.6599992  19.9139978  38.3810014
  99.3749992  19.4459978  39.0300014  99.8317307  20.0502196  38.6027098
  98.3859992  36.9899978  21.2380014  98.1179992  37.2759978  22.1120014
  99.1569992  36.4439978  21.3910014  98.4535927  36.9552779  21.3781205
 108.1829992  19.5209978  38.7480014 108.2589992  19.0949978  39.6010014
 109.0759992  19.5339978  38.4050014 108.3142303  19.4643493  38.8185497
 111.3589992  35.5939978  37.4400014 110.5769992  35.4069978  36.9200014
 111.2869992  36.5229978  37.6570014 111.2421924  35.6940637  37.3981602
 125.7649992  29.4799978  27.4710014 125.8539992  30.4239978  27.3390014
 125.1269992  29.2049978  26.8130014 125.6909062  29.5719812  27.3639641
 124.6979992  28.7349978  30.8900014 124.6599992  28.0889978  31.5950014
 124.3759992  28.2679978  30.1190014 124.6492679  28.5834276  30.8822921
 117.0659992  28.3489978  32.4830014 117.1079992  27.7239978  33.2060014
 117.7689992  28.9729978  32.6650014 117.1667345  28.3477873  32.6065274
 128.4039992  31.6739978  29.1910014 127.9629992  30.9539978  29.6420014
 128.3909992  32.3949978  29.8210014 128.3419215  31.6729291  29.3378105
 117.9899992  32.7989978  31.0180014 117.6199992  31.9969978  30.6480014
 118.9309992  32.6309978  31.0640014 118.0665984  32.6664638  30.9735603
 114.5999992  26.4589978  26.4100014 114.1519992  27.3049978  26.3920014
 114.0389992  25.8799978  25.8950014 114.4628546  26.4963993  26.3378891
 115.3099992  28.6209978  28.5360014 115.5239992  27.8509978  29.0640014
 116.0479992  28.7109978  27.9330014 115.4390200  28.5278587  28.5267035
 125.5159992  36.7779978  29.4030014 126.1349992  36.1019978  29.1300014
 125.3069992  36.5599978  30.3120014 125.5726056  36.6558869  29.4883967
 123.0869992  31.1669978  31.2960014 123.3909992  30.4809978  30.7010014
 123.8089992  31.2859978  31.9140014 123.2261240  31.0892314  31.2980959
 131.7499992  22.7689978  32.1560014 131.7999992  23.3789978  32.8920014
 132.1759992  23.2299978  31.4330014 131.8144108  22.9147709  32.1590112
 126.2279992  25.5609978  31.6230014 126.3709992  24.6149978  31.6430014
 126.1219992  25.7679978  30.6950014 126.2332403  25.4594797  31.5002239
 119.3829992  23.6629978  28.8960014 119.4259992  24.5229978  28.4770014
 118.9249992  23.1109978  28.2620014 119.3269871  23.7059245  28.7530761
 127.1049992  23.7939978  27.2970014 127.7519992  23.4649978  27.9210014
 127.6149992  24.3109978  26.6740014 127.2624351  23.8189067  27.2981037
 116.0029992  26.0599978  29.6580014 116.6569992  25.5099978  30.0900014
 116.0269992  25.7859978  28.7410014 116.0957199  25.9477167  29.5931668
 121.1599992  27.6099978  28.8730014 121.7759992  27.0829978  29.3820014
 120.5729992  26.9699978  28.4690014 121.1650154  27.4513954  28.8880945
 132.1419992  24.2469978  34.3920014 131.4529992  24.9049978  34.2970014
 132.1569992  24.0489978  35.3290014 132.0497756  24.3102603  34.5055812
 118.1929992  22.5809978  32.9700014 117.9739992  23.1109978  32.2030014
 117.5249992  22.8069978  33.6170014 118.0726975  22.6840967  32.9525140
 125.5619992  32.0809978  26.5140014 125.2669992  31.7579978  25.6620014
 125.2379992  32.9809978  26.5550014 125.4778460  32.1584464  26.4029714
 120.7619992  30.2559978  33.2570014 120.0219992  30.8549978  33.3610014
 121.4759992  30.8099978  32.9420014 120.7573500  30.4127829  33.2286371
 128.8689992  23.0849978  29.2770014 128.6539992  22.3189978  29.8100014
 129.5249992  23.5569978  29.7900014 128.9282673  23.0440728  29.4191990
 117.7869992  24.4729978  30.9220014 118.4009992  25.1059978  31.2950014
 118.2989992  24.0009978  30.2660014 117.9401962  24.4957249  30.8842935
 119.1699992  32.2209978  34.0440014 119.1639992  33.0999978  33.6660014
 118.3159992  32.1369978  34.4690014 119.0537925  32.3299535  34.0496887
 115.2909992  31.8919978  24.8260014 115.0189992  32.1209978  23.9380014
 115.3359992  32.7289978  25.2870014 115.2598097  32.0366163  24.7666683
 128.9159992  33.5129978  31.5390014 127.9739992  33.5719978  31.7010014
 129.1919992  34.4189978  31.4020014 128.8245865  33.6435288  31.5426192
 129.2159992  21.7999978  32.9560014 128.4799992  22.4099978  32.9190014
 129.8999992  22.2149978  32.4300014 129.2075367  21.9397551  32.8798174
 122.2199992  19.8859978  30.4220014 122.1019992  18.9379978  30.3680014
 121.3649992  20.2189978  30.6950014 122.0882805  19.8012202  30.4515079
 127.1679992  35.2939978  28.1640014 127.5929992  34.5869978  27.6790014
 127.4849992  36.0959978  27.7470014 127.2690266  35.3055190  28.0412479
 128.3279992  33.1949978  26.6730014 128.0699992  32.5049978  26.0610014
 128.3989992  32.7519978  27.5180014 128.3023050  33.0406814  26.7035621
 130.0139992  31.7619978  35.1500014 130.1529992  31.1699978  34.4110014
 130.1809992  32.6349978  34.7940014 130.0556193  31.7988896  35.0006211
 124.4859992  28.7239978  24.9230014 123.7749992  29.2589978  24.5710014
 125.1769992  28.7789978  24.2630014 124.4820751  28.8046777  24.7855858
 124.5399992  27.1809978  21.9610014 125.2409992  27.2039978  22.6130014
 124.8419992  26.5529978  21.3050014 124.6768202  27.0992212  21.9615609
 131.8549992  28.1019978  33.2160014 131.2029992  28.7959978  33.3050014
 132.3209992  28.3119978  32.4060014 131.8285937  28.2255019  33.1187533
 127.8919992  28.9329978  25.8740014 127.1599992  29.1619978  26.4480014
 128.3389992  28.2199978  26.3290014 127.8523963  28.8678729  26.0139945
 127.7889992  27.1079978  34.9420014 127.8689992  27.8709978  35.5140014
 127.1879992  27.3869978  34.2520014 127.7186547  27.2502457  34.9270047
 119.5369992  29.5639978  27.7570014 119.2069992  29.1929978  26.9390014
 120.1259992  28.8929978  28.1040014 119.5713970  29.4226063  27.6919404
 120.9039992  32.9919978  30.4380014 120.8089992  32.4129978  29.6820014
 121.6329992  32.6209978  30.9340014 120.9896011  32.8625561  30.4016028
 119.9039992  28.3319978  31.3900014 120.4689992  28.4539978  30.6280014
 120.2229992  28.9699978  32.0290014 120.0244166  28.4348791  31.3720348
 126.2129992  33.8359978  32.1240014 125.9729992  34.4979978  32.7720014
 126.0149992  33.0009978  32.5490014 126.1533826  33.8138115  32.2701566
 120.7839992  32.7319978  36.1080014 120.4729992  33.5139978  36.5630014
 120.1339992  32.5789978  35.4220014 120.6535538  32.8184087  36.0775898
 126.7629992  28.0959978  23.5600014 127.3419992  28.2459978  24.3060014
 127.1769992  28.5659978  22.8360014 126.8983358  28.1800954  23.5643953
 117.7039992  28.9299978  35.3360014 117.7739992  29.5809978  36.0350014
 116.8129992  29.0329978  35.0010014 117.5931690  29.0329249  35.3863043
 124.4889992  34.8319978  26.9950014 124.9629992  35.1279978  27.7720014
 123.9259992  35.5709978  26.7620014 124.4777890  34.9723036  27.0698101
 119.0229992  34.8029978  36.8710014 119.0309992  34.6669978  35.9240014
 118.1069992  34.6859978  37.1230014 118.9002528  34.7685463  36.7753243
 130.4619992  19.8459978  23.3730014 129.5619992  19.9849978  23.6680014
 130.7139992  20.6769978  22.9710014 130.3728683  19.9774055  23.3590232
 118.5279992  28.6329978  25.3460014 118.2359992  29.4009978  24.8550014
 117.8529992  27.9739978  25.1830014 118.3968497  28.6489745  25.2568260
 131.6509992  34.2119978  21.7490014 131.7239992  35.1509978  21.9190014
 132.5559992  33.9069978  21.6930014 131.7834170  34.2993282  21.7647063
 114.6209992  30.9959978  34.1610014 114.1189992  30.9679978  33.3460014
 114.6259992  30.0909978  34.4710014 114.5529832  30.8697486  34.0914121
 114.3709992  33.7769978  31.0450014 115.3169992  33.6319978  31.0260014
 114.2579992  34.5609978  31.5820014 114.4853578  33.8631697  31.1150317
 132.5689992  34.4429978  36.7280014 132.5189992  33.4869978  36.6900014
 131.7419992  34.7099978  37.1290014 132.4503831  34.3484680  36.7770121
 123.5469992  34.0169978  35.6040014 123.6349992  34.8429978  36.0790014
 122.6839992  33.6869978  35.8530014 123.4423357  34.0855468  35.7027653
 123.9619992  37.7889978  25.4100014 123.8859992  37.6679978  24.4630014
 123.9939992  38.7379978  25.5280014 123.9559380  37.9007677  25.2965181
 117.6149992  36.5779978  27.1910014 117.7669992  36.2299978  28.0690014
 116.7639992  36.2209978  26.9350014 117.5208344  36.4820879  27.2766868
 127.0629992  36.9429978  22.4120014 127.4379992  36.1989978  21.9410014
 127.0679992  36.6729978  23.3300014 127.1150098  36.8046392  22.4716629
 126.7319992  36.8689978  25.1610014 125.7969992  36.9689978  25.3400014
 127.0119992  36.1589978  25.7400014 126.6419471  36.7867933  25.2636695
 129.7209992  25.9359978  37.2080014 129.3129992  26.4159978  36.4870014
 129.7609992  25.0299978  36.9000014 129.6706221  25.8792449  37.0678267
 116.8699992  32.3199978  35.2040014 117.0859992  31.9579978  36.0640014
 116.0139992  31.9449978  34.9950014 116.7838810  32.2198837  35.2932680
 119.4879992  20.7899978  31.2000014 118.6269992  20.7029978  30.7920014
 119.4659992  21.6459978  31.6280014 119.3670491  20.8938003  31.2019582
 124.1509992  20.5119978  34.5750014 124.5709992  20.0969978  35.3280014
 123.2179992  20.3329978  34.6920014 124.0823736  20.4309910  34.6938968
 127.4779992  24.2669978  35.4280014 126.9639992  24.1419978  36.2260014
 127.3219992  25.1799978  35.1840014 127.3866967  24.3732123  35.5040937
 128.2399992  29.1279978  21.1890014 128.2819992  28.9059978  20.2590014
 129.0889992  29.5269978  21.3790014 128.3605253  29.1515498  21.0873822
 123.8129992  23.0039978  21.8600014 123.5589992  23.0229978  22.7820014
 123.5559992  22.1329978  21.5580014 123.7434508  22.8888280  21.9454803
 119.5789992  25.7549978  32.2950014 118.9379992  25.7149978  33.0040014
 119.6169992  26.6819978  32.0570014 119.4963010  25.8747668  32.3599946
 119.5759992  25.9759978  27.2070014 118.6839992  25.6359978  27.1480014
 120.0269992  25.5989978  26.4510014 119.5147642  25.8784910  27.0967726
 125.1119992  26.3919978  26.0240014 124.7029992  27.2069978  25.7320014
 125.8319992  26.2519978  25.4100014 125.1534439  26.4845372  25.9010115
 124.2139992  26.5679978  37.5120014 123.6509992  25.8629978  37.8330014
 125.0399992  26.4469978  37.9800014 124.2486674  26.4552165  37.6191751
 126.1169992  25.8379978  28.8380014 125.9209992  26.4439978  28.1230014
 126.2979992  25.0049978  28.4040014 126.1146584  25.8082513  28.6814212
 117.3289992  26.0759978  34.1620014 117.2909992  26.4759978  35.0310014
 116.8389992  25.2589978  34.2520014 117.2575330  26.0202674  34.2931289
 120.6949992  23.4499978  20.9610014 120.2639992  23.0049978  21.6900014
 119.9769992  23.8209978  20.4480014 120.5389176  23.4392051  20.9914930
 113.9379992  23.1919978  28.0130014 114.5679992  23.1629978  28.7320014
 114.3869992  22.7669978  27.2820014 114.0850835  23.1305660  28.0127659
 115.2119992  23.9379978  23.4370014 115.6859992  24.5289978  22.8520014
 114.4939992  24.4679978  23.7840014 115.1798640  24.0905511  23.4037969
 125.3809992  27.4759978  33.5090014 125.7039992  26.8449978  32.8660014
 124.9399992  26.9419978  34.1700014 125.3656379  27.3173468  33.5102582
 122.1579992  23.4039978  28.2930014 121.2469992  23.4609978  28.5820014
 122.6629992  23.3439978  29.1040014 122.1016873  23.4036826  28.4421207
 116.9859992  25.0329978  27.1200014 116.0969992  25.1319978  26.7800014
 117.2829992  24.1909978  26.7740014 116.9044177  24.9327687  27.0266940
 120.6389992  25.0329978  24.7770014 121.5709992  25.1619978  24.9550014
 120.4239992  25.7019978  24.1270014 120.7374472  25.1410806  24.7134891
 126.5629992  22.6389978  31.5580014 125.8859992  22.7699978  32.2210014
 126.0779992  22.4839978  30.7470014 126.4047405  22.6359947  31.5392170
 119.3129992  26.2269978  22.3430014 118.7709992  25.8479978  21.6520014
 120.1469992  26.4219978  21.9150014 119.3514390  26.2014079  22.1904392
 129.8509992  38.3099978  37.8340014 130.0499992  38.7339978  37.0000014
 130.5059992  38.6539978  38.4410014 129.9668522  38.4146301  37.8017852
 117.4489992  30.7839978  37.4420014 118.1809992  31.0389978  38.0040014
 116.6679992  30.9889978  37.9580014 117.4436526  30.8465450  37.5885176
 123.4779992  26.1909978  30.1800014 124.0419992  25.6449978  29.6330014
 123.3299992  25.6699978  30.9690014 123.5353037  26.0456787  30.2117229
 118.4799992  22.3279978  26.5990014 118.1629992  21.4249978  26.5630014
 119.2609992  22.3299978  26.0460014 118.5422431  22.2047797  26.5193102
 122.1039992  24.5799978  32.5940014 121.2689992  25.0339978  32.7050014
 122.6279992  24.8559978  33.3460014 122.0606072  24.6793948  32.7108136
 122.6489992  30.7929978  24.2790014 121.9039992  30.2849978  23.9570014
 122.5139992  30.8419978  25.2250014 122.5288963  30.7301731  24.3628826
 129.7989992  29.9259978  33.0660014 130.4399992  30.3819978  32.5220014
 128.9679992  30.0389978  32.6030014 129.7745287  30.0036921  32.9289887
 126.5459992  23.6069978  22.4780014 125.6079992  23.7179978  22.3270014
 126.8439992  24.4629978  22.7850014 126.4576318  23.7380158  22.4988145
 124.1679992  30.9769978  35.5160014 123.8219992  30.5949978  36.3230014
 123.9679992  31.9099978  35.5870014 124.0935987  31.0509002  35.6360461
 127.2649992  25.4739978  24.1390014 128.1569992  25.3359978  24.4580014
 127.3209992  26.2649978  23.6020014 127.3947325  25.5619918  24.1101217
 117.7729992  30.0879978  30.0490014 118.5179992  30.0849978  29.4470014
 117.8509992  29.2639978  30.5300014 117.8853365  29.9762384  30.0317430
 124.7739992  32.2509978  23.3040014 124.4789992  33.0779978  23.6860014
 124.0709992  31.6319978  23.5010014 124.6386379  32.2804171  23.3828654
 114.7809992  28.5479978  35.3640014 115.0039992  28.1299978  36.1950014
 114.1789992  27.9359978  34.9410014 114.7301513  28.4079606  35.4206740
 121.7979992  28.0649978  37.5770014 121.5019992  27.8999978  36.6810014
 122.7289992  27.8449978  37.5660014 121.8834401  28.0126879  37.4530206
 126.4179992  33.4389978  35.4660014 125.5179992  33.6219978  35.1990014
 126.4519992  33.6979978  36.3870014 126.2993748  33.4990554  35.5539164
 132.1499992  25.6829978  23.8340014 131.5949992  25.2869978  23.1610014
 132.2499992  26.5939978  23.5560014 132.0876816  25.7519505  23.7045033
 132.1129992  31.4839978  36.6710014 131.2619992  31.7219978  36.3030014
 132.7029992  31.4669978  35.9180014 132.0763812  31.5142524  36.5188453
 130.4449992  34.4689978  24.2990014 130.0719992  33.6439978  24.6080014
 130.7219992  34.2859978  23.4010014 130.4313463  34.3312569  24.2199525
 127.6049992  29.2769978  31.3200014 126.6769992  29.0459978  31.2930014
 128.0559992  28.4999978  30.9900014 127.5388165  29.1402774  31.2716790
 120.1479992  33.6059978  27.4530014 120.6759992  34.3789978  27.2530014
 119.2679992  33.8299978  27.1510014 120.1013435  33.7422700  27.3847310
 115.9029992  28.4679978  22.0400014 116.5189992  29.0949978  22.4200014
 115.0409992  28.7839978  22.3120014 115.8707678  28.5964412  22.1287209
 121.5759992  31.2689978  27.0290014 121.3349992  32.1939978  27.0710014
 120.8349992  30.8099978  27.4260014 121.4429206  31.3335915  27.0883769
 122.0899992  35.4179978  33.3440014 122.4529992  36.2719978  33.1110014
 122.6219992  35.1259978  34.0850014 122.2115141  35.4953895  33.4122097
 120.2589992  36.2899978  26.5750014 119.3089992  36.3959978  26.6260014
 120.6109992  37.1109978  26.9190014 120.1765472  36.4154923  26.6284852
 125.6339992  31.5169978  33.0450014 125.2089992  31.2889978  33.8710014
 126.2149992  30.7779978  32.8630014 125.6543395  31.3859545  33.1334414
 127.8369992  32.4459978  22.1190014 128.1909992  32.0659978  22.9230014
 126.8889992  32.3519978  22.2060014 127.7572298  32.3812452  22.2408687
 128.2929992  36.0689978  35.5140014 127.6909992  35.5129978  35.0190014
 128.5739992  36.7359978  34.8880014 128.2485757  36.0830744  35.3615675
 132.3409992  36.9249978  22.3200014 133.0849992  37.5109978  22.1800014
 131.6469992  37.4939978  22.6530014 132.3489809  37.0820818  22.3458590
 116.4149992  23.3019978  34.9220014 115.5229992  23.6399978  34.8540014
 116.3169992  22.4459978  35.3400014 116.2794475  23.2326543  34.9691704
 128.7029992  31.1179978  24.3460014 128.4259992  30.3899978  24.9020014
 129.6309992  31.2369978  24.5510014 128.7904499  31.0344213  24.4498044
 116.0669992  35.1059978  33.3570014 116.2839992  34.1739978  33.3260014
 116.3129992  35.3809978  34.2400014 116.1299809  35.0155686  33.4721691
 121.9279992  33.5579978  20.5660014 122.1669992  32.8089978  20.0190014
 121.6589992  33.1699978  21.3990014 121.9243233  33.4031853  20.6037809
 120.8649992  33.1279978  23.0220014 121.0119992  32.6079978  23.8120014
 120.8619992  34.0349978  23.3290014 120.8847102  33.1793953  23.1715925
 117.3179992  30.3799978  23.5330014 116.6319992  30.7329978  24.1000014
 117.8409992  31.1429978  23.2860014 117.2948402  30.5313901  23.5771801
 125.1499992  23.0429978  33.8120014 125.8489992  23.1169978  34.4620014
 124.7689992  22.1779978  33.9660014 125.1942097  22.9362389  33.9217997
 125.9339992  22.6949978  24.9090014 126.1539992  23.1659978  24.1050014
 126.4929992  23.0889978  25.5790014 126.0396731  22.8127287  24.8895033
 123.6029992  34.8249978  23.7720014 122.7859992  35.3219978  23.8240014
 124.1319992  35.3009978  23.1310014 123.5628125  34.9571989  23.6925306
 123.1339992  24.4229978  25.7440014 123.9459992  24.9269978  25.7900014
 122.8899992  24.2779978  26.6580014 123.2121467  24.4723749  25.8738575
 123.6699992  25.4089978  34.9280014 123.7889992  25.9829978  35.6850014
 124.3249992  24.7209978  35.0430014 123.7748684  25.3945194  35.0471674
 124.0179992  21.5039978  26.6820014 123.6709992  22.1209978  27.3260014
 124.6769992  22.0049978  26.2000014 124.0595090  21.6561575  26.7050681
 120.9409992  35.8689978  23.7530014 121.1019992  36.6689978  23.2530014
 120.7439992  36.1759978  24.6380014 120.9363906  36.0198678  23.8042333
 119.6759992  22.5669978  23.3690014 119.5919992  23.4549978  23.7160014
 120.5659992  22.3019978  23.6010014 119.7848163  22.6527179  23.4478596
 129.8739992  23.3159978  35.7630014 128.9579992  23.5779978  35.6760014
 130.2099992  23.3129978  34.8670014 129.7938499  23.3515163  35.6298766
 128.4769992  27.0659978  29.8590014 127.6789992  26.6509978  29.5310014
 128.9219992  26.3759978  30.3500014 128.4279684  26.9158628  29.8805227
 117.9339992  32.9939978  22.4290014 118.5259992  33.6939978  22.7060014
 118.3929992  32.5609978  21.7100014 118.0771652  33.0312675  22.3696533
 116.2499992  25.6589978  21.5450014 116.2049992  26.5979978  21.7240014
 115.3619992  25.4229978  21.2760014 116.1238166  25.7556687  21.5331524
 129.5629992  36.3219978  31.4810014 129.4069992  37.0009978  30.8240014
 130.4959992  36.3939978  31.6840014 129.6677387  36.4246390  31.4185342
 117.0579992  20.4399978  30.2190014 116.8289992  20.4989978  29.2910014
 116.6159992  19.6489978  30.5250014 116.9668801  20.3410540  30.1334729
 115.9889992  34.3809978  26.3790014 115.1559992  34.8529978  26.4060014
 116.5339992  34.8909978  25.7800014 115.9487857  34.5144791  26.3017142
 115.2769992  36.9929978  37.7090014 115.8169992  36.7769978  38.4690014
 114.7959992  36.1879978  37.5190014 115.2859219  36.8545156  37.7874282
 119.8739992  35.9129978  39.3290014 120.6419992  35.4539978  39.6700014
 119.8529992  35.6869978  38.3990014 119.9762135  35.8196668  39.2499491
 123.9659992  35.4209978  20.7050014 123.3219992  34.7899978  21.0260014
 124.7279992  34.8899978  20.4730014 123.9808058  35.2627902  20.7176038
 126.4509992  34.2929978  38.0580014 126.0999992  33.4359978  38.3020014
 127.1769992  34.4349978  38.6650014 126.5011895  34.1951351  38.1733770
 128.5709992  35.2379978  20.9380014 128.8539992  34.4429978  21.3910014
 129.3099992  35.4709978  20.3770014 128.7097096  35.1607049  20.9241104
 115.1839992  30.8039978  38.6630014 115.3279992  29.9019978  38.3770014
 114.4119992  31.0899978  38.1760014 115.0992733  30.7191798  38.5579532
 119.5249992  31.1469978  20.7960014 119.5899992  30.3529978  21.3260014
 120.1779992  31.0289978  20.1060014 119.6221605  31.0223430  20.7752997
 121.8389992  30.7729978  38.0960014 121.5109992  31.0439978  37.2390014
 121.9909992  29.8319978  38.0080014 121.8146412  30.6829046  37.9667822
 124.8779992  32.1939978  20.5320014 124.6089992  32.3749978  21.4320014
 124.6709992  31.2689978  20.4000014 124.8131191  32.0937119  20.6375524
 127.5739992  30.6889978  35.4790014 128.3189992  31.2779978  35.3600014
 126.8169992  31.2709978  35.5430014 127.5735470  30.8482128  35.4713799
 116.0169992  28.0039978  38.0830014 116.4249992  27.1469978  37.9620014
 115.7559992  28.0179978  39.0040014 116.0376016  27.8885119  38.1909192
 120.6749992  29.1199978  23.1020014 120.2149992  28.6359978  23.7870014
 120.9299992  28.4509978  22.4660014 120.6464856  28.9633669  23.1098397
 119.9639992  27.0129978  35.4580014 119.3449992  27.6869978  35.7380014
 120.3079992  27.3339978  34.6240014 119.9257123  27.1486887  35.3836388
 121.7459992  27.3629978  21.3640014 121.5649992  27.2079978  20.4370014
 122.6959992  27.4709978  21.4090014 121.8496566  27.3563669  21.2430929
 124.9829992  29.4839978  38.7350014 125.9369992  29.5679978  38.7080014
 124.8229992  28.7719978  39.3550014 125.0917182  29.3992842  38.8150733
 131.1359992  29.7169978  20.8100014 130.8619992  29.2929978  19.9970014
 131.1749992  30.6489978  20.5930014 131.1037716  29.7848827  20.6694286
 120.3029992  24.3679978  36.5400014 120.4529992  23.6389978  35.9380014
 120.3049992  25.1449978  35.9810014 120.3237967  24.3732708  36.3820541
 120.7159992  22.7369978  34.0330014 121.2509992  23.1889978  33.3810014
 119.8629992  22.6289978  33.6100014 120.6740374  22.7842665  33.8866710
 122.2969992  28.1769978  34.2720014 123.0479992  28.0209978  33.6990014
 121.9579992  29.0289978  33.9970014 122.3539587  28.2708138  34.1564078
 126.7129992  25.9919978  39.3010014 126.9049992  25.0609978  39.1890014
 127.5709992  26.4169978  39.2900014 126.8552182  25.9220070  39.2841862
 128.0299992  28.7809978  37.3780014 127.7479992  29.4899978  36.8000014
 128.9719992  28.7079978  37.2270014 128.1187921  28.8682193  37.2784225
 118.7819992  25.5659978  38.4510014 118.0139992  25.0329978  38.2410014
 119.4599992  25.2559978  37.8520014 118.7687235  25.4511754  38.3412413
 121.5209992  20.1939978  34.4640014 121.4229992  21.1399978  34.3590014
 120.7789992  19.8209978  33.9880014 121.4072534  20.2731773  34.3852600
 122.7849992  24.5149978  38.0280014 122.5499992  24.2959978  38.9290014
 122.0019992  24.3079978  37.5180014 122.6469095  24.4569892  38.0825353
 125.5009992  23.6429978  37.1030014 124.5529992  23.6749978  37.2350014
 125.8129992  23.0169978  37.7570014 125.4135293  23.5627923  37.2094148
 127.1349992  22.2769978  39.1080014 127.0379992  21.3249978  39.1030014
 126.8129992  22.5449978  39.9690014 127.0782468  22.1830884  39.2236210
 116.9619992  23.4859978  38.1560014 117.1739992  22.7799978  37.5460014
 116.8509992  23.0489978  39.0000014 116.9760269  23.3301921  38.1865873
 121.7429992  19.4879978  37.1350014 122.4549992  18.8479978  37.1210014
 121.6419992  19.7539978  36.2220014 121.8267387  19.4364330  37.0095563
 122.0969992  21.1699978  39.1890014 121.9649992  20.6949978  38.3690014
 121.4969992  21.9149978  39.1340014 121.9979070  21.2055789  39.0693251
 121.6429992  38.0529978  22.3650014 122.5759992  38.2109978  22.5090014
 121.3789992  38.7289978  21.7400014 121.7349911  38.1659373  22.3002722
 115.2109992  32.6899978  21.8480014 116.1249992  32.7689978  22.1210014
 115.2189992  32.0029978  21.1820014 115.3370655  32.6079205  21.7952917
 113.8599992  38.0829978  26.9250014 113.2129992  37.6209978  26.3930014
 114.2149992  37.4109978  27.5080014 113.8193741  37.9289774  26.9309175
 114.7299992  36.1629978  28.7300014 114.3959992  35.2829978  28.9020014
 114.9529992  36.5089978  29.5950014 114.7143721  36.0891938  28.8704168
 132.2789992  36.9729978  31.7110014 132.2569992  37.1579978  32.6500014
 132.9689992  37.5409978  31.3700014 132.3693439  37.0751887  31.7934791
 131.8419992  36.5399978  34.6320014 131.3549992  35.8049978  34.2610014
 132.3909992  36.1459978  35.3100014 131.8495247  36.3861057  34.6728461
 130.2929992  32.3299978  39.2710014 129.4269992  32.2249978  39.6650014
 130.6689992  33.0879978  39.7170014 130.2253401  32.4181708  39.3852620
 131.5939992  30.5859978  24.7850014 132.4439992  31.0069978  24.9120014
 131.5989992  29.8459978  25.3920014 131.7111143  30.5436094  24.8844750
 131.9879992  28.6399978  26.6080014 131.2619992  28.1599978  27.0060014
 132.5699992  28.8449978  27.3410014 131.9672730  28.6020184  26.7614149
 131.7469992  31.4249978  31.5560014 132.5809992  31.0469978  31.2750014
 131.8589992  32.3679978  31.4370014 131.8761917  31.5007943  31.5014861
 130.2339992  34.3029978  33.8630014 129.5859992  34.6279978  34.4880014
 129.7159992  33.8619978  33.1890014 130.0754196  34.2878651  33.8574152
 132.2569992  28.5409978  22.9990014 131.7349992  28.8969978  22.2810014
 132.2239992  29.2159978  23.6780014 132.1810129  28.6809598  22.9923355
 130.6059992  25.7799978  21.5500014 130.7019992  26.4469978  20.8700014
 130.4659992  24.9649978  21.0690014 130.6002040  25.7610671  21.3918378
 129.7749992  27.1609978  27.1710014 129.6249992  26.2159978  27.1510014
 129.4209992  27.4419978  28.0150014 129.7066351  27.0696644  27.2823220
 114.8099992  29.2389978  31.1820014 114.9949992  29.1569978  30.2460014
 115.6599992  29.1149978  31.6050014 114.9500928  29.2110463  31.1112893
 130.6309992  29.1309978  36.8100014 131.2139992  28.3959978  37.0020014
 131.1949992  29.9029978  36.8570014 130.7869781  29.1348145  36.8426164
 132.1279992  27.0339978  37.4950014 131.2649992  26.6549978  37.3290014
 132.7319992  26.2949978  37.4200014 132.0916085  26.8823223  37.4621695
 129.8529992  23.1879978  20.6680014 130.4639992  22.8169978  21.3050014
 129.0159992  22.7669978  20.8640014 129.8234947  23.0802756  20.7817252
 129.4859992  24.7429978  25.6340014 129.7649992  23.8359978  25.7580014
 130.2449992  25.1769978  25.2450014 129.6268619  24.6774502  25.5983795
 130.0969992  25.3249978  31.0700014 131.0299992  25.5369978  31.0350014
 129.8619992  25.4259978  31.9920014 130.1929517  25.3676833  31.1899130
 130.1269992  26.0619978  33.8460014 129.2839992  26.3299978  34.2120014
 130.5689992  26.8839978  33.6350014 130.0714138  26.2098273  33.8675518
 114.4079992  24.5089978  37.3220014 115.3269992  24.3869978  37.5590014
 113.9579992  23.7589978  37.7120014 114.4730087  24.3909608  37.4071410
 132.4099992  20.0419978  39.1990014 132.7589992  19.3879978  38.5940014
 132.5569992  20.8789978  38.7590014 132.4776824  20.0656024  39.0566304
 130.0989992  22.0059978  25.6820014 130.2809992  21.5569978  26.5070014
 129.4989992  21.4219978  25.2180014 130.0428187  21.8655552  25.7322739
 115.6289992  22.8219978  30.2140014 116.0739992  22.0299978  30.5160014
 116.0949992  23.5379978  30.6440014 115.7529718  22.8104534  30.3135265
 113.9329992  25.8209978  31.2830014 114.4249992  25.5999978  30.4920014
 114.2949992  26.6609978  31.5640014 114.0492923  25.9043468  31.2127407
 131.9289992  22.1509978  37.5480014 131.0119992  22.4219978  37.5130014
 132.0519992  21.6159978  36.7640014 131.8199672  22.1157885  37.4371862
 131.9659992  22.0739978  22.2100014 132.3779992  21.3529978  21.7350014
 132.6469992  22.7429978  22.2680014 132.1145536  22.0657766  22.1528024
 114.2469992  22.0789978  25.3370014 113.3219992  22.2869978  25.2080014
 114.7009992  22.5629978  24.6470014 114.1816298  22.1729299  25.2260451
 129.0169992  37.0629978  27.2830014 129.6699992  36.7149978  26.6750014
 129.5279992  37.5509978  27.9290014 129.1752777  37.0813815  27.2872047
 114.2099992  20.8169978  33.6810014 113.5449992  20.5709978  34.3240014
 113.7669992  21.4389978  33.1040014 114.0591168  20.8674214  33.6909848
 116.4019992  33.9919978  37.8260014 115.5809992  34.1669978  37.3650014
 116.1499992  33.9189978  38.7460014 116.2555594  34.0060717  37.8873611
 119.3559992  34.9659978  34.0840014 118.9319992  35.7759978  33.8020014
 120.2609992  35.0519978  33.7820014 119.4202138  35.0884160  34.0046415
 123.6679992  36.3649978  37.0440014 123.8519992  36.0319978  37.9220014
 124.5139992  36.6749978  36.7220014 123.8076484  36.3612979  37.1207617
 126.0129992  37.6509978  36.2880014 126.6899992  37.0179978  36.0480014
 126.3339992  38.0519978  37.0950014 126.1491323  37.6185691  36.3643158
 130.9299992  20.2409978  35.3670014 130.1169992  20.5659978  34.9800014
 131.1629992  19.4799978  34.8340014 130.8501347  20.1826880  35.2419841
 116.7579992  38.2229978  34.1320014 116.0379992  38.6629978  33.6810014
 116.3929992  37.9719978  34.9800014 116.6099643  38.2493369  34.1849129
 119.2249992  37.8229978  33.1620014 118.3609992  37.8949978  33.5660014
 119.1699992  38.3699978  32.3780014 119.0991942  37.9067849  33.1114000
 123.9359992  37.7109978  32.3370014 123.4789992  38.2399978  31.6830014
 124.0989992  38.3139978  33.0620014 123.8954960  37.8649280  32.3455274
 126.2639992  36.5889978  33.2820014 125.3589992  36.7539978  33.0160014
 126.6919992  37.4419978  33.2160014 126.1981537  36.7269134  33.2367095
 128.8679992  38.1589978  33.5770014 128.6859992  39.0749978  33.3660014
 129.0449992  37.7479978  32.7300014 128.8670030  38.2288273  33.4337166
 116.1729992  36.8459978  31.0420014 116.1549992  36.4199978  31.8990014
 116.9779992  36.5269978  30.6330014 116.2792875  36.7446435  31.1039515
 118.3139992  35.5559978  29.6970014 118.0949992  34.6389978  29.8670014
 119.1379992  35.6959978  30.1630014 118.3954702  35.4495511  29.7832527
 120.8509992  36.0259978  30.5460014 121.0639992  35.1379978  30.2590014
 120.9159992  35.9909978  31.5000014 120.8889149  35.8998326  30.6357369
 124.3599992  21.6899978  29.6900014 123.6859992  21.0599978  29.9460014
 124.9239992  21.2059978  29.0870014 124.3440384  21.5383708  29.6435020
 129.5029992  19.7969978  29.8030014 130.1059992  20.3449978  29.3010014
 128.6329992  20.1159978  29.5620014 129.4679157  19.9150373  29.7017910
 131.2299992  20.9359978  28.1360014 131.8409992  20.4219978  27.6090014
 131.6119992  21.8129978  28.1590014 131.3653305  20.9842050  28.0669418
 116.6869992  20.3239978  27.5120014 115.9099992  20.0889978  27.0050014
 117.2169992  19.5269978  27.5210014 116.6523451  20.1841268  27.4438627
 115.5229992  20.1219978  23.3160014 115.9619992  20.7329978  22.7240014
 114.8889992  20.6599978  23.7900014 115.4973859  20.2784064  23.2990305
 121.2659992  20.2499978  27.3250014 122.1399992  20.6389978  27.2960014
 121.1299992  20.0349978  28.2480014 121.3671953  20.2741643  27.4457617
 126.8229992  20.2799978  28.9750014 126.8989992  20.3759978  28.0250014
 126.5479992  19.3729978  29.1030014 126.7961871  20.1704146  28.8623944
 128.1759992  20.3059978  24.6670014 127.4729992  20.9209978  24.4570014
 127.7309992  19.4689978  24.7980014 128.0196550  20.2769668  24.6559837
 115.4239992  36.0699978  24.2130014 114.7389992  36.0319978  23.5460014
 115.4279992  36.9829978  24.5010014 115.3307621  36.1881924  24.1606126
 117.3839992  22.0379978  21.7580014 117.8749992  21.4079978  21.2310014
 118.0069992  22.3339978  22.4210014 117.5355304  21.9917376  21.7754940
 122.4099992  22.3309978  24.2150014 122.5879992  21.6839978  24.8980014
 122.3559992  23.1649978  24.6820014 122.4270678  22.3551604  24.3716301
 124.2879992  37.2789978  22.6110014 125.1539992  37.6459978  22.4330014
 124.0419992  36.8399978  21.7970014 124.3732097  37.2698525  22.4766019
 130.9969992  36.8419978  25.2900014 130.8029992  36.0939978  24.7250014
 130.9579992  37.5999978  24.7070014 130.9651645  36.8420786  25.1338148
 116.6439992  20.8379978  37.0300014 116.2779992  20.0719978  37.4720014
 117.5569992  20.8669978  37.3160014 116.7173172  20.7370324  37.1291890
 118.6169992  20.1879978  38.5650014 119.5159992  19.9139978  38.3810014
 118.2309992  19.4459978  39.0300014 118.6877307  20.0502196  38.6027098
 117.2419992  36.9899978  21.2380014 116.9739992  37.2759978  22.1120014
 118.0129992  36.4439978  21.3910014 117.3095926  36.9552779  21.3781205
 127.0389992  19.5209978  38.7480014 127.1149992  19.0949978  39.6010014
 127.9319992  19.5339978  38.4050014 127.1702303  19.4643493  38.8185497
 130.2149992  35.5939978  37.4400014 129.4329992  35.4069978  36.9200014
 130.1429992  36.5229978  37.6570014 130.0981924  35.6940637  37.3981602
 144.6209992  29.4799978  27.4710014 144.7099992  30.4239978  27.3390014
 143.9829992  29.2049978  26.8130014 144.5469062  29.5719812  27.3639641
 143.5539992  28.7349978  30.8900014 143.5159992  28.0889978  31.5950014
 143.2319992  28.2679978  30.1190014 143.5052679  28.5834276  30.8822921
 135.9219992  28.3489978  32.4830014 135.9639992  27.7239978  33.2060014
 136.6249992  28.9729978  32.6650014 136.0227345  28.3477873  32.6065274
 136.8459992  32.7989978  31.0180014 136.4759992  31.9969978  30.6480014
 137.7869992  32.6309978  31.0640014 136.9225984  32.6664638  30.9735603
 133.4559992  26.4589978  26.4100014 133.0079992  27.3049978  26.3920014
 132.8949992  25.8799978  25.8950014 133.3188546  26.4963993  26.3378891
 134.1659992  28.6209978  28.5360014 134.3799992  27.8509978  29.0640014
 134.9039992  28.7109978  27.9330014 134.2950200  28.5278587  28.5267035
 144.3719992  36.7779978  29.4030014 144.9909992  36.1019978  29.1300014
 144.1629992  36.5599978  30.3120014 144.4286056  36.6558869  29.4883967
 141.9429992  31.1669978  31.2960014 142.2469992  30.4809978  30.7010014
 142.6649992  31.2859978  31.9140014 142.0821240  31.0892314  31.2980959
 145.0839992  25.5609978  31.6230014 145.2269992  24.6149978  31.6430014
 144.9779992  25.7679978  30.6950014 145.0892403  25.4594797  31.5002239
 138.2389992  23.6629978  28.8960014 138.2819992  24.5229978  28.4770014
 137.7809992  23.1109978  28.2620014 138.1829871  23.7059245  28.7530761
 134.8589992  26.0599978  29.6580014 135.5129992  25.5099978  30.0900014
 134.8829992  25.7859978  28.7410014 134.9517199  25.9477167  29.5931668
 140.0159992  27.6099978  28.8730014 140.6319992  27.0829978  29.3820014
 139.4289992  26.9699978  28.4690014 140.0210154  27.4513954  28.8880945
 137.0489992  22.5809978  32.9700014 136.8299992  23.1109978  32.2030014
 136.3809992  22.8069978  33.6170014 136.9286975  22.6840967  32.9525140
 144.4179992  32.0809978  26.5140014 144.1229992  31.7579978  25.6620014
 144.0939992  32.9809978  26.5550014 144.3338460  32.1584464  26.4029714
 139.6179992  30.2559978  33.2570014 138.8779992  30.8549978  33.3610014
 140.3319992  30.8099978  32.9420014 139.6133500  30.4127829  33.2286371
 136.6429992  24.4729978  30.9220014 137.2569992  25.1059978  31.2950014
 137.1549992  24.0009978  30.2660014 136.7961962  24.4957249  30.8842935
 138.0259992  32.2209978  34.0440014 138.0199992  33.0999978  33.6660014
 137.1719992  32.1369978  34.4690014 137.9097925  32.3299535  34.0496887
 134.1469992  31.8919978  24.8260014 133.8749992  32.1209978  23.9380014
 134.1919992  32.7289978  25.2870014 134.1158097  32.0366163  24.7666683
 141.0759992  19.8859978  30.4220014 140.9579992  18.9379978  30.3680014
 140.2209992  20.2189978  30.6950014 140.9442805  19.8012202  30.4515079
 143.3419992  28.7239978  24.9230014 142.6309992  29.2589978  24.5710014
 144.0329992  28.7789978  24.2630014 143.3380751  28.8046777  24.7855858
 143.3959992  27.1809978  21.9610014 144.0969992  27.2039978  22.6130014
 143.6979992  26.5529978  21.3050014 143.5328202  27.0992212  21.9615609
 138.3929992  29.5639978  27.7570014 138.0629992  29.1929978  26.9390014
 138.9819992  28.8929978  28.1040014 138.4273970  29.4226063  27.6919404
 139.7599992  32.9919978  30.4380014 139.6649992  32.4129978  29.6820014
 140.4889992  32.6209978  30.9340014 139.8456011  32.8625561  30.4016028
 138.7599992  28.3319978  31.3900014 139.3249992  28.4539978  30.6280014
 139.0789992  28.9699978  32.0290014 138.8804166  28.4348791  31.3720348
 145.0689992  33.8359978  32.1240014 144.8289992  34.4979978  32.7720014
 144.8709992  33.0009978  32.5490014 145.0093826  33.8138115  32.2701566
 139.6399992  32.7319978  36.1080014 139.3289992  33.5139978  36.5630014
 138.9899992  32.5789978  35.4220014 139.5095538  32.8184087  36.0775898
 136.5599992  28.9299978  35.3360014 136.6299992  29.5809978  36.0350014
 135.6689992  29.0329978  35.0010014 136.4491690  29.0329249  35.3863043
 143.3449992  34.8319978  26.9950014 143.8189992  35.1279978  27.7720014
 142.7819992  35.5709978  26.7620014 143.3337890  34.9723036  27.0698101
 137.8789992  34.8029978  36.8710014 137.8869992  34.6669978  35.9240014
 136.9629992  34.6859978  37.1230014 137.7562528  34.7685463  36.7753243
 137.3839992  28.6329978  25.3460014 137.0919992  29.4009978  24.8550014
 136.7089992  27.9739978  25.1830014 137.2528497  28.6489745  25.2568260
 133.4769992  30.9959978  34.1610014 132.9749992  30.9679978  33.3460014
 133.4819992  30.0909978  34.4710014 133.4089832  30.8697486  34.0914121
 133.2269992  33.7769978  31.0450014 134.1729992  33.6319978  31.0260014
 133.1139992  34.5609978  31.5820014 133.3413578  33.8631697  31.1150317
 142.4029992  34.0169978  35.6040014 142.4909992  34.8429978  36.0790014
 141.5399992  33.6869978  35.8530014 142.2983357  34.0855468  35.7027653
 142.8179992  37.7889978  25.4100014 142.7419992  37.6679978  24.4630014
 142.8499992  38.7379978  25.5280014 142.8119380  37.9007677  25.2965181
 136.4709992  36.5779978  27.1910014 136.6229992  36.2299978  28.0690014
 135.6199992  36.2209978  26.9350014 136.3768344  36.4820879  27.2766868
 135.7259992  32.3199978  35.2040014 135.9419992  31.9579978  36.0640014
 134.8699992  31.9449978  34.9950014 135.6398810  32.2198837  35.2932680
 138.3439992  20.7899978  31.2000014 137.4829992  20.7029978  30.7920014
 138.3219992  21.6459978  31.6280014 138.2230491  20.8938003  31.2019582
 143.0069992  20.5119978  34.5750014 143.4269992  20.0969978  35.3280014
 142.0739992  20.3329978  34.6920014 142.9383736  20.4309910  34.6938968
 142.6689992  23.0039978  21.8600014 142.4149992  23.0229978  22.7820014
 142.4119992  22.1329978  21.5580014 142.5994508  22.8888280  21.9454803
 138.4349992  25.7549978  32.2950014 137.7939992  25.7149978  33.0040014
 138.4729992  26.6819978  32.0570014 138.3523010  25.8747668  32.3599946
 138.4319992  25.9759978  27.2070014 137.5399992  25.6359978  27.1480014
 138.8829992  25.5989978  26.4510014 138.3707642  25.8784910  27.0967726
 143.9679992  26.3919978  26.0240014 143.5589992  27.2069978  25.7320014
 144.6879992  26.2519978  25.4100014 144.0094439  26.4845372  25.9010115
 143.0699992  26.5679978  37.5120014 142.5069992  25.8629978  37.8330014
 143.8959992  26.4469978  37.9800014 143.1046674  26.4552165  37.6191751
 144.9729992  25.8379978  28.8380014 144.7769992  26.4439978  28.1230014
 145.1539992  25.0049978  28.4040014 144.9706584  25.8082513  28.6814212
 136.1849992  26.0759978  34.1620014 136.1469992  26.4759978  35.0310014
 135.6949992  25.2589978  34.2520014 136.1135330  26.0202674  34.2931289
 139.5509992  23.4499978  20.9610014 139.1199992  23.0049978  21.6900014
 138.8329992  23.8209978  20.4480014 139.3949176  23.4392051  20.9914930
 132.7939992  23.1919978  28.0130014 133.4239992  23.1629978  28.7320014
 133.2429992  22.7669978  27.2820014 132.9410835  23.1305660  28.0127659
 134.0679992  23.9379978  23.4370014 134.5419992  24.5289978  22.8520014
 133.3499992  24.4679978  23.7840014 134.0358640  24.0905511  23.4037969
 144.2369992  27.4759978  33.5090014 144.5599992  26.8449978  32.8660014
 143.7959992  26.9419978  34.1700014 144.2216379  27.3173468  33.5102582
 141.0139992  23.4039978  28.2930014 140.1029992  23.4609978  28.5820014
 141.5189992  23.3439978  29.1040014 140.9576873  23.4036826  28.4421207
 135.8419992  25.0329978  27.1200014 134.9529992  25.1319978  26.7800014
 136.1389992  24.1909978  26.7740014 135.7604177  24.9327687  27.0266940
 139.4949992  25.0329978  24.7770014 140.4269992  25.1619978  24.9550014
 139.2799992  25.7019978  24.1270014 139.5934472  25.1410806  24.7134891
 145.4189992  22.6389978  31.5580014 144.7419992  22.7699978  32.2210014
 144.9339992  22.4839978  30.7470014 145.2607405  22.6359947  31.5392170
 138.1689992  26.2269978  22.3430014 137.6269992  25.8479978  21.6520014
 139.0029992  26.4219978  21.9150014 138.2074390  26.2014079  22.1904392
 136.3049992  30.7839978  37.4420014 137.0369992  31.0389978  38.0040014
 135.5239992  30.9889978  37.9580014 136.2996526  30.8465450  37.5885176
 142.3339992  26.1909978  30.1800014 142.8979992  25.6449978  29.6330014
 142.1859992  25.6699978  30.9690014 142.3913037  26.0456787  30.2117229
 137.3359992  22.3279978  26.5990014 137.0189992  21.4249978  26.5630014
 138.1169992  22.3299978  26.0460014 137.3982431  22.2047797  26.5193102
 140.9599992  24.5799978  32.5940014 140.1249992  25.0339978  32.7050014
 141.4839992  24.8559978  33.3460014 140.9166072  24.6793948  32.7108136
 141.5049992  30.7929978  24.2790014 140.7599992  30.2849978  23.9570014
 141.3699992  30.8419978  25.2250014 141.3848963  30.7301731  24.3628826
 145.4019992  23.6069978  22.4780014 144.4639992  23.7179978  22.3270014
 145.6999992  24.4629978  22.7850014 145.3136318  23.7380158  22.4988145
 143.0239992  30.9769978  35.5160014 142.6779992  30.5949978  36.3230014
 142.8239992  31.9099978  35.5870014 142.9495987  31.0509002  35.6360461
 136.6289992  30.0879978  30.0490014 137.3739992  30.0849978  29.4470014
 136.7069992  29.2639978  30.5300014 136.7413365  29.9762384  30.0317430
 143.6299992  32.2509978  23.3040014 143.3349992  33.0779978  23.6860014
 142.9269992  31.6319978  23.5010014 143.4946379  32.2804171  23.3828654
 133.6369992  28.5479978  35.3640014 133.8599992  28.1299978  36.1950014
 133.0349992  27.9359978  34.9410014 133.5861513  28.4079606  35.4206740
 140.6539992  28.0649978  37.5770014 140.3579992  27.8999978  36.6810014
 141.5849992  27.8449978  37.5660014 140.7394401  28.0126879  37.4530206
 145.2739992  33.4389978  35.4660014 144.3739992  33.6219978  35.1990014
 145.3079992  33.6979978  36.3870014 145.1553748  33.4990554  35.5539164
 139.0039992  33.6059978  27.4530014 139.5319992  34.3789978  27.2530014
 138.1239992  33.8299978  27.1510014 138.9573435  33.7422700  27.3847310
 134.7589992  28.4679978  22.0400014 135.3749992  29.0949978  22.4200014
 133.8969992  28.7839978  22.3120014 134.7267678  28.5964412  22.1287209
 140.4319992  31.2689978  27.0290014 140.1909992  32.1939978  27.0710014
 139.6909992  30.8099978  27.4260014 140.2989206  31.3335915  27.0883769
 140.9459992  35.4179978  33.3440014 141.3089992  36.2719978  33.1110014
 141.4779992  35.1259978  34.0850014 141.0675141  35.4953895  33.4122097
 139.1149992  36.2899978  26.5750014 138.1649992  36.3959978  26.6260014
 139.4669992  37.1109978  26.9190014 139.0325472  36.4154923  26.6284852
 144.4899992  31.5169978  33.0450014 144.0649992  31.2889978  33.8710014
 145.0709992  30.7779978  32.8630014 144.5103395  31.3859545  33.1334414
 135.2709992  23.3019978  34.9220014 134.3789992  23.6399978  34.8540014
 135.1729992  22.4459978  35.3400014 135.1354475  23.2326543  34.9691704
 134.9229992  35.1059978  33.3570014 135.1399992  34.1739978  33.3260014
 135.1689992  35.3809978  34.2400014 134.9859809  35.0155686  33.4721691
 140.7839992  33.5579978  20.5660014 141.0229992  32.8089978  20.0190014
 140.5149992  33.1699978  21.3990014 140.7803233  33.4031853  20.6037809
 139.7209992  33.1279978  23.0220014 139.8679992  32.6079978  23.8120014
 139.7179992  34.0349978  23.3290014 139.7407102  33.1793953  23.1715925
 136.1739992  30.3799978  23.5330014 135.4879992  30.7329978  24.1000014
 136.6969992  31.1429978  23.2860014 136.1508402  30.5313901  23.5771801
 144.0059992  23.0429978  33.8120014 144.7049992  23.1169978  34.4620014
 143.6249992  22.1779978  33.9660014 144.0502097  22.9362389  33.9217997
 144.7899992  22.6949978  24.9090014 145.0099992  23.1659978  24.1050014
 145.3489992  23.0889978  25.5790014 144.8956731  22.8127287  24.8895033
 142.4589992  34.8249978  23.7720014 141.6419992  35.3219978  23.8240014
 142.9879992  35.3009978  23.1310014 142.4188125  34.9571989  23.6925306
 141.9899992  24.4229978  25.7440014 142.8019992  24.9269978  25.7900014
 141.7459992  24.2779978  26.6580014 142.0681467  24.4723749  25.8738575
 142.5259992  25.4089978  34.9280014 142.6449992  25.9829978  35.6850014
 143.1809992  24.7209978  35.0430014 142.6308684  25.3945194  35.0471674
 142.8739992  21.5039978  26.6820014 142.5269992  22.1209978  27.3260014
 143.5329992  22.0049978  26.2000014 142.9155090  21.6561575  26.7050681
 139.7969992  35.8689978  23.7530014 139.9579992  36.6689978  23.2530014
 139.5999992  36.1759978  24.6380014 139.7923906  36.0198678  23.8042333
 138.5319992  22.5669978  23.3690014 138.4479992  23.4549978  23.7160014
 139.4219992  22.3019978  23.6010014 138.6408163  22.6527179  23.4478596
 136.7899992  32.9939978  22.4290014 137.3819992  33.6939978  22.7060014
 137.2489992  32.5609978  21.7100014 136.9331652  33.0312675  22.3696533
 135.1059992  25.6589978  21.5450014 135.0609992  26.5979978  21.7240014
 134.2179992  25.4229978  21.2760014 134.9798166  25.7556687  21.5331524
 135.9139992  20.4399978  30.2190014 135.6849992  20.4989978  29.2910014
 135.4719992  19.6489978  30.5250014 135.8228801  20.3410540  30.1334729
 134.8449992  34.3809978  26.3790014 134.0119992  34.8529978  26.4060014
 135.3899992  34.8909978  25.7800014 134.8047857  34.5144791  26.3017142
 134.1329992  36.9929978  37.7090014 134.6729992  36.7769978  38.4690014
 133.6519992  36.1879978  37.5190014 134.1419219  36.8545156  37.7874282
 138.7299992  35.9129978  39.3290014 139.4979992  35.4539978  39.6700014
 138.7089992  35.6869978  38.3990014 138.8322135  35.8196668  39.2499491
 142.8219992  35.4209978  20.7050014 142.1779992  34.7899978  21.0260014
 143.5839992  34.8899978  20.4730014 142.8368058  35.2627902  20.7176038
 145.3069992  34.2929978  38.0580014 144.9559992  33.4359978  38.3020014
 146.0329992  34.4349978  38.6650014 145.3571895  34.1951351  38.1733770
 134.0399992  30.8039978  38.6630014 134.1839992  29.9019978  38.3770014
 133.2679992  31.0899978  38.1760014 133.9552733  30.7191798  38.5579532
 138.3809992  31.1469978  20.7960014 138.4459992  30.3529978  21.3260014
 139.0339992  31.0289978  20.1060014 138.4781605  31.0223430  20.7752997
 140.6949992  30.7729978  38.0960014 140.3669992  31.0439978  37.2390014
 140.8469992  29.8319978  38.0080014 140.6706412  30.6829046  37.9667822
 143.7339992  32.1939978  20.5320014 143.4649992  32.3749978  21.4320014
 143.5269992  31.2689978  20.4000014 143.6691191  32.0937119  20.6375524
 134.8729992  28.0039978  38.0830014 135.2809992  27.1469978  37.9620014
 134.6119992  28.0179978  39.0040014 134.8936016  27.8885119  38.1909192
 139.5309992  29.1199978  23.1020014 139.0709992  28.6359978  23.7870014
 139.7859992  28.4509978  22.4660014 139.5024856  28.9633669  23.1098397
 138.8199992  27.0129978  35.4580014 138.2009992  27.6869978  35.7380014
 139.1639992  27.3339978  34.6240014 138.7817123  27.1486887  35.3836388
 140.6019992  27.3629978  21.3640014 140.4209992  27.2079978  20.4370014
 141.5519992  27.4709978  21.4090014 140.7056566  27.3563669  21.2430929
 143.8389992  29.4839978  38.7350014 144.7929992  29.5679978  38.7080014
 143.6789992  28.7719978  39.3550014 143.9477182  29.3992842  38.8150733
 139.1589992  24.3679978  36.5400014 139.3089992  23.6389978  35.9380014
 139.1609992  25.1449978  35.9810014 139.1797967  24.3732708  36.3820541
 139.5719992  22.7369978  34.0330014 140.1069992  23.1889978  33.3810014
 138.7189992  22.6289978  33.6100014 139.5300374  22.7842665  33.8866710
 141.1529992  28.1769978  34.2720014 141.9039992  28.0209978  33.6990014
 140.8139992  29.0289978  33.9970014 141.2099587  28.2708138  34.1564078
 145.5689992  25.9919978  39.3010014 145.7609992  25.0609978  39.1890014
 146.4269992  26.4169978  39.2900014 145.7112182  25.9220070  39.2841862
 137.6379992  25.5659978  38.4510014 136.8699992  25.0329978  38.2410014
 138.3159992  25.2559978  37.8520014 137.6247235  25.4511754  38.3412413
 140.3769992  20.1939978  34.4640014 140.2789992  21.1399978  34.3590014
 139.6349992  19.8209978  33.9880014 140.2632534  20.2731773  34.3852600
 141.6409992  24.5149978  38.0280014 141.4059992  24.2959978  38.9290014
 140.8579992  24.3079978  37.5180014 141.5029095  24.4569892  38.0825353
 144.3569992  23.6429978  37.1030014 143.4089992  23.6749978  37.2350014
 144.6689992  23.0169978  37.7570014 144.2695293  23.5627923  37.2094148
 135.8179992  23.4859978  38.1560014 136.0299992  22.7799978  37.5460014
 135.7069992  23.0489978  39.0000014 135.8320269  23.3301921  38.1865873
 140.5989992  19.4879978  37.1350014 141.3109992  18.8479978  37.1210014
 140.4979992  19.7539978  36.2220014 140.6827387  19.4364330  37.0095563
 140.9529992  21.1699978  39.1890014 140.8209992  20.6949978  38.3690014
 140.3529992  21.9149978  39.1340014 140.8539070  21.2055789  39.0693251
 140.4989992  38.0529978  22.3650014 141.4319992  38.2109978  22.5090014
 140.2349992  38.7289978  21.7400014 140.5909911  38.1659373  22.3002722
 134.0669992  32.6899978  21.8480014 134.9809992  32.7689978  22.1210014
 134.0749992  32.0029978  21.1820014 134.1930655  32.6079205  21.7952917
 132.7159992  38.0829978  26.9250014 132.0689992  37.6209978  26.3930014
 133.0709992  37.4109978  27.5080014 132.6753741  37.9289774  26.9309175
 133.5859992  36.1629978  28.7300014 133.2519992  35.2829978  28.9020014
 133.8089992  36.5089978  29.5950014 133.5703721  36.0891938  28.8704168
 133.6659992  29.2389978  31.1820014 133.8509992  29.1569978  30.2460014
 134.5159992  29.1149978  31.6050014 133.8060928  29.2110463  31.1112893
 133.2639992  24.5089978  37.3220014 134.1829992  24.3869978  37.5590014
 132.8139992  23.7589978  37.7120014 133.3290087  24.3909608  37.4071410
 134.4849992  22.8219978  30.2140014 134.9299992  22.0299978  30.5160014
 134.9509992  23.5379978  30.6440014 134.6089718  22.8104534  30.3135265
 132.7889992  25.8209978  31.2830014 133.2809992  25.5999978  30.4920014
 133.1509992  26.6609978  31.5640014 132.9052923  25.9043468  31.2127407
 133.1029992  22.0789978  25.3370014 132.1779992  22.2869978  25.2080014
 133.5569992  22.5629978  24.6470014 133.0376298  22.1729299  25.2260451
 133.0659992  20.8169978  33.6810014 132.4009992  20.5709978  34.3240014
 132.6229992  21.4389978  33.1040014 132.9151168  20.8674214  33.6909848
 135.2579992  33.9919978  37.8260014 134.4369992  34.1669978  37.3650014
 135.0059992  33.9189978  38.7460014 135.1115594  34.0060717  37.8873611
 138.2119992  34.9659978  34.0840014 137.7879992  35.7759978  33.8020014
 139.1169992  35.0519978  33.7820014 138.2762138  35.0884160  34.0046415
 142.5239992  36.3649978  37.0440014 142.7079992  36.0319978  37.9220014
 143.3699992  36.6749978  36.7220014 142.6636484  36.3612979  37.1207617
 144.8689992  37.6509978  36.2880014 145.5459992  37.0179978  36.0480014
 145.1899992  38.0519978  37.0950014 145.0051323  37.6185691  36.3643158
 135.6139992  38.2229978  34.1320014 134.8939992  38.6629978  33.6810014
 135.2489992  37.9719978  34.9800014 135.4659643  38.2493369  34.1849129
 138.0809992  37.8229978  33.1620014 137.2169992  37.8949978  33.5660014
 138.0259992  38.3699978  32.3780014 137.9551942  37.9067849  33.1114000
 142.7919992  37.7109978  32.3370014 142.3349992  38.2399978  31.6830014
 142.9549992  38.3139978  33.0620014 142.7514960  37.8649280  32.3455274
 145.1199992  36.5889978  33.2820014 144.2149992  36.7539978  33.0160014
 145.5479992  37.4419978  33.2160014 145.0541537  36.7269134  33.2367095
 135.0289992  36.8459978  31.0420014 135.0109992  36.4199978  31.8990014
 135.8339992  36.5269978  30.6330014 135.1352875  36.7446435  31.1039515
 137.1699992  35.5559978  29.6970014 136.9509992  34.6389978  29.8670014
 137.9939992  35.6959978  30.1630014 137.2514702  35.4495511  29.7832527
 139.7069992  36.0259978  30.5460014 139.9199992  35.1379978  30.2590014
 139.7719992  35.9909978  31.5000014 139.7449149  35.8998326  30.6357369
 143.2159992  21.6899978  29.6900014 142.5419992  21.0599978  29.9460014
 143.7799992  21.2059978  29.0870014 143.2000384  21.5383708  29.6435020
 135.5429992  20.3239978  27.5120014 134.7659992  20.0889978  27.0050014
 136.0729992  19.5269978  27.5210014 135.5083451  20.1841268  27.4438627
 134.3789992  20.1219978  23.3160014 134.8179992  20.7329978  22.7240014
 133.7449992  20.6599978  23.7900014 134.3533859  20.2784064  23.2990305
 140.1219992  20.2499978  27.3250014 140.9959992  20.6389978  27.2960014
 139.9859992  20.0349978  28.2480014 140.2231953  20.2741643  27.4457617
 134.2799992  36.0699978  24.2130014 133.5949992  36.0319978  23.5460014
 134.2839992  36.9829978  24.5010014 134.1867621  36.1881924  24.1606126
 136.2399992  22.0379978  21.7580014 136.7309992  21.4079978  21.2310014
 136.8629992  22.3339978  22.4210014 136.3915304  21.9917376  21.7754940
 141.2659992  22.3309978  24.2150014 141.4439992  21.6839978  24.8980014
 141.2119992  23.1649978  24.6820014 141.2830678  22.3551604  24.3716301
 143.1439992  37.2789978  22.6110014 144.0099992  37.6459978  22.4330014
 142.8979992  36.8399978  21.7970014 143.2292097  37.2698525  22.4766019
 135.4999992  20.8379978  37.0300014 135.1339992  20.0719978  37.4720014
 136.4129992  20.8669978  37.3160014 135.5733172  20.7370324  37.1291890
 137.4729992  20.1879978  38.5650014 138.3719992  19.9139978  38.3810014
 137.0869992  19.4459978  39.0300014 137.5437307  20.0502196  38.6027098
 136.0979992  36.9899978  21.2380014 135.8299992  37.2759978  22.1120014
 136.8689992  36.4439978  21.3910014 136.1655926  36.9552779  21.3781205
  12.6289992  48.3359978  27.4710014  12.7179992  49.2799978  27.3390014
  11.9909992  48.0609978  26.8130014  12.5549062  48.4279812  27.3639641
  11.5619992  47.5909978  30.8900014  11.5239992  46.9449978  31.5950014
  11.2399992  47.1239978  30.1190014  11.5132679  47.4394276  30.8822921
   3.9299992  47.2049978  32.4830014   3.9719992  46.5799978  33.2060014
   4.6329992  47.8289978  32.6650014   4.0307345  47.2037873  32.6065274
  15.2679992  50.5299978  29.1910014  14.8269992  49.8099978  29.6420014
  15.2549992  51.2509978  29.8210014  15.2059215  50.5289291  29.3378105
   4.8539992  51.6549978  31.0180014   4.4839992  50.8529978  30.6480014
   5.7949992  51.4869978  31.0640014   4.9305984  51.5224638  30.9735603
   1.4639992  45.3149978  26.4100014   1.0159992  46.1609978  26.3920014
   0.9029992  44.7359978  25.8950014   1.3268546  45.3523993  26.3378891
   2.1739992  47.4769978  28.5360014   2.3879992  46.7069978  29.0640014
   2.9119992  47.5669978  27.9330014   2.3030200  47.3838586  28.5267035
  12.3799992  55.6339978  29.4030014  12.9989992  54.9579978  29.1300014
  12.1709992  55.4159978  30.3120014  12.4366056  55.5118869  29.4883967
   9.9509992  50.0229978  31.2960014  10.2549992  49.3369978  30.7010014
  10.6729992  50.1419978  31.9140014  10.0901240  49.9452314  31.2980959
  18.6139992  41.6249978  32.1560014  18.6639992  42.2349978  32.8920014
  19.0399992  42.0859978  31.4330014  18.6784108  41.7707709  32.1590112
  13.0919992  44.4169978  31.6230014  13.2349992  43.4709978  31.6430014
  12.9859992  44.6239978  30.6950014  13.0972403  44.3154797  31.5002239
   6.2469992  42.5189978  28.8960014   6.2899992  43.3789978  28.4770014
   5.7889992  41.9669978  28.2620014   6.1909871  42.5619245  28.7530761
  13.9689992  42.6499978  27.2970014  14.6159992  42.3209978  27.9210014
  14.4789992  43.1669978  26.6740014  14.1264351  42.6749067  27.2981037
   2.8669992  44.9159978  29.6580014   3.5209992  44.3659978  30.0900014
   2.8909992  44.6419978  28.7410014   2.9597199  44.8037167  29.5931668
   8.0239992  46.4659978  28.8730014   8.6399992  45.9389978  29.3820014
   7.4369992  45.8259978  28.4690014   8.0290154  46.3073954  28.8880945
  19.0059992  43.1029978  34.3920014  18.3169992  43.7609978  34.2970014
  19.0209992  42.9049978  35.3290014  18.9137756  43.1662603  34.5055812
   5.0569992  41.4369978  32.9700014   4.8379992  41.9669978  32.2030014
   4.3889992  41.6629978  33.6170014   4.9366975  41.5400967  32.9525140
  12.4259992  50.9369978  26.5140014  12.1309992  50.6139978  25.6620014
  12.1019992  51.8369978  26.5550014  12.3418460  51.0144464  26.4029714
   7.6259992  49.1119978  33.2570014   6.8859992  49.7109978  33.3610014
   8.3399992  49.6659978  32.9420014   7.6213500  49.2687829  33.2286371
  15.7329992  41.9409978  29.2770014  15.5179992  41.1749978  29.8100014
  16.3889992  42.4129978  29.7900014  15.7922673  41.9000728  29.4191990
   4.6509992  43.3289978  30.9220014   5.2649992  43.9619978  31.2950014
   5.1629992  42.8569978  30.2660014   4.8041962  43.3517249  30.8842935
   6.0339992  51.0769978  34.0440014   6.0279992  51.9559978  33.6660014
   5.1799992  50.9929978  34.4690014   5.9177925  51.1859535  34.0496887
   2.1549992  50.7479978  24.8260014   1.8829992  50.9769978  23.9380014
   2.1999992  51.5849978  25.2870014   2.1238097  50.8926163  24.7666683
  15.7799992  52.3689978  31.5390014  14.8379992  52.4279978  31.7010014
  16.0559992  53.2749978  31.4020014  15.6885865  52.4995288  31.5426192
  16.0799992  40.6559978  32.9560014  15.3439992  41.2659978  32.9190014
  16.7639992  41.0709978  32.4300014  16.0715367  40.7957551  32.8798174
   9.0839992  38.7419978  30.4220014   8.9659992  37.7939978  30.3680014
   8.2289992  39.0749978  30.6950014   8.9522805  38.6572202  30.4515079
  14.0319992  54.1499978  28.1640014  14.4569992  53.4429978  27.6790014
  14.3489992  54.9519978  27.7470014  14.1330266  54.1615190  28.0412479
  15.1919992  52.0509978  26.6730014  14.9339992  51.3609978  26.0610014
  15.2629992  51.6079978  27.5180014  15.1663050  51.8966814  26.7035621
  16.8779992  50.6179978  35.1500014  17.0169992  50.0259978  34.4110014
  17.0449992  51.4909978  34.7940014  16.9196193  50.6548896  35.0006211
  11.3499992  47.5799978  24.9230014  10.6389992  48.1149978  24.5710014
  12.0409992  47.6349978  24.2630014  11.3460751  47.6606777  24.7855858
  11.4039992  46.0369978  21.9610014  12.1049992  46.0599978  22.6130014
  11.7059992  45.4089978  21.3050014  11.5408202  45.9552212  21.9615609
  18.7189992  46.9579978  33.2160014  18.0669992  47.6519978  33.3050014
  19.1849992  47.1679978  32.4060014  18.6925937  47.0815019  33.1187533
  14.7559992  47.7889978  25.8740014  14.0239992  48.0179978  26.4480014
  15.2029992  47.0759978  26.3290014  14.7163963  47.7238729  26.0139945
  14.6529992  45.9639978  34.9420014  14.7329992  46.7269978  35.5140014
  14.0519992  46.2429978  34.2520014  14.5826547  46.1062457  34.9270047
   6.4009992  48.4199978  27.7570014   6.0709992  48.0489978  26.9390014
   6.9899992  47.7489978  28.1040014   6.4353970  48.2786063  27.6919404
   7.7679992  51.8479978  30.4380014   7.6729992  51.2689978  29.6820014
   8.4969992  51.4769978  30.9340014   7.8536011  51.7185561  30.4016028
   6.7679992  47.1879978  31.3900014   7.3329992  47.3099978  30.6280014
   7.0869992  47.8259978  32.0290014   6.8884166  47.2908791  31.3720348
  13.0769992  52.6919978  32.1240014  12.8369992  53.3539978  32.7720014
  12.8789992  51.8569978  32.5490014  13.0173826  52.6698115  32.2701566
   7.6479992  51.5879978  36.1080014   7.3369992  52.3699978  36.5630014
   6.9979992  51.4349978  35.4220014   7.5175538  51.6744087  36.0775898
  13.6269992  46.9519978  23.5600014  14.2059992  47.1019978  24.3060014
  14.0409992  47.4219978  22.8360014  13.7623358  47.0360954  23.5643953
   4.5679992  47.7859978  35.3360014   4.6379992  48.4369978  36.0350014
   3.6769992  47.8889978  35.0010014   4.4571690  47.8889249  35.3863043
  11.3529992  53.6879978  26.9950014  11.8269992  53.9839978  27.7720014
  10.7899992  54.4269978  26.7620014  11.3417890  53.8283036  27.0698101
   5.8869992  53.6589978  36.8710014   5.8949992  53.5229978  35.9240014
   4.9709992  53.5419978  37.1230014   5.7642528  53.6245463  36.7753243
  17.3259992  38.7019978  23.3730014  16.4259992  38.8409978  23.6680014
  17.5779992  39.5329978  22.9710014  17.2368683  38.8334055  23.3590232
   5.3919992  47.4889978  25.3460014   5.0999992  48.2569978  24.8550014
   4.7169992  46.8299978  25.1830014   5.2608497  47.5049745  25.2568260
  18.5149992  53.0679978  21.7490014  18.5879992  54.0069978  21.9190014
  19.4199992  52.7629978  21.6930014  18.6474170  53.1553282  21.7647063
   1.4849992  49.8519978  34.1610014   0.9829992  49.8239978  33.3460014
   1.4899992  48.9469978  34.4710014   1.4169832  49.7257486  34.0914121
   1.2349992  52.6329978  31.0450014   2.1809992  52.4879978  31.0260014
   1.1219992  53.4169978  31.5820014   1.3493578  52.7191697  31.1150317
  19.4329992  53.2989978  36.7280014  19.3829992  52.3429978  36.6900014
  18.6059992  53.5659978  37.1290014  19.3143831  53.2044680  36.7770121
  10.4109992  52.8729978  35.6040014  10.4989992  53.6989978  36.0790014
   9.5479992  52.5429978  35.8530014  10.3063357  52.9415468  35.7027653
  10.8259992  56.6449978  25.4100014  10.7499992  56.5239978  24.4630014
  10.8579992  57.5939978  25.5280014  10.8199380  56.7567677  25.2965181
   4.4789992  55.4339978  27.1910014   4.6309992  55.0859978  28.0690014
   3.6279992  55.0769978  26.9350014   4.3848344  55.3380879  27.2766868
  13.9269992  55.7989978  22.4120014  14.3019992  55.0549978  21.9410014
  13.9319992  55.5289978  23.3300014  13.9790098  55.6606392  22.4716629
  13.5959992  55.7249978  25.1610014  12.6609992  55.8249978  25.3400014
  13.8759992  55.0149978  25.7400014  13.5059471  55.6427933  25.2636695
  16.5849992  44.7919978  37.2080014  16.1769992  45.2719978  36.4870014
  16.6249992  43.8859978  36.9000014  16.5346221  44.7352449  37.0678267
   3.7339992  51.1759978  35.2040014   3.9499992  50.8139978  36.0640014
   2.8779992  50.8009978  34.9950014   3.6478810  51.0758837  35.2932680
   6.3519992  39.6459978  31.2000014   5.4909992  39.5589978  30.7920014
   6.3299992  40.5019978  31.6280014   6.2310491  39.7498003  31.2019582
  11.0149992  39.3679978  34.5750014  11.4349992  38.9529978  35.3280014
  10.0819992  39.1889978  34.6920014  10.9463736  39.2869910  34.6938968
  14.3419992  43.1229978  35.4280014  13.8279992  42.9979978  36.2260014
  14.1859992  44.0359978  35.1840014  14.2506967  43.2292123  35.5040937
  15.1039992  47.9839978  21.1890014  15.1459992  47.7619978  20.2590014
  15.9529992  48.3829978  21.3790014  15.2245253  48.0075498  21.0873822
  10.6769992  41.8599978  21.8600014  10.4229992  41.8789978  22.7820014
  10.4199992  40.9889978  21.5580014  10.6074508  41.7448280  21.9454803
   6.4429992  44.6109978  32.2950014   5.8019992  44.5709978  33.0040014
   6.4809992  45.5379978  32.0570014   6.3603010  44.7307668  32.3599946
   6.4399992  44.8319978  27.2070014   5.5479992  44.4919978  27.1480014
   6.8909992  44.4549978  26.4510014   6.3787642  44.7344910  27.0967726
  11.9759992  45.2479978  26.0240014  11.5669992  46.0629978  25.7320014
  12.6959992  45.1079978  25.4100014  12.0174439  45.3405372  25.9010115
  11.0779992  45.4239978  37.5120014  10.5149992  44.7189978  37.8330014
  11.9039992  45.3029978  37.9800014  11.1126674  45.3112165  37.6191751
  12.9809992  44.6939978  28.8380014  12.7849992  45.2999978  28.1230014
  13.1619992  43.8609978  28.4040014  12.9786584  44.6642513  28.6814212
   4.1929992  44.9319978  34.1620014   4.1549992  45.3319978  35.0310014
   3.7029992  44.1149978  34.2520014   4.1215330  44.8762674  34.2931289
   7.5589992  42.3059978  20.9610014   7.1279992  41.8609978  21.6900014
   6.8409992  42.6769978  20.4480014   7.4029176  42.2952051  20.9914930
   0.8019992  42.0479978  28.0130014   1.4319992  42.0189978  28.7320014
   1.2509992  41.6229978  27.2820014   0.9490835  41.9865660  28.0127659
   2.0759992  42.7939978  23.4370014   2.5499992  43.3849978  22.8520014
   1.3579992  43.3239978  23.7840014   2.0438640  42.9465511  23.4037969
  12.2449992  46.3319978  33.5090014  12.5679992  45.7009978  32.8660014
  11.8039992  45.7979978  34.1700014  12.2296379  46.1733468  33.5102582
   9.0219992  42.2599978  28.2930014   8.1109992  42.3169978  28.5820014
   9.5269992  42.1999978  29.1040014   8.9656873  42.2596826  28.4421207
   3.8499992  43.8889978  27.1200014   2.9609992  43.9879978  26.7800014
   4.1469992  43.0469978  26.7740014   3.7684177  43.7887687  27.0266940
   7.5029992  43.8889978  24.7770014   8.4349992  44.0179978  24.9550014
   7.2879992  44.5579978  24.1270014   7.6014472  43.9970806  24.7134891
  13.4269992  41.4949978  31.5580014  12.7499992  41.6259978  32.2210014
  12.9419992  41.3399978  30.7470014  13.2687405  41.4919947  31.5392170
   6.1769992  45.0829978  22.3430014   5.6349992  44.7039978  21.6520014
   7.0109992  45.2779978  21.9150014   6.2154390  45.0574079  22.1904392
  16.7149992  57.1659978  37.8340014  16.9139992  57.5899978  37.0000014
  17.3699992  57.5099978  38.4410014  16.8308522  57.2706301  37.8017852
   4.3129992  49.6399978  37.4420014   5.0449992  49.8949978  38.0040014
   3.5319992  49.8449978  37.9580014   4.3076526  49.7025450  37.5885176
  10.3419992  45.0469978  30.1800014  10.9059992  44.5009978  29.6330014
  10.1939992  44.5259978  30.9690014  10.3993037  44.9016787  30.2117229
   5.3439992  41.1839978  26.5990014   5.0269992  40.2809978  26.5630014
   6.1249992  41.1859978  26.0460014   5.4062431  41.0607797  26.5193102
   8.9679992  43.4359978  32.5940014   8.1329992  43.8899978  32.7050014
   9.4919992  43.7119978  33.3460014   8.9246072  43.5353948  32.7108136
   9.5129992  49.6489978  24.2790014   8.7679992  49.1409978  23.9570014
   9.3779992  49.6979978  25.2250014   9.3928963  49.5861731  24.3628826
  16.6629992  48.7819978  33.0660014  17.3039992  49.2379978  32.5220014
  15.8319992  48.8949978  32.6030014  16.6385287  48.8596921  32.9289887
  13.4099992  42.4629978  22.4780014  12.4719992  42.5739978  22.3270014
  13.7079992  43.3189978  22.7850014  13.3216318  42.5940158  22.4988145
  11.0319992  49.8329978  35.5160014  10.6859992  49.4509978  36.3230014
  10.8319992  50.7659978  35.5870014  10.9575987  49.9069002  35.6360461
  14.1289992  44.3299978  24.1390014  15.0209992  44.1919978  24.4580014
  14.1849992  45.1209978  23.6020014  14.2587325  44.4179918  24.1101217
   4.6369992  48.9439978  30.0490014   5.3819992  48.9409978  29.4470014
   4.7149992  48.1199978  30.5300014   4.7493366  48.8322384  30.0317430
  11.6379992  51.1069978  23.3040014  11.3429992  51.9339978  23.6860014
  10.9349992  50.4879978  23.5010014  11.5026379  51.1364171  23.3828654
   1.6449992  47.4039978  35.3640014   1.8679992  46.9859978  36.1950014
   1.0429992  46.7919978  34.9410014   1.5941513  47.2639606  35.4206740
   8.6619992  46.9209978  37.5770014   8.3659992  46.7559978  36.6810014
   9.5929992  46.7009978  37.5660014   8.7474401  46.8686879  37.4530206
  13.2819992  52.2949978  35.4660014  12.3819992  52.4779978  35.1990014
  13.3159992  52.5539978  36.3870014  13.1633748  52.3550554  35.5539164
  19.0139992  44.5389978  23.8340014  18.4589992  44.1429978  23.1610014
  19.1139992  45.4499978  23.5560014  18.9516816  44.6079505  23.7045033
  18.9769992  50.3399978  36.6710014  18.1259992  50.5779978  36.3030014
  19.5669992  50.3229978  35.9180014  18.9403812  50.3702524  36.5188453
  17.3089992  53.3249978  24.2990014  16.9359992  52.4999978  24.6080014
  17.5859992  53.1419978  23.4010014  17.2953463  53.1872569  24.2199525
  14.4689992  48.1329978  31.3200014  13.5409992  47.9019978  31.2930014
  14.9199992  47.3559978  30.9900014  14.4028165  47.9962774  31.2716790
   7.0119992  52.4619978  27.4530014   7.5399992  53.2349978  27.2530014
   6.1319992  52.6859978  27.1510014   6.9653435  52.5982700  27.3847310
   2.7669992  47.3239978  22.0400014   3.3829992  47.9509978  22.4200014
   1.9049992  47.6399978  22.3120014   2.7347678  47.4524412  22.1287209
   8.4399992  50.1249978  27.0290014   8.1989992  51.0499978  27.0710014
   7.6989992  49.6659978  27.4260014   8.3069206  50.1895915  27.0883769
   8.9539992  54.2739978  33.3440014   9.3169992  55.1279978  33.1110014
   9.4859992  53.9819978  34.0850014   9.0755141  54.3513895  33.4122097
   7.1229992  55.1459978  26.5750014   6.1729992  55.2519978  26.6260014
   7.4749992  55.9669978  26.9190014   7.0405472  55.2714923  26.6284852
  12.4979992  50.3729978  33.0450014  12.0729992  50.1449978  33.8710014
  13.0789992  49.6339978  32.8630014  12.5183395  50.2419545  33.1334414
  14.7009992  51.3019978  22.1190014  15.0549992  50.9219978  22.9230014
  13.7529992  51.2079978  22.2060014  14.6212298  51.2372452  22.2408687
  15.1569992  54.9249978  35.5140014  14.5549992  54.3689978  35.0190014
  15.4379992  55.5919978  34.8880014  15.1125757  54.9390744  35.3615675
  19.2049992  55.7809978  22.3200014  19.9489992  56.3669978  22.1800014
  18.5109992  56.3499978  22.6530014  19.2129809  55.9380818  22.3458590
   3.2789992  42.1579978  34.9220014   2.3869992  42.4959978  34.8540014
   3.1809992  41.3019978  35.3400014   3.1434475  42.0886543  34.9691704
  15.5669992  49.9739978  24.3460014  15.2899992  49.2459978  24.9020014
  16.4949992  50.0929978  24.5510014  15.6544499  49.8904213  24.4498044
   2.9309992  53.9619978  33.3570014   3.1479992  53.0299978  33.3260014
   3.1769992  54.2369978  34.2400014   2.9939809  53.8715686  33.4721690
   8.7919992  52.4139978  20.5660014   9.0309992  51.6649978  20.0190014
   8.5229992  52.0259978  21.3990014   8.7883233  52.2591853  20.6037809
   7.7289992  51.9839978  23.0220014   7.8759992  51.4639978  23.8120014
   7.7259992  52.8909978  23.3290014   7.7487102  52.0353953  23.1715925
   4.1819992  49.2359978  23.5330014   3.4959992  49.5889978  24.1000014
   4.7049992  49.9989978  23.2860014   4.1588402  49.3873901  23.5771801
  12.0139992  41.8989978  33.8120014  12.7129992  41.9729978  34.4620014
  11.6329992  41.0339978  33.9660014  12.0582097  41.7922389  33.9217997
  12.7979992  41.5509978  24.9090014  13.0179992  42.0219978  24.1050014
  13.3569992  41.9449978  25.5790014  12.9036731  41.6687287  24.8895033
  10.4669992  53.6809978  23.7720014   9.6499992  54.1779978  23.8240014
  10.9959992  54.1569978  23.1310014  10.4268125  53.8131989  23.6925306
   9.9979992  43.2789978  25.7440014  10.8099992  43.7829978  25.7900014
   9.7539992  43.1339978  26.6580014  10.0761467  43.3283749  25.8738575
  10.5339992  44.2649978  34.9280014  10.6529992  44.8389978  35.6850014
  11.1889992  43.5769978  35.0430014  10.6388684  44.2505194  35.0471674
  10.8819992  40.3599978  26.6820014  10.5349992  40.9769978  27.3260014
  11.5409992  40.8609978  26.2000014  10.9235090  40.5121575  26.7050681
   7.8049992  54.7249978  23.7530014   7.9659992  55.5249978  23.2530014
   7.6079992  55.0319978  24.6380014   7.8003906  54.8758678  23.8042333
   6.5399992  41.4229978  23.3690014   6.4559992  42.3109978  23.7160014
   7.4299992  41.1579978  23.6010014   6.6488163  41.5087179  23.4478596
  16.7379992  42.1719978  35.7630014  15.8219992  42.4339978  35.6760014
  17.0739992  42.1689978  34.8670014  16.6578499  42.2075163  35.6298766
  15.3409992  45.9219978  29.8590014  14.5429992  45.5069978  29.5310014
  15.7859992  45.2319978  30.3500014  15.2919684  45.7718628  29.8805227
   4.7979992  51.8499978  22.4290014   5.3899992  52.5499978  22.7060014
   5.2569992  51.4169978  21.7100014   4.9411652  51.8872675  22.3696533
   3.1139992  44.5149978  21.5450014   3.0689992  45.4539978  21.7240014
   2.2259992  44.2789978  21.2760014   2.9878166  44.6116687  21.5331524
  16.4269992  55.1779978  31.4810014  16.2709992  55.8569978  30.8240014
  17.3599992  55.2499978  31.6840014  16.5317387  55.2806390  31.4185342
   3.9219992  39.2959978  30.2190014   3.6929992  39.3549978  29.2910014
   3.4799992  38.5049978  30.5250014   3.8308801  39.1970540  30.1334729
   2.8529992  53.2369978  26.3790014   2.0199992  53.7089978  26.4060014
   3.3979992  53.7469978  25.7800014   2.8127857  53.3704791  26.3017142
   2.1409992  55.8489978  37.7090014   2.6809992  55.6329978  38.4690014
   1.6599992  55.0439978  37.5190014   2.1499219  55.7105156  37.7874282
   6.7379992  54.7689978  39.3290014   7.5059992  54.3099978  39.6700014
   6.7169992  54.5429978  38.3990014   6.8402135  54.6756668  39.2499491
  10.8299992  54.2769978  20.7050014  10.1859992  53.6459978  21.0260014
  11.5919992  53.7459978  20.4730014  10.8448058  54.1187902  20.7176038
  13.3149992  53.1489978  38.0580014  12.9639992  52.2919978  38.3020014
  14.0409992  53.2909978  38.6650014  13.3651895  53.0511351  38.1733770
  15.4349992  54.0939978  20.9380014  15.7179992  53.2989978  21.3910014
  16.1739992  54.3269978  20.3770014  15.5737096  54.0167049  20.9241104
   2.0479992  49.6599978  38.6630014   2.1919992  48.7579978  38.3770014
   1.2759992  49.9459978  38.1760014   1.9632733  49.5751798  38.5579532
   6.3889992  50.0029978  20.7960014   6.4539992  49.2089978  21.3260014
   7.0419992  49.8849978  20.1060014   6.4861605  49.8783430  20.7752997
   8.7029992  49.6289978  38.0960014   8.3749992  49.8999978  37.2390014
   8.8549992  48.6879978  38.0080014   8.6786412  49.5389046  37.9667822
  11.7419992  51.0499978  20.5320014  11.4729992  51.2309978  21.4320014
  11.5349992  50.1249978  20.4000014  11.6771191  50.9497119  20.6375524
  14.4379992  49.5449978  35.4790014  15.1829992  50.1339978  35.3600014
  13.6809992  50.1269978  35.5430014  14.4375470  49.7042128  35.4713799
   2.8809992  46.8599978  38.0830014   3.2889992  46.0029978  37.9620014
   2.6199992  46.8739978  39.0040014   2.9016016  46.7445119  38.1909192
   7.5389992  47.9759978  23.1020014   7.0789992  47.4919978  23.7870014
   7.7939992  47.3069978  22.4660014   7.5104856  47.8193669  23.1098397
   6.8279992  45.8689978  35.4580014   6.2089992  46.5429978  35.7380014
   7.1719992  46.1899978  34.6240014   6.7897123  46.0046887  35.3836388
   8.6099992  46.2189978  21.3640014   8.4289992  46.0639978  20.4370014
   9.5599992  46.3269978  21.4090014   8.7136566  46.2123669  21.2430929
  11.8469992  48.3399978  38.7350014  12.8009992  48.4239978  38.7080014
  11.6869992  47.6279978  39.3550014  11.9557182  48.2552842  38.8150733
  17.9999992  48.5729978  20.8100014  17.7259992  48.1489978  19.9970014
  18.0389992  49.5049978  20.5930014  17.9677716  48.6408827  20.6694286
   7.1669992  43.2239978  36.5400014   7.3169992  42.4949978  35.9380014
   7.1689992  44.0009978  35.9810014   7.1877967  43.2292708  36.3820541
   7.5799992  41.5929978  34.0330014   8.1149992  42.0449978  33.3810014
   6.7269992  41.4849978  33.6100014   7.5380374  41.6402665  33.8866710
   9.1609992  47.0329978  34.2720014   9.9119992  46.8769978  33.6990014
   8.8219992  47.8849978  33.9970014   9.2179587  47.1268138  34.1564078
  13.5769992  44.8479978  39.3010014  13.7689992  43.9169978  39.1890014
  14.4349992  45.2729978  39.2900014  13.7192182  44.7780070  39.2841862
  14.8939992  47.6369978  37.3780014  14.6119992  48.3459978  36.8000014
  15.8359992  47.5639978  37.2270014  14.9827921  47.7242193  37.2784225
   5.6459992  44.4219978  38.4510014   4.8779992  43.8889978  38.2410014
   6.3239992  44.1119978  37.8520014   5.6327235  44.3071754  38.3412413
   8.3849992  39.0499978  34.4640014   8.2869992  39.9959978  34.3590014
   7.6429992  38.6769978  33.9880014   8.2712534  39.1291773  34.3852600
   9.6489992  43.3709978  38.0280014   9.4139992  43.1519978  38.9290014
   8.8659992  43.1639978  37.5180014   9.5109095  43.3129892  38.0825353
  12.3649992  42.4989978  37.1030014  11.4169992  42.5309978  37.2350014
  12.6769992  41.8729978  37.7570014  12.2775293  42.4187923  37.2094148
  13.9989992  41.1329978  39.1080014  13.9019992  40.1809978  39.1030014
  13.6769992  41.4009978  39.9690014  13.9422468  41.0390884  39.2236210
   3.8259992  42.3419978  38.1560014   4.0379992  41.6359978  37.5460014
   3.7149992  41.9049978  39.0000014   3.8400269  42.1861921  38.1865873
   8.6069992  38.3439978  37.1350014   9.3189992  37.7039978  37.1210014
   8.5059992  38.6099978  36.2220014   8.6907387  38.2924330  37.0095563
   8.9609992  40.0259978  39.1890014   8.8289992  39.5509978  38.3690014
   8.3609992  40.7709978  39.1340014   8.8619070  40.0615789  39.0693251
   8.5069992  56.9089978  22.3650014   9.4399992  57.0669978  22.5090014
   8.2429992  57.5849978  21.7400014   8.5989911  57.0219373  22.3002722
   2.0749992  51.5459978  21.8480014   2.9889992  51.6249978  22.1210014
   2.0829992  50.8589978  21.1820014   2.2010655  51.4639205  21.7952917
   0.7239992  56.9389978  26.9250014   0.0769992  56.4769978  26.3930014
   1.0789992  56.2669978  27.5080014   0.6833741  56.7849774  26.9309175
   1.5939992  55.0189978  28.7300014   1.2599992  54.1389978  28.9020014
   1.8169992  55.3649978  29.5950014   1.5783721  54.9451938  28.8704168
  19.1429992  55.8289978  31.7110014  19.1209992  56.0139978  32.6500014
  19.8329992  56.3969978  31.3700014  19.2333439  55.9311887  31.7934791
  18.7059992  55.3959978  34.6320014  18.2189992  54.6609978  34.2610014
  19.2549992  55.0019978  35.3100014  18.7135247  55.2421057  34.6728461
  17.1569992  51.1859978  39.2710014  16.2909992  51.0809978  39.6650014
  17.5329992  51.9439978  39.7170014  17.0893401  51.2741708  39.3852620
  18.4579992  49.4419978  24.7850014  19.3079992  49.8629978  24.9120014
  18.4629992  48.7019978  25.3920014  18.5751143  49.3996094  24.8844750
  18.8519992  47.4959978  26.6080014  18.1259992  47.0159978  27.0060014
  19.4339992  47.7009978  27.3410014  18.8312730  47.4580184  26.7614149
  18.6109992  50.2809978  31.5560014  19.4449992  49.9029978  31.2750014
  18.7229992  51.2239978  31.4370014  18.7401917  50.3567943  31.5014861
  17.0979992  53.1589978  33.8630014  16.4499992  53.4839978  34.4880014
  16.5799992  52.7179978  33.1890014  16.9394196  53.1438651  33.8574152
  19.1209992  47.3969978  22.9990014  18.5989992  47.7529978  22.2810014
  19.0879992  48.0719978  23.6780014  19.0450129  47.5369598  22.9923355
  17.4699992  44.6359978  21.5500014  17.5659992  45.3029978  20.8700014
  17.3299992  43.8209978  21.0690014  17.4642040  44.6170671  21.3918378
  16.6389992  46.0169978  27.1710014  16.4889992  45.0719978  27.1510014
  16.2849992  46.2979978  28.0150014  16.5706351  45.9256644  27.2823220
   1.6739992  48.0949978  31.1820014   1.8589992  48.0129978  30.2460014
   2.5239992  47.9709978  31.6050014   1.8140928  48.0670463  31.1112893
  17.4949992  47.9869978  36.8100014  18.0779992  47.2519978  37.0020014
  18.0589992  48.7589978  36.8570014  17.6509781  47.9908145  36.8426164
  18.9919992  45.8899978  37.4950014  18.1289992  45.5109978  37.3290014
  19.5959992  45.1509978  37.4200014  18.9556085  45.7383223  37.4621695
  16.7169992  42.0439978  20.6680014  17.3279992  41.6729978  21.3050014
  15.8799992  41.6229978  20.8640014  16.6874947  41.9362756  20.7817252
  16.3499992  43.5989978  25.6340014  16.6289992  42.6919978  25.7580014
  17.1089992  44.0329978  25.2450014  16.4908619  43.5334502  25.5983795
  16.9609992  44.1809978  31.0700014  17.8939992  44.3929978  31.0350014
  16.7259992  44.2819978  31.9920014  17.0569517  44.2236833  31.1899130
  16.9909992  44.9179978  33.8460014  16.1479992  45.1859978  34.2120014
  17.4329992  45.7399978  33.6350014  16.9354138  45.0658273  33.8675518
   1.2719992  43.3649978  37.3220014   2.1909992  43.2429978  37.5590014
   0.8219992  42.6149978  37.7120014   1.3370087  43.2469608  37.4071410
  19.2739992  38.8979978  39.1990014  19.6229992  38.2439978  38.5940014
  19.4209992  39.7349978  38.7590014  19.3416824  38.9216024  39.0566304
  16.9629992  40.8619978  25.6820014  17.1449992  40.4129978  26.5070014
  16.3629992  40.2779978  25.2180014  16.9068187  40.7215552  25.7322739
   2.4929992  41.6779978  30.2140014   2.9379992  40.8859978  30.5160014
   2.9589992  42.3939978  30.6440014   2.6169718  41.6664534  30.3135265
   0.7969992  44.6769978  31.2830014   1.2889992  44.4559978  30.4920014
   1.1589992  45.5169978  31.5640014   0.9132923  44.7603468  31.2127407
  18.7929992  41.0069978  37.5480014  17.8759992  41.2779978  37.5130014
  18.9159992  40.4719978  36.7640014  18.6839672  40.9717885  37.4371862
  18.8299992  40.9299978  22.2100014  19.2419992  40.2089978  21.7350014
  19.5109992  41.5989978  22.2680014  18.9785536  40.9217766  22.1528024
   1.1109992  40.9349978  25.3370014   0.1859992  41.1429978  25.2080014
   1.5649992  41.4189978  24.6470014   1.0456298  41.0289299  25.2260451
  15.8809992  55.9189978  27.2830014  16.5339992  55.5709978  26.6750014
  16.3919992  56.4069978  27.9290014  16.0392777  55.9373815  27.2872047
   1.0739992  39.6729978  33.6810014   0.4089992  39.4269978  34.3240014
   0.6309992  40.2949978  33.1040014   0.9231168  39.7234214  33.6909848
   3.2659992  52.8479978  37.8260014   2.4449992  53.0229978  37.3650014
   3.0139992  52.7749978  38.7460014   3.1195594  52.8620717  37.8873611
   6.2199992  53.8219978  34.0840014   5.7959992  54.6319978  33.8020014
   7.1249992  53.9079978  33.7820014   6.2842138  53.9444160  34.0046415
  10.5319992  55.2209978  37.0440014  10.7159992  54.8879978  37.9220014
  11.3779992  55.5309978  36.7220014  10.6716484  55.2172979  37.1207617
  12.8769992  56.5069978  36.2880014  13.5539992  55.8739978  36.0480014
  13.1979992  56.9079978  37.0950014  13.0131323  56.4745691  36.3643158
  17.7939992  39.0969978  35.3670014  16.9809992  39.4219978  34.9800014
  18.0269992  38.3359978  34.8340014  17.7141347  39.0386880  35.2419841
   3.6219992  57.0789978  34.1320014   2.9019992  57.5189978  33.6810014
   3.2569992  56.8279978  34.9800014   3.4739643  57.1053369  34.1849129
   6.0889992  56.6789978  33.1620014   5.2249992  56.7509978  33.5660014
   6.0339992  57.2259978  32.3780014   5.9631942  56.7627849  33.1114000
  10.7999992  56.5669978  32.3370014  10.3429992  57.0959978  31.6830014
  10.9629992  57.1699978  33.0620014  10.7594960  56.7209280  32.3455274
  13.1279992  55.4449978  33.2820014  12.2229992  55.6099978  33.0160014
  13.5559992  56.2979978  33.2160014  13.0621537  55.5829134  33.2367095
  15.7319992  57.0149978  33.5770014  15.5499992  57.9309978  33.3660014
  15.9089992  56.6039978  32.7300014  15.7310030  57.0848273  33.4337166
   3.0369992  55.7019978  31.0420014   3.0189992  55.2759978  31.8990014
   3.8419992  55.3829978  30.6330014   3.1432875  55.6006435  31.1039515
   5.1779992  54.4119978  29.6970014   4.9589992  53.4949978  29.8670014
   6.0019992  54.5519978  30.1630014   5.2594702  54.3055511  29.7832527
   7.7149992  54.8819978  30.5460014   7.9279992  53.9939978  30.2590014
   7.7799992  54.8469978  31.5000014   7.7529149  54.7558326  30.6357369
  11.2239992  40.5459978  29.6900014  10.5499992  39.9159978  29.9460014
  11.7879992  40.0619978  29.0870014  11.2080384  40.3943708  29.6435020
  16.3669992  38.6529978  29.8030014  16.9699992  39.2009978  29.3010014
  15.4969992  38.9719978  29.5620014  16.3319157  38.7710373  29.7017910
  18.0939992  39.7919978  28.1360014  18.7049992  39.2779978  27.6090014
  18.4759992  40.6689978  28.1590014  18.2293305  39.8402050  28.0669418
   3.5509992  39.1799978  27.5120014   2.7739992  38.9449978  27.0050014
   4.0809992  38.3829978  27.5210014   3.5163451  39.0401268  27.4438627
   2.3869992  38.9779978  23.3160014   2.8259992  39.5889978  22.7240014
   1.7529992  39.5159978  23.7900014   2.3613859  39.1344064  23.2990305
   8.1299992  39.1059978  27.3250014   9.0039992  39.4949978  27.2960014
   7.9939992  38.8909978  28.2480014   8.2311953  39.1301643  27.4457617
  13.6869992  39.1359978  28.9750014  13.7629992  39.2319978  28.0250014
  13.4119992  38.2289978  29.1030014  13.6601871  39.0264146  28.8623944
  15.0399992  39.1619978  24.6670014  14.3369992  39.7769978  24.4570014
  14.5949992  38.3249978  24.7980014  14.8836550  39.1329668  24.6559837
   2.2879992  54.9259978  24.2130014   1.6029992  54.8879978  23.5460014
   2.2919992  55.8389978  24.5010014   2.1947621  55.0441924  24.1606126
   4.2479992  40.8939978  21.7580014   4.7389992  40.2639978  21.2310014
   4.8709992  41.1899978  22.4210014   4.3995304  40.8477376  21.7754940
   9.2739992  41.1869978  24.2150014   9.4519992  40.5399978  24.8980014
   9.2199992  42.0209978  24.6820014   9.2910678  41.2111604  24.3716301
  11.1519992  56.1349978  22.6110014  12.0179992  56.5019978  22.4330014
  10.9059992  55.6959978  21.7970014  11.2372097  56.1258525  22.4766019
  17.8609992  55.6979978  25.2900014  17.6669992  54.9499978  24.7250014
  17.8219992  56.4559978  24.7070014  17.8291645  55.6980786  25.1338148
   3.5079992  39.6939978  37.0300014   3.1419992  38.9279978  37.4720014
   4.4209992  39.7229978  37.3160014   3.5813172  39.5930324  37.1291890
   5.4809992  39.0439978  38.5650014   6.3799992  38.7699978  38.3810014
   5.0949992  38.3019978  39.0300014   5.5517307  38.9062196  38.6027098
   4.1059992  55.8459978  21.2380014   3.8379992  56.1319978  22.1120014
   4.8769992  55.2999978  21.3910014   4.1735926  55.8112779  21.3781205
  13.9029992  38.3769978  38.7480014  13.9789992  37.9509978  39.6010014
  14.7959992  38.3899978  38.4050014  14.0342303  38.3203493  38.8185497
  17.0789992  54.4499978  37.4400014  16.2969992  54.2629978  36.9200014
  17.0069992  55.3789978  37.6570014  16.9621924  54.5500637  37.3981602
  31.4849992  48.3359978  27.4710014  31.5739992  49.2799978  27.3390014
  30.8469992  48.0609978  26.8130014  31.4109062  48.4279812  27.3639641
  30.4179992  47.5909978  30.8900014  30.3799992  46.9449978  31.5950014
  30.0959992  47.1239978  30.1190014  30.3692679  47.4394276  30.8822921
  22.7859992  47.2049978  32.4830014  22.8279992  46.5799978  33.2060014
  23.4889992  47.8289978  32.6650014  22.8867345  47.2037873  32.6065274
  34.1239992  50.5299978  29.1910014  33.6829992  49.8099978  29.6420014
  34.1109992  51.2509978  29.8210014  34.0619215  50.5289291  29.3378105
  23.7099992  51.6549978  31.0180014  23.3399992  50.8529978  30.6480014
  24.6509992  51.4869978  31.0640014  23.7865984  51.5224638  30.9735603
  20.3199992  45.3149978  26.4100014  19.8719992  46.1609978  26.3920014
  19.7589992  44.7359978  25.8950014  20.1828546  45.3523993  26.3378891
  21.0299992  47.4769978  28.5360014  21.2439992  46.7069978  29.0640014
  21.7679992  47.5669978  27.9330014  21.1590200  47.3838587  28.5267035
  31.2359992  55.6339978  29.4030014  31.8549992  54.9579978  29.1300014
  31.0269992  55.4159978  30.3120014  31.2926056  55.5118869  29.4883967
  28.8069992  50.0229978  31.2960014  29.1109992  49.3369978  30.7010014
  29.5289992  50.1419978  31.9140014  28.9461240  49.9452314  31.2980959
  37.4699992  41.6249978  32.1560014  37.5199992  42.2349978  32.8920014
  37.8959992  42.0859978  31.4330014  37.5344108  41.7707709  32.1590112
  31.9479992  44.4169978  31.6230014  32.0909992  43.4709978  31.6430014
  31.8419992  44.6239978  30.6950014  31.9532403  44.3154797  31.5002239
  25.1029992  42.5189978  28.8960014  25.1459992  43.3789978  28.4770014
  24.6449992  41.9669978  28.2620014  25.0469871  42.5619245  28.7530761
  32.8249992  42.6499978  27.2970014  33.4719992  42.3209978  27.9210014
  33.3349992  43.1669978  26.6740014  32.9824351  42.6749067  27.2981037
  21.7229992  44.9159978  29.6580014  22.3769992  44.3659978  30.0900014
  21.7469992  44.6419978  28.7410014  21.8157199  44.8037167  29.5931668
  26.8799992  46.4659978  28.8730014  27.4959992  45.9389978  29.3820014
  26.2929992  45.8259978  28.4690014  26.8850154  46.3073954  28.8880945
  37.8619992  43.1029978  34.3920014  37.1729992  43.7609978  34.2970014
  37.8769992  42.9049978  35.3290014  37.7697756  43.1662603  34.5055812
  23.9129992  41.4369978  32.9700014  23.6939992  41.9669978  32.2030014
  23.2449992  41.6629978  33.6170014  23.7926975  41.5400967  32.9525140
  31.2819992  50.9369978  26.5140014  30.9869992  50.6139978  25.6620014
  30.9579992  51.8369978  26.5550014  31.1978460  51.0144464  26.4029714
  26.4819992  49.1119978  33.2570014  25.7419992  49.7109978  33.3610014
  27.1959992  49.6659978  32.9420014  26.4773500  49.2687829  33.2286371
  34.5889992  41.9409978  29.2770014  34.3739992  41.1749978  29.8100014
  35.2449992  42.4129978  29.7900014  34.6482673  41.9000728  29.4191990
  23.5069992  43.3289978  30.9220014  24.1209992  43.9619978  31.2950014
  24.0189992  42.8569978  30.2660014  23.6601962  43.3517249  30.8842935
  24.8899992  51.0769978  34.0440014  24.8839992  51.9559978  33.6660014
  24.0359992  50.9929978  34.4690014  24.7737925  51.1859535  34.0496887
  21.0109992  50.7479978  24.8260014  20.7389992  50.9769978  23.9380014
  21.0559992  51.5849978  25.2870014  20.9798097  50.8926163  24.7666683
  34.6359992  52.3689978  31.5390014  33.6939992  52.4279978  31.7010014
  34.9119992  53.2749978  31.4020014  34.5445865  52.4995288  31.5426192
  34.9359992  40.6559978  32.9560014  34.1999992  41.2659978  32.9190014
  35.6199992  41.0709978  32.4300014  34.9275367  40.7957551  32.8798174
  27.9399992  38.7419978  30.4220014  27.8219992  37.7939978  30.3680014
  27.0849992  39.0749978  30.6950014  27.8082805  38.6572202  30.4515079
  32.8879992  54.1499978  28.1640014  33.3129992  53.4429978  27.6790014
  33.2049992  54.9519978  27.7470014  32.9890266  54.1615190  28.0412479
  34.0479992  52.0509978  26.6730014  33.7899992  51.3609978  26.0610014
  34.1189992  51.6079978  27.5180014  34.0223050  51.8966814  26.7035621
  35.7339992  50.6179978  35.1500014  35.8729992  50.0259978  34.4110014
  35.9009992  51.4909978  34.7940014  35.7756193  50.6548896  35.0006211
  30.2059992  47.5799978  24.9230014  29.4949992  48.1149978  24.5710014
  30.8969992  47.6349978  24.2630014  30.2020751  47.6606777  24.7855858
  30.2599992  46.0369978  21.9610014  30.9609992  46.0599978  22.6130014
  30.5619992  45.4089978  21.3050014  30.3968202  45.9552212  21.9615609
  37.5749992  46.9579978  33.2160014  36.9229992  47.6519978  33.3050014
  38.0409992  47.1679978  32.4060014  37.5485937  47.0815019  33.1187533
  33.6119992  47.7889978  25.8740014  32.8799992  48.0179978  26.4480014
  34.0589992  47.0759978  26.3290014  33.5723963  47.7238729  26.0139945
  33.5089992  45.9639978  34.9420014  33.5889992  46.7269978  35.5140014
  32.9079992  46.2429978  34.2520014  33.4386547  46.1062457  34.9270047
  25.2569992  48.4199978  27.7570014  24.9269992  48.0489978  26.9390014
  25.8459992  47.7489978  28.1040014  25.2913970  48.2786063  27.6919404
  26.6239992  51.8479978  30.4380014  26.5289992  51.2689978  29.6820014
  27.3529992  51.4769978  30.9340014  26.7096011  51.7185561  30.4016028
  25.6239992  47.1879978  31.3900014  26.1889992  47.3099978  30.6280014
  25.9429992  47.8259978  32.0290014  25.7444166  47.2908791  31.3720348
  31.9329992  52.6919978  32.1240014  31.6929992  53.3539978  32.7720014
  31.7349992  51.8569978  32.5490014  31.8733826  52.6698115  32.2701566
  26.5039992  51.5879978  36.1080014  26.1929992  52.3699978  36.5630014
  25.8539992  51.4349978  35.4220014  26.3735538  51.6744087  36.0775898
  32.4829992  46.9519978  23.5600014  33.0619992  47.1019978  24.3060014
  32.8969992  47.4219978  22.8360014  32.6183358  47.0360954  23.5643953
  23.4239992  47.7859978  35.3360014  23.4939992  48.4369978  36.0350014
  22.5329992  47.8889978  35.0010014  23.3131690  47.8889249  35.3863043
  30.2089992  53.6879978  26.9950014  30.6829992  53.9839978  27.7720014
  29.6459992  54.4269978  26.7620014  30.1977890  53.8283036  27.0698101
  24.7429992  53.6589978  36.8710014  24.7509992  53.5229978  35.9240014
  23.8269992  53.5419978  37.1230014  24.6202528  53.6245463  36.7753243
  36.1819992  38.7019978  23.3730014  35.2819992  38.8409978  23.6680014
  36.4339992  39.5329978  22.9710014  36.0928683  38.8334055  23.3590232
  24.2479992  47.4889978  25.3460014  23.9559992  48.2569978  24.8550014
  23.5729992  46.8299978  25.1830014  24.1168497  47.5049745  25.2568260
  37.3709992  53.0679978  21.7490014  37.4439992  54.0069978  21.9190014
  38.2759992  52.7629978  21.6930014  37.5034170  53.1553282  21.7647063
  20.3409992  49.8519978  34.1610014  19.8389992  49.8239978  33.3460014
  20.3459992  48.9469978  34.4710014  20.2729832  49.7257486  34.0914121
  20.0909992  52.6329978  31.0450014  21.0369992  52.4879978  31.0260014
  19.9779992  53.4169978  31.5820014  20.2053578  52.7191697  31.1150317
  38.2889992  53.2989978  36.7280014  38.2389992  52.3429978  36.6900014
  37.4619992  53.5659978  37.1290014  38.1703831  53.2044680  36.7770121
  29.2669992  52.8729978  35.6040014  29.3549992  53.6989978  36.0790014
  28.4039992  52.5429978  35.8530014  29.1623357  52.9415468  35.7027653
  29.6819992  56.6449978  25.4100014  29.6059992  56.5239978  24.4630014
  29.7139992  57.5939978  25.5280014  29.6759380  56.7567677  25.2965181
  23.3349992  55.4339978  27.1910014  23.4869992  55.0859978  28.0690014
  22.4839992  55.0769978  26.9350014  23.2408344  55.3380879  27.2766868
  32.7829992  55.7989978  22.4120014  33.1579992  55.0549978  21.9410014
  32.7879992  55.5289978  23.3300014  32.8350098  55.6606392  22.4716629
  32.4519992  55.7249978  25.1610014  31.5169992  55.8249978  25.3400014
  32.7319992  55.0149978  25.7400014  32.3619471  55.6427933  25.2636695
  35.4409992  44.7919978  37.2080014  35.0329992  45.2719978  36.4870014
  35.4809992  43.8859978  36.9000014  35.3906221  44.7352449  37.0678267
  22.5899992  51.1759978  35.2040014  22.8059992  50.8139978  36.0640014
  21.7339992  50.8009978  34.9950014  22.5038810  51.0758837  35.2932680
  25.2079992  39.6459978  31.2000014  24.3469992  39.5589978  30.7920014
  25.1859992  40.5019978  31.6280014  25.0870491  39.7498003  31.2019582
  29.8709992  39.3679978  34.5750014  30.2909992  38.9529978  35.3280014
  28.9379992  39.1889978  34.6920014  29.8023736  39.2869910  34.6938968
  33.1979992  43.1229978  35.4280014  32.6839992  42.9979978  36.2260014
  33.0419992  44.0359978  35.1840014  33.1066967  43.2292123  35.5040937
  33.9599992  47.9839978  21.1890014  34.0019992  47.7619978  20.2590014
  34.8089992  48.3829978  21.3790014  34.0805253  48.0075498  21.0873822
  29.5329992  41.8599978  21.8600014  29.2789992  41.8789978  22.7820014
  29.2759992  40.9889978  21.5580014  29.4634508  41.7448280  21.9454803
  25.2989992  44.6109978  32.2950014  24.6579992  44.5709978  33.0040014
  25.3369992  45.5379978  32.0570014  25.2163010  44.7307668  32.3599946
  25.2959992  44.8319978  27.2070014  24.4039992  44.4919978  27.1480014
  25.7469992  44.4549978  26.4510014  25.2347642  44.7344910  27.0967726
  30.8319992  45.2479978  26.0240014  30.4229992  46.0629978  25.7320014
  31.5519992  45.1079978  25.4100014  30.8734439  45.3405372  25.9010115
  29.9339992  45.4239978  37.5120014  29.3709992  44.7189978  37.8330014
  30.7599992  45.3029978  37.9800014  29.9686674  45.3112165  37.6191751
  31.8369992  44.6939978  28.8380014  31.6409992  45.2999978  28.1230014
  32.0179992  43.8609978  28.4040014  31.8346584  44.6642513  28.6814212
  23.0489992  44.9319978  34.1620014  23.0109992  45.3319978  35.0310014
  22.5589992  44.1149978  34.2520014  22.9775330  44.8762674  34.2931289
  26.4149992  42.3059978  20.9610014  25.9839992  41.8609978  21.6900014
  25.6969992  42.6769978  20.4480014  26.2589176  42.2952051  20.9914930
  19.6579992  42.0479978  28.0130014  20.2879992  42.0189978  28.7320014
  20.1069992  41.6229978  27.2820014  19.8050835  41.9865660  28.0127659
  20.9319992  42.7939978  23.4370014  21.4059992  43.3849978  22.8520014
  20.2139992  43.3239978  23.7840014  20.8998640  42.9465511  23.4037969
  31.1009992  46.3319978  33.5090014  31.4239992  45.7009978  32.8660014
  30.6599992  45.7979978  34.1700014  31.0856379  46.1733468  33.5102582
  27.8779992  42.2599978  28.2930014  26.9669992  42.3169978  28.5820014
  28.3829992  42.1999978  29.1040014  27.8216873  42.2596826  28.4421207
  22.7059992  43.8889978  27.1200014  21.8169992  43.9879978  26.7800014
  23.0029992  43.0469978  26.7740014  22.6244177  43.7887687  27.0266940
  26.3589992  43.8889978  24.7770014  27.2909992  44.0179978  24.9550014
  26.1439992  44.5579978  24.1270014  26.4574472  43.9970806  24.7134891
  32.2829992  41.4949978  31.5580014  31.6059992  41.6259978  32.2210014
  31.7979992  41.3399978  30.7470014  32.1247405  41.4919947  31.5392170
  25.0329992  45.0829978  22.3430014  24.4909992  44.7039978  21.6520014
  25.8669992  45.2779978  21.9150014  25.0714390  45.0574079  22.1904392
  35.5709992  57.1659978  37.8340014  35.7699992  57.5899978  37.0000014
  36.2259992  57.5099978  38.4410014  35.6868522  57.2706301  37.8017852
  23.1689992  49.6399978  37.4420014  23.9009992  49.8949978  38.0040014
  22.3879992  49.8449978  37.9580014  23.1636526  49.7025450  37.5885176
  29.1979992  45.0469978  30.1800014  29.7619992  44.5009978  29.6330014
  29.0499992  44.5259978  30.9690014  29.2553037  44.9016787  30.2117229
  24.1999992  41.1839978  26.5990014  23.8829992  40.2809978  26.5630014
  24.9809992  41.1859978  26.0460014  24.2622431  41.0607797  26.5193102
  27.8239992  43.4359978  32.5940014  26.9889992  43.8899978  32.7050014
  28.3479992  43.7119978  33.3460014  27.7806072  43.5353948  32.7108136
  28.3689992  49.6489978  24.2790014  27.6239992  49.1409978  23.9570014
  28.2339992  49.6979978  25.2250014  28.2488963  49.5861731  24.3628826
  35.5189992  48.7819978  33.0660014  36.1599992  49.2379978  32.5220014
  34.6879992  48.8949978  32.6030014  35.4945287  48.8596921  32.9289887
  32.2659992  42.4629978  22.4780014  31.3279992  42.5739978  22.3270014
  32.5639992  43.3189978  22.7850014  32.1776318  42.5940158  22.4988145
  29.8879992  49.8329978  35.5160014  29.5419992  49.4509978  36.3230014
  29.6879992  50.7659978  35.5870014  29.8135987  49.9069002  35.6360461
  32.9849992  44.3299978  24.1390014  33.8769992  44.1919978  24.4580014
  33.0409992  45.1209978  23.6020014  33.1147325  44.4179918  24.1101217
  23.4929992  48.9439978  30.0490014  24.2379992  48.9409978  29.4470014
  23.5709992  48.1199978  30.5300014  23.6053365  48.8322384  30.0317430
  30.4939992  51.1069978  23.3040014  30.1989992  51.9339978  23.6860014
  29.7909992  50.4879978  23.5010014  30.3586379  51.1364171  23.3828654
  20.5009992  47.4039978  35.3640014  20.7239992  46.9859978  36.1950014
  19.8989992  46.7919978  34.9410014  20.4501513  47.2639606  35.4206740
  27.5179992  46.9209978  37.5770014  27.2219992  46.7559978  36.6810014
  28.4489992  46.7009978  37.5660014  27.6034401  46.8686879  37.4530206
  32.1379992  52.2949978  35.4660014  31.2379992  52.4779978  35.1990014
  32.1719992  52.5539978  36.3870014  32.0193748  52.3550554  35.5539164
  37.8699992  44.5389978  23.8340014  37.3149992  44.1429978  23.1610014
  37.9699992  45.4499978  23.5560014  37.8076816  44.6079505  23.7045033
  37.8329992  50.3399978  36.6710014  36.9819992  50.5779978  36.3030014
  38.4229992  50.3229978  35.9180014  37.7963812  50.3702524  36.5188453
  36.1649992  53.3249978  24.2990014  35.7919992  52.4999978  24.6080014
  36.4419992  53.1419978  23.4010014  36.1513463  53.1872569  24.2199525
  33.3249992  48.1329978  31.3200014  32.3969992  47.9019978  31.2930014
  33.7759992  47.3559978  30.9900014  33.2588165  47.9962774  31.2716790
  25.8679992  52.4619978  27.4530014  26.3959992  53.2349978  27.2530014
  24.9879992  52.6859978  27.1510014  25.8213435  52.5982700  27.3847310
  21.6229992  47.3239978  22.0400014  22.2389992  47.9509978  22.4200014
  20.7609992  47.6399978  22.3120014  21.5907678  47.4524412  22.1287209
  27.2959992  50.1249978  27.0290014  27.0549992  51.0499978  27.0710014
  26.5549992  49.6659978  27.4260014  27.1629206  50.1895915  27.0883769
  27.8099992  54.2739978  33.3440014  28.1729992  55.1279978  33.1110014
  28.3419992  53.9819978  34.0850014  27.9315141  54.3513895  33.4122097
  25.9789992  55.1459978  26.5750014  25.0289992  55.2519978  26.6260014
  26.3309992  55.9669978  26.9190014  25.8965472  55.2714923  26.6284852
  31.3539992  50.3729978  33.0450014  30.9289992  50.1449978  33.8710014
  31.9349992  49.6339978  32.8630014  31.3743395  50.2419545  33.1334414
  33.5569992  51.3019978  22.1190014  33.9109992  50.9219978  22.9230014
  32.6089992  51.2079978  22.2060014  33.4772298  51.2372452  22.2408687
  34.0129992  54.9249978  35.5140014  33.4109992  54.3689978  35.0190014
  34.2939992  55.5919978  34.8880014  33.9685757  54.9390744  35.3615675
  38.0609992  55.7809978  22.3200014  38.8049992  56.3669978  22.1800014
  37.3669992  56.3499978  22.6530014  38.0689809  55.9380818  22.3458590
  22.1349992  42.1579978  34.9220014  21.2429992  42.4959978  34.8540014
  22.0369992  41.3019978  35.3400014  21.9994475  42.0886543  34.9691704
  34.4229992  49.9739978  24.3460014  34.1459992  49.2459978  24.9020014
  35.3509992  50.0929978  24.5510014  34.5104499  49.8904213  24.4498044
  21.7869992  53.9619978  33.3570014  22.0039992  53.0299978  33.3260014
  22.0329992  54.2369978  34.2400014  21.8499809  53.8715686  33.4721690
  27.6479992  52.4139978  20.5660014  27.8869992  51.6649978  20.0190014
  27.3789992  52.0259978  21.3990014  27.6443233  52.2591853  20.6037809
  26.5849992  51.9839978  23.0220014  26.7319992  51.4639978  23.8120014
  26.5819992  52.8909978  23.3290014  26.6047102  52.0353953  23.1715925
  23.0379992  49.2359978  23.5330014  22.3519992  49.5889978  24.1000014
  23.5609992  49.9989978  23.2860014  23.0148402  49.3873901  23.5771801
  30.8699992  41.8989978  33.8120014  31.5689992  41.9729978  34.4620014
  30.4889992  41.0339978  33.9660014  30.9142097  41.7922389  33.9217997
  31.6539992  41.5509978  24.9090014  31.8739992  42.0219978  24.1050014
  32.2129992  41.9449978  25.5790014  31.7596731  41.6687287  24.8895033
  29.3229992  53.6809978  23.7720014  28.5059992  54.1779978  23.8240014
  29.8519992  54.1569978  23.1310014  29.2828125  53.8131989  23.6925306
  28.8539992  43.2789978  25.7440014  29.6659992  43.7829978  25.7900014
  28.6099992  43.1339978  26.6580014  28.9321467  43.3283749  25.8738575
  29.3899992  44.2649978  34.9280014  29.5089992  44.8389978  35.6850014
  30.0449992  43.5769978  35.0430014  29.4948684  44.2505194  35.0471674
  29.7379992  40.3599978  26.6820014  29.3909992  40.9769978  27.3260014
  30.3969992  40.8609978  26.2000014  29.7795090  40.5121575  26.7050681
  26.6609992  54.7249978  23.7530014  26.8219992  55.5249978  23.2530014
  26.4639992  55.0319978  24.6380014  26.6563906  54.8758678  23.8042333
  25.3959992  41.4229978  23.3690014  25.3119992  42.3109978  23.7160014
  26.2859992  41.1579978  23.6010014  25.5048163  41.5087179  23.4478596
  35.5939992  42.1719978  35.7630014  34.6779992  42.4339978  35.6760014
  35.9299992  42.1689978  34.8670014  35.5138499  42.2075163  35.6298766
  34.1969992  45.9219978  29.8590014  33.3989992  45.5069978  29.5310014
  34.6419992  45.2319978  30.3500014  34.1479684  45.7718628  29.8805227
  23.6539992  51.8499978  22.4290014  24.2459992  52.5499978  22.7060014
  24.1129992  51.4169978  21.7100014  23.7971652  51.8872675  22.3696533
  21.9699992  44.5149978  21.5450014  21.9249992  45.4539978  21.7240014
  21.0819992  44.2789978  21.2760014  21.8438166  44.6116687  21.5331524
  35.2829992  55.1779978  31.4810014  35.1269992  55.8569978  30.8240014
  36.2159992  55.2499978  31.6840014  35.3877387  55.2806390  31.4185342
  22.7779992  39.2959978  30.2190014  22.5489992  39.3549978  29.2910014
  22.3359992  38.5049978  30.5250014  22.6868801  39.1970540  30.1334729
  21.7089992  53.2369978  26.3790014  20.8759992  53.7089978  26.4060014
  22.2539992  53.7469978  25.7800014  21.6687857  53.3704791  26.3017142
  20.9969992  55.8489978  37.7090014  21.5369992  55.6329978  38.4690014
  20.5159992  55.0439978  37.5190014  21.0059219  55.7105156  37.7874282
  25.5939992  54.7689978  39.3290014  26.3619992  54.3099978  39.6700014
  25.5729992  54.5429978  38.3990014  25.6962135  54.6756668  39.2499491
  29.6859992  54.2769978  20.7050014  29.0419992  53.6459978  21.0260014
  30.4479992  53.7459978  20.4730014  29.7008058  54.1187902  20.7176038
  32.1709992  53.1489978  38.0580014  31.8199992  52.2919978  38.3020014
  32.8969992  53.2909978  38.6650014  32.2211895  53.0511351  38.1733770
  34.2909992  54.0939978  20.9380014  34.5739992  53.2989978  21.3910014
  35.0299992  54.3269978  20.3770014  34.4297096  54.0167049  20.9241104
  20.9039992  49.6599978  38.6630014  21.0479992  48.7579978  38.3770014
  20.1319992  49.9459978  38.1760014  20.8192733  49.5751798  38.5579532
  25.2449992  50.0029978  20.7960014  25.3099992  49.2089978  21.3260014
  25.8979992  49.8849978  20.1060014  25.3421605  49.8783430  20.7752997
  27.5589992  49.6289978  38.0960014  27.2309992  49.8999978  37.2390014
  27.7109992  48.6879978  38.0080014  27.5346412  49.5389046  37.9667822
  30.5979992  51.0499978  20.5320014  30.3289992  51.2309978  21.4320014
  30.3909992  50.1249978  20.4000014  30.5331191  50.9497119  20.6375524
  33.2939992  49.5449978  35.4790014  34.0389992  50.1339978  35.3600014
  32.5369992  50.1269978  35.5430014  33.2935470  49.7042128  35.4713799
  21.7369992  46.8599978  38.0830014  22.1449992  46.0029978  37.9620014
  21.4759992  46.8739978  39.0040014  21.7576016  46.7445119  38.1909192
  26.3949992  47.9759978  23.1020014  25.9349992  47.4919978  23.7870014
  26.6499992  47.3069978  22.4660014  26.3664856  47.8193669  23.1098397
  25.6839992  45.8689978  35.4580014  25.0649992  46.5429978  35.7380014
  26.0279992  46.1899978  34.6240014  25.6457123  46.0046887  35.3836388
  27.4659992  46.2189978  21.3640014  27.2849992  46.0639978  20.4370014
  28.4159992  46.3269978  21.4090014  27.5696566  46.2123669  21.2430929
  30.7029992  48.3399978  38.7350014  31.6569992  48.4239978  38.7080014
  30.5429992  47.6279978  39.3550014  30.8117182  48.2552842  38.8150733
  36.8559992  48.5729978  20.8100014  36.5819992  48.1489978  19.9970014
  36.8949992  49.5049978  20.5930014  36.8237716  48.6408827  20.6694286
  26.0229992  43.2239978  36.5400014  26.1729992  42.4949978  35.9380014
  26.0249992  44.0009978  35.9810014  26.0437967  43.2292708  36.3820541
  26.4359992  41.5929978  34.0330014  26.9709992  42.0449978  33.3810014
  25.5829992  41.4849978  33.6100014  26.3940374  41.6402665  33.8866710
  28.0169992  47.0329978  34.2720014  28.7679992  46.8769978  33.6990014
  27.6779992  47.8849978  33.9970014  28.0739587  47.1268138  34.1564078
  32.4329992  44.8479978  39.3010014  32.6249992  43.9169978  39.1890014
  33.2909992  45.2729978  39.2900014  32.5752182  44.7780070  39.2841862
  33.7499992  47.6369978  37.3780014  33.4679992  48.3459978  36.8000014
  34.6919992  47.5639978  37.2270014  33.8387921  47.7242193  37.2784225
  24.5019992  44.4219978  38.4510014  23.7339992  43.8889978  38.2410014
  25.1799992  44.1119978  37.8520014  24.4887235  44.3071754  38.3412413
  27.2409992  39.0499978  34.4640014  27.1429992  39.9959978  34.3590014
  26.4989992  38.6769978  33.9880014  27.1272534  39.1291773  34.3852600
  28.5049992  43.3709978  38.0280014  28.2699992  43.1519978  38.9290014
  27.7219992  43.1639978  37.5180014  28.3669095  43.3129892  38.0825353
  31.2209992  42.4989978  37.1030014  30.2729992  42.5309978  37.2350014
  31.5329992  41.8729978  37.7570014  31.1335293  42.4187923  37.2094148
  32.8549992  41.1329978  39.1080014  32.7579992  40.1809978  39.1030014
  32.5329992  41.4009978  39.9690014  32.7982468  41.0390884  39.2236210
  22.6819992  42.3419978  38.1560014  22.8939992  41.6359978  37.5460014
  22.5709992  41.9049978  39.0000014  22.6960269  42.1861921  38.1865873
  27.4629992  38.3439978  37.1350014  28.1749992  37.7039978  37.1210014
  27.3619992  38.6099978  36.2220014  27.5467387  38.2924330  37.0095563
  27.8169992  40.0259978  39.1890014  27.6849992  39.5509978  38.3690014
  27.2169992  40.7709978  39.1340014  27.7179070  40.0615789  39.0693251
  27.3629992  56.9089978  22.3650014  28.2959992  57.0669978  22.5090014
  27.0989992  57.5849978  21.7400014  27.4549911  57.0219373  22.3002722
  20.9309992  51.5459978  21.8480014  21.8449992  51.6249978  22.1210014
  20.9389992  50.8589978  21.1820014  21.0570655  51.4639205  21.7952917
  19.5799992  56.9389978  26.9250014  18.9329992  56.4769978  26.3930014
  19.9349992  56.2669978  27.5080014  19.5393741  56.7849774  26.9309175
  20.4499992  55.0189978  28.7300014  20.1159992  54.1389978  28.9020014
  20.6729992  55.3649978  29.5950014  20.4343721  54.9451938  28.8704168
  37.9989992  55.8289978  31.7110014  37.9769992  56.0139978  32.6500014
  38.6889992  56.3969978  31.3700014  38.0893439  55.9311887  31.7934791
  37.5619992  55.3959978  34.6320014  37.0749992  54.6609978  34.2610014
  38.1109992  55.0019978  35.3100014  37.5695247  55.2421057  34.6728461
  36.0129992  51.1859978  39.2710014  35.1469992  51.0809978  39.6650014
  36.3889992  51.9439978  39.7170014  35.9453401  51.2741708  39.3852620
  37.3139992  49.4419978  24.7850014  38.1639992  49.8629978  24.9120014
  37.3189992  48.7019978  25.3920014  37.4311143  49.3996094  24.8844750
  37.7079992  47.4959978  26.6080014  36.9819992  47.0159978  27.0060014
  38.2899992  47.7009978  27.3410014  37.6872730  47.4580184  26.7614149
  37.4669992  50.2809978  31.5560014  38.3009992  49.9029978  31.2750014
  37.5789992  51.2239978  31.4370014  37.5961917  50.3567943  31.5014861
  35.9539992  53.1589978  33.8630014  35.3059992  53.4839978  34.4880014
  35.4359992  52.7179978  33.1890014  35.7954196  53.1438651  33.8574152
  37.9769992  47.3969978  22.9990014  37.4549992  47.7529978  22.2810014
  37.9439992  48.0719978  23.6780014  37.9010129  47.5369598  22.9923355
  36.3259992  44.6359978  21.5500014  36.4219992  45.3029978  20.8700014
  36.1859992  43.8209978  21.0690014  36.3202040  44.6170671  21.3918378
  35.4949992  46.0169978  27.1710014  35.3449992  45.0719978  27.1510014
  35.1409992  46.2979978  28.0150014  35.4266351  45.9256644  27.2823220
  20.5299992  48.0949978  31.1820014  20.7149992  48.0129978  30.2460014
  21.3799992  47.9709978  31.6050014  20.6700928  48.0670463  31.1112893
  36.3509992  47.9869978  36.8100014  36.9339992  47.2519978  37.0020014
  36.9149992  48.7589978  36.8570014  36.5069781  47.9908145  36.8426164
  37.8479992  45.8899978  37.4950014  36.9849992  45.5109978  37.3290014
  38.4519992  45.1509978  37.4200014  37.8116085  45.7383223  37.4621695
  35.5729992  42.0439978  20.6680014  36.1839992  41.6729978  21.3050014
  34.7359992  41.6229978  20.8640014  35.5434947  41.9362756  20.7817252
  35.2059992  43.5989978  25.6340014  35.4849992  42.6919978  25.7580014
  35.9649992  44.0329978  25.2450014  35.3468619  43.5334502  25.5983795
  35.8169992  44.1809978  31.0700014  36.7499992  44.3929978  31.0350014
  35.5819992  44.2819978  31.9920014  35.9129517  44.2236833  31.1899130
  35.8469992  44.9179978  33.8460014  35.0039992  45.1859978  34.2120014
  36.2889992  45.7399978  33.6350014  35.7914138  45.0658273  33.8675518
  20.1279992  43.3649978  37.3220014  21.0469992  43.2429978  37.5590014
  19.6779992  42.6149978  37.7120014  20.1930087  43.2469608  37.4071410
  38.1299992  38.8979978  39.1990014  38.4789992  38.2439978  38.5940014
  38.2769992  39.7349978  38.7590014  38.1976824  38.9216024  39.0566304
  35.8189992  40.8619978  25.6820014  36.0009992  40.4129978  26.5070014
  35.2189992  40.2779978  25.2180014  35.7628187  40.7215552  25.7322739
  21.3489992  41.6779978  30.2140014  21.7939992  40.8859978  30.5160014
  21.8149992  42.3939978  30.6440014  21.4729718  41.6664534  30.3135265
  19.6529992  44.6769978  31.2830014  20.1449992  44.4559978  30.4920014
  20.0149992  45.5169978  31.5640014  19.7692923  44.7603468  31.2127407
  37.6489992  41.0069978  37.5480014  36.7319992  41.2779978  37.5130014
  37.7719992  40.4719978  36.7640014  37.5399672  40.9717885  37.4371862
  37.6859992  40.9299978  22.2100014  38.0979992  40.2089978  21.7350014
  38.3669992  41.5989978  22.2680014  37.8345536  40.9217766  22.1528024
  19.9669992  40.9349978  25.3370014  19.0419992  41.1429978  25.2080014
  20.4209992  41.4189978  24.6470014  19.9016298  41.0289299  25.2260451
  34.7369992  55.9189978  27.2830014  35.3899992  55.5709978  26.6750014
  35.2479992  56.4069978  27.9290014  34.8952777  55.9373815  27.2872047
  19.9299992  39.6729978  33.6810014  19.2649992  39.4269978  34.3240014
  19.4869992  40.2949978  33.1040014  19.7791168  39.7234214  33.6909848
  22.1219992  52.8479978  37.8260014  21.3009992  53.0229978  37.3650014
  21.8699992  52.7749978  38.7460014  21.9755594  52.8620717  37.8873611
  25.0759992  53.8219978  34.0840014  24.6519992  54.6319978  33.8020014
  25.9809992  53.9079978  33.7820014  25.1402138  53.9444160  34.0046415
  29.3879992  55.2209978  37.0440014  29.5719992  54.8879978  37.9220014
  30.2339992  55.5309978  36.7220014  29.5276484  55.2172979  37.1207617
  31.7329992  56.5069978  36.2880014  32.4099992  55.8739978  36.0480014
  32.0539992  56.9079978  37.0950014  31.8691323  56.4745691  36.3643158
  36.6499992  39.0969978  35.3670014  35.8369992  39.4219978  34.9800014
  36.8829992  38.3359978  34.8340014  36.5701347  39.0386880  35.2419841
  22.4779992  57.0789978  34.1320014  21.7579992  57.5189978  33.6810014
  22.1129992  56.8279978  34.9800014  22.3299643  57.1053369  34.1849129
  24.9449992  56.6789978  33.1620014  24.0809992  56.7509978  33.5660014
  24.8899992  57.2259978  32.3780014  24.8191942  56.7627849  33.1114000
  29.6559992  56.5669978  32.3370014  29.1989992  57.0959978  31.6830014
  29.8189992  57.1699978  33.0620014  29.6154960  56.7209280  32.3455274
  31.9839992  55.4449978  33.2820014  31.0789992  55.6099978  33.0160014
  32.4119992  56.2979978  33.2160014  31.9181537  55.5829134  33.2367095
  34.5879992  57.0149978  33.5770014  34.4059992  57.9309978  33.3660014
  34.7649992  56.6039978  32.7300014  34.5870030  57.0848273  33.4337166
  21.8929992  55.7019978  31.0420014  21.8749992  55.2759978  31.8990014
  22.6979992  55.3829978  30.6330014  21.9992875  55.6006435  31.1039515
  24.0339992  54.4119978  29.6970014  23.8149992  53.4949978  29.8670014
  24.8579992  54.5519978  30.1630014  24.1154702  54.3055511  29.7832527
  26.5709992  54.8819978  30.5460014  26.7839992  53.9939978  30.2590014
  26.6359992  54.8469978  31.5000014  26.6089149  54.7558326  30.6357369
  30.0799992  40.5459978  29.6900014  29.4059992  39.9159978  29.9460014
  30.6439992  40.0619978  29.0870014  30.0640384  40.3943708  29.6435020
  35.2229992  38.6529978  29.8030014  35.8259992  39.2009978  29.3010014
  34.3529992  38.9719978  29.5620014  35.1879157  38.7710373  29.7017910
  36.9499992  39.7919978  28.1360014  37.5609992  39.2779978  27.6090014
  37.3319992  40.6689978  28.1590014  37.0853305  39.8402050  28.0669418
  22.4069992  39.1799978  27.5120014  21.6299992  38.9449978  27.0050014
  22.9369992  38.3829978  27.5210014  22.3723451  39.0401268  27.4438627
  21.2429992  38.9779978  23.3160014  21.6819992  39.5889978  22.7240014
  20.6089992  39.5159978  23.7900014  21.2173859  39.1344064  23.2990305
  26.9859992  39.1059978  27.3250014  27.8599992  39.4949978  27.2960014
  26.8499992  38.8909978  28.2480014  27.0871953  39.1301643  27.4457617
  32.5429992  39.1359978  28.9750014  32.6189992  39.2319978  28.0250014
  32.2679992  38.2289978  29.1030014  32.5161871  39.0264146  28.8623944
  33.8959992  39.1619978  24.6670014  33.1929992  39.7769978  24.4570014
  33.4509992  38.3249978  24.7980014  33.7396550  39.1329668  24.6559837
  21.1439992  54.9259978  24.2130014  20.4589992  54.8879978  23.5460014
  21.1479992  55.8389978  24.5010014  21.0507621  55.0441924  24.1606126
  23.1039992  40.8939978  21.7580014  23.5949992  40.2639978  21.2310014
  23.7269992  41.1899978  22.4210014  23.2555304  40.8477376  21.7754940
  28.1299992  41.1869978  24.2150014  28.3079992  40.5399978  24.8980014
  28.0759992  42.0209978  24.6820014  28.1470678  41.2111604  24.3716301
  30.0079992  56.1349978  22.6110014  30.8739992  56.5019978  22.4330014
  29.7619992  55.6959978  21.7970014  30.0932097  56.1258525  22.4766019
  36.7169992  55.6979978  25.2900014  36.5229992  54.9499978  24.7250014
  36.6779992  56.4559978  24.7070014  36.6851645  55.6980786  25.1338148
  22.3639992  39.6939978  37.0300014  21.9979992  38.9279978  37.4720014
  23.2769992  39.7229978  37.3160014  22.4373172  39.5930324  37.1291890
  24.3369992  39.0439978  38.5650014  25.2359992  38.7699978  38.3810014
  23.9509992  38.3019978  39.0300014  24.4077307  38.9062196  38.6027098
  22.9619992  55.8459978  21.2380014  22.6939992  56.1319978  22.1120014
  23.7329992  55.2999978  21.3910014  23.0295926  55.8112779  21.3781205
  32.7589992  38.3769978  38.7480014  32.8349992  37.9509978  39.6010014
  33.6519992  38.3899978  38.4050014  32.8902303  38.3203493  38.8185497
  35.9349992  54.4499978  37.4400014  35.1529992  54.2629978  36.9200014
  35.8629992  55.3789978  37.6570014  35.8181924  54.5500637  37.3981602
  50.3409992  48.3359978  27.4710014  50.4299992  49.2799978  27.3390014
  49.7029992  48.0609978  26.8130014  50.2669062  48.4279812  27.3639641
  49.2739992  47.5909978  30.8900014  49.2359992  46.9449978  31.5950014
  48.9519992  47.1239978  30.1190014  49.2252679  47.4394276  30.8822921
  41.6419992  47.2049978  32.4830014  41.6839992  46.5799978  33.2060014
  42.3449992  47.8289978  32.6650014  41.7427345  47.2037873  32.6065274
  52.9799992  50.5299978  29.1910014  52.5389992  49.8099978  29.6420014
  52.9669992  51.2509978  29.8210014  52.9179215  50.5289291  29.3378105
  42.5659992  51.6549978  31.0180014  42.1959992  50.8529978  30.6480014
  43.5069992  51.4869978  31.0640014  42.6425984  51.5224638  30.9735603
  39.1759992  45.3149978  26.4100014  38.7279992  46.1609978  26.3920014
  38.6149992  44.7359978  25.8950014  39.0388546  45.3523993  26.3378891
  39.8859992  47.4769978  28.5360014  40.0999992  46.7069978  29.0640014
  40.6239992  47.5669978  27.9330014  40.0150200  47.3838586  28.5267035
  50.0919992  55.6339978  29.4030014  50.7109992  54.9579978  29.1300014
  49.8829992  55.4159978  30.3120014  50.1486056  55.5118869  29.4883967
  47.6629992  50.0229978  31.2960014  47.9669992  49.3369978  30.7010014
  48.3849992  50.1419978  31.9140014  47.8021240  49.9452314  31.2980959
  56.3259992  41.6249978  32.1560014  56.3759992  42.2349978  32.8920014
  56.7519992  42.0859978  31.4330014  56.3904108  41.7707709  32.1590112
  50.8039992  44.4169978  31.6230014  50.9469992  43.4709978  31.6430014
  50.6979992  44.6239978  30.6950014  50.8092403  44.3154797  31.5002239
  43.9589992  42.5189978  28.8960014  44.0019992  43.3789978  28.4770014
  43.5009992  41.9669978  28.2620014  43.9029871  42.5619245  28.7530761
  51.6809992  42.6499978  27.2970014  52.3279992  42.3209978  27.9210014
  52.1909992  43.1669978  26.6740014  51.8384351  42.6749067  27.2981037
  40.5789992  44.9159978  29.6580014  41.2329992  44.3659978  30.0900014
  40.6029992  44.6419978  28.7410014  40.6717199  44.8037167  29.5931668
  45.7359992  46.4659978  28.8730014  46.3519992  45.9389978  29.3820014
  45.1489992  45.8259978  28.4690014  45.7410154  46.3073954  28.8880945
  56.7179992  43.1029978  34.3920014  56.0289992  43.7609978  34.2970014
  56.7329992  42.9049978  35.3290014  56.6257756  43.1662603  34.5055812
  42.7689992  41.4369978  32.9700014  42.5499992  41.9669978  32.2030014
  42.1009992  41.6629978  33.6170014  42.6486975  41.5400967  32.9525140
  50.1379992  50.9369978  26.5140014  49.8429992  50.6139978  25.6620014
  49.8139992  51.8369978  26.5550014  50.0538460  51.0144464  26.4029714
  45.3379992  49.1119978  33.2570014  44.5979992  49.7109978  33.3610014
  46.0519992  49.6659978  32.9420014  45.3333500  49.2687829  33.2286371
  53.4449992  41.9409978  29.2770014  53.2299992  41.1749978  29.8100014
  54.1009992  42.4129978  29.7900014  53.5042673  41.9000728  29.4191990
  42.3629992  43.3289978  30.9220014  42.9769992  43.9619978  31.2950014
  42.8749992  42.8569978  30.2660014  42.5161962  43.3517249  30.8842935
  43.7459992  51.0769978  34.0440014  43.7399992  51.9559978  33.6660014
  42.8919992  50.9929978  34.4690014  43.6297925  51.1859535  34.0496887
  39.8669992  50.7479978  24.8260014  39.5949992  50.9769978  23.9380014
  39.9119992  51.5849978  25.2870014  39.8358097  50.8926163  24.7666683
  53.4919992  52.3689978  31.5390014  52.5499992  52.4279978  31.7010014
  53.7679992  53.2749978  31.4020014  53.4005865  52.4995288  31.5426192
  53.7919992  40.6559978  32.9560014  53.0559992  41.2659978  32.9190014
  54.4759992  41.0709978  32.4300014  53.7835367  40.7957551  32.8798174
  46.7959992  38.7419978  30.4220014  46.6779992  37.7939978  30.3680014
  45.9409992  39.0749978  30.6950014  46.6642805  38.6572202  30.4515079
  51.7439992  54.1499978  28.1640014  52.1689992  53.4429978  27.6790014
  52.0609992  54.9519978  27.7470014  51.8450266  54.1615190  28.0412479
  52.9039992  52.0509978  26.6730014  52.6459992  51.3609978  26.0610014
  52.9749992  51.6079978  27.5180014  52.8783050  51.8966814  26.7035621
  54.5899992  50.6179978  35.1500014  54.7289992  50.0259978  34.4110014
  54.7569992  51.4909978  34.7940014  54.6316193  50.6548896  35.0006211
  49.0619992  47.5799978  24.9230014  48.3509992  48.1149978  24.5710014
  49.7529992  47.6349978  24.2630014  49.0580751  47.6606777  24.7855858
  49.1159992  46.0369978  21.9610014  49.8169992  46.0599978  22.6130014
  49.4179992  45.4089978  21.3050014  49.2528202  45.9552212  21.9615609
  56.4309992  46.9579978  33.2160014  55.7789992  47.6519978  33.3050014
  56.8969992  47.1679978  32.4060014  56.4045937  47.0815019  33.1187533
  52.4679992  47.7889978  25.8740014  51.7359992  48.0179978  26.4480014
  52.9149992  47.0759978  26.3290014  52.4283963  47.7238729  26.0139945
  52.3649992  45.9639978  34.9420014  52.4449992  46.7269978  35.5140014
  51.7639992  46.2429978  34.2520014  52.2946547  46.1062457  34.9270047
  44.1129992  48.4199978  27.7570014  43.7829992  48.0489978  26.9390014
  44.7019992  47.7489978  28.1040014  44.1473970  48.2786063  27.6919404
  45.4799992  51.8479978  30.4380014  45.3849992  51.2689978  29.6820014
  46.2089992  51.4769978  30.9340014  45.5656011  51.7185561  30.4016028
  44.4799992  47.1879978  31.3900014  45.0449992  47.3099978  30.6280014
  44.7989992  47.8259978  32.0290014  44.6004166  47.2908791  31.3720348
  50.7889992  52.6919978  32.1240014  50.5489992  53.3539978  32.7720014
  50.5909992  51.8569978  32.5490014  50.7293826  52.6698115  32.2701566
  45.3599992  51.5879978  36.1080014  45.0489992  52.3699978  36.5630014
  44.7099992  51.4349978  35.4220014  45.2295538  51.6744087  36.0775898
  51.3389992  46.9519978  23.5600014  51.9179992  47.1019978  24.3060014
  51.7529992  47.4219978  22.8360014  51.4743358  47.0360955  23.5643953
  42.2799992  47.7859978  35.3360014  42.3499992  48.4369978  36.0350014
  41.3889992  47.8889978  35.0010014  42.1691690  47.8889249  35.3863043
  49.0649992  53.6879978  26.9950014  49.5389992  53.9839978  27.7720014
  48.5019992  54.4269978  26.7620014  49.0537890  53.8283036  27.0698101
  43.5989992  53.6589978  36.8710014  43.6069992  53.5229978  35.9240014
  42.6829992  53.5419978  37.1230014  43.4762528  53.6245463  36.7753243
  55.0379992  38.7019978  23.3730014  54.1379992  38.8409978  23.6680014
  55.2899992  39.5329978  22.9710014  54.9488683  38.8334055  23.3590232
  43.1039992  47.4889978  25.3460014  42.8119992  48.2569978  24.8550014
  42.4289992  46.8299978  25.1830014  42.9728497  47.5049745  25.2568260
  56.2269992  53.0679978  21.7490014  56.2999992  54.0069978  21.9190014
  57.1319992  52.7629978  21.6930014  56.3594170  53.1553282  21.7647063
  39.1969992  49.8519978  34.1610014  38.6949992  49.8239978  33.3460014
  39.2019992  48.9469978  34.4710014  39.1289832  49.7257486  34.0914121
  38.9469992  52.6329978  31.0450014  39.8929992  52.4879978  31.0260014
  38.8339992  53.4169978  31.5820014  39.0613578  52.7191697  31.1150317
  57.1449992  53.2989978  36.7280014  57.0949992  52.3429978  36.6900014
  56.3179992  53.5659978  37.1290014  57.0263831  53.2044680  36.7770121
  48.1229992  52.8729978  35.6040014  48.2109992  53.6989978  36.0790014
  47.2599992  52.5429978  35.8530014  48.0183357  52.9415468  35.7027653
  48.5379992  56.6449978  25.4100014  48.4619992  56.5239978  24.4630014
  48.5699992  57.5939978  25.5280014  48.5319380  56.7567677  25.2965181
  42.1909992  55.4339978  27.1910014  42.3429992  55.0859978  28.0690014
  41.3399992  55.0769978  26.9350014  42.0968344  55.3380879  27.2766868
  51.6389992  55.7989978  22.4120014  52.0139992  55.0549978  21.9410014
  51.6439992  55.5289978  23.3300014  51.6910098  55.6606392  22.4716629
  51.3079992  55.7249978  25.1610014  50.3729992  55.8249978  25.3400014
  51.5879992  55.0149978  25.7400014  51.2179471  55.6427933  25.2636695
  54.2969992  44.7919978  37.2080014  53.8889992  45.2719978  36.4870014
  54.3369992  43.8859978  36.9000014  54.2466221  44.7352449  37.0678267
  41.4459992  51.1759978  35.2040014  41.6619992  50.8139978  36.0640014
  40.5899992  50.8009978  34.9950014  41.3598810  51.0758837  35.2932680
  44.0639992  39.6459978  31.2000014  43.2029992  39.5589978  30.7920014
  44.0419992  40.5019978  31.6280014  43.9430491  39.7498003  31.2019582
  48.7269992  39.3679978  34.5750014  49.1469992  38.9529978  35.3280014
  47.7939992  39.1889978  34.6920014  48.6583736  39.2869910  34.6938968
  52.0539992  43.1229978  35.4280014  51.5399992  42.9979978  36.2260014
  51.8979992  44.0359978  35.1840014  51.9626967  43.2292123  35.5040937
  52.8159992  47.9839978  21.1890014  52.8579992  47.7619978  20.2590014
  53.6649992  48.3829978  21.3790014  52.9365253  48.0075498  21.0873822
  48.3889992  41.8599978  21.8600014  48.1349992  41.8789978  22.7820014
  48.1319992  40.9889978  21.5580014  48.3194508  41.7448280  21.9454803
  44.1549992  44.6109978  32.2950014  43.5139992  44.5709978  33.0040014
  44.1929992  45.5379978  32.0570014  44.0723010  44.7307668  32.3599946
  44.1519992  44.8319978  27.2070014  43.2599992  44.4919978  27.1480014
  44.6029992  44.4549978  26.4510014  44.0907642  44.7344910  27.0967726
  49.6879992  45.2479978  26.0240014  49.2789992  46.0629978  25.7320014
  50.4079992  45.1079978  25.4100014  49.7294439  45.3405372  25.9010115
  48.7899992  45.4239978  37.5120014  48.2269992  44.7189978  37.8330014
  49.6159992  45.3029978  37.9800014  48.8246674  45.3112165  37.6191751
  50.6929992  44.6939978  28.8380014  50.4969992  45.2999978  28.1230014
  50.8739992  43.8609978  28.4040014  50.6906584  44.6642513  28.6814212
  41.9049992  44.9319978  34.1620014  41.8669992  45.3319978  35.0310014
  41.4149992  44.1149978  34.2520014  41.8335330  44.8762674  34.2931289
  45.2709992  42.3059978  20.9610014  44.8399992  41.8609978  21.6900014
  44.5529992  42.6769978  20.4480014  45.1149176  42.2952051  20.9914930
  38.5139992  42.0479978  28.0130014  39.1439992  42.0189978  28.7320014
  38.9629992  41.6229978  27.2820014  38.6610835  41.9865660  28.0127659
  39.7879992  42.7939978  23.4370014  40.2619992  43.3849978  22.8520014
  39.0699992  43.3239978  23.7840014  39.7558640  42.9465511  23.4037969
  49.9569992  46.3319978  33.5090014  50.2799992  45.7009978  32.8660014
  49.5159992  45.7979978  34.1700014  49.9416379  46.1733468  33.5102582
  46.7339992  42.2599978  28.2930014  45.8229992  42.3169978  28.5820014
  47.2389992  42.1999978  29.1040014  46.6776873  42.2596826  28.4421207
  41.5619992  43.8889978  27.1200014  40.6729992  43.9879978  26.7800014
  41.8589992  43.0469978  26.7740014  41.4804177  43.7887687  27.0266940
  45.2149992  43.8889978  24.7770014  46.1469992  44.0179978  24.9550014
  44.9999992  44.5579978  24.1270014  45.3134472  43.9970806  24.7134891
  51.1389992  41.4949978  31.5580014  50.4619992  41.6259978  32.2210014
  50.6539992  41.3399978  30.7470014  50.9807405  41.4919947  31.5392170
  43.8889992  45.0829978  22.3430014  43.3469992  44.7039978  21.6520014
  44.7229992  45.2779978  21.9150014  43.9274390  45.0574079  22.1904392
  54.4269992  57.1659978  37.8340014  54.6259992  57.5899978  37.0000014
  55.0819992  57.5099978  38.4410014  54.5428522  57.2706301  37.8017852
  42.0249992  49.6399978  37.4420014  42.7569992  49.8949978  38.0040014
  41.2439992  49.8449978  37.9580014  42.0196526  49.7025450  37.5885176
  48.0539992  45.0469978  30.1800014  48.6179992  44.5009978  29.6330014
  47.9059992  44.5259978  30.9690014  48.1113037  44.9016787  30.2117229
  43.0559992  41.1839978  26.5990014  42.7389992  40.2809978  26.5630014
  43.8369992  41.1859978  26.0460014  43.1182431  41.0607797  26.5193102
  46.6799992  43.4359978  32.5940014  45.8449992  43.8899978  32.7050014
  47.2039992  43.7119978  33.3460014  46.6366072  43.5353948  32.7108136
  47.2249992  49.6489978  24.2790014  46.4799992  49.1409978  23.9570014
  47.0899992  49.6979978  25.2250014  47.1048963  49.5861731  24.3628826
  54.3749992  48.7819978  33.0660014  55.0159992  49.2379978  32.5220014
  53.5439992  48.8949978  32.6030014  54.3505287  48.8596921  32.9289887
  51.1219992  42.4629978  22.4780014  50.1839992  42.5739978  22.3270014
  51.4199992  43.3189978  22.7850014  51.0336318  42.5940158  22.4988145
  48.7439992  49.8329978  35.5160014  48.3979992  49.4509978  36.3230014
  48.5439992  50.7659978  35.5870014  48.6695987  49.9069002  35.6360461
  51.8409992  44.3299978  24.1390014  52.7329992  44.1919978  24.4580014
  51.8969992  45.1209978  23.6020014  51.9707325  44.4179918  24.1101217
  42.3489992  48.9439978  30.0490014  43.0939992  48.9409978  29.4470014
  42.4269992  48.1199978  30.5300014  42.4613365  48.8322384  30.0317430
  49.3499992  51.1069978  23.3040014  49.0549992  51.9339978  23.6860014
  48.6469992  50.4879978  23.5010014  49.2146379  51.1364171  23.3828654
  39.3569992  47.4039978  35.3640014  39.5799992  46.9859978  36.1950014
  38.7549992  46.7919978  34.9410014  39.3061513  47.2639606  35.4206740
  46.3739992  46.9209978  37.5770014  46.0779992  46.7559978  36.6810014
  47.3049992  46.7009978  37.5660014  46.4594401  46.8686879  37.4530206
  50.9939992  52.2949978  35.4660014  50.0939992  52.4779978  35.1990014
  51.0279992  52.5539978  36.3870014  50.8753748  52.3550554  35.5539164
  56.7259992  44.5389978  23.8340014  56.1709992  44.1429978  23.1610014
  56.8259992  45.4499978  23.5560014  56.6636816  44.6079505  23.7045033
  56.6889992  50.3399978  36.6710014  55.8379992  50.5779978  36.3030014
  57.2789992  50.3229978  35.9180014  56.6523812  50.3702524  36.5188453
  55.0209992  53.3249978  24.2990014  54.6479992  52.4999978  24.6080014
  55.2979992  53.1419978  23.4010014  55.0073463  53.1872569  24.2199525
  52.1809992  48.1329978  31.3200014  51.2529992  47.9019978  31.2930014
  52.6319992  47.3559978  30.9900014  52.1148165  47.9962774  31.2716790
  44.7239992  52.4619978  27.4530014  45.2519992  53.2349978  27.2530014
  43.8439992  52.6859978  27.1510014  44.6773435  52.5982700  27.3847310
  40.4789992  47.3239978  22.0400014  41.0949992  47.9509978  22.4200014
  39.6169992  47.6399978  22.3120014  40.4467678  47.4524412  22.1287209
  46.1519992  50.1249978  27.0290014  45.9109992  51.0499978  27.0710014
  45.4109992  49.6659978  27.4260014  46.0189206  50.1895915  27.0883769
  46.6659992  54.2739978  33.3440014  47.0289992  55.1279978  33.1110014
  47.1979992  53.9819978  34.0850014  46.7875141  54.3513895  33.4122097
  44.8349992  55.1459978  26.5750014  43.8849992  55.2519978  26.6260014
  45.1869992  55.9669978  26.9190014  44.7525472  55.2714923  26.6284852
  50.2099992  50.3729978  33.0450014  49.7849992  50.1449978  33.8710014
  50.7909992  49.6339978  32.8630014  50.2303395  50.2419545  33.1334414
  52.4129992  51.3019978  22.1190014  52.7669992  50.9219978  22.9230014
  51.4649992  51.2079978  22.2060014  52.3332298  51.2372452  22.2408687
  52.8689992  54.9249978  35.5140014  52.2669992  54.3689978  35.0190014
  53.1499992  55.5919978  34.8880014  52.8245757  54.9390744  35.3615675
  56.9169992  55.7809978  22.3200014  57.6609992  56.3669978  22.1800014
  56.2229992  56.3499978  22.6530014  56.9249809  55.9380818  22.3458590
  40.9909992  42.1579978  34.9220014  40.0989992  42.4959978  34.8540014
  40.8929992  41.3019978  35.3400014  40.8554475  42.0886543  34.9691704
  53.2789992  49.9739978  24.3460014  53.0019992  49.2459978  24.9020014
  54.2069992  50.0929978  24.5510014  53.3664499  49.8904213  24.4498044
  40.6429992  53.9619978  33.3570014  40.8599992  53.0299978  33.3260014
  40.8889992  54.2369978  34.2400014  40.7059809  53.8715686  33.4721690
  46.5039992  52.4139978  20.5660014  46.7429992  51.6649978  20.0190014
  46.2349992  52.0259978  21.3990014  46.5003233  52.2591853  20.6037809
  45.4409992  51.9839978  23.0220014  45.5879992  51.4639978  23.8120014
  45.4379992  52.8909978  23.3290014  45.4607102  52.0353953  23.1715925
  41.8939992  49.2359978  23.5330014  41.2079992  49.5889978  24.1000014
  42.4169992  49.9989978  23.2860014  41.8708402  49.3873901  23.5771801
  49.7259992  41.8989978  33.8120014  50.4249992  41.9729978  34.4620014
  49.3449992  41.0339978  33.9660014  49.7702097  41.7922389  33.9217997
  50.5099992  41.5509978  24.9090014  50.7299992  42.0219978  24.1050014
  51.0689992  41.9449978  25.5790014  50.6156731  41.6687287  24.8895033
  48.1789992  53.6809978  23.7720014  47.3619992  54.1779978  23.8240014
  48.7079992  54.1569978  23.1310014  48.1388125  53.8131989  23.6925306
  47.7099992  43.2789978  25.7440014  48.5219992  43.7829978  25.7900014
  47.4659992  43.1339978  26.6580014  47.7881467  43.3283749  25.8738575
  48.2459992  44.2649978  34.9280014  48.3649992  44.8389978  35.6850014
  48.9009992  43.5769978  35.0430014  48.3508684  44.2505194  35.0471674
  48.5939992  40.3599978  26.6820014  48.2469992  40.9769978  27.3260014
  49.2529992  40.8609978  26.2000014  48.6355090  40.5121575  26.7050681
  45.5169992  54.7249978  23.7530014  45.6779992  55.5249978  23.2530014
  45.3199992  55.0319978  24.6380014  45.5123906  54.8758678  23.8042333
  44.2519992  41.4229978  23.3690014  44.1679992  42.3109978  23.7160014
  45.1419992  41.1579978  23.6010014  44.3608163  41.5087179  23.4478596
  54.4499992  42.1719978  35.7630014  53.5339992  42.4339978  35.6760014
  54.7859992  42.1689978  34.8670014  54.3698499  42.2075163  35.6298766
  53.0529992  45.9219978  29.8590014  52.2549992  45.5069978  29.5310014
  53.4979992  45.2319978  30.3500014  53.0039684  45.7718628  29.8805227
  42.5099992  51.8499978  22.4290014  43.1019992  52.5499978  22.7060014
  42.9689992  51.4169978  21.7100014  42.6531652  51.8872675  22.3696533
  40.8259992  44.5149978  21.5450014  40.7809992  45.4539978  21.7240014
  39.9379992  44.2789978  21.2760014  40.6998166  44.6116687  21.5331524
  54.1389992  55.1779978  31.4810014  53.9829992  55.8569978  30.8240014
  55.0719992  55.2499978  31.6840014  54.2437387  55.2806390  31.4185342
  41.6339992  39.2959978  30.2190014  41.4049992  39.3549978  29.2910014
  41.1919992  38.5049978  30.5250014  41.5428801  39.1970540  30.1334729
  40.5649992  53.2369978  26.3790014  39.7319992  53.7089978  26.4060014
  41.1099992  53.7469978  25.7800014  40.5247857  53.3704791  26.3017142
  39.8529992  55.8489978  37.7090014  40.3929992  55.6329978  38.4690014
  39.3719992  55.0439978  37.5190014  39.8619219  55.7105156  37.7874282
  44.4499992  54.7689978  39.3290014  45.2179992  54.3099978  39.6700014
  44.4289992  54.5429978  38.3990014  44.5522135  54.6756668  39.2499491
  48.5419992  54.2769978  20.7050014  47.8979992  53.6459978  21.0260014
  49.3039992  53.7459978  20.4730014  48.5568058  54.1187902  20.7176038
  51.0269992  53.1489978  38.0580014  50.6759992  52.2919978  38.3020014
  51.7529992  53.2909978  38.6650014  51.0771895  53.0511351  38.1733770
  53.1469992  54.0939978  20.9380014  53.4299992  53.2989978  21.3910014
  53.8859992  54.3269978  20.3770014  53.2857096  54.0167049  20.9241104
  39.7599992  49.6599978  38.6630014  39.9039992  48.7579978  38.3770014
  38.9879992  49.9459978  38.1760014  39.6752733  49.5751798  38.5579532
  44.1009992  50.0029978  20.7960014  44.1659992  49.2089978  21.3260014
  44.7539992  49.8849978  20.1060014  44.1981605  49.8783430  20.7752997
  46.4149992  49.6289978  38.0960014  46.0869992  49.8999978  37.2390014
  46.5669992  48.6879978  38.0080014  46.3906412  49.5389046  37.9667822
  49.4539992  51.0499978  20.5320014  49.1849992  51.2309978  21.4320014
  49.2469992  50.1249978  20.4000014  49.3891191  50.9497119  20.6375524
  52.1499992  49.5449978  35.4790014  52.8949992  50.1339978  35.3600014
  51.3929992  50.1269978  35.5430014  52.1495470  49.7042128  35.4713799
  40.5929992  46.8599978  38.0830014  41.0009992  46.0029978  37.9620014
  40.3319992  46.8739978  39.0040014  40.6136016  46.7445119  38.1909192
  45.2509992  47.9759978  23.1020014  44.7909992  47.4919978  23.7870014
  45.5059992  47.3069978  22.4660014  45.2224856  47.8193669  23.1098397
  44.5399992  45.8689978  35.4580014  43.9209992  46.5429978  35.7380014
  44.8839992  46.1899978  34.6240014  44.5017123  46.0046887  35.3836388
  46.3219992  46.2189978  21.3640014  46.1409992  46.0639978  20.4370014
  47.2719992  46.3269978  21.4090014  46.4256566  46.2123669  21.2430929
  49.5589992  48.3399978  38.7350014  50.5129992  48.4239978  38.7080014
  49.3989992  47.6279978  39.3550014  49.6677182  48.2552842  38.8150733
  55.7119992  48.5729978  20.8100014  55.4379992  48.1489978  19.9970014
  55.7509992  49.5049978  20.5930014  55.6797716  48.6408827  20.6694286
  44.8789992  43.2239978  36.5400014  45.0289992  42.4949978  35.9380014
  44.8809992  44.0009978  35.9810014  44.8997967  43.2292708  36.3820541
  45.2919992  41.5929978  34.0330014  45.8269992  42.0449978  33.3810014
  44.4389992  41.4849978  33.6100014  45.2500374  41.6402665  33.8866710
  46.8729992  47.0329978  34.2720014  47.6239992  46.8769978  33.6990014
  46.5339992  47.8849978  33.9970014  46.9299587  47.1268138  34.1564078
  51.2889992  44.8479978  39.3010014  51.4809992  43.9169978  39.1890014
  52.1469992  45.2729978  39.2900014  51.4312182  44.7780070  39.2841862
  52.6059992  47.6369978  37.3780014  52.3239992  48.3459978  36.8000014
  53.5479992  47.5639978  37.2270014  52.6947921  47.7242193  37.2784225
  43.3579992  44.4219978  38.4510014  42.5899992  43.8889978  38.2410014
  44.0359992  44.1119978  37.8520014  43.3447235  44.3071754  38.3412413
  46.0969992  39.0499978  34.4640014  45.9989992  39.9959978  34.3590014
  45.3549992  38.6769978  33.9880014  45.9832534  39.1291773  34.3852600
  47.3609992  43.3709978  38.0280014  47.1259992  43.1519978  38.9290014
  46.5779992  43.1639978  37.5180014  47.2229095  43.3129892  38.0825353
  50.0769992  42.4989978  37.1030014  49.1289992  42.5309978  37.2350014
  50.3889992  41.8729978  37.7570014  49.9895293  42.4187923  37.2094148
  51.7109992  41.1329978  39.1080014  51.6139992  40.1809978  39.1030014
  51.3889992  41.4009978  39.9690014  51.6542468  41.0390884  39.2236210
  41.5379992  42.3419978  38.1560014  41.7499992  41.6359978  37.5460014
  41.4269992  41.9049978  39.0000014  41.5520269  42.1861921  38.1865873
  46.3189992  38.3439978  37.1350014  47.0309992  37.7039978  37.1210014
  46.2179992  38.6099978  36.2220014  46.4027387  38.2924330  37.0095563
  46.6729992  40.0259978  39.1890014  46.5409992  39.5509978  38.3690014
  46.0729992  40.7709978  39.1340014  46.5739070  40.0615789  39.0693251
  46.2189992  56.9089978  22.3650014  47.1519992  57.0669978  22.5090014
  45.9549992  57.5849978  21.7400014  46.3109911  57.0219373  22.3002722
  39.7869992  51.5459978  21.8480014  40.7009992  51.6249978  22.1210014
  39.7949992  50.8589978  21.1820014  39.9130655  51.4639205  21.7952917
  38.4359992  56.9389978  26.9250014  37.7889992  56.4769978  26.3930014
  38.7909992  56.2669978  27.5080014  38.3953741  56.7849774  26.9309175
  39.3059992  55.0189978  28.7300014  38.9719992  54.1389978  28.9020014
  39.5289992  55.3649978  29.5950014  39.2903721  54.9451938  28.8704168
  56.8549992  55.8289978  31.7110014  56.8329992  56.0139978  32.6500014
  57.5449992  56.3969978  31.3700014  56.9453439  55.9311887  31.7934791
  56.4179992  55.3959978  34.6320014  55.9309992  54.6609978  34.2610014
  56.9669992  55.0019978  35.3100014  56.4255247  55.2421057  34.6728461
  54.8689992  51.1859978  39.2710014  54.0029992  51.0809978  39.6650014
  55.2449992  51.9439978  39.7170014  54.8013401  51.2741708  39.3852620
  56.1699992  49.4419978  24.7850014  57.0199992  49.8629978  24.9120014
  56.1749992  48.7019978  25.3920014  56.2871143  49.3996094  24.8844750
  56.5639992  47.4959978  26.6080014  55.8379992  47.0159978  27.0060014
  57.1459992  47.7009978  27.3410014  56.5432730  47.4580184  26.7614149
  56.3229992  50.2809978  31.5560014  57.1569992  49.9029978  31.2750014
  56.4349992  51.2239978  31.4370014  56.4521917  50.3567943  31.5014861
  54.8099992  53.1589978  33.8630014  54.1619992  53.4839978  34.4880014
  54.2919992  52.7179978  33.1890014  54.6514196  53.1438651  33.8574152
  56.8329992  47.3969978  22.9990014  56.3109992  47.7529978  22.2810014
  56.7999992  48.0719978  23.6780014  56.7570129  47.5369598  22.9923355
  55.1819992  44.6359978  21.5500014  55.2779992  45.3029978  20.8700014
  55.0419992  43.8209978  21.0690014  55.1762040  44.6170671  21.3918378
  54.3509992  46.0169978  27.1710014  54.2009992  45.0719978  27.1510014
  53.9969992  46.2979978  28.0150014  54.2826351  45.9256644  27.2823220
  39.3859992  48.0949978  31.1820014  39.5709992  48.0129978  30.2460014
  40.2359992  47.9709978  31.6050014  39.5260928  48.0670463  31.1112893
  55.2069992  47.9869978  36.8100014  55.7899992  47.2519978  37.0020014
  55.7709992  48.7589978  36.8570014  55.3629781  47.9908145  36.8426164
  56.7039992  45.8899978  37.4950014  55.8409992  45.5109978  37.3290014
  57.3079992  45.1509978  37.4200014  56.6676085  45.7383223  37.4621695
  54.4289992  42.0439978  20.6680014  55.0399992  41.6729978  21.3050014
  53.5919992  41.6229978  20.8640014  54.3994947  41.9362756  20.7817252
  54.0619992  43.5989978  25.6340014  54.3409992  42.6919978  25.7580014
  54.8209992  44.0329978  25.2450014  54.2028619  43.5334502  25.5983795
  54.6729992  44.1809978  31.0700014  55.6059992  44.3929978  31.0350014
  54.4379992  44.2819978  31.9920014  54.7689517  44.2236833  31.1899130
  54.7029992  44.9179978  33.8460014  53.8599992  45.1859978  34.2120014
  55.1449992  45.7399978  33.6350014  54.6474138  45.0658273  33.8675518
  38.9839992  43.3649978  37.3220014  39.9029992  43.2429978  37.5590014
  38.5339992  42.6149978  37.7120014  39.0490087  43.2469608  37.4071410
  56.9859992  38.8979978  39.1990014  57.3349992  38.2439978  38.5940014
  57.1329992  39.7349978  38.7590014  57.0536824  38.9216024  39.0566304
  54.6749992  40.8619978  25.6820014  54.8569992  40.4129978  26.5070014
  54.0749992  40.2779978  25.2180014  54.6188187  40.7215552  25.7322739
  40.2049992  41.6779978  30.2140014  40.6499992  40.8859978  30.5160014
  40.6709992  42.3939978  30.6440014  40.3289718  41.6664534  30.3135265
  38.5089992  44.6769978  31.2830014  39.0009992  44.4559978  30.4920014
  38.8709992  45.5169978  31.5640014  38.6252923  44.7603468  31.2127407
  56.5049992  41.0069978  37.5480014  55.5879992  41.2779978  37.5130014
  56.6279992  40.4719978  36.7640014  56.3959672  40.9717885  37.4371862
  56.5419992  40.9299978  22.2100014  56.9539992  40.2089978  21.7350014
  57.2229992  41.5989978  22.2680014  56.6905536  40.9217766  22.1528024
  38.8229992  40.9349978  25.3370014  37.8979992  41.1429978  25.2080014
  39.2769992  41.4189978  24.6470014  38.7576298  41.0289299  25.2260451
  53.5929992  55.9189978  27.2830014  54.2459992  55.5709978  26.6750014
  54.1039992  56.4069978  27.9290014  53.7512777  55.9373815  27.2872047
  38.7859992  39.6729978  33.6810014  38.1209992  39.4269978  34.3240014
  38.3429992  40.2949978  33.1040014  38.6351168  39.7234214  33.6909848
  40.9779992  52.8479978  37.8260014  40.1569992  53.0229978  37.3650014
  40.7259992  52.7749978  38.7460014  40.8315594  52.8620717  37.8873611
  43.9319992  53.8219978  34.0840014  43.5079992  54.6319978  33.8020014
  44.8369992  53.9079978  33.7820014  43.9962138  53.9444160  34.0046415
  48.2439992  55.2209978  37.0440014  48.4279992  54.8879978  37.9220014
  49.0899992  55.5309978  36.7220014  48.3836484  55.2172979  37.1207617
  50.5889992  56.5069978  36.2880014  51.2659992  55.8739978  36.0480014
  50.9099992  56.9079978  37.0950014  50.7251323  56.4745691  36.3643158
  55.5059992  39.0969978  35.3670014  54.6929992  39.4219978  34.9800014
  55.7389992  38.3359978  34.8340014  55.4261347  39.0386880  35.2419841
  41.3339992  57.0789978  34.1320014  40.6139992  57.5189978  33.6810014
  40.9689992  56.8279978  34.9800014  41.1859643  57.1053369  34.1849129
  43.8009992  56.6789978  33.1620014  42.9369992  56.7509978  33.5660014
  43.7459992  57.2259978  32.3780014  43.6751942  56.7627849  33.1114000
  48.5119992  56.5669978  32.3370014  48.0549992  57.0959978  31.6830014
  48.6749992  57.1699978  33.0620014  48.4714960  56.7209280  32.3455274
  50.8399992  55.4449978  33.2820014  49.9349992  55.6099978  33.0160014
  51.2679992  56.2979978  33.2160014  50.7741537  55.5829134  33.2367095
  53.4439992  57.0149978  33.5770014  53.2619992  57.9309978  33.3660014
  53.6209992  56.6039978  32.7300014  53.4430030  57.0848273  33.4337166
  40.7489992  55.7019978  31.0420014  40.7309992  55.2759978  31.8990014
  41.5539992  55.3829978  30.6330014  40.8552875  55.6006435  31.1039515
  42.8899992  54.4119978  29.6970014  42.6709992  53.4949978  29.8670014
  43.7139992  54.5519978  30.1630014  42.9714702  54.3055511  29.7832527
  45.4269992  54.8819978  30.5460014  45.6399992  53.9939978  30.2590014
  45.4919992  54.8469978  31.5000014  45.4649149  54.7558326  30.6357369
  48.9359992  40.5459978  29.6900014  48.2619992  39.9159978  29.9460014
  49.4999992  40.0619978  29.0870014  48.9200384  40.3943708  29.6435020
  54.0789992  38.6529978  29.8030014  54.6819992  39.2009978  29.3010014
  53.2089992  38.9719978  29.5620014  54.0439157  38.7710373  29.7017910
  55.8059992  39.7919978  28.1360014  56.4169992  39.2779978  27.6090014
  56.1879992  40.6689978  28.1590014  55.9413305  39.8402050  28.0669418
  41.2629992  39.1799978  27.5120014  40.4859992  38.9449978  27.0050014
  41.7929992  38.3829978  27.5210014  41.2283451  39.0401268  27.4438627
  40.0989992  38.9779978  23.3160014  40.5379992  39.5889978  22.7240014
  39.4649992  39.5159978  23.7900014  40.0733859  39.1344064  23.2990305
  45.8419992  39.1059978  27.3250014  46.7159992  39.4949978  27.2960014
  45.7059992  38.8909978  28.2480014  45.9431953  39.1301643  27.4457617
  51.3989992  39.1359978  28.9750014  51.4749992  39.2319978  28.0250014
  51.1239992  38.2289978  29.1030014  51.3721871  39.0264146  28.8623944
  52.7519992  39.1619978  24.6670014  52.0489992  39.7769978  24.4570014
  52.3069992  38.3249978  24.7980014  52.5956550  39.1329668  24.6559837
  39.9999992  54.9259978  24.2130014  39.3149992  54.8879978  23.5460014
  40.0039992  55.8389978  24.5010014  39.9067621  55.0441924  24.1606126
  41.9599992  40.8939978  21.7580014  42.4509992  40.2639978  21.2310014
  42.5829992  41.1899978  22.4210014  42.1115304  40.8477376  21.7754940
  46.9859992  41.1869978  24.2150014  47.1639992  40.5399978  24.8980014
  46.9319992  42.0209978  24.6820014  47.0030678  41.2111604  24.3716301
  48.8639992  56.1349978  22.6110014  49.7299992  56.5019978  22.4330014
  48.6179992  55.6959978  21.7970014  48.9492097  56.1258525  22.4766019
  55.5729992  55.6979978  25.2900014  55.3789992  54.9499978  24.7250014
  55.5339992  56.4559978  24.7070014  55.5411645  55.6980786  25.1338148
  41.2199992  39.6939978  37.0300014  40.8539992  38.9279978  37.4720014
  42.1329992  39.7229978  37.3160014  41.2933172  39.5930324  37.1291890
  43.1929992  39.0439978  38.5650014  44.0919992  38.7699978  38.3810014
  42.8069992  38.3019978  39.0300014  43.2637307  38.9062196  38.6027098
  41.8179992  55.8459978  21.2380014  41.5499992  56.1319978  22.1120014
  42.5889992  55.2999978  21.3910014  41.8855926  55.8112779  21.3781205
  51.6149992  38.3769978  38.7480014  51.6909992  37.9509978  39.6010014
  52.5079992  38.3899978  38.4050014  51.7462303  38.3203493  38.8185497
  54.7909992  54.4499978  37.4400014  54.0089992  54.2629978  36.9200014
  54.7189992  55.3789978  37.6570014  54.6741924  54.5500637  37.3981602
  69.1969992  48.3359978  27.4710014  69.2859992  49.2799978  27.3390014
  68.5589992  48.0609978  26.8130014  69.1229062  48.4279812  27.3639641
  68.1299992  47.5909978  30.8900014  68.0919992  46.9449978  31.5950014
  67.8079992  47.1239978  30.1190014  68.0812679  47.4394276  30.8822921
  60.4979992  47.2049978  32.4830014  60.5399992  46.5799978  33.2060014
  61.2009992  47.8289978  32.6650014  60.5987345  47.2037873  32.6065274
  71.8359992  50.5299978  29.1910014  71.3949992  49.8099978  29.6420014
  71.8229992  51.2509978  29.8210014  71.7739215  50.5289291  29.3378105
  61.4219992  51.6549978  31.0180014  61.0519992  50.8529978  30.6480014
  62.3629992  51.4869978  31.0640014  61.4985984  51.5224638  30.9735603
  58.0319992  45.3149978  26.4100014  57.5839992  46.1609978  26.3920014
  57.4709992  44.7359978  25.8950014  57.8948546  45.3523993  26.3378891
  58.7419992  47.4769978  28.5360014  58.9559992  46.7069978  29.0640014
  59.4799992  47.5669978  27.9330014  58.8710200  47.3838587  28.5267035
  68.9479992  55.6339978  29.4030014  69.5669992  54.9579978  29.1300014
  68.7389992  55.4159978  30.3120014  69.0046056  55.5118869  29.4883967
  66.5189992  50.0229978  31.2960014  66.8229992  49.3369978  30.7010014
  67.2409992  50.1419978  31.9140014  66.6581240  49.9452314  31.2980959
  75.1819992  41.6249978  32.1560014  75.2319992  42.2349978  32.8920014
  75.6079992  42.0859978  31.4330014  75.2464108  41.7707709  32.1590112
  69.6599992  44.4169978  31.6230014  69.8029992  43.4709978  31.6430014
  69.5539992  44.6239978  30.6950014  69.6652403  44.3154797  31.5002239
  62.8149992  42.5189978  28.8960014  62.8579992  43.3789978  28.4770014
  62.3569992  41.9669978  28.2620014  62.7589871  42.5619245  28.7530761
  70.5369992  42.6499978  27.2970014  71.1839992  42.3209978  27.9210014
  71.0469992  43.1669978  26.6740014  70.6944351  42.6749067  27.2981037
  59.4349992  44.9159978  29.6580014  60.0889992  44.3659978  30.0900014
  59.4589992  44.6419978  28.7410014  59.5277199  44.8037167  29.5931668
  64.5919992  46.4659978  28.8730014  65.2079992  45.9389978  29.3820014
  64.0049992  45.8259978  28.4690014  64.5970154  46.3073954  28.8880945
  75.5739992  43.1029978  34.3920014  74.8849992  43.7609978  34.2970014
  75.5889992  42.9049978  35.3290014  75.4817756  43.1662603  34.5055812
  61.6249992  41.4369978  32.9700014  61.4059992  41.9669978  32.2030014
  60.9569992  41.6629978  33.6170014  61.5046975  41.5400967  32.9525140
  68.9939992  50.9369978  26.5140014  68.6989992  50.6139978  25.6620014
  68.6699992  51.8369978  26.5550014  68.9098460  51.0144464  26.4029714
  64.1939992  49.1119978  33.2570014  63.4539992  49.7109978  33.3610014
  64.9079992  49.6659978  32.9420014  64.1893500  49.2687829  33.2286371
  72.3009992  41.9409978  29.2770014  72.0859992  41.1749978  29.8100014
  72.9569992  42.4129978  29.7900014  72.3602673  41.9000728  29.4191990
  61.2189992  43.3289978  30.9220014  61.8329992  43.9619978  31.2950014
  61.7309992  42.8569978  30.2660014  61.3721962  43.3517249  30.8842935
  62.6019992  51.0769978  34.0440014  62.5959992  51.9559978  33.6660014
  61.7479992  50.9929978  34.4690014  62.4857925  51.1859535  34.0496887
  58.7229992  50.7479978  24.8260014  58.4509992  50.9769978  23.9380014
  58.7679992  51.5849978  25.2870014  58.6918097  50.8926163  24.7666683
  72.3479992  52.3689978  31.5390014  71.4059992  52.4279978  31.7010014
  72.6239992  53.2749978  31.4020014  72.2565865  52.4995288  31.5426192
  72.6479992  40.6559978  32.9560014  71.9119992  41.2659978  32.9190014
  73.3319992  41.0709978  32.4300014  72.6395367  40.7957551  32.8798174
  65.6519992  38.7419978  30.4220014  65.5339992  37.7939978  30.3680014
  64.7969992  39.0749978  30.6950014  65.5202805  38.6572202  30.4515079
  70.5999992  54.1499978  28.1640014  71.0249992  53.4429978  27.6790014
  70.9169992  54.9519978  27.7470014  70.7010266  54.1615190  28.0412479
  71.7599992  52.0509978  26.6730014  71.5019992  51.3609978  26.0610014
  71.8309992  51.6079978  27.5180014  71.7343050  51.8966814  26.7035621
  73.4459992  50.6179978  35.1500014  73.5849992  50.0259978  34.4110014
  73.6129992  51.4909978  34.7940014  73.4876193  50.6548896  35.0006211
  67.9179992  47.5799978  24.9230014  67.2069992  48.1149978  24.5710014
  68.6089992  47.6349978  24.2630014  67.9140751  47.6606777  24.7855858
  67.9719992  46.0369978  21.9610014  68.6729992  46.0599978  22.6130014
  68.2739992  45.4089978  21.3050014  68.1088202  45.9552212  21.9615609
  75.2869992  46.9579978  33.2160014  74.6349992  47.6519978  33.3050014
  75.7529992  47.1679978  32.4060014  75.2605937  47.0815019  33.1187533
  71.3239992  47.7889978  25.8740014  70.5919992  48.0179978  26.4480014
  71.7709992  47.0759978  26.3290014  71.2843963  47.7238729  26.0139945
  71.2209992  45.9639978  34.9420014  71.3009992  46.7269978  35.5140014
  70.6199992  46.2429978  34.2520014  71.1506547  46.1062457  34.9270047
  62.9689992  48.4199978  27.7570014  62.6389992  48.0489978  26.9390014
  63.5579992  47.7489978  28.1040014  63.0033970  48.2786063  27.6919404
  64.3359992  51.8479978  30.4380014  64.2409992  51.2689978  29.6820014
  65.0649992  51.4769978  30.9340014  64.4216011  51.7185561  30.4016028
  63.3359992  47.1879978  31.3900014  63.9009992  47.3099978  30.6280014
  63.6549992  47.8259978  32.0290014  63.4564166  47.2908791  31.3720348
  69.6449992  52.6919978  32.1240014  69.4049992  53.3539978  32.7720014
  69.4469992  51.8569978  32.5490014  69.5853826  52.6698115  32.2701566
  64.2159992  51.5879978  36.1080014  63.9049992  52.3699978  36.5630014
  63.5659992  51.4349978  35.4220014  64.0855538  51.6744087  36.0775898
  70.1949992  46.9519978  23.5600014  70.7739992  47.1019978  24.3060014
  70.6089992  47.4219978  22.8360014  70.3303358  47.0360954  23.5643953
  61.1359992  47.7859978  35.3360014  61.2059992  48.4369978  36.0350014
  60.2449992  47.8889978  35.0010014  61.0251690  47.8889249  35.3863043
  67.9209992  53.6879978  26.9950014  68.3949992  53.9839978  27.7720014
  67.3579992  54.4269978  26.7620014  67.9097890  53.8283036  27.0698101
  62.4549992  53.6589978  36.8710014  62.4629992  53.5229978  35.9240014
  61.5389992  53.5419978  37.1230014  62.3322528  53.6245463  36.7753243
  73.8939992  38.7019978  23.3730014  72.9939992  38.8409978  23.6680014
  74.1459992  39.5329978  22.9710014  73.8048683  38.8334055  23.3590232
  61.9599992  47.4889978  25.3460014  61.6679992  48.2569978  24.8550014
  61.2849992  46.8299978  25.1830014  61.8288497  47.5049745  25.2568260
  75.0829992  53.0679978  21.7490014  75.1559992  54.0069978  21.9190014
  75.9879992  52.7629978  21.6930014  75.2154170  53.1553282  21.7647063
  58.0529992  49.8519978  34.1610014  57.5509992  49.8239978  33.3460014
  58.0579992  48.9469978  34.4710014  57.9849832  49.7257486  34.0914121
  57.8029992  52.6329978  31.0450014  58.7489992  52.4879978  31.0260014
  57.6899992  53.4169978  31.5820014  57.9173578  52.7191697  31.1150317
  76.0009992  53.2989978  36.7280014  75.9509992  52.3429978  36.6900014
  75.1739992  53.5659978  37.1290014  75.8823831  53.2044680  36.7770121
  66.9789992  52.8729978  35.6040014  67.0669992  53.6989978  36.0790014
  66.1159992  52.5429978  35.8530014  66.8743357  52.9415468  35.7027653
  67.3939992  56.6449978  25.4100014  67.3179992  56.5239978  24.4630014
  67.4259992  57.5939978  25.5280014  67.3879380  56.7567677  25.2965181
  61.0469992  55.4339978  27.1910014  61.1989992  55.0859978  28.0690014
  60.1959992  55.0769978  26.9350014  60.9528344  55.3380879  27.2766868
  70.4949992  55.7989978  22.4120014  70.8699992  55.0549978  21.9410014
  70.4999992  55.5289978  23.3300014  70.5470098  55.6606392  22.4716629
  70.1639992  55.7249978  25.1610014  69.2289992  55.8249978  25.3400014
  70.4439992  55.0149978  25.7400014  70.0739471  55.6427933  25.2636695
  73.1529992  44.7919978  37.2080014  72.7449992  45.2719978  36.4870014
  73.1929992  43.8859978  36.9000014  73.1026221  44.7352449  37.0678267
  60.3019992  51.1759978  35.2040014  60.5179992  50.8139978  36.0640014
  59.4459992  50.8009978  34.9950014  60.2158810  51.0758837  35.2932680
  62.9199992  39.6459978  31.2000014  62.0589992  39.5589978  30.7920014
  62.8979992  40.5019978  31.6280014  62.7990491  39.7498003  31.2019582
  67.5829992  39.3679978  34.5750014  68.0029992  38.9529978  35.3280014
  66.6499992  39.1889978  34.6920014  67.5143736  39.2869910  34.6938968
  70.9099992  43.1229978  35.4280014  70.3959992  42.9979978  36.2260014
  70.7539992  44.0359978  35.1840014  70.8186967  43.2292123  35.5040937
  71.6719992  47.9839978  21.1890014  71.7139992  47.7619978  20.2590014
  72.5209992  48.3829978  21.3790014  71.7925253  48.0075498  21.0873822
  67.2449992  41.8599978  21.8600014  66.9909992  41.8789978  22.7820014
  66.9879992  40.9889978  21.5580014  67.1754508  41.7448280  21.9454803
  63.0109992  44.6109978  32.2950014  62.3699992  44.5709978  33.0040014
  63.0489992  45.5379978  32.0570014  62.9283010  44.7307668  32.3599946
  63.0079992  44.8319978  27.2070014  62.1159992  44.4919978  27.1480014
  63.4589992  44.4549978  26.4510014  62.9467642  44.7344910  27.0967726
  68.5439992  45.2479978  26.0240014  68.1349992  46.0629978  25.7320014
  69.2639992  45.1079978  25.4100014  68.5854439  45.3405372  25.9010115
  67.6459992  45.4239978  37.5120014  67.0829992  44.7189978  37.8330014
  68.4719992  45.3029978  37.9800014  67.6806674  45.3112165  37.6191751
  69.5489992  44.6939978  28.8380014  69.3529992  45.2999978  28.1230014
  69.7299992  43.8609978  28.4040014  69.5466584  44.6642513  28.6814212
  60.7609992  44.9319978  34.1620014  60.7229992  45.3319978  35.0310014
  60.2709992  44.1149978  34.2520014  60.6895330  44.8762674  34.2931289
  64.1269992  42.3059978  20.9610014  63.6959992  41.8609978  21.6900014
  63.4089992  42.6769978  20.4480014  63.9709176  42.2952051  20.9914930
  57.3699992  42.0479978  28.0130014  57.9999992  42.0189978  28.7320014
  57.8189992  41.6229978  27.2820014  57.5170835  41.9865660  28.0127659
  58.6439992  42.7939978  23.4370014  59.1179992  43.3849978  22.8520014
  57.9259992  43.3239978  23.7840014  58.6118640  42.9465511  23.4037969
  68.8129992  46.3319978  33.5090014  69.1359992  45.7009978  32.8660014
  68.3719992  45.7979978  34.1700014  68.7976379  46.1733468  33.5102582
  65.5899992  42.2599978  28.2930014  64.6789992  42.3169978  28.5820014
  66.0949992  42.1999978  29.1040014  65.5336873  42.2596826  28.4421207
  60.4179992  43.8889978  27.1200014  59.5289992  43.9879978  26.7800014
  60.7149992  43.0469978  26.7740014  60.3364177  43.7887687  27.0266940
  64.0709992  43.8889978  24.7770014  65.0029992  44.0179978  24.9550014
  63.8559992  44.5579978  24.1270014  64.1694472  43.9970806  24.7134891
  69.9949992  41.4949978  31.5580014  69.3179992  41.6259978  32.2210014
  69.5099992  41.3399978  30.7470014  69.8367405  41.4919947  31.5392170
  62.7449992  45.0829978  22.3430014  62.2029992  44.7039978  21.6520014
  63.5789992  45.2779978  21.9150014  62.7834390  45.0574079  22.1904392
  73.2829992  57.1659978  37.8340014  73.4819992  57.5899978  37.0000014
  73.9379992  57.5099978  38.4410014  73.3988522  57.2706301  37.8017852
  60.8809992  49.6399978  37.4420014  61.6129992  49.8949978  38.0040014
  60.0999992  49.8449978  37.9580014  60.8756526  49.7025450  37.5885176
  66.9099992  45.0469978  30.1800014  67.4739992  44.5009978  29.6330014
  66.7619992  44.5259978  30.9690014  66.9673037  44.9016787  30.2117229
  61.9119992  41.1839978  26.5990014  61.5949992  40.2809978  26.5630014
  62.6929992  41.1859978  26.0460014  61.9742431  41.0607797  26.5193102
  65.5359992  43.4359978  32.5940014  64.7009992  43.8899978  32.7050014
  66.0599992  43.7119978  33.3460014  65.4926072  43.5353948  32.7108136
  66.0809992  49.6489978  24.2790014  65.3359992  49.1409978  23.9570014
  65.9459992  49.6979978  25.2250014  65.9608963  49.5861731  24.3628826
  73.2309992  48.7819978  33.0660014  73.8719992  49.2379978  32.5220014
  72.3999992  48.8949978  32.6030014  73.2065287  48.8596921  32.9289887
  69.9779992  42.4629978  22.4780014  69.0399992  42.5739978  22.3270014
  70.2759992  43.3189978  22.7850014  69.8896318  42.5940158  22.4988145
  67.5999992  49.8329978  35.5160014  67.2539992  49.4509978  36.3230014
  67.3999992  50.7659978  35.5870014  67.5255987  49.9069002  35.6360461
  70.6969992  44.3299978  24.1390014  71.5889992  44.1919978  24.4580014
  70.7529992  45.1209978  23.6020014  70.8267325  44.4179918  24.1101217
  61.2049992  48.9439978  30.0490014  61.9499992  48.9409978  29.4470014
  61.2829992  48.1199978  30.5300014  61.3173365  48.8322384  30.0317430
  68.2059992  51.1069978  23.3040014  67.9109992  51.9339978  23.6860014
  67.5029992  50.4879978  23.5010014  68.0706379  51.1364171  23.3828654
  58.2129992  47.4039978  35.3640014  58.4359992  46.9859978  36.1950014
  57.6109992  46.7919978  34.9410014  58.1621513  47.2639606  35.4206740
  65.2299992  46.9209978  37.5770014  64.9339992  46.7559978  36.6810014
  66.1609992  46.7009978  37.5660014  65.3154401  46.8686879  37.4530206
  69.8499992  52.2949978  35.4660014  68.9499992  52.4779978  35.1990014
  69.8839992  52.5539978  36.3870014  69.7313748  52.3550554  35.5539164
  75.5819992  44.5389978  23.8340014  75.0269992  44.1429978  23.1610014
  75.6819992  45.4499978  23.5560014  75.5196816  44.6079505  23.7045033
  75.5449992  50.3399978  36.6710014  74.6939992  50.5779978  36.3030014
  76.1349992  50.3229978  35.9180014  75.5083812  50.3702524  36.5188453
  73.8769992  53.3249978  24.2990014  73.5039992  52.4999978  24.6080014
  74.1539992  53.1419978  23.4010014  73.8633463  53.1872569  24.2199525
  71.0369992  48.1329978  31.3200014  70.1089992  47.9019978  31.2930014
  71.4879992  47.3559978  30.9900014  70.9708165  47.9962774  31.2716790
  63.5799992  52.4619978  27.4530014  64.1079992  53.2349978  27.2530014
  62.6999992  52.6859978  27.1510014  63.5333435  52.5982700  27.3847310
  59.3349992  47.3239978  22.0400014  59.9509992  47.9509978  22.4200014
  58.4729992  47.6399978  22.3120014  59.3027678  47.4524412  22.1287209
  65.0079992  50.1249978  27.0290014  64.7669992  51.0499978  27.0710014
  64.2669992  49.6659978  27.4260014  64.8749206  50.1895915  27.0883769
  65.5219992  54.2739978  33.3440014  65.8849992  55.1279978  33.1110014
  66.0539992  53.9819978  34.0850014  65.6435141  54.3513895  33.4122097
  63.6909992  55.1459978  26.5750014  62.7409992  55.2519978  26.6260014
  64.0429992  55.9669978  26.9190014  63.6085472  55.2714923  26.6284852
  69.0659992  50.3729978  33.0450014  68.6409992  50.1449978  33.8710014
  69.6469992  49.6339978  32.8630014  69.0863395  50.2419545  33.1334414
  71.2689992  51.3019978  22.1190014  71.6229992  50.9219978  22.9230014
  70.3209992  51.2079978  22.2060014  71.1892298  51.2372452  22.2408687
  71.7249992  54.9249978  35.5140014  71.1229992  54.3689978  35.0190014
  72.0059992  55.5919978  34.8880014  71.6805757  54.9390744  35.3615675
  75.7729992  55.7809978  22.3200014  76.5169992  56.3669978  22.1800014
  75.0789992  56.3499978  22.6530014  75.7809809  55.9380818  22.3458590
  59.8469992  42.1579978  34.9220014  58.9549992  42.4959978  34.8540014
  59.7489992  41.3019978  35.3400014  59.7114475  42.0886543  34.9691704
  72.1349992  49.9739978  24.3460014  71.8579992  49.2459978  24.9020014
  73.0629992  50.0929978  24.5510014  72.2224499  49.8904213  24.4498044
  59.4989992  53.9619978  33.3570014  59.7159992  53.0299978  33.3260014
  59.7449992  54.2369978  34.2400014  59.5619809  53.8715686  33.4721690
  65.3599992  52.4139978  20.5660014  65.5989992  51.6649978  20.0190014
  65.0909992  52.0259978  21.3990014  65.3563233  52.2591853  20.6037809
  64.2969992  51.9839978  23.0220014  64.4439992  51.4639978  23.8120014
  64.2939992  52.8909978  23.3290014  64.3167102  52.0353953  23.1715925
  60.7499992  49.2359978  23.5330014  60.0639992  49.5889978  24.1000014
  61.2729992  49.9989978  23.2860014  60.7268402  49.3873901  23.5771801
  68.5819992  41.8989978  33.8120014  69.2809992  41.9729978  34.4620014
  68.2009992  41.0339978  33.9660014  68.6262097  41.7922389  33.9217997
  69.3659992  41.5509978  24.9090014  69.5859992  42.0219978  24.1050014
  69.9249992  41.9449978  25.5790014  69.4716731  41.6687287  24.8895033
  67.0349992  53.6809978  23.7720014  66.2179992  54.1779978  23.8240014
  67.5639992  54.1569978  23.1310014  66.9948125  53.8131989  23.6925306
  66.5659992  43.2789978  25.7440014  67.3779992  43.7829978  25.7900014
  66.3219992  43.1339978  26.6580014  66.6441467  43.3283749  25.8738575
  67.1019992  44.2649978  34.9280014  67.2209992  44.8389978  35.6850014
  67.7569992  43.5769978  35.0430014  67.2068684  44.2505194  35.0471674
  67.4499992  40.3599978  26.6820014  67.1029992  40.9769978  27.3260014
  68.1089992  40.8609978  26.2000014  67.4915090  40.5121575  26.7050681
  64.3729992  54.7249978  23.7530014  64.5339992  55.5249978  23.2530014
  64.1759992  55.0319978  24.6380014  64.3683906  54.8758678  23.8042333
  63.1079992  41.4229978  23.3690014  63.0239992  42.3109978  23.7160014
  63.9979992  41.1579978  23.6010014  63.2168163  41.5087179  23.4478596
  73.3059992  42.1719978  35.7630014  72.3899992  42.4339978  35.6760014
  73.6419992  42.1689978  34.8670014  73.2258499  42.2075163  35.6298766
  71.9089992  45.9219978  29.8590014  71.1109992  45.5069978  29.5310014
  72.3539992  45.2319978  30.3500014  71.8599684  45.7718628  29.8805227
  61.3659992  51.8499978  22.4290014  61.9579992  52.5499978  22.7060014
  61.8249992  51.4169978  21.7100014  61.5091652  51.8872675  22.3696533
  59.6819992  44.5149978  21.5450014  59.6369992  45.4539978  21.7240014
  58.7939992  44.2789978  21.2760014  59.5558166  44.6116687  21.5331524
  72.9949992  55.1779978  31.4810014  72.8389992  55.8569978  30.8240014
  73.9279992  55.2499978  31.6840014  73.0997387  55.2806390  31.4185342
  60.4899992  39.2959978  30.2190014  60.2609992  39.3549978  29.2910014
  60.0479992  38.5049978  30.5250014  60.3988801  39.1970540  30.1334729
  59.4209992  53.2369978  26.3790014  58.5879992  53.7089978  26.4060014
  59.9659992  53.7469978  25.7800014  59.3807857  53.3704791  26.3017142
  58.7089992  55.8489978  37.7090014  59.2489992  55.6329978  38.4690014
  58.2279992  55.0439978  37.5190014  58.7179219  55.7105156  37.7874282
  63.3059992  54.7689978  39.3290014  64.0739992  54.3099978  39.6700014
  63.2849992  54.5429978  38.3990014  63.4082135  54.6756668  39.2499491
  67.3979992  54.2769978  20.7050014  66.7539992  53.6459978  21.0260014
  68.1599992  53.7459978  20.4730014  67.4128058  54.1187902  20.7176038
  69.8829992  53.1489978  38.0580014  69.5319992  52.2919978  38.3020014
  70.6089992  53.2909978  38.6650014  69.9331895  53.0511351  38.1733770
  72.0029992  54.0939978  20.9380014  72.2859992  53.2989978  21.3910014
  72.7419992  54.3269978  20.3770014  72.1417096  54.0167049  20.9241104
  58.6159992  49.6599978  38.6630014  58.7599992  48.7579978  38.3770014
  57.8439992  49.9459978  38.1760014  58.5312733  49.5751798  38.5579532
  62.9569992  50.0029978  20.7960014  63.0219992  49.2089978  21.3260014
  63.6099992  49.8849978  20.1060014  63.0541605  49.8783430  20.7752997
  65.2709992  49.6289978  38.0960014  64.9429992  49.8999978  37.2390014
  65.4229992  48.6879978  38.0080014  65.2466412  49.5389046  37.9667822
  68.3099992  51.0499978  20.5320014  68.0409992  51.2309978  21.4320014
  68.1029992  50.1249978  20.4000014  68.2451191  50.9497119  20.6375524
  71.0059992  49.5449978  35.4790014  71.7509992  50.1339978  35.3600014
  70.2489992  50.1269978  35.5430014  71.0055470  49.7042128  35.4713799
  59.4489992  46.8599978  38.0830014  59.8569992  46.0029978  37.9620014
  59.1879992  46.8739978  39.0040014  59.4696016  46.7445119  38.1909192
  64.1069992  47.9759978  23.1020014  63.6469992  47.4919978  23.7870014
  64.3619992  47.3069978  22.4660014  64.0784856  47.8193669  23.1098397
  63.3959992  45.8689978  35.4580014  62.7769992  46.5429978  35.7380014
  63.7399992  46.1899978  34.6240014  63.3577123  46.0046887  35.3836388
  65.1779992  46.2189978  21.3640014  64.9969992  46.0639978  20.4370014
  66.1279992  46.3269978  21.4090014  65.2816566  46.2123669  21.2430929
  68.4149992  48.3399978  38.7350014  69.3689992  48.4239978  38.7080014
  68.2549992  47.6279978  39.3550014  68.5237182  48.2552842  38.8150733
  74.5679992  48.5729978  20.8100014  74.2939992  48.1489978  19.9970014
  74.6069992  49.5049978  20.5930014  74.5357716  48.6408827  20.6694286
  63.7349992  43.2239978  36.5400014  63.8849992  42.4949978  35.9380014
  63.7369992  44.0009978  35.9810014  63.7557967  43.2292708  36.3820541
  64.1479992  41.5929978  34.0330014  64.6829992  42.0449978  33.3810014
  63.2949992  41.4849978  33.6100014  64.1060374  41.6402665  33.8866710
  65.7289992  47.0329978  34.2720014  66.4799992  46.8769978  33.6990014
  65.3899992  47.8849978  33.9970014  65.7859587  47.1268138  34.1564078
  70.1449992  44.8479978  39.3010014  70.3369992  43.9169978  39.1890014
  71.0029992  45.2729978  39.2900014  70.2872182  44.7780070  39.2841862
  71.4619992  47.6369978  37.3780014  71.1799992  48.3459978  36.8000014
  72.4039992  47.5639978  37.2270014  71.5507921  47.7242193  37.2784225
  62.2139992  44.4219978  38.4510014  61.4459992  43.8889978  38.2410014
  62.8919992  44.1119978  37.8520014  62.2007235  44.3071754  38.3412413
  64.9529992  39.0499978  34.4640014  64.8549992  39.9959978  34.3590014
  64.2109992  38.6769978  33.9880014  64.8392534  39.1291773  34.3852600
  66.2169992  43.3709978  38.0280014  65.9819992  43.1519978  38.9290014
  65.4339992  43.1639978  37.5180014  66.0789095  43.3129892  38.0825353
  68.9329992  42.4989978  37.1030014  67.9849992  42.5309978  37.2350014
  69.2449992  41.8729978  37.7570014  68.8455293  42.4187923  37.2094148
  70.5669992  41.1329978  39.1080014  70.4699992  40.1809978  39.1030014
  70.2449992  41.4009978  39.9690014  70.5102468  41.0390884  39.2236210
  60.3939992  42.3419978  38.1560014  60.6059992  41.6359978  37.5460014
  60.2829992  41.9049978  39.0000014  60.4080269  42.1861921  38.1865873
  65.1749992  38.3439978  37.1350014  65.8869992  37.7039978  37.1210014
  65.0739992  38.6099978  36.2220014  65.2587387  38.2924330  37.0095563
  65.5289992  40.0259978  39.1890014  65.3969992  39.5509978  38.3690014
  64.9289992  40.7709978  39.1340014  65.4299070  40.0615789  39.0693251
  65.0749992  56.9089978  22.3650014  66.0079992  57.0669978  22.5090014
  64.8109992  57.5849978  21.7400014  65.1669911  57.0219373  22.3002722
  58.6429992  51.5459978  21.8480014  59.5569992  51.6249978  22.1210014
  58.6509992  50.8589978  21.1820014  58.7690655  51.4639205  21.7952917
  57.2919992  56.9389978  26.9250014  56.6449992  56.4769978  26.3930014
  57.6469992  56.2669978  27.5080014  57.2513741  56.7849774  26.9309175
  58.1619992  55.0189978  28.7300014  57.8279992  54.1389978  28.9020014
  58.3849992  55.3649978  29.5950014  58.1463721  54.9451938  28.8704168
  75.7109992  55.8289978  31.7110014  75.6889992  56.0139978  32.6500014
  76.4009992  56.3969978  31.3700014  75.8013439  55.9311887  31.7934791
  75.2739992  55.3959978  34.6320014  74.7869992  54.6609978  34.2610014
  75.8229992  55.0019978  35.3100014  75.2815247  55.2421057  34.6728461
  73.7249992  51.1859978  39.2710014  72.8589992  51.0809978  39.6650014
  74.1009992  51.9439978  39.7170014  73.6573401  51.2741708  39.3852620
  75.0259992  49.4419978  24.7850014  75.8759992  49.8629978  24.9120014
  75.0309992  48.7019978  25.3920014  75.1431143  49.3996094  24.8844750
  75.4199992  47.4959978  26.6080014  74.6939992  47.0159978  27.0060014
  76.0019992  47.7009978  27.3410014  75.3992730  47.4580184  26.7614149
  75.1789992  50.2809978  31.5560014  76.0129992  49.9029978  31.2750014
  75.2909992  51.2239978  31.4370014  75.3081917  50.3567943  31.5014861
  73.6659992  53.1589978  33.8630014  73.0179992  53.4839978  34.4880014
  73.1479992  52.7179978  33.1890014  73.5074196  53.1438651  33.8574152
  75.6889992  47.3969978  22.9990014  75.1669992  47.7529978  22.2810014
  75.6559992  48.0719978  23.6780014  75.6130129  47.5369598  22.9923355
  74.0379992  44.6359978  21.5500014  74.1339992  45.3029978  20.8700014
  73.8979992  43.8209978  21.0690014  74.0322040  44.6170671  21.3918378
  73.2069992  46.0169978  27.1710014  73.0569992  45.0719978  27.1510014
  72.8529992  46.2979978  28.0150014  73.1386351  45.9256644  27.2823220
  58.2419992  48.0949978  31.1820014  58.4269992  48.0129978  30.2460014
  59.0919992  47.9709978  31.6050014  58.3820928  48.0670463  31.1112893
  74.0629992  47.9869978  36.8100014  74.6459992  47.2519978  37.0020014
  74.6269992  48.7589978  36.8570014  74.2189781  47.9908145  36.8426164
  75.5599992  45.8899978  37.4950014  74.6969992  45.5109978  37.3290014
  76.1639992  45.1509978  37.4200014  75.5236085  45.7383223  37.4621694
  73.2849992  42.0439978  20.6680014  73.8959992  41.6729978  21.3050014
  72.4479992  41.6229978  20.8640014  73.2554947  41.9362756  20.7817252
  72.9179992  43.5989978  25.6340014  73.1969992  42.6919978  25.7580014
  73.6769992  44.0329978  25.2450014  73.0588619  43.5334502  25.5983795
  73.5289992  44.1809978  31.0700014  74.4619992  44.3929978  31.0350014
  73.2939992  44.2819978  31.9920014  73.6249517  44.2236833  31.1899130
  73.5589992  44.9179978  33.8460014  72.7159992  45.1859978  34.2120014
  74.0009992  45.7399978  33.6350014  73.5034138  45.0658273  33.8675518
  57.8399992  43.3649978  37.3220014  58.7589992  43.2429978  37.5590014
  57.3899992  42.6149978  37.7120014  57.9050087  43.2469608  37.4071410
  75.8419992  38.8979978  39.1990014  76.1909992  38.2439978  38.5940014
  75.9889992  39.7349978  38.7590014  75.9096824  38.9216024  39.0566304
  73.5309992  40.8619978  25.6820014  73.7129992  40.4129978  26.5070014
  72.9309992  40.2779978  25.2180014  73.4748187  40.7215552  25.7322739
  59.0609992  41.6779978  30.2140014  59.5059992  40.8859978  30.5160014
  59.5269992  42.3939978  30.6440014  59.1849718  41.6664534  30.3135265
  57.3649992  44.6769978  31.2830014  57.8569992  44.4559978  30.4920014
  57.7269992  45.5169978  31.5640014  57.4812923  44.7603468  31.2127407
  75.3609992  41.0069978  37.5480014  74.4439992  41.2779978  37.5130014
  75.4839992  40.4719978  36.7640014  75.2519672  40.9717885  37.4371862
  75.3979992  40.9299978  22.2100014  75.8099992  40.2089978  21.7350014
  76.0789992  41.5989978  22.2680014  75.5465536  40.9217766  22.1528024
  57.6789992  40.9349978  25.3370014  56.7539992  41.1429978  25.2080014
  58.1329992  41.4189978  24.6470014  57.6136298  41.0289299  25.2260451
  72.4489992  55.9189978  27.2830014  73.1019992  55.5709978  26.6750014
  72.9599992  56.4069978  27.9290014  72.6072777  55.9373815  27.2872047
  57.6419992  39.6729978  33.6810014  56.9769992  39.4269978  34.3240014
  57.1989992  40.2949978  33.1040014  57.4911168  39.7234214  33.6909848
  59.8339992  52.8479978  37.8260014  59.0129992  53.0229978  37.3650014
  59.5819992  52.7749978  38.7460014  59.6875594  52.8620717  37.8873611
  62.7879992  53.8219978  34.0840014  62.3639992  54.6319978  33.8020014
  63.6929992  53.9079978  33.7820014  62.8522138  53.9444160  34.0046415
  67.0999992  55.2209978  37.0440014  67.2839992  54.8879978  37.9220014
  67.9459992  55.5309978  36.7220014  67.2396484  55.2172979  37.1207617
  69.4449992  56.5069978  36.2880014  70.1219992  55.8739978  36.0480014
  69.7659992  56.9079978  37.0950014  69.5811323  56.4745691  36.3643158
  74.3619992  39.0969978  35.3670014  73.5489992  39.4219978  34.9800014
  74.5949992  38.3359978  34.8340014  74.2821347  39.0386880  35.2419841
  60.1899992  57.0789978  34.1320014  59.4699992  57.5189978  33.6810014
  59.8249992  56.8279978  34.9800014  60.0419643  57.1053369  34.1849129
  62.6569992  56.6789978  33.1620014  61.7929992  56.7509978  33.5660014
  62.6019992  57.2259978  32.3780014  62.5311942  56.7627849  33.1114000
  67.3679992  56.5669978  32.3370014  66.9109992  57.0959978  31.6830014
  67.5309992  57.1699978  33.0620014  67.3274960  56.7209280  32.3455274
  69.6959992  55.4449978  33.2820014  68.7909992  55.6099978  33.0160014
  70.1239992  56.2979978  33.2160014  69.6301537  55.5829134  33.2367095
  72.2999992  57.0149978  33.5770014  72.1179992  57.9309978  33.3660014
  72.4769992  56.6039978  32.7300014  72.2990030  57.0848273  33.4337166
  59.6049992  55.7019978  31.0420014  59.5869992  55.2759978  31.8990014
  60.4099992  55.3829978  30.6330014  59.7112875  55.6006435  31.1039515
  61.7459992  54.4119978  29.6970014  61.5269992  53.4949978  29.8670014
  62.5699992  54.5519978  30.1630014  61.8274702  54.3055511  29.7832527
  64.2829992  54.8819978  30.5460014  64.4959992  53.9939978  30.2590014
  64.3479992  54.8469978  31.5000014  64.3209149  54.7558326  30.6357369
  67.7919992  40.5459978  29.6900014  67.1179992  39.9159978  29.9460014
  68.3559992  40.0619978  29.0870014  67.7760384  40.3943708  29.6435020
  72.9349992  38.6529978  29.8030014  73.5379992  39.2009978  29.3010014
  72.0649992  38.9719978  29.5620014  72.8999157  38.7710373  29.7017910
  74.6619992  39.7919978  28.1360014  75.2729992  39.2779978  27.6090014
  75.0439992  40.6689978  28.1590014  74.7973305  39.8402050  28.0669418
  60.1189992  39.1799978  27.5120014  59.3419992  38.9449978  27.0050014
  60.6489992  38.3829978  27.5210014  60.0843451  39.0401268  27.4438627
  58.9549992  38.9779978  23.3160014  59.3939992  39.5889978  22.7240014
  58.3209992  39.5159978  23.7900014  58.9293859  39.1344064  23.2990305
  64.6979992  39.1059978  27.3250014  65.5719992  39.4949978  27.2960014
  64.5619992  38.8909978  28.2480014  64.7991953  39.1301643  27.4457617
  70.2549992  39.1359978  28.9750014  70.3309992  39.2319978  28.0250014
  69.9799992  38.2289978  29.1030014  70.2281871  39.0264146  28.8623944
  71.6079992  39.1619978  24.6670014  70.9049992  39.7769978  24.4570014
  71.1629992  38.3249978  24.7980014  71.4516550  39.1329668  24.6559837
  58.8559992  54.9259978  24.2130014  58.1709992  54.8879978  23.5460014
  58.8599992  55.8389978  24.5010014  58.7627621  55.0441924  24.1606126
  60.8159992  40.8939978  21.7580014  61.3069992  40.2639978  21.2310014
  61.4389992  41.1899978  22.4210014  60.9675304  40.8477376  21.7754940
  65.8419992  41.1869978  24.2150014  66.0199992  40.5399978  24.8980014
  65.7879992  42.0209978  24.6820014  65.8590678  41.2111604  24.3716301
  67.7199992  56.1349978  22.6110014  68.5859992  56.5019978  22.4330014
  67.4739992  55.6959978  21.7970014  67.8052097  56.1258525  22.4766019
  74.4289992  55.6979978  25.2900014  74.2349992  54.9499978  24.7250014
  74.3899992  56.4559978  24.7070014  74.3971645  55.6980786  25.1338148
  60.0759992  39.6939978  37.0300014  59.7099992  38.9279978  37.4720014
  60.9889992  39.7229978  37.3160014  60.1493172  39.5930324  37.1291890
  62.0489992  39.0439978  38.5650014  62.9479992  38.7699978  38.3810014
  61.6629992  38.3019978  39.0300014  62.1197307  38.9062196  38.6027098
  60.6739992  55.8459978  21.2380014  60.4059992  56.1319978  22.1120014
  61.4449992  55.2999978  21.3910014  60.7415926  55.8112779  21.3781205
  70.4709992  38.3769978  38.7480014  70.5469992  37.9509978  39.6010014
  71.3639992  38.3899978  38.4050014  70.6022303  38.3203493  38.8185497
  73.6469992  54.4499978  37.4400014  72.8649992  54.2629978  36.9200014
  73.5749992  55.3789978  37.6570014  73.5301924  54.5500637  37.3981602
  88.0529992  48.3359978  27.4710014  88.1419992  49.2799978  27.3390014
  87.4149992  48.0609978  26.8130014  87.9789062  48.4279812  27.3639641
  86.9859992  47.5909978  30.8900014  86.9479992  46.9449978  31.5950014
  86.6639992  47.1239978  30.1190014  86.9372679  47.4394276  30.8822921
  79.3539992  47.2049978  32.4830014  79.3959992  46.5799978  33.2060014
  80.0569992  47.8289978  32.6650014  79.4547345  47.2037873  32.6065274
  90.6919992  50.5299978  29.1910014  90.2509992  49.8099978  29.6420014
  90.6789992  51.2509978  29.8210014  90.6299215  50.5289291  29.3378105
  80.2779992  51.6549978  31.0180014  79.9079992  50.8529978  30.6480014
  81.2189992  51.4869978  31.0640014  80.3545984  51.5224638  30.9735603
  76.8879992  45.3149978  26.4100014  76.4399992  46.1609978  26.3920014
  76.3269992  44.7359978  25.8950014  76.7508546  45.3523993  26.3378891
  77.5979992  47.4769978  28.5360014  77.8119992  46.7069978  29.0640014
  78.3359992  47.5669978  27.9330014  77.7270200  47.3838586  28.5267035
  87.8039992  55.6339978  29.4030014  88.4229992  54.9579978  29.1300014
  87.5949992  55.4159978  30.3120014  87.8606056  55.5118869  29.4883967
  85.3749992  50.0229978  31.2960014  85.6789992  49.3369978  30.7010014
  86.0969992  50.1419978  31.9140014  85.5141240  49.9452314  31.2980959
  94.0379992  41.6249978  32.1560014  94.0879992  42.2349978  32.8920014
  94.4639992  42.0859978  31.4330014  94.1024108  41.7707709  32.1590112
  88.5159992  44.4169978  31.6230014  88.6589992  43.4709978  31.6430014
  88.4099992  44.6239978  30.6950014  88.5212403  44.3154797  31.5002239
  81.6709992  42.5189978  28.8960014  81.7139992  43.3789978  28.4770014
  81.2129992  41.9669978  28.2620014  81.6149871  42.5619245  28.7530761
  89.3929992  42.6499978  27.2970014  90.0399992  42.3209978  27.9210014
  89.9029992  43.1669978  26.6740014  89.5504351  42.6749067  27.2981037
  78.2909992  44.9159978  29.6580014  78.9449992  44.3659978  30.0900014
  78.3149992  44.6419978  28.7410014  78.3837199  44.8037167  29.5931668
  83.4479992  46.4659978  28.8730014  84.0639992  45.9389978  29.3820014
  82.8609992  45.8259978  28.4690014  83.4530154  46.3073954  28.8880945
  94.4299992  43.1029978  34.3920014  93.7409992  43.7609978  34.2970014
  94.4449992  42.9049978  35.3290014  94.3377756  43.1662603  34.5055812
  80.4809992  41.4369978  32.9700014  80.2619992  41.9669978  32.2030014
  79.8129992  41.6629978  33.6170014  80.3606975  41.5400967  32.9525140
  87.8499992  50.9369978  26.5140014  87.5549992  50.6139978  25.6620014
  87.5259992  51.8369978  26.5550014  87.7658460  51.0144464  26.4029714
  83.0499992  49.1119978  33.2570014  82.3099992  49.7109978  33.3610014
  83.7639992  49.6659978  32.9420014  83.0453500  49.2687829  33.2286371
  91.1569992  41.9409978  29.2770014  90.9419992  41.1749978  29.8100014
  91.8129992  42.4129978  29.7900014  91.2162673  41.9000728  29.4191990
  80.0749992  43.3289978  30.9220014  80.6889992  43.9619978  31.2950014
  80.5869992  42.8569978  30.2660014  80.2281962  43.3517249  30.8842935
  81.4579992  51.0769978  34.0440014  81.4519992  51.9559978  33.6660014
  80.6039992  50.9929978  34.4690014  81.3417925  51.1859535  34.0496887
  77.5789992  50.7479978  24.8260014  77.3069992  50.9769978  23.9380014
  77.6239992  51.5849978  25.2870014  77.5478097  50.8926163  24.7666683
  91.2039992  52.3689978  31.5390014  90.2619992  52.4279978  31.7010014
  91.4799992  53.2749978  31.4020014  91.1125865  52.4995288  31.5426192
  91.5039992  40.6559978  32.9560014  90.7679992  41.2659978  32.9190014
  92.1879992  41.0709978  32.4300014  91.4955367  40.7957551  32.8798174
  84.5079992  38.7419978  30.4220014  84.3899992  37.7939978  30.3680014
  83.6529992  39.0749978  30.6950014  84.3762805  38.6572202  30.4515079
  89.4559992  54.1499978  28.1640014  89.8809992  53.4429978  27.6790014
  89.7729992  54.9519978  27.7470014  89.5570266  54.1615190  28.0412479
  90.6159992  52.0509978  26.6730014  90.3579992  51.3609978  26.0610014
  90.6869992  51.6079978  27.5180014  90.5903050  51.8966814  26.7035621
  92.3019992  50.6179978  35.1500014  92.4409992  50.0259978  34.4110014
  92.4689992  51.4909978  34.7940014  92.3436193  50.6548896  35.0006211
  86.7739992  47.5799978  24.9230014  86.0629992  48.1149978  24.5710014
  87.4649992  47.6349978  24.2630014  86.7700751  47.6606777  24.7855858
  86.8279992  46.0369978  21.9610014  87.5289992  46.0599978  22.6130014
  87.1299992  45.4089978  21.3050014  86.9648202  45.9552212  21.9615609
  94.1429992  46.9579978  33.2160014  93.4909992  47.6519978  33.3050014
  94.6089992  47.1679978  32.4060014  94.1165937  47.0815019  33.1187533
  90.1799992  47.7889978  25.8740014  89.4479992  48.0179978  26.4480014
  90.6269992  47.0759978  26.3290014  90.1403963  47.7238729  26.0139945
  90.0769992  45.9639978  34.9420014  90.1569992  46.7269978  35.5140014
  89.4759992  46.2429978  34.2520014  90.0066547  46.1062457  34.9270047
  81.8249992  48.4199978  27.7570014  81.4949992  48.0489978  26.9390014
  82.4139992  47.7489978  28.1040014  81.8593970  48.2786063  27.6919404
  83.1919992  51.8479978  30.4380014  83.0969992  51.2689978  29.6820014
  83.9209992  51.4769978  30.9340014  83.2776011  51.7185561  30.4016028
  82.1919992  47.1879978  31.3900014  82.7569992  47.3099978  30.6280014
  82.5109992  47.8259978  32.0290014  82.3124166  47.2908791  31.3720348
  88.5009992  52.6919978  32.1240014  88.2609992  53.3539978  32.7720014
  88.3029992  51.8569978  32.5490014  88.4413826  52.6698115  32.2701566
  83.0719992  51.5879978  36.1080014  82.7609992  52.3699978  36.5630014
  82.4219992  51.4349978  35.4220014  82.9415538  51.6744087  36.0775898
  89.0509992  46.9519978  23.5600014  89.6299992  47.1019978  24.3060014
  89.4649992  47.4219978  22.8360014  89.1863358  47.0360954  23.5643953
  79.9919992  47.7859978  35.3360014  80.0619992  48.4369978  36.0350014
  79.1009992  47.8889978  35.0010014  79.8811690  47.8889249  35.3863043
  86.7769992  53.6879978  26.9950014  87.2509992  53.9839978  27.7720014
  86.2139992  54.4269978  26.7620014  86.7657890  53.8283036  27.0698101
  81.3109992  53.6589978  36.8710014  81.3189992  53.5229978  35.9240014
  80.3949992  53.5419978  37.1230014  81.1882528  53.6245463  36.7753243
  92.7499992  38.7019978  23.3730014  91.8499992  38.8409978  23.6680014
  93.0019992  39.5329978  22.9710014  92.6608683  38.8334055  23.3590232
  80.8159992  47.4889978  25.3460014  80.5239992  48.2569978  24.8550014
  80.1409992  46.8299978  25.1830014  80.6848497  47.5049745  25.2568260
  93.9389992  53.0679978  21.7490014  94.0119992  54.0069978  21.9190014
  94.8439992  52.7629978  21.6930014  94.0714170  53.1553282  21.7647063
  76.9089992  49.8519978  34.1610014  76.4069992  49.8239978  33.3460014
  76.9139992  48.9469978  34.4710014  76.8409832  49.7257486  34.0914121
  76.6589992  52.6329978  31.0450014  77.6049992  52.4879978  31.0260014
  76.5459992  53.4169978  31.5820014  76.7733578  52.7191697  31.1150317
  94.8569992  53.2989978  36.7280014  94.8069992  52.3429978  36.6900014
  94.0299992  53.5659978  37.1290014  94.7383831  53.2044680  36.7770121
  85.8349992  52.8729978  35.6040014  85.9229992  53.6989978  36.0790014
  84.9719992  52.5429978  35.8530014  85.7303357  52.9415468  35.7027653
  86.2499992  56.6449978  25.4100014  86.1739992  56.5239978  24.4630014
  86.2819992  57.5939978  25.5280014  86.2439380  56.7567677  25.2965181
  79.9029992  55.4339978  27.1910014  80.0549992  55.0859978  28.0690014
  79.0519992  55.0769978  26.9350014  79.8088344  55.3380879  27.2766868
  89.3509992  55.7989978  22.4120014  89.7259992  55.0549978  21.9410014
  89.3559992  55.5289978  23.3300014  89.4030098  55.6606392  22.4716629
  89.0199992  55.7249978  25.1610014  88.0849992  55.8249978  25.3400014
  89.2999992  55.0149978  25.7400014  88.9299471  55.6427933  25.2636695
  92.0089992  44.7919978  37.2080014  91.6009992  45.2719978  36.4870014
  92.0489992  43.8859978  36.9000014  91.9586221  44.7352449  37.0678267
  79.1579992  51.1759978  35.2040014  79.3739992  50.8139978  36.0640014
  78.3019992  50.8009978  34.9950014  79.0718810  51.0758837  35.2932680
  81.7759992  39.6459978  31.2000014  80.9149992  39.5589978  30.7920014
  81.7539992  40.5019978  31.6280014  81.6550491  39.7498003  31.2019582
  86.4389992  39.3679978  34.5750014  86.8589992  38.9529978  35.3280014
  85.5059992  39.1889978  34.6920014  86.3703736  39.2869910  34.6938968
  89.7659992  43.1229978  35.4280014  89.2519992  42.9979978  36.2260014
  89.6099992  44.0359978  35.1840014  89.6746967  43.2292123  35.5040937
  90.5279992  47.9839978  21.1890014  90.5699992  47.7619978  20.2590014
  91.3769992  48.3829978  21.3790014  90.6485253  48.0075498  21.0873822
  86.1009992  41.8599978  21.8600014  85.8469992  41.8789978  22.7820014
  85.8439992  40.9889978  21.5580014  86.0314508  41.7448280  21.9454803
  81.8669992  44.6109978  32.2950014  81.2259992  44.5709978  33.0040014
  81.9049992  45.5379978  32.0570014  81.7843010  44.7307668  32.3599946
  81.8639992  44.8319978  27.2070014  80.9719992  44.4919978  27.1480014
  82.3149992  44.4549978  26.4510014  81.8027642  44.7344910  27.0967726
  87.3999992  45.2479978  26.0240014  86.9909992  46.0629978  25.7320014
  88.1199992  45.1079978  25.4100014  87.4414439  45.3405372  25.9010115
  86.5019992  45.4239978  37.5120014  85.9389992  44.7189978  37.8330014
  87.3279992  45.3029978  37.9800014  86.5366674  45.3112165  37.6191751
  88.4049992  44.6939978  28.8380014  88.2089992  45.2999978  28.1230014
  88.5859992  43.8609978  28.4040014  88.4026584  44.6642513  28.6814212
  79.6169992  44.9319978  34.1620014  79.5789992  45.3319978  35.0310014
  79.1269992  44.1149978  34.2520014  79.5455330  44.8762674  34.2931289
  82.9829992  42.3059978  20.9610014  82.5519992  41.8609978  21.6900014
  82.2649992  42.6769978  20.4480014  82.8269176  42.2952051  20.9914930
  76.2259992  42.0479978  28.0130014  76.8559992  42.0189978  28.7320014
  76.6749992  41.6229978  27.2820014  76.3730835  41.9865660  28.0127659
  77.4999992  42.7939978  23.4370014  77.9739992  43.3849978  22.8520014
  76.7819992  43.3239978  23.7840014  77.4678640  42.9465511  23.4037969
  87.6689992  46.3319978  33.5090014  87.9919992  45.7009978  32.8660014
  87.2279992  45.7979978  34.1700014  87.6536379  46.1733468  33.5102582
  84.4459992  42.2599978  28.2930014  83.5349992  42.3169978  28.5820014
  84.9509992  42.1999978  29.1040014  84.3896873  42.2596826  28.4421207
  79.2739992  43.8889978  27.1200014  78.3849992  43.9879978  26.7800014
  79.5709992  43.0469978  26.7740014  79.1924177  43.7887687  27.0266940
  82.9269992  43.8889978  24.7770014  83.8589992  44.0179978  24.9550014
  82.7119992  44.5579978  24.1270014  83.0254472  43.9970806  24.7134891
  88.8509992  41.4949978  31.5580014  88.1739992  41.6259978  32.2210014
  88.3659992  41.3399978  30.7470014  88.6927405  41.4919947  31.5392170
  81.6009992  45.0829978  22.3430014  81.0589992  44.7039978  21.6520014
  82.4349992  45.2779978  21.9150014  81.6394390  45.0574079  22.1904392
  92.1389992  57.1659978  37.8340014  92.3379992  57.5899978  37.0000014
  92.7939992  57.5099978  38.4410014  92.2548522  57.2706301  37.8017852
  79.7369992  49.6399978  37.4420014  80.4689992  49.8949978  38.0040014
  78.9559992  49.8449978  37.9580014  79.7316526  49.7025450  37.5885176
  85.7659992  45.0469978  30.1800014  86.3299992  44.5009978  29.6330014
  85.6179992  44.5259978  30.9690014  85.8233037  44.9016787  30.2117229
  80.7679992  41.1839978  26.5990014  80.4509992  40.2809978  26.5630014
  81.5489992  41.1859978  26.0460014  80.8302431  41.0607797  26.5193102
  84.3919992  43.4359978  32.5940014  83.5569992  43.8899978  32.7050014
  84.9159992  43.7119978  33.3460014  84.3486072  43.5353948  32.7108136
  84.9369992  49.6489978  24.2790014  84.1919992  49.1409978  23.9570014
  84.8019992  49.6979978  25.2250014  84.8168963  49.5861731  24.3628826
  92.0869992  48.7819978  33.0660014  92.7279992  49.2379978  32.5220014
  91.2559992  48.8949978  32.6030014  92.0625287  48.8596921  32.9289887
  88.8339992  42.4629978  22.4780014  87.8959992  42.5739978  22.3270014
  89.1319992  43.3189978  22.7850014  88.7456318  42.5940158  22.4988145
  86.4559992  49.8329978  35.5160014  86.1099992  49.4509978  36.3230014
  86.2559992  50.7659978  35.5870014  86.3815987  49.9069002  35.6360461
  89.5529992  44.3299978  24.1390014  90.4449992  44.1919978  24.4580014
  89.6089992  45.1209978  23.6020014  89.6827325  44.4179918  24.1101217
  80.0609992  48.9439978  30.0490014  80.8059992  48.9409978  29.4470014
  80.1389992  48.1199978  30.5300014  80.1733365  48.8322384  30.0317430
  87.0619992  51.1069978  23.3040014  86.7669992  51.9339978  23.6860014
  86.3589992  50.4879978  23.5010014  86.9266379  51.1364171  23.3828654
  77.0689992  47.4039978  35.3640014  77.2919992  46.9859978  36.1950014
  76.4669992  46.7919978  34.9410014  77.0181513  47.2639606  35.4206740
  84.0859992  46.9209978  37.5770014  83.7899992  46.7559978  36.6810014
  85.0169992  46.7009978  37.5660014  84.1714401  46.8686879  37.4530206
  88.7059992  52.2949978  35.4660014  87.8059992  52.4779978  35.1990014
  88.7399992  52.5539978  36.3870014  88.5873748  52.3550554  35.5539164
  94.4379992  44.5389978  23.8340014  93.8829992  44.1429978  23.1610014
  94.5379992  45.4499978  23.5560014  94.3756816  44.6079505  23.7045033
  94.4009992  50.3399978  36.6710014  93.5499992  50.5779978  36.3030014
  94.9909992  50.3229978  35.9180014  94.3643812  50.3702524  36.5188453
  92.7329992  53.3249978  24.2990014  92.3599992  52.4999978  24.6080014
  93.0099992  53.1419978  23.4010014  92.7193463  53.1872569  24.2199525
  89.8929992  48.1329978  31.3200014  88.9649992  47.9019978  31.2930014
  90.3439992  47.3559978  30.9900014  89.8268165  47.9962774  31.2716790
  82.4359992  52.4619978  27.4530014  82.9639992  53.2349978  27.2530014
  81.5559992  52.6859978  27.1510014  82.3893435  52.5982700  27.3847310
  78.1909992  47.3239978  22.0400014  78.8069992  47.9509978  22.4200014
  77.3289992  47.6399978  22.3120014  78.1587678  47.4524412  22.1287209
  83.8639992  50.1249978  27.0290014  83.6229992  51.0499978  27.0710014
  83.1229992  49.6659978  27.4260014  83.7309206  50.1895915  27.0883769
  84.3779992  54.2739978  33.3440014  84.7409992  55.1279978  33.1110014
  84.9099992  53.9819978  34.0850014  84.4995141  54.3513895  33.4122097
  82.5469992  55.1459978  26.5750014  81.5969992  55.2519978  26.6260014
  82.8989992  55.9669978  26.9190014  82.4645472  55.2714923  26.6284852
  87.9219992  50.3729978  33.0450014  87.4969992  50.1449978  33.8710014
  88.5029992  49.6339978  32.8630014  87.9423395  50.2419545  33.1334414
  90.1249992  51.3019978  22.1190014  90.4789992  50.9219978  22.9230014
  89.1769992  51.2079978  22.2060014  90.0452298  51.2372452  22.2408687
  90.5809992  54.9249978  35.5140014  89.9789992  54.3689978  35.0190014
  90.8619992  55.5919978  34.8880014  90.5365757  54.9390744  35.3615675
  94.6289992  55.7809978  22.3200014  95.3729992  56.3669978  22.1800014
  93.9349992  56.3499978  22.6530014  94.6369809  55.9380818  22.3458590
  78.7029992  42.1579978  34.9220014  77.8109992  42.4959978  34.8540014
  78.6049992  41.3019978  35.3400014  78.5674475  42.0886543  34.9691704
  90.9909992  49.9739978  24.3460014  90.7139992  49.2459978  24.9020014
  91.9189992  50.0929978  24.5510014  91.0784499  49.8904213  24.4498044
  78.3549992  53.9619978  33.3570014  78.5719992  53.0299978  33.3260014
  78.6009992  54.2369978  34.2400014  78.4179809  53.8715686  33.4721690
  84.2159992  52.4139978  20.5660014  84.4549992  51.6649978  20.0190014
  83.9469992  52.0259978  21.3990014  84.2123233  52.2591853  20.6037809
  83.1529992  51.9839978  23.0220014  83.2999992  51.4639978  23.8120014
  83.1499992  52.8909978  23.3290014  83.1727102  52.0353953  23.1715925
  79.6059992  49.2359978  23.5330014  78.9199992  49.5889978  24.1000014
  80.1289992  49.9989978  23.2860014  79.5828402  49.3873901  23.5771801
  87.4379992  41.8989978  33.8120014  88.1369992  41.9729978  34.4620014
  87.0569992  41.0339978  33.9660014  87.4822097  41.7922389  33.9217997
  88.2219992  41.5509978  24.9090014  88.4419992  42.0219978  24.1050014
  88.7809992  41.9449978  25.5790014  88.3276731  41.6687287  24.8895033
  85.8909992  53.6809978  23.7720014  85.0739992  54.1779978  23.8240014
  86.4199992  54.1569978  23.1310014  85.8508125  53.8131989  23.6925306
  85.4219992  43.2789978  25.7440014  86.2339992  43.7829978  25.7900014
  85.1779992  43.1339978  26.6580014  85.5001467  43.3283749  25.8738575
  85.9579992  44.2649978  34.9280014  86.0769992  44.8389978  35.6850014
  86.6129992  43.5769978  35.0430014  86.0628684  44.2505194  35.0471674
  86.3059992  40.3599978  26.6820014  85.9589992  40.9769978  27.3260014
  86.9649992  40.8609978  26.2000014  86.3475090  40.5121575  26.7050681
  83.2289992  54.7249978  23.7530014  83.3899992  55.5249978  23.2530014
  83.0319992  55.0319978  24.6380014  83.2243906  54.8758678  23.8042333
  81.9639992  41.4229978  23.3690014  81.8799992  42.3109978  23.7160014
  82.8539992  41.1579978  23.6010014  82.0728163  41.5087179  23.4478596
  92.1619992  42.1719978  35.7630014  91.2459992  42.4339978  35.6760014
  92.4979992  42.1689978  34.8670014  92.0818499  42.2075163  35.6298766
  90.7649992  45.9219978  29.8590014  89.9669992  45.5069978  29.5310014
  91.2099992  45.2319978  30.3500014  90.7159684  45.7718628  29.8805227
  80.2219992  51.8499978  22.4290014  80.8139992  52.5499978  22.7060014
  80.6809992  51.4169978  21.7100014  80.3651652  51.8872675  22.3696533
  78.5379992  44.5149978  21.5450014  78.4929992  45.4539978  21.7240014
  77.6499992  44.2789978  21.2760014  78.4118166  44.6116687  21.5331524
  91.8509992  55.1779978  31.4810014  91.6949992  55.8569978  30.8240014
  92.7839992  55.2499978  31.6840014  91.9557387  55.2806390  31.4185342
  79.3459992  39.2959978  30.2190014  79.1169992  39.3549978  29.2910014
  78.9039992  38.5049978  30.5250014  79.2548801  39.1970540  30.1334729
  78.2769992  53.2369978  26.3790014  77.4439992  53.7089978  26.4060014
  78.8219992  53.7469978  25.7800014  78.2367857  53.3704791  26.3017142
  77.5649992  55.8489978  37.7090014  78.1049992  55.6329978  38.4690014
  77.0839992  55.0439978  37.5190014  77.5739219  55.7105156  37.7874282
  82.1619992  54.7689978  39.3290014  82.9299992  54.3099978  39.6700014
  82.1409992  54.5429978  38.3990014  82.2642135  54.6756668  39.2499491
  86.2539992  54.2769978  20.7050014  85.6099992  53.6459978  21.0260014
  87.0159992  53.7459978  20.4730014  86.2688058  54.1187902  20.7176038
  88.7389992  53.1489978  38.0580014  88.3879992  52.2919978  38.3020014
  89.4649992  53.2909978  38.6650014  88.7891895  53.0511351  38.1733770
  90.8589992  54.0939978  20.9380014  91.1419992  53.2989978  21.3910014
  91.5979992  54.3269978  20.3770014  90.9977096  54.0167049  20.9241104
  77.4719992  49.6599978  38.6630014  77.6159992  48.7579978  38.3770014
  76.6999992  49.9459978  38.1760014  77.3872733  49.5751798  38.5579532
  81.8129992  50.0029978  20.7960014  81.8779992  49.2089978  21.3260014
  82.4659992  49.8849978  20.1060014  81.9101605  49.8783430  20.7752997
  84.1269992  49.6289978  38.0960014  83.7989992  49.8999978  37.2390014
  84.2789992  48.6879978  38.0080014  84.1026412  49.5389046  37.9667822
  87.1659992  51.0499978  20.5320014  86.8969992  51.2309978  21.4320014
  86.9589992  50.1249978  20.4000014  87.1011191  50.9497119  20.6375524
  89.8619992  49.5449978  35.4790014  90.6069992  50.1339978  35.3600014
  89.1049992  50.1269978  35.5430014  89.8615470  49.7042128  35.4713799
  78.3049992  46.8599978  38.0830014  78.7129992  46.0029978  37.9620014
  78.0439992  46.8739978  39.0040014  78.3256016  46.7445119  38.1909192
  82.9629992  47.9759978  23.1020014  82.5029992  47.4919978  23.7870014
  83.2179992  47.3069978  22.4660014  82.9344856  47.8193669  23.1098397
  82.2519992  45.8689978  35.4580014  81.6329992  46.5429978  35.7380014
  82.5959992  46.1899978  34.6240014  82.2137123  46.0046887  35.3836388
  84.0339992  46.2189978  21.3640014  83.8529992  46.0639978  20.4370014
  84.9839992  46.3269978  21.4090014  84.1376566  46.2123669  21.2430929
  87.2709992  48.3399978  38.7350014  88.2249992  48.4239978  38.7080014
  87.1109992  47.6279978  39.3550014  87.3797182  48.2552842  38.8150733
  93.4239992  48.5729978  20.8100014  93.1499992  48.1489978  19.9970014
  93.4629992  49.5049978  20.5930014  93.3917716  48.6408827  20.6694286
  82.5909992  43.2239978  36.5400014  82.7409992  42.4949978  35.9380014
  82.5929992  44.0009978  35.9810014  82.6117967  43.2292708  36.3820541
  83.0039992  41.5929978  34.0330014  83.5389992  42.0449978  33.3810014
  82.1509992  41.4849978  33.6100014  82.9620374  41.6402665  33.8866710
  84.5849992  47.0329978  34.2720014  85.3359992  46.8769978  33.6990014
  84.2459992  47.8849978  33.9970014  84.6419587  47.1268138  34.1564078
  89.0009992  44.8479978  39.3010014  89.1929992  43.9169978  39.1890014
  89.8589992  45.2729978  39.2900014  89.1432182  44.7780070  39.2841862
  90.3179992  47.6369978  37.3780014  90.0359992  48.3459978  36.8000014
  91.2599992  47.5639978  37.2270014  90.4067921  47.7242193  37.2784225
  81.0699992  44.4219978  38.4510014  80.3019992  43.8889978  38.2410014
  81.7479992  44.1119978  37.8520014  81.0567235  44.3071754  38.3412413
  83.8089992  39.0499978  34.4640014  83.7109992  39.9959978  34.3590014
  83.0669992  38.6769978  33.9880014  83.6952534  39.1291773  34.3852600
  85.0729992  43.3709978  38.0280014  84.8379992  43.1519978  38.9290014
  84.2899992  43.1639978  37.5180014  84.9349095  43.3129892  38.0825353
  87.7889992  42.4989978  37.1030014  86.8409992  42.5309978  37.2350014
  88.1009992  41.8729978  37.7570014  87.7015293  42.4187923  37.2094148
  89.4229992  41.1329978  39.1080014  89.3259992  40.1809978  39.1030014
  89.1009992  41.4009978  39.9690014  89.3662468  41.0390884  39.2236210
  79.2499992  42.3419978  38.1560014  79.4619992  41.6359978  37.5460014
  79.1389992  41.9049978  39.0000014  79.2640269  42.1861921  38.1865873
  84.0309992  38.3439978  37.1350014  84.7429992  37.7039978  37.1210014
  83.9299992  38.6099978  36.2220014  84.1147387  38.2924330  37.0095563
  84.3849992  40.0259978  39.1890014  84.2529992  39.5509978  38.3690014
  83.7849992  40.7709978  39.1340014  84.2859070  40.0615789  39.0693251
  83.9309992  56.9089978  22.3650014  84.8639992  57.0669978  22.5090014
  83.6669992  57.5849978  21.7400014  84.0229911  57.0219373  22.3002722
  77.4989992  51.5459978  21.8480014  78.4129992  51.6249978  22.1210014
  77.5069992  50.8589978  21.1820014  77.6250655  51.4639205  21.7952917
  76.1479992  56.9389978  26.9250014  75.5009992  56.4769978  26.3930014
  76.5029992  56.2669978  27.5080014  76.1073741  56.7849774  26.9309175
  77.0179992  55.0189978  28.7300014  76.6839992  54.1389978  28.9020014
  77.2409992  55.3649978  29.5950014  77.0023721  54.9451938  28.8704168
  94.5669992  55.8289978  31.7110014  94.5449992  56.0139978  32.6500014
  95.2569992  56.3969978  31.3700014  94.6573439  55.9311887  31.7934791
  94.1299992  55.3959978  34.6320014  93.6429992  54.6609978  34.2610014
  94.6789992  55.0019978  35.3100014  94.1375247  55.2421057  34.6728461
  92.5809992  51.1859978  39.2710014  91.7149992  51.0809978  39.6650014
  92.9569992  51.9439978  39.7170014  92.5133401  51.2741708  39.3852620
  93.8819992  49.4419978  24.7850014  94.7319992  49.8629978  24.9120014
  93.8869992  48.7019978  25.3920014  93.9991143  49.3996094  24.8844750
  94.2759992  47.4959978  26.6080014  93.5499992  47.0159978  27.0060014
  94.8579992  47.7009978  27.3410014  94.2552730  47.4580184  26.7614149
  94.0349992  50.2809978  31.5560014  94.8689992  49.9029978  31.2750014
  94.1469992  51.2239978  31.4370014  94.1641917  50.3567943  31.5014861
  92.5219992  53.1589978  33.8630014  91.8739992  53.4839978  34.4880014
  92.0039992  52.7179978  33.1890014  92.3634196  53.1438651  33.8574152
  94.5449992  47.3969978  22.9990014  94.0229992  47.7529978  22.2810014
  94.5119992  48.0719978  23.6780014  94.4690129  47.5369598  22.9923355
  92.8939992  44.6359978  21.5500014  92.9899992  45.3029978  20.8700014
  92.7539992  43.8209978  21.0690014  92.8882040  44.6170671  21.3918378
  92.0629992  46.0169978  27.1710014  91.9129992  45.0719978  27.1510014
  91.7089992  46.2979978  28.0150014  91.9946351  45.9256644  27.2823220
  77.0979992  48.0949978  31.1820014  77.2829992  48.0129978  30.2460014
  77.9479992  47.9709978  31.6050014  77.2380928  48.0670463  31.1112893
  92.9189992  47.9869978  36.8100014  93.5019992  47.2519978  37.0020014
  93.4829992  48.7589978  36.8570014  93.0749781  47.9908145  36.8426164
  94.4159992  45.8899978  37.4950014  93.5529992  45.5109978  37.3290014
  95.0199992  45.1509978  37.4200014  94.3796085  45.7383223  37.4621695
  92.1409992  42.0439978  20.6680014  92.7519992  41.6729978  21.3050014
  91.3039992  41.6229978  20.8640014  92.1114947  41.9362756  20.7817252
  91.7739992  43.5989978  25.6340014  92.0529992  42.6919978  25.7580014
  92.5329992  44.0329978  25.2450014  91.9148619  43.5334502  25.5983795
  92.3849992  44.1809978  31.0700014  93.3179992  44.3929978  31.0350014
  92.1499992  44.2819978  31.9920014  92.4809517  44.2236833  31.1899130
  92.4149992  44.9179978  33.8460014  91.5719992  45.1859978  34.2120014
  92.8569992  45.7399978  33.6350014  92.3594138  45.0658273  33.8675518
  76.6959992  43.3649978  37.3220014  77.6149992  43.2429978  37.5590014
  76.2459992  42.6149978  37.7120014  76.7610087  43.2469608  37.4071410
  94.6979992  38.8979978  39.1990014  95.0469992  38.2439978  38.5940014
  94.8449992  39.7349978  38.7590014  94.7656824  38.9216024  39.0566304
  92.3869992  40.8619978  25.6820014  92.5689992  40.4129978  26.5070014
  91.7869992  40.2779978  25.2180014  92.3308187  40.7215552  25.7322739
  77.9169992  41.6779978  30.2140014  78.3619992  40.8859978  30.5160014
  78.3829992  42.3939978  30.6440014  78.0409718  41.6664534  30.3135265
  76.2209992  44.6769978  31.2830014  76.7129992  44.4559978  30.4920014
  76.5829992  45.5169978  31.5640014  76.3372923  44.7603468  31.2127407
  94.2169992  41.0069978  37.5480014  93.2999992  41.2779978  37.5130014
  94.3399992  40.4719978  36.7640014  94.1079672  40.9717885  37.4371862
  94.2539992  40.9299978  22.2100014  94.6659992  40.2089978  21.7350014
  94.9349992  41.5989978  22.2680014  94.4025536  40.9217766  22.1528024
  76.5349992  40.9349978  25.3370014  75.6099992  41.1429978  25.2080014
  76.9889992  41.4189978  24.6470014  76.4696298  41.0289299  25.2260451
  91.3049992  55.9189978  27.2830014  91.9579992  55.5709978  26.6750014
  91.8159992  56.4069978  27.9290014  91.4632777  55.9373815  27.2872047
  76.4979992  39.6729978  33.6810014  75.8329992  39.4269978  34.3240014
  76.0549992  40.2949978  33.1040014  76.3471168  39.7234214  33.6909848
  78.6899992  52.8479978  37.8260014  77.8689992  53.0229978  37.3650014
  78.4379992  52.7749978  38.7460014  78.5435594  52.8620717  37.8873611
  81.6439992  53.8219978  34.0840014  81.2199992  54.6319978  33.8020014
  82.5489992  53.9079978  33.7820014  81.7082138  53.9444160  34.0046415
  85.9559992  55.2209978  37.0440014  86.1399992  54.8879978  37.9220014
  86.8019992  55.5309978  36.7220014  86.0956484  55.2172979  37.1207617
  88.3009992  56.5069978  36.2880014  88.9779992  55.8739978  36.0480014
  88.6219992  56.9079978  37.0950014  88.4371323  56.4745691  36.3643158
  93.2179992  39.0969978  35.3670014  92.4049992  39.4219978  34.9800014
  93.4509992  38.3359978  34.8340014  93.1381347  39.0386880  35.2419841
  79.0459992  57.0789978  34.1320014  78.3259992  57.5189978  33.6810014
  78.6809992  56.8279978  34.9800014  78.8979643  57.1053369  34.1849129
  81.5129992  56.6789978  33.1620014  80.6489992  56.7509978  33.5660014
  81.4579992  57.2259978  32.3780014  81.3871942  56.7627849  33.1114000
  86.2239992  56.5669978  32.3370014  85.7669992  57.0959978  31.6830014
  86.3869992  57.1699978  33.0620014  86.1834960  56.7209280  32.3455274
  88.5519992  55.4449978  33.2820014  87.6469992  55.6099978  33.0160014
  88.9799992  56.2979978  33.2160014  88.4861537  55.5829134  33.2367095
  91.1559992  57.0149978  33.5770014  90.9739992  57.9309978  33.3660014
  91.3329992  56.6039978  32.7300014  91.1550030  57.0848273  33.4337166
  78.4609992  55.7019978  31.0420014  78.4429992  55.2759978  31.8990014
  79.2659992  55.3829978  30.6330014  78.5672875  55.6006435  31.1039515
  80.6019992  54.4119978  29.6970014  80.3829992  53.4949978  29.8670014
  81.4259992  54.5519978  30.1630014  80.6834702  54.3055511  29.7832527
  83.1389992  54.8819978  30.5460014  83.3519992  53.9939978  30.2590014
  83.2039992  54.8469978  31.5000014  83.1769149  54.7558326  30.6357369
  86.6479992  40.5459978  29.6900014  85.9739992  39.9159978  29.9460014
  87.2119992  40.0619978  29.0870014  86.6320384  40.3943708  29.6435020
  91.7909992  38.6529978  29.8030014  92.3939992  39.2009978  29.3010014
  90.9209992  38.9719978  29.5620014  91.7559157  38.7710373  29.7017910
  93.5179992  39.7919978  28.1360014  94.1289992  39.2779978  27.6090014
  93.8999992  40.6689978  28.1590014  93.6533305  39.8402050  28.0669418
  78.9749992  39.1799978  27.5120014  78.1979992  38.9449978  27.0050014
  79.5049992  38.3829978  27.5210014  78.9403451  39.0401268  27.4438627
  77.8109992  38.9779978  23.3160014  78.2499992  39.5889978  22.7240014
  77.1769992  39.5159978  23.7900014  77.7853859  39.1344064  23.2990305
  83.5539992  39.1059978  27.3250014  84.4279992  39.4949978  27.2960014
  83.4179992  38.8909978  28.2480014  83.6551953  39.1301643  27.4457617
  89.1109992  39.1359978  28.9750014  89.1869992  39.2319978  28.0250014
  88.8359992  38.2289978  29.1030014  89.0841871  39.0264146  28.8623944
  90.4639992  39.1619978  24.6670014  89.7609992  39.7769978  24.4570014
  90.0189992  38.3249978  24.7980014  90.3076550  39.1329668  24.6559837
  77.7119992  54.9259978  24.2130014  77.0269992  54.8879978  23.5460014
  77.7159992  55.8389978  24.5010014  77.6187621  55.0441924  24.1606126
  79.6719992  40.8939978  21.7580014  80.1629992  40.2639978  21.2310014
  80.2949992  41.1899978  22.4210014  79.8235304  40.8477376  21.7754940
  84.6979992  41.1869978  24.2150014  84.8759992  40.5399978  24.8980014
  84.6439992  42.0209978  24.6820014  84.7150678  41.2111604  24.3716301
  86.5759992  56.1349978  22.6110014  87.4419992  56.5019978  22.4330014
  86.3299992  55.6959978  21.7970014  86.6612097  56.1258525  22.4766019
  93.2849992  55.6979978  25.2900014  93.0909992  54.9499978  24.7250014
  93.2459992  56.4559978  24.7070014  93.2531645  55.6980786  25.1338148
  78.9319992  39.6939978  37.0300014  78.5659992  38.9279978  37.4720014
  79.8449992  39.7229978  37.3160014  79.0053172  39.5930324  37.1291890
  80.9049992  39.0439978  38.5650014  81.8039992  38.7699978  38.3810014
  80.5189992  38.3019978  39.0300014  80.9757307  38.9062196  38.6027098
  79.5299992  55.8459978  21.2380014  79.2619992  56.1319978  22.1120014
  80.3009992  55.2999978  21.3910014  79.5975926  55.8112779  21.3781205
  89.3269992  38.3769978  38.7480014  89.4029992  37.9509978  39.6010014
  90.2199992  38.3899978  38.4050014  89.4582303  38.3203493  38.8185497
  92.5029992  54.4499978  37.4400014  91.7209992  54.2629978  36.9200014
  92.4309992  55.3789978  37.6570014  92.3861924  54.5500637  37.3981602
 106.9089992  48.3359978  27.4710014 106.9979992  49.2799978  27.3390014
 106.2709992  48.0609978  26.8130014 106.8349062  48.4279812  27.3639641
 105.8419992  47.5909978  30.8900014 105.8039992  46.9449978  31.5950014
 105.5199992  47.1239978  30.1190014 105.7932679  47.4394276  30.8822921
  98.2099992  47.2049978  32.4830014  98.2519992  46.5799978  33.2060014
  98.9129992  47.8289978  32.6650014  98.3107345  47.2037873  32.6065274
 109.5479992  50.5299978  29.1910014 109.1069992  49.8099978  29.6420014
 109.5349992  51.2509978  29.8210014 109.4859215  50.5289291  29.3378105
  99.1339992  51.6549978  31.0180014  98.7639992  50.8529978  30.6480014
 100.0749992  51.4869978  31.0640014  99.2105984  51.5224638  30.9735603
  95.7439992  45.3149978  26.4100014  95.2959992  46.1609978  26.3920014
  95.1829992  44.7359978  25.8950014  95.6068546  45.3523993  26.3378891
  96.4539992  47.4769978  28.5360014  96.6679992  46.7069978  29.0640014
  97.1919992  47.5669978  27.9330014  96.5830200  47.3838586  28.5267035
 106.6599992  55.6339978  29.4030014 107.2789992  54.9579978  29.1300014
 106.4509992  55.4159978  30.3120014 106.7166056  55.5118869  29.4883967
 104.2309992  50.0229978  31.2960014 104.5349992  49.3369978  30.7010014
 104.9529992  50.1419978  31.9140014 104.3701240  49.9452314  31.2980959
 112.8939992  41.6249978  32.1560014 112.9439992  42.2349978  32.8920014
 113.3199992  42.0859978  31.4330014 112.9584108  41.7707709  32.1590112
 107.3719992  44.4169978  31.6230014 107.5149992  43.4709978  31.6430014
 107.2659992  44.6239978  30.6950014 107.3772403  44.3154797  31.5002239
 100.5269992  42.5189978  28.8960014 100.5699992  43.3789978  28.4770014
 100.0689992  41.9669978  28.2620014 100.4709871  42.5619245  28.7530761
 108.2489992  42.6499978  27.2970014 108.8959992  42.3209978  27.9210014
 108.7589992  43.1669978  26.6740014 108.4064351  42.6749067  27.2981037
  97.1469992  44.9159978  29.6580014  97.8009992  44.3659978  30.0900014
  97.1709992  44.6419978  28.7410014  97.2397199  44.8037167  29.5931668
 102.3039992  46.4659978  28.8730014 102.9199992  45.9389978  29.3820014
 101.7169992  45.8259978  28.4690014 102.3090154  46.3073954  28.8880945
 113.2859992  43.1029978  34.3920014 112.5969992  43.7609978  34.2970014
 113.3009992  42.9049978  35.3290014 113.1937756  43.1662603  34.5055812
  99.3369992  41.4369978  32.9700014  99.1179992  41.9669978  32.2030014
  98.6689992  41.6629978  33.6170014  99.2166975  41.5400967  32.9525140
 106.7059992  50.9369978  26.5140014 106.4109992  50.6139978  25.6620014
 106.3819992  51.8369978  26.5550014 106.6218460  51.0144464  26.4029714
 101.9059992  49.1119978  33.2570014 101.1659992  49.7109978  33.3610014
 102.6199992  49.6659978  32.9420014 101.9013500  49.2687829  33.2286371
 110.0129992  41.9409978  29.2770014 109.7979992  41.1749978  29.8100014
 110.6689992  42.4129978  29.7900014 110.0722673  41.9000728  29.4191990
  98.9309992  43.3289978  30.9220014  99.5449992  43.9619978  31.2950014
  99.4429992  42.8569978  30.2660014  99.0841962  43.3517249  30.8842935
 100.3139992  51.0769978  34.0440014 100.3079992  51.9559978  33.6660014
  99.4599992  50.9929978  34.4690014 100.1977925  51.1859535  34.0496887
  96.4349992  50.7479978  24.8260014  96.1629992  50.9769978  23.9380014
  96.4799992  51.5849978  25.2870014  96.4038097  50.8926163  24.7666683
 110.0599992  52.3689978  31.5390014 109.1179992  52.4279978  31.7010014
 110.3359992  53.2749978  31.4020014 109.9685865  52.4995288  31.5426192
 110.3599992  40.6559978  32.9560014 109.6239992  41.2659978  32.9190014
 111.0439992  41.0709978  32.4300014 110.3515367  40.7957551  32.8798174
 103.3639992  38.7419978  30.4220014 103.2459992  37.7939978  30.3680014
 102.5089992  39.0749978  30.6950014 103.2322805  38.6572202  30.4515079
 108.3119992  54.1499978  28.1640014 108.7369992  53.4429978  27.6790014
 108.6289992  54.9519978  27.7470014 108.4130266  54.1615190  28.0412479
 109.4719992  52.0509978  26.6730014 109.2139992  51.3609978  26.0610014
 109.5429992  51.6079978  27.5180014 109.4463050  51.8966814  26.7035621
 111.1579992  50.6179978  35.1500014 111.2969992  50.0259978  34.4110014
 111.3249992  51.4909978  34.7940014 111.1996193  50.6548896  35.0006211
 105.6299992  47.5799978  24.9230014 104.9189992  48.1149978  24.5710014
 106.3209992  47.6349978  24.2630014 105.6260751  47.6606777  24.7855858
 105.6839992  46.0369978  21.9610014 106.3849992  46.0599978  22.6130014
 105.9859992  45.4089978  21.3050014 105.8208202  45.9552212  21.9615609
 112.9989992  46.9579978  33.2160014 112.3469992  47.6519978  33.3050014
 113.4649992  47.1679978  32.4060014 112.9725937  47.0815019  33.1187533
 109.0359992  47.7889978  25.8740014 108.3039992  48.0179978  26.4480014
 109.4829992  47.0759978  26.3290014 108.9963963  47.7238729  26.0139945
 108.9329992  45.9639978  34.9420014 109.0129992  46.7269978  35.5140014
 108.3319992  46.2429978  34.2520014 108.8626547  46.1062457  34.9270047
 100.6809992  48.4199978  27.7570014 100.3509992  48.0489978  26.9390014
 101.2699992  47.7489978  28.1040014 100.7153970  48.2786063  27.6919404
 102.0479992  51.8479978  30.4380014 101.9529992  51.2689978  29.6820014
 102.7769992  51.4769978  30.9340014 102.1336011  51.7185561  30.4016028
 101.0479992  47.1879978  31.3900014 101.6129992  47.3099978  30.6280014
 101.3669992  47.8259978  32.0290014 101.1684166  47.2908791  31.3720348
 107.3569992  52.6919978  32.1240014 107.1169992  53.3539978  32.7720014
 107.1589992  51.8569978  32.5490014 107.2973826  52.6698115  32.2701566
 101.9279992  51.5879978  36.1080014 101.6169992  52.3699978  36.5630014
 101.2779992  51.4349978  35.4220014 101.7975538  51.6744087  36.0775898
 107.9069992  46.9519978  23.5600014 108.4859992  47.1019978  24.3060014
 108.3209992  47.4219978  22.8360014 108.0423358  47.0360954  23.5643953
  98.8479992  47.7859978  35.3360014  98.9179992  48.4369978  36.0350014
  97.9569992  47.8889978  35.0010014  98.7371690  47.8889249  35.3863043
 105.6329992  53.6879978  26.9950014 106.1069992  53.9839978  27.7720014
 105.0699992  54.4269978  26.7620014 105.6217890  53.8283036  27.0698101
 100.1669992  53.6589978  36.8710014 100.1749992  53.5229978  35.9240014
  99.2509992  53.5419978  37.1230014 100.0442528  53.6245463  36.7753243
 111.6059992  38.7019978  23.3730014 110.7059992  38.8409978  23.6680014
 111.8579992  39.5329978  22.9710014 111.5168683  38.8334055  23.3590232
  99.6719992  47.4889978  25.3460014  99.3799992  48.2569978  24.8550014
  98.9969992  46.8299978  25.1830014  99.5408497  47.5049745  25.2568260
 112.7949992  53.0679978  21.7490014 112.8679992  54.0069978  21.9190014
 113.6999992  52.7629978  21.6930014 112.9274170  53.1553282  21.7647063
  95.7649992  49.8519978  34.1610014  95.2629992  49.8239978  33.3460014
  95.7699992  48.9469978  34.4710014  95.6969832  49.7257486  34.0914121
  95.5149992  52.6329978  31.0450014  96.4609992  52.4879978  31.0260014
  95.4019992  53.4169978  31.5820014  95.6293578  52.7191697  31.1150317
 113.7129992  53.2989978  36.7280014 113.6629992  52.3429978  36.6900014
 112.8859992  53.5659978  37.1290014 113.5943831  53.2044680  36.7770121
 104.6909992  52.8729978  35.6040014 104.7789992  53.6989978  36.0790014
 103.8279992  52.5429978  35.8530014 104.5863357  52.9415468  35.7027653
 105.1059992  56.6449978  25.4100014 105.0299992  56.5239978  24.4630014
 105.1379992  57.5939978  25.5280014 105.0999380  56.7567677  25.2965181
  98.7589992  55.4339978  27.1910014  98.9109992  55.0859978  28.0690014
  97.9079992  55.0769978  26.9350014  98.6648344  55.3380879  27.2766868
 108.2069992  55.7989978  22.4120014 108.5819992  55.0549978  21.9410014
 108.2119992  55.5289978  23.3300014 108.2590098  55.6606392  22.4716629
 107.8759992  55.7249978  25.1610014 106.9409992  55.8249978  25.3400014
 108.1559992  55.0149978  25.7400014 107.7859471  55.6427933  25.2636695
 110.8649992  44.7919978  37.2080014 110.4569992  45.2719978  36.4870014
 110.9049992  43.8859978  36.9000014 110.8146221  44.7352449  37.0678267
  98.0139992  51.1759978  35.2040014  98.2299992  50.8139978  36.0640014
  97.1579992  50.8009978  34.9950014  97.9278810  51.0758837  35.2932680
 100.6319992  39.6459978  31.2000014  99.7709992  39.5589978  30.7920014
 100.6099992  40.5019978  31.6280014 100.5110491  39.7498003  31.2019582
 105.2949992  39.3679978  34.5750014 105.7149992  38.9529978  35.3280014
 104.3619992  39.1889978  34.6920014 105.2263736  39.2869910  34.6938968
 108.6219992  43.1229978  35.4280014 108.1079992  42.9979978  36.2260014
 108.4659992  44.0359978  35.1840014 108.5306967  43.2292123  35.5040937
 109.3839992  47.9839978  21.1890014 109.4259992  47.7619978  20.2590014
 110.2329992  48.3829978  21.3790014 109.5045253  48.0075498  21.0873822
 104.9569992  41.8599978  21.8600014 104.7029992  41.8789978  22.7820014
 104.6999992  40.9889978  21.5580014 104.8874508  41.7448280  21.9454803
 100.7229992  44.6109978  32.2950014 100.0819992  44.5709978  33.0040014
 100.7609992  45.5379978  32.0570014 100.6403010  44.7307668  32.3599946
 100.7199992  44.8319978  27.2070014  99.8279992  44.4919978  27.1480014
 101.1709992  44.4549978  26.4510014 100.6587642  44.7344910  27.0967726
 106.2559992  45.2479978  26.0240014 105.8469992  46.0629978  25.7320014
 106.9759992  45.1079978  25.4100014 106.2974439  45.3405372  25.9010115
 105.3579992  45.4239978  37.5120014 104.7949992  44.7189978  37.8330014
 106.1839992  45.3029978  37.9800014 105.3926674  45.3112165  37.6191751
 107.2609992  44.6939978  28.8380014 107.0649992  45.2999978  28.1230014
 107.4419992  43.8609978  28.4040014 107.2586584  44.6642513  28.6814212
  98.4729992  44.9319978  34.1620014  98.4349992  45.3319978  35.0310014
  97.9829992  44.1149978  34.2520014  98.4015330  44.8762674  34.2931289
 101.8389992  42.3059978  20.9610014 101.4079992  41.8609978  21.6900014
 101.1209992  42.6769978  20.4480014 101.6829176  42.2952051  20.9914930
  95.0819992  42.0479978  28.0130014  95.7119992  42.0189978  28.7320014
  95.5309992  41.6229978  27.2820014  95.2290835  41.9865660  28.0127659
  96.3559992  42.7939978  23.4370014  96.8299992  43.3849978  22.8520014
  95.6379992  43.3239978  23.7840014  96.3238640  42.9465511  23.4037969
 106.5249992  46.3319978  33.5090014 106.8479992  45.7009978  32.8660014
 106.0839992  45.7979978  34.1700014 106.5096379  46.1733468  33.5102582
 103.3019992  42.2599978  28.2930014 102.3909992  42.3169978  28.5820014
 103.8069992  42.1999978  29.1040014 103.2456873  42.2596826  28.4421207
  98.1299992  43.8889978  27.1200014  97.2409992  43.9879978  26.7800014
  98.4269992  43.0469978  26.7740014  98.0484177  43.7887687  27.0266940
 101.7829992  43.8889978  24.7770014 102.7149992  44.0179978  24.9550014
 101.5679992  44.5579978  24.1270014 101.8814472  43.9970806  24.7134891
 107.7069992  41.4949978  31.5580014 107.0299992  41.6259978  32.2210014
 107.2219992  41.3399978  30.7470014 107.5487405  41.4919947  31.5392170
 100.4569992  45.0829978  22.3430014  99.9149992  44.7039978  21.6520014
 101.2909992  45.2779978  21.9150014 100.4954390  45.0574079  22.1904392
 110.9949992  57.1659978  37.8340014 111.1939992  57.5899978  37.0000014
 111.6499992  57.5099978  38.4410014 111.1108522  57.2706301  37.8017852
  98.5929992  49.6399978  37.4420014  99.3249992  49.8949978  38.0040014
  97.8119992  49.8449978  37.9580014  98.5876526  49.7025450  37.5885176
 104.6219992  45.0469978  30.1800014 105.1859992  44.5009978  29.6330014
 104.4739992  44.5259978  30.9690014 104.6793037  44.9016787  30.2117229
  99.6239992  41.1839978  26.5990014  99.3069992  40.2809978  26.5630014
 100.4049992  41.1859978  26.0460014  99.6862431  41.0607797  26.5193102
 103.2479992  43.4359978  32.5940014 102.4129992  43.8899978  32.7050014
 103.7719992  43.7119978  33.3460014 103.2046072  43.5353948  32.7108136
 103.7929992  49.6489978  24.2790014 103.0479992  49.1409978  23.9570014
 103.6579992  49.6979978  25.2250014 103.6728963  49.5861731  24.3628826
 110.9429992  48.7819978  33.0660014 111.5839992  49.2379978  32.5220014
 110.1119992  48.8949978  32.6030014 110.9185287  48.8596921  32.9289887
 107.6899992  42.4629978  22.4780014 106.7519992  42.5739978  22.3270014
 107.9879992  43.3189978  22.7850014 107.6016318  42.5940158  22.4988145
 105.3119992  49.8329978  35.5160014 104.9659992  49.4509978  36.3230014
 105.1119992  50.7659978  35.5870014 105.2375987  49.9069002  35.6360461
 108.4089992  44.3299978  24.1390014 109.3009992  44.1919978  24.4580014
 108.4649992  45.1209978  23.6020014 108.5387325  44.4179918  24.1101217
  98.9169992  48.9439978  30.0490014  99.6619992  48.9409978  29.4470014
  98.9949992  48.1199978  30.5300014  99.0293365  48.8322384  30.0317430
 105.9179992  51.1069978  23.3040014 105.6229992  51.9339978  23.6860014
 105.2149992  50.4879978  23.5010014 105.7826379  51.1364171  23.3828654
  95.9249992  47.4039978  35.3640014  96.1479992  46.9859978  36.1950014
  95.3229992  46.7919978  34.9410014  95.8741513  47.2639606  35.4206740
 102.9419992  46.9209978  37.5770014 102.6459992  46.7559978  36.6810014
 103.8729992  46.7009978  37.5660014 103.0274401  46.8686879  37.4530206
 107.5619992  52.2949978  35.4660014 106.6619992  52.4779978  35.1990014
 107.5959992  52.5539978  36.3870014 107.4433748  52.3550554  35.5539164
 113.2939992  44.5389978  23.8340014 112.7389992  44.1429978  23.1610014
 113.3939992  45.4499978  23.5560014 113.2316816  44.6079505  23.7045033
 113.2569992  50.3399978  36.6710014 112.4059992  50.5779978  36.3030014
 113.8469992  50.3229978  35.9180014 113.2203812  50.3702524  36.5188453
 111.5889992  53.3249978  24.2990014 111.2159992  52.4999978  24.6080014
 111.8659992  53.1419978  23.4010014 111.5753463  53.1872569  24.2199525
 108.7489992  48.1329978  31.3200014 107.8209992  47.9019978  31.2930014
 109.1999992  47.3559978  30.9900014 108.6828165  47.9962774  31.2716790
 101.2919992  52.4619978  27.4530014 101.8199992  53.2349978  27.2530014
 100.4119992  52.6859978  27.1510014 101.2453435  52.5982700  27.3847310
  97.0469992  47.3239978  22.0400014  97.6629992  47.9509978  22.4200014
  96.1849992  47.6399978  22.3120014  97.0147678  47.4524412  22.1287209
 102.7199992  50.1249978  27.0290014 102.4789992  51.0499978  27.0710014
 101.9789992  49.6659978  27.4260014 102.5869206  50.1895915  27.0883769
 103.2339992  54.2739978  33.3440014 103.5969992  55.1279978  33.1110014
 103.7659992  53.9819978  34.0850014 103.3555141  54.3513895  33.4122097
 101.4029992  55.1459978  26.5750014 100.4529992  55.2519978  26.6260014
 101.7549992  55.9669978  26.9190014 101.3205472  55.2714923  26.6284852
 106.7779992  50.3729978  33.0450014 106.3529992  50.1449978  33.8710014
 107.3589992  49.6339978  32.8630014 106.7983395  50.2419545  33.1334414
 108.9809992  51.3019978  22.1190014 109.3349992  50.9219978  22.9230014
 108.0329992  51.2079978  22.2060014 108.9012298  51.2372452  22.2408687
 109.4369992  54.9249978  35.5140014 108.8349992  54.3689978  35.0190014
 109.7179992  55.5919978  34.8880014 109.3925757  54.9390744  35.3615675
 113.4849992  55.7809978  22.3200014 114.2289992  56.3669978  22.1800014
 112.7909992  56.3499978  22.6530014 113.4929809  55.9380818  22.3458590
  97.5589992  42.1579978  34.9220014  96.6669992  42.4959978  34.8540014
  97.4609992  41.3019978  35.3400014  97.4234475  42.0886543  34.9691704
 109.8469992  49.9739978  24.3460014 109.5699992  49.2459978  24.9020014
 110.7749992  50.0929978  24.5510014 109.9344499  49.8904213  24.4498044
  97.2109992  53.9619978  33.3570014  97.4279992  53.0299978  33.3260014
  97.4569992  54.2369978  34.2400014  97.2739809  53.8715686  33.4721690
 103.0719992  52.4139978  20.5660014 103.3109992  51.6649978  20.0190014
 102.8029992  52.0259978  21.3990014 103.0683233  52.2591853  20.6037809
 102.0089992  51.9839978  23.0220014 102.1559992  51.4639978  23.8120014
 102.0059992  52.8909978  23.3290014 102.0287102  52.0353953  23.1715925
  98.4619992  49.2359978  23.5330014  97.7759992  49.5889978  24.1000014
  98.9849992  49.9989978  23.2860014  98.4388402  49.3873901  23.5771801
 106.2939992  41.8989978  33.8120014 106.9929992  41.9729978  34.4620014
 105.9129992  41.0339978  33.9660014 106.3382097  41.7922389  33.9217997
 107.0779992  41.5509978  24.9090014 107.2979992  42.0219978  24.1050014
 107.6369992  41.9449978  25.5790014 107.1836731  41.6687287  24.8895033
 104.7469992  53.6809978  23.7720014 103.9299992  54.1779978  23.8240014
 105.2759992  54.1569978  23.1310014 104.7068125  53.8131989  23.6925306
 104.2779992  43.2789978  25.7440014 105.0899992  43.7829978  25.7900014
 104.0339992  43.1339978  26.6580014 104.3561467  43.3283749  25.8738575
 104.8139992  44.2649978  34.9280014 104.9329992  44.8389978  35.6850014
 105.4689992  43.5769978  35.0430014 104.9188684  44.2505194  35.0471674
 105.1619992  40.3599978  26.6820014 104.8149992  40.9769978  27.3260014
 105.8209992  40.8609978  26.2000014 105.2035090  40.5121575  26.7050681
 102.0849992  54.7249978  23.7530014 102.2459992  55.5249978  23.2530014
 101.8879992  55.0319978  24.6380014 102.0803906  54.8758678  23.8042333
 100.8199992  41.4229978  23.3690014 100.7359992  42.3109978  23.7160014
 101.7099992  41.1579978  23.6010014 100.9288163  41.5087179  23.4478596
 111.0179992  42.1719978  35.7630014 110.1019992  42.4339978  35.6760014
 111.3539992  42.1689978  34.8670014 110.9378499  42.2075163  35.6298766
 109.6209992  45.9219978  29.8590014 108.8229992  45.5069978  29.5310014
 110.0659992  45.2319978  30.3500014 109.5719684  45.7718628  29.8805227
  99.0779992  51.8499978  22.4290014  99.6699992  52.5499978  22.7060014
  99.5369992  51.4169978  21.7100014  99.2211652  51.8872675  22.3696533
  97.3939992  44.5149978  21.5450014  97.3489992  45.4539978  21.7240014
  96.5059992  44.2789978  21.2760014  97.2678166  44.6116687  21.5331524
 110.7069992  55.1779978  31.4810014 110.5509992  55.8569978  30.8240014
 111.6399992  55.2499978  31.6840014 110.8117387  55.2806390  31.4185342
  98.2019992  39.2959978  30.2190014  97.9729992  39.3549978  29.2910014
  97.7599992  38.5049978  30.5250014  98.1108801  39.1970540  30.1334729
  97.1329992  53.2369978  26.3790014  96.2999992  53.7089978  26.4060014
  97.6779992  53.7469978  25.7800014  97.0927857  53.3704791  26.3017142
  96.4209992  55.8489978  37.7090014  96.9609992  55.6329978  38.4690014
  95.9399992  55.0439978  37.5190014  96.4299219  55.7105156  37.7874282
 101.0179992  54.7689978  39.3290014 101.7859992  54.3099978  39.6700014
 100.9969992  54.5429978  38.3990014 101.1202135  54.6756668  39.2499491
 105.1099992  54.2769978  20.7050014 104.4659992  53.6459978  21.0260014
 105.8719992  53.7459978  20.4730014 105.1248058  54.1187902  20.7176038
 107.5949992  53.1489978  38.0580014 107.2439992  52.2919978  38.3020014
 108.3209992  53.2909978  38.6650014 107.6451895  53.0511351  38.1733770
 109.7149992  54.0939978  20.9380014 109.9979992  53.2989978  21.3910014
 110.4539992  54.3269978  20.3770014 109.8537096  54.0167049  20.9241104
  96.3279992  49.6599978  38.6630014  96.4719992  48.7579978  38.3770014
  95.5559992  49.9459978  38.1760014  96.2432733  49.5751798  38.5579532
 100.6689992  50.0029978  20.7960014 100.7339992  49.2089978  21.3260014
 101.3219992  49.8849978  20.1060014 100.7661605  49.8783430  20.7752997
 102.9829992  49.6289978  38.0960014 102.6549992  49.8999978  37.2390014
 103.1349992  48.6879978  38.0080014 102.9586412  49.5389046  37.9667822
 106.0219992  51.0499978  20.5320014 105.7529992  51.2309978  21.4320014
 105.8149992  50.1249978  20.4000014 105.9571191  50.9497119  20.6375524
 108.7179992  49.5449978  35.4790014 109.4629992  50.1339978  35.3600014
 107.9609992  50.1269978  35.5430014 108.7175470  49.7042128  35.4713799
  97.1609992  46.8599978  38.0830014  97.5689992  46.0029978  37.9620014
  96.8999992  46.8739978  39.0040014  97.1816016  46.7445119  38.1909192
 101.8189992  47.9759978  23.1020014 101.3589992  47.4919978  23.7870014
 102.0739992  47.3069978  22.4660014 101.7904856  47.8193669  23.1098397
 101.1079992  45.8689978  35.4580014 100.4889992  46.5429978  35.7380014
 101.4519992  46.1899978  34.6240014 101.0697123  46.0046887  35.3836388
 102.8899992  46.2189978  21.3640014 102.7089992  46.0639978  20.4370014
 103.8399992  46.3269978  21.4090014 102.9936566  46.2123669  21.2430929
 106.1269992  48.3399978  38.7350014 107.0809992  48.4239978  38.7080014
 105.9669992  47.6279978  39.3550014 106.2357182  48.2552842  38.8150733
 112.2799992  48.5729978  20.8100014 112.0059992  48.1489978  19.9970014
 112.3189992  49.5049978  20.5930014 112.2477716  48.6408827  20.6694286
 101.4469992  43.2239978  36.5400014 101.5969992  42.4949978  35.9380014
 101.4489992  44.0009978  35.9810014 101.4677967  43.2292708  36.3820541
 101.8599992  41.5929978  34.0330014 102.3949992  42.0449978  33.3810014
 101.0069992  41.4849978  33.6100014 101.8180374  41.6402665  33.8866710
 103.4409992  47.0329978  34.2720014 104.1919992  46.8769978  33.6990014
 103.1019992  47.8849978  33.9970014 103.4979587  47.1268138  34.1564078
 107.8569992  44.8479978  39.3010014 108.0489992  43.9169978  39.1890014
 108.7149992  45.2729978  39.2900014 107.9992182  44.7780070  39.2841862
 109.1739992  47.6369978  37.3780014 108.8919992  48.3459978  36.8000014
 110.1159992  47.5639978  37.2270014 109.2627921  47.7242193  37.2784225
  99.9259992  44.4219978  38.4510014  99.1579992  43.8889978  38.2410014
 100.6039992  44.1119978  37.8520014  99.9127235  44.3071754  38.3412413
 102.6649992  39.0499978  34.4640014 102.5669992  39.9959978  34.3590014
 101.9229992  38.6769978  33.9880014 102.5512534  39.1291773  34.3852600
 103.9289992  43.3709978  38.0280014 103.6939992  43.1519978  38.9290014
 103.1459992  43.1639978  37.5180014 103.7909095  43.3129892  38.0825353
 106.6449992  42.4989978  37.1030014 105.6969992  42.5309978  37.2350014
 106.9569992  41.8729978  37.7570014 106.5575293  42.4187923  37.2094148
 108.2789992  41.1329978  39.1080014 108.1819992  40.1809978  39.1030014
 107.9569992  41.4009978  39.9690014 108.2222468  41.0390884  39.2236210
  98.1059992  42.3419978  38.1560014  98.3179992  41.6359978  37.5460014
  97.9949992  41.9049978  39.0000014  98.1200269  42.1861921  38.1865873
 102.8869992  38.3439978  37.1350014 103.5989992  37.7039978  37.1210014
 102.7859992  38.6099978  36.2220014 102.9707387  38.2924330  37.0095563
 103.2409992  40.0259978  39.1890014 103.1089992  39.5509978  38.3690014
 102.6409992  40.7709978  39.1340014 103.1419070  40.0615789  39.0693251
 102.7869992  56.9089978  22.3650014 103.7199992  57.0669978  22.5090014
 102.5229992  57.5849978  21.7400014 102.8789911  57.0219373  22.3002722
  96.3549992  51.5459978  21.8480014  97.2689992  51.6249978  22.1210014
  96.3629992  50.8589978  21.1820014  96.4810655  51.4639205  21.7952917
  95.0039992  56.9389978  26.9250014  94.3569992  56.4769978  26.3930014
  95.3589992  56.2669978  27.5080014  94.9633741  56.7849774  26.9309175
  95.8739992  55.0189978  28.7300014  95.5399992  54.1389978  28.9020014
  96.0969992  55.3649978  29.5950014  95.8583721  54.9451938  28.8704168
 113.4229992  55.8289978  31.7110014 113.4009992  56.0139978  32.6500014
 114.1129992  56.3969978  31.3700014 113.5133439  55.9311887  31.7934791
 112.9859992  55.3959978  34.6320014 112.4989992  54.6609978  34.2610014
 113.5349992  55.0019978  35.3100014 112.9935247  55.2421057  34.6728461
 111.4369992  51.1859978  39.2710014 110.5709992  51.0809978  39.6650014
 111.8129992  51.9439978  39.7170014 111.3693401  51.2741708  39.3852620
 112.7379992  49.4419978  24.7850014 113.5879992  49.8629978  24.9120014
 112.7429992  48.7019978  25.3920014 112.8551143  49.3996094  24.8844750
 113.1319992  47.4959978  26.6080014 112.4059992  47.0159978  27.0060014
 113.7139992  47.7009978  27.3410014 113.1112730  47.4580184  26.7614149
 112.8909992  50.2809978  31.5560014 113.7249992  49.9029978  31.2750014
 113.0029992  51.2239978  31.4370014 113.0201917  50.3567943  31.5014861
 111.3779992  53.1589978  33.8630014 110.7299992  53.4839978  34.4880014
 110.8599992  52.7179978  33.1890014 111.2194196  53.1438651  33.8574152
 113.4009992  47.3969978  22.9990014 112.8789992  47.7529978  22.2810014
 113.3679992  48.0719978  23.6780014 113.3250129  47.5369598  22.9923355
 111.7499992  44.6359978  21.5500014 111.8459992  45.3029978  20.8700014
 111.6099992  43.8209978  21.0690014 111.7442040  44.6170671  21.3918378
 110.9189992  46.0169978  27.1710014 110.7689992  45.0719978  27.1510014
 110.5649992  46.2979978  28.0150014 110.8506351  45.9256644  27.2823220
  95.9539992  48.0949978  31.1820014  96.1389992  48.0129978  30.2460014
  96.8039992  47.9709978  31.6050014  96.0940928  48.0670463  31.1112893
 111.7749992  47.9869978  36.8100014 112.3579992  47.2519978  37.0020014
 112.3389992  48.7589978  36.8570014 111.9309781  47.9908145  36.8426164
 113.2719992  45.8899978  37.4950014 112.4089992  45.5109978  37.3290014
 113.8759992  45.1509978  37.4200014 113.2356085  45.7383223  37.4621695
 110.9969992  42.0439978  20.6680014 111.6079992  41.6729978  21.3050014
 110.1599992  41.6229978  20.8640014 110.9674947  41.9362756  20.7817252
 110.6299992  43.5989978  25.6340014 110.9089992  42.6919978  25.7580014
 111.3889992  44.0329978  25.2450014 110.7708619  43.5334502  25.5983795
 111.2409992  44.1809978  31.0700014 112.1739992  44.3929978  31.0350014
 111.0059992  44.2819978  31.9920014 111.3369517  44.2236833  31.1899130
 111.2709992  44.9179978  33.8460014 110.4279992  45.1859978  34.2120014
 111.7129992  45.7399978  33.6350014 111.2154138  45.0658273  33.8675518
  95.5519992  43.3649978  37.3220014  96.4709992  43.2429978  37.5590014
  95.1019992  42.6149978  37.7120014  95.6170087  43.2469608  37.4071410
 113.5539992  38.8979978  39.1990014 113.9029992  38.2439978  38.5940014
 113.7009992  39.7349978  38.7590014 113.6216824  38.9216024  39.0566304
 111.2429992  40.8619978  25.6820014 111.4249992  40.4129978  26.5070014
 110.6429992  40.2779978  25.2180014 111.1868187  40.7215552  25.7322739
  96.7729992  41.6779978  30.2140014  97.2179992  40.8859978  30.5160014
  97.2389992  42.3939978  30.6440014  96.8969718  41.6664534  30.3135265
  95.0769992  44.6769978  31.2830014  95.5689992  44.4559978  30.4920014
  95.4389992  45.5169978  31.5640014  95.1932923  44.7603468  31.2127407
 113.0729992  41.0069978  37.5480014 112.1559992  41.2779978  37.5130014
 113.1959992  40.4719978  36.7640014 112.9639672  40.9717885  37.4371862
 113.1099992  40.9299978  22.2100014 113.5219992  40.2089978  21.7350014
 113.7909992  41.5989978  22.2680014 113.2585536  40.9217766  22.1528024
  95.3909992  40.9349978  25.3370014  94.4659992  41.1429978  25.2080014
  95.8449992  41.4189978  24.6470014  95.3256298  41.0289299  25.2260451
 110.1609992  55.9189978  27.2830014 110.8139992  55.5709978  26.6750014
 110.6719992  56.4069978  27.9290014 110.3192777  55.9373815  27.2872047
  95.3539992  39.6729978  33.6810014  94.6889992  39.4269978  34.3240014
  94.9109992  40.2949978  33.1040014  95.2031168  39.7234214  33.6909848
  97.5459992  52.8479978  37.8260014  96.7249992  53.0229978  37.3650014
  97.2939992  52.7749978  38.7460014  97.3995594  52.8620717  37.8873611
 100.4999992  53.8219978  34.0840014 100.0759992  54.6319978  33.8020014
 101.4049992  53.9079978  33.7820014 100.5642138  53.9444160  34.0046415
 104.8119992  55.2209978  37.0440014 104.9959992  54.8879978  37.9220014
 105.6579992  55.5309978  36.7220014 104.9516484  55.2172979  37.1207617
 107.1569992  56.5069978  36.2880014 107.8339992  55.8739978  36.0480014
 107.4779992  56.9079978  37.0950014 107.2931323  56.4745691  36.3643158
 112.0739992  39.0969978  35.3670014 111.2609992  39.4219978  34.9800014
 112.3069992  38.3359978  34.8340014 111.9941347  39.0386880  35.2419841
  97.9019992  57.0789978  34.1320014  97.1819992  57.5189978  33.6810014
  97.5369992  56.8279978  34.9800014  97.7539643  57.1053369  34.1849129
 100.3689992  56.6789978  33.1620014  99.5049992  56.7509978  33.5660014
 100.3139992  57.2259978  32.3780014 100.2431942  56.7627849  33.1114000
 105.0799992  56.5669978  32.3370014 104.6229992  57.0959978  31.6830014
 105.2429992  57.1699978  33.0620014 105.0394960  56.7209280  32.3455274
 107.4079992  55.4449978  33.2820014 106.5029992  55.6099978  33.0160014
 107.8359992  56.2979978  33.2160014 107.3421537  55.5829134  33.2367095
 110.0119992  57.0149978  33.5770014 109.8299992  57.9309978  33.3660014
 110.1889992  56.6039978  32.7300014 110.0110030  57.0848273  33.4337166
  97.3169992  55.7019978  31.0420014  97.2989992  55.2759978  31.8990014
  98.1219992  55.3829978  30.6330014  97.4232875  55.6006435  31.1039515
  99.4579992  54.4119978  29.6970014  99.2389992  53.4949978  29.8670014
 100.2819992  54.5519978  30.1630014  99.5394702  54.3055511  29.7832527
 101.9949992  54.8819978  30.5460014 102.2079992  53.9939978  30.2590014
 102.0599992  54.8469978  31.5000014 102.0329149  54.7558326  30.6357369
 105.5039992  40.5459978  29.6900014 104.8299992  39.9159978  29.9460014
 106.0679992  40.0619978  29.0870014 105.4880384  40.3943708  29.6435020
 110.6469992  38.6529978  29.8030014 111.2499992  39.2009978  29.3010014
 109.7769992  38.9719978  29.5620014 110.6119157  38.7710373  29.7017910
 112.3739992  39.7919978  28.1360014 112.9849992  39.2779978  27.6090014
 112.7559992  40.6689978  28.1590014 112.5093305  39.8402050  28.0669418
  97.8309992  39.1799978  27.5120014  97.0539992  38.9449978  27.0050014
  98.3609992  38.3829978  27.5210014  97.7963451  39.0401268  27.4438627
  96.6669992  38.9779978  23.3160014  97.1059992  39.5889978  22.7240014
  96.0329992  39.5159978  23.7900014  96.6413859  39.1344064  23.2990305
 102.4099992  39.1059978  27.3250014 103.2839992  39.4949978  27.2960014
 102.2739992  38.8909978  28.2480014 102.5111953  39.1301643  27.4457617
 107.9669992  39.1359978  28.9750014 108.0429992  39.2319978  28.0250014
 107.6919992  38.2289978  29.1030014 107.9401871  39.0264146  28.8623944
 109.3199992  39.1619978  24.6670014 108.6169992  39.7769978  24.4570014
 108.8749992  38.3249978  24.7980014 109.1636550  39.1329668  24.6559837
  96.5679992  54.9259978  24.2130014  95.8829992  54.8879978  23.5460014
  96.5719992  55.8389978  24.5010014  96.4747621  55.0441924  24.1606126
  98.5279992  40.8939978  21.7580014  99.0189992  40.2639978  21.2310014
  99.1509992  41.1899978  22.4210014  98.6795304  40.8477376  21.7754940
 103.5539992  41.1869978  24.2150014 103.7319992  40.5399978  24.8980014
 103.4999992  42.0209978  24.6820014 103.5710678  41.2111604  24.3716301
 105.4319992  56.1349978  22.6110014 106.2979992  56.5019978  22.4330014
 105.1859992  55.6959978  21.7970014 105.5172097  56.1258525  22.4766019
 112.1409992  55.6979978  25.2900014 111.9469992  54.9499978  24.7250014
 112.1019992  56.4559978  24.7070014 112.1091645  55.6980786  25.1338148
  97.7879992  39.6939978  37.0300014  97.4219992  38.9279978  37.4720014
  98.7009992  39.7229978  37.3160014  97.8613172  39.5930324  37.1291890
  99.7609992  39.0439978  38.5650014 100.6599992  38.7699978  38.3810014
  99.3749992  38.3019978  39.0300014  99.8317307  38.9062196  38.6027098
  98.3859992  55.8459978  21.2380014  98.1179992  56.1319978  22.1120014
  99.1569992  55.2999978  21.3910014  98.4535927  55.8112779  21.3781205
 108.1829992  38.3769978  38.7480014 108.2589992  37.9509978  39.6010014
 109.0759992  38.3899978  38.4050014 108.3142303  38.3203493  38.8185497
 111.3589992  54.4499978  37.4400014 110.5769992  54.2629978  36.9200014
 111.2869992  55.3789978  37.6570014 111.2421924  54.5500637  37.3981602
 125.7649992  48.3359978  27.4710014 125.8539992  49.2799978  27.3390014
 125.1269992  48.0609978  26.8130014 125.6909062  48.4279812  27.3639641
 124.6979992  47.5909978  30.8900014 124.6599992  46.9449978  31.5950014
 124.3759992  47.1239978  30.1190014 124.6492679  47.4394276  30.8822921
 117.0659992  47.2049978  32.4830014 117.1079992  46.5799978  33.2060014
 117.7689992  47.8289978  32.6650014 117.1667345  47.2037873  32.6065274
 128.4039992  50.5299978  29.1910014 127.9629992  49.8099978  29.6420014
 128.3909992  51.2509978  29.8210014 128.3419215  50.5289291  29.3378105
 117.9899992  51.6549978  31.0180014 117.6199992  50.8529978  30.6480014
 118.9309992  51.4869978  31.0640014 118.0665984  51.5224638  30.9735603
 114.5999992  45.3149978  26.4100014 114.1519992  46.1609978  26.3920014
 114.0389992  44.7359978  25.8950014 114.4628546  45.3523993  26.3378891
 115.3099992  47.4769978  28.5360014 115.5239992  46.7069978  29.0640014
 116.0479992  47.5669978  27.9330014 115.4390200  47.3838586  28.5267035
 125.5159992  55.6339978  29.4030014 126.1349992  54.9579978  29.1300014
 125.3069992  55.4159978  30.3120014 125.5726056  55.5118869  29.4883967
 123.0869992  50.0229978  31.2960014 123.3909992  49.3369978  30.7010014
 123.8089992  50.1419978  31.9140014 123.2261240  49.9452314  31.2980959
 131.7499992  41.6249978  32.1560014 131.7999992  42.2349978  32.8920014
 132.1759992  42.0859978  31.4330014 131.8144108  41.7707709  32.1590112
 126.2279992  44.4169978  31.6230014 126.3709992  43.4709978  31.6430014
 126.1219992  44.6239978  30.6950014 126.2332403  44.3154797  31.5002239
 119.3829992  42.5189978  28.8960014 119.4259992  43.3789978  28.4770014
 118.9249992  41.9669978  28.2620014 119.3269871  42.5619245  28.7530761
 127.1049992  42.6499978  27.2970014 127.7519992  42.3209978  27.9210014
 127.6149992  43.1669978  26.6740014 127.2624351  42.6749067  27.2981037
 116.0029992  44.9159978  29.6580014 116.6569992  44.3659978  30.0900014
 116.0269992  44.6419978  28.7410014 116.0957199  44.8037167  29.5931668
 121.1599992  46.4659978  28.8730014 121.7759992  45.9389978  29.3820014
 120.5729992  45.8259978  28.4690014 121.1650154  46.3073954  28.8880945
 132.1419992  43.1029978  34.3920014 131.4529992  43.7609978  34.2970014
 132.1569992  42.9049978  35.3290014 132.0497756  43.1662603  34.5055812
 118.1929992  41.4369978  32.9700014 117.9739992  41.9669978  32.2030014
 117.5249992  41.6629978  33.6170014 118.0726975  41.5400967  32.9525140
 125.5619992  50.9369978  26.5140014 125.2669992  50.6139978  25.6620014
 125.2379992  51.8369978  26.5550014 125.4778460  51.0144464  26.4029714
 120.7619992  49.1119978  33.2570014 120.0219992  49.7109978  33.3610014
 121.4759992  49.6659978  32.9420014 120.7573500  49.2687829  33.2286371
 128.8689992  41.9409978  29.2770014 128.6539992  41.1749978  29.8100014
 129.5249992  42.4129978  29.7900014 128.9282673  41.9000728  29.4191990
 117.7869992  43.3289978  30.9220014 118.4009992  43.9619978  31.2950014
 118.2989992  42.8569978  30.2660014 117.9401962  43.3517249  30.8842935
 119.1699992  51.0769978  34.0440014 119.1639992  51.9559978  33.6660014
 118.3159992  50.9929978  34.4690014 119.0537925  51.1859535  34.0496887
 115.2909992  50.7479978  24.8260014 115.0189992  50.9769978  23.9380014
 115.3359992  51.5849978  25.2870014 115.2598097  50.8926163  24.7666683
 128.9159992  52.3689978  31.5390014 127.9739992  52.4279978  31.7010014
 129.1919992  53.2749978  31.4020014 128.8245865  52.4995288  31.5426192
 129.2159992  40.6559978  32.9560014 128.4799992  41.2659978  32.9190014
 129.8999992  41.0709978  32.4300014 129.2075367  40.7957551  32.8798174
 122.2199992  38.7419978  30.4220014 122.1019992  37.7939978  30.3680014
 121.3649992  39.0749978  30.6950014 122.0882805  38.6572202  30.4515079
 127.1679992  54.1499978  28.1640014 127.5929992  53.4429978  27.6790014
 127.4849992  54.9519978  27.7470014 127.2690266  54.1615190  28.0412479
 128.3279992  52.0509978  26.6730014 128.0699992  51.3609978  26.0610014
 128.3989992  51.6079978  27.5180014 128.3023050  51.8966814  26.7035621
 130.0139992  50.6179978  35.1500014 130.1529992  50.0259978  34.4110014
 130.1809992  51.4909978  34.7940014 130.0556193  50.6548896  35.0006211
 124.4859992  47.5799978  24.9230014 123.7749992  48.1149978  24.5710014
 125.1769992  47.6349978  24.2630014 124.4820751  47.6606777  24.7855858
 124.5399992  46.0369978  21.9610014 125.2409992  46.0599978  22.6130014
 124.8419992  45.4089978  21.3050014 124.6768202  45.9552212  21.9615609
 131.8549992  46.9579978  33.2160014 131.2029992  47.6519978  33.3050014
 132.3209992  47.1679978  32.4060014 131.8285937  47.0815019  33.1187533
 127.8919992  47.7889978  25.8740014 127.1599992  48.0179978  26.4480014
 128.3389992  47.0759978  26.3290014 127.8523963  47.7238729  26.0139945
 127.7889992  45.9639978  34.9420014 127.8689992  46.7269978  35.5140014
 127.1879992  46.2429978  34.2520014 127.7186547  46.1062457  34.9270047
 119.5369992  48.4199978  27.7570014 119.2069992  48.0489978  26.9390014
 120.1259992  47.7489978  28.1040014 119.5713970  48.2786063  27.6919404
 120.9039992  51.8479978  30.4380014 120.8089992  51.2689978  29.6820014
 121.6329992  51.4769978  30.9340014 120.9896011  51.7185561  30.4016028
 119.9039992  47.1879978  31.3900014 120.4689992  47.3099978  30.6280014
 120.2229992  47.8259978  32.0290014 120.0244166  47.2908791  31.3720348
 126.2129992  52.6919978  32.1240014 125.9729992  53.3539978  32.7720014
 126.0149992  51.8569978  32.5490014 126.1533826  52.6698115  32.2701566
 120.7839992  51.5879978  36.1080014 120.4729992  52.3699978  36.5630014
 120.1339992  51.4349978  35.4220014 120.6535538  51.6744087  36.0775898
 126.7629992  46.9519978  23.5600014 127.3419992  47.1019978  24.3060014
 127.1769992  47.4219978  22.8360014 126.8983358  47.0360954  23.5643953
 117.7039992  47.7859978  35.3360014 117.7739992  48.4369978  36.0350014
 116.8129992  47.8889978  35.0010014 117.5931690  47.8889249  35.3863043
 124.4889992  53.6879978  26.9950014 124.9629992  53.9839978  27.7720014
 123.9259992  54.4269978  26.7620014 124.4777890  53.8283036  27.0698101
 119.0229992  53.6589978  36.8710014 119.0309992  53.5229978  35.9240014
 118.1069992  53.5419978  37.1230014 118.9002528  53.6245463  36.7753243
 130.4619992  38.7019978  23.3730014 129.5619992  38.8409978  23.6680014
 130.7139992  39.5329978  22.9710014 130.3728683  38.8334055  23.3590232
 118.5279992  47.4889978  25.3460014 118.2359992  48.2569978  24.8550014
 117.8529992  46.8299978  25.1830014 118.3968497  47.5049745  25.2568260
 131.6509992  53.0679978  21.7490014 131.7239992  54.0069978  21.9190014
 132.5559992  52.7629978  21.6930014 131.7834170  53.1553282  21.7647063
 114.6209992  49.8519978  34.1610014 114.1189992  49.8239978  33.3460014
 114.6259992  48.9469978  34.4710014 114.5529832  49.7257486  34.0914121
 114.3709992  52.6329978  31.0450014 115.3169992  52.4879978  31.0260014
 114.2579992  53.4169978  31.5820014 114.4853578  52.7191697  31.1150317
 132.5689992  53.2989978  36.7280014 132.5189992  52.3429978  36.6900014
 131.7419992  53.5659978  37.1290014 132.4503831  53.2044680  36.7770121
 123.5469992  52.8729978  35.6040014 123.6349992  53.6989978  36.0790014
 122.6839992  52.5429978  35.8530014 123.4423357  52.9415468  35.7027653
 123.9619992  56.6449978  25.4100014 123.8859992  56.5239978  24.4630014
 123.9939992  57.5939978  25.5280014 123.9559380  56.7567677  25.2965181
 117.6149992  55.4339978  27.1910014 117.7669992  55.0859978  28.0690014
 116.7639992  55.0769978  26.9350014 117.5208344  55.3380879  27.2766868
 127.0629992  55.7989978  22.4120014 127.4379992  55.0549978  21.9410014
 127.0679992  55.5289978  23.3300014 127.1150098  55.6606392  22.4716629
 126.7319992  55.7249978  25.1610014 125.7969992  55.8249978  25.3400014
 127.0119992  55.0149978  25.7400014 126.6419471  55.6427933  25.2636695
 129.7209992  44.7919978  37.2080014 129.3129992  45.2719978  36.4870014
 129.7609992  43.8859978  36.9000014 129.6706221  44.7352449  37.0678267
 116.8699992  51.1759978  35.2040014 117.0859992  50.8139978  36.0640014
 116.0139992  50.8009978  34.9950014 116.7838810  51.0758837  35.2932680
 119.4879992  39.6459978  31.2000014 118.6269992  39.5589978  30.7920014
 119.4659992  40.5019978  31.6280014 119.3670491  39.7498003  31.2019582
 124.1509992  39.3679978  34.5750014 124.5709992  38.9529978  35.3280014
 123.2179992  39.1889978  34.6920014 124.0823736  39.2869910  34.6938968
 127.4779992  43.1229978  35.4280014 126.9639992  42.9979978  36.2260014
 127.3219992  44.0359978  35.1840014 127.3866967  43.2292123  35.5040937
 128.2399992  47.9839978  21.1890014 128.2819992  47.7619978  20.2590014
 129.0889992  48.3829978  21.3790014 128.3605253  48.0075498  21.0873822
 123.8129992  41.8599978  21.8600014 123.5589992  41.8789978  22.7820014
 123.5559992  40.9889978  21.5580014 123.7434508  41.7448280  21.9454803
 119.5789992  44.6109978  32.2950014 118.9379992  44.5709978  33.0040014
 119.6169992  45.5379978  32.0570014 119.4963010  44.7307668  32.3599946
 119.5759992  44.8319978  27.2070014 118.6839992  44.4919978  27.1480014
 120.0269992  44.4549978  26.4510014 119.5147642  44.7344910  27.0967726
 125.1119992  45.2479978  26.0240014 124.7029992  46.0629978  25.7320014
 125.8319992  45.1079978  25.4100014 125.1534439  45.3405372  25.9010115
 124.2139992  45.4239978  37.5120014 123.6509992  44.7189978  37.8330014
 125.0399992  45.3029978  37.9800014 124.2486674  45.3112165  37.6191751
 126.1169992  44.6939978  28.8380014 125.9209992  45.2999978  28.1230014
 126.2979992  43.8609978  28.4040014 126.1146584  44.6642513  28.6814212
 117.3289992  44.9319978  34.1620014 117.2909992  45.3319978  35.0310014
 116.8389992  44.1149978  34.2520014 117.2575330  44.8762674  34.2931289
 120.6949992  42.3059978  20.9610014 120.2639992  41.8609978  21.6900014
 119.9769992  42.6769978  20.4480014 120.5389176  42.2952051  20.9914930
 113.9379992  42.0479978  28.0130014 114.5679992  42.0189978  28.7320014
 114.3869992  41.6229978  27.2820014 114.0850835  41.9865660  28.0127659
 115.2119992  42.7939978  23.4370014 115.6859992  43.3849978  22.8520014
 114.4939992  43.3239978  23.7840014 115.1798640  42.9465511  23.4037969
 125.3809992  46.3319978  33.5090014 125.7039992  45.7009978  32.8660014
 124.9399992  45.7979978  34.1700014 125.3656379  46.1733468  33.5102582
 122.1579992  42.2599978  28.2930014 121.2469992  42.3169978  28.5820014
 122.6629992  42.1999978  29.1040014 122.1016873  42.2596826  28.4421207
 116.9859992  43.8889978  27.1200014 116.0969992  43.9879978  26.7800014
 117.2829992  43.0469978  26.7740014 116.9044177  43.7887687  27.0266940
 120.6389992  43.8889978  24.7770014 121.5709992  44.0179978  24.9550014
 120.4239992  44.5579978  24.1270014 120.7374472  43.9970806  24.7134891
 126.5629992  41.4949978  31.5580014 125.8859992  41.6259978  32.2210014
 126.0779992  41.3399978  30.7470014 126.4047405  41.4919947  31.5392170
 119.3129992  45.0829978  22.3430014 118.7709992  44.7039978  21.6520014
 120.1469992  45.2779978  21.9150014 119.3514390  45.0574079  22.1904392
 129.8509992  57.1659978  37.8340014 130.0499992  57.5899978  37.0000014
 130.5059992  57.5099978  38.4410014 129.9668522  57.2706301  37.8017852
 117.4489992  49.6399978  37.4420014 118.1809992  49.8949978  38.0040014
 116.6679992  49.8449978  37.9580014 117.4436526  49.7025450  37.5885176
 123.4779992  45.0469978  30.1800014 124.0419992  44.5009978  29.6330014
 123.3299992  44.5259978  30.9690014 123.5353037  44.9016787  30.2117229
 118.4799992  41.1839978  26.5990014 118.1629992  40.2809978  26.5630014
 119.2609992  41.1859978  26.0460014 118.5422431  41.0607797  26.5193102
 122.1039992  43.4359978  32.5940014 121.2689992  43.8899978  32.7050014
 122.6279992  43.7119978  33.3460014 122.0606072  43.5353948  32.7108136
 122.6489992  49.6489978  24.2790014 121.9039992  49.1409978  23.9570014
 122.5139992  49.6979978  25.2250014 122.5288963  49.5861731  24.3628826
 129.7989992  48.7819978  33.0660014 130.4399992  49.2379978  32.5220014
 128.9679992  48.8949978  32.6030014 129.7745287  48.8596921  32.9289887
 126.5459992  42.4629978  22.4780014 125.6079992  42.5739978  22.3270014
 126.8439992  43.3189978  22.7850014 126.4576318  42.5940158  22.4988145
 124.1679992  49.8329978  35.5160014 123.8219992  49.4509978  36.3230014
 123.9679992  50.7659978  35.5870014 124.0935987  49.9069002  35.6360461
 127.2649992  44.3299978  24.1390014 128.1569992  44.1919978  24.4580014
 127.3209992  45.1209978  23.6020014 127.3947325  44.4179918  24.1101217
 117.7729992  48.9439978  30.0490014 118.5179992  48.9409978  29.4470014
 117.8509992  48.1199978  30.5300014 117.8853365  48.8322384  30.0317430
 124.7739992  51.1069978  23.3040014 124.4789992  51.9339978  23.6860014
 124.0709992  50.4879978  23.5010014 124.6386379  51.1364171  23.3828654
 114.7809992  47.4039978  35.3640014 115.0039992  46.9859978  36.1950014
 114.1789992  46.7919978  34.9410014 114.7301513  47.2639606  35.4206740
 121.7979992  46.9209978  37.5770014 121.5019992  46.7559978  36.6810014
 122.7289992  46.7009978  37.5660014 121.8834401  46.8686879  37.4530206
 126.4179992  52.2949978  35.4660014 125.5179992  52.4779978  35.1990014
 126.4519992  52.5539978  36.3870014 126.2993748  52.3550554  35.5539164
 132.1499992  44.5389978  23.8340014 131.5949992  44.1429978  23.1610014
 132.2499992  45.4499978  23.5560014 132.0876816  44.6079505  23.7045033
 132.1129992  50.3399978  36.6710014 131.2619992  50.5779978  36.3030014
 132.7029992  50.3229978  35.9180014 132.0763812  50.3702524  36.5188453
 130.4449992  53.3249978  24.2990014 130.0719992  52.4999978  24.6080014
 130.7219992  53.1419978  23.4010014 130.4313463  53.1872569  24.2199525
 127.6049992  48.1329978  31.3200014 126.6769992  47.9019978  31.2930014
 128.0559992  47.3559978  30.9900014 127.5388165  47.9962774  31.2716790
 120.1479992  52.4619978  27.4530014 120.6759992  53.2349978  27.2530014
 119.2679992  52.6859978  27.1510014 120.1013435  52.5982700  27.3847310
 115.9029992  47.3239978  22.0400014 116.5189992  47.9509978  22.4200014
 115.0409992  47.6399978  22.3120014 115.8707678  47.4524412  22.1287209
 121.5759992  50.1249978  27.0290014 121.3349992  51.0499978  27.0710014
 120.8349992  49.6659978  27.4260014 121.4429206  50.1895915  27.0883769
 122.0899992  54.2739978  33.3440014 122.4529992  55.1279978  33.1110014
 122.6219992  53.9819978  34.0850014 122.2115141  54.3513895  33.4122097
 120.2589992  55.1459978  26.5750014 119.3089992  55.2519978  26.6260014
 120.6109992  55.9669978  26.9190014 120.1765472  55.2714923  26.6284852
 125.6339992  50.3729978  33.0450014 125.2089992  50.1449978  33.8710014
 126.2149992  49.6339978  32.8630014 125.6543395  50.2419545  33.1334414
 127.8369992  51.3019978  22.1190014 128.1909992  50.9219978  22.9230014
 126.8889992  51.2079978  22.2060014 127.7572298  51.2372452  22.2408687
 128.2929992  54.9249978  35.5140014 127.6909992  54.3689978  35.0190014
 128.5739992  55.5919978  34.8880014 128.2485757  54.9390744  35.3615675
 132.3409992  55.7809978  22.3200014 133.0849992  56.3669978  22.1800014
 131.6469992  56.3499978  22.6530014 132.3489809  55.9380818  22.3458590
 116.4149992  42.1579978  34.9220014 115.5229992  42.4959978  34.8540014
 116.3169992  41.3019978  35.3400014 116.2794475  42.0886543  34.9691704
 128.7029992  49.9739978  24.3460014 128.4259992  49.2459978  24.9020014
 129.6309992  50.0929978  24.5510014 128.7904499  49.8904213  24.4498044
 116.0669992  53.9619978  33.3570014 116.2839992  53.0299978  33.3260014
 116.3129992  54.2369978  34.2400014 116.1299809  53.8715686  33.4721690
 121.9279992  52.4139978  20.5660014 122.1669992  51.6649978  20.0190014
 121.6589992  52.0259978  21.3990014 121.9243233  52.2591853  20.6037809
 120.8649992  51.9839978  23.0220014 121.0119992  51.4639978  23.8120014
 120.8619992  52.8909978  23.3290014 120.8847102  52.0353953  23.1715925
 117.3179992  49.2359978  23.5330014 116.6319992  49.5889978  24.1000014
 117.8409992  49.9989978  23.2860014 117.2948402  49.3873901  23.5771801
 125.1499992  41.8989978  33.8120014 125.8489992  41.9729978  34.4620014
 124.7689992  41.0339978  33.9660014 125.1942097  41.7922389  33.9217997
 125.9339992  41.5509978  24.9090014 126.1539992  42.0219978  24.1050014
 126.4929992  41.9449978  25.5790014 126.0396731  41.6687287  24.8895033
 123.6029992  53.6809978  23.7720014 122.7859992  54.1779978  23.8240014
 124.1319992  54.1569978  23.1310014 123.5628125  53.8131989  23.6925306
 123.1339992  43.2789978  25.7440014 123.9459992  43.7829978  25.7900014
 122.8899992  43.1339978  26.6580014 123.2121467  43.3283749  25.8738575
 123.6699992  44.2649978  34.9280014 123.7889992  44.8389978  35.6850014
 124.3249992  43.5769978  35.0430014 123.7748684  44.2505194  35.0471674
 124.0179992  40.3599978  26.6820014 123.6709992  40.9769978  27.3260014
 124.6769992  40.8609978  26.2000014 124.0595090  40.5121575  26.7050681
 120.9409992  54.7249978  23.7530014 121.1019992  55.5249978  23.2530014
 120.7439992  55.0319978  24.6380014 120.9363906  54.8758678  23.8042333
 119.6759992  41.4229978  23.3690014 119.5919992  42.3109978  23.7160014
 120.5659992  41.1579978  23.6010014 119.7848163  41.5087179  23.4478596
 129.8739992  42.1719978  35.7630014 128.9579992  42.4339978  35.6760014
 130.2099992  42.1689978  34.8670014 129.7938499  42.2075163  35.6298766
 128.4769992  45.9219978  29.8590014 127.6789992  45.5069978  29.5310014
 128.9219992  45.2319978  30.3500014 128.4279684  45.7718628  29.8805227
 117.9339992  51.8499978  22.4290014 118.5259992  52.5499978  22.7060014
 118.3929992  51.4169978  21.7100014 118.0771652  51.8872675  22.3696533
 116.2499992  44.5149978  21.5450014 116.2049992  45.4539978  21.7240014
 115.3619992  44.2789978  21.2760014 116.1238166  44.6116687  21.5331524
 129.5629992  55.1779978  31.4810014 129.4069992  55.8569978  30.8240014
 130.4959992  55.2499978  31.6840014 129.6677387  55.2806390  31.4185342
 117.0579992  39.2959978  30.2190014 116.8289992  39.3549978  29.2910014
 116.6159992  38.5049978  30.5250014 116.9668801  39.1970540  30.1334729
 115.9889992  53.2369978  26.3790014 115.1559992  53.7089978  26.4060014
 116.5339992  53.7469978  25.7800014 115.9487857  53.3704791  26.3017142
 115.2769992  55.8489978  37.7090014 115.8169992  55.6329978  38.4690014
 114.7959992  55.0439978  37.5190014 115.2859219  55.7105156  37.7874282
 119.8739992  54.7689978  39.3290014 120.6419992  54.3099978  39.6700014
 119.8529992  54.5429978  38.3990014 119.9762135  54.6756668  39.2499491
 123.9659992  54.2769978  20.7050014 123.3219992  53.6459978  21.0260014
 124.7279992  53.7459978  20.4730014 123.9808058  54.1187902  20.7176038
 126.4509992  53.1489978  38.0580014 126.0999992  52.2919978  38.3020014
 127.1769992  53.2909978  38.6650014 126.5011895  53.0511351  38.1733770
 128.5709992  54.0939978  20.9380014 128.8539992  53.2989978  21.3910014
 129.3099992  54.3269978  20.3770014 128.7097096  54.0167049  20.9241104
 115.1839992  49.6599978  38.6630014 115.3279992  48.7579978  38.3770014
 114.4119992  49.9459978  38.1760014 115.0992733  49.5751798  38.5579532
 119.5249992  50.0029978  20.7960014 119.5899992  49.2089978  21.3260014
 120.1779992  49.8849978  20.1060014 119.6221605  49.8783430  20.7752997
 121.8389992  49.6289978  38.0960014 121.5109992  49.8999978  37.2390014
 121.9909992  48.6879978  38.0080014 121.8146412  49.5389046  37.9667822
 124.8779992  51.0499978  20.5320014 124.6089992  51.2309978  21.4320014
 124.6709992  50.1249978  20.4000014 124.8131191  50.9497119  20.6375524
 127.5739992  49.5449978  35.4790014 128.3189992  50.1339978  35.3600014
 126.8169992  50.1269978  35.5430014 127.5735470  49.7042128  35.4713799
 116.0169992  46.8599978  38.0830014 116.4249992  46.0029978  37.9620014
 115.7559992  46.8739978  39.0040014 116.0376016  46.7445119  38.1909192
 120.6749992  47.9759978  23.1020014 120.2149992  47.4919978  23.7870014
 120.9299992  47.3069978  22.4660014 120.6464856  47.8193669  23.1098397
 119.9639992  45.8689978  35.4580014 119.3449992  46.5429978  35.7380014
 120.3079992  46.1899978  34.6240014 119.9257123  46.0046887  35.3836388
 121.7459992  46.2189978  21.3640014 121.5649992  46.0639978  20.4370014
 122.6959992  46.3269978  21.4090014 121.8496566  46.2123669  21.2430929
 124.9829992  48.3399978  38.7350014 125.9369992  48.4239978  38.7080014
 124.8229992  47.6279978  39.3550014 125.0917182  48.2552842  38.8150733
 131.1359992  48.5729978  20.8100014 130.8619992  48.1489978  19.9970014
 131.1749992  49.5049978  20.5930014 131.1037716  48.6408827  20.6694286
 120.3029992  43.2239978  36.5400014 120.4529992  42.4949978  35.9380014
 120.3049992  44.0009978  35.9810014 120.3237967  43.2292708  36.3820541
 120.7159992  41.5929978  34.0330014 121.2509992  42.0449978  33.3810014
 119.8629992  41.4849978  33.6100014 120.6740374  41.6402665  33.8866710
 122.2969992  47.0329978  34.2720014 123.0479992  46.8769978  33.6990014
 121.9579992  47.8849978  33.9970014 122.3539587  47.1268138  34.1564078
 126.7129992  44.8479978  39.3010014 126.9049992  43.9169978  39.1890014
 127.5709992  45.2729978  39.2900014 126.8552182  44.7780070  39.2841862
 128.0299992  47.6369978  37.3780014 127.7479992  48.3459978  36.8000014
 128.9719992  47.5639978  37.2270014 128.1187921  47.7242193  37.2784225
 118.7819992  44.4219978  38.4510014 118.0139992  43.8889978  38.2410014
 119.4599992  44.1119978  37.8520014 118.7687235  44.3071754  38.3412413
 121.5209992  39.0499978  34.4640014 121.4229992  39.9959978  34.3590014
 120.7789992  38.6769978  33.9880014 121.4072534  39.1291773  34.3852600
 122.7849992  43.3709978  38.0280014 122.5499992  43.1519978  38.9290014
 122.0019992  43.1639978  37.5180014 122.6469095  43.3129892  38.0825353
 125.5009992  42.4989978  37.1030014 124.5529992  42.5309978  37.2350014
 125.8129992  41.8729978  37.7570014 125.4135293  42.4187923  37.2094148
 127.1349992  41.1329978  39.1080014 127.0379992  40.1809978  39.1030014
 126.8129992  41.4009978  39.9690014 127.0782468  41.0390884  39.2236210
 116.9619992  42.3419978  38.1560014 117.1739992  41.6359978  37.5460014
 116.8509992  41.9049978  39.0000014 116.9760269  42.1861921  38.1865873
 121.7429992  38.3439978  37.1350014 122.4549992  37.7039978  37.1210014
 121.6419992  38.6099978  36.2220014 121.8267387  38.2924330  37.0095563
 122.0969992  40.0259978  39.1890014 121.9649992  39.5509978  38.3690014
 121.4969992  40.7709978  39.1340014 121.9979070  40.0615789  39.0693251
 121.6429992  56.9089978  22.3650014 122.5759992  57.0669978  22.5090014
 121.3789992  57.5849978  21.7400014 121.7349911  57.0219373  22.3002722
 115.2109992  51.5459978  21.8480014 116.1249992  51.6249978  22.1210014
 115.2189992  50.8589978  21.1820014 115.3370655  51.4639205  21.7952917
 113.8599992  56.9389978  26.9250014 113.2129992  56.4769978  26.3930014
 114.2149992  56.2669978  27.5080014 113.8193741  56.7849774  26.9309175
 114.7299992  55.0189978  28.7300014 114.3959992  54.1389978  28.9020014
 114.9529992  55.3649978  29.5950014 114.7143721  54.9451938  28.8704168
 132.2789992  55.8289978  31.7110014 132.2569992  56.0139978  32.6500014
 132.9689992  56.3969978  31.3700014 132.3693439  55.9311887  31.7934791
 131.8419992  55.3959978  34.6320014 131.3549992  54.6609978  34.2610014
 132.3909992  55.0019978  35.3100014 131.8495247  55.2421057  34.6728461
 130.2929992  51.1859978  39.2710014 129.4269992  51.0809978  39.6650014
 130.6689992  51.9439978  39.7170014 130.2253401  51.2741708  39.3852620
 131.5939992  49.4419978  24.7850014 132.4439992  49.8629978  24.9120014
 131.5989992  48.7019978  25.3920014 131.7111143  49.3996094  24.8844750
 131.9879992  47.4959978  26.6080014 131.2619992  47.0159978  27.0060014
 132.5699992  47.7009978  27.3410014 131.9672730  47.4580184  26.7614149
 131.7469992  50.2809978  31.5560014 132.5809992  49.9029978  31.2750014
 131.8589992  51.2239978  31.4370014 131.8761917  50.3567943  31.5014861
 130.2339992  53.1589978  33.8630014 129.5859992  53.4839978  34.4880014
 129.7159992  52.7179978  33.1890014 130.0754196  53.1438651  33.8574152
 132.2569992  47.3969978  22.9990014 131.7349992  47.7529978  22.2810014
 132.2239992  48.0719978  23.6780014 132.1810129  47.5369598  22.9923355
 130.6059992  44.6359978  21.5500014 130.7019992  45.3029978  20.8700014
 130.4659992  43.8209978  21.0690014 130.6002040  44.6170671  21.3918378
 129.7749992  46.0169978  27.1710014 129.6249992  45.0719978  27.1510014
 129.4209992  46.2979978  28.0150014 129.7066351  45.9256644  27.2823220
 114.8099992  48.0949978  31.1820014 114.9949992  48.0129978  30.2460014
 115.6599992  47.9709978  31.6050014 114.9500928  48.0670463  31.1112893
 130.6309992  47.9869978  36.8100014 131.2139992  47.2519978  37.0020014
 131.1949992  48.7589978  36.8570014 130.7869781  47.9908145  36.8426164
 132.1279992  45.8899978  37.4950014 131.2649992  45.5109978  37.3290014
 132.7319992  45.1509978  37.4200014 132.0916085  45.7383223  37.4621695
 129.8529992  42.0439978  20.6680014 130.4639992  41.6729978  21.3050014
 129.0159992  41.6229978  20.8640014 129.8234947  41.9362756  20.7817252
 129.4859992  43.5989978  25.6340014 129.7649992  42.6919978  25.7580014
 130.2449992  44.0329978  25.2450014 129.6268619  43.5334502  25.5983795
 130.0969992  44.1809978  31.0700014 131.0299992  44.3929978  31.0350014
 129.8619992  44.2819978  31.9920014 130.1929517  44.2236833  31.1899130
 130.1269992  44.9179978  33.8460014 129.2839992  45.1859978  34.2120014
 130.5689992  45.7399978  33.6350014 130.0714138  45.0658273  33.8675518
 114.4079992  43.3649978  37.3220014 115.3269992  43.2429978  37.5590014
 113.9579992  42.6149978  37.7120014 114.4730087  43.2469608  37.4071410
 132.4099992  38.8979978  39.1990014 132.7589992  38.2439978  38.5940014
 132.5569992  39.7349978  38.7590014 132.4776824  38.9216024  39.0566304
 130.0989992  40.8619978  25.6820014 130.2809992  40.4129978  26.5070014
 129.4989992  40.2779978  25.2180014 130.0428187  40.7215552  25.7322739
 115.6289992  41.6779978  30.2140014 116.0739992  40.8859978  30.5160014
 116.0949992  42.3939978  30.6440014 115.7529718  41.6664534  30.3135265
 113.9329992  44.6769978  31.2830014 114.4249992  44.4559978  30.4920014
 114.2949992  45.5169978  31.5640014 114.0492923  44.7603468  31.2127407
 131.9289992  41.0069978  37.5480014 131.0119992  41.2779978  37.5130014
 132.0519992  40.4719978  36.7640014 131.8199672  40.9717885  37.4371862
 131.9659992  40.9299978  22.2100014 132.3779992  40.2089978  21.7350014
 132.6469992  41.5989978  22.2680014 132.1145536  40.9217766  22.1528024
 114.2469992  40.9349978  25.3370014 113.3219992  41.1429978  25.2080014
 114.7009992  41.4189978  24.6470014 114.1816298  41.0289299  25.2260451
 129.0169992  55.9189978  27.2830014 129.6699992  55.5709978  26.6750014
 129.5279992  56.4069978  27.9290014 129.1752777  55.9373815  27.2872047
 114.2099992  39.6729978  33.6810014 113.5449992  39.4269978  34.3240014
 113.7669992  40.2949978  33.1040014 114.0591168  39.7234214  33.6909848
 116.4019992  52.8479978  37.8260014 115.5809992  53.0229978  37.3650014
 116.1499992  52.7749978  38.7460014 116.2555594  52.8620717  37.8873611
 119.3559992  53.8219978  34.0840014 118.9319992  54.6319978  33.8020014
 120.2609992  53.9079978  33.7820014 119.4202138  53.9444160  34.0046415
 123.6679992  55.2209978  37.0440014 123.8519992  54.8879978  37.9220014
 124.5139992  55.5309978  36.7220014 123.8076484  55.2172979  37.1207617
 126.0129992  56.5069978  36.2880014 126.6899992  55.8739978  36.0480014
 126.3339992  56.9079978  37.0950014 126.1491323  56.4745691  36.3643158
 130.9299992  39.0969978  35.3670014 130.1169992  39.4219978  34.9800014
 131.1629992  38.3359978  34.8340014 130.8501347  39.0386880  35.2419841
 116.7579992  57.0789978  34.1320014 116.0379992  57.5189978  33.6810014
 116.3929992  56.8279978  34.9800014 116.6099643  57.1053369  34.1849129
 119.2249992  56.6789978  33.1620014 118.3609992  56.7509978  33.5660014
 119.1699992  57.2259978  32.3780014 119.0991942  56.7627849  33.1114000
 123.9359992  56.5669978  32.3370014 123.4789992  57.0959978  31.6830014
 124.0989992  57.1699978  33.0620014 123.8954960  56.7209280  32.3455274
 126.2639992  55.4449978  33.2820014 125.3589992  55.6099978  33.0160014
 126.6919992  56.2979978  33.2160014 126.1981537  55.5829134  33.2367095
 128.8679992  57.0149978  33.5770014 128.6859992  57.9309978  33.3660014
 129.0449992  56.6039978  32.7300014 128.8670030  57.0848273  33.4337166
 116.1729992  55.7019978  31.0420014 116.1549992  55.2759978  31.8990014
 116.9779992  55.3829978  30.6330014 116.2792875  55.6006435  31.1039515
 118.3139992  54.4119978  29.6970014 118.0949992  53.4949978  29.8670014
 119.1379992  54.5519978  30.1630014 118.3954702  54.3055511  29.7832527
 120.8509992  54.8819978  30.5460014 121.0639992  53.9939978  30.2590014
 120.9159992  54.8469978  31.5000014 120.8889149  54.7558326  30.6357369
 124.3599992  40.5459978  29.6900014 123.6859992  39.9159978  29.9460014
 124.9239992  40.0619978  29.0870014 124.3440384  40.3943708  29.6435020
 129.5029992  38.6529978  29.8030014 130.1059992  39.2009978  29.3010014
 128.6329992  38.9719978  29.5620014 129.4679157  38.7710373  29.7017910
 131.2299992  39.7919978  28.1360014 131.8409992  39.2779978  27.6090014
 131.6119992  40.6689978  28.1590014 131.3653305  39.8402050  28.0669418
 116.6869992  39.1799978  27.5120014 115.9099992  38.9449978  27.0050014
 117.2169992  38.3829978  27.5210014 116.6523451  39.0401268  27.4438627
 115.5229992  38.9779978  23.3160014 115.9619992  39.5889978  22.7240014
 114.8889992  39.5159978  23.7900014 115.4973859  39.1344064  23.2990305
 121.2659992  39.1059978  27.3250014 122.1399992  39.4949978  27.2960014
 121.1299992  38.8909978  28.2480014 121.3671953  39.1301643  27.4457617
 126.8229992  39.1359978  28.9750014 126.8989992  39.2319978  28.0250014
 126.5479992  38.2289978  29.1030014 126.7961871  39.0264146  28.8623944
 128.1759992  39.1619978  24.6670014 127.4729992  39.7769978  24.4570014
 127.7309992  38.3249978  24.7980014 128.0196550  39.1329668  24.6559837
 115.4239992  54.9259978  24.2130014 114.7389992  54.8879978  23.5460014
 115.4279992  55.8389978  24.5010014 115.3307621  55.0441924  24.1606126
 117.3839992  40.8939978  21.7580014 117.8749992  40.2639978  21.2310014
 118.0069992  41.1899978  22.4210014 117.5355304  40.8477376  21.7754940
 122.4099992  41.1869978  24.2150014 122.5879992  40.5399978  24.8980014
 122.3559992  42.0209978  24.6820014 122.4270678  41.2111604  24.3716301
 124.2879992  56.1349978  22.6110014 125.1539992  56.5019978  22.4330014
 124.0419992  55.6959978  21.7970014 124.3732097  56.1258525  22.4766019
 130.9969992  55.6979978  25.2900014 130.8029992  54.9499978  24.7250014
 130.9579992  56.4559978  24.7070014 130.9651645  55.6980786  25.1338148
 116.6439992  39.6939978  37.0300014 116.2779992  38.9279978  37.4720014
 117.5569992  39.7229978  37.3160014 116.7173172  39.5930324  37.1291890
 118.6169992  39.0439978  38.5650014 119.5159992  38.7699978  38.3810014
 118.2309992  38.3019978  39.0300014 118.6877307  38.9062196  38.6027098
 117.2419992  55.8459978  21.2380014 116.9739992  56.1319978  22.1120014
 118.0129992  55.2999978  21.3910014 117.3095926  55.8112779  21.3781205
 127.0389992  38.3769978  38.7480014 127.1149992  37.9509978  39.6010014
 127.9319992  38.3899978  38.4050014 127.1702303  38.3203493  38.8185497
 130.2149992  54.4499978  37.4400014 129.4329992  54.2629978  36.9200014
 130.1429992  55.3789978  37.6570014 130.0981924  54.5500637  37.3981602
 144.6209992  48.3359978  27.4710014 144.7099992  49.2799978  27.3390014
 143.9829992  48.0609978  26.8130014 144.5469062  48.4279812  27.3639641
 143.5539992  47.5909978  30.8900014 143.5159992  46.9449978  31.5950014
 143.2319992  47.1239978  30.1190014 143.5052679  47.4394276  30.8822921
 135.9219992  47.2049978  32.4830014 135.9639992  46.5799978  33.2060014
 136.6249992  47.8289978  32.6650014 136.0227345  47.2037873  32.6065274
 136.8459992  51.6549978  31.0180014 136.4759992  50.8529978  30.6480014
 137.7869992  51.4869978  31.0640014 136.9225984  51.5224638  30.9735603
 133.4559992  45.3149978  26.4100014 133.0079992  46.1609978  26.3920014
 132.8949992  44.7359978  25.8950014 133.3188546  45.3523993  26.3378891
 134.1659992  47.4769978  28.5360014 134.3799992  46.7069978  29.0640014
 134.9039992  47.5669978  27.9330014 134.2950200  47.3838586  28.5267035
 144.3719992  55.6339978  29.4030014 144.9909992  54.9579978  29.1300014
 144.1629992  55.4159978  30.3120014 144.4286056  55.5118869  29.4883967
 141.9429992  50.0229978  31.2960014 142.2469992  49.3369978  30.7010014
 142.6649992  50.1419978  31.9140014 142.0821240  49.9452314  31.2980959
 145.0839992  44.4169978  31.6230014 145.2269992  43.4709978  31.6430014
 144.9779992  44.6239978  30.6950014 145.0892403  44.3154797  31.5002239
 138.2389992  42.5189978  28.8960014 138.2819992  43.3789978  28.4770014
 137.7809992  41.9669978  28.2620014 138.1829871  42.5619245  28.7530761
 134.8589992  44.9159978  29.6580014 135.5129992  44.3659978  30.0900014
 134.8829992  44.6419978  28.7410014 134.9517199  44.8037167  29.5931668
 140.0159992  46.4659978  28.8730014 140.6319992  45.9389978  29.3820014
 139.4289992  45.8259978  28.4690014 140.0210154  46.3073954  28.8880945
 137.0489992  41.4369978  32.9700014 136.8299992  41.9669978  32.2030014
 136.3809992  41.6629978  33.6170014 136.9286975  41.5400967  32.9525140
 144.4179992  50.9369978  26.5140014 144.1229992  50.6139978  25.6620014
 144.0939992  51.8369978  26.5550014 144.3338460  51.0144464  26.4029714
 139.6179992  49.1119978  33.2570014 138.8779992  49.7109978  33.3610014
 140.3319992  49.6659978  32.9420014 139.6133500  49.2687829  33.2286371
 136.6429992  43.3289978  30.9220014 137.2569992  43.9619978  31.2950014
 137.1549992  42.8569978  30.2660014 136.7961962  43.3517249  30.8842935
 138.0259992  51.0769978  34.0440014 138.0199992  51.9559978  33.6660014
 137.1719992  50.9929978  34.4690014 137.9097925  51.1859535  34.0496887
 134.1469992  50.7479978  24.8260014 133.8749992  50.9769978  23.9380014
 134.1919992  51.5849978  25.2870014 134.1158097  50.8926163  24.7666683
 141.0759992  38.7419978  30.4220014 140.9579992  37.7939978  30.3680014
 140.2209992  39.0749978  30.6950014 140.9442805  38.6572202  30.4515079
 143.3419992  47.5799978  24.9230014 142.6309992  48.1149978  24.5710014
 144.0329992  47.6349978  24.2630014 143.3380751  47.6606777  24.7855858
 143.3959992  46.0369978  21.9610014 144.0969992  46.0599978  22.6130014
 143.6979992  45.4089978  21.3050014 143.5328202  45.9552212  21.9615609
 138.3929992  48.4199978  27.7570014 138.0629992  48.0489978  26.9390014
 138.9819992  47.7489978  28.1040014 138.4273970  48.2786063  27.6919404
 139.7599992  51.8479978  30.4380014 139.6649992  51.2689978  29.6820014
 140.4889992  51.4769978  30.9340014 139.8456011  51.7185561  30.4016028
 138.7599992  47.1879978  31.3900014 139.3249992  47.3099978  30.6280014
 139.0789992  47.8259978  32.0290014 138.8804166  47.2908791  31.3720348
 145.0689992  52.6919978  32.1240014 144.8289992  53.3539978  32.7720014
 144.8709992  51.8569978  32.5490014 145.0093826  52.6698115  32.2701566
 139.6399992  51.5879978  36.1080014 139.3289992  52.3699978  36.5630014
 138.9899992  51.4349978  35.4220014 139.5095538  51.6744087  36.0775898
 136.5599992  47.7859978  35.3360014 136.6299992  48.4369978  36.0350014
 135.6689992  47.8889978  35.0010014 136.4491690  47.8889249  35.3863043
 143.3449992  53.6879978  26.9950014 143.8189992  53.9839978  27.7720014
 142.7819992  54.4269978  26.7620014 143.3337890  53.8283036  27.0698101
 137.8789992  53.6589978  36.8710014 137.8869992  53.5229978  35.9240014
 136.9629992  53.5419978  37.1230014 137.7562528  53.6245463  36.7753243
 137.3839992  47.4889978  25.3460014 137.0919992  48.2569978  24.8550014
 136.7089992  46.8299978  25.1830014 137.2528497  47.5049745  25.2568260
 133.4769992  49.8519978  34.1610014 132.9749992  49.8239978  33.3460014
 133.4819992  48.9469978  34.4710014 133.4089832  49.7257486  34.0914121
 133.2269992  52.6329978  31.0450014 134.1729992  52.4879978  31.0260014
 133.1139992  53.4169978  31.5820014 133.3413578  52.7191697  31.1150317
 142.4029992  52.8729978  35.6040014 142.4909992  53.6989978  36.0790014
 141.5399992  52.5429978  35.8530014 142.2983357  52.9415468  35.7027653
 142.8179992  56.6449978  25.4100014 142.7419992  56.5239978  24.4630014
 142.8499992  57.5939978  25.5280014 142.8119380  56.7567677  25.2965181
 136.4709992  55.4339978  27.1910014 136.6229992  55.0859978  28.0690014
 135.6199992  55.0769978  26.9350014 136.3768344  55.3380879  27.2766868
 135.7259992  51.1759978  35.2040014 135.9419992  50.8139978  36.0640014
 134.8699992  50.8009978  34.9950014 135.6398810  51.0758837  35.2932680
 138.3439992  39.6459978  31.2000014 137.4829992  39.5589978  30.7920014
 138.3219992  40.5019978  31.6280014 138.2230491  39.7498003  31.2019582
 143.0069992  39.3679978  34.5750014 143.4269992  38.9529978  35.3280014
 142.0739992  39.1889978  34.6920014 142.9383736  39.2869910  34.6938968
 142.6689992  41.8599978  21.8600014 142.4149992  41.8789978  22.7820014
 142.4119992  40.9889978  21.5580014 142.5994508  41.7448280  21.9454803
 138.4349992  44.6109978  32.2950014 137.7939992  44.5709978  33.0040014
 138.4729992  45.5379978  32.0570014 138.3523010  44.7307668  32.3599946
 138.4319992  44.8319978  27.2070014 137.5399992  44.4919978  27.1480014
 138.8829992  44.4549978  26.4510014 138.3707642  44.7344910  27.0967726
 143.9679992  45.2479978  26.0240014 143.5589992  46.0629978  25.7320014
 144.6879992  45.1079978  25.4100014 144.0094439  45.3405372  25.9010115
 143.0699992  45.4239978  37.5120014 142.5069992  44.7189978  37.8330014
 143.8959992  45.3029978  37.9800014 143.1046674  45.3112165  37.6191751
 144.9729992  44.6939978  28.8380014 144.7769992  45.2999978  28.1230014
 145.1539992  43.8609978  28.4040014 144.9706584  44.6642513  28.6814212
 136.1849992  44.9319978  34.1620014 136.1469992  45.3319978  35.0310014
 135.6949992  44.1149978  34.2520014 136.1135330  44.8762674  34.2931289
 139.5509992  42.3059978  20.9610014 139.1199992  41.8609978  21.6900014
 138.8329992  42.6769978  20.4480014 139.3949176  42.2952051  20.9914930
 132.7939992  42.0479978  28.0130014 133.4239992  42.0189978  28.7320014
 133.2429992  41.6229978  27.2820014 132.9410835  41.9865660  28.0127659
 134.0679992  42.7939978  23.4370014 134.5419992  43.3849978  22.8520014
 133.3499992  43.3239978  23.7840014 134.0358640  42.9465511  23.4037969
 144.2369992  46.3319978  33.5090014 144.5599992  45.7009978  32.8660014
 143.7959992  45.7979978  34.1700014 144.2216379  46.1733468  33.5102582
 141.0139992  42.2599978  28.2930014 140.1029992  42.3169978  28.5820014
 141.5189992  42.1999978  29.1040014 140.9576873  42.2596826  28.4421207
 135.8419992  43.8889978  27.1200014 134.9529992  43.9879978  26.7800014
 136.1389992  43.0469978  26.7740014 135.7604177  43.7887687  27.0266940
 139.4949992  43.8889978  24.7770014 140.4269992  44.0179978  24.9550014
 139.2799992  44.5579978  24.1270014 139.5934472  43.9970806  24.7134891
 145.4189992  41.4949978  31.5580014 144.7419992  41.6259978  32.2210014
 144.9339992  41.3399978  30.7470014 145.2607405  41.4919947  31.5392170
 138.1689992  45.0829978  22.3430014 137.6269992  44.7039978  21.6520014
 139.0029992  45.2779978  21.9150014 138.2074390  45.0574079  22.1904392
 136.3049992  49.6399978  37.4420014 137.0369992  49.8949978  38.0040014
 135.5239992  49.8449978  37.9580014 136.2996526  49.7025450  37.5885176
 142.3339992  45.0469978  30.1800014 142.8979992  44.5009978  29.6330014
 142.1859992  44.5259978  30.9690014 142.3913037  44.9016787  30.2117229
 137.3359992  41.1839978  26.5990014 137.0189992  40.2809978  26.5630014
 138.1169992  41.1859978  26.0460014 137.3982431  41.0607797  26.5193102
 140.9599992  43.4359978  32.5940014 140.1249992  43.8899978  32.7050014
 141.4839992  43.7119978  33.3460014 140.9166072  43.5353948  32.7108136
 141.5049992  49.6489978  24.2790014 140.7599992  49.1409978  23.9570014
 141.3699992  49.6979978  25.2250014 141.3848963  49.5861731  24.3628826
 145.4019992  42.4629978  22.4780014 144.4639992  42.5739978  22.3270014
 145.6999992  43.3189978  22.7850014 145.3136318  42.5940158  22.4988145
 143.0239992  49.8329978  35.5160014 142.6779992  49.4509978  36.3230014
 142.8239992  50.7659978  35.5870014 142.9495987  49.9069002  35.6360461
 136.6289992  48.9439978  30.0490014 137.3739992  48.9409978  29.4470014
 136.7069992  48.1199978  30.5300014 136.7413365  48.8322384  30.0317430
 143.6299992  51.1069978  23.3040014 143.3349992  51.9339978  23.6860014
 142.9269992  50.4879978  23.5010014 143.4946379  51.1364171  23.3828654
 133.6369992  47.4039978  35.3640014 133.8599992  46.9859978  36.1950014
 133.0349992  46.7919978  34.9410014 133.5861513  47.2639606  35.4206740
 140.6539992  46.9209978  37.5770014 140.3579992  46.7559978  36.6810014
 141.5849992  46.7009978  37.5660014 140.7394401  46.8686879  37.4530206
 145.2739992  52.2949978  35.4660014 144.3739992  52.4779978  35.1990014
 145.3079992  52.5539978  36.3870014 145.1553748  52.3550554  35.5539164
 139.0039992  52.4619978  27.4530014 139.5319992  53.2349978  27.2530014
 138.1239992  52.6859978  27.1510014 138.9573435  52.5982700  27.3847310
 134.7589992  47.3239978  22.0400014 135.3749992  47.9509978  22.4200014
 133.8969992  47.6399978  22.3120014 134.7267678  47.4524412  22.1287209
 140.4319992  50.1249978  27.0290014 140.1909992  51.0499978  27.0710014
 139.6909992  49.6659978  27.4260014 140.2989206  50.1895915  27.0883769
 140.9459992  54.2739978  33.3440014 141.3089992  55.1279978  33.1110014
 141.4779992  53.9819978  34.0850014 141.0675141  54.3513895  33.4122097
 139.1149992  55.1459978  26.5750014 138.1649992  55.2519978  26.6260014
 139.4669992  55.9669978  26.9190014 139.0325472  55.2714923  26.6284852
 144.4899992  50.3729978  33.0450014 144.0649992  50.1449978  33.8710014
 145.0709992  49.6339978  32.8630014 144.5103395  50.2419545  33.1334414
 135.2709992  42.1579978  34.9220014 134.3789992  42.4959978  34.8540014
 135.1729992  41.3019978  35.3400014 135.1354475  42.0886543  34.9691704
 134.9229992  53.9619978  33.3570014 135.1399992  53.0299978  33.3260014
 135.1689992  54.2369978  34.2400014 134.9859809  53.8715686  33.4721690
 140.7839992  52.4139978  20.5660014 141.0229992  51.6649978  20.0190014
 140.5149992  52.0259978  21.3990014 140.7803233  52.2591853  20.6037809
 139.7209992  51.9839978  23.0220014 139.8679992  51.4639978  23.8120014
 139.7179992  52.8909978  23.3290014 139.7407102  52.0353953  23.1715925
 136.1739992  49.2359978  23.5330014 135.4879992  49.5889978  24.1000014
 136.6969992  49.9989978  23.2860014 136.1508402  49.3873901  23.5771801
 144.0059992  41.8989978  33.8120014 144.7049992  41.9729978  34.4620014
 143.6249992  41.0339978  33.9660014 144.0502097  41.7922389  33.9217997
 144.7899992  41.5509978  24.9090014 145.0099992  42.0219978  24.1050014
 145.3489992  41.9449978  25.5790014 144.8956731  41.6687287  24.8895033
 142.4589992  53.6809978  23.7720014 141.6419992  54.1779978  23.8240014
 142.9879992  54.1569978  23.1310014 142.4188125  53.8131989  23.6925306
 141.9899992  43.2789978  25.7440014 142.8019992  43.7829978  25.7900014
 141.7459992  43.1339978  26.6580014 142.0681467  43.3283749  25.8738575
 142.5259992  44.2649978  34.9280014 142.6449992  44.8389978  35.6850014
 143.1809992  43.5769978  35.0430014 142.6308684  44.2505194  35.0471674
 142.8739992  40.3599978  26.6820014 142.5269992  40.9769978  27.3260014
 143.5329992  40.8609978  26.2000014 142.9155090  40.5121575  26.7050681
 139.7969992  54.7249978  23.7530014 139.9579992  55.5249978  23.2530014
 139.5999992  55.0319978  24.6380014 139.7923906  54.8758678  23.8042333
 138.5319992  41.4229978  23.3690014 138.4479992  42.3109978  23.7160014
 139.4219992  41.1579978  23.6010014 138.6408163  41.5087179  23.4478596
 136.7899992  51.8499978  22.4290014 137.3819992  52.5499978  22.7060014
 137.2489992  51.4169978  21.7100014 136.9331652  51.8872675  22.3696533
 135.1059992  44.5149978  21.5450014 135.0609992  45.4539978  21.7240014
 134.2179992  44.2789978  21.2760014 134.9798166  44.6116687  21.5331524
 135.9139992  39.2959978  30.2190014 135.6849992  39.3549978  29.2910014
 135.4719992  38.5049978  30.5250014 135.8228801  39.1970540  30.1334729
 134.8449992  53.2369978  26.3790014 134.0119992  53.7089978  26.4060014
 135.3899992  53.7469978  25.7800014 134.8047857  53.3704791  26.3017142
 134.1329992  55.8489978  37.7090014 134.6729992  55.6329978  38.4690014
 133.6519992  55.0439978  37.5190014 134.1419219  55.7105156  37.7874282
 138.7299992  54.7689978  39.3290014 139.4979992  54.3099978  39.6700014
 138.7089992  54.5429978  38.3990014 138.8322135  54.6756668  39.2499491
 142.8219992  54.2769978  20.7050014 142.1779992  53.6459978  21.0260014
 143.5839992  53.7459978  20.4730014 142.8368058  54.1187902  20.7176038
 145.3069992  53.1489978  38.0580014 144.9559992  52.2919978  38.3020014
 146.0329992  53.2909978  38.6650014 145.3571895  53.0511351  38.1733770
 134.0399992  49.6599978  38.6630014 134.1839992  48.7579978  38.3770014
 133.2679992  49.9459978  38.1760014 133.9552733  49.5751798  38.5579532
 138.3809992  50.0029978  20.7960014 138.4459992  49.2089978  21.3260014
 139.0339992  49.8849978  20.1060014 138.4781605  49.8783430  20.7752997
 140.6949992  49.6289978  38.0960014 140.3669992  49.8999978  37.2390014
 140.8469992  48.6879978  38.0080014 140.6706412  49.5389046  37.9667822
 143.7339992  51.0499978  20.5320014 143.4649992  51.2309978  21.4320014
 143.5269992  50.1249978  20.4000014 143.6691191  50.9497119  20.6375524
 134.8729992  46.8599978  38.0830014 135.2809992  46.0029978  37.9620014
 134.6119992  46.8739978  39.0040014 134.8936016  46.7445119  38.1909192
 139.5309992  47.9759978  23.1020014 139.0709992  47.4919978  23.7870014
 139.7859992  47.3069978  22.4660014 139.5024856  47.8193669  23.1098397
 138.8199992  45.8689978  35.4580014 138.2009992  46.5429978  35.7380014
 139.1639992  46.1899978  34.6240014 138.7817123  46.0046887  35.3836388
 140.6019992  46.2189978  21.3640014 140.4209992  46.0639978  20.4370014
 141.5519992  46.3269978  21.4090014 140.7056566  46.2123669  21.2430929
 143.8389992  48.3399978  38.7350014 144.7929992  48.4239978  38.7080014
 143.6789992  47.6279978  39.3550014 143.9477182  48.2552842  38.8150733
 139.1589992  43.2239978  36.5400014 139.3089992  42.4949978  35.9380014
 139.1609992  44.0009978  35.9810014 139.1797967  43.2292708  36.3820541
 139.5719992  41.5929978  34.0330014 140.1069992  42.0449978  33.3810014
 138.7189992  41.4849978  33.6100014 139.5300374  41.6402665  33.8866710
 141.1529992  47.0329978  34.2720014 141.9039992  46.8769978  33.6990014
 140.8139992  47.8849978  33.9970014 141.2099587  47.1268138  34.1564078
 145.5689992  44.8479978  39.3010014 145.7609992  43.9169978  39.1890014
 146.4269992  45.2729978  39.2900014 145.7112182  44.7780070  39.2841862
 137.6379992  44.4219978  38.4510014 136.8699992  43.8889978  38.2410014
 138.3159992  44.1119978  37.8520014 137.6247235  44.3071754  38.3412413
 140.3769992  39.0499978  34.4640014 140.2789992  39.9959978  34.3590014
 139.6349992  38.6769978  33.9880014 140.2632534  39.1291773  34.3852600
 141.6409992  43.3709978  38.0280014 141.4059992  43.1519978  38.9290014
 140.8579992  43.1639978  37.5180014 141.5029095  43.3129892  38.0825353
 144.3569992  42.4989978  37.1030014 143.4089992  42.5309978  37.2350014
 144.6689992  41.8729978  37.7570014 144.2695293  42.4187923  37.2094148
 135.8179992  42.3419978  38.1560014 136.0299992  41.6359978  37.5460014
 135.7069992  41.9049978  39.0000014 135.8320269  42.1861921  38.1865873
 140.5989992  38.3439978  37.1350014 141.3109992  37.7039978  37.1210014
 140.4979992  38.6099978  36.2220014 140.6827387  38.2924330  37.0095563
 140.9529992  40.0259978  39.1890014 140.8209992  39.5509978  38.3690014
 140.3529992  40.7709978  39.1340014 140.8539070  40.0615789  39.0693251
 140.4989992  56.9089978  22.3650014 141.4319992  57.0669978  22.5090014
 140.2349992  57.5849978  21.7400014 140.5909911  57.0219373  22.3002722
 134.0669992  51.5459978  21.8480014 134.9809992  51.6249978  22.1210014
 134.0749992  50.8589978  21.1820014 134.1930655  51.4639205  21.7952917
 132.7159992  56.9389978  26.9250014 132.0689992  56.4769978  26.3930014
 133.0709992  56.2669978  27.5080014 132.6753741  56.7849774  26.9309175
 133.5859992  55.0189978  28.7300014 133.2519992  54.1389978  28.9020014
 133.8089992  55.3649978  29.5950014 133.5703721  54.9451938  28.8704168
 133.6659992  48.0949978  31.1820014 133.8509992  48.0129978  30.2460014
 134.5159992  47.9709978  31.6050014 133.8060928  48.0670463  31.1112893
 133.2639992  43.3649978  37.3220014 134.1829992  43.2429978  37.5590014
 132.8139992  42.6149978  37.7120014 133.3290087  43.2469608  37.4071410
 134.4849992  41.6779978  30.2140014 134.9299992  40.8859978  30.5160014
 134.9509992  42.3939978  30.6440014 134.6089718  41.6664534  30.3135265
 132.7889992  44.6769978  31.2830014 133.2809992  44.4559978  30.4920014
 133.1509992  45.5169978  31.5640014 132.9052923  44.7603468  31.2127407
 133.1029992  40.9349978  25.3370014 132.1779992  41.1429978  25.2080014
 133.5569992  41.4189978  24.6470014 133.0376298  41.0289299  25.2260451
 133.0659992  39.6729978  33.6810014 132.4009992  39.4269978  34.3240014
 132.6229992  40.2949978  33.1040014 132.9151168  39.7234214  33.6909848
 135.2579992  52.8479978  37.8260014 134.4369992  53.0229978  37.3650014
 135.0059992  52.7749978  38.7460014 135.1115594  52.8620717  37.8873611
 138.2119992  53.8219978  34.0840014 137.7879992  54.6319978  33.8020014
 139.1169992  53.9079978  33.7820014 138.2762138  53.9444160  34.0046415
 142.5239992  55.2209978  37.0440014 142.7079992  54.8879978  37.9220014
 143.3699992  55.5309978  36.7220014 142.6636484  55.2172979  37.1207617
 144.8689992  56.5069978  36.2880014 145.5459992  55.8739978  36.0480014
 145.1899992  56.9079978  37.0950014 145.0051323  56.4745691  36.3643158
 135.6139992  57.0789978  34.1320014 134.8939992  57.5189978  33.6810014
 135.2489992  56.8279978  34.9800014 135.4659643  57.1053369  34.1849129
 138.0809992  56.6789978  33.1620014 137.2169992  56.7509978  33.5660014
 138.0259992  57.2259978  32.3780014 137.9551942  56.7627849  33.1114000
 142.7919992  56.5669978  32.3370014 142.3349992  57.0959978  31.6830014
 142.9549992  57.1699978  33.0620014 142.7514960  56.7209280  32.3455274
 145.1199992  55.4449978  33.2820014 144.2149992  55.6099978  33.0160014
 145.5479992  56.2979978  33.2160014 145.0541537  55.5829134  33.2367095
 135.0289992  55.7019978  31.0420014 135.0109992  55.2759978  31.8990014
 135.8339992  55.3829978  30.6330014 135.1352875  55.6006435  31.1039515
 137.1699992  54.4119978  29.6970014 136.9509992  53.4949978  29.8670014
 137.9939992  54.5519978  30.1630014 137.2514702  54.3055511  29.7832527
 139.7069992  54.8819978  30.5460014 139.9199992  53.9939978  30.2590014
 139.7719992  54.8469978  31.5000014 139.7449149  54.7558326  30.6357369
 143.2159992  40.5459978  29.6900014 142.5419992  39.9159978  29.9460014
 143.7799992  40.0619978  29.0870014 143.2000384  40.3943708  29.6435020
 135.5429992  39.1799978  27.5120014 134.7659992  38.9449978  27.0050014
 136.0729992  38.3829978  27.5210014 135.5083451  39.0401268  27.4438627
 134.3789992  38.9779978  23.3160014 134.8179992  39.5889978  22.7240014
 133.7449992  39.5159978  23.7900014 134.3533859  39.1344064  23.2990305
 140.1219992  39.1059978  27.3250014 140.9959992  39.4949978  27.2960014
 139.9859992  38.8909978  28.2480014 140.2231953  39.1301643  27.4457617
 134.2799992  54.9259978  24.2130014 133.5949992  54.8879978  23.5460014
 134.2839992  55.8389978  24.5010014 134.1867621  55.0441924  24.1606126
 136.2399992  40.8939978  21.7580014 136.7309992  40.2639978  21.2310014
 136.8629992  41.1899978  22.4210014 136.3915304  40.8477376  21.7754940
 141.2659992  41.1869978  24.2150014 141.4439992  40.5399978  24.8980014
 141.2119992  42.0209978  24.6820014 141.2830678  41.2111604  24.3716301
 143.1439992  56.1349978  22.6110014 144.0099992  56.5019978  22.4330014
 142.8979992  55.6959978  21.7970014 143.2292097  56.1258525  22.4766019
 135.4999992  39.6939978  37.0300014 135.1339992  38.9279978  37.4720014
 136.4129992  39.7229978  37.3160014 135.5733172  39.5930324  37.1291890
 137.4729992  39.0439978  38.5650014 138.3719992  38.7699978  38.3810014
 137.0869992  38.3019978  39.0300014 137.5437307  38.9062196  38.6027098
 136.0979992  55.8459978  21.2380014 135.8299992  56.1319978  22.1120014
 136.8689992  55.2999978  21.3910014 136.1655926  55.8112779  21.3781205
  12.6289992  67.1919978  27.4710014  12.7179992  68.1359978  27.3390014
  11.9909992  66.9169978  26.8130014  12.5549062  67.2839812  27.3639641
  11.5619992  66.4469978  30.8900014  11.5239992  65.8009978  31.5950014
  11.2399992  65.9799978  30.1190014  11.5132679  66.2954276  30.8822921
   3.9299992  66.0609978  32.4830014   3.9719992  65.4359978  33.2060014
   4.6329992  66.6849978  32.6650014   4.0307345  66.0597873  32.6065274
  15.2679992  69.3859978  29.1910014  14.8269992  68.6659978  29.6420014
  15.2549992  70.1069978  29.8210014  15.2059215  69.3849291  29.3378105
   4.8539992  70.5109978  31.0180014   4.4839992  69.7089978  30.6480014
   5.7949992  70.3429978  31.0640014   4.9305984  70.3784638  30.9735603
   1.4639992  64.1709978  26.4100014   1.0159992  65.0169978  26.3920014
   0.9029992  63.5919978  25.8950014   1.3268546  64.2083993  26.3378891
   2.1739992  66.3329978  28.5360014   2.3879992  65.5629978  29.0640014
   2.9119992  66.4229978  27.9330014   2.3030200  66.2398587  28.5267035
  12.3799992  74.4899978  29.4030014  12.9989992  73.8139978  29.1300014
  12.1709992  74.2719978  30.3120014  12.4366056  74.3678869  29.4883967
   9.9509992  68.8789978  31.2960014  10.2549992  68.1929978  30.7010014
  10.6729992  68.9979978  31.9140014  10.0901240  68.8012314  31.2980959
  18.6139992  60.4809978  32.1560014  18.6639992  61.0909978  32.8920014
  19.0399992  60.9419978  31.4330014  18.6784108  60.6267709  32.1590112
  13.0919992  63.2729978  31.6230014  13.2349992  62.3269978  31.6430014
  12.9859992  63.4799978  30.6950014  13.0972403  63.1714797  31.5002239
   6.2469992  61.3749978  28.8960014   6.2899992  62.2349978  28.4770014
   5.7889992  60.8229978  28.2620014   6.1909871  61.4179245  28.7530761
  13.9689992  61.5059978  27.2970014  14.6159992  61.1769978  27.9210014
  14.4789992  62.0229978  26.6740014  14.1264351  61.5309067  27.2981037
   2.8669992  63.7719978  29.6580014   3.5209992  63.2219978  30.0900014
   2.8909992  63.4979978  28.7410014   2.9597199  63.6597167  29.5931668
   8.0239992  65.3219978  28.8730014   8.6399992  64.7949978  29.3820014
   7.4369992  64.6819978  28.4690014   8.0290154  65.1633954  28.8880945
  19.0059992  61.9589978  34.3920014  18.3169992  62.6169978  34.2970014
  19.0209992  61.7609978  35.3290014  18.9137756  62.0222603  34.5055812
   5.0569992  60.2929978  32.9700014   4.8379992  60.8229978  32.2030014
   4.3889992  60.5189978  33.6170014   4.9366975  60.3960967  32.9525140
  12.4259992  69.7929978  26.5140014  12.1309992  69.4699978  25.6620014
  12.1019992  70.6929978  26.5550014  12.3418460  69.8704464  26.4029714
   7.6259992  67.9679978  33.2570014   6.8859992  68.5669978  33.3610014
   8.3399992  68.5219978  32.9420014   7.6213500  68.1247829  33.2286371
  15.7329992  60.7969978  29.2770014  15.5179992  60.0309978  29.8100014
  16.3889992  61.2689978  29.7900014  15.7922673  60.7560728  29.4191990
   4.6509992  62.1849978  30.9220014   5.2649992  62.8179978  31.2950014
   5.1629992  61.7129978  30.2660014   4.8041962  62.2077249  30.8842935
   6.0339992  69.9329978  34.0440014   6.0279992  70.8119978  33.6660014
   5.1799992  69.8489978  34.4690014   5.9177925  70.0419535  34.0496887
   2.1549992  69.6039978  24.8260014   1.8829992  69.8329978  23.9380014
   2.1999992  70.4409978  25.2870014   2.1238097  69.7486163  24.7666683
  15.7799992  71.2249978  31.5390014  14.8379992  71.2839978  31.7010014
  16.0559992  72.1309978  31.4020014  15.6885865  71.3555288  31.5426192
  16.0799992  59.5119978  32.9560014  15.3439992  60.1219978  32.9190014
  16.7639992  59.9269978  32.4300014  16.0715367  59.6517551  32.8798174
   9.0839992  57.5979978  30.4220014   8.9659992  56.6499978  30.3680014
   8.2289992  57.9309978  30.6950014   8.9522805  57.5132202  30.4515079
  14.0319992  73.0059978  28.1640014  14.4569992  72.2989978  27.6790014
  14.3489992  73.8079978  27.7470014  14.1330266  73.0175190  28.0412479
  15.1919992  70.9069978  26.6730014  14.9339992  70.2169978  26.0610014
  15.2629992  70.4639978  27.5180014  15.1663050  70.7526814  26.7035621
  16.8779992  69.4739978  35.1500014  17.0169992  68.8819978  34.4110014
  17.0449992  70.3469978  34.7940014  16.9196193  69.5108896  35.0006211
  11.3499992  66.4359978  24.9230014  10.6389992  66.9709978  24.5710014
  12.0409992  66.4909978  24.2630014  11.3460751  66.5166777  24.7855858
  11.4039992  64.8929978  21.9610014  12.1049992  64.9159978  22.6130014
  11.7059992  64.2649978  21.3050014  11.5408202  64.8112212  21.9615609
  18.7189992  65.8139978  33.2160014  18.0669992  66.5079978  33.3050014
  19.1849992  66.0239978  32.4060014  18.6925937  65.9375019  33.1187533
  14.7559992  66.6449978  25.8740014  14.0239992  66.8739978  26.4480014
  15.2029992  65.9319978  26.3290014  14.7163963  66.5798729  26.0139945
  14.6529992  64.8199978  34.9420014  14.7329992  65.5829978  35.5140014
  14.0519992  65.0989978  34.2520014  14.5826547  64.9622457  34.9270047
   6.4009992  67.2759978  27.7570014   6.0709992  66.9049978  26.9390014
   6.9899992  66.6049978  28.1040014   6.4353970  67.1346063  27.6919404
   7.7679992  70.7039978  30.4380014   7.6729992  70.1249978  29.6820014
   8.4969992  70.3329978  30.9340014   7.8536011  70.5745561  30.4016028
   6.7679992  66.0439978  31.3900014   7.3329992  66.1659978  30.6280014
   7.0869992  66.6819978  32.0290014   6.8884166  66.1468791  31.3720348
  13.0769992  71.5479978  32.1240014  12.8369992  72.2099978  32.7720014
  12.8789992  70.7129978  32.5490014  13.0173826  71.5258115  32.2701566
   7.6479992  70.4439978  36.1080014   7.3369992  71.2259978  36.5630014
   6.9979992  70.2909978  35.4220014   7.5175538  70.5304087  36.0775898
  13.6269992  65.8079978  23.5600014  14.2059992  65.9579978  24.3060014
  14.0409992  66.2779978  22.8360014  13.7623358  65.8920954  23.5643953
   4.5679992  66.6419978  35.3360014   4.6379992  67.2929978  36.0350014
   3.6769992  66.7449978  35.0010014   4.4571690  66.7449249  35.3863043
  11.3529992  72.5439978  26.9950014  11.8269992  72.8399978  27.7720014
  10.7899992  73.2829978  26.7620014  11.3417890  72.6843036  27.0698101
   5.8869992  72.5149978  36.8710014   5.8949992  72.3789978  35.9240014
   4.9709992  72.3979978  37.1230014   5.7642528  72.4805463  36.7753243
  17.3259992  57.5579978  23.3730014  16.4259992  57.6969978  23.6680014
  17.5779992  58.3889978  22.9710014  17.2368683  57.6894055  23.3590232
   5.3919992  66.3449978  25.3460014   5.0999992  67.1129978  24.8550014
   4.7169992  65.6859978  25.1830014   5.2608497  66.3609745  25.2568260
  18.5149992  71.9239978  21.7490014  18.5879992  72.8629978  21.9190014
  19.4199992  71.6189978  21.6930014  18.6474170  72.0113282  21.7647063
   1.4849992  68.7079978  34.1610014   0.9829992  68.6799978  33.3460014
   1.4899992  67.8029978  34.4710014   1.4169832  68.5817486  34.0914121
   1.2349992  71.4889978  31.0450014   2.1809992  71.3439978  31.0260014
   1.1219992  72.2729978  31.5820014   1.3493578  71.5751697  31.1150317
  19.4329992  72.1549978  36.7280014  19.3829992  71.1989978  36.6900014
  18.6059992  72.4219978  37.1290014  19.3143831  72.0604680  36.7770121
  10.4109992  71.7289978  35.6040014  10.4989992  72.5549978  36.0790014
   9.5479992  71.3989978  35.8530014  10.3063357  71.7975468  35.7027653
  10.8259992  75.5009978  25.4100014  10.7499992  75.3799978  24.4630014
  10.8579992  76.4499978  25.5280014  10.8199380  75.6127677  25.2965181
   4.4789992  74.2899978  27.1910014   4.6309992  73.9419978  28.0690014
   3.6279992  73.9329978  26.9350014   4.3848344  74.1940879  27.2766868
  13.9269992  74.6549978  22.4120014  14.3019992  73.9109978  21.9410014
  13.9319992  74.3849978  23.3300014  13.9790098  74.5166392  22.4716629
  13.5959992  74.5809978  25.1610014  12.6609992  74.6809978  25.3400014
  13.8759992  73.8709978  25.7400014  13.5059471  74.4987933  25.2636695
  16.5849992  63.6479978  37.2080014  16.1769992  64.1279978  36.4870014
  16.6249992  62.7419978  36.9000014  16.5346221  63.5912449  37.0678267
   3.7339992  70.0319978  35.2040014   3.9499992  69.6699978  36.0640014
   2.8779992  69.6569978  34.9950014   3.6478810  69.9318837  35.2932680
   6.3519992  58.5019978  31.2000014   5.4909992  58.4149978  30.7920014
   6.3299992  59.3579978  31.6280014   6.2310491  58.6058003  31.2019582
  11.0149992  58.2239978  34.5750014  11.4349992  57.8089978  35.3280014
  10.0819992  58.0449978  34.6920014  10.9463736  58.1429910  34.6938968
  14.3419992  61.9789978  35.4280014  13.8279992  61.8539978  36.2260014
  14.1859992  62.8919978  35.1840014  14.2506967  62.0852123  35.5040937
  15.1039992  66.8399978  21.1890014  15.1459992  66.6179978  20.2590014
  15.9529992  67.2389978  21.3790014  15.2245253  66.8635498  21.0873822
  10.6769992  60.7159978  21.8600014  10.4229992  60.7349978  22.7820014
  10.4199992  59.8449978  21.5580014  10.6074508  60.6008280  21.9454803
   6.4429992  63.4669978  32.2950014   5.8019992  63.4269978  33.0040014
   6.4809992  64.3939978  32.0570014   6.3603010  63.5867668  32.3599946
   6.4399992  63.6879978  27.2070014   5.5479992  63.3479978  27.1480014
   6.8909992  63.3109978  26.4510014   6.3787642  63.5904910  27.0967726
  11.9759992  64.1039978  26.0240014  11.5669992  64.9189978  25.7320014
  12.6959992  63.9639978  25.4100014  12.0174439  64.1965372  25.9010115
  11.0779992  64.2799978  37.5120014  10.5149992  63.5749978  37.8330014
  11.9039992  64.1589978  37.9800014  11.1126674  64.1672165  37.6191751
  12.9809992  63.5499978  28.8380014  12.7849992  64.1559978  28.1230014
  13.1619992  62.7169978  28.4040014  12.9786584  63.5202513  28.6814212
   4.1929992  63.7879978  34.1620014   4.1549992  64.1879978  35.0310014
   3.7029992  62.9709978  34.2520014   4.1215330  63.7322674  34.2931289
   7.5589992  61.1619978  20.9610014   7.1279992  60.7169978  21.6900014
   6.8409992  61.5329978  20.4480014   7.4029176  61.1512051  20.9914930
   0.8019992  60.9039978  28.0130014   1.4319992  60.8749978  28.7320014
   1.2509992  60.4789978  27.2820014   0.9490835  60.8425660  28.0127659
   2.0759992  61.6499978  23.4370014   2.5499992  62.2409978  22.8520014
   1.3579992  62.1799978  23.7840014   2.0438640  61.8025511  23.4037969
  12.2449992  65.1879978  33.5090014  12.5679992  64.5569978  32.8660014
  11.8039992  64.6539978  34.1700014  12.2296379  65.0293468  33.5102582
   9.0219992  61.1159978  28.2930014   8.1109992  61.1729978  28.5820014
   9.5269992  61.0559978  29.1040014   8.9656873  61.1156826  28.4421207
   3.8499992  62.7449978  27.1200014   2.9609992  62.8439978  26.7800014
   4.1469992  61.9029978  26.7740014   3.7684177  62.6447687  27.0266940
   7.5029992  62.7449978  24.7770014   8.4349992  62.8739978  24.9550014
   7.2879992  63.4139978  24.1270014   7.6014472  62.8530806  24.7134891
  13.4269992  60.3509978  31.5580014  12.7499992  60.4819978  32.2210014
  12.9419992  60.1959978  30.7470014  13.2687405  60.3479947  31.5392170
   6.1769992  63.9389978  22.3430014   5.6349992  63.5599978  21.6520014
   7.0109992  64.1339978  21.9150014   6.2154390  63.9134079  22.1904392
  16.7149992  76.0219978  37.8340014  16.9139992  76.4459978  37.0000014
  17.3699992  76.3659978  38.4410014  16.8308522  76.1266301  37.8017852
   4.3129992  68.4959978  37.4420014   5.0449992  68.7509978  38.0040014
   3.5319992  68.7009978  37.9580014   4.3076526  68.5585450  37.5885176
  10.3419992  63.9029978  30.1800014  10.9059992  63.3569978  29.6330014
  10.1939992  63.3819978  30.9690014  10.3993037  63.7576787  30.2117229
   5.3439992  60.0399978  26.5990014   5.0269992  59.1369978  26.5630014
   6.1249992  60.0419978  26.0460014   5.4062431  59.9167797  26.5193102
   8.9679992  62.2919978  32.5940014   8.1329992  62.7459978  32.7050014
   9.4919992  62.5679978  33.3460014   8.9246072  62.3913948  32.7108136
   9.5129992  68.5049978  24.2790014   8.7679992  67.9969978  23.9570014
   9.3779992  68.5539978  25.2250014   9.3928963  68.4421731  24.3628826
  16.6629992  67.6379978  33.0660014  17.3039992  68.0939978  32.5220014
  15.8319992  67.7509978  32.6030014  16.6385287  67.7156921  32.9289887
  13.4099992  61.3189978  22.4780014  12.4719992  61.4299978  22.3270014
  13.7079992  62.1749978  22.7850014  13.3216318  61.4500158  22.4988145
  11.0319992  68.6889978  35.5160014  10.6859992  68.3069978  36.3230014
  10.8319992  69.6219978  35.5870014  10.9575987  68.7629002  35.6360461
  14.1289992  63.1859978  24.1390014  15.0209992  63.0479978  24.4580014
  14.1849992  63.9769978  23.6020014  14.2587325  63.2739918  24.1101217
   4.6369992  67.7999978  30.0490014   5.3819992  67.7969978  29.4470014
   4.7149992  66.9759978  30.5300014   4.7493366  67.6882384  30.0317430
  11.6379992  69.9629978  23.3040014  11.3429992  70.7899978  23.6860014
  10.9349992  69.3439978  23.5010014  11.5026379  69.9924171  23.3828654
   1.6449992  66.2599978  35.3640014   1.8679992  65.8419978  36.1950014
   1.0429992  65.6479978  34.9410014   1.5941513  66.1199606  35.4206740
   8.6619992  65.7769978  37.5770014   8.3659992  65.6119978  36.6810014
   9.5929992  65.5569978  37.5660014   8.7474401  65.7246879  37.4530206
  13.2819992  71.1509978  35.4660014  12.3819992  71.3339978  35.1990014
  13.3159992  71.4099978  36.3870014  13.1633748  71.2110554  35.5539164
  19.0139992  63.3949978  23.8340014  18.4589992  62.9989978  23.1610014
  19.1139992  64.3059978  23.5560014  18.9516816  63.4639505  23.7045033
  18.9769992  69.1959978  36.6710014  18.1259992  69.4339978  36.3030014
  19.5669992  69.1789978  35.9180014  18.9403812  69.2262524  36.5188453
  17.3089992  72.1809978  24.2990014  16.9359992  71.3559978  24.6080014
  17.5859992  71.9979978  23.4010014  17.2953463  72.0432569  24.2199525
  14.4689992  66.9889978  31.3200014  13.5409992  66.7579978  31.2930014
  14.9199992  66.2119978  30.9900014  14.4028165  66.8522774  31.2716790
   7.0119992  71.3179978  27.4530014   7.5399992  72.0909978  27.2530014
   6.1319992  71.5419978  27.1510014   6.9653435  71.4542700  27.3847310
   2.7669992  66.1799978  22.0400014   3.3829992  66.8069978  22.4200014
   1.9049992  66.4959978  22.3120014   2.7347678  66.3084412  22.1287209
   8.4399992  68.9809978  27.0290014   8.1989992  69.9059978  27.0710014
   7.6989992  68.5219978  27.4260014   8.3069206  69.0455915  27.0883769
   8.9539992  73.1299978  33.3440014   9.3169992  73.9839978  33.1110014
   9.4859992  72.8379978  34.0850014   9.0755141  73.2073895  33.4122097
   7.1229992  74.0019978  26.5750014   6.1729992  74.1079978  26.6260014
   7.4749992  74.8229978  26.9190014   7.0405472  74.1274923  26.6284852
  12.4979992  69.2289978  33.0450014  12.0729992  69.0009978  33.8710014
  13.0789992  68.4899978  32.8630014  12.5183395  69.0979545  33.1334414
  14.7009992  70.1579978  22.1190014  15.0549992  69.7779978  22.9230014
  13.7529992  70.0639978  22.2060014  14.6212298  70.0932452  22.2408687
  15.1569992  73.7809978  35.5140014  14.5549992  73.2249978  35.0190014
  15.4379992  74.4479978  34.8880014  15.1125757  73.7950744  35.3615675
  19.2049992  74.6369978  22.3200014  19.9489992  75.2229978  22.1800014
  18.5109992  75.2059978  22.6530014  19.2129809  74.7940818  22.3458590
   3.2789992  61.0139978  34.9220014   2.3869992  61.3519978  34.8540014
   3.1809992  60.1579978  35.3400014   3.1434475  60.9446543  34.9691704
  15.5669992  68.8299978  24.3460014  15.2899992  68.1019978  24.9020014
  16.4949992  68.9489978  24.5510014  15.6544499  68.7464213  24.4498044
   2.9309992  72.8179978  33.3570014   3.1479992  71.8859978  33.3260014
   3.1769992  73.0929978  34.2400014   2.9939809  72.7275686  33.4721691
   8.7919992  71.2699978  20.5660014   9.0309992  70.5209978  20.0190014
   8.5229992  70.8819978  21.3990014   8.7883233  71.1151853  20.6037809
   7.7289992  70.8399978  23.0220014   7.8759992  70.3199978  23.8120014
   7.7259992  71.7469978  23.3290014   7.7487102  70.8913953  23.1715925
   4.1819992  68.0919978  23.5330014   3.4959992  68.4449978  24.1000014
   4.7049992  68.8549978  23.2860014   4.1588402  68.2433901  23.5771801
  12.0139992  60.7549978  33.8120014  12.7129992  60.8289978  34.4620014
  11.6329992  59.8899978  33.9660014  12.0582097  60.6482389  33.9217997
  12.7979992  60.4069978  24.9090014  13.0179992  60.8779978  24.1050014
  13.3569992  60.8009978  25.5790014  12.9036732  60.5247287  24.8895033
  10.4669992  72.5369978  23.7720014   9.6499992  73.0339978  23.8240014
  10.9959992  73.0129978  23.1310014  10.4268125  72.6691989  23.6925306
   9.9979992  62.1349978  25.7440014  10.8099992  62.6389978  25.7900014
   9.7539992  61.9899978  26.6580014  10.0761467  62.1843749  25.8738575
  10.5339992  63.1209978  34.9280014  10.6529992  63.6949978  35.6850014
  11.1889992  62.4329978  35.0430014  10.6388684  63.1065194  35.0471674
  10.8819992  59.2159978  26.6820014  10.5349992  59.8329978  27.3260014
  11.5409992  59.7169978  26.2000014  10.9235090  59.3681575  26.7050681
   7.8049992  73.5809978  23.7530014   7.9659992  74.3809978  23.2530014
   7.6079992  73.8879978  24.6380014   7.8003906  73.7318678  23.8042333
   6.5399992  60.2789978  23.3690014   6.4559992  61.1669978  23.7160014
   7.4299992  60.0139978  23.6010014   6.6488163  60.3647179  23.4478596
  16.7379992  61.0279978  35.7630014  15.8219992  61.2899978  35.6760014
  17.0739992  61.0249978  34.8670014  16.6578499  61.0635163  35.6298766
  15.3409992  64.7779978  29.8590014  14.5429992  64.3629978  29.5310014
  15.7859992  64.0879978  30.3500014  15.2919684  64.6278628  29.8805227
   4.7979992  70.7059978  22.4290014   5.3899992  71.4059978  22.7060014
   5.2569992  70.2729978  21.7100014   4.9411652  70.7432675  22.3696533
   3.1139992  63.3709978  21.5450014   3.0689992  64.3099978  21.7240014
   2.2259992  63.1349978  21.2760014   2.9878166  63.4676687  21.5331524
  16.4269992  74.0339978  31.4810014  16.2709992  74.7129978  30.8240014
  17.3599992  74.1059978  31.6840014  16.5317387  74.1366390  31.4185342
   3.9219992  58.1519978  30.2190014   3.6929992  58.2109978  29.2910014
   3.4799992  57.3609978  30.5250014   3.8308801  58.0530540  30.1334729
   2.8529992  72.0929978  26.3790014   2.0199992  72.5649978  26.4060014
   3.3979992  72.6029978  25.7800014   2.8127857  72.2264791  26.3017142
   2.1409992  74.7049978  37.7090014   2.6809992  74.4889978  38.4690014
   1.6599992  73.8999978  37.5190014   2.1499219  74.5665156  37.7874282
   6.7379992  73.6249978  39.3290014   7.5059992  73.1659978  39.6700014
   6.7169992  73.3989978  38.3990014   6.8402135  73.5316668  39.2499491
  10.8299992  73.1329978  20.7050014  10.1859992  72.5019978  21.0260014
  11.5919992  72.6019978  20.4730014  10.8448058  72.9747902  20.7176038
  13.3149992  72.0049978  38.0580014  12.9639992  71.1479978  38.3020014
  14.0409992  72.1469978  38.6650014  13.3651895  71.9071351  38.1733770
  15.4349992  72.9499978  20.9380014  15.7179992  72.1549978  21.3910014
  16.1739992  73.1829978  20.3770014  15.5737096  72.8727049  20.9241104
   2.0479992  68.5159978  38.6630014   2.1919992  67.6139978  38.3770014
   1.2759992  68.8019978  38.1760014   1.9632733  68.4311798  38.5579532
   6.3889992  68.8589978  20.7960014   6.4539992  68.0649978  21.3260014
   7.0419992  68.7409978  20.1060014   6.4861605  68.7343430  20.7752997
   8.7029992  68.4849978  38.0960014   8.3749992  68.7559978  37.2390014
   8.8549992  67.5439978  38.0080014   8.6786412  68.3949046  37.9667822
  11.7419992  69.9059978  20.5320014  11.4729992  70.0869978  21.4320014
  11.5349992  68.9809978  20.4000014  11.6771191  69.8057119  20.6375524
  14.4379992  68.4009978  35.4790014  15.1829992  68.9899978  35.3600014
  13.6809992  68.9829978  35.5430014  14.4375470  68.5602128  35.4713799
   2.8809992  65.7159978  38.0830014   3.2889992  64.8589978  37.9620014
   2.6199992  65.7299978  39.0040014   2.9016016  65.6005119  38.1909192
   7.5389992  66.8319978  23.1020014   7.0789992  66.3479978  23.7870014
   7.7939992  66.1629978  22.4660014   7.5104856  66.6753669  23.1098397
   6.8279992  64.7249978  35.4580014   6.2089992  65.3989978  35.7380014
   7.1719992  65.0459978  34.6240014   6.7897123  64.8606887  35.3836388
   8.6099992  65.0749978  21.3640014   8.4289992  64.9199978  20.4370014
   9.5599992  65.1829978  21.4090014   8.7136566  65.0683669  21.2430929
  11.8469992  67.1959978  38.7350014  12.8009992  67.2799978  38.7080014
  11.6869992  66.4839978  39.3550014  11.9557182  67.1112842  38.8150733
  17.9999992  67.4289978  20.8100014  17.7259992  67.0049978  19.9970014
  18.0389992  68.3609978  20.5930014  17.9677716  67.4968827  20.6694286
   7.1669992  62.0799978  36.5400014   7.3169992  61.3509978  35.9380014
   7.1689992  62.8569978  35.9810014   7.1877967  62.0852708  36.3820541
   7.5799992  60.4489978  34.0330014   8.1149992  60.9009978  33.3810014
   6.7269992  60.3409978  33.6100014   7.5380374  60.4962665  33.8866710
   9.1609992  65.8889978  34.2720014   9.9119992  65.7329978  33.6990014
   8.8219992  66.7409978  33.9970014   9.2179587  65.9828138  34.1564078
  13.5769992  63.7039978  39.3010014  13.7689992  62.7729978  39.1890014
  14.4349992  64.1289978  39.2900014  13.7192182  63.6340070  39.2841862
  14.8939992  66.4929978  37.3780014  14.6119992  67.2019978  36.8000014
  15.8359992  66.4199978  37.2270014  14.9827921  66.5802193  37.2784225
   5.6459992  63.2779978  38.4510014   4.8779992  62.7449978  38.2410014
   6.3239992  62.9679978  37.8520014   5.6327235  63.1631754  38.3412413
   8.3849992  57.9059978  34.4640014   8.2869992  58.8519978  34.3590014
   7.6429992  57.5329978  33.9880014   8.2712534  57.9851773  34.3852600
   9.6489992  62.2269978  38.0280014   9.4139992  62.0079978  38.9290014
   8.8659992  62.0199978  37.5180014   9.5109095  62.1689892  38.0825353
  12.3649992  61.3549978  37.1030014  11.4169992  61.3869978  37.2350014
  12.6769992  60.7289978  37.7570014  12.2775293  61.2747923  37.2094148
  13.9989992  59.9889978  39.1080014  13.9019992  59.0369978  39.1030014
  13.6769992  60.2569978  39.9690014  13.9422468  59.8950884  39.2236210
   3.8259992  61.1979978  38.1560014   4.0379992  60.4919978  37.5460014
   3.7149992  60.7609978  39.0000014   3.8400269  61.0421921  38.1865873
   8.6069992  57.1999978  37.1350014   9.3189992  56.5599978  37.1210014
   8.5059992  57.4659978  36.2220014   8.6907387  57.1484330  37.0095563
   8.9609992  58.8819978  39.1890014   8.8289992  58.4069978  38.3690014
   8.3609992  59.6269978  39.1340014   8.8619070  58.9175789  39.0693251
   8.5069992  75.7649978  22.3650014   9.4399992  75.9229978  22.5090014
   8.2429992  76.4409978  21.7400014   8.5989911  75.8779373  22.3002722
   2.0749992  70.4019978  21.8480014   2.9889992  70.4809978  22.1210014
   2.0829992  69.7149978  21.1820014   2.2010655  70.3199205  21.7952917
   0.7239992  75.7949978  26.9250014   0.0769992  75.3329978  26.3930014
   1.0789992  75.1229978  27.5080014   0.6833741  75.6409774  26.9309175
   1.5939992  73.8749978  28.7300014   1.2599992  72.9949978  28.9020014
   1.8169992  74.2209978  29.5950014   1.5783721  73.8011938  28.8704168
  19.1429992  74.6849978  31.7110014  19.1209992  74.8699978  32.6500014
  19.8329992  75.2529978  31.3700014  19.2333439  74.7871887  31.7934791
  18.7059992  74.2519978  34.6320014  18.2189992  73.5169978  34.2610014
  19.2549992  73.8579978  35.3100014  18.7135247  74.0981057  34.6728461
  17.1569992  70.0419978  39.2710014  16.2909992  69.9369978  39.6650014
  17.5329992  70.7999978  39.7170014  17.0893401  70.1301708  39.3852620
  18.4579992  68.2979978  24.7850014  19.3079992  68.7189978  24.9120014
  18.4629992  67.5579978  25.3920014  18.5751143  68.2556094  24.8844750
  18.8519992  66.3519978  26.6080014  18.1259992  65.8719978  27.0060014
  19.4339992  66.5569978  27.3410014  18.8312730  66.3140184  26.7614149
  18.6109992  69.1369978  31.5560014  19.4449992  68.7589978  31.2750014
  18.7229992  70.0799978  31.4370014  18.7401917  69.2127943  31.5014861
  17.0979992  72.0149978  33.8630014  16.4499992  72.3399978  34.4880014
  16.5799992  71.5739978  33.1890014  16.9394196  71.9998651  33.8574152
  19.1209992  66.2529978  22.9990014  18.5989992  66.6089978  22.2810014
  19.0879992  66.9279978  23.6780014  19.0450129  66.3929598  22.9923355
  17.4699992  63.4919978  21.5500014  17.5659992  64.1589978  20.8700014
  17.3299992  62.6769978  21.0690014  17.4642040  63.4730671  21.3918378
  16.6389992  64.8729978  27.1710014  16.4889992  63.9279978  27.1510014
  16.2849992  65.1539978  28.0150014  16.5706351  64.7816644  27.2823220
   1.6739992  66.9509978  31.1820014   1.8589992  66.8689978  30.2460014
   2.5239992  66.8269978  31.6050014   1.8140928  66.9230463  31.1112893
  17.4949992  66.8429978  36.8100014  18.0779992  66.1079978  37.0020014
  18.0589992  67.6149978  36.8570014  17.6509781  66.8468145  36.8426164
  18.9919992  64.7459978  37.4950014  18.1289992  64.3669978  37.3290014
  19.5959992  64.0069978  37.4200014  18.9556085  64.5943223  37.4621695
  16.7169992  60.8999978  20.6680014  17.3279992  60.5289978  21.3050014
  15.8799992  60.4789978  20.8640014  16.6874947  60.7922756  20.7817252
  16.3499992  62.4549978  25.6340014  16.6289992  61.5479978  25.7580014
  17.1089992  62.8889978  25.2450014  16.4908619  62.3894502  25.5983795
  16.9609992  63.0369978  31.0700014  17.8939992  63.2489978  31.0350014
  16.7259992  63.1379978  31.9920014  17.0569517  63.0796833  31.1899130
  16.9909992  63.7739978  33.8460014  16.1479992  64.0419978  34.2120014
  17.4329992  64.5959978  33.6350014  16.9354138  63.9218273  33.8675518
   1.2719992  62.2209978  37.3220014   2.1909992  62.0989978  37.5590014
   0.8219992  61.4709978  37.7120014   1.3370087  62.1029608  37.4071410
  19.2739992  57.7539978  39.1990014  19.6229992  57.0999978  38.5940014
  19.4209992  58.5909978  38.7590014  19.3416824  57.7776024  39.0566304
  16.9629992  59.7179978  25.6820014  17.1449992  59.2689978  26.5070014
  16.3629992  59.1339978  25.2180014  16.9068187  59.5775552  25.7322739
   2.4929992  60.5339978  30.2140014   2.9379992  59.7419978  30.5160014
   2.9589992  61.2499978  30.6440014   2.6169718  60.5224534  30.3135265
   0.7969992  63.5329978  31.2830014   1.2889992  63.3119978  30.4920014
   1.1589992  64.3729978  31.5640014   0.9132923  63.6163468  31.2127407
  18.7929992  59.8629978  37.5480014  17.8759992  60.1339978  37.5130014
  18.9159992  59.3279978  36.7640014  18.6839672  59.8277885  37.4371862
  18.8299992  59.7859978  22.2100014  19.2419992  59.0649978  21.7350014
  19.5109992  60.4549978  22.2680014  18.9785536  59.7777766  22.1528024
   1.1109992  59.7909978  25.3370014   0.1859992  59.9989978  25.2080014
   1.5649992  60.2749978  24.6470014   1.0456298  59.8849299  25.2260451
  15.8809992  74.7749978  27.2830014  16.5339992  74.4269978  26.6750014
  16.3919992  75.2629978  27.9290014  16.0392777  74.7933815  27.2872047
   1.0739992  58.5289978  33.6810014   0.4089992  58.2829978  34.3240014
   0.6309992  59.1509978  33.1040014   0.9231168  58.5794214  33.6909848
   3.2659992  71.7039978  37.8260014   2.4449992  71.8789978  37.3650014
   3.0139992  71.6309978  38.7460014   3.1195594  71.7180717  37.8873611
   6.2199992  72.6779978  34.0840014   5.7959992  73.4879978  33.8020014
   7.1249992  72.7639978  33.7820014   6.2842138  72.8004160  34.0046415
  10.5319992  74.0769978  37.0440014  10.7159992  73.7439978  37.9220014
  11.3779992  74.3869978  36.7220014  10.6716484  74.0732979  37.1207617
  12.8769992  75.3629978  36.2880014  13.5539992  74.7299978  36.0480014
  13.1979992  75.7639978  37.0950014  13.0131323  75.3305691  36.3643158
  17.7939992  57.9529978  35.3670014  16.9809992  58.2779978  34.9800014
  18.0269992  57.1919978  34.8340014  17.7141347  57.8946880  35.2419841
   3.6219992  75.9349978  34.1320014   2.9019992  76.3749978  33.6810014
   3.2569992  75.6839978  34.9800014   3.4739643  75.9613369  34.1849129
   6.0889992  75.5349978  33.1620014   5.2249992  75.6069978  33.5660014
   6.0339992  76.0819978  32.3780014   5.9631942  75.6187849  33.1114000
  10.7999992  75.4229978  32.3370014  10.3429992  75.9519978  31.6830014
  10.9629992  76.0259978  33.0620014  10.7594960  75.5769280  32.3455274
  13.1279992  74.3009978  33.2820014  12.2229992  74.4659978  33.0160014
  13.5559992  75.1539978  33.2160014  13.0621537  74.4389134  33.2367095
  15.7319992  75.8709978  33.5770014  15.5499992  76.7869978  33.3660014
  15.9089992  75.4599978  32.7300014  15.7310030  75.9408273  33.4337166
   3.0369992  74.5579978  31.0420014   3.0189992  74.1319978  31.8990014
   3.8419992  74.2389978  30.6330014   3.1432875  74.4566435  31.1039515
   5.1779992  73.2679978  29.6970014   4.9589992  72.3509978  29.8670014
   6.0019992  73.4079978  30.1630014   5.2594702  73.1615511  29.7832527
   7.7149992  73.7379978  30.5460014   7.9279992  72.8499978  30.2590014
   7.7799992  73.7029978  31.5000014   7.7529149  73.6118326  30.6357369
  11.2239992  59.4019978  29.6900014  10.5499992  58.7719978  29.9460014
  11.7879992  58.9179978  29.0870014  11.2080384  59.2503708  29.6435020
  16.3669992  57.5089978  29.8030014  16.9699992  58.0569978  29.3010014
  15.4969992  57.8279978  29.5620014  16.3319157  57.6270373  29.7017910
  18.0939992  58.6479978  28.1360014  18.7049992  58.1339978  27.6090014
  18.4759992  59.5249978  28.1590014  18.2293305  58.6962050  28.0669418
   3.5509992  58.0359978  27.5120014   2.7739992  57.8009978  27.0050014
   4.0809992  57.2389978  27.5210014   3.5163451  57.8961268  27.4438627
   2.3869992  57.8339978  23.3160014   2.8259992  58.4449978  22.7240014
   1.7529992  58.3719978  23.7900014   2.3613859  57.9904064  23.2990305
   8.1299992  57.9619978  27.3250014   9.0039992  58.3509978  27.2960014
   7.9939992  57.7469978  28.2480014   8.2311953  57.9861643  27.4457617
  13.6869992  57.9919978  28.9750014  13.7629992  58.0879978  28.0250014
  13.4119992  57.0849978  29.1030014  13.6601871  57.8824146  28.8623944
  15.0399992  58.0179978  24.6670014  14.3369992  58.6329978  24.4570014
  14.5949992  57.1809978  24.7980014  14.8836550  57.9889668  24.6559837
   2.2879992  73.7819978  24.2130014   1.6029992  73.7439978  23.5460014
   2.2919992  74.6949978  24.5010014   2.1947621  73.9001924  24.1606126
   4.2479992  59.7499978  21.7580014   4.7389992  59.1199978  21.2310014
   4.8709992  60.0459978  22.4210014   4.3995304  59.7037376  21.7754940
   9.2739992  60.0429978  24.2150014   9.4519992  59.3959978  24.8980014
   9.2199992  60.8769978  24.6820014   9.2910678  60.0671604  24.3716301
  11.1519992  74.9909978  22.6110014  12.0179992  75.3579978  22.4330014
  10.9059992  74.5519978  21.7970014  11.2372097  74.9818525  22.4766019
  17.8609992  74.5539978  25.2900014  17.6669992  73.8059978  24.7250014
  17.8219992  75.3119978  24.7070014  17.8291645  74.5540786  25.1338148
   3.5079992  58.5499978  37.0300014   3.1419992  57.7839978  37.4720014
   4.4209992  58.5789978  37.3160014   3.5813172  58.4490324  37.1291890
   5.4809992  57.8999978  38.5650014   6.3799992  57.6259978  38.3810014
   5.0949992  57.1579978  39.0300014   5.5517307  57.7622196  38.6027098
   4.1059992  74.7019978  21.2380014   3.8379992  74.9879978  22.1120014
   4.8769992  74.1559978  21.3910014   4.1735927  74.6672779  21.3781205
  13.9029992  57.2329978  38.7480014  13.9789992  56.8069978  39.6010014
  14.7959992  57.2459978  38.4050014  14.0342303  57.1763493  38.8185497
  17.0789992  73.3059978  37.4400014  16.2969992  73.1189978  36.9200014
  17.0069992  74.2349978  37.6570014  16.9621924  73.4060637  37.3981602
  31.4849992  67.1919978  27.4710014  31.5739992  68.1359978  27.3390014
  30.8469992  66.9169978  26.8130014  31.4109062  67.2839812  27.3639641
  30.4179992  66.4469978  30.8900014  30.3799992  65.8009978  31.5950014
  30.0959992  65.9799978  30.1190014  30.3692679  66.2954276  30.8822921
  22.7859992  66.0609978  32.4830014  22.8279992  65.4359978  33.2060014
  23.4889992  66.6849978  32.6650014  22.8867345  66.0597873  32.6065274
  34.1239992  69.3859978  29.1910014  33.6829992  68.6659978  29.6420014
  34.1109992  70.1069978  29.8210014  34.0619215  69.3849291  29.3378105
  23.7099992  70.5109978  31.0180014  23.3399992  69.7089978  30.6480014
  24.6509992  70.3429978  31.0640014  23.7865984  70.3784638  30.9735603
  20.3199992  64.1709978  26.4100014  19.8719992  65.0169978  26.3920014
  19.7589992  63.5919978  25.8950014  20.1828546  64.2083993  26.3378891
  21.0299992  66.3329978  28.5360014  21.2439992  65.5629978  29.0640014
  21.7679992  66.4229978  27.9330014  21.1590200  66.2398586  28.5267035
  31.2359992  74.4899978  29.4030014  31.8549992  73.8139978  29.1300014
  31.0269992  74.2719978  30.3120014  31.2926056  74.3678869  29.4883967
  28.8069992  68.8789978  31.2960014  29.1109992  68.1929978  30.7010014
  29.5289992  68.9979978  31.9140014  28.9461240  68.8012314  31.2980959
  37.4699992  60.4809978  32.1560014  37.5199992  61.0909978  32.8920014
  37.8959992  60.9419978  31.4330014  37.5344108  60.6267709  32.1590112
  31.9479992  63.2729978  31.6230014  32.0909992  62.3269978  31.6430014
  31.8419992  63.4799978  30.6950014  31.9532403  63.1714797  31.5002239
  25.1029992  61.3749978  28.8960014  25.1459992  62.2349978  28.4770014
  24.6449992  60.8229978  28.2620014  25.0469871  61.4179245  28.7530761
  32.8249992  61.5059978  27.2970014  33.4719992  61.1769978  27.9210014
  33.3349992  62.0229978  26.6740014  32.9824351  61.5309067  27.2981037
  21.7229992  63.7719978  29.6580014  22.3769992  63.2219978  30.0900014
  21.7469992  63.4979978  28.7410014  21.8157199  63.6597167  29.5931668
  26.8799992  65.3219978  28.8730014  27.4959992  64.7949978  29.3820014
  26.2929992  64.6819978  28.4690014  26.8850154  65.1633954  28.8880945
  37.8619992  61.9589978  34.3920014  37.1729992  62.6169978  34.2970014
  37.8769992  61.7609978  35.3290014  37.7697756  62.0222603  34.5055812
  23.9129992  60.2929978  32.9700014  23.6939992  60.8229978  32.2030014
  23.2449992  60.5189978  33.6170014  23.7926975  60.3960967  32.9525140
  31.2819992  69.7929978  26.5140014  30.9869992  69.4699978  25.6620014
  30.9579992  70.6929978  26.5550014  31.1978460  69.8704464  26.4029714
  26.4819992  67.9679978  33.2570014  25.7419992  68.5669978  33.3610014
  27.1959992  68.5219978  32.9420014  26.4773500  68.1247829  33.2286371
  34.5889992  60.7969978  29.2770014  34.3739992  60.0309978  29.8100014
  35.2449992  61.2689978  29.7900014  34.6482673  60.7560728  29.4191990
  23.5069992  62.1849978  30.9220014  24.1209992  62.8179978  31.2950014
  24.0189992  61.7129978  30.2660014  23.6601962  62.2077249  30.8842935
  24.8899992  69.9329978  34.0440014  24.8839992  70.8119978  33.6660014
  24.0359992  69.8489978  34.4690014  24.7737925  70.0419535  34.0496887
  21.0109992  69.6039978  24.8260014  20.7389992  69.8329978  23.9380014
  21.0559992  70.4409978  25.2870014  20.9798097  69.7486163  24.7666683
  34.6359992  71.2249978  31.5390014  33.6939992  71.2839978  31.7010014
  34.9119992  72.1309978  31.4020014  34.5445865  71.3555288  31.5426192
  34.9359992  59.5119978  32.9560014  34.1999992  60.1219978  32.9190014
  35.6199992  59.9269978  32.4300014  34.9275367  59.6517551  32.8798174
  27.9399992  57.5979978  30.4220014  27.8219992  56.6499978  30.3680014
  27.0849992  57.9309978  30.6950014  27.8082805  57.5132202  30.4515079
  32.8879992  73.0059978  28.1640014  33.3129992  72.2989978  27.6790014
  33.2049992  73.8079978  27.7470014  32.9890266  73.0175190  28.0412479
  34.0479992  70.9069978  26.6730014  33.7899992  70.2169978  26.0610014
  34.1189992  70.4639978  27.5180014  34.0223050  70.7526814  26.7035621
  35.7339992  69.4739978  35.1500014  35.8729992  68.8819978  34.4110014
  35.9009992  70.3469978  34.7940014  35.7756193  69.5108896  35.0006211
  30.2059992  66.4359978  24.9230014  29.4949992  66.9709978  24.5710014
  30.8969992  66.4909978  24.2630014  30.2020751  66.5166777  24.7855858
  30.2599992  64.8929978  21.9610014  30.9609992  64.9159978  22.6130014
  30.5619992  64.2649978  21.3050014  30.3968202  64.8112212  21.9615609
  37.5749992  65.8139978  33.2160014  36.9229992  66.5079978  33.3050014
  38.0409992  66.0239978  32.4060014  37.5485937  65.9375019  33.1187533
  33.6119992  66.6449978  25.8740014  32.8799992  66.8739978  26.4480014
  34.0589992  65.9319978  26.3290014  33.5723963  66.5798729  26.0139945
  33.5089992  64.8199978  34.9420014  33.5889992  65.5829978  35.5140014
  32.9079992  65.0989978  34.2520014  33.4386547  64.9622457  34.9270047
  25.2569992  67.2759978  27.7570014  24.9269992  66.9049978  26.9390014
  25.8459992  66.6049978  28.1040014  25.2913970  67.1346063  27.6919404
  26.6239992  70.7039978  30.4380014  26.5289992  70.1249978  29.6820014
  27.3529992  70.3329978  30.9340014  26.7096011  70.5745561  30.4016028
  25.6239992  66.0439978  31.3900014  26.1889992  66.1659978  30.6280014
  25.9429992  66.6819978  32.0290014  25.7444166  66.1468791  31.3720348
  31.9329992  71.5479978  32.1240014  31.6929992  72.2099978  32.7720014
  31.7349992  70.7129978  32.5490014  31.8733826  71.5258115  32.2701566
  26.5039992  70.4439978  36.1080014  26.1929992  71.2259978  36.5630014
  25.8539992  70.2909978  35.4220014  26.3735538  70.5304087  36.0775898
  32.4829992  65.8079978  23.5600014  33.0619992  65.9579978  24.3060014
  32.8969992  66.2779978  22.8360014  32.6183358  65.8920954  23.5643953
  23.4239992  66.6419978  35.3360014  23.4939992  67.2929978  36.0350014
  22.5329992  66.7449978  35.0010014  23.3131690  66.7449249  35.3863043
  30.2089992  72.5439978  26.9950014  30.6829992  72.8399978  27.7720014
  29.6459992  73.2829978  26.7620014  30.1977890  72.6843036  27.0698101
  24.7429992  72.5149978  36.8710014  24.7509992  72.3789978  35.9240014
  23.8269992  72.3979978  37.1230014  24.6202528  72.4805463  36.7753243
  36.1819992  57.5579978  23.3730014  35.2819992  57.6969978  23.6680014
  36.4339992  58.3889978  22.9710014  36.0928683  57.6894055  23.3590232
  24.2479992  66.3449978  25.3460014  23.9559992  67.1129978  24.8550014
  23.5729992  65.6859978  25.1830014  24.1168497  66.3609745  25.2568260
  37.3709992  71.9239978  21.7490014  37.4439992  72.8629978  21.9190014
  38.2759992  71.6189978  21.6930014  37.5034170  72.0113282  21.7647063
  20.3409992  68.7079978  34.1610014  19.8389992  68.6799978  33.3460014
  20.3459992  67.8029978  34.4710014  20.2729832  68.5817486  34.0914121
  20.0909992  71.4889978  31.0450014  21.0369992  71.3439978  31.0260014
  19.9779992  72.2729978  31.5820014  20.2053578  71.5751697  31.1150317
  38.2889992  72.1549978  36.7280014  38.2389992  71.1989978  36.6900014
  37.4619992  72.4219978  37.1290014  38.1703831  72.0604680  36.7770121
  29.2669992  71.7289978  35.6040014  29.3549992  72.5549978  36.0790014
  28.4039992  71.3989978  35.8530014  29.1623357  71.7975468  35.7027653
  29.6819992  75.5009978  25.4100014  29.6059992  75.3799978  24.4630014
  29.7139992  76.4499978  25.5280014  29.6759380  75.6127677  25.2965181
  23.3349992  74.2899978  27.1910014  23.4869992  73.9419978  28.0690014
  22.4839992  73.9329978  26.9350014  23.2408344  74.1940879  27.2766868
  32.7829992  74.6549978  22.4120014  33.1579992  73.9109978  21.9410014
  32.7879992  74.3849978  23.3300014  32.8350098  74.5166392  22.4716629
  32.4519992  74.5809978  25.1610014  31.5169992  74.6809978  25.3400014
  32.7319992  73.8709978  25.7400014  32.3619471  74.4987933  25.2636695
  35.4409992  63.6479978  37.2080014  35.0329992  64.1279978  36.4870014
  35.4809992  62.7419978  36.9000014  35.3906221  63.5912449  37.0678267
  22.5899992  70.0319978  35.2040014  22.8059992  69.6699978  36.0640014
  21.7339992  69.6569978  34.9950014  22.5038810  69.9318837  35.2932680
  25.2079992  58.5019978  31.2000014  24.3469992  58.4149978  30.7920014
  25.1859992  59.3579978  31.6280014  25.0870491  58.6058003  31.2019582
  29.8709992  58.2239978  34.5750014  30.2909992  57.8089978  35.3280014
  28.9379992  58.0449978  34.6920014  29.8023736  58.1429910  34.6938968
  33.1979992  61.9789978  35.4280014  32.6839992  61.8539978  36.2260014
  33.0419992  62.8919978  35.1840014  33.1066967  62.0852123  35.5040937
  33.9599992  66.8399978  21.1890014  34.0019992  66.6179978  20.2590014
  34.8089992  67.2389978  21.3790014  34.0805253  66.8635498  21.0873822
  29.5329992  60.7159978  21.8600014  29.2789992  60.7349978  22.7820014
  29.2759992  59.8449978  21.5580014  29.4634508  60.6008280  21.9454803
  25.2989992  63.4669978  32.2950014  24.6579992  63.4269978  33.0040014
  25.3369992  64.3939978  32.0570014  25.2163010  63.5867668  32.3599946
  25.2959992  63.6879978  27.2070014  24.4039992  63.3479978  27.1480014
  25.7469992  63.3109978  26.4510014  25.2347642  63.5904910  27.0967726
  30.8319992  64.1039978  26.0240014  30.4229992  64.9189978  25.7320014
  31.5519992  63.9639978  25.4100014  30.8734439  64.1965372  25.9010115
  29.9339992  64.2799978  37.5120014  29.3709992  63.5749978  37.8330014
  30.7599992  64.1589978  37.9800014  29.9686674  64.1672165  37.6191751
  31.8369992  63.5499978  28.8380014  31.6409992  64.1559978  28.1230014
  32.0179992  62.7169978  28.4040014  31.8346584  63.5202513  28.6814212
  23.0489992  63.7879978  34.1620014  23.0109992  64.1879978  35.0310014
  22.5589992  62.9709978  34.2520014  22.9775330  63.7322674  34.2931289
  26.4149992  61.1619978  20.9610014  25.9839992  60.7169978  21.6900014
  25.6969992  61.5329978  20.4480014  26.2589176  61.1512051  20.9914930
  19.6579992  60.9039978  28.0130014  20.2879992  60.8749978  28.7320014
  20.1069992  60.4789978  27.2820014  19.8050835  60.8425660  28.0127659
  20.9319992  61.6499978  23.4370014  21.4059992  62.2409978  22.8520014
  20.2139992  62.1799978  23.7840014  20.8998640  61.8025511  23.4037969
  31.1009992  65.1879978  33.5090014  31.4239992  64.5569978  32.8660014
  30.6599992  64.6539978  34.1700014  31.0856379  65.0293468  33.5102582
  27.8779992  61.1159978  28.2930014  26.9669992  61.1729978  28.5820014
  28.3829992  61.0559978  29.1040014  27.8216873  61.1156826  28.4421207
  22.7059992  62.7449978  27.1200014  21.8169992  62.8439978  26.7800014
  23.0029992  61.9029978  26.7740014  22.6244177  62.6447687  27.0266940
  26.3589992  62.7449978  24.7770014  27.2909992  62.8739978  24.9550014
  26.1439992  63.4139978  24.1270014  26.4574472  62.8530806  24.7134891
  32.2829992  60.3509978  31.5580014  31.6059992  60.4819978  32.2210014
  31.7979992  60.1959978  30.7470014  32.1247405  60.3479947  31.5392170
  25.0329992  63.9389978  22.3430014  24.4909992  63.5599978  21.6520014
  25.8669992  64.1339978  21.9150014  25.0714390  63.9134079  22.1904392
  35.5709992  76.0219978  37.8340014  35.7699992  76.4459978  37.0000014
  36.2259992  76.3659978  38.4410014  35.6868522  76.1266301  37.8017852
  23.1689992  68.4959978  37.4420014  23.9009992  68.7509978  38.0040014
  22.3879992  68.7009978  37.9580014  23.1636526  68.5585450  37.5885176
  29.1979992  63.9029978  30.1800014  29.7619992  63.3569978  29.6330014
  29.0499992  63.3819978  30.9690014  29.2553037  63.7576787  30.2117229
  24.1999992  60.0399978  26.5990014  23.8829992  59.1369978  26.5630014
  24.9809992  60.0419978  26.0460014  24.2622431  59.9167797  26.5193102
  27.8239992  62.2919978  32.5940014  26.9889992  62.7459978  32.7050014
  28.3479992  62.5679978  33.3460014  27.7806072  62.3913948  32.7108136
  28.3689992  68.5049978  24.2790014  27.6239992  67.9969978  23.9570014
  28.2339992  68.5539978  25.2250014  28.2488963  68.4421731  24.3628826
  35.5189992  67.6379978  33.0660014  36.1599992  68.0939978  32.5220014
  34.6879992  67.7509978  32.6030014  35.4945287  67.7156921  32.9289887
  32.2659992  61.3189978  22.4780014  31.3279992  61.4299978  22.3270014
  32.5639992  62.1749978  22.7850014  32.1776318  61.4500158  22.4988145
  29.8879992  68.6889978  35.5160014  29.5419992  68.3069978  36.3230014
  29.6879992  69.6219978  35.5870014  29.8135987  68.7629002  35.6360461
  32.9849992  63.1859978  24.1390014  33.8769992  63.0479978  24.4580014
  33.0409992  63.9769978  23.6020014  33.1147325  63.2739918  24.1101217
  23.4929992  67.7999978  30.0490014  24.2379992  67.7969978  29.4470014
  23.5709992  66.9759978  30.5300014  23.6053365  67.6882384  30.0317430
  30.4939992  69.9629978  23.3040014  30.1989992  70.7899978  23.6860014
  29.7909992  69.3439978  23.5010014  30.3586379  69.9924171  23.3828654
  20.5009992  66.2599978  35.3640014  20.7239992  65.8419978  36.1950014
  19.8989992  65.6479978  34.9410014  20.4501513  66.1199606  35.4206740
  27.5179992  65.7769978  37.5770014  27.2219992  65.6119978  36.6810014
  28.4489992  65.5569978  37.5660014  27.6034401  65.7246879  37.4530206
  32.1379992  71.1509978  35.4660014  31.2379992  71.3339978  35.1990014
  32.1719992  71.4099978  36.3870014  32.0193748  71.2110554  35.5539164
  37.8699992  63.3949978  23.8340014  37.3149992  62.9989978  23.1610014
  37.9699992  64.3059978  23.5560014  37.8076816  63.4639505  23.7045033
  37.8329992  69.1959978  36.6710014  36.9819992  69.4339978  36.3030014
  38.4229992  69.1789978  35.9180014  37.7963812  69.2262524  36.5188453
  36.1649992  72.1809978  24.2990014  35.7919992  71.3559978  24.6080014
  36.4419992  71.9979978  23.4010014  36.1513463  72.0432569  24.2199525
  33.3249992  66.9889978  31.3200014  32.3969992  66.7579978  31.2930014
  33.7759992  66.2119978  30.9900014  33.2588165  66.8522774  31.2716790
  25.8679992  71.3179978  27.4530014  26.3959992  72.0909978  27.2530014
  24.9879992  71.5419978  27.1510014  25.8213435  71.4542700  27.3847310
  21.6229992  66.1799978  22.0400014  22.2389992  66.8069978  22.4200014
  20.7609992  66.4959978  22.3120014  21.5907678  66.3084412  22.1287209
  27.2959992  68.9809978  27.0290014  27.0549992  69.9059978  27.0710014
  26.5549992  68.5219978  27.4260014  27.1629206  69.0455915  27.0883769
  27.8099992  73.1299978  33.3440014  28.1729992  73.9839978  33.1110014
  28.3419992  72.8379978  34.0850014  27.9315141  73.2073895  33.4122097
  25.9789992  74.0019978  26.5750014  25.0289992  74.1079978  26.6260014
  26.3309992  74.8229978  26.9190014  25.8965472  74.1274923  26.6284852
  31.3539992  69.2289978  33.0450014  30.9289992  69.0009978  33.8710014
  31.9349992  68.4899978  32.8630014  31.3743395  69.0979545  33.1334414
  33.5569992  70.1579978  22.1190014  33.9109992  69.7779978  22.9230014
  32.6089992  70.0639978  22.2060014  33.4772298  70.0932452  22.2408687
  34.0129992  73.7809978  35.5140014  33.4109992  73.2249978  35.0190014
  34.2939992  74.4479978  34.8880014  33.9685757  73.7950744  35.3615675
  38.0609992  74.6369978  22.3200014  38.8049992  75.2229978  22.1800014
  37.3669992  75.2059978  22.6530014  38.0689809  74.7940818  22.3458590
  22.1349992  61.0139978  34.9220014  21.2429992  61.3519978  34.8540014
  22.0369992  60.1579978  35.3400014  21.9994475  60.9446543  34.9691704
  34.4229992  68.8299978  24.3460014  34.1459992  68.1019978  24.9020014
  35.3509992  68.9489978  24.5510014  34.5104499  68.7464213  24.4498044
  21.7869992  72.8179978  33.3570014  22.0039992  71.8859978  33.3260014
  22.0329992  73.0929978  34.2400014  21.8499809  72.7275686  33.4721691
  27.6479992  71.2699978  20.5660014  27.8869992  70.5209978  20.0190014
  27.3789992  70.8819978  21.3990014  27.6443233  71.1151853  20.6037809
  26.5849992  70.8399978  23.0220014  26.7319992  70.3199978  23.8120014
  26.5819992  71.7469978  23.3290014  26.6047102  70.8913953  23.1715925
  23.0379992  68.0919978  23.5330014  22.3519992  68.4449978  24.1000014
  23.5609992  68.8549978  23.2860014  23.0148402  68.2433901  23.5771801
  30.8699992  60.7549978  33.8120014  31.5689992  60.8289978  34.4620014
  30.4889992  59.8899978  33.9660014  30.9142097  60.6482389  33.9217997
  31.6539992  60.4069978  24.9090014  31.8739992  60.8779978  24.1050014
  32.2129992  60.8009978  25.5790014  31.7596731  60.5247287  24.8895033
  29.3229992  72.5369978  23.7720014  28.5059992  73.0339978  23.8240014
  29.8519992  73.0129978  23.1310014  29.2828125  72.6691989  23.6925306
  28.8539992  62.1349978  25.7440014  29.6659992  62.6389978  25.7900014
  28.6099992  61.9899978  26.6580014  28.9321467  62.1843749  25.8738575
  29.3899992  63.1209978  34.9280014  29.5089992  63.6949978  35.6850014
  30.0449992  62.4329978  35.0430014  29.4948684  63.1065194  35.0471674
  29.7379992  59.2159978  26.6820014  29.3909992  59.8329978  27.3260014
  30.3969992  59.7169978  26.2000014  29.7795090  59.3681575  26.7050681
  26.6609992  73.5809978  23.7530014  26.8219992  74.3809978  23.2530014
  26.4639992  73.8879978  24.6380014  26.6563906  73.7318678  23.8042333
  25.3959992  60.2789978  23.3690014  25.3119992  61.1669978  23.7160014
  26.2859992  60.0139978  23.6010014  25.5048163  60.3647179  23.4478596
  35.5939992  61.0279978  35.7630014  34.6779992  61.2899978  35.6760014
  35.9299992  61.0249978  34.8670014  35.5138499  61.0635163  35.6298766
  34.1969992  64.7779978  29.8590014  33.3989992  64.3629978  29.5310014
  34.6419992  64.0879978  30.3500014  34.1479684  64.6278628  29.8805227
  23.6539992  70.7059978  22.4290014  24.2459992  71.4059978  22.7060014
  24.1129992  70.2729978  21.7100014  23.7971652  70.7432675  22.3696533
  21.9699992  63.3709978  21.5450014  21.9249992  64.3099978  21.7240014
  21.0819992  63.1349978  21.2760014  21.8438166  63.4676687  21.5331524
  35.2829992  74.0339978  31.4810014  35.1269992  74.7129978  30.8240014
  36.2159992  74.1059978  31.6840014  35.3877387  74.1366390  31.4185342
  22.7779992  58.1519978  30.2190014  22.5489992  58.2109978  29.2910014
  22.3359992  57.3609978  30.5250014  22.6868801  58.0530540  30.1334729
  21.7089992  72.0929978  26.3790014  20.8759992  72.5649978  26.4060014
  22.2539992  72.6029978  25.7800014  21.6687857  72.2264791  26.3017142
  20.9969992  74.7049978  37.7090014  21.5369992  74.4889978  38.4690014
  20.5159992  73.8999978  37.5190014  21.0059219  74.5665156  37.7874282
  25.5939992  73.6249978  39.3290014  26.3619992  73.1659978  39.6700014
  25.5729992  73.3989978  38.3990014  25.6962135  73.5316668  39.2499491
  29.6859992  73.1329978  20.7050014  29.0419992  72.5019978  21.0260014
  30.4479992  72.6019978  20.4730014  29.7008058  72.9747902  20.7176038
  32.1709992  72.0049978  38.0580014  31.8199992  71.1479978  38.3020014
  32.8969992  72.1469978  38.6650014  32.2211895  71.9071351  38.1733770
  34.2909992  72.9499978  20.9380014  34.5739992  72.1549978  21.3910014
  35.0299992  73.1829978  20.3770014  34.4297096  72.8727049  20.9241104
  20.9039992  68.5159978  38.6630014  21.0479992  67.6139978  38.3770014
  20.1319992  68.8019978  38.1760014  20.8192733  68.4311798  38.5579532
  25.2449992  68.8589978  20.7960014  25.3099992  68.0649978  21.3260014
  25.8979992  68.7409978  20.1060014  25.3421605  68.7343430  20.7752997
  27.5589992  68.4849978  38.0960014  27.2309992  68.7559978  37.2390014
  27.7109992  67.5439978  38.0080014  27.5346412  68.3949046  37.9667822
  30.5979992  69.9059978  20.5320014  30.3289992  70.0869978  21.4320014
  30.3909992  68.9809978  20.4000014  30.5331191  69.8057119  20.6375524
  33.2939992  68.4009978  35.4790014  34.0389992  68.9899978  35.3600014
  32.5369992  68.9829978  35.5430014  33.2935470  68.5602128  35.4713799
  21.7369992  65.7159978  38.0830014  22.1449992  64.8589978  37.9620014
  21.4759992  65.7299978  39.0040014  21.7576016  65.6005119  38.1909192
  26.3949992  66.8319978  23.1020014  25.9349992  66.3479978  23.7870014
  26.6499992  66.1629978  22.4660014  26.3664856  66.6753669  23.1098397
  25.6839992  64.7249978  35.4580014  25.0649992  65.3989978  35.7380014
  26.0279992  65.0459978  34.6240014  25.6457123  64.8606887  35.3836388
  27.4659992  65.0749978  21.3640014  27.2849992  64.9199978  20.4370014
  28.4159992  65.1829978  21.4090014  27.5696566  65.0683669  21.2430929
  30.7029992  67.1959978  38.7350014  31.6569992  67.2799978  38.7080014
  30.5429992  66.4839978  39.3550014  30.8117182  67.1112842  38.8150733
  36.8559992  67.4289978  20.8100014  36.5819992  67.0049978  19.9970014
  36.8949992  68.3609978  20.5930014  36.8237716  67.4968827  20.6694286
  26.0229992  62.0799978  36.5400014  26.1729992  61.3509978  35.9380014
  26.0249992  62.8569978  35.9810014  26.0437967  62.0852708  36.3820541
  26.4359992  60.4489978  34.0330014  26.9709992  60.9009978  33.3810014
  25.5829992  60.3409978  33.6100014  26.3940374  60.4962665  33.8866710
  28.0169992  65.8889978  34.2720014  28.7679992  65.7329978  33.6990014
  27.6779992  66.7409978  33.9970014  28.0739587  65.9828138  34.1564078
  32.4329992  63.7039978  39.3010014  32.6249992  62.7729978  39.1890014
  33.2909992  64.1289978  39.2900014  32.5752182  63.6340070  39.2841862
  33.7499992  66.4929978  37.3780014  33.4679992  67.2019978  36.8000014
  34.6919992  66.4199978  37.2270014  33.8387921  66.5802193  37.2784225
  24.5019992  63.2779978  38.4510014  23.7339992  62.7449978  38.2410014
  25.1799992  62.9679978  37.8520014  24.4887235  63.1631754  38.3412413
  27.2409992  57.9059978  34.4640014  27.1429992  58.8519978  34.3590014
  26.4989992  57.5329978  33.9880014  27.1272534  57.9851773  34.3852600
  28.5049992  62.2269978  38.0280014  28.2699992  62.0079978  38.9290014
  27.7219992  62.0199978  37.5180014  28.3669095  62.1689892  38.0825353
  31.2209992  61.3549978  37.1030014  30.2729992  61.3869978  37.2350014
  31.5329992  60.7289978  37.7570014  31.1335293  61.2747923  37.2094148
  32.8549992  59.9889978  39.1080014  32.7579992  59.0369978  39.1030014
  32.5329992  60.2569978  39.9690014  32.7982468  59.8950884  39.2236210
  22.6819992  61.1979978  38.1560014  22.8939992  60.4919978  37.5460014
  22.5709992  60.7609978  39.0000014  22.6960269  61.0421921  38.1865873
  27.4629992  57.1999978  37.1350014  28.1749992  56.5599978  37.1210014
  27.3619992  57.4659978  36.2220014  27.5467387  57.1484330  37.0095563
  27.8169992  58.8819978  39.1890014  27.6849992  58.4069978  38.3690014
  27.2169992  59.6269978  39.1340014  27.7179070  58.9175789  39.0693251
  27.3629992  75.7649978  22.3650014  28.2959992  75.9229978  22.5090014
  27.0989992  76.4409978  21.7400014  27.4549911  75.8779373  22.3002722
  20.9309992  70.4019978  21.8480014  21.8449992  70.4809978  22.1210014
  20.9389992  69.7149978  21.1820014  21.0570655  70.3199205  21.7952917
  19.5799992  75.7949978  26.9250014  18.9329992  75.3329978  26.3930014
  19.9349992  75.1229978  27.5080014  19.5393741  75.6409774  26.9309175
  20.4499992  73.8749978  28.7300014  20.1159992  72.9949978  28.9020014
  20.6729992  74.2209978  29.5950014  20.4343721  73.8011938  28.8704168
  37.5619992  74.2519978  34.6320014  37.0749992  73.5169978  34.2610014
  38.1109992  73.8579978  35.3100014  37.5695247  74.0981057  34.6728461
  36.0129992  70.0419978  39.2710014  35.1469992  69.9369978  39.6650014
  36.3889992  70.7999978  39.7170014  35.9453401  70.1301708  39.3852620
  37.3139992  68.2979978  24.7850014  38.1639992  68.7189978  24.9120014
  37.3189992  67.5579978  25.3920014  37.4311143  68.2556094  24.8844750
  37.7079992  66.3519978  26.6080014  36.9819992  65.8719978  27.0060014
  38.2899992  66.5569978  27.3410014  37.6872730  66.3140184  26.7614149
  37.4669992  69.1369978  31.5560014  38.3009992  68.7589978  31.2750014
  37.5789992  70.0799978  31.4370014  37.5961917  69.2127943  31.5014861
  35.9539992  72.0149978  33.8630014  35.3059992  72.3399978  34.4880014
  35.4359992  71.5739978  33.1890014  35.7954196  71.9998651  33.8574152
  37.9769992  66.2529978  22.9990014  37.4549992  66.6089978  22.2810014
  37.9439992  66.9279978  23.6780014  37.9010129  66.3929598  22.9923355
  36.3259992  63.4919978  21.5500014  36.4219992  64.1589978  20.8700014
  36.1859992  62.6769978  21.0690014  36.3202040  63.4730671  21.3918378
  35.4949992  64.8729978  27.1710014  35.3449992  63.9279978  27.1510014
  35.1409992  65.1539978  28.0150014  35.4266351  64.7816644  27.2823220
  20.5299992  66.9509978  31.1820014  20.7149992  66.8689978  30.2460014
  21.3799992  66.8269978  31.6050014  20.6700928  66.9230463  31.1112893
  36.3509992  66.8429978  36.8100014  36.9339992  66.1079978  37.0020014
  36.9149992  67.6149978  36.8570014  36.5069781  66.8468145  36.8426164
  37.8479992  64.7459978  37.4950014  36.9849992  64.3669978  37.3290014
  38.4519992  64.0069978  37.4200014  37.8116085  64.5943223  37.4621695
  35.5729992  60.8999978  20.6680014  36.1839992  60.5289978  21.3050014
  34.7359992  60.4789978  20.8640014  35.5434947  60.7922756  20.7817252
  35.2059992  62.4549978  25.6340014  35.4849992  61.5479978  25.7580014
  35.9649992  62.8889978  25.2450014  35.3468619  62.3894502  25.5983795
  35.8169992  63.0369978  31.0700014  36.7499992  63.2489978  31.0350014
  35.5819992  63.1379978  31.9920014  35.9129517  63.0796833  31.1899130
  35.8469992  63.7739978  33.8460014  35.0039992  64.0419978  34.2120014
  36.2889992  64.5959978  33.6350014  35.7914138  63.9218273  33.8675518
  20.1279992  62.2209978  37.3220014  21.0469992  62.0989978  37.5590014
  19.6779992  61.4709978  37.7120014  20.1930087  62.1029608  37.4071410
  38.1299992  57.7539978  39.1990014  38.4789992  57.0999978  38.5940014
  38.2769992  58.5909978  38.7590014  38.1976824  57.7776024  39.0566304
  35.8189992  59.7179978  25.6820014  36.0009992  59.2689978  26.5070014
  35.2189992  59.1339978  25.2180014  35.7628187  59.5775552  25.7322739
  21.3489992  60.5339978  30.2140014  21.7939992  59.7419978  30.5160014
  21.8149992  61.2499978  30.6440014  21.4729718  60.5224534  30.3135265
  19.6529992  63.5329978  31.2830014  20.1449992  63.3119978  30.4920014
  20.0149992  64.3729978  31.5640014  19.7692923  63.6163468  31.2127407
  37.6489992  59.8629978  37.5480014  36.7319992  60.1339978  37.5130014
  37.7719992  59.3279978  36.7640014  37.5399672  59.8277885  37.4371862
  37.6859992  59.7859978  22.2100014  38.0979992  59.0649978  21.7350014
  38.3669992  60.4549978  22.2680014  37.8345536  59.7777766  22.1528024
  19.9669992  59.7909978  25.3370014  19.0419992  59.9989978  25.2080014
  20.4209992  60.2749978  24.6470014  19.9016298  59.8849299  25.2260451
  34.7369992  74.7749978  27.2830014  35.3899992  74.4269978  26.6750014
  35.2479992  75.2629978  27.9290014  34.8952777  74.7933815  27.2872047
  19.9299992  58.5289978  33.6810014  19.2649992  58.2829978  34.3240014
  19.4869992  59.1509978  33.1040014  19.7791168  58.5794214  33.6909848
  22.1219992  71.7039978  37.8260014  21.3009992  71.8789978  37.3650014
  21.8699992  71.6309978  38.7460014  21.9755594  71.7180717  37.8873611
  25.0759992  72.6779978  34.0840014  24.6519992  73.4879978  33.8020014
  25.9809992  72.7639978  33.7820014  25.1402138  72.8004160  34.0046415
  29.3879992  74.0769978  37.0440014  29.5719992  73.7439978  37.9220014
  30.2339992  74.3869978  36.7220014  29.5276484  74.0732979  37.1207617
  31.7329992  75.3629978  36.2880014  32.4099992  74.7299978  36.0480014
  32.0539992  75.7639978  37.0950014  31.8691323  75.3305691  36.3643158
  36.6499992  57.9529978  35.3670014  35.8369992  58.2779978  34.9800014
  36.8829992  57.1919978  34.8340014  36.5701347  57.8946880  35.2419841
  22.4779992  75.9349978  34.1320014  21.7579992  76.3749978  33.6810014
  22.1129992  75.6839978  34.9800014  22.3299643  75.9613369  34.1849129
  24.9449992  75.5349978  33.1620014  24.0809992  75.6069978  33.5660014
  24.8899992  76.0819978  32.3780014  24.8191942  75.6187849  33.1114000
  29.6559992  75.4229978  32.3370014  29.1989992  75.9519978  31.6830014
  29.8189992  76.0259978  33.0620014  29.6154960  75.5769280  32.3455274
  31.9839992  74.3009978  33.2820014  31.0789992  74.4659978  33.0160014
  32.4119992  75.1539978  33.2160014  31.9181537  74.4389134  33.2367095
  34.5879992  75.8709978  33.5770014  34.4059992  76.7869978  33.3660014
  34.7649992  75.4599978  32.7300014  34.5870030  75.9408273  33.4337166
  21.8929992  74.5579978  31.0420014  21.8749992  74.1319978  31.8990014
  22.6979992  74.2389978  30.6330014  21.9992875  74.4566435  31.1039515
  24.0339992  73.2679978  29.6970014  23.8149992  72.3509978  29.8670014
  24.8579992  73.4079978  30.1630014  24.1154702  73.1615511  29.7832527
  26.5709992  73.7379978  30.5460014  26.7839992  72.8499978  30.2590014
  26.6359992  73.7029978  31.5000014  26.6089149  73.6118326  30.6357369
  30.0799992  59.4019978  29.6900014  29.4059992  58.7719978  29.9460014
  30.6439992  58.9179978  29.0870014  30.0640384  59.2503708  29.6435020
  35.2229992  57.5089978  29.8030014  35.8259992  58.0569978  29.3010014
  34.3529992  57.8279978  29.5620014  35.1879157  57.6270373  29.7017910
  36.9499992  58.6479978  28.1360014  37.5609992  58.1339978  27.6090014
  37.3319992  59.5249978  28.1590014  37.0853305  58.6962050  28.0669418
  22.4069992  58.0359978  27.5120014  21.6299992  57.8009978  27.0050014
  22.9369992  57.2389978  27.5210014  22.3723451  57.8961268  27.4438627
  21.2429992  57.8339978  23.3160014  21.6819992  58.4449978  22.7240014
  20.6089992  58.3719978  23.7900014  21.2173859  57.9904064  23.2990305
  26.9859992  57.9619978  27.3250014  27.8599992  58.3509978  27.2960014
  26.8499992  57.7469978  28.2480014  27.0871953  57.9861643  27.4457617
  32.5429992  57.9919978  28.9750014  32.6189992  58.0879978  28.0250014
  32.2679992  57.0849978  29.1030014  32.5161871  57.8824146  28.8623944
  33.8959992  58.0179978  24.6670014  33.1929992  58.6329978  24.4570014
  33.4509992  57.1809978  24.7980014  33.7396550  57.9889668  24.6559837
  21.1439992  73.7819978  24.2130014  20.4589992  73.7439978  23.5460014
  21.1479992  74.6949978  24.5010014  21.0507621  73.9001924  24.1606126
  23.1039992  59.7499978  21.7580014  23.5949992  59.1199978  21.2310014
  23.7269992  60.0459978  22.4210014  23.2555304  59.7037376  21.7754940
  28.1299992  60.0429978  24.2150014  28.3079992  59.3959978  24.8980014
  28.0759992  60.8769978  24.6820014  28.1470678  60.0671604  24.3716301
  30.0079992  74.9909978  22.6110014  30.8739992  75.3579978  22.4330014
  29.7619992  74.5519978  21.7970014  30.0932097  74.9818525  22.4766019
  36.7169992  74.5539978  25.2900014  36.5229992  73.8059978  24.7250014
  36.6779992  75.3119978  24.7070014  36.6851645  74.5540786  25.1338148
  22.3639992  58.5499978  37.0300014  21.9979992  57.7839978  37.4720014
  23.2769992  58.5789978  37.3160014  22.4373172  58.4490324  37.1291890
  24.3369992  57.8999978  38.5650014  25.2359992  57.6259978  38.3810014
  23.9509992  57.1579978  39.0300014  24.4077307  57.7622196  38.6027098
  22.9619992  74.7019978  21.2380014  22.6939992  74.9879978  22.1120014
  23.7329992  74.1559978  21.3910014  23.0295927  74.6672779  21.3781205
  32.7589992  57.2329978  38.7480014  32.8349992  56.8069978  39.6010014
  33.6519992  57.2459978  38.4050014  32.8902303  57.1763493  38.8185497
  35.9349992  73.3059978  37.4400014  35.1529992  73.1189978  36.9200014
  35.8629992  74.2349978  37.6570014  35.8181924  73.4060637  37.3981602
  41.6419992  66.0609978  32.4830014  41.6839992  65.4359978  33.2060014
  42.3449992  66.6849978  32.6650014  41.7427345  66.0597873  32.6065274
  42.5659992  70.5109978  31.0180014  42.1959992  69.7089978  30.6480014
  43.5069992  70.3429978  31.0640014  42.6425984  70.3784638  30.9735603
  39.1759992  64.1709978  26.4100014  38.7279992  65.0169978  26.3920014
  38.6149992  63.5919978  25.8950014  39.0388546  64.2083993  26.3378891
  39.8859992  66.3329978  28.5360014  40.0999992  65.5629978  29.0640014
  40.6239992  66.4229978  27.9330014  40.0150200  66.2398587  28.5267035
  56.3259992  60.4809978  32.1560014  56.3759992  61.0909978  32.8920014
  56.7519992  60.9419978  31.4330014  56.3904108  60.6267709  32.1590112
  50.8039992  63.2729978  31.6230014  50.9469992  62.3269978  31.6430014
  50.6979992  63.4799978  30.6950014  50.8092403  63.1714797  31.5002239
  43.9589992  61.3749978  28.8960014  44.0019992  62.2349978  28.4770014
  43.5009992  60.8229978  28.2620014  43.9029871  61.4179245  28.7530761
  51.6809992  61.5059978  27.2970014  52.3279992  61.1769978  27.9210014
  52.1909992  62.0229978  26.6740014  51.8384351  61.5309067  27.2981037
  40.5789992  63.7719978  29.6580014  41.2329992  63.2219978  30.0900014
  40.6029992  63.4979978  28.7410014  40.6717199  63.6597167  29.5931668
  45.7359992  65.3219978  28.8730014  46.3519992  64.7949978  29.3820014
  45.1489992  64.6819978  28.4690014  45.7410154  65.1633954  28.8880945
  56.7179992  61.9589978  34.3920014  56.0289992  62.6169978  34.2970014
  56.7329992  61.7609978  35.3290014  56.6257756  62.0222603  34.5055812
  42.7689992  60.2929978  32.9700014  42.5499992  60.8229978  32.2030014
  42.1009992  60.5189978  33.6170014  42.6486975  60.3960967  32.9525140
  50.1379992  69.7929978  26.5140014  49.8429992  69.4699978  25.6620014
  49.8139992  70.6929978  26.5550014  50.0538460  69.8704464  26.4029714
  45.3379992  67.9679978  33.2570014  44.5979992  68.5669978  33.3610014
  46.0519992  68.5219978  32.9420014  45.3333500  68.1247829  33.2286371
  53.4449992  60.7969978  29.2770014  53.2299992  60.0309978  29.8100014
  54.1009992  61.2689978  29.7900014  53.5042673  60.7560728  29.4191990
  42.3629992  62.1849978  30.9220014  42.9769992  62.8179978  31.2950014
  42.8749992  61.7129978  30.2660014  42.5161962  62.2077249  30.8842935
  39.8669992  69.6039978  24.8260014  39.5949992  69.8329978  23.9380014
  39.9119992  70.4409978  25.2870014  39.8358097  69.7486163  24.7666683
  53.7919992  59.5119978  32.9560014  53.0559992  60.1219978  32.9190014
  54.4759992  59.9269978  32.4300014  53.7835367  59.6517551  32.8798174
  46.7959992  57.5979978  30.4220014  46.6779992  56.6499978  30.3680014
  45.9409992  57.9309978  30.6950014  46.6642805  57.5132202  30.4515079
  49.0619992  66.4359978  24.9230014  48.3509992  66.9709978  24.5710014
  49.7529992  66.4909978  24.2630014  49.0580751  66.5166777  24.7855858
  49.1159992  64.8929978  21.9610014  49.8169992  64.9159978  22.6130014
  49.4179992  64.2649978  21.3050014  49.2528202  64.8112212  21.9615609
  52.4679992  66.6449978  25.8740014  51.7359992  66.8739978  26.4480014
  52.9149992  65.9319978  26.3290014  52.4283963  66.5798729  26.0139945
  52.3649992  64.8199978  34.9420014  52.4449992  65.5829978  35.5140014
  51.7639992  65.0989978  34.2520014  52.2946547  64.9622457  34.9270047
  44.1129992  67.2759978  27.7570014  43.7829992  66.9049978  26.9390014
  44.7019992  66.6049978  28.1040014  44.1473970  67.1346063  27.6919404
  44.4799992  66.0439978  31.3900014  45.0449992  66.1659978  30.6280014
  44.7989992  66.6819978  32.0290014  44.6004166  66.1468791  31.3720348
  51.3389992  65.8079978  23.5600014  51.9179992  65.9579978  24.3060014
  51.7529992  66.2779978  22.8360014  51.4743358  65.8920954  23.5643953
  42.2799992  66.6419978  35.3360014  42.3499992  67.2929978  36.0350014
  41.3889992  66.7449978  35.0010014  42.1691690  66.7449249  35.3863043
  55.0379992  57.5579978  23.3730014  54.1379992  57.6969978  23.6680014
  55.2899992  58.3889978  22.9710014  54.9488683  57.6894055  23.3590232
  43.1039992  66.3449978  25.3460014  42.8119992  67.1129978  24.8550014
  42.4289992  65.6859978  25.1830014  42.9728497  66.3609745  25.2568260
  39.1969992  68.7079978  34.1610014  38.6949992  68.6799978  33.3460014
  39.2019992  67.8029978  34.4710014  39.1289832  68.5817486  34.0914121
  38.9469992  71.4889978  31.0450014  39.8929992  71.3439978  31.0260014
  38.8339992  72.2729978  31.5820014  39.0613578  71.5751697  31.1150317
  48.5379992  75.5009978  25.4100014  48.4619992  75.3799978  24.4630014
  48.5699992  76.4499978  25.5280014  48.5319380  75.6127677  25.2965181
  42.1909992  74.2899978  27.1910014  42.3429992  73.9419978  28.0690014
  41.3399992  73.9329978  26.9350014  42.0968344  74.1940879  27.2766868
  54.2969992  63.6479978  37.2080014  53.8889992  64.1279978  36.4870014
  54.3369992  62.7419978  36.9000014  54.2466221  63.5912449  37.0678267
  44.0639992  58.5019978  31.2000014  43.2029992  58.4149978  30.7920014
  44.0419992  59.3579978  31.6280014  43.9430491  58.6058003  31.2019582
  48.7269992  58.2239978  34.5750014  49.1469992  57.8089978  35.3280014
  47.7939992  58.0449978  34.6920014  48.6583736  58.1429910  34.6938968
  52.0539992  61.9789978  35.4280014  51.5399992  61.8539978  36.2260014
  51.8979992  62.8919978  35.1840014  51.9626967  62.0852123  35.5040937
  52.8159992  66.8399978  21.1890014  52.8579992  66.6179978  20.2590014
  53.6649992  67.2389978  21.3790014  52.9365253  66.8635498  21.0873822
  48.3889992  60.7159978  21.8600014  48.1349992  60.7349978  22.7820014
  48.1319992  59.8449978  21.5580014  48.3194508  60.6008280  21.9454803
  44.1549992  63.4669978  32.2950014  43.5139992  63.4269978  33.0040014
  44.1929992  64.3939978  32.0570014  44.0723010  63.5867668  32.3599946
  44.1519992  63.6879978  27.2070014  43.2599992  63.3479978  27.1480014
  44.6029992  63.3109978  26.4510014  44.0907642  63.5904910  27.0967726
  49.6879992  64.1039978  26.0240014  49.2789992  64.9189978  25.7320014
  50.4079992  63.9639978  25.4100014  49.7294439  64.1965372  25.9010115
  48.7899992  64.2799978  37.5120014  48.2269992  63.5749978  37.8330014
  49.6159992  64.1589978  37.9800014  48.8246674  64.1672165  37.6191751
  50.6929992  63.5499978  28.8380014  50.4969992  64.1559978  28.1230014
  50.8739992  62.7169978  28.4040014  50.6906584  63.5202513  28.6814212
  41.9049992  63.7879978  34.1620014  41.8669992  64.1879978  35.0310014
  41.4149992  62.9709978  34.2520014  41.8335330  63.7322674  34.2931289
  45.2709992  61.1619978  20.9610014  44.8399992  60.7169978  21.6900014
  44.5529992  61.5329978  20.4480014  45.1149176  61.1512051  20.9914930
  38.5139992  60.9039978  28.0130014  39.1439992  60.8749978  28.7320014
  38.9629992  60.4789978  27.2820014  38.6610835  60.8425660  28.0127659
  39.7879992  61.6499978  23.4370014  40.2619992  62.2409978  22.8520014
  39.0699992  62.1799978  23.7840014  39.7558640  61.8025511  23.4037969
  49.9569992  65.1879978  33.5090014  50.2799992  64.5569978  32.8660014
  49.5159992  64.6539978  34.1700014  49.9416379  65.0293468  33.5102582
  46.7339992  61.1159978  28.2930014  45.8229992  61.1729978  28.5820014
  47.2389992  61.0559978  29.1040014  46.6776873  61.1156826  28.4421207
  41.5619992  62.7449978  27.1200014  40.6729992  62.8439978  26.7800014
  41.8589992  61.9029978  26.7740014  41.4804177  62.6447687  27.0266940
  45.2149992  62.7449978  24.7770014  46.1469992  62.8739978  24.9550014
  44.9999992  63.4139978  24.1270014  45.3134472  62.8530806  24.7134891
  51.1389992  60.3509978  31.5580014  50.4619992  60.4819978  32.2210014
  50.6539992  60.1959978  30.7470014  50.9807405  60.3479947  31.5392170
  43.8889992  63.9389978  22.3430014  43.3469992  63.5599978  21.6520014
  44.7229992  64.1339978  21.9150014  43.9274390  63.9134079  22.1904392
  48.0539992  63.9029978  30.1800014  48.6179992  63.3569978  29.6330014
  47.9059992  63.3819978  30.9690014  48.1113037  63.7576787  30.2117229
  43.0559992  60.0399978  26.5990014  42.7389992  59.1369978  26.5630014
  43.8369992  60.0419978  26.0460014  43.1182431  59.9167797  26.5193102
  46.6799992  62.2919978  32.5940014  45.8449992  62.7459978  32.7050014
  47.2039992  62.5679978  33.3460014  46.6366072  62.3913948  32.7108136
  47.2249992  68.5049978  24.2790014  46.4799992  67.9969978  23.9570014
  47.0899992  68.5539978  25.2250014  47.1048963  68.4421731  24.3628826
  54.3749992  67.6379978  33.0660014  55.0159992  68.0939978  32.5220014
  53.5439992  67.7509978  32.6030014  54.3505287  67.7156921  32.9289887
  51.1219992  61.3189978  22.4780014  50.1839992  61.4299978  22.3270014
  51.4199992  62.1749978  22.7850014  51.0336318  61.4500158  22.4988145
  51.8409992  63.1859978  24.1390014  52.7329992  63.0479978  24.4580014
  51.8969992  63.9769978  23.6020014  51.9707325  63.2739918  24.1101217
  42.3489992  67.7999978  30.0490014  43.0939992  67.7969978  29.4470014
  42.4269992  66.9759978  30.5300014  42.4613365  67.6882384  30.0317430
  49.3499992  69.9629978  23.3040014  49.0549992  70.7899978  23.6860014
  48.6469992  69.3439978  23.5010014  49.2146379  69.9924171  23.3828654
  39.3569992  66.2599978  35.3640014  39.5799992  65.8419978  36.1950014
  38.7549992  65.6479978  34.9410014  39.3061513  66.1199606  35.4206740
  46.3739992  65.7769978  37.5770014  46.0779992  65.6119978  36.6810014
  47.3049992  65.5569978  37.5660014  46.4594401  65.7246879  37.4530206
  56.7259992  63.3949978  23.8340014  56.1709992  62.9989978  23.1610014
  56.8259992  64.3059978  23.5560014  56.6636816  63.4639505  23.7045033
  40.4789992  66.1799978  22.0400014  41.0949992  66.8069978  22.4200014
  39.6169992  66.4959978  22.3120014  40.4467678  66.3084412  22.1287209
  46.1519992  68.9809978  27.0290014  45.9109992  69.9059978  27.0710014
  45.4109992  68.5219978  27.4260014  46.0189206  69.0455915  27.0883769
  44.8349992  74.0019978  26.5750014  43.8849992  74.1079978  26.6260014
  45.1869992  74.8229978  26.9190014  44.7525472  74.1274923  26.6284852
  52.4129992  70.1579978  22.1190014  52.7669992  69.7779978  22.9230014
  51.4649992  70.0639978  22.2060014  52.3332298  70.0932452  22.2408687
  40.9909992  61.0139978  34.9220014  40.0989992  61.3519978  34.8540014
  40.8929992  60.1579978  35.3400014  40.8554475  60.9446543  34.9691704
  53.2789992  68.8299978  24.3460014  53.0019992  68.1019978  24.9020014
  54.2069992  68.9489978  24.5510014  53.3664499  68.7464213  24.4498044
  46.5039992  71.2699978  20.5660014  46.7429992  70.5209978  20.0190014
  46.2349992  70.8819978  21.3990014  46.5003233  71.1151853  20.6037809
  45.4409992  70.8399978  23.0220014  45.5879992  70.3199978  23.8120014
  45.4379992  71.7469978  23.3290014  45.4607102  70.8913953  23.1715925
  41.8939992  68.0919978  23.5330014  41.2079992  68.4449978  24.1000014
  42.4169992  68.8549978  23.2860014  41.8708402  68.2433901  23.5771801
  49.7259992  60.7549978  33.8120014  50.4249992  60.8289978  34.4620014
  49.3449992  59.8899978  33.9660014  49.7702097  60.6482389  33.9217997
  50.5099992  60.4069978  24.9090014  50.7299992  60.8779978  24.1050014
  51.0689992  60.8009978  25.5790014  50.6156731  60.5247287  24.8895033
  47.7099992  62.1349978  25.7440014  48.5219992  62.6389978  25.7900014
  47.4659992  61.9899978  26.6580014  47.7881467  62.1843749  25.8738575
  48.2459992  63.1209978  34.9280014  48.3649992  63.6949978  35.6850014
  48.9009992  62.4329978  35.0430014  48.3508684  63.1065194  35.0471674
  48.5939992  59.2159978  26.6820014  48.2469992  59.8329978  27.3260014
  49.2529992  59.7169978  26.2000014  48.6355090  59.3681575  26.7050681
  45.5169992  73.5809978  23.7530014  45.6779992  74.3809978  23.2530014
  45.3199992  73.8879978  24.6380014  45.5123906  73.7318678  23.8042333
  44.2519992  60.2789978  23.3690014  44.1679992  61.1669978  23.7160014
  45.1419992  60.0139978  23.6010014  44.3608163  60.3647179  23.4478596
  54.4499992  61.0279978  35.7630014  53.5339992  61.2899978  35.6760014
  54.7859992  61.0249978  34.8670014  54.3698499  61.0635163  35.6298766
  53.0529992  64.7779978  29.8590014  52.2549992  64.3629978  29.5310014
  53.4979992  64.0879978  30.3500014  53.0039684  64.6278628  29.8805227
  42.5099992  70.7059978  22.4290014  43.1019992  71.4059978  22.7060014
  42.9689992  70.2729978  21.7100014  42.6531652  70.7432675  22.3696533
  40.8259992  63.3709978  21.5450014  40.7809992  64.3099978  21.7240014
  39.9379992  63.1349978  21.2760014  40.6998166  63.4676687  21.5331524
  41.6339992  58.1519978  30.2190014  41.4049992  58.2109978  29.2910014
  41.1919992  57.3609978  30.5250014  41.5428801  58.0530540  30.1334729
  40.5649992  72.0929978  26.3790014  39.7319992  72.5649978  26.4060014
  41.1099992  72.6029978  25.7800014  40.5247857  72.2264791  26.3017142
  48.5419992  73.1329978  20.7050014  47.8979992  72.5019978  21.0260014
  49.3039992  72.6019978  20.4730014  48.5568058  72.9747902  20.7176038
  39.7599992  68.5159978  38.6630014  39.9039992  67.6139978  38.3770014
  38.9879992  68.8019978  38.1760014  39.6752733  68.4311798  38.5579532
  44.1009992  68.8589978  20.7960014  44.1659992  68.0649978  21.3260014
  44.7539992  68.7409978  20.1060014  44.1981605  68.7343430  20.7752997
  49.4539992  69.9059978  20.5320014  49.1849992  70.0869978  21.4320014
  49.2469992  68.9809978  20.4000014  49.3891191  69.8057119  20.6375524
  40.5929992  65.7159978  38.0830014  41.0009992  64.8589978  37.9620014
  40.3319992  65.7299978  39.0040014  40.6136016  65.6005119  38.1909192
  45.2509992  66.8319978  23.1020014  44.7909992  66.3479978  23.7870014
  45.5059992  66.1629978  22.4660014  45.2224856  66.6753669  23.1098397
  44.5399992  64.7249978  35.4580014  43.9209992  65.3989978  35.7380014
  44.8839992  65.0459978  34.6240014  44.5017123  64.8606887  35.3836388
  46.3219992  65.0749978  21.3640014  46.1409992  64.9199978  20.4370014
  47.2719992  65.1829978  21.4090014  46.4256566  65.0683669  21.2430929
  44.8789992  62.0799978  36.5400014  45.0289992  61.3509978  35.9380014
  44.8809992  62.8569978  35.9810014  44.8997967  62.0852708  36.3820541
  45.2919992  60.4489978  34.0330014  45.8269992  60.9009978  33.3810014
  44.4389992  60.3409978  33.6100014  45.2500374  60.4962665  33.8866710
  51.2889992  63.7039978  39.3010014  51.4809992  62.7729978  39.1890014
  52.1469992  64.1289978  39.2900014  51.4312182  63.6340070  39.2841862
  43.3579992  63.2779978  38.4510014  42.5899992  62.7449978  38.2410014
  44.0359992  62.9679978  37.8520014  43.3447235  63.1631754  38.3412413
  46.0969992  57.9059978  34.4640014  45.9989992  58.8519978  34.3590014
  45.3549992  57.5329978  33.9880014  45.9832534  57.9851773  34.3852600
  47.3609992  62.2269978  38.0280014  47.1259992  62.0079978  38.9290014
  46.5779992  62.0199978  37.5180014  47.2229095  62.1689892  38.0825353
  50.0769992  61.3549978  37.1030014  49.1289992  61.3869978  37.2350014
  50.3889992  60.7289978  37.7570014  49.9895293  61.2747923  37.2094148
  51.7109992  59.9889978  39.1080014  51.6139992  59.0369978  39.1030014
  51.3889992  60.2569978  39.9690014  51.6542468  59.8950884  39.2236210
  41.5379992  61.1979978  38.1560014  41.7499992  60.4919978  37.5460014
  41.4269992  60.7609978  39.0000014  41.5520269  61.0421921  38.1865873
  46.3189992  57.1999978  37.1350014  47.0309992  56.5599978  37.1210014
  46.2179992  57.4659978  36.2220014  46.4027387  57.1484330  37.0095563
  46.6729992  58.8819978  39.1890014  46.5409992  58.4069978  38.3690014
  46.0729992  59.6269978  39.1340014  46.5739070  58.9175789  39.0693251
  46.2189992  75.7649978  22.3650014  47.1519992  75.9229978  22.5090014
  45.9549992  76.4409978  21.7400014  46.3109911  75.8779373  22.3002722
  39.7869992  70.4019978  21.8480014  40.7009992  70.4809978  22.1210014
  39.7949992  69.7149978  21.1820014  39.9130655  70.3199205  21.7952917
  38.4359992  75.7949978  26.9250014  37.7889992  75.3329978  26.3930014
  38.7909992  75.1229978  27.5080014  38.3953741  75.6409774  26.9309175
  56.1699992  68.2979978  24.7850014  57.0199992  68.7189978  24.9120014
  56.1749992  67.5579978  25.3920014  56.2871143  68.2556094  24.8844750
  56.5639992  66.3519978  26.6080014  55.8379992  65.8719978  27.0060014
  57.1459992  66.5569978  27.3410014  56.5432730  66.3140184  26.7614149
  56.3229992  69.1369978  31.5560014  57.1569992  68.7589978  31.2750014
  56.4349992  70.0799978  31.4370014  56.4521917  69.2127943  31.5014861
  56.8329992  66.2529978  22.9990014  56.3109992  66.6089978  22.2810014
  56.7999992  66.9279978  23.6780014  56.7570129  66.3929598  22.9923355
  55.1819992  63.4919978  21.5500014  55.2779992  64.1589978  20.8700014
  55.0419992  62.6769978  21.0690014  55.1762040  63.4730671  21.3918378
  54.3509992  64.8729978  27.1710014  54.2009992  63.9279978  27.1510014
  53.9969992  65.1539978  28.0150014  54.2826351  64.7816644  27.2823220
  39.3859992  66.9509978  31.1820014  39.5709992  66.8689978  30.2460014
  40.2359992  66.8269978  31.6050014  39.5260928  66.9230463  31.1112893
  54.4289992  60.8999978  20.6680014  55.0399992  60.5289978  21.3050014
  53.5919992  60.4789978  20.8640014  54.3994947  60.7922756  20.7817252
  54.0619992  62.4549978  25.6340014  54.3409992  61.5479978  25.7580014
  54.8209992  62.8889978  25.2450014  54.2028619  62.3894502  25.5983795
  54.6729992  63.0369978  31.0700014  55.6059992  63.2489978  31.0350014
  54.4379992  63.1379978  31.9920014  54.7689517  63.0796833  31.1899130
  54.7029992  63.7739978  33.8460014  53.8599992  64.0419978  34.2120014
  55.1449992  64.5959978  33.6350014  54.6474138  63.9218273  33.8675518
  38.9839992  62.2209978  37.3220014  39.9029992  62.0989978  37.5590014
  38.5339992  61.4709978  37.7120014  39.0490087  62.1029608  37.4071410
  56.9859992  57.7539978  39.1990014  57.3349992  57.0999978  38.5940014
  57.1329992  58.5909978  38.7590014  57.0536824  57.7776024  39.0566304
  54.6749992  59.7179978  25.6820014  54.8569992  59.2689978  26.5070014
  54.0749992  59.1339978  25.2180014  54.6188187  59.5775552  25.7322739
  40.2049992  60.5339978  30.2140014  40.6499992  59.7419978  30.5160014
  40.6709992  61.2499978  30.6440014  40.3289718  60.5224534  30.3135265
  38.5089992  63.5329978  31.2830014  39.0009992  63.3119978  30.4920014
  38.8709992  64.3729978  31.5640014  38.6252923  63.6163468  31.2127407
  56.5049992  59.8629978  37.5480014  55.5879992  60.1339978  37.5130014
  56.6279992  59.3279978  36.7640014  56.3959672  59.8277885  37.4371862
  56.5419992  59.7859978  22.2100014  56.9539992  59.0649978  21.7350014
  57.2229992  60.4549978  22.2680014  56.6905536  59.7777766  22.1528024
  38.8229992  59.7909978  25.3370014  37.8979992  59.9989978  25.2080014
  39.2769992  60.2749978  24.6470014  38.7576298  59.8849299  25.2260451
  38.7859992  58.5289978  33.6810014  38.1209992  58.2829978  34.3240014
  38.3429992  59.1509978  33.1040014  38.6351168  58.5794214  33.6909848
  55.5059992  57.9529978  35.3670014  54.6929992  58.2779978  34.9800014
  55.7389992  57.1919978  34.8340014  55.4261347  57.8946880  35.2419841
  48.9359992  59.4019978  29.6900014  48.2619992  58.7719978  29.9460014
  49.4999992  58.9179978  29.0870014  48.9200384  59.2503708  29.6435020
  54.0789992  57.5089978  29.8030014  54.6819992  58.0569978  29.3010014
  53.2089992  57.8279978  29.5620014  54.0439157  57.6270373  29.7017910
  55.8059992  58.6479978  28.1360014  56.4169992  58.1339978  27.6090014
  56.1879992  59.5249978  28.1590014  55.9413305  58.6962050  28.0669418
  41.2629992  58.0359978  27.5120014  40.4859992  57.8009978  27.0050014
  41.7929992  57.2389978  27.5210014  41.2283451  57.8961268  27.4438627
  40.0989992  57.8339978  23.3160014  40.5379992  58.4449978  22.7240014
  39.4649992  58.3719978  23.7900014  40.0733859  57.9904064  23.2990305
  45.8419992  57.9619978  27.3250014  46.7159992  58.3509978  27.2960014
  45.7059992  57.7469978  28.2480014  45.9431953  57.9861643  27.4457617
  51.3989992  57.9919978  28.9750014  51.4749992  58.0879978  28.0250014
  51.1239992  57.0849978  29.1030014  51.3721871  57.8824146  28.8623944
  52.7519992  58.0179978  24.6670014  52.0489992  58.6329978  24.4570014
  52.3069992  57.1809978  24.7980014  52.5956550  57.9889668  24.6559837
  39.9999992  73.7819978  24.2130014  39.3149992  73.7439978  23.5460014
  40.0039992  74.6949978  24.5010014  39.9067621  73.9001924  24.1606126
  41.9599992  59.7499978  21.7580014  42.4509992  59.1199978  21.2310014
  42.5829992  60.0459978  22.4210014  42.1115304  59.7037376  21.7754940
  46.9859992  60.0429978  24.2150014  47.1639992  59.3959978  24.8980014
  46.9319992  60.8769978  24.6820014  47.0030678  60.0671604  24.3716301
  48.8639992  74.9909978  22.6110014  49.7299992  75.3579978  22.4330014
  48.6179992  74.5519978  21.7970014  48.9492097  74.9818525  22.4766019
  41.2199992  58.5499978  37.0300014  40.8539992  57.7839978  37.4720014
  42.1329992  58.5789978  37.3160014  41.2933172  58.4490324  37.1291890
  43.1929992  57.8999978  38.5650014  44.0919992  57.6259978  38.3810014
  42.8069992  57.1579978  39.0300014  43.2637307  57.7622196  38.6027098
  41.8179992  74.7019978  21.2380014  41.5499992  74.9879978  22.1120014
  42.5889992  74.1559978  21.3910014  41.8855927  74.6672779  21.3781205
  51.6149992  57.2329978  38.7480014  51.6909992  56.8069978  39.6010014
  52.5079992  57.2459978  38.4050014  51.7462303  57.1763493  38.8185497
  68.1299992  66.4469978  30.8900014  68.0919992  65.8009978  31.5950014
  67.8079992  65.9799978  30.1190014  68.0812679  66.2954276  30.8822921
  60.4979992  66.0609978  32.4830014  60.5399992  65.4359978  33.2060014
  61.2009992  66.6849978  32.6650014  60.5987345  66.0597873  32.6065274
  58.0319992  64.1709978  26.4100014  57.5839992  65.0169978  26.3920014
  57.4709992  63.5919978  25.8950014  57.8948546  64.2083993  26.3378891
  58.7419992  66.3329978  28.5360014  58.9559992  65.5629978  29.0640014
  59.4799992  66.4229978  27.9330014  58.8710200  66.2398587  28.5267035
  75.1819992  60.4809978  32.1560014  75.2319992  61.0909978  32.8920014
  75.6079992  60.9419978  31.4330014  75.2464108  60.6267709  32.1590112
  69.6599992  63.2729978  31.6230014  69.8029992  62.3269978  31.6430014
  69.5539992  63.4799978  30.6950014  69.6652403  63.1714797  31.5002239
  62.8149992  61.3749978  28.8960014  62.8579992  62.2349978  28.4770014
  62.3569992  60.8229978  28.2620014  62.7589871  61.4179245  28.7530761
  70.5369992  61.5059978  27.2970014  71.1839992  61.1769978  27.9210014
  71.0469992  62.0229978  26.6740014  70.6944351  61.5309067  27.2981037
  59.4349992  63.7719978  29.6580014  60.0889992  63.2219978  30.0900014
  59.4589992  63.4979978  28.7410014  59.5277199  63.6597167  29.5931668
  75.5739992  61.9589978  34.3920014  74.8849992  62.6169978  34.2970014
  75.5889992  61.7609978  35.3290014  75.4817756  62.0222603  34.5055812
  61.6249992  60.2929978  32.9700014  61.4059992  60.8229978  32.2030014
  60.9569992  60.5189978  33.6170014  61.5046975  60.3960967  32.9525140
  72.3009992  60.7969978  29.2770014  72.0859992  60.0309978  29.8100014
  72.9569992  61.2689978  29.7900014  72.3602673  60.7560728  29.4191990
  61.2189992  62.1849978  30.9220014  61.8329992  62.8179978  31.2950014
  61.7309992  61.7129978  30.2660014  61.3721962  62.2077249  30.8842935
  72.6479992  59.5119978  32.9560014  71.9119992  60.1219978  32.9190014
  73.3319992  59.9269978  32.4300014  72.6395367  59.6517551  32.8798174
  65.6519992  57.5979978  30.4220014  65.5339992  56.6499978  30.3680014
  64.7969992  57.9309978  30.6950014  65.5202805  57.5132202  30.4515079
  73.4459992  69.4739978  35.1500014  73.5849992  68.8819978  34.4110014
  73.6129992  70.3469978  34.7940014  73.4876193  69.5108896  35.0006211
  67.9719992  64.8929978  21.9610014  68.6729992  64.9159978  22.6130014
  68.2739992  64.2649978  21.3050014  68.1088202  64.8112212  21.9615609
  75.2869992  65.8139978  33.2160014  74.6349992  66.5079978  33.3050014
  75.7529992  66.0239978  32.4060014  75.2605937  65.9375019  33.1187533
  71.2209992  64.8199978  34.9420014  71.3009992  65.5829978  35.5140014
  70.6199992  65.0989978  34.2520014  71.1506547  64.9622457  34.9270047
  70.1949992  65.8079978  23.5600014  70.7739992  65.9579978  24.3060014
  70.6089992  66.2779978  22.8360014  70.3303358  65.8920954  23.5643953
  73.8939992  57.5579978  23.3730014  72.9939992  57.6969978  23.6680014
  74.1459992  58.3889978  22.9710014  73.8048683  57.6894055  23.3590232
  75.0829992  71.9239978  21.7490014  75.1559992  72.8629978  21.9190014
  75.9879992  71.6189978  21.6930014  75.2154170  72.0113282  21.7647063
  73.1529992  63.6479978  37.2080014  72.7449992  64.1279978  36.4870014
  73.1929992  62.7419978  36.9000014  73.1026221  63.5912449  37.0678267
  62.9199992  58.5019978  31.2000014  62.0589992  58.4149978  30.7920014
  62.8979992  59.3579978  31.6280014  62.7990491  58.6058003  31.2019582
  67.5829992  58.2239978  34.5750014  68.0029992  57.8089978  35.3280014
  66.6499992  58.0449978  34.6920014  67.5143736  58.1429910  34.6938968
  70.9099992  61.9789978  35.4280014  70.3959992  61.8539978  36.2260014
  70.7539992  62.8919978  35.1840014  70.8186967  62.0852123  35.5040937
  71.6719992  66.8399978  21.1890014  71.7139992  66.6179978  20.2590014
  72.5209992  67.2389978  21.3790014  71.7925253  66.8635498  21.0873822
  67.2449992  60.7159978  21.8600014  66.9909992  60.7349978  22.7820014
  66.9879992  59.8449978  21.5580014  67.1754508  60.6008280  21.9454803
  68.5439992  64.1039978  26.0240014  68.1349992  64.9189978  25.7320014
  69.2639992  63.9639978  25.4100014  68.5854439  64.1965372  25.9010115
  67.6459992  64.2799978  37.5120014  67.0829992  63.5749978  37.8330014
  68.4719992  64.1589978  37.9800014  67.6806674  64.1672165  37.6191751
  69.5489992  63.5499978  28.8380014  69.3529992  64.1559978  28.1230014
  69.7299992  62.7169978  28.4040014  69.5466584  63.5202513  28.6814212
  60.7609992  63.7879978  34.1620014  60.7229992  64.1879978  35.0310014
  60.2709992  62.9709978  34.2520014  60.6895330  63.7322674  34.2931289
  64.1269992  61.1619978  20.9610014  63.6959992  60.7169978  21.6900014
  63.4089992  61.5329978  20.4480014  63.9709176  61.1512051  20.9914930
  57.3699992  60.9039978  28.0130014  57.9999992  60.8749978  28.7320014
  57.8189992  60.4789978  27.2820014  57.5170835  60.8425660  28.0127659
  58.6439992  61.6499978  23.4370014  59.1179992  62.2409978  22.8520014
  57.9259992  62.1799978  23.7840014  58.6118640  61.8025511  23.4037969
  65.5899992  61.1159978  28.2930014  64.6789992  61.1729978  28.5820014
  66.0949992  61.0559978  29.1040014  65.5336873  61.1156826  28.4421207
  60.4179992  62.7449978  27.1200014  59.5289992  62.8439978  26.7800014
  60.7149992  61.9029978  26.7740014  60.3364177  62.6447687  27.0266940
  69.9949992  60.3509978  31.5580014  69.3179992  60.4819978  32.2210014
  69.5099992  60.1959978  30.7470014  69.8367405  60.3479947  31.5392170
  62.7449992  63.9389978  22.3430014  62.2029992  63.5599978  21.6520014
  63.5789992  64.1339978  21.9150014  62.7834390  63.9134079  22.1904392
  61.9119992  60.0399978  26.5990014  61.5949992  59.1369978  26.5630014
  62.6929992  60.0419978  26.0460014  61.9742431  59.9167797  26.5193102
  65.5359992  62.2919978  32.5940014  64.7009992  62.7459978  32.7050014
  66.0599992  62.5679978  33.3460014  65.4926072  62.3913948  32.7108136
  73.2309992  67.6379978  33.0660014  73.8719992  68.0939978  32.5220014
  72.3999992  67.7509978  32.6030014  73.2065287  67.7156921  32.9289887
  69.9779992  61.3189978  22.4780014  69.0399992  61.4299978  22.3270014
  70.2759992  62.1749978  22.7850014  69.8896318  61.4500158  22.4988145
  70.6969992  63.1859978  24.1390014  71.5889992  63.0479978  24.4580014
  70.7529992  63.9769978  23.6020014  70.8267325  63.2739918  24.1101217
  65.2299992  65.7769978  37.5770014  64.9339992  65.6119978  36.6810014
  66.1609992  65.5569978  37.5660014  65.3154401  65.7246879  37.4530206
  75.5819992  63.3949978  23.8340014  75.0269992  62.9989978  23.1610014
  75.6819992  64.3059978  23.5560014  75.5196816  63.4639505  23.7045033
  75.5449992  69.1959978  36.6710014  74.6939992  69.4339978  36.3030014
  76.1349992  69.1789978  35.9180014  75.5083812  69.2262524  36.5188453
  59.3349992  66.1799978  22.0400014  59.9509992  66.8069978  22.4200014
  58.4729992  66.4959978  22.3120014  59.3027678  66.3084412  22.1287209
  75.7729992  74.6369978  22.3200014  76.5169992  75.2229978  22.1800014
  75.0789992  75.2059978  22.6530014  75.7809809  74.7940818  22.3458590
  59.8469992  61.0139978  34.9220014  58.9549992  61.3519978  34.8540014
  59.7489992  60.1579978  35.3400014  59.7114475  60.9446543  34.9691704
  60.7499992  68.0919978  23.5330014  60.0639992  68.4449978  24.1000014
  61.2729992  68.8549978  23.2860014  60.7268402  68.2433901  23.5771801
  68.5819992  60.7549978  33.8120014  69.2809992  60.8289978  34.4620014
  68.2009992  59.8899978  33.9660014  68.6262097  60.6482389  33.9217997
  69.3659992  60.4069978  24.9090014  69.5859992  60.8779978  24.1050014
  69.9249992  60.8009978  25.5790014  69.4716731  60.5247287  24.8895033
  66.5659992  62.1349978  25.7440014  67.3779992  62.6389978  25.7900014
  66.3219992  61.9899978  26.6580014  66.6441467  62.1843749  25.8738575
  67.1019992  63.1209978  34.9280014  67.2209992  63.6949978  35.6850014
  67.7569992  62.4329978  35.0430014  67.2068684  63.1065194  35.0471674
  67.4499992  59.2159978  26.6820014  67.1029992  59.8329978  27.3260014
  68.1089992  59.7169978  26.2000014  67.4915090  59.3681575  26.7050681
  63.1079992  60.2789978  23.3690014  63.0239992  61.1669978  23.7160014
  63.9979992  60.0139978  23.6010014  63.2168163  60.3647179  23.4478596
  73.3059992  61.0279978  35.7630014  72.3899992  61.2899978  35.6760014
  73.6419992  61.0249978  34.8670014  73.2258499  61.0635163  35.6298766
  71.9089992  64.7779978  29.8590014  71.1109992  64.3629978  29.5310014
  72.3539992  64.0879978  30.3500014  71.8599684  64.6278628  29.8805227
  59.6819992  63.3709978  21.5450014  59.6369992  64.3099978  21.7240014
  58.7939992  63.1349978  21.2760014  59.5558166  63.4676687  21.5331524
  60.4899992  58.1519978  30.2190014  60.2609992  58.2109978  29.2910014
  60.0479992  57.3609978  30.5250014  60.3988801  58.0530540  30.1334729
  62.9569992  68.8589978  20.7960014  63.0219992  68.0649978  21.3260014
  63.6099992  68.7409978  20.1060014  63.0541605  68.7343430  20.7752997
  65.1779992  65.0749978  21.3640014  64.9969992  64.9199978  20.4370014
  66.1279992  65.1829978  21.4090014  65.2816566  65.0683669  21.2430929
  74.5679992  67.4289978  20.8100014  74.2939992  67.0049978  19.9970014
  74.6069992  68.3609978  20.5930014  74.5357716  67.4968827  20.6694286
  63.7349992  62.0799978  36.5400014  63.8849992  61.3509978  35.9380014
  63.7369992  62.8569978  35.9810014  63.7557967  62.0852708  36.3820541
  64.1479992  60.4489978  34.0330014  64.6829992  60.9009978  33.3810014
  63.2949992  60.3409978  33.6100014  64.1060374  60.4962665  33.8866710
  70.1449992  63.7039978  39.3010014  70.3369992  62.7729978  39.1890014
  71.0029992  64.1289978  39.2900014  70.2872182  63.6340070  39.2841862
  71.4619992  66.4929978  37.3780014  71.1799992  67.2019978  36.8000014
  72.4039992  66.4199978  37.2270014  71.5507921  66.5802193  37.2784225
  62.2139992  63.2779978  38.4510014  61.4459992  62.7449978  38.2410014
  62.8919992  62.9679978  37.8520014  62.2007235  63.1631754  38.3412413
  64.9529992  57.9059978  34.4640014  64.8549992  58.8519978  34.3590014
  64.2109992  57.5329978  33.9880014  64.8392534  57.9851773  34.3852600
  66.2169992  62.2269978  38.0280014  65.9819992  62.0079978  38.9290014
  65.4339992  62.0199978  37.5180014  66.0789095  62.1689892  38.0825353
  68.9329992  61.3549978  37.1030014  67.9849992  61.3869978  37.2350014
  69.2449992  60.7289978  37.7570014  68.8455293  61.2747923  37.2094148
  70.5669992  59.9889978  39.1080014  70.4699992  59.0369978  39.1030014
  70.2449992  60.2569978  39.9690014  70.5102468  59.8950884  39.2236210
  60.3939992  61.1979978  38.1560014  60.6059992  60.4919978  37.5460014
  60.2829992  60.7609978  39.0000014  60.4080269  61.0421921  38.1865873
  65.1749992  57.1999978  37.1350014  65.8869992  56.5599978  37.1210014
  65.0739992  57.4659978  36.2220014  65.2587387  57.1484330  37.0095563
  65.5289992  58.8819978  39.1890014  65.3969992  58.4069978  38.3690014
  64.9289992  59.6269978  39.1340014  65.4299070  58.9175789  39.0693251
  73.7249992  70.0419978  39.2710014  72.8589992  69.9369978  39.6650014
  74.1009992  70.7999978  39.7170014  73.6573401  70.1301708  39.3852620
  75.0259992  68.2979978  24.7850014  75.8759992  68.7189978  24.9120014
  75.0309992  67.5579978  25.3920014  75.1431143  68.2556094  24.8844750
  75.4199992  66.3519978  26.6080014  74.6939992  65.8719978  27.0060014
  76.0019992  66.5569978  27.3410014  75.3992730  66.3140184  26.7614149
  75.1789992  69.1369978  31.5560014  76.0129992  68.7589978  31.2750014
  75.2909992  70.0799978  31.4370014  75.3081917  69.2127943  31.5014861
  73.6659992  72.0149978  33.8630014  73.0179992  72.3399978  34.4880014
  73.1479992  71.5739978  33.1890014  73.5074196  71.9998651  33.8574152
  75.6889992  66.2529978  22.9990014  75.1669992  66.6089978  22.2810014
  75.6559992  66.9279978  23.6780014  75.6130129  66.3929598  22.9923355
  74.0379992  63.4919978  21.5500014  74.1339992  64.1589978  20.8700014
  73.8979992  62.6769978  21.0690014  74.0322040  63.4730671  21.3918378
  73.2069992  64.8729978  27.1710014  73.0569992  63.9279978  27.1510014
  72.8529992  65.1539978  28.0150014  73.1386351  64.7816644  27.2823220
  58.2419992  66.9509978  31.1820014  58.4269992  66.8689978  30.2460014
  59.0919992  66.8269978  31.6050014  58.3820928  66.9230463  31.1112893
  74.0629992  66.8429978  36.8100014  74.6459992  66.1079978  37.0020014
  74.6269992  67.6149978  36.8570014  74.2189781  66.8468145  36.8426164
  75.5599992  64.7459978  37.4950014  74.6969992  64.3669978  37.3290014
  76.1639992  64.0069978  37.4200014  75.5236085  64.5943223  37.4621694
  73.2849992  60.8999978  20.6680014  73.8959992  60.5289978  21.3050014
  72.4479992  60.4789978  20.8640014  73.2554947  60.7922756  20.7817252
  72.9179992  62.4549978  25.6340014  73.1969992  61.5479978  25.7580014
  73.6769992  62.8889978  25.2450014  73.0588619  62.3894502  25.5983795
  73.5289992  63.0369978  31.0700014  74.4619992  63.2489978  31.0350014
  73.2939992  63.1379978  31.9920014  73.6249517  63.0796833  31.1899130
  73.5589992  63.7739978  33.8460014  72.7159992  64.0419978  34.2120014
  74.0009992  64.5959978  33.6350014  73.5034138  63.9218273  33.8675518
  57.8399992  62.2209978  37.3220014  58.7589992  62.0989978  37.5590014
  57.3899992  61.4709978  37.7120014  57.9050087  62.1029608  37.4071410
  75.8419992  57.7539978  39.1990014  76.1909992  57.0999978  38.5940014
  75.9889992  58.5909978  38.7590014  75.9096824  57.7776024  39.0566304
  73.5309992  59.7179978  25.6820014  73.7129992  59.2689978  26.5070014
  72.9309992  59.1339978  25.2180014  73.4748187  59.5775552  25.7322739
  59.0609992  60.5339978  30.2140014  59.5059992  59.7419978  30.5160014
  59.5269992  61.2499978  30.6440014  59.1849718  60.5224534  30.3135265
  57.3649992  63.5329978  31.2830014  57.8569992  63.3119978  30.4920014
  57.7269992  64.3729978  31.5640014  57.4812923  63.6163468  31.2127407
  75.3609992  59.8629978  37.5480014  74.4439992  60.1339978  37.5130014
  75.4839992  59.3279978  36.7640014  75.2519672  59.8277885  37.4371862
  75.3979992  59.7859978  22.2100014  75.8099992  59.0649978  21.7350014
  76.0789992  60.4549978  22.2680014  75.5465536  59.7777766  22.1528024
  57.6789992  59.7909978  25.3370014  56.7539992  59.9989978  25.2080014
  58.1329992  60.2749978  24.6470014  57.6136298  59.8849299  25.2260451
  57.6419992  58.5289978  33.6810014  56.9769992  58.2829978  34.3240014
  57.1989992  59.1509978  33.1040014  57.4911168  58.5794214  33.6909848
  74.3619992  57.9529978  35.3670014  73.5489992  58.2779978  34.9800014
  74.5949992  57.1919978  34.8340014  74.2821347  57.8946880  35.2419841
  67.7919992  59.4019978  29.6900014  67.1179992  58.7719978  29.9460014
  68.3559992  58.9179978  29.0870014  67.7760384  59.2503708  29.6435020
  72.9349992  57.5089978  29.8030014  73.5379992  58.0569978  29.3010014
  72.0649992  57.8279978  29.5620014  72.8999157  57.6270373  29.7017910
  74.6619992  58.6479978  28.1360014  75.2729992  58.1339978  27.6090014
  75.0439992  59.5249978  28.1590014  74.7973305  58.6962050  28.0669418
  60.1189992  58.0359978  27.5120014  59.3419992  57.8009978  27.0050014
  60.6489992  57.2389978  27.5210014  60.0843451  57.8961268  27.4438627
  58.9549992  57.8339978  23.3160014  59.3939992  58.4449978  22.7240014
  58.3209992  58.3719978  23.7900014  58.9293859  57.9904064  23.2990305
  64.6979992  57.9619978  27.3250014  65.5719992  58.3509978  27.2960014
  64.5619992  57.7469978  28.2480014  64.7991953  57.9861643  27.4457617
  70.2549992  57.9919978  28.9750014  70.3309992  58.0879978  28.0250014
  69.9799992  57.0849978  29.1030014  70.2281871  57.8824146  28.8623944
  71.6079992  58.0179978  24.6670014  70.9049992  58.6329978  24.4570014
  71.1629992  57.1809978  24.7980014  71.4516550  57.9889668  24.6559837
  60.8159992  59.7499978  21.7580014  61.3069992  59.1199978  21.2310014
  61.4389992  60.0459978  22.4210014  60.9675304  59.7037376  21.7754940
  65.8419992  60.0429978  24.2150014  66.0199992  59.3959978  24.8980014
  65.7879992  60.8769978  24.6820014  65.8590678  60.0671604  24.3716301
  60.0759992  58.5499978  37.0300014  59.7099992  57.7839978  37.4720014
  60.9889992  58.5789978  37.3160014  60.1493172  58.4490324  37.1291890
  62.0489992  57.8999978  38.5650014  62.9479992  57.6259978  38.3810014
  61.6629992  57.1579978  39.0300014  62.1197307  57.7622196  38.6027098
  70.4709992  57.2329978  38.7480014  70.5469992  56.8069978  39.6010014
  71.3639992  57.2459978  38.4050014  70.6022303  57.1763493  38.8185497
  88.0529992  67.1919978  27.4710014  88.1419992  68.1359978  27.3390014
  87.4149992  66.9169978  26.8130014  87.9789062  67.2839812  27.3639641
  86.9859992  66.4469978  30.8900014  86.9479992  65.8009978  31.5950014
  86.6639992  65.9799978  30.1190014  86.9372679  66.2954276  30.8822921
  90.6919992  69.3859978  29.1910014  90.2509992  68.6659978  29.6420014
  90.6789992  70.1069978  29.8210014  90.6299215  69.3849291  29.3378105
  76.8879992  64.1709978  26.4100014  76.4399992  65.0169978  26.3920014
  76.3269992  63.5919978  25.8950014  76.7508546  64.2083993  26.3378891
  77.5979992  66.3329978  28.5360014  77.8119992  65.5629978  29.0640014
  78.3359992  66.4229978  27.9330014  77.7270200  66.2398587  28.5267035
  85.3749992  68.8789978  31.2960014  85.6789992  68.1929978  30.7010014
  86.0969992  68.9979978  31.9140014  85.5141240  68.8012314  31.2980959
  94.0379992  60.4809978  32.1560014  94.0879992  61.0909978  32.8920014
  94.4639992  60.9419978  31.4330014  94.1024108  60.6267709  32.1590112
  88.5159992  63.2729978  31.6230014  88.6589992  62.3269978  31.6430014
  88.4099992  63.4799978  30.6950014  88.5212403  63.1714797  31.5002239
  81.6709992  61.3749978  28.8960014  81.7139992  62.2349978  28.4770014
  81.2129992  60.8229978  28.2620014  81.6149871  61.4179245  28.7530761
  89.3929992  61.5059978  27.2970014  90.0399992  61.1769978  27.9210014
  89.9029992  62.0229978  26.6740014  89.5504351  61.5309067  27.2981037
  78.2909992  63.7719978  29.6580014  78.9449992  63.2219978  30.0900014
  78.3149992  63.4979978  28.7410014  78.3837199  63.6597167  29.5931668
  83.4479992  65.3219978  28.8730014  84.0639992  64.7949978  29.3820014
  82.8609992  64.6819978  28.4690014  83.4530154  65.1633954  28.8880945
  94.4299992  61.9589978  34.3920014  93.7409992  62.6169978  34.2970014
  94.4449992  61.7609978  35.3290014  94.3377756  62.0222603  34.5055812
  80.4809992  60.2929978  32.9700014  80.2619992  60.8229978  32.2030014
  79.8129992  60.5189978  33.6170014  80.3606975  60.3960967  32.9525140
  87.8499992  69.7929978  26.5140014  87.5549992  69.4699978  25.6620014
  87.5259992  70.6929978  26.5550014  87.7658460  69.8704464  26.4029714
  83.0499992  67.9679978  33.2570014  82.3099992  68.5669978  33.3610014
  83.7639992  68.5219978  32.9420014  83.0453500  68.1247829  33.2286371
  91.1569992  60.7969978  29.2770014  90.9419992  60.0309978  29.8100014
  91.8129992  61.2689978  29.7900014  91.2162673  60.7560728  29.4191990
  80.0749992  62.1849978  30.9220014  80.6889992  62.8179978  31.2950014
  80.5869992  61.7129978  30.2660014  80.2281962  62.2077249  30.8842935
  77.5789992  69.6039978  24.8260014  77.3069992  69.8329978  23.9380014
  77.6239992  70.4409978  25.2870014  77.5478097  69.7486163  24.7666683
  91.2039992  71.2249978  31.5390014  90.2619992  71.2839978  31.7010014
  91.4799992  72.1309978  31.4020014  91.1125865  71.3555288  31.5426192
  91.5039992  59.5119978  32.9560014  90.7679992  60.1219978  32.9190014
  92.1879992  59.9269978  32.4300014  91.4955367  59.6517551  32.8798174
  84.5079992  57.5979978  30.4220014  84.3899992  56.6499978  30.3680014
  83.6529992  57.9309978  30.6950014  84.3762805  57.5132202  30.4515079
  89.4559992  73.0059978  28.1640014  89.8809992  72.2989978  27.6790014
  89.7729992  73.8079978  27.7470014  89.5570266  73.0175190  28.0412479
  90.6159992  70.9069978  26.6730014  90.3579992  70.2169978  26.0610014
  90.6869992  70.4639978  27.5180014  90.5903050  70.7526814  26.7035621
  92.3019992  69.4739978  35.1500014  92.4409992  68.8819978  34.4110014
  92.4689992  70.3469978  34.7940014  92.3436193  69.5108896  35.0006211
  86.7739992  66.4359978  24.9230014  86.0629992  66.9709978  24.5710014
  87.4649992  66.4909978  24.2630014  86.7700751  66.5166777  24.7855858
  86.8279992  64.8929978  21.9610014  87.5289992  64.9159978  22.6130014
  87.1299992  64.2649978  21.3050014  86.9648202  64.8112212  21.9615609
  94.1429992  65.8139978  33.2160014  93.4909992  66.5079978  33.3050014
  94.6089992  66.0239978  32.4060014  94.1165937  65.9375019  33.1187533
  90.1799992  66.6449978  25.8740014  89.4479992  66.8739978  26.4480014
  90.6269992  65.9319978  26.3290014  90.1403963  66.5798729  26.0139945
  90.0769992  64.8199978  34.9420014  90.1569992  65.5829978  35.5140014
  89.4759992  65.0989978  34.2520014  90.0066547  64.9622457  34.9270047
  81.8249992  67.2759978  27.7570014  81.4949992  66.9049978  26.9390014
  82.4139992  66.6049978  28.1040014  81.8593970  67.1346063  27.6919404
  83.1919992  70.7039978  30.4380014  83.0969992  70.1249978  29.6820014
  83.9209992  70.3329978  30.9340014  83.2776011  70.5745561  30.4016028
  82.1919992  66.0439978  31.3900014  82.7569992  66.1659978  30.6280014
  82.5109992  66.6819978  32.0290014  82.3124166  66.1468791  31.3720348
  88.5009992  71.5479978  32.1240014  88.2609992  72.2099978  32.7720014
  88.3029992  70.7129978  32.5490014  88.4413826  71.5258115  32.2701566
  83.0719992  70.4439978  36.1080014  82.7609992  71.2259978  36.5630014
  82.4219992  70.2909978  35.4220014  82.9415538  70.5304087  36.0775898
  89.0509992  65.8079978  23.5600014  89.6299992  65.9579978  24.3060014
  89.4649992  66.2779978  22.8360014  89.1863358  65.8920954  23.5643953
  79.9919992  66.6419978  35.3360014  80.0619992  67.2929978  36.0350014
  79.1009992  66.7449978  35.0010014  79.8811690  66.7449249  35.3863043
  86.7769992  72.5439978  26.9950014  87.2509992  72.8399978  27.7720014
  86.2139992  73.2829978  26.7620014  86.7657890  72.6843036  27.0698101
  92.7499992  57.5579978  23.3730014  91.8499992  57.6969978  23.6680014
  93.0019992  58.3889978  22.9710014  92.6608683  57.6894055  23.3590232
  80.8159992  66.3449978  25.3460014  80.5239992  67.1129978  24.8550014
  80.1409992  65.6859978  25.1830014  80.6848497  66.3609745  25.2568260
  93.9389992  71.9239978  21.7490014  94.0119992  72.8629978  21.9190014
  94.8439992  71.6189978  21.6930014  94.0714170  72.0113282  21.7647063
  76.9089992  68.7079978  34.1610014  76.4069992  68.6799978  33.3460014
  76.9139992  67.8029978  34.4710014  76.8409832  68.5817486  34.0914121
  76.6589992  71.4889978  31.0450014  77.6049992  71.3439978  31.0260014
  76.5459992  72.2729978  31.5820014  76.7733578  71.5751697  31.1150317
  94.8569992  72.1549978  36.7280014  94.8069992  71.1989978  36.6900014
  94.0299992  72.4219978  37.1290014  94.7383831  72.0604680  36.7770121
  85.8349992  71.7289978  35.6040014  85.9229992  72.5549978  36.0790014
  84.9719992  71.3989978  35.8530014  85.7303357  71.7975468  35.7027653
  86.2499992  75.5009978  25.4100014  86.1739992  75.3799978  24.4630014
  86.2819992  76.4499978  25.5280014  86.2439380  75.6127677  25.2965181
  79.9029992  74.2899978  27.1910014  80.0549992  73.9419978  28.0690014
  79.0519992  73.9329978  26.9350014  79.8088344  74.1940879  27.2766868
  89.3509992  74.6549978  22.4120014  89.7259992  73.9109978  21.9410014
  89.3559992  74.3849978  23.3300014  89.4030098  74.5166392  22.4716629
  89.0199992  74.5809978  25.1610014  88.0849992  74.6809978  25.3400014
  89.2999992  73.8709978  25.7400014  88.9299471  74.4987933  25.2636695
  92.0089992  63.6479978  37.2080014  91.6009992  64.1279978  36.4870014
  92.0489992  62.7419978  36.9000014  91.9586221  63.5912449  37.0678267
  81.7759992  58.5019978  31.2000014  80.9149992  58.4149978  30.7920014
  81.7539992  59.3579978  31.6280014  81.6550491  58.6058003  31.2019582
  86.4389992  58.2239978  34.5750014  86.8589992  57.8089978  35.3280014
  85.5059992  58.0449978  34.6920014  86.3703736  58.1429910  34.6938968
  89.7659992  61.9789978  35.4280014  89.2519992  61.8539978  36.2260014
  89.6099992  62.8919978  35.1840014  89.6746967  62.0852123  35.5040937
  90.5279992  66.8399978  21.1890014  90.5699992  66.6179978  20.2590014
  91.3769992  67.2389978  21.3790014  90.6485253  66.8635498  21.0873822
  86.1009992  60.7159978  21.8600014  85.8469992  60.7349978  22.7820014
  85.8439992  59.8449978  21.5580014  86.0314508  60.6008280  21.9454803
  81.8669992  63.4669978  32.2950014  81.2259992  63.4269978  33.0040014
  81.9049992  64.3939978  32.0570014  81.7843010  63.5867668  32.3599946
  81.8639992  63.6879978  27.2070014  80.9719992  63.3479978  27.1480014
  82.3149992  63.3109978  26.4510014  81.8027642  63.5904910  27.0967726
  87.3999992  64.1039978  26.0240014  86.9909992  64.9189978  25.7320014
  88.1199992  63.9639978  25.4100014  87.4414439  64.1965372  25.9010115
  86.5019992  64.2799978  37.5120014  85.9389992  63.5749978  37.8330014
  87.3279992  64.1589978  37.9800014  86.5366674  64.1672165  37.6191751
  88.4049992  63.5499978  28.8380014  88.2089992  64.1559978  28.1230014
  88.5859992  62.7169978  28.4040014  88.4026584  63.5202513  28.6814212
  79.6169992  63.7879978  34.1620014  79.5789992  64.1879978  35.0310014
  79.1269992  62.9709978  34.2520014  79.5455330  63.7322674  34.2931289
  82.9829992  61.1619978  20.9610014  82.5519992  60.7169978  21.6900014
  82.2649992  61.5329978  20.4480014  82.8269176  61.1512051  20.9914930
  76.2259992  60.9039978  28.0130014  76.8559992  60.8749978  28.7320014
  76.6749992  60.4789978  27.2820014  76.3730835  60.8425660  28.0127659
  77.4999992  61.6499978  23.4370014  77.9739992  62.2409978  22.8520014
  76.7819992  62.1799978  23.7840014  77.4678640  61.8025511  23.4037969
  87.6689992  65.1879978  33.5090014  87.9919992  64.5569978  32.8660014
  87.2279992  64.6539978  34.1700014  87.6536379  65.0293468  33.5102582
  84.4459992  61.1159978  28.2930014  83.5349992  61.1729978  28.5820014
  84.9509992  61.0559978  29.1040014  84.3896873  61.1156826  28.4421207
  79.2739992  62.7449978  27.1200014  78.3849992  62.8439978  26.7800014
  79.5709992  61.9029978  26.7740014  79.1924177  62.6447687  27.0266940
  82.9269992  62.7449978  24.7770014  83.8589992  62.8739978  24.9550014
  82.7119992  63.4139978  24.1270014  83.0254472  62.8530806  24.7134891
  88.8509992  60.3509978  31.5580014  88.1739992  60.4819978  32.2210014
  88.3659992  60.1959978  30.7470014  88.6927405  60.3479947  31.5392170
  81.6009992  63.9389978  22.3430014  81.0589992  63.5599978  21.6520014
  82.4349992  64.1339978  21.9150014  81.6394390  63.9134079  22.1904392
  92.1389992  76.0219978  37.8340014  92.3379992  76.4459978  37.0000014
  92.7939992  76.3659978  38.4410014  92.2548522  76.1266301  37.8017852
  85.7659992  63.9029978  30.1800014  86.3299992  63.3569978  29.6330014
  85.6179992  63.3819978  30.9690014  85.8233037  63.7576787  30.2117229
  80.7679992  60.0399978  26.5990014  80.4509992  59.1369978  26.5630014
  81.5489992  60.0419978  26.0460014  80.8302431  59.9167797  26.5193102
  84.3919992  62.2919978  32.5940014  83.5569992  62.7459978  32.7050014
  84.9159992  62.5679978  33.3460014  84.3486072  62.3913948  32.7108136
  84.9369992  68.5049978  24.2790014  84.1919992  67.9969978  23.9570014
  84.8019992  68.5539978  25.2250014  84.8168963  68.4421731  24.3628826
  92.0869992  67.6379978  33.0660014  92.7279992  68.0939978  32.5220014
  91.2559992  67.7509978  32.6030014  92.0625287  67.7156921  32.9289887
  88.8339992  61.3189978  22.4780014  87.8959992  61.4299978  22.3270014
  89.1319992  62.1749978  22.7850014  88.7456318  61.4500158  22.4988145
  86.4559992  68.6889978  35.5160014  86.1099992  68.3069978  36.3230014
  86.2559992  69.6219978  35.5870014  86.3815987  68.7629002  35.6360461
  89.5529992  63.1859978  24.1390014  90.4449992  63.0479978  24.4580014
  89.6089992  63.9769978  23.6020014  89.6827325  63.2739918  24.1101217
  87.0619992  69.9629978  23.3040014  86.7669992  70.7899978  23.6860014
  86.3589992  69.3439978  23.5010014  86.9266379  69.9924171  23.3828654
  77.0689992  66.2599978  35.3640014  77.2919992  65.8419978  36.1950014
  76.4669992  65.6479978  34.9410014  77.0181513  66.1199606  35.4206740
  84.0859992  65.7769978  37.5770014  83.7899992  65.6119978  36.6810014
  85.0169992  65.5569978  37.5660014  84.1714401  65.7246880  37.4530206
  88.7059992  71.1509978  35.4660014  87.8059992  71.3339978  35.1990014
  88.7399992  71.4099978  36.3870014  88.5873748  71.2110554  35.5539164
  94.4379992  63.3949978  23.8340014  93.8829992  62.9989978  23.1610014
  94.5379992  64.3059978  23.5560014  94.3756816  63.4639505  23.7045033
  94.4009992  69.1959978  36.6710014  93.5499992  69.4339978  36.3030014
  94.9909992  69.1789978  35.9180014  94.3643812  69.2262524  36.5188453
  92.7329992  72.1809978  24.2990014  92.3599992  71.3559978  24.6080014
  93.0099992  71.9979978  23.4010014  92.7193463  72.0432569  24.2199525
  89.8929992  66.9889978  31.3200014  88.9649992  66.7579978  31.2930014
  90.3439992  66.2119978  30.9900014  89.8268165  66.8522774  31.2716790
  82.4359992  71.3179978  27.4530014  82.9639992  72.0909978  27.2530014
  81.5559992  71.5419978  27.1510014  82.3893435  71.4542700  27.3847310
  78.1909992  66.1799978  22.0400014  78.8069992  66.8069978  22.4200014
  77.3289992  66.4959978  22.3120014  78.1587678  66.3084412  22.1287209
  83.8639992  68.9809978  27.0290014  83.6229992  69.9059978  27.0710014
  83.1229992  68.5219978  27.4260014  83.7309206  69.0455915  27.0883769
  82.5469992  74.0019978  26.5750014  81.5969992  74.1079978  26.6260014
  82.8989992  74.8229978  26.9190014  82.4645472  74.1274923  26.6284852
  87.9219992  69.2289978  33.0450014  87.4969992  69.0009978  33.8710014
  88.5029992  68.4899978  32.8630014  87.9423395  69.0979545  33.1334414
  90.1249992  70.1579978  22.1190014  90.4789992  69.7779978  22.9230014
  89.1769992  70.0639978  22.2060014  90.0452298  70.0932452  22.2408687
  90.5809992  73.7809978  35.5140014  89.9789992  73.2249978  35.0190014
  90.8619992  74.4479978  34.8880014  90.5365757  73.7950744  35.3615675
  94.6289992  74.6369978  22.3200014  95.3729992  75.2229978  22.1800014
  93.9349992  75.2059978  22.6530014  94.6369809  74.7940818  22.3458590
  78.7029992  61.0139978  34.9220014  77.8109992  61.3519978  34.8540014
  78.6049992  60.1579978  35.3400014  78.5674475  60.9446543  34.9691704
  90.9909992  68.8299978  24.3460014  90.7139992  68.1019978  24.9020014
  91.9189992  68.9489978  24.5510014  91.0784499  68.7464213  24.4498044
  84.2159992  71.2699978  20.5660014  84.4549992  70.5209978  20.0190014
  83.9469992  70.8819978  21.3990014  84.2123233  71.1151853  20.6037809
  83.1529992  70.8399978  23.0220014  83.2999992  70.3199978  23.8120014
  83.1499992  71.7469978  23.3290014  83.1727102  70.8913953  23.1715925
  79.6059992  68.0919978  23.5330014  78.9199992  68.4449978  24.1000014
  80.1289992  68.8549978  23.2860014  79.5828402  68.2433901  23.5771801
  87.4379992  60.7549978  33.8120014  88.1369992  60.8289978  34.4620014
  87.0569992  59.8899978  33.9660014  87.4822097  60.6482389  33.9217997
  88.2219992  60.4069978  24.9090014  88.4419992  60.8779978  24.1050014
  88.7809992  60.8009978  25.5790014  88.3276732  60.5247287  24.8895033
  85.8909992  72.5369978  23.7720014  85.0739992  73.0339978  23.8240014
  86.4199992  73.0129978  23.1310014  85.8508125  72.6691989  23.6925306
  85.4219992  62.1349978  25.7440014  86.2339992  62.6389978  25.7900014
  85.1779992  61.9899978  26.6580014  85.5001467  62.1843749  25.8738575
  85.9579992  63.1209978  34.9280014  86.0769992  63.6949978  35.6850014
  86.6129992  62.4329978  35.0430014  86.0628684  63.1065194  35.0471674
  86.3059992  59.2159978  26.6820014  85.9589992  59.8329978  27.3260014
  86.9649992  59.7169978  26.2000014  86.3475090  59.3681575  26.7050681
  83.2289992  73.5809978  23.7530014  83.3899992  74.3809978  23.2530014
  83.0319992  73.8879978  24.6380014  83.2243906  73.7318678  23.8042333
  81.9639992  60.2789978  23.3690014  81.8799992  61.1669978  23.7160014
  82.8539992  60.0139978  23.6010014  82.0728163  60.3647179  23.4478596
  92.1619992  61.0279978  35.7630014  91.2459992  61.2899978  35.6760014
  92.4979992  61.0249978  34.8670014  92.0818499  61.0635163  35.6298766
  90.7649992  64.7779978  29.8590014  89.9669992  64.3629978  29.5310014
  91.2099992  64.0879978  30.3500014  90.7159684  64.6278628  29.8805227
  80.2219992  70.7059978  22.4290014  80.8139992  71.4059978  22.7060014
  80.6809992  70.2729978  21.7100014  80.3651652  70.7432675  22.3696533
  78.5379992  63.3709978  21.5450014  78.4929992  64.3099978  21.7240014
  77.6499992  63.1349978  21.2760014  78.4118166  63.4676687  21.5331524
  91.8509992  74.0339978  31.4810014  91.6949992  74.7129978  30.8240014
  92.7839992  74.1059978  31.6840014  91.9557387  74.1366390  31.4185342
  79.3459992  58.1519978  30.2190014  79.1169992  58.2109978  29.2910014
  78.9039992  57.3609978  30.5250014  79.2548801  58.0530540  30.1334729
  78.2769992  72.0929978  26.3790014  77.4439992  72.5649978  26.4060014
  78.8219992  72.6029978  25.7800014  78.2367857  72.2264791  26.3017142
  86.2539992  73.1329978  20.7050014  85.6099992  72.5019978  21.0260014
  87.0159992  72.6019978  20.4730014  86.2688058  72.9747902  20.7176038
  88.7389992  72.0049978  38.0580014  88.3879992  71.1479978  38.3020014
  89.4649992  72.1469978  38.6650014  88.7891895  71.9071351  38.1733770
  90.8589992  72.9499978  20.9380014  91.1419992  72.1549978  21.3910014
  91.5979992  73.1829978  20.3770014  90.9977096  72.8727049  20.9241104
  81.8129992  68.8589978  20.7960014  81.8779992  68.0649978  21.3260014
  82.4659992  68.7409978  20.1060014  81.9101605  68.7343430  20.7752997
  84.1269992  68.4849978  38.0960014  83.7989992  68.7559978  37.2390014
  84.2789992  67.5439978  38.0080014  84.1026412  68.3949046  37.9667822
  87.1659992  69.9059978  20.5320014  86.8969992  70.0869978  21.4320014
  86.9589992  68.9809978  20.4000014  87.1011191  69.8057119  20.6375524
  89.8619992  68.4009978  35.4790014  90.6069992  68.9899978  35.3600014
  89.1049992  68.9829978  35.5430014  89.8615470  68.5602128  35.4713799
  78.3049992  65.7159978  38.0830014  78.7129992  64.8589978  37.9620014
  78.0439992  65.7299978  39.0040014  78.3256016  65.6005119  38.1909192
  82.9629992  66.8319978  23.1020014  82.5029992  66.3479978  23.7870014
  83.2179992  66.1629978  22.4660014  82.9344856  66.6753669  23.1098397
  82.2519992  64.7249978  35.4580014  81.6329992  65.3989978  35.7380014
  82.5959992  65.0459978  34.6240014  82.2137123  64.8606887  35.3836388
  84.0339992  65.0749978  21.3640014  83.8529992  64.9199978  20.4370014
  84.9839992  65.1829978  21.4090014  84.1376566  65.0683669  21.2430929
  87.2709992  67.1959978  38.7350014  88.2249992  67.2799978  38.7080014
  87.1109992  66.4839978  39.3550014  87.3797182  67.1112842  38.8150733
  93.4239992  67.4289978  20.8100014  93.1499992  67.0049978  19.9970014
  93.4629992  68.3609978  20.5930014  93.3917716  67.4968827  20.6694286
  82.5909992  62.0799978  36.5400014  82.7409992  61.3509978  35.9380014
  82.5929992  62.8569978  35.9810014  82.6117967  62.0852708  36.3820541
  83.0039992  60.4489978  34.0330014  83.5389992  60.9009978  33.3810014
  82.1509992  60.3409978  33.6100014  82.9620374  60.4962665  33.8866710
  84.5849992  65.8889978  34.2720014  85.3359992  65.7329978  33.6990014
  84.2459992  66.7409978  33.9970014  84.6419587  65.9828138  34.1564078
  89.0009992  63.7039978  39.3010014  89.1929992  62.7729978  39.1890014
  89.8589992  64.1289978  39.2900014  89.1432182  63.6340070  39.2841862
  90.3179992  66.4929978  37.3780014  90.0359992  67.2019978  36.8000014
  91.2599992  66.4199978  37.2270014  90.4067921  66.5802193  37.2784225
  81.0699992  63.2779978  38.4510014  80.3019992  62.7449978  38.2410014
  81.7479992  62.9679978  37.8520014  81.0567235  63.1631754  38.3412413
  83.8089992  57.9059978  34.4640014  83.7109992  58.8519978  34.3590014
  83.0669992  57.5329978  33.9880014  83.6952534  57.9851773  34.3852600
  85.0729992  62.2269978  38.0280014  84.8379992  62.0079978  38.9290014
  84.2899992  62.0199978  37.5180014  84.9349095  62.1689892  38.0825353
  87.7889992  61.3549978  37.1030014  86.8409992  61.3869978  37.2350014
  88.1009992  60.7289978  37.7570014  87.7015293  61.2747923  37.2094148
  89.4229992  59.9889978  39.1080014  89.3259992  59.0369978  39.1030014
  89.1009992  60.2569978  39.9690014  89.3662468  59.8950884  39.2236210
  79.2499992  61.1979978  38.1560014  79.4619992  60.4919978  37.5460014
  79.1389992  60.7609978  39.0000014  79.2640269  61.0421921  38.1865873
  84.0309992  57.1999978  37.1350014  84.7429992  56.5599978  37.1210014
  83.9299992  57.4659978  36.2220014  84.1147387  57.1484330  37.0095563
  84.3849992  58.8819978  39.1890014  84.2529992  58.4069978  38.3690014
  83.7849992  59.6269978  39.1340014  84.2859070  58.9175789  39.0693251
  83.9309992  75.7649978  22.3650014  84.8639992  75.9229978  22.5090014
  83.6669992  76.4409978  21.7400014  84.0229911  75.8779373  22.3002722
  77.4989992  70.4019978  21.8480014  78.4129992  70.4809978  22.1210014
  77.5069992  69.7149978  21.1820014  77.6250655  70.3199205  21.7952917
  76.1479992  75.7949978  26.9250014  75.5009992  75.3329978  26.3930014
  76.5029992  75.1229978  27.5080014  76.1073741  75.6409774  26.9309175
  77.0179992  73.8749978  28.7300014  76.6839992  72.9949978  28.9020014
  77.2409992  74.2209978  29.5950014  77.0023721  73.8011938  28.8704168
  94.5669992  74.6849978  31.7110014  94.5449992  74.8699978  32.6500014
  95.2569992  75.2529978  31.3700014  94.6573439  74.7871887  31.7934791
  94.1299992  74.2519978  34.6320014  93.6429992  73.5169978  34.2610014
  94.6789992  73.8579978  35.3100014  94.1375247  74.0981057  34.6728461
  92.5809992  70.0419978  39.2710014  91.7149992  69.9369978  39.6650014
  92.9569992  70.7999978  39.7170014  92.5133401  70.1301708  39.3852620
  93.8819992  68.2979978  24.7850014  94.7319992  68.7189978  24.9120014
  93.8869992  67.5579978  25.3920014  93.9991143  68.2556094  24.8844750
  94.2759992  66.3519978  26.6080014  93.5499992  65.8719978  27.0060014
  94.8579992  66.5569978  27.3410014  94.2552730  66.3140184  26.7614149
  94.0349992  69.1369978  31.5560014  94.8689992  68.7589978  31.2750014
  94.1469992  70.0799978  31.4370014  94.1641917  69.2127943  31.5014861
  92.5219992  72.0149978  33.8630014  91.8739992  72.3399978  34.4880014
  92.0039992  71.5739978  33.1890014  92.3634196  71.9998651  33.8574152
  94.5449992  66.2529978  22.9990014  94.0229992  66.6089978  22.2810014
  94.5119992  66.9279978  23.6780014  94.4690129  66.3929598  22.9923355
  92.8939992  63.4919978  21.5500014  92.9899992  64.1589978  20.8700014
  92.7539992  62.6769978  21.0690014  92.8882040  63.4730671  21.3918378
  92.0629992  64.8729978  27.1710014  91.9129992  63.9279978  27.1510014
  91.7089992  65.1539978  28.0150014  91.9946351  64.7816644  27.2823220
  92.9189992  66.8429978  36.8100014  93.5019992  66.1079978  37.0020014
  93.4829992  67.6149978  36.8570014  93.0749781  66.8468145  36.8426164
  94.4159992  64.7459978  37.4950014  93.5529992  64.3669978  37.3290014
  95.0199992  64.0069978  37.4200014  94.3796085  64.5943223  37.4621695
  92.1409992  60.8999978  20.6680014  92.7519992  60.5289978  21.3050014
  91.3039992  60.4789978  20.8640014  92.1114947  60.7922756  20.7817252
  91.7739992  62.4549978  25.6340014  92.0529992  61.5479978  25.7580014
  92.5329992  62.8889978  25.2450014  91.9148619  62.3894502  25.5983795
  92.3849992  63.0369978  31.0700014  93.3179992  63.2489978  31.0350014
  92.1499992  63.1379978  31.9920014  92.4809517  63.0796833  31.1899130
  92.4149992  63.7739978  33.8460014  91.5719992  64.0419978  34.2120014
  92.8569992  64.5959978  33.6350014  92.3594138  63.9218273  33.8675518
  76.6959992  62.2209978  37.3220014  77.6149992  62.0989978  37.5590014
  76.2459992  61.4709978  37.7120014  76.7610087  62.1029608  37.4071410
  94.6979992  57.7539978  39.1990014  95.0469992  57.0999978  38.5940014
  94.8449992  58.5909978  38.7590014  94.7656824  57.7776024  39.0566304
  92.3869992  59.7179978  25.6820014  92.5689992  59.2689978  26.5070014
  91.7869992  59.1339978  25.2180014  92.3308187  59.5775552  25.7322739
  77.9169992  60.5339978  30.2140014  78.3619992  59.7419978  30.5160014
  78.3829992  61.2499978  30.6440014  78.0409718  60.5224534  30.3135265
  76.2209992  63.5329978  31.2830014  76.7129992  63.3119978  30.4920014
  76.5829992  64.3729978  31.5640014  76.3372923  63.6163468  31.2127407
  94.2169992  59.8629978  37.5480014  93.2999992  60.1339978  37.5130014
  94.3399992  59.3279978  36.7640014  94.1079672  59.8277885  37.4371862
  94.2539992  59.7859978  22.2100014  94.6659992  59.0649978  21.7350014
  94.9349992  60.4549978  22.2680014  94.4025536  59.7777766  22.1528024
  76.5349992  59.7909978  25.3370014  75.6099992  59.9989978  25.2080014
  76.9889992  60.2749978  24.6470014  76.4696298  59.8849299  25.2260451
  91.3049992  74.7749978  27.2830014  91.9579992  74.4269978  26.6750014
  91.8159992  75.2629978  27.9290014  91.4632777  74.7933815  27.2872047
  76.4979992  58.5289978  33.6810014  75.8329992  58.2829978  34.3240014
  76.0549992  59.1509978  33.1040014  76.3471168  58.5794214  33.6909848
  85.9559992  74.0769978  37.0440014  86.1399992  73.7439978  37.9220014
  86.8019992  74.3869978  36.7220014  86.0956484  74.0732979  37.1207617
  88.3009992  75.3629978  36.2880014  88.9779992  74.7299978  36.0480014
  88.6219992  75.7639978  37.0950014  88.4371323  75.3305691  36.3643158
  93.2179992  57.9529978  35.3670014  92.4049992  58.2779978  34.9800014
  93.4509992  57.1919978  34.8340014  93.1381347  57.8946880  35.2419841
  91.1559992  75.8709978  33.5770014  90.9739992  76.7869978  33.3660014
  91.3329992  75.4599978  32.7300014  91.1550030  75.9408273  33.4337166
  80.6019992  73.2679978  29.6970014  80.3829992  72.3509978  29.8670014
  81.4259992  73.4079978  30.1630014  80.6834702  73.1615511  29.7832527
  86.6479992  59.4019978  29.6900014  85.9739992  58.7719978  29.9460014
  87.2119992  58.9179978  29.0870014  86.6320384  59.2503708  29.6435020
  91.7909992  57.5089978  29.8030014  92.3939992  58.0569978  29.3010014
  90.9209992  57.8279978  29.5620014  91.7559157  57.6270373  29.7017910
  93.5179992  58.6479978  28.1360014  94.1289992  58.1339978  27.6090014
  93.8999992  59.5249978  28.1590014  93.6533305  58.6962050  28.0669418
  78.9749992  58.0359978  27.5120014  78.1979992  57.8009978  27.0050014
  79.5049992  57.2389978  27.5210014  78.9403451  57.8961268  27.4438627
  77.8109992  57.8339978  23.3160014  78.2499992  58.4449978  22.7240014
  77.1769992  58.3719978  23.7900014  77.7853859  57.9904064  23.2990305
  83.5539992  57.9619978  27.3250014  84.4279992  58.3509978  27.2960014
  83.4179992  57.7469978  28.2480014  83.6551953  57.9861643  27.4457617
  89.1109992  57.9919978  28.9750014  89.1869992  58.0879978  28.0250014
  88.8359992  57.0849978  29.1030014  89.0841871  57.8824146  28.8623944
  90.4639992  58.0179978  24.6670014  89.7609992  58.6329978  24.4570014
  90.0189992  57.1809978  24.7980014  90.3076550  57.9889668  24.6559837
  77.7119992  73.7819978  24.2130014  77.0269992  73.7439978  23.5460014
  77.7159992  74.6949978  24.5010014  77.6187621  73.9001924  24.1606126
  79.6719992  59.7499978  21.7580014  80.1629992  59.1199978  21.2310014
  80.2949992  60.0459978  22.4210014  79.8235304  59.7037376  21.7754940
  84.6979992  60.0429978  24.2150014  84.8759992  59.3959978  24.8980014
  84.6439992  60.8769978  24.6820014  84.7150678  60.0671604  24.3716301
  86.5759992  74.9909978  22.6110014  87.4419992  75.3579978  22.4330014
  86.3299992  74.5519978  21.7970014  86.6612097  74.9818525  22.4766019
  93.2849992  74.5539978  25.2900014  93.0909992  73.8059978  24.7250014
  93.2459992  75.3119978  24.7070014  93.2531645  74.5540786  25.1338148
  78.9319992  58.5499978  37.0300014  78.5659992  57.7839978  37.4720014
  79.8449992  58.5789978  37.3160014  79.0053172  58.4490324  37.1291890
  80.9049992  57.8999978  38.5650014  81.8039992  57.6259978  38.3810014
  80.5189992  57.1579978  39.0300014  80.9757307  57.7622196  38.6027098
  79.5299992  74.7019978  21.2380014  79.2619992  74.9879978  22.1120014
  80.3009992  74.1559978  21.3910014  79.5975927  74.6672779  21.3781205
  89.3269992  57.2329978  38.7480014  89.4029992  56.8069978  39.6010014
  90.2199992  57.2459978  38.4050014  89.4582303  57.1763493  38.8185497
  92.5029992  73.3059978  37.4400014  91.7209992  73.1189978  36.9200014
  92.4309992  74.2349978  37.6570014  92.3861924  73.4060637  37.3981602
 106.9089992  67.1919978  27.4710014 106.9979992  68.1359978  27.3390014
 106.2709992  66.9169978  26.8130014 106.8349062  67.2839812  27.3639641
 105.8419992  66.4469978  30.8900014 105.8039992  65.8009978  31.5950014
 105.5199992  65.9799978  30.1190014 105.7932679  66.2954276  30.8822921
  98.2099992  66.0609978  32.4830014  98.2519992  65.4359978  33.2060014
  98.9129992  66.6849978  32.6650014  98.3107345  66.0597873  32.6065273
 109.5479992  69.3859978  29.1910014 109.1069992  68.6659978  29.6420014
 109.5349992  70.1069978  29.8210014 109.4859215  69.3849291  29.3378105
  99.1339992  70.5109978  31.0180014  98.7639992  69.7089978  30.6480014
 100.0749992  70.3429978  31.0640014  99.2105984  70.3784638  30.9735603
  95.7439992  64.1709978  26.4100014  95.2959992  65.0169978  26.3920014
  95.1829992  63.5919978  25.8950014  95.6068546  64.2083993  26.3378891
  96.4539992  66.3329978  28.5360014  96.6679992  65.5629978  29.0640014
  97.1919992  66.4229978  27.9330014  96.5830200  66.2398587  28.5267035
 106.6599992  74.4899978  29.4030014 107.2789992  73.8139978  29.1300014
 106.4509992  74.2719978  30.3120014 106.7166056  74.3678869  29.4883967
 104.2309992  68.8789978  31.2960014 104.5349992  68.1929978  30.7010014
 104.9529992  68.9979978  31.9140014 104.3701240  68.8012314  31.2980959
 112.8939992  60.4809978  32.1560014 112.9439992  61.0909978  32.8920014
 113.3199992  60.9419978  31.4330014 112.9584108  60.6267709  32.1590112
 107.3719992  63.2729978  31.6230014 107.5149992  62.3269978  31.6430014
 107.2659992  63.4799978  30.6950014 107.3772403  63.1714797  31.5002239
 100.5269992  61.3749978  28.8960014 100.5699992  62.2349978  28.4770014
 100.0689992  60.8229978  28.2620014 100.4709871  61.4179245  28.7530761
 108.2489992  61.5059978  27.2970014 108.8959992  61.1769978  27.9210014
 108.7589992  62.0229978  26.6740014 108.4064351  61.5309067  27.2981037
  97.1469992  63.7719978  29.6580014  97.8009992  63.2219978  30.0900014
  97.1709992  63.4979978  28.7410014  97.2397199  63.6597167  29.5931668
 102.3039992  65.3219978  28.8730014 102.9199992  64.7949978  29.3820014
 101.7169992  64.6819978  28.4690014 102.3090154  65.1633954  28.8880945
 113.2859992  61.9589978  34.3920014 112.5969992  62.6169978  34.2970014
 113.3009992  61.7609978  35.3290014 113.1937756  62.0222603  34.5055812
  99.3369992  60.2929978  32.9700014  99.1179992  60.8229978  32.2030014
  98.6689992  60.5189978  33.6170014  99.2166975  60.3960967  32.9525140
 106.7059992  69.7929978  26.5140014 106.4109992  69.4699978  25.6620014
 106.3819992  70.6929978  26.5550014 106.6218460  69.8704464  26.4029714
 101.9059992  67.9679978  33.2570014 101.1659992  68.5669978  33.3610014
 102.6199992  68.5219978  32.9420014 101.9013500  68.1247829  33.2286371
 110.0129992  60.7969978  29.2770014 109.7979992  60.0309978  29.8100014
 110.6689992  61.2689978  29.7900014 110.0722673  60.7560728  29.4191990
  98.9309992  62.1849978  30.9220014  99.5449992  62.8179978  31.2950014
  99.4429992  61.7129978  30.2660014  99.0841962  62.2077249  30.8842935
 100.3139992  69.9329978  34.0440014 100.3079992  70.8119978  33.6660014
  99.4599992  69.8489978  34.4690014 100.1977925  70.0419535  34.0496887
  96.4349992  69.6039978  24.8260014  96.1629992  69.8329978  23.9380014
  96.4799992  70.4409978  25.2870014  96.4038097  69.7486163  24.7666683
 110.0599992  71.2249978  31.5390014 109.1179992  71.2839978  31.7010014
 110.3359992  72.1309978  31.4020014 109.9685865  71.3555288  31.5426192
 110.3599992  59.5119978  32.9560014 109.6239992  60.1219978  32.9190014
 111.0439992  59.9269978  32.4300014 110.3515367  59.6517551  32.8798174
 103.3639992  57.5979978  30.4220014 103.2459992  56.6499978  30.3680014
 102.5089992  57.9309978  30.6950014 103.2322805  57.5132202  30.4515079
 108.3119992  73.0059978  28.1640014 108.7369992  72.2989978  27.6790014
 108.6289992  73.8079978  27.7470014 108.4130266  73.0175190  28.0412479
 109.4719992  70.9069978  26.6730014 109.2139992  70.2169978  26.0610014
 109.5429992  70.4639978  27.5180014 109.4463050  70.7526814  26.7035621
 111.1579992  69.4739978  35.1500014 111.2969992  68.8819978  34.4110014
 111.3249992  70.3469978  34.7940014 111.1996193  69.5108896  35.0006211
 105.6299992  66.4359978  24.9230014 104.9189992  66.9709978  24.5710014
 106.3209992  66.4909978  24.2630014 105.6260751  66.5166777  24.7855858
 105.6839992  64.8929978  21.9610014 106.3849992  64.9159978  22.6130014
 105.9859992  64.2649978  21.3050014 105.8208202  64.8112212  21.9615609
 112.9989992  65.8139978  33.2160014 112.3469992  66.5079978  33.3050014
 113.4649992  66.0239978  32.4060014 112.9725937  65.9375019  33.1187533
 109.0359992  66.6449978  25.8740014 108.3039992  66.8739978  26.4480014
 109.4829992  65.9319978  26.3290014 108.9963963  66.5798729  26.0139945
 108.9329992  64.8199978  34.9420014 109.0129992  65.5829978  35.5140014
 108.3319992  65.0989978  34.2520014 108.8626547  64.9622457  34.9270047
 100.6809992  67.2759978  27.7570014 100.3509992  66.9049978  26.9390014
 101.2699992  66.6049978  28.1040014 100.7153970  67.1346063  27.6919404
 102.0479992  70.7039978  30.4380014 101.9529992  70.1249978  29.6820014
 102.7769992  70.3329978  30.9340014 102.1336011  70.5745561  30.4016028
 101.0479992  66.0439978  31.3900014 101.6129992  66.1659978  30.6280014
 101.3669992  66.6819978  32.0290014 101.1684166  66.1468791  31.3720348
 107.3569992  71.5479978  32.1240014 107.1169992  72.2099978  32.7720014
 107.1589992  70.7129978  32.5490014 107.2973826  71.5258115  32.2701566
 101.9279992  70.4439978  36.1080014 101.6169992  71.2259978  36.5630014
 101.2779992  70.2909978  35.4220014 101.7975538  70.5304087  36.0775898
 107.9069992  65.8079978  23.5600014 108.4859992  65.9579978  24.3060014
 108.3209992  66.2779978  22.8360014 108.0423358  65.8920954  23.5643953
  98.8479992  66.6419978  35.3360014  98.9179992  67.2929978  36.0350014
  97.9569992  66.7449978  35.0010014  98.7371690  66.7449249  35.3863043
 105.6329992  72.5439978  26.9950014 106.1069992  72.8399978  27.7720014
 105.0699992  73.2829978  26.7620014 105.6217890  72.6843036  27.0698101
 100.1669992  72.5149978  36.8710014 100.1749992  72.3789978  35.9240014
  99.2509992  72.3979978  37.1230014 100.0442528  72.4805463  36.7753243
 111.6059992  57.5579978  23.3730014 110.7059992  57.6969978  23.6680014
 111.8579992  58.3889978  22.9710014 111.5168683  57.6894055  23.3590232
  99.6719992  66.3449978  25.3460014  99.3799992  67.1129978  24.8550014
  98.9969992  65.6859978  25.1830014  99.5408497  66.3609745  25.2568260
 112.7949992  71.9239978  21.7490014 112.8679992  72.8629978  21.9190014
 113.6999992  71.6189978  21.6930014 112.9274170  72.0113282  21.7647063
  95.7649992  68.7079978  34.1610014  95.2629992  68.6799978  33.3460014
  95.7699992  67.8029978  34.4710014  95.6969832  68.5817486  34.0914121
  95.5149992  71.4889978  31.0450014  96.4609992  71.3439978  31.0260014
  95.4019992  72.2729978  31.5820014  95.6293578  71.5751697  31.1150317
 113.7129992  72.1549978  36.7280014 113.6629992  71.1989978  36.6900014
 112.8859992  72.4219978  37.1290014 113.5943831  72.0604680  36.7770121
 104.6909992  71.7289978  35.6040014 104.7789992  72.5549978  36.0790014
 103.8279992  71.3989978  35.8530014 104.5863357  71.7975468  35.7027653
 105.1059992  75.5009978  25.4100014 105.0299992  75.3799978  24.4630014
 105.1379992  76.4499978  25.5280014 105.0999380  75.6127677  25.2965181
  98.7589992  74.2899978  27.1910014  98.9109992  73.9419978  28.0690014
  97.9079992  73.9329978  26.9350014  98.6648344  74.1940879  27.2766868
 108.2069992  74.6549978  22.4120014 108.5819992  73.9109978  21.9410014
 108.2119992  74.3849978  23.3300014 108.2590098  74.5166392  22.4716629
 107.8759992  74.5809978  25.1610014 106.9409992  74.6809978  25.3400014
 108.1559992  73.8709978  25.7400014 107.7859471  74.4987933  25.2636695
 110.8649992  63.6479978  37.2080014 110.4569992  64.1279978  36.4870014
 110.9049992  62.7419978  36.9000014 110.8146221  63.5912449  37.0678267
  98.0139992  70.0319978  35.2040014  98.2299992  69.6699978  36.0640014
  97.1579992  69.6569978  34.9950014  97.9278810  69.9318837  35.2932680
 100.6319992  58.5019978  31.2000014  99.7709992  58.4149978  30.7920014
 100.6099992  59.3579978  31.6280014 100.5110491  58.6058003  31.2019582
 105.2949992  58.2239978  34.5750014 105.7149992  57.8089978  35.3280014
 104.3619992  58.0449978  34.6920014 105.2263736  58.1429910  34.6938968
 108.6219992  61.9789978  35.4280014 108.1079992  61.8539978  36.2260014
 108.4659992  62.8919978  35.1840014 108.5306967  62.0852123  35.5040937
 109.3839992  66.8399978  21.1890014 109.4259992  66.6179978  20.2590014
 110.2329992  67.2389978  21.3790014 109.5045253  66.8635498  21.0873822
 104.9569992  60.7159978  21.8600014 104.7029992  60.7349978  22.7820014
 104.6999992  59.8449978  21.5580014 104.8874508  60.6008280  21.9454803
 100.7229992  63.4669978  32.2950014 100.0819992  63.4269978  33.0040014
 100.7609992  64.3939978  32.0570014 100.6403010  63.5867668  32.3599946
 100.7199992  63.6879978  27.2070014  99.8279992  63.3479978  27.1480014
 101.1709992  63.3109978  26.4510014 100.6587642  63.5904910  27.0967726
 106.2559992  64.1039978  26.0240014 105.8469992  64.9189978  25.7320014
 106.9759992  63.9639978  25.4100014 106.2974439  64.1965372  25.9010115
 105.3579992  64.2799978  37.5120014 104.7949992  63.5749978  37.8330014
 106.1839992  64.1589978  37.9800014 105.3926674  64.1672165  37.6191751
 107.2609992  63.5499978  28.8380014 107.0649992  64.1559978  28.1230014
 107.4419992  62.7169978  28.4040014 107.2586584  63.5202513  28.6814212
  98.4729992  63.7879978  34.1620014  98.4349992  64.1879978  35.0310014
  97.9829992  62.9709978  34.2520014  98.4015330  63.7322674  34.2931289
 101.8389992  61.1619978  20.9610014 101.4079992  60.7169978  21.6900014
 101.1209992  61.5329978  20.4480014 101.6829176  61.1512051  20.9914930
  95.0819992  60.9039978  28.0130014  95.7119992  60.8749978  28.7320014
  95.5309992  60.4789978  27.2820014  95.2290835  60.8425660  28.0127659
  96.3559992  61.6499978  23.4370014  96.8299992  62.2409978  22.8520014
  95.6379992  62.1799978  23.7840014  96.3238640  61.8025511  23.4037969
 106.5249992  65.1879978  33.5090014 106.8479992  64.5569978  32.8660014
 106.0839992  64.6539978  34.1700014 106.5096379  65.0293468  33.5102582
 103.3019992  61.1159978  28.2930014 102.3909992  61.1729978  28.5820014
 103.8069992  61.0559978  29.1040014 103.2456873  61.1156826  28.4421207
  98.1299992  62.7449978  27.1200014  97.2409992  62.8439978  26.7800014
  98.4269992  61.9029978  26.7740014  98.0484177  62.6447687  27.0266940
 101.7829992  62.7449978  24.7770014 102.7149992  62.8739978  24.9550014
 101.5679992  63.4139978  24.1270014 101.8814472  62.8530806  24.7134891
 107.7069992  60.3509978  31.5580014 107.0299992  60.4819978  32.2210014
 107.2219992  60.1959978  30.7470014 107.5487405  60.3479947  31.5392170
 100.4569992  63.9389978  22.3430014  99.9149992  63.5599978  21.6520014
 101.2909992  64.1339978  21.9150014 100.4954390  63.9134079  22.1904392
 110.9949992  76.0219978  37.8340014 111.1939992  76.4459978  37.0000014
 111.6499992  76.3659978  38.4410014 111.1108522  76.1266301  37.8017852
  98.5929992  68.4959978  37.4420014  99.3249992  68.7509978  38.0040014
  97.8119992  68.7009978  37.9580014  98.5876526  68.5585450  37.5885176
 104.6219992  63.9029978  30.1800014 105.1859992  63.3569978  29.6330014
 104.4739992  63.3819978  30.9690014 104.6793037  63.7576787  30.2117229
  99.6239992  60.0399978  26.5990014  99.3069992  59.1369978  26.5630014
 100.4049992  60.0419978  26.0460014  99.6862431  59.9167797  26.5193102
 103.2479992  62.2919978  32.5940014 102.4129992  62.7459978  32.7050014
 103.7719992  62.5679978  33.3460014 103.2046072  62.3913948  32.7108136
 103.7929992  68.5049978  24.2790014 103.0479992  67.9969978  23.9570014
 103.6579992  68.5539978  25.2250014 103.6728963  68.4421731  24.3628826
 110.9429992  67.6379978  33.0660014 111.5839992  68.0939978  32.5220014
 110.1119992  67.7509978  32.6030014 110.9185287  67.7156921  32.9289887
 107.6899992  61.3189978  22.4780014 106.7519992  61.4299978  22.3270014
 107.9879992  62.1749978  22.7850014 107.6016318  61.4500158  22.4988145
 105.3119992  68.6889978  35.5160014 104.9659992  68.3069978  36.3230014
 105.1119992  69.6219978  35.5870014 105.2375987  68.7629002  35.6360461
 108.4089992  63.1859978  24.1390014 109.3009992  63.0479978  24.4580014
 108.4649992  63.9769978  23.6020014 108.5387325  63.2739918  24.1101217
  98.9169992  67.7999978  30.0490014  99.6619992  67.7969978  29.4470014
  98.9949992  66.9759978  30.5300014  99.0293365  67.6882384  30.0317430
 105.9179992  69.9629978  23.3040014 105.6229992  70.7899978  23.6860014
 105.2149992  69.3439978  23.5010014 105.7826379  69.9924171  23.3828654
  95.9249992  66.2599978  35.3640014  96.1479992  65.8419978  36.1950014
  95.3229992  65.6479978  34.9410014  95.8741513  66.1199606  35.4206740
 102.9419992  65.7769978  37.5770014 102.6459992  65.6119978  36.6810014
 103.8729992  65.5569978  37.5660014 103.0274401  65.7246880  37.4530206
 107.5619992  71.1509978  35.4660014 106.6619992  71.3339978  35.1990014
 107.5959992  71.4099978  36.3870014 107.4433748  71.2110554  35.5539164
 113.2939992  63.3949978  23.8340014 112.7389992  62.9989978  23.1610014
 113.3939992  64.3059978  23.5560014 113.2316816  63.4639505  23.7045033
 113.2569992  69.1959978  36.6710014 112.4059992  69.4339978  36.3030014
 113.8469992  69.1789978  35.9180014 113.2203812  69.2262524  36.5188453
 111.5889992  72.1809978  24.2990014 111.2159992  71.3559978  24.6080014
 111.8659992  71.9979978  23.4010014 111.5753463  72.0432569  24.2199525
 108.7489992  66.9889978  31.3200014 107.8209992  66.7579978  31.2930014
 109.1999992  66.2119978  30.9900014 108.6828165  66.8522774  31.2716790
 101.2919992  71.3179978  27.4530014 101.8199992  72.0909978  27.2530014
 100.4119992  71.5419978  27.1510014 101.2453435  71.4542700  27.3847310
  97.0469992  66.1799978  22.0400014  97.6629992  66.8069978  22.4200014
  96.1849992  66.4959978  22.3120014  97.0147678  66.3084412  22.1287209
 102.7199992  68.9809978  27.0290014 102.4789992  69.9059978  27.0710014
 101.9789992  68.5219978  27.4260014 102.5869206  69.0455915  27.0883769
 103.2339992  73.1299978  33.3440014 103.5969992  73.9839978  33.1110014
 103.7659992  72.8379978  34.0850014 103.3555141  73.2073895  33.4122097
 101.4029992  74.0019978  26.5750014 100.4529992  74.1079978  26.6260014
 101.7549992  74.8229978  26.9190014 101.3205472  74.1274923  26.6284852
 106.7779992  69.2289978  33.0450014 106.3529992  69.0009978  33.8710014
 107.3589992  68.4899978  32.8630014 106.7983395  69.0979545  33.1334414
 108.9809992  70.1579978  22.1190014 109.3349992  69.7779978  22.9230014
 108.0329992  70.0639978  22.2060014 108.9012298  70.0932452  22.2408687
 109.4369992  73.7809978  35.5140014 108.8349992  73.2249978  35.0190014
 109.7179992  74.4479978  34.8880014 109.3925757  73.7950744  35.3615675
 113.4849992  74.6369978  22.3200014 114.2289992  75.2229978  22.1800014
 112.7909992  75.2059978  22.6530014 113.4929809  74.7940818  22.3458590
  97.5589992  61.0139978  34.9220014  96.6669992  61.3519978  34.8540014
  97.4609992  60.1579978  35.3400014  97.4234475  60.9446543  34.9691704
 109.8469992  68.8299978  24.3460014 109.5699992  68.1019978  24.9020014
 110.7749992  68.9489978  24.5510014 109.9344499  68.7464213  24.4498044
  97.2109992  72.8179978  33.3570014  97.4279992  71.8859978  33.3260014
  97.4569992  73.0929978  34.2400014  97.2739809  72.7275686  33.4721691
 103.0719992  71.2699978  20.5660014 103.3109992  70.5209978  20.0190014
 102.8029992  70.8819978  21.3990014 103.0683233  71.1151853  20.6037809
 102.0089992  70.8399978  23.0220014 102.1559992  70.3199978  23.8120014
 102.0059992  71.7469978  23.3290014 102.0287102  70.8913953  23.1715925
  98.4619992  68.0919978  23.5330014  97.7759992  68.4449978  24.1000014
  98.9849992  68.8549978  23.2860014  98.4388402  68.2433901  23.5771801
 106.2939992  60.7549978  33.8120014 106.9929992  60.8289978  34.4620014
 105.9129992  59.8899978  33.9660014 106.3382097  60.6482389  33.9217997
 107.0779992  60.4069978  24.9090014 107.2979992  60.8779978  24.1050014
 107.6369992  60.8009978  25.5790014 107.1836732  60.5247287  24.8895033
 104.7469992  72.5369978  23.7720014 103.9299992  73.0339978  23.8240014
 105.2759992  73.0129978  23.1310014 104.7068125  72.6691989  23.6925306
 104.2779992  62.1349978  25.7440014 105.0899992  62.6389978  25.7900014
 104.0339992  61.9899978  26.6580014 104.3561467  62.1843749  25.8738575
 104.8139992  63.1209978  34.9280014 104.9329992  63.6949978  35.6850014
 105.4689992  62.4329978  35.0430014 104.9188684  63.1065194  35.0471674
 105.1619992  59.2159978  26.6820014 104.8149992  59.8329978  27.3260014
 105.8209992  59.7169978  26.2000014 105.2035090  59.3681575  26.7050681
 102.0849992  73.5809978  23.7530014 102.2459992  74.3809978  23.2530014
 101.8879992  73.8879978  24.6380014 102.0803906  73.7318678  23.8042333
 100.8199992  60.2789978  23.3690014 100.7359992  61.1669978  23.7160014
 101.7099992  60.0139978  23.6010014 100.9288163  60.3647179  23.4478596
 111.0179992  61.0279978  35.7630014 110.1019992  61.2899978  35.6760014
 111.3539992  61.0249978  34.8670014 110.9378499  61.0635163  35.6298766
 109.6209992  64.7779978  29.8590014 108.8229992  64.3629978  29.5310014
 110.0659992  64.0879978  30.3500014 109.5719684  64.6278628  29.8805227
  99.0779992  70.7059978  22.4290014  99.6699992  71.4059978  22.7060014
  99.5369992  70.2729978  21.7100014  99.2211652  70.7432675  22.3696533
  97.3939992  63.3709978  21.5450014  97.3489992  64.3099978  21.7240014
  96.5059992  63.1349978  21.2760014  97.2678166  63.4676687  21.5331524
 110.7069992  74.0339978  31.4810014 110.5509992  74.7129978  30.8240014
 111.6399992  74.1059978  31.6840014 110.8117387  74.1366390  31.4185342
  98.2019992  58.1519978  30.2190014  97.9729992  58.2109978  29.2910014
  97.7599992  57.3609978  30.5250014  98.1108801  58.0530540  30.1334729
  97.1329992  72.0929978  26.3790014  96.2999992  72.5649978  26.4060014
  97.6779992  72.6029978  25.7800014  97.0927857  72.2264791  26.3017142
  96.4209992  74.7049978  37.7090014  96.9609992  74.4889978  38.4690014
  95.9399992  73.8999978  37.5190014  96.4299219  74.5665156  37.7874282
 101.0179992  73.6249978  39.3290014 101.7859992  73.1659978  39.6700014
 100.9969992  73.3989978  38.3990014 101.1202135  73.5316668  39.2499491
 105.1099992  73.1329978  20.7050014 104.4659992  72.5019978  21.0260014
 105.8719992  72.6019978  20.4730014 105.1248058  72.9747902  20.7176038
 107.5949992  72.0049978  38.0580014 107.2439992  71.1479978  38.3020014
 108.3209992  72.1469978  38.6650014 107.6451895  71.9071351  38.1733770
 109.7149992  72.9499978  20.9380014 109.9979992  72.1549978  21.3910014
 110.4539992  73.1829978  20.3770014 109.8537096  72.8727049  20.9241104
  96.3279992  68.5159978  38.6630014  96.4719992  67.6139978  38.3770014
  95.5559992  68.8019978  38.1760014  96.2432733  68.4311798  38.5579532
 100.6689992  68.8589978  20.7960014 100.7339992  68.0649978  21.3260014
 101.3219992  68.7409978  20.1060014 100.7661605  68.7343430  20.7752997
 102.9829992  68.4849978  38.0960014 102.6549992  68.7559978  37.2390014
 103.1349992  67.5439978  38.0080014 102.9586412  68.3949046  37.9667822
 106.0219992  69.9059978  20.5320014 105.7529992  70.0869978  21.4320014
 105.8149992  68.9809978  20.4000014 105.9571191  69.8057119  20.6375524
 108.7179992  68.4009978  35.4790014 109.4629992  68.9899978  35.3600014
 107.9609992  68.9829978  35.5430014 108.7175470  68.5602128  35.4713799
  97.1609992  65.7159978  38.0830014  97.5689992  64.8589978  37.9620014
  96.8999992  65.7299978  39.0040014  97.1816016  65.6005119  38.1909192
 101.8189992  66.8319978  23.1020014 101.3589992  66.3479978  23.7870014
 102.0739992  66.1629978  22.4660014 101.7904856  66.6753669  23.1098397
 101.1079992  64.7249978  35.4580014 100.4889992  65.3989978  35.7380014
 101.4519992  65.0459978  34.6240014 101.0697123  64.8606887  35.3836388
 102.8899992  65.0749978  21.3640014 102.7089992  64.9199978  20.4370014
 103.8399992  65.1829978  21.4090014 102.9936566  65.0683669  21.2430929
 106.1269992  67.1959978  38.7350014 107.0809992  67.2799978  38.7080014
 105.9669992  66.4839978  39.3550014 106.2357182  67.1112842  38.8150733
 112.2799992  67.4289978  20.8100014 112.0059992  67.0049978  19.9970014
 112.3189992  68.3609978  20.5930014 112.2477716  67.4968827  20.6694286
 101.4469992  62.0799978  36.5400014 101.5969992  61.3509978  35.9380014
 101.4489992  62.8569978  35.9810014 101.4677967  62.0852708  36.3820541
 101.8599992  60.4489978  34.0330014 102.3949992  60.9009978  33.3810014
 101.0069992  60.3409978  33.6100014 101.8180374  60.4962665  33.8866710
 103.4409992  65.8889978  34.2720014 104.1919992  65.7329978  33.6990014
 103.1019992  66.7409978  33.9970014 103.4979587  65.9828138  34.1564078
 107.8569992  63.7039978  39.3010014 108.0489992  62.7729978  39.1890014
 108.7149992  64.1289978  39.2900014 107.9992182  63.6340070  39.2841862
 109.1739992  66.4929978  37.3780014 108.8919992  67.2019978  36.8000014
 110.1159992  66.4199978  37.2270014 109.2627921  66.5802193  37.2784225
  99.9259992  63.2779978  38.4510014  99.1579992  62.7449978  38.2410014
 100.6039992  62.9679978  37.8520014  99.9127235  63.1631754  38.3412413
 102.6649992  57.9059978  34.4640014 102.5669992  58.8519978  34.3590014
 101.9229992  57.5329978  33.9880014 102.5512534  57.9851773  34.3852600
 103.9289992  62.2269978  38.0280014 103.6939992  62.0079978  38.9290014
 103.1459992  62.0199978  37.5180014 103.7909095  62.1689892  38.0825353
 106.6449992  61.3549978  37.1030014 105.6969992  61.3869978  37.2350014
 106.9569992  60.7289978  37.7570014 106.5575293  61.2747923  37.2094148
 108.2789992  59.9889978  39.1080014 108.1819992  59.0369978  39.1030014
 107.9569992  60.2569978  39.9690014 108.2222468  59.8950884  39.2236210
  98.1059992  61.1979978  38.1560014  98.3179992  60.4919978  37.5460014
  97.9949992  60.7609978  39.0000014  98.1200269  61.0421921  38.1865873
 102.8869992  57.1999978  37.1350014 103.5989992  56.5599978  37.1210014
 102.7859992  57.4659978  36.2220014 102.9707387  57.1484330  37.0095563
 103.2409992  58.8819978  39.1890014 103.1089992  58.4069978  38.3690014
 102.6409992  59.6269978  39.1340014 103.1419070  58.9175789  39.0693251
 102.7869992  75.7649978  22.3650014 103.7199992  75.9229978  22.5090014
 102.5229992  76.4409978  21.7400014 102.8789911  75.8779373  22.3002722
  96.3549992  70.4019978  21.8480014  97.2689992  70.4809978  22.1210014
  96.3629992  69.7149978  21.1820014  96.4810655  70.3199205  21.7952917
  95.0039992  75.7949978  26.9250014  94.3569992  75.3329978  26.3930014
  95.3589992  75.1229978  27.5080014  94.9633741  75.6409774  26.9309175
  95.8739992  73.8749978  28.7300014  95.5399992  72.9949978  28.9020014
  96.0969992  74.2209978  29.5950014  95.8583721  73.8011938  28.8704168
 113.4229992  74.6849978  31.7110014 113.4009992  74.8699978  32.6500014
 114.1129992  75.2529978  31.3700014 113.5133439  74.7871887  31.7934791
 112.9859992  74.2519978  34.6320014 112.4989992  73.5169978  34.2610014
 113.5349992  73.8579978  35.3100014 112.9935247  74.0981057  34.6728461
 111.4369992  70.0419978  39.2710014 110.5709992  69.9369978  39.6650014
 111.8129992  70.7999978  39.7170014 111.3693401  70.1301708  39.3852620
 112.7379992  68.2979978  24.7850014 113.5879992  68.7189978  24.9120014
 112.7429992  67.5579978  25.3920014 112.8551143  68.2556094  24.8844750
 113.1319992  66.3519978  26.6080014 112.4059992  65.8719978  27.0060014
 113.7139992  66.5569978  27.3410014 113.1112730  66.3140184  26.7614149
 112.8909992  69.1369978  31.5560014 113.7249992  68.7589978  31.2750014
 113.0029992  70.0799978  31.4370014 113.0201917  69.2127943  31.5014861
 111.3779992  72.0149978  33.8630014 110.7299992  72.3399978  34.4880014
 110.8599992  71.5739978  33.1890014 111.2194196  71.9998651  33.8574152
 113.4009992  66.2529978  22.9990014 112.8789992  66.6089978  22.2810014
 113.3679992  66.9279978  23.6780014 113.3250129  66.3929598  22.9923355
 111.7499992  63.4919978  21.5500014 111.8459992  64.1589978  20.8700014
 111.6099992  62.6769978  21.0690014 111.7442040  63.4730671  21.3918378
 110.9189992  64.8729978  27.1710014 110.7689992  63.9279978  27.1510014
 110.5649992  65.1539978  28.0150014 110.8506351  64.7816644  27.2823220
  95.9539992  66.9509978  31.1820014  96.1389992  66.8689978  30.2460014
  96.8039992  66.8269978  31.6050014  96.0940928  66.9230463  31.1112893
 111.7749992  66.8429978  36.8100014 112.3579992  66.1079978  37.0020014
 112.3389992  67.6149978  36.8570014 111.9309781  66.8468145  36.8426164
 113.2719992  64.7459978  37.4950014 112.4089992  64.3669978  37.3290014
 113.8759992  64.0069978  37.4200014 113.2356085  64.5943223  37.4621695
 110.9969992  60.8999978  20.6680014 111.6079992  60.5289978  21.3050014
 110.1599992  60.4789978  20.8640014 110.9674947  60.7922756  20.7817252
 110.6299992  62.4549978  25.6340014 110.9089992  61.5479978  25.7580014
 111.3889992  62.8889978  25.2450014 110.7708619  62.3894502  25.5983795
 111.2409992  63.0369978  31.0700014 112.1739992  63.2489978  31.0350014
 111.0059992  63.1379978  31.9920014 111.3369517  63.0796833  31.1899130
 111.2709992  63.7739978  33.8460014 110.4279992  64.0419978  34.2120014
 111.7129992  64.5959978  33.6350014 111.2154138  63.9218273  33.8675518
  95.5519992  62.2209978  37.3220014  96.4709992  62.0989978  37.5590014
  95.1019992  61.4709978  37.7120014  95.6170087  62.1029608  37.4071410
 113.5539992  57.7539978  39.1990014 113.9029992  57.0999978  38.5940014
 113.7009992  58.5909978  38.7590014 113.6216824  57.7776024  39.0566304
 111.2429992  59.7179978  25.6820014 111.4249992  59.2689978  26.5070014
 110.6429992  59.1339978  25.2180014 111.1868187  59.5775552  25.7322739
  96.7729992  60.5339978  30.2140014  97.2179992  59.7419978  30.5160014
  97.2389992  61.2499978  30.6440014  96.8969718  60.5224534  30.3135265
  95.0769992  63.5329978  31.2830014  95.5689992  63.3119978  30.4920014
  95.4389992  64.3729978  31.5640014  95.1932923  63.6163468  31.2127407
 113.0729992  59.8629978  37.5480014 112.1559992  60.1339978  37.5130014
 113.1959992  59.3279978  36.7640014 112.9639672  59.8277885  37.4371862
 113.1099992  59.7859978  22.2100014 113.5219992  59.0649978  21.7350014
 113.7909992  60.4549978  22.2680014 113.2585536  59.7777766  22.1528024
  95.3909992  59.7909978  25.3370014  94.4659992  59.9989978  25.2080014
  95.8449992  60.2749978  24.6470014  95.3256298  59.8849299  25.2260451
 110.1609992  74.7749978  27.2830014 110.8139992  74.4269978  26.6750014
 110.6719992  75.2629978  27.9290014 110.3192777  74.7933815  27.2872047
  95.3539992  58.5289978  33.6810014  94.6889992  58.2829978  34.3240014
  94.9109992  59.1509978  33.1040014  95.2031168  58.5794214  33.6909848
  97.5459992  71.7039978  37.8260014  96.7249992  71.8789978  37.3650014
  97.2939992  71.6309978  38.7460014  97.3995594  71.7180717  37.8873611
 100.4999992  72.6779978  34.0840014 100.0759992  73.4879978  33.8020014
 101.4049992  72.7639978  33.7820014 100.5642138  72.8004160  34.0046415
 104.8119992  74.0769978  37.0440014 104.9959992  73.7439978  37.9220014
 105.6579992  74.3869978  36.7220014 104.9516484  74.0732979  37.1207617
 107.1569992  75.3629978  36.2880014 107.8339992  74.7299978  36.0480014
 107.4779992  75.7639978  37.0950014 107.2931323  75.3305691  36.3643158
 112.0739992  57.9529978  35.3670014 111.2609992  58.2779978  34.9800014
 112.3069992  57.1919978  34.8340014 111.9941347  57.8946880  35.2419841
  97.9019992  75.9349978  34.1320014  97.1819992  76.3749978  33.6810014
  97.5369992  75.6839978  34.9800014  97.7539643  75.9613369  34.1849129
 100.3689992  75.5349978  33.1620014  99.5049992  75.6069978  33.5660014
 100.3139992  76.0819978  32.3780014 100.2431942  75.6187849  33.1114000
 105.0799992  75.4229978  32.3370014 104.6229992  75.9519978  31.6830014
 105.2429992  76.0259978  33.0620014 105.0394960  75.5769280  32.3455274
 107.4079992  74.3009978  33.2820014 106.5029992  74.4659978  33.0160014
 107.8359992  75.1539978  33.2160014 107.3421537  74.4389134  33.2367095
 110.0119992  75.8709978  33.5770014 109.8299992  76.7869978  33.3660014
 110.1889992  75.4599978  32.7300014 110.0110030  75.9408273  33.4337166
  97.3169992  74.5579978  31.0420014  97.2989992  74.1319978  31.8990014
  98.1219992  74.2389978  30.6330014  97.4232875  74.4566435  31.1039515
  99.4579992  73.2679978  29.6970014  99.2389992  72.3509978  29.8670014
 100.2819992  73.4079978  30.1630014  99.5394702  73.1615511  29.7832527
 101.9949992  73.7379978  30.5460014 102.2079992  72.8499978  30.2590014
 102.0599992  73.7029978  31.5000014 102.0329149  73.6118326  30.6357369
 105.5039992  59.4019978  29.6900014 104.8299992  58.7719978  29.9460014
 106.0679992  58.9179978  29.0870014 105.4880384  59.2503708  29.6435020
 110.6469992  57.5089978  29.8030014 111.2499992  58.0569978  29.3010014
 109.7769992  57.8279978  29.5620014 110.6119157  57.6270373  29.7017910
 112.3739992  58.6479978  28.1360014 112.9849992  58.1339978  27.6090014
 112.7559992  59.5249978  28.1590014 112.5093305  58.6962050  28.0669418
  97.8309992  58.0359978  27.5120014  97.0539992  57.8009978  27.0050014
  98.3609992  57.2389978  27.5210014  97.7963451  57.8961268  27.4438627
  96.6669992  57.8339978  23.3160014  97.1059992  58.4449978  22.7240014
  96.0329992  58.3719978  23.7900014  96.6413859  57.9904064  23.2990305
 102.4099992  57.9619978  27.3250014 103.2839992  58.3509978  27.2960014
 102.2739992  57.7469978  28.2480014 102.5111953  57.9861643  27.4457617
 107.9669992  57.9919978  28.9750014 108.0429992  58.0879978  28.0250014
 107.6919992  57.0849978  29.1030014 107.9401871  57.8824146  28.8623944
 109.3199992  58.0179978  24.6670014 108.6169992  58.6329978  24.4570014
 108.8749992  57.1809978  24.7980014 109.1636550  57.9889668  24.6559837
  96.5679992  73.7819978  24.2130014  95.8829992  73.7439978  23.5460014
  96.5719992  74.6949978  24.5010014  96.4747621  73.9001924  24.1606126
  98.5279992  59.7499978  21.7580014  99.0189992  59.1199978  21.2310014
  99.1509992  60.0459978  22.4210014  98.6795304  59.7037376  21.7754940
 103.5539992  60.0429978  24.2150014 103.7319992  59.3959978  24.8980014
 103.4999992  60.8769978  24.6820014 103.5710678  60.0671604  24.3716301
 105.4319992  74.9909978  22.6110014 106.2979992  75.3579978  22.4330014
 105.1859992  74.5519978  21.7970014 105.5172097  74.9818525  22.4766019
 112.1409992  74.5539978  25.2900014 111.9469992  73.8059978  24.7250014
 112.1019992  75.3119978  24.7070014 112.1091645  74.5540786  25.1338148
  97.7879992  58.5499978  37.0300014  97.4219992  57.7839978  37.4720014
  98.7009992  58.5789978  37.3160014  97.8613172  58.4490324  37.1291890
  99.7609992  57.8999978  38.5650014 100.6599992  57.6259978  38.3810014
  99.3749992  57.1579978  39.0300014  99.8317307  57.7622196  38.6027098
  98.3859992  74.7019978  21.2380014  98.1179992  74.9879978  22.1120014
  99.1569992  74.1559978  21.3910014  98.4535927  74.6672779  21.3781205
 108.1829992  57.2329978  38.7480014 108.2589992  56.8069978  39.6010014
 109.0759992  57.2459978  38.4050014 108.3142303  57.1763493  38.8185497
 111.3589992  73.3059978  37.4400014 110.5769992  73.1189978  36.9200014
 111.2869992  74.2349978  37.6570014 111.2421924  73.4060637  37.3981602
 125.7649992  67.1919978  27.4710014 125.8539992  68.1359978  27.3390014
 125.1269992  66.9169978  26.8130014 125.6909062  67.2839812  27.3639641
 124.6979992  66.4469978  30.8900014 124.6599992  65.8009978  31.5950014
 124.3759992  65.9799978  30.1190014 124.6492679  66.2954276  30.8822921
 117.0659992  66.0609978  32.4830014 117.1079992  65.4359978  33.2060014
 117.7689992  66.6849978  32.6650014 117.1667345  66.0597873  32.6065274
 128.4039992  69.3859978  29.1910014 127.9629992  68.6659978  29.6420014
 128.3909992  70.1069978  29.8210014 128.3419215  69.3849291  29.3378105
 117.9899992  70.5109978  31.0180014 117.6199992  69.7089978  30.6480014
 118.9309992  70.3429978  31.0640014 118.0665984  70.3784638  30.9735603
 114.5999992  64.1709978  26.4100014 114.1519992  65.0169978  26.3920014
 114.0389992  63.5919978  25.8950014 114.4628546  64.2083993  26.3378891
 115.3099992  66.3329978  28.5360014 115.5239992  65.5629978  29.0640014
 116.0479992  66.4229978  27.9330014 115.4390200  66.2398587  28.5267035
 125.5159992  74.4899978  29.4030014 126.1349992  73.8139978  29.1300014
 125.3069992  74.2719978  30.3120014 125.5726056  74.3678869  29.4883967
 123.0869992  68.8789978  31.2960014 123.3909992  68.1929978  30.7010014
 123.8089992  68.9979978  31.9140014 123.2261240  68.8012314  31.2980959
 131.7499992  60.4809978  32.1560014 131.7999992  61.0909978  32.8920014
 132.1759992  60.9419978  31.4330014 131.8144108  60.6267709  32.1590112
 126.2279992  63.2729978  31.6230014 126.3709992  62.3269978  31.6430014
 126.1219992  63.4799978  30.6950014 126.2332403  63.1714797  31.5002239
 119.3829992  61.3749978  28.8960014 119.4259992  62.2349978  28.4770014
 118.9249992  60.8229978  28.2620014 119.3269871  61.4179245  28.7530761
 127.1049992  61.5059978  27.2970014 127.7519992  61.1769978  27.9210014
 127.6149992  62.0229978  26.6740014 127.2624351  61.5309067  27.2981037
 116.0029992  63.7719978  29.6580014 116.6569992  63.2219978  30.0900014
 116.0269992  63.4979978  28.7410014 116.0957199  63.6597167  29.5931668
 121.1599992  65.3219978  28.8730014 121.7759992  64.7949978  29.3820014
 120.5729992  64.6819978  28.4690014 121.1650154  65.1633954  28.8880945
 132.1419992  61.9589978  34.3920014 131.4529992  62.6169978  34.2970014
 132.1569992  61.7609978  35.3290014 132.0497756  62.0222603  34.5055812
 118.1929992  60.2929978  32.9700014 117.9739992  60.8229978  32.2030014
 117.5249992  60.5189978  33.6170014 118.0726975  60.3960967  32.9525140
 125.5619992  69.7929978  26.5140014 125.2669992  69.4699978  25.6620014
 125.2379992  70.6929978  26.5550014 125.4778460  69.8704464  26.4029714
 120.7619992  67.9679978  33.2570014 120.0219992  68.5669978  33.3610014
 121.4759992  68.5219978  32.9420014 120.7573500  68.1247829  33.2286371
 128.8689992  60.7969978  29.2770014 128.6539992  60.0309978  29.8100014
 129.5249992  61.2689978  29.7900014 128.9282673  60.7560728  29.4191990
 117.7869992  62.1849978  30.9220014 118.4009992  62.8179978  31.2950014
 118.2989992  61.7129978  30.2660014 117.9401962  62.2077249  30.8842935
 119.1699992  69.9329978  34.0440014 119.1639992  70.8119978  33.6660014
 118.3159992  69.8489978  34.4690014 119.0537925  70.0419535  34.0496887
 115.2909992  69.6039978  24.8260014 115.0189992  69.8329978  23.9380014
 115.3359992  70.4409978  25.2870014 115.2598097  69.7486163  24.7666683
 128.9159992  71.2249978  31.5390014 127.9739992  71.2839978  31.7010014
 129.1919992  72.1309978  31.4020014 128.8245865  71.3555288  31.5426192
 129.2159992  59.5119978  32.9560014 128.4799992  60.1219978  32.9190014
 129.8999992  59.9269978  32.4300014 129.2075367  59.6517551  32.8798174
 122.2199992  57.5979978  30.4220014 122.1019992  56.6499978  30.3680014
 121.3649992  57.9309978  30.6950014 122.0882805  57.5132202  30.4515079
 127.1679992  73.0059978  28.1640014 127.5929992  72.2989978  27.6790014
 127.4849992  73.8079978  27.7470014 127.2690266  73.0175190  28.0412479
 128.3279992  70.9069978  26.6730014 128.0699992  70.2169978  26.0610014
 128.3989992  70.4639978  27.5180014 128.3023050  70.7526814  26.7035621
 130.0139992  69.4739978  35.1500014 130.1529992  68.8819978  34.4110014
 130.1809992  70.3469978  34.7940014 130.0556193  69.5108896  35.0006211
 124.4859992  66.4359978  24.9230014 123.7749992  66.9709978  24.5710014
 125.1769992  66.4909978  24.2630014 124.4820751  66.5166777  24.7855858
 124.5399992  64.8929978  21.9610014 125.2409992  64.9159978  22.6130014
 124.8419992  64.2649978  21.3050014 124.6768202  64.8112212  21.9615609
 131.8549992  65.8139978  33.2160014 131.2029992  66.5079978  33.3050014
 132.3209992  66.0239978  32.4060014 131.8285937  65.9375019  33.1187533
 127.8919992  66.6449978  25.8740014 127.1599992  66.8739978  26.4480014
 128.3389992  65.9319978  26.3290014 127.8523963  66.5798729  26.0139945
 127.7889992  64.8199978  34.9420014 127.8689992  65.5829978  35.5140014
 127.1879992  65.0989978  34.2520014 127.7186547  64.9622457  34.9270047
 119.5369992  67.2759978  27.7570014 119.2069992  66.9049978  26.9390014
 120.1259992  66.6049978  28.1040014 119.5713970  67.1346063  27.6919404
 120.9039992  70.7039978  30.4380014 120.8089992  70.1249978  29.6820014
 121.6329992  70.3329978  30.9340014 120.9896011  70.5745561  30.4016028
 119.9039992  66.0439978  31.3900014 120.4689992  66.1659978  30.6280014
 120.2229992  66.6819978  32.0290014 120.0244166  66.1468791  31.3720348
 126.2129992  71.5479978  32.1240014 125.9729992  72.2099978  32.7720014
 126.0149992  70.7129978  32.5490014 126.1533826  71.5258115  32.2701566
 120.7839992  70.4439978  36.1080014 120.4729992  71.2259978  36.5630014
 120.1339992  70.2909978  35.4220014 120.6535538  70.5304087  36.0775898
 126.7629992  65.8079978  23.5600014 127.3419992  65.9579978  24.3060014
 127.1769992  66.2779978  22.8360014 126.8983358  65.8920954  23.5643953
 117.7039992  66.6419978  35.3360014 117.7739992  67.2929978  36.0350014
 116.8129992  66.7449978  35.0010014 117.5931690  66.7449249  35.3863043
 124.4889992  72.5439978  26.9950014 124.9629992  72.8399978  27.7720014
 123.9259992  73.2829978  26.7620014 124.4777890  72.6843036  27.0698101
 119.0229992  72.5149978  36.8710014 119.0309992  72.3789978  35.9240014
 118.1069992  72.3979978  37.1230014 118.9002528  72.4805463  36.7753243
 130.4619992  57.5579978  23.3730014 129.5619992  57.6969978  23.6680014
 130.7139992  58.3889978  22.9710014 130.3728683  57.6894055  23.3590232
 118.5279992  66.3449978  25.3460014 118.2359992  67.1129978  24.8550014
 117.8529992  65.6859978  25.1830014 118.3968497  66.3609745  25.2568260
 131.6509992  71.9239978  21.7490014 131.7239992  72.8629978  21.9190014
 132.5559992  71.6189978  21.6930014 131.7834170  72.0113282  21.7647063
 114.6209992  68.7079978  34.1610014 114.1189992  68.6799978  33.3460014
 114.6259992  67.8029978  34.4710014 114.5529832  68.5817486  34.0914121
 114.3709992  71.4889978  31.0450014 115.3169992  71.3439978  31.0260014
 114.2579992  72.2729978  31.5820014 114.4853578  71.5751697  31.1150317
 132.5689992  72.1549978  36.7280014 132.5189992  71.1989978  36.6900014
 131.7419992  72.4219978  37.1290014 132.4503831  72.0604680  36.7770121
 123.5469992  71.7289978  35.6040014 123.6349992  72.5549978  36.0790014
 122.6839992  71.3989978  35.8530014 123.4423357  71.7975468  35.7027653
 123.9619992  75.5009978  25.4100014 123.8859992  75.3799978  24.4630014
 123.9939992  76.4499978  25.5280014 123.9559380  75.6127677  25.2965181
 117.6149992  74.2899978  27.1910014 117.7669992  73.9419978  28.0690014
 116.7639992  73.9329978  26.9350014 117.5208344  74.1940879  27.2766868
 127.0629992  74.6549978  22.4120014 127.4379992  73.9109978  21.9410014
 127.0679992  74.3849978  23.3300014 127.1150098  74.5166392  22.4716629
 126.7319992  74.5809978  25.1610014 125.7969992  74.6809978  25.3400014
 127.0119992  73.8709978  25.7400014 126.6419471  74.4987933  25.2636695
 129.7209992  63.6479978  37.2080014 129.3129992  64.1279978  36.4870014
 129.7609992  62.7419978  36.9000014 129.6706221  63.5912449  37.0678267
 116.8699992  70.0319978  35.2040014 117.0859992  69.6699978  36.0640014
 116.0139992  69.6569978  34.9950014 116.7838810  69.9318837  35.2932680
 119.4879992  58.5019978  31.2000014 118.6269992  58.4149978  30.7920014
 119.4659992  59.3579978  31.6280014 119.3670491  58.6058003  31.2019582
 124.1509992  58.2239978  34.5750014 124.5709992  57.8089978  35.3280014
 123.2179992  58.0449978  34.6920014 124.0823736  58.1429910  34.6938968
 127.4779992  61.9789978  35.4280014 126.9639992  61.8539978  36.2260014
 127.3219992  62.8919978  35.1840014 127.3866967  62.0852123  35.5040937
 128.2399992  66.8399978  21.1890014 128.2819992  66.6179978  20.2590014
 129.0889992  67.2389978  21.3790014 128.3605253  66.8635498  21.0873822
 123.8129992  60.7159978  21.8600014 123.5589992  60.7349978  22.7820014
 123.5559992  59.8449978  21.5580014 123.7434508  60.6008280  21.9454803
 119.5789992  63.4669978  32.2950014 118.9379992  63.4269978  33.0040014
 119.6169992  64.3939978  32.0570014 119.4963010  63.5867668  32.3599946
 119.5759992  63.6879978  27.2070014 118.6839992  63.3479978  27.1480014
 120.0269992  63.3109978  26.4510014 119.5147642  63.5904910  27.0967726
 125.1119992  64.1039978  26.0240014 124.7029992  64.9189978  25.7320014
 125.8319992  63.9639978  25.4100014 125.1534439  64.1965372  25.9010115
 124.2139992  64.2799978  37.5120014 123.6509992  63.5749978  37.8330014
 125.0399992  64.1589978  37.9800014 124.2486674  64.1672165  37.6191751
 126.1169992  63.5499978  28.8380014 125.9209992  64.1559978  28.1230014
 126.2979992  62.7169978  28.4040014 126.1146584  63.5202513  28.6814212
 117.3289992  63.7879978  34.1620014 117.2909992  64.1879978  35.0310014
 116.8389992  62.9709978  34.2520014 117.2575330  63.7322674  34.2931289
 120.6949992  61.1619978  20.9610014 120.2639992  60.7169978  21.6900014
 119.9769992  61.5329978  20.4480014 120.5389176  61.1512051  20.9914930
 113.9379992  60.9039978  28.0130014 114.5679992  60.8749978  28.7320014
 114.3869992  60.4789978  27.2820014 114.0850835  60.8425660  28.0127659
 115.2119992  61.6499978  23.4370014 115.6859992  62.2409978  22.8520014
 114.4939992  62.1799978  23.7840014 115.1798640  61.8025511  23.4037969
 125.3809992  65.1879978  33.5090014 125.7039992  64.5569978  32.8660014
 124.9399992  64.6539978  34.1700014 125.3656379  65.0293468  33.5102582
 122.1579992  61.1159978  28.2930014 121.2469992  61.1729978  28.5820014
 122.6629992  61.0559978  29.1040014 122.1016873  61.1156826  28.4421207
 116.9859992  62.7449978  27.1200014 116.0969992  62.8439978  26.7800014
 117.2829992  61.9029978  26.7740014 116.9044177  62.6447687  27.0266940
 120.6389992  62.7449978  24.7770014 121.5709992  62.8739978  24.9550014
 120.4239992  63.4139978  24.1270014 120.7374472  62.8530806  24.7134891
 126.5629992  60.3509978  31.5580014 125.8859992  60.4819978  32.2210014
 126.0779992  60.1959978  30.7470014 126.4047405  60.3479947  31.5392170
 119.3129992  63.9389978  22.3430014 118.7709992  63.5599978  21.6520014
 120.1469992  64.1339978  21.9150014 119.3514390  63.9134079  22.1904392
 129.8509992  76.0219978  37.8340014 130.0499992  76.4459978  37.0000014
 130.5059992  76.3659978  38.4410014 129.9668522  76.1266301  37.8017852
 117.4489992  68.4959978  37.4420014 118.1809992  68.7509978  38.0040014
 116.6679992  68.7009978  37.9580014 117.4436526  68.5585450  37.5885176
 123.4779992  63.9029978  30.1800014 124.0419992  63.3569978  29.6330014
 123.3299992  63.3819978  30.9690014 123.5353037  63.7576787  30.2117229
 118.4799992  60.0399978  26.5990014 118.1629992  59.1369978  26.5630014
 119.2609992  60.0419978  26.0460014 118.5422431  59.9167797  26.5193102
 122.1039992  62.2919978  32.5940014 121.2689992  62.7459978  32.7050014
 122.6279992  62.5679978  33.3460014 122.0606072  62.3913948  32.7108136
 122.6489992  68.5049978  24.2790014 121.9039992  67.9969978  23.9570014
 122.5139992  68.5539978  25.2250014 122.5288963  68.4421731  24.3628826
 129.7989992  67.6379978  33.0660014 130.4399992  68.0939978  32.5220014
 128.9679992  67.7509978  32.6030014 129.7745287  67.7156921  32.9289887
 126.5459992  61.3189978  22.4780014 125.6079992  61.4299978  22.3270014
 126.8439992  62.1749978  22.7850014 126.4576318  61.4500158  22.4988145
 124.1679992  68.6889978  35.5160014 123.8219992  68.3069978  36.3230014
 123.9679992  69.6219978  35.5870014 124.0935987  68.7629002  35.6360461
 127.2649992  63.1859978  24.1390014 128.1569992  63.0479978  24.4580014
 127.3209992  63.9769978  23.6020014 127.3947325  63.2739918  24.1101217
 117.7729992  67.7999978  30.0490014 118.5179992  67.7969978  29.4470014
 117.8509992  66.9759978  30.5300014 117.8853365  67.6882384  30.0317430
 124.7739992  69.9629978  23.3040014 124.4789992  70.7899978  23.6860014
 124.0709992  69.3439978  23.5010014 124.6386379  69.9924171  23.3828654
 114.7809992  66.2599978  35.3640014 115.0039992  65.8419978  36.1950014
 114.1789992  65.6479978  34.9410014 114.7301513  66.1199606  35.4206740
 121.7979992  65.7769978  37.5770014 121.5019992  65.6119978  36.6810014
 122.7289992  65.5569978  37.5660014 121.8834401  65.7246879  37.4530206
 126.4179992  71.1509978  35.4660014 125.5179992  71.3339978  35.1990014
 126.4519992  71.4099978  36.3870014 126.2993748  71.2110554  35.5539164
 132.1499992  63.3949978  23.8340014 131.5949992  62.9989978  23.1610014
 132.2499992  64.3059978  23.5560014 132.0876816  63.4639505  23.7045033
 132.1129992  69.1959978  36.6710014 131.2619992  69.4339978  36.3030014
 132.7029992  69.1789978  35.9180014 132.0763812  69.2262524  36.5188453
 130.4449992  72.1809978  24.2990014 130.0719992  71.3559978  24.6080014
 130.7219992  71.9979978  23.4010014 130.4313463  72.0432569  24.2199525
 127.6049992  66.9889978  31.3200014 126.6769992  66.7579978  31.2930014
 128.0559992  66.2119978  30.9900014 127.5388165  66.8522774  31.2716790
 120.1479992  71.3179978  27.4530014 120.6759992  72.0909978  27.2530014
 119.2679992  71.5419978  27.1510014 120.1013435  71.4542700  27.3847310
 115.9029992  66.1799978  22.0400014 116.5189992  66.8069978  22.4200014
 115.0409992  66.4959978  22.3120014 115.8707678  66.3084412  22.1287209
 121.5759992  68.9809978  27.0290014 121.3349992  69.9059978  27.0710014
 120.8349992  68.5219978  27.4260014 121.4429206  69.0455915  27.0883769
 122.0899992  73.1299978  33.3440014 122.4529992  73.9839978  33.1110014
 122.6219992  72.8379978  34.0850014 122.2115141  73.2073895  33.4122097
 120.2589992  74.0019978  26.5750014 119.3089992  74.1079978  26.6260014
 120.6109992  74.8229978  26.9190014 120.1765472  74.1274923  26.6284852
 125.6339992  69.2289978  33.0450014 125.2089992  69.0009978  33.8710014
 126.2149992  68.4899978  32.8630014 125.6543395  69.0979545  33.1334414
 127.8369992  70.1579978  22.1190014 128.1909992  69.7779978  22.9230014
 126.8889992  70.0639978  22.2060014 127.7572298  70.0932452  22.2408687
 128.2929992  73.7809978  35.5140014 127.6909992  73.2249978  35.0190014
 128.5739992  74.4479978  34.8880014 128.2485757  73.7950744  35.3615675
 132.3409992  74.6369978  22.3200014 133.0849992  75.2229978  22.1800014
 131.6469992  75.2059978  22.6530014 132.3489809  74.7940818  22.3458590
 116.4149992  61.0139978  34.9220014 115.5229992  61.3519978  34.8540014
 116.3169992  60.1579978  35.3400014 116.2794475  60.9446543  34.9691704
 128.7029992  68.8299978  24.3460014 128.4259992  68.1019978  24.9020014
 129.6309992  68.9489978  24.5510014 128.7904499  68.7464213  24.4498044
 116.0669992  72.8179978  33.3570014 116.2839992  71.8859978  33.3260014
 116.3129992  73.0929978  34.2400014 116.1299809  72.7275686  33.4721691
 121.9279992  71.2699978  20.5660014 122.1669992  70.5209978  20.0190014
 121.6589992  70.8819978  21.3990014 121.9243233  71.1151853  20.6037809
 120.8649992  70.8399978  23.0220014 121.0119992  70.3199978  23.8120014
 120.8619992  71.7469978  23.3290014 120.8847102  70.8913953  23.1715925
 117.3179992  68.0919978  23.5330014 116.6319992  68.4449978  24.1000014
 117.8409992  68.8549978  23.2860014 117.2948402  68.2433901  23.5771801
 125.1499992  60.7549978  33.8120014 125.8489992  60.8289978  34.4620014
 124.7689992  59.8899978  33.9660014 125.1942097  60.6482389  33.9217997
 125.9339992  60.4069978  24.9090014 126.1539992  60.8779978  24.1050014
 126.4929992  60.8009978  25.5790014 126.0396731  60.5247287  24.8895033
 123.6029992  72.5369978  23.7720014 122.7859992  73.0339978  23.8240014
 124.1319992  73.0129978  23.1310014 123.5628125  72.6691989  23.6925306
 123.1339992  62.1349978  25.7440014 123.9459992  62.6389978  25.7900014
 122.8899992  61.9899978  26.6580014 123.2121467  62.1843749  25.8738575
 123.6699992  63.1209978  34.9280014 123.7889992  63.6949978  35.6850014
 124.3249992  62.4329978  35.0430014 123.7748684  63.1065194  35.0471674
 124.0179992  59.2159978  26.6820014 123.6709992  59.8329978  27.3260014
 124.6769992  59.7169978  26.2000014 124.0595090  59.3681575  26.7050681
 120.9409992  73.5809978  23.7530014 121.1019992  74.3809978  23.2530014
 120.7439992  73.8879978  24.6380014 120.9363906  73.7318678  23.8042333
 119.6759992  60.2789978  23.3690014 119.5919992  61.1669978  23.7160014
 120.5659992  60.0139978  23.6010014 119.7848163  60.3647179  23.4478596
 129.8739992  61.0279978  35.7630014 128.9579992  61.2899978  35.6760014
 130.2099992  61.0249978  34.8670014 129.7938499  61.0635163  35.6298766
 128.4769992  64.7779978  29.8590014 127.6789992  64.3629978  29.5310014
 128.9219992  64.0879978  30.3500014 128.4279684  64.6278628  29.8805227
 117.9339992  70.7059978  22.4290014 118.5259992  71.4059978  22.7060014
 118.3929992  70.2729978  21.7100014 118.0771652  70.7432675  22.3696533
 116.2499992  63.3709978  21.5450014 116.2049992  64.3099978  21.7240014
 115.3619992  63.1349978  21.2760014 116.1238166  63.4676687  21.5331524
 129.5629992  74.0339978  31.4810014 129.4069992  74.7129978  30.8240014
 130.4959992  74.1059978  31.6840014 129.6677387  74.1366390  31.4185342
 117.0579992  58.1519978  30.2190014 116.8289992  58.2109978  29.2910014
 116.6159992  57.3609978  30.5250014 116.9668801  58.0530540  30.1334729
 115.9889992  72.0929978  26.3790014 115.1559992  72.5649978  26.4060014
 116.5339992  72.6029978  25.7800014 115.9487857  72.2264791  26.3017142
 115.2769992  74.7049978  37.7090014 115.8169992  74.4889978  38.4690014
 114.7959992  73.8999978  37.5190014 115.2859219  74.5665156  37.7874282
 119.8739992  73.6249978  39.3290014 120.6419992  73.1659978  39.6700014
 119.8529992  73.3989978  38.3990014 119.9762135  73.5316668  39.2499491
 123.9659992  73.1329978  20.7050014 123.3219992  72.5019978  21.0260014
 124.7279992  72.6019978  20.4730014 123.9808058  72.9747902  20.7176038
 126.4509992  72.0049978  38.0580014 126.0999992  71.1479978  38.3020014
 127.1769992  72.1469978  38.6650014 126.5011895  71.9071351  38.1733770
 128.5709992  72.9499978  20.9380014 128.8539992  72.1549978  21.3910014
 129.3099992  73.1829978  20.3770014 128.7097096  72.8727049  20.9241104
 115.1839992  68.5159978  38.6630014 115.3279992  67.6139978  38.3770014
 114.4119992  68.8019978  38.1760014 115.0992733  68.4311798  38.5579532
 119.5249992  68.8589978  20.7960014 119.5899992  68.0649978  21.3260014
 120.1779992  68.7409978  20.1060014 119.6221605  68.7343430  20.7752997
 121.8389992  68.4849978  38.0960014 121.5109992  68.7559978  37.2390014
 121.9909992  67.5439978  38.0080014 121.8146412  68.3949046  37.9667822
 124.8779992  69.9059978  20.5320014 124.6089992  70.0869978  21.4320014
 124.6709992  68.9809978  20.4000014 124.8131191  69.8057119  20.6375524
 127.5739992  68.4009978  35.4790014 128.3189992  68.9899978  35.3600014
 126.8169992  68.9829978  35.5430014 127.5735470  68.5602128  35.4713799
 116.0169992  65.7159978  38.0830014 116.4249992  64.8589978  37.9620014
 115.7559992  65.7299978  39.0040014 116.0376016  65.6005119  38.1909192
 120.6749992  66.8319978  23.1020014 120.2149992  66.3479978  23.7870014
 120.9299992  66.1629978  22.4660014 120.6464856  66.6753669  23.1098397
 119.9639992  64.7249978  35.4580014 119.3449992  65.3989978  35.7380014
 120.3079992  65.0459978  34.6240014 119.9257123  64.8606887  35.3836388
 121.7459992  65.0749978  21.3640014 121.5649992  64.9199978  20.4370014
 122.6959992  65.1829978  21.4090014 121.8496566  65.0683669  21.2430929
 124.9829992  67.1959978  38.7350014 125.9369992  67.2799978  38.7080014
 124.8229992  66.4839978  39.3550014 125.0917182  67.1112842  38.8150733
 131.1359992  67.4289978  20.8100014 130.8619992  67.0049978  19.9970014
 131.1749992  68.3609978  20.5930014 131.1037716  67.4968827  20.6694286
 120.3029992  62.0799978  36.5400014 120.4529992  61.3509978  35.9380014
 120.3049992  62.8569978  35.9810014 120.3237967  62.0852708  36.3820541
 120.7159992  60.4489978  34.0330014 121.2509992  60.9009978  33.3810014
 119.8629992  60.3409978  33.6100014 120.6740374  60.4962665  33.8866710
 122.2969992  65.8889978  34.2720014 123.0479992  65.7329978  33.6990014
 121.9579992  66.7409978  33.9970014 122.3539587  65.9828138  34.1564078
 126.7129992  63.7039978  39.3010014 126.9049992  62.7729978  39.1890014
 127.5709992  64.1289978  39.2900014 126.8552182  63.6340070  39.2841862
 128.0299992  66.4929978  37.3780014 127.7479992  67.2019978  36.8000014
 128.9719992  66.4199978  37.2270014 128.1187921  66.5802193  37.2784225
 118.7819992  63.2779978  38.4510014 118.0139992  62.7449978  38.2410014
 119.4599992  62.9679978  37.8520014 118.7687235  63.1631754  38.3412413
 121.5209992  57.9059978  34.4640014 121.4229992  58.8519978  34.3590014
 120.7789992  57.5329978  33.9880014 121.4072534  57.9851773  34.3852600
 122.7849992  62.2269978  38.0280014 122.5499992  62.0079978  38.9290014
 122.0019992  62.0199978  37.5180014 122.6469095  62.1689892  38.0825353
 125.5009992  61.3549978  37.1030014 124.5529992  61.3869978  37.2350014
 125.8129992  60.7289978  37.7570014 125.4135293  61.2747923  37.2094148
 127.1349992  59.9889978  39.1080014 127.0379992  59.0369978  39.1030014
 126.8129992  60.2569978  39.9690014 127.0782468  59.8950884  39.2236210
 116.9619992  61.1979978  38.1560014 117.1739992  60.4919978  37.5460014
 116.8509992  60.7609978  39.0000014 116.9760269  61.0421921  38.1865873
 121.7429992  57.1999978  37.1350014 122.4549992  56.5599978  37.1210014
 121.6419992  57.4659978  36.2220014 121.8267387  57.1484330  37.0095563
 122.0969992  58.8819978  39.1890014 121.9649992  58.4069978  38.3690014
 121.4969992  59.6269978  39.1340014 121.9979070  58.9175789  39.0693251
 121.6429992  75.7649978  22.3650014 122.5759992  75.9229978  22.5090014
 121.3789992  76.4409978  21.7400014 121.7349911  75.8779373  22.3002722
 115.2109992  70.4019978  21.8480014 116.1249992  70.4809978  22.1210014
 115.2189992  69.7149978  21.1820014 115.3370655  70.3199205  21.7952917
 113.8599992  75.7949978  26.9250014 113.2129992  75.3329978  26.3930014
 114.2149992  75.1229978  27.5080014 113.8193741  75.6409774  26.9309175
 114.7299992  73.8749978  28.7300014 114.3959992  72.9949978  28.9020014
 114.9529992  74.2209978  29.5950014 114.7143721  73.8011938  28.8704168
 132.2789992  74.6849978  31.7110014 132.2569992  74.8699978  32.6500014
 132.9689992  75.2529978  31.3700014 132.3693439  74.7871887  31.7934791
 131.8419992  74.2519978  34.6320014 131.3549992  73.5169978  34.2610014
 132.3909992  73.8579978  35.3100014 131.8495247  74.0981057  34.6728461
 130.2929992  70.0419978  39.2710014 129.4269992  69.9369978  39.6650014
 130.6689992  70.7999978  39.7170014 130.2253401  70.1301708  39.3852620
 131.5939992  68.2979978  24.7850014 132.4439992  68.7189978  24.9120014
 131.5989992  67.5579978  25.3920014 131.7111143  68.2556094  24.8844750
 131.9879992  66.3519978  26.6080014 131.2619992  65.8719978  27.0060014
 132.5699992  66.5569978  27.3410014 131.9672730  66.3140184  26.7614149
 131.7469992  69.1369978  31.5560014 132.5809992  68.7589978  31.2750014
 131.8589992  70.0799978  31.4370014 131.8761917  69.2127943  31.5014861
 130.2339992  72.0149978  33.8630014 129.5859992  72.3399978  34.4880014
 129.7159992  71.5739978  33.1890014 130.0754196  71.9998651  33.8574152
 132.2569992  66.2529978  22.9990014 131.7349992  66.6089978  22.2810014
 132.2239992  66.9279978  23.6780014 132.1810129  66.3929598  22.9923355
 130.6059992  63.4919978  21.5500014 130.7019992  64.1589978  20.8700014
 130.4659992  62.6769978  21.0690014 130.6002040  63.4730671  21.3918378
 129.7749992  64.8729978  27.1710014 129.6249992  63.9279978  27.1510014
 129.4209992  65.1539978  28.0150014 129.7066351  64.7816644  27.2823220
 114.8099992  66.9509978  31.1820014 114.9949992  66.8689978  30.2460014
 115.6599992  66.8269978  31.6050014 114.9500928  66.9230463  31.1112893
 130.6309992  66.8429978  36.8100014 131.2139992  66.1079978  37.0020014
 131.1949992  67.6149978  36.8570014 130.7869781  66.8468145  36.8426164
 132.1279992  64.7459978  37.4950014 131.2649992  64.3669978  37.3290014
 132.7319992  64.0069978  37.4200014 132.0916085  64.5943223  37.4621695
 129.8529992  60.8999978  20.6680014 130.4639992  60.5289978  21.3050014
 129.0159992  60.4789978  20.8640014 129.8234947  60.7922756  20.7817252
 129.4859992  62.4549978  25.6340014 129.7649992  61.5479978  25.7580014
 130.2449992  62.8889978  25.2450014 129.6268619  62.3894502  25.5983795
 130.0969992  63.0369978  31.0700014 131.0299992  63.2489978  31.0350014
 129.8619992  63.1379978  31.9920014 130.1929517  63.0796833  31.1899130
 130.1269992  63.7739978  33.8460014 129.2839992  64.0419978  34.2120014
 130.5689992  64.5959978  33.6350014 130.0714138  63.9218273  33.8675518
 114.4079992  62.2209978  37.3220014 115.3269992  62.0989978  37.5590014
 113.9579992  61.4709978  37.7120014 114.4730087  62.1029608  37.4071410
 132.4099992  57.7539978  39.1990014 132.7589992  57.0999978  38.5940014
 132.5569992  58.5909978  38.7590014 132.4776824  57.7776024  39.0566304
 130.0989992  59.7179978  25.6820014 130.2809992  59.2689978  26.5070014
 129.4989992  59.1339978  25.2180014 130.0428187  59.5775552  25.7322739
 115.6289992  60.5339978  30.2140014 116.0739992  59.7419978  30.5160014
 116.0949992  61.2499978  30.6440014 115.7529718  60.5224534  30.3135265
 113.9329992  63.5329978  31.2830014 114.4249992  63.3119978  30.4920014
 114.2949992  64.3729978  31.5640014 114.0492923  63.6163468  31.2127407
 131.9289992  59.8629978  37.5480014 131.0119992  60.1339978  37.5130014
 132.0519992  59.3279978  36.7640014 131.8199672  59.8277885  37.4371862
 131.9659992  59.7859978  22.2100014 132.3779992  59.0649978  21.7350014
 132.6469992  60.4549978  22.2680014 132.1145536  59.7777766  22.1528024
 114.2469992  59.7909978  25.3370014 113.3219992  59.9989978  25.2080014
 114.7009992  60.2749978  24.6470014 114.1816298  59.8849299  25.2260451
 129.0169992  74.7749978  27.2830014 129.6699992  74.4269978  26.6750014
 129.5279992  75.2629978  27.9290014 129.1752777  74.7933815  27.2872047
 114.2099992  58.5289978  33.6810014 113.5449992  58.2829978  34.3240014
 113.7669992  59.1509978  33.1040014 114.0591168  58.5794214  33.6909848
 116.4019992  71.7039978  37.8260014 115.5809992  71.8789978  37.3650014
 116.1499992  71.6309978  38.7460014 116.2555594  71.7180717  37.8873611
 119.3559992  72.6779978  34.0840014 118.9319992  73.4879978  33.8020014
 120.2609992  72.7639978  33.7820014 119.4202138  72.8004160  34.0046415
 123.6679992  74.0769978  37.0440014 123.8519992  73.7439978  37.9220014
 124.5139992  74.3869978  36.7220014 123.8076484  74.0732979  37.1207617
 126.0129992  75.3629978  36.2880014 126.6899992  74.7299978  36.0480014
 126.3339992  75.7639978  37.0950014 126.1491323  75.3305691  36.3643158
 130.9299992  57.9529978  35.3670014 130.1169992  58.2779978  34.9800014
 131.1629992  57.1919978  34.8340014 130.8501347  57.8946880  35.2419841
 116.7579992  75.9349978  34.1320014 116.0379992  76.3749978  33.6810014
 116.3929992  75.6839978  34.9800014 116.6099643  75.9613369  34.1849129
 119.2249992  75.5349978  33.1620014 118.3609992  75.6069978  33.5660014
 119.1699992  76.0819978  32.3780014 119.0991942  75.6187849  33.1114000
 123.9359992  75.4229978  32.3370014 123.4789992  75.9519978  31.6830014
 124.0989992  76.0259978  33.0620014 123.8954960  75.5769280  32.3455274
 126.2639992  74.3009978  33.2820014 125.3589992  74.4659978  33.0160014
 126.6919992  75.1539978  33.2160014 126.1981537  74.4389134  33.2367095
 128.8679992  75.8709978  33.5770014 128.6859992  76.7869978  33.3660014
 129.0449992  75.4599978  32.7300014 128.8670030  75.9408273  33.4337166
 116.1729992  74.5579978  31.0420014 116.1549992  74.1319978  31.8990014
 116.9779992  74.2389978  30.6330014 116.2792875  74.4566435  31.1039515
 118.3139992  73.2679978  29.6970014 118.0949992  72.3509978  29.8670014
 119.1379992  73.4079978  30.1630014 118.3954702  73.1615511  29.7832527
 120.8509992  73.7379978  30.5460014 121.0639992  72.8499978  30.2590014
 120.9159992  73.7029978  31.5000014 120.8889149  73.6118326  30.6357369
 124.3599992  59.4019978  29.6900014 123.6859992  58.7719978  29.9460014
 124.9239992  58.9179978  29.0870014 124.3440384  59.2503708  29.6435020
 129.5029992  57.5089978  29.8030014 130.1059992  58.0569978  29.3010014
 128.6329992  57.8279978  29.5620014 129.4679157  57.6270373  29.7017910
 131.2299992  58.6479978  28.1360014 131.8409992  58.1339978  27.6090014
 131.6119992  59.5249978  28.1590014 131.3653305  58.6962050  28.0669418
 116.6869992  58.0359978  27.5120014 115.9099992  57.8009978  27.0050014
 117.2169992  57.2389978  27.5210014 116.6523451  57.8961268  27.4438627
 115.5229992  57.8339978  23.3160014 115.9619992  58.4449978  22.7240014
 114.8889992  58.3719978  23.7900014 115.4973859  57.9904064  23.2990305
 121.2659992  57.9619978  27.3250014 122.1399992  58.3509978  27.2960014
 121.1299992  57.7469978  28.2480014 121.3671953  57.9861643  27.4457617
 126.8229992  57.9919978  28.9750014 126.8989992  58.0879978  28.0250014
 126.5479992  57.0849978  29.1030014 126.7961871  57.8824146  28.8623944
 128.1759992  58.0179978  24.6670014 127.4729992  58.6329978  24.4570014
 127.7309992  57.1809978  24.7980014 128.0196550  57.9889668  24.6559837
 115.4239992  73.7819978  24.2130014 114.7389992  73.7439978  23.5460014
 115.4279992  74.6949978  24.5010014 115.3307621  73.9001924  24.1606126
 117.3839992  59.7499978  21.7580014 117.8749992  59.1199978  21.2310014
 118.0069992  60.0459978  22.4210014 117.5355304  59.7037376  21.7754940
 122.4099992  60.0429978  24.2150014 122.5879992  59.3959978  24.8980014
 122.3559992  60.8769978  24.6820014 122.4270678  60.0671604  24.3716301
 124.2879992  74.9909978  22.6110014 125.1539992  75.3579978  22.4330014
 124.0419992  74.5519978  21.7970014 124.3732097  74.9818525  22.4766019
 130.9969992  74.5539978  25.2900014 130.8029992  73.8059978  24.7250014
 130.9579992  75.3119978  24.7070014 130.9651645  74.5540786  25.1338148
 116.6439992  58.5499978  37.0300014 116.2779992  57.7839978  37.4720014
 117.5569992  58.5789978  37.3160014 116.7173172  58.4490324  37.1291890
 118.6169992  57.8999978  38.5650014 119.5159992  57.6259978  38.3810014
 118.2309992  57.1579978  39.0300014 118.6877307  57.7622196  38.6027098
 117.2419992  74.7019978  21.2380014 116.9739992  74.9879978  22.1120014
 118.0129992  74.1559978  21.3910014 117.3095927  74.6672779  21.3781205
 127.0389992  57.2329978  38.7480014 127.1149992  56.8069978  39.6010014
 127.9319992  57.2459978  38.4050014 127.1702303  57.1763493  38.8185497
 130.2149992  73.3059978  37.4400014 129.4329992  73.1189978  36.9200014
 130.1429992  74.2349978  37.6570014 130.0981924  73.4060637  37.3981602
 144.6209992  67.1919978  27.4710014 144.7099992  68.1359978  27.3390014
 143.9829992  66.9169978  26.8130014 144.5469062  67.2839812  27.3639641
 143.5539992  66.4469978  30.8900014 143.5159992  65.8009978  31.5950014
 143.2319992  65.9799978  30.1190014 143.5052679  66.2954276  30.8822921
 135.9219992  66.0609978  32.4830014 135.9639992  65.4359978  33.2060014
 136.6249992  66.6849978  32.6650014 136.0227345  66.0597873  32.6065274
 136.8459992  70.5109978  31.0180014 136.4759992  69.7089978  30.6480014
 137.7869992  70.3429978  31.0640014 136.9225984  70.3784638  30.9735603
 133.4559992  64.1709978  26.4100014 133.0079992  65.0169978  26.3920014
 132.8949992  63.5919978  25.8950014 133.3188546  64.2083993  26.3378891
 134.1659992  66.3329978  28.5360014 134.3799992  65.5629978  29.0640014
 134.9039992  66.4229978  27.9330014 134.2950200  66.2398587  28.5267035
 144.3719992  74.4899978  29.4030014 144.9909992  73.8139978  29.1300014
 144.1629992  74.2719978  30.3120014 144.4286056  74.3678869  29.4883967
 141.9429992  68.8789978  31.2960014 142.2469992  68.1929978  30.7010014
 142.6649992  68.9979978  31.9140014 142.0821240  68.8012314  31.2980959
 145.0839992  63.2729978  31.6230014 145.2269992  62.3269978  31.6430014
 144.9779992  63.4799978  30.6950014 145.0892403  63.1714797  31.5002239
 138.2389992  61.3749978  28.8960014 138.2819992  62.2349978  28.4770014
 137.7809992  60.8229978  28.2620014 138.1829871  61.4179245  28.7530761
 134.8589992  63.7719978  29.6580014 135.5129992  63.2219978  30.0900014
 134.8829992  63.4979978  28.7410014 134.9517199  63.6597167  29.5931668
 140.0159992  65.3219978  28.8730014 140.6319992  64.7949978  29.3820014
 139.4289992  64.6819978  28.4690014 140.0210154  65.1633954  28.8880945
 137.0489992  60.2929978  32.9700014 136.8299992  60.8229978  32.2030014
 136.3809992  60.5189978  33.6170014 136.9286975  60.3960967  32.9525140
 144.4179992  69.7929978  26.5140014 144.1229992  69.4699978  25.6620014
 144.0939992  70.6929978  26.5550014 144.3338460  69.8704464  26.4029714
 139.6179992  67.9679978  33.2570014 138.8779992  68.5669978  33.3610014
 140.3319992  68.5219978  32.9420014 139.6133500  68.1247829  33.2286371
 136.6429992  62.1849978  30.9220014 137.2569992  62.8179978  31.2950014
 137.1549992  61.7129978  30.2660014 136.7961962  62.2077249  30.8842935
 138.0259992  69.9329978  34.0440014 138.0199992  70.8119978  33.6660014
 137.1719992  69.8489978  34.4690014 137.9097925  70.0419535  34.0496887
 134.1469992  69.6039978  24.8260014 133.8749992  69.8329978  23.9380014
 134.1919992  70.4409978  25.2870014 134.1158097  69.7486163  24.7666683
 141.0759992  57.5979978  30.4220014 140.9579992  56.6499978  30.3680014
 140.2209992  57.9309978  30.6950014 140.9442805  57.5132202  30.4515079
 143.3419992  66.4359978  24.9230014 142.6309992  66.9709978  24.5710014
 144.0329992  66.4909978  24.2630014 143.3380751  66.5166777  24.7855858
 143.3959992  64.8929978  21.9610014 144.0969992  64.9159978  22.6130014
 143.6979992  64.2649978  21.3050014 143.5328202  64.8112212  21.9615609
 138.3929992  67.2759978  27.7570014 138.0629992  66.9049978  26.9390014
 138.9819992  66.6049978  28.1040014 138.4273970  67.1346063  27.6919404
 139.7599992  70.7039978  30.4380014 139.6649992  70.1249978  29.6820014
 140.4889992  70.3329978  30.9340014 139.8456011  70.5745561  30.4016028
 138.7599992  66.0439978  31.3900014 139.3249992  66.1659978  30.6280014
 139.0789992  66.6819978  32.0290014 138.8804166  66.1468791  31.3720348
 145.0689992  71.5479978  32.1240014 144.8289992  72.2099978  32.7720014
 144.8709992  70.7129978  32.5490014 145.0093826  71.5258115  32.2701566
 139.6399992  70.4439978  36.1080014 139.3289992  71.2259978  36.5630014
 138.9899992  70.2909978  35.4220014 139.5095538  70.5304087  36.0775898
 136.5599992  66.6419978  35.3360014 136.6299992  67.2929978  36.0350014
 135.6689992  66.7449978  35.0010014 136.4491690  66.7449249  35.3863043
 143.3449992  72.5439978  26.9950014 143.8189992  72.8399978  27.7720014
 142.7819992  73.2829978  26.7620014 143.3337890  72.6843036  27.0698101
 137.8789992  72.5149978  36.8710014 137.8869992  72.3789978  35.9240014
 136.9629992  72.3979978  37.1230014 137.7562528  72.4805463  36.7753243
 137.3839992  66.3449978  25.3460014 137.0919992  67.1129978  24.8550014
 136.7089992  65.6859978  25.1830014 137.2528497  66.3609745  25.2568260
 133.4769992  68.7079978  34.1610014 132.9749992  68.6799978  33.3460014
 133.4819992  67.8029978  34.4710014 133.4089832  68.5817486  34.0914121
 133.2269992  71.4889978  31.0450014 134.1729992  71.3439978  31.0260014
 133.1139992  72.2729978  31.5820014 133.3413578  71.5751697  31.1150317
 142.4029992  71.7289978  35.6040014 142.4909992  72.5549978  36.0790014
 141.5399992  71.3989978  35.8530014 142.2983357  71.7975468  35.7027653
 142.8179992  75.5009978  25.4100014 142.7419992  75.3799978  24.4630014
 142.8499992  76.4499978  25.5280014 142.8119380  75.6127677  25.2965181
 136.4709992  74.2899978  27.1910014 136.6229992  73.9419978  28.0690014
 135.6199992  73.9329978  26.9350014 136.3768344  74.1940879  27.2766868
 135.7259992  70.0319978  35.2040014 135.9419992  69.6699978  36.0640014
 134.8699992  69.6569978  34.9950014 135.6398810  69.9318837  35.2932680
 138.3439992  58.5019978  31.2000014 137.4829992  58.4149978  30.7920014
 138.3219992  59.3579978  31.6280014 138.2230491  58.6058003  31.2019582
 143.0069992  58.2239978  34.5750014 143.4269992  57.8089978  35.3280014
 142.0739992  58.0449978  34.6920014 142.9383736  58.1429910  34.6938968
 142.6689992  60.7159978  21.8600014 142.4149992  60.7349978  22.7820014
 142.4119992  59.8449978  21.5580014 142.5994508  60.6008280  21.9454803
 138.4349992  63.4669978  32.2950014 137.7939992  63.4269978  33.0040014
 138.4729992  64.3939978  32.0570014 138.3523010  63.5867668  32.3599946
 138.4319992  63.6879978  27.2070014 137.5399992  63.3479978  27.1480014
 138.8829992  63.3109978  26.4510014 138.3707642  63.5904910  27.0967726
 143.9679992  64.1039978  26.0240014 143.5589992  64.9189978  25.7320014
 144.6879992  63.9639978  25.4100014 144.0094439  64.1965372  25.9010115
 143.0699992  64.2799978  37.5120014 142.5069992  63.5749978  37.8330014
 143.8959992  64.1589978  37.9800014 143.1046674  64.1672165  37.6191751
 144.9729992  63.5499978  28.8380014 144.7769992  64.1559978  28.1230014
 145.1539992  62.7169978  28.4040014 144.9706584  63.5202513  28.6814212
 136.1849992  63.7879978  34.1620014 136.1469992  64.1879978  35.0310014
 135.6949992  62.9709978  34.2520014 136.1135330  63.7322674  34.2931289
 139.5509992  61.1619978  20.9610014 139.1199992  60.7169978  21.6900014
 138.8329992  61.5329978  20.4480014 139.3949176  61.1512051  20.9914930
 132.7939992  60.9039978  28.0130014 133.4239992  60.8749978  28.7320014
 133.2429992  60.4789978  27.2820014 132.9410835  60.8425660  28.0127659
 134.0679992  61.6499978  23.4370014 134.5419992  62.2409978  22.8520014
 133.3499992  62.1799978  23.7840014 134.0358640  61.8025511  23.4037969
 144.2369992  65.1879978  33.5090014 144.5599992  64.5569978  32.8660014
 143.7959992  64.6539978  34.1700014 144.2216379  65.0293468  33.5102582
 141.0139992  61.1159978  28.2930014 140.1029992  61.1729978  28.5820014
 141.5189992  61.0559978  29.1040014 140.9576873  61.1156826  28.4421207
 135.8419992  62.7449978  27.1200014 134.9529992  62.8439978  26.7800014
 136.1389992  61.9029978  26.7740014 135.7604177  62.6447687  27.0266940
 139.4949992  62.7449978  24.7770014 140.4269992  62.8739978  24.9550014
 139.2799992  63.4139978  24.1270014 139.5934472  62.8530806  24.7134891
 145.4189992  60.3509978  31.5580014 144.7419992  60.4819978  32.2210014
 144.9339992  60.1959978  30.7470014 145.2607405  60.3479947  31.5392170
 138.1689992  63.9389978  22.3430014 137.6269992  63.5599978  21.6520014
 139.0029992  64.1339978  21.9150014 138.2074390  63.9134079  22.1904392
 136.3049992  68.4959978  37.4420014 137.0369992  68.7509978  38.0040014
 135.5239992  68.7009978  37.9580014 136.2996526  68.5585450  37.5885176
 142.3339992  63.9029978  30.1800014 142.8979992  63.3569978  29.6330014
 142.1859992  63.3819978  30.9690014 142.3913037  63.7576787  30.2117229
 137.3359992  60.0399978  26.5990014 137.0189992  59.1369978  26.5630014
 138.1169992  60.0419978  26.0460014 137.3982431  59.9167797  26.5193102
 140.9599992  62.2919978  32.5940014 140.1249992  62.7459978  32.7050014
 141.4839992  62.5679978  33.3460014 140.9166072  62.3913948  32.7108136
 141.5049992  68.5049978  24.2790014 140.7599992  67.9969978  23.9570014
 141.3699992  68.5539978  25.2250014 141.3848963  68.4421731  24.3628826
 145.4019992  61.3189978  22.4780014 144.4639992  61.4299978  22.3270014
 145.6999992  62.1749978  22.7850014 145.3136318  61.4500158  22.4988145
 143.0239992  68.6889978  35.5160014 142.6779992  68.3069978  36.3230014
 142.8239992  69.6219978  35.5870014 142.9495987  68.7629002  35.6360461
 136.6289992  67.7999978  30.0490014 137.3739992  67.7969978  29.4470014
 136.7069992  66.9759978  30.5300014 136.7413365  67.6882384  30.0317430
 143.6299992  69.9629978  23.3040014 143.3349992  70.7899978  23.6860014
 142.9269992  69.3439978  23.5010014 143.4946379  69.9924171  23.3828654
 133.6369992  66.2599978  35.3640014 133.8599992  65.8419978  36.1950014
 133.0349992  65.6479978  34.9410014 133.5861513  66.1199606  35.4206740
 140.6539992  65.7769978  37.5770014 140.3579992  65.6119978  36.6810014
 141.5849992  65.5569978  37.5660014 140.7394401  65.7246879  37.4530206
 145.2739992  71.1509978  35.4660014 144.3739992  71.3339978  35.1990014
 145.3079992  71.4099978  36.3870014 145.1553748  71.2110554  35.5539164
 139.0039992  71.3179978  27.4530014 139.5319992  72.0909978  27.2530014
 138.1239992  71.5419978  27.1510014 138.9573435  71.4542700  27.3847310
 134.7589992  66.1799978  22.0400014 135.3749992  66.8069978  22.4200014
 133.8969992  66.4959978  22.3120014 134.7267678  66.3084412  22.1287209
 140.4319992  68.9809978  27.0290014 140.1909992  69.9059978  27.0710014
 139.6909992  68.5219978  27.4260014 140.2989206  69.0455915  27.0883769
 140.9459992  73.1299978  33.3440014 141.3089992  73.9839978  33.1110014
 141.4779992  72.8379978  34.0850014 141.0675141  73.2073895  33.4122097
 139.1149992  74.0019978  26.5750014 138.1649992  74.1079978  26.6260014
 139.4669992  74.8229978  26.9190014 139.0325472  74.1274923  26.6284852
 144.4899992  69.2289978  33.0450014 144.0649992  69.0009978  33.8710014
 145.0709992  68.4899978  32.8630014 144.5103395  69.0979545  33.1334414
 135.2709992  61.0139978  34.9220014 134.3789992  61.3519978  34.8540014
 135.1729992  60.1579978  35.3400014 135.1354475  60.9446543  34.9691704
 134.9229992  72.8179978  33.3570014 135.1399992  71.8859978  33.3260014
 135.1689992  73.0929978  34.2400014 134.9859809  72.7275686  33.4721691
 140.7839992  71.2699978  20.5660014 141.0229992  70.5209978  20.0190014
 140.5149992  70.8819978  21.3990014 140.7803233  71.1151853  20.6037809
 139.7209992  70.8399978  23.0220014 139.8679992  70.3199978  23.8120014
 139.7179992  71.7469978  23.3290014 139.7407102  70.8913953  23.1715925
 136.1739992  68.0919978  23.5330014 135.4879992  68.4449978  24.1000014
 136.6969992  68.8549978  23.2860014 136.1508402  68.2433901  23.5771801
 144.0059992  60.7549978  33.8120014 144.7049992  60.8289978  34.4620014
 143.6249992  59.8899978  33.9660014 144.0502097  60.6482389  33.9217997
 144.7899992  60.4069978  24.9090014 145.0099992  60.8779978  24.1050014
 145.3489992  60.8009978  25.5790014 144.8956731  60.5247287  24.8895033
 142.4589992  72.5369978  23.7720014 141.6419992  73.0339978  23.8240014
 142.9879992  73.0129978  23.1310014 142.4188125  72.6691989  23.6925306
 141.9899992  62.1349978  25.7440014 142.8019992  62.6389978  25.7900014
 141.7459992  61.9899978  26.6580014 142.0681467  62.1843749  25.8738575
 142.5259992  63.1209978  34.9280014 142.6449992  63.6949978  35.6850014
 143.1809992  62.4329978  35.0430014 142.6308684  63.1065194  35.0471674
 142.8739992  59.2159978  26.6820014 142.5269992  59.8329978  27.3260014
 143.5329992  59.7169978  26.2000014 142.9155090  59.3681575  26.7050681
 139.7969992  73.5809978  23.7530014 139.9579992  74.3809978  23.2530014
 139.5999992  73.8879978  24.6380014 139.7923906  73.7318678  23.8042333
 138.5319992  60.2789978  23.3690014 138.4479992  61.1669978  23.7160014
 139.4219992  60.0139978  23.6010014 138.6408163  60.3647179  23.4478596
 136.7899992  70.7059978  22.4290014 137.3819992  71.4059978  22.7060014
 137.2489992  70.2729978  21.7100014 136.9331652  70.7432675  22.3696533
 135.1059992  63.3709978  21.5450014 135.0609992  64.3099978  21.7240014
 134.2179992  63.1349978  21.2760014 134.9798166  63.4676687  21.5331524
 135.9139992  58.1519978  30.2190014 135.6849992  58.2109978  29.2910014
 135.4719992  57.3609978  30.5250014 135.8228801  58.0530540  30.1334729
 134.8449992  72.0929978  26.3790014 134.0119992  72.5649978  26.4060014
 135.3899992  72.6029978  25.7800014 134.8047857  72.2264791  26.3017142
 134.1329992  74.7049978  37.7090014 134.6729992  74.4889978  38.4690014
 133.6519992  73.8999978  37.5190014 134.1419219  74.5665156  37.7874282
 138.7299992  73.6249978  39.3290014 139.4979992  73.1659978  39.6700014
 138.7089992  73.3989978  38.3990014 138.8322135  73.5316668  39.2499491
 142.8219992  73.1329978  20.7050014 142.1779992  72.5019978  21.0260014
 143.5839992  72.6019978  20.4730014 142.8368058  72.9747902  20.7176038
 145.3069992  72.0049978  38.0580014 144.9559992  71.1479978  38.3020014
 146.0329992  72.1469978  38.6650014 145.3571895  71.9071351  38.1733770
 134.0399992  68.5159978  38.6630014 134.1839992  67.6139978  38.3770014
 133.2679992  68.8019978  38.1760014 133.9552733  68.4311798  38.5579532
 138.3809992  68.8589978  20.7960014 138.4459992  68.0649978  21.3260014
 139.0339992  68.7409978  20.1060014 138.4781605  68.7343430  20.7752997
 140.6949992  68.4849978  38.0960014 140.3669992  68.7559978  37.2390014
 140.8469992  67.5439978  38.0080014 140.6706412  68.3949046  37.9667822
 143.7339992  69.9059978  20.5320014 143.4649992  70.0869978  21.4320014
 143.5269992  68.9809978  20.4000014 143.6691191  69.8057119  20.6375524
 134.8729992  65.7159978  38.0830014 135.2809992  64.8589978  37.9620014
 134.6119992  65.7299978  39.0040014 134.8936016  65.6005119  38.1909192
 139.5309992  66.8319978  23.1020014 139.0709992  66.3479978  23.7870014
 139.7859992  66.1629978  22.4660014 139.5024856  66.6753669  23.1098397
 138.8199992  64.7249978  35.4580014 138.2009992  65.3989978  35.7380014
 139.1639992  65.0459978  34.6240014 138.7817123  64.8606887  35.3836388
 140.6019992  65.0749978  21.3640014 140.4209992  64.9199978  20.4370014
 141.5519992  65.1829978  21.4090014 140.7056566  65.0683669  21.2430929
 143.8389992  67.1959978  38.7350014 144.7929992  67.2799978  38.7080014
 143.6789992  66.4839978  39.3550014 143.9477182  67.1112842  38.8150733
 139.1589992  62.0799978  36.5400014 139.3089992  61.3509978  35.9380014
 139.1609992  62.8569978  35.9810014 139.1797967  62.0852708  36.3820541
 139.5719992  60.4489978  34.0330014 140.1069992  60.9009978  33.3810014
 138.7189992  60.3409978  33.6100014 139.5300374  60.4962665  33.8866710
 141.1529992  65.8889978  34.2720014 141.9039992  65.7329978  33.6990014
 140.8139992  66.7409978  33.9970014 141.2099587  65.9828138  34.1564078
 145.5689992  63.7039978  39.3010014 145.7609992  62.7729978  39.1890014
 146.4269992  64.1289978  39.2900014 145.7112182  63.6340070  39.2841862
 137.6379992  63.2779978  38.4510014 136.8699992  62.7449978  38.2410014
 138.3159992  62.9679978  37.8520014 137.6247235  63.1631754  38.3412413
 140.3769992  57.9059978  34.4640014 140.2789992  58.8519978  34.3590014
 139.6349992  57.5329978  33.9880014 140.2632534  57.9851773  34.3852600
 141.6409992  62.2269978  38.0280014 141.4059992  62.0079978  38.9290014
 140.8579992  62.0199978  37.5180014 141.5029095  62.1689892  38.0825353
 144.3569992  61.3549978  37.1030014 143.4089992  61.3869978  37.2350014
 144.6689992  60.7289978  37.7570014 144.2695293  61.2747923  37.2094148
 135.8179992  61.1979978  38.1560014 136.0299992  60.4919978  37.5460014
 135.7069992  60.7609978  39.0000014 135.8320269  61.0421921  38.1865873
 140.5989992  57.1999978  37.1350014 141.3109992  56.5599978  37.1210014
 140.4979992  57.4659978  36.2220014 140.6827387  57.1484330  37.0095563
 140.9529992  58.8819978  39.1890014 140.8209992  58.4069978  38.3690014
 140.3529992  59.6269978  39.1340014 140.8539070  58.9175789  39.0693251
 140.4989992  75.7649978  22.3650014 141.4319992  75.9229978  22.5090014
 140.2349992  76.4409978  21.7400014 140.5909911  75.8779373  22.3002722
 134.0669992  70.4019978  21.8480014 134.9809992  70.4809978  22.1210014
 134.0749992  69.7149978  21.1820014 134.1930655  70.3199205  21.7952917
 132.7159992  75.7949978  26.9250014 132.0689992  75.3329978  26.3930014
 133.0709992  75.1229978  27.5080014 132.6753741  75.6409774  26.9309175
 133.5859992  73.8749978  28.7300014 133.2519992  72.9949978  28.9020014
 133.8089992  74.2209978  29.5950014 133.5703721  73.8011938  28.8704168
 133.6659992  66.9509978  31.1820014 133.8509992  66.8689978  30.2460014
 134.5159992  66.8269978  31.6050014 133.8060928  66.9230463  31.1112893
 133.2639992  62.2209978  37.3220014 134.1829992  62.0989978  37.5590014
 132.8139992  61.4709978  37.7120014 133.3290087  62.1029608  37.4071410
 134.4849992  60.5339978  30.2140014 134.9299992  59.7419978  30.5160014
 134.9509992  61.2499978  30.6440014 134.6089718  60.5224534  30.3135265
 132.7889992  63.5329978  31.2830014 133.2809992  63.3119978  30.4920014
 133.1509992  64.3729978  31.5640014 132.9052923  63.6163468  31.2127407
 133.1029992  59.7909978  25.3370014 132.1779992  59.9989978  25.2080014
 133.5569992  60.2749978  24.6470014 133.0376298  59.8849299  25.2260451
 133.0659992  58.5289978  33.6810014 132.4009992  58.2829978  34.3240014
 132.6229992  59.1509978  33.1040014 132.9151168  58.5794214  33.6909848
 135.2579992  71.7039978  37.8260014 134.4369992  71.8789978  37.3650014
 135.0059992  71.6309978  38.7460014 135.1115594  71.7180717  37.8873611
 138.2119992  72.6779978  34.0840014 137.7879992  73.4879978  33.8020014
 139.1169992  72.7639978  33.7820014 138.2762138  72.8004160  34.0046415
 142.5239992  74.0769978  37.0440014 142.7079992  73.7439978  37.9220014
 143.3699992  74.3869978  36.7220014 142.6636484  74.0732979  37.1207617
 144.8689992  75.3629978  36.2880014 145.5459992  74.7299978  36.0480014
 145.1899992  75.7639978  37.0950014 145.0051323  75.3305691  36.3643158
 135.6139992  75.9349978  34.1320014 134.8939992  76.3749978  33.6810014
 135.2489992  75.6839978  34.9800014 135.4659643  75.9613369  34.1849129
 138.0809992  75.5349978  33.1620014 137.2169992  75.6069978  33.5660014
 138.0259992  76.0819978  32.3780014 137.9551942  75.6187849  33.1114000
 142.7919992  75.4229978  32.3370014 142.3349992  75.9519978  31.6830014
 142.9549992  76.0259978  33.0620014 142.7514960  75.5769280  32.3455274
 145.1199992  74.3009978  33.2820014 144.2149992  74.4659978  33.0160014
 145.5479992  75.1539978  33.2160014 145.0541537  74.4389134  33.2367095
 135.0289992  74.5579978  31.0420014 135.0109992  74.1319978  31.8990014
 135.8339992  74.2389978  30.6330014 135.1352875  74.4566435  31.1039515
 137.1699992  73.2679978  29.6970014 136.9509992  72.3509978  29.8670014
 137.9939992  73.4079978  30.1630014 137.2514702  73.1615511  29.7832527
 139.7069992  73.7379978  30.5460014 139.9199992  72.8499978  30.2590014
 139.7719992  73.7029978  31.5000014 139.7449149  73.6118326  30.6357369
 143.2159992  59.4019978  29.6900014 142.5419992  58.7719978  29.9460014
 143.7799992  58.9179978  29.0870014 143.2000384  59.2503708  29.6435020
 135.5429992  58.0359978  27.5120014 134.7659992  57.8009978  27.0050014
 136.0729992  57.2389978  27.5210014 135.5083451  57.8961268  27.4438627
 134.3789992  57.8339978  23.3160014 134.8179992  58.4449978  22.7240014
 133.7449992  58.3719978  23.7900014 134.3533859  57.9904064  23.2990305
 140.1219992  57.9619978  27.3250014 140.9959992  58.3509978  27.2960014
 139.9859992  57.7469978  28.2480014 140.2231953  57.9861643  27.4457617
 134.2799992  73.7819978  24.2130014 133.5949992  73.7439978  23.5460014
 134.2839992  74.6949978  24.5010014 134.1867621  73.9001924  24.1606126
 136.2399992  59.7499978  21.7580014 136.7309992  59.1199978  21.2310014
 136.8629992  60.0459978  22.4210014 136.3915304  59.7037376  21.7754940
 141.2659992  60.0429978  24.2150014 141.4439992  59.3959978  24.8980014
 141.2119992  60.8769978  24.6820014 141.2830678  60.0671604  24.3716301
 143.1439992  74.9909978  22.6110014 144.0099992  75.3579978  22.4330014
 142.8979992  74.5519978  21.7970014 143.2292097  74.9818525  22.4766019
 135.4999992  58.5499978  37.0300014 135.1339992  57.7839978  37.4720014
 136.4129992  58.5789978  37.3160014 135.5733172  58.4490324  37.1291890
 137.4729992  57.8999978  38.5650014 138.3719992  57.6259978  38.3810014
 137.0869992  57.1579978  39.0300014 137.5437307  57.7622196  38.6027098
 136.0979992  74.7019978  21.2380014 135.8299992  74.9879978  22.1120014
 136.8689992  74.1559978  21.3910014 136.1655927  74.6672779  21.3781205
  12.6289992  86.0479978  27.4710014  12.7179992  86.9919978  27.3390014
  11.9909992  85.7729978  26.8130014  12.5549061  86.1399812  27.3639641
  11.5619992  85.3029978  30.8900014  11.5239992  84.6569978  31.5950014
  11.2399992  84.8359978  30.1190014  11.5132679  85.1514276  30.8822921
   3.9299992  84.9169978  32.4830014   3.9719992  84.2919978  33.2060014
   4.6329992  85.5409978  32.6650014   4.0307345  84.9157873  32.6065273
  15.2679992  88.2419978  29.1910014  14.8269992  87.5219978  29.6420014
  15.2549992  88.9629978  29.8210014  15.2059215  88.2409291  29.3378105
   4.8539992  89.3669978  31.0180014   4.4839992  88.5649978  30.6480014
   5.7949992  89.1989978  31.0640014   4.9305984  89.2344638  30.9735603
   1.4639992  83.0269978  26.4100014   1.0159992  83.8729978  26.3920014
   0.9029992  82.4479978  25.8950014   1.3268546  83.0643993  26.3378891
   2.1739992  85.1889978  28.5360014   2.3879992  84.4189978  29.0640014
   2.9119992  85.2789978  27.9330014   2.3030200  85.0958586  28.5267035
  12.3799992  93.3459978  29.4030014  12.9989992  92.6699978  29.1300014
  12.1709992  93.1279978  30.3120014  12.4366056  93.2238869  29.4883967
   9.9509992  87.7349978  31.2960014  10.2549992  87.0489978  30.7010014
  10.6729992  87.8539978  31.9140014  10.0901240  87.6572314  31.2980959
  18.6139992  79.3369978  32.1560014  18.6639992  79.9469978  32.8920014
  19.0399992  79.7979978  31.4330014  18.6784108  79.4827709  32.1590112
  13.0919992  82.1289978  31.6230014  13.2349992  81.1829978  31.6430014
  12.9859992  82.3359978  30.6950014  13.0972403  82.0274797  31.5002239
   6.2469992  80.2309978  28.8960014   6.2899992  81.0909978  28.4770014
   5.7889992  79.6789978  28.2620014   6.1909871  80.2739245  28.7530761
  13.9689992  80.3619978  27.2970014  14.6159992  80.0329978  27.9210014
  14.4789992  80.8789978  26.6740014  14.1264351  80.3869067  27.2981037
   2.8669992  82.6279978  29.6580014   3.5209992  82.0779978  30.0900014
   2.8909992  82.3539978  28.7410014   2.9597199  82.5157167  29.5931668
   8.0239992  84.1779978  28.8730014   8.6399992  83.6509978  29.3820014
   7.4369992  83.5379978  28.4690014   8.0290154  84.0193954  28.8880945
  19.0059992  80.8149978  34.3920014  18.3169992  81.4729978  34.2970014
  19.0209992  80.6169978  35.3290014  18.9137756  80.8782603  34.5055812
   5.0569992  79.1489978  32.9700014   4.8379992  79.6789978  32.2030014
   4.3889992  79.3749978  33.6170014   4.9366975  79.2520967  32.9525140
  12.4259992  88.6489978  26.5140014  12.1309992  88.3259978  25.6620014
  12.1019992  89.5489978  26.5550014  12.3418460  88.7264464  26.4029714
   7.6259992  86.8239978  33.2570014   6.8859992  87.4229978  33.3610014
   8.3399992  87.3779978  32.9420014   7.6213500  86.9807829  33.2286371
  15.7329992  79.6529978  29.2770014  15.5179992  78.8869978  29.8100014
  16.3889992  80.1249978  29.7900014  15.7922673  79.6120728  29.4191990
   4.6509992  81.0409978  30.9220014   5.2649992  81.6739978  31.2950014
   5.1629992  80.5689978  30.2660014   4.8041962  81.0637249  30.8842935
   6.0339992  88.7889978  34.0440014   6.0279992  89.6679978  33.6660014
   5.1799992  88.7049978  34.4690014   5.9177925  88.8979535  34.0496887
   2.1549992  88.4599978  24.8260014   1.8829992  88.6889978  23.9380014
   2.1999992  89.2969978  25.2870014   2.1238097  88.6046163  24.7666683
  15.7799992  90.0809978  31.5390014  14.8379992  90.1399978  31.7010014
  16.0559992  90.9869978  31.4020014  15.6885865  90.2115288  31.5426192
  16.0799992  78.3679978  32.9560014  15.3439992  78.9779978  32.9190014
  16.7639992  78.7829978  32.4300014  16.0715367  78.5077551  32.8798174
   9.0839992  76.4539978  30.4220014   8.9659992  75.5059978  30.3680014
   8.2289992  76.7869978  30.6950014   8.9522805  76.3692202  30.4515079
  14.0319992  91.8619978  28.1640014  14.4569992  91.1549978  27.6790014
  14.3489992  92.6639978  27.7470014  14.1330266  91.8735190  28.0412479
  15.1919992  89.7629978  26.6730014  14.9339992  89.0729978  26.0610014
  15.2629992  89.3199978  27.5180014  15.1663050  89.6086814  26.7035621
  16.8779992  88.3299978  35.1500014  17.0169992  87.7379978  34.4110014
  17.0449992  89.2029978  34.7940014  16.9196193  88.3668896  35.0006211
  11.3499992  85.2919978  24.9230014  10.6389992  85.8269978  24.5710014
  12.0409992  85.3469978  24.2630014  11.3460751  85.3726777  24.7855858
  11.4039992  83.7489978  21.9610014  12.1049992  83.7719978  22.6130014
  11.7059992  83.1209978  21.3050014  11.5408202  83.6672212  21.9615609
  18.7189992  84.6699978  33.2160014  18.0669992  85.3639978  33.3050014
  19.1849992  84.8799978  32.4060014  18.6925937  84.7935019  33.1187533
  14.7559992  85.5009978  25.8740014  14.0239992  85.7299978  26.4480014
  15.2029992  84.7879978  26.3290014  14.7163963  85.4358729  26.0139945
  14.6529992  83.6759978  34.9420014  14.7329992  84.4389978  35.5140014
  14.0519992  83.9549978  34.2520014  14.5826547  83.8182457  34.9270047
   6.4009992  86.1319978  27.7570014   6.0709992  85.7609978  26.9390014
   6.9899992  85.4609978  28.1040014   6.4353970  85.9906063  27.6919404
   7.7679992  89.5599978  30.4380014   7.6729992  88.9809978  29.6820014
   8.4969992  89.1889978  30.9340014   7.8536011  89.4305561  30.4016028
   6.7679992  84.8999978  31.3900014   7.3329992  85.0219978  30.6280014
   7.0869992  85.5379978  32.0290014   6.8884166  85.0028791  31.3720348
  13.0769992  90.4039978  32.1240014  12.8369992  91.0659978  32.7720014
  12.8789992  89.5689978  32.5490014  13.0173826  90.3818115  32.2701566
   7.6479992  89.2999978  36.1080014   7.3369992  90.0819978  36.5630014
   6.9979992  89.1469978  35.4220014   7.5175538  89.3864087  36.0775898
  13.6269992  84.6639978  23.5600014  14.2059992  84.8139978  24.3060014
  14.0409992  85.1339978  22.8360014  13.7623358  84.7480954  23.5643953
   4.5679992  85.4979978  35.3360014   4.6379992  86.1489978  36.0350014
   3.6769992  85.6009978  35.0010014   4.4571690  85.6009249  35.3863043
  11.3529992  91.3999978  26.9950014  11.8269992  91.6959978  27.7720014
  10.7899992  92.1389978  26.7620014  11.3417890  91.5403036  27.0698101
   5.8869992  91.3709978  36.8710014   5.8949992  91.2349978  35.9240014
   4.9709992  91.2539978  37.1230014   5.7642528  91.3365463  36.7753243
  17.3259992  76.4139978  23.3730014  16.4259992  76.5529978  23.6680014
  17.5779992  77.2449978  22.9710014  17.2368683  76.5454055  23.3590232
   5.3919992  85.2009978  25.3460014   5.0999992  85.9689978  24.8550014
   4.7169992  84.5419978  25.1830014   5.2608497  85.2169745  25.2568260
  18.5149992  90.7799978  21.7490014  18.5879992  91.7189978  21.9190014
  19.4199992  90.4749978  21.6930014  18.6474170  90.8673282  21.7647063
   1.4849992  87.5639978  34.1610014   0.9829992  87.5359978  33.3460014
   1.4899992  86.6589978  34.4710014   1.4169832  87.4377486  34.0914121
   1.2349992  90.3449978  31.0450014   2.1809992  90.1999978  31.0260014
   1.1219992  91.1289978  31.5820014   1.3493578  90.4311697  31.1150317
  19.4329992  91.0109978  36.7280014  19.3829992  90.0549978  36.6900014
  18.6059992  91.2779978  37.1290014  19.3143831  90.9164680  36.7770121
  10.4109992  90.5849978  35.6040014  10.4989992  91.4109978  36.0790014
   9.5479992  90.2549978  35.8530014  10.3063357  90.6535468  35.7027653
  10.8259992  94.3569978  25.4100014  10.7499992  94.2359978  24.4630014
  10.8579992  95.3059978  25.5280014  10.8199380  94.4687677  25.2965181
   4.4789992  93.1459978  27.1910014   4.6309992  92.7979978  28.0690014
   3.6279992  92.7889978  26.9350014   4.3848344  93.0500879  27.2766868
  13.9269992  93.5109978  22.4120014  14.3019992  92.7669978  21.9410014
  13.9319992  93.2409978  23.3300014  13.9790098  93.3726392  22.4716629
  13.5959992  93.4369978  25.1610014  12.6609992  93.5369978  25.3400014
  13.8759992  92.7269978  25.7400014  13.5059471  93.3547933  25.2636695
  16.5849992  82.5039978  37.2080014  16.1769992  82.9839978  36.4870014
  16.6249992  81.5979978  36.9000014  16.5346221  82.4472449  37.0678267
   3.7339992  88.8879978  35.2040014   3.9499992  88.5259978  36.0640014
   2.8779992  88.5129978  34.9950014   3.6478810  88.7878837  35.2932680
   6.3519992  77.3579978  31.2000014   5.4909992  77.2709978  30.7920014
   6.3299992  78.2139978  31.6280014   6.2310491  77.4618003  31.2019582
  11.0149992  77.0799978  34.5750014  11.4349992  76.6649978  35.3280014
  10.0819992  76.9009978  34.6920014  10.9463736  76.9989910  34.6938968
  14.3419992  80.8349978  35.4280014  13.8279992  80.7099978  36.2260014
  14.1859992  81.7479978  35.1840014  14.2506967  80.9412123  35.5040937
  15.1039992  85.6959978  21.1890014  15.1459992  85.4739978  20.2590014
  15.9529992  86.0949978  21.3790014  15.2245253  85.7195498  21.0873822
  10.6769992  79.5719978  21.8600014  10.4229992  79.5909978  22.7820014
  10.4199992  78.7009978  21.5580014  10.6074508  79.4568280  21.9454803
   6.4429992  82.3229978  32.2950014   5.8019992  82.2829978  33.0040014
   6.4809992  83.2499978  32.0570014   6.3603010  82.4427668  32.3599946
   6.4399992  82.5439978  27.2070014   5.5479992  82.2039978  27.1480014
   6.8909992  82.1669978  26.4510014   6.3787642  82.4464910  27.0967726
  11.9759992  82.9599978  26.0240014  11.5669992  83.7749978  25.7320014
  12.6959992  82.8199978  25.4100014  12.0174439  83.0525372  25.9010115
  11.0779992  83.1359978  37.5120014  10.5149992  82.4309978  37.8330014
  11.9039992  83.0149978  37.9800014  11.1126674  83.0232165  37.6191751
  12.9809992  82.4059978  28.8380014  12.7849992  83.0119978  28.1230014
  13.1619992  81.5729978  28.4040014  12.9786584  82.3762513  28.6814212
   4.1929992  82.6439978  34.1620014   4.1549992  83.0439978  35.0310014
   3.7029992  81.8269978  34.2520014   4.1215330  82.5882674  34.2931289
   7.5589992  80.0179978  20.9610014   7.1279992  79.5729978  21.6900014
   6.8409992  80.3889978  20.4480014   7.4029176  80.0072051  20.9914930
   0.8019992  79.7599978  28.0130014   1.4319992  79.7309978  28.7320014
   1.2509992  79.3349978  27.2820014   0.9490835  79.6985660  28.0127659
   2.0759992  80.5059978  23.4370014   2.5499992  81.0969978  22.8520014
   1.3579992  81.0359978  23.7840014   2.0438640  80.6585511  23.4037969
  12.2449992  84.0439978  33.5090014  12.5679992  83.4129978  32.8660014
  11.8039992  83.5099978  34.1700014  12.2296379  83.8853468  33.5102582
   9.0219992  79.9719978  28.2930014   8.1109992  80.0289978  28.5820014
   9.5269992  79.9119978  29.1040014   8.9656873  79.9716826  28.4421207
   3.8499992  81.6009978  27.1200014   2.9609992  81.6999978  26.7800014
   4.1469992  80.7589978  26.7740014   3.7684177  81.5007687  27.0266940
   7.5029992  81.6009978  24.7770014   8.4349992  81.7299978  24.9550014
   7.2879992  82.2699978  24.1270014   7.6014472  81.7090806  24.7134891
  13.4269992  79.2069978  31.5580014  12.7499992  79.3379978  32.2210014
  12.9419992  79.0519978  30.7470014  13.2687405  79.2039947  31.5392170
   6.1769992  82.7949978  22.3430014   5.6349992  82.4159978  21.6520014
   7.0109992  82.9899978  21.9150014   6.2154390  82.7694079  22.1904392
  16.7149992  94.8779978  37.8340014  16.9139992  95.3019978  37.0000014
  17.3699992  95.2219978  38.4410014  16.8308522  94.9826301  37.8017852
   4.3129992  87.3519978  37.4420014   5.0449992  87.6069978  38.0040014
   3.5319992  87.5569978  37.9580014   4.3076526  87.4145450  37.5885176
  10.3419992  82.7589978  30.1800014  10.9059992  82.2129978  29.6330014
  10.1939992  82.2379978  30.9690014  10.3993037  82.6136787  30.2117229
   5.3439992  78.8959978  26.5990014   5.0269992  77.9929978  26.5630014
   6.1249992  78.8979978  26.0460014   5.4062431  78.7727797  26.5193102
   8.9679992  81.1479978  32.5940014   8.1329992  81.6019978  32.7050014
   9.4919992  81.4239978  33.3460014   8.9246072  81.2473948  32.7108136
   9.5129992  87.3609978  24.2790014   8.7679992  86.8529978  23.9570014
   9.3779992  87.4099978  25.2250014   9.3928963  87.2981731  24.3628826
  16.6629992  86.4939978  33.0660014  17.3039992  86.9499978  32.5220014
  15.8319992  86.6069978  32.6030014  16.6385287  86.5716921  32.9289887
  13.4099992  80.1749978  22.4780014  12.4719992  80.2859978  22.3270014
  13.7079992  81.0309978  22.7850014  13.3216318  80.3060158  22.4988145
  11.0319992  87.5449978  35.5160014  10.6859992  87.1629978  36.3230014
  10.8319992  88.4779978  35.5870014  10.9575987  87.6189002  35.6360461
  14.1289992  82.0419978  24.1390014  15.0209992  81.9039978  24.4580014
  14.1849992  82.8329978  23.6020014  14.2587325  82.1299918  24.1101217
   4.6369992  86.6559978  30.0490014   5.3819992  86.6529978  29.4470014
   4.7149992  85.8319978  30.5300014   4.7493366  86.5442384  30.0317430
  11.6379992  88.8189978  23.3040014  11.3429992  89.6459978  23.6860014
  10.9349992  88.1999978  23.5010014  11.5026379  88.8484171  23.3828654
   1.6449992  85.1159978  35.3640014   1.8679992  84.6979978  36.1950014
   1.0429992  84.5039978  34.9410014   1.5941513  84.9759606  35.4206740
   8.6619992  84.6329978  37.5770014   8.3659992  84.4679978  36.6810014
   9.5929992  84.4129978  37.5660014   8.7474401  84.5806879  37.4530206
  13.2819992  90.0069978  35.4660014  12.3819992  90.1899978  35.1990014
  13.3159992  90.2659978  36.3870014  13.1633748  90.0670554  35.5539164
  19.0139992  82.2509978  23.8340014  18.4589992  81.8549978  23.1610014
  19.1139992  83.1619978  23.5560014  18.9516816  82.3199505  23.7045033
  18.9769992  88.0519978  36.6710014  18.1259992  88.2899978  36.3030014
  19.5669992  88.0349978  35.9180014  18.9403812  88.0822524  36.5188453
  17.3089992  91.0369978  24.2990014  16.9359992  90.2119978  24.6080014
  17.5859992  90.8539978  23.4010014  17.2953463  90.8992569  24.2199525
  14.4689992  85.8449978  31.3200014  13.5409992  85.6139978  31.2930014
  14.9199992  85.0679978  30.9900014  14.4028165  85.7082774  31.2716790
   7.0119992  90.1739978  27.4530014   7.5399992  90.9469978  27.2530014
   6.1319992  90.3979978  27.1510014   6.9653435  90.3102700  27.3847310
   2.7669992  85.0359978  22.0400014   3.3829992  85.6629978  22.4200014
   1.9049992  85.3519978  22.3120014   2.7347678  85.1644412  22.1287209
   8.4399992  87.8369978  27.0290014   8.1989992  88.7619978  27.0710014
   7.6989992  87.3779978  27.4260014   8.3069206  87.9015915  27.0883769
   8.9539992  91.9859978  33.3440014   9.3169992  92.8399978  33.1110014
   9.4859992  91.6939978  34.0850014   9.0755141  92.0633895  33.4122097
   7.1229992  92.8579978  26.5750014   6.1729992  92.9639978  26.6260014
   7.4749992  93.6789978  26.9190014   7.0405472  92.9834923  26.6284852
  12.4979992  88.0849978  33.0450014  12.0729992  87.8569978  33.8710014
  13.0789992  87.3459978  32.8630014  12.5183395  87.9539545  33.1334414
  14.7009992  89.0139978  22.1190014  15.0549992  88.6339978  22.9230014
  13.7529992  88.9199978  22.2060014  14.6212298  88.9492452  22.2408687
  15.1569992  92.6369978  35.5140014  14.5549992  92.0809978  35.0190014
  15.4379992  93.3039978  34.8880014  15.1125757  92.6510744  35.3615675
  19.2049992  93.4929978  22.3200014  19.9489992  94.0789978  22.1800014
  18.5109992  94.0619978  22.6530014  19.2129809  93.6500818  22.3458590
   3.2789992  79.8699978  34.9220014   2.3869992  80.2079978  34.8540014
   3.1809992  79.0139978  35.3400014   3.1434475  79.8006543  34.9691704
  15.5669992  87.6859978  24.3460014  15.2899992  86.9579978  24.9020014
  16.4949992  87.8049978  24.5510014  15.6544499  87.6024213  24.4498044
   2.9309992  91.6739978  33.3570014   3.1479992  90.7419978  33.3260014
   3.1769992  91.9489978  34.2400014   2.9939809  91.5835686  33.4721691
   8.7919992  90.1259978  20.5660014   9.0309992  89.3769978  20.0190014
   8.5229992  89.7379978  21.3990014   8.7883233  89.9711853  20.6037809
   7.7289992  89.6959978  23.0220014   7.8759992  89.1759978  23.8120014
   7.7259992  90.6029978  23.3290014   7.7487102  89.7473953  23.1715925
   4.1819992  86.9479978  23.5330014   3.4959992  87.3009978  24.1000014
   4.7049992  87.7109978  23.2860014   4.1588402  87.0993901  23.5771801
  12.0139992  79.6109978  33.8120014  12.7129992  79.6849978  34.4620014
  11.6329992  78.7459978  33.9660014  12.0582097  79.5042389  33.9217997
  12.7979992  79.2629978  24.9090014  13.0179992  79.7339978  24.1050014
  13.3569992  79.6569978  25.5790014  12.9036732  79.3807287  24.8895033
  10.4669992  91.3929978  23.7720014   9.6499992  91.8899978  23.8240014
  10.9959992  91.8689978  23.1310014  10.4268125  91.5251989  23.6925306
   9.9979992  80.9909978  25.7440014  10.8099992  81.4949978  25.7900014
   9.7539992  80.8459978  26.6580014  10.0761467  81.0403749  25.8738575
  10.5339992  81.9769978  34.9280014  10.6529992  82.5509978  35.6850014
  11.1889992  81.2889978  35.0430014  10.6388684  81.9625194  35.0471674
  10.8819992  78.0719978  26.6820014  10.5349992  78.6889978  27.3260014
  11.5409992  78.5729978  26.2000014  10.9235090  78.2241575  26.7050681
   7.8049992  92.4369978  23.7530014   7.9659992  93.2369978  23.2530014
   7.6079992  92.7439978  24.6380014   7.8003906  92.5878678  23.8042333
   6.5399992  79.1349978  23.3690014   6.4559992  80.0229978  23.7160014
   7.4299992  78.8699978  23.6010014   6.6488163  79.2207179  23.4478596
  16.7379992  79.8839978  35.7630014  15.8219992  80.1459978  35.6760014
  17.0739992  79.8809978  34.8670014  16.6578499  79.9195163  35.6298766
  15.3409992  83.6339978  29.8590014  14.5429992  83.2189978  29.5310014
  15.7859992  82.9439978  30.3500014  15.2919684  83.4838628  29.8805227
   4.7979992  89.5619978  22.4290014   5.3899992  90.2619978  22.7060014
   5.2569992  89.1289978  21.7100014   4.9411652  89.5992675  22.3696533
   3.1139992  82.2269978  21.5450014   3.0689992  83.1659978  21.7240014
   2.2259992  81.9909978  21.2760014   2.9878166  82.3236687  21.5331524
  16.4269992  92.8899978  31.4810014  16.2709992  93.5689978  30.8240014
  17.3599992  92.9619978  31.6840014  16.5317387  92.9926390  31.4185342
   3.9219992  77.0079978  30.2190014   3.6929992  77.0669978  29.2910014
   3.4799992  76.2169978  30.5250014   3.8308801  76.9090540  30.1334729
   2.8529992  90.9489978  26.3790014   2.0199992  91.4209978  26.4060014
   3.3979992  91.4589978  25.7800014   2.8127857  91.0824791  26.3017142
   2.1409992  93.5609978  37.7090014   2.6809992  93.3449978  38.4690014
   1.6599992  92.7559978  37.5190014   2.1499219  93.4225156  37.7874282
   6.7379992  92.4809978  39.3290014   7.5059992  92.0219978  39.6700014
   6.7169992  92.2549978  38.3990014   6.8402135  92.3876668  39.2499491
  10.8299992  91.9889978  20.7050014  10.1859992  91.3579978  21.0260014
  11.5919992  91.4579978  20.4730014  10.8448058  91.8307902  20.7176038
  13.3149992  90.8609978  38.0580014  12.9639992  90.0039978  38.3020014
  14.0409992  91.0029978  38.6650014  13.3651895  90.7631351  38.1733770
  15.4349992  91.8059978  20.9380014  15.7179992  91.0109978  21.3910014
  16.1739992  92.0389978  20.3770014  15.5737096  91.7287049  20.9241104
   2.0479992  87.3719978  38.6630014   2.1919992  86.4699978  38.3770014
   1.2759992  87.6579978  38.1760014   1.9632733  87.2871798  38.5579532
   6.3889992  87.7149978  20.7960014   6.4539992  86.9209978  21.3260014
   7.0419992  87.5969978  20.1060014   6.4861605  87.5903430  20.7752997
   8.7029992  87.3409978  38.0960014   8.3749992  87.6119978  37.2390014
   8.8549992  86.3999978  38.0080014   8.6786412  87.2509046  37.9667822
  11.7419992  88.7619978  20.5320014  11.4729992  88.9429978  21.4320014
  11.5349992  87.8369978  20.4000014  11.6771191  88.6617119  20.6375524
  14.4379992  87.2569978  35.4790014  15.1829992  87.8459978  35.3600014
  13.6809992  87.8389978  35.5430014  14.4375470  87.4162128  35.4713799
   2.8809992  84.5719978  38.0830014   3.2889992  83.7149978  37.9620014
   2.6199992  84.5859978  39.0040014   2.9016016  84.4565119  38.1909192
   7.5389992  85.6879978  23.1020014   7.0789992  85.2039978  23.7870014
   7.7939992  85.0189978  22.4660014   7.5104856  85.5313669  23.1098397
   6.8279992  83.5809978  35.4580014   6.2089992  84.2549978  35.7380014
   7.1719992  83.9019978  34.6240014   6.7897123  83.7166887  35.3836388
   8.6099992  83.9309978  21.3640014   8.4289992  83.7759978  20.4370014
   9.5599992  84.0389978  21.4090014   8.7136566  83.9243669  21.2430929
  11.8469992  86.0519978  38.7350014  12.8009992  86.1359978  38.7080014
  11.6869992  85.3399978  39.3550014  11.9557182  85.9672842  38.8150733
  17.9999992  86.2849978  20.8100014  17.7259992  85.8609978  19.9970014
  18.0389992  87.2169978  20.5930014  17.9677716  86.3528827  20.6694286
   7.1669992  80.9359978  36.5400014   7.3169992  80.2069978  35.9380014
   7.1689992  81.7129978  35.9810014   7.1877967  80.9412708  36.3820541
   7.5799992  79.3049978  34.0330014   8.1149992  79.7569978  33.3810014
   6.7269992  79.1969978  33.6100014   7.5380374  79.3522665  33.8866710
   9.1609992  84.7449978  34.2720014   9.9119992  84.5889978  33.6990014
   8.8219992  85.5969978  33.9970014   9.2179587  84.8388138  34.1564078
  13.5769992  82.5599978  39.3010014  13.7689992  81.6289978  39.1890014
  14.4349992  82.9849978  39.2900014  13.7192182  82.4900070  39.2841862
  14.8939992  85.3489978  37.3780014  14.6119992  86.0579978  36.8000014
  15.8359992  85.2759978  37.2270014  14.9827921  85.4362193  37.2784225
   5.6459992  82.1339978  38.4510014   4.8779992  81.6009978  38.2410014
   6.3239992  81.8239978  37.8520014   5.6327235  82.0191754  38.3412413
   8.3849992  76.7619978  34.4640014   8.2869992  77.7079978  34.3590014
   7.6429992  76.3889978  33.9880014   8.2712534  76.8411773  34.3852600
   9.6489992  81.0829978  38.0280014   9.4139992  80.8639978  38.9290014
   8.8659992  80.8759978  37.5180014   9.5109095  81.0249892  38.0825353
  12.3649992  80.2109978  37.1030014  11.4169992  80.2429978  37.2350014
  12.6769992  79.5849978  37.7570014  12.2775293  80.1307923  37.2094148
  13.9989992  78.8449978  39.1080014  13.9019992  77.8929978  39.1030014
  13.6769992  79.1129978  39.9690014  13.9422468  78.7510884  39.2236210
   3.8259992  80.0539978  38.1560014   4.0379992  79.3479978  37.5460014
   3.7149992  79.6169978  39.0000014   3.8400269  79.8981921  38.1865873
   8.6069992  76.0559978  37.1350014   9.3189992  75.4159978  37.1210014
   8.5059992  76.3219978  36.2220014   8.6907387  76.0044330  37.0095563
   8.9609992  77.7379978  39.1890014   8.8289992  77.2629978  38.3690014
   8.3609992  78.4829978  39.1340014   8.8619070  77.7735789  39.0693251
   8.5069992  94.6209978  22.3650014   9.4399992  94.7789978  22.5090014
   8.2429992  95.2969978  21.7400014   8.5989911  94.7339373  22.3002722
   2.0749992  89.2579978  21.8480014   2.9889992  89.3369978  22.1210014
   2.0829992  88.5709978  21.1820014   2.2010655  89.1759205  21.7952917
   0.7239992  94.6509978  26.9250014   0.0769992  94.1889978  26.3930014
   1.0789992  93.9789978  27.5080014   0.6833741  94.4969774  26.9309175
   1.5939992  92.7309978  28.7300014   1.2599992  91.8509978  28.9020014
   1.8169992  93.0769978  29.5950014   1.5783721  92.6571938  28.8704168
  19.1429992  93.5409978  31.7110014  19.1209992  93.7259978  32.6500014
  19.8329992  94.1089978  31.3700014  19.2333439  93.6431887  31.7934791
  18.7059992  93.1079978  34.6320014  18.2189992  92.3729978  34.2610014
  19.2549992  92.7139978  35.3100014  18.7135247  92.9541057  34.6728461
  17.1569992  88.8979978  39.2710014  16.2909992  88.7929978  39.6650014
  17.5329992  89.6559978  39.7170014  17.0893401  88.9861708  39.3852620
  18.4579992  87.1539978  24.7850014  19.3079992  87.5749978  24.9120014
  18.4629992  86.4139978  25.3920014  18.5751143  87.1116094  24.8844750
  18.8519992  85.2079978  26.6080014  18.1259992  84.7279978  27.0060014
  19.4339992  85.4129978  27.3410014  18.8312730  85.1700184  26.7614149
  18.6109992  87.9929978  31.5560014  19.4449992  87.6149978  31.2750014
  18.7229992  88.9359978  31.4370014  18.7401917  88.0687943  31.5014861
  17.0979992  90.8709978  33.8630014  16.4499992  91.1959978  34.4880014
  16.5799992  90.4299978  33.1890014  16.9394196  90.8558651  33.8574152
  19.1209992  85.1089978  22.9990014  18.5989992  85.4649978  22.2810014
  19.0879992  85.7839978  23.6780014  19.0450129  85.2489598  22.9923355
  17.4699992  82.3479978  21.5500014  17.5659992  83.0149978  20.8700014
  17.3299992  81.5329978  21.0690014  17.4642040  82.3290671  21.3918378
  16.6389992  83.7289978  27.1710014  16.4889992  82.7839978  27.1510014
  16.2849992  84.0099978  28.0150014  16.5706351  83.6376644  27.2823220
   1.6739992  85.8069978  31.1820014   1.8589992  85.7249978  30.2460014
   2.5239992  85.6829978  31.6050014   1.8140928  85.7790463  31.1112893
  17.4949992  85.6989978  36.8100014  18.0779992  84.9639978  37.0020014
  18.0589992  86.4709978  36.8570014  17.6509781  85.7028145  36.8426164
  18.9919992  83.6019978  37.4950014  18.1289992  83.2229978  37.3290014
  19.5959992  82.8629978  37.4200014  18.9556085  83.4503223  37.4621695
  16.7169992  79.7559978  20.6680014  17.3279992  79.3849978  21.3050014
  15.8799992  79.3349978  20.8640014  16.6874947  79.6482756  20.7817252
  16.3499992  81.3109978  25.6340014  16.6289992  80.4039978  25.7580014
  17.1089992  81.7449978  25.2450014  16.4908619  81.2454502  25.5983795
  16.9609992  81.8929978  31.0700014  17.8939992  82.1049978  31.0350014
  16.7259992  81.9939978  31.9920014  17.0569517  81.9356833  31.1899130
  16.9909992  82.6299978  33.8460014  16.1479992  82.8979978  34.2120014
  17.4329992  83.4519978  33.6350014  16.9354138  82.7778273  33.8675518
   1.2719992  81.0769978  37.3220014   2.1909992  80.9549978  37.5590014
   0.8219992  80.3269978  37.7120014   1.3370087  80.9589608  37.4071410
  19.2739992  76.6099978  39.1990014  19.6229992  75.9559978  38.5940014
  19.4209992  77.4469978  38.7590014  19.3416824  76.6336024  39.0566304
  16.9629992  78.5739978  25.6820014  17.1449992  78.1249978  26.5070014
  16.3629992  77.9899978  25.2180014  16.9068187  78.4335552  25.7322739
   2.4929992  79.3899978  30.2140014   2.9379992  78.5979978  30.5160014
   2.9589992  80.1059978  30.6440014   2.6169718  79.3784534  30.3135265
   0.7969992  82.3889978  31.2830014   1.2889992  82.1679978  30.4920014
   1.1589992  83.2289978  31.5640014   0.9132923  82.4723468  31.2127407
  18.7929992  78.7189978  37.5480014  17.8759992  78.9899978  37.5130014
  18.9159992  78.1839978  36.7640014  18.6839672  78.6837885  37.4371862
  18.8299992  78.6419978  22.2100014  19.2419992  77.9209978  21.7350014
  19.5109992  79.3109978  22.2680014  18.9785536  78.6337766  22.1528024
   1.1109992  78.6469978  25.3370014   0.1859992  78.8549978  25.2080014
   1.5649992  79.1309978  24.6470014   1.0456298  78.7409299  25.2260451
  15.8809992  93.6309978  27.2830014  16.5339992  93.2829978  26.6750014
  16.3919992  94.1189978  27.9290014  16.0392777  93.6493815  27.2872047
   1.0739992  77.3849978  33.6810014   0.4089992  77.1389978  34.3240014
   0.6309992  78.0069978  33.1040014   0.9231168  77.4354214  33.6909848
   3.2659992  90.5599978  37.8260014   2.4449992  90.7349978  37.3650014
   3.0139992  90.4869978  38.7460014   3.1195594  90.5740717  37.8873611
   6.2199992  91.5339978  34.0840014   5.7959992  92.3439978  33.8020014
   7.1249992  91.6199978  33.7820014   6.2842138  91.6564160  34.0046415
  10.5319992  92.9329978  37.0440014  10.7159992  92.5999978  37.9220014
  11.3779992  93.2429978  36.7220014  10.6716484  92.9292979  37.1207617
  12.8769992  94.2189978  36.2880014  13.5539992  93.5859978  36.0480014
  13.1979992  94.6199978  37.0950014  13.0131323  94.1865691  36.3643158
  17.7939992  76.8089978  35.3670014  16.9809992  77.1339978  34.9800014
  18.0269992  76.0479978  34.8340014  17.7141347  76.7506880  35.2419841
   3.6219992  94.7909978  34.1320014   2.9019992  95.2309978  33.6810014
   3.2569992  94.5399978  34.9800014   3.4739643  94.8173369  34.1849129
   6.0889992  94.3909978  33.1620014   5.2249992  94.4629978  33.5660014
   6.0339992  94.9379978  32.3780014   5.9631942  94.4747849  33.1114000
  10.7999992  94.2789978  32.3370014  10.3429992  94.8079978  31.6830014
  10.9629992  94.8819978  33.0620014  10.7594960  94.4329280  32.3455274
  13.1279992  93.1569978  33.2820014  12.2229992  93.3219978  33.0160014
  13.5559992  94.0099978  33.2160014  13.0621537  93.2949134  33.2367095
  15.7319992  94.7269978  33.5770014  15.5499992  95.6429978  33.3660014
  15.9089992  94.3159978  32.7300014  15.7310030  94.7968273  33.4337166
   3.0369992  93.4139978  31.0420014   3.0189992  92.9879978  31.8990014
   3.8419992  93.0949978  30.6330014   3.1432875  93.3126435  31.1039515
   5.1779992  92.1239978  29.6970014   4.9589992  91.2069978  29.8670014
   6.0019992  92.2639978  30.1630014   5.2594702  92.0175511  29.7832527
   7.7149992  92.5939978  30.5460014   7.9279992  91.7059978  30.2590014
   7.7799992  92.5589978  31.5000014   7.7529149  92.4678326  30.6357369
  11.2239992  78.2579978  29.6900014  10.5499992  77.6279978  29.9460014
  11.7879992  77.7739978  29.0870014  11.2080384  78.1063708  29.6435020
  16.3669992  76.3649978  29.8030014  16.9699992  76.9129978  29.3010014
  15.4969992  76.6839978  29.5620014  16.3319157  76.4830373  29.7017910
  18.0939992  77.5039978  28.1360014  18.7049992  76.9899978  27.6090014
  18.4759992  78.3809978  28.1590014  18.2293305  77.5522050  28.0669418
   3.5509992  76.8919978  27.5120014   2.7739992  76.6569978  27.0050014
   4.0809992  76.0949978  27.5210014   3.5163451  76.7521268  27.4438627
   2.3869992  76.6899978  23.3160014   2.8259992  77.3009978  22.7240014
   1.7529992  77.2279978  23.7900014   2.3613859  76.8464064  23.2990305
   8.1299992  76.8179978  27.3250014   9.0039992  77.2069978  27.2960014
   7.9939992  76.6029978  28.2480014   8.2311953  76.8421643  27.4457617
  13.6869992  76.8479978  28.9750014  13.7629992  76.9439978  28.0250014
  13.4119992  75.9409978  29.1030014  13.6601871  76.7384146  28.8623944
  15.0399992  76.8739978  24.6670014  14.3369992  77.4889978  24.4570014
  14.5949992  76.0369978  24.7980014  14.8836550  76.8449668  24.6559837
   2.2879992  92.6379978  24.2130014   1.6029992  92.5999978  23.5460014
   2.2919992  93.5509978  24.5010014   2.1947621  92.7561924  24.1606126
   4.2479992  78.6059978  21.7580014   4.7389992  77.9759978  21.2310014
   4.8709992  78.9019978  22.4210014   4.3995304  78.5597376  21.7754940
   9.2739992  78.8989978  24.2150014   9.4519992  78.2519978  24.8980014
   9.2199992  79.7329978  24.6820014   9.2910678  78.9231604  24.3716301
  11.1519992  93.8469978  22.6110014  12.0179992  94.2139978  22.4330014
  10.9059992  93.4079978  21.7970014  11.2372097  93.8378525  22.4766019
  17.8609992  93.4099978  25.2900014  17.6669992  92.6619978  24.7250014
  17.8219992  94.1679978  24.7070014  17.8291645  93.4100786  25.1338148
   3.5079992  77.4059978  37.0300014   3.1419992  76.6399978  37.4720014
   4.4209992  77.4349978  37.3160014   3.5813172  77.3050324  37.1291890
   5.4809992  76.7559978  38.5650014   6.3799992  76.4819978  38.3810014
   5.0949992  76.0139978  39.0300014   5.5517307  76.6182196  38.6027098
   4.1059992  93.5579978  21.2380014   3.8379992  93.8439978  22.1120014
   4.8769992  93.0119978  21.3910014   4.1735926  93.5232779  21.3781205
  13.9029992  76.0889978  38.7480014  13.9789992  75.6629978  39.6010014
  14.7959992  76.1019978  38.4050014  14.0342303  76.0323493  38.8185497
  17.0789992  92.1619978  37.4400014  16.2969992  91.9749978  36.9200014
  17.0069992  93.0909978  37.6570014  16.9621924  92.2620637  37.3981602
  31.4849992  86.0479978  27.4710014  31.5739992  86.9919978  27.3390014
  30.8469992  85.7729978  26.8130014  31.4109061  86.1399812  27.3639641
  30.4179992  85.3029978  30.8900014  30.3799992  84.6569978  31.5950014
  30.0959992  84.8359978  30.1190014  30.3692679  85.1514276  30.8822921
  22.7859992  84.9169978  32.4830014  22.8279992  84.2919978  33.2060014
  23.4889992  85.5409978  32.6650014  22.8867345  84.9157873  32.6065273
  34.1239992  88.2419978  29.1910014  33.6829992  87.5219978  29.6420014
  34.1109992  88.9629978  29.8210014  34.0619215  88.2409291  29.3378105
  23.7099992  89.3669978  31.0180014  23.3399992  88.5649978  30.6480014
  24.6509992  89.1989978  31.0640014  23.7865984  89.2344638  30.9735603
  20.3199992  83.0269978  26.4100014  19.8719992  83.8729978  26.3920014
  19.7589992  82.4479978  25.8950014  20.1828546  83.0643993  26.3378891
  21.0299992  85.1889978  28.5360014  21.2439992  84.4189978  29.0640014
  21.7679992  85.2789978  27.9330014  21.1590200  85.0958587  28.5267035
  31.2359992  93.3459978  29.4030014  31.8549992  92.6699978  29.1300014
  31.0269992  93.1279978  30.3120014  31.2926056  93.2238869  29.4883967
  28.8069992  87.7349978  31.2960014  29.1109992  87.0489978  30.7010014
  29.5289992  87.8539978  31.9140014  28.9461240  87.6572314  31.2980959
  37.4699992  79.3369978  32.1560014  37.5199992  79.9469978  32.8920014
  37.8959992  79.7979978  31.4330014  37.5344108  79.4827709  32.1590112
  31.9479992  82.1289978  31.6230014  32.0909992  81.1829978  31.6430014
  31.8419992  82.3359978  30.6950014  31.9532403  82.0274797  31.5002239
  25.1029992  80.2309978  28.8960014  25.1459992  81.0909978  28.4770014
  24.6449992  79.6789978  28.2620014  25.0469871  80.2739245  28.7530761
  32.8249992  80.3619978  27.2970014  33.4719992  80.0329978  27.9210014
  33.3349992  80.8789978  26.6740014  32.9824351  80.3869067  27.2981037
  21.7229992  82.6279978  29.6580014  22.3769992  82.0779978  30.0900014
  21.7469992  82.3539978  28.7410014  21.8157199  82.5157167  29.5931668
  26.8799992  84.1779978  28.8730014  27.4959992  83.6509978  29.3820014
  26.2929992  83.5379978  28.4690014  26.8850154  84.0193954  28.8880945
  37.8619992  80.8149978  34.3920014  37.1729992  81.4729978  34.2970014
  37.8769992  80.6169978  35.3290014  37.7697756  80.8782603  34.5055812
  23.9129992  79.1489978  32.9700014  23.6939992  79.6789978  32.2030014
  23.2449992  79.3749978  33.6170014  23.7926975  79.2520967  32.9525140
  31.2819992  88.6489978  26.5140014  30.9869992  88.3259978  25.6620014
  30.9579992  89.5489978  26.5550014  31.1978460  88.7264464  26.4029714
  26.4819992  86.8239978  33.2570014  25.7419992  87.4229978  33.3610014
  27.1959992  87.3779978  32.9420014  26.4773500  86.9807829  33.2286371
  34.5889992  79.6529978  29.2770014  34.3739992  78.8869978  29.8100014
  35.2449992  80.1249978  29.7900014  34.6482673  79.6120728  29.4191990
  23.5069992  81.0409978  30.9220014  24.1209992  81.6739978  31.2950014
  24.0189992  80.5689978  30.2660014  23.6601962  81.0637249  30.8842935
  24.8899992  88.7889978  34.0440014  24.8839992  89.6679978  33.6660014
  24.0359992  88.7049978  34.4690014  24.7737925  88.8979535  34.0496887
  21.0109992  88.4599978  24.8260014  20.7389992  88.6889978  23.9380014
  21.0559992  89.2969978  25.2870014  20.9798097  88.6046163  24.7666683
  34.6359992  90.0809978  31.5390014  33.6939992  90.1399978  31.7010014
  34.9119992  90.9869978  31.4020014  34.5445865  90.2115288  31.5426192
  34.9359992  78.3679978  32.9560014  34.1999992  78.9779978  32.9190014
  35.6199992  78.7829978  32.4300014  34.9275367  78.5077551  32.8798174
  27.9399992  76.4539978  30.4220014  27.8219992  75.5059978  30.3680014
  27.0849992  76.7869978  30.6950014  27.8082805  76.3692202  30.4515079
  32.8879992  91.8619978  28.1640014  33.3129992  91.1549978  27.6790014
  33.2049992  92.6639978  27.7470014  32.9890266  91.8735190  28.0412479
  34.0479992  89.7629978  26.6730014  33.7899992  89.0729978  26.0610014
  34.1189992  89.3199978  27.5180014  34.0223050  89.6086814  26.7035621
  35.7339992  88.3299978  35.1500014  35.8729992  87.7379978  34.4110014
  35.9009992  89.2029978  34.7940014  35.7756193  88.3668896  35.0006211
  30.2059992  85.2919978  24.9230014  29.4949992  85.8269978  24.5710014
  30.8969992  85.3469978  24.2630014  30.2020751  85.3726777  24.7855858
  30.2599992  83.7489978  21.9610014  30.9609992  83.7719978  22.6130014
  30.5619992  83.1209978  21.3050014  30.3968202  83.6672212  21.9615609
  37.5749992  84.6699978  33.2160014  36.9229992  85.3639978  33.3050014
  38.0409992  84.8799978  32.4060014  37.5485937  84.7935019  33.1187533
  33.6119992  85.5009978  25.8740014  32.8799992  85.7299978  26.4480014
  34.0589992  84.7879978  26.3290014  33.5723963  85.4358729  26.0139945
  33.5089992  83.6759978  34.9420014  33.5889992  84.4389978  35.5140014
  32.9079992  83.9549978  34.2520014  33.4386547  83.8182457  34.9270047
  25.2569992  86.1319978  27.7570014  24.9269992  85.7609978  26.9390014
  25.8459992  85.4609978  28.1040014  25.2913970  85.9906063  27.6919404
  26.6239992  89.5599978  30.4380014  26.5289992  88.9809978  29.6820014
  27.3529992  89.1889978  30.9340014  26.7096011  89.4305561  30.4016028
  25.6239992  84.8999978  31.3900014  26.1889992  85.0219978  30.6280014
  25.9429992  85.5379978  32.0290014  25.7444166  85.0028791  31.3720348
  31.9329992  90.4039978  32.1240014  31.6929992  91.0659978  32.7720014
  31.7349992  89.5689978  32.5490014  31.8733826  90.3818115  32.2701566
  26.5039992  89.2999978  36.1080014  26.1929992  90.0819978  36.5630014
  25.8539992  89.1469978  35.4220014  26.3735538  89.3864087  36.0775898
  32.4829992  84.6639978  23.5600014  33.0619992  84.8139978  24.3060014
  32.8969992  85.1339978  22.8360014  32.6183358  84.7480954  23.5643953
  23.4239992  85.4979978  35.3360014  23.4939992  86.1489978  36.0350014
  22.5329992  85.6009978  35.0010014  23.3131690  85.6009249  35.3863043
  30.2089992  91.3999978  26.9950014  30.6829992  91.6959978  27.7720014
  29.6459992  92.1389978  26.7620014  30.1977890  91.5403036  27.0698101
  24.7429992  91.3709978  36.8710014  24.7509992  91.2349978  35.9240014
  23.8269992  91.2539978  37.1230014  24.6202528  91.3365463  36.7753243
  36.1819992  76.4139978  23.3730014  35.2819992  76.5529978  23.6680014
  36.4339992  77.2449978  22.9710014  36.0928683  76.5454055  23.3590232
  24.2479992  85.2009978  25.3460014  23.9559992  85.9689978  24.8550014
  23.5729992  84.5419978  25.1830014  24.1168497  85.2169745  25.2568260
  37.3709992  90.7799978  21.7490014  37.4439992  91.7189978  21.9190014
  38.2759992  90.4749978  21.6930014  37.5034170  90.8673282  21.7647063
  20.3409992  87.5639978  34.1610014  19.8389992  87.5359978  33.3460014
  20.3459992  86.6589978  34.4710014  20.2729832  87.4377486  34.0914121
  20.0909992  90.3449978  31.0450014  21.0369992  90.1999978  31.0260014
  19.9779992  91.1289978  31.5820014  20.2053578  90.4311697  31.1150317
  38.2889992  91.0109978  36.7280014  38.2389992  90.0549978  36.6900014
  37.4619992  91.2779978  37.1290014  38.1703831  90.9164680  36.7770121
  29.2669992  90.5849978  35.6040014  29.3549992  91.4109978  36.0790014
  28.4039992  90.2549978  35.8530014  29.1623357  90.6535468  35.7027653
  29.6819992  94.3569978  25.4100014  29.6059992  94.2359978  24.4630014
  29.7139992  95.3059978  25.5280014  29.6759380  94.4687677  25.2965181
  23.3349992  93.1459978  27.1910014  23.4869992  92.7979978  28.0690014
  22.4839992  92.7889978  26.9350014  23.2408344  93.0500879  27.2766868
  32.7829992  93.5109978  22.4120014  33.1579992  92.7669978  21.9410014
  32.7879992  93.2409978  23.3300014  32.8350098  93.3726392  22.4716629
  32.4519992  93.4369978  25.1610014  31.5169992  93.5369978  25.3400014
  32.7319992  92.7269978  25.7400014  32.3619471  93.3547933  25.2636695
  35.4409992  82.5039978  37.2080014  35.0329992  82.9839978  36.4870014
  35.4809992  81.5979978  36.9000014  35.3906221  82.4472449  37.0678267
  22.5899992  88.8879978  35.2040014  22.8059992  88.5259978  36.0640014
  21.7339992  88.5129978  34.9950014  22.5038810  88.7878837  35.2932680
  25.2079992  77.3579978  31.2000014  24.3469992  77.2709978  30.7920014
  25.1859992  78.2139978  31.6280014  25.0870491  77.4618003  31.2019582
  29.8709992  77.0799978  34.5750014  30.2909992  76.6649978  35.3280014
  28.9379992  76.9009978  34.6920014  29.8023736  76.9989910  34.6938968
  33.1979992  80.8349978  35.4280014  32.6839992  80.7099978  36.2260014
  33.0419992  81.7479978  35.1840014  33.1066967  80.9412123  35.5040937
  33.9599992  85.6959978  21.1890014  34.0019992  85.4739978  20.2590014
  34.8089992  86.0949978  21.3790014  34.0805253  85.7195498  21.0873822
  29.5329992  79.5719978  21.8600014  29.2789992  79.5909978  22.7820014
  29.2759992  78.7009978  21.5580014  29.4634508  79.4568280  21.9454803
  25.2989992  82.3229978  32.2950014  24.6579992  82.2829978  33.0040014
  25.3369992  83.2499978  32.0570014  25.2163010  82.4427668  32.3599946
  25.2959992  82.5439978  27.2070014  24.4039992  82.2039978  27.1480014
  25.7469992  82.1669978  26.4510014  25.2347642  82.4464910  27.0967726
  30.8319992  82.9599978  26.0240014  30.4229992  83.7749978  25.7320014
  31.5519992  82.8199978  25.4100014  30.8734439  83.0525372  25.9010115
  29.9339992  83.1359978  37.5120014  29.3709992  82.4309978  37.8330014
  30.7599992  83.0149978  37.9800014  29.9686674  83.0232165  37.6191751
  31.8369992  82.4059978  28.8380014  31.6409992  83.0119978  28.1230014
  32.0179992  81.5729978  28.4040014  31.8346584  82.3762513  28.6814212
  23.0489992  82.6439978  34.1620014  23.0109992  83.0439978  35.0310014
  22.5589992  81.8269978  34.2520014  22.9775330  82.5882674  34.2931289
  26.4149992  80.0179978  20.9610014  25.9839992  79.5729978  21.6900014
  25.6969992  80.3889978  20.4480014  26.2589176  80.0072051  20.9914930
  19.6579992  79.7599978  28.0130014  20.2879992  79.7309978  28.7320014
  20.1069992  79.3349978  27.2820014  19.8050835  79.6985660  28.0127659
  20.9319992  80.5059978  23.4370014  21.4059992  81.0969978  22.8520014
  20.2139992  81.0359978  23.7840014  20.8998640  80.6585511  23.4037969
  31.1009992  84.0439978  33.5090014  31.4239992  83.4129978  32.8660014
  30.6599992  83.5099978  34.1700014  31.0856379  83.8853468  33.5102582
  27.8779992  79.9719978  28.2930014  26.9669992  80.0289978  28.5820014
  28.3829992  79.9119978  29.1040014  27.8216873  79.9716826  28.4421207
  22.7059992  81.6009978  27.1200014  21.8169992  81.6999978  26.7800014
  23.0029992  80.7589978  26.7740014  22.6244177  81.5007687  27.0266940
  26.3589992  81.6009978  24.7770014  27.2909992  81.7299978  24.9550014
  26.1439992  82.2699978  24.1270014  26.4574472  81.7090806  24.7134891
  32.2829992  79.2069978  31.5580014  31.6059992  79.3379978  32.2210014
  31.7979992  79.0519978  30.7470014  32.1247405  79.2039947  31.5392170
  25.0329992  82.7949978  22.3430014  24.4909992  82.4159978  21.6520014
  25.8669992  82.9899978  21.9150014  25.0714390  82.7694079  22.1904392
  35.5709992  94.8779978  37.8340014  35.7699992  95.3019978  37.0000014
  36.2259992  95.2219978  38.4410014  35.6868522  94.9826301  37.8017852
  23.1689992  87.3519978  37.4420014  23.9009992  87.6069978  38.0040014
  22.3879992  87.5569978  37.9580014  23.1636526  87.4145450  37.5885176
  29.1979992  82.7589978  30.1800014  29.7619992  82.2129978  29.6330014
  29.0499992  82.2379978  30.9690014  29.2553037  82.6136787  30.2117229
  24.1999992  78.8959978  26.5990014  23.8829992  77.9929978  26.5630014
  24.9809992  78.8979978  26.0460014  24.2622431  78.7727797  26.5193102
  27.8239992  81.1479978  32.5940014  26.9889992  81.6019978  32.7050014
  28.3479992  81.4239978  33.3460014  27.7806072  81.2473948  32.7108136
  28.3689992  87.3609978  24.2790014  27.6239992  86.8529978  23.9570014
  28.2339992  87.4099978  25.2250014  28.2488963  87.2981731  24.3628826
  35.5189992  86.4939978  33.0660014  36.1599992  86.9499978  32.5220014
  34.6879992  86.6069978  32.6030014  35.4945287  86.5716921  32.9289887
  32.2659992  80.1749978  22.4780014  31.3279992  80.2859978  22.3270014
  32.5639992  81.0309978  22.7850014  32.1776318  80.3060158  22.4988145
  29.8879992  87.5449978  35.5160014  29.5419992  87.1629978  36.3230014
  29.6879992  88.4779978  35.5870014  29.8135987  87.6189002  35.6360461
  32.9849992  82.0419978  24.1390014  33.8769992  81.9039978  24.4580014
  33.0409992  82.8329978  23.6020014  33.1147325  82.1299918  24.1101217
  23.4929992  86.6559978  30.0490014  24.2379992  86.6529978  29.4470014
  23.5709992  85.8319978  30.5300014  23.6053365  86.5442384  30.0317430
  30.4939992  88.8189978  23.3040014  30.1989992  89.6459978  23.6860014
  29.7909992  88.1999978  23.5010014  30.3586379  88.8484171  23.3828654
  20.5009992  85.1159978  35.3640014  20.7239992  84.6979978  36.1950014
  19.8989992  84.5039978  34.9410014  20.4501513  84.9759606  35.4206740
  27.5179992  84.6329978  37.5770014  27.2219992  84.4679978  36.6810014
  28.4489992  84.4129978  37.5660014  27.6034401  84.5806879  37.4530206
  32.1379992  90.0069978  35.4660014  31.2379992  90.1899978  35.1990014
  32.1719992  90.2659978  36.3870014  32.0193748  90.0670554  35.5539164
  37.8699992  82.2509978  23.8340014  37.3149992  81.8549978  23.1610014
  37.9699992  83.1619978  23.5560014  37.8076816  82.3199505  23.7045033
  37.8329992  88.0519978  36.6710014  36.9819992  88.2899978  36.3030014
  38.4229992  88.0349978  35.9180014  37.7963812  88.0822524  36.5188453
  36.1649992  91.0369978  24.2990014  35.7919992  90.2119978  24.6080014
  36.4419992  90.8539978  23.4010014  36.1513463  90.8992569  24.2199525
  33.3249992  85.8449978  31.3200014  32.3969992  85.6139978  31.2930014
  33.7759992  85.0679978  30.9900014  33.2588165  85.7082774  31.2716790
  25.8679992  90.1739978  27.4530014  26.3959992  90.9469978  27.2530014
  24.9879992  90.3979978  27.1510014  25.8213435  90.3102700  27.3847310
  21.6229992  85.0359978  22.0400014  22.2389992  85.6629978  22.4200014
  20.7609992  85.3519978  22.3120014  21.5907678  85.1644412  22.1287209
  27.2959992  87.8369978  27.0290014  27.0549992  88.7619978  27.0710014
  26.5549992  87.3779978  27.4260014  27.1629206  87.9015915  27.0883769
  27.8099992  91.9859978  33.3440014  28.1729992  92.8399978  33.1110014
  28.3419992  91.6939978  34.0850014  27.9315141  92.0633895  33.4122097
  25.9789992  92.8579978  26.5750014  25.0289992  92.9639978  26.6260014
  26.3309992  93.6789978  26.9190014  25.8965472  92.9834923  26.6284852
  31.3539992  88.0849978  33.0450014  30.9289992  87.8569978  33.8710014
  31.9349992  87.3459978  32.8630014  31.3743395  87.9539545  33.1334414
  33.5569992  89.0139978  22.1190014  33.9109992  88.6339978  22.9230014
  32.6089992  88.9199978  22.2060014  33.4772298  88.9492452  22.2408687
  34.0129992  92.6369978  35.5140014  33.4109992  92.0809978  35.0190014
  34.2939992  93.3039978  34.8880014  33.9685757  92.6510744  35.3615675
  38.0609992  93.4929978  22.3200014  38.8049992  94.0789978  22.1800014
  37.3669992  94.0619978  22.6530014  38.0689809  93.6500818  22.3458590
  22.1349992  79.8699978  34.9220014  21.2429992  80.2079978  34.8540014
  22.0369992  79.0139978  35.3400014  21.9994475  79.8006543  34.9691704
  34.4229992  87.6859978  24.3460014  34.1459992  86.9579978  24.9020014
  35.3509992  87.8049978  24.5510014  34.5104499  87.6024213  24.4498044
  21.7869992  91.6739978  33.3570014  22.0039992  90.7419978  33.3260014
  22.0329992  91.9489978  34.2400014  21.8499809  91.5835686  33.4721691
  27.6479992  90.1259978  20.5660014  27.8869992  89.3769978  20.0190014
  27.3789992  89.7379978  21.3990014  27.6443233  89.9711853  20.6037809
  26.5849992  89.6959978  23.0220014  26.7319992  89.1759978  23.8120014
  26.5819992  90.6029978  23.3290014  26.6047102  89.7473953  23.1715925
  23.0379992  86.9479978  23.5330014  22.3519992  87.3009978  24.1000014
  23.5609992  87.7109978  23.2860014  23.0148402  87.0993901  23.5771801
  30.8699992  79.6109978  33.8120014  31.5689992  79.6849978  34.4620014
  30.4889992  78.7459978  33.9660014  30.9142097  79.5042389  33.9217997
  31.6539992  79.2629978  24.9090014  31.8739992  79.7339978  24.1050014
  32.2129992  79.6569978  25.5790014  31.7596731  79.3807287  24.8895033
  29.3229992  91.3929978  23.7720014  28.5059992  91.8899978  23.8240014
  29.8519992  91.8689978  23.1310014  29.2828125  91.5251989  23.6925306
  28.8539992  80.9909978  25.7440014  29.6659992  81.4949978  25.7900014
  28.6099992  80.8459978  26.6580014  28.9321467  81.0403749  25.8738575
  29.3899992  81.9769978  34.9280014  29.5089992  82.5509978  35.6850014
  30.0449992  81.2889978  35.0430014  29.4948684  81.9625194  35.0471674
  29.7379992  78.0719978  26.6820014  29.3909992  78.6889978  27.3260014
  30.3969992  78.5729978  26.2000014  29.7795090  78.2241575  26.7050681
  26.6609992  92.4369978  23.7530014  26.8219992  93.2369978  23.2530014
  26.4639992  92.7439978  24.6380014  26.6563906  92.5878678  23.8042333
  25.3959992  79.1349978  23.3690014  25.3119992  80.0229978  23.7160014
  26.2859992  78.8699978  23.6010014  25.5048163  79.2207179  23.4478596
  35.5939992  79.8839978  35.7630014  34.6779992  80.1459978  35.6760014
  35.9299992  79.8809978  34.8670014  35.5138499  79.9195163  35.6298766
  34.1969992  83.6339978  29.8590014  33.3989992  83.2189978  29.5310014
  34.6419992  82.9439978  30.3500014  34.1479684  83.4838628  29.8805227
  23.6539992  89.5619978  22.4290014  24.2459992  90.2619978  22.7060014
  24.1129992  89.1289978  21.7100014  23.7971652  89.5992675  22.3696533
  21.9699992  82.2269978  21.5450014  21.9249992  83.1659978  21.7240014
  21.0819992  81.9909978  21.2760014  21.8438166  82.3236687  21.5331524
  35.2829992  92.8899978  31.4810014  35.1269992  93.5689978  30.8240014
  36.2159992  92.9619978  31.6840014  35.3877387  92.9926390  31.4185342
  22.7779992  77.0079978  30.2190014  22.5489992  77.0669978  29.2910014
  22.3359992  76.2169978  30.5250014  22.6868801  76.9090540  30.1334729
  21.7089992  90.9489978  26.3790014  20.8759992  91.4209978  26.4060014
  22.2539992  91.4589978  25.7800014  21.6687857  91.0824791  26.3017142
  20.9969992  93.5609978  37.7090014  21.5369992  93.3449978  38.4690014
  20.5159992  92.7559978  37.5190014  21.0059219  93.4225156  37.7874282
  25.5939992  92.4809978  39.3290014  26.3619992  92.0219978  39.6700014
  25.5729992  92.2549978  38.3990014  25.6962135  92.3876668  39.2499491
  29.6859992  91.9889978  20.7050014  29.0419992  91.3579978  21.0260014
  30.4479992  91.4579978  20.4730014  29.7008058  91.8307902  20.7176038
  32.1709992  90.8609978  38.0580014  31.8199992  90.0039978  38.3020014
  32.8969992  91.0029978  38.6650014  32.2211895  90.7631351  38.1733770
  34.2909992  91.8059978  20.9380014  34.5739992  91.0109978  21.3910014
  35.0299992  92.0389978  20.3770014  34.4297096  91.7287049  20.9241104
  20.9039992  87.3719978  38.6630014  21.0479992  86.4699978  38.3770014
  20.1319992  87.6579978  38.1760014  20.8192733  87.2871798  38.5579532
  25.2449992  87.7149978  20.7960014  25.3099992  86.9209978  21.3260014
  25.8979992  87.5969978  20.1060014  25.3421605  87.5903430  20.7752997
  27.5589992  87.3409978  38.0960014  27.2309992  87.6119978  37.2390014
  27.7109992  86.3999978  38.0080014  27.5346412  87.2509046  37.9667822
  30.5979992  88.7619978  20.5320014  30.3289992  88.9429978  21.4320014
  30.3909992  87.8369978  20.4000014  30.5331191  88.6617119  20.6375524
  33.2939992  87.2569978  35.4790014  34.0389992  87.8459978  35.3600014
  32.5369992  87.8389978  35.5430014  33.2935470  87.4162128  35.4713799
  21.7369992  84.5719978  38.0830014  22.1449992  83.7149978  37.9620014
  21.4759992  84.5859978  39.0040014  21.7576016  84.4565119  38.1909192
  26.3949992  85.6879978  23.1020014  25.9349992  85.2039978  23.7870014
  26.6499992  85.0189978  22.4660014  26.3664856  85.5313669  23.1098397
  25.6839992  83.5809978  35.4580014  25.0649992  84.2549978  35.7380014
  26.0279992  83.9019978  34.6240014  25.6457123  83.7166887  35.3836388
  27.4659992  83.9309978  21.3640014  27.2849992  83.7759978  20.4370014
  28.4159992  84.0389978  21.4090014  27.5696566  83.9243669  21.2430929
  30.7029992  86.0519978  38.7350014  31.6569992  86.1359978  38.7080014
  30.5429992  85.3399978  39.3550014  30.8117182  85.9672842  38.8150733
  36.8559992  86.2849978  20.8100014  36.5819992  85.8609978  19.9970014
  36.8949992  87.2169978  20.5930014  36.8237716  86.3528827  20.6694286
  26.0229992  80.9359978  36.5400014  26.1729992  80.2069978  35.9380014
  26.0249992  81.7129978  35.9810014  26.0437967  80.9412708  36.3820541
  26.4359992  79.3049978  34.0330014  26.9709992  79.7569978  33.3810014
  25.5829992  79.1969978  33.6100014  26.3940374  79.3522665  33.8866710
  28.0169992  84.7449978  34.2720014  28.7679992  84.5889978  33.6990014
  27.6779992  85.5969978  33.9970014  28.0739587  84.8388138  34.1564078
  32.4329992  82.5599978  39.3010014  32.6249992  81.6289978  39.1890014
  33.2909992  82.9849978  39.2900014  32.5752182  82.4900070  39.2841862
  33.7499992  85.3489978  37.3780014  33.4679992  86.0579978  36.8000014
  34.6919992  85.2759978  37.2270014  33.8387921  85.4362193  37.2784225
  24.5019992  82.1339978  38.4510014  23.7339992  81.6009978  38.2410014
  25.1799992  81.8239978  37.8520014  24.4887235  82.0191754  38.3412413
  27.2409992  76.7619978  34.4640014  27.1429992  77.7079978  34.3590014
  26.4989992  76.3889978  33.9880014  27.1272534  76.8411773  34.3852600
  28.5049992  81.0829978  38.0280014  28.2699992  80.8639978  38.9290014
  27.7219992  80.8759978  37.5180014  28.3669095  81.0249892  38.0825353
  31.2209992  80.2109978  37.1030014  30.2729992  80.2429978  37.2350014
  31.5329992  79.5849978  37.7570014  31.1335293  80.1307923  37.2094148
  32.8549992  78.8449978  39.1080014  32.7579992  77.8929978  39.1030014
  32.5329992  79.1129978  39.9690014  32.7982468  78.7510884  39.2236210
  22.6819992  80.0539978  38.1560014  22.8939992  79.3479978  37.5460014
  22.5709992  79.6169978  39.0000014  22.6960269  79.8981921  38.1865873
  27.4629992  76.0559978  37.1350014  28.1749992  75.4159978  37.1210014
  27.3619992  76.3219978  36.2220014  27.5467387  76.0044330  37.0095563
  27.8169992  77.7379978  39.1890014  27.6849992  77.2629978  38.3690014
  27.2169992  78.4829978  39.1340014  27.7179070  77.7735789  39.0693251
  27.3629992  94.6209978  22.3650014  28.2959992  94.7789978  22.5090014
  27.0989992  95.2969978  21.7400014  27.4549911  94.7339373  22.3002722
  20.9309992  89.2579978  21.8480014  21.8449992  89.3369978  22.1210014
  20.9389992  88.5709978  21.1820014  21.0570655  89.1759205  21.7952917
  19.5799992  94.6509978  26.9250014  18.9329992  94.1889978  26.3930014
  19.9349992  93.9789978  27.5080014  19.5393741  94.4969774  26.9309175
  20.4499992  92.7309978  28.7300014  20.1159992  91.8509978  28.9020014
  20.6729992  93.0769978  29.5950014  20.4343721  92.6571938  28.8704168
  37.9989992  93.5409978  31.7110014  37.9769992  93.7259978  32.6500014
  38.6889992  94.1089978  31.3700014  38.0893439  93.6431887  31.7934791
  37.5619992  93.1079978  34.6320014  37.0749992  92.3729978  34.2610014
  38.1109992  92.7139978  35.3100014  37.5695247  92.9541057  34.6728461
  36.0129992  88.8979978  39.2710014  35.1469992  88.7929978  39.6650014
  36.3889992  89.6559978  39.7170014  35.9453401  88.9861708  39.3852620
  37.3139992  87.1539978  24.7850014  38.1639992  87.5749978  24.9120014
  37.3189992  86.4139978  25.3920014  37.4311143  87.1116094  24.8844750
  37.7079992  85.2079978  26.6080014  36.9819992  84.7279978  27.0060014
  38.2899992  85.4129978  27.3410014  37.6872730  85.1700184  26.7614149
  37.4669992  87.9929978  31.5560014  38.3009992  87.6149978  31.2750014
  37.5789992  88.9359978  31.4370014  37.5961917  88.0687943  31.5014861
  35.9539992  90.8709978  33.8630014  35.3059992  91.1959978  34.4880014
  35.4359992  90.4299978  33.1890014  35.7954196  90.8558651  33.8574152
  37.9769992  85.1089978  22.9990014  37.4549992  85.4649978  22.2810014
  37.9439992  85.7839978  23.6780014  37.9010129  85.2489598  22.9923355
  36.3259992  82.3479978  21.5500014  36.4219992  83.0149978  20.8700014
  36.1859992  81.5329978  21.0690014  36.3202040  82.3290671  21.3918378
  35.4949992  83.7289978  27.1710014  35.3449992  82.7839978  27.1510014
  35.1409992  84.0099978  28.0150014  35.4266351  83.6376644  27.2823220
  20.5299992  85.8069978  31.1820014  20.7149992  85.7249978  30.2460014
  21.3799992  85.6829978  31.6050014  20.6700928  85.7790463  31.1112893
  36.3509992  85.6989978  36.8100014  36.9339992  84.9639978  37.0020014
  36.9149992  86.4709978  36.8570014  36.5069781  85.7028145  36.8426164
  35.5729992  79.7559978  20.6680014  36.1839992  79.3849978  21.3050014
  34.7359992  79.3349978  20.8640014  35.5434947  79.6482756  20.7817252
  35.2059992  81.3109978  25.6340014  35.4849992  80.4039978  25.7580014
  35.9649992  81.7449978  25.2450014  35.3468619  81.2454502  25.5983795
  35.8169992  81.8929978  31.0700014  36.7499992  82.1049978  31.0350014
  35.5819992  81.9939978  31.9920014  35.9129517  81.9356833  31.1899130
  35.8469992  82.6299978  33.8460014  35.0039992  82.8979978  34.2120014
  36.2889992  83.4519978  33.6350014  35.7914138  82.7778273  33.8675518
  20.1279992  81.0769978  37.3220014  21.0469992  80.9549978  37.5590014
  19.6779992  80.3269978  37.7120014  20.1930087  80.9589608  37.4071410
  38.1299992  76.6099978  39.1990014  38.4789992  75.9559978  38.5940014
  38.2769992  77.4469978  38.7590014  38.1976824  76.6336024  39.0566304
  35.8189992  78.5739978  25.6820014  36.0009992  78.1249978  26.5070014
  35.2189992  77.9899978  25.2180014  35.7628187  78.4335552  25.7322739
  21.3489992  79.3899978  30.2140014  21.7939992  78.5979978  30.5160014
  21.8149992  80.1059978  30.6440014  21.4729718  79.3784534  30.3135265
  19.6529992  82.3889978  31.2830014  20.1449992  82.1679978  30.4920014
  20.0149992  83.2289978  31.5640014  19.7692923  82.4723468  31.2127407
  37.6489992  78.7189978  37.5480014  36.7319992  78.9899978  37.5130014
  37.7719992  78.1839978  36.7640014  37.5399672  78.6837885  37.4371862
  37.6859992  78.6419978  22.2100014  38.0979992  77.9209978  21.7350014
  38.3669992  79.3109978  22.2680014  37.8345536  78.6337766  22.1528024
  19.9669992  78.6469978  25.3370014  19.0419992  78.8549978  25.2080014
  20.4209992  79.1309978  24.6470014  19.9016298  78.7409299  25.2260451
  34.7369992  93.6309978  27.2830014  35.3899992  93.2829978  26.6750014
  35.2479992  94.1189978  27.9290014  34.8952777  93.6493815  27.2872047
  19.9299992  77.3849978  33.6810014  19.2649992  77.1389978  34.3240014
  19.4869992  78.0069978  33.1040014  19.7791168  77.4354214  33.6909848
  22.1219992  90.5599978  37.8260014  21.3009992  90.7349978  37.3650014
  21.8699992  90.4869978  38.7460014  21.9755594  90.5740717  37.8873611
  25.0759992  91.5339978  34.0840014  24.6519992  92.3439978  33.8020014
  25.9809992  91.6199978  33.7820014  25.1402138  91.6564160  34.0046415
  29.3879992  92.9329978  37.0440014  29.5719992  92.5999978  37.9220014
  30.2339992  93.2429978  36.7220014  29.5276484  92.9292979  37.1207617
  31.7329992  94.2189978  36.2880014  32.4099992  93.5859978  36.0480014
  32.0539992  94.6199978  37.0950014  31.8691323  94.1865691  36.3643158
  36.6499992  76.8089978  35.3670014  35.8369992  77.1339978  34.9800014
  36.8829992  76.0479978  34.8340014  36.5701347  76.7506880  35.2419841
  22.4779992  94.7909978  34.1320014  21.7579992  95.2309978  33.6810014
  22.1129992  94.5399978  34.9800014  22.3299643  94.8173369  34.1849129
  24.9449992  94.3909978  33.1620014  24.0809992  94.4629978  33.5660014
  24.8899992  94.9379978  32.3780014  24.8191942  94.4747849  33.1114000
  29.6559992  94.2789978  32.3370014  29.1989992  94.8079978  31.6830014
  29.8189992  94.8819978  33.0620014  29.6154960  94.4329280  32.3455274
  31.9839992  93.1569978  33.2820014  31.0789992  93.3219978  33.0160014
  32.4119992  94.0099978  33.2160014  31.9181537  93.2949134  33.2367095
  34.5879992  94.7269978  33.5770014  34.4059992  95.6429978  33.3660014
  34.7649992  94.3159978  32.7300014  34.5870030  94.7968273  33.4337166
  21.8929992  93.4139978  31.0420014  21.8749992  92.9879978  31.8990014
  22.6979992  93.0949978  30.6330014  21.9992875  93.3126435  31.1039515
  24.0339992  92.1239978  29.6970014  23.8149992  91.2069978  29.8670014
  24.8579992  92.2639978  30.1630014  24.1154702  92.0175511  29.7832527
  26.5709992  92.5939978  30.5460014  26.7839992  91.7059978  30.2590014
  26.6359992  92.5589978  31.5000014  26.6089149  92.4678326  30.6357369
  30.0799992  78.2579978  29.6900014  29.4059992  77.6279978  29.9460014
  30.6439992  77.7739978  29.0870014  30.0640384  78.1063708  29.6435020
  35.2229992  76.3649978  29.8030014  35.8259992  76.9129978  29.3010014
  34.3529992  76.6839978  29.5620014  35.1879157  76.4830373  29.7017910
  36.9499992  77.5039978  28.1360014  37.5609992  76.9899978  27.6090014
  37.3319992  78.3809978  28.1590014  37.0853305  77.5522050  28.0669418
  22.4069992  76.8919978  27.5120014  21.6299992  76.6569978  27.0050014
  22.9369992  76.0949978  27.5210014  22.3723451  76.7521268  27.4438627
  21.2429992  76.6899978  23.3160014  21.6819992  77.3009978  22.7240014
  20.6089992  77.2279978  23.7900014  21.2173859  76.8464064  23.2990305
  26.9859992  76.8179978  27.3250014  27.8599992  77.2069978  27.2960014
  26.8499992  76.6029978  28.2480014  27.0871953  76.8421643  27.4457617
  32.5429992  76.8479978  28.9750014  32.6189992  76.9439978  28.0250014
  32.2679992  75.9409978  29.1030014  32.5161871  76.7384146  28.8623944
  33.8959992  76.8739978  24.6670014  33.1929992  77.4889978  24.4570014
  33.4509992  76.0369978  24.7980014  33.7396550  76.8449668  24.6559837
  21.1439992  92.6379978  24.2130014  20.4589992  92.5999978  23.5460014
  21.1479992  93.5509978  24.5010014  21.0507621  92.7561924  24.1606126
  23.1039992  78.6059978  21.7580014  23.5949992  77.9759978  21.2310014
  23.7269992  78.9019978  22.4210014  23.2555304  78.5597376  21.7754940
  28.1299992  78.8989978  24.2150014  28.3079992  78.2519978  24.8980014
  28.0759992  79.7329978  24.6820014  28.1470678  78.9231604  24.3716301
  30.0079992  93.8469978  22.6110014  30.8739992  94.2139978  22.4330014
  29.7619992  93.4079978  21.7970014  30.0932097  93.8378525  22.4766019
  36.7169992  93.4099978  25.2900014  36.5229992  92.6619978  24.7250014
  36.6779992  94.1679978  24.7070014  36.6851645  93.4100786  25.1338148
  22.3639992  77.4059978  37.0300014  21.9979992  76.6399978  37.4720014
  23.2769992  77.4349978  37.3160014  22.4373172  77.3050324  37.1291890
  24.3369992  76.7559978  38.5650014  25.2359992  76.4819978  38.3810014
  23.9509992  76.0139978  39.0300014  24.4077307  76.6182196  38.6027098
  22.9619992  93.5579978  21.2380014  22.6939992  93.8439978  22.1120014
  23.7329992  93.0119978  21.3910014  23.0295926  93.5232779  21.3781205
  32.7589992  76.0889978  38.7480014  32.8349992  75.6629978  39.6010014
  33.6519992  76.1019978  38.4050014  32.8902303  76.0323493  38.8185497
  35.9349992  92.1619978  37.4400014  35.1529992  91.9749978  36.9200014
  35.8629992  93.0909978  37.6570014  35.8181924  92.2620637  37.3981602
  50.3409992  86.0479978  27.4710014  50.4299992  86.9919978  27.3390014
  49.7029992  85.7729978  26.8130014  50.2669062  86.1399812  27.3639641
  41.6419992  84.9169978  32.4830014  41.6839992  84.2919978  33.2060014
  42.3449992  85.5409978  32.6650014  41.7427345  84.9157873  32.6065273
  52.9799992  88.2419978  29.1910014  52.5389992  87.5219978  29.6420014
  52.9669992  88.9629978  29.8210014  52.9179215  88.2409291  29.3378105
  42.5659992  89.3669978  31.0180014  42.1959992  88.5649978  30.6480014
  43.5069992  89.1989978  31.0640014  42.6425984  89.2344638  30.9735603
  39.1759992  83.0269978  26.4100014  38.7279992  83.8729978  26.3920014
  38.6149992  82.4479978  25.8950014  39.0388546  83.0643993  26.3378891
  39.8859992  85.1889978  28.5360014  40.0999992  84.4189978  29.0640014
  40.6239992  85.2789978  27.9330014  40.0150200  85.0958586  28.5267035
  50.0919992  93.3459978  29.4030014  50.7109992  92.6699978  29.1300014
  49.8829992  93.1279978  30.3120014  50.1486056  93.2238869  29.4883967
  47.6629992  87.7349978  31.2960014  47.9669992  87.0489978  30.7010014
  48.3849992  87.8539978  31.9140014  47.8021240  87.6572314  31.2980959
  40.5789992  82.6279978  29.6580014  41.2329992  82.0779978  30.0900014
  40.6029992  82.3539978  28.7410014  40.6717199  82.5157167  29.5931668
  42.7689992  79.1489978  32.9700014  42.5499992  79.6789978  32.2030014
  42.1009992  79.3749978  33.6170014  42.6486975  79.2520967  32.9525140
  50.1379992  88.6489978  26.5140014  49.8429992  88.3259978  25.6620014
  49.8139992  89.5489978  26.5550014  50.0538460  88.7264464  26.4029714
  45.3379992  86.8239978  33.2570014  44.5979992  87.4229978  33.3610014
  46.0519992  87.3779978  32.9420014  45.3333500  86.9807829  33.2286371
  43.7459992  88.7889978  34.0440014  43.7399992  89.6679978  33.6660014
  42.8919992  88.7049978  34.4690014  43.6297925  88.8979535  34.0496887
  39.8669992  88.4599978  24.8260014  39.5949992  88.6889978  23.9380014
  39.9119992  89.2969978  25.2870014  39.8358097  88.6046163  24.7666683
  53.4919992  90.0809978  31.5390014  52.5499992  90.1399978  31.7010014
  53.7679992  90.9869978  31.4020014  53.4005865  90.2115288  31.5426192
  51.7439992  91.8619978  28.1640014  52.1689992  91.1549978  27.6790014
  52.0609992  92.6639978  27.7470014  51.8450266  91.8735190  28.0412479
  52.9039992  89.7629978  26.6730014  52.6459992  89.0729978  26.0610014
  52.9749992  89.3199978  27.5180014  52.8783050  89.6086814  26.7035621
  49.0619992  85.2919978  24.9230014  48.3509992  85.8269978  24.5710014
  49.7529992  85.3469978  24.2630014  49.0580751  85.3726777  24.7855858
  49.1159992  83.7489978  21.9610014  49.8169992  83.7719978  22.6130014
  49.4179992  83.1209978  21.3050014  49.2528202  83.6672212  21.9615609
  52.4679992  85.5009978  25.8740014  51.7359992  85.7299978  26.4480014
  52.9149992  84.7879978  26.3290014  52.4283963  85.4358729  26.0139945
  44.1129992  86.1319978  27.7570014  43.7829992  85.7609978  26.9390014
  44.7019992  85.4609978  28.1040014  44.1473970  85.9906063  27.6919404
  45.4799992  89.5599978  30.4380014  45.3849992  88.9809978  29.6820014
  46.2089992  89.1889978  30.9340014  45.5656011  89.4305561  30.4016028
  50.7889992  90.4039978  32.1240014  50.5489992  91.0659978  32.7720014
  50.5909992  89.5689978  32.5490014  50.7293826  90.3818115  32.2701566
  45.3599992  89.2999978  36.1080014  45.0489992  90.0819978  36.5630014
  44.7099992  89.1469978  35.4220014  45.2295538  89.3864087  36.0775898
  51.3389992  84.6639978  23.5600014  51.9179992  84.8139978  24.3060014
  51.7529992  85.1339978  22.8360014  51.4743358  84.7480955  23.5643953
  42.2799992  85.4979978  35.3360014  42.3499992  86.1489978  36.0350014
  41.3889992  85.6009978  35.0010014  42.1691690  85.6009249  35.3863043
  49.0649992  91.3999978  26.9950014  49.5389992  91.6959978  27.7720014
  48.5019992  92.1389978  26.7620014  49.0537890  91.5403036  27.0698101
  43.5989992  91.3709978  36.8710014  43.6069992  91.2349978  35.9240014
  42.6829992  91.2539978  37.1230014  43.4762528  91.3365463  36.7753243
  43.1039992  85.2009978  25.3460014  42.8119992  85.9689978  24.8550014
  42.4289992  84.5419978  25.1830014  42.9728497  85.2169745  25.2568260
  56.2269992  90.7799978  21.7490014  56.2999992  91.7189978  21.9190014
  57.1319992  90.4749978  21.6930014  56.3594170  90.8673282  21.7647063
  39.1969992  87.5639978  34.1610014  38.6949992  87.5359978  33.3460014
  39.2019992  86.6589978  34.4710014  39.1289832  87.4377486  34.0914121
  38.9469992  90.3449978  31.0450014  39.8929992  90.1999978  31.0260014
  38.8339992  91.1289978  31.5820014  39.0613578  90.4311697  31.1150317
  57.1449992  91.0109978  36.7280014  57.0949992  90.0549978  36.6900014
  56.3179992  91.2779978  37.1290014  57.0263831  90.9164680  36.7770121
  48.5379992  94.3569978  25.4100014  48.4619992  94.2359978  24.4630014
  48.5699992  95.3059978  25.5280014  48.5319380  94.4687677  25.2965181
  42.1909992  93.1459978  27.1910014  42.3429992  92.7979978  28.0690014
  41.3399992  92.7889978  26.9350014  42.0968344  93.0500879  27.2766868
  51.6389992  93.5109978  22.4120014  52.0139992  92.7669978  21.9410014
  51.6439992  93.2409978  23.3300014  51.6910098  93.3726392  22.4716629
  51.3079992  93.4369978  25.1610014  50.3729992  93.5369978  25.3400014
  51.5879992  92.7269978  25.7400014  51.2179471  93.3547933  25.2636695
  41.4459992  88.8879978  35.2040014  41.6619992  88.5259978  36.0640014
  40.5899992  88.5129978  34.9950014  41.3598810  88.7878837  35.2932680
  44.0639992  77.3579978  31.2000014  43.2029992  77.2709978  30.7920014
  44.0419992  78.2139978  31.6280014  43.9430491  77.4618003  31.2019582
  52.8159992  85.6959978  21.1890014  52.8579992  85.4739978  20.2590014
  53.6649992  86.0949978  21.3790014  52.9365253  85.7195498  21.0873822
  48.3889992  79.5719978  21.8600014  48.1349992  79.5909978  22.7820014
  48.1319992  78.7009978  21.5580014  48.3194508  79.4568280  21.9454803
  44.1519992  82.5439978  27.2070014  43.2599992  82.2039978  27.1480014
  44.6029992  82.1669978  26.4510014  44.0907642  82.4464910  27.0967726
  49.6879992  82.9599978  26.0240014  49.2789992  83.7749978  25.7320014
  50.4079992  82.8199978  25.4100014  49.7294439  83.0525372  25.9010115
  50.6929992  82.4059978  28.8380014  50.4969992  83.0119978  28.1230014
  50.8739992  81.5729978  28.4040014  50.6906584  82.3762513  28.6814212
  41.9049992  82.6439978  34.1620014  41.8669992  83.0439978  35.0310014
  41.4149992  81.8269978  34.2520014  41.8335330  82.5882674  34.2931289
  45.2709992  80.0179978  20.9610014  44.8399992  79.5729978  21.6900014
  44.5529992  80.3889978  20.4480014  45.1149176  80.0072051  20.9914930
  38.5139992  79.7599978  28.0130014  39.1439992  79.7309978  28.7320014
  38.9629992  79.3349978  27.2820014  38.6610835  79.6985660  28.0127659
  39.7879992  80.5059978  23.4370014  40.2619992  81.0969978  22.8520014
  39.0699992  81.0359978  23.7840014  39.7558640  80.6585511  23.4037969
  46.7339992  79.9719978  28.2930014  45.8229992  80.0289978  28.5820014
  47.2389992  79.9119978  29.1040014  46.6776873  79.9716826  28.4421207
  41.5619992  81.6009978  27.1200014  40.6729992  81.6999978  26.7800014
  41.8589992  80.7589978  26.7740014  41.4804177  81.5007687  27.0266940
  45.2149992  81.6009978  24.7770014  46.1469992  81.7299978  24.9550014
  44.9999992  82.2699978  24.1270014  45.3134472  81.7090806  24.7134891
  43.8889992  82.7949978  22.3430014  43.3469992  82.4159978  21.6520014
  44.7229992  82.9899978  21.9150014  43.9274390  82.7694079  22.1904392
  54.4269992  94.8779978  37.8340014  54.6259992  95.3019978  37.0000014
  55.0819992  95.2219978  38.4410014  54.5428522  94.9826301  37.8017852
  42.0249992  87.3519978  37.4420014  42.7569992  87.6069978  38.0040014
  41.2439992  87.5569978  37.9580014  42.0196526  87.4145450  37.5885176
  43.0559992  78.8959978  26.5990014  42.7389992  77.9929978  26.5630014
  43.8369992  78.8979978  26.0460014  43.1182431  78.7727797  26.5193102
  47.2249992  87.3609978  24.2790014  46.4799992  86.8529978  23.9570014
  47.0899992  87.4099978  25.2250014  47.1048963  87.2981731  24.3628826
  51.1219992  80.1749978  22.4780014  50.1839992  80.2859978  22.3270014
  51.4199992  81.0309978  22.7850014  51.0336318  80.3060158  22.4988145
  51.8409992  82.0419978  24.1390014  52.7329992  81.9039978  24.4580014
  51.8969992  82.8329978  23.6020014  51.9707325  82.1299918  24.1101217
  42.3489992  86.6559978  30.0490014  43.0939992  86.6529978  29.4470014
  42.4269992  85.8319978  30.5300014  42.4613365  86.5442384  30.0317430
  49.3499992  88.8189978  23.3040014  49.0549992  89.6459978  23.6860014
  48.6469992  88.1999978  23.5010014  49.2146379  88.8484171  23.3828654
  39.3569992  85.1159978  35.3640014  39.5799992  84.6979978  36.1950014
  38.7549992  84.5039978  34.9410014  39.3061513  84.9759606  35.4206740
  55.0209992  91.0369978  24.2990014  54.6479992  90.2119978  24.6080014
  55.2979992  90.8539978  23.4010014  55.0073463  90.8992569  24.2199525
  44.7239992  90.1739978  27.4530014  45.2519992  90.9469978  27.2530014
  43.8439992  90.3979978  27.1510014  44.6773435  90.3102700  27.3847310
  40.4789992  85.0359978  22.0400014  41.0949992  85.6629978  22.4200014
  39.6169992  85.3519978  22.3120014  40.4467678  85.1644412  22.1287209
  46.1519992  87.8369978  27.0290014  45.9109992  88.7619978  27.0710014
  45.4109992  87.3779978  27.4260014  46.0189206  87.9015915  27.0883769
  46.6659992  91.9859978  33.3440014  47.0289992  92.8399978  33.1110014
  47.1979992  91.6939978  34.0850014  46.7875141  92.0633895  33.4122097
  44.8349992  92.8579978  26.5750014  43.8849992  92.9639978  26.6260014
  45.1869992  93.6789978  26.9190014  44.7525472  92.9834923  26.6284852
  50.2099992  88.0849978  33.0450014  49.7849992  87.8569978  33.8710014
  50.7909992  87.3459978  32.8630014  50.2303395  87.9539545  33.1334414
  52.4129992  89.0139978  22.1190014  52.7669992  88.6339978  22.9230014
  51.4649992  88.9199978  22.2060014  52.3332298  88.9492452  22.2408687
  56.9169992  93.4929978  22.3200014  57.6609992  94.0789978  22.1800014
  56.2229992  94.0619978  22.6530014  56.9249809  93.6500818  22.3458590
  40.9909992  79.8699978  34.9220014  40.0989992  80.2079978  34.8540014
  40.8929992  79.0139978  35.3400014  40.8554475  79.8006543  34.9691704
  53.2789992  87.6859978  24.3460014  53.0019992  86.9579978  24.9020014
  54.2069992  87.8049978  24.5510014  53.3664499  87.6024213  24.4498044
  40.6429992  91.6739978  33.3570014  40.8599992  90.7419978  33.3260014
  40.8889992  91.9489978  34.2400014  40.7059809  91.5835686  33.4721691
  46.5039992  90.1259978  20.5660014  46.7429992  89.3769978  20.0190014
  46.2349992  89.7379978  21.3990014  46.5003233  89.9711853  20.6037809
  45.4409992  89.6959978  23.0220014  45.5879992  89.1759978  23.8120014
  45.4379992  90.6029978  23.3290014  45.4607102  89.7473953  23.1715925
  41.8939992  86.9479978  23.5330014  41.2079992  87.3009978  24.1000014
  42.4169992  87.7109978  23.2860014  41.8708402  87.0993901  23.5771801
  50.5099992  79.2629978  24.9090014  50.7299992  79.7339978  24.1050014
  51.0689992  79.6569978  25.5790014  50.6156731  79.3807287  24.8895033
  48.1789992  91.3929978  23.7720014  47.3619992  91.8899978  23.8240014
  48.7079992  91.8689978  23.1310014  48.1388125  91.5251989  23.6925306
  47.7099992  80.9909978  25.7440014  48.5219992  81.4949978  25.7900014
  47.4659992  80.8459978  26.6580014  47.7881467  81.0403749  25.8738575
  45.5169992  92.4369978  23.7530014  45.6779992  93.2369978  23.2530014
  45.3199992  92.7439978  24.6380014  45.5123906  92.5878678  23.8042333
  44.2519992  79.1349978  23.3690014  44.1679992  80.0229978  23.7160014
  45.1419992  78.8699978  23.6010014  44.3608163  79.2207179  23.4478596
  42.5099992  89.5619978  22.4290014  43.1019992  90.2619978  22.7060014
  42.9689992  89.1289978  21.7100014  42.6531652  89.5992675  22.3696533
  40.8259992  82.2269978  21.5450014  40.7809992  83.1659978  21.7240014
  39.9379992  81.9909978  21.2760014  40.6998166  82.3236687  21.5331524
  54.1389992  92.8899978  31.4810014  53.9829992  93.5689978  30.8240014
  55.0719992  92.9619978  31.6840014  54.2437387  92.9926390  31.4185342
  40.5649992  90.9489978  26.3790014  39.7319992  91.4209978  26.4060014
  41.1099992  91.4589978  25.7800014  40.5247857  91.0824791  26.3017142
  39.8529992  93.5609978  37.7090014  40.3929992  93.3449978  38.4690014
  39.3719992  92.7559978  37.5190014  39.8619219  93.4225156  37.7874282
  44.4499992  92.4809978  39.3290014  45.2179992  92.0219978  39.6700014
  44.4289992  92.2549978  38.3990014  44.5522135  92.3876668  39.2499491
  48.5419992  91.9889978  20.7050014  47.8979992  91.3579978  21.0260014
  49.3039992  91.4579978  20.4730014  48.5568058  91.8307902  20.7176038
  53.1469992  91.8059978  20.9380014  53.4299992  91.0109978  21.3910014
  53.8859992  92.0389978  20.3770014  53.2857096  91.7287049  20.9241104
  39.7599992  87.3719978  38.6630014  39.9039992  86.4699978  38.3770014
  38.9879992  87.6579978  38.1760014  39.6752733  87.2871798  38.5579532
  44.1009992  87.7149978  20.7960014  44.1659992  86.9209978  21.3260014
  44.7539992  87.5969978  20.1060014  44.1981605  87.5903430  20.7752997
  46.4149992  87.3409978  38.0960014  46.0869992  87.6119978  37.2390014
  46.5669992  86.3999978  38.0080014  46.3906412  87.2509046  37.9667822
  49.4539992  88.7619978  20.5320014  49.1849992  88.9429978  21.4320014
  49.2469992  87.8369978  20.4000014  49.3891191  88.6617119  20.6375524
  45.2509992  85.6879978  23.1020014  44.7909992  85.2039978  23.7870014
  45.5059992  85.0189978  22.4660014  45.2224856  85.5313669  23.1098397
  46.3219992  83.9309978  21.3640014  46.1409992  83.7759978  20.4370014
  47.2719992  84.0389978  21.4090014  46.4256566  83.9243669  21.2430929
  55.7119992  86.2849978  20.8100014  55.4379992  85.8609978  19.9970014
  55.7509992  87.2169978  20.5930014  55.6797716  86.3528827  20.6694286
  46.2189992  94.6209978  22.3650014  47.1519992  94.7789978  22.5090014
  45.9549992  95.2969978  21.7400014  46.3109911  94.7339373  22.3002722
  39.7869992  89.2579978  21.8480014  40.7009992  89.3369978  22.1210014
  39.7949992  88.5709978  21.1820014  39.9130655  89.1759205  21.7952917
  38.4359992  94.6509978  26.9250014  37.7889992  94.1889978  26.3930014
  38.7909992  93.9789978  27.5080014  38.3953741  94.4969774  26.9309175
  39.3059992  92.7309978  28.7300014  38.9719992  91.8509978  28.9020014
  39.5289992  93.0769978  29.5950014  39.2903721  92.6571938  28.8704168
  56.8549992  93.5409978  31.7110014  56.8329992  93.7259978  32.6500014
  57.5449992  94.1089978  31.3700014  56.9453439  93.6431887  31.7934791
  56.4179992  93.1079978  34.6320014  55.9309992  92.3729978  34.2610014
  56.9669992  92.7139978  35.3100014  56.4255247  92.9541057  34.6728461
  56.1699992  87.1539978  24.7850014  57.0199992  87.5749978  24.9120014
  56.1749992  86.4139978  25.3920014  56.2871143  87.1116094  24.8844750
  56.5639992  85.2079978  26.6080014  55.8379992  84.7279978  27.0060014
  57.1459992  85.4129978  27.3410014  56.5432730  85.1700184  26.7614149
  56.3229992  87.9929978  31.5560014  57.1569992  87.6149978  31.2750014
  56.4349992  88.9359978  31.4370014  56.4521917  88.0687943  31.5014861
  54.8099992  90.8709978  33.8630014  54.1619992  91.1959978  34.4880014
  54.2919992  90.4299978  33.1890014  54.6514196  90.8558651  33.8574152
  56.8329992  85.1089978  22.9990014  56.3109992  85.4649978  22.2810014
  56.7999992  85.7839978  23.6780014  56.7570129  85.2489598  22.9923355
  54.3509992  83.7289978  27.1710014  54.2009992  82.7839978  27.1510014
  53.9969992  84.0099978  28.0150014  54.2826351  83.6376644  27.2823220
  39.3859992  85.8069978  31.1820014  39.5709992  85.7249978  30.2460014
  40.2359992  85.6829978  31.6050014  39.5260928  85.7790463  31.1112893
  54.4289992  79.7559978  20.6680014  55.0399992  79.3849978  21.3050014
  53.5919992  79.3349978  20.8640014  54.3994947  79.6482756  20.7817252
  40.2049992  79.3899978  30.2140014  40.6499992  78.5979978  30.5160014
  40.6709992  80.1059978  30.6440014  40.3289718  79.3784534  30.3135265
  38.5089992  82.3889978  31.2830014  39.0009992  82.1679978  30.4920014
  38.8709992  83.2289978  31.5640014  38.6252923  82.4723468  31.2127407
  38.8229992  78.6469978  25.3370014  37.8979992  78.8549978  25.2080014
  39.2769992  79.1309978  24.6470014  38.7576298  78.7409299  25.2260451
  53.5929992  93.6309978  27.2830014  54.2459992  93.2829978  26.6750014
  54.1039992  94.1189978  27.9290014  53.7512777  93.6493815  27.2872047
  38.7859992  77.3849978  33.6810014  38.1209992  77.1389978  34.3240014
  38.3429992  78.0069978  33.1040014  38.6351168  77.4354214  33.6909848
  40.9779992  90.5599978  37.8260014  40.1569992  90.7349978  37.3650014
  40.7259992  90.4869978  38.7460014  40.8315594  90.5740717  37.8873611
  43.9319992  91.5339978  34.0840014  43.5079992  92.3439978  33.8020014
  44.8369992  91.6199978  33.7820014  43.9962138  91.6564160  34.0046415
  48.2439992  92.9329978  37.0440014  48.4279992  92.5999978  37.9220014
  49.0899992  93.2429978  36.7220014  48.3836484  92.9292979  37.1207617
  50.5889992  94.2189978  36.2880014  51.2659992  93.5859978  36.0480014
  50.9099992  94.6199978  37.0950014  50.7251323  94.1865691  36.3643158
  41.3339992  94.7909978  34.1320014  40.6139992  95.2309978  33.6810014
  40.9689992  94.5399978  34.9800014  41.1859643  94.8173369  34.1849129
  43.8009992  94.3909978  33.1620014  42.9369992  94.4629978  33.5660014
  43.7459992  94.9379978  32.3780014  43.6751942  94.4747849  33.1114000
  48.5119992  94.2789978  32.3370014  48.0549992  94.8079978  31.6830014
  48.6749992  94.8819978  33.0620014  48.4714960  94.4329280  32.3455274
  50.8399992  93.1569978  33.2820014  49.9349992  93.3219978  33.0160014
  51.2679992  94.0099978  33.2160014  50.7741537  93.2949134  33.2367095
  53.4439992  94.7269978  33.5770014  53.2619992  95.6429978  33.3660014
  53.6209992  94.3159978  32.7300014  53.4430030  94.7968273  33.4337166
  40.7489992  93.4139978  31.0420014  40.7309992  92.9879978  31.8990014
  41.5539992  93.0949978  30.6330014  40.8552875  93.3126435  31.1039515
  42.8899992  92.1239978  29.6970014  42.6709992  91.2069978  29.8670014
  43.7139992  92.2639978  30.1630014  42.9714702  92.0175511  29.7832527
  45.4269992  92.5939978  30.5460014  45.6399992  91.7059978  30.2590014
  45.4919992  92.5589978  31.5000014  45.4649149  92.4678326  30.6357369
  41.2629992  76.8919978  27.5120014  40.4859992  76.6569978  27.0050014
  41.7929992  76.0949978  27.5210014  41.2283451  76.7521268  27.4438627
  40.0989992  76.6899978  23.3160014  40.5379992  77.3009978  22.7240014
  39.4649992  77.2279978  23.7900014  40.0733859  76.8464064  23.2990305
  39.9999992  92.6379978  24.2130014  39.3149992  92.5999978  23.5460014
  40.0039992  93.5509978  24.5010014  39.9067621  92.7561924  24.1606126
  41.9599992  78.6059978  21.7580014  42.4509992  77.9759978  21.2310014
  42.5829992  78.9019978  22.4210014  42.1115304  78.5597376  21.7754940
  46.9859992  78.8989978  24.2150014  47.1639992  78.2519978  24.8980014
  46.9319992  79.7329978  24.6820014  47.0030678  78.9231604  24.3716301
  48.8639992  93.8469978  22.6110014  49.7299992  94.2139978  22.4330014
  48.6179992  93.4079978  21.7970014  48.9492097  93.8378525  22.4766019
  55.5729992  93.4099978  25.2900014  55.3789992  92.6619978  24.7250014
  55.5339992  94.1679978  24.7070014  55.5411645  93.4100786  25.1338148
  41.8179992  93.5579978  21.2380014  41.5499992  93.8439978  22.1120014
  42.5889992  93.0119978  21.3910014  41.8855926  93.5232779  21.3781205
  54.7909992  92.1619978  37.4400014  54.0089992  91.9749978  36.9200014
  54.7189992  93.0909978  37.6570014  54.6741924  92.2620637  37.3981602
  71.8359992  88.2419978  29.1910014  71.3949992  87.5219978  29.6420014
  71.8229992  88.9629978  29.8210014  71.7739215  88.2409291  29.3378105
  61.4219992  89.3669978  31.0180014  61.0519992  88.5649978  30.6480014
  62.3629992  89.1989978  31.0640014  61.4985984  89.2344638  30.9735603
  68.9479992  93.3459978  29.4030014  69.5669992  92.6699978  29.1300014
  68.7389992  93.1279978  30.3120014  69.0046056  93.2238869  29.4883967
  66.5189992  87.7349978  31.2960014  66.8229992  87.0489978  30.7010014
  67.2409992  87.8539978  31.9140014  66.6581240  87.6572314  31.2980959
  68.9939992  88.6489978  26.5140014  68.6989992  88.3259978  25.6620014
  68.6699992  89.5489978  26.5550014  68.9098460  88.7264464  26.4029714
  62.6019992  88.7889978  34.0440014  62.5959992  89.6679978  33.6660014
  61.7479992  88.7049978  34.4690014  62.4857925  88.8979535  34.0496887
  58.7229992  88.4599978  24.8260014  58.4509992  88.6889978  23.9380014
  58.7679992  89.2969978  25.2870014  58.6918097  88.6046163  24.7666683
  72.3479992  90.0809978  31.5390014  71.4059992  90.1399978  31.7010014
  72.6239992  90.9869978  31.4020014  72.2565865  90.2115288  31.5426192
  70.5999992  91.8619978  28.1640014  71.0249992  91.1549978  27.6790014
  70.9169992  92.6639978  27.7470014  70.7010266  91.8735190  28.0412479
  71.7599992  89.7629978  26.6730014  71.5019992  89.0729978  26.0610014
  71.8309992  89.3199978  27.5180014  71.7343050  89.6086814  26.7035621
  67.9179992  85.2919978  24.9230014  67.2069992  85.8269978  24.5710014
  68.6089992  85.3469978  24.2630014  67.9140751  85.3726777  24.7855858
  67.9719992  83.7489978  21.9610014  68.6729992  83.7719978  22.6130014
  68.2739992  83.1209978  21.3050014  68.1088202  83.6672212  21.9615609
  71.3239992  85.5009978  25.8740014  70.5919992  85.7299978  26.4480014
  71.7709992  84.7879978  26.3290014  71.2843963  85.4358729  26.0139945
  71.2209992  83.6759978  34.9420014  71.3009992  84.4389978  35.5140014
  70.6199992  83.9549978  34.2520014  71.1506547  83.8182457  34.9270047
  64.3359992  89.5599978  30.4380014  64.2409992  88.9809978  29.6820014
  65.0649992  89.1889978  30.9340014  64.4216011  89.4305561  30.4016028
  69.6449992  90.4039978  32.1240014  69.4049992  91.0659978  32.7720014
  69.4469992  89.5689978  32.5490014  69.5853826  90.3818115  32.2701566
  64.2159992  89.2999978  36.1080014  63.9049992  90.0819978  36.5630014
  63.5659992  89.1469978  35.4220014  64.0855538  89.3864087  36.0775898
  70.1949992  84.6639978  23.5600014  70.7739992  84.8139978  24.3060014
  70.6089992  85.1339978  22.8360014  70.3303358  84.7480954  23.5643953
  67.9209992  91.3999978  26.9950014  68.3949992  91.6959978  27.7720014
  67.3579992  92.1389978  26.7620014  67.9097890  91.5403036  27.0698101
  62.4549992  91.3709978  36.8710014  62.4629992  91.2349978  35.9240014
  61.5389992  91.2539978  37.1230014  62.3322528  91.3365463  36.7753243
  73.8939992  76.4139978  23.3730014  72.9939992  76.5529978  23.6680014
  74.1459992  77.2449978  22.9710014  73.8048683  76.5454055  23.3590232
  75.0829992  90.7799978  21.7490014  75.1559992  91.7189978  21.9190014
  75.9879992  90.4749978  21.6930014  75.2154170  90.8673282  21.7647063
  57.8029992  90.3449978  31.0450014  58.7489992  90.1999978  31.0260014
  57.6899992  91.1289978  31.5820014  57.9173578  90.4311697  31.1150317
  67.3939992  94.3569978  25.4100014  67.3179992  94.2359978  24.4630014
  67.4259992  95.3059978  25.5280014  67.3879380  94.4687677  25.2965181
  61.0469992  93.1459978  27.1910014  61.1989992  92.7979978  28.0690014
  60.1959992  92.7889978  26.9350014  60.9528344  93.0500879  27.2766868
  70.4949992  93.5109978  22.4120014  70.8699992  92.7669978  21.9410014
  70.4999992  93.2409978  23.3300014  70.5470098  93.3726392  22.4716629
  70.1639992  93.4369978  25.1610014  69.2289992  93.5369978  25.3400014
  70.4439992  92.7269978  25.7400014  70.0739471  93.3547933  25.2636695
  71.6719992  85.6959978  21.1890014  71.7139992  85.4739978  20.2590014
  72.5209992  86.0949978  21.3790014  71.7925253  85.7195498  21.0873822
  68.5439992  82.9599978  26.0240014  68.1349992  83.7749978  25.7320014
  69.2639992  82.8199978  25.4100014  68.5854439  83.0525372  25.9010115
  66.0809992  87.3609978  24.2790014  65.3359992  86.8529978  23.9570014
  65.9459992  87.4099978  25.2250014  65.9608963  87.2981731  24.3628826
  73.2309992  86.4939978  33.0660014  73.8719992  86.9499978  32.5220014
  72.3999992  86.6069978  32.6030014  73.2065287  86.5716921  32.9289887
  70.6969992  82.0419978  24.1390014  71.5889992  81.9039978  24.4580014
  70.7529992  82.8329978  23.6020014  70.8267325  82.1299918  24.1101217
  68.2059992  88.8189978  23.3040014  67.9109992  89.6459978  23.6860014
  67.5029992  88.1999978  23.5010014  68.0706379  88.8484171  23.3828654
  75.5819992  82.2509978  23.8340014  75.0269992  81.8549978  23.1610014
  75.6819992  83.1619978  23.5560014  75.5196816  82.3199505  23.7045033
  73.8769992  91.0369978  24.2990014  73.5039992  90.2119978  24.6080014
  74.1539992  90.8539978  23.4010014  73.8633463  90.8992569  24.2199525
  71.0369992  85.8449978  31.3200014  70.1089992  85.6139978  31.2930014
  71.4879992  85.0679978  30.9900014  70.9708165  85.7082774  31.2716790
  59.3349992  85.0359978  22.0400014  59.9509992  85.6629978  22.4200014
  58.4729992  85.3519978  22.3120014  59.3027678  85.1644412  22.1287209
  65.5219992  91.9859978  33.3440014  65.8849992  92.8399978  33.1110014
  66.0539992  91.6939978  34.0850014  65.6435141  92.0633895  33.4122097
  63.6909992  92.8579978  26.5750014  62.7409992  92.9639978  26.6260014
  64.0429992  93.6789978  26.9190014  63.6085472  92.9834923  26.6284852
  69.0659992  88.0849978  33.0450014  68.6409992  87.8569978  33.8710014
  69.6469992  87.3459978  32.8630014  69.0863395  87.9539545  33.1334414
  71.2689992  89.0139978  22.1190014  71.6229992  88.6339978  22.9230014
  70.3209992  88.9199978  22.2060014  71.1892298  88.9492452  22.2408687
  75.7729992  93.4929978  22.3200014  76.5169992  94.0789978  22.1800014
  75.0789992  94.0619978  22.6530014  75.7809809  93.6500818  22.3458590
  72.1349992  87.6859978  24.3460014  71.8579992  86.9579978  24.9020014
  73.0629992  87.8049978  24.5510014  72.2224499  87.6024213  24.4498044
  65.3599992  90.1259978  20.5660014  65.5989992  89.3769978  20.0190014
  65.0909992  89.7379978  21.3990014  65.3563233  89.9711853  20.6037809
  64.2969992  89.6959978  23.0220014  64.4439992  89.1759978  23.8120014
  64.2939992  90.6029978  23.3290014  64.3167102  89.7473953  23.1715925
  60.7499992  86.9479978  23.5330014  60.0639992  87.3009978  24.1000014
  61.2729992  87.7109978  23.2860014  60.7268402  87.0993901  23.5771801
  67.0349992  91.3929978  23.7720014  66.2179992  91.8899978  23.8240014
  67.5639992  91.8689978  23.1310014  66.9948125  91.5251989  23.6925306
  64.3729992  92.4369978  23.7530014  64.5339992  93.2369978  23.2530014
  64.1759992  92.7439978  24.6380014  64.3683906  92.5878678  23.8042333
  73.3059992  79.8839978  35.7630014  72.3899992  80.1459978  35.6760014
  73.6419992  79.8809978  34.8670014  73.2258499  79.9195163  35.6298766
  71.9089992  83.6339978  29.8590014  71.1109992  83.2189978  29.5310014
  72.3539992  82.9439978  30.3500014  71.8599684  83.4838628  29.8805227
  61.3659992  89.5619978  22.4290014  61.9579992  90.2619978  22.7060014
  61.8249992  89.1289978  21.7100014  61.5091652  89.5992675  22.3696533
  72.9949992  92.8899978  31.4810014  72.8389992  93.5689978  30.8240014
  73.9279992  92.9619978  31.6840014  73.0997387  92.9926390  31.4185342
  58.7089992  93.5609978  37.7090014  59.2489992  93.3449978  38.4690014
  58.2279992  92.7559978  37.5190014  58.7179219  93.4225156  37.7874282
  67.3979992  91.9889978  20.7050014  66.7539992  91.3579978  21.0260014
  68.1599992  91.4579978  20.4730014  67.4128058  91.8307902  20.7176038
  72.0029992  91.8059978  20.9380014  72.2859992  91.0109978  21.3910014
  72.7419992  92.0389978  20.3770014  72.1417096  91.7287049  20.9241104
  62.9569992  87.7149978  20.7960014  63.0219992  86.9209978  21.3260014
  63.6099992  87.5969978  20.1060014  63.0541605  87.5903430  20.7752997
  68.3099992  88.7619978  20.5320014  68.0409992  88.9429978  21.4320014
  68.1029992  87.8369978  20.4000014  68.2451191  88.6617119  20.6375524
  74.5679992  86.2849978  20.8100014  74.2939992  85.8609978  19.9970014
  74.6069992  87.2169978  20.5930014  74.5357716  86.3528827  20.6694286
  65.0749992  94.6209978  22.3650014  66.0079992  94.7789978  22.5090014
  64.8109992  95.2969978  21.7400014  65.1669911  94.7339373  22.3002722
  58.6429992  89.2579978  21.8480014  59.5569992  89.3369978  22.1210014
  58.6509992  88.5709978  21.1820014  58.7690655  89.1759205  21.7952917
  57.2919992  94.6509978  26.9250014  56.6449992  94.1889978  26.3930014
  57.6469992  93.9789978  27.5080014  57.2513741  94.4969774  26.9309175
  58.1619992  92.7309978  28.7300014  57.8279992  91.8509978  28.9020014
  58.3849992  93.0769978  29.5950014  58.1463721  92.6571938  28.8704168
  75.0259992  87.1539978  24.7850014  75.8759992  87.5749978  24.9120014
  75.0309992  86.4139978  25.3920014  75.1431143  87.1116094  24.8844750
  75.6889992  85.1089978  22.9990014  75.1669992  85.4649978  22.2810014
  75.6559992  85.7839978  23.6780014  75.6130129  85.2489598  22.9923355
  74.0379992  82.3479978  21.5500014  74.1339992  83.0149978  20.8700014
  73.8979992  81.5329978  21.0690014  74.0322040  82.3290671  21.3918378
  73.2069992  83.7289978  27.1710014  73.0569992  82.7839978  27.1510014
  72.8529992  84.0099978  28.0150014  73.1386351  83.6376644  27.2823220
  73.2849992  79.7559978  20.6680014  73.8959992  79.3849978  21.3050014
  72.4479992  79.3349978  20.8640014  73.2554947  79.6482756  20.7817252
  72.9179992  81.3109978  25.6340014  73.1969992  80.4039978  25.7580014
  73.6769992  81.7449978  25.2450014  73.0588619  81.2454502  25.5983795
  75.3979992  78.6419978  22.2100014  75.8099992  77.9209978  21.7350014
  76.0789992  79.3109978  22.2680014  75.5465536  78.6337766  22.1528024
  72.4489992  93.6309978  27.2830014  73.1019992  93.2829978  26.6750014
  72.9599992  94.1189978  27.9290014  72.6072777  93.6493815  27.2872047
  62.7879992  91.5339978  34.0840014  62.3639992  92.3439978  33.8020014
  63.6929992  91.6199978  33.7820014  62.8522138  91.6564160  34.0046415
  60.1899992  94.7909978  34.1320014  59.4699992  95.2309978  33.6810014
  59.8249992  94.5399978  34.9800014  60.0419643  94.8173369  34.1849129
  62.6569992  94.3909978  33.1620014  61.7929992  94.4629978  33.5660014
  62.6019992  94.9379978  32.3780014  62.5311942  94.4747849  33.1114000
  59.6049992  93.4139978  31.0420014  59.5869992  92.9879978  31.8990014
  60.4099992  93.0949978  30.6330014  59.7112875  93.3126435  31.1039515
  61.7459992  92.1239978  29.6970014  61.5269992  91.2069978  29.8670014
  62.5699992  92.2639978  30.1630014  61.8274702  92.0175511  29.7832527
  64.2829992  92.5939978  30.5460014  64.4959992  91.7059978  30.2590014
  64.3479992  92.5589978  31.5000014  64.3209149  92.4678326  30.6357369
  58.8559992  92.6379978  24.2130014  58.1709992  92.5999978  23.5460014
  58.8599992  93.5509978  24.5010014  58.7627621  92.7561924  24.1606126
  67.7199992  93.8469978  22.6110014  68.5859992  94.2139978  22.4330014
  67.4739992  93.4079978  21.7970014  67.8052097  93.8378525  22.4766019
  74.4289992  93.4099978  25.2900014  74.2349992  92.6619978  24.7250014
  74.3899992  94.1679978  24.7070014  74.3971645  93.4100786  25.1338148
  60.6739992  93.5579978  21.2380014  60.4059992  93.8439978  22.1120014
  61.4449992  93.0119978  21.3910014  60.7415926  93.5232779  21.3781205
  88.0529992  86.0479978  27.4710014  88.1419992  86.9919978  27.3390014
  87.4149992  85.7729978  26.8130014  87.9789062  86.1399812  27.3639641
  86.9859992  85.3029978  30.8900014  86.9479992  84.6569978  31.5950014
  86.6639992  84.8359978  30.1190014  86.9372679  85.1514276  30.8822921
  90.6919992  88.2419978  29.1910014  90.2509992  87.5219978  29.6420014
  90.6789992  88.9629978  29.8210014  90.6299215  88.2409291  29.3378105
  87.8039992  93.3459978  29.4030014  88.4229992  92.6699978  29.1300014
  87.5949992  93.1279978  30.3120014  87.8606056  93.2238869  29.4883967
  85.3749992  87.7349978  31.2960014  85.6789992  87.0489978  30.7010014
  86.0969992  87.8539978  31.9140014  85.5141240  87.6572314  31.2980959
  94.0379992  79.3369978  32.1560014  94.0879992  79.9469978  32.8920014
  94.4639992  79.7979978  31.4330014  94.1024108  79.4827709  32.1590112
  89.3929992  80.3619978  27.2970014  90.0399992  80.0329978  27.9210014
  89.9029992  80.8789978  26.6740014  89.5504351  80.3869067  27.2981037
  83.4479992  84.1779978  28.8730014  84.0639992  83.6509978  29.3820014
  82.8609992  83.5379978  28.4690014  83.4530154  84.0193954  28.8880945
  94.4299992  80.8149978  34.3920014  93.7409992  81.4729978  34.2970014
  94.4449992  80.6169978  35.3290014  94.3377756  80.8782603  34.5055812
  87.8499992  88.6489978  26.5140014  87.5549992  88.3259978  25.6620014
  87.5259992  89.5489978  26.5550014  87.7658460  88.7264464  26.4029714
  91.1569992  79.6529978  29.2770014  90.9419992  78.8869978  29.8100014
  91.8129992  80.1249978  29.7900014  91.2162673  79.6120728  29.4191990
  77.5789992  88.4599978  24.8260014  77.3069992  88.6889978  23.9380014
  77.6239992  89.2969978  25.2870014  77.5478097  88.6046163  24.7666683
  91.2039992  90.0809978  31.5390014  90.2619992  90.1399978  31.7010014
  91.4799992  90.9869978  31.4020014  91.1125865  90.2115288  31.5426192
  91.5039992  78.3679978  32.9560014  90.7679992  78.9779978  32.9190014
  92.1879992  78.7829978  32.4300014  91.4955367  78.5077551  32.8798174
  89.4559992  91.8619978  28.1640014  89.8809992  91.1549978  27.6790014
  89.7729992  92.6639978  27.7470014  89.5570266  91.8735190  28.0412479
  90.6159992  89.7629978  26.6730014  90.3579992  89.0729978  26.0610014
  90.6869992  89.3199978  27.5180014  90.5903050  89.6086814  26.7035621
  92.3019992  88.3299978  35.1500014  92.4409992  87.7379978  34.4110014
  92.4689992  89.2029978  34.7940014  92.3436193  88.3668896  35.0006211
  86.7739992  85.2919978  24.9230014  86.0629992  85.8269978  24.5710014
  87.4649992  85.3469978  24.2630014  86.7700751  85.3726777  24.7855858
  86.8279992  83.7489978  21.9610014  87.5289992  83.7719978  22.6130014
  87.1299992  83.1209978  21.3050014  86.9648202  83.6672212  21.9615609
  94.1429992  84.6699978  33.2160014  93.4909992  85.3639978  33.3050014
  94.6089992  84.8799978  32.4060014  94.1165937  84.7935019  33.1187533
  90.1799992  85.5009978  25.8740014  89.4479992  85.7299978  26.4480014
  90.6269992  84.7879978  26.3290014  90.1403963  85.4358729  26.0139945
  90.0769992  83.6759978  34.9420014  90.1569992  84.4389978  35.5140014
  89.4759992  83.9549978  34.2520014  90.0066547  83.8182457  34.9270047
  81.8249992  86.1319978  27.7570014  81.4949992  85.7609978  26.9390014
  82.4139992  85.4609978  28.1040014  81.8593970  85.9906063  27.6919404
  88.5009992  90.4039978  32.1240014  88.2609992  91.0659978  32.7720014
  88.3029992  89.5689978  32.5490014  88.4413826  90.3818115  32.2701566
  89.0509992  84.6639978  23.5600014  89.6299992  84.8139978  24.3060014
  89.4649992  85.1339978  22.8360014  89.1863358  84.7480954  23.5643953
  86.7769992  91.3999978  26.9950014  87.2509992  91.6959978  27.7720014
  86.2139992  92.1389978  26.7620014  86.7657890  91.5403036  27.0698101
  92.7499992  76.4139978  23.3730014  91.8499992  76.5529978  23.6680014
  93.0019992  77.2449978  22.9710014  92.6608683  76.5454055  23.3590232
  80.8159992  85.2009978  25.3460014  80.5239992  85.9689978  24.8550014
  80.1409992  84.5419978  25.1830014  80.6848497  85.2169745  25.2568260
  93.9389992  90.7799978  21.7490014  94.0119992  91.7189978  21.9190014
  94.8439992  90.4749978  21.6930014  94.0714170  90.8673282  21.7647063
  94.8569992  91.0109978  36.7280014  94.8069992  90.0549978  36.6900014
  94.0299992  91.2779978  37.1290014  94.7383831  90.9164680  36.7770121
  85.8349992  90.5849978  35.6040014  85.9229992  91.4109978  36.0790014
  84.9719992  90.2549978  35.8530014  85.7303357  90.6535468  35.7027653
  86.2499992  94.3569978  25.4100014  86.1739992  94.2359978  24.4630014
  86.2819992  95.3059978  25.5280014  86.2439380  94.4687677  25.2965181
  79.9029992  93.1459978  27.1910014  80.0549992  92.7979978  28.0690014
  79.0519992  92.7889978  26.9350014  79.8088344  93.0500879  27.2766868
  89.3509992  93.5109978  22.4120014  89.7259992  92.7669978  21.9410014
  89.3559992  93.2409978  23.3300014  89.4030098  93.3726392  22.4716629
  89.0199992  93.4369978  25.1610014  88.0849992  93.5369978  25.3400014
  89.2999992  92.7269978  25.7400014  88.9299471  93.3547933  25.2636695
  92.0089992  82.5039978  37.2080014  91.6009992  82.9839978  36.4870014
  92.0489992  81.5979978  36.9000014  91.9586221  82.4472449  37.0678267
  89.7659992  80.8349978  35.4280014  89.2519992  80.7099978  36.2260014
  89.6099992  81.7479978  35.1840014  89.6746967  80.9412123  35.5040937
  90.5279992  85.6959978  21.1890014  90.5699992  85.4739978  20.2590014
  91.3769992  86.0949978  21.3790014  90.6485253  85.7195498  21.0873822
  86.1009992  79.5719978  21.8600014  85.8469992  79.5909978  22.7820014
  85.8439992  78.7009978  21.5580014  86.0314508  79.4568280  21.9454803
  87.3999992  82.9599978  26.0240014  86.9909992  83.7749978  25.7320014
  88.1199992  82.8199978  25.4100014  87.4414439  83.0525372  25.9010115
  86.5019992  83.1359978  37.5120014  85.9389992  82.4309978  37.8330014
  87.3279992  83.0149978  37.9800014  86.5366674  83.0232165  37.6191751
  82.9829992  80.0179978  20.9610014  82.5519992  79.5729978  21.6900014
  82.2649992  80.3889978  20.4480014  82.8269176  80.0072051  20.9914930
  77.4999992  80.5059978  23.4370014  77.9739992  81.0969978  22.8520014
  76.7819992  81.0359978  23.7840014  77.4678640  80.6585511  23.4037969
  87.6689992  84.0439978  33.5090014  87.9919992  83.4129978  32.8660014
  87.2279992  83.5099978  34.1700014  87.6536379  83.8853468  33.5102582
  81.6009992  82.7949978  22.3430014  81.0589992  82.4159978  21.6520014
  82.4349992  82.9899978  21.9150014  81.6394390  82.7694079  22.1904392
  92.1389992  94.8779978  37.8340014  92.3379992  95.3019978  37.0000014
  92.7939992  95.2219978  38.4410014  92.2548522  94.9826301  37.8017852
  84.9369992  87.3609978  24.2790014  84.1919992  86.8529978  23.9570014
  84.8019992  87.4099978  25.2250014  84.8168963  87.2981731  24.3628826
  92.0869992  86.4939978  33.0660014  92.7279992  86.9499978  32.5220014
  91.2559992  86.6069978  32.6030014  92.0625287  86.5716921  32.9289887
  88.8339992  80.1749978  22.4780014  87.8959992  80.2859978  22.3270014
  89.1319992  81.0309978  22.7850014  88.7456318  80.3060158  22.4988145
  89.5529992  82.0419978  24.1390014  90.4449992  81.9039978  24.4580014
  89.6089992  82.8329978  23.6020014  89.6827325  82.1299918  24.1101217
  87.0619992  88.8189978  23.3040014  86.7669992  89.6459978  23.6860014
  86.3589992  88.1999978  23.5010014  86.9266379  88.8484171  23.3828654
  88.7059992  90.0069978  35.4660014  87.8059992  90.1899978  35.1990014
  88.7399992  90.2659978  36.3870014  88.5873748  90.0670554  35.5539164
  94.4379992  82.2509978  23.8340014  93.8829992  81.8549978  23.1610014
  94.5379992  83.1619978  23.5560014  94.3756816  82.3199505  23.7045033
  94.4009992  88.0519978  36.6710014  93.5499992  88.2899978  36.3030014
  94.9909992  88.0349978  35.9180014  94.3643812  88.0822524  36.5188453
  92.7329992  91.0369978  24.2990014  92.3599992  90.2119978  24.6080014
  93.0099992  90.8539978  23.4010014  92.7193463  90.8992569  24.2199525
  89.8929992  85.8449978  31.3200014  88.9649992  85.6139978  31.2930014
  90.3439992  85.0679978  30.9900014  89.8268165  85.7082774  31.2716790
  82.4359992  90.1739978  27.4530014  82.9639992  90.9469978  27.2530014
  81.5559992  90.3979978  27.1510014  82.3893435  90.3102700  27.3847310
  78.1909992  85.0359978  22.0400014  78.8069992  85.6629978  22.4200014
  77.3289992  85.3519978  22.3120014  78.1587678  85.1644412  22.1287209
  83.8639992  87.8369978  27.0290014  83.6229992  88.7619978  27.0710014
  83.1229992  87.3779978  27.4260014  83.7309206  87.9015915  27.0883769
  82.5469992  92.8579978  26.5750014  81.5969992  92.9639978  26.6260014
  82.8989992  93.6789978  26.9190014  82.4645472  92.9834923  26.6284852
  87.9219992  88.0849978  33.0450014  87.4969992  87.8569978  33.8710014
  88.5029992  87.3459978  32.8630014  87.9423395  87.9539545  33.1334414
  90.1249992  89.0139978  22.1190014  90.4789992  88.6339978  22.9230014
  89.1769992  88.9199978  22.2060014  90.0452298  88.9492452  22.2408687
  90.5809992  92.6369978  35.5140014  89.9789992  92.0809978  35.0190014
  90.8619992  93.3039978  34.8880014  90.5365757  92.6510744  35.3615675
  94.6289992  93.4929978  22.3200014  95.3729992  94.0789978  22.1800014
  93.9349992  94.0619978  22.6530014  94.6369809  93.6500818  22.3458590
  90.9909992  87.6859978  24.3460014  90.7139992  86.9579978  24.9020014
  91.9189992  87.8049978  24.5510014  91.0784499  87.6024213  24.4498044
  84.2159992  90.1259978  20.5660014  84.4549992  89.3769978  20.0190014
  83.9469992  89.7379978  21.3990014  84.2123233  89.9711853  20.6037809
  83.1529992  89.6959978  23.0220014  83.2999992  89.1759978  23.8120014
  83.1499992  90.6029978  23.3290014  83.1727102  89.7473953  23.1715925
  79.6059992  86.9479978  23.5330014  78.9199992  87.3009978  24.1000014
  80.1289992  87.7109978  23.2860014  79.5828402  87.0993901  23.5771801
  88.2219992  79.2629978  24.9090014  88.4419992  79.7339978  24.1050014
  88.7809992  79.6569978  25.5790014  88.3276732  79.3807287  24.8895033
  85.8909992  91.3929978  23.7720014  85.0739992  91.8899978  23.8240014
  86.4199992  91.8689978  23.1310014  85.8508125  91.5251989  23.6925306
  85.4219992  80.9909978  25.7440014  86.2339992  81.4949978  25.7900014
  85.1779992  80.8459978  26.6580014  85.5001467  81.0403749  25.8738575
  83.2289992  92.4369978  23.7530014  83.3899992  93.2369978  23.2530014
  83.0319992  92.7439978  24.6380014  83.2243906  92.5878678  23.8042333
  81.9639992  79.1349978  23.3690014  81.8799992  80.0229978  23.7160014
  82.8539992  78.8699978  23.6010014  82.0728163  79.2207179  23.4478596
  92.1619992  79.8839978  35.7630014  91.2459992  80.1459978  35.6760014
  92.4979992  79.8809978  34.8670014  92.0818499  79.9195163  35.6298766
  90.7649992  83.6339978  29.8590014  89.9669992  83.2189978  29.5310014
  91.2099992  82.9439978  30.3500014  90.7159684  83.4838628  29.8805227
  80.2219992  89.5619978  22.4290014  80.8139992  90.2619978  22.7060014
  80.6809992  89.1289978  21.7100014  80.3651652  89.5992675  22.3696533
  78.5379992  82.2269978  21.5450014  78.4929992  83.1659978  21.7240014
  77.6499992  81.9909978  21.2760014  78.4118166  82.3236687  21.5331524
  91.8509992  92.8899978  31.4810014  91.6949992  93.5689978  30.8240014
  92.7839992  92.9619978  31.6840014  91.9557387  92.9926390  31.4185342
  86.2539992  91.9889978  20.7050014  85.6099992  91.3579978  21.0260014
  87.0159992  91.4579978  20.4730014  86.2688058  91.8307902  20.7176038
  88.7389992  90.8609978  38.0580014  88.3879992  90.0039978  38.3020014
  89.4649992  91.0029978  38.6650014  88.7891895  90.7631351  38.1733770
  90.8589992  91.8059978  20.9380014  91.1419992  91.0109978  21.3910014
  91.5979992  92.0389978  20.3770014  90.9977096  91.7287049  20.9241104
  81.8129992  87.7149978  20.7960014  81.8779992  86.9209978  21.3260014
  82.4659992  87.5969978  20.1060014  81.9101605  87.5903430  20.7752997
  87.1659992  88.7619978  20.5320014  86.8969992  88.9429978  21.4320014
  86.9589992  87.8369978  20.4000014  87.1011191  88.6617119  20.6375524
  89.8619992  87.2569978  35.4790014  90.6069992  87.8459978  35.3600014
  89.1049992  87.8389978  35.5430014  89.8615470  87.4162128  35.4713799
  82.9629992  85.6879978  23.1020014  82.5029992  85.2039978  23.7870014
  83.2179992  85.0189978  22.4660014  82.9344856  85.5313669  23.1098397
  84.0339992  83.9309978  21.3640014  83.8529992  83.7759978  20.4370014
  84.9839992  84.0389978  21.4090014  84.1376566  83.9243669  21.2430929
  87.2709992  86.0519978  38.7350014  88.2249992  86.1359978  38.7080014
  87.1109992  85.3399978  39.3550014  87.3797182  85.9672842  38.8150733
  93.4239992  86.2849978  20.8100014  93.1499992  85.8609978  19.9970014
  93.4629992  87.2169978  20.5930014  93.3917716  86.3528827  20.6694286
  89.0009992  82.5599978  39.3010014  89.1929992  81.6289978  39.1890014
  89.8589992  82.9849978  39.2900014  89.1432182  82.4900070  39.2841862
  90.3179992  85.3489978  37.3780014  90.0359992  86.0579978  36.8000014
  91.2599992  85.2759978  37.2270014  90.4067921  85.4362193  37.2784225
  87.7889992  80.2109978  37.1030014  86.8409992  80.2429978  37.2350014
  88.1009992  79.5849978  37.7570014  87.7015293  80.1307923  37.2094148
  89.4229992  78.8449978  39.1080014  89.3259992  77.8929978  39.1030014
  89.1009992  79.1129978  39.9690014  89.3662468  78.7510884  39.2236210
  83.9309992  94.6209978  22.3650014  84.8639992  94.7789978  22.5090014
  83.6669992  95.2969978  21.7400014  84.0229911  94.7339373  22.3002722
  77.4989992  89.2579978  21.8480014  78.4129992  89.3369978  22.1210014
  77.5069992  88.5709978  21.1820014  77.6250655  89.1759205  21.7952917
  76.1479992  94.6509978  26.9250014  75.5009992  94.1889978  26.3930014
  76.5029992  93.9789978  27.5080014  76.1073741  94.4969774  26.9309175
  94.5669992  93.5409978  31.7110014  94.5449992  93.7259978  32.6500014
  95.2569992  94.1089978  31.3700014  94.6573439  93.6431887  31.7934791
  94.1299992  93.1079978  34.6320014  93.6429992  92.3729978  34.2610014
  94.6789992  92.7139978  35.3100014  94.1375247  92.9541057  34.6728461
  92.5809992  88.8979978  39.2710014  91.7149992  88.7929978  39.6650014
  92.9569992  89.6559978  39.7170014  92.5133401  88.9861708  39.3852620
  93.8819992  87.1539978  24.7850014  94.7319992  87.5749978  24.9120014
  93.8869992  86.4139978  25.3920014  93.9991143  87.1116094  24.8844750
  94.2759992  85.2079978  26.6080014  93.5499992  84.7279978  27.0060014
  94.8579992  85.4129978  27.3410014  94.2552730  85.1700184  26.7614149
  94.0349992  87.9929978  31.5560014  94.8689992  87.6149978  31.2750014
  94.1469992  88.9359978  31.4370014  94.1641917  88.0687943  31.5014861
  92.5219992  90.8709978  33.8630014  91.8739992  91.1959978  34.4880014
  92.0039992  90.4299978  33.1890014  92.3634196  90.8558651  33.8574152
  94.5449992  85.1089978  22.9990014  94.0229992  85.4649978  22.2810014
  94.5119992  85.7839978  23.6780014  94.4690129  85.2489598  22.9923355
  92.8939992  82.3479978  21.5500014  92.9899992  83.0149978  20.8700014
  92.7539992  81.5329978  21.0690014  92.8882040  82.3290671  21.3918378
  92.0629992  83.7289978  27.1710014  91.9129992  82.7839978  27.1510014
  91.7089992  84.0099978  28.0150014  91.9946351  83.6376644  27.2823220
  92.9189992  85.6989978  36.8100014  93.5019992  84.9639978  37.0020014
  93.4829992  86.4709978  36.8570014  93.0749781  85.7028145  36.8426164
  94.4159992  83.6019978  37.4950014  93.5529992  83.2229978  37.3290014
  95.0199992  82.8629978  37.4200014  94.3796085  83.4503223  37.4621695
  92.1409992  79.7559978  20.6680014  92.7519992  79.3849978  21.3050014
  91.3039992  79.3349978  20.8640014  92.1114947  79.6482756  20.7817252
  91.7739992  81.3109978  25.6340014  92.0529992  80.4039978  25.7580014
  92.5329992  81.7449978  25.2450014  91.9148619  81.2454502  25.5983795
  92.3849992  81.8929978  31.0700014  93.3179992  82.1049978  31.0350014
  92.1499992  81.9939978  31.9920014  92.4809517  81.9356833  31.1899130
  92.4149992  82.6299978  33.8460014  91.5719992  82.8979978  34.2120014
  92.8569992  83.4519978  33.6350014  92.3594138  82.7778273  33.8675518
  94.6979992  76.6099978  39.1990014  95.0469992  75.9559978  38.5940014
  94.8449992  77.4469978  38.7590014  94.7656824  76.6336024  39.0566304
  92.3869992  78.5739978  25.6820014  92.5689992  78.1249978  26.5070014
  91.7869992  77.9899978  25.2180014  92.3308187  78.4335552  25.7322739
  94.2169992  78.7189978  37.5480014  93.2999992  78.9899978  37.5130014
  94.3399992  78.1839978  36.7640014  94.1079672  78.6837885  37.4371862
  94.2539992  78.6419978  22.2100014  94.6659992  77.9209978  21.7350014
  94.9349992  79.3109978  22.2680014  94.4025536  78.6337766  22.1528024
  76.5349992  78.6469978  25.3370014  75.6099992  78.8549978  25.2080014
  76.9889992  79.1309978  24.6470014  76.4696298  78.7409299  25.2260451
  91.3049992  93.6309978  27.2830014  91.9579992  93.2829978  26.6750014
  91.8159992  94.1189978  27.9290014  91.4632777  93.6493815  27.2872047
  85.9559992  92.9329978  37.0440014  86.1399992  92.5999978  37.9220014
  86.8019992  93.2429978  36.7220014  86.0956484  92.9292979  37.1207617
  88.3009992  94.2189978  36.2880014  88.9779992  93.5859978  36.0480014
  88.6219992  94.6199978  37.0950014  88.4371323  94.1865691  36.3643158
  93.2179992  76.8089978  35.3670014  92.4049992  77.1339978  34.9800014
  93.4509992  76.0479978  34.8340014  93.1381347  76.7506880  35.2419841
  86.2239992  94.2789978  32.3370014  85.7669992  94.8079978  31.6830014
  86.3869992  94.8819978  33.0620014  86.1834960  94.4329280  32.3455274
  88.5519992  93.1569978  33.2820014  87.6469992  93.3219978  33.0160014
  88.9799992  94.0099978  33.2160014  88.4861537  93.2949134  33.2367095
  91.1559992  94.7269978  33.5770014  90.9739992  95.6429978  33.3660014
  91.3329992  94.3159978  32.7300014  91.1550030  94.7968273  33.4337166
  91.7909992  76.3649978  29.8030014  92.3939992  76.9129978  29.3010014
  90.9209992  76.6839978  29.5620014  91.7559157  76.4830373  29.7017910
  93.5179992  77.5039978  28.1360014  94.1289992  76.9899978  27.6090014
  93.8999992  78.3809978  28.1590014  93.6533305  77.5522050  28.0669418
  77.8109992  76.6899978  23.3160014  78.2499992  77.3009978  22.7240014
  77.1769992  77.2279978  23.7900014  77.7853859  76.8464064  23.2990305
  89.1109992  76.8479978  28.9750014  89.1869992  76.9439978  28.0250014
  88.8359992  75.9409978  29.1030014  89.0841871  76.7384146  28.8623944
  90.4639992  76.8739978  24.6670014  89.7609992  77.4889978  24.4570014
  90.0189992  76.0369978  24.7980014  90.3076550  76.8449668  24.6559837
  77.7119992  92.6379978  24.2130014  77.0269992  92.5999978  23.5460014
  77.7159992  93.5509978  24.5010014  77.6187621  92.7561924  24.1606126
  79.6719992  78.6059978  21.7580014  80.1629992  77.9759978  21.2310014
  80.2949992  78.9019978  22.4210014  79.8235304  78.5597376  21.7754940
  84.6979992  78.8989978  24.2150014  84.8759992  78.2519978  24.8980014
  84.6439992  79.7329978  24.6820014  84.7150678  78.9231604  24.3716301
  86.5759992  93.8469978  22.6110014  87.4419992  94.2139978  22.4330014
  86.3299992  93.4079978  21.7970014  86.6612097  93.8378525  22.4766019
  93.2849992  93.4099978  25.2900014  93.0909992  92.6619978  24.7250014
  93.2459992  94.1679978  24.7070014  93.2531645  93.4100786  25.1338148
  79.5299992  93.5579978  21.2380014  79.2619992  93.8439978  22.1120014
  80.3009992  93.0119978  21.3910014  79.5975926  93.5232779  21.3781205
  89.3269992  76.0889978  38.7480014  89.4029992  75.6629978  39.6010014
  90.2199992  76.1019978  38.4050014  89.4582303  76.0323493  38.8185497
  92.5029992  92.1619978  37.4400014  91.7209992  91.9749978  36.9200014
  92.4309992  93.0909978  37.6570014  92.3861924  92.2620637  37.3981602
 106.9089992  86.0479978  27.4710014 106.9979992  86.9919978  27.3390014
 106.2709992  85.7729978  26.8130014 106.8349061  86.1399812  27.3639641
 105.8419992  85.3029978  30.8900014 105.8039992  84.6569978  31.5950014
 105.5199992  84.8359978  30.1190014 105.7932679  85.1514276  30.8822921
  98.2099992  84.9169978  32.4830014  98.2519992  84.2919978  33.2060014
  98.9129992  85.5409978  32.6650014  98.3107345  84.9157873  32.6065274
 109.5479992  88.2419978  29.1910014 109.1069992  87.5219978  29.6420014
 109.5349992  88.9629978  29.8210014 109.4859215  88.2409291  29.3378105
  99.1339992  89.3669978  31.0180014  98.7639992  88.5649978  30.6480014
 100.0749992  89.1989978  31.0640014  99.2105984  89.2344638  30.9735603
  95.7439992  83.0269978  26.4100014  95.2959992  83.8729978  26.3920014
  95.1829992  82.4479978  25.8950014  95.6068546  83.0643993  26.3378891
  96.4539992  85.1889978  28.5360014  96.6679992  84.4189978  29.0640014
  97.1919992  85.2789978  27.9330014  96.5830200  85.0958586  28.5267035
 106.6599992  93.3459978  29.4030014 107.2789992  92.6699978  29.1300014
 106.4509992  93.1279978  30.3120014 106.7166056  93.2238869  29.4883967
 104.2309992  87.7349978  31.2960014 104.5349992  87.0489978  30.7010014
 104.9529992  87.8539978  31.9140014 104.3701240  87.6572314  31.2980959
 112.8939992  79.3369978  32.1560014 112.9439992  79.9469978  32.8920014
 113.3199992  79.7979978  31.4330014 112.9584108  79.4827709  32.1590112
 107.3719992  82.1289978  31.6230014 107.5149992  81.1829978  31.6430014
 107.2659992  82.3359978  30.6950014 107.3772403  82.0274797  31.5002239
 100.5269992  80.2309978  28.8960014 100.5699992  81.0909978  28.4770014
 100.0689992  79.6789978  28.2620014 100.4709871  80.2739245  28.7530761
 108.2489992  80.3619978  27.2970014 108.8959992  80.0329978  27.9210014
 108.7589992  80.8789978  26.6740014 108.4064351  80.3869067  27.2981037
  97.1469992  82.6279978  29.6580014  97.8009992  82.0779978  30.0900014
  97.1709992  82.3539978  28.7410014  97.2397199  82.5157167  29.5931668
 102.3039992  84.1779978  28.8730014 102.9199992  83.6509978  29.3820014
 101.7169992  83.5379978  28.4690014 102.3090154  84.0193954  28.8880945
 113.2859992  80.8149978  34.3920014 112.5969992  81.4729978  34.2970014
 113.3009992  80.6169978  35.3290014 113.1937756  80.8782603  34.5055812
  99.3369992  79.1489978  32.9700014  99.1179992  79.6789978  32.2030014
  98.6689992  79.3749978  33.6170014  99.2166975  79.2520967  32.9525140
 106.7059992  88.6489978  26.5140014 106.4109992  88.3259978  25.6620014
 106.3819992  89.5489978  26.5550014 106.6218460  88.7264464  26.4029714
 101.9059992  86.8239978  33.2570014 101.1659992  87.4229978  33.3610014
 102.6199992  87.3779978  32.9420014 101.9013500  86.9807829  33.2286371
 110.0129992  79.6529978  29.2770014 109.7979992  78.8869978  29.8100014
 110.6689992  80.1249978  29.7900014 110.0722673  79.6120728  29.4191990
  98.9309992  81.0409978  30.9220014  99.5449992  81.6739978  31.2950014
  99.4429992  80.5689978  30.2660014  99.0841962  81.0637249  30.8842935
 100.3139992  88.7889978  34.0440014 100.3079992  89.6679978  33.6660014
  99.4599992  88.7049978  34.4690014 100.1977925  88.8979535  34.0496887
  96.4349992  88.4599978  24.8260014  96.1629992  88.6889978  23.9380014
  96.4799992  89.2969978  25.2870014  96.4038097  88.6046163  24.7666683
 110.0599992  90.0809978  31.5390014 109.1179992  90.1399978  31.7010014
 110.3359992  90.9869978  31.4020014 109.9685865  90.2115288  31.5426192
 110.3599992  78.3679978  32.9560014 109.6239992  78.9779978  32.9190014
 111.0439992  78.7829978  32.4300014 110.3515367  78.5077551  32.8798174
 103.3639992  76.4539978  30.4220014 103.2459992  75.5059978  30.3680014
 102.5089992  76.7869978  30.6950014 103.2322805  76.3692202  30.4515079
 108.3119992  91.8619978  28.1640014 108.7369992  91.1549978  27.6790014
 108.6289992  92.6639978  27.7470014 108.4130266  91.8735190  28.0412479
 109.4719992  89.7629978  26.6730014 109.2139992  89.0729978  26.0610014
 109.5429992  89.3199978  27.5180014 109.4463050  89.6086814  26.7035621
 111.1579992  88.3299978  35.1500014 111.2969992  87.7379978  34.4110014
 111.3249992  89.2029978  34.7940014 111.1996193  88.3668896  35.0006211
 105.6299992  85.2919978  24.9230014 104.9189992  85.8269978  24.5710014
 106.3209992  85.3469978  24.2630014 105.6260751  85.3726777  24.7855858
 105.6839992  83.7489978  21.9610014 106.3849992  83.7719978  22.6130014
 105.9859992  83.1209978  21.3050014 105.8208202  83.6672212  21.9615609
 112.9989992  84.6699978  33.2160014 112.3469992  85.3639978  33.3050014
 113.4649992  84.8799978  32.4060014 112.9725937  84.7935019  33.1187533
 109.0359992  85.5009978  25.8740014 108.3039992  85.7299978  26.4480014
 109.4829992  84.7879978  26.3290014 108.9963963  85.4358729  26.0139945
 108.9329992  83.6759978  34.9420014 109.0129992  84.4389978  35.5140014
 108.3319992  83.9549978  34.2520014 108.8626547  83.8182457  34.9270047
 100.6809992  86.1319978  27.7570014 100.3509992  85.7609978  26.9390014
 101.2699992  85.4609978  28.1040014 100.7153970  85.9906063  27.6919404
 102.0479992  89.5599978  30.4380014 101.9529992  88.9809978  29.6820014
 102.7769992  89.1889978  30.9340014 102.1336011  89.4305561  30.4016028
 101.0479992  84.8999978  31.3900014 101.6129992  85.0219978  30.6280014
 101.3669992  85.5379978  32.0290014 101.1684166  85.0028791  31.3720348
 107.3569992  90.4039978  32.1240014 107.1169992  91.0659978  32.7720014
 107.1589992  89.5689978  32.5490014 107.2973826  90.3818115  32.2701566
 101.9279992  89.2999978  36.1080014 101.6169992  90.0819978  36.5630014
 101.2779992  89.1469978  35.4220014 101.7975538  89.3864087  36.0775898
 107.9069992  84.6639978  23.5600014 108.4859992  84.8139978  24.3060014
 108.3209992  85.1339978  22.8360014 108.0423358  84.7480954  23.5643953
  98.8479992  85.4979978  35.3360014  98.9179992  86.1489978  36.0350014
  97.9569992  85.6009978  35.0010014  98.7371690  85.6009249  35.3863043
 105.6329992  91.3999978  26.9950014 106.1069992  91.6959978  27.7720014
 105.0699992  92.1389978  26.7620014 105.6217890  91.5403036  27.0698101
 100.1669992  91.3709978  36.8710014 100.1749992  91.2349978  35.9240014
  99.2509992  91.2539978  37.1230014 100.0442528  91.3365463  36.7753243
 111.6059992  76.4139978  23.3730014 110.7059992  76.5529978  23.6680014
 111.8579992  77.2449978  22.9710014 111.5168683  76.5454055  23.3590232
  99.6719992  85.2009978  25.3460014  99.3799992  85.9689978  24.8550014
  98.9969992  84.5419978  25.1830014  99.5408497  85.2169745  25.2568260
 112.7949992  90.7799978  21.7490014 112.8679992  91.7189978  21.9190014
 113.6999992  90.4749978  21.6930014 112.9274170  90.8673282  21.7647063
  95.7649992  87.5639978  34.1610014  95.2629992  87.5359978  33.3460014
  95.7699992  86.6589978  34.4710014  95.6969832  87.4377486  34.0914121
  95.5149992  90.3449978  31.0450014  96.4609992  90.1999978  31.0260014
  95.4019992  91.1289978  31.5820014  95.6293578  90.4311697  31.1150317
 113.7129992  91.0109978  36.7280014 113.6629992  90.0549978  36.6900014
 112.8859992  91.2779978  37.1290014 113.5943831  90.9164680  36.7770121
 104.6909992  90.5849978  35.6040014 104.7789992  91.4109978  36.0790014
 103.8279992  90.2549978  35.8530014 104.5863357  90.6535468  35.7027653
 105.1059992  94.3569978  25.4100014 105.0299992  94.2359978  24.4630014
 105.1379992  95.3059978  25.5280014 105.0999380  94.4687677  25.2965181
  98.7589992  93.1459978  27.1910014  98.9109992  92.7979978  28.0690014
  97.9079992  92.7889978  26.9350014  98.6648344  93.0500879  27.2766868
 108.2069992  93.5109978  22.4120014 108.5819992  92.7669978  21.9410014
 108.2119992  93.2409978  23.3300014 108.2590098  93.3726392  22.4716629
 107.8759992  93.4369978  25.1610014 106.9409992  93.5369978  25.3400014
 108.1559992  92.7269978  25.7400014 107.7859471  93.3547933  25.2636695
 110.8649992  82.5039978  37.2080014 110.4569992  82.9839978  36.4870014
 110.9049992  81.5979978  36.9000014 110.8146221  82.4472449  37.0678267
  98.0139992  88.8879978  35.2040014  98.2299992  88.5259978  36.0640014
  97.1579992  88.5129978  34.9950014  97.9278810  88.7878837  35.2932680
 100.6319992  77.3579978  31.2000014  99.7709992  77.2709978  30.7920014
 100.6099992  78.2139978  31.6280014 100.5110491  77.4618003  31.2019582
 105.2949992  77.0799978  34.5750014 105.7149992  76.6649978  35.3280014
 104.3619992  76.9009978  34.6920014 105.2263736  76.9989910  34.6938968
 108.6219992  80.8349978  35.4280014 108.1079992  80.7099978  36.2260014
 108.4659992  81.7479978  35.1840014 108.5306967  80.9412123  35.5040937
 109.3839992  85.6959978  21.1890014 109.4259992  85.4739978  20.2590014
 110.2329992  86.0949978  21.3790014 109.5045253  85.7195498  21.0873822
 104.9569992  79.5719978  21.8600014 104.7029992  79.5909978  22.7820014
 104.6999992  78.7009978  21.5580014 104.8874508  79.4568280  21.9454803
 100.7229992  82.3229978  32.2950014 100.0819992  82.2829978  33.0040014
 100.7609992  83.2499978  32.0570014 100.6403010  82.4427668  32.3599946
 100.7199992  82.5439978  27.2070014  99.8279992  82.2039978  27.1480014
 101.1709992  82.1669978  26.4510014 100.6587642  82.4464910  27.0967726
 106.2559992  82.9599978  26.0240014 105.8469992  83.7749978  25.7320014
 106.9759992  82.8199978  25.4100014 106.2974439  83.0525372  25.9010115
 105.3579992  83.1359978  37.5120014 104.7949992  82.4309978  37.8330014
 106.1839992  83.0149978  37.9800014 105.3926674  83.0232165  37.6191751
 107.2609992  82.4059978  28.8380014 107.0649992  83.0119978  28.1230014
 107.4419992  81.5729978  28.4040014 107.2586584  82.3762513  28.6814212
  98.4729992  82.6439978  34.1620014  98.4349992  83.0439978  35.0310014
  97.9829992  81.8269978  34.2520014  98.4015330  82.5882674  34.2931289
 101.8389992  80.0179978  20.9610014 101.4079992  79.5729978  21.6900014
 101.1209992  80.3889978  20.4480014 101.6829176  80.0072051  20.9914930
  95.0819992  79.7599978  28.0130014  95.7119992  79.7309978  28.7320014
  95.5309992  79.3349978  27.2820014  95.2290835  79.6985660  28.0127659
  96.3559992  80.5059978  23.4370014  96.8299992  81.0969978  22.8520014
  95.6379992  81.0359978  23.7840014  96.3238640  80.6585511  23.4037969
 106.5249992  84.0439978  33.5090014 106.8479992  83.4129978  32.8660014
 106.0839992  83.5099978  34.1700014 106.5096379  83.8853468  33.5102582
 103.3019992  79.9719978  28.2930014 102.3909992  80.0289978  28.5820014
 103.8069992  79.9119978  29.1040014 103.2456873  79.9716826  28.4421207
  98.1299992  81.6009978  27.1200014  97.2409992  81.6999978  26.7800014
  98.4269992  80.7589978  26.7740014  98.0484177  81.5007687  27.0266940
 101.7829992  81.6009978  24.7770014 102.7149992  81.7299978  24.9550014
 101.5679992  82.2699978  24.1270014 101.8814472  81.7090806  24.7134891
 107.7069992  79.2069978  31.5580014 107.0299992  79.3379978  32.2210014
 107.2219992  79.0519978  30.7470014 107.5487405  79.2039947  31.5392170
 100.4569992  82.7949978  22.3430014  99.9149992  82.4159978  21.6520014
 101.2909992  82.9899978  21.9150014 100.4954390  82.7694079  22.1904392
 110.9949992  94.8779978  37.8340014 111.1939992  95.3019978  37.0000014
 111.6499992  95.2219978  38.4410014 111.1108522  94.9826301  37.8017852
  98.5929992  87.3519978  37.4420014  99.3249992  87.6069978  38.0040014
  97.8119992  87.5569978  37.9580014  98.5876526  87.4145450  37.5885176
 104.6219992  82.7589978  30.1800014 105.1859992  82.2129978  29.6330014
 104.4739992  82.2379978  30.9690014 104.6793037  82.6136787  30.2117229
  99.6239992  78.8959978  26.5990014  99.3069992  77.9929978  26.5630014
 100.4049992  78.8979978  26.0460014  99.6862431  78.7727797  26.5193102
 103.2479992  81.1479978  32.5940014 102.4129992  81.6019978  32.7050014
 103.7719992  81.4239978  33.3460014 103.2046072  81.2473948  32.7108136
 103.7929992  87.3609978  24.2790014 103.0479992  86.8529978  23.9570014
 103.6579992  87.4099978  25.2250014 103.6728963  87.2981731  24.3628826
 110.9429992  86.4939978  33.0660014 111.5839992  86.9499978  32.5220014
 110.1119992  86.6069978  32.6030014 110.9185287  86.5716921  32.9289887
 107.6899992  80.1749978  22.4780014 106.7519992  80.2859978  22.3270014
 107.9879992  81.0309978  22.7850014 107.6016318  80.3060158  22.4988145
 105.3119992  87.5449978  35.5160014 104.9659992  87.1629978  36.3230014
 105.1119992  88.4779978  35.5870014 105.2375987  87.6189002  35.6360461
 108.4089992  82.0419978  24.1390014 109.3009992  81.9039978  24.4580014
 108.4649992  82.8329978  23.6020014 108.5387325  82.1299918  24.1101217
  98.9169992  86.6559978  30.0490014  99.6619992  86.6529978  29.4470014
  98.9949992  85.8319978  30.5300014  99.0293365  86.5442384  30.0317430
 105.9179992  88.8189978  23.3040014 105.6229992  89.6459978  23.6860014
 105.2149992  88.1999978  23.5010014 105.7826379  88.8484171  23.3828654
  95.9249992  85.1159978  35.3640014  96.1479992  84.6979978  36.1950014
  95.3229992  84.5039978  34.9410014  95.8741513  84.9759606  35.4206740
 102.9419992  84.6329978  37.5770014 102.6459992  84.4679978  36.6810014
 103.8729992  84.4129978  37.5660014 103.0274401  84.5806879  37.4530206
 107.5619992  90.0069978  35.4660014 106.6619992  90.1899978  35.1990014
 107.5959992  90.2659978  36.3870014 107.4433748  90.0670554  35.5539164
 113.2939992  82.2509978  23.8340014 112.7389992  81.8549978  23.1610014
 113.3939992  83.1619978  23.5560014 113.2316816  82.3199505  23.7045033
 113.2569992  88.0519978  36.6710014 112.4059992  88.2899978  36.3030014
 113.8469992  88.0349978  35.9180014 113.2203812  88.0822524  36.5188453
 111.5889992  91.0369978  24.2990014 111.2159992  90.2119978  24.6080014
 111.8659992  90.8539978  23.4010014 111.5753463  90.8992569  24.2199525
 108.7489992  85.8449978  31.3200014 107.8209992  85.6139978  31.2930014
 109.1999992  85.0679978  30.9900014 108.6828165  85.7082774  31.2716790
 101.2919992  90.1739978  27.4530014 101.8199992  90.9469978  27.2530014
 100.4119992  90.3979978  27.1510014 101.2453435  90.3102700  27.3847310
  97.0469992  85.0359978  22.0400014  97.6629992  85.6629978  22.4200014
  96.1849992  85.3519978  22.3120014  97.0147678  85.1644412  22.1287209
 102.7199992  87.8369978  27.0290014 102.4789992  88.7619978  27.0710014
 101.9789992  87.3779978  27.4260014 102.5869206  87.9015915  27.0883769
 103.2339992  91.9859978  33.3440014 103.5969992  92.8399978  33.1110014
 103.7659992  91.6939978  34.0850014 103.3555141  92.0633895  33.4122097
 101.4029992  92.8579978  26.5750014 100.4529992  92.9639978  26.6260014
 101.7549992  93.6789978  26.9190014 101.3205472  92.9834923  26.6284852
 106.7779992  88.0849978  33.0450014 106.3529992  87.8569978  33.8710014
 107.3589992  87.3459978  32.8630014 106.7983395  87.9539545  33.1334414
 108.9809992  89.0139978  22.1190014 109.3349992  88.6339978  22.9230014
 108.0329992  88.9199978  22.2060014 108.9012298  88.9492452  22.2408687
 109.4369992  92.6369978  35.5140014 108.8349992  92.0809978  35.0190014
 109.7179992  93.3039978  34.8880014 109.3925757  92.6510744  35.3615675
 113.4849992  93.4929978  22.3200014 114.2289992  94.0789978  22.1800014
 112.7909992  94.0619978  22.6530014 113.4929809  93.6500818  22.3458590
  97.5589992  79.8699978  34.9220014  96.6669992  80.2079978  34.8540014
  97.4609992  79.0139978  35.3400014  97.4234475  79.8006543  34.9691704
 109.8469992  87.6859978  24.3460014 109.5699992  86.9579978  24.9020014
 110.7749992  87.8049978  24.5510014 109.9344499  87.6024213  24.4498044
  97.2109992  91.6739978  33.3570014  97.4279992  90.7419978  33.3260014
  97.4569992  91.9489978  34.2400014  97.2739809  91.5835686  33.4721690
 103.0719992  90.1259978  20.5660014 103.3109992  89.3769978  20.0190014
 102.8029992  89.7379978  21.3990014 103.0683233  89.9711853  20.6037809
 102.0089992  89.6959978  23.0220014 102.1559992  89.1759978  23.8120014
 102.0059992  90.6029978  23.3290014 102.0287102  89.7473953  23.1715925
  98.4619992  86.9479978  23.5330014  97.7759992  87.3009978  24.1000014
  98.9849992  87.7109978  23.2860014  98.4388402  87.0993901  23.5771801
 106.2939992  79.6109978  33.8120014 106.9929992  79.6849978  34.4620014
 105.9129992  78.7459978  33.9660014 106.3382097  79.5042389  33.9217997
 107.0779992  79.2629978  24.9090014 107.2979992  79.7339978  24.1050014
 107.6369992  79.6569978  25.5790014 107.1836732  79.3807287  24.8895033
 104.7469992  91.3929978  23.7720014 103.9299992  91.8899978  23.8240014
 105.2759992  91.8689978  23.1310014 104.7068125  91.5251989  23.6925306
 104.2779992  80.9909978  25.7440014 105.0899992  81.4949978  25.7900014
 104.0339992  80.8459978  26.6580014 104.3561467  81.0403749  25.8738575
 104.8139992  81.9769978  34.9280014 104.9329992  82.5509978  35.6850014
 105.4689992  81.2889978  35.0430014 104.9188684  81.9625194  35.0471674
 105.1619992  78.0719978  26.6820014 104.8149992  78.6889978  27.3260014
 105.8209992  78.5729978  26.2000014 105.2035090  78.2241575  26.7050681
 102.0849992  92.4369978  23.7530014 102.2459992  93.2369978  23.2530014
 101.8879992  92.7439978  24.6380014 102.0803906  92.5878678  23.8042333
 100.8199992  79.1349978  23.3690014 100.7359992  80.0229978  23.7160014
 101.7099992  78.8699978  23.6010014 100.9288163  79.2207179  23.4478596
 111.0179992  79.8839978  35.7630014 110.1019992  80.1459978  35.6760014
 111.3539992  79.8809978  34.8670014 110.9378499  79.9195163  35.6298766
 109.6209992  83.6339978  29.8590014 108.8229992  83.2189978  29.5310014
 110.0659992  82.9439978  30.3500014 109.5719684  83.4838628  29.8805227
  99.0779992  89.5619978  22.4290014  99.6699992  90.2619978  22.7060014
  99.5369992  89.1289978  21.7100014  99.2211652  89.5992675  22.3696533
  97.3939992  82.2269978  21.5450014  97.3489992  83.1659978  21.7240014
  96.5059992  81.9909978  21.2760014  97.2678166  82.3236687  21.5331524
 110.7069992  92.8899978  31.4810014 110.5509992  93.5689978  30.8240014
 111.6399992  92.9619978  31.6840014 110.8117387  92.9926390  31.4185342
  98.2019992  77.0079978  30.2190014  97.9729992  77.0669978  29.2910014
  97.7599992  76.2169978  30.5250014  98.1108801  76.9090540  30.1334729
  97.1329992  90.9489978  26.3790014  96.2999992  91.4209978  26.4060014
  97.6779992  91.4589978  25.7800014  97.0927857  91.0824791  26.3017142
  96.4209992  93.5609978  37.7090014  96.9609992  93.3449978  38.4690014
  95.9399992  92.7559978  37.5190014  96.4299219  93.4225156  37.7874282
 101.0179992  92.4809978  39.3290014 101.7859992  92.0219978  39.6700014
 100.9969992  92.2549978  38.3990014 101.1202135  92.3876668  39.2499491
 105.1099992  91.9889978  20.7050014 104.4659992  91.3579978  21.0260014
 105.8719992  91.4579978  20.4730014 105.1248058  91.8307902  20.7176038
 107.5949992  90.8609978  38.0580014 107.2439992  90.0039978  38.3020014
 108.3209992  91.0029978  38.6650014 107.6451895  90.7631351  38.1733770
 109.7149992  91.8059978  20.9380014 109.9979992  91.0109978  21.3910014
 110.4539992  92.0389978  20.3770014 109.8537096  91.7287049  20.9241104
  96.3279992  87.3719978  38.6630014  96.4719992  86.4699978  38.3770014
  95.5559992  87.6579978  38.1760014  96.2432733  87.2871798  38.5579532
 100.6689992  87.7149978  20.7960014 100.7339992  86.9209978  21.3260014
 101.3219992  87.5969978  20.1060014 100.7661605  87.5903430  20.7752997
 102.9829992  87.3409978  38.0960014 102.6549992  87.6119978  37.2390014
 103.1349992  86.3999978  38.0080014 102.9586412  87.2509046  37.9667822
 106.0219992  88.7619978  20.5320014 105.7529992  88.9429978  21.4320014
 105.8149992  87.8369978  20.4000014 105.9571191  88.6617119  20.6375524
 108.7179992  87.2569978  35.4790014 109.4629992  87.8459978  35.3600014
 107.9609992  87.8389978  35.5430014 108.7175470  87.4162128  35.4713799
  97.1609992  84.5719978  38.0830014  97.5689992  83.7149978  37.9620014
  96.8999992  84.5859978  39.0040014  97.1816016  84.4565119  38.1909192
 101.8189992  85.6879978  23.1020014 101.3589992  85.2039978  23.7870014
 102.0739992  85.0189978  22.4660014 101.7904856  85.5313669  23.1098397
 101.1079992  83.5809978  35.4580014 100.4889992  84.2549978  35.7380014
 101.4519992  83.9019978  34.6240014 101.0697123  83.7166887  35.3836388
 102.8899992  83.9309978  21.3640014 102.7089992  83.7759978  20.4370014
 103.8399992  84.0389978  21.4090014 102.9936566  83.9243669  21.2430929
 106.1269992  86.0519978  38.7350014 107.0809992  86.1359978  38.7080014
 105.9669992  85.3399978  39.3550014 106.2357182  85.9672842  38.8150733
 112.2799992  86.2849978  20.8100014 112.0059992  85.8609978  19.9970014
 112.3189992  87.2169978  20.5930014 112.2477716  86.3528827  20.6694286
 101.4469992  80.9359978  36.5400014 101.5969992  80.2069978  35.9380014
 101.4489992  81.7129978  35.9810014 101.4677967  80.9412708  36.3820541
 101.8599992  79.3049978  34.0330014 102.3949992  79.7569978  33.3810014
 101.0069992  79.1969978  33.6100014 101.8180374  79.3522665  33.8866710
 103.4409992  84.7449978  34.2720014 104.1919992  84.5889978  33.6990014
 103.1019992  85.5969978  33.9970014 103.4979587  84.8388138  34.1564078
 107.8569992  82.5599978  39.3010014 108.0489992  81.6289978  39.1890014
 108.7149992  82.9849978  39.2900014 107.9992182  82.4900070  39.2841862
 109.1739992  85.3489978  37.3780014 108.8919992  86.0579978  36.8000014
 110.1159992  85.2759978  37.2270014 109.2627921  85.4362193  37.2784225
  99.9259992  82.1339978  38.4510014  99.1579992  81.6009978  38.2410014
 100.6039992  81.8239978  37.8520014  99.9127235  82.0191754  38.3412413
 102.6649992  76.7619978  34.4640014 102.5669992  77.7079978  34.3590014
 101.9229992  76.3889978  33.9880014 102.5512534  76.8411773  34.3852600
 103.9289992  81.0829978  38.0280014 103.6939992  80.8639978  38.9290014
 103.1459992  80.8759978  37.5180014 103.7909095  81.0249892  38.0825353
 106.6449992  80.2109978  37.1030014 105.6969992  80.2429978  37.2350014
 106.9569992  79.5849978  37.7570014 106.5575293  80.1307923  37.2094148
 108.2789992  78.8449978  39.1080014 108.1819992  77.8929978  39.1030014
 107.9569992  79.1129978  39.9690014 108.2222468  78.7510884  39.2236210
  98.1059992  80.0539978  38.1560014  98.3179992  79.3479978  37.5460014
  97.9949992  79.6169978  39.0000014  98.1200269  79.8981921  38.1865873
 102.8869992  76.0559978  37.1350014 103.5989992  75.4159978  37.1210014
 102.7859992  76.3219978  36.2220014 102.9707387  76.0044330  37.0095563
 103.2409992  77.7379978  39.1890014 103.1089992  77.2629978  38.3690014
 102.6409992  78.4829978  39.1340014 103.1419070  77.7735789  39.0693251
 102.7869992  94.6209978  22.3650014 103.7199992  94.7789978  22.5090014
 102.5229992  95.2969978  21.7400014 102.8789911  94.7339373  22.3002722
  96.3549992  89.2579978  21.8480014  97.2689992  89.3369978  22.1210014
  96.3629992  88.5709978  21.1820014  96.4810655  89.1759205  21.7952917
  95.0039992  94.6509978  26.9250014  94.3569992  94.1889978  26.3930014
  95.3589992  93.9789978  27.5080014  94.9633741  94.4969774  26.9309175
  95.8739992  92.7309978  28.7300014  95.5399992  91.8509978  28.9020014
  96.0969992  93.0769978  29.5950014  95.8583721  92.6571938  28.8704168
 113.4229992  93.5409978  31.7110014 113.4009992  93.7259978  32.6500014
 114.1129992  94.1089978  31.3700014 113.5133439  93.6431887  31.7934791
 112.9859992  93.1079978  34.6320014 112.4989992  92.3729978  34.2610014
 113.5349992  92.7139978  35.3100014 112.9935247  92.9541057  34.6728461
 111.4369992  88.8979978  39.2710014 110.5709992  88.7929978  39.6650014
 111.8129992  89.6559978  39.7170014 111.3693401  88.9861708  39.3852620
 112.7379992  87.1539978  24.7850014 113.5879992  87.5749978  24.9120014
 112.7429992  86.4139978  25.3920014 112.8551143  87.1116094  24.8844750
 113.1319992  85.2079978  26.6080014 112.4059992  84.7279978  27.0060014
 113.7139992  85.4129978  27.3410014 113.1112730  85.1700184  26.7614149
 112.8909992  87.9929978  31.5560014 113.7249992  87.6149978  31.2750014
 113.0029992  88.9359978  31.4370014 113.0201917  88.0687943  31.5014861
 111.3779992  90.8709978  33.8630014 110.7299992  91.1959978  34.4880014
 110.8599992  90.4299978  33.1890014 111.2194196  90.8558651  33.8574152
 113.4009992  85.1089978  22.9990014 112.8789992  85.4649978  22.2810014
 113.3679992  85.7839978  23.6780014 113.3250129  85.2489598  22.9923355
 111.7499992  82.3479978  21.5500014 111.8459992  83.0149978  20.8700014
 111.6099992  81.5329978  21.0690014 111.7442040  82.3290671  21.3918378
 110.9189992  83.7289978  27.1710014 110.7689992  82.7839978  27.1510014
 110.5649992  84.0099978  28.0150014 110.8506351  83.6376644  27.2823220
  95.9539992  85.8069978  31.1820014  96.1389992  85.7249978  30.2460014
  96.8039992  85.6829978  31.6050014  96.0940928  85.7790463  31.1112893
 111.7749992  85.6989978  36.8100014 112.3579992  84.9639978  37.0020014
 112.3389992  86.4709978  36.8570014 111.9309781  85.7028145  36.8426164
 113.2719992  83.6019978  37.4950014 112.4089992  83.2229978  37.3290014
 113.8759992  82.8629978  37.4200014 113.2356085  83.4503223  37.4621695
 110.9969992  79.7559978  20.6680014 111.6079992  79.3849978  21.3050014
 110.1599992  79.3349978  20.8640014 110.9674947  79.6482756  20.7817252
 110.6299992  81.3109978  25.6340014 110.9089992  80.4039978  25.7580014
 111.3889992  81.7449978  25.2450014 110.7708619  81.2454502  25.5983795
 111.2409992  81.8929978  31.0700014 112.1739992  82.1049978  31.0350014
 111.0059992  81.9939978  31.9920014 111.3369517  81.9356833  31.1899130
 111.2709992  82.6299978  33.8460014 110.4279992  82.8979978  34.2120014
 111.7129992  83.4519978  33.6350014 111.2154138  82.7778273  33.8675518
  95.5519992  81.0769978  37.3220014  96.4709992  80.9549978  37.5590014
  95.1019992  80.3269978  37.7120014  95.6170087  80.9589608  37.4071410
 113.5539992  76.6099978  39.1990014 113.9029992  75.9559978  38.5940014
 113.7009992  77.4469978  38.7590014 113.6216824  76.6336024  39.0566304
 111.2429992  78.5739978  25.6820014 111.4249992  78.1249978  26.5070014
 110.6429992  77.9899978  25.2180014 111.1868187  78.4335552  25.7322739
  96.7729992  79.3899978  30.2140014  97.2179992  78.5979978  30.5160014
  97.2389992  80.1059978  30.6440014  96.8969718  79.3784534  30.3135265
  95.0769992  82.3889978  31.2830014  95.5689992  82.1679978  30.4920014
  95.4389992  83.2289978  31.5640014  95.1932923  82.4723468  31.2127407
 113.0729992  78.7189978  37.5480014 112.1559992  78.9899978  37.5130014
 113.1959992  78.1839978  36.7640014 112.9639672  78.6837885  37.4371862
 113.1099992  78.6419978  22.2100014 113.5219992  77.9209978  21.7350014
 113.7909992  79.3109978  22.2680014 113.2585536  78.6337766  22.1528024
  95.3909992  78.6469978  25.3370014  94.4659992  78.8549978  25.2080014
  95.8449992  79.1309978  24.6470014  95.3256298  78.7409299  25.2260451
 110.1609992  93.6309978  27.2830014 110.8139992  93.2829978  26.6750014
 110.6719992  94.1189978  27.9290014 110.3192777  93.6493815  27.2872047
  95.3539992  77.3849978  33.6810014  94.6889992  77.1389978  34.3240014
  94.9109992  78.0069978  33.1040014  95.2031168  77.4354214  33.6909848
  97.5459992  90.5599978  37.8260014  96.7249992  90.7349978  37.3650014
  97.2939992  90.4869978  38.7460014  97.3995594  90.5740717  37.8873611
 100.4999992  91.5339978  34.0840014 100.0759992  92.3439978  33.8020014
 101.4049992  91.6199978  33.7820014 100.5642138  91.6564160  34.0046415
 104.8119992  92.9329978  37.0440014 104.9959992  92.5999978  37.9220014
 105.6579992  93.2429978  36.7220014 104.9516484  92.9292979  37.1207617
 107.1569992  94.2189978  36.2880014 107.8339992  93.5859978  36.0480014
 107.4779992  94.6199978  37.0950014 107.2931323  94.1865691  36.3643158
 112.0739992  76.8089978  35.3670014 111.2609992  77.1339978  34.9800014
 112.3069992  76.0479978  34.8340014 111.9941347  76.7506880  35.2419841
  97.9019992  94.7909978  34.1320014  97.1819992  95.2309978  33.6810014
  97.5369992  94.5399978  34.9800014  97.7539643  94.8173369  34.1849129
 100.3689992  94.3909978  33.1620014  99.5049992  94.4629978  33.5660014
 100.3139992  94.9379978  32.3780014 100.2431942  94.4747849  33.1114000
 105.0799992  94.2789978  32.3370014 104.6229992  94.8079978  31.6830014
 105.2429992  94.8819978  33.0620014 105.0394960  94.4329280  32.3455274
 107.4079992  93.1569978  33.2820014 106.5029992  93.3219978  33.0160014
 107.8359992  94.0099978  33.2160014 107.3421537  93.2949134  33.2367095
 110.0119992  94.7269978  33.5770014 109.8299992  95.6429978  33.3660014
 110.1889992  94.3159978  32.7300014 110.0110030  94.7968273  33.4337166
  97.3169992  93.4139978  31.0420014  97.2989992  92.9879978  31.8990014
  98.1219992  93.0949978  30.6330014  97.4232875  93.3126435  31.1039515
  99.4579992  92.1239978  29.6970014  99.2389992  91.2069978  29.8670014
 100.2819992  92.2639978  30.1630014  99.5394702  92.0175511  29.7832527
 101.9949992  92.5939978  30.5460014 102.2079992  91.7059978  30.2590014
 102.0599992  92.5589978  31.5000014 102.0329149  92.4678326  30.6357369
 105.5039992  78.2579978  29.6900014 104.8299992  77.6279978  29.9460014
 106.0679992  77.7739978  29.0870014 105.4880384  78.1063708  29.6435020
 110.6469992  76.3649978  29.8030014 111.2499992  76.9129978  29.3010014
 109.7769992  76.6839978  29.5620014 110.6119157  76.4830373  29.7017910
 112.3739992  77.5039978  28.1360014 112.9849992  76.9899978  27.6090014
 112.7559992  78.3809978  28.1590014 112.5093305  77.5522050  28.0669418
  97.8309992  76.8919978  27.5120014  97.0539992  76.6569978  27.0050014
  98.3609992  76.0949978  27.5210014  97.7963451  76.7521268  27.4438627
  96.6669992  76.6899978  23.3160014  97.1059992  77.3009978  22.7240014
  96.0329992  77.2279978  23.7900014  96.6413859  76.8464064  23.2990305
 102.4099992  76.8179978  27.3250014 103.2839992  77.2069978  27.2960014
 102.2739992  76.6029978  28.2480014 102.5111953  76.8421643  27.4457617
 107.9669992  76.8479978  28.9750014 108.0429992  76.9439978  28.0250014
 107.6919992  75.9409978  29.1030014 107.9401871  76.7384146  28.8623944
 109.3199992  76.8739978  24.6670014 108.6169992  77.4889978  24.4570014
 108.8749992  76.0369978  24.7980014 109.1636550  76.8449668  24.6559837
  96.5679992  92.6379978  24.2130014  95.8829992  92.5999978  23.5460014
  96.5719992  93.5509978  24.5010014  96.4747621  92.7561924  24.1606126
  98.5279992  78.6059978  21.7580014  99.0189992  77.9759978  21.2310014
  99.1509992  78.9019978  22.4210014  98.6795304  78.5597376  21.7754940
 103.5539992  78.8989978  24.2150014 103.7319992  78.2519978  24.8980014
 103.4999992  79.7329978  24.6820014 103.5710678  78.9231604  24.3716301
 105.4319992  93.8469978  22.6110014 106.2979992  94.2139978  22.4330014
 105.1859992  93.4079978  21.7970014 105.5172097  93.8378525  22.4766019
 112.1409992  93.4099978  25.2900014 111.9469992  92.6619978  24.7250014
 112.1019992  94.1679978  24.7070014 112.1091645  93.4100786  25.1338148
  97.7879992  77.4059978  37.0300014  97.4219992  76.6399978  37.4720014
  98.7009992  77.4349978  37.3160014  97.8613172  77.3050324  37.1291890
  99.7609992  76.7559978  38.5650014 100.6599992  76.4819978  38.3810014
  99.3749992  76.0139978  39.0300014  99.8317307  76.6182196  38.6027098
  98.3859992  93.5579978  21.2380014  98.1179992  93.8439978  22.1120014
  99.1569992  93.0119978  21.3910014  98.4535927  93.5232779  21.3781205
 108.1829992  76.0889978  38.7480014 108.2589992  75.6629978  39.6010014
 109.0759992  76.1019978  38.4050014 108.3142303  76.0323493  38.8185497
 111.3589992  92.1619978  37.4400014 110.5769992  91.9749978  36.9200014
 111.2869992  93.0909978  37.6570014 111.2421924  92.2620637  37.3981602
 125.7649992  86.0479978  27.4710014 125.8539992  86.9919978  27.3390014
 125.1269992  85.7729978  26.8130014 125.6909061  86.1399812  27.3639641
 124.6979992  85.3029978  30.8900014 124.6599992  84.6569978  31.5950014
 124.3759992  84.8359978  30.1190014 124.6492679  85.1514276  30.8822921
 117.0659992  84.9169978  32.4830014 117.1079992  84.2919978  33.2060014
 117.7689992  85.5409978  32.6650014 117.1667345  84.9157873  32.6065273
 128.4039992  88.2419978  29.1910014 127.9629992  87.5219978  29.6420014
 128.3909992  88.9629978  29.8210014 128.3419215  88.2409291  29.3378105
 117.9899992  89.3669978  31.0180014 117.6199992  88.5649978  30.6480014
 118.9309992  89.1989978  31.0640014 118.0665984  89.2344638  30.9735603
 114.5999992  83.0269978  26.4100014 114.1519992  83.8729978  26.3920014
 114.0389992  82.4479978  25.8950014 114.4628546  83.0643993  26.3378891
 115.3099992  85.1889978  28.5360014 115.5239992  84.4189978  29.0640014
 116.0479992  85.2789978  27.9330014 115.4390200  85.0958586  28.5267035
 125.5159992  93.3459978  29.4030014 126.1349992  92.6699978  29.1300014
 125.3069992  93.1279978  30.3120014 125.5726056  93.2238869  29.4883967
 123.0869992  87.7349978  31.2960014 123.3909992  87.0489978  30.7010014
 123.8089992  87.8539978  31.9140014 123.2261240  87.6572314  31.2980959
 131.7499992  79.3369978  32.1560014 131.7999992  79.9469978  32.8920014
 132.1759992  79.7979978  31.4330014 131.8144108  79.4827709  32.1590112
 126.2279992  82.1289978  31.6230014 126.3709992  81.1829978  31.6430014
 126.1219992  82.3359978  30.6950014 126.2332403  82.0274797  31.5002239
 119.3829992  80.2309978  28.8960014 119.4259992  81.0909978  28.4770014
 118.9249992  79.6789978  28.2620014 119.3269871  80.2739245  28.7530761
 127.1049992  80.3619978  27.2970014 127.7519992  80.0329978  27.9210014
 127.6149992  80.8789978  26.6740014 127.2624351  80.3869067  27.2981037
 116.0029992  82.6279978  29.6580014 116.6569992  82.0779978  30.0900014
 116.0269992  82.3539978  28.7410014 116.0957199  82.5157167  29.5931668
 121.1599992  84.1779978  28.8730014 121.7759992  83.6509978  29.3820014
 120.5729992  83.5379978  28.4690014 121.1650154  84.0193954  28.8880945
 132.1419992  80.8149978  34.3920014 131.4529992  81.4729978  34.2970014
 132.1569992  80.6169978  35.3290014 132.0497756  80.8782603  34.5055812
 118.1929992  79.1489978  32.9700014 117.9739992  79.6789978  32.2030014
 117.5249992  79.3749978  33.6170014 118.0726975  79.2520967  32.9525140
 125.5619992  88.6489978  26.5140014 125.2669992  88.3259978  25.6620014
 125.2379992  89.5489978  26.5550014 125.4778460  88.7264464  26.4029714
 120.7619992  86.8239978  33.2570014 120.0219992  87.4229978  33.3610014
 121.4759992  87.3779978  32.9420014 120.7573500  86.9807829  33.2286371
 128.8689992  79.6529978  29.2770014 128.6539992  78.8869978  29.8100014
 129.5249992  80.1249978  29.7900014 128.9282673  79.6120728  29.4191990
 117.7869992  81.0409978  30.9220014 118.4009992  81.6739978  31.2950014
 118.2989992  80.5689978  30.2660014 117.9401962  81.0637249  30.8842935
 119.1699992  88.7889978  34.0440014 119.1639992  89.6679978  33.6660014
 118.3159992  88.7049978  34.4690014 119.0537925  88.8979535  34.0496887
 115.2909992  88.4599978  24.8260014 115.0189992  88.6889978  23.9380014
 115.3359992  89.2969978  25.2870014 115.2598097  88.6046163  24.7666683
 128.9159992  90.0809978  31.5390014 127.9739992  90.1399978  31.7010014
 129.1919992  90.9869978  31.4020014 128.8245865  90.2115288  31.5426192
 129.2159992  78.3679978  32.9560014 128.4799992  78.9779978  32.9190014
 129.8999992  78.7829978  32.4300014 129.2075367  78.5077551  32.8798174
 122.2199992  76.4539978  30.4220014 122.1019992  75.5059978  30.3680014
 121.3649992  76.7869978  30.6950014 122.0882805  76.3692202  30.4515079
 127.1679992  91.8619978  28.1640014 127.5929992  91.1549978  27.6790014
 127.4849992  92.6639978  27.7470014 127.2690266  91.8735190  28.0412479
 128.3279992  89.7629978  26.6730014 128.0699992  89.0729978  26.0610014
 128.3989992  89.3199978  27.5180014 128.3023050  89.6086814  26.7035621
 130.0139992  88.3299978  35.1500014 130.1529992  87.7379978  34.4110014
 130.1809992  89.2029978  34.7940014 130.0556193  88.3668896  35.0006211
 124.4859992  85.2919978  24.9230014 123.7749992  85.8269978  24.5710014
 125.1769992  85.3469978  24.2630014 124.4820751  85.3726777  24.7855858
 124.5399992  83.7489978  21.9610014 125.2409992  83.7719978  22.6130014
 124.8419992  83.1209978  21.3050014 124.6768202  83.6672212  21.9615609
 131.8549992  84.6699978  33.2160014 131.2029992  85.3639978  33.3050014
 132.3209992  84.8799978  32.4060014 131.8285937  84.7935019  33.1187533
 127.8919992  85.5009978  25.8740014 127.1599992  85.7299978  26.4480014
 128.3389992  84.7879978  26.3290014 127.8523963  85.4358729  26.0139945
 127.7889992  83.6759978  34.9420014 127.8689992  84.4389978  35.5140014
 127.1879992  83.9549978  34.2520014 127.7186547  83.8182457  34.9270047
 119.5369992  86.1319978  27.7570014 119.2069992  85.7609978  26.9390014
 120.1259992  85.4609978  28.1040014 119.5713970  85.9906063  27.6919404
 120.9039992  89.5599978  30.4380014 120.8089992  88.9809978  29.6820014
 121.6329992  89.1889978  30.9340014 120.9896011  89.4305561  30.4016028
 119.9039992  84.8999978  31.3900014 120.4689992  85.0219978  30.6280014
 120.2229992  85.5379978  32.0290014 120.0244166  85.0028791  31.3720348
 126.2129992  90.4039978  32.1240014 125.9729992  91.0659978  32.7720014
 126.0149992  89.5689978  32.5490014 126.1533826  90.3818115  32.2701566
 120.7839992  89.2999978  36.1080014 120.4729992  90.0819978  36.5630014
 120.1339992  89.1469978  35.4220014 120.6535538  89.3864087  36.0775898
 126.7629992  84.6639978  23.5600014 127.3419992  84.8139978  24.3060014
 127.1769992  85.1339978  22.8360014 126.8983358  84.7480954  23.5643953
 117.7039992  85.4979978  35.3360014 117.7739992  86.1489978  36.0350014
 116.8129992  85.6009978  35.0010014 117.5931690  85.6009249  35.3863043
 124.4889992  91.3999978  26.9950014 124.9629992  91.6959978  27.7720014
 123.9259992  92.1389978  26.7620014 124.4777890  91.5403036  27.0698101
 119.0229992  91.3709978  36.8710014 119.0309992  91.2349978  35.9240014
 118.1069992  91.2539978  37.1230014 118.9002528  91.3365463  36.7753243
 130.4619992  76.4139978  23.3730014 129.5619992  76.5529978  23.6680014
 130.7139992  77.2449978  22.9710014 130.3728683  76.5454055  23.3590232
 118.5279992  85.2009978  25.3460014 118.2359992  85.9689978  24.8550014
 117.8529992  84.5419978  25.1830014 118.3968497  85.2169745  25.2568260
 131.6509992  90.7799978  21.7490014 131.7239992  91.7189978  21.9190014
 132.5559992  90.4749978  21.6930014 131.7834170  90.8673282  21.7647063
 114.6209992  87.5639978  34.1610014 114.1189992  87.5359978  33.3460014
 114.6259992  86.6589978  34.4710014 114.5529832  87.4377486  34.0914121
 114.3709992  90.3449978  31.0450014 115.3169992  90.1999978  31.0260014
 114.2579992  91.1289978  31.5820014 114.4853578  90.4311697  31.1150317
 132.5689992  91.0109978  36.7280014 132.5189992  90.0549978  36.6900014
 131.7419992  91.2779978  37.1290014 132.4503831  90.9164680  36.7770121
 123.5469992  90.5849978  35.6040014 123.6349992  91.4109978  36.0790014
 122.6839992  90.2549978  35.8530014 123.4423357  90.6535468  35.7027653
 123.9619992  94.3569978  25.4100014 123.8859992  94.2359978  24.4630014
 123.9939992  95.3059978  25.5280014 123.9559380  94.4687677  25.2965181
 117.6149992  93.1459978  27.1910014 117.7669992  92.7979978  28.0690014
 116.7639992  92.7889978  26.9350014 117.5208344  93.0500879  27.2766868
 127.0629992  93.5109978  22.4120014 127.4379992  92.7669978  21.9410014
 127.0679992  93.2409978  23.3300014 127.1150098  93.3726392  22.4716629
 126.7319992  93.4369978  25.1610014 125.7969992  93.5369978  25.3400014
 127.0119992  92.7269978  25.7400014 126.6419471  93.3547933  25.2636695
 129.7209992  82.5039978  37.2080014 129.3129992  82.9839978  36.4870014
 129.7609992  81.5979978  36.9000014 129.6706221  82.4472449  37.0678267
 116.8699992  88.8879978  35.2040014 117.0859992  88.5259978  36.0640014
 116.0139992  88.5129978  34.9950014 116.7838810  88.7878837  35.2932680
 119.4879992  77.3579978  31.2000014 118.6269992  77.2709978  30.7920014
 119.4659992  78.2139978  31.6280014 119.3670491  77.4618003  31.2019582
 124.1509992  77.0799978  34.5750014 124.5709992  76.6649978  35.3280014
 123.2179992  76.9009978  34.6920014 124.0823736  76.9989910  34.6938968
 127.4779992  80.8349978  35.4280014 126.9639992  80.7099978  36.2260014
 127.3219992  81.7479978  35.1840014 127.3866967  80.9412123  35.5040937
 128.2399992  85.6959978  21.1890014 128.2819992  85.4739978  20.2590014
 129.0889992  86.0949978  21.3790014 128.3605253  85.7195498  21.0873822
 123.8129992  79.5719978  21.8600014 123.5589992  79.5909978  22.7820014
 123.5559992  78.7009978  21.5580014 123.7434508  79.4568280  21.9454803
 119.5789992  82.3229978  32.2950014 118.9379992  82.2829978  33.0040014
 119.6169992  83.2499978  32.0570014 119.4963010  82.4427668  32.3599946
 119.5759992  82.5439978  27.2070014 118.6839992  82.2039978  27.1480014
 120.0269992  82.1669978  26.4510014 119.5147642  82.4464910  27.0967726
 125.1119992  82.9599978  26.0240014 124.7029992  83.7749978  25.7320014
 125.8319992  82.8199978  25.4100014 125.1534439  83.0525372  25.9010115
 124.2139992  83.1359978  37.5120014 123.6509992  82.4309978  37.8330014
 125.0399992  83.0149978  37.9800014 124.2486674  83.0232165  37.6191751
 126.1169992  82.4059978  28.8380014 125.9209992  83.0119978  28.1230014
 126.2979992  81.5729978  28.4040014 126.1146584  82.3762513  28.6814212
 117.3289992  82.6439978  34.1620014 117.2909992  83.0439978  35.0310014
 116.8389992  81.8269978  34.2520014 117.2575330  82.5882674  34.2931289
 120.6949992  80.0179978  20.9610014 120.2639992  79.5729978  21.6900014
 119.9769992  80.3889978  20.4480014 120.5389176  80.0072051  20.9914930
 113.9379992  79.7599978  28.0130014 114.5679992  79.7309978  28.7320014
 114.3869992  79.3349978  27.2820014 114.0850835  79.6985660  28.0127659
 115.2119992  80.5059978  23.4370014 115.6859992  81.0969978  22.8520014
 114.4939992  81.0359978  23.7840014 115.1798640  80.6585511  23.4037969
 125.3809992  84.0439978  33.5090014 125.7039992  83.4129978  32.8660014
 124.9399992  83.5099978  34.1700014 125.3656379  83.8853468  33.5102582
 122.1579992  79.9719978  28.2930014 121.2469992  80.0289978  28.5820014
 122.6629992  79.9119978  29.1040014 122.1016873  79.9716826  28.4421207
 116.9859992  81.6009978  27.1200014 116.0969992  81.6999978  26.7800014
 117.2829992  80.7589978  26.7740014 116.9044177  81.5007687  27.0266940
 120.6389992  81.6009978  24.7770014 121.5709992  81.7299978  24.9550014
 120.4239992  82.2699978  24.1270014 120.7374472  81.7090806  24.7134891
 126.5629992  79.2069978  31.5580014 125.8859992  79.3379978  32.2210014
 126.0779992  79.0519978  30.7470014 126.4047405  79.2039947  31.5392170
 119.3129992  82.7949978  22.3430014 118.7709992  82.4159978  21.6520014
 120.1469992  82.9899978  21.9150014 119.3514390  82.7694079  22.1904392
 129.8509992  94.8779978  37.8340014 130.0499992  95.3019978  37.0000014
 130.5059992  95.2219978  38.4410014 129.9668522  94.9826301  37.8017852
 117.4489992  87.3519978  37.4420014 118.1809992  87.6069978  38.0040014
 116.6679992  87.5569978  37.9580014 117.4436526  87.4145450  37.5885176
 123.4779992  82.7589978  30.1800014 124.0419992  82.2129978  29.6330014
 123.3299992  82.2379978  30.9690014 123.5353037  82.6136787  30.2117229
 118.4799992  78.8959978  26.5990014 118.1629992  77.9929978  26.5630014
 119.2609992  78.8979978  26.0460014 118.5422431  78.7727797  26.5193102
 122.1039992  81.1479978  32.5940014 121.2689992  81.6019978  32.7050014
 122.6279992  81.4239978  33.3460014 122.0606072  81.2473948  32.7108136
 122.6489992  87.3609978  24.2790014 121.9039992  86.8529978  23.9570014
 122.5139992  87.4099978  25.2250014 122.5288963  87.2981731  24.3628826
 129.7989992  86.4939978  33.0660014 130.4399992  86.9499978  32.5220014
 128.9679992  86.6069978  32.6030014 129.7745287  86.5716921  32.9289887
 126.5459992  80.1749978  22.4780014 125.6079992  80.2859978  22.3270014
 126.8439992  81.0309978  22.7850014 126.4576318  80.3060158  22.4988145
 124.1679992  87.5449978  35.5160014 123.8219992  87.1629978  36.3230014
 123.9679992  88.4779978  35.5870014 124.0935987  87.6189002  35.6360461
 127.2649992  82.0419978  24.1390014 128.1569992  81.9039978  24.4580014
 127.3209992  82.8329978  23.6020014 127.3947325  82.1299918  24.1101217
 117.7729992  86.6559978  30.0490014 118.5179992  86.6529978  29.4470014
 117.8509992  85.8319978  30.5300014 117.8853365  86.5442384  30.0317430
 124.7739992  88.8189978  23.3040014 124.4789992  89.6459978  23.6860014
 124.0709992  88.1999978  23.5010014 124.6386379  88.8484171  23.3828654
 114.7809992  85.1159978  35.3640014 115.0039992  84.6979978  36.1950014
 114.1789992  84.5039978  34.9410014 114.7301513  84.9759606  35.4206740
 121.7979992  84.6329978  37.5770014 121.5019992  84.4679978  36.6810014
 122.7289992  84.4129978  37.5660014 121.8834401  84.5806879  37.4530206
 126.4179992  90.0069978  35.4660014 125.5179992  90.1899978  35.1990014
 126.4519992  90.2659978  36.3870014 126.2993748  90.0670554  35.5539164
 132.1499992  82.2509978  23.8340014 131.5949992  81.8549978  23.1610014
 132.2499992  83.1619978  23.5560014 132.0876816  82.3199505  23.7045033
 132.1129992  88.0519978  36.6710014 131.2619992  88.2899978  36.3030014
 132.7029992  88.0349978  35.9180014 132.0763812  88.0822524  36.5188453
 130.4449992  91.0369978  24.2990014 130.0719992  90.2119978  24.6080014
 130.7219992  90.8539978  23.4010014 130.4313463  90.8992569  24.2199525
 127.6049992  85.8449978  31.3200014 126.6769992  85.6139978  31.2930014
 128.0559992  85.0679978  30.9900014 127.5388165  85.7082774  31.2716790
 120.1479992  90.1739978  27.4530014 120.6759992  90.9469978  27.2530014
 119.2679992  90.3979978  27.1510014 120.1013435  90.3102700  27.3847310
 115.9029992  85.0359978  22.0400014 116.5189992  85.6629978  22.4200014
 115.0409992  85.3519978  22.3120014 115.8707678  85.1644412  22.1287209
 121.5759992  87.8369978  27.0290014 121.3349992  88.7619978  27.0710014
 120.8349992  87.3779978  27.4260014 121.4429206  87.9015915  27.0883769
 122.0899992  91.9859978  33.3440014 122.4529992  92.8399978  33.1110014
 122.6219992  91.6939978  34.0850014 122.2115141  92.0633895  33.4122097
 120.2589992  92.8579978  26.5750014 119.3089992  92.9639978  26.6260014
 120.6109992  93.6789978  26.9190014 120.1765472  92.9834923  26.6284852
 125.6339992  88.0849978  33.0450014 125.2089992  87.8569978  33.8710014
 126.2149992  87.3459978  32.8630014 125.6543395  87.9539545  33.1334414
 127.8369992  89.0139978  22.1190014 128.1909992  88.6339978  22.9230014
 126.8889992  88.9199978  22.2060014 127.7572298  88.9492452  22.2408687
 128.2929992  92.6369978  35.5140014 127.6909992  92.0809978  35.0190014
 128.5739992  93.3039978  34.8880014 128.2485757  92.6510744  35.3615675
 132.3409992  93.4929978  22.3200014 133.0849992  94.0789978  22.1800014
 131.6469992  94.0619978  22.6530014 132.3489809  93.6500818  22.3458590
 116.4149992  79.8699978  34.9220014 115.5229992  80.2079978  34.8540014
 116.3169992  79.0139978  35.3400014 116.2794475  79.8006543  34.9691704
 128.7029992  87.6859978  24.3460014 128.4259992  86.9579978  24.9020014
 129.6309992  87.8049978  24.5510014 128.7904499  87.6024213  24.4498044
 116.0669992  91.6739978  33.3570014 116.2839992  90.7419978  33.3260014
 116.3129992  91.9489978  34.2400014 116.1299809  91.5835686  33.4721691
 121.9279992  90.1259978  20.5660014 122.1669992  89.3769978  20.0190014
 121.6589992  89.7379978  21.3990014 121.9243233  89.9711853  20.6037809
 120.8649992  89.6959978  23.0220014 121.0119992  89.1759978  23.8120014
 120.8619992  90.6029978  23.3290014 120.8847102  89.7473953  23.1715925
 117.3179992  86.9479978  23.5330014 116.6319992  87.3009978  24.1000014
 117.8409992  87.7109978  23.2860014 117.2948402  87.0993901  23.5771801
 125.1499992  79.6109978  33.8120014 125.8489992  79.6849978  34.4620014
 124.7689992  78.7459978  33.9660014 125.1942097  79.5042389  33.9217997
 125.9339992  79.2629978  24.9090014 126.1539992  79.7339978  24.1050014
 126.4929992  79.6569978  25.5790014 126.0396731  79.3807287  24.8895033
 123.6029992  91.3929978  23.7720014 122.7859992  91.8899978  23.8240014
 124.1319992  91.8689978  23.1310014 123.5628125  91.5251989  23.6925306
 123.1339992  80.9909978  25.7440014 123.9459992  81.4949978  25.7900014
 122.8899992  80.8459978  26.6580014 123.2121467  81.0403749  25.8738575
 123.6699992  81.9769978  34.9280014 123.7889992  82.5509978  35.6850014
 124.3249992  81.2889978  35.0430014 123.7748684  81.9625194  35.0471674
 124.0179992  78.0719978  26.6820014 123.6709992  78.6889978  27.3260014
 124.6769992  78.5729978  26.2000014 124.0595090  78.2241575  26.7050681
 120.9409992  92.4369978  23.7530014 121.1019992  93.2369978  23.2530014
 120.7439992  92.7439978  24.6380014 120.9363906  92.5878678  23.8042333
 119.6759992  79.1349978  23.3690014 119.5919992  80.0229978  23.7160014
 120.5659992  78.8699978  23.6010014 119.7848163  79.2207179  23.4478596
 129.8739992  79.8839978  35.7630014 128.9579992  80.1459978  35.6760014
 130.2099992  79.8809978  34.8670014 129.7938499  79.9195163  35.6298766
 128.4769992  83.6339978  29.8590014 127.6789992  83.2189978  29.5310014
 128.9219992  82.9439978  30.3500014 128.4279684  83.4838628  29.8805227
 117.9339992  89.5619978  22.4290014 118.5259992  90.2619978  22.7060014
 118.3929992  89.1289978  21.7100014 118.0771652  89.5992675  22.3696533
 116.2499992  82.2269978  21.5450014 116.2049992  83.1659978  21.7240014
 115.3619992  81.9909978  21.2760014 116.1238166  82.3236687  21.5331524
 129.5629992  92.8899978  31.4810014 129.4069992  93.5689978  30.8240014
 130.4959992  92.9619978  31.6840014 129.6677387  92.9926390  31.4185342
 117.0579992  77.0079978  30.2190014 116.8289992  77.0669978  29.2910014
 116.6159992  76.2169978  30.5250014 116.9668801  76.9090540  30.1334729
 115.9889992  90.9489978  26.3790014 115.1559992  91.4209978  26.4060014
 116.5339992  91.4589978  25.7800014 115.9487857  91.0824791  26.3017142
 115.2769992  93.5609978  37.7090014 115.8169992  93.3449978  38.4690014
 114.7959992  92.7559978  37.5190014 115.2859219  93.4225156  37.7874282
 119.8739992  92.4809978  39.3290014 120.6419992  92.0219978  39.6700014
 119.8529992  92.2549978  38.3990014 119.9762135  92.3876668  39.2499491
 123.9659992  91.9889978  20.7050014 123.3219992  91.3579978  21.0260014
 124.7279992  91.4579978  20.4730014 123.9808058  91.8307902  20.7176038
 126.4509992  90.8609978  38.0580014 126.0999992  90.0039978  38.3020014
 127.1769992  91.0029978  38.6650014 126.5011895  90.7631351  38.1733770
 128.5709992  91.8059978  20.9380014 128.8539992  91.0109978  21.3910014
 129.3099992  92.0389978  20.3770014 128.7097096  91.7287049  20.9241104
 115.1839992  87.3719978  38.6630014 115.3279992  86.4699978  38.3770014
 114.4119992  87.6579978  38.1760014 115.0992733  87.2871798  38.5579532
 119.5249992  87.7149978  20.7960014 119.5899992  86.9209978  21.3260014
 120.1779992  87.5969978  20.1060014 119.6221605  87.5903430  20.7752997
 121.8389992  87.3409978  38.0960014 121.5109992  87.6119978  37.2390014
 121.9909992  86.3999978  38.0080014 121.8146412  87.2509046  37.9667822
 124.8779992  88.7619978  20.5320014 124.6089992  88.9429978  21.4320014
 124.6709992  87.8369978  20.4000014 124.8131191  88.6617119  20.6375524
 127.5739992  87.2569978  35.4790014 128.3189992  87.8459978  35.3600014
 126.8169992  87.8389978  35.5430014 127.5735470  87.4162128  35.4713799
 116.0169992  84.5719978  38.0830014 116.4249992  83.7149978  37.9620014
 115.7559992  84.5859978  39.0040014 116.0376016  84.4565119  38.1909192
 120.6749992  85.6879978  23.1020014 120.2149992  85.2039978  23.7870014
 120.9299992  85.0189978  22.4660014 120.6464856  85.5313669  23.1098397
 119.9639992  83.5809978  35.4580014 119.3449992  84.2549978  35.7380014
 120.3079992  83.9019978  34.6240014 119.9257123  83.7166887  35.3836388
 121.7459992  83.9309978  21.3640014 121.5649992  83.7759978  20.4370014
 122.6959992  84.0389978  21.4090014 121.8496566  83.9243669  21.2430929
 124.9829992  86.0519978  38.7350014 125.9369992  86.1359978  38.7080014
 124.8229992  85.3399978  39.3550014 125.0917182  85.9672842  38.8150733
 131.1359992  86.2849978  20.8100014 130.8619992  85.8609978  19.9970014
 131.1749992  87.2169978  20.5930014 131.1037716  86.3528827  20.6694286
 120.3029992  80.9359978  36.5400014 120.4529992  80.2069978  35.9380014
 120.3049992  81.7129978  35.9810014 120.3237967  80.9412708  36.3820541
 120.7159992  79.3049978  34.0330014 121.2509992  79.7569978  33.3810014
 119.8629992  79.1969978  33.6100014 120.6740374  79.3522665  33.8866710
 122.2969992  84.7449978  34.2720014 123.0479992  84.5889978  33.6990014
 121.9579992  85.5969978  33.9970014 122.3539587  84.8388138  34.1564078
 126.7129992  82.5599978  39.3010014 126.9049992  81.6289978  39.1890014
 127.5709992  82.9849978  39.2900014 126.8552182  82.4900070  39.2841862
 128.0299992  85.3489978  37.3780014 127.7479992  86.0579978  36.8000014
 128.9719992  85.2759978  37.2270014 128.1187921  85.4362193  37.2784225
 118.7819992  82.1339978  38.4510014 118.0139992  81.6009978  38.2410014
 119.4599992  81.8239978  37.8520014 118.7687235  82.0191754  38.3412413
 121.5209992  76.7619978  34.4640014 121.4229992  77.7079978  34.3590014
 120.7789992  76.3889978  33.9880014 121.4072534  76.8411773  34.3852600
 122.7849992  81.0829978  38.0280014 122.5499992  80.8639978  38.9290014
 122.0019992  80.8759978  37.5180014 122.6469095  81.0249892  38.0825353
 125.5009992  80.2109978  37.1030014 124.5529992  80.2429978  37.2350014
 125.8129992  79.5849978  37.7570014 125.4135293  80.1307923  37.2094148
 127.1349992  78.8449978  39.1080014 127.0379992  77.8929978  39.1030014
 126.8129992  79.1129978  39.9690014 127.0782468  78.7510884  39.2236210
 116.9619992  80.0539978  38.1560014 117.1739992  79.3479978  37.5460014
 116.8509992  79.6169978  39.0000014 116.9760269  79.8981921  38.1865873
 121.7429992  76.0559978  37.1350014 122.4549992  75.4159978  37.1210014
 121.6419992  76.3219978  36.2220014 121.8267387  76.0044330  37.0095563
 122.0969992  77.7379978  39.1890014 121.9649992  77.2629978  38.3690014
 121.4969992  78.4829978  39.1340014 121.9979070  77.7735789  39.0693251
 121.6429992  94.6209978  22.3650014 122.5759992  94.7789978  22.5090014
 121.3789992  95.2969978  21.7400014 121.7349911  94.7339373  22.3002722
 115.2109992  89.2579978  21.8480014 116.1249992  89.3369978  22.1210014
 115.2189992  88.5709978  21.1820014 115.3370655  89.1759205  21.7952917
 113.8599992  94.6509978  26.9250014 113.2129992  94.1889978  26.3930014
 114.2149992  93.9789978  27.5080014 113.8193741  94.4969774  26.9309175
 114.7299992  92.7309978  28.7300014 114.3959992  91.8509978  28.9020014
 114.9529992  93.0769978  29.5950014 114.7143721  92.6571938  28.8704168
 132.2789992  93.5409978  31.7110014 132.2569992  93.7259978  32.6500014
 132.9689992  94.1089978  31.3700014 132.3693439  93.6431887  31.7934791
 131.8419992  93.1079978  34.6320014 131.3549992  92.3729978  34.2610014
 132.3909992  92.7139978  35.3100014 131.8495247  92.9541057  34.6728461
 130.2929992  88.8979978  39.2710014 129.4269992  88.7929978  39.6650014
 130.6689992  89.6559978  39.7170014 130.2253401  88.9861708  39.3852620
 131.5939992  87.1539978  24.7850014 132.4439992  87.5749978  24.9120014
 131.5989992  86.4139978  25.3920014 131.7111143  87.1116094  24.8844750
 131.9879992  85.2079978  26.6080014 131.2619992  84.7279978  27.0060014
 132.5699992  85.4129978  27.3410014 131.9672730  85.1700184  26.7614149
 131.7469992  87.9929978  31.5560014 132.5809992  87.6149978  31.2750014
 131.8589992  88.9359978  31.4370014 131.8761917  88.0687943  31.5014861
 130.2339992  90.8709978  33.8630014 129.5859992  91.1959978  34.4880014
 129.7159992  90.4299978  33.1890014 130.0754196  90.8558651  33.8574152
 132.2569992  85.1089978  22.9990014 131.7349992  85.4649978  22.2810014
 132.2239992  85.7839978  23.6780014 132.1810129  85.2489598  22.9923355
 130.6059992  82.3479978  21.5500014 130.7019992  83.0149978  20.8700014
 130.4659992  81.5329978  21.0690014 130.6002040  82.3290671  21.3918378
 129.7749992  83.7289978  27.1710014 129.6249992  82.7839978  27.1510014
 129.4209992  84.0099978  28.0150014 129.7066351  83.6376644  27.2823220
 114.8099992  85.8069978  31.1820014 114.9949992  85.7249978  30.2460014
 115.6599992  85.6829978  31.6050014 114.9500928  85.7790463  31.1112893
 130.6309992  85.6989978  36.8100014 131.2139992  84.9639978  37.0020014
 131.1949992  86.4709978  36.8570014 130.7869781  85.7028145  36.8426164
 132.1279992  83.6019978  37.4950014 131.2649992  83.2229978  37.3290014
 132.7319992  82.8629978  37.4200014 132.0916085  83.4503223  37.4621695
 129.8529992  79.7559978  20.6680014 130.4639992  79.3849978  21.3050014
 129.0159992  79.3349978  20.8640014 129.8234947  79.6482756  20.7817252
 129.4859992  81.3109978  25.6340014 129.7649992  80.4039978  25.7580014
 130.2449992  81.7449978  25.2450014 129.6268619  81.2454502  25.5983795
 130.0969992  81.8929978  31.0700014 131.0299992  82.1049978  31.0350014
 129.8619992  81.9939978  31.9920014 130.1929517  81.9356833  31.1899130
 130.1269992  82.6299978  33.8460014 129.2839992  82.8979978  34.2120014
 130.5689992  83.4519978  33.6350014 130.0714138  82.7778273  33.8675518
 114.4079992  81.0769978  37.3220014 115.3269992  80.9549978  37.5590014
 113.9579992  80.3269978  37.7120014 114.4730087  80.9589608  37.4071410
 132.4099992  76.6099978  39.1990014 132.7589992  75.9559978  38.5940014
 132.5569992  77.4469978  38.7590014 132.4776824  76.6336024  39.0566304
 130.0989992  78.5739978  25.6820014 130.2809992  78.1249978  26.5070014
 129.4989992  77.9899978  25.2180014 130.0428187  78.4335552  25.7322739
 115.6289992  79.3899978  30.2140014 116.0739992  78.5979978  30.5160014
 116.0949992  80.1059978  30.6440014 115.7529718  79.3784534  30.3135265
 113.9329992  82.3889978  31.2830014 114.4249992  82.1679978  30.4920014
 114.2949992  83.2289978  31.5640014 114.0492923  82.4723468  31.2127407
 131.9289992  78.7189978  37.5480014 131.0119992  78.9899978  37.5130014
 132.0519992  78.1839978  36.7640014 131.8199672  78.6837885  37.4371862
 131.9659992  78.6419978  22.2100014 132.3779992  77.9209978  21.7350014
 132.6469992  79.3109978  22.2680014 132.1145536  78.6337766  22.1528024
 114.2469992  78.6469978  25.3370014 113.3219992  78.8549978  25.2080014
 114.7009992  79.1309978  24.6470014 114.1816298  78.7409299  25.2260451
 129.0169992  93.6309978  27.2830014 129.6699992  93.2829978  26.6750014
 129.5279992  94.1189978  27.9290014 129.1752777  93.6493815  27.2872047
 114.2099992  77.3849978  33.6810014 113.5449992  77.1389978  34.3240014
 113.7669992  78.0069978  33.1040014 114.0591168  77.4354214  33.6909848
 116.4019992  90.5599978  37.8260014 115.5809992  90.7349978  37.3650014
 116.1499992  90.4869978  38.7460014 116.2555594  90.5740717  37.8873611
 119.3559992  91.5339978  34.0840014 118.9319992  92.3439978  33.8020014
 120.2609992  91.6199978  33.7820014 119.4202138  91.6564160  34.0046415
 123.6679992  92.9329978  37.0440014 123.8519992  92.5999978  37.9220014
 124.5139992  93.2429978  36.7220014 123.8076484  92.9292979  37.1207617
 126.0129992  94.2189978  36.2880014 126.6899992  93.5859978  36.0480014
 126.3339992  94.6199978  37.0950014 126.1491323  94.1865691  36.3643158
 130.9299992  76.8089978  35.3670014 130.1169992  77.1339978  34.9800014
 131.1629992  76.0479978  34.8340014 130.8501347  76.7506880  35.2419841
 116.7579992  94.7909978  34.1320014 116.0379992  95.2309978  33.6810014
 116.3929992  94.5399978  34.9800014 116.6099643  94.8173369  34.1849129
 119.2249992  94.3909978  33.1620014 118.3609992  94.4629978  33.5660014
 119.1699992  94.9379978  32.3780014 119.0991942  94.4747849  33.1114000
 123.9359992  94.2789978  32.3370014 123.4789992  94.8079978  31.6830014
 124.0989992  94.8819978  33.0620014 123.8954960  94.4329280  32.3455274
 126.2639992  93.1569978  33.2820014 125.3589992  93.3219978  33.0160014
 126.6919992  94.0099978  33.2160014 126.1981537  93.2949134  33.2367095
 128.8679992  94.7269978  33.5770014 128.6859992  95.6429978  33.3660014
 129.0449992  94.3159978  32.7300014 128.8670030  94.7968273  33.4337166
 116.1729992  93.4139978  31.0420014 116.1549992  92.9879978  31.8990014
 116.9779992  93.0949978  30.6330014 116.2792875  93.3126435  31.1039515
 118.3139992  92.1239978  29.6970014 118.0949992  91.2069978  29.8670014
 119.1379992  92.2639978  30.1630014 118.3954702  92.0175511  29.7832527
 120.8509992  92.5939978  30.5460014 121.0639992  91.7059978  30.2590014
 120.9159992  92.5589978  31.5000014 120.8889149  92.4678326  30.6357369
 124.3599992  78.2579978  29.6900014 123.6859992  77.6279978  29.9460014
 124.9239992  77.7739978  29.0870014 124.3440384  78.1063708  29.6435020
 129.5029992  76.3649978  29.8030014 130.1059992  76.9129978  29.3010014
 128.6329992  76.6839978  29.5620014 129.4679157  76.4830373  29.7017910
 131.2299992  77.5039978  28.1360014 131.8409992  76.9899978  27.6090014
 131.6119992  78.3809978  28.1590014 131.3653305  77.5522050  28.0669418
 116.6869992  76.8919978  27.5120014 115.9099992  76.6569978  27.0050014
 117.2169992  76.0949978  27.5210014 116.6523451  76.7521268  27.4438627
 115.5229992  76.6899978  23.3160014 115.9619992  77.3009978  22.7240014
 114.8889992  77.2279978  23.7900014 115.4973859  76.8464064  23.2990305
 121.2659992  76.8179978  27.3250014 122.1399992  77.2069978  27.2960014
 121.1299992  76.6029978  28.2480014 121.3671953  76.8421643  27.4457617
 126.8229992  76.8479978  28.9750014 126.8989992  76.9439978  28.0250014
 126.5479992  75.9409978  29.1030014 126.7961871  76.7384146  28.8623944
 128.1759992  76.8739978  24.6670014 127.4729992  77.4889978  24.4570014
 127.7309992  76.0369978  24.7980014 128.0196550  76.8449668  24.6559837
 115.4239992  92.6379978  24.2130014 114.7389992  92.5999978  23.5460014
 115.4279992  93.5509978  24.5010014 115.3307621  92.7561924  24.1606126
 117.3839992  78.6059978  21.7580014 117.8749992  77.9759978  21.2310014
 118.0069992  78.9019978  22.4210014 117.5355304  78.5597376  21.7754940
 122.4099992  78.8989978  24.2150014 122.5879992  78.2519978  24.8980014
 122.3559992  79.7329978  24.6820014 122.4270678  78.9231604  24.3716301
 124.2879992  93.8469978  22.6110014 125.1539992  94.2139978  22.4330014
 124.0419992  93.4079978  21.7970014 124.3732097  93.8378525  22.4766019
 130.9969992  93.4099978  25.2900014 130.8029992  92.6619978  24.7250014
 130.9579992  94.1679978  24.7070014 130.9651645  93.4100786  25.1338148
 116.6439992  77.4059978  37.0300014 116.2779992  76.6399978  37.4720014
 117.5569992  77.4349978  37.3160014 116.7173172  77.3050324  37.1291890
 118.6169992  76.7559978  38.5650014 119.5159992  76.4819978  38.3810014
 118.2309992  76.0139978  39.0300014 118.6877307  76.6182196  38.6027098
 117.2419992  93.5579978  21.2380014 116.9739992  93.8439978  22.1120014
 118.0129992  93.0119978  21.3910014 117.3095926  93.5232779  21.3781205
 127.0389992  76.0889978  38.7480014 127.1149992  75.6629978  39.6010014
 127.9319992  76.1019978  38.4050014 127.1702303  76.0323493  38.8185497
 130.2149992  92.1619978  37.4400014 129.4329992  91.9749978  36.9200014
 130.1429992  93.0909978  37.6570014 130.0981924  92.2620637  37.3981602
 144.6209992  86.0479978  27.4710014 144.7099992  86.9919978  27.3390014
 143.9829992  85.7729978  26.8130014 144.5469062  86.1399812  27.3639641
 143.5539992  85.3029978  30.8900014 143.5159992  84.6569978  31.5950014
 143.2319992  84.8359978  30.1190014 143.5052679  85.1514276  30.8822921
 135.9219992  84.9169978  32.4830014 135.9639992  84.2919978  33.2060014
 136.6249992  85.5409978  32.6650014 136.0227345  84.9157873  32.6065273
 136.8459992  89.3669978  31.0180014 136.4759992  88.5649978  30.6480014
 137.7869992  89.1989978  31.0640014 136.9225984  89.2344638  30.9735603
 133.4559992  83.0269978  26.4100014 133.0079992  83.8729978  26.3920014
 132.8949992  82.4479978  25.8950014 133.3188546  83.0643993  26.3378891
 134.1659992  85.1889978  28.5360014 134.3799992  84.4189978  29.0640014
 134.9039992  85.2789978  27.9330014 134.2950200  85.0958586  28.5267035
 144.3719992  93.3459978  29.4030014 144.9909992  92.6699978  29.1300014
 144.1629992  93.1279978  30.3120014 144.4286056  93.2238869  29.4883967
 141.9429992  87.7349978  31.2960014 142.2469992  87.0489978  30.7010014
 142.6649992  87.8539978  31.9140014 142.0821240  87.6572314  31.2980959
 145.0839992  82.1289978  31.6230014 145.2269992  81.1829978  31.6430014
 144.9779992  82.3359978  30.6950014 145.0892403  82.0274797  31.5002239
 138.2389992  80.2309978  28.8960014 138.2819992  81.0909978  28.4770014
 137.7809992  79.6789978  28.2620014 138.1829871  80.2739245  28.7530761
 134.8589992  82.6279978  29.6580014 135.5129992  82.0779978  30.0900014
 134.8829992  82.3539978  28.7410014 134.9517199  82.5157167  29.5931668
 140.0159992  84.1779978  28.8730014 140.6319992  83.6509978  29.3820014
 139.4289992  83.5379978  28.4690014 140.0210154  84.0193954  28.8880945
 137.0489992  79.1489978  32.9700014 136.8299992  79.6789978  32.2030014
 136.3809992  79.3749978  33.6170014 136.9286975  79.2520967  32.9525140
 144.4179992  88.6489978  26.5140014 144.1229992  88.3259978  25.6620014
 144.0939992  89.5489978  26.5550014 144.3338460  88.7264464  26.4029714
 139.6179992  86.8239978  33.2570014 138.8779992  87.4229978  33.3610014
 140.3319992  87.3779978  32.9420014 139.6133500  86.9807829  33.2286371
 136.6429992  81.0409978  30.9220014 137.2569992  81.6739978  31.2950014
 137.1549992  80.5689978  30.2660014 136.7961962  81.0637249  30.8842935
 138.0259992  88.7889978  34.0440014 138.0199992  89.6679978  33.6660014
 137.1719992  88.7049978  34.4690014 137.9097925  88.8979535  34.0496887
 134.1469992  88.4599978  24.8260014 133.8749992  88.6889978  23.9380014
 134.1919992  89.2969978  25.2870014 134.1158097  88.6046163  24.7666683
 141.0759992  76.4539978  30.4220014 140.9579992  75.5059978  30.3680014
 140.2209992  76.7869978  30.6950014 140.9442805  76.3692202  30.4515079
 143.3419992  85.2919978  24.9230014 142.6309992  85.8269978  24.5710014
 144.0329992  85.3469978  24.2630014 143.3380751  85.3726777  24.7855858
 143.3959992  83.7489978  21.9610014 144.0969992  83.7719978  22.6130014
 143.6979992  83.1209978  21.3050014 143.5328202  83.6672212  21.9615609
 138.3929992  86.1319978  27.7570014 138.0629992  85.7609978  26.9390014
 138.9819992  85.4609978  28.1040014 138.4273970  85.9906063  27.6919404
 139.7599992  89.5599978  30.4380014 139.6649992  88.9809978  29.6820014
 140.4889992  89.1889978  30.9340014 139.8456011  89.4305561  30.4016028
 138.7599992  84.8999978  31.3900014 139.3249992  85.0219978  30.6280014
 139.0789992  85.5379978  32.0290014 138.8804166  85.0028791  31.3720348
 145.0689992  90.4039978  32.1240014 144.8289992  91.0659978  32.7720014
 144.8709992  89.5689978  32.5490014 145.0093826  90.3818115  32.2701566
 139.6399992  89.2999978  36.1080014 139.3289992  90.0819978  36.5630014
 138.9899992  89.1469978  35.4220014 139.5095538  89.3864087  36.0775898
 136.5599992  85.4979978  35.3360014 136.6299992  86.1489978  36.0350014
 135.6689992  85.6009978  35.0010014 136.4491690  85.6009249  35.3863043
 143.3449992  91.3999978  26.9950014 143.8189992  91.6959978  27.7720014
 142.7819992  92.1389978  26.7620014 143.3337890  91.5403036  27.0698101
 137.8789992  91.3709978  36.8710014 137.8869992  91.2349978  35.9240014
 136.9629992  91.2539978  37.1230014 137.7562528  91.3365463  36.7753243
 137.3839992  85.2009978  25.3460014 137.0919992  85.9689978  24.8550014
 136.7089992  84.5419978  25.1830014 137.2528497  85.2169745  25.2568260
 133.4769992  87.5639978  34.1610014 132.9749992  87.5359978  33.3460014
 133.4819992  86.6589978  34.4710014 133.4089832  87.4377486  34.0914121
 133.2269992  90.3449978  31.0450014 134.1729992  90.1999978  31.0260014
 133.1139992  91.1289978  31.5820014 133.3413578  90.4311697  31.1150317
 142.4029992  90.5849978  35.6040014 142.4909992  91.4109978  36.0790014
 141.5399992  90.2549978  35.8530014 142.2983357  90.6535468  35.7027653
 142.8179992  94.3569978  25.4100014 142.7419992  94.2359978  24.4630014
 142.8499992  95.3059978  25.5280014 142.8119380  94.4687677  25.2965181
 136.4709992  93.1459978  27.1910014 136.6229992  92.7979978  28.0690014
 135.6199992  92.7889978  26.9350014 136.3768344  93.0500879  27.2766868
 135.7259992  88.8879978  35.2040014 135.9419992  88.5259978  36.0640014
 134.8699992  88.5129978  34.9950014 135.6398810  88.7878837  35.2932680
 138.3439992  77.3579978  31.2000014 137.4829992  77.2709978  30.7920014
 138.3219992  78.2139978  31.6280014 138.2230491  77.4618003  31.2019582
 143.0069992  77.0799978  34.5750014 143.4269992  76.6649978  35.3280014
 142.0739992  76.9009978  34.6920014 142.9383736  76.9989910  34.6938968
 142.6689992  79.5719978  21.8600014 142.4149992  79.5909978  22.7820014
 142.4119992  78.7009978  21.5580014 142.5994508  79.4568280  21.9454803
 138.4349992  82.3229978  32.2950014 137.7939992  82.2829978  33.0040014
 138.4729992  83.2499978  32.0570014 138.3523010  82.4427668  32.3599946
 138.4319992  82.5439978  27.2070014 137.5399992  82.2039978  27.1480014
 138.8829992  82.1669978  26.4510014 138.3707642  82.4464910  27.0967726
 143.9679992  82.9599978  26.0240014 143.5589992  83.7749978  25.7320014
 144.6879992  82.8199978  25.4100014 144.0094439  83.0525372  25.9010115
 143.0699992  83.1359978  37.5120014 142.5069992  82.4309978  37.8330014
 143.8959992  83.0149978  37.9800014 143.1046674  83.0232165  37.6191751
 144.9729992  82.4059978  28.8380014 144.7769992  83.0119978  28.1230014
 145.1539992  81.5729978  28.4040014 144.9706584  82.3762513  28.6814212
 136.1849992  82.6439978  34.1620014 136.1469992  83.0439978  35.0310014
 135.6949992  81.8269978  34.2520014 136.1135330  82.5882674  34.2931289
 139.5509992  80.0179978  20.9610014 139.1199992  79.5729978  21.6900014
 138.8329992  80.3889978  20.4480014 139.3949176  80.0072051  20.9914930
 132.7939992  79.7599978  28.0130014 133.4239992  79.7309978  28.7320014
 133.2429992  79.3349978  27.2820014 132.9410835  79.6985660  28.0127659
 134.0679992  80.5059978  23.4370014 134.5419992  81.0969978  22.8520014
 133.3499992  81.0359978  23.7840014 134.0358640  80.6585511  23.4037969
 144.2369992  84.0439978  33.5090014 144.5599992  83.4129978  32.8660014
 143.7959992  83.5099978  34.1700014 144.2216379  83.8853468  33.5102582
 141.0139992  79.9719978  28.2930014 140.1029992  80.0289978  28.5820014
 141.5189992  79.9119978  29.1040014 140.9576873  79.9716826  28.4421207
 135.8419992  81.6009978  27.1200014 134.9529992  81.6999978  26.7800014
 136.1389992  80.7589978  26.7740014 135.7604177  81.5007687  27.0266940
 139.4949992  81.6009978  24.7770014 140.4269992  81.7299978  24.9550014
 139.2799992  82.2699978  24.1270014 139.5934472  81.7090806  24.7134891
 145.4189992  79.2069978  31.5580014 144.7419992  79.3379978  32.2210014
 144.9339992  79.0519978  30.7470014 145.2607405  79.2039947  31.5392170
 138.1689992  82.7949978  22.3430014 137.6269992  82.4159978  21.6520014
 139.0029992  82.9899978  21.9150014 138.2074390  82.7694079  22.1904392
 136.3049992  87.3519978  37.4420014 137.0369992  87.6069978  38.0040014
 135.5239992  87.5569978  37.9580014 136.2996526  87.4145450  37.5885176
 142.3339992  82.7589978  30.1800014 142.8979992  82.2129978  29.6330014
 142.1859992  82.2379978  30.9690014 142.3913037  82.6136787  30.2117229
 137.3359992  78.8959978  26.5990014 137.0189992  77.9929978  26.5630014
 138.1169992  78.8979978  26.0460014 137.3982431  78.7727797  26.5193102
 140.9599992  81.1479978  32.5940014 140.1249992  81.6019978  32.7050014
 141.4839992  81.4239978  33.3460014 140.9166072  81.2473948  32.7108136
 141.5049992  87.3609978  24.2790014 140.7599992  86.8529978  23.9570014
 141.3699992  87.4099978  25.2250014 141.3848963  87.2981731  24.3628826
 145.4019992  80.1749978  22.4780014 144.4639992  80.2859978  22.3270014
 145.6999992  81.0309978  22.7850014 145.3136318  80.3060158  22.4988145
 143.0239992  87.5449978  35.5160014 142.6779992  87.1629978  36.3230014
 142.8239992  88.4779978  35.5870014 142.9495987  87.6189002  35.6360461
 136.6289992  86.6559978  30.0490014 137.3739992  86.6529978  29.4470014
 136.7069992  85.8319978  30.5300014 136.7413365  86.5442384  30.0317430
 143.6299992  88.8189978  23.3040014 143.3349992  89.6459978  23.6860014
 142.9269992  88.1999978  23.5010014 143.4946379  88.8484171  23.3828654
 133.6369992  85.1159978  35.3640014 133.8599992  84.6979978  36.1950014
 133.0349992  84.5039978  34.9410014 133.5861513  84.9759606  35.4206740
 140.6539992  84.6329978  37.5770014 140.3579992  84.4679978  36.6810014
 141.5849992  84.4129978  37.5660014 140.7394401  84.5806879  37.4530206
 145.2739992  90.0069978  35.4660014 144.3739992  90.1899978  35.1990014
 145.3079992  90.2659978  36.3870014 145.1553748  90.0670554  35.5539164
 139.0039992  90.1739978  27.4530014 139.5319992  90.9469978  27.2530014
 138.1239992  90.3979978  27.1510014 138.9573435  90.3102700  27.3847310
 134.7589992  85.0359978  22.0400014 135.3749992  85.6629978  22.4200014
 133.8969992  85.3519978  22.3120014 134.7267678  85.1644412  22.1287209
 140.4319992  87.8369978  27.0290014 140.1909992  88.7619978  27.0710014
 139.6909992  87.3779978  27.4260014 140.2989206  87.9015915  27.0883769
 140.9459992  91.9859978  33.3440014 141.3089992  92.8399978  33.1110014
 141.4779992  91.6939978  34.0850014 141.0675141  92.0633895  33.4122097
 139.1149992  92.8579978  26.5750014 138.1649992  92.9639978  26.6260014
 139.4669992  93.6789978  26.9190014 139.0325472  92.9834923  26.6284852
 144.4899992  88.0849978  33.0450014 144.0649992  87.8569978  33.8710014
 145.0709992  87.3459978  32.8630014 144.5103395  87.9539545  33.1334414
 135.2709992  79.8699978  34.9220014 134.3789992  80.2079978  34.8540014
 135.1729992  79.0139978  35.3400014 135.1354475  79.8006543  34.9691704
 134.9229992  91.6739978  33.3570014 135.1399992  90.7419978  33.3260014
 135.1689992  91.9489978  34.2400014 134.9859809  91.5835686  33.4721691
 140.7839992  90.1259978  20.5660014 141.0229992  89.3769978  20.0190014
 140.5149992  89.7379978  21.3990014 140.7803233  89.9711853  20.6037809
 139.7209992  89.6959978  23.0220014 139.8679992  89.1759978  23.8120014
 139.7179992  90.6029978  23.3290014 139.7407102  89.7473953  23.1715925
 136.1739992  86.9479978  23.5330014 135.4879992  87.3009978  24.1000014
 136.6969992  87.7109978  23.2860014 136.1508402  87.0993901  23.5771801
 144.0059992  79.6109978  33.8120014 144.7049992  79.6849978  34.4620014
 143.6249992  78.7459978  33.9660014 144.0502097  79.5042389  33.9217997
 144.7899992  79.2629978  24.9090014 145.0099992  79.7339978  24.1050014
 145.3489992  79.6569978  25.5790014 144.8956731  79.3807287  24.8895033
 142.4589992  91.3929978  23.7720014 141.6419992  91.8899978  23.8240014
 142.9879992  91.8689978  23.1310014 142.4188125  91.5251989  23.6925306
 141.9899992  80.9909978  25.7440014 142.8019992  81.4949978  25.7900014
 141.7459992  80.8459978  26.6580014 142.0681467  81.0403749  25.8738575
 142.5259992  81.9769978  34.9280014 142.6449992  82.5509978  35.6850014
 143.1809992  81.2889978  35.0430014 142.6308684  81.9625194  35.0471674
 142.8739992  78.0719978  26.6820014 142.5269992  78.6889978  27.3260014
 143.5329992  78.5729978  26.2000014 142.9155090  78.2241575  26.7050681
 139.7969992  92.4369978  23.7530014 139.9579992  93.2369978  23.2530014
 139.5999992  92.7439978  24.6380014 139.7923906  92.5878678  23.8042333
 138.5319992  79.1349978  23.3690014 138.4479992  80.0229978  23.7160014
 139.4219992  78.8699978  23.6010014 138.6408163  79.2207179  23.4478596
 136.7899992  89.5619978  22.4290014 137.3819992  90.2619978  22.7060014
 137.2489992  89.1289978  21.7100014 136.9331652  89.5992675  22.3696533
 135.1059992  82.2269978  21.5450014 135.0609992  83.1659978  21.7240014
 134.2179992  81.9909978  21.2760014 134.9798166  82.3236687  21.5331524
 135.9139992  77.0079978  30.2190014 135.6849992  77.0669978  29.2910014
 135.4719992  76.2169978  30.5250014 135.8228801  76.9090540  30.1334729
 134.8449992  90.9489978  26.3790014 134.0119992  91.4209978  26.4060014
 135.3899992  91.4589978  25.7800014 134.8047857  91.0824791  26.3017142
 134.1329992  93.5609978  37.7090014 134.6729992  93.3449978  38.4690014
 133.6519992  92.7559978  37.5190014 134.1419219  93.4225156  37.7874282
 138.7299992  92.4809978  39.3290014 139.4979992  92.0219978  39.6700014
 138.7089992  92.2549978  38.3990014 138.8322135  92.3876668  39.2499491
 142.8219992  91.9889978  20.7050014 142.1779992  91.3579978  21.0260014
 143.5839992  91.4579978  20.4730014 142.8368058  91.8307902  20.7176038
 145.3069992  90.8609978  38.0580014 144.9559992  90.0039978  38.3020014
 146.0329992  91.0029978  38.6650014 145.3571895  90.7631351  38.1733770
 134.0399992  87.3719978  38.6630014 134.1839992  86.4699978  38.3770014
 133.2679992  87.6579978  38.1760014 133.9552733  87.2871798  38.5579532
 138.3809992  87.7149978  20.7960014 138.4459992  86.9209978  21.3260014
 139.0339992  87.5969978  20.1060014 138.4781605  87.5903430  20.7752997
 140.6949992  87.3409978  38.0960014 140.3669992  87.6119978  37.2390014
 140.8469992  86.3999978  38.0080014 140.6706412  87.2509046  37.9667822
 143.7339992  88.7619978  20.5320014 143.4649992  88.9429978  21.4320014
 143.5269992  87.8369978  20.4000014 143.6691191  88.6617119  20.6375524
 134.8729992  84.5719978  38.0830014 135.2809992  83.7149978  37.9620014
 134.6119992  84.5859978  39.0040014 134.8936016  84.4565119  38.1909192
 139.5309992  85.6879978  23.1020014 139.0709992  85.2039978  23.7870014
 139.7859992  85.0189978  22.4660014 139.5024856  85.5313669  23.1098397
 138.8199992  83.5809978  35.4580014 138.2009992  84.2549978  35.7380014
 139.1639992  83.9019978  34.6240014 138.7817123  83.7166887  35.3836388
 140.6019992  83.9309978  21.3640014 140.4209992  83.7759978  20.4370014
 141.5519992  84.0389978  21.4090014 140.7056566  83.9243669  21.2430929
 143.8389992  86.0519978  38.7350014 144.7929992  86.1359978  38.7080014
 143.6789992  85.3399978  39.3550014 143.9477182  85.9672842  38.8150733
 139.1589992  80.9359978  36.5400014 139.3089992  80.2069978  35.9380014
 139.1609992  81.7129978  35.9810014 139.1797967  80.9412708  36.3820541
 139.5719992  79.3049978  34.0330014 140.1069992  79.7569978  33.3810014
 138.7189992  79.1969978  33.6100014 139.5300374  79.3522665  33.8866710
 141.1529992  84.7449978  34.2720014 141.9039992  84.5889978  33.6990014
 140.8139992  85.5969978  33.9970014 141.2099587  84.8388138  34.1564078
 145.5689992  82.5599978  39.3010014 145.7609992  81.6289978  39.1890014
 146.4269992  82.9849978  39.2900014 145.7112182  82.4900070  39.2841862
 137.6379992  82.1339978  38.4510014 136.8699992  81.6009978  38.2410014
 138.3159992  81.8239978  37.8520014 137.6247235  82.0191754  38.3412413
 140.3769992  76.7619978  34.4640014 140.2789992  77.7079978  34.3590014
 139.6349992  76.3889978  33.9880014 140.2632534  76.8411773  34.3852600
 141.6409992  81.0829978  38.0280014 141.4059992  80.8639978  38.9290014
 140.8579992  80.8759978  37.5180014 141.5029095  81.0249892  38.0825353
 144.3569992  80.2109978  37.1030014 143.4089992  80.2429978  37.2350014
 144.6689992  79.5849978  37.7570014 144.2695293  80.1307923  37.2094148
 135.8179992  80.0539978  38.1560014 136.0299992  79.3479978  37.5460014
 135.7069992  79.6169978  39.0000014 135.8320269  79.8981921  38.1865873
 140.5989992  76.0559978  37.1350014 141.3109992  75.4159978  37.1210014
 140.4979992  76.3219978  36.2220014 140.6827387  76.0044330  37.0095563
 140.9529992  77.7379978  39.1890014 140.8209992  77.2629978  38.3690014
 140.3529992  78.4829978  39.1340014 140.8539070  77.7735789  39.0693251
 140.4989992  94.6209978  22.3650014 141.4319992  94.7789978  22.5090014
 140.2349992  95.2969978  21.7400014 140.5909911  94.7339373  22.3002722
 134.0669992  89.2579978  21.8480014 134.9809992  89.3369978  22.1210014
 134.0749992  88.5709978  21.1820014 134.1930655  89.1759205  21.7952917
 132.7159992  94.6509978  26.9250014 132.0689992  94.1889978  26.3930014
 133.0709992  93.9789978  27.5080014 132.6753741  94.4969774  26.9309175
 133.5859992  92.7309978  28.7300014 133.2519992  91.8509978  28.9020014
 133.8089992  93.0769978  29.5950014 133.5703721  92.6571938  28.8704168
 133.6659992  85.8069978  31.1820014 133.8509992  85.7249978  30.2460014
 134.5159992  85.6829978  31.6050014 133.8060928  85.7790463  31.1112893
 133.2639992  81.0769978  37.3220014 134.1829992  80.9549978  37.5590014
 132.8139992  80.3269978  37.7120014 133.3290087  80.9589608  37.4071410
 134.4849992  79.3899978  30.2140014 134.9299992  78.5979978  30.5160014
 134.9509992  80.1059978  30.6440014 134.6089718  79.3784534  30.3135265
 132.7889992  82.3889978  31.2830014 133.2809992  82.1679978  30.4920014
 133.1509992  83.2289978  31.5640014 132.9052923  82.4723468  31.2127407
 133.1029992  78.6469978  25.3370014 132.1779992  78.8549978  25.2080014
 133.5569992  79.1309978  24.6470014 133.0376298  78.7409299  25.2260451
 133.0659992  77.3849978  33.6810014 132.4009992  77.1389978  34.3240014
 132.6229992  78.0069978  33.1040014 132.9151168  77.4354214  33.6909848
 135.2579992  90.5599978  37.8260014 134.4369992  90.7349978  37.3650014
 135.0059992  90.4869978  38.7460014 135.1115594  90.5740717  37.8873611
 138.2119992  91.5339978  34.0840014 137.7879992  92.3439978  33.8020014
 139.1169992  91.6199978  33.7820014 138.2762138  91.6564160  34.0046415
 142.5239992  92.9329978  37.0440014 142.7079992  92.5999978  37.9220014
 143.3699992  93.2429978  36.7220014 142.6636484  92.9292979  37.1207617
 144.8689992  94.2189978  36.2880014 145.5459992  93.5859978  36.0480014
 145.1899992  94.6199978  37.0950014 145.0051323  94.1865691  36.3643158
 135.6139992  94.7909978  34.1320014 134.8939992  95.2309978  33.6810014
 135.2489992  94.5399978  34.9800014 135.4659643  94.8173369  34.1849129
 138.0809992  94.3909978  33.1620014 137.2169992  94.4629978  33.5660014
 138.0259992  94.9379978  32.3780014 137.9551942  94.4747849  33.1114000
 142.7919992  94.2789978  32.3370014 142.3349992  94.8079978  31.6830014
 142.9549992  94.8819978  33.0620014 142.7514960  94.4329280  32.3455274
 145.1199992  93.1569978  33.2820014 144.2149992  93.3219978  33.0160014
 145.5479992  94.0099978  33.2160014 145.0541537  93.2949134  33.2367095
 135.0289992  93.4139978  31.0420014 135.0109992  92.9879978  31.8990014
 135.8339992  93.0949978  30.6330014 135.1352875  93.3126435  31.1039515
 137.1699992  92.1239978  29.6970014 136.9509992  91.2069978  29.8670014
 137.9939992  92.2639978  30.1630014 137.2514702  92.0175511  29.7832527
 139.7069992  92.5939978  30.5460014 139.9199992  91.7059978  30.2590014
 139.7719992  92.5589978  31.5000014 139.7449149  92.4678326  30.6357369
 143.2159992  78.2579978  29.6900014 142.5419992  77.6279978  29.9460014
 143.7799992  77.7739978  29.0870014 143.2000384  78.1063708  29.6435020
 135.5429992  76.8919978  27.5120014 134.7659992  76.6569978  27.0050014
 136.0729992  76.0949978  27.5210014 135.5083451  76.7521268  27.4438627
 134.3789992  76.6899978  23.3160014 134.8179992  77.3009978  22.7240014
 133.7449992  77.2279978  23.7900014 134.3533859  76.8464064  23.2990305
 140.1219992  76.8179978  27.3250014 140.9959992  77.2069978  27.2960014
 139.9859992  76.6029978  28.2480014 140.2231953  76.8421643  27.4457617
 134.2799992  92.6379978  24.2130014 133.5949992  92.5999978  23.5460014
 134.2839992  93.5509978  24.5010014 134.1867621  92.7561924  24.1606126
 136.2399992  78.6059978  21.7580014 136.7309992  77.9759978  21.2310014
 136.8629992  78.9019978  22.4210014 136.3915304  78.5597376  21.7754940
 141.2659992  78.8989978  24.2150014 141.4439992  78.2519978  24.8980014
 141.2119992  79.7329978  24.6820014 141.2830678  78.9231604  24.3716301
 143.1439992  93.8469978  22.6110014 144.0099992  94.2139978  22.4330014
 142.8979992  93.4079978  21.7970014 143.2292097  93.8378525  22.4766019
 135.4999992  77.4059978  37.0300014 135.1339992  76.6399978  37.4720014
 136.4129992  77.4349978  37.3160014 135.5733172  77.3050324  37.1291890
 137.4729992  76.7559978  38.5650014 138.3719992  76.4819978  38.3810014
 137.0869992  76.0139978  39.0300014 137.5437307  76.6182196  38.6027098
 136.0979992  93.5579978  21.2380014 135.8299992  93.8439978  22.1120014
 136.8689992  93.0119978  21.3910014 136.1655926  93.5232779  21.3781205
  12.6289992 104.9039978  27.4710014  12.7179992 105.8479978  27.3390014
  11.9909992 104.6289978  26.8130014  12.5549061 104.9959812  27.3639641
  11.5619992 104.1589978  30.8900014  11.5239992 103.5129978  31.5950014
  11.2399992 103.6919978  30.1190014  11.5132679 104.0074276  30.8822921
   3.9299992 103.7729978  32.4830014   3.9719992 103.1479978  33.2060014
   4.6329992 104.3969978  32.6650014   4.0307345 103.7717873  32.6065273
  15.2679992 107.0979978  29.1910014  14.8269992 106.3779978  29.6420014
  15.2549992 107.8189978  29.8210014  15.2059215 107.0969291  29.3378105
   4.8539992 108.2229978  31.0180014   4.4839992 107.4209978  30.6480014
   5.7949992 108.0549978  31.0640014   4.9305984 108.0904638  30.9735603
   1.4639992 101.8829978  26.4100014   1.0159992 102.7289978  26.3920014
   0.9029992 101.3039978  25.8950014   1.3268546 101.9203993  26.3378891
   2.1739992 104.0449978  28.5360014   2.3879992 103.2749978  29.0640014
   2.9119992 104.1349978  27.9330014   2.3030200 103.9518586  28.5267035
  12.3799992 112.2019978  29.4030014  12.9989992 111.5259978  29.1300014
  12.1709992 111.9839978  30.3120014  12.4366056 112.0798869  29.4883967
   9.9509992 106.5909978  31.2960014  10.2549992 105.9049978  30.7010014
  10.6729992 106.7099978  31.9140014  10.0901240 106.5132314  31.2980959
  18.6139992  98.1929978  32.1560014  18.6639992  98.8029978  32.8920014
  19.0399992  98.6539978  31.4330014  18.6784108  98.3387709  32.1590112
  13.0919992 100.9849978  31.6230014  13.2349992 100.0389978  31.6430014
  12.9859992 101.1919978  30.6950014  13.0972403 100.8834797  31.5002239
   6.2469992  99.0869978  28.8960014   6.2899992  99.9469978  28.4770014
   5.7889992  98.5349978  28.2620014   6.1909871  99.1299245  28.7530761
  13.9689992  99.2179978  27.2970014  14.6159992  98.8889978  27.9210014
  14.4789992  99.7349978  26.6740014  14.1264351  99.2429067  27.2981037
   2.8669992 101.4839978  29.6580014   3.5209992 100.9339978  30.0900014
   2.8909992 101.2099978  28.7410014   2.9597199 101.3717167  29.5931668
   8.0239992 103.0339978  28.8730014   8.6399992 102.5069978  29.3820014
   7.4369992 102.3939978  28.4690014   8.0290154 102.8753954  28.8880945
  19.0059992  99.6709978  34.3920014  18.3169992 100.3289978  34.2970014
  19.0209992  99.4729978  35.3290014  18.9137756  99.7342603  34.5055812
   5.0569992  98.0049978  32.9700014   4.8379992  98.5349978  32.2030014
   4.3889992  98.2309978  33.6170014   4.9366975  98.1080967  32.9525140
  12.4259992 107.5049978  26.5140014  12.1309992 107.1819978  25.6620014
  12.1019992 108.4049978  26.5550014  12.3418460 107.5824464  26.4029714
   7.6259992 105.6799978  33.2570014   6.8859992 106.2789978  33.3610014
   8.3399992 106.2339978  32.9420014   7.6213500 105.8367829  33.2286371
  15.7329992  98.5089978  29.2770014  15.5179992  97.7429978  29.8100014
  16.3889992  98.9809978  29.7900014  15.7922673  98.4680728  29.4191990
   4.6509992  99.8969978  30.9220014   5.2649992 100.5299978  31.2950014
   5.1629992  99.4249978  30.2660014   4.8041962  99.9197249  30.8842935
   6.0339992 107.6449978  34.0440014   6.0279992 108.5239978  33.6660014
   5.1799992 107.5609978  34.4690014   5.9177925 107.7539535  34.0496887
   2.1549992 107.3159978  24.8260014   1.8829992 107.5449978  23.9380014
   2.1999992 108.1529978  25.2870014   2.1238097 107.4606163  24.7666683
  15.7799992 108.9369978  31.5390014  14.8379992 108.9959978  31.7010014
  16.0559992 109.8429978  31.4020014  15.6885865 109.0675288  31.5426192
  16.0799992  97.2239978  32.9560014  15.3439992  97.8339978  32.9190014
  16.7639992  97.6389978  32.4300014  16.0715367  97.3637551  32.8798174
   9.0839992  95.3099978  30.4220014   8.9659992  94.3619978  30.3680014
   8.2289992  95.6429978  30.6950014   8.9522805  95.2252202  30.4515079
  14.0319992 110.7179978  28.1640014  14.4569992 110.0109978  27.6790014
  14.3489992 111.5199978  27.7470014  14.1330266 110.7295190  28.0412479
  15.1919992 108.6189978  26.6730014  14.9339992 107.9289978  26.0610014
  15.2629992 108.1759978  27.5180014  15.1663050 108.4646814  26.7035621
  16.8779992 107.1859978  35.1500014  17.0169992 106.5939978  34.4110014
  17.0449992 108.0589978  34.7940014  16.9196193 107.2228896  35.0006211
  11.3499992 104.1479978  24.9230014  10.6389992 104.6829978  24.5710014
  12.0409992 104.2029978  24.2630014  11.3460751 104.2286777  24.7855858
  11.4039992 102.6049978  21.9610014  12.1049992 102.6279978  22.6130014
  11.7059992 101.9769978  21.3050014  11.5408202 102.5232212  21.9615609
  18.7189992 103.5259978  33.2160014  18.0669992 104.2199978  33.3050014
  19.1849992 103.7359978  32.4060014  18.6925937 103.6495019  33.1187533
  14.7559992 104.3569978  25.8740014  14.0239992 104.5859978  26.4480014
  15.2029992 103.6439978  26.3290014  14.7163963 104.2918729  26.0139945
  14.6529992 102.5319978  34.9420014  14.7329992 103.2949978  35.5140014
  14.0519992 102.8109978  34.2520014  14.5826547 102.6742457  34.9270047
   6.4009992 104.9879978  27.7570014   6.0709992 104.6169978  26.9390014
   6.9899992 104.3169978  28.1040014   6.4353970 104.8466063  27.6919404
   7.7679992 108.4159978  30.4380014   7.6729992 107.8369978  29.6820014
   8.4969992 108.0449978  30.9340014   7.8536011 108.2865561  30.4016028
   6.7679992 103.7559978  31.3900014   7.3329992 103.8779978  30.6280014
   7.0869992 104.3939978  32.0290014   6.8884166 103.8588791  31.3720348
  13.0769992 109.2599978  32.1240014  12.8369992 109.9219978  32.7720014
  12.8789992 108.4249978  32.5490014  13.0173826 109.2378115  32.2701566
   7.6479992 108.1559978  36.1080014   7.3369992 108.9379978  36.5630014
   6.9979992 108.0029978  35.4220014   7.5175538 108.2424087  36.0775898
  13.6269992 103.5199978  23.5600014  14.2059992 103.6699978  24.3060014
  14.0409992 103.9899978  22.8360014  13.7623358 103.6040955  23.5643953
   4.5679992 104.3539978  35.3360014   4.6379992 105.0049978  36.0350014
   3.6769992 104.4569978  35.0010014   4.4571690 104.4569249  35.3863043
  11.3529992 110.2559978  26.9950014  11.8269992 110.5519978  27.7720014
  10.7899992 110.9949978  26.7620014  11.3417890 110.3963036  27.0698101
   5.8869992 110.2269978  36.8710014   5.8949992 110.0909978  35.9240014
   4.9709992 110.1099978  37.1230014   5.7642528 110.1925463  36.7753243
  17.3259992  95.2699978  23.3730014  16.4259992  95.4089978  23.6680014
  17.5779992  96.1009978  22.9710014  17.2368683  95.4014055  23.3590232
   5.3919992 104.0569978  25.3460014   5.0999992 104.8249978  24.8550014
   4.7169992 103.3979978  25.1830014   5.2608497 104.0729745  25.2568260
  18.5149992 109.6359978  21.7490014  18.5879992 110.5749978  21.9190014
  19.4199992 109.3309978  21.6930014  18.6474170 109.7233282  21.7647063
   1.4849992 106.4199978  34.1610014   0.9829992 106.3919978  33.3460014
   1.4899992 105.5149978  34.4710014   1.4169832 106.2937486  34.0914121
   1.2349992 109.2009978  31.0450014   2.1809992 109.0559978  31.0260014
   1.1219992 109.9849978  31.5820014   1.3493578 109.2871697  31.1150317
  19.4329992 109.8669978  36.7280014  19.3829992 108.9109978  36.6900014
  18.6059992 110.1339978  37.1290014  19.3143831 109.7724680  36.7770121
  10.4109992 109.4409978  35.6040014  10.4989992 110.2669978  36.0790014
   9.5479992 109.1109978  35.8530014  10.3063357 109.5095468  35.7027653
  10.8259992 113.2129978  25.4100014  10.7499992 113.0919978  24.4630014
  10.8579992 114.1619978  25.5280014  10.8199380 113.3247677  25.2965181
   4.4789992 112.0019978  27.1910014   4.6309992 111.6539978  28.0690014
   3.6279992 111.6449978  26.9350014   4.3848344 111.9060879  27.2766868
  13.9269992 112.3669978  22.4120014  14.3019992 111.6229978  21.9410014
  13.9319992 112.0969978  23.3300014  13.9790098 112.2286392  22.4716629
  13.5959992 112.2929978  25.1610014  12.6609992 112.3929978  25.3400014
  13.8759992 111.5829978  25.7400014  13.5059471 112.2107933  25.2636695
  16.5849992 101.3599978  37.2080014  16.1769992 101.8399978  36.4870014
  16.6249992 100.4539978  36.9000014  16.5346221 101.3032449  37.0678267
   3.7339992 107.7439978  35.2040014   3.9499992 107.3819978  36.0640014
   2.8779992 107.3689978  34.9950014   3.6478810 107.6438837  35.2932680
   6.3519992  96.2139978  31.2000014   5.4909992  96.1269978  30.7920014
   6.3299992  97.0699978  31.6280014   6.2310491  96.3178003  31.2019582
  11.0149992  95.9359978  34.5750014  11.4349992  95.5209978  35.3280014
  10.0819992  95.7569978  34.6920014  10.9463736  95.8549910  34.6938968
  14.3419992  99.6909978  35.4280014  13.8279992  99.5659978  36.2260014
  14.1859992 100.6039978  35.1840014  14.2506967  99.7972123  35.5040937
  15.1039992 104.5519978  21.1890014  15.1459992 104.3299978  20.2590014
  15.9529992 104.9509978  21.3790014  15.2245253 104.5755498  21.0873822
  10.6769992  98.4279978  21.8600014  10.4229992  98.4469978  22.7820014
  10.4199992  97.5569978  21.5580014  10.6074508  98.3128280  21.9454803
   6.4429992 101.1789978  32.2950014   5.8019992 101.1389978  33.0040014
   6.4809992 102.1059978  32.0570014   6.3603010 101.2987668  32.3599946
   6.4399992 101.3999978  27.2070014   5.5479992 101.0599978  27.1480014
   6.8909992 101.0229978  26.4510014   6.3787642 101.3024910  27.0967726
  11.9759992 101.8159978  26.0240014  11.5669992 102.6309978  25.7320014
  12.6959992 101.6759978  25.4100014  12.0174439 101.9085372  25.9010115
  11.0779992 101.9919978  37.5120014  10.5149992 101.2869978  37.8330014
  11.9039992 101.8709978  37.9800014  11.1126674 101.8792165  37.6191751
  12.9809992 101.2619978  28.8380014  12.7849992 101.8679978  28.1230014
  13.1619992 100.4289978  28.4040014  12.9786584 101.2322513  28.6814212
   4.1929992 101.4999978  34.1620014   4.1549992 101.8999978  35.0310014
   3.7029992 100.6829978  34.2520014   4.1215330 101.4442674  34.2931289
   7.5589992  98.8739978  20.9610014   7.1279992  98.4289978  21.6900014
   6.8409992  99.2449978  20.4480014   7.4029176  98.8632051  20.9914930
   0.8019992  98.6159978  28.0130014   1.4319992  98.5869978  28.7320014
   1.2509992  98.1909978  27.2820014   0.9490835  98.5545660  28.0127659
   2.0759992  99.3619978  23.4370014   2.5499992  99.9529978  22.8520014
   1.3579992  99.8919978  23.7840014   2.0438640  99.5145511  23.4037969
  12.2449992 102.8999978  33.5090014  12.5679992 102.2689978  32.8660014
  11.8039992 102.3659978  34.1700014  12.2296379 102.7413468  33.5102582
   9.0219992  98.8279978  28.2930014   8.1109992  98.8849978  28.5820014
   9.5269992  98.7679978  29.1040014   8.9656873  98.8276826  28.4421207
   3.8499992 100.4569978  27.1200014   2.9609992 100.5559978  26.7800014
   4.1469992  99.6149978  26.7740014   3.7684177 100.3567687  27.0266940
   7.5029992 100.4569978  24.7770014   8.4349992 100.5859978  24.9550014
   7.2879992 101.1259978  24.1270014   7.6014472 100.5650806  24.7134891
  13.4269992  98.0629978  31.5580014  12.7499992  98.1939978  32.2210014
  12.9419992  97.9079978  30.7470014  13.2687405  98.0599947  31.5392170
   6.1769992 101.6509978  22.3430014   5.6349992 101.2719978  21.6520014
   7.0109992 101.8459978  21.9150014   6.2154390 101.6254079  22.1904392
  16.7149992 113.7339978  37.8340014  16.9139992 114.1579978  37.0000014
  17.3699992 114.0779978  38.4410014  16.8308522 113.8386301  37.8017852
   4.3129992 106.2079978  37.4420014   5.0449992 106.4629978  38.0040014
   3.5319992 106.4129978  37.9580014   4.3076526 106.2705450  37.5885176
  10.3419992 101.6149978  30.1800014  10.9059992 101.0689978  29.6330014
  10.1939992 101.0939978  30.9690014  10.3993037 101.4696787  30.2117229
   5.3439992  97.7519978  26.5990014   5.0269992  96.8489978  26.5630014
   6.1249992  97.7539978  26.0460014   5.4062431  97.6287797  26.5193102
   8.9679992 100.0039978  32.5940014   8.1329992 100.4579978  32.7050014
   9.4919992 100.2799978  33.3460014   8.9246072 100.1033948  32.7108136
   9.5129992 106.2169978  24.2790014   8.7679992 105.7089978  23.9570014
   9.3779992 106.2659978  25.2250014   9.3928963 106.1541731  24.3628826
  16.6629992 105.3499978  33.0660014  17.3039992 105.8059978  32.5220014
  15.8319992 105.4629978  32.6030014  16.6385287 105.4276921  32.9289887
  13.4099992  99.0309978  22.4780014  12.4719992  99.1419978  22.3270014
  13.7079992  99.8869978  22.7850014  13.3216318  99.1620158  22.4988145
  11.0319992 106.4009978  35.5160014  10.6859992 106.0189978  36.3230014
  10.8319992 107.3339978  35.5870014  10.9575987 106.4749002  35.6360461
  14.1289992 100.8979978  24.1390014  15.0209992 100.7599978  24.4580014
  14.1849992 101.6889978  23.6020014  14.2587325 100.9859918  24.1101217
   4.6369992 105.5119978  30.0490014   5.3819992 105.5089978  29.4470014
   4.7149992 104.6879978  30.5300014   4.7493365 105.4002384  30.0317430
  11.6379992 107.6749978  23.3040014  11.3429992 108.5019978  23.6860014
  10.9349992 107.0559978  23.5010014  11.5026379 107.7044171  23.3828654
   1.6449992 103.9719978  35.3640014   1.8679992 103.5539978  36.1950014
   1.0429992 103.3599978  34.9410014   1.5941513 103.8319606  35.4206740
   8.6619992 103.4889978  37.5770014   8.3659992 103.3239978  36.6810014
   9.5929992 103.2689978  37.5660014   8.7474401 103.4366879  37.4530206
  13.2819992 108.8629978  35.4660014  12.3819992 109.0459978  35.1990014
  13.3159992 109.1219978  36.3870014  13.1633748 108.9230554  35.5539164
  19.0139992 101.1069978  23.8340014  18.4589992 100.7109978  23.1610014
  19.1139992 102.0179978  23.5560014  18.9516816 101.1759505  23.7045033
  18.9769992 106.9079978  36.6710014  18.1259992 107.1459978  36.3030014
  19.5669992 106.8909978  35.9180014  18.9403812 106.9382524  36.5188453
  17.3089992 109.8929978  24.2990014  16.9359992 109.0679978  24.6080014
  17.5859992 109.7099978  23.4010014  17.2953463 109.7552569  24.2199525
  14.4689992 104.7009978  31.3200014  13.5409992 104.4699978  31.2930014
  14.9199992 103.9239978  30.9900014  14.4028165 104.5642774  31.2716790
   7.0119992 109.0299978  27.4530014   7.5399992 109.8029978  27.2530014
   6.1319992 109.2539978  27.1510014   6.9653435 109.1662700  27.3847310
   2.7669992 103.8919978  22.0400014   3.3829992 104.5189978  22.4200014
   1.9049992 104.2079978  22.3120014   2.7347678 104.0204412  22.1287209
   8.4399992 106.6929978  27.0290014   8.1989992 107.6179978  27.0710014
   7.6989992 106.2339978  27.4260014   8.3069206 106.7575915  27.0883769
   8.9539992 110.8419978  33.3440014   9.3169992 111.6959978  33.1110014
   9.4859992 110.5499978  34.0850014   9.0755141 110.9193895  33.4122097
   7.1229992 111.7139978  26.5750014   6.1729992 111.8199978  26.6260014
   7.4749992 112.5349978  26.9190014   7.0405472 111.8394923  26.6284852
  12.4979992 106.9409978  33.0450014  12.0729992 106.7129978  33.8710014
  13.0789992 106.2019978  32.8630014  12.5183395 106.8099545  33.1334414
  14.7009992 107.8699978  22.1190014  15.0549992 107.4899978  22.9230014
  13.7529992 107.7759978  22.2060014  14.6212298 107.8052452  22.2408687
  15.1569992 111.4929978  35.5140014  14.5549992 110.9369978  35.0190014
  15.4379992 112.1599978  34.8880014  15.1125757 111.5070744  35.3615675
  19.2049992 112.3489978  22.3200014  19.9489992 112.9349978  22.1800014
  18.5109992 112.9179978  22.6530014  19.2129809 112.5060818  22.3458590
   3.2789992  98.7259978  34.9220014   2.3869992  99.0639978  34.8540014
   3.1809992  97.8699978  35.3400014   3.1434475  98.6566543  34.9691704
  15.5669992 106.5419978  24.3460014  15.2899992 105.8139978  24.9020014
  16.4949992 106.6609978  24.5510014  15.6544499 106.4584213  24.4498044
   2.9309992 110.5299978  33.3570014   3.1479992 109.5979978  33.3260014
   3.1769992 110.8049978  34.2400014   2.9939809 110.4395686  33.4721691
   8.7919992 108.9819978  20.5660014   9.0309992 108.2329978  20.0190014
   8.5229992 108.5939978  21.3990014   8.7883233 108.8271853  20.6037809
   7.7289992 108.5519978  23.0220014   7.8759992 108.0319978  23.8120014
   7.7259992 109.4589978  23.3290014   7.7487102 108.6033953  23.1715925
   4.1819992 105.8039978  23.5330014   3.4959992 106.1569978  24.1000014
   4.7049992 106.5669978  23.2860014   4.1588402 105.9553901  23.5771801
  12.0139992  98.4669978  33.8120014  12.7129992  98.5409978  34.4620014
  11.6329992  97.6019978  33.9660014  12.0582097  98.3602389  33.9217997
  12.7979992  98.1189978  24.9090014  13.0179992  98.5899978  24.1050014
  13.3569992  98.5129978  25.5790014  12.9036731  98.2367287  24.8895033
  10.4669992 110.2489978  23.7720014   9.6499992 110.7459978  23.8240014
  10.9959992 110.7249978  23.1310014  10.4268125 110.3811989  23.6925306
   9.9979992  99.8469978  25.7440014  10.8099992 100.3509978  25.7900014
   9.7539992  99.7019978  26.6580014  10.0761467  99.8963749  25.8738575
  10.5339992 100.8329978  34.9280014  10.6529992 101.4069978  35.6850014
  11.1889992 100.1449978  35.0430014  10.6388684 100.8185194  35.0471674
  10.8819992  96.9279978  26.6820014  10.5349992  97.5449978  27.3260014
  11.5409992  97.4289978  26.2000014  10.9235090  97.0801575  26.7050681
   7.8049992 111.2929978  23.7530014   7.9659992 112.0929978  23.2530014
   7.6079992 111.5999978  24.6380014   7.8003906 111.4438678  23.8042333
   6.5399992  97.9909978  23.3690014   6.4559992  98.8789978  23.7160014
   7.4299992  97.7259978  23.6010014   6.6488163  98.0767179  23.4478596
  16.7379992  98.7399978  35.7630014  15.8219992  99.0019978  35.6760014
  17.0739992  98.7369978  34.8670014  16.6578499  98.7755163  35.6298766
  15.3409992 102.4899978  29.8590014  14.5429992 102.0749978  29.5310014
  15.7859992 101.7999978  30.3500014  15.2919684 102.3398628  29.8805227
   4.7979992 108.4179978  22.4290014   5.3899992 109.1179978  22.7060014
   5.2569992 107.9849978  21.7100014   4.9411652 108.4552675  22.3696533
   3.1139992 101.0829978  21.5450014   3.0689992 102.0219978  21.7240014
   2.2259992 100.8469978  21.2760014   2.9878166 101.1796687  21.5331524
  16.4269992 111.7459978  31.4810014  16.2709992 112.4249978  30.8240014
  17.3599992 111.8179978  31.6840014  16.5317387 111.8486390  31.4185342
   3.9219992  95.8639978  30.2190014   3.6929992  95.9229978  29.2910014
   3.4799992  95.0729978  30.5250014   3.8308801  95.7650540  30.1334729
   2.8529992 109.8049978  26.3790014   2.0199992 110.2769978  26.4060014
   3.3979992 110.3149978  25.7800014   2.8127857 109.9384791  26.3017142
   2.1409992 112.4169978  37.7090014   2.6809992 112.2009978  38.4690014
   1.6599992 111.6119978  37.5190014   2.1499219 112.2785156  37.7874282
   6.7379992 111.3369978  39.3290014   7.5059992 110.8779978  39.6700014
   6.7169992 111.1109978  38.3990014   6.8402135 111.2436668  39.2499491
  10.8299992 110.8449978  20.7050014  10.1859992 110.2139978  21.0260014
  11.5919992 110.3139978  20.4730014  10.8448058 110.6867902  20.7176038
  13.3149992 109.7169978  38.0580014  12.9639992 108.8599978  38.3020014
  14.0409992 109.8589978  38.6650014  13.3651895 109.6191351  38.1733770
  15.4349992 110.6619978  20.9380014  15.7179992 109.8669978  21.3910014
  16.1739992 110.8949978  20.3770014  15.5737096 110.5847049  20.9241104
   2.0479992 106.2279978  38.6630014   2.1919992 105.3259978  38.3770014
   1.2759992 106.5139978  38.1760014   1.9632733 106.1431798  38.5579532
   6.3889992 106.5709978  20.7960014   6.4539992 105.7769978  21.3260014
   7.0419992 106.4529978  20.1060014   6.4861605 106.4463430  20.7752997
   8.7029992 106.1969978  38.0960014   8.3749992 106.4679978  37.2390014
   8.8549992 105.2559978  38.0080014   8.6786412 106.1069046  37.9667822
  11.7419992 107.6179978  20.5320014  11.4729992 107.7989978  21.4320014
  11.5349992 106.6929978  20.4000014  11.6771191 107.5177119  20.6375524
  14.4379992 106.1129978  35.4790014  15.1829992 106.7019978  35.3600014
  13.6809992 106.6949978  35.5430014  14.4375470 106.2722128  35.4713799
   2.8809992 103.4279978  38.0830014   3.2889992 102.5709978  37.9620014
   2.6199992 103.4419978  39.0040014   2.9016016 103.3125119  38.1909192
   7.5389992 104.5439978  23.1020014   7.0789992 104.0599978  23.7870014
   7.7939992 103.8749978  22.4660014   7.5104856 104.3873669  23.1098397
   6.8279992 102.4369978  35.4580014   6.2089992 103.1109978  35.7380014
   7.1719992 102.7579978  34.6240014   6.7897123 102.5726887  35.3836388
   8.6099992 102.7869978  21.3640014   8.4289992 102.6319978  20.4370014
   9.5599992 102.8949978  21.4090014   8.7136566 102.7803669  21.2430929
  11.8469992 104.9079978  38.7350014  12.8009992 104.9919978  38.7080014
  11.6869992 104.1959978  39.3550014  11.9557182 104.8232842  38.8150733
  17.9999992 105.1409978  20.8100014  17.7259992 104.7169978  19.9970014
  18.0389992 106.0729978  20.5930014  17.9677716 105.2088827  20.6694286
   7.1669992  99.7919978  36.5400014   7.3169992  99.0629978  35.9380014
   7.1689992 100.5689978  35.9810014   7.1877967  99.7972708  36.3820541
   7.5799992  98.1609978  34.0330014   8.1149992  98.6129978  33.3810014
   6.7269992  98.0529978  33.6100014   7.5380374  98.2082665  33.8866710
   9.1609992 103.6009978  34.2720014   9.9119992 103.4449978  33.6990014
   8.8219992 104.4529978  33.9970014   9.2179587 103.6948138  34.1564078
  13.5769992 101.4159978  39.3010014  13.7689992 100.4849978  39.1890014
  14.4349992 101.8409978  39.2900014  13.7192182 101.3460070  39.2841862
  14.8939992 104.2049978  37.3780014  14.6119992 104.9139978  36.8000014
  15.8359992 104.1319978  37.2270014  14.9827921 104.2922193  37.2784225
   5.6459992 100.9899978  38.4510014   4.8779992 100.4569978  38.2410014
   6.3239992 100.6799978  37.8520014   5.6327235 100.8751754  38.3412413
   8.3849992  95.6179978  34.4640014   8.2869992  96.5639978  34.3590014
   7.6429992  95.2449978  33.9880014   8.2712534  95.6971773  34.3852600
   9.6489992  99.9389978  38.0280014   9.4139992  99.7199978  38.9290014
   8.8659992  99.7319978  37.5180014   9.5109095  99.8809892  38.0825353
  12.3649992  99.0669978  37.1030014  11.4169992  99.0989978  37.2350014
  12.6769992  98.4409978  37.7570014  12.2775293  98.9867923  37.2094148
  13.9989992  97.7009978  39.1080014  13.9019992  96.7489978  39.1030014
  13.6769992  97.9689978  39.9690014  13.9422468  97.6070884  39.2236210
   3.8259992  98.9099978  38.1560014   4.0379992  98.2039978  37.5460014
   3.7149992  98.4729978  39.0000014   3.8400269  98.7541921  38.1865873
   8.6069992  94.9119978  37.1350014   9.3189992  94.2719978  37.1210014
   8.5059992  95.1779978  36.2220014   8.6907387  94.8604330  37.0095563
   8.9609992  96.5939978  39.1890014   8.8289992  96.1189978  38.3690014
   8.3609992  97.3389978  39.1340014   8.8619070  96.6295789  39.0693251
   8.5069992 113.4769978  22.3650014   9.4399992 113.6349978  22.5090014
   8.2429992 114.1529978  21.7400014   8.5989911 113.5899373  22.3002722
   2.0749992 108.1139978  21.8480014   2.9889992 108.1929978  22.1210014
   2.0829992 107.4269978  21.1820014   2.2010655 108.0319205  21.7952917
   0.7239992 113.5069978  26.9250014   0.0769992 113.0449978  26.3930014
   1.0789992 112.8349978  27.5080014   0.6833741 113.3529774  26.9309175
   1.5939992 111.5869978  28.7300014   1.2599992 110.7069978  28.9020014
   1.8169992 111.9329978  29.5950014   1.5783721 111.5131938  28.8704168
  19.1429992 112.3969978  31.7110014  19.1209992 112.5819978  32.6500014
  19.8329992 112.9649978  31.3700014  19.2333439 112.4991887  31.7934791
  18.7059992 111.9639978  34.6320014  18.2189992 111.2289978  34.2610014
  19.2549992 111.5699978  35.3100014  18.7135247 111.8101057  34.6728461
  17.1569992 107.7539978  39.2710014  16.2909992 107.6489978  39.6650014
  17.5329992 108.5119978  39.7170014  17.0893401 107.8421708  39.3852620
  18.4579992 106.0099978  24.7850014  19.3079992 106.4309978  24.9120014
  18.4629992 105.2699978  25.3920014  18.5751143 105.9676094  24.8844750
  18.8519992 104.0639978  26.6080014  18.1259992 103.5839978  27.0060014
  19.4339992 104.2689978  27.3410014  18.8312730 104.0260184  26.7614149
  18.6109992 106.8489978  31.5560014  19.4449992 106.4709978  31.2750014
  18.7229992 107.7919978  31.4370014  18.7401917 106.9247943  31.5014861
  17.0979992 109.7269978  33.8630014  16.4499992 110.0519978  34.4880014
  16.5799992 109.2859978  33.1890014  16.9394196 109.7118651  33.8574152
  19.1209992 103.9649978  22.9990014  18.5989992 104.3209978  22.2810014
  19.0879992 104.6399978  23.6780014  19.0450129 104.1049598  22.9923355
  17.4699992 101.2039978  21.5500014  17.5659992 101.8709978  20.8700014
  17.3299992 100.3889978  21.0690014  17.4642040 101.1850671  21.3918378
  16.6389992 102.5849978  27.1710014  16.4889992 101.6399978  27.1510014
  16.2849992 102.8659978  28.0150014  16.5706351 102.4936644  27.2823220
   1.6739992 104.6629978  31.1820014   1.8589992 104.5809978  30.2460014
   2.5239992 104.5389978  31.6050014   1.8140928 104.6350463  31.1112893
  17.4949992 104.5549978  36.8100014  18.0779992 103.8199978  37.0020014
  18.0589992 105.3269978  36.8570014  17.6509781 104.5588145  36.8426164
  18.9919992 102.4579978  37.4950014  18.1289992 102.0789978  37.3290014
  19.5959992 101.7189978  37.4200014  18.9556085 102.3063223  37.4621695
  16.7169992  98.6119978  20.6680014  17.3279992  98.2409978  21.3050014
  15.8799992  98.1909978  20.8640014  16.6874947  98.5042756  20.7817252
  16.3499992 100.1669978  25.6340014  16.6289992  99.2599978  25.7580014
  17.1089992 100.6009978  25.2450014  16.4908619 100.1014502  25.5983795
  16.9609992 100.7489978  31.0700014  17.8939992 100.9609978  31.0350014
  16.7259992 100.8499978  31.9920014  17.0569517 100.7916833  31.1899130
  16.9909992 101.4859978  33.8460014  16.1479992 101.7539978  34.2120014
  17.4329992 102.3079978  33.6350014  16.9354138 101.6338273  33.8675518
   1.2719992  99.9329978  37.3220014   2.1909992  99.8109978  37.5590014
   0.8219992  99.1829978  37.7120014   1.3370087  99.8149608  37.4071410
  19.2739992  95.4659978  39.1990014  19.6229992  94.8119978  38.5940014
  19.4209992  96.3029978  38.7590014  19.3416824  95.4896024  39.0566304
  16.9629992  97.4299978  25.6820014  17.1449992  96.9809978  26.5070014
  16.3629992  96.8459978  25.2180014  16.9068187  97.2895552  25.7322739
   2.4929992  98.2459978  30.2140014   2.9379992  97.4539978  30.5160014
   2.9589992  98.9619978  30.6440014   2.6169718  98.2344534  30.3135265
   0.7969992 101.2449978  31.2830014   1.2889992 101.0239978  30.4920014
   1.1589992 102.0849978  31.5640014   0.9132923 101.3283468  31.2127407
  18.7929992  97.5749978  37.5480014  17.8759992  97.8459978  37.5130014
  18.9159992  97.0399978  36.7640014  18.6839672  97.5397885  37.4371862
  18.8299992  97.4979978  22.2100014  19.2419992  96.7769978  21.7350014
  19.5109992  98.1669978  22.2680014  18.9785536  97.4897766  22.1528024
   1.1109992  97.5029978  25.3370014   0.1859992  97.7109978  25.2080014
   1.5649992  97.9869978  24.6470014   1.0456298  97.5969299  25.2260451
  15.8809992 112.4869978  27.2830014  16.5339992 112.1389978  26.6750014
  16.3919992 112.9749978  27.9290014  16.0392777 112.5053815  27.2872047
   1.0739992  96.2409978  33.6810014   0.4089992  95.9949978  34.3240014
   0.6309992  96.8629978  33.1040014   0.9231168  96.2914214  33.6909848
   3.2659992 109.4159978  37.8260014   2.4449992 109.5909978  37.3650014
   3.0139992 109.3429978  38.7460014   3.1195594 109.4300717  37.8873611
   6.2199992 110.3899978  34.0840014   5.7959992 111.1999978  33.8020014
   7.1249992 110.4759978  33.7820014   6.2842138 110.5124160  34.0046415
  10.5319992 111.7889978  37.0440014  10.7159992 111.4559978  37.9220014
  11.3779992 112.0989978  36.7220014  10.6716484 111.7852979  37.1207617
  12.8769992 113.0749978  36.2880014  13.5539992 112.4419978  36.0480014
  13.1979992 113.4759978  37.0950014  13.0131323 113.0425691  36.3643158
  17.7939992  95.6649978  35.3670014  16.9809992  95.9899978  34.9800014
  18.0269992  94.9039978  34.8340014  17.7141347  95.6066880  35.2419841
   3.6219992 113.6469978  34.1320014   2.9019992 114.0869978  33.6810014
   3.2569992 113.3959978  34.9800014   3.4739643 113.6733369  34.1849129
   6.0889992 113.2469978  33.1620014   5.2249992 113.3189978  33.5660014
   6.0339992 113.7939978  32.3780014   5.9631942 113.3307849  33.1114000
  10.7999992 113.1349978  32.3370014  10.3429992 113.6639978  31.6830014
  10.9629992 113.7379978  33.0620014  10.7594960 113.2889280  32.3455274
  13.1279992 112.0129978  33.2820014  12.2229992 112.1779978  33.0160014
  13.5559992 112.8659978  33.2160014  13.0621537 112.1509134  33.2367095
  15.7319992 113.5829978  33.5770014  15.5499992 114.4989978  33.3660014
  15.9089992 113.1719978  32.7300014  15.7310030 113.6528273  33.4337166
   3.0369992 112.2699978  31.0420014   3.0189992 111.8439978  31.8990014
   3.8419992 111.9509978  30.6330014   3.1432875 112.1686435  31.1039515
   5.1779992 110.9799978  29.6970014   4.9589992 110.0629978  29.8670014
   6.0019992 111.1199978  30.1630014   5.2594702 110.8735511  29.7832527
   7.7149992 111.4499978  30.5460014   7.9279992 110.5619978  30.2590014
   7.7799992 111.4149978  31.5000014   7.7529149 111.3238326  30.6357369
  11.2239992  97.1139978  29.6900014  10.5499992  96.4839978  29.9460014
  11.7879992  96.6299978  29.0870014  11.2080384  96.9623708  29.6435020
  16.3669992  95.2209978  29.8030014  16.9699992  95.7689978  29.3010014
  15.4969992  95.5399978  29.5620014  16.3319157  95.3390373  29.7017910
  18.0939992  96.3599978  28.1360014  18.7049992  95.8459978  27.6090014
  18.4759992  97.2369978  28.1590014  18.2293305  96.4082050  28.0669418
   3.5509992  95.7479978  27.5120014   2.7739992  95.5129978  27.0050014
   4.0809992  94.9509978  27.5210014   3.5163451  95.6081268  27.4438627
   2.3869992  95.5459978  23.3160014   2.8259992  96.1569978  22.7240014
   1.7529992  96.0839978  23.7900014   2.3613859  95.7024064  23.2990305
   8.1299992  95.6739978  27.3250014   9.0039992  96.0629978  27.2960014
   7.9939992  95.4589978  28.2480014   8.2311953  95.6981643  27.4457617
  13.6869992  95.7039978  28.9750014  13.7629992  95.7999978  28.0250014
  13.4119992  94.7969978  29.1030014  13.6601871  95.5944146  28.8623944
  15.0399992  95.7299978  24.6670014  14.3369992  96.3449978  24.4570014
  14.5949992  94.8929978  24.7980014  14.8836550  95.7009668  24.6559837
   2.2879992 111.4939978  24.2130014   1.6029992 111.4559978  23.5460014
   2.2919992 112.4069978  24.5010014   2.1947621 111.6121924  24.1606126
   4.2479992  97.4619978  21.7580014   4.7389992  96.8319978  21.2310014
   4.8709992  97.7579978  22.4210014   4.3995304  97.4157376  21.7754940
   9.2739992  97.7549978  24.2150014   9.4519992  97.1079978  24.8980014
   9.2199992  98.5889978  24.6820014   9.2910678  97.7791604  24.3716301
  11.1519992 112.7029978  22.6110014  12.0179992 113.0699978  22.4330014
  10.9059992 112.2639978  21.7970014  11.2372097 112.6938525  22.4766019
  17.8609992 112.2659978  25.2900014  17.6669992 111.5179978  24.7250014
  17.8219992 113.0239978  24.7070014  17.8291645 112.2660786  25.1338148
   3.5079992  96.2619978  37.0300014   3.1419992  95.4959978  37.4720014
   4.4209992  96.2909978  37.3160014   3.5813172  96.1610324  37.1291890
   5.4809992  95.6119978  38.5650014   6.3799992  95.3379978  38.3810014
   5.0949992  94.8699978  39.0300014   5.5517307  95.4742196  38.6027098
   4.1059992 112.4139978  21.2380014   3.8379992 112.6999978  22.1120014
   4.8769992 111.8679978  21.3910014   4.1735926 112.3792779  21.3781205
  13.9029992  94.9449978  38.7480014  13.9789992  94.5189978  39.6010014
  14.7959992  94.9579978  38.4050014  14.0342303  94.8883493  38.8185497
  17.0789992 111.0179978  37.4400014  16.2969992 110.8309978  36.9200014
  17.0069992 111.9469978  37.6570014  16.9621924 111.1180637  37.3981602
  31.4849992 104.9039978  27.4710014  31.5739992 105.8479978  27.3390014
  30.8469992 104.6289978  26.8130014  31.4109061 104.9959812  27.3639641
  30.4179992 104.1589978  30.8900014  30.3799992 103.5129978  31.5950014
  30.0959992 103.6919978  30.1190014  30.3692679 104.0074276  30.8822921
  22.7859992 103.7729978  32.4830014  22.8279992 103.1479978  33.2060014
  23.4889992 104.3969978  32.6650014  22.8867345 103.7717873  32.6065273
  34.1239992 107.0979978  29.1910014  33.6829992 106.3779978  29.6420014
  34.1109992 107.8189978  29.8210014  34.0619215 107.0969291  29.3378105
  23.7099992 108.2229978  31.0180014  23.3399992 107.4209978  30.6480014
  24.6509992 108.0549978  31.0640014  23.7865984 108.0904638  30.9735603
  20.3199992 101.8829978  26.4100014  19.8719992 102.7289978  26.3920014
  19.7589992 101.3039978  25.8950014  20.1828546 101.9203993  26.3378891
  21.0299992 104.0449978  28.5360014  21.2439992 103.2749978  29.0640014
  21.7679992 104.1349978  27.9330014  21.1590200 103.9518587  28.5267035
  31.2359992 112.2019978  29.4030014  31.8549992 111.5259978  29.1300014
  31.0269992 111.9839978  30.3120014  31.2926056 112.0798869  29.4883967
  28.8069992 106.5909978  31.2960014  29.1109992 105.9049978  30.7010014
  29.5289992 106.7099978  31.9140014  28.9461240 106.5132314  31.2980959
  37.4699992  98.1929978  32.1560014  37.5199992  98.8029978  32.8920014
  37.8959992  98.6539978  31.4330014  37.5344108  98.3387709  32.1590112
  31.9479992 100.9849978  31.6230014  32.0909992 100.0389978  31.6430014
  31.8419992 101.1919978  30.6950014  31.9532403 100.8834797  31.5002239
  25.1029992  99.0869978  28.8960014  25.1459992  99.9469978  28.4770014
  24.6449992  98.5349978  28.2620014  25.0469871  99.1299245  28.7530761
  32.8249992  99.2179978  27.2970014  33.4719992  98.8889978  27.9210014
  33.3349992  99.7349978  26.6740014  32.9824351  99.2429067  27.2981037
  21.7229992 101.4839978  29.6580014  22.3769992 100.9339978  30.0900014
  21.7469992 101.2099978  28.7410014  21.8157199 101.3717167  29.5931668
  26.8799992 103.0339978  28.8730014  27.4959992 102.5069978  29.3820014
  26.2929992 102.3939978  28.4690014  26.8850154 102.8753954  28.8880945
  37.8619992  99.6709978  34.3920014  37.1729992 100.3289978  34.2970014
  37.8769992  99.4729978  35.3290014  37.7697756  99.7342603  34.5055812
  23.9129992  98.0049978  32.9700014  23.6939992  98.5349978  32.2030014
  23.2449992  98.2309978  33.6170014  23.7926975  98.1080967  32.9525140
  31.2819992 107.5049978  26.5140014  30.9869992 107.1819978  25.6620014
  30.9579992 108.4049978  26.5550014  31.1978460 107.5824464  26.4029714
  26.4819992 105.6799978  33.2570014  25.7419992 106.2789978  33.3610014
  27.1959992 106.2339978  32.9420014  26.4773500 105.8367829  33.2286371
  34.5889992  98.5089978  29.2770014  34.3739992  97.7429978  29.8100014
  35.2449992  98.9809978  29.7900014  34.6482673  98.4680728  29.4191990
  23.5069992  99.8969978  30.9220014  24.1209992 100.5299978  31.2950014
  24.0189992  99.4249978  30.2660014  23.6601962  99.9197249  30.8842935
  24.8899992 107.6449978  34.0440014  24.8839992 108.5239978  33.6660014
  24.0359992 107.5609978  34.4690014  24.7737925 107.7539535  34.0496887
  21.0109992 107.3159978  24.8260014  20.7389992 107.5449978  23.9380014
  21.0559992 108.1529978  25.2870014  20.9798097 107.4606163  24.7666683
  34.6359992 108.9369978  31.5390014  33.6939992 108.9959978  31.7010014
  34.9119992 109.8429978  31.4020014  34.5445865 109.0675288  31.5426192
  34.9359992  97.2239978  32.9560014  34.1999992  97.8339978  32.9190014
  35.6199992  97.6389978  32.4300014  34.9275367  97.3637551  32.8798174
  27.9399992  95.3099978  30.4220014  27.8219992  94.3619978  30.3680014
  27.0849992  95.6429978  30.6950014  27.8082805  95.2252202  30.4515079
  32.8879992 110.7179978  28.1640014  33.3129992 110.0109978  27.6790014
  33.2049992 111.5199978  27.7470014  32.9890266 110.7295190  28.0412479
  34.0479992 108.6189978  26.6730014  33.7899992 107.9289978  26.0610014
  34.1189992 108.1759978  27.5180014  34.0223050 108.4646814  26.7035621
  35.7339992 107.1859978  35.1500014  35.8729992 106.5939978  34.4110014
  35.9009992 108.0589978  34.7940014  35.7756193 107.2228896  35.0006211
  30.2059992 104.1479978  24.9230014  29.4949992 104.6829978  24.5710014
  30.8969992 104.2029978  24.2630014  30.2020751 104.2286777  24.7855858
  30.2599992 102.6049978  21.9610014  30.9609992 102.6279978  22.6130014
  30.5619992 101.9769978  21.3050014  30.3968202 102.5232212  21.9615609
  37.5749992 103.5259978  33.2160014  36.9229992 104.2199978  33.3050014
  38.0409992 103.7359978  32.4060014  37.5485937 103.6495019  33.1187533
  33.6119992 104.3569978  25.8740014  32.8799992 104.5859978  26.4480014
  34.0589992 103.6439978  26.3290014  33.5723963 104.2918729  26.0139945
  33.5089992 102.5319978  34.9420014  33.5889992 103.2949978  35.5140014
  32.9079992 102.8109978  34.2520014  33.4386547 102.6742457  34.9270047
  25.2569992 104.9879978  27.7570014  24.9269992 104.6169978  26.9390014
  25.8459992 104.3169978  28.1040014  25.2913970 104.8466063  27.6919404
  26.6239992 108.4159978  30.4380014  26.5289992 107.8369978  29.6820014
  27.3529992 108.0449978  30.9340014  26.7096011 108.2865561  30.4016028
  25.6239992 103.7559978  31.3900014  26.1889992 103.8779978  30.6280014
  25.9429992 104.3939978  32.0290014  25.7444166 103.8588791  31.3720348
  31.9329992 109.2599978  32.1240014  31.6929992 109.9219978  32.7720014
  31.7349992 108.4249978  32.5490014  31.8733826 109.2378115  32.2701566
  26.5039992 108.1559978  36.1080014  26.1929992 108.9379978  36.5630014
  25.8539992 108.0029978  35.4220014  26.3735538 108.2424087  36.0775898
  32.4829992 103.5199978  23.5600014  33.0619992 103.6699978  24.3060014
  32.8969992 103.9899978  22.8360014  32.6183358 103.6040955  23.5643953
  23.4239992 104.3539978  35.3360014  23.4939992 105.0049978  36.0350014
  22.5329992 104.4569978  35.0010014  23.3131690 104.4569249  35.3863043
  30.2089992 110.2559978  26.9950014  30.6829992 110.5519978  27.7720014
  29.6459992 110.9949978  26.7620014  30.1977890 110.3963036  27.0698101
  24.7429992 110.2269978  36.8710014  24.7509992 110.0909978  35.9240014
  23.8269992 110.1099978  37.1230014  24.6202528 110.1925463  36.7753243
  36.1819992  95.2699978  23.3730014  35.2819992  95.4089978  23.6680014
  36.4339992  96.1009978  22.9710014  36.0928683  95.4014055  23.3590232
  24.2479992 104.0569978  25.3460014  23.9559992 104.8249978  24.8550014
  23.5729992 103.3979978  25.1830014  24.1168497 104.0729745  25.2568260
  37.3709992 109.6359978  21.7490014  37.4439992 110.5749978  21.9190014
  38.2759992 109.3309978  21.6930014  37.5034170 109.7233282  21.7647063
  20.3409992 106.4199978  34.1610014  19.8389992 106.3919978  33.3460014
  20.3459992 105.5149978  34.4710014  20.2729832 106.2937486  34.0914121
  20.0909992 109.2009978  31.0450014  21.0369992 109.0559978  31.0260014
  19.9779992 109.9849978  31.5820014  20.2053578 109.2871697  31.1150317
  38.2889992 109.8669978  36.7280014  38.2389992 108.9109978  36.6900014
  37.4619992 110.1339978  37.1290014  38.1703831 109.7724680  36.7770121
  29.2669992 109.4409978  35.6040014  29.3549992 110.2669978  36.0790014
  28.4039992 109.1109978  35.8530014  29.1623357 109.5095468  35.7027653
  29.6819992 113.2129978  25.4100014  29.6059992 113.0919978  24.4630014
  29.7139992 114.1619978  25.5280014  29.6759380 113.3247677  25.2965181
  23.3349992 112.0019978  27.1910014  23.4869992 111.6539978  28.0690014
  22.4839992 111.6449978  26.9350014  23.2408344 111.9060879  27.2766868
  32.7829992 112.3669978  22.4120014  33.1579992 111.6229978  21.9410014
  32.7879992 112.0969978  23.3300014  32.8350098 112.2286392  22.4716629
  32.4519992 112.2929978  25.1610014  31.5169992 112.3929978  25.3400014
  32.7319992 111.5829978  25.7400014  32.3619471 112.2107933  25.2636695
  35.4409992 101.3599978  37.2080014  35.0329992 101.8399978  36.4870014
  35.4809992 100.4539978  36.9000014  35.3906221 101.3032449  37.0678267
  22.5899992 107.7439978  35.2040014  22.8059992 107.3819978  36.0640014
  21.7339992 107.3689978  34.9950014  22.5038810 107.6438837  35.2932680
  25.2079992  96.2139978  31.2000014  24.3469992  96.1269978  30.7920014
  25.1859992  97.0699978  31.6280014  25.0870491  96.3178003  31.2019582
  29.8709992  95.9359978  34.5750014  30.2909992  95.5209978  35.3280014
  28.9379992  95.7569978  34.6920014  29.8023736  95.8549910  34.6938968
  33.1979992  99.6909978  35.4280014  32.6839992  99.5659978  36.2260014
  33.0419992 100.6039978  35.1840014  33.1066967  99.7972123  35.5040937
  33.9599992 104.5519978  21.1890014  34.0019992 104.3299978  20.2590014
  34.8089992 104.9509978  21.3790014  34.0805253 104.5755498  21.0873822
  29.5329992  98.4279978  21.8600014  29.2789992  98.4469978  22.7820014
  29.2759992  97.5569978  21.5580014  29.4634508  98.3128280  21.9454803
  25.2989992 101.1789978  32.2950014  24.6579992 101.1389978  33.0040014
  25.3369992 102.1059978  32.0570014  25.2163010 101.2987668  32.3599946
  25.2959992 101.3999978  27.2070014  24.4039992 101.0599978  27.1480014
  25.7469992 101.0229978  26.4510014  25.2347642 101.3024910  27.0967726
  30.8319992 101.8159978  26.0240014  30.4229992 102.6309978  25.7320014
  31.5519992 101.6759978  25.4100014  30.8734439 101.9085372  25.9010115
  29.9339992 101.9919978  37.5120014  29.3709992 101.2869978  37.8330014
  30.7599992 101.8709978  37.9800014  29.9686674 101.8792165  37.6191751
  31.8369992 101.2619978  28.8380014  31.6409992 101.8679978  28.1230014
  32.0179992 100.4289978  28.4040014  31.8346584 101.2322513  28.6814212
  23.0489992 101.4999978  34.1620014  23.0109992 101.8999978  35.0310014
  22.5589992 100.6829978  34.2520014  22.9775330 101.4442674  34.2931289
  26.4149992  98.8739978  20.9610014  25.9839992  98.4289978  21.6900014
  25.6969992  99.2449978  20.4480014  26.2589176  98.8632051  20.9914930
  19.6579992  98.6159978  28.0130014  20.2879992  98.5869978  28.7320014
  20.1069992  98.1909978  27.2820014  19.8050835  98.5545660  28.0127659
  20.9319992  99.3619978  23.4370014  21.4059992  99.9529978  22.8520014
  20.2139992  99.8919978  23.7840014  20.8998640  99.5145511  23.4037969
  31.1009992 102.8999978  33.5090014  31.4239992 102.2689978  32.8660014
  30.6599992 102.3659978  34.1700014  31.0856379 102.7413468  33.5102582
  27.8779992  98.8279978  28.2930014  26.9669992  98.8849978  28.5820014
  28.3829992  98.7679978  29.1040014  27.8216873  98.8276826  28.4421207
  22.7059992 100.4569978  27.1200014  21.8169992 100.5559978  26.7800014
  23.0029992  99.6149978  26.7740014  22.6244177 100.3567687  27.0266940
  26.3589992 100.4569978  24.7770014  27.2909992 100.5859978  24.9550014
  26.1439992 101.1259978  24.1270014  26.4574472 100.5650806  24.7134891
  32.2829992  98.0629978  31.5580014  31.6059992  98.1939978  32.2210014
  31.7979992  97.9079978  30.7470014  32.1247405  98.0599947  31.5392170
  25.0329992 101.6509978  22.3430014  24.4909992 101.2719978  21.6520014
  25.8669992 101.8459978  21.9150014  25.0714390 101.6254079  22.1904392
  35.5709992 113.7339978  37.8340014  35.7699992 114.1579978  37.0000014
  36.2259992 114.0779978  38.4410014  35.6868522 113.8386301  37.8017852
  23.1689992 106.2079978  37.4420014  23.9009992 106.4629978  38.0040014
  22.3879992 106.4129978  37.9580014  23.1636526 106.2705450  37.5885176
  29.1979992 101.6149978  30.1800014  29.7619992 101.0689978  29.6330014
  29.0499992 101.0939978  30.9690014  29.2553037 101.4696787  30.2117229
  24.1999992  97.7519978  26.5990014  23.8829992  96.8489978  26.5630014
  24.9809992  97.7539978  26.0460014  24.2622431  97.6287797  26.5193102
  27.8239992 100.0039978  32.5940014  26.9889992 100.4579978  32.7050014
  28.3479992 100.2799978  33.3460014  27.7806072 100.1033948  32.7108136
  28.3689992 106.2169978  24.2790014  27.6239992 105.7089978  23.9570014
  28.2339992 106.2659978  25.2250014  28.2488963 106.1541731  24.3628826
  35.5189992 105.3499978  33.0660014  36.1599992 105.8059978  32.5220014
  34.6879992 105.4629978  32.6030014  35.4945287 105.4276921  32.9289887
  32.2659992  99.0309978  22.4780014  31.3279992  99.1419978  22.3270014
  32.5639992  99.8869978  22.7850014  32.1776318  99.1620158  22.4988145
  29.8879992 106.4009978  35.5160014  29.5419992 106.0189978  36.3230014
  29.6879992 107.3339978  35.5870014  29.8135987 106.4749002  35.6360461
  32.9849992 100.8979978  24.1390014  33.8769992 100.7599978  24.4580014
  33.0409992 101.6889978  23.6020014  33.1147325 100.9859918  24.1101217
  23.4929992 105.5119978  30.0490014  24.2379992 105.5089978  29.4470014
  23.5709992 104.6879978  30.5300014  23.6053365 105.4002384  30.0317430
  30.4939992 107.6749978  23.3040014  30.1989992 108.5019978  23.6860014
  29.7909992 107.0559978  23.5010014  30.3586379 107.7044171  23.3828654
  20.5009992 103.9719978  35.3640014  20.7239992 103.5539978  36.1950014
  19.8989992 103.3599978  34.9410014  20.4501513 103.8319606  35.4206740
  27.5179992 103.4889978  37.5770014  27.2219992 103.3239978  36.6810014
  28.4489992 103.2689978  37.5660014  27.6034401 103.4366879  37.4530206
  32.1379992 108.8629978  35.4660014  31.2379992 109.0459978  35.1990014
  32.1719992 109.1219978  36.3870014  32.0193748 108.9230554  35.5539164
  37.8699992 101.1069978  23.8340014  37.3149992 100.7109978  23.1610014
  37.9699992 102.0179978  23.5560014  37.8076816 101.1759505  23.7045033
  37.8329992 106.9079978  36.6710014  36.9819992 107.1459978  36.3030014
  38.4229992 106.8909978  35.9180014  37.7963812 106.9382524  36.5188453
  36.1649992 109.8929978  24.2990014  35.7919992 109.0679978  24.6080014
  36.4419992 109.7099978  23.4010014  36.1513463 109.7552569  24.2199525
  33.3249992 104.7009978  31.3200014  32.3969992 104.4699978  31.2930014
  33.7759992 103.9239978  30.9900014  33.2588165 104.5642774  31.2716790
  25.8679992 109.0299978  27.4530014  26.3959992 109.8029978  27.2530014
  24.9879992 109.2539978  27.1510014  25.8213435 109.1662700  27.3847310
  21.6229992 103.8919978  22.0400014  22.2389992 104.5189978  22.4200014
  20.7609992 104.2079978  22.3120014  21.5907678 104.0204412  22.1287209
  27.2959992 106.6929978  27.0290014  27.0549992 107.6179978  27.0710014
  26.5549992 106.2339978  27.4260014  27.1629206 106.7575915  27.0883769
  27.8099992 110.8419978  33.3440014  28.1729992 111.6959978  33.1110014
  28.3419992 110.5499978  34.0850014  27.9315141 110.9193895  33.4122097
  25.9789992 111.7139978  26.5750014  25.0289992 111.8199978  26.6260014
  26.3309992 112.5349978  26.9190014  25.8965472 111.8394923  26.6284852
  31.3539992 106.9409978  33.0450014  30.9289992 106.7129978  33.8710014
  31.9349992 106.2019978  32.8630014  31.3743395 106.8099545  33.1334414
  33.5569992 107.8699978  22.1190014  33.9109992 107.4899978  22.9230014
  32.6089992 107.7759978  22.2060014  33.4772298 107.8052452  22.2408687
  34.0129992 111.4929978  35.5140014  33.4109992 110.9369978  35.0190014
  34.2939992 112.1599978  34.8880014  33.9685757 111.5070744  35.3615675
  38.0609992 112.3489978  22.3200014  38.8049992 112.9349978  22.1800014
  37.3669992 112.9179978  22.6530014  38.0689809 112.5060818  22.3458590
  22.1349992  98.7259978  34.9220014  21.2429992  99.0639978  34.8540014
  22.0369992  97.8699978  35.3400014  21.9994475  98.6566543  34.9691704
  34.4229992 106.5419978  24.3460014  34.1459992 105.8139978  24.9020014
  35.3509992 106.6609978  24.5510014  34.5104499 106.4584213  24.4498044
  21.7869992 110.5299978  33.3570014  22.0039992 109.5979978  33.3260014
  22.0329992 110.8049978  34.2400014  21.8499809 110.4395686  33.4721691
  27.6479992 108.9819978  20.5660014  27.8869992 108.2329978  20.0190014
  27.3789992 108.5939978  21.3990014  27.6443233 108.8271853  20.6037809
  26.5849992 108.5519978  23.0220014  26.7319992 108.0319978  23.8120014
  26.5819992 109.4589978  23.3290014  26.6047102 108.6033953  23.1715925
  23.0379992 105.8039978  23.5330014  22.3519992 106.1569978  24.1000014
  23.5609992 106.5669978  23.2860014  23.0148402 105.9553901  23.5771801
  30.8699992  98.4669978  33.8120014  31.5689992  98.5409978  34.4620014
  30.4889992  97.6019978  33.9660014  30.9142097  98.3602389  33.9217997
  31.6539992  98.1189978  24.9090014  31.8739992  98.5899978  24.1050014
  32.2129992  98.5129978  25.5790014  31.7596731  98.2367287  24.8895033
  29.3229992 110.2489978  23.7720014  28.5059992 110.7459978  23.8240014
  29.8519992 110.7249978  23.1310014  29.2828125 110.3811989  23.6925306
  28.8539992  99.8469978  25.7440014  29.6659992 100.3509978  25.7900014
  28.6099992  99.7019978  26.6580014  28.9321467  99.8963749  25.8738575
  29.3899992 100.8329978  34.9280014  29.5089992 101.4069978  35.6850014
  30.0449992 100.1449978  35.0430014  29.4948684 100.8185194  35.0471674
  29.7379992  96.9279978  26.6820014  29.3909992  97.5449978  27.3260014
  30.3969992  97.4289978  26.2000014  29.7795090  97.0801575  26.7050681
  26.6609992 111.2929978  23.7530014  26.8219992 112.0929978  23.2530014
  26.4639992 111.5999978  24.6380014  26.6563906 111.4438678  23.8042333
  25.3959992  97.9909978  23.3690014  25.3119992  98.8789978  23.7160014
  26.2859992  97.7259978  23.6010014  25.5048163  98.0767179  23.4478596
  35.5939992  98.7399978  35.7630014  34.6779992  99.0019978  35.6760014
  35.9299992  98.7369978  34.8670014  35.5138499  98.7755163  35.6298766
  34.1969992 102.4899978  29.8590014  33.3989992 102.0749978  29.5310014
  34.6419992 101.7999978  30.3500014  34.1479684 102.3398628  29.8805227
  23.6539992 108.4179978  22.4290014  24.2459992 109.1179978  22.7060014
  24.1129992 107.9849978  21.7100014  23.7971652 108.4552675  22.3696533
  21.9699992 101.0829978  21.5450014  21.9249992 102.0219978  21.7240014
  21.0819992 100.8469978  21.2760014  21.8438166 101.1796687  21.5331524
  35.2829992 111.7459978  31.4810014  35.1269992 112.4249978  30.8240014
  36.2159992 111.8179978  31.6840014  35.3877387 111.8486390  31.4185342
  22.7779992  95.8639978  30.2190014  22.5489992  95.9229978  29.2910014
  22.3359992  95.0729978  30.5250014  22.6868801  95.7650540  30.1334729
  21.7089992 109.8049978  26.3790014  20.8759992 110.2769978  26.4060014
  22.2539992 110.3149978  25.7800014  21.6687857 109.9384791  26.3017142
  20.9969992 112.4169978  37.7090014  21.5369992 112.2009978  38.4690014
  20.5159992 111.6119978  37.5190014  21.0059219 112.2785156  37.7874282
  25.5939992 111.3369978  39.3290014  26.3619992 110.8779978  39.6700014
  25.5729992 111.1109978  38.3990014  25.6962135 111.2436668  39.2499491
  29.6859992 110.8449978  20.7050014  29.0419992 110.2139978  21.0260014
  30.4479992 110.3139978  20.4730014  29.7008058 110.6867902  20.7176038
  32.1709992 109.7169978  38.0580014  31.8199992 108.8599978  38.3020014
  32.8969992 109.8589978  38.6650014  32.2211895 109.6191351  38.1733770
  34.2909992 110.6619978  20.9380014  34.5739992 109.8669978  21.3910014
  35.0299992 110.8949978  20.3770014  34.4297096 110.5847049  20.9241104
  20.9039992 106.2279978  38.6630014  21.0479992 105.3259978  38.3770014
  20.1319992 106.5139978  38.1760014  20.8192733 106.1431798  38.5579532
  25.2449992 106.5709978  20.7960014  25.3099992 105.7769978  21.3260014
  25.8979992 106.4529978  20.1060014  25.3421605 106.4463430  20.7752997
  27.5589992 106.1969978  38.0960014  27.2309992 106.4679978  37.2390014
  27.7109992 105.2559978  38.0080014  27.5346412 106.1069046  37.9667822
  30.5979992 107.6179978  20.5320014  30.3289992 107.7989978  21.4320014
  30.3909992 106.6929978  20.4000014  30.5331191 107.5177119  20.6375524
  33.2939992 106.1129978  35.4790014  34.0389992 106.7019978  35.3600014
  32.5369992 106.6949978  35.5430014  33.2935470 106.2722128  35.4713799
  21.7369992 103.4279978  38.0830014  22.1449992 102.5709978  37.9620014
  21.4759992 103.4419978  39.0040014  21.7576016 103.3125119  38.1909192
  26.3949992 104.5439978  23.1020014  25.9349992 104.0599978  23.7870014
  26.6499992 103.8749978  22.4660014  26.3664856 104.3873669  23.1098397
  25.6839992 102.4369978  35.4580014  25.0649992 103.1109978  35.7380014
  26.0279992 102.7579978  34.6240014  25.6457123 102.5726887  35.3836388
  27.4659992 102.7869978  21.3640014  27.2849992 102.6319978  20.4370014
  28.4159992 102.8949978  21.4090014  27.5696566 102.7803669  21.2430929
  30.7029992 104.9079978  38.7350014  31.6569992 104.9919978  38.7080014
  30.5429992 104.1959978  39.3550014  30.8117182 104.8232842  38.8150733
  36.8559992 105.1409978  20.8100014  36.5819992 104.7169978  19.9970014
  36.8949992 106.0729978  20.5930014  36.8237716 105.2088827  20.6694286
  26.0229992  99.7919978  36.5400014  26.1729992  99.0629978  35.9380014
  26.0249992 100.5689978  35.9810014  26.0437967  99.7972708  36.3820541
  26.4359992  98.1609978  34.0330014  26.9709992  98.6129978  33.3810014
  25.5829992  98.0529978  33.6100014  26.3940374  98.2082665  33.8866710
  28.0169992 103.6009978  34.2720014  28.7679992 103.4449978  33.6990014
  27.6779992 104.4529978  33.9970014  28.0739587 103.6948138  34.1564078
  32.4329992 101.4159978  39.3010014  32.6249992 100.4849978  39.1890014
  33.2909992 101.8409978  39.2900014  32.5752182 101.3460070  39.2841862
  33.7499992 104.2049978  37.3780014  33.4679992 104.9139978  36.8000014
  34.6919992 104.1319978  37.2270014  33.8387921 104.2922193  37.2784225
  24.5019992 100.9899978  38.4510014  23.7339992 100.4569978  38.2410014
  25.1799992 100.6799978  37.8520014  24.4887235 100.8751754  38.3412413
  27.2409992  95.6179978  34.4640014  27.1429992  96.5639978  34.3590014
  26.4989992  95.2449978  33.9880014  27.1272534  95.6971773  34.3852600
  28.5049992  99.9389978  38.0280014  28.2699992  99.7199978  38.9290014
  27.7219992  99.7319978  37.5180014  28.3669095  99.8809892  38.0825353
  31.2209992  99.0669978  37.1030014  30.2729992  99.0989978  37.2350014
  31.5329992  98.4409978  37.7570014  31.1335293  98.9867923  37.2094148
  32.8549992  97.7009978  39.1080014  32.7579992  96.7489978  39.1030014
  32.5329992  97.9689978  39.9690014  32.7982468  97.6070884  39.2236210
  22.6819992  98.9099978  38.1560014  22.8939992  98.2039978  37.5460014
  22.5709992  98.4729978  39.0000014  22.6960269  98.7541921  38.1865873
  27.4629992  94.9119978  37.1350014  28.1749992  94.2719978  37.1210014
  27.3619992  95.1779978  36.2220014  27.5467387  94.8604330  37.0095563
  27.8169992  96.5939978  39.1890014  27.6849992  96.1189978  38.3690014
  27.2169992  97.3389978  39.1340014  27.7179070  96.6295789  39.0693251
  27.3629992 113.4769978  22.3650014  28.2959992 113.6349978  22.5090014
  27.0989992 114.1529978  21.7400014  27.4549911 113.5899373  22.3002722
  20.9309992 108.1139978  21.8480014  21.8449992 108.1929978  22.1210014
  20.9389992 107.4269978  21.1820014  21.0570655 108.0319205  21.7952917
  19.5799992 113.5069978  26.9250014  18.9329992 113.0449978  26.3930014
  19.9349992 112.8349978  27.5080014  19.5393741 113.3529774  26.9309175
  20.4499992 111.5869978  28.7300014  20.1159992 110.7069978  28.9020014
  20.6729992 111.9329978  29.5950014  20.4343721 111.5131938  28.8704168
  37.9989992 112.3969978  31.7110014  37.9769992 112.5819978  32.6500014
  38.6889992 112.9649978  31.3700014  38.0893439 112.4991887  31.7934791
  37.5619992 111.9639978  34.6320014  37.0749992 111.2289978  34.2610014
  38.1109992 111.5699978  35.3100014  37.5695247 111.8101057  34.6728461
  36.0129992 107.7539978  39.2710014  35.1469992 107.6489978  39.6650014
  36.3889992 108.5119978  39.7170014  35.9453401 107.8421708  39.3852620
  37.3139992 106.0099978  24.7850014  38.1639992 106.4309978  24.9120014
  37.3189992 105.2699978  25.3920014  37.4311143 105.9676094  24.8844750
  37.7079992 104.0639978  26.6080014  36.9819992 103.5839978  27.0060014
  38.2899992 104.2689978  27.3410014  37.6872730 104.0260184  26.7614149
  37.4669992 106.8489978  31.5560014  38.3009992 106.4709978  31.2750014
  37.5789992 107.7919978  31.4370014  37.5961917 106.9247943  31.5014861
  35.9539992 109.7269978  33.8630014  35.3059992 110.0519978  34.4880014
  35.4359992 109.2859978  33.1890014  35.7954196 109.7118651  33.8574152
  37.9769992 103.9649978  22.9990014  37.4549992 104.3209978  22.2810014
  37.9439992 104.6399978  23.6780014  37.9010129 104.1049598  22.9923355
  36.3259992 101.2039978  21.5500014  36.4219992 101.8709978  20.8700014
  36.1859992 100.3889978  21.0690014  36.3202040 101.1850671  21.3918378
  35.4949992 102.5849978  27.1710014  35.3449992 101.6399978  27.1510014
  35.1409992 102.8659978  28.0150014  35.4266351 102.4936644  27.2823220
  20.5299992 104.6629978  31.1820014  20.7149992 104.5809978  30.2460014
  21.3799992 104.5389978  31.6050014  20.6700928 104.6350463  31.1112893
  36.3509992 104.5549978  36.8100014  36.9339992 103.8199978  37.0020014
  36.9149992 105.3269978  36.8570014  36.5069781 104.5588145  36.8426164
  37.8479992 102.4579978  37.4950014  36.9849992 102.0789978  37.3290014
  38.4519992 101.7189978  37.4200014  37.8116085 102.3063223  37.4621695
  35.5729992  98.6119978  20.6680014  36.1839992  98.2409978  21.3050014
  34.7359992  98.1909978  20.8640014  35.5434947  98.5042756  20.7817252
  35.2059992 100.1669978  25.6340014  35.4849992  99.2599978  25.7580014
  35.9649992 100.6009978  25.2450014  35.3468619 100.1014502  25.5983795
  35.8169992 100.7489978  31.0700014  36.7499992 100.9609978  31.0350014
  35.5819992 100.8499978  31.9920014  35.9129517 100.7916833  31.1899130
  35.8469992 101.4859978  33.8460014  35.0039992 101.7539978  34.2120014
  36.2889992 102.3079978  33.6350014  35.7914138 101.6338273  33.8675518
  20.1279992  99.9329978  37.3220014  21.0469992  99.8109978  37.5590014
  19.6779992  99.1829978  37.7120014  20.1930087  99.8149608  37.4071410
  38.1299992  95.4659978  39.1990014  38.4789992  94.8119978  38.5940014
  38.2769992  96.3029978  38.7590014  38.1976824  95.4896024  39.0566304
  35.8189992  97.4299978  25.6820014  36.0009992  96.9809978  26.5070014
  35.2189992  96.8459978  25.2180014  35.7628187  97.2895552  25.7322739
  21.3489992  98.2459978  30.2140014  21.7939992  97.4539978  30.5160014
  21.8149992  98.9619978  30.6440014  21.4729718  98.2344534  30.3135265
  19.6529992 101.2449978  31.2830014  20.1449992 101.0239978  30.4920014
  20.0149992 102.0849978  31.5640014  19.7692923 101.3283468  31.2127407
  37.6489992  97.5749978  37.5480014  36.7319992  97.8459978  37.5130014
  37.7719992  97.0399978  36.7640014  37.5399672  97.5397885  37.4371862
  37.6859992  97.4979978  22.2100014  38.0979992  96.7769978  21.7350014
  38.3669992  98.1669978  22.2680014  37.8345536  97.4897766  22.1528024
  19.9669992  97.5029978  25.3370014  19.0419992  97.7109978  25.2080014
  20.4209992  97.9869978  24.6470014  19.9016298  97.5969299  25.2260451
  34.7369992 112.4869978  27.2830014  35.3899992 112.1389978  26.6750014
  35.2479992 112.9749978  27.9290014  34.8952777 112.5053815  27.2872047
  19.9299992  96.2409978  33.6810014  19.2649992  95.9949978  34.3240014
  19.4869992  96.8629978  33.1040014  19.7791168  96.2914214  33.6909848
  22.1219992 109.4159978  37.8260014  21.3009992 109.5909978  37.3650014
  21.8699992 109.3429978  38.7460014  21.9755594 109.4300717  37.8873611
  25.0759992 110.3899978  34.0840014  24.6519992 111.1999978  33.8020014
  25.9809992 110.4759978  33.7820014  25.1402138 110.5124160  34.0046415
  29.3879992 111.7889978  37.0440014  29.5719992 111.4559978  37.9220014
  30.2339992 112.0989978  36.7220014  29.5276484 111.7852979  37.1207617
  31.7329992 113.0749978  36.2880014  32.4099992 112.4419978  36.0480014
  32.0539992 113.4759978  37.0950014  31.8691323 113.0425691  36.3643158
  36.6499992  95.6649978  35.3670014  35.8369992  95.9899978  34.9800014
  36.8829992  94.9039978  34.8340014  36.5701347  95.6066880  35.2419841
  22.4779992 113.6469978  34.1320014  21.7579992 114.0869978  33.6810014
  22.1129992 113.3959978  34.9800014  22.3299643 113.6733369  34.1849129
  24.9449992 113.2469978  33.1620014  24.0809992 113.3189978  33.5660014
  24.8899992 113.7939978  32.3780014  24.8191942 113.3307849  33.1114000
  29.6559992 113.1349978  32.3370014  29.1989992 113.6639978  31.6830014
  29.8189992 113.7379978  33.0620014  29.6154960 113.2889280  32.3455274
  31.9839992 112.0129978  33.2820014  31.0789992 112.1779978  33.0160014
  32.4119992 112.8659978  33.2160014  31.9181537 112.1509134  33.2367095
  34.5879992 113.5829978  33.5770014  34.4059992 114.4989978  33.3660014
  34.7649992 113.1719978  32.7300014  34.5870030 113.6528273  33.4337166
  21.8929992 112.2699978  31.0420014  21.8749992 111.8439978  31.8990014
  22.6979992 111.9509978  30.6330014  21.9992875 112.1686435  31.1039515
  24.0339992 110.9799978  29.6970014  23.8149992 110.0629978  29.8670014
  24.8579992 111.1199978  30.1630014  24.1154702 110.8735511  29.7832527
  26.5709992 111.4499978  30.5460014  26.7839992 110.5619978  30.2590014
  26.6359992 111.4149978  31.5000014  26.6089149 111.3238326  30.6357369
  30.0799992  97.1139978  29.6900014  29.4059992  96.4839978  29.9460014
  30.6439992  96.6299978  29.0870014  30.0640384  96.9623708  29.6435020
  35.2229992  95.2209978  29.8030014  35.8259992  95.7689978  29.3010014
  34.3529992  95.5399978  29.5620014  35.1879157  95.3390373  29.7017910
  36.9499992  96.3599978  28.1360014  37.5609992  95.8459978  27.6090014
  37.3319992  97.2369978  28.1590014  37.0853305  96.4082050  28.0669418
  22.4069992  95.7479978  27.5120014  21.6299992  95.5129978  27.0050014
  22.9369992  94.9509978  27.5210014  22.3723451  95.6081268  27.4438627
  21.2429992  95.5459978  23.3160014  21.6819992  96.1569978  22.7240014
  20.6089992  96.0839978  23.7900014  21.2173859  95.7024064  23.2990305
  26.9859992  95.6739978  27.3250014  27.8599992  96.0629978  27.2960014
  26.8499992  95.4589978  28.2480014  27.0871953  95.6981643  27.4457617
  32.5429992  95.7039978  28.9750014  32.6189992  95.7999978  28.0250014
  32.2679992  94.7969978  29.1030014  32.5161871  95.5944146  28.8623944
  33.8959992  95.7299978  24.6670014  33.1929992  96.3449978  24.4570014
  33.4509992  94.8929978  24.7980014  33.7396550  95.7009668  24.6559837
  21.1439992 111.4939978  24.2130014  20.4589992 111.4559978  23.5460014
  21.1479992 112.4069978  24.5010014  21.0507621 111.6121924  24.1606126
  23.1039992  97.4619978  21.7580014  23.5949992  96.8319978  21.2310014
  23.7269992  97.7579978  22.4210014  23.2555304  97.4157376  21.7754940
  28.1299992  97.7549978  24.2150014  28.3079992  97.1079978  24.8980014
  28.0759992  98.5889978  24.6820014  28.1470678  97.7791604  24.3716301
  30.0079992 112.7029978  22.6110014  30.8739992 113.0699978  22.4330014
  29.7619992 112.2639978  21.7970014  30.0932097 112.6938525  22.4766019
  36.7169992 112.2659978  25.2900014  36.5229992 111.5179978  24.7250014
  36.6779992 113.0239978  24.7070014  36.6851645 112.2660786  25.1338148
  22.3639992  96.2619978  37.0300014  21.9979992  95.4959978  37.4720014
  23.2769992  96.2909978  37.3160014  22.4373172  96.1610324  37.1291890
  24.3369992  95.6119978  38.5650014  25.2359992  95.3379978  38.3810014
  23.9509992  94.8699978  39.0300014  24.4077307  95.4742196  38.6027098
  22.9619992 112.4139978  21.2380014  22.6939992 112.6999978  22.1120014
  23.7329992 111.8679978  21.3910014  23.0295926 112.3792779  21.3781205
  32.7589992  94.9449978  38.7480014  32.8349992  94.5189978  39.6010014
  33.6519992  94.9579978  38.4050014  32.8902303  94.8883493  38.8185497
  35.9349992 111.0179978  37.4400014  35.1529992 110.8309978  36.9200014
  35.8629992 111.9469978  37.6570014  35.8181924 111.1180637  37.3981602
  50.3409992 104.9039978  27.4710014  50.4299992 105.8479978  27.3390014
  49.7029992 104.6289978  26.8130014  50.2669062 104.9959812  27.3639641
  49.2739992 104.1589978  30.8900014  49.2359992 103.5129978  31.5950014
  48.9519992 103.6919978  30.1190014  49.2252679 104.0074276  30.8822921
  41.6419992 103.7729978  32.4830014  41.6839992 103.1479978  33.2060014
  42.3449992 104.3969978  32.6650014  41.7427345 103.7717873  32.6065273
  52.9799992 107.0979978  29.1910014  52.5389992 106.3779978  29.6420014
  52.9669992 107.8189978  29.8210014  52.9179215 107.0969291  29.3378105
  42.5659992 108.2229978  31.0180014  42.1959992 107.4209978  30.6480014
  43.5069992 108.0549978  31.0640014  42.6425984 108.0904638  30.9735603
  39.1759992 101.8829978  26.4100014  38.7279992 102.7289978  26.3920014
  38.6149992 101.3039978  25.8950014  39.0388546 101.9203993  26.3378891
  39.8859992 104.0449978  28.5360014  40.0999992 103.2749978  29.0640014
  40.6239992 104.1349978  27.9330014  40.0150200 103.9518586  28.5267035
  50.0919992 112.2019978  29.4030014  50.7109992 111.5259978  29.1300014
  49.8829992 111.9839978  30.3120014  50.1486056 112.0798869  29.4883967
  47.6629992 106.5909978  31.2960014  47.9669992 105.9049978  30.7010014
  48.3849992 106.7099978  31.9140014  47.8021240 106.5132314  31.2980959
  56.3259992  98.1929978  32.1560014  56.3759992  98.8029978  32.8920014
  56.7519992  98.6539978  31.4330014  56.3904108  98.3387709  32.1590112
  50.8039992 100.9849978  31.6230014  50.9469992 100.0389978  31.6430014
  50.6979992 101.1919978  30.6950014  50.8092403 100.8834797  31.5002239
  43.9589992  99.0869978  28.8960014  44.0019992  99.9469978  28.4770014
  43.5009992  98.5349978  28.2620014  43.9029871  99.1299245  28.7530761
  51.6809992  99.2179978  27.2970014  52.3279992  98.8889978  27.9210014
  52.1909992  99.7349978  26.6740014  51.8384351  99.2429067  27.2981037
  40.5789992 101.4839978  29.6580014  41.2329992 100.9339978  30.0900014
  40.6029992 101.2099978  28.7410014  40.6717199 101.3717167  29.5931668
  45.7359992 103.0339978  28.8730014  46.3519992 102.5069978  29.3820014
  45.1489992 102.3939978  28.4690014  45.7410154 102.8753954  28.8880945
  56.7179992  99.6709978  34.3920014  56.0289992 100.3289978  34.2970014
  56.7329992  99.4729978  35.3290014  56.6257756  99.7342603  34.5055812
  42.7689992  98.0049978  32.9700014  42.5499992  98.5349978  32.2030014
  42.1009992  98.2309978  33.6170014  42.6486975  98.1080967  32.9525140
  50.1379992 107.5049978  26.5140014  49.8429992 107.1819978  25.6620014
  49.8139992 108.4049978  26.5550014  50.0538460 107.5824464  26.4029714
  45.3379992 105.6799978  33.2570014  44.5979992 106.2789978  33.3610014
  46.0519992 106.2339978  32.9420014  45.3333500 105.8367829  33.2286371
  53.4449992  98.5089978  29.2770014  53.2299992  97.7429978  29.8100014
  54.1009992  98.9809978  29.7900014  53.5042673  98.4680728  29.4191990
  42.3629992  99.8969978  30.9220014  42.9769992 100.5299978  31.2950014
  42.8749992  99.4249978  30.2660014  42.5161962  99.9197249  30.8842935
  43.7459992 107.6449978  34.0440014  43.7399992 108.5239978  33.6660014
  42.8919992 107.5609978  34.4690014  43.6297925 107.7539535  34.0496887
  39.8669992 107.3159978  24.8260014  39.5949992 107.5449978  23.9380014
  39.9119992 108.1529978  25.2870014  39.8358097 107.4606163  24.7666683
  53.4919992 108.9369978  31.5390014  52.5499992 108.9959978  31.7010014
  53.7679992 109.8429978  31.4020014  53.4005865 109.0675288  31.5426192
  53.7919992  97.2239978  32.9560014  53.0559992  97.8339978  32.9190014
  54.4759992  97.6389978  32.4300014  53.7835367  97.3637551  32.8798174
  46.7959992  95.3099978  30.4220014  46.6779992  94.3619978  30.3680014
  45.9409992  95.6429978  30.6950014  46.6642805  95.2252202  30.4515079
  51.7439992 110.7179978  28.1640014  52.1689992 110.0109978  27.6790014
  52.0609992 111.5199978  27.7470014  51.8450266 110.7295190  28.0412479
  52.9039992 108.6189978  26.6730014  52.6459992 107.9289978  26.0610014
  52.9749992 108.1759978  27.5180014  52.8783050 108.4646814  26.7035621
  54.5899992 107.1859978  35.1500014  54.7289992 106.5939978  34.4110014
  54.7569992 108.0589978  34.7940014  54.6316193 107.2228896  35.0006211
  49.0619992 104.1479978  24.9230014  48.3509992 104.6829978  24.5710014
  49.7529992 104.2029978  24.2630014  49.0580751 104.2286777  24.7855858
  49.1159992 102.6049978  21.9610014  49.8169992 102.6279978  22.6130014
  49.4179992 101.9769978  21.3050014  49.2528202 102.5232212  21.9615609
  56.4309992 103.5259978  33.2160014  55.7789992 104.2199978  33.3050014
  56.8969992 103.7359978  32.4060014  56.4045937 103.6495019  33.1187533
  52.4679992 104.3569978  25.8740014  51.7359992 104.5859978  26.4480014
  52.9149992 103.6439978  26.3290014  52.4283963 104.2918729  26.0139945
  52.3649992 102.5319978  34.9420014  52.4449992 103.2949978  35.5140014
  51.7639992 102.8109978  34.2520014  52.2946547 102.6742457  34.9270047
  44.1129992 104.9879978  27.7570014  43.7829992 104.6169978  26.9390014
  44.7019992 104.3169978  28.1040014  44.1473970 104.8466063  27.6919404
  45.4799992 108.4159978  30.4380014  45.3849992 107.8369978  29.6820014
  46.2089992 108.0449978  30.9340014  45.5656011 108.2865561  30.4016028
  44.4799992 103.7559978  31.3900014  45.0449992 103.8779978  30.6280014
  44.7989992 104.3939978  32.0290014  44.6004166 103.8588791  31.3720348
  50.7889992 109.2599978  32.1240014  50.5489992 109.9219978  32.7720014
  50.5909992 108.4249978  32.5490014  50.7293826 109.2378115  32.2701566
  45.3599992 108.1559978  36.1080014  45.0489992 108.9379978  36.5630014
  44.7099992 108.0029978  35.4220014  45.2295538 108.2424087  36.0775898
  51.3389992 103.5199978  23.5600014  51.9179992 103.6699978  24.3060014
  51.7529992 103.9899978  22.8360014  51.4743358 103.6040955  23.5643953
  42.2799992 104.3539978  35.3360014  42.3499992 105.0049978  36.0350014
  41.3889992 104.4569978  35.0010014  42.1691690 104.4569249  35.3863043
  49.0649992 110.2559978  26.9950014  49.5389992 110.5519978  27.7720014
  48.5019992 110.9949978  26.7620014  49.0537890 110.3963036  27.0698101
  43.5989992 110.2269978  36.8710014  43.6069992 110.0909978  35.9240014
  42.6829992 110.1099978  37.1230014  43.4762528 110.1925463  36.7753243
  55.0379992  95.2699978  23.3730014  54.1379992  95.4089978  23.6680014
  55.2899992  96.1009978  22.9710014  54.9488683  95.4014055  23.3590232
  43.1039992 104.0569978  25.3460014  42.8119992 104.8249978  24.8550014
  42.4289992 103.3979978  25.1830014  42.9728497 104.0729745  25.2568260
  56.2269992 109.6359978  21.7490014  56.2999992 110.5749978  21.9190014
  57.1319992 109.3309978  21.6930014  56.3594170 109.7233282  21.7647063
  39.1969992 106.4199978  34.1610014  38.6949992 106.3919978  33.3460014
  39.2019992 105.5149978  34.4710014  39.1289832 106.2937486  34.0914121
  38.9469992 109.2009978  31.0450014  39.8929992 109.0559978  31.0260014
  38.8339992 109.9849978  31.5820014  39.0613578 109.2871697  31.1150317
  57.1449992 109.8669978  36.7280014  57.0949992 108.9109978  36.6900014
  56.3179992 110.1339978  37.1290014  57.0263831 109.7724680  36.7770121
  48.1229992 109.4409978  35.6040014  48.2109992 110.2669978  36.0790014
  47.2599992 109.1109978  35.8530014  48.0183357 109.5095468  35.7027653
  48.5379992 113.2129978  25.4100014  48.4619992 113.0919978  24.4630014
  48.5699992 114.1619978  25.5280014  48.5319380 113.3247677  25.2965181
  42.1909992 112.0019978  27.1910014  42.3429992 111.6539978  28.0690014
  41.3399992 111.6449978  26.9350014  42.0968344 111.9060879  27.2766868
  51.6389992 112.3669978  22.4120014  52.0139992 111.6229978  21.9410014
  51.6439992 112.0969978  23.3300014  51.6910098 112.2286392  22.4716629
  51.3079992 112.2929978  25.1610014  50.3729992 112.3929978  25.3400014
  51.5879992 111.5829978  25.7400014  51.2179471 112.2107933  25.2636695
  54.2969992 101.3599978  37.2080014  53.8889992 101.8399978  36.4870014
  54.3369992 100.4539978  36.9000014  54.2466221 101.3032449  37.0678267
  41.4459992 107.7439978  35.2040014  41.6619992 107.3819978  36.0640014
  40.5899992 107.3689978  34.9950014  41.3598810 107.6438837  35.2932680
  44.0639992  96.2139978  31.2000014  43.2029992  96.1269978  30.7920014
  44.0419992  97.0699978  31.6280014  43.9430491  96.3178003  31.2019582
  48.7269992  95.9359978  34.5750014  49.1469992  95.5209978  35.3280014
  47.7939992  95.7569978  34.6920014  48.6583736  95.8549910  34.6938968
  52.0539992  99.6909978  35.4280014  51.5399992  99.5659978  36.2260014
  51.8979992 100.6039978  35.1840014  51.9626967  99.7972123  35.5040937
  52.8159992 104.5519978  21.1890014  52.8579992 104.3299978  20.2590014
  53.6649992 104.9509978  21.3790014  52.9365253 104.5755498  21.0873822
  48.3889992  98.4279978  21.8600014  48.1349992  98.4469978  22.7820014
  48.1319992  97.5569978  21.5580014  48.3194508  98.3128280  21.9454803
  44.1549992 101.1789978  32.2950014  43.5139992 101.1389978  33.0040014
  44.1929992 102.1059978  32.0570014  44.0723010 101.2987668  32.3599946
  44.1519992 101.3999978  27.2070014  43.2599992 101.0599978  27.1480014
  44.6029992 101.0229978  26.4510014  44.0907642 101.3024910  27.0967726
  49.6879992 101.8159978  26.0240014  49.2789992 102.6309978  25.7320014
  50.4079992 101.6759978  25.4100014  49.7294439 101.9085372  25.9010115
  48.7899992 101.9919978  37.5120014  48.2269992 101.2869978  37.8330014
  49.6159992 101.8709978  37.9800014  48.8246674 101.8792165  37.6191751
  50.6929992 101.2619978  28.8380014  50.4969992 101.8679978  28.1230014
  50.8739992 100.4289978  28.4040014  50.6906584 101.2322513  28.6814212
  41.9049992 101.4999978  34.1620014  41.8669992 101.8999978  35.0310014
  41.4149992 100.6829978  34.2520014  41.8335330 101.4442674  34.2931289
  45.2709992  98.8739978  20.9610014  44.8399992  98.4289978  21.6900014
  44.5529992  99.2449978  20.4480014  45.1149176  98.8632051  20.9914930
  38.5139992  98.6159978  28.0130014  39.1439992  98.5869978  28.7320014
  38.9629992  98.1909978  27.2820014  38.6610835  98.5545660  28.0127659
  39.7879992  99.3619978  23.4370014  40.2619992  99.9529978  22.8520014
  39.0699992  99.8919978  23.7840014  39.7558640  99.5145511  23.4037969
  49.9569992 102.8999978  33.5090014  50.2799992 102.2689978  32.8660014
  49.5159992 102.3659978  34.1700014  49.9416379 102.7413468  33.5102582
  46.7339992  98.8279978  28.2930014  45.8229992  98.8849978  28.5820014
  47.2389992  98.7679978  29.1040014  46.6776873  98.8276826  28.4421207
  41.5619992 100.4569978  27.1200014  40.6729992 100.5559978  26.7800014
  41.8589992  99.6149978  26.7740014  41.4804177 100.3567687  27.0266940
  45.2149992 100.4569978  24.7770014  46.1469992 100.5859978  24.9550014
  44.9999992 101.1259978  24.1270014  45.3134472 100.5650806  24.7134891
  51.1389992  98.0629978  31.5580014  50.4619992  98.1939978  32.2210014
  50.6539992  97.9079978  30.7470014  50.9807405  98.0599947  31.5392170
  43.8889992 101.6509978  22.3430014  43.3469992 101.2719978  21.6520014
  44.7229992 101.8459978  21.9150014  43.9274390 101.6254079  22.1904392
  54.4269992 113.7339978  37.8340014  54.6259992 114.1579978  37.0000014
  55.0819992 114.0779978  38.4410014  54.5428522 113.8386301  37.8017852
  42.0249992 106.2079978  37.4420014  42.7569992 106.4629978  38.0040014
  41.2439992 106.4129978  37.9580014  42.0196526 106.2705450  37.5885176
  48.0539992 101.6149978  30.1800014  48.6179992 101.0689978  29.6330014
  47.9059992 101.0939978  30.9690014  48.1113037 101.4696787  30.2117229
  43.0559992  97.7519978  26.5990014  42.7389992  96.8489978  26.5630014
  43.8369992  97.7539978  26.0460014  43.1182431  97.6287797  26.5193102
  46.6799992 100.0039978  32.5940014  45.8449992 100.4579978  32.7050014
  47.2039992 100.2799978  33.3460014  46.6366072 100.1033948  32.7108136
  47.2249992 106.2169978  24.2790014  46.4799992 105.7089978  23.9570014
  47.0899992 106.2659978  25.2250014  47.1048963 106.1541731  24.3628826
  54.3749992 105.3499978  33.0660014  55.0159992 105.8059978  32.5220014
  53.5439992 105.4629978  32.6030014  54.3505287 105.4276921  32.9289887
  51.1219992  99.0309978  22.4780014  50.1839992  99.1419978  22.3270014
  51.4199992  99.8869978  22.7850014  51.0336318  99.1620158  22.4988145
  48.7439992 106.4009978  35.5160014  48.3979992 106.0189978  36.3230014
  48.5439992 107.3339978  35.5870014  48.6695987 106.4749002  35.6360461
  51.8409992 100.8979978  24.1390014  52.7329992 100.7599978  24.4580014
  51.8969992 101.6889978  23.6020014  51.9707325 100.9859918  24.1101217
  42.3489992 105.5119978  30.0490014  43.0939992 105.5089978  29.4470014
  42.4269992 104.6879978  30.5300014  42.4613365 105.4002384  30.0317430
  49.3499992 107.6749978  23.3040014  49.0549992 108.5019978  23.6860014
  48.6469992 107.0559978  23.5010014  49.2146379 107.7044171  23.3828654
  39.3569992 103.9719978  35.3640014  39.5799992 103.5539978  36.1950014
  38.7549992 103.3599978  34.9410014  39.3061513 103.8319606  35.4206740
  46.3739992 103.4889978  37.5770014  46.0779992 103.3239978  36.6810014
  47.3049992 103.2689978  37.5660014  46.4594401 103.4366879  37.4530206
  50.9939992 108.8629978  35.4660014  50.0939992 109.0459978  35.1990014
  51.0279992 109.1219978  36.3870014  50.8753748 108.9230554  35.5539164
  56.7259992 101.1069978  23.8340014  56.1709992 100.7109978  23.1610014
  56.8259992 102.0179978  23.5560014  56.6636816 101.1759505  23.7045033
  56.6889992 106.9079978  36.6710014  55.8379992 107.1459978  36.3030014
  57.2789992 106.8909978  35.9180014  56.6523812 106.9382524  36.5188453
  55.0209992 109.8929978  24.2990014  54.6479992 109.0679978  24.6080014
  55.2979992 109.7099978  23.4010014  55.0073463 109.7552569  24.2199525
  52.1809992 104.7009978  31.3200014  51.2529992 104.4699978  31.2930014
  52.6319992 103.9239978  30.9900014  52.1148165 104.5642774  31.2716790
  44.7239992 109.0299978  27.4530014  45.2519992 109.8029978  27.2530014
  43.8439992 109.2539978  27.1510014  44.6773435 109.1662700  27.3847310
  40.4789992 103.8919978  22.0400014  41.0949992 104.5189978  22.4200014
  39.6169992 104.2079978  22.3120014  40.4467678 104.0204412  22.1287209
  46.1519992 106.6929978  27.0290014  45.9109992 107.6179978  27.0710014
  45.4109992 106.2339978  27.4260014  46.0189206 106.7575915  27.0883769
  46.6659992 110.8419978  33.3440014  47.0289992 111.6959978  33.1110014
  47.1979992 110.5499978  34.0850014  46.7875141 110.9193895  33.4122097
  44.8349992 111.7139978  26.5750014  43.8849992 111.8199978  26.6260014
  45.1869992 112.5349978  26.9190014  44.7525472 111.8394923  26.6284852
  50.2099992 106.9409978  33.0450014  49.7849992 106.7129978  33.8710014
  50.7909992 106.2019978  32.8630014  50.2303395 106.8099545  33.1334414
  52.4129992 107.8699978  22.1190014  52.7669992 107.4899978  22.9230014
  51.4649992 107.7759978  22.2060014  52.3332298 107.8052452  22.2408687
  52.8689992 111.4929978  35.5140014  52.2669992 110.9369978  35.0190014
  53.1499992 112.1599978  34.8880014  52.8245757 111.5070744  35.3615675
  56.9169992 112.3489978  22.3200014  57.6609992 112.9349978  22.1800014
  56.2229992 112.9179978  22.6530014  56.9249809 112.5060818  22.3458590
  40.9909992  98.7259978  34.9220014  40.0989992  99.0639978  34.8540014
  40.8929992  97.8699978  35.3400014  40.8554475  98.6566543  34.9691704
  53.2789992 106.5419978  24.3460014  53.0019992 105.8139978  24.9020014
  54.2069992 106.6609978  24.5510014  53.3664499 106.4584213  24.4498044
  40.6429992 110.5299978  33.3570014  40.8599992 109.5979978  33.3260014
  40.8889992 110.8049978  34.2400014  40.7059809 110.4395686  33.4721691
  46.5039992 108.9819978  20.5660014  46.7429992 108.2329978  20.0190014
  46.2349992 108.5939978  21.3990014  46.5003233 108.8271853  20.6037809
  45.4409992 108.5519978  23.0220014  45.5879992 108.0319978  23.8120014
  45.4379992 109.4589978  23.3290014  45.4607102 108.6033953  23.1715925
  41.8939992 105.8039978  23.5330014  41.2079992 106.1569978  24.1000014
  42.4169992 106.5669978  23.2860014  41.8708402 105.9553901  23.5771801
  49.7259992  98.4669978  33.8120014  50.4249992  98.5409978  34.4620014
  49.3449992  97.6019978  33.9660014  49.7702097  98.3602389  33.9217997
  50.5099992  98.1189978  24.9090014  50.7299992  98.5899978  24.1050014
  51.0689992  98.5129978  25.5790014  50.6156731  98.2367287  24.8895033
  48.1789992 110.2489978  23.7720014  47.3619992 110.7459978  23.8240014
  48.7079992 110.7249978  23.1310014  48.1388125 110.3811989  23.6925306
  47.7099992  99.8469978  25.7440014  48.5219992 100.3509978  25.7900014
  47.4659992  99.7019978  26.6580014  47.7881467  99.8963749  25.8738575
  48.2459992 100.8329978  34.9280014  48.3649992 101.4069978  35.6850014
  48.9009992 100.1449978  35.0430014  48.3508684 100.8185194  35.0471674
  48.5939992  96.9279978  26.6820014  48.2469992  97.5449978  27.3260014
  49.2529992  97.4289978  26.2000014  48.6355090  97.0801575  26.7050681
  45.5169992 111.2929978  23.7530014  45.6779992 112.0929978  23.2530014
  45.3199992 111.5999978  24.6380014  45.5123906 111.4438678  23.8042333
  44.2519992  97.9909978  23.3690014  44.1679992  98.8789978  23.7160014
  45.1419992  97.7259978  23.6010014  44.3608163  98.0767179  23.4478596
  54.4499992  98.7399978  35.7630014  53.5339992  99.0019978  35.6760014
  54.7859992  98.7369978  34.8670014  54.3698499  98.7755163  35.6298766
  53.0529992 102.4899978  29.8590014  52.2549992 102.0749978  29.5310014
  53.4979992 101.7999978  30.3500014  53.0039684 102.3398628  29.8805227
  42.5099992 108.4179978  22.4290014  43.1019992 109.1179978  22.7060014
  42.9689992 107.9849978  21.7100014  42.6531652 108.4552675  22.3696533
  40.8259992 101.0829978  21.5450014  40.7809992 102.0219978  21.7240014
  39.9379992 100.8469978  21.2760014  40.6998166 101.1796687  21.5331524
  54.1389992 111.7459978  31.4810014  53.9829992 112.4249978  30.8240014
  55.0719992 111.8179978  31.6840014  54.2437387 111.8486390  31.4185342
  41.6339992  95.8639978  30.2190014  41.4049992  95.9229978  29.2910014
  41.1919992  95.0729978  30.5250014  41.5428801  95.7650540  30.1334729
  40.5649992 109.8049978  26.3790014  39.7319992 110.2769978  26.4060014
  41.1099992 110.3149978  25.7800014  40.5247857 109.9384791  26.3017142
  39.8529992 112.4169978  37.7090014  40.3929992 112.2009978  38.4690014
  39.3719992 111.6119978  37.5190014  39.8619219 112.2785156  37.7874282
  44.4499992 111.3369978  39.3290014  45.2179992 110.8779978  39.6700014
  44.4289992 111.1109978  38.3990014  44.5522135 111.2436668  39.2499491
  48.5419992 110.8449978  20.7050014  47.8979992 110.2139978  21.0260014
  49.3039992 110.3139978  20.4730014  48.5568058 110.6867902  20.7176038
  51.0269992 109.7169978  38.0580014  50.6759992 108.8599978  38.3020014
  51.7529992 109.8589978  38.6650014  51.0771895 109.6191351  38.1733770
  53.1469992 110.6619978  20.9380014  53.4299992 109.8669978  21.3910014
  53.8859992 110.8949978  20.3770014  53.2857096 110.5847049  20.9241104
  39.7599992 106.2279978  38.6630014  39.9039992 105.3259978  38.3770014
  38.9879992 106.5139978  38.1760014  39.6752733 106.1431798  38.5579532
  44.1009992 106.5709978  20.7960014  44.1659992 105.7769978  21.3260014
  44.7539992 106.4529978  20.1060014  44.1981605 106.4463430  20.7752997
  46.4149992 106.1969978  38.0960014  46.0869992 106.4679978  37.2390014
  46.5669992 105.2559978  38.0080014  46.3906412 106.1069046  37.9667822
  49.4539992 107.6179978  20.5320014  49.1849992 107.7989978  21.4320014
  49.2469992 106.6929978  20.4000014  49.3891191 107.5177119  20.6375524
  52.1499992 106.1129978  35.4790014  52.8949992 106.7019978  35.3600014
  51.3929992 106.6949978  35.5430014  52.1495470 106.2722128  35.4713799
  40.5929992 103.4279978  38.0830014  41.0009992 102.5709978  37.9620014
  40.3319992 103.4419978  39.0040014  40.6136016 103.3125119  38.1909192
  45.2509992 104.5439978  23.1020014  44.7909992 104.0599978  23.7870014
  45.5059992 103.8749978  22.4660014  45.2224856 104.3873669  23.1098397
  44.5399992 102.4369978  35.4580014  43.9209992 103.1109978  35.7380014
  44.8839992 102.7579978  34.6240014  44.5017123 102.5726887  35.3836388
  46.3219992 102.7869978  21.3640014  46.1409992 102.6319978  20.4370014
  47.2719992 102.8949978  21.4090014  46.4256566 102.7803669  21.2430929
  49.5589992 104.9079978  38.7350014  50.5129992 104.9919978  38.7080014
  49.3989992 104.1959978  39.3550014  49.6677182 104.8232842  38.8150733
  55.7119992 105.1409978  20.8100014  55.4379992 104.7169978  19.9970014
  55.7509992 106.0729978  20.5930014  55.6797716 105.2088827  20.6694286
  44.8789992  99.7919978  36.5400014  45.0289992  99.0629978  35.9380014
  44.8809992 100.5689978  35.9810014  44.8997967  99.7972708  36.3820541
  45.2919992  98.1609978  34.0330014  45.8269992  98.6129978  33.3810014
  44.4389992  98.0529978  33.6100014  45.2500374  98.2082665  33.8866710
  46.8729992 103.6009978  34.2720014  47.6239992 103.4449978  33.6990014
  46.5339992 104.4529978  33.9970014  46.9299587 103.6948138  34.1564078
  51.2889992 101.4159978  39.3010014  51.4809992 100.4849978  39.1890014
  52.1469992 101.8409978  39.2900014  51.4312182 101.3460070  39.2841862
  52.6059992 104.2049978  37.3780014  52.3239992 104.9139978  36.8000014
  53.5479992 104.1319978  37.2270014  52.6947921 104.2922193  37.2784225
  43.3579992 100.9899978  38.4510014  42.5899992 100.4569978  38.2410014
  44.0359992 100.6799978  37.8520014  43.3447235 100.8751754  38.3412413
  46.0969992  95.6179978  34.4640014  45.9989992  96.5639978  34.3590014
  45.3549992  95.2449978  33.9880014  45.9832534  95.6971773  34.3852600
  47.3609992  99.9389978  38.0280014  47.1259992  99.7199978  38.9290014
  46.5779992  99.7319978  37.5180014  47.2229095  99.8809892  38.0825353
  50.0769992  99.0669978  37.1030014  49.1289992  99.0989978  37.2350014
  50.3889992  98.4409978  37.7570014  49.9895293  98.9867923  37.2094148
  51.7109992  97.7009978  39.1080014  51.6139992  96.7489978  39.1030014
  51.3889992  97.9689978  39.9690014  51.6542468  97.6070884  39.2236210
  41.5379992  98.9099978  38.1560014  41.7499992  98.2039978  37.5460014
  41.4269992  98.4729978  39.0000014  41.5520269  98.7541921  38.1865873
  46.3189992  94.9119978  37.1350014  47.0309992  94.2719978  37.1210014
  46.2179992  95.1779978  36.2220014  46.4027387  94.8604330  37.0095563
  46.6729992  96.5939978  39.1890014  46.5409992  96.1189978  38.3690014
  46.0729992  97.3389978  39.1340014  46.5739070  96.6295789  39.0693251
  46.2189992 113.4769978  22.3650014  47.1519992 113.6349978  22.5090014
  45.9549992 114.1529978  21.7400014  46.3109911 113.5899373  22.3002722
  39.7869992 108.1139978  21.8480014  40.7009992 108.1929978  22.1210014
  39.7949992 107.4269978  21.1820014  39.9130655 108.0319205  21.7952917
  38.4359992 113.5069978  26.9250014  37.7889992 113.0449978  26.3930014
  38.7909992 112.8349978  27.5080014  38.3953741 113.3529774  26.9309175
  39.3059992 111.5869978  28.7300014  38.9719992 110.7069978  28.9020014
  39.5289992 111.9329978  29.5950014  39.2903721 111.5131938  28.8704168
  56.8549992 112.3969978  31.7110014  56.8329992 112.5819978  32.6500014
  57.5449992 112.9649978  31.3700014  56.9453439 112.4991887  31.7934791
  56.4179992 111.9639978  34.6320014  55.9309992 111.2289978  34.2610014
  56.9669992 111.5699978  35.3100014  56.4255247 111.8101057  34.6728461
  54.8689992 107.7539978  39.2710014  54.0029992 107.6489978  39.6650014
  55.2449992 108.5119978  39.7170014  54.8013401 107.8421708  39.3852620
  56.1699992 106.0099978  24.7850014  57.0199992 106.4309978  24.9120014
  56.1749992 105.2699978  25.3920014  56.2871143 105.9676094  24.8844750
  56.5639992 104.0639978  26.6080014  55.8379992 103.5839978  27.0060014
  57.1459992 104.2689978  27.3410014  56.5432730 104.0260184  26.7614149
  56.3229992 106.8489978  31.5560014  57.1569992 106.4709978  31.2750014
  56.4349992 107.7919978  31.4370014  56.4521917 106.9247943  31.5014861
  54.8099992 109.7269978  33.8630014  54.1619992 110.0519978  34.4880014
  54.2919992 109.2859978  33.1890014  54.6514196 109.7118651  33.8574152
  56.8329992 103.9649978  22.9990014  56.3109992 104.3209978  22.2810014
  56.7999992 104.6399978  23.6780014  56.7570129 104.1049598  22.9923355
  55.1819992 101.2039978  21.5500014  55.2779992 101.8709978  20.8700014
  55.0419992 100.3889978  21.0690014  55.1762040 101.1850671  21.3918378
  54.3509992 102.5849978  27.1710014  54.2009992 101.6399978  27.1510014
  53.9969992 102.8659978  28.0150014  54.2826351 102.4936644  27.2823220
  39.3859992 104.6629978  31.1820014  39.5709992 104.5809978  30.2460014
  40.2359992 104.5389978  31.6050014  39.5260928 104.6350463  31.1112893
  55.2069992 104.5549978  36.8100014  55.7899992 103.8199978  37.0020014
  55.7709992 105.3269978  36.8570014  55.3629781 104.5588145  36.8426164
  56.7039992 102.4579978  37.4950014  55.8409992 102.0789978  37.3290014
  57.3079992 101.7189978  37.4200014  56.6676085 102.3063223  37.4621695
  54.4289992  98.6119978  20.6680014  55.0399992  98.2409978  21.3050014
  53.5919992  98.1909978  20.8640014  54.3994947  98.5042756  20.7817252
  54.0619992 100.1669978  25.6340014  54.3409992  99.2599978  25.7580014
  54.8209992 100.6009978  25.2450014  54.2028619 100.1014502  25.5983795
  54.6729992 100.7489978  31.0700014  55.6059992 100.9609978  31.0350014
  54.4379992 100.8499978  31.9920014  54.7689517 100.7916833  31.1899130
  54.7029992 101.4859978  33.8460014  53.8599992 101.7539978  34.2120014
  55.1449992 102.3079978  33.6350014  54.6474138 101.6338273  33.8675518
  38.9839992  99.9329978  37.3220014  39.9029992  99.8109978  37.5590014
  38.5339992  99.1829978  37.7120014  39.0490087  99.8149608  37.4071410
  56.9859992  95.4659978  39.1990014  57.3349992  94.8119978  38.5940014
  57.1329992  96.3029978  38.7590014  57.0536824  95.4896024  39.0566304
  54.6749992  97.4299978  25.6820014  54.8569992  96.9809978  26.5070014
  54.0749992  96.8459978  25.2180014  54.6188187  97.2895552  25.7322739
  40.2049992  98.2459978  30.2140014  40.6499992  97.4539978  30.5160014
  40.6709992  98.9619978  30.6440014  40.3289718  98.2344534  30.3135265
  38.5089992 101.2449978  31.2830014  39.0009992 101.0239978  30.4920014
  38.8709992 102.0849978  31.5640014  38.6252923 101.3283468  31.2127407
  56.5049992  97.5749978  37.5480014  55.5879992  97.8459978  37.5130014
  56.6279992  97.0399978  36.7640014  56.3959672  97.5397885  37.4371862
  56.5419992  97.4979978  22.2100014  56.9539992  96.7769978  21.7350014
  57.2229992  98.1669978  22.2680014  56.6905536  97.4897766  22.1528024
  38.8229992  97.5029978  25.3370014  37.8979992  97.7109978  25.2080014
  39.2769992  97.9869978  24.6470014  38.7576298  97.5969299  25.2260451
  53.5929992 112.4869978  27.2830014  54.2459992 112.1389978  26.6750014
  54.1039992 112.9749978  27.9290014  53.7512777 112.5053815  27.2872047
  38.7859992  96.2409978  33.6810014  38.1209992  95.9949978  34.3240014
  38.3429992  96.8629978  33.1040014  38.6351168  96.2914214  33.6909848
  40.9779992 109.4159978  37.8260014  40.1569992 109.5909978  37.3650014
  40.7259992 109.3429978  38.7460014  40.8315594 109.4300717  37.8873611
  43.9319992 110.3899978  34.0840014  43.5079992 111.1999978  33.8020014
  44.8369992 110.4759978  33.7820014  43.9962138 110.5124160  34.0046415
  48.2439992 111.7889978  37.0440014  48.4279992 111.4559978  37.9220014
  49.0899992 112.0989978  36.7220014  48.3836484 111.7852979  37.1207617
  50.5889992 113.0749978  36.2880014  51.2659992 112.4419978  36.0480014
  50.9099992 113.4759978  37.0950014  50.7251323 113.0425691  36.3643158
  55.5059992  95.6649978  35.3670014  54.6929992  95.9899978  34.9800014
  55.7389992  94.9039978  34.8340014  55.4261347  95.6066880  35.2419841
  41.3339992 113.6469978  34.1320014  40.6139992 114.0869978  33.6810014
  40.9689992 113.3959978  34.9800014  41.1859643 113.6733369  34.1849129
  43.8009992 113.2469978  33.1620014  42.9369992 113.3189978  33.5660014
  43.7459992 113.7939978  32.3780014  43.6751942 113.3307849  33.1114000
  48.5119992 113.1349978  32.3370014  48.0549992 113.6639978  31.6830014
  48.6749992 113.7379978  33.0620014  48.4714960 113.2889280  32.3455274
  50.8399992 112.0129978  33.2820014  49.9349992 112.1779978  33.0160014
  51.2679992 112.8659978  33.2160014  50.7741537 112.1509134  33.2367095
  53.4439992 113.5829978  33.5770014  53.2619992 114.4989978  33.3660014
  53.6209992 113.1719978  32.7300014  53.4430030 113.6528273  33.4337166
  40.7489992 112.2699978  31.0420014  40.7309992 111.8439978  31.8990014
  41.5539992 111.9509978  30.6330014  40.8552875 112.1686435  31.1039515
  42.8899992 110.9799978  29.6970014  42.6709992 110.0629978  29.8670014
  43.7139992 111.1199978  30.1630014  42.9714702 110.8735511  29.7832527
  45.4269992 111.4499978  30.5460014  45.6399992 110.5619978  30.2590014
  45.4919992 111.4149978  31.5000014  45.4649149 111.3238326  30.6357369
  48.9359992  97.1139978  29.6900014  48.2619992  96.4839978  29.9460014
  49.4999992  96.6299978  29.0870014  48.9200384  96.9623708  29.6435020
  54.0789992  95.2209978  29.8030014  54.6819992  95.7689978  29.3010014
  53.2089992  95.5399978  29.5620014  54.0439157  95.3390373  29.7017910
  55.8059992  96.3599978  28.1360014  56.4169992  95.8459978  27.6090014
  56.1879992  97.2369978  28.1590014  55.9413305  96.4082050  28.0669418
  41.2629992  95.7479978  27.5120014  40.4859992  95.5129978  27.0050014
  41.7929992  94.9509978  27.5210014  41.2283451  95.6081268  27.4438627
  40.0989992  95.5459978  23.3160014  40.5379992  96.1569978  22.7240014
  39.4649992  96.0839978  23.7900014  40.0733859  95.7024064  23.2990305
  45.8419992  95.6739978  27.3250014  46.7159992  96.0629978  27.2960014
  45.7059992  95.4589978  28.2480014  45.9431953  95.6981643  27.4457617
  51.3989992  95.7039978  28.9750014  51.4749992  95.7999978  28.0250014
  51.1239992  94.7969978  29.1030014  51.3721871  95.5944146  28.8623944
  52.7519992  95.7299978  24.6670014  52.0489992  96.3449978  24.4570014
  52.3069992  94.8929978  24.7980014  52.5956550  95.7009668  24.6559837
  39.9999992 111.4939978  24.2130014  39.3149992 111.4559978  23.5460014
  40.0039992 112.4069978  24.5010014  39.9067621 111.6121924  24.1606126
  41.9599992  97.4619978  21.7580014  42.4509992  96.8319978  21.2310014
  42.5829992  97.7579978  22.4210014  42.1115304  97.4157376  21.7754940
  46.9859992  97.7549978  24.2150014  47.1639992  97.1079978  24.8980014
  46.9319992  98.5889978  24.6820014  47.0030678  97.7791604  24.3716301
  48.8639992 112.7029978  22.6110014  49.7299992 113.0699978  22.4330014
  48.6179992 112.2639978  21.7970014  48.9492097 112.6938525  22.4766019
  55.5729992 112.2659978  25.2900014  55.3789992 111.5179978  24.7250014
  55.5339992 113.0239978  24.7070014  55.5411645 112.2660786  25.1338148
  41.2199992  96.2619978  37.0300014  40.8539992  95.4959978  37.4720014
  42.1329992  96.2909978  37.3160014  41.2933172  96.1610324  37.1291890
  43.1929992  95.6119978  38.5650014  44.0919992  95.3379978  38.3810014
  42.8069992  94.8699978  39.0300014  43.2637307  95.4742196  38.6027098
  41.8179992 112.4139978  21.2380014  41.5499992 112.6999978  22.1120014
  42.5889992 111.8679978  21.3910014  41.8855926 112.3792779  21.3781205
  51.6149992  94.9449978  38.7480014  51.6909992  94.5189978  39.6010014
  52.5079992  94.9579978  38.4050014  51.7462303  94.8883493  38.8185497
  54.7909992 111.0179978  37.4400014  54.0089992 110.8309978  36.9200014
  54.7189992 111.9469978  37.6570014  54.6741924 111.1180637  37.3981602
  69.1969992 104.9039978  27.4710014  69.2859992 105.8479978  27.3390014
  68.5589992 104.6289978  26.8130014  69.1229062 104.9959812  27.3639641
  68.1299992 104.1589978  30.8900014  68.0919992 103.5129978  31.5950014
  67.8079992 103.6919978  30.1190014  68.0812679 104.0074276  30.8822921
  60.4979992 103.7729978  32.4830014  60.5399992 103.1479978  33.2060014
  61.2009992 104.3969978  32.6650014  60.5987345 103.7717873  32.6065274
  71.8359992 107.0979978  29.1910014  71.3949992 106.3779978  29.6420014
  71.8229992 107.8189978  29.8210014  71.7739215 107.0969291  29.3378105
  61.4219992 108.2229978  31.0180014  61.0519992 107.4209978  30.6480014
  62.3629992 108.0549978  31.0640014  61.4985984 108.0904638  30.9735603
  58.0319992 101.8829978  26.4100014  57.5839992 102.7289978  26.3920014
  57.4709992 101.3039978  25.8950014  57.8948546 101.9203993  26.3378891
  58.7419992 104.0449978  28.5360014  58.9559992 103.2749978  29.0640014
  59.4799992 104.1349978  27.9330014  58.8710200 103.9518586  28.5267035
  68.9479992 112.2019978  29.4030014  69.5669992 111.5259978  29.1300014
  68.7389992 111.9839978  30.3120014  69.0046056 112.0798869  29.4883967
  66.5189992 106.5909978  31.2960014  66.8229992 105.9049978  30.7010014
  67.2409992 106.7099978  31.9140014  66.6581240 106.5132314  31.2980959
  75.1819992  98.1929978  32.1560014  75.2319992  98.8029978  32.8920014
  75.6079992  98.6539978  31.4330014  75.2464108  98.3387709  32.1590112
  69.6599992 100.9849978  31.6230014  69.8029992 100.0389978  31.6430014
  69.5539992 101.1919978  30.6950014  69.6652403 100.8834797  31.5002239
  62.8149992  99.0869978  28.8960014  62.8579992  99.9469978  28.4770014
  62.3569992  98.5349978  28.2620014  62.7589871  99.1299245  28.7530761
  70.5369992  99.2179978  27.2970014  71.1839992  98.8889978  27.9210014
  71.0469992  99.7349978  26.6740014  70.6944351  99.2429067  27.2981037
  59.4349992 101.4839978  29.6580014  60.0889992 100.9339978  30.0900014
  59.4589992 101.2099978  28.7410014  59.5277199 101.3717167  29.5931668
  64.5919992 103.0339978  28.8730014  65.2079992 102.5069978  29.3820014
  64.0049992 102.3939978  28.4690014  64.5970154 102.8753954  28.8880945
  61.6249992  98.0049978  32.9700014  61.4059992  98.5349978  32.2030014
  60.9569992  98.2309978  33.6170014  61.5046975  98.1080967  32.9525140
  68.9939992 107.5049978  26.5140014  68.6989992 107.1819978  25.6620014
  68.6699992 108.4049978  26.5550014  68.9098460 107.5824464  26.4029714
  64.1939992 105.6799978  33.2570014  63.4539992 106.2789978  33.3610014
  64.9079992 106.2339978  32.9420014  64.1893500 105.8367829  33.2286371
  72.3009992  98.5089978  29.2770014  72.0859992  97.7429978  29.8100014
  72.9569992  98.9809978  29.7900014  72.3602673  98.4680728  29.4191990
  61.2189992  99.8969978  30.9220014  61.8329992 100.5299978  31.2950014
  61.7309992  99.4249978  30.2660014  61.3721962  99.9197249  30.8842935
  62.6019992 107.6449978  34.0440014  62.5959992 108.5239978  33.6660014
  61.7479992 107.5609978  34.4690014  62.4857925 107.7539535  34.0496887
  58.7229992 107.3159978  24.8260014  58.4509992 107.5449978  23.9380014
  58.7679992 108.1529978  25.2870014  58.6918097 107.4606163  24.7666683
  72.3479992 108.9369978  31.5390014  71.4059992 108.9959978  31.7010014
  72.6239992 109.8429978  31.4020014  72.2565865 109.0675288  31.5426192
  65.6519992  95.3099978  30.4220014  65.5339992  94.3619978  30.3680014
  64.7969992  95.6429978  30.6950014  65.5202805  95.2252202  30.4515079
  70.5999992 110.7179978  28.1640014  71.0249992 110.0109978  27.6790014
  70.9169992 111.5199978  27.7470014  70.7010266 110.7295190  28.0412479
  71.7599992 108.6189978  26.6730014  71.5019992 107.9289978  26.0610014
  71.8309992 108.1759978  27.5180014  71.7343050 108.4646814  26.7035621
  73.4459992 107.1859978  35.1500014  73.5849992 106.5939978  34.4110014
  73.6129992 108.0589978  34.7940014  73.4876193 107.2228896  35.0006211
  67.9179992 104.1479978  24.9230014  67.2069992 104.6829978  24.5710014
  68.6089992 104.2029978  24.2630014  67.9140751 104.2286777  24.7855858
  67.9719992 102.6049978  21.9610014  68.6729992 102.6279978  22.6130014
  68.2739992 101.9769978  21.3050014  68.1088202 102.5232212  21.9615609
  75.2869992 103.5259978  33.2160014  74.6349992 104.2199978  33.3050014
  75.7529992 103.7359978  32.4060014  75.2605937 103.6495019  33.1187533
  71.3239992 104.3569978  25.8740014  70.5919992 104.5859978  26.4480014
  71.7709992 103.6439978  26.3290014  71.2843963 104.2918729  26.0139945
  71.2209992 102.5319978  34.9420014  71.3009992 103.2949978  35.5140014
  70.6199992 102.8109978  34.2520014  71.1506547 102.6742457  34.9270047
  62.9689992 104.9879978  27.7570014  62.6389992 104.6169978  26.9390014
  63.5579992 104.3169978  28.1040014  63.0033970 104.8466063  27.6919404
  64.3359992 108.4159978  30.4380014  64.2409992 107.8369978  29.6820014
  65.0649992 108.0449978  30.9340014  64.4216011 108.2865561  30.4016028
  63.3359992 103.7559978  31.3900014  63.9009992 103.8779978  30.6280014
  63.6549992 104.3939978  32.0290014  63.4564166 103.8588791  31.3720348
  69.6449992 109.2599978  32.1240014  69.4049992 109.9219978  32.7720014
  69.4469992 108.4249978  32.5490014  69.5853826 109.2378115  32.2701566
  64.2159992 108.1559978  36.1080014  63.9049992 108.9379978  36.5630014
  63.5659992 108.0029978  35.4220014  64.0855538 108.2424087  36.0775898
  70.1949992 103.5199978  23.5600014  70.7739992 103.6699978  24.3060014
  70.6089992 103.9899978  22.8360014  70.3303358 103.6040954  23.5643953
  61.1359992 104.3539978  35.3360014  61.2059992 105.0049978  36.0350014
  60.2449992 104.4569978  35.0010014  61.0251690 104.4569249  35.3863043
  67.9209992 110.2559978  26.9950014  68.3949992 110.5519978  27.7720014
  67.3579992 110.9949978  26.7620014  67.9097890 110.3963036  27.0698101
  62.4549992 110.2269978  36.8710014  62.4629992 110.0909978  35.9240014
  61.5389992 110.1099978  37.1230014  62.3322528 110.1925463  36.7753243
  73.8939992  95.2699978  23.3730014  72.9939992  95.4089978  23.6680014
  74.1459992  96.1009978  22.9710014  73.8048683  95.4014055  23.3590232
  61.9599992 104.0569978  25.3460014  61.6679992 104.8249978  24.8550014
  61.2849992 103.3979978  25.1830014  61.8288497 104.0729745  25.2568260
  75.0829992 109.6359978  21.7490014  75.1559992 110.5749978  21.9190014
  75.9879992 109.3309978  21.6930014  75.2154170 109.7233282  21.7647063
  58.0529992 106.4199978  34.1610014  57.5509992 106.3919978  33.3460014
  58.0579992 105.5149978  34.4710014  57.9849832 106.2937486  34.0914121
  57.8029992 109.2009978  31.0450014  58.7489992 109.0559978  31.0260014
  57.6899992 109.9849978  31.5820014  57.9173578 109.2871697  31.1150317
  76.0009992 109.8669978  36.7280014  75.9509992 108.9109978  36.6900014
  75.1739992 110.1339978  37.1290014  75.8823831 109.7724680  36.7770121
  66.9789992 109.4409978  35.6040014  67.0669992 110.2669978  36.0790014
  66.1159992 109.1109978  35.8530014  66.8743357 109.5095468  35.7027653
  67.3939992 113.2129978  25.4100014  67.3179992 113.0919978  24.4630014
  67.4259992 114.1619978  25.5280014  67.3879380 113.3247677  25.2965181
  61.0469992 112.0019978  27.1910014  61.1989992 111.6539978  28.0690014
  60.1959992 111.6449978  26.9350014  60.9528344 111.9060879  27.2766868
  70.4949992 112.3669978  22.4120014  70.8699992 111.6229978  21.9410014
  70.4999992 112.0969978  23.3300014  70.5470098 112.2286392  22.4716629
  70.1639992 112.2929978  25.1610014  69.2289992 112.3929978  25.3400014
  70.4439992 111.5829978  25.7400014  70.0739471 112.2107933  25.2636695
  73.1529992 101.3599978  37.2080014  72.7449992 101.8399978  36.4870014
  73.1929992 100.4539978  36.9000014  73.1026221 101.3032449  37.0678267
  60.3019992 107.7439978  35.2040014  60.5179992 107.3819978  36.0640014
  59.4459992 107.3689978  34.9950014  60.2158810 107.6438837  35.2932680
  62.9199992  96.2139978  31.2000014  62.0589992  96.1269978  30.7920014
  62.8979992  97.0699978  31.6280014  62.7990491  96.3178003  31.2019582
  71.6719992 104.5519978  21.1890014  71.7139992 104.3299978  20.2590014
  72.5209992 104.9509978  21.3790014  71.7925253 104.5755498  21.0873822
  67.2449992  98.4279978  21.8600014  66.9909992  98.4469978  22.7820014
  66.9879992  97.5569978  21.5580014  67.1754508  98.3128280  21.9454803
  63.0109992 101.1789978  32.2950014  62.3699992 101.1389978  33.0040014
  63.0489992 102.1059978  32.0570014  62.9283010 101.2987668  32.3599946
  63.0079992 101.3999978  27.2070014  62.1159992 101.0599978  27.1480014
  63.4589992 101.0229978  26.4510014  62.9467642 101.3024910  27.0967726
  68.5439992 101.8159978  26.0240014  68.1349992 102.6309978  25.7320014
  69.2639992 101.6759978  25.4100014  68.5854439 101.9085372  25.9010115
  67.6459992 101.9919978  37.5120014  67.0829992 101.2869978  37.8330014
  68.4719992 101.8709978  37.9800014  67.6806674 101.8792165  37.6191751
  69.5489992 101.2619978  28.8380014  69.3529992 101.8679978  28.1230014
  69.7299992 100.4289978  28.4040014  69.5466584 101.2322513  28.6814212
  60.7609992 101.4999978  34.1620014  60.7229992 101.8999978  35.0310014
  60.2709992 100.6829978  34.2520014  60.6895330 101.4442674  34.2931289
  64.1269992  98.8739978  20.9610014  63.6959992  98.4289978  21.6900014
  63.4089992  99.2449978  20.4480014  63.9709176  98.8632052  20.9914930
  57.3699992  98.6159978  28.0130014  57.9999992  98.5869978  28.7320014
  57.8189992  98.1909978  27.2820014  57.5170835  98.5545660  28.0127659
  58.6439992  99.3619978  23.4370014  59.1179992  99.9529978  22.8520014
  57.9259992  99.8919978  23.7840014  58.6118640  99.5145511  23.4037969
  68.8129992 102.8999978  33.5090014  69.1359992 102.2689978  32.8660014
  68.3719992 102.3659978  34.1700014  68.7976379 102.7413468  33.5102582
  65.5899992  98.8279978  28.2930014  64.6789992  98.8849978  28.5820014
  66.0949992  98.7679978  29.1040014  65.5336873  98.8276826  28.4421207
  60.4179992 100.4569978  27.1200014  59.5289992 100.5559978  26.7800014
  60.7149992  99.6149978  26.7740014  60.3364177 100.3567687  27.0266940
  64.0709992 100.4569978  24.7770014  65.0029992 100.5859978  24.9550014
  63.8559992 101.1259978  24.1270014  64.1694472 100.5650806  24.7134891
  69.9949992  98.0629978  31.5580014  69.3179992  98.1939978  32.2210014
  69.5099992  97.9079978  30.7470014  69.8367405  98.0599947  31.5392170
  62.7449992 101.6509978  22.3430014  62.2029992 101.2719978  21.6520014
  63.5789992 101.8459978  21.9150014  62.7834390 101.6254079  22.1904392
  73.2829992 113.7339978  37.8340014  73.4819992 114.1579978  37.0000014
  73.9379992 114.0779978  38.4410014  73.3988522 113.8386301  37.8017852
  60.8809992 106.2079978  37.4420014  61.6129992 106.4629978  38.0040014
  60.0999992 106.4129978  37.9580014  60.8756526 106.2705450  37.5885176
  66.9099992 101.6149978  30.1800014  67.4739992 101.0689978  29.6330014
  66.7619992 101.0939978  30.9690014  66.9673037 101.4696787  30.2117229
  61.9119992  97.7519978  26.5990014  61.5949992  96.8489978  26.5630014
  62.6929992  97.7539978  26.0460014  61.9742431  97.6287797  26.5193102
  65.5359992 100.0039978  32.5940014  64.7009992 100.4579978  32.7050014
  66.0599992 100.2799978  33.3460014  65.4926072 100.1033948  32.7108136
  66.0809992 106.2169978  24.2790014  65.3359992 105.7089978  23.9570014
  65.9459992 106.2659978  25.2250014  65.9608963 106.1541731  24.3628826
  73.2309992 105.3499978  33.0660014  73.8719992 105.8059978  32.5220014
  72.3999992 105.4629978  32.6030014  73.2065287 105.4276921  32.9289887
  69.9779992  99.0309978  22.4780014  69.0399992  99.1419978  22.3270014
  70.2759992  99.8869978  22.7850014  69.8896318  99.1620158  22.4988145
  67.5999992 106.4009978  35.5160014  67.2539992 106.0189978  36.3230014
  67.3999992 107.3339978  35.5870014  67.5255987 106.4749002  35.6360461
  70.6969992 100.8979978  24.1390014  71.5889992 100.7599978  24.4580014
  70.7529992 101.6889978  23.6020014  70.8267325 100.9859918  24.1101217
  61.2049992 105.5119978  30.0490014  61.9499992 105.5089978  29.4470014
  61.2829992 104.6879978  30.5300014  61.3173365 105.4002384  30.0317430
  68.2059992 107.6749978  23.3040014  67.9109992 108.5019978  23.6860014
  67.5029992 107.0559978  23.5010014  68.0706379 107.7044171  23.3828654
  58.2129992 103.9719978  35.3640014  58.4359992 103.5539978  36.1950014
  57.6109992 103.3599978  34.9410014  58.1621513 103.8319606  35.4206740
  65.2299992 103.4889978  37.5770014  64.9339992 103.3239978  36.6810014
  66.1609992 103.2689978  37.5660014  65.3154401 103.4366879  37.4530206
  69.8499992 108.8629978  35.4660014  68.9499992 109.0459978  35.1990014
  69.8839992 109.1219978  36.3870014  69.7313748 108.9230554  35.5539164
  75.5819992 101.1069978  23.8340014  75.0269992 100.7109978  23.1610014
  75.6819992 102.0179978  23.5560014  75.5196816 101.1759505  23.7045033
  75.5449992 106.9079978  36.6710014  74.6939992 107.1459978  36.3030014
  76.1349992 106.8909978  35.9180014  75.5083812 106.9382524  36.5188453
  73.8769992 109.8929978  24.2990014  73.5039992 109.0679978  24.6080014
  74.1539992 109.7099978  23.4010014  73.8633463 109.7552569  24.2199525
  71.0369992 104.7009978  31.3200014  70.1089992 104.4699978  31.2930014
  71.4879992 103.9239978  30.9900014  70.9708165 104.5642774  31.2716790
  63.5799992 109.0299978  27.4530014  64.1079992 109.8029978  27.2530014
  62.6999992 109.2539978  27.1510014  63.5333435 109.1662700  27.3847310
  59.3349992 103.8919978  22.0400014  59.9509992 104.5189978  22.4200014
  58.4729992 104.2079978  22.3120014  59.3027678 104.0204412  22.1287209
  65.0079992 106.6929978  27.0290014  64.7669992 107.6179978  27.0710014
  64.2669992 106.2339978  27.4260014  64.8749206 106.7575915  27.0883769
  65.5219992 110.8419978  33.3440014  65.8849992 111.6959978  33.1110014
  66.0539992 110.5499978  34.0850014  65.6435141 110.9193895  33.4122097
  63.6909992 111.7139978  26.5750014  62.7409992 111.8199978  26.6260014
  64.0429992 112.5349978  26.9190014  63.6085472 111.8394923  26.6284852
  69.0659992 106.9409978  33.0450014  68.6409992 106.7129978  33.8710014
  69.6469992 106.2019978  32.8630014  69.0863395 106.8099545  33.1334414
  71.2689992 107.8699978  22.1190014  71.6229992 107.4899978  22.9230014
  70.3209992 107.7759978  22.2060014  71.1892298 107.8052452  22.2408687
  71.7249992 111.4929978  35.5140014  71.1229992 110.9369978  35.0190014
  72.0059992 112.1599978  34.8880014  71.6805757 111.5070744  35.3615675
  75.7729992 112.3489978  22.3200014  76.5169992 112.9349978  22.1800014
  75.0789992 112.9179978  22.6530014  75.7809809 112.5060818  22.3458590
  59.8469992  98.7259978  34.9220014  58.9549992  99.0639978  34.8540014
  59.7489992  97.8699978  35.3400014  59.7114475  98.6566543  34.9691704
  72.1349992 106.5419978  24.3460014  71.8579992 105.8139978  24.9020014
  73.0629992 106.6609978  24.5510014  72.2224499 106.4584213  24.4498044
  59.4989992 110.5299978  33.3570014  59.7159992 109.5979978  33.3260014
  59.7449992 110.8049978  34.2400014  59.5619809 110.4395686  33.4721691
  65.3599992 108.9819978  20.5660014  65.5989992 108.2329978  20.0190014
  65.0909992 108.5939978  21.3990014  65.3563233 108.8271853  20.6037809
  64.2969992 108.5519978  23.0220014  64.4439992 108.0319978  23.8120014
  64.2939992 109.4589978  23.3290014  64.3167102 108.6033953  23.1715925
  60.7499992 105.8039978  23.5330014  60.0639992 106.1569978  24.1000014
  61.2729992 106.5669978  23.2860014  60.7268402 105.9553901  23.5771801
  69.3659992  98.1189978  24.9090014  69.5859992  98.5899978  24.1050014
  69.9249992  98.5129978  25.5790014  69.4716731  98.2367287  24.8895033
  67.0349992 110.2489978  23.7720014  66.2179992 110.7459978  23.8240014
  67.5639992 110.7249978  23.1310014  66.9948125 110.3811989  23.6925306
  66.5659992  99.8469978  25.7440014  67.3779992 100.3509978  25.7900014
  66.3219992  99.7019978  26.6580014  66.6441467  99.8963749  25.8738575
  67.4499992  96.9279978  26.6820014  67.1029992  97.5449978  27.3260014
  68.1089992  97.4289978  26.2000014  67.4915090  97.0801575  26.7050681
  64.3729992 111.2929978  23.7530014  64.5339992 112.0929978  23.2530014
  64.1759992 111.5999978  24.6380014  64.3683906 111.4438678  23.8042333
  63.1079992  97.9909978  23.3690014  63.0239992  98.8789978  23.7160014
  63.9979992  97.7259978  23.6010014  63.2168163  98.0767179  23.4478596
  71.9089992 102.4899978  29.8590014  71.1109992 102.0749978  29.5310014
  72.3539992 101.7999978  30.3500014  71.8599684 102.3398628  29.8805227
  61.3659992 108.4179978  22.4290014  61.9579992 109.1179978  22.7060014
  61.8249992 107.9849978  21.7100014  61.5091652 108.4552675  22.3696533
  59.6819992 101.0829978  21.5450014  59.6369992 102.0219978  21.7240014
  58.7939992 100.8469978  21.2760014  59.5558166 101.1796687  21.5331524
  72.9949992 111.7459978  31.4810014  72.8389992 112.4249978  30.8240014
  73.9279992 111.8179978  31.6840014  73.0997387 111.8486390  31.4185342
  60.4899992  95.8639978  30.2190014  60.2609992  95.9229978  29.2910014
  60.0479992  95.0729978  30.5250014  60.3988801  95.7650540  30.1334729
  59.4209992 109.8049978  26.3790014  58.5879992 110.2769978  26.4060014
  59.9659992 110.3149978  25.7800014  59.3807857 109.9384791  26.3017142
  58.7089992 112.4169978  37.7090014  59.2489992 112.2009978  38.4690014
  58.2279992 111.6119978  37.5190014  58.7179219 112.2785156  37.7874282
  63.3059992 111.3369978  39.3290014  64.0739992 110.8779978  39.6700014
  63.2849992 111.1109978  38.3990014  63.4082135 111.2436668  39.2499491
  67.3979992 110.8449978  20.7050014  66.7539992 110.2139978  21.0260014
  68.1599992 110.3139978  20.4730014  67.4128058 110.6867902  20.7176038
  69.8829992 109.7169978  38.0580014  69.5319992 108.8599978  38.3020014
  70.6089992 109.8589978  38.6650014  69.9331895 109.6191351  38.1733770
  72.0029992 110.6619978  20.9380014  72.2859992 109.8669978  21.3910014
  72.7419992 110.8949978  20.3770014  72.1417096 110.5847049  20.9241104
  58.6159992 106.2279978  38.6630014  58.7599992 105.3259978  38.3770014
  57.8439992 106.5139978  38.1760014  58.5312733 106.1431798  38.5579532
  62.9569992 106.5709978  20.7960014  63.0219992 105.7769978  21.3260014
  63.6099992 106.4529978  20.1060014  63.0541605 106.4463430  20.7752997
  65.2709992 106.1969978  38.0960014  64.9429992 106.4679978  37.2390014
  65.4229992 105.2559978  38.0080014  65.2466412 106.1069046  37.9667822
  68.3099992 107.6179978  20.5320014  68.0409992 107.7989978  21.4320014
  68.1029992 106.6929978  20.4000014  68.2451191 107.5177119  20.6375524
  71.0059992 106.1129978  35.4790014  71.7509992 106.7019978  35.3600014
  70.2489992 106.6949978  35.5430014  71.0055470 106.2722128  35.4713799
  59.4489992 103.4279978  38.0830014  59.8569992 102.5709978  37.9620014
  59.1879992 103.4419978  39.0040014  59.4696016 103.3125119  38.1909192
  64.1069992 104.5439978  23.1020014  63.6469992 104.0599978  23.7870014
  64.3619992 103.8749978  22.4660014  64.0784856 104.3873669  23.1098397
  63.3959992 102.4369978  35.4580014  62.7769992 103.1109978  35.7380014
  63.7399992 102.7579978  34.6240014  63.3577123 102.5726887  35.3836388
  65.1779992 102.7869978  21.3640014  64.9969992 102.6319978  20.4370014
  66.1279992 102.8949978  21.4090014  65.2816566 102.7803669  21.2430929
  68.4149992 104.9079978  38.7350014  69.3689992 104.9919978  38.7080014
  68.2549992 104.1959978  39.3550014  68.5237182 104.8232842  38.8150733
  74.5679992 105.1409978  20.8100014  74.2939992 104.7169978  19.9970014
  74.6069992 106.0729978  20.5930014  74.5357716 105.2088827  20.6694286
  63.7349992  99.7919978  36.5400014  63.8849992  99.0629978  35.9380014
  63.7369992 100.5689978  35.9810014  63.7557967  99.7972708  36.3820541
  64.1479992  98.1609978  34.0330014  64.6829992  98.6129978  33.3810014
  63.2949992  98.0529978  33.6100014  64.1060374  98.2082665  33.8866710
  65.7289992 103.6009978  34.2720014  66.4799992 103.4449978  33.6990014
  65.3899992 104.4529978  33.9970014  65.7859587 103.6948138  34.1564078
  70.1449992 101.4159978  39.3010014  70.3369992 100.4849978  39.1890014
  71.0029992 101.8409978  39.2900014  70.2872182 101.3460070  39.2841862
  71.4619992 104.2049978  37.3780014  71.1799992 104.9139978  36.8000014
  72.4039992 104.1319978  37.2270014  71.5507921 104.2922193  37.2784225
  62.2139992 100.9899978  38.4510014  61.4459992 100.4569978  38.2410014
  62.8919992 100.6799978  37.8520014  62.2007235 100.8751754  38.3412413
  64.9529992  95.6179978  34.4640014  64.8549992  96.5639978  34.3590014
  64.2109992  95.2449978  33.9880014  64.8392534  95.6971773  34.3852600
  66.2169992  99.9389978  38.0280014  65.9819992  99.7199978  38.9290014
  65.4339992  99.7319978  37.5180014  66.0789095  99.8809892  38.0825353
  60.3939992  98.9099978  38.1560014  60.6059992  98.2039978  37.5460014
  60.2829992  98.4729978  39.0000014  60.4080269  98.7541921  38.1865873
  65.0749992 113.4769978  22.3650014  66.0079992 113.6349978  22.5090014
  64.8109992 114.1529978  21.7400014  65.1669911 113.5899373  22.3002722
  58.6429992 108.1139978  21.8480014  59.5569992 108.1929978  22.1210014
  58.6509992 107.4269978  21.1820014  58.7690655 108.0319205  21.7952917
  57.2919992 113.5069978  26.9250014  56.6449992 113.0449978  26.3930014
  57.6469992 112.8349978  27.5080014  57.2513741 113.3529774  26.9309175
  58.1619992 111.5869978  28.7300014  57.8279992 110.7069978  28.9020014
  58.3849992 111.9329978  29.5950014  58.1463721 111.5131938  28.8704168
  75.7109992 112.3969978  31.7110014  75.6889992 112.5819978  32.6500014
  76.4009992 112.9649978  31.3700014  75.8013439 112.4991887  31.7934791
  75.2739992 111.9639978  34.6320014  74.7869992 111.2289978  34.2610014
  75.8229992 111.5699978  35.3100014  75.2815247 111.8101057  34.6728461
  73.7249992 107.7539978  39.2710014  72.8589992 107.6489978  39.6650014
  74.1009992 108.5119978  39.7170014  73.6573401 107.8421708  39.3852620
  75.0259992 106.0099978  24.7850014  75.8759992 106.4309978  24.9120014
  75.0309992 105.2699978  25.3920014  75.1431143 105.9676094  24.8844750
  75.4199992 104.0639978  26.6080014  74.6939992 103.5839978  27.0060014
  76.0019992 104.2689978  27.3410014  75.3992730 104.0260184  26.7614149
  75.1789992 106.8489978  31.5560014  76.0129992 106.4709978  31.2750014
  75.2909992 107.7919978  31.4370014  75.3081917 106.9247943  31.5014861
  73.6659992 109.7269978  33.8630014  73.0179992 110.0519978  34.4880014
  73.1479992 109.2859978  33.1890014  73.5074196 109.7118651  33.8574152
  75.6889992 103.9649978  22.9990014  75.1669992 104.3209978  22.2810014
  75.6559992 104.6399978  23.6780014  75.6130129 104.1049598  22.9923355
  74.0379992 101.2039978  21.5500014  74.1339992 101.8709978  20.8700014
  73.8979992 100.3889978  21.0690014  74.0322040 101.1850671  21.3918378
  73.2069992 102.5849978  27.1710014  73.0569992 101.6399978  27.1510014
  72.8529992 102.8659978  28.0150014  73.1386351 102.4936644  27.2823220
  58.2419992 104.6629978  31.1820014  58.4269992 104.5809978  30.2460014
  59.0919992 104.5389978  31.6050014  58.3820928 104.6350463  31.1112893
  74.0629992 104.5549978  36.8100014  74.6459992 103.8199978  37.0020014
  74.6269992 105.3269978  36.8570014  74.2189781 104.5588145  36.8426164
  75.5599992 102.4579978  37.4950014  74.6969992 102.0789978  37.3290014
  76.1639992 101.7189978  37.4200014  75.5236085 102.3063223  37.4621694
  73.2849992  98.6119978  20.6680014  73.8959992  98.2409978  21.3050014
  72.4479992  98.1909978  20.8640014  73.2554947  98.5042756  20.7817252
  72.9179992 100.1669978  25.6340014  73.1969992  99.2599978  25.7580014
  73.6769992 100.6009978  25.2450014  73.0588619 100.1014502  25.5983795
  73.5289992 100.7489978  31.0700014  74.4619992 100.9609978  31.0350014
  73.2939992 100.8499978  31.9920014  73.6249517 100.7916833  31.1899130
  73.5589992 101.4859978  33.8460014  72.7159992 101.7539978  34.2120014
  74.0009992 102.3079978  33.6350014  73.5034138 101.6338273  33.8675518
  57.8399992  99.9329978  37.3220014  58.7589992  99.8109978  37.5590014
  57.3899992  99.1829978  37.7120014  57.9050087  99.8149608  37.4071410
  73.5309992  97.4299978  25.6820014  73.7129992  96.9809978  26.5070014
  72.9309992  96.8459978  25.2180014  73.4748187  97.2895552  25.7322739
  59.0609992  98.2459978  30.2140014  59.5059992  97.4539978  30.5160014
  59.5269992  98.9619978  30.6440014  59.1849718  98.2344534  30.3135265
  57.3649992 101.2449978  31.2830014  57.8569992 101.0239978  30.4920014
  57.7269992 102.0849978  31.5640014  57.4812923 101.3283468  31.2127407
  75.3979992  97.4979978  22.2100014  75.8099992  96.7769978  21.7350014
  76.0789992  98.1669978  22.2680014  75.5465536  97.4897766  22.1528024
  57.6789992  97.5029978  25.3370014  56.7539992  97.7109978  25.2080014
  58.1329992  97.9869978  24.6470014  57.6136298  97.5969299  25.2260451
  72.4489992 112.4869978  27.2830014  73.1019992 112.1389978  26.6750014
  72.9599992 112.9749978  27.9290014  72.6072777 112.5053815  27.2872047
  57.6419992  96.2409978  33.6810014  56.9769992  95.9949978  34.3240014
  57.1989992  96.8629978  33.1040014  57.4911168  96.2914214  33.6909848
  59.8339992 109.4159978  37.8260014  59.0129992 109.5909978  37.3650014
  59.5819992 109.3429978  38.7460014  59.6875594 109.4300717  37.8873611
  62.7879992 110.3899978  34.0840014  62.3639992 111.1999978  33.8020014
  63.6929992 110.4759978  33.7820014  62.8522138 110.5124160  34.0046415
  67.0999992 111.7889978  37.0440014  67.2839992 111.4559978  37.9220014
  67.9459992 112.0989978  36.7220014  67.2396484 111.7852979  37.1207617
  69.4449992 113.0749978  36.2880014  70.1219992 112.4419978  36.0480014
  69.7659992 113.4759978  37.0950014  69.5811323 113.0425691  36.3643158
  60.1899992 113.6469978  34.1320014  59.4699992 114.0869978  33.6810014
  59.8249992 113.3959978  34.9800014  60.0419643 113.6733369  34.1849129
  62.6569992 113.2469978  33.1620014  61.7929992 113.3189978  33.5660014
  62.6019992 113.7939978  32.3780014  62.5311942 113.3307849  33.1114000
  67.3679992 113.1349978  32.3370014  66.9109992 113.6639978  31.6830014
  67.5309992 113.7379978  33.0620014  67.3274960 113.2889280  32.3455274
  69.6959992 112.0129978  33.2820014  68.7909992 112.1779978  33.0160014
  70.1239992 112.8659978  33.2160014  69.6301537 112.1509134  33.2367095
  72.2999992 113.5829978  33.5770014  72.1179992 114.4989978  33.3660014
  72.4769992 113.1719978  32.7300014  72.2990030 113.6528273  33.4337166
  59.6049992 112.2699978  31.0420014  59.5869992 111.8439978  31.8990014
  60.4099992 111.9509978  30.6330014  59.7112875 112.1686435  31.1039515
  61.7459992 110.9799978  29.6970014  61.5269992 110.0629978  29.8670014
  62.5699992 111.1199978  30.1630014  61.8274702 110.8735511  29.7832527
  64.2829992 111.4499978  30.5460014  64.4959992 110.5619978  30.2590014
  64.3479992 111.4149978  31.5000014  64.3209149 111.3238326  30.6357369
  67.7919992  97.1139978  29.6900014  67.1179992  96.4839978  29.9460014
  68.3559992  96.6299978  29.0870014  67.7760384  96.9623708  29.6435020
  72.9349992  95.2209978  29.8030014  73.5379992  95.7689978  29.3010014
  72.0649992  95.5399978  29.5620014  72.8999157  95.3390373  29.7017910
  74.6619992  96.3599978  28.1360014  75.2729992  95.8459978  27.6090014
  75.0439992  97.2369978  28.1590014  74.7973305  96.4082050  28.0669418
  60.1189992  95.7479978  27.5120014  59.3419992  95.5129978  27.0050014
  60.6489992  94.9509978  27.5210014  60.0843451  95.6081268  27.4438627
  58.9549992  95.5459978  23.3160014  59.3939992  96.1569978  22.7240014
  58.3209992  96.0839978  23.7900014  58.9293859  95.7024064  23.2990305
  64.6979992  95.6739978  27.3250014  65.5719992  96.0629978  27.2960014
  64.5619992  95.4589978  28.2480014  64.7991953  95.6981643  27.4457617
  70.2549992  95.7039978  28.9750014  70.3309992  95.7999978  28.0250014
  69.9799992  94.7969978  29.1030014  70.2281871  95.5944146  28.8623944
  71.6079992  95.7299978  24.6670014  70.9049992  96.3449978  24.4570014
  71.1629992  94.8929978  24.7980014  71.4516550  95.7009668  24.6559837
  58.8559992 111.4939978  24.2130014  58.1709992 111.4559978  23.5460014
  58.8599992 112.4069978  24.5010014  58.7627621 111.6121924  24.1606126
  60.8159992  97.4619978  21.7580014  61.3069992  96.8319978  21.2310014
  61.4389992  97.7579978  22.4210014  60.9675304  97.4157376  21.7754940
  65.8419992  97.7549978  24.2150014  66.0199992  97.1079978  24.8980014
  65.7879992  98.5889978  24.6820014  65.8590678  97.7791604  24.3716301
  67.7199992 112.7029978  22.6110014  68.5859992 113.0699978  22.4330014
  67.4739992 112.2639978  21.7970014  67.8052097 112.6938525  22.4766019
  74.4289992 112.2659978  25.2900014  74.2349992 111.5179978  24.7250014
  74.3899992 113.0239978  24.7070014  74.3971645 112.2660786  25.1338148
  60.0759992  96.2619978  37.0300014  59.7099992  95.4959978  37.4720014
  60.9889992  96.2909978  37.3160014  60.1493172  96.1610324  37.1291890
  62.0489992  95.6119978  38.5650014  62.9479992  95.3379978  38.3810014
  61.6629992  94.8699978  39.0300014  62.1197307  95.4742196  38.6027098
  60.6739992 112.4139978  21.2380014  60.4059992 112.6999978  22.1120014
  61.4449992 111.8679978  21.3910014  60.7415926 112.3792779  21.3781205
  73.6469992 111.0179978  37.4400014  72.8649992 110.8309978  36.9200014
  73.5749992 111.9469978  37.6570014  73.5301924 111.1180637  37.3981602
  88.0529992 104.9039978  27.4710014  88.1419992 105.8479978  27.3390014
  87.4149992 104.6289978  26.8130014  87.9789062 104.9959812  27.3639641
  86.9859992 104.1589978  30.8900014  86.9479992 103.5129978  31.5950014
  86.6639992 103.6919978  30.1190014  86.9372679 104.0074276  30.8822921
  79.3539992 103.7729978  32.4830014  79.3959992 103.1479978  33.2060014
  80.0569992 104.3969978  32.6650014  79.4547345 103.7717873  32.6065274
  90.6919992 107.0979978  29.1910014  90.2509992 106.3779978  29.6420014
  90.6789992 107.8189978  29.8210014  90.6299215 107.0969291  29.3378105
  80.2779992 108.2229978  31.0180014  79.9079992 107.4209978  30.6480014
  81.2189992 108.0549978  31.0640014  80.3545984 108.0904638  30.9735603
  76.8879992 101.8829978  26.4100014  76.4399992 102.7289978  26.3920014
  76.3269992 101.3039978  25.8950014  76.7508546 101.9203993  26.3378891
  77.5979992 104.0449978  28.5360014  77.8119992 103.2749978  29.0640014
  78.3359992 104.1349978  27.9330014  77.7270200 103.9518586  28.5267035
  87.8039992 112.2019978  29.4030014  88.4229992 111.5259978  29.1300014
  87.5949992 111.9839978  30.3120014  87.8606056 112.0798869  29.4883967
  85.3749992 106.5909978  31.2960014  85.6789992 105.9049978  30.7010014
  86.0969992 106.7099978  31.9140014  85.5141240 106.5132314  31.2980959
  94.0379992  98.1929978  32.1560014  94.0879992  98.8029978  32.8920014
  94.4639992  98.6539978  31.4330014  94.1024108  98.3387709  32.1590112
  88.5159992 100.9849978  31.6230014  88.6589992 100.0389978  31.6430014
  88.4099992 101.1919978  30.6950014  88.5212403 100.8834797  31.5002239
  81.6709992  99.0869978  28.8960014  81.7139992  99.9469978  28.4770014
  81.2129992  98.5349978  28.2620014  81.6149871  99.1299245  28.7530761
  89.3929992  99.2179978  27.2970014  90.0399992  98.8889978  27.9210014
  89.9029992  99.7349978  26.6740014  89.5504351  99.2429067  27.2981037
  78.2909992 101.4839978  29.6580014  78.9449992 100.9339978  30.0900014
  78.3149992 101.2099978  28.7410014  78.3837199 101.3717167  29.5931668
  83.4479992 103.0339978  28.8730014  84.0639992 102.5069978  29.3820014
  82.8609992 102.3939978  28.4690014  83.4530154 102.8753954  28.8880945
  94.4299992  99.6709978  34.3920014  93.7409992 100.3289978  34.2970014
  94.4449992  99.4729978  35.3290014  94.3377756  99.7342603  34.5055812
  80.4809992  98.0049978  32.9700014  80.2619992  98.5349978  32.2030014
  79.8129992  98.2309978  33.6170014  80.3606975  98.1080967  32.9525140
  87.8499992 107.5049978  26.5140014  87.5549992 107.1819978  25.6620014
  87.5259992 108.4049978  26.5550014  87.7658460 107.5824464  26.4029714
  83.0499992 105.6799978  33.2570014  82.3099992 106.2789978  33.3610014
  83.7639992 106.2339978  32.9420014  83.0453500 105.8367829  33.2286371
  91.1569992  98.5089978  29.2770014  90.9419992  97.7429978  29.8100014
  91.8129992  98.9809978  29.7900014  91.2162673  98.4680728  29.4191990
  80.0749992  99.8969978  30.9220014  80.6889992 100.5299978  31.2950014
  80.5869992  99.4249978  30.2660014  80.2281962  99.9197249  30.8842935
  81.4579992 107.6449978  34.0440014  81.4519992 108.5239978  33.6660014
  80.6039992 107.5609978  34.4690014  81.3417925 107.7539535  34.0496887
  77.5789992 107.3159978  24.8260014  77.3069992 107.5449978  23.9380014
  77.6239992 108.1529978  25.2870014  77.5478097 107.4606163  24.7666683
  91.2039992 108.9369978  31.5390014  90.2619992 108.9959978  31.7010014
  91.4799992 109.8429978  31.4020014  91.1125865 109.0675288  31.5426192
  91.5039992  97.2239978  32.9560014  90.7679992  97.8339978  32.9190014
  92.1879992  97.6389978  32.4300014  91.4955367  97.3637551  32.8798174
  84.5079992  95.3099978  30.4220014  84.3899992  94.3619978  30.3680014
  83.6529992  95.6429978  30.6950014  84.3762805  95.2252202  30.4515079
  89.4559992 110.7179978  28.1640014  89.8809992 110.0109978  27.6790014
  89.7729992 111.5199978  27.7470014  89.5570266 110.7295190  28.0412479
  90.6159992 108.6189978  26.6730014  90.3579992 107.9289978  26.0610014
  90.6869992 108.1759978  27.5180014  90.5903050 108.4646814  26.7035621
  92.3019992 107.1859978  35.1500014  92.4409992 106.5939978  34.4110014
  92.4689992 108.0589978  34.7940014  92.3436193 107.2228896  35.0006211
  86.7739992 104.1479978  24.9230014  86.0629992 104.6829978  24.5710014
  87.4649992 104.2029978  24.2630014  86.7700751 104.2286777  24.7855858
  86.8279992 102.6049978  21.9610014  87.5289992 102.6279978  22.6130014
  87.1299992 101.9769978  21.3050014  86.9648202 102.5232212  21.9615609
  94.1429992 103.5259978  33.2160014  93.4909992 104.2199978  33.3050014
  94.6089992 103.7359978  32.4060014  94.1165937 103.6495019  33.1187533
  90.1799992 104.3569978  25.8740014  89.4479992 104.5859978  26.4480014
  90.6269992 103.6439978  26.3290014  90.1403963 104.2918729  26.0139945
  90.0769992 102.5319978  34.9420014  90.1569992 103.2949978  35.5140014
  89.4759992 102.8109978  34.2520014  90.0066547 102.6742457  34.9270047
  81.8249992 104.9879978  27.7570014  81.4949992 104.6169978  26.9390014
  82.4139992 104.3169978  28.1040014  81.8593970 104.8466063  27.6919404
  83.1919992 108.4159978  30.4380014  83.0969992 107.8369978  29.6820014
  83.9209992 108.0449978  30.9340014  83.2776011 108.2865561  30.4016028
  82.1919992 103.7559978  31.3900014  82.7569992 103.8779978  30.6280014
  82.5109992 104.3939978  32.0290014  82.3124166 103.8588791  31.3720348
  88.5009992 109.2599978  32.1240014  88.2609992 109.9219978  32.7720014
  88.3029992 108.4249978  32.5490014  88.4413826 109.2378115  32.2701566
  83.0719992 108.1559978  36.1080014  82.7609992 108.9379978  36.5630014
  82.4219992 108.0029978  35.4220014  82.9415538 108.2424087  36.0775898
  89.0509992 103.5199978  23.5600014  89.6299992 103.6699978  24.3060014
  89.4649992 103.9899978  22.8360014  89.1863358 103.6040954  23.5643953
  79.9919992 104.3539978  35.3360014  80.0619992 105.0049978  36.0350014
  79.1009992 104.4569978  35.0010014  79.8811690 104.4569249  35.3863043
  86.7769992 110.2559978  26.9950014  87.2509992 110.5519978  27.7720014
  86.2139992 110.9949978  26.7620014  86.7657890 110.3963036  27.0698101
  81.3109992 110.2269978  36.8710014  81.3189992 110.0909978  35.9240014
  80.3949992 110.1099978  37.1230014  81.1882528 110.1925463  36.7753243
  92.7499992  95.2699978  23.3730014  91.8499992  95.4089978  23.6680014
  93.0019992  96.1009978  22.9710014  92.6608683  95.4014055  23.3590232
  80.8159992 104.0569978  25.3460014  80.5239992 104.8249978  24.8550014
  80.1409992 103.3979978  25.1830014  80.6848497 104.0729745  25.2568260
  93.9389992 109.6359978  21.7490014  94.0119992 110.5749978  21.9190014
  94.8439992 109.3309978  21.6930014  94.0714170 109.7233282  21.7647063
  76.9089992 106.4199978  34.1610014  76.4069992 106.3919978  33.3460014
  76.9139992 105.5149978  34.4710014  76.8409832 106.2937486  34.0914121
  76.6589992 109.2009978  31.0450014  77.6049992 109.0559978  31.0260014
  76.5459992 109.9849978  31.5820014  76.7733578 109.2871697  31.1150317
  94.8569992 109.8669978  36.7280014  94.8069992 108.9109978  36.6900014
  94.0299992 110.1339978  37.1290014  94.7383831 109.7724680  36.7770121
  85.8349992 109.4409978  35.6040014  85.9229992 110.2669978  36.0790014
  84.9719992 109.1109978  35.8530014  85.7303357 109.5095468  35.7027653
  86.2499992 113.2129978  25.4100014  86.1739992 113.0919978  24.4630014
  86.2819992 114.1619978  25.5280014  86.2439380 113.3247677  25.2965181
  79.9029992 112.0019978  27.1910014  80.0549992 111.6539978  28.0690014
  79.0519992 111.6449978  26.9350014  79.8088344 111.9060879  27.2766868
  89.3509992 112.3669978  22.4120014  89.7259992 111.6229978  21.9410014
  89.3559992 112.0969978  23.3300014  89.4030098 112.2286392  22.4716629
  89.0199992 112.2929978  25.1610014  88.0849992 112.3929978  25.3400014
  89.2999992 111.5829978  25.7400014  88.9299471 112.2107933  25.2636695
  92.0089992 101.3599978  37.2080014  91.6009992 101.8399978  36.4870014
  92.0489992 100.4539978  36.9000014  91.9586221 101.3032449  37.0678267
  79.1579992 107.7439978  35.2040014  79.3739992 107.3819978  36.0640014
  78.3019992 107.3689978  34.9950014  79.0718810 107.6438837  35.2932680
  81.7759992  96.2139978  31.2000014  80.9149992  96.1269978  30.7920014
  81.7539992  97.0699978  31.6280014  81.6550491  96.3178003  31.2019582
  86.4389992  95.9359978  34.5750014  86.8589992  95.5209978  35.3280014
  85.5059992  95.7569978  34.6920014  86.3703736  95.8549910  34.6938968
  89.7659992  99.6909978  35.4280014  89.2519992  99.5659978  36.2260014
  89.6099992 100.6039978  35.1840014  89.6746967  99.7972123  35.5040937
  90.5279992 104.5519978  21.1890014  90.5699992 104.3299978  20.2590014
  91.3769992 104.9509978  21.3790014  90.6485253 104.5755498  21.0873822
  86.1009992  98.4279978  21.8600014  85.8469992  98.4469978  22.7820014
  85.8439992  97.5569978  21.5580014  86.0314508  98.3128280  21.9454803
  81.8669992 101.1789978  32.2950014  81.2259992 101.1389978  33.0040014
  81.9049992 102.1059978  32.0570014  81.7843010 101.2987668  32.3599946
  81.8639992 101.3999978  27.2070014  80.9719992 101.0599978  27.1480014
  82.3149992 101.0229978  26.4510014  81.8027642 101.3024910  27.0967726
  87.3999992 101.8159978  26.0240014  86.9909992 102.6309978  25.7320014
  88.1199992 101.6759978  25.4100014  87.4414439 101.9085372  25.9010115
  86.5019992 101.9919978  37.5120014  85.9389992 101.2869978  37.8330014
  87.3279992 101.8709978  37.9800014  86.5366674 101.8792165  37.6191751
  88.4049992 101.2619978  28.8380014  88.2089992 101.8679978  28.1230014
  88.5859992 100.4289978  28.4040014  88.4026584 101.2322513  28.6814212
  79.6169992 101.4999978  34.1620014  79.5789992 101.8999978  35.0310014
  79.1269992 100.6829978  34.2520014  79.5455330 101.4442674  34.2931289
  82.9829992  98.8739978  20.9610014  82.5519992  98.4289978  21.6900014
  82.2649992  99.2449978  20.4480014  82.8269176  98.8632052  20.9914930
  76.2259992  98.6159978  28.0130014  76.8559992  98.5869978  28.7320014
  76.6749992  98.1909978  27.2820014  76.3730835  98.5545660  28.0127659
  77.4999992  99.3619978  23.4370014  77.9739992  99.9529978  22.8520014
  76.7819992  99.8919978  23.7840014  77.4678640  99.5145511  23.4037969
  87.6689992 102.8999978  33.5090014  87.9919992 102.2689978  32.8660014
  87.2279992 102.3659978  34.1700014  87.6536379 102.7413468  33.5102582
  84.4459992  98.8279978  28.2930014  83.5349992  98.8849978  28.5820014
  84.9509992  98.7679978  29.1040014  84.3896873  98.8276826  28.4421207
  79.2739992 100.4569978  27.1200014  78.3849992 100.5559978  26.7800014
  79.5709992  99.6149978  26.7740014  79.1924177 100.3567687  27.0266940
  82.9269992 100.4569978  24.7770014  83.8589992 100.5859978  24.9550014
  82.7119992 101.1259978  24.1270014  83.0254472 100.5650806  24.7134891
  88.8509992  98.0629978  31.5580014  88.1739992  98.1939978  32.2210014
  88.3659992  97.9079978  30.7470014  88.6927405  98.0599947  31.5392170
  81.6009992 101.6509978  22.3430014  81.0589992 101.2719978  21.6520014
  82.4349992 101.8459978  21.9150014  81.6394390 101.6254079  22.1904392
  92.1389992 113.7339978  37.8340014  92.3379992 114.1579978  37.0000014
  92.7939992 114.0779978  38.4410014  92.2548522 113.8386301  37.8017852
  79.7369992 106.2079978  37.4420014  80.4689992 106.4629978  38.0040014
  78.9559992 106.4129978  37.9580014  79.7316526 106.2705450  37.5885176
  85.7659992 101.6149978  30.1800014  86.3299992 101.0689978  29.6330014
  85.6179992 101.0939978  30.9690014  85.8233037 101.4696787  30.2117229
  80.7679992  97.7519978  26.5990014  80.4509992  96.8489978  26.5630014
  81.5489992  97.7539978  26.0460014  80.8302431  97.6287797  26.5193102
  84.3919992 100.0039978  32.5940014  83.5569992 100.4579978  32.7050014
  84.9159992 100.2799978  33.3460014  84.3486072 100.1033948  32.7108136
  84.9369992 106.2169978  24.2790014  84.1919992 105.7089978  23.9570014
  84.8019992 106.2659978  25.2250014  84.8168963 106.1541731  24.3628826
  92.0869992 105.3499978  33.0660014  92.7279992 105.8059978  32.5220014
  91.2559992 105.4629978  32.6030014  92.0625287 105.4276921  32.9289887
  88.8339992  99.0309978  22.4780014  87.8959992  99.1419978  22.3270014
  89.1319992  99.8869978  22.7850014  88.7456318  99.1620158  22.4988145
  86.4559992 106.4009978  35.5160014  86.1099992 106.0189978  36.3230014
  86.2559992 107.3339978  35.5870014  86.3815987 106.4749002  35.6360461
  89.5529992 100.8979978  24.1390014  90.4449992 100.7599978  24.4580014
  89.6089992 101.6889978  23.6020014  89.6827325 100.9859918  24.1101217
  80.0609992 105.5119978  30.0490014  80.8059992 105.5089978  29.4470014
  80.1389992 104.6879978  30.5300014  80.1733365 105.4002384  30.0317430
  87.0619992 107.6749978  23.3040014  86.7669992 108.5019978  23.6860014
  86.3589992 107.0559978  23.5010014  86.9266379 107.7044171  23.3828654
  77.0689992 103.9719978  35.3640014  77.2919992 103.5539978  36.1950014
  76.4669992 103.3599978  34.9410014  77.0181513 103.8319606  35.4206740
  84.0859992 103.4889978  37.5770014  83.7899992 103.3239978  36.6810014
  85.0169992 103.2689978  37.5660014  84.1714401 103.4366879  37.4530206
  88.7059992 108.8629978  35.4660014  87.8059992 109.0459978  35.1990014
  88.7399992 109.1219978  36.3870014  88.5873748 108.9230554  35.5539164
  94.4379992 101.1069978  23.8340014  93.8829992 100.7109978  23.1610014
  94.5379992 102.0179978  23.5560014  94.3756816 101.1759505  23.7045033
  94.4009992 106.9079978  36.6710014  93.5499992 107.1459978  36.3030014
  94.9909992 106.8909978  35.9180014  94.3643812 106.9382524  36.5188453
  92.7329992 109.8929978  24.2990014  92.3599992 109.0679978  24.6080014
  93.0099992 109.7099978  23.4010014  92.7193463 109.7552569  24.2199525
  89.8929992 104.7009978  31.3200014  88.9649992 104.4699978  31.2930014
  90.3439992 103.9239978  30.9900014  89.8268165 104.5642774  31.2716790
  82.4359992 109.0299978  27.4530014  82.9639992 109.8029978  27.2530014
  81.5559992 109.2539978  27.1510014  82.3893435 109.1662700  27.3847310
  78.1909992 103.8919978  22.0400014  78.8069992 104.5189978  22.4200014
  77.3289992 104.2079978  22.3120014  78.1587678 104.0204412  22.1287209
  83.8639992 106.6929978  27.0290014  83.6229992 107.6179978  27.0710014
  83.1229992 106.2339978  27.4260014  83.7309206 106.7575915  27.0883769
  84.3779992 110.8419978  33.3440014  84.7409992 111.6959978  33.1110014
  84.9099992 110.5499978  34.0850014  84.4995141 110.9193895  33.4122097
  82.5469992 111.7139978  26.5750014  81.5969992 111.8199978  26.6260014
  82.8989992 112.5349978  26.9190014  82.4645472 111.8394923  26.6284852
  87.9219992 106.9409978  33.0450014  87.4969992 106.7129978  33.8710014
  88.5029992 106.2019978  32.8630014  87.9423395 106.8099545  33.1334414
  90.1249992 107.8699978  22.1190014  90.4789992 107.4899978  22.9230014
  89.1769992 107.7759978  22.2060014  90.0452298 107.8052452  22.2408687
  90.5809992 111.4929978  35.5140014  89.9789992 110.9369978  35.0190014
  90.8619992 112.1599978  34.8880014  90.5365757 111.5070744  35.3615675
  94.6289992 112.3489978  22.3200014  95.3729992 112.9349978  22.1800014
  93.9349992 112.9179978  22.6530014  94.6369809 112.5060818  22.3458590
  90.9909992 106.5419978  24.3460014  90.7139992 105.8139978  24.9020014
  91.9189992 106.6609978  24.5510014  91.0784499 106.4584213  24.4498044
  78.3549992 110.5299978  33.3570014  78.5719992 109.5979978  33.3260014
  78.6009992 110.8049978  34.2400014  78.4179809 110.4395686  33.4721691
  84.2159992 108.9819978  20.5660014  84.4549992 108.2329978  20.0190014
  83.9469992 108.5939978  21.3990014  84.2123233 108.8271853  20.6037809
  83.1529992 108.5519978  23.0220014  83.2999992 108.0319978  23.8120014
  83.1499992 109.4589978  23.3290014  83.1727102 108.6033953  23.1715925
  79.6059992 105.8039978  23.5330014  78.9199992 106.1569978  24.1000014
  80.1289992 106.5669978  23.2860014  79.5828402 105.9553901  23.5771801
  87.4379992  98.4669978  33.8120014  88.1369992  98.5409978  34.4620014
  87.0569992  97.6019978  33.9660014  87.4822097  98.3602389  33.9217997
  88.2219992  98.1189978  24.9090014  88.4419992  98.5899978  24.1050014
  88.7809992  98.5129978  25.5790014  88.3276732  98.2367287  24.8895033
  85.8909992 110.2489978  23.7720014  85.0739992 110.7459978  23.8240014
  86.4199992 110.7249978  23.1310014  85.8508125 110.3811989  23.6925306
  85.4219992  99.8469978  25.7440014  86.2339992 100.3509978  25.7900014
  85.1779992  99.7019978  26.6580014  85.5001467  99.8963749  25.8738575
  85.9579992 100.8329978  34.9280014  86.0769992 101.4069978  35.6850014
  86.6129992 100.1449978  35.0430014  86.0628684 100.8185194  35.0471674
  86.3059992  96.9279978  26.6820014  85.9589992  97.5449978  27.3260014
  86.9649992  97.4289978  26.2000014  86.3475090  97.0801575  26.7050681
  83.2289992 111.2929978  23.7530014  83.3899992 112.0929978  23.2530014
  83.0319992 111.5999978  24.6380014  83.2243906 111.4438678  23.8042333
  81.9639992  97.9909978  23.3690014  81.8799992  98.8789978  23.7160014
  82.8539992  97.7259978  23.6010014  82.0728163  98.0767179  23.4478596
  92.1619992  98.7399978  35.7630014  91.2459992  99.0019978  35.6760014
  92.4979992  98.7369978  34.8670014  92.0818499  98.7755163  35.6298766
  90.7649992 102.4899978  29.8590014  89.9669992 102.0749978  29.5310014
  91.2099992 101.7999978  30.3500014  90.7159684 102.3398628  29.8805227
  80.2219992 108.4179978  22.4290014  80.8139992 109.1179978  22.7060014
  80.6809992 107.9849978  21.7100014  80.3651652 108.4552675  22.3696533
  78.5379992 101.0829978  21.5450014  78.4929992 102.0219978  21.7240014
  77.6499992 100.8469978  21.2760014  78.4118166 101.1796687  21.5331524
  91.8509992 111.7459978  31.4810014  91.6949992 112.4249978  30.8240014
  92.7839992 111.8179978  31.6840014  91.9557387 111.8486390  31.4185342
  79.3459992  95.8639978  30.2190014  79.1169992  95.9229978  29.2910014
  78.9039992  95.0729978  30.5250014  79.2548801  95.7650540  30.1334729
  78.2769992 109.8049978  26.3790014  77.4439992 110.2769978  26.4060014
  78.8219992 110.3149978  25.7800014  78.2367857 109.9384791  26.3017142
  77.5649992 112.4169978  37.7090014  78.1049992 112.2009978  38.4690014
  77.0839992 111.6119978  37.5190014  77.5739219 112.2785156  37.7874282
  82.1619992 111.3369978  39.3290014  82.9299992 110.8779978  39.6700014
  82.1409992 111.1109978  38.3990014  82.2642135 111.2436668  39.2499491
  86.2539992 110.8449978  20.7050014  85.6099992 110.2139978  21.0260014
  87.0159992 110.3139978  20.4730014  86.2688058 110.6867902  20.7176038
  88.7389992 109.7169978  38.0580014  88.3879992 108.8599978  38.3020014
  89.4649992 109.8589978  38.6650014  88.7891895 109.6191351  38.1733770
  90.8589992 110.6619978  20.9380014  91.1419992 109.8669978  21.3910014
  91.5979992 110.8949978  20.3770014  90.9977096 110.5847049  20.9241104
  77.4719992 106.2279978  38.6630014  77.6159992 105.3259978  38.3770014
  76.6999992 106.5139978  38.1760014  77.3872733 106.1431798  38.5579532
  81.8129992 106.5709978  20.7960014  81.8779992 105.7769978  21.3260014
  82.4659992 106.4529978  20.1060014  81.9101605 106.4463430  20.7752997
  84.1269992 106.1969978  38.0960014  83.7989992 106.4679978  37.2390014
  84.2789992 105.2559978  38.0080014  84.1026412 106.1069046  37.9667822
  87.1659992 107.6179978  20.5320014  86.8969992 107.7989978  21.4320014
  86.9589992 106.6929978  20.4000014  87.1011191 107.5177119  20.6375524
  89.8619992 106.1129978  35.4790014  90.6069992 106.7019978  35.3600014
  89.1049992 106.6949978  35.5430014  89.8615470 106.2722128  35.4713799
  78.3049992 103.4279978  38.0830014  78.7129992 102.5709978  37.9620014
  78.0439992 103.4419978  39.0040014  78.3256016 103.3125119  38.1909192
  82.9629992 104.5439978  23.1020014  82.5029992 104.0599978  23.7870014
  83.2179992 103.8749978  22.4660014  82.9344856 104.3873669  23.1098397
  82.2519992 102.4369978  35.4580014  81.6329992 103.1109978  35.7380014
  82.5959992 102.7579978  34.6240014  82.2137123 102.5726887  35.3836388
  84.0339992 102.7869978  21.3640014  83.8529992 102.6319978  20.4370014
  84.9839992 102.8949978  21.4090014  84.1376566 102.7803669  21.2430929
  87.2709992 104.9079978  38.7350014  88.2249992 104.9919978  38.7080014
  87.1109992 104.1959978  39.3550014  87.3797182 104.8232842  38.8150733
  93.4239992 105.1409978  20.8100014  93.1499992 104.7169978  19.9970014
  93.4629992 106.0729978  20.5930014  93.3917716 105.2088827  20.6694286
  82.5909992  99.7919978  36.5400014  82.7409992  99.0629978  35.9380014
  82.5929992 100.5689978  35.9810014  82.6117967  99.7972708  36.3820541
  83.0039992  98.1609978  34.0330014  83.5389992  98.6129978  33.3810014
  82.1509992  98.0529978  33.6100014  82.9620374  98.2082665  33.8866710
  84.5849992 103.6009978  34.2720014  85.3359992 103.4449978  33.6990014
  84.2459992 104.4529978  33.9970014  84.6419587 103.6948138  34.1564078
  89.0009992 101.4159978  39.3010014  89.1929992 100.4849978  39.1890014
  89.8589992 101.8409978  39.2900014  89.1432182 101.3460070  39.2841862
  90.3179992 104.2049978  37.3780014  90.0359992 104.9139978  36.8000014
  91.2599992 104.1319978  37.2270014  90.4067921 104.2922193  37.2784225
  81.0699992 100.9899978  38.4510014  80.3019992 100.4569978  38.2410014
  81.7479992 100.6799978  37.8520014  81.0567235 100.8751754  38.3412413
  83.8089992  95.6179978  34.4640014  83.7109992  96.5639978  34.3590014
  83.0669992  95.2449978  33.9880014  83.6952534  95.6971773  34.3852600
  85.0729992  99.9389978  38.0280014  84.8379992  99.7199978  38.9290014
  84.2899992  99.7319978  37.5180014  84.9349095  99.8809892  38.0825353
  87.7889992  99.0669978  37.1030014  86.8409992  99.0989978  37.2350014
  88.1009992  98.4409978  37.7570014  87.7015293  98.9867923  37.2094148
  89.4229992  97.7009978  39.1080014  89.3259992  96.7489978  39.1030014
  89.1009992  97.9689978  39.9690014  89.3662468  97.6070884  39.2236210
  84.0309992  94.9119978  37.1350014  84.7429992  94.2719978  37.1210014
  83.9299992  95.1779978  36.2220014  84.1147387  94.8604330  37.0095563
  83.9309992 113.4769978  22.3650014  84.8639992 113.6349978  22.5090014
  83.6669992 114.1529978  21.7400014  84.0229911 113.5899373  22.3002722
  77.4989992 108.1139978  21.8480014  78.4129992 108.1929978  22.1210014
  77.5069992 107.4269978  21.1820014  77.6250655 108.0319205  21.7952917
  76.1479992 113.5069978  26.9250014  75.5009992 113.0449978  26.3930014
  76.5029992 112.8349978  27.5080014  76.1073741 113.3529774  26.9309175
  77.0179992 111.5869978  28.7300014  76.6839992 110.7069978  28.9020014
  77.2409992 111.9329978  29.5950014  77.0023721 111.5131938  28.8704168
  94.5669992 112.3969978  31.7110014  94.5449992 112.5819978  32.6500014
  95.2569992 112.9649978  31.3700014  94.6573439 112.4991887  31.7934791
  94.1299992 111.9639978  34.6320014  93.6429992 111.2289978  34.2610014
  94.6789992 111.5699978  35.3100014  94.1375247 111.8101057  34.6728461
  92.5809992 107.7539978  39.2710014  91.7149992 107.6489978  39.6650014
  92.9569992 108.5119978  39.7170014  92.5133401 107.8421708  39.3852620
  93.8819992 106.0099978  24.7850014  94.7319992 106.4309978  24.9120014
  93.8869992 105.2699978  25.3920014  93.9991143 105.9676094  24.8844750
  94.2759992 104.0639978  26.6080014  93.5499992 103.5839978  27.0060014
  94.8579992 104.2689978  27.3410014  94.2552730 104.0260184  26.7614149
  94.0349992 106.8489978  31.5560014  94.8689992 106.4709978  31.2750014
  94.1469992 107.7919978  31.4370014  94.1641917 106.9247943  31.5014861
  92.5219992 109.7269978  33.8630014  91.8739992 110.0519978  34.4880014
  92.0039992 109.2859978  33.1890014  92.3634196 109.7118651  33.8574152
  94.5449992 103.9649978  22.9990014  94.0229992 104.3209978  22.2810014
  94.5119992 104.6399978  23.6780014  94.4690129 104.1049598  22.9923355
  92.8939992 101.2039978  21.5500014  92.9899992 101.8709978  20.8700014
  92.7539992 100.3889978  21.0690014  92.8882040 101.1850671  21.3918378
  92.0629992 102.5849978  27.1710014  91.9129992 101.6399978  27.1510014
  91.7089992 102.8659978  28.0150014  91.9946351 102.4936644  27.2823220
  77.0979992 104.6629978  31.1820014  77.2829992 104.5809978  30.2460014
  77.9479992 104.5389978  31.6050014  77.2380928 104.6350463  31.1112893
  92.9189992 104.5549978  36.8100014  93.5019992 103.8199978  37.0020014
  93.4829992 105.3269978  36.8570014  93.0749781 104.5588145  36.8426164
  94.4159992 102.4579978  37.4950014  93.5529992 102.0789978  37.3290014
  95.0199992 101.7189978  37.4200014  94.3796085 102.3063223  37.4621695
  92.1409992  98.6119978  20.6680014  92.7519992  98.2409978  21.3050014
  91.3039992  98.1909978  20.8640014  92.1114947  98.5042756  20.7817252
  91.7739992 100.1669978  25.6340014  92.0529992  99.2599978  25.7580014
  92.5329992 100.6009978  25.2450014  91.9148619 100.1014502  25.5983795
  92.3849992 100.7489978  31.0700014  93.3179992 100.9609978  31.0350014
  92.1499992 100.8499978  31.9920014  92.4809517 100.7916833  31.1899130
  92.4149992 101.4859978  33.8460014  91.5719992 101.7539978  34.2120014
  92.8569992 102.3079978  33.6350014  92.3594138 101.6338273  33.8675518
  94.6979992  95.4659978  39.1990014  95.0469992  94.8119978  38.5940014
  94.8449992  96.3029978  38.7590014  94.7656824  95.4896024  39.0566304
  92.3869992  97.4299978  25.6820014  92.5689992  96.9809978  26.5070014
  91.7869992  96.8459978  25.2180014  92.3308187  97.2895552  25.7322739
  77.9169992  98.2459978  30.2140014  78.3619992  97.4539978  30.5160014
  78.3829992  98.9619978  30.6440014  78.0409718  98.2344534  30.3135265
  76.2209992 101.2449978  31.2830014  76.7129992 101.0239978  30.4920014
  76.5829992 102.0849978  31.5640014  76.3372923 101.3283468  31.2127407
  94.2169992  97.5749978  37.5480014  93.2999992  97.8459978  37.5130014
  94.3399992  97.0399978  36.7640014  94.1079672  97.5397885  37.4371862
  94.2539992  97.4979978  22.2100014  94.6659992  96.7769978  21.7350014
  94.9349992  98.1669978  22.2680014  94.4025536  97.4897766  22.1528024
  76.5349992  97.5029978  25.3370014  75.6099992  97.7109978  25.2080014
  76.9889992  97.9869978  24.6470014  76.4696298  97.5969299  25.2260451
  91.3049992 112.4869978  27.2830014  91.9579992 112.1389978  26.6750014
  91.8159992 112.9749978  27.9290014  91.4632777 112.5053815  27.2872047
  78.6899992 109.4159978  37.8260014  77.8689992 109.5909978  37.3650014
  78.4379992 109.3429978  38.7460014  78.5435594 109.4300717  37.8873611
  81.6439992 110.3899978  34.0840014  81.2199992 111.1999978  33.8020014
  82.5489992 110.4759978  33.7820014  81.7082138 110.5124160  34.0046415
  85.9559992 111.7889978  37.0440014  86.1399992 111.4559978  37.9220014
  86.8019992 112.0989978  36.7220014  86.0956484 111.7852979  37.1207617
  88.3009992 113.0749978  36.2880014  88.9779992 112.4419978  36.0480014
  88.6219992 113.4759978  37.0950014  88.4371323 113.0425691  36.3643158
  93.2179992  95.6649978  35.3670014  92.4049992  95.9899978  34.9800014
  93.4509992  94.9039978  34.8340014  93.1381347  95.6066880  35.2419841
  79.0459992 113.6469978  34.1320014  78.3259992 114.0869978  33.6810014
  78.6809992 113.3959978  34.9800014  78.8979643 113.6733369  34.1849129
  81.5129992 113.2469978  33.1620014  80.6489992 113.3189978  33.5660014
  81.4579992 113.7939978  32.3780014  81.3871942 113.3307849  33.1114000
  86.2239992 113.1349978  32.3370014  85.7669992 113.6639978  31.6830014
  86.3869992 113.7379978  33.0620014  86.1834960 113.2889280  32.3455274
  88.5519992 112.0129978  33.2820014  87.6469992 112.1779978  33.0160014
  88.9799992 112.8659978  33.2160014  88.4861537 112.1509134  33.2367095
  91.1559992 113.5829978  33.5770014  90.9739992 114.4989978  33.3660014
  91.3329992 113.1719978  32.7300014  91.1550030 113.6528273  33.4337166
  78.4609992 112.2699978  31.0420014  78.4429992 111.8439978  31.8990014
  79.2659992 111.9509978  30.6330014  78.5672875 112.1686435  31.1039515
  80.6019992 110.9799978  29.6970014  80.3829992 110.0629978  29.8670014
  81.4259992 111.1199978  30.1630014  80.6834702 110.8735511  29.7832527
  83.1389992 111.4499978  30.5460014  83.3519992 110.5619978  30.2590014
  83.2039992 111.4149978  31.5000014  83.1769149 111.3238326  30.6357369
  86.6479992  97.1139978  29.6900014  85.9739992  96.4839978  29.9460014
  87.2119992  96.6299978  29.0870014  86.6320384  96.9623708  29.6435020
  91.7909992  95.2209978  29.8030014  92.3939992  95.7689978  29.3010014
  90.9209992  95.5399978  29.5620014  91.7559157  95.3390373  29.7017910
  93.5179992  96.3599978  28.1360014  94.1289992  95.8459978  27.6090014
  93.8999992  97.2369978  28.1590014  93.6533305  96.4082050  28.0669418
  78.9749992  95.7479978  27.5120014  78.1979992  95.5129978  27.0050014
  79.5049992  94.9509978  27.5210014  78.9403451  95.6081268  27.4438627
  77.8109992  95.5459978  23.3160014  78.2499992  96.1569978  22.7240014
  77.1769992  96.0839978  23.7900014  77.7853859  95.7024064  23.2990305
  83.5539992  95.6739978  27.3250014  84.4279992  96.0629978  27.2960014
  83.4179992  95.4589978  28.2480014  83.6551953  95.6981643  27.4457617
  89.1109992  95.7039978  28.9750014  89.1869992  95.7999978  28.0250014
  88.8359992  94.7969978  29.1030014  89.0841871  95.5944146  28.8623944
  90.4639992  95.7299978  24.6670014  89.7609992  96.3449978  24.4570014
  90.0189992  94.8929978  24.7980014  90.3076550  95.7009668  24.6559837
  77.7119992 111.4939978  24.2130014  77.0269992 111.4559978  23.5460014
  77.7159992 112.4069978  24.5010014  77.6187621 111.6121924  24.1606126
  79.6719992  97.4619978  21.7580014  80.1629992  96.8319978  21.2310014
  80.2949992  97.7579978  22.4210014  79.8235304  97.4157376  21.7754940
  84.6979992  97.7549978  24.2150014  84.8759992  97.1079978  24.8980014
  84.6439992  98.5889978  24.6820014  84.7150678  97.7791604  24.3716301
  86.5759992 112.7029978  22.6110014  87.4419992 113.0699978  22.4330014
  86.3299992 112.2639978  21.7970014  86.6612097 112.6938525  22.4766019
  93.2849992 112.2659978  25.2900014  93.0909992 111.5179978  24.7250014
  93.2459992 113.0239978  24.7070014  93.2531645 112.2660786  25.1338148
  79.5299992 112.4139978  21.2380014  79.2619992 112.6999978  22.1120014
  80.3009992 111.8679978  21.3910014  79.5975926 112.3792779  21.3781205
  89.3269992  94.9449978  38.7480014  89.4029992  94.5189978  39.6010014
  90.2199992  94.9579978  38.4050014  89.4582303  94.8883493  38.8185497
  92.5029992 111.0179978  37.4400014  91.7209992 110.8309978  36.9200014
  92.4309992 111.9469978  37.6570014  92.3861924 111.1180637  37.3981602
 106.9089992 104.9039978  27.4710014 106.9979992 105.8479978  27.3390014
 106.2709992 104.6289978  26.8130014 106.8349061 104.9959812  27.3639641
 105.8419992 104.1589978  30.8900014 105.8039992 103.5129978  31.5950014
 105.5199992 103.6919978  30.1190014 105.7932679 104.0074276  30.8822921
  98.2099992 103.7729978  32.4830014  98.2519992 103.1479978  33.2060014
  98.9129992 104.3969978  32.6650014  98.3107345 103.7717873  32.6065274
 109.5479992 107.0979978  29.1910014 109.1069992 106.3779978  29.6420014
 109.5349992 107.8189978  29.8210014 109.4859215 107.0969291  29.3378105
  99.1339992 108.2229978  31.0180014  98.7639992 107.4209978  30.6480014
 100.0749992 108.0549978  31.0640014  99.2105984 108.0904638  30.9735603
  95.7439992 101.8829978  26.4100014  95.2959992 102.7289978  26.3920014
  95.1829992 101.3039978  25.8950014  95.6068546 101.9203993  26.3378891
  96.4539992 104.0449978  28.5360014  96.6679992 103.2749978  29.0640014
  97.1919992 104.1349978  27.9330014  96.5830200 103.9518586  28.5267035
 106.6599992 112.2019978  29.4030014 107.2789992 111.5259978  29.1300014
 106.4509992 111.9839978  30.3120014 106.7166056 112.0798869  29.4883967
 104.2309992 106.5909978  31.2960014 104.5349992 105.9049978  30.7010014
 104.9529992 106.7099978  31.9140014 104.3701240 106.5132314  31.2980959
 112.8939992  98.1929978  32.1560014 112.9439992  98.8029978  32.8920014
 113.3199992  98.6539978  31.4330014 112.9584108  98.3387709  32.1590112
 107.3719992 100.9849978  31.6230014 107.5149992 100.0389978  31.6430014
 107.2659992 101.1919978  30.6950014 107.3772403 100.8834797  31.5002239
 100.5269992  99.0869978  28.8960014 100.5699992  99.9469978  28.4770014
 100.0689992  98.5349978  28.2620014 100.4709871  99.1299245  28.7530761
 108.2489992  99.2179978  27.2970014 108.8959992  98.8889978  27.9210014
 108.7589992  99.7349978  26.6740014 108.4064351  99.2429067  27.2981037
  97.1469992 101.4839978  29.6580014  97.8009992 100.9339978  30.0900014
  97.1709992 101.2099978  28.7410014  97.2397199 101.3717167  29.5931668
 102.3039992 103.0339978  28.8730014 102.9199992 102.5069978  29.3820014
 101.7169992 102.3939978  28.4690014 102.3090154 102.8753954  28.8880945
 113.2859992  99.6709978  34.3920014 112.5969992 100.3289978  34.2970014
 113.3009992  99.4729978  35.3290014 113.1937756  99.7342603  34.5055812
  99.3369992  98.0049978  32.9700014  99.1179992  98.5349978  32.2030014
  98.6689992  98.2309978  33.6170014  99.2166975  98.1080967  32.9525140
 106.7059992 107.5049978  26.5140014 106.4109992 107.1819978  25.6620014
 106.3819992 108.4049978  26.5550014 106.6218460 107.5824464  26.4029714
 101.9059992 105.6799978  33.2570014 101.1659992 106.2789978  33.3610014
 102.6199992 106.2339978  32.9420014 101.9013500 105.8367829  33.2286371
 110.0129992  98.5089978  29.2770014 109.7979992  97.7429978  29.8100014
 110.6689992  98.9809978  29.7900014 110.0722673  98.4680728  29.4191990
  98.9309992  99.8969978  30.9220014  99.5449992 100.5299978  31.2950014
  99.4429992  99.4249978  30.2660014  99.0841962  99.9197249  30.8842935
 100.3139992 107.6449978  34.0440014 100.3079992 108.5239978  33.6660014
  99.4599992 107.5609978  34.4690014 100.1977925 107.7539535  34.0496887
  96.4349992 107.3159978  24.8260014  96.1629992 107.5449978  23.9380014
  96.4799992 108.1529978  25.2870014  96.4038097 107.4606163  24.7666683
 110.0599992 108.9369978  31.5390014 109.1179992 108.9959978  31.7010014
 110.3359992 109.8429978  31.4020014 109.9685865 109.0675288  31.5426192
 110.3599992  97.2239978  32.9560014 109.6239992  97.8339978  32.9190014
 111.0439992  97.6389978  32.4300014 110.3515367  97.3637551  32.8798174
 103.3639992  95.3099978  30.4220014 103.2459992  94.3619978  30.3680014
 102.5089992  95.6429978  30.6950014 103.2322805  95.2252202  30.4515079
 108.3119992 110.7179978  28.1640014 108.7369992 110.0109978  27.6790014
 108.6289992 111.5199978  27.7470014 108.4130266 110.7295190  28.0412479
 109.4719992 108.6189978  26.6730014 109.2139992 107.9289978  26.0610014
 109.5429992 108.1759978  27.5180014 109.4463050 108.4646814  26.7035621
 111.1579992 107.1859978  35.1500014 111.2969992 106.5939978  34.4110014
 111.3249992 108.0589978  34.7940014 111.1996193 107.2228896  35.0006211
 105.6299992 104.1479978  24.9230014 104.9189992 104.6829978  24.5710014
 106.3209992 104.2029978  24.2630014 105.6260751 104.2286777  24.7855858
 105.6839992 102.6049978  21.9610014 106.3849992 102.6279978  22.6130014
 105.9859992 101.9769978  21.3050014 105.8208202 102.5232212  21.9615609
 112.9989992 103.5259978  33.2160014 112.3469992 104.2199978  33.3050014
 113.4649992 103.7359978  32.4060014 112.9725937 103.6495019  33.1187533
 109.0359992 104.3569978  25.8740014 108.3039992 104.5859978  26.4480014
 109.4829992 103.6439978  26.3290014 108.9963963 104.2918729  26.0139945
 108.9329992 102.5319978  34.9420014 109.0129992 103.2949978  35.5140014
 108.3319992 102.8109978  34.2520014 108.8626547 102.6742457  34.9270047
 100.6809992 104.9879978  27.7570014 100.3509992 104.6169978  26.9390014
 101.2699992 104.3169978  28.1040014 100.7153970 104.8466063  27.6919404
 102.0479992 108.4159978  30.4380014 101.9529992 107.8369978  29.6820014
 102.7769992 108.0449978  30.9340014 102.1336011 108.2865561  30.4016028
 101.0479992 103.7559978  31.3900014 101.6129992 103.8779978  30.6280014
 101.3669992 104.3939978  32.0290014 101.1684166 103.8588791  31.3720348
 107.3569992 109.2599978  32.1240014 107.1169992 109.9219978  32.7720014
 107.1589992 108.4249978  32.5490014 107.2973826 109.2378115  32.2701566
 101.9279992 108.1559978  36.1080014 101.6169992 108.9379978  36.5630014
 101.2779992 108.0029978  35.4220014 101.7975538 108.2424087  36.0775898
 107.9069992 103.5199978  23.5600014 108.4859992 103.6699978  24.3060014
 108.3209992 103.9899978  22.8360014 108.0423358 103.6040955  23.5643953
  98.8479992 104.3539978  35.3360014  98.9179992 105.0049978  36.0350014
  97.9569992 104.4569978  35.0010014  98.7371690 104.4569249  35.3863043
 105.6329992 110.2559978  26.9950014 106.1069992 110.5519978  27.7720014
 105.0699992 110.9949978  26.7620014 105.6217890 110.3963036  27.0698101
 100.1669992 110.2269978  36.8710014 100.1749992 110.0909978  35.9240014
  99.2509992 110.1099978  37.1230014 100.0442528 110.1925463  36.7753243
 111.6059992  95.2699978  23.3730014 110.7059992  95.4089978  23.6680014
 111.8579992  96.1009978  22.9710014 111.5168683  95.4014055  23.3590232
  99.6719992 104.0569978  25.3460014  99.3799992 104.8249978  24.8550014
  98.9969992 103.3979978  25.1830014  99.5408497 104.0729745  25.2568260
 112.7949992 109.6359978  21.7490014 112.8679992 110.5749978  21.9190014
 113.6999992 109.3309978  21.6930014 112.9274170 109.7233282  21.7647063
  95.7649992 106.4199978  34.1610014  95.2629992 106.3919978  33.3460014
  95.7699992 105.5149978  34.4710014  95.6969832 106.2937486  34.0914121
  95.5149992 109.2009978  31.0450014  96.4609992 109.0559978  31.0260014
  95.4019992 109.9849978  31.5820014  95.6293578 109.2871697  31.1150317
 113.7129992 109.8669978  36.7280014 113.6629992 108.9109978  36.6900014
 112.8859992 110.1339978  37.1290014 113.5943831 109.7724680  36.7770121
 104.6909992 109.4409978  35.6040014 104.7789992 110.2669978  36.0790014
 103.8279992 109.1109978  35.8530014 104.5863357 109.5095468  35.7027653
 105.1059992 113.2129978  25.4100014 105.0299992 113.0919978  24.4630014
 105.1379992 114.1619978  25.5280014 105.0999380 113.3247677  25.2965181
  98.7589992 112.0019978  27.1910014  98.9109992 111.6539978  28.0690014
  97.9079992 111.6449978  26.9350014  98.6648344 111.9060879  27.2766868
 108.2069992 112.3669978  22.4120014 108.5819992 111.6229978  21.9410014
 108.2119992 112.0969978  23.3300014 108.2590098 112.2286392  22.4716629
 107.8759992 112.2929978  25.1610014 106.9409992 112.3929978  25.3400014
 108.1559992 111.5829978  25.7400014 107.7859471 112.2107933  25.2636695
 110.8649992 101.3599978  37.2080014 110.4569992 101.8399978  36.4870014
 110.9049992 100.4539978  36.9000014 110.8146221 101.3032449  37.0678267
  98.0139992 107.7439978  35.2040014  98.2299992 107.3819978  36.0640014
  97.1579992 107.3689978  34.9950014  97.9278810 107.6438837  35.2932680
 100.6319992  96.2139978  31.2000014  99.7709992  96.1269978  30.7920014
 100.6099992  97.0699978  31.6280014 100.5110491  96.3178003  31.2019582
 105.2949992  95.9359978  34.5750014 105.7149992  95.5209978  35.3280014
 104.3619992  95.7569978  34.6920014 105.2263736  95.8549910  34.6938968
 108.6219992  99.6909978  35.4280014 108.1079992  99.5659978  36.2260014
 108.4659992 100.6039978  35.1840014 108.5306967  99.7972123  35.5040937
 109.3839992 104.5519978  21.1890014 109.4259992 104.3299978  20.2590014
 110.2329992 104.9509978  21.3790014 109.5045253 104.5755498  21.0873822
 104.9569992  98.4279978  21.8600014 104.7029992  98.4469978  22.7820014
 104.6999992  97.5569978  21.5580014 104.8874508  98.3128280  21.9454803
 100.7229992 101.1789978  32.2950014 100.0819992 101.1389978  33.0040014
 100.7609992 102.1059978  32.0570014 100.6403010 101.2987668  32.3599946
 100.7199992 101.3999978  27.2070014  99.8279992 101.0599978  27.1480014
 101.1709992 101.0229978  26.4510014 100.6587642 101.3024910  27.0967726
 106.2559992 101.8159978  26.0240014 105.8469992 102.6309978  25.7320014
 106.9759992 101.6759978  25.4100014 106.2974439 101.9085372  25.9010115
 105.3579992 101.9919978  37.5120014 104.7949992 101.2869978  37.8330014
 106.1839992 101.8709978  37.9800014 105.3926674 101.8792165  37.6191751
 107.2609992 101.2619978  28.8380014 107.0649992 101.8679978  28.1230014
 107.4419992 100.4289978  28.4040014 107.2586584 101.2322513  28.6814212
  98.4729992 101.4999978  34.1620014  98.4349992 101.8999978  35.0310014
  97.9829992 100.6829978  34.2520014  98.4015330 101.4442674  34.2931289
 101.8389992  98.8739978  20.9610014 101.4079992  98.4289978  21.6900014
 101.1209992  99.2449978  20.4480014 101.6829176  98.8632051  20.9914930
  95.0819992  98.6159978  28.0130014  95.7119992  98.5869978  28.7320014
  95.5309992  98.1909978  27.2820014  95.2290835  98.5545660  28.0127659
  96.3559992  99.3619978  23.4370014  96.8299992  99.9529978  22.8520014
  95.6379992  99.8919978  23.7840014  96.3238640  99.5145511  23.4037969
 106.5249992 102.8999978  33.5090014 106.8479992 102.2689978  32.8660014
 106.0839992 102.3659978  34.1700014 106.5096379 102.7413468  33.5102582
 103.3019992  98.8279978  28.2930014 102.3909992  98.8849978  28.5820014
 103.8069992  98.7679978  29.1040014 103.2456873  98.8276826  28.4421207
  98.1299992 100.4569978  27.1200014  97.2409992 100.5559978  26.7800014
  98.4269992  99.6149978  26.7740014  98.0484177 100.3567687  27.0266940
 101.7829992 100.4569978  24.7770014 102.7149992 100.5859978  24.9550014
 101.5679992 101.1259978  24.1270014 101.8814472 100.5650806  24.7134891
 107.7069992  98.0629978  31.5580014 107.0299992  98.1939978  32.2210014
 107.2219992  97.9079978  30.7470014 107.5487405  98.0599947  31.5392170
 100.4569992 101.6509978  22.3430014  99.9149992 101.2719978  21.6520014
 101.2909992 101.8459978  21.9150014 100.4954390 101.6254079  22.1904392
 110.9949992 113.7339978  37.8340014 111.1939992 114.1579978  37.0000014
 111.6499992 114.0779978  38.4410014 111.1108522 113.8386301  37.8017852
  98.5929992 106.2079978  37.4420014  99.3249992 106.4629978  38.0040014
  97.8119992 106.4129978  37.9580014  98.5876526 106.2705450  37.5885176
 104.6219992 101.6149978  30.1800014 105.1859992 101.0689978  29.6330014
 104.4739992 101.0939978  30.9690014 104.6793037 101.4696787  30.2117229
  99.6239992  97.7519978  26.5990014  99.3069992  96.8489978  26.5630014
 100.4049992  97.7539978  26.0460014  99.6862431  97.6287797  26.5193102
 103.2479992 100.0039978  32.5940014 102.4129992 100.4579978  32.7050014
 103.7719992 100.2799978  33.3460014 103.2046072 100.1033948  32.7108136
 103.7929992 106.2169978  24.2790014 103.0479992 105.7089978  23.9570014
 103.6579992 106.2659978  25.2250014 103.6728963 106.1541731  24.3628826
 110.9429992 105.3499978  33.0660014 111.5839992 105.8059978  32.5220014
 110.1119992 105.4629978  32.6030014 110.9185287 105.4276921  32.9289887
 107.6899992  99.0309978  22.4780014 106.7519992  99.1419978  22.3270014
 107.9879992  99.8869978  22.7850014 107.6016318  99.1620158  22.4988145
 105.3119992 106.4009978  35.5160014 104.9659992 106.0189978  36.3230014
 105.1119992 107.3339978  35.5870014 105.2375987 106.4749002  35.6360461
 108.4089992 100.8979978  24.1390014 109.3009992 100.7599978  24.4580014
 108.4649992 101.6889978  23.6020014 108.5387325 100.9859918  24.1101217
  98.9169992 105.5119978  30.0490014  99.6619992 105.5089978  29.4470014
  98.9949992 104.6879978  30.5300014  99.0293365 105.4002384  30.0317430
 105.9179992 107.6749978  23.3040014 105.6229992 108.5019978  23.6860014
 105.2149992 107.0559978  23.5010014 105.7826379 107.7044171  23.3828654
  95.9249992 103.9719978  35.3640014  96.1479992 103.5539978  36.1950014
  95.3229992 103.3599978  34.9410014  95.8741513 103.8319606  35.4206740
 102.9419992 103.4889978  37.5770014 102.6459992 103.3239978  36.6810014
 103.8729992 103.2689978  37.5660014 103.0274401 103.4366879  37.4530206
 107.5619992 108.8629978  35.4660014 106.6619992 109.0459978  35.1990014
 107.5959992 109.1219978  36.3870014 107.4433748 108.9230554  35.5539164
 113.2939992 101.1069978  23.8340014 112.7389992 100.7109978  23.1610014
 113.3939992 102.0179978  23.5560014 113.2316816 101.1759505  23.7045033
 113.2569992 106.9079978  36.6710014 112.4059992 107.1459978  36.3030014
 113.8469992 106.8909978  35.9180014 113.2203812 106.9382524  36.5188453
 111.5889992 109.8929978  24.2990014 111.2159992 109.0679978  24.6080014
 111.8659992 109.7099978  23.4010014 111.5753463 109.7552569  24.2199525
 108.7489992 104.7009978  31.3200014 107.8209992 104.4699978  31.2930014
 109.1999992 103.9239978  30.9900014 108.6828165 104.5642774  31.2716790
 101.2919992 109.0299978  27.4530014 101.8199992 109.8029978  27.2530014
 100.4119992 109.2539978  27.1510014 101.2453435 109.1662700  27.3847310
  97.0469992 103.8919978  22.0400014  97.6629992 104.5189978  22.4200014
  96.1849992 104.2079978  22.3120014  97.0147678 104.0204412  22.1287209
 102.7199992 106.6929978  27.0290014 102.4789992 107.6179978  27.0710014
 101.9789992 106.2339978  27.4260014 102.5869206 106.7575915  27.0883769
 103.2339992 110.8419978  33.3440014 103.5969992 111.6959978  33.1110014
 103.7659992 110.5499978  34.0850014 103.3555141 110.9193895  33.4122097
 101.4029992 111.7139978  26.5750014 100.4529992 111.8199978  26.6260014
 101.7549992 112.5349978  26.9190014 101.3205472 111.8394923  26.6284852
 106.7779992 106.9409978  33.0450014 106.3529992 106.7129978  33.8710014
 107.3589992 106.2019978  32.8630014 106.7983395 106.8099545  33.1334414
 108.9809992 107.8699978  22.1190014 109.3349992 107.4899978  22.9230014
 108.0329992 107.7759978  22.2060014 108.9012298 107.8052452  22.2408687
 109.4369992 111.4929978  35.5140014 108.8349992 110.9369978  35.0190014
 109.7179992 112.1599978  34.8880014 109.3925757 111.5070744  35.3615675
 113.4849992 112.3489978  22.3200014 114.2289992 112.9349978  22.1800014
 112.7909992 112.9179978  22.6530014 113.4929809 112.5060818  22.3458590
  97.5589992  98.7259978  34.9220014  96.6669992  99.0639978  34.8540014
  97.4609992  97.8699978  35.3400014  97.4234475  98.6566543  34.9691704
 109.8469992 106.5419978  24.3460014 109.5699992 105.8139978  24.9020014
 110.7749992 106.6609978  24.5510014 109.9344499 106.4584213  24.4498044
  97.2109992 110.5299978  33.3570014  97.4279992 109.5979978  33.3260014
  97.4569992 110.8049978  34.2400014  97.2739809 110.4395686  33.4721691
 103.0719992 108.9819978  20.5660014 103.3109992 108.2329978  20.0190014
 102.8029992 108.5939978  21.3990014 103.0683233 108.8271853  20.6037809
 102.0089992 108.5519978  23.0220014 102.1559992 108.0319978  23.8120014
 102.0059992 109.4589978  23.3290014 102.0287102 108.6033953  23.1715925
  98.4619992 105.8039978  23.5330014  97.7759992 106.1569978  24.1000014
  98.9849992 106.5669978  23.2860014  98.4388402 105.9553901  23.5771801
 106.2939992  98.4669978  33.8120014 106.9929992  98.5409978  34.4620014
 105.9129992  97.6019978  33.9660014 106.3382097  98.3602389  33.9217997
 107.0779992  98.1189978  24.9090014 107.2979992  98.5899978  24.1050014
 107.6369992  98.5129978  25.5790014 107.1836732  98.2367287  24.8895033
 104.7469992 110.2489978  23.7720014 103.9299992 110.7459978  23.8240014
 105.2759992 110.7249978  23.1310014 104.7068125 110.3811989  23.6925306
 104.2779992  99.8469978  25.7440014 105.0899992 100.3509978  25.7900014
 104.0339992  99.7019978  26.6580014 104.3561467  99.8963749  25.8738575
 104.8139992 100.8329978  34.9280014 104.9329992 101.4069978  35.6850014
 105.4689992 100.1449978  35.0430014 104.9188684 100.8185194  35.0471674
 105.1619992  96.9279978  26.6820014 104.8149992  97.5449978  27.3260014
 105.8209992  97.4289978  26.2000014 105.2035090  97.0801575  26.7050681
 102.0849992 111.2929978  23.7530014 102.2459992 112.0929978  23.2530014
 101.8879992 111.5999978  24.6380014 102.0803906 111.4438678  23.8042333
 100.8199992  97.9909978  23.3690014 100.7359992  98.8789978  23.7160014
 101.7099992  97.7259978  23.6010014 100.9288163  98.0767179  23.4478596
 111.0179992  98.7399978  35.7630014 110.1019992  99.0019978  35.6760014
 111.3539992  98.7369978  34.8670014 110.9378499  98.7755163  35.6298766
 109.6209992 102.4899978  29.8590014 108.8229992 102.0749978  29.5310014
 110.0659992 101.7999978  30.3500014 109.5719684 102.3398628  29.8805227
  99.0779992 108.4179978  22.4290014  99.6699992 109.1179978  22.7060014
  99.5369992 107.9849978  21.7100014  99.2211652 108.4552675  22.3696533
  97.3939992 101.0829978  21.5450014  97.3489992 102.0219978  21.7240014
  96.5059992 100.8469978  21.2760014  97.2678166 101.1796687  21.5331524
 110.7069992 111.7459978  31.4810014 110.5509992 112.4249978  30.8240014
 111.6399992 111.8179978  31.6840014 110.8117387 111.8486390  31.4185342
  98.2019992  95.8639978  30.2190014  97.9729992  95.9229978  29.2910014
  97.7599992  95.0729978  30.5250014  98.1108801  95.7650540  30.1334729
  97.1329992 109.8049978  26.3790014  96.2999992 110.2769978  26.4060014
  97.6779992 110.3149978  25.7800014  97.0927857 109.9384791  26.3017142
  96.4209992 112.4169978  37.7090014  96.9609992 112.2009978  38.4690014
  95.9399992 111.6119978  37.5190014  96.4299219 112.2785156  37.7874282
 101.0179992 111.3369978  39.3290014 101.7859992 110.8779978  39.6700014
 100.9969992 111.1109978  38.3990014 101.1202135 111.2436668  39.2499491
 105.1099992 110.8449978  20.7050014 104.4659992 110.2139978  21.0260014
 105.8719992 110.3139978  20.4730014 105.1248058 110.6867902  20.7176038
 107.5949992 109.7169978  38.0580014 107.2439992 108.8599978  38.3020014
 108.3209992 109.8589978  38.6650014 107.6451895 109.6191351  38.1733770
 109.7149992 110.6619978  20.9380014 109.9979992 109.8669978  21.3910014
 110.4539992 110.8949978  20.3770014 109.8537096 110.5847049  20.9241104
  96.3279992 106.2279978  38.6630014  96.4719992 105.3259978  38.3770014
  95.5559992 106.5139978  38.1760014  96.2432733 106.1431798  38.5579532
 100.6689992 106.5709978  20.7960014 100.7339992 105.7769978  21.3260014
 101.3219992 106.4529978  20.1060014 100.7661605 106.4463430  20.7752997
 102.9829992 106.1969978  38.0960014 102.6549992 106.4679978  37.2390014
 103.1349992 105.2559978  38.0080014 102.9586412 106.1069046  37.9667822
 106.0219992 107.6179978  20.5320014 105.7529992 107.7989978  21.4320014
 105.8149992 106.6929978  20.4000014 105.9571191 107.5177119  20.6375524
 108.7179992 106.1129978  35.4790014 109.4629992 106.7019978  35.3600014
 107.9609992 106.6949978  35.5430014 108.7175470 106.2722128  35.4713799
  97.1609992 103.4279978  38.0830014  97.5689992 102.5709978  37.9620014
  96.8999992 103.4419978  39.0040014  97.1816016 103.3125119  38.1909192
 101.8189992 104.5439978  23.1020014 101.3589992 104.0599978  23.7870014
 102.0739992 103.8749978  22.4660014 101.7904856 104.3873669  23.1098397
 101.1079992 102.4369978  35.4580014 100.4889992 103.1109978  35.7380014
 101.4519992 102.7579978  34.6240014 101.0697123 102.5726887  35.3836388
 102.8899992 102.7869978  21.3640014 102.7089992 102.6319978  20.4370014
 103.8399992 102.8949978  21.4090014 102.9936566 102.7803669  21.2430929
 106.1269992 104.9079978  38.7350014 107.0809992 104.9919978  38.7080014
 105.9669992 104.1959978  39.3550014 106.2357182 104.8232842  38.8150733
 112.2799992 105.1409978  20.8100014 112.0059992 104.7169978  19.9970014
 112.3189992 106.0729978  20.5930014 112.2477716 105.2088827  20.6694286
 101.4469992  99.7919978  36.5400014 101.5969992  99.0629978  35.9380014
 101.4489992 100.5689978  35.9810014 101.4677967  99.7972708  36.3820541
 101.8599992  98.1609978  34.0330014 102.3949992  98.6129978  33.3810014
 101.0069992  98.0529978  33.6100014 101.8180374  98.2082665  33.8866710
 103.4409992 103.6009978  34.2720014 104.1919992 103.4449978  33.6990014
 103.1019992 104.4529978  33.9970014 103.4979587 103.6948138  34.1564078
 107.8569992 101.4159978  39.3010014 108.0489992 100.4849978  39.1890014
 108.7149992 101.8409978  39.2900014 107.9992182 101.3460070  39.2841862
 109.1739992 104.2049978  37.3780014 108.8919992 104.9139978  36.8000014
 110.1159992 104.1319978  37.2270014 109.2627921 104.2922193  37.2784225
  99.9259992 100.9899978  38.4510014  99.1579992 100.4569978  38.2410014
 100.6039992 100.6799978  37.8520014  99.9127235 100.8751754  38.3412413
 102.6649992  95.6179978  34.4640014 102.5669992  96.5639978  34.3590014
 101.9229992  95.2449978  33.9880014 102.5512534  95.6971773  34.3852600
 103.9289992  99.9389978  38.0280014 103.6939992  99.7199978  38.9290014
 103.1459992  99.7319978  37.5180014 103.7909095  99.8809892  38.0825353
 106.6449992  99.0669978  37.1030014 105.6969992  99.0989978  37.2350014
 106.9569992  98.4409978  37.7570014 106.5575293  98.9867923  37.2094148
 108.2789992  97.7009978  39.1080014 108.1819992  96.7489978  39.1030014
 107.9569992  97.9689978  39.9690014 108.2222468  97.6070884  39.2236210
  98.1059992  98.9099978  38.1560014  98.3179992  98.2039978  37.5460014
  97.9949992  98.4729978  39.0000014  98.1200269  98.7541921  38.1865873
 102.8869992  94.9119978  37.1350014 103.5989992  94.2719978  37.1210014
 102.7859992  95.1779978  36.2220014 102.9707387  94.8604330  37.0095563
 103.2409992  96.5939978  39.1890014 103.1089992  96.1189978  38.3690014
 102.6409992  97.3389978  39.1340014 103.1419070  96.6295789  39.0693251
 102.7869992 113.4769978  22.3650014 103.7199992 113.6349978  22.5090014
 102.5229992 114.1529978  21.7400014 102.8789911 113.5899373  22.3002722
  96.3549992 108.1139978  21.8480014  97.2689992 108.1929978  22.1210014
  96.3629992 107.4269978  21.1820014  96.4810655 108.0319205  21.7952917
  95.0039992 113.5069978  26.9250014  94.3569992 113.0449978  26.3930014
  95.3589992 112.8349978  27.5080014  94.9633741 113.3529774  26.9309175
  95.8739992 111.5869978  28.7300014  95.5399992 110.7069978  28.9020014
  96.0969992 111.9329978  29.5950014  95.8583721 111.5131938  28.8704168
 113.4229992 112.3969978  31.7110014 113.4009992 112.5819978  32.6500014
 114.1129992 112.9649978  31.3700014 113.5133439 112.4991887  31.7934791
 112.9859992 111.9639978  34.6320014 112.4989992 111.2289978  34.2610014
 113.5349992 111.5699978  35.3100014 112.9935247 111.8101057  34.6728461
 111.4369992 107.7539978  39.2710014 110.5709992 107.6489978  39.6650014
 111.8129992 108.5119978  39.7170014 111.3693401 107.8421708  39.3852620
 112.7379992 106.0099978  24.7850014 113.5879992 106.4309978  24.9120014
 112.7429992 105.2699978  25.3920014 112.8551143 105.9676094  24.8844750
 113.1319992 104.0639978  26.6080014 112.4059992 103.5839978  27.0060014
 113.7139992 104.2689978  27.3410014 113.1112730 104.0260184  26.7614149
 112.8909992 106.8489978  31.5560014 113.7249992 106.4709978  31.2750014
 113.0029992 107.7919978  31.4370014 113.0201917 106.9247943  31.5014861
 111.3779992 109.7269978  33.8630014 110.7299992 110.0519978  34.4880014
 110.8599992 109.2859978  33.1890014 111.2194196 109.7118651  33.8574152
 113.4009992 103.9649978  22.9990014 112.8789992 104.3209978  22.2810014
 113.3679992 104.6399978  23.6780014 113.3250129 104.1049598  22.9923355
 111.7499992 101.2039978  21.5500014 111.8459992 101.8709978  20.8700014
 111.6099992 100.3889978  21.0690014 111.7442040 101.1850671  21.3918378
 110.9189992 102.5849978  27.1710014 110.7689992 101.6399978  27.1510014
 110.5649992 102.8659978  28.0150014 110.8506351 102.4936644  27.2823220
  95.9539992 104.6629978  31.1820014  96.1389992 104.5809978  30.2460014
  96.8039992 104.5389978  31.6050014  96.0940928 104.6350463  31.1112893
 111.7749992 104.5549978  36.8100014 112.3579992 103.8199978  37.0020014
 112.3389992 105.3269978  36.8570014 111.9309781 104.5588145  36.8426164
 113.2719992 102.4579978  37.4950014 112.4089992 102.0789978  37.3290014
 113.8759992 101.7189978  37.4200014 113.2356085 102.3063223  37.4621695
 110.9969992  98.6119978  20.6680014 111.6079992  98.2409978  21.3050014
 110.1599992  98.1909978  20.8640014 110.9674947  98.5042756  20.7817252
 110.6299992 100.1669978  25.6340014 110.9089992  99.2599978  25.7580014
 111.3889992 100.6009978  25.2450014 110.7708619 100.1014502  25.5983795
 111.2409992 100.7489978  31.0700014 112.1739992 100.9609978  31.0350014
 111.0059992 100.8499978  31.9920014 111.3369517 100.7916833  31.1899130
 111.2709992 101.4859978  33.8460014 110.4279992 101.7539978  34.2120014
 111.7129992 102.3079978  33.6350014 111.2154138 101.6338273  33.8675518
  95.5519992  99.9329978  37.3220014  96.4709992  99.8109978  37.5590014
  95.1019992  99.1829978  37.7120014  95.6170087  99.8149608  37.4071410
 113.5539992  95.4659978  39.1990014 113.9029992  94.8119978  38.5940014
 113.7009992  96.3029978  38.7590014 113.6216824  95.4896024  39.0566304
 111.2429992  97.4299978  25.6820014 111.4249992  96.9809978  26.5070014
 110.6429992  96.8459978  25.2180014 111.1868187  97.2895552  25.7322739
  96.7729992  98.2459978  30.2140014  97.2179992  97.4539978  30.5160014
  97.2389992  98.9619978  30.6440014  96.8969718  98.2344534  30.3135265
  95.0769992 101.2449978  31.2830014  95.5689992 101.0239978  30.4920014
  95.4389992 102.0849978  31.5640014  95.1932923 101.3283468  31.2127407
 113.0729992  97.5749978  37.5480014 112.1559992  97.8459978  37.5130014
 113.1959992  97.0399978  36.7640014 112.9639672  97.5397885  37.4371862
 113.1099992  97.4979978  22.2100014 113.5219992  96.7769978  21.7350014
 113.7909992  98.1669978  22.2680014 113.2585536  97.4897766  22.1528024
  95.3909992  97.5029978  25.3370014  94.4659992  97.7109978  25.2080014
  95.8449992  97.9869978  24.6470014  95.3256298  97.5969299  25.2260451
 110.1609992 112.4869978  27.2830014 110.8139992 112.1389978  26.6750014
 110.6719992 112.9749978  27.9290014 110.3192777 112.5053815  27.2872047
  95.3539992  96.2409978  33.6810014  94.6889992  95.9949978  34.3240014
  94.9109992  96.8629978  33.1040014  95.2031168  96.2914214  33.6909848
  97.5459992 109.4159978  37.8260014  96.7249992 109.5909978  37.3650014
  97.2939992 109.3429978  38.7460014  97.3995594 109.4300717  37.8873611
 100.4999992 110.3899978  34.0840014 100.0759992 111.1999978  33.8020014
 101.4049992 110.4759978  33.7820014 100.5642138 110.5124160  34.0046415
 104.8119992 111.7889978  37.0440014 104.9959992 111.4559978  37.9220014
 105.6579992 112.0989978  36.7220014 104.9516484 111.7852979  37.1207617
 107.1569992 113.0749978  36.2880014 107.8339992 112.4419978  36.0480014
 107.4779992 113.4759978  37.0950014 107.2931323 113.0425691  36.3643158
 112.0739992  95.6649978  35.3670014 111.2609992  95.9899978  34.9800014
 112.3069992  94.9039978  34.8340014 111.9941347  95.6066880  35.2419841
  97.9019992 113.6469978  34.1320014  97.1819992 114.0869978  33.6810014
  97.5369992 113.3959978  34.9800014  97.7539643 113.6733369  34.1849129
 100.3689992 113.2469978  33.1620014  99.5049992 113.3189978  33.5660014
 100.3139992 113.7939978  32.3780014 100.2431942 113.3307849  33.1114000
 105.0799992 113.1349978  32.3370014 104.6229992 113.6639978  31.6830014
 105.2429992 113.7379978  33.0620014 105.0394960 113.2889280  32.3455274
 107.4079992 112.0129978  33.2820014 106.5029992 112.1779978  33.0160014
 107.8359992 112.8659978  33.2160014 107.3421537 112.1509134  33.2367095
 110.0119992 113.5829978  33.5770014 109.8299992 114.4989978  33.3660014
 110.1889992 113.1719978  32.7300014 110.0110030 113.6528273  33.4337166
  97.3169992 112.2699978  31.0420014  97.2989992 111.8439978  31.8990014
  98.1219992 111.9509978  30.6330014  97.4232875 112.1686435  31.1039515
  99.4579992 110.9799978  29.6970014  99.2389992 110.0629978  29.8670014
 100.2819992 111.1199978  30.1630014  99.5394702 110.8735511  29.7832527
 101.9949992 111.4499978  30.5460014 102.2079992 110.5619978  30.2590014
 102.0599992 111.4149978  31.5000014 102.0329149 111.3238326  30.6357369
 105.5039992  97.1139978  29.6900014 104.8299992  96.4839978  29.9460014
 106.0679992  96.6299978  29.0870014 105.4880384  96.9623708  29.6435020
 110.6469992  95.2209978  29.8030014 111.2499992  95.7689978  29.3010014
 109.7769992  95.5399978  29.5620014 110.6119157  95.3390373  29.7017910
 112.3739992  96.3599978  28.1360014 112.9849992  95.8459978  27.6090014
 112.7559992  97.2369978  28.1590014 112.5093305  96.4082050  28.0669418
  97.8309992  95.7479978  27.5120014  97.0539992  95.5129978  27.0050014
  98.3609992  94.9509978  27.5210014  97.7963451  95.6081268  27.4438627
  96.6669992  95.5459978  23.3160014  97.1059992  96.1569978  22.7240014
  96.0329992  96.0839978  23.7900014  96.6413859  95.7024064  23.2990305
 102.4099992  95.6739978  27.3250014 103.2839992  96.0629978  27.2960014
 102.2739992  95.4589978  28.2480014 102.5111953  95.6981643  27.4457617
 107.9669992  95.7039978  28.9750014 108.0429992  95.7999978  28.0250014
 107.6919992  94.7969978  29.1030014 107.9401871  95.5944146  28.8623944
 109.3199992  95.7299978  24.6670014 108.6169992  96.3449978  24.4570014
 108.8749992  94.8929978  24.7980014 109.1636550  95.7009668  24.6559837
  96.5679992 111.4939978  24.2130014  95.8829992 111.4559978  23.5460014
  96.5719992 112.4069978  24.5010014  96.4747621 111.6121924  24.1606126
  98.5279992  97.4619978  21.7580014  99.0189992  96.8319978  21.2310014
  99.1509992  97.7579978  22.4210014  98.6795304  97.4157376  21.7754940
 103.5539992  97.7549978  24.2150014 103.7319992  97.1079978  24.8980014
 103.4999992  98.5889978  24.6820014 103.5710678  97.7791604  24.3716301
 105.4319992 112.7029978  22.6110014 106.2979992 113.0699978  22.4330014
 105.1859992 112.2639978  21.7970014 105.5172097 112.6938525  22.4766019
 112.1409992 112.2659978  25.2900014 111.9469992 111.5179978  24.7250014
 112.1019992 113.0239978  24.7070014 112.1091645 112.2660786  25.1338148
  97.7879992  96.2619978  37.0300014  97.4219992  95.4959978  37.4720014
  98.7009992  96.2909978  37.3160014  97.8613172  96.1610324  37.1291890
  99.7609992  95.6119978  38.5650014 100.6599992  95.3379978  38.3810014
  99.3749992  94.8699978  39.0300014  99.8317307  95.4742196  38.6027098
  98.3859992 112.4139978  21.2380014  98.1179992 112.6999978  22.1120014
  99.1569992 111.8679978  21.3910014  98.4535927 112.3792779  21.3781205
 108.1829992  94.9449978  38.7480014 108.2589992  94.5189978  39.6010014
 109.0759992  94.9579978  38.4050014 108.3142303  94.8883493  38.8185497
 111.3589992 111.0179978  37.4400014 110.5769992 110.8309978  36.9200014
 111.2869992 111.9469978  37.6570014 111.2421924 111.1180637  37.3981602
 125.7649992 104.9039978  27.4710014 125.8539992 105.8479978  27.3390014
 125.1269992 104.6289978  26.8130014 125.6909061 104.9959812  27.3639641
 124.6979992 104.1589978  30.8900014 124.6599992 103.5129978  31.5950014
 124.3759992 103.6919978  30.1190014 124.6492679 104.0074276  30.8822921
 117.0659992 103.7729978  32.4830014 117.1079992 103.1479978  33.2060014
 117.7689992 104.3969978  32.6650014 117.1667345 103.7717873  32.6065273
 128.4039992 107.0979978  29.1910014 127.9629992 106.3779978  29.6420014
 128.3909992 107.8189978  29.8210014 128.3419215 107.0969291  29.3378105
 117.9899992 108.2229978  31.0180014 117.6199992 107.4209978  30.6480014
 118.9309992 108.0549978  31.0640014 118.0665984 108.0904638  30.9735603
 114.5999992 101.8829978  26.4100014 114.1519992 102.7289978  26.3920014
 114.0389992 101.3039978  25.8950014 114.4628546 101.9203993  26.3378891
 115.3099992 104.0449978  28.5360014 115.5239992 103.2749978  29.0640014
 116.0479992 104.1349978  27.9330014 115.4390200 103.9518586  28.5267035
 125.5159992 112.2019978  29.4030014 126.1349992 111.5259978  29.1300014
 125.3069992 111.9839978  30.3120014 125.5726056 112.0798869  29.4883967
 123.0869992 106.5909978  31.2960014 123.3909992 105.9049978  30.7010014
 123.8089992 106.7099978  31.9140014 123.2261240 106.5132314  31.2980959
 131.7499992  98.1929978  32.1560014 131.7999992  98.8029978  32.8920014
 132.1759992  98.6539978  31.4330014 131.8144108  98.3387709  32.1590112
 126.2279992 100.9849978  31.6230014 126.3709992 100.0389978  31.6430014
 126.1219992 101.1919978  30.6950014 126.2332403 100.8834797  31.5002239
 119.3829992  99.0869978  28.8960014 119.4259992  99.9469978  28.4770014
 118.9249992  98.5349978  28.2620014 119.3269871  99.1299245  28.7530761
 127.1049992  99.2179978  27.2970014 127.7519992  98.8889978  27.9210014
 127.6149992  99.7349978  26.6740014 127.2624351  99.2429067  27.2981037
 116.0029992 101.4839978  29.6580014 116.6569992 100.9339978  30.0900014
 116.0269992 101.2099978  28.7410014 116.0957199 101.3717167  29.5931668
 121.1599992 103.0339978  28.8730014 121.7759992 102.5069978  29.3820014
 120.5729992 102.3939978  28.4690014 121.1650154 102.8753954  28.8880945
 132.1419992  99.6709978  34.3920014 131.4529992 100.3289978  34.2970014
 132.1569992  99.4729978  35.3290014 132.0497756  99.7342603  34.5055812
 118.1929992  98.0049978  32.9700014 117.9739992  98.5349978  32.2030014
 117.5249992  98.2309978  33.6170014 118.0726975  98.1080967  32.9525140
 125.5619992 107.5049978  26.5140014 125.2669992 107.1819978  25.6620014
 125.2379992 108.4049978  26.5550014 125.4778460 107.5824464  26.4029714
 120.7619992 105.6799978  33.2570014 120.0219992 106.2789978  33.3610014
 121.4759992 106.2339978  32.9420014 120.7573500 105.8367829  33.2286371
 128.8689992  98.5089978  29.2770014 128.6539992  97.7429978  29.8100014
 129.5249992  98.9809978  29.7900014 128.9282673  98.4680728  29.4191990
 117.7869992  99.8969978  30.9220014 118.4009992 100.5299978  31.2950014
 118.2989992  99.4249978  30.2660014 117.9401962  99.9197249  30.8842935
 119.1699992 107.6449978  34.0440014 119.1639992 108.5239978  33.6660014
 118.3159992 107.5609978  34.4690014 119.0537925 107.7539535  34.0496887
 115.2909992 107.3159978  24.8260014 115.0189992 107.5449978  23.9380014
 115.3359992 108.1529978  25.2870014 115.2598097 107.4606163  24.7666683
 128.9159992 108.9369978  31.5390014 127.9739992 108.9959978  31.7010014
 129.1919992 109.8429978  31.4020014 128.8245865 109.0675288  31.5426192
 129.2159992  97.2239978  32.9560014 128.4799992  97.8339978  32.9190014
 129.8999992  97.6389978  32.4300014 129.2075367  97.3637551  32.8798174
 122.2199992  95.3099978  30.4220014 122.1019992  94.3619978  30.3680014
 121.3649992  95.6429978  30.6950014 122.0882805  95.2252202  30.4515079
 127.1679992 110.7179978  28.1640014 127.5929992 110.0109978  27.6790014
 127.4849992 111.5199978  27.7470014 127.2690266 110.7295190  28.0412479
 128.3279992 108.6189978  26.6730014 128.0699992 107.9289978  26.0610014
 128.3989992 108.1759978  27.5180014 128.3023050 108.4646814  26.7035621
 130.0139992 107.1859978  35.1500014 130.1529992 106.5939978  34.4110014
 130.1809992 108.0589978  34.7940014 130.0556193 107.2228896  35.0006211
 124.4859992 104.1479978  24.9230014 123.7749992 104.6829978  24.5710014
 125.1769992 104.2029978  24.2630014 124.4820751 104.2286777  24.7855858
 124.5399992 102.6049978  21.9610014 125.2409992 102.6279978  22.6130014
 124.8419992 101.9769978  21.3050014 124.6768202 102.5232212  21.9615609
 131.8549992 103.5259978  33.2160014 131.2029992 104.2199978  33.3050014
 132.3209992 103.7359978  32.4060014 131.8285937 103.6495019  33.1187533
 127.8919992 104.3569978  25.8740014 127.1599992 104.5859978  26.4480014
 128.3389992 103.6439978  26.3290014 127.8523963 104.2918729  26.0139945
 127.7889992 102.5319978  34.9420014 127.8689992 103.2949978  35.5140014
 127.1879992 102.8109978  34.2520014 127.7186547 102.6742457  34.9270047
 119.5369992 104.9879978  27.7570014 119.2069992 104.6169978  26.9390014
 120.1259992 104.3169978  28.1040014 119.5713970 104.8466063  27.6919404
 120.9039992 108.4159978  30.4380014 120.8089992 107.8369978  29.6820014
 121.6329992 108.0449978  30.9340014 120.9896011 108.2865561  30.4016028
 119.9039992 103.7559978  31.3900014 120.4689992 103.8779978  30.6280014
 120.2229992 104.3939978  32.0290014 120.0244166 103.8588791  31.3720348
 126.2129992 109.2599978  32.1240014 125.9729992 109.9219978  32.7720014
 126.0149992 108.4249978  32.5490014 126.1533826 109.2378115  32.2701566
 120.7839992 108.1559978  36.1080014 120.4729992 108.9379978  36.5630014
 120.1339992 108.0029978  35.4220014 120.6535538 108.2424087  36.0775898
 126.7629992 103.5199978  23.5600014 127.3419992 103.6699978  24.3060014
 127.1769992 103.9899978  22.8360014 126.8983358 103.6040955  23.5643953
 117.7039992 104.3539978  35.3360014 117.7739992 105.0049978  36.0350014
 116.8129992 104.4569978  35.0010014 117.5931690 104.4569249  35.3863043
 124.4889992 110.2559978  26.9950014 124.9629992 110.5519978  27.7720014
 123.9259992 110.9949978  26.7620014 124.4777890 110.3963036  27.0698101
 119.0229992 110.2269978  36.8710014 119.0309992 110.0909978  35.9240014
 118.1069992 110.1099978  37.1230014 118.9002528 110.1925463  36.7753243
 130.4619992  95.2699978  23.3730014 129.5619992  95.4089978  23.6680014
 130.7139992  96.1009978  22.9710014 130.3728683  95.4014055  23.3590232
 118.5279992 104.0569978  25.3460014 118.2359992 104.8249978  24.8550014
 117.8529992 103.3979978  25.1830014 118.3968497 104.0729745  25.2568260
 131.6509992 109.6359978  21.7490014 131.7239992 110.5749978  21.9190014
 132.5559992 109.3309978  21.6930014 131.7834170 109.7233282  21.7647063
 114.6209992 106.4199978  34.1610014 114.1189992 106.3919978  33.3460014
 114.6259992 105.5149978  34.4710014 114.5529832 106.2937486  34.0914121
 114.3709992 109.2009978  31.0450014 115.3169992 109.0559978  31.0260014
 114.2579992 109.9849978  31.5820014 114.4853578 109.2871697  31.1150317
 132.5689992 109.8669978  36.7280014 132.5189992 108.9109978  36.6900014
 131.7419992 110.1339978  37.1290014 132.4503831 109.7724680  36.7770121
 123.5469992 109.4409978  35.6040014 123.6349992 110.2669978  36.0790014
 122.6839992 109.1109978  35.8530014 123.4423357 109.5095468  35.7027653
 123.9619992 113.2129978  25.4100014 123.8859992 113.0919978  24.4630014
 123.9939992 114.1619978  25.5280014 123.9559380 113.3247677  25.2965181
 117.6149992 112.0019978  27.1910014 117.7669992 111.6539978  28.0690014
 116.7639992 111.6449978  26.9350014 117.5208344 111.9060879  27.2766868
 127.0629992 112.3669978  22.4120014 127.4379992 111.6229978  21.9410014
 127.0679992 112.0969978  23.3300014 127.1150098 112.2286392  22.4716629
 126.7319992 112.2929978  25.1610014 125.7969992 112.3929978  25.3400014
 127.0119992 111.5829978  25.7400014 126.6419471 112.2107933  25.2636695
 129.7209992 101.3599978  37.2080014 129.3129992 101.8399978  36.4870014
 129.7609992 100.4539978  36.9000014 129.6706221 101.3032449  37.0678267
 116.8699992 107.7439978  35.2040014 117.0859992 107.3819978  36.0640014
 116.0139992 107.3689978  34.9950014 116.7838810 107.6438837  35.2932680
 119.4879992  96.2139978  31.2000014 118.6269992  96.1269978  30.7920014
 119.4659992  97.0699978  31.6280014 119.3670491  96.3178003  31.2019582
 124.1509992  95.9359978  34.5750014 124.5709992  95.5209978  35.3280014
 123.2179992  95.7569978  34.6920014 124.0823736  95.8549910  34.6938968
 127.4779992  99.6909978  35.4280014 126.9639992  99.5659978  36.2260014
 127.3219992 100.6039978  35.1840014 127.3866967  99.7972123  35.5040937
 128.2399992 104.5519978  21.1890014 128.2819992 104.3299978  20.2590014
 129.0889992 104.9509978  21.3790014 128.3605253 104.5755498  21.0873822
 123.8129992  98.4279978  21.8600014 123.5589992  98.4469978  22.7820014
 123.5559992  97.5569978  21.5580014 123.7434508  98.3128280  21.9454803
 119.5789992 101.1789978  32.2950014 118.9379992 101.1389978  33.0040014
 119.6169992 102.1059978  32.0570014 119.4963010 101.2987668  32.3599946
 119.5759992 101.3999978  27.2070014 118.6839992 101.0599978  27.1480014
 120.0269992 101.0229978  26.4510014 119.5147642 101.3024910  27.0967726
 125.1119992 101.8159978  26.0240014 124.7029992 102.6309978  25.7320014
 125.8319992 101.6759978  25.4100014 125.1534439 101.9085372  25.9010115
 124.2139992 101.9919978  37.5120014 123.6509992 101.2869978  37.8330014
 125.0399992 101.8709978  37.9800014 124.2486674 101.8792165  37.6191751
 126.1169992 101.2619978  28.8380014 125.9209992 101.8679978  28.1230014
 126.2979992 100.4289978  28.4040014 126.1146584 101.2322513  28.6814212
 117.3289992 101.4999978  34.1620014 117.2909992 101.8999978  35.0310014
 116.8389992 100.6829978  34.2520014 117.2575330 101.4442674  34.2931289
 120.6949992  98.8739978  20.9610014 120.2639992  98.4289978  21.6900014
 119.9769992  99.2449978  20.4480014 120.5389176  98.8632051  20.9914930
 113.9379992  98.6159978  28.0130014 114.5679992  98.5869978  28.7320014
 114.3869992  98.1909978  27.2820014 114.0850835  98.5545660  28.0127659
 115.2119992  99.3619978  23.4370014 115.6859992  99.9529978  22.8520014
 114.4939992  99.8919978  23.7840014 115.1798640  99.5145511  23.4037969
 125.3809992 102.8999978  33.5090014 125.7039992 102.2689978  32.8660014
 124.9399992 102.3659978  34.1700014 125.3656379 102.7413468  33.5102582
 122.1579992  98.8279978  28.2930014 121.2469992  98.8849978  28.5820014
 122.6629992  98.7679978  29.1040014 122.1016873  98.8276826  28.4421207
 116.9859992 100.4569978  27.1200014 116.0969992 100.5559978  26.7800014
 117.2829992  99.6149978  26.7740014 116.9044177 100.3567687  27.0266940
 120.6389992 100.4569978  24.7770014 121.5709992 100.5859978  24.9550014
 120.4239992 101.1259978  24.1270014 120.7374472 100.5650806  24.7134891
 126.5629992  98.0629978  31.5580014 125.8859992  98.1939978  32.2210014
 126.0779992  97.9079978  30.7470014 126.4047405  98.0599947  31.5392170
 119.3129992 101.6509978  22.3430014 118.7709992 101.2719978  21.6520014
 120.1469992 101.8459978  21.9150014 119.3514390 101.6254079  22.1904392
 129.8509992 113.7339978  37.8340014 130.0499992 114.1579978  37.0000014
 130.5059992 114.0779978  38.4410014 129.9668522 113.8386301  37.8017852
 117.4489992 106.2079978  37.4420014 118.1809992 106.4629978  38.0040014
 116.6679992 106.4129978  37.9580014 117.4436526 106.2705450  37.5885176
 123.4779992 101.6149978  30.1800014 124.0419992 101.0689978  29.6330014
 123.3299992 101.0939978  30.9690014 123.5353037 101.4696787  30.2117229
 118.4799992  97.7519978  26.5990014 118.1629992  96.8489978  26.5630014
 119.2609992  97.7539978  26.0460014 118.5422431  97.6287797  26.5193102
 122.1039992 100.0039978  32.5940014 121.2689992 100.4579978  32.7050014
 122.6279992 100.2799978  33.3460014 122.0606072 100.1033948  32.7108136
 122.6489992 106.2169978  24.2790014 121.9039992 105.7089978  23.9570014
 122.5139992 106.2659978  25.2250014 122.5288963 106.1541731  24.3628826
 129.7989992 105.3499978  33.0660014 130.4399992 105.8059978  32.5220014
 128.9679992 105.4629978  32.6030014 129.7745287 105.4276921  32.9289887
 126.5459992  99.0309978  22.4780014 125.6079992  99.1419978  22.3270014
 126.8439992  99.8869978  22.7850014 126.4576318  99.1620158  22.4988145
 124.1679992 106.4009978  35.5160014 123.8219992 106.0189978  36.3230014
 123.9679992 107.3339978  35.5870014 124.0935987 106.4749002  35.6360461
 127.2649992 100.8979978  24.1390014 128.1569992 100.7599978  24.4580014
 127.3209992 101.6889978  23.6020014 127.3947325 100.9859918  24.1101217
 117.7729992 105.5119978  30.0490014 118.5179992 105.5089978  29.4470014
 117.8509992 104.6879978  30.5300014 117.8853365 105.4002384  30.0317430
 124.7739992 107.6749978  23.3040014 124.4789992 108.5019978  23.6860014
 124.0709992 107.0559978  23.5010014 124.6386379 107.7044171  23.3828654
 114.7809992 103.9719978  35.3640014 115.0039992 103.5539978  36.1950014
 114.1789992 103.3599978  34.9410014 114.7301513 103.8319606  35.4206740
 121.7979992 103.4889978  37.5770014 121.5019992 103.3239978  36.6810014
 122.7289992 103.2689978  37.5660014 121.8834401 103.4366880  37.4530206
 126.4179992 108.8629978  35.4660014 125.5179992 109.0459978  35.1990014
 126.4519992 109.1219978  36.3870014 126.2993748 108.9230554  35.5539164
 132.1499992 101.1069978  23.8340014 131.5949992 100.7109978  23.1610014
 132.2499992 102.0179978  23.5560014 132.0876816 101.1759505  23.7045033
 132.1129992 106.9079978  36.6710014 131.2619992 107.1459978  36.3030014
 132.7029992 106.8909978  35.9180014 132.0763812 106.9382524  36.5188453
 130.4449992 109.8929978  24.2990014 130.0719992 109.0679978  24.6080014
 130.7219992 109.7099978  23.4010014 130.4313463 109.7552569  24.2199525
 127.6049992 104.7009978  31.3200014 126.6769992 104.4699978  31.2930014
 128.0559992 103.9239978  30.9900014 127.5388165 104.5642774  31.2716790
 120.1479992 109.0299978  27.4530014 120.6759992 109.8029978  27.2530014
 119.2679992 109.2539978  27.1510014 120.1013435 109.1662700  27.3847310
 115.9029992 103.8919978  22.0400014 116.5189992 104.5189978  22.4200014
 115.0409992 104.2079978  22.3120014 115.8707678 104.0204412  22.1287209
 121.5759992 106.6929978  27.0290014 121.3349992 107.6179978  27.0710014
 120.8349992 106.2339978  27.4260014 121.4429206 106.7575915  27.0883769
 122.0899992 110.8419978  33.3440014 122.4529992 111.6959978  33.1110014
 122.6219992 110.5499978  34.0850014 122.2115141 110.9193895  33.4122097
 120.2589992 111.7139978  26.5750014 119.3089992 111.8199978  26.6260014
 120.6109992 112.5349978  26.9190014 120.1765472 111.8394923  26.6284852
 125.6339992 106.9409978  33.0450014 125.2089992 106.7129978  33.8710014
 126.2149992 106.2019978  32.8630014 125.6543395 106.8099545  33.1334414
 127.8369992 107.8699978  22.1190014 128.1909992 107.4899978  22.9230014
 126.8889992 107.7759978  22.2060014 127.7572298 107.8052452  22.2408687
 128.2929992 111.4929978  35.5140014 127.6909992 110.9369978  35.0190014
 128.5739992 112.1599978  34.8880014 128.2485757 111.5070744  35.3615675
 132.3409992 112.3489978  22.3200014 133.0849992 112.9349978  22.1800014
 131.6469992 112.9179978  22.6530014 132.3489809 112.5060818  22.3458590
 116.4149992  98.7259978  34.9220014 115.5229992  99.0639978  34.8540014
 116.3169992  97.8699978  35.3400014 116.2794475  98.6566543  34.9691704
 128.7029992 106.5419978  24.3460014 128.4259992 105.8139978  24.9020014
 129.6309992 106.6609978  24.5510014 128.7904499 106.4584213  24.4498044
 116.0669992 110.5299978  33.3570014 116.2839992 109.5979978  33.3260014
 116.3129992 110.8049978  34.2400014 116.1299809 110.4395686  33.4721691
 121.9279992 108.9819978  20.5660014 122.1669992 108.2329978  20.0190014
 121.6589992 108.5939978  21.3990014 121.9243233 108.8271853  20.6037809
 120.8649992 108.5519978  23.0220014 121.0119992 108.0319978  23.8120014
 120.8619992 109.4589978  23.3290014 120.8847102 108.6033953  23.1715925
 117.3179992 105.8039978  23.5330014 116.6319992 106.1569978  24.1000014
 117.8409992 106.5669978  23.2860014 117.2948402 105.9553901  23.5771801
 125.1499992  98.4669978  33.8120014 125.8489992  98.5409978  34.4620014
 124.7689992  97.6019978  33.9660014 125.1942097  98.3602389  33.9217997
 125.9339992  98.1189978  24.9090014 126.1539992  98.5899978  24.1050014
 126.4929992  98.5129978  25.5790014 126.0396731  98.2367287  24.8895033
 123.6029992 110.2489978  23.7720014 122.7859992 110.7459978  23.8240014
 124.1319992 110.7249978  23.1310014 123.5628125 110.3811989  23.6925306
 123.1339992  99.8469978  25.7440014 123.9459992 100.3509978  25.7900014
 122.8899992  99.7019978  26.6580014 123.2121467  99.8963749  25.8738575
 123.6699992 100.8329978  34.9280014 123.7889992 101.4069978  35.6850014
 124.3249992 100.1449978  35.0430014 123.7748684 100.8185194  35.0471674
 124.0179992  96.9279978  26.6820014 123.6709992  97.5449978  27.3260014
 124.6769992  97.4289978  26.2000014 124.0595090  97.0801575  26.7050681
 120.9409992 111.2929978  23.7530014 121.1019992 112.0929978  23.2530014
 120.7439992 111.5999978  24.6380014 120.9363906 111.4438678  23.8042333
 119.6759992  97.9909978  23.3690014 119.5919992  98.8789978  23.7160014
 120.5659992  97.7259978  23.6010014 119.7848163  98.0767179  23.4478596
 129.8739992  98.7399978  35.7630014 128.9579992  99.0019978  35.6760014
 130.2099992  98.7369978  34.8670014 129.7938499  98.7755163  35.6298766
 128.4769992 102.4899978  29.8590014 127.6789992 102.0749978  29.5310014
 128.9219992 101.7999978  30.3500014 128.4279684 102.3398628  29.8805227
 117.9339992 108.4179978  22.4290014 118.5259992 109.1179978  22.7060014
 118.3929992 107.9849978  21.7100014 118.0771652 108.4552675  22.3696533
 116.2499992 101.0829978  21.5450014 116.2049992 102.0219978  21.7240014
 115.3619992 100.8469978  21.2760014 116.1238166 101.1796687  21.5331524
 129.5629992 111.7459978  31.4810014 129.4069992 112.4249978  30.8240014
 130.4959992 111.8179978  31.6840014 129.6677387 111.8486390  31.4185342
 117.0579992  95.8639978  30.2190014 116.8289992  95.9229978  29.2910014
 116.6159992  95.0729978  30.5250014 116.9668801  95.7650540  30.1334729
 115.9889992 109.8049978  26.3790014 115.1559992 110.2769978  26.4060014
 116.5339992 110.3149978  25.7800014 115.9487857 109.9384791  26.3017142
 115.2769992 112.4169978  37.7090014 115.8169992 112.2009978  38.4690014
 114.7959992 111.6119978  37.5190014 115.2859219 112.2785156  37.7874282
 119.8739992 111.3369978  39.3290014 120.6419992 110.8779978  39.6700014
 119.8529992 111.1109978  38.3990014 119.9762135 111.2436668  39.2499491
 123.9659992 110.8449978  20.7050014 123.3219992 110.2139978  21.0260014
 124.7279992 110.3139978  20.4730014 123.9808058 110.6867902  20.7176038
 126.4509992 109.7169978  38.0580014 126.0999992 108.8599978  38.3020014
 127.1769992 109.8589978  38.6650014 126.5011895 109.6191351  38.1733770
 128.5709992 110.6619978  20.9380014 128.8539992 109.8669978  21.3910014
 129.3099992 110.8949978  20.3770014 128.7097096 110.5847049  20.9241104
 115.1839992 106.2279978  38.6630014 115.3279992 105.3259978  38.3770014
 114.4119992 106.5139978  38.1760014 115.0992733 106.1431798  38.5579532
 119.5249992 106.5709978  20.7960014 119.5899992 105.7769978  21.3260014
 120.1779992 106.4529978  20.1060014 119.6221605 106.4463430  20.7752997
 121.8389992 106.1969978  38.0960014 121.5109992 106.4679978  37.2390014
 121.9909992 105.2559978  38.0080014 121.8146412 106.1069046  37.9667822
 124.8779992 107.6179978  20.5320014 124.6089992 107.7989978  21.4320014
 124.6709992 106.6929978  20.4000014 124.8131191 107.5177119  20.6375524
 127.5739992 106.1129978  35.4790014 128.3189992 106.7019978  35.3600014
 126.8169992 106.6949978  35.5430014 127.5735470 106.2722128  35.4713799
 116.0169992 103.4279978  38.0830014 116.4249992 102.5709978  37.9620014
 115.7559992 103.4419978  39.0040014 116.0376016 103.3125119  38.1909192
 120.6749992 104.5439978  23.1020014 120.2149992 104.0599978  23.7870014
 120.9299992 103.8749978  22.4660014 120.6464856 104.3873669  23.1098397
 119.9639992 102.4369978  35.4580014 119.3449992 103.1109978  35.7380014
 120.3079992 102.7579978  34.6240014 119.9257123 102.5726887  35.3836388
 121.7459992 102.7869978  21.3640014 121.5649992 102.6319978  20.4370014
 122.6959992 102.8949978  21.4090014 121.8496566 102.7803669  21.2430929
 124.9829992 104.9079978  38.7350014 125.9369992 104.9919978  38.7080014
 124.8229992 104.1959978  39.3550014 125.0917182 104.8232842  38.8150733
 131.1359992 105.1409978  20.8100014 130.8619992 104.7169978  19.9970014
 131.1749992 106.0729978  20.5930014 131.1037716 105.2088827  20.6694286
 120.3029992  99.7919978  36.5400014 120.4529992  99.0629978  35.9380014
 120.3049992 100.5689978  35.9810014 120.3237967  99.7972708  36.3820541
 120.7159992  98.1609978  34.0330014 121.2509992  98.6129978  33.3810014
 119.8629992  98.0529978  33.6100014 120.6740374  98.2082665  33.8866710
 122.2969992 103.6009978  34.2720014 123.0479992 103.4449978  33.6990014
 121.9579992 104.4529978  33.9970014 122.3539587 103.6948138  34.1564078
 126.7129992 101.4159978  39.3010014 126.9049992 100.4849978  39.1890014
 127.5709992 101.8409978  39.2900014 126.8552182 101.3460070  39.2841862
 128.0299992 104.2049978  37.3780014 127.7479992 104.9139978  36.8000014
 128.9719992 104.1319978  37.2270014 128.1187921 104.2922193  37.2784225
 118.7819992 100.9899978  38.4510014 118.0139992 100.4569978  38.2410014
 119.4599992 100.6799978  37.8520014 118.7687235 100.8751754  38.3412413
 121.5209992  95.6179978  34.4640014 121.4229992  96.5639978  34.3590014
 120.7789992  95.2449978  33.9880014 121.4072534  95.6971773  34.3852600
 122.7849992  99.9389978  38.0280014 122.5499992  99.7199978  38.9290014
 122.0019992  99.7319978  37.5180014 122.6469095  99.8809892  38.0825353
 125.5009992  99.0669978  37.1030014 124.5529992  99.0989978  37.2350014
 125.8129992  98.4409978  37.7570014 125.4135293  98.9867923  37.2094148
 127.1349992  97.7009978  39.1080014 127.0379992  96.7489978  39.1030014
 126.8129992  97.9689978  39.9690014 127.0782468  97.6070884  39.2236210
 116.9619992  98.9099978  38.1560014 117.1739992  98.2039978  37.5460014
 116.8509992  98.4729978  39.0000014 116.9760269  98.7541921  38.1865873
 121.7429992  94.9119978  37.1350014 122.4549992  94.2719978  37.1210014
 121.6419992  95.1779978  36.2220014 121.8267387  94.8604330  37.0095563
 122.0969992  96.5939978  39.1890014 121.9649992  96.1189978  38.3690014
 121.4969992  97.3389978  39.1340014 121.9979070  96.6295789  39.0693251
 121.6429992 113.4769978  22.3650014 122.5759992 113.6349978  22.5090014
 121.3789992 114.1529978  21.7400014 121.7349911 113.5899373  22.3002722
 115.2109992 108.1139978  21.8480014 116.1249992 108.1929978  22.1210014
 115.2189992 107.4269978  21.1820014 115.3370655 108.0319205  21.7952917
 113.8599992 113.5069978  26.9250014 113.2129992 113.0449978  26.3930014
 114.2149992 112.8349978  27.5080014 113.8193741 113.3529774  26.9309175
 114.7299992 111.5869978  28.7300014 114.3959992 110.7069978  28.9020014
 114.9529992 111.9329978  29.5950014 114.7143721 111.5131938  28.8704168
 132.2789992 112.3969978  31.7110014 132.2569992 112.5819978  32.6500014
 132.9689992 112.9649978  31.3700014 132.3693439 112.4991887  31.7934791
 131.8419992 111.9639978  34.6320014 131.3549992 111.2289978  34.2610014
 132.3909992 111.5699978  35.3100014 131.8495247 111.8101057  34.6728461
 130.2929992 107.7539978  39.2710014 129.4269992 107.6489978  39.6650014
 130.6689992 108.5119978  39.7170014 130.2253401 107.8421708  39.3852620
 131.5939992 106.0099978  24.7850014 132.4439992 106.4309978  24.9120014
 131.5989992 105.2699978  25.3920014 131.7111143 105.9676094  24.8844750
 131.9879992 104.0639978  26.6080014 131.2619992 103.5839978  27.0060014
 132.5699992 104.2689978  27.3410014 131.9672730 104.0260184  26.7614149
 131.7469992 106.8489978  31.5560014 132.5809992 106.4709978  31.2750014
 131.8589992 107.7919978  31.4370014 131.8761917 106.9247943  31.5014861
 130.2339992 109.7269978  33.8630014 129.5859992 110.0519978  34.4880014
 129.7159992 109.2859978  33.1890014 130.0754196 109.7118651  33.8574152
 132.2569992 103.9649978  22.9990014 131.7349992 104.3209978  22.2810014
 132.2239992 104.6399978  23.6780014 132.1810129 104.1049598  22.9923355
 130.6059992 101.2039978  21.5500014 130.7019992 101.8709978  20.8700014
 130.4659992 100.3889978  21.0690014 130.6002040 101.1850671  21.3918378
 129.7749992 102.5849978  27.1710014 129.6249992 101.6399978  27.1510014
 129.4209992 102.8659978  28.0150014 129.7066351 102.4936644  27.2823220
 114.8099992 104.6629978  31.1820014 114.9949992 104.5809978  30.2460014
 115.6599992 104.5389978  31.6050014 114.9500928 104.6350463  31.1112893
 130.6309992 104.5549978  36.8100014 131.2139992 103.8199978  37.0020014
 131.1949992 105.3269978  36.8570014 130.7869781 104.5588145  36.8426164
 132.1279992 102.4579978  37.4950014 131.2649992 102.0789978  37.3290014
 132.7319992 101.7189978  37.4200014 132.0916085 102.3063223  37.4621695
 129.8529992  98.6119978  20.6680014 130.4639992  98.2409978  21.3050014
 129.0159992  98.1909978  20.8640014 129.8234947  98.5042756  20.7817252
 129.4859992 100.1669978  25.6340014 129.7649992  99.2599978  25.7580014
 130.2449992 100.6009978  25.2450014 129.6268619 100.1014502  25.5983795
 130.0969992 100.7489978  31.0700014 131.0299992 100.9609978  31.0350014
 129.8619992 100.8499978  31.9920014 130.1929517 100.7916833  31.1899130
 130.1269992 101.4859978  33.8460014 129.2839992 101.7539978  34.2120014
 130.5689992 102.3079978  33.6350014 130.0714138 101.6338273  33.8675518
 114.4079992  99.9329978  37.3220014 115.3269992  99.8109978  37.5590014
 113.9579992  99.1829978  37.7120014 114.4730087  99.8149608  37.4071410
 132.4099992  95.4659978  39.1990014 132.7589992  94.8119978  38.5940014
 132.5569992  96.3029978  38.7590014 132.4776824  95.4896024  39.0566304
 130.0989992  97.4299978  25.6820014 130.2809992  96.9809978  26.5070014
 129.4989992  96.8459978  25.2180014 130.0428187  97.2895552  25.7322739
 115.6289992  98.2459978  30.2140014 116.0739992  97.4539978  30.5160014
 116.0949992  98.9619978  30.6440014 115.7529718  98.2344534  30.3135265
 113.9329992 101.2449978  31.2830014 114.4249992 101.0239978  30.4920014
 114.2949992 102.0849978  31.5640014 114.0492923 101.3283468  31.2127407
 131.9289992  97.5749978  37.5480014 131.0119992  97.8459978  37.5130014
 132.0519992  97.0399978  36.7640014 131.8199672  97.5397885  37.4371862
 131.9659992  97.4979978  22.2100014 132.3779992  96.7769978  21.7350014
 132.6469992  98.1669978  22.2680014 132.1145536  97.4897766  22.1528024
 114.2469992  97.5029978  25.3370014 113.3219992  97.7109978  25.2080014
 114.7009992  97.9869978  24.6470014 114.1816298  97.5969299  25.2260451
 129.0169992 112.4869978  27.2830014 129.6699992 112.1389978  26.6750014
 129.5279992 112.9749978  27.9290014 129.1752777 112.5053815  27.2872047
 114.2099992  96.2409978  33.6810014 113.5449992  95.9949978  34.3240014
 113.7669992  96.8629978  33.1040014 114.0591168  96.2914214  33.6909848
 116.4019992 109.4159978  37.8260014 115.5809992 109.5909978  37.3650014
 116.1499992 109.3429978  38.7460014 116.2555594 109.4300717  37.8873611
 119.3559992 110.3899978  34.0840014 118.9319992 111.1999978  33.8020014
 120.2609992 110.4759978  33.7820014 119.4202138 110.5124160  34.0046415
 123.6679992 111.7889978  37.0440014 123.8519992 111.4559978  37.9220014
 124.5139992 112.0989978  36.7220014 123.8076484 111.7852979  37.1207617
 126.0129992 113.0749978  36.2880014 126.6899992 112.4419978  36.0480014
 126.3339992 113.4759978  37.0950014 126.1491323 113.0425691  36.3643158
 130.9299992  95.6649978  35.3670014 130.1169992  95.9899978  34.9800014
 131.1629992  94.9039978  34.8340014 130.8501347  95.6066880  35.2419841
 116.7579992 113.6469978  34.1320014 116.0379992 114.0869978  33.6810014
 116.3929992 113.3959978  34.9800014 116.6099643 113.6733369  34.1849129
 119.2249992 113.2469978  33.1620014 118.3609992 113.3189978  33.5660014
 119.1699992 113.7939978  32.3780014 119.0991942 113.3307849  33.1114000
 123.9359992 113.1349978  32.3370014 123.4789992 113.6639978  31.6830014
 124.0989992 113.7379978  33.0620014 123.8954960 113.2889280  32.3455274
 126.2639992 112.0129978  33.2820014 125.3589992 112.1779978  33.0160014
 126.6919992 112.8659978  33.2160014 126.1981537 112.1509134  33.2367095
 128.8679992 113.5829978  33.5770014 128.6859992 114.4989978  33.3660014
 129.0449992 113.1719978  32.7300014 128.8670030 113.6528273  33.4337166
 116.1729992 112.2699978  31.0420014 116.1549992 111.8439978  31.8990014
 116.9779992 111.9509978  30.6330014 116.2792875 112.1686435  31.1039515
 118.3139992 110.9799978  29.6970014 118.0949992 110.0629978  29.8670014
 119.1379992 111.1199978  30.1630014 118.3954702 110.8735511  29.7832527
 120.8509992 111.4499978  30.5460014 121.0639992 110.5619978  30.2590014
 120.9159992 111.4149978  31.5000014 120.8889149 111.3238326  30.6357369
 124.3599992  97.1139978  29.6900014 123.6859992  96.4839978  29.9460014
 124.9239992  96.6299978  29.0870014 124.3440384  96.9623708  29.6435020
 129.5029992  95.2209978  29.8030014 130.1059992  95.7689978  29.3010014
 128.6329992  95.5399978  29.5620014 129.4679157  95.3390373  29.7017910
 131.2299992  96.3599978  28.1360014 131.8409992  95.8459978  27.6090014
 131.6119992  97.2369978  28.1590014 131.3653305  96.4082050  28.0669418
 116.6869992  95.7479978  27.5120014 115.9099992  95.5129978  27.0050014
 117.2169992  94.9509978  27.5210014 116.6523451  95.6081268  27.4438627
 115.5229992  95.5459978  23.3160014 115.9619992  96.1569978  22.7240014
 114.8889992  96.0839978  23.7900014 115.4973859  95.7024064  23.2990305
 121.2659992  95.6739978  27.3250014 122.1399992  96.0629978  27.2960014
 121.1299992  95.4589978  28.2480014 121.3671953  95.6981643  27.4457617
 126.8229992  95.7039978  28.9750014 126.8989992  95.7999978  28.0250014
 126.5479992  94.7969978  29.1030014 126.7961871  95.5944146  28.8623944
 128.1759992  95.7299978  24.6670014 127.4729992  96.3449978  24.4570014
 127.7309992  94.8929978  24.7980014 128.0196550  95.7009668  24.6559837
 115.4239992 111.4939978  24.2130014 114.7389992 111.4559978  23.5460014
 115.4279992 112.4069978  24.5010014 115.3307621 111.6121924  24.1606126
 117.3839992  97.4619978  21.7580014 117.8749992  96.8319978  21.2310014
 118.0069992  97.7579978  22.4210014 117.5355304  97.4157376  21.7754940
 122.4099992  97.7549978  24.2150014 122.5879992  97.1079978  24.8980014
 122.3559992  98.5889978  24.6820014 122.4270678  97.7791604  24.3716301
 124.2879992 112.7029978  22.6110014 125.1539992 113.0699978  22.4330014
 124.0419992 112.2639978  21.7970014 124.3732097 112.6938525  22.4766019
 130.9969992 112.2659978  25.2900014 130.8029992 111.5179978  24.7250014
 130.9579992 113.0239978  24.7070014 130.9651645 112.2660786  25.1338148
 116.6439992  96.2619978  37.0300014 116.2779992  95.4959978  37.4720014
 117.5569992  96.2909978  37.3160014 116.7173172  96.1610324  37.1291890
 118.6169992  95.6119978  38.5650014 119.5159992  95.3379978  38.3810014
 118.2309992  94.8699978  39.0300014 118.6877307  95.4742196  38.6027098
 117.2419992 112.4139978  21.2380014 116.9739992 112.6999978  22.1120014
 118.0129992 111.8679978  21.3910014 117.3095926 112.3792779  21.3781205
 127.0389992  94.9449978  38.7480014 127.1149992  94.5189978  39.6010014
 127.9319992  94.9579978  38.4050014 127.1702303  94.8883493  38.8185497
 130.2149992 111.0179978  37.4400014 129.4329992 110.8309978  36.9200014
 130.1429992 111.9469978  37.6570014 130.0981924 111.1180637  37.3981602
 144.6209992 104.9039978  27.4710014 144.7099992 105.8479978  27.3390014
 143.9829992 104.6289978  26.8130014 144.5469062 104.9959812  27.3639641
 143.5539992 104.1589978  30.8900014 143.5159992 103.5129978  31.5950014
 143.2319992 103.6919978  30.1190014 143.5052679 104.0074276  30.8822921
 135.9219992 103.7729978  32.4830014 135.9639992 103.1479978  33.2060014
 136.6249992 104.3969978  32.6650014 136.0227345 103.7717873  32.6065273
 136.8459992 108.2229978  31.0180014 136.4759992 107.4209978  30.6480014
 137.7869992 108.0549978  31.0640014 136.9225984 108.0904638  30.9735603
 133.4559992 101.8829978  26.4100014 133.0079992 102.7289978  26.3920014
 132.8949992 101.3039978  25.8950014 133.3188546 101.9203993  26.3378891
 134.1659992 104.0449978  28.5360014 134.3799992 103.2749978  29.0640014
 134.9039992 104.1349978  27.9330014 134.2950200 103.9518586  28.5267035
 144.3719992 112.2019978  29.4030014 144.9909992 111.5259978  29.1300014
 144.1629992 111.9839978  30.3120014 144.4286056 112.0798869  29.4883967
 141.9429992 106.5909978  31.2960014 142.2469992 105.9049978  30.7010014
 142.6649992 106.7099978  31.9140014 142.0821240 106.5132314  31.2980959
 145.0839992 100.9849978  31.6230014 145.2269992 100.0389978  31.6430014
 144.9779992 101.1919978  30.6950014 145.0892403 100.8834797  31.5002239
 138.2389992  99.0869978  28.8960014 138.2819992  99.9469978  28.4770014
 137.7809992  98.5349978  28.2620014 138.1829871  99.1299245  28.7530761
 134.8589992 101.4839978  29.6580014 135.5129992 100.9339978  30.0900014
 134.8829992 101.2099978  28.7410014 134.9517199 101.3717167  29.5931668
 140.0159992 103.0339978  28.8730014 140.6319992 102.5069978  29.3820014
 139.4289992 102.3939978  28.4690014 140.0210154 102.8753954  28.8880945
 137.0489992  98.0049978  32.9700014 136.8299992  98.5349978  32.2030014
 136.3809992  98.2309978  33.6170014 136.9286975  98.1080967  32.9525140
 144.4179992 107.5049978  26.5140014 144.1229992 107.1819978  25.6620014
 144.0939992 108.4049978  26.5550014 144.3338460 107.5824464  26.4029714
 139.6179992 105.6799978  33.2570014 138.8779992 106.2789978  33.3610014
 140.3319992 106.2339978  32.9420014 139.6133500 105.8367829  33.2286371
 136.6429992  99.8969978  30.9220014 137.2569992 100.5299978  31.2950014
 137.1549992  99.4249978  30.2660014 136.7961962  99.9197249  30.8842935
 138.0259992 107.6449978  34.0440014 138.0199992 108.5239978  33.6660014
 137.1719992 107.5609978  34.4690014 137.9097925 107.7539535  34.0496887
 134.1469992 107.3159978  24.8260014 133.8749992 107.5449978  23.9380014
 134.1919992 108.1529978  25.2870014 134.1158097 107.4606163  24.7666683
 141.0759992  95.3099978  30.4220014 140.9579992  94.3619978  30.3680014
 140.2209992  95.6429978  30.6950014 140.9442805  95.2252202  30.4515079
 143.3419992 104.1479978  24.9230014 142.6309992 104.6829978  24.5710014
 144.0329992 104.2029978  24.2630014 143.3380751 104.2286777  24.7855858
 143.3959992 102.6049978  21.9610014 144.0969992 102.6279978  22.6130014
 143.6979992 101.9769978  21.3050014 143.5328202 102.5232212  21.9615609
 138.3929992 104.9879978  27.7570014 138.0629992 104.6169978  26.9390014
 138.9819992 104.3169978  28.1040014 138.4273970 104.8466063  27.6919404
 139.7599992 108.4159978  30.4380014 139.6649992 107.8369978  29.6820014
 140.4889992 108.0449978  30.9340014 139.8456011 108.2865561  30.4016028
 138.7599992 103.7559978  31.3900014 139.3249992 103.8779978  30.6280014
 139.0789992 104.3939978  32.0290014 138.8804166 103.8588791  31.3720348
 145.0689992 109.2599978  32.1240014 144.8289992 109.9219978  32.7720014
 144.8709992 108.4249978  32.5490014 145.0093826 109.2378115  32.2701566
 139.6399992 108.1559978  36.1080014 139.3289992 108.9379978  36.5630014
 138.9899992 108.0029978  35.4220014 139.5095538 108.2424087  36.0775898
 136.5599992 104.3539978  35.3360014 136.6299992 105.0049978  36.0350014
 135.6689992 104.4569978  35.0010014 136.4491690 104.4569249  35.3863043
 143.3449992 110.2559978  26.9950014 143.8189992 110.5519978  27.7720014
 142.7819992 110.9949978  26.7620014 143.3337890 110.3963036  27.0698101
 137.8789992 110.2269978  36.8710014 137.8869992 110.0909978  35.9240014
 136.9629992 110.1099978  37.1230014 137.7562528 110.1925463  36.7753243
 137.3839992 104.0569978  25.3460014 137.0919992 104.8249978  24.8550014
 136.7089992 103.3979978  25.1830014 137.2528497 104.0729745  25.2568260
 133.4769992 106.4199978  34.1610014 132.9749992 106.3919978  33.3460014
 133.4819992 105.5149978  34.4710014 133.4089832 106.2937486  34.0914121
 133.2269992 109.2009978  31.0450014 134.1729992 109.0559978  31.0260014
 133.1139992 109.9849978  31.5820014 133.3413578 109.2871697  31.1150317
 142.4029992 109.4409978  35.6040014 142.4909992 110.2669978  36.0790014
 141.5399992 109.1109978  35.8530014 142.2983357 109.5095468  35.7027653
 142.8179992 113.2129978  25.4100014 142.7419992 113.0919978  24.4630014
 142.8499992 114.1619978  25.5280014 142.8119380 113.3247677  25.2965181
 136.4709992 112.0019978  27.1910014 136.6229992 111.6539978  28.0690014
 135.6199992 111.6449978  26.9350014 136.3768344 111.9060879  27.2766868
 135.7259992 107.7439978  35.2040014 135.9419992 107.3819978  36.0640014
 134.8699992 107.3689978  34.9950014 135.6398810 107.6438837  35.2932680
 138.3439992  96.2139978  31.2000014 137.4829992  96.1269978  30.7920014
 138.3219992  97.0699978  31.6280014 138.2230491  96.3178003  31.2019582
 143.0069992  95.9359978  34.5750014 143.4269992  95.5209978  35.3280014
 142.0739992  95.7569978  34.6920014 142.9383736  95.8549910  34.6938968
 142.6689992  98.4279978  21.8600014 142.4149992  98.4469978  22.7820014
 142.4119992  97.5569978  21.5580014 142.5994508  98.3128280  21.9454803
 138.4349992 101.1789978  32.2950014 137.7939992 101.1389978  33.0040014
 138.4729992 102.1059978  32.0570014 138.3523010 101.2987668  32.3599946
 138.4319992 101.3999978  27.2070014 137.5399992 101.0599978  27.1480014
 138.8829992 101.0229978  26.4510014 138.3707642 101.3024910  27.0967726
 143.9679992 101.8159978  26.0240014 143.5589992 102.6309978  25.7320014
 144.6879992 101.6759978  25.4100014 144.0094439 101.9085372  25.9010115
 143.0699992 101.9919978  37.5120014 142.5069992 101.2869978  37.8330014
 143.8959992 101.8709978  37.9800014 143.1046674 101.8792165  37.6191751
 144.9729992 101.2619978  28.8380014 144.7769992 101.8679978  28.1230014
 145.1539992 100.4289978  28.4040014 144.9706584 101.2322513  28.6814212
 136.1849992 101.4999978  34.1620014 136.1469992 101.8999978  35.0310014
 135.6949992 100.6829978  34.2520014 136.1135330 101.4442674  34.2931289
 139.5509992  98.8739978  20.9610014 139.1199992  98.4289978  21.6900014
 138.8329992  99.2449978  20.4480014 139.3949176  98.8632051  20.9914930
 132.7939992  98.6159978  28.0130014 133.4239992  98.5869978  28.7320014
 133.2429992  98.1909978  27.2820014 132.9410835  98.5545660  28.0127659
 134.0679992  99.3619978  23.4370014 134.5419992  99.9529978  22.8520014
 133.3499992  99.8919978  23.7840014 134.0358640  99.5145511  23.4037969
 144.2369992 102.8999978  33.5090014 144.5599992 102.2689978  32.8660014
 143.7959992 102.3659978  34.1700014 144.2216379 102.7413468  33.5102582
 141.0139992  98.8279978  28.2930014 140.1029992  98.8849978  28.5820014
 141.5189992  98.7679978  29.1040014 140.9576873  98.8276826  28.4421207
 135.8419992 100.4569978  27.1200014 134.9529992 100.5559978  26.7800014
 136.1389992  99.6149978  26.7740014 135.7604177 100.3567687  27.0266940
 139.4949992 100.4569978  24.7770014 140.4269992 100.5859978  24.9550014
 139.2799992 101.1259978  24.1270014 139.5934472 100.5650806  24.7134891
 145.4189992  98.0629978  31.5580014 144.7419992  98.1939978  32.2210014
 144.9339992  97.9079978  30.7470014 145.2607405  98.0599947  31.5392170
 138.1689992 101.6509978  22.3430014 137.6269992 101.2719978  21.6520014
 139.0029992 101.8459978  21.9150014 138.2074390 101.6254079  22.1904392
 136.3049992 106.2079978  37.4420014 137.0369992 106.4629978  38.0040014
 135.5239992 106.4129978  37.9580014 136.2996526 106.2705450  37.5885176
 142.3339992 101.6149978  30.1800014 142.8979992 101.0689978  29.6330014
 142.1859992 101.0939978  30.9690014 142.3913037 101.4696787  30.2117229
 137.3359992  97.7519978  26.5990014 137.0189992  96.8489978  26.5630014
 138.1169992  97.7539978  26.0460014 137.3982431  97.6287797  26.5193102
 140.9599992 100.0039978  32.5940014 140.1249992 100.4579978  32.7050014
 141.4839992 100.2799978  33.3460014 140.9166072 100.1033948  32.7108136
 141.5049992 106.2169978  24.2790014 140.7599992 105.7089978  23.9570014
 141.3699992 106.2659978  25.2250014 141.3848963 106.1541731  24.3628826
 145.4019992  99.0309978  22.4780014 144.4639992  99.1419978  22.3270014
 145.6999992  99.8869978  22.7850014 145.3136318  99.1620158  22.4988145
 143.0239992 106.4009978  35.5160014 142.6779992 106.0189978  36.3230014
 142.8239992 107.3339978  35.5870014 142.9495987 106.4749002  35.6360461
 136.6289992 105.5119978  30.0490014 137.3739992 105.5089978  29.4470014
 136.7069992 104.6879978  30.5300014 136.7413365 105.4002384  30.0317430
 143.6299992 107.6749978  23.3040014 143.3349992 108.5019978  23.6860014
 142.9269992 107.0559978  23.5010014 143.4946379 107.7044171  23.3828654
 133.6369992 103.9719978  35.3640014 133.8599992 103.5539978  36.1950014
 133.0349992 103.3599978  34.9410014 133.5861513 103.8319606  35.4206740
 140.6539992 103.4889978  37.5770014 140.3579992 103.3239978  36.6810014
 141.5849992 103.2689978  37.5660014 140.7394401 103.4366879  37.4530206
 145.2739992 108.8629978  35.4660014 144.3739992 109.0459978  35.1990014
 145.3079992 109.1219978  36.3870014 145.1553748 108.9230554  35.5539164
 139.0039992 109.0299978  27.4530014 139.5319992 109.8029978  27.2530014
 138.1239992 109.2539978  27.1510014 138.9573435 109.1662700  27.3847310
 134.7589992 103.8919978  22.0400014 135.3749992 104.5189978  22.4200014
 133.8969992 104.2079978  22.3120014 134.7267678 104.0204412  22.1287209
 140.4319992 106.6929978  27.0290014 140.1909992 107.6179978  27.0710014
 139.6909992 106.2339978  27.4260014 140.2989206 106.7575915  27.0883769
 140.9459992 110.8419978  33.3440014 141.3089992 111.6959978  33.1110014
 141.4779992 110.5499978  34.0850014 141.0675141 110.9193895  33.4122097
 139.1149992 111.7139978  26.5750014 138.1649992 111.8199978  26.6260014
 139.4669992 112.5349978  26.9190014 139.0325472 111.8394923  26.6284852
 144.4899992 106.9409978  33.0450014 144.0649992 106.7129978  33.8710014
 145.0709992 106.2019978  32.8630014 144.5103395 106.8099545  33.1334414
 135.2709992  98.7259978  34.9220014 134.3789992  99.0639978  34.8540014
 135.1729992  97.8699978  35.3400014 135.1354475  98.6566543  34.9691704
 134.9229992 110.5299978  33.3570014 135.1399992 109.5979978  33.3260014
 135.1689992 110.8049978  34.2400014 134.9859809 110.4395686  33.4721691
 140.7839992 108.9819978  20.5660014 141.0229992 108.2329978  20.0190014
 140.5149992 108.5939978  21.3990014 140.7803233 108.8271853  20.6037809
 139.7209992 108.5519978  23.0220014 139.8679992 108.0319978  23.8120014
 139.7179992 109.4589978  23.3290014 139.7407102 108.6033953  23.1715925
 136.1739992 105.8039978  23.5330014 135.4879992 106.1569978  24.1000014
 136.6969992 106.5669978  23.2860014 136.1508402 105.9553901  23.5771801
 144.0059992  98.4669978  33.8120014 144.7049992  98.5409978  34.4620014
 143.6249992  97.6019978  33.9660014 144.0502097  98.3602389  33.9217997
 144.7899992  98.1189978  24.9090014 145.0099992  98.5899978  24.1050014
 145.3489992  98.5129978  25.5790014 144.8956732  98.2367287  24.8895033
 142.4589992 110.2489978  23.7720014 141.6419992 110.7459978  23.8240014
 142.9879992 110.7249978  23.1310014 142.4188125 110.3811989  23.6925306
 141.9899992  99.8469978  25.7440014 142.8019992 100.3509978  25.7900014
 141.7459992  99.7019978  26.6580014 142.0681467  99.8963749  25.8738575
 142.5259992 100.8329978  34.9280014 142.6449992 101.4069978  35.6850014
 143.1809992 100.1449978  35.0430014 142.6308684 100.8185194  35.0471674
 142.8739992  96.9279978  26.6820014 142.5269992  97.5449978  27.3260014
 143.5329992  97.4289978  26.2000014 142.9155090  97.0801575  26.7050681
 139.7969992 111.2929978  23.7530014 139.9579992 112.0929978  23.2530014
 139.5999992 111.5999978  24.6380014 139.7923906 111.4438678  23.8042333
 138.5319992  97.9909978  23.3690014 138.4479992  98.8789978  23.7160014
 139.4219992  97.7259978  23.6010014 138.6408163  98.0767179  23.4478596
 136.7899992 108.4179978  22.4290014 137.3819992 109.1179978  22.7060014
 137.2489992 107.9849978  21.7100014 136.9331652 108.4552675  22.3696533
 135.1059992 101.0829978  21.5450014 135.0609992 102.0219978  21.7240014
 134.2179992 100.8469978  21.2760014 134.9798166 101.1796687  21.5331524
 135.9139992  95.8639978  30.2190014 135.6849992  95.9229978  29.2910014
 135.4719992  95.0729978  30.5250014 135.8228801  95.7650540  30.1334729
 134.8449992 109.8049978  26.3790014 134.0119992 110.2769978  26.4060014
 135.3899992 110.3149978  25.7800014 134.8047857 109.9384791  26.3017142
 134.1329992 112.4169978  37.7090014 134.6729992 112.2009978  38.4690014
 133.6519992 111.6119978  37.5190014 134.1419219 112.2785156  37.7874282
 138.7299992 111.3369978  39.3290014 139.4979992 110.8779978  39.6700014
 138.7089992 111.1109978  38.3990014 138.8322135 111.2436668  39.2499491
 142.8219992 110.8449978  20.7050014 142.1779992 110.2139978  21.0260014
 143.5839992 110.3139978  20.4730014 142.8368058 110.6867902  20.7176038
 145.3069992 109.7169978  38.0580014 144.9559992 108.8599978  38.3020014
 146.0329992 109.8589978  38.6650014 145.3571895 109.6191351  38.1733770
 134.0399992 106.2279978  38.6630014 134.1839992 105.3259978  38.3770014
 133.2679992 106.5139978  38.1760014 133.9552733 106.1431798  38.5579532
 138.3809992 106.5709978  20.7960014 138.4459992 105.7769978  21.3260014
 139.0339992 106.4529978  20.1060014 138.4781605 106.4463430  20.7752997
 140.6949992 106.1969978  38.0960014 140.3669992 106.4679978  37.2390014
 140.8469992 105.2559978  38.0080014 140.6706412 106.1069046  37.9667822
 143.7339992 107.6179978  20.5320014 143.4649992 107.7989978  21.4320014
 143.5269992 106.6929978  20.4000014 143.6691191 107.5177119  20.6375524
 134.8729992 103.4279978  38.0830014 135.2809992 102.5709978  37.9620014
 134.6119992 103.4419978  39.0040014 134.8936016 103.3125119  38.1909192
 139.5309992 104.5439978  23.1020014 139.0709992 104.0599978  23.7870014
 139.7859992 103.8749978  22.4660014 139.5024856 104.3873669  23.1098397
 138.8199992 102.4369978  35.4580014 138.2009992 103.1109978  35.7380014
 139.1639992 102.7579978  34.6240014 138.7817123 102.5726887  35.3836388
 140.6019992 102.7869978  21.3640014 140.4209992 102.6319978  20.4370014
 141.5519992 102.8949978  21.4090014 140.7056566 102.7803669  21.2430929
 143.8389992 104.9079978  38.7350014 144.7929992 104.9919978  38.7080014
 143.6789992 104.1959978  39.3550014 143.9477182 104.8232842  38.8150733
 139.1589992  99.7919978  36.5400014 139.3089992  99.0629978  35.9380014
 139.1609992 100.5689978  35.9810014 139.1797967  99.7972708  36.3820541
 139.5719992  98.1609978  34.0330014 140.1069992  98.6129978  33.3810014
 138.7189992  98.0529978  33.6100014 139.5300374  98.2082665  33.8866710
 141.1529992 103.6009978  34.2720014 141.9039992 103.4449978  33.6990014
 140.8139992 104.4529978  33.9970014 141.2099587 103.6948138  34.1564078
 145.5689992 101.4159978  39.3010014 145.7609992 100.4849978  39.1890014
 146.4269992 101.8409978  39.2900014 145.7112182 101.3460070  39.2841862
 137.6379992 100.9899978  38.4510014 136.8699992 100.4569978  38.2410014
 138.3159992 100.6799978  37.8520014 137.6247235 100.8751754  38.3412413
 140.3769992  95.6179978  34.4640014 140.2789992  96.5639978  34.3590014
 139.6349992  95.2449978  33.9880014 140.2632534  95.6971773  34.3852600
 141.6409992  99.9389978  38.0280014 141.4059992  99.7199978  38.9290014
 140.8579992  99.7319978  37.5180014 141.5029095  99.8809892  38.0825353
 144.3569992  99.0669978  37.1030014 143.4089992  99.0989978  37.2350014
 144.6689992  98.4409978  37.7570014 144.2695293  98.9867923  37.2094148
 135.8179992  98.9099978  38.1560014 136.0299992  98.2039978  37.5460014
 135.7069992  98.4729978  39.0000014 135.8320269  98.7541921  38.1865873
 140.5989992  94.9119978  37.1350014 141.3109992  94.2719978  37.1210014
 140.4979992  95.1779978  36.2220014 140.6827387  94.8604330  37.0095563
 140.9529992  96.5939978  39.1890014 140.8209992  96.1189978  38.3690014
 140.3529992  97.3389978  39.1340014 140.8539070  96.6295789  39.0693251
 140.4989992 113.4769978  22.3650014 141.4319992 113.6349978  22.5090014
 140.2349992 114.1529978  21.7400014 140.5909911 113.5899373  22.3002722
 134.0669992 108.1139978  21.8480014 134.9809992 108.1929978  22.1210014
 134.0749992 107.4269978  21.1820014 134.1930655 108.0319205  21.7952917
 132.7159992 113.5069978  26.9250014 132.0689992 113.0449978  26.3930014
 133.0709992 112.8349978  27.5080014 132.6753741 113.3529774  26.9309175
 133.5859992 111.5869978  28.7300014 133.2519992 110.7069978  28.9020014
 133.8089992 111.9329978  29.5950014 133.5703721 111.5131938  28.8704168
 133.6659992 104.6629978  31.1820014 133.8509992 104.5809978  30.2460014
 134.5159992 104.5389978  31.6050014 133.8060928 104.6350463  31.1112893
 133.2639992  99.9329978  37.3220014 134.1829992  99.8109978  37.5590014
 132.8139992  99.1829978  37.7120014 133.3290087  99.8149608  37.4071410
 134.4849992  98.2459978  30.2140014 134.9299992  97.4539978  30.5160014
 134.9509992  98.9619978  30.6440014 134.6089718  98.2344534  30.3135265
 132.7889992 101.2449978  31.2830014 133.2809992 101.0239978  30.4920014
 133.1509992 102.0849978  31.5640014 132.9052923 101.3283468  31.2127407
 133.1029992  97.5029978  25.3370014 132.1779992  97.7109978  25.2080014
 133.5569992  97.9869978  24.6470014 133.0376298  97.5969299  25.2260451
 133.0659992  96.2409978  33.6810014 132.4009992  95.9949978  34.3240014
 132.6229992  96.8629978  33.1040014 132.9151168  96.2914214  33.6909848
 135.2579992 109.4159978  37.8260014 134.4369992 109.5909978  37.3650014
 135.0059992 109.3429978  38.7460014 135.1115594 109.4300717  37.8873611
 138.2119992 110.3899978  34.0840014 137.7879992 111.1999978  33.8020014
 139.1169992 110.4759978  33.7820014 138.2762138 110.5124160  34.0046415
 142.5239992 111.7889978  37.0440014 142.7079992 111.4559978  37.9220014
 143.3699992 112.0989978  36.7220014 142.6636484 111.7852979  37.1207617
 144.8689992 113.0749978  36.2880014 145.5459992 112.4419978  36.0480014
 145.1899992 113.4759978  37.0950014 145.0051323 113.0425691  36.3643158
 135.6139992 113.6469978  34.1320014 134.8939992 114.0869978  33.6810014
 135.2489992 113.3959978  34.9800014 135.4659643 113.6733369  34.1849129
 138.0809992 113.2469978  33.1620014 137.2169992 113.3189978  33.5660014
 138.0259992 113.7939978  32.3780014 137.9551942 113.3307849  33.1114000
 142.7919992 113.1349978  32.3370014 142.3349992 113.6639978  31.6830014
 142.9549992 113.7379978  33.0620014 142.7514960 113.2889280  32.3455274
 145.1199992 112.0129978  33.2820014 144.2149992 112.1779978  33.0160014
 145.5479992 112.8659978  33.2160014 145.0541537 112.1509134  33.2367095
 135.0289992 112.2699978  31.0420014 135.0109992 111.8439978  31.8990014
 135.8339992 111.9509978  30.6330014 135.1352875 112.1686435  31.1039515
 137.1699992 110.9799978  29.6970014 136.9509992 110.0629978  29.8670014
 137.9939992 111.1199978  30.1630014 137.2514702 110.8735511  29.7832527
 139.7069992 111.4499978  30.5460014 139.9199992 110.5619978  30.2590014
 139.7719992 111.4149978  31.5000014 139.7449149 111.3238326  30.6357369
 143.2159992  97.1139978  29.6900014 142.5419992  96.4839978  29.9460014
 143.7799992  96.6299978  29.0870014 143.2000384  96.9623708  29.6435020
 135.5429992  95.7479978  27.5120014 134.7659992  95.5129978  27.0050014
 136.0729992  94.9509978  27.5210014 135.5083451  95.6081268  27.4438627
 134.3789992  95.5459978  23.3160014 134.8179992  96.1569978  22.7240014
 133.7449992  96.0839978  23.7900014 134.3533859  95.7024064  23.2990305
 140.1219992  95.6739978  27.3250014 140.9959992  96.0629978  27.2960014
 139.9859992  95.4589978  28.2480014 140.2231953  95.6981643  27.4457617
 134.2799992 111.4939978  24.2130014 133.5949992 111.4559978  23.5460014
 134.2839992 112.4069978  24.5010014 134.1867621 111.6121924  24.1606126
 136.2399992  97.4619978  21.7580014 136.7309992  96.8319978  21.2310014
 136.8629992  97.7579978  22.4210014 136.3915304  97.4157376  21.7754940
 141.2659992  97.7549978  24.2150014 141.4439992  97.1079978  24.8980014
 141.2119992  98.5889978  24.6820014 141.2830678  97.7791604  24.3716301
 143.1439992 112.7029978  22.6110014 144.0099992 113.0699978  22.4330014
 142.8979992 112.2639978  21.7970014 143.2292097 112.6938525  22.4766019
 135.4999992  96.2619978  37.0300014 135.1339992  95.4959978  37.4720014
 136.4129992  96.2909978  37.3160014 135.5733172  96.1610324  37.1291890
 137.4729992  95.6119978  38.5650014 138.3719992  95.3379978  38.3810014
 137.0869992  94.8699978  39.0300014 137.5437307  95.4742196  38.6027098
 136.0979992 112.4139978  21.2380014 135.8299992 112.6999978  22.1120014
 136.8689992 111.8679978  21.3910014 136.1655926 112.3792779  21.3781205
  12.6289992 123.7599978  27.4710014  12.7179992 124.7039978  27.3390014
  11.9909992 123.4849978  26.8130014  12.5549062 123.8519812  27.3639641
  11.5619992 123.0149978  30.8900014  11.5239992 122.3689978  31.5950014
  11.2399992 122.5479978  30.1190014  11.5132679 122.8634276  30.8822921
   3.9299992 122.6289978  32.4830014   3.9719992 122.0039978  33.2060014
   4.6329992 123.2529978  32.6650014   4.0307345 122.6277873  32.6065274
  15.2679992 125.9539978  29.1910014  14.8269992 125.2339978  29.6420014
  15.2549992 126.6749978  29.8210014  15.2059215 125.9529291  29.3378105
   4.8539992 127.0789978  31.0180014   4.4839992 126.2769978  30.6480014
   5.7949992 126.9109978  31.0640014   4.9305984 126.9464638  30.9735603
   1.4639992 120.7389978  26.4100014   1.0159992 121.5849978  26.3920014
   0.9029992 120.1599978  25.8950014   1.3268546 120.7763993  26.3378891
   2.1739992 122.9009978  28.5360014   2.3879992 122.1309978  29.0640014
   2.9119992 122.9909978  27.9330014   2.3030200 122.8078587  28.5267035
  12.3799992 131.0579978  29.4030014  12.9989992 130.3819978  29.1300014
  12.1709992 130.8399978  30.3120014  12.4366056 130.9358869  29.4883967
   9.9509992 125.4469978  31.2960014  10.2549992 124.7609978  30.7010014
  10.6729992 125.5659978  31.9140014  10.0901240 125.3692314  31.2980959
  18.6139992 117.0489978  32.1560014  18.6639992 117.6589978  32.8920014
  19.0399992 117.5099978  31.4330014  18.6784108 117.1947709  32.1590112
  13.0919992 119.8409978  31.6230014  13.2349992 118.8949978  31.6430014
  12.9859992 120.0479978  30.6950014  13.0972403 119.7394797  31.5002239
   6.2469992 117.9429978  28.8960014   6.2899992 118.8029978  28.4770014
   5.7889992 117.3909978  28.2620014   6.1909871 117.9859245  28.7530761
  13.9689992 118.0739978  27.2970014  14.6159992 117.7449978  27.9210014
  14.4789992 118.5909978  26.6740014  14.1264351 118.0989067  27.2981037
   2.8669992 120.3399978  29.6580014   3.5209992 119.7899978  30.0900014
   2.8909992 120.0659978  28.7410014   2.9597199 120.2277167  29.5931668
   8.0239992 121.8899978  28.8730014   8.6399992 121.3629978  29.3820014
   7.4369992 121.2499978  28.4690014   8.0290154 121.7313954  28.8880945
  19.0059992 118.5269978  34.3920014  18.3169992 119.1849978  34.2970014
  19.0209992 118.3289978  35.3290014  18.9137756 118.5902603  34.5055812
   5.0569992 116.8609978  32.9700014   4.8379992 117.3909978  32.2030014
   4.3889992 117.0869978  33.6170014   4.9366975 116.9640967  32.9525140
  12.4259992 126.3609978  26.5140014  12.1309992 126.0379978  25.6620014
  12.1019992 127.2609978  26.5550014  12.3418460 126.4384464  26.4029714
   7.6259992 124.5359978  33.2570014   6.8859992 125.1349978  33.3610014
   8.3399992 125.0899978  32.9420014   7.6213500 124.6927829  33.2286371
  15.7329992 117.3649978  29.2770014  15.5179992 116.5989978  29.8100014
  16.3889992 117.8369978  29.7900014  15.7922673 117.3240728  29.4191990
   4.6509992 118.7529978  30.9220014   5.2649992 119.3859978  31.2950014
   5.1629992 118.2809978  30.2660014   4.8041962 118.7757249  30.8842935
   6.0339992 126.5009978  34.0440014   6.0279992 127.3799978  33.6660014
   5.1799992 126.4169978  34.4690014   5.9177925 126.6099535  34.0496887
   2.1549992 126.1719978  24.8260014   1.8829992 126.4009978  23.9380014
   2.1999992 127.0089978  25.2870014   2.1238097 126.3166163  24.7666683
  15.7799992 127.7929978  31.5390014  14.8379992 127.8519978  31.7010014
  16.0559992 128.6989978  31.4020014  15.6885865 127.9235288  31.5426192
  16.0799992 116.0799978  32.9560014  15.3439992 116.6899978  32.9190014
  16.7639992 116.4949978  32.4300014  16.0715367 116.2197551  32.8798174
   9.0839992 114.1659978  30.4220014   8.9659992 113.2179978  30.3680014
   8.2289992 114.4989978  30.6950014   8.9522805 114.0812202  30.4515079
  14.0319992 129.5739978  28.1640014  14.4569992 128.8669978  27.6790014
  14.3489992 130.3759978  27.7470014  14.1330266 129.5855190  28.0412479
  15.1919992 127.4749978  26.6730014  14.9339992 126.7849978  26.0610014
  15.2629992 127.0319978  27.5180014  15.1663050 127.3206814  26.7035621
  16.8779992 126.0419978  35.1500014  17.0169992 125.4499978  34.4110014
  17.0449992 126.9149978  34.7940014  16.9196193 126.0788896  35.0006211
  11.3499992 123.0039978  24.9230014  10.6389992 123.5389978  24.5710014
  12.0409992 123.0589978  24.2630014  11.3460751 123.0846777  24.7855858
  11.4039992 121.4609978  21.9610014  12.1049992 121.4839978  22.6130014
  11.7059992 120.8329978  21.3050014  11.5408202 121.3792212  21.9615609
  18.7189992 122.3819978  33.2160014  18.0669992 123.0759978  33.3050014
  19.1849992 122.5919978  32.4060014  18.6925937 122.5055019  33.1187533
  14.7559992 123.2129978  25.8740014  14.0239992 123.4419978  26.4480014
  15.2029992 122.4999978  26.3290014  14.7163963 123.1478729  26.0139945
  14.6529992 121.3879978  34.9420014  14.7329992 122.1509978  35.5140014
  14.0519992 121.6669978  34.2520014  14.5826547 121.5302457  34.9270047
   6.4009992 123.8439978  27.7570014   6.0709992 123.4729978  26.9390014
   6.9899992 123.1729978  28.1040014   6.4353970 123.7026063  27.6919404
   7.7679992 127.2719978  30.4380014   7.6729992 126.6929978  29.6820014
   8.4969992 126.9009978  30.9340014   7.8536011 127.1425561  30.4016028
   6.7679992 122.6119978  31.3900014   7.3329992 122.7339978  30.6280014
   7.0869992 123.2499978  32.0290014   6.8884166 122.7148791  31.3720348
  13.0769992 128.1159978  32.1240014  12.8369992 128.7779978  32.7720014
  12.8789992 127.2809978  32.5490014  13.0173826 128.0938115  32.2701566
   7.6479992 127.0119978  36.1080014   7.3369992 127.7939978  36.5630014
   6.9979992 126.8589978  35.4220014   7.5175538 127.0984087  36.0775898
  13.6269992 122.3759978  23.5600014  14.2059992 122.5259978  24.3060014
  14.0409992 122.8459978  22.8360014  13.7623358 122.4600954  23.5643953
   4.5679992 123.2099978  35.3360014   4.6379992 123.8609978  36.0350014
   3.6769992 123.3129978  35.0010014   4.4571690 123.3129249  35.3863043
  11.3529992 129.1119978  26.9950014  11.8269992 129.4079978  27.7720014
  10.7899992 129.8509978  26.7620014  11.3417890 129.2523036  27.0698101
   5.8869992 129.0829978  36.8710014   5.8949992 128.9469978  35.9240014
   4.9709992 128.9659978  37.1230014   5.7642528 129.0485463  36.7753243
  17.3259992 114.1259978  23.3730014  16.4259992 114.2649978  23.6680014
  17.5779992 114.9569978  22.9710014  17.2368683 114.2574055  23.3590232
   5.3919992 122.9129978  25.3460014   5.0999992 123.6809978  24.8550014
   4.7169992 122.2539978  25.1830014   5.2608497 122.9289745  25.2568260
  18.5149992 128.4919978  21.7490014  18.5879992 129.4309978  21.9190014
  19.4199992 128.1869978  21.6930014  18.6474170 128.5793282  21.7647063
   1.4849992 125.2759978  34.1610014   0.9829992 125.2479978  33.3460014
   1.4899992 124.3709978  34.4710014   1.4169832 125.1497486  34.0914121
   1.2349992 128.0569978  31.0450014   2.1809992 127.9119978  31.0260014
   1.1219992 128.8409978  31.5820014   1.3493578 128.1431697  31.1150317
  19.4329992 128.7229978  36.7280014  19.3829992 127.7669978  36.6900014
  18.6059992 128.9899978  37.1290014  19.3143831 128.6284680  36.7770121
  10.4109992 128.2969978  35.6040014  10.4989992 129.1229978  36.0790014
   9.5479992 127.9669978  35.8530014  10.3063357 128.3655468  35.7027653
  10.8259992 132.0689978  25.4100014  10.7499992 131.9479978  24.4630014
  10.8579992 133.0179978  25.5280014  10.8199380 132.1807677  25.2965181
   4.4789992 130.8579978  27.1910014   4.6309992 130.5099978  28.0690014
   3.6279992 130.5009978  26.9350014   4.3848344 130.7620879  27.2766868
  13.9269992 131.2229978  22.4120014  14.3019992 130.4789978  21.9410014
  13.9319992 130.9529978  23.3300014  13.9790098 131.0846392  22.4716629
  13.5959992 131.1489978  25.1610014  12.6609992 131.2489978  25.3400014
  13.8759992 130.4389978  25.7400014  13.5059471 131.0667933  25.2636695
  16.5849992 120.2159978  37.2080014  16.1769992 120.6959978  36.4870014
  16.6249992 119.3099978  36.9000014  16.5346221 120.1592449  37.0678267
   3.7339992 126.5999978  35.2040014   3.9499992 126.2379978  36.0640014
   2.8779992 126.2249978  34.9950014   3.6478810 126.4998837  35.2932680
   6.3519992 115.0699978  31.2000014   5.4909992 114.9829978  30.7920014
   6.3299992 115.9259978  31.6280014   6.2310491 115.1738003  31.2019582
  11.0149992 114.7919978  34.5750014  11.4349992 114.3769978  35.3280014
  10.0819992 114.6129978  34.6920014  10.9463736 114.7109910  34.6938968
  14.3419992 118.5469978  35.4280014  13.8279992 118.4219978  36.2260014
  14.1859992 119.4599978  35.1840014  14.2506967 118.6532123  35.5040937
  15.1039992 123.4079978  21.1890014  15.1459992 123.1859978  20.2590014
  15.9529992 123.8069978  21.3790014  15.2245253 123.4315498  21.0873822
  10.6769992 117.2839978  21.8600014  10.4229992 117.3029978  22.7820014
  10.4199992 116.4129978  21.5580014  10.6074508 117.1688280  21.9454803
   6.4429992 120.0349978  32.2950014   5.8019992 119.9949978  33.0040014
   6.4809992 120.9619978  32.0570014   6.3603010 120.1547668  32.3599946
   6.4399992 120.2559978  27.2070014   5.5479992 119.9159978  27.1480014
   6.8909992 119.8789978  26.4510014   6.3787642 120.1584910  27.0967726
  11.9759992 120.6719978  26.0240014  11.5669992 121.4869978  25.7320014
  12.6959992 120.5319978  25.4100014  12.0174439 120.7645372  25.9010115
  11.0779992 120.8479978  37.5120014  10.5149992 120.1429978  37.8330014
  11.9039992 120.7269978  37.9800014  11.1126674 120.7352165  37.6191751
  12.9809992 120.1179978  28.8380014  12.7849992 120.7239978  28.1230014
  13.1619992 119.2849978  28.4040014  12.9786584 120.0882513  28.6814212
   4.1929992 120.3559978  34.1620014   4.1549992 120.7559978  35.0310014
   3.7029992 119.5389978  34.2520014   4.1215330 120.3002674  34.2931289
   7.5589992 117.7299978  20.9610014   7.1279992 117.2849978  21.6900014
   6.8409992 118.1009978  20.4480014   7.4029176 117.7192051  20.9914930
   0.8019992 117.4719978  28.0130014   1.4319992 117.4429978  28.7320014
   1.2509992 117.0469978  27.2820014   0.9490835 117.4105660  28.0127659
   2.0759992 118.2179978  23.4370014   2.5499992 118.8089978  22.8520014
   1.3579992 118.7479978  23.7840014   2.0438640 118.3705511  23.4037969
  12.2449992 121.7559978  33.5090014  12.5679992 121.1249978  32.8660014
  11.8039992 121.2219978  34.1700014  12.2296379 121.5973468  33.5102582
   9.0219992 117.6839978  28.2930014   8.1109992 117.7409978  28.5820014
   9.5269992 117.6239978  29.1040014   8.9656873 117.6836826  28.4421207
   3.8499992 119.3129978  27.1200014   2.9609992 119.4119978  26.7800014
   4.1469992 118.4709978  26.7740014   3.7684177 119.2127687  27.0266940
   7.5029992 119.3129978  24.7770014   8.4349992 119.4419978  24.9550014
   7.2879992 119.9819978  24.1270014   7.6014472 119.4210806  24.7134891
  13.4269992 116.9189978  31.5580014  12.7499992 117.0499978  32.2210014
  12.9419992 116.7639978  30.7470014  13.2687405 116.9159947  31.5392170
   6.1769992 120.5069978  22.3430014   5.6349992 120.1279978  21.6520014
   7.0109992 120.7019978  21.9150014   6.2154390 120.4814079  22.1904392
  16.7149992 132.5899978  37.8340014  16.9139992 133.0139978  37.0000014
  17.3699992 132.9339978  38.4410014  16.8308522 132.6946301  37.8017852
   4.3129992 125.0639978  37.4420014   5.0449992 125.3189978  38.0040014
   3.5319992 125.2689978  37.9580014   4.3076526 125.1265450  37.5885176
  10.3419992 120.4709978  30.1800014  10.9059992 119.9249978  29.6330014
  10.1939992 119.9499978  30.9690014  10.3993037 120.3256787  30.2117229
   5.3439992 116.6079978  26.5990014   5.0269992 115.7049978  26.5630014
   6.1249992 116.6099978  26.0460014   5.4062431 116.4847797  26.5193102
   8.9679992 118.8599978  32.5940014   8.1329992 119.3139978  32.7050014
   9.4919992 119.1359978  33.3460014   8.9246072 118.9593948  32.7108136
   9.5129992 125.0729978  24.2790014   8.7679992 124.5649978  23.9570014
   9.3779992 125.1219978  25.2250014   9.3928963 125.0101731  24.3628826
  16.6629992 124.2059978  33.0660014  17.3039992 124.6619978  32.5220014
  15.8319992 124.3189978  32.6030014  16.6385287 124.2836921  32.9289887
  13.4099992 117.8869978  22.4780014  12.4719992 117.9979978  22.3270014
  13.7079992 118.7429978  22.7850014  13.3216318 118.0180158  22.4988145
  11.0319992 125.2569978  35.5160014  10.6859992 124.8749978  36.3230014
  10.8319992 126.1899978  35.5870014  10.9575987 125.3309002  35.6360461
  14.1289992 119.7539978  24.1390014  15.0209992 119.6159978  24.4580014
  14.1849992 120.5449978  23.6020014  14.2587325 119.8419918  24.1101217
   4.6369992 124.3679978  30.0490014   5.3819992 124.3649978  29.4470014
   4.7149992 123.5439978  30.5300014   4.7493365 124.2562384  30.0317430
  11.6379992 126.5309978  23.3040014  11.3429992 127.3579978  23.6860014
  10.9349992 125.9119978  23.5010014  11.5026379 126.5604171  23.3828654
   1.6449992 122.8279978  35.3640014   1.8679992 122.4099978  36.1950014
   1.0429992 122.2159978  34.9410014   1.5941513 122.6879606  35.4206740
   8.6619992 122.3449978  37.5770014   8.3659992 122.1799978  36.6810014
   9.5929992 122.1249978  37.5660014   8.7474401 122.2926879  37.4530206
  13.2819992 127.7189978  35.4660014  12.3819992 127.9019978  35.1990014
  13.3159992 127.9779978  36.3870014  13.1633748 127.7790554  35.5539164
  19.0139992 119.9629978  23.8340014  18.4589992 119.5669978  23.1610014
  19.1139992 120.8739978  23.5560014  18.9516816 120.0319505  23.7045033
  18.9769992 125.7639978  36.6710014  18.1259992 126.0019978  36.3030014
  19.5669992 125.7469978  35.9180014  18.9403812 125.7942524  36.5188453
  17.3089992 128.7489978  24.2990014  16.9359992 127.9239978  24.6080014
  17.5859992 128.5659978  23.4010014  17.2953463 128.6112569  24.2199525
  14.4689992 123.5569978  31.3200014  13.5409992 123.3259978  31.2930014
  14.9199992 122.7799978  30.9900014  14.4028165 123.4202774  31.2716790
   7.0119992 127.8859978  27.4530014   7.5399992 128.6589978  27.2530014
   6.1319992 128.1099978  27.1510014   6.9653435 128.0222700  27.3847310
   2.7669992 122.7479978  22.0400014   3.3829992 123.3749978  22.4200014
   1.9049992 123.0639978  22.3120014   2.7347678 122.8764412  22.1287209
   8.4399992 125.5489978  27.0290014   8.1989992 126.4739978  27.0710014
   7.6989992 125.0899978  27.4260014   8.3069206 125.6135915  27.0883769
   8.9539992 129.6979978  33.3440014   9.3169992 130.5519978  33.1110014
   9.4859992 129.4059978  34.0850014   9.0755141 129.7753895  33.4122097
   7.1229992 130.5699978  26.5750014   6.1729992 130.6759978  26.6260014
   7.4749992 131.3909978  26.9190014   7.0405472 130.6954923  26.6284852
  12.4979992 125.7969978  33.0450014  12.0729992 125.5689978  33.8710014
  13.0789992 125.0579978  32.8630014  12.5183395 125.6659545  33.1334414
  14.7009992 126.7259978  22.1190014  15.0549992 126.3459978  22.9230014
  13.7529992 126.6319978  22.2060014  14.6212298 126.6612452  22.2408687
  15.1569992 130.3489978  35.5140014  14.5549992 129.7929978  35.0190014
  15.4379992 131.0159978  34.8880014  15.1125757 130.3630744  35.3615675
  19.2049992 131.2049978  22.3200014  19.9489992 131.7909978  22.1800014
  18.5109992 131.7739978  22.6530014  19.2129809 131.3620818  22.3458590
   3.2789992 117.5819978  34.9220014   2.3869992 117.9199978  34.8540014
   3.1809992 116.7259978  35.3400014   3.1434475 117.5126543  34.9691704
  15.5669992 125.3979978  24.3460014  15.2899992 124.6699978  24.9020014
  16.4949992 125.5169978  24.5510014  15.6544499 125.3144213  24.4498044
   2.9309992 129.3859978  33.3570014   3.1479992 128.4539978  33.3260014
   3.1769992 129.6609978  34.2400014   2.9939809 129.2955686  33.4721691
   8.7919992 127.8379978  20.5660014   9.0309992 127.0889978  20.0190014
   8.5229992 127.4499978  21.3990014   8.7883233 127.6831853  20.6037809
   7.7289992 127.4079978  23.0220014   7.8759992 126.8879978  23.8120014
   7.7259992 128.3149978  23.3290014   7.7487102 127.4593953  23.1715925
   4.1819992 124.6599978  23.5330014   3.4959992 125.0129978  24.1000014
   4.7049992 125.4229978  23.2860014   4.1588402 124.8113901  23.5771801
  12.0139992 117.3229978  33.8120014  12.7129992 117.3969978  34.4620014
  11.6329992 116.4579978  33.9660014  12.0582097 117.2162389  33.9217997
  12.7979992 116.9749978  24.9090014  13.0179992 117.4459978  24.1050014
  13.3569992 117.3689978  25.5790014  12.9036731 117.0927287  24.8895033
  10.4669992 129.1049978  23.7720014   9.6499992 129.6019978  23.8240014
  10.9959992 129.5809978  23.1310014  10.4268125 129.2371989  23.6925306
   9.9979992 118.7029978  25.7440014  10.8099992 119.2069978  25.7900014
   9.7539992 118.5579978  26.6580014  10.0761467 118.7523749  25.8738575
  10.5339992 119.6889978  34.9280014  10.6529992 120.2629978  35.6850014
  11.1889992 119.0009978  35.0430014  10.6388684 119.6745194  35.0471674
  10.8819992 115.7839978  26.6820014  10.5349992 116.4009978  27.3260014
  11.5409992 116.2849978  26.2000014  10.9235090 115.9361575  26.7050681
   7.8049992 130.1489978  23.7530014   7.9659992 130.9489978  23.2530014
   7.6079992 130.4559978  24.6380014   7.8003906 130.2998678  23.8042333
   6.5399992 116.8469978  23.3690014   6.4559992 117.7349978  23.7160014
   7.4299992 116.5819978  23.6010014   6.6488163 116.9327179  23.4478596
  16.7379992 117.5959978  35.7630014  15.8219992 117.8579978  35.6760014
  17.0739992 117.5929978  34.8670014  16.6578499 117.6315163  35.6298766
  15.3409992 121.3459978  29.8590014  14.5429992 120.9309978  29.5310014
  15.7859992 120.6559978  30.3500014  15.2919684 121.1958628  29.8805227
   4.7979992 127.2739978  22.4290014   5.3899992 127.9739978  22.7060014
   5.2569992 126.8409978  21.7100014   4.9411652 127.3112675  22.3696533
   3.1139992 119.9389978  21.5450014   3.0689992 120.8779978  21.7240014
   2.2259992 119.7029978  21.2760014   2.9878166 120.0356687  21.5331524
  16.4269992 130.6019978  31.4810014  16.2709992 131.2809978  30.8240014
  17.3599992 130.6739978  31.6840014  16.5317387 130.7046390  31.4185342
   3.9219992 114.7199978  30.2190014   3.6929992 114.7789978  29.2910014
   3.4799992 113.9289978  30.5250014   3.8308801 114.6210540  30.1334729
   2.8529992 128.6609978  26.3790014   2.0199992 129.1329978  26.4060014
   3.3979992 129.1709978  25.7800014   2.8127857 128.7944791  26.3017142
   2.1409992 131.2729978  37.7090014   2.6809992 131.0569978  38.4690014
   1.6599992 130.4679978  37.5190014   2.1499219 131.1345156  37.7874282
   6.7379992 130.1929978  39.3290014   7.5059992 129.7339978  39.6700014
   6.7169992 129.9669978  38.3990014   6.8402135 130.0996668  39.2499491
  10.8299992 129.7009978  20.7050014  10.1859992 129.0699978  21.0260014
  11.5919992 129.1699978  20.4730014  10.8448058 129.5427902  20.7176038
  13.3149992 128.5729978  38.0580014  12.9639992 127.7159978  38.3020014
  14.0409992 128.7149978  38.6650014  13.3651895 128.4751351  38.1733770
  15.4349992 129.5179978  20.9380014  15.7179992 128.7229978  21.3910014
  16.1739992 129.7509978  20.3770014  15.5737096 129.4407049  20.9241104
   2.0479992 125.0839978  38.6630014   2.1919992 124.1819978  38.3770014
   1.2759992 125.3699978  38.1760014   1.9632733 124.9991798  38.5579532
   6.3889992 125.4269978  20.7960014   6.4539992 124.6329978  21.3260014
   7.0419992 125.3089978  20.1060014   6.4861605 125.3023430  20.7752997
   8.7029992 125.0529978  38.0960014   8.3749992 125.3239978  37.2390014
   8.8549992 124.1119978  38.0080014   8.6786412 124.9629046  37.9667822
  11.7419992 126.4739978  20.5320014  11.4729992 126.6549978  21.4320014
  11.5349992 125.5489978  20.4000014  11.6771191 126.3737119  20.6375524
  14.4379992 124.9689978  35.4790014  15.1829992 125.5579978  35.3600014
  13.6809992 125.5509978  35.5430014  14.4375470 125.1282128  35.4713799
   2.8809992 122.2839978  38.0830014   3.2889992 121.4269978  37.9620014
   2.6199992 122.2979978  39.0040014   2.9016016 122.1685119  38.1909192
   7.5389992 123.3999978  23.1020014   7.0789992 122.9159978  23.7870014
   7.7939992 122.7309978  22.4660014   7.5104856 123.2433669  23.1098397
   6.8279992 121.2929978  35.4580014   6.2089992 121.9669978  35.7380014
   7.1719992 121.6139978  34.6240014   6.7897123 121.4286887  35.3836388
   8.6099992 121.6429978  21.3640014   8.4289992 121.4879978  20.4370014
   9.5599992 121.7509978  21.4090014   8.7136566 121.6363669  21.2430929
  11.8469992 123.7639978  38.7350014  12.8009992 123.8479978  38.7080014
  11.6869992 123.0519978  39.3550014  11.9557182 123.6792842  38.8150733
  17.9999992 123.9969978  20.8100014  17.7259992 123.5729978  19.9970014
  18.0389992 124.9289978  20.5930014  17.9677716 124.0648827  20.6694286
   7.1669992 118.6479978  36.5400014   7.3169992 117.9189978  35.9380014
   7.1689992 119.4249978  35.9810014   7.1877967 118.6532708  36.3820541
   7.5799992 117.0169978  34.0330014   8.1149992 117.4689978  33.3810014
   6.7269992 116.9089978  33.6100014   7.5380374 117.0642665  33.8866710
   9.1609992 122.4569978  34.2720014   9.9119992 122.3009978  33.6990014
   8.8219992 123.3089978  33.9970014   9.2179587 122.5508138  34.1564078
  13.5769992 120.2719978  39.3010014  13.7689992 119.3409978  39.1890014
  14.4349992 120.6969978  39.2900014  13.7192182 120.2020070  39.2841862
  14.8939992 123.0609978  37.3780014  14.6119992 123.7699978  36.8000014
  15.8359992 122.9879978  37.2270014  14.9827921 123.1482193  37.2784225
   5.6459992 119.8459978  38.4510014   4.8779992 119.3129978  38.2410014
   6.3239992 119.5359978  37.8520014   5.6327235 119.7311754  38.3412413
   8.3849992 114.4739978  34.4640014   8.2869992 115.4199978  34.3590014
   7.6429992 114.1009978  33.9880014   8.2712534 114.5531773  34.3852600
   9.6489992 118.7949978  38.0280014   9.4139992 118.5759978  38.9290014
   8.8659992 118.5879978  37.5180014   9.5109095 118.7369892  38.0825353
  12.3649992 117.9229978  37.1030014  11.4169992 117.9549978  37.2350014
  12.6769992 117.2969978  37.7570014  12.2775293 117.8427923  37.2094148
  13.9989992 116.5569978  39.1080014  13.9019992 115.6049978  39.1030014
  13.6769992 116.8249978  39.9690014  13.9422468 116.4630884  39.2236210
   3.8259992 117.7659978  38.1560014   4.0379992 117.0599978  37.5460014
   3.7149992 117.3289978  39.0000014   3.8400269 117.6101921  38.1865873
   8.6069992 113.7679978  37.1350014   9.3189992 113.1279978  37.1210014
   8.5059992 114.0339978  36.2220014   8.6907387 113.7164330  37.0095563
   8.9609992 115.4499978  39.1890014   8.8289992 114.9749978  38.3690014
   8.3609992 116.1949978  39.1340014   8.8619070 115.4855789  39.0693251
   8.5069992 132.3329978  22.3650014   9.4399992 132.4909978  22.5090014
   8.2429992 133.0089978  21.7400014   8.5989911 132.4459373  22.3002722
   2.0749992 126.9699978  21.8480014   2.9889992 127.0489978  22.1210014
   2.0829992 126.2829978  21.1820014   2.2010655 126.8879205  21.7952917
   0.7239992 132.3629978  26.9250014   0.0769992 131.9009978  26.3930014
   1.0789992 131.6909978  27.5080014   0.6833741 132.2089774  26.9309175
   1.5939992 130.4429978  28.7300014   1.2599992 129.5629978  28.9020014
   1.8169992 130.7889978  29.5950014   1.5783721 130.3691938  28.8704168
  19.1429992 131.2529978  31.7110014  19.1209992 131.4379978  32.6500014
  19.8329992 131.8209978  31.3700014  19.2333439 131.3551887  31.7934791
  18.7059992 130.8199978  34.6320014  18.2189992 130.0849978  34.2610014
  19.2549992 130.4259978  35.3100014  18.7135247 130.6661057  34.6728461
  17.1569992 126.6099978  39.2710014  16.2909992 126.5049978  39.6650014
  17.5329992 127.3679978  39.7170014  17.0893401 126.6981708  39.3852620
  18.4579992 124.8659978  24.7850014  19.3079992 125.2869978  24.9120014
  18.4629992 124.1259978  25.3920014  18.5751143 124.8236094  24.8844750
  18.8519992 122.9199978  26.6080014  18.1259992 122.4399978  27.0060014
  19.4339992 123.1249978  27.3410014  18.8312730 122.8820184  26.7614149
  18.6109992 125.7049978  31.5560014  19.4449992 125.3269978  31.2750014
  18.7229992 126.6479978  31.4370014  18.7401917 125.7807943  31.5014861
  17.0979992 128.5829978  33.8630014  16.4499992 128.9079978  34.4880014
  16.5799992 128.1419978  33.1890014  16.9394196 128.5678651  33.8574152
  19.1209992 122.8209978  22.9990014  18.5989992 123.1769978  22.2810014
  19.0879992 123.4959978  23.6780014  19.0450129 122.9609598  22.9923355
  17.4699992 120.0599978  21.5500014  17.5659992 120.7269978  20.8700014
  17.3299992 119.2449978  21.0690014  17.4642040 120.0410671  21.3918378
  16.6389992 121.4409978  27.1710014  16.4889992 120.4959978  27.1510014
  16.2849992 121.7219978  28.0150014  16.5706351 121.3496644  27.2823220
   1.6739992 123.5189978  31.1820014   1.8589992 123.4369978  30.2460014
   2.5239992 123.3949978  31.6050014   1.8140928 123.4910463  31.1112893
  17.4949992 123.4109978  36.8100014  18.0779992 122.6759978  37.0020014
  18.0589992 124.1829978  36.8570014  17.6509781 123.4148145  36.8426164
  18.9919992 121.3139978  37.4950014  18.1289992 120.9349978  37.3290014
  19.5959992 120.5749978  37.4200014  18.9556085 121.1623223  37.4621695
  16.7169992 117.4679978  20.6680014  17.3279992 117.0969978  21.3050014
  15.8799992 117.0469978  20.8640014  16.6874947 117.3602756  20.7817252
  16.3499992 119.0229978  25.6340014  16.6289992 118.1159978  25.7580014
  17.1089992 119.4569978  25.2450014  16.4908619 118.9574502  25.5983795
  16.9609992 119.6049978  31.0700014  17.8939992 119.8169978  31.0350014
  16.7259992 119.7059978  31.9920014  17.0569517 119.6476833  31.1899130
  16.9909992 120.3419978  33.8460014  16.1479992 120.6099978  34.2120014
  17.4329992 121.1639978  33.6350014  16.9354138 120.4898273  33.8675518
   1.2719992 118.7889978  37.3220014   2.1909992 118.6669978  37.5590014
   0.8219992 118.0389978  37.7120014   1.3370087 118.6709608  37.4071410
  19.2739992 114.3219978  39.1990014  19.6229992 113.6679978  38.5940014
  19.4209992 115.1589978  38.7590014  19.3416824 114.3456024  39.0566304
  16.9629992 116.2859978  25.6820014  17.1449992 115.8369978  26.5070014
  16.3629992 115.7019978  25.2180014  16.9068187 116.1455552  25.7322739
   2.4929992 117.1019978  30.2140014   2.9379992 116.3099978  30.5160014
   2.9589992 117.8179978  30.6440014   2.6169718 117.0904534  30.3135265
   0.7969992 120.1009978  31.2830014   1.2889992 119.8799978  30.4920014
   1.1589992 120.9409978  31.5640014   0.9132923 120.1843468  31.2127407
  18.7929992 116.4309978  37.5480014  17.8759992 116.7019978  37.5130014
  18.9159992 115.8959978  36.7640014  18.6839672 116.3957885  37.4371862
  18.8299992 116.3539978  22.2100014  19.2419992 115.6329978  21.7350014
  19.5109992 117.0229978  22.2680014  18.9785536 116.3457766  22.1528024
   1.1109992 116.3589978  25.3370014   0.1859992 116.5669978  25.2080014
   1.5649992 116.8429978  24.6470014   1.0456298 116.4529299  25.2260451
  15.8809992 131.3429978  27.2830014  16.5339992 130.9949978  26.6750014
  16.3919992 131.8309978  27.9290014  16.0392777 131.3613815  27.2872047
   1.0739992 115.0969978  33.6810014   0.4089992 114.8509978  34.3240014
   0.6309992 115.7189978  33.1040014   0.9231168 115.1474214  33.6909848
   3.2659992 128.2719978  37.8260014   2.4449992 128.4469978  37.3650014
   3.0139992 128.1989978  38.7460014   3.1195594 128.2860717  37.8873611
   6.2199992 129.2459978  34.0840014   5.7959992 130.0559978  33.8020014
   7.1249992 129.3319978  33.7820014   6.2842138 129.3684160  34.0046415
  10.5319992 130.6449978  37.0440014  10.7159992 130.3119978  37.9220014
  11.3779992 130.9549978  36.7220014  10.6716484 130.6412979  37.1207617
  12.8769992 131.9309978  36.2880014  13.5539992 131.2979978  36.0480014
  13.1979992 132.3319978  37.0950014  13.0131323 131.8985691  36.3643158
  17.7939992 114.5209978  35.3670014  16.9809992 114.8459978  34.9800014
  18.0269992 113.7599978  34.8340014  17.7141347 114.4626880  35.2419841
   3.6219992 132.5029978  34.1320014   2.9019992 132.9429978  33.6810014
   3.2569992 132.2519978  34.9800014   3.4739643 132.5293369  34.1849129
   6.0889992 132.1029978  33.1620014   5.2249992 132.1749978  33.5660014
   6.0339992 132.6499978  32.3780014   5.9631942 132.1867849  33.1114000
  10.7999992 131.9909978  32.3370014  10.3429992 132.5199978  31.6830014
  10.9629992 132.5939978  33.0620014  10.7594960 132.1449280  32.3455274
  13.1279992 130.8689978  33.2820014  12.2229992 131.0339978  33.0160014
  13.5559992 131.7219978  33.2160014  13.0621537 131.0069134  33.2367095
  15.7319992 132.4389978  33.5770014  15.5499992 133.3549978  33.3660014
  15.9089992 132.0279978  32.7300014  15.7310030 132.5088273  33.4337166
   3.0369992 131.1259978  31.0420014   3.0189992 130.6999978  31.8990014
   3.8419992 130.8069978  30.6330014   3.1432875 131.0246435  31.1039515
   5.1779992 129.8359978  29.6970014   4.9589992 128.9189978  29.8670014
   6.0019992 129.9759978  30.1630014   5.2594702 129.7295511  29.7832527
   7.7149992 130.3059978  30.5460014   7.9279992 129.4179978  30.2590014
   7.7799992 130.2709978  31.5000014   7.7529149 130.1798326  30.6357369
  11.2239992 115.9699978  29.6900014  10.5499992 115.3399978  29.9460014
  11.7879992 115.4859978  29.0870014  11.2080384 115.8183708  29.6435020
  16.3669992 114.0769978  29.8030014  16.9699992 114.6249978  29.3010014
  15.4969992 114.3959978  29.5620014  16.3319157 114.1950373  29.7017910
  18.0939992 115.2159978  28.1360014  18.7049992 114.7019978  27.6090014
  18.4759992 116.0929978  28.1590014  18.2293305 115.2642050  28.0669418
   3.5509992 114.6039978  27.5120014   2.7739992 114.3689978  27.0050014
   4.0809992 113.8069978  27.5210014   3.5163451 114.4641268  27.4438627
   2.3869992 114.4019978  23.3160014   2.8259992 115.0129978  22.7240014
   1.7529992 114.9399978  23.7900014   2.3613859 114.5584064  23.2990305
   8.1299992 114.5299978  27.3250014   9.0039992 114.9189978  27.2960014
   7.9939992 114.3149978  28.2480014   8.2311953 114.5541643  27.4457617
  13.6869992 114.5599978  28.9750014  13.7629992 114.6559978  28.0250014
  13.4119992 113.6529978  29.1030014  13.6601871 114.4504146  28.8623944
  15.0399992 114.5859978  24.6670014  14.3369992 115.2009978  24.4570014
  14.5949992 113.7489978  24.7980014  14.8836550 114.5569668  24.6559837
   2.2879992 130.3499978  24.2130014   1.6029992 130.3119978  23.5460014
   2.2919992 131.2629978  24.5010014   2.1947621 130.4681924  24.1606126
   4.2479992 116.3179978  21.7580014   4.7389992 115.6879978  21.2310014
   4.8709992 116.6139978  22.4210014   4.3995304 116.2717376  21.7754940
   9.2739992 116.6109978  24.2150014   9.4519992 115.9639978  24.8980014
   9.2199992 117.4449978  24.6820014   9.2910678 116.6351604  24.3716301
  11.1519992 131.5589978  22.6110014  12.0179992 131.9259978  22.4330014
  10.9059992 131.1199978  21.7970014  11.2372097 131.5498525  22.4766019
  17.8609992 131.1219978  25.2900014  17.6669992 130.3739978  24.7250014
  17.8219992 131.8799978  24.7070014  17.8291645 131.1220786  25.1338148
   3.5079992 115.1179978  37.0300014   3.1419992 114.3519978  37.4720014
   4.4209992 115.1469978  37.3160014   3.5813172 115.0170324  37.1291890
   5.4809992 114.4679978  38.5650014   6.3799992 114.1939978  38.3810014
   5.0949992 113.7259978  39.0300014   5.5517307 114.3302196  38.6027098
   4.1059992 131.2699978  21.2380014   3.8379992 131.5559978  22.1120014
   4.8769992 130.7239978  21.3910014   4.1735926 131.2352779  21.3781205
  13.9029992 113.8009978  38.7480014  13.9789992 113.3749978  39.6010014
  14.7959992 113.8139978  38.4050014  14.0342303 113.7443493  38.8185497
  17.0789992 129.8739978  37.4400014  16.2969992 129.6869978  36.9200014
  17.0069992 130.8029978  37.6570014  16.9621924 129.9740637  37.3981602
  31.4849992 123.7599978  27.4710014  31.5739992 124.7039978  27.3390014
  30.8469992 123.4849978  26.8130014  31.4109062 123.8519812  27.3639641
  30.4179992 123.0149978  30.8900014  30.3799992 122.3689978  31.5950014
  30.0959992 122.5479978  30.1190014  30.3692679 122.8634276  30.8822921
  22.7859992 122.6289978  32.4830014  22.8279992 122.0039978  33.2060014
  23.4889992 123.2529978  32.6650014  22.8867345 122.6277873  32.6065274
  34.1239992 125.9539978  29.1910014  33.6829992 125.2339978  29.6420014
  34.1109992 126.6749978  29.8210014  34.0619215 125.9529291  29.3378105
  23.7099992 127.0789978  31.0180014  23.3399992 126.2769978  30.6480014
  24.6509992 126.9109978  31.0640014  23.7865984 126.9464638  30.9735603
  20.3199992 120.7389978  26.4100014  19.8719992 121.5849978  26.3920014
  19.7589992 120.1599978  25.8950014  20.1828546 120.7763993  26.3378891
  21.0299992 122.9009978  28.5360014  21.2439992 122.1309978  29.0640014
  21.7679992 122.9909978  27.9330014  21.1590200 122.8078587  28.5267035
  31.2359992 131.0579978  29.4030014  31.8549992 130.3819978  29.1300014
  31.0269992 130.8399978  30.3120014  31.2926056 130.9358869  29.4883967
  28.8069992 125.4469978  31.2960014  29.1109992 124.7609978  30.7010014
  29.5289992 125.5659978  31.9140014  28.9461240 125.3692314  31.2980959
  37.4699992 117.0489978  32.1560014  37.5199992 117.6589978  32.8920014
  37.8959992 117.5099978  31.4330014  37.5344108 117.1947709  32.1590112
  31.9479992 119.8409978  31.6230014  32.0909992 118.8949978  31.6430014
  31.8419992 120.0479978  30.6950014  31.9532403 119.7394797  31.5002239
  25.1029992 117.9429978  28.8960014  25.1459992 118.8029978  28.4770014
  24.6449992 117.3909978  28.2620014  25.0469871 117.9859245  28.7530761
  32.8249992 118.0739978  27.2970014  33.4719992 117.7449978  27.9210014
  33.3349992 118.5909978  26.6740014  32.9824351 118.0989067  27.2981037
  21.7229992 120.3399978  29.6580014  22.3769992 119.7899978  30.0900014
  21.7469992 120.0659978  28.7410014  21.8157199 120.2277167  29.5931668
  26.8799992 121.8899978  28.8730014  27.4959992 121.3629978  29.3820014
  26.2929992 121.2499978  28.4690014  26.8850154 121.7313954  28.8880945
  37.8619992 118.5269978  34.3920014  37.1729992 119.1849978  34.2970014
  37.8769992 118.3289978  35.3290014  37.7697756 118.5902603  34.5055812
  23.9129992 116.8609978  32.9700014  23.6939992 117.3909978  32.2030014
  23.2449992 117.0869978  33.6170014  23.7926975 116.9640967  32.9525140
  31.2819992 126.3609978  26.5140014  30.9869992 126.0379978  25.6620014
  30.9579992 127.2609978  26.5550014  31.1978460 126.4384464  26.4029714
  26.4819992 124.5359978  33.2570014  25.7419992 125.1349978  33.3610014
  27.1959992 125.0899978  32.9420014  26.4773500 124.6927829  33.2286371
  34.5889992 117.3649978  29.2770014  34.3739992 116.5989978  29.8100014
  35.2449992 117.8369978  29.7900014  34.6482673 117.3240728  29.4191990
  23.5069992 118.7529978  30.9220014  24.1209992 119.3859978  31.2950014
  24.0189992 118.2809978  30.2660014  23.6601962 118.7757249  30.8842935
  24.8899992 126.5009978  34.0440014  24.8839992 127.3799978  33.6660014
  24.0359992 126.4169978  34.4690014  24.7737925 126.6099535  34.0496887
  21.0109992 126.1719978  24.8260014  20.7389992 126.4009978  23.9380014
  21.0559992 127.0089978  25.2870014  20.9798097 126.3166163  24.7666683
  34.6359992 127.7929978  31.5390014  33.6939992 127.8519978  31.7010014
  34.9119992 128.6989978  31.4020014  34.5445865 127.9235288  31.5426192
  34.9359992 116.0799978  32.9560014  34.1999992 116.6899978  32.9190014
  35.6199992 116.4949978  32.4300014  34.9275367 116.2197551  32.8798174
  27.9399992 114.1659978  30.4220014  27.8219992 113.2179978  30.3680014
  27.0849992 114.4989978  30.6950014  27.8082805 114.0812202  30.4515079
  32.8879992 129.5739978  28.1640014  33.3129992 128.8669978  27.6790014
  33.2049992 130.3759978  27.7470014  32.9890266 129.5855190  28.0412479
  34.0479992 127.4749978  26.6730014  33.7899992 126.7849978  26.0610014
  34.1189992 127.0319978  27.5180014  34.0223050 127.3206814  26.7035621
  35.7339992 126.0419978  35.1500014  35.8729992 125.4499978  34.4110014
  35.9009992 126.9149978  34.7940014  35.7756193 126.0788896  35.0006211
  30.2059992 123.0039978  24.9230014  29.4949992 123.5389978  24.5710014
  30.8969992 123.0589978  24.2630014  30.2020751 123.0846777  24.7855858
  30.2599992 121.4609978  21.9610014  30.9609992 121.4839978  22.6130014
  30.5619992 120.8329978  21.3050014  30.3968202 121.3792212  21.9615609
  37.5749992 122.3819978  33.2160014  36.9229992 123.0759978  33.3050014
  38.0409992 122.5919978  32.4060014  37.5485937 122.5055019  33.1187533
  33.6119992 123.2129978  25.8740014  32.8799992 123.4419978  26.4480014
  34.0589992 122.4999978  26.3290014  33.5723963 123.1478729  26.0139945
  33.5089992 121.3879978  34.9420014  33.5889992 122.1509978  35.5140014
  32.9079992 121.6669978  34.2520014  33.4386547 121.5302457  34.9270047
  25.2569992 123.8439978  27.7570014  24.9269992 123.4729978  26.9390014
  25.8459992 123.1729978  28.1040014  25.2913970 123.7026063  27.6919404
  26.6239992 127.2719978  30.4380014  26.5289992 126.6929978  29.6820014
  27.3529992 126.9009978  30.9340014  26.7096011 127.1425561  30.4016028
  25.6239992 122.6119978  31.3900014  26.1889992 122.7339978  30.6280014
  25.9429992 123.2499978  32.0290014  25.7444166 122.7148791  31.3720348
  31.9329992 128.1159978  32.1240014  31.6929992 128.7779978  32.7720014
  31.7349992 127.2809978  32.5490014  31.8733826 128.0938115  32.2701566
  26.5039992 127.0119978  36.1080014  26.1929992 127.7939978  36.5630014
  25.8539992 126.8589978  35.4220014  26.3735538 127.0984087  36.0775898
  32.4829992 122.3759978  23.5600014  33.0619992 122.5259978  24.3060014
  32.8969992 122.8459978  22.8360014  32.6183358 122.4600954  23.5643953
  23.4239992 123.2099978  35.3360014  23.4939992 123.8609978  36.0350014
  22.5329992 123.3129978  35.0010014  23.3131690 123.3129249  35.3863043
  30.2089992 129.1119978  26.9950014  30.6829992 129.4079978  27.7720014
  29.6459992 129.8509978  26.7620014  30.1977890 129.2523036  27.0698101
  24.7429992 129.0829978  36.8710014  24.7509992 128.9469978  35.9240014
  23.8269992 128.9659978  37.1230014  24.6202528 129.0485463  36.7753243
  36.1819992 114.1259978  23.3730014  35.2819992 114.2649978  23.6680014
  36.4339992 114.9569978  22.9710014  36.0928683 114.2574055  23.3590232
  24.2479992 122.9129978  25.3460014  23.9559992 123.6809978  24.8550014
  23.5729992 122.2539978  25.1830014  24.1168497 122.9289745  25.2568260
  37.3709992 128.4919978  21.7490014  37.4439992 129.4309978  21.9190014
  38.2759992 128.1869978  21.6930014  37.5034170 128.5793282  21.7647063
  20.3409992 125.2759978  34.1610014  19.8389992 125.2479978  33.3460014
  20.3459992 124.3709978  34.4710014  20.2729832 125.1497486  34.0914121
  20.0909992 128.0569978  31.0450014  21.0369992 127.9119978  31.0260014
  19.9779992 128.8409978  31.5820014  20.2053578 128.1431697  31.1150317
  38.2889992 128.7229978  36.7280014  38.2389992 127.7669978  36.6900014
  37.4619992 128.9899978  37.1290014  38.1703831 128.6284680  36.7770121
  29.2669992 128.2969978  35.6040014  29.3549992 129.1229978  36.0790014
  28.4039992 127.9669978  35.8530014  29.1623357 128.3655468  35.7027653
  29.6819992 132.0689978  25.4100014  29.6059992 131.9479978  24.4630014
  29.7139992 133.0179978  25.5280014  29.6759380 132.1807677  25.2965181
  23.3349992 130.8579978  27.1910014  23.4869992 130.5099978  28.0690014
  22.4839992 130.5009978  26.9350014  23.2408344 130.7620879  27.2766868
  32.7829992 131.2229978  22.4120014  33.1579992 130.4789978  21.9410014
  32.7879992 130.9529978  23.3300014  32.8350098 131.0846392  22.4716629
  32.4519992 131.1489978  25.1610014  31.5169992 131.2489978  25.3400014
  32.7319992 130.4389978  25.7400014  32.3619471 131.0667933  25.2636695
  35.4409992 120.2159978  37.2080014  35.0329992 120.6959978  36.4870014
  35.4809992 119.3099978  36.9000014  35.3906221 120.1592449  37.0678267
  22.5899992 126.5999978  35.2040014  22.8059992 126.2379978  36.0640014
  21.7339992 126.2249978  34.9950014  22.5038810 126.4998837  35.2932680
  25.2079992 115.0699978  31.2000014  24.3469992 114.9829978  30.7920014
  25.1859992 115.9259978  31.6280014  25.0870491 115.1738003  31.2019582
  29.8709992 114.7919978  34.5750014  30.2909992 114.3769978  35.3280014
  28.9379992 114.6129978  34.6920014  29.8023736 114.7109910  34.6938968
  33.1979992 118.5469978  35.4280014  32.6839992 118.4219978  36.2260014
  33.0419992 119.4599978  35.1840014  33.1066967 118.6532123  35.5040937
  33.9599992 123.4079978  21.1890014  34.0019992 123.1859978  20.2590014
  34.8089992 123.8069978  21.3790014  34.0805253 123.4315498  21.0873822
  29.5329992 117.2839978  21.8600014  29.2789992 117.3029978  22.7820014
  29.2759992 116.4129978  21.5580014  29.4634508 117.1688280  21.9454803
  25.2989992 120.0349978  32.2950014  24.6579992 119.9949978  33.0040014
  25.3369992 120.9619978  32.0570014  25.2163010 120.1547668  32.3599946
  25.2959992 120.2559978  27.2070014  24.4039992 119.9159978  27.1480014
  25.7469992 119.8789978  26.4510014  25.2347642 120.1584910  27.0967726
  30.8319992 120.6719978  26.0240014  30.4229992 121.4869978  25.7320014
  31.5519992 120.5319978  25.4100014  30.8734439 120.7645372  25.9010115
  29.9339992 120.8479978  37.5120014  29.3709992 120.1429978  37.8330014
  30.7599992 120.7269978  37.9800014  29.9686674 120.7352165  37.6191751
  31.8369992 120.1179978  28.8380014  31.6409992 120.7239978  28.1230014
  32.0179992 119.2849978  28.4040014  31.8346584 120.0882513  28.6814212
  23.0489992 120.3559978  34.1620014  23.0109992 120.7559978  35.0310014
  22.5589992 119.5389978  34.2520014  22.9775330 120.3002674  34.2931289
  26.4149992 117.7299978  20.9610014  25.9839992 117.2849978  21.6900014
  25.6969992 118.1009978  20.4480014  26.2589176 117.7192051  20.9914930
  19.6579992 117.4719978  28.0130014  20.2879992 117.4429978  28.7320014
  20.1069992 117.0469978  27.2820014  19.8050835 117.4105660  28.0127659
  20.9319992 118.2179978  23.4370014  21.4059992 118.8089978  22.8520014
  20.2139992 118.7479978  23.7840014  20.8998640 118.3705511  23.4037969
  31.1009992 121.7559978  33.5090014  31.4239992 121.1249978  32.8660014
  30.6599992 121.2219978  34.1700014  31.0856379 121.5973468  33.5102582
  27.8779992 117.6839978  28.2930014  26.9669992 117.7409978  28.5820014
  28.3829992 117.6239978  29.1040014  27.8216873 117.6836826  28.4421207
  22.7059992 119.3129978  27.1200014  21.8169992 119.4119978  26.7800014
  23.0029992 118.4709978  26.7740014  22.6244177 119.2127687  27.0266940
  26.3589992 119.3129978  24.7770014  27.2909992 119.4419978  24.9550014
  26.1439992 119.9819978  24.1270014  26.4574472 119.4210806  24.7134891
  32.2829992 116.9189978  31.5580014  31.6059992 117.0499978  32.2210014
  31.7979992 116.7639978  30.7470014  32.1247405 116.9159947  31.5392170
  25.0329992 120.5069978  22.3430014  24.4909992 120.1279978  21.6520014
  25.8669992 120.7019978  21.9150014  25.0714390 120.4814079  22.1904392
  35.5709992 132.5899978  37.8340014  35.7699992 133.0139978  37.0000014
  36.2259992 132.9339978  38.4410014  35.6868522 132.6946301  37.8017852
  23.1689992 125.0639978  37.4420014  23.9009992 125.3189978  38.0040014
  22.3879992 125.2689978  37.9580014  23.1636526 125.1265450  37.5885176
  29.1979992 120.4709978  30.1800014  29.7619992 119.9249978  29.6330014
  29.0499992 119.9499978  30.9690014  29.2553037 120.3256787  30.2117229
  24.1999992 116.6079978  26.5990014  23.8829992 115.7049978  26.5630014
  24.9809992 116.6099978  26.0460014  24.2622431 116.4847797  26.5193102
  27.8239992 118.8599978  32.5940014  26.9889992 119.3139978  32.7050014
  28.3479992 119.1359978  33.3460014  27.7806072 118.9593948  32.7108136
  28.3689992 125.0729978  24.2790014  27.6239992 124.5649978  23.9570014
  28.2339992 125.1219978  25.2250014  28.2488963 125.0101731  24.3628826
  35.5189992 124.2059978  33.0660014  36.1599992 124.6619978  32.5220014
  34.6879992 124.3189978  32.6030014  35.4945287 124.2836921  32.9289887
  32.2659992 117.8869978  22.4780014  31.3279992 117.9979978  22.3270014
  32.5639992 118.7429978  22.7850014  32.1776318 118.0180158  22.4988145
  29.8879992 125.2569978  35.5160014  29.5419992 124.8749978  36.3230014
  29.6879992 126.1899978  35.5870014  29.8135987 125.3309002  35.6360461
  32.9849992 119.7539978  24.1390014  33.8769992 119.6159978  24.4580014
  33.0409992 120.5449978  23.6020014  33.1147325 119.8419918  24.1101217
  23.4929992 124.3679978  30.0490014  24.2379992 124.3649978  29.4470014
  23.5709992 123.5439978  30.5300014  23.6053365 124.2562384  30.0317430
  30.4939992 126.5309978  23.3040014  30.1989992 127.3579978  23.6860014
  29.7909992 125.9119978  23.5010014  30.3586379 126.5604171  23.3828654
  20.5009992 122.8279978  35.3640014  20.7239992 122.4099978  36.1950014
  19.8989992 122.2159978  34.9410014  20.4501513 122.6879606  35.4206740
  27.5179992 122.3449978  37.5770014  27.2219992 122.1799978  36.6810014
  28.4489992 122.1249978  37.5660014  27.6034401 122.2926879  37.4530206
  32.1379992 127.7189978  35.4660014  31.2379992 127.9019978  35.1990014
  32.1719992 127.9779978  36.3870014  32.0193748 127.7790554  35.5539164
  37.8699992 119.9629978  23.8340014  37.3149992 119.5669978  23.1610014
  37.9699992 120.8739978  23.5560014  37.8076816 120.0319505  23.7045033
  37.8329992 125.7639978  36.6710014  36.9819992 126.0019978  36.3030014
  38.4229992 125.7469978  35.9180014  37.7963812 125.7942524  36.5188453
  36.1649992 128.7489978  24.2990014  35.7919992 127.9239978  24.6080014
  36.4419992 128.5659978  23.4010014  36.1513463 128.6112569  24.2199525
  33.3249992 123.5569978  31.3200014  32.3969992 123.3259978  31.2930014
  33.7759992 122.7799978  30.9900014  33.2588165 123.4202774  31.2716790
  25.8679992 127.8859978  27.4530014  26.3959992 128.6589978  27.2530014
  24.9879992 128.1099978  27.1510014  25.8213435 128.0222700  27.3847310
  21.6229992 122.7479978  22.0400014  22.2389992 123.3749978  22.4200014
  20.7609992 123.0639978  22.3120014  21.5907678 122.8764412  22.1287209
  27.2959992 125.5489978  27.0290014  27.0549992 126.4739978  27.0710014
  26.5549992 125.0899978  27.4260014  27.1629206 125.6135915  27.0883769
  27.8099992 129.6979978  33.3440014  28.1729992 130.5519978  33.1110014
  28.3419992 129.4059978  34.0850014  27.9315141 129.7753895  33.4122097
  25.9789992 130.5699978  26.5750014  25.0289992 130.6759978  26.6260014
  26.3309992 131.3909978  26.9190014  25.8965472 130.6954923  26.6284852
  31.3539992 125.7969978  33.0450014  30.9289992 125.5689978  33.8710014
  31.9349992 125.0579978  32.8630014  31.3743395 125.6659545  33.1334414
  33.5569992 126.7259978  22.1190014  33.9109992 126.3459978  22.9230014
  32.6089992 126.6319978  22.2060014  33.4772298 126.6612452  22.2408687
  34.0129992 130.3489978  35.5140014  33.4109992 129.7929978  35.0190014
  34.2939992 131.0159978  34.8880014  33.9685757 130.3630744  35.3615675
  38.0609992 131.2049978  22.3200014  38.8049992 131.7909978  22.1800014
  37.3669992 131.7739978  22.6530014  38.0689809 131.3620818  22.3458590
  22.1349992 117.5819978  34.9220014  21.2429992 117.9199978  34.8540014
  22.0369992 116.7259978  35.3400014  21.9994475 117.5126543  34.9691704
  34.4229992 125.3979978  24.3460014  34.1459992 124.6699978  24.9020014
  35.3509992 125.5169978  24.5510014  34.5104499 125.3144213  24.4498044
  21.7869992 129.3859978  33.3570014  22.0039992 128.4539978  33.3260014
  22.0329992 129.6609978  34.2400014  21.8499809 129.2955686  33.4721691
  27.6479992 127.8379978  20.5660014  27.8869992 127.0889978  20.0190014
  27.3789992 127.4499978  21.3990014  27.6443233 127.6831853  20.6037809
  26.5849992 127.4079978  23.0220014  26.7319992 126.8879978  23.8120014
  26.5819992 128.3149978  23.3290014  26.6047102 127.4593953  23.1715925
  23.0379992 124.6599978  23.5330014  22.3519992 125.0129978  24.1000014
  23.5609992 125.4229978  23.2860014  23.0148402 124.8113901  23.5771801
  30.8699992 117.3229978  33.8120014  31.5689992 117.3969978  34.4620014
  30.4889992 116.4579978  33.9660014  30.9142097 117.2162389  33.9217997
  31.6539992 116.9749978  24.9090014  31.8739992 117.4459978  24.1050014
  32.2129992 117.3689978  25.5790014  31.7596731 117.0927287  24.8895033
  29.3229992 129.1049978  23.7720014  28.5059992 129.6019978  23.8240014
  29.8519992 129.5809978  23.1310014  29.2828125 129.2371989  23.6925306
  28.8539992 118.7029978  25.7440014  29.6659992 119.2069978  25.7900014
  28.6099992 118.5579978  26.6580014  28.9321467 118.7523749  25.8738575
  29.3899992 119.6889978  34.9280014  29.5089992 120.2629978  35.6850014
  30.0449992 119.0009978  35.0430014  29.4948684 119.6745194  35.0471674
  29.7379992 115.7839978  26.6820014  29.3909992 116.4009978  27.3260014
  30.3969992 116.2849978  26.2000014  29.7795090 115.9361575  26.7050681
  26.6609992 130.1489978  23.7530014  26.8219992 130.9489978  23.2530014
  26.4639992 130.4559978  24.6380014  26.6563906 130.2998678  23.8042333
  25.3959992 116.8469978  23.3690014  25.3119992 117.7349978  23.7160014
  26.2859992 116.5819978  23.6010014  25.5048163 116.9327179  23.4478596
  35.5939992 117.5959978  35.7630014  34.6779992 117.8579978  35.6760014
  35.9299992 117.5929978  34.8670014  35.5138499 117.6315163  35.6298766
  34.1969992 121.3459978  29.8590014  33.3989992 120.9309978  29.5310014
  34.6419992 120.6559978  30.3500014  34.1479684 121.1958628  29.8805227
  23.6539992 127.2739978  22.4290014  24.2459992 127.9739978  22.7060014
  24.1129992 126.8409978  21.7100014  23.7971652 127.3112675  22.3696533
  21.9699992 119.9389978  21.5450014  21.9249992 120.8779978  21.7240014
  21.0819992 119.7029978  21.2760014  21.8438166 120.0356687  21.5331524
  35.2829992 130.6019978  31.4810014  35.1269992 131.2809978  30.8240014
  36.2159992 130.6739978  31.6840014  35.3877387 130.7046390  31.4185342
  22.7779992 114.7199978  30.2190014  22.5489992 114.7789978  29.2910014
  22.3359992 113.9289978  30.5250014  22.6868801 114.6210540  30.1334729
  21.7089992 128.6609978  26.3790014  20.8759992 129.1329978  26.4060014
  22.2539992 129.1709978  25.7800014  21.6687857 128.7944791  26.3017142
  20.9969992 131.2729978  37.7090014  21.5369992 131.0569978  38.4690014
  20.5159992 130.4679978  37.5190014  21.0059219 131.1345156  37.7874282
  25.5939992 130.1929978  39.3290014  26.3619992 129.7339978  39.6700014
  25.5729992 129.9669978  38.3990014  25.6962135 130.0996668  39.2499491
  29.6859992 129.7009978  20.7050014  29.0419992 129.0699978  21.0260014
  30.4479992 129.1699978  20.4730014  29.7008058 129.5427902  20.7176038
  32.1709992 128.5729978  38.0580014  31.8199992 127.7159978  38.3020014
  32.8969992 128.7149978  38.6650014  32.2211895 128.4751351  38.1733770
  34.2909992 129.5179978  20.9380014  34.5739992 128.7229978  21.3910014
  35.0299992 129.7509978  20.3770014  34.4297096 129.4407049  20.9241104
  20.9039992 125.0839978  38.6630014  21.0479992 124.1819978  38.3770014
  20.1319992 125.3699978  38.1760014  20.8192733 124.9991798  38.5579532
  25.2449992 125.4269978  20.7960014  25.3099992 124.6329978  21.3260014
  25.8979992 125.3089978  20.1060014  25.3421605 125.3023430  20.7752997
  27.5589992 125.0529978  38.0960014  27.2309992 125.3239978  37.2390014
  27.7109992 124.1119978  38.0080014  27.5346412 124.9629046  37.9667822
  30.5979992 126.4739978  20.5320014  30.3289992 126.6549978  21.4320014
  30.3909992 125.5489978  20.4000014  30.5331191 126.3737119  20.6375524
  33.2939992 124.9689978  35.4790014  34.0389992 125.5579978  35.3600014
  32.5369992 125.5509978  35.5430014  33.2935470 125.1282128  35.4713799
  21.7369992 122.2839978  38.0830014  22.1449992 121.4269978  37.9620014
  21.4759992 122.2979978  39.0040014  21.7576016 122.1685119  38.1909192
  26.3949992 123.3999978  23.1020014  25.9349992 122.9159978  23.7870014
  26.6499992 122.7309978  22.4660014  26.3664856 123.2433669  23.1098397
  25.6839992 121.2929978  35.4580014  25.0649992 121.9669978  35.7380014
  26.0279992 121.6139978  34.6240014  25.6457123 121.4286887  35.3836388
  27.4659992 121.6429978  21.3640014  27.2849992 121.4879978  20.4370014
  28.4159992 121.7509978  21.4090014  27.5696566 121.6363669  21.2430929
  30.7029992 123.7639978  38.7350014  31.6569992 123.8479978  38.7080014
  30.5429992 123.0519978  39.3550014  30.8117182 123.6792842  38.8150733
  36.8559992 123.9969978  20.8100014  36.5819992 123.5729978  19.9970014
  36.8949992 124.9289978  20.5930014  36.8237716 124.0648827  20.6694286
  26.0229992 118.6479978  36.5400014  26.1729992 117.9189978  35.9380014
  26.0249992 119.4249978  35.9810014  26.0437967 118.6532708  36.3820541
  26.4359992 117.0169978  34.0330014  26.9709992 117.4689978  33.3810014
  25.5829992 116.9089978  33.6100014  26.3940374 117.0642665  33.8866710
  28.0169992 122.4569978  34.2720014  28.7679992 122.3009978  33.6990014
  27.6779992 123.3089978  33.9970014  28.0739587 122.5508138  34.1564078
  32.4329992 120.2719978  39.3010014  32.6249992 119.3409978  39.1890014
  33.2909992 120.6969978  39.2900014  32.5752182 120.2020070  39.2841862
  33.7499992 123.0609978  37.3780014  33.4679992 123.7699978  36.8000014
  34.6919992 122.9879978  37.2270014  33.8387921 123.1482193  37.2784225
  24.5019992 119.8459978  38.4510014  23.7339992 119.3129978  38.2410014
  25.1799992 119.5359978  37.8520014  24.4887235 119.7311754  38.3412413
  27.2409992 114.4739978  34.4640014  27.1429992 115.4199978  34.3590014
  26.4989992 114.1009978  33.9880014  27.1272534 114.5531773  34.3852600
  28.5049992 118.7949978  38.0280014  28.2699992 118.5759978  38.9290014
  27.7219992 118.5879978  37.5180014  28.3669095 118.7369892  38.0825353
  31.2209992 117.9229978  37.1030014  30.2729992 117.9549978  37.2350014
  31.5329992 117.2969978  37.7570014  31.1335293 117.8427923  37.2094148
  32.8549992 116.5569978  39.1080014  32.7579992 115.6049978  39.1030014
  32.5329992 116.8249978  39.9690014  32.7982468 116.4630884  39.2236210
  22.6819992 117.7659978  38.1560014  22.8939992 117.0599978  37.5460014
  22.5709992 117.3289978  39.0000014  22.6960269 117.6101921  38.1865873
  27.4629992 113.7679978  37.1350014  28.1749992 113.1279978  37.1210014
  27.3619992 114.0339978  36.2220014  27.5467387 113.7164330  37.0095563
  27.8169992 115.4499978  39.1890014  27.6849992 114.9749978  38.3690014
  27.2169992 116.1949978  39.1340014  27.7179070 115.4855789  39.0693251
  27.3629992 132.3329978  22.3650014  28.2959992 132.4909978  22.5090014
  27.0989992 133.0089978  21.7400014  27.4549911 132.4459373  22.3002722
  20.9309992 126.9699978  21.8480014  21.8449992 127.0489978  22.1210014
  20.9389992 126.2829978  21.1820014  21.0570655 126.8879205  21.7952917
  19.5799992 132.3629978  26.9250014  18.9329992 131.9009978  26.3930014
  19.9349992 131.6909978  27.5080014  19.5393741 132.2089774  26.9309175
  20.4499992 130.4429978  28.7300014  20.1159992 129.5629978  28.9020014
  20.6729992 130.7889978  29.5950014  20.4343721 130.3691938  28.8704168
  37.9989992 131.2529978  31.7110014  37.9769992 131.4379978  32.6500014
  38.6889992 131.8209978  31.3700014  38.0893439 131.3551887  31.7934791
  37.5619992 130.8199978  34.6320014  37.0749992 130.0849978  34.2610014
  38.1109992 130.4259978  35.3100014  37.5695247 130.6661057  34.6728461
  36.0129992 126.6099978  39.2710014  35.1469992 126.5049978  39.6650014
  36.3889992 127.3679978  39.7170014  35.9453401 126.6981708  39.3852620
  37.3139992 124.8659978  24.7850014  38.1639992 125.2869978  24.9120014
  37.3189992 124.1259978  25.3920014  37.4311143 124.8236094  24.8844750
  37.7079992 122.9199978  26.6080014  36.9819992 122.4399978  27.0060014
  38.2899992 123.1249978  27.3410014  37.6872730 122.8820184  26.7614149
  37.4669992 125.7049978  31.5560014  38.3009992 125.3269978  31.2750014
  37.5789992 126.6479978  31.4370014  37.5961917 125.7807943  31.5014861
  35.9539992 128.5829978  33.8630014  35.3059992 128.9079978  34.4880014
  35.4359992 128.1419978  33.1890014  35.7954196 128.5678651  33.8574152
  37.9769992 122.8209978  22.9990014  37.4549992 123.1769978  22.2810014
  37.9439992 123.4959978  23.6780014  37.9010129 122.9609598  22.9923355
  36.3259992 120.0599978  21.5500014  36.4219992 120.7269978  20.8700014
  36.1859992 119.2449978  21.0690014  36.3202040 120.0410671  21.3918378
  35.4949992 121.4409978  27.1710014  35.3449992 120.4959978  27.1510014
  35.1409992 121.7219978  28.0150014  35.4266351 121.3496644  27.2823220
  20.5299992 123.5189978  31.1820014  20.7149992 123.4369978  30.2460014
  21.3799992 123.3949978  31.6050014  20.6700928 123.4910463  31.1112893
  36.3509992 123.4109978  36.8100014  36.9339992 122.6759978  37.0020014
  36.9149992 124.1829978  36.8570014  36.5069781 123.4148145  36.8426164
  37.8479992 121.3139978  37.4950014  36.9849992 120.9349978  37.3290014
  38.4519992 120.5749978  37.4200014  37.8116085 121.1623223  37.4621695
  35.5729992 117.4679978  20.6680014  36.1839992 117.0969978  21.3050014
  34.7359992 117.0469978  20.8640014  35.5434947 117.3602756  20.7817252
  35.2059992 119.0229978  25.6340014  35.4849992 118.1159978  25.7580014
  35.9649992 119.4569978  25.2450014  35.3468619 118.9574502  25.5983795
  35.8169992 119.6049978  31.0700014  36.7499992 119.8169978  31.0350014
  35.5819992 119.7059978  31.9920014  35.9129517 119.6476833  31.1899130
  35.8469992 120.3419978  33.8460014  35.0039992 120.6099978  34.2120014
  36.2889992 121.1639978  33.6350014  35.7914138 120.4898273  33.8675518
  20.1279992 118.7889978  37.3220014  21.0469992 118.6669978  37.5590014
  19.6779992 118.0389978  37.7120014  20.1930087 118.6709608  37.4071410
  38.1299992 114.3219978  39.1990014  38.4789992 113.6679978  38.5940014
  38.2769992 115.1589978  38.7590014  38.1976824 114.3456024  39.0566304
  35.8189992 116.2859978  25.6820014  36.0009992 115.8369978  26.5070014
  35.2189992 115.7019978  25.2180014  35.7628187 116.1455552  25.7322739
  21.3489992 117.1019978  30.2140014  21.7939992 116.3099978  30.5160014
  21.8149992 117.8179978  30.6440014  21.4729718 117.0904534  30.3135265
  19.6529992 120.1009978  31.2830014  20.1449992 119.8799978  30.4920014
  20.0149992 120.9409978  31.5640014  19.7692923 120.1843468  31.2127407
  37.6489992 116.4309978  37.5480014  36.7319992 116.7019978  37.5130014
  37.7719992 115.8959978  36.7640014  37.5399672 116.3957885  37.4371862
  37.6859992 116.3539978  22.2100014  38.0979992 115.6329978  21.7350014
  38.3669992 117.0229978  22.2680014  37.8345536 116.3457766  22.1528024
  19.9669992 116.3589978  25.3370014  19.0419992 116.5669978  25.2080014
  20.4209992 116.8429978  24.6470014  19.9016298 116.4529299  25.2260451
  34.7369992 131.3429978  27.2830014  35.3899992 130.9949978  26.6750014
  35.2479992 131.8309978  27.9290014  34.8952777 131.3613815  27.2872047
  19.9299992 115.0969978  33.6810014  19.2649992 114.8509978  34.3240014
  19.4869992 115.7189978  33.1040014  19.7791168 115.1474214  33.6909848
  22.1219992 128.2719978  37.8260014  21.3009992 128.4469978  37.3650014
  21.8699992 128.1989978  38.7460014  21.9755594 128.2860717  37.8873611
  25.0759992 129.2459978  34.0840014  24.6519992 130.0559978  33.8020014
  25.9809992 129.3319978  33.7820014  25.1402138 129.3684160  34.0046415
  29.3879992 130.6449978  37.0440014  29.5719992 130.3119978  37.9220014
  30.2339992 130.9549978  36.7220014  29.5276484 130.6412979  37.1207617
  31.7329992 131.9309978  36.2880014  32.4099992 131.2979978  36.0480014
  32.0539992 132.3319978  37.0950014  31.8691323 131.8985691  36.3643158
  36.6499992 114.5209978  35.3670014  35.8369992 114.8459978  34.9800014
  36.8829992 113.7599978  34.8340014  36.5701347 114.4626880  35.2419841
  22.4779992 132.5029978  34.1320014  21.7579992 132.9429978  33.6810014
  22.1129992 132.2519978  34.9800014  22.3299643 132.5293369  34.1849129
  24.9449992 132.1029978  33.1620014  24.0809992 132.1749978  33.5660014
  24.8899992 132.6499978  32.3780014  24.8191942 132.1867849  33.1114000
  29.6559992 131.9909978  32.3370014  29.1989992 132.5199978  31.6830014
  29.8189992 132.5939978  33.0620014  29.6154960 132.1449280  32.3455274
  31.9839992 130.8689978  33.2820014  31.0789992 131.0339978  33.0160014
  32.4119992 131.7219978  33.2160014  31.9181537 131.0069134  33.2367095
  34.5879992 132.4389978  33.5770014  34.4059992 133.3549978  33.3660014
  34.7649992 132.0279978  32.7300014  34.5870030 132.5088273  33.4337166
  21.8929992 131.1259978  31.0420014  21.8749992 130.6999978  31.8990014
  22.6979992 130.8069978  30.6330014  21.9992875 131.0246435  31.1039515
  24.0339992 129.8359978  29.6970014  23.8149992 128.9189978  29.8670014
  24.8579992 129.9759978  30.1630014  24.1154702 129.7295511  29.7832527
  26.5709992 130.3059978  30.5460014  26.7839992 129.4179978  30.2590014
  26.6359992 130.2709978  31.5000014  26.6089149 130.1798326  30.6357369
  30.0799992 115.9699978  29.6900014  29.4059992 115.3399978  29.9460014
  30.6439992 115.4859978  29.0870014  30.0640384 115.8183708  29.6435020
  35.2229992 114.0769978  29.8030014  35.8259992 114.6249978  29.3010014
  34.3529992 114.3959978  29.5620014  35.1879157 114.1950373  29.7017910
  36.9499992 115.2159978  28.1360014  37.5609992 114.7019978  27.6090014
  37.3319992 116.0929978  28.1590014  37.0853305 115.2642050  28.0669418
  22.4069992 114.6039978  27.5120014  21.6299992 114.3689978  27.0050014
  22.9369992 113.8069978  27.5210014  22.3723451 114.4641268  27.4438627
  21.2429992 114.4019978  23.3160014  21.6819992 115.0129978  22.7240014
  20.6089992 114.9399978  23.7900014  21.2173859 114.5584064  23.2990305
  26.9859992 114.5299978  27.3250014  27.8599992 114.9189978  27.2960014
  26.8499992 114.3149978  28.2480014  27.0871953 114.5541643  27.4457617
  32.5429992 114.5599978  28.9750014  32.6189992 114.6559978  28.0250014
  32.2679992 113.6529978  29.1030014  32.5161871 114.4504146  28.8623944
  33.8959992 114.5859978  24.6670014  33.1929992 115.2009978  24.4570014
  33.4509992 113.7489978  24.7980014  33.7396550 114.5569668  24.6559837
  21.1439992 130.3499978  24.2130014  20.4589992 130.3119978  23.5460014
  21.1479992 131.2629978  24.5010014  21.0507621 130.4681924  24.1606126
  23.1039992 116.3179978  21.7580014  23.5949992 115.6879978  21.2310014
  23.7269992 116.6139978  22.4210014  23.2555304 116.2717376  21.7754940
  28.1299992 116.6109978  24.2150014  28.3079992 115.9639978  24.8980014
  28.0759992 117.4449978  24.6820014  28.1470678 116.6351604  24.3716301
  30.0079992 131.5589978  22.6110014  30.8739992 131.9259978  22.4330014
  29.7619992 131.1199978  21.7970014  30.0932097 131.5498525  22.4766019
  36.7169992 131.1219978  25.2900014  36.5229992 130.3739978  24.7250014
  36.6779992 131.8799978  24.7070014  36.6851645 131.1220786  25.1338148
  22.3639992 115.1179978  37.0300014  21.9979992 114.3519978  37.4720014
  23.2769992 115.1469978  37.3160014  22.4373172 115.0170324  37.1291890
  24.3369992 114.4679978  38.5650014  25.2359992 114.1939978  38.3810014
  23.9509992 113.7259978  39.0300014  24.4077307 114.3302196  38.6027098
  22.9619992 131.2699978  21.2380014  22.6939992 131.5559978  22.1120014
  23.7329992 130.7239978  21.3910014  23.0295926 131.2352779  21.3781205
  32.7589992 113.8009978  38.7480014  32.8349992 113.3749978  39.6010014
  33.6519992 113.8139978  38.4050014  32.8902303 113.7443493  38.8185497
  35.9349992 129.8739978  37.4400014  35.1529992 129.6869978  36.9200014
  35.8629992 130.8029978  37.6570014  35.8181924 129.9740637  37.3981602
  50.3409992 123.7599978  27.4710014  50.4299992 124.7039978  27.3390014
  49.7029992 123.4849978  26.8130014  50.2669062 123.8519812  27.3639641
  49.2739992 123.0149978  30.8900014  49.2359992 122.3689978  31.5950014
  48.9519992 122.5479978  30.1190014  49.2252679 122.8634276  30.8822921
  41.6419992 122.6289978  32.4830014  41.6839992 122.0039978  33.2060014
  42.3449992 123.2529978  32.6650014  41.7427345 122.6277873  32.6065274
  52.9799992 125.9539978  29.1910014  52.5389992 125.2339978  29.6420014
  52.9669992 126.6749978  29.8210014  52.9179215 125.9529291  29.3378105
  42.5659992 127.0789978  31.0180014  42.1959992 126.2769978  30.6480014
  43.5069992 126.9109978  31.0640014  42.6425984 126.9464638  30.9735603
  39.1759992 120.7389978  26.4100014  38.7279992 121.5849978  26.3920014
  38.6149992 120.1599978  25.8950014  39.0388546 120.7763993  26.3378891
  39.8859992 122.9009978  28.5360014  40.0999992 122.1309978  29.0640014
  40.6239992 122.9909978  27.9330014  40.0150200 122.8078587  28.5267035
  50.0919992 131.0579978  29.4030014  50.7109992 130.3819978  29.1300014
  49.8829992 130.8399978  30.3120014  50.1486056 130.9358869  29.4883967
  47.6629992 125.4469978  31.2960014  47.9669992 124.7609978  30.7010014
  48.3849992 125.5659978  31.9140014  47.8021240 125.3692314  31.2980959
  56.3259992 117.0489978  32.1560014  56.3759992 117.6589978  32.8920014
  56.7519992 117.5099978  31.4330014  56.3904108 117.1947709  32.1590112
  50.8039992 119.8409978  31.6230014  50.9469992 118.8949978  31.6430014
  50.6979992 120.0479978  30.6950014  50.8092403 119.7394797  31.5002239
  43.9589992 117.9429978  28.8960014  44.0019992 118.8029978  28.4770014
  43.5009992 117.3909978  28.2620014  43.9029871 117.9859245  28.7530761
  51.6809992 118.0739978  27.2970014  52.3279992 117.7449978  27.9210014
  52.1909992 118.5909978  26.6740014  51.8384351 118.0989067  27.2981037
  40.5789992 120.3399978  29.6580014  41.2329992 119.7899978  30.0900014
  40.6029992 120.0659978  28.7410014  40.6717199 120.2277167  29.5931668
  45.7359992 121.8899978  28.8730014  46.3519992 121.3629978  29.3820014
  45.1489992 121.2499978  28.4690014  45.7410154 121.7313954  28.8880945
  56.7179992 118.5269978  34.3920014  56.0289992 119.1849978  34.2970014
  56.7329992 118.3289978  35.3290014  56.6257756 118.5902603  34.5055812
  42.7689992 116.8609978  32.9700014  42.5499992 117.3909978  32.2030014
  42.1009992 117.0869978  33.6170014  42.6486975 116.9640967  32.9525140
  50.1379992 126.3609978  26.5140014  49.8429992 126.0379978  25.6620014
  49.8139992 127.2609978  26.5550014  50.0538460 126.4384464  26.4029714
  45.3379992 124.5359978  33.2570014  44.5979992 125.1349978  33.3610014
  46.0519992 125.0899978  32.9420014  45.3333500 124.6927829  33.2286371
  53.4449992 117.3649978  29.2770014  53.2299992 116.5989978  29.8100014
  54.1009992 117.8369978  29.7900014  53.5042673 117.3240728  29.4191990
  42.3629992 118.7529978  30.9220014  42.9769992 119.3859978  31.2950014
  42.8749992 118.2809978  30.2660014  42.5161962 118.7757249  30.8842935
  43.7459992 126.5009978  34.0440014  43.7399992 127.3799978  33.6660014
  42.8919992 126.4169978  34.4690014  43.6297925 126.6099535  34.0496887
  39.8669992 126.1719978  24.8260014  39.5949992 126.4009978  23.9380014
  39.9119992 127.0089978  25.2870014  39.8358097 126.3166163  24.7666683
  53.4919992 127.7929978  31.5390014  52.5499992 127.8519978  31.7010014
  53.7679992 128.6989978  31.4020014  53.4005865 127.9235288  31.5426192
  53.7919992 116.0799978  32.9560014  53.0559992 116.6899978  32.9190014
  54.4759992 116.4949978  32.4300014  53.7835367 116.2197551  32.8798174
  46.7959992 114.1659978  30.4220014  46.6779992 113.2179978  30.3680014
  45.9409992 114.4989978  30.6950014  46.6642805 114.0812202  30.4515079
  51.7439992 129.5739978  28.1640014  52.1689992 128.8669978  27.6790014
  52.0609992 130.3759978  27.7470014  51.8450266 129.5855190  28.0412479
  52.9039992 127.4749978  26.6730014  52.6459992 126.7849978  26.0610014
  52.9749992 127.0319978  27.5180014  52.8783050 127.3206814  26.7035621
  54.5899992 126.0419978  35.1500014  54.7289992 125.4499978  34.4110014
  54.7569992 126.9149978  34.7940014  54.6316193 126.0788896  35.0006211
  49.0619992 123.0039978  24.9230014  48.3509992 123.5389978  24.5710014
  49.7529992 123.0589978  24.2630014  49.0580751 123.0846777  24.7855858
  49.1159992 121.4609978  21.9610014  49.8169992 121.4839978  22.6130014
  49.4179992 120.8329978  21.3050014  49.2528202 121.3792212  21.9615609
  56.4309992 122.3819978  33.2160014  55.7789992 123.0759978  33.3050014
  56.8969992 122.5919978  32.4060014  56.4045937 122.5055019  33.1187533
  52.4679992 123.2129978  25.8740014  51.7359992 123.4419978  26.4480014
  52.9149992 122.4999978  26.3290014  52.4283963 123.1478729  26.0139945
  52.3649992 121.3879978  34.9420014  52.4449992 122.1509978  35.5140014
  51.7639992 121.6669978  34.2520014  52.2946547 121.5302457  34.9270047
  44.1129992 123.8439978  27.7570014  43.7829992 123.4729978  26.9390014
  44.7019992 123.1729978  28.1040014  44.1473970 123.7026063  27.6919404
  45.4799992 127.2719978  30.4380014  45.3849992 126.6929978  29.6820014
  46.2089992 126.9009978  30.9340014  45.5656011 127.1425561  30.4016028
  44.4799992 122.6119978  31.3900014  45.0449992 122.7339978  30.6280014
  44.7989992 123.2499978  32.0290014  44.6004166 122.7148791  31.3720348
  50.7889992 128.1159978  32.1240014  50.5489992 128.7779978  32.7720014
  50.5909992 127.2809978  32.5490014  50.7293826 128.0938115  32.2701566
  45.3599992 127.0119978  36.1080014  45.0489992 127.7939978  36.5630014
  44.7099992 126.8589978  35.4220014  45.2295538 127.0984087  36.0775898
  51.3389992 122.3759978  23.5600014  51.9179992 122.5259978  24.3060014
  51.7529992 122.8459978  22.8360014  51.4743358 122.4600955  23.5643953
  42.2799992 123.2099978  35.3360014  42.3499992 123.8609978  36.0350014
  41.3889992 123.3129978  35.0010014  42.1691690 123.3129249  35.3863043
  49.0649992 129.1119978  26.9950014  49.5389992 129.4079978  27.7720014
  48.5019992 129.8509978  26.7620014  49.0537890 129.2523036  27.0698101
  43.5989992 129.0829978  36.8710014  43.6069992 128.9469978  35.9240014
  42.6829992 128.9659978  37.1230014  43.4762528 129.0485463  36.7753243
  55.0379992 114.1259978  23.3730014  54.1379992 114.2649978  23.6680014
  55.2899992 114.9569978  22.9710014  54.9488683 114.2574055  23.3590232
  43.1039992 122.9129978  25.3460014  42.8119992 123.6809978  24.8550014
  42.4289992 122.2539978  25.1830014  42.9728497 122.9289745  25.2568260
  56.2269992 128.4919978  21.7490014  56.2999992 129.4309978  21.9190014
  57.1319992 128.1869978  21.6930014  56.3594170 128.5793282  21.7647063
  39.1969992 125.2759978  34.1610014  38.6949992 125.2479978  33.3460014
  39.2019992 124.3709978  34.4710014  39.1289832 125.1497486  34.0914121
  38.9469992 128.0569978  31.0450014  39.8929992 127.9119978  31.0260014
  38.8339992 128.8409978  31.5820014  39.0613578 128.1431697  31.1150317
  57.1449992 128.7229978  36.7280014  57.0949992 127.7669978  36.6900014
  56.3179992 128.9899978  37.1290014  57.0263831 128.6284680  36.7770121
  48.1229992 128.2969978  35.6040014  48.2109992 129.1229978  36.0790014
  47.2599992 127.9669978  35.8530014  48.0183357 128.3655468  35.7027653
  48.5379992 132.0689978  25.4100014  48.4619992 131.9479978  24.4630014
  48.5699992 133.0179978  25.5280014  48.5319380 132.1807677  25.2965181
  42.1909992 130.8579978  27.1910014  42.3429992 130.5099978  28.0690014
  41.3399992 130.5009978  26.9350014  42.0968344 130.7620879  27.2766868
  51.6389992 131.2229978  22.4120014  52.0139992 130.4789978  21.9410014
  51.6439992 130.9529978  23.3300014  51.6910098 131.0846392  22.4716629
  51.3079992 131.1489978  25.1610014  50.3729992 131.2489978  25.3400014
  51.5879992 130.4389978  25.7400014  51.2179471 131.0667933  25.2636695
  54.2969992 120.2159978  37.2080014  53.8889992 120.6959978  36.4870014
  54.3369992 119.3099978  36.9000014  54.2466221 120.1592449  37.0678267
  41.4459992 126.5999978  35.2040014  41.6619992 126.2379978  36.0640014
  40.5899992 126.2249978  34.9950014  41.3598810 126.4998837  35.2932680
  44.0639992 115.0699978  31.2000014  43.2029992 114.9829978  30.7920014
  44.0419992 115.9259978  31.6280014  43.9430491 115.1738003  31.2019582
  48.7269992 114.7919978  34.5750014  49.1469992 114.3769978  35.3280014
  47.7939992 114.6129978  34.6920014  48.6583736 114.7109910  34.6938968
  52.0539992 118.5469978  35.4280014  51.5399992 118.4219978  36.2260014
  51.8979992 119.4599978  35.1840014  51.9626967 118.6532123  35.5040937
  52.8159992 123.4079978  21.1890014  52.8579992 123.1859978  20.2590014
  53.6649992 123.8069978  21.3790014  52.9365253 123.4315498  21.0873822
  48.3889992 117.2839978  21.8600014  48.1349992 117.3029978  22.7820014
  48.1319992 116.4129978  21.5580014  48.3194508 117.1688280  21.9454803
  44.1549992 120.0349978  32.2950014  43.5139992 119.9949978  33.0040014
  44.1929992 120.9619978  32.0570014  44.0723010 120.1547668  32.3599946
  44.1519992 120.2559978  27.2070014  43.2599992 119.9159978  27.1480014
  44.6029992 119.8789978  26.4510014  44.0907642 120.1584910  27.0967726
  49.6879992 120.6719978  26.0240014  49.2789992 121.4869978  25.7320014
  50.4079992 120.5319978  25.4100014  49.7294439 120.7645372  25.9010115
  48.7899992 120.8479978  37.5120014  48.2269992 120.1429978  37.8330014
  49.6159992 120.7269978  37.9800014  48.8246674 120.7352165  37.6191751
  50.6929992 120.1179978  28.8380014  50.4969992 120.7239978  28.1230014
  50.8739992 119.2849978  28.4040014  50.6906584 120.0882513  28.6814212
  41.9049992 120.3559978  34.1620014  41.8669992 120.7559978  35.0310014
  41.4149992 119.5389978  34.2520014  41.8335330 120.3002674  34.2931289
  45.2709992 117.7299978  20.9610014  44.8399992 117.2849978  21.6900014
  44.5529992 118.1009978  20.4480014  45.1149176 117.7192051  20.9914930
  38.5139992 117.4719978  28.0130014  39.1439992 117.4429978  28.7320014
  38.9629992 117.0469978  27.2820014  38.6610835 117.4105660  28.0127659
  39.7879992 118.2179978  23.4370014  40.2619992 118.8089978  22.8520014
  39.0699992 118.7479978  23.7840014  39.7558640 118.3705511  23.4037969
  49.9569992 121.7559978  33.5090014  50.2799992 121.1249978  32.8660014
  49.5159992 121.2219978  34.1700014  49.9416379 121.5973468  33.5102582
  46.7339992 117.6839978  28.2930014  45.8229992 117.7409978  28.5820014
  47.2389992 117.6239978  29.1040014  46.6776873 117.6836826  28.4421207
  41.5619992 119.3129978  27.1200014  40.6729992 119.4119978  26.7800014
  41.8589992 118.4709978  26.7740014  41.4804177 119.2127687  27.0266940
  45.2149992 119.3129978  24.7770014  46.1469992 119.4419978  24.9550014
  44.9999992 119.9819978  24.1270014  45.3134472 119.4210806  24.7134891
  51.1389992 116.9189978  31.5580014  50.4619992 117.0499978  32.2210014
  50.6539992 116.7639978  30.7470014  50.9807405 116.9159947  31.5392170
  43.8889992 120.5069978  22.3430014  43.3469992 120.1279978  21.6520014
  44.7229992 120.7019978  21.9150014  43.9274390 120.4814079  22.1904392
  54.4269992 132.5899978  37.8340014  54.6259992 133.0139978  37.0000014
  55.0819992 132.9339978  38.4410014  54.5428522 132.6946301  37.8017852
  42.0249992 125.0639978  37.4420014  42.7569992 125.3189978  38.0040014
  41.2439992 125.2689978  37.9580014  42.0196526 125.1265450  37.5885176
  48.0539992 120.4709978  30.1800014  48.6179992 119.9249978  29.6330014
  47.9059992 119.9499978  30.9690014  48.1113037 120.3256787  30.2117229
  43.0559992 116.6079978  26.5990014  42.7389992 115.7049978  26.5630014
  43.8369992 116.6099978  26.0460014  43.1182431 116.4847797  26.5193102
  46.6799992 118.8599978  32.5940014  45.8449992 119.3139978  32.7050014
  47.2039992 119.1359978  33.3460014  46.6366072 118.9593948  32.7108136
  47.2249992 125.0729978  24.2790014  46.4799992 124.5649978  23.9570014
  47.0899992 125.1219978  25.2250014  47.1048963 125.0101731  24.3628826
  54.3749992 124.2059978  33.0660014  55.0159992 124.6619978  32.5220014
  53.5439992 124.3189978  32.6030014  54.3505287 124.2836921  32.9289887
  51.1219992 117.8869978  22.4780014  50.1839992 117.9979978  22.3270014
  51.4199992 118.7429978  22.7850014  51.0336318 118.0180158  22.4988145
  48.7439992 125.2569978  35.5160014  48.3979992 124.8749978  36.3230014
  48.5439992 126.1899978  35.5870014  48.6695987 125.3309002  35.6360461
  51.8409992 119.7539978  24.1390014  52.7329992 119.6159978  24.4580014
  51.8969992 120.5449978  23.6020014  51.9707325 119.8419918  24.1101217
  42.3489992 124.3679978  30.0490014  43.0939992 124.3649978  29.4470014
  42.4269992 123.5439978  30.5300014  42.4613365 124.2562384  30.0317430
  49.3499992 126.5309978  23.3040014  49.0549992 127.3579978  23.6860014
  48.6469992 125.9119978  23.5010014  49.2146379 126.5604171  23.3828654
  39.3569992 122.8279978  35.3640014  39.5799992 122.4099978  36.1950014
  38.7549992 122.2159978  34.9410014  39.3061513 122.6879606  35.4206740
  46.3739992 122.3449978  37.5770014  46.0779992 122.1799978  36.6810014
  47.3049992 122.1249978  37.5660014  46.4594401 122.2926879  37.4530206
  50.9939992 127.7189978  35.4660014  50.0939992 127.9019978  35.1990014
  51.0279992 127.9779978  36.3870014  50.8753748 127.7790554  35.5539164
  56.7259992 119.9629978  23.8340014  56.1709992 119.5669978  23.1610014
  56.8259992 120.8739978  23.5560014  56.6636816 120.0319505  23.7045033
  56.6889992 125.7639978  36.6710014  55.8379992 126.0019978  36.3030014
  57.2789992 125.7469978  35.9180014  56.6523812 125.7942524  36.5188453
  55.0209992 128.7489978  24.2990014  54.6479992 127.9239978  24.6080014
  55.2979992 128.5659978  23.4010014  55.0073463 128.6112569  24.2199525
  52.1809992 123.5569978  31.3200014  51.2529992 123.3259978  31.2930014
  52.6319992 122.7799978  30.9900014  52.1148165 123.4202774  31.2716790
  44.7239992 127.8859978  27.4530014  45.2519992 128.6589978  27.2530014
  43.8439992 128.1099978  27.1510014  44.6773435 128.0222700  27.3847310
  40.4789992 122.7479978  22.0400014  41.0949992 123.3749978  22.4200014
  39.6169992 123.0639978  22.3120014  40.4467678 122.8764412  22.1287209
  46.1519992 125.5489978  27.0290014  45.9109992 126.4739978  27.0710014
  45.4109992 125.0899978  27.4260014  46.0189206 125.6135915  27.0883769
  46.6659992 129.6979978  33.3440014  47.0289992 130.5519978  33.1110014
  47.1979992 129.4059978  34.0850014  46.7875141 129.7753895  33.4122097
  44.8349992 130.5699978  26.5750014  43.8849992 130.6759978  26.6260014
  45.1869992 131.3909978  26.9190014  44.7525472 130.6954923  26.6284852
  50.2099992 125.7969978  33.0450014  49.7849992 125.5689978  33.8710014
  50.7909992 125.0579978  32.8630014  50.2303395 125.6659545  33.1334414
  52.4129992 126.7259978  22.1190014  52.7669992 126.3459978  22.9230014
  51.4649992 126.6319978  22.2060014  52.3332298 126.6612452  22.2408687
  52.8689992 130.3489978  35.5140014  52.2669992 129.7929978  35.0190014
  53.1499992 131.0159978  34.8880014  52.8245757 130.3630744  35.3615675
  56.9169992 131.2049978  22.3200014  57.6609992 131.7909978  22.1800014
  56.2229992 131.7739978  22.6530014  56.9249809 131.3620818  22.3458590
  40.9909992 117.5819978  34.9220014  40.0989992 117.9199978  34.8540014
  40.8929992 116.7259978  35.3400014  40.8554475 117.5126543  34.9691704
  53.2789992 125.3979978  24.3460014  53.0019992 124.6699978  24.9020014
  54.2069992 125.5169978  24.5510014  53.3664499 125.3144213  24.4498044
  40.6429992 129.3859978  33.3570014  40.8599992 128.4539978  33.3260014
  40.8889992 129.6609978  34.2400014  40.7059809 129.2955686  33.4721691
  46.5039992 127.8379978  20.5660014  46.7429992 127.0889978  20.0190014
  46.2349992 127.4499978  21.3990014  46.5003233 127.6831853  20.6037809
  45.4409992 127.4079978  23.0220014  45.5879992 126.8879978  23.8120014
  45.4379992 128.3149978  23.3290014  45.4607102 127.4593953  23.1715925
  41.8939992 124.6599978  23.5330014  41.2079992 125.0129978  24.1000014
  42.4169992 125.4229978  23.2860014  41.8708402 124.8113901  23.5771801
  49.7259992 117.3229978  33.8120014  50.4249992 117.3969978  34.4620014
  49.3449992 116.4579978  33.9660014  49.7702097 117.2162389  33.9217997
  50.5099992 116.9749978  24.9090014  50.7299992 117.4459978  24.1050014
  51.0689992 117.3689978  25.5790014  50.6156731 117.0927287  24.8895033
  48.1789992 129.1049978  23.7720014  47.3619992 129.6019978  23.8240014
  48.7079992 129.5809978  23.1310014  48.1388125 129.2371989  23.6925306
  47.7099992 118.7029978  25.7440014  48.5219992 119.2069978  25.7900014
  47.4659992 118.5579978  26.6580014  47.7881467 118.7523749  25.8738575
  48.2459992 119.6889978  34.9280014  48.3649992 120.2629978  35.6850014
  48.9009992 119.0009978  35.0430014  48.3508684 119.6745194  35.0471674
  48.5939992 115.7839978  26.6820014  48.2469992 116.4009978  27.3260014
  49.2529992 116.2849978  26.2000014  48.6355090 115.9361575  26.7050681
  45.5169992 130.1489978  23.7530014  45.6779992 130.9489978  23.2530014
  45.3199992 130.4559978  24.6380014  45.5123906 130.2998678  23.8042333
  44.2519992 116.8469978  23.3690014  44.1679992 117.7349978  23.7160014
  45.1419992 116.5819978  23.6010014  44.3608163 116.9327179  23.4478596
  54.4499992 117.5959978  35.7630014  53.5339992 117.8579978  35.6760014
  54.7859992 117.5929978  34.8670014  54.3698499 117.6315163  35.6298766
  53.0529992 121.3459978  29.8590014  52.2549992 120.9309978  29.5310014
  53.4979992 120.6559978  30.3500014  53.0039684 121.1958628  29.8805227
  42.5099992 127.2739978  22.4290014  43.1019992 127.9739978  22.7060014
  42.9689992 126.8409978  21.7100014  42.6531652 127.3112675  22.3696533
  40.8259992 119.9389978  21.5450014  40.7809992 120.8779978  21.7240014
  39.9379992 119.7029978  21.2760014  40.6998166 120.0356687  21.5331524
  54.1389992 130.6019978  31.4810014  53.9829992 131.2809978  30.8240014
  55.0719992 130.6739978  31.6840014  54.2437387 130.7046390  31.4185342
  41.6339992 114.7199978  30.2190014  41.4049992 114.7789978  29.2910014
  41.1919992 113.9289978  30.5250014  41.5428801 114.6210540  30.1334729
  40.5649992 128.6609978  26.3790014  39.7319992 129.1329978  26.4060014
  41.1099992 129.1709978  25.7800014  40.5247857 128.7944791  26.3017142
  39.8529992 131.2729978  37.7090014  40.3929992 131.0569978  38.4690014
  39.3719992 130.4679978  37.5190014  39.8619219 131.1345156  37.7874282
  44.4499992 130.1929978  39.3290014  45.2179992 129.7339978  39.6700014
  44.4289992 129.9669978  38.3990014  44.5522135 130.0996668  39.2499491
  48.5419992 129.7009978  20.7050014  47.8979992 129.0699978  21.0260014
  49.3039992 129.1699978  20.4730014  48.5568058 129.5427902  20.7176038
  51.0269992 128.5729978  38.0580014  50.6759992 127.7159978  38.3020014
  51.7529992 128.7149978  38.6650014  51.0771895 128.4751351  38.1733770
  53.1469992 129.5179978  20.9380014  53.4299992 128.7229978  21.3910014
  53.8859992 129.7509978  20.3770014  53.2857096 129.4407049  20.9241104
  39.7599992 125.0839978  38.6630014  39.9039992 124.1819978  38.3770014
  38.9879992 125.3699978  38.1760014  39.6752733 124.9991798  38.5579532
  44.1009992 125.4269978  20.7960014  44.1659992 124.6329978  21.3260014
  44.7539992 125.3089978  20.1060014  44.1981605 125.3023430  20.7752997
  46.4149992 125.0529978  38.0960014  46.0869992 125.3239978  37.2390014
  46.5669992 124.1119978  38.0080014  46.3906412 124.9629046  37.9667822
  49.4539992 126.4739978  20.5320014  49.1849992 126.6549978  21.4320014
  49.2469992 125.5489978  20.4000014  49.3891191 126.3737119  20.6375524
  52.1499992 124.9689978  35.4790014  52.8949992 125.5579978  35.3600014
  51.3929992 125.5509978  35.5430014  52.1495470 125.1282128  35.4713799
  40.5929992 122.2839978  38.0830014  41.0009992 121.4269978  37.9620014
  40.3319992 122.2979978  39.0040014  40.6136016 122.1685119  38.1909192
  45.2509992 123.3999978  23.1020014  44.7909992 122.9159978  23.7870014
  45.5059992 122.7309978  22.4660014  45.2224856 123.2433669  23.1098397
  44.5399992 121.2929978  35.4580014  43.9209992 121.9669978  35.7380014
  44.8839992 121.6139978  34.6240014  44.5017123 121.4286887  35.3836388
  46.3219992 121.6429978  21.3640014  46.1409992 121.4879978  20.4370014
  47.2719992 121.7509978  21.4090014  46.4256566 121.6363669  21.2430929
  49.5589992 123.7639978  38.7350014  50.5129992 123.8479978  38.7080014
  49.3989992 123.0519978  39.3550014  49.6677182 123.6792842  38.8150733
  55.7119992 123.9969978  20.8100014  55.4379992 123.5729978  19.9970014
  55.7509992 124.9289978  20.5930014  55.6797716 124.0648827  20.6694286
  44.8789992 118.6479978  36.5400014  45.0289992 117.9189978  35.9380014
  44.8809992 119.4249978  35.9810014  44.8997967 118.6532708  36.3820541
  45.2919992 117.0169978  34.0330014  45.8269992 117.4689978  33.3810014
  44.4389992 116.9089978  33.6100014  45.2500374 117.0642665  33.8866710
  46.8729992 122.4569978  34.2720014  47.6239992 122.3009978  33.6990014
  46.5339992 123.3089978  33.9970014  46.9299587 122.5508138  34.1564078
  51.2889992 120.2719978  39.3010014  51.4809992 119.3409978  39.1890014
  52.1469992 120.6969978  39.2900014  51.4312182 120.2020070  39.2841862
  52.6059992 123.0609978  37.3780014  52.3239992 123.7699978  36.8000014
  53.5479992 122.9879978  37.2270014  52.6947921 123.1482193  37.2784225
  43.3579992 119.8459978  38.4510014  42.5899992 119.3129978  38.2410014
  44.0359992 119.5359978  37.8520014  43.3447235 119.7311754  38.3412413
  46.0969992 114.4739978  34.4640014  45.9989992 115.4199978  34.3590014
  45.3549992 114.1009978  33.9880014  45.9832534 114.5531773  34.3852600
  47.3609992 118.7949978  38.0280014  47.1259992 118.5759978  38.9290014
  46.5779992 118.5879978  37.5180014  47.2229095 118.7369892  38.0825353
  50.0769992 117.9229978  37.1030014  49.1289992 117.9549978  37.2350014
  50.3889992 117.2969978  37.7570014  49.9895293 117.8427923  37.2094148
  51.7109992 116.5569978  39.1080014  51.6139992 115.6049978  39.1030014
  51.3889992 116.8249978  39.9690014  51.6542468 116.4630884  39.2236210
  41.5379992 117.7659978  38.1560014  41.7499992 117.0599978  37.5460014
  41.4269992 117.3289978  39.0000014  41.5520269 117.6101921  38.1865873
  46.3189992 113.7679978  37.1350014  47.0309992 113.1279978  37.1210014
  46.2179992 114.0339978  36.2220014  46.4027387 113.7164330  37.0095563
  46.6729992 115.4499978  39.1890014  46.5409992 114.9749978  38.3690014
  46.0729992 116.1949978  39.1340014  46.5739070 115.4855789  39.0693251
  46.2189992 132.3329978  22.3650014  47.1519992 132.4909978  22.5090014
  45.9549992 133.0089978  21.7400014  46.3109911 132.4459373  22.3002722
  39.7869992 126.9699978  21.8480014  40.7009992 127.0489978  22.1210014
  39.7949992 126.2829978  21.1820014  39.9130655 126.8879205  21.7952917
  38.4359992 132.3629978  26.9250014  37.7889992 131.9009978  26.3930014
  38.7909992 131.6909978  27.5080014  38.3953741 132.2089774  26.9309175
  39.3059992 130.4429978  28.7300014  38.9719992 129.5629978  28.9020014
  39.5289992 130.7889978  29.5950014  39.2903721 130.3691938  28.8704168
  56.8549992 131.2529978  31.7110014  56.8329992 131.4379978  32.6500014
  57.5449992 131.8209978  31.3700014  56.9453439 131.3551887  31.7934791
  56.4179992 130.8199978  34.6320014  55.9309992 130.0849978  34.2610014
  56.9669992 130.4259978  35.3100014  56.4255247 130.6661057  34.6728461
  54.8689992 126.6099978  39.2710014  54.0029992 126.5049978  39.6650014
  55.2449992 127.3679978  39.7170014  54.8013401 126.6981708  39.3852620
  56.1699992 124.8659978  24.7850014  57.0199992 125.2869978  24.9120014
  56.1749992 124.1259978  25.3920014  56.2871143 124.8236094  24.8844750
  56.5639992 122.9199978  26.6080014  55.8379992 122.4399978  27.0060014
  57.1459992 123.1249978  27.3410014  56.5432730 122.8820184  26.7614149
  56.3229992 125.7049978  31.5560014  57.1569992 125.3269978  31.2750014
  56.4349992 126.6479978  31.4370014  56.4521917 125.7807943  31.5014861
  54.8099992 128.5829978  33.8630014  54.1619992 128.9079978  34.4880014
  54.2919992 128.1419978  33.1890014  54.6514196 128.5678651  33.8574152
  56.8329992 122.8209978  22.9990014  56.3109992 123.1769978  22.2810014
  56.7999992 123.4959978  23.6780014  56.7570129 122.9609598  22.9923355
  55.1819992 120.0599978  21.5500014  55.2779992 120.7269978  20.8700014
  55.0419992 119.2449978  21.0690014  55.1762040 120.0410671  21.3918378
  54.3509992 121.4409978  27.1710014  54.2009992 120.4959978  27.1510014
  53.9969992 121.7219978  28.0150014  54.2826351 121.3496644  27.2823220
  39.3859992 123.5189978  31.1820014  39.5709992 123.4369978  30.2460014
  40.2359992 123.3949978  31.6050014  39.5260928 123.4910463  31.1112893
  55.2069992 123.4109978  36.8100014  55.7899992 122.6759978  37.0020014
  55.7709992 124.1829978  36.8570014  55.3629781 123.4148145  36.8426164
  56.7039992 121.3139978  37.4950014  55.8409992 120.9349978  37.3290014
  57.3079992 120.5749978  37.4200014  56.6676085 121.1623223  37.4621695
  54.4289992 117.4679978  20.6680014  55.0399992 117.0969978  21.3050014
  53.5919992 117.0469978  20.8640014  54.3994947 117.3602756  20.7817252
  54.0619992 119.0229978  25.6340014  54.3409992 118.1159978  25.7580014
  54.8209992 119.4569978  25.2450014  54.2028619 118.9574502  25.5983795
  54.6729992 119.6049978  31.0700014  55.6059992 119.8169978  31.0350014
  54.4379992 119.7059978  31.9920014  54.7689517 119.6476833  31.1899130
  54.7029992 120.3419978  33.8460014  53.8599992 120.6099978  34.2120014
  55.1449992 121.1639978  33.6350014  54.6474138 120.4898273  33.8675518
  38.9839992 118.7889978  37.3220014  39.9029992 118.6669978  37.5590014
  38.5339992 118.0389978  37.7120014  39.0490087 118.6709608  37.4071410
  56.9859992 114.3219978  39.1990014  57.3349992 113.6679978  38.5940014
  57.1329992 115.1589978  38.7590014  57.0536824 114.3456024  39.0566304
  54.6749992 116.2859978  25.6820014  54.8569992 115.8369978  26.5070014
  54.0749992 115.7019978  25.2180014  54.6188187 116.1455552  25.7322739
  40.2049992 117.1019978  30.2140014  40.6499992 116.3099978  30.5160014
  40.6709992 117.8179978  30.6440014  40.3289718 117.0904534  30.3135265
  38.5089992 120.1009978  31.2830014  39.0009992 119.8799978  30.4920014
  38.8709992 120.9409978  31.5640014  38.6252923 120.1843468  31.2127407
  56.5049992 116.4309978  37.5480014  55.5879992 116.7019978  37.5130014
  56.6279992 115.8959978  36.7640014  56.3959672 116.3957885  37.4371862
  56.5419992 116.3539978  22.2100014  56.9539992 115.6329978  21.7350014
  57.2229992 117.0229978  22.2680014  56.6905536 116.3457766  22.1528024
  38.8229992 116.3589978  25.3370014  37.8979992 116.5669978  25.2080014
  39.2769992 116.8429978  24.6470014  38.7576298 116.4529299  25.2260451
  53.5929992 131.3429978  27.2830014  54.2459992 130.9949978  26.6750014
  54.1039992 131.8309978  27.9290014  53.7512777 131.3613815  27.2872047
  38.7859992 115.0969978  33.6810014  38.1209992 114.8509978  34.3240014
  38.3429992 115.7189978  33.1040014  38.6351168 115.1474214  33.6909848
  40.9779992 128.2719978  37.8260014  40.1569992 128.4469978  37.3650014
  40.7259992 128.1989978  38.7460014  40.8315594 128.2860717  37.8873611
  43.9319992 129.2459978  34.0840014  43.5079992 130.0559978  33.8020014
  44.8369992 129.3319978  33.7820014  43.9962138 129.3684160  34.0046415
  48.2439992 130.6449978  37.0440014  48.4279992 130.3119978  37.9220014
  49.0899992 130.9549978  36.7220014  48.3836484 130.6412979  37.1207617
  50.5889992 131.9309978  36.2880014  51.2659992 131.2979978  36.0480014
  50.9099992 132.3319978  37.0950014  50.7251323 131.8985691  36.3643158
  55.5059992 114.5209978  35.3670014  54.6929992 114.8459978  34.9800014
  55.7389992 113.7599978  34.8340014  55.4261347 114.4626880  35.2419841
  41.3339992 132.5029978  34.1320014  40.6139992 132.9429978  33.6810014
  40.9689992 132.2519978  34.9800014  41.1859643 132.5293369  34.1849129
  43.8009992 132.1029978  33.1620014  42.9369992 132.1749978  33.5660014
  43.7459992 132.6499978  32.3780014  43.6751942 132.1867849  33.1114000
  48.5119992 131.9909978  32.3370014  48.0549992 132.5199978  31.6830014
  48.6749992 132.5939978  33.0620014  48.4714960 132.1449280  32.3455274
  50.8399992 130.8689978  33.2820014  49.9349992 131.0339978  33.0160014
  51.2679992 131.7219978  33.2160014  50.7741537 131.0069134  33.2367095
  53.4439992 132.4389978  33.5770014  53.2619992 133.3549978  33.3660014
  53.6209992 132.0279978  32.7300014  53.4430030 132.5088273  33.4337166
  40.7489992 131.1259978  31.0420014  40.7309992 130.6999978  31.8990014
  41.5539992 130.8069978  30.6330014  40.8552875 131.0246435  31.1039515
  42.8899992 129.8359978  29.6970014  42.6709992 128.9189978  29.8670014
  43.7139992 129.9759978  30.1630014  42.9714702 129.7295511  29.7832527
  45.4269992 130.3059978  30.5460014  45.6399992 129.4179978  30.2590014
  45.4919992 130.2709978  31.5000014  45.4649149 130.1798326  30.6357369
  48.9359992 115.9699978  29.6900014  48.2619992 115.3399978  29.9460014
  49.4999992 115.4859978  29.0870014  48.9200384 115.8183708  29.6435020
  54.0789992 114.0769978  29.8030014  54.6819992 114.6249978  29.3010014
  53.2089992 114.3959978  29.5620014  54.0439157 114.1950373  29.7017910
  55.8059992 115.2159978  28.1360014  56.4169992 114.7019978  27.6090014
  56.1879992 116.0929978  28.1590014  55.9413305 115.2642050  28.0669418
  41.2629992 114.6039978  27.5120014  40.4859992 114.3689978  27.0050014
  41.7929992 113.8069978  27.5210014  41.2283451 114.4641268  27.4438627
  40.0989992 114.4019978  23.3160014  40.5379992 115.0129978  22.7240014
  39.4649992 114.9399978  23.7900014  40.0733859 114.5584064  23.2990305
  45.8419992 114.5299978  27.3250014  46.7159992 114.9189978  27.2960014
  45.7059992 114.3149978  28.2480014  45.9431953 114.5541643  27.4457617
  51.3989992 114.5599978  28.9750014  51.4749992 114.6559978  28.0250014
  51.1239992 113.6529978  29.1030014  51.3721871 114.4504146  28.8623944
  52.7519992 114.5859978  24.6670014  52.0489992 115.2009978  24.4570014
  52.3069992 113.7489978  24.7980014  52.5956550 114.5569668  24.6559837
  39.9999992 130.3499978  24.2130014  39.3149992 130.3119978  23.5460014
  40.0039992 131.2629978  24.5010014  39.9067621 130.4681924  24.1606126
  41.9599992 116.3179978  21.7580014  42.4509992 115.6879978  21.2310014
  42.5829992 116.6139978  22.4210014  42.1115304 116.2717376  21.7754940
  46.9859992 116.6109978  24.2150014  47.1639992 115.9639978  24.8980014
  46.9319992 117.4449978  24.6820014  47.0030678 116.6351604  24.3716301
  48.8639992 131.5589978  22.6110014  49.7299992 131.9259978  22.4330014
  48.6179992 131.1199978  21.7970014  48.9492097 131.5498525  22.4766019
  55.5729992 131.1219978  25.2900014  55.3789992 130.3739978  24.7250014
  55.5339992 131.8799978  24.7070014  55.5411645 131.1220786  25.1338148
  41.2199992 115.1179978  37.0300014  40.8539992 114.3519978  37.4720014
  42.1329992 115.1469978  37.3160014  41.2933172 115.0170324  37.1291890
  43.1929992 114.4679978  38.5650014  44.0919992 114.1939978  38.3810014
  42.8069992 113.7259978  39.0300014  43.2637307 114.3302196  38.6027098
  41.8179992 131.2699978  21.2380014  41.5499992 131.5559978  22.1120014
  42.5889992 130.7239978  21.3910014  41.8855926 131.2352779  21.3781205
  51.6149992 113.8009978  38.7480014  51.6909992 113.3749978  39.6010014
  52.5079992 113.8139978  38.4050014  51.7462303 113.7443493  38.8185497
  54.7909992 129.8739978  37.4400014  54.0089992 129.6869978  36.9200014
  54.7189992 130.8029978  37.6570014  54.6741924 129.9740637  37.3981602
  69.1969992 123.7599978  27.4710014  69.2859992 124.7039978  27.3390014
  68.5589992 123.4849978  26.8130014  69.1229062 123.8519812  27.3639641
  68.1299992 123.0149978  30.8900014  68.0919992 122.3689978  31.5950014
  67.8079992 122.5479978  30.1190014  68.0812679 122.8634276  30.8822921
  60.4979992 122.6289978  32.4830014  60.5399992 122.0039978  33.2060014
  61.2009992 123.2529978  32.6650014  60.5987345 122.6277873  32.6065274
  71.8359992 125.9539978  29.1910014  71.3949992 125.2339978  29.6420014
  71.8229992 126.6749978  29.8210014  71.7739215 125.9529291  29.3378105
  61.4219992 127.0789978  31.0180014  61.0519992 126.2769978  30.6480014
  62.3629992 126.9109978  31.0640014  61.4985984 126.9464638  30.9735603
  58.0319992 120.7389978  26.4100014  57.5839992 121.5849978  26.3920014
  57.4709992 120.1599978  25.8950014  57.8948546 120.7763993  26.3378891
  58.7419992 122.9009978  28.5360014  58.9559992 122.1309978  29.0640014
  59.4799992 122.9909978  27.9330014  58.8710200 122.8078587  28.5267035
  68.9479992 131.0579978  29.4030014  69.5669992 130.3819978  29.1300014
  68.7389992 130.8399978  30.3120014  69.0046056 130.9358869  29.4883967
  66.5189992 125.4469978  31.2960014  66.8229992 124.7609978  30.7010014
  67.2409992 125.5659978  31.9140014  66.6581240 125.3692314  31.2980959
  75.1819992 117.0489978  32.1560014  75.2319992 117.6589978  32.8920014
  75.6079992 117.5099978  31.4330014  75.2464108 117.1947709  32.1590112
  69.6599992 119.8409978  31.6230014  69.8029992 118.8949978  31.6430014
  69.5539992 120.0479978  30.6950014  69.6652403 119.7394797  31.5002239
  62.8149992 117.9429978  28.8960014  62.8579992 118.8029978  28.4770014
  62.3569992 117.3909978  28.2620014  62.7589871 117.9859245  28.7530761
  70.5369992 118.0739978  27.2970014  71.1839992 117.7449978  27.9210014
  71.0469992 118.5909978  26.6740014  70.6944351 118.0989067  27.2981037
  59.4349992 120.3399978  29.6580014  60.0889992 119.7899978  30.0900014
  59.4589992 120.0659978  28.7410014  59.5277199 120.2277167  29.5931668
  64.5919992 121.8899978  28.8730014  65.2079992 121.3629978  29.3820014
  64.0049992 121.2499978  28.4690014  64.5970154 121.7313954  28.8880945
  75.5739992 118.5269978  34.3920014  74.8849992 119.1849978  34.2970014
  75.5889992 118.3289978  35.3290014  75.4817756 118.5902603  34.5055812
  61.6249992 116.8609978  32.9700014  61.4059992 117.3909978  32.2030014
  60.9569992 117.0869978  33.6170014  61.5046975 116.9640967  32.9525140
  68.9939992 126.3609978  26.5140014  68.6989992 126.0379978  25.6620014
  68.6699992 127.2609978  26.5550014  68.9098460 126.4384464  26.4029714
  64.1939992 124.5359978  33.2570014  63.4539992 125.1349978  33.3610014
  64.9079992 125.0899978  32.9420014  64.1893500 124.6927829  33.2286371
  72.3009992 117.3649978  29.2770014  72.0859992 116.5989978  29.8100014
  72.9569992 117.8369978  29.7900014  72.3602673 117.3240728  29.4191990
  61.2189992 118.7529978  30.9220014  61.8329992 119.3859978  31.2950014
  61.7309992 118.2809978  30.2660014  61.3721962 118.7757249  30.8842935
  62.6019992 126.5009978  34.0440014  62.5959992 127.3799978  33.6660014
  61.7479992 126.4169978  34.4690014  62.4857925 126.6099535  34.0496887
  58.7229992 126.1719978  24.8260014  58.4509992 126.4009978  23.9380014
  58.7679992 127.0089978  25.2870014  58.6918097 126.3166163  24.7666683
  72.3479992 127.7929978  31.5390014  71.4059992 127.8519978  31.7010014
  72.6239992 128.6989978  31.4020014  72.2565865 127.9235288  31.5426192
  72.6479992 116.0799978  32.9560014  71.9119992 116.6899978  32.9190014
  73.3319992 116.4949978  32.4300014  72.6395367 116.2197551  32.8798174
  65.6519992 114.1659978  30.4220014  65.5339992 113.2179978  30.3680014
  64.7969992 114.4989978  30.6950014  65.5202805 114.0812202  30.4515079
  70.5999992 129.5739978  28.1640014  71.0249992 128.8669978  27.6790014
  70.9169992 130.3759978  27.7470014  70.7010266 129.5855190  28.0412479
  71.7599992 127.4749978  26.6730014  71.5019992 126.7849978  26.0610014
  71.8309992 127.0319978  27.5180014  71.7343050 127.3206814  26.7035621
  73.4459992 126.0419978  35.1500014  73.5849992 125.4499978  34.4110014
  73.6129992 126.9149978  34.7940014  73.4876193 126.0788896  35.0006211
  67.9179992 123.0039978  24.9230014  67.2069992 123.5389978  24.5710014
  68.6089992 123.0589978  24.2630014  67.9140751 123.0846777  24.7855858
  67.9719992 121.4609978  21.9610014  68.6729992 121.4839978  22.6130014
  68.2739992 120.8329978  21.3050014  68.1088202 121.3792212  21.9615609
  75.2869992 122.3819978  33.2160014  74.6349992 123.0759978  33.3050014
  75.7529992 122.5919978  32.4060014  75.2605937 122.5055019  33.1187533
  71.3239992 123.2129978  25.8740014  70.5919992 123.4419978  26.4480014
  71.7709992 122.4999978  26.3290014  71.2843963 123.1478729  26.0139945
  71.2209992 121.3879978  34.9420014  71.3009992 122.1509978  35.5140014
  70.6199992 121.6669978  34.2520014  71.1506547 121.5302457  34.9270047
  62.9689992 123.8439978  27.7570014  62.6389992 123.4729978  26.9390014
  63.5579992 123.1729978  28.1040014  63.0033970 123.7026063  27.6919404
  64.3359992 127.2719978  30.4380014  64.2409992 126.6929978  29.6820014
  65.0649992 126.9009978  30.9340014  64.4216011 127.1425561  30.4016028
  63.3359992 122.6119978  31.3900014  63.9009992 122.7339978  30.6280014
  63.6549992 123.2499978  32.0290014  63.4564166 122.7148791  31.3720348
  69.6449992 128.1159978  32.1240014  69.4049992 128.7779978  32.7720014
  69.4469992 127.2809978  32.5490014  69.5853826 128.0938115  32.2701566
  64.2159992 127.0119978  36.1080014  63.9049992 127.7939978  36.5630014
  63.5659992 126.8589978  35.4220014  64.0855538 127.0984087  36.0775898
  70.1949992 122.3759978  23.5600014  70.7739992 122.5259978  24.3060014
  70.6089992 122.8459978  22.8360014  70.3303358 122.4600955  23.5643953
  61.1359992 123.2099978  35.3360014  61.2059992 123.8609978  36.0350014
  60.2449992 123.3129978  35.0010014  61.0251690 123.3129249  35.3863043
  67.9209992 129.1119978  26.9950014  68.3949992 129.4079978  27.7720014
  67.3579992 129.8509978  26.7620014  67.9097890 129.2523036  27.0698101
  62.4549992 129.0829978  36.8710014  62.4629992 128.9469978  35.9240014
  61.5389992 128.9659978  37.1230014  62.3322528 129.0485463  36.7753243
  73.8939992 114.1259978  23.3730014  72.9939992 114.2649978  23.6680014
  74.1459992 114.9569978  22.9710014  73.8048683 114.2574055  23.3590232
  61.9599992 122.9129978  25.3460014  61.6679992 123.6809978  24.8550014
  61.2849992 122.2539978  25.1830014  61.8288497 122.9289745  25.2568260
  75.0829992 128.4919978  21.7490014  75.1559992 129.4309978  21.9190014
  75.9879992 128.1869978  21.6930014  75.2154170 128.5793282  21.7647063
  58.0529992 125.2759978  34.1610014  57.5509992 125.2479978  33.3460014
  58.0579992 124.3709978  34.4710014  57.9849832 125.1497486  34.0914121
  57.8029992 128.0569978  31.0450014  58.7489992 127.9119978  31.0260014
  57.6899992 128.8409978  31.5820014  57.9173578 128.1431697  31.1150317
  76.0009992 128.7229978  36.7280014  75.9509992 127.7669978  36.6900014
  75.1739992 128.9899978  37.1290014  75.8823831 128.6284680  36.7770121
  66.9789992 128.2969978  35.6040014  67.0669992 129.1229978  36.0790014
  66.1159992 127.9669978  35.8530014  66.8743357 128.3655468  35.7027653
  67.3939992 132.0689978  25.4100014  67.3179992 131.9479978  24.4630014
  67.4259992 133.0179978  25.5280014  67.3879380 132.1807677  25.2965181
  61.0469992 130.8579978  27.1910014  61.1989992 130.5099978  28.0690014
  60.1959992 130.5009978  26.9350014  60.9528344 130.7620879  27.2766868
  70.4949992 131.2229978  22.4120014  70.8699992 130.4789978  21.9410014
  70.4999992 130.9529978  23.3300014  70.5470098 131.0846392  22.4716629
  70.1639992 131.1489978  25.1610014  69.2289992 131.2489978  25.3400014
  70.4439992 130.4389978  25.7400014  70.0739471 131.0667933  25.2636695
  73.1529992 120.2159978  37.2080014  72.7449992 120.6959978  36.4870014
  73.1929992 119.3099978  36.9000014  73.1026221 120.1592449  37.0678267
  60.3019992 126.5999978  35.2040014  60.5179992 126.2379978  36.0640014
  59.4459992 126.2249978  34.9950014  60.2158810 126.4998837  35.2932680
  62.9199992 115.0699978  31.2000014  62.0589992 114.9829978  30.7920014
  62.8979992 115.9259978  31.6280014  62.7990491 115.1738003  31.2019582
  67.5829992 114.7919978  34.5750014  68.0029992 114.3769978  35.3280014
  66.6499992 114.6129978  34.6920014  67.5143736 114.7109910  34.6938968
  70.9099992 118.5469978  35.4280014  70.3959992 118.4219978  36.2260014
  70.7539992 119.4599978  35.1840014  70.8186967 118.6532123  35.5040937
  71.6719992 123.4079978  21.1890014  71.7139992 123.1859978  20.2590014
  72.5209992 123.8069978  21.3790014  71.7925253 123.4315498  21.0873822
  67.2449992 117.2839978  21.8600014  66.9909992 117.3029978  22.7820014
  66.9879992 116.4129978  21.5580014  67.1754508 117.1688280  21.9454803
  63.0109992 120.0349978  32.2950014  62.3699992 119.9949978  33.0040014
  63.0489992 120.9619978  32.0570014  62.9283010 120.1547668  32.3599946
  63.0079992 120.2559978  27.2070014  62.1159992 119.9159978  27.1480014
  63.4589992 119.8789978  26.4510014  62.9467642 120.1584910  27.0967726
  68.5439992 120.6719978  26.0240014  68.1349992 121.4869978  25.7320014
  69.2639992 120.5319978  25.4100014  68.5854439 120.7645372  25.9010115
  67.6459992 120.8479978  37.5120014  67.0829992 120.1429978  37.8330014
  68.4719992 120.7269978  37.9800014  67.6806674 120.7352165  37.6191751
  69.5489992 120.1179978  28.8380014  69.3529992 120.7239978  28.1230014
  69.7299992 119.2849978  28.4040014  69.5466584 120.0882513  28.6814212
  60.7609992 120.3559978  34.1620014  60.7229992 120.7559978  35.0310014
  60.2709992 119.5389978  34.2520014  60.6895330 120.3002674  34.2931289
  64.1269992 117.7299978  20.9610014  63.6959992 117.2849978  21.6900014
  63.4089992 118.1009978  20.4480014  63.9709176 117.7192052  20.9914930
  57.3699992 117.4719978  28.0130014  57.9999992 117.4429978  28.7320014
  57.8189992 117.0469978  27.2820014  57.5170835 117.4105660  28.0127659
  58.6439992 118.2179978  23.4370014  59.1179992 118.8089978  22.8520014
  57.9259992 118.7479978  23.7840014  58.6118640 118.3705511  23.4037969
  68.8129992 121.7559978  33.5090014  69.1359992 121.1249978  32.8660014
  68.3719992 121.2219978  34.1700014  68.7976379 121.5973468  33.5102582
  65.5899992 117.6839978  28.2930014  64.6789992 117.7409978  28.5820014
  66.0949992 117.6239978  29.1040014  65.5336873 117.6836826  28.4421207
  60.4179992 119.3129978  27.1200014  59.5289992 119.4119978  26.7800014
  60.7149992 118.4709978  26.7740014  60.3364177 119.2127687  27.0266940
  64.0709992 119.3129978  24.7770014  65.0029992 119.4419978  24.9550014
  63.8559992 119.9819978  24.1270014  64.1694472 119.4210806  24.7134891
  69.9949992 116.9189978  31.5580014  69.3179992 117.0499978  32.2210014
  69.5099992 116.7639978  30.7470014  69.8367405 116.9159947  31.5392170
  62.7449992 120.5069978  22.3430014  62.2029992 120.1279978  21.6520014
  63.5789992 120.7019978  21.9150014  62.7834390 120.4814079  22.1904392
  73.2829992 132.5899978  37.8340014  73.4819992 133.0139978  37.0000014
  73.9379992 132.9339978  38.4410014  73.3988522 132.6946301  37.8017852
  60.8809992 125.0639978  37.4420014  61.6129992 125.3189978  38.0040014
  60.0999992 125.2689978  37.9580014  60.8756526 125.1265450  37.5885176
  66.9099992 120.4709978  30.1800014  67.4739992 119.9249978  29.6330014
  66.7619992 119.9499978  30.9690014  66.9673037 120.3256787  30.2117229
  61.9119992 116.6079978  26.5990014  61.5949992 115.7049978  26.5630014
  62.6929992 116.6099978  26.0460014  61.9742431 116.4847797  26.5193102
  65.5359992 118.8599978  32.5940014  64.7009992 119.3139978  32.7050014
  66.0599992 119.1359978  33.3460014  65.4926072 118.9593948  32.7108136
  66.0809992 125.0729978  24.2790014  65.3359992 124.5649978  23.9570014
  65.9459992 125.1219978  25.2250014  65.9608963 125.0101731  24.3628826
  73.2309992 124.2059978  33.0660014  73.8719992 124.6619978  32.5220014
  72.3999992 124.3189978  32.6030014  73.2065287 124.2836921  32.9289887
  69.9779992 117.8869978  22.4780014  69.0399992 117.9979978  22.3270014
  70.2759992 118.7429978  22.7850014  69.8896318 118.0180158  22.4988145
  67.5999992 125.2569978  35.5160014  67.2539992 124.8749978  36.3230014
  67.3999992 126.1899978  35.5870014  67.5255987 125.3309002  35.6360461
  70.6969992 119.7539978  24.1390014  71.5889992 119.6159978  24.4580014
  70.7529992 120.5449978  23.6020014  70.8267325 119.8419918  24.1101217
  61.2049992 124.3679978  30.0490014  61.9499992 124.3649978  29.4470014
  61.2829992 123.5439978  30.5300014  61.3173365 124.2562384  30.0317430
  68.2059992 126.5309978  23.3040014  67.9109992 127.3579978  23.6860014
  67.5029992 125.9119978  23.5010014  68.0706379 126.5604171  23.3828654
  58.2129992 122.8279978  35.3640014  58.4359992 122.4099978  36.1950014
  57.6109992 122.2159978  34.9410014  58.1621513 122.6879606  35.4206740
  65.2299992 122.3449978  37.5770014  64.9339992 122.1799978  36.6810014
  66.1609992 122.1249978  37.5660014  65.3154401 122.2926879  37.4530206
  69.8499992 127.7189978  35.4660014  68.9499992 127.9019978  35.1990014
  69.8839992 127.9779978  36.3870014  69.7313748 127.7790554  35.5539164
  75.5819992 119.9629978  23.8340014  75.0269992 119.5669978  23.1610014
  75.6819992 120.8739978  23.5560014  75.5196816 120.0319505  23.7045033
  75.5449992 125.7639978  36.6710014  74.6939992 126.0019978  36.3030014
  76.1349992 125.7469978  35.9180014  75.5083812 125.7942524  36.5188453
  73.8769992 128.7489978  24.2990014  73.5039992 127.9239978  24.6080014
  74.1539992 128.5659978  23.4010014  73.8633463 128.6112569  24.2199525
  71.0369992 123.5569978  31.3200014  70.1089992 123.3259978  31.2930014
  71.4879992 122.7799978  30.9900014  70.9708165 123.4202774  31.2716790
  63.5799992 127.8859978  27.4530014  64.1079992 128.6589978  27.2530014
  62.6999992 128.1099978  27.1510014  63.5333435 128.0222700  27.3847310
  59.3349992 122.7479978  22.0400014  59.9509992 123.3749978  22.4200014
  58.4729992 123.0639978  22.3120014  59.3027678 122.8764412  22.1287209
  65.0079992 125.5489978  27.0290014  64.7669992 126.4739978  27.0710014
  64.2669992 125.0899978  27.4260014  64.8749206 125.6135915  27.0883769
  65.5219992 129.6979978  33.3440014  65.8849992 130.5519978  33.1110014
  66.0539992 129.4059978  34.0850014  65.6435141 129.7753895  33.4122097
  63.6909992 130.5699978  26.5750014  62.7409992 130.6759978  26.6260014
  64.0429992 131.3909978  26.9190014  63.6085472 130.6954923  26.6284852
  69.0659992 125.7969978  33.0450014  68.6409992 125.5689978  33.8710014
  69.6469992 125.0579978  32.8630014  69.0863395 125.6659545  33.1334414
  71.2689992 126.7259978  22.1190014  71.6229992 126.3459978  22.9230014
  70.3209992 126.6319978  22.2060014  71.1892298 126.6612452  22.2408687
  71.7249992 130.3489978  35.5140014  71.1229992 129.7929978  35.0190014
  72.0059992 131.0159978  34.8880014  71.6805757 130.3630744  35.3615675
  75.7729992 131.2049978  22.3200014  76.5169992 131.7909978  22.1800014
  75.0789992 131.7739978  22.6530014  75.7809809 131.3620818  22.3458590
  59.8469992 117.5819978  34.9220014  58.9549992 117.9199978  34.8540014
  59.7489992 116.7259978  35.3400014  59.7114475 117.5126543  34.9691704
  72.1349992 125.3979978  24.3460014  71.8579992 124.6699978  24.9020014
  73.0629992 125.5169978  24.5510014  72.2224499 125.3144213  24.4498044
  59.4989992 129.3859978  33.3570014  59.7159992 128.4539978  33.3260014
  59.7449992 129.6609978  34.2400014  59.5619809 129.2955686  33.4721691
  65.3599992 127.8379978  20.5660014  65.5989992 127.0889978  20.0190014
  65.0909992 127.4499978  21.3990014  65.3563233 127.6831853  20.6037809
  64.2969992 127.4079978  23.0220014  64.4439992 126.8879978  23.8120014
  64.2939992 128.3149978  23.3290014  64.3167102 127.4593953  23.1715925
  60.7499992 124.6599978  23.5330014  60.0639992 125.0129978  24.1000014
  61.2729992 125.4229978  23.2860014  60.7268402 124.8113901  23.5771801
  68.5819992 117.3229978  33.8120014  69.2809992 117.3969978  34.4620014
  68.2009992 116.4579978  33.9660014  68.6262097 117.2162389  33.9217997
  69.3659992 116.9749978  24.9090014  69.5859992 117.4459978  24.1050014
  69.9249992 117.3689978  25.5790014  69.4716731 117.0927287  24.8895033
  67.0349992 129.1049978  23.7720014  66.2179992 129.6019978  23.8240014
  67.5639992 129.5809978  23.1310014  66.9948125 129.2371989  23.6925306
  66.5659992 118.7029978  25.7440014  67.3779992 119.2069978  25.7900014
  66.3219992 118.5579978  26.6580014  66.6441467 118.7523749  25.8738575
  67.1019992 119.6889978  34.9280014  67.2209992 120.2629978  35.6850014
  67.7569992 119.0009978  35.0430014  67.2068684 119.6745194  35.0471674
  67.4499992 115.7839978  26.6820014  67.1029992 116.4009978  27.3260014
  68.1089992 116.2849978  26.2000014  67.4915090 115.9361575  26.7050681
  64.3729992 130.1489978  23.7530014  64.5339992 130.9489978  23.2530014
  64.1759992 130.4559978  24.6380014  64.3683906 130.2998678  23.8042333
  63.1079992 116.8469978  23.3690014  63.0239992 117.7349978  23.7160014
  63.9979992 116.5819978  23.6010014  63.2168163 116.9327179  23.4478596
  73.3059992 117.5959978  35.7630014  72.3899992 117.8579978  35.6760014
  73.6419992 117.5929978  34.8670014  73.2258499 117.6315163  35.6298766
  71.9089992 121.3459978  29.8590014  71.1109992 120.9309978  29.5310014
  72.3539992 120.6559978  30.3500014  71.8599684 121.1958628  29.8805227
  61.3659992 127.2739978  22.4290014  61.9579992 127.9739978  22.7060014
  61.8249992 126.8409978  21.7100014  61.5091652 127.3112675  22.3696533
  59.6819992 119.9389978  21.5450014  59.6369992 120.8779978  21.7240014
  58.7939992 119.7029978  21.2760014  59.5558166 120.0356687  21.5331524
  72.9949992 130.6019978  31.4810014  72.8389992 131.2809978  30.8240014
  73.9279992 130.6739978  31.6840014  73.0997387 130.7046390  31.4185342
  60.4899992 114.7199978  30.2190014  60.2609992 114.7789978  29.2910014
  60.0479992 113.9289978  30.5250014  60.3988801 114.6210540  30.1334729
  59.4209992 128.6609978  26.3790014  58.5879992 129.1329978  26.4060014
  59.9659992 129.1709978  25.7800014  59.3807857 128.7944791  26.3017142
  58.7089992 131.2729978  37.7090014  59.2489992 131.0569978  38.4690014
  58.2279992 130.4679978  37.5190014  58.7179219 131.1345156  37.7874282
  63.3059992 130.1929978  39.3290014  64.0739992 129.7339978  39.6700014
  63.2849992 129.9669978  38.3990014  63.4082135 130.0996668  39.2499491
  67.3979992 129.7009978  20.7050014  66.7539992 129.0699978  21.0260014
  68.1599992 129.1699978  20.4730014  67.4128058 129.5427902  20.7176038
  69.8829992 128.5729978  38.0580014  69.5319992 127.7159978  38.3020014
  70.6089992 128.7149978  38.6650014  69.9331895 128.4751351  38.1733770
  72.0029992 129.5179978  20.9380014  72.2859992 128.7229978  21.3910014
  72.7419992 129.7509978  20.3770014  72.1417096 129.4407049  20.9241104
  58.6159992 125.0839978  38.6630014  58.7599992 124.1819978  38.3770014
  57.8439992 125.3699978  38.1760014  58.5312733 124.9991798  38.5579532
  62.9569992 125.4269978  20.7960014  63.0219992 124.6329978  21.3260014
  63.6099992 125.3089978  20.1060014  63.0541605 125.3023430  20.7752997
  65.2709992 125.0529978  38.0960014  64.9429992 125.3239978  37.2390014
  65.4229992 124.1119978  38.0080014  65.2466412 124.9629046  37.9667822
  68.3099992 126.4739978  20.5320014  68.0409992 126.6549978  21.4320014
  68.1029992 125.5489978  20.4000014  68.2451191 126.3737119  20.6375524
  71.0059992 124.9689978  35.4790014  71.7509992 125.5579978  35.3600014
  70.2489992 125.5509978  35.5430014  71.0055470 125.1282128  35.4713799
  59.4489992 122.2839978  38.0830014  59.8569992 121.4269978  37.9620014
  59.1879992 122.2979978  39.0040014  59.4696016 122.1685119  38.1909192
  64.1069992 123.3999978  23.1020014  63.6469992 122.9159978  23.7870014
  64.3619992 122.7309978  22.4660014  64.0784856 123.2433669  23.1098397
  63.3959992 121.2929978  35.4580014  62.7769992 121.9669978  35.7380014
  63.7399992 121.6139978  34.6240014  63.3577123 121.4286887  35.3836388
  65.1779992 121.6429978  21.3640014  64.9969992 121.4879978  20.4370014
  66.1279992 121.7509978  21.4090014  65.2816566 121.6363669  21.2430929
  68.4149992 123.7639978  38.7350014  69.3689992 123.8479978  38.7080014
  68.2549992 123.0519978  39.3550014  68.5237182 123.6792842  38.8150733
  74.5679992 123.9969978  20.8100014  74.2939992 123.5729978  19.9970014
  74.6069992 124.9289978  20.5930014  74.5357716 124.0648827  20.6694286
  63.7349992 118.6479978  36.5400014  63.8849992 117.9189978  35.9380014
  63.7369992 119.4249978  35.9810014  63.7557967 118.6532708  36.3820541
  64.1479992 117.0169978  34.0330014  64.6829992 117.4689978  33.3810014
  63.2949992 116.9089978  33.6100014  64.1060374 117.0642665  33.8866710
  65.7289992 122.4569978  34.2720014  66.4799992 122.3009978  33.6990014
  65.3899992 123.3089978  33.9970014  65.7859587 122.5508138  34.1564078
  70.1449992 120.2719978  39.3010014  70.3369992 119.3409978  39.1890014
  71.0029992 120.6969978  39.2900014  70.2872182 120.2020070  39.2841862
  71.4619992 123.0609978  37.3780014  71.1799992 123.7699978  36.8000014
  72.4039992 122.9879978  37.2270014  71.5507921 123.1482193  37.2784225
  62.2139992 119.8459978  38.4510014  61.4459992 119.3129978  38.2410014
  62.8919992 119.5359978  37.8520014  62.2007235 119.7311754  38.3412413
  64.9529992 114.4739978  34.4640014  64.8549992 115.4199978  34.3590014
  64.2109992 114.1009978  33.9880014  64.8392534 114.5531773  34.3852600
  66.2169992 118.7949978  38.0280014  65.9819992 118.5759978  38.9290014
  65.4339992 118.5879978  37.5180014  66.0789095 118.7369892  38.0825353
  68.9329992 117.9229978  37.1030014  67.9849992 117.9549978  37.2350014
  69.2449992 117.2969978  37.7570014  68.8455293 117.8427923  37.2094148
  70.5669992 116.5569978  39.1080014  70.4699992 115.6049978  39.1030014
  70.2449992 116.8249978  39.9690014  70.5102468 116.4630884  39.2236210
  60.3939992 117.7659978  38.1560014  60.6059992 117.0599978  37.5460014
  60.2829992 117.3289978  39.0000014  60.4080269 117.6101921  38.1865873
  65.1749992 113.7679978  37.1350014  65.8869992 113.1279978  37.1210014
  65.0739992 114.0339978  36.2220014  65.2587387 113.7164330  37.0095563
  65.5289992 115.4499978  39.1890014  65.3969992 114.9749978  38.3690014
  64.9289992 116.1949978  39.1340014  65.4299070 115.4855789  39.0693251
  65.0749992 132.3329978  22.3650014  66.0079992 132.4909978  22.5090014
  64.8109992 133.0089978  21.7400014  65.1669911 132.4459373  22.3002722
  58.6429992 126.9699978  21.8480014  59.5569992 127.0489978  22.1210014
  58.6509992 126.2829978  21.1820014  58.7690655 126.8879205  21.7952917
  57.2919992 132.3629978  26.9250014  56.6449992 131.9009978  26.3930014
  57.6469992 131.6909978  27.5080014  57.2513741 132.2089774  26.9309175
  58.1619992 130.4429978  28.7300014  57.8279992 129.5629978  28.9020014
  58.3849992 130.7889978  29.5950014  58.1463721 130.3691938  28.8704168
  75.7109992 131.2529978  31.7110014  75.6889992 131.4379978  32.6500014
  76.4009992 131.8209978  31.3700014  75.8013439 131.3551887  31.7934791
  75.2739992 130.8199978  34.6320014  74.7869992 130.0849978  34.2610014
  75.8229992 130.4259978  35.3100014  75.2815247 130.6661057  34.6728461
  73.7249992 126.6099978  39.2710014  72.8589992 126.5049978  39.6650014
  74.1009992 127.3679978  39.7170014  73.6573401 126.6981708  39.3852620
  75.0259992 124.8659978  24.7850014  75.8759992 125.2869978  24.9120014
  75.0309992 124.1259978  25.3920014  75.1431143 124.8236094  24.8844750
  75.4199992 122.9199978  26.6080014  74.6939992 122.4399978  27.0060014
  76.0019992 123.1249978  27.3410014  75.3992730 122.8820184  26.7614149
  75.1789992 125.7049978  31.5560014  76.0129992 125.3269978  31.2750014
  75.2909992 126.6479978  31.4370014  75.3081917 125.7807943  31.5014861
  73.6659992 128.5829978  33.8630014  73.0179992 128.9079978  34.4880014
  73.1479992 128.1419978  33.1890014  73.5074196 128.5678651  33.8574152
  75.6889992 122.8209978  22.9990014  75.1669992 123.1769978  22.2810014
  75.6559992 123.4959978  23.6780014  75.6130129 122.9609598  22.9923355
  74.0379992 120.0599978  21.5500014  74.1339992 120.7269978  20.8700014
  73.8979992 119.2449978  21.0690014  74.0322040 120.0410671  21.3918378
  73.2069992 121.4409978  27.1710014  73.0569992 120.4959978  27.1510014
  72.8529992 121.7219978  28.0150014  73.1386351 121.3496644  27.2823220
  58.2419992 123.5189978  31.1820014  58.4269992 123.4369978  30.2460014
  59.0919992 123.3949978  31.6050014  58.3820928 123.4910463  31.1112893
  74.0629992 123.4109978  36.8100014  74.6459992 122.6759978  37.0020014
  74.6269992 124.1829978  36.8570014  74.2189781 123.4148145  36.8426164
  75.5599992 121.3139978  37.4950014  74.6969992 120.9349978  37.3290014
  76.1639992 120.5749978  37.4200014  75.5236085 121.1623223  37.4621694
  73.2849992 117.4679978  20.6680014  73.8959992 117.0969978  21.3050014
  72.4479992 117.0469978  20.8640014  73.2554947 117.3602756  20.7817252
  72.9179992 119.0229978  25.6340014  73.1969992 118.1159978  25.7580014
  73.6769992 119.4569978  25.2450014  73.0588619 118.9574502  25.5983795
  73.5289992 119.6049978  31.0700014  74.4619992 119.8169978  31.0350014
  73.2939992 119.7059978  31.9920014  73.6249517 119.6476833  31.1899130
  73.5589992 120.3419978  33.8460014  72.7159992 120.6099978  34.2120014
  74.0009992 121.1639978  33.6350014  73.5034138 120.4898273  33.8675518
  57.8399992 118.7889978  37.3220014  58.7589992 118.6669978  37.5590014
  57.3899992 118.0389978  37.7120014  57.9050087 118.6709608  37.4071410
  75.8419992 114.3219978  39.1990014  76.1909992 113.6679978  38.5940014
  75.9889992 115.1589978  38.7590014  75.9096824 114.3456024  39.0566304
  73.5309992 116.2859978  25.6820014  73.7129992 115.8369978  26.5070014
  72.9309992 115.7019978  25.2180014  73.4748187 116.1455552  25.7322739
  59.0609992 117.1019978  30.2140014  59.5059992 116.3099978  30.5160014
  59.5269992 117.8179978  30.6440014  59.1849718 117.0904534  30.3135265
  57.3649992 120.1009978  31.2830014  57.8569992 119.8799978  30.4920014
  57.7269992 120.9409978  31.5640014  57.4812923 120.1843468  31.2127407
  75.3609992 116.4309978  37.5480014  74.4439992 116.7019978  37.5130014
  75.4839992 115.8959978  36.7640014  75.2519672 116.3957885  37.4371862
  75.3979992 116.3539978  22.2100014  75.8099992 115.6329978  21.7350014
  76.0789992 117.0229978  22.2680014  75.5465536 116.3457766  22.1528024
  57.6789992 116.3589978  25.3370014  56.7539992 116.5669978  25.2080014
  58.1329992 116.8429978  24.6470014  57.6136298 116.4529299  25.2260451
  72.4489992 131.3429978  27.2830014  73.1019992 130.9949978  26.6750014
  72.9599992 131.8309978  27.9290014  72.6072777 131.3613815  27.2872047
  57.6419992 115.0969978  33.6810014  56.9769992 114.8509978  34.3240014
  57.1989992 115.7189978  33.1040014  57.4911168 115.1474214  33.6909848
  59.8339992 128.2719978  37.8260014  59.0129992 128.4469978  37.3650014
  59.5819992 128.1989978  38.7460014  59.6875594 128.2860717  37.8873611
  62.7879992 129.2459978  34.0840014  62.3639992 130.0559978  33.8020014
  63.6929992 129.3319978  33.7820014  62.8522138 129.3684160  34.0046415
  67.0999992 130.6449978  37.0440014  67.2839992 130.3119978  37.9220014
  67.9459992 130.9549978  36.7220014  67.2396484 130.6412979  37.1207617
  69.4449992 131.9309978  36.2880014  70.1219992 131.2979978  36.0480014
  69.7659992 132.3319978  37.0950014  69.5811323 131.8985691  36.3643158
  74.3619992 114.5209978  35.3670014  73.5489992 114.8459978  34.9800014
  74.5949992 113.7599978  34.8340014  74.2821347 114.4626880  35.2419841
  60.1899992 132.5029978  34.1320014  59.4699992 132.9429978  33.6810014
  59.8249992 132.2519978  34.9800014  60.0419643 132.5293369  34.1849129
  62.6569992 132.1029978  33.1620014  61.7929992 132.1749978  33.5660014
  62.6019992 132.6499978  32.3780014  62.5311942 132.1867849  33.1114000
  67.3679992 131.9909978  32.3370014  66.9109992 132.5199978  31.6830014
  67.5309992 132.5939978  33.0620014  67.3274960 132.1449280  32.3455274
  69.6959992 130.8689978  33.2820014  68.7909992 131.0339978  33.0160014
  70.1239992 131.7219978  33.2160014  69.6301537 131.0069134  33.2367095
  72.2999992 132.4389978  33.5770014  72.1179992 133.3549978  33.3660014
  72.4769992 132.0279978  32.7300014  72.2990030 132.5088273  33.4337166
  59.6049992 131.1259978  31.0420014  59.5869992 130.6999978  31.8990014
  60.4099992 130.8069978  30.6330014  59.7112875 131.0246435  31.1039515
  61.7459992 129.8359978  29.6970014  61.5269992 128.9189978  29.8670014
  62.5699992 129.9759978  30.1630014  61.8274702 129.7295511  29.7832527
  64.2829992 130.3059978  30.5460014  64.4959992 129.4179978  30.2590014
  64.3479992 130.2709978  31.5000014  64.3209149 130.1798326  30.6357369
  67.7919992 115.9699978  29.6900014  67.1179992 115.3399978  29.9460014
  68.3559992 115.4859978  29.0870014  67.7760384 115.8183708  29.6435020
  72.9349992 114.0769978  29.8030014  73.5379992 114.6249978  29.3010014
  72.0649992 114.3959978  29.5620014  72.8999157 114.1950373  29.7017910
  74.6619992 115.2159978  28.1360014  75.2729992 114.7019978  27.6090014
  75.0439992 116.0929978  28.1590014  74.7973305 115.2642050  28.0669418
  60.1189992 114.6039978  27.5120014  59.3419992 114.3689978  27.0050014
  60.6489992 113.8069978  27.5210014  60.0843451 114.4641268  27.4438627
  58.9549992 114.4019978  23.3160014  59.3939992 115.0129978  22.7240014
  58.3209992 114.9399978  23.7900014  58.9293859 114.5584064  23.2990305
  64.6979992 114.5299978  27.3250014  65.5719992 114.9189978  27.2960014
  64.5619992 114.3149978  28.2480014  64.7991953 114.5541643  27.4457617
  70.2549992 114.5599978  28.9750014  70.3309992 114.6559978  28.0250014
  69.9799992 113.6529978  29.1030014  70.2281871 114.4504146  28.8623944
  71.6079992 114.5859978  24.6670014  70.9049992 115.2009978  24.4570014
  71.1629992 113.7489978  24.7980014  71.4516550 114.5569668  24.6559837
  58.8559992 130.3499978  24.2130014  58.1709992 130.3119978  23.5460014
  58.8599992 131.2629978  24.5010014  58.7627621 130.4681924  24.1606126
  60.8159992 116.3179978  21.7580014  61.3069992 115.6879978  21.2310014
  61.4389992 116.6139978  22.4210014  60.9675304 116.2717376  21.7754940
  65.8419992 116.6109978  24.2150014  66.0199992 115.9639978  24.8980014
  65.7879992 117.4449978  24.6820014  65.8590678 116.6351604  24.3716301
  67.7199992 131.5589978  22.6110014  68.5859992 131.9259978  22.4330014
  67.4739992 131.1199978  21.7970014  67.8052097 131.5498525  22.4766019
  74.4289992 131.1219978  25.2900014  74.2349992 130.3739978  24.7250014
  74.3899992 131.8799978  24.7070014  74.3971645 131.1220786  25.1338148
  60.0759992 115.1179978  37.0300014  59.7099992 114.3519978  37.4720014
  60.9889992 115.1469978  37.3160014  60.1493172 115.0170324  37.1291890
  62.0489992 114.4679978  38.5650014  62.9479992 114.1939978  38.3810014
  61.6629992 113.7259978  39.0300014  62.1197307 114.3302196  38.6027098
  60.6739992 131.2699978  21.2380014  60.4059992 131.5559978  22.1120014
  61.4449992 130.7239978  21.3910014  60.7415926 131.2352779  21.3781205
  70.4709992 113.8009978  38.7480014  70.5469992 113.3749978  39.6010014
  71.3639992 113.8139978  38.4050014  70.6022303 113.7443493  38.8185497
  73.6469992 129.8739978  37.4400014  72.8649992 129.6869978  36.9200014
  73.5749992 130.8029978  37.6570014  73.5301924 129.9740637  37.3981602
  88.0529992 123.7599978  27.4710014  88.1419992 124.7039978  27.3390014
  87.4149992 123.4849978  26.8130014  87.9789062 123.8519812  27.3639641
  86.9859992 123.0149978  30.8900014  86.9479992 122.3689978  31.5950014
  86.6639992 122.5479978  30.1190014  86.9372679 122.8634276  30.8822921
  79.3539992 122.6289978  32.4830014  79.3959992 122.0039978  33.2060014
  80.0569992 123.2529978  32.6650014  79.4547345 122.6277873  32.6065274
  90.6919992 125.9539978  29.1910014  90.2509992 125.2339978  29.6420014
  90.6789992 126.6749978  29.8210014  90.6299215 125.9529291  29.3378105
  80.2779992 127.0789978  31.0180014  79.9079992 126.2769978  30.6480014
  81.2189992 126.9109978  31.0640014  80.3545984 126.9464638  30.9735603
  76.8879992 120.7389978  26.4100014  76.4399992 121.5849978  26.3920014
  76.3269992 120.1599978  25.8950014  76.7508546 120.7763993  26.3378891
  77.5979992 122.9009978  28.5360014  77.8119992 122.1309978  29.0640014
  78.3359992 122.9909978  27.9330014  77.7270200 122.8078587  28.5267035
  87.8039992 131.0579978  29.4030014  88.4229992 130.3819978  29.1300014
  87.5949992 130.8399978  30.3120014  87.8606056 130.9358869  29.4883967
  85.3749992 125.4469978  31.2960014  85.6789992 124.7609978  30.7010014
  86.0969992 125.5659978  31.9140014  85.5141240 125.3692314  31.2980959
  94.0379992 117.0489978  32.1560014  94.0879992 117.6589978  32.8920014
  94.4639992 117.5099978  31.4330014  94.1024108 117.1947709  32.1590112
  88.5159992 119.8409978  31.6230014  88.6589992 118.8949978  31.6430014
  88.4099992 120.0479978  30.6950014  88.5212403 119.7394797  31.5002239
  81.6709992 117.9429978  28.8960014  81.7139992 118.8029978  28.4770014
  81.2129992 117.3909978  28.2620014  81.6149871 117.9859245  28.7530761
  89.3929992 118.0739978  27.2970014  90.0399992 117.7449978  27.9210014
  89.9029992 118.5909978  26.6740014  89.5504351 118.0989067  27.2981037
  78.2909992 120.3399978  29.6580014  78.9449992 119.7899978  30.0900014
  78.3149992 120.0659978  28.7410014  78.3837199 120.2277167  29.5931668
  83.4479992 121.8899978  28.8730014  84.0639992 121.3629978  29.3820014
  82.8609992 121.2499978  28.4690014  83.4530154 121.7313954  28.8880945
  94.4299992 118.5269978  34.3920014  93.7409992 119.1849978  34.2970014
  94.4449992 118.3289978  35.3290014  94.3377756 118.5902603  34.5055812
  80.4809992 116.8609978  32.9700014  80.2619992 117.3909978  32.2030014
  79.8129992 117.0869978  33.6170014  80.3606975 116.9640967  32.9525140
  87.8499992 126.3609978  26.5140014  87.5549992 126.0379978  25.6620014
  87.5259992 127.2609978  26.5550014  87.7658460 126.4384464  26.4029714
  83.0499992 124.5359978  33.2570014  82.3099992 125.1349978  33.3610014
  83.7639992 125.0899978  32.9420014  83.0453500 124.6927829  33.2286371
  91.1569992 117.3649978  29.2770014  90.9419992 116.5989978  29.8100014
  91.8129992 117.8369978  29.7900014  91.2162673 117.3240728  29.4191990
  80.0749992 118.7529978  30.9220014  80.6889992 119.3859978  31.2950014
  80.5869992 118.2809978  30.2660014  80.2281962 118.7757249  30.8842935
  81.4579992 126.5009978  34.0440014  81.4519992 127.3799978  33.6660014
  80.6039992 126.4169978  34.4690014  81.3417925 126.6099535  34.0496887
  77.5789992 126.1719978  24.8260014  77.3069992 126.4009978  23.9380014
  77.6239992 127.0089978  25.2870014  77.5478097 126.3166163  24.7666683
  91.2039992 127.7929978  31.5390014  90.2619992 127.8519978  31.7010014
  91.4799992 128.6989978  31.4020014  91.1125865 127.9235288  31.5426192
  91.5039992 116.0799978  32.9560014  90.7679992 116.6899978  32.9190014
  92.1879992 116.4949978  32.4300014  91.4955367 116.2197551  32.8798174
  84.5079992 114.1659978  30.4220014  84.3899992 113.2179978  30.3680014
  83.6529992 114.4989978  30.6950014  84.3762805 114.0812202  30.4515079
  89.4559992 129.5739978  28.1640014  89.8809992 128.8669978  27.6790014
  89.7729992 130.3759978  27.7470014  89.5570266 129.5855190  28.0412479
  90.6159992 127.4749978  26.6730014  90.3579992 126.7849978  26.0610014
  90.6869992 127.0319978  27.5180014  90.5903050 127.3206814  26.7035621
  92.3019992 126.0419978  35.1500014  92.4409992 125.4499978  34.4110014
  92.4689992 126.9149978  34.7940014  92.3436193 126.0788896  35.0006211
  86.7739992 123.0039978  24.9230014  86.0629992 123.5389978  24.5710014
  87.4649992 123.0589978  24.2630014  86.7700751 123.0846777  24.7855858
  86.8279992 121.4609978  21.9610014  87.5289992 121.4839978  22.6130014
  87.1299992 120.8329978  21.3050014  86.9648202 121.3792212  21.9615609
  94.1429992 122.3819978  33.2160014  93.4909992 123.0759978  33.3050014
  94.6089992 122.5919978  32.4060014  94.1165937 122.5055019  33.1187533
  90.1799992 123.2129978  25.8740014  89.4479992 123.4419978  26.4480014
  90.6269992 122.4999978  26.3290014  90.1403963 123.1478729  26.0139945
  90.0769992 121.3879978  34.9420014  90.1569992 122.1509978  35.5140014
  89.4759992 121.6669978  34.2520014  90.0066547 121.5302457  34.9270047
  81.8249992 123.8439978  27.7570014  81.4949992 123.4729978  26.9390014
  82.4139992 123.1729978  28.1040014  81.8593970 123.7026063  27.6919404
  83.1919992 127.2719978  30.4380014  83.0969992 126.6929978  29.6820014
  83.9209992 126.9009978  30.9340014  83.2776011 127.1425561  30.4016028
  82.1919992 122.6119978  31.3900014  82.7569992 122.7339978  30.6280014
  82.5109992 123.2499978  32.0290014  82.3124166 122.7148791  31.3720348
  88.5009992 128.1159978  32.1240014  88.2609992 128.7779978  32.7720014
  88.3029992 127.2809978  32.5490014  88.4413826 128.0938115  32.2701566
  83.0719992 127.0119978  36.1080014  82.7609992 127.7939978  36.5630014
  82.4219992 126.8589978  35.4220014  82.9415538 127.0984087  36.0775898
  89.0509992 122.3759978  23.5600014  89.6299992 122.5259978  24.3060014
  89.4649992 122.8459978  22.8360014  89.1863358 122.4600954  23.5643953
  79.9919992 123.2099978  35.3360014  80.0619992 123.8609978  36.0350014
  79.1009992 123.3129978  35.0010014  79.8811690 123.3129249  35.3863043
  86.7769992 129.1119978  26.9950014  87.2509992 129.4079978  27.7720014
  86.2139992 129.8509978  26.7620014  86.7657890 129.2523036  27.0698101
  81.3109992 129.0829978  36.8710014  81.3189992 128.9469978  35.9240014
  80.3949992 128.9659978  37.1230014  81.1882528 129.0485463  36.7753243
  92.7499992 114.1259978  23.3730014  91.8499992 114.2649978  23.6680014
  93.0019992 114.9569978  22.9710014  92.6608683 114.2574055  23.3590232
  80.8159992 122.9129978  25.3460014  80.5239992 123.6809978  24.8550014
  80.1409992 122.2539978  25.1830014  80.6848497 122.9289745  25.2568260
  93.9389992 128.4919978  21.7490014  94.0119992 129.4309978  21.9190014
  94.8439992 128.1869978  21.6930014  94.0714170 128.5793282  21.7647063
  76.9089992 125.2759978  34.1610014  76.4069992 125.2479978  33.3460014
  76.9139992 124.3709978  34.4710014  76.8409832 125.1497486  34.0914121
  76.6589992 128.0569978  31.0450014  77.6049992 127.9119978  31.0260014
  76.5459992 128.8409978  31.5820014  76.7733578 128.1431697  31.1150317
  94.8569992 128.7229978  36.7280014  94.8069992 127.7669978  36.6900014
  94.0299992 128.9899978  37.1290014  94.7383831 128.6284680  36.7770121
  85.8349992 128.2969978  35.6040014  85.9229992 129.1229978  36.0790014
  84.9719992 127.9669978  35.8530014  85.7303357 128.3655468  35.7027653
  86.2499992 132.0689978  25.4100014  86.1739992 131.9479978  24.4630014
  86.2819992 133.0179978  25.5280014  86.2439380 132.1807677  25.2965181
  79.9029992 130.8579978  27.1910014  80.0549992 130.5099978  28.0690014
  79.0519992 130.5009978  26.9350014  79.8088344 130.7620879  27.2766868
  89.3509992 131.2229978  22.4120014  89.7259992 130.4789978  21.9410014
  89.3559992 130.9529978  23.3300014  89.4030098 131.0846392  22.4716629
  89.0199992 131.1489978  25.1610014  88.0849992 131.2489978  25.3400014
  89.2999992 130.4389978  25.7400014  88.9299471 131.0667933  25.2636695
  92.0089992 120.2159978  37.2080014  91.6009992 120.6959978  36.4870014
  92.0489992 119.3099978  36.9000014  91.9586221 120.1592449  37.0678267
  79.1579992 126.5999978  35.2040014  79.3739992 126.2379978  36.0640014
  78.3019992 126.2249978  34.9950014  79.0718810 126.4998837  35.2932680
  81.7759992 115.0699978  31.2000014  80.9149992 114.9829978  30.7920014
  81.7539992 115.9259978  31.6280014  81.6550491 115.1738003  31.2019582
  86.4389992 114.7919978  34.5750014  86.8589992 114.3769978  35.3280014
  85.5059992 114.6129978  34.6920014  86.3703736 114.7109910  34.6938968
  89.7659992 118.5469978  35.4280014  89.2519992 118.4219978  36.2260014
  89.6099992 119.4599978  35.1840014  89.6746967 118.6532123  35.5040937
  90.5279992 123.4079978  21.1890014  90.5699992 123.1859978  20.2590014
  91.3769992 123.8069978  21.3790014  90.6485253 123.4315498  21.0873822
  86.1009992 117.2839978  21.8600014  85.8469992 117.3029978  22.7820014
  85.8439992 116.4129978  21.5580014  86.0314508 117.1688280  21.9454803
  81.8669992 120.0349978  32.2950014  81.2259992 119.9949978  33.0040014
  81.9049992 120.9619978  32.0570014  81.7843010 120.1547668  32.3599946
  81.8639992 120.2559978  27.2070014  80.9719992 119.9159978  27.1480014
  82.3149992 119.8789978  26.4510014  81.8027642 120.1584910  27.0967726
  87.3999992 120.6719978  26.0240014  86.9909992 121.4869978  25.7320014
  88.1199992 120.5319978  25.4100014  87.4414439 120.7645372  25.9010115
  86.5019992 120.8479978  37.5120014  85.9389992 120.1429978  37.8330014
  87.3279992 120.7269978  37.9800014  86.5366674 120.7352165  37.6191751
  88.4049992 120.1179978  28.8380014  88.2089992 120.7239978  28.1230014
  88.5859992 119.2849978  28.4040014  88.4026584 120.0882513  28.6814212
  79.6169992 120.3559978  34.1620014  79.5789992 120.7559978  35.0310014
  79.1269992 119.5389978  34.2520014  79.5455330 120.3002674  34.2931289
  82.9829992 117.7299978  20.9610014  82.5519992 117.2849978  21.6900014
  82.2649992 118.1009978  20.4480014  82.8269176 117.7192052  20.9914930
  76.2259992 117.4719978  28.0130014  76.8559992 117.4429978  28.7320014
  76.6749992 117.0469978  27.2820014  76.3730835 117.4105660  28.0127659
  77.4999992 118.2179978  23.4370014  77.9739992 118.8089978  22.8520014
  76.7819992 118.7479978  23.7840014  77.4678640 118.3705511  23.4037969
  87.6689992 121.7559978  33.5090014  87.9919992 121.1249978  32.8660014
  87.2279992 121.2219978  34.1700014  87.6536379 121.5973468  33.5102582
  84.4459992 117.6839978  28.2930014  83.5349992 117.7409978  28.5820014
  84.9509992 117.6239978  29.1040014  84.3896873 117.6836826  28.4421207
  79.2739992 119.3129978  27.1200014  78.3849992 119.4119978  26.7800014
  79.5709992 118.4709978  26.7740014  79.1924177 119.2127687  27.0266940
  82.9269992 119.3129978  24.7770014  83.8589992 119.4419978  24.9550014
  82.7119992 119.9819978  24.1270014  83.0254472 119.4210806  24.7134891
  88.8509992 116.9189978  31.5580014  88.1739992 117.0499978  32.2210014
  88.3659992 116.7639978  30.7470014  88.6927405 116.9159947  31.5392170
  81.6009992 120.5069978  22.3430014  81.0589992 120.1279978  21.6520014
  82.4349992 120.7019978  21.9150014  81.6394390 120.4814079  22.1904392
  92.1389992 132.5899978  37.8340014  92.3379992 133.0139978  37.0000014
  92.7939992 132.9339978  38.4410014  92.2548522 132.6946301  37.8017852
  79.7369992 125.0639978  37.4420014  80.4689992 125.3189978  38.0040014
  78.9559992 125.2689978  37.9580014  79.7316526 125.1265450  37.5885176
  85.7659992 120.4709978  30.1800014  86.3299992 119.9249978  29.6330014
  85.6179992 119.9499978  30.9690014  85.8233037 120.3256787  30.2117229
  80.7679992 116.6079978  26.5990014  80.4509992 115.7049978  26.5630014
  81.5489992 116.6099978  26.0460014  80.8302431 116.4847797  26.5193102
  84.3919992 118.8599978  32.5940014  83.5569992 119.3139978  32.7050014
  84.9159992 119.1359978  33.3460014  84.3486072 118.9593948  32.7108136
  84.9369992 125.0729978  24.2790014  84.1919992 124.5649978  23.9570014
  84.8019992 125.1219978  25.2250014  84.8168963 125.0101731  24.3628826
  92.0869992 124.2059978  33.0660014  92.7279992 124.6619978  32.5220014
  91.2559992 124.3189978  32.6030014  92.0625287 124.2836921  32.9289887
  88.8339992 117.8869978  22.4780014  87.8959992 117.9979978  22.3270014
  89.1319992 118.7429978  22.7850014  88.7456318 118.0180158  22.4988145
  86.4559992 125.2569978  35.5160014  86.1099992 124.8749978  36.3230014
  86.2559992 126.1899978  35.5870014  86.3815987 125.3309002  35.6360461
  89.5529992 119.7539978  24.1390014  90.4449992 119.6159978  24.4580014
  89.6089992 120.5449978  23.6020014  89.6827325 119.8419918  24.1101217
  80.0609992 124.3679978  30.0490014  80.8059992 124.3649978  29.4470014
  80.1389992 123.5439978  30.5300014  80.1733365 124.2562384  30.0317430
  87.0619992 126.5309978  23.3040014  86.7669992 127.3579978  23.6860014
  86.3589992 125.9119978  23.5010014  86.9266379 126.5604171  23.3828654
  77.0689992 122.8279978  35.3640014  77.2919992 122.4099978  36.1950014
  76.4669992 122.2159978  34.9410014  77.0181513 122.6879606  35.4206740
  84.0859992 122.3449978  37.5770014  83.7899992 122.1799978  36.6810014
  85.0169992 122.1249978  37.5660014  84.1714401 122.2926879  37.4530206
  88.7059992 127.7189978  35.4660014  87.8059992 127.9019978  35.1990014
  88.7399992 127.9779978  36.3870014  88.5873748 127.7790554  35.5539164
  94.4379992 119.9629978  23.8340014  93.8829992 119.5669978  23.1610014
  94.5379992 120.8739978  23.5560014  94.3756816 120.0319505  23.7045033
  94.4009992 125.7639978  36.6710014  93.5499992 126.0019978  36.3030014
  94.9909992 125.7469978  35.9180014  94.3643812 125.7942524  36.5188453
  92.7329992 128.7489978  24.2990014  92.3599992 127.9239978  24.6080014
  93.0099992 128.5659978  23.4010014  92.7193463 128.6112569  24.2199525
  89.8929992 123.5569978  31.3200014  88.9649992 123.3259978  31.2930014
  90.3439992 122.7799978  30.9900014  89.8268165 123.4202774  31.2716790
  82.4359992 127.8859978  27.4530014  82.9639992 128.6589978  27.2530014
  81.5559992 128.1099978  27.1510014  82.3893435 128.0222700  27.3847310
  78.1909992 122.7479978  22.0400014  78.8069992 123.3749978  22.4200014
  77.3289992 123.0639978  22.3120014  78.1587678 122.8764412  22.1287209
  83.8639992 125.5489978  27.0290014  83.6229992 126.4739978  27.0710014
  83.1229992 125.0899978  27.4260014  83.7309206 125.6135915  27.0883769
  84.3779992 129.6979978  33.3440014  84.7409992 130.5519978  33.1110014
  84.9099992 129.4059978  34.0850014  84.4995141 129.7753895  33.4122097
  82.5469992 130.5699978  26.5750014  81.5969992 130.6759978  26.6260014
  82.8989992 131.3909978  26.9190014  82.4645472 130.6954923  26.6284852
  87.9219992 125.7969978  33.0450014  87.4969992 125.5689978  33.8710014
  88.5029992 125.0579978  32.8630014  87.9423395 125.6659545  33.1334414
  90.1249992 126.7259978  22.1190014  90.4789992 126.3459978  22.9230014
  89.1769992 126.6319978  22.2060014  90.0452298 126.6612452  22.2408687
  90.5809992 130.3489978  35.5140014  89.9789992 129.7929978  35.0190014
  90.8619992 131.0159978  34.8880014  90.5365757 130.3630744  35.3615675
  94.6289992 131.2049978  22.3200014  95.3729992 131.7909978  22.1800014
  93.9349992 131.7739978  22.6530014  94.6369809 131.3620818  22.3458590
  78.7029992 117.5819978  34.9220014  77.8109992 117.9199978  34.8540014
  78.6049992 116.7259978  35.3400014  78.5674475 117.5126543  34.9691704
  90.9909992 125.3979978  24.3460014  90.7139992 124.6699978  24.9020014
  91.9189992 125.5169978  24.5510014  91.0784499 125.3144213  24.4498044
  78.3549992 129.3859978  33.3570014  78.5719992 128.4539978  33.3260014
  78.6009992 129.6609978  34.2400014  78.4179809 129.2955686  33.4721691
  84.2159992 127.8379978  20.5660014  84.4549992 127.0889978  20.0190014
  83.9469992 127.4499978  21.3990014  84.2123233 127.6831853  20.6037809
  83.1529992 127.4079978  23.0220014  83.2999992 126.8879978  23.8120014
  83.1499992 128.3149978  23.3290014  83.1727102 127.4593953  23.1715925
  79.6059992 124.6599978  23.5330014  78.9199992 125.0129978  24.1000014
  80.1289992 125.4229978  23.2860014  79.5828402 124.8113901  23.5771801
  87.4379992 117.3229978  33.8120014  88.1369992 117.3969978  34.4620014
  87.0569992 116.4579978  33.9660014  87.4822097 117.2162389  33.9217997
  88.2219992 116.9749978  24.9090014  88.4419992 117.4459978  24.1050014
  88.7809992 117.3689978  25.5790014  88.3276731 117.0927287  24.8895033
  85.8909992 129.1049978  23.7720014  85.0739992 129.6019978  23.8240014
  86.4199992 129.5809978  23.1310014  85.8508125 129.2371989  23.6925306
  85.4219992 118.7029978  25.7440014  86.2339992 119.2069978  25.7900014
  85.1779992 118.5579978  26.6580014  85.5001467 118.7523749  25.8738575
  85.9579992 119.6889978  34.9280014  86.0769992 120.2629978  35.6850014
  86.6129992 119.0009978  35.0430014  86.0628684 119.6745194  35.0471674
  86.3059992 115.7839978  26.6820014  85.9589992 116.4009978  27.3260014
  86.9649992 116.2849978  26.2000014  86.3475090 115.9361575  26.7050681
  83.2289992 130.1489978  23.7530014  83.3899992 130.9489978  23.2530014
  83.0319992 130.4559978  24.6380014  83.2243906 130.2998678  23.8042333
  81.9639992 116.8469978  23.3690014  81.8799992 117.7349978  23.7160014
  82.8539992 116.5819978  23.6010014  82.0728163 116.9327179  23.4478596
  92.1619992 117.5959978  35.7630014  91.2459992 117.8579978  35.6760014
  92.4979992 117.5929978  34.8670014  92.0818499 117.6315163  35.6298766
  90.7649992 121.3459978  29.8590014  89.9669992 120.9309978  29.5310014
  91.2099992 120.6559978  30.3500014  90.7159684 121.1958628  29.8805227
  80.2219992 127.2739978  22.4290014  80.8139992 127.9739978  22.7060014
  80.6809992 126.8409978  21.7100014  80.3651652 127.3112675  22.3696533
  78.5379992 119.9389978  21.5450014  78.4929992 120.8779978  21.7240014
  77.6499992 119.7029978  21.2760014  78.4118166 120.0356687  21.5331524
  91.8509992 130.6019978  31.4810014  91.6949992 131.2809978  30.8240014
  92.7839992 130.6739978  31.6840014  91.9557387 130.7046390  31.4185342
  79.3459992 114.7199978  30.2190014  79.1169992 114.7789978  29.2910014
  78.9039992 113.9289978  30.5250014  79.2548801 114.6210540  30.1334729
  78.2769992 128.6609978  26.3790014  77.4439992 129.1329978  26.4060014
  78.8219992 129.1709978  25.7800014  78.2367857 128.7944791  26.3017142
  77.5649992 131.2729978  37.7090014  78.1049992 131.0569978  38.4690014
  77.0839992 130.4679978  37.5190014  77.5739219 131.1345156  37.7874282
  82.1619992 130.1929978  39.3290014  82.9299992 129.7339978  39.6700014
  82.1409992 129.9669978  38.3990014  82.2642135 130.0996668  39.2499491
  86.2539992 129.7009978  20.7050014  85.6099992 129.0699978  21.0260014
  87.0159992 129.1699978  20.4730014  86.2688058 129.5427902  20.7176038
  88.7389992 128.5729978  38.0580014  88.3879992 127.7159978  38.3020014
  89.4649992 128.7149978  38.6650014  88.7891895 128.4751351  38.1733770
  90.8589992 129.5179978  20.9380014  91.1419992 128.7229978  21.3910014
  91.5979992 129.7509978  20.3770014  90.9977096 129.4407049  20.9241104
  77.4719992 125.0839978  38.6630014  77.6159992 124.1819978  38.3770014
  76.6999992 125.3699978  38.1760014  77.3872733 124.9991798  38.5579532
  81.8129992 125.4269978  20.7960014  81.8779992 124.6329978  21.3260014
  82.4659992 125.3089978  20.1060014  81.9101605 125.3023430  20.7752997
  84.1269992 125.0529978  38.0960014  83.7989992 125.3239978  37.2390014
  84.2789992 124.1119978  38.0080014  84.1026412 124.9629046  37.9667822
  87.1659992 126.4739978  20.5320014  86.8969992 126.6549978  21.4320014
  86.9589992 125.5489978  20.4000014  87.1011191 126.3737119  20.6375524
  89.8619992 124.9689978  35.4790014  90.6069992 125.5579978  35.3600014
  89.1049992 125.5509978  35.5430014  89.8615470 125.1282128  35.4713799
  78.3049992 122.2839978  38.0830014  78.7129992 121.4269978  37.9620014
  78.0439992 122.2979978  39.0040014  78.3256016 122.1685119  38.1909192
  82.9629992 123.3999978  23.1020014  82.5029992 122.9159978  23.7870014
  83.2179992 122.7309978  22.4660014  82.9344856 123.2433669  23.1098397
  82.2519992 121.2929978  35.4580014  81.6329992 121.9669978  35.7380014
  82.5959992 121.6139978  34.6240014  82.2137123 121.4286887  35.3836388
  84.0339992 121.6429978  21.3640014  83.8529992 121.4879978  20.4370014
  84.9839992 121.7509978  21.4090014  84.1376566 121.6363669  21.2430929
  87.2709992 123.7639978  38.7350014  88.2249992 123.8479978  38.7080014
  87.1109992 123.0519978  39.3550014  87.3797182 123.6792842  38.8150733
  93.4239992 123.9969978  20.8100014  93.1499992 123.5729978  19.9970014
  93.4629992 124.9289978  20.5930014  93.3917716 124.0648827  20.6694286
  82.5909992 118.6479978  36.5400014  82.7409992 117.9189978  35.9380014
  82.5929992 119.4249978  35.9810014  82.6117967 118.6532708  36.3820541
  83.0039992 117.0169978  34.0330014  83.5389992 117.4689978  33.3810014
  82.1509992 116.9089978  33.6100014  82.9620374 117.0642665  33.8866710
  84.5849992 122.4569978  34.2720014  85.3359992 122.3009978  33.6990014
  84.2459992 123.3089978  33.9970014  84.6419587 122.5508138  34.1564078
  89.0009992 120.2719978  39.3010014  89.1929992 119.3409978  39.1890014
  89.8589992 120.6969978  39.2900014  89.1432182 120.2020070  39.2841862
  90.3179992 123.0609978  37.3780014  90.0359992 123.7699978  36.8000014
  91.2599992 122.9879978  37.2270014  90.4067921 123.1482193  37.2784225
  81.0699992 119.8459978  38.4510014  80.3019992 119.3129978  38.2410014
  81.7479992 119.5359978  37.8520014  81.0567235 119.7311754  38.3412413
  83.8089992 114.4739978  34.4640014  83.7109992 115.4199978  34.3590014
  83.0669992 114.1009978  33.9880014  83.6952534 114.5531773  34.3852600
  85.0729992 118.7949978  38.0280014  84.8379992 118.5759978  38.9290014
  84.2899992 118.5879978  37.5180014  84.9349095 118.7369892  38.0825353
  87.7889992 117.9229978  37.1030014  86.8409992 117.9549978  37.2350014
  88.1009992 117.2969978  37.7570014  87.7015293 117.8427923  37.2094148
  89.4229992 116.5569978  39.1080014  89.3259992 115.6049978  39.1030014
  89.1009992 116.8249978  39.9690014  89.3662468 116.4630884  39.2236210
  79.2499992 117.7659978  38.1560014  79.4619992 117.0599978  37.5460014
  79.1389992 117.3289978  39.0000014  79.2640269 117.6101921  38.1865873
  84.0309992 113.7679978  37.1350014  84.7429992 113.1279978  37.1210014
  83.9299992 114.0339978  36.2220014  84.1147387 113.7164330  37.0095563
  84.3849992 115.4499978  39.1890014  84.2529992 114.9749978  38.3690014
  83.7849992 116.1949978  39.1340014  84.2859070 115.4855789  39.0693251
  83.9309992 132.3329978  22.3650014  84.8639992 132.4909978  22.5090014
  83.6669992 133.0089978  21.7400014  84.0229911 132.4459373  22.3002722
  77.4989992 126.9699978  21.8480014  78.4129992 127.0489978  22.1210014
  77.5069992 126.2829978  21.1820014  77.6250655 126.8879205  21.7952917
  76.1479992 132.3629978  26.9250014  75.5009992 131.9009978  26.3930014
  76.5029992 131.6909978  27.5080014  76.1073741 132.2089774  26.9309175
  77.0179992 130.4429978  28.7300014  76.6839992 129.5629978  28.9020014
  77.2409992 130.7889978  29.5950014  77.0023721 130.3691938  28.8704168
  94.5669992 131.2529978  31.7110014  94.5449992 131.4379978  32.6500014
  95.2569992 131.8209978  31.3700014  94.6573439 131.3551887  31.7934791
  94.1299992 130.8199978  34.6320014  93.6429992 130.0849978  34.2610014
  94.6789992 130.4259978  35.3100014  94.1375247 130.6661057  34.6728461
  92.5809992 126.6099978  39.2710014  91.7149992 126.5049978  39.6650014
  92.9569992 127.3679978  39.7170014  92.5133401 126.6981708  39.3852620
  93.8819992 124.8659978  24.7850014  94.7319992 125.2869978  24.9120014
  93.8869992 124.1259978  25.3920014  93.9991143 124.8236094  24.8844750
  94.2759992 122.9199978  26.6080014  93.5499992 122.4399978  27.0060014
  94.8579992 123.1249978  27.3410014  94.2552730 122.8820184  26.7614149
  94.0349992 125.7049978  31.5560014  94.8689992 125.3269978  31.2750014
  94.1469992 126.6479978  31.4370014  94.1641917 125.7807943  31.5014861
  92.5219992 128.5829978  33.8630014  91.8739992 128.9079978  34.4880014
  92.0039992 128.1419978  33.1890014  92.3634196 128.5678651  33.8574152
  94.5449992 122.8209978  22.9990014  94.0229992 123.1769978  22.2810014
  94.5119992 123.4959978  23.6780014  94.4690129 122.9609598  22.9923355
  92.8939992 120.0599978  21.5500014  92.9899992 120.7269978  20.8700014
  92.7539992 119.2449978  21.0690014  92.8882040 120.0410671  21.3918378
  92.0629992 121.4409978  27.1710014  91.9129992 120.4959978  27.1510014
  91.7089992 121.7219978  28.0150014  91.9946351 121.3496644  27.2823220
  77.0979992 123.5189978  31.1820014  77.2829992 123.4369978  30.2460014
  77.9479992 123.3949978  31.6050014  77.2380928 123.4910463  31.1112893
  92.9189992 123.4109978  36.8100014  93.5019992 122.6759978  37.0020014
  93.4829992 124.1829978  36.8570014  93.0749781 123.4148145  36.8426164
  94.4159992 121.3139978  37.4950014  93.5529992 120.9349978  37.3290014
  95.0199992 120.5749978  37.4200014  94.3796085 121.1623223  37.4621695
  92.1409992 117.4679978  20.6680014  92.7519992 117.0969978  21.3050014
  91.3039992 117.0469978  20.8640014  92.1114947 117.3602756  20.7817252
  91.7739992 119.0229978  25.6340014  92.0529992 118.1159978  25.7580014
  92.5329992 119.4569978  25.2450014  91.9148619 118.9574502  25.5983795
  92.3849992 119.6049978  31.0700014  93.3179992 119.8169978  31.0350014
  92.1499992 119.7059978  31.9920014  92.4809517 119.6476833  31.1899130
  92.4149992 120.3419978  33.8460014  91.5719992 120.6099978  34.2120014
  92.8569992 121.1639978  33.6350014  92.3594138 120.4898273  33.8675518
  76.6959992 118.7889978  37.3220014  77.6149992 118.6669978  37.5590014
  76.2459992 118.0389978  37.7120014  76.7610087 118.6709608  37.4071410
  94.6979992 114.3219978  39.1990014  95.0469992 113.6679978  38.5940014
  94.8449992 115.1589978  38.7590014  94.7656824 114.3456024  39.0566304
  92.3869992 116.2859978  25.6820014  92.5689992 115.8369978  26.5070014
  91.7869992 115.7019978  25.2180014  92.3308187 116.1455552  25.7322739
  77.9169992 117.1019978  30.2140014  78.3619992 116.3099978  30.5160014
  78.3829992 117.8179978  30.6440014  78.0409718 117.0904534  30.3135265
  76.2209992 120.1009978  31.2830014  76.7129992 119.8799978  30.4920014
  76.5829992 120.9409978  31.5640014  76.3372923 120.1843468  31.2127407
  94.2169992 116.4309978  37.5480014  93.2999992 116.7019978  37.5130014
  94.3399992 115.8959978  36.7640014  94.1079672 116.3957885  37.4371862
  94.2539992 116.3539978  22.2100014  94.6659992 115.6329978  21.7350014
  94.9349992 117.0229978  22.2680014  94.4025536 116.3457766  22.1528024
  76.5349992 116.3589978  25.3370014  75.6099992 116.5669978  25.2080014
  76.9889992 116.8429978  24.6470014  76.4696298 116.4529299  25.2260451
  91.3049992 131.3429978  27.2830014  91.9579992 130.9949978  26.6750014
  91.8159992 131.8309978  27.9290014  91.4632777 131.3613815  27.2872047
  76.4979992 115.0969978  33.6810014  75.8329992 114.8509978  34.3240014
  76.0549992 115.7189978  33.1040014  76.3471168 115.1474214  33.6909848
  78.6899992 128.2719978  37.8260014  77.8689992 128.4469978  37.3650014
  78.4379992 128.1989978  38.7460014  78.5435594 128.2860717  37.8873611
  81.6439992 129.2459978  34.0840014  81.2199992 130.0559978  33.8020014
  82.5489992 129.3319978  33.7820014  81.7082138 129.3684160  34.0046415
  85.9559992 130.6449978  37.0440014  86.1399992 130.3119978  37.9220014
  86.8019992 130.9549978  36.7220014  86.0956484 130.6412979  37.1207617
  88.3009992 131.9309978  36.2880014  88.9779992 131.2979978  36.0480014
  88.6219992 132.3319978  37.0950014  88.4371323 131.8985691  36.3643158
  93.2179992 114.5209978  35.3670014  92.4049992 114.8459978  34.9800014
  93.4509992 113.7599978  34.8340014  93.1381347 114.4626880  35.2419841
  79.0459992 132.5029978  34.1320014  78.3259992 132.9429978  33.6810014
  78.6809992 132.2519978  34.9800014  78.8979643 132.5293369  34.1849129
  81.5129992 132.1029978  33.1620014  80.6489992 132.1749978  33.5660014
  81.4579992 132.6499978  32.3780014  81.3871942 132.1867849  33.1114000
  86.2239992 131.9909978  32.3370014  85.7669992 132.5199978  31.6830014
  86.3869992 132.5939978  33.0620014  86.1834960 132.1449280  32.3455274
  88.5519992 130.8689978  33.2820014  87.6469992 131.0339978  33.0160014
  88.9799992 131.7219978  33.2160014  88.4861537 131.0069134  33.2367095
  91.1559992 132.4389978  33.5770014  90.9739992 133.3549978  33.3660014
  91.3329992 132.0279978  32.7300014  91.1550030 132.5088273  33.4337166
  78.4609992 131.1259978  31.0420014  78.4429992 130.6999978  31.8990014
  79.2659992 130.8069978  30.6330014  78.5672875 131.0246435  31.1039515
  80.6019992 129.8359978  29.6970014  80.3829992 128.9189978  29.8670014
  81.4259992 129.9759978  30.1630014  80.6834702 129.7295511  29.7832527
  83.1389992 130.3059978  30.5460014  83.3519992 129.4179978  30.2590014
  83.2039992 130.2709978  31.5000014  83.1769149 130.1798326  30.6357369
  86.6479992 115.9699978  29.6900014  85.9739992 115.3399978  29.9460014
  87.2119992 115.4859978  29.0870014  86.6320384 115.8183708  29.6435020
  91.7909992 114.0769978  29.8030014  92.3939992 114.6249978  29.3010014
  90.9209992 114.3959978  29.5620014  91.7559157 114.1950373  29.7017910
  93.5179992 115.2159978  28.1360014  94.1289992 114.7019978  27.6090014
  93.8999992 116.0929978  28.1590014  93.6533305 115.2642050  28.0669418
  78.9749992 114.6039978  27.5120014  78.1979992 114.3689978  27.0050014
  79.5049992 113.8069978  27.5210014  78.9403451 114.4641268  27.4438627
  77.8109992 114.4019978  23.3160014  78.2499992 115.0129978  22.7240014
  77.1769992 114.9399978  23.7900014  77.7853859 114.5584064  23.2990305
  83.5539992 114.5299978  27.3250014  84.4279992 114.9189978  27.2960014
  83.4179992 114.3149978  28.2480014  83.6551953 114.5541643  27.4457617
  89.1109992 114.5599978  28.9750014  89.1869992 114.6559978  28.0250014
  88.8359992 113.6529978  29.1030014  89.0841871 114.4504146  28.8623944
  90.4639992 114.5859978  24.6670014  89.7609992 115.2009978  24.4570014
  90.0189992 113.7489978  24.7980014  90.3076550 114.5569668  24.6559837
  77.7119992 130.3499978  24.2130014  77.0269992 130.3119978  23.5460014
  77.7159992 131.2629978  24.5010014  77.6187621 130.4681924  24.1606126
  79.6719992 116.3179978  21.7580014  80.1629992 115.6879978  21.2310014
  80.2949992 116.6139978  22.4210014  79.8235304 116.2717376  21.7754940
  84.6979992 116.6109978  24.2150014  84.8759992 115.9639978  24.8980014
  84.6439992 117.4449978  24.6820014  84.7150678 116.6351604  24.3716301
  86.5759992 131.5589978  22.6110014  87.4419992 131.9259978  22.4330014
  86.3299992 131.1199978  21.7970014  86.6612097 131.5498525  22.4766019
  93.2849992 131.1219978  25.2900014  93.0909992 130.3739978  24.7250014
  93.2459992 131.8799978  24.7070014  93.2531645 131.1220786  25.1338148
  78.9319992 115.1179978  37.0300014  78.5659992 114.3519978  37.4720014
  79.8449992 115.1469978  37.3160014  79.0053172 115.0170324  37.1291890
  80.9049992 114.4679978  38.5650014  81.8039992 114.1939978  38.3810014
  80.5189992 113.7259978  39.0300014  80.9757307 114.3302196  38.6027098
  79.5299992 131.2699978  21.2380014  79.2619992 131.5559978  22.1120014
  80.3009992 130.7239978  21.3910014  79.5975926 131.2352779  21.3781205
  89.3269992 113.8009978  38.7480014  89.4029992 113.3749978  39.6010014
  90.2199992 113.8139978  38.4050014  89.4582303 113.7443493  38.8185497
  92.5029992 129.8739978  37.4400014  91.7209992 129.6869978  36.9200014
  92.4309992 130.8029978  37.6570014  92.3861924 129.9740637  37.3981602
 106.9089992 123.7599978  27.4710014 106.9979992 124.7039978  27.3390014
 106.2709992 123.4849978  26.8130014 106.8349062 123.8519812  27.3639641
 105.8419992 123.0149978  30.8900014 105.8039992 122.3689978  31.5950014
 105.5199992 122.5479978  30.1190014 105.7932679 122.8634276  30.8822921
  98.2099992 122.6289978  32.4830014  98.2519992 122.0039978  33.2060014
  98.9129992 123.2529978  32.6650014  98.3107345 122.6277873  32.6065274
 109.5479992 125.9539978  29.1910014 109.1069992 125.2339978  29.6420014
 109.5349992 126.6749978  29.8210014 109.4859215 125.9529291  29.3378105
  99.1339992 127.0789978  31.0180014  98.7639992 126.2769978  30.6480014
 100.0749992 126.9109978  31.0640014  99.2105984 126.9464638  30.9735603
  95.7439992 120.7389978  26.4100014  95.2959992 121.5849978  26.3920014
  95.1829992 120.1599978  25.8950014  95.6068546 120.7763993  26.3378891
  96.4539992 122.9009978  28.5360014  96.6679992 122.1309978  29.0640014
  97.1919992 122.9909978  27.9330014  96.5830200 122.8078587  28.5267035
 106.6599992 131.0579978  29.4030014 107.2789992 130.3819978  29.1300014
 106.4509992 130.8399978  30.3120014 106.7166056 130.9358869  29.4883967
 104.2309992 125.4469978  31.2960014 104.5349992 124.7609978  30.7010014
 104.9529992 125.5659978  31.9140014 104.3701240 125.3692314  31.2980959
 112.8939992 117.0489978  32.1560014 112.9439992 117.6589978  32.8920014
 113.3199992 117.5099978  31.4330014 112.9584108 117.1947709  32.1590112
 107.3719992 119.8409978  31.6230014 107.5149992 118.8949978  31.6430014
 107.2659992 120.0479978  30.6950014 107.3772403 119.7394797  31.5002239
 100.5269992 117.9429978  28.8960014 100.5699992 118.8029978  28.4770014
 100.0689992 117.3909978  28.2620014 100.4709871 117.9859245  28.7530761
 108.2489992 118.0739978  27.2970014 108.8959992 117.7449978  27.9210014
 108.7589992 118.5909978  26.6740014 108.4064351 118.0989067  27.2981037
  97.1469992 120.3399978  29.6580014  97.8009992 119.7899978  30.0900014
  97.1709992 120.0659978  28.7410014  97.2397199 120.2277167  29.5931668
 102.3039992 121.8899978  28.8730014 102.9199992 121.3629978  29.3820014
 101.7169992 121.2499978  28.4690014 102.3090154 121.7313954  28.8880945
 113.2859992 118.5269978  34.3920014 112.5969992 119.1849978  34.2970014
 113.3009992 118.3289978  35.3290014 113.1937756 118.5902603  34.5055812
  99.3369992 116.8609978  32.9700014  99.1179992 117.3909978  32.2030014
  98.6689992 117.0869978  33.6170014  99.2166975 116.9640967  32.9525140
 106.7059992 126.3609978  26.5140014 106.4109992 126.0379978  25.6620014
 106.3819992 127.2609978  26.5550014 106.6218460 126.4384464  26.4029714
 101.9059992 124.5359978  33.2570014 101.1659992 125.1349978  33.3610014
 102.6199992 125.0899978  32.9420014 101.9013500 124.6927829  33.2286371
 110.0129992 117.3649978  29.2770014 109.7979992 116.5989978  29.8100014
 110.6689992 117.8369978  29.7900014 110.0722673 117.3240728  29.4191990
  98.9309992 118.7529978  30.9220014  99.5449992 119.3859978  31.2950014
  99.4429992 118.2809978  30.2660014  99.0841962 118.7757249  30.8842935
 100.3139992 126.5009978  34.0440014 100.3079992 127.3799978  33.6660014
  99.4599992 126.4169978  34.4690014 100.1977925 126.6099535  34.0496887
  96.4349992 126.1719978  24.8260014  96.1629992 126.4009978  23.9380014
  96.4799992 127.0089978  25.2870014  96.4038097 126.3166163  24.7666683
 110.0599992 127.7929978  31.5390014 109.1179992 127.8519978  31.7010014
 110.3359992 128.6989978  31.4020014 109.9685865 127.9235288  31.5426192
 110.3599992 116.0799978  32.9560014 109.6239992 116.6899978  32.9190014
 111.0439992 116.4949978  32.4300014 110.3515367 116.2197551  32.8798174
 103.3639992 114.1659978  30.4220014 103.2459992 113.2179978  30.3680014
 102.5089992 114.4989978  30.6950014 103.2322805 114.0812202  30.4515079
 108.3119992 129.5739978  28.1640014 108.7369992 128.8669978  27.6790014
 108.6289992 130.3759978  27.7470014 108.4130266 129.5855190  28.0412479
 109.4719992 127.4749978  26.6730014 109.2139992 126.7849978  26.0610014
 109.5429992 127.0319978  27.5180014 109.4463050 127.3206814  26.7035621
 111.1579992 126.0419978  35.1500014 111.2969992 125.4499978  34.4110014
 111.3249992 126.9149978  34.7940014 111.1996193 126.0788896  35.0006211
 105.6299992 123.0039978  24.9230014 104.9189992 123.5389978  24.5710014
 106.3209992 123.0589978  24.2630014 105.6260751 123.0846777  24.7855858
 105.6839992 121.4609978  21.9610014 106.3849992 121.4839978  22.6130014
 105.9859992 120.8329978  21.3050014 105.8208202 121.3792212  21.9615609
 112.9989992 122.3819978  33.2160014 112.3469992 123.0759978  33.3050014
 113.4649992 122.5919978  32.4060014 112.9725937 122.5055019  33.1187533
 109.0359992 123.2129978  25.8740014 108.3039992 123.4419978  26.4480014
 109.4829992 122.4999978  26.3290014 108.9963963 123.1478729  26.0139945
 108.9329992 121.3879978  34.9420014 109.0129992 122.1509978  35.5140014
 108.3319992 121.6669978  34.2520014 108.8626547 121.5302457  34.9270047
 100.6809992 123.8439978  27.7570014 100.3509992 123.4729978  26.9390014
 101.2699992 123.1729978  28.1040014 100.7153970 123.7026063  27.6919404
 102.0479992 127.2719978  30.4380014 101.9529992 126.6929978  29.6820014
 102.7769992 126.9009978  30.9340014 102.1336011 127.1425561  30.4016028
 101.0479992 122.6119978  31.3900014 101.6129992 122.7339978  30.6280014
 101.3669992 123.2499978  32.0290014 101.1684166 122.7148791  31.3720348
 107.3569992 128.1159978  32.1240014 107.1169992 128.7779978  32.7720014
 107.1589992 127.2809978  32.5490014 107.2973826 128.0938115  32.2701566
 101.9279992 127.0119978  36.1080014 101.6169992 127.7939978  36.5630014
 101.2779992 126.8589978  35.4220014 101.7975538 127.0984087  36.0775898
 107.9069992 122.3759978  23.5600014 108.4859992 122.5259978  24.3060014
 108.3209992 122.8459978  22.8360014 108.0423358 122.4600954  23.5643953
  98.8479992 123.2099978  35.3360014  98.9179992 123.8609978  36.0350014
  97.9569992 123.3129978  35.0010014  98.7371690 123.3129249  35.3863043
 105.6329992 129.1119978  26.9950014 106.1069992 129.4079978  27.7720014
 105.0699992 129.8509978  26.7620014 105.6217890 129.2523036  27.0698101
 100.1669992 129.0829978  36.8710014 100.1749992 128.9469978  35.9240014
  99.2509992 128.9659978  37.1230014 100.0442528 129.0485463  36.7753243
 111.6059992 114.1259978  23.3730014 110.7059992 114.2649978  23.6680014
 111.8579992 114.9569978  22.9710014 111.5168683 114.2574055  23.3590232
  99.6719992 122.9129978  25.3460014  99.3799992 123.6809978  24.8550014
  98.9969992 122.2539978  25.1830014  99.5408497 122.9289745  25.2568260
 112.7949992 128.4919978  21.7490014 112.8679992 129.4309978  21.9190014
 113.6999992 128.1869978  21.6930014 112.9274170 128.5793282  21.7647063
  95.7649992 125.2759978  34.1610014  95.2629992 125.2479978  33.3460014
  95.7699992 124.3709978  34.4710014  95.6969832 125.1497486  34.0914121
  95.5149992 128.0569978  31.0450014  96.4609992 127.9119978  31.0260014
  95.4019992 128.8409978  31.5820014  95.6293578 128.1431697  31.1150317
 113.7129992 128.7229978  36.7280014 113.6629992 127.7669978  36.6900014
 112.8859992 128.9899978  37.1290014 113.5943831 128.6284680  36.7770121
 104.6909992 128.2969978  35.6040014 104.7789992 129.1229978  36.0790014
 103.8279992 127.9669978  35.8530014 104.5863357 128.3655468  35.7027653
 105.1059992 132.0689978  25.4100014 105.0299992 131.9479978  24.4630014
 105.1379992 133.0179978  25.5280014 105.0999380 132.1807677  25.2965181
  98.7589992 130.8579978  27.1910014  98.9109992 130.5099978  28.0690014
  97.9079992 130.5009978  26.9350014  98.6648344 130.7620879  27.2766868
 108.2069992 131.2229978  22.4120014 108.5819992 130.4789978  21.9410014
 108.2119992 130.9529978  23.3300014 108.2590098 131.0846392  22.4716629
 107.8759992 131.1489978  25.1610014 106.9409992 131.2489978  25.3400014
 108.1559992 130.4389978  25.7400014 107.7859471 131.0667933  25.2636695
 110.8649992 120.2159978  37.2080014 110.4569992 120.6959978  36.4870014
 110.9049992 119.3099978  36.9000014 110.8146221 120.1592449  37.0678267
  98.0139992 126.5999978  35.2040014  98.2299992 126.2379978  36.0640014
  97.1579992 126.2249978  34.9950014  97.9278810 126.4998837  35.2932680
 100.6319992 115.0699978  31.2000014  99.7709992 114.9829978  30.7920014
 100.6099992 115.9259978  31.6280014 100.5110491 115.1738003  31.2019582
 105.2949992 114.7919978  34.5750014 105.7149992 114.3769978  35.3280014
 104.3619992 114.6129978  34.6920014 105.2263736 114.7109910  34.6938968
 108.6219992 118.5469978  35.4280014 108.1079992 118.4219978  36.2260014
 108.4659992 119.4599978  35.1840014 108.5306967 118.6532123  35.5040937
 109.3839992 123.4079978  21.1890014 109.4259992 123.1859978  20.2590014
 110.2329992 123.8069978  21.3790014 109.5045253 123.4315498  21.0873822
 104.9569992 117.2839978  21.8600014 104.7029992 117.3029978  22.7820014
 104.6999992 116.4129978  21.5580014 104.8874508 117.1688280  21.9454803
 100.7229992 120.0349978  32.2950014 100.0819992 119.9949978  33.0040014
 100.7609992 120.9619978  32.0570014 100.6403010 120.1547668  32.3599946
 100.7199992 120.2559978  27.2070014  99.8279992 119.9159978  27.1480014
 101.1709992 119.8789978  26.4510014 100.6587642 120.1584910  27.0967726
 106.2559992 120.6719978  26.0240014 105.8469992 121.4869978  25.7320014
 106.9759992 120.5319978  25.4100014 106.2974439 120.7645372  25.9010115
 105.3579992 120.8479978  37.5120014 104.7949992 120.1429978  37.8330014
 106.1839992 120.7269978  37.9800014 105.3926674 120.7352165  37.6191751
 107.2609992 120.1179978  28.8380014 107.0649992 120.7239978  28.1230014
 107.4419992 119.2849978  28.4040014 107.2586584 120.0882513  28.6814212
  98.4729992 120.3559978  34.1620014  98.4349992 120.7559978  35.0310014
  97.9829992 119.5389978  34.2520014  98.4015330 120.3002674  34.2931289
 101.8389992 117.7299978  20.9610014 101.4079992 117.2849978  21.6900014
 101.1209992 118.1009978  20.4480014 101.6829176 117.7192051  20.9914930
  95.0819992 117.4719978  28.0130014  95.7119992 117.4429978  28.7320014
  95.5309992 117.0469978  27.2820014  95.2290835 117.4105660  28.0127659
  96.3559992 118.2179978  23.4370014  96.8299992 118.8089978  22.8520014
  95.6379992 118.7479978  23.7840014  96.3238640 118.3705511  23.4037969
 106.5249992 121.7559978  33.5090014 106.8479992 121.1249978  32.8660014
 106.0839992 121.2219978  34.1700014 106.5096379 121.5973468  33.5102582
 103.3019992 117.6839978  28.2930014 102.3909992 117.7409978  28.5820014
 103.8069992 117.6239978  29.1040014 103.2456873 117.6836826  28.4421207
  98.1299992 119.3129978  27.1200014  97.2409992 119.4119978  26.7800014
  98.4269992 118.4709978  26.7740014  98.0484177 119.2127687  27.0266940
 101.7829992 119.3129978  24.7770014 102.7149992 119.4419978  24.9550014
 101.5679992 119.9819978  24.1270014 101.8814472 119.4210806  24.7134891
 107.7069992 116.9189978  31.5580014 107.0299992 117.0499978  32.2210014
 107.2219992 116.7639978  30.7470014 107.5487405 116.9159947  31.5392170
 100.4569992 120.5069978  22.3430014  99.9149992 120.1279978  21.6520014
 101.2909992 120.7019978  21.9150014 100.4954390 120.4814079  22.1904392
 110.9949992 132.5899978  37.8340014 111.1939992 133.0139978  37.0000014
 111.6499992 132.9339978  38.4410014 111.1108522 132.6946301  37.8017852
  98.5929992 125.0639978  37.4420014  99.3249992 125.3189978  38.0040014
  97.8119992 125.2689978  37.9580014  98.5876526 125.1265450  37.5885176
 104.6219992 120.4709978  30.1800014 105.1859992 119.9249978  29.6330014
 104.4739992 119.9499978  30.9690014 104.6793037 120.3256787  30.2117229
  99.6239992 116.6079978  26.5990014  99.3069992 115.7049978  26.5630014
 100.4049992 116.6099978  26.0460014  99.6862431 116.4847797  26.5193102
 103.2479992 118.8599978  32.5940014 102.4129992 119.3139978  32.7050014
 103.7719992 119.1359978  33.3460014 103.2046072 118.9593948  32.7108136
 103.7929992 125.0729978  24.2790014 103.0479992 124.5649978  23.9570014
 103.6579992 125.1219978  25.2250014 103.6728963 125.0101731  24.3628826
 110.9429992 124.2059978  33.0660014 111.5839992 124.6619978  32.5220014
 110.1119992 124.3189978  32.6030014 110.9185287 124.2836921  32.9289887
 107.6899992 117.8869978  22.4780014 106.7519992 117.9979978  22.3270014
 107.9879992 118.7429978  22.7850014 107.6016318 118.0180158  22.4988145
 105.3119992 125.2569978  35.5160014 104.9659992 124.8749978  36.3230014
 105.1119992 126.1899978  35.5870014 105.2375987 125.3309002  35.6360461
 108.4089992 119.7539978  24.1390014 109.3009992 119.6159978  24.4580014
 108.4649992 120.5449978  23.6020014 108.5387325 119.8419918  24.1101217
  98.9169992 124.3679978  30.0490014  99.6619992 124.3649978  29.4470014
  98.9949992 123.5439978  30.5300014  99.0293365 124.2562384  30.0317430
 105.9179992 126.5309978  23.3040014 105.6229992 127.3579978  23.6860014
 105.2149992 125.9119978  23.5010014 105.7826379 126.5604171  23.3828654
  95.9249992 122.8279978  35.3640014  96.1479992 122.4099978  36.1950014
  95.3229992 122.2159978  34.9410014  95.8741513 122.6879606  35.4206740
 102.9419992 122.3449978  37.5770014 102.6459992 122.1799978  36.6810014
 103.8729992 122.1249978  37.5660014 103.0274401 122.2926879  37.4530206
 107.5619992 127.7189978  35.4660014 106.6619992 127.9019978  35.1990014
 107.5959992 127.9779978  36.3870014 107.4433748 127.7790554  35.5539164
 113.2939992 119.9629978  23.8340014 112.7389992 119.5669978  23.1610014
 113.3939992 120.8739978  23.5560014 113.2316816 120.0319505  23.7045033
 113.2569992 125.7639978  36.6710014 112.4059992 126.0019978  36.3030014
 113.8469992 125.7469978  35.9180014 113.2203812 125.7942524  36.5188453
 111.5889992 128.7489978  24.2990014 111.2159992 127.9239978  24.6080014
 111.8659992 128.5659978  23.4010014 111.5753463 128.6112569  24.2199525
 108.7489992 123.5569978  31.3200014 107.8209992 123.3259978  31.2930014
 109.1999992 122.7799978  30.9900014 108.6828165 123.4202774  31.2716790
 101.2919992 127.8859978  27.4530014 101.8199992 128.6589978  27.2530014
 100.4119992 128.1099978  27.1510014 101.2453435 128.0222700  27.3847310
  97.0469992 122.7479978  22.0400014  97.6629992 123.3749978  22.4200014
  96.1849992 123.0639978  22.3120014  97.0147678 122.8764412  22.1287209
 102.7199992 125.5489978  27.0290014 102.4789992 126.4739978  27.0710014
 101.9789992 125.0899978  27.4260014 102.5869206 125.6135915  27.0883769
 103.2339992 129.6979978  33.3440014 103.5969992 130.5519978  33.1110014
 103.7659992 129.4059978  34.0850014 103.3555141 129.7753895  33.4122097
 101.4029992 130.5699978  26.5750014 100.4529992 130.6759978  26.6260014
 101.7549992 131.3909978  26.9190014 101.3205472 130.6954923  26.6284852
 106.7779992 125.7969978  33.0450014 106.3529992 125.5689978  33.8710014
 107.3589992 125.0579978  32.8630014 106.7983395 125.6659545  33.1334414
 108.9809992 126.7259978  22.1190014 109.3349992 126.3459978  22.9230014
 108.0329992 126.6319978  22.2060014 108.9012298 126.6612452  22.2408687
 109.4369992 130.3489978  35.5140014 108.8349992 129.7929978  35.0190014
 109.7179992 131.0159978  34.8880014 109.3925757 130.3630744  35.3615675
 113.4849992 131.2049978  22.3200014 114.2289992 131.7909978  22.1800014
 112.7909992 131.7739978  22.6530014 113.4929809 131.3620818  22.3458590
  97.5589992 117.5819978  34.9220014  96.6669992 117.9199978  34.8540014
  97.4609992 116.7259978  35.3400014  97.4234475 117.5126543  34.9691704
 109.8469992 125.3979978  24.3460014 109.5699992 124.6699978  24.9020014
 110.7749992 125.5169978  24.5510014 109.9344499 125.3144213  24.4498044
  97.2109992 129.3859978  33.3570014  97.4279992 128.4539978  33.3260014
  97.4569992 129.6609978  34.2400014  97.2739809 129.2955686  33.4721691
 103.0719992 127.8379978  20.5660014 103.3109992 127.0889978  20.0190014
 102.8029992 127.4499978  21.3990014 103.0683233 127.6831853  20.6037809
 102.0089992 127.4079978  23.0220014 102.1559992 126.8879978  23.8120014
 102.0059992 128.3149978  23.3290014 102.0287102 127.4593953  23.1715925
  98.4619992 124.6599978  23.5330014  97.7759992 125.0129978  24.1000014
  98.9849992 125.4229978  23.2860014  98.4388402 124.8113901  23.5771801
 106.2939992 117.3229978  33.8120014 106.9929992 117.3969978  34.4620014
 105.9129992 116.4579978  33.9660014 106.3382097 117.2162389  33.9217997
 107.0779992 116.9749978  24.9090014 107.2979992 117.4459978  24.1050014
 107.6369992 117.3689978  25.5790014 107.1836731 117.0927287  24.8895033
 104.7469992 129.1049978  23.7720014 103.9299992 129.6019978  23.8240014
 105.2759992 129.5809978  23.1310014 104.7068125 129.2371989  23.6925306
 104.2779992 118.7029978  25.7440014 105.0899992 119.2069978  25.7900014
 104.0339992 118.5579978  26.6580014 104.3561467 118.7523749  25.8738575
 104.8139992 119.6889978  34.9280014 104.9329992 120.2629978  35.6850014
 105.4689992 119.0009978  35.0430014 104.9188684 119.6745194  35.0471674
 105.1619992 115.7839978  26.6820014 104.8149992 116.4009978  27.3260014
 105.8209992 116.2849978  26.2000014 105.2035090 115.9361575  26.7050681
 102.0849992 130.1489978  23.7530014 102.2459992 130.9489978  23.2530014
 101.8879992 130.4559978  24.6380014 102.0803906 130.2998678  23.8042333
 100.8199992 116.8469978  23.3690014 100.7359992 117.7349978  23.7160014
 101.7099992 116.5819978  23.6010014 100.9288163 116.9327179  23.4478596
 111.0179992 117.5959978  35.7630014 110.1019992 117.8579978  35.6760014
 111.3539992 117.5929978  34.8670014 110.9378499 117.6315163  35.6298766
 109.6209992 121.3459978  29.8590014 108.8229992 120.9309978  29.5310014
 110.0659992 120.6559978  30.3500014 109.5719684 121.1958628  29.8805227
  99.0779992 127.2739978  22.4290014  99.6699992 127.9739978  22.7060014
  99.5369992 126.8409978  21.7100014  99.2211652 127.3112675  22.3696533
  97.3939992 119.9389978  21.5450014  97.3489992 120.8779978  21.7240014
  96.5059992 119.7029978  21.2760014  97.2678166 120.0356687  21.5331524
 110.7069992 130.6019978  31.4810014 110.5509992 131.2809978  30.8240014
 111.6399992 130.6739978  31.6840014 110.8117387 130.7046390  31.4185342
  98.2019992 114.7199978  30.2190014  97.9729992 114.7789978  29.2910014
  97.7599992 113.9289978  30.5250014  98.1108801 114.6210540  30.1334729
  97.1329992 128.6609978  26.3790014  96.2999992 129.1329978  26.4060014
  97.6779992 129.1709978  25.7800014  97.0927857 128.7944791  26.3017142
  96.4209992 131.2729978  37.7090014  96.9609992 131.0569978  38.4690014
  95.9399992 130.4679978  37.5190014  96.4299219 131.1345156  37.7874282
 101.0179992 130.1929978  39.3290014 101.7859992 129.7339978  39.6700014
 100.9969992 129.9669978  38.3990014 101.1202135 130.0996668  39.2499491
 105.1099992 129.7009978  20.7050014 104.4659992 129.0699978  21.0260014
 105.8719992 129.1699978  20.4730014 105.1248058 129.5427902  20.7176038
 107.5949992 128.5729978  38.0580014 107.2439992 127.7159978  38.3020014
 108.3209992 128.7149978  38.6650014 107.6451895 128.4751351  38.1733770
 109.7149992 129.5179978  20.9380014 109.9979992 128.7229978  21.3910014
 110.4539992 129.7509978  20.3770014 109.8537096 129.4407049  20.9241104
  96.3279992 125.0839978  38.6630014  96.4719992 124.1819978  38.3770014
  95.5559992 125.3699978  38.1760014  96.2432733 124.9991798  38.5579532
 100.6689992 125.4269978  20.7960014 100.7339992 124.6329978  21.3260014
 101.3219992 125.3089978  20.1060014 100.7661605 125.3023430  20.7752997
 102.9829992 125.0529978  38.0960014 102.6549992 125.3239978  37.2390014
 103.1349992 124.1119978  38.0080014 102.9586412 124.9629046  37.9667822
 106.0219992 126.4739978  20.5320014 105.7529992 126.6549978  21.4320014
 105.8149992 125.5489978  20.4000014 105.9571191 126.3737119  20.6375524
 108.7179992 124.9689978  35.4790014 109.4629992 125.5579978  35.3600014
 107.9609992 125.5509978  35.5430014 108.7175470 125.1282128  35.4713799
  97.1609992 122.2839978  38.0830014  97.5689992 121.4269978  37.9620014
  96.8999992 122.2979978  39.0040014  97.1816016 122.1685119  38.1909192
 101.8189992 123.3999978  23.1020014 101.3589992 122.9159978  23.7870014
 102.0739992 122.7309978  22.4660014 101.7904856 123.2433669  23.1098397
 101.1079992 121.2929978  35.4580014 100.4889992 121.9669978  35.7380014
 101.4519992 121.6139978  34.6240014 101.0697123 121.4286887  35.3836388
 102.8899992 121.6429978  21.3640014 102.7089992 121.4879978  20.4370014
 103.8399992 121.7509978  21.4090014 102.9936566 121.6363669  21.2430929
 106.1269992 123.7639978  38.7350014 107.0809992 123.8479978  38.7080014
 105.9669992 123.0519978  39.3550014 106.2357182 123.6792842  38.8150733
 112.2799992 123.9969978  20.8100014 112.0059992 123.5729978  19.9970014
 112.3189992 124.9289978  20.5930014 112.2477716 124.0648827  20.6694286
 101.4469992 118.6479978  36.5400014 101.5969992 117.9189978  35.9380014
 101.4489992 119.4249978  35.9810014 101.4677967 118.6532708  36.3820541
 101.8599992 117.0169978  34.0330014 102.3949992 117.4689978  33.3810014
 101.0069992 116.9089978  33.6100014 101.8180374 117.0642665  33.8866710
 103.4409992 122.4569978  34.2720014 104.1919992 122.3009978  33.6990014
 103.1019992 123.3089978  33.9970014 103.4979587 122.5508138  34.1564078
 107.8569992 120.2719978  39.3010014 108.0489992 119.3409978  39.1890014
 108.7149992 120.6969978  39.2900014 107.9992182 120.2020070  39.2841862
 109.1739992 123.0609978  37.3780014 108.8919992 123.7699978  36.8000014
 110.1159992 122.9879978  37.2270014 109.2627921 123.1482193  37.2784225
  99.9259992 119.8459978  38.4510014  99.1579992 119.3129978  38.2410014
 100.6039992 119.5359978  37.8520014  99.9127235 119.7311754  38.3412413
 102.6649992 114.4739978  34.4640014 102.5669992 115.4199978  34.3590014
 101.9229992 114.1009978  33.9880014 102.5512534 114.5531773  34.3852600
 103.9289992 118.7949978  38.0280014 103.6939992 118.5759978  38.9290014
 103.1459992 118.5879978  37.5180014 103.7909095 118.7369892  38.0825353
 106.6449992 117.9229978  37.1030014 105.6969992 117.9549978  37.2350014
 106.9569992 117.2969978  37.7570014 106.5575293 117.8427923  37.2094148
 108.2789992 116.5569978  39.1080014 108.1819992 115.6049978  39.1030014
 107.9569992 116.8249978  39.9690014 108.2222468 116.4630884  39.2236210
  98.1059992 117.7659978  38.1560014  98.3179992 117.0599978  37.5460014
  97.9949992 117.3289978  39.0000014  98.1200269 117.6101921  38.1865873
 102.8869992 113.7679978  37.1350014 103.5989992 113.1279978  37.1210014
 102.7859992 114.0339978  36.2220014 102.9707387 113.7164330  37.0095563
 103.2409992 115.4499978  39.1890014 103.1089992 114.9749978  38.3690014
 102.6409992 116.1949978  39.1340014 103.1419070 115.4855789  39.0693251
 102.7869992 132.3329978  22.3650014 103.7199992 132.4909978  22.5090014
 102.5229992 133.0089978  21.7400014 102.8789911 132.4459373  22.3002722
  96.3549992 126.9699978  21.8480014  97.2689992 127.0489978  22.1210014
  96.3629992 126.2829978  21.1820014  96.4810655 126.8879205  21.7952917
  95.0039992 132.3629978  26.9250014  94.3569992 131.9009978  26.3930014
  95.3589992 131.6909978  27.5080014  94.9633741 132.2089774  26.9309175
  95.8739992 130.4429978  28.7300014  95.5399992 129.5629978  28.9020014
  96.0969992 130.7889978  29.5950014  95.8583721 130.3691938  28.8704168
 113.4229992 131.2529978  31.7110014 113.4009992 131.4379978  32.6500014
 114.1129992 131.8209978  31.3700014 113.5133439 131.3551887  31.7934791
 112.9859992 130.8199978  34.6320014 112.4989992 130.0849978  34.2610014
 113.5349992 130.4259978  35.3100014 112.9935247 130.6661057  34.6728461
 111.4369992 126.6099978  39.2710014 110.5709992 126.5049978  39.6650014
 111.8129992 127.3679978  39.7170014 111.3693401 126.6981708  39.3852620
 112.7379992 124.8659978  24.7850014 113.5879992 125.2869978  24.9120014
 112.7429992 124.1259978  25.3920014 112.8551143 124.8236094  24.8844750
 113.1319992 122.9199978  26.6080014 112.4059992 122.4399978  27.0060014
 113.7139992 123.1249978  27.3410014 113.1112730 122.8820184  26.7614149
 112.8909992 125.7049978  31.5560014 113.7249992 125.3269978  31.2750014
 113.0029992 126.6479978  31.4370014 113.0201917 125.7807943  31.5014861
 111.3779992 128.5829978  33.8630014 110.7299992 128.9079978  34.4880014
 110.8599992 128.1419978  33.1890014 111.2194196 128.5678651  33.8574152
 113.4009992 122.8209978  22.9990014 112.8789992 123.1769978  22.2810014
 113.3679992 123.4959978  23.6780014 113.3250129 122.9609598  22.9923355
 111.7499992 120.0599978  21.5500014 111.8459992 120.7269978  20.8700014
 111.6099992 119.2449978  21.0690014 111.7442040 120.0410671  21.3918378
 110.9189992 121.4409978  27.1710014 110.7689992 120.4959978  27.1510014
 110.5649992 121.7219978  28.0150014 110.8506351 121.3496644  27.2823220
  95.9539992 123.5189978  31.1820014  96.1389992 123.4369978  30.2460014
  96.8039992 123.3949978  31.6050014  96.0940928 123.4910463  31.1112893
 111.7749992 123.4109978  36.8100014 112.3579992 122.6759978  37.0020014
 112.3389992 124.1829978  36.8570014 111.9309781 123.4148145  36.8426164
 113.2719992 121.3139978  37.4950014 112.4089992 120.9349978  37.3290014
 113.8759992 120.5749978  37.4200014 113.2356085 121.1623223  37.4621695
 110.9969992 117.4679978  20.6680014 111.6079992 117.0969978  21.3050014
 110.1599992 117.0469978  20.8640014 110.9674947 117.3602756  20.7817252
 110.6299992 119.0229978  25.6340014 110.9089992 118.1159978  25.7580014
 111.3889992 119.4569978  25.2450014 110.7708619 118.9574502  25.5983795
 111.2409992 119.6049978  31.0700014 112.1739992 119.8169978  31.0350014
 111.0059992 119.7059978  31.9920014 111.3369517 119.6476833  31.1899130
 111.2709992 120.3419978  33.8460014 110.4279992 120.6099978  34.2120014
 111.7129992 121.1639978  33.6350014 111.2154138 120.4898273  33.8675518
  95.5519992 118.7889978  37.3220014  96.4709992 118.6669978  37.5590014
  95.1019992 118.0389978  37.7120014  95.6170087 118.6709608  37.4071410
 113.5539992 114.3219978  39.1990014 113.9029992 113.6679978  38.5940014
 113.7009992 115.1589978  38.7590014 113.6216824 114.3456024  39.0566304
 111.2429992 116.2859978  25.6820014 111.4249992 115.8369978  26.5070014
 110.6429992 115.7019978  25.2180014 111.1868187 116.1455552  25.7322739
  96.7729992 117.1019978  30.2140014  97.2179992 116.3099978  30.5160014
  97.2389992 117.8179978  30.6440014  96.8969718 117.0904534  30.3135265
  95.0769992 120.1009978  31.2830014  95.5689992 119.8799978  30.4920014
  95.4389992 120.9409978  31.5640014  95.1932923 120.1843468  31.2127407
 113.0729992 116.4309978  37.5480014 112.1559992 116.7019978  37.5130014
 113.1959992 115.8959978  36.7640014 112.9639672 116.3957885  37.4371862
 113.1099992 116.3539978  22.2100014 113.5219992 115.6329978  21.7350014
 113.7909992 117.0229978  22.2680014 113.2585536 116.3457766  22.1528024
  95.3909992 116.3589978  25.3370014  94.4659992 116.5669978  25.2080014
  95.8449992 116.8429978  24.6470014  95.3256298 116.4529299  25.2260451
 110.1609992 131.3429978  27.2830014 110.8139992 130.9949978  26.6750014
 110.6719992 131.8309978  27.9290014 110.3192777 131.3613815  27.2872047
  95.3539992 115.0969978  33.6810014  94.6889992 114.8509978  34.3240014
  94.9109992 115.7189978  33.1040014  95.2031168 115.1474214  33.6909848
  97.5459992 128.2719978  37.8260014  96.7249992 128.4469978  37.3650014
  97.2939992 128.1989978  38.7460014  97.3995594 128.2860717  37.8873611
 100.4999992 129.2459978  34.0840014 100.0759992 130.0559978  33.8020014
 101.4049992 129.3319978  33.7820014 100.5642138 129.3684160  34.0046415
 104.8119992 130.6449978  37.0440014 104.9959992 130.3119978  37.9220014
 105.6579992 130.9549978  36.7220014 104.9516484 130.6412979  37.1207617
 107.1569992 131.9309978  36.2880014 107.8339992 131.2979978  36.0480014
 107.4779992 132.3319978  37.0950014 107.2931323 131.8985691  36.3643158
 112.0739992 114.5209978  35.3670014 111.2609992 114.8459978  34.9800014
 112.3069992 113.7599978  34.8340014 111.9941347 114.4626880  35.2419841
  97.9019992 132.5029978  34.1320014  97.1819992 132.9429978  33.6810014
  97.5369992 132.2519978  34.9800014  97.7539643 132.5293369  34.1849129
 100.3689992 132.1029978  33.1620014  99.5049992 132.1749978  33.5660014
 100.3139992 132.6499978  32.3780014 100.2431942 132.1867849  33.1114000
 105.0799992 131.9909978  32.3370014 104.6229992 132.5199978  31.6830014
 105.2429992 132.5939978  33.0620014 105.0394960 132.1449280  32.3455274
 107.4079992 130.8689978  33.2820014 106.5029992 131.0339978  33.0160014
 107.8359992 131.7219978  33.2160014 107.3421537 131.0069134  33.2367095
 110.0119992 132.4389978  33.5770014 109.8299992 133.3549978  33.3660014
 110.1889992 132.0279978  32.7300014 110.0110030 132.5088273  33.4337166
  97.3169992 131.1259978  31.0420014  97.2989992 130.6999978  31.8990014
  98.1219992 130.8069978  30.6330014  97.4232875 131.0246435  31.1039515
  99.4579992 129.8359978  29.6970014  99.2389992 128.9189978  29.8670014
 100.2819992 129.9759978  30.1630014  99.5394702 129.7295511  29.7832527
 101.9949992 130.3059978  30.5460014 102.2079992 129.4179978  30.2590014
 102.0599992 130.2709978  31.5000014 102.0329149 130.1798326  30.6357369
 105.5039992 115.9699978  29.6900014 104.8299992 115.3399978  29.9460014
 106.0679992 115.4859978  29.0870014 105.4880384 115.8183708  29.6435020
 110.6469992 114.0769978  29.8030014 111.2499992 114.6249978  29.3010014
 109.7769992 114.3959978  29.5620014 110.6119157 114.1950373  29.7017910
 112.3739992 115.2159978  28.1360014 112.9849992 114.7019978  27.6090014
 112.7559992 116.0929978  28.1590014 112.5093305 115.2642050  28.0669418
  97.8309992 114.6039978  27.5120014  97.0539992 114.3689978  27.0050014
  98.3609992 113.8069978  27.5210014  97.7963451 114.4641268  27.4438627
  96.6669992 114.4019978  23.3160014  97.1059992 115.0129978  22.7240014
  96.0329992 114.9399978  23.7900014  96.6413859 114.5584064  23.2990305
 102.4099992 114.5299978  27.3250014 103.2839992 114.9189978  27.2960014
 102.2739992 114.3149978  28.2480014 102.5111953 114.5541643  27.4457617
 107.9669992 114.5599978  28.9750014 108.0429992 114.6559978  28.0250014
 107.6919992 113.6529978  29.1030014 107.9401871 114.4504146  28.8623944
 109.3199992 114.5859978  24.6670014 108.6169992 115.2009978  24.4570014
 108.8749992 113.7489978  24.7980014 109.1636550 114.5569668  24.6559837
  96.5679992 130.3499978  24.2130014  95.8829992 130.3119978  23.5460014
  96.5719992 131.2629978  24.5010014  96.4747621 130.4681924  24.1606126
  98.5279992 116.3179978  21.7580014  99.0189992 115.6879978  21.2310014
  99.1509992 116.6139978  22.4210014  98.6795304 116.2717376  21.7754940
 103.5539992 116.6109978  24.2150014 103.7319992 115.9639978  24.8980014
 103.4999992 117.4449978  24.6820014 103.5710678 116.6351604  24.3716301
 105.4319992 131.5589978  22.6110014 106.2979992 131.9259978  22.4330014
 105.1859992 131.1199978  21.7970014 105.5172097 131.5498525  22.4766019
 112.1409992 131.1219978  25.2900014 111.9469992 130.3739978  24.7250014
 112.1019992 131.8799978  24.7070014 112.1091645 131.1220786  25.1338148
  97.7879992 115.1179978  37.0300014  97.4219992 114.3519978  37.4720014
  98.7009992 115.1469978  37.3160014  97.8613172 115.0170324  37.1291890
  99.7609992 114.4679978  38.5650014 100.6599992 114.1939978  38.3810014
  99.3749992 113.7259978  39.0300014  99.8317307 114.3302196  38.6027098
  98.3859992 131.2699978  21.2380014  98.1179992 131.5559978  22.1120014
  99.1569992 130.7239978  21.3910014  98.4535926 131.2352779  21.3781205
 108.1829992 113.8009978  38.7480014 108.2589992 113.3749978  39.6010014
 109.0759992 113.8139978  38.4050014 108.3142303 113.7443493  38.8185497
 111.3589992 129.8739978  37.4400014 110.5769992 129.6869978  36.9200014
 111.2869992 130.8029978  37.6570014 111.2421924 129.9740637  37.3981602
 125.7649992 123.7599978  27.4710014 125.8539992 124.7039978  27.3390014
 125.1269992 123.4849978  26.8130014 125.6909062 123.8519812  27.3639641
 124.6979992 123.0149978  30.8900014 124.6599992 122.3689978  31.5950014
 124.3759992 122.5479978  30.1190014 124.6492679 122.8634276  30.8822921
 117.0659992 122.6289978  32.4830014 117.1079992 122.0039978  33.2060014
 117.7689992 123.2529978  32.6650014 117.1667345 122.6277873  32.6065274
 128.4039992 125.9539978  29.1910014 127.9629992 125.2339978  29.6420014
 128.3909992 126.6749978  29.8210014 128.3419215 125.9529291  29.3378105
 117.9899992 127.0789978  31.0180014 117.6199992 126.2769978  30.6480014
 118.9309992 126.9109978  31.0640014 118.0665984 126.9464638  30.9735603
 114.5999992 120.7389978  26.4100014 114.1519992 121.5849978  26.3920014
 114.0389992 120.1599978  25.8950014 114.4628546 120.7763993  26.3378891
 115.3099992 122.9009978  28.5360014 115.5239992 122.1309978  29.0640014
 116.0479992 122.9909978  27.9330014 115.4390200 122.8078587  28.5267035
 125.5159992 131.0579978  29.4030014 126.1349992 130.3819978  29.1300014
 125.3069992 130.8399978  30.3120014 125.5726056 130.9358869  29.4883967
 123.0869992 125.4469978  31.2960014 123.3909992 124.7609978  30.7010014
 123.8089992 125.5659978  31.9140014 123.2261240 125.3692314  31.2980959
 131.7499992 117.0489978  32.1560014 131.7999992 117.6589978  32.8920014
 132.1759992 117.5099978  31.4330014 131.8144108 117.1947709  32.1590112
 126.2279992 119.8409978  31.6230014 126.3709992 118.8949978  31.6430014
 126.1219992 120.0479978  30.6950014 126.2332403 119.7394797  31.5002239
 119.3829992 117.9429978  28.8960014 119.4259992 118.8029978  28.4770014
 118.9249992 117.3909978  28.2620014 119.3269871 117.9859245  28.7530761
 127.1049992 118.0739978  27.2970014 127.7519992 117.7449978  27.9210014
 127.6149992 118.5909978  26.6740014 127.2624351 118.0989067  27.2981037
 116.0029992 120.3399978  29.6580014 116.6569992 119.7899978  30.0900014
 116.0269992 120.0659978  28.7410014 116.0957199 120.2277167  29.5931668
 121.1599992 121.8899978  28.8730014 121.7759992 121.3629978  29.3820014
 120.5729992 121.2499978  28.4690014 121.1650154 121.7313954  28.8880945
 132.1419992 118.5269978  34.3920014 131.4529992 119.1849978  34.2970014
 132.1569992 118.3289978  35.3290014 132.0497756 118.5902603  34.5055812
 118.1929992 116.8609978  32.9700014 117.9739992 117.3909978  32.2030014
 117.5249992 117.0869978  33.6170014 118.0726975 116.9640967  32.9525140
 125.5619992 126.3609978  26.5140014 125.2669992 126.0379978  25.6620014
 125.2379992 127.2609978  26.5550014 125.4778460 126.4384464  26.4029714
 120.7619992 124.5359978  33.2570014 120.0219992 125.1349978  33.3610014
 121.4759992 125.0899978  32.9420014 120.7573500 124.6927829  33.2286371
 128.8689992 117.3649978  29.2770014 128.6539992 116.5989978  29.8100014
 129.5249992 117.8369978  29.7900014 128.9282673 117.3240728  29.4191990
 117.7869992 118.7529978  30.9220014 118.4009992 119.3859978  31.2950014
 118.2989992 118.2809978  30.2660014 117.9401962 118.7757249  30.8842935
 119.1699992 126.5009978  34.0440014 119.1639992 127.3799978  33.6660014
 118.3159992 126.4169978  34.4690014 119.0537925 126.6099535  34.0496887
 115.2909992 126.1719978  24.8260014 115.0189992 126.4009978  23.9380014
 115.3359992 127.0089978  25.2870014 115.2598097 126.3166163  24.7666683
 128.9159992 127.7929978  31.5390014 127.9739992 127.8519978  31.7010014
 129.1919992 128.6989978  31.4020014 128.8245865 127.9235288  31.5426192
 129.2159992 116.0799978  32.9560014 128.4799992 116.6899978  32.9190014
 129.8999992 116.4949978  32.4300014 129.2075367 116.2197551  32.8798174
 122.2199992 114.1659978  30.4220014 122.1019992 113.2179978  30.3680014
 121.3649992 114.4989978  30.6950014 122.0882805 114.0812202  30.4515079
 127.1679992 129.5739978  28.1640014 127.5929992 128.8669978  27.6790014
 127.4849992 130.3759978  27.7470014 127.2690266 129.5855190  28.0412479
 128.3279992 127.4749978  26.6730014 128.0699992 126.7849978  26.0610014
 128.3989992 127.0319978  27.5180014 128.3023050 127.3206814  26.7035621
 130.0139992 126.0419978  35.1500014 130.1529992 125.4499978  34.4110014
 130.1809992 126.9149978  34.7940014 130.0556193 126.0788896  35.0006211
 124.4859992 123.0039978  24.9230014 123.7749992 123.5389978  24.5710014
 125.1769992 123.0589978  24.2630014 124.4820751 123.0846777  24.7855858
 124.5399992 121.4609978  21.9610014 125.2409992 121.4839978  22.6130014
 124.8419992 120.8329978  21.3050014 124.6768202 121.3792212  21.9615609
 131.8549992 122.3819978  33.2160014 131.2029992 123.0759978  33.3050014
 132.3209992 122.5919978  32.4060014 131.8285937 122.5055019  33.1187533
 127.8919992 123.2129978  25.8740014 127.1599992 123.4419978  26.4480014
 128.3389992 122.4999978  26.3290014 127.8523963 123.1478729  26.0139945
 127.7889992 121.3879978  34.9420014 127.8689992 122.1509978  35.5140014
 127.1879992 121.6669978  34.2520014 127.7186547 121.5302457  34.9270047
 119.5369992 123.8439978  27.7570014 119.2069992 123.4729978  26.9390014
 120.1259992 123.1729978  28.1040014 119.5713970 123.7026063  27.6919404
 120.9039992 127.2719978  30.4380014 120.8089992 126.6929978  29.6820014
 121.6329992 126.9009978  30.9340014 120.9896011 127.1425561  30.4016028
 119.9039992 122.6119978  31.3900014 120.4689992 122.7339978  30.6280014
 120.2229992 123.2499978  32.0290014 120.0244166 122.7148791  31.3720348
 126.2129992 128.1159978  32.1240014 125.9729992 128.7779978  32.7720014
 126.0149992 127.2809978  32.5490014 126.1533826 128.0938115  32.2701566
 120.7839992 127.0119978  36.1080014 120.4729992 127.7939978  36.5630014
 120.1339992 126.8589978  35.4220014 120.6535538 127.0984087  36.0775898
 126.7629992 122.3759978  23.5600014 127.3419992 122.5259978  24.3060014
 127.1769992 122.8459978  22.8360014 126.8983358 122.4600954  23.5643953
 117.7039992 123.2099978  35.3360014 117.7739992 123.8609978  36.0350014
 116.8129992 123.3129978  35.0010014 117.5931690 123.3129249  35.3863043
 124.4889992 129.1119978  26.9950014 124.9629992 129.4079978  27.7720014
 123.9259992 129.8509978  26.7620014 124.4777890 129.2523036  27.0698101
 119.0229992 129.0829978  36.8710014 119.0309992 128.9469978  35.9240014
 118.1069992 128.9659978  37.1230014 118.9002528 129.0485463  36.7753243
 130.4619992 114.1259978  23.3730014 129.5619992 114.2649978  23.6680014
 130.7139992 114.9569978  22.9710014 130.3728683 114.2574055  23.3590232
 118.5279992 122.9129978  25.3460014 118.2359992 123.6809978  24.8550014
 117.8529992 122.2539978  25.1830014 118.3968497 122.9289745  25.2568260
 131.6509992 128.4919978  21.7490014 131.7239992 129.4309978  21.9190014
 132.5559992 128.1869978  21.6930014 131.7834170 128.5793282  21.7647063
 114.6209992 125.2759978  34.1610014 114.1189992 125.2479978  33.3460014
 114.6259992 124.3709978  34.4710014 114.5529832 125.1497486  34.0914121
 114.3709992 128.0569978  31.0450014 115.3169992 127.9119978  31.0260014
 114.2579992 128.8409978  31.5820014 114.4853578 128.1431697  31.1150317
 132.5689992 128.7229978  36.7280014 132.5189992 127.7669978  36.6900014
 131.7419992 128.9899978  37.1290014 132.4503831 128.6284680  36.7770121
 123.5469992 128.2969978  35.6040014 123.6349992 129.1229978  36.0790014
 122.6839992 127.9669978  35.8530014 123.4423357 128.3655468  35.7027653
 123.9619992 132.0689978  25.4100014 123.8859992 131.9479978  24.4630014
 123.9939992 133.0179978  25.5280014 123.9559380 132.1807677  25.2965181
 117.6149992 130.8579978  27.1910014 117.7669992 130.5099978  28.0690014
 116.7639992 130.5009978  26.9350014 117.5208344 130.7620879  27.2766868
 127.0629992 131.2229978  22.4120014 127.4379992 130.4789978  21.9410014
 127.0679992 130.9529978  23.3300014 127.1150098 131.0846392  22.4716629
 126.7319992 131.1489978  25.1610014 125.7969992 131.2489978  25.3400014
 127.0119992 130.4389978  25.7400014 126.6419471 131.0667933  25.2636695
 129.7209992 120.2159978  37.2080014 129.3129992 120.6959978  36.4870014
 129.7609992 119.3099978  36.9000014 129.6706221 120.1592449  37.0678267
 116.8699992 126.5999978  35.2040014 117.0859992 126.2379978  36.0640014
 116.0139992 126.2249978  34.9950014 116.7838810 126.4998837  35.2932680
 119.4879992 115.0699978  31.2000014 118.6269992 114.9829978  30.7920014
 119.4659992 115.9259978  31.6280014 119.3670491 115.1738003  31.2019582
 124.1509992 114.7919978  34.5750014 124.5709992 114.3769978  35.3280014
 123.2179992 114.6129978  34.6920014 124.0823736 114.7109910  34.6938968
 127.4779992 118.5469978  35.4280014 126.9639992 118.4219978  36.2260014
 127.3219992 119.4599978  35.1840014 127.3866967 118.6532123  35.5040937
 128.2399992 123.4079978  21.1890014 128.2819992 123.1859978  20.2590014
 129.0889992 123.8069978  21.3790014 128.3605253 123.4315498  21.0873822
 123.8129992 117.2839978  21.8600014 123.5589992 117.3029978  22.7820014
 123.5559992 116.4129978  21.5580014 123.7434508 117.1688280  21.9454803
 119.5789992 120.0349978  32.2950014 118.9379992 119.9949978  33.0040014
 119.6169992 120.9619978  32.0570014 119.4963010 120.1547668  32.3599946
 119.5759992 120.2559978  27.2070014 118.6839992 119.9159978  27.1480014
 120.0269992 119.8789978  26.4510014 119.5147642 120.1584910  27.0967726
 125.1119992 120.6719978  26.0240014 124.7029992 121.4869978  25.7320014
 125.8319992 120.5319978  25.4100014 125.1534439 120.7645372  25.9010115
 124.2139992 120.8479978  37.5120014 123.6509992 120.1429978  37.8330014
 125.0399992 120.7269978  37.9800014 124.2486674 120.7352165  37.6191751
 126.1169992 120.1179978  28.8380014 125.9209992 120.7239978  28.1230014
 126.2979992 119.2849978  28.4040014 126.1146584 120.0882513  28.6814212
 117.3289992 120.3559978  34.1620014 117.2909992 120.7559978  35.0310014
 116.8389992 119.5389978  34.2520014 117.2575330 120.3002674  34.2931289
 120.6949992 117.7299978  20.9610014 120.2639992 117.2849978  21.6900014
 119.9769992 118.1009978  20.4480014 120.5389176 117.7192051  20.9914930
 113.9379992 117.4719978  28.0130014 114.5679992 117.4429978  28.7320014
 114.3869992 117.0469978  27.2820014 114.0850835 117.4105660  28.0127659
 115.2119992 118.2179978  23.4370014 115.6859992 118.8089978  22.8520014
 114.4939992 118.7479978  23.7840014 115.1798640 118.3705511  23.4037969
 125.3809992 121.7559978  33.5090014 125.7039992 121.1249978  32.8660014
 124.9399992 121.2219978  34.1700014 125.3656379 121.5973468  33.5102582
 122.1579992 117.6839978  28.2930014 121.2469992 117.7409978  28.5820014
 122.6629992 117.6239978  29.1040014 122.1016873 117.6836826  28.4421207
 116.9859992 119.3129978  27.1200014 116.0969992 119.4119978  26.7800014
 117.2829992 118.4709978  26.7740014 116.9044177 119.2127687  27.0266940
 120.6389992 119.3129978  24.7770014 121.5709992 119.4419978  24.9550014
 120.4239992 119.9819978  24.1270014 120.7374472 119.4210806  24.7134891
 126.5629992 116.9189978  31.5580014 125.8859992 117.0499978  32.2210014
 126.0779992 116.7639978  30.7470014 126.4047405 116.9159947  31.5392170
 119.3129992 120.5069978  22.3430014 118.7709992 120.1279978  21.6520014
 120.1469992 120.7019978  21.9150014 119.3514390 120.4814079  22.1904392
 129.8509992 132.5899978  37.8340014 130.0499992 133.0139978  37.0000014
 130.5059992 132.9339978  38.4410014 129.9668522 132.6946301  37.8017852
 117.4489992 125.0639978  37.4420014 118.1809992 125.3189978  38.0040014
 116.6679992 125.2689978  37.9580014 117.4436526 125.1265450  37.5885176
 123.4779992 120.4709978  30.1800014 124.0419992 119.9249978  29.6330014
 123.3299992 119.9499978  30.9690014 123.5353037 120.3256787  30.2117229
 118.4799992 116.6079978  26.5990014 118.1629992 115.7049978  26.5630014
 119.2609992 116.6099978  26.0460014 118.5422431 116.4847797  26.5193102
 122.1039992 118.8599978  32.5940014 121.2689992 119.3139978  32.7050014
 122.6279992 119.1359978  33.3460014 122.0606072 118.9593948  32.7108136
 122.6489992 125.0729978  24.2790014 121.9039992 124.5649978  23.9570014
 122.5139992 125.1219978  25.2250014 122.5288963 125.0101731  24.3628826
 129.7989992 124.2059978  33.0660014 130.4399992 124.6619978  32.5220014
 128.9679992 124.3189978  32.6030014 129.7745287 124.2836921  32.9289887
 126.5459992 117.8869978  22.4780014 125.6079992 117.9979978  22.3270014
 126.8439992 118.7429978  22.7850014 126.4576318 118.0180158  22.4988145
 124.1679992 125.2569978  35.5160014 123.8219992 124.8749978  36.3230014
 123.9679992 126.1899978  35.5870014 124.0935987 125.3309002  35.6360461
 127.2649992 119.7539978  24.1390014 128.1569992 119.6159978  24.4580014
 127.3209992 120.5449978  23.6020014 127.3947325 119.8419918  24.1101217
 117.7729992 124.3679978  30.0490014 118.5179992 124.3649978  29.4470014
 117.8509992 123.5439978  30.5300014 117.8853365 124.2562384  30.0317430
 124.7739992 126.5309978  23.3040014 124.4789992 127.3579978  23.6860014
 124.0709992 125.9119978  23.5010014 124.6386379 126.5604171  23.3828654
 114.7809992 122.8279978  35.3640014 115.0039992 122.4099978  36.1950014
 114.1789992 122.2159978  34.9410014 114.7301513 122.6879606  35.4206740
 121.7979992 122.3449978  37.5770014 121.5019992 122.1799978  36.6810014
 122.7289992 122.1249978  37.5660014 121.8834401 122.2926879  37.4530206
 126.4179992 127.7189978  35.4660014 125.5179992 127.9019978  35.1990014
 126.4519992 127.9779978  36.3870014 126.2993748 127.7790554  35.5539164
 132.1499992 119.9629978  23.8340014 131.5949992 119.5669978  23.1610014
 132.2499992 120.8739978  23.5560014 132.0876816 120.0319505  23.7045033
 132.1129992 125.7639978  36.6710014 131.2619992 126.0019978  36.3030014
 132.7029992 125.7469978  35.9180014 132.0763812 125.7942524  36.5188453
 130.4449992 128.7489978  24.2990014 130.0719992 127.9239978  24.6080014
 130.7219992 128.5659978  23.4010014 130.4313463 128.6112569  24.2199525
 127.6049992 123.5569978  31.3200014 126.6769992 123.3259978  31.2930014
 128.0559992 122.7799978  30.9900014 127.5388165 123.4202774  31.2716790
 120.1479992 127.8859978  27.4530014 120.6759992 128.6589978  27.2530014
 119.2679992 128.1099978  27.1510014 120.1013435 128.0222700  27.3847310
 115.9029992 122.7479978  22.0400014 116.5189992 123.3749978  22.4200014
 115.0409992 123.0639978  22.3120014 115.8707678 122.8764412  22.1287209
 121.5759992 125.5489978  27.0290014 121.3349992 126.4739978  27.0710014
 120.8349992 125.0899978  27.4260014 121.4429206 125.6135915  27.0883769
 122.0899992 129.6979978  33.3440014 122.4529992 130.5519978  33.1110014
 122.6219992 129.4059978  34.0850014 122.2115141 129.7753895  33.4122097
 120.2589992 130.5699978  26.5750014 119.3089992 130.6759978  26.6260014
 120.6109992 131.3909978  26.9190014 120.1765472 130.6954923  26.6284852
 125.6339992 125.7969978  33.0450014 125.2089992 125.5689978  33.8710014
 126.2149992 125.0579978  32.8630014 125.6543395 125.6659545  33.1334414
 127.8369992 126.7259978  22.1190014 128.1909992 126.3459978  22.9230014
 126.8889992 126.6319978  22.2060014 127.7572298 126.6612452  22.2408687
 128.2929992 130.3489978  35.5140014 127.6909992 129.7929978  35.0190014
 128.5739992 131.0159978  34.8880014 128.2485757 130.3630744  35.3615675
 132.3409992 131.2049978  22.3200014 133.0849992 131.7909978  22.1800014
 131.6469992 131.7739978  22.6530014 132.3489809 131.3620818  22.3458590
 116.4149992 117.5819978  34.9220014 115.5229992 117.9199978  34.8540014
 116.3169992 116.7259978  35.3400014 116.2794475 117.5126543  34.9691704
 128.7029992 125.3979978  24.3460014 128.4259992 124.6699978  24.9020014
 129.6309992 125.5169978  24.5510014 128.7904499 125.3144213  24.4498044
 116.0669992 129.3859978  33.3570014 116.2839992 128.4539978  33.3260014
 116.3129992 129.6609978  34.2400014 116.1299809 129.2955686  33.4721691
 121.9279992 127.8379978  20.5660014 122.1669992 127.0889978  20.0190014
 121.6589992 127.4499978  21.3990014 121.9243233 127.6831853  20.6037809
 120.8649992 127.4079978  23.0220014 121.0119992 126.8879978  23.8120014
 120.8619992 128.3149978  23.3290014 120.8847102 127.4593953  23.1715925
 117.3179992 124.6599978  23.5330014 116.6319992 125.0129978  24.1000014
 117.8409992 125.4229978  23.2860014 117.2948402 124.8113901  23.5771801
 125.1499992 117.3229978  33.8120014 125.8489992 117.3969978  34.4620014
 124.7689992 116.4579978  33.9660014 125.1942097 117.2162389  33.9217997
 125.9339992 116.9749978  24.9090014 126.1539992 117.4459978  24.1050014
 126.4929992 117.3689978  25.5790014 126.0396731 117.0927287  24.8895033
 123.6029992 129.1049978  23.7720014 122.7859992 129.6019978  23.8240014
 124.1319992 129.5809978  23.1310014 123.5628125 129.2371989  23.6925306
 123.1339992 118.7029978  25.7440014 123.9459992 119.2069978  25.7900014
 122.8899992 118.5579978  26.6580014 123.2121467 118.7523749  25.8738575
 123.6699992 119.6889978  34.9280014 123.7889992 120.2629978  35.6850014
 124.3249992 119.0009978  35.0430014 123.7748684 119.6745194  35.0471674
 124.0179992 115.7839978  26.6820014 123.6709992 116.4009978  27.3260014
 124.6769992 116.2849978  26.2000014 124.0595090 115.9361575  26.7050681
 120.9409992 130.1489978  23.7530014 121.1019992 130.9489978  23.2530014
 120.7439992 130.4559978  24.6380014 120.9363906 130.2998678  23.8042333
 119.6759992 116.8469978  23.3690014 119.5919992 117.7349978  23.7160014
 120.5659992 116.5819978  23.6010014 119.7848163 116.9327179  23.4478596
 129.8739992 117.5959978  35.7630014 128.9579992 117.8579978  35.6760014
 130.2099992 117.5929978  34.8670014 129.7938499 117.6315163  35.6298766
 128.4769992 121.3459978  29.8590014 127.6789992 120.9309978  29.5310014
 128.9219992 120.6559978  30.3500014 128.4279684 121.1958628  29.8805227
 117.9339992 127.2739978  22.4290014 118.5259992 127.9739978  22.7060014
 118.3929992 126.8409978  21.7100014 118.0771652 127.3112675  22.3696533
 116.2499992 119.9389978  21.5450014 116.2049992 120.8779978  21.7240014
 115.3619992 119.7029978  21.2760014 116.1238166 120.0356687  21.5331524
 129.5629992 130.6019978  31.4810014 129.4069992 131.2809978  30.8240014
 130.4959992 130.6739978  31.6840014 129.6677387 130.7046390  31.4185342
 117.0579992 114.7199978  30.2190014 116.8289992 114.7789978  29.2910014
 116.6159992 113.9289978  30.5250014 116.9668801 114.6210540  30.1334729
 115.9889992 128.6609978  26.3790014 115.1559992 129.1329978  26.4060014
 116.5339992 129.1709978  25.7800014 115.9487857 128.7944791  26.3017142
 115.2769992 131.2729978  37.7090014 115.8169992 131.0569978  38.4690014
 114.7959992 130.4679978  37.5190014 115.2859219 131.1345156  37.7874282
 119.8739992 130.1929978  39.3290014 120.6419992 129.7339978  39.6700014
 119.8529992 129.9669978  38.3990014 119.9762135 130.0996668  39.2499491
 123.9659992 129.7009978  20.7050014 123.3219992 129.0699978  21.0260014
 124.7279992 129.1699978  20.4730014 123.9808058 129.5427902  20.7176038
 126.4509992 128.5729978  38.0580014 126.0999992 127.7159978  38.3020014
 127.1769992 128.7149978  38.6650014 126.5011895 128.4751351  38.1733770
 128.5709992 129.5179978  20.9380014 128.8539992 128.7229978  21.3910014
 129.3099992 129.7509978  20.3770014 128.7097096 129.4407049  20.9241104
 115.1839992 125.0839978  38.6630014 115.3279992 124.1819978  38.3770014
 114.4119992 125.3699978  38.1760014 115.0992733 124.9991798  38.5579532
 119.5249992 125.4269978  20.7960014 119.5899992 124.6329978  21.3260014
 120.1779992 125.3089978  20.1060014 119.6221605 125.3023430  20.7752997
 121.8389992 125.0529978  38.0960014 121.5109992 125.3239978  37.2390014
 121.9909992 124.1119978  38.0080014 121.8146412 124.9629046  37.9667822
 124.8779992 126.4739978  20.5320014 124.6089992 126.6549978  21.4320014
 124.6709992 125.5489978  20.4000014 124.8131191 126.3737119  20.6375524
 127.5739992 124.9689978  35.4790014 128.3189992 125.5579978  35.3600014
 126.8169992 125.5509978  35.5430014 127.5735470 125.1282128  35.4713799
 116.0169992 122.2839978  38.0830014 116.4249992 121.4269978  37.9620014
 115.7559992 122.2979978  39.0040014 116.0376016 122.1685119  38.1909192
 120.6749992 123.3999978  23.1020014 120.2149992 122.9159978  23.7870014
 120.9299992 122.7309978  22.4660014 120.6464856 123.2433669  23.1098397
 119.9639992 121.2929978  35.4580014 119.3449992 121.9669978  35.7380014
 120.3079992 121.6139978  34.6240014 119.9257123 121.4286887  35.3836388
 121.7459992 121.6429978  21.3640014 121.5649992 121.4879978  20.4370014
 122.6959992 121.7509978  21.4090014 121.8496566 121.6363669  21.2430929
 124.9829992 123.7639978  38.7350014 125.9369992 123.8479978  38.7080014
 124.8229992 123.0519978  39.3550014 125.0917182 123.6792842  38.8150733
 131.1359992 123.9969978  20.8100014 130.8619992 123.5729978  19.9970014
 131.1749992 124.9289978  20.5930014 131.1037716 124.0648827  20.6694286
 120.3029992 118.6479978  36.5400014 120.4529992 117.9189978  35.9380014
 120.3049992 119.4249978  35.9810014 120.3237967 118.6532708  36.3820541
 120.7159992 117.0169978  34.0330014 121.2509992 117.4689978  33.3810014
 119.8629992 116.9089978  33.6100014 120.6740374 117.0642665  33.8866710
 122.2969992 122.4569978  34.2720014 123.0479992 122.3009978  33.6990014
 121.9579992 123.3089978  33.9970014 122.3539587 122.5508138  34.1564078
 126.7129992 120.2719978  39.3010014 126.9049992 119.3409978  39.1890014
 127.5709992 120.6969978  39.2900014 126.8552182 120.2020070  39.2841862
 128.0299992 123.0609978  37.3780014 127.7479992 123.7699978  36.8000014
 128.9719992 122.9879978  37.2270014 128.1187921 123.1482193  37.2784225
 118.7819992 119.8459978  38.4510014 118.0139992 119.3129978  38.2410014
 119.4599992 119.5359978  37.8520014 118.7687235 119.7311754  38.3412413
 121.5209992 114.4739978  34.4640014 121.4229992 115.4199978  34.3590014
 120.7789992 114.1009978  33.9880014 121.4072534 114.5531773  34.3852600
 122.7849992 118.7949978  38.0280014 122.5499992 118.5759978  38.9290014
 122.0019992 118.5879978  37.5180014 122.6469095 118.7369892  38.0825353
 125.5009992 117.9229978  37.1030014 124.5529992 117.9549978  37.2350014
 125.8129992 117.2969978  37.7570014 125.4135293 117.8427923  37.2094148
 127.1349992 116.5569978  39.1080014 127.0379992 115.6049978  39.1030014
 126.8129992 116.8249978  39.9690014 127.0782468 116.4630884  39.2236210
 116.9619992 117.7659978  38.1560014 117.1739992 117.0599978  37.5460014
 116.8509992 117.3289978  39.0000014 116.9760269 117.6101921  38.1865873
 121.7429992 113.7679978  37.1350014 122.4549992 113.1279978  37.1210014
 121.6419992 114.0339978  36.2220014 121.8267387 113.7164330  37.0095563
 122.0969992 115.4499978  39.1890014 121.9649992 114.9749978  38.3690014
 121.4969992 116.1949978  39.1340014 121.9979070 115.4855789  39.0693251
 121.6429992 132.3329978  22.3650014 122.5759992 132.4909978  22.5090014
 121.3789992 133.0089978  21.7400014 121.7349911 132.4459373  22.3002722
 115.2109992 126.9699978  21.8480014 116.1249992 127.0489978  22.1210014
 115.2189992 126.2829978  21.1820014 115.3370655 126.8879205  21.7952917
 113.8599992 132.3629978  26.9250014 113.2129992 131.9009978  26.3930014
 114.2149992 131.6909978  27.5080014 113.8193741 132.2089774  26.9309175
 114.7299992 130.4429978  28.7300014 114.3959992 129.5629978  28.9020014
 114.9529992 130.7889978  29.5950014 114.7143721 130.3691938  28.8704168
 132.2789992 131.2529978  31.7110014 132.2569992 131.4379978  32.6500014
 132.9689992 131.8209978  31.3700014 132.3693439 131.3551887  31.7934791
 131.8419992 130.8199978  34.6320014 131.3549992 130.0849978  34.2610014
 132.3909992 130.4259978  35.3100014 131.8495247 130.6661057  34.6728461
 130.2929992 126.6099978  39.2710014 129.4269992 126.5049978  39.6650014
 130.6689992 127.3679978  39.7170014 130.2253401 126.6981708  39.3852620
 131.5939992 124.8659978  24.7850014 132.4439992 125.2869978  24.9120014
 131.5989992 124.1259978  25.3920014 131.7111143 124.8236094  24.8844750
 131.9879992 122.9199978  26.6080014 131.2619992 122.4399978  27.0060014
 132.5699992 123.1249978  27.3410014 131.9672730 122.8820184  26.7614149
 131.7469992 125.7049978  31.5560014 132.5809992 125.3269978  31.2750014
 131.8589992 126.6479978  31.4370014 131.8761917 125.7807943  31.5014861
 130.2339992 128.5829978  33.8630014 129.5859992 128.9079978  34.4880014
 129.7159992 128.1419978  33.1890014 130.0754196 128.5678651  33.8574152
 132.2569992 122.8209978  22.9990014 131.7349992 123.1769978  22.2810014
 132.2239992 123.4959978  23.6780014 132.1810129 122.9609598  22.9923355
 130.6059992 120.0599978  21.5500014 130.7019992 120.7269978  20.8700014
 130.4659992 119.2449978  21.0690014 130.6002040 120.0410671  21.3918378
 129.7749992 121.4409978  27.1710014 129.6249992 120.4959978  27.1510014
 129.4209992 121.7219978  28.0150014 129.7066351 121.3496644  27.2823220
 114.8099992 123.5189978  31.1820014 114.9949992 123.4369978  30.2460014
 115.6599992 123.3949978  31.6050014 114.9500928 123.4910463  31.1112893
 130.6309992 123.4109978  36.8100014 131.2139992 122.6759978  37.0020014
 131.1949992 124.1829978  36.8570014 130.7869781 123.4148145  36.8426164
 132.1279992 121.3139978  37.4950014 131.2649992 120.9349978  37.3290014
 132.7319992 120.5749978  37.4200014 132.0916085 121.1623223  37.4621695
 129.8529992 117.4679978  20.6680014 130.4639992 117.0969978  21.3050014
 129.0159992 117.0469978  20.8640014 129.8234947 117.3602756  20.7817252
 129.4859992 119.0229978  25.6340014 129.7649992 118.1159978  25.7580014
 130.2449992 119.4569978  25.2450014 129.6268619 118.9574502  25.5983795
 130.0969992 119.6049978  31.0700014 131.0299992 119.8169978  31.0350014
 129.8619992 119.7059978  31.9920014 130.1929517 119.6476833  31.1899130
 130.1269992 120.3419978  33.8460014 129.2839992 120.6099978  34.2120014
 130.5689992 121.1639978  33.6350014 130.0714138 120.4898273  33.8675518
 114.4079992 118.7889978  37.3220014 115.3269992 118.6669978  37.5590014
 113.9579992 118.0389978  37.7120014 114.4730087 118.6709608  37.4071410
 132.4099992 114.3219978  39.1990014 132.7589992 113.6679978  38.5940014
 132.5569992 115.1589978  38.7590014 132.4776824 114.3456024  39.0566304
 130.0989992 116.2859978  25.6820014 130.2809992 115.8369978  26.5070014
 129.4989992 115.7019978  25.2180014 130.0428187 116.1455552  25.7322739
 115.6289992 117.1019978  30.2140014 116.0739992 116.3099978  30.5160014
 116.0949992 117.8179978  30.6440014 115.7529718 117.0904534  30.3135265
 113.9329992 120.1009978  31.2830014 114.4249992 119.8799978  30.4920014
 114.2949992 120.9409978  31.5640014 114.0492923 120.1843468  31.2127407
 131.9289992 116.4309978  37.5480014 131.0119992 116.7019978  37.5130014
 132.0519992 115.8959978  36.7640014 131.8199672 116.3957885  37.4371862
 131.9659992 116.3539978  22.2100014 132.3779992 115.6329978  21.7350014
 132.6469992 117.0229978  22.2680014 132.1145536 116.3457766  22.1528024
 114.2469992 116.3589978  25.3370014 113.3219992 116.5669978  25.2080014
 114.7009992 116.8429978  24.6470014 114.1816298 116.4529299  25.2260451
 129.0169992 131.3429978  27.2830014 129.6699992 130.9949978  26.6750014
 129.5279992 131.8309978  27.9290014 129.1752777 131.3613815  27.2872047
 114.2099992 115.0969978  33.6810014 113.5449992 114.8509978  34.3240014
 113.7669992 115.7189978  33.1040014 114.0591168 115.1474214  33.6909848
 116.4019992 128.2719978  37.8260014 115.5809992 128.4469978  37.3650014
 116.1499992 128.1989978  38.7460014 116.2555594 128.2860717  37.8873611
 119.3559992 129.2459978  34.0840014 118.9319992 130.0559978  33.8020014
 120.2609992 129.3319978  33.7820014 119.4202138 129.3684160  34.0046415
 123.6679992 130.6449978  37.0440014 123.8519992 130.3119978  37.9220014
 124.5139992 130.9549978  36.7220014 123.8076484 130.6412979  37.1207617
 126.0129992 131.9309978  36.2880014 126.6899992 131.2979978  36.0480014
 126.3339992 132.3319978  37.0950014 126.1491323 131.8985691  36.3643158
 130.9299992 114.5209978  35.3670014 130.1169992 114.8459978  34.9800014
 131.1629992 113.7599978  34.8340014 130.8501347 114.4626880  35.2419841
 116.7579992 132.5029978  34.1320014 116.0379992 132.9429978  33.6810014
 116.3929992 132.2519978  34.9800014 116.6099643 132.5293369  34.1849129
 119.2249992 132.1029978  33.1620014 118.3609992 132.1749978  33.5660014
 119.1699992 132.6499978  32.3780014 119.0991942 132.1867849  33.1114000
 123.9359992 131.9909978  32.3370014 123.4789992 132.5199978  31.6830014
 124.0989992 132.5939978  33.0620014 123.8954960 132.1449280  32.3455274
 126.2639992 130.8689978  33.2820014 125.3589992 131.0339978  33.0160014
 126.6919992 131.7219978  33.2160014 126.1981537 131.0069134  33.2367095
 128.8679992 132.4389978  33.5770014 128.6859992 133.3549978  33.3660014
 129.0449992 132.0279978  32.7300014 128.8670030 132.5088273  33.4337166
 116.1729992 131.1259978  31.0420014 116.1549992 130.6999978  31.8990014
 116.9779992 130.8069978  30.6330014 116.2792875 131.0246435  31.1039515
 118.3139992 129.8359978  29.6970014 118.0949992 128.9189978  29.8670014
 119.1379992 129.9759978  30.1630014 118.3954702 129.7295511  29.7832527
 120.8509992 130.3059978  30.5460014 121.0639992 129.4179978  30.2590014
 120.9159992 130.2709978  31.5000014 120.8889149 130.1798326  30.6357369
 124.3599992 115.9699978  29.6900014 123.6859992 115.3399978  29.9460014
 124.9239992 115.4859978  29.0870014 124.3440384 115.8183708  29.6435020
 129.5029992 114.0769978  29.8030014 130.1059992 114.6249978  29.3010014
 128.6329992 114.3959978  29.5620014 129.4679157 114.1950373  29.7017910
 131.2299992 115.2159978  28.1360014 131.8409992 114.7019978  27.6090014
 131.6119992 116.0929978  28.1590014 131.3653305 115.2642050  28.0669418
 116.6869992 114.6039978  27.5120014 115.9099992 114.3689978  27.0050014
 117.2169992 113.8069978  27.5210014 116.6523451 114.4641268  27.4438627
 115.5229992 114.4019978  23.3160014 115.9619992 115.0129978  22.7240014
 114.8889992 114.9399978  23.7900014 115.4973859 114.5584064  23.2990305
 121.2659992 114.5299978  27.3250014 122.1399992 114.9189978  27.2960014
 121.1299992 114.3149978  28.2480014 121.3671953 114.5541643  27.4457617
 126.8229992 114.5599978  28.9750014 126.8989992 114.6559978  28.0250014
 126.5479992 113.6529978  29.1030014 126.7961871 114.4504146  28.8623944
 128.1759992 114.5859978  24.6670014 127.4729992 115.2009978  24.4570014
 127.7309992 113.7489978  24.7980014 128.0196550 114.5569668  24.6559837
 115.4239992 130.3499978  24.2130014 114.7389992 130.3119978  23.5460014
 115.4279992 131.2629978  24.5010014 115.3307621 130.4681924  24.1606126
 117.3839992 116.3179978  21.7580014 117.8749992 115.6879978  21.2310014
 118.0069992 116.6139978  22.4210014 117.5355304 116.2717376  21.7754940
 122.4099992 116.6109978  24.2150014 122.5879992 115.9639978  24.8980014
 122.3559992 117.4449978  24.6820014 122.4270678 116.6351604  24.3716301
 124.2879992 131.5589978  22.6110014 125.1539992 131.9259978  22.4330014
 124.0419992 131.1199978  21.7970014 124.3732097 131.5498525  22.4766019
 130.9969992 131.1219978  25.2900014 130.8029992 130.3739978  24.7250014
 130.9579992 131.8799978  24.7070014 130.9651645 131.1220786  25.1338148
 116.6439992 115.1179978  37.0300014 116.2779992 114.3519978  37.4720014
 117.5569992 115.1469978  37.3160014 116.7173172 115.0170324  37.1291890
 118.6169992 114.4679978  38.5650014 119.5159992 114.1939978  38.3810014
 118.2309992 113.7259978  39.0300014 118.6877307 114.3302196  38.6027098
 117.2419992 131.2699978  21.2380014 116.9739992 131.5559978  22.1120014
 118.0129992 130.7239978  21.3910014 117.3095926 131.2352779  21.3781205
 127.0389992 113.8009978  38.7480014 127.1149992 113.3749978  39.6010014
 127.9319992 113.8139978  38.4050014 127.1702303 113.7443493  38.8185497
 130.2149992 129.8739978  37.4400014 129.4329992 129.6869978  36.9200014
 130.1429992 130.8029978  37.6570014 130.0981924 129.9740637  37.3981602
 144.6209992 123.7599978  27.4710014 144.7099992 124.7039978  27.3390014
 143.9829992 123.4849978  26.8130014 144.5469062 123.8519812  27.3639641
 143.5539992 123.0149978  30.8900014 143.5159992 122.3689978  31.5950014
 143.2319992 122.5479978  30.1190014 143.5052679 122.8634276  30.8822921
 135.9219992 122.6289978  32.4830014 135.9639992 122.0039978  33.2060014
 136.6249992 123.2529978  32.6650014 136.0227345 122.6277873  32.6065274
 136.8459992 127.0789978  31.0180014 136.4759992 126.2769978  30.6480014
 137.7869992 126.9109978  31.0640014 136.9225984 126.9464638  30.9735603
 133.4559992 120.7389978  26.4100014 133.0079992 121.5849978  26.3920014
 132.8949992 120.1599978  25.8950014 133.3188546 120.7763993  26.3378891
 134.1659992 122.9009978  28.5360014 134.3799992 122.1309978  29.0640014
 134.9039992 122.9909978  27.9330014 134.2950200 122.8078587  28.5267035
 144.3719992 131.0579978  29.4030014 144.9909992 130.3819978  29.1300014
 144.1629992 130.8399978  30.3120014 144.4286056 130.9358869  29.4883967
 141.9429992 125.4469978  31.2960014 142.2469992 124.7609978  30.7010014
 142.6649992 125.5659978  31.9140014 142.0821240 125.3692314  31.2980959
 145.0839992 119.8409978  31.6230014 145.2269992 118.8949978  31.6430014
 144.9779992 120.0479978  30.6950014 145.0892403 119.7394797  31.5002239
 138.2389992 117.9429978  28.8960014 138.2819992 118.8029978  28.4770014
 137.7809992 117.3909978  28.2620014 138.1829871 117.9859245  28.7530761
 134.8589992 120.3399978  29.6580014 135.5129992 119.7899978  30.0900014
 134.8829992 120.0659978  28.7410014 134.9517199 120.2277167  29.5931668
 140.0159992 121.8899978  28.8730014 140.6319992 121.3629978  29.3820014
 139.4289992 121.2499978  28.4690014 140.0210154 121.7313954  28.8880945
 137.0489992 116.8609978  32.9700014 136.8299992 117.3909978  32.2030014
 136.3809992 117.0869978  33.6170014 136.9286975 116.9640967  32.9525140
 144.4179992 126.3609978  26.5140014 144.1229992 126.0379978  25.6620014
 144.0939992 127.2609978  26.5550014 144.3338460 126.4384464  26.4029714
 139.6179992 124.5359978  33.2570014 138.8779992 125.1349978  33.3610014
 140.3319992 125.0899978  32.9420014 139.6133500 124.6927829  33.2286371
 136.6429992 118.7529978  30.9220014 137.2569992 119.3859978  31.2950014
 137.1549992 118.2809978  30.2660014 136.7961962 118.7757249  30.8842935
 138.0259992 126.5009978  34.0440014 138.0199992 127.3799978  33.6660014
 137.1719992 126.4169978  34.4690014 137.9097925 126.6099535  34.0496887
 134.1469992 126.1719978  24.8260014 133.8749992 126.4009978  23.9380014
 134.1919992 127.0089978  25.2870014 134.1158097 126.3166163  24.7666683
 141.0759992 114.1659978  30.4220014 140.9579992 113.2179978  30.3680014
 140.2209992 114.4989978  30.6950014 140.9442805 114.0812202  30.4515079
 143.3419992 123.0039978  24.9230014 142.6309992 123.5389978  24.5710014
 144.0329992 123.0589978  24.2630014 143.3380751 123.0846777  24.7855858
 143.3959992 121.4609978  21.9610014 144.0969992 121.4839978  22.6130014
 143.6979992 120.8329978  21.3050014 143.5328202 121.3792212  21.9615609
 138.3929992 123.8439978  27.7570014 138.0629992 123.4729978  26.9390014
 138.9819992 123.1729978  28.1040014 138.4273970 123.7026063  27.6919404
 139.7599992 127.2719978  30.4380014 139.6649992 126.6929978  29.6820014
 140.4889992 126.9009978  30.9340014 139.8456011 127.1425561  30.4016028
 138.7599992 122.6119978  31.3900014 139.3249992 122.7339978  30.6280014
 139.0789992 123.2499978  32.0290014 138.8804166 122.7148791  31.3720348
 145.0689992 128.1159978  32.1240014 144.8289992 128.7779978  32.7720014
 144.8709992 127.2809978  32.5490014 145.0093826 128.0938115  32.2701566
 139.6399992 127.0119978  36.1080014 139.3289992 127.7939978  36.5630014
 138.9899992 126.8589978  35.4220014 139.5095538 127.0984087  36.0775898
 136.5599992 123.2099978  35.3360014 136.6299992 123.8609978  36.0350014
 135.6689992 123.3129978  35.0010014 136.4491690 123.3129249  35.3863043
 143.3449992 129.1119978  26.9950014 143.8189992 129.4079978  27.7720014
 142.7819992 129.8509978  26.7620014 143.3337890 129.2523036  27.0698101
 137.8789992 129.0829978  36.8710014 137.8869992 128.9469978  35.9240014
 136.9629992 128.9659978  37.1230014 137.7562528 129.0485463  36.7753243
 137.3839992 122.9129978  25.3460014 137.0919992 123.6809978  24.8550014
 136.7089992 122.2539978  25.1830014 137.2528497 122.9289745  25.2568260
 133.4769992 125.2759978  34.1610014 132.9749992 125.2479978  33.3460014
 133.4819992 124.3709978  34.4710014 133.4089832 125.1497486  34.0914121
 133.2269992 128.0569978  31.0450014 134.1729992 127.9119978  31.0260014
 133.1139992 128.8409978  31.5820014 133.3413578 128.1431697  31.1150317
 142.4029992 128.2969978  35.6040014 142.4909992 129.1229978  36.0790014
 141.5399992 127.9669978  35.8530014 142.2983357 128.3655468  35.7027653
 142.8179992 132.0689978  25.4100014 142.7419992 131.9479978  24.4630014
 142.8499992 133.0179978  25.5280014 142.8119380 132.1807677  25.2965181
 136.4709992 130.8579978  27.1910014 136.6229992 130.5099978  28.0690014
 135.6199992 130.5009978  26.9350014 136.3768344 130.7620879  27.2766868
 135.7259992 126.5999978  35.2040014 135.9419992 126.2379978  36.0640014
 134.8699992 126.2249978  34.9950014 135.6398810 126.4998837  35.2932680
 138.3439992 115.0699978  31.2000014 137.4829992 114.9829978  30.7920014
 138.3219992 115.9259978  31.6280014 138.2230491 115.1738003  31.2019582
 143.0069992 114.7919978  34.5750014 143.4269992 114.3769978  35.3280014
 142.0739992 114.6129978  34.6920014 142.9383736 114.7109910  34.6938968
 142.6689992 117.2839978  21.8600014 142.4149992 117.3029978  22.7820014
 142.4119992 116.4129978  21.5580014 142.5994508 117.1688280  21.9454803
 138.4349992 120.0349978  32.2950014 137.7939992 119.9949978  33.0040014
 138.4729992 120.9619978  32.0570014 138.3523010 120.1547668  32.3599946
 138.4319992 120.2559978  27.2070014 137.5399992 119.9159978  27.1480014
 138.8829992 119.8789978  26.4510014 138.3707642 120.1584910  27.0967726
 143.9679992 120.6719978  26.0240014 143.5589992 121.4869978  25.7320014
 144.6879992 120.5319978  25.4100014 144.0094439 120.7645372  25.9010115
 143.0699992 120.8479978  37.5120014 142.5069992 120.1429978  37.8330014
 143.8959992 120.7269978  37.9800014 143.1046674 120.7352165  37.6191751
 144.9729992 120.1179978  28.8380014 144.7769992 120.7239978  28.1230014
 145.1539992 119.2849978  28.4040014 144.9706584 120.0882513  28.6814212
 136.1849992 120.3559978  34.1620014 136.1469992 120.7559978  35.0310014
 135.6949992 119.5389978  34.2520014 136.1135330 120.3002674  34.2931289
 139.5509992 117.7299978  20.9610014 139.1199992 117.2849978  21.6900014
 138.8329992 118.1009978  20.4480014 139.3949176 117.7192051  20.9914930
 132.7939992 117.4719978  28.0130014 133.4239992 117.4429978  28.7320014
 133.2429992 117.0469978  27.2820014 132.9410835 117.4105660  28.0127659
 134.0679992 118.2179978  23.4370014 134.5419992 118.8089978  22.8520014
 133.3499992 118.7479978  23.7840014 134.0358640 118.3705511  23.4037969
 144.2369992 121.7559978  33.5090014 144.5599992 121.1249978  32.8660014
 143.7959992 121.2219978  34.1700014 144.2216379 121.5973468  33.5102582
 141.0139992 117.6839978  28.2930014 140.1029992 117.7409978  28.5820014
 141.5189992 117.6239978  29.1040014 140.9576873 117.6836826  28.4421207
 135.8419992 119.3129978  27.1200014 134.9529992 119.4119978  26.7800014
 136.1389992 118.4709978  26.7740014 135.7604177 119.2127687  27.0266940
 139.4949992 119.3129978  24.7770014 140.4269992 119.4419978  24.9550014
 139.2799992 119.9819978  24.1270014 139.5934472 119.4210806  24.7134891
 145.4189992 116.9189978  31.5580014 144.7419992 117.0499978  32.2210014
 144.9339992 116.7639978  30.7470014 145.2607405 116.9159947  31.5392170
 138.1689992 120.5069978  22.3430014 137.6269992 120.1279978  21.6520014
 139.0029992 120.7019978  21.9150014 138.2074390 120.4814079  22.1904392
 136.3049992 125.0639978  37.4420014 137.0369992 125.3189978  38.0040014
 135.5239992 125.2689978  37.9580014 136.2996526 125.1265450  37.5885176
 142.3339992 120.4709978  30.1800014 142.8979992 119.9249978  29.6330014
 142.1859992 119.9499978  30.9690014 142.3913037 120.3256787  30.2117229
 137.3359992 116.6079978  26.5990014 137.0189992 115.7049978  26.5630014
 138.1169992 116.6099978  26.0460014 137.3982431 116.4847797  26.5193102
 140.9599992 118.8599978  32.5940014 140.1249992 119.3139978  32.7050014
 141.4839992 119.1359978  33.3460014 140.9166072 118.9593948  32.7108136
 141.5049992 125.0729978  24.2790014 140.7599992 124.5649978  23.9570014
 141.3699992 125.1219978  25.2250014 141.3848963 125.0101731  24.3628826
 145.4019992 117.8869978  22.4780014 144.4639992 117.9979978  22.3270014
 145.6999992 118.7429978  22.7850014 145.3136318 118.0180158  22.4988145
 143.0239992 125.2569978  35.5160014 142.6779992 124.8749978  36.3230014
 142.8239992 126.1899978  35.5870014 142.9495987 125.3309002  35.6360461
 136.6289992 124.3679978  30.0490014 137.3739992 124.3649978  29.4470014
 136.7069992 123.5439978  30.5300014 136.7413365 124.2562384  30.0317430
 143.6299992 126.5309978  23.3040014 143.3349992 127.3579978  23.6860014
 142.9269992 125.9119978  23.5010014 143.4946379 126.5604171  23.3828654
 133.6369992 122.8279978  35.3640014 133.8599992 122.4099978  36.1950014
 133.0349992 122.2159978  34.9410014 133.5861513 122.6879606  35.4206740
 140.6539992 122.3449978  37.5770014 140.3579992 122.1799978  36.6810014
 141.5849992 122.1249978  37.5660014 140.7394401 122.2926879  37.4530206
 145.2739992 127.7189978  35.4660014 144.3739992 127.9019978  35.1990014
 145.3079992 127.9779978  36.3870014 145.1553748 127.7790554  35.5539164
 139.0039992 127.8859978  27.4530014 139.5319992 128.6589978  27.2530014
 138.1239992 128.1099978  27.1510014 138.9573435 128.0222700  27.3847310
 134.7589992 122.7479978  22.0400014 135.3749992 123.3749978  22.4200014
 133.8969992 123.0639978  22.3120014 134.7267678 122.8764412  22.1287209
 140.4319992 125.5489978  27.0290014 140.1909992 126.4739978  27.0710014
 139.6909992 125.0899978  27.4260014 140.2989206 125.6135915  27.0883769
 140.9459992 129.6979978  33.3440014 141.3089992 130.5519978  33.1110014
 141.4779992 129.4059978  34.0850014 141.0675141 129.7753895  33.4122097
 139.1149992 130.5699978  26.5750014 138.1649992 130.6759978  26.6260014
 139.4669992 131.3909978  26.9190014 139.0325472 130.6954923  26.6284852
 144.4899992 125.7969978  33.0450014 144.0649992 125.5689978  33.8710014
 145.0709992 125.0579978  32.8630014 144.5103395 125.6659545  33.1334414
 135.2709992 117.5819978  34.9220014 134.3789992 117.9199978  34.8540014
 135.1729992 116.7259978  35.3400014 135.1354475 117.5126543  34.9691704
 134.9229992 129.3859978  33.3570014 135.1399992 128.4539978  33.3260014
 135.1689992 129.6609978  34.2400014 134.9859809 129.2955686  33.4721691
 140.7839992 127.8379978  20.5660014 141.0229992 127.0889978  20.0190014
 140.5149992 127.4499978  21.3990014 140.7803233 127.6831853  20.6037809
 139.7209992 127.4079978  23.0220014 139.8679992 126.8879978  23.8120014
 139.7179992 128.3149978  23.3290014 139.7407102 127.4593953  23.1715925
 136.1739992 124.6599978  23.5330014 135.4879992 125.0129978  24.1000014
 136.6969992 125.4229978  23.2860014 136.1508402 124.8113901  23.5771801
 144.0059992 117.3229978  33.8120014 144.7049992 117.3969978  34.4620014
 143.6249992 116.4579978  33.9660014 144.0502097 117.2162389  33.9217997
 144.7899992 116.9749978  24.9090014 145.0099992 117.4459978  24.1050014
 145.3489992 117.3689978  25.5790014 144.8956731 117.0927287  24.8895033
 142.4589992 129.1049978  23.7720014 141.6419992 129.6019978  23.8240014
 142.9879992 129.5809978  23.1310014 142.4188125 129.2371989  23.6925306
 141.9899992 118.7029978  25.7440014 142.8019992 119.2069978  25.7900014
 141.7459992 118.5579978  26.6580014 142.0681467 118.7523749  25.8738575
 142.5259992 119.6889978  34.9280014 142.6449992 120.2629978  35.6850014
 143.1809992 119.0009978  35.0430014 142.6308684 119.6745194  35.0471674
 142.8739992 115.7839978  26.6820014 142.5269992 116.4009978  27.3260014
 143.5329992 116.2849978  26.2000014 142.9155090 115.9361575  26.7050681
 139.7969992 130.1489978  23.7530014 139.9579992 130.9489978  23.2530014
 139.5999992 130.4559978  24.6380014 139.7923906 130.2998678  23.8042333
 138.5319992 116.8469978  23.3690014 138.4479992 117.7349978  23.7160014
 139.4219992 116.5819978  23.6010014 138.6408163 116.9327179  23.4478596
 136.7899992 127.2739978  22.4290014 137.3819992 127.9739978  22.7060014
 137.2489992 126.8409978  21.7100014 136.9331652 127.3112675  22.3696533
 135.1059992 119.9389978  21.5450014 135.0609992 120.8779978  21.7240014
 134.2179992 119.7029978  21.2760014 134.9798166 120.0356687  21.5331524
 135.9139992 114.7199978  30.2190014 135.6849992 114.7789978  29.2910014
 135.4719992 113.9289978  30.5250014 135.8228801 114.6210540  30.1334729
 134.8449992 128.6609978  26.3790014 134.0119992 129.1329978  26.4060014
 135.3899992 129.1709978  25.7800014 134.8047857 128.7944791  26.3017142
 134.1329992 131.2729978  37.7090014 134.6729992 131.0569978  38.4690014
 133.6519992 130.4679978  37.5190014 134.1419219 131.1345156  37.7874282
 138.7299992 130.1929978  39.3290014 139.4979992 129.7339978  39.6700014
 138.7089992 129.9669978  38.3990014 138.8322135 130.0996668  39.2499491
 142.8219992 129.7009978  20.7050014 142.1779992 129.0699978  21.0260014
 143.5839992 129.1699978  20.4730014 142.8368058 129.5427902  20.7176038
 145.3069992 128.5729978  38.0580014 144.9559992 127.7159978  38.3020014
 146.0329992 128.7149978  38.6650014 145.3571895 128.4751351  38.1733770
 134.0399992 125.0839978  38.6630014 134.1839992 124.1819978  38.3770014
 133.2679992 125.3699978  38.1760014 133.9552733 124.9991798  38.5579532
 138.3809992 125.4269978  20.7960014 138.4459992 124.6329978  21.3260014
 139.0339992 125.3089978  20.1060014 138.4781605 125.3023430  20.7752997
 140.6949992 125.0529978  38.0960014 140.3669992 125.3239978  37.2390014
 140.8469992 124.1119978  38.0080014 140.6706412 124.9629046  37.9667822
 143.7339992 126.4739978  20.5320014 143.4649992 126.6549978  21.4320014
 143.5269992 125.5489978  20.4000014 143.6691191 126.3737119  20.6375524
 134.8729992 122.2839978  38.0830014 135.2809992 121.4269978  37.9620014
 134.6119992 122.2979978  39.0040014 134.8936016 122.1685119  38.1909192
 139.5309992 123.3999978  23.1020014 139.0709992 122.9159978  23.7870014
 139.7859992 122.7309978  22.4660014 139.5024856 123.2433669  23.1098397
 138.8199992 121.2929978  35.4580014 138.2009992 121.9669978  35.7380014
 139.1639992 121.6139978  34.6240014 138.7817123 121.4286887  35.3836388
 140.6019992 121.6429978  21.3640014 140.4209992 121.4879978  20.4370014
 141.5519992 121.7509978  21.4090014 140.7056566 121.6363669  21.2430929
 143.8389992 123.7639978  38.7350014 144.7929992 123.8479978  38.7080014
 143.6789992 123.0519978  39.3550014 143.9477182 123.6792842  38.8150733
 139.1589992 118.6479978  36.5400014 139.3089992 117.9189978  35.9380014
 139.1609992 119.4249978  35.9810014 139.1797967 118.6532708  36.3820541
 139.5719992 117.0169978  34.0330014 140.1069992 117.4689978  33.3810014
 138.7189992 116.9089978  33.6100014 139.5300374 117.0642665  33.8866710
 141.1529992 122.4569978  34.2720014 141.9039992 122.3009978  33.6990014
 140.8139992 123.3089978  33.9970014 141.2099587 122.5508138  34.1564078
 145.5689992 120.2719978  39.3010014 145.7609992 119.3409978  39.1890014
 146.4269992 120.6969978  39.2900014 145.7112182 120.2020070  39.2841862
 137.6379992 119.8459978  38.4510014 136.8699992 119.3129978  38.2410014
 138.3159992 119.5359978  37.8520014 137.6247235 119.7311754  38.3412413
 140.3769992 114.4739978  34.4640014 140.2789992 115.4199978  34.3590014
 139.6349992 114.1009978  33.9880014 140.2632534 114.5531773  34.3852600
 141.6409992 118.7949978  38.0280014 141.4059992 118.5759978  38.9290014
 140.8579992 118.5879978  37.5180014 141.5029095 118.7369892  38.0825353
 144.3569992 117.9229978  37.1030014 143.4089992 117.9549978  37.2350014
 144.6689992 117.2969978  37.7570014 144.2695293 117.8427923  37.2094148
 135.8179992 117.7659978  38.1560014 136.0299992 117.0599978  37.5460014
 135.7069992 117.3289978  39.0000014 135.8320269 117.6101921  38.1865873
 140.5989992 113.7679978  37.1350014 141.3109992 113.1279978  37.1210014
 140.4979992 114.0339978  36.2220014 140.6827387 113.7164330  37.0095563
 140.9529992 115.4499978  39.1890014 140.8209992 114.9749978  38.3690014
 140.3529992 116.1949978  39.1340014 140.8539070 115.4855789  39.0693251
 140.4989992 132.3329978  22.3650014 141.4319992 132.4909978  22.5090014
 140.2349992 133.0089978  21.7400014 140.5909911 132.4459373  22.3002722
 134.0669992 126.9699978  21.8480014 134.9809992 127.0489978  22.1210014
 134.0749992 126.2829978  21.1820014 134.1930655 126.8879205  21.7952917
 132.7159992 132.3629978  26.9250014 132.0689992 131.9009978  26.3930014
 133.0709992 131.6909978  27.5080014 132.6753741 132.2089774  26.9309175
 133.5859992 130.4429978  28.7300014 133.2519992 129.5629978  28.9020014
 133.8089992 130.7889978  29.5950014 133.5703721 130.3691938  28.8704168
 133.6659992 123.5189978  31.1820014 133.8509992 123.4369978  30.2460014
 134.5159992 123.3949978  31.6050014 133.8060928 123.4910463  31.1112893
 133.2639992 118.7889978  37.3220014 134.1829992 118.6669978  37.5590014
 132.8139992 118.0389978  37.7120014 133.3290087 118.6709608  37.4071410
 134.4849992 117.1019978  30.2140014 134.9299992 116.3099978  30.5160014
 134.9509992 117.8179978  30.6440014 134.6089718 117.0904534  30.3135265
 132.7889992 120.1009978  31.2830014 133.2809992 119.8799978  30.4920014
 133.1509992 120.9409978  31.5640014 132.9052923 120.1843468  31.2127407
 133.1029992 116.3589978  25.3370014 132.1779992 116.5669978  25.2080014
 133.5569992 116.8429978  24.6470014 133.0376298 116.4529299  25.2260451
 133.0659992 115.0969978  33.6810014 132.4009992 114.8509978  34.3240014
 132.6229992 115.7189978  33.1040014 132.9151168 115.1474214  33.6909848
 135.2579992 128.2719978  37.8260014 134.4369992 128.4469978  37.3650014
 135.0059992 128.1989978  38.7460014 135.1115594 128.2860717  37.8873611
 138.2119992 129.2459978  34.0840014 137.7879992 130.0559978  33.8020014
 139.1169992 129.3319978  33.7820014 138.2762138 129.3684160  34.0046415
 142.5239992 130.6449978  37.0440014 142.7079992 130.3119978  37.9220014
 143.3699992 130.9549978  36.7220014 142.6636484 130.6412979  37.1207617
 144.8689992 131.9309978  36.2880014 145.5459992 131.2979978  36.0480014
 145.1899992 132.3319978  37.0950014 145.0051323 131.8985691  36.3643158
 135.6139992 132.5029978  34.1320014 134.8939992 132.9429978  33.6810014
 135.2489992 132.2519978  34.9800014 135.4659643 132.5293369  34.1849129
 138.0809992 132.1029978  33.1620014 137.2169992 132.1749978  33.5660014
 138.0259992 132.6499978  32.3780014 137.9551942 132.1867849  33.1114000
 142.7919992 131.9909978  32.3370014 142.3349992 132.5199978  31.6830014
 142.9549992 132.5939978  33.0620014 142.7514960 132.1449280  32.3455274
 145.1199992 130.8689978  33.2820014 144.2149992 131.0339978  33.0160014
 145.5479992 131.7219978  33.2160014 145.0541537 131.0069134  33.2367095
 135.0289992 131.1259978  31.0420014 135.0109992 130.6999978  31.8990014
 135.8339992 130.8069978  30.6330014 135.1352875 131.0246435  31.1039515
 137.1699992 129.8359978  29.6970014 136.9509992 128.9189978  29.8670014
 137.9939992 129.9759978  30.1630014 137.2514702 129.7295511  29.7832527
 139.7069992 130.3059978  30.5460014 139.9199992 129.4179978  30.2590014
 139.7719992 130.2709978  31.5000014 139.7449149 130.1798326  30.6357369
 143.2159992 115.9699978  29.6900014 142.5419992 115.3399978  29.9460014
 143.7799992 115.4859978  29.0870014 143.2000384 115.8183708  29.6435020
 135.5429992 114.6039978  27.5120014 134.7659992 114.3689978  27.0050014
 136.0729992 113.8069978  27.5210014 135.5083451 114.4641268  27.4438627
 134.3789992 114.4019978  23.3160014 134.8179992 115.0129978  22.7240014
 133.7449992 114.9399978  23.7900014 134.3533859 114.5584064  23.2990305
 140.1219992 114.5299978  27.3250014 140.9959992 114.9189978  27.2960014
 139.9859992 114.3149978  28.2480014 140.2231953 114.5541643  27.4457617
 134.2799992 130.3499978  24.2130014 133.5949992 130.3119978  23.5460014
 134.2839992 131.2629978  24.5010014 134.1867621 130.4681924  24.1606126
 136.2399992 116.3179978  21.7580014 136.7309992 115.6879978  21.2310014
 136.8629992 116.6139978  22.4210014 136.3915304 116.2717376  21.7754940
 141.2659992 116.6109978  24.2150014 141.4439992 115.9639978  24.8980014
 141.2119992 117.4449978  24.6820014 141.2830678 116.6351604  24.3716301
 143.1439992 131.5589978  22.6110014 144.0099992 131.9259978  22.4330014
 142.8979992 131.1199978  21.7970014 143.2292097 131.5498525  22.4766019
 135.4999992 115.1179978  37.0300014 135.1339992 114.3519978  37.4720014
 136.4129992 115.1469978  37.3160014 135.5733172 115.0170324  37.1291890
 137.4729992 114.4679978  38.5650014 138.3719992 114.1939978  38.3810014
 137.0869992 113.7259978  39.0300014 137.5437307 114.3302196  38.6027098
 136.0979992 131.2699978  21.2380014 135.8299992 131.5559978  22.1120014
 136.8689992 130.7239978  21.3910014 136.1655926 131.2352779  21.3781205
  12.6289992 142.6159978  27.4710014  12.7179992 143.5599978  27.3390014
  11.9909992 142.3409978  26.8130014  12.5549061 142.7079812  27.3639641
  11.5619992 141.8709978  30.8900014  11.5239992 141.2249978  31.5950014
  11.2399992 141.4039978  30.1190014  11.5132679 141.7194276  30.8822921
   3.9299992 141.4849978  32.4830014   3.9719992 140.8599978  33.2060014
   4.6329992 142.1089978  32.6650014   4.0307345 141.4837873  32.6065274
  15.2679992 144.8099978  29.1910014  14.8269992 144.0899978  29.6420014
  15.2549992 145.5309978  29.8210014  15.2059215 144.8089291  29.3378105
   1.4639992 139.5949978  26.4100014   1.0159992 140.4409978  26.3920014
   0.9029992 139.0159978  25.8950014   1.3268546 139.6323993  26.3378891
   2.1739992 141.7569978  28.5360014   2.3879992 140.9869978  29.0640014
   2.9119992 141.8469978  27.9330014   2.3030200 141.6638587  28.5267035
   9.9509992 144.3029978  31.2960014  10.2549992 143.6169978  30.7010014
  10.6729992 144.4219978  31.9140014  10.0901240 144.2252314  31.2980959
  18.6139992 135.9049978  32.1560014  18.6639992 136.5149978  32.8920014
  19.0399992 136.3659978  31.4330014  18.6784108 136.0507709  32.1590112
  13.0919992 138.6969978  31.6230014  13.2349992 137.7509978  31.6430014
  12.9859992 138.9039978  30.6950014  13.0972403 138.5954797  31.5002239
   6.2469992 136.7989978  28.8960014   6.2899992 137.6589978  28.4770014
   5.7889992 136.2469978  28.2620014   6.1909871 136.8419245  28.7530761
  13.9689992 136.9299978  27.2970014  14.6159992 136.6009978  27.9210014
  14.4789992 137.4469978  26.6740014  14.1264351 136.9549067  27.2981037
   2.8669992 139.1959978  29.6580014   3.5209992 138.6459978  30.0900014
   2.8909992 138.9219978  28.7410014   2.9597199 139.0837167  29.5931668
   8.0239992 140.7459978  28.8730014   8.6399992 140.2189978  29.3820014
   7.4369992 140.1059978  28.4690014   8.0290154 140.5873954  28.8880945
  19.0059992 137.3829978  34.3920014  18.3169992 138.0409978  34.2970014
  19.0209992 137.1849978  35.3290014  18.9137756 137.4462603  34.5055812
   5.0569992 135.7169978  32.9700014   4.8379992 136.2469978  32.2030014
   4.3889992 135.9429978  33.6170014   4.9366975 135.8200967  32.9525140
  12.4259992 145.2169978  26.5140014  12.1309992 144.8939978  25.6620014
  12.1019992 146.1169978  26.5550014  12.3418460 145.2944464  26.4029714
   7.6259992 143.3919978  33.2570014   6.8859992 143.9909978  33.3610014
   8.3399992 143.9459978  32.9420014   7.6213500 143.5487829  33.2286371
  15.7329992 136.2209978  29.2770014  15.5179992 135.4549978  29.8100014
  16.3889992 136.6929978  29.7900014  15.7922673 136.1800728  29.4191990
   4.6509992 137.6089978  30.9220014   5.2649992 138.2419978  31.2950014
   5.1629992 137.1369978  30.2660014   4.8041962 137.6317249  30.8842935
   6.0339992 145.3569978  34.0440014   6.0279992 146.2359978  33.6660014
   5.1799992 145.2729978  34.4690014   5.9177925 145.4659535  34.0496887
   2.1549992 145.0279978  24.8260014   1.8829992 145.2569978  23.9380014
   2.1999992 145.8649978  25.2870014   2.1238097 145.1726163  24.7666683
  16.0799992 134.9359978  32.9560014  15.3439992 135.5459978  32.9190014
  16.7639992 135.3509978  32.4300014  16.0715367 135.0757551  32.8798174
   9.0839992 133.0219978  30.4220014   8.9659992 132.0739978  30.3680014
   8.2289992 133.3549978  30.6950014   8.9522805 132.9372202  30.4515079
  16.8779992 144.8979978  35.1500014  17.0169992 144.3059978  34.4110014
  17.0449992 145.7709978  34.7940014  16.9196193 144.9348896  35.0006211
  11.3499992 141.8599978  24.9230014  10.6389992 142.3949978  24.5710014
  12.0409992 141.9149978  24.2630014  11.3460751 141.9406777  24.7855858
  11.4039992 140.3169978  21.9610014  12.1049992 140.3399978  22.6130014
  11.7059992 139.6889978  21.3050014  11.5408202 140.2352212  21.9615609
  18.7189992 141.2379978  33.2160014  18.0669992 141.9319978  33.3050014
  19.1849992 141.4479978  32.4060014  18.6925937 141.3615019  33.1187533
  14.7559992 142.0689978  25.8740014  14.0239992 142.2979978  26.4480014
  15.2029992 141.3559978  26.3290014  14.7163963 142.0038729  26.0139945
  14.6529992 140.2439978  34.9420014  14.7329992 141.0069978  35.5140014
  14.0519992 140.5229978  34.2520014  14.5826547 140.3862457  34.9270047
   6.4009992 142.6999978  27.7570014   6.0709992 142.3289978  26.9390014
   6.9899992 142.0289978  28.1040014   6.4353970 142.5586063  27.6919404
   6.7679992 141.4679978  31.3900014   7.3329992 141.5899978  30.6280014
   7.0869992 142.1059978  32.0290014   6.8884166 141.5708791  31.3720348
  13.6269992 141.2319978  23.5600014  14.2059992 141.3819978  24.3060014
  14.0409992 141.7019978  22.8360014  13.7623358 141.3160954  23.5643953
   4.5679992 142.0659978  35.3360014   4.6379992 142.7169978  36.0350014
   3.6769992 142.1689978  35.0010014   4.4571690 142.1689249  35.3863043
  17.3259992 132.9819978  23.3730014  16.4259992 133.1209978  23.6680014
  17.5779992 133.8129978  22.9710014  17.2368683 133.1134055  23.3590232
   5.3919992 141.7689978  25.3460014   5.0999992 142.5369978  24.8550014
   4.7169992 141.1099978  25.1830014   5.2608497 141.7849745  25.2568260
   1.4849992 144.1319978  34.1610014   0.9829992 144.1039978  33.3460014
   1.4899992 143.2269978  34.4710014   1.4169832 144.0057486  34.0914121
  16.5849992 139.0719978  37.2080014  16.1769992 139.5519978  36.4870014
  16.6249992 138.1659978  36.9000014  16.5346221 139.0152449  37.0678267
   3.7339992 145.4559978  35.2040014   3.9499992 145.0939978  36.0640014
   2.8779992 145.0809978  34.9950014   3.6478810 145.3558837  35.2932680
   6.3519992 133.9259978  31.2000014   5.4909992 133.8389978  30.7920014
   6.3299992 134.7819978  31.6280014   6.2310491 134.0298003  31.2019582
  11.0149992 133.6479978  34.5750014  11.4349992 133.2329978  35.3280014
  10.0819992 133.4689978  34.6920014  10.9463736 133.5669910  34.6938968
  14.3419992 137.4029978  35.4280014  13.8279992 137.2779978  36.2260014
  14.1859992 138.3159978  35.1840014  14.2506967 137.5092123  35.5040937
  15.1039992 142.2639978  21.1890014  15.1459992 142.0419978  20.2590014
  15.9529992 142.6629978  21.3790014  15.2245253 142.2875498  21.0873822
  10.6769992 136.1399978  21.8600014  10.4229992 136.1589978  22.7820014
  10.4199992 135.2689978  21.5580014  10.6074508 136.0248280  21.9454803
   6.4429992 138.8909978  32.2950014   5.8019992 138.8509978  33.0040014
   6.4809992 139.8179978  32.0570014   6.3603010 139.0107668  32.3599946
   6.4399992 139.1119978  27.2070014   5.5479992 138.7719978  27.1480014
   6.8909992 138.7349978  26.4510014   6.3787642 139.0144910  27.0967726
  11.9759992 139.5279978  26.0240014  11.5669992 140.3429978  25.7320014
  12.6959992 139.3879978  25.4100014  12.0174439 139.6205372  25.9010115
  11.0779992 139.7039978  37.5120014  10.5149992 138.9989978  37.8330014
  11.9039992 139.5829978  37.9800014  11.1126674 139.5912165  37.6191751
  12.9809992 138.9739978  28.8380014  12.7849992 139.5799978  28.1230014
  13.1619992 138.1409978  28.4040014  12.9786584 138.9442513  28.6814212
   4.1929992 139.2119978  34.1620014   4.1549992 139.6119978  35.0310014
   3.7029992 138.3949978  34.2520014   4.1215330 139.1562674  34.2931289
   7.5589992 136.5859978  20.9610014   7.1279992 136.1409978  21.6900014
   6.8409992 136.9569978  20.4480014   7.4029176 136.5752051  20.9914930
   0.8019992 136.3279978  28.0130014   1.4319992 136.2989978  28.7320014
   1.2509992 135.9029978  27.2820014   0.9490835 136.2665660  28.0127659
   2.0759992 137.0739978  23.4370014   2.5499992 137.6649978  22.8520014
   1.3579992 137.6039978  23.7840014   2.0438640 137.2265511  23.4037969
  12.2449992 140.6119978  33.5090014  12.5679992 139.9809978  32.8660014
  11.8039992 140.0779978  34.1700014  12.2296379 140.4533468  33.5102582
   9.0219992 136.5399978  28.2930014   8.1109992 136.5969978  28.5820014
   9.5269992 136.4799978  29.1040014   8.9656873 136.5396826  28.4421207
   3.8499992 138.1689978  27.1200014   2.9609992 138.2679978  26.7800014
   4.1469992 137.3269978  26.7740014   3.7684177 138.0687687  27.0266940
   7.5029992 138.1689978  24.7770014   8.4349992 138.2979978  24.9550014
   7.2879992 138.8379978  24.1270014   7.6014472 138.2770806  24.7134891
  13.4269992 135.7749978  31.5580014  12.7499992 135.9059978  32.2210014
  12.9419992 135.6199978  30.7470014  13.2687405 135.7719947  31.5392170
   6.1769992 139.3629978  22.3430014   5.6349992 138.9839978  21.6520014
   7.0109992 139.5579978  21.9150014   6.2154390 139.3374079  22.1904392
   4.3129992 143.9199978  37.4420014   5.0449992 144.1749978  38.0040014
   3.5319992 144.1249978  37.9580014   4.3076526 143.9825450  37.5885176
  10.3419992 139.3269978  30.1800014  10.9059992 138.7809978  29.6330014
  10.1939992 138.8059978  30.9690014  10.3993037 139.1816787  30.2117229
   5.3439992 135.4639978  26.5990014   5.0269992 134.5609978  26.5630014
   6.1249992 135.4659978  26.0460014   5.4062431 135.3407797  26.5193102
   8.9679992 137.7159978  32.5940014   8.1329992 138.1699978  32.7050014
   9.4919992 137.9919978  33.3460014   8.9246072 137.8153948  32.7108136
   9.5129992 143.9289978  24.2790014   8.7679992 143.4209978  23.9570014
   9.3779992 143.9779978  25.2250014   9.3928963 143.8661731  24.3628826
  16.6629992 143.0619978  33.0660014  17.3039992 143.5179978  32.5220014
  15.8319992 143.1749978  32.6030014  16.6385287 143.1396921  32.9289887
  13.4099992 136.7429978  22.4780014  12.4719992 136.8539978  22.3270014
  13.7079992 137.5989978  22.7850014  13.3216318 136.8740158  22.4988145
  11.0319992 144.1129978  35.5160014  10.6859992 143.7309978  36.3230014
  10.8319992 145.0459978  35.5870014  10.9575987 144.1869002  35.6360461
  14.1289992 138.6099978  24.1390014  15.0209992 138.4719978  24.4580014
  14.1849992 139.4009978  23.6020014  14.2587325 138.6979918  24.1101217
   4.6369992 143.2239978  30.0490014   5.3819992 143.2209978  29.4470014
   4.7149992 142.3999978  30.5300014   4.7493366 143.1122384  30.0317430
  11.6379992 145.3869978  23.3040014  11.3429992 146.2139978  23.6860014
  10.9349992 144.7679978  23.5010014  11.5026379 145.4164171  23.3828654
   1.6449992 141.6839978  35.3640014   1.8679992 141.2659978  36.1950014
   1.0429992 141.0719978  34.9410014   1.5941513 141.5439606  35.4206740
   8.6619992 141.2009978  37.5770014   8.3659992 141.0359978  36.6810014
   9.5929992 140.9809978  37.5660014   8.7474401 141.1486879  37.4530206
  19.0139992 138.8189978  23.8340014  18.4589992 138.4229978  23.1610014
  19.1139992 139.7299978  23.5560014  18.9516816 138.8879505  23.7045033
  18.9769992 144.6199978  36.6710014  18.1259992 144.8579978  36.3030014
  19.5669992 144.6029978  35.9180014  18.9403812 144.6502524  36.5188453
  14.4689992 142.4129978  31.3200014  13.5409992 142.1819978  31.2930014
  14.9199992 141.6359978  30.9900014  14.4028165 142.2762774  31.2716790
   2.7669992 141.6039978  22.0400014   3.3829992 142.2309978  22.4200014
   1.9049992 141.9199978  22.3120014   2.7347678 141.7324412  22.1287209
   8.4399992 144.4049978  27.0290014   8.1989992 145.3299978  27.0710014
   7.6989992 143.9459978  27.4260014   8.3069206 144.4695915  27.0883769
  12.4979992 144.6529978  33.0450014  12.0729992 144.4249978  33.8710014
  13.0789992 143.9139978  32.8630014  12.5183395 144.5219545  33.1334414
   3.2789992 136.4379978  34.9220014   2.3869992 136.7759978  34.8540014
   3.1809992 135.5819978  35.3400014   3.1434475 136.3686543  34.9691704
  15.5669992 144.2539978  24.3460014  15.2899992 143.5259978  24.9020014
  16.4949992 144.3729978  24.5510014  15.6544499 144.1704213  24.4498044
   4.1819992 143.5159978  23.5330014   3.4959992 143.8689978  24.1000014
   4.7049992 144.2789978  23.2860014   4.1588402 143.6673901  23.5771801
  12.0139992 136.1789978  33.8120014  12.7129992 136.2529978  34.4620014
  11.6329992 135.3139978  33.9660014  12.0582097 136.0722389  33.9217997
  12.7979992 135.8309978  24.9090014  13.0179992 136.3019978  24.1050014
  13.3569992 136.2249978  25.5790014  12.9036731 135.9487287  24.8895033
   9.9979992 137.5589978  25.7440014  10.8099992 138.0629978  25.7900014
   9.7539992 137.4139978  26.6580014  10.0761467 137.6083749  25.8738575
  10.5339992 138.5449978  34.9280014  10.6529992 139.1189978  35.6850014
  11.1889992 137.8569978  35.0430014  10.6388684 138.5305194  35.0471674
  10.8819992 134.6399978  26.6820014  10.5349992 135.2569978  27.3260014
  11.5409992 135.1409978  26.2000014  10.9235090 134.7921575  26.7050681
   6.5399992 135.7029978  23.3690014   6.4559992 136.5909978  23.7160014
   7.4299992 135.4379978  23.6010014   6.6488163 135.7887179  23.4478596
  16.7379992 136.4519978  35.7630014  15.8219992 136.7139978  35.6760014
  17.0739992 136.4489978  34.8670014  16.6578499 136.4875163  35.6298766
  15.3409992 140.2019978  29.8590014  14.5429992 139.7869978  29.5310014
  15.7859992 139.5119978  30.3500014  15.2919684 140.0518628  29.8805227
   3.1139992 138.7949978  21.5450014   3.0689992 139.7339978  21.7240014
   2.2259992 138.5589978  21.2760014   2.9878166 138.8916687  21.5331524
   3.9219992 133.5759978  30.2190014   3.6929992 133.6349978  29.2910014
   3.4799992 132.7849978  30.5250014   3.8308801 133.4770540  30.1334729
   2.0479992 143.9399978  38.6630014   2.1919992 143.0379978  38.3770014
   1.2759992 144.2259978  38.1760014   1.9632733 143.8551798  38.5579532
   6.3889992 144.2829978  20.7960014   6.4539992 143.4889978  21.3260014
   7.0419992 144.1649978  20.1060014   6.4861605 144.1583430  20.7752997
   8.7029992 143.9089978  38.0960014   8.3749992 144.1799978  37.2390014
   8.8549992 142.9679978  38.0080014   8.6786412 143.8189046  37.9667822
  11.7419992 145.3299978  20.5320014  11.4729992 145.5109978  21.4320014
  11.5349992 144.4049978  20.4000014  11.6771191 145.2297119  20.6375524
  14.4379992 143.8249978  35.4790014  15.1829992 144.4139978  35.3600014
  13.6809992 144.4069978  35.5430014  14.4375470 143.9842128  35.4713799
   2.8809992 141.1399978  38.0830014   3.2889992 140.2829978  37.9620014
   2.6199992 141.1539978  39.0040014   2.9016016 141.0245119  38.1909192
   7.5389992 142.2559978  23.1020014   7.0789992 141.7719978  23.7870014
   7.7939992 141.5869978  22.4660014   7.5104856 142.0993669  23.1098397
   6.8279992 140.1489978  35.4580014   6.2089992 140.8229978  35.7380014
   7.1719992 140.4699978  34.6240014   6.7897123 140.2846887  35.3836388
   8.6099992 140.4989978  21.3640014   8.4289992 140.3439978  20.4370014
   9.5599992 140.6069978  21.4090014   8.7136566 140.4923669  21.2430929
  11.8469992 142.6199978  38.7350014  12.8009992 142.7039978  38.7080014
  11.6869992 141.9079978  39.3550014  11.9557182 142.5352842  38.8150733
  17.9999992 142.8529978  20.8100014  17.7259992 142.4289978  19.9970014
  18.0389992 143.7849978  20.5930014  17.9677716 142.9208827  20.6694286
   7.1669992 137.5039978  36.5400014   7.3169992 136.7749978  35.9380014
   7.1689992 138.2809978  35.9810014   7.1877967 137.5092708  36.3820541
   7.5799992 135.8729978  34.0330014   8.1149992 136.3249978  33.3810014
   6.7269992 135.7649978  33.6100014   7.5380374 135.9202665  33.8866710
   9.1609992 141.3129978  34.2720014   9.9119992 141.1569978  33.6990014
   8.8219992 142.1649978  33.9970014   9.2179587 141.4068138  34.1564078
  13.5769992 139.1279978  39.3010014  13.7689992 138.1969978  39.1890014
  14.4349992 139.5529978  39.2900014  13.7192182 139.0580070  39.2841862
  14.8939992 141.9169978  37.3780014  14.6119992 142.6259978  36.8000014
  15.8359992 141.8439978  37.2270014  14.9827921 142.0042193  37.2784225
   5.6459992 138.7019978  38.4510014   4.8779992 138.1689978  38.2410014
   6.3239992 138.3919978  37.8520014   5.6327235 138.5871754  38.3412413
   8.3849992 133.3299978  34.4640014   8.2869992 134.2759978  34.3590014
   7.6429992 132.9569978  33.9880014   8.2712534 133.4091773  34.3852600
   9.6489992 137.6509978  38.0280014   9.4139992 137.4319978  38.9290014
   8.8659992 137.4439978  37.5180014   9.5109095 137.5929892  38.0825353
  12.3649992 136.7789978  37.1030014  11.4169992 136.8109978  37.2350014
  12.6769992 136.1529978  37.7570014  12.2775293 136.6987923  37.2094148
  13.9989992 135.4129978  39.1080014  13.9019992 134.4609978  39.1030014
  13.6769992 135.6809978  39.9690014  13.9422468 135.3190884  39.2236210
   3.8259992 136.6219978  38.1560014   4.0379992 135.9159978  37.5460014
   3.7149992 136.1849978  39.0000014   3.8400269 136.4661921  38.1865873
   8.6069992 132.6239978  37.1350014   9.3189992 131.9839978  37.1210014
   8.5059992 132.8899978  36.2220014   8.6907387 132.5724330  37.0095563
   8.9609992 134.3059978  39.1890014   8.8289992 133.8309978  38.3690014
   8.3609992 135.0509978  39.1340014   8.8619070 134.3415789  39.0693251
  17.1569992 145.4659978  39.2710014  16.2909992 145.3609978  39.6650014
  17.5329992 146.2239978  39.7170014  17.0893401 145.5541708  39.3852620
  18.4579992 143.7219978  24.7850014  19.3079992 144.1429978  24.9120014
  18.4629992 142.9819978  25.3920014  18.5751143 143.6796094  24.8844750
  18.8519992 141.7759978  26.6080014  18.1259992 141.2959978  27.0060014
  19.4339992 141.9809978  27.3410014  18.8312730 141.7380184  26.7614149
  18.6109992 144.5609978  31.5560014  19.4449992 144.1829978  31.2750014
  18.7229992 145.5039978  31.4370014  18.7401917 144.6367943  31.5014861
  19.1209992 141.6769978  22.9990014  18.5989992 142.0329978  22.2810014
  19.0879992 142.3519978  23.6780014  19.0450129 141.8169598  22.9923355
  17.4699992 138.9159978  21.5500014  17.5659992 139.5829978  20.8700014
  17.3299992 138.1009978  21.0690014  17.4642040 138.8970671  21.3918378
  16.6389992 140.2969978  27.1710014  16.4889992 139.3519978  27.1510014
  16.2849992 140.5779978  28.0150014  16.5706351 140.2056644  27.2823220
   1.6739992 142.3749978  31.1820014   1.8589992 142.2929978  30.2460014
   2.5239992 142.2509978  31.6050014   1.8140928 142.3470463  31.1112893
  17.4949992 142.2669978  36.8100014  18.0779992 141.5319978  37.0020014
  18.0589992 143.0389978  36.8570014  17.6509781 142.2708145  36.8426164
  18.9919992 140.1699978  37.4950014  18.1289992 139.7909978  37.3290014
  19.5959992 139.4309978  37.4200014  18.9556085 140.0183223  37.4621694
  16.7169992 136.3239978  20.6680014  17.3279992 135.9529978  21.3050014
  15.8799992 135.9029978  20.8640014  16.6874947 136.2162756  20.7817252
  16.3499992 137.8789978  25.6340014  16.6289992 136.9719978  25.7580014
  17.1089992 138.3129978  25.2450014  16.4908619 137.8134502  25.5983795
  16.9609992 138.4609978  31.0700014  17.8939992 138.6729978  31.0350014
  16.7259992 138.5619978  31.9920014  17.0569517 138.5036833  31.1899130
  16.9909992 139.1979978  33.8460014  16.1479992 139.4659978  34.2120014
  17.4329992 140.0199978  33.6350014  16.9354138 139.3458273  33.8675518
   1.2719992 137.6449978  37.3220014   2.1909992 137.5229978  37.5590014
   0.8219992 136.8949978  37.7120014   1.3370087 137.5269608  37.4071410
  19.2739992 133.1779978  39.1990014  19.6229992 132.5239978  38.5940014
  19.4209992 134.0149978  38.7590014  19.3416824 133.2016024  39.0566304
  16.9629992 135.1419978  25.6820014  17.1449992 134.6929978  26.5070014
  16.3629992 134.5579978  25.2180014  16.9068187 135.0015552  25.7322739
   2.4929992 135.9579978  30.2140014   2.9379992 135.1659978  30.5160014
   2.9589992 136.6739978  30.6440014   2.6169718 135.9464534  30.3135265
   0.7969992 138.9569978  31.2830014   1.2889992 138.7359978  30.4920014
   1.1589992 139.7969978  31.5640014   0.9132923 139.0403468  31.2127407
  18.7929992 135.2869978  37.5480014  17.8759992 135.5579978  37.5130014
  18.9159992 134.7519978  36.7640014  18.6839672 135.2517885  37.4371862
  18.8299992 135.2099978  22.2100014  19.2419992 134.4889978  21.7350014
  19.5109992 135.8789978  22.2680014  18.9785536 135.2017766  22.1528024
   1.1109992 135.2149978  25.3370014   0.1859992 135.4229978  25.2080014
   1.5649992 135.6989978  24.6470014   1.0456298 135.3089299  25.2260451
   1.0739992 133.9529978  33.6810014   0.4089992 133.7069978  34.3240014
   0.6309992 134.5749978  33.1040014   0.9231168 134.0034214  33.6909848
  17.7939992 133.3769978  35.3670014  16.9809992 133.7019978  34.9800014
  18.0269992 132.6159978  34.8340014  17.7141347 133.3186880  35.2419841
  11.2239992 134.8259978  29.6900014  10.5499992 134.1959978  29.9460014
  11.7879992 134.3419978  29.0870014  11.2080384 134.6743708  29.6435020
  16.3669992 132.9329978  29.8030014  16.9699992 133.4809978  29.3010014
  15.4969992 133.2519978  29.5620014  16.3319157 133.0510373  29.7017910
  18.0939992 134.0719978  28.1360014  18.7049992 133.5579978  27.6090014
  18.4759992 134.9489978  28.1590014  18.2293305 134.1202050  28.0669418
   3.5509992 133.4599978  27.5120014   2.7739992 133.2249978  27.0050014
   4.0809992 132.6629978  27.5210014   3.5163451 133.3201268  27.4438627
   2.3869992 133.2579978  23.3160014   2.8259992 133.8689978  22.7240014
   1.7529992 133.7959978  23.7900014   2.3613859 133.4144064  23.2990305
   8.1299992 133.3859978  27.3250014   9.0039992 133.7749978  27.2960014
   7.9939992 133.1709978  28.2480014   8.2311953 133.4101643  27.4457617
  13.6869992 133.4159978  28.9750014  13.7629992 133.5119978  28.0250014
  13.4119992 132.5089978  29.1030014  13.6601871 133.3064146  28.8623944
  15.0399992 133.4419978  24.6670014  14.3369992 134.0569978  24.4570014
  14.5949992 132.6049978  24.7980014  14.8836550 133.4129668  24.6559837
   4.2479992 135.1739978  21.7580014   4.7389992 134.5439978  21.2310014
   4.8709992 135.4699978  22.4210014   4.3995304 135.1277376  21.7754940
   9.2739992 135.4669978  24.2150014   9.4519992 134.8199978  24.8980014
   9.2199992 136.3009978  24.6820014   9.2910678 135.4911604  24.3716301
   3.5079992 133.9739978  37.0300014   3.1419992 133.2079978  37.4720014
   4.4209992 134.0029978  37.3160014   3.5813172 133.8730324  37.1291890
   5.4809992 133.3239978  38.5650014   6.3799992 133.0499978  38.3810014
   5.0949992 132.5819978  39.0300014   5.5517307 133.1862196  38.6027098
  13.9029992 132.6569978  38.7480014  13.9789992 132.2309978  39.6010014
  14.7959992 132.6699978  38.4050014  14.0342303 132.6003493  38.8185497
  31.4849992 142.6159978  27.4710014  31.5739992 143.5599978  27.3390014
  30.8469992 142.3409978  26.8130014  31.4109062 142.7079812  27.3639641
  30.4179992 141.8709978  30.8900014  30.3799992 141.2249978  31.5950014
  30.0959992 141.4039978  30.1190014  30.3692679 141.7194276  30.8822921
  22.7859992 141.4849978  32.4830014  22.8279992 140.8599978  33.2060014
  23.4889992 142.1089978  32.6650014  22.8867345 141.4837873  32.6065274
  34.1239992 144.8099978  29.1910014  33.6829992 144.0899978  29.6420014
  34.1109992 145.5309978  29.8210014  34.0619215 144.8089291  29.3378105
  20.3199992 139.5949978  26.4100014  19.8719992 140.4409978  26.3920014
  19.7589992 139.0159978  25.8950014  20.1828546 139.6323993  26.3378891
  21.0299992 141.7569978  28.5360014  21.2439992 140.9869978  29.0640014
  21.7679992 141.8469978  27.9330014  21.1590200 141.6638587  28.5267035
  28.8069992 144.3029978  31.2960014  29.1109992 143.6169978  30.7010014
  29.5289992 144.4219978  31.9140014  28.9461240 144.2252314  31.2980959
  37.4699992 135.9049978  32.1560014  37.5199992 136.5149978  32.8920014
  37.8959992 136.3659978  31.4330014  37.5344108 136.0507709  32.1590112
  31.9479992 138.6969978  31.6230014  32.0909992 137.7509978  31.6430014
  31.8419992 138.9039978  30.6950014  31.9532403 138.5954797  31.5002239
  25.1029992 136.7989978  28.8960014  25.1459992 137.6589978  28.4770014
  24.6449992 136.2469978  28.2620014  25.0469871 136.8419245  28.7530761
  32.8249992 136.9299978  27.2970014  33.4719992 136.6009978  27.9210014
  33.3349992 137.4469978  26.6740014  32.9824351 136.9549067  27.2981037
  21.7229992 139.1959978  29.6580014  22.3769992 138.6459978  30.0900014
  21.7469992 138.9219978  28.7410014  21.8157199 139.0837167  29.5931668
  26.8799992 140.7459978  28.8730014  27.4959992 140.2189978  29.3820014
  26.2929992 140.1059978  28.4690014  26.8850154 140.5873954  28.8880945
  37.8619992 137.3829978  34.3920014  37.1729992 138.0409978  34.2970014
  37.8769992 137.1849978  35.3290014  37.7697756 137.4462603  34.5055812
  23.9129992 135.7169978  32.9700014  23.6939992 136.2469978  32.2030014
  23.2449992 135.9429978  33.6170014  23.7926975 135.8200967  32.9525140
  31.2819992 145.2169978  26.5140014  30.9869992 144.8939978  25.6620014
  30.9579992 146.1169978  26.5550014  31.1978460 145.2944464  26.4029714
  26.4819992 143.3919978  33.2570014  25.7419992 143.9909978  33.3610014
  27.1959992 143.9459978  32.9420014  26.4773500 143.5487829  33.2286371
  34.5889992 136.2209978  29.2770014  34.3739992 135.4549978  29.8100014
  35.2449992 136.6929978  29.7900014  34.6482673 136.1800728  29.4191990
  23.5069992 137.6089978  30.9220014  24.1209992 138.2419978  31.2950014
  24.0189992 137.1369978  30.2660014  23.6601962 137.6317249  30.8842935
  24.8899992 145.3569978  34.0440014  24.8839992 146.2359978  33.6660014
  24.0359992 145.2729978  34.4690014  24.7737925 145.4659535  34.0496887
  21.0109992 145.0279978  24.8260014  20.7389992 145.2569978  23.9380014
  21.0559992 145.8649978  25.2870014  20.9798097 145.1726163  24.7666683
  34.9359992 134.9359978  32.9560014  34.1999992 135.5459978  32.9190014
  35.6199992 135.3509978  32.4300014  34.9275367 135.0757551  32.8798174
  27.9399992 133.0219978  30.4220014  27.8219992 132.0739978  30.3680014
  27.0849992 133.3549978  30.6950014  27.8082805 132.9372202  30.4515079
  35.7339992 144.8979978  35.1500014  35.8729992 144.3059978  34.4110014
  35.9009992 145.7709978  34.7940014  35.7756193 144.9348896  35.0006211
  30.2059992 141.8599978  24.9230014  29.4949992 142.3949978  24.5710014
  30.8969992 141.9149978  24.2630014  30.2020751 141.9406777  24.7855858
  30.2599992 140.3169978  21.9610014  30.9609992 140.3399978  22.6130014
  30.5619992 139.6889978  21.3050014  30.3968202 140.2352212  21.9615609
  37.5749992 141.2379978  33.2160014  36.9229992 141.9319978  33.3050014
  38.0409992 141.4479978  32.4060014  37.5485937 141.3615019  33.1187533
  33.6119992 142.0689978  25.8740014  32.8799992 142.2979978  26.4480014
  34.0589992 141.3559978  26.3290014  33.5723963 142.0038729  26.0139945
  33.5089992 140.2439978  34.9420014  33.5889992 141.0069978  35.5140014
  32.9079992 140.5229978  34.2520014  33.4386547 140.3862457  34.9270047
  25.2569992 142.6999978  27.7570014  24.9269992 142.3289978  26.9390014
  25.8459992 142.0289978  28.1040014  25.2913970 142.5586063  27.6919404
  25.6239992 141.4679978  31.3900014  26.1889992 141.5899978  30.6280014
  25.9429992 142.1059978  32.0290014  25.7444166 141.5708791  31.3720348
  32.4829992 141.2319978  23.5600014  33.0619992 141.3819978  24.3060014
  32.8969992 141.7019978  22.8360014  32.6183358 141.3160954  23.5643953
  23.4239992 142.0659978  35.3360014  23.4939992 142.7169978  36.0350014
  22.5329992 142.1689978  35.0010014  23.3131690 142.1689249  35.3863043
  36.1819992 132.9819978  23.3730014  35.2819992 133.1209978  23.6680014
  36.4339992 133.8129978  22.9710014  36.0928683 133.1134055  23.3590232
  24.2479992 141.7689978  25.3460014  23.9559992 142.5369978  24.8550014
  23.5729992 141.1099978  25.1830014  24.1168497 141.7849745  25.2568260
  20.3409992 144.1319978  34.1610014  19.8389992 144.1039978  33.3460014
  20.3459992 143.2269978  34.4710014  20.2729832 144.0057486  34.0914121
  35.4409992 139.0719978  37.2080014  35.0329992 139.5519978  36.4870014
  35.4809992 138.1659978  36.9000014  35.3906221 139.0152449  37.0678267
  22.5899992 145.4559978  35.2040014  22.8059992 145.0939978  36.0640014
  21.7339992 145.0809978  34.9950014  22.5038810 145.3558837  35.2932680
  25.2079992 133.9259978  31.2000014  24.3469992 133.8389978  30.7920014
  25.1859992 134.7819978  31.6280014  25.0870491 134.0298003  31.2019582
  29.8709992 133.6479978  34.5750014  30.2909992 133.2329978  35.3280014
  28.9379992 133.4689978  34.6920014  29.8023736 133.5669910  34.6938968
  33.1979992 137.4029978  35.4280014  32.6839992 137.2779978  36.2260014
  33.0419992 138.3159978  35.1840014  33.1066967 137.5092123  35.5040937
  33.9599992 142.2639978  21.1890014  34.0019992 142.0419978  20.2590014
  34.8089992 142.6629978  21.3790014  34.0805253 142.2875498  21.0873822
  29.5329992 136.1399978  21.8600014  29.2789992 136.1589978  22.7820014
  29.2759992 135.2689978  21.5580014  29.4634508 136.0248280  21.9454803
  25.2989992 138.8909978  32.2950014  24.6579992 138.8509978  33.0040014
  25.3369992 139.8179978  32.0570014  25.2163010 139.0107668  32.3599946
  25.2959992 139.1119978  27.2070014  24.4039992 138.7719978  27.1480014
  25.7469992 138.7349978  26.4510014  25.2347642 139.0144910  27.0967726
  30.8319992 139.5279978  26.0240014  30.4229992 140.3429978  25.7320014
  31.5519992 139.3879978  25.4100014  30.8734439 139.6205372  25.9010115
  29.9339992 139.7039978  37.5120014  29.3709992 138.9989978  37.8330014
  30.7599992 139.5829978  37.9800014  29.9686674 139.5912165  37.6191751
  31.8369992 138.9739978  28.8380014  31.6409992 139.5799978  28.1230014
  32.0179992 138.1409978  28.4040014  31.8346584 138.9442513  28.6814212
  23.0489992 139.2119978  34.1620014  23.0109992 139.6119978  35.0310014
  22.5589992 138.3949978  34.2520014  22.9775330 139.1562674  34.2931289
  26.4149992 136.5859978  20.9610014  25.9839992 136.1409978  21.6900014
  25.6969992 136.9569978  20.4480014  26.2589176 136.5752051  20.9914930
  19.6579992 136.3279978  28.0130014  20.2879992 136.2989978  28.7320014
  20.1069992 135.9029978  27.2820014  19.8050835 136.2665660  28.0127659
  20.9319992 137.0739978  23.4370014  21.4059992 137.6649978  22.8520014
  20.2139992 137.6039978  23.7840014  20.8998640 137.2265511  23.4037969
  31.1009992 140.6119978  33.5090014  31.4239992 139.9809978  32.8660014
  30.6599992 140.0779978  34.1700014  31.0856379 140.4533468  33.5102582
  27.8779992 136.5399978  28.2930014  26.9669992 136.5969978  28.5820014
  28.3829992 136.4799978  29.1040014  27.8216873 136.5396826  28.4421207
  22.7059992 138.1689978  27.1200014  21.8169992 138.2679978  26.7800014
  23.0029992 137.3269978  26.7740014  22.6244177 138.0687687  27.0266940
  26.3589992 138.1689978  24.7770014  27.2909992 138.2979978  24.9550014
  26.1439992 138.8379978  24.1270014  26.4574472 138.2770806  24.7134891
  32.2829992 135.7749978  31.5580014  31.6059992 135.9059978  32.2210014
  31.7979992 135.6199978  30.7470014  32.1247405 135.7719947  31.5392170
  25.0329992 139.3629978  22.3430014  24.4909992 138.9839978  21.6520014
  25.8669992 139.5579978  21.9150014  25.0714390 139.3374079  22.1904392
  23.1689992 143.9199978  37.4420014  23.9009992 144.1749978  38.0040014
  22.3879992 144.1249978  37.9580014  23.1636526 143.9825450  37.5885176
  29.1979992 139.3269978  30.1800014  29.7619992 138.7809978  29.6330014
  29.0499992 138.8059978  30.9690014  29.2553037 139.1816787  30.2117229
  24.1999992 135.4639978  26.5990014  23.8829992 134.5609978  26.5630014
  24.9809992 135.4659978  26.0460014  24.2622431 135.3407797  26.5193102
  27.8239992 137.7159978  32.5940014  26.9889992 138.1699978  32.7050014
  28.3479992 137.9919978  33.3460014  27.7806072 137.8153948  32.7108136
  28.3689992 143.9289978  24.2790014  27.6239992 143.4209978  23.9570014
  28.2339992 143.9779978  25.2250014  28.2488963 143.8661731  24.3628826
  35.5189992 143.0619978  33.0660014  36.1599992 143.5179978  32.5220014
  34.6879992 143.1749978  32.6030014  35.4945287 143.1396921  32.9289887
  32.2659992 136.7429978  22.4780014  31.3279992 136.8539978  22.3270014
  32.5639992 137.5989978  22.7850014  32.1776318 136.8740158  22.4988145
  29.8879992 144.1129978  35.5160014  29.5419992 143.7309978  36.3230014
  29.6879992 145.0459978  35.5870014  29.8135987 144.1869002  35.6360461
  32.9849992 138.6099978  24.1390014  33.8769992 138.4719978  24.4580014
  33.0409992 139.4009978  23.6020014  33.1147325 138.6979918  24.1101217
  23.4929992 143.2239978  30.0490014  24.2379992 143.2209978  29.4470014
  23.5709992 142.3999978  30.5300014  23.6053365 143.1122384  30.0317430
  30.4939992 145.3869978  23.3040014  30.1989992 146.2139978  23.6860014
  29.7909992 144.7679978  23.5010014  30.3586379 145.4164171  23.3828654
  20.5009992 141.6839978  35.3640014  20.7239992 141.2659978  36.1950014
  19.8989992 141.0719978  34.9410014  20.4501513 141.5439606  35.4206740
  27.5179992 141.2009978  37.5770014  27.2219992 141.0359978  36.6810014
  28.4489992 140.9809978  37.5660014  27.6034401 141.1486879  37.4530206
  37.8699992 138.8189978  23.8340014  37.3149992 138.4229978  23.1610014
  37.9699992 139.7299978  23.5560014  37.8076816 138.8879505  23.7045033
  37.8329992 144.6199978  36.6710014  36.9819992 144.8579978  36.3030014
  38.4229992 144.6029978  35.9180014  37.7963812 144.6502524  36.5188453
  33.3249992 142.4129978  31.3200014  32.3969992 142.1819978  31.2930014
  33.7759992 141.6359978  30.9900014  33.2588165 142.2762774  31.2716790
  21.6229992 141.6039978  22.0400014  22.2389992 142.2309978  22.4200014
  20.7609992 141.9199978  22.3120014  21.5907678 141.7324412  22.1287209
  27.2959992 144.4049978  27.0290014  27.0549992 145.3299978  27.0710014
  26.5549992 143.9459978  27.4260014  27.1629206 144.4695915  27.0883769
  31.3539992 144.6529978  33.0450014  30.9289992 144.4249978  33.8710014
  31.9349992 143.9139978  32.8630014  31.3743395 144.5219545  33.1334414
  22.1349992 136.4379978  34.9220014  21.2429992 136.7759978  34.8540014
  22.0369992 135.5819978  35.3400014  21.9994475 136.3686543  34.9691704
  34.4229992 144.2539978  24.3460014  34.1459992 143.5259978  24.9020014
  35.3509992 144.3729978  24.5510014  34.5104499 144.1704213  24.4498044
  23.0379992 143.5159978  23.5330014  22.3519992 143.8689978  24.1000014
  23.5609992 144.2789978  23.2860014  23.0148402 143.6673901  23.5771801
  30.8699992 136.1789978  33.8120014  31.5689992 136.2529978  34.4620014
  30.4889992 135.3139978  33.9660014  30.9142097 136.0722389  33.9217997
  31.6539992 135.8309978  24.9090014  31.8739992 136.3019978  24.1050014
  32.2129992 136.2249978  25.5790014  31.7596731 135.9487287  24.8895033
  28.8539992 137.5589978  25.7440014  29.6659992 138.0629978  25.7900014
  28.6099992 137.4139978  26.6580014  28.9321467 137.6083749  25.8738575
  29.3899992 138.5449978  34.9280014  29.5089992 139.1189978  35.6850014
  30.0449992 137.8569978  35.0430014  29.4948684 138.5305194  35.0471674
  29.7379992 134.6399978  26.6820014  29.3909992 135.2569978  27.3260014
  30.3969992 135.1409978  26.2000014  29.7795090 134.7921575  26.7050681
  25.3959992 135.7029978  23.3690014  25.3119992 136.5909978  23.7160014
  26.2859992 135.4379978  23.6010014  25.5048163 135.7887179  23.4478596
  35.5939992 136.4519978  35.7630014  34.6779992 136.7139978  35.6760014
  35.9299992 136.4489978  34.8670014  35.5138499 136.4875163  35.6298766
  34.1969992 140.2019978  29.8590014  33.3989992 139.7869978  29.5310014
  34.6419992 139.5119978  30.3500014  34.1479684 140.0518628  29.8805227
  21.9699992 138.7949978  21.5450014  21.9249992 139.7339978  21.7240014
  21.0819992 138.5589978  21.2760014  21.8438166 138.8916687  21.5331524
  22.7779992 133.5759978  30.2190014  22.5489992 133.6349978  29.2910014
  22.3359992 132.7849978  30.5250014  22.6868801 133.4770540  30.1334729
  20.9039992 143.9399978  38.6630014  21.0479992 143.0379978  38.3770014
  20.1319992 144.2259978  38.1760014  20.8192733 143.8551798  38.5579532
  25.2449992 144.2829978  20.7960014  25.3099992 143.4889978  21.3260014
  25.8979992 144.1649978  20.1060014  25.3421605 144.1583430  20.7752997
  27.5589992 143.9089978  38.0960014  27.2309992 144.1799978  37.2390014
  27.7109992 142.9679978  38.0080014  27.5346412 143.8189046  37.9667822
  30.5979992 145.3299978  20.5320014  30.3289992 145.5109978  21.4320014
  30.3909992 144.4049978  20.4000014  30.5331191 145.2297119  20.6375524
  33.2939992 143.8249978  35.4790014  34.0389992 144.4139978  35.3600014
  32.5369992 144.4069978  35.5430014  33.2935470 143.9842128  35.4713799
  21.7369992 141.1399978  38.0830014  22.1449992 140.2829978  37.9620014
  21.4759992 141.1539978  39.0040014  21.7576016 141.0245119  38.1909192
  26.3949992 142.2559978  23.1020014  25.9349992 141.7719978  23.7870014
  26.6499992 141.5869978  22.4660014  26.3664856 142.0993669  23.1098397
  25.6839992 140.1489978  35.4580014  25.0649992 140.8229978  35.7380014
  26.0279992 140.4699978  34.6240014  25.6457123 140.2846887  35.3836388
  27.4659992 140.4989978  21.3640014  27.2849992 140.3439978  20.4370014
  28.4159992 140.6069978  21.4090014  27.5696566 140.4923669  21.2430929
  30.7029992 142.6199978  38.7350014  31.6569992 142.7039978  38.7080014
  30.5429992 141.9079978  39.3550014  30.8117182 142.5352842  38.8150733
  36.8559992 142.8529978  20.8100014  36.5819992 142.4289978  19.9970014
  36.8949992 143.7849978  20.5930014  36.8237716 142.9208827  20.6694286
  26.0229992 137.5039978  36.5400014  26.1729992 136.7749978  35.9380014
  26.0249992 138.2809978  35.9810014  26.0437967 137.5092708  36.3820541
  26.4359992 135.8729978  34.0330014  26.9709992 136.3249978  33.3810014
  25.5829992 135.7649978  33.6100014  26.3940374 135.9202665  33.8866710
  28.0169992 141.3129978  34.2720014  28.7679992 141.1569978  33.6990014
  27.6779992 142.1649978  33.9970014  28.0739587 141.4068138  34.1564078
  32.4329992 139.1279978  39.3010014  32.6249992 138.1969978  39.1890014
  33.2909992 139.5529978  39.2900014  32.5752182 139.0580070  39.2841862
  33.7499992 141.9169978  37.3780014  33.4679992 142.6259978  36.8000014
  34.6919992 141.8439978  37.2270014  33.8387921 142.0042193  37.2784225
  24.5019992 138.7019978  38.4510014  23.7339992 138.1689978  38.2410014
  25.1799992 138.3919978  37.8520014  24.4887235 138.5871754  38.3412413
  27.2409992 133.3299978  34.4640014  27.1429992 134.2759978  34.3590014
  26.4989992 132.9569978  33.9880014  27.1272534 133.4091773  34.3852600
  28.5049992 137.6509978  38.0280014  28.2699992 137.4319978  38.9290014
  27.7219992 137.4439978  37.5180014  28.3669095 137.5929892  38.0825353
  31.2209992 136.7789978  37.1030014  30.2729992 136.8109978  37.2350014
  31.5329992 136.1529978  37.7570014  31.1335293 136.6987923  37.2094148
  32.8549992 135.4129978  39.1080014  32.7579992 134.4609978  39.1030014
  32.5329992 135.6809978  39.9690014  32.7982468 135.3190884  39.2236210
  22.6819992 136.6219978  38.1560014  22.8939992 135.9159978  37.5460014
  22.5709992 136.1849978  39.0000014  22.6960269 136.4661921  38.1865873
  27.4629992 132.6239978  37.1350014  28.1749992 131.9839978  37.1210014
  27.3619992 132.8899978  36.2220014  27.5467387 132.5724330  37.0095563
  27.8169992 134.3059978  39.1890014  27.6849992 133.8309978  38.3690014
  27.2169992 135.0509978  39.1340014  27.7179070 134.3415789  39.0693251
  36.0129992 145.4659978  39.2710014  35.1469992 145.3609978  39.6650014
  36.3889992 146.2239978  39.7170014  35.9453401 145.5541708  39.3852620
  37.3139992 143.7219978  24.7850014  38.1639992 144.1429978  24.9120014
  37.3189992 142.9819978  25.3920014  37.4311143 143.6796094  24.8844750
  37.7079992 141.7759978  26.6080014  36.9819992 141.2959978  27.0060014
  38.2899992 141.9809978  27.3410014  37.6872730 141.7380184  26.7614149
  37.4669992 144.5609978  31.5560014  38.3009992 144.1829978  31.2750014
  37.5789992 145.5039978  31.4370014  37.5961917 144.6367943  31.5014861
  37.9769992 141.6769978  22.9990014  37.4549992 142.0329978  22.2810014
  37.9439992 142.3519978  23.6780014  37.9010129 141.8169598  22.9923355
  36.3259992 138.9159978  21.5500014  36.4219992 139.5829978  20.8700014
  36.1859992 138.1009978  21.0690014  36.3202040 138.8970671  21.3918378
  35.4949992 140.2969978  27.1710014  35.3449992 139.3519978  27.1510014
  35.1409992 140.5779978  28.0150014  35.4266351 140.2056644  27.2823220
  20.5299992 142.3749978  31.1820014  20.7149992 142.2929978  30.2460014
  21.3799992 142.2509978  31.6050014  20.6700928 142.3470463  31.1112893
  36.3509992 142.2669978  36.8100014  36.9339992 141.5319978  37.0020014
  36.9149992 143.0389978  36.8570014  36.5069781 142.2708145  36.8426164
  37.8479992 140.1699978  37.4950014  36.9849992 139.7909978  37.3290014
  38.4519992 139.4309978  37.4200014  37.8116085 140.0183223  37.4621694
  35.5729992 136.3239978  20.6680014  36.1839992 135.9529978  21.3050014
  34.7359992 135.9029978  20.8640014  35.5434947 136.2162756  20.7817252
  35.2059992 137.8789978  25.6340014  35.4849992 136.9719978  25.7580014
  35.9649992 138.3129978  25.2450014  35.3468619 137.8134502  25.5983795
  35.8169992 138.4609978  31.0700014  36.7499992 138.6729978  31.0350014
  35.5819992 138.5619978  31.9920014  35.9129517 138.5036833  31.1899130
  35.8469992 139.1979978  33.8460014  35.0039992 139.4659978  34.2120014
  36.2889992 140.0199978  33.6350014  35.7914138 139.3458273  33.8675518
  20.1279992 137.6449978  37.3220014  21.0469992 137.5229978  37.5590014
  19.6779992 136.8949978  37.7120014  20.1930087 137.5269608  37.4071410
  38.1299992 133.1779978  39.1990014  38.4789992 132.5239978  38.5940014
  38.2769992 134.0149978  38.7590014  38.1976824 133.2016024  39.0566304
  35.8189992 135.1419978  25.6820014  36.0009992 134.6929978  26.5070014
  35.2189992 134.5579978  25.2180014  35.7628187 135.0015552  25.7322739
  21.3489992 135.9579978  30.2140014  21.7939992 135.1659978  30.5160014
  21.8149992 136.6739978  30.6440014  21.4729718 135.9464534  30.3135265
  19.6529992 138.9569978  31.2830014  20.1449992 138.7359978  30.4920014
  20.0149992 139.7969978  31.5640014  19.7692923 139.0403468  31.2127407
  37.6489992 135.2869978  37.5480014  36.7319992 135.5579978  37.5130014
  37.7719992 134.7519978  36.7640014  37.5399672 135.2517885  37.4371862
  37.6859992 135.2099978  22.2100014  38.0979992 134.4889978  21.7350014
  38.3669992 135.8789978  22.2680014  37.8345536 135.2017766  22.1528024
  19.9669992 135.2149978  25.3370014  19.0419992 135.4229978  25.2080014
  20.4209992 135.6989978  24.6470014  19.9016298 135.3089299  25.2260451
  19.9299992 133.9529978  33.6810014  19.2649992 133.7069978  34.3240014
  19.4869992 134.5749978  33.1040014  19.7791168 134.0034214  33.6909848
  36.6499992 133.3769978  35.3670014  35.8369992 133.7019978  34.9800014
  36.8829992 132.6159978  34.8340014  36.5701347 133.3186880  35.2419841
  30.0799992 134.8259978  29.6900014  29.4059992 134.1959978  29.9460014
  30.6439992 134.3419978  29.0870014  30.0640384 134.6743708  29.6435020
  35.2229992 132.9329978  29.8030014  35.8259992 133.4809978  29.3010014
  34.3529992 133.2519978  29.5620014  35.1879157 133.0510373  29.7017910
  36.9499992 134.0719978  28.1360014  37.5609992 133.5579978  27.6090014
  37.3319992 134.9489978  28.1590014  37.0853305 134.1202050  28.0669418
  22.4069992 133.4599978  27.5120014  21.6299992 133.2249978  27.0050014
  22.9369992 132.6629978  27.5210014  22.3723451 133.3201268  27.4438627
  21.2429992 133.2579978  23.3160014  21.6819992 133.8689978  22.7240014
  20.6089992 133.7959978  23.7900014  21.2173859 133.4144064  23.2990305
  26.9859992 133.3859978  27.3250014  27.8599992 133.7749978  27.2960014
  26.8499992 133.1709978  28.2480014  27.0871953 133.4101643  27.4457617
  32.5429992 133.4159978  28.9750014  32.6189992 133.5119978  28.0250014
  32.2679992 132.5089978  29.1030014  32.5161871 133.3064146  28.8623944
  33.8959992 133.4419978  24.6670014  33.1929992 134.0569978  24.4570014
  33.4509992 132.6049978  24.7980014  33.7396550 133.4129668  24.6559837
  23.1039992 135.1739978  21.7580014  23.5949992 134.5439978  21.2310014
  23.7269992 135.4699978  22.4210014  23.2555304 135.1277376  21.7754940
  28.1299992 135.4669978  24.2150014  28.3079992 134.8199978  24.8980014
  28.0759992 136.3009978  24.6820014  28.1470678 135.4911604  24.3716301
  22.3639992 133.9739978  37.0300014  21.9979992 133.2079978  37.4720014
  23.2769992 134.0029978  37.3160014  22.4373172 133.8730324  37.1291890
  24.3369992 133.3239978  38.5650014  25.2359992 133.0499978  38.3810014
  23.9509992 132.5819978  39.0300014  24.4077307 133.1862196  38.6027098
  32.7589992 132.6569978  38.7480014  32.8349992 132.2309978  39.6010014
  33.6519992 132.6699978  38.4050014  32.8902303 132.6003493  38.8185497
  50.3409992 142.6159978  27.4710014  50.4299992 143.5599978  27.3390014
  49.7029992 142.3409978  26.8130014  50.2669062 142.7079812  27.3639641
  49.2739992 141.8709978  30.8900014  49.2359992 141.2249978  31.5950014
  48.9519992 141.4039978  30.1190014  49.2252679 141.7194276  30.8822921
  41.6419992 141.4849978  32.4830014  41.6839992 140.8599978  33.2060014
  42.3449992 142.1089978  32.6650014  41.7427345 141.4837873  32.6065274
  52.9799992 144.8099978  29.1910014  52.5389992 144.0899978  29.6420014
  52.9669992 145.5309978  29.8210014  52.9179215 144.8089291  29.3378105
  39.1759992 139.5949978  26.4100014  38.7279992 140.4409978  26.3920014
  38.6149992 139.0159978  25.8950014  39.0388546 139.6323993  26.3378891
  39.8859992 141.7569978  28.5360014  40.0999992 140.9869978  29.0640014
  40.6239992 141.8469978  27.9330014  40.0150200 141.6638587  28.5267035
  47.6629992 144.3029978  31.2960014  47.9669992 143.6169978  30.7010014
  48.3849992 144.4219978  31.9140014  47.8021240 144.2252314  31.2980959
  56.3259992 135.9049978  32.1560014  56.3759992 136.5149978  32.8920014
  56.7519992 136.3659978  31.4330014  56.3904108 136.0507709  32.1590112
  50.8039992 138.6969978  31.6230014  50.9469992 137.7509978  31.6430014
  50.6979992 138.9039978  30.6950014  50.8092403 138.5954797  31.5002239
  43.9589992 136.7989978  28.8960014  44.0019992 137.6589978  28.4770014
  43.5009992 136.2469978  28.2620014  43.9029871 136.8419245  28.7530761
  51.6809992 136.9299978  27.2970014  52.3279992 136.6009978  27.9210014
  52.1909992 137.4469978  26.6740014  51.8384351 136.9549067  27.2981037
  40.5789992 139.1959978  29.6580014  41.2329992 138.6459978  30.0900014
  40.6029992 138.9219978  28.7410014  40.6717199 139.0837167  29.5931668
  45.7359992 140.7459978  28.8730014  46.3519992 140.2189978  29.3820014
  45.1489992 140.1059978  28.4690014  45.7410154 140.5873954  28.8880945
  56.7179992 137.3829978  34.3920014  56.0289992 138.0409978  34.2970014
  56.7329992 137.1849978  35.3290014  56.6257756 137.4462603  34.5055812
  42.7689992 135.7169978  32.9700014  42.5499992 136.2469978  32.2030014
  42.1009992 135.9429978  33.6170014  42.6486975 135.8200967  32.9525140
  50.1379992 145.2169978  26.5140014  49.8429992 144.8939978  25.6620014
  49.8139992 146.1169978  26.5550014  50.0538460 145.2944464  26.4029714
  45.3379992 143.3919978  33.2570014  44.5979992 143.9909978  33.3610014
  46.0519992 143.9459978  32.9420014  45.3333500 143.5487829  33.2286371
  53.4449992 136.2209978  29.2770014  53.2299992 135.4549978  29.8100014
  54.1009992 136.6929978  29.7900014  53.5042673 136.1800728  29.4191990
  42.3629992 137.6089978  30.9220014  42.9769992 138.2419978  31.2950014
  42.8749992 137.1369978  30.2660014  42.5161962 137.6317249  30.8842935
  43.7459992 145.3569978  34.0440014  43.7399992 146.2359978  33.6660014
  42.8919992 145.2729978  34.4690014  43.6297925 145.4659535  34.0496887
  39.8669992 145.0279978  24.8260014  39.5949992 145.2569978  23.9380014
  39.9119992 145.8649978  25.2870014  39.8358097 145.1726163  24.7666683
  53.7919992 134.9359978  32.9560014  53.0559992 135.5459978  32.9190014
  54.4759992 135.3509978  32.4300014  53.7835367 135.0757551  32.8798174
  46.7959992 133.0219978  30.4220014  46.6779992 132.0739978  30.3680014
  45.9409992 133.3549978  30.6950014  46.6642805 132.9372202  30.4515079
  54.5899992 144.8979978  35.1500014  54.7289992 144.3059978  34.4110014
  54.7569992 145.7709978  34.7940014  54.6316193 144.9348896  35.0006211
  49.0619992 141.8599978  24.9230014  48.3509992 142.3949978  24.5710014
  49.7529992 141.9149978  24.2630014  49.0580751 141.9406777  24.7855858
  49.1159992 140.3169978  21.9610014  49.8169992 140.3399978  22.6130014
  49.4179992 139.6889978  21.3050014  49.2528202 140.2352212  21.9615609
  56.4309992 141.2379978  33.2160014  55.7789992 141.9319978  33.3050014
  56.8969992 141.4479978  32.4060014  56.4045937 141.3615019  33.1187533
  52.4679992 142.0689978  25.8740014  51.7359992 142.2979978  26.4480014
  52.9149992 141.3559978  26.3290014  52.4283963 142.0038729  26.0139945
  52.3649992 140.2439978  34.9420014  52.4449992 141.0069978  35.5140014
  51.7639992 140.5229978  34.2520014  52.2946547 140.3862457  34.9270047
  44.1129992 142.6999978  27.7570014  43.7829992 142.3289978  26.9390014
  44.7019992 142.0289978  28.1040014  44.1473970 142.5586063  27.6919404
  44.4799992 141.4679978  31.3900014  45.0449992 141.5899978  30.6280014
  44.7989992 142.1059978  32.0290014  44.6004166 141.5708791  31.3720348
  51.3389992 141.2319978  23.5600014  51.9179992 141.3819978  24.3060014
  51.7529992 141.7019978  22.8360014  51.4743358 141.3160955  23.5643953
  42.2799992 142.0659978  35.3360014  42.3499992 142.7169978  36.0350014
  41.3889992 142.1689978  35.0010014  42.1691690 142.1689249  35.3863043
  55.0379992 132.9819978  23.3730014  54.1379992 133.1209978  23.6680014
  55.2899992 133.8129978  22.9710014  54.9488683 133.1134055  23.3590232
  43.1039992 141.7689978  25.3460014  42.8119992 142.5369978  24.8550014
  42.4289992 141.1099978  25.1830014  42.9728497 141.7849745  25.2568260
  39.1969992 144.1319978  34.1610014  38.6949992 144.1039978  33.3460014
  39.2019992 143.2269978  34.4710014  39.1289832 144.0057486  34.0914121
  54.2969992 139.0719978  37.2080014  53.8889992 139.5519978  36.4870014
  54.3369992 138.1659978  36.9000014  54.2466221 139.0152449  37.0678267
  41.4459992 145.4559978  35.2040014  41.6619992 145.0939978  36.0640014
  40.5899992 145.0809978  34.9950014  41.3598810 145.3558837  35.2932680
  44.0639992 133.9259978  31.2000014  43.2029992 133.8389978  30.7920014
  44.0419992 134.7819978  31.6280014  43.9430491 134.0298003  31.2019582
  48.7269992 133.6479978  34.5750014  49.1469992 133.2329978  35.3280014
  47.7939992 133.4689978  34.6920014  48.6583736 133.5669910  34.6938968
  52.0539992 137.4029978  35.4280014  51.5399992 137.2779978  36.2260014
  51.8979992 138.3159978  35.1840014  51.9626967 137.5092123  35.5040937
  52.8159992 142.2639978  21.1890014  52.8579992 142.0419978  20.2590014
  53.6649992 142.6629978  21.3790014  52.9365253 142.2875498  21.0873822
  48.3889992 136.1399978  21.8600014  48.1349992 136.1589978  22.7820014
  48.1319992 135.2689978  21.5580014  48.3194508 136.0248280  21.9454803
  44.1549992 138.8909978  32.2950014  43.5139992 138.8509978  33.0040014
  44.1929992 139.8179978  32.0570014  44.0723010 139.0107668  32.3599946
  44.1519992 139.1119978  27.2070014  43.2599992 138.7719978  27.1480014
  44.6029992 138.7349978  26.4510014  44.0907642 139.0144910  27.0967726
  49.6879992 139.5279978  26.0240014  49.2789992 140.3429978  25.7320014
  50.4079992 139.3879978  25.4100014  49.7294439 139.6205372  25.9010115
  48.7899992 139.7039978  37.5120014  48.2269992 138.9989978  37.8330014
  49.6159992 139.5829978  37.9800014  48.8246674 139.5912165  37.6191751
  50.6929992 138.9739978  28.8380014  50.4969992 139.5799978  28.1230014
  50.8739992 138.1409978  28.4040014  50.6906584 138.9442513  28.6814212
  41.9049992 139.2119978  34.1620014  41.8669992 139.6119978  35.0310014
  41.4149992 138.3949978  34.2520014  41.8335330 139.1562674  34.2931289
  45.2709992 136.5859978  20.9610014  44.8399992 136.1409978  21.6900014
  44.5529992 136.9569978  20.4480014  45.1149176 136.5752051  20.9914930
  38.5139992 136.3279978  28.0130014  39.1439992 136.2989978  28.7320014
  38.9629992 135.9029978  27.2820014  38.6610835 136.2665660  28.0127659
  39.7879992 137.0739978  23.4370014  40.2619992 137.6649978  22.8520014
  39.0699992 137.6039978  23.7840014  39.7558640 137.2265511  23.4037969
  49.9569992 140.6119978  33.5090014  50.2799992 139.9809978  32.8660014
  49.5159992 140.0779978  34.1700014  49.9416379 140.4533468  33.5102582
  46.7339992 136.5399978  28.2930014  45.8229992 136.5969978  28.5820014
  47.2389992 136.4799978  29.1040014  46.6776873 136.5396826  28.4421207
  41.5619992 138.1689978  27.1200014  40.6729992 138.2679978  26.7800014
  41.8589992 137.3269978  26.7740014  41.4804177 138.0687687  27.0266940
  45.2149992 138.1689978  24.7770014  46.1469992 138.2979978  24.9550014
  44.9999992 138.8379978  24.1270014  45.3134472 138.2770806  24.7134891
  51.1389992 135.7749978  31.5580014  50.4619992 135.9059978  32.2210014
  50.6539992 135.6199978  30.7470014  50.9807405 135.7719947  31.5392170
  43.8889992 139.3629978  22.3430014  43.3469992 138.9839978  21.6520014
  44.7229992 139.5579978  21.9150014  43.9274390 139.3374079  22.1904392
  42.0249992 143.9199978  37.4420014  42.7569992 144.1749978  38.0040014
  41.2439992 144.1249978  37.9580014  42.0196526 143.9825450  37.5885176
  48.0539992 139.3269978  30.1800014  48.6179992 138.7809978  29.6330014
  47.9059992 138.8059978  30.9690014  48.1113037 139.1816787  30.2117229
  43.0559992 135.4639978  26.5990014  42.7389992 134.5609978  26.5630014
  43.8369992 135.4659978  26.0460014  43.1182431 135.3407797  26.5193102
  46.6799992 137.7159978  32.5940014  45.8449992 138.1699978  32.7050014
  47.2039992 137.9919978  33.3460014  46.6366072 137.8153948  32.7108136
  47.2249992 143.9289978  24.2790014  46.4799992 143.4209978  23.9570014
  47.0899992 143.9779978  25.2250014  47.1048963 143.8661731  24.3628826
  54.3749992 143.0619978  33.0660014  55.0159992 143.5179978  32.5220014
  53.5439992 143.1749978  32.6030014  54.3505287 143.1396921  32.9289887
  51.1219992 136.7429978  22.4780014  50.1839992 136.8539978  22.3270014
  51.4199992 137.5989978  22.7850014  51.0336318 136.8740158  22.4988145
  48.7439992 144.1129978  35.5160014  48.3979992 143.7309978  36.3230014
  48.5439992 145.0459978  35.5870014  48.6695987 144.1869002  35.6360461
  51.8409992 138.6099978  24.1390014  52.7329992 138.4719978  24.4580014
  51.8969992 139.4009978  23.6020014  51.9707325 138.6979918  24.1101217
  42.3489992 143.2239978  30.0490014  43.0939992 143.2209978  29.4470014
  42.4269992 142.3999978  30.5300014  42.4613365 143.1122384  30.0317430
  49.3499992 145.3869978  23.3040014  49.0549992 146.2139978  23.6860014
  48.6469992 144.7679978  23.5010014  49.2146379 145.4164171  23.3828654
  39.3569992 141.6839978  35.3640014  39.5799992 141.2659978  36.1950014
  38.7549992 141.0719978  34.9410014  39.3061513 141.5439606  35.4206740
  46.3739992 141.2009978  37.5770014  46.0779992 141.0359978  36.6810014
  47.3049992 140.9809978  37.5660014  46.4594401 141.1486879  37.4530206
  56.7259992 138.8189978  23.8340014  56.1709992 138.4229978  23.1610014
  56.8259992 139.7299978  23.5560014  56.6636816 138.8879505  23.7045033
  56.6889992 144.6199978  36.6710014  55.8379992 144.8579978  36.3030014
  57.2789992 144.6029978  35.9180014  56.6523812 144.6502524  36.5188453
  52.1809992 142.4129978  31.3200014  51.2529992 142.1819978  31.2930014
  52.6319992 141.6359978  30.9900014  52.1148165 142.2762774  31.2716790
  40.4789992 141.6039978  22.0400014  41.0949992 142.2309978  22.4200014
  39.6169992 141.9199978  22.3120014  40.4467678 141.7324412  22.1287209
  46.1519992 144.4049978  27.0290014  45.9109992 145.3299978  27.0710014
  45.4109992 143.9459978  27.4260014  46.0189206 144.4695915  27.0883769
  50.2099992 144.6529978  33.0450014  49.7849992 144.4249978  33.8710014
  50.7909992 143.9139978  32.8630014  50.2303395 144.5219545  33.1334414
  40.9909992 136.4379978  34.9220014  40.0989992 136.7759978  34.8540014
  40.8929992 135.5819978  35.3400014  40.8554475 136.3686543  34.9691704
  53.2789992 144.2539978  24.3460014  53.0019992 143.5259978  24.9020014
  54.2069992 144.3729978  24.5510014  53.3664499 144.1704213  24.4498044
  41.8939992 143.5159978  23.5330014  41.2079992 143.8689978  24.1000014
  42.4169992 144.2789978  23.2860014  41.8708402 143.6673901  23.5771801
  49.7259992 136.1789978  33.8120014  50.4249992 136.2529978  34.4620014
  49.3449992 135.3139978  33.9660014  49.7702097 136.0722389  33.9217997
  50.5099992 135.8309978  24.9090014  50.7299992 136.3019978  24.1050014
  51.0689992 136.2249978  25.5790014  50.6156731 135.9487287  24.8895033
  47.7099992 137.5589978  25.7440014  48.5219992 138.0629978  25.7900014
  47.4659992 137.4139978  26.6580014  47.7881467 137.6083749  25.8738575
  48.2459992 138.5449978  34.9280014  48.3649992 139.1189978  35.6850014
  48.9009992 137.8569978  35.0430014  48.3508684 138.5305194  35.0471674
  48.5939992 134.6399978  26.6820014  48.2469992 135.2569978  27.3260014
  49.2529992 135.1409978  26.2000014  48.6355090 134.7921575  26.7050681
  44.2519992 135.7029978  23.3690014  44.1679992 136.5909978  23.7160014
  45.1419992 135.4379978  23.6010014  44.3608163 135.7887179  23.4478596
  54.4499992 136.4519978  35.7630014  53.5339992 136.7139978  35.6760014
  54.7859992 136.4489978  34.8670014  54.3698499 136.4875163  35.6298766
  53.0529992 140.2019978  29.8590014  52.2549992 139.7869978  29.5310014
  53.4979992 139.5119978  30.3500014  53.0039684 140.0518628  29.8805227
  40.8259992 138.7949978  21.5450014  40.7809992 139.7339978  21.7240014
  39.9379992 138.5589978  21.2760014  40.6998166 138.8916687  21.5331524
  41.6339992 133.5759978  30.2190014  41.4049992 133.6349978  29.2910014
  41.1919992 132.7849978  30.5250014  41.5428801 133.4770540  30.1334729
  39.7599992 143.9399978  38.6630014  39.9039992 143.0379978  38.3770014
  38.9879992 144.2259978  38.1760014  39.6752733 143.8551798  38.5579532
  44.1009992 144.2829978  20.7960014  44.1659992 143.4889978  21.3260014
  44.7539992 144.1649978  20.1060014  44.1981605 144.1583430  20.7752997
  46.4149992 143.9089978  38.0960014  46.0869992 144.1799978  37.2390014
  46.5669992 142.9679978  38.0080014  46.3906412 143.8189046  37.9667822
  49.4539992 145.3299978  20.5320014  49.1849992 145.5109978  21.4320014
  49.2469992 144.4049978  20.4000014  49.3891191 145.2297119  20.6375524
  52.1499992 143.8249978  35.4790014  52.8949992 144.4139978  35.3600014
  51.3929992 144.4069978  35.5430014  52.1495470 143.9842128  35.4713799
  40.5929992 141.1399978  38.0830014  41.0009992 140.2829978  37.9620014
  40.3319992 141.1539978  39.0040014  40.6136016 141.0245119  38.1909192
  45.2509992 142.2559978  23.1020014  44.7909992 141.7719978  23.7870014
  45.5059992 141.5869978  22.4660014  45.2224856 142.0993669  23.1098397
  44.5399992 140.1489978  35.4580014  43.9209992 140.8229978  35.7380014
  44.8839992 140.4699978  34.6240014  44.5017123 140.2846887  35.3836388
  46.3219992 140.4989978  21.3640014  46.1409992 140.3439978  20.4370014
  47.2719992 140.6069978  21.4090014  46.4256566 140.4923669  21.2430929
  49.5589992 142.6199978  38.7350014  50.5129992 142.7039978  38.7080014
  49.3989992 141.9079978  39.3550014  49.6677182 142.5352842  38.8150733
  55.7119992 142.8529978  20.8100014  55.4379992 142.4289978  19.9970014
  55.7509992 143.7849978  20.5930014  55.6797716 142.9208827  20.6694286
  44.8789992 137.5039978  36.5400014  45.0289992 136.7749978  35.9380014
  44.8809992 138.2809978  35.9810014  44.8997967 137.5092708  36.3820541
  45.2919992 135.8729978  34.0330014  45.8269992 136.3249978  33.3810014
  44.4389992 135.7649978  33.6100014  45.2500374 135.9202665  33.8866710
  46.8729992 141.3129978  34.2720014  47.6239992 141.1569978  33.6990014
  46.5339992 142.1649978  33.9970014  46.9299587 141.4068138  34.1564078
  51.2889992 139.1279978  39.3010014  51.4809992 138.1969978  39.1890014
  52.1469992 139.5529978  39.2900014  51.4312182 139.0580070  39.2841862
  52.6059992 141.9169978  37.3780014  52.3239992 142.6259978  36.8000014
  53.5479992 141.8439978  37.2270014  52.6947921 142.0042193  37.2784225
  43.3579992 138.7019978  38.4510014  42.5899992 138.1689978  38.2410014
  44.0359992 138.3919978  37.8520014  43.3447235 138.5871754  38.3412413
  46.0969992 133.3299978  34.4640014  45.9989992 134.2759978  34.3590014
  45.3549992 132.9569978  33.9880014  45.9832534 133.4091773  34.3852600
  47.3609992 137.6509978  38.0280014  47.1259992 137.4319978  38.9290014
  46.5779992 137.4439978  37.5180014  47.2229095 137.5929892  38.0825353
  50.0769992 136.7789978  37.1030014  49.1289992 136.8109978  37.2350014
  50.3889992 136.1529978  37.7570014  49.9895293 136.6987923  37.2094148
  51.7109992 135.4129978  39.1080014  51.6139992 134.4609978  39.1030014
  51.3889992 135.6809978  39.9690014  51.6542468 135.3190884  39.2236210
  41.5379992 136.6219978  38.1560014  41.7499992 135.9159978  37.5460014
  41.4269992 136.1849978  39.0000014  41.5520269 136.4661921  38.1865873
  46.3189992 132.6239978  37.1350014  47.0309992 131.9839978  37.1210014
  46.2179992 132.8899978  36.2220014  46.4027387 132.5724330  37.0095563
  46.6729992 134.3059978  39.1890014  46.5409992 133.8309978  38.3690014
  46.0729992 135.0509978  39.1340014  46.5739070 134.3415789  39.0693251
  54.8689992 145.4659978  39.2710014  54.0029992 145.3609978  39.6650014
  55.2449992 146.2239978  39.7170014  54.8013401 145.5541708  39.3852620
  56.1699992 143.7219978  24.7850014  57.0199992 144.1429978  24.9120014
  56.1749992 142.9819978  25.3920014  56.2871143 143.6796094  24.8844750
  56.5639992 141.7759978  26.6080014  55.8379992 141.2959978  27.0060014
  57.1459992 141.9809978  27.3410014  56.5432730 141.7380184  26.7614149
  56.3229992 144.5609978  31.5560014  57.1569992 144.1829978  31.2750014
  56.4349992 145.5039978  31.4370014  56.4521917 144.6367943  31.5014861
  56.8329992 141.6769978  22.9990014  56.3109992 142.0329978  22.2810014
  56.7999992 142.3519978  23.6780014  56.7570129 141.8169598  22.9923355
  55.1819992 138.9159978  21.5500014  55.2779992 139.5829978  20.8700014
  55.0419992 138.1009978  21.0690014  55.1762040 138.8970671  21.3918378
  54.3509992 140.2969978  27.1710014  54.2009992 139.3519978  27.1510014
  53.9969992 140.5779978  28.0150014  54.2826351 140.2056644  27.2823220
  39.3859992 142.3749978  31.1820014  39.5709992 142.2929978  30.2460014
  40.2359992 142.2509978  31.6050014  39.5260928 142.3470463  31.1112893
  55.2069992 142.2669978  36.8100014  55.7899992 141.5319978  37.0020014
  55.7709992 143.0389978  36.8570014  55.3629781 142.2708145  36.8426164
  56.7039992 140.1699978  37.4950014  55.8409992 139.7909978  37.3290014
  57.3079992 139.4309978  37.4200014  56.6676085 140.0183223  37.4621694
  54.4289992 136.3239978  20.6680014  55.0399992 135.9529978  21.3050014
  53.5919992 135.9029978  20.8640014  54.3994947 136.2162756  20.7817252
  54.0619992 137.8789978  25.6340014  54.3409992 136.9719978  25.7580014
  54.8209992 138.3129978  25.2450014  54.2028619 137.8134502  25.5983795
  54.6729992 138.4609978  31.0700014  55.6059992 138.6729978  31.0350014
  54.4379992 138.5619978  31.9920014  54.7689517 138.5036833  31.1899130
  54.7029992 139.1979978  33.8460014  53.8599992 139.4659978  34.2120014
  55.1449992 140.0199978  33.6350014  54.6474138 139.3458273  33.8675518
  38.9839992 137.6449978  37.3220014  39.9029992 137.5229978  37.5590014
  38.5339992 136.8949978  37.7120014  39.0490087 137.5269608  37.4071410
  56.9859992 133.1779978  39.1990014  57.3349992 132.5239978  38.5940014
  57.1329992 134.0149978  38.7590014  57.0536824 133.2016024  39.0566304
  54.6749992 135.1419978  25.6820014  54.8569992 134.6929978  26.5070014
  54.0749992 134.5579978  25.2180014  54.6188187 135.0015552  25.7322739
  40.2049992 135.9579978  30.2140014  40.6499992 135.1659978  30.5160014
  40.6709992 136.6739978  30.6440014  40.3289718 135.9464534  30.3135265
  38.5089992 138.9569978  31.2830014  39.0009992 138.7359978  30.4920014
  38.8709992 139.7969978  31.5640014  38.6252923 139.0403468  31.2127407
  56.5049992 135.2869978  37.5480014  55.5879992 135.5579978  37.5130014
  56.6279992 134.7519978  36.7640014  56.3959672 135.2517885  37.4371862
  56.5419992 135.2099978  22.2100014  56.9539992 134.4889978  21.7350014
  57.2229992 135.8789978  22.2680014  56.6905536 135.2017766  22.1528024
  38.8229992 135.2149978  25.3370014  37.8979992 135.4229978  25.2080014
  39.2769992 135.6989978  24.6470014  38.7576298 135.3089299  25.2260451
  38.7859992 133.9529978  33.6810014  38.1209992 133.7069978  34.3240014
  38.3429992 134.5749978  33.1040014  38.6351168 134.0034214  33.6909848
  55.5059992 133.3769978  35.3670014  54.6929992 133.7019978  34.9800014
  55.7389992 132.6159978  34.8340014  55.4261347 133.3186880  35.2419841
  48.9359992 134.8259978  29.6900014  48.2619992 134.1959978  29.9460014
  49.4999992 134.3419978  29.0870014  48.9200384 134.6743708  29.6435020
  54.0789992 132.9329978  29.8030014  54.6819992 133.4809978  29.3010014
  53.2089992 133.2519978  29.5620014  54.0439157 133.0510373  29.7017910
  55.8059992 134.0719978  28.1360014  56.4169992 133.5579978  27.6090014
  56.1879992 134.9489978  28.1590014  55.9413305 134.1202050  28.0669418
  41.2629992 133.4599978  27.5120014  40.4859992 133.2249978  27.0050014
  41.7929992 132.6629978  27.5210014  41.2283451 133.3201268  27.4438627
  40.0989992 133.2579978  23.3160014  40.5379992 133.8689978  22.7240014
  39.4649992 133.7959978  23.7900014  40.0733859 133.4144064  23.2990305
  45.8419992 133.3859978  27.3250014  46.7159992 133.7749978  27.2960014
  45.7059992 133.1709978  28.2480014  45.9431953 133.4101643  27.4457617
  51.3989992 133.4159978  28.9750014  51.4749992 133.5119978  28.0250014
  51.1239992 132.5089978  29.1030014  51.3721871 133.3064146  28.8623944
  52.7519992 133.4419978  24.6670014  52.0489992 134.0569978  24.4570014
  52.3069992 132.6049978  24.7980014  52.5956550 133.4129668  24.6559837
  41.9599992 135.1739978  21.7580014  42.4509992 134.5439978  21.2310014
  42.5829992 135.4699978  22.4210014  42.1115304 135.1277376  21.7754940
  46.9859992 135.4669978  24.2150014  47.1639992 134.8199978  24.8980014
  46.9319992 136.3009978  24.6820014  47.0030678 135.4911604  24.3716301
  41.2199992 133.9739978  37.0300014  40.8539992 133.2079978  37.4720014
  42.1329992 134.0029978  37.3160014  41.2933172 133.8730324  37.1291890
  43.1929992 133.3239978  38.5650014  44.0919992 133.0499978  38.3810014
  42.8069992 132.5819978  39.0300014  43.2637307 133.1862196  38.6027098
  51.6149992 132.6569978  38.7480014  51.6909992 132.2309978  39.6010014
  52.5079992 132.6699978  38.4050014  51.7462303 132.6003493  38.8185497
  69.1969992 142.6159978  27.4710014  69.2859992 143.5599978  27.3390014
  68.5589992 142.3409978  26.8130014  69.1229062 142.7079812  27.3639641
  68.1299992 141.8709978  30.8900014  68.0919992 141.2249978  31.5950014
  67.8079992 141.4039978  30.1190014  68.0812679 141.7194276  30.8822921
  60.4979992 141.4849978  32.4830014  60.5399992 140.8599978  33.2060014
  61.2009992 142.1089978  32.6650014  60.5987345 141.4837873  32.6065273
  71.8359992 144.8099978  29.1910014  71.3949992 144.0899978  29.6420014
  71.8229992 145.5309978  29.8210014  71.7739215 144.8089291  29.3378105
  58.0319992 139.5949978  26.4100014  57.5839992 140.4409978  26.3920014
  57.4709992 139.0159978  25.8950014  57.8948546 139.6323993  26.3378891
  58.7419992 141.7569978  28.5360014  58.9559992 140.9869978  29.0640014
  59.4799992 141.8469978  27.9330014  58.8710200 141.6638587  28.5267035
  66.5189992 144.3029978  31.2960014  66.8229992 143.6169978  30.7010014
  67.2409992 144.4219978  31.9140014  66.6581240 144.2252314  31.2980959
  75.1819992 135.9049978  32.1560014  75.2319992 136.5149978  32.8920014
  75.6079992 136.3659978  31.4330014  75.2464108 136.0507709  32.1590112
  69.6599992 138.6969978  31.6230014  69.8029992 137.7509978  31.6430014
  69.5539992 138.9039978  30.6950014  69.6652403 138.5954797  31.5002239
  62.8149992 136.7989978  28.8960014  62.8579992 137.6589978  28.4770014
  62.3569992 136.2469978  28.2620014  62.7589871 136.8419245  28.7530761
  70.5369992 136.9299978  27.2970014  71.1839992 136.6009978  27.9210014
  71.0469992 137.4469978  26.6740014  70.6944351 136.9549067  27.2981037
  59.4349992 139.1959978  29.6580014  60.0889992 138.6459978  30.0900014
  59.4589992 138.9219978  28.7410014  59.5277199 139.0837167  29.5931668
  64.5919992 140.7459978  28.8730014  65.2079992 140.2189978  29.3820014
  64.0049992 140.1059978  28.4690014  64.5970154 140.5873954  28.8880945
  75.5739992 137.3829978  34.3920014  74.8849992 138.0409978  34.2970014
  75.5889992 137.1849978  35.3290014  75.4817756 137.4462603  34.5055812
  61.6249992 135.7169978  32.9700014  61.4059992 136.2469978  32.2030014
  60.9569992 135.9429978  33.6170014  61.5046975 135.8200967  32.9525140
  68.9939992 145.2169978  26.5140014  68.6989992 144.8939978  25.6620014
  68.6699992 146.1169978  26.5550014  68.9098460 145.2944464  26.4029714
  64.1939992 143.3919978  33.2570014  63.4539992 143.9909978  33.3610014
  64.9079992 143.9459978  32.9420014  64.1893500 143.5487829  33.2286371
  72.3009992 136.2209978  29.2770014  72.0859992 135.4549978  29.8100014
  72.9569992 136.6929978  29.7900014  72.3602673 136.1800728  29.4191990
  61.2189992 137.6089978  30.9220014  61.8329992 138.2419978  31.2950014
  61.7309992 137.1369978  30.2660014  61.3721962 137.6317249  30.8842935
  62.6019992 145.3569978  34.0440014  62.5959992 146.2359978  33.6660014
  61.7479992 145.2729978  34.4690014  62.4857925 145.4659535  34.0496887
  58.7229992 145.0279978  24.8260014  58.4509992 145.2569978  23.9380014
  58.7679992 145.8649978  25.2870014  58.6918097 145.1726163  24.7666683
  72.6479992 134.9359978  32.9560014  71.9119992 135.5459978  32.9190014
  73.3319992 135.3509978  32.4300014  72.6395367 135.0757551  32.8798174
  65.6519992 133.0219978  30.4220014  65.5339992 132.0739978  30.3680014
  64.7969992 133.3549978  30.6950014  65.5202805 132.9372202  30.4515079
  73.4459992 144.8979978  35.1500014  73.5849992 144.3059978  34.4110014
  73.6129992 145.7709978  34.7940014  73.4876193 144.9348896  35.0006211
  67.9179992 141.8599978  24.9230014  67.2069992 142.3949978  24.5710014
  68.6089992 141.9149978  24.2630014  67.9140751 141.9406777  24.7855858
  67.9719992 140.3169978  21.9610014  68.6729992 140.3399978  22.6130014
  68.2739992 139.6889978  21.3050014  68.1088202 140.2352212  21.9615609
  75.2869992 141.2379978  33.2160014  74.6349992 141.9319978  33.3050014
  75.7529992 141.4479978  32.4060014  75.2605937 141.3615019  33.1187533
  71.3239992 142.0689978  25.8740014  70.5919992 142.2979978  26.4480014
  71.7709992 141.3559978  26.3290014  71.2843963 142.0038729  26.0139945
  71.2209992 140.2439978  34.9420014  71.3009992 141.0069978  35.5140014
  70.6199992 140.5229978  34.2520014  71.1506547 140.3862457  34.9270047
  62.9689992 142.6999978  27.7570014  62.6389992 142.3289978  26.9390014
  63.5579992 142.0289978  28.1040014  63.0033970 142.5586063  27.6919404
  63.3359992 141.4679978  31.3900014  63.9009992 141.5899978  30.6280014
  63.6549992 142.1059978  32.0290014  63.4564166 141.5708791  31.3720348
  70.1949992 141.2319978  23.5600014  70.7739992 141.3819978  24.3060014
  70.6089992 141.7019978  22.8360014  70.3303358 141.3160955  23.5643953
  61.1359992 142.0659978  35.3360014  61.2059992 142.7169978  36.0350014
  60.2449992 142.1689978  35.0010014  61.0251690 142.1689249  35.3863043
  73.8939992 132.9819978  23.3730014  72.9939992 133.1209978  23.6680014
  74.1459992 133.8129978  22.9710014  73.8048683 133.1134055  23.3590232
  61.9599992 141.7689978  25.3460014  61.6679992 142.5369978  24.8550014
  61.2849992 141.1099978  25.1830014  61.8288497 141.7849745  25.2568260
  58.0529992 144.1319978  34.1610014  57.5509992 144.1039978  33.3460014
  58.0579992 143.2269978  34.4710014  57.9849832 144.0057486  34.0914121
  73.1529992 139.0719978  37.2080014  72.7449992 139.5519978  36.4870014
  73.1929992 138.1659978  36.9000014  73.1026221 139.0152449  37.0678267
  60.3019992 145.4559978  35.2040014  60.5179992 145.0939978  36.0640014
  59.4459992 145.0809978  34.9950014  60.2158810 145.3558837  35.2932680
  62.9199992 133.9259978  31.2000014  62.0589992 133.8389978  30.7920014
  62.8979992 134.7819978  31.6280014  62.7990491 134.0298003  31.2019582
  67.5829992 133.6479978  34.5750014  68.0029992 133.2329978  35.3280014
  66.6499992 133.4689978  34.6920014  67.5143736 133.5669910  34.6938968
  70.9099992 137.4029978  35.4280014  70.3959992 137.2779978  36.2260014
  70.7539992 138.3159978  35.1840014  70.8186967 137.5092123  35.5040937
  71.6719992 142.2639978  21.1890014  71.7139992 142.0419978  20.2590014
  72.5209992 142.6629978  21.3790014  71.7925253 142.2875498  21.0873822
  67.2449992 136.1399978  21.8600014  66.9909992 136.1589978  22.7820014
  66.9879992 135.2689978  21.5580014  67.1754508 136.0248280  21.9454803
  63.0109992 138.8909978  32.2950014  62.3699992 138.8509978  33.0040014
  63.0489992 139.8179978  32.0570014  62.9283010 139.0107668  32.3599946
  63.0079992 139.1119978  27.2070014  62.1159992 138.7719978  27.1480014
  63.4589992 138.7349978  26.4510014  62.9467642 139.0144910  27.0967726
  68.5439992 139.5279978  26.0240014  68.1349992 140.3429978  25.7320014
  69.2639992 139.3879978  25.4100014  68.5854439 139.6205372  25.9010115
  67.6459992 139.7039978  37.5120014  67.0829992 138.9989978  37.8330014
  68.4719992 139.5829978  37.9800014  67.6806674 139.5912165  37.6191751
  69.5489992 138.9739978  28.8380014  69.3529992 139.5799978  28.1230014
  69.7299992 138.1409978  28.4040014  69.5466584 138.9442513  28.6814212
  60.7609992 139.2119978  34.1620014  60.7229992 139.6119978  35.0310014
  60.2709992 138.3949978  34.2520014  60.6895330 139.1562674  34.2931289
  64.1269992 136.5859978  20.9610014  63.6959992 136.1409978  21.6900014
  63.4089992 136.9569978  20.4480014  63.9709176 136.5752052  20.9914930
  57.3699992 136.3279978  28.0130014  57.9999992 136.2989978  28.7320014
  57.8189992 135.9029978  27.2820014  57.5170835 136.2665660  28.0127659
  58.6439992 137.0739978  23.4370014  59.1179992 137.6649978  22.8520014
  57.9259992 137.6039978  23.7840014  58.6118640 137.2265511  23.4037969
  68.8129992 140.6119978  33.5090014  69.1359992 139.9809978  32.8660014
  68.3719992 140.0779978  34.1700014  68.7976379 140.4533468  33.5102582
  65.5899992 136.5399978  28.2930014  64.6789992 136.5969978  28.5820014
  66.0949992 136.4799978  29.1040014  65.5336873 136.5396826  28.4421207
  60.4179992 138.1689978  27.1200014  59.5289992 138.2679978  26.7800014
  60.7149992 137.3269978  26.7740014  60.3364177 138.0687687  27.0266940
  64.0709992 138.1689978  24.7770014  65.0029992 138.2979978  24.9550014
  63.8559992 138.8379978  24.1270014  64.1694472 138.2770806  24.7134891
  69.9949992 135.7749978  31.5580014  69.3179992 135.9059978  32.2210014
  69.5099992 135.6199978  30.7470014  69.8367405 135.7719947  31.5392170
  62.7449992 139.3629978  22.3430014  62.2029992 138.9839978  21.6520014
  63.5789992 139.5579978  21.9150014  62.7834390 139.3374079  22.1904392
  60.8809992 143.9199978  37.4420014  61.6129992 144.1749978  38.0040014
  60.0999992 144.1249978  37.9580014  60.8756526 143.9825450  37.5885176
  66.9099992 139.3269978  30.1800014  67.4739992 138.7809978  29.6330014
  66.7619992 138.8059978  30.9690014  66.9673037 139.1816787  30.2117229
  61.9119992 135.4639978  26.5990014  61.5949992 134.5609978  26.5630014
  62.6929992 135.4659978  26.0460014  61.9742431 135.3407797  26.5193102
  65.5359992 137.7159978  32.5940014  64.7009992 138.1699978  32.7050014
  66.0599992 137.9919978  33.3460014  65.4926072 137.8153948  32.7108136
  66.0809992 143.9289978  24.2790014  65.3359992 143.4209978  23.9570014
  65.9459992 143.9779978  25.2250014  65.9608963 143.8661731  24.3628826
  73.2309992 143.0619978  33.0660014  73.8719992 143.5179978  32.5220014
  72.3999992 143.1749978  32.6030014  73.2065287 143.1396921  32.9289887
  69.9779992 136.7429978  22.4780014  69.0399992 136.8539978  22.3270014
  70.2759992 137.5989978  22.7850014  69.8896318 136.8740158  22.4988145
  67.5999992 144.1129978  35.5160014  67.2539992 143.7309978  36.3230014
  67.3999992 145.0459978  35.5870014  67.5255987 144.1869002  35.6360461
  70.6969992 138.6099978  24.1390014  71.5889992 138.4719978  24.4580014
  70.7529992 139.4009978  23.6020014  70.8267325 138.6979918  24.1101217
  61.2049992 143.2239978  30.0490014  61.9499992 143.2209978  29.4470014
  61.2829992 142.3999978  30.5300014  61.3173365 143.1122384  30.0317430
  68.2059992 145.3869978  23.3040014  67.9109992 146.2139978  23.6860014
  67.5029992 144.7679978  23.5010014  68.0706379 145.4164171  23.3828654
  58.2129992 141.6839978  35.3640014  58.4359992 141.2659978  36.1950014
  57.6109992 141.0719978  34.9410014  58.1621513 141.5439606  35.4206740
  65.2299992 141.2009978  37.5770014  64.9339992 141.0359978  36.6810014
  66.1609992 140.9809978  37.5660014  65.3154401 141.1486880  37.4530206
  75.5819992 138.8189978  23.8340014  75.0269992 138.4229978  23.1610014
  75.6819992 139.7299978  23.5560014  75.5196816 138.8879505  23.7045033
  75.5449992 144.6199978  36.6710014  74.6939992 144.8579978  36.3030014
  76.1349992 144.6029978  35.9180014  75.5083812 144.6502524  36.5188453
  71.0369992 142.4129978  31.3200014  70.1089992 142.1819978  31.2930014
  71.4879992 141.6359978  30.9900014  70.9708165 142.2762774  31.2716790
  59.3349992 141.6039978  22.0400014  59.9509992 142.2309978  22.4200014
  58.4729992 141.9199978  22.3120014  59.3027678 141.7324412  22.1287209
  65.0079992 144.4049978  27.0290014  64.7669992 145.3299978  27.0710014
  64.2669992 143.9459978  27.4260014  64.8749206 144.4695915  27.0883769
  69.0659992 144.6529978  33.0450014  68.6409992 144.4249978  33.8710014
  69.6469992 143.9139978  32.8630014  69.0863395 144.5219545  33.1334414
  59.8469992 136.4379978  34.9220014  58.9549992 136.7759978  34.8540014
  59.7489992 135.5819978  35.3400014  59.7114475 136.3686543  34.9691704
  72.1349992 144.2539978  24.3460014  71.8579992 143.5259978  24.9020014
  73.0629992 144.3729978  24.5510014  72.2224499 144.1704213  24.4498044
  60.7499992 143.5159978  23.5330014  60.0639992 143.8689978  24.1000014
  61.2729992 144.2789978  23.2860014  60.7268402 143.6673901  23.5771801
  68.5819992 136.1789978  33.8120014  69.2809992 136.2529978  34.4620014
  68.2009992 135.3139978  33.9660014  68.6262097 136.0722389  33.9217997
  69.3659992 135.8309978  24.9090014  69.5859992 136.3019978  24.1050014
  69.9249992 136.2249978  25.5790014  69.4716731 135.9487287  24.8895033
  66.5659992 137.5589978  25.7440014  67.3779992 138.0629978  25.7900014
  66.3219992 137.4139978  26.6580014  66.6441467 137.6083749  25.8738575
  67.1019992 138.5449978  34.9280014  67.2209992 139.1189978  35.6850014
  67.7569992 137.8569978  35.0430014  67.2068684 138.5305194  35.0471674
  67.4499992 134.6399978  26.6820014  67.1029992 135.2569978  27.3260014
  68.1089992 135.1409978  26.2000014  67.4915090 134.7921575  26.7050681
  63.1079992 135.7029978  23.3690014  63.0239992 136.5909978  23.7160014
  63.9979992 135.4379978  23.6010014  63.2168163 135.7887179  23.4478596
  73.3059992 136.4519978  35.7630014  72.3899992 136.7139978  35.6760014
  73.6419992 136.4489978  34.8670014  73.2258499 136.4875163  35.6298766
  71.9089992 140.2019978  29.8590014  71.1109992 139.7869978  29.5310014
  72.3539992 139.5119978  30.3500014  71.8599684 140.0518628  29.8805227
  59.6819992 138.7949978  21.5450014  59.6369992 139.7339978  21.7240014
  58.7939992 138.5589978  21.2760014  59.5558166 138.8916687  21.5331524
  60.4899992 133.5759978  30.2190014  60.2609992 133.6349978  29.2910014
  60.0479992 132.7849978  30.5250014  60.3988801 133.4770540  30.1334729
  58.6159992 143.9399978  38.6630014  58.7599992 143.0379978  38.3770014
  57.8439992 144.2259978  38.1760014  58.5312733 143.8551798  38.5579532
  62.9569992 144.2829978  20.7960014  63.0219992 143.4889978  21.3260014
  63.6099992 144.1649978  20.1060014  63.0541605 144.1583430  20.7752997
  65.2709992 143.9089978  38.0960014  64.9429992 144.1799978  37.2390014
  65.4229992 142.9679978  38.0080014  65.2466412 143.8189046  37.9667822
  68.3099992 145.3299978  20.5320014  68.0409992 145.5109978  21.4320014
  68.1029992 144.4049978  20.4000014  68.2451191 145.2297119  20.6375524
  71.0059992 143.8249978  35.4790014  71.7509992 144.4139978  35.3600014
  70.2489992 144.4069978  35.5430014  71.0055470 143.9842128  35.4713799
  59.4489992 141.1399978  38.0830014  59.8569992 140.2829978  37.9620014
  59.1879992 141.1539978  39.0040014  59.4696016 141.0245119  38.1909192
  64.1069992 142.2559978  23.1020014  63.6469992 141.7719978  23.7870014
  64.3619992 141.5869978  22.4660014  64.0784856 142.0993669  23.1098397
  63.3959992 140.1489978  35.4580014  62.7769992 140.8229978  35.7380014
  63.7399992 140.4699978  34.6240014  63.3577123 140.2846887  35.3836388
  65.1779992 140.4989978  21.3640014  64.9969992 140.3439978  20.4370014
  66.1279992 140.6069978  21.4090014  65.2816566 140.4923669  21.2430929
  68.4149992 142.6199978  38.7350014  69.3689992 142.7039978  38.7080014
  68.2549992 141.9079978  39.3550014  68.5237182 142.5352842  38.8150733
  74.5679992 142.8529978  20.8100014  74.2939992 142.4289978  19.9970014
  74.6069992 143.7849978  20.5930014  74.5357716 142.9208827  20.6694286
  63.7349992 137.5039978  36.5400014  63.8849992 136.7749978  35.9380014
  63.7369992 138.2809978  35.9810014  63.7557967 137.5092708  36.3820541
  64.1479992 135.8729978  34.0330014  64.6829992 136.3249978  33.3810014
  63.2949992 135.7649978  33.6100014  64.1060374 135.9202665  33.8866710
  65.7289992 141.3129978  34.2720014  66.4799992 141.1569978  33.6990014
  65.3899992 142.1649978  33.9970014  65.7859587 141.4068138  34.1564078
  70.1449992 139.1279978  39.3010014  70.3369992 138.1969978  39.1890014
  71.0029992 139.5529978  39.2900014  70.2872182 139.0580070  39.2841862
  71.4619992 141.9169978  37.3780014  71.1799992 142.6259978  36.8000014
  72.4039992 141.8439978  37.2270014  71.5507921 142.0042193  37.2784225
  62.2139992 138.7019978  38.4510014  61.4459992 138.1689978  38.2410014
  62.8919992 138.3919978  37.8520014  62.2007235 138.5871754  38.3412413
  64.9529992 133.3299978  34.4640014  64.8549992 134.2759978  34.3590014
  64.2109992 132.9569978  33.9880014  64.8392534 133.4091773  34.3852600
  66.2169992 137.6509978  38.0280014  65.9819992 137.4319978  38.9290014
  65.4339992 137.4439978  37.5180014  66.0789095 137.5929892  38.0825353
  68.9329992 136.7789978  37.1030014  67.9849992 136.8109978  37.2350014
  69.2449992 136.1529978  37.7570014  68.8455293 136.6987923  37.2094148
  70.5669992 135.4129978  39.1080014  70.4699992 134.4609978  39.1030014
  70.2449992 135.6809978  39.9690014  70.5102468 135.3190884  39.2236210
  60.3939992 136.6219978  38.1560014  60.6059992 135.9159978  37.5460014
  60.2829992 136.1849978  39.0000014  60.4080269 136.4661921  38.1865873
  65.1749992 132.6239978  37.1350014  65.8869992 131.9839978  37.1210014
  65.0739992 132.8899978  36.2220014  65.2587387 132.5724330  37.0095563
  65.5289992 134.3059978  39.1890014  65.3969992 133.8309978  38.3690014
  64.9289992 135.0509978  39.1340014  65.4299070 134.3415789  39.0693251
  73.7249992 145.4659978  39.2710014  72.8589992 145.3609978  39.6650014
  74.1009992 146.2239978  39.7170014  73.6573401 145.5541708  39.3852620
  75.0259992 143.7219978  24.7850014  75.8759992 144.1429978  24.9120014
  75.0309992 142.9819978  25.3920014  75.1431143 143.6796094  24.8844750
  75.4199992 141.7759978  26.6080014  74.6939992 141.2959978  27.0060014
  76.0019992 141.9809978  27.3410014  75.3992730 141.7380184  26.7614149
  75.1789992 144.5609978  31.5560014  76.0129992 144.1829978  31.2750014
  75.2909992 145.5039978  31.4370014  75.3081917 144.6367943  31.5014861
  75.6889992 141.6769978  22.9990014  75.1669992 142.0329978  22.2810014
  75.6559992 142.3519978  23.6780014  75.6130129 141.8169598  22.9923355
  74.0379992 138.9159978  21.5500014  74.1339992 139.5829978  20.8700014
  73.8979992 138.1009978  21.0690014  74.0322040 138.8970671  21.3918378
  73.2069992 140.2969978  27.1710014  73.0569992 139.3519978  27.1510014
  72.8529992 140.5779978  28.0150014  73.1386351 140.2056644  27.2823220
  58.2419992 142.3749978  31.1820014  58.4269992 142.2929978  30.2460014
  59.0919992 142.2509978  31.6050014  58.3820928 142.3470463  31.1112893
  74.0629992 142.2669978  36.8100014  74.6459992 141.5319978  37.0020014
  74.6269992 143.0389978  36.8570014  74.2189781 142.2708145  36.8426164
  75.5599992 140.1699978  37.4950014  74.6969992 139.7909978  37.3290014
  76.1639992 139.4309978  37.4200014  75.5236085 140.0183223  37.4621695
  73.2849992 136.3239978  20.6680014  73.8959992 135.9529978  21.3050014
  72.4479992 135.9029978  20.8640014  73.2554947 136.2162756  20.7817252
  72.9179992 137.8789978  25.6340014  73.1969992 136.9719978  25.7580014
  73.6769992 138.3129978  25.2450014  73.0588619 137.8134502  25.5983795
  73.5289992 138.4609978  31.0700014  74.4619992 138.6729978  31.0350014
  73.2939992 138.5619978  31.9920014  73.6249517 138.5036833  31.1899130
  73.5589992 139.1979978  33.8460014  72.7159992 139.4659978  34.2120014
  74.0009992 140.0199978  33.6350014  73.5034138 139.3458273  33.8675518
  57.8399992 137.6449978  37.3220014  58.7589992 137.5229978  37.5590014
  57.3899992 136.8949978  37.7120014  57.9050087 137.5269608  37.4071410
  75.8419992 133.1779978  39.1990014  76.1909992 132.5239978  38.5940014
  75.9889992 134.0149978  38.7590014  75.9096824 133.2016024  39.0566304
  73.5309992 135.1419978  25.6820014  73.7129992 134.6929978  26.5070014
  72.9309992 134.5579978  25.2180014  73.4748187 135.0015552  25.7322739
  59.0609992 135.9579978  30.2140014  59.5059992 135.1659978  30.5160014
  59.5269992 136.6739978  30.6440014  59.1849718 135.9464534  30.3135265
  57.3649992 138.9569978  31.2830014  57.8569992 138.7359978  30.4920014
  57.7269992 139.7969978  31.5640014  57.4812923 139.0403468  31.2127407
  75.3609992 135.2869978  37.5480014  74.4439992 135.5579978  37.5130014
  75.4839992 134.7519978  36.7640014  75.2519672 135.2517885  37.4371862
  75.3979992 135.2099978  22.2100014  75.8099992 134.4889978  21.7350014
  76.0789992 135.8789978  22.2680014  75.5465536 135.2017766  22.1528024
  57.6789992 135.2149978  25.3370014  56.7539992 135.4229978  25.2080014
  58.1329992 135.6989978  24.6470014  57.6136298 135.3089299  25.2260451
  57.6419992 133.9529978  33.6810014  56.9769992 133.7069978  34.3240014
  57.1989992 134.5749978  33.1040014  57.4911168 134.0034214  33.6909848
  74.3619992 133.3769978  35.3670014  73.5489992 133.7019978  34.9800014
  74.5949992 132.6159978  34.8340014  74.2821347 133.3186880  35.2419841
  67.7919992 134.8259978  29.6900014  67.1179992 134.1959978  29.9460014
  68.3559992 134.3419978  29.0870014  67.7760384 134.6743708  29.6435020
  72.9349992 132.9329978  29.8030014  73.5379992 133.4809978  29.3010014
  72.0649992 133.2519978  29.5620014  72.8999157 133.0510373  29.7017910
  74.6619992 134.0719978  28.1360014  75.2729992 133.5579978  27.6090014
  75.0439992 134.9489978  28.1590014  74.7973305 134.1202050  28.0669418
  60.1189992 133.4599978  27.5120014  59.3419992 133.2249978  27.0050014
  60.6489992 132.6629978  27.5210014  60.0843451 133.3201268  27.4438627
  58.9549992 133.2579978  23.3160014  59.3939992 133.8689978  22.7240014
  58.3209992 133.7959978  23.7900014  58.9293859 133.4144064  23.2990305
  64.6979992 133.3859978  27.3250014  65.5719992 133.7749978  27.2960014
  64.5619992 133.1709978  28.2480014  64.7991953 133.4101643  27.4457617
  70.2549992 133.4159978  28.9750014  70.3309992 133.5119978  28.0250014
  69.9799992 132.5089978  29.1030014  70.2281871 133.3064146  28.8623944
  71.6079992 133.4419978  24.6670014  70.9049992 134.0569978  24.4570014
  71.1629992 132.6049978  24.7980014  71.4516550 133.4129668  24.6559837
  60.8159992 135.1739978  21.7580014  61.3069992 134.5439978  21.2310014
  61.4389992 135.4699978  22.4210014  60.9675304 135.1277376  21.7754940
  65.8419992 135.4669978  24.2150014  66.0199992 134.8199978  24.8980014
  65.7879992 136.3009978  24.6820014  65.8590678 135.4911604  24.3716301
  60.0759992 133.9739978  37.0300014  59.7099992 133.2079978  37.4720014
  60.9889992 134.0029978  37.3160014  60.1493172 133.8730324  37.1291890
  62.0489992 133.3239978  38.5650014  62.9479992 133.0499978  38.3810014
  61.6629992 132.5819978  39.0300014  62.1197307 133.1862196  38.6027098
  70.4709992 132.6569978  38.7480014  70.5469992 132.2309978  39.6010014
  71.3639992 132.6699978  38.4050014  70.6022303 132.6003493  38.8185497
  88.0529992 142.6159978  27.4710014  88.1419992 143.5599978  27.3390014
  87.4149992 142.3409978  26.8130014  87.9789062 142.7079812  27.3639641
  86.9859992 141.8709978  30.8900014  86.9479992 141.2249978  31.5950014
  86.6639992 141.4039978  30.1190014  86.9372679 141.7194276  30.8822921
  79.3539992 141.4849978  32.4830014  79.3959992 140.8599978  33.2060014
  80.0569992 142.1089978  32.6650014  79.4547345 141.4837873  32.6065273
  90.6919992 144.8099978  29.1910014  90.2509992 144.0899978  29.6420014
  90.6789992 145.5309978  29.8210014  90.6299215 144.8089291  29.3378105
  76.8879992 139.5949978  26.4100014  76.4399992 140.4409978  26.3920014
  76.3269992 139.0159978  25.8950014  76.7508546 139.6323993  26.3378891
  77.5979992 141.7569978  28.5360014  77.8119992 140.9869978  29.0640014
  78.3359992 141.8469978  27.9330014  77.7270200 141.6638587  28.5267035
  85.3749992 144.3029978  31.2960014  85.6789992 143.6169978  30.7010014
  86.0969992 144.4219978  31.9140014  85.5141240 144.2252314  31.2980959
  94.0379992 135.9049978  32.1560014  94.0879992 136.5149978  32.8920014
  94.4639992 136.3659978  31.4330014  94.1024108 136.0507709  32.1590112
  88.5159992 138.6969978  31.6230014  88.6589992 137.7509978  31.6430014
  88.4099992 138.9039978  30.6950014  88.5212403 138.5954797  31.5002239
  81.6709992 136.7989978  28.8960014  81.7139992 137.6589978  28.4770014
  81.2129992 136.2469978  28.2620014  81.6149871 136.8419245  28.7530761
  89.3929992 136.9299978  27.2970014  90.0399992 136.6009978  27.9210014
  89.9029992 137.4469978  26.6740014  89.5504351 136.9549067  27.2981037
  78.2909992 139.1959978  29.6580014  78.9449992 138.6459978  30.0900014
  78.3149992 138.9219978  28.7410014  78.3837199 139.0837167  29.5931668
  83.4479992 140.7459978  28.8730014  84.0639992 140.2189978  29.3820014
  82.8609992 140.1059978  28.4690014  83.4530154 140.5873954  28.8880945
  94.4299992 137.3829978  34.3920014  93.7409992 138.0409978  34.2970014
  94.4449992 137.1849978  35.3290014  94.3377756 137.4462603  34.5055812
  80.4809992 135.7169978  32.9700014  80.2619992 136.2469978  32.2030014
  79.8129992 135.9429978  33.6170014  80.3606975 135.8200967  32.9525140
  87.8499992 145.2169978  26.5140014  87.5549992 144.8939978  25.6620014
  87.5259992 146.1169978  26.5550014  87.7658460 145.2944464  26.4029714
  83.0499992 143.3919978  33.2570014  82.3099992 143.9909978  33.3610014
  83.7639992 143.9459978  32.9420014  83.0453500 143.5487829  33.2286371
  91.1569992 136.2209978  29.2770014  90.9419992 135.4549978  29.8100014
  91.8129992 136.6929978  29.7900014  91.2162673 136.1800728  29.4191990
  80.0749992 137.6089978  30.9220014  80.6889992 138.2419978  31.2950014
  80.5869992 137.1369978  30.2660014  80.2281962 137.6317249  30.8842935
  81.4579992 145.3569978  34.0440014  81.4519992 146.2359978  33.6660014
  80.6039992 145.2729978  34.4690014  81.3417925 145.4659535  34.0496887
  77.5789992 145.0279978  24.8260014  77.3069992 145.2569978  23.9380014
  77.6239992 145.8649978  25.2870014  77.5478097 145.1726163  24.7666683
  91.5039992 134.9359978  32.9560014  90.7679992 135.5459978  32.9190014
  92.1879992 135.3509978  32.4300014  91.4955367 135.0757551  32.8798174
  84.5079992 133.0219978  30.4220014  84.3899992 132.0739978  30.3680014
  83.6529992 133.3549978  30.6950014  84.3762805 132.9372202  30.4515079
  92.3019992 144.8979978  35.1500014  92.4409992 144.3059978  34.4110014
  92.4689992 145.7709978  34.7940014  92.3436193 144.9348896  35.0006211
  86.7739992 141.8599978  24.9230014  86.0629992 142.3949978  24.5710014
  87.4649992 141.9149978  24.2630014  86.7700751 141.9406777  24.7855858
  86.8279992 140.3169978  21.9610014  87.5289992 140.3399978  22.6130014
  87.1299992 139.6889978  21.3050014  86.9648202 140.2352212  21.9615609
  94.1429992 141.2379978  33.2160014  93.4909992 141.9319978  33.3050014
  94.6089992 141.4479978  32.4060014  94.1165937 141.3615019  33.1187533
  90.1799992 142.0689978  25.8740014  89.4479992 142.2979978  26.4480014
  90.6269992 141.3559978  26.3290014  90.1403963 142.0038729  26.0139945
  90.0769992 140.2439978  34.9420014  90.1569992 141.0069978  35.5140014
  89.4759992 140.5229978  34.2520014  90.0066547 140.3862457  34.9270047
  81.8249992 142.6999978  27.7570014  81.4949992 142.3289978  26.9390014
  82.4139992 142.0289978  28.1040014  81.8593970 142.5586063  27.6919404
  82.1919992 141.4679978  31.3900014  82.7569992 141.5899978  30.6280014
  82.5109992 142.1059978  32.0290014  82.3124166 141.5708791  31.3720348
  89.0509992 141.2319978  23.5600014  89.6299992 141.3819978  24.3060014
  89.4649992 141.7019978  22.8360014  89.1863358 141.3160954  23.5643953
  79.9919992 142.0659978  35.3360014  80.0619992 142.7169978  36.0350014
  79.1009992 142.1689978  35.0010014  79.8811690 142.1689249  35.3863043
  92.7499992 132.9819978  23.3730014  91.8499992 133.1209978  23.6680014
  93.0019992 133.8129978  22.9710014  92.6608683 133.1134055  23.3590232
  80.8159992 141.7689978  25.3460014  80.5239992 142.5369978  24.8550014
  80.1409992 141.1099978  25.1830014  80.6848497 141.7849745  25.2568260
  76.9089992 144.1319978  34.1610014  76.4069992 144.1039978  33.3460014
  76.9139992 143.2269978  34.4710014  76.8409832 144.0057486  34.0914121
  92.0089992 139.0719978  37.2080014  91.6009992 139.5519978  36.4870014
  92.0489992 138.1659978  36.9000014  91.9586221 139.0152449  37.0678267
  79.1579992 145.4559978  35.2040014  79.3739992 145.0939978  36.0640014
  78.3019992 145.0809978  34.9950014  79.0718810 145.3558837  35.2932680
  81.7759992 133.9259978  31.2000014  80.9149992 133.8389978  30.7920014
  81.7539992 134.7819978  31.6280014  81.6550491 134.0298003  31.2019582
  86.4389992 133.6479978  34.5750014  86.8589992 133.2329978  35.3280014
  85.5059992 133.4689978  34.6920014  86.3703736 133.5669910  34.6938968
  89.7659992 137.4029978  35.4280014  89.2519992 137.2779978  36.2260014
  89.6099992 138.3159978  35.1840014  89.6746967 137.5092123  35.5040937
  90.5279992 142.2639978  21.1890014  90.5699992 142.0419978  20.2590014
  91.3769992 142.6629978  21.3790014  90.6485253 142.2875498  21.0873822
  86.1009992 136.1399978  21.8600014  85.8469992 136.1589978  22.7820014
  85.8439992 135.2689978  21.5580014  86.0314508 136.0248280  21.9454803
  81.8669992 138.8909978  32.2950014  81.2259992 138.8509978  33.0040014
  81.9049992 139.8179978  32.0570014  81.7843010 139.0107668  32.3599946
  81.8639992 139.1119978  27.2070014  80.9719992 138.7719978  27.1480014
  82.3149992 138.7349978  26.4510014  81.8027642 139.0144910  27.0967726
  87.3999992 139.5279978  26.0240014  86.9909992 140.3429978  25.7320014
  88.1199992 139.3879978  25.4100014  87.4414439 139.6205372  25.9010115
  86.5019992 139.7039978  37.5120014  85.9389992 138.9989978  37.8330014
  87.3279992 139.5829978  37.9800014  86.5366674 139.5912165  37.6191751
  88.4049992 138.9739978  28.8380014  88.2089992 139.5799978  28.1230014
  88.5859992 138.1409978  28.4040014  88.4026584 138.9442513  28.6814212
  79.6169992 139.2119978  34.1620014  79.5789992 139.6119978  35.0310014
  79.1269992 138.3949978  34.2520014  79.5455330 139.1562674  34.2931289
  82.9829992 136.5859978  20.9610014  82.5519992 136.1409978  21.6900014
  82.2649992 136.9569978  20.4480014  82.8269176 136.5752052  20.9914930
  76.2259992 136.3279978  28.0130014  76.8559992 136.2989978  28.7320014
  76.6749992 135.9029978  27.2820014  76.3730835 136.2665660  28.0127659
  77.4999992 137.0739978  23.4370014  77.9739992 137.6649978  22.8520014
  76.7819992 137.6039978  23.7840014  77.4678640 137.2265511  23.4037969
  87.6689992 140.6119978  33.5090014  87.9919992 139.9809978  32.8660014
  87.2279992 140.0779978  34.1700014  87.6536379 140.4533468  33.5102582
  84.4459992 136.5399978  28.2930014  83.5349992 136.5969978  28.5820014
  84.9509992 136.4799978  29.1040014  84.3896873 136.5396826  28.4421207
  79.2739992 138.1689978  27.1200014  78.3849992 138.2679978  26.7800014
  79.5709992 137.3269978  26.7740014  79.1924177 138.0687687  27.0266940
  82.9269992 138.1689978  24.7770014  83.8589992 138.2979978  24.9550014
  82.7119992 138.8379978  24.1270014  83.0254472 138.2770806  24.7134891
  88.8509992 135.7749978  31.5580014  88.1739992 135.9059978  32.2210014
  88.3659992 135.6199978  30.7470014  88.6927405 135.7719947  31.5392170
  81.6009992 139.3629978  22.3430014  81.0589992 138.9839978  21.6520014
  82.4349992 139.5579978  21.9150014  81.6394390 139.3374079  22.1904392
  79.7369992 143.9199978  37.4420014  80.4689992 144.1749978  38.0040014
  78.9559992 144.1249978  37.9580014  79.7316526 143.9825450  37.5885176
  85.7659992 139.3269978  30.1800014  86.3299992 138.7809978  29.6330014
  85.6179992 138.8059978  30.9690014  85.8233037 139.1816787  30.2117229
  80.7679992 135.4639978  26.5990014  80.4509992 134.5609978  26.5630014
  81.5489992 135.4659978  26.0460014  80.8302431 135.3407797  26.5193102
  84.3919992 137.7159978  32.5940014  83.5569992 138.1699978  32.7050014
  84.9159992 137.9919978  33.3460014  84.3486072 137.8153948  32.7108136
  84.9369992 143.9289978  24.2790014  84.1919992 143.4209978  23.9570014
  84.8019992 143.9779978  25.2250014  84.8168963 143.8661731  24.3628826
  92.0869992 143.0619978  33.0660014  92.7279992 143.5179978  32.5220014
  91.2559992 143.1749978  32.6030014  92.0625287 143.1396921  32.9289887
  88.8339992 136.7429978  22.4780014  87.8959992 136.8539978  22.3270014
  89.1319992 137.5989978  22.7850014  88.7456318 136.8740158  22.4988145
  86.4559992 144.1129978  35.5160014  86.1099992 143.7309978  36.3230014
  86.2559992 145.0459978  35.5870014  86.3815987 144.1869002  35.6360461
  89.5529992 138.6099978  24.1390014  90.4449992 138.4719978  24.4580014
  89.6089992 139.4009978  23.6020014  89.6827325 138.6979918  24.1101217
  80.0609992 143.2239978  30.0490014  80.8059992 143.2209978  29.4470014
  80.1389992 142.3999978  30.5300014  80.1733365 143.1122384  30.0317430
  87.0619992 145.3869978  23.3040014  86.7669992 146.2139978  23.6860014
  86.3589992 144.7679978  23.5010014  86.9266379 145.4164171  23.3828654
  77.0689992 141.6839978  35.3640014  77.2919992 141.2659978  36.1950014
  76.4669992 141.0719978  34.9410014  77.0181513 141.5439606  35.4206740
  84.0859992 141.2009978  37.5770014  83.7899992 141.0359978  36.6810014
  85.0169992 140.9809978  37.5660014  84.1714401 141.1486879  37.4530206
  94.4379992 138.8189978  23.8340014  93.8829992 138.4229978  23.1610014
  94.5379992 139.7299978  23.5560014  94.3756816 138.8879505  23.7045033
  94.4009992 144.6199978  36.6710014  93.5499992 144.8579978  36.3030014
  94.9909992 144.6029978  35.9180014  94.3643812 144.6502524  36.5188453
  89.8929992 142.4129978  31.3200014  88.9649992 142.1819978  31.2930014
  90.3439992 141.6359978  30.9900014  89.8268165 142.2762774  31.2716790
  78.1909992 141.6039978  22.0400014  78.8069992 142.2309978  22.4200014
  77.3289992 141.9199978  22.3120014  78.1587678 141.7324412  22.1287209
  83.8639992 144.4049978  27.0290014  83.6229992 145.3299978  27.0710014
  83.1229992 143.9459978  27.4260014  83.7309206 144.4695915  27.0883769
  87.9219992 144.6529978  33.0450014  87.4969992 144.4249978  33.8710014
  88.5029992 143.9139978  32.8630014  87.9423395 144.5219545  33.1334414
  78.7029992 136.4379978  34.9220014  77.8109992 136.7759978  34.8540014
  78.6049992 135.5819978  35.3400014  78.5674475 136.3686543  34.9691704
  90.9909992 144.2539978  24.3460014  90.7139992 143.5259978  24.9020014
  91.9189992 144.3729978  24.5510014  91.0784499 144.1704213  24.4498044
  79.6059992 143.5159978  23.5330014  78.9199992 143.8689978  24.1000014
  80.1289992 144.2789978  23.2860014  79.5828402 143.6673901  23.5771801
  87.4379992 136.1789978  33.8120014  88.1369992 136.2529978  34.4620014
  87.0569992 135.3139978  33.9660014  87.4822097 136.0722389  33.9217997
  88.2219992 135.8309978  24.9090014  88.4419992 136.3019978  24.1050014
  88.7809992 136.2249978  25.5790014  88.3276731 135.9487287  24.8895033
  85.4219992 137.5589978  25.7440014  86.2339992 138.0629978  25.7900014
  85.1779992 137.4139978  26.6580014  85.5001467 137.6083749  25.8738575
  85.9579992 138.5449978  34.9280014  86.0769992 139.1189978  35.6850014
  86.6129992 137.8569978  35.0430014  86.0628684 138.5305194  35.0471674
  86.3059992 134.6399978  26.6820014  85.9589992 135.2569978  27.3260014
  86.9649992 135.1409978  26.2000014  86.3475090 134.7921575  26.7050681
  81.9639992 135.7029978  23.3690014  81.8799992 136.5909978  23.7160014
  82.8539992 135.4379978  23.6010014  82.0728163 135.7887179  23.4478596
  92.1619992 136.4519978  35.7630014  91.2459992 136.7139978  35.6760014
  92.4979992 136.4489978  34.8670014  92.0818499 136.4875163  35.6298766
  90.7649992 140.2019978  29.8590014  89.9669992 139.7869978  29.5310014
  91.2099992 139.5119978  30.3500014  90.7159684 140.0518628  29.8805227
  78.5379992 138.7949978  21.5450014  78.4929992 139.7339978  21.7240014
  77.6499992 138.5589978  21.2760014  78.4118166 138.8916687  21.5331524
  79.3459992 133.5759978  30.2190014  79.1169992 133.6349978  29.2910014
  78.9039992 132.7849978  30.5250014  79.2548801 133.4770540  30.1334729
  77.4719992 143.9399978  38.6630014  77.6159992 143.0379978  38.3770014
  76.6999992 144.2259978  38.1760014  77.3872733 143.8551798  38.5579532
  81.8129992 144.2829978  20.7960014  81.8779992 143.4889978  21.3260014
  82.4659992 144.1649978  20.1060014  81.9101605 144.1583430  20.7752997
  84.1269992 143.9089978  38.0960014  83.7989992 144.1799978  37.2390014
  84.2789992 142.9679978  38.0080014  84.1026412 143.8189046  37.9667822
  87.1659992 145.3299978  20.5320014  86.8969992 145.5109978  21.4320014
  86.9589992 144.4049978  20.4000014  87.1011191 145.2297119  20.6375524
  89.8619992 143.8249978  35.4790014  90.6069992 144.4139978  35.3600014
  89.1049992 144.4069978  35.5430014  89.8615470 143.9842128  35.4713799
  78.3049992 141.1399978  38.0830014  78.7129992 140.2829978  37.9620014
  78.0439992 141.1539978  39.0040014  78.3256016 141.0245119  38.1909192
  82.9629992 142.2559978  23.1020014  82.5029992 141.7719978  23.7870014
  83.2179992 141.5869978  22.4660014  82.9344856 142.0993669  23.1098397
  82.2519992 140.1489978  35.4580014  81.6329992 140.8229978  35.7380014
  82.5959992 140.4699978  34.6240014  82.2137123 140.2846887  35.3836388
  84.0339992 140.4989978  21.3640014  83.8529992 140.3439978  20.4370014
  84.9839992 140.6069978  21.4090014  84.1376566 140.4923669  21.2430929
  87.2709992 142.6199978  38.7350014  88.2249992 142.7039978  38.7080014
  87.1109992 141.9079978  39.3550014  87.3797182 142.5352842  38.8150733
  93.4239992 142.8529978  20.8100014  93.1499992 142.4289978  19.9970014
  93.4629992 143.7849978  20.5930014  93.3917716 142.9208827  20.6694286
  82.5909992 137.5039978  36.5400014  82.7409992 136.7749978  35.9380014
  82.5929992 138.2809978  35.9810014  82.6117967 137.5092708  36.3820541
  83.0039992 135.8729978  34.0330014  83.5389992 136.3249978  33.3810014
  82.1509992 135.7649978  33.6100014  82.9620374 135.9202665  33.8866710
  84.5849992 141.3129978  34.2720014  85.3359992 141.1569978  33.6990014
  84.2459992 142.1649978  33.9970014  84.6419587 141.4068138  34.1564078
  89.0009992 139.1279978  39.3010014  89.1929992 138.1969978  39.1890014
  89.8589992 139.5529978  39.2900014  89.1432182 139.0580070  39.2841862
  90.3179992 141.9169978  37.3780014  90.0359992 142.6259978  36.8000014
  91.2599992 141.8439978  37.2270014  90.4067921 142.0042193  37.2784225
  81.0699992 138.7019978  38.4510014  80.3019992 138.1689978  38.2410014
  81.7479992 138.3919978  37.8520014  81.0567235 138.5871754  38.3412413
  83.8089992 133.3299978  34.4640014  83.7109992 134.2759978  34.3590014
  83.0669992 132.9569978  33.9880014  83.6952534 133.4091773  34.3852600
  85.0729992 137.6509978  38.0280014  84.8379992 137.4319978  38.9290014
  84.2899992 137.4439978  37.5180014  84.9349095 137.5929892  38.0825353
  87.7889992 136.7789978  37.1030014  86.8409992 136.8109978  37.2350014
  88.1009992 136.1529978  37.7570014  87.7015293 136.6987923  37.2094148
  89.4229992 135.4129978  39.1080014  89.3259992 134.4609978  39.1030014
  89.1009992 135.6809978  39.9690014  89.3662468 135.3190884  39.2236210
  79.2499992 136.6219978  38.1560014  79.4619992 135.9159978  37.5460014
  79.1389992 136.1849978  39.0000014  79.2640269 136.4661921  38.1865873
  84.0309992 132.6239978  37.1350014  84.7429992 131.9839978  37.1210014
  83.9299992 132.8899978  36.2220014  84.1147387 132.5724330  37.0095563
  84.3849992 134.3059978  39.1890014  84.2529992 133.8309978  38.3690014
  83.7849992 135.0509978  39.1340014  84.2859070 134.3415789  39.0693251
  92.5809992 145.4659978  39.2710014  91.7149992 145.3609978  39.6650014
  92.9569992 146.2239978  39.7170014  92.5133401 145.5541708  39.3852620
  93.8819992 143.7219978  24.7850014  94.7319992 144.1429978  24.9120014
  93.8869992 142.9819978  25.3920014  93.9991143 143.6796094  24.8844750
  94.2759992 141.7759978  26.6080014  93.5499992 141.2959978  27.0060014
  94.8579992 141.9809978  27.3410014  94.2552730 141.7380184  26.7614149
  94.0349992 144.5609978  31.5560014  94.8689992 144.1829978  31.2750014
  94.1469992 145.5039978  31.4370014  94.1641917 144.6367943  31.5014861
  94.5449992 141.6769978  22.9990014  94.0229992 142.0329978  22.2810014
  94.5119992 142.3519978  23.6780014  94.4690129 141.8169598  22.9923355
  92.8939992 138.9159978  21.5500014  92.9899992 139.5829978  20.8700014
  92.7539992 138.1009978  21.0690014  92.8882040 138.8970671  21.3918378
  92.0629992 140.2969978  27.1710014  91.9129992 139.3519978  27.1510014
  91.7089992 140.5779978  28.0150014  91.9946351 140.2056644  27.2823220
  77.0979992 142.3749978  31.1820014  77.2829992 142.2929978  30.2460014
  77.9479992 142.2509978  31.6050014  77.2380928 142.3470463  31.1112893
  92.9189992 142.2669978  36.8100014  93.5019992 141.5319978  37.0020014
  93.4829992 143.0389978  36.8570014  93.0749781 142.2708145  36.8426164
  94.4159992 140.1699978  37.4950014  93.5529992 139.7909978  37.3290014
  95.0199992 139.4309978  37.4200014  94.3796085 140.0183223  37.4621694
  92.1409992 136.3239978  20.6680014  92.7519992 135.9529978  21.3050014
  91.3039992 135.9029978  20.8640014  92.1114947 136.2162756  20.7817252
  91.7739992 137.8789978  25.6340014  92.0529992 136.9719978  25.7580014
  92.5329992 138.3129978  25.2450014  91.9148619 137.8134502  25.5983795
  92.3849992 138.4609978  31.0700014  93.3179992 138.6729978  31.0350014
  92.1499992 138.5619978  31.9920014  92.4809517 138.5036833  31.1899130
  92.4149992 139.1979978  33.8460014  91.5719992 139.4659978  34.2120014
  92.8569992 140.0199978  33.6350014  92.3594138 139.3458273  33.8675518
  76.6959992 137.6449978  37.3220014  77.6149992 137.5229978  37.5590014
  76.2459992 136.8949978  37.7120014  76.7610087 137.5269608  37.4071410
  94.6979992 133.1779978  39.1990014  95.0469992 132.5239978  38.5940014
  94.8449992 134.0149978  38.7590014  94.7656824 133.2016024  39.0566304
  92.3869992 135.1419978  25.6820014  92.5689992 134.6929978  26.5070014
  91.7869992 134.5579978  25.2180014  92.3308187 135.0015552  25.7322739
  77.9169992 135.9579978  30.2140014  78.3619992 135.1659978  30.5160014
  78.3829992 136.6739978  30.6440014  78.0409718 135.9464534  30.3135265
  76.2209992 138.9569978  31.2830014  76.7129992 138.7359978  30.4920014
  76.5829992 139.7969978  31.5640014  76.3372923 139.0403468  31.2127407
  94.2169992 135.2869978  37.5480014  93.2999992 135.5579978  37.5130014
  94.3399992 134.7519978  36.7640014  94.1079672 135.2517885  37.4371862
  94.2539992 135.2099978  22.2100014  94.6659992 134.4889978  21.7350014
  94.9349992 135.8789978  22.2680014  94.4025536 135.2017766  22.1528024
  76.5349992 135.2149978  25.3370014  75.6099992 135.4229978  25.2080014
  76.9889992 135.6989978  24.6470014  76.4696298 135.3089299  25.2260451
  76.4979992 133.9529978  33.6810014  75.8329992 133.7069978  34.3240014
  76.0549992 134.5749978  33.1040014  76.3471168 134.0034214  33.6909848
  93.2179992 133.3769978  35.3670014  92.4049992 133.7019978  34.9800014
  93.4509992 132.6159978  34.8340014  93.1381347 133.3186880  35.2419841
  86.6479992 134.8259978  29.6900014  85.9739992 134.1959978  29.9460014
  87.2119992 134.3419978  29.0870014  86.6320384 134.6743708  29.6435020
  91.7909992 132.9329978  29.8030014  92.3939992 133.4809978  29.3010014
  90.9209992 133.2519978  29.5620014  91.7559157 133.0510373  29.7017910
  93.5179992 134.0719978  28.1360014  94.1289992 133.5579978  27.6090014
  93.8999992 134.9489978  28.1590014  93.6533305 134.1202050  28.0669418
  78.9749992 133.4599978  27.5120014  78.1979992 133.2249978  27.0050014
  79.5049992 132.6629978  27.5210014  78.9403451 133.3201268  27.4438627
  77.8109992 133.2579978  23.3160014  78.2499992 133.8689978  22.7240014
  77.1769992 133.7959978  23.7900014  77.7853859 133.4144064  23.2990305
  83.5539992 133.3859978  27.3250014  84.4279992 133.7749978  27.2960014
  83.4179992 133.1709978  28.2480014  83.6551953 133.4101643  27.4457617
  89.1109992 133.4159978  28.9750014  89.1869992 133.5119978  28.0250014
  88.8359992 132.5089978  29.1030014  89.0841871 133.3064146  28.8623944
  90.4639992 133.4419978  24.6670014  89.7609992 134.0569978  24.4570014
  90.0189992 132.6049978  24.7980014  90.3076550 133.4129668  24.6559837
  79.6719992 135.1739978  21.7580014  80.1629992 134.5439978  21.2310014
  80.2949992 135.4699978  22.4210014  79.8235304 135.1277376  21.7754940
  84.6979992 135.4669978  24.2150014  84.8759992 134.8199978  24.8980014
  84.6439992 136.3009978  24.6820014  84.7150678 135.4911604  24.3716301
  78.9319992 133.9739978  37.0300014  78.5659992 133.2079978  37.4720014
  79.8449992 134.0029978  37.3160014  79.0053172 133.8730324  37.1291890
  80.9049992 133.3239978  38.5650014  81.8039992 133.0499978  38.3810014
  80.5189992 132.5819978  39.0300014  80.9757307 133.1862196  38.6027098
  89.3269992 132.6569978  38.7480014  89.4029992 132.2309978  39.6010014
  90.2199992 132.6699978  38.4050014  89.4582303 132.6003493  38.8185497
 106.9089992 142.6159978  27.4710014 106.9979992 143.5599978  27.3390014
 106.2709992 142.3409978  26.8130014 106.8349062 142.7079812  27.3639641
 105.8419992 141.8709978  30.8900014 105.8039992 141.2249978  31.5950014
 105.5199992 141.4039978  30.1190014 105.7932679 141.7194276  30.8822921
  98.2099992 141.4849978  32.4830014  98.2519992 140.8599978  33.2060014
  98.9129992 142.1089978  32.6650014  98.3107345 141.4837873  32.6065274
 109.5479992 144.8099978  29.1910014 109.1069992 144.0899978  29.6420014
 109.5349992 145.5309978  29.8210014 109.4859215 144.8089291  29.3378105
  95.7439992 139.5949978  26.4100014  95.2959992 140.4409978  26.3920014
  95.1829992 139.0159978  25.8950014  95.6068546 139.6323993  26.3378891
  96.4539992 141.7569978  28.5360014  96.6679992 140.9869978  29.0640014
  97.1919992 141.8469978  27.9330014  96.5830200 141.6638587  28.5267035
 104.2309992 144.3029978  31.2960014 104.5349992 143.6169978  30.7010014
 104.9529992 144.4219978  31.9140014 104.3701240 144.2252314  31.2980959
 112.8939992 135.9049978  32.1560014 112.9439992 136.5149978  32.8920014
 113.3199992 136.3659978  31.4330014 112.9584108 136.0507709  32.1590112
 107.3719992 138.6969978  31.6230014 107.5149992 137.7509978  31.6430014
 107.2659992 138.9039978  30.6950014 107.3772403 138.5954797  31.5002239
 100.5269992 136.7989978  28.8960014 100.5699992 137.6589978  28.4770014
 100.0689992 136.2469978  28.2620014 100.4709871 136.8419245  28.7530761
 108.2489992 136.9299978  27.2970014 108.8959992 136.6009978  27.9210014
 108.7589992 137.4469978  26.6740014 108.4064351 136.9549067  27.2981037
  97.1469992 139.1959978  29.6580014  97.8009992 138.6459978  30.0900014
  97.1709992 138.9219978  28.7410014  97.2397199 139.0837167  29.5931668
 102.3039992 140.7459978  28.8730014 102.9199992 140.2189978  29.3820014
 101.7169992 140.1059978  28.4690014 102.3090154 140.5873954  28.8880945
 113.2859992 137.3829978  34.3920014 112.5969992 138.0409978  34.2970014
 113.3009992 137.1849978  35.3290014 113.1937756 137.4462603  34.5055812
  99.3369992 135.7169978  32.9700014  99.1179992 136.2469978  32.2030014
  98.6689992 135.9429978  33.6170014  99.2166975 135.8200967  32.9525140
 106.7059992 145.2169978  26.5140014 106.4109992 144.8939978  25.6620014
 106.3819992 146.1169978  26.5550014 106.6218460 145.2944464  26.4029714
 101.9059992 143.3919978  33.2570014 101.1659992 143.9909978  33.3610014
 102.6199992 143.9459978  32.9420014 101.9013500 143.5487829  33.2286371
 110.0129992 136.2209978  29.2770014 109.7979992 135.4549978  29.8100014
 110.6689992 136.6929978  29.7900014 110.0722673 136.1800728  29.4191990
  98.9309992 137.6089978  30.9220014  99.5449992 138.2419978  31.2950014
  99.4429992 137.1369978  30.2660014  99.0841962 137.6317249  30.8842935
 100.3139992 145.3569978  34.0440014 100.3079992 146.2359978  33.6660014
  99.4599992 145.2729978  34.4690014 100.1977925 145.4659535  34.0496887
  96.4349992 145.0279978  24.8260014  96.1629992 145.2569978  23.9380014
  96.4799992 145.8649978  25.2870014  96.4038097 145.1726163  24.7666683
 110.3599992 134.9359978  32.9560014 109.6239992 135.5459978  32.9190014
 111.0439992 135.3509978  32.4300014 110.3515367 135.0757551  32.8798174
 103.3639992 133.0219978  30.4220014 103.2459992 132.0739978  30.3680014
 102.5089992 133.3549978  30.6950014 103.2322805 132.9372202  30.4515079
 111.1579992 144.8979978  35.1500014 111.2969992 144.3059978  34.4110014
 111.3249992 145.7709978  34.7940014 111.1996193 144.9348896  35.0006211
 105.6299992 141.8599978  24.9230014 104.9189992 142.3949978  24.5710014
 106.3209992 141.9149978  24.2630014 105.6260751 141.9406777  24.7855858
 105.6839992 140.3169978  21.9610014 106.3849992 140.3399978  22.6130014
 105.9859992 139.6889978  21.3050014 105.8208202 140.2352212  21.9615609
 112.9989992 141.2379978  33.2160014 112.3469992 141.9319978  33.3050014
 113.4649992 141.4479978  32.4060014 112.9725937 141.3615019  33.1187533
 109.0359992 142.0689978  25.8740014 108.3039992 142.2979978  26.4480014
 109.4829992 141.3559978  26.3290014 108.9963963 142.0038729  26.0139945
 108.9329992 140.2439978  34.9420014 109.0129992 141.0069978  35.5140014
 108.3319992 140.5229978  34.2520014 108.8626547 140.3862457  34.9270047
 100.6809992 142.6999978  27.7570014 100.3509992 142.3289978  26.9390014
 101.2699992 142.0289978  28.1040014 100.7153970 142.5586063  27.6919404
 101.0479992 141.4679978  31.3900014 101.6129992 141.5899978  30.6280014
 101.3669992 142.1059978  32.0290014 101.1684166 141.5708791  31.3720348
 107.9069992 141.2319978  23.5600014 108.4859992 141.3819978  24.3060014
 108.3209992 141.7019978  22.8360014 108.0423358 141.3160954  23.5643953
  98.8479992 142.0659978  35.3360014  98.9179992 142.7169978  36.0350014
  97.9569992 142.1689978  35.0010014  98.7371690 142.1689249  35.3863043
 111.6059992 132.9819978  23.3730014 110.7059992 133.1209978  23.6680014
 111.8579992 133.8129978  22.9710014 111.5168683 133.1134055  23.3590232
  99.6719992 141.7689978  25.3460014  99.3799992 142.5369978  24.8550014
  98.9969992 141.1099978  25.1830014  99.5408497 141.7849745  25.2568260
  95.7649992 144.1319978  34.1610014  95.2629992 144.1039978  33.3460014
  95.7699992 143.2269978  34.4710014  95.6969832 144.0057486  34.0914121
 110.8649992 139.0719978  37.2080014 110.4569992 139.5519978  36.4870014
 110.9049992 138.1659978  36.9000014 110.8146221 139.0152449  37.0678267
  98.0139992 145.4559978  35.2040014  98.2299992 145.0939978  36.0640014
  97.1579992 145.0809978  34.9950014  97.9278810 145.3558837  35.2932680
 100.6319992 133.9259978  31.2000014  99.7709992 133.8389978  30.7920014
 100.6099992 134.7819978  31.6280014 100.5110491 134.0298003  31.2019582
 105.2949992 133.6479978  34.5750014 105.7149992 133.2329978  35.3280014
 104.3619992 133.4689978  34.6920014 105.2263736 133.5669910  34.6938968
 108.6219992 137.4029978  35.4280014 108.1079992 137.2779978  36.2260014
 108.4659992 138.3159978  35.1840014 108.5306967 137.5092123  35.5040937
 109.3839992 142.2639978  21.1890014 109.4259992 142.0419978  20.2590014
 110.2329992 142.6629978  21.3790014 109.5045253 142.2875498  21.0873822
 104.9569992 136.1399978  21.8600014 104.7029992 136.1589978  22.7820014
 104.6999992 135.2689978  21.5580014 104.8874508 136.0248280  21.9454803
 100.7229992 138.8909978  32.2950014 100.0819992 138.8509978  33.0040014
 100.7609992 139.8179978  32.0570014 100.6403010 139.0107668  32.3599946
 100.7199992 139.1119978  27.2070014  99.8279992 138.7719978  27.1480014
 101.1709992 138.7349978  26.4510014 100.6587642 139.0144910  27.0967726
 106.2559992 139.5279978  26.0240014 105.8469992 140.3429978  25.7320014
 106.9759992 139.3879978  25.4100014 106.2974439 139.6205372  25.9010115
 105.3579992 139.7039978  37.5120014 104.7949992 138.9989978  37.8330014
 106.1839992 139.5829978  37.9800014 105.3926674 139.5912165  37.6191751
 107.2609992 138.9739978  28.8380014 107.0649992 139.5799978  28.1230014
 107.4419992 138.1409978  28.4040014 107.2586584 138.9442513  28.6814212
  98.4729992 139.2119978  34.1620014  98.4349992 139.6119978  35.0310014
  97.9829992 138.3949978  34.2520014  98.4015330 139.1562674  34.2931289
 101.8389992 136.5859978  20.9610014 101.4079992 136.1409978  21.6900014
 101.1209992 136.9569978  20.4480014 101.6829176 136.5752051  20.9914930
  95.0819992 136.3279978  28.0130014  95.7119992 136.2989978  28.7320014
  95.5309992 135.9029978  27.2820014  95.2290835 136.2665660  28.0127659
  96.3559992 137.0739978  23.4370014  96.8299992 137.6649978  22.8520014
  95.6379992 137.6039978  23.7840014  96.3238640 137.2265511  23.4037969
 106.5249992 140.6119978  33.5090014 106.8479992 139.9809978  32.8660014
 106.0839992 140.0779978  34.1700014 106.5096379 140.4533468  33.5102582
 103.3019992 136.5399978  28.2930014 102.3909992 136.5969978  28.5820014
 103.8069992 136.4799978  29.1040014 103.2456873 136.5396826  28.4421207
  98.1299992 138.1689978  27.1200014  97.2409992 138.2679978  26.7800014
  98.4269992 137.3269978  26.7740014  98.0484177 138.0687687  27.0266940
 101.7829992 138.1689978  24.7770014 102.7149992 138.2979978  24.9550014
 101.5679992 138.8379978  24.1270014 101.8814472 138.2770806  24.7134891
 107.7069992 135.7749978  31.5580014 107.0299992 135.9059978  32.2210014
 107.2219992 135.6199978  30.7470014 107.5487405 135.7719947  31.5392170
 100.4569992 139.3629978  22.3430014  99.9149992 138.9839978  21.6520014
 101.2909992 139.5579978  21.9150014 100.4954390 139.3374079  22.1904392
  98.5929992 143.9199978  37.4420014  99.3249992 144.1749978  38.0040014
  97.8119992 144.1249978  37.9580014  98.5876526 143.9825450  37.5885176
 104.6219992 139.3269978  30.1800014 105.1859992 138.7809978  29.6330014
 104.4739992 138.8059978  30.9690014 104.6793037 139.1816787  30.2117229
  99.6239992 135.4639978  26.5990014  99.3069992 134.5609978  26.5630014
 100.4049992 135.4659978  26.0460014  99.6862431 135.3407797  26.5193102
 103.2479992 137.7159978  32.5940014 102.4129992 138.1699978  32.7050014
 103.7719992 137.9919978  33.3460014 103.2046072 137.8153948  32.7108136
 103.7929992 143.9289978  24.2790014 103.0479992 143.4209978  23.9570014
 103.6579992 143.9779978  25.2250014 103.6728963 143.8661731  24.3628826
 110.9429992 143.0619978  33.0660014 111.5839992 143.5179978  32.5220014
 110.1119992 143.1749978  32.6030014 110.9185287 143.1396921  32.9289887
 107.6899992 136.7429978  22.4780014 106.7519992 136.8539978  22.3270014
 107.9879992 137.5989978  22.7850014 107.6016318 136.8740158  22.4988145
 105.3119992 144.1129978  35.5160014 104.9659992 143.7309978  36.3230014
 105.1119992 145.0459978  35.5870014 105.2375987 144.1869002  35.6360461
 108.4089992 138.6099978  24.1390014 109.3009992 138.4719978  24.4580014
 108.4649992 139.4009978  23.6020014 108.5387325 138.6979918  24.1101217
  98.9169992 143.2239978  30.0490014  99.6619992 143.2209978  29.4470014
  98.9949992 142.3999978  30.5300014  99.0293365 143.1122384  30.0317430
 105.9179992 145.3869978  23.3040014 105.6229992 146.2139978  23.6860014
 105.2149992 144.7679978  23.5010014 105.7826379 145.4164171  23.3828654
  95.9249992 141.6839978  35.3640014  96.1479992 141.2659978  36.1950014
  95.3229992 141.0719978  34.9410014  95.8741513 141.5439606  35.4206740
 102.9419992 141.2009978  37.5770014 102.6459992 141.0359978  36.6810014
 103.8729992 140.9809978  37.5660014 103.0274401 141.1486879  37.4530206
 113.2939992 138.8189978  23.8340014 112.7389992 138.4229978  23.1610014
 113.3939992 139.7299978  23.5560014 113.2316816 138.8879505  23.7045033
 113.2569992 144.6199978  36.6710014 112.4059992 144.8579978  36.3030014
 113.8469992 144.6029978  35.9180014 113.2203812 144.6502524  36.5188453
 108.7489992 142.4129978  31.3200014 107.8209992 142.1819978  31.2930014
 109.1999992 141.6359978  30.9900014 108.6828165 142.2762774  31.2716790
  97.0469992 141.6039978  22.0400014  97.6629992 142.2309978  22.4200014
  96.1849992 141.9199978  22.3120014  97.0147678 141.7324412  22.1287209
 102.7199992 144.4049978  27.0290014 102.4789992 145.3299978  27.0710014
 101.9789992 143.9459978  27.4260014 102.5869206 144.4695915  27.0883769
 106.7779992 144.6529978  33.0450014 106.3529992 144.4249978  33.8710014
 107.3589992 143.9139978  32.8630014 106.7983395 144.5219545  33.1334414
  97.5589992 136.4379978  34.9220014  96.6669992 136.7759978  34.8540014
  97.4609992 135.5819978  35.3400014  97.4234475 136.3686543  34.9691704
 109.8469992 144.2539978  24.3460014 109.5699992 143.5259978  24.9020014
 110.7749992 144.3729978  24.5510014 109.9344499 144.1704213  24.4498044
  98.4619992 143.5159978  23.5330014  97.7759992 143.8689978  24.1000014
  98.9849992 144.2789978  23.2860014  98.4388402 143.6673901  23.5771801
 106.2939992 136.1789978  33.8120014 106.9929992 136.2529978  34.4620014
 105.9129992 135.3139978  33.9660014 106.3382097 136.0722389  33.9217997
 107.0779992 135.8309978  24.9090014 107.2979992 136.3019978  24.1050014
 107.6369992 136.2249978  25.5790014 107.1836731 135.9487287  24.8895033
 104.2779992 137.5589978  25.7440014 105.0899992 138.0629978  25.7900014
 104.0339992 137.4139978  26.6580014 104.3561467 137.6083749  25.8738575
 104.8139992 138.5449978  34.9280014 104.9329992 139.1189978  35.6850014
 105.4689992 137.8569978  35.0430014 104.9188684 138.5305194  35.0471674
 105.1619992 134.6399978  26.6820014 104.8149992 135.2569978  27.3260014
 105.8209992 135.1409978  26.2000014 105.2035090 134.7921575  26.7050681
 100.8199992 135.7029978  23.3690014 100.7359992 136.5909978  23.7160014
 101.7099992 135.4379978  23.6010014 100.9288163 135.7887179  23.4478596
 111.0179992 136.4519978  35.7630014 110.1019992 136.7139978  35.6760014
 111.3539992 136.4489978  34.8670014 110.9378499 136.4875163  35.6298766
 109.6209992 140.2019978  29.8590014 108.8229992 139.7869978  29.5310014
 110.0659992 139.5119978  30.3500014 109.5719684 140.0518628  29.8805227
  97.3939992 138.7949978  21.5450014  97.3489992 139.7339978  21.7240014
  96.5059992 138.5589978  21.2760014  97.2678166 138.8916687  21.5331524
  98.2019992 133.5759978  30.2190014  97.9729992 133.6349978  29.2910014
  97.7599992 132.7849978  30.5250014  98.1108801 133.4770540  30.1334729
  96.3279992 143.9399978  38.6630014  96.4719992 143.0379978  38.3770014
  95.5559992 144.2259978  38.1760014  96.2432733 143.8551798  38.5579532
 100.6689992 144.2829978  20.7960014 100.7339992 143.4889978  21.3260014
 101.3219992 144.1649978  20.1060014 100.7661605 144.1583430  20.7752997
 102.9829992 143.9089978  38.0960014 102.6549992 144.1799978  37.2390014
 103.1349992 142.9679978  38.0080014 102.9586412 143.8189046  37.9667822
 106.0219992 145.3299978  20.5320014 105.7529992 145.5109978  21.4320014
 105.8149992 144.4049978  20.4000014 105.9571191 145.2297119  20.6375524
 108.7179992 143.8249978  35.4790014 109.4629992 144.4139978  35.3600014
 107.9609992 144.4069978  35.5430014 108.7175470 143.9842128  35.4713799
  97.1609992 141.1399978  38.0830014  97.5689992 140.2829978  37.9620014
  96.8999992 141.1539978  39.0040014  97.1816016 141.0245119  38.1909192
 101.8189992 142.2559978  23.1020014 101.3589992 141.7719978  23.7870014
 102.0739992 141.5869978  22.4660014 101.7904856 142.0993669  23.1098397
 101.1079992 140.1489978  35.4580014 100.4889992 140.8229978  35.7380014
 101.4519992 140.4699978  34.6240014 101.0697123 140.2846887  35.3836388
 102.8899992 140.4989978  21.3640014 102.7089992 140.3439978  20.4370014
 103.8399992 140.6069978  21.4090014 102.9936566 140.4923669  21.2430929
 106.1269992 142.6199978  38.7350014 107.0809992 142.7039978  38.7080014
 105.9669992 141.9079978  39.3550014 106.2357182 142.5352842  38.8150733
 112.2799992 142.8529978  20.8100014 112.0059992 142.4289978  19.9970014
 112.3189992 143.7849978  20.5930014 112.2477716 142.9208827  20.6694286
 101.4469992 137.5039978  36.5400014 101.5969992 136.7749978  35.9380014
 101.4489992 138.2809978  35.9810014 101.4677967 137.5092708  36.3820541
 101.8599992 135.8729978  34.0330014 102.3949992 136.3249978  33.3810014
 101.0069992 135.7649978  33.6100014 101.8180374 135.9202665  33.8866710
 103.4409992 141.3129978  34.2720014 104.1919992 141.1569978  33.6990014
 103.1019992 142.1649978  33.9970014 103.4979587 141.4068138  34.1564078
 107.8569992 139.1279978  39.3010014 108.0489992 138.1969978  39.1890014
 108.7149992 139.5529978  39.2900014 107.9992182 139.0580070  39.2841862
 109.1739992 141.9169978  37.3780014 108.8919992 142.6259978  36.8000014
 110.1159992 141.8439978  37.2270014 109.2627921 142.0042193  37.2784225
  99.9259992 138.7019978  38.4510014  99.1579992 138.1689978  38.2410014
 100.6039992 138.3919978  37.8520014  99.9127235 138.5871754  38.3412413
 102.6649992 133.3299978  34.4640014 102.5669992 134.2759978  34.3590014
 101.9229992 132.9569978  33.9880014 102.5512534 133.4091773  34.3852600
 103.9289992 137.6509978  38.0280014 103.6939992 137.4319978  38.9290014
 103.1459992 137.4439978  37.5180014 103.7909095 137.5929892  38.0825353
 106.6449992 136.7789978  37.1030014 105.6969992 136.8109978  37.2350014
 106.9569992 136.1529978  37.7570014 106.5575293 136.6987923  37.2094148
 108.2789992 135.4129978  39.1080014 108.1819992 134.4609978  39.1030014
 107.9569992 135.6809978  39.9690014 108.2222468 135.3190884  39.2236210
  98.1059992 136.6219978  38.1560014  98.3179992 135.9159978  37.5460014
  97.9949992 136.1849978  39.0000014  98.1200269 136.4661921  38.1865873
 102.8869992 132.6239978  37.1350014 103.5989992 131.9839978  37.1210014
 102.7859992 132.8899978  36.2220014 102.9707387 132.5724330  37.0095563
 103.2409992 134.3059978  39.1890014 103.1089992 133.8309978  38.3690014
 102.6409992 135.0509978  39.1340014 103.1419070 134.3415789  39.0693251
 111.4369992 145.4659978  39.2710014 110.5709992 145.3609978  39.6650014
 111.8129992 146.2239978  39.7170014 111.3693401 145.5541708  39.3852620
 112.7379992 143.7219978  24.7850014 113.5879992 144.1429978  24.9120014
 112.7429992 142.9819978  25.3920014 112.8551143 143.6796094  24.8844750
 113.1319992 141.7759978  26.6080014 112.4059992 141.2959978  27.0060014
 113.7139992 141.9809978  27.3410014 113.1112730 141.7380184  26.7614149
 112.8909992 144.5609978  31.5560014 113.7249992 144.1829978  31.2750014
 113.0029992 145.5039978  31.4370014 113.0201917 144.6367943  31.5014861
 113.4009992 141.6769978  22.9990014 112.8789992 142.0329978  22.2810014
 113.3679992 142.3519978  23.6780014 113.3250129 141.8169598  22.9923355
 111.7499992 138.9159978  21.5500014 111.8459992 139.5829978  20.8700014
 111.6099992 138.1009978  21.0690014 111.7442040 138.8970671  21.3918378
 110.9189992 140.2969978  27.1710014 110.7689992 139.3519978  27.1510014
 110.5649992 140.5779978  28.0150014 110.8506351 140.2056644  27.2823220
  95.9539992 142.3749978  31.1820014  96.1389992 142.2929978  30.2460014
  96.8039992 142.2509978  31.6050014  96.0940928 142.3470463  31.1112893
 111.7749992 142.2669978  36.8100014 112.3579992 141.5319978  37.0020014
 112.3389992 143.0389978  36.8570014 111.9309781 142.2708145  36.8426164
 113.2719992 140.1699978  37.4950014 112.4089992 139.7909978  37.3290014
 113.8759992 139.4309978  37.4200014 113.2356085 140.0183223  37.4621694
 110.9969992 136.3239978  20.6680014 111.6079992 135.9529978  21.3050014
 110.1599992 135.9029978  20.8640014 110.9674947 136.2162756  20.7817252
 110.6299992 137.8789978  25.6340014 110.9089992 136.9719978  25.7580014
 111.3889992 138.3129978  25.2450014 110.7708619 137.8134502  25.5983795
 111.2409992 138.4609978  31.0700014 112.1739992 138.6729978  31.0350014
 111.0059992 138.5619978  31.9920014 111.3369517 138.5036833  31.1899130
 111.2709992 139.1979978  33.8460014 110.4279992 139.4659978  34.2120014
 111.7129992 140.0199978  33.6350014 111.2154138 139.3458273  33.8675518
  95.5519992 137.6449978  37.3220014  96.4709992 137.5229978  37.5590014
  95.1019992 136.8949978  37.7120014  95.6170087 137.5269608  37.4071410
 113.5539992 133.1779978  39.1990014 113.9029992 132.5239978  38.5940014
 113.7009992 134.0149978  38.7590014 113.6216824 133.2016024  39.0566304
 111.2429992 135.1419978  25.6820014 111.4249992 134.6929978  26.5070014
 110.6429992 134.5579978  25.2180014 111.1868187 135.0015552  25.7322739
  96.7729992 135.9579978  30.2140014  97.2179992 135.1659978  30.5160014
  97.2389992 136.6739978  30.6440014  96.8969718 135.9464534  30.3135265
  95.0769992 138.9569978  31.2830014  95.5689992 138.7359978  30.4920014
  95.4389992 139.7969978  31.5640014  95.1932923 139.0403468  31.2127407
 113.0729992 135.2869978  37.5480014 112.1559992 135.5579978  37.5130014
 113.1959992 134.7519978  36.7640014 112.9639672 135.2517885  37.4371862
 113.1099992 135.2099978  22.2100014 113.5219992 134.4889978  21.7350014
 113.7909992 135.8789978  22.2680014 113.2585536 135.2017766  22.1528024
  95.3909992 135.2149978  25.3370014  94.4659992 135.4229978  25.2080014
  95.8449992 135.6989978  24.6470014  95.3256298 135.3089299  25.2260451
  95.3539992 133.9529978  33.6810014  94.6889992 133.7069978  34.3240014
  94.9109992 134.5749978  33.1040014  95.2031168 134.0034214  33.6909848
 112.0739992 133.3769978  35.3670014 111.2609992 133.7019978  34.9800014
 112.3069992 132.6159978  34.8340014 111.9941347 133.3186880  35.2419841
 105.5039992 134.8259978  29.6900014 104.8299992 134.1959978  29.9460014
 106.0679992 134.3419978  29.0870014 105.4880384 134.6743708  29.6435020
 110.6469992 132.9329978  29.8030014 111.2499992 133.4809978  29.3010014
 109.7769992 133.2519978  29.5620014 110.6119157 133.0510373  29.7017910
 112.3739992 134.0719978  28.1360014 112.9849992 133.5579978  27.6090014
 112.7559992 134.9489978  28.1590014 112.5093305 134.1202050  28.0669418
  97.8309992 133.4599978  27.5120014  97.0539992 133.2249978  27.0050014
  98.3609992 132.6629978  27.5210014  97.7963451 133.3201268  27.4438627
  96.6669992 133.2579978  23.3160014  97.1059992 133.8689978  22.7240014
  96.0329992 133.7959978  23.7900014  96.6413859 133.4144064  23.2990305
 102.4099992 133.3859978  27.3250014 103.2839992 133.7749978  27.2960014
 102.2739992 133.1709978  28.2480014 102.5111953 133.4101643  27.4457617
 107.9669992 133.4159978  28.9750014 108.0429992 133.5119978  28.0250014
 107.6919992 132.5089978  29.1030014 107.9401871 133.3064146  28.8623944
 109.3199992 133.4419978  24.6670014 108.6169992 134.0569978  24.4570014
 108.8749992 132.6049978  24.7980014 109.1636550 133.4129668  24.6559837
  98.5279992 135.1739978  21.7580014  99.0189992 134.5439978  21.2310014
  99.1509992 135.4699978  22.4210014  98.6795304 135.1277376  21.7754940
 103.5539992 135.4669978  24.2150014 103.7319992 134.8199978  24.8980014
 103.4999992 136.3009978  24.6820014 103.5710678 135.4911604  24.3716301
  97.7879992 133.9739978  37.0300014  97.4219992 133.2079978  37.4720014
  98.7009992 134.0029978  37.3160014  97.8613172 133.8730324  37.1291890
  99.7609992 133.3239978  38.5650014 100.6599992 133.0499978  38.3810014
  99.3749992 132.5819978  39.0300014  99.8317307 133.1862196  38.6027098
 108.1829992 132.6569978  38.7480014 108.2589992 132.2309978  39.6010014
 109.0759992 132.6699978  38.4050014 108.3142303 132.6003493  38.8185497
 125.7649992 142.6159978  27.4710014 125.8539992 143.5599978  27.3390014
 125.1269992 142.3409978  26.8130014 125.6909062 142.7079812  27.3639641
 124.6979992 141.8709978  30.8900014 124.6599992 141.2249978  31.5950014
 124.3759992 141.4039978  30.1190014 124.6492679 141.7194276  30.8822921
 117.0659992 141.4849978  32.4830014 117.1079992 140.8599978  33.2060014
 117.7689992 142.1089978  32.6650014 117.1667345 141.4837873  32.6065274
 128.4039992 144.8099978  29.1910014 127.9629992 144.0899978  29.6420014
 128.3909992 145.5309978  29.8210014 128.3419215 144.8089291  29.3378105
 114.5999992 139.5949978  26.4100014 114.1519992 140.4409978  26.3920014
 114.0389992 139.0159978  25.8950014 114.4628546 139.6323993  26.3378891
 115.3099992 141.7569978  28.5360014 115.5239992 140.9869978  29.0640014
 116.0479992 141.8469978  27.9330014 115.4390200 141.6638587  28.5267035
 123.0869992 144.3029978  31.2960014 123.3909992 143.6169978  30.7010014
 123.8089992 144.4219978  31.9140014 123.2261240 144.2252314  31.2980959
 131.7499992 135.9049978  32.1560014 131.7999992 136.5149978  32.8920014
 132.1759992 136.3659978  31.4330014 131.8144108 136.0507709  32.1590112
 126.2279992 138.6969978  31.6230014 126.3709992 137.7509978  31.6430014
 126.1219992 138.9039978  30.6950014 126.2332403 138.5954797  31.5002239
 119.3829992 136.7989978  28.8960014 119.4259992 137.6589978  28.4770014
 118.9249992 136.2469978  28.2620014 119.3269871 136.8419245  28.7530761
 127.1049992 136.9299978  27.2970014 127.7519992 136.6009978  27.9210014
 127.6149992 137.4469978  26.6740014 127.2624351 136.9549067  27.2981037
 116.0029992 139.1959978  29.6580014 116.6569992 138.6459978  30.0900014
 116.0269992 138.9219978  28.7410014 116.0957199 139.0837167  29.5931668
 121.1599992 140.7459978  28.8730014 121.7759992 140.2189978  29.3820014
 120.5729992 140.1059978  28.4690014 121.1650154 140.5873954  28.8880945
 132.1419992 137.3829978  34.3920014 131.4529992 138.0409978  34.2970014
 132.1569992 137.1849978  35.3290014 132.0497756 137.4462603  34.5055812
 118.1929992 135.7169978  32.9700014 117.9739992 136.2469978  32.2030014
 117.5249992 135.9429978  33.6170014 118.0726975 135.8200967  32.9525140
 125.5619992 145.2169978  26.5140014 125.2669992 144.8939978  25.6620014
 125.2379992 146.1169978  26.5550014 125.4778460 145.2944464  26.4029714
 120.7619992 143.3919978  33.2570014 120.0219992 143.9909978  33.3610014
 121.4759992 143.9459978  32.9420014 120.7573500 143.5487829  33.2286371
 128.8689992 136.2209978  29.2770014 128.6539992 135.4549978  29.8100014
 129.5249992 136.6929978  29.7900014 128.9282673 136.1800728  29.4191990
 117.7869992 137.6089978  30.9220014 118.4009992 138.2419978  31.2950014
 118.2989992 137.1369978  30.2660014 117.9401962 137.6317249  30.8842935
 119.1699992 145.3569978  34.0440014 119.1639992 146.2359978  33.6660014
 118.3159992 145.2729978  34.4690014 119.0537925 145.4659535  34.0496887
 115.2909992 145.0279978  24.8260014 115.0189992 145.2569978  23.9380014
 115.3359992 145.8649978  25.2870014 115.2598097 145.1726163  24.7666683
 129.2159992 134.9359978  32.9560014 128.4799992 135.5459978  32.9190014
 129.8999992 135.3509978  32.4300014 129.2075367 135.0757551  32.8798174
 122.2199992 133.0219978  30.4220014 122.1019992 132.0739978  30.3680014
 121.3649992 133.3549978  30.6950014 122.0882805 132.9372202  30.4515079
 130.0139992 144.8979978  35.1500014 130.1529992 144.3059978  34.4110014
 130.1809992 145.7709978  34.7940014 130.0556193 144.9348896  35.0006211
 124.4859992 141.8599978  24.9230014 123.7749992 142.3949978  24.5710014
 125.1769992 141.9149978  24.2630014 124.4820751 141.9406777  24.7855858
 124.5399992 140.3169978  21.9610014 125.2409992 140.3399978  22.6130014
 124.8419992 139.6889978  21.3050014 124.6768202 140.2352212  21.9615609
 131.8549992 141.2379978  33.2160014 131.2029992 141.9319978  33.3050014
 132.3209992 141.4479978  32.4060014 131.8285937 141.3615019  33.1187533
 127.8919992 142.0689978  25.8740014 127.1599992 142.2979978  26.4480014
 128.3389992 141.3559978  26.3290014 127.8523963 142.0038729  26.0139945
 127.7889992 140.2439978  34.9420014 127.8689992 141.0069978  35.5140014
 127.1879992 140.5229978  34.2520014 127.7186547 140.3862457  34.9270047
 119.5369992 142.6999978  27.7570014 119.2069992 142.3289978  26.9390014
 120.1259992 142.0289978  28.1040014 119.5713970 142.5586063  27.6919404
 119.9039992 141.4679978  31.3900014 120.4689992 141.5899978  30.6280014
 120.2229992 142.1059978  32.0290014 120.0244166 141.5708791  31.3720348
 126.7629992 141.2319978  23.5600014 127.3419992 141.3819978  24.3060014
 127.1769992 141.7019978  22.8360014 126.8983358 141.3160954  23.5643953
 117.7039992 142.0659978  35.3360014 117.7739992 142.7169978  36.0350014
 116.8129992 142.1689978  35.0010014 117.5931690 142.1689249  35.3863043
 130.4619992 132.9819978  23.3730014 129.5619992 133.1209978  23.6680014
 130.7139992 133.8129978  22.9710014 130.3728683 133.1134055  23.3590232
 118.5279992 141.7689978  25.3460014 118.2359992 142.5369978  24.8550014
 117.8529992 141.1099978  25.1830014 118.3968497 141.7849745  25.2568260
 114.6209992 144.1319978  34.1610014 114.1189992 144.1039978  33.3460014
 114.6259992 143.2269978  34.4710014 114.5529832 144.0057486  34.0914121
 129.7209992 139.0719978  37.2080014 129.3129992 139.5519978  36.4870014
 129.7609992 138.1659978  36.9000014 129.6706221 139.0152449  37.0678267
 116.8699992 145.4559978  35.2040014 117.0859992 145.0939978  36.0640014
 116.0139992 145.0809978  34.9950014 116.7838810 145.3558837  35.2932680
 119.4879992 133.9259978  31.2000014 118.6269992 133.8389978  30.7920014
 119.4659992 134.7819978  31.6280014 119.3670491 134.0298003  31.2019582
 124.1509992 133.6479978  34.5750014 124.5709992 133.2329978  35.3280014
 123.2179992 133.4689978  34.6920014 124.0823736 133.5669910  34.6938968
 127.4779992 137.4029978  35.4280014 126.9639992 137.2779978  36.2260014
 127.3219992 138.3159978  35.1840014 127.3866967 137.5092123  35.5040937
 128.2399992 142.2639978  21.1890014 128.2819992 142.0419978  20.2590014
 129.0889992 142.6629978  21.3790014 128.3605253 142.2875498  21.0873822
 123.8129992 136.1399978  21.8600014 123.5589992 136.1589978  22.7820014
 123.5559992 135.2689978  21.5580014 123.7434508 136.0248280  21.9454803
 119.5789992 138.8909978  32.2950014 118.9379992 138.8509978  33.0040014
 119.6169992 139.8179978  32.0570014 119.4963010 139.0107668  32.3599946
 119.5759992 139.1119978  27.2070014 118.6839992 138.7719978  27.1480014
 120.0269992 138.7349978  26.4510014 119.5147642 139.0144910  27.0967726
 125.1119992 139.5279978  26.0240014 124.7029992 140.3429978  25.7320014
 125.8319992 139.3879978  25.4100014 125.1534439 139.6205372  25.9010115
 124.2139992 139.7039978  37.5120014 123.6509992 138.9989978  37.8330014
 125.0399992 139.5829978  37.9800014 124.2486674 139.5912165  37.6191751
 126.1169992 138.9739978  28.8380014 125.9209992 139.5799978  28.1230014
 126.2979992 138.1409978  28.4040014 126.1146584 138.9442513  28.6814212
 117.3289992 139.2119978  34.1620014 117.2909992 139.6119978  35.0310014
 116.8389992 138.3949978  34.2520014 117.2575330 139.1562674  34.2931289
 120.6949992 136.5859978  20.9610014 120.2639992 136.1409978  21.6900014
 119.9769992 136.9569978  20.4480014 120.5389176 136.5752051  20.9914930
 113.9379992 136.3279978  28.0130014 114.5679992 136.2989978  28.7320014
 114.3869992 135.9029978  27.2820014 114.0850835 136.2665660  28.0127659
 115.2119992 137.0739978  23.4370014 115.6859992 137.6649978  22.8520014
 114.4939992 137.6039978  23.7840014 115.1798640 137.2265511  23.4037969
 125.3809992 140.6119978  33.5090014 125.7039992 139.9809978  32.8660014
 124.9399992 140.0779978  34.1700014 125.3656379 140.4533468  33.5102582
 122.1579992 136.5399978  28.2930014 121.2469992 136.5969978  28.5820014
 122.6629992 136.4799978  29.1040014 122.1016873 136.5396826  28.4421207
 116.9859992 138.1689978  27.1200014 116.0969992 138.2679978  26.7800014
 117.2829992 137.3269978  26.7740014 116.9044177 138.0687687  27.0266940
 120.6389992 138.1689978  24.7770014 121.5709992 138.2979978  24.9550014
 120.4239992 138.8379978  24.1270014 120.7374472 138.2770806  24.7134891
 126.5629992 135.7749978  31.5580014 125.8859992 135.9059978  32.2210014
 126.0779992 135.6199978  30.7470014 126.4047405 135.7719947  31.5392170
 119.3129992 139.3629978  22.3430014 118.7709992 138.9839978  21.6520014
 120.1469992 139.5579978  21.9150014 119.3514390 139.3374079  22.1904392
 117.4489992 143.9199978  37.4420014 118.1809992 144.1749978  38.0040014
 116.6679992 144.1249978  37.9580014 117.4436526 143.9825450  37.5885176
 123.4779992 139.3269978  30.1800014 124.0419992 138.7809978  29.6330014
 123.3299992 138.8059978  30.9690014 123.5353037 139.1816787  30.2117229
 118.4799992 135.4639978  26.5990014 118.1629992 134.5609978  26.5630014
 119.2609992 135.4659978  26.0460014 118.5422431 135.3407797  26.5193102
 122.1039992 137.7159978  32.5940014 121.2689992 138.1699978  32.7050014
 122.6279992 137.9919978  33.3460014 122.0606072 137.8153948  32.7108136
 122.6489992 143.9289978  24.2790014 121.9039992 143.4209978  23.9570014
 122.5139992 143.9779978  25.2250014 122.5288963 143.8661731  24.3628826
 129.7989992 143.0619978  33.0660014 130.4399992 143.5179978  32.5220014
 128.9679992 143.1749978  32.6030014 129.7745287 143.1396921  32.9289887
 126.5459992 136.7429978  22.4780014 125.6079992 136.8539978  22.3270014
 126.8439992 137.5989978  22.7850014 126.4576318 136.8740158  22.4988145
 124.1679992 144.1129978  35.5160014 123.8219992 143.7309978  36.3230014
 123.9679992 145.0459978  35.5870014 124.0935987 144.1869002  35.6360461
 127.2649992 138.6099978  24.1390014 128.1569992 138.4719978  24.4580014
 127.3209992 139.4009978  23.6020014 127.3947325 138.6979918  24.1101217
 117.7729992 143.2239978  30.0490014 118.5179992 143.2209978  29.4470014
 117.8509992 142.3999978  30.5300014 117.8853365 143.1122384  30.0317430
 124.7739992 145.3869978  23.3040014 124.4789992 146.2139978  23.6860014
 124.0709992 144.7679978  23.5010014 124.6386379 145.4164171  23.3828654
 114.7809992 141.6839978  35.3640014 115.0039992 141.2659978  36.1950014
 114.1789992 141.0719978  34.9410014 114.7301513 141.5439606  35.4206740
 121.7979992 141.2009978  37.5770014 121.5019992 141.0359978  36.6810014
 122.7289992 140.9809978  37.5660014 121.8834401 141.1486879  37.4530206
 132.1499992 138.8189978  23.8340014 131.5949992 138.4229978  23.1610014
 132.2499992 139.7299978  23.5560014 132.0876816 138.8879505  23.7045033
 132.1129992 144.6199978  36.6710014 131.2619992 144.8579978  36.3030014
 132.7029992 144.6029978  35.9180014 132.0763812 144.6502524  36.5188453
 127.6049992 142.4129978  31.3200014 126.6769992 142.1819978  31.2930014
 128.0559992 141.6359978  30.9900014 127.5388165 142.2762774  31.2716790
 115.9029992 141.6039978  22.0400014 116.5189992 142.2309978  22.4200014
 115.0409992 141.9199978  22.3120014 115.8707678 141.7324412  22.1287209
 121.5759992 144.4049978  27.0290014 121.3349992 145.3299978  27.0710014
 120.8349992 143.9459978  27.4260014 121.4429206 144.4695915  27.0883769
 125.6339992 144.6529978  33.0450014 125.2089992 144.4249978  33.8710014
 126.2149992 143.9139978  32.8630014 125.6543395 144.5219545  33.1334414
 116.4149992 136.4379978  34.9220014 115.5229992 136.7759978  34.8540014
 116.3169992 135.5819978  35.3400014 116.2794475 136.3686543  34.9691704
 128.7029992 144.2539978  24.3460014 128.4259992 143.5259978  24.9020014
 129.6309992 144.3729978  24.5510014 128.7904499 144.1704213  24.4498044
 117.3179992 143.5159978  23.5330014 116.6319992 143.8689978  24.1000014
 117.8409992 144.2789978  23.2860014 117.2948402 143.6673901  23.5771801
 125.1499992 136.1789978  33.8120014 125.8489992 136.2529978  34.4620014
 124.7689992 135.3139978  33.9660014 125.1942097 136.0722389  33.9217997
 125.9339992 135.8309978  24.9090014 126.1539992 136.3019978  24.1050014
 126.4929992 136.2249978  25.5790014 126.0396731 135.9487287  24.8895033
 123.1339992 137.5589978  25.7440014 123.9459992 138.0629978  25.7900014
 122.8899992 137.4139978  26.6580014 123.2121467 137.6083749  25.8738575
 123.6699992 138.5449978  34.9280014 123.7889992 139.1189978  35.6850014
 124.3249992 137.8569978  35.0430014 123.7748684 138.5305194  35.0471674
 124.0179992 134.6399978  26.6820014 123.6709992 135.2569978  27.3260014
 124.6769992 135.1409978  26.2000014 124.0595090 134.7921575  26.7050681
 119.6759992 135.7029978  23.3690014 119.5919992 136.5909978  23.7160014
 120.5659992 135.4379978  23.6010014 119.7848163 135.7887179  23.4478596
 129.8739992 136.4519978  35.7630014 128.9579992 136.7139978  35.6760014
 130.2099992 136.4489978  34.8670014 129.7938499 136.4875163  35.6298766
 128.4769992 140.2019978  29.8590014 127.6789992 139.7869978  29.5310014
 128.9219992 139.5119978  30.3500014 128.4279684 140.0518628  29.8805227
 116.2499992 138.7949978  21.5450014 116.2049992 139.7339978  21.7240014
 115.3619992 138.5589978  21.2760014 116.1238166 138.8916687  21.5331524
 117.0579992 133.5759978  30.2190014 116.8289992 133.6349978  29.2910014
 116.6159992 132.7849978  30.5250014 116.9668801 133.4770540  30.1334729
 115.1839992 143.9399978  38.6630014 115.3279992 143.0379978  38.3770014
 114.4119992 144.2259978  38.1760014 115.0992733 143.8551798  38.5579532
 119.5249992 144.2829978  20.7960014 119.5899992 143.4889978  21.3260014
 120.1779992 144.1649978  20.1060014 119.6221605 144.1583430  20.7752997
 121.8389992 143.9089978  38.0960014 121.5109992 144.1799978  37.2390014
 121.9909992 142.9679978  38.0080014 121.8146412 143.8189046  37.9667822
 124.8779992 145.3299978  20.5320014 124.6089992 145.5109978  21.4320014
 124.6709992 144.4049978  20.4000014 124.8131191 145.2297119  20.6375524
 127.5739992 143.8249978  35.4790014 128.3189992 144.4139978  35.3600014
 126.8169992 144.4069978  35.5430014 127.5735470 143.9842128  35.4713799
 116.0169992 141.1399978  38.0830014 116.4249992 140.2829978  37.9620014
 115.7559992 141.1539978  39.0040014 116.0376016 141.0245119  38.1909192
 120.6749992 142.2559978  23.1020014 120.2149992 141.7719978  23.7870014
 120.9299992 141.5869978  22.4660014 120.6464856 142.0993669  23.1098397
 119.9639992 140.1489978  35.4580014 119.3449992 140.8229978  35.7380014
 120.3079992 140.4699978  34.6240014 119.9257123 140.2846887  35.3836388
 121.7459992 140.4989978  21.3640014 121.5649992 140.3439978  20.4370014
 122.6959992 140.6069978  21.4090014 121.8496566 140.4923669  21.2430929
 124.9829992 142.6199978  38.7350014 125.9369992 142.7039978  38.7080014
 124.8229992 141.9079978  39.3550014 125.0917182 142.5352842  38.8150733
 131.1359992 142.8529978  20.8100014 130.8619992 142.4289978  19.9970014
 131.1749992 143.7849978  20.5930014 131.1037716 142.9208827  20.6694286
 120.3029992 137.5039978  36.5400014 120.4529992 136.7749978  35.9380014
 120.3049992 138.2809978  35.9810014 120.3237967 137.5092708  36.3820541
 120.7159992 135.8729978  34.0330014 121.2509992 136.3249978  33.3810014
 119.8629992 135.7649978  33.6100014 120.6740374 135.9202665  33.8866710
 122.2969992 141.3129978  34.2720014 123.0479992 141.1569978  33.6990014
 121.9579992 142.1649978  33.9970014 122.3539587 141.4068138  34.1564078
 126.7129992 139.1279978  39.3010014 126.9049992 138.1969978  39.1890014
 127.5709992 139.5529978  39.2900014 126.8552182 139.0580070  39.2841862
 128.0299992 141.9169978  37.3780014 127.7479992 142.6259978  36.8000014
 128.9719992 141.8439978  37.2270014 128.1187921 142.0042193  37.2784225
 118.7819992 138.7019978  38.4510014 118.0139992 138.1689978  38.2410014
 119.4599992 138.3919978  37.8520014 118.7687235 138.5871754  38.3412413
 121.5209992 133.3299978  34.4640014 121.4229992 134.2759978  34.3590014
 120.7789992 132.9569978  33.9880014 121.4072534 133.4091773  34.3852600
 122.7849992 137.6509978  38.0280014 122.5499992 137.4319978  38.9290014
 122.0019992 137.4439978  37.5180014 122.6469095 137.5929892  38.0825353
 125.5009992 136.7789978  37.1030014 124.5529992 136.8109978  37.2350014
 125.8129992 136.1529978  37.7570014 125.4135293 136.6987923  37.2094148
 127.1349992 135.4129978  39.1080014 127.0379992 134.4609978  39.1030014
 126.8129992 135.6809978  39.9690014 127.0782468 135.3190884  39.2236210
 116.9619992 136.6219978  38.1560014 117.1739992 135.9159978  37.5460014
 116.8509992 136.1849978  39.0000014 116.9760269 136.4661921  38.1865873
 121.7429992 132.6239978  37.1350014 122.4549992 131.9839978  37.1210014
 121.6419992 132.8899978  36.2220014 121.8267387 132.5724330  37.0095563
 122.0969992 134.3059978  39.1890014 121.9649992 133.8309978  38.3690014
 121.4969992 135.0509978  39.1340014 121.9979070 134.3415789  39.0693251
 130.2929992 145.4659978  39.2710014 129.4269992 145.3609978  39.6650014
 130.6689992 146.2239978  39.7170014 130.2253401 145.5541708  39.3852620
 131.5939992 143.7219978  24.7850014 132.4439992 144.1429978  24.9120014
 131.5989992 142.9819978  25.3920014 131.7111143 143.6796094  24.8844750
 131.9879992 141.7759978  26.6080014 131.2619992 141.2959978  27.0060014
 132.5699992 141.9809978  27.3410014 131.9672730 141.7380184  26.7614149
 131.7469992 144.5609978  31.5560014 132.5809992 144.1829978  31.2750014
 131.8589992 145.5039978  31.4370014 131.8761917 144.6367943  31.5014861
 132.2569992 141.6769978  22.9990014 131.7349992 142.0329978  22.2810014
 132.2239992 142.3519978  23.6780014 132.1810129 141.8169598  22.9923355
 130.6059992 138.9159978  21.5500014 130.7019992 139.5829978  20.8700014
 130.4659992 138.1009978  21.0690014 130.6002040 138.8970671  21.3918378
 129.7749992 140.2969978  27.1710014 129.6249992 139.3519978  27.1510014
 129.4209992 140.5779978  28.0150014 129.7066351 140.2056644  27.2823220
 114.8099992 142.3749978  31.1820014 114.9949992 142.2929978  30.2460014
 115.6599992 142.2509978  31.6050014 114.9500928 142.3470463  31.1112893
 130.6309992 142.2669978  36.8100014 131.2139992 141.5319978  37.0020014
 131.1949992 143.0389978  36.8570014 130.7869781 142.2708145  36.8426164
 132.1279992 140.1699978  37.4950014 131.2649992 139.7909978  37.3290014
 132.7319992 139.4309978  37.4200014 132.0916085 140.0183223  37.4621694
 129.8529992 136.3239978  20.6680014 130.4639992 135.9529978  21.3050014
 129.0159992 135.9029978  20.8640014 129.8234947 136.2162756  20.7817252
 129.4859992 137.8789978  25.6340014 129.7649992 136.9719978  25.7580014
 130.2449992 138.3129978  25.2450014 129.6268619 137.8134502  25.5983795
 130.0969992 138.4609978  31.0700014 131.0299992 138.6729978  31.0350014
 129.8619992 138.5619978  31.9920014 130.1929517 138.5036833  31.1899130
 130.1269992 139.1979978  33.8460014 129.2839992 139.4659978  34.2120014
 130.5689992 140.0199978  33.6350014 130.0714138 139.3458273  33.8675518
 114.4079992 137.6449978  37.3220014 115.3269992 137.5229978  37.5590014
 113.9579992 136.8949978  37.7120014 114.4730087 137.5269608  37.4071410
 132.4099992 133.1779978  39.1990014 132.7589992 132.5239978  38.5940014
 132.5569992 134.0149978  38.7590014 132.4776824 133.2016024  39.0566304
 130.0989992 135.1419978  25.6820014 130.2809992 134.6929978  26.5070014
 129.4989992 134.5579978  25.2180014 130.0428187 135.0015552  25.7322739
 115.6289992 135.9579978  30.2140014 116.0739992 135.1659978  30.5160014
 116.0949992 136.6739978  30.6440014 115.7529718 135.9464534  30.3135265
 113.9329992 138.9569978  31.2830014 114.4249992 138.7359978  30.4920014
 114.2949992 139.7969978  31.5640014 114.0492923 139.0403468  31.2127407
 131.9289992 135.2869978  37.5480014 131.0119992 135.5579978  37.5130014
 132.0519992 134.7519978  36.7640014 131.8199672 135.2517885  37.4371862
 131.9659992 135.2099978  22.2100014 132.3779992 134.4889978  21.7350014
 132.6469992 135.8789978  22.2680014 132.1145536 135.2017766  22.1528024
 114.2469992 135.2149978  25.3370014 113.3219992 135.4229978  25.2080014
 114.7009992 135.6989978  24.6470014 114.1816298 135.3089299  25.2260451
 114.2099992 133.9529978  33.6810014 113.5449992 133.7069978  34.3240014
 113.7669992 134.5749978  33.1040014 114.0591168 134.0034214  33.6909848
 130.9299992 133.3769978  35.3670014 130.1169992 133.7019978  34.9800014
 131.1629992 132.6159978  34.8340014 130.8501347 133.3186880  35.2419841
 124.3599992 134.8259978  29.6900014 123.6859992 134.1959978  29.9460014
 124.9239992 134.3419978  29.0870014 124.3440384 134.6743708  29.6435020
 129.5029992 132.9329978  29.8030014 130.1059992 133.4809978  29.3010014
 128.6329992 133.2519978  29.5620014 129.4679157 133.0510373  29.7017910
 131.2299992 134.0719978  28.1360014 131.8409992 133.5579978  27.6090014
 131.6119992 134.9489978  28.1590014 131.3653305 134.1202050  28.0669418
 116.6869992 133.4599978  27.5120014 115.9099992 133.2249978  27.0050014
 117.2169992 132.6629978  27.5210014 116.6523451 133.3201268  27.4438627
 115.5229992 133.2579978  23.3160014 115.9619992 133.8689978  22.7240014
 114.8889992 133.7959978  23.7900014 115.4973859 133.4144064  23.2990305
 121.2659992 133.3859978  27.3250014 122.1399992 133.7749978  27.2960014
 121.1299992 133.1709978  28.2480014 121.3671953 133.4101643  27.4457617
 126.8229992 133.4159978  28.9750014 126.8989992 133.5119978  28.0250014
 126.5479992 132.5089978  29.1030014 126.7961871 133.3064146  28.8623944
 128.1759992 133.4419978  24.6670014 127.4729992 134.0569978  24.4570014
 127.7309992 132.6049978  24.7980014 128.0196550 133.4129668  24.6559837
 117.3839992 135.1739978  21.7580014 117.8749992 134.5439978  21.2310014
 118.0069992 135.4699978  22.4210014 117.5355304 135.1277376  21.7754940
 122.4099992 135.4669978  24.2150014 122.5879992 134.8199978  24.8980014
 122.3559992 136.3009978  24.6820014 122.4270678 135.4911604  24.3716301
 116.6439992 133.9739978  37.0300014 116.2779992 133.2079978  37.4720014
 117.5569992 134.0029978  37.3160014 116.7173172 133.8730324  37.1291890
 118.6169992 133.3239978  38.5650014 119.5159992 133.0499978  38.3810014
 118.2309992 132.5819978  39.0300014 118.6877307 133.1862196  38.6027098
 127.0389992 132.6569978  38.7480014 127.1149992 132.2309978  39.6010014
 127.9319992 132.6699978  38.4050014 127.1702303 132.6003493  38.8185497
 144.6209992 142.6159978  27.4710014 144.7099992 143.5599978  27.3390014
 143.9829992 142.3409978  26.8130014 144.5469062 142.7079812  27.3639641
 143.5539992 141.8709978  30.8900014 143.5159992 141.2249978  31.5950014
 143.2319992 141.4039978  30.1190014 143.5052679 141.7194276  30.8822921
 135.9219992 141.4849978  32.4830014 135.9639992 140.8599978  33.2060014
 136.6249992 142.1089978  32.6650014 136.0227345 141.4837873  32.6065274
 133.4559992 139.5949978  26.4100014 133.0079992 140.4409978  26.3920014
 132.8949992 139.0159978  25.8950014 133.3188546 139.6323993  26.3378891
 134.1659992 141.7569978  28.5360014 134.3799992 140.9869978  29.0640014
 134.9039992 141.8469978  27.9330014 134.2950200 141.6638587  28.5267035
 141.9429992 144.3029978  31.2960014 142.2469992 143.6169978  30.7010014
 142.6649992 144.4219978  31.9140014 142.0821240 144.2252314  31.2980959
 145.0839992 138.6969978  31.6230014 145.2269992 137.7509978  31.6430014
 144.9779992 138.9039978  30.6950014 145.0892403 138.5954797  31.5002239
 138.2389992 136.7989978  28.8960014 138.2819992 137.6589978  28.4770014
 137.7809992 136.2469978  28.2620014 138.1829871 136.8419245  28.7530761
 134.8589992 139.1959978  29.6580014 135.5129992 138.6459978  30.0900014
 134.8829992 138.9219978  28.7410014 134.9517199 139.0837167  29.5931668
 140.0159992 140.7459978  28.8730014 140.6319992 140.2189978  29.3820014
 139.4289992 140.1059978  28.4690014 140.0210154 140.5873954  28.8880945
 137.0489992 135.7169978  32.9700014 136.8299992 136.2469978  32.2030014
 136.3809992 135.9429978  33.6170014 136.9286975 135.8200967  32.9525140
 144.4179992 145.2169978  26.5140014 144.1229992 144.8939978  25.6620014
 144.0939992 146.1169978  26.5550014 144.3338460 145.2944464  26.4029714
 139.6179992 143.3919978  33.2570014 138.8779992 143.9909978  33.3610014
 140.3319992 143.9459978  32.9420014 139.6133500 143.5487829  33.2286371
 136.6429992 137.6089978  30.9220014 137.2569992 138.2419978  31.2950014
 137.1549992 137.1369978  30.2660014 136.7961962 137.6317249  30.8842935
 138.0259992 145.3569978  34.0440014 138.0199992 146.2359978  33.6660014
 137.1719992 145.2729978  34.4690014 137.9097925 145.4659535  34.0496887
 134.1469992 145.0279978  24.8260014 133.8749992 145.2569978  23.9380014
 134.1919992 145.8649978  25.2870014 134.1158097 145.1726163  24.7666683
 141.0759992 133.0219978  30.4220014 140.9579992 132.0739978  30.3680014
 140.2209992 133.3549978  30.6950014 140.9442805 132.9372202  30.4515079
 143.3419992 141.8599978  24.9230014 142.6309992 142.3949978  24.5710014
 144.0329992 141.9149978  24.2630014 143.3380751 141.9406777  24.7855858
 143.3959992 140.3169978  21.9610014 144.0969992 140.3399978  22.6130014
 143.6979992 139.6889978  21.3050014 143.5328202 140.2352212  21.9615609
 138.3929992 142.6999978  27.7570014 138.0629992 142.3289978  26.9390014
 138.9819992 142.0289978  28.1040014 138.4273970 142.5586063  27.6919404
 138.7599992 141.4679978  31.3900014 139.3249992 141.5899978  30.6280014
 139.0789992 142.1059978  32.0290014 138.8804166 141.5708791  31.3720348
 136.5599992 142.0659978  35.3360014 136.6299992 142.7169978  36.0350014
 135.6689992 142.1689978  35.0010014 136.4491690 142.1689249  35.3863043
 137.3839992 141.7689978  25.3460014 137.0919992 142.5369978  24.8550014
 136.7089992 141.1099978  25.1830014 137.2528497 141.7849745  25.2568260
 133.4769992 144.1319978  34.1610014 132.9749992 144.1039978  33.3460014
 133.4819992 143.2269978  34.4710014 133.4089832 144.0057486  34.0914121
 135.7259992 145.4559978  35.2040014 135.9419992 145.0939978  36.0640014
 134.8699992 145.0809978  34.9950014 135.6398810 145.3558837  35.2932680
 138.3439992 133.9259978  31.2000014 137.4829992 133.8389978  30.7920014
 138.3219992 134.7819978  31.6280014 138.2230491 134.0298003  31.2019582
 143.0069992 133.6479978  34.5750014 143.4269992 133.2329978  35.3280014
 142.0739992 133.4689978  34.6920014 142.9383736 133.5669910  34.6938968
 142.6689992 136.1399978  21.8600014 142.4149992 136.1589978  22.7820014
 142.4119992 135.2689978  21.5580014 142.5994508 136.0248280  21.9454803
 138.4349992 138.8909978  32.2950014 137.7939992 138.8509978  33.0040014
 138.4729992 139.8179978  32.0570014 138.3523010 139.0107668  32.3599946
 138.4319992 139.1119978  27.2070014 137.5399992 138.7719978  27.1480014
 138.8829992 138.7349978  26.4510014 138.3707642 139.0144910  27.0967726
 143.9679992 139.5279978  26.0240014 143.5589992 140.3429978  25.7320014
 144.6879992 139.3879978  25.4100014 144.0094439 139.6205372  25.9010115
 143.0699992 139.7039978  37.5120014 142.5069992 138.9989978  37.8330014
 143.8959992 139.5829978  37.9800014 143.1046674 139.5912165  37.6191751
 144.9729992 138.9739978  28.8380014 144.7769992 139.5799978  28.1230014
 145.1539992 138.1409978  28.4040014 144.9706584 138.9442513  28.6814212
 136.1849992 139.2119978  34.1620014 136.1469992 139.6119978  35.0310014
 135.6949992 138.3949978  34.2520014 136.1135330 139.1562674  34.2931289
 139.5509992 136.5859978  20.9610014 139.1199992 136.1409978  21.6900014
 138.8329992 136.9569978  20.4480014 139.3949176 136.5752051  20.9914930
 132.7939992 136.3279978  28.0130014 133.4239992 136.2989978  28.7320014
 133.2429992 135.9029978  27.2820014 132.9410835 136.2665660  28.0127659
 134.0679992 137.0739978  23.4370014 134.5419992 137.6649978  22.8520014
 133.3499992 137.6039978  23.7840014 134.0358640 137.2265511  23.4037969
 144.2369992 140.6119978  33.5090014 144.5599992 139.9809978  32.8660014
 143.7959992 140.0779978  34.1700014 144.2216379 140.4533468  33.5102582
 141.0139992 136.5399978  28.2930014 140.1029992 136.5969978  28.5820014
 141.5189992 136.4799978  29.1040014 140.9576873 136.5396826  28.4421207
 135.8419992 138.1689978  27.1200014 134.9529992 138.2679978  26.7800014
 136.1389992 137.3269978  26.7740014 135.7604177 138.0687687  27.0266940
 139.4949992 138.1689978  24.7770014 140.4269992 138.2979978  24.9550014
 139.2799992 138.8379978  24.1270014 139.5934472 138.2770806  24.7134891
 145.4189992 135.7749978  31.5580014 144.7419992 135.9059978  32.2210014
 144.9339992 135.6199978  30.7470014 145.2607405 135.7719947  31.5392170
 138.1689992 139.3629978  22.3430014 137.6269992 138.9839978  21.6520014
 139.0029992 139.5579978  21.9150014 138.2074390 139.3374079  22.1904392
 136.3049992 143.9199978  37.4420014 137.0369992 144.1749978  38.0040014
 135.5239992 144.1249978  37.9580014 136.2996526 143.9825450  37.5885176
 142.3339992 139.3269978  30.1800014 142.8979992 138.7809978  29.6330014
 142.1859992 138.8059978  30.9690014 142.3913037 139.1816787  30.2117229
 137.3359992 135.4639978  26.5990014 137.0189992 134.5609978  26.5630014
 138.1169992 135.4659978  26.0460014 137.3982431 135.3407797  26.5193102
 140.9599992 137.7159978  32.5940014 140.1249992 138.1699978  32.7050014
 141.4839992 137.9919978  33.3460014 140.9166072 137.8153948  32.7108136
 141.5049992 143.9289978  24.2790014 140.7599992 143.4209978  23.9570014
 141.3699992 143.9779978  25.2250014 141.3848963 143.8661731  24.3628826
 145.4019992 136.7429978  22.4780014 144.4639992 136.8539978  22.3270014
 145.6999992 137.5989978  22.7850014 145.3136318 136.8740158  22.4988145
 143.0239992 144.1129978  35.5160014 142.6779992 143.7309978  36.3230014
 142.8239992 145.0459978  35.5870014 142.9495987 144.1869002  35.6360461
 136.6289992 143.2239978  30.0490014 137.3739992 143.2209978  29.4470014
 136.7069992 142.3999978  30.5300014 136.7413365 143.1122384  30.0317430
 143.6299992 145.3869978  23.3040014 143.3349992 146.2139978  23.6860014
 142.9269992 144.7679978  23.5010014 143.4946379 145.4164171  23.3828654
 133.6369992 141.6839978  35.3640014 133.8599992 141.2659978  36.1950014
 133.0349992 141.0719978  34.9410014 133.5861513 141.5439606  35.4206740
 140.6539992 141.2009978  37.5770014 140.3579992 141.0359978  36.6810014
 141.5849992 140.9809978  37.5660014 140.7394401 141.1486879  37.4530206
 134.7589992 141.6039978  22.0400014 135.3749992 142.2309978  22.4200014
 133.8969992 141.9199978  22.3120014 134.7267678 141.7324412  22.1287209
 140.4319992 144.4049978  27.0290014 140.1909992 145.3299978  27.0710014
 139.6909992 143.9459978  27.4260014 140.2989206 144.4695915  27.0883769
 144.4899992 144.6529978  33.0450014 144.0649992 144.4249978  33.8710014
 145.0709992 143.9139978  32.8630014 144.5103395 144.5219545  33.1334414
 135.2709992 136.4379978  34.9220014 134.3789992 136.7759978  34.8540014
 135.1729992 135.5819978  35.3400014 135.1354475 136.3686543  34.9691704
 136.1739992 143.5159978  23.5330014 135.4879992 143.8689978  24.1000014
 136.6969992 144.2789978  23.2860014 136.1508402 143.6673901  23.5771801
 144.0059992 136.1789978  33.8120014 144.7049992 136.2529978  34.4620014
 143.6249992 135.3139978  33.9660014 144.0502097 136.0722389  33.9217997
 144.7899992 135.8309978  24.9090014 145.0099992 136.3019978  24.1050014
 145.3489992 136.2249978  25.5790014 144.8956731 135.9487287  24.8895033
 141.9899992 137.5589978  25.7440014 142.8019992 138.0629978  25.7900014
 141.7459992 137.4139978  26.6580014 142.0681467 137.6083749  25.8738575
 142.5259992 138.5449978  34.9280014 142.6449992 139.1189978  35.6850014
 143.1809992 137.8569978  35.0430014 142.6308684 138.5305194  35.0471674
 142.8739992 134.6399978  26.6820014 142.5269992 135.2569978  27.3260014
 143.5329992 135.1409978  26.2000014 142.9155090 134.7921575  26.7050681
 138.5319992 135.7029978  23.3690014 138.4479992 136.5909978  23.7160014
 139.4219992 135.4379978  23.6010014 138.6408163 135.7887179  23.4478596
 135.1059992 138.7949978  21.5450014 135.0609992 139.7339978  21.7240014
 134.2179992 138.5589978  21.2760014 134.9798166 138.8916687  21.5331524
 135.9139992 133.5759978  30.2190014 135.6849992 133.6349978  29.2910014
 135.4719992 132.7849978  30.5250014 135.8228801 133.4770540  30.1334729
 134.0399992 143.9399978  38.6630014 134.1839992 143.0379978  38.3770014
 133.2679992 144.2259978  38.1760014 133.9552733 143.8551798  38.5579532
 138.3809992 144.2829978  20.7960014 138.4459992 143.4889978  21.3260014
 139.0339992 144.1649978  20.1060014 138.4781605 144.1583430  20.7752997
 140.6949992 143.9089978  38.0960014 140.3669992 144.1799978  37.2390014
 140.8469992 142.9679978  38.0080014 140.6706412 143.8189046  37.9667822
 143.7339992 145.3299978  20.5320014 143.4649992 145.5109978  21.4320014
 143.5269992 144.4049978  20.4000014 143.6691191 145.2297119  20.6375524
 134.8729992 141.1399978  38.0830014 135.2809992 140.2829978  37.9620014
 134.6119992 141.1539978  39.0040014 134.8936016 141.0245119  38.1909192
 139.5309992 142.2559978  23.1020014 139.0709992 141.7719978  23.7870014
 139.7859992 141.5869978  22.4660014 139.5024856 142.0993669  23.1098397
 138.8199992 140.1489978  35.4580014 138.2009992 140.8229978  35.7380014
 139.1639992 140.4699978  34.6240014 138.7817123 140.2846887  35.3836388
 140.6019992 140.4989978  21.3640014 140.4209992 140.3439978  20.4370014
 141.5519992 140.6069978  21.4090014 140.7056566 140.4923669  21.2430929
 143.8389992 142.6199978  38.7350014 144.7929992 142.7039978  38.7080014
 143.6789992 141.9079978  39.3550014 143.9477182 142.5352842  38.8150733
 139.1589992 137.5039978  36.5400014 139.3089992 136.7749978  35.9380014
 139.1609992 138.2809978  35.9810014 139.1797967 137.5092708  36.3820541
 139.5719992 135.8729978  34.0330014 140.1069992 136.3249978  33.3810014
 138.7189992 135.7649978  33.6100014 139.5300374 135.9202665  33.8866710
 141.1529992 141.3129978  34.2720014 141.9039992 141.1569978  33.6990014
 140.8139992 142.1649978  33.9970014 141.2099587 141.4068138  34.1564078
 145.5689992 139.1279978  39.3010014 145.7609992 138.1969978  39.1890014
 146.4269992 139.5529978  39.2900014 145.7112182 139.0580070  39.2841862
 137.6379992 138.7019978  38.4510014 136.8699992 138.1689978  38.2410014
 138.3159992 138.3919978  37.8520014 137.6247235 138.5871754  38.3412413
 140.3769992 133.3299978  34.4640014 140.2789992 134.2759978  34.3590014
 139.6349992 132.9569978  33.9880014 140.2632534 133.4091773  34.3852600
 141.6409992 137.6509978  38.0280014 141.4059992 137.4319978  38.9290014
 140.8579992 137.4439978  37.5180014 141.5029095 137.5929892  38.0825353
 144.3569992 136.7789978  37.1030014 143.4089992 136.8109978  37.2350014
 144.6689992 136.1529978  37.7570014 144.2695293 136.6987923  37.2094148
 135.8179992 136.6219978  38.1560014 136.0299992 135.9159978  37.5460014
 135.7069992 136.1849978  39.0000014 135.8320269 136.4661921  38.1865873
 140.5989992 132.6239978  37.1350014 141.3109992 131.9839978  37.1210014
 140.4979992 132.8899978  36.2220014 140.6827387 132.5724330  37.0095563
 140.9529992 134.3059978  39.1890014 140.8209992 133.8309978  38.3690014
 140.3529992 135.0509978  39.1340014 140.8539070 134.3415789  39.0693251
 133.6659992 142.3749978  31.1820014 133.8509992 142.2929978  30.2460014
 134.5159992 142.2509978  31.6050014 133.8060928 142.3470463  31.1112893
 133.2639992 137.6449978  37.3220014 134.1829992 137.5229978  37.5590014
 132.8139992 136.8949978  37.7120014 133.3290087 137.5269608  37.4071410
 134.4849992 135.9579978  30.2140014 134.9299992 135.1659978  30.5160014
 134.9509992 136.6739978  30.6440014 134.6089718 135.9464534  30.3135265
 132.7889992 138.9569978  31.2830014 133.2809992 138.7359978  30.4920014
 133.1509992 139.7969978  31.5640014 132.9052923 139.0403468  31.2127407
 133.1029992 135.2149978  25.3370014 132.1779992 135.4229978  25.2080014
 133.5569992 135.6989978  24.6470014 133.0376298 135.3089299  25.2260451
 133.0659992 133.9529978  33.6810014 132.4009992 133.7069978  34.3240014
 132.6229992 134.5749978  33.1040014 132.9151168 134.0034214  33.6909848
 143.2159992 134.8259978  29.6900014 142.5419992 134.1959978  29.9460014
 143.7799992 134.3419978  29.0870014 143.2000384 134.6743708  29.6435020
 135.5429992 133.4599978  27.5120014 134.7659992 133.2249978  27.0050014
 136.0729992 132.6629978  27.5210014 135.5083451 133.3201268  27.4438627
 134.3789992 133.2579978  23.3160014 134.8179992 133.8689978  22.7240014
 133.7449992 133.7959978  23.7900014 134.3533859 133.4144064  23.2990305
 140.1219992 133.3859978  27.3250014 140.9959992 133.7749978  27.2960014
 139.9859992 133.1709978  28.2480014 140.2231953 133.4101643  27.4457617
 136.2399992 135.1739978  21.7580014 136.7309992 134.5439978  21.2310014
 136.8629992 135.4699978  22.4210014 136.3915304 135.1277376  21.7754940
 141.2659992 135.4669978  24.2150014 141.4439992 134.8199978  24.8980014
 141.2119992 136.3009978  24.6820014 141.2830678 135.4911604  24.3716301
 135.4999992 133.9739978  37.0300014 135.1339992 133.2079978  37.4720014
 136.4129992 134.0029978  37.3160014 135.5733172 133.8730324  37.1291890
 137.4729992 133.3239978  38.5650014 138.3719992 133.0499978  38.3810014
 137.0869992 132.5819978  39.0300014 137.5437307 133.1862196  38.6027098
  12.6289992  10.6239978  46.3270014  12.7179992  11.5679978  46.1950014
  11.9909992  10.3489978  45.6690014  12.5549062  10.7159812  46.2199641
  11.5619992   9.8789978  49.7460014  11.5239992   9.2329978  50.4510014
  11.2399992   9.4119978  48.9750014  11.5132679   9.7274276  49.7382921
   3.9299992   9.4929978  51.3390014   3.9719992   8.8679978  52.0620014
   4.6329992  10.1169978  51.5210014   4.0307345   9.4917873  51.4625274
  15.2679992  12.8179978  48.0470014  14.8269992  12.0979978  48.4980014
  15.2549992  13.5389978  48.6770014  15.2059215  12.8169291  48.1938105
   4.8539992  13.9429978  49.8740014   4.4839992  13.1409978  49.5040014
   5.7949992  13.7749978  49.9200014   4.9305984  13.8104638  49.8295603
   1.4639992   7.6029978  45.2660014   1.0159992   8.4489978  45.2480014
   0.9029992   7.0239978  44.7510014   1.3268546   7.6403993  45.1938891
   2.1739992   9.7649978  47.3920014   2.3879992   8.9949978  47.9200014
   2.9119992   9.8549978  46.7890014   2.3030200   9.6718587  47.3827035
  12.3799992  17.9219978  48.2590014  12.9989992  17.2459978  47.9860014
  12.1709992  17.7039978  49.1680014  12.4366056  17.7998869  48.3443967
   9.9509992  12.3109978  50.1520014  10.2549992  11.6249978  49.5570014
  10.6729992  12.4299978  50.7700014  10.0901240  12.2332314  50.1540959
  18.6139992   3.9129978  51.0120014  18.6639992   4.5229978  51.7480014
  19.0399992   4.3739978  50.2890014  18.6784108   4.0587709  51.0150112
  13.0919992   6.7049978  50.4790014  13.2349992   5.7589978  50.4990014
  12.9859992   6.9119978  49.5510014  13.0972403   6.6034797  50.3562239
   6.2469992   4.8069978  47.7520014   6.2899992   5.6669978  47.3330014
   5.7889992   4.2549978  47.1180014   6.1909871   4.8499245  47.6090761
  13.9689992   4.9379978  46.1530014  14.6159992   4.6089978  46.7770014
  14.4789992   5.4549978  45.5300014  14.1264351   4.9629067  46.1541037
   2.8669992   7.2039978  48.5140014   3.5209992   6.6539978  48.9460014
   2.8909992   6.9299978  47.5970014   2.9597199   7.0917167  48.4491668
   8.0239992   8.7539978  47.7290014   8.6399992   8.2269978  48.2380014
   7.4369992   8.1139978  47.3250014   8.0290154   8.5953954  47.7440945
  19.0059992   5.3909978  53.2480014  18.3169992   6.0489978  53.1530014
  19.0209992   5.1929978  54.1850014  18.9137756   5.4542603  53.3615812
   5.0569992   3.7249978  51.8260014   4.8379992   4.2549978  51.0590014
   4.3889992   3.9509978  52.4730014   4.9366975   3.8280967  51.8085140
  12.4259992  13.2249978  45.3700014  12.1309992  12.9019978  44.5180014
  12.1019992  14.1249978  45.4110014  12.3418460  13.3024464  45.2589714
   7.6259992  11.3999978  52.1130014   6.8859992  11.9989978  52.2170014
   8.3399992  11.9539978  51.7980014   7.6213500  11.5567829  52.0846371
  15.7329992   4.2289978  48.1330014  15.5179992   3.4629978  48.6660014
  16.3889992   4.7009978  48.6460014  15.7922673   4.1880728  48.2751990
   4.6509992   5.6169978  49.7780014   5.2649992   6.2499978  50.1510014
   5.1629992   5.1449978  49.1220014   4.8041962   5.6397249  49.7402935
   6.0339992  13.3649978  52.9000014   6.0279992  14.2439978  52.5220014
   5.1799992  13.2809978  53.3250014   5.9177925  13.4739535  52.9056887
   2.1549992  13.0359978  43.6820014   1.8829992  13.2649978  42.7940014
   2.1999992  13.8729978  44.1430014   2.1238097  13.1806163  43.6226683
  15.7799992  14.6569978  50.3950014  14.8379992  14.7159978  50.5570014
  16.0559992  15.5629978  50.2580014  15.6885865  14.7875288  50.3986192
  16.0799992   2.9439978  51.8120014  15.3439992   3.5539978  51.7750014
  16.7639992   3.3589978  51.2860014  16.0715367   3.0837551  51.7358174
   9.0839992   1.0299978  49.2780014   8.9659992   0.0819978  49.2240014
   8.2289992   1.3629978  49.5510014   8.9522805   0.9452202  49.3075079
  14.0319992  16.4379978  47.0200014  14.4569992  15.7309978  46.5350014
  14.3489992  17.2399978  46.6030014  14.1330266  16.4495190  46.8972479
  15.1919992  14.3389978  45.5290014  14.9339992  13.6489978  44.9170014
  15.2629992  13.8959978  46.3740014  15.1663050  14.1846814  45.5595621
  16.8779992  12.9059978  54.0060014  17.0169992  12.3139978  53.2670014
  17.0449992  13.7789978  53.6500014  16.9196193  12.9428896  53.8566211
  11.3499992   9.8679978  43.7790014  10.6389992  10.4029978  43.4270014
  12.0409992   9.9229978  43.1190014  11.3460751   9.9486777  43.6415858
  11.4039992   8.3249978  40.8170014  12.1049992   8.3479978  41.4690014
  11.7059992   7.6969978  40.1610014  11.5408202   8.2432212  40.8175609
  18.7189992   9.2459978  52.0720014  18.0669992   9.9399978  52.1610014
  19.1849992   9.4559978  51.2620014  18.6925937   9.3695019  51.9747533
  14.7559992  10.0769978  44.7300014  14.0239992  10.3059978  45.3040014
  15.2029992   9.3639978  45.1850014  14.7163963  10.0118729  44.8699945
  14.6529992   8.2519978  53.7980014  14.7329992   9.0149978  54.3700014
  14.0519992   8.5309978  53.1080014  14.5826547   8.3942457  53.7830047
   6.4009992  10.7079978  46.6130014   6.0709992  10.3369978  45.7950014
   6.9899992  10.0369978  46.9600014   6.4353970  10.5666063  46.5479404
   7.7679992  14.1359978  49.2940014   7.6729992  13.5569978  48.5380014
   8.4969992  13.7649978  49.7900014   7.8536011  14.0065561  49.2576028
   6.7679992   9.4759978  50.2460014   7.3329992   9.5979978  49.4840014
   7.0869992  10.1139978  50.8850014   6.8884166   9.5788791  50.2280348
  13.0769992  14.9799978  50.9800014  12.8369992  15.6419978  51.6280014
  12.8789992  14.1449978  51.4050014  13.0173826  14.9578115  51.1261566
   7.6479992  13.8759978  54.9640014   7.3369992  14.6579978  55.4190014
   6.9979992  13.7229978  54.2780014   7.5175538  13.9624087  54.9335898
  13.6269992   9.2399978  42.4160014  14.2059992   9.3899978  43.1620014
  14.0409992   9.7099978  41.6920014  13.7623358   9.3240955  42.4203953
   4.5679992  10.0739978  54.1920014   4.6379992  10.7249978  54.8910014
   3.6769992  10.1769978  53.8570014   4.4571690  10.1769249  54.2423043
  11.3529992  15.9759978  45.8510014  11.8269992  16.2719978  46.6280014
  10.7899992  16.7149978  45.6180014  11.3417890  16.1163036  45.9258101
   5.8869992  15.9469978  55.7270014   5.8949992  15.8109978  54.7800014
   4.9709992  15.8299978  55.9790014   5.7642528  15.9125463  55.6313243
  17.3259992   0.9899978  42.2290014  16.4259992   1.1289978  42.5240014
  17.5779992   1.8209978  41.8270014  17.2368683   1.1214055  42.2150232
   5.3919992   9.7769978  44.2020014   5.0999992  10.5449978  43.7110014
   4.7169992   9.1179978  44.0390014   5.2608497   9.7929745  44.1128260
  18.5149992  15.3559978  40.6050014  18.5879992  16.2949978  40.7750014
  19.4199992  15.0509978  40.5490014  18.6474170  15.4433282  40.6207063
   1.4849992  12.1399978  53.0170014   0.9829992  12.1119978  52.2020014
   1.4899992  11.2349978  53.3270014   1.4169832  12.0137486  52.9474121
   1.2349992  14.9209978  49.9010014   2.1809992  14.7759978  49.8820014
   1.1219992  15.7049978  50.4380014   1.3493578  15.0071697  49.9710317
  19.4329992  15.5869978  55.5840014  19.3829992  14.6309978  55.5460014
  18.6059992  15.8539978  55.9850014  19.3143831  15.4924680  55.6330121
  10.4109992  15.1609978  54.4600014  10.4989992  15.9869978  54.9350014
   9.5479992  14.8309978  54.7090014  10.3063357  15.2295468  54.5587653
  10.8259992  18.9329978  44.2660014  10.7499992  18.8119978  43.3190014
  10.8579992  19.8819978  44.3840014  10.8199380  19.0447677  44.1525181
   4.4789992  17.7219978  46.0470014   4.6309992  17.3739978  46.9250014
   3.6279992  17.3649978  45.7910014   4.3848344  17.6260879  46.1326868
  13.9269992  18.0869978  41.2680014  14.3019992  17.3429978  40.7970014
  13.9319992  17.8169978  42.1860014  13.9790098  17.9486392  41.3276629
  13.5959992  18.0129978  44.0170014  12.6609992  18.1129978  44.1960014
  13.8759992  17.3029978  44.5960014  13.5059471  17.9307933  44.1196695
  16.5849992   7.0799978  56.0640014  16.1769992   7.5599978  55.3430014
  16.6249992   6.1739978  55.7560014  16.5346221   7.0232449  55.9238267
   3.7339992  13.4639978  54.0600014   3.9499992  13.1019978  54.9200014
   2.8779992  13.0889978  53.8510014   3.6478810  13.3638837  54.1492680
   6.3519992   1.9339978  50.0560014   5.4909992   1.8469978  49.6480014
   6.3299992   2.7899978  50.4840014   6.2310491   2.0378003  50.0579582
  11.0149992   1.6559978  53.4310014  11.4349992   1.2409978  54.1840014
  10.0819992   1.4769978  53.5480014  10.9463736   1.5749910  53.5498968
  14.3419992   5.4109978  54.2840014  13.8279992   5.2859978  55.0820014
  14.1859992   6.3239978  54.0400014  14.2506967   5.5172123  54.3600937
  15.1039992  10.2719978  40.0450014  15.1459992  10.0499978  39.1150014
  15.9529992  10.6709978  40.2350014  15.2245253  10.2955498  39.9433822
  10.6769992   4.1479978  40.7160014  10.4229992   4.1669978  41.6380014
  10.4199992   3.2769978  40.4140014  10.6074508   4.0328280  40.8014803
   6.4429992   6.8989978  51.1510014   5.8019992   6.8589978  51.8600014
   6.4809992   7.8259978  50.9130014   6.3603010   7.0187668  51.2159946
   6.4399992   7.1199978  46.0630014   5.5479992   6.7799978  46.0040014
   6.8909992   6.7429978  45.3070014   6.3787642   7.0224910  45.9527726
  11.9759992   7.5359978  44.8800014  11.5669992   8.3509978  44.5880014
  12.6959992   7.3959978  44.2660014  12.0174439   7.6285372  44.7570115
  11.0779992   7.7119978  56.3680014  10.5149992   7.0069978  56.6890014
  11.9039992   7.5909978  56.8360014  11.1126674   7.5992165  56.4751751
  12.9809992   6.9819978  47.6940014  12.7849992   7.5879978  46.9790014
  13.1619992   6.1489978  47.2600014  12.9786584   6.9522513  47.5374212
   4.1929992   7.2199978  53.0180014   4.1549992   7.6199978  53.8870014
   3.7029992   6.4029978  53.1080014   4.1215330   7.1642674  53.1491289
   7.5589992   4.5939978  39.8170014   7.1279992   4.1489978  40.5460014
   6.8409992   4.9649978  39.3040014   7.4029176   4.5832051  39.8474930
   0.8019992   4.3359978  46.8690014   1.4319992   4.3069978  47.5880014
   1.2509992   3.9109978  46.1380014   0.9490835   4.2745660  46.8687659
   2.0759992   5.0819978  42.2930014   2.5499992   5.6729978  41.7080014
   1.3579992   5.6119978  42.6400014   2.0438640   5.2345511  42.2597969
  12.2449992   8.6199978  52.3650014  12.5679992   7.9889978  51.7220014
  11.8039992   8.0859978  53.0260014  12.2296379   8.4613468  52.3662582
   9.0219992   4.5479978  47.1490014   8.1109992   4.6049978  47.4380014
   9.5269992   4.4879978  47.9600014   8.9656873   4.5476826  47.2981207
   3.8499992   6.1769978  45.9760014   2.9609992   6.2759978  45.6360014
   4.1469992   5.3349978  45.6300014   3.7684177   6.0767687  45.8826940
   7.5029992   6.1769978  43.6330014   8.4349992   6.3059978  43.8110014
   7.2879992   6.8459978  42.9830014   7.6014472   6.2850806  43.5694891
  13.4269992   3.7829978  50.4140014  12.7499992   3.9139978  51.0770014
  12.9419992   3.6279978  49.6030014  13.2687405   3.7799947  50.3952170
   6.1769992   7.3709978  41.1990014   5.6349992   6.9919978  40.5080014
   7.0109992   7.5659978  40.7710014   6.2154390   7.3454079  41.0464392
  16.7149992  19.4539978  56.6900014  16.9139992  19.8779978  55.8560014
  17.3699992  19.7979978  57.2970014  16.8308522  19.5586301  56.6577852
   4.3129992  11.9279978  56.2980014   5.0449992  12.1829978  56.8600014
   3.5319992  12.1329978  56.8140014   4.3076526  11.9905450  56.4445176
  10.3419992   7.3349978  49.0360014  10.9059992   6.7889978  48.4890014
  10.1939992   6.8139978  49.8250014  10.3993037   7.1896787  49.0677229
   5.3439992   3.4719978  45.4550014   5.0269992   2.5689978  45.4190014
   6.1249992   3.4739978  44.9020014   5.4062431   3.3487797  45.3753102
   8.9679992   5.7239978  51.4500014   8.1329992   6.1779978  51.5610014
   9.4919992   5.9999978  52.2020014   8.9246072   5.8233948  51.5668136
   9.5129992  11.9369978  43.1350014   8.7679992  11.4289978  42.8130014
   9.3779992  11.9859978  44.0810014   9.3928963  11.8741731  43.2188826
  16.6629992  11.0699978  51.9220014  17.3039992  11.5259978  51.3780014
  15.8319992  11.1829978  51.4590014  16.6385287  11.1476921  51.7849887
  13.4099992   4.7509978  41.3340014  12.4719992   4.8619978  41.1830014
  13.7079992   5.6069978  41.6410014  13.3216318   4.8820158  41.3548145
  11.0319992  12.1209978  54.3720014  10.6859992  11.7389978  55.1790014
  10.8319992  13.0539978  54.4430014  10.9575987  12.1949002  54.4920461
  14.1289992   6.6179978  42.9950014  15.0209992   6.4799978  43.3140014
  14.1849992   7.4089978  42.4580014  14.2587325   6.7059918  42.9661217
   4.6369992  11.2319978  48.9050014   5.3819992  11.2289978  48.3030014
   4.7149992  10.4079978  49.3860014   4.7493365  11.1202384  48.8877430
  11.6379992  13.3949978  42.1600014  11.3429992  14.2219978  42.5420014
  10.9349992  12.7759978  42.3570014  11.5026379  13.4244171  42.2388654
   1.6449992   9.6919978  54.2200014   1.8679992   9.2739978  55.0510014
   1.0429992   9.0799978  53.7970014   1.5941513   9.5519606  54.2766740
   8.6619992   9.2089978  56.4330014   8.3659992   9.0439978  55.5370014
   9.5929992   8.9889978  56.4220014   8.7474401   9.1566879  56.3090206
  13.2819992  14.5829978  54.3220014  12.3819992  14.7659978  54.0550014
  13.3159992  14.8419978  55.2430014  13.1633748  14.6430554  54.4099164
  19.0139992   6.8269978  42.6900014  18.4589992   6.4309978  42.0170014
  19.1139992   7.7379978  42.4120014  18.9516816   6.8959505  42.5605033
  18.9769992  12.6279978  55.5270014  18.1259992  12.8659978  55.1590014
  19.5669992  12.6109978  54.7740014  18.9403812  12.6582524  55.3748453
  17.3089992  15.6129978  43.1550014  16.9359992  14.7879978  43.4640014
  17.5859992  15.4299978  42.2570014  17.2953463  15.4752569  43.0759525
  14.4689992  10.4209978  50.1760014  13.5409992  10.1899978  50.1490014
  14.9199992   9.6439978  49.8460014  14.4028165  10.2842774  50.1276790
   7.0119992  14.7499978  46.3090014   7.5399992  15.5229978  46.1090014
   6.1319992  14.9739978  46.0070014   6.9653435  14.8862700  46.2407310
   2.7669992   9.6119978  40.8960014   3.3829992  10.2389978  41.2760014
   1.9049992   9.9279978  41.1680014   2.7347678   9.7404412  40.9847209
   8.4399992  12.4129978  45.8850014   8.1989992  13.3379978  45.9270014
   7.6989992  11.9539978  46.2820014   8.3069206  12.4775915  45.9443769
   8.9539992  16.5619978  52.2000014   9.3169992  17.4159978  51.9670014
   9.4859992  16.2699978  52.9410014   9.0755141  16.6393895  52.2682097
   7.1229992  17.4339978  45.4310014   6.1729992  17.5399978  45.4820014
   7.4749992  18.2549978  45.7750014   7.0405472  17.5594923  45.4844852
  12.4979992  12.6609978  51.9010014  12.0729992  12.4329978  52.7270014
  13.0789992  11.9219978  51.7190014  12.5183395  12.5299545  51.9894414
  14.7009992  13.5899978  40.9750014  15.0549992  13.2099978  41.7790014
  13.7529992  13.4959978  41.0620014  14.6212298  13.5252452  41.0968687
  15.1569992  17.2129978  54.3700014  14.5549992  16.6569978  53.8750014
  15.4379992  17.8799978  53.7440014  15.1125757  17.2270744  54.2175675
  19.2049992  18.0689978  41.1760014  19.9489992  18.6549978  41.0360014
  18.5109992  18.6379978  41.5090014  19.2129809  18.2260818  41.2018590
   3.2789992   4.4459978  53.7780014   2.3869992   4.7839978  53.7100014
   3.1809992   3.5899978  54.1960014   3.1434475   4.3766543  53.8251704
  15.5669992  12.2619978  43.2020014  15.2899992  11.5339978  43.7580014
  16.4949992  12.3809978  43.4070014  15.6544499  12.1784213  43.3058044
   2.9309992  16.2499978  52.2130014   3.1479992  15.3179978  52.1820014
   3.1769992  16.5249978  53.0960014   2.9939809  16.1595686  52.3281690
   8.7919992  14.7019978  39.4220014   9.0309992  13.9529978  38.8750014
   8.5229992  14.3139978  40.2550014   8.7883233  14.5471853  39.4597809
   7.7289992  14.2719978  41.8780014   7.8759992  13.7519978  42.6680014
   7.7259992  15.1789978  42.1850014   7.7487102  14.3233953  42.0275925
   4.1819992  11.5239978  42.3890014   3.4959992  11.8769978  42.9560014
   4.7049992  12.2869978  42.1420014   4.1588402  11.6753901  42.4331801
  12.0139992   4.1869978  52.6680014  12.7129992   4.2609978  53.3180014
  11.6329992   3.3219978  52.8220014  12.0582097   4.0802389  52.7777997
  12.7979992   3.8389978  43.7650014  13.0179992   4.3099978  42.9610014
  13.3569992   4.2329978  44.4350014  12.9036731   3.9567287  43.7455033
  10.4669992  15.9689978  42.6280014   9.6499992  16.4659978  42.6800014
  10.9959992  16.4449978  41.9870014  10.4268125  16.1011989  42.5485306
   9.9979992   5.5669978  44.6000014  10.8099992   6.0709978  44.6460014
   9.7539992   5.4219978  45.5140014  10.0761467   5.6163749  44.7298575
  10.5339992   6.5529978  53.7840014  10.6529992   7.1269978  54.5410014
  11.1889992   5.8649978  53.8990014  10.6388684   6.5385194  53.9031674
  10.8819992   2.6479978  45.5380014  10.5349992   3.2649978  46.1820014
  11.5409992   3.1489978  45.0560014  10.9235090   2.8001575  45.5610681
   7.8049992  17.0129978  42.6090014   7.9659992  17.8129978  42.1090014
   7.6079992  17.3199978  43.4940014   7.8003906  17.1638678  42.6602333
   6.5399992   3.7109978  42.2250014   6.4559992   4.5989978  42.5720014
   7.4299992   3.4459978  42.4570014   6.6488163   3.7967179  42.3038596
  16.7379992   4.4599978  54.6190014  15.8219992   4.7219978  54.5320014
  17.0739992   4.4569978  53.7230014  16.6578499   4.4955163  54.4858766
  15.3409992   8.2099978  48.7150014  14.5429992   7.7949978  48.3870014
  15.7859992   7.5199978  49.2060014  15.2919684   8.0598628  48.7365227
   4.7979992  14.1379978  41.2850014   5.3899992  14.8379978  41.5620014
   5.2569992  13.7049978  40.5660014   4.9411652  14.1752675  41.2256533
   3.1139992   6.8029978  40.4010014   3.0689992   7.7419978  40.5800014
   2.2259992   6.5669978  40.1320014   2.9878166   6.8996687  40.3891524
  16.4269992  17.4659978  50.3370014  16.2709992  18.1449978  49.6800014
  17.3599992  17.5379978  50.5400014  16.5317387  17.5686390  50.2745342
   3.9219992   1.5839978  49.0750014   3.6929992   1.6429978  48.1470014
   3.4799992   0.7929978  49.3810014   3.8308801   1.4850540  48.9894729
   2.8529992  15.5249978  45.2350014   2.0199992  15.9969978  45.2620014
   3.3979992  16.0349978  44.6360014   2.8127857  15.6584791  45.1577142
   2.1409992  18.1369978  56.5650014   2.6809992  17.9209978  57.3250014
   1.6599992  17.3319978  56.3750014   2.1499219  17.9985156  56.6434282
   6.7379992  17.0569978  58.1850014   7.5059992  16.5979978  58.5260014
   6.7169992  16.8309978  57.2550014   6.8402135  16.9636668  58.1059491
  10.8299992  16.5649978  39.5610014  10.1859992  15.9339978  39.8820014
  11.5919992  16.0339978  39.3290014  10.8448058  16.4067902  39.5736038
  13.3149992  15.4369978  56.9140014  12.9639992  14.5799978  57.1580014
  14.0409992  15.5789978  57.5210014  13.3651895  15.3391351  57.0293770
  15.4349992  16.3819978  39.7940014  15.7179992  15.5869978  40.2470014
  16.1739992  16.6149978  39.2330014  15.5737096  16.3047049  39.7801104
   2.0479992  11.9479978  57.5190014   2.1919992  11.0459978  57.2330014
   1.2759992  12.2339978  57.0320014   1.9632733  11.8631798  57.4139532
   6.3889992  12.2909978  39.6520014   6.4539992  11.4969978  40.1820014
   7.0419992  12.1729978  38.9620014   6.4861605  12.1663430  39.6312997
   8.7029992  11.9169978  56.9520014   8.3749992  12.1879978  56.0950014
   8.8549992  10.9759978  56.8640014   8.6786412  11.8269046  56.8227822
  11.7419992  13.3379978  39.3880014  11.4729992  13.5189978  40.2880014
  11.5349992  12.4129978  39.2560014  11.6771191  13.2377119  39.4935524
  14.4379992  11.8329978  54.3350014  15.1829992  12.4219978  54.2160014
  13.6809992  12.4149978  54.3990014  14.4375470  11.9922128  54.3273799
   2.8809992   9.1479978  56.9390014   3.2889992   8.2909978  56.8180014
   2.6199992   9.1619978  57.8600014   2.9016016   9.0325119  57.0469192
   7.5389992  10.2639978  41.9580014   7.0789992   9.7799978  42.6430014
   7.7939992   9.5949978  41.3220014   7.5104856  10.1073669  41.9658397
   6.8279992   8.1569978  54.3140014   6.2089992   8.8309978  54.5940014
   7.1719992   8.4779978  53.4800014   6.7897123   8.2926887  54.2396388
   8.6099992   8.5069978  40.2200014   8.4289992   8.3519978  39.2930014
   9.5599992   8.6149978  40.2650014   8.7136566   8.5003669  40.0990929
  11.8469992  10.6279978  57.5910014  12.8009992  10.7119978  57.5640014
  11.6869992   9.9159978  58.2110014  11.9557182  10.5432842  57.6710733
  17.9999992  10.8609978  39.6660014  17.7259992  10.4369978  38.8530014
  18.0389992  11.7929978  39.4490014  17.9677716  10.9288827  39.5254286
   7.1669992   5.5119978  55.3960014   7.3169992   4.7829978  54.7940014
   7.1689992   6.2889978  54.8370014   7.1877967   5.5172708  55.2380541
   7.5799992   3.8809978  52.8890014   8.1149992   4.3329978  52.2370014
   6.7269992   3.7729978  52.4660014   7.5380374   3.9282665  52.7426710
   9.1609992   9.3209978  53.1280014   9.9119992   9.1649978  52.5550014
   8.8219992  10.1729978  52.8530014   9.2179587   9.4148138  53.0124078
  13.5769992   7.1359978  58.1570014  13.7689992   6.2049978  58.0450014
  14.4349992   7.5609978  58.1460014  13.7192182   7.0660070  58.1401862
  14.8939992   9.9249978  56.2340014  14.6119992  10.6339978  55.6560014
  15.8359992   9.8519978  56.0830014  14.9827921  10.0122193  56.1344225
   5.6459992   6.7099978  57.3070014   4.8779992   6.1769978  57.0970014
   6.3239992   6.3999978  56.7080014   5.6327235   6.5951754  57.1972413
   8.3849992   1.3379978  53.3200014   8.2869992   2.2839978  53.2150014
   7.6429992   0.9649978  52.8440014   8.2712534   1.4171773  53.2412600
   9.6489992   5.6589978  56.8840014   9.4139992   5.4399978  57.7850014
   8.8659992   5.4519978  56.3740014   9.5109095   5.6009892  56.9385353
  12.3649992   4.7869978  55.9590014  11.4169992   4.8189978  56.0910014
  12.6769992   4.1609978  56.6130014  12.2775293   4.7067923  56.0654148
  13.9989992   3.4209978  57.9640014  13.9019992   2.4689978  57.9590014
  13.6769992   3.6889978  58.8250014  13.9422468   3.3270884  58.0796210
   3.8259992   4.6299978  57.0120014   4.0379992   3.9239978  56.4020014
   3.7149992   4.1929978  57.8560014   3.8400269   4.4741921  57.0425873
   8.6069992   0.6319978  55.9910014   9.3189992  -0.0080022  55.9770014
   8.5059992   0.8979978  55.0780014   8.6907387   0.5804330  55.8655563
   8.9609992   2.3139978  58.0450014   8.8289992   1.8389978  57.2250014
   8.3609992   3.0589978  57.9900014   8.8619070   2.3495789  57.9253251
   8.5069992  19.1969978  41.2210014   9.4399992  19.3549978  41.3650014
   8.2429992  19.8729978  40.5960014   8.5989911  19.3099373  41.1562722
   2.0749992  13.8339978  40.7040014   2.9889992  13.9129978  40.9770014
   2.0829992  13.1469978  40.0380014   2.2010655  13.7519205  40.6512917
   0.7239992  19.2269978  45.7810014   0.0769992  18.7649978  45.2490014
   1.0789992  18.5549978  46.3640014   0.6833741  19.0729774  45.7869175
   1.5939992  17.3069978  47.5860014   1.2599992  16.4269978  47.7580014
   1.8169992  17.6529978  48.4510014   1.5783721  17.2331938  47.7264168
  19.1429992  18.1169978  50.5670014  19.1209992  18.3019978  51.5060014
  19.8329992  18.6849978  50.2260014  19.2333439  18.2191887  50.6494791
  18.7059992  17.6839978  53.4880014  18.2189992  16.9489978  53.1170014
  19.2549992  17.2899978  54.1660014  18.7135247  17.5301057  53.5288461
  17.1569992  13.4739978  58.1270014  16.2909992  13.3689978  58.5210014
  17.5329992  14.2319978  58.5730014  17.0893401  13.5621708  58.2412620
  18.4579992  11.7299978  43.6410014  19.3079992  12.1509978  43.7680014
  18.4629992  10.9899978  44.2480014  18.5751143  11.6876094  43.7404750
  18.8519992   9.7839978  45.4640014  18.1259992   9.3039978  45.8620014
  19.4339992   9.9889978  46.1970014  18.8312730   9.7460184  45.6174149
  18.6109992  12.5689978  50.4120014  19.4449992  12.1909978  50.1310014
  18.7229992  13.5119978  50.2930014  18.7401917  12.6447943  50.3574861
  17.0979992  15.4469978  52.7190014  16.4499992  15.7719978  53.3440014
  16.5799992  15.0059978  52.0450014  16.9394196  15.4318651  52.7134152
  19.1209992   9.6849978  41.8550014  18.5989992  10.0409978  41.1370014
  19.0879992  10.3599978  42.5340014  19.0450129   9.8249598  41.8483355
  17.4699992   6.9239978  40.4060014  17.5659992   7.5909978  39.7260014
  17.3299992   6.1089978  39.9250014  17.4642040   6.9050671  40.2478378
  16.6389992   8.3049978  46.0270014  16.4889992   7.3599978  46.0070014
  16.2849992   8.5859978  46.8710014  16.5706351   8.2136644  46.1383220
   1.6739992  10.3829978  50.0380014   1.8589992  10.3009978  49.1020014
   2.5239992  10.2589978  50.4610014   1.8140928  10.3550463  49.9672893
  17.4949992  10.2749978  55.6660014  18.0779992   9.5399978  55.8580014
  18.0589992  11.0469978  55.7130014  17.6509781  10.2788145  55.6986164
  18.9919992   8.1779978  56.3510014  18.1289992   7.7989978  56.1850014
  19.5959992   7.4389978  56.2760014  18.9556085   8.0263223  56.3181694
  16.7169992   4.3319978  39.5240014  17.3279992   3.9609978  40.1610014
  15.8799992   3.9109978  39.7200014  16.6874947   4.2242756  39.6377252
  16.3499992   5.8869978  44.4900014  16.6289992   4.9799978  44.6140014
  17.1089992   6.3209978  44.1010014  16.4908619   5.8214502  44.4543795
  16.9609992   6.4689978  49.9260014  17.8939992   6.6809978  49.8910014
  16.7259992   6.5699978  50.8480014  17.0569517   6.5116833  50.0459130
  16.9909992   7.2059978  52.7020014  16.1479992   7.4739978  53.0680014
  17.4329992   8.0279978  52.4910014  16.9354138   7.3538273  52.7235518
   1.2719992   5.6529978  56.1780014   2.1909992   5.5309978  56.4150014
   0.8219992   4.9029978  56.5680014   1.3370087   5.5349608  56.2631410
  19.2739992   1.1859978  58.0550014  19.6229992   0.5319978  57.4500014
  19.4209992   2.0229978  57.6150014  19.3416824   1.2096024  57.9126304
  16.9629992   3.1499978  44.5380014  17.1449992   2.7009978  45.3630014
  16.3629992   2.5659978  44.0740014  16.9068187   3.0095552  44.5882739
   2.4929992   3.9659978  49.0700014   2.9379992   3.1739978  49.3720014
   2.9589992   4.6819978  49.5000014   2.6169718   3.9544534  49.1695265
   0.7969992   6.9649978  50.1390014   1.2889992   6.7439978  49.3480014
   1.1589992   7.8049978  50.4200014   0.9132923   7.0483468  50.0687407
  18.7929992   3.2949978  56.4040014  17.8759992   3.5659978  56.3690014
  18.9159992   2.7599978  55.6200014  18.6839672   3.2597885  56.2931862
  18.8299992   3.2179978  41.0660014  19.2419992   2.4969978  40.5910014
  19.5109992   3.8869978  41.1240014  18.9785536   3.2097766  41.0088024
   1.1109992   3.2229978  44.1930014   0.1859992   3.4309978  44.0640014
   1.5649992   3.7069978  43.5030014   1.0456298   3.3169299  44.0820451
  15.8809992  18.2069978  46.1390014  16.5339992  17.8589978  45.5310014
  16.3919992  18.6949978  46.7850014  16.0392777  18.2253815  46.1432047
   1.0739992   1.9609978  52.5370014   0.4089992   1.7149978  53.1800014
   0.6309992   2.5829978  51.9600014   0.9231168   2.0114214  52.5469848
   3.2659992  15.1359978  56.6820014   2.4449992  15.3109978  56.2210014
   3.0139992  15.0629978  57.6020014   3.1195594  15.1500717  56.7433611
   6.2199992  16.1099978  52.9400014   5.7959992  16.9199978  52.6580014
   7.1249992  16.1959978  52.6380014   6.2842138  16.2324160  52.8606415
  10.5319992  17.5089978  55.9000014  10.7159992  17.1759978  56.7780014
  11.3779992  17.8189978  55.5780014  10.6716484  17.5052979  55.9767617
  12.8769992  18.7949978  55.1440014  13.5539992  18.1619978  54.9040014
  13.1979992  19.1959978  55.9510014  13.0131323  18.7625691  55.2203158
  17.7939992   1.3849978  54.2230014  16.9809992   1.7099978  53.8360014
  18.0269992   0.6239978  53.6900014  17.7141347   1.3266880  54.0979841
   3.6219992  19.3669978  52.9880014   2.9019992  19.8069978  52.5370014
   3.2569992  19.1159978  53.8360014   3.4739643  19.3933369  53.0409129
   6.0889992  18.9669978  52.0180014   5.2249992  19.0389978  52.4220014
   6.0339992  19.5139978  51.2340014   5.9631942  19.0507849  51.9674000
  10.7999992  18.8549978  51.1930014  10.3429992  19.3839978  50.5390014
  10.9629992  19.4579978  51.9180014  10.7594960  19.0089280  51.2015274
  13.1279992  17.7329978  52.1380014  12.2229992  17.8979978  51.8720014
  13.5559992  18.5859978  52.0720014  13.0621537  17.8709134  52.0927095
  15.7319992  19.3029978  52.4330014  15.5499992  20.2189978  52.2220014
  15.9089992  18.8919978  51.5860014  15.7310030  19.3728273  52.2897166
   3.0369992  17.9899978  49.8980014   3.0189992  17.5639978  50.7550014
   3.8419992  17.6709978  49.4890014   3.1432875  17.8886435  49.9599515
   5.1779992  16.6999978  48.5530014   4.9589992  15.7829978  48.7230014
   6.0019992  16.8399978  49.0190014   5.2594702  16.5935511  48.6392527
   7.7149992  17.1699978  49.4020014   7.9279992  16.2819978  49.1150014
   7.7799992  17.1349978  50.3560014   7.7529149  17.0438326  49.4917369
  11.2239992   2.8339978  48.5460014  10.5499992   2.2039978  48.8020014
  11.7879992   2.3499978  47.9430014  11.2080384   2.6823708  48.4995020
  16.3669992   0.9409978  48.6590014  16.9699992   1.4889978  48.1570014
  15.4969992   1.2599978  48.4180014  16.3319157   1.0590373  48.5577910
  18.0939992   2.0799978  46.9920014  18.7049992   1.5659978  46.4650014
  18.4759992   2.9569978  47.0150014  18.2293305   2.1282050  46.9229418
   3.5509992   1.4679978  46.3680014   2.7739992   1.2329978  45.8610014
   4.0809992   0.6709978  46.3770014   3.5163451   1.3281268  46.2998627
   2.3869992   1.2659978  42.1720014   2.8259992   1.8769978  41.5800014
   1.7529992   1.8039978  42.6460014   2.3613859   1.4224064  42.1550305
   8.1299992   1.3939978  46.1810014   9.0039992   1.7829978  46.1520014
   7.9939992   1.1789978  47.1040014   8.2311953   1.4181643  46.3017617
  13.6869992   1.4239978  47.8310014  13.7629992   1.5199978  46.8810014
  13.4119992   0.5169978  47.9590014  13.6601871   1.3144146  47.7183944
  15.0399992   1.4499978  43.5230014  14.3369992   2.0649978  43.3130014
  14.5949992   0.6129978  43.6540014  14.8836550   1.4209668  43.5119837
   2.2879992  17.2139978  43.0690014   1.6029992  17.1759978  42.4020014
   2.2919992  18.1269978  43.3570014   2.1947621  17.3321924  43.0166126
   4.2479992   3.1819978  40.6140014   4.7389992   2.5519978  40.0870014
   4.8709992   3.4779978  41.2770014   4.3995304   3.1357376  40.6314940
   9.2739992   3.4749978  43.0710014   9.4519992   2.8279978  43.7540014
   9.2199992   4.3089978  43.5380014   9.2910678   3.4991604  43.2276301
  11.1519992  18.4229978  41.4670014  12.0179992  18.7899978  41.2890014
  10.9059992  17.9839978  40.6530014  11.2372097  18.4138525  41.3326019
  17.8609992  17.9859978  44.1460014  17.6669992  17.2379978  43.5810014
  17.8219992  18.7439978  43.5630014  17.8291645  17.9860786  43.9898148
   3.5079992   1.9819978  55.8860014   3.1419992   1.2159978  56.3280014
   4.4209992   2.0109978  56.1720014   3.5813172   1.8810324  55.9851890
   5.4809992   1.3319978  57.4210014   6.3799992   1.0579978  57.2370014
   5.0949992   0.5899978  57.8860014   5.5517307   1.1942196  57.4587098
   4.1059992  18.1339978  40.0940014   3.8379992  18.4199978  40.9680014
   4.8769992  17.5879978  40.2470014   4.1735926  18.0992779  40.2341205
  13.9029992   0.6649978  57.6040014  13.9789992   0.2389978  58.4570014
  14.7959992   0.6779978  57.2610014  14.0342303   0.6083493  57.6745497
  17.0789992  16.7379978  56.2960014  16.2969992  16.5509978  55.7760014
  17.0069992  17.6669978  56.5130014  16.9621924  16.8380637  56.2541602
  31.4849992  10.6239978  46.3270014  31.5739992  11.5679978  46.1950014
  30.8469992  10.3489978  45.6690014  31.4109062  10.7159812  46.2199641
  30.4179992   9.8789978  49.7460014  30.3799992   9.2329978  50.4510014
  30.0959992   9.4119978  48.9750014  30.3692679   9.7274276  49.7382921
  22.7859992   9.4929978  51.3390014  22.8279992   8.8679978  52.0620014
  23.4889992  10.1169978  51.5210014  22.8867345   9.4917873  51.4625274
  34.1239992  12.8179978  48.0470014  33.6829992  12.0979978  48.4980014
  34.1109992  13.5389978  48.6770014  34.0619215  12.8169291  48.1938105
  23.7099992  13.9429978  49.8740014  23.3399992  13.1409978  49.5040014
  24.6509992  13.7749978  49.9200014  23.7865984  13.8104638  49.8295603
  20.3199992   7.6029978  45.2660014  19.8719992   8.4489978  45.2480014
  19.7589992   7.0239978  44.7510014  20.1828546   7.6403993  45.1938891
  21.0299992   9.7649978  47.3920014  21.2439992   8.9949978  47.9200014
  21.7679992   9.8549978  46.7890014  21.1590200   9.6718587  47.3827035
  31.2359992  17.9219978  48.2590014  31.8549992  17.2459978  47.9860014
  31.0269992  17.7039978  49.1680014  31.2926056  17.7998869  48.3443967
  28.8069992  12.3109978  50.1520014  29.1109992  11.6249978  49.5570014
  29.5289992  12.4299978  50.7700014  28.9461240  12.2332314  50.1540959
  37.4699992   3.9129978  51.0120014  37.5199992   4.5229978  51.7480014
  37.8959992   4.3739978  50.2890014  37.5344108   4.0587709  51.0150112
  31.9479992   6.7049978  50.4790014  32.0909992   5.7589978  50.4990014
  31.8419992   6.9119978  49.5510014  31.9532403   6.6034797  50.3562239
  25.1029992   4.8069978  47.7520014  25.1459992   5.6669978  47.3330014
  24.6449992   4.2549978  47.1180014  25.0469871   4.8499245  47.6090761
  32.8249992   4.9379978  46.1530014  33.4719992   4.6089978  46.7770014
  33.3349992   5.4549978  45.5300014  32.9824351   4.9629067  46.1541037
  21.7229992   7.2039978  48.5140014  22.3769992   6.6539978  48.9460014
  21.7469992   6.9299978  47.5970014  21.8157199   7.0917167  48.4491668
  26.8799992   8.7539978  47.7290014  27.4959992   8.2269978  48.2380014
  26.2929992   8.1139978  47.3250014  26.8850154   8.5953954  47.7440945
  37.8619992   5.3909978  53.2480014  37.1729992   6.0489978  53.1530014
  37.8769992   5.1929978  54.1850014  37.7697756   5.4542603  53.3615812
  23.9129992   3.7249978  51.8260014  23.6939992   4.2549978  51.0590014
  23.2449992   3.9509978  52.4730014  23.7926975   3.8280967  51.8085140
  31.2819992  13.2249978  45.3700014  30.9869992  12.9019978  44.5180014
  30.9579992  14.1249978  45.4110014  31.1978460  13.3024464  45.2589714
  26.4819992  11.3999978  52.1130014  25.7419992  11.9989978  52.2170014
  27.1959992  11.9539978  51.7980014  26.4773500  11.5567829  52.0846371
  34.5889992   4.2289978  48.1330014  34.3739992   3.4629978  48.6660014
  35.2449992   4.7009978  48.6460014  34.6482673   4.1880728  48.2751990
  23.5069992   5.6169978  49.7780014  24.1209992   6.2499978  50.1510014
  24.0189992   5.1449978  49.1220014  23.6601962   5.6397249  49.7402935
  24.8899992  13.3649978  52.9000014  24.8839992  14.2439978  52.5220014
  24.0359992  13.2809978  53.3250014  24.7737925  13.4739535  52.9056887
  21.0109992  13.0359978  43.6820014  20.7389992  13.2649978  42.7940014
  21.0559992  13.8729978  44.1430014  20.9798097  13.1806163  43.6226683
  34.6359992  14.6569978  50.3950014  33.6939992  14.7159978  50.5570014
  34.9119992  15.5629978  50.2580014  34.5445865  14.7875288  50.3986192
  34.9359992   2.9439978  51.8120014  34.1999992   3.5539978  51.7750014
  35.6199992   3.3589978  51.2860014  34.9275367   3.0837551  51.7358174
  27.9399992   1.0299978  49.2780014  27.8219992   0.0819978  49.2240014
  27.0849992   1.3629978  49.5510014  27.8082805   0.9452202  49.3075079
  32.8879992  16.4379978  47.0200014  33.3129992  15.7309978  46.5350014
  33.2049992  17.2399978  46.6030014  32.9890266  16.4495190  46.8972479
  34.0479992  14.3389978  45.5290014  33.7899992  13.6489978  44.9170014
  34.1189992  13.8959978  46.3740014  34.0223050  14.1846814  45.5595621
  35.7339992  12.9059978  54.0060014  35.8729992  12.3139978  53.2670014
  35.9009992  13.7789978  53.6500014  35.7756193  12.9428896  53.8566211
  30.2059992   9.8679978  43.7790014  29.4949992  10.4029978  43.4270014
  30.8969992   9.9229978  43.1190014  30.2020751   9.9486777  43.6415858
  30.2599992   8.3249978  40.8170014  30.9609992   8.3479978  41.4690014
  30.5619992   7.6969978  40.1610014  30.3968202   8.2432212  40.8175609
  37.5749992   9.2459978  52.0720014  36.9229992   9.9399978  52.1610014
  38.0409992   9.4559978  51.2620014  37.5485937   9.3695019  51.9747533
  33.6119992  10.0769978  44.7300014  32.8799992  10.3059978  45.3040014
  34.0589992   9.3639978  45.1850014  33.5723963  10.0118729  44.8699945
  33.5089992   8.2519978  53.7980014  33.5889992   9.0149978  54.3700014
  32.9079992   8.5309978  53.1080014  33.4386547   8.3942457  53.7830047
  25.2569992  10.7079978  46.6130014  24.9269992  10.3369978  45.7950014
  25.8459992  10.0369978  46.9600014  25.2913970  10.5666063  46.5479404
  26.6239992  14.1359978  49.2940014  26.5289992  13.5569978  48.5380014
  27.3529992  13.7649978  49.7900014  26.7096011  14.0065561  49.2576028
  25.6239992   9.4759978  50.2460014  26.1889992   9.5979978  49.4840014
  25.9429992  10.1139978  50.8850014  25.7444166   9.5788791  50.2280348
  31.9329992  14.9799978  50.9800014  31.6929992  15.6419978  51.6280014
  31.7349992  14.1449978  51.4050014  31.8733826  14.9578115  51.1261566
  26.5039992  13.8759978  54.9640014  26.1929992  14.6579978  55.4190014
  25.8539992  13.7229978  54.2780014  26.3735538  13.9624087  54.9335898
  32.4829992   9.2399978  42.4160014  33.0619992   9.3899978  43.1620014
  32.8969992   9.7099978  41.6920014  32.6183358   9.3240955  42.4203953
  23.4239992  10.0739978  54.1920014  23.4939992  10.7249978  54.8910014
  22.5329992  10.1769978  53.8570014  23.3131690  10.1769249  54.2423043
  30.2089992  15.9759978  45.8510014  30.6829992  16.2719978  46.6280014
  29.6459992  16.7149978  45.6180014  30.1977890  16.1163036  45.9258101
  24.7429992  15.9469978  55.7270014  24.7509992  15.8109978  54.7800014
  23.8269992  15.8299978  55.9790014  24.6202528  15.9125463  55.6313243
  36.1819992   0.9899978  42.2290014  35.2819992   1.1289978  42.5240014
  36.4339992   1.8209978  41.8270014  36.0928683   1.1214055  42.2150232
  24.2479992   9.7769978  44.2020014  23.9559992  10.5449978  43.7110014
  23.5729992   9.1179978  44.0390014  24.1168497   9.7929745  44.1128260
  37.3709992  15.3559978  40.6050014  37.4439992  16.2949978  40.7750014
  38.2759992  15.0509978  40.5490014  37.5034170  15.4433282  40.6207063
  20.3409992  12.1399978  53.0170014  19.8389992  12.1119978  52.2020014
  20.3459992  11.2349978  53.3270014  20.2729832  12.0137486  52.9474121
  20.0909992  14.9209978  49.9010014  21.0369992  14.7759978  49.8820014
  19.9779992  15.7049978  50.4380014  20.2053578  15.0071697  49.9710317
  38.2889992  15.5869978  55.5840014  38.2389992  14.6309978  55.5460014
  37.4619992  15.8539978  55.9850014  38.1703831  15.4924680  55.6330121
  29.2669992  15.1609978  54.4600014  29.3549992  15.9869978  54.9350014
  28.4039992  14.8309978  54.7090014  29.1623357  15.2295468  54.5587653
  29.6819992  18.9329978  44.2660014  29.6059992  18.8119978  43.3190014
  29.7139992  19.8819978  44.3840014  29.6759380  19.0447677  44.1525181
  23.3349992  17.7219978  46.0470014  23.4869992  17.3739978  46.9250014
  22.4839992  17.3649978  45.7910014  23.2408344  17.6260879  46.1326868
  32.7829992  18.0869978  41.2680014  33.1579992  17.3429978  40.7970014
  32.7879992  17.8169978  42.1860014  32.8350098  17.9486392  41.3276629
  32.4519992  18.0129978  44.0170014  31.5169992  18.1129978  44.1960014
  32.7319992  17.3029978  44.5960014  32.3619471  17.9307933  44.1196695
  35.4409992   7.0799978  56.0640014  35.0329992   7.5599978  55.3430014
  35.4809992   6.1739978  55.7560014  35.3906221   7.0232449  55.9238267
  22.5899992  13.4639978  54.0600014  22.8059992  13.1019978  54.9200014
  21.7339992  13.0889978  53.8510014  22.5038810  13.3638837  54.1492680
  25.2079992   1.9339978  50.0560014  24.3469992   1.8469978  49.6480014
  25.1859992   2.7899978  50.4840014  25.0870491   2.0378003  50.0579582
  29.8709992   1.6559978  53.4310014  30.2909992   1.2409978  54.1840014
  28.9379992   1.4769978  53.5480014  29.8023736   1.5749910  53.5498968
  33.1979992   5.4109978  54.2840014  32.6839992   5.2859978  55.0820014
  33.0419992   6.3239978  54.0400014  33.1066967   5.5172123  54.3600937
  33.9599992  10.2719978  40.0450014  34.0019992  10.0499978  39.1150014
  34.8089992  10.6709978  40.2350014  34.0805253  10.2955498  39.9433822
  29.5329992   4.1479978  40.7160014  29.2789992   4.1669978  41.6380014
  29.2759992   3.2769978  40.4140014  29.4634508   4.0328280  40.8014803
  25.2989992   6.8989978  51.1510014  24.6579992   6.8589978  51.8600014
  25.3369992   7.8259978  50.9130014  25.2163010   7.0187668  51.2159946
  25.2959992   7.1199978  46.0630014  24.4039992   6.7799978  46.0040014
  25.7469992   6.7429978  45.3070014  25.2347642   7.0224910  45.9527726
  30.8319992   7.5359978  44.8800014  30.4229992   8.3509978  44.5880014
  31.5519992   7.3959978  44.2660014  30.8734439   7.6285372  44.7570115
  29.9339992   7.7119978  56.3680014  29.3709992   7.0069978  56.6890014
  30.7599992   7.5909978  56.8360014  29.9686674   7.5992165  56.4751751
  31.8369992   6.9819978  47.6940014  31.6409992   7.5879978  46.9790014
  32.0179992   6.1489978  47.2600014  31.8346584   6.9522513  47.5374212
  23.0489992   7.2199978  53.0180014  23.0109992   7.6199978  53.8870014
  22.5589992   6.4029978  53.1080014  22.9775330   7.1642674  53.1491289
  26.4149992   4.5939978  39.8170014  25.9839992   4.1489978  40.5460014
  25.6969992   4.9649978  39.3040014  26.2589176   4.5832051  39.8474930
  19.6579992   4.3359978  46.8690014  20.2879992   4.3069978  47.5880014
  20.1069992   3.9109978  46.1380014  19.8050835   4.2745660  46.8687659
  20.9319992   5.0819978  42.2930014  21.4059992   5.6729978  41.7080014
  20.2139992   5.6119978  42.6400014  20.8998640   5.2345511  42.2597969
  31.1009992   8.6199978  52.3650014  31.4239992   7.9889978  51.7220014
  30.6599992   8.0859978  53.0260014  31.0856379   8.4613468  52.3662582
  27.8779992   4.5479978  47.1490014  26.9669992   4.6049978  47.4380014
  28.3829992   4.4879978  47.9600014  27.8216873   4.5476826  47.2981207
  22.7059992   6.1769978  45.9760014  21.8169992   6.2759978  45.6360014
  23.0029992   5.3349978  45.6300014  22.6244177   6.0767687  45.8826940
  26.3589992   6.1769978  43.6330014  27.2909992   6.3059978  43.8110014
  26.1439992   6.8459978  42.9830014  26.4574472   6.2850806  43.5694891
  32.2829992   3.7829978  50.4140014  31.6059992   3.9139978  51.0770014
  31.7979992   3.6279978  49.6030014  32.1247405   3.7799947  50.3952170
  25.0329992   7.3709978  41.1990014  24.4909992   6.9919978  40.5080014
  25.8669992   7.5659978  40.7710014  25.0714390   7.3454079  41.0464392
  35.5709992  19.4539978  56.6900014  35.7699992  19.8779978  55.8560014
  36.2259992  19.7979978  57.2970014  35.6868522  19.5586301  56.6577852
  23.1689992  11.9279978  56.2980014  23.9009992  12.1829978  56.8600014
  22.3879992  12.1329978  56.8140014  23.1636526  11.9905450  56.4445176
  29.1979992   7.3349978  49.0360014  29.7619992   6.7889978  48.4890014
  29.0499992   6.8139978  49.8250014  29.2553037   7.1896787  49.0677229
  24.1999992   3.4719978  45.4550014  23.8829992   2.5689978  45.4190014
  24.9809992   3.4739978  44.9020014  24.2622431   3.3487797  45.3753102
  27.8239992   5.7239978  51.4500014  26.9889992   6.1779978  51.5610014
  28.3479992   5.9999978  52.2020014  27.7806072   5.8233948  51.5668136
  28.3689992  11.9369978  43.1350014  27.6239992  11.4289978  42.8130014
  28.2339992  11.9859978  44.0810014  28.2488963  11.8741731  43.2188826
  35.5189992  11.0699978  51.9220014  36.1599992  11.5259978  51.3780014
  34.6879992  11.1829978  51.4590014  35.4945287  11.1476921  51.7849887
  32.2659992   4.7509978  41.3340014  31.3279992   4.8619978  41.1830014
  32.5639992   5.6069978  41.6410014  32.1776318   4.8820158  41.3548145
  29.8879992  12.1209978  54.3720014  29.5419992  11.7389978  55.1790014
  29.6879992  13.0539978  54.4430014  29.8135987  12.1949002  54.4920461
  32.9849992   6.6179978  42.9950014  33.8769992   6.4799978  43.3140014
  33.0409992   7.4089978  42.4580014  33.1147325   6.7059918  42.9661217
  23.4929992  11.2319978  48.9050014  24.2379992  11.2289978  48.3030014
  23.5709992  10.4079978  49.3860014  23.6053365  11.1202384  48.8877430
  30.4939992  13.3949978  42.1600014  30.1989992  14.2219978  42.5420014
  29.7909992  12.7759978  42.3570014  30.3586379  13.4244171  42.2388654
  20.5009992   9.6919978  54.2200014  20.7239992   9.2739978  55.0510014
  19.8989992   9.0799978  53.7970014  20.4501513   9.5519606  54.2766740
  27.5179992   9.2089978  56.4330014  27.2219992   9.0439978  55.5370014
  28.4489992   8.9889978  56.4220014  27.6034401   9.1566879  56.3090206
  32.1379992  14.5829978  54.3220014  31.2379992  14.7659978  54.0550014
  32.1719992  14.8419978  55.2430014  32.0193748  14.6430554  54.4099164
  37.8699992   6.8269978  42.6900014  37.3149992   6.4309978  42.0170014
  37.9699992   7.7379978  42.4120014  37.8076816   6.8959505  42.5605033
  37.8329992  12.6279978  55.5270014  36.9819992  12.8659978  55.1590014
  38.4229992  12.6109978  54.7740014  37.7963812  12.6582524  55.3748453
  36.1649992  15.6129978  43.1550014  35.7919992  14.7879978  43.4640014
  36.4419992  15.4299978  42.2570014  36.1513463  15.4752569  43.0759525
  33.3249992  10.4209978  50.1760014  32.3969992  10.1899978  50.1490014
  33.7759992   9.6439978  49.8460014  33.2588165  10.2842774  50.1276790
  25.8679992  14.7499978  46.3090014  26.3959992  15.5229978  46.1090014
  24.9879992  14.9739978  46.0070014  25.8213435  14.8862700  46.2407310
  21.6229992   9.6119978  40.8960014  22.2389992  10.2389978  41.2760014
  20.7609992   9.9279978  41.1680014  21.5907678   9.7404412  40.9847209
  27.2959992  12.4129978  45.8850014  27.0549992  13.3379978  45.9270014
  26.5549992  11.9539978  46.2820014  27.1629206  12.4775915  45.9443769
  27.8099992  16.5619978  52.2000014  28.1729992  17.4159978  51.9670014
  28.3419992  16.2699978  52.9410014  27.9315141  16.6393895  52.2682097
  25.9789992  17.4339978  45.4310014  25.0289992  17.5399978  45.4820014
  26.3309992  18.2549978  45.7750014  25.8965472  17.5594923  45.4844852
  31.3539992  12.6609978  51.9010014  30.9289992  12.4329978  52.7270014
  31.9349992  11.9219978  51.7190014  31.3743395  12.5299545  51.9894414
  33.5569992  13.5899978  40.9750014  33.9109992  13.2099978  41.7790014
  32.6089992  13.4959978  41.0620014  33.4772298  13.5252452  41.0968687
  34.0129992  17.2129978  54.3700014  33.4109992  16.6569978  53.8750014
  34.2939992  17.8799978  53.7440014  33.9685757  17.2270744  54.2175675
  38.0609992  18.0689978  41.1760014  38.8049992  18.6549978  41.0360014
  37.3669992  18.6379978  41.5090014  38.0689809  18.2260818  41.2018590
  22.1349992   4.4459978  53.7780014  21.2429992   4.7839978  53.7100014
  22.0369992   3.5899978  54.1960014  21.9994475   4.3766543  53.8251704
  34.4229992  12.2619978  43.2020014  34.1459992  11.5339978  43.7580014
  35.3509992  12.3809978  43.4070014  34.5104499  12.1784213  43.3058044
  21.7869992  16.2499978  52.2130014  22.0039992  15.3179978  52.1820014
  22.0329992  16.5249978  53.0960014  21.8499809  16.1595686  52.3281690
  27.6479992  14.7019978  39.4220014  27.8869992  13.9529978  38.8750014
  27.3789992  14.3139978  40.2550014  27.6443233  14.5471853  39.4597809
  26.5849992  14.2719978  41.8780014  26.7319992  13.7519978  42.6680014
  26.5819992  15.1789978  42.1850014  26.6047102  14.3233953  42.0275925
  23.0379992  11.5239978  42.3890014  22.3519992  11.8769978  42.9560014
  23.5609992  12.2869978  42.1420014  23.0148402  11.6753901  42.4331801
  30.8699992   4.1869978  52.6680014  31.5689992   4.2609978  53.3180014
  30.4889992   3.3219978  52.8220014  30.9142097   4.0802389  52.7777997
  31.6539992   3.8389978  43.7650014  31.8739992   4.3099978  42.9610014
  32.2129992   4.2329978  44.4350014  31.7596731   3.9567287  43.7455033
  29.3229992  15.9689978  42.6280014  28.5059992  16.4659978  42.6800014
  29.8519992  16.4449978  41.9870014  29.2828125  16.1011989  42.5485306
  28.8539992   5.5669978  44.6000014  29.6659992   6.0709978  44.6460014
  28.6099992   5.4219978  45.5140014  28.9321467   5.6163749  44.7298575
  29.3899992   6.5529978  53.7840014  29.5089992   7.1269978  54.5410014
  30.0449992   5.8649978  53.8990014  29.4948684   6.5385194  53.9031674
  29.7379992   2.6479978  45.5380014  29.3909992   3.2649978  46.1820014
  30.3969992   3.1489978  45.0560014  29.7795090   2.8001575  45.5610681
  26.6609992  17.0129978  42.6090014  26.8219992  17.8129978  42.1090014
  26.4639992  17.3199978  43.4940014  26.6563906  17.1638678  42.6602333
  25.3959992   3.7109978  42.2250014  25.3119992   4.5989978  42.5720014
  26.2859992   3.4459978  42.4570014  25.5048163   3.7967179  42.3038596
  35.5939992   4.4599978  54.6190014  34.6779992   4.7219978  54.5320014
  35.9299992   4.4569978  53.7230014  35.5138499   4.4955163  54.4858766
  34.1969992   8.2099978  48.7150014  33.3989992   7.7949978  48.3870014
  34.6419992   7.5199978  49.2060014  34.1479684   8.0598628  48.7365227
  23.6539992  14.1379978  41.2850014  24.2459992  14.8379978  41.5620014
  24.1129992  13.7049978  40.5660014  23.7971652  14.1752675  41.2256533
  21.9699992   6.8029978  40.4010014  21.9249992   7.7419978  40.5800014
  21.0819992   6.5669978  40.1320014  21.8438166   6.8996687  40.3891524
  35.2829992  17.4659978  50.3370014  35.1269992  18.1449978  49.6800014
  36.2159992  17.5379978  50.5400014  35.3877387  17.5686390  50.2745342
  22.7779992   1.5839978  49.0750014  22.5489992   1.6429978  48.1470014
  22.3359992   0.7929978  49.3810014  22.6868801   1.4850540  48.9894729
  21.7089992  15.5249978  45.2350014  20.8759992  15.9969978  45.2620014
  22.2539992  16.0349978  44.6360014  21.6687857  15.6584791  45.1577142
  20.9969992  18.1369978  56.5650014  21.5369992  17.9209978  57.3250014
  20.5159992  17.3319978  56.3750014  21.0059219  17.9985156  56.6434282
  25.5939992  17.0569978  58.1850014  26.3619992  16.5979978  58.5260014
  25.5729992  16.8309978  57.2550014  25.6962135  16.9636668  58.1059491
  29.6859992  16.5649978  39.5610014  29.0419992  15.9339978  39.8820014
  30.4479992  16.0339978  39.3290014  29.7008058  16.4067902  39.5736038
  32.1709992  15.4369978  56.9140014  31.8199992  14.5799978  57.1580014
  32.8969992  15.5789978  57.5210014  32.2211895  15.3391351  57.0293770
  34.2909992  16.3819978  39.7940014  34.5739992  15.5869978  40.2470014
  35.0299992  16.6149978  39.2330014  34.4297096  16.3047049  39.7801104
  20.9039992  11.9479978  57.5190014  21.0479992  11.0459978  57.2330014
  20.1319992  12.2339978  57.0320014  20.8192733  11.8631798  57.4139532
  25.2449992  12.2909978  39.6520014  25.3099992  11.4969978  40.1820014
  25.8979992  12.1729978  38.9620014  25.3421605  12.1663430  39.6312997
  27.5589992  11.9169978  56.9520014  27.2309992  12.1879978  56.0950014
  27.7109992  10.9759978  56.8640014  27.5346412  11.8269046  56.8227822
  30.5979992  13.3379978  39.3880014  30.3289992  13.5189978  40.2880014
  30.3909992  12.4129978  39.2560014  30.5331191  13.2377119  39.4935524
  33.2939992  11.8329978  54.3350014  34.0389992  12.4219978  54.2160014
  32.5369992  12.4149978  54.3990014  33.2935470  11.9922128  54.3273799
  21.7369992   9.1479978  56.9390014  22.1449992   8.2909978  56.8180014
  21.4759992   9.1619978  57.8600014  21.7576016   9.0325119  57.0469192
  26.3949992  10.2639978  41.9580014  25.9349992   9.7799978  42.6430014
  26.6499992   9.5949978  41.3220014  26.3664856  10.1073669  41.9658397
  25.6839992   8.1569978  54.3140014  25.0649992   8.8309978  54.5940014
  26.0279992   8.4779978  53.4800014  25.6457123   8.2926887  54.2396388
  27.4659992   8.5069978  40.2200014  27.2849992   8.3519978  39.2930014
  28.4159992   8.6149978  40.2650014  27.5696566   8.5003669  40.0990929
  30.7029992  10.6279978  57.5910014  31.6569992  10.7119978  57.5640014
  30.5429992   9.9159978  58.2110014  30.8117182  10.5432842  57.6710733
  36.8559992  10.8609978  39.6660014  36.5819992  10.4369978  38.8530014
  36.8949992  11.7929978  39.4490014  36.8237716  10.9288827  39.5254286
  26.0229992   5.5119978  55.3960014  26.1729992   4.7829978  54.7940014
  26.0249992   6.2889978  54.8370014  26.0437967   5.5172708  55.2380541
  26.4359992   3.8809978  52.8890014  26.9709992   4.3329978  52.2370014
  25.5829992   3.7729978  52.4660014  26.3940374   3.9282665  52.7426710
  28.0169992   9.3209978  53.1280014  28.7679992   9.1649978  52.5550014
  27.6779992  10.1729978  52.8530014  28.0739587   9.4148138  53.0124078
  32.4329992   7.1359978  58.1570014  32.6249992   6.2049978  58.0450014
  33.2909992   7.5609978  58.1460014  32.5752182   7.0660070  58.1401862
  33.7499992   9.9249978  56.2340014  33.4679992  10.6339978  55.6560014
  34.6919992   9.8519978  56.0830014  33.8387921  10.0122193  56.1344225
  24.5019992   6.7099978  57.3070014  23.7339992   6.1769978  57.0970014
  25.1799992   6.3999978  56.7080014  24.4887235   6.5951754  57.1972413
  27.2409992   1.3379978  53.3200014  27.1429992   2.2839978  53.2150014
  26.4989992   0.9649978  52.8440014  27.1272534   1.4171773  53.2412600
  28.5049992   5.6589978  56.8840014  28.2699992   5.4399978  57.7850014
  27.7219992   5.4519978  56.3740014  28.3669095   5.6009892  56.9385353
  31.2209992   4.7869978  55.9590014  30.2729992   4.8189978  56.0910014
  31.5329992   4.1609978  56.6130014  31.1335293   4.7067923  56.0654148
  32.8549992   3.4209978  57.9640014  32.7579992   2.4689978  57.9590014
  32.5329992   3.6889978  58.8250014  32.7982468   3.3270884  58.0796210
  22.6819992   4.6299978  57.0120014  22.8939992   3.9239978  56.4020014
  22.5709992   4.1929978  57.8560014  22.6960269   4.4741921  57.0425873
  27.4629992   0.6319978  55.9910014  28.1749992  -0.0080022  55.9770014
  27.3619992   0.8979978  55.0780014  27.5467387   0.5804330  55.8655563
  27.8169992   2.3139978  58.0450014  27.6849992   1.8389978  57.2250014
  27.2169992   3.0589978  57.9900014  27.7179070   2.3495789  57.9253251
  27.3629992  19.1969978  41.2210014  28.2959992  19.3549978  41.3650014
  27.0989992  19.8729978  40.5960014  27.4549911  19.3099373  41.1562722
  20.9309992  13.8339978  40.7040014  21.8449992  13.9129978  40.9770014
  20.9389992  13.1469978  40.0380014  21.0570655  13.7519205  40.6512917
  19.5799992  19.2269978  45.7810014  18.9329992  18.7649978  45.2490014
  19.9349992  18.5549978  46.3640014  19.5393741  19.0729774  45.7869175
  20.4499992  17.3069978  47.5860014  20.1159992  16.4269978  47.7580014
  20.6729992  17.6529978  48.4510014  20.4343721  17.2331938  47.7264168
  37.9989992  18.1169978  50.5670014  37.9769992  18.3019978  51.5060014
  38.6889992  18.6849978  50.2260014  38.0893439  18.2191887  50.6494791
  37.5619992  17.6839978  53.4880014  37.0749992  16.9489978  53.1170014
  38.1109992  17.2899978  54.1660014  37.5695247  17.5301057  53.5288461
  36.0129992  13.4739978  58.1270014  35.1469992  13.3689978  58.5210014
  36.3889992  14.2319978  58.5730014  35.9453401  13.5621708  58.2412620
  37.3139992  11.7299978  43.6410014  38.1639992  12.1509978  43.7680014
  37.3189992  10.9899978  44.2480014  37.4311143  11.6876094  43.7404750
  37.7079992   9.7839978  45.4640014  36.9819992   9.3039978  45.8620014
  38.2899992   9.9889978  46.1970014  37.6872730   9.7460184  45.6174149
  37.4669992  12.5689978  50.4120014  38.3009992  12.1909978  50.1310014
  37.5789992  13.5119978  50.2930014  37.5961917  12.6447943  50.3574861
  35.9539992  15.4469978  52.7190014  35.3059992  15.7719978  53.3440014
  35.4359992  15.0059978  52.0450014  35.7954196  15.4318651  52.7134152
  37.9769992   9.6849978  41.8550014  37.4549992  10.0409978  41.1370014
  37.9439992  10.3599978  42.5340014  37.9010129   9.8249598  41.8483355
  36.3259992   6.9239978  40.4060014  36.4219992   7.5909978  39.7260014
  36.1859992   6.1089978  39.9250014  36.3202040   6.9050671  40.2478378
  35.4949992   8.3049978  46.0270014  35.3449992   7.3599978  46.0070014
  35.1409992   8.5859978  46.8710014  35.4266351   8.2136644  46.1383220
  20.5299992  10.3829978  50.0380014  20.7149992  10.3009978  49.1020014
  21.3799992  10.2589978  50.4610014  20.6700928  10.3550463  49.9672893
  36.3509992  10.2749978  55.6660014  36.9339992   9.5399978  55.8580014
  36.9149992  11.0469978  55.7130014  36.5069781  10.2788145  55.6986164
  37.8479992   8.1779978  56.3510014  36.9849992   7.7989978  56.1850014
  38.4519992   7.4389978  56.2760014  37.8116085   8.0263223  56.3181694
  35.5729992   4.3319978  39.5240014  36.1839992   3.9609978  40.1610014
  34.7359992   3.9109978  39.7200014  35.5434947   4.2242756  39.6377252
  35.2059992   5.8869978  44.4900014  35.4849992   4.9799978  44.6140014
  35.9649992   6.3209978  44.1010014  35.3468619   5.8214502  44.4543795
  35.8169992   6.4689978  49.9260014  36.7499992   6.6809978  49.8910014
  35.5819992   6.5699978  50.8480014  35.9129517   6.5116833  50.0459130
  35.8469992   7.2059978  52.7020014  35.0039992   7.4739978  53.0680014
  36.2889992   8.0279978  52.4910014  35.7914138   7.3538273  52.7235518
  20.1279992   5.6529978  56.1780014  21.0469992   5.5309978  56.4150014
  19.6779992   4.9029978  56.5680014  20.1930087   5.5349608  56.2631410
  35.8189992   3.1499978  44.5380014  36.0009992   2.7009978  45.3630014
  35.2189992   2.5659978  44.0740014  35.7628187   3.0095552  44.5882739
  21.3489992   3.9659978  49.0700014  21.7939992   3.1739978  49.3720014
  21.8149992   4.6819978  49.5000014  21.4729718   3.9544534  49.1695265
  19.6529992   6.9649978  50.1390014  20.1449992   6.7439978  49.3480014
  20.0149992   7.8049978  50.4200014  19.7692923   7.0483468  50.0687407
  37.6489992   3.2949978  56.4040014  36.7319992   3.5659978  56.3690014
  37.7719992   2.7599978  55.6200014  37.5399672   3.2597885  56.2931862
  37.6859992   3.2179978  41.0660014  38.0979992   2.4969978  40.5910014
  38.3669992   3.8869978  41.1240014  37.8345536   3.2097766  41.0088024
  19.9669992   3.2229978  44.1930014  19.0419992   3.4309978  44.0640014
  20.4209992   3.7069978  43.5030014  19.9016298   3.3169299  44.0820451
  34.7369992  18.2069978  46.1390014  35.3899992  17.8589978  45.5310014
  35.2479992  18.6949978  46.7850014  34.8952777  18.2253815  46.1432047
  19.9299992   1.9609978  52.5370014  19.2649992   1.7149978  53.1800014
  19.4869992   2.5829978  51.9600014  19.7791168   2.0114214  52.5469848
  22.1219992  15.1359978  56.6820014  21.3009992  15.3109978  56.2210014
  21.8699992  15.0629978  57.6020014  21.9755594  15.1500717  56.7433611
  25.0759992  16.1099978  52.9400014  24.6519992  16.9199978  52.6580014
  25.9809992  16.1959978  52.6380014  25.1402138  16.2324160  52.8606415
  29.3879992  17.5089978  55.9000014  29.5719992  17.1759978  56.7780014
  30.2339992  17.8189978  55.5780014  29.5276484  17.5052979  55.9767617
  31.7329992  18.7949978  55.1440014  32.4099992  18.1619978  54.9040014
  32.0539992  19.1959978  55.9510014  31.8691323  18.7625691  55.2203158
  36.6499992   1.3849978  54.2230014  35.8369992   1.7099978  53.8360014
  36.8829992   0.6239978  53.6900014  36.5701347   1.3266880  54.0979841
  22.4779992  19.3669978  52.9880014  21.7579992  19.8069978  52.5370014
  22.1129992  19.1159978  53.8360014  22.3299643  19.3933369  53.0409129
  24.9449992  18.9669978  52.0180014  24.0809992  19.0389978  52.4220014
  24.8899992  19.5139978  51.2340014  24.8191942  19.0507849  51.9674000
  29.6559992  18.8549978  51.1930014  29.1989992  19.3839978  50.5390014
  29.8189992  19.4579978  51.9180014  29.6154960  19.0089280  51.2015274
  31.9839992  17.7329978  52.1380014  31.0789992  17.8979978  51.8720014
  32.4119992  18.5859978  52.0720014  31.9181537  17.8709134  52.0927095
  34.5879992  19.3029978  52.4330014  34.4059992  20.2189978  52.2220014
  34.7649992  18.8919978  51.5860014  34.5870030  19.3728273  52.2897166
  21.8929992  17.9899978  49.8980014  21.8749992  17.5639978  50.7550014
  22.6979992  17.6709978  49.4890014  21.9992875  17.8886435  49.9599515
  24.0339992  16.6999978  48.5530014  23.8149992  15.7829978  48.7230014
  24.8579992  16.8399978  49.0190014  24.1154702  16.5935511  48.6392527
  26.5709992  17.1699978  49.4020014  26.7839992  16.2819978  49.1150014
  26.6359992  17.1349978  50.3560014  26.6089149  17.0438326  49.4917369
  30.0799992   2.8339978  48.5460014  29.4059992   2.2039978  48.8020014
  30.6439992   2.3499978  47.9430014  30.0640384   2.6823708  48.4995020
  35.2229992   0.9409978  48.6590014  35.8259992   1.4889978  48.1570014
  34.3529992   1.2599978  48.4180014  35.1879157   1.0590373  48.5577910
  36.9499992   2.0799978  46.9920014  37.5609992   1.5659978  46.4650014
  37.3319992   2.9569978  47.0150014  37.0853305   2.1282050  46.9229418
  22.4069992   1.4679978  46.3680014  21.6299992   1.2329978  45.8610014
  22.9369992   0.6709978  46.3770014  22.3723451   1.3281268  46.2998627
  21.2429992   1.2659978  42.1720014  21.6819992   1.8769978  41.5800014
  20.6089992   1.8039978  42.6460014  21.2173859   1.4224064  42.1550305
  26.9859992   1.3939978  46.1810014  27.8599992   1.7829978  46.1520014
  26.8499992   1.1789978  47.1040014  27.0871953   1.4181643  46.3017617
  32.5429992   1.4239978  47.8310014  32.6189992   1.5199978  46.8810014
  32.2679992   0.5169978  47.9590014  32.5161871   1.3144146  47.7183944
  33.8959992   1.4499978  43.5230014  33.1929992   2.0649978  43.3130014
  33.4509992   0.6129978  43.6540014  33.7396550   1.4209668  43.5119837
  21.1439992  17.2139978  43.0690014  20.4589992  17.1759978  42.4020014
  21.1479992  18.1269978  43.3570014  21.0507621  17.3321924  43.0166126
  23.1039992   3.1819978  40.6140014  23.5949992   2.5519978  40.0870014
  23.7269992   3.4779978  41.2770014  23.2555304   3.1357376  40.6314940
  28.1299992   3.4749978  43.0710014  28.3079992   2.8279978  43.7540014
  28.0759992   4.3089978  43.5380014  28.1470678   3.4991604  43.2276301
  30.0079992  18.4229978  41.4670014  30.8739992  18.7899978  41.2890014
  29.7619992  17.9839978  40.6530014  30.0932097  18.4138525  41.3326019
  36.7169992  17.9859978  44.1460014  36.5229992  17.2379978  43.5810014
  36.6779992  18.7439978  43.5630014  36.6851645  17.9860786  43.9898148
  22.3639992   1.9819978  55.8860014  21.9979992   1.2159978  56.3280014
  23.2769992   2.0109978  56.1720014  22.4373172   1.8810324  55.9851890
  24.3369992   1.3319978  57.4210014  25.2359992   1.0579978  57.2370014
  23.9509992   0.5899978  57.8860014  24.4077307   1.1942196  57.4587098
  22.9619992  18.1339978  40.0940014  22.6939992  18.4199978  40.9680014
  23.7329992  17.5879978  40.2470014  23.0295926  18.0992779  40.2341205
  32.7589992   0.6649978  57.6040014  32.8349992   0.2389978  58.4570014
  33.6519992   0.6779978  57.2610014  32.8902303   0.6083493  57.6745497
  35.9349992  16.7379978  56.2960014  35.1529992  16.5509978  55.7760014
  35.8629992  17.6669978  56.5130014  35.8181924  16.8380637  56.2541602
  50.3409992  10.6239978  46.3270014  50.4299992  11.5679978  46.1950014
  49.7029992  10.3489978  45.6690014  50.2669062  10.7159812  46.2199641
  49.2739992   9.8789978  49.7460014  49.2359992   9.2329978  50.4510014
  48.9519992   9.4119978  48.9750014  49.2252679   9.7274276  49.7382921
  41.6419992   9.4929978  51.3390014  41.6839992   8.8679978  52.0620014
  42.3449992  10.1169978  51.5210014  41.7427345   9.4917873  51.4625274
  52.9799992  12.8179978  48.0470014  52.5389992  12.0979978  48.4980014
  52.9669992  13.5389978  48.6770014  52.9179215  12.8169291  48.1938105
  42.5659992  13.9429978  49.8740014  42.1959992  13.1409978  49.5040014
  43.5069992  13.7749978  49.9200014  42.6425984  13.8104638  49.8295603
  39.1759992   7.6029978  45.2660014  38.7279992   8.4489978  45.2480014
  38.6149992   7.0239978  44.7510014  39.0388546   7.6403993  45.1938891
  39.8859992   9.7649978  47.3920014  40.0999992   8.9949978  47.9200014
  40.6239992   9.8549978  46.7890014  40.0150200   9.6718587  47.3827035
  50.0919992  17.9219978  48.2590014  50.7109992  17.2459978  47.9860014
  49.8829992  17.7039978  49.1680014  50.1486056  17.7998869  48.3443967
  47.6629992  12.3109978  50.1520014  47.9669992  11.6249978  49.5570014
  48.3849992  12.4299978  50.7700014  47.8021240  12.2332314  50.1540959
  56.3259992   3.9129978  51.0120014  56.3759992   4.5229978  51.7480014
  56.7519992   4.3739978  50.2890014  56.3904108   4.0587709  51.0150112
  50.8039992   6.7049978  50.4790014  50.9469992   5.7589978  50.4990014
  50.6979992   6.9119978  49.5510014  50.8092403   6.6034797  50.3562239
  43.9589992   4.8069978  47.7520014  44.0019992   5.6669978  47.3330014
  43.5009992   4.2549978  47.1180014  43.9029871   4.8499245  47.6090761
  51.6809992   4.9379978  46.1530014  52.3279992   4.6089978  46.7770014
  52.1909992   5.4549978  45.5300014  51.8384351   4.9629067  46.1541037
  40.5789992   7.2039978  48.5140014  41.2329992   6.6539978  48.9460014
  40.6029992   6.9299978  47.5970014  40.6717199   7.0917167  48.4491668
  45.7359992   8.7539978  47.7290014  46.3519992   8.2269978  48.2380014
  45.1489992   8.1139978  47.3250014  45.7410154   8.5953954  47.7440945
  56.7179992   5.3909978  53.2480014  56.0289992   6.0489978  53.1530014
  56.7329992   5.1929978  54.1850014  56.6257756   5.4542603  53.3615812
  42.7689992   3.7249978  51.8260014  42.5499992   4.2549978  51.0590014
  42.1009992   3.9509978  52.4730014  42.6486975   3.8280967  51.8085140
  50.1379992  13.2249978  45.3700014  49.8429992  12.9019978  44.5180014
  49.8139992  14.1249978  45.4110014  50.0538460  13.3024464  45.2589714
  45.3379992  11.3999978  52.1130014  44.5979992  11.9989978  52.2170014
  46.0519992  11.9539978  51.7980014  45.3333500  11.5567829  52.0846371
  53.4449992   4.2289978  48.1330014  53.2299992   3.4629978  48.6660014
  54.1009992   4.7009978  48.6460014  53.5042673   4.1880728  48.2751990
  42.3629992   5.6169978  49.7780014  42.9769992   6.2499978  50.1510014
  42.8749992   5.1449978  49.1220014  42.5161962   5.6397249  49.7402935
  43.7459992  13.3649978  52.9000014  43.7399992  14.2439978  52.5220014
  42.8919992  13.2809978  53.3250014  43.6297925  13.4739535  52.9056887
  39.8669992  13.0359978  43.6820014  39.5949992  13.2649978  42.7940014
  39.9119992  13.8729978  44.1430014  39.8358097  13.1806163  43.6226683
  53.4919992  14.6569978  50.3950014  52.5499992  14.7159978  50.5570014
  53.7679992  15.5629978  50.2580014  53.4005865  14.7875288  50.3986192
  53.7919992   2.9439978  51.8120014  53.0559992   3.5539978  51.7750014
  54.4759992   3.3589978  51.2860014  53.7835367   3.0837551  51.7358174
  46.7959992   1.0299978  49.2780014  46.6779992   0.0819978  49.2240014
  45.9409992   1.3629978  49.5510014  46.6642805   0.9452202  49.3075079
  51.7439992  16.4379978  47.0200014  52.1689992  15.7309978  46.5350014
  52.0609992  17.2399978  46.6030014  51.8450266  16.4495190  46.8972479
  52.9039992  14.3389978  45.5290014  52.6459992  13.6489978  44.9170014
  52.9749992  13.8959978  46.3740014  52.8783050  14.1846814  45.5595621
  54.5899992  12.9059978  54.0060014  54.7289992  12.3139978  53.2670014
  54.7569992  13.7789978  53.6500014  54.6316193  12.9428896  53.8566211
  49.0619992   9.8679978  43.7790014  48.3509992  10.4029978  43.4270014
  49.7529992   9.9229978  43.1190014  49.0580751   9.9486777  43.6415858
  49.1159992   8.3249978  40.8170014  49.8169992   8.3479978  41.4690014
  49.4179992   7.6969978  40.1610014  49.2528202   8.2432212  40.8175609
  56.4309992   9.2459978  52.0720014  55.7789992   9.9399978  52.1610014
  56.8969992   9.4559978  51.2620014  56.4045937   9.3695019  51.9747533
  52.4679992  10.0769978  44.7300014  51.7359992  10.3059978  45.3040014
  52.9149992   9.3639978  45.1850014  52.4283963  10.0118729  44.8699945
  52.3649992   8.2519978  53.7980014  52.4449992   9.0149978  54.3700014
  51.7639992   8.5309978  53.1080014  52.2946547   8.3942457  53.7830047
  44.1129992  10.7079978  46.6130014  43.7829992  10.3369978  45.7950014
  44.7019992  10.0369978  46.9600014  44.1473970  10.5666063  46.5479404
  45.4799992  14.1359978  49.2940014  45.3849992  13.5569978  48.5380014
  46.2089992  13.7649978  49.7900014  45.5656011  14.0065561  49.2576028
  44.4799992   9.4759978  50.2460014  45.0449992   9.5979978  49.4840014
  44.7989992  10.1139978  50.8850014  44.6004166   9.5788791  50.2280348
  50.7889992  14.9799978  50.9800014  50.5489992  15.6419978  51.6280014
  50.5909992  14.1449978  51.4050014  50.7293826  14.9578115  51.1261566
  45.3599992  13.8759978  54.9640014  45.0489992  14.6579978  55.4190014
  44.7099992  13.7229978  54.2780014  45.2295538  13.9624087  54.9335898
  51.3389992   9.2399978  42.4160014  51.9179992   9.3899978  43.1620014
  51.7529992   9.7099978  41.6920014  51.4743358   9.3240954  42.4203953
  42.2799992  10.0739978  54.1920014  42.3499992  10.7249978  54.8910014
  41.3889992  10.1769978  53.8570014  42.1691690  10.1769249  54.2423043
  49.0649992  15.9759978  45.8510014  49.5389992  16.2719978  46.6280014
  48.5019992  16.7149978  45.6180014  49.0537890  16.1163036  45.9258101
  43.5989992  15.9469978  55.7270014  43.6069992  15.8109978  54.7800014
  42.6829992  15.8299978  55.9790014  43.4762528  15.9125463  55.6313243
  55.0379992   0.9899978  42.2290014  54.1379992   1.1289978  42.5240014
  55.2899992   1.8209978  41.8270014  54.9488683   1.1214055  42.2150232
  43.1039992   9.7769978  44.2020014  42.8119992  10.5449978  43.7110014
  42.4289992   9.1179978  44.0390014  42.9728497   9.7929745  44.1128260
  56.2269992  15.3559978  40.6050014  56.2999992  16.2949978  40.7750014
  57.1319992  15.0509978  40.5490014  56.3594170  15.4433282  40.6207063
  39.1969992  12.1399978  53.0170014  38.6949992  12.1119978  52.2020014
  39.2019992  11.2349978  53.3270014  39.1289832  12.0137486  52.9474121
  38.9469992  14.9209978  49.9010014  39.8929992  14.7759978  49.8820014
  38.8339992  15.7049978  50.4380014  39.0613578  15.0071697  49.9710317
  57.1449992  15.5869978  55.5840014  57.0949992  14.6309978  55.5460014
  56.3179992  15.8539978  55.9850014  57.0263831  15.4924680  55.6330121
  48.1229992  15.1609978  54.4600014  48.2109992  15.9869978  54.9350014
  47.2599992  14.8309978  54.7090014  48.0183357  15.2295468  54.5587653
  48.5379992  18.9329978  44.2660014  48.4619992  18.8119978  43.3190014
  48.5699992  19.8819978  44.3840014  48.5319380  19.0447677  44.1525181
  42.1909992  17.7219978  46.0470014  42.3429992  17.3739978  46.9250014
  41.3399992  17.3649978  45.7910014  42.0968344  17.6260879  46.1326868
  51.6389992  18.0869978  41.2680014  52.0139992  17.3429978  40.7970014
  51.6439992  17.8169978  42.1860014  51.6910098  17.9486392  41.3276629
  51.3079992  18.0129978  44.0170014  50.3729992  18.1129978  44.1960014
  51.5879992  17.3029978  44.5960014  51.2179471  17.9307933  44.1196695
  54.2969992   7.0799978  56.0640014  53.8889992   7.5599978  55.3430014
  54.3369992   6.1739978  55.7560014  54.2466221   7.0232449  55.9238267
  41.4459992  13.4639978  54.0600014  41.6619992  13.1019978  54.9200014
  40.5899992  13.0889978  53.8510014  41.3598810  13.3638837  54.1492680
  44.0639992   1.9339978  50.0560014  43.2029992   1.8469978  49.6480014
  44.0419992   2.7899978  50.4840014  43.9430491   2.0378003  50.0579582
  48.7269992   1.6559978  53.4310014  49.1469992   1.2409978  54.1840014
  47.7939992   1.4769978  53.5480014  48.6583736   1.5749910  53.5498968
  52.0539992   5.4109978  54.2840014  51.5399992   5.2859978  55.0820014
  51.8979992   6.3239978  54.0400014  51.9626967   5.5172123  54.3600937
  52.8159992  10.2719978  40.0450014  52.8579992  10.0499978  39.1150014
  53.6649992  10.6709978  40.2350014  52.9365253  10.2955498  39.9433822
  48.3889992   4.1479978  40.7160014  48.1349992   4.1669978  41.6380014
  48.1319992   3.2769978  40.4140014  48.3194508   4.0328280  40.8014803
  44.1549992   6.8989978  51.1510014  43.5139992   6.8589978  51.8600014
  44.1929992   7.8259978  50.9130014  44.0723010   7.0187668  51.2159946
  44.1519992   7.1199978  46.0630014  43.2599992   6.7799978  46.0040014
  44.6029992   6.7429978  45.3070014  44.0907642   7.0224910  45.9527726
  49.6879992   7.5359978  44.8800014  49.2789992   8.3509978  44.5880014
  50.4079992   7.3959978  44.2660014  49.7294439   7.6285372  44.7570115
  48.7899992   7.7119978  56.3680014  48.2269992   7.0069978  56.6890014
  49.6159992   7.5909978  56.8360014  48.8246674   7.5992165  56.4751751
  50.6929992   6.9819978  47.6940014  50.4969992   7.5879978  46.9790014
  50.8739992   6.1489978  47.2600014  50.6906584   6.9522513  47.5374212
  41.9049992   7.2199978  53.0180014  41.8669992   7.6199978  53.8870014
  41.4149992   6.4029978  53.1080014  41.8335330   7.1642674  53.1491289
  45.2709992   4.5939978  39.8170014  44.8399992   4.1489978  40.5460014
  44.5529992   4.9649978  39.3040014  45.1149176   4.5832051  39.8474930
  38.5139992   4.3359978  46.8690014  39.1439992   4.3069978  47.5880014
  38.9629992   3.9109978  46.1380014  38.6610835   4.2745660  46.8687659
  39.7879992   5.0819978  42.2930014  40.2619992   5.6729978  41.7080014
  39.0699992   5.6119978  42.6400014  39.7558640   5.2345511  42.2597969
  49.9569992   8.6199978  52.3650014  50.2799992   7.9889978  51.7220014
  49.5159992   8.0859978  53.0260014  49.9416379   8.4613468  52.3662582
  46.7339992   4.5479978  47.1490014  45.8229992   4.6049978  47.4380014
  47.2389992   4.4879978  47.9600014  46.6776873   4.5476826  47.2981207
  41.5619992   6.1769978  45.9760014  40.6729992   6.2759978  45.6360014
  41.8589992   5.3349978  45.6300014  41.4804177   6.0767687  45.8826940
  45.2149992   6.1769978  43.6330014  46.1469992   6.3059978  43.8110014
  44.9999992   6.8459978  42.9830014  45.3134472   6.2850806  43.5694891
  51.1389992   3.7829978  50.4140014  50.4619992   3.9139978  51.0770014
  50.6539992   3.6279978  49.6030014  50.9807405   3.7799947  50.3952170
  43.8889992   7.3709978  41.1990014  43.3469992   6.9919978  40.5080014
  44.7229992   7.5659978  40.7710014  43.9274390   7.3454079  41.0464392
  54.4269992  19.4539978  56.6900014  54.6259992  19.8779978  55.8560014
  55.0819992  19.7979978  57.2970014  54.5428522  19.5586301  56.6577852
  42.0249992  11.9279978  56.2980014  42.7569992  12.1829978  56.8600014
  41.2439992  12.1329978  56.8140014  42.0196526  11.9905450  56.4445176
  48.0539992   7.3349978  49.0360014  48.6179992   6.7889978  48.4890014
  47.9059992   6.8139978  49.8250014  48.1113037   7.1896787  49.0677229
  43.0559992   3.4719978  45.4550014  42.7389992   2.5689978  45.4190014
  43.8369992   3.4739978  44.9020014  43.1182431   3.3487797  45.3753102
  46.6799992   5.7239978  51.4500014  45.8449992   6.1779978  51.5610014
  47.2039992   5.9999978  52.2020014  46.6366072   5.8233948  51.5668136
  47.2249992  11.9369978  43.1350014  46.4799992  11.4289978  42.8130014
  47.0899992  11.9859978  44.0810014  47.1048963  11.8741731  43.2188826
  54.3749992  11.0699978  51.9220014  55.0159992  11.5259978  51.3780014
  53.5439992  11.1829978  51.4590014  54.3505287  11.1476921  51.7849887
  51.1219992   4.7509978  41.3340014  50.1839992   4.8619978  41.1830014
  51.4199992   5.6069978  41.6410014  51.0336318   4.8820158  41.3548145
  48.7439992  12.1209978  54.3720014  48.3979992  11.7389978  55.1790014
  48.5439992  13.0539978  54.4430014  48.6695987  12.1949002  54.4920461
  51.8409992   6.6179978  42.9950014  52.7329992   6.4799978  43.3140014
  51.8969992   7.4089978  42.4580014  51.9707325   6.7059918  42.9661217
  42.3489992  11.2319978  48.9050014  43.0939992  11.2289978  48.3030014
  42.4269992  10.4079978  49.3860014  42.4613365  11.1202384  48.8877430
  49.3499992  13.3949978  42.1600014  49.0549992  14.2219978  42.5420014
  48.6469992  12.7759978  42.3570014  49.2146379  13.4244171  42.2388654
  39.3569992   9.6919978  54.2200014  39.5799992   9.2739978  55.0510014
  38.7549992   9.0799978  53.7970014  39.3061513   9.5519606  54.2766740
  46.3739992   9.2089978  56.4330014  46.0779992   9.0439978  55.5370014
  47.3049992   8.9889978  56.4220014  46.4594401   9.1566879  56.3090206
  50.9939992  14.5829978  54.3220014  50.0939992  14.7659978  54.0550014
  51.0279992  14.8419978  55.2430014  50.8753748  14.6430554  54.4099164
  56.7259992   6.8269978  42.6900014  56.1709992   6.4309978  42.0170014
  56.8259992   7.7379978  42.4120014  56.6636816   6.8959505  42.5605033
  56.6889992  12.6279978  55.5270014  55.8379992  12.8659978  55.1590014
  57.2789992  12.6109978  54.7740014  56.6523812  12.6582524  55.3748453
  55.0209992  15.6129978  43.1550014  54.6479992  14.7879978  43.4640014
  55.2979992  15.4299978  42.2570014  55.0073463  15.4752569  43.0759525
  52.1809992  10.4209978  50.1760014  51.2529992  10.1899978  50.1490014
  52.6319992   9.6439978  49.8460014  52.1148165  10.2842774  50.1276790
  44.7239992  14.7499978  46.3090014  45.2519992  15.5229978  46.1090014
  43.8439992  14.9739978  46.0070014  44.6773435  14.8862700  46.2407310
  40.4789992   9.6119978  40.8960014  41.0949992  10.2389978  41.2760014
  39.6169992   9.9279978  41.1680014  40.4467678   9.7404412  40.9847209
  46.1519992  12.4129978  45.8850014  45.9109992  13.3379978  45.9270014
  45.4109992  11.9539978  46.2820014  46.0189206  12.4775915  45.9443769
  46.6659992  16.5619978  52.2000014  47.0289992  17.4159978  51.9670014
  47.1979992  16.2699978  52.9410014  46.7875141  16.6393895  52.2682097
  44.8349992  17.4339978  45.4310014  43.8849992  17.5399978  45.4820014
  45.1869992  18.2549978  45.7750014  44.7525472  17.5594923  45.4844852
  50.2099992  12.6609978  51.9010014  49.7849992  12.4329978  52.7270014
  50.7909992  11.9219978  51.7190014  50.2303395  12.5299545  51.9894414
  52.4129992  13.5899978  40.9750014  52.7669992  13.2099978  41.7790014
  51.4649992  13.4959978  41.0620014  52.3332298  13.5252452  41.0968687
  52.8689992  17.2129978  54.3700014  52.2669992  16.6569978  53.8750014
  53.1499992  17.8799978  53.7440014  52.8245757  17.2270744  54.2175675
  56.9169992  18.0689978  41.1760014  57.6609992  18.6549978  41.0360014
  56.2229992  18.6379978  41.5090014  56.9249809  18.2260818  41.2018590
  40.9909992   4.4459978  53.7780014  40.0989992   4.7839978  53.7100014
  40.8929992   3.5899978  54.1960014  40.8554475   4.3766543  53.8251704
  53.2789992  12.2619978  43.2020014  53.0019992  11.5339978  43.7580014
  54.2069992  12.3809978  43.4070014  53.3664499  12.1784213  43.3058044
  40.6429992  16.2499978  52.2130014  40.8599992  15.3179978  52.1820014
  40.8889992  16.5249978  53.0960014  40.7059809  16.1595686  52.3281690
  46.5039992  14.7019978  39.4220014  46.7429992  13.9529978  38.8750014
  46.2349992  14.3139978  40.2550014  46.5003233  14.5471853  39.4597809
  45.4409992  14.2719978  41.8780014  45.5879992  13.7519978  42.6680014
  45.4379992  15.1789978  42.1850014  45.4607102  14.3233953  42.0275925
  41.8939992  11.5239978  42.3890014  41.2079992  11.8769978  42.9560014
  42.4169992  12.2869978  42.1420014  41.8708402  11.6753901  42.4331801
  49.7259992   4.1869978  52.6680014  50.4249992   4.2609978  53.3180014
  49.3449992   3.3219978  52.8220014  49.7702097   4.0802389  52.7777997
  50.5099992   3.8389978  43.7650014  50.7299992   4.3099978  42.9610014
  51.0689992   4.2329978  44.4350014  50.6156731   3.9567287  43.7455033
  48.1789992  15.9689978  42.6280014  47.3619992  16.4659978  42.6800014
  48.7079992  16.4449978  41.9870014  48.1388125  16.1011989  42.5485306
  47.7099992   5.5669978  44.6000014  48.5219992   6.0709978  44.6460014
  47.4659992   5.4219978  45.5140014  47.7881467   5.6163749  44.7298575
  48.2459992   6.5529978  53.7840014  48.3649992   7.1269978  54.5410014
  48.9009992   5.8649978  53.8990014  48.3508684   6.5385194  53.9031674
  48.5939992   2.6479978  45.5380014  48.2469992   3.2649978  46.1820014
  49.2529992   3.1489978  45.0560014  48.6355090   2.8001575  45.5610681
  45.5169992  17.0129978  42.6090014  45.6779992  17.8129978  42.1090014
  45.3199992  17.3199978  43.4940014  45.5123906  17.1638678  42.6602333
  44.2519992   3.7109978  42.2250014  44.1679992   4.5989978  42.5720014
  45.1419992   3.4459978  42.4570014  44.3608163   3.7967179  42.3038596
  54.4499992   4.4599978  54.6190014  53.5339992   4.7219978  54.5320014
  54.7859992   4.4569978  53.7230014  54.3698499   4.4955163  54.4858766
  53.0529992   8.2099978  48.7150014  52.2549992   7.7949978  48.3870014
  53.4979992   7.5199978  49.2060014  53.0039684   8.0598628  48.7365227
  42.5099992  14.1379978  41.2850014  43.1019992  14.8379978  41.5620014
  42.9689992  13.7049978  40.5660014  42.6531652  14.1752675  41.2256533
  40.8259992   6.8029978  40.4010014  40.7809992   7.7419978  40.5800014
  39.9379992   6.5669978  40.1320014  40.6998166   6.8996687  40.3891524
  54.1389992  17.4659978  50.3370014  53.9829992  18.1449978  49.6800014
  55.0719992  17.5379978  50.5400014  54.2437387  17.5686390  50.2745342
  41.6339992   1.5839978  49.0750014  41.4049992   1.6429978  48.1470014
  41.1919992   0.7929978  49.3810014  41.5428801   1.4850540  48.9894729
  40.5649992  15.5249978  45.2350014  39.7319992  15.9969978  45.2620014
  41.1099992  16.0349978  44.6360014  40.5247857  15.6584791  45.1577142
  39.8529992  18.1369978  56.5650014  40.3929992  17.9209978  57.3250014
  39.3719992  17.3319978  56.3750014  39.8619219  17.9985156  56.6434282
  44.4499992  17.0569978  58.1850014  45.2179992  16.5979978  58.5260014
  44.4289992  16.8309978  57.2550014  44.5522135  16.9636668  58.1059491
  48.5419992  16.5649978  39.5610014  47.8979992  15.9339978  39.8820014
  49.3039992  16.0339978  39.3290014  48.5568058  16.4067902  39.5736038
  51.0269992  15.4369978  56.9140014  50.6759992  14.5799978  57.1580014
  51.7529992  15.5789978  57.5210014  51.0771895  15.3391351  57.0293770
  53.1469992  16.3819978  39.7940014  53.4299992  15.5869978  40.2470014
  53.8859992  16.6149978  39.2330014  53.2857096  16.3047049  39.7801104
  39.7599992  11.9479978  57.5190014  39.9039992  11.0459978  57.2330014
  38.9879992  12.2339978  57.0320014  39.6752733  11.8631798  57.4139532
  44.1009992  12.2909978  39.6520014  44.1659992  11.4969978  40.1820014
  44.7539992  12.1729978  38.9620014  44.1981605  12.1663430  39.6312997
  46.4149992  11.9169978  56.9520014  46.0869992  12.1879978  56.0950014
  46.5669992  10.9759978  56.8640014  46.3906412  11.8269046  56.8227822
  49.4539992  13.3379978  39.3880014  49.1849992  13.5189978  40.2880014
  49.2469992  12.4129978  39.2560014  49.3891191  13.2377119  39.4935524
  52.1499992  11.8329978  54.3350014  52.8949992  12.4219978  54.2160014
  51.3929992  12.4149978  54.3990014  52.1495470  11.9922128  54.3273799
  40.5929992   9.1479978  56.9390014  41.0009992   8.2909978  56.8180014
  40.3319992   9.1619978  57.8600014  40.6136016   9.0325119  57.0469192
  45.2509992  10.2639978  41.9580014  44.7909992   9.7799978  42.6430014
  45.5059992   9.5949978  41.3220014  45.2224856  10.1073669  41.9658397
  44.5399992   8.1569978  54.3140014  43.9209992   8.8309978  54.5940014
  44.8839992   8.4779978  53.4800014  44.5017123   8.2926887  54.2396388
  46.3219992   8.5069978  40.2200014  46.1409992   8.3519978  39.2930014
  47.2719992   8.6149978  40.2650014  46.4256566   8.5003669  40.0990929
  49.5589992  10.6279978  57.5910014  50.5129992  10.7119978  57.5640014
  49.3989992   9.9159978  58.2110014  49.6677182  10.5432842  57.6710733
  55.7119992  10.8609978  39.6660014  55.4379992  10.4369978  38.8530014
  55.7509992  11.7929978  39.4490014  55.6797716  10.9288827  39.5254286
  44.8789992   5.5119978  55.3960014  45.0289992   4.7829978  54.7940014
  44.8809992   6.2889978  54.8370014  44.8997967   5.5172708  55.2380541
  45.2919992   3.8809978  52.8890014  45.8269992   4.3329978  52.2370014
  44.4389992   3.7729978  52.4660014  45.2500374   3.9282665  52.7426710
  46.8729992   9.3209978  53.1280014  47.6239992   9.1649978  52.5550014
  46.5339992  10.1729978  52.8530014  46.9299587   9.4148138  53.0124078
  51.2889992   7.1359978  58.1570014  51.4809992   6.2049978  58.0450014
  52.1469992   7.5609978  58.1460014  51.4312182   7.0660070  58.1401862
  52.6059992   9.9249978  56.2340014  52.3239992  10.6339978  55.6560014
  53.5479992   9.8519978  56.0830014  52.6947921  10.0122193  56.1344225
  43.3579992   6.7099978  57.3070014  42.5899992   6.1769978  57.0970014
  44.0359992   6.3999978  56.7080014  43.3447235   6.5951754  57.1972413
  46.0969992   1.3379978  53.3200014  45.9989992   2.2839978  53.2150014
  45.3549992   0.9649978  52.8440014  45.9832534   1.4171773  53.2412600
  47.3609992   5.6589978  56.8840014  47.1259992   5.4399978  57.7850014
  46.5779992   5.4519978  56.3740014  47.2229095   5.6009892  56.9385353
  50.0769992   4.7869978  55.9590014  49.1289992   4.8189978  56.0910014
  50.3889992   4.1609978  56.6130014  49.9895293   4.7067923  56.0654148
  51.7109992   3.4209978  57.9640014  51.6139992   2.4689978  57.9590014
  51.3889992   3.6889978  58.8250014  51.6542468   3.3270884  58.0796210
  41.5379992   4.6299978  57.0120014  41.7499992   3.9239978  56.4020014
  41.4269992   4.1929978  57.8560014  41.5520269   4.4741921  57.0425873
  46.3189992   0.6319978  55.9910014  47.0309992  -0.0080022  55.9770014
  46.2179992   0.8979978  55.0780014  46.4027387   0.5804330  55.8655563
  46.6729992   2.3139978  58.0450014  46.5409992   1.8389978  57.2250014
  46.0729992   3.0589978  57.9900014  46.5739070   2.3495789  57.9253251
  46.2189992  19.1969978  41.2210014  47.1519992  19.3549978  41.3650014
  45.9549992  19.8729978  40.5960014  46.3109911  19.3099373  41.1562722
  39.7869992  13.8339978  40.7040014  40.7009992  13.9129978  40.9770014
  39.7949992  13.1469978  40.0380014  39.9130655  13.7519205  40.6512917
  38.4359992  19.2269978  45.7810014  37.7889992  18.7649978  45.2490014
  38.7909992  18.5549978  46.3640014  38.3953741  19.0729774  45.7869175
  39.3059992  17.3069978  47.5860014  38.9719992  16.4269978  47.7580014
  39.5289992  17.6529978  48.4510014  39.2903721  17.2331938  47.7264168
  56.8549992  18.1169978  50.5670014  56.8329992  18.3019978  51.5060014
  57.5449992  18.6849978  50.2260014  56.9453439  18.2191887  50.6494791
  56.4179992  17.6839978  53.4880014  55.9309992  16.9489978  53.1170014
  56.9669992  17.2899978  54.1660014  56.4255247  17.5301057  53.5288461
  54.8689992  13.4739978  58.1270014  54.0029992  13.3689978  58.5210014
  55.2449992  14.2319978  58.5730014  54.8013401  13.5621708  58.2412620
  56.1699992  11.7299978  43.6410014  57.0199992  12.1509978  43.7680014
  56.1749992  10.9899978  44.2480014  56.2871143  11.6876094  43.7404750
  56.5639992   9.7839978  45.4640014  55.8379992   9.3039978  45.8620014
  57.1459992   9.9889978  46.1970014  56.5432730   9.7460184  45.6174149
  56.3229992  12.5689978  50.4120014  57.1569992  12.1909978  50.1310014
  56.4349992  13.5119978  50.2930014  56.4521917  12.6447943  50.3574861
  54.8099992  15.4469978  52.7190014  54.1619992  15.7719978  53.3440014
  54.2919992  15.0059978  52.0450014  54.6514196  15.4318651  52.7134152
  56.8329992   9.6849978  41.8550014  56.3109992  10.0409978  41.1370014
  56.7999992  10.3599978  42.5340014  56.7570129   9.8249598  41.8483355
  55.1819992   6.9239978  40.4060014  55.2779992   7.5909978  39.7260014
  55.0419992   6.1089978  39.9250014  55.1762040   6.9050671  40.2478378
  54.3509992   8.3049978  46.0270014  54.2009992   7.3599978  46.0070014
  53.9969992   8.5859978  46.8710014  54.2826351   8.2136644  46.1383220
  39.3859992  10.3829978  50.0380014  39.5709992  10.3009978  49.1020014
  40.2359992  10.2589978  50.4610014  39.5260928  10.3550463  49.9672893
  55.2069992  10.2749978  55.6660014  55.7899992   9.5399978  55.8580014
  55.7709992  11.0469978  55.7130014  55.3629781  10.2788145  55.6986164
  56.7039992   8.1779978  56.3510014  55.8409992   7.7989978  56.1850014
  57.3079992   7.4389978  56.2760014  56.6676085   8.0263223  56.3181694
  54.4289992   4.3319978  39.5240014  55.0399992   3.9609978  40.1610014
  53.5919992   3.9109978  39.7200014  54.3994947   4.2242756  39.6377252
  54.0619992   5.8869978  44.4900014  54.3409992   4.9799978  44.6140014
  54.8209992   6.3209978  44.1010014  54.2028619   5.8214502  44.4543795
  54.6729992   6.4689978  49.9260014  55.6059992   6.6809978  49.8910014
  54.4379992   6.5699978  50.8480014  54.7689517   6.5116833  50.0459130
  54.7029992   7.2059978  52.7020014  53.8599992   7.4739978  53.0680014
  55.1449992   8.0279978  52.4910014  54.6474138   7.3538273  52.7235518
  38.9839992   5.6529978  56.1780014  39.9029992   5.5309978  56.4150014
  38.5339992   4.9029978  56.5680014  39.0490087   5.5349608  56.2631410
  56.9859992   1.1859978  58.0550014  57.3349992   0.5319978  57.4500014
  57.1329992   2.0229978  57.6150014  57.0536824   1.2096024  57.9126304
  54.6749992   3.1499978  44.5380014  54.8569992   2.7009978  45.3630014
  54.0749992   2.5659978  44.0740014  54.6188187   3.0095552  44.5882739
  40.2049992   3.9659978  49.0700014  40.6499992   3.1739978  49.3720014
  40.6709992   4.6819978  49.5000014  40.3289718   3.9544534  49.1695265
  38.5089992   6.9649978  50.1390014  39.0009992   6.7439978  49.3480014
  38.8709992   7.8049978  50.4200014  38.6252923   7.0483468  50.0687407
  56.5049992   3.2949978  56.4040014  55.5879992   3.5659978  56.3690014
  56.6279992   2.7599978  55.6200014  56.3959672   3.2597885  56.2931862
  56.5419992   3.2179978  41.0660014  56.9539992   2.4969978  40.5910014
  57.2229992   3.8869978  41.1240014  56.6905536   3.2097766  41.0088024
  38.8229992   3.2229978  44.1930014  37.8979992   3.4309978  44.0640014
  39.2769992   3.7069978  43.5030014  38.7576298   3.3169299  44.0820451
  53.5929992  18.2069978  46.1390014  54.2459992  17.8589978  45.5310014
  54.1039992  18.6949978  46.7850014  53.7512777  18.2253815  46.1432047
  38.7859992   1.9609978  52.5370014  38.1209992   1.7149978  53.1800014
  38.3429992   2.5829978  51.9600014  38.6351168   2.0114214  52.5469848
  40.9779992  15.1359978  56.6820014  40.1569992  15.3109978  56.2210014
  40.7259992  15.0629978  57.6020014  40.8315594  15.1500717  56.7433611
  43.9319992  16.1099978  52.9400014  43.5079992  16.9199978  52.6580014
  44.8369992  16.1959978  52.6380014  43.9962138  16.2324160  52.8606415
  48.2439992  17.5089978  55.9000014  48.4279992  17.1759978  56.7780014
  49.0899992  17.8189978  55.5780014  48.3836484  17.5052979  55.9767617
  50.5889992  18.7949978  55.1440014  51.2659992  18.1619978  54.9040014
  50.9099992  19.1959978  55.9510014  50.7251323  18.7625691  55.2203158
  55.5059992   1.3849978  54.2230014  54.6929992   1.7099978  53.8360014
  55.7389992   0.6239978  53.6900014  55.4261347   1.3266880  54.0979841
  41.3339992  19.3669978  52.9880014  40.6139992  19.8069978  52.5370014
  40.9689992  19.1159978  53.8360014  41.1859643  19.3933369  53.0409129
  43.8009992  18.9669978  52.0180014  42.9369992  19.0389978  52.4220014
  43.7459992  19.5139978  51.2340014  43.6751942  19.0507849  51.9674000
  48.5119992  18.8549978  51.1930014  48.0549992  19.3839978  50.5390014
  48.6749992  19.4579978  51.9180014  48.4714960  19.0089280  51.2015274
  50.8399992  17.7329978  52.1380014  49.9349992  17.8979978  51.8720014
  51.2679992  18.5859978  52.0720014  50.7741537  17.8709134  52.0927095
  53.4439992  19.3029978  52.4330014  53.2619992  20.2189978  52.2220014
  53.6209992  18.8919978  51.5860014  53.4430030  19.3728273  52.2897166
  40.7489992  17.9899978  49.8980014  40.7309992  17.5639978  50.7550014
  41.5539992  17.6709978  49.4890014  40.8552875  17.8886435  49.9599515
  42.8899992  16.6999978  48.5530014  42.6709992  15.7829978  48.7230014
  43.7139992  16.8399978  49.0190014  42.9714702  16.5935511  48.6392527
  45.4269992  17.1699978  49.4020014  45.6399992  16.2819978  49.1150014
  45.4919992  17.1349978  50.3560014  45.4649149  17.0438326  49.4917369
  48.9359992   2.8339978  48.5460014  48.2619992   2.2039978  48.8020014
  49.4999992   2.3499978  47.9430014  48.9200384   2.6823708  48.4995020
  54.0789992   0.9409978  48.6590014  54.6819992   1.4889978  48.1570014
  53.2089992   1.2599978  48.4180014  54.0439157   1.0590373  48.5577910
  55.8059992   2.0799978  46.9920014  56.4169992   1.5659978  46.4650014
  56.1879992   2.9569978  47.0150014  55.9413305   2.1282050  46.9229418
  41.2629992   1.4679978  46.3680014  40.4859992   1.2329978  45.8610014
  41.7929992   0.6709978  46.3770014  41.2283451   1.3281268  46.2998627
  40.0989992   1.2659978  42.1720014  40.5379992   1.8769978  41.5800014
  39.4649992   1.8039978  42.6460014  40.0733859   1.4224064  42.1550305
  45.8419992   1.3939978  46.1810014  46.7159992   1.7829978  46.1520014
  45.7059992   1.1789978  47.1040014  45.9431953   1.4181643  46.3017617
  51.3989992   1.4239978  47.8310014  51.4749992   1.5199978  46.8810014
  51.1239992   0.5169978  47.9590014  51.3721871   1.3144146  47.7183944
  52.7519992   1.4499978  43.5230014  52.0489992   2.0649978  43.3130014
  52.3069992   0.6129978  43.6540014  52.5956550   1.4209668  43.5119837
  39.9999992  17.2139978  43.0690014  39.3149992  17.1759978  42.4020014
  40.0039992  18.1269978  43.3570014  39.9067621  17.3321924  43.0166126
  41.9599992   3.1819978  40.6140014  42.4509992   2.5519978  40.0870014
  42.5829992   3.4779978  41.2770014  42.1115304   3.1357376  40.6314940
  46.9859992   3.4749978  43.0710014  47.1639992   2.8279978  43.7540014
  46.9319992   4.3089978  43.5380014  47.0030678   3.4991604  43.2276301
  48.8639992  18.4229978  41.4670014  49.7299992  18.7899978  41.2890014
  48.6179992  17.9839978  40.6530014  48.9492097  18.4138525  41.3326019
  55.5729992  17.9859978  44.1460014  55.3789992  17.2379978  43.5810014
  55.5339992  18.7439978  43.5630014  55.5411645  17.9860786  43.9898148
  41.2199992   1.9819978  55.8860014  40.8539992   1.2159978  56.3280014
  42.1329992   2.0109978  56.1720014  41.2933172   1.8810324  55.9851890
  43.1929992   1.3319978  57.4210014  44.0919992   1.0579978  57.2370014
  42.8069992   0.5899978  57.8860014  43.2637307   1.1942196  57.4587098
  41.8179992  18.1339978  40.0940014  41.5499992  18.4199978  40.9680014
  42.5889992  17.5879978  40.2470014  41.8855926  18.0992779  40.2341205
  51.6149992   0.6649978  57.6040014  51.6909992   0.2389978  58.4570014
  52.5079992   0.6779978  57.2610014  51.7462303   0.6083493  57.6745497
  54.7909992  16.7379978  56.2960014  54.0089992  16.5509978  55.7760014
  54.7189992  17.6669978  56.5130014  54.6741924  16.8380637  56.2541602
  69.1969992  10.6239978  46.3270014  69.2859992  11.5679978  46.1950014
  68.5589992  10.3489978  45.6690014  69.1229062  10.7159812  46.2199641
  68.1299992   9.8789978  49.7460014  68.0919992   9.2329978  50.4510014
  67.8079992   9.4119978  48.9750014  68.0812679   9.7274276  49.7382921
  60.4979992   9.4929978  51.3390014  60.5399992   8.8679978  52.0620014
  61.2009992  10.1169978  51.5210014  60.5987345   9.4917873  51.4625274
  71.8359992  12.8179978  48.0470014  71.3949992  12.0979978  48.4980014
  71.8229992  13.5389978  48.6770014  71.7739215  12.8169291  48.1938105
  61.4219992  13.9429978  49.8740014  61.0519992  13.1409978  49.5040014
  62.3629992  13.7749978  49.9200014  61.4985984  13.8104638  49.8295603
  58.0319992   7.6029978  45.2660014  57.5839992   8.4489978  45.2480014
  57.4709992   7.0239978  44.7510014  57.8948546   7.6403993  45.1938891
  58.7419992   9.7649978  47.3920014  58.9559992   8.9949978  47.9200014
  59.4799992   9.8549978  46.7890014  58.8710200   9.6718587  47.3827035
  68.9479992  17.9219978  48.2590014  69.5669992  17.2459978  47.9860014
  68.7389992  17.7039978  49.1680014  69.0046056  17.7998869  48.3443967
  66.5189992  12.3109978  50.1520014  66.8229992  11.6249978  49.5570014
  67.2409992  12.4299978  50.7700014  66.6581240  12.2332314  50.1540959
  75.1819992   3.9129978  51.0120014  75.2319992   4.5229978  51.7480014
  75.6079992   4.3739978  50.2890014  75.2464108   4.0587709  51.0150112
  69.6599992   6.7049978  50.4790014  69.8029992   5.7589978  50.4990014
  69.5539992   6.9119978  49.5510014  69.6652403   6.6034797  50.3562239
  62.8149992   4.8069978  47.7520014  62.8579992   5.6669978  47.3330014
  62.3569992   4.2549978  47.1180014  62.7589871   4.8499245  47.6090761
  70.5369992   4.9379978  46.1530014  71.1839992   4.6089978  46.7770014
  71.0469992   5.4549978  45.5300014  70.6944351   4.9629067  46.1541037
  59.4349992   7.2039978  48.5140014  60.0889992   6.6539978  48.9460014
  59.4589992   6.9299978  47.5970014  59.5277199   7.0917167  48.4491668
  64.5919992   8.7539978  47.7290014  65.2079992   8.2269978  48.2380014
  64.0049992   8.1139978  47.3250014  64.5970154   8.5953954  47.7440945
  75.5739992   5.3909978  53.2480014  74.8849992   6.0489978  53.1530014
  75.5889992   5.1929978  54.1850014  75.4817756   5.4542603  53.3615812
  61.6249992   3.7249978  51.8260014  61.4059992   4.2549978  51.0590014
  60.9569992   3.9509978  52.4730014  61.5046975   3.8280967  51.8085140
  68.9939992  13.2249978  45.3700014  68.6989992  12.9019978  44.5180014
  68.6699992  14.1249978  45.4110014  68.9098460  13.3024464  45.2589714
  64.1939992  11.3999978  52.1130014  63.4539992  11.9989978  52.2170014
  64.9079992  11.9539978  51.7980014  64.1893500  11.5567829  52.0846371
  72.3009992   4.2289978  48.1330014  72.0859992   3.4629978  48.6660014
  72.9569992   4.7009978  48.6460014  72.3602673   4.1880728  48.2751990
  61.2189992   5.6169978  49.7780014  61.8329992   6.2499978  50.1510014
  61.7309992   5.1449978  49.1220014  61.3721962   5.6397249  49.7402935
  62.6019992  13.3649978  52.9000014  62.5959992  14.2439978  52.5220014
  61.7479992  13.2809978  53.3250014  62.4857925  13.4739535  52.9056887
  58.7229992  13.0359978  43.6820014  58.4509992  13.2649978  42.7940014
  58.7679992  13.8729978  44.1430014  58.6918097  13.1806163  43.6226683
  72.3479992  14.6569978  50.3950014  71.4059992  14.7159978  50.5570014
  72.6239992  15.5629978  50.2580014  72.2565865  14.7875288  50.3986192
  72.6479992   2.9439978  51.8120014  71.9119992   3.5539978  51.7750014
  73.3319992   3.3589978  51.2860014  72.6395367   3.0837551  51.7358174
  65.6519992   1.0299978  49.2780014  65.5339992   0.0819978  49.2240014
  64.7969992   1.3629978  49.5510014  65.5202805   0.9452202  49.3075079
  70.5999992  16.4379978  47.0200014  71.0249992  15.7309978  46.5350014
  70.9169992  17.2399978  46.6030014  70.7010266  16.4495190  46.8972479
  71.7599992  14.3389978  45.5290014  71.5019992  13.6489978  44.9170014
  71.8309992  13.8959978  46.3740014  71.7343050  14.1846814  45.5595621
  73.4459992  12.9059978  54.0060014  73.5849992  12.3139978  53.2670014
  73.6129992  13.7789978  53.6500014  73.4876193  12.9428896  53.8566211
  67.9179992   9.8679978  43.7790014  67.2069992  10.4029978  43.4270014
  68.6089992   9.9229978  43.1190014  67.9140751   9.9486777  43.6415858
  67.9719992   8.3249978  40.8170014  68.6729992   8.3479978  41.4690014
  68.2739992   7.6969978  40.1610014  68.1088202   8.2432212  40.8175609
  75.2869992   9.2459978  52.0720014  74.6349992   9.9399978  52.1610014
  75.7529992   9.4559978  51.2620014  75.2605937   9.3695019  51.9747533
  71.3239992  10.0769978  44.7300014  70.5919992  10.3059978  45.3040014
  71.7709992   9.3639978  45.1850014  71.2843963  10.0118729  44.8699945
  71.2209992   8.2519978  53.7980014  71.3009992   9.0149978  54.3700014
  70.6199992   8.5309978  53.1080014  71.1506547   8.3942457  53.7830047
  62.9689992  10.7079978  46.6130014  62.6389992  10.3369978  45.7950014
  63.5579992  10.0369978  46.9600014  63.0033970  10.5666063  46.5479404
  64.3359992  14.1359978  49.2940014  64.2409992  13.5569978  48.5380014
  65.0649992  13.7649978  49.7900014  64.4216011  14.0065561  49.2576028
  63.3359992   9.4759978  50.2460014  63.9009992   9.5979978  49.4840014
  63.6549992  10.1139978  50.8850014  63.4564166   9.5788791  50.2280348
  69.6449992  14.9799978  50.9800014  69.4049992  15.6419978  51.6280014
  69.4469992  14.1449978  51.4050014  69.5853826  14.9578115  51.1261566
  64.2159992  13.8759978  54.9640014  63.9049992  14.6579978  55.4190014
  63.5659992  13.7229978  54.2780014  64.0855538  13.9624087  54.9335898
  70.1949992   9.2399978  42.4160014  70.7739992   9.3899978  43.1620014
  70.6089992   9.7099978  41.6920014  70.3303358   9.3240954  42.4203953
  61.1359992  10.0739978  54.1920014  61.2059992  10.7249978  54.8910014
  60.2449992  10.1769978  53.8570014  61.0251690  10.1769249  54.2423043
  67.9209992  15.9759978  45.8510014  68.3949992  16.2719978  46.6280014
  67.3579992  16.7149978  45.6180014  67.9097890  16.1163036  45.9258101
  62.4549992  15.9469978  55.7270014  62.4629992  15.8109978  54.7800014
  61.5389992  15.8299978  55.9790014  62.3322528  15.9125463  55.6313243
  73.8939992   0.9899978  42.2290014  72.9939992   1.1289978  42.5240014
  74.1459992   1.8209978  41.8270014  73.8048683   1.1214055  42.2150232
  61.9599992   9.7769978  44.2020014  61.6679992  10.5449978  43.7110014
  61.2849992   9.1179978  44.0390014  61.8288497   9.7929745  44.1128260
  75.0829992  15.3559978  40.6050014  75.1559992  16.2949978  40.7750014
  75.9879992  15.0509978  40.5490014  75.2154170  15.4433282  40.6207063
  58.0529992  12.1399978  53.0170014  57.5509992  12.1119978  52.2020014
  58.0579992  11.2349978  53.3270014  57.9849832  12.0137486  52.9474121
  57.8029992  14.9209978  49.9010014  58.7489992  14.7759978  49.8820014
  57.6899992  15.7049978  50.4380014  57.9173578  15.0071697  49.9710317
  76.0009992  15.5869978  55.5840014  75.9509992  14.6309978  55.5460014
  75.1739992  15.8539978  55.9850014  75.8823831  15.4924680  55.6330121
  66.9789992  15.1609978  54.4600014  67.0669992  15.9869978  54.9350014
  66.1159992  14.8309978  54.7090014  66.8743357  15.2295468  54.5587653
  67.3939992  18.9329978  44.2660014  67.3179992  18.8119978  43.3190014
  67.4259992  19.8819978  44.3840014  67.3879380  19.0447677  44.1525181
  61.0469992  17.7219978  46.0470014  61.1989992  17.3739978  46.9250014
  60.1959992  17.3649978  45.7910014  60.9528344  17.6260879  46.1326868
  70.4949992  18.0869978  41.2680014  70.8699992  17.3429978  40.7970014
  70.4999992  17.8169978  42.1860014  70.5470098  17.9486392  41.3276629
  70.1639992  18.0129978  44.0170014  69.2289992  18.1129978  44.1960014
  70.4439992  17.3029978  44.5960014  70.0739471  17.9307933  44.1196695
  73.1529992   7.0799978  56.0640014  72.7449992   7.5599978  55.3430014
  73.1929992   6.1739978  55.7560014  73.1026221   7.0232449  55.9238267
  60.3019992  13.4639978  54.0600014  60.5179992  13.1019978  54.9200014
  59.4459992  13.0889978  53.8510014  60.2158810  13.3638837  54.1492680
  62.9199992   1.9339978  50.0560014  62.0589992   1.8469978  49.6480014
  62.8979992   2.7899978  50.4840014  62.7990491   2.0378003  50.0579582
  67.5829992   1.6559978  53.4310014  68.0029992   1.2409978  54.1840014
  66.6499992   1.4769978  53.5480014  67.5143736   1.5749910  53.5498968
  70.9099992   5.4109978  54.2840014  70.3959992   5.2859978  55.0820014
  70.7539992   6.3239978  54.0400014  70.8186967   5.5172123  54.3600937
  71.6719992  10.2719978  40.0450014  71.7139992  10.0499978  39.1150014
  72.5209992  10.6709978  40.2350014  71.7925253  10.2955498  39.9433822
  67.2449992   4.1479978  40.7160014  66.9909992   4.1669978  41.6380014
  66.9879992   3.2769978  40.4140014  67.1754508   4.0328280  40.8014803
  63.0109992   6.8989978  51.1510014  62.3699992   6.8589978  51.8600014
  63.0489992   7.8259978  50.9130014  62.9283010   7.0187668  51.2159946
  63.0079992   7.1199978  46.0630014  62.1159992   6.7799978  46.0040014
  63.4589992   6.7429978  45.3070014  62.9467642   7.0224910  45.9527726
  68.5439992   7.5359978  44.8800014  68.1349992   8.3509978  44.5880014
  69.2639992   7.3959978  44.2660014  68.5854439   7.6285372  44.7570115
  67.6459992   7.7119978  56.3680014  67.0829992   7.0069978  56.6890014
  68.4719992   7.5909978  56.8360014  67.6806674   7.5992165  56.4751751
  69.5489992   6.9819978  47.6940014  69.3529992   7.5879978  46.9790014
  69.7299992   6.1489978  47.2600014  69.5466584   6.9522513  47.5374212
  60.7609992   7.2199978  53.0180014  60.7229992   7.6199978  53.8870014
  60.2709992   6.4029978  53.1080014  60.6895330   7.1642674  53.1491289
  64.1269992   4.5939978  39.8170014  63.6959992   4.1489978  40.5460014
  63.4089992   4.9649978  39.3040014  63.9709176   4.5832051  39.8474930
  57.3699992   4.3359978  46.8690014  57.9999992   4.3069978  47.5880014
  57.8189992   3.9109978  46.1380014  57.5170835   4.2745660  46.8687659
  58.6439992   5.0819978  42.2930014  59.1179992   5.6729978  41.7080014
  57.9259992   5.6119978  42.6400014  58.6118640   5.2345511  42.2597969
  68.8129992   8.6199978  52.3650014  69.1359992   7.9889978  51.7220014
  68.3719992   8.0859978  53.0260014  68.7976379   8.4613468  52.3662582
  65.5899992   4.5479978  47.1490014  64.6789992   4.6049978  47.4380014
  66.0949992   4.4879978  47.9600014  65.5336873   4.5476826  47.2981207
  60.4179992   6.1769978  45.9760014  59.5289992   6.2759978  45.6360014
  60.7149992   5.3349978  45.6300014  60.3364177   6.0767687  45.8826940
  64.0709992   6.1769978  43.6330014  65.0029992   6.3059978  43.8110014
  63.8559992   6.8459978  42.9830014  64.1694472   6.2850806  43.5694891
  69.9949992   3.7829978  50.4140014  69.3179992   3.9139978  51.0770014
  69.5099992   3.6279978  49.6030014  69.8367405   3.7799947  50.3952170
  62.7449992   7.3709978  41.1990014  62.2029992   6.9919978  40.5080014
  63.5789992   7.5659978  40.7710014  62.7834390   7.3454079  41.0464392
  73.2829992  19.4539978  56.6900014  73.4819992  19.8779978  55.8560014
  73.9379992  19.7979978  57.2970014  73.3988522  19.5586301  56.6577852
  60.8809992  11.9279978  56.2980014  61.6129992  12.1829978  56.8600014
  60.0999992  12.1329978  56.8140014  60.8756526  11.9905450  56.4445176
  66.9099992   7.3349978  49.0360014  67.4739992   6.7889978  48.4890014
  66.7619992   6.8139978  49.8250014  66.9673037   7.1896787  49.0677229
  61.9119992   3.4719978  45.4550014  61.5949992   2.5689978  45.4190014
  62.6929992   3.4739978  44.9020014  61.9742431   3.3487797  45.3753102
  65.5359992   5.7239978  51.4500014  64.7009992   6.1779978  51.5610014
  66.0599992   5.9999978  52.2020014  65.4926072   5.8233948  51.5668136
  66.0809992  11.9369978  43.1350014  65.3359992  11.4289978  42.8130014
  65.9459992  11.9859978  44.0810014  65.9608963  11.8741731  43.2188826
  73.2309992  11.0699978  51.9220014  73.8719992  11.5259978  51.3780014
  72.3999992  11.1829978  51.4590014  73.2065287  11.1476921  51.7849887
  69.9779992   4.7509978  41.3340014  69.0399992   4.8619978  41.1830014
  70.2759992   5.6069978  41.6410014  69.8896318   4.8820158  41.3548145
  67.5999992  12.1209978  54.3720014  67.2539992  11.7389978  55.1790014
  67.3999992  13.0539978  54.4430014  67.5255987  12.1949002  54.4920461
  70.6969992   6.6179978  42.9950014  71.5889992   6.4799978  43.3140014
  70.7529992   7.4089978  42.4580014  70.8267325   6.7059918  42.9661217
  61.2049992  11.2319978  48.9050014  61.9499992  11.2289978  48.3030014
  61.2829992  10.4079978  49.3860014  61.3173365  11.1202384  48.8877430
  68.2059992  13.3949978  42.1600014  67.9109992  14.2219978  42.5420014
  67.5029992  12.7759978  42.3570014  68.0706379  13.4244171  42.2388654
  58.2129992   9.6919978  54.2200014  58.4359992   9.2739978  55.0510014
  57.6109992   9.0799978  53.7970014  58.1621513   9.5519606  54.2766740
  65.2299992   9.2089978  56.4330014  64.9339992   9.0439978  55.5370014
  66.1609992   8.9889978  56.4220014  65.3154401   9.1566879  56.3090206
  69.8499992  14.5829978  54.3220014  68.9499992  14.7659978  54.0550014
  69.8839992  14.8419978  55.2430014  69.7313748  14.6430554  54.4099164
  75.5819992   6.8269978  42.6900014  75.0269992   6.4309978  42.0170014
  75.6819992   7.7379978  42.4120014  75.5196816   6.8959505  42.5605033
  75.5449992  12.6279978  55.5270014  74.6939992  12.8659978  55.1590014
  76.1349992  12.6109978  54.7740014  75.5083812  12.6582524  55.3748453
  73.8769992  15.6129978  43.1550014  73.5039992  14.7879978  43.4640014
  74.1539992  15.4299978  42.2570014  73.8633463  15.4752569  43.0759525
  71.0369992  10.4209978  50.1760014  70.1089992  10.1899978  50.1490014
  71.4879992   9.6439978  49.8460014  70.9708165  10.2842774  50.1276790
  63.5799992  14.7499978  46.3090014  64.1079992  15.5229978  46.1090014
  62.6999992  14.9739978  46.0070014  63.5333435  14.8862700  46.2407310
  59.3349992   9.6119978  40.8960014  59.9509992  10.2389978  41.2760014
  58.4729992   9.9279978  41.1680014  59.3027678   9.7404412  40.9847209
  65.0079992  12.4129978  45.8850014  64.7669992  13.3379978  45.9270014
  64.2669992  11.9539978  46.2820014  64.8749206  12.4775915  45.9443769
  65.5219992  16.5619978  52.2000014  65.8849992  17.4159978  51.9670014
  66.0539992  16.2699978  52.9410014  65.6435141  16.6393895  52.2682097
  63.6909992  17.4339978  45.4310014  62.7409992  17.5399978  45.4820014
  64.0429992  18.2549978  45.7750014  63.6085472  17.5594923  45.4844852
  69.0659992  12.6609978  51.9010014  68.6409992  12.4329978  52.7270014
  69.6469992  11.9219978  51.7190014  69.0863395  12.5299545  51.9894414
  71.2689992  13.5899978  40.9750014  71.6229992  13.2099978  41.7790014
  70.3209992  13.4959978  41.0620014  71.1892298  13.5252452  41.0968687
  71.7249992  17.2129978  54.3700014  71.1229992  16.6569978  53.8750014
  72.0059992  17.8799978  53.7440014  71.6805757  17.2270744  54.2175675
  75.7729992  18.0689978  41.1760014  76.5169992  18.6549978  41.0360014
  75.0789992  18.6379978  41.5090014  75.7809809  18.2260818  41.2018590
  59.8469992   4.4459978  53.7780014  58.9549992   4.7839978  53.7100014
  59.7489992   3.5899978  54.1960014  59.7114475   4.3766543  53.8251704
  72.1349992  12.2619978  43.2020014  71.8579992  11.5339978  43.7580014
  73.0629992  12.3809978  43.4070014  72.2224499  12.1784213  43.3058044
  59.4989992  16.2499978  52.2130014  59.7159992  15.3179978  52.1820014
  59.7449992  16.5249978  53.0960014  59.5619809  16.1595686  52.3281691
  65.3599992  14.7019978  39.4220014  65.5989992  13.9529978  38.8750014
  65.0909992  14.3139978  40.2550014  65.3563233  14.5471853  39.4597809
  64.2969992  14.2719978  41.8780014  64.4439992  13.7519978  42.6680014
  64.2939992  15.1789978  42.1850014  64.3167102  14.3233953  42.0275925
  60.7499992  11.5239978  42.3890014  60.0639992  11.8769978  42.9560014
  61.2729992  12.2869978  42.1420014  60.7268402  11.6753901  42.4331801
  68.5819992   4.1869978  52.6680014  69.2809992   4.2609978  53.3180014
  68.2009992   3.3219978  52.8220014  68.6262097   4.0802389  52.7777997
  69.3659992   3.8389978  43.7650014  69.5859992   4.3099978  42.9610014
  69.9249992   4.2329978  44.4350014  69.4716731   3.9567287  43.7455033
  67.0349992  15.9689978  42.6280014  66.2179992  16.4659978  42.6800014
  67.5639992  16.4449978  41.9870014  66.9948125  16.1011989  42.5485306
  66.5659992   5.5669978  44.6000014  67.3779992   6.0709978  44.6460014
  66.3219992   5.4219978  45.5140014  66.6441467   5.6163749  44.7298575
  67.1019992   6.5529978  53.7840014  67.2209992   7.1269978  54.5410014
  67.7569992   5.8649978  53.8990014  67.2068684   6.5385194  53.9031674
  67.4499992   2.6479978  45.5380014  67.1029992   3.2649978  46.1820014
  68.1089992   3.1489978  45.0560014  67.4915090   2.8001575  45.5610681
  64.3729992  17.0129978  42.6090014  64.5339992  17.8129978  42.1090014
  64.1759992  17.3199978  43.4940014  64.3683906  17.1638678  42.6602333
  63.1079992   3.7109978  42.2250014  63.0239992   4.5989978  42.5720014
  63.9979992   3.4459978  42.4570014  63.2168163   3.7967179  42.3038596
  73.3059992   4.4599978  54.6190014  72.3899992   4.7219978  54.5320014
  73.6419992   4.4569978  53.7230014  73.2258499   4.4955163  54.4858766
  71.9089992   8.2099978  48.7150014  71.1109992   7.7949978  48.3870014
  72.3539992   7.5199978  49.2060014  71.8599684   8.0598628  48.7365227
  61.3659992  14.1379978  41.2850014  61.9579992  14.8379978  41.5620014
  61.8249992  13.7049978  40.5660014  61.5091652  14.1752675  41.2256533
  59.6819992   6.8029978  40.4010014  59.6369992   7.7419978  40.5800014
  58.7939992   6.5669978  40.1320014  59.5558166   6.8996687  40.3891524
  72.9949992  17.4659978  50.3370014  72.8389992  18.1449978  49.6800014
  73.9279992  17.5379978  50.5400014  73.0997387  17.5686390  50.2745342
  60.4899992   1.5839978  49.0750014  60.2609992   1.6429978  48.1470014
  60.0479992   0.7929978  49.3810014  60.3988801   1.4850540  48.9894729
  59.4209992  15.5249978  45.2350014  58.5879992  15.9969978  45.2620014
  59.9659992  16.0349978  44.6360014  59.3807857  15.6584791  45.1577142
  58.7089992  18.1369978  56.5650014  59.2489992  17.9209978  57.3250014
  58.2279992  17.3319978  56.3750014  58.7179219  17.9985156  56.6434282
  63.3059992  17.0569978  58.1850014  64.0739992  16.5979978  58.5260014
  63.2849992  16.8309978  57.2550014  63.4082135  16.9636668  58.1059491
  67.3979992  16.5649978  39.5610014  66.7539992  15.9339978  39.8820014
  68.1599992  16.0339978  39.3290014  67.4128058  16.4067902  39.5736038
  69.8829992  15.4369978  56.9140014  69.5319992  14.5799978  57.1580014
  70.6089992  15.5789978  57.5210014  69.9331895  15.3391351  57.0293770
  72.0029992  16.3819978  39.7940014  72.2859992  15.5869978  40.2470014
  72.7419992  16.6149978  39.2330014  72.1417096  16.3047049  39.7801104
  58.6159992  11.9479978  57.5190014  58.7599992  11.0459978  57.2330014
  57.8439992  12.2339978  57.0320014  58.5312733  11.8631798  57.4139532
  62.9569992  12.2909978  39.6520014  63.0219992  11.4969978  40.1820014
  63.6099992  12.1729978  38.9620014  63.0541605  12.1663430  39.6312997
  65.2709992  11.9169978  56.9520014  64.9429992  12.1879978  56.0950014
  65.4229992  10.9759978  56.8640014  65.2466412  11.8269046  56.8227822
  68.3099992  13.3379978  39.3880014  68.0409992  13.5189978  40.2880014
  68.1029992  12.4129978  39.2560014  68.2451191  13.2377119  39.4935524
  71.0059992  11.8329978  54.3350014  71.7509992  12.4219978  54.2160014
  70.2489992  12.4149978  54.3990014  71.0055470  11.9922128  54.3273799
  59.4489992   9.1479978  56.9390014  59.8569992   8.2909978  56.8180014
  59.1879992   9.1619978  57.8600014  59.4696016   9.0325119  57.0469192
  64.1069992  10.2639978  41.9580014  63.6469992   9.7799978  42.6430014
  64.3619992   9.5949978  41.3220014  64.0784856  10.1073669  41.9658397
  63.3959992   8.1569978  54.3140014  62.7769992   8.8309978  54.5940014
  63.7399992   8.4779978  53.4800014  63.3577123   8.2926887  54.2396388
  65.1779992   8.5069978  40.2200014  64.9969992   8.3519978  39.2930014
  66.1279992   8.6149978  40.2650014  65.2816566   8.5003669  40.0990929
  68.4149992  10.6279978  57.5910014  69.3689992  10.7119978  57.5640014
  68.2549992   9.9159978  58.2110014  68.5237182  10.5432842  57.6710733
  74.5679992  10.8609978  39.6660014  74.2939992  10.4369978  38.8530014
  74.6069992  11.7929978  39.4490014  74.5357716  10.9288827  39.5254286
  63.7349992   5.5119978  55.3960014  63.8849992   4.7829978  54.7940014
  63.7369992   6.2889978  54.8370014  63.7557967   5.5172708  55.2380541
  64.1479992   3.8809978  52.8890014  64.6829992   4.3329978  52.2370014
  63.2949992   3.7729978  52.4660014  64.1060374   3.9282665  52.7426710
  65.7289992   9.3209978  53.1280014  66.4799992   9.1649978  52.5550014
  65.3899992  10.1729978  52.8530014  65.7859587   9.4148138  53.0124078
  70.1449992   7.1359978  58.1570014  70.3369992   6.2049978  58.0450014
  71.0029992   7.5609978  58.1460014  70.2872182   7.0660070  58.1401862
  71.4619992   9.9249978  56.2340014  71.1799992  10.6339978  55.6560014
  72.4039992   9.8519978  56.0830014  71.5507921  10.0122193  56.1344225
  62.2139992   6.7099978  57.3070014  61.4459992   6.1769978  57.0970014
  62.8919992   6.3999978  56.7080014  62.2007235   6.5951754  57.1972413
  64.9529992   1.3379978  53.3200014  64.8549992   2.2839978  53.2150014
  64.2109992   0.9649978  52.8440014  64.8392534   1.4171773  53.2412600
  66.2169992   5.6589978  56.8840014  65.9819992   5.4399978  57.7850014
  65.4339992   5.4519978  56.3740014  66.0789095   5.6009892  56.9385353
  68.9329992   4.7869978  55.9590014  67.9849992   4.8189978  56.0910014
  69.2449992   4.1609978  56.6130014  68.8455293   4.7067923  56.0654148
  70.5669992   3.4209978  57.9640014  70.4699992   2.4689978  57.9590014
  70.2449992   3.6889978  58.8250014  70.5102468   3.3270884  58.0796210
  60.3939992   4.6299978  57.0120014  60.6059992   3.9239978  56.4020014
  60.2829992   4.1929978  57.8560014  60.4080269   4.4741921  57.0425873
  65.1749992   0.6319978  55.9910014  65.8869992  -0.0080022  55.9770014
  65.0739992   0.8979978  55.0780014  65.2587387   0.5804330  55.8655563
  65.5289992   2.3139978  58.0450014  65.3969992   1.8389978  57.2250014
  64.9289992   3.0589978  57.9900014  65.4299070   2.3495789  57.9253251
  65.0749992  19.1969978  41.2210014  66.0079992  19.3549978  41.3650014
  64.8109992  19.8729978  40.5960014  65.1669911  19.3099373  41.1562722
  58.6429992  13.8339978  40.7040014  59.5569992  13.9129978  40.9770014
  58.6509992  13.1469978  40.0380014  58.7690655  13.7519205  40.6512917
  57.2919992  19.2269978  45.7810014  56.6449992  18.7649978  45.2490014
  57.6469992  18.5549978  46.3640014  57.2513741  19.0729774  45.7869175
  58.1619992  17.3069978  47.5860014  57.8279992  16.4269978  47.7580014
  58.3849992  17.6529978  48.4510014  58.1463721  17.2331938  47.7264168
  75.7109992  18.1169978  50.5670014  75.6889992  18.3019978  51.5060014
  76.4009992  18.6849978  50.2260014  75.8013439  18.2191887  50.6494791
  75.2739992  17.6839978  53.4880014  74.7869992  16.9489978  53.1170014
  75.8229992  17.2899978  54.1660014  75.2815247  17.5301057  53.5288461
  73.7249992  13.4739978  58.1270014  72.8589992  13.3689978  58.5210014
  74.1009992  14.2319978  58.5730014  73.6573401  13.5621708  58.2412620
  75.0259992  11.7299978  43.6410014  75.8759992  12.1509978  43.7680014
  75.0309992  10.9899978  44.2480014  75.1431143  11.6876094  43.7404750
  75.4199992   9.7839978  45.4640014  74.6939992   9.3039978  45.8620014
  76.0019992   9.9889978  46.1970014  75.3992730   9.7460184  45.6174149
  75.1789992  12.5689978  50.4120014  76.0129992  12.1909978  50.1310014
  75.2909992  13.5119978  50.2930014  75.3081917  12.6447943  50.3574861
  73.6659992  15.4469978  52.7190014  73.0179992  15.7719978  53.3440014
  73.1479992  15.0059978  52.0450014  73.5074196  15.4318651  52.7134152
  75.6889992   9.6849978  41.8550014  75.1669992  10.0409978  41.1370014
  75.6559992  10.3599978  42.5340014  75.6130129   9.8249598  41.8483355
  74.0379992   6.9239978  40.4060014  74.1339992   7.5909978  39.7260014
  73.8979992   6.1089978  39.9250014  74.0322040   6.9050671  40.2478378
  73.2069992   8.3049978  46.0270014  73.0569992   7.3599978  46.0070014
  72.8529992   8.5859978  46.8710014  73.1386351   8.2136644  46.1383220
  58.2419992  10.3829978  50.0380014  58.4269992  10.3009978  49.1020014
  59.0919992  10.2589978  50.4610014  58.3820928  10.3550463  49.9672893
  74.0629992  10.2749978  55.6660014  74.6459992   9.5399978  55.8580014
  74.6269992  11.0469978  55.7130014  74.2189781  10.2788145  55.6986164
  75.5599992   8.1779978  56.3510014  74.6969992   7.7989978  56.1850014
  76.1639992   7.4389978  56.2760014  75.5236085   8.0263223  56.3181695
  73.2849992   4.3319978  39.5240014  73.8959992   3.9609978  40.1610014
  72.4479992   3.9109978  39.7200014  73.2554947   4.2242756  39.6377252
  72.9179992   5.8869978  44.4900014  73.1969992   4.9799978  44.6140014
  73.6769992   6.3209978  44.1010014  73.0588619   5.8214502  44.4543795
  73.5289992   6.4689978  49.9260014  74.4619992   6.6809978  49.8910014
  73.2939992   6.5699978  50.8480014  73.6249517   6.5116833  50.0459130
  73.5589992   7.2059978  52.7020014  72.7159992   7.4739978  53.0680014
  74.0009992   8.0279978  52.4910014  73.5034138   7.3538273  52.7235518
  57.8399992   5.6529978  56.1780014  58.7589992   5.5309978  56.4150014
  57.3899992   4.9029978  56.5680014  57.9050087   5.5349608  56.2631410
  75.8419992   1.1859978  58.0550014  76.1909992   0.5319978  57.4500014
  75.9889992   2.0229978  57.6150014  75.9096824   1.2096024  57.9126304
  73.5309992   3.1499978  44.5380014  73.7129992   2.7009978  45.3630014
  72.9309992   2.5659978  44.0740014  73.4748187   3.0095552  44.5882739
  59.0609992   3.9659978  49.0700014  59.5059992   3.1739978  49.3720014
  59.5269992   4.6819978  49.5000014  59.1849718   3.9544534  49.1695265
  57.3649992   6.9649978  50.1390014  57.8569992   6.7439978  49.3480014
  57.7269992   7.8049978  50.4200014  57.4812923   7.0483468  50.0687407
  75.3609992   3.2949978  56.4040014  74.4439992   3.5659978  56.3690014
  75.4839992   2.7599978  55.6200014  75.2519672   3.2597885  56.2931862
  75.3979992   3.2179978  41.0660014  75.8099992   2.4969978  40.5910014
  76.0789992   3.8869978  41.1240014  75.5465536   3.2097766  41.0088024
  57.6789992   3.2229978  44.1930014  56.7539992   3.4309978  44.0640014
  58.1329992   3.7069978  43.5030014  57.6136298   3.3169299  44.0820451
  72.4489992  18.2069978  46.1390014  73.1019992  17.8589978  45.5310014
  72.9599992  18.6949978  46.7850014  72.6072777  18.2253815  46.1432047
  57.6419992   1.9609978  52.5370014  56.9769992   1.7149978  53.1800014
  57.1989992   2.5829978  51.9600014  57.4911168   2.0114214  52.5469848
  59.8339992  15.1359978  56.6820014  59.0129992  15.3109978  56.2210014
  59.5819992  15.0629978  57.6020014  59.6875594  15.1500717  56.7433611
  62.7879992  16.1099978  52.9400014  62.3639992  16.9199978  52.6580014
  63.6929992  16.1959978  52.6380014  62.8522138  16.2324160  52.8606415
  67.0999992  17.5089978  55.9000014  67.2839992  17.1759978  56.7780014
  67.9459992  17.8189978  55.5780014  67.2396484  17.5052979  55.9767617
  69.4449992  18.7949978  55.1440014  70.1219992  18.1619978  54.9040014
  69.7659992  19.1959978  55.9510014  69.5811323  18.7625691  55.2203158
  74.3619992   1.3849978  54.2230014  73.5489992   1.7099978  53.8360014
  74.5949992   0.6239978  53.6900014  74.2821347   1.3266880  54.0979841
  60.1899992  19.3669978  52.9880014  59.4699992  19.8069978  52.5370014
  59.8249992  19.1159978  53.8360014  60.0419643  19.3933369  53.0409129
  62.6569992  18.9669978  52.0180014  61.7929992  19.0389978  52.4220014
  62.6019992  19.5139978  51.2340014  62.5311942  19.0507849  51.9674000
  67.3679992  18.8549978  51.1930014  66.9109992  19.3839978  50.5390014
  67.5309992  19.4579978  51.9180014  67.3274960  19.0089280  51.2015274
  69.6959992  17.7329978  52.1380014  68.7909992  17.8979978  51.8720014
  70.1239992  18.5859978  52.0720014  69.6301537  17.8709134  52.0927095
  72.2999992  19.3029978  52.4330014  72.1179992  20.2189978  52.2220014
  72.4769992  18.8919978  51.5860014  72.2990030  19.3728273  52.2897166
  59.6049992  17.9899978  49.8980014  59.5869992  17.5639978  50.7550014
  60.4099992  17.6709978  49.4890014  59.7112875  17.8886435  49.9599515
  61.7459992  16.6999978  48.5530014  61.5269992  15.7829978  48.7230014
  62.5699992  16.8399978  49.0190014  61.8274702  16.5935511  48.6392527
  64.2829992  17.1699978  49.4020014  64.4959992  16.2819978  49.1150014
  64.3479992  17.1349978  50.3560014  64.3209149  17.0438326  49.4917369
  67.7919992   2.8339978  48.5460014  67.1179992   2.2039978  48.8020014
  68.3559992   2.3499978  47.9430014  67.7760384   2.6823708  48.4995020
  72.9349992   0.9409978  48.6590014  73.5379992   1.4889978  48.1570014
  72.0649992   1.2599978  48.4180014  72.8999157   1.0590373  48.5577910
  74.6619992   2.0799978  46.9920014  75.2729992   1.5659978  46.4650014
  75.0439992   2.9569978  47.0150014  74.7973305   2.1282050  46.9229418
  60.1189992   1.4679978  46.3680014  59.3419992   1.2329978  45.8610014
  60.6489992   0.6709978  46.3770014  60.0843451   1.3281268  46.2998627
  58.9549992   1.2659978  42.1720014  59.3939992   1.8769978  41.5800014
  58.3209992   1.8039978  42.6460014  58.9293859   1.4224064  42.1550305
  64.6979992   1.3939978  46.1810014  65.5719992   1.7829978  46.1520014
  64.5619992   1.1789978  47.1040014  64.7991953   1.4181643  46.3017617
  70.2549992   1.4239978  47.8310014  70.3309992   1.5199978  46.8810014
  69.9799992   0.5169978  47.9590014  70.2281871   1.3144146  47.7183944
  71.6079992   1.4499978  43.5230014  70.9049992   2.0649978  43.3130014
  71.1629992   0.6129978  43.6540014  71.4516550   1.4209668  43.5119837
  58.8559992  17.2139978  43.0690014  58.1709992  17.1759978  42.4020014
  58.8599992  18.1269978  43.3570014  58.7627621  17.3321924  43.0166126
  60.8159992   3.1819978  40.6140014  61.3069992   2.5519978  40.0870014
  61.4389992   3.4779978  41.2770014  60.9675304   3.1357376  40.6314940
  65.8419992   3.4749978  43.0710014  66.0199992   2.8279978  43.7540014
  65.7879992   4.3089978  43.5380014  65.8590678   3.4991604  43.2276301
  67.7199992  18.4229978  41.4670014  68.5859992  18.7899978  41.2890014
  67.4739992  17.9839978  40.6530014  67.8052097  18.4138525  41.3326019
  74.4289992  17.9859978  44.1460014  74.2349992  17.2379978  43.5810014
  74.3899992  18.7439978  43.5630014  74.3971645  17.9860786  43.9898148
  60.0759992   1.9819978  55.8860014  59.7099992   1.2159978  56.3280014
  60.9889992   2.0109978  56.1720014  60.1493172   1.8810324  55.9851890
  62.0489992   1.3319978  57.4210014  62.9479992   1.0579978  57.2370014
  61.6629992   0.5899978  57.8860014  62.1197307   1.1942196  57.4587098
  60.6739992  18.1339978  40.0940014  60.4059992  18.4199978  40.9680014
  61.4449992  17.5879978  40.2470014  60.7415927  18.0992779  40.2341205
  70.4709992   0.6649978  57.6040014  70.5469992   0.2389978  58.4570014
  71.3639992   0.6779978  57.2610014  70.6022303   0.6083493  57.6745497
  73.6469992  16.7379978  56.2960014  72.8649992  16.5509978  55.7760014
  73.5749992  17.6669978  56.5130014  73.5301924  16.8380637  56.2541602
  88.0529992  10.6239978  46.3270014  88.1419992  11.5679978  46.1950014
  87.4149992  10.3489978  45.6690014  87.9789062  10.7159812  46.2199641
  86.9859992   9.8789978  49.7460014  86.9479992   9.2329978  50.4510014
  86.6639992   9.4119978  48.9750014  86.9372679   9.7274276  49.7382921
  79.3539992   9.4929978  51.3390014  79.3959992   8.8679978  52.0620014
  80.0569992  10.1169978  51.5210014  79.4547345   9.4917873  51.4625274
  90.6919992  12.8179978  48.0470014  90.2509992  12.0979978  48.4980014
  90.6789992  13.5389978  48.6770014  90.6299215  12.8169291  48.1938105
  80.2779992  13.9429978  49.8740014  79.9079992  13.1409978  49.5040014
  81.2189992  13.7749978  49.9200014  80.3545984  13.8104638  49.8295603
  76.8879992   7.6029978  45.2660014  76.4399992   8.4489978  45.2480014
  76.3269992   7.0239978  44.7510014  76.7508546   7.6403993  45.1938891
  77.5979992   9.7649978  47.3920014  77.8119992   8.9949978  47.9200014
  78.3359992   9.8549978  46.7890014  77.7270200   9.6718587  47.3827035
  87.8039992  17.9219978  48.2590014  88.4229992  17.2459978  47.9860014
  87.5949992  17.7039978  49.1680014  87.8606056  17.7998869  48.3443967
  85.3749992  12.3109978  50.1520014  85.6789992  11.6249978  49.5570014
  86.0969992  12.4299978  50.7700014  85.5141240  12.2332314  50.1540959
  94.0379992   3.9129978  51.0120014  94.0879992   4.5229978  51.7480014
  94.4639992   4.3739978  50.2890014  94.1024108   4.0587709  51.0150112
  88.5159992   6.7049978  50.4790014  88.6589992   5.7589978  50.4990014
  88.4099992   6.9119978  49.5510014  88.5212403   6.6034797  50.3562239
  81.6709992   4.8069978  47.7520014  81.7139992   5.6669978  47.3330014
  81.2129992   4.2549978  47.1180014  81.6149871   4.8499245  47.6090761
  89.3929992   4.9379978  46.1530014  90.0399992   4.6089978  46.7770014
  89.9029992   5.4549978  45.5300014  89.5504351   4.9629067  46.1541037
  78.2909992   7.2039978  48.5140014  78.9449992   6.6539978  48.9460014
  78.3149992   6.9299978  47.5970014  78.3837199   7.0917167  48.4491668
  83.4479992   8.7539978  47.7290014  84.0639992   8.2269978  48.2380014
  82.8609992   8.1139978  47.3250014  83.4530154   8.5953954  47.7440945
  94.4299992   5.3909978  53.2480014  93.7409992   6.0489978  53.1530014
  94.4449992   5.1929978  54.1850014  94.3377756   5.4542603  53.3615812
  80.4809992   3.7249978  51.8260014  80.2619992   4.2549978  51.0590014
  79.8129992   3.9509978  52.4730014  80.3606975   3.8280967  51.8085140
  87.8499992  13.2249978  45.3700014  87.5549992  12.9019978  44.5180014
  87.5259992  14.1249978  45.4110014  87.7658460  13.3024464  45.2589714
  83.0499992  11.3999978  52.1130014  82.3099992  11.9989978  52.2170014
  83.7639992  11.9539978  51.7980014  83.0453500  11.5567829  52.0846371
  91.1569992   4.2289978  48.1330014  90.9419992   3.4629978  48.6660014
  91.8129992   4.7009978  48.6460014  91.2162673   4.1880728  48.2751990
  80.0749992   5.6169978  49.7780014  80.6889992   6.2499978  50.1510014
  80.5869992   5.1449978  49.1220014  80.2281962   5.6397249  49.7402935
  81.4579992  13.3649978  52.9000014  81.4519992  14.2439978  52.5220014
  80.6039992  13.2809978  53.3250014  81.3417925  13.4739535  52.9056887
  77.5789992  13.0359978  43.6820014  77.3069992  13.2649978  42.7940014
  77.6239992  13.8729978  44.1430014  77.5478097  13.1806163  43.6226683
  91.2039992  14.6569978  50.3950014  90.2619992  14.7159978  50.5570014
  91.4799992  15.5629978  50.2580014  91.1125865  14.7875288  50.3986192
  91.5039992   2.9439978  51.8120014  90.7679992   3.5539978  51.7750014
  92.1879992   3.3589978  51.2860014  91.4955367   3.0837551  51.7358174
  84.5079992   1.0299978  49.2780014  84.3899992   0.0819978  49.2240014
  83.6529992   1.3629978  49.5510014  84.3762805   0.9452202  49.3075079
  89.4559992  16.4379978  47.0200014  89.8809992  15.7309978  46.5350014
  89.7729992  17.2399978  46.6030014  89.5570266  16.4495190  46.8972479
  90.6159992  14.3389978  45.5290014  90.3579992  13.6489978  44.9170014
  90.6869992  13.8959978  46.3740014  90.5903050  14.1846814  45.5595621
  92.3019992  12.9059978  54.0060014  92.4409992  12.3139978  53.2670014
  92.4689992  13.7789978  53.6500014  92.3436193  12.9428896  53.8566211
  86.7739992   9.8679978  43.7790014  86.0629992  10.4029978  43.4270014
  87.4649992   9.9229978  43.1190014  86.7700751   9.9486777  43.6415858
  86.8279992   8.3249978  40.8170014  87.5289992   8.3479978  41.4690014
  87.1299992   7.6969978  40.1610014  86.9648202   8.2432212  40.8175609
  94.1429992   9.2459978  52.0720014  93.4909992   9.9399978  52.1610014
  94.6089992   9.4559978  51.2620014  94.1165937   9.3695019  51.9747533
  90.1799992  10.0769978  44.7300014  89.4479992  10.3059978  45.3040014
  90.6269992   9.3639978  45.1850014  90.1403963  10.0118729  44.8699945
  90.0769992   8.2519978  53.7980014  90.1569992   9.0149978  54.3700014
  89.4759992   8.5309978  53.1080014  90.0066547   8.3942457  53.7830047
  81.8249992  10.7079978  46.6130014  81.4949992  10.3369978  45.7950014
  82.4139992  10.0369978  46.9600014  81.8593970  10.5666063  46.5479404
  83.1919992  14.1359978  49.2940014  83.0969992  13.5569978  48.5380014
  83.9209992  13.7649978  49.7900014  83.2776011  14.0065561  49.2576028
  82.1919992   9.4759978  50.2460014  82.7569992   9.5979978  49.4840014
  82.5109992  10.1139978  50.8850014  82.3124166   9.5788791  50.2280348
  88.5009992  14.9799978  50.9800014  88.2609992  15.6419978  51.6280014
  88.3029992  14.1449978  51.4050014  88.4413826  14.9578115  51.1261566
  83.0719992  13.8759978  54.9640014  82.7609992  14.6579978  55.4190014
  82.4219992  13.7229978  54.2780014  82.9415538  13.9624087  54.9335898
  89.0509992   9.2399978  42.4160014  89.6299992   9.3899978  43.1620014
  89.4649992   9.7099978  41.6920014  89.1863358   9.3240954  42.4203953
  79.9919992  10.0739978  54.1920014  80.0619992  10.7249978  54.8910014
  79.1009992  10.1769978  53.8570014  79.8811690  10.1769249  54.2423043
  86.7769992  15.9759978  45.8510014  87.2509992  16.2719978  46.6280014
  86.2139992  16.7149978  45.6180014  86.7657890  16.1163036  45.9258101
  81.3109992  15.9469978  55.7270014  81.3189992  15.8109978  54.7800014
  80.3949992  15.8299978  55.9790014  81.1882528  15.9125463  55.6313243
  92.7499992   0.9899978  42.2290014  91.8499992   1.1289978  42.5240014
  93.0019992   1.8209978  41.8270014  92.6608683   1.1214055  42.2150232
  80.8159992   9.7769978  44.2020014  80.5239992  10.5449978  43.7110014
  80.1409992   9.1179978  44.0390014  80.6848497   9.7929745  44.1128260
  93.9389992  15.3559978  40.6050014  94.0119992  16.2949978  40.7750014
  94.8439992  15.0509978  40.5490014  94.0714170  15.4433282  40.6207063
  76.9089992  12.1399978  53.0170014  76.4069992  12.1119978  52.2020014
  76.9139992  11.2349978  53.3270014  76.8409832  12.0137486  52.9474121
  76.6589992  14.9209978  49.9010014  77.6049992  14.7759978  49.8820014
  76.5459992  15.7049978  50.4380014  76.7733578  15.0071697  49.9710317
  94.8569992  15.5869978  55.5840014  94.8069992  14.6309978  55.5460014
  94.0299992  15.8539978  55.9850014  94.7383831  15.4924680  55.6330121
  85.8349992  15.1609978  54.4600014  85.9229992  15.9869978  54.9350014
  84.9719992  14.8309978  54.7090014  85.7303357  15.2295468  54.5587653
  86.2499992  18.9329978  44.2660014  86.1739992  18.8119978  43.3190014
  86.2819992  19.8819978  44.3840014  86.2439380  19.0447677  44.1525181
  79.9029992  17.7219978  46.0470014  80.0549992  17.3739978  46.9250014
  79.0519992  17.3649978  45.7910014  79.8088344  17.6260879  46.1326868
  89.3509992  18.0869978  41.2680014  89.7259992  17.3429978  40.7970014
  89.3559992  17.8169978  42.1860014  89.4030098  17.9486392  41.3276629
  89.0199992  18.0129978  44.0170014  88.0849992  18.1129978  44.1960014
  89.2999992  17.3029978  44.5960014  88.9299471  17.9307933  44.1196695
  92.0089992   7.0799978  56.0640014  91.6009992   7.5599978  55.3430014
  92.0489992   6.1739978  55.7560014  91.9586221   7.0232449  55.9238267
  79.1579992  13.4639978  54.0600014  79.3739992  13.1019978  54.9200014
  78.3019992  13.0889978  53.8510014  79.0718810  13.3638837  54.1492680
  81.7759992   1.9339978  50.0560014  80.9149992   1.8469978  49.6480014
  81.7539992   2.7899978  50.4840014  81.6550491   2.0378003  50.0579582
  86.4389992   1.6559978  53.4310014  86.8589992   1.2409978  54.1840014
  85.5059992   1.4769978  53.5480014  86.3703736   1.5749910  53.5498968
  89.7659992   5.4109978  54.2840014  89.2519992   5.2859978  55.0820014
  89.6099992   6.3239978  54.0400014  89.6746967   5.5172123  54.3600937
  90.5279992  10.2719978  40.0450014  90.5699992  10.0499978  39.1150014
  91.3769992  10.6709978  40.2350014  90.6485253  10.2955498  39.9433822
  86.1009992   4.1479978  40.7160014  85.8469992   4.1669978  41.6380014
  85.8439992   3.2769978  40.4140014  86.0314508   4.0328280  40.8014803
  81.8669992   6.8989978  51.1510014  81.2259992   6.8589978  51.8600014
  81.9049992   7.8259978  50.9130014  81.7843010   7.0187668  51.2159946
  81.8639992   7.1199978  46.0630014  80.9719992   6.7799978  46.0040014
  82.3149992   6.7429978  45.3070014  81.8027642   7.0224910  45.9527726
  87.3999992   7.5359978  44.8800014  86.9909992   8.3509978  44.5880014
  88.1199992   7.3959978  44.2660014  87.4414439   7.6285372  44.7570115
  86.5019992   7.7119978  56.3680014  85.9389992   7.0069978  56.6890014
  87.3279992   7.5909978  56.8360014  86.5366674   7.5992165  56.4751751
  88.4049992   6.9819978  47.6940014  88.2089992   7.5879978  46.9790014
  88.5859992   6.1489978  47.2600014  88.4026584   6.9522513  47.5374212
  79.6169992   7.2199978  53.0180014  79.5789992   7.6199978  53.8870014
  79.1269992   6.4029978  53.1080014  79.5455330   7.1642674  53.1491289
  82.9829992   4.5939978  39.8170014  82.5519992   4.1489978  40.5460014
  82.2649992   4.9649978  39.3040014  82.8269176   4.5832051  39.8474930
  76.2259992   4.3359978  46.8690014  76.8559992   4.3069978  47.5880014
  76.6749992   3.9109978  46.1380014  76.3730835   4.2745660  46.8687659
  77.4999992   5.0819978  42.2930014  77.9739992   5.6729978  41.7080014
  76.7819992   5.6119978  42.6400014  77.4678640   5.2345511  42.2597969
  87.6689992   8.6199978  52.3650014  87.9919992   7.9889978  51.7220014
  87.2279992   8.0859978  53.0260014  87.6536379   8.4613468  52.3662582
  84.4459992   4.5479978  47.1490014  83.5349992   4.6049978  47.4380014
  84.9509992   4.4879978  47.9600014  84.3896873   4.5476826  47.2981207
  79.2739992   6.1769978  45.9760014  78.3849992   6.2759978  45.6360014
  79.5709992   5.3349978  45.6300014  79.1924177   6.0767687  45.8826940
  82.9269992   6.1769978  43.6330014  83.8589992   6.3059978  43.8110014
  82.7119992   6.8459978  42.9830014  83.0254472   6.2850806  43.5694891
  88.8509992   3.7829978  50.4140014  88.1739992   3.9139978  51.0770014
  88.3659992   3.6279978  49.6030014  88.6927405   3.7799947  50.3952170
  81.6009992   7.3709978  41.1990014  81.0589992   6.9919978  40.5080014
  82.4349992   7.5659978  40.7710014  81.6394390   7.3454079  41.0464392
  92.1389992  19.4539978  56.6900014  92.3379992  19.8779978  55.8560014
  92.7939992  19.7979978  57.2970014  92.2548522  19.5586301  56.6577852
  79.7369992  11.9279978  56.2980014  80.4689992  12.1829978  56.8600014
  78.9559992  12.1329978  56.8140014  79.7316526  11.9905450  56.4445176
  85.7659992   7.3349978  49.0360014  86.3299992   6.7889978  48.4890014
  85.6179992   6.8139978  49.8250014  85.8233037   7.1896787  49.0677229
  80.7679992   3.4719978  45.4550014  80.4509992   2.5689978  45.4190014
  81.5489992   3.4739978  44.9020014  80.8302431   3.3487797  45.3753102
  84.3919992   5.7239978  51.4500014  83.5569992   6.1779978  51.5610014
  84.9159992   5.9999978  52.2020014  84.3486072   5.8233948  51.5668136
  84.9369992  11.9369978  43.1350014  84.1919992  11.4289978  42.8130014
  84.8019992  11.9859978  44.0810014  84.8168963  11.8741731  43.2188826
  92.0869992  11.0699978  51.9220014  92.7279992  11.5259978  51.3780014
  91.2559992  11.1829978  51.4590014  92.0625287  11.1476921  51.7849887
  88.8339992   4.7509978  41.3340014  87.8959992   4.8619978  41.1830014
  89.1319992   5.6069978  41.6410014  88.7456318   4.8820158  41.3548145
  86.4559992  12.1209978  54.3720014  86.1099992  11.7389978  55.1790014
  86.2559992  13.0539978  54.4430014  86.3815987  12.1949002  54.4920461
  89.5529992   6.6179978  42.9950014  90.4449992   6.4799978  43.3140014
  89.6089992   7.4089978  42.4580014  89.6827325   6.7059918  42.9661217
  80.0609992  11.2319978  48.9050014  80.8059992  11.2289978  48.3030014
  80.1389992  10.4079978  49.3860014  80.1733365  11.1202384  48.8877430
  87.0619992  13.3949978  42.1600014  86.7669992  14.2219978  42.5420014
  86.3589992  12.7759978  42.3570014  86.9266379  13.4244171  42.2388654
  77.0689992   9.6919978  54.2200014  77.2919992   9.2739978  55.0510014
  76.4669992   9.0799978  53.7970014  77.0181513   9.5519606  54.2766740
  84.0859992   9.2089978  56.4330014  83.7899992   9.0439978  55.5370014
  85.0169992   8.9889978  56.4220014  84.1714401   9.1566879  56.3090206
  88.7059992  14.5829978  54.3220014  87.8059992  14.7659978  54.0550014
  88.7399992  14.8419978  55.2430014  88.5873748  14.6430554  54.4099164
  94.4379992   6.8269978  42.6900014  93.8829992   6.4309978  42.0170014
  94.5379992   7.7379978  42.4120014  94.3756816   6.8959505  42.5605033
  94.4009992  12.6279978  55.5270014  93.5499992  12.8659978  55.1590014
  94.9909992  12.6109978  54.7740014  94.3643812  12.6582524  55.3748453
  92.7329992  15.6129978  43.1550014  92.3599992  14.7879978  43.4640014
  93.0099992  15.4299978  42.2570014  92.7193463  15.4752569  43.0759525
  89.8929992  10.4209978  50.1760014  88.9649992  10.1899978  50.1490014
  90.3439992   9.6439978  49.8460014  89.8268165  10.2842774  50.1276790
  82.4359992  14.7499978  46.3090014  82.9639992  15.5229978  46.1090014
  81.5559992  14.9739978  46.0070014  82.3893435  14.8862700  46.2407310
  78.1909992   9.6119978  40.8960014  78.8069992  10.2389978  41.2760014
  77.3289992   9.9279978  41.1680014  78.1587678   9.7404412  40.9847209
  83.8639992  12.4129978  45.8850014  83.6229992  13.3379978  45.9270014
  83.1229992  11.9539978  46.2820014  83.7309206  12.4775915  45.9443769
  84.3779992  16.5619978  52.2000014  84.7409992  17.4159978  51.9670014
  84.9099992  16.2699978  52.9410014  84.4995141  16.6393895  52.2682097
  82.5469992  17.4339978  45.4310014  81.5969992  17.5399978  45.4820014
  82.8989992  18.2549978  45.7750014  82.4645472  17.5594923  45.4844852
  87.9219992  12.6609978  51.9010014  87.4969992  12.4329978  52.7270014
  88.5029992  11.9219978  51.7190014  87.9423395  12.5299545  51.9894414
  90.1249992  13.5899978  40.9750014  90.4789992  13.2099978  41.7790014
  89.1769992  13.4959978  41.0620014  90.0452298  13.5252452  41.0968687
  90.5809992  17.2129978  54.3700014  89.9789992  16.6569978  53.8750014
  90.8619992  17.8799978  53.7440014  90.5365757  17.2270744  54.2175675
  94.6289992  18.0689978  41.1760014  95.3729992  18.6549978  41.0360014
  93.9349992  18.6379978  41.5090014  94.6369809  18.2260818  41.2018590
  78.7029992   4.4459978  53.7780014  77.8109992   4.7839978  53.7100014
  78.6049992   3.5899978  54.1960014  78.5674475   4.3766543  53.8251704
  90.9909992  12.2619978  43.2020014  90.7139992  11.5339978  43.7580014
  91.9189992  12.3809978  43.4070014  91.0784499  12.1784213  43.3058044
  78.3549992  16.2499978  52.2130014  78.5719992  15.3179978  52.1820014
  78.6009992  16.5249978  53.0960014  78.4179809  16.1595686  52.3281691
  84.2159992  14.7019978  39.4220014  84.4549992  13.9529978  38.8750014
  83.9469992  14.3139978  40.2550014  84.2123233  14.5471853  39.4597809
  83.1529992  14.2719978  41.8780014  83.2999992  13.7519978  42.6680014
  83.1499992  15.1789978  42.1850014  83.1727102  14.3233953  42.0275925
  79.6059992  11.5239978  42.3890014  78.9199992  11.8769978  42.9560014
  80.1289992  12.2869978  42.1420014  79.5828402  11.6753901  42.4331801
  87.4379992   4.1869978  52.6680014  88.1369992   4.2609978  53.3180014
  87.0569992   3.3219978  52.8220014  87.4822097   4.0802389  52.7777997
  88.2219992   3.8389978  43.7650014  88.4419992   4.3099978  42.9610014
  88.7809992   4.2329978  44.4350014  88.3276731   3.9567287  43.7455033
  85.8909992  15.9689978  42.6280014  85.0739992  16.4659978  42.6800014
  86.4199992  16.4449978  41.9870014  85.8508125  16.1011989  42.5485306
  85.4219992   5.5669978  44.6000014  86.2339992   6.0709978  44.6460014
  85.1779992   5.4219978  45.5140014  85.5001467   5.6163749  44.7298575
  85.9579992   6.5529978  53.7840014  86.0769992   7.1269978  54.5410014
  86.6129992   5.8649978  53.8990014  86.0628684   6.5385194  53.9031674
  86.3059992   2.6479978  45.5380014  85.9589992   3.2649978  46.1820014
  86.9649992   3.1489978  45.0560014  86.3475090   2.8001575  45.5610681
  83.2289992  17.0129978  42.6090014  83.3899992  17.8129978  42.1090014
  83.0319992  17.3199978  43.4940014  83.2243906  17.1638678  42.6602333
  81.9639992   3.7109978  42.2250014  81.8799992   4.5989978  42.5720014
  82.8539992   3.4459978  42.4570014  82.0728163   3.7967179  42.3038596
  92.1619992   4.4599978  54.6190014  91.2459992   4.7219978  54.5320014
  92.4979992   4.4569978  53.7230014  92.0818499   4.4955163  54.4858766
  90.7649992   8.2099978  48.7150014  89.9669992   7.7949978  48.3870014
  91.2099992   7.5199978  49.2060014  90.7159684   8.0598628  48.7365227
  80.2219992  14.1379978  41.2850014  80.8139992  14.8379978  41.5620014
  80.6809992  13.7049978  40.5660014  80.3651652  14.1752675  41.2256533
  78.5379992   6.8029978  40.4010014  78.4929992   7.7419978  40.5800014
  77.6499992   6.5669978  40.1320014  78.4118166   6.8996687  40.3891524
  91.8509992  17.4659978  50.3370014  91.6949992  18.1449978  49.6800014
  92.7839992  17.5379978  50.5400014  91.9557387  17.5686390  50.2745342
  79.3459992   1.5839978  49.0750014  79.1169992   1.6429978  48.1470014
  78.9039992   0.7929978  49.3810014  79.2548801   1.4850540  48.9894729
  78.2769992  15.5249978  45.2350014  77.4439992  15.9969978  45.2620014
  78.8219992  16.0349978  44.6360014  78.2367857  15.6584791  45.1577142
  77.5649992  18.1369978  56.5650014  78.1049992  17.9209978  57.3250014
  77.0839992  17.3319978  56.3750014  77.5739219  17.9985156  56.6434282
  82.1619992  17.0569978  58.1850014  82.9299992  16.5979978  58.5260014
  82.1409992  16.8309978  57.2550014  82.2642135  16.9636668  58.1059491
  86.2539992  16.5649978  39.5610014  85.6099992  15.9339978  39.8820014
  87.0159992  16.0339978  39.3290014  86.2688058  16.4067902  39.5736038
  88.7389992  15.4369978  56.9140014  88.3879992  14.5799978  57.1580014
  89.4649992  15.5789978  57.5210014  88.7891895  15.3391351  57.0293770
  90.8589992  16.3819978  39.7940014  91.1419992  15.5869978  40.2470014
  91.5979992  16.6149978  39.2330014  90.9977096  16.3047049  39.7801104
  77.4719992  11.9479978  57.5190014  77.6159992  11.0459978  57.2330014
  76.6999992  12.2339978  57.0320014  77.3872733  11.8631798  57.4139532
  81.8129992  12.2909978  39.6520014  81.8779992  11.4969978  40.1820014
  82.4659992  12.1729978  38.9620014  81.9101605  12.1663430  39.6312997
  84.1269992  11.9169978  56.9520014  83.7989992  12.1879978  56.0950014
  84.2789992  10.9759978  56.8640014  84.1026412  11.8269046  56.8227822
  87.1659992  13.3379978  39.3880014  86.8969992  13.5189978  40.2880014
  86.9589992  12.4129978  39.2560014  87.1011191  13.2377119  39.4935524
  89.8619992  11.8329978  54.3350014  90.6069992  12.4219978  54.2160014
  89.1049992  12.4149978  54.3990014  89.8615470  11.9922128  54.3273799
  78.3049992   9.1479978  56.9390014  78.7129992   8.2909978  56.8180014
  78.0439992   9.1619978  57.8600014  78.3256016   9.0325119  57.0469192
  82.9629992  10.2639978  41.9580014  82.5029992   9.7799978  42.6430014
  83.2179992   9.5949978  41.3220014  82.9344856  10.1073669  41.9658397
  82.2519992   8.1569978  54.3140014  81.6329992   8.8309978  54.5940014
  82.5959992   8.4779978  53.4800014  82.2137123   8.2926887  54.2396388
  84.0339992   8.5069978  40.2200014  83.8529992   8.3519978  39.2930014
  84.9839992   8.6149978  40.2650014  84.1376566   8.5003669  40.0990929
  87.2709992  10.6279978  57.5910014  88.2249992  10.7119978  57.5640014
  87.1109992   9.9159978  58.2110014  87.3797182  10.5432842  57.6710733
  93.4239992  10.8609978  39.6660014  93.1499992  10.4369978  38.8530014
  93.4629992  11.7929978  39.4490014  93.3917716  10.9288827  39.5254286
  82.5909992   5.5119978  55.3960014  82.7409992   4.7829978  54.7940014
  82.5929992   6.2889978  54.8370014  82.6117967   5.5172708  55.2380541
  83.0039992   3.8809978  52.8890014  83.5389992   4.3329978  52.2370014
  82.1509992   3.7729978  52.4660014  82.9620374   3.9282665  52.7426710
  84.5849992   9.3209978  53.1280014  85.3359992   9.1649978  52.5550014
  84.2459992  10.1729978  52.8530014  84.6419587   9.4148138  53.0124078
  89.0009992   7.1359978  58.1570014  89.1929992   6.2049978  58.0450014
  89.8589992   7.5609978  58.1460014  89.1432182   7.0660070  58.1401862
  90.3179992   9.9249978  56.2340014  90.0359992  10.6339978  55.6560014
  91.2599992   9.8519978  56.0830014  90.4067921  10.0122193  56.1344225
  81.0699992   6.7099978  57.3070014  80.3019992   6.1769978  57.0970014
  81.7479992   6.3999978  56.7080014  81.0567235   6.5951754  57.1972413
  83.8089992   1.3379978  53.3200014  83.7109992   2.2839978  53.2150014
  83.0669992   0.9649978  52.8440014  83.6952534   1.4171773  53.2412600
  85.0729992   5.6589978  56.8840014  84.8379992   5.4399978  57.7850014
  84.2899992   5.4519978  56.3740014  84.9349095   5.6009892  56.9385353
  87.7889992   4.7869978  55.9590014  86.8409992   4.8189978  56.0910014
  88.1009992   4.1609978  56.6130014  87.7015293   4.7067923  56.0654148
  89.4229992   3.4209978  57.9640014  89.3259992   2.4689978  57.9590014
  89.1009992   3.6889978  58.8250014  89.3662468   3.3270884  58.0796210
  79.2499992   4.6299978  57.0120014  79.4619992   3.9239978  56.4020014
  79.1389992   4.1929978  57.8560014  79.2640269   4.4741921  57.0425873
  84.0309992   0.6319978  55.9910014  84.7429992  -0.0080022  55.9770014
  83.9299992   0.8979978  55.0780014  84.1147387   0.5804330  55.8655563
  84.3849992   2.3139978  58.0450014  84.2529992   1.8389978  57.2250014
  83.7849992   3.0589978  57.9900014  84.2859070   2.3495789  57.9253251
  83.9309992  19.1969978  41.2210014  84.8639992  19.3549978  41.3650014
  83.6669992  19.8729978  40.5960014  84.0229911  19.3099373  41.1562722
  77.4989992  13.8339978  40.7040014  78.4129992  13.9129978  40.9770014
  77.5069992  13.1469978  40.0380014  77.6250655  13.7519205  40.6512917
  76.1479992  19.2269978  45.7810014  75.5009992  18.7649978  45.2490014
  76.5029992  18.5549978  46.3640014  76.1073741  19.0729774  45.7869175
  77.0179992  17.3069978  47.5860014  76.6839992  16.4269978  47.7580014
  77.2409992  17.6529978  48.4510014  77.0023721  17.2331938  47.7264168
  94.5669992  18.1169978  50.5670014  94.5449992  18.3019978  51.5060014
  95.2569992  18.6849978  50.2260014  94.6573439  18.2191887  50.6494791
  94.1299992  17.6839978  53.4880014  93.6429992  16.9489978  53.1170014
  94.6789992  17.2899978  54.1660014  94.1375247  17.5301057  53.5288461
  92.5809992  13.4739978  58.1270014  91.7149992  13.3689978  58.5210014
  92.9569992  14.2319978  58.5730014  92.5133401  13.5621708  58.2412620
  93.8819992  11.7299978  43.6410014  94.7319992  12.1509978  43.7680014
  93.8869992  10.9899978  44.2480014  93.9991143  11.6876094  43.7404750
  94.2759992   9.7839978  45.4640014  93.5499992   9.3039978  45.8620014
  94.8579992   9.9889978  46.1970014  94.2552730   9.7460184  45.6174149
  94.0349992  12.5689978  50.4120014  94.8689992  12.1909978  50.1310014
  94.1469992  13.5119978  50.2930014  94.1641917  12.6447943  50.3574861
  92.5219992  15.4469978  52.7190014  91.8739992  15.7719978  53.3440014
  92.0039992  15.0059978  52.0450014  92.3634196  15.4318651  52.7134152
  94.5449992   9.6849978  41.8550014  94.0229992  10.0409978  41.1370014
  94.5119992  10.3599978  42.5340014  94.4690129   9.8249598  41.8483355
  92.8939992   6.9239978  40.4060014  92.9899992   7.5909978  39.7260014
  92.7539992   6.1089978  39.9250014  92.8882040   6.9050671  40.2478378
  92.0629992   8.3049978  46.0270014  91.9129992   7.3599978  46.0070014
  91.7089992   8.5859978  46.8710014  91.9946351   8.2136644  46.1383220
  77.0979992  10.3829978  50.0380014  77.2829992  10.3009978  49.1020014
  77.9479992  10.2589978  50.4610014  77.2380928  10.3550463  49.9672893
  92.9189992  10.2749978  55.6660014  93.5019992   9.5399978  55.8580014
  93.4829992  11.0469978  55.7130014  93.0749781  10.2788145  55.6986164
  94.4159992   8.1779978  56.3510014  93.5529992   7.7989978  56.1850014
  95.0199992   7.4389978  56.2760014  94.3796085   8.0263223  56.3181694
  92.1409992   4.3319978  39.5240014  92.7519992   3.9609978  40.1610014
  91.3039992   3.9109978  39.7200014  92.1114947   4.2242756  39.6377252
  91.7739992   5.8869978  44.4900014  92.0529992   4.9799978  44.6140014
  92.5329992   6.3209978  44.1010014  91.9148619   5.8214502  44.4543795
  92.3849992   6.4689978  49.9260014  93.3179992   6.6809978  49.8910014
  92.1499992   6.5699978  50.8480014  92.4809517   6.5116833  50.0459130
  92.4149992   7.2059978  52.7020014  91.5719992   7.4739978  53.0680014
  92.8569992   8.0279978  52.4910014  92.3594138   7.3538273  52.7235518
  76.6959992   5.6529978  56.1780014  77.6149992   5.5309978  56.4150014
  76.2459992   4.9029978  56.5680014  76.7610087   5.5349608  56.2631410
  94.6979992   1.1859978  58.0550014  95.0469992   0.5319978  57.4500014
  94.8449992   2.0229978  57.6150014  94.7656824   1.2096024  57.9126304
  92.3869992   3.1499978  44.5380014  92.5689992   2.7009978  45.3630014
  91.7869992   2.5659978  44.0740014  92.3308187   3.0095552  44.5882739
  77.9169992   3.9659978  49.0700014  78.3619992   3.1739978  49.3720014
  78.3829992   4.6819978  49.5000014  78.0409718   3.9544534  49.1695265
  76.2209992   6.9649978  50.1390014  76.7129992   6.7439978  49.3480014
  76.5829992   7.8049978  50.4200014  76.3372923   7.0483468  50.0687407
  94.2169992   3.2949978  56.4040014  93.2999992   3.5659978  56.3690014
  94.3399992   2.7599978  55.6200014  94.1079672   3.2597885  56.2931862
  94.2539992   3.2179978  41.0660014  94.6659992   2.4969978  40.5910014
  94.9349992   3.8869978  41.1240014  94.4025536   3.2097766  41.0088024
  76.5349992   3.2229978  44.1930014  75.6099992   3.4309978  44.0640014
  76.9889992   3.7069978  43.5030014  76.4696298   3.3169299  44.0820451
  91.3049992  18.2069978  46.1390014  91.9579992  17.8589978  45.5310014
  91.8159992  18.6949978  46.7850014  91.4632777  18.2253815  46.1432047
  76.4979992   1.9609978  52.5370014  75.8329992   1.7149978  53.1800014
  76.0549992   2.5829978  51.9600014  76.3471168   2.0114214  52.5469848
  78.6899992  15.1359978  56.6820014  77.8689992  15.3109978  56.2210014
  78.4379992  15.0629978  57.6020014  78.5435594  15.1500717  56.7433611
  81.6439992  16.1099978  52.9400014  81.2199992  16.9199978  52.6580014
  82.5489992  16.1959978  52.6380014  81.7082138  16.2324160  52.8606415
  85.9559992  17.5089978  55.9000014  86.1399992  17.1759978  56.7780014
  86.8019992  17.8189978  55.5780014  86.0956484  17.5052979  55.9767617
  88.3009992  18.7949978  55.1440014  88.9779992  18.1619978  54.9040014
  88.6219992  19.1959978  55.9510014  88.4371323  18.7625691  55.2203158
  93.2179992   1.3849978  54.2230014  92.4049992   1.7099978  53.8360014
  93.4509992   0.6239978  53.6900014  93.1381347   1.3266880  54.0979841
  79.0459992  19.3669978  52.9880014  78.3259992  19.8069978  52.5370014
  78.6809992  19.1159978  53.8360014  78.8979643  19.3933369  53.0409129
  81.5129992  18.9669978  52.0180014  80.6489992  19.0389978  52.4220014
  81.4579992  19.5139978  51.2340014  81.3871942  19.0507849  51.9674000
  86.2239992  18.8549978  51.1930014  85.7669992  19.3839978  50.5390014
  86.3869992  19.4579978  51.9180014  86.1834960  19.0089280  51.2015274
  88.5519992  17.7329978  52.1380014  87.6469992  17.8979978  51.8720014
  88.9799992  18.5859978  52.0720014  88.4861537  17.8709134  52.0927095
  91.1559992  19.3029978  52.4330014  90.9739992  20.2189978  52.2220014
  91.3329992  18.8919978  51.5860014  91.1550030  19.3728273  52.2897166
  78.4609992  17.9899978  49.8980014  78.4429992  17.5639978  50.7550014
  79.2659992  17.6709978  49.4890014  78.5672875  17.8886435  49.9599515
  80.6019992  16.6999978  48.5530014  80.3829992  15.7829978  48.7230014
  81.4259992  16.8399978  49.0190014  80.6834702  16.5935511  48.6392527
  83.1389992  17.1699978  49.4020014  83.3519992  16.2819978  49.1150014
  83.2039992  17.1349978  50.3560014  83.1769149  17.0438326  49.4917369
  86.6479992   2.8339978  48.5460014  85.9739992   2.2039978  48.8020014
  87.2119992   2.3499978  47.9430014  86.6320384   2.6823708  48.4995020
  91.7909992   0.9409978  48.6590014  92.3939992   1.4889978  48.1570014
  90.9209992   1.2599978  48.4180014  91.7559157   1.0590373  48.5577910
  93.5179992   2.0799978  46.9920014  94.1289992   1.5659978  46.4650014
  93.8999992   2.9569978  47.0150014  93.6533305   2.1282050  46.9229418
  78.9749992   1.4679978  46.3680014  78.1979992   1.2329978  45.8610014
  79.5049992   0.6709978  46.3770014  78.9403451   1.3281268  46.2998627
  77.8109992   1.2659978  42.1720014  78.2499992   1.8769978  41.5800014
  77.1769992   1.8039978  42.6460014  77.7853859   1.4224064  42.1550305
  83.5539992   1.3939978  46.1810014  84.4279992   1.7829978  46.1520014
  83.4179992   1.1789978  47.1040014  83.6551953   1.4181643  46.3017617
  89.1109992   1.4239978  47.8310014  89.1869992   1.5199978  46.8810014
  88.8359992   0.5169978  47.9590014  89.0841871   1.3144146  47.7183944
  90.4639992   1.4499978  43.5230014  89.7609992   2.0649978  43.3130014
  90.0189992   0.6129978  43.6540014  90.3076550   1.4209668  43.5119837
  77.7119992  17.2139978  43.0690014  77.0269992  17.1759978  42.4020014
  77.7159992  18.1269978  43.3570014  77.6187621  17.3321924  43.0166126
  79.6719992   3.1819978  40.6140014  80.1629992   2.5519978  40.0870014
  80.2949992   3.4779978  41.2770014  79.8235304   3.1357376  40.6314940
  84.6979992   3.4749978  43.0710014  84.8759992   2.8279978  43.7540014
  84.6439992   4.3089978  43.5380014  84.7150678   3.4991604  43.2276301
  86.5759992  18.4229978  41.4670014  87.4419992  18.7899978  41.2890014
  86.3299992  17.9839978  40.6530014  86.6612097  18.4138525  41.3326019
  93.2849992  17.9859978  44.1460014  93.0909992  17.2379978  43.5810014
  93.2459992  18.7439978  43.5630014  93.2531645  17.9860786  43.9898148
  78.9319992   1.9819978  55.8860014  78.5659992   1.2159978  56.3280014
  79.8449992   2.0109978  56.1720014  79.0053172   1.8810324  55.9851890
  80.9049992   1.3319978  57.4210014  81.8039992   1.0579978  57.2370014
  80.5189992   0.5899978  57.8860014  80.9757307   1.1942196  57.4587098
  79.5299992  18.1339978  40.0940014  79.2619992  18.4199978  40.9680014
  80.3009992  17.5879978  40.2470014  79.5975926  18.0992779  40.2341205
  89.3269992   0.6649978  57.6040014  89.4029992   0.2389978  58.4570014
  90.2199992   0.6779978  57.2610014  89.4582303   0.6083493  57.6745497
  92.5029992  16.7379978  56.2960014  91.7209992  16.5509978  55.7760014
  92.4309992  17.6669978  56.5130014  92.3861924  16.8380637  56.2541602
 106.9089992  10.6239978  46.3270014 106.9979992  11.5679978  46.1950014
 106.2709992  10.3489978  45.6690014 106.8349062  10.7159812  46.2199641
 105.8419992   9.8789978  49.7460014 105.8039992   9.2329978  50.4510014
 105.5199992   9.4119978  48.9750014 105.7932679   9.7274276  49.7382921
  98.2099992   9.4929978  51.3390014  98.2519992   8.8679978  52.0620014
  98.9129992  10.1169978  51.5210014  98.3107345   9.4917873  51.4625274
 109.5479992  12.8179978  48.0470014 109.1069992  12.0979978  48.4980014
 109.5349992  13.5389978  48.6770014 109.4859215  12.8169291  48.1938105
  99.1339992  13.9429978  49.8740014  98.7639992  13.1409978  49.5040014
 100.0749992  13.7749978  49.9200014  99.2105984  13.8104638  49.8295603
  95.7439992   7.6029978  45.2660014  95.2959992   8.4489978  45.2480014
  95.1829992   7.0239978  44.7510014  95.6068546   7.6403993  45.1938891
  96.4539992   9.7649978  47.3920014  96.6679992   8.9949978  47.9200014
  97.1919992   9.8549978  46.7890014  96.5830200   9.6718587  47.3827035
 106.6599992  17.9219978  48.2590014 107.2789992  17.2459978  47.9860014
 106.4509992  17.7039978  49.1680014 106.7166056  17.7998869  48.3443967
 104.2309992  12.3109978  50.1520014 104.5349992  11.6249978  49.5570014
 104.9529992  12.4299978  50.7700014 104.3701240  12.2332314  50.1540959
 112.8939992   3.9129978  51.0120014 112.9439992   4.5229978  51.7480014
 113.3199992   4.3739978  50.2890014 112.9584108   4.0587709  51.0150112
 107.3719992   6.7049978  50.4790014 107.5149992   5.7589978  50.4990014
 107.2659992   6.9119978  49.5510014 107.3772403   6.6034797  50.3562239
 100.5269992   4.8069978  47.7520014 100.5699992   5.6669978  47.3330014
 100.0689992   4.2549978  47.1180014 100.4709871   4.8499245  47.6090761
 108.2489992   4.9379978  46.1530014 108.8959992   4.6089978  46.7770014
 108.7589992   5.4549978  45.5300014 108.4064351   4.9629067  46.1541037
  97.1469992   7.2039978  48.5140014  97.8009992   6.6539978  48.9460014
  97.1709992   6.9299978  47.5970014  97.2397199   7.0917167  48.4491668
 102.3039992   8.7539978  47.7290014 102.9199992   8.2269978  48.2380014
 101.7169992   8.1139978  47.3250014 102.3090154   8.5953954  47.7440945
 113.2859992   5.3909978  53.2480014 112.5969992   6.0489978  53.1530014
 113.3009992   5.1929978  54.1850014 113.1937756   5.4542603  53.3615812
  99.3369992   3.7249978  51.8260014  99.1179992   4.2549978  51.0590014
  98.6689992   3.9509978  52.4730014  99.2166975   3.8280967  51.8085140
 106.7059992  13.2249978  45.3700014 106.4109992  12.9019978  44.5180014
 106.3819992  14.1249978  45.4110014 106.6218460  13.3024464  45.2589714
 101.9059992  11.3999978  52.1130014 101.1659992  11.9989978  52.2170014
 102.6199992  11.9539978  51.7980014 101.9013500  11.5567829  52.0846371
 110.0129992   4.2289978  48.1330014 109.7979992   3.4629978  48.6660014
 110.6689992   4.7009978  48.6460014 110.0722673   4.1880728  48.2751990
  98.9309992   5.6169978  49.7780014  99.5449992   6.2499978  50.1510014
  99.4429992   5.1449978  49.1220014  99.0841962   5.6397249  49.7402935
 100.3139992  13.3649978  52.9000014 100.3079992  14.2439978  52.5220014
  99.4599992  13.2809978  53.3250014 100.1977925  13.4739535  52.9056887
  96.4349992  13.0359978  43.6820014  96.1629992  13.2649978  42.7940014
  96.4799992  13.8729978  44.1430014  96.4038097  13.1806163  43.6226683
 110.0599992  14.6569978  50.3950014 109.1179992  14.7159978  50.5570014
 110.3359992  15.5629978  50.2580014 109.9685865  14.7875288  50.3986192
 110.3599992   2.9439978  51.8120014 109.6239992   3.5539978  51.7750014
 111.0439992   3.3589978  51.2860014 110.3515367   3.0837551  51.7358174
 103.3639992   1.0299978  49.2780014 103.2459992   0.0819978  49.2240014
 102.5089992   1.3629978  49.5510014 103.2322805   0.9452202  49.3075079
 108.3119992  16.4379978  47.0200014 108.7369992  15.7309978  46.5350014
 108.6289992  17.2399978  46.6030014 108.4130266  16.4495190  46.8972479
 109.4719992  14.3389978  45.5290014 109.2139992  13.6489978  44.9170014
 109.5429992  13.8959978  46.3740014 109.4463050  14.1846814  45.5595621
 111.1579992  12.9059978  54.0060014 111.2969992  12.3139978  53.2670014
 111.3249992  13.7789978  53.6500014 111.1996193  12.9428896  53.8566211
 105.6299992   9.8679978  43.7790014 104.9189992  10.4029978  43.4270014
 106.3209992   9.9229978  43.1190014 105.6260751   9.9486777  43.6415858
 105.6839992   8.3249978  40.8170014 106.3849992   8.3479978  41.4690014
 105.9859992   7.6969978  40.1610014 105.8208202   8.2432212  40.8175609
 112.9989992   9.2459978  52.0720014 112.3469992   9.9399978  52.1610014
 113.4649992   9.4559978  51.2620014 112.9725937   9.3695019  51.9747533
 109.0359992  10.0769978  44.7300014 108.3039992  10.3059978  45.3040014
 109.4829992   9.3639978  45.1850014 108.9963963  10.0118729  44.8699945
 108.9329992   8.2519978  53.7980014 109.0129992   9.0149978  54.3700014
 108.3319992   8.5309978  53.1080014 108.8626547   8.3942457  53.7830047
 100.6809992  10.7079978  46.6130014 100.3509992  10.3369978  45.7950014
 101.2699992  10.0369978  46.9600014 100.7153970  10.5666063  46.5479404
 102.0479992  14.1359978  49.2940014 101.9529992  13.5569978  48.5380014
 102.7769992  13.7649978  49.7900014 102.1336011  14.0065561  49.2576028
 101.0479992   9.4759978  50.2460014 101.6129992   9.5979978  49.4840014
 101.3669992  10.1139978  50.8850014 101.1684166   9.5788791  50.2280348
 107.3569992  14.9799978  50.9800014 107.1169992  15.6419978  51.6280014
 107.1589992  14.1449978  51.4050014 107.2973826  14.9578115  51.1261566
 101.9279992  13.8759978  54.9640014 101.6169992  14.6579978  55.4190014
 101.2779992  13.7229978  54.2780014 101.7975538  13.9624087  54.9335898
 107.9069992   9.2399978  42.4160014 108.4859992   9.3899978  43.1620014
 108.3209992   9.7099978  41.6920014 108.0423358   9.3240955  42.4203953
  98.8479992  10.0739978  54.1920014  98.9179992  10.7249978  54.8910014
  97.9569992  10.1769978  53.8570014  98.7371690  10.1769249  54.2423043
 105.6329992  15.9759978  45.8510014 106.1069992  16.2719978  46.6280014
 105.0699992  16.7149978  45.6180014 105.6217890  16.1163036  45.9258101
 100.1669992  15.9469978  55.7270014 100.1749992  15.8109978  54.7800014
  99.2509992  15.8299978  55.9790014 100.0442528  15.9125463  55.6313243
 111.6059992   0.9899978  42.2290014 110.7059992   1.1289978  42.5240014
 111.8579992   1.8209978  41.8270014 111.5168683   1.1214055  42.2150232
  99.6719992   9.7769978  44.2020014  99.3799992  10.5449978  43.7110014
  98.9969992   9.1179978  44.0390014  99.5408497   9.7929745  44.1128260
 112.7949992  15.3559978  40.6050014 112.8679992  16.2949978  40.7750014
 113.6999992  15.0509978  40.5490014 112.9274170  15.4433282  40.6207063
  95.7649992  12.1399978  53.0170014  95.2629992  12.1119978  52.2020014
  95.7699992  11.2349978  53.3270014  95.6969832  12.0137486  52.9474121
  95.5149992  14.9209978  49.9010014  96.4609992  14.7759978  49.8820014
  95.4019992  15.7049978  50.4380014  95.6293578  15.0071697  49.9710317
 113.7129992  15.5869978  55.5840014 113.6629992  14.6309978  55.5460014
 112.8859992  15.8539978  55.9850014 113.5943831  15.4924680  55.6330121
 104.6909992  15.1609978  54.4600014 104.7789992  15.9869978  54.9350014
 103.8279992  14.8309978  54.7090014 104.5863357  15.2295468  54.5587653
 105.1059992  18.9329978  44.2660014 105.0299992  18.8119978  43.3190014
 105.1379992  19.8819978  44.3840014 105.0999380  19.0447677  44.1525181
  98.7589992  17.7219978  46.0470014  98.9109992  17.3739978  46.9250014
  97.9079992  17.3649978  45.7910014  98.6648344  17.6260879  46.1326868
 108.2069992  18.0869978  41.2680014 108.5819992  17.3429978  40.7970014
 108.2119992  17.8169978  42.1860014 108.2590098  17.9486392  41.3276629
 107.8759992  18.0129978  44.0170014 106.9409992  18.1129978  44.1960014
 108.1559992  17.3029978  44.5960014 107.7859471  17.9307933  44.1196695
 110.8649992   7.0799978  56.0640014 110.4569992   7.5599978  55.3430014
 110.9049992   6.1739978  55.7560014 110.8146221   7.0232449  55.9238267
  98.0139992  13.4639978  54.0600014  98.2299992  13.1019978  54.9200014
  97.1579992  13.0889978  53.8510014  97.9278810  13.3638837  54.1492680
 100.6319992   1.9339978  50.0560014  99.7709992   1.8469978  49.6480014
 100.6099992   2.7899978  50.4840014 100.5110491   2.0378003  50.0579582
 105.2949992   1.6559978  53.4310014 105.7149992   1.2409978  54.1840014
 104.3619992   1.4769978  53.5480014 105.2263736   1.5749910  53.5498968
 108.6219992   5.4109978  54.2840014 108.1079992   5.2859978  55.0820014
 108.4659992   6.3239978  54.0400014 108.5306967   5.5172123  54.3600937
 109.3839992  10.2719978  40.0450014 109.4259992  10.0499978  39.1150014
 110.2329992  10.6709978  40.2350014 109.5045253  10.2955498  39.9433822
 104.9569992   4.1479978  40.7160014 104.7029992   4.1669978  41.6380014
 104.6999992   3.2769978  40.4140014 104.8874508   4.0328280  40.8014803
 100.7229992   6.8989978  51.1510014 100.0819992   6.8589978  51.8600014
 100.7609992   7.8259978  50.9130014 100.6403010   7.0187668  51.2159946
 100.7199992   7.1199978  46.0630014  99.8279992   6.7799978  46.0040014
 101.1709992   6.7429978  45.3070014 100.6587642   7.0224910  45.9527726
 106.2559992   7.5359978  44.8800014 105.8469992   8.3509978  44.5880014
 106.9759992   7.3959978  44.2660014 106.2974439   7.6285372  44.7570115
 105.3579992   7.7119978  56.3680014 104.7949992   7.0069978  56.6890014
 106.1839992   7.5909978  56.8360014 105.3926674   7.5992165  56.4751751
 107.2609992   6.9819978  47.6940014 107.0649992   7.5879978  46.9790014
 107.4419992   6.1489978  47.2600014 107.2586584   6.9522513  47.5374212
  98.4729992   7.2199978  53.0180014  98.4349992   7.6199978  53.8870014
  97.9829992   6.4029978  53.1080014  98.4015330   7.1642674  53.1491289
 101.8389992   4.5939978  39.8170014 101.4079992   4.1489978  40.5460014
 101.1209992   4.9649978  39.3040014 101.6829176   4.5832051  39.8474930
  95.0819992   4.3359978  46.8690014  95.7119992   4.3069978  47.5880014
  95.5309992   3.9109978  46.1380014  95.2290835   4.2745660  46.8687659
  96.3559992   5.0819978  42.2930014  96.8299992   5.6729978  41.7080014
  95.6379992   5.6119978  42.6400014  96.3238640   5.2345511  42.2597969
 106.5249992   8.6199978  52.3650014 106.8479992   7.9889978  51.7220014
 106.0839992   8.0859978  53.0260014 106.5096379   8.4613468  52.3662582
 103.3019992   4.5479978  47.1490014 102.3909992   4.6049978  47.4380014
 103.8069992   4.4879978  47.9600014 103.2456873   4.5476826  47.2981207
  98.1299992   6.1769978  45.9760014  97.2409992   6.2759978  45.6360014
  98.4269992   5.3349978  45.6300014  98.0484177   6.0767687  45.8826940
 101.7829992   6.1769978  43.6330014 102.7149992   6.3059978  43.8110014
 101.5679992   6.8459978  42.9830014 101.8814472   6.2850806  43.5694891
 107.7069992   3.7829978  50.4140014 107.0299992   3.9139978  51.0770014
 107.2219992   3.6279978  49.6030014 107.5487405   3.7799947  50.3952170
 100.4569992   7.3709978  41.1990014  99.9149992   6.9919978  40.5080014
 101.2909992   7.5659978  40.7710014 100.4954390   7.3454079  41.0464392
 110.9949992  19.4539978  56.6900014 111.1939992  19.8779978  55.8560014
 111.6499992  19.7979978  57.2970014 111.1108522  19.5586301  56.6577852
  98.5929992  11.9279978  56.2980014  99.3249992  12.1829978  56.8600014
  97.8119992  12.1329978  56.8140014  98.5876526  11.9905450  56.4445176
 104.6219992   7.3349978  49.0360014 105.1859992   6.7889978  48.4890014
 104.4739992   6.8139978  49.8250014 104.6793037   7.1896787  49.0677229
  99.6239992   3.4719978  45.4550014  99.3069992   2.5689978  45.4190014
 100.4049992   3.4739978  44.9020014  99.6862431   3.3487797  45.3753102
 103.2479992   5.7239978  51.4500014 102.4129992   6.1779978  51.5610014
 103.7719992   5.9999978  52.2020014 103.2046072   5.8233948  51.5668136
 103.7929992  11.9369978  43.1350014 103.0479992  11.4289978  42.8130014
 103.6579992  11.9859978  44.0810014 103.6728963  11.8741731  43.2188826
 110.9429992  11.0699978  51.9220014 111.5839992  11.5259978  51.3780014
 110.1119992  11.1829978  51.4590014 110.9185287  11.1476921  51.7849887
 107.6899992   4.7509978  41.3340014 106.7519992   4.8619978  41.1830014
 107.9879992   5.6069978  41.6410014 107.6016318   4.8820158  41.3548145
 105.3119992  12.1209978  54.3720014 104.9659992  11.7389978  55.1790014
 105.1119992  13.0539978  54.4430014 105.2375987  12.1949002  54.4920461
 108.4089992   6.6179978  42.9950014 109.3009992   6.4799978  43.3140014
 108.4649992   7.4089978  42.4580014 108.5387325   6.7059918  42.9661217
  98.9169992  11.2319978  48.9050014  99.6619992  11.2289978  48.3030014
  98.9949992  10.4079978  49.3860014  99.0293365  11.1202384  48.8877430
 105.9179992  13.3949978  42.1600014 105.6229992  14.2219978  42.5420014
 105.2149992  12.7759978  42.3570014 105.7826379  13.4244171  42.2388654
  95.9249992   9.6919978  54.2200014  96.1479992   9.2739978  55.0510014
  95.3229992   9.0799978  53.7970014  95.8741513   9.5519606  54.2766740
 102.9419992   9.2089978  56.4330014 102.6459992   9.0439978  55.5370014
 103.8729992   8.9889978  56.4220014 103.0274401   9.1566879  56.3090206
 107.5619992  14.5829978  54.3220014 106.6619992  14.7659978  54.0550014
 107.5959992  14.8419978  55.2430014 107.4433748  14.6430554  54.4099164
 113.2939992   6.8269978  42.6900014 112.7389992   6.4309978  42.0170014
 113.3939992   7.7379978  42.4120014 113.2316816   6.8959505  42.5605033
 113.2569992  12.6279978  55.5270014 112.4059992  12.8659978  55.1590014
 113.8469992  12.6109978  54.7740014 113.2203812  12.6582524  55.3748453
 111.5889992  15.6129978  43.1550014 111.2159992  14.7879978  43.4640014
 111.8659992  15.4299978  42.2570014 111.5753463  15.4752569  43.0759525
 108.7489992  10.4209978  50.1760014 107.8209992  10.1899978  50.1490014
 109.1999992   9.6439978  49.8460014 108.6828165  10.2842774  50.1276790
 101.2919992  14.7499978  46.3090014 101.8199992  15.5229978  46.1090014
 100.4119992  14.9739978  46.0070014 101.2453435  14.8862700  46.2407310
  97.0469992   9.6119978  40.8960014  97.6629992  10.2389978  41.2760014
  96.1849992   9.9279978  41.1680014  97.0147678   9.7404412  40.9847209
 102.7199992  12.4129978  45.8850014 102.4789992  13.3379978  45.9270014
 101.9789992  11.9539978  46.2820014 102.5869206  12.4775915  45.9443769
 103.2339992  16.5619978  52.2000014 103.5969992  17.4159978  51.9670014
 103.7659992  16.2699978  52.9410014 103.3555141  16.6393895  52.2682097
 101.4029992  17.4339978  45.4310014 100.4529992  17.5399978  45.4820014
 101.7549992  18.2549978  45.7750014 101.3205472  17.5594923  45.4844852
 106.7779992  12.6609978  51.9010014 106.3529992  12.4329978  52.7270014
 107.3589992  11.9219978  51.7190014 106.7983395  12.5299545  51.9894414
 108.9809992  13.5899978  40.9750014 109.3349992  13.2099978  41.7790014
 108.0329992  13.4959978  41.0620014 108.9012298  13.5252452  41.0968687
 109.4369992  17.2129978  54.3700014 108.8349992  16.6569978  53.8750014
 109.7179992  17.8799978  53.7440014 109.3925757  17.2270744  54.2175675
 113.4849992  18.0689978  41.1760014 114.2289992  18.6549978  41.0360014
 112.7909992  18.6379978  41.5090014 113.4929809  18.2260818  41.2018590
  97.5589992   4.4459978  53.7780014  96.6669992   4.7839978  53.7100014
  97.4609992   3.5899978  54.1960014  97.4234475   4.3766543  53.8251704
 109.8469992  12.2619978  43.2020014 109.5699992  11.5339978  43.7580014
 110.7749992  12.3809978  43.4070014 109.9344499  12.1784213  43.3058044
  97.2109992  16.2499978  52.2130014  97.4279992  15.3179978  52.1820014
  97.4569992  16.5249978  53.0960014  97.2739809  16.1595686  52.3281691
 103.0719992  14.7019978  39.4220014 103.3109992  13.9529978  38.8750014
 102.8029992  14.3139978  40.2550014 103.0683233  14.5471853  39.4597809
 102.0089992  14.2719978  41.8780014 102.1559992  13.7519978  42.6680014
 102.0059992  15.1789978  42.1850014 102.0287102  14.3233953  42.0275925
  98.4619992  11.5239978  42.3890014  97.7759992  11.8769978  42.9560014
  98.9849992  12.2869978  42.1420014  98.4388402  11.6753901  42.4331801
 106.2939992   4.1869978  52.6680014 106.9929992   4.2609978  53.3180014
 105.9129992   3.3219978  52.8220014 106.3382097   4.0802389  52.7777997
 107.0779992   3.8389978  43.7650014 107.2979992   4.3099978  42.9610014
 107.6369992   4.2329978  44.4350014 107.1836731   3.9567287  43.7455033
 104.7469992  15.9689978  42.6280014 103.9299992  16.4659978  42.6800014
 105.2759992  16.4449978  41.9870014 104.7068125  16.1011989  42.5485306
 104.2779992   5.5669978  44.6000014 105.0899992   6.0709978  44.6460014
 104.0339992   5.4219978  45.5140014 104.3561467   5.6163749  44.7298575
 104.8139992   6.5529978  53.7840014 104.9329992   7.1269978  54.5410014
 105.4689992   5.8649978  53.8990014 104.9188684   6.5385194  53.9031674
 105.1619992   2.6479978  45.5380014 104.8149992   3.2649978  46.1820014
 105.8209992   3.1489978  45.0560014 105.2035090   2.8001575  45.5610681
 102.0849992  17.0129978  42.6090014 102.2459992  17.8129978  42.1090014
 101.8879992  17.3199978  43.4940014 102.0803906  17.1638678  42.6602333
 100.8199992   3.7109978  42.2250014 100.7359992   4.5989978  42.5720014
 101.7099992   3.4459978  42.4570014 100.9288163   3.7967179  42.3038596
 111.0179992   4.4599978  54.6190014 110.1019992   4.7219978  54.5320014
 111.3539992   4.4569978  53.7230014 110.9378499   4.4955163  54.4858766
 109.6209992   8.2099978  48.7150014 108.8229992   7.7949978  48.3870014
 110.0659992   7.5199978  49.2060014 109.5719684   8.0598628  48.7365227
  99.0779992  14.1379978  41.2850014  99.6699992  14.8379978  41.5620014
  99.5369992  13.7049978  40.5660014  99.2211652  14.1752675  41.2256533
  97.3939992   6.8029978  40.4010014  97.3489992   7.7419978  40.5800014
  96.5059992   6.5669978  40.1320014  97.2678166   6.8996687  40.3891524
 110.7069992  17.4659978  50.3370014 110.5509992  18.1449978  49.6800014
 111.6399992  17.5379978  50.5400014 110.8117387  17.5686390  50.2745342
  98.2019992   1.5839978  49.0750014  97.9729992   1.6429978  48.1470014
  97.7599992   0.7929978  49.3810014  98.1108801   1.4850540  48.9894729
  97.1329992  15.5249978  45.2350014  96.2999992  15.9969978  45.2620014
  97.6779992  16.0349978  44.6360014  97.0927857  15.6584791  45.1577142
  96.4209992  18.1369978  56.5650014  96.9609992  17.9209978  57.3250014
  95.9399992  17.3319978  56.3750014  96.4299219  17.9985156  56.6434282
 101.0179992  17.0569978  58.1850014 101.7859992  16.5979978  58.5260014
 100.9969992  16.8309978  57.2550014 101.1202135  16.9636668  58.1059491
 105.1099992  16.5649978  39.5610014 104.4659992  15.9339978  39.8820014
 105.8719992  16.0339978  39.3290014 105.1248058  16.4067902  39.5736038
 107.5949992  15.4369978  56.9140014 107.2439992  14.5799978  57.1580014
 108.3209992  15.5789978  57.5210014 107.6451895  15.3391351  57.0293770
 109.7149992  16.3819978  39.7940014 109.9979992  15.5869978  40.2470014
 110.4539992  16.6149978  39.2330014 109.8537096  16.3047049  39.7801104
  96.3279992  11.9479978  57.5190014  96.4719992  11.0459978  57.2330014
  95.5559992  12.2339978  57.0320014  96.2432733  11.8631798  57.4139532
 100.6689992  12.2909978  39.6520014 100.7339992  11.4969978  40.1820014
 101.3219992  12.1729978  38.9620014 100.7661605  12.1663430  39.6312997
 102.9829992  11.9169978  56.9520014 102.6549992  12.1879978  56.0950014
 103.1349992  10.9759978  56.8640014 102.9586412  11.8269046  56.8227822
 106.0219992  13.3379978  39.3880014 105.7529992  13.5189978  40.2880014
 105.8149992  12.4129978  39.2560014 105.9571191  13.2377119  39.4935524
 108.7179992  11.8329978  54.3350014 109.4629992  12.4219978  54.2160014
 107.9609992  12.4149978  54.3990014 108.7175470  11.9922128  54.3273799
  97.1609992   9.1479978  56.9390014  97.5689992   8.2909978  56.8180014
  96.8999992   9.1619978  57.8600014  97.1816016   9.0325119  57.0469192
 101.8189992  10.2639978  41.9580014 101.3589992   9.7799978  42.6430014
 102.0739992   9.5949978  41.3220014 101.7904856  10.1073669  41.9658397
 101.1079992   8.1569978  54.3140014 100.4889992   8.8309978  54.5940014
 101.4519992   8.4779978  53.4800014 101.0697123   8.2926887  54.2396388
 102.8899992   8.5069978  40.2200014 102.7089992   8.3519978  39.2930014
 103.8399992   8.6149978  40.2650014 102.9936566   8.5003669  40.0990929
 106.1269992  10.6279978  57.5910014 107.0809992  10.7119978  57.5640014
 105.9669992   9.9159978  58.2110014 106.2357182  10.5432842  57.6710733
 112.2799992  10.8609978  39.6660014 112.0059992  10.4369978  38.8530014
 112.3189992  11.7929978  39.4490014 112.2477716  10.9288827  39.5254286
 101.4469992   5.5119978  55.3960014 101.5969992   4.7829978  54.7940014
 101.4489992   6.2889978  54.8370014 101.4677967   5.5172708  55.2380541
 101.8599992   3.8809978  52.8890014 102.3949992   4.3329978  52.2370014
 101.0069992   3.7729978  52.4660014 101.8180374   3.9282665  52.7426710
 103.4409992   9.3209978  53.1280014 104.1919992   9.1649978  52.5550014
 103.1019992  10.1729978  52.8530014 103.4979587   9.4148138  53.0124078
 107.8569992   7.1359978  58.1570014 108.0489992   6.2049978  58.0450014
 108.7149992   7.5609978  58.1460014 107.9992182   7.0660070  58.1401862
 109.1739992   9.9249978  56.2340014 108.8919992  10.6339978  55.6560014
 110.1159992   9.8519978  56.0830014 109.2627921  10.0122193  56.1344225
  99.9259992   6.7099978  57.3070014  99.1579992   6.1769978  57.0970014
 100.6039992   6.3999978  56.7080014  99.9127235   6.5951754  57.1972413
 102.6649992   1.3379978  53.3200014 102.5669992   2.2839978  53.2150014
 101.9229992   0.9649978  52.8440014 102.5512534   1.4171773  53.2412600
 103.9289992   5.6589978  56.8840014 103.6939992   5.4399978  57.7850014
 103.1459992   5.4519978  56.3740014 103.7909095   5.6009892  56.9385353
 106.6449992   4.7869978  55.9590014 105.6969992   4.8189978  56.0910014
 106.9569992   4.1609978  56.6130014 106.5575293   4.7067923  56.0654148
 108.2789992   3.4209978  57.9640014 108.1819992   2.4689978  57.9590014
 107.9569992   3.6889978  58.8250014 108.2222468   3.3270884  58.0796210
  98.1059992   4.6299978  57.0120014  98.3179992   3.9239978  56.4020014
  97.9949992   4.1929978  57.8560014  98.1200269   4.4741921  57.0425873
 102.8869992   0.6319978  55.9910014 103.5989992  -0.0080022  55.9770014
 102.7859992   0.8979978  55.0780014 102.9707387   0.5804330  55.8655563
 103.2409992   2.3139978  58.0450014 103.1089992   1.8389978  57.2250014
 102.6409992   3.0589978  57.9900014 103.1419070   2.3495789  57.9253251
 102.7869992  19.1969978  41.2210014 103.7199992  19.3549978  41.3650014
 102.5229992  19.8729978  40.5960014 102.8789911  19.3099373  41.1562722
  96.3549992  13.8339978  40.7040014  97.2689992  13.9129978  40.9770014
  96.3629992  13.1469978  40.0380014  96.4810655  13.7519205  40.6512917
  95.0039992  19.2269978  45.7810014  94.3569992  18.7649978  45.2490014
  95.3589992  18.5549978  46.3640014  94.9633741  19.0729774  45.7869175
  95.8739992  17.3069978  47.5860014  95.5399992  16.4269978  47.7580014
  96.0969992  17.6529978  48.4510014  95.8583721  17.2331938  47.7264168
 113.4229992  18.1169978  50.5670014 113.4009992  18.3019978  51.5060014
 114.1129992  18.6849978  50.2260014 113.5133439  18.2191887  50.6494791
 112.9859992  17.6839978  53.4880014 112.4989992  16.9489978  53.1170014
 113.5349992  17.2899978  54.1660014 112.9935247  17.5301057  53.5288461
 111.4369992  13.4739978  58.1270014 110.5709992  13.3689978  58.5210014
 111.8129992  14.2319978  58.5730014 111.3693401  13.5621708  58.2412620
 112.7379992  11.7299978  43.6410014 113.5879992  12.1509978  43.7680014
 112.7429992  10.9899978  44.2480014 112.8551143  11.6876094  43.7404750
 113.1319992   9.7839978  45.4640014 112.4059992   9.3039978  45.8620014
 113.7139992   9.9889978  46.1970014 113.1112730   9.7460184  45.6174149
 112.8909992  12.5689978  50.4120014 113.7249992  12.1909978  50.1310014
 113.0029992  13.5119978  50.2930014 113.0201917  12.6447943  50.3574861
 111.3779992  15.4469978  52.7190014 110.7299992  15.7719978  53.3440014
 110.8599992  15.0059978  52.0450014 111.2194196  15.4318651  52.7134152
 113.4009992   9.6849978  41.8550014 112.8789992  10.0409978  41.1370014
 113.3679992  10.3599978  42.5340014 113.3250129   9.8249598  41.8483355
 111.7499992   6.9239978  40.4060014 111.8459992   7.5909978  39.7260014
 111.6099992   6.1089978  39.9250014 111.7442040   6.9050671  40.2478378
 110.9189992   8.3049978  46.0270014 110.7689992   7.3599978  46.0070014
 110.5649992   8.5859978  46.8710014 110.8506351   8.2136644  46.1383220
  95.9539992  10.3829978  50.0380014  96.1389992  10.3009978  49.1020014
  96.8039992  10.2589978  50.4610014  96.0940928  10.3550463  49.9672893
 111.7749992  10.2749978  55.6660014 112.3579992   9.5399978  55.8580014
 112.3389992  11.0469978  55.7130014 111.9309781  10.2788145  55.6986164
 113.2719992   8.1779978  56.3510014 112.4089992   7.7989978  56.1850014
 113.8759992   7.4389978  56.2760014 113.2356085   8.0263223  56.3181694
 110.9969992   4.3319978  39.5240014 111.6079992   3.9609978  40.1610014
 110.1599992   3.9109978  39.7200014 110.9674947   4.2242756  39.6377252
 110.6299992   5.8869978  44.4900014 110.9089992   4.9799978  44.6140014
 111.3889992   6.3209978  44.1010014 110.7708619   5.8214502  44.4543795
 111.2409992   6.4689978  49.9260014 112.1739992   6.6809978  49.8910014
 111.0059992   6.5699978  50.8480014 111.3369517   6.5116833  50.0459130
 111.2709992   7.2059978  52.7020014 110.4279992   7.4739978  53.0680014
 111.7129992   8.0279978  52.4910014 111.2154138   7.3538273  52.7235518
  95.5519992   5.6529978  56.1780014  96.4709992   5.5309978  56.4150014
  95.1019992   4.9029978  56.5680014  95.6170087   5.5349608  56.2631410
 113.5539992   1.1859978  58.0550014 113.9029992   0.5319978  57.4500014
 113.7009992   2.0229978  57.6150014 113.6216824   1.2096024  57.9126304
 111.2429992   3.1499978  44.5380014 111.4249992   2.7009978  45.3630014
 110.6429992   2.5659978  44.0740014 111.1868187   3.0095552  44.5882739
  96.7729992   3.9659978  49.0700014  97.2179992   3.1739978  49.3720014
  97.2389992   4.6819978  49.5000014  96.8969718   3.9544534  49.1695265
  95.0769992   6.9649978  50.1390014  95.5689992   6.7439978  49.3480014
  95.4389992   7.8049978  50.4200014  95.1932923   7.0483468  50.0687407
 113.0729992   3.2949978  56.4040014 112.1559992   3.5659978  56.3690014
 113.1959992   2.7599978  55.6200014 112.9639672   3.2597885  56.2931862
 113.1099992   3.2179978  41.0660014 113.5219992   2.4969978  40.5910014
 113.7909992   3.8869978  41.1240014 113.2585536   3.2097766  41.0088024
  95.3909992   3.2229978  44.1930014  94.4659992   3.4309978  44.0640014
  95.8449992   3.7069978  43.5030014  95.3256298   3.3169299  44.0820451
 110.1609992  18.2069978  46.1390014 110.8139992  17.8589978  45.5310014
 110.6719992  18.6949978  46.7850014 110.3192777  18.2253815  46.1432047
  95.3539992   1.9609978  52.5370014  94.6889992   1.7149978  53.1800014
  94.9109992   2.5829978  51.9600014  95.2031168   2.0114214  52.5469848
  97.5459992  15.1359978  56.6820014  96.7249992  15.3109978  56.2210014
  97.2939992  15.0629978  57.6020014  97.3995594  15.1500717  56.7433611
 100.4999992  16.1099978  52.9400014 100.0759992  16.9199978  52.6580014
 101.4049992  16.1959978  52.6380014 100.5642138  16.2324160  52.8606415
 104.8119992  17.5089978  55.9000014 104.9959992  17.1759978  56.7780014
 105.6579992  17.8189978  55.5780014 104.9516484  17.5052979  55.9767617
 107.1569992  18.7949978  55.1440014 107.8339992  18.1619978  54.9040014
 107.4779992  19.1959978  55.9510014 107.2931323  18.7625691  55.2203158
 112.0739992   1.3849978  54.2230014 111.2609992   1.7099978  53.8360014
 112.3069992   0.6239978  53.6900014 111.9941347   1.3266880  54.0979841
  97.9019992  19.3669978  52.9880014  97.1819992  19.8069978  52.5370014
  97.5369992  19.1159978  53.8360014  97.7539643  19.3933369  53.0409129
 100.3689992  18.9669978  52.0180014  99.5049992  19.0389978  52.4220014
 100.3139992  19.5139978  51.2340014 100.2431942  19.0507849  51.9674000
 105.0799992  18.8549978  51.1930014 104.6229992  19.3839978  50.5390014
 105.2429992  19.4579978  51.9180014 105.0394960  19.0089280  51.2015274
 107.4079992  17.7329978  52.1380014 106.5029992  17.8979978  51.8720014
 107.8359992  18.5859978  52.0720014 107.3421537  17.8709134  52.0927095
 110.0119992  19.3029978  52.4330014 109.8299992  20.2189978  52.2220014
 110.1889992  18.8919978  51.5860014 110.0110030  19.3728273  52.2897166
  97.3169992  17.9899978  49.8980014  97.2989992  17.5639978  50.7550014
  98.1219992  17.6709978  49.4890014  97.4232875  17.8886435  49.9599515
  99.4579992  16.6999978  48.5530014  99.2389992  15.7829978  48.7230014
 100.2819992  16.8399978  49.0190014  99.5394702  16.5935511  48.6392527
 101.9949992  17.1699978  49.4020014 102.2079992  16.2819978  49.1150014
 102.0599992  17.1349978  50.3560014 102.0329149  17.0438326  49.4917369
 105.5039992   2.8339978  48.5460014 104.8299992   2.2039978  48.8020014
 106.0679992   2.3499978  47.9430014 105.4880384   2.6823708  48.4995020
 110.6469992   0.9409978  48.6590014 111.2499992   1.4889978  48.1570014
 109.7769992   1.2599978  48.4180014 110.6119157   1.0590373  48.5577910
 112.3739992   2.0799978  46.9920014 112.9849992   1.5659978  46.4650014
 112.7559992   2.9569978  47.0150014 112.5093305   2.1282050  46.9229418
  97.8309992   1.4679978  46.3680014  97.0539992   1.2329978  45.8610014
  98.3609992   0.6709978  46.3770014  97.7963451   1.3281268  46.2998627
  96.6669992   1.2659978  42.1720014  97.1059992   1.8769978  41.5800014
  96.0329992   1.8039978  42.6460014  96.6413859   1.4224064  42.1550305
 102.4099992   1.3939978  46.1810014 103.2839992   1.7829978  46.1520014
 102.2739992   1.1789978  47.1040014 102.5111953   1.4181643  46.3017617
 107.9669992   1.4239978  47.8310014 108.0429992   1.5199978  46.8810014
 107.6919992   0.5169978  47.9590014 107.9401871   1.3144146  47.7183944
 109.3199992   1.4499978  43.5230014 108.6169992   2.0649978  43.3130014
 108.8749992   0.6129978  43.6540014 109.1636550   1.4209668  43.5119837
  96.5679992  17.2139978  43.0690014  95.8829992  17.1759978  42.4020014
  96.5719992  18.1269978  43.3570014  96.4747621  17.3321924  43.0166126
  98.5279992   3.1819978  40.6140014  99.0189992   2.5519978  40.0870014
  99.1509992   3.4779978  41.2770014  98.6795304   3.1357376  40.6314940
 103.5539992   3.4749978  43.0710014 103.7319992   2.8279978  43.7540014
 103.4999992   4.3089978  43.5380014 103.5710678   3.4991604  43.2276301
 105.4319992  18.4229978  41.4670014 106.2979992  18.7899978  41.2890014
 105.1859992  17.9839978  40.6530014 105.5172097  18.4138525  41.3326019
 112.1409992  17.9859978  44.1460014 111.9469992  17.2379978  43.5810014
 112.1019992  18.7439978  43.5630014 112.1091645  17.9860786  43.9898148
  97.7879992   1.9819978  55.8860014  97.4219992   1.2159978  56.3280014
  98.7009992   2.0109978  56.1720014  97.8613172   1.8810324  55.9851890
  99.7609992   1.3319978  57.4210014 100.6599992   1.0579978  57.2370014
  99.3749992   0.5899978  57.8860014  99.8317307   1.1942196  57.4587098
  98.3859992  18.1339978  40.0940014  98.1179992  18.4199978  40.9680014
  99.1569992  17.5879978  40.2470014  98.4535926  18.0992779  40.2341205
 108.1829992   0.6649978  57.6040014 108.2589992   0.2389978  58.4570014
 109.0759992   0.6779978  57.2610014 108.3142303   0.6083493  57.6745497
 111.3589992  16.7379978  56.2960014 110.5769992  16.5509978  55.7760014
 111.2869992  17.6669978  56.5130014 111.2421924  16.8380637  56.2541602
 125.7649992  10.6239978  46.3270014 125.8539992  11.5679978  46.1950014
 125.1269992  10.3489978  45.6690014 125.6909062  10.7159812  46.2199641
 124.6979992   9.8789978  49.7460014 124.6599992   9.2329978  50.4510014
 124.3759992   9.4119978  48.9750014 124.6492679   9.7274276  49.7382921
 117.0659992   9.4929978  51.3390014 117.1079992   8.8679978  52.0620014
 117.7689992  10.1169978  51.5210014 117.1667345   9.4917873  51.4625274
 128.4039992  12.8179978  48.0470014 127.9629992  12.0979978  48.4980014
 128.3909992  13.5389978  48.6770014 128.3419215  12.8169291  48.1938105
 117.9899992  13.9429978  49.8740014 117.6199992  13.1409978  49.5040014
 118.9309992  13.7749978  49.9200014 118.0665984  13.8104638  49.8295603
 114.5999992   7.6029978  45.2660014 114.1519992   8.4489978  45.2480014
 114.0389992   7.0239978  44.7510014 114.4628546   7.6403993  45.1938891
 115.3099992   9.7649978  47.3920014 115.5239992   8.9949978  47.9200014
 116.0479992   9.8549978  46.7890014 115.4390200   9.6718587  47.3827035
 125.5159992  17.9219978  48.2590014 126.1349992  17.2459978  47.9860014
 125.3069992  17.7039978  49.1680014 125.5726056  17.7998869  48.3443967
 123.0869992  12.3109978  50.1520014 123.3909992  11.6249978  49.5570014
 123.8089992  12.4299978  50.7700014 123.2261240  12.2332314  50.1540959
 131.7499992   3.9129978  51.0120014 131.7999992   4.5229978  51.7480014
 132.1759992   4.3739978  50.2890014 131.8144108   4.0587709  51.0150112
 126.2279992   6.7049978  50.4790014 126.3709992   5.7589978  50.4990014
 126.1219992   6.9119978  49.5510014 126.2332403   6.6034797  50.3562239
 119.3829992   4.8069978  47.7520014 119.4259992   5.6669978  47.3330014
 118.9249992   4.2549978  47.1180014 119.3269871   4.8499245  47.6090761
 127.1049992   4.9379978  46.1530014 127.7519992   4.6089978  46.7770014
 127.6149992   5.4549978  45.5300014 127.2624351   4.9629067  46.1541037
 116.0029992   7.2039978  48.5140014 116.6569992   6.6539978  48.9460014
 116.0269992   6.9299978  47.5970014 116.0957199   7.0917167  48.4491668
 121.1599992   8.7539978  47.7290014 121.7759992   8.2269978  48.2380014
 120.5729992   8.1139978  47.3250014 121.1650154   8.5953954  47.7440945
 132.1419992   5.3909978  53.2480014 131.4529992   6.0489978  53.1530014
 132.1569992   5.1929978  54.1850014 132.0497756   5.4542603  53.3615812
 118.1929992   3.7249978  51.8260014 117.9739992   4.2549978  51.0590014
 117.5249992   3.9509978  52.4730014 118.0726975   3.8280967  51.8085140
 125.5619992  13.2249978  45.3700014 125.2669992  12.9019978  44.5180014
 125.2379992  14.1249978  45.4110014 125.4778460  13.3024464  45.2589714
 120.7619992  11.3999978  52.1130014 120.0219992  11.9989978  52.2170014
 121.4759992  11.9539978  51.7980014 120.7573500  11.5567829  52.0846371
 128.8689992   4.2289978  48.1330014 128.6539992   3.4629978  48.6660014
 129.5249992   4.7009978  48.6460014 128.9282673   4.1880728  48.2751990
 117.7869992   5.6169978  49.7780014 118.4009992   6.2499978  50.1510014
 118.2989992   5.1449978  49.1220014 117.9401962   5.6397249  49.7402935
 119.1699992  13.3649978  52.9000014 119.1639992  14.2439978  52.5220014
 118.3159992  13.2809978  53.3250014 119.0537925  13.4739535  52.9056887
 115.2909992  13.0359978  43.6820014 115.0189992  13.2649978  42.7940014
 115.3359992  13.8729978  44.1430014 115.2598097  13.1806163  43.6226683
 128.9159992  14.6569978  50.3950014 127.9739992  14.7159978  50.5570014
 129.1919992  15.5629978  50.2580014 128.8245865  14.7875288  50.3986192
 129.2159992   2.9439978  51.8120014 128.4799992   3.5539978  51.7750014
 129.8999992   3.3589978  51.2860014 129.2075367   3.0837551  51.7358174
 122.2199992   1.0299978  49.2780014 122.1019992   0.0819978  49.2240014
 121.3649992   1.3629978  49.5510014 122.0882805   0.9452202  49.3075079
 127.1679992  16.4379978  47.0200014 127.5929992  15.7309978  46.5350014
 127.4849992  17.2399978  46.6030014 127.2690266  16.4495190  46.8972479
 128.3279992  14.3389978  45.5290014 128.0699992  13.6489978  44.9170014
 128.3989992  13.8959978  46.3740014 128.3023050  14.1846814  45.5595621
 130.0139992  12.9059978  54.0060014 130.1529992  12.3139978  53.2670014
 130.1809992  13.7789978  53.6500014 130.0556193  12.9428896  53.8566211
 124.4859992   9.8679978  43.7790014 123.7749992  10.4029978  43.4270014
 125.1769992   9.9229978  43.1190014 124.4820751   9.9486777  43.6415858
 124.5399992   8.3249978  40.8170014 125.2409992   8.3479978  41.4690014
 124.8419992   7.6969978  40.1610014 124.6768202   8.2432212  40.8175609
 131.8549992   9.2459978  52.0720014 131.2029992   9.9399978  52.1610014
 132.3209992   9.4559978  51.2620014 131.8285937   9.3695019  51.9747533
 127.8919992  10.0769978  44.7300014 127.1599992  10.3059978  45.3040014
 128.3389992   9.3639978  45.1850014 127.8523963  10.0118729  44.8699945
 127.7889992   8.2519978  53.7980014 127.8689992   9.0149978  54.3700014
 127.1879992   8.5309978  53.1080014 127.7186547   8.3942457  53.7830047
 119.5369992  10.7079978  46.6130014 119.2069992  10.3369978  45.7950014
 120.1259992  10.0369978  46.9600014 119.5713970  10.5666063  46.5479404
 120.9039992  14.1359978  49.2940014 120.8089992  13.5569978  48.5380014
 121.6329992  13.7649978  49.7900014 120.9896011  14.0065561  49.2576028
 119.9039992   9.4759978  50.2460014 120.4689992   9.5979978  49.4840014
 120.2229992  10.1139978  50.8850014 120.0244166   9.5788791  50.2280348
 126.2129992  14.9799978  50.9800014 125.9729992  15.6419978  51.6280014
 126.0149992  14.1449978  51.4050014 126.1533826  14.9578115  51.1261566
 120.7839992  13.8759978  54.9640014 120.4729992  14.6579978  55.4190014
 120.1339992  13.7229978  54.2780014 120.6535538  13.9624087  54.9335898
 126.7629992   9.2399978  42.4160014 127.3419992   9.3899978  43.1620014
 127.1769992   9.7099978  41.6920014 126.8983358   9.3240955  42.4203953
 117.7039992  10.0739978  54.1920014 117.7739992  10.7249978  54.8910014
 116.8129992  10.1769978  53.8570014 117.5931690  10.1769249  54.2423043
 124.4889992  15.9759978  45.8510014 124.9629992  16.2719978  46.6280014
 123.9259992  16.7149978  45.6180014 124.4777890  16.1163036  45.9258101
 119.0229992  15.9469978  55.7270014 119.0309992  15.8109978  54.7800014
 118.1069992  15.8299978  55.9790014 118.9002528  15.9125463  55.6313243
 130.4619992   0.9899978  42.2290014 129.5619992   1.1289978  42.5240014
 130.7139992   1.8209978  41.8270014 130.3728683   1.1214055  42.2150232
 118.5279992   9.7769978  44.2020014 118.2359992  10.5449978  43.7110014
 117.8529992   9.1179978  44.0390014 118.3968497   9.7929745  44.1128260
 131.6509992  15.3559978  40.6050014 131.7239992  16.2949978  40.7750014
 132.5559992  15.0509978  40.5490014 131.7834170  15.4433282  40.6207063
 114.6209992  12.1399978  53.0170014 114.1189992  12.1119978  52.2020014
 114.6259992  11.2349978  53.3270014 114.5529832  12.0137486  52.9474121
 114.3709992  14.9209978  49.9010014 115.3169992  14.7759978  49.8820014
 114.2579992  15.7049978  50.4380014 114.4853578  15.0071697  49.9710317
 132.5689992  15.5869978  55.5840014 132.5189992  14.6309978  55.5460014
 131.7419992  15.8539978  55.9850014 132.4503831  15.4924680  55.6330121
 123.5469992  15.1609978  54.4600014 123.6349992  15.9869978  54.9350014
 122.6839992  14.8309978  54.7090014 123.4423357  15.2295468  54.5587653
 123.9619992  18.9329978  44.2660014 123.8859992  18.8119978  43.3190014
 123.9939992  19.8819978  44.3840014 123.9559380  19.0447677  44.1525181
 117.6149992  17.7219978  46.0470014 117.7669992  17.3739978  46.9250014
 116.7639992  17.3649978  45.7910014 117.5208344  17.6260879  46.1326868
 127.0629992  18.0869978  41.2680014 127.4379992  17.3429978  40.7970014
 127.0679992  17.8169978  42.1860014 127.1150098  17.9486392  41.3276629
 126.7319992  18.0129978  44.0170014 125.7969992  18.1129978  44.1960014
 127.0119992  17.3029978  44.5960014 126.6419471  17.9307933  44.1196695
 129.7209992   7.0799978  56.0640014 129.3129992   7.5599978  55.3430014
 129.7609992   6.1739978  55.7560014 129.6706221   7.0232449  55.9238267
 116.8699992  13.4639978  54.0600014 117.0859992  13.1019978  54.9200014
 116.0139992  13.0889978  53.8510014 116.7838810  13.3638837  54.1492680
 119.4879992   1.9339978  50.0560014 118.6269992   1.8469978  49.6480014
 119.4659992   2.7899978  50.4840014 119.3670491   2.0378003  50.0579582
 124.1509992   1.6559978  53.4310014 124.5709992   1.2409978  54.1840014
 123.2179992   1.4769978  53.5480014 124.0823736   1.5749910  53.5498968
 127.4779992   5.4109978  54.2840014 126.9639992   5.2859978  55.0820014
 127.3219992   6.3239978  54.0400014 127.3866967   5.5172123  54.3600937
 128.2399992  10.2719978  40.0450014 128.2819992  10.0499978  39.1150014
 129.0889992  10.6709978  40.2350014 128.3605253  10.2955498  39.9433822
 123.8129992   4.1479978  40.7160014 123.5589992   4.1669978  41.6380014
 123.5559992   3.2769978  40.4140014 123.7434508   4.0328280  40.8014803
 119.5789992   6.8989978  51.1510014 118.9379992   6.8589978  51.8600014
 119.6169992   7.8259978  50.9130014 119.4963010   7.0187668  51.2159946
 119.5759992   7.1199978  46.0630014 118.6839992   6.7799978  46.0040014
 120.0269992   6.7429978  45.3070014 119.5147642   7.0224910  45.9527726
 125.1119992   7.5359978  44.8800014 124.7029992   8.3509978  44.5880014
 125.8319992   7.3959978  44.2660014 125.1534439   7.6285372  44.7570115
 124.2139992   7.7119978  56.3680014 123.6509992   7.0069978  56.6890014
 125.0399992   7.5909978  56.8360014 124.2486674   7.5992165  56.4751751
 126.1169992   6.9819978  47.6940014 125.9209992   7.5879978  46.9790014
 126.2979992   6.1489978  47.2600014 126.1146584   6.9522513  47.5374212
 117.3289992   7.2199978  53.0180014 117.2909992   7.6199978  53.8870014
 116.8389992   6.4029978  53.1080014 117.2575330   7.1642674  53.1491289
 120.6949992   4.5939978  39.8170014 120.2639992   4.1489978  40.5460014
 119.9769992   4.9649978  39.3040014 120.5389176   4.5832051  39.8474930
 113.9379992   4.3359978  46.8690014 114.5679992   4.3069978  47.5880014
 114.3869992   3.9109978  46.1380014 114.0850835   4.2745660  46.8687659
 115.2119992   5.0819978  42.2930014 115.6859992   5.6729978  41.7080014
 114.4939992   5.6119978  42.6400014 115.1798640   5.2345511  42.2597969
 125.3809992   8.6199978  52.3650014 125.7039992   7.9889978  51.7220014
 124.9399992   8.0859978  53.0260014 125.3656379   8.4613468  52.3662582
 122.1579992   4.5479978  47.1490014 121.2469992   4.6049978  47.4380014
 122.6629992   4.4879978  47.9600014 122.1016873   4.5476826  47.2981207
 116.9859992   6.1769978  45.9760014 116.0969992   6.2759978  45.6360014
 117.2829992   5.3349978  45.6300014 116.9044177   6.0767687  45.8826940
 120.6389992   6.1769978  43.6330014 121.5709992   6.3059978  43.8110014
 120.4239992   6.8459978  42.9830014 120.7374472   6.2850806  43.5694891
 126.5629992   3.7829978  50.4140014 125.8859992   3.9139978  51.0770014
 126.0779992   3.6279978  49.6030014 126.4047405   3.7799947  50.3952170
 119.3129992   7.3709978  41.1990014 118.7709992   6.9919978  40.5080014
 120.1469992   7.5659978  40.7710014 119.3514390   7.3454079  41.0464392
 129.8509992  19.4539978  56.6900014 130.0499992  19.8779978  55.8560014
 130.5059992  19.7979978  57.2970014 129.9668522  19.5586301  56.6577852
 117.4489992  11.9279978  56.2980014 118.1809992  12.1829978  56.8600014
 116.6679992  12.1329978  56.8140014 117.4436526  11.9905450  56.4445176
 123.4779992   7.3349978  49.0360014 124.0419992   6.7889978  48.4890014
 123.3299992   6.8139978  49.8250014 123.5353037   7.1896787  49.0677229
 118.4799992   3.4719978  45.4550014 118.1629992   2.5689978  45.4190014
 119.2609992   3.4739978  44.9020014 118.5422431   3.3487797  45.3753102
 122.1039992   5.7239978  51.4500014 121.2689992   6.1779978  51.5610014
 122.6279992   5.9999978  52.2020014 122.0606072   5.8233948  51.5668136
 122.6489992  11.9369978  43.1350014 121.9039992  11.4289978  42.8130014
 122.5139992  11.9859978  44.0810014 122.5288963  11.8741731  43.2188826
 129.7989992  11.0699978  51.9220014 130.4399992  11.5259978  51.3780014
 128.9679992  11.1829978  51.4590014 129.7745287  11.1476921  51.7849887
 126.5459992   4.7509978  41.3340014 125.6079992   4.8619978  41.1830014
 126.8439992   5.6069978  41.6410014 126.4576318   4.8820158  41.3548145
 124.1679992  12.1209978  54.3720014 123.8219992  11.7389978  55.1790014
 123.9679992  13.0539978  54.4430014 124.0935987  12.1949002  54.4920461
 127.2649992   6.6179978  42.9950014 128.1569992   6.4799978  43.3140014
 127.3209992   7.4089978  42.4580014 127.3947325   6.7059918  42.9661217
 117.7729992  11.2319978  48.9050014 118.5179992  11.2289978  48.3030014
 117.8509992  10.4079978  49.3860014 117.8853365  11.1202384  48.8877430
 124.7739992  13.3949978  42.1600014 124.4789992  14.2219978  42.5420014
 124.0709992  12.7759978  42.3570014 124.6386379  13.4244171  42.2388654
 114.7809992   9.6919978  54.2200014 115.0039992   9.2739978  55.0510014
 114.1789992   9.0799978  53.7970014 114.7301513   9.5519606  54.2766740
 121.7979992   9.2089978  56.4330014 121.5019992   9.0439978  55.5370014
 122.7289992   8.9889978  56.4220014 121.8834401   9.1566879  56.3090206
 126.4179992  14.5829978  54.3220014 125.5179992  14.7659978  54.0550014
 126.4519992  14.8419978  55.2430014 126.2993748  14.6430554  54.4099164
 132.1499992   6.8269978  42.6900014 131.5949992   6.4309978  42.0170014
 132.2499992   7.7379978  42.4120014 132.0876816   6.8959505  42.5605033
 132.1129992  12.6279978  55.5270014 131.2619992  12.8659978  55.1590014
 132.7029992  12.6109978  54.7740014 132.0763812  12.6582524  55.3748453
 130.4449992  15.6129978  43.1550014 130.0719992  14.7879978  43.4640014
 130.7219992  15.4299978  42.2570014 130.4313463  15.4752569  43.0759525
 127.6049992  10.4209978  50.1760014 126.6769992  10.1899978  50.1490014
 128.0559992   9.6439978  49.8460014 127.5388165  10.2842774  50.1276790
 120.1479992  14.7499978  46.3090014 120.6759992  15.5229978  46.1090014
 119.2679992  14.9739978  46.0070014 120.1013435  14.8862700  46.2407310
 115.9029992   9.6119978  40.8960014 116.5189992  10.2389978  41.2760014
 115.0409992   9.9279978  41.1680014 115.8707678   9.7404412  40.9847209
 121.5759992  12.4129978  45.8850014 121.3349992  13.3379978  45.9270014
 120.8349992  11.9539978  46.2820014 121.4429206  12.4775915  45.9443769
 122.0899992  16.5619978  52.2000014 122.4529992  17.4159978  51.9670014
 122.6219992  16.2699978  52.9410014 122.2115141  16.6393895  52.2682097
 120.2589992  17.4339978  45.4310014 119.3089992  17.5399978  45.4820014
 120.6109992  18.2549978  45.7750014 120.1765472  17.5594923  45.4844852
 125.6339992  12.6609978  51.9010014 125.2089992  12.4329978  52.7270014
 126.2149992  11.9219978  51.7190014 125.6543395  12.5299545  51.9894414
 127.8369992  13.5899978  40.9750014 128.1909992  13.2099978  41.7790014
 126.8889992  13.4959978  41.0620014 127.7572298  13.5252452  41.0968687
 128.2929992  17.2129978  54.3700014 127.6909992  16.6569978  53.8750014
 128.5739992  17.8799978  53.7440014 128.2485757  17.2270744  54.2175675
 132.3409992  18.0689978  41.1760014 133.0849992  18.6549978  41.0360014
 131.6469992  18.6379978  41.5090014 132.3489809  18.2260818  41.2018590
 116.4149992   4.4459978  53.7780014 115.5229992   4.7839978  53.7100014
 116.3169992   3.5899978  54.1960014 116.2794475   4.3766543  53.8251704
 128.7029992  12.2619978  43.2020014 128.4259992  11.5339978  43.7580014
 129.6309992  12.3809978  43.4070014 128.7904499  12.1784213  43.3058044
 116.0669992  16.2499978  52.2130014 116.2839992  15.3179978  52.1820014
 116.3129992  16.5249978  53.0960014 116.1299809  16.1595686  52.3281690
 121.9279992  14.7019978  39.4220014 122.1669992  13.9529978  38.8750014
 121.6589992  14.3139978  40.2550014 121.9243233  14.5471853  39.4597809
 120.8649992  14.2719978  41.8780014 121.0119992  13.7519978  42.6680014
 120.8619992  15.1789978  42.1850014 120.8847102  14.3233953  42.0275925
 117.3179992  11.5239978  42.3890014 116.6319992  11.8769978  42.9560014
 117.8409992  12.2869978  42.1420014 117.2948402  11.6753901  42.4331801
 125.1499992   4.1869978  52.6680014 125.8489992   4.2609978  53.3180014
 124.7689992   3.3219978  52.8220014 125.1942097   4.0802389  52.7777997
 125.9339992   3.8389978  43.7650014 126.1539992   4.3099978  42.9610014
 126.4929992   4.2329978  44.4350014 126.0396731   3.9567287  43.7455033
 123.6029992  15.9689978  42.6280014 122.7859992  16.4659978  42.6800014
 124.1319992  16.4449978  41.9870014 123.5628125  16.1011989  42.5485306
 123.1339992   5.5669978  44.6000014 123.9459992   6.0709978  44.6460014
 122.8899992   5.4219978  45.5140014 123.2121467   5.6163749  44.7298575
 123.6699992   6.5529978  53.7840014 123.7889992   7.1269978  54.5410014
 124.3249992   5.8649978  53.8990014 123.7748684   6.5385194  53.9031674
 124.0179992   2.6479978  45.5380014 123.6709992   3.2649978  46.1820014
 124.6769992   3.1489978  45.0560014 124.0595090   2.8001575  45.5610681
 120.9409992  17.0129978  42.6090014 121.1019992  17.8129978  42.1090014
 120.7439992  17.3199978  43.4940014 120.9363906  17.1638678  42.6602333
 119.6759992   3.7109978  42.2250014 119.5919992   4.5989978  42.5720014
 120.5659992   3.4459978  42.4570014 119.7848163   3.7967179  42.3038596
 129.8739992   4.4599978  54.6190014 128.9579992   4.7219978  54.5320014
 130.2099992   4.4569978  53.7230014 129.7938499   4.4955163  54.4858766
 128.4769992   8.2099978  48.7150014 127.6789992   7.7949978  48.3870014
 128.9219992   7.5199978  49.2060014 128.4279684   8.0598628  48.7365227
 117.9339992  14.1379978  41.2850014 118.5259992  14.8379978  41.5620014
 118.3929992  13.7049978  40.5660014 118.0771652  14.1752675  41.2256533
 116.2499992   6.8029978  40.4010014 116.2049992   7.7419978  40.5800014
 115.3619992   6.5669978  40.1320014 116.1238166   6.8996687  40.3891524
 129.5629992  17.4659978  50.3370014 129.4069992  18.1449978  49.6800014
 130.4959992  17.5379978  50.5400014 129.6677387  17.5686390  50.2745342
 117.0579992   1.5839978  49.0750014 116.8289992   1.6429978  48.1470014
 116.6159992   0.7929978  49.3810014 116.9668801   1.4850540  48.9894729
 115.9889992  15.5249978  45.2350014 115.1559992  15.9969978  45.2620014
 116.5339992  16.0349978  44.6360014 115.9487857  15.6584791  45.1577142
 115.2769992  18.1369978  56.5650014 115.8169992  17.9209978  57.3250014
 114.7959992  17.3319978  56.3750014 115.2859219  17.9985156  56.6434282
 119.8739992  17.0569978  58.1850014 120.6419992  16.5979978  58.5260014
 119.8529992  16.8309978  57.2550014 119.9762135  16.9636668  58.1059491
 123.9659992  16.5649978  39.5610014 123.3219992  15.9339978  39.8820014
 124.7279992  16.0339978  39.3290014 123.9808058  16.4067902  39.5736038
 126.4509992  15.4369978  56.9140014 126.0999992  14.5799978  57.1580014
 127.1769992  15.5789978  57.5210014 126.5011895  15.3391351  57.0293770
 128.5709992  16.3819978  39.7940014 128.8539992  15.5869978  40.2470014
 129.3099992  16.6149978  39.2330014 128.7097096  16.3047049  39.7801104
 115.1839992  11.9479978  57.5190014 115.3279992  11.0459978  57.2330014
 114.4119992  12.2339978  57.0320014 115.0992733  11.8631798  57.4139532
 119.5249992  12.2909978  39.6520014 119.5899992  11.4969978  40.1820014
 120.1779992  12.1729978  38.9620014 119.6221605  12.1663430  39.6312997
 121.8389992  11.9169978  56.9520014 121.5109992  12.1879978  56.0950014
 121.9909992  10.9759978  56.8640014 121.8146412  11.8269046  56.8227822
 124.8779992  13.3379978  39.3880014 124.6089992  13.5189978  40.2880014
 124.6709992  12.4129978  39.2560014 124.8131191  13.2377119  39.4935524
 127.5739992  11.8329978  54.3350014 128.3189992  12.4219978  54.2160014
 126.8169992  12.4149978  54.3990014 127.5735470  11.9922128  54.3273799
 116.0169992   9.1479978  56.9390014 116.4249992   8.2909978  56.8180014
 115.7559992   9.1619978  57.8600014 116.0376016   9.0325119  57.0469192
 120.6749992  10.2639978  41.9580014 120.2149992   9.7799978  42.6430014
 120.9299992   9.5949978  41.3220014 120.6464856  10.1073669  41.9658397
 119.9639992   8.1569978  54.3140014 119.3449992   8.8309978  54.5940014
 120.3079992   8.4779978  53.4800014 119.9257123   8.2926887  54.2396388
 121.7459992   8.5069978  40.2200014 121.5649992   8.3519978  39.2930014
 122.6959992   8.6149978  40.2650014 121.8496566   8.5003669  40.0990929
 124.9829992  10.6279978  57.5910014 125.9369992  10.7119978  57.5640014
 124.8229992   9.9159978  58.2110014 125.0917182  10.5432842  57.6710733
 131.1359992  10.8609978  39.6660014 130.8619992  10.4369978  38.8530014
 131.1749992  11.7929978  39.4490014 131.1037716  10.9288827  39.5254286
 120.3029992   5.5119978  55.3960014 120.4529992   4.7829978  54.7940014
 120.3049992   6.2889978  54.8370014 120.3237967   5.5172708  55.2380541
 120.7159992   3.8809978  52.8890014 121.2509992   4.3329978  52.2370014
 119.8629992   3.7729978  52.4660014 120.6740374   3.9282665  52.7426710
 122.2969992   9.3209978  53.1280014 123.0479992   9.1649978  52.5550014
 121.9579992  10.1729978  52.8530014 122.3539587   9.4148138  53.0124078
 126.7129992   7.1359978  58.1570014 126.9049992   6.2049978  58.0450014
 127.5709992   7.5609978  58.1460014 126.8552182   7.0660070  58.1401862
 128.0299992   9.9249978  56.2340014 127.7479992  10.6339978  55.6560014
 128.9719992   9.8519978  56.0830014 128.1187921  10.0122193  56.1344225
 118.7819992   6.7099978  57.3070014 118.0139992   6.1769978  57.0970014
 119.4599992   6.3999978  56.7080014 118.7687235   6.5951754  57.1972413
 121.5209992   1.3379978  53.3200014 121.4229992   2.2839978  53.2150014
 120.7789992   0.9649978  52.8440014 121.4072534   1.4171773  53.2412600
 122.7849992   5.6589978  56.8840014 122.5499992   5.4399978  57.7850014
 122.0019992   5.4519978  56.3740014 122.6469095   5.6009892  56.9385353
 125.5009992   4.7869978  55.9590014 124.5529992   4.8189978  56.0910014
 125.8129992   4.1609978  56.6130014 125.4135293   4.7067923  56.0654148
 127.1349992   3.4209978  57.9640014 127.0379992   2.4689978  57.9590014
 126.8129992   3.6889978  58.8250014 127.0782468   3.3270884  58.0796210
 116.9619992   4.6299978  57.0120014 117.1739992   3.9239978  56.4020014
 116.8509992   4.1929978  57.8560014 116.9760269   4.4741921  57.0425873
 121.7429992   0.6319978  55.9910014 122.4549992  -0.0080022  55.9770014
 121.6419992   0.8979978  55.0780014 121.8267387   0.5804330  55.8655563
 122.0969992   2.3139978  58.0450014 121.9649992   1.8389978  57.2250014
 121.4969992   3.0589978  57.9900014 121.9979070   2.3495789  57.9253251
 121.6429992  19.1969978  41.2210014 122.5759992  19.3549978  41.3650014
 121.3789992  19.8729978  40.5960014 121.7349911  19.3099373  41.1562722
 115.2109992  13.8339978  40.7040014 116.1249992  13.9129978  40.9770014
 115.2189992  13.1469978  40.0380014 115.3370655  13.7519205  40.6512917
 113.8599992  19.2269978  45.7810014 113.2129992  18.7649978  45.2490014
 114.2149992  18.5549978  46.3640014 113.8193741  19.0729774  45.7869175
 114.7299992  17.3069978  47.5860014 114.3959992  16.4269978  47.7580014
 114.9529992  17.6529978  48.4510014 114.7143721  17.2331938  47.7264168
 132.2789992  18.1169978  50.5670014 132.2569992  18.3019978  51.5060014
 132.9689992  18.6849978  50.2260014 132.3693439  18.2191887  50.6494791
 131.8419992  17.6839978  53.4880014 131.3549992  16.9489978  53.1170014
 132.3909992  17.2899978  54.1660014 131.8495247  17.5301057  53.5288461
 130.2929992  13.4739978  58.1270014 129.4269992  13.3689978  58.5210014
 130.6689992  14.2319978  58.5730014 130.2253401  13.5621708  58.2412620
 131.5939992  11.7299978  43.6410014 132.4439992  12.1509978  43.7680014
 131.5989992  10.9899978  44.2480014 131.7111143  11.6876094  43.7404750
 131.9879992   9.7839978  45.4640014 131.2619992   9.3039978  45.8620014
 132.5699992   9.9889978  46.1970014 131.9672730   9.7460184  45.6174149
 131.7469992  12.5689978  50.4120014 132.5809992  12.1909978  50.1310014
 131.8589992  13.5119978  50.2930014 131.8761917  12.6447943  50.3574861
 130.2339992  15.4469978  52.7190014 129.5859992  15.7719978  53.3440014
 129.7159992  15.0059978  52.0450014 130.0754196  15.4318651  52.7134152
 132.2569992   9.6849978  41.8550014 131.7349992  10.0409978  41.1370014
 132.2239992  10.3599978  42.5340014 132.1810129   9.8249598  41.8483355
 130.6059992   6.9239978  40.4060014 130.7019992   7.5909978  39.7260014
 130.4659992   6.1089978  39.9250014 130.6002040   6.9050671  40.2478378
 129.7749992   8.3049978  46.0270014 129.6249992   7.3599978  46.0070014
 129.4209992   8.5859978  46.8710014 129.7066351   8.2136644  46.1383220
 114.8099992  10.3829978  50.0380014 114.9949992  10.3009978  49.1020014
 115.6599992  10.2589978  50.4610014 114.9500928  10.3550463  49.9672893
 130.6309992  10.2749978  55.6660014 131.2139992   9.5399978  55.8580014
 131.1949992  11.0469978  55.7130014 130.7869781  10.2788145  55.6986164
 132.1279992   8.1779978  56.3510014 131.2649992   7.7989978  56.1850014
 132.7319992   7.4389978  56.2760014 132.0916085   8.0263223  56.3181694
 129.8529992   4.3319978  39.5240014 130.4639992   3.9609978  40.1610014
 129.0159992   3.9109978  39.7200014 129.8234947   4.2242756  39.6377252
 129.4859992   5.8869978  44.4900014 129.7649992   4.9799978  44.6140014
 130.2449992   6.3209978  44.1010014 129.6268619   5.8214502  44.4543795
 130.0969992   6.4689978  49.9260014 131.0299992   6.6809978  49.8910014
 129.8619992   6.5699978  50.8480014 130.1929517   6.5116833  50.0459130
 130.1269992   7.2059978  52.7020014 129.2839992   7.4739978  53.0680014
 130.5689992   8.0279978  52.4910014 130.0714138   7.3538273  52.7235518
 114.4079992   5.6529978  56.1780014 115.3269992   5.5309978  56.4150014
 113.9579992   4.9029978  56.5680014 114.4730087   5.5349608  56.2631410
 132.4099992   1.1859978  58.0550014 132.7589992   0.5319978  57.4500014
 132.5569992   2.0229978  57.6150014 132.4776824   1.2096024  57.9126304
 130.0989992   3.1499978  44.5380014 130.2809992   2.7009978  45.3630014
 129.4989992   2.5659978  44.0740014 130.0428187   3.0095552  44.5882739
 115.6289992   3.9659978  49.0700014 116.0739992   3.1739978  49.3720014
 116.0949992   4.6819978  49.5000014 115.7529718   3.9544534  49.1695265
 113.9329992   6.9649978  50.1390014 114.4249992   6.7439978  49.3480014
 114.2949992   7.8049978  50.4200014 114.0492923   7.0483468  50.0687407
 131.9289992   3.2949978  56.4040014 131.0119992   3.5659978  56.3690014
 132.0519992   2.7599978  55.6200014 131.8199672   3.2597885  56.2931862
 131.9659992   3.2179978  41.0660014 132.3779992   2.4969978  40.5910014
 132.6469992   3.8869978  41.1240014 132.1145536   3.2097766  41.0088024
 114.2469992   3.2229978  44.1930014 113.3219992   3.4309978  44.0640014
 114.7009992   3.7069978  43.5030014 114.1816298   3.3169299  44.0820451
 129.0169992  18.2069978  46.1390014 129.6699992  17.8589978  45.5310014
 129.5279992  18.6949978  46.7850014 129.1752777  18.2253815  46.1432047
 114.2099992   1.9609978  52.5370014 113.5449992   1.7149978  53.1800014
 113.7669992   2.5829978  51.9600014 114.0591168   2.0114214  52.5469848
 116.4019992  15.1359978  56.6820014 115.5809992  15.3109978  56.2210014
 116.1499992  15.0629978  57.6020014 116.2555594  15.1500717  56.7433611
 119.3559992  16.1099978  52.9400014 118.9319992  16.9199978  52.6580014
 120.2609992  16.1959978  52.6380014 119.4202138  16.2324160  52.8606415
 123.6679992  17.5089978  55.9000014 123.8519992  17.1759978  56.7780014
 124.5139992  17.8189978  55.5780014 123.8076484  17.5052979  55.9767617
 126.0129992  18.7949978  55.1440014 126.6899992  18.1619978  54.9040014
 126.3339992  19.1959978  55.9510014 126.1491323  18.7625691  55.2203158
 130.9299992   1.3849978  54.2230014 130.1169992   1.7099978  53.8360014
 131.1629992   0.6239978  53.6900014 130.8501347   1.3266880  54.0979841
 116.7579992  19.3669978  52.9880014 116.0379992  19.8069978  52.5370014
 116.3929992  19.1159978  53.8360014 116.6099643  19.3933369  53.0409129
 119.2249992  18.9669978  52.0180014 118.3609992  19.0389978  52.4220014
 119.1699992  19.5139978  51.2340014 119.0991942  19.0507849  51.9674000
 123.9359992  18.8549978  51.1930014 123.4789992  19.3839978  50.5390014
 124.0989992  19.4579978  51.9180014 123.8954960  19.0089280  51.2015274
 126.2639992  17.7329978  52.1380014 125.3589992  17.8979978  51.8720014
 126.6919992  18.5859978  52.0720014 126.1981537  17.8709134  52.0927095
 128.8679992  19.3029978  52.4330014 128.6859992  20.2189978  52.2220014
 129.0449992  18.8919978  51.5860014 128.8670030  19.3728273  52.2897166
 116.1729992  17.9899978  49.8980014 116.1549992  17.5639978  50.7550014
 116.9779992  17.6709978  49.4890014 116.2792875  17.8886435  49.9599515
 118.3139992  16.6999978  48.5530014 118.0949992  15.7829978  48.7230014
 119.1379992  16.8399978  49.0190014 118.3954702  16.5935511  48.6392527
 120.8509992  17.1699978  49.4020014 121.0639992  16.2819978  49.1150014
 120.9159992  17.1349978  50.3560014 120.8889149  17.0438326  49.4917369
 124.3599992   2.8339978  48.5460014 123.6859992   2.2039978  48.8020014
 124.9239992   2.3499978  47.9430014 124.3440384   2.6823708  48.4995020
 129.5029992   0.9409978  48.6590014 130.1059992   1.4889978  48.1570014
 128.6329992   1.2599978  48.4180014 129.4679157   1.0590373  48.5577910
 131.2299992   2.0799978  46.9920014 131.8409992   1.5659978  46.4650014
 131.6119992   2.9569978  47.0150014 131.3653305   2.1282050  46.9229418
 116.6869992   1.4679978  46.3680014 115.9099992   1.2329978  45.8610014
 117.2169992   0.6709978  46.3770014 116.6523451   1.3281268  46.2998627
 115.5229992   1.2659978  42.1720014 115.9619992   1.8769978  41.5800014
 114.8889992   1.8039978  42.6460014 115.4973859   1.4224064  42.1550305
 121.2659992   1.3939978  46.1810014 122.1399992   1.7829978  46.1520014
 121.1299992   1.1789978  47.1040014 121.3671953   1.4181643  46.3017617
 126.8229992   1.4239978  47.8310014 126.8989992   1.5199978  46.8810014
 126.5479992   0.5169978  47.9590014 126.7961871   1.3144146  47.7183944
 128.1759992   1.4499978  43.5230014 127.4729992   2.0649978  43.3130014
 127.7309992   0.6129978  43.6540014 128.0196550   1.4209668  43.5119837
 115.4239992  17.2139978  43.0690014 114.7389992  17.1759978  42.4020014
 115.4279992  18.1269978  43.3570014 115.3307621  17.3321924  43.0166126
 117.3839992   3.1819978  40.6140014 117.8749992   2.5519978  40.0870014
 118.0069992   3.4779978  41.2770014 117.5355304   3.1357376  40.6314940
 122.4099992   3.4749978  43.0710014 122.5879992   2.8279978  43.7540014
 122.3559992   4.3089978  43.5380014 122.4270678   3.4991604  43.2276301
 124.2879992  18.4229978  41.4670014 125.1539992  18.7899978  41.2890014
 124.0419992  17.9839978  40.6530014 124.3732097  18.4138525  41.3326019
 130.9969992  17.9859978  44.1460014 130.8029992  17.2379978  43.5810014
 130.9579992  18.7439978  43.5630014 130.9651645  17.9860786  43.9898148
 116.6439992   1.9819978  55.8860014 116.2779992   1.2159978  56.3280014
 117.5569992   2.0109978  56.1720014 116.7173172   1.8810324  55.9851890
 118.6169992   1.3319978  57.4210014 119.5159992   1.0579978  57.2370014
 118.2309992   0.5899978  57.8860014 118.6877307   1.1942196  57.4587098
 117.2419992  18.1339978  40.0940014 116.9739992  18.4199978  40.9680014
 118.0129992  17.5879978  40.2470014 117.3095926  18.0992779  40.2341205
 127.0389992   0.6649978  57.6040014 127.1149992   0.2389978  58.4570014
 127.9319992   0.6779978  57.2610014 127.1702303   0.6083493  57.6745497
 130.2149992  16.7379978  56.2960014 129.4329992  16.5509978  55.7760014
 130.1429992  17.6669978  56.5130014 130.0981924  16.8380637  56.2541602
 144.6209992  10.6239978  46.3270014 144.7099992  11.5679978  46.1950014
 143.9829992  10.3489978  45.6690014 144.5469062  10.7159812  46.2199641
 143.5539992   9.8789978  49.7460014 143.5159992   9.2329978  50.4510014
 143.2319992   9.4119978  48.9750014 143.5052679   9.7274276  49.7382921
 135.9219992   9.4929978  51.3390014 135.9639992   8.8679978  52.0620014
 136.6249992  10.1169978  51.5210014 136.0227345   9.4917873  51.4625274
 136.8459992  13.9429978  49.8740014 136.4759992  13.1409978  49.5040014
 137.7869992  13.7749978  49.9200014 136.9225984  13.8104638  49.8295603
 133.4559992   7.6029978  45.2660014 133.0079992   8.4489978  45.2480014
 132.8949992   7.0239978  44.7510014 133.3188546   7.6403993  45.1938891
 134.1659992   9.7649978  47.3920014 134.3799992   8.9949978  47.9200014
 134.9039992   9.8549978  46.7890014 134.2950200   9.6718587  47.3827035
 144.3719992  17.9219978  48.2590014 144.9909992  17.2459978  47.9860014
 144.1629992  17.7039978  49.1680014 144.4286056  17.7998869  48.3443967
 141.9429992  12.3109978  50.1520014 142.2469992  11.6249978  49.5570014
 142.6649992  12.4299978  50.7700014 142.0821240  12.2332314  50.1540959
 145.0839992   6.7049978  50.4790014 145.2269992   5.7589978  50.4990014
 144.9779992   6.9119978  49.5510014 145.0892403   6.6034797  50.3562239
 138.2389992   4.8069978  47.7520014 138.2819992   5.6669978  47.3330014
 137.7809992   4.2549978  47.1180014 138.1829871   4.8499245  47.6090761
 134.8589992   7.2039978  48.5140014 135.5129992   6.6539978  48.9460014
 134.8829992   6.9299978  47.5970014 134.9517199   7.0917167  48.4491668
 140.0159992   8.7539978  47.7290014 140.6319992   8.2269978  48.2380014
 139.4289992   8.1139978  47.3250014 140.0210154   8.5953954  47.7440945
 137.0489992   3.7249978  51.8260014 136.8299992   4.2549978  51.0590014
 136.3809992   3.9509978  52.4730014 136.9286975   3.8280967  51.8085140
 144.4179992  13.2249978  45.3700014 144.1229992  12.9019978  44.5180014
 144.0939992  14.1249978  45.4110014 144.3338460  13.3024464  45.2589714
 139.6179992  11.3999978  52.1130014 138.8779992  11.9989978  52.2170014
 140.3319992  11.9539978  51.7980014 139.6133500  11.5567829  52.0846371
 136.6429992   5.6169978  49.7780014 137.2569992   6.2499978  50.1510014
 137.1549992   5.1449978  49.1220014 136.7961962   5.6397249  49.7402935
 138.0259992  13.3649978  52.9000014 138.0199992  14.2439978  52.5220014
 137.1719992  13.2809978  53.3250014 137.9097925  13.4739535  52.9056887
 134.1469992  13.0359978  43.6820014 133.8749992  13.2649978  42.7940014
 134.1919992  13.8729978  44.1430014 134.1158097  13.1806163  43.6226683
 141.0759992   1.0299978  49.2780014 140.9579992   0.0819978  49.2240014
 140.2209992   1.3629978  49.5510014 140.9442805   0.9452202  49.3075079
 143.3419992   9.8679978  43.7790014 142.6309992  10.4029978  43.4270014
 144.0329992   9.9229978  43.1190014 143.3380751   9.9486777  43.6415858
 143.3959992   8.3249978  40.8170014 144.0969992   8.3479978  41.4690014
 143.6979992   7.6969978  40.1610014 143.5328202   8.2432212  40.8175609
 138.3929992  10.7079978  46.6130014 138.0629992  10.3369978  45.7950014
 138.9819992  10.0369978  46.9600014 138.4273970  10.5666063  46.5479404
 139.7599992  14.1359978  49.2940014 139.6649992  13.5569978  48.5380014
 140.4889992  13.7649978  49.7900014 139.8456011  14.0065561  49.2576028
 138.7599992   9.4759978  50.2460014 139.3249992   9.5979978  49.4840014
 139.0789992  10.1139978  50.8850014 138.8804166   9.5788791  50.2280348
 145.0689992  14.9799978  50.9800014 144.8289992  15.6419978  51.6280014
 144.8709992  14.1449978  51.4050014 145.0093826  14.9578115  51.1261566
 139.6399992  13.8759978  54.9640014 139.3289992  14.6579978  55.4190014
 138.9899992  13.7229978  54.2780014 139.5095538  13.9624087  54.9335898
 136.5599992  10.0739978  54.1920014 136.6299992  10.7249978  54.8910014
 135.6689992  10.1769978  53.8570014 136.4491690  10.1769249  54.2423043
 143.3449992  15.9759978  45.8510014 143.8189992  16.2719978  46.6280014
 142.7819992  16.7149978  45.6180014 143.3337890  16.1163036  45.9258101
 137.8789992  15.9469978  55.7270014 137.8869992  15.8109978  54.7800014
 136.9629992  15.8299978  55.9790014 137.7562528  15.9125463  55.6313243
 137.3839992   9.7769978  44.2020014 137.0919992  10.5449978  43.7110014
 136.7089992   9.1179978  44.0390014 137.2528497   9.7929745  44.1128260
 133.4769992  12.1399978  53.0170014 132.9749992  12.1119978  52.2020014
 133.4819992  11.2349978  53.3270014 133.4089832  12.0137486  52.9474121
 133.2269992  14.9209978  49.9010014 134.1729992  14.7759978  49.8820014
 133.1139992  15.7049978  50.4380014 133.3413578  15.0071697  49.9710317
 142.4029992  15.1609978  54.4600014 142.4909992  15.9869978  54.9350014
 141.5399992  14.8309978  54.7090014 142.2983357  15.2295468  54.5587653
 142.8179992  18.9329978  44.2660014 142.7419992  18.8119978  43.3190014
 142.8499992  19.8819978  44.3840014 142.8119380  19.0447677  44.1525181
 136.4709992  17.7219978  46.0470014 136.6229992  17.3739978  46.9250014
 135.6199992  17.3649978  45.7910014 136.3768344  17.6260879  46.1326868
 135.7259992  13.4639978  54.0600014 135.9419992  13.1019978  54.9200014
 134.8699992  13.0889978  53.8510014 135.6398810  13.3638837  54.1492680
 138.3439992   1.9339978  50.0560014 137.4829992   1.8469978  49.6480014
 138.3219992   2.7899978  50.4840014 138.2230491   2.0378003  50.0579582
 143.0069992   1.6559978  53.4310014 143.4269992   1.2409978  54.1840014
 142.0739992   1.4769978  53.5480014 142.9383736   1.5749910  53.5498968
 142.6689992   4.1479978  40.7160014 142.4149992   4.1669978  41.6380014
 142.4119992   3.2769978  40.4140014 142.5994508   4.0328280  40.8014803
 138.4349992   6.8989978  51.1510014 137.7939992   6.8589978  51.8600014
 138.4729992   7.8259978  50.9130014 138.3523010   7.0187668  51.2159946
 138.4319992   7.1199978  46.0630014 137.5399992   6.7799978  46.0040014
 138.8829992   6.7429978  45.3070014 138.3707642   7.0224910  45.9527726
 143.9679992   7.5359978  44.8800014 143.5589992   8.3509978  44.5880014
 144.6879992   7.3959978  44.2660014 144.0094439   7.6285372  44.7570115
 143.0699992   7.7119978  56.3680014 142.5069992   7.0069978  56.6890014
 143.8959992   7.5909978  56.8360014 143.1046674   7.5992165  56.4751751
 144.9729992   6.9819978  47.6940014 144.7769992   7.5879978  46.9790014
 145.1539992   6.1489978  47.2600014 144.9706584   6.9522513  47.5374212
 136.1849992   7.2199978  53.0180014 136.1469992   7.6199978  53.8870014
 135.6949992   6.4029978  53.1080014 136.1135330   7.1642674  53.1491289
 139.5509992   4.5939978  39.8170014 139.1199992   4.1489978  40.5460014
 138.8329992   4.9649978  39.3040014 139.3949176   4.5832051  39.8474930
 132.7939992   4.3359978  46.8690014 133.4239992   4.3069978  47.5880014
 133.2429992   3.9109978  46.1380014 132.9410835   4.2745660  46.8687659
 134.0679992   5.0819978  42.2930014 134.5419992   5.6729978  41.7080014
 133.3499992   5.6119978  42.6400014 134.0358640   5.2345511  42.2597969
 144.2369992   8.6199978  52.3650014 144.5599992   7.9889978  51.7220014
 143.7959992   8.0859978  53.0260014 144.2216379   8.4613468  52.3662582
 141.0139992   4.5479978  47.1490014 140.1029992   4.6049978  47.4380014
 141.5189992   4.4879978  47.9600014 140.9576873   4.5476826  47.2981207
 135.8419992   6.1769978  45.9760014 134.9529992   6.2759978  45.6360014
 136.1389992   5.3349978  45.6300014 135.7604177   6.0767687  45.8826940
 139.4949992   6.1769978  43.6330014 140.4269992   6.3059978  43.8110014
 139.2799992   6.8459978  42.9830014 139.5934472   6.2850806  43.5694891
 145.4189992   3.7829978  50.4140014 144.7419992   3.9139978  51.0770014
 144.9339992   3.6279978  49.6030014 145.2607405   3.7799947  50.3952170
 138.1689992   7.3709978  41.1990014 137.6269992   6.9919978  40.5080014
 139.0029992   7.5659978  40.7710014 138.2074390   7.3454079  41.0464392
 136.3049992  11.9279978  56.2980014 137.0369992  12.1829978  56.8600014
 135.5239992  12.1329978  56.8140014 136.2996526  11.9905450  56.4445176
 142.3339992   7.3349978  49.0360014 142.8979992   6.7889978  48.4890014
 142.1859992   6.8139978  49.8250014 142.3913037   7.1896787  49.0677229
 137.3359992   3.4719978  45.4550014 137.0189992   2.5689978  45.4190014
 138.1169992   3.4739978  44.9020014 137.3982431   3.3487797  45.3753102
 140.9599992   5.7239978  51.4500014 140.1249992   6.1779978  51.5610014
 141.4839992   5.9999978  52.2020014 140.9166072   5.8233948  51.5668136
 141.5049992  11.9369978  43.1350014 140.7599992  11.4289978  42.8130014
 141.3699992  11.9859978  44.0810014 141.3848963  11.8741731  43.2188826
 145.4019992   4.7509978  41.3340014 144.4639992   4.8619978  41.1830014
 145.6999992   5.6069978  41.6410014 145.3136318   4.8820158  41.3548145
 143.0239992  12.1209978  54.3720014 142.6779992  11.7389978  55.1790014
 142.8239992  13.0539978  54.4430014 142.9495987  12.1949002  54.4920461
 136.6289992  11.2319978  48.9050014 137.3739992  11.2289978  48.3030014
 136.7069992  10.4079978  49.3860014 136.7413365  11.1202384  48.8877430
 143.6299992  13.3949978  42.1600014 143.3349992  14.2219978  42.5420014
 142.9269992  12.7759978  42.3570014 143.4946379  13.4244171  42.2388654
 133.6369992   9.6919978  54.2200014 133.8599992   9.2739978  55.0510014
 133.0349992   9.0799978  53.7970014 133.5861513   9.5519606  54.2766740
 140.6539992   9.2089978  56.4330014 140.3579992   9.0439978  55.5370014
 141.5849992   8.9889978  56.4220014 140.7394401   9.1566879  56.3090206
 145.2739992  14.5829978  54.3220014 144.3739992  14.7659978  54.0550014
 145.3079992  14.8419978  55.2430014 145.1553748  14.6430554  54.4099164
 139.0039992  14.7499978  46.3090014 139.5319992  15.5229978  46.1090014
 138.1239992  14.9739978  46.0070014 138.9573435  14.8862700  46.2407310
 134.7589992   9.6119978  40.8960014 135.3749992  10.2389978  41.2760014
 133.8969992   9.9279978  41.1680014 134.7267678   9.7404412  40.9847209
 140.4319992  12.4129978  45.8850014 140.1909992  13.3379978  45.9270014
 139.6909992  11.9539978  46.2820014 140.2989206  12.4775915  45.9443769
 140.9459992  16.5619978  52.2000014 141.3089992  17.4159978  51.9670014
 141.4779992  16.2699978  52.9410014 141.0675141  16.6393895  52.2682097
 139.1149992  17.4339978  45.4310014 138.1649992  17.5399978  45.4820014
 139.4669992  18.2549978  45.7750014 139.0325472  17.5594923  45.4844852
 144.4899992  12.6609978  51.9010014 144.0649992  12.4329978  52.7270014
 145.0709992  11.9219978  51.7190014 144.5103395  12.5299545  51.9894414
 135.2709992   4.4459978  53.7780014 134.3789992   4.7839978  53.7100014
 135.1729992   3.5899978  54.1960014 135.1354475   4.3766543  53.8251704
 134.9229992  16.2499978  52.2130014 135.1399992  15.3179978  52.1820014
 135.1689992  16.5249978  53.0960014 134.9859809  16.1595686  52.3281691
 140.7839992  14.7019978  39.4220014 141.0229992  13.9529978  38.8750014
 140.5149992  14.3139978  40.2550014 140.7803233  14.5471853  39.4597809
 139.7209992  14.2719978  41.8780014 139.8679992  13.7519978  42.6680014
 139.7179992  15.1789978  42.1850014 139.7407102  14.3233953  42.0275925
 136.1739992  11.5239978  42.3890014 135.4879992  11.8769978  42.9560014
 136.6969992  12.2869978  42.1420014 136.1508402  11.6753901  42.4331801
 144.0059992   4.1869978  52.6680014 144.7049992   4.2609978  53.3180014
 143.6249992   3.3219978  52.8220014 144.0502097   4.0802389  52.7777997
 144.7899992   3.8389978  43.7650014 145.0099992   4.3099978  42.9610014
 145.3489992   4.2329978  44.4350014 144.8956731   3.9567287  43.7455033
 142.4589992  15.9689978  42.6280014 141.6419992  16.4659978  42.6800014
 142.9879992  16.4449978  41.9870014 142.4188125  16.1011989  42.5485306
 141.9899992   5.5669978  44.6000014 142.8019992   6.0709978  44.6460014
 141.7459992   5.4219978  45.5140014 142.0681467   5.6163749  44.7298575
 142.5259992   6.5529978  53.7840014 142.6449992   7.1269978  54.5410014
 143.1809992   5.8649978  53.8990014 142.6308684   6.5385194  53.9031674
 142.8739992   2.6479978  45.5380014 142.5269992   3.2649978  46.1820014
 143.5329992   3.1489978  45.0560014 142.9155090   2.8001575  45.5610681
 139.7969992  17.0129978  42.6090014 139.9579992  17.8129978  42.1090014
 139.5999992  17.3199978  43.4940014 139.7923906  17.1638678  42.6602333
 138.5319992   3.7109978  42.2250014 138.4479992   4.5989978  42.5720014
 139.4219992   3.4459978  42.4570014 138.6408163   3.7967179  42.3038596
 136.7899992  14.1379978  41.2850014 137.3819992  14.8379978  41.5620014
 137.2489992  13.7049978  40.5660014 136.9331652  14.1752675  41.2256533
 135.1059992   6.8029978  40.4010014 135.0609992   7.7419978  40.5800014
 134.2179992   6.5669978  40.1320014 134.9798166   6.8996687  40.3891524
 135.9139992   1.5839978  49.0750014 135.6849992   1.6429978  48.1470014
 135.4719992   0.7929978  49.3810014 135.8228801   1.4850540  48.9894729
 134.8449992  15.5249978  45.2350014 134.0119992  15.9969978  45.2620014
 135.3899992  16.0349978  44.6360014 134.8047857  15.6584791  45.1577142
 134.1329992  18.1369978  56.5650014 134.6729992  17.9209978  57.3250014
 133.6519992  17.3319978  56.3750014 134.1419219  17.9985156  56.6434282
 138.7299992  17.0569978  58.1850014 139.4979992  16.5979978  58.5260014
 138.7089992  16.8309978  57.2550014 138.8322135  16.9636668  58.1059491
 142.8219992  16.5649978  39.5610014 142.1779992  15.9339978  39.8820014
 143.5839992  16.0339978  39.3290014 142.8368058  16.4067902  39.5736038
 145.3069992  15.4369978  56.9140014 144.9559992  14.5799978  57.1580014
 146.0329992  15.5789978  57.5210014 145.3571895  15.3391351  57.0293770
 134.0399992  11.9479978  57.5190014 134.1839992  11.0459978  57.2330014
 133.2679992  12.2339978  57.0320014 133.9552733  11.8631798  57.4139532
 138.3809992  12.2909978  39.6520014 138.4459992  11.4969978  40.1820014
 139.0339992  12.1729978  38.9620014 138.4781605  12.1663430  39.6312997
 140.6949992  11.9169978  56.9520014 140.3669992  12.1879978  56.0950014
 140.8469992  10.9759978  56.8640014 140.6706412  11.8269046  56.8227822
 143.7339992  13.3379978  39.3880014 143.4649992  13.5189978  40.2880014
 143.5269992  12.4129978  39.2560014 143.6691191  13.2377119  39.4935524
 134.8729992   9.1479978  56.9390014 135.2809992   8.2909978  56.8180014
 134.6119992   9.1619978  57.8600014 134.8936016   9.0325119  57.0469192
 139.5309992  10.2639978  41.9580014 139.0709992   9.7799978  42.6430014
 139.7859992   9.5949978  41.3220014 139.5024856  10.1073669  41.9658397
 138.8199992   8.1569978  54.3140014 138.2009992   8.8309978  54.5940014
 139.1639992   8.4779978  53.4800014 138.7817123   8.2926887  54.2396388
 140.6019992   8.5069978  40.2200014 140.4209992   8.3519978  39.2930014
 141.5519992   8.6149978  40.2650014 140.7056566   8.5003669  40.0990929
 143.8389992  10.6279978  57.5910014 144.7929992  10.7119978  57.5640014
 143.6789992   9.9159978  58.2110014 143.9477182  10.5432842  57.6710733
 139.1589992   5.5119978  55.3960014 139.3089992   4.7829978  54.7940014
 139.1609992   6.2889978  54.8370014 139.1797967   5.5172708  55.2380541
 139.5719992   3.8809978  52.8890014 140.1069992   4.3329978  52.2370014
 138.7189992   3.7729978  52.4660014 139.5300374   3.9282665  52.7426710
 141.1529992   9.3209978  53.1280014 141.9039992   9.1649978  52.5550014
 140.8139992  10.1729978  52.8530014 141.2099587   9.4148138  53.0124078
 145.5689992   7.1359978  58.1570014 145.7609992   6.2049978  58.0450014
 146.4269992   7.5609978  58.1460014 145.7112182   7.0660070  58.1401862
 137.6379992   6.7099978  57.3070014 136.8699992   6.1769978  57.0970014
 138.3159992   6.3999978  56.7080014 137.6247235   6.5951754  57.1972413
 140.3769992   1.3379978  53.3200014 140.2789992   2.2839978  53.2150014
 139.6349992   0.9649978  52.8440014 140.2632534   1.4171773  53.2412600
 141.6409992   5.6589978  56.8840014 141.4059992   5.4399978  57.7850014
 140.8579992   5.4519978  56.3740014 141.5029095   5.6009892  56.9385353
 144.3569992   4.7869978  55.9590014 143.4089992   4.8189978  56.0910014
 144.6689992   4.1609978  56.6130014 144.2695293   4.7067923  56.0654148
 135.8179992   4.6299978  57.0120014 136.0299992   3.9239978  56.4020014
 135.7069992   4.1929978  57.8560014 135.8320269   4.4741921  57.0425873
 140.5989992   0.6319978  55.9910014 141.3109992  -0.0080022  55.9770014
 140.4979992   0.8979978  55.0780014 140.6827387   0.5804330  55.8655563
 140.9529992   2.3139978  58.0450014 140.8209992   1.8389978  57.2250014
 140.3529992   3.0589978  57.9900014 140.8539070   2.3495789  57.9253251
 140.4989992  19.1969978  41.2210014 141.4319992  19.3549978  41.3650014
 140.2349992  19.8729978  40.5960014 140.5909911  19.3099373  41.1562722
 134.0669992  13.8339978  40.7040014 134.9809992  13.9129978  40.9770014
 134.0749992  13.1469978  40.0380014 134.1930655  13.7519205  40.6512917
 132.7159992  19.2269978  45.7810014 132.0689992  18.7649978  45.2490014
 133.0709992  18.5549978  46.3640014 132.6753741  19.0729774  45.7869175
 133.5859992  17.3069978  47.5860014 133.2519992  16.4269978  47.7580014
 133.8089992  17.6529978  48.4510014 133.5703721  17.2331938  47.7264168
 133.6659992  10.3829978  50.0380014 133.8509992  10.3009978  49.1020014
 134.5159992  10.2589978  50.4610014 133.8060928  10.3550463  49.9672893
 133.2639992   5.6529978  56.1780014 134.1829992   5.5309978  56.4150014
 132.8139992   4.9029978  56.5680014 133.3290087   5.5349608  56.2631410
 134.4849992   3.9659978  49.0700014 134.9299992   3.1739978  49.3720014
 134.9509992   4.6819978  49.5000014 134.6089718   3.9544534  49.1695265
 132.7889992   6.9649978  50.1390014 133.2809992   6.7439978  49.3480014
 133.1509992   7.8049978  50.4200014 132.9052923   7.0483468  50.0687407
 133.1029992   3.2229978  44.1930014 132.1779992   3.4309978  44.0640014
 133.5569992   3.7069978  43.5030014 133.0376298   3.3169299  44.0820451
 133.0659992   1.9609978  52.5370014 132.4009992   1.7149978  53.1800014
 132.6229992   2.5829978  51.9600014 132.9151168   2.0114214  52.5469848
 135.2579992  15.1359978  56.6820014 134.4369992  15.3109978  56.2210014
 135.0059992  15.0629978  57.6020014 135.1115594  15.1500717  56.7433611
 138.2119992  16.1099978  52.9400014 137.7879992  16.9199978  52.6580014
 139.1169992  16.1959978  52.6380014 138.2762138  16.2324160  52.8606415
 142.5239992  17.5089978  55.9000014 142.7079992  17.1759978  56.7780014
 143.3699992  17.8189978  55.5780014 142.6636484  17.5052979  55.9767617
 144.8689992  18.7949978  55.1440014 145.5459992  18.1619978  54.9040014
 145.1899992  19.1959978  55.9510014 145.0051323  18.7625691  55.2203158
 135.6139992  19.3669978  52.9880014 134.8939992  19.8069978  52.5370014
 135.2489992  19.1159978  53.8360014 135.4659643  19.3933369  53.0409129
 138.0809992  18.9669978  52.0180014 137.2169992  19.0389978  52.4220014
 138.0259992  19.5139978  51.2340014 137.9551942  19.0507849  51.9674000
 142.7919992  18.8549978  51.1930014 142.3349992  19.3839978  50.5390014
 142.9549992  19.4579978  51.9180014 142.7514960  19.0089280  51.2015274
 145.1199992  17.7329978  52.1380014 144.2149992  17.8979978  51.8720014
 145.5479992  18.5859978  52.0720014 145.0541537  17.8709134  52.0927095
 135.0289992  17.9899978  49.8980014 135.0109992  17.5639978  50.7550014
 135.8339992  17.6709978  49.4890014 135.1352875  17.8886435  49.9599515
 137.1699992  16.6999978  48.5530014 136.9509992  15.7829978  48.7230014
 137.9939992  16.8399978  49.0190014 137.2514702  16.5935511  48.6392527
 139.7069992  17.1699978  49.4020014 139.9199992  16.2819978  49.1150014
 139.7719992  17.1349978  50.3560014 139.7449149  17.0438326  49.4917369
 143.2159992   2.8339978  48.5460014 142.5419992   2.2039978  48.8020014
 143.7799992   2.3499978  47.9430014 143.2000384   2.6823708  48.4995020
 135.5429992   1.4679978  46.3680014 134.7659992   1.2329978  45.8610014
 136.0729992   0.6709978  46.3770014 135.5083451   1.3281268  46.2998627
 134.3789992   1.2659978  42.1720014 134.8179992   1.8769978  41.5800014
 133.7449992   1.8039978  42.6460014 134.3533859   1.4224064  42.1550305
 140.1219992   1.3939978  46.1810014 140.9959992   1.7829978  46.1520014
 139.9859992   1.1789978  47.1040014 140.2231953   1.4181643  46.3017617
 134.2799992  17.2139978  43.0690014 133.5949992  17.1759978  42.4020014
 134.2839992  18.1269978  43.3570014 134.1867621  17.3321924  43.0166126
 136.2399992   3.1819978  40.6140014 136.7309992   2.5519978  40.0870014
 136.8629992   3.4779978  41.2770014 136.3915304   3.1357376  40.6314940
 141.2659992   3.4749978  43.0710014 141.4439992   2.8279978  43.7540014
 141.2119992   4.3089978  43.5380014 141.2830678   3.4991604  43.2276301
 143.1439992  18.4229978  41.4670014 144.0099992  18.7899978  41.2890014
 142.8979992  17.9839978  40.6530014 143.2292097  18.4138525  41.3326019
 135.4999992   1.9819978  55.8860014 135.1339992   1.2159978  56.3280014
 136.4129992   2.0109978  56.1720014 135.5733172   1.8810324  55.9851890
 137.4729992   1.3319978  57.4210014 138.3719992   1.0579978  57.2370014
 137.0869992   0.5899978  57.8860014 137.5437307   1.1942196  57.4587098
 136.0979992  18.1339978  40.0940014 135.8299992  18.4199978  40.9680014
 136.8689992  17.5879978  40.2470014 136.1655926  18.0992779  40.2341205
  12.6289992  29.4799978  46.3270014  12.7179992  30.4239978  46.1950014
  11.9909992  29.2049978  45.6690014  12.5549062  29.5719812  46.2199641
  11.5619992  28.7349978  49.7460014  11.5239992  28.0889978  50.4510014
  11.2399992  28.2679978  48.9750014  11.5132679  28.5834276  49.7382921
   3.9299992  28.3489978  51.3390014   3.9719992  27.7239978  52.0620014
   4.6329992  28.9729978  51.5210014   4.0307345  28.3477873  51.4625274
  15.2679992  31.6739978  48.0470014  14.8269992  30.9539978  48.4980014
  15.2549992  32.3949978  48.6770014  15.2059215  31.6729291  48.1938105
   4.8539992  32.7989978  49.8740014   4.4839992  31.9969978  49.5040014
   5.7949992  32.6309978  49.9200014   4.9305984  32.6664638  49.8295603
   1.4639992  26.4589978  45.2660014   1.0159992  27.3049978  45.2480014
   0.9029992  25.8799978  44.7510014   1.3268546  26.4963993  45.1938891
   2.1739992  28.6209978  47.3920014   2.3879992  27.8509978  47.9200014
   2.9119992  28.7109978  46.7890014   2.3030200  28.5278586  47.3827035
  12.3799992  36.7779978  48.2590014  12.9989992  36.1019978  47.9860014
  12.1709992  36.5599978  49.1680014  12.4366056  36.6558869  48.3443967
   9.9509992  31.1669978  50.1520014  10.2549992  30.4809978  49.5570014
  10.6729992  31.2859978  50.7700014  10.0901240  31.0892314  50.1540959
  18.6139992  22.7689978  51.0120014  18.6639992  23.3789978  51.7480014
  19.0399992  23.2299978  50.2890014  18.6784108  22.9147709  51.0150112
  13.0919992  25.5609978  50.4790014  13.2349992  24.6149978  50.4990014
  12.9859992  25.7679978  49.5510014  13.0972403  25.4594797  50.3562239
   6.2469992  23.6629978  47.7520014   6.2899992  24.5229978  47.3330014
   5.7889992  23.1109978  47.1180014   6.1909871  23.7059245  47.6090761
  13.9689992  23.7939978  46.1530014  14.6159992  23.4649978  46.7770014
  14.4789992  24.3109978  45.5300014  14.1264351  23.8189067  46.1541037
   2.8669992  26.0599978  48.5140014   3.5209992  25.5099978  48.9460014
   2.8909992  25.7859978  47.5970014   2.9597199  25.9477167  48.4491668
   8.0239992  27.6099978  47.7290014   8.6399992  27.0829978  48.2380014
   7.4369992  26.9699978  47.3250014   8.0290154  27.4513954  47.7440945
  19.0059992  24.2469978  53.2480014  18.3169992  24.9049978  53.1530014
  19.0209992  24.0489978  54.1850014  18.9137756  24.3102603  53.3615812
   5.0569992  22.5809978  51.8260014   4.8379992  23.1109978  51.0590014
   4.3889992  22.8069978  52.4730014   4.9366975  22.6840967  51.8085140
  12.4259992  32.0809978  45.3700014  12.1309992  31.7579978  44.5180014
  12.1019992  32.9809978  45.4110014  12.3418460  32.1584464  45.2589714
   7.6259992  30.2559978  52.1130014   6.8859992  30.8549978  52.2170014
   8.3399992  30.8099978  51.7980014   7.6213500  30.4127829  52.0846371
  15.7329992  23.0849978  48.1330014  15.5179992  22.3189978  48.6660014
  16.3889992  23.5569978  48.6460014  15.7922673  23.0440728  48.2751990
   4.6509992  24.4729978  49.7780014   5.2649992  25.1059978  50.1510014
   5.1629992  24.0009978  49.1220014   4.8041962  24.4957249  49.7402935
   6.0339992  32.2209978  52.9000014   6.0279992  33.0999978  52.5220014
   5.1799992  32.1369978  53.3250014   5.9177925  32.3299535  52.9056887
   2.1549992  31.8919978  43.6820014   1.8829992  32.1209978  42.7940014
   2.1999992  32.7289978  44.1430014   2.1238097  32.0366163  43.6226683
  15.7799992  33.5129978  50.3950014  14.8379992  33.5719978  50.5570014
  16.0559992  34.4189978  50.2580014  15.6885865  33.6435288  50.3986192
  16.0799992  21.7999978  51.8120014  15.3439992  22.4099978  51.7750014
  16.7639992  22.2149978  51.2860014  16.0715367  21.9397551  51.7358174
   9.0839992  19.8859978  49.2780014   8.9659992  18.9379978  49.2240014
   8.2289992  20.2189978  49.5510014   8.9522805  19.8012202  49.3075079
  14.0319992  35.2939978  47.0200014  14.4569992  34.5869978  46.5350014
  14.3489992  36.0959978  46.6030014  14.1330266  35.3055190  46.8972479
  15.1919992  33.1949978  45.5290014  14.9339992  32.5049978  44.9170014
  15.2629992  32.7519978  46.3740014  15.1663050  33.0406814  45.5595621
  16.8779992  31.7619978  54.0060014  17.0169992  31.1699978  53.2670014
  17.0449992  32.6349978  53.6500014  16.9196193  31.7988896  53.8566211
  11.3499992  28.7239978  43.7790014  10.6389992  29.2589978  43.4270014
  12.0409992  28.7789978  43.1190014  11.3460751  28.8046777  43.6415858
  11.4039992  27.1809978  40.8170014  12.1049992  27.2039978  41.4690014
  11.7059992  26.5529978  40.1610014  11.5408202  27.0992212  40.8175609
  18.7189992  28.1019978  52.0720014  18.0669992  28.7959978  52.1610014
  19.1849992  28.3119978  51.2620014  18.6925937  28.2255019  51.9747533
  14.7559992  28.9329978  44.7300014  14.0239992  29.1619978  45.3040014
  15.2029992  28.2199978  45.1850014  14.7163963  28.8678729  44.8699945
  14.6529992  27.1079978  53.7980014  14.7329992  27.8709978  54.3700014
  14.0519992  27.3869978  53.1080014  14.5826547  27.2502457  53.7830047
   6.4009992  29.5639978  46.6130014   6.0709992  29.1929978  45.7950014
   6.9899992  28.8929978  46.9600014   6.4353970  29.4226063  46.5479404
   7.7679992  32.9919978  49.2940014   7.6729992  32.4129978  48.5380014
   8.4969992  32.6209978  49.7900014   7.8536011  32.8625561  49.2576028
   6.7679992  28.3319978  50.2460014   7.3329992  28.4539978  49.4840014
   7.0869992  28.9699978  50.8850014   6.8884166  28.4348791  50.2280348
  13.0769992  33.8359978  50.9800014  12.8369992  34.4979978  51.6280014
  12.8789992  33.0009978  51.4050014  13.0173826  33.8138115  51.1261566
   7.6479992  32.7319978  54.9640014   7.3369992  33.5139978  55.4190014
   6.9979992  32.5789978  54.2780014   7.5175538  32.8184087  54.9335898
  13.6269992  28.0959978  42.4160014  14.2059992  28.2459978  43.1620014
  14.0409992  28.5659978  41.6920014  13.7623358  28.1800954  42.4203953
   4.5679992  28.9299978  54.1920014   4.6379992  29.5809978  54.8910014
   3.6769992  29.0329978  53.8570014   4.4571690  29.0329249  54.2423043
  11.3529992  34.8319978  45.8510014  11.8269992  35.1279978  46.6280014
  10.7899992  35.5709978  45.6180014  11.3417890  34.9723036  45.9258101
   5.8869992  34.8029978  55.7270014   5.8949992  34.6669978  54.7800014
   4.9709992  34.6859978  55.9790014   5.7642528  34.7685463  55.6313243
  17.3259992  19.8459978  42.2290014  16.4259992  19.9849978  42.5240014
  17.5779992  20.6769978  41.8270014  17.2368683  19.9774055  42.2150232
   5.3919992  28.6329978  44.2020014   5.0999992  29.4009978  43.7110014
   4.7169992  27.9739978  44.0390014   5.2608497  28.6489745  44.1128260
  18.5149992  34.2119978  40.6050014  18.5879992  35.1509978  40.7750014
  19.4199992  33.9069978  40.5490014  18.6474170  34.2993282  40.6207063
   1.4849992  30.9959978  53.0170014   0.9829992  30.9679978  52.2020014
   1.4899992  30.0909978  53.3270014   1.4169832  30.8697486  52.9474121
   1.2349992  33.7769978  49.9010014   2.1809992  33.6319978  49.8820014
   1.1219992  34.5609978  50.4380014   1.3493578  33.8631697  49.9710317
  19.4329992  34.4429978  55.5840014  19.3829992  33.4869978  55.5460014
  18.6059992  34.7099978  55.9850014  19.3143831  34.3484680  55.6330121
  10.4109992  34.0169978  54.4600014  10.4989992  34.8429978  54.9350014
   9.5479992  33.6869978  54.7090014  10.3063357  34.0855468  54.5587653
  10.8259992  37.7889978  44.2660014  10.7499992  37.6679978  43.3190014
  10.8579992  38.7379978  44.3840014  10.8199380  37.9007677  44.1525181
   4.4789992  36.5779978  46.0470014   4.6309992  36.2299978  46.9250014
   3.6279992  36.2209978  45.7910014   4.3848344  36.4820879  46.1326868
  13.9269992  36.9429978  41.2680014  14.3019992  36.1989978  40.7970014
  13.9319992  36.6729978  42.1860014  13.9790098  36.8046392  41.3276629
  13.5959992  36.8689978  44.0170014  12.6609992  36.9689978  44.1960014
  13.8759992  36.1589978  44.5960014  13.5059471  36.7867933  44.1196695
  16.5849992  25.9359978  56.0640014  16.1769992  26.4159978  55.3430014
  16.6249992  25.0299978  55.7560014  16.5346221  25.8792449  55.9238267
   3.7339992  32.3199978  54.0600014   3.9499992  31.9579978  54.9200014
   2.8779992  31.9449978  53.8510014   3.6478810  32.2198837  54.1492680
   6.3519992  20.7899978  50.0560014   5.4909992  20.7029978  49.6480014
   6.3299992  21.6459978  50.4840014   6.2310491  20.8938003  50.0579582
  11.0149992  20.5119978  53.4310014  11.4349992  20.0969978  54.1840014
  10.0819992  20.3329978  53.5480014  10.9463736  20.4309910  53.5498968
  14.3419992  24.2669978  54.2840014  13.8279992  24.1419978  55.0820014
  14.1859992  25.1799978  54.0400014  14.2506967  24.3732123  54.3600937
  15.1039992  29.1279978  40.0450014  15.1459992  28.9059978  39.1150014
  15.9529992  29.5269978  40.2350014  15.2245253  29.1515498  39.9433822
  10.6769992  23.0039978  40.7160014  10.4229992  23.0229978  41.6380014
  10.4199992  22.1329978  40.4140014  10.6074508  22.8888280  40.8014803
   6.4429992  25.7549978  51.1510014   5.8019992  25.7149978  51.8600014
   6.4809992  26.6819978  50.9130014   6.3603010  25.8747668  51.2159946
   6.4399992  25.9759978  46.0630014   5.5479992  25.6359978  46.0040014
   6.8909992  25.5989978  45.3070014   6.3787642  25.8784910  45.9527726
  11.9759992  26.3919978  44.8800014  11.5669992  27.2069978  44.5880014
  12.6959992  26.2519978  44.2660014  12.0174439  26.4845372  44.7570115
  11.0779992  26.5679978  56.3680014  10.5149992  25.8629978  56.6890014
  11.9039992  26.4469978  56.8360014  11.1126674  26.4552165  56.4751751
  12.9809992  25.8379978  47.6940014  12.7849992  26.4439978  46.9790014
  13.1619992  25.0049978  47.2600014  12.9786584  25.8082513  47.5374212
   4.1929992  26.0759978  53.0180014   4.1549992  26.4759978  53.8870014
   3.7029992  25.2589978  53.1080014   4.1215330  26.0202674  53.1491289
   7.5589992  23.4499978  39.8170014   7.1279992  23.0049978  40.5460014
   6.8409992  23.8209978  39.3040014   7.4029176  23.4392051  39.8474930
   0.8019992  23.1919978  46.8690014   1.4319992  23.1629978  47.5880014
   1.2509992  22.7669978  46.1380014   0.9490835  23.1305660  46.8687659
   2.0759992  23.9379978  42.2930014   2.5499992  24.5289978  41.7080014
   1.3579992  24.4679978  42.6400014   2.0438640  24.0905511  42.2597969
  12.2449992  27.4759978  52.3650014  12.5679992  26.8449978  51.7220014
  11.8039992  26.9419978  53.0260014  12.2296379  27.3173468  52.3662582
   9.0219992  23.4039978  47.1490014   8.1109992  23.4609978  47.4380014
   9.5269992  23.3439978  47.9600014   8.9656873  23.4036826  47.2981207
   3.8499992  25.0329978  45.9760014   2.9609992  25.1319978  45.6360014
   4.1469992  24.1909978  45.6300014   3.7684177  24.9327687  45.8826940
   7.5029992  25.0329978  43.6330014   8.4349992  25.1619978  43.8110014
   7.2879992  25.7019978  42.9830014   7.6014472  25.1410806  43.5694891
  13.4269992  22.6389978  50.4140014  12.7499992  22.7699978  51.0770014
  12.9419992  22.4839978  49.6030014  13.2687405  22.6359947  50.3952170
   6.1769992  26.2269978  41.1990014   5.6349992  25.8479978  40.5080014
   7.0109992  26.4219978  40.7710014   6.2154390  26.2014079  41.0464392
  16.7149992  38.3099978  56.6900014  16.9139992  38.7339978  55.8560014
  17.3699992  38.6539978  57.2970014  16.8308522  38.4146301  56.6577852
   4.3129992  30.7839978  56.2980014   5.0449992  31.0389978  56.8600014
   3.5319992  30.9889978  56.8140014   4.3076526  30.8465450  56.4445176
  10.3419992  26.1909978  49.0360014  10.9059992  25.6449978  48.4890014
  10.1939992  25.6699978  49.8250014  10.3993037  26.0456787  49.0677229
   5.3439992  22.3279978  45.4550014   5.0269992  21.4249978  45.4190014
   6.1249992  22.3299978  44.9020014   5.4062431  22.2047797  45.3753102
   8.9679992  24.5799978  51.4500014   8.1329992  25.0339978  51.5610014
   9.4919992  24.8559978  52.2020014   8.9246072  24.6793948  51.5668136
   9.5129992  30.7929978  43.1350014   8.7679992  30.2849978  42.8130014
   9.3779992  30.8419978  44.0810014   9.3928963  30.7301731  43.2188826
  16.6629992  29.9259978  51.9220014  17.3039992  30.3819978  51.3780014
  15.8319992  30.0389978  51.4590014  16.6385287  30.0036921  51.7849887
  13.4099992  23.6069978  41.3340014  12.4719992  23.7179978  41.1830014
  13.7079992  24.4629978  41.6410014  13.3216318  23.7380158  41.3548145
  11.0319992  30.9769978  54.3720014  10.6859992  30.5949978  55.1790014
  10.8319992  31.9099978  54.4430014  10.9575987  31.0509002  54.4920461
  14.1289992  25.4739978  42.9950014  15.0209992  25.3359978  43.3140014
  14.1849992  26.2649978  42.4580014  14.2587325  25.5619918  42.9661217
   4.6369992  30.0879978  48.9050014   5.3819992  30.0849978  48.3030014
   4.7149992  29.2639978  49.3860014   4.7493365  29.9762384  48.8877430
  11.6379992  32.2509978  42.1600014  11.3429992  33.0779978  42.5420014
  10.9349992  31.6319978  42.3570014  11.5026379  32.2804171  42.2388654
   1.6449992  28.5479978  54.2200014   1.8679992  28.1299978  55.0510014
   1.0429992  27.9359978  53.7970014   1.5941513  28.4079606  54.2766740
   8.6619992  28.0649978  56.4330014   8.3659992  27.8999978  55.5370014
   9.5929992  27.8449978  56.4220014   8.7474401  28.0126879  56.3090206
  13.2819992  33.4389978  54.3220014  12.3819992  33.6219978  54.0550014
  13.3159992  33.6979978  55.2430014  13.1633748  33.4990554  54.4099164
  19.0139992  25.6829978  42.6900014  18.4589992  25.2869978  42.0170014
  19.1139992  26.5939978  42.4120014  18.9516816  25.7519505  42.5605033
  18.9769992  31.4839978  55.5270014  18.1259992  31.7219978  55.1590014
  19.5669992  31.4669978  54.7740014  18.9403812  31.5142524  55.3748453
  17.3089992  34.4689978  43.1550014  16.9359992  33.6439978  43.4640014
  17.5859992  34.2859978  42.2570014  17.2953463  34.3312569  43.0759525
  14.4689992  29.2769978  50.1760014  13.5409992  29.0459978  50.1490014
  14.9199992  28.4999978  49.8460014  14.4028165  29.1402774  50.1276790
   7.0119992  33.6059978  46.3090014   7.5399992  34.3789978  46.1090014
   6.1319992  33.8299978  46.0070014   6.9653435  33.7422700  46.2407310
   2.7669992  28.4679978  40.8960014   3.3829992  29.0949978  41.2760014
   1.9049992  28.7839978  41.1680014   2.7347678  28.5964412  40.9847209
   8.4399992  31.2689978  45.8850014   8.1989992  32.1939978  45.9270014
   7.6989992  30.8099978  46.2820014   8.3069206  31.3335915  45.9443769
   8.9539992  35.4179978  52.2000014   9.3169992  36.2719978  51.9670014
   9.4859992  35.1259978  52.9410014   9.0755141  35.4953895  52.2682097
   7.1229992  36.2899978  45.4310014   6.1729992  36.3959978  45.4820014
   7.4749992  37.1109978  45.7750014   7.0405472  36.4154923  45.4844852
  12.4979992  31.5169978  51.9010014  12.0729992  31.2889978  52.7270014
  13.0789992  30.7779978  51.7190014  12.5183395  31.3859545  51.9894414
  14.7009992  32.4459978  40.9750014  15.0549992  32.0659978  41.7790014
  13.7529992  32.3519978  41.0620014  14.6212298  32.3812452  41.0968687
  15.1569992  36.0689978  54.3700014  14.5549992  35.5129978  53.8750014
  15.4379992  36.7359978  53.7440014  15.1125757  36.0830744  54.2175675
  19.2049992  36.9249978  41.1760014  19.9489992  37.5109978  41.0360014
  18.5109992  37.4939978  41.5090014  19.2129809  37.0820818  41.2018590
   3.2789992  23.3019978  53.7780014   2.3869992  23.6399978  53.7100014
   3.1809992  22.4459978  54.1960014   3.1434475  23.2326543  53.8251704
  15.5669992  31.1179978  43.2020014  15.2899992  30.3899978  43.7580014
  16.4949992  31.2369978  43.4070014  15.6544499  31.0344213  43.3058044
   2.9309992  35.1059978  52.2130014   3.1479992  34.1739978  52.1820014
   3.1769992  35.3809978  53.0960014   2.9939809  35.0155686  52.3281690
   8.7919992  33.5579978  39.4220014   9.0309992  32.8089978  38.8750014
   8.5229992  33.1699978  40.2550014   8.7883233  33.4031853  39.4597809
   7.7289992  33.1279978  41.8780014   7.8759992  32.6079978  42.6680014
   7.7259992  34.0349978  42.1850014   7.7487102  33.1793953  42.0275925
   4.1819992  30.3799978  42.3890014   3.4959992  30.7329978  42.9560014
   4.7049992  31.1429978  42.1420014   4.1588402  30.5313901  42.4331801
  12.0139992  23.0429978  52.6680014  12.7129992  23.1169978  53.3180014
  11.6329992  22.1779978  52.8220014  12.0582097  22.9362389  52.7777997
  12.7979992  22.6949978  43.7650014  13.0179992  23.1659978  42.9610014
  13.3569992  23.0889978  44.4350014  12.9036731  22.8127287  43.7455033
  10.4669992  34.8249978  42.6280014   9.6499992  35.3219978  42.6800014
  10.9959992  35.3009978  41.9870014  10.4268125  34.9571989  42.5485306
   9.9979992  24.4229978  44.6000014  10.8099992  24.9269978  44.6460014
   9.7539992  24.2779978  45.5140014  10.0761467  24.4723749  44.7298575
  10.5339992  25.4089978  53.7840014  10.6529992  25.9829978  54.5410014
  11.1889992  24.7209978  53.8990014  10.6388684  25.3945194  53.9031674
  10.8819992  21.5039978  45.5380014  10.5349992  22.1209978  46.1820014
  11.5409992  22.0049978  45.0560014  10.9235090  21.6561575  45.5610681
   7.8049992  35.8689978  42.6090014   7.9659992  36.6689978  42.1090014
   7.6079992  36.1759978  43.4940014   7.8003906  36.0198678  42.6602333
   6.5399992  22.5669978  42.2250014   6.4559992  23.4549978  42.5720014
   7.4299992  22.3019978  42.4570014   6.6488163  22.6527179  42.3038596
  16.7379992  23.3159978  54.6190014  15.8219992  23.5779978  54.5320014
  17.0739992  23.3129978  53.7230014  16.6578499  23.3515163  54.4858766
  15.3409992  27.0659978  48.7150014  14.5429992  26.6509978  48.3870014
  15.7859992  26.3759978  49.2060014  15.2919684  26.9158628  48.7365227
   4.7979992  32.9939978  41.2850014   5.3899992  33.6939978  41.5620014
   5.2569992  32.5609978  40.5660014   4.9411652  33.0312675  41.2256533
   3.1139992  25.6589978  40.4010014   3.0689992  26.5979978  40.5800014
   2.2259992  25.4229978  40.1320014   2.9878166  25.7556687  40.3891524
  16.4269992  36.3219978  50.3370014  16.2709992  37.0009978  49.6800014
  17.3599992  36.3939978  50.5400014  16.5317387  36.4246390  50.2745342
   3.9219992  20.4399978  49.0750014   3.6929992  20.4989978  48.1470014
   3.4799992  19.6489978  49.3810014   3.8308801  20.3410540  48.9894729
   2.8529992  34.3809978  45.2350014   2.0199992  34.8529978  45.2620014
   3.3979992  34.8909978  44.6360014   2.8127857  34.5144791  45.1577142
   2.1409992  36.9929978  56.5650014   2.6809992  36.7769978  57.3250014
   1.6599992  36.1879978  56.3750014   2.1499219  36.8545156  56.6434282
   6.7379992  35.9129978  58.1850014   7.5059992  35.4539978  58.5260014
   6.7169992  35.6869978  57.2550014   6.8402135  35.8196668  58.1059491
  10.8299992  35.4209978  39.5610014  10.1859992  34.7899978  39.8820014
  11.5919992  34.8899978  39.3290014  10.8448058  35.2627902  39.5736038
  13.3149992  34.2929978  56.9140014  12.9639992  33.4359978  57.1580014
  14.0409992  34.4349978  57.5210014  13.3651895  34.1951351  57.0293770
  15.4349992  35.2379978  39.7940014  15.7179992  34.4429978  40.2470014
  16.1739992  35.4709978  39.2330014  15.5737096  35.1607049  39.7801104
   2.0479992  30.8039978  57.5190014   2.1919992  29.9019978  57.2330014
   1.2759992  31.0899978  57.0320014   1.9632733  30.7191798  57.4139532
   6.3889992  31.1469978  39.6520014   6.4539992  30.3529978  40.1820014
   7.0419992  31.0289978  38.9620014   6.4861605  31.0223430  39.6312997
   8.7029992  30.7729978  56.9520014   8.3749992  31.0439978  56.0950014
   8.8549992  29.8319978  56.8640014   8.6786412  30.6829046  56.8227822
  11.7419992  32.1939978  39.3880014  11.4729992  32.3749978  40.2880014
  11.5349992  31.2689978  39.2560014  11.6771191  32.0937119  39.4935524
  14.4379992  30.6889978  54.3350014  15.1829992  31.2779978  54.2160014
  13.6809992  31.2709978  54.3990014  14.4375470  30.8482128  54.3273799
   2.8809992  28.0039978  56.9390014   3.2889992  27.1469978  56.8180014
   2.6199992  28.0179978  57.8600014   2.9016016  27.8885119  57.0469192
   7.5389992  29.1199978  41.9580014   7.0789992  28.6359978  42.6430014
   7.7939992  28.4509978  41.3220014   7.5104856  28.9633669  41.9658397
   6.8279992  27.0129978  54.3140014   6.2089992  27.6869978  54.5940014
   7.1719992  27.3339978  53.4800014   6.7897123  27.1486887  54.2396388
   8.6099992  27.3629978  40.2200014   8.4289992  27.2079978  39.2930014
   9.5599992  27.4709978  40.2650014   8.7136566  27.3563669  40.0990929
  11.8469992  29.4839978  57.5910014  12.8009992  29.5679978  57.5640014
  11.6869992  28.7719978  58.2110014  11.9557182  29.3992842  57.6710733
  17.9999992  29.7169978  39.6660014  17.7259992  29.2929978  38.8530014
  18.0389992  30.6489978  39.4490014  17.9677716  29.7848827  39.5254286
   7.1669992  24.3679978  55.3960014   7.3169992  23.6389978  54.7940014
   7.1689992  25.1449978  54.8370014   7.1877967  24.3732708  55.2380541
   7.5799992  22.7369978  52.8890014   8.1149992  23.1889978  52.2370014
   6.7269992  22.6289978  52.4660014   7.5380374  22.7842665  52.7426710
   9.1609992  28.1769978  53.1280014   9.9119992  28.0209978  52.5550014
   8.8219992  29.0289978  52.8530014   9.2179587  28.2708138  53.0124078
  13.5769992  25.9919978  58.1570014  13.7689992  25.0609978  58.0450014
  14.4349992  26.4169978  58.1460014  13.7192182  25.9220070  58.1401862
  14.8939992  28.7809978  56.2340014  14.6119992  29.4899978  55.6560014
  15.8359992  28.7079978  56.0830014  14.9827921  28.8682193  56.1344225
   5.6459992  25.5659978  57.3070014   4.8779992  25.0329978  57.0970014
   6.3239992  25.2559978  56.7080014   5.6327235  25.4511754  57.1972413
   8.3849992  20.1939978  53.3200014   8.2869992  21.1399978  53.2150014
   7.6429992  19.8209978  52.8440014   8.2712534  20.2731773  53.2412600
   9.6489992  24.5149978  56.8840014   9.4139992  24.2959978  57.7850014
   8.8659992  24.3079978  56.3740014   9.5109095  24.4569892  56.9385353
  12.3649992  23.6429978  55.9590014  11.4169992  23.6749978  56.0910014
  12.6769992  23.0169978  56.6130014  12.2775293  23.5627923  56.0654148
  13.9989992  22.2769978  57.9640014  13.9019992  21.3249978  57.9590014
  13.6769992  22.5449978  58.8250014  13.9422468  22.1830884  58.0796210
   3.8259992  23.4859978  57.0120014   4.0379992  22.7799978  56.4020014
   3.7149992  23.0489978  57.8560014   3.8400269  23.3301921  57.0425873
   8.6069992  19.4879978  55.9910014   9.3189992  18.8479978  55.9770014
   8.5059992  19.7539978  55.0780014   8.6907387  19.4364330  55.8655563
   8.9609992  21.1699978  58.0450014   8.8289992  20.6949978  57.2250014
   8.3609992  21.9149978  57.9900014   8.8619070  21.2055789  57.9253251
   8.5069992  38.0529978  41.2210014   9.4399992  38.2109978  41.3650014
   8.2429992  38.7289978  40.5960014   8.5989911  38.1659373  41.1562722
   2.0749992  32.6899978  40.7040014   2.9889992  32.7689978  40.9770014
   2.0829992  32.0029978  40.0380014   2.2010655  32.6079205  40.6512917
   0.7239992  38.0829978  45.7810014   0.0769992  37.6209978  45.2490014
   1.0789992  37.4109978  46.3640014   0.6833741  37.9289774  45.7869175
   1.5939992  36.1629978  47.5860014   1.2599992  35.2829978  47.7580014
   1.8169992  36.5089978  48.4510014   1.5783721  36.0891938  47.7264168
  19.1429992  36.9729978  50.5670014  19.1209992  37.1579978  51.5060014
  19.8329992  37.5409978  50.2260014  19.2333439  37.0751887  50.6494791
  18.7059992  36.5399978  53.4880014  18.2189992  35.8049978  53.1170014
  19.2549992  36.1459978  54.1660014  18.7135247  36.3861057  53.5288461
  17.1569992  32.3299978  58.1270014  16.2909992  32.2249978  58.5210014
  17.5329992  33.0879978  58.5730014  17.0893401  32.4181708  58.2412620
  18.4579992  30.5859978  43.6410014  19.3079992  31.0069978  43.7680014
  18.4629992  29.8459978  44.2480014  18.5751143  30.5436094  43.7404750
  18.8519992  28.6399978  45.4640014  18.1259992  28.1599978  45.8620014
  19.4339992  28.8449978  46.1970014  18.8312730  28.6020184  45.6174149
  18.6109992  31.4249978  50.4120014  19.4449992  31.0469978  50.1310014
  18.7229992  32.3679978  50.2930014  18.7401917  31.5007943  50.3574861
  17.0979992  34.3029978  52.7190014  16.4499992  34.6279978  53.3440014
  16.5799992  33.8619978  52.0450014  16.9394196  34.2878651  52.7134152
  19.1209992  28.5409978  41.8550014  18.5989992  28.8969978  41.1370014
  19.0879992  29.2159978  42.5340014  19.0450129  28.6809598  41.8483355
  17.4699992  25.7799978  40.4060014  17.5659992  26.4469978  39.7260014
  17.3299992  24.9649978  39.9250014  17.4642040  25.7610671  40.2478378
  16.6389992  27.1609978  46.0270014  16.4889992  26.2159978  46.0070014
  16.2849992  27.4419978  46.8710014  16.5706351  27.0696644  46.1383220
   1.6739992  29.2389978  50.0380014   1.8589992  29.1569978  49.1020014
   2.5239992  29.1149978  50.4610014   1.8140928  29.2110463  49.9672893
  17.4949992  29.1309978  55.6660014  18.0779992  28.3959978  55.8580014
  18.0589992  29.9029978  55.7130014  17.6509781  29.1348145  55.6986164
  18.9919992  27.0339978  56.3510014  18.1289992  26.6549978  56.1850014
  19.5959992  26.2949978  56.2760014  18.9556085  26.8823223  56.3181695
  16.7169992  23.1879978  39.5240014  17.3279992  22.8169978  40.1610014
  15.8799992  22.7669978  39.7200014  16.6874947  23.0802756  39.6377252
  16.3499992  24.7429978  44.4900014  16.6289992  23.8359978  44.6140014
  17.1089992  25.1769978  44.1010014  16.4908619  24.6774502  44.4543795
  16.9609992  25.3249978  49.9260014  17.8939992  25.5369978  49.8910014
  16.7259992  25.4259978  50.8480014  17.0569517  25.3676833  50.0459130
  16.9909992  26.0619978  52.7020014  16.1479992  26.3299978  53.0680014
  17.4329992  26.8839978  52.4910014  16.9354138  26.2098273  52.7235518
   1.2719992  24.5089978  56.1780014   2.1909992  24.3869978  56.4150014
   0.8219992  23.7589978  56.5680014   1.3370087  24.3909608  56.2631410
  19.2739992  20.0419978  58.0550014  19.6229992  19.3879978  57.4500014
  19.4209992  20.8789978  57.6150014  19.3416824  20.0656024  57.9126304
  16.9629992  22.0059978  44.5380014  17.1449992  21.5569978  45.3630014
  16.3629992  21.4219978  44.0740014  16.9068187  21.8655552  44.5882739
   2.4929992  22.8219978  49.0700014   2.9379992  22.0299978  49.3720014
   2.9589992  23.5379978  49.5000014   2.6169718  22.8104534  49.1695265
   0.7969992  25.8209978  50.1390014   1.2889992  25.5999978  49.3480014
   1.1589992  26.6609978  50.4200014   0.9132923  25.9043468  50.0687407
  18.7929992  22.1509978  56.4040014  17.8759992  22.4219978  56.3690014
  18.9159992  21.6159978  55.6200014  18.6839672  22.1157885  56.2931862
  18.8299992  22.0739978  41.0660014  19.2419992  21.3529978  40.5910014
  19.5109992  22.7429978  41.1240014  18.9785536  22.0657766  41.0088024
   1.1109992  22.0789978  44.1930014   0.1859992  22.2869978  44.0640014
   1.5649992  22.5629978  43.5030014   1.0456298  22.1729299  44.0820451
  15.8809992  37.0629978  46.1390014  16.5339992  36.7149978  45.5310014
  16.3919992  37.5509978  46.7850014  16.0392777  37.0813815  46.1432047
   1.0739992  20.8169978  52.5370014   0.4089992  20.5709978  53.1800014
   0.6309992  21.4389978  51.9600014   0.9231168  20.8674214  52.5469848
   3.2659992  33.9919978  56.6820014   2.4449992  34.1669978  56.2210014
   3.0139992  33.9189978  57.6020014   3.1195594  34.0060717  56.7433611
   6.2199992  34.9659978  52.9400014   5.7959992  35.7759978  52.6580014
   7.1249992  35.0519978  52.6380014   6.2842138  35.0884160  52.8606415
  10.5319992  36.3649978  55.9000014  10.7159992  36.0319978  56.7780014
  11.3779992  36.6749978  55.5780014  10.6716484  36.3612979  55.9767617
  12.8769992  37.6509978  55.1440014  13.5539992  37.0179978  54.9040014
  13.1979992  38.0519978  55.9510014  13.0131323  37.6185691  55.2203158
  17.7939992  20.2409978  54.2230014  16.9809992  20.5659978  53.8360014
  18.0269992  19.4799978  53.6900014  17.7141347  20.1826880  54.0979841
   3.6219992  38.2229978  52.9880014   2.9019992  38.6629978  52.5370014
   3.2569992  37.9719978  53.8360014   3.4739643  38.2493369  53.0409129
   6.0889992  37.8229978  52.0180014   5.2249992  37.8949978  52.4220014
   6.0339992  38.3699978  51.2340014   5.9631942  37.9067849  51.9674000
  10.7999992  37.7109978  51.1930014  10.3429992  38.2399978  50.5390014
  10.9629992  38.3139978  51.9180014  10.7594960  37.8649280  51.2015274
  13.1279992  36.5889978  52.1380014  12.2229992  36.7539978  51.8720014
  13.5559992  37.4419978  52.0720014  13.0621537  36.7269134  52.0927095
  15.7319992  38.1589978  52.4330014  15.5499992  39.0749978  52.2220014
  15.9089992  37.7479978  51.5860014  15.7310030  38.2288273  52.2897166
   3.0369992  36.8459978  49.8980014   3.0189992  36.4199978  50.7550014
   3.8419992  36.5269978  49.4890014   3.1432875  36.7446435  49.9599515
   5.1779992  35.5559978  48.5530014   4.9589992  34.6389978  48.7230014
   6.0019992  35.6959978  49.0190014   5.2594702  35.4495511  48.6392527
   7.7149992  36.0259978  49.4020014   7.9279992  35.1379978  49.1150014
   7.7799992  35.9909978  50.3560014   7.7529149  35.8998326  49.4917369
  11.2239992  21.6899978  48.5460014  10.5499992  21.0599978  48.8020014
  11.7879992  21.2059978  47.9430014  11.2080384  21.5383708  48.4995020
  16.3669992  19.7969978  48.6590014  16.9699992  20.3449978  48.1570014
  15.4969992  20.1159978  48.4180014  16.3319157  19.9150373  48.5577910
  18.0939992  20.9359978  46.9920014  18.7049992  20.4219978  46.4650014
  18.4759992  21.8129978  47.0150014  18.2293305  20.9842050  46.9229418
   3.5509992  20.3239978  46.3680014   2.7739992  20.0889978  45.8610014
   4.0809992  19.5269978  46.3770014   3.5163451  20.1841268  46.2998627
   2.3869992  20.1219978  42.1720014   2.8259992  20.7329978  41.5800014
   1.7529992  20.6599978  42.6460014   2.3613859  20.2784064  42.1550305
   8.1299992  20.2499978  46.1810014   9.0039992  20.6389978  46.1520014
   7.9939992  20.0349978  47.1040014   8.2311953  20.2741643  46.3017617
  13.6869992  20.2799978  47.8310014  13.7629992  20.3759978  46.8810014
  13.4119992  19.3729978  47.9590014  13.6601871  20.1704146  47.7183944
  15.0399992  20.3059978  43.5230014  14.3369992  20.9209978  43.3130014
  14.5949992  19.4689978  43.6540014  14.8836550  20.2769668  43.5119837
   2.2879992  36.0699978  43.0690014   1.6029992  36.0319978  42.4020014
   2.2919992  36.9829978  43.3570014   2.1947621  36.1881924  43.0166126
   4.2479992  22.0379978  40.6140014   4.7389992  21.4079978  40.0870014
   4.8709992  22.3339978  41.2770014   4.3995304  21.9917376  40.6314940
   9.2739992  22.3309978  43.0710014   9.4519992  21.6839978  43.7540014
   9.2199992  23.1649978  43.5380014   9.2910678  22.3551604  43.2276301
  11.1519992  37.2789978  41.4670014  12.0179992  37.6459978  41.2890014
  10.9059992  36.8399978  40.6530014  11.2372097  37.2698525  41.3326019
  17.8609992  36.8419978  44.1460014  17.6669992  36.0939978  43.5810014
  17.8219992  37.5999978  43.5630014  17.8291645  36.8420786  43.9898148
   3.5079992  20.8379978  55.8860014   3.1419992  20.0719978  56.3280014
   4.4209992  20.8669978  56.1720014   3.5813172  20.7370324  55.9851890
   5.4809992  20.1879978  57.4210014   6.3799992  19.9139978  57.2370014
   5.0949992  19.4459978  57.8860014   5.5517307  20.0502196  57.4587098
   4.1059992  36.9899978  40.0940014   3.8379992  37.2759978  40.9680014
   4.8769992  36.4439978  40.2470014   4.1735926  36.9552779  40.2341205
  13.9029992  19.5209978  57.6040014  13.9789992  19.0949978  58.4570014
  14.7959992  19.5339978  57.2610014  14.0342303  19.4643493  57.6745497
  17.0789992  35.5939978  56.2960014  16.2969992  35.4069978  55.7760014
  17.0069992  36.5229978  56.5130014  16.9621924  35.6940637  56.2541602
  31.4849992  29.4799978  46.3270014  31.5739992  30.4239978  46.1950014
  30.8469992  29.2049978  45.6690014  31.4109062  29.5719812  46.2199641
  30.4179992  28.7349978  49.7460014  30.3799992  28.0889978  50.4510014
  30.0959992  28.2679978  48.9750014  30.3692679  28.5834276  49.7382921
  22.7859992  28.3489978  51.3390014  22.8279992  27.7239978  52.0620014
  23.4889992  28.9729978  51.5210014  22.8867345  28.3477873  51.4625274
  34.1239992  31.6739978  48.0470014  33.6829992  30.9539978  48.4980014
  34.1109992  32.3949978  48.6770014  34.0619215  31.6729291  48.1938105
  23.7099992  32.7989978  49.8740014  23.3399992  31.9969978  49.5040014
  24.6509992  32.6309978  49.9200014  23.7865984  32.6664638  49.8295603
  20.3199992  26.4589978  45.2660014  19.8719992  27.3049978  45.2480014
  19.7589992  25.8799978  44.7510014  20.1828546  26.4963993  45.1938891
  21.0299992  28.6209978  47.3920014  21.2439992  27.8509978  47.9200014
  21.7679992  28.7109978  46.7890014  21.1590200  28.5278586  47.3827035
  31.2359992  36.7779978  48.2590014  31.8549992  36.1019978  47.9860014
  31.0269992  36.5599978  49.1680014  31.2926056  36.6558869  48.3443967
  28.8069992  31.1669978  50.1520014  29.1109992  30.4809978  49.5570014
  29.5289992  31.2859978  50.7700014  28.9461240  31.0892314  50.1540959
  37.4699992  22.7689978  51.0120014  37.5199992  23.3789978  51.7480014
  37.8959992  23.2299978  50.2890014  37.5344108  22.9147709  51.0150112
  31.9479992  25.5609978  50.4790014  32.0909992  24.6149978  50.4990014
  31.8419992  25.7679978  49.5510014  31.9532403  25.4594797  50.3562239
  25.1029992  23.6629978  47.7520014  25.1459992  24.5229978  47.3330014
  24.6449992  23.1109978  47.1180014  25.0469871  23.7059245  47.6090761
  32.8249992  23.7939978  46.1530014  33.4719992  23.4649978  46.7770014
  33.3349992  24.3109978  45.5300014  32.9824351  23.8189067  46.1541037
  21.7229992  26.0599978  48.5140014  22.3769992  25.5099978  48.9460014
  21.7469992  25.7859978  47.5970014  21.8157199  25.9477167  48.4491668
  26.8799992  27.6099978  47.7290014  27.4959992  27.0829978  48.2380014
  26.2929992  26.9699978  47.3250014  26.8850154  27.4513954  47.7440945
  37.8619992  24.2469978  53.2480014  37.1729992  24.9049978  53.1530014
  37.8769992  24.0489978  54.1850014  37.7697756  24.3102603  53.3615812
  23.9129992  22.5809978  51.8260014  23.6939992  23.1109978  51.0590014
  23.2449992  22.8069978  52.4730014  23.7926975  22.6840967  51.8085140
  31.2819992  32.0809978  45.3700014  30.9869992  31.7579978  44.5180014
  30.9579992  32.9809978  45.4110014  31.1978460  32.1584464  45.2589714
  26.4819992  30.2559978  52.1130014  25.7419992  30.8549978  52.2170014
  27.1959992  30.8099978  51.7980014  26.4773500  30.4127829  52.0846371
  34.5889992  23.0849978  48.1330014  34.3739992  22.3189978  48.6660014
  35.2449992  23.5569978  48.6460014  34.6482673  23.0440728  48.2751990
  23.5069992  24.4729978  49.7780014  24.1209992  25.1059978  50.1510014
  24.0189992  24.0009978  49.1220014  23.6601962  24.4957249  49.7402935
  24.8899992  32.2209978  52.9000014  24.8839992  33.0999978  52.5220014
  24.0359992  32.1369978  53.3250014  24.7737925  32.3299535  52.9056887
  21.0109992  31.8919978  43.6820014  20.7389992  32.1209978  42.7940014
  21.0559992  32.7289978  44.1430014  20.9798097  32.0366163  43.6226683
  34.6359992  33.5129978  50.3950014  33.6939992  33.5719978  50.5570014
  34.9119992  34.4189978  50.2580014  34.5445865  33.6435288  50.3986192
  34.9359992  21.7999978  51.8120014  34.1999992  22.4099978  51.7750014
  35.6199992  22.2149978  51.2860014  34.9275367  21.9397551  51.7358174
  27.9399992  19.8859978  49.2780014  27.8219992  18.9379978  49.2240014
  27.0849992  20.2189978  49.5510014  27.8082805  19.8012202  49.3075079
  32.8879992  35.2939978  47.0200014  33.3129992  34.5869978  46.5350014
  33.2049992  36.0959978  46.6030014  32.9890266  35.3055190  46.8972479
  34.0479992  33.1949978  45.5290014  33.7899992  32.5049978  44.9170014
  34.1189992  32.7519978  46.3740014  34.0223050  33.0406814  45.5595621
  35.7339992  31.7619978  54.0060014  35.8729992  31.1699978  53.2670014
  35.9009992  32.6349978  53.6500014  35.7756193  31.7988896  53.8566211
  30.2059992  28.7239978  43.7790014  29.4949992  29.2589978  43.4270014
  30.8969992  28.7789978  43.1190014  30.2020751  28.8046777  43.6415858
  30.2599992  27.1809978  40.8170014  30.9609992  27.2039978  41.4690014
  30.5619992  26.5529978  40.1610014  30.3968202  27.0992212  40.8175609
  37.5749992  28.1019978  52.0720014  36.9229992  28.7959978  52.1610014
  38.0409992  28.3119978  51.2620014  37.5485937  28.2255019  51.9747533
  33.6119992  28.9329978  44.7300014  32.8799992  29.1619978  45.3040014
  34.0589992  28.2199978  45.1850014  33.5723963  28.8678729  44.8699945
  33.5089992  27.1079978  53.7980014  33.5889992  27.8709978  54.3700014
  32.9079992  27.3869978  53.1080014  33.4386547  27.2502457  53.7830047
  25.2569992  29.5639978  46.6130014  24.9269992  29.1929978  45.7950014
  25.8459992  28.8929978  46.9600014  25.2913970  29.4226063  46.5479404
  26.6239992  32.9919978  49.2940014  26.5289992  32.4129978  48.5380014
  27.3529992  32.6209978  49.7900014  26.7096011  32.8625561  49.2576028
  25.6239992  28.3319978  50.2460014  26.1889992  28.4539978  49.4840014
  25.9429992  28.9699978  50.8850014  25.7444166  28.4348791  50.2280348
  31.9329992  33.8359978  50.9800014  31.6929992  34.4979978  51.6280014
  31.7349992  33.0009978  51.4050014  31.8733826  33.8138115  51.1261566
  26.5039992  32.7319978  54.9640014  26.1929992  33.5139978  55.4190014
  25.8539992  32.5789978  54.2780014  26.3735538  32.8184087  54.9335898
  32.4829992  28.0959978  42.4160014  33.0619992  28.2459978  43.1620014
  32.8969992  28.5659978  41.6920014  32.6183358  28.1800954  42.4203953
  23.4239992  28.9299978  54.1920014  23.4939992  29.5809978  54.8910014
  22.5329992  29.0329978  53.8570014  23.3131690  29.0329249  54.2423043
  30.2089992  34.8319978  45.8510014  30.6829992  35.1279978  46.6280014
  29.6459992  35.5709978  45.6180014  30.1977890  34.9723036  45.9258101
  24.7429992  34.8029978  55.7270014  24.7509992  34.6669978  54.7800014
  23.8269992  34.6859978  55.9790014  24.6202528  34.7685463  55.6313243
  36.1819992  19.8459978  42.2290014  35.2819992  19.9849978  42.5240014
  36.4339992  20.6769978  41.8270014  36.0928683  19.9774055  42.2150232
  24.2479992  28.6329978  44.2020014  23.9559992  29.4009978  43.7110014
  23.5729992  27.9739978  44.0390014  24.1168497  28.6489745  44.1128260
  37.3709992  34.2119978  40.6050014  37.4439992  35.1509978  40.7750014
  38.2759992  33.9069978  40.5490014  37.5034170  34.2993282  40.6207063
  20.3409992  30.9959978  53.0170014  19.8389992  30.9679978  52.2020014
  20.3459992  30.0909978  53.3270014  20.2729832  30.8697486  52.9474121
  20.0909992  33.7769978  49.9010014  21.0369992  33.6319978  49.8820014
  19.9779992  34.5609978  50.4380014  20.2053578  33.8631697  49.9710317
  38.2889992  34.4429978  55.5840014  38.2389992  33.4869978  55.5460014
  37.4619992  34.7099978  55.9850014  38.1703831  34.3484680  55.6330121
  29.2669992  34.0169978  54.4600014  29.3549992  34.8429978  54.9350014
  28.4039992  33.6869978  54.7090014  29.1623357  34.0855468  54.5587653
  29.6819992  37.7889978  44.2660014  29.6059992  37.6679978  43.3190014
  29.7139992  38.7379978  44.3840014  29.6759380  37.9007677  44.1525181
  23.3349992  36.5779978  46.0470014  23.4869992  36.2299978  46.9250014
  22.4839992  36.2209978  45.7910014  23.2408344  36.4820879  46.1326868
  32.7829992  36.9429978  41.2680014  33.1579992  36.1989978  40.7970014
  32.7879992  36.6729978  42.1860014  32.8350098  36.8046392  41.3276629
  32.4519992  36.8689978  44.0170014  31.5169992  36.9689978  44.1960014
  32.7319992  36.1589978  44.5960014  32.3619471  36.7867933  44.1196695
  35.4409992  25.9359978  56.0640014  35.0329992  26.4159978  55.3430014
  35.4809992  25.0299978  55.7560014  35.3906221  25.8792449  55.9238267
  22.5899992  32.3199978  54.0600014  22.8059992  31.9579978  54.9200014
  21.7339992  31.9449978  53.8510014  22.5038810  32.2198837  54.1492680
  25.2079992  20.7899978  50.0560014  24.3469992  20.7029978  49.6480014
  25.1859992  21.6459978  50.4840014  25.0870491  20.8938003  50.0579582
  29.8709992  20.5119978  53.4310014  30.2909992  20.0969978  54.1840014
  28.9379992  20.3329978  53.5480014  29.8023736  20.4309910  53.5498968
  33.1979992  24.2669978  54.2840014  32.6839992  24.1419978  55.0820014
  33.0419992  25.1799978  54.0400014  33.1066967  24.3732123  54.3600937
  33.9599992  29.1279978  40.0450014  34.0019992  28.9059978  39.1150014
  34.8089992  29.5269978  40.2350014  34.0805253  29.1515498  39.9433822
  29.5329992  23.0039978  40.7160014  29.2789992  23.0229978  41.6380014
  29.2759992  22.1329978  40.4140014  29.4634508  22.8888280  40.8014803
  25.2989992  25.7549978  51.1510014  24.6579992  25.7149978  51.8600014
  25.3369992  26.6819978  50.9130014  25.2163010  25.8747668  51.2159946
  25.2959992  25.9759978  46.0630014  24.4039992  25.6359978  46.0040014
  25.7469992  25.5989978  45.3070014  25.2347642  25.8784910  45.9527726
  30.8319992  26.3919978  44.8800014  30.4229992  27.2069978  44.5880014
  31.5519992  26.2519978  44.2660014  30.8734439  26.4845372  44.7570115
  29.9339992  26.5679978  56.3680014  29.3709992  25.8629978  56.6890014
  30.7599992  26.4469978  56.8360014  29.9686674  26.4552165  56.4751751
  31.8369992  25.8379978  47.6940014  31.6409992  26.4439978  46.9790014
  32.0179992  25.0049978  47.2600014  31.8346584  25.8082513  47.5374212
  23.0489992  26.0759978  53.0180014  23.0109992  26.4759978  53.8870014
  22.5589992  25.2589978  53.1080014  22.9775330  26.0202674  53.1491289
  26.4149992  23.4499978  39.8170014  25.9839992  23.0049978  40.5460014
  25.6969992  23.8209978  39.3040014  26.2589176  23.4392051  39.8474930
  19.6579992  23.1919978  46.8690014  20.2879992  23.1629978  47.5880014
  20.1069992  22.7669978  46.1380014  19.8050835  23.1305660  46.8687659
  20.9319992  23.9379978  42.2930014  21.4059992  24.5289978  41.7080014
  20.2139992  24.4679978  42.6400014  20.8998640  24.0905511  42.2597969
  31.1009992  27.4759978  52.3650014  31.4239992  26.8449978  51.7220014
  30.6599992  26.9419978  53.0260014  31.0856379  27.3173468  52.3662582
  27.8779992  23.4039978  47.1490014  26.9669992  23.4609978  47.4380014
  28.3829992  23.3439978  47.9600014  27.8216873  23.4036826  47.2981207
  22.7059992  25.0329978  45.9760014  21.8169992  25.1319978  45.6360014
  23.0029992  24.1909978  45.6300014  22.6244177  24.9327687  45.8826940
  26.3589992  25.0329978  43.6330014  27.2909992  25.1619978  43.8110014
  26.1439992  25.7019978  42.9830014  26.4574472  25.1410806  43.5694891
  32.2829992  22.6389978  50.4140014  31.6059992  22.7699978  51.0770014
  31.7979992  22.4839978  49.6030014  32.1247405  22.6359947  50.3952170
  25.0329992  26.2269978  41.1990014  24.4909992  25.8479978  40.5080014
  25.8669992  26.4219978  40.7710014  25.0714390  26.2014079  41.0464392
  35.5709992  38.3099978  56.6900014  35.7699992  38.7339978  55.8560014
  36.2259992  38.6539978  57.2970014  35.6868522  38.4146301  56.6577852
  23.1689992  30.7839978  56.2980014  23.9009992  31.0389978  56.8600014
  22.3879992  30.9889978  56.8140014  23.1636526  30.8465450  56.4445176
  29.1979992  26.1909978  49.0360014  29.7619992  25.6449978  48.4890014
  29.0499992  25.6699978  49.8250014  29.2553037  26.0456787  49.0677229
  24.1999992  22.3279978  45.4550014  23.8829992  21.4249978  45.4190014
  24.9809992  22.3299978  44.9020014  24.2622431  22.2047797  45.3753102
  27.8239992  24.5799978  51.4500014  26.9889992  25.0339978  51.5610014
  28.3479992  24.8559978  52.2020014  27.7806072  24.6793948  51.5668136
  28.3689992  30.7929978  43.1350014  27.6239992  30.2849978  42.8130014
  28.2339992  30.8419978  44.0810014  28.2488963  30.7301731  43.2188826
  35.5189992  29.9259978  51.9220014  36.1599992  30.3819978  51.3780014
  34.6879992  30.0389978  51.4590014  35.4945287  30.0036921  51.7849887
  32.2659992  23.6069978  41.3340014  31.3279992  23.7179978  41.1830014
  32.5639992  24.4629978  41.6410014  32.1776318  23.7380158  41.3548145
  29.8879992  30.9769978  54.3720014  29.5419992  30.5949978  55.1790014
  29.6879992  31.9099978  54.4430014  29.8135987  31.0509002  54.4920461
  32.9849992  25.4739978  42.9950014  33.8769992  25.3359978  43.3140014
  33.0409992  26.2649978  42.4580014  33.1147325  25.5619918  42.9661217
  23.4929992  30.0879978  48.9050014  24.2379992  30.0849978  48.3030014
  23.5709992  29.2639978  49.3860014  23.6053365  29.9762384  48.8877430
  30.4939992  32.2509978  42.1600014  30.1989992  33.0779978  42.5420014
  29.7909992  31.6319978  42.3570014  30.3586379  32.2804171  42.2388654
  20.5009992  28.5479978  54.2200014  20.7239992  28.1299978  55.0510014
  19.8989992  27.9359978  53.7970014  20.4501513  28.4079606  54.2766740
  27.5179992  28.0649978  56.4330014  27.2219992  27.8999978  55.5370014
  28.4489992  27.8449978  56.4220014  27.6034401  28.0126879  56.3090206
  32.1379992  33.4389978  54.3220014  31.2379992  33.6219978  54.0550014
  32.1719992  33.6979978  55.2430014  32.0193748  33.4990554  54.4099164
  37.8699992  25.6829978  42.6900014  37.3149992  25.2869978  42.0170014
  37.9699992  26.5939978  42.4120014  37.8076816  25.7519505  42.5605033
  37.8329992  31.4839978  55.5270014  36.9819992  31.7219978  55.1590014
  38.4229992  31.4669978  54.7740014  37.7963812  31.5142524  55.3748453
  36.1649992  34.4689978  43.1550014  35.7919992  33.6439978  43.4640014
  36.4419992  34.2859978  42.2570014  36.1513463  34.3312569  43.0759525
  33.3249992  29.2769978  50.1760014  32.3969992  29.0459978  50.1490014
  33.7759992  28.4999978  49.8460014  33.2588165  29.1402774  50.1276790
  25.8679992  33.6059978  46.3090014  26.3959992  34.3789978  46.1090014
  24.9879992  33.8299978  46.0070014  25.8213435  33.7422700  46.2407310
  21.6229992  28.4679978  40.8960014  22.2389992  29.0949978  41.2760014
  20.7609992  28.7839978  41.1680014  21.5907678  28.5964412  40.9847209
  27.2959992  31.2689978  45.8850014  27.0549992  32.1939978  45.9270014
  26.5549992  30.8099978  46.2820014  27.1629206  31.3335915  45.9443769
  27.8099992  35.4179978  52.2000014  28.1729992  36.2719978  51.9670014
  28.3419992  35.1259978  52.9410014  27.9315141  35.4953895  52.2682097
  25.9789992  36.2899978  45.4310014  25.0289992  36.3959978  45.4820014
  26.3309992  37.1109978  45.7750014  25.8965472  36.4154923  45.4844852
  31.3539992  31.5169978  51.9010014  30.9289992  31.2889978  52.7270014
  31.9349992  30.7779978  51.7190014  31.3743395  31.3859545  51.9894414
  33.5569992  32.4459978  40.9750014  33.9109992  32.0659978  41.7790014
  32.6089992  32.3519978  41.0620014  33.4772298  32.3812452  41.0968687
  34.0129992  36.0689978  54.3700014  33.4109992  35.5129978  53.8750014
  34.2939992  36.7359978  53.7440014  33.9685757  36.0830744  54.2175675
  38.0609992  36.9249978  41.1760014  38.8049992  37.5109978  41.0360014
  37.3669992  37.4939978  41.5090014  38.0689809  37.0820818  41.2018590
  22.1349992  23.3019978  53.7780014  21.2429992  23.6399978  53.7100014
  22.0369992  22.4459978  54.1960014  21.9994475  23.2326543  53.8251704
  34.4229992  31.1179978  43.2020014  34.1459992  30.3899978  43.7580014
  35.3509992  31.2369978  43.4070014  34.5104499  31.0344213  43.3058044
  21.7869992  35.1059978  52.2130014  22.0039992  34.1739978  52.1820014
  22.0329992  35.3809978  53.0960014  21.8499809  35.0155686  52.3281690
  27.6479992  33.5579978  39.4220014  27.8869992  32.8089978  38.8750014
  27.3789992  33.1699978  40.2550014  27.6443233  33.4031853  39.4597809
  26.5849992  33.1279978  41.8780014  26.7319992  32.6079978  42.6680014
  26.5819992  34.0349978  42.1850014  26.6047102  33.1793953  42.0275925
  23.0379992  30.3799978  42.3890014  22.3519992  30.7329978  42.9560014
  23.5609992  31.1429978  42.1420014  23.0148402  30.5313901  42.4331801
  30.8699992  23.0429978  52.6680014  31.5689992  23.1169978  53.3180014
  30.4889992  22.1779978  52.8220014  30.9142097  22.9362389  52.7777997
  31.6539992  22.6949978  43.7650014  31.8739992  23.1659978  42.9610014
  32.2129992  23.0889978  44.4350014  31.7596731  22.8127287  43.7455033
  29.3229992  34.8249978  42.6280014  28.5059992  35.3219978  42.6800014
  29.8519992  35.3009978  41.9870014  29.2828125  34.9571989  42.5485306
  28.8539992  24.4229978  44.6000014  29.6659992  24.9269978  44.6460014
  28.6099992  24.2779978  45.5140014  28.9321467  24.4723749  44.7298575
  29.3899992  25.4089978  53.7840014  29.5089992  25.9829978  54.5410014
  30.0449992  24.7209978  53.8990014  29.4948684  25.3945194  53.9031674
  29.7379992  21.5039978  45.5380014  29.3909992  22.1209978  46.1820014
  30.3969992  22.0049978  45.0560014  29.7795090  21.6561575  45.5610681
  26.6609992  35.8689978  42.6090014  26.8219992  36.6689978  42.1090014
  26.4639992  36.1759978  43.4940014  26.6563906  36.0198678  42.6602333
  25.3959992  22.5669978  42.2250014  25.3119992  23.4549978  42.5720014
  26.2859992  22.3019978  42.4570014  25.5048163  22.6527179  42.3038596
  35.5939992  23.3159978  54.6190014  34.6779992  23.5779978  54.5320014
  35.9299992  23.3129978  53.7230014  35.5138499  23.3515163  54.4858766
  34.1969992  27.0659978  48.7150014  33.3989992  26.6509978  48.3870014
  34.6419992  26.3759978  49.2060014  34.1479684  26.9158628  48.7365227
  23.6539992  32.9939978  41.2850014  24.2459992  33.6939978  41.5620014
  24.1129992  32.5609978  40.5660014  23.7971652  33.0312675  41.2256533
  21.9699992  25.6589978  40.4010014  21.9249992  26.5979978  40.5800014
  21.0819992  25.4229978  40.1320014  21.8438166  25.7556687  40.3891524
  35.2829992  36.3219978  50.3370014  35.1269992  37.0009978  49.6800014
  36.2159992  36.3939978  50.5400014  35.3877387  36.4246390  50.2745342
  22.7779992  20.4399978  49.0750014  22.5489992  20.4989978  48.1470014
  22.3359992  19.6489978  49.3810014  22.6868801  20.3410540  48.9894729
  21.7089992  34.3809978  45.2350014  20.8759992  34.8529978  45.2620014
  22.2539992  34.8909978  44.6360014  21.6687857  34.5144791  45.1577142
  20.9969992  36.9929978  56.5650014  21.5369992  36.7769978  57.3250014
  20.5159992  36.1879978  56.3750014  21.0059219  36.8545156  56.6434282
  25.5939992  35.9129978  58.1850014  26.3619992  35.4539978  58.5260014
  25.5729992  35.6869978  57.2550014  25.6962135  35.8196668  58.1059491
  29.6859992  35.4209978  39.5610014  29.0419992  34.7899978  39.8820014
  30.4479992  34.8899978  39.3290014  29.7008058  35.2627902  39.5736038
  32.1709992  34.2929978  56.9140014  31.8199992  33.4359978  57.1580014
  32.8969992  34.4349978  57.5210014  32.2211895  34.1951351  57.0293770
  34.2909992  35.2379978  39.7940014  34.5739992  34.4429978  40.2470014
  35.0299992  35.4709978  39.2330014  34.4297096  35.1607049  39.7801104
  20.9039992  30.8039978  57.5190014  21.0479992  29.9019978  57.2330014
  20.1319992  31.0899978  57.0320014  20.8192733  30.7191798  57.4139532
  25.2449992  31.1469978  39.6520014  25.3099992  30.3529978  40.1820014
  25.8979992  31.0289978  38.9620014  25.3421605  31.0223430  39.6312997
  27.5589992  30.7729978  56.9520014  27.2309992  31.0439978  56.0950014
  27.7109992  29.8319978  56.8640014  27.5346412  30.6829046  56.8227822
  30.5979992  32.1939978  39.3880014  30.3289992  32.3749978  40.2880014
  30.3909992  31.2689978  39.2560014  30.5331191  32.0937119  39.4935524
  33.2939992  30.6889978  54.3350014  34.0389992  31.2779978  54.2160014
  32.5369992  31.2709978  54.3990014  33.2935470  30.8482128  54.3273799
  21.7369992  28.0039978  56.9390014  22.1449992  27.1469978  56.8180014
  21.4759992  28.0179978  57.8600014  21.7576016  27.8885119  57.0469192
  26.3949992  29.1199978  41.9580014  25.9349992  28.6359978  42.6430014
  26.6499992  28.4509978  41.3220014  26.3664856  28.9633669  41.9658397
  25.6839992  27.0129978  54.3140014  25.0649992  27.6869978  54.5940014
  26.0279992  27.3339978  53.4800014  25.6457123  27.1486887  54.2396388
  27.4659992  27.3629978  40.2200014  27.2849992  27.2079978  39.2930014
  28.4159992  27.4709978  40.2650014  27.5696566  27.3563669  40.0990929
  30.7029992  29.4839978  57.5910014  31.6569992  29.5679978  57.5640014
  30.5429992  28.7719978  58.2110014  30.8117182  29.3992842  57.6710733
  36.8559992  29.7169978  39.6660014  36.5819992  29.2929978  38.8530014
  36.8949992  30.6489978  39.4490014  36.8237716  29.7848827  39.5254286
  26.0229992  24.3679978  55.3960014  26.1729992  23.6389978  54.7940014
  26.0249992  25.1449978  54.8370014  26.0437967  24.3732708  55.2380541
  26.4359992  22.7369978  52.8890014  26.9709992  23.1889978  52.2370014
  25.5829992  22.6289978  52.4660014  26.3940374  22.7842665  52.7426710
  28.0169992  28.1769978  53.1280014  28.7679992  28.0209978  52.5550014
  27.6779992  29.0289978  52.8530014  28.0739587  28.2708138  53.0124078
  32.4329992  25.9919978  58.1570014  32.6249992  25.0609978  58.0450014
  33.2909992  26.4169978  58.1460014  32.5752182  25.9220070  58.1401862
  33.7499992  28.7809978  56.2340014  33.4679992  29.4899978  55.6560014
  34.6919992  28.7079978  56.0830014  33.8387921  28.8682193  56.1344225
  24.5019992  25.5659978  57.3070014  23.7339992  25.0329978  57.0970014
  25.1799992  25.2559978  56.7080014  24.4887235  25.4511754  57.1972413
  27.2409992  20.1939978  53.3200014  27.1429992  21.1399978  53.2150014
  26.4989992  19.8209978  52.8440014  27.1272534  20.2731773  53.2412600
  28.5049992  24.5149978  56.8840014  28.2699992  24.2959978  57.7850014
  27.7219992  24.3079978  56.3740014  28.3669095  24.4569892  56.9385353
  31.2209992  23.6429978  55.9590014  30.2729992  23.6749978  56.0910014
  31.5329992  23.0169978  56.6130014  31.1335293  23.5627923  56.0654148
  32.8549992  22.2769978  57.9640014  32.7579992  21.3249978  57.9590014
  32.5329992  22.5449978  58.8250014  32.7982468  22.1830884  58.0796210
  22.6819992  23.4859978  57.0120014  22.8939992  22.7799978  56.4020014
  22.5709992  23.0489978  57.8560014  22.6960269  23.3301921  57.0425873
  27.4629992  19.4879978  55.9910014  28.1749992  18.8479978  55.9770014
  27.3619992  19.7539978  55.0780014  27.5467387  19.4364330  55.8655563
  27.8169992  21.1699978  58.0450014  27.6849992  20.6949978  57.2250014
  27.2169992  21.9149978  57.9900014  27.7179070  21.2055789  57.9253251
  27.3629992  38.0529978  41.2210014  28.2959992  38.2109978  41.3650014
  27.0989992  38.7289978  40.5960014  27.4549911  38.1659373  41.1562722
  20.9309992  32.6899978  40.7040014  21.8449992  32.7689978  40.9770014
  20.9389992  32.0029978  40.0380014  21.0570655  32.6079205  40.6512917
  19.5799992  38.0829978  45.7810014  18.9329992  37.6209978  45.2490014
  19.9349992  37.4109978  46.3640014  19.5393741  37.9289774  45.7869175
  20.4499992  36.1629978  47.5860014  20.1159992  35.2829978  47.7580014
  20.6729992  36.5089978  48.4510014  20.4343721  36.0891938  47.7264168
  37.9989992  36.9729978  50.5670014  37.9769992  37.1579978  51.5060014
  38.6889992  37.5409978  50.2260014  38.0893439  37.0751887  50.6494791
  37.5619992  36.5399978  53.4880014  37.0749992  35.8049978  53.1170014
  38.1109992  36.1459978  54.1660014  37.5695247  36.3861057  53.5288461
  36.0129992  32.3299978  58.1270014  35.1469992  32.2249978  58.5210014
  36.3889992  33.0879978  58.5730014  35.9453401  32.4181708  58.2412620
  37.3139992  30.5859978  43.6410014  38.1639992  31.0069978  43.7680014
  37.3189992  29.8459978  44.2480014  37.4311143  30.5436094  43.7404750
  37.7079992  28.6399978  45.4640014  36.9819992  28.1599978  45.8620014
  38.2899992  28.8449978  46.1970014  37.6872730  28.6020184  45.6174149
  37.4669992  31.4249978  50.4120014  38.3009992  31.0469978  50.1310014
  37.5789992  32.3679978  50.2930014  37.5961917  31.5007943  50.3574861
  35.9539992  34.3029978  52.7190014  35.3059992  34.6279978  53.3440014
  35.4359992  33.8619978  52.0450014  35.7954196  34.2878651  52.7134152
  37.9769992  28.5409978  41.8550014  37.4549992  28.8969978  41.1370014
  37.9439992  29.2159978  42.5340014  37.9010129  28.6809598  41.8483355
  36.3259992  25.7799978  40.4060014  36.4219992  26.4469978  39.7260014
  36.1859992  24.9649978  39.9250014  36.3202040  25.7610671  40.2478378
  35.4949992  27.1609978  46.0270014  35.3449992  26.2159978  46.0070014
  35.1409992  27.4419978  46.8710014  35.4266351  27.0696644  46.1383220
  20.5299992  29.2389978  50.0380014  20.7149992  29.1569978  49.1020014
  21.3799992  29.1149978  50.4610014  20.6700928  29.2110463  49.9672893
  36.3509992  29.1309978  55.6660014  36.9339992  28.3959978  55.8580014
  36.9149992  29.9029978  55.7130014  36.5069781  29.1348145  55.6986164
  37.8479992  27.0339978  56.3510014  36.9849992  26.6549978  56.1850014
  38.4519992  26.2949978  56.2760014  37.8116085  26.8823223  56.3181695
  35.5729992  23.1879978  39.5240014  36.1839992  22.8169978  40.1610014
  34.7359992  22.7669978  39.7200014  35.5434947  23.0802756  39.6377252
  35.2059992  24.7429978  44.4900014  35.4849992  23.8359978  44.6140014
  35.9649992  25.1769978  44.1010014  35.3468619  24.6774502  44.4543795
  35.8169992  25.3249978  49.9260014  36.7499992  25.5369978  49.8910014
  35.5819992  25.4259978  50.8480014  35.9129517  25.3676833  50.0459130
  35.8469992  26.0619978  52.7020014  35.0039992  26.3299978  53.0680014
  36.2889992  26.8839978  52.4910014  35.7914138  26.2098273  52.7235518
  20.1279992  24.5089978  56.1780014  21.0469992  24.3869978  56.4150014
  19.6779992  23.7589978  56.5680014  20.1930087  24.3909608  56.2631410
  38.1299992  20.0419978  58.0550014  38.4789992  19.3879978  57.4500014
  38.2769992  20.8789978  57.6150014  38.1976824  20.0656024  57.9126304
  35.8189992  22.0059978  44.5380014  36.0009992  21.5569978  45.3630014
  35.2189992  21.4219978  44.0740014  35.7628187  21.8655552  44.5882739
  21.3489992  22.8219978  49.0700014  21.7939992  22.0299978  49.3720014
  21.8149992  23.5379978  49.5000014  21.4729718  22.8104534  49.1695265
  19.6529992  25.8209978  50.1390014  20.1449992  25.5999978  49.3480014
  20.0149992  26.6609978  50.4200014  19.7692923  25.9043468  50.0687407
  37.6489992  22.1509978  56.4040014  36.7319992  22.4219978  56.3690014
  37.7719992  21.6159978  55.6200014  37.5399672  22.1157885  56.2931862
  37.6859992  22.0739978  41.0660014  38.0979992  21.3529978  40.5910014
  38.3669992  22.7429978  41.1240014  37.8345536  22.0657766  41.0088024
  19.9669992  22.0789978  44.1930014  19.0419992  22.2869978  44.0640014
  20.4209992  22.5629978  43.5030014  19.9016298  22.1729299  44.0820451
  34.7369992  37.0629978  46.1390014  35.3899992  36.7149978  45.5310014
  35.2479992  37.5509978  46.7850014  34.8952777  37.0813815  46.1432047
  19.9299992  20.8169978  52.5370014  19.2649992  20.5709978  53.1800014
  19.4869992  21.4389978  51.9600014  19.7791168  20.8674214  52.5469848
  22.1219992  33.9919978  56.6820014  21.3009992  34.1669978  56.2210014
  21.8699992  33.9189978  57.6020014  21.9755594  34.0060717  56.7433611
  25.0759992  34.9659978  52.9400014  24.6519992  35.7759978  52.6580014
  25.9809992  35.0519978  52.6380014  25.1402138  35.0884160  52.8606415
  29.3879992  36.3649978  55.9000014  29.5719992  36.0319978  56.7780014
  30.2339992  36.6749978  55.5780014  29.5276484  36.3612979  55.9767617
  31.7329992  37.6509978  55.1440014  32.4099992  37.0179978  54.9040014
  32.0539992  38.0519978  55.9510014  31.8691323  37.6185691  55.2203158
  36.6499992  20.2409978  54.2230014  35.8369992  20.5659978  53.8360014
  36.8829992  19.4799978  53.6900014  36.5701347  20.1826880  54.0979841
  22.4779992  38.2229978  52.9880014  21.7579992  38.6629978  52.5370014
  22.1129992  37.9719978  53.8360014  22.3299643  38.2493369  53.0409129
  24.9449992  37.8229978  52.0180014  24.0809992  37.8949978  52.4220014
  24.8899992  38.3699978  51.2340014  24.8191942  37.9067849  51.9674000
  29.6559992  37.7109978  51.1930014  29.1989992  38.2399978  50.5390014
  29.8189992  38.3139978  51.9180014  29.6154960  37.8649280  51.2015274
  31.9839992  36.5889978  52.1380014  31.0789992  36.7539978  51.8720014
  32.4119992  37.4419978  52.0720014  31.9181537  36.7269134  52.0927095
  34.5879992  38.1589978  52.4330014  34.4059992  39.0749978  52.2220014
  34.7649992  37.7479978  51.5860014  34.5870030  38.2288273  52.2897166
  21.8929992  36.8459978  49.8980014  21.8749992  36.4199978  50.7550014
  22.6979992  36.5269978  49.4890014  21.9992875  36.7446435  49.9599515
  24.0339992  35.5559978  48.5530014  23.8149992  34.6389978  48.7230014
  24.8579992  35.6959978  49.0190014  24.1154702  35.4495511  48.6392527
  26.5709992  36.0259978  49.4020014  26.7839992  35.1379978  49.1150014
  26.6359992  35.9909978  50.3560014  26.6089149  35.8998326  49.4917369
  30.0799992  21.6899978  48.5460014  29.4059992  21.0599978  48.8020014
  30.6439992  21.2059978  47.9430014  30.0640384  21.5383708  48.4995020
  35.2229992  19.7969978  48.6590014  35.8259992  20.3449978  48.1570014
  34.3529992  20.1159978  48.4180014  35.1879157  19.9150373  48.5577910
  36.9499992  20.9359978  46.9920014  37.5609992  20.4219978  46.4650014
  37.3319992  21.8129978  47.0150014  37.0853305  20.9842050  46.9229418
  22.4069992  20.3239978  46.3680014  21.6299992  20.0889978  45.8610014
  22.9369992  19.5269978  46.3770014  22.3723451  20.1841268  46.2998627
  21.2429992  20.1219978  42.1720014  21.6819992  20.7329978  41.5800014
  20.6089992  20.6599978  42.6460014  21.2173859  20.2784064  42.1550305
  26.9859992  20.2499978  46.1810014  27.8599992  20.6389978  46.1520014
  26.8499992  20.0349978  47.1040014  27.0871953  20.2741643  46.3017617
  32.5429992  20.2799978  47.8310014  32.6189992  20.3759978  46.8810014
  32.2679992  19.3729978  47.9590014  32.5161871  20.1704146  47.7183944
  33.8959992  20.3059978  43.5230014  33.1929992  20.9209978  43.3130014
  33.4509992  19.4689978  43.6540014  33.7396550  20.2769668  43.5119837
  21.1439992  36.0699978  43.0690014  20.4589992  36.0319978  42.4020014
  21.1479992  36.9829978  43.3570014  21.0507621  36.1881924  43.0166126
  23.1039992  22.0379978  40.6140014  23.5949992  21.4079978  40.0870014
  23.7269992  22.3339978  41.2770014  23.2555304  21.9917376  40.6314940
  28.1299992  22.3309978  43.0710014  28.3079992  21.6839978  43.7540014
  28.0759992  23.1649978  43.5380014  28.1470678  22.3551604  43.2276301
  30.0079992  37.2789978  41.4670014  30.8739992  37.6459978  41.2890014
  29.7619992  36.8399978  40.6530014  30.0932097  37.2698525  41.3326019
  36.7169992  36.8419978  44.1460014  36.5229992  36.0939978  43.5810014
  36.6779992  37.5999978  43.5630014  36.6851645  36.8420786  43.9898148
  22.3639992  20.8379978  55.8860014  21.9979992  20.0719978  56.3280014
  23.2769992  20.8669978  56.1720014  22.4373172  20.7370324  55.9851890
  24.3369992  20.1879978  57.4210014  25.2359992  19.9139978  57.2370014
  23.9509992  19.4459978  57.8860014  24.4077307  20.0502196  57.4587098
  22.9619992  36.9899978  40.0940014  22.6939992  37.2759978  40.9680014
  23.7329992  36.4439978  40.2470014  23.0295926  36.9552779  40.2341205
  32.7589992  19.5209978  57.6040014  32.8349992  19.0949978  58.4570014
  33.6519992  19.5339978  57.2610014  32.8902303  19.4643493  57.6745497
  35.9349992  35.5939978  56.2960014  35.1529992  35.4069978  55.7760014
  35.8629992  36.5229978  56.5130014  35.8181924  35.6940637  56.2541602
  50.3409992  29.4799978  46.3270014  50.4299992  30.4239978  46.1950014
  49.7029992  29.2049978  45.6690014  50.2669062  29.5719812  46.2199641
  49.2739992  28.7349978  49.7460014  49.2359992  28.0889978  50.4510014
  48.9519992  28.2679978  48.9750014  49.2252679  28.5834276  49.7382921
  41.6419992  28.3489978  51.3390014  41.6839992  27.7239978  52.0620014
  42.3449992  28.9729978  51.5210014  41.7427345  28.3477873  51.4625274
  52.9799992  31.6739978  48.0470014  52.5389992  30.9539978  48.4980014
  52.9669992  32.3949978  48.6770014  52.9179215  31.6729291  48.1938105
  42.5659992  32.7989978  49.8740014  42.1959992  31.9969978  49.5040014
  43.5069992  32.6309978  49.9200014  42.6425984  32.6664638  49.8295603
  39.1759992  26.4589978  45.2660014  38.7279992  27.3049978  45.2480014
  38.6149992  25.8799978  44.7510014  39.0388546  26.4963993  45.1938891
  39.8859992  28.6209978  47.3920014  40.0999992  27.8509978  47.9200014
  40.6239992  28.7109978  46.7890014  40.0150200  28.5278586  47.3827035
  50.0919992  36.7779978  48.2590014  50.7109992  36.1019978  47.9860014
  49.8829992  36.5599978  49.1680014  50.1486056  36.6558869  48.3443967
  47.6629992  31.1669978  50.1520014  47.9669992  30.4809978  49.5570014
  48.3849992  31.2859978  50.7700014  47.8021240  31.0892314  50.1540959
  56.3259992  22.7689978  51.0120014  56.3759992  23.3789978  51.7480014
  56.7519992  23.2299978  50.2890014  56.3904108  22.9147709  51.0150112
  50.8039992  25.5609978  50.4790014  50.9469992  24.6149978  50.4990014
  50.6979992  25.7679978  49.5510014  50.8092403  25.4594797  50.3562239
  43.9589992  23.6629978  47.7520014  44.0019992  24.5229978  47.3330014
  43.5009992  23.1109978  47.1180014  43.9029871  23.7059245  47.6090761
  51.6809992  23.7939978  46.1530014  52.3279992  23.4649978  46.7770014
  52.1909992  24.3109978  45.5300014  51.8384351  23.8189067  46.1541037
  40.5789992  26.0599978  48.5140014  41.2329992  25.5099978  48.9460014
  40.6029992  25.7859978  47.5970014  40.6717199  25.9477167  48.4491668
  45.7359992  27.6099978  47.7290014  46.3519992  27.0829978  48.2380014
  45.1489992  26.9699978  47.3250014  45.7410154  27.4513954  47.7440945
  56.7179992  24.2469978  53.2480014  56.0289992  24.9049978  53.1530014
  56.7329992  24.0489978  54.1850014  56.6257756  24.3102603  53.3615812
  42.7689992  22.5809978  51.8260014  42.5499992  23.1109978  51.0590014
  42.1009992  22.8069978  52.4730014  42.6486975  22.6840967  51.8085140
  50.1379992  32.0809978  45.3700014  49.8429992  31.7579978  44.5180014
  49.8139992  32.9809978  45.4110014  50.0538460  32.1584464  45.2589714
  45.3379992  30.2559978  52.1130014  44.5979992  30.8549978  52.2170014
  46.0519992  30.8099978  51.7980014  45.3333500  30.4127829  52.0846371
  53.4449992  23.0849978  48.1330014  53.2299992  22.3189978  48.6660014
  54.1009992  23.5569978  48.6460014  53.5042673  23.0440728  48.2751990
  42.3629992  24.4729978  49.7780014  42.9769992  25.1059978  50.1510014
  42.8749992  24.0009978  49.1220014  42.5161962  24.4957249  49.7402935
  43.7459992  32.2209978  52.9000014  43.7399992  33.0999978  52.5220014
  42.8919992  32.1369978  53.3250014  43.6297925  32.3299535  52.9056887
  39.8669992  31.8919978  43.6820014  39.5949992  32.1209978  42.7940014
  39.9119992  32.7289978  44.1430014  39.8358097  32.0366163  43.6226683
  53.4919992  33.5129978  50.3950014  52.5499992  33.5719978  50.5570014
  53.7679992  34.4189978  50.2580014  53.4005865  33.6435288  50.3986192
  53.7919992  21.7999978  51.8120014  53.0559992  22.4099978  51.7750014
  54.4759992  22.2149978  51.2860014  53.7835367  21.9397551  51.7358174
  46.7959992  19.8859978  49.2780014  46.6779992  18.9379978  49.2240014
  45.9409992  20.2189978  49.5510014  46.6642805  19.8012202  49.3075079
  51.7439992  35.2939978  47.0200014  52.1689992  34.5869978  46.5350014
  52.0609992  36.0959978  46.6030014  51.8450266  35.3055190  46.8972479
  52.9039992  33.1949978  45.5290014  52.6459992  32.5049978  44.9170014
  52.9749992  32.7519978  46.3740014  52.8783050  33.0406814  45.5595621
  54.5899992  31.7619978  54.0060014  54.7289992  31.1699978  53.2670014
  54.7569992  32.6349978  53.6500014  54.6316193  31.7988896  53.8566211
  49.0619992  28.7239978  43.7790014  48.3509992  29.2589978  43.4270014
  49.7529992  28.7789978  43.1190014  49.0580751  28.8046777  43.6415858
  49.1159992  27.1809978  40.8170014  49.8169992  27.2039978  41.4690014
  49.4179992  26.5529978  40.1610014  49.2528202  27.0992212  40.8175609
  56.4309992  28.1019978  52.0720014  55.7789992  28.7959978  52.1610014
  56.8969992  28.3119978  51.2620014  56.4045937  28.2255019  51.9747533
  52.4679992  28.9329978  44.7300014  51.7359992  29.1619978  45.3040014
  52.9149992  28.2199978  45.1850014  52.4283963  28.8678729  44.8699945
  52.3649992  27.1079978  53.7980014  52.4449992  27.8709978  54.3700014
  51.7639992  27.3869978  53.1080014  52.2946547  27.2502457  53.7830047
  44.1129992  29.5639978  46.6130014  43.7829992  29.1929978  45.7950014
  44.7019992  28.8929978  46.9600014  44.1473970  29.4226063  46.5479404
  45.4799992  32.9919978  49.2940014  45.3849992  32.4129978  48.5380014
  46.2089992  32.6209978  49.7900014  45.5656011  32.8625561  49.2576028
  44.4799992  28.3319978  50.2460014  45.0449992  28.4539978  49.4840014
  44.7989992  28.9699978  50.8850014  44.6004166  28.4348791  50.2280348
  50.7889992  33.8359978  50.9800014  50.5489992  34.4979978  51.6280014
  50.5909992  33.0009978  51.4050014  50.7293826  33.8138115  51.1261566
  45.3599992  32.7319978  54.9640014  45.0489992  33.5139978  55.4190014
  44.7099992  32.5789978  54.2780014  45.2295538  32.8184087  54.9335898
  51.3389992  28.0959978  42.4160014  51.9179992  28.2459978  43.1620014
  51.7529992  28.5659978  41.6920014  51.4743358  28.1800954  42.4203953
  42.2799992  28.9299978  54.1920014  42.3499992  29.5809978  54.8910014
  41.3889992  29.0329978  53.8570014  42.1691690  29.0329249  54.2423043
  49.0649992  34.8319978  45.8510014  49.5389992  35.1279978  46.6280014
  48.5019992  35.5709978  45.6180014  49.0537890  34.9723036  45.9258101
  43.5989992  34.8029978  55.7270014  43.6069992  34.6669978  54.7800014
  42.6829992  34.6859978  55.9790014  43.4762528  34.7685463  55.6313243
  55.0379992  19.8459978  42.2290014  54.1379992  19.9849978  42.5240014
  55.2899992  20.6769978  41.8270014  54.9488683  19.9774055  42.2150232
  43.1039992  28.6329978  44.2020014  42.8119992  29.4009978  43.7110014
  42.4289992  27.9739978  44.0390014  42.9728497  28.6489745  44.1128260
  56.2269992  34.2119978  40.6050014  56.2999992  35.1509978  40.7750014
  57.1319992  33.9069978  40.5490014  56.3594170  34.2993282  40.6207063
  39.1969992  30.9959978  53.0170014  38.6949992  30.9679978  52.2020014
  39.2019992  30.0909978  53.3270014  39.1289832  30.8697486  52.9474121
  38.9469992  33.7769978  49.9010014  39.8929992  33.6319978  49.8820014
  38.8339992  34.5609978  50.4380014  39.0613578  33.8631697  49.9710317
  57.1449992  34.4429978  55.5840014  57.0949992  33.4869978  55.5460014
  56.3179992  34.7099978  55.9850014  57.0263831  34.3484680  55.6330121
  48.1229992  34.0169978  54.4600014  48.2109992  34.8429978  54.9350014
  47.2599992  33.6869978  54.7090014  48.0183357  34.0855468  54.5587653
  48.5379992  37.7889978  44.2660014  48.4619992  37.6679978  43.3190014
  48.5699992  38.7379978  44.3840014  48.5319380  37.9007677  44.1525181
  42.1909992  36.5779978  46.0470014  42.3429992  36.2299978  46.9250014
  41.3399992  36.2209978  45.7910014  42.0968344  36.4820879  46.1326868
  51.6389992  36.9429978  41.2680014  52.0139992  36.1989978  40.7970014
  51.6439992  36.6729978  42.1860014  51.6910098  36.8046392  41.3276629
  51.3079992  36.8689978  44.0170014  50.3729992  36.9689978  44.1960014
  51.5879992  36.1589978  44.5960014  51.2179471  36.7867933  44.1196695
  54.2969992  25.9359978  56.0640014  53.8889992  26.4159978  55.3430014
  54.3369992  25.0299978  55.7560014  54.2466221  25.8792449  55.9238267
  41.4459992  32.3199978  54.0600014  41.6619992  31.9579978  54.9200014
  40.5899992  31.9449978  53.8510014  41.3598810  32.2198837  54.1492680
  44.0639992  20.7899978  50.0560014  43.2029992  20.7029978  49.6480014
  44.0419992  21.6459978  50.4840014  43.9430491  20.8938003  50.0579582
  48.7269992  20.5119978  53.4310014  49.1469992  20.0969978  54.1840014
  47.7939992  20.3329978  53.5480014  48.6583736  20.4309910  53.5498968
  52.0539992  24.2669978  54.2840014  51.5399992  24.1419978  55.0820014
  51.8979992  25.1799978  54.0400014  51.9626967  24.3732123  54.3600937
  52.8159992  29.1279978  40.0450014  52.8579992  28.9059978  39.1150014
  53.6649992  29.5269978  40.2350014  52.9365253  29.1515498  39.9433822
  48.3889992  23.0039978  40.7160014  48.1349992  23.0229978  41.6380014
  48.1319992  22.1329978  40.4140014  48.3194508  22.8888280  40.8014803
  44.1549992  25.7549978  51.1510014  43.5139992  25.7149978  51.8600014
  44.1929992  26.6819978  50.9130014  44.0723010  25.8747668  51.2159946
  44.1519992  25.9759978  46.0630014  43.2599992  25.6359978  46.0040014
  44.6029992  25.5989978  45.3070014  44.0907642  25.8784910  45.9527726
  49.6879992  26.3919978  44.8800014  49.2789992  27.2069978  44.5880014
  50.4079992  26.2519978  44.2660014  49.7294439  26.4845372  44.7570115
  48.7899992  26.5679978  56.3680014  48.2269992  25.8629978  56.6890014
  49.6159992  26.4469978  56.8360014  48.8246674  26.4552165  56.4751751
  50.6929992  25.8379978  47.6940014  50.4969992  26.4439978  46.9790014
  50.8739992  25.0049978  47.2600014  50.6906584  25.8082513  47.5374212
  41.9049992  26.0759978  53.0180014  41.8669992  26.4759978  53.8870014
  41.4149992  25.2589978  53.1080014  41.8335330  26.0202674  53.1491289
  45.2709992  23.4499978  39.8170014  44.8399992  23.0049978  40.5460014
  44.5529992  23.8209978  39.3040014  45.1149176  23.4392051  39.8474930
  38.5139992  23.1919978  46.8690014  39.1439992  23.1629978  47.5880014
  38.9629992  22.7669978  46.1380014  38.6610835  23.1305660  46.8687659
  39.7879992  23.9379978  42.2930014  40.2619992  24.5289978  41.7080014
  39.0699992  24.4679978  42.6400014  39.7558640  24.0905511  42.2597969
  49.9569992  27.4759978  52.3650014  50.2799992  26.8449978  51.7220014
  49.5159992  26.9419978  53.0260014  49.9416379  27.3173468  52.3662582
  46.7339992  23.4039978  47.1490014  45.8229992  23.4609978  47.4380014
  47.2389992  23.3439978  47.9600014  46.6776873  23.4036826  47.2981207
  41.5619992  25.0329978  45.9760014  40.6729992  25.1319978  45.6360014
  41.8589992  24.1909978  45.6300014  41.4804177  24.9327687  45.8826940
  45.2149992  25.0329978  43.6330014  46.1469992  25.1619978  43.8110014
  44.9999992  25.7019978  42.9830014  45.3134472  25.1410806  43.5694891
  51.1389992  22.6389978  50.4140014  50.4619992  22.7699978  51.0770014
  50.6539992  22.4839978  49.6030014  50.9807405  22.6359947  50.3952170
  43.8889992  26.2269978  41.1990014  43.3469992  25.8479978  40.5080014
  44.7229992  26.4219978  40.7710014  43.9274390  26.2014079  41.0464392
  54.4269992  38.3099978  56.6900014  54.6259992  38.7339978  55.8560014
  55.0819992  38.6539978  57.2970014  54.5428522  38.4146301  56.6577852
  42.0249992  30.7839978  56.2980014  42.7569992  31.0389978  56.8600014
  41.2439992  30.9889978  56.8140014  42.0196526  30.8465450  56.4445176
  48.0539992  26.1909978  49.0360014  48.6179992  25.6449978  48.4890014
  47.9059992  25.6699978  49.8250014  48.1113037  26.0456787  49.0677229
  43.0559992  22.3279978  45.4550014  42.7389992  21.4249978  45.4190014
  43.8369992  22.3299978  44.9020014  43.1182431  22.2047797  45.3753102
  46.6799992  24.5799978  51.4500014  45.8449992  25.0339978  51.5610014
  47.2039992  24.8559978  52.2020014  46.6366072  24.6793948  51.5668136
  47.2249992  30.7929978  43.1350014  46.4799992  30.2849978  42.8130014
  47.0899992  30.8419978  44.0810014  47.1048963  30.7301731  43.2188826
  54.3749992  29.9259978  51.9220014  55.0159992  30.3819978  51.3780014
  53.5439992  30.0389978  51.4590014  54.3505287  30.0036921  51.7849887
  51.1219992  23.6069978  41.3340014  50.1839992  23.7179978  41.1830014
  51.4199992  24.4629978  41.6410014  51.0336318  23.7380158  41.3548145
  48.7439992  30.9769978  54.3720014  48.3979992  30.5949978  55.1790014
  48.5439992  31.9099978  54.4430014  48.6695987  31.0509002  54.4920461
  51.8409992  25.4739978  42.9950014  52.7329992  25.3359978  43.3140014
  51.8969992  26.2649978  42.4580014  51.9707325  25.5619918  42.9661217
  42.3489992  30.0879978  48.9050014  43.0939992  30.0849978  48.3030014
  42.4269992  29.2639978  49.3860014  42.4613365  29.9762384  48.8877430
  49.3499992  32.2509978  42.1600014  49.0549992  33.0779978  42.5420014
  48.6469992  31.6319978  42.3570014  49.2146379  32.2804171  42.2388654
  39.3569992  28.5479978  54.2200014  39.5799992  28.1299978  55.0510014
  38.7549992  27.9359978  53.7970014  39.3061513  28.4079606  54.2766740
  46.3739992  28.0649978  56.4330014  46.0779992  27.8999978  55.5370014
  47.3049992  27.8449978  56.4220014  46.4594401  28.0126879  56.3090206
  50.9939992  33.4389978  54.3220014  50.0939992  33.6219978  54.0550014
  51.0279992  33.6979978  55.2430014  50.8753748  33.4990554  54.4099164
  56.7259992  25.6829978  42.6900014  56.1709992  25.2869978  42.0170014
  56.8259992  26.5939978  42.4120014  56.6636816  25.7519505  42.5605033
  56.6889992  31.4839978  55.5270014  55.8379992  31.7219978  55.1590014
  57.2789992  31.4669978  54.7740014  56.6523812  31.5142524  55.3748453
  55.0209992  34.4689978  43.1550014  54.6479992  33.6439978  43.4640014
  55.2979992  34.2859978  42.2570014  55.0073463  34.3312569  43.0759525
  52.1809992  29.2769978  50.1760014  51.2529992  29.0459978  50.1490014
  52.6319992  28.4999978  49.8460014  52.1148165  29.1402774  50.1276790
  44.7239992  33.6059978  46.3090014  45.2519992  34.3789978  46.1090014
  43.8439992  33.8299978  46.0070014  44.6773435  33.7422700  46.2407310
  40.4789992  28.4679978  40.8960014  41.0949992  29.0949978  41.2760014
  39.6169992  28.7839978  41.1680014  40.4467678  28.5964412  40.9847209
  46.1519992  31.2689978  45.8850014  45.9109992  32.1939978  45.9270014
  45.4109992  30.8099978  46.2820014  46.0189206  31.3335915  45.9443769
  46.6659992  35.4179978  52.2000014  47.0289992  36.2719978  51.9670014
  47.1979992  35.1259978  52.9410014  46.7875141  35.4953895  52.2682097
  44.8349992  36.2899978  45.4310014  43.8849992  36.3959978  45.4820014
  45.1869992  37.1109978  45.7750014  44.7525472  36.4154923  45.4844852
  50.2099992  31.5169978  51.9010014  49.7849992  31.2889978  52.7270014
  50.7909992  30.7779978  51.7190014  50.2303395  31.3859545  51.9894414
  52.4129992  32.4459978  40.9750014  52.7669992  32.0659978  41.7790014
  51.4649992  32.3519978  41.0620014  52.3332298  32.3812452  41.0968687
  52.8689992  36.0689978  54.3700014  52.2669992  35.5129978  53.8750014
  53.1499992  36.7359978  53.7440014  52.8245757  36.0830744  54.2175675
  56.9169992  36.9249978  41.1760014  57.6609992  37.5109978  41.0360014
  56.2229992  37.4939978  41.5090014  56.9249809  37.0820818  41.2018590
  40.9909992  23.3019978  53.7780014  40.0989992  23.6399978  53.7100014
  40.8929992  22.4459978  54.1960014  40.8554475  23.2326543  53.8251704
  53.2789992  31.1179978  43.2020014  53.0019992  30.3899978  43.7580014
  54.2069992  31.2369978  43.4070014  53.3664499  31.0344213  43.3058044
  40.6429992  35.1059978  52.2130014  40.8599992  34.1739978  52.1820014
  40.8889992  35.3809978  53.0960014  40.7059809  35.0155686  52.3281690
  46.5039992  33.5579978  39.4220014  46.7429992  32.8089978  38.8750014
  46.2349992  33.1699978  40.2550014  46.5003233  33.4031853  39.4597809
  45.4409992  33.1279978  41.8780014  45.5879992  32.6079978  42.6680014
  45.4379992  34.0349978  42.1850014  45.4607102  33.1793953  42.0275925
  41.8939992  30.3799978  42.3890014  41.2079992  30.7329978  42.9560014
  42.4169992  31.1429978  42.1420014  41.8708402  30.5313901  42.4331801
  49.7259992  23.0429978  52.6680014  50.4249992  23.1169978  53.3180014
  49.3449992  22.1779978  52.8220014  49.7702097  22.9362389  52.7777997
  50.5099992  22.6949978  43.7650014  50.7299992  23.1659978  42.9610014
  51.0689992  23.0889978  44.4350014  50.6156731  22.8127287  43.7455033
  48.1789992  34.8249978  42.6280014  47.3619992  35.3219978  42.6800014
  48.7079992  35.3009978  41.9870014  48.1388125  34.9571989  42.5485306
  47.7099992  24.4229978  44.6000014  48.5219992  24.9269978  44.6460014
  47.4659992  24.2779978  45.5140014  47.7881467  24.4723749  44.7298575
  48.2459992  25.4089978  53.7840014  48.3649992  25.9829978  54.5410014
  48.9009992  24.7209978  53.8990014  48.3508684  25.3945194  53.9031674
  48.5939992  21.5039978  45.5380014  48.2469992  22.1209978  46.1820014
  49.2529992  22.0049978  45.0560014  48.6355090  21.6561575  45.5610681
  45.5169992  35.8689978  42.6090014  45.6779992  36.6689978  42.1090014
  45.3199992  36.1759978  43.4940014  45.5123906  36.0198678  42.6602333
  44.2519992  22.5669978  42.2250014  44.1679992  23.4549978  42.5720014
  45.1419992  22.3019978  42.4570014  44.3608163  22.6527179  42.3038596
  54.4499992  23.3159978  54.6190014  53.5339992  23.5779978  54.5320014
  54.7859992  23.3129978  53.7230014  54.3698499  23.3515163  54.4858766
  53.0529992  27.0659978  48.7150014  52.2549992  26.6509978  48.3870014
  53.4979992  26.3759978  49.2060014  53.0039684  26.9158628  48.7365227
  42.5099992  32.9939978  41.2850014  43.1019992  33.6939978  41.5620014
  42.9689992  32.5609978  40.5660014  42.6531652  33.0312675  41.2256533
  40.8259992  25.6589978  40.4010014  40.7809992  26.5979978  40.5800014
  39.9379992  25.4229978  40.1320014  40.6998166  25.7556687  40.3891524
  54.1389992  36.3219978  50.3370014  53.9829992  37.0009978  49.6800014
  55.0719992  36.3939978  50.5400014  54.2437387  36.4246390  50.2745342
  41.6339992  20.4399978  49.0750014  41.4049992  20.4989978  48.1470014
  41.1919992  19.6489978  49.3810014  41.5428801  20.3410540  48.9894729
  40.5649992  34.3809978  45.2350014  39.7319992  34.8529978  45.2620014
  41.1099992  34.8909978  44.6360014  40.5247857  34.5144791  45.1577142
  39.8529992  36.9929978  56.5650014  40.3929992  36.7769978  57.3250014
  39.3719992  36.1879978  56.3750014  39.8619219  36.8545156  56.6434282
  44.4499992  35.9129978  58.1850014  45.2179992  35.4539978  58.5260014
  44.4289992  35.6869978  57.2550014  44.5522135  35.8196668  58.1059491
  48.5419992  35.4209978  39.5610014  47.8979992  34.7899978  39.8820014
  49.3039992  34.8899978  39.3290014  48.5568058  35.2627902  39.5736038
  51.0269992  34.2929978  56.9140014  50.6759992  33.4359978  57.1580014
  51.7529992  34.4349978  57.5210014  51.0771895  34.1951351  57.0293770
  53.1469992  35.2379978  39.7940014  53.4299992  34.4429978  40.2470014
  53.8859992  35.4709978  39.2330014  53.2857096  35.1607049  39.7801104
  39.7599992  30.8039978  57.5190014  39.9039992  29.9019978  57.2330014
  38.9879992  31.0899978  57.0320014  39.6752733  30.7191798  57.4139532
  44.1009992  31.1469978  39.6520014  44.1659992  30.3529978  40.1820014
  44.7539992  31.0289978  38.9620014  44.1981605  31.0223430  39.6312997
  46.4149992  30.7729978  56.9520014  46.0869992  31.0439978  56.0950014
  46.5669992  29.8319978  56.8640014  46.3906412  30.6829046  56.8227822
  49.4539992  32.1939978  39.3880014  49.1849992  32.3749978  40.2880014
  49.2469992  31.2689978  39.2560014  49.3891191  32.0937119  39.4935524
  52.1499992  30.6889978  54.3350014  52.8949992  31.2779978  54.2160014
  51.3929992  31.2709978  54.3990014  52.1495470  30.8482128  54.3273799
  40.5929992  28.0039978  56.9390014  41.0009992  27.1469978  56.8180014
  40.3319992  28.0179978  57.8600014  40.6136016  27.8885119  57.0469192
  45.2509992  29.1199978  41.9580014  44.7909992  28.6359978  42.6430014
  45.5059992  28.4509978  41.3220014  45.2224856  28.9633669  41.9658397
  44.5399992  27.0129978  54.3140014  43.9209992  27.6869978  54.5940014
  44.8839992  27.3339978  53.4800014  44.5017123  27.1486887  54.2396388
  46.3219992  27.3629978  40.2200014  46.1409992  27.2079978  39.2930014
  47.2719992  27.4709978  40.2650014  46.4256566  27.3563669  40.0990929
  49.5589992  29.4839978  57.5910014  50.5129992  29.5679978  57.5640014
  49.3989992  28.7719978  58.2110014  49.6677182  29.3992842  57.6710733
  55.7119992  29.7169978  39.6660014  55.4379992  29.2929978  38.8530014
  55.7509992  30.6489978  39.4490014  55.6797716  29.7848827  39.5254286
  44.8789992  24.3679978  55.3960014  45.0289992  23.6389978  54.7940014
  44.8809992  25.1449978  54.8370014  44.8997967  24.3732708  55.2380541
  45.2919992  22.7369978  52.8890014  45.8269992  23.1889978  52.2370014
  44.4389992  22.6289978  52.4660014  45.2500374  22.7842665  52.7426710
  46.8729992  28.1769978  53.1280014  47.6239992  28.0209978  52.5550014
  46.5339992  29.0289978  52.8530014  46.9299587  28.2708138  53.0124078
  51.2889992  25.9919978  58.1570014  51.4809992  25.0609978  58.0450014
  52.1469992  26.4169978  58.1460014  51.4312182  25.9220070  58.1401862
  52.6059992  28.7809978  56.2340014  52.3239992  29.4899978  55.6560014
  53.5479992  28.7079978  56.0830014  52.6947921  28.8682193  56.1344225
  43.3579992  25.5659978  57.3070014  42.5899992  25.0329978  57.0970014
  44.0359992  25.2559978  56.7080014  43.3447235  25.4511754  57.1972413
  46.0969992  20.1939978  53.3200014  45.9989992  21.1399978  53.2150014
  45.3549992  19.8209978  52.8440014  45.9832534  20.2731773  53.2412600
  47.3609992  24.5149978  56.8840014  47.1259992  24.2959978  57.7850014
  46.5779992  24.3079978  56.3740014  47.2229095  24.4569892  56.9385353
  50.0769992  23.6429978  55.9590014  49.1289992  23.6749978  56.0910014
  50.3889992  23.0169978  56.6130014  49.9895293  23.5627923  56.0654148
  51.7109992  22.2769978  57.9640014  51.6139992  21.3249978  57.9590014
  51.3889992  22.5449978  58.8250014  51.6542468  22.1830884  58.0796210
  41.5379992  23.4859978  57.0120014  41.7499992  22.7799978  56.4020014
  41.4269992  23.0489978  57.8560014  41.5520269  23.3301921  57.0425873
  46.3189992  19.4879978  55.9910014  47.0309992  18.8479978  55.9770014
  46.2179992  19.7539978  55.0780014  46.4027387  19.4364330  55.8655563
  46.6729992  21.1699978  58.0450014  46.5409992  20.6949978  57.2250014
  46.0729992  21.9149978  57.9900014  46.5739070  21.2055789  57.9253251
  46.2189992  38.0529978  41.2210014  47.1519992  38.2109978  41.3650014
  45.9549992  38.7289978  40.5960014  46.3109911  38.1659373  41.1562722
  39.7869992  32.6899978  40.7040014  40.7009992  32.7689978  40.9770014
  39.7949992  32.0029978  40.0380014  39.9130655  32.6079205  40.6512917
  38.4359992  38.0829978  45.7810014  37.7889992  37.6209978  45.2490014
  38.7909992  37.4109978  46.3640014  38.3953741  37.9289774  45.7869175
  39.3059992  36.1629978  47.5860014  38.9719992  35.2829978  47.7580014
  39.5289992  36.5089978  48.4510014  39.2903721  36.0891938  47.7264168
  56.8549992  36.9729978  50.5670014  56.8329992  37.1579978  51.5060014
  57.5449992  37.5409978  50.2260014  56.9453439  37.0751887  50.6494791
  56.4179992  36.5399978  53.4880014  55.9309992  35.8049978  53.1170014
  56.9669992  36.1459978  54.1660014  56.4255247  36.3861057  53.5288461
  54.8689992  32.3299978  58.1270014  54.0029992  32.2249978  58.5210014
  55.2449992  33.0879978  58.5730014  54.8013401  32.4181708  58.2412620
  56.1699992  30.5859978  43.6410014  57.0199992  31.0069978  43.7680014
  56.1749992  29.8459978  44.2480014  56.2871143  30.5436094  43.7404750
  56.5639992  28.6399978  45.4640014  55.8379992  28.1599978  45.8620014
  57.1459992  28.8449978  46.1970014  56.5432730  28.6020184  45.6174149
  56.3229992  31.4249978  50.4120014  57.1569992  31.0469978  50.1310014
  56.4349992  32.3679978  50.2930014  56.4521917  31.5007943  50.3574861
  54.8099992  34.3029978  52.7190014  54.1619992  34.6279978  53.3440014
  54.2919992  33.8619978  52.0450014  54.6514196  34.2878651  52.7134152
  56.8329992  28.5409978  41.8550014  56.3109992  28.8969978  41.1370014
  56.7999992  29.2159978  42.5340014  56.7570129  28.6809598  41.8483355
  55.1819992  25.7799978  40.4060014  55.2779992  26.4469978  39.7260014
  55.0419992  24.9649978  39.9250014  55.1762040  25.7610671  40.2478378
  54.3509992  27.1609978  46.0270014  54.2009992  26.2159978  46.0070014
  53.9969992  27.4419978  46.8710014  54.2826351  27.0696644  46.1383220
  39.3859992  29.2389978  50.0380014  39.5709992  29.1569978  49.1020014
  40.2359992  29.1149978  50.4610014  39.5260928  29.2110463  49.9672893
  55.2069992  29.1309978  55.6660014  55.7899992  28.3959978  55.8580014
  55.7709992  29.9029978  55.7130014  55.3629781  29.1348145  55.6986164
  56.7039992  27.0339978  56.3510014  55.8409992  26.6549978  56.1850014
  57.3079992  26.2949978  56.2760014  56.6676085  26.8823223  56.3181695
  54.4289992  23.1879978  39.5240014  55.0399992  22.8169978  40.1610014
  53.5919992  22.7669978  39.7200014  54.3994947  23.0802756  39.6377252
  54.0619992  24.7429978  44.4900014  54.3409992  23.8359978  44.6140014
  54.8209992  25.1769978  44.1010014  54.2028619  24.6774502  44.4543795
  54.6729992  25.3249978  49.9260014  55.6059992  25.5369978  49.8910014
  54.4379992  25.4259978  50.8480014  54.7689517  25.3676833  50.0459130
  54.7029992  26.0619978  52.7020014  53.8599992  26.3299978  53.0680014
  55.1449992  26.8839978  52.4910014  54.6474138  26.2098273  52.7235518
  38.9839992  24.5089978  56.1780014  39.9029992  24.3869978  56.4150014
  38.5339992  23.7589978  56.5680014  39.0490087  24.3909608  56.2631410
  56.9859992  20.0419978  58.0550014  57.3349992  19.3879978  57.4500014
  57.1329992  20.8789978  57.6150014  57.0536824  20.0656024  57.9126304
  54.6749992  22.0059978  44.5380014  54.8569992  21.5569978  45.3630014
  54.0749992  21.4219978  44.0740014  54.6188187  21.8655552  44.5882739
  40.2049992  22.8219978  49.0700014  40.6499992  22.0299978  49.3720014
  40.6709992  23.5379978  49.5000014  40.3289718  22.8104534  49.1695265
  38.5089992  25.8209978  50.1390014  39.0009992  25.5999978  49.3480014
  38.8709992  26.6609978  50.4200014  38.6252923  25.9043468  50.0687407
  56.5049992  22.1509978  56.4040014  55.5879992  22.4219978  56.3690014
  56.6279992  21.6159978  55.6200014  56.3959672  22.1157885  56.2931862
  56.5419992  22.0739978  41.0660014  56.9539992  21.3529978  40.5910014
  57.2229992  22.7429978  41.1240014  56.6905536  22.0657766  41.0088024
  38.8229992  22.0789978  44.1930014  37.8979992  22.2869978  44.0640014
  39.2769992  22.5629978  43.5030014  38.7576298  22.1729299  44.0820451
  53.5929992  37.0629978  46.1390014  54.2459992  36.7149978  45.5310014
  54.1039992  37.5509978  46.7850014  53.7512777  37.0813815  46.1432047
  38.7859992  20.8169978  52.5370014  38.1209992  20.5709978  53.1800014
  38.3429992  21.4389978  51.9600014  38.6351168  20.8674214  52.5469848
  40.9779992  33.9919978  56.6820014  40.1569992  34.1669978  56.2210014
  40.7259992  33.9189978  57.6020014  40.8315594  34.0060717  56.7433611
  43.9319992  34.9659978  52.9400014  43.5079992  35.7759978  52.6580014
  44.8369992  35.0519978  52.6380014  43.9962138  35.0884160  52.8606415
  48.2439992  36.3649978  55.9000014  48.4279992  36.0319978  56.7780014
  49.0899992  36.6749978  55.5780014  48.3836484  36.3612979  55.9767617
  50.5889992  37.6509978  55.1440014  51.2659992  37.0179978  54.9040014
  50.9099992  38.0519978  55.9510014  50.7251323  37.6185691  55.2203158
  55.5059992  20.2409978  54.2230014  54.6929992  20.5659978  53.8360014
  55.7389992  19.4799978  53.6900014  55.4261347  20.1826880  54.0979841
  41.3339992  38.2229978  52.9880014  40.6139992  38.6629978  52.5370014
  40.9689992  37.9719978  53.8360014  41.1859643  38.2493369  53.0409129
  43.8009992  37.8229978  52.0180014  42.9369992  37.8949978  52.4220014
  43.7459992  38.3699978  51.2340014  43.6751942  37.9067849  51.9674000
  48.5119992  37.7109978  51.1930014  48.0549992  38.2399978  50.5390014
  48.6749992  38.3139978  51.9180014  48.4714960  37.8649280  51.2015274
  50.8399992  36.5889978  52.1380014  49.9349992  36.7539978  51.8720014
  51.2679992  37.4419978  52.0720014  50.7741537  36.7269134  52.0927095
  53.4439992  38.1589978  52.4330014  53.2619992  39.0749978  52.2220014
  53.6209992  37.7479978  51.5860014  53.4430030  38.2288273  52.2897166
  40.7489992  36.8459978  49.8980014  40.7309992  36.4199978  50.7550014
  41.5539992  36.5269978  49.4890014  40.8552875  36.7446435  49.9599515
  42.8899992  35.5559978  48.5530014  42.6709992  34.6389978  48.7230014
  43.7139992  35.6959978  49.0190014  42.9714702  35.4495511  48.6392527
  45.4269992  36.0259978  49.4020014  45.6399992  35.1379978  49.1150014
  45.4919992  35.9909978  50.3560014  45.4649149  35.8998326  49.4917369
  48.9359992  21.6899978  48.5460014  48.2619992  21.0599978  48.8020014
  49.4999992  21.2059978  47.9430014  48.9200384  21.5383708  48.4995020
  54.0789992  19.7969978  48.6590014  54.6819992  20.3449978  48.1570014
  53.2089992  20.1159978  48.4180014  54.0439157  19.9150373  48.5577910
  55.8059992  20.9359978  46.9920014  56.4169992  20.4219978  46.4650014
  56.1879992  21.8129978  47.0150014  55.9413305  20.9842050  46.9229418
  41.2629992  20.3239978  46.3680014  40.4859992  20.0889978  45.8610014
  41.7929992  19.5269978  46.3770014  41.2283451  20.1841268  46.2998627
  40.0989992  20.1219978  42.1720014  40.5379992  20.7329978  41.5800014
  39.4649992  20.6599978  42.6460014  40.0733859  20.2784064  42.1550305
  45.8419992  20.2499978  46.1810014  46.7159992  20.6389978  46.1520014
  45.7059992  20.0349978  47.1040014  45.9431953  20.2741643  46.3017617
  51.3989992  20.2799978  47.8310014  51.4749992  20.3759978  46.8810014
  51.1239992  19.3729978  47.9590014  51.3721871  20.1704146  47.7183944
  52.7519992  20.3059978  43.5230014  52.0489992  20.9209978  43.3130014
  52.3069992  19.4689978  43.6540014  52.5956550  20.2769668  43.5119837
  39.9999992  36.0699978  43.0690014  39.3149992  36.0319978  42.4020014
  40.0039992  36.9829978  43.3570014  39.9067621  36.1881924  43.0166126
  41.9599992  22.0379978  40.6140014  42.4509992  21.4079978  40.0870014
  42.5829992  22.3339978  41.2770014  42.1115304  21.9917376  40.6314940
  46.9859992  22.3309978  43.0710014  47.1639992  21.6839978  43.7540014
  46.9319992  23.1649978  43.5380014  47.0030678  22.3551604  43.2276301
  48.8639992  37.2789978  41.4670014  49.7299992  37.6459978  41.2890014
  48.6179992  36.8399978  40.6530014  48.9492097  37.2698525  41.3326019
  55.5729992  36.8419978  44.1460014  55.3789992  36.0939978  43.5810014
  55.5339992  37.5999978  43.5630014  55.5411645  36.8420786  43.9898148
  41.2199992  20.8379978  55.8860014  40.8539992  20.0719978  56.3280014
  42.1329992  20.8669978  56.1720014  41.2933172  20.7370324  55.9851890
  43.1929992  20.1879978  57.4210014  44.0919992  19.9139978  57.2370014
  42.8069992  19.4459978  57.8860014  43.2637307  20.0502196  57.4587098
  41.8179992  36.9899978  40.0940014  41.5499992  37.2759978  40.9680014
  42.5889992  36.4439978  40.2470014  41.8855926  36.9552779  40.2341205
  51.6149992  19.5209978  57.6040014  51.6909992  19.0949978  58.4570014
  52.5079992  19.5339978  57.2610014  51.7462303  19.4643493  57.6745497
  54.7909992  35.5939978  56.2960014  54.0089992  35.4069978  55.7760014
  54.7189992  36.5229978  56.5130014  54.6741924  35.6940637  56.2541602
  69.1969992  29.4799978  46.3270014  69.2859992  30.4239978  46.1950014
  68.5589992  29.2049978  45.6690014  69.1229062  29.5719812  46.2199641
  68.1299992  28.7349978  49.7460014  68.0919992  28.0889978  50.4510014
  67.8079992  28.2679978  48.9750014  68.0812679  28.5834276  49.7382921
  60.4979992  28.3489978  51.3390014  60.5399992  27.7239978  52.0620014
  61.2009992  28.9729978  51.5210014  60.5987345  28.3477873  51.4625274
  71.8359992  31.6739978  48.0470014  71.3949992  30.9539978  48.4980014
  71.8229992  32.3949978  48.6770014  71.7739215  31.6729291  48.1938105
  61.4219992  32.7989978  49.8740014  61.0519992  31.9969978  49.5040014
  62.3629992  32.6309978  49.9200014  61.4985984  32.6664638  49.8295603
  58.0319992  26.4589978  45.2660014  57.5839992  27.3049978  45.2480014
  57.4709992  25.8799978  44.7510014  57.8948546  26.4963993  45.1938891
  58.7419992  28.6209978  47.3920014  58.9559992  27.8509978  47.9200014
  59.4799992  28.7109978  46.7890014  58.8710200  28.5278587  47.3827035
  68.9479992  36.7779978  48.2590014  69.5669992  36.1019978  47.9860014
  68.7389992  36.5599978  49.1680014  69.0046056  36.6558869  48.3443967
  66.5189992  31.1669978  50.1520014  66.8229992  30.4809978  49.5570014
  67.2409992  31.2859978  50.7700014  66.6581240  31.0892314  50.1540959
  75.1819992  22.7689978  51.0120014  75.2319992  23.3789978  51.7480014
  75.6079992  23.2299978  50.2890014  75.2464108  22.9147709  51.0150112
  69.6599992  25.5609978  50.4790014  69.8029992  24.6149978  50.4990014
  69.5539992  25.7679978  49.5510014  69.6652403  25.4594797  50.3562239
  62.8149992  23.6629978  47.7520014  62.8579992  24.5229978  47.3330014
  62.3569992  23.1109978  47.1180014  62.7589871  23.7059245  47.6090761
  70.5369992  23.7939978  46.1530014  71.1839992  23.4649978  46.7770014
  71.0469992  24.3109978  45.5300014  70.6944351  23.8189067  46.1541037
  59.4349992  26.0599978  48.5140014  60.0889992  25.5099978  48.9460014
  59.4589992  25.7859978  47.5970014  59.5277199  25.9477167  48.4491668
  64.5919992  27.6099978  47.7290014  65.2079992  27.0829978  48.2380014
  64.0049992  26.9699978  47.3250014  64.5970154  27.4513954  47.7440945
  75.5739992  24.2469978  53.2480014  74.8849992  24.9049978  53.1530014
  75.5889992  24.0489978  54.1850014  75.4817756  24.3102603  53.3615812
  61.6249992  22.5809978  51.8260014  61.4059992  23.1109978  51.0590014
  60.9569992  22.8069978  52.4730014  61.5046975  22.6840967  51.8085140
  68.9939992  32.0809978  45.3700014  68.6989992  31.7579978  44.5180014
  68.6699992  32.9809978  45.4110014  68.9098460  32.1584464  45.2589714
  64.1939992  30.2559978  52.1130014  63.4539992  30.8549978  52.2170014
  64.9079992  30.8099978  51.7980014  64.1893500  30.4127829  52.0846371
  72.3009992  23.0849978  48.1330014  72.0859992  22.3189978  48.6660014
  72.9569992  23.5569978  48.6460014  72.3602673  23.0440728  48.2751990
  61.2189992  24.4729978  49.7780014  61.8329992  25.1059978  50.1510014
  61.7309992  24.0009978  49.1220014  61.3721962  24.4957249  49.7402935
  62.6019992  32.2209978  52.9000014  62.5959992  33.0999978  52.5220014
  61.7479992  32.1369978  53.3250014  62.4857925  32.3299535  52.9056887
  58.7229992  31.8919978  43.6820014  58.4509992  32.1209978  42.7940014
  58.7679992  32.7289978  44.1430014  58.6918097  32.0366163  43.6226683
  72.3479992  33.5129978  50.3950014  71.4059992  33.5719978  50.5570014
  72.6239992  34.4189978  50.2580014  72.2565865  33.6435288  50.3986192
  72.6479992  21.7999978  51.8120014  71.9119992  22.4099978  51.7750014
  73.3319992  22.2149978  51.2860014  72.6395367  21.9397551  51.7358174
  65.6519992  19.8859978  49.2780014  65.5339992  18.9379978  49.2240014
  64.7969992  20.2189978  49.5510014  65.5202805  19.8012202  49.3075079
  70.5999992  35.2939978  47.0200014  71.0249992  34.5869978  46.5350014
  70.9169992  36.0959978  46.6030014  70.7010266  35.3055190  46.8972479
  71.7599992  33.1949978  45.5290014  71.5019992  32.5049978  44.9170014
  71.8309992  32.7519978  46.3740014  71.7343050  33.0406814  45.5595621
  73.4459992  31.7619978  54.0060014  73.5849992  31.1699978  53.2670014
  73.6129992  32.6349978  53.6500014  73.4876193  31.7988896  53.8566211
  67.9179992  28.7239978  43.7790014  67.2069992  29.2589978  43.4270014
  68.6089992  28.7789978  43.1190014  67.9140751  28.8046777  43.6415858
  67.9719992  27.1809978  40.8170014  68.6729992  27.2039978  41.4690014
  68.2739992  26.5529978  40.1610014  68.1088202  27.0992212  40.8175609
  75.2869992  28.1019978  52.0720014  74.6349992  28.7959978  52.1610014
  75.7529992  28.3119978  51.2620014  75.2605937  28.2255019  51.9747533
  71.3239992  28.9329978  44.7300014  70.5919992  29.1619978  45.3040014
  71.7709992  28.2199978  45.1850014  71.2843963  28.8678729  44.8699945
  71.2209992  27.1079978  53.7980014  71.3009992  27.8709978  54.3700014
  70.6199992  27.3869978  53.1080014  71.1506547  27.2502457  53.7830047
  62.9689992  29.5639978  46.6130014  62.6389992  29.1929978  45.7950014
  63.5579992  28.8929978  46.9600014  63.0033970  29.4226063  46.5479404
  64.3359992  32.9919978  49.2940014  64.2409992  32.4129978  48.5380014
  65.0649992  32.6209978  49.7900014  64.4216011  32.8625561  49.2576028
  63.3359992  28.3319978  50.2460014  63.9009992  28.4539978  49.4840014
  63.6549992  28.9699978  50.8850014  63.4564166  28.4348791  50.2280348
  69.6449992  33.8359978  50.9800014  69.4049992  34.4979978  51.6280014
  69.4469992  33.0009978  51.4050014  69.5853826  33.8138115  51.1261566
  64.2159992  32.7319978  54.9640014  63.9049992  33.5139978  55.4190014
  63.5659992  32.5789978  54.2780014  64.0855538  32.8184087  54.9335898
  70.1949992  28.0959978  42.4160014  70.7739992  28.2459978  43.1620014
  70.6089992  28.5659978  41.6920014  70.3303358  28.1800954  42.4203953
  61.1359992  28.9299978  54.1920014  61.2059992  29.5809978  54.8910014
  60.2449992  29.0329978  53.8570014  61.0251690  29.0329249  54.2423043
  67.9209992  34.8319978  45.8510014  68.3949992  35.1279978  46.6280014
  67.3579992  35.5709978  45.6180014  67.9097890  34.9723036  45.9258101
  62.4549992  34.8029978  55.7270014  62.4629992  34.6669978  54.7800014
  61.5389992  34.6859978  55.9790014  62.3322528  34.7685463  55.6313243
  73.8939992  19.8459978  42.2290014  72.9939992  19.9849978  42.5240014
  74.1459992  20.6769978  41.8270014  73.8048683  19.9774055  42.2150232
  61.9599992  28.6329978  44.2020014  61.6679992  29.4009978  43.7110014
  61.2849992  27.9739978  44.0390014  61.8288497  28.6489745  44.1128260
  75.0829992  34.2119978  40.6050014  75.1559992  35.1509978  40.7750014
  75.9879992  33.9069978  40.5490014  75.2154170  34.2993282  40.6207063
  58.0529992  30.9959978  53.0170014  57.5509992  30.9679978  52.2020014
  58.0579992  30.0909978  53.3270014  57.9849832  30.8697486  52.9474121
  57.8029992  33.7769978  49.9010014  58.7489992  33.6319978  49.8820014
  57.6899992  34.5609978  50.4380014  57.9173578  33.8631697  49.9710317
  76.0009992  34.4429978  55.5840014  75.9509992  33.4869978  55.5460014
  75.1739992  34.7099978  55.9850014  75.8823831  34.3484680  55.6330121
  66.9789992  34.0169978  54.4600014  67.0669992  34.8429978  54.9350014
  66.1159992  33.6869978  54.7090014  66.8743357  34.0855468  54.5587653
  67.3939992  37.7889978  44.2660014  67.3179992  37.6679978  43.3190014
  67.4259992  38.7379978  44.3840014  67.3879380  37.9007677  44.1525181
  61.0469992  36.5779978  46.0470014  61.1989992  36.2299978  46.9250014
  60.1959992  36.2209978  45.7910014  60.9528344  36.4820879  46.1326868
  70.4949992  36.9429978  41.2680014  70.8699992  36.1989978  40.7970014
  70.4999992  36.6729978  42.1860014  70.5470098  36.8046392  41.3276629
  70.1639992  36.8689978  44.0170014  69.2289992  36.9689978  44.1960014
  70.4439992  36.1589978  44.5960014  70.0739471  36.7867933  44.1196695
  73.1529992  25.9359978  56.0640014  72.7449992  26.4159978  55.3430014
  73.1929992  25.0299978  55.7560014  73.1026221  25.8792449  55.9238267
  60.3019992  32.3199978  54.0600014  60.5179992  31.9579978  54.9200014
  59.4459992  31.9449978  53.8510014  60.2158810  32.2198837  54.1492680
  62.9199992  20.7899978  50.0560014  62.0589992  20.7029978  49.6480014
  62.8979992  21.6459978  50.4840014  62.7990491  20.8938003  50.0579582
  67.5829992  20.5119978  53.4310014  68.0029992  20.0969978  54.1840014
  66.6499992  20.3329978  53.5480014  67.5143736  20.4309910  53.5498968
  70.9099992  24.2669978  54.2840014  70.3959992  24.1419978  55.0820014
  70.7539992  25.1799978  54.0400014  70.8186967  24.3732123  54.3600937
  71.6719992  29.1279978  40.0450014  71.7139992  28.9059978  39.1150014
  72.5209992  29.5269978  40.2350014  71.7925253  29.1515498  39.9433822
  67.2449992  23.0039978  40.7160014  66.9909992  23.0229978  41.6380014
  66.9879992  22.1329978  40.4140014  67.1754508  22.8888280  40.8014803
  63.0109992  25.7549978  51.1510014  62.3699992  25.7149978  51.8600014
  63.0489992  26.6819978  50.9130014  62.9283010  25.8747668  51.2159946
  63.0079992  25.9759978  46.0630014  62.1159992  25.6359978  46.0040014
  63.4589992  25.5989978  45.3070014  62.9467642  25.8784910  45.9527726
  68.5439992  26.3919978  44.8800014  68.1349992  27.2069978  44.5880014
  69.2639992  26.2519978  44.2660014  68.5854439  26.4845372  44.7570115
  67.6459992  26.5679978  56.3680014  67.0829992  25.8629978  56.6890014
  68.4719992  26.4469978  56.8360014  67.6806674  26.4552165  56.4751751
  69.5489992  25.8379978  47.6940014  69.3529992  26.4439978  46.9790014
  69.7299992  25.0049978  47.2600014  69.5466584  25.8082513  47.5374212
  60.7609992  26.0759978  53.0180014  60.7229992  26.4759978  53.8870014
  60.2709992  25.2589978  53.1080014  60.6895330  26.0202674  53.1491289
  64.1269992  23.4499978  39.8170014  63.6959992  23.0049978  40.5460014
  63.4089992  23.8209978  39.3040014  63.9709176  23.4392051  39.8474930
  57.3699992  23.1919978  46.8690014  57.9999992  23.1629978  47.5880014
  57.8189992  22.7669978  46.1380014  57.5170835  23.1305660  46.8687659
  58.6439992  23.9379978  42.2930014  59.1179992  24.5289978  41.7080014
  57.9259992  24.4679978  42.6400014  58.6118640  24.0905511  42.2597969
  68.8129992  27.4759978  52.3650014  69.1359992  26.8449978  51.7220014
  68.3719992  26.9419978  53.0260014  68.7976379  27.3173468  52.3662582
  65.5899992  23.4039978  47.1490014  64.6789992  23.4609978  47.4380014
  66.0949992  23.3439978  47.9600014  65.5336873  23.4036826  47.2981207
  60.4179992  25.0329978  45.9760014  59.5289992  25.1319978  45.6360014
  60.7149992  24.1909978  45.6300014  60.3364177  24.9327687  45.8826940
  64.0709992  25.0329978  43.6330014  65.0029992  25.1619978  43.8110014
  63.8559992  25.7019978  42.9830014  64.1694472  25.1410806  43.5694891
  69.9949992  22.6389978  50.4140014  69.3179992  22.7699978  51.0770014
  69.5099992  22.4839978  49.6030014  69.8367405  22.6359947  50.3952170
  62.7449992  26.2269978  41.1990014  62.2029992  25.8479978  40.5080014
  63.5789992  26.4219978  40.7710014  62.7834390  26.2014079  41.0464392
  73.2829992  38.3099978  56.6900014  73.4819992  38.7339978  55.8560014
  73.9379992  38.6539978  57.2970014  73.3988522  38.4146301  56.6577852
  60.8809992  30.7839978  56.2980014  61.6129992  31.0389978  56.8600014
  60.0999992  30.9889978  56.8140014  60.8756526  30.8465450  56.4445176
  66.9099992  26.1909978  49.0360014  67.4739992  25.6449978  48.4890014
  66.7619992  25.6699978  49.8250014  66.9673037  26.0456787  49.0677229
  61.9119992  22.3279978  45.4550014  61.5949992  21.4249978  45.4190014
  62.6929992  22.3299978  44.9020014  61.9742431  22.2047797  45.3753102
  65.5359992  24.5799978  51.4500014  64.7009992  25.0339978  51.5610014
  66.0599992  24.8559978  52.2020014  65.4926072  24.6793948  51.5668136
  66.0809992  30.7929978  43.1350014  65.3359992  30.2849978  42.8130014
  65.9459992  30.8419978  44.0810014  65.9608963  30.7301731  43.2188826
  73.2309992  29.9259978  51.9220014  73.8719992  30.3819978  51.3780014
  72.3999992  30.0389978  51.4590014  73.2065287  30.0036921  51.7849887
  69.9779992  23.6069978  41.3340014  69.0399992  23.7179978  41.1830014
  70.2759992  24.4629978  41.6410014  69.8896318  23.7380158  41.3548145
  67.5999992  30.9769978  54.3720014  67.2539992  30.5949978  55.1790014
  67.3999992  31.9099978  54.4430014  67.5255987  31.0509002  54.4920461
  70.6969992  25.4739978  42.9950014  71.5889992  25.3359978  43.3140014
  70.7529992  26.2649978  42.4580014  70.8267325  25.5619918  42.9661217
  61.2049992  30.0879978  48.9050014  61.9499992  30.0849978  48.3030014
  61.2829992  29.2639978  49.3860014  61.3173365  29.9762384  48.8877430
  68.2059992  32.2509978  42.1600014  67.9109992  33.0779978  42.5420014
  67.5029992  31.6319978  42.3570014  68.0706379  32.2804171  42.2388654
  58.2129992  28.5479978  54.2200014  58.4359992  28.1299978  55.0510014
  57.6109992  27.9359978  53.7970014  58.1621513  28.4079606  54.2766740
  65.2299992  28.0649978  56.4330014  64.9339992  27.8999978  55.5370014
  66.1609992  27.8449978  56.4220014  65.3154401  28.0126879  56.3090206
  69.8499992  33.4389978  54.3220014  68.9499992  33.6219978  54.0550014
  69.8839992  33.6979978  55.2430014  69.7313748  33.4990554  54.4099164
  75.5819992  25.6829978  42.6900014  75.0269992  25.2869978  42.0170014
  75.6819992  26.5939978  42.4120014  75.5196816  25.7519505  42.5605033
  75.5449992  31.4839978  55.5270014  74.6939992  31.7219978  55.1590014
  76.1349992  31.4669978  54.7740014  75.5083812  31.5142524  55.3748453
  73.8769992  34.4689978  43.1550014  73.5039992  33.6439978  43.4640014
  74.1539992  34.2859978  42.2570014  73.8633463  34.3312569  43.0759525
  71.0369992  29.2769978  50.1760014  70.1089992  29.0459978  50.1490014
  71.4879992  28.4999978  49.8460014  70.9708165  29.1402774  50.1276790
  63.5799992  33.6059978  46.3090014  64.1079992  34.3789978  46.1090014
  62.6999992  33.8299978  46.0070014  63.5333435  33.7422700  46.2407310
  59.3349992  28.4679978  40.8960014  59.9509992  29.0949978  41.2760014
  58.4729992  28.7839978  41.1680014  59.3027678  28.5964412  40.9847209
  65.0079992  31.2689978  45.8850014  64.7669992  32.1939978  45.9270014
  64.2669992  30.8099978  46.2820014  64.8749206  31.3335915  45.9443769
  65.5219992  35.4179978  52.2000014  65.8849992  36.2719978  51.9670014
  66.0539992  35.1259978  52.9410014  65.6435141  35.4953895  52.2682097
  63.6909992  36.2899978  45.4310014  62.7409992  36.3959978  45.4820014
  64.0429992  37.1109978  45.7750014  63.6085472  36.4154923  45.4844852
  69.0659992  31.5169978  51.9010014  68.6409992  31.2889978  52.7270014
  69.6469992  30.7779978  51.7190014  69.0863395  31.3859545  51.9894414
  71.2689992  32.4459978  40.9750014  71.6229992  32.0659978  41.7790014
  70.3209992  32.3519978  41.0620014  71.1892298  32.3812452  41.0968687
  71.7249992  36.0689978  54.3700014  71.1229992  35.5129978  53.8750014
  72.0059992  36.7359978  53.7440014  71.6805757  36.0830744  54.2175675
  75.7729992  36.9249978  41.1760014  76.5169992  37.5109978  41.0360014
  75.0789992  37.4939978  41.5090014  75.7809809  37.0820818  41.2018590
  59.8469992  23.3019978  53.7780014  58.9549992  23.6399978  53.7100014
  59.7489992  22.4459978  54.1960014  59.7114475  23.2326543  53.8251704
  72.1349992  31.1179978  43.2020014  71.8579992  30.3899978  43.7580014
  73.0629992  31.2369978  43.4070014  72.2224499  31.0344213  43.3058044
  59.4989992  35.1059978  52.2130014  59.7159992  34.1739978  52.1820014
  59.7449992  35.3809978  53.0960014  59.5619809  35.0155686  52.3281691
  65.3599992  33.5579978  39.4220014  65.5989992  32.8089978  38.8750014
  65.0909992  33.1699978  40.2550014  65.3563233  33.4031853  39.4597809
  64.2969992  33.1279978  41.8780014  64.4439992  32.6079978  42.6680014
  64.2939992  34.0349978  42.1850014  64.3167102  33.1793953  42.0275925
  60.7499992  30.3799978  42.3890014  60.0639992  30.7329978  42.9560014
  61.2729992  31.1429978  42.1420014  60.7268402  30.5313901  42.4331801
  68.5819992  23.0429978  52.6680014  69.2809992  23.1169978  53.3180014
  68.2009992  22.1779978  52.8220014  68.6262097  22.9362389  52.7777997
  69.3659992  22.6949978  43.7650014  69.5859992  23.1659978  42.9610014
  69.9249992  23.0889978  44.4350014  69.4716731  22.8127287  43.7455033
  67.0349992  34.8249978  42.6280014  66.2179992  35.3219978  42.6800014
  67.5639992  35.3009978  41.9870014  66.9948125  34.9571989  42.5485306
  66.5659992  24.4229978  44.6000014  67.3779992  24.9269978  44.6460014
  66.3219992  24.2779978  45.5140014  66.6441467  24.4723749  44.7298575
  67.1019992  25.4089978  53.7840014  67.2209992  25.9829978  54.5410014
  67.7569992  24.7209978  53.8990014  67.2068684  25.3945194  53.9031674
  67.4499992  21.5039978  45.5380014  67.1029992  22.1209978  46.1820014
  68.1089992  22.0049978  45.0560014  67.4915090  21.6561575  45.5610681
  64.3729992  35.8689978  42.6090014  64.5339992  36.6689978  42.1090014
  64.1759992  36.1759978  43.4940014  64.3683906  36.0198678  42.6602333
  63.1079992  22.5669978  42.2250014  63.0239992  23.4549978  42.5720014
  63.9979992  22.3019978  42.4570014  63.2168163  22.6527179  42.3038596
  73.3059992  23.3159978  54.6190014  72.3899992  23.5779978  54.5320014
  73.6419992  23.3129978  53.7230014  73.2258499  23.3515163  54.4858766
  71.9089992  27.0659978  48.7150014  71.1109992  26.6509978  48.3870014
  72.3539992  26.3759978  49.2060014  71.8599684  26.9158628  48.7365227
  61.3659992  32.9939978  41.2850014  61.9579992  33.6939978  41.5620014
  61.8249992  32.5609978  40.5660014  61.5091652  33.0312675  41.2256533
  59.6819992  25.6589978  40.4010014  59.6369992  26.5979978  40.5800014
  58.7939992  25.4229978  40.1320014  59.5558166  25.7556687  40.3891524
  72.9949992  36.3219978  50.3370014  72.8389992  37.0009978  49.6800014
  73.9279992  36.3939978  50.5400014  73.0997387  36.4246390  50.2745342
  60.4899992  20.4399978  49.0750014  60.2609992  20.4989978  48.1470014
  60.0479992  19.6489978  49.3810014  60.3988801  20.3410540  48.9894729
  59.4209992  34.3809978  45.2350014  58.5879992  34.8529978  45.2620014
  59.9659992  34.8909978  44.6360014  59.3807857  34.5144791  45.1577142
  58.7089992  36.9929978  56.5650014  59.2489992  36.7769978  57.3250014
  58.2279992  36.1879978  56.3750014  58.7179219  36.8545156  56.6434282
  63.3059992  35.9129978  58.1850014  64.0739992  35.4539978  58.5260014
  63.2849992  35.6869978  57.2550014  63.4082135  35.8196668  58.1059491
  67.3979992  35.4209978  39.5610014  66.7539992  34.7899978  39.8820014
  68.1599992  34.8899978  39.3290014  67.4128058  35.2627902  39.5736038
  69.8829992  34.2929978  56.9140014  69.5319992  33.4359978  57.1580014
  70.6089992  34.4349978  57.5210014  69.9331895  34.1951351  57.0293770
  72.0029992  35.2379978  39.7940014  72.2859992  34.4429978  40.2470014
  72.7419992  35.4709978  39.2330014  72.1417096  35.1607049  39.7801104
  58.6159992  30.8039978  57.5190014  58.7599992  29.9019978  57.2330014
  57.8439992  31.0899978  57.0320014  58.5312733  30.7191798  57.4139532
  62.9569992  31.1469978  39.6520014  63.0219992  30.3529978  40.1820014
  63.6099992  31.0289978  38.9620014  63.0541605  31.0223430  39.6312997
  65.2709992  30.7729978  56.9520014  64.9429992  31.0439978  56.0950014
  65.4229992  29.8319978  56.8640014  65.2466412  30.6829046  56.8227822
  68.3099992  32.1939978  39.3880014  68.0409992  32.3749978  40.2880014
  68.1029992  31.2689978  39.2560014  68.2451191  32.0937119  39.4935524
  71.0059992  30.6889978  54.3350014  71.7509992  31.2779978  54.2160014
  70.2489992  31.2709978  54.3990014  71.0055470  30.8482128  54.3273799
  59.4489992  28.0039978  56.9390014  59.8569992  27.1469978  56.8180014
  59.1879992  28.0179978  57.8600014  59.4696016  27.8885119  57.0469192
  64.1069992  29.1199978  41.9580014  63.6469992  28.6359978  42.6430014
  64.3619992  28.4509978  41.3220014  64.0784856  28.9633669  41.9658397
  63.3959992  27.0129978  54.3140014  62.7769992  27.6869978  54.5940014
  63.7399992  27.3339978  53.4800014  63.3577123  27.1486887  54.2396388
  65.1779992  27.3629978  40.2200014  64.9969992  27.2079978  39.2930014
  66.1279992  27.4709978  40.2650014  65.2816566  27.3563669  40.0990929
  68.4149992  29.4839978  57.5910014  69.3689992  29.5679978  57.5640014
  68.2549992  28.7719978  58.2110014  68.5237182  29.3992842  57.6710733
  74.5679992  29.7169978  39.6660014  74.2939992  29.2929978  38.8530014
  74.6069992  30.6489978  39.4490014  74.5357716  29.7848827  39.5254286
  63.7349992  24.3679978  55.3960014  63.8849992  23.6389978  54.7940014
  63.7369992  25.1449978  54.8370014  63.7557967  24.3732708  55.2380541
  64.1479992  22.7369978  52.8890014  64.6829992  23.1889978  52.2370014
  63.2949992  22.6289978  52.4660014  64.1060374  22.7842665  52.7426710
  65.7289992  28.1769978  53.1280014  66.4799992  28.0209978  52.5550014
  65.3899992  29.0289978  52.8530014  65.7859587  28.2708138  53.0124078
  70.1449992  25.9919978  58.1570014  70.3369992  25.0609978  58.0450014
  71.0029992  26.4169978  58.1460014  70.2872182  25.9220070  58.1401862
  71.4619992  28.7809978  56.2340014  71.1799992  29.4899978  55.6560014
  72.4039992  28.7079978  56.0830014  71.5507921  28.8682193  56.1344225
  62.2139992  25.5659978  57.3070014  61.4459992  25.0329978  57.0970014
  62.8919992  25.2559978  56.7080014  62.2007235  25.4511754  57.1972413
  64.9529992  20.1939978  53.3200014  64.8549992  21.1399978  53.2150014
  64.2109992  19.8209978  52.8440014  64.8392534  20.2731773  53.2412600
  66.2169992  24.5149978  56.8840014  65.9819992  24.2959978  57.7850014
  65.4339992  24.3079978  56.3740014  66.0789095  24.4569892  56.9385353
  68.9329992  23.6429978  55.9590014  67.9849992  23.6749978  56.0910014
  69.2449992  23.0169978  56.6130014  68.8455293  23.5627923  56.0654148
  70.5669992  22.2769978  57.9640014  70.4699992  21.3249978  57.9590014
  70.2449992  22.5449978  58.8250014  70.5102468  22.1830884  58.0796210
  60.3939992  23.4859978  57.0120014  60.6059992  22.7799978  56.4020014
  60.2829992  23.0489978  57.8560014  60.4080269  23.3301921  57.0425873
  65.1749992  19.4879978  55.9910014  65.8869992  18.8479978  55.9770014
  65.0739992  19.7539978  55.0780014  65.2587387  19.4364330  55.8655563
  65.5289992  21.1699978  58.0450014  65.3969992  20.6949978  57.2250014
  64.9289992  21.9149978  57.9900014  65.4299070  21.2055789  57.9253251
  65.0749992  38.0529978  41.2210014  66.0079992  38.2109978  41.3650014
  64.8109992  38.7289978  40.5960014  65.1669911  38.1659373  41.1562722
  58.6429992  32.6899978  40.7040014  59.5569992  32.7689978  40.9770014
  58.6509992  32.0029978  40.0380014  58.7690655  32.6079205  40.6512917
  57.2919992  38.0829978  45.7810014  56.6449992  37.6209978  45.2490014
  57.6469992  37.4109978  46.3640014  57.2513741  37.9289774  45.7869175
  58.1619992  36.1629978  47.5860014  57.8279992  35.2829978  47.7580014
  58.3849992  36.5089978  48.4510014  58.1463721  36.0891938  47.7264168
  75.7109992  36.9729978  50.5670014  75.6889992  37.1579978  51.5060014
  76.4009992  37.5409978  50.2260014  75.8013439  37.0751887  50.6494791
  75.2739992  36.5399978  53.4880014  74.7869992  35.8049978  53.1170014
  75.8229992  36.1459978  54.1660014  75.2815247  36.3861057  53.5288461
  73.7249992  32.3299978  58.1270014  72.8589992  32.2249978  58.5210014
  74.1009992  33.0879978  58.5730014  73.6573401  32.4181708  58.2412620
  75.0259992  30.5859978  43.6410014  75.8759992  31.0069978  43.7680014
  75.0309992  29.8459978  44.2480014  75.1431143  30.5436094  43.7404750
  75.4199992  28.6399978  45.4640014  74.6939992  28.1599978  45.8620014
  76.0019992  28.8449978  46.1970014  75.3992730  28.6020184  45.6174149
  75.1789992  31.4249978  50.4120014  76.0129992  31.0469978  50.1310014
  75.2909992  32.3679978  50.2930014  75.3081917  31.5007943  50.3574861
  73.6659992  34.3029978  52.7190014  73.0179992  34.6279978  53.3440014
  73.1479992  33.8619978  52.0450014  73.5074196  34.2878651  52.7134152
  75.6889992  28.5409978  41.8550014  75.1669992  28.8969978  41.1370014
  75.6559992  29.2159978  42.5340014  75.6130129  28.6809598  41.8483355
  74.0379992  25.7799978  40.4060014  74.1339992  26.4469978  39.7260014
  73.8979992  24.9649978  39.9250014  74.0322040  25.7610671  40.2478378
  73.2069992  27.1609978  46.0270014  73.0569992  26.2159978  46.0070014
  72.8529992  27.4419978  46.8710014  73.1386351  27.0696644  46.1383220
  58.2419992  29.2389978  50.0380014  58.4269992  29.1569978  49.1020014
  59.0919992  29.1149978  50.4610014  58.3820928  29.2110463  49.9672893
  74.0629992  29.1309978  55.6660014  74.6459992  28.3959978  55.8580014
  74.6269992  29.9029978  55.7130014  74.2189781  29.1348145  55.6986164
  75.5599992  27.0339978  56.3510014  74.6969992  26.6549978  56.1850014
  76.1639992  26.2949978  56.2760014  75.5236085  26.8823223  56.3181695
  73.2849992  23.1879978  39.5240014  73.8959992  22.8169978  40.1610014
  72.4479992  22.7669978  39.7200014  73.2554947  23.0802756  39.6377252
  72.9179992  24.7429978  44.4900014  73.1969992  23.8359978  44.6140014
  73.6769992  25.1769978  44.1010014  73.0588619  24.6774502  44.4543795
  73.5289992  25.3249978  49.9260014  74.4619992  25.5369978  49.8910014
  73.2939992  25.4259978  50.8480014  73.6249517  25.3676833  50.0459130
  73.5589992  26.0619978  52.7020014  72.7159992  26.3299978  53.0680014
  74.0009992  26.8839978  52.4910014  73.5034138  26.2098273  52.7235518
  57.8399992  24.5089978  56.1780014  58.7589992  24.3869978  56.4150014
  57.3899992  23.7589978  56.5680014  57.9050087  24.3909608  56.2631410
  75.8419992  20.0419978  58.0550014  76.1909992  19.3879978  57.4500014
  75.9889992  20.8789978  57.6150014  75.9096824  20.0656024  57.9126304
  73.5309992  22.0059978  44.5380014  73.7129992  21.5569978  45.3630014
  72.9309992  21.4219978  44.0740014  73.4748187  21.8655552  44.5882739
  59.0609992  22.8219978  49.0700014  59.5059992  22.0299978  49.3720014
  59.5269992  23.5379978  49.5000014  59.1849718  22.8104534  49.1695265
  57.3649992  25.8209978  50.1390014  57.8569992  25.5999978  49.3480014
  57.7269992  26.6609978  50.4200014  57.4812923  25.9043468  50.0687407
  75.3609992  22.1509978  56.4040014  74.4439992  22.4219978  56.3690014
  75.4839992  21.6159978  55.6200014  75.2519672  22.1157885  56.2931862
  75.3979992  22.0739978  41.0660014  75.8099992  21.3529978  40.5910014
  76.0789992  22.7429978  41.1240014  75.5465536  22.0657766  41.0088024
  57.6789992  22.0789978  44.1930014  56.7539992  22.2869978  44.0640014
  58.1329992  22.5629978  43.5030014  57.6136298  22.1729299  44.0820451
  72.4489992  37.0629978  46.1390014  73.1019992  36.7149978  45.5310014
  72.9599992  37.5509978  46.7850014  72.6072777  37.0813815  46.1432047
  57.6419992  20.8169978  52.5370014  56.9769992  20.5709978  53.1800014
  57.1989992  21.4389978  51.9600014  57.4911168  20.8674214  52.5469848
  59.8339992  33.9919978  56.6820014  59.0129992  34.1669978  56.2210014
  59.5819992  33.9189978  57.6020014  59.6875594  34.0060717  56.7433611
  62.7879992  34.9659978  52.9400014  62.3639992  35.7759978  52.6580014
  63.6929992  35.0519978  52.6380014  62.8522138  35.0884160  52.8606415
  67.0999992  36.3649978  55.9000014  67.2839992  36.0319978  56.7780014
  67.9459992  36.6749978  55.5780014  67.2396484  36.3612979  55.9767617
  69.4449992  37.6509978  55.1440014  70.1219992  37.0179978  54.9040014
  69.7659992  38.0519978  55.9510014  69.5811323  37.6185691  55.2203158
  74.3619992  20.2409978  54.2230014  73.5489992  20.5659978  53.8360014
  74.5949992  19.4799978  53.6900014  74.2821347  20.1826880  54.0979841
  60.1899992  38.2229978  52.9880014  59.4699992  38.6629978  52.5370014
  59.8249992  37.9719978  53.8360014  60.0419643  38.2493369  53.0409129
  62.6569992  37.8229978  52.0180014  61.7929992  37.8949978  52.4220014
  62.6019992  38.3699978  51.2340014  62.5311942  37.9067849  51.9674000
  67.3679992  37.7109978  51.1930014  66.9109992  38.2399978  50.5390014
  67.5309992  38.3139978  51.9180014  67.3274960  37.8649280  51.2015274
  69.6959992  36.5889978  52.1380014  68.7909992  36.7539978  51.8720014
  70.1239992  37.4419978  52.0720014  69.6301537  36.7269134  52.0927095
  72.2999992  38.1589978  52.4330014  72.1179992  39.0749978  52.2220014
  72.4769992  37.7479978  51.5860014  72.2990030  38.2288273  52.2897166
  59.6049992  36.8459978  49.8980014  59.5869992  36.4199978  50.7550014
  60.4099992  36.5269978  49.4890014  59.7112875  36.7446435  49.9599515
  61.7459992  35.5559978  48.5530014  61.5269992  34.6389978  48.7230014
  62.5699992  35.6959978  49.0190014  61.8274702  35.4495511  48.6392527
  64.2829992  36.0259978  49.4020014  64.4959992  35.1379978  49.1150014
  64.3479992  35.9909978  50.3560014  64.3209149  35.8998326  49.4917369
  67.7919992  21.6899978  48.5460014  67.1179992  21.0599978  48.8020014
  68.3559992  21.2059978  47.9430014  67.7760384  21.5383708  48.4995020
  72.9349992  19.7969978  48.6590014  73.5379992  20.3449978  48.1570014
  72.0649992  20.1159978  48.4180014  72.8999157  19.9150373  48.5577910
  74.6619992  20.9359978  46.9920014  75.2729992  20.4219978  46.4650014
  75.0439992  21.8129978  47.0150014  74.7973305  20.9842050  46.9229418
  60.1189992  20.3239978  46.3680014  59.3419992  20.0889978  45.8610014
  60.6489992  19.5269978  46.3770014  60.0843451  20.1841268  46.2998627
  58.9549992  20.1219978  42.1720014  59.3939992  20.7329978  41.5800014
  58.3209992  20.6599978  42.6460014  58.9293859  20.2784064  42.1550305
  64.6979992  20.2499978  46.1810014  65.5719992  20.6389978  46.1520014
  64.5619992  20.0349978  47.1040014  64.7991953  20.2741643  46.3017617
  70.2549992  20.2799978  47.8310014  70.3309992  20.3759978  46.8810014
  69.9799992  19.3729978  47.9590014  70.2281871  20.1704146  47.7183944
  71.6079992  20.3059978  43.5230014  70.9049992  20.9209978  43.3130014
  71.1629992  19.4689978  43.6540014  71.4516550  20.2769668  43.5119837
  58.8559992  36.0699978  43.0690014  58.1709992  36.0319978  42.4020014
  58.8599992  36.9829978  43.3570014  58.7627621  36.1881924  43.0166126
  60.8159992  22.0379978  40.6140014  61.3069992  21.4079978  40.0870014
  61.4389992  22.3339978  41.2770014  60.9675304  21.9917376  40.6314940
  65.8419992  22.3309978  43.0710014  66.0199992  21.6839978  43.7540014
  65.7879992  23.1649978  43.5380014  65.8590678  22.3551604  43.2276301
  67.7199992  37.2789978  41.4670014  68.5859992  37.6459978  41.2890014
  67.4739992  36.8399978  40.6530014  67.8052097  37.2698525  41.3326019
  74.4289992  36.8419978  44.1460014  74.2349992  36.0939978  43.5810014
  74.3899992  37.5999978  43.5630014  74.3971645  36.8420786  43.9898148
  60.0759992  20.8379978  55.8860014  59.7099992  20.0719978  56.3280014
  60.9889992  20.8669978  56.1720014  60.1493172  20.7370324  55.9851890
  62.0489992  20.1879978  57.4210014  62.9479992  19.9139978  57.2370014
  61.6629992  19.4459978  57.8860014  62.1197307  20.0502196  57.4587098
  60.6739992  36.9899978  40.0940014  60.4059992  37.2759978  40.9680014
  61.4449992  36.4439978  40.2470014  60.7415927  36.9552779  40.2341205
  70.4709992  19.5209978  57.6040014  70.5469992  19.0949978  58.4570014
  71.3639992  19.5339978  57.2610014  70.6022303  19.4643493  57.6745497
  73.6469992  35.5939978  56.2960014  72.8649992  35.4069978  55.7760014
  73.5749992  36.5229978  56.5130014  73.5301924  35.6940637  56.2541602
  88.0529992  29.4799978  46.3270014  88.1419992  30.4239978  46.1950014
  87.4149992  29.2049978  45.6690014  87.9789062  29.5719812  46.2199641
  86.9859992  28.7349978  49.7460014  86.9479992  28.0889978  50.4510014
  86.6639992  28.2679978  48.9750014  86.9372679  28.5834276  49.7382921
  79.3539992  28.3489978  51.3390014  79.3959992  27.7239978  52.0620014
  80.0569992  28.9729978  51.5210014  79.4547345  28.3477873  51.4625274
  90.6919992  31.6739978  48.0470014  90.2509992  30.9539978  48.4980014
  90.6789992  32.3949978  48.6770014  90.6299215  31.6729291  48.1938105
  80.2779992  32.7989978  49.8740014  79.9079992  31.9969978  49.5040014
  81.2189992  32.6309978  49.9200014  80.3545984  32.6664638  49.8295603
  76.8879992  26.4589978  45.2660014  76.4399992  27.3049978  45.2480014
  76.3269992  25.8799978  44.7510014  76.7508546  26.4963993  45.1938891
  77.5979992  28.6209978  47.3920014  77.8119992  27.8509978  47.9200014
  78.3359992  28.7109978  46.7890014  77.7270200  28.5278586  47.3827035
  87.8039992  36.7779978  48.2590014  88.4229992  36.1019978  47.9860014
  87.5949992  36.5599978  49.1680014  87.8606056  36.6558869  48.3443967
  85.3749992  31.1669978  50.1520014  85.6789992  30.4809978  49.5570014
  86.0969992  31.2859978  50.7700014  85.5141240  31.0892314  50.1540959
  94.0379992  22.7689978  51.0120014  94.0879992  23.3789978  51.7480014
  94.4639992  23.2299978  50.2890014  94.1024108  22.9147709  51.0150112
  88.5159992  25.5609978  50.4790014  88.6589992  24.6149978  50.4990014
  88.4099992  25.7679978  49.5510014  88.5212403  25.4594797  50.3562239
  81.6709992  23.6629978  47.7520014  81.7139992  24.5229978  47.3330014
  81.2129992  23.1109978  47.1180014  81.6149871  23.7059245  47.6090761
  89.3929992  23.7939978  46.1530014  90.0399992  23.4649978  46.7770014
  89.9029992  24.3109978  45.5300014  89.5504351  23.8189067  46.1541037
  78.2909992  26.0599978  48.5140014  78.9449992  25.5099978  48.9460014
  78.3149992  25.7859978  47.5970014  78.3837199  25.9477167  48.4491668
  83.4479992  27.6099978  47.7290014  84.0639992  27.0829978  48.2380014
  82.8609992  26.9699978  47.3250014  83.4530154  27.4513954  47.7440945
  94.4299992  24.2469978  53.2480014  93.7409992  24.9049978  53.1530014
  94.4449992  24.0489978  54.1850014  94.3377756  24.3102603  53.3615812
  80.4809992  22.5809978  51.8260014  80.2619992  23.1109978  51.0590014
  79.8129992  22.8069978  52.4730014  80.3606975  22.6840967  51.8085140
  87.8499992  32.0809978  45.3700014  87.5549992  31.7579978  44.5180014
  87.5259992  32.9809978  45.4110014  87.7658460  32.1584464  45.2589714
  83.0499992  30.2559978  52.1130014  82.3099992  30.8549978  52.2170014
  83.7639992  30.8099978  51.7980014  83.0453500  30.4127829  52.0846371
  91.1569992  23.0849978  48.1330014  90.9419992  22.3189978  48.6660014
  91.8129992  23.5569978  48.6460014  91.2162673  23.0440728  48.2751990
  80.0749992  24.4729978  49.7780014  80.6889992  25.1059978  50.1510014
  80.5869992  24.0009978  49.1220014  80.2281962  24.4957249  49.7402935
  81.4579992  32.2209978  52.9000014  81.4519992  33.0999978  52.5220014
  80.6039992  32.1369978  53.3250014  81.3417925  32.3299535  52.9056887
  77.5789992  31.8919978  43.6820014  77.3069992  32.1209978  42.7940014
  77.6239992  32.7289978  44.1430014  77.5478097  32.0366163  43.6226683
  91.2039992  33.5129978  50.3950014  90.2619992  33.5719978  50.5570014
  91.4799992  34.4189978  50.2580014  91.1125865  33.6435288  50.3986192
  91.5039992  21.7999978  51.8120014  90.7679992  22.4099978  51.7750014
  92.1879992  22.2149978  51.2860014  91.4955367  21.9397551  51.7358174
  84.5079992  19.8859978  49.2780014  84.3899992  18.9379978  49.2240014
  83.6529992  20.2189978  49.5510014  84.3762805  19.8012202  49.3075079
  89.4559992  35.2939978  47.0200014  89.8809992  34.5869978  46.5350014
  89.7729992  36.0959978  46.6030014  89.5570266  35.3055190  46.8972479
  90.6159992  33.1949978  45.5290014  90.3579992  32.5049978  44.9170014
  90.6869992  32.7519978  46.3740014  90.5903050  33.0406814  45.5595621
  92.3019992  31.7619978  54.0060014  92.4409992  31.1699978  53.2670014
  92.4689992  32.6349978  53.6500014  92.3436193  31.7988896  53.8566211
  86.7739992  28.7239978  43.7790014  86.0629992  29.2589978  43.4270014
  87.4649992  28.7789978  43.1190014  86.7700751  28.8046777  43.6415858
  86.8279992  27.1809978  40.8170014  87.5289992  27.2039978  41.4690014
  87.1299992  26.5529978  40.1610014  86.9648202  27.0992212  40.8175609
  94.1429992  28.1019978  52.0720014  93.4909992  28.7959978  52.1610014
  94.6089992  28.3119978  51.2620014  94.1165937  28.2255019  51.9747533
  90.1799992  28.9329978  44.7300014  89.4479992  29.1619978  45.3040014
  90.6269992  28.2199978  45.1850014  90.1403963  28.8678729  44.8699945
  90.0769992  27.1079978  53.7980014  90.1569992  27.8709978  54.3700014
  89.4759992  27.3869978  53.1080014  90.0066547  27.2502457  53.7830047
  81.8249992  29.5639978  46.6130014  81.4949992  29.1929978  45.7950014
  82.4139992  28.8929978  46.9600014  81.8593970  29.4226063  46.5479404
  83.1919992  32.9919978  49.2940014  83.0969992  32.4129978  48.5380014
  83.9209992  32.6209978  49.7900014  83.2776011  32.8625561  49.2576028
  82.1919992  28.3319978  50.2460014  82.7569992  28.4539978  49.4840014
  82.5109992  28.9699978  50.8850014  82.3124166  28.4348791  50.2280348
  88.5009992  33.8359978  50.9800014  88.2609992  34.4979978  51.6280014
  88.3029992  33.0009978  51.4050014  88.4413826  33.8138115  51.1261566
  83.0719992  32.7319978  54.9640014  82.7609992  33.5139978  55.4190014
  82.4219992  32.5789978  54.2780014  82.9415538  32.8184087  54.9335898
  89.0509992  28.0959978  42.4160014  89.6299992  28.2459978  43.1620014
  89.4649992  28.5659978  41.6920014  89.1863358  28.1800954  42.4203953
  79.9919992  28.9299978  54.1920014  80.0619992  29.5809978  54.8910014
  79.1009992  29.0329978  53.8570014  79.8811690  29.0329249  54.2423043
  86.7769992  34.8319978  45.8510014  87.2509992  35.1279978  46.6280014
  86.2139992  35.5709978  45.6180014  86.7657890  34.9723036  45.9258101
  81.3109992  34.8029978  55.7270014  81.3189992  34.6669978  54.7800014
  80.3949992  34.6859978  55.9790014  81.1882528  34.7685463  55.6313243
  92.7499992  19.8459978  42.2290014  91.8499992  19.9849978  42.5240014
  93.0019992  20.6769978  41.8270014  92.6608683  19.9774055  42.2150232
  80.8159992  28.6329978  44.2020014  80.5239992  29.4009978  43.7110014
  80.1409992  27.9739978  44.0390014  80.6848497  28.6489745  44.1128260
  93.9389992  34.2119978  40.6050014  94.0119992  35.1509978  40.7750014
  94.8439992  33.9069978  40.5490014  94.0714170  34.2993282  40.6207063
  76.9089992  30.9959978  53.0170014  76.4069992  30.9679978  52.2020014
  76.9139992  30.0909978  53.3270014  76.8409832  30.8697486  52.9474121
  76.6589992  33.7769978  49.9010014  77.6049992  33.6319978  49.8820014
  76.5459992  34.5609978  50.4380014  76.7733578  33.8631697  49.9710317
  94.8569992  34.4429978  55.5840014  94.8069992  33.4869978  55.5460014
  94.0299992  34.7099978  55.9850014  94.7383831  34.3484680  55.6330121
  85.8349992  34.0169978  54.4600014  85.9229992  34.8429978  54.9350014
  84.9719992  33.6869978  54.7090014  85.7303357  34.0855468  54.5587653
  86.2499992  37.7889978  44.2660014  86.1739992  37.6679978  43.3190014
  86.2819992  38.7379978  44.3840014  86.2439380  37.9007677  44.1525181
  79.9029992  36.5779978  46.0470014  80.0549992  36.2299978  46.9250014
  79.0519992  36.2209978  45.7910014  79.8088344  36.4820879  46.1326868
  89.3509992  36.9429978  41.2680014  89.7259992  36.1989978  40.7970014
  89.3559992  36.6729978  42.1860014  89.4030098  36.8046392  41.3276629
  89.0199992  36.8689978  44.0170014  88.0849992  36.9689978  44.1960014
  89.2999992  36.1589978  44.5960014  88.9299471  36.7867933  44.1196695
  92.0089992  25.9359978  56.0640014  91.6009992  26.4159978  55.3430014
  92.0489992  25.0299978  55.7560014  91.9586221  25.8792449  55.9238267
  79.1579992  32.3199978  54.0600014  79.3739992  31.9579978  54.9200014
  78.3019992  31.9449978  53.8510014  79.0718810  32.2198837  54.1492680
  81.7759992  20.7899978  50.0560014  80.9149992  20.7029978  49.6480014
  81.7539992  21.6459978  50.4840014  81.6550491  20.8938003  50.0579582
  86.4389992  20.5119978  53.4310014  86.8589992  20.0969978  54.1840014
  85.5059992  20.3329978  53.5480014  86.3703736  20.4309910  53.5498968
  89.7659992  24.2669978  54.2840014  89.2519992  24.1419978  55.0820014
  89.6099992  25.1799978  54.0400014  89.6746967  24.3732123  54.3600937
  90.5279992  29.1279978  40.0450014  90.5699992  28.9059978  39.1150014
  91.3769992  29.5269978  40.2350014  90.6485253  29.1515498  39.9433822
  86.1009992  23.0039978  40.7160014  85.8469992  23.0229978  41.6380014
  85.8439992  22.1329978  40.4140014  86.0314508  22.8888280  40.8014803
  81.8669992  25.7549978  51.1510014  81.2259992  25.7149978  51.8600014
  81.9049992  26.6819978  50.9130014  81.7843010  25.8747668  51.2159946
  81.8639992  25.9759978  46.0630014  80.9719992  25.6359978  46.0040014
  82.3149992  25.5989978  45.3070014  81.8027642  25.8784910  45.9527726
  87.3999992  26.3919978  44.8800014  86.9909992  27.2069978  44.5880014
  88.1199992  26.2519978  44.2660014  87.4414439  26.4845372  44.7570115
  86.5019992  26.5679978  56.3680014  85.9389992  25.8629978  56.6890014
  87.3279992  26.4469978  56.8360014  86.5366674  26.4552165  56.4751751
  88.4049992  25.8379978  47.6940014  88.2089992  26.4439978  46.9790014
  88.5859992  25.0049978  47.2600014  88.4026584  25.8082513  47.5374212
  79.6169992  26.0759978  53.0180014  79.5789992  26.4759978  53.8870014
  79.1269992  25.2589978  53.1080014  79.5455330  26.0202674  53.1491289
  82.9829992  23.4499978  39.8170014  82.5519992  23.0049978  40.5460014
  82.2649992  23.8209978  39.3040014  82.8269176  23.4392051  39.8474930
  76.2259992  23.1919978  46.8690014  76.8559992  23.1629978  47.5880014
  76.6749992  22.7669978  46.1380014  76.3730835  23.1305660  46.8687659
  77.4999992  23.9379978  42.2930014  77.9739992  24.5289978  41.7080014
  76.7819992  24.4679978  42.6400014  77.4678640  24.0905511  42.2597969
  87.6689992  27.4759978  52.3650014  87.9919992  26.8449978  51.7220014
  87.2279992  26.9419978  53.0260014  87.6536379  27.3173468  52.3662582
  84.4459992  23.4039978  47.1490014  83.5349992  23.4609978  47.4380014
  84.9509992  23.3439978  47.9600014  84.3896873  23.4036826  47.2981207
  79.2739992  25.0329978  45.9760014  78.3849992  25.1319978  45.6360014
  79.5709992  24.1909978  45.6300014  79.1924177  24.9327687  45.8826940
  82.9269992  25.0329978  43.6330014  83.8589992  25.1619978  43.8110014
  82.7119992  25.7019978  42.9830014  83.0254472  25.1410806  43.5694891
  88.8509992  22.6389978  50.4140014  88.1739992  22.7699978  51.0770014
  88.3659992  22.4839978  49.6030014  88.6927405  22.6359947  50.3952170
  81.6009992  26.2269978  41.1990014  81.0589992  25.8479978  40.5080014
  82.4349992  26.4219978  40.7710014  81.6394390  26.2014079  41.0464392
  92.1389992  38.3099978  56.6900014  92.3379992  38.7339978  55.8560014
  92.7939992  38.6539978  57.2970014  92.2548522  38.4146301  56.6577852
  79.7369992  30.7839978  56.2980014  80.4689992  31.0389978  56.8600014
  78.9559992  30.9889978  56.8140014  79.7316526  30.8465450  56.4445176
  85.7659992  26.1909978  49.0360014  86.3299992  25.6449978  48.4890014
  85.6179992  25.6699978  49.8250014  85.8233037  26.0456787  49.0677229
  80.7679992  22.3279978  45.4550014  80.4509992  21.4249978  45.4190014
  81.5489992  22.3299978  44.9020014  80.8302431  22.2047797  45.3753102
  84.3919992  24.5799978  51.4500014  83.5569992  25.0339978  51.5610014
  84.9159992  24.8559978  52.2020014  84.3486072  24.6793948  51.5668136
  84.9369992  30.7929978  43.1350014  84.1919992  30.2849978  42.8130014
  84.8019992  30.8419978  44.0810014  84.8168963  30.7301731  43.2188826
  92.0869992  29.9259978  51.9220014  92.7279992  30.3819978  51.3780014
  91.2559992  30.0389978  51.4590014  92.0625287  30.0036921  51.7849887
  88.8339992  23.6069978  41.3340014  87.8959992  23.7179978  41.1830014
  89.1319992  24.4629978  41.6410014  88.7456318  23.7380158  41.3548145
  86.4559992  30.9769978  54.3720014  86.1099992  30.5949978  55.1790014
  86.2559992  31.9099978  54.4430014  86.3815987  31.0509002  54.4920461
  89.5529992  25.4739978  42.9950014  90.4449992  25.3359978  43.3140014
  89.6089992  26.2649978  42.4580014  89.6827325  25.5619918  42.9661217
  80.0609992  30.0879978  48.9050014  80.8059992  30.0849978  48.3030014
  80.1389992  29.2639978  49.3860014  80.1733365  29.9762384  48.8877430
  87.0619992  32.2509978  42.1600014  86.7669992  33.0779978  42.5420014
  86.3589992  31.6319978  42.3570014  86.9266379  32.2804171  42.2388654
  77.0689992  28.5479978  54.2200014  77.2919992  28.1299978  55.0510014
  76.4669992  27.9359978  53.7970014  77.0181513  28.4079606  54.2766740
  84.0859992  28.0649978  56.4330014  83.7899992  27.8999978  55.5370014
  85.0169992  27.8449978  56.4220014  84.1714401  28.0126879  56.3090206
  88.7059992  33.4389978  54.3220014  87.8059992  33.6219978  54.0550014
  88.7399992  33.6979978  55.2430014  88.5873748  33.4990554  54.4099164
  94.4379992  25.6829978  42.6900014  93.8829992  25.2869978  42.0170014
  94.5379992  26.5939978  42.4120014  94.3756816  25.7519505  42.5605033
  94.4009992  31.4839978  55.5270014  93.5499992  31.7219978  55.1590014
  94.9909992  31.4669978  54.7740014  94.3643812  31.5142524  55.3748453
  92.7329992  34.4689978  43.1550014  92.3599992  33.6439978  43.4640014
  93.0099992  34.2859978  42.2570014  92.7193463  34.3312569  43.0759525
  89.8929992  29.2769978  50.1760014  88.9649992  29.0459978  50.1490014
  90.3439992  28.4999978  49.8460014  89.8268165  29.1402774  50.1276790
  82.4359992  33.6059978  46.3090014  82.9639992  34.3789978  46.1090014
  81.5559992  33.8299978  46.0070014  82.3893435  33.7422700  46.2407310
  78.1909992  28.4679978  40.8960014  78.8069992  29.0949978  41.2760014
  77.3289992  28.7839978  41.1680014  78.1587678  28.5964412  40.9847209
  83.8639992  31.2689978  45.8850014  83.6229992  32.1939978  45.9270014
  83.1229992  30.8099978  46.2820014  83.7309206  31.3335915  45.9443769
  84.3779992  35.4179978  52.2000014  84.7409992  36.2719978  51.9670014
  84.9099992  35.1259978  52.9410014  84.4995141  35.4953895  52.2682097
  82.5469992  36.2899978  45.4310014  81.5969992  36.3959978  45.4820014
  82.8989992  37.1109978  45.7750014  82.4645472  36.4154923  45.4844852
  87.9219992  31.5169978  51.9010014  87.4969992  31.2889978  52.7270014
  88.5029992  30.7779978  51.7190014  87.9423395  31.3859545  51.9894414
  90.1249992  32.4459978  40.9750014  90.4789992  32.0659978  41.7790014
  89.1769992  32.3519978  41.0620014  90.0452298  32.3812452  41.0968687
  90.5809992  36.0689978  54.3700014  89.9789992  35.5129978  53.8750014
  90.8619992  36.7359978  53.7440014  90.5365757  36.0830744  54.2175675
  94.6289992  36.9249978  41.1760014  95.3729992  37.5109978  41.0360014
  93.9349992  37.4939978  41.5090014  94.6369809  37.0820818  41.2018590
  78.7029992  23.3019978  53.7780014  77.8109992  23.6399978  53.7100014
  78.6049992  22.4459978  54.1960014  78.5674475  23.2326543  53.8251704
  90.9909992  31.1179978  43.2020014  90.7139992  30.3899978  43.7580014
  91.9189992  31.2369978  43.4070014  91.0784499  31.0344213  43.3058044
  78.3549992  35.1059978  52.2130014  78.5719992  34.1739978  52.1820014
  78.6009992  35.3809978  53.0960014  78.4179809  35.0155686  52.3281691
  84.2159992  33.5579978  39.4220014  84.4549992  32.8089978  38.8750014
  83.9469992  33.1699978  40.2550014  84.2123233  33.4031853  39.4597809
  83.1529992  33.1279978  41.8780014  83.2999992  32.6079978  42.6680014
  83.1499992  34.0349978  42.1850014  83.1727102  33.1793953  42.0275925
  79.6059992  30.3799978  42.3890014  78.9199992  30.7329978  42.9560014
  80.1289992  31.1429978  42.1420014  79.5828402  30.5313901  42.4331801
  87.4379992  23.0429978  52.6680014  88.1369992  23.1169978  53.3180014
  87.0569992  22.1779978  52.8220014  87.4822097  22.9362389  52.7777997
  88.2219992  22.6949978  43.7650014  88.4419992  23.1659978  42.9610014
  88.7809992  23.0889978  44.4350014  88.3276731  22.8127287  43.7455033
  85.8909992  34.8249978  42.6280014  85.0739992  35.3219978  42.6800014
  86.4199992  35.3009978  41.9870014  85.8508125  34.9571989  42.5485306
  85.4219992  24.4229978  44.6000014  86.2339992  24.9269978  44.6460014
  85.1779992  24.2779978  45.5140014  85.5001467  24.4723749  44.7298575
  85.9579992  25.4089978  53.7840014  86.0769992  25.9829978  54.5410014
  86.6129992  24.7209978  53.8990014  86.0628684  25.3945194  53.9031674
  86.3059992  21.5039978  45.5380014  85.9589992  22.1209978  46.1820014
  86.9649992  22.0049978  45.0560014  86.3475090  21.6561575  45.5610681
  83.2289992  35.8689978  42.6090014  83.3899992  36.6689978  42.1090014
  83.0319992  36.1759978  43.4940014  83.2243906  36.0198678  42.6602333
  81.9639992  22.5669978  42.2250014  81.8799992  23.4549978  42.5720014
  82.8539992  22.3019978  42.4570014  82.0728163  22.6527179  42.3038596
  92.1619992  23.3159978  54.6190014  91.2459992  23.5779978  54.5320014
  92.4979992  23.3129978  53.7230014  92.0818499  23.3515163  54.4858766
  90.7649992  27.0659978  48.7150014  89.9669992  26.6509978  48.3870014
  91.2099992  26.3759978  49.2060014  90.7159684  26.9158628  48.7365227
  80.2219992  32.9939978  41.2850014  80.8139992  33.6939978  41.5620014
  80.6809992  32.5609978  40.5660014  80.3651652  33.0312675  41.2256533
  78.5379992  25.6589978  40.4010014  78.4929992  26.5979978  40.5800014
  77.6499992  25.4229978  40.1320014  78.4118166  25.7556687  40.3891524
  91.8509992  36.3219978  50.3370014  91.6949992  37.0009978  49.6800014
  92.7839992  36.3939978  50.5400014  91.9557387  36.4246390  50.2745342
  79.3459992  20.4399978  49.0750014  79.1169992  20.4989978  48.1470014
  78.9039992  19.6489978  49.3810014  79.2548801  20.3410540  48.9894729
  78.2769992  34.3809978  45.2350014  77.4439992  34.8529978  45.2620014
  78.8219992  34.8909978  44.6360014  78.2367857  34.5144791  45.1577142
  77.5649992  36.9929978  56.5650014  78.1049992  36.7769978  57.3250014
  77.0839992  36.1879978  56.3750014  77.5739219  36.8545156  56.6434282
  82.1619992  35.9129978  58.1850014  82.9299992  35.4539978  58.5260014
  82.1409992  35.6869978  57.2550014  82.2642135  35.8196668  58.1059491
  86.2539992  35.4209978  39.5610014  85.6099992  34.7899978  39.8820014
  87.0159992  34.8899978  39.3290014  86.2688058  35.2627902  39.5736038
  88.7389992  34.2929978  56.9140014  88.3879992  33.4359978  57.1580014
  89.4649992  34.4349978  57.5210014  88.7891895  34.1951351  57.0293770
  90.8589992  35.2379978  39.7940014  91.1419992  34.4429978  40.2470014
  91.5979992  35.4709978  39.2330014  90.9977096  35.1607049  39.7801104
  77.4719992  30.8039978  57.5190014  77.6159992  29.9019978  57.2330014
  76.6999992  31.0899978  57.0320014  77.3872733  30.7191798  57.4139532
  81.8129992  31.1469978  39.6520014  81.8779992  30.3529978  40.1820014
  82.4659992  31.0289978  38.9620014  81.9101605  31.0223430  39.6312997
  84.1269992  30.7729978  56.9520014  83.7989992  31.0439978  56.0950014
  84.2789992  29.8319978  56.8640014  84.1026412  30.6829046  56.8227822
  87.1659992  32.1939978  39.3880014  86.8969992  32.3749978  40.2880014
  86.9589992  31.2689978  39.2560014  87.1011191  32.0937119  39.4935524
  89.8619992  30.6889978  54.3350014  90.6069992  31.2779978  54.2160014
  89.1049992  31.2709978  54.3990014  89.8615470  30.8482128  54.3273799
  78.3049992  28.0039978  56.9390014  78.7129992  27.1469978  56.8180014
  78.0439992  28.0179978  57.8600014  78.3256016  27.8885119  57.0469192
  82.9629992  29.1199978  41.9580014  82.5029992  28.6359978  42.6430014
  83.2179992  28.4509978  41.3220014  82.9344856  28.9633669  41.9658397
  82.2519992  27.0129978  54.3140014  81.6329992  27.6869978  54.5940014
  82.5959992  27.3339978  53.4800014  82.2137123  27.1486887  54.2396388
  84.0339992  27.3629978  40.2200014  83.8529992  27.2079978  39.2930014
  84.9839992  27.4709978  40.2650014  84.1376566  27.3563669  40.0990929
  87.2709992  29.4839978  57.5910014  88.2249992  29.5679978  57.5640014
  87.1109992  28.7719978  58.2110014  87.3797182  29.3992842  57.6710733
  93.4239992  29.7169978  39.6660014  93.1499992  29.2929978  38.8530014
  93.4629992  30.6489978  39.4490014  93.3917716  29.7848827  39.5254286
  82.5909992  24.3679978  55.3960014  82.7409992  23.6389978  54.7940014
  82.5929992  25.1449978  54.8370014  82.6117967  24.3732708  55.2380541
  83.0039992  22.7369978  52.8890014  83.5389992  23.1889978  52.2370014
  82.1509992  22.6289978  52.4660014  82.9620374  22.7842665  52.7426710
  84.5849992  28.1769978  53.1280014  85.3359992  28.0209978  52.5550014
  84.2459992  29.0289978  52.8530014  84.6419587  28.2708138  53.0124078
  89.0009992  25.9919978  58.1570014  89.1929992  25.0609978  58.0450014
  89.8589992  26.4169978  58.1460014  89.1432182  25.9220070  58.1401862
  90.3179992  28.7809978  56.2340014  90.0359992  29.4899978  55.6560014
  91.2599992  28.7079978  56.0830014  90.4067921  28.8682193  56.1344225
  81.0699992  25.5659978  57.3070014  80.3019992  25.0329978  57.0970014
  81.7479992  25.2559978  56.7080014  81.0567235  25.4511754  57.1972413
  83.8089992  20.1939978  53.3200014  83.7109992  21.1399978  53.2150014
  83.0669992  19.8209978  52.8440014  83.6952534  20.2731773  53.2412600
  85.0729992  24.5149978  56.8840014  84.8379992  24.2959978  57.7850014
  84.2899992  24.3079978  56.3740014  84.9349095  24.4569892  56.9385353
  87.7889992  23.6429978  55.9590014  86.8409992  23.6749978  56.0910014
  88.1009992  23.0169978  56.6130014  87.7015293  23.5627923  56.0654148
  89.4229992  22.2769978  57.9640014  89.3259992  21.3249978  57.9590014
  89.1009992  22.5449978  58.8250014  89.3662468  22.1830884  58.0796210
  79.2499992  23.4859978  57.0120014  79.4619992  22.7799978  56.4020014
  79.1389992  23.0489978  57.8560014  79.2640269  23.3301921  57.0425873
  84.0309992  19.4879978  55.9910014  84.7429992  18.8479978  55.9770014
  83.9299992  19.7539978  55.0780014  84.1147387  19.4364330  55.8655563
  84.3849992  21.1699978  58.0450014  84.2529992  20.6949978  57.2250014
  83.7849992  21.9149978  57.9900014  84.2859070  21.2055789  57.9253251
  83.9309992  38.0529978  41.2210014  84.8639992  38.2109978  41.3650014
  83.6669992  38.7289978  40.5960014  84.0229911  38.1659373  41.1562722
  77.4989992  32.6899978  40.7040014  78.4129992  32.7689978  40.9770014
  77.5069992  32.0029978  40.0380014  77.6250655  32.6079205  40.6512917
  76.1479992  38.0829978  45.7810014  75.5009992  37.6209978  45.2490014
  76.5029992  37.4109978  46.3640014  76.1073741  37.9289774  45.7869175
  77.0179992  36.1629978  47.5860014  76.6839992  35.2829978  47.7580014
  77.2409992  36.5089978  48.4510014  77.0023721  36.0891938  47.7264168
  94.5669992  36.9729978  50.5670014  94.5449992  37.1579978  51.5060014
  95.2569992  37.5409978  50.2260014  94.6573439  37.0751887  50.6494791
  94.1299992  36.5399978  53.4880014  93.6429992  35.8049978  53.1170014
  94.6789992  36.1459978  54.1660014  94.1375247  36.3861057  53.5288461
  92.5809992  32.3299978  58.1270014  91.7149992  32.2249978  58.5210014
  92.9569992  33.0879978  58.5730014  92.5133401  32.4181708  58.2412620
  93.8819992  30.5859978  43.6410014  94.7319992  31.0069978  43.7680014
  93.8869992  29.8459978  44.2480014  93.9991143  30.5436094  43.7404750
  94.2759992  28.6399978  45.4640014  93.5499992  28.1599978  45.8620014
  94.8579992  28.8449978  46.1970014  94.2552730  28.6020184  45.6174149
  94.0349992  31.4249978  50.4120014  94.8689992  31.0469978  50.1310014
  94.1469992  32.3679978  50.2930014  94.1641917  31.5007943  50.3574861
  92.5219992  34.3029978  52.7190014  91.8739992  34.6279978  53.3440014
  92.0039992  33.8619978  52.0450014  92.3634196  34.2878651  52.7134152
  94.5449992  28.5409978  41.8550014  94.0229992  28.8969978  41.1370014
  94.5119992  29.2159978  42.5340014  94.4690129  28.6809598  41.8483355
  92.8939992  25.7799978  40.4060014  92.9899992  26.4469978  39.7260014
  92.7539992  24.9649978  39.9250014  92.8882040  25.7610671  40.2478378
  92.0629992  27.1609978  46.0270014  91.9129992  26.2159978  46.0070014
  91.7089992  27.4419978  46.8710014  91.9946351  27.0696644  46.1383220
  77.0979992  29.2389978  50.0380014  77.2829992  29.1569978  49.1020014
  77.9479992  29.1149978  50.4610014  77.2380928  29.2110463  49.9672893
  92.9189992  29.1309978  55.6660014  93.5019992  28.3959978  55.8580014
  93.4829992  29.9029978  55.7130014  93.0749781  29.1348145  55.6986164
  94.4159992  27.0339978  56.3510014  93.5529992  26.6549978  56.1850014
  95.0199992  26.2949978  56.2760014  94.3796085  26.8823223  56.3181695
  92.1409992  23.1879978  39.5240014  92.7519992  22.8169978  40.1610014
  91.3039992  22.7669978  39.7200014  92.1114947  23.0802756  39.6377252
  91.7739992  24.7429978  44.4900014  92.0529992  23.8359978  44.6140014
  92.5329992  25.1769978  44.1010014  91.9148619  24.6774502  44.4543795
  92.3849992  25.3249978  49.9260014  93.3179992  25.5369978  49.8910014
  92.1499992  25.4259978  50.8480014  92.4809517  25.3676833  50.0459130
  92.4149992  26.0619978  52.7020014  91.5719992  26.3299978  53.0680014
  92.8569992  26.8839978  52.4910014  92.3594138  26.2098273  52.7235518
  76.6959992  24.5089978  56.1780014  77.6149992  24.3869978  56.4150014
  76.2459992  23.7589978  56.5680014  76.7610087  24.3909608  56.2631410
  94.6979992  20.0419978  58.0550014  95.0469992  19.3879978  57.4500014
  94.8449992  20.8789978  57.6150014  94.7656824  20.0656024  57.9126304
  92.3869992  22.0059978  44.5380014  92.5689992  21.5569978  45.3630014
  91.7869992  21.4219978  44.0740014  92.3308187  21.8655552  44.5882739
  77.9169992  22.8219978  49.0700014  78.3619992  22.0299978  49.3720014
  78.3829992  23.5379978  49.5000014  78.0409718  22.8104534  49.1695265
  76.2209992  25.8209978  50.1390014  76.7129992  25.5999978  49.3480014
  76.5829992  26.6609978  50.4200014  76.3372923  25.9043468  50.0687407
  94.2169992  22.1509978  56.4040014  93.2999992  22.4219978  56.3690014
  94.3399992  21.6159978  55.6200014  94.1079672  22.1157885  56.2931862
  94.2539992  22.0739978  41.0660014  94.6659992  21.3529978  40.5910014
  94.9349992  22.7429978  41.1240014  94.4025536  22.0657766  41.0088024
  76.5349992  22.0789978  44.1930014  75.6099992  22.2869978  44.0640014
  76.9889992  22.5629978  43.5030014  76.4696298  22.1729299  44.0820451
  91.3049992  37.0629978  46.1390014  91.9579992  36.7149978  45.5310014
  91.8159992  37.5509978  46.7850014  91.4632777  37.0813815  46.1432047
  76.4979992  20.8169978  52.5370014  75.8329992  20.5709978  53.1800014
  76.0549992  21.4389978  51.9600014  76.3471168  20.8674214  52.5469848
  78.6899992  33.9919978  56.6820014  77.8689992  34.1669978  56.2210014
  78.4379992  33.9189978  57.6020014  78.5435594  34.0060717  56.7433611
  81.6439992  34.9659978  52.9400014  81.2199992  35.7759978  52.6580014
  82.5489992  35.0519978  52.6380014  81.7082138  35.0884160  52.8606415
  85.9559992  36.3649978  55.9000014  86.1399992  36.0319978  56.7780014
  86.8019992  36.6749978  55.5780014  86.0956484  36.3612979  55.9767617
  88.3009992  37.6509978  55.1440014  88.9779992  37.0179978  54.9040014
  88.6219992  38.0519978  55.9510014  88.4371323  37.6185691  55.2203158
  93.2179992  20.2409978  54.2230014  92.4049992  20.5659978  53.8360014
  93.4509992  19.4799978  53.6900014  93.1381347  20.1826880  54.0979841
  79.0459992  38.2229978  52.9880014  78.3259992  38.6629978  52.5370014
  78.6809992  37.9719978  53.8360014  78.8979643  38.2493369  53.0409129
  81.5129992  37.8229978  52.0180014  80.6489992  37.8949978  52.4220014
  81.4579992  38.3699978  51.2340014  81.3871942  37.9067849  51.9674000
  86.2239992  37.7109978  51.1930014  85.7669992  38.2399978  50.5390014
  86.3869992  38.3139978  51.9180014  86.1834960  37.8649280  51.2015274
  88.5519992  36.5889978  52.1380014  87.6469992  36.7539978  51.8720014
  88.9799992  37.4419978  52.0720014  88.4861537  36.7269134  52.0927095
  91.1559992  38.1589978  52.4330014  90.9739992  39.0749978  52.2220014
  91.3329992  37.7479978  51.5860014  91.1550030  38.2288273  52.2897166
  78.4609992  36.8459978  49.8980014  78.4429992  36.4199978  50.7550014
  79.2659992  36.5269978  49.4890014  78.5672875  36.7446435  49.9599515
  80.6019992  35.5559978  48.5530014  80.3829992  34.6389978  48.7230014
  81.4259992  35.6959978  49.0190014  80.6834702  35.4495511  48.6392527
  83.1389992  36.0259978  49.4020014  83.3519992  35.1379978  49.1150014
  83.2039992  35.9909978  50.3560014  83.1769149  35.8998326  49.4917369
  86.6479992  21.6899978  48.5460014  85.9739992  21.0599978  48.8020014
  87.2119992  21.2059978  47.9430014  86.6320384  21.5383708  48.4995020
  91.7909992  19.7969978  48.6590014  92.3939992  20.3449978  48.1570014
  90.9209992  20.1159978  48.4180014  91.7559157  19.9150373  48.5577910
  93.5179992  20.9359978  46.9920014  94.1289992  20.4219978  46.4650014
  93.8999992  21.8129978  47.0150014  93.6533305  20.9842050  46.9229418
  78.9749992  20.3239978  46.3680014  78.1979992  20.0889978  45.8610014
  79.5049992  19.5269978  46.3770014  78.9403451  20.1841268  46.2998627
  77.8109992  20.1219978  42.1720014  78.2499992  20.7329978  41.5800014
  77.1769992  20.6599978  42.6460014  77.7853859  20.2784064  42.1550305
  83.5539992  20.2499978  46.1810014  84.4279992  20.6389978  46.1520014
  83.4179992  20.0349978  47.1040014  83.6551953  20.2741643  46.3017617
  89.1109992  20.2799978  47.8310014  89.1869992  20.3759978  46.8810014
  88.8359992  19.3729978  47.9590014  89.0841871  20.1704146  47.7183944
  90.4639992  20.3059978  43.5230014  89.7609992  20.9209978  43.3130014
  90.0189992  19.4689978  43.6540014  90.3076550  20.2769668  43.5119837
  77.7119992  36.0699978  43.0690014  77.0269992  36.0319978  42.4020014
  77.7159992  36.9829978  43.3570014  77.6187621  36.1881924  43.0166126
  79.6719992  22.0379978  40.6140014  80.1629992  21.4079978  40.0870014
  80.2949992  22.3339978  41.2770014  79.8235304  21.9917376  40.6314940
  84.6979992  22.3309978  43.0710014  84.8759992  21.6839978  43.7540014
  84.6439992  23.1649978  43.5380014  84.7150678  22.3551604  43.2276301
  86.5759992  37.2789978  41.4670014  87.4419992  37.6459978  41.2890014
  86.3299992  36.8399978  40.6530014  86.6612097  37.2698525  41.3326019
  93.2849992  36.8419978  44.1460014  93.0909992  36.0939978  43.5810014
  93.2459992  37.5999978  43.5630014  93.2531645  36.8420786  43.9898148
  78.9319992  20.8379978  55.8860014  78.5659992  20.0719978  56.3280014
  79.8449992  20.8669978  56.1720014  79.0053172  20.7370324  55.9851890
  80.9049992  20.1879978  57.4210014  81.8039992  19.9139978  57.2370014
  80.5189992  19.4459978  57.8860014  80.9757307  20.0502196  57.4587098
  79.5299992  36.9899978  40.0940014  79.2619992  37.2759978  40.9680014
  80.3009992  36.4439978  40.2470014  79.5975926  36.9552779  40.2341205
  89.3269992  19.5209978  57.6040014  89.4029992  19.0949978  58.4570014
  90.2199992  19.5339978  57.2610014  89.4582303  19.4643493  57.6745497
  92.5029992  35.5939978  56.2960014  91.7209992  35.4069978  55.7760014
  92.4309992  36.5229978  56.5130014  92.3861924  35.6940637  56.2541602
 106.9089992  29.4799978  46.3270014 106.9979992  30.4239978  46.1950014
 106.2709992  29.2049978  45.6690014 106.8349062  29.5719812  46.2199641
 105.8419992  28.7349978  49.7460014 105.8039992  28.0889978  50.4510014
 105.5199992  28.2679978  48.9750014 105.7932679  28.5834276  49.7382921
  98.2099992  28.3489978  51.3390014  98.2519992  27.7239978  52.0620014
  98.9129992  28.9729978  51.5210014  98.3107345  28.3477873  51.4625274
 109.5479992  31.6739978  48.0470014 109.1069992  30.9539978  48.4980014
 109.5349992  32.3949978  48.6770014 109.4859215  31.6729291  48.1938105
  99.1339992  32.7989978  49.8740014  98.7639992  31.9969978  49.5040014
 100.0749992  32.6309978  49.9200014  99.2105984  32.6664638  49.8295603
  95.7439992  26.4589978  45.2660014  95.2959992  27.3049978  45.2480014
  95.1829992  25.8799978  44.7510014  95.6068546  26.4963993  45.1938891
  96.4539992  28.6209978  47.3920014  96.6679992  27.8509978  47.9200014
  97.1919992  28.7109978  46.7890014  96.5830200  28.5278586  47.3827035
 106.6599992  36.7779978  48.2590014 107.2789992  36.1019978  47.9860014
 106.4509992  36.5599978  49.1680014 106.7166056  36.6558869  48.3443967
 104.2309992  31.1669978  50.1520014 104.5349992  30.4809978  49.5570014
 104.9529992  31.2859978  50.7700014 104.3701240  31.0892314  50.1540959
 112.8939992  22.7689978  51.0120014 112.9439992  23.3789978  51.7480014
 113.3199992  23.2299978  50.2890014 112.9584108  22.9147709  51.0150112
 107.3719992  25.5609978  50.4790014 107.5149992  24.6149978  50.4990014
 107.2659992  25.7679978  49.5510014 107.3772403  25.4594797  50.3562239
 100.5269992  23.6629978  47.7520014 100.5699992  24.5229978  47.3330014
 100.0689992  23.1109978  47.1180014 100.4709871  23.7059245  47.6090761
 108.2489992  23.7939978  46.1530014 108.8959992  23.4649978  46.7770014
 108.7589992  24.3109978  45.5300014 108.4064351  23.8189067  46.1541037
  97.1469992  26.0599978  48.5140014  97.8009992  25.5099978  48.9460014
  97.1709992  25.7859978  47.5970014  97.2397199  25.9477167  48.4491668
 102.3039992  27.6099978  47.7290014 102.9199992  27.0829978  48.2380014
 101.7169992  26.9699978  47.3250014 102.3090154  27.4513954  47.7440945
 113.2859992  24.2469978  53.2480014 112.5969992  24.9049978  53.1530014
 113.3009992  24.0489978  54.1850014 113.1937756  24.3102603  53.3615812
  99.3369992  22.5809978  51.8260014  99.1179992  23.1109978  51.0590014
  98.6689992  22.8069978  52.4730014  99.2166975  22.6840967  51.8085140
 106.7059992  32.0809978  45.3700014 106.4109992  31.7579978  44.5180014
 106.3819992  32.9809978  45.4110014 106.6218460  32.1584464  45.2589714
 101.9059992  30.2559978  52.1130014 101.1659992  30.8549978  52.2170014
 102.6199992  30.8099978  51.7980014 101.9013500  30.4127829  52.0846371
 110.0129992  23.0849978  48.1330014 109.7979992  22.3189978  48.6660014
 110.6689992  23.5569978  48.6460014 110.0722673  23.0440728  48.2751990
  98.9309992  24.4729978  49.7780014  99.5449992  25.1059978  50.1510014
  99.4429992  24.0009978  49.1220014  99.0841962  24.4957249  49.7402935
 100.3139992  32.2209978  52.9000014 100.3079992  33.0999978  52.5220014
  99.4599992  32.1369978  53.3250014 100.1977925  32.3299535  52.9056887
  96.4349992  31.8919978  43.6820014  96.1629992  32.1209978  42.7940014
  96.4799992  32.7289978  44.1430014  96.4038097  32.0366163  43.6226683
 110.0599992  33.5129978  50.3950014 109.1179992  33.5719978  50.5570014
 110.3359992  34.4189978  50.2580014 109.9685865  33.6435288  50.3986192
 110.3599992  21.7999978  51.8120014 109.6239992  22.4099978  51.7750014
 111.0439992  22.2149978  51.2860014 110.3515367  21.9397551  51.7358174
 103.3639992  19.8859978  49.2780014 103.2459992  18.9379978  49.2240014
 102.5089992  20.2189978  49.5510014 103.2322805  19.8012202  49.3075079
 108.3119992  35.2939978  47.0200014 108.7369992  34.5869978  46.5350014
 108.6289992  36.0959978  46.6030014 108.4130266  35.3055190  46.8972479
 109.4719992  33.1949978  45.5290014 109.2139992  32.5049978  44.9170014
 109.5429992  32.7519978  46.3740014 109.4463050  33.0406814  45.5595621
 111.1579992  31.7619978  54.0060014 111.2969992  31.1699978  53.2670014
 111.3249992  32.6349978  53.6500014 111.1996193  31.7988896  53.8566211
 105.6299992  28.7239978  43.7790014 104.9189992  29.2589978  43.4270014
 106.3209992  28.7789978  43.1190014 105.6260751  28.8046777  43.6415858
 105.6839992  27.1809978  40.8170014 106.3849992  27.2039978  41.4690014
 105.9859992  26.5529978  40.1610014 105.8208202  27.0992212  40.8175609
 112.9989992  28.1019978  52.0720014 112.3469992  28.7959978  52.1610014
 113.4649992  28.3119978  51.2620014 112.9725937  28.2255019  51.9747533
 109.0359992  28.9329978  44.7300014 108.3039992  29.1619978  45.3040014
 109.4829992  28.2199978  45.1850014 108.9963963  28.8678729  44.8699945
 108.9329992  27.1079978  53.7980014 109.0129992  27.8709978  54.3700014
 108.3319992  27.3869978  53.1080014 108.8626547  27.2502457  53.7830047
 100.6809992  29.5639978  46.6130014 100.3509992  29.1929978  45.7950014
 101.2699992  28.8929978  46.9600014 100.7153970  29.4226063  46.5479404
 102.0479992  32.9919978  49.2940014 101.9529992  32.4129978  48.5380014
 102.7769992  32.6209978  49.7900014 102.1336011  32.8625561  49.2576028
 101.0479992  28.3319978  50.2460014 101.6129992  28.4539978  49.4840014
 101.3669992  28.9699978  50.8850014 101.1684166  28.4348791  50.2280348
 107.3569992  33.8359978  50.9800014 107.1169992  34.4979978  51.6280014
 107.1589992  33.0009978  51.4050014 107.2973826  33.8138115  51.1261566
 101.9279992  32.7319978  54.9640014 101.6169992  33.5139978  55.4190014
 101.2779992  32.5789978  54.2780014 101.7975538  32.8184087  54.9335898
 107.9069992  28.0959978  42.4160014 108.4859992  28.2459978  43.1620014
 108.3209992  28.5659978  41.6920014 108.0423358  28.1800954  42.4203953
  98.8479992  28.9299978  54.1920014  98.9179992  29.5809978  54.8910014
  97.9569992  29.0329978  53.8570014  98.7371690  29.0329249  54.2423043
 105.6329992  34.8319978  45.8510014 106.1069992  35.1279978  46.6280014
 105.0699992  35.5709978  45.6180014 105.6217890  34.9723036  45.9258101
 100.1669992  34.8029978  55.7270014 100.1749992  34.6669978  54.7800014
  99.2509992  34.6859978  55.9790014 100.0442528  34.7685463  55.6313243
 111.6059992  19.8459978  42.2290014 110.7059992  19.9849978  42.5240014
 111.8579992  20.6769978  41.8270014 111.5168683  19.9774055  42.2150232
  99.6719992  28.6329978  44.2020014  99.3799992  29.4009978  43.7110014
  98.9969992  27.9739978  44.0390014  99.5408497  28.6489745  44.1128260
 112.7949992  34.2119978  40.6050014 112.8679992  35.1509978  40.7750014
 113.6999992  33.9069978  40.5490014 112.9274170  34.2993282  40.6207063
  95.7649992  30.9959978  53.0170014  95.2629992  30.9679978  52.2020014
  95.7699992  30.0909978  53.3270014  95.6969832  30.8697486  52.9474121
  95.5149992  33.7769978  49.9010014  96.4609992  33.6319978  49.8820014
  95.4019992  34.5609978  50.4380014  95.6293578  33.8631697  49.9710317
 113.7129992  34.4429978  55.5840014 113.6629992  33.4869978  55.5460014
 112.8859992  34.7099978  55.9850014 113.5943831  34.3484680  55.6330121
 104.6909992  34.0169978  54.4600014 104.7789992  34.8429978  54.9350014
 103.8279992  33.6869978  54.7090014 104.5863357  34.0855468  54.5587653
 105.1059992  37.7889978  44.2660014 105.0299992  37.6679978  43.3190014
 105.1379992  38.7379978  44.3840014 105.0999380  37.9007677  44.1525181
  98.7589992  36.5779978  46.0470014  98.9109992  36.2299978  46.9250014
  97.9079992  36.2209978  45.7910014  98.6648344  36.4820879  46.1326868
 108.2069992  36.9429978  41.2680014 108.5819992  36.1989978  40.7970014
 108.2119992  36.6729978  42.1860014 108.2590098  36.8046392  41.3276629
 107.8759992  36.8689978  44.0170014 106.9409992  36.9689978  44.1960014
 108.1559992  36.1589978  44.5960014 107.7859471  36.7867933  44.1196695
 110.8649992  25.9359978  56.0640014 110.4569992  26.4159978  55.3430014
 110.9049992  25.0299978  55.7560014 110.8146221  25.8792449  55.9238267
  98.0139992  32.3199978  54.0600014  98.2299992  31.9579978  54.9200014
  97.1579992  31.9449978  53.8510014  97.9278810  32.2198837  54.1492680
 100.6319992  20.7899978  50.0560014  99.7709992  20.7029978  49.6480014
 100.6099992  21.6459978  50.4840014 100.5110491  20.8938003  50.0579582
 105.2949992  20.5119978  53.4310014 105.7149992  20.0969978  54.1840014
 104.3619992  20.3329978  53.5480014 105.2263736  20.4309910  53.5498968
 108.6219992  24.2669978  54.2840014 108.1079992  24.1419978  55.0820014
 108.4659992  25.1799978  54.0400014 108.5306967  24.3732123  54.3600937
 109.3839992  29.1279978  40.0450014 109.4259992  28.9059978  39.1150014
 110.2329992  29.5269978  40.2350014 109.5045253  29.1515498  39.9433822
 104.9569992  23.0039978  40.7160014 104.7029992  23.0229978  41.6380014
 104.6999992  22.1329978  40.4140014 104.8874508  22.8888280  40.8014803
 100.7229992  25.7549978  51.1510014 100.0819992  25.7149978  51.8600014
 100.7609992  26.6819978  50.9130014 100.6403010  25.8747668  51.2159946
 100.7199992  25.9759978  46.0630014  99.8279992  25.6359978  46.0040014
 101.1709992  25.5989978  45.3070014 100.6587642  25.8784910  45.9527726
 106.2559992  26.3919978  44.8800014 105.8469992  27.2069978  44.5880014
 106.9759992  26.2519978  44.2660014 106.2974439  26.4845372  44.7570115
 105.3579992  26.5679978  56.3680014 104.7949992  25.8629978  56.6890014
 106.1839992  26.4469978  56.8360014 105.3926674  26.4552165  56.4751751
 107.2609992  25.8379978  47.6940014 107.0649992  26.4439978  46.9790014
 107.4419992  25.0049978  47.2600014 107.2586584  25.8082513  47.5374212
  98.4729992  26.0759978  53.0180014  98.4349992  26.4759978  53.8870014
  97.9829992  25.2589978  53.1080014  98.4015330  26.0202674  53.1491289
 101.8389992  23.4499978  39.8170014 101.4079992  23.0049978  40.5460014
 101.1209992  23.8209978  39.3040014 101.6829176  23.4392051  39.8474930
  95.0819992  23.1919978  46.8690014  95.7119992  23.1629978  47.5880014
  95.5309992  22.7669978  46.1380014  95.2290835  23.1305660  46.8687659
  96.3559992  23.9379978  42.2930014  96.8299992  24.5289978  41.7080014
  95.6379992  24.4679978  42.6400014  96.3238640  24.0905511  42.2597969
 106.5249992  27.4759978  52.3650014 106.8479992  26.8449978  51.7220014
 106.0839992  26.9419978  53.0260014 106.5096379  27.3173468  52.3662582
 103.3019992  23.4039978  47.1490014 102.3909992  23.4609978  47.4380014
 103.8069992  23.3439978  47.9600014 103.2456873  23.4036826  47.2981207
  98.1299992  25.0329978  45.9760014  97.2409992  25.1319978  45.6360014
  98.4269992  24.1909978  45.6300014  98.0484177  24.9327687  45.8826940
 101.7829992  25.0329978  43.6330014 102.7149992  25.1619978  43.8110014
 101.5679992  25.7019978  42.9830014 101.8814472  25.1410806  43.5694891
 107.7069992  22.6389978  50.4140014 107.0299992  22.7699978  51.0770014
 107.2219992  22.4839978  49.6030014 107.5487405  22.6359947  50.3952170
 100.4569992  26.2269978  41.1990014  99.9149992  25.8479978  40.5080014
 101.2909992  26.4219978  40.7710014 100.4954390  26.2014079  41.0464392
 110.9949992  38.3099978  56.6900014 111.1939992  38.7339978  55.8560014
 111.6499992  38.6539978  57.2970014 111.1108522  38.4146301  56.6577852
  98.5929992  30.7839978  56.2980014  99.3249992  31.0389978  56.8600014
  97.8119992  30.9889978  56.8140014  98.5876526  30.8465450  56.4445176
 104.6219992  26.1909978  49.0360014 105.1859992  25.6449978  48.4890014
 104.4739992  25.6699978  49.8250014 104.6793037  26.0456787  49.0677229
  99.6239992  22.3279978  45.4550014  99.3069992  21.4249978  45.4190014
 100.4049992  22.3299978  44.9020014  99.6862431  22.2047797  45.3753102
 103.2479992  24.5799978  51.4500014 102.4129992  25.0339978  51.5610014
 103.7719992  24.8559978  52.2020014 103.2046072  24.6793948  51.5668136
 103.7929992  30.7929978  43.1350014 103.0479992  30.2849978  42.8130014
 103.6579992  30.8419978  44.0810014 103.6728963  30.7301731  43.2188826
 110.9429992  29.9259978  51.9220014 111.5839992  30.3819978  51.3780014
 110.1119992  30.0389978  51.4590014 110.9185287  30.0036921  51.7849887
 107.6899992  23.6069978  41.3340014 106.7519992  23.7179978  41.1830014
 107.9879992  24.4629978  41.6410014 107.6016318  23.7380158  41.3548145
 105.3119992  30.9769978  54.3720014 104.9659992  30.5949978  55.1790014
 105.1119992  31.9099978  54.4430014 105.2375987  31.0509002  54.4920461
 108.4089992  25.4739978  42.9950014 109.3009992  25.3359978  43.3140014
 108.4649992  26.2649978  42.4580014 108.5387325  25.5619918  42.9661217
  98.9169992  30.0879978  48.9050014  99.6619992  30.0849978  48.3030014
  98.9949992  29.2639978  49.3860014  99.0293365  29.9762384  48.8877430
 105.9179992  32.2509978  42.1600014 105.6229992  33.0779978  42.5420014
 105.2149992  31.6319978  42.3570014 105.7826379  32.2804171  42.2388654
  95.9249992  28.5479978  54.2200014  96.1479992  28.1299978  55.0510014
  95.3229992  27.9359978  53.7970014  95.8741513  28.4079606  54.2766740
 102.9419992  28.0649978  56.4330014 102.6459992  27.8999978  55.5370014
 103.8729992  27.8449978  56.4220014 103.0274401  28.0126879  56.3090206
 107.5619992  33.4389978  54.3220014 106.6619992  33.6219978  54.0550014
 107.5959992  33.6979978  55.2430014 107.4433748  33.4990554  54.4099164
 113.2939992  25.6829978  42.6900014 112.7389992  25.2869978  42.0170014
 113.3939992  26.5939978  42.4120014 113.2316816  25.7519505  42.5605033
 113.2569992  31.4839978  55.5270014 112.4059992  31.7219978  55.1590014
 113.8469992  31.4669978  54.7740014 113.2203812  31.5142524  55.3748453
 111.5889992  34.4689978  43.1550014 111.2159992  33.6439978  43.4640014
 111.8659992  34.2859978  42.2570014 111.5753463  34.3312569  43.0759525
 108.7489992  29.2769978  50.1760014 107.8209992  29.0459978  50.1490014
 109.1999992  28.4999978  49.8460014 108.6828165  29.1402774  50.1276790
 101.2919992  33.6059978  46.3090014 101.8199992  34.3789978  46.1090014
 100.4119992  33.8299978  46.0070014 101.2453435  33.7422700  46.2407310
  97.0469992  28.4679978  40.8960014  97.6629992  29.0949978  41.2760014
  96.1849992  28.7839978  41.1680014  97.0147678  28.5964412  40.9847209
 102.7199992  31.2689978  45.8850014 102.4789992  32.1939978  45.9270014
 101.9789992  30.8099978  46.2820014 102.5869206  31.3335915  45.9443769
 103.2339992  35.4179978  52.2000014 103.5969992  36.2719978  51.9670014
 103.7659992  35.1259978  52.9410014 103.3555141  35.4953895  52.2682097
 101.4029992  36.2899978  45.4310014 100.4529992  36.3959978  45.4820014
 101.7549992  37.1109978  45.7750014 101.3205472  36.4154923  45.4844852
 106.7779992  31.5169978  51.9010014 106.3529992  31.2889978  52.7270014
 107.3589992  30.7779978  51.7190014 106.7983395  31.3859545  51.9894414
 108.9809992  32.4459978  40.9750014 109.3349992  32.0659978  41.7790014
 108.0329992  32.3519978  41.0620014 108.9012298  32.3812452  41.0968687
 109.4369992  36.0689978  54.3700014 108.8349992  35.5129978  53.8750014
 109.7179992  36.7359978  53.7440014 109.3925757  36.0830744  54.2175675
 113.4849992  36.9249978  41.1760014 114.2289992  37.5109978  41.0360014
 112.7909992  37.4939978  41.5090014 113.4929809  37.0820818  41.2018590
  97.5589992  23.3019978  53.7780014  96.6669992  23.6399978  53.7100014
  97.4609992  22.4459978  54.1960014  97.4234475  23.2326543  53.8251704
 109.8469992  31.1179978  43.2020014 109.5699992  30.3899978  43.7580014
 110.7749992  31.2369978  43.4070014 109.9344499  31.0344213  43.3058044
  97.2109992  35.1059978  52.2130014  97.4279992  34.1739978  52.1820014
  97.4569992  35.3809978  53.0960014  97.2739809  35.0155686  52.3281691
 103.0719992  33.5579978  39.4220014 103.3109992  32.8089978  38.8750014
 102.8029992  33.1699978  40.2550014 103.0683233  33.4031853  39.4597809
 102.0089992  33.1279978  41.8780014 102.1559992  32.6079978  42.6680014
 102.0059992  34.0349978  42.1850014 102.0287102  33.1793953  42.0275925
  98.4619992  30.3799978  42.3890014  97.7759992  30.7329978  42.9560014
  98.9849992  31.1429978  42.1420014  98.4388402  30.5313901  42.4331801
 106.2939992  23.0429978  52.6680014 106.9929992  23.1169978  53.3180014
 105.9129992  22.1779978  52.8220014 106.3382097  22.9362389  52.7777997
 107.0779992  22.6949978  43.7650014 107.2979992  23.1659978  42.9610014
 107.6369992  23.0889978  44.4350014 107.1836731  22.8127287  43.7455033
 104.7469992  34.8249978  42.6280014 103.9299992  35.3219978  42.6800014
 105.2759992  35.3009978  41.9870014 104.7068125  34.9571989  42.5485306
 104.2779992  24.4229978  44.6000014 105.0899992  24.9269978  44.6460014
 104.0339992  24.2779978  45.5140014 104.3561467  24.4723749  44.7298575
 104.8139992  25.4089978  53.7840014 104.9329992  25.9829978  54.5410014
 105.4689992  24.7209978  53.8990014 104.9188684  25.3945194  53.9031674
 105.1619992  21.5039978  45.5380014 104.8149992  22.1209978  46.1820014
 105.8209992  22.0049978  45.0560014 105.2035090  21.6561575  45.5610681
 102.0849992  35.8689978  42.6090014 102.2459992  36.6689978  42.1090014
 101.8879992  36.1759978  43.4940014 102.0803906  36.0198678  42.6602333
 100.8199992  22.5669978  42.2250014 100.7359992  23.4549978  42.5720014
 101.7099992  22.3019978  42.4570014 100.9288163  22.6527179  42.3038596
 111.0179992  23.3159978  54.6190014 110.1019992  23.5779978  54.5320014
 111.3539992  23.3129978  53.7230014 110.9378499  23.3515163  54.4858766
 109.6209992  27.0659978  48.7150014 108.8229992  26.6509978  48.3870014
 110.0659992  26.3759978  49.2060014 109.5719684  26.9158628  48.7365227
  99.0779992  32.9939978  41.2850014  99.6699992  33.6939978  41.5620014
  99.5369992  32.5609978  40.5660014  99.2211652  33.0312675  41.2256533
  97.3939992  25.6589978  40.4010014  97.3489992  26.5979978  40.5800014
  96.5059992  25.4229978  40.1320014  97.2678166  25.7556687  40.3891524
 110.7069992  36.3219978  50.3370014 110.5509992  37.0009978  49.6800014
 111.6399992  36.3939978  50.5400014 110.8117387  36.4246390  50.2745342
  98.2019992  20.4399978  49.0750014  97.9729992  20.4989978  48.1470014
  97.7599992  19.6489978  49.3810014  98.1108801  20.3410540  48.9894729
  97.1329992  34.3809978  45.2350014  96.2999992  34.8529978  45.2620014
  97.6779992  34.8909978  44.6360014  97.0927857  34.5144791  45.1577142
  96.4209992  36.9929978  56.5650014  96.9609992  36.7769978  57.3250014
  95.9399992  36.1879978  56.3750014  96.4299219  36.8545156  56.6434282
 101.0179992  35.9129978  58.1850014 101.7859992  35.4539978  58.5260014
 100.9969992  35.6869978  57.2550014 101.1202135  35.8196668  58.1059491
 105.1099992  35.4209978  39.5610014 104.4659992  34.7899978  39.8820014
 105.8719992  34.8899978  39.3290014 105.1248058  35.2627902  39.5736038
 107.5949992  34.2929978  56.9140014 107.2439992  33.4359978  57.1580014
 108.3209992  34.4349978  57.5210014 107.6451895  34.1951351  57.0293770
 109.7149992  35.2379978  39.7940014 109.9979992  34.4429978  40.2470014
 110.4539992  35.4709978  39.2330014 109.8537096  35.1607049  39.7801104
  96.3279992  30.8039978  57.5190014  96.4719992  29.9019978  57.2330014
  95.5559992  31.0899978  57.0320014  96.2432733  30.7191798  57.4139532
 100.6689992  31.1469978  39.6520014 100.7339992  30.3529978  40.1820014
 101.3219992  31.0289978  38.9620014 100.7661605  31.0223430  39.6312997
 102.9829992  30.7729978  56.9520014 102.6549992  31.0439978  56.0950014
 103.1349992  29.8319978  56.8640014 102.9586412  30.6829046  56.8227822
 106.0219992  32.1939978  39.3880014 105.7529992  32.3749978  40.2880014
 105.8149992  31.2689978  39.2560014 105.9571191  32.0937119  39.4935524
 108.7179992  30.6889978  54.3350014 109.4629992  31.2779978  54.2160014
 107.9609992  31.2709978  54.3990014 108.7175470  30.8482128  54.3273799
  97.1609992  28.0039978  56.9390014  97.5689992  27.1469978  56.8180014
  96.8999992  28.0179978  57.8600014  97.1816016  27.8885119  57.0469192
 101.8189992  29.1199978  41.9580014 101.3589992  28.6359978  42.6430014
 102.0739992  28.4509978  41.3220014 101.7904856  28.9633669  41.9658397
 101.1079992  27.0129978  54.3140014 100.4889992  27.6869978  54.5940014
 101.4519992  27.3339978  53.4800014 101.0697123  27.1486887  54.2396388
 102.8899992  27.3629978  40.2200014 102.7089992  27.2079978  39.2930014
 103.8399992  27.4709978  40.2650014 102.9936566  27.3563669  40.0990929
 106.1269992  29.4839978  57.5910014 107.0809992  29.5679978  57.5640014
 105.9669992  28.7719978  58.2110014 106.2357182  29.3992842  57.6710733
 112.2799992  29.7169978  39.6660014 112.0059992  29.2929978  38.8530014
 112.3189992  30.6489978  39.4490014 112.2477716  29.7848827  39.5254286
 101.4469992  24.3679978  55.3960014 101.5969992  23.6389978  54.7940014
 101.4489992  25.1449978  54.8370014 101.4677967  24.3732708  55.2380541
 101.8599992  22.7369978  52.8890014 102.3949992  23.1889978  52.2370014
 101.0069992  22.6289978  52.4660014 101.8180374  22.7842665  52.7426710
 103.4409992  28.1769978  53.1280014 104.1919992  28.0209978  52.5550014
 103.1019992  29.0289978  52.8530014 103.4979587  28.2708138  53.0124078
 107.8569992  25.9919978  58.1570014 108.0489992  25.0609978  58.0450014
 108.7149992  26.4169978  58.1460014 107.9992182  25.9220070  58.1401862
 109.1739992  28.7809978  56.2340014 108.8919992  29.4899978  55.6560014
 110.1159992  28.7079978  56.0830014 109.2627921  28.8682193  56.1344225
  99.9259992  25.5659978  57.3070014  99.1579992  25.0329978  57.0970014
 100.6039992  25.2559978  56.7080014  99.9127235  25.4511754  57.1972413
 102.6649992  20.1939978  53.3200014 102.5669992  21.1399978  53.2150014
 101.9229992  19.8209978  52.8440014 102.5512534  20.2731773  53.2412600
 103.9289992  24.5149978  56.8840014 103.6939992  24.2959978  57.7850014
 103.1459992  24.3079978  56.3740014 103.7909095  24.4569892  56.9385353
 106.6449992  23.6429978  55.9590014 105.6969992  23.6749978  56.0910014
 106.9569992  23.0169978  56.6130014 106.5575293  23.5627923  56.0654148
 108.2789992  22.2769978  57.9640014 108.1819992  21.3249978  57.9590014
 107.9569992  22.5449978  58.8250014 108.2222468  22.1830884  58.0796210
  98.1059992  23.4859978  57.0120014  98.3179992  22.7799978  56.4020014
  97.9949992  23.0489978  57.8560014  98.1200269  23.3301921  57.0425873
 102.8869992  19.4879978  55.9910014 103.5989992  18.8479978  55.9770014
 102.7859992  19.7539978  55.0780014 102.9707387  19.4364330  55.8655563
 103.2409992  21.1699978  58.0450014 103.1089992  20.6949978  57.2250014
 102.6409992  21.9149978  57.9900014 103.1419070  21.2055789  57.9253251
 102.7869992  38.0529978  41.2210014 103.7199992  38.2109978  41.3650014
 102.5229992  38.7289978  40.5960014 102.8789911  38.1659373  41.1562722
  96.3549992  32.6899978  40.7040014  97.2689992  32.7689978  40.9770014
  96.3629992  32.0029978  40.0380014  96.4810655  32.6079205  40.6512917
  95.0039992  38.0829978  45.7810014  94.3569992  37.6209978  45.2490014
  95.3589992  37.4109978  46.3640014  94.9633741  37.9289774  45.7869175
  95.8739992  36.1629978  47.5860014  95.5399992  35.2829978  47.7580014
  96.0969992  36.5089978  48.4510014  95.8583721  36.0891938  47.7264168
 113.4229992  36.9729978  50.5670014 113.4009992  37.1579978  51.5060014
 114.1129992  37.5409978  50.2260014 113.5133439  37.0751887  50.6494791
 112.9859992  36.5399978  53.4880014 112.4989992  35.8049978  53.1170014
 113.5349992  36.1459978  54.1660014 112.9935247  36.3861057  53.5288461
 111.4369992  32.3299978  58.1270014 110.5709992  32.2249978  58.5210014
 111.8129992  33.0879978  58.5730014 111.3693401  32.4181708  58.2412620
 112.7379992  30.5859978  43.6410014 113.5879992  31.0069978  43.7680014
 112.7429992  29.8459978  44.2480014 112.8551143  30.5436094  43.7404750
 113.1319992  28.6399978  45.4640014 112.4059992  28.1599978  45.8620014
 113.7139992  28.8449978  46.1970014 113.1112730  28.6020184  45.6174149
 112.8909992  31.4249978  50.4120014 113.7249992  31.0469978  50.1310014
 113.0029992  32.3679978  50.2930014 113.0201917  31.5007943  50.3574861
 111.3779992  34.3029978  52.7190014 110.7299992  34.6279978  53.3440014
 110.8599992  33.8619978  52.0450014 111.2194196  34.2878651  52.7134152
 113.4009992  28.5409978  41.8550014 112.8789992  28.8969978  41.1370014
 113.3679992  29.2159978  42.5340014 113.3250129  28.6809598  41.8483355
 111.7499992  25.7799978  40.4060014 111.8459992  26.4469978  39.7260014
 111.6099992  24.9649978  39.9250014 111.7442040  25.7610671  40.2478378
 110.9189992  27.1609978  46.0270014 110.7689992  26.2159978  46.0070014
 110.5649992  27.4419978  46.8710014 110.8506351  27.0696644  46.1383220
  95.9539992  29.2389978  50.0380014  96.1389992  29.1569978  49.1020014
  96.8039992  29.1149978  50.4610014  96.0940928  29.2110463  49.9672893
 111.7749992  29.1309978  55.6660014 112.3579992  28.3959978  55.8580014
 112.3389992  29.9029978  55.7130014 111.9309781  29.1348145  55.6986164
 113.2719992  27.0339978  56.3510014 112.4089992  26.6549978  56.1850014
 113.8759992  26.2949978  56.2760014 113.2356085  26.8823223  56.3181695
 110.9969992  23.1879978  39.5240014 111.6079992  22.8169978  40.1610014
 110.1599992  22.7669978  39.7200014 110.9674947  23.0802756  39.6377252
 110.6299992  24.7429978  44.4900014 110.9089992  23.8359978  44.6140014
 111.3889992  25.1769978  44.1010014 110.7708619  24.6774502  44.4543795
 111.2409992  25.3249978  49.9260014 112.1739992  25.5369978  49.8910014
 111.0059992  25.4259978  50.8480014 111.3369517  25.3676833  50.0459130
 111.2709992  26.0619978  52.7020014 110.4279992  26.3299978  53.0680014
 111.7129992  26.8839978  52.4910014 111.2154138  26.2098273  52.7235518
  95.5519992  24.5089978  56.1780014  96.4709992  24.3869978  56.4150014
  95.1019992  23.7589978  56.5680014  95.6170087  24.3909608  56.2631410
 113.5539992  20.0419978  58.0550014 113.9029992  19.3879978  57.4500014
 113.7009992  20.8789978  57.6150014 113.6216824  20.0656024  57.9126304
 111.2429992  22.0059978  44.5380014 111.4249992  21.5569978  45.3630014
 110.6429992  21.4219978  44.0740014 111.1868187  21.8655552  44.5882739
  96.7729992  22.8219978  49.0700014  97.2179992  22.0299978  49.3720014
  97.2389992  23.5379978  49.5000014  96.8969718  22.8104534  49.1695265
  95.0769992  25.8209978  50.1390014  95.5689992  25.5999978  49.3480014
  95.4389992  26.6609978  50.4200014  95.1932923  25.9043468  50.0687407
 113.0729992  22.1509978  56.4040014 112.1559992  22.4219978  56.3690014
 113.1959992  21.6159978  55.6200014 112.9639672  22.1157885  56.2931862
 113.1099992  22.0739978  41.0660014 113.5219992  21.3529978  40.5910014
 113.7909992  22.7429978  41.1240014 113.2585536  22.0657766  41.0088024
  95.3909992  22.0789978  44.1930014  94.4659992  22.2869978  44.0640014
  95.8449992  22.5629978  43.5030014  95.3256298  22.1729299  44.0820451
 110.1609992  37.0629978  46.1390014 110.8139992  36.7149978  45.5310014
 110.6719992  37.5509978  46.7850014 110.3192777  37.0813815  46.1432047
  95.3539992  20.8169978  52.5370014  94.6889992  20.5709978  53.1800014
  94.9109992  21.4389978  51.9600014  95.2031168  20.8674214  52.5469848
  97.5459992  33.9919978  56.6820014  96.7249992  34.1669978  56.2210014
  97.2939992  33.9189978  57.6020014  97.3995594  34.0060717  56.7433611
 100.4999992  34.9659978  52.9400014 100.0759992  35.7759978  52.6580014
 101.4049992  35.0519978  52.6380014 100.5642138  35.0884160  52.8606415
 104.8119992  36.3649978  55.9000014 104.9959992  36.0319978  56.7780014
 105.6579992  36.6749978  55.5780014 104.9516484  36.3612979  55.9767617
 107.1569992  37.6509978  55.1440014 107.8339992  37.0179978  54.9040014
 107.4779992  38.0519978  55.9510014 107.2931323  37.6185691  55.2203158
 112.0739992  20.2409978  54.2230014 111.2609992  20.5659978  53.8360014
 112.3069992  19.4799978  53.6900014 111.9941347  20.1826880  54.0979841
  97.9019992  38.2229978  52.9880014  97.1819992  38.6629978  52.5370014
  97.5369992  37.9719978  53.8360014  97.7539643  38.2493369  53.0409129
 100.3689992  37.8229978  52.0180014  99.5049992  37.8949978  52.4220014
 100.3139992  38.3699978  51.2340014 100.2431942  37.9067849  51.9674000
 105.0799992  37.7109978  51.1930014 104.6229992  38.2399978  50.5390014
 105.2429992  38.3139978  51.9180014 105.0394960  37.8649280  51.2015274
 107.4079992  36.5889978  52.1380014 106.5029992  36.7539978  51.8720014
 107.8359992  37.4419978  52.0720014 107.3421537  36.7269134  52.0927095
 110.0119992  38.1589978  52.4330014 109.8299992  39.0749978  52.2220014
 110.1889992  37.7479978  51.5860014 110.0110030  38.2288273  52.2897166
  97.3169992  36.8459978  49.8980014  97.2989992  36.4199978  50.7550014
  98.1219992  36.5269978  49.4890014  97.4232875  36.7446435  49.9599515
  99.4579992  35.5559978  48.5530014  99.2389992  34.6389978  48.7230014
 100.2819992  35.6959978  49.0190014  99.5394702  35.4495511  48.6392527
 101.9949992  36.0259978  49.4020014 102.2079992  35.1379978  49.1150014
 102.0599992  35.9909978  50.3560014 102.0329149  35.8998326  49.4917369
 105.5039992  21.6899978  48.5460014 104.8299992  21.0599978  48.8020014
 106.0679992  21.2059978  47.9430014 105.4880384  21.5383708  48.4995020
 110.6469992  19.7969978  48.6590014 111.2499992  20.3449978  48.1570014
 109.7769992  20.1159978  48.4180014 110.6119157  19.9150373  48.5577910
 112.3739992  20.9359978  46.9920014 112.9849992  20.4219978  46.4650014
 112.7559992  21.8129978  47.0150014 112.5093305  20.9842050  46.9229418
  97.8309992  20.3239978  46.3680014  97.0539992  20.0889978  45.8610014
  98.3609992  19.5269978  46.3770014  97.7963451  20.1841268  46.2998627
  96.6669992  20.1219978  42.1720014  97.1059992  20.7329978  41.5800014
  96.0329992  20.6599978  42.6460014  96.6413859  20.2784064  42.1550305
 102.4099992  20.2499978  46.1810014 103.2839992  20.6389978  46.1520014
 102.2739992  20.0349978  47.1040014 102.5111953  20.2741643  46.3017617
 107.9669992  20.2799978  47.8310014 108.0429992  20.3759978  46.8810014
 107.6919992  19.3729978  47.9590014 107.9401871  20.1704146  47.7183944
 109.3199992  20.3059978  43.5230014 108.6169992  20.9209978  43.3130014
 108.8749992  19.4689978  43.6540014 109.1636550  20.2769668  43.5119837
  96.5679992  36.0699978  43.0690014  95.8829992  36.0319978  42.4020014
  96.5719992  36.9829978  43.3570014  96.4747621  36.1881924  43.0166126
  98.5279992  22.0379978  40.6140014  99.0189992  21.4079978  40.0870014
  99.1509992  22.3339978  41.2770014  98.6795304  21.9917376  40.6314940
 103.5539992  22.3309978  43.0710014 103.7319992  21.6839978  43.7540014
 103.4999992  23.1649978  43.5380014 103.5710678  22.3551604  43.2276301
 105.4319992  37.2789978  41.4670014 106.2979992  37.6459978  41.2890014
 105.1859992  36.8399978  40.6530014 105.5172097  37.2698525  41.3326019
 112.1409992  36.8419978  44.1460014 111.9469992  36.0939978  43.5810014
 112.1019992  37.5999978  43.5630014 112.1091645  36.8420786  43.9898148
  97.7879992  20.8379978  55.8860014  97.4219992  20.0719978  56.3280014
  98.7009992  20.8669978  56.1720014  97.8613172  20.7370324  55.9851890
  99.7609992  20.1879978  57.4210014 100.6599992  19.9139978  57.2370014
  99.3749992  19.4459978  57.8860014  99.8317307  20.0502196  57.4587098
  98.3859992  36.9899978  40.0940014  98.1179992  37.2759978  40.9680014
  99.1569992  36.4439978  40.2470014  98.4535926  36.9552779  40.2341205
 108.1829992  19.5209978  57.6040014 108.2589992  19.0949978  58.4570014
 109.0759992  19.5339978  57.2610014 108.3142303  19.4643493  57.6745497
 111.3589992  35.5939978  56.2960014 110.5769992  35.4069978  55.7760014
 111.2869992  36.5229978  56.5130014 111.2421924  35.6940637  56.2541602
 125.7649992  29.4799978  46.3270014 125.8539992  30.4239978  46.1950014
 125.1269992  29.2049978  45.6690014 125.6909062  29.5719812  46.2199641
 124.6979992  28.7349978  49.7460014 124.6599992  28.0889978  50.4510014
 124.3759992  28.2679978  48.9750014 124.6492679  28.5834276  49.7382921
 117.0659992  28.3489978  51.3390014 117.1079992  27.7239978  52.0620014
 117.7689992  28.9729978  51.5210014 117.1667345  28.3477873  51.4625274
 128.4039992  31.6739978  48.0470014 127.9629992  30.9539978  48.4980014
 128.3909992  32.3949978  48.6770014 128.3419215  31.6729291  48.1938105
 117.9899992  32.7989978  49.8740014 117.6199992  31.9969978  49.5040014
 118.9309992  32.6309978  49.9200014 118.0665984  32.6664638  49.8295603
 114.5999992  26.4589978  45.2660014 114.1519992  27.3049978  45.2480014
 114.0389992  25.8799978  44.7510014 114.4628546  26.4963993  45.1938891
 115.3099992  28.6209978  47.3920014 115.5239992  27.8509978  47.9200014
 116.0479992  28.7109978  46.7890014 115.4390200  28.5278586  47.3827035
 125.5159992  36.7779978  48.2590014 126.1349992  36.1019978  47.9860014
 125.3069992  36.5599978  49.1680014 125.5726056  36.6558869  48.3443967
 123.0869992  31.1669978  50.1520014 123.3909992  30.4809978  49.5570014
 123.8089992  31.2859978  50.7700014 123.2261240  31.0892314  50.1540959
 131.7499992  22.7689978  51.0120014 131.7999992  23.3789978  51.7480014
 132.1759992  23.2299978  50.2890014 131.8144108  22.9147709  51.0150112
 126.2279992  25.5609978  50.4790014 126.3709992  24.6149978  50.4990014
 126.1219992  25.7679978  49.5510014 126.2332403  25.4594797  50.3562239
 119.3829992  23.6629978  47.7520014 119.4259992  24.5229978  47.3330014
 118.9249992  23.1109978  47.1180014 119.3269871  23.7059245  47.6090761
 127.1049992  23.7939978  46.1530014 127.7519992  23.4649978  46.7770014
 127.6149992  24.3109978  45.5300014 127.2624351  23.8189067  46.1541037
 116.0029992  26.0599978  48.5140014 116.6569992  25.5099978  48.9460014
 116.0269992  25.7859978  47.5970014 116.0957199  25.9477167  48.4491668
 121.1599992  27.6099978  47.7290014 121.7759992  27.0829978  48.2380014
 120.5729992  26.9699978  47.3250014 121.1650154  27.4513954  47.7440945
 132.1419992  24.2469978  53.2480014 131.4529992  24.9049978  53.1530014
 132.1569992  24.0489978  54.1850014 132.0497756  24.3102603  53.3615812
 118.1929992  22.5809978  51.8260014 117.9739992  23.1109978  51.0590014
 117.5249992  22.8069978  52.4730014 118.0726975  22.6840967  51.8085140
 125.5619992  32.0809978  45.3700014 125.2669992  31.7579978  44.5180014
 125.2379992  32.9809978  45.4110014 125.4778460  32.1584464  45.2589714
 120.7619992  30.2559978  52.1130014 120.0219992  30.8549978  52.2170014
 121.4759992  30.8099978  51.7980014 120.7573500  30.4127829  52.0846371
 128.8689992  23.0849978  48.1330014 128.6539992  22.3189978  48.6660014
 129.5249992  23.5569978  48.6460014 128.9282673  23.0440728  48.2751990
 117.7869992  24.4729978  49.7780014 118.4009992  25.1059978  50.1510014
 118.2989992  24.0009978  49.1220014 117.9401962  24.4957249  49.7402935
 119.1699992  32.2209978  52.9000014 119.1639992  33.0999978  52.5220014
 118.3159992  32.1369978  53.3250014 119.0537925  32.3299535  52.9056887
 115.2909992  31.8919978  43.6820014 115.0189992  32.1209978  42.7940014
 115.3359992  32.7289978  44.1430014 115.2598097  32.0366163  43.6226683
 128.9159992  33.5129978  50.3950014 127.9739992  33.5719978  50.5570014
 129.1919992  34.4189978  50.2580014 128.8245865  33.6435288  50.3986192
 129.2159992  21.7999978  51.8120014 128.4799992  22.4099978  51.7750014
 129.8999992  22.2149978  51.2860014 129.2075367  21.9397551  51.7358174
 122.2199992  19.8859978  49.2780014 122.1019992  18.9379978  49.2240014
 121.3649992  20.2189978  49.5510014 122.0882805  19.8012202  49.3075079
 127.1679992  35.2939978  47.0200014 127.5929992  34.5869978  46.5350014
 127.4849992  36.0959978  46.6030014 127.2690266  35.3055190  46.8972479
 128.3279992  33.1949978  45.5290014 128.0699992  32.5049978  44.9170014
 128.3989992  32.7519978  46.3740014 128.3023050  33.0406814  45.5595621
 130.0139992  31.7619978  54.0060014 130.1529992  31.1699978  53.2670014
 130.1809992  32.6349978  53.6500014 130.0556193  31.7988896  53.8566211
 124.4859992  28.7239978  43.7790014 123.7749992  29.2589978  43.4270014
 125.1769992  28.7789978  43.1190014 124.4820751  28.8046777  43.6415858
 124.5399992  27.1809978  40.8170014 125.2409992  27.2039978  41.4690014
 124.8419992  26.5529978  40.1610014 124.6768202  27.0992212  40.8175609
 131.8549992  28.1019978  52.0720014 131.2029992  28.7959978  52.1610014
 132.3209992  28.3119978  51.2620014 131.8285937  28.2255019  51.9747533
 127.8919992  28.9329978  44.7300014 127.1599992  29.1619978  45.3040014
 128.3389992  28.2199978  45.1850014 127.8523963  28.8678729  44.8699945
 127.7889992  27.1079978  53.7980014 127.8689992  27.8709978  54.3700014
 127.1879992  27.3869978  53.1080014 127.7186547  27.2502457  53.7830047
 119.5369992  29.5639978  46.6130014 119.2069992  29.1929978  45.7950014
 120.1259992  28.8929978  46.9600014 119.5713970  29.4226063  46.5479404
 120.9039992  32.9919978  49.2940014 120.8089992  32.4129978  48.5380014
 121.6329992  32.6209978  49.7900014 120.9896011  32.8625561  49.2576028
 119.9039992  28.3319978  50.2460014 120.4689992  28.4539978  49.4840014
 120.2229992  28.9699978  50.8850014 120.0244166  28.4348791  50.2280348
 126.2129992  33.8359978  50.9800014 125.9729992  34.4979978  51.6280014
 126.0149992  33.0009978  51.4050014 126.1533826  33.8138115  51.1261566
 120.7839992  32.7319978  54.9640014 120.4729992  33.5139978  55.4190014
 120.1339992  32.5789978  54.2780014 120.6535538  32.8184087  54.9335898
 126.7629992  28.0959978  42.4160014 127.3419992  28.2459978  43.1620014
 127.1769992  28.5659978  41.6920014 126.8983358  28.1800954  42.4203953
 117.7039992  28.9299978  54.1920014 117.7739992  29.5809978  54.8910014
 116.8129992  29.0329978  53.8570014 117.5931690  29.0329249  54.2423043
 124.4889992  34.8319978  45.8510014 124.9629992  35.1279978  46.6280014
 123.9259992  35.5709978  45.6180014 124.4777890  34.9723036  45.9258101
 119.0229992  34.8029978  55.7270014 119.0309992  34.6669978  54.7800014
 118.1069992  34.6859978  55.9790014 118.9002528  34.7685463  55.6313243
 130.4619992  19.8459978  42.2290014 129.5619992  19.9849978  42.5240014
 130.7139992  20.6769978  41.8270014 130.3728683  19.9774055  42.2150232
 118.5279992  28.6329978  44.2020014 118.2359992  29.4009978  43.7110014
 117.8529992  27.9739978  44.0390014 118.3968497  28.6489745  44.1128260
 131.6509992  34.2119978  40.6050014 131.7239992  35.1509978  40.7750014
 132.5559992  33.9069978  40.5490014 131.7834170  34.2993282  40.6207063
 114.6209992  30.9959978  53.0170014 114.1189992  30.9679978  52.2020014
 114.6259992  30.0909978  53.3270014 114.5529832  30.8697486  52.9474121
 114.3709992  33.7769978  49.9010014 115.3169992  33.6319978  49.8820014
 114.2579992  34.5609978  50.4380014 114.4853578  33.8631697  49.9710317
 132.5689992  34.4429978  55.5840014 132.5189992  33.4869978  55.5460014
 131.7419992  34.7099978  55.9850014 132.4503831  34.3484680  55.6330121
 123.5469992  34.0169978  54.4600014 123.6349992  34.8429978  54.9350014
 122.6839992  33.6869978  54.7090014 123.4423357  34.0855468  54.5587653
 123.9619992  37.7889978  44.2660014 123.8859992  37.6679978  43.3190014
 123.9939992  38.7379978  44.3840014 123.9559380  37.9007677  44.1525181
 117.6149992  36.5779978  46.0470014 117.7669992  36.2299978  46.9250014
 116.7639992  36.2209978  45.7910014 117.5208344  36.4820879  46.1326868
 127.0629992  36.9429978  41.2680014 127.4379992  36.1989978  40.7970014
 127.0679992  36.6729978  42.1860014 127.1150098  36.8046392  41.3276629
 126.7319992  36.8689978  44.0170014 125.7969992  36.9689978  44.1960014
 127.0119992  36.1589978  44.5960014 126.6419471  36.7867933  44.1196695
 129.7209992  25.9359978  56.0640014 129.3129992  26.4159978  55.3430014
 129.7609992  25.0299978  55.7560014 129.6706221  25.8792449  55.9238267
 116.8699992  32.3199978  54.0600014 117.0859992  31.9579978  54.9200014
 116.0139992  31.9449978  53.8510014 116.7838810  32.2198837  54.1492680
 119.4879992  20.7899978  50.0560014 118.6269992  20.7029978  49.6480014
 119.4659992  21.6459978  50.4840014 119.3670491  20.8938003  50.0579582
 124.1509992  20.5119978  53.4310014 124.5709992  20.0969978  54.1840014
 123.2179992  20.3329978  53.5480014 124.0823736  20.4309910  53.5498968
 127.4779992  24.2669978  54.2840014 126.9639992  24.1419978  55.0820014
 127.3219992  25.1799978  54.0400014 127.3866967  24.3732123  54.3600937
 128.2399992  29.1279978  40.0450014 128.2819992  28.9059978  39.1150014
 129.0889992  29.5269978  40.2350014 128.3605253  29.1515498  39.9433822
 123.8129992  23.0039978  40.7160014 123.5589992  23.0229978  41.6380014
 123.5559992  22.1329978  40.4140014 123.7434508  22.8888280  40.8014803
 119.5789992  25.7549978  51.1510014 118.9379992  25.7149978  51.8600014
 119.6169992  26.6819978  50.9130014 119.4963010  25.8747668  51.2159946
 119.5759992  25.9759978  46.0630014 118.6839992  25.6359978  46.0040014
 120.0269992  25.5989978  45.3070014 119.5147642  25.8784910  45.9527726
 125.1119992  26.3919978  44.8800014 124.7029992  27.2069978  44.5880014
 125.8319992  26.2519978  44.2660014 125.1534439  26.4845372  44.7570115
 124.2139992  26.5679978  56.3680014 123.6509992  25.8629978  56.6890014
 125.0399992  26.4469978  56.8360014 124.2486674  26.4552165  56.4751751
 126.1169992  25.8379978  47.6940014 125.9209992  26.4439978  46.9790014
 126.2979992  25.0049978  47.2600014 126.1146584  25.8082513  47.5374212
 117.3289992  26.0759978  53.0180014 117.2909992  26.4759978  53.8870014
 116.8389992  25.2589978  53.1080014 117.2575330  26.0202674  53.1491289
 120.6949992  23.4499978  39.8170014 120.2639992  23.0049978  40.5460014
 119.9769992  23.8209978  39.3040014 120.5389176  23.4392051  39.8474930
 113.9379992  23.1919978  46.8690014 114.5679992  23.1629978  47.5880014
 114.3869992  22.7669978  46.1380014 114.0850835  23.1305660  46.8687659
 115.2119992  23.9379978  42.2930014 115.6859992  24.5289978  41.7080014
 114.4939992  24.4679978  42.6400014 115.1798640  24.0905511  42.2597969
 125.3809992  27.4759978  52.3650014 125.7039992  26.8449978  51.7220014
 124.9399992  26.9419978  53.0260014 125.3656379  27.3173468  52.3662582
 122.1579992  23.4039978  47.1490014 121.2469992  23.4609978  47.4380014
 122.6629992  23.3439978  47.9600014 122.1016873  23.4036826  47.2981207
 116.9859992  25.0329978  45.9760014 116.0969992  25.1319978  45.6360014
 117.2829992  24.1909978  45.6300014 116.9044177  24.9327687  45.8826940
 120.6389992  25.0329978  43.6330014 121.5709992  25.1619978  43.8110014
 120.4239992  25.7019978  42.9830014 120.7374472  25.1410806  43.5694891
 126.5629992  22.6389978  50.4140014 125.8859992  22.7699978  51.0770014
 126.0779992  22.4839978  49.6030014 126.4047405  22.6359947  50.3952170
 119.3129992  26.2269978  41.1990014 118.7709992  25.8479978  40.5080014
 120.1469992  26.4219978  40.7710014 119.3514390  26.2014079  41.0464392
 129.8509992  38.3099978  56.6900014 130.0499992  38.7339978  55.8560014
 130.5059992  38.6539978  57.2970014 129.9668522  38.4146301  56.6577852
 117.4489992  30.7839978  56.2980014 118.1809992  31.0389978  56.8600014
 116.6679992  30.9889978  56.8140014 117.4436526  30.8465450  56.4445176
 123.4779992  26.1909978  49.0360014 124.0419992  25.6449978  48.4890014
 123.3299992  25.6699978  49.8250014 123.5353037  26.0456787  49.0677229
 118.4799992  22.3279978  45.4550014 118.1629992  21.4249978  45.4190014
 119.2609992  22.3299978  44.9020014 118.5422431  22.2047797  45.3753102
 122.1039992  24.5799978  51.4500014 121.2689992  25.0339978  51.5610014
 122.6279992  24.8559978  52.2020014 122.0606072  24.6793948  51.5668136
 122.6489992  30.7929978  43.1350014 121.9039992  30.2849978  42.8130014
 122.5139992  30.8419978  44.0810014 122.5288963  30.7301731  43.2188826
 129.7989992  29.9259978  51.9220014 130.4399992  30.3819978  51.3780014
 128.9679992  30.0389978  51.4590014 129.7745287  30.0036921  51.7849887
 126.5459992  23.6069978  41.3340014 125.6079992  23.7179978  41.1830014
 126.8439992  24.4629978  41.6410014 126.4576318  23.7380158  41.3548145
 124.1679992  30.9769978  54.3720014 123.8219992  30.5949978  55.1790014
 123.9679992  31.9099978  54.4430014 124.0935987  31.0509002  54.4920461
 127.2649992  25.4739978  42.9950014 128.1569992  25.3359978  43.3140014
 127.3209992  26.2649978  42.4580014 127.3947325  25.5619918  42.9661217
 117.7729992  30.0879978  48.9050014 118.5179992  30.0849978  48.3030014
 117.8509992  29.2639978  49.3860014 117.8853365  29.9762384  48.8877430
 124.7739992  32.2509978  42.1600014 124.4789992  33.0779978  42.5420014
 124.0709992  31.6319978  42.3570014 124.6386379  32.2804171  42.2388654
 114.7809992  28.5479978  54.2200014 115.0039992  28.1299978  55.0510014
 114.1789992  27.9359978  53.7970014 114.7301513  28.4079606  54.2766740
 121.7979992  28.0649978  56.4330014 121.5019992  27.8999978  55.5370014
 122.7289992  27.8449978  56.4220014 121.8834401  28.0126879  56.3090206
 126.4179992  33.4389978  54.3220014 125.5179992  33.6219978  54.0550014
 126.4519992  33.6979978  55.2430014 126.2993748  33.4990554  54.4099164
 132.1499992  25.6829978  42.6900014 131.5949992  25.2869978  42.0170014
 132.2499992  26.5939978  42.4120014 132.0876816  25.7519505  42.5605033
 132.1129992  31.4839978  55.5270014 131.2619992  31.7219978  55.1590014
 132.7029992  31.4669978  54.7740014 132.0763812  31.5142524  55.3748453
 130.4449992  34.4689978  43.1550014 130.0719992  33.6439978  43.4640014
 130.7219992  34.2859978  42.2570014 130.4313463  34.3312569  43.0759525
 127.6049992  29.2769978  50.1760014 126.6769992  29.0459978  50.1490014
 128.0559992  28.4999978  49.8460014 127.5388165  29.1402774  50.1276790
 120.1479992  33.6059978  46.3090014 120.6759992  34.3789978  46.1090014
 119.2679992  33.8299978  46.0070014 120.1013435  33.7422700  46.2407310
 115.9029992  28.4679978  40.8960014 116.5189992  29.0949978  41.2760014
 115.0409992  28.7839978  41.1680014 115.8707678  28.5964412  40.9847209
 121.5759992  31.2689978  45.8850014 121.3349992  32.1939978  45.9270014
 120.8349992  30.8099978  46.2820014 121.4429206  31.3335915  45.9443769
 122.0899992  35.4179978  52.2000014 122.4529992  36.2719978  51.9670014
 122.6219992  35.1259978  52.9410014 122.2115141  35.4953895  52.2682097
 120.2589992  36.2899978  45.4310014 119.3089992  36.3959978  45.4820014
 120.6109992  37.1109978  45.7750014 120.1765472  36.4154923  45.4844852
 125.6339992  31.5169978  51.9010014 125.2089992  31.2889978  52.7270014
 126.2149992  30.7779978  51.7190014 125.6543395  31.3859545  51.9894414
 127.8369992  32.4459978  40.9750014 128.1909992  32.0659978  41.7790014
 126.8889992  32.3519978  41.0620014 127.7572298  32.3812452  41.0968687
 128.2929992  36.0689978  54.3700014 127.6909992  35.5129978  53.8750014
 128.5739992  36.7359978  53.7440014 128.2485757  36.0830744  54.2175675
 132.3409992  36.9249978  41.1760014 133.0849992  37.5109978  41.0360014
 131.6469992  37.4939978  41.5090014 132.3489809  37.0820818  41.2018590
 116.4149992  23.3019978  53.7780014 115.5229992  23.6399978  53.7100014
 116.3169992  22.4459978  54.1960014 116.2794475  23.2326543  53.8251704
 128.7029992  31.1179978  43.2020014 128.4259992  30.3899978  43.7580014
 129.6309992  31.2369978  43.4070014 128.7904499  31.0344213  43.3058044
 116.0669992  35.1059978  52.2130014 116.2839992  34.1739978  52.1820014
 116.3129992  35.3809978  53.0960014 116.1299809  35.0155686  52.3281690
 121.9279992  33.5579978  39.4220014 122.1669992  32.8089978  38.8750014
 121.6589992  33.1699978  40.2550014 121.9243233  33.4031853  39.4597809
 120.8649992  33.1279978  41.8780014 121.0119992  32.6079978  42.6680014
 120.8619992  34.0349978  42.1850014 120.8847102  33.1793953  42.0275925
 117.3179992  30.3799978  42.3890014 116.6319992  30.7329978  42.9560014
 117.8409992  31.1429978  42.1420014 117.2948402  30.5313901  42.4331801
 125.1499992  23.0429978  52.6680014 125.8489992  23.1169978  53.3180014
 124.7689992  22.1779978  52.8220014 125.1942097  22.9362389  52.7777997
 125.9339992  22.6949978  43.7650014 126.1539992  23.1659978  42.9610014
 126.4929992  23.0889978  44.4350014 126.0396731  22.8127287  43.7455033
 123.6029992  34.8249978  42.6280014 122.7859992  35.3219978  42.6800014
 124.1319992  35.3009978  41.9870014 123.5628125  34.9571989  42.5485306
 123.1339992  24.4229978  44.6000014 123.9459992  24.9269978  44.6460014
 122.8899992  24.2779978  45.5140014 123.2121467  24.4723749  44.7298575
 123.6699992  25.4089978  53.7840014 123.7889992  25.9829978  54.5410014
 124.3249992  24.7209978  53.8990014 123.7748684  25.3945194  53.9031674
 124.0179992  21.5039978  45.5380014 123.6709992  22.1209978  46.1820014
 124.6769992  22.0049978  45.0560014 124.0595090  21.6561575  45.5610681
 120.9409992  35.8689978  42.6090014 121.1019992  36.6689978  42.1090014
 120.7439992  36.1759978  43.4940014 120.9363906  36.0198678  42.6602333
 119.6759992  22.5669978  42.2250014 119.5919992  23.4549978  42.5720014
 120.5659992  22.3019978  42.4570014 119.7848163  22.6527179  42.3038596
 129.8739992  23.3159978  54.6190014 128.9579992  23.5779978  54.5320014
 130.2099992  23.3129978  53.7230014 129.7938499  23.3515163  54.4858766
 128.4769992  27.0659978  48.7150014 127.6789992  26.6509978  48.3870014
 128.9219992  26.3759978  49.2060014 128.4279684  26.9158628  48.7365227
 117.9339992  32.9939978  41.2850014 118.5259992  33.6939978  41.5620014
 118.3929992  32.5609978  40.5660014 118.0771652  33.0312675  41.2256533
 116.2499992  25.6589978  40.4010014 116.2049992  26.5979978  40.5800014
 115.3619992  25.4229978  40.1320014 116.1238166  25.7556687  40.3891524
 129.5629992  36.3219978  50.3370014 129.4069992  37.0009978  49.6800014
 130.4959992  36.3939978  50.5400014 129.6677387  36.4246390  50.2745342
 117.0579992  20.4399978  49.0750014 116.8289992  20.4989978  48.1470014
 116.6159992  19.6489978  49.3810014 116.9668801  20.3410540  48.9894729
 115.9889992  34.3809978  45.2350014 115.1559992  34.8529978  45.2620014
 116.5339992  34.8909978  44.6360014 115.9487857  34.5144791  45.1577142
 115.2769992  36.9929978  56.5650014 115.8169992  36.7769978  57.3250014
 114.7959992  36.1879978  56.3750014 115.2859219  36.8545156  56.6434282
 119.8739992  35.9129978  58.1850014 120.6419992  35.4539978  58.5260014
 119.8529992  35.6869978  57.2550014 119.9762135  35.8196668  58.1059491
 123.9659992  35.4209978  39.5610014 123.3219992  34.7899978  39.8820014
 124.7279992  34.8899978  39.3290014 123.9808058  35.2627902  39.5736038
 126.4509992  34.2929978  56.9140014 126.0999992  33.4359978  57.1580014
 127.1769992  34.4349978  57.5210014 126.5011895  34.1951351  57.0293770
 128.5709992  35.2379978  39.7940014 128.8539992  34.4429978  40.2470014
 129.3099992  35.4709978  39.2330014 128.7097096  35.1607049  39.7801104
 115.1839992  30.8039978  57.5190014 115.3279992  29.9019978  57.2330014
 114.4119992  31.0899978  57.0320014 115.0992733  30.7191798  57.4139532
 119.5249992  31.1469978  39.6520014 119.5899992  30.3529978  40.1820014
 120.1779992  31.0289978  38.9620014 119.6221605  31.0223430  39.6312997
 121.8389992  30.7729978  56.9520014 121.5109992  31.0439978  56.0950014
 121.9909992  29.8319978  56.8640014 121.8146412  30.6829046  56.8227822
 124.8779992  32.1939978  39.3880014 124.6089992  32.3749978  40.2880014
 124.6709992  31.2689978  39.2560014 124.8131191  32.0937119  39.4935524
 127.5739992  30.6889978  54.3350014 128.3189992  31.2779978  54.2160014
 126.8169992  31.2709978  54.3990014 127.5735470  30.8482128  54.3273799
 116.0169992  28.0039978  56.9390014 116.4249992  27.1469978  56.8180014
 115.7559992  28.0179978  57.8600014 116.0376016  27.8885119  57.0469192
 120.6749992  29.1199978  41.9580014 120.2149992  28.6359978  42.6430014
 120.9299992  28.4509978  41.3220014 120.6464856  28.9633669  41.9658397
 119.9639992  27.0129978  54.3140014 119.3449992  27.6869978  54.5940014
 120.3079992  27.3339978  53.4800014 119.9257123  27.1486887  54.2396388
 121.7459992  27.3629978  40.2200014 121.5649992  27.2079978  39.2930014
 122.6959992  27.4709978  40.2650014 121.8496566  27.3563669  40.0990929
 124.9829992  29.4839978  57.5910014 125.9369992  29.5679978  57.5640014
 124.8229992  28.7719978  58.2110014 125.0917182  29.3992842  57.6710733
 131.1359992  29.7169978  39.6660014 130.8619992  29.2929978  38.8530014
 131.1749992  30.6489978  39.4490014 131.1037716  29.7848827  39.5254286
 120.3029992  24.3679978  55.3960014 120.4529992  23.6389978  54.7940014
 120.3049992  25.1449978  54.8370014 120.3237967  24.3732708  55.2380541
 120.7159992  22.7369978  52.8890014 121.2509992  23.1889978  52.2370014
 119.8629992  22.6289978  52.4660014 120.6740374  22.7842665  52.7426710
 122.2969992  28.1769978  53.1280014 123.0479992  28.0209978  52.5550014
 121.9579992  29.0289978  52.8530014 122.3539587  28.2708138  53.0124078
 126.7129992  25.9919978  58.1570014 126.9049992  25.0609978  58.0450014
 127.5709992  26.4169978  58.1460014 126.8552182  25.9220070  58.1401862
 128.0299992  28.7809978  56.2340014 127.7479992  29.4899978  55.6560014
 128.9719992  28.7079978  56.0830014 128.1187921  28.8682193  56.1344225
 118.7819992  25.5659978  57.3070014 118.0139992  25.0329978  57.0970014
 119.4599992  25.2559978  56.7080014 118.7687235  25.4511754  57.1972413
 121.5209992  20.1939978  53.3200014 121.4229992  21.1399978  53.2150014
 120.7789992  19.8209978  52.8440014 121.4072534  20.2731773  53.2412600
 122.7849992  24.5149978  56.8840014 122.5499992  24.2959978  57.7850014
 122.0019992  24.3079978  56.3740014 122.6469095  24.4569892  56.9385353
 125.5009992  23.6429978  55.9590014 124.5529992  23.6749978  56.0910014
 125.8129992  23.0169978  56.6130014 125.4135293  23.5627923  56.0654148
 127.1349992  22.2769978  57.9640014 127.0379992  21.3249978  57.9590014
 126.8129992  22.5449978  58.8250014 127.0782468  22.1830884  58.0796210
 116.9619992  23.4859978  57.0120014 117.1739992  22.7799978  56.4020014
 116.8509992  23.0489978  57.8560014 116.9760269  23.3301921  57.0425873
 121.7429992  19.4879978  55.9910014 122.4549992  18.8479978  55.9770014
 121.6419992  19.7539978  55.0780014 121.8267387  19.4364330  55.8655563
 122.0969992  21.1699978  58.0450014 121.9649992  20.6949978  57.2250014
 121.4969992  21.9149978  57.9900014 121.9979070  21.2055789  57.9253251
 121.6429992  38.0529978  41.2210014 122.5759992  38.2109978  41.3650014
 121.3789992  38.7289978  40.5960014 121.7349911  38.1659373  41.1562722
 115.2109992  32.6899978  40.7040014 116.1249992  32.7689978  40.9770014
 115.2189992  32.0029978  40.0380014 115.3370655  32.6079205  40.6512917
 113.8599992  38.0829978  45.7810014 113.2129992  37.6209978  45.2490014
 114.2149992  37.4109978  46.3640014 113.8193741  37.9289774  45.7869175
 114.7299992  36.1629978  47.5860014 114.3959992  35.2829978  47.7580014
 114.9529992  36.5089978  48.4510014 114.7143721  36.0891938  47.7264168
 132.2789992  36.9729978  50.5670014 132.2569992  37.1579978  51.5060014
 132.9689992  37.5409978  50.2260014 132.3693439  37.0751887  50.6494791
 131.8419992  36.5399978  53.4880014 131.3549992  35.8049978  53.1170014
 132.3909992  36.1459978  54.1660014 131.8495247  36.3861057  53.5288461
 130.2929992  32.3299978  58.1270014 129.4269992  32.2249978  58.5210014
 130.6689992  33.0879978  58.5730014 130.2253401  32.4181708  58.2412620
 131.5939992  30.5859978  43.6410014 132.4439992  31.0069978  43.7680014
 131.5989992  29.8459978  44.2480014 131.7111143  30.5436094  43.7404750
 131.9879992  28.6399978  45.4640014 131.2619992  28.1599978  45.8620014
 132.5699992  28.8449978  46.1970014 131.9672730  28.6020184  45.6174149
 131.7469992  31.4249978  50.4120014 132.5809992  31.0469978  50.1310014
 131.8589992  32.3679978  50.2930014 131.8761917  31.5007943  50.3574861
 130.2339992  34.3029978  52.7190014 129.5859992  34.6279978  53.3440014
 129.7159992  33.8619978  52.0450014 130.0754196  34.2878651  52.7134152
 132.2569992  28.5409978  41.8550014 131.7349992  28.8969978  41.1370014
 132.2239992  29.2159978  42.5340014 132.1810129  28.6809598  41.8483355
 130.6059992  25.7799978  40.4060014 130.7019992  26.4469978  39.7260014
 130.4659992  24.9649978  39.9250014 130.6002040  25.7610671  40.2478378
 129.7749992  27.1609978  46.0270014 129.6249992  26.2159978  46.0070014
 129.4209992  27.4419978  46.8710014 129.7066351  27.0696644  46.1383220
 114.8099992  29.2389978  50.0380014 114.9949992  29.1569978  49.1020014
 115.6599992  29.1149978  50.4610014 114.9500928  29.2110463  49.9672893
 130.6309992  29.1309978  55.6660014 131.2139992  28.3959978  55.8580014
 131.1949992  29.9029978  55.7130014 130.7869781  29.1348145  55.6986164
 132.1279992  27.0339978  56.3510014 131.2649992  26.6549978  56.1850014
 132.7319992  26.2949978  56.2760014 132.0916085  26.8823223  56.3181695
 129.8529992  23.1879978  39.5240014 130.4639992  22.8169978  40.1610014
 129.0159992  22.7669978  39.7200014 129.8234947  23.0802756  39.6377252
 129.4859992  24.7429978  44.4900014 129.7649992  23.8359978  44.6140014
 130.2449992  25.1769978  44.1010014 129.6268619  24.6774502  44.4543795
 130.0969992  25.3249978  49.9260014 131.0299992  25.5369978  49.8910014
 129.8619992  25.4259978  50.8480014 130.1929517  25.3676833  50.0459130
 130.1269992  26.0619978  52.7020014 129.2839992  26.3299978  53.0680014
 130.5689992  26.8839978  52.4910014 130.0714138  26.2098273  52.7235518
 114.4079992  24.5089978  56.1780014 115.3269992  24.3869978  56.4150014
 113.9579992  23.7589978  56.5680014 114.4730087  24.3909608  56.2631410
 132.4099992  20.0419978  58.0550014 132.7589992  19.3879978  57.4500014
 132.5569992  20.8789978  57.6150014 132.4776824  20.0656024  57.9126304
 130.0989992  22.0059978  44.5380014 130.2809992  21.5569978  45.3630014
 129.4989992  21.4219978  44.0740014 130.0428187  21.8655552  44.5882739
 115.6289992  22.8219978  49.0700014 116.0739992  22.0299978  49.3720014
 116.0949992  23.5379978  49.5000014 115.7529718  22.8104534  49.1695265
 113.9329992  25.8209978  50.1390014 114.4249992  25.5999978  49.3480014
 114.2949992  26.6609978  50.4200014 114.0492923  25.9043468  50.0687407
 131.9289992  22.1509978  56.4040014 131.0119992  22.4219978  56.3690014
 132.0519992  21.6159978  55.6200014 131.8199672  22.1157885  56.2931862
 131.9659992  22.0739978  41.0660014 132.3779992  21.3529978  40.5910014
 132.6469992  22.7429978  41.1240014 132.1145536  22.0657766  41.0088024
 114.2469992  22.0789978  44.1930014 113.3219992  22.2869978  44.0640014
 114.7009992  22.5629978  43.5030014 114.1816298  22.1729299  44.0820451
 129.0169992  37.0629978  46.1390014 129.6699992  36.7149978  45.5310014
 129.5279992  37.5509978  46.7850014 129.1752777  37.0813815  46.1432047
 114.2099992  20.8169978  52.5370014 113.5449992  20.5709978  53.1800014
 113.7669992  21.4389978  51.9600014 114.0591168  20.8674214  52.5469848
 116.4019992  33.9919978  56.6820014 115.5809992  34.1669978  56.2210014
 116.1499992  33.9189978  57.6020014 116.2555594  34.0060717  56.7433611
 119.3559992  34.9659978  52.9400014 118.9319992  35.7759978  52.6580014
 120.2609992  35.0519978  52.6380014 119.4202138  35.0884160  52.8606415
 123.6679992  36.3649978  55.9000014 123.8519992  36.0319978  56.7780014
 124.5139992  36.6749978  55.5780014 123.8076484  36.3612979  55.9767617
 126.0129992  37.6509978  55.1440014 126.6899992  37.0179978  54.9040014
 126.3339992  38.0519978  55.9510014 126.1491323  37.6185691  55.2203158
 130.9299992  20.2409978  54.2230014 130.1169992  20.5659978  53.8360014
 131.1629992  19.4799978  53.6900014 130.8501347  20.1826880  54.0979841
 116.7579992  38.2229978  52.9880014 116.0379992  38.6629978  52.5370014
 116.3929992  37.9719978  53.8360014 116.6099643  38.2493369  53.0409129
 119.2249992  37.8229978  52.0180014 118.3609992  37.8949978  52.4220014
 119.1699992  38.3699978  51.2340014 119.0991942  37.9067849  51.9674000
 123.9359992  37.7109978  51.1930014 123.4789992  38.2399978  50.5390014
 124.0989992  38.3139978  51.9180014 123.8954960  37.8649280  51.2015274
 126.2639992  36.5889978  52.1380014 125.3589992  36.7539978  51.8720014
 126.6919992  37.4419978  52.0720014 126.1981537  36.7269134  52.0927095
 128.8679992  38.1589978  52.4330014 128.6859992  39.0749978  52.2220014
 129.0449992  37.7479978  51.5860014 128.8670030  38.2288273  52.2897166
 116.1729992  36.8459978  49.8980014 116.1549992  36.4199978  50.7550014
 116.9779992  36.5269978  49.4890014 116.2792875  36.7446435  49.9599515
 118.3139992  35.5559978  48.5530014 118.0949992  34.6389978  48.7230014
 119.1379992  35.6959978  49.0190014 118.3954702  35.4495511  48.6392527
 120.8509992  36.0259978  49.4020014 121.0639992  35.1379978  49.1150014
 120.9159992  35.9909978  50.3560014 120.8889149  35.8998326  49.4917369
 124.3599992  21.6899978  48.5460014 123.6859992  21.0599978  48.8020014
 124.9239992  21.2059978  47.9430014 124.3440384  21.5383708  48.4995020
 129.5029992  19.7969978  48.6590014 130.1059992  20.3449978  48.1570014
 128.6329992  20.1159978  48.4180014 129.4679157  19.9150373  48.5577910
 131.2299992  20.9359978  46.9920014 131.8409992  20.4219978  46.4650014
 131.6119992  21.8129978  47.0150014 131.3653305  20.9842050  46.9229418
 116.6869992  20.3239978  46.3680014 115.9099992  20.0889978  45.8610014
 117.2169992  19.5269978  46.3770014 116.6523451  20.1841268  46.2998627
 115.5229992  20.1219978  42.1720014 115.9619992  20.7329978  41.5800014
 114.8889992  20.6599978  42.6460014 115.4973859  20.2784064  42.1550305
 121.2659992  20.2499978  46.1810014 122.1399992  20.6389978  46.1520014
 121.1299992  20.0349978  47.1040014 121.3671953  20.2741643  46.3017617
 126.8229992  20.2799978  47.8310014 126.8989992  20.3759978  46.8810014
 126.5479992  19.3729978  47.9590014 126.7961871  20.1704146  47.7183944
 128.1759992  20.3059978  43.5230014 127.4729992  20.9209978  43.3130014
 127.7309992  19.4689978  43.6540014 128.0196550  20.2769668  43.5119837
 115.4239992  36.0699978  43.0690014 114.7389992  36.0319978  42.4020014
 115.4279992  36.9829978  43.3570014 115.3307621  36.1881924  43.0166126
 117.3839992  22.0379978  40.6140014 117.8749992  21.4079978  40.0870014
 118.0069992  22.3339978  41.2770014 117.5355304  21.9917376  40.6314940
 122.4099992  22.3309978  43.0710014 122.5879992  21.6839978  43.7540014
 122.3559992  23.1649978  43.5380014 122.4270678  22.3551604  43.2276301
 124.2879992  37.2789978  41.4670014 125.1539992  37.6459978  41.2890014
 124.0419992  36.8399978  40.6530014 124.3732097  37.2698525  41.3326019
 130.9969992  36.8419978  44.1460014 130.8029992  36.0939978  43.5810014
 130.9579992  37.5999978  43.5630014 130.9651645  36.8420786  43.9898148
 116.6439992  20.8379978  55.8860014 116.2779992  20.0719978  56.3280014
 117.5569992  20.8669978  56.1720014 116.7173172  20.7370324  55.9851890
 118.6169992  20.1879978  57.4210014 119.5159992  19.9139978  57.2370014
 118.2309992  19.4459978  57.8860014 118.6877307  20.0502196  57.4587098
 117.2419992  36.9899978  40.0940014 116.9739992  37.2759978  40.9680014
 118.0129992  36.4439978  40.2470014 117.3095926  36.9552779  40.2341205
 127.0389992  19.5209978  57.6040014 127.1149992  19.0949978  58.4570014
 127.9319992  19.5339978  57.2610014 127.1702303  19.4643493  57.6745497
 130.2149992  35.5939978  56.2960014 129.4329992  35.4069978  55.7760014
 130.1429992  36.5229978  56.5130014 130.0981924  35.6940637  56.2541602
 144.6209992  29.4799978  46.3270014 144.7099992  30.4239978  46.1950014
 143.9829992  29.2049978  45.6690014 144.5469062  29.5719812  46.2199641
 143.5539992  28.7349978  49.7460014 143.5159992  28.0889978  50.4510014
 143.2319992  28.2679978  48.9750014 143.5052679  28.5834276  49.7382921
 135.9219992  28.3489978  51.3390014 135.9639992  27.7239978  52.0620014
 136.6249992  28.9729978  51.5210014 136.0227345  28.3477873  51.4625274
 136.8459992  32.7989978  49.8740014 136.4759992  31.9969978  49.5040014
 137.7869992  32.6309978  49.9200014 136.9225984  32.6664638  49.8295603
 133.4559992  26.4589978  45.2660014 133.0079992  27.3049978  45.2480014
 132.8949992  25.8799978  44.7510014 133.3188546  26.4963993  45.1938891
 134.1659992  28.6209978  47.3920014 134.3799992  27.8509978  47.9200014
 134.9039992  28.7109978  46.7890014 134.2950200  28.5278586  47.3827035
 144.3719992  36.7779978  48.2590014 144.9909992  36.1019978  47.9860014
 144.1629992  36.5599978  49.1680014 144.4286056  36.6558869  48.3443967
 141.9429992  31.1669978  50.1520014 142.2469992  30.4809978  49.5570014
 142.6649992  31.2859978  50.7700014 142.0821240  31.0892314  50.1540959
 145.0839992  25.5609978  50.4790014 145.2269992  24.6149978  50.4990014
 144.9779992  25.7679978  49.5510014 145.0892403  25.4594797  50.3562239
 138.2389992  23.6629978  47.7520014 138.2819992  24.5229978  47.3330014
 137.7809992  23.1109978  47.1180014 138.1829871  23.7059245  47.6090761
 134.8589992  26.0599978  48.5140014 135.5129992  25.5099978  48.9460014
 134.8829992  25.7859978  47.5970014 134.9517199  25.9477167  48.4491668
 140.0159992  27.6099978  47.7290014 140.6319992  27.0829978  48.2380014
 139.4289992  26.9699978  47.3250014 140.0210154  27.4513954  47.7440945
 137.0489992  22.5809978  51.8260014 136.8299992  23.1109978  51.0590014
 136.3809992  22.8069978  52.4730014 136.9286975  22.6840967  51.8085140
 144.4179992  32.0809978  45.3700014 144.1229992  31.7579978  44.5180014
 144.0939992  32.9809978  45.4110014 144.3338460  32.1584464  45.2589714
 139.6179992  30.2559978  52.1130014 138.8779992  30.8549978  52.2170014
 140.3319992  30.8099978  51.7980014 139.6133500  30.4127829  52.0846371
 136.6429992  24.4729978  49.7780014 137.2569992  25.1059978  50.1510014
 137.1549992  24.0009978  49.1220014 136.7961962  24.4957249  49.7402935
 138.0259992  32.2209978  52.9000014 138.0199992  33.0999978  52.5220014
 137.1719992  32.1369978  53.3250014 137.9097925  32.3299535  52.9056887
 134.1469992  31.8919978  43.6820014 133.8749992  32.1209978  42.7940014
 134.1919992  32.7289978  44.1430014 134.1158097  32.0366163  43.6226683
 141.0759992  19.8859978  49.2780014 140.9579992  18.9379978  49.2240014
 140.2209992  20.2189978  49.5510014 140.9442805  19.8012202  49.3075079
 143.3419992  28.7239978  43.7790014 142.6309992  29.2589978  43.4270014
 144.0329992  28.7789978  43.1190014 143.3380751  28.8046777  43.6415858
 143.3959992  27.1809978  40.8170014 144.0969992  27.2039978  41.4690014
 143.6979992  26.5529978  40.1610014 143.5328202  27.0992212  40.8175609
 138.3929992  29.5639978  46.6130014 138.0629992  29.1929978  45.7950014
 138.9819992  28.8929978  46.9600014 138.4273970  29.4226063  46.5479404
 139.7599992  32.9919978  49.2940014 139.6649992  32.4129978  48.5380014
 140.4889992  32.6209978  49.7900014 139.8456011  32.8625561  49.2576028
 138.7599992  28.3319978  50.2460014 139.3249992  28.4539978  49.4840014
 139.0789992  28.9699978  50.8850014 138.8804166  28.4348791  50.2280348
 145.0689992  33.8359978  50.9800014 144.8289992  34.4979978  51.6280014
 144.8709992  33.0009978  51.4050014 145.0093826  33.8138115  51.1261566
 139.6399992  32.7319978  54.9640014 139.3289992  33.5139978  55.4190014
 138.9899992  32.5789978  54.2780014 139.5095538  32.8184087  54.9335898
 136.5599992  28.9299978  54.1920014 136.6299992  29.5809978  54.8910014
 135.6689992  29.0329978  53.8570014 136.4491690  29.0329249  54.2423043
 143.3449992  34.8319978  45.8510014 143.8189992  35.1279978  46.6280014
 142.7819992  35.5709978  45.6180014 143.3337890  34.9723036  45.9258101
 137.8789992  34.8029978  55.7270014 137.8869992  34.6669978  54.7800014
 136.9629992  34.6859978  55.9790014 137.7562528  34.7685463  55.6313243
 137.3839992  28.6329978  44.2020014 137.0919992  29.4009978  43.7110014
 136.7089992  27.9739978  44.0390014 137.2528497  28.6489745  44.1128260
 133.4769992  30.9959978  53.0170014 132.9749992  30.9679978  52.2020014
 133.4819992  30.0909978  53.3270014 133.4089832  30.8697486  52.9474121
 133.2269992  33.7769978  49.9010014 134.1729992  33.6319978  49.8820014
 133.1139992  34.5609978  50.4380014 133.3413578  33.8631697  49.9710317
 142.4029992  34.0169978  54.4600014 142.4909992  34.8429978  54.9350014
 141.5399992  33.6869978  54.7090014 142.2983357  34.0855468  54.5587653
 142.8179992  37.7889978  44.2660014 142.7419992  37.6679978  43.3190014
 142.8499992  38.7379978  44.3840014 142.8119380  37.9007677  44.1525181
 136.4709992  36.5779978  46.0470014 136.6229992  36.2299978  46.9250014
 135.6199992  36.2209978  45.7910014 136.3768344  36.4820879  46.1326868
 135.7259992  32.3199978  54.0600014 135.9419992  31.9579978  54.9200014
 134.8699992  31.9449978  53.8510014 135.6398810  32.2198837  54.1492680
 138.3439992  20.7899978  50.0560014 137.4829992  20.7029978  49.6480014
 138.3219992  21.6459978  50.4840014 138.2230491  20.8938003  50.0579582
 143.0069992  20.5119978  53.4310014 143.4269992  20.0969978  54.1840014
 142.0739992  20.3329978  53.5480014 142.9383736  20.4309910  53.5498968
 142.6689992  23.0039978  40.7160014 142.4149992  23.0229978  41.6380014
 142.4119992  22.1329978  40.4140014 142.5994508  22.8888280  40.8014803
 138.4349992  25.7549978  51.1510014 137.7939992  25.7149978  51.8600014
 138.4729992  26.6819978  50.9130014 138.3523010  25.8747668  51.2159946
 138.4319992  25.9759978  46.0630014 137.5399992  25.6359978  46.0040014
 138.8829992  25.5989978  45.3070014 138.3707642  25.8784910  45.9527726
 143.9679992  26.3919978  44.8800014 143.5589992  27.2069978  44.5880014
 144.6879992  26.2519978  44.2660014 144.0094439  26.4845372  44.7570115
 143.0699992  26.5679978  56.3680014 142.5069992  25.8629978  56.6890014
 143.8959992  26.4469978  56.8360014 143.1046674  26.4552165  56.4751751
 144.9729992  25.8379978  47.6940014 144.7769992  26.4439978  46.9790014
 145.1539992  25.0049978  47.2600014 144.9706584  25.8082513  47.5374212
 136.1849992  26.0759978  53.0180014 136.1469992  26.4759978  53.8870014
 135.6949992  25.2589978  53.1080014 136.1135330  26.0202674  53.1491289
 139.5509992  23.4499978  39.8170014 139.1199992  23.0049978  40.5460014
 138.8329992  23.8209978  39.3040014 139.3949176  23.4392051  39.8474930
 132.7939992  23.1919978  46.8690014 133.4239992  23.1629978  47.5880014
 133.2429992  22.7669978  46.1380014 132.9410835  23.1305660  46.8687659
 134.0679992  23.9379978  42.2930014 134.5419992  24.5289978  41.7080014
 133.3499992  24.4679978  42.6400014 134.0358640  24.0905511  42.2597969
 144.2369992  27.4759978  52.3650014 144.5599992  26.8449978  51.7220014
 143.7959992  26.9419978  53.0260014 144.2216379  27.3173468  52.3662582
 141.0139992  23.4039978  47.1490014 140.1029992  23.4609978  47.4380014
 141.5189992  23.3439978  47.9600014 140.9576873  23.4036826  47.2981207
 135.8419992  25.0329978  45.9760014 134.9529992  25.1319978  45.6360014
 136.1389992  24.1909978  45.6300014 135.7604177  24.9327687  45.8826940
 139.4949992  25.0329978  43.6330014 140.4269992  25.1619978  43.8110014
 139.2799992  25.7019978  42.9830014 139.5934472  25.1410806  43.5694891
 145.4189992  22.6389978  50.4140014 144.7419992  22.7699978  51.0770014
 144.9339992  22.4839978  49.6030014 145.2607405  22.6359947  50.3952170
 138.1689992  26.2269978  41.1990014 137.6269992  25.8479978  40.5080014
 139.0029992  26.4219978  40.7710014 138.2074390  26.2014079  41.0464392
 136.3049992  30.7839978  56.2980014 137.0369992  31.0389978  56.8600014
 135.5239992  30.9889978  56.8140014 136.2996526  30.8465450  56.4445176
 142.3339992  26.1909978  49.0360014 142.8979992  25.6449978  48.4890014
 142.1859992  25.6699978  49.8250014 142.3913037  26.0456787  49.0677229
 137.3359992  22.3279978  45.4550014 137.0189992  21.4249978  45.4190014
 138.1169992  22.3299978  44.9020014 137.3982431  22.2047797  45.3753102
 140.9599992  24.5799978  51.4500014 140.1249992  25.0339978  51.5610014
 141.4839992  24.8559978  52.2020014 140.9166072  24.6793948  51.5668136
 141.5049992  30.7929978  43.1350014 140.7599992  30.2849978  42.8130014
 141.3699992  30.8419978  44.0810014 141.3848963  30.7301731  43.2188826
 145.4019992  23.6069978  41.3340014 144.4639992  23.7179978  41.1830014
 145.6999992  24.4629978  41.6410014 145.3136318  23.7380158  41.3548145
 143.0239992  30.9769978  54.3720014 142.6779992  30.5949978  55.1790014
 142.8239992  31.9099978  54.4430014 142.9495987  31.0509002  54.4920461
 136.6289992  30.0879978  48.9050014 137.3739992  30.0849978  48.3030014
 136.7069992  29.2639978  49.3860014 136.7413365  29.9762384  48.8877430
 143.6299992  32.2509978  42.1600014 143.3349992  33.0779978  42.5420014
 142.9269992  31.6319978  42.3570014 143.4946379  32.2804171  42.2388654
 133.6369992  28.5479978  54.2200014 133.8599992  28.1299978  55.0510014
 133.0349992  27.9359978  53.7970014 133.5861513  28.4079606  54.2766740
 140.6539992  28.0649978  56.4330014 140.3579992  27.8999978  55.5370014
 141.5849992  27.8449978  56.4220014 140.7394401  28.0126879  56.3090206
 145.2739992  33.4389978  54.3220014 144.3739992  33.6219978  54.0550014
 145.3079992  33.6979978  55.2430014 145.1553748  33.4990554  54.4099164
 139.0039992  33.6059978  46.3090014 139.5319992  34.3789978  46.1090014
 138.1239992  33.8299978  46.0070014 138.9573435  33.7422700  46.2407310
 134.7589992  28.4679978  40.8960014 135.3749992  29.0949978  41.2760014
 133.8969992  28.7839978  41.1680014 134.7267678  28.5964412  40.9847209
 140.4319992  31.2689978  45.8850014 140.1909992  32.1939978  45.9270014
 139.6909992  30.8099978  46.2820014 140.2989206  31.3335915  45.9443769
 140.9459992  35.4179978  52.2000014 141.3089992  36.2719978  51.9670014
 141.4779992  35.1259978  52.9410014 141.0675141  35.4953895  52.2682097
 139.1149992  36.2899978  45.4310014 138.1649992  36.3959978  45.4820014
 139.4669992  37.1109978  45.7750014 139.0325472  36.4154923  45.4844852
 144.4899992  31.5169978  51.9010014 144.0649992  31.2889978  52.7270014
 145.0709992  30.7779978  51.7190014 144.5103395  31.3859545  51.9894414
 135.2709992  23.3019978  53.7780014 134.3789992  23.6399978  53.7100014
 135.1729992  22.4459978  54.1960014 135.1354475  23.2326543  53.8251704
 134.9229992  35.1059978  52.2130014 135.1399992  34.1739978  52.1820014
 135.1689992  35.3809978  53.0960014 134.9859809  35.0155686  52.3281691
 140.7839992  33.5579978  39.4220014 141.0229992  32.8089978  38.8750014
 140.5149992  33.1699978  40.2550014 140.7803233  33.4031853  39.4597809
 139.7209992  33.1279978  41.8780014 139.8679992  32.6079978  42.6680014
 139.7179992  34.0349978  42.1850014 139.7407102  33.1793953  42.0275925
 136.1739992  30.3799978  42.3890014 135.4879992  30.7329978  42.9560014
 136.6969992  31.1429978  42.1420014 136.1508402  30.5313901  42.4331801
 144.0059992  23.0429978  52.6680014 144.7049992  23.1169978  53.3180014
 143.6249992  22.1779978  52.8220014 144.0502097  22.9362389  52.7777997
 144.7899992  22.6949978  43.7650014 145.0099992  23.1659978  42.9610014
 145.3489992  23.0889978  44.4350014 144.8956731  22.8127287  43.7455033
 142.4589992  34.8249978  42.6280014 141.6419992  35.3219978  42.6800014
 142.9879992  35.3009978  41.9870014 142.4188125  34.9571989  42.5485306
 141.9899992  24.4229978  44.6000014 142.8019992  24.9269978  44.6460014
 141.7459992  24.2779978  45.5140014 142.0681467  24.4723749  44.7298575
 142.5259992  25.4089978  53.7840014 142.6449992  25.9829978  54.5410014
 143.1809992  24.7209978  53.8990014 142.6308684  25.3945194  53.9031674
 142.8739992  21.5039978  45.5380014 142.5269992  22.1209978  46.1820014
 143.5329992  22.0049978  45.0560014 142.9155090  21.6561575  45.5610681
 139.7969992  35.8689978  42.6090014 139.9579992  36.6689978  42.1090014
 139.5999992  36.1759978  43.4940014 139.7923906  36.0198678  42.6602333
 138.5319992  22.5669978  42.2250014 138.4479992  23.4549978  42.5720014
 139.4219992  22.3019978  42.4570014 138.6408163  22.6527179  42.3038596
 136.7899992  32.9939978  41.2850014 137.3819992  33.6939978  41.5620014
 137.2489992  32.5609978  40.5660014 136.9331652  33.0312675  41.2256533
 135.1059992  25.6589978  40.4010014 135.0609992  26.5979978  40.5800014
 134.2179992  25.4229978  40.1320014 134.9798166  25.7556687  40.3891524
 135.9139992  20.4399978  49.0750014 135.6849992  20.4989978  48.1470014
 135.4719992  19.6489978  49.3810014 135.8228801  20.3410540  48.9894729
 134.8449992  34.3809978  45.2350014 134.0119992  34.8529978  45.2620014
 135.3899992  34.8909978  44.6360014 134.8047857  34.5144791  45.1577142
 134.1329992  36.9929978  56.5650014 134.6729992  36.7769978  57.3250014
 133.6519992  36.1879978  56.3750014 134.1419219  36.8545156  56.6434282
 138.7299992  35.9129978  58.1850014 139.4979992  35.4539978  58.5260014
 138.7089992  35.6869978  57.2550014 138.8322135  35.8196668  58.1059491
 142.8219992  35.4209978  39.5610014 142.1779992  34.7899978  39.8820014
 143.5839992  34.8899978  39.3290014 142.8368058  35.2627902  39.5736038
 145.3069992  34.2929978  56.9140014 144.9559992  33.4359978  57.1580014
 146.0329992  34.4349978  57.5210014 145.3571895  34.1951351  57.0293770
 134.0399992  30.8039978  57.5190014 134.1839992  29.9019978  57.2330014
 133.2679992  31.0899978  57.0320014 133.9552733  30.7191798  57.4139532
 138.3809992  31.1469978  39.6520014 138.4459992  30.3529978  40.1820014
 139.0339992  31.0289978  38.9620014 138.4781605  31.0223430  39.6312997
 140.6949992  30.7729978  56.9520014 140.3669992  31.0439978  56.0950014
 140.8469992  29.8319978  56.8640014 140.6706412  30.6829046  56.8227822
 143.7339992  32.1939978  39.3880014 143.4649992  32.3749978  40.2880014
 143.5269992  31.2689978  39.2560014 143.6691191  32.0937119  39.4935524
 134.8729992  28.0039978  56.9390014 135.2809992  27.1469978  56.8180014
 134.6119992  28.0179978  57.8600014 134.8936016  27.8885119  57.0469192
 139.5309992  29.1199978  41.9580014 139.0709992  28.6359978  42.6430014
 139.7859992  28.4509978  41.3220014 139.5024856  28.9633669  41.9658397
 138.8199992  27.0129978  54.3140014 138.2009992  27.6869978  54.5940014
 139.1639992  27.3339978  53.4800014 138.7817123  27.1486887  54.2396388
 140.6019992  27.3629978  40.2200014 140.4209992  27.2079978  39.2930014
 141.5519992  27.4709978  40.2650014 140.7056566  27.3563669  40.0990929
 143.8389992  29.4839978  57.5910014 144.7929992  29.5679978  57.5640014
 143.6789992  28.7719978  58.2110014 143.9477182  29.3992842  57.6710733
 139.1589992  24.3679978  55.3960014 139.3089992  23.6389978  54.7940014
 139.1609992  25.1449978  54.8370014 139.1797967  24.3732708  55.2380541
 139.5719992  22.7369978  52.8890014 140.1069992  23.1889978  52.2370014
 138.7189992  22.6289978  52.4660014 139.5300374  22.7842665  52.7426710
 141.1529992  28.1769978  53.1280014 141.9039992  28.0209978  52.5550014
 140.8139992  29.0289978  52.8530014 141.2099587  28.2708138  53.0124078
 145.5689992  25.9919978  58.1570014 145.7609992  25.0609978  58.0450014
 146.4269992  26.4169978  58.1460014 145.7112182  25.9220070  58.1401862
 137.6379992  25.5659978  57.3070014 136.8699992  25.0329978  57.0970014
 138.3159992  25.2559978  56.7080014 137.6247235  25.4511754  57.1972413
 140.3769992  20.1939978  53.3200014 140.2789992  21.1399978  53.2150014
 139.6349992  19.8209978  52.8440014 140.2632534  20.2731773  53.2412600
 141.6409992  24.5149978  56.8840014 141.4059992  24.2959978  57.7850014
 140.8579992  24.3079978  56.3740014 141.5029095  24.4569892  56.9385353
 144.3569992  23.6429978  55.9590014 143.4089992  23.6749978  56.0910014
 144.6689992  23.0169978  56.6130014 144.2695293  23.5627923  56.0654148
 135.8179992  23.4859978  57.0120014 136.0299992  22.7799978  56.4020014
 135.7069992  23.0489978  57.8560014 135.8320269  23.3301921  57.0425873
 140.5989992  19.4879978  55.9910014 141.3109992  18.8479978  55.9770014
 140.4979992  19.7539978  55.0780014 140.6827387  19.4364330  55.8655563
 140.9529992  21.1699978  58.0450014 140.8209992  20.6949978  57.2250014
 140.3529992  21.9149978  57.9900014 140.8539070  21.2055789  57.9253251
 140.4989992  38.0529978  41.2210014 141.4319992  38.2109978  41.3650014
 140.2349992  38.7289978  40.5960014 140.5909911  38.1659373  41.1562722
 134.0669992  32.6899978  40.7040014 134.9809992  32.7689978  40.9770014
 134.0749992  32.0029978  40.0380014 134.1930655  32.6079205  40.6512917
 132.7159992  38.0829978  45.7810014 132.0689992  37.6209978  45.2490014
 133.0709992  37.4109978  46.3640014 132.6753741  37.9289774  45.7869175
 133.5859992  36.1629978  47.5860014 133.2519992  35.2829978  47.7580014
 133.8089992  36.5089978  48.4510014 133.5703721  36.0891938  47.7264168
 133.6659992  29.2389978  50.0380014 133.8509992  29.1569978  49.1020014
 134.5159992  29.1149978  50.4610014 133.8060928  29.2110463  49.9672893
 133.2639992  24.5089978  56.1780014 134.1829992  24.3869978  56.4150014
 132.8139992  23.7589978  56.5680014 133.3290087  24.3909608  56.2631410
 134.4849992  22.8219978  49.0700014 134.9299992  22.0299978  49.3720014
 134.9509992  23.5379978  49.5000014 134.6089718  22.8104534  49.1695265
 132.7889992  25.8209978  50.1390014 133.2809992  25.5999978  49.3480014
 133.1509992  26.6609978  50.4200014 132.9052923  25.9043468  50.0687407
 133.1029992  22.0789978  44.1930014 132.1779992  22.2869978  44.0640014
 133.5569992  22.5629978  43.5030014 133.0376298  22.1729299  44.0820451
 133.0659992  20.8169978  52.5370014 132.4009992  20.5709978  53.1800014
 132.6229992  21.4389978  51.9600014 132.9151168  20.8674214  52.5469848
 135.2579992  33.9919978  56.6820014 134.4369992  34.1669978  56.2210014
 135.0059992  33.9189978  57.6020014 135.1115594  34.0060717  56.7433611
 138.2119992  34.9659978  52.9400014 137.7879992  35.7759978  52.6580014
 139.1169992  35.0519978  52.6380014 138.2762138  35.0884160  52.8606415
 142.5239992  36.3649978  55.9000014 142.7079992  36.0319978  56.7780014
 143.3699992  36.6749978  55.5780014 142.6636484  36.3612979  55.9767617
 144.8689992  37.6509978  55.1440014 145.5459992  37.0179978  54.9040014
 145.1899992  38.0519978  55.9510014 145.0051323  37.6185691  55.2203158
 135.6139992  38.2229978  52.9880014 134.8939992  38.6629978  52.5370014
 135.2489992  37.9719978  53.8360014 135.4659643  38.2493369  53.0409129
 138.0809992  37.8229978  52.0180014 137.2169992  37.8949978  52.4220014
 138.0259992  38.3699978  51.2340014 137.9551942  37.9067849  51.9674000
 142.7919992  37.7109978  51.1930014 142.3349992  38.2399978  50.5390014
 142.9549992  38.3139978  51.9180014 142.7514960  37.8649280  51.2015274
 145.1199992  36.5889978  52.1380014 144.2149992  36.7539978  51.8720014
 145.5479992  37.4419978  52.0720014 145.0541537  36.7269134  52.0927095
 135.0289992  36.8459978  49.8980014 135.0109992  36.4199978  50.7550014
 135.8339992  36.5269978  49.4890014 135.1352875  36.7446435  49.9599515
 137.1699992  35.5559978  48.5530014 136.9509992  34.6389978  48.7230014
 137.9939992  35.6959978  49.0190014 137.2514702  35.4495511  48.6392527
 139.7069992  36.0259978  49.4020014 139.9199992  35.1379978  49.1150014
 139.7719992  35.9909978  50.3560014 139.7449149  35.8998326  49.4917369
 143.2159992  21.6899978  48.5460014 142.5419992  21.0599978  48.8020014
 143.7799992  21.2059978  47.9430014 143.2000384  21.5383708  48.4995020
 135.5429992  20.3239978  46.3680014 134.7659992  20.0889978  45.8610014
 136.0729992  19.5269978  46.3770014 135.5083451  20.1841268  46.2998627
 134.3789992  20.1219978  42.1720014 134.8179992  20.7329978  41.5800014
 133.7449992  20.6599978  42.6460014 134.3533859  20.2784064  42.1550305
 140.1219992  20.2499978  46.1810014 140.9959992  20.6389978  46.1520014
 139.9859992  20.0349978  47.1040014 140.2231953  20.2741643  46.3017617
 134.2799992  36.0699978  43.0690014 133.5949992  36.0319978  42.4020014
 134.2839992  36.9829978  43.3570014 134.1867621  36.1881924  43.0166126
 136.2399992  22.0379978  40.6140014 136.7309992  21.4079978  40.0870014
 136.8629992  22.3339978  41.2770014 136.3915304  21.9917376  40.6314940
 141.2659992  22.3309978  43.0710014 141.4439992  21.6839978  43.7540014
 141.2119992  23.1649978  43.5380014 141.2830678  22.3551604  43.2276301
 143.1439992  37.2789978  41.4670014 144.0099992  37.6459978  41.2890014
 142.8979992  36.8399978  40.6530014 143.2292097  37.2698525  41.3326019
 135.4999992  20.8379978  55.8860014 135.1339992  20.0719978  56.3280014
 136.4129992  20.8669978  56.1720014 135.5733172  20.7370324  55.9851890
 137.4729992  20.1879978  57.4210014 138.3719992  19.9139978  57.2370014
 137.0869992  19.4459978  57.8860014 137.5437307  20.0502196  57.4587098
 136.0979992  36.9899978  40.0940014 135.8299992  37.2759978  40.9680014
 136.8689992  36.4439978  40.2470014 136.1655926  36.9552779  40.2341205
  12.6289992  48.3359978  46.3270014  12.7179992  49.2799978  46.1950014
  11.9909992  48.0609978  45.6690014  12.5549062  48.4279812  46.2199641
  11.5619992  47.5909978  49.7460014  11.5239992  46.9449978  50.4510014
  11.2399992  47.1239978  48.9750014  11.5132679  47.4394276  49.7382921
   3.9299992  47.2049978  51.3390014   3.9719992  46.5799978  52.0620014
   4.6329992  47.8289978  51.5210014   4.0307345  47.2037873  51.4625274
  15.2679992  50.5299978  48.0470014  14.8269992  49.8099978  48.4980014
  15.2549992  51.2509978  48.6770014  15.2059215  50.5289291  48.1938105
   4.8539992  51.6549978  49.8740014   4.4839992  50.8529978  49.5040014
   5.7949992  51.4869978  49.9200014   4.9305984  51.5224638  49.8295603
   1.4639992  45.3149978  45.2660014   1.0159992  46.1609978  45.2480014
   0.9029992  44.7359978  44.7510014   1.3268546  45.3523993  45.1938891
   2.1739992  47.4769978  47.3920014   2.3879992  46.7069978  47.9200014
   2.9119992  47.5669978  46.7890014   2.3030200  47.3838587  47.3827035
  12.3799992  55.6339978  48.2590014  12.9989992  54.9579978  47.9860014
  12.1709992  55.4159978  49.1680014  12.4366056  55.5118869  48.3443967
   9.9509992  50.0229978  50.1520014  10.2549992  49.3369978  49.5570014
  10.6729992  50.1419978  50.7700014  10.0901240  49.9452314  50.1540959
  18.6139992  41.6249978  51.0120014  18.6639992  42.2349978  51.7480014
  19.0399992  42.0859978  50.2890014  18.6784108  41.7707709  51.0150112
  13.0919992  44.4169978  50.4790014  13.2349992  43.4709978  50.4990014
  12.9859992  44.6239978  49.5510014  13.0972403  44.3154797  50.3562239
   6.2469992  42.5189978  47.7520014   6.2899992  43.3789978  47.3330014
   5.7889992  41.9669978  47.1180014   6.1909871  42.5619245  47.6090761
  13.9689992  42.6499978  46.1530014  14.6159992  42.3209978  46.7770014
  14.4789992  43.1669978  45.5300014  14.1264351  42.6749067  46.1541037
   2.8669992  44.9159978  48.5140014   3.5209992  44.3659978  48.9460014
   2.8909992  44.6419978  47.5970014   2.9597199  44.8037167  48.4491668
   8.0239992  46.4659978  47.7290014   8.6399992  45.9389978  48.2380014
   7.4369992  45.8259978  47.3250014   8.0290154  46.3073954  47.7440945
  19.0059992  43.1029978  53.2480014  18.3169992  43.7609978  53.1530014
  19.0209992  42.9049978  54.1850014  18.9137756  43.1662603  53.3615812
   5.0569992  41.4369978  51.8260014   4.8379992  41.9669978  51.0590014
   4.3889992  41.6629978  52.4730014   4.9366975  41.5400967  51.8085140
  12.4259992  50.9369978  45.3700014  12.1309992  50.6139978  44.5180014
  12.1019992  51.8369978  45.4110014  12.3418460  51.0144464  45.2589714
   7.6259992  49.1119978  52.1130014   6.8859992  49.7109978  52.2170014
   8.3399992  49.6659978  51.7980014   7.6213500  49.2687829  52.0846371
  15.7329992  41.9409978  48.1330014  15.5179992  41.1749978  48.6660014
  16.3889992  42.4129978  48.6460014  15.7922673  41.9000728  48.2751990
   4.6509992  43.3289978  49.7780014   5.2649992  43.9619978  50.1510014
   5.1629992  42.8569978  49.1220014   4.8041962  43.3517249  49.7402935
   6.0339992  51.0769978  52.9000014   6.0279992  51.9559978  52.5220014
   5.1799992  50.9929978  53.3250014   5.9177925  51.1859535  52.9056887
   2.1549992  50.7479978  43.6820014   1.8829992  50.9769978  42.7940014
   2.1999992  51.5849978  44.1430014   2.1238097  50.8926163  43.6226683
  15.7799992  52.3689978  50.3950014  14.8379992  52.4279978  50.5570014
  16.0559992  53.2749978  50.2580014  15.6885865  52.4995288  50.3986192
  16.0799992  40.6559978  51.8120014  15.3439992  41.2659978  51.7750014
  16.7639992  41.0709978  51.2860014  16.0715367  40.7957551  51.7358174
   9.0839992  38.7419978  49.2780014   8.9659992  37.7939978  49.2240014
   8.2289992  39.0749978  49.5510014   8.9522805  38.6572202  49.3075079
  14.0319992  54.1499978  47.0200014  14.4569992  53.4429978  46.5350014
  14.3489992  54.9519978  46.6030014  14.1330266  54.1615190  46.8972479
  15.1919992  52.0509978  45.5290014  14.9339992  51.3609978  44.9170014
  15.2629992  51.6079978  46.3740014  15.1663050  51.8966814  45.5595621
  16.8779992  50.6179978  54.0060014  17.0169992  50.0259978  53.2670014
  17.0449992  51.4909978  53.6500014  16.9196193  50.6548896  53.8566211
  11.3499992  47.5799978  43.7790014  10.6389992  48.1149978  43.4270014
  12.0409992  47.6349978  43.1190014  11.3460751  47.6606777  43.6415858
  11.4039992  46.0369978  40.8170014  12.1049992  46.0599978  41.4690014
  11.7059992  45.4089978  40.1610014  11.5408202  45.9552212  40.8175609
  18.7189992  46.9579978  52.0720014  18.0669992  47.6519978  52.1610014
  19.1849992  47.1679978  51.2620014  18.6925937  47.0815019  51.9747533
  14.7559992  47.7889978  44.7300014  14.0239992  48.0179978  45.3040014
  15.2029992  47.0759978  45.1850014  14.7163963  47.7238729  44.8699945
  14.6529992  45.9639978  53.7980014  14.7329992  46.7269978  54.3700014
  14.0519992  46.2429978  53.1080014  14.5826547  46.1062457  53.7830047
   6.4009992  48.4199978  46.6130014   6.0709992  48.0489978  45.7950014
   6.9899992  47.7489978  46.9600014   6.4353970  48.2786063  46.5479404
   7.7679992  51.8479978  49.2940014   7.6729992  51.2689978  48.5380014
   8.4969992  51.4769978  49.7900014   7.8536011  51.7185561  49.2576028
   6.7679992  47.1879978  50.2460014   7.3329992  47.3099978  49.4840014
   7.0869992  47.8259978  50.8850014   6.8884166  47.2908791  50.2280348
  13.0769992  52.6919978  50.9800014  12.8369992  53.3539978  51.6280014
  12.8789992  51.8569978  51.4050014  13.0173826  52.6698115  51.1261566
   7.6479992  51.5879978  54.9640014   7.3369992  52.3699978  55.4190014
   6.9979992  51.4349978  54.2780014   7.5175538  51.6744087  54.9335898
  13.6269992  46.9519978  42.4160014  14.2059992  47.1019978  43.1620014
  14.0409992  47.4219978  41.6920014  13.7623358  47.0360954  42.4203953
   4.5679992  47.7859978  54.1920014   4.6379992  48.4369978  54.8910014
   3.6769992  47.8889978  53.8570014   4.4571690  47.8889249  54.2423043
  11.3529992  53.6879978  45.8510014  11.8269992  53.9839978  46.6280014
  10.7899992  54.4269978  45.6180014  11.3417890  53.8283036  45.9258101
   5.8869992  53.6589978  55.7270014   5.8949992  53.5229978  54.7800014
   4.9709992  53.5419978  55.9790014   5.7642528  53.6245463  55.6313243
  17.3259992  38.7019978  42.2290014  16.4259992  38.8409978  42.5240014
  17.5779992  39.5329978  41.8270014  17.2368683  38.8334055  42.2150232
   5.3919992  47.4889978  44.2020014   5.0999992  48.2569978  43.7110014
   4.7169992  46.8299978  44.0390014   5.2608497  47.5049745  44.1128260
  18.5149992  53.0679978  40.6050014  18.5879992  54.0069978  40.7750014
  19.4199992  52.7629978  40.5490014  18.6474170  53.1553282  40.6207063
   1.4849992  49.8519978  53.0170014   0.9829992  49.8239978  52.2020014
   1.4899992  48.9469978  53.3270014   1.4169832  49.7257486  52.9474121
   1.2349992  52.6329978  49.9010014   2.1809992  52.4879978  49.8820014
   1.1219992  53.4169978  50.4380014   1.3493578  52.7191697  49.9710317
  19.4329992  53.2989978  55.5840014  19.3829992  52.3429978  55.5460014
  18.6059992  53.5659978  55.9850014  19.3143831  53.2044680  55.6330121
  10.4109992  52.8729978  54.4600014  10.4989992  53.6989978  54.9350014
   9.5479992  52.5429978  54.7090014  10.3063357  52.9415468  54.5587653
  10.8259992  56.6449978  44.2660014  10.7499992  56.5239978  43.3190014
  10.8579992  57.5939978  44.3840014  10.8199380  56.7567677  44.1525181
   4.4789992  55.4339978  46.0470014   4.6309992  55.0859978  46.9250014
   3.6279992  55.0769978  45.7910014   4.3848344  55.3380879  46.1326868
  13.9269992  55.7989978  41.2680014  14.3019992  55.0549978  40.7970014
  13.9319992  55.5289978  42.1860014  13.9790098  55.6606392  41.3276629
  13.5959992  55.7249978  44.0170014  12.6609992  55.8249978  44.1960014
  13.8759992  55.0149978  44.5960014  13.5059471  55.6427933  44.1196695
  16.5849992  44.7919978  56.0640014  16.1769992  45.2719978  55.3430014
  16.6249992  43.8859978  55.7560014  16.5346221  44.7352449  55.9238267
   3.7339992  51.1759978  54.0600014   3.9499992  50.8139978  54.9200014
   2.8779992  50.8009978  53.8510014   3.6478810  51.0758837  54.1492680
   6.3519992  39.6459978  50.0560014   5.4909992  39.5589978  49.6480014
   6.3299992  40.5019978  50.4840014   6.2310491  39.7498003  50.0579582
  11.0149992  39.3679978  53.4310014  11.4349992  38.9529978  54.1840014
  10.0819992  39.1889978  53.5480014  10.9463736  39.2869910  53.5498968
  14.3419992  43.1229978  54.2840014  13.8279992  42.9979978  55.0820014
  14.1859992  44.0359978  54.0400014  14.2506967  43.2292123  54.3600937
  15.1039992  47.9839978  40.0450014  15.1459992  47.7619978  39.1150014
  15.9529992  48.3829978  40.2350014  15.2245253  48.0075498  39.9433822
  10.6769992  41.8599978  40.7160014  10.4229992  41.8789978  41.6380014
  10.4199992  40.9889978  40.4140014  10.6074508  41.7448280  40.8014803
   6.4429992  44.6109978  51.1510014   5.8019992  44.5709978  51.8600014
   6.4809992  45.5379978  50.9130014   6.3603010  44.7307668  51.2159946
   6.4399992  44.8319978  46.0630014   5.5479992  44.4919978  46.0040014
   6.8909992  44.4549978  45.3070014   6.3787642  44.7344910  45.9527726
  11.9759992  45.2479978  44.8800014  11.5669992  46.0629978  44.5880014
  12.6959992  45.1079978  44.2660014  12.0174439  45.3405372  44.7570115
  11.0779992  45.4239978  56.3680014  10.5149992  44.7189978  56.6890014
  11.9039992  45.3029978  56.8360014  11.1126674  45.3112165  56.4751751
  12.9809992  44.6939978  47.6940014  12.7849992  45.2999978  46.9790014
  13.1619992  43.8609978  47.2600014  12.9786584  44.6642513  47.5374212
   4.1929992  44.9319978  53.0180014   4.1549992  45.3319978  53.8870014
   3.7029992  44.1149978  53.1080014   4.1215330  44.8762674  53.1491289
   7.5589992  42.3059978  39.8170014   7.1279992  41.8609978  40.5460014
   6.8409992  42.6769978  39.3040014   7.4029176  42.2952051  39.8474930
   0.8019992  42.0479978  46.8690014   1.4319992  42.0189978  47.5880014
   1.2509992  41.6229978  46.1380014   0.9490835  41.9865660  46.8687659
   2.0759992  42.7939978  42.2930014   2.5499992  43.3849978  41.7080014
   1.3579992  43.3239978  42.6400014   2.0438640  42.9465511  42.2597969
  12.2449992  46.3319978  52.3650014  12.5679992  45.7009978  51.7220014
  11.8039992  45.7979978  53.0260014  12.2296379  46.1733468  52.3662582
   9.0219992  42.2599978  47.1490014   8.1109992  42.3169978  47.4380014
   9.5269992  42.1999978  47.9600014   8.9656873  42.2596826  47.2981207
   3.8499992  43.8889978  45.9760014   2.9609992  43.9879978  45.6360014
   4.1469992  43.0469978  45.6300014   3.7684177  43.7887687  45.8826940
   7.5029992  43.8889978  43.6330014   8.4349992  44.0179978  43.8110014
   7.2879992  44.5579978  42.9830014   7.6014472  43.9970806  43.5694891
  13.4269992  41.4949978  50.4140014  12.7499992  41.6259978  51.0770014
  12.9419992  41.3399978  49.6030014  13.2687405  41.4919947  50.3952170
   6.1769992  45.0829978  41.1990014   5.6349992  44.7039978  40.5080014
   7.0109992  45.2779978  40.7710014   6.2154390  45.0574079  41.0464392
  16.7149992  57.1659978  56.6900014  16.9139992  57.5899978  55.8560014
  17.3699992  57.5099978  57.2970014  16.8308522  57.2706301  56.6577852
   4.3129992  49.6399978  56.2980014   5.0449992  49.8949978  56.8600014
   3.5319992  49.8449978  56.8140014   4.3076526  49.7025450  56.4445176
  10.3419992  45.0469978  49.0360014  10.9059992  44.5009978  48.4890014
  10.1939992  44.5259978  49.8250014  10.3993037  44.9016787  49.0677229
   5.3439992  41.1839978  45.4550014   5.0269992  40.2809978  45.4190014
   6.1249992  41.1859978  44.9020014   5.4062431  41.0607797  45.3753102
   8.9679992  43.4359978  51.4500014   8.1329992  43.8899978  51.5610014
   9.4919992  43.7119978  52.2020014   8.9246072  43.5353948  51.5668136
   9.5129992  49.6489978  43.1350014   8.7679992  49.1409978  42.8130014
   9.3779992  49.6979978  44.0810014   9.3928963  49.5861731  43.2188826
  16.6629992  48.7819978  51.9220014  17.3039992  49.2379978  51.3780014
  15.8319992  48.8949978  51.4590014  16.6385287  48.8596921  51.7849887
  13.4099992  42.4629978  41.3340014  12.4719992  42.5739978  41.1830014
  13.7079992  43.3189978  41.6410014  13.3216318  42.5940158  41.3548145
  11.0319992  49.8329978  54.3720014  10.6859992  49.4509978  55.1790014
  10.8319992  50.7659978  54.4430014  10.9575987  49.9069002  54.4920461
  14.1289992  44.3299978  42.9950014  15.0209992  44.1919978  43.3140014
  14.1849992  45.1209978  42.4580014  14.2587325  44.4179918  42.9661217
   4.6369992  48.9439978  48.9050014   5.3819992  48.9409978  48.3030014
   4.7149992  48.1199978  49.3860014   4.7493365  48.8322384  48.8877430
  11.6379992  51.1069978  42.1600014  11.3429992  51.9339978  42.5420014
  10.9349992  50.4879978  42.3570014  11.5026379  51.1364171  42.2388654
   1.6449992  47.4039978  54.2200014   1.8679992  46.9859978  55.0510014
   1.0429992  46.7919978  53.7970014   1.5941513  47.2639606  54.2766740
   8.6619992  46.9209978  56.4330014   8.3659992  46.7559978  55.5370014
   9.5929992  46.7009978  56.4220014   8.7474401  46.8686879  56.3090206
  13.2819992  52.2949978  54.3220014  12.3819992  52.4779978  54.0550014
  13.3159992  52.5539978  55.2430014  13.1633748  52.3550554  54.4099164
  19.0139992  44.5389978  42.6900014  18.4589992  44.1429978  42.0170014
  19.1139992  45.4499978  42.4120014  18.9516816  44.6079505  42.5605033
  18.9769992  50.3399978  55.5270014  18.1259992  50.5779978  55.1590014
  19.5669992  50.3229978  54.7740014  18.9403812  50.3702524  55.3748453
  17.3089992  53.3249978  43.1550014  16.9359992  52.4999978  43.4640014
  17.5859992  53.1419978  42.2570014  17.2953463  53.1872569  43.0759525
  14.4689992  48.1329978  50.1760014  13.5409992  47.9019978  50.1490014
  14.9199992  47.3559978  49.8460014  14.4028165  47.9962774  50.1276790
   7.0119992  52.4619978  46.3090014   7.5399992  53.2349978  46.1090014
   6.1319992  52.6859978  46.0070014   6.9653435  52.5982700  46.2407310
   2.7669992  47.3239978  40.8960014   3.3829992  47.9509978  41.2760014
   1.9049992  47.6399978  41.1680014   2.7347678  47.4524412  40.9847209
   8.4399992  50.1249978  45.8850014   8.1989992  51.0499978  45.9270014
   7.6989992  49.6659978  46.2820014   8.3069206  50.1895915  45.9443769
   8.9539992  54.2739978  52.2000014   9.3169992  55.1279978  51.9670014
   9.4859992  53.9819978  52.9410014   9.0755141  54.3513895  52.2682097
   7.1229992  55.1459978  45.4310014   6.1729992  55.2519978  45.4820014
   7.4749992  55.9669978  45.7750014   7.0405472  55.2714923  45.4844852
  12.4979992  50.3729978  51.9010014  12.0729992  50.1449978  52.7270014
  13.0789992  49.6339978  51.7190014  12.5183395  50.2419545  51.9894414
  14.7009992  51.3019978  40.9750014  15.0549992  50.9219978  41.7790014
  13.7529992  51.2079978  41.0620014  14.6212298  51.2372452  41.0968687
  15.1569992  54.9249978  54.3700014  14.5549992  54.3689978  53.8750014
  15.4379992  55.5919978  53.7440014  15.1125757  54.9390744  54.2175675
  19.2049992  55.7809978  41.1760014  19.9489992  56.3669978  41.0360014
  18.5109992  56.3499978  41.5090014  19.2129809  55.9380818  41.2018590
   3.2789992  42.1579978  53.7780014   2.3869992  42.4959978  53.7100014
   3.1809992  41.3019978  54.1960014   3.1434475  42.0886543  53.8251704
  15.5669992  49.9739978  43.2020014  15.2899992  49.2459978  43.7580014
  16.4949992  50.0929978  43.4070014  15.6544499  49.8904213  43.3058044
   2.9309992  53.9619978  52.2130014   3.1479992  53.0299978  52.1820014
   3.1769992  54.2369978  53.0960014   2.9939809  53.8715686  52.3281691
   8.7919992  52.4139978  39.4220014   9.0309992  51.6649978  38.8750014
   8.5229992  52.0259978  40.2550014   8.7883233  52.2591853  39.4597809
   7.7289992  51.9839978  41.8780014   7.8759992  51.4639978  42.6680014
   7.7259992  52.8909978  42.1850014   7.7487102  52.0353953  42.0275925
   4.1819992  49.2359978  42.3890014   3.4959992  49.5889978  42.9560014
   4.7049992  49.9989978  42.1420014   4.1588402  49.3873901  42.4331801
  12.0139992  41.8989978  52.6680014  12.7129992  41.9729978  53.3180014
  11.6329992  41.0339978  52.8220014  12.0582097  41.7922389  52.7777997
  12.7979992  41.5509978  43.7650014  13.0179992  42.0219978  42.9610014
  13.3569992  41.9449978  44.4350014  12.9036731  41.6687287  43.7455033
  10.4669992  53.6809978  42.6280014   9.6499992  54.1779978  42.6800014
  10.9959992  54.1569978  41.9870014  10.4268125  53.8131989  42.5485306
   9.9979992  43.2789978  44.6000014  10.8099992  43.7829978  44.6460014
   9.7539992  43.1339978  45.5140014  10.0761467  43.3283749  44.7298575
  10.5339992  44.2649978  53.7840014  10.6529992  44.8389978  54.5410014
  11.1889992  43.5769978  53.8990014  10.6388684  44.2505194  53.9031674
  10.8819992  40.3599978  45.5380014  10.5349992  40.9769978  46.1820014
  11.5409992  40.8609978  45.0560014  10.9235090  40.5121575  45.5610681
   7.8049992  54.7249978  42.6090014   7.9659992  55.5249978  42.1090014
   7.6079992  55.0319978  43.4940014   7.8003906  54.8758678  42.6602333
   6.5399992  41.4229978  42.2250014   6.4559992  42.3109978  42.5720014
   7.4299992  41.1579978  42.4570014   6.6488163  41.5087179  42.3038596
  16.7379992  42.1719978  54.6190014  15.8219992  42.4339978  54.5320014
  17.0739992  42.1689978  53.7230014  16.6578499  42.2075163  54.4858766
  15.3409992  45.9219978  48.7150014  14.5429992  45.5069978  48.3870014
  15.7859992  45.2319978  49.2060014  15.2919684  45.7718628  48.7365227
   4.7979992  51.8499978  41.2850014   5.3899992  52.5499978  41.5620014
   5.2569992  51.4169978  40.5660014   4.9411652  51.8872675  41.2256533
   3.1139992  44.5149978  40.4010014   3.0689992  45.4539978  40.5800014
   2.2259992  44.2789978  40.1320014   2.9878166  44.6116687  40.3891524
  16.4269992  55.1779978  50.3370014  16.2709992  55.8569978  49.6800014
  17.3599992  55.2499978  50.5400014  16.5317387  55.2806390  50.2745342
   3.9219992  39.2959978  49.0750014   3.6929992  39.3549978  48.1470014
   3.4799992  38.5049978  49.3810014   3.8308801  39.1970540  48.9894729
   2.8529992  53.2369978  45.2350014   2.0199992  53.7089978  45.2620014
   3.3979992  53.7469978  44.6360014   2.8127857  53.3704791  45.1577142
   2.1409992  55.8489978  56.5650014   2.6809992  55.6329978  57.3250014
   1.6599992  55.0439978  56.3750014   2.1499219  55.7105156  56.6434282
   6.7379992  54.7689978  58.1850014   7.5059992  54.3099978  58.5260014
   6.7169992  54.5429978  57.2550014   6.8402135  54.6756668  58.1059491
  10.8299992  54.2769978  39.5610014  10.1859992  53.6459978  39.8820014
  11.5919992  53.7459978  39.3290014  10.8448058  54.1187902  39.5736038
  13.3149992  53.1489978  56.9140014  12.9639992  52.2919978  57.1580014
  14.0409992  53.2909978  57.5210014  13.3651895  53.0511351  57.0293770
  15.4349992  54.0939978  39.7940014  15.7179992  53.2989978  40.2470014
  16.1739992  54.3269978  39.2330014  15.5737096  54.0167049  39.7801104
   2.0479992  49.6599978  57.5190014   2.1919992  48.7579978  57.2330014
   1.2759992  49.9459978  57.0320014   1.9632733  49.5751798  57.4139532
   6.3889992  50.0029978  39.6520014   6.4539992  49.2089978  40.1820014
   7.0419992  49.8849978  38.9620014   6.4861605  49.8783430  39.6312997
   8.7029992  49.6289978  56.9520014   8.3749992  49.8999978  56.0950014
   8.8549992  48.6879978  56.8640014   8.6786412  49.5389046  56.8227822
  11.7419992  51.0499978  39.3880014  11.4729992  51.2309978  40.2880014
  11.5349992  50.1249978  39.2560014  11.6771191  50.9497119  39.4935524
  14.4379992  49.5449978  54.3350014  15.1829992  50.1339978  54.2160014
  13.6809992  50.1269978  54.3990014  14.4375470  49.7042128  54.3273799
   2.8809992  46.8599978  56.9390014   3.2889992  46.0029978  56.8180014
   2.6199992  46.8739978  57.8600014   2.9016016  46.7445119  57.0469192
   7.5389992  47.9759978  41.9580014   7.0789992  47.4919978  42.6430014
   7.7939992  47.3069978  41.3220014   7.5104856  47.8193669  41.9658397
   6.8279992  45.8689978  54.3140014   6.2089992  46.5429978  54.5940014
   7.1719992  46.1899978  53.4800014   6.7897123  46.0046887  54.2396388
   8.6099992  46.2189978  40.2200014   8.4289992  46.0639978  39.2930014
   9.5599992  46.3269978  40.2650014   8.7136566  46.2123669  40.0990929
  11.8469992  48.3399978  57.5910014  12.8009992  48.4239978  57.5640014
  11.6869992  47.6279978  58.2110014  11.9557182  48.2552842  57.6710733
  17.9999992  48.5729978  39.6660014  17.7259992  48.1489978  38.8530014
  18.0389992  49.5049978  39.4490014  17.9677716  48.6408827  39.5254286
   7.1669992  43.2239978  55.3960014   7.3169992  42.4949978  54.7940014
   7.1689992  44.0009978  54.8370014   7.1877967  43.2292708  55.2380541
   7.5799992  41.5929978  52.8890014   8.1149992  42.0449978  52.2370014
   6.7269992  41.4849978  52.4660014   7.5380374  41.6402665  52.7426710
   9.1609992  47.0329978  53.1280014   9.9119992  46.8769978  52.5550014
   8.8219992  47.8849978  52.8530014   9.2179587  47.1268138  53.0124078
  13.5769992  44.8479978  58.1570014  13.7689992  43.9169978  58.0450014
  14.4349992  45.2729978  58.1460014  13.7192182  44.7780070  58.1401862
  14.8939992  47.6369978  56.2340014  14.6119992  48.3459978  55.6560014
  15.8359992  47.5639978  56.0830014  14.9827921  47.7242193  56.1344225
   5.6459992  44.4219978  57.3070014   4.8779992  43.8889978  57.0970014
   6.3239992  44.1119978  56.7080014   5.6327235  44.3071754  57.1972413
   8.3849992  39.0499978  53.3200014   8.2869992  39.9959978  53.2150014
   7.6429992  38.6769978  52.8440014   8.2712534  39.1291773  53.2412600
   9.6489992  43.3709978  56.8840014   9.4139992  43.1519978  57.7850014
   8.8659992  43.1639978  56.3740014   9.5109095  43.3129892  56.9385353
  12.3649992  42.4989978  55.9590014  11.4169992  42.5309978  56.0910014
  12.6769992  41.8729978  56.6130014  12.2775293  42.4187923  56.0654148
  13.9989992  41.1329978  57.9640014  13.9019992  40.1809978  57.9590014
  13.6769992  41.4009978  58.8250014  13.9422468  41.0390884  58.0796210
   3.8259992  42.3419978  57.0120014   4.0379992  41.6359978  56.4020014
   3.7149992  41.9049978  57.8560014   3.8400269  42.1861921  57.0425873
   8.6069992  38.3439978  55.9910014   9.3189992  37.7039978  55.9770014
   8.5059992  38.6099978  55.0780014   8.6907387  38.2924330  55.8655563
   8.9609992  40.0259978  58.0450014   8.8289992  39.5509978  57.2250014
   8.3609992  40.7709978  57.9900014   8.8619070  40.0615789  57.9253251
   8.5069992  56.9089978  41.2210014   9.4399992  57.0669978  41.3650014
   8.2429992  57.5849978  40.5960014   8.5989911  57.0219373  41.1562722
   2.0749992  51.5459978  40.7040014   2.9889992  51.6249978  40.9770014
   2.0829992  50.8589978  40.0380014   2.2010655  51.4639205  40.6512917
   0.7239992  56.9389978  45.7810014   0.0769992  56.4769978  45.2490014
   1.0789992  56.2669978  46.3640014   0.6833741  56.7849774  45.7869175
   1.5939992  55.0189978  47.5860014   1.2599992  54.1389978  47.7580014
   1.8169992  55.3649978  48.4510014   1.5783721  54.9451938  47.7264168
  19.1429992  55.8289978  50.5670014  19.1209992  56.0139978  51.5060014
  19.8329992  56.3969978  50.2260014  19.2333439  55.9311887  50.6494791
  18.7059992  55.3959978  53.4880014  18.2189992  54.6609978  53.1170014
  19.2549992  55.0019978  54.1660014  18.7135247  55.2421057  53.5288461
  17.1569992  51.1859978  58.1270014  16.2909992  51.0809978  58.5210014
  17.5329992  51.9439978  58.5730014  17.0893401  51.2741708  58.2412620
  18.4579992  49.4419978  43.6410014  19.3079992  49.8629978  43.7680014
  18.4629992  48.7019978  44.2480014  18.5751143  49.3996094  43.7404750
  18.8519992  47.4959978  45.4640014  18.1259992  47.0159978  45.8620014
  19.4339992  47.7009978  46.1970014  18.8312730  47.4580184  45.6174149
  18.6109992  50.2809978  50.4120014  19.4449992  49.9029978  50.1310014
  18.7229992  51.2239978  50.2930014  18.7401917  50.3567943  50.3574861
  17.0979992  53.1589978  52.7190014  16.4499992  53.4839978  53.3440014
  16.5799992  52.7179978  52.0450014  16.9394196  53.1438651  52.7134152
  19.1209992  47.3969978  41.8550014  18.5989992  47.7529978  41.1370014
  19.0879992  48.0719978  42.5340014  19.0450129  47.5369598  41.8483355
  17.4699992  44.6359978  40.4060014  17.5659992  45.3029978  39.7260014
  17.3299992  43.8209978  39.9250014  17.4642040  44.6170671  40.2478378
  16.6389992  46.0169978  46.0270014  16.4889992  45.0719978  46.0070014
  16.2849992  46.2979978  46.8710014  16.5706351  45.9256644  46.1383220
   1.6739992  48.0949978  50.0380014   1.8589992  48.0129978  49.1020014
   2.5239992  47.9709978  50.4610014   1.8140928  48.0670463  49.9672893
  17.4949992  47.9869978  55.6660014  18.0779992  47.2519978  55.8580014
  18.0589992  48.7589978  55.7130014  17.6509781  47.9908145  55.6986164
  18.9919992  45.8899978  56.3510014  18.1289992  45.5109978  56.1850014
  19.5959992  45.1509978  56.2760014  18.9556085  45.7383223  56.3181694
  16.7169992  42.0439978  39.5240014  17.3279992  41.6729978  40.1610014
  15.8799992  41.6229978  39.7200014  16.6874947  41.9362756  39.6377252
  16.3499992  43.5989978  44.4900014  16.6289992  42.6919978  44.6140014
  17.1089992  44.0329978  44.1010014  16.4908619  43.5334502  44.4543795
  16.9609992  44.1809978  49.9260014  17.8939992  44.3929978  49.8910014
  16.7259992  44.2819978  50.8480014  17.0569517  44.2236833  50.0459130
  16.9909992  44.9179978  52.7020014  16.1479992  45.1859978  53.0680014
  17.4329992  45.7399978  52.4910014  16.9354138  45.0658273  52.7235518
   1.2719992  43.3649978  56.1780014   2.1909992  43.2429978  56.4150014
   0.8219992  42.6149978  56.5680014   1.3370087  43.2469608  56.2631410
  19.2739992  38.8979978  58.0550014  19.6229992  38.2439978  57.4500014
  19.4209992  39.7349978  57.6150014  19.3416824  38.9216024  57.9126304
  16.9629992  40.8619978  44.5380014  17.1449992  40.4129978  45.3630014
  16.3629992  40.2779978  44.0740014  16.9068187  40.7215552  44.5882739
   2.4929992  41.6779978  49.0700014   2.9379992  40.8859978  49.3720014
   2.9589992  42.3939978  49.5000014   2.6169718  41.6664534  49.1695265
   0.7969992  44.6769978  50.1390014   1.2889992  44.4559978  49.3480014
   1.1589992  45.5169978  50.4200014   0.9132923  44.7603468  50.0687407
  18.7929992  41.0069978  56.4040014  17.8759992  41.2779978  56.3690014
  18.9159992  40.4719978  55.6200014  18.6839672  40.9717885  56.2931862
  18.8299992  40.9299978  41.0660014  19.2419992  40.2089978  40.5910014
  19.5109992  41.5989978  41.1240014  18.9785536  40.9217766  41.0088024
   1.1109992  40.9349978  44.1930014   0.1859992  41.1429978  44.0640014
   1.5649992  41.4189978  43.5030014   1.0456298  41.0289299  44.0820451
  15.8809992  55.9189978  46.1390014  16.5339992  55.5709978  45.5310014
  16.3919992  56.4069978  46.7850014  16.0392777  55.9373815  46.1432047
   1.0739992  39.6729978  52.5370014   0.4089992  39.4269978  53.1800014
   0.6309992  40.2949978  51.9600014   0.9231168  39.7234214  52.5469848
   3.2659992  52.8479978  56.6820014   2.4449992  53.0229978  56.2210014
   3.0139992  52.7749978  57.6020014   3.1195594  52.8620717  56.7433611
   6.2199992  53.8219978  52.9400014   5.7959992  54.6319978  52.6580014
   7.1249992  53.9079978  52.6380014   6.2842138  53.9444160  52.8606415
  10.5319992  55.2209978  55.9000014  10.7159992  54.8879978  56.7780014
  11.3779992  55.5309978  55.5780014  10.6716484  55.2172979  55.9767617
  12.8769992  56.5069978  55.1440014  13.5539992  55.8739978  54.9040014
  13.1979992  56.9079978  55.9510014  13.0131323  56.4745691  55.2203158
  17.7939992  39.0969978  54.2230014  16.9809992  39.4219978  53.8360014
  18.0269992  38.3359978  53.6900014  17.7141347  39.0386880  54.0979841
   3.6219992  57.0789978  52.9880014   2.9019992  57.5189978  52.5370014
   3.2569992  56.8279978  53.8360014   3.4739643  57.1053369  53.0409129
   6.0889992  56.6789978  52.0180014   5.2249992  56.7509978  52.4220014
   6.0339992  57.2259978  51.2340014   5.9631942  56.7627849  51.9674000
  10.7999992  56.5669978  51.1930014  10.3429992  57.0959978  50.5390014
  10.9629992  57.1699978  51.9180014  10.7594960  56.7209280  51.2015274
  13.1279992  55.4449978  52.1380014  12.2229992  55.6099978  51.8720014
  13.5559992  56.2979978  52.0720014  13.0621537  55.5829134  52.0927095
  15.7319992  57.0149978  52.4330014  15.5499992  57.9309978  52.2220014
  15.9089992  56.6039978  51.5860014  15.7310030  57.0848273  52.2897166
   3.0369992  55.7019978  49.8980014   3.0189992  55.2759978  50.7550014
   3.8419992  55.3829978  49.4890014   3.1432875  55.6006435  49.9599515
   5.1779992  54.4119978  48.5530014   4.9589992  53.4949978  48.7230014
   6.0019992  54.5519978  49.0190014   5.2594702  54.3055511  48.6392527
   7.7149992  54.8819978  49.4020014   7.9279992  53.9939978  49.1150014
   7.7799992  54.8469978  50.3560014   7.7529149  54.7558326  49.4917369
  11.2239992  40.5459978  48.5460014  10.5499992  39.9159978  48.8020014
  11.7879992  40.0619978  47.9430014  11.2080384  40.3943708  48.4995020
  16.3669992  38.6529978  48.6590014  16.9699992  39.2009978  48.1570014
  15.4969992  38.9719978  48.4180014  16.3319157  38.7710373  48.5577910
  18.0939992  39.7919978  46.9920014  18.7049992  39.2779978  46.4650014
  18.4759992  40.6689978  47.0150014  18.2293305  39.8402050  46.9229418
   3.5509992  39.1799978  46.3680014   2.7739992  38.9449978  45.8610014
   4.0809992  38.3829978  46.3770014   3.5163451  39.0401268  46.2998627
   2.3869992  38.9779978  42.1720014   2.8259992  39.5889978  41.5800014
   1.7529992  39.5159978  42.6460014   2.3613859  39.1344064  42.1550305
   8.1299992  39.1059978  46.1810014   9.0039992  39.4949978  46.1520014
   7.9939992  38.8909978  47.1040014   8.2311953  39.1301643  46.3017617
  13.6869992  39.1359978  47.8310014  13.7629992  39.2319978  46.8810014
  13.4119992  38.2289978  47.9590014  13.6601871  39.0264146  47.7183944
  15.0399992  39.1619978  43.5230014  14.3369992  39.7769978  43.3130014
  14.5949992  38.3249978  43.6540014  14.8836550  39.1329668  43.5119837
   2.2879992  54.9259978  43.0690014   1.6029992  54.8879978  42.4020014
   2.2919992  55.8389978  43.3570014   2.1947621  55.0441924  43.0166126
   4.2479992  40.8939978  40.6140014   4.7389992  40.2639978  40.0870014
   4.8709992  41.1899978  41.2770014   4.3995304  40.8477376  40.6314940
   9.2739992  41.1869978  43.0710014   9.4519992  40.5399978  43.7540014
   9.2199992  42.0209978  43.5380014   9.2910678  41.2111604  43.2276301
  11.1519992  56.1349978  41.4670014  12.0179992  56.5019978  41.2890014
  10.9059992  55.6959978  40.6530014  11.2372097  56.1258525  41.3326019
  17.8609992  55.6979978  44.1460014  17.6669992  54.9499978  43.5810014
  17.8219992  56.4559978  43.5630014  17.8291645  55.6980786  43.9898148
   3.5079992  39.6939978  55.8860014   3.1419992  38.9279978  56.3280014
   4.4209992  39.7229978  56.1720014   3.5813172  39.5930324  55.9851890
   5.4809992  39.0439978  57.4210014   6.3799992  38.7699978  57.2370014
   5.0949992  38.3019978  57.8860014   5.5517307  38.9062196  57.4587098
   4.1059992  55.8459978  40.0940014   3.8379992  56.1319978  40.9680014
   4.8769992  55.2999978  40.2470014   4.1735926  55.8112779  40.2341205
  13.9029992  38.3769978  57.6040014  13.9789992  37.9509978  58.4570014
  14.7959992  38.3899978  57.2610014  14.0342303  38.3203493  57.6745497
  17.0789992  54.4499978  56.2960014  16.2969992  54.2629978  55.7760014
  17.0069992  55.3789978  56.5130014  16.9621924  54.5500637  56.2541602
  31.4849992  48.3359978  46.3270014  31.5739992  49.2799978  46.1950014
  30.8469992  48.0609978  45.6690014  31.4109062  48.4279812  46.2199641
  30.4179992  47.5909978  49.7460014  30.3799992  46.9449978  50.4510014
  30.0959992  47.1239978  48.9750014  30.3692679  47.4394276  49.7382921
  22.7859992  47.2049978  51.3390014  22.8279992  46.5799978  52.0620014
  23.4889992  47.8289978  51.5210014  22.8867345  47.2037873  51.4625274
  34.1239992  50.5299978  48.0470014  33.6829992  49.8099978  48.4980014
  34.1109992  51.2509978  48.6770014  34.0619215  50.5289291  48.1938105
  23.7099992  51.6549978  49.8740014  23.3399992  50.8529978  49.5040014
  24.6509992  51.4869978  49.9200014  23.7865984  51.5224638  49.8295603
  20.3199992  45.3149978  45.2660014  19.8719992  46.1609978  45.2480014
  19.7589992  44.7359978  44.7510014  20.1828546  45.3523993  45.1938891
  21.0299992  47.4769978  47.3920014  21.2439992  46.7069978  47.9200014
  21.7679992  47.5669978  46.7890014  21.1590200  47.3838587  47.3827035
  31.2359992  55.6339978  48.2590014  31.8549992  54.9579978  47.9860014
  31.0269992  55.4159978  49.1680014  31.2926056  55.5118869  48.3443967
  28.8069992  50.0229978  50.1520014  29.1109992  49.3369978  49.5570014
  29.5289992  50.1419978  50.7700014  28.9461240  49.9452314  50.1540959
  37.4699992  41.6249978  51.0120014  37.5199992  42.2349978  51.7480014
  37.8959992  42.0859978  50.2890014  37.5344108  41.7707709  51.0150112
  31.9479992  44.4169978  50.4790014  32.0909992  43.4709978  50.4990014
  31.8419992  44.6239978  49.5510014  31.9532403  44.3154797  50.3562239
  25.1029992  42.5189978  47.7520014  25.1459992  43.3789978  47.3330014
  24.6449992  41.9669978  47.1180014  25.0469871  42.5619245  47.6090761
  32.8249992  42.6499978  46.1530014  33.4719992  42.3209978  46.7770014
  33.3349992  43.1669978  45.5300014  32.9824351  42.6749067  46.1541037
  21.7229992  44.9159978  48.5140014  22.3769992  44.3659978  48.9460014
  21.7469992  44.6419978  47.5970014  21.8157199  44.8037167  48.4491668
  26.8799992  46.4659978  47.7290014  27.4959992  45.9389978  48.2380014
  26.2929992  45.8259978  47.3250014  26.8850154  46.3073954  47.7440945
  37.8619992  43.1029978  53.2480014  37.1729992  43.7609978  53.1530014
  37.8769992  42.9049978  54.1850014  37.7697756  43.1662603  53.3615812
  23.9129992  41.4369978  51.8260014  23.6939992  41.9669978  51.0590014
  23.2449992  41.6629978  52.4730014  23.7926975  41.5400967  51.8085140
  31.2819992  50.9369978  45.3700014  30.9869992  50.6139978  44.5180014
  30.9579992  51.8369978  45.4110014  31.1978460  51.0144464  45.2589714
  26.4819992  49.1119978  52.1130014  25.7419992  49.7109978  52.2170014
  27.1959992  49.6659978  51.7980014  26.4773500  49.2687829  52.0846371
  34.5889992  41.9409978  48.1330014  34.3739992  41.1749978  48.6660014
  35.2449992  42.4129978  48.6460014  34.6482673  41.9000728  48.2751990
  23.5069992  43.3289978  49.7780014  24.1209992  43.9619978  50.1510014
  24.0189992  42.8569978  49.1220014  23.6601962  43.3517249  49.7402935
  24.8899992  51.0769978  52.9000014  24.8839992  51.9559978  52.5220014
  24.0359992  50.9929978  53.3250014  24.7737925  51.1859535  52.9056887
  21.0109992  50.7479978  43.6820014  20.7389992  50.9769978  42.7940014
  21.0559992  51.5849978  44.1430014  20.9798097  50.8926163  43.6226683
  34.6359992  52.3689978  50.3950014  33.6939992  52.4279978  50.5570014
  34.9119992  53.2749978  50.2580014  34.5445865  52.4995288  50.3986192
  34.9359992  40.6559978  51.8120014  34.1999992  41.2659978  51.7750014
  35.6199992  41.0709978  51.2860014  34.9275367  40.7957551  51.7358174
  27.9399992  38.7419978  49.2780014  27.8219992  37.7939978  49.2240014
  27.0849992  39.0749978  49.5510014  27.8082805  38.6572202  49.3075079
  32.8879992  54.1499978  47.0200014  33.3129992  53.4429978  46.5350014
  33.2049992  54.9519978  46.6030014  32.9890266  54.1615190  46.8972479
  34.0479992  52.0509978  45.5290014  33.7899992  51.3609978  44.9170014
  34.1189992  51.6079978  46.3740014  34.0223050  51.8966814  45.5595621
  35.7339992  50.6179978  54.0060014  35.8729992  50.0259978  53.2670014
  35.9009992  51.4909978  53.6500014  35.7756193  50.6548896  53.8566211
  30.2059992  47.5799978  43.7790014  29.4949992  48.1149978  43.4270014
  30.8969992  47.6349978  43.1190014  30.2020751  47.6606777  43.6415858
  30.2599992  46.0369978  40.8170014  30.9609992  46.0599978  41.4690014
  30.5619992  45.4089978  40.1610014  30.3968202  45.9552212  40.8175609
  37.5749992  46.9579978  52.0720014  36.9229992  47.6519978  52.1610014
  38.0409992  47.1679978  51.2620014  37.5485937  47.0815019  51.9747533
  33.6119992  47.7889978  44.7300014  32.8799992  48.0179978  45.3040014
  34.0589992  47.0759978  45.1850014  33.5723963  47.7238729  44.8699945
  33.5089992  45.9639978  53.7980014  33.5889992  46.7269978  54.3700014
  32.9079992  46.2429978  53.1080014  33.4386547  46.1062457  53.7830047
  25.2569992  48.4199978  46.6130014  24.9269992  48.0489978  45.7950014
  25.8459992  47.7489978  46.9600014  25.2913970  48.2786063  46.5479404
  26.6239992  51.8479978  49.2940014  26.5289992  51.2689978  48.5380014
  27.3529992  51.4769978  49.7900014  26.7096011  51.7185561  49.2576028
  25.6239992  47.1879978  50.2460014  26.1889992  47.3099978  49.4840014
  25.9429992  47.8259978  50.8850014  25.7444166  47.2908791  50.2280348
  31.9329992  52.6919978  50.9800014  31.6929992  53.3539978  51.6280014
  31.7349992  51.8569978  51.4050014  31.8733826  52.6698115  51.1261566
  26.5039992  51.5879978  54.9640014  26.1929992  52.3699978  55.4190014
  25.8539992  51.4349978  54.2780014  26.3735538  51.6744087  54.9335898
  32.4829992  46.9519978  42.4160014  33.0619992  47.1019978  43.1620014
  32.8969992  47.4219978  41.6920014  32.6183358  47.0360954  42.4203953
  23.4239992  47.7859978  54.1920014  23.4939992  48.4369978  54.8910014
  22.5329992  47.8889978  53.8570014  23.3131690  47.8889249  54.2423043
  30.2089992  53.6879978  45.8510014  30.6829992  53.9839978  46.6280014
  29.6459992  54.4269978  45.6180014  30.1977890  53.8283036  45.9258101
  24.7429992  53.6589978  55.7270014  24.7509992  53.5229978  54.7800014
  23.8269992  53.5419978  55.9790014  24.6202528  53.6245463  55.6313243
  36.1819992  38.7019978  42.2290014  35.2819992  38.8409978  42.5240014
  36.4339992  39.5329978  41.8270014  36.0928683  38.8334055  42.2150232
  24.2479992  47.4889978  44.2020014  23.9559992  48.2569978  43.7110014
  23.5729992  46.8299978  44.0390014  24.1168497  47.5049745  44.1128260
  37.3709992  53.0679978  40.6050014  37.4439992  54.0069978  40.7750014
  38.2759992  52.7629978  40.5490014  37.5034170  53.1553282  40.6207063
  20.3409992  49.8519978  53.0170014  19.8389992  49.8239978  52.2020014
  20.3459992  48.9469978  53.3270014  20.2729832  49.7257486  52.9474121
  20.0909992  52.6329978  49.9010014  21.0369992  52.4879978  49.8820014
  19.9779992  53.4169978  50.4380014  20.2053578  52.7191697  49.9710317
  38.2889992  53.2989978  55.5840014  38.2389992  52.3429978  55.5460014
  37.4619992  53.5659978  55.9850014  38.1703831  53.2044680  55.6330121
  29.2669992  52.8729978  54.4600014  29.3549992  53.6989978  54.9350014
  28.4039992  52.5429978  54.7090014  29.1623357  52.9415468  54.5587653
  29.6819992  56.6449978  44.2660014  29.6059992  56.5239978  43.3190014
  29.7139992  57.5939978  44.3840014  29.6759380  56.7567677  44.1525181
  23.3349992  55.4339978  46.0470014  23.4869992  55.0859978  46.9250014
  22.4839992  55.0769978  45.7910014  23.2408344  55.3380879  46.1326868
  32.7829992  55.7989978  41.2680014  33.1579992  55.0549978  40.7970014
  32.7879992  55.5289978  42.1860014  32.8350098  55.6606392  41.3276629
  32.4519992  55.7249978  44.0170014  31.5169992  55.8249978  44.1960014
  32.7319992  55.0149978  44.5960014  32.3619471  55.6427933  44.1196695
  35.4409992  44.7919978  56.0640014  35.0329992  45.2719978  55.3430014
  35.4809992  43.8859978  55.7560014  35.3906221  44.7352449  55.9238267
  22.5899992  51.1759978  54.0600014  22.8059992  50.8139978  54.9200014
  21.7339992  50.8009978  53.8510014  22.5038810  51.0758837  54.1492680
  25.2079992  39.6459978  50.0560014  24.3469992  39.5589978  49.6480014
  25.1859992  40.5019978  50.4840014  25.0870491  39.7498003  50.0579582
  29.8709992  39.3679978  53.4310014  30.2909992  38.9529978  54.1840014
  28.9379992  39.1889978  53.5480014  29.8023736  39.2869910  53.5498968
  33.1979992  43.1229978  54.2840014  32.6839992  42.9979978  55.0820014
  33.0419992  44.0359978  54.0400014  33.1066967  43.2292123  54.3600937
  33.9599992  47.9839978  40.0450014  34.0019992  47.7619978  39.1150014
  34.8089992  48.3829978  40.2350014  34.0805253  48.0075498  39.9433822
  29.5329992  41.8599978  40.7160014  29.2789992  41.8789978  41.6380014
  29.2759992  40.9889978  40.4140014  29.4634508  41.7448280  40.8014803
  25.2989992  44.6109978  51.1510014  24.6579992  44.5709978  51.8600014
  25.3369992  45.5379978  50.9130014  25.2163010  44.7307668  51.2159946
  25.2959992  44.8319978  46.0630014  24.4039992  44.4919978  46.0040014
  25.7469992  44.4549978  45.3070014  25.2347642  44.7344910  45.9527726
  30.8319992  45.2479978  44.8800014  30.4229992  46.0629978  44.5880014
  31.5519992  45.1079978  44.2660014  30.8734439  45.3405372  44.7570115
  29.9339992  45.4239978  56.3680014  29.3709992  44.7189978  56.6890014
  30.7599992  45.3029978  56.8360014  29.9686674  45.3112165  56.4751751
  31.8369992  44.6939978  47.6940014  31.6409992  45.2999978  46.9790014
  32.0179992  43.8609978  47.2600014  31.8346584  44.6642513  47.5374212
  23.0489992  44.9319978  53.0180014  23.0109992  45.3319978  53.8870014
  22.5589992  44.1149978  53.1080014  22.9775330  44.8762674  53.1491289
  26.4149992  42.3059978  39.8170014  25.9839992  41.8609978  40.5460014
  25.6969992  42.6769978  39.3040014  26.2589176  42.2952051  39.8474930
  19.6579992  42.0479978  46.8690014  20.2879992  42.0189978  47.5880014
  20.1069992  41.6229978  46.1380014  19.8050835  41.9865660  46.8687659
  20.9319992  42.7939978  42.2930014  21.4059992  43.3849978  41.7080014
  20.2139992  43.3239978  42.6400014  20.8998640  42.9465511  42.2597969
  31.1009992  46.3319978  52.3650014  31.4239992  45.7009978  51.7220014
  30.6599992  45.7979978  53.0260014  31.0856379  46.1733468  52.3662582
  27.8779992  42.2599978  47.1490014  26.9669992  42.3169978  47.4380014
  28.3829992  42.1999978  47.9600014  27.8216873  42.2596826  47.2981207
  22.7059992  43.8889978  45.9760014  21.8169992  43.9879978  45.6360014
  23.0029992  43.0469978  45.6300014  22.6244177  43.7887687  45.8826940
  26.3589992  43.8889978  43.6330014  27.2909992  44.0179978  43.8110014
  26.1439992  44.5579978  42.9830014  26.4574472  43.9970806  43.5694891
  32.2829992  41.4949978  50.4140014  31.6059992  41.6259978  51.0770014
  31.7979992  41.3399978  49.6030014  32.1247405  41.4919947  50.3952170
  25.0329992  45.0829978  41.1990014  24.4909992  44.7039978  40.5080014
  25.8669992  45.2779978  40.7710014  25.0714390  45.0574079  41.0464392
  35.5709992  57.1659978  56.6900014  35.7699992  57.5899978  55.8560014
  36.2259992  57.5099978  57.2970014  35.6868522  57.2706301  56.6577852
  23.1689992  49.6399978  56.2980014  23.9009992  49.8949978  56.8600014
  22.3879992  49.8449978  56.8140014  23.1636526  49.7025450  56.4445176
  29.1979992  45.0469978  49.0360014  29.7619992  44.5009978  48.4890014
  29.0499992  44.5259978  49.8250014  29.2553037  44.9016787  49.0677229
  24.1999992  41.1839978  45.4550014  23.8829992  40.2809978  45.4190014
  24.9809992  41.1859978  44.9020014  24.2622431  41.0607797  45.3753102
  27.8239992  43.4359978  51.4500014  26.9889992  43.8899978  51.5610014
  28.3479992  43.7119978  52.2020014  27.7806072  43.5353948  51.5668136
  28.3689992  49.6489978  43.1350014  27.6239992  49.1409978  42.8130014
  28.2339992  49.6979978  44.0810014  28.2488963  49.5861731  43.2188826
  35.5189992  48.7819978  51.9220014  36.1599992  49.2379978  51.3780014
  34.6879992  48.8949978  51.4590014  35.4945287  48.8596921  51.7849887
  32.2659992  42.4629978  41.3340014  31.3279992  42.5739978  41.1830014
  32.5639992  43.3189978  41.6410014  32.1776318  42.5940158  41.3548145
  29.8879992  49.8329978  54.3720014  29.5419992  49.4509978  55.1790014
  29.6879992  50.7659978  54.4430014  29.8135987  49.9069002  54.4920461
  32.9849992  44.3299978  42.9950014  33.8769992  44.1919978  43.3140014
  33.0409992  45.1209978  42.4580014  33.1147325  44.4179918  42.9661217
  23.4929992  48.9439978  48.9050014  24.2379992  48.9409978  48.3030014
  23.5709992  48.1199978  49.3860014  23.6053365  48.8322384  48.8877430
  30.4939992  51.1069978  42.1600014  30.1989992  51.9339978  42.5420014
  29.7909992  50.4879978  42.3570014  30.3586379  51.1364171  42.2388654
  20.5009992  47.4039978  54.2200014  20.7239992  46.9859978  55.0510014
  19.8989992  46.7919978  53.7970014  20.4501513  47.2639606  54.2766740
  27.5179992  46.9209978  56.4330014  27.2219992  46.7559978  55.5370014
  28.4489992  46.7009978  56.4220014  27.6034401  46.8686879  56.3090206
  32.1379992  52.2949978  54.3220014  31.2379992  52.4779978  54.0550014
  32.1719992  52.5539978  55.2430014  32.0193748  52.3550554  54.4099164
  37.8699992  44.5389978  42.6900014  37.3149992  44.1429978  42.0170014
  37.9699992  45.4499978  42.4120014  37.8076816  44.6079505  42.5605033
  37.8329992  50.3399978  55.5270014  36.9819992  50.5779978  55.1590014
  38.4229992  50.3229978  54.7740014  37.7963812  50.3702524  55.3748453
  36.1649992  53.3249978  43.1550014  35.7919992  52.4999978  43.4640014
  36.4419992  53.1419978  42.2570014  36.1513463  53.1872569  43.0759525
  33.3249992  48.1329978  50.1760014  32.3969992  47.9019978  50.1490014
  33.7759992  47.3559978  49.8460014  33.2588165  47.9962774  50.1276790
  25.8679992  52.4619978  46.3090014  26.3959992  53.2349978  46.1090014
  24.9879992  52.6859978  46.0070014  25.8213435  52.5982700  46.2407310
  21.6229992  47.3239978  40.8960014  22.2389992  47.9509978  41.2760014
  20.7609992  47.6399978  41.1680014  21.5907678  47.4524412  40.9847209
  27.2959992  50.1249978  45.8850014  27.0549992  51.0499978  45.9270014
  26.5549992  49.6659978  46.2820014  27.1629206  50.1895915  45.9443769
  27.8099992  54.2739978  52.2000014  28.1729992  55.1279978  51.9670014
  28.3419992  53.9819978  52.9410014  27.9315141  54.3513895  52.2682097
  25.9789992  55.1459978  45.4310014  25.0289992  55.2519978  45.4820014
  26.3309992  55.9669978  45.7750014  25.8965472  55.2714923  45.4844852
  31.3539992  50.3729978  51.9010014  30.9289992  50.1449978  52.7270014
  31.9349992  49.6339978  51.7190014  31.3743395  50.2419545  51.9894414
  33.5569992  51.3019978  40.9750014  33.9109992  50.9219978  41.7790014
  32.6089992  51.2079978  41.0620014  33.4772298  51.2372452  41.0968687
  34.0129992  54.9249978  54.3700014  33.4109992  54.3689978  53.8750014
  34.2939992  55.5919978  53.7440014  33.9685757  54.9390744  54.2175675
  38.0609992  55.7809978  41.1760014  38.8049992  56.3669978  41.0360014
  37.3669992  56.3499978  41.5090014  38.0689809  55.9380818  41.2018590
  22.1349992  42.1579978  53.7780014  21.2429992  42.4959978  53.7100014
  22.0369992  41.3019978  54.1960014  21.9994475  42.0886543  53.8251704
  34.4229992  49.9739978  43.2020014  34.1459992  49.2459978  43.7580014
  35.3509992  50.0929978  43.4070014  34.5104499  49.8904213  43.3058044
  21.7869992  53.9619978  52.2130014  22.0039992  53.0299978  52.1820014
  22.0329992  54.2369978  53.0960014  21.8499809  53.8715686  52.3281691
  27.6479992  52.4139978  39.4220014  27.8869992  51.6649978  38.8750014
  27.3789992  52.0259978  40.2550014  27.6443233  52.2591853  39.4597809
  26.5849992  51.9839978  41.8780014  26.7319992  51.4639978  42.6680014
  26.5819992  52.8909978  42.1850014  26.6047102  52.0353953  42.0275925
  23.0379992  49.2359978  42.3890014  22.3519992  49.5889978  42.9560014
  23.5609992  49.9989978  42.1420014  23.0148402  49.3873901  42.4331801
  30.8699992  41.8989978  52.6680014  31.5689992  41.9729978  53.3180014
  30.4889992  41.0339978  52.8220014  30.9142097  41.7922389  52.7777997
  31.6539992  41.5509978  43.7650014  31.8739992  42.0219978  42.9610014
  32.2129992  41.9449978  44.4350014  31.7596731  41.6687287  43.7455033
  29.3229992  53.6809978  42.6280014  28.5059992  54.1779978  42.6800014
  29.8519992  54.1569978  41.9870014  29.2828125  53.8131989  42.5485306
  28.8539992  43.2789978  44.6000014  29.6659992  43.7829978  44.6460014
  28.6099992  43.1339978  45.5140014  28.9321467  43.3283749  44.7298575
  29.3899992  44.2649978  53.7840014  29.5089992  44.8389978  54.5410014
  30.0449992  43.5769978  53.8990014  29.4948684  44.2505194  53.9031674
  29.7379992  40.3599978  45.5380014  29.3909992  40.9769978  46.1820014
  30.3969992  40.8609978  45.0560014  29.7795090  40.5121575  45.5610681
  26.6609992  54.7249978  42.6090014  26.8219992  55.5249978  42.1090014
  26.4639992  55.0319978  43.4940014  26.6563906  54.8758678  42.6602333
  25.3959992  41.4229978  42.2250014  25.3119992  42.3109978  42.5720014
  26.2859992  41.1579978  42.4570014  25.5048163  41.5087179  42.3038596
  35.5939992  42.1719978  54.6190014  34.6779992  42.4339978  54.5320014
  35.9299992  42.1689978  53.7230014  35.5138499  42.2075163  54.4858766
  34.1969992  45.9219978  48.7150014  33.3989992  45.5069978  48.3870014
  34.6419992  45.2319978  49.2060014  34.1479684  45.7718628  48.7365227
  23.6539992  51.8499978  41.2850014  24.2459992  52.5499978  41.5620014
  24.1129992  51.4169978  40.5660014  23.7971652  51.8872675  41.2256533
  21.9699992  44.5149978  40.4010014  21.9249992  45.4539978  40.5800014
  21.0819992  44.2789978  40.1320014  21.8438166  44.6116687  40.3891524
  35.2829992  55.1779978  50.3370014  35.1269992  55.8569978  49.6800014
  36.2159992  55.2499978  50.5400014  35.3877387  55.2806390  50.2745342
  22.7779992  39.2959978  49.0750014  22.5489992  39.3549978  48.1470014
  22.3359992  38.5049978  49.3810014  22.6868801  39.1970540  48.9894729
  21.7089992  53.2369978  45.2350014  20.8759992  53.7089978  45.2620014
  22.2539992  53.7469978  44.6360014  21.6687857  53.3704791  45.1577142
  20.9969992  55.8489978  56.5650014  21.5369992  55.6329978  57.3250014
  20.5159992  55.0439978  56.3750014  21.0059219  55.7105156  56.6434282
  25.5939992  54.7689978  58.1850014  26.3619992  54.3099978  58.5260014
  25.5729992  54.5429978  57.2550014  25.6962135  54.6756668  58.1059491
  29.6859992  54.2769978  39.5610014  29.0419992  53.6459978  39.8820014
  30.4479992  53.7459978  39.3290014  29.7008058  54.1187902  39.5736038
  32.1709992  53.1489978  56.9140014  31.8199992  52.2919978  57.1580014
  32.8969992  53.2909978  57.5210014  32.2211895  53.0511351  57.0293770
  34.2909992  54.0939978  39.7940014  34.5739992  53.2989978  40.2470014
  35.0299992  54.3269978  39.2330014  34.4297096  54.0167049  39.7801104
  20.9039992  49.6599978  57.5190014  21.0479992  48.7579978  57.2330014
  20.1319992  49.9459978  57.0320014  20.8192733  49.5751798  57.4139532
  25.2449992  50.0029978  39.6520014  25.3099992  49.2089978  40.1820014
  25.8979992  49.8849978  38.9620014  25.3421605  49.8783430  39.6312997
  27.5589992  49.6289978  56.9520014  27.2309992  49.8999978  56.0950014
  27.7109992  48.6879978  56.8640014  27.5346412  49.5389046  56.8227822
  30.5979992  51.0499978  39.3880014  30.3289992  51.2309978  40.2880014
  30.3909992  50.1249978  39.2560014  30.5331191  50.9497119  39.4935524
  33.2939992  49.5449978  54.3350014  34.0389992  50.1339978  54.2160014
  32.5369992  50.1269978  54.3990014  33.2935470  49.7042128  54.3273799
  21.7369992  46.8599978  56.9390014  22.1449992  46.0029978  56.8180014
  21.4759992  46.8739978  57.8600014  21.7576016  46.7445119  57.0469192
  26.3949992  47.9759978  41.9580014  25.9349992  47.4919978  42.6430014
  26.6499992  47.3069978  41.3220014  26.3664856  47.8193669  41.9658397
  25.6839992  45.8689978  54.3140014  25.0649992  46.5429978  54.5940014
  26.0279992  46.1899978  53.4800014  25.6457123  46.0046887  54.2396388
  27.4659992  46.2189978  40.2200014  27.2849992  46.0639978  39.2930014
  28.4159992  46.3269978  40.2650014  27.5696566  46.2123669  40.0990929
  30.7029992  48.3399978  57.5910014  31.6569992  48.4239978  57.5640014
  30.5429992  47.6279978  58.2110014  30.8117182  48.2552842  57.6710733
  36.8559992  48.5729978  39.6660014  36.5819992  48.1489978  38.8530014
  36.8949992  49.5049978  39.4490014  36.8237716  48.6408827  39.5254286
  26.0229992  43.2239978  55.3960014  26.1729992  42.4949978  54.7940014
  26.0249992  44.0009978  54.8370014  26.0437967  43.2292708  55.2380541
  26.4359992  41.5929978  52.8890014  26.9709992  42.0449978  52.2370014
  25.5829992  41.4849978  52.4660014  26.3940374  41.6402665  52.7426710
  28.0169992  47.0329978  53.1280014  28.7679992  46.8769978  52.5550014
  27.6779992  47.8849978  52.8530014  28.0739587  47.1268138  53.0124078
  32.4329992  44.8479978  58.1570014  32.6249992  43.9169978  58.0450014
  33.2909992  45.2729978  58.1460014  32.5752182  44.7780070  58.1401862
  33.7499992  47.6369978  56.2340014  33.4679992  48.3459978  55.6560014
  34.6919992  47.5639978  56.0830014  33.8387921  47.7242193  56.1344225
  24.5019992  44.4219978  57.3070014  23.7339992  43.8889978  57.0970014
  25.1799992  44.1119978  56.7080014  24.4887235  44.3071754  57.1972413
  27.2409992  39.0499978  53.3200014  27.1429992  39.9959978  53.2150014
  26.4989992  38.6769978  52.8440014  27.1272534  39.1291773  53.2412600
  28.5049992  43.3709978  56.8840014  28.2699992  43.1519978  57.7850014
  27.7219992  43.1639978  56.3740014  28.3669095  43.3129892  56.9385353
  31.2209992  42.4989978  55.9590014  30.2729992  42.5309978  56.0910014
  31.5329992  41.8729978  56.6130014  31.1335293  42.4187923  56.0654148
  32.8549992  41.1329978  57.9640014  32.7579992  40.1809978  57.9590014
  32.5329992  41.4009978  58.8250014  32.7982468  41.0390884  58.0796210
  22.6819992  42.3419978  57.0120014  22.8939992  41.6359978  56.4020014
  22.5709992  41.9049978  57.8560014  22.6960269  42.1861921  57.0425873
  27.4629992  38.3439978  55.9910014  28.1749992  37.7039978  55.9770014
  27.3619992  38.6099978  55.0780014  27.5467387  38.2924330  55.8655563
  27.8169992  40.0259978  58.0450014  27.6849992  39.5509978  57.2250014
  27.2169992  40.7709978  57.9900014  27.7179070  40.0615789  57.9253251
  27.3629992  56.9089978  41.2210014  28.2959992  57.0669978  41.3650014
  27.0989992  57.5849978  40.5960014  27.4549911  57.0219373  41.1562722
  20.9309992  51.5459978  40.7040014  21.8449992  51.6249978  40.9770014
  20.9389992  50.8589978  40.0380014  21.0570655  51.4639205  40.6512917
  19.5799992  56.9389978  45.7810014  18.9329992  56.4769978  45.2490014
  19.9349992  56.2669978  46.3640014  19.5393741  56.7849774  45.7869175
  20.4499992  55.0189978  47.5860014  20.1159992  54.1389978  47.7580014
  20.6729992  55.3649978  48.4510014  20.4343721  54.9451938  47.7264168
  37.9989992  55.8289978  50.5670014  37.9769992  56.0139978  51.5060014
  38.6889992  56.3969978  50.2260014  38.0893439  55.9311887  50.6494791
  37.5619992  55.3959978  53.4880014  37.0749992  54.6609978  53.1170014
  38.1109992  55.0019978  54.1660014  37.5695247  55.2421057  53.5288461
  36.0129992  51.1859978  58.1270014  35.1469992  51.0809978  58.5210014
  36.3889992  51.9439978  58.5730014  35.9453401  51.2741708  58.2412620
  37.3139992  49.4419978  43.6410014  38.1639992  49.8629978  43.7680014
  37.3189992  48.7019978  44.2480014  37.4311143  49.3996094  43.7404750
  37.7079992  47.4959978  45.4640014  36.9819992  47.0159978  45.8620014
  38.2899992  47.7009978  46.1970014  37.6872730  47.4580184  45.6174149
  37.4669992  50.2809978  50.4120014  38.3009992  49.9029978  50.1310014
  37.5789992  51.2239978  50.2930014  37.5961917  50.3567943  50.3574861
  35.9539992  53.1589978  52.7190014  35.3059992  53.4839978  53.3440014
  35.4359992  52.7179978  52.0450014  35.7954196  53.1438651  52.7134152
  37.9769992  47.3969978  41.8550014  37.4549992  47.7529978  41.1370014
  37.9439992  48.0719978  42.5340014  37.9010129  47.5369598  41.8483355
  36.3259992  44.6359978  40.4060014  36.4219992  45.3029978  39.7260014
  36.1859992  43.8209978  39.9250014  36.3202040  44.6170671  40.2478378
  35.4949992  46.0169978  46.0270014  35.3449992  45.0719978  46.0070014
  35.1409992  46.2979978  46.8710014  35.4266351  45.9256644  46.1383220
  20.5299992  48.0949978  50.0380014  20.7149992  48.0129978  49.1020014
  21.3799992  47.9709978  50.4610014  20.6700928  48.0670463  49.9672893
  36.3509992  47.9869978  55.6660014  36.9339992  47.2519978  55.8580014
  36.9149992  48.7589978  55.7130014  36.5069781  47.9908145  55.6986164
  37.8479992  45.8899978  56.3510014  36.9849992  45.5109978  56.1850014
  38.4519992  45.1509978  56.2760014  37.8116085  45.7383223  56.3181694
  35.5729992  42.0439978  39.5240014  36.1839992  41.6729978  40.1610014
  34.7359992  41.6229978  39.7200014  35.5434947  41.9362756  39.6377252
  35.2059992  43.5989978  44.4900014  35.4849992  42.6919978  44.6140014
  35.9649992  44.0329978  44.1010014  35.3468619  43.5334502  44.4543795
  35.8169992  44.1809978  49.9260014  36.7499992  44.3929978  49.8910014
  35.5819992  44.2819978  50.8480014  35.9129517  44.2236833  50.0459130
  35.8469992  44.9179978  52.7020014  35.0039992  45.1859978  53.0680014
  36.2889992  45.7399978  52.4910014  35.7914138  45.0658273  52.7235518
  20.1279992  43.3649978  56.1780014  21.0469992  43.2429978  56.4150014
  19.6779992  42.6149978  56.5680014  20.1930087  43.2469608  56.2631410
  38.1299992  38.8979978  58.0550014  38.4789992  38.2439978  57.4500014
  38.2769992  39.7349978  57.6150014  38.1976824  38.9216024  57.9126304
  35.8189992  40.8619978  44.5380014  36.0009992  40.4129978  45.3630014
  35.2189992  40.2779978  44.0740014  35.7628187  40.7215552  44.5882739
  21.3489992  41.6779978  49.0700014  21.7939992  40.8859978  49.3720014
  21.8149992  42.3939978  49.5000014  21.4729718  41.6664534  49.1695265
  19.6529992  44.6769978  50.1390014  20.1449992  44.4559978  49.3480014
  20.0149992  45.5169978  50.4200014  19.7692923  44.7603468  50.0687407
  37.6489992  41.0069978  56.4040014  36.7319992  41.2779978  56.3690014
  37.7719992  40.4719978  55.6200014  37.5399672  40.9717885  56.2931862
  37.6859992  40.9299978  41.0660014  38.0979992  40.2089978  40.5910014
  38.3669992  41.5989978  41.1240014  37.8345536  40.9217766  41.0088024
  19.9669992  40.9349978  44.1930014  19.0419992  41.1429978  44.0640014
  20.4209992  41.4189978  43.5030014  19.9016298  41.0289299  44.0820451
  34.7369992  55.9189978  46.1390014  35.3899992  55.5709978  45.5310014
  35.2479992  56.4069978  46.7850014  34.8952777  55.9373815  46.1432047
  19.9299992  39.6729978  52.5370014  19.2649992  39.4269978  53.1800014
  19.4869992  40.2949978  51.9600014  19.7791168  39.7234214  52.5469848
  22.1219992  52.8479978  56.6820014  21.3009992  53.0229978  56.2210014
  21.8699992  52.7749978  57.6020014  21.9755594  52.8620717  56.7433611
  25.0759992  53.8219978  52.9400014  24.6519992  54.6319978  52.6580014
  25.9809992  53.9079978  52.6380014  25.1402138  53.9444160  52.8606415
  29.3879992  55.2209978  55.9000014  29.5719992  54.8879978  56.7780014
  30.2339992  55.5309978  55.5780014  29.5276484  55.2172979  55.9767617
  31.7329992  56.5069978  55.1440014  32.4099992  55.8739978  54.9040014
  32.0539992  56.9079978  55.9510014  31.8691323  56.4745691  55.2203158
  36.6499992  39.0969978  54.2230014  35.8369992  39.4219978  53.8360014
  36.8829992  38.3359978  53.6900014  36.5701347  39.0386880  54.0979841
  22.4779992  57.0789978  52.9880014  21.7579992  57.5189978  52.5370014
  22.1129992  56.8279978  53.8360014  22.3299643  57.1053369  53.0409129
  24.9449992  56.6789978  52.0180014  24.0809992  56.7509978  52.4220014
  24.8899992  57.2259978  51.2340014  24.8191942  56.7627849  51.9674000
  29.6559992  56.5669978  51.1930014  29.1989992  57.0959978  50.5390014
  29.8189992  57.1699978  51.9180014  29.6154960  56.7209280  51.2015274
  31.9839992  55.4449978  52.1380014  31.0789992  55.6099978  51.8720014
  32.4119992  56.2979978  52.0720014  31.9181537  55.5829134  52.0927095
  34.5879992  57.0149978  52.4330014  34.4059992  57.9309978  52.2220014
  34.7649992  56.6039978  51.5860014  34.5870030  57.0848273  52.2897166
  21.8929992  55.7019978  49.8980014  21.8749992  55.2759978  50.7550014
  22.6979992  55.3829978  49.4890014  21.9992875  55.6006435  49.9599515
  24.0339992  54.4119978  48.5530014  23.8149992  53.4949978  48.7230014
  24.8579992  54.5519978  49.0190014  24.1154702  54.3055511  48.6392527
  26.5709992  54.8819978  49.4020014  26.7839992  53.9939978  49.1150014
  26.6359992  54.8469978  50.3560014  26.6089149  54.7558326  49.4917369
  30.0799992  40.5459978  48.5460014  29.4059992  39.9159978  48.8020014
  30.6439992  40.0619978  47.9430014  30.0640384  40.3943708  48.4995020
  35.2229992  38.6529978  48.6590014  35.8259992  39.2009978  48.1570014
  34.3529992  38.9719978  48.4180014  35.1879157  38.7710373  48.5577910
  36.9499992  39.7919978  46.9920014  37.5609992  39.2779978  46.4650014
  37.3319992  40.6689978  47.0150014  37.0853305  39.8402050  46.9229418
  22.4069992  39.1799978  46.3680014  21.6299992  38.9449978  45.8610014
  22.9369992  38.3829978  46.3770014  22.3723451  39.0401268  46.2998627
  21.2429992  38.9779978  42.1720014  21.6819992  39.5889978  41.5800014
  20.6089992  39.5159978  42.6460014  21.2173859  39.1344064  42.1550305
  26.9859992  39.1059978  46.1810014  27.8599992  39.4949978  46.1520014
  26.8499992  38.8909978  47.1040014  27.0871953  39.1301643  46.3017617
  32.5429992  39.1359978  47.8310014  32.6189992  39.2319978  46.8810014
  32.2679992  38.2289978  47.9590014  32.5161871  39.0264146  47.7183944
  33.8959992  39.1619978  43.5230014  33.1929992  39.7769978  43.3130014
  33.4509992  38.3249978  43.6540014  33.7396550  39.1329668  43.5119837
  21.1439992  54.9259978  43.0690014  20.4589992  54.8879978  42.4020014
  21.1479992  55.8389978  43.3570014  21.0507621  55.0441924  43.0166126
  23.1039992  40.8939978  40.6140014  23.5949992  40.2639978  40.0870014
  23.7269992  41.1899978  41.2770014  23.2555304  40.8477376  40.6314940
  28.1299992  41.1869978  43.0710014  28.3079992  40.5399978  43.7540014
  28.0759992  42.0209978  43.5380014  28.1470678  41.2111604  43.2276301
  30.0079992  56.1349978  41.4670014  30.8739992  56.5019978  41.2890014
  29.7619992  55.6959978  40.6530014  30.0932097  56.1258525  41.3326019
  36.7169992  55.6979978  44.1460014  36.5229992  54.9499978  43.5810014
  36.6779992  56.4559978  43.5630014  36.6851645  55.6980786  43.9898148
  22.3639992  39.6939978  55.8860014  21.9979992  38.9279978  56.3280014
  23.2769992  39.7229978  56.1720014  22.4373172  39.5930324  55.9851890
  24.3369992  39.0439978  57.4210014  25.2359992  38.7699978  57.2370014
  23.9509992  38.3019978  57.8860014  24.4077307  38.9062196  57.4587098
  22.9619992  55.8459978  40.0940014  22.6939992  56.1319978  40.9680014
  23.7329992  55.2999978  40.2470014  23.0295926  55.8112779  40.2341205
  32.7589992  38.3769978  57.6040014  32.8349992  37.9509978  58.4570014
  33.6519992  38.3899978  57.2610014  32.8902303  38.3203493  57.6745497
  35.9349992  54.4499978  56.2960014  35.1529992  54.2629978  55.7760014
  35.8629992  55.3789978  56.5130014  35.8181924  54.5500637  56.2541602
  50.3409992  48.3359978  46.3270014  50.4299992  49.2799978  46.1950014
  49.7029992  48.0609978  45.6690014  50.2669062  48.4279812  46.2199641
  49.2739992  47.5909978  49.7460014  49.2359992  46.9449978  50.4510014
  48.9519992  47.1239978  48.9750014  49.2252679  47.4394276  49.7382921
  41.6419992  47.2049978  51.3390014  41.6839992  46.5799978  52.0620014
  42.3449992  47.8289978  51.5210014  41.7427345  47.2037873  51.4625274
  52.9799992  50.5299978  48.0470014  52.5389992  49.8099978  48.4980014
  52.9669992  51.2509978  48.6770014  52.9179215  50.5289291  48.1938105
  42.5659992  51.6549978  49.8740014  42.1959992  50.8529978  49.5040014
  43.5069992  51.4869978  49.9200014  42.6425984  51.5224638  49.8295603
  39.1759992  45.3149978  45.2660014  38.7279992  46.1609978  45.2480014
  38.6149992  44.7359978  44.7510014  39.0388546  45.3523993  45.1938891
  39.8859992  47.4769978  47.3920014  40.0999992  46.7069978  47.9200014
  40.6239992  47.5669978  46.7890014  40.0150200  47.3838587  47.3827035
  50.0919992  55.6339978  48.2590014  50.7109992  54.9579978  47.9860014
  49.8829992  55.4159978  49.1680014  50.1486056  55.5118869  48.3443967
  47.6629992  50.0229978  50.1520014  47.9669992  49.3369978  49.5570014
  48.3849992  50.1419978  50.7700014  47.8021240  49.9452314  50.1540959
  56.3259992  41.6249978  51.0120014  56.3759992  42.2349978  51.7480014
  56.7519992  42.0859978  50.2890014  56.3904108  41.7707709  51.0150112
  50.8039992  44.4169978  50.4790014  50.9469992  43.4709978  50.4990014
  50.6979992  44.6239978  49.5510014  50.8092403  44.3154797  50.3562239
  43.9589992  42.5189978  47.7520014  44.0019992  43.3789978  47.3330014
  43.5009992  41.9669978  47.1180014  43.9029871  42.5619245  47.6090761
  51.6809992  42.6499978  46.1530014  52.3279992  42.3209978  46.7770014
  52.1909992  43.1669978  45.5300014  51.8384351  42.6749067  46.1541037
  40.5789992  44.9159978  48.5140014  41.2329992  44.3659978  48.9460014
  40.6029992  44.6419978  47.5970014  40.6717199  44.8037167  48.4491668
  45.7359992  46.4659978  47.7290014  46.3519992  45.9389978  48.2380014
  45.1489992  45.8259978  47.3250014  45.7410154  46.3073954  47.7440945
  56.7179992  43.1029978  53.2480014  56.0289992  43.7609978  53.1530014
  56.7329992  42.9049978  54.1850014  56.6257756  43.1662603  53.3615812
  42.7689992  41.4369978  51.8260014  42.5499992  41.9669978  51.0590014
  42.1009992  41.6629978  52.4730014  42.6486975  41.5400967  51.8085140
  50.1379992  50.9369978  45.3700014  49.8429992  50.6139978  44.5180014
  49.8139992  51.8369978  45.4110014  50.0538460  51.0144464  45.2589714
  45.3379992  49.1119978  52.1130014  44.5979992  49.7109978  52.2170014
  46.0519992  49.6659978  51.7980014  45.3333500  49.2687829  52.0846371
  53.4449992  41.9409978  48.1330014  53.2299992  41.1749978  48.6660014
  54.1009992  42.4129978  48.6460014  53.5042673  41.9000728  48.2751990
  42.3629992  43.3289978  49.7780014  42.9769992  43.9619978  50.1510014
  42.8749992  42.8569978  49.1220014  42.5161962  43.3517249  49.7402935
  43.7459992  51.0769978  52.9000014  43.7399992  51.9559978  52.5220014
  42.8919992  50.9929978  53.3250014  43.6297925  51.1859535  52.9056887
  39.8669992  50.7479978  43.6820014  39.5949992  50.9769978  42.7940014
  39.9119992  51.5849978  44.1430014  39.8358097  50.8926163  43.6226683
  53.4919992  52.3689978  50.3950014  52.5499992  52.4279978  50.5570014
  53.7679992  53.2749978  50.2580014  53.4005865  52.4995288  50.3986192
  53.7919992  40.6559978  51.8120014  53.0559992  41.2659978  51.7750014
  54.4759992  41.0709978  51.2860014  53.7835367  40.7957551  51.7358174
  46.7959992  38.7419978  49.2780014  46.6779992  37.7939978  49.2240014
  45.9409992  39.0749978  49.5510014  46.6642805  38.6572202  49.3075079
  51.7439992  54.1499978  47.0200014  52.1689992  53.4429978  46.5350014
  52.0609992  54.9519978  46.6030014  51.8450266  54.1615190  46.8972479
  52.9039992  52.0509978  45.5290014  52.6459992  51.3609978  44.9170014
  52.9749992  51.6079978  46.3740014  52.8783050  51.8966814  45.5595621
  54.5899992  50.6179978  54.0060014  54.7289992  50.0259978  53.2670014
  54.7569992  51.4909978  53.6500014  54.6316193  50.6548896  53.8566211
  49.0619992  47.5799978  43.7790014  48.3509992  48.1149978  43.4270014
  49.7529992  47.6349978  43.1190014  49.0580751  47.6606777  43.6415858
  49.1159992  46.0369978  40.8170014  49.8169992  46.0599978  41.4690014
  49.4179992  45.4089978  40.1610014  49.2528202  45.9552212  40.8175609
  56.4309992  46.9579978  52.0720014  55.7789992  47.6519978  52.1610014
  56.8969992  47.1679978  51.2620014  56.4045937  47.0815019  51.9747533
  52.4679992  47.7889978  44.7300014  51.7359992  48.0179978  45.3040014
  52.9149992  47.0759978  45.1850014  52.4283963  47.7238729  44.8699945
  52.3649992  45.9639978  53.7980014  52.4449992  46.7269978  54.3700014
  51.7639992  46.2429978  53.1080014  52.2946547  46.1062457  53.7830047
  44.1129992  48.4199978  46.6130014  43.7829992  48.0489978  45.7950014
  44.7019992  47.7489978  46.9600014  44.1473970  48.2786063  46.5479404
  45.4799992  51.8479978  49.2940014  45.3849992  51.2689978  48.5380014
  46.2089992  51.4769978  49.7900014  45.5656011  51.7185561  49.2576028
  44.4799992  47.1879978  50.2460014  45.0449992  47.3099978  49.4840014
  44.7989992  47.8259978  50.8850014  44.6004166  47.2908791  50.2280348
  50.7889992  52.6919978  50.9800014  50.5489992  53.3539978  51.6280014
  50.5909992  51.8569978  51.4050014  50.7293826  52.6698115  51.1261566
  45.3599992  51.5879978  54.9640014  45.0489992  52.3699978  55.4190014
  44.7099992  51.4349978  54.2780014  45.2295538  51.6744087  54.9335898
  51.3389992  46.9519978  42.4160014  51.9179992  47.1019978  43.1620014
  51.7529992  47.4219978  41.6920014  51.4743358  47.0360954  42.4203953
  42.2799992  47.7859978  54.1920014  42.3499992  48.4369978  54.8910014
  41.3889992  47.8889978  53.8570014  42.1691690  47.8889249  54.2423043
  49.0649992  53.6879978  45.8510014  49.5389992  53.9839978  46.6280014
  48.5019992  54.4269978  45.6180014  49.0537890  53.8283036  45.9258101
  43.5989992  53.6589978  55.7270014  43.6069992  53.5229978  54.7800014
  42.6829992  53.5419978  55.9790014  43.4762528  53.6245463  55.6313243
  55.0379992  38.7019978  42.2290014  54.1379992  38.8409978  42.5240014
  55.2899992  39.5329978  41.8270014  54.9488683  38.8334055  42.2150232
  43.1039992  47.4889978  44.2020014  42.8119992  48.2569978  43.7110014
  42.4289992  46.8299978  44.0390014  42.9728497  47.5049745  44.1128260
  56.2269992  53.0679978  40.6050014  56.2999992  54.0069978  40.7750014
  57.1319992  52.7629978  40.5490014  56.3594170  53.1553282  40.6207063
  39.1969992  49.8519978  53.0170014  38.6949992  49.8239978  52.2020014
  39.2019992  48.9469978  53.3270014  39.1289832  49.7257486  52.9474121
  38.9469992  52.6329978  49.9010014  39.8929992  52.4879978  49.8820014
  38.8339992  53.4169978  50.4380014  39.0613578  52.7191697  49.9710317
  57.1449992  53.2989978  55.5840014  57.0949992  52.3429978  55.5460014
  56.3179992  53.5659978  55.9850014  57.0263831  53.2044680  55.6330121
  48.1229992  52.8729978  54.4600014  48.2109992  53.6989978  54.9350014
  47.2599992  52.5429978  54.7090014  48.0183357  52.9415468  54.5587653
  48.5379992  56.6449978  44.2660014  48.4619992  56.5239978  43.3190014
  48.5699992  57.5939978  44.3840014  48.5319380  56.7567677  44.1525181
  42.1909992  55.4339978  46.0470014  42.3429992  55.0859978  46.9250014
  41.3399992  55.0769978  45.7910014  42.0968344  55.3380879  46.1326868
  51.6389992  55.7989978  41.2680014  52.0139992  55.0549978  40.7970014
  51.6439992  55.5289978  42.1860014  51.6910098  55.6606392  41.3276629
  51.3079992  55.7249978  44.0170014  50.3729992  55.8249978  44.1960014
  51.5879992  55.0149978  44.5960014  51.2179471  55.6427933  44.1196695
  54.2969992  44.7919978  56.0640014  53.8889992  45.2719978  55.3430014
  54.3369992  43.8859978  55.7560014  54.2466221  44.7352449  55.9238267
  41.4459992  51.1759978  54.0600014  41.6619992  50.8139978  54.9200014
  40.5899992  50.8009978  53.8510014  41.3598810  51.0758837  54.1492680
  44.0639992  39.6459978  50.0560014  43.2029992  39.5589978  49.6480014
  44.0419992  40.5019978  50.4840014  43.9430491  39.7498003  50.0579582
  48.7269992  39.3679978  53.4310014  49.1469992  38.9529978  54.1840014
  47.7939992  39.1889978  53.5480014  48.6583736  39.2869910  53.5498968
  52.0539992  43.1229978  54.2840014  51.5399992  42.9979978  55.0820014
  51.8979992  44.0359978  54.0400014  51.9626967  43.2292123  54.3600937
  52.8159992  47.9839978  40.0450014  52.8579992  47.7619978  39.1150014
  53.6649992  48.3829978  40.2350014  52.9365253  48.0075498  39.9433822
  48.3889992  41.8599978  40.7160014  48.1349992  41.8789978  41.6380014
  48.1319992  40.9889978  40.4140014  48.3194508  41.7448280  40.8014803
  44.1549992  44.6109978  51.1510014  43.5139992  44.5709978  51.8600014
  44.1929992  45.5379978  50.9130014  44.0723010  44.7307668  51.2159946
  44.1519992  44.8319978  46.0630014  43.2599992  44.4919978  46.0040014
  44.6029992  44.4549978  45.3070014  44.0907642  44.7344910  45.9527726
  49.6879992  45.2479978  44.8800014  49.2789992  46.0629978  44.5880014
  50.4079992  45.1079978  44.2660014  49.7294439  45.3405372  44.7570115
  48.7899992  45.4239978  56.3680014  48.2269992  44.7189978  56.6890014
  49.6159992  45.3029978  56.8360014  48.8246674  45.3112165  56.4751751
  50.6929992  44.6939978  47.6940014  50.4969992  45.2999978  46.9790014
  50.8739992  43.8609978  47.2600014  50.6906584  44.6642513  47.5374212
  41.9049992  44.9319978  53.0180014  41.8669992  45.3319978  53.8870014
  41.4149992  44.1149978  53.1080014  41.8335330  44.8762674  53.1491289
  45.2709992  42.3059978  39.8170014  44.8399992  41.8609978  40.5460014
  44.5529992  42.6769978  39.3040014  45.1149176  42.2952051  39.8474930
  38.5139992  42.0479978  46.8690014  39.1439992  42.0189978  47.5880014
  38.9629992  41.6229978  46.1380014  38.6610835  41.9865660  46.8687659
  39.7879992  42.7939978  42.2930014  40.2619992  43.3849978  41.7080014
  39.0699992  43.3239978  42.6400014  39.7558640  42.9465511  42.2597969
  49.9569992  46.3319978  52.3650014  50.2799992  45.7009978  51.7220014
  49.5159992  45.7979978  53.0260014  49.9416379  46.1733468  52.3662582
  46.7339992  42.2599978  47.1490014  45.8229992  42.3169978  47.4380014
  47.2389992  42.1999978  47.9600014  46.6776873  42.2596826  47.2981207
  41.5619992  43.8889978  45.9760014  40.6729992  43.9879978  45.6360014
  41.8589992  43.0469978  45.6300014  41.4804177  43.7887687  45.8826940
  45.2149992  43.8889978  43.6330014  46.1469992  44.0179978  43.8110014
  44.9999992  44.5579978  42.9830014  45.3134472  43.9970806  43.5694891
  51.1389992  41.4949978  50.4140014  50.4619992  41.6259978  51.0770014
  50.6539992  41.3399978  49.6030014  50.9807405  41.4919947  50.3952170
  43.8889992  45.0829978  41.1990014  43.3469992  44.7039978  40.5080014
  44.7229992  45.2779978  40.7710014  43.9274390  45.0574079  41.0464392
  54.4269992  57.1659978  56.6900014  54.6259992  57.5899978  55.8560014
  55.0819992  57.5099978  57.2970014  54.5428522  57.2706301  56.6577852
  42.0249992  49.6399978  56.2980014  42.7569992  49.8949978  56.8600014
  41.2439992  49.8449978  56.8140014  42.0196526  49.7025450  56.4445176
  48.0539992  45.0469978  49.0360014  48.6179992  44.5009978  48.4890014
  47.9059992  44.5259978  49.8250014  48.1113037  44.9016787  49.0677229
  43.0559992  41.1839978  45.4550014  42.7389992  40.2809978  45.4190014
  43.8369992  41.1859978  44.9020014  43.1182431  41.0607797  45.3753102
  46.6799992  43.4359978  51.4500014  45.8449992  43.8899978  51.5610014
  47.2039992  43.7119978  52.2020014  46.6366072  43.5353948  51.5668136
  47.2249992  49.6489978  43.1350014  46.4799992  49.1409978  42.8130014
  47.0899992  49.6979978  44.0810014  47.1048963  49.5861731  43.2188826
  54.3749992  48.7819978  51.9220014  55.0159992  49.2379978  51.3780014
  53.5439992  48.8949978  51.4590014  54.3505287  48.8596921  51.7849887
  51.1219992  42.4629978  41.3340014  50.1839992  42.5739978  41.1830014
  51.4199992  43.3189978  41.6410014  51.0336318  42.5940158  41.3548145
  48.7439992  49.8329978  54.3720014  48.3979992  49.4509978  55.1790014
  48.5439992  50.7659978  54.4430014  48.6695987  49.9069002  54.4920461
  51.8409992  44.3299978  42.9950014  52.7329992  44.1919978  43.3140014
  51.8969992  45.1209978  42.4580014  51.9707325  44.4179918  42.9661217
  42.3489992  48.9439978  48.9050014  43.0939992  48.9409978  48.3030014
  42.4269992  48.1199978  49.3860014  42.4613365  48.8322384  48.8877430
  49.3499992  51.1069978  42.1600014  49.0549992  51.9339978  42.5420014
  48.6469992  50.4879978  42.3570014  49.2146379  51.1364171  42.2388654
  39.3569992  47.4039978  54.2200014  39.5799992  46.9859978  55.0510014
  38.7549992  46.7919978  53.7970014  39.3061513  47.2639606  54.2766740
  46.3739992  46.9209978  56.4330014  46.0779992  46.7559978  55.5370014
  47.3049992  46.7009978  56.4220014  46.4594401  46.8686879  56.3090206
  50.9939992  52.2949978  54.3220014  50.0939992  52.4779978  54.0550014
  51.0279992  52.5539978  55.2430014  50.8753748  52.3550554  54.4099164
  56.7259992  44.5389978  42.6900014  56.1709992  44.1429978  42.0170014
  56.8259992  45.4499978  42.4120014  56.6636816  44.6079505  42.5605033
  56.6889992  50.3399978  55.5270014  55.8379992  50.5779978  55.1590014
  57.2789992  50.3229978  54.7740014  56.6523812  50.3702524  55.3748453
  55.0209992  53.3249978  43.1550014  54.6479992  52.4999978  43.4640014
  55.2979992  53.1419978  42.2570014  55.0073463  53.1872569  43.0759525
  52.1809992  48.1329978  50.1760014  51.2529992  47.9019978  50.1490014
  52.6319992  47.3559978  49.8460014  52.1148165  47.9962774  50.1276790
  44.7239992  52.4619978  46.3090014  45.2519992  53.2349978  46.1090014
  43.8439992  52.6859978  46.0070014  44.6773435  52.5982700  46.2407310
  40.4789992  47.3239978  40.8960014  41.0949992  47.9509978  41.2760014
  39.6169992  47.6399978  41.1680014  40.4467678  47.4524412  40.9847209
  46.1519992  50.1249978  45.8850014  45.9109992  51.0499978  45.9270014
  45.4109992  49.6659978  46.2820014  46.0189206  50.1895915  45.9443769
  46.6659992  54.2739978  52.2000014  47.0289992  55.1279978  51.9670014
  47.1979992  53.9819978  52.9410014  46.7875141  54.3513895  52.2682097
  44.8349992  55.1459978  45.4310014  43.8849992  55.2519978  45.4820014
  45.1869992  55.9669978  45.7750014  44.7525472  55.2714923  45.4844852
  50.2099992  50.3729978  51.9010014  49.7849992  50.1449978  52.7270014
  50.7909992  49.6339978  51.7190014  50.2303395  50.2419545  51.9894414
  52.4129992  51.3019978  40.9750014  52.7669992  50.9219978  41.7790014
  51.4649992  51.2079978  41.0620014  52.3332298  51.2372452  41.0968687
  52.8689992  54.9249978  54.3700014  52.2669992  54.3689978  53.8750014
  53.1499992  55.5919978  53.7440014  52.8245757  54.9390744  54.2175675
  56.9169992  55.7809978  41.1760014  57.6609992  56.3669978  41.0360014
  56.2229992  56.3499978  41.5090014  56.9249809  55.9380818  41.2018590
  40.9909992  42.1579978  53.7780014  40.0989992  42.4959978  53.7100014
  40.8929992  41.3019978  54.1960014  40.8554475  42.0886543  53.8251704
  53.2789992  49.9739978  43.2020014  53.0019992  49.2459978  43.7580014
  54.2069992  50.0929978  43.4070014  53.3664499  49.8904213  43.3058044
  40.6429992  53.9619978  52.2130014  40.8599992  53.0299978  52.1820014
  40.8889992  54.2369978  53.0960014  40.7059809  53.8715686  52.3281691
  46.5039992  52.4139978  39.4220014  46.7429992  51.6649978  38.8750014
  46.2349992  52.0259978  40.2550014  46.5003233  52.2591853  39.4597809
  45.4409992  51.9839978  41.8780014  45.5879992  51.4639978  42.6680014
  45.4379992  52.8909978  42.1850014  45.4607102  52.0353953  42.0275925
  41.8939992  49.2359978  42.3890014  41.2079992  49.5889978  42.9560014
  42.4169992  49.9989978  42.1420014  41.8708402  49.3873901  42.4331801
  49.7259992  41.8989978  52.6680014  50.4249992  41.9729978  53.3180014
  49.3449992  41.0339978  52.8220014  49.7702097  41.7922389  52.7777997
  50.5099992  41.5509978  43.7650014  50.7299992  42.0219978  42.9610014
  51.0689992  41.9449978  44.4350014  50.6156731  41.6687287  43.7455033
  48.1789992  53.6809978  42.6280014  47.3619992  54.1779978  42.6800014
  48.7079992  54.1569978  41.9870014  48.1388125  53.8131989  42.5485306
  47.7099992  43.2789978  44.6000014  48.5219992  43.7829978  44.6460014
  47.4659992  43.1339978  45.5140014  47.7881467  43.3283749  44.7298575
  48.2459992  44.2649978  53.7840014  48.3649992  44.8389978  54.5410014
  48.9009992  43.5769978  53.8990014  48.3508684  44.2505194  53.9031674
  48.5939992  40.3599978  45.5380014  48.2469992  40.9769978  46.1820014
  49.2529992  40.8609978  45.0560014  48.6355090  40.5121575  45.5610681
  45.5169992  54.7249978  42.6090014  45.6779992  55.5249978  42.1090014
  45.3199992  55.0319978  43.4940014  45.5123906  54.8758678  42.6602333
  44.2519992  41.4229978  42.2250014  44.1679992  42.3109978  42.5720014
  45.1419992  41.1579978  42.4570014  44.3608163  41.5087179  42.3038596
  54.4499992  42.1719978  54.6190014  53.5339992  42.4339978  54.5320014
  54.7859992  42.1689978  53.7230014  54.3698499  42.2075163  54.4858766
  53.0529992  45.9219978  48.7150014  52.2549992  45.5069978  48.3870014
  53.4979992  45.2319978  49.2060014  53.0039684  45.7718628  48.7365227
  42.5099992  51.8499978  41.2850014  43.1019992  52.5499978  41.5620014
  42.9689992  51.4169978  40.5660014  42.6531652  51.8872675  41.2256533
  40.8259992  44.5149978  40.4010014  40.7809992  45.4539978  40.5800014
  39.9379992  44.2789978  40.1320014  40.6998166  44.6116687  40.3891524
  54.1389992  55.1779978  50.3370014  53.9829992  55.8569978  49.6800014
  55.0719992  55.2499978  50.5400014  54.2437387  55.2806390  50.2745342
  41.6339992  39.2959978  49.0750014  41.4049992  39.3549978  48.1470014
  41.1919992  38.5049978  49.3810014  41.5428801  39.1970540  48.9894729
  40.5649992  53.2369978  45.2350014  39.7319992  53.7089978  45.2620014
  41.1099992  53.7469978  44.6360014  40.5247857  53.3704791  45.1577142
  39.8529992  55.8489978  56.5650014  40.3929992  55.6329978  57.3250014
  39.3719992  55.0439978  56.3750014  39.8619219  55.7105156  56.6434282
  44.4499992  54.7689978  58.1850014  45.2179992  54.3099978  58.5260014
  44.4289992  54.5429978  57.2550014  44.5522135  54.6756668  58.1059491
  48.5419992  54.2769978  39.5610014  47.8979992  53.6459978  39.8820014
  49.3039992  53.7459978  39.3290014  48.5568058  54.1187902  39.5736038
  51.0269992  53.1489978  56.9140014  50.6759992  52.2919978  57.1580014
  51.7529992  53.2909978  57.5210014  51.0771895  53.0511351  57.0293770
  53.1469992  54.0939978  39.7940014  53.4299992  53.2989978  40.2470014
  53.8859992  54.3269978  39.2330014  53.2857096  54.0167049  39.7801104
  39.7599992  49.6599978  57.5190014  39.9039992  48.7579978  57.2330014
  38.9879992  49.9459978  57.0320014  39.6752733  49.5751798  57.4139532
  44.1009992  50.0029978  39.6520014  44.1659992  49.2089978  40.1820014
  44.7539992  49.8849978  38.9620014  44.1981605  49.8783430  39.6312997
  46.4149992  49.6289978  56.9520014  46.0869992  49.8999978  56.0950014
  46.5669992  48.6879978  56.8640014  46.3906412  49.5389046  56.8227822
  49.4539992  51.0499978  39.3880014  49.1849992  51.2309978  40.2880014
  49.2469992  50.1249978  39.2560014  49.3891191  50.9497119  39.4935524
  52.1499992  49.5449978  54.3350014  52.8949992  50.1339978  54.2160014
  51.3929992  50.1269978  54.3990014  52.1495470  49.7042128  54.3273799
  40.5929992  46.8599978  56.9390014  41.0009992  46.0029978  56.8180014
  40.3319992  46.8739978  57.8600014  40.6136016  46.7445119  57.0469192
  45.2509992  47.9759978  41.9580014  44.7909992  47.4919978  42.6430014
  45.5059992  47.3069978  41.3220014  45.2224856  47.8193669  41.9658397
  44.5399992  45.8689978  54.3140014  43.9209992  46.5429978  54.5940014
  44.8839992  46.1899978  53.4800014  44.5017123  46.0046887  54.2396388
  46.3219992  46.2189978  40.2200014  46.1409992  46.0639978  39.2930014
  47.2719992  46.3269978  40.2650014  46.4256566  46.2123669  40.0990929
  49.5589992  48.3399978  57.5910014  50.5129992  48.4239978  57.5640014
  49.3989992  47.6279978  58.2110014  49.6677182  48.2552842  57.6710733
  55.7119992  48.5729978  39.6660014  55.4379992  48.1489978  38.8530014
  55.7509992  49.5049978  39.4490014  55.6797716  48.6408827  39.5254286
  44.8789992  43.2239978  55.3960014  45.0289992  42.4949978  54.7940014
  44.8809992  44.0009978  54.8370014  44.8997967  43.2292708  55.2380541
  45.2919992  41.5929978  52.8890014  45.8269992  42.0449978  52.2370014
  44.4389992  41.4849978  52.4660014  45.2500374  41.6402665  52.7426710
  46.8729992  47.0329978  53.1280014  47.6239992  46.8769978  52.5550014
  46.5339992  47.8849978  52.8530014  46.9299587  47.1268138  53.0124078
  51.2889992  44.8479978  58.1570014  51.4809992  43.9169978  58.0450014
  52.1469992  45.2729978  58.1460014  51.4312182  44.7780070  58.1401862
  52.6059992  47.6369978  56.2340014  52.3239992  48.3459978  55.6560014
  53.5479992  47.5639978  56.0830014  52.6947921  47.7242193  56.1344225
  43.3579992  44.4219978  57.3070014  42.5899992  43.8889978  57.0970014
  44.0359992  44.1119978  56.7080014  43.3447235  44.3071754  57.1972413
  46.0969992  39.0499978  53.3200014  45.9989992  39.9959978  53.2150014
  45.3549992  38.6769978  52.8440014  45.9832534  39.1291773  53.2412600
  47.3609992  43.3709978  56.8840014  47.1259992  43.1519978  57.7850014
  46.5779992  43.1639978  56.3740014  47.2229095  43.3129892  56.9385353
  50.0769992  42.4989978  55.9590014  49.1289992  42.5309978  56.0910014
  50.3889992  41.8729978  56.6130014  49.9895293  42.4187923  56.0654148
  51.7109992  41.1329978  57.9640014  51.6139992  40.1809978  57.9590014
  51.3889992  41.4009978  58.8250014  51.6542468  41.0390884  58.0796210
  41.5379992  42.3419978  57.0120014  41.7499992  41.6359978  56.4020014
  41.4269992  41.9049978  57.8560014  41.5520269  42.1861921  57.0425873
  46.3189992  38.3439978  55.9910014  47.0309992  37.7039978  55.9770014
  46.2179992  38.6099978  55.0780014  46.4027387  38.2924330  55.8655563
  46.6729992  40.0259978  58.0450014  46.5409992  39.5509978  57.2250014
  46.0729992  40.7709978  57.9900014  46.5739070  40.0615789  57.9253251
  46.2189992  56.9089978  41.2210014  47.1519992  57.0669978  41.3650014
  45.9549992  57.5849978  40.5960014  46.3109911  57.0219373  41.1562722
  39.7869992  51.5459978  40.7040014  40.7009992  51.6249978  40.9770014
  39.7949992  50.8589978  40.0380014  39.9130655  51.4639205  40.6512917
  38.4359992  56.9389978  45.7810014  37.7889992  56.4769978  45.2490014
  38.7909992  56.2669978  46.3640014  38.3953741  56.7849774  45.7869175
  39.3059992  55.0189978  47.5860014  38.9719992  54.1389978  47.7580014
  39.5289992  55.3649978  48.4510014  39.2903721  54.9451938  47.7264168
  56.8549992  55.8289978  50.5670014  56.8329992  56.0139978  51.5060014
  57.5449992  56.3969978  50.2260014  56.9453439  55.9311887  50.6494791
  56.4179992  55.3959978  53.4880014  55.9309992  54.6609978  53.1170014
  56.9669992  55.0019978  54.1660014  56.4255247  55.2421057  53.5288461
  54.8689992  51.1859978  58.1270014  54.0029992  51.0809978  58.5210014
  55.2449992  51.9439978  58.5730014  54.8013401  51.2741708  58.2412620
  56.1699992  49.4419978  43.6410014  57.0199992  49.8629978  43.7680014
  56.1749992  48.7019978  44.2480014  56.2871143  49.3996094  43.7404750
  56.5639992  47.4959978  45.4640014  55.8379992  47.0159978  45.8620014
  57.1459992  47.7009978  46.1970014  56.5432730  47.4580184  45.6174149
  56.3229992  50.2809978  50.4120014  57.1569992  49.9029978  50.1310014
  56.4349992  51.2239978  50.2930014  56.4521917  50.3567943  50.3574861
  54.8099992  53.1589978  52.7190014  54.1619992  53.4839978  53.3440014
  54.2919992  52.7179978  52.0450014  54.6514196  53.1438651  52.7134152
  56.8329992  47.3969978  41.8550014  56.3109992  47.7529978  41.1370014
  56.7999992  48.0719978  42.5340014  56.7570129  47.5369598  41.8483355
  55.1819992  44.6359978  40.4060014  55.2779992  45.3029978  39.7260014
  55.0419992  43.8209978  39.9250014  55.1762040  44.6170671  40.2478378
  54.3509992  46.0169978  46.0270014  54.2009992  45.0719978  46.0070014
  53.9969992  46.2979978  46.8710014  54.2826351  45.9256644  46.1383220
  39.3859992  48.0949978  50.0380014  39.5709992  48.0129978  49.1020014
  40.2359992  47.9709978  50.4610014  39.5260928  48.0670463  49.9672893
  55.2069992  47.9869978  55.6660014  55.7899992  47.2519978  55.8580014
  55.7709992  48.7589978  55.7130014  55.3629781  47.9908145  55.6986164
  56.7039992  45.8899978  56.3510014  55.8409992  45.5109978  56.1850014
  57.3079992  45.1509978  56.2760014  56.6676085  45.7383223  56.3181694
  54.4289992  42.0439978  39.5240014  55.0399992  41.6729978  40.1610014
  53.5919992  41.6229978  39.7200014  54.3994947  41.9362756  39.6377252
  54.0619992  43.5989978  44.4900014  54.3409992  42.6919978  44.6140014
  54.8209992  44.0329978  44.1010014  54.2028619  43.5334502  44.4543795
  54.6729992  44.1809978  49.9260014  55.6059992  44.3929978  49.8910014
  54.4379992  44.2819978  50.8480014  54.7689517  44.2236833  50.0459130
  54.7029992  44.9179978  52.7020014  53.8599992  45.1859978  53.0680014
  55.1449992  45.7399978  52.4910014  54.6474138  45.0658273  52.7235518
  38.9839992  43.3649978  56.1780014  39.9029992  43.2429978  56.4150014
  38.5339992  42.6149978  56.5680014  39.0490087  43.2469608  56.2631410
  56.9859992  38.8979978  58.0550014  57.3349992  38.2439978  57.4500014
  57.1329992  39.7349978  57.6150014  57.0536824  38.9216024  57.9126304
  54.6749992  40.8619978  44.5380014  54.8569992  40.4129978  45.3630014
  54.0749992  40.2779978  44.0740014  54.6188187  40.7215552  44.5882739
  40.2049992  41.6779978  49.0700014  40.6499992  40.8859978  49.3720014
  40.6709992  42.3939978  49.5000014  40.3289718  41.6664534  49.1695265
  38.5089992  44.6769978  50.1390014  39.0009992  44.4559978  49.3480014
  38.8709992  45.5169978  50.4200014  38.6252923  44.7603468  50.0687407
  56.5049992  41.0069978  56.4040014  55.5879992  41.2779978  56.3690014
  56.6279992  40.4719978  55.6200014  56.3959672  40.9717885  56.2931862
  56.5419992  40.9299978  41.0660014  56.9539992  40.2089978  40.5910014
  57.2229992  41.5989978  41.1240014  56.6905536  40.9217766  41.0088024
  38.8229992  40.9349978  44.1930014  37.8979992  41.1429978  44.0640014
  39.2769992  41.4189978  43.5030014  38.7576298  41.0289299  44.0820451
  53.5929992  55.9189978  46.1390014  54.2459992  55.5709978  45.5310014
  54.1039992  56.4069978  46.7850014  53.7512777  55.9373815  46.1432047
  38.7859992  39.6729978  52.5370014  38.1209992  39.4269978  53.1800014
  38.3429992  40.2949978  51.9600014  38.6351168  39.7234214  52.5469848
  40.9779992  52.8479978  56.6820014  40.1569992  53.0229978  56.2210014
  40.7259992  52.7749978  57.6020014  40.8315594  52.8620717  56.7433611
  43.9319992  53.8219978  52.9400014  43.5079992  54.6319978  52.6580014
  44.8369992  53.9079978  52.6380014  43.9962138  53.9444160  52.8606415
  48.2439992  55.2209978  55.9000014  48.4279992  54.8879978  56.7780014
  49.0899992  55.5309978  55.5780014  48.3836484  55.2172979  55.9767617
  50.5889992  56.5069978  55.1440014  51.2659992  55.8739978  54.9040014
  50.9099992  56.9079978  55.9510014  50.7251323  56.4745691  55.2203158
  55.5059992  39.0969978  54.2230014  54.6929992  39.4219978  53.8360014
  55.7389992  38.3359978  53.6900014  55.4261347  39.0386880  54.0979841
  41.3339992  57.0789978  52.9880014  40.6139992  57.5189978  52.5370014
  40.9689992  56.8279978  53.8360014  41.1859643  57.1053369  53.0409129
  43.8009992  56.6789978  52.0180014  42.9369992  56.7509978  52.4220014
  43.7459992  57.2259978  51.2340014  43.6751942  56.7627849  51.9674000
  48.5119992  56.5669978  51.1930014  48.0549992  57.0959978  50.5390014
  48.6749992  57.1699978  51.9180014  48.4714960  56.7209280  51.2015274
  50.8399992  55.4449978  52.1380014  49.9349992  55.6099978  51.8720014
  51.2679992  56.2979978  52.0720014  50.7741537  55.5829134  52.0927095
  53.4439992  57.0149978  52.4330014  53.2619992  57.9309978  52.2220014
  53.6209992  56.6039978  51.5860014  53.4430030  57.0848273  52.2897166
  40.7489992  55.7019978  49.8980014  40.7309992  55.2759978  50.7550014
  41.5539992  55.3829978  49.4890014  40.8552875  55.6006435  49.9599515
  42.8899992  54.4119978  48.5530014  42.6709992  53.4949978  48.7230014
  43.7139992  54.5519978  49.0190014  42.9714702  54.3055511  48.6392527
  45.4269992  54.8819978  49.4020014  45.6399992  53.9939978  49.1150014
  45.4919992  54.8469978  50.3560014  45.4649149  54.7558326  49.4917369
  48.9359992  40.5459978  48.5460014  48.2619992  39.9159978  48.8020014
  49.4999992  40.0619978  47.9430014  48.9200384  40.3943708  48.4995020
  54.0789992  38.6529978  48.6590014  54.6819992  39.2009978  48.1570014
  53.2089992  38.9719978  48.4180014  54.0439157  38.7710373  48.5577910
  55.8059992  39.7919978  46.9920014  56.4169992  39.2779978  46.4650014
  56.1879992  40.6689978  47.0150014  55.9413305  39.8402050  46.9229418
  41.2629992  39.1799978  46.3680014  40.4859992  38.9449978  45.8610014
  41.7929992  38.3829978  46.3770014  41.2283451  39.0401268  46.2998627
  40.0989992  38.9779978  42.1720014  40.5379992  39.5889978  41.5800014
  39.4649992  39.5159978  42.6460014  40.0733859  39.1344064  42.1550305
  45.8419992  39.1059978  46.1810014  46.7159992  39.4949978  46.1520014
  45.7059992  38.8909978  47.1040014  45.9431953  39.1301643  46.3017617
  51.3989992  39.1359978  47.8310014  51.4749992  39.2319978  46.8810014
  51.1239992  38.2289978  47.9590014  51.3721871  39.0264146  47.7183944
  52.7519992  39.1619978  43.5230014  52.0489992  39.7769978  43.3130014
  52.3069992  38.3249978  43.6540014  52.5956550  39.1329668  43.5119837
  39.9999992  54.9259978  43.0690014  39.3149992  54.8879978  42.4020014
  40.0039992  55.8389978  43.3570014  39.9067621  55.0441924  43.0166126
  41.9599992  40.8939978  40.6140014  42.4509992  40.2639978  40.0870014
  42.5829992  41.1899978  41.2770014  42.1115304  40.8477376  40.6314940
  46.9859992  41.1869978  43.0710014  47.1639992  40.5399978  43.7540014
  46.9319992  42.0209978  43.5380014  47.0030678  41.2111604  43.2276301
  48.8639992  56.1349978  41.4670014  49.7299992  56.5019978  41.2890014
  48.6179992  55.6959978  40.6530014  48.9492097  56.1258525  41.3326019
  55.5729992  55.6979978  44.1460014  55.3789992  54.9499978  43.5810014
  55.5339992  56.4559978  43.5630014  55.5411645  55.6980786  43.9898148
  41.2199992  39.6939978  55.8860014  40.8539992  38.9279978  56.3280014
  42.1329992  39.7229978  56.1720014  41.2933172  39.5930324  55.9851890
  43.1929992  39.0439978  57.4210014  44.0919992  38.7699978  57.2370014
  42.8069992  38.3019978  57.8860014  43.2637307  38.9062196  57.4587098
  41.8179992  55.8459978  40.0940014  41.5499992  56.1319978  40.9680014
  42.5889992  55.2999978  40.2470014  41.8855926  55.8112779  40.2341205
  51.6149992  38.3769978  57.6040014  51.6909992  37.9509978  58.4570014
  52.5079992  38.3899978  57.2610014  51.7462303  38.3203493  57.6745497
  54.7909992  54.4499978  56.2960014  54.0089992  54.2629978  55.7760014
  54.7189992  55.3789978  56.5130014  54.6741924  54.5500637  56.2541602
  69.1969992  48.3359978  46.3270014  69.2859992  49.2799978  46.1950014
  68.5589992  48.0609978  45.6690014  69.1229062  48.4279812  46.2199641
  68.1299992  47.5909978  49.7460014  68.0919992  46.9449978  50.4510014
  67.8079992  47.1239978  48.9750014  68.0812679  47.4394276  49.7382921
  60.4979992  47.2049978  51.3390014  60.5399992  46.5799978  52.0620014
  61.2009992  47.8289978  51.5210014  60.5987345  47.2037873  51.4625274
  71.8359992  50.5299978  48.0470014  71.3949992  49.8099978  48.4980014
  71.8229992  51.2509978  48.6770014  71.7739215  50.5289291  48.1938105
  61.4219992  51.6549978  49.8740014  61.0519992  50.8529978  49.5040014
  62.3629992  51.4869978  49.9200014  61.4985984  51.5224638  49.8295603
  58.0319992  45.3149978  45.2660014  57.5839992  46.1609978  45.2480014
  57.4709992  44.7359978  44.7510014  57.8948546  45.3523993  45.1938891
  58.7419992  47.4769978  47.3920014  58.9559992  46.7069978  47.9200014
  59.4799992  47.5669978  46.7890014  58.8710200  47.3838587  47.3827035
  68.9479992  55.6339978  48.2590014  69.5669992  54.9579978  47.9860014
  68.7389992  55.4159978  49.1680014  69.0046056  55.5118869  48.3443967
  66.5189992  50.0229978  50.1520014  66.8229992  49.3369978  49.5570014
  67.2409992  50.1419978  50.7700014  66.6581240  49.9452314  50.1540959
  75.1819992  41.6249978  51.0120014  75.2319992  42.2349978  51.7480014
  75.6079992  42.0859978  50.2890014  75.2464108  41.7707709  51.0150112
  69.6599992  44.4169978  50.4790014  69.8029992  43.4709978  50.4990014
  69.5539992  44.6239978  49.5510014  69.6652403  44.3154797  50.3562239
  62.8149992  42.5189978  47.7520014  62.8579992  43.3789978  47.3330014
  62.3569992  41.9669978  47.1180014  62.7589871  42.5619245  47.6090761
  70.5369992  42.6499978  46.1530014  71.1839992  42.3209978  46.7770014
  71.0469992  43.1669978  45.5300014  70.6944351  42.6749067  46.1541037
  59.4349992  44.9159978  48.5140014  60.0889992  44.3659978  48.9460014
  59.4589992  44.6419978  47.5970014  59.5277199  44.8037167  48.4491668
  64.5919992  46.4659978  47.7290014  65.2079992  45.9389978  48.2380014
  64.0049992  45.8259978  47.3250014  64.5970154  46.3073954  47.7440945
  75.5739992  43.1029978  53.2480014  74.8849992  43.7609978  53.1530014
  75.5889992  42.9049978  54.1850014  75.4817756  43.1662603  53.3615812
  61.6249992  41.4369978  51.8260014  61.4059992  41.9669978  51.0590014
  60.9569992  41.6629978  52.4730014  61.5046975  41.5400967  51.8085140
  68.9939992  50.9369978  45.3700014  68.6989992  50.6139978  44.5180014
  68.6699992  51.8369978  45.4110014  68.9098460  51.0144464  45.2589714
  64.1939992  49.1119978  52.1130014  63.4539992  49.7109978  52.2170014
  64.9079992  49.6659978  51.7980014  64.1893500  49.2687829  52.0846371
  72.3009992  41.9409978  48.1330014  72.0859992  41.1749978  48.6660014
  72.9569992  42.4129978  48.6460014  72.3602673  41.9000728  48.2751990
  61.2189992  43.3289978  49.7780014  61.8329992  43.9619978  50.1510014
  61.7309992  42.8569978  49.1220014  61.3721962  43.3517249  49.7402935
  62.6019992  51.0769978  52.9000014  62.5959992  51.9559978  52.5220014
  61.7479992  50.9929978  53.3250014  62.4857925  51.1859535  52.9056887
  58.7229992  50.7479978  43.6820014  58.4509992  50.9769978  42.7940014
  58.7679992  51.5849978  44.1430014  58.6918097  50.8926163  43.6226683
  72.3479992  52.3689978  50.3950014  71.4059992  52.4279978  50.5570014
  72.6239992  53.2749978  50.2580014  72.2565865  52.4995288  50.3986192
  72.6479992  40.6559978  51.8120014  71.9119992  41.2659978  51.7750014
  73.3319992  41.0709978  51.2860014  72.6395367  40.7957551  51.7358174
  65.6519992  38.7419978  49.2780014  65.5339992  37.7939978  49.2240014
  64.7969992  39.0749978  49.5510014  65.5202805  38.6572202  49.3075079
  70.5999992  54.1499978  47.0200014  71.0249992  53.4429978  46.5350014
  70.9169992  54.9519978  46.6030014  70.7010266  54.1615190  46.8972479
  71.7599992  52.0509978  45.5290014  71.5019992  51.3609978  44.9170014
  71.8309992  51.6079978  46.3740014  71.7343050  51.8966814  45.5595621
  73.4459992  50.6179978  54.0060014  73.5849992  50.0259978  53.2670014
  73.6129992  51.4909978  53.6500014  73.4876193  50.6548896  53.8566211
  67.9179992  47.5799978  43.7790014  67.2069992  48.1149978  43.4270014
  68.6089992  47.6349978  43.1190014  67.9140751  47.6606777  43.6415858
  67.9719992  46.0369978  40.8170014  68.6729992  46.0599978  41.4690014
  68.2739992  45.4089978  40.1610014  68.1088202  45.9552212  40.8175609
  75.2869992  46.9579978  52.0720014  74.6349992  47.6519978  52.1610014
  75.7529992  47.1679978  51.2620014  75.2605937  47.0815019  51.9747533
  71.3239992  47.7889978  44.7300014  70.5919992  48.0179978  45.3040014
  71.7709992  47.0759978  45.1850014  71.2843963  47.7238729  44.8699945
  71.2209992  45.9639978  53.7980014  71.3009992  46.7269978  54.3700014
  70.6199992  46.2429978  53.1080014  71.1506547  46.1062457  53.7830047
  62.9689992  48.4199978  46.6130014  62.6389992  48.0489978  45.7950014
  63.5579992  47.7489978  46.9600014  63.0033970  48.2786063  46.5479404
  64.3359992  51.8479978  49.2940014  64.2409992  51.2689978  48.5380014
  65.0649992  51.4769978  49.7900014  64.4216011  51.7185561  49.2576028
  63.3359992  47.1879978  50.2460014  63.9009992  47.3099978  49.4840014
  63.6549992  47.8259978  50.8850014  63.4564166  47.2908791  50.2280348
  69.6449992  52.6919978  50.9800014  69.4049992  53.3539978  51.6280014
  69.4469992  51.8569978  51.4050014  69.5853826  52.6698115  51.1261566
  64.2159992  51.5879978  54.9640014  63.9049992  52.3699978  55.4190014
  63.5659992  51.4349978  54.2780014  64.0855538  51.6744087  54.9335898
  70.1949992  46.9519978  42.4160014  70.7739992  47.1019978  43.1620014
  70.6089992  47.4219978  41.6920014  70.3303358  47.0360954  42.4203953
  61.1359992  47.7859978  54.1920014  61.2059992  48.4369978  54.8910014
  60.2449992  47.8889978  53.8570014  61.0251690  47.8889249  54.2423043
  67.9209992  53.6879978  45.8510014  68.3949992  53.9839978  46.6280014
  67.3579992  54.4269978  45.6180014  67.9097890  53.8283036  45.9258101
  62.4549992  53.6589978  55.7270014  62.4629992  53.5229978  54.7800014
  61.5389992  53.5419978  55.9790014  62.3322528  53.6245463  55.6313243
  73.8939992  38.7019978  42.2290014  72.9939992  38.8409978  42.5240014
  74.1459992  39.5329978  41.8270014  73.8048683  38.8334055  42.2150232
  61.9599992  47.4889978  44.2020014  61.6679992  48.2569978  43.7110014
  61.2849992  46.8299978  44.0390014  61.8288497  47.5049745  44.1128260
  75.0829992  53.0679978  40.6050014  75.1559992  54.0069978  40.7750014
  75.9879992  52.7629978  40.5490014  75.2154170  53.1553282  40.6207063
  58.0529992  49.8519978  53.0170014  57.5509992  49.8239978  52.2020014
  58.0579992  48.9469978  53.3270014  57.9849832  49.7257486  52.9474121
  57.8029992  52.6329978  49.9010014  58.7489992  52.4879978  49.8820014
  57.6899992  53.4169978  50.4380014  57.9173578  52.7191697  49.9710317
  76.0009992  53.2989978  55.5840014  75.9509992  52.3429978  55.5460014
  75.1739992  53.5659978  55.9850014  75.8823831  53.2044680  55.6330121
  66.9789992  52.8729978  54.4600014  67.0669992  53.6989978  54.9350014
  66.1159992  52.5429978  54.7090014  66.8743357  52.9415468  54.5587653
  67.3939992  56.6449978  44.2660014  67.3179992  56.5239978  43.3190014
  67.4259992  57.5939978  44.3840014  67.3879380  56.7567677  44.1525181
  61.0469992  55.4339978  46.0470014  61.1989992  55.0859978  46.9250014
  60.1959992  55.0769978  45.7910014  60.9528344  55.3380879  46.1326868
  70.4949992  55.7989978  41.2680014  70.8699992  55.0549978  40.7970014
  70.4999992  55.5289978  42.1860014  70.5470098  55.6606392  41.3276629
  70.1639992  55.7249978  44.0170014  69.2289992  55.8249978  44.1960014
  70.4439992  55.0149978  44.5960014  70.0739471  55.6427933  44.1196695
  73.1529992  44.7919978  56.0640014  72.7449992  45.2719978  55.3430014
  73.1929992  43.8859978  55.7560014  73.1026221  44.7352449  55.9238267
  60.3019992  51.1759978  54.0600014  60.5179992  50.8139978  54.9200014
  59.4459992  50.8009978  53.8510014  60.2158810  51.0758837  54.1492680
  62.9199992  39.6459978  50.0560014  62.0589992  39.5589978  49.6480014
  62.8979992  40.5019978  50.4840014  62.7990491  39.7498003  50.0579582
  67.5829992  39.3679978  53.4310014  68.0029992  38.9529978  54.1840014
  66.6499992  39.1889978  53.5480014  67.5143736  39.2869910  53.5498968
  70.9099992  43.1229978  54.2840014  70.3959992  42.9979978  55.0820014
  70.7539992  44.0359978  54.0400014  70.8186967  43.2292123  54.3600937
  71.6719992  47.9839978  40.0450014  71.7139992  47.7619978  39.1150014
  72.5209992  48.3829978  40.2350014  71.7925253  48.0075498  39.9433822
  67.2449992  41.8599978  40.7160014  66.9909992  41.8789978  41.6380014
  66.9879992  40.9889978  40.4140014  67.1754508  41.7448280  40.8014803
  63.0109992  44.6109978  51.1510014  62.3699992  44.5709978  51.8600014
  63.0489992  45.5379978  50.9130014  62.9283010  44.7307668  51.2159946
  63.0079992  44.8319978  46.0630014  62.1159992  44.4919978  46.0040014
  63.4589992  44.4549978  45.3070014  62.9467642  44.7344910  45.9527726
  68.5439992  45.2479978  44.8800014  68.1349992  46.0629978  44.5880014
  69.2639992  45.1079978  44.2660014  68.5854439  45.3405372  44.7570115
  67.6459992  45.4239978  56.3680014  67.0829992  44.7189978  56.6890014
  68.4719992  45.3029978  56.8360014  67.6806674  45.3112165  56.4751751
  69.5489992  44.6939978  47.6940014  69.3529992  45.2999978  46.9790014
  69.7299992  43.8609978  47.2600014  69.5466584  44.6642513  47.5374212
  60.7609992  44.9319978  53.0180014  60.7229992  45.3319978  53.8870014
  60.2709992  44.1149978  53.1080014  60.6895330  44.8762674  53.1491289
  64.1269992  42.3059978  39.8170014  63.6959992  41.8609978  40.5460014
  63.4089992  42.6769978  39.3040014  63.9709176  42.2952051  39.8474930
  57.3699992  42.0479978  46.8690014  57.9999992  42.0189978  47.5880014
  57.8189992  41.6229978  46.1380014  57.5170835  41.9865660  46.8687659
  58.6439992  42.7939978  42.2930014  59.1179992  43.3849978  41.7080014
  57.9259992  43.3239978  42.6400014  58.6118640  42.9465511  42.2597969
  68.8129992  46.3319978  52.3650014  69.1359992  45.7009978  51.7220014
  68.3719992  45.7979978  53.0260014  68.7976379  46.1733468  52.3662582
  65.5899992  42.2599978  47.1490014  64.6789992  42.3169978  47.4380014
  66.0949992  42.1999978  47.9600014  65.5336873  42.2596826  47.2981207
  60.4179992  43.8889978  45.9760014  59.5289992  43.9879978  45.6360014
  60.7149992  43.0469978  45.6300014  60.3364177  43.7887687  45.8826940
  64.0709992  43.8889978  43.6330014  65.0029992  44.0179978  43.8110014
  63.8559992  44.5579978  42.9830014  64.1694472  43.9970806  43.5694891
  69.9949992  41.4949978  50.4140014  69.3179992  41.6259978  51.0770014
  69.5099992  41.3399978  49.6030014  69.8367405  41.4919947  50.3952170
  62.7449992  45.0829978  41.1990014  62.2029992  44.7039978  40.5080014
  63.5789992  45.2779978  40.7710014  62.7834390  45.0574079  41.0464392
  73.2829992  57.1659978  56.6900014  73.4819992  57.5899978  55.8560014
  73.9379992  57.5099978  57.2970014  73.3988522  57.2706301  56.6577852
  60.8809992  49.6399978  56.2980014  61.6129992  49.8949978  56.8600014
  60.0999992  49.8449978  56.8140014  60.8756526  49.7025450  56.4445176
  66.9099992  45.0469978  49.0360014  67.4739992  44.5009978  48.4890014
  66.7619992  44.5259978  49.8250014  66.9673037  44.9016787  49.0677229
  61.9119992  41.1839978  45.4550014  61.5949992  40.2809978  45.4190014
  62.6929992  41.1859978  44.9020014  61.9742431  41.0607797  45.3753102
  65.5359992  43.4359978  51.4500014  64.7009992  43.8899978  51.5610014
  66.0599992  43.7119978  52.2020014  65.4926072  43.5353948  51.5668136
  66.0809992  49.6489978  43.1350014  65.3359992  49.1409978  42.8130014
  65.9459992  49.6979978  44.0810014  65.9608963  49.5861731  43.2188826
  73.2309992  48.7819978  51.9220014  73.8719992  49.2379978  51.3780014
  72.3999992  48.8949978  51.4590014  73.2065287  48.8596921  51.7849887
  69.9779992  42.4629978  41.3340014  69.0399992  42.5739978  41.1830014
  70.2759992  43.3189978  41.6410014  69.8896318  42.5940158  41.3548145
  67.5999992  49.8329978  54.3720014  67.2539992  49.4509978  55.1790014
  67.3999992  50.7659978  54.4430014  67.5255987  49.9069002  54.4920461
  70.6969992  44.3299978  42.9950014  71.5889992  44.1919978  43.3140014
  70.7529992  45.1209978  42.4580014  70.8267325  44.4179918  42.9661217
  61.2049992  48.9439978  48.9050014  61.9499992  48.9409978  48.3030014
  61.2829992  48.1199978  49.3860014  61.3173365  48.8322384  48.8877430
  68.2059992  51.1069978  42.1600014  67.9109992  51.9339978  42.5420014
  67.5029992  50.4879978  42.3570014  68.0706379  51.1364171  42.2388654
  58.2129992  47.4039978  54.2200014  58.4359992  46.9859978  55.0510014
  57.6109992  46.7919978  53.7970014  58.1621513  47.2639606  54.2766740
  65.2299992  46.9209978  56.4330014  64.9339992  46.7559978  55.5370014
  66.1609992  46.7009978  56.4220014  65.3154401  46.8686879  56.3090206
  69.8499992  52.2949978  54.3220014  68.9499992  52.4779978  54.0550014
  69.8839992  52.5539978  55.2430014  69.7313748  52.3550554  54.4099164
  75.5819992  44.5389978  42.6900014  75.0269992  44.1429978  42.0170014
  75.6819992  45.4499978  42.4120014  75.5196816  44.6079505  42.5605033
  75.5449992  50.3399978  55.5270014  74.6939992  50.5779978  55.1590014
  76.1349992  50.3229978  54.7740014  75.5083812  50.3702524  55.3748453
  73.8769992  53.3249978  43.1550014  73.5039992  52.4999978  43.4640014
  74.1539992  53.1419978  42.2570014  73.8633463  53.1872569  43.0759525
  71.0369992  48.1329978  50.1760014  70.1089992  47.9019978  50.1490014
  71.4879992  47.3559978  49.8460014  70.9708165  47.9962774  50.1276790
  63.5799992  52.4619978  46.3090014  64.1079992  53.2349978  46.1090014
  62.6999992  52.6859978  46.0070014  63.5333435  52.5982700  46.2407310
  59.3349992  47.3239978  40.8960014  59.9509992  47.9509978  41.2760014
  58.4729992  47.6399978  41.1680014  59.3027678  47.4524412  40.9847209
  65.0079992  50.1249978  45.8850014  64.7669992  51.0499978  45.9270014
  64.2669992  49.6659978  46.2820014  64.8749206  50.1895915  45.9443769
  65.5219992  54.2739978  52.2000014  65.8849992  55.1279978  51.9670014
  66.0539992  53.9819978  52.9410014  65.6435141  54.3513895  52.2682097
  63.6909992  55.1459978  45.4310014  62.7409992  55.2519978  45.4820014
  64.0429992  55.9669978  45.7750014  63.6085472  55.2714923  45.4844852
  69.0659992  50.3729978  51.9010014  68.6409992  50.1449978  52.7270014
  69.6469992  49.6339978  51.7190014  69.0863395  50.2419545  51.9894414
  71.2689992  51.3019978  40.9750014  71.6229992  50.9219978  41.7790014
  70.3209992  51.2079978  41.0620014  71.1892298  51.2372452  41.0968687
  71.7249992  54.9249978  54.3700014  71.1229992  54.3689978  53.8750014
  72.0059992  55.5919978  53.7440014  71.6805757  54.9390744  54.2175675
  75.7729992  55.7809978  41.1760014  76.5169992  56.3669978  41.0360014
  75.0789992  56.3499978  41.5090014  75.7809809  55.9380818  41.2018590
  59.8469992  42.1579978  53.7780014  58.9549992  42.4959978  53.7100014
  59.7489992  41.3019978  54.1960014  59.7114475  42.0886543  53.8251704
  72.1349992  49.9739978  43.2020014  71.8579992  49.2459978  43.7580014
  73.0629992  50.0929978  43.4070014  72.2224499  49.8904213  43.3058044
  59.4989992  53.9619978  52.2130014  59.7159992  53.0299978  52.1820014
  59.7449992  54.2369978  53.0960014  59.5619809  53.8715686  52.3281691
  65.3599992  52.4139978  39.4220014  65.5989992  51.6649978  38.8750014
  65.0909992  52.0259978  40.2550014  65.3563233  52.2591853  39.4597809
  64.2969992  51.9839978  41.8780014  64.4439992  51.4639978  42.6680014
  64.2939992  52.8909978  42.1850014  64.3167102  52.0353953  42.0275925
  60.7499992  49.2359978  42.3890014  60.0639992  49.5889978  42.9560014
  61.2729992  49.9989978  42.1420014  60.7268402  49.3873901  42.4331801
  68.5819992  41.8989978  52.6680014  69.2809992  41.9729978  53.3180014
  68.2009992  41.0339978  52.8220014  68.6262097  41.7922389  52.7777997
  69.3659992  41.5509978  43.7650014  69.5859992  42.0219978  42.9610014
  69.9249992  41.9449978  44.4350014  69.4716731  41.6687287  43.7455033
  67.0349992  53.6809978  42.6280014  66.2179992  54.1779978  42.6800014
  67.5639992  54.1569978  41.9870014  66.9948125  53.8131989  42.5485306
  66.5659992  43.2789978  44.6000014  67.3779992  43.7829978  44.6460014
  66.3219992  43.1339978  45.5140014  66.6441467  43.3283749  44.7298575
  67.1019992  44.2649978  53.7840014  67.2209992  44.8389978  54.5410014
  67.7569992  43.5769978  53.8990014  67.2068684  44.2505194  53.9031674
  67.4499992  40.3599978  45.5380014  67.1029992  40.9769978  46.1820014
  68.1089992  40.8609978  45.0560014  67.4915090  40.5121575  45.5610681
  64.3729992  54.7249978  42.6090014  64.5339992  55.5249978  42.1090014
  64.1759992  55.0319978  43.4940014  64.3683906  54.8758678  42.6602333
  63.1079992  41.4229978  42.2250014  63.0239992  42.3109978  42.5720014
  63.9979992  41.1579978  42.4570014  63.2168163  41.5087179  42.3038596
  73.3059992  42.1719978  54.6190014  72.3899992  42.4339978  54.5320014
  73.6419992  42.1689978  53.7230014  73.2258499  42.2075163  54.4858766
  71.9089992  45.9219978  48.7150014  71.1109992  45.5069978  48.3870014
  72.3539992  45.2319978  49.2060014  71.8599684  45.7718628  48.7365227
  61.3659992  51.8499978  41.2850014  61.9579992  52.5499978  41.5620014
  61.8249992  51.4169978  40.5660014  61.5091652  51.8872675  41.2256533
  59.6819992  44.5149978  40.4010014  59.6369992  45.4539978  40.5800014
  58.7939992  44.2789978  40.1320014  59.5558166  44.6116687  40.3891524
  72.9949992  55.1779978  50.3370014  72.8389992  55.8569978  49.6800014
  73.9279992  55.2499978  50.5400014  73.0997387  55.2806390  50.2745342
  60.4899992  39.2959978  49.0750014  60.2609992  39.3549978  48.1470014
  60.0479992  38.5049978  49.3810014  60.3988801  39.1970540  48.9894729
  59.4209992  53.2369978  45.2350014  58.5879992  53.7089978  45.2620014
  59.9659992  53.7469978  44.6360014  59.3807857  53.3704791  45.1577142
  58.7089992  55.8489978  56.5650014  59.2489992  55.6329978  57.3250014
  58.2279992  55.0439978  56.3750014  58.7179219  55.7105156  56.6434282
  63.3059992  54.7689978  58.1850014  64.0739992  54.3099978  58.5260014
  63.2849992  54.5429978  57.2550014  63.4082135  54.6756668  58.1059491
  67.3979992  54.2769978  39.5610014  66.7539992  53.6459978  39.8820014
  68.1599992  53.7459978  39.3290014  67.4128058  54.1187902  39.5736038
  69.8829992  53.1489978  56.9140014  69.5319992  52.2919978  57.1580014
  70.6089992  53.2909978  57.5210014  69.9331895  53.0511351  57.0293770
  72.0029992  54.0939978  39.7940014  72.2859992  53.2989978  40.2470014
  72.7419992  54.3269978  39.2330014  72.1417096  54.0167049  39.7801104
  58.6159992  49.6599978  57.5190014  58.7599992  48.7579978  57.2330014
  57.8439992  49.9459978  57.0320014  58.5312733  49.5751798  57.4139532
  62.9569992  50.0029978  39.6520014  63.0219992  49.2089978  40.1820014
  63.6099992  49.8849978  38.9620014  63.0541605  49.8783430  39.6312997
  65.2709992  49.6289978  56.9520014  64.9429992  49.8999978  56.0950014
  65.4229992  48.6879978  56.8640014  65.2466412  49.5389046  56.8227822
  68.3099992  51.0499978  39.3880014  68.0409992  51.2309978  40.2880014
  68.1029992  50.1249978  39.2560014  68.2451191  50.9497119  39.4935524
  71.0059992  49.5449978  54.3350014  71.7509992  50.1339978  54.2160014
  70.2489992  50.1269978  54.3990014  71.0055470  49.7042128  54.3273799
  59.4489992  46.8599978  56.9390014  59.8569992  46.0029978  56.8180014
  59.1879992  46.8739978  57.8600014  59.4696016  46.7445119  57.0469192
  64.1069992  47.9759978  41.9580014  63.6469992  47.4919978  42.6430014
  64.3619992  47.3069978  41.3220014  64.0784856  47.8193669  41.9658397
  63.3959992  45.8689978  54.3140014  62.7769992  46.5429978  54.5940014
  63.7399992  46.1899978  53.4800014  63.3577123  46.0046887  54.2396388
  65.1779992  46.2189978  40.2200014  64.9969992  46.0639978  39.2930014
  66.1279992  46.3269978  40.2650014  65.2816566  46.2123669  40.0990929
  68.4149992  48.3399978  57.5910014  69.3689992  48.4239978  57.5640014
  68.2549992  47.6279978  58.2110014  68.5237182  48.2552842  57.6710733
  74.5679992  48.5729978  39.6660014  74.2939992  48.1489978  38.8530014
  74.6069992  49.5049978  39.4490014  74.5357716  48.6408827  39.5254286
  63.7349992  43.2239978  55.3960014  63.8849992  42.4949978  54.7940014
  63.7369992  44.0009978  54.8370014  63.7557967  43.2292708  55.2380541
  64.1479992  41.5929978  52.8890014  64.6829992  42.0449978  52.2370014
  63.2949992  41.4849978  52.4660014  64.1060374  41.6402665  52.7426710
  65.7289992  47.0329978  53.1280014  66.4799992  46.8769978  52.5550014
  65.3899992  47.8849978  52.8530014  65.7859587  47.1268138  53.0124078
  70.1449992  44.8479978  58.1570014  70.3369992  43.9169978  58.0450014
  71.0029992  45.2729978  58.1460014  70.2872182  44.7780070  58.1401862
  71.4619992  47.6369978  56.2340014  71.1799992  48.3459978  55.6560014
  72.4039992  47.5639978  56.0830014  71.5507921  47.7242193  56.1344225
  62.2139992  44.4219978  57.3070014  61.4459992  43.8889978  57.0970014
  62.8919992  44.1119978  56.7080014  62.2007235  44.3071754  57.1972413
  64.9529992  39.0499978  53.3200014  64.8549992  39.9959978  53.2150014
  64.2109992  38.6769978  52.8440014  64.8392534  39.1291773  53.2412600
  66.2169992  43.3709978  56.8840014  65.9819992  43.1519978  57.7850014
  65.4339992  43.1639978  56.3740014  66.0789095  43.3129892  56.9385353
  68.9329992  42.4989978  55.9590014  67.9849992  42.5309978  56.0910014
  69.2449992  41.8729978  56.6130014  68.8455293  42.4187923  56.0654148
  70.5669992  41.1329978  57.9640014  70.4699992  40.1809978  57.9590014
  70.2449992  41.4009978  58.8250014  70.5102468  41.0390884  58.0796210
  60.3939992  42.3419978  57.0120014  60.6059992  41.6359978  56.4020014
  60.2829992  41.9049978  57.8560014  60.4080269  42.1861921  57.0425873
  65.1749992  38.3439978  55.9910014  65.8869992  37.7039978  55.9770014
  65.0739992  38.6099978  55.0780014  65.2587387  38.2924330  55.8655563
  65.5289992  40.0259978  58.0450014  65.3969992  39.5509978  57.2250014
  64.9289992  40.7709978  57.9900014  65.4299070  40.0615789  57.9253251
  65.0749992  56.9089978  41.2210014  66.0079992  57.0669978  41.3650014
  64.8109992  57.5849978  40.5960014  65.1669911  57.0219373  41.1562722
  58.6429992  51.5459978  40.7040014  59.5569992  51.6249978  40.9770014
  58.6509992  50.8589978  40.0380014  58.7690655  51.4639205  40.6512917
  57.2919992  56.9389978  45.7810014  56.6449992  56.4769978  45.2490014
  57.6469992  56.2669978  46.3640014  57.2513741  56.7849774  45.7869175
  58.1619992  55.0189978  47.5860014  57.8279992  54.1389978  47.7580014
  58.3849992  55.3649978  48.4510014  58.1463721  54.9451938  47.7264168
  73.7249992  51.1859978  58.1270014  72.8589992  51.0809978  58.5210014
  74.1009992  51.9439978  58.5730014  73.6573401  51.2741708  58.2412620
  75.0259992  49.4419978  43.6410014  75.8759992  49.8629978  43.7680014
  75.0309992  48.7019978  44.2480014  75.1431143  49.3996094  43.7404750
  75.4199992  47.4959978  45.4640014  74.6939992  47.0159978  45.8620014
  76.0019992  47.7009978  46.1970014  75.3992730  47.4580184  45.6174149
  75.1789992  50.2809978  50.4120014  76.0129992  49.9029978  50.1310014
  75.2909992  51.2239978  50.2930014  75.3081917  50.3567943  50.3574861
  73.6659992  53.1589978  52.7190014  73.0179992  53.4839978  53.3440014
  73.1479992  52.7179978  52.0450014  73.5074196  53.1438651  52.7134152
  75.6889992  47.3969978  41.8550014  75.1669992  47.7529978  41.1370014
  75.6559992  48.0719978  42.5340014  75.6130129  47.5369598  41.8483355
  74.0379992  44.6359978  40.4060014  74.1339992  45.3029978  39.7260014
  73.8979992  43.8209978  39.9250014  74.0322040  44.6170671  40.2478378
  73.2069992  46.0169978  46.0270014  73.0569992  45.0719978  46.0070014
  72.8529992  46.2979978  46.8710014  73.1386351  45.9256644  46.1383220
  58.2419992  48.0949978  50.0380014  58.4269992  48.0129978  49.1020014
  59.0919992  47.9709978  50.4610014  58.3820928  48.0670463  49.9672893
  74.0629992  47.9869978  55.6660014  74.6459992  47.2519978  55.8580014
  74.6269992  48.7589978  55.7130014  74.2189781  47.9908145  55.6986164
  75.5599992  45.8899978  56.3510014  74.6969992  45.5109978  56.1850014
  76.1639992  45.1509978  56.2760014  75.5236085  45.7383223  56.3181695
  73.2849992  42.0439978  39.5240014  73.8959992  41.6729978  40.1610014
  72.4479992  41.6229978  39.7200014  73.2554947  41.9362756  39.6377252
  72.9179992  43.5989978  44.4900014  73.1969992  42.6919978  44.6140014
  73.6769992  44.0329978  44.1010014  73.0588619  43.5334502  44.4543795
  73.5289992  44.1809978  49.9260014  74.4619992  44.3929978  49.8910014
  73.2939992  44.2819978  50.8480014  73.6249517  44.2236833  50.0459130
  73.5589992  44.9179978  52.7020014  72.7159992  45.1859978  53.0680014
  74.0009992  45.7399978  52.4910014  73.5034138  45.0658273  52.7235518
  57.8399992  43.3649978  56.1780014  58.7589992  43.2429978  56.4150014
  57.3899992  42.6149978  56.5680014  57.9050087  43.2469608  56.2631410
  75.8419992  38.8979978  58.0550014  76.1909992  38.2439978  57.4500014
  75.9889992  39.7349978  57.6150014  75.9096824  38.9216024  57.9126304
  73.5309992  40.8619978  44.5380014  73.7129992  40.4129978  45.3630014
  72.9309992  40.2779978  44.0740014  73.4748187  40.7215552  44.5882739
  59.0609992  41.6779978  49.0700014  59.5059992  40.8859978  49.3720014
  59.5269992  42.3939978  49.5000014  59.1849718  41.6664534  49.1695265
  57.3649992  44.6769978  50.1390014  57.8569992  44.4559978  49.3480014
  57.7269992  45.5169978  50.4200014  57.4812923  44.7603468  50.0687407
  75.3609992  41.0069978  56.4040014  74.4439992  41.2779978  56.3690014
  75.4839992  40.4719978  55.6200014  75.2519672  40.9717885  56.2931862
  75.3979992  40.9299978  41.0660014  75.8099992  40.2089978  40.5910014
  76.0789992  41.5989978  41.1240014  75.5465536  40.9217766  41.0088024
  57.6789992  40.9349978  44.1930014  56.7539992  41.1429978  44.0640014
  58.1329992  41.4189978  43.5030014  57.6136298  41.0289299  44.0820451
  72.4489992  55.9189978  46.1390014  73.1019992  55.5709978  45.5310014
  72.9599992  56.4069978  46.7850014  72.6072777  55.9373815  46.1432047
  57.6419992  39.6729978  52.5370014  56.9769992  39.4269978  53.1800014
  57.1989992  40.2949978  51.9600014  57.4911168  39.7234214  52.5469848
  59.8339992  52.8479978  56.6820014  59.0129992  53.0229978  56.2210014
  59.5819992  52.7749978  57.6020014  59.6875594  52.8620717  56.7433611
  62.7879992  53.8219978  52.9400014  62.3639992  54.6319978  52.6580014
  63.6929992  53.9079978  52.6380014  62.8522138  53.9444160  52.8606415
  69.4449992  56.5069978  55.1440014  70.1219992  55.8739978  54.9040014
  69.7659992  56.9079978  55.9510014  69.5811323  56.4745691  55.2203158
  74.3619992  39.0969978  54.2230014  73.5489992  39.4219978  53.8360014
  74.5949992  38.3359978  53.6900014  74.2821347  39.0386880  54.0979841
  60.1899992  57.0789978  52.9880014  59.4699992  57.5189978  52.5370014
  59.8249992  56.8279978  53.8360014  60.0419643  57.1053369  53.0409129
  62.6569992  56.6789978  52.0180014  61.7929992  56.7509978  52.4220014
  62.6019992  57.2259978  51.2340014  62.5311942  56.7627849  51.9674000
  67.3679992  56.5669978  51.1930014  66.9109992  57.0959978  50.5390014
  67.5309992  57.1699978  51.9180014  67.3274960  56.7209280  51.2015274
  69.6959992  55.4449978  52.1380014  68.7909992  55.6099978  51.8720014
  70.1239992  56.2979978  52.0720014  69.6301537  55.5829134  52.0927095
  72.2999992  57.0149978  52.4330014  72.1179992  57.9309978  52.2220014
  72.4769992  56.6039978  51.5860014  72.2990030  57.0848273  52.2897166
  59.6049992  55.7019978  49.8980014  59.5869992  55.2759978  50.7550014
  60.4099992  55.3829978  49.4890014  59.7112875  55.6006435  49.9599515
  61.7459992  54.4119978  48.5530014  61.5269992  53.4949978  48.7230014
  62.5699992  54.5519978  49.0190014  61.8274702  54.3055511  48.6392527
  64.2829992  54.8819978  49.4020014  64.4959992  53.9939978  49.1150014
  64.3479992  54.8469978  50.3560014  64.3209149  54.7558326  49.4917369
  67.7919992  40.5459978  48.5460014  67.1179992  39.9159978  48.8020014
  68.3559992  40.0619978  47.9430014  67.7760384  40.3943708  48.4995020
  72.9349992  38.6529978  48.6590014  73.5379992  39.2009978  48.1570014
  72.0649992  38.9719978  48.4180014  72.8999157  38.7710373  48.5577910
  74.6619992  39.7919978  46.9920014  75.2729992  39.2779978  46.4650014
  75.0439992  40.6689978  47.0150014  74.7973305  39.8402050  46.9229418
  60.1189992  39.1799978  46.3680014  59.3419992  38.9449978  45.8610014
  60.6489992  38.3829978  46.3770014  60.0843451  39.0401268  46.2998627
  58.9549992  38.9779978  42.1720014  59.3939992  39.5889978  41.5800014
  58.3209992  39.5159978  42.6460014  58.9293859  39.1344064  42.1550305
  64.6979992  39.1059978  46.1810014  65.5719992  39.4949978  46.1520014
  64.5619992  38.8909978  47.1040014  64.7991953  39.1301643  46.3017617
  70.2549992  39.1359978  47.8310014  70.3309992  39.2319978  46.8810014
  69.9799992  38.2289978  47.9590014  70.2281871  39.0264146  47.7183944
  71.6079992  39.1619978  43.5230014  70.9049992  39.7769978  43.3130014
  71.1629992  38.3249978  43.6540014  71.4516550  39.1329668  43.5119837
  58.8559992  54.9259978  43.0690014  58.1709992  54.8879978  42.4020014
  58.8599992  55.8389978  43.3570014  58.7627621  55.0441924  43.0166126
  60.8159992  40.8939978  40.6140014  61.3069992  40.2639978  40.0870014
  61.4389992  41.1899978  41.2770014  60.9675304  40.8477376  40.6314940
  65.8419992  41.1869978  43.0710014  66.0199992  40.5399978  43.7540014
  65.7879992  42.0209978  43.5380014  65.8590678  41.2111604  43.2276301
  67.7199992  56.1349978  41.4670014  68.5859992  56.5019978  41.2890014
  67.4739992  55.6959978  40.6530014  67.8052097  56.1258525  41.3326019
  74.4289992  55.6979978  44.1460014  74.2349992  54.9499978  43.5810014
  74.3899992  56.4559978  43.5630014  74.3971645  55.6980786  43.9898148
  60.0759992  39.6939978  55.8860014  59.7099992  38.9279978  56.3280014
  60.9889992  39.7229978  56.1720014  60.1493172  39.5930324  55.9851890
  62.0489992  39.0439978  57.4210014  62.9479992  38.7699978  57.2370014
  61.6629992  38.3019978  57.8860014  62.1197307  38.9062196  57.4587098
  60.6739992  55.8459978  40.0940014  60.4059992  56.1319978  40.9680014
  61.4449992  55.2999978  40.2470014  60.7415927  55.8112779  40.2341205
  70.4709992  38.3769978  57.6040014  70.5469992  37.9509978  58.4570014
  71.3639992  38.3899978  57.2610014  70.6022303  38.3203493  57.6745497
  73.6469992  54.4499978  56.2960014  72.8649992  54.2629978  55.7760014
  73.5749992  55.3789978  56.5130014  73.5301924  54.5500637  56.2541602
  88.0529992  48.3359978  46.3270014  88.1419992  49.2799978  46.1950014
  87.4149992  48.0609978  45.6690014  87.9789062  48.4279812  46.2199641
  86.9859992  47.5909978  49.7460014  86.9479992  46.9449978  50.4510014
  86.6639992  47.1239978  48.9750014  86.9372679  47.4394276  49.7382921
  79.3539992  47.2049978  51.3390014  79.3959992  46.5799978  52.0620014
  80.0569992  47.8289978  51.5210014  79.4547345  47.2037873  51.4625274
  90.6919992  50.5299978  48.0470014  90.2509992  49.8099978  48.4980014
  90.6789992  51.2509978  48.6770014  90.6299215  50.5289291  48.1938105
  76.8879992  45.3149978  45.2660014  76.4399992  46.1609978  45.2480014
  76.3269992  44.7359978  44.7510014  76.7508546  45.3523993  45.1938891
  77.5979992  47.4769978  47.3920014  77.8119992  46.7069978  47.9200014
  78.3359992  47.5669978  46.7890014  77.7270200  47.3838586  47.3827035
  87.8039992  55.6339978  48.2590014  88.4229992  54.9579978  47.9860014
  87.5949992  55.4159978  49.1680014  87.8606056  55.5118869  48.3443967
  85.3749992  50.0229978  50.1520014  85.6789992  49.3369978  49.5570014
  86.0969992  50.1419978  50.7700014  85.5141240  49.9452314  50.1540959
  94.0379992  41.6249978  51.0120014  94.0879992  42.2349978  51.7480014
  94.4639992  42.0859978  50.2890014  94.1024108  41.7707709  51.0150112
  88.5159992  44.4169978  50.4790014  88.6589992  43.4709978  50.4990014
  88.4099992  44.6239978  49.5510014  88.5212403  44.3154797  50.3562239
  81.6709992  42.5189978  47.7520014  81.7139992  43.3789978  47.3330014
  81.2129992  41.9669978  47.1180014  81.6149871  42.5619245  47.6090761
  89.3929992  42.6499978  46.1530014  90.0399992  42.3209978  46.7770014
  89.9029992  43.1669978  45.5300014  89.5504351  42.6749067  46.1541037
  78.2909992  44.9159978  48.5140014  78.9449992  44.3659978  48.9460014
  78.3149992  44.6419978  47.5970014  78.3837199  44.8037167  48.4491668
  83.4479992  46.4659978  47.7290014  84.0639992  45.9389978  48.2380014
  82.8609992  45.8259978  47.3250014  83.4530154  46.3073954  47.7440945
  94.4299992  43.1029978  53.2480014  93.7409992  43.7609978  53.1530014
  94.4449992  42.9049978  54.1850014  94.3377756  43.1662603  53.3615812
  80.4809992  41.4369978  51.8260014  80.2619992  41.9669978  51.0590014
  79.8129992  41.6629978  52.4730014  80.3606975  41.5400967  51.8085140
  87.8499992  50.9369978  45.3700014  87.5549992  50.6139978  44.5180014
  87.5259992  51.8369978  45.4110014  87.7658460  51.0144464  45.2589714
  83.0499992  49.1119978  52.1130014  82.3099992  49.7109978  52.2170014
  83.7639992  49.6659978  51.7980014  83.0453500  49.2687829  52.0846371
  91.1569992  41.9409978  48.1330014  90.9419992  41.1749978  48.6660014
  91.8129992  42.4129978  48.6460014  91.2162673  41.9000728  48.2751990
  80.0749992  43.3289978  49.7780014  80.6889992  43.9619978  50.1510014
  80.5869992  42.8569978  49.1220014  80.2281962  43.3517249  49.7402935
  77.5789992  50.7479978  43.6820014  77.3069992  50.9769978  42.7940014
  77.6239992  51.5849978  44.1430014  77.5478097  50.8926163  43.6226683
  91.2039992  52.3689978  50.3950014  90.2619992  52.4279978  50.5570014
  91.4799992  53.2749978  50.2580014  91.1125865  52.4995288  50.3986192
  91.5039992  40.6559978  51.8120014  90.7679992  41.2659978  51.7750014
  92.1879992  41.0709978  51.2860014  91.4955367  40.7957551  51.7358174
  84.5079992  38.7419978  49.2780014  84.3899992  37.7939978  49.2240014
  83.6529992  39.0749978  49.5510014  84.3762805  38.6572202  49.3075079
  89.4559992  54.1499978  47.0200014  89.8809992  53.4429978  46.5350014
  89.7729992  54.9519978  46.6030014  89.5570266  54.1615190  46.8972479
  90.6159992  52.0509978  45.5290014  90.3579992  51.3609978  44.9170014
  90.6869992  51.6079978  46.3740014  90.5903050  51.8966814  45.5595621
  92.3019992  50.6179978  54.0060014  92.4409992  50.0259978  53.2670014
  92.4689992  51.4909978  53.6500014  92.3436193  50.6548896  53.8566211
  86.7739992  47.5799978  43.7790014  86.0629992  48.1149978  43.4270014
  87.4649992  47.6349978  43.1190014  86.7700751  47.6606777  43.6415858
  86.8279992  46.0369978  40.8170014  87.5289992  46.0599978  41.4690014
  87.1299992  45.4089978  40.1610014  86.9648202  45.9552212  40.8175609
  94.1429992  46.9579978  52.0720014  93.4909992  47.6519978  52.1610014
  94.6089992  47.1679978  51.2620014  94.1165937  47.0815019  51.9747533
  90.1799992  47.7889978  44.7300014  89.4479992  48.0179978  45.3040014
  90.6269992  47.0759978  45.1850014  90.1403963  47.7238729  44.8699945
  90.0769992  45.9639978  53.7980014  90.1569992  46.7269978  54.3700014
  89.4759992  46.2429978  53.1080014  90.0066547  46.1062457  53.7830047
  81.8249992  48.4199978  46.6130014  81.4949992  48.0489978  45.7950014
  82.4139992  47.7489978  46.9600014  81.8593970  48.2786063  46.5479404
  83.1919992  51.8479978  49.2940014  83.0969992  51.2689978  48.5380014
  83.9209992  51.4769978  49.7900014  83.2776011  51.7185561  49.2576028
  82.1919992  47.1879978  50.2460014  82.7569992  47.3099978  49.4840014
  82.5109992  47.8259978  50.8850014  82.3124166  47.2908791  50.2280348
  88.5009992  52.6919978  50.9800014  88.2609992  53.3539978  51.6280014
  88.3029992  51.8569978  51.4050014  88.4413826  52.6698115  51.1261566
  83.0719992  51.5879978  54.9640014  82.7609992  52.3699978  55.4190014
  82.4219992  51.4349978  54.2780014  82.9415538  51.6744087  54.9335898
  89.0509992  46.9519978  42.4160014  89.6299992  47.1019978  43.1620014
  89.4649992  47.4219978  41.6920014  89.1863358  47.0360954  42.4203953
  79.9919992  47.7859978  54.1920014  80.0619992  48.4369978  54.8910014
  79.1009992  47.8889978  53.8570014  79.8811690  47.8889249  54.2423043
  86.7769992  53.6879978  45.8510014  87.2509992  53.9839978  46.6280014
  86.2139992  54.4269978  45.6180014  86.7657890  53.8283036  45.9258101
  92.7499992  38.7019978  42.2290014  91.8499992  38.8409978  42.5240014
  93.0019992  39.5329978  41.8270014  92.6608683  38.8334055  42.2150232
  80.8159992  47.4889978  44.2020014  80.5239992  48.2569978  43.7110014
  80.1409992  46.8299978  44.0390014  80.6848497  47.5049745  44.1128260
  93.9389992  53.0679978  40.6050014  94.0119992  54.0069978  40.7750014
  94.8439992  52.7629978  40.5490014  94.0714170  53.1553282  40.6207063
  76.9089992  49.8519978  53.0170014  76.4069992  49.8239978  52.2020014
  76.9139992  48.9469978  53.3270014  76.8409832  49.7257486  52.9474121
  94.8569992  53.2989978  55.5840014  94.8069992  52.3429978  55.5460014
  94.0299992  53.5659978  55.9850014  94.7383831  53.2044680  55.6330121
  85.8349992  52.8729978  54.4600014  85.9229992  53.6989978  54.9350014
  84.9719992  52.5429978  54.7090014  85.7303357  52.9415468  54.5587653
  86.2499992  56.6449978  44.2660014  86.1739992  56.5239978  43.3190014
  86.2819992  57.5939978  44.3840014  86.2439380  56.7567677  44.1525181
  89.3509992  55.7989978  41.2680014  89.7259992  55.0549978  40.7970014
  89.3559992  55.5289978  42.1860014  89.4030098  55.6606392  41.3276629
  89.0199992  55.7249978  44.0170014  88.0849992  55.8249978  44.1960014
  89.2999992  55.0149978  44.5960014  88.9299471  55.6427933  44.1196695
  92.0089992  44.7919978  56.0640014  91.6009992  45.2719978  55.3430014
  92.0489992  43.8859978  55.7560014  91.9586221  44.7352449  55.9238267
  79.1579992  51.1759978  54.0600014  79.3739992  50.8139978  54.9200014
  78.3019992  50.8009978  53.8510014  79.0718810  51.0758837  54.1492680
  81.7759992  39.6459978  50.0560014  80.9149992  39.5589978  49.6480014
  81.7539992  40.5019978  50.4840014  81.6550491  39.7498003  50.0579582
  86.4389992  39.3679978  53.4310014  86.8589992  38.9529978  54.1840014
  85.5059992  39.1889978  53.5480014  86.3703736  39.2869910  53.5498968
  89.7659992  43.1229978  54.2840014  89.2519992  42.9979978  55.0820014
  89.6099992  44.0359978  54.0400014  89.6746967  43.2292123  54.3600937
  90.5279992  47.9839978  40.0450014  90.5699992  47.7619978  39.1150014
  91.3769992  48.3829978  40.2350014  90.6485253  48.0075498  39.9433822
  86.1009992  41.8599978  40.7160014  85.8469992  41.8789978  41.6380014
  85.8439992  40.9889978  40.4140014  86.0314508  41.7448280  40.8014803
  81.8669992  44.6109978  51.1510014  81.2259992  44.5709978  51.8600014
  81.9049992  45.5379978  50.9130014  81.7843010  44.7307668  51.2159946
  81.8639992  44.8319978  46.0630014  80.9719992  44.4919978  46.0040014
  82.3149992  44.4549978  45.3070014  81.8027642  44.7344910  45.9527726
  87.3999992  45.2479978  44.8800014  86.9909992  46.0629978  44.5880014
  88.1199992  45.1079978  44.2660014  87.4414439  45.3405372  44.7570115
  86.5019992  45.4239978  56.3680014  85.9389992  44.7189978  56.6890014
  87.3279992  45.3029978  56.8360014  86.5366674  45.3112165  56.4751751
  88.4049992  44.6939978  47.6940014  88.2089992  45.2999978  46.9790014
  88.5859992  43.8609978  47.2600014  88.4026584  44.6642513  47.5374212
  79.6169992  44.9319978  53.0180014  79.5789992  45.3319978  53.8870014
  79.1269992  44.1149978  53.1080014  79.5455330  44.8762674  53.1491289
  82.9829992  42.3059978  39.8170014  82.5519992  41.8609978  40.5460014
  82.2649992  42.6769978  39.3040014  82.8269176  42.2952051  39.8474930
  76.2259992  42.0479978  46.8690014  76.8559992  42.0189978  47.5880014
  76.6749992  41.6229978  46.1380014  76.3730835  41.9865660  46.8687659
  77.4999992  42.7939978  42.2930014  77.9739992  43.3849978  41.7080014
  76.7819992  43.3239978  42.6400014  77.4678640  42.9465511  42.2597969
  87.6689992  46.3319978  52.3650014  87.9919992  45.7009978  51.7220014
  87.2279992  45.7979978  53.0260014  87.6536379  46.1733468  52.3662582
  84.4459992  42.2599978  47.1490014  83.5349992  42.3169978  47.4380014
  84.9509992  42.1999978  47.9600014  84.3896873  42.2596826  47.2981207
  79.2739992  43.8889978  45.9760014  78.3849992  43.9879978  45.6360014
  79.5709992  43.0469978  45.6300014  79.1924177  43.7887687  45.8826940
  82.9269992  43.8889978  43.6330014  83.8589992  44.0179978  43.8110014
  82.7119992  44.5579978  42.9830014  83.0254472  43.9970806  43.5694891
  88.8509992  41.4949978  50.4140014  88.1739992  41.6259978  51.0770014
  88.3659992  41.3399978  49.6030014  88.6927405  41.4919947  50.3952170
  81.6009992  45.0829978  41.1990014  81.0589992  44.7039978  40.5080014
  82.4349992  45.2779978  40.7710014  81.6394390  45.0574079  41.0464392
  92.1389992  57.1659978  56.6900014  92.3379992  57.5899978  55.8560014
  92.7939992  57.5099978  57.2970014  92.2548522  57.2706301  56.6577852
  79.7369992  49.6399978  56.2980014  80.4689992  49.8949978  56.8600014
  78.9559992  49.8449978  56.8140014  79.7316526  49.7025450  56.4445176
  85.7659992  45.0469978  49.0360014  86.3299992  44.5009978  48.4890014
  85.6179992  44.5259978  49.8250014  85.8233037  44.9016787  49.0677229
  80.7679992  41.1839978  45.4550014  80.4509992  40.2809978  45.4190014
  81.5489992  41.1859978  44.9020014  80.8302431  41.0607797  45.3753102
  84.3919992  43.4359978  51.4500014  83.5569992  43.8899978  51.5610014
  84.9159992  43.7119978  52.2020014  84.3486072  43.5353948  51.5668136
  84.9369992  49.6489978  43.1350014  84.1919992  49.1409978  42.8130014
  84.8019992  49.6979978  44.0810014  84.8168963  49.5861731  43.2188826
  92.0869992  48.7819978  51.9220014  92.7279992  49.2379978  51.3780014
  91.2559992  48.8949978  51.4590014  92.0625287  48.8596921  51.7849887
  88.8339992  42.4629978  41.3340014  87.8959992  42.5739978  41.1830014
  89.1319992  43.3189978  41.6410014  88.7456318  42.5940158  41.3548145
  86.4559992  49.8329978  54.3720014  86.1099992  49.4509978  55.1790014
  86.2559992  50.7659978  54.4430014  86.3815987  49.9069002  54.4920461
  89.5529992  44.3299978  42.9950014  90.4449992  44.1919978  43.3140014
  89.6089992  45.1209978  42.4580014  89.6827325  44.4179918  42.9661217
  80.0609992  48.9439978  48.9050014  80.8059992  48.9409978  48.3030014
  80.1389992  48.1199978  49.3860014  80.1733365  48.8322384  48.8877430
  87.0619992  51.1069978  42.1600014  86.7669992  51.9339978  42.5420014
  86.3589992  50.4879978  42.3570014  86.9266379  51.1364171  42.2388654
  77.0689992  47.4039978  54.2200014  77.2919992  46.9859978  55.0510014
  76.4669992  46.7919978  53.7970014  77.0181513  47.2639606  54.2766740
  84.0859992  46.9209978  56.4330014  83.7899992  46.7559978  55.5370014
  85.0169992  46.7009978  56.4220014  84.1714401  46.8686879  56.3090206
  88.7059992  52.2949978  54.3220014  87.8059992  52.4779978  54.0550014
  88.7399992  52.5539978  55.2430014  88.5873748  52.3550554  54.4099164
  94.4379992  44.5389978  42.6900014  93.8829992  44.1429978  42.0170014
  94.5379992  45.4499978  42.4120014  94.3756816  44.6079505  42.5605033
  94.4009992  50.3399978  55.5270014  93.5499992  50.5779978  55.1590014
  94.9909992  50.3229978  54.7740014  94.3643812  50.3702524  55.3748453
  92.7329992  53.3249978  43.1550014  92.3599992  52.4999978  43.4640014
  93.0099992  53.1419978  42.2570014  92.7193463  53.1872569  43.0759525
  89.8929992  48.1329978  50.1760014  88.9649992  47.9019978  50.1490014
  90.3439992  47.3559978  49.8460014  89.8268165  47.9962774  50.1276790
  82.4359992  52.4619978  46.3090014  82.9639992  53.2349978  46.1090014
  81.5559992  52.6859978  46.0070014  82.3893435  52.5982700  46.2407310
  78.1909992  47.3239978  40.8960014  78.8069992  47.9509978  41.2760014
  77.3289992  47.6399978  41.1680014  78.1587678  47.4524412  40.9847209
  83.8639992  50.1249978  45.8850014  83.6229992  51.0499978  45.9270014
  83.1229992  49.6659978  46.2820014  83.7309206  50.1895915  45.9443769
  82.5469992  55.1459978  45.4310014  81.5969992  55.2519978  45.4820014
  82.8989992  55.9669978  45.7750014  82.4645472  55.2714923  45.4844852
  87.9219992  50.3729978  51.9010014  87.4969992  50.1449978  52.7270014
  88.5029992  49.6339978  51.7190014  87.9423395  50.2419545  51.9894414
  90.1249992  51.3019978  40.9750014  90.4789992  50.9219978  41.7790014
  89.1769992  51.2079978  41.0620014  90.0452298  51.2372452  41.0968687
  90.5809992  54.9249978  54.3700014  89.9789992  54.3689978  53.8750014
  90.8619992  55.5919978  53.7440014  90.5365757  54.9390744  54.2175675
  94.6289992  55.7809978  41.1760014  95.3729992  56.3669978  41.0360014
  93.9349992  56.3499978  41.5090014  94.6369809  55.9380818  41.2018590
  78.7029992  42.1579978  53.7780014  77.8109992  42.4959978  53.7100014
  78.6049992  41.3019978  54.1960014  78.5674475  42.0886543  53.8251704
  90.9909992  49.9739978  43.2020014  90.7139992  49.2459978  43.7580014
  91.9189992  50.0929978  43.4070014  91.0784499  49.8904213  43.3058044
  84.2159992  52.4139978  39.4220014  84.4549992  51.6649978  38.8750014
  83.9469992  52.0259978  40.2550014  84.2123233  52.2591853  39.4597809
  83.1529992  51.9839978  41.8780014  83.2999992  51.4639978  42.6680014
  83.1499992  52.8909978  42.1850014  83.1727102  52.0353953  42.0275925
  79.6059992  49.2359978  42.3890014  78.9199992  49.5889978  42.9560014
  80.1289992  49.9989978  42.1420014  79.5828402  49.3873901  42.4331801
  87.4379992  41.8989978  52.6680014  88.1369992  41.9729978  53.3180014
  87.0569992  41.0339978  52.8220014  87.4822097  41.7922389  52.7777997
  88.2219992  41.5509978  43.7650014  88.4419992  42.0219978  42.9610014
  88.7809992  41.9449978  44.4350014  88.3276731  41.6687287  43.7455033
  85.8909992  53.6809978  42.6280014  85.0739992  54.1779978  42.6800014
  86.4199992  54.1569978  41.9870014  85.8508125  53.8131989  42.5485306
  85.4219992  43.2789978  44.6000014  86.2339992  43.7829978  44.6460014
  85.1779992  43.1339978  45.5140014  85.5001467  43.3283749  44.7298575
  85.9579992  44.2649978  53.7840014  86.0769992  44.8389978  54.5410014
  86.6129992  43.5769978  53.8990014  86.0628684  44.2505194  53.9031674
  86.3059992  40.3599978  45.5380014  85.9589992  40.9769978  46.1820014
  86.9649992  40.8609978  45.0560014  86.3475090  40.5121575  45.5610681
  83.2289992  54.7249978  42.6090014  83.3899992  55.5249978  42.1090014
  83.0319992  55.0319978  43.4940014  83.2243906  54.8758678  42.6602333
  81.9639992  41.4229978  42.2250014  81.8799992  42.3109978  42.5720014
  82.8539992  41.1579978  42.4570014  82.0728163  41.5087179  42.3038596
  92.1619992  42.1719978  54.6190014  91.2459992  42.4339978  54.5320014
  92.4979992  42.1689978  53.7230014  92.0818499  42.2075163  54.4858766
  90.7649992  45.9219978  48.7150014  89.9669992  45.5069978  48.3870014
  91.2099992  45.2319978  49.2060014  90.7159684  45.7718628  48.7365227
  80.2219992  51.8499978  41.2850014  80.8139992  52.5499978  41.5620014
  80.6809992  51.4169978  40.5660014  80.3651652  51.8872675  41.2256533
  78.5379992  44.5149978  40.4010014  78.4929992  45.4539978  40.5800014
  77.6499992  44.2789978  40.1320014  78.4118166  44.6116687  40.3891524
  91.8509992  55.1779978  50.3370014  91.6949992  55.8569978  49.6800014
  92.7839992  55.2499978  50.5400014  91.9557387  55.2806390  50.2745342
  79.3459992  39.2959978  49.0750014  79.1169992  39.3549978  48.1470014
  78.9039992  38.5049978  49.3810014  79.2548801  39.1970540  48.9894729
  78.2769992  53.2369978  45.2350014  77.4439992  53.7089978  45.2620014
  78.8219992  53.7469978  44.6360014  78.2367857  53.3704791  45.1577142
  82.1619992  54.7689978  58.1850014  82.9299992  54.3099978  58.5260014
  82.1409992  54.5429978  57.2550014  82.2642135  54.6756668  58.1059491
  86.2539992  54.2769978  39.5610014  85.6099992  53.6459978  39.8820014
  87.0159992  53.7459978  39.3290014  86.2688058  54.1187902  39.5736038
  88.7389992  53.1489978  56.9140014  88.3879992  52.2919978  57.1580014
  89.4649992  53.2909978  57.5210014  88.7891895  53.0511351  57.0293770
  90.8589992  54.0939978  39.7940014  91.1419992  53.2989978  40.2470014
  91.5979992  54.3269978  39.2330014  90.9977096  54.0167049  39.7801104
  77.4719992  49.6599978  57.5190014  77.6159992  48.7579978  57.2330014
  76.6999992  49.9459978  57.0320014  77.3872733  49.5751798  57.4139532
  81.8129992  50.0029978  39.6520014  81.8779992  49.2089978  40.1820014
  82.4659992  49.8849978  38.9620014  81.9101605  49.8783430  39.6312997
  84.1269992  49.6289978  56.9520014  83.7989992  49.8999978  56.0950014
  84.2789992  48.6879978  56.8640014  84.1026412  49.5389046  56.8227822
  87.1659992  51.0499978  39.3880014  86.8969992  51.2309978  40.2880014
  86.9589992  50.1249978  39.2560014  87.1011191  50.9497119  39.4935524
  89.8619992  49.5449978  54.3350014  90.6069992  50.1339978  54.2160014
  89.1049992  50.1269978  54.3990014  89.8615470  49.7042128  54.3273799
  78.3049992  46.8599978  56.9390014  78.7129992  46.0029978  56.8180014
  78.0439992  46.8739978  57.8600014  78.3256016  46.7445119  57.0469192
  82.9629992  47.9759978  41.9580014  82.5029992  47.4919978  42.6430014
  83.2179992  47.3069978  41.3220014  82.9344856  47.8193669  41.9658397
  82.2519992  45.8689978  54.3140014  81.6329992  46.5429978  54.5940014
  82.5959992  46.1899978  53.4800014  82.2137123  46.0046887  54.2396388
  84.0339992  46.2189978  40.2200014  83.8529992  46.0639978  39.2930014
  84.9839992  46.3269978  40.2650014  84.1376566  46.2123669  40.0990929
  87.2709992  48.3399978  57.5910014  88.2249992  48.4239978  57.5640014
  87.1109992  47.6279978  58.2110014  87.3797182  48.2552842  57.6710733
  93.4239992  48.5729978  39.6660014  93.1499992  48.1489978  38.8530014
  93.4629992  49.5049978  39.4490014  93.3917716  48.6408827  39.5254286
  82.5909992  43.2239978  55.3960014  82.7409992  42.4949978  54.7940014
  82.5929992  44.0009978  54.8370014  82.6117967  43.2292708  55.2380541
  83.0039992  41.5929978  52.8890014  83.5389992  42.0449978  52.2370014
  82.1509992  41.4849978  52.4660014  82.9620374  41.6402665  52.7426710
  84.5849992  47.0329978  53.1280014  85.3359992  46.8769978  52.5550014
  84.2459992  47.8849978  52.8530014  84.6419587  47.1268138  53.0124078
  89.0009992  44.8479978  58.1570014  89.1929992  43.9169978  58.0450014
  89.8589992  45.2729978  58.1460014  89.1432182  44.7780070  58.1401862
  90.3179992  47.6369978  56.2340014  90.0359992  48.3459978  55.6560014
  91.2599992  47.5639978  56.0830014  90.4067921  47.7242193  56.1344225
  81.0699992  44.4219978  57.3070014  80.3019992  43.8889978  57.0970014
  81.7479992  44.1119978  56.7080014  81.0567235  44.3071754  57.1972413
  83.8089992  39.0499978  53.3200014  83.7109992  39.9959978  53.2150014
  83.0669992  38.6769978  52.8440014  83.6952534  39.1291773  53.2412600
  85.0729992  43.3709978  56.8840014  84.8379992  43.1519978  57.7850014
  84.2899992  43.1639978  56.3740014  84.9349095  43.3129892  56.9385353
  87.7889992  42.4989978  55.9590014  86.8409992  42.5309978  56.0910014
  88.1009992  41.8729978  56.6130014  87.7015293  42.4187923  56.0654148
  89.4229992  41.1329978  57.9640014  89.3259992  40.1809978  57.9590014
  89.1009992  41.4009978  58.8250014  89.3662468  41.0390884  58.0796210
  79.2499992  42.3419978  57.0120014  79.4619992  41.6359978  56.4020014
  79.1389992  41.9049978  57.8560014  79.2640269  42.1861921  57.0425873
  84.0309992  38.3439978  55.9910014  84.7429992  37.7039978  55.9770014
  83.9299992  38.6099978  55.0780014  84.1147387  38.2924330  55.8655563
  84.3849992  40.0259978  58.0450014  84.2529992  39.5509978  57.2250014
  83.7849992  40.7709978  57.9900014  84.2859070  40.0615789  57.9253251
  83.9309992  56.9089978  41.2210014  84.8639992  57.0669978  41.3650014
  83.6669992  57.5849978  40.5960014  84.0229911  57.0219373  41.1562722
  77.4989992  51.5459978  40.7040014  78.4129992  51.6249978  40.9770014
  77.5069992  50.8589978  40.0380014  77.6250655  51.4639205  40.6512917
  94.5669992  55.8289978  50.5670014  94.5449992  56.0139978  51.5060014
  95.2569992  56.3969978  50.2260014  94.6573439  55.9311887  50.6494791
  94.1299992  55.3959978  53.4880014  93.6429992  54.6609978  53.1170014
  94.6789992  55.0019978  54.1660014  94.1375247  55.2421057  53.5288461
  92.5809992  51.1859978  58.1270014  91.7149992  51.0809978  58.5210014
  92.9569992  51.9439978  58.5730014  92.5133401  51.2741708  58.2412620
  93.8819992  49.4419978  43.6410014  94.7319992  49.8629978  43.7680014
  93.8869992  48.7019978  44.2480014  93.9991143  49.3996094  43.7404750
  94.2759992  47.4959978  45.4640014  93.5499992  47.0159978  45.8620014
  94.8579992  47.7009978  46.1970014  94.2552730  47.4580184  45.6174149
  94.0349992  50.2809978  50.4120014  94.8689992  49.9029978  50.1310014
  94.1469992  51.2239978  50.2930014  94.1641917  50.3567943  50.3574861
  92.5219992  53.1589978  52.7190014  91.8739992  53.4839978  53.3440014
  92.0039992  52.7179978  52.0450014  92.3634196  53.1438651  52.7134152
  94.5449992  47.3969978  41.8550014  94.0229992  47.7529978  41.1370014
  94.5119992  48.0719978  42.5340014  94.4690129  47.5369598  41.8483355
  92.8939992  44.6359978  40.4060014  92.9899992  45.3029978  39.7260014
  92.7539992  43.8209978  39.9250014  92.8882040  44.6170671  40.2478378
  92.0629992  46.0169978  46.0270014  91.9129992  45.0719978  46.0070014
  91.7089992  46.2979978  46.8710014  91.9946351  45.9256644  46.1383220
  77.0979992  48.0949978  50.0380014  77.2829992  48.0129978  49.1020014
  77.9479992  47.9709978  50.4610014  77.2380928  48.0670463  49.9672893
  92.9189992  47.9869978  55.6660014  93.5019992  47.2519978  55.8580014
  93.4829992  48.7589978  55.7130014  93.0749781  47.9908145  55.6986164
  94.4159992  45.8899978  56.3510014  93.5529992  45.5109978  56.1850014
  95.0199992  45.1509978  56.2760014  94.3796085  45.7383223  56.3181694
  92.1409992  42.0439978  39.5240014  92.7519992  41.6729978  40.1610014
  91.3039992  41.6229978  39.7200014  92.1114947  41.9362756  39.6377252
  91.7739992  43.5989978  44.4900014  92.0529992  42.6919978  44.6140014
  92.5329992  44.0329978  44.1010014  91.9148619  43.5334502  44.4543795
  92.3849992  44.1809978  49.9260014  93.3179992  44.3929978  49.8910014
  92.1499992  44.2819978  50.8480014  92.4809517  44.2236833  50.0459130
  92.4149992  44.9179978  52.7020014  91.5719992  45.1859978  53.0680014
  92.8569992  45.7399978  52.4910014  92.3594138  45.0658273  52.7235518
  76.6959992  43.3649978  56.1780014  77.6149992  43.2429978  56.4150014
  76.2459992  42.6149978  56.5680014  76.7610087  43.2469608  56.2631410
  94.6979992  38.8979978  58.0550014  95.0469992  38.2439978  57.4500014
  94.8449992  39.7349978  57.6150014  94.7656824  38.9216024  57.9126304
  92.3869992  40.8619978  44.5380014  92.5689992  40.4129978  45.3630014
  91.7869992  40.2779978  44.0740014  92.3308187  40.7215552  44.5882739
  77.9169992  41.6779978  49.0700014  78.3619992  40.8859978  49.3720014
  78.3829992  42.3939978  49.5000014  78.0409718  41.6664534  49.1695265
  76.2209992  44.6769978  50.1390014  76.7129992  44.4559978  49.3480014
  76.5829992  45.5169978  50.4200014  76.3372923  44.7603468  50.0687407
  94.2169992  41.0069978  56.4040014  93.2999992  41.2779978  56.3690014
  94.3399992  40.4719978  55.6200014  94.1079672  40.9717885  56.2931862
  94.2539992  40.9299978  41.0660014  94.6659992  40.2089978  40.5910014
  94.9349992  41.5989978  41.1240014  94.4025536  40.9217766  41.0088024
  76.5349992  40.9349978  44.1930014  75.6099992  41.1429978  44.0640014
  76.9889992  41.4189978  43.5030014  76.4696298  41.0289299  44.0820451
  91.3049992  55.9189978  46.1390014  91.9579992  55.5709978  45.5310014
  91.8159992  56.4069978  46.7850014  91.4632777  55.9373815  46.1432047
  76.4979992  39.6729978  52.5370014  75.8329992  39.4269978  53.1800014
  76.0549992  40.2949978  51.9600014  76.3471168  39.7234214  52.5469848
  78.6899992  52.8479978  56.6820014  77.8689992  53.0229978  56.2210014
  78.4379992  52.7749978  57.6020014  78.5435594  52.8620717  56.7433611
  85.9559992  55.2209978  55.9000014  86.1399992  54.8879978  56.7780014
  86.8019992  55.5309978  55.5780014  86.0956484  55.2172979  55.9767617
  88.3009992  56.5069978  55.1440014  88.9779992  55.8739978  54.9040014
  88.6219992  56.9079978  55.9510014  88.4371323  56.4745691  55.2203158
  93.2179992  39.0969978  54.2230014  92.4049992  39.4219978  53.8360014
  93.4509992  38.3359978  53.6900014  93.1381347  39.0386880  54.0979841
  86.2239992  56.5669978  51.1930014  85.7669992  57.0959978  50.5390014
  86.3869992  57.1699978  51.9180014  86.1834960  56.7209280  51.2015274
  88.5519992  55.4449978  52.1380014  87.6469992  55.6099978  51.8720014
  88.9799992  56.2979978  52.0720014  88.4861537  55.5829134  52.0927095
  91.1559992  57.0149978  52.4330014  90.9739992  57.9309978  52.2220014
  91.3329992  56.6039978  51.5860014  91.1550030  57.0848273  52.2897166
  86.6479992  40.5459978  48.5460014  85.9739992  39.9159978  48.8020014
  87.2119992  40.0619978  47.9430014  86.6320384  40.3943708  48.4995020
  91.7909992  38.6529978  48.6590014  92.3939992  39.2009978  48.1570014
  90.9209992  38.9719978  48.4180014  91.7559157  38.7710373  48.5577910
  93.5179992  39.7919978  46.9920014  94.1289992  39.2779978  46.4650014
  93.8999992  40.6689978  47.0150014  93.6533305  39.8402050  46.9229418
  78.9749992  39.1799978  46.3680014  78.1979992  38.9449978  45.8610014
  79.5049992  38.3829978  46.3770014  78.9403451  39.0401268  46.2998627
  77.8109992  38.9779978  42.1720014  78.2499992  39.5889978  41.5800014
  77.1769992  39.5159978  42.6460014  77.7853859  39.1344064  42.1550305
  83.5539992  39.1059978  46.1810014  84.4279992  39.4949978  46.1520014
  83.4179992  38.8909978  47.1040014  83.6551953  39.1301643  46.3017617
  89.1109992  39.1359978  47.8310014  89.1869992  39.2319978  46.8810014
  88.8359992  38.2289978  47.9590014  89.0841871  39.0264146  47.7183944
  90.4639992  39.1619978  43.5230014  89.7609992  39.7769978  43.3130014
  90.0189992  38.3249978  43.6540014  90.3076550  39.1329668  43.5119837
  77.7119992  54.9259978  43.0690014  77.0269992  54.8879978  42.4020014
  77.7159992  55.8389978  43.3570014  77.6187621  55.0441924  43.0166126
  79.6719992  40.8939978  40.6140014  80.1629992  40.2639978  40.0870014
  80.2949992  41.1899978  41.2770014  79.8235304  40.8477376  40.6314940
  84.6979992  41.1869978  43.0710014  84.8759992  40.5399978  43.7540014
  84.6439992  42.0209978  43.5380014  84.7150678  41.2111604  43.2276301
  86.5759992  56.1349978  41.4670014  87.4419992  56.5019978  41.2890014
  86.3299992  55.6959978  40.6530014  86.6612097  56.1258525  41.3326019
  93.2849992  55.6979978  44.1460014  93.0909992  54.9499978  43.5810014
  93.2459992  56.4559978  43.5630014  93.2531645  55.6980786  43.9898148
  78.9319992  39.6939978  55.8860014  78.5659992  38.9279978  56.3280014
  79.8449992  39.7229978  56.1720014  79.0053172  39.5930324  55.9851890
  80.9049992  39.0439978  57.4210014  81.8039992  38.7699978  57.2370014
  80.5189992  38.3019978  57.8860014  80.9757307  38.9062196  57.4587098
  79.5299992  55.8459978  40.0940014  79.2619992  56.1319978  40.9680014
  80.3009992  55.2999978  40.2470014  79.5975926  55.8112779  40.2341205
  89.3269992  38.3769978  57.6040014  89.4029992  37.9509978  58.4570014
  90.2199992  38.3899978  57.2610014  89.4582303  38.3203493  57.6745497
  92.5029992  54.4499978  56.2960014  91.7209992  54.2629978  55.7760014
  92.4309992  55.3789978  56.5130014  92.3861924  54.5500637  56.2541602
 106.9089992  48.3359978  46.3270014 106.9979992  49.2799978  46.1950014
 106.2709992  48.0609978  45.6690014 106.8349062  48.4279812  46.2199641
 105.8419992  47.5909978  49.7460014 105.8039992  46.9449978  50.4510014
 105.5199992  47.1239978  48.9750014 105.7932679  47.4394276  49.7382921
  98.2099992  47.2049978  51.3390014  98.2519992  46.5799978  52.0620014
  98.9129992  47.8289978  51.5210014  98.3107345  47.2037873  51.4625274
 109.5479992  50.5299978  48.0470014 109.1069992  49.8099978  48.4980014
 109.5349992  51.2509978  48.6770014 109.4859215  50.5289291  48.1938105
  99.1339992  51.6549978  49.8740014  98.7639992  50.8529978  49.5040014
 100.0749992  51.4869978  49.9200014  99.2105984  51.5224638  49.8295603
  95.7439992  45.3149978  45.2660014  95.2959992  46.1609978  45.2480014
  95.1829992  44.7359978  44.7510014  95.6068546  45.3523993  45.1938891
  96.4539992  47.4769978  47.3920014  96.6679992  46.7069978  47.9200014
  97.1919992  47.5669978  46.7890014  96.5830200  47.3838587  47.3827035
 106.6599992  55.6339978  48.2590014 107.2789992  54.9579978  47.9860014
 106.4509992  55.4159978  49.1680014 106.7166056  55.5118869  48.3443967
 104.2309992  50.0229978  50.1520014 104.5349992  49.3369978  49.5570014
 104.9529992  50.1419978  50.7700014 104.3701240  49.9452314  50.1540959
 112.8939992  41.6249978  51.0120014 112.9439992  42.2349978  51.7480014
 113.3199992  42.0859978  50.2890014 112.9584108  41.7707709  51.0150112
 107.3719992  44.4169978  50.4790014 107.5149992  43.4709978  50.4990014
 107.2659992  44.6239978  49.5510014 107.3772403  44.3154797  50.3562239
 100.5269992  42.5189978  47.7520014 100.5699992  43.3789978  47.3330014
 100.0689992  41.9669978  47.1180014 100.4709871  42.5619245  47.6090761
 108.2489992  42.6499978  46.1530014 108.8959992  42.3209978  46.7770014
 108.7589992  43.1669978  45.5300014 108.4064351  42.6749067  46.1541037
  97.1469992  44.9159978  48.5140014  97.8009992  44.3659978  48.9460014
  97.1709992  44.6419978  47.5970014  97.2397199  44.8037167  48.4491668
 102.3039992  46.4659978  47.7290014 102.9199992  45.9389978  48.2380014
 101.7169992  45.8259978  47.3250014 102.3090154  46.3073954  47.7440945
 113.2859992  43.1029978  53.2480014 112.5969992  43.7609978  53.1530014
 113.3009992  42.9049978  54.1850014 113.1937756  43.1662603  53.3615812
  99.3369992  41.4369978  51.8260014  99.1179992  41.9669978  51.0590014
  98.6689992  41.6629978  52.4730014  99.2166975  41.5400967  51.8085140
 106.7059992  50.9369978  45.3700014 106.4109992  50.6139978  44.5180014
 106.3819992  51.8369978  45.4110014 106.6218460  51.0144464  45.2589714
 101.9059992  49.1119978  52.1130014 101.1659992  49.7109978  52.2170014
 102.6199992  49.6659978  51.7980014 101.9013500  49.2687829  52.0846371
 110.0129992  41.9409978  48.1330014 109.7979992  41.1749978  48.6660014
 110.6689992  42.4129978  48.6460014 110.0722673  41.9000728  48.2751990
  98.9309992  43.3289978  49.7780014  99.5449992  43.9619978  50.1510014
  99.4429992  42.8569978  49.1220014  99.0841962  43.3517249  49.7402935
 100.3139992  51.0769978  52.9000014 100.3079992  51.9559978  52.5220014
  99.4599992  50.9929978  53.3250014 100.1977925  51.1859535  52.9056887
  96.4349992  50.7479978  43.6820014  96.1629992  50.9769978  42.7940014
  96.4799992  51.5849978  44.1430014  96.4038097  50.8926163  43.6226683
 110.0599992  52.3689978  50.3950014 109.1179992  52.4279978  50.5570014
 110.3359992  53.2749978  50.2580014 109.9685865  52.4995288  50.3986192
 110.3599992  40.6559978  51.8120014 109.6239992  41.2659978  51.7750014
 111.0439992  41.0709978  51.2860014 110.3515367  40.7957551  51.7358174
 103.3639992  38.7419978  49.2780014 103.2459992  37.7939978  49.2240014
 102.5089992  39.0749978  49.5510014 103.2322805  38.6572202  49.3075079
 108.3119992  54.1499978  47.0200014 108.7369992  53.4429978  46.5350014
 108.6289992  54.9519978  46.6030014 108.4130266  54.1615190  46.8972479
 109.4719992  52.0509978  45.5290014 109.2139992  51.3609978  44.9170014
 109.5429992  51.6079978  46.3740014 109.4463050  51.8966814  45.5595621
 111.1579992  50.6179978  54.0060014 111.2969992  50.0259978  53.2670014
 111.3249992  51.4909978  53.6500014 111.1996193  50.6548896  53.8566211
 105.6299992  47.5799978  43.7790014 104.9189992  48.1149978  43.4270014
 106.3209992  47.6349978  43.1190014 105.6260751  47.6606777  43.6415858
 105.6839992  46.0369978  40.8170014 106.3849992  46.0599978  41.4690014
 105.9859992  45.4089978  40.1610014 105.8208202  45.9552212  40.8175609
 112.9989992  46.9579978  52.0720014 112.3469992  47.6519978  52.1610014
 113.4649992  47.1679978  51.2620014 112.9725937  47.0815019  51.9747533
 109.0359992  47.7889978  44.7300014 108.3039992  48.0179978  45.3040014
 109.4829992  47.0759978  45.1850014 108.9963963  47.7238729  44.8699945
 108.9329992  45.9639978  53.7980014 109.0129992  46.7269978  54.3700014
 108.3319992  46.2429978  53.1080014 108.8626547  46.1062457  53.7830047
 100.6809992  48.4199978  46.6130014 100.3509992  48.0489978  45.7950014
 101.2699992  47.7489978  46.9600014 100.7153970  48.2786063  46.5479404
 102.0479992  51.8479978  49.2940014 101.9529992  51.2689978  48.5380014
 102.7769992  51.4769978  49.7900014 102.1336011  51.7185561  49.2576028
 101.0479992  47.1879978  50.2460014 101.6129992  47.3099978  49.4840014
 101.3669992  47.8259978  50.8850014 101.1684166  47.2908791  50.2280348
 107.3569992  52.6919978  50.9800014 107.1169992  53.3539978  51.6280014
 107.1589992  51.8569978  51.4050014 107.2973826  52.6698115  51.1261566
 101.9279992  51.5879978  54.9640014 101.6169992  52.3699978  55.4190014
 101.2779992  51.4349978  54.2780014 101.7975538  51.6744087  54.9335898
 107.9069992  46.9519978  42.4160014 108.4859992  47.1019978  43.1620014
 108.3209992  47.4219978  41.6920014 108.0423358  47.0360954  42.4203953
  98.8479992  47.7859978  54.1920014  98.9179992  48.4369978  54.8910014
  97.9569992  47.8889978  53.8570014  98.7371690  47.8889249  54.2423043
 105.6329992  53.6879978  45.8510014 106.1069992  53.9839978  46.6280014
 105.0699992  54.4269978  45.6180014 105.6217890  53.8283036  45.9258101
 100.1669992  53.6589978  55.7270014 100.1749992  53.5229978  54.7800014
  99.2509992  53.5419978  55.9790014 100.0442528  53.6245463  55.6313243
 111.6059992  38.7019978  42.2290014 110.7059992  38.8409978  42.5240014
 111.8579992  39.5329978  41.8270014 111.5168683  38.8334055  42.2150232
  99.6719992  47.4889978  44.2020014  99.3799992  48.2569978  43.7110014
  98.9969992  46.8299978  44.0390014  99.5408497  47.5049745  44.1128260
 112.7949992  53.0679978  40.6050014 112.8679992  54.0069978  40.7750014
 113.6999992  52.7629978  40.5490014 112.9274170  53.1553282  40.6207063
  95.7649992  49.8519978  53.0170014  95.2629992  49.8239978  52.2020014
  95.7699992  48.9469978  53.3270014  95.6969832  49.7257486  52.9474121
  95.5149992  52.6329978  49.9010014  96.4609992  52.4879978  49.8820014
  95.4019992  53.4169978  50.4380014  95.6293578  52.7191697  49.9710317
 113.7129992  53.2989978  55.5840014 113.6629992  52.3429978  55.5460014
 112.8859992  53.5659978  55.9850014 113.5943831  53.2044680  55.6330121
 104.6909992  52.8729978  54.4600014 104.7789992  53.6989978  54.9350014
 103.8279992  52.5429978  54.7090014 104.5863357  52.9415468  54.5587653
 105.1059992  56.6449978  44.2660014 105.0299992  56.5239978  43.3190014
 105.1379992  57.5939978  44.3840014 105.0999380  56.7567677  44.1525181
  98.7589992  55.4339978  46.0470014  98.9109992  55.0859978  46.9250014
  97.9079992  55.0769978  45.7910014  98.6648344  55.3380879  46.1326868
 108.2069992  55.7989978  41.2680014 108.5819992  55.0549978  40.7970014
 108.2119992  55.5289978  42.1860014 108.2590098  55.6606392  41.3276629
 107.8759992  55.7249978  44.0170014 106.9409992  55.8249978  44.1960014
 108.1559992  55.0149978  44.5960014 107.7859471  55.6427933  44.1196695
 110.8649992  44.7919978  56.0640014 110.4569992  45.2719978  55.3430014
 110.9049992  43.8859978  55.7560014 110.8146221  44.7352449  55.9238267
  98.0139992  51.1759978  54.0600014  98.2299992  50.8139978  54.9200014
  97.1579992  50.8009978  53.8510014  97.9278810  51.0758837  54.1492680
 100.6319992  39.6459978  50.0560014  99.7709992  39.5589978  49.6480014
 100.6099992  40.5019978  50.4840014 100.5110491  39.7498003  50.0579582
 105.2949992  39.3679978  53.4310014 105.7149992  38.9529978  54.1840014
 104.3619992  39.1889978  53.5480014 105.2263736  39.2869910  53.5498968
 108.6219992  43.1229978  54.2840014 108.1079992  42.9979978  55.0820014
 108.4659992  44.0359978  54.0400014 108.5306967  43.2292123  54.3600937
 109.3839992  47.9839978  40.0450014 109.4259992  47.7619978  39.1150014
 110.2329992  48.3829978  40.2350014 109.5045253  48.0075498  39.9433822
 104.9569992  41.8599978  40.7160014 104.7029992  41.8789978  41.6380014
 104.6999992  40.9889978  40.4140014 104.8874508  41.7448280  40.8014803
 100.7229992  44.6109978  51.1510014 100.0819992  44.5709978  51.8600014
 100.7609992  45.5379978  50.9130014 100.6403010  44.7307668  51.2159946
 100.7199992  44.8319978  46.0630014  99.8279992  44.4919978  46.0040014
 101.1709992  44.4549978  45.3070014 100.6587642  44.7344910  45.9527726
 106.2559992  45.2479978  44.8800014 105.8469992  46.0629978  44.5880014
 106.9759992  45.1079978  44.2660014 106.2974439  45.3405372  44.7570115
 105.3579992  45.4239978  56.3680014 104.7949992  44.7189978  56.6890014
 106.1839992  45.3029978  56.8360014 105.3926674  45.3112165  56.4751751
 107.2609992  44.6939978  47.6940014 107.0649992  45.2999978  46.9790014
 107.4419992  43.8609978  47.2600014 107.2586584  44.6642513  47.5374212
  98.4729992  44.9319978  53.0180014  98.4349992  45.3319978  53.8870014
  97.9829992  44.1149978  53.1080014  98.4015330  44.8762674  53.1491289
 101.8389992  42.3059978  39.8170014 101.4079992  41.8609978  40.5460014
 101.1209992  42.6769978  39.3040014 101.6829176  42.2952051  39.8474930
  95.0819992  42.0479978  46.8690014  95.7119992  42.0189978  47.5880014
  95.5309992  41.6229978  46.1380014  95.2290835  41.9865660  46.8687659
  96.3559992  42.7939978  42.2930014  96.8299992  43.3849978  41.7080014
  95.6379992  43.3239978  42.6400014  96.3238640  42.9465511  42.2597969
 106.5249992  46.3319978  52.3650014 106.8479992  45.7009978  51.7220014
 106.0839992  45.7979978  53.0260014 106.5096379  46.1733468  52.3662582
 103.3019992  42.2599978  47.1490014 102.3909992  42.3169978  47.4380014
 103.8069992  42.1999978  47.9600014 103.2456873  42.2596826  47.2981207
  98.1299992  43.8889978  45.9760014  97.2409992  43.9879978  45.6360014
  98.4269992  43.0469978  45.6300014  98.0484177  43.7887687  45.8826940
 101.7829992  43.8889978  43.6330014 102.7149992  44.0179978  43.8110014
 101.5679992  44.5579978  42.9830014 101.8814472  43.9970806  43.5694891
 107.7069992  41.4949978  50.4140014 107.0299992  41.6259978  51.0770014
 107.2219992  41.3399978  49.6030014 107.5487405  41.4919947  50.3952170
 100.4569992  45.0829978  41.1990014  99.9149992  44.7039978  40.5080014
 101.2909992  45.2779978  40.7710014 100.4954390  45.0574079  41.0464392
 110.9949992  57.1659978  56.6900014 111.1939992  57.5899978  55.8560014
 111.6499992  57.5099978  57.2970014 111.1108522  57.2706301  56.6577852
  98.5929992  49.6399978  56.2980014  99.3249992  49.8949978  56.8600014
  97.8119992  49.8449978  56.8140014  98.5876526  49.7025450  56.4445176
 104.6219992  45.0469978  49.0360014 105.1859992  44.5009978  48.4890014
 104.4739992  44.5259978  49.8250014 104.6793037  44.9016787  49.0677229
  99.6239992  41.1839978  45.4550014  99.3069992  40.2809978  45.4190014
 100.4049992  41.1859978  44.9020014  99.6862431  41.0607797  45.3753102
 103.2479992  43.4359978  51.4500014 102.4129992  43.8899978  51.5610014
 103.7719992  43.7119978  52.2020014 103.2046072  43.5353948  51.5668136
 103.7929992  49.6489978  43.1350014 103.0479992  49.1409978  42.8130014
 103.6579992  49.6979978  44.0810014 103.6728963  49.5861731  43.2188826
 110.9429992  48.7819978  51.9220014 111.5839992  49.2379978  51.3780014
 110.1119992  48.8949978  51.4590014 110.9185287  48.8596921  51.7849887
 107.6899992  42.4629978  41.3340014 106.7519992  42.5739978  41.1830014
 107.9879992  43.3189978  41.6410014 107.6016318  42.5940158  41.3548145
 105.3119992  49.8329978  54.3720014 104.9659992  49.4509978  55.1790014
 105.1119992  50.7659978  54.4430014 105.2375987  49.9069002  54.4920461
 108.4089992  44.3299978  42.9950014 109.3009992  44.1919978  43.3140014
 108.4649992  45.1209978  42.4580014 108.5387325  44.4179918  42.9661217
  98.9169992  48.9439978  48.9050014  99.6619992  48.9409978  48.3030014
  98.9949992  48.1199978  49.3860014  99.0293365  48.8322384  48.8877430
 105.9179992  51.1069978  42.1600014 105.6229992  51.9339978  42.5420014
 105.2149992  50.4879978  42.3570014 105.7826379  51.1364171  42.2388654
  95.9249992  47.4039978  54.2200014  96.1479992  46.9859978  55.0510014
  95.3229992  46.7919978  53.7970014  95.8741513  47.2639606  54.2766740
 102.9419992  46.9209978  56.4330014 102.6459992  46.7559978  55.5370014
 103.8729992  46.7009978  56.4220014 103.0274401  46.8686879  56.3090206
 107.5619992  52.2949978  54.3220014 106.6619992  52.4779978  54.0550014
 107.5959992  52.5539978  55.2430014 107.4433748  52.3550554  54.4099164
 113.2939992  44.5389978  42.6900014 112.7389992  44.1429978  42.0170014
 113.3939992  45.4499978  42.4120014 113.2316816  44.6079505  42.5605033
 113.2569992  50.3399978  55.5270014 112.4059992  50.5779978  55.1590014
 113.8469992  50.3229978  54.7740014 113.2203812  50.3702524  55.3748453
 111.5889992  53.3249978  43.1550014 111.2159992  52.4999978  43.4640014
 111.8659992  53.1419978  42.2570014 111.5753463  53.1872569  43.0759525
 108.7489992  48.1329978  50.1760014 107.8209992  47.9019978  50.1490014
 109.1999992  47.3559978  49.8460014 108.6828165  47.9962774  50.1276790
 101.2919992  52.4619978  46.3090014 101.8199992  53.2349978  46.1090014
 100.4119992  52.6859978  46.0070014 101.2453435  52.5982700  46.2407310
  97.0469992  47.3239978  40.8960014  97.6629992  47.9509978  41.2760014
  96.1849992  47.6399978  41.1680014  97.0147678  47.4524412  40.9847209
 102.7199992  50.1249978  45.8850014 102.4789992  51.0499978  45.9270014
 101.9789992  49.6659978  46.2820014 102.5869206  50.1895915  45.9443769
 103.2339992  54.2739978  52.2000014 103.5969992  55.1279978  51.9670014
 103.7659992  53.9819978  52.9410014 103.3555141  54.3513895  52.2682097
 101.4029992  55.1459978  45.4310014 100.4529992  55.2519978  45.4820014
 101.7549992  55.9669978  45.7750014 101.3205472  55.2714923  45.4844852
 106.7779992  50.3729978  51.9010014 106.3529992  50.1449978  52.7270014
 107.3589992  49.6339978  51.7190014 106.7983395  50.2419545  51.9894414
 108.9809992  51.3019978  40.9750014 109.3349992  50.9219978  41.7790014
 108.0329992  51.2079978  41.0620014 108.9012298  51.2372452  41.0968687
 109.4369992  54.9249978  54.3700014 108.8349992  54.3689978  53.8750014
 109.7179992  55.5919978  53.7440014 109.3925757  54.9390744  54.2175675
 113.4849992  55.7809978  41.1760014 114.2289992  56.3669978  41.0360014
 112.7909992  56.3499978  41.5090014 113.4929809  55.9380818  41.2018590
  97.5589992  42.1579978  53.7780014  96.6669992  42.4959978  53.7100014
  97.4609992  41.3019978  54.1960014  97.4234475  42.0886543  53.8251704
 109.8469992  49.9739978  43.2020014 109.5699992  49.2459978  43.7580014
 110.7749992  50.0929978  43.4070014 109.9344499  49.8904213  43.3058044
  97.2109992  53.9619978  52.2130014  97.4279992  53.0299978  52.1820014
  97.4569992  54.2369978  53.0960014  97.2739809  53.8715686  52.3281691
 103.0719992  52.4139978  39.4220014 103.3109992  51.6649978  38.8750014
 102.8029992  52.0259978  40.2550014 103.0683233  52.2591853  39.4597809
 102.0089992  51.9839978  41.8780014 102.1559992  51.4639978  42.6680014
 102.0059992  52.8909978  42.1850014 102.0287102  52.0353953  42.0275925
  98.4619992  49.2359978  42.3890014  97.7759992  49.5889978  42.9560014
  98.9849992  49.9989978  42.1420014  98.4388402  49.3873901  42.4331801
 106.2939992  41.8989978  52.6680014 106.9929992  41.9729978  53.3180014
 105.9129992  41.0339978  52.8220014 106.3382097  41.7922389  52.7777997
 107.0779992  41.5509978  43.7650014 107.2979992  42.0219978  42.9610014
 107.6369992  41.9449978  44.4350014 107.1836731  41.6687287  43.7455033
 104.7469992  53.6809978  42.6280014 103.9299992  54.1779978  42.6800014
 105.2759992  54.1569978  41.9870014 104.7068125  53.8131989  42.5485306
 104.2779992  43.2789978  44.6000014 105.0899992  43.7829978  44.6460014
 104.0339992  43.1339978  45.5140014 104.3561467  43.3283749  44.7298575
 104.8139992  44.2649978  53.7840014 104.9329992  44.8389978  54.5410014
 105.4689992  43.5769978  53.8990014 104.9188684  44.2505194  53.9031674
 105.1619992  40.3599978  45.5380014 104.8149992  40.9769978  46.1820014
 105.8209992  40.8609978  45.0560014 105.2035090  40.5121575  45.5610681
 102.0849992  54.7249978  42.6090014 102.2459992  55.5249978  42.1090014
 101.8879992  55.0319978  43.4940014 102.0803906  54.8758678  42.6602333
 100.8199992  41.4229978  42.2250014 100.7359992  42.3109978  42.5720014
 101.7099992  41.1579978  42.4570014 100.9288163  41.5087179  42.3038596
 111.0179992  42.1719978  54.6190014 110.1019992  42.4339978  54.5320014
 111.3539992  42.1689978  53.7230014 110.9378499  42.2075163  54.4858766
 109.6209992  45.9219978  48.7150014 108.8229992  45.5069978  48.3870014
 110.0659992  45.2319978  49.2060014 109.5719684  45.7718628  48.7365227
  99.0779992  51.8499978  41.2850014  99.6699992  52.5499978  41.5620014
  99.5369992  51.4169978  40.5660014  99.2211652  51.8872675  41.2256533
  97.3939992  44.5149978  40.4010014  97.3489992  45.4539978  40.5800014
  96.5059992  44.2789978  40.1320014  97.2678166  44.6116687  40.3891524
 110.7069992  55.1779978  50.3370014 110.5509992  55.8569978  49.6800014
 111.6399992  55.2499978  50.5400014 110.8117387  55.2806390  50.2745342
  98.2019992  39.2959978  49.0750014  97.9729992  39.3549978  48.1470014
  97.7599992  38.5049978  49.3810014  98.1108801  39.1970540  48.9894729
  97.1329992  53.2369978  45.2350014  96.2999992  53.7089978  45.2620014
  97.6779992  53.7469978  44.6360014  97.0927857  53.3704791  45.1577142
  96.4209992  55.8489978  56.5650014  96.9609992  55.6329978  57.3250014
  95.9399992  55.0439978  56.3750014  96.4299219  55.7105156  56.6434282
 101.0179992  54.7689978  58.1850014 101.7859992  54.3099978  58.5260014
 100.9969992  54.5429978  57.2550014 101.1202135  54.6756668  58.1059491
 105.1099992  54.2769978  39.5610014 104.4659992  53.6459978  39.8820014
 105.8719992  53.7459978  39.3290014 105.1248058  54.1187902  39.5736038
 107.5949992  53.1489978  56.9140014 107.2439992  52.2919978  57.1580014
 108.3209992  53.2909978  57.5210014 107.6451895  53.0511351  57.0293770
 109.7149992  54.0939978  39.7940014 109.9979992  53.2989978  40.2470014
 110.4539992  54.3269978  39.2330014 109.8537096  54.0167049  39.7801104
  96.3279992  49.6599978  57.5190014  96.4719992  48.7579978  57.2330014
  95.5559992  49.9459978  57.0320014  96.2432733  49.5751798  57.4139532
 100.6689992  50.0029978  39.6520014 100.7339992  49.2089978  40.1820014
 101.3219992  49.8849978  38.9620014 100.7661605  49.8783430  39.6312997
 102.9829992  49.6289978  56.9520014 102.6549992  49.8999978  56.0950014
 103.1349992  48.6879978  56.8640014 102.9586412  49.5389046  56.8227822
 106.0219992  51.0499978  39.3880014 105.7529992  51.2309978  40.2880014
 105.8149992  50.1249978  39.2560014 105.9571191  50.9497119  39.4935524
 108.7179992  49.5449978  54.3350014 109.4629992  50.1339978  54.2160014
 107.9609992  50.1269978  54.3990014 108.7175470  49.7042128  54.3273799
  97.1609992  46.8599978  56.9390014  97.5689992  46.0029978  56.8180014
  96.8999992  46.8739978  57.8600014  97.1816016  46.7445119  57.0469192
 101.8189992  47.9759978  41.9580014 101.3589992  47.4919978  42.6430014
 102.0739992  47.3069978  41.3220014 101.7904856  47.8193669  41.9658397
 101.1079992  45.8689978  54.3140014 100.4889992  46.5429978  54.5940014
 101.4519992  46.1899978  53.4800014 101.0697123  46.0046887  54.2396388
 102.8899992  46.2189978  40.2200014 102.7089992  46.0639978  39.2930014
 103.8399992  46.3269978  40.2650014 102.9936566  46.2123669  40.0990929
 106.1269992  48.3399978  57.5910014 107.0809992  48.4239978  57.5640014
 105.9669992  47.6279978  58.2110014 106.2357182  48.2552842  57.6710733
 112.2799992  48.5729978  39.6660014 112.0059992  48.1489978  38.8530014
 112.3189992  49.5049978  39.4490014 112.2477716  48.6408827  39.5254286
 101.4469992  43.2239978  55.3960014 101.5969992  42.4949978  54.7940014
 101.4489992  44.0009978  54.8370014 101.4677967  43.2292708  55.2380541
 101.8599992  41.5929978  52.8890014 102.3949992  42.0449978  52.2370014
 101.0069992  41.4849978  52.4660014 101.8180374  41.6402665  52.7426710
 103.4409992  47.0329978  53.1280014 104.1919992  46.8769978  52.5550014
 103.1019992  47.8849978  52.8530014 103.4979587  47.1268138  53.0124078
 107.8569992  44.8479978  58.1570014 108.0489992  43.9169978  58.0450014
 108.7149992  45.2729978  58.1460014 107.9992182  44.7780070  58.1401862
 109.1739992  47.6369978  56.2340014 108.8919992  48.3459978  55.6560014
 110.1159992  47.5639978  56.0830014 109.2627921  47.7242193  56.1344225
  99.9259992  44.4219978  57.3070014  99.1579992  43.8889978  57.0970014
 100.6039992  44.1119978  56.7080014  99.9127235  44.3071754  57.1972413
 102.6649992  39.0499978  53.3200014 102.5669992  39.9959978  53.2150014
 101.9229992  38.6769978  52.8440014 102.5512534  39.1291773  53.2412600
 103.9289992  43.3709978  56.8840014 103.6939992  43.1519978  57.7850014
 103.1459992  43.1639978  56.3740014 103.7909095  43.3129892  56.9385353
 106.6449992  42.4989978  55.9590014 105.6969992  42.5309978  56.0910014
 106.9569992  41.8729978  56.6130014 106.5575293  42.4187923  56.0654148
 108.2789992  41.1329978  57.9640014 108.1819992  40.1809978  57.9590014
 107.9569992  41.4009978  58.8250014 108.2222468  41.0390884  58.0796210
  98.1059992  42.3419978  57.0120014  98.3179992  41.6359978  56.4020014
  97.9949992  41.9049978  57.8560014  98.1200269  42.1861921  57.0425873
 102.8869992  38.3439978  55.9910014 103.5989992  37.7039978  55.9770014
 102.7859992  38.6099978  55.0780014 102.9707387  38.2924330  55.8655563
 103.2409992  40.0259978  58.0450014 103.1089992  39.5509978  57.2250014
 102.6409992  40.7709978  57.9900014 103.1419070  40.0615789  57.9253251
 102.7869992  56.9089978  41.2210014 103.7199992  57.0669978  41.3650014
 102.5229992  57.5849978  40.5960014 102.8789911  57.0219373  41.1562722
  96.3549992  51.5459978  40.7040014  97.2689992  51.6249978  40.9770014
  96.3629992  50.8589978  40.0380014  96.4810655  51.4639205  40.6512917
  95.0039992  56.9389978  45.7810014  94.3569992  56.4769978  45.2490014
  95.3589992  56.2669978  46.3640014  94.9633741  56.7849774  45.7869175
  95.8739992  55.0189978  47.5860014  95.5399992  54.1389978  47.7580014
  96.0969992  55.3649978  48.4510014  95.8583721  54.9451938  47.7264168
 113.4229992  55.8289978  50.5670014 113.4009992  56.0139978  51.5060014
 114.1129992  56.3969978  50.2260014 113.5133439  55.9311887  50.6494791
 112.9859992  55.3959978  53.4880014 112.4989992  54.6609978  53.1170014
 113.5349992  55.0019978  54.1660014 112.9935247  55.2421057  53.5288461
 111.4369992  51.1859978  58.1270014 110.5709992  51.0809978  58.5210014
 111.8129992  51.9439978  58.5730014 111.3693401  51.2741708  58.2412620
 112.7379992  49.4419978  43.6410014 113.5879992  49.8629978  43.7680014
 112.7429992  48.7019978  44.2480014 112.8551143  49.3996094  43.7404750
 113.1319992  47.4959978  45.4640014 112.4059992  47.0159978  45.8620014
 113.7139992  47.7009978  46.1970014 113.1112730  47.4580184  45.6174149
 112.8909992  50.2809978  50.4120014 113.7249992  49.9029978  50.1310014
 113.0029992  51.2239978  50.2930014 113.0201917  50.3567943  50.3574861
 111.3779992  53.1589978  52.7190014 110.7299992  53.4839978  53.3440014
 110.8599992  52.7179978  52.0450014 111.2194196  53.1438651  52.7134152
 113.4009992  47.3969978  41.8550014 112.8789992  47.7529978  41.1370014
 113.3679992  48.0719978  42.5340014 113.3250129  47.5369598  41.8483355
 111.7499992  44.6359978  40.4060014 111.8459992  45.3029978  39.7260014
 111.6099992  43.8209978  39.9250014 111.7442040  44.6170671  40.2478378
 110.9189992  46.0169978  46.0270014 110.7689992  45.0719978  46.0070014
 110.5649992  46.2979978  46.8710014 110.8506351  45.9256644  46.1383220
  95.9539992  48.0949978  50.0380014  96.1389992  48.0129978  49.1020014
  96.8039992  47.9709978  50.4610014  96.0940928  48.0670463  49.9672893
 111.7749992  47.9869978  55.6660014 112.3579992  47.2519978  55.8580014
 112.3389992  48.7589978  55.7130014 111.9309781  47.9908145  55.6986164
 113.2719992  45.8899978  56.3510014 112.4089992  45.5109978  56.1850014
 113.8759992  45.1509978  56.2760014 113.2356085  45.7383223  56.3181694
 110.9969992  42.0439978  39.5240014 111.6079992  41.6729978  40.1610014
 110.1599992  41.6229978  39.7200014 110.9674947  41.9362756  39.6377252
 110.6299992  43.5989978  44.4900014 110.9089992  42.6919978  44.6140014
 111.3889992  44.0329978  44.1010014 110.7708619  43.5334502  44.4543795
 111.2409992  44.1809978  49.9260014 112.1739992  44.3929978  49.8910014
 111.0059992  44.2819978  50.8480014 111.3369517  44.2236833  50.0459130
 111.2709992  44.9179978  52.7020014 110.4279992  45.1859978  53.0680014
 111.7129992  45.7399978  52.4910014 111.2154138  45.0658273  52.7235518
  95.5519992  43.3649978  56.1780014  96.4709992  43.2429978  56.4150014
  95.1019992  42.6149978  56.5680014  95.6170087  43.2469608  56.2631410
 113.5539992  38.8979978  58.0550014 113.9029992  38.2439978  57.4500014
 113.7009992  39.7349978  57.6150014 113.6216824  38.9216024  57.9126304
 111.2429992  40.8619978  44.5380014 111.4249992  40.4129978  45.3630014
 110.6429992  40.2779978  44.0740014 111.1868187  40.7215552  44.5882739
  96.7729992  41.6779978  49.0700014  97.2179992  40.8859978  49.3720014
  97.2389992  42.3939978  49.5000014  96.8969718  41.6664534  49.1695265
  95.0769992  44.6769978  50.1390014  95.5689992  44.4559978  49.3480014
  95.4389992  45.5169978  50.4200014  95.1932923  44.7603468  50.0687407
 113.0729992  41.0069978  56.4040014 112.1559992  41.2779978  56.3690014
 113.1959992  40.4719978  55.6200014 112.9639672  40.9717885  56.2931862
 113.1099992  40.9299978  41.0660014 113.5219992  40.2089978  40.5910014
 113.7909992  41.5989978  41.1240014 113.2585536  40.9217766  41.0088024
  95.3909992  40.9349978  44.1930014  94.4659992  41.1429978  44.0640014
  95.8449992  41.4189978  43.5030014  95.3256298  41.0289299  44.0820451
 110.1609992  55.9189978  46.1390014 110.8139992  55.5709978  45.5310014
 110.6719992  56.4069978  46.7850014 110.3192777  55.9373815  46.1432047
  95.3539992  39.6729978  52.5370014  94.6889992  39.4269978  53.1800014
  94.9109992  40.2949978  51.9600014  95.2031168  39.7234214  52.5469848
  97.5459992  52.8479978  56.6820014  96.7249992  53.0229978  56.2210014
  97.2939992  52.7749978  57.6020014  97.3995594  52.8620717  56.7433611
 100.4999992  53.8219978  52.9400014 100.0759992  54.6319978  52.6580014
 101.4049992  53.9079978  52.6380014 100.5642138  53.9444160  52.8606415
 104.8119992  55.2209978  55.9000014 104.9959992  54.8879978  56.7780014
 105.6579992  55.5309978  55.5780014 104.9516484  55.2172979  55.9767617
 107.1569992  56.5069978  55.1440014 107.8339992  55.8739978  54.9040014
 107.4779992  56.9079978  55.9510014 107.2931323  56.4745691  55.2203158
 112.0739992  39.0969978  54.2230014 111.2609992  39.4219978  53.8360014
 112.3069992  38.3359978  53.6900014 111.9941347  39.0386880  54.0979841
  97.9019992  57.0789978  52.9880014  97.1819992  57.5189978  52.5370014
  97.5369992  56.8279978  53.8360014  97.7539643  57.1053369  53.0409129
 100.3689992  56.6789978  52.0180014  99.5049992  56.7509978  52.4220014
 100.3139992  57.2259978  51.2340014 100.2431942  56.7627849  51.9674000
 105.0799992  56.5669978  51.1930014 104.6229992  57.0959978  50.5390014
 105.2429992  57.1699978  51.9180014 105.0394960  56.7209280  51.2015274
 107.4079992  55.4449978  52.1380014 106.5029992  55.6099978  51.8720014
 107.8359992  56.2979978  52.0720014 107.3421537  55.5829134  52.0927095
 110.0119992  57.0149978  52.4330014 109.8299992  57.9309978  52.2220014
 110.1889992  56.6039978  51.5860014 110.0110030  57.0848273  52.2897166
  97.3169992  55.7019978  49.8980014  97.2989992  55.2759978  50.7550014
  98.1219992  55.3829978  49.4890014  97.4232875  55.6006435  49.9599515
  99.4579992  54.4119978  48.5530014  99.2389992  53.4949978  48.7230014
 100.2819992  54.5519978  49.0190014  99.5394702  54.3055511  48.6392527
 101.9949992  54.8819978  49.4020014 102.2079992  53.9939978  49.1150014
 102.0599992  54.8469978  50.3560014 102.0329149  54.7558326  49.4917369
 105.5039992  40.5459978  48.5460014 104.8299992  39.9159978  48.8020014
 106.0679992  40.0619978  47.9430014 105.4880384  40.3943708  48.4995020
 110.6469992  38.6529978  48.6590014 111.2499992  39.2009978  48.1570014
 109.7769992  38.9719978  48.4180014 110.6119157  38.7710373  48.5577910
 112.3739992  39.7919978  46.9920014 112.9849992  39.2779978  46.4650014
 112.7559992  40.6689978  47.0150014 112.5093305  39.8402050  46.9229418
  97.8309992  39.1799978  46.3680014  97.0539992  38.9449978  45.8610014
  98.3609992  38.3829978  46.3770014  97.7963451  39.0401268  46.2998627
  96.6669992  38.9779978  42.1720014  97.1059992  39.5889978  41.5800014
  96.0329992  39.5159978  42.6460014  96.6413859  39.1344064  42.1550305
 102.4099992  39.1059978  46.1810014 103.2839992  39.4949978  46.1520014
 102.2739992  38.8909978  47.1040014 102.5111953  39.1301643  46.3017617
 107.9669992  39.1359978  47.8310014 108.0429992  39.2319978  46.8810014
 107.6919992  38.2289978  47.9590014 107.9401871  39.0264146  47.7183944
 109.3199992  39.1619978  43.5230014 108.6169992  39.7769978  43.3130014
 108.8749992  38.3249978  43.6540014 109.1636550  39.1329668  43.5119837
  96.5679992  54.9259978  43.0690014  95.8829992  54.8879978  42.4020014
  96.5719992  55.8389978  43.3570014  96.4747621  55.0441924  43.0166126
  98.5279992  40.8939978  40.6140014  99.0189992  40.2639978  40.0870014
  99.1509992  41.1899978  41.2770014  98.6795304  40.8477376  40.6314940
 103.5539992  41.1869978  43.0710014 103.7319992  40.5399978  43.7540014
 103.4999992  42.0209978  43.5380014 103.5710678  41.2111604  43.2276301
 105.4319992  56.1349978  41.4670014 106.2979992  56.5019978  41.2890014
 105.1859992  55.6959978  40.6530014 105.5172097  56.1258525  41.3326019
 112.1409992  55.6979978  44.1460014 111.9469992  54.9499978  43.5810014
 112.1019992  56.4559978  43.5630014 112.1091645  55.6980786  43.9898148
  97.7879992  39.6939978  55.8860014  97.4219992  38.9279978  56.3280014
  98.7009992  39.7229978  56.1720014  97.8613172  39.5930324  55.9851890
  99.7609992  39.0439978  57.4210014 100.6599992  38.7699978  57.2370014
  99.3749992  38.3019978  57.8860014  99.8317307  38.9062196  57.4587098
  98.3859992  55.8459978  40.0940014  98.1179992  56.1319978  40.9680014
  99.1569992  55.2999978  40.2470014  98.4535926  55.8112779  40.2341205
 108.1829992  38.3769978  57.6040014 108.2589992  37.9509978  58.4570014
 109.0759992  38.3899978  57.2610014 108.3142303  38.3203493  57.6745497
 111.3589992  54.4499978  56.2960014 110.5769992  54.2629978  55.7760014
 111.2869992  55.3789978  56.5130014 111.2421924  54.5500637  56.2541602
 125.7649992  48.3359978  46.3270014 125.8539992  49.2799978  46.1950014
 125.1269992  48.0609978  45.6690014 125.6909062  48.4279812  46.2199641
 124.6979992  47.5909978  49.7460014 124.6599992  46.9449978  50.4510014
 124.3759992  47.1239978  48.9750014 124.6492679  47.4394276  49.7382921
 117.0659992  47.2049978  51.3390014 117.1079992  46.5799978  52.0620014
 117.7689992  47.8289978  51.5210014 117.1667345  47.2037873  51.4625274
 128.4039992  50.5299978  48.0470014 127.9629992  49.8099978  48.4980014
 128.3909992  51.2509978  48.6770014 128.3419215  50.5289291  48.1938105
 117.9899992  51.6549978  49.8740014 117.6199992  50.8529978  49.5040014
 118.9309992  51.4869978  49.9200014 118.0665984  51.5224638  49.8295603
 114.5999992  45.3149978  45.2660014 114.1519992  46.1609978  45.2480014
 114.0389992  44.7359978  44.7510014 114.4628546  45.3523993  45.1938891
 115.3099992  47.4769978  47.3920014 115.5239992  46.7069978  47.9200014
 116.0479992  47.5669978  46.7890014 115.4390200  47.3838587  47.3827035
 125.5159992  55.6339978  48.2590014 126.1349992  54.9579978  47.9860014
 125.3069992  55.4159978  49.1680014 125.5726056  55.5118869  48.3443967
 123.0869992  50.0229978  50.1520014 123.3909992  49.3369978  49.5570014
 123.8089992  50.1419978  50.7700014 123.2261240  49.9452314  50.1540959
 131.7499992  41.6249978  51.0120014 131.7999992  42.2349978  51.7480014
 132.1759992  42.0859978  50.2890014 131.8144108  41.7707709  51.0150112
 126.2279992  44.4169978  50.4790014 126.3709992  43.4709978  50.4990014
 126.1219992  44.6239978  49.5510014 126.2332403  44.3154797  50.3562239
 119.3829992  42.5189978  47.7520014 119.4259992  43.3789978  47.3330014
 118.9249992  41.9669978  47.1180014 119.3269871  42.5619245  47.6090761
 127.1049992  42.6499978  46.1530014 127.7519992  42.3209978  46.7770014
 127.6149992  43.1669978  45.5300014 127.2624351  42.6749067  46.1541037
 116.0029992  44.9159978  48.5140014 116.6569992  44.3659978  48.9460014
 116.0269992  44.6419978  47.5970014 116.0957199  44.8037167  48.4491668
 121.1599992  46.4659978  47.7290014 121.7759992  45.9389978  48.2380014
 120.5729992  45.8259978  47.3250014 121.1650154  46.3073954  47.7440945
 132.1419992  43.1029978  53.2480014 131.4529992  43.7609978  53.1530014
 132.1569992  42.9049978  54.1850014 132.0497756  43.1662603  53.3615812
 118.1929992  41.4369978  51.8260014 117.9739992  41.9669978  51.0590014
 117.5249992  41.6629978  52.4730014 118.0726975  41.5400967  51.8085140
 125.5619992  50.9369978  45.3700014 125.2669992  50.6139978  44.5180014
 125.2379992  51.8369978  45.4110014 125.4778460  51.0144464  45.2589714
 120.7619992  49.1119978  52.1130014 120.0219992  49.7109978  52.2170014
 121.4759992  49.6659978  51.7980014 120.7573500  49.2687829  52.0846371
 128.8689992  41.9409978  48.1330014 128.6539992  41.1749978  48.6660014
 129.5249992  42.4129978  48.6460014 128.9282673  41.9000728  48.2751990
 117.7869992  43.3289978  49.7780014 118.4009992  43.9619978  50.1510014
 118.2989992  42.8569978  49.1220014 117.9401962  43.3517249  49.7402935
 119.1699992  51.0769978  52.9000014 119.1639992  51.9559978  52.5220014
 118.3159992  50.9929978  53.3250014 119.0537925  51.1859535  52.9056887
 115.2909992  50.7479978  43.6820014 115.0189992  50.9769978  42.7940014
 115.3359992  51.5849978  44.1430014 115.2598097  50.8926163  43.6226683
 128.9159992  52.3689978  50.3950014 127.9739992  52.4279978  50.5570014
 129.1919992  53.2749978  50.2580014 128.8245865  52.4995288  50.3986192
 129.2159992  40.6559978  51.8120014 128.4799992  41.2659978  51.7750014
 129.8999992  41.0709978  51.2860014 129.2075367  40.7957551  51.7358174
 122.2199992  38.7419978  49.2780014 122.1019992  37.7939978  49.2240014
 121.3649992  39.0749978  49.5510014 122.0882805  38.6572202  49.3075079
 127.1679992  54.1499978  47.0200014 127.5929992  53.4429978  46.5350014
 127.4849992  54.9519978  46.6030014 127.2690266  54.1615190  46.8972479
 128.3279992  52.0509978  45.5290014 128.0699992  51.3609978  44.9170014
 128.3989992  51.6079978  46.3740014 128.3023050  51.8966814  45.5595621
 130.0139992  50.6179978  54.0060014 130.1529992  50.0259978  53.2670014
 130.1809992  51.4909978  53.6500014 130.0556193  50.6548896  53.8566211
 124.4859992  47.5799978  43.7790014 123.7749992  48.1149978  43.4270014
 125.1769992  47.6349978  43.1190014 124.4820751  47.6606777  43.6415858
 124.5399992  46.0369978  40.8170014 125.2409992  46.0599978  41.4690014
 124.8419992  45.4089978  40.1610014 124.6768202  45.9552212  40.8175609
 131.8549992  46.9579978  52.0720014 131.2029992  47.6519978  52.1610014
 132.3209992  47.1679978  51.2620014 131.8285937  47.0815019  51.9747533
 127.8919992  47.7889978  44.7300014 127.1599992  48.0179978  45.3040014
 128.3389992  47.0759978  45.1850014 127.8523963  47.7238729  44.8699945
 127.7889992  45.9639978  53.7980014 127.8689992  46.7269978  54.3700014
 127.1879992  46.2429978  53.1080014 127.7186547  46.1062457  53.7830047
 119.5369992  48.4199978  46.6130014 119.2069992  48.0489978  45.7950014
 120.1259992  47.7489978  46.9600014 119.5713970  48.2786063  46.5479404
 120.9039992  51.8479978  49.2940014 120.8089992  51.2689978  48.5380014
 121.6329992  51.4769978  49.7900014 120.9896011  51.7185561  49.2576028
 119.9039992  47.1879978  50.2460014 120.4689992  47.3099978  49.4840014
 120.2229992  47.8259978  50.8850014 120.0244166  47.2908791  50.2280348
 126.2129992  52.6919978  50.9800014 125.9729992  53.3539978  51.6280014
 126.0149992  51.8569978  51.4050014 126.1533826  52.6698115  51.1261566
 120.7839992  51.5879978  54.9640014 120.4729992  52.3699978  55.4190014
 120.1339992  51.4349978  54.2780014 120.6535538  51.6744087  54.9335898
 126.7629992  46.9519978  42.4160014 127.3419992  47.1019978  43.1620014
 127.1769992  47.4219978  41.6920014 126.8983358  47.0360954  42.4203953
 117.7039992  47.7859978  54.1920014 117.7739992  48.4369978  54.8910014
 116.8129992  47.8889978  53.8570014 117.5931690  47.8889249  54.2423043
 124.4889992  53.6879978  45.8510014 124.9629992  53.9839978  46.6280014
 123.9259992  54.4269978  45.6180014 124.4777890  53.8283036  45.9258101
 119.0229992  53.6589978  55.7270014 119.0309992  53.5229978  54.7800014
 118.1069992  53.5419978  55.9790014 118.9002528  53.6245463  55.6313243
 130.4619992  38.7019978  42.2290014 129.5619992  38.8409978  42.5240014
 130.7139992  39.5329978  41.8270014 130.3728683  38.8334055  42.2150232
 118.5279992  47.4889978  44.2020014 118.2359992  48.2569978  43.7110014
 117.8529992  46.8299978  44.0390014 118.3968497  47.5049745  44.1128260
 131.6509992  53.0679978  40.6050014 131.7239992  54.0069978  40.7750014
 132.5559992  52.7629978  40.5490014 131.7834170  53.1553282  40.6207063
 114.6209992  49.8519978  53.0170014 114.1189992  49.8239978  52.2020014
 114.6259992  48.9469978  53.3270014 114.5529832  49.7257486  52.9474121
 114.3709992  52.6329978  49.9010014 115.3169992  52.4879978  49.8820014
 114.2579992  53.4169978  50.4380014 114.4853578  52.7191697  49.9710317
 132.5689992  53.2989978  55.5840014 132.5189992  52.3429978  55.5460014
 131.7419992  53.5659978  55.9850014 132.4503831  53.2044680  55.6330121
 123.5469992  52.8729978  54.4600014 123.6349992  53.6989978  54.9350014
 122.6839992  52.5429978  54.7090014 123.4423357  52.9415468  54.5587653
 123.9619992  56.6449978  44.2660014 123.8859992  56.5239978  43.3190014
 123.9939992  57.5939978  44.3840014 123.9559380  56.7567677  44.1525181
 117.6149992  55.4339978  46.0470014 117.7669992  55.0859978  46.9250014
 116.7639992  55.0769978  45.7910014 117.5208344  55.3380879  46.1326868
 127.0629992  55.7989978  41.2680014 127.4379992  55.0549978  40.7970014
 127.0679992  55.5289978  42.1860014 127.1150098  55.6606392  41.3276629
 126.7319992  55.7249978  44.0170014 125.7969992  55.8249978  44.1960014
 127.0119992  55.0149978  44.5960014 126.6419471  55.6427933  44.1196695
 129.7209992  44.7919978  56.0640014 129.3129992  45.2719978  55.3430014
 129.7609992  43.8859978  55.7560014 129.6706221  44.7352449  55.9238267
 116.8699992  51.1759978  54.0600014 117.0859992  50.8139978  54.9200014
 116.0139992  50.8009978  53.8510014 116.7838810  51.0758837  54.1492680
 119.4879992  39.6459978  50.0560014 118.6269992  39.5589978  49.6480014
 119.4659992  40.5019978  50.4840014 119.3670491  39.7498003  50.0579582
 124.1509992  39.3679978  53.4310014 124.5709992  38.9529978  54.1840014
 123.2179992  39.1889978  53.5480014 124.0823736  39.2869910  53.5498968
 127.4779992  43.1229978  54.2840014 126.9639992  42.9979978  55.0820014
 127.3219992  44.0359978  54.0400014 127.3866967  43.2292123  54.3600937
 128.2399992  47.9839978  40.0450014 128.2819992  47.7619978  39.1150014
 129.0889992  48.3829978  40.2350014 128.3605253  48.0075498  39.9433822
 123.8129992  41.8599978  40.7160014 123.5589992  41.8789978  41.6380014
 123.5559992  40.9889978  40.4140014 123.7434508  41.7448280  40.8014803
 119.5789992  44.6109978  51.1510014 118.9379992  44.5709978  51.8600014
 119.6169992  45.5379978  50.9130014 119.4963010  44.7307668  51.2159946
 119.5759992  44.8319978  46.0630014 118.6839992  44.4919978  46.0040014
 120.0269992  44.4549978  45.3070014 119.5147642  44.7344910  45.9527726
 125.1119992  45.2479978  44.8800014 124.7029992  46.0629978  44.5880014
 125.8319992  45.1079978  44.2660014 125.1534439  45.3405372  44.7570115
 124.2139992  45.4239978  56.3680014 123.6509992  44.7189978  56.6890014
 125.0399992  45.3029978  56.8360014 124.2486674  45.3112165  56.4751751
 126.1169992  44.6939978  47.6940014 125.9209992  45.2999978  46.9790014
 126.2979992  43.8609978  47.2600014 126.1146584  44.6642513  47.5374212
 117.3289992  44.9319978  53.0180014 117.2909992  45.3319978  53.8870014
 116.8389992  44.1149978  53.1080014 117.2575330  44.8762674  53.1491289
 120.6949992  42.3059978  39.8170014 120.2639992  41.8609978  40.5460014
 119.9769992  42.6769978  39.3040014 120.5389176  42.2952051  39.8474930
 113.9379992  42.0479978  46.8690014 114.5679992  42.0189978  47.5880014
 114.3869992  41.6229978  46.1380014 114.0850835  41.9865660  46.8687659
 115.2119992  42.7939978  42.2930014 115.6859992  43.3849978  41.7080014
 114.4939992  43.3239978  42.6400014 115.1798640  42.9465511  42.2597969
 125.3809992  46.3319978  52.3650014 125.7039992  45.7009978  51.7220014
 124.9399992  45.7979978  53.0260014 125.3656379  46.1733468  52.3662582
 122.1579992  42.2599978  47.1490014 121.2469992  42.3169978  47.4380014
 122.6629992  42.1999978  47.9600014 122.1016873  42.2596826  47.2981207
 116.9859992  43.8889978  45.9760014 116.0969992  43.9879978  45.6360014
 117.2829992  43.0469978  45.6300014 116.9044177  43.7887687  45.8826940
 120.6389992  43.8889978  43.6330014 121.5709992  44.0179978  43.8110014
 120.4239992  44.5579978  42.9830014 120.7374472  43.9970806  43.5694891
 126.5629992  41.4949978  50.4140014 125.8859992  41.6259978  51.0770014
 126.0779992  41.3399978  49.6030014 126.4047405  41.4919947  50.3952170
 119.3129992  45.0829978  41.1990014 118.7709992  44.7039978  40.5080014
 120.1469992  45.2779978  40.7710014 119.3514390  45.0574079  41.0464392
 129.8509992  57.1659978  56.6900014 130.0499992  57.5899978  55.8560014
 130.5059992  57.5099978  57.2970014 129.9668522  57.2706301  56.6577852
 117.4489992  49.6399978  56.2980014 118.1809992  49.8949978  56.8600014
 116.6679992  49.8449978  56.8140014 117.4436526  49.7025450  56.4445176
 123.4779992  45.0469978  49.0360014 124.0419992  44.5009978  48.4890014
 123.3299992  44.5259978  49.8250014 123.5353037  44.9016787  49.0677229
 118.4799992  41.1839978  45.4550014 118.1629992  40.2809978  45.4190014
 119.2609992  41.1859978  44.9020014 118.5422431  41.0607797  45.3753102
 122.1039992  43.4359978  51.4500014 121.2689992  43.8899978  51.5610014
 122.6279992  43.7119978  52.2020014 122.0606072  43.5353948  51.5668136
 122.6489992  49.6489978  43.1350014 121.9039992  49.1409978  42.8130014
 122.5139992  49.6979978  44.0810014 122.5288963  49.5861731  43.2188826
 129.7989992  48.7819978  51.9220014 130.4399992  49.2379978  51.3780014
 128.9679992  48.8949978  51.4590014 129.7745287  48.8596921  51.7849887
 126.5459992  42.4629978  41.3340014 125.6079992  42.5739978  41.1830014
 126.8439992  43.3189978  41.6410014 126.4576318  42.5940158  41.3548145
 124.1679992  49.8329978  54.3720014 123.8219992  49.4509978  55.1790014
 123.9679992  50.7659978  54.4430014 124.0935987  49.9069002  54.4920461
 127.2649992  44.3299978  42.9950014 128.1569992  44.1919978  43.3140014
 127.3209992  45.1209978  42.4580014 127.3947325  44.4179918  42.9661217
 117.7729992  48.9439978  48.9050014 118.5179992  48.9409978  48.3030014
 117.8509992  48.1199978  49.3860014 117.8853365  48.8322384  48.8877430
 124.7739992  51.1069978  42.1600014 124.4789992  51.9339978  42.5420014
 124.0709992  50.4879978  42.3570014 124.6386379  51.1364171  42.2388654
 114.7809992  47.4039978  54.2200014 115.0039992  46.9859978  55.0510014
 114.1789992  46.7919978  53.7970014 114.7301513  47.2639606  54.2766740
 121.7979992  46.9209978  56.4330014 121.5019992  46.7559978  55.5370014
 122.7289992  46.7009978  56.4220014 121.8834401  46.8686879  56.3090206
 126.4179992  52.2949978  54.3220014 125.5179992  52.4779978  54.0550014
 126.4519992  52.5539978  55.2430014 126.2993748  52.3550554  54.4099164
 132.1499992  44.5389978  42.6900014 131.5949992  44.1429978  42.0170014
 132.2499992  45.4499978  42.4120014 132.0876816  44.6079505  42.5605033
 132.1129992  50.3399978  55.5270014 131.2619992  50.5779978  55.1590014
 132.7029992  50.3229978  54.7740014 132.0763812  50.3702524  55.3748453
 130.4449992  53.3249978  43.1550014 130.0719992  52.4999978  43.4640014
 130.7219992  53.1419978  42.2570014 130.4313463  53.1872569  43.0759525
 127.6049992  48.1329978  50.1760014 126.6769992  47.9019978  50.1490014
 128.0559992  47.3559978  49.8460014 127.5388165  47.9962774  50.1276790
 120.1479992  52.4619978  46.3090014 120.6759992  53.2349978  46.1090014
 119.2679992  52.6859978  46.0070014 120.1013435  52.5982700  46.2407310
 115.9029992  47.3239978  40.8960014 116.5189992  47.9509978  41.2760014
 115.0409992  47.6399978  41.1680014 115.8707678  47.4524412  40.9847209
 121.5759992  50.1249978  45.8850014 121.3349992  51.0499978  45.9270014
 120.8349992  49.6659978  46.2820014 121.4429206  50.1895915  45.9443769
 122.0899992  54.2739978  52.2000014 122.4529992  55.1279978  51.9670014
 122.6219992  53.9819978  52.9410014 122.2115141  54.3513895  52.2682097
 120.2589992  55.1459978  45.4310014 119.3089992  55.2519978  45.4820014
 120.6109992  55.9669978  45.7750014 120.1765472  55.2714923  45.4844852
 125.6339992  50.3729978  51.9010014 125.2089992  50.1449978  52.7270014
 126.2149992  49.6339978  51.7190014 125.6543395  50.2419545  51.9894414
 127.8369992  51.3019978  40.9750014 128.1909992  50.9219978  41.7790014
 126.8889992  51.2079978  41.0620014 127.7572298  51.2372452  41.0968687
 128.2929992  54.9249978  54.3700014 127.6909992  54.3689978  53.8750014
 128.5739992  55.5919978  53.7440014 128.2485757  54.9390744  54.2175675
 132.3409992  55.7809978  41.1760014 133.0849992  56.3669978  41.0360014
 131.6469992  56.3499978  41.5090014 132.3489809  55.9380818  41.2018590
 116.4149992  42.1579978  53.7780014 115.5229992  42.4959978  53.7100014
 116.3169992  41.3019978  54.1960014 116.2794475  42.0886543  53.8251704
 128.7029992  49.9739978  43.2020014 128.4259992  49.2459978  43.7580014
 129.6309992  50.0929978  43.4070014 128.7904499  49.8904213  43.3058044
 116.0669992  53.9619978  52.2130014 116.2839992  53.0299978  52.1820014
 116.3129992  54.2369978  53.0960014 116.1299809  53.8715686  52.3281691
 121.9279992  52.4139978  39.4220014 122.1669992  51.6649978  38.8750014
 121.6589992  52.0259978  40.2550014 121.9243233  52.2591853  39.4597809
 120.8649992  51.9839978  41.8780014 121.0119992  51.4639978  42.6680014
 120.8619992  52.8909978  42.1850014 120.8847102  52.0353953  42.0275925
 117.3179992  49.2359978  42.3890014 116.6319992  49.5889978  42.9560014
 117.8409992  49.9989978  42.1420014 117.2948402  49.3873901  42.4331801
 125.1499992  41.8989978  52.6680014 125.8489992  41.9729978  53.3180014
 124.7689992  41.0339978  52.8220014 125.1942097  41.7922389  52.7777997
 125.9339992  41.5509978  43.7650014 126.1539992  42.0219978  42.9610014
 126.4929992  41.9449978  44.4350014 126.0396731  41.6687287  43.7455033
 123.6029992  53.6809978  42.6280014 122.7859992  54.1779978  42.6800014
 124.1319992  54.1569978  41.9870014 123.5628125  53.8131989  42.5485306
 123.1339992  43.2789978  44.6000014 123.9459992  43.7829978  44.6460014
 122.8899992  43.1339978  45.5140014 123.2121467  43.3283749  44.7298575
 123.6699992  44.2649978  53.7840014 123.7889992  44.8389978  54.5410014
 124.3249992  43.5769978  53.8990014 123.7748684  44.2505194  53.9031674
 124.0179992  40.3599978  45.5380014 123.6709992  40.9769978  46.1820014
 124.6769992  40.8609978  45.0560014 124.0595090  40.5121575  45.5610681
 120.9409992  54.7249978  42.6090014 121.1019992  55.5249978  42.1090014
 120.7439992  55.0319978  43.4940014 120.9363906  54.8758678  42.6602333
 119.6759992  41.4229978  42.2250014 119.5919992  42.3109978  42.5720014
 120.5659992  41.1579978  42.4570014 119.7848163  41.5087179  42.3038596
 129.8739992  42.1719978  54.6190014 128.9579992  42.4339978  54.5320014
 130.2099992  42.1689978  53.7230014 129.7938499  42.2075163  54.4858766
 128.4769992  45.9219978  48.7150014 127.6789992  45.5069978  48.3870014
 128.9219992  45.2319978  49.2060014 128.4279684  45.7718628  48.7365227
 117.9339992  51.8499978  41.2850014 118.5259992  52.5499978  41.5620014
 118.3929992  51.4169978  40.5660014 118.0771652  51.8872675  41.2256533
 116.2499992  44.5149978  40.4010014 116.2049992  45.4539978  40.5800014
 115.3619992  44.2789978  40.1320014 116.1238166  44.6116687  40.3891524
 129.5629992  55.1779978  50.3370014 129.4069992  55.8569978  49.6800014
 130.4959992  55.2499978  50.5400014 129.6677387  55.2806390  50.2745342
 117.0579992  39.2959978  49.0750014 116.8289992  39.3549978  48.1470014
 116.6159992  38.5049978  49.3810014 116.9668801  39.1970540  48.9894729
 115.9889992  53.2369978  45.2350014 115.1559992  53.7089978  45.2620014
 116.5339992  53.7469978  44.6360014 115.9487857  53.3704791  45.1577142
 115.2769992  55.8489978  56.5650014 115.8169992  55.6329978  57.3250014
 114.7959992  55.0439978  56.3750014 115.2859219  55.7105156  56.6434282
 119.8739992  54.7689978  58.1850014 120.6419992  54.3099978  58.5260014
 119.8529992  54.5429978  57.2550014 119.9762135  54.6756668  58.1059491
 123.9659992  54.2769978  39.5610014 123.3219992  53.6459978  39.8820014
 124.7279992  53.7459978  39.3290014 123.9808058  54.1187902  39.5736038
 126.4509992  53.1489978  56.9140014 126.0999992  52.2919978  57.1580014
 127.1769992  53.2909978  57.5210014 126.5011895  53.0511351  57.0293770
 128.5709992  54.0939978  39.7940014 128.8539992  53.2989978  40.2470014
 129.3099992  54.3269978  39.2330014 128.7097096  54.0167049  39.7801104
 115.1839992  49.6599978  57.5190014 115.3279992  48.7579978  57.2330014
 114.4119992  49.9459978  57.0320014 115.0992733  49.5751798  57.4139532
 119.5249992  50.0029978  39.6520014 119.5899992  49.2089978  40.1820014
 120.1779992  49.8849978  38.9620014 119.6221605  49.8783430  39.6312997
 121.8389992  49.6289978  56.9520014 121.5109992  49.8999978  56.0950014
 121.9909992  48.6879978  56.8640014 121.8146412  49.5389046  56.8227822
 124.8779992  51.0499978  39.3880014 124.6089992  51.2309978  40.2880014
 124.6709992  50.1249978  39.2560014 124.8131191  50.9497119  39.4935524
 127.5739992  49.5449978  54.3350014 128.3189992  50.1339978  54.2160014
 126.8169992  50.1269978  54.3990014 127.5735470  49.7042128  54.3273799
 116.0169992  46.8599978  56.9390014 116.4249992  46.0029978  56.8180014
 115.7559992  46.8739978  57.8600014 116.0376016  46.7445119  57.0469192
 120.6749992  47.9759978  41.9580014 120.2149992  47.4919978  42.6430014
 120.9299992  47.3069978  41.3220014 120.6464856  47.8193669  41.9658397
 119.9639992  45.8689978  54.3140014 119.3449992  46.5429978  54.5940014
 120.3079992  46.1899978  53.4800014 119.9257123  46.0046887  54.2396388
 121.7459992  46.2189978  40.2200014 121.5649992  46.0639978  39.2930014
 122.6959992  46.3269978  40.2650014 121.8496566  46.2123669  40.0990929
 124.9829992  48.3399978  57.5910014 125.9369992  48.4239978  57.5640014
 124.8229992  47.6279978  58.2110014 125.0917182  48.2552842  57.6710733
 131.1359992  48.5729978  39.6660014 130.8619992  48.1489978  38.8530014
 131.1749992  49.5049978  39.4490014 131.1037716  48.6408827  39.5254286
 120.3029992  43.2239978  55.3960014 120.4529992  42.4949978  54.7940014
 120.3049992  44.0009978  54.8370014 120.3237967  43.2292708  55.2380541
 120.7159992  41.5929978  52.8890014 121.2509992  42.0449978  52.2370014
 119.8629992  41.4849978  52.4660014 120.6740374  41.6402665  52.7426710
 122.2969992  47.0329978  53.1280014 123.0479992  46.8769978  52.5550014
 121.9579992  47.8849978  52.8530014 122.3539587  47.1268138  53.0124078
 126.7129992  44.8479978  58.1570014 126.9049992  43.9169978  58.0450014
 127.5709992  45.2729978  58.1460014 126.8552182  44.7780070  58.1401862
 128.0299992  47.6369978  56.2340014 127.7479992  48.3459978  55.6560014
 128.9719992  47.5639978  56.0830014 128.1187921  47.7242193  56.1344225
 118.7819992  44.4219978  57.3070014 118.0139992  43.8889978  57.0970014
 119.4599992  44.1119978  56.7080014 118.7687235  44.3071754  57.1972413
 121.5209992  39.0499978  53.3200014 121.4229992  39.9959978  53.2150014
 120.7789992  38.6769978  52.8440014 121.4072534  39.1291773  53.2412600
 122.7849992  43.3709978  56.8840014 122.5499992  43.1519978  57.7850014
 122.0019992  43.1639978  56.3740014 122.6469095  43.3129892  56.9385353
 125.5009992  42.4989978  55.9590014 124.5529992  42.5309978  56.0910014
 125.8129992  41.8729978  56.6130014 125.4135293  42.4187923  56.0654148
 127.1349992  41.1329978  57.9640014 127.0379992  40.1809978  57.9590014
 126.8129992  41.4009978  58.8250014 127.0782468  41.0390884  58.0796210
 116.9619992  42.3419978  57.0120014 117.1739992  41.6359978  56.4020014
 116.8509992  41.9049978  57.8560014 116.9760269  42.1861921  57.0425873
 121.7429992  38.3439978  55.9910014 122.4549992  37.7039978  55.9770014
 121.6419992  38.6099978  55.0780014 121.8267387  38.2924330  55.8655563
 122.0969992  40.0259978  58.0450014 121.9649992  39.5509978  57.2250014
 121.4969992  40.7709978  57.9900014 121.9979070  40.0615789  57.9253251
 121.6429992  56.9089978  41.2210014 122.5759992  57.0669978  41.3650014
 121.3789992  57.5849978  40.5960014 121.7349911  57.0219373  41.1562722
 115.2109992  51.5459978  40.7040014 116.1249992  51.6249978  40.9770014
 115.2189992  50.8589978  40.0380014 115.3370655  51.4639205  40.6512917
 113.8599992  56.9389978  45.7810014 113.2129992  56.4769978  45.2490014
 114.2149992  56.2669978  46.3640014 113.8193741  56.7849774  45.7869175
 114.7299992  55.0189978  47.5860014 114.3959992  54.1389978  47.7580014
 114.9529992  55.3649978  48.4510014 114.7143721  54.9451938  47.7264168
 132.2789992  55.8289978  50.5670014 132.2569992  56.0139978  51.5060014
 132.9689992  56.3969978  50.2260014 132.3693439  55.9311887  50.6494791
 131.8419992  55.3959978  53.4880014 131.3549992  54.6609978  53.1170014
 132.3909992  55.0019978  54.1660014 131.8495247  55.2421057  53.5288461
 130.2929992  51.1859978  58.1270014 129.4269992  51.0809978  58.5210014
 130.6689992  51.9439978  58.5730014 130.2253401  51.2741708  58.2412620
 131.5939992  49.4419978  43.6410014 132.4439992  49.8629978  43.7680014
 131.5989992  48.7019978  44.2480014 131.7111143  49.3996094  43.7404750
 131.9879992  47.4959978  45.4640014 131.2619992  47.0159978  45.8620014
 132.5699992  47.7009978  46.1970014 131.9672730  47.4580184  45.6174149
 131.7469992  50.2809978  50.4120014 132.5809992  49.9029978  50.1310014
 131.8589992  51.2239978  50.2930014 131.8761917  50.3567943  50.3574861
 130.2339992  53.1589978  52.7190014 129.5859992  53.4839978  53.3440014
 129.7159992  52.7179978  52.0450014 130.0754196  53.1438651  52.7134152
 132.2569992  47.3969978  41.8550014 131.7349992  47.7529978  41.1370014
 132.2239992  48.0719978  42.5340014 132.1810129  47.5369598  41.8483355
 130.6059992  44.6359978  40.4060014 130.7019992  45.3029978  39.7260014
 130.4659992  43.8209978  39.9250014 130.6002040  44.6170671  40.2478378
 129.7749992  46.0169978  46.0270014 129.6249992  45.0719978  46.0070014
 129.4209992  46.2979978  46.8710014 129.7066351  45.9256644  46.1383220
 114.8099992  48.0949978  50.0380014 114.9949992  48.0129978  49.1020014
 115.6599992  47.9709978  50.4610014 114.9500928  48.0670463  49.9672893
 130.6309992  47.9869978  55.6660014 131.2139992  47.2519978  55.8580014
 131.1949992  48.7589978  55.7130014 130.7869781  47.9908145  55.6986164
 132.1279992  45.8899978  56.3510014 131.2649992  45.5109978  56.1850014
 132.7319992  45.1509978  56.2760014 132.0916085  45.7383223  56.3181694
 129.8529992  42.0439978  39.5240014 130.4639992  41.6729978  40.1610014
 129.0159992  41.6229978  39.7200014 129.8234947  41.9362756  39.6377252
 129.4859992  43.5989978  44.4900014 129.7649992  42.6919978  44.6140014
 130.2449992  44.0329978  44.1010014 129.6268619  43.5334502  44.4543795
 130.0969992  44.1809978  49.9260014 131.0299992  44.3929978  49.8910014
 129.8619992  44.2819978  50.8480014 130.1929517  44.2236833  50.0459130
 130.1269992  44.9179978  52.7020014 129.2839992  45.1859978  53.0680014
 130.5689992  45.7399978  52.4910014 130.0714138  45.0658273  52.7235518
 114.4079992  43.3649978  56.1780014 115.3269992  43.2429978  56.4150014
 113.9579992  42.6149978  56.5680014 114.4730087  43.2469608  56.2631410
 132.4099992  38.8979978  58.0550014 132.7589992  38.2439978  57.4500014
 132.5569992  39.7349978  57.6150014 132.4776824  38.9216024  57.9126304
 130.0989992  40.8619978  44.5380014 130.2809992  40.4129978  45.3630014
 129.4989992  40.2779978  44.0740014 130.0428187  40.7215552  44.5882739
 115.6289992  41.6779978  49.0700014 116.0739992  40.8859978  49.3720014
 116.0949992  42.3939978  49.5000014 115.7529718  41.6664534  49.1695265
 113.9329992  44.6769978  50.1390014 114.4249992  44.4559978  49.3480014
 114.2949992  45.5169978  50.4200014 114.0492923  44.7603468  50.0687407
 131.9289992  41.0069978  56.4040014 131.0119992  41.2779978  56.3690014
 132.0519992  40.4719978  55.6200014 131.8199672  40.9717885  56.2931862
 131.9659992  40.9299978  41.0660014 132.3779992  40.2089978  40.5910014
 132.6469992  41.5989978  41.1240014 132.1145536  40.9217766  41.0088024
 114.2469992  40.9349978  44.1930014 113.3219992  41.1429978  44.0640014
 114.7009992  41.4189978  43.5030014 114.1816298  41.0289299  44.0820451
 129.0169992  55.9189978  46.1390014 129.6699992  55.5709978  45.5310014
 129.5279992  56.4069978  46.7850014 129.1752777  55.9373815  46.1432047
 114.2099992  39.6729978  52.5370014 113.5449992  39.4269978  53.1800014
 113.7669992  40.2949978  51.9600014 114.0591168  39.7234214  52.5469848
 116.4019992  52.8479978  56.6820014 115.5809992  53.0229978  56.2210014
 116.1499992  52.7749978  57.6020014 116.2555594  52.8620717  56.7433611
 119.3559992  53.8219978  52.9400014 118.9319992  54.6319978  52.6580014
 120.2609992  53.9079978  52.6380014 119.4202138  53.9444160  52.8606415
 123.6679992  55.2209978  55.9000014 123.8519992  54.8879978  56.7780014
 124.5139992  55.5309978  55.5780014 123.8076484  55.2172979  55.9767617
 126.0129992  56.5069978  55.1440014 126.6899992  55.8739978  54.9040014
 126.3339992  56.9079978  55.9510014 126.1491323  56.4745691  55.2203158
 130.9299992  39.0969978  54.2230014 130.1169992  39.4219978  53.8360014
 131.1629992  38.3359978  53.6900014 130.8501347  39.0386880  54.0979841
 116.7579992  57.0789978  52.9880014 116.0379992  57.5189978  52.5370014
 116.3929992  56.8279978  53.8360014 116.6099643  57.1053369  53.0409129
 119.2249992  56.6789978  52.0180014 118.3609992  56.7509978  52.4220014
 119.1699992  57.2259978  51.2340014 119.0991942  56.7627849  51.9674000
 123.9359992  56.5669978  51.1930014 123.4789992  57.0959978  50.5390014
 124.0989992  57.1699978  51.9180014 123.8954960  56.7209280  51.2015274
 126.2639992  55.4449978  52.1380014 125.3589992  55.6099978  51.8720014
 126.6919992  56.2979978  52.0720014 126.1981537  55.5829134  52.0927095
 128.8679992  57.0149978  52.4330014 128.6859992  57.9309978  52.2220014
 129.0449992  56.6039978  51.5860014 128.8670030  57.0848273  52.2897166
 116.1729992  55.7019978  49.8980014 116.1549992  55.2759978  50.7550014
 116.9779992  55.3829978  49.4890014 116.2792875  55.6006435  49.9599515
 118.3139992  54.4119978  48.5530014 118.0949992  53.4949978  48.7230014
 119.1379992  54.5519978  49.0190014 118.3954702  54.3055511  48.6392527
 120.8509992  54.8819978  49.4020014 121.0639992  53.9939978  49.1150014
 120.9159992  54.8469978  50.3560014 120.8889149  54.7558326  49.4917369
 124.3599992  40.5459978  48.5460014 123.6859992  39.9159978  48.8020014
 124.9239992  40.0619978  47.9430014 124.3440384  40.3943708  48.4995020
 129.5029992  38.6529978  48.6590014 130.1059992  39.2009978  48.1570014
 128.6329992  38.9719978  48.4180014 129.4679157  38.7710373  48.5577910
 131.2299992  39.7919978  46.9920014 131.8409992  39.2779978  46.4650014
 131.6119992  40.6689978  47.0150014 131.3653305  39.8402050  46.9229418
 116.6869992  39.1799978  46.3680014 115.9099992  38.9449978  45.8610014
 117.2169992  38.3829978  46.3770014 116.6523451  39.0401268  46.2998627
 115.5229992  38.9779978  42.1720014 115.9619992  39.5889978  41.5800014
 114.8889992  39.5159978  42.6460014 115.4973859  39.1344064  42.1550305
 121.2659992  39.1059978  46.1810014 122.1399992  39.4949978  46.1520014
 121.1299992  38.8909978  47.1040014 121.3671953  39.1301643  46.3017617
 126.8229992  39.1359978  47.8310014 126.8989992  39.2319978  46.8810014
 126.5479992  38.2289978  47.9590014 126.7961871  39.0264146  47.7183944
 128.1759992  39.1619978  43.5230014 127.4729992  39.7769978  43.3130014
 127.7309992  38.3249978  43.6540014 128.0196550  39.1329668  43.5119837
 115.4239992  54.9259978  43.0690014 114.7389992  54.8879978  42.4020014
 115.4279992  55.8389978  43.3570014 115.3307621  55.0441924  43.0166126
 117.3839992  40.8939978  40.6140014 117.8749992  40.2639978  40.0870014
 118.0069992  41.1899978  41.2770014 117.5355304  40.8477376  40.6314940
 122.4099992  41.1869978  43.0710014 122.5879992  40.5399978  43.7540014
 122.3559992  42.0209978  43.5380014 122.4270678  41.2111604  43.2276301
 124.2879992  56.1349978  41.4670014 125.1539992  56.5019978  41.2890014
 124.0419992  55.6959978  40.6530014 124.3732097  56.1258525  41.3326019
 130.9969992  55.6979978  44.1460014 130.8029992  54.9499978  43.5810014
 130.9579992  56.4559978  43.5630014 130.9651645  55.6980786  43.9898148
 116.6439992  39.6939978  55.8860014 116.2779992  38.9279978  56.3280014
 117.5569992  39.7229978  56.1720014 116.7173172  39.5930324  55.9851890
 118.6169992  39.0439978  57.4210014 119.5159992  38.7699978  57.2370014
 118.2309992  38.3019978  57.8860014 118.6877307  38.9062196  57.4587098
 117.2419992  55.8459978  40.0940014 116.9739992  56.1319978  40.9680014
 118.0129992  55.2999978  40.2470014 117.3095926  55.8112779  40.2341205
 127.0389992  38.3769978  57.6040014 127.1149992  37.9509978  58.4570014
 127.9319992  38.3899978  57.2610014 127.1702303  38.3203493  57.6745497
 130.2149992  54.4499978  56.2960014 129.4329992  54.2629978  55.7760014
 130.1429992  55.3789978  56.5130014 130.0981924  54.5500637  56.2541602
 144.6209992  48.3359978  46.3270014 144.7099992  49.2799978  46.1950014
 143.9829992  48.0609978  45.6690014 144.5469062  48.4279812  46.2199641
 143.5539992  47.5909978  49.7460014 143.5159992  46.9449978  50.4510014
 143.2319992  47.1239978  48.9750014 143.5052679  47.4394276  49.7382921
 135.9219992  47.2049978  51.3390014 135.9639992  46.5799978  52.0620014
 136.6249992  47.8289978  51.5210014 136.0227345  47.2037873  51.4625274
 136.8459992  51.6549978  49.8740014 136.4759992  50.8529978  49.5040014
 137.7869992  51.4869978  49.9200014 136.9225984  51.5224638  49.8295603
 133.4559992  45.3149978  45.2660014 133.0079992  46.1609978  45.2480014
 132.8949992  44.7359978  44.7510014 133.3188546  45.3523993  45.1938891
 134.1659992  47.4769978  47.3920014 134.3799992  46.7069978  47.9200014
 134.9039992  47.5669978  46.7890014 134.2950200  47.3838587  47.3827035
 144.3719992  55.6339978  48.2590014 144.9909992  54.9579978  47.9860014
 144.1629992  55.4159978  49.1680014 144.4286056  55.5118869  48.3443967
 141.9429992  50.0229978  50.1520014 142.2469992  49.3369978  49.5570014
 142.6649992  50.1419978  50.7700014 142.0821240  49.9452314  50.1540959
 145.0839992  44.4169978  50.4790014 145.2269992  43.4709978  50.4990014
 144.9779992  44.6239978  49.5510014 145.0892403  44.3154797  50.3562239
 138.2389992  42.5189978  47.7520014 138.2819992  43.3789978  47.3330014
 137.7809992  41.9669978  47.1180014 138.1829871  42.5619245  47.6090761
 134.8589992  44.9159978  48.5140014 135.5129992  44.3659978  48.9460014
 134.8829992  44.6419978  47.5970014 134.9517199  44.8037167  48.4491668
 140.0159992  46.4659978  47.7290014 140.6319992  45.9389978  48.2380014
 139.4289992  45.8259978  47.3250014 140.0210154  46.3073954  47.7440945
 137.0489992  41.4369978  51.8260014 136.8299992  41.9669978  51.0590014
 136.3809992  41.6629978  52.4730014 136.9286975  41.5400967  51.8085140
 144.4179992  50.9369978  45.3700014 144.1229992  50.6139978  44.5180014
 144.0939992  51.8369978  45.4110014 144.3338460  51.0144464  45.2589714
 139.6179992  49.1119978  52.1130014 138.8779992  49.7109978  52.2170014
 140.3319992  49.6659978  51.7980014 139.6133500  49.2687829  52.0846371
 136.6429992  43.3289978  49.7780014 137.2569992  43.9619978  50.1510014
 137.1549992  42.8569978  49.1220014 136.7961962  43.3517249  49.7402935
 138.0259992  51.0769978  52.9000014 138.0199992  51.9559978  52.5220014
 137.1719992  50.9929978  53.3250014 137.9097925  51.1859535  52.9056887
 134.1469992  50.7479978  43.6820014 133.8749992  50.9769978  42.7940014
 134.1919992  51.5849978  44.1430014 134.1158097  50.8926163  43.6226683
 141.0759992  38.7419978  49.2780014 140.9579992  37.7939978  49.2240014
 140.2209992  39.0749978  49.5510014 140.9442805  38.6572202  49.3075079
 143.3419992  47.5799978  43.7790014 142.6309992  48.1149978  43.4270014
 144.0329992  47.6349978  43.1190014 143.3380751  47.6606777  43.6415858
 143.3959992  46.0369978  40.8170014 144.0969992  46.0599978  41.4690014
 143.6979992  45.4089978  40.1610014 143.5328202  45.9552212  40.8175609
 138.3929992  48.4199978  46.6130014 138.0629992  48.0489978  45.7950014
 138.9819992  47.7489978  46.9600014 138.4273970  48.2786063  46.5479404
 139.7599992  51.8479978  49.2940014 139.6649992  51.2689978  48.5380014
 140.4889992  51.4769978  49.7900014 139.8456011  51.7185561  49.2576028
 138.7599992  47.1879978  50.2460014 139.3249992  47.3099978  49.4840014
 139.0789992  47.8259978  50.8850014 138.8804166  47.2908791  50.2280348
 145.0689992  52.6919978  50.9800014 144.8289992  53.3539978  51.6280014
 144.8709992  51.8569978  51.4050014 145.0093826  52.6698115  51.1261566
 139.6399992  51.5879978  54.9640014 139.3289992  52.3699978  55.4190014
 138.9899992  51.4349978  54.2780014 139.5095538  51.6744087  54.9335898
 136.5599992  47.7859978  54.1920014 136.6299992  48.4369978  54.8910014
 135.6689992  47.8889978  53.8570014 136.4491690  47.8889249  54.2423043
 143.3449992  53.6879978  45.8510014 143.8189992  53.9839978  46.6280014
 142.7819992  54.4269978  45.6180014 143.3337890  53.8283036  45.9258101
 137.8789992  53.6589978  55.7270014 137.8869992  53.5229978  54.7800014
 136.9629992  53.5419978  55.9790014 137.7562528  53.6245463  55.6313243
 137.3839992  47.4889978  44.2020014 137.0919992  48.2569978  43.7110014
 136.7089992  46.8299978  44.0390014 137.2528497  47.5049745  44.1128260
 133.4769992  49.8519978  53.0170014 132.9749992  49.8239978  52.2020014
 133.4819992  48.9469978  53.3270014 133.4089832  49.7257486  52.9474121
 133.2269992  52.6329978  49.9010014 134.1729992  52.4879978  49.8820014
 133.1139992  53.4169978  50.4380014 133.3413578  52.7191697  49.9710317
 142.4029992  52.8729978  54.4600014 142.4909992  53.6989978  54.9350014
 141.5399992  52.5429978  54.7090014 142.2983357  52.9415468  54.5587653
 142.8179992  56.6449978  44.2660014 142.7419992  56.5239978  43.3190014
 142.8499992  57.5939978  44.3840014 142.8119380  56.7567677  44.1525181
 136.4709992  55.4339978  46.0470014 136.6229992  55.0859978  46.9250014
 135.6199992  55.0769978  45.7910014 136.3768344  55.3380879  46.1326868
 135.7259992  51.1759978  54.0600014 135.9419992  50.8139978  54.9200014
 134.8699992  50.8009978  53.8510014 135.6398810  51.0758837  54.1492680
 138.3439992  39.6459978  50.0560014 137.4829992  39.5589978  49.6480014
 138.3219992  40.5019978  50.4840014 138.2230491  39.7498003  50.0579582
 143.0069992  39.3679978  53.4310014 143.4269992  38.9529978  54.1840014
 142.0739992  39.1889978  53.5480014 142.9383736  39.2869910  53.5498968
 142.6689992  41.8599978  40.7160014 142.4149992  41.8789978  41.6380014
 142.4119992  40.9889978  40.4140014 142.5994508  41.7448280  40.8014803
 138.4349992  44.6109978  51.1510014 137.7939992  44.5709978  51.8600014
 138.4729992  45.5379978  50.9130014 138.3523010  44.7307668  51.2159946
 138.4319992  44.8319978  46.0630014 137.5399992  44.4919978  46.0040014
 138.8829992  44.4549978  45.3070014 138.3707642  44.7344910  45.9527726
 143.9679992  45.2479978  44.8800014 143.5589992  46.0629978  44.5880014
 144.6879992  45.1079978  44.2660014 144.0094439  45.3405372  44.7570115
 143.0699992  45.4239978  56.3680014 142.5069992  44.7189978  56.6890014
 143.8959992  45.3029978  56.8360014 143.1046674  45.3112165  56.4751751
 144.9729992  44.6939978  47.6940014 144.7769992  45.2999978  46.9790014
 145.1539992  43.8609978  47.2600014 144.9706584  44.6642513  47.5374212
 136.1849992  44.9319978  53.0180014 136.1469992  45.3319978  53.8870014
 135.6949992  44.1149978  53.1080014 136.1135330  44.8762674  53.1491289
 139.5509992  42.3059978  39.8170014 139.1199992  41.8609978  40.5460014
 138.8329992  42.6769978  39.3040014 139.3949176  42.2952051  39.8474930
 132.7939992  42.0479978  46.8690014 133.4239992  42.0189978  47.5880014
 133.2429992  41.6229978  46.1380014 132.9410835  41.9865660  46.8687659
 134.0679992  42.7939978  42.2930014 134.5419992  43.3849978  41.7080014
 133.3499992  43.3239978  42.6400014 134.0358640  42.9465511  42.2597969
 144.2369992  46.3319978  52.3650014 144.5599992  45.7009978  51.7220014
 143.7959992  45.7979978  53.0260014 144.2216379  46.1733468  52.3662582
 141.0139992  42.2599978  47.1490014 140.1029992  42.3169978  47.4380014
 141.5189992  42.1999978  47.9600014 140.9576873  42.2596826  47.2981207
 135.8419992  43.8889978  45.9760014 134.9529992  43.9879978  45.6360014
 136.1389992  43.0469978  45.6300014 135.7604177  43.7887687  45.8826940
 139.4949992  43.8889978  43.6330014 140.4269992  44.0179978  43.8110014
 139.2799992  44.5579978  42.9830014 139.5934472  43.9970806  43.5694891
 145.4189992  41.4949978  50.4140014 144.7419992  41.6259978  51.0770014
 144.9339992  41.3399978  49.6030014 145.2607405  41.4919947  50.3952170
 138.1689992  45.0829978  41.1990014 137.6269992  44.7039978  40.5080014
 139.0029992  45.2779978  40.7710014 138.2074390  45.0574079  41.0464392
 136.3049992  49.6399978  56.2980014 137.0369992  49.8949978  56.8600014
 135.5239992  49.8449978  56.8140014 136.2996526  49.7025450  56.4445176
 142.3339992  45.0469978  49.0360014 142.8979992  44.5009978  48.4890014
 142.1859992  44.5259978  49.8250014 142.3913037  44.9016787  49.0677229
 137.3359992  41.1839978  45.4550014 137.0189992  40.2809978  45.4190014
 138.1169992  41.1859978  44.9020014 137.3982431  41.0607797  45.3753102
 140.9599992  43.4359978  51.4500014 140.1249992  43.8899978  51.5610014
 141.4839992  43.7119978  52.2020014 140.9166072  43.5353948  51.5668136
 141.5049992  49.6489978  43.1350014 140.7599992  49.1409978  42.8130014
 141.3699992  49.6979978  44.0810014 141.3848963  49.5861731  43.2188826
 145.4019992  42.4629978  41.3340014 144.4639992  42.5739978  41.1830014
 145.6999992  43.3189978  41.6410014 145.3136318  42.5940158  41.3548145
 143.0239992  49.8329978  54.3720014 142.6779992  49.4509978  55.1790014
 142.8239992  50.7659978  54.4430014 142.9495987  49.9069002  54.4920461
 136.6289992  48.9439978  48.9050014 137.3739992  48.9409978  48.3030014
 136.7069992  48.1199978  49.3860014 136.7413365  48.8322384  48.8877430
 143.6299992  51.1069978  42.1600014 143.3349992  51.9339978  42.5420014
 142.9269992  50.4879978  42.3570014 143.4946379  51.1364171  42.2388654
 133.6369992  47.4039978  54.2200014 133.8599992  46.9859978  55.0510014
 133.0349992  46.7919978  53.7970014 133.5861513  47.2639606  54.2766740
 140.6539992  46.9209978  56.4330014 140.3579992  46.7559978  55.5370014
 141.5849992  46.7009978  56.4220014 140.7394401  46.8686879  56.3090206
 145.2739992  52.2949978  54.3220014 144.3739992  52.4779978  54.0550014
 145.3079992  52.5539978  55.2430014 145.1553748  52.3550554  54.4099164
 139.0039992  52.4619978  46.3090014 139.5319992  53.2349978  46.1090014
 138.1239992  52.6859978  46.0070014 138.9573435  52.5982700  46.2407310
 134.7589992  47.3239978  40.8960014 135.3749992  47.9509978  41.2760014
 133.8969992  47.6399978  41.1680014 134.7267678  47.4524412  40.9847209
 140.4319992  50.1249978  45.8850014 140.1909992  51.0499978  45.9270014
 139.6909992  49.6659978  46.2820014 140.2989206  50.1895915  45.9443769
 140.9459992  54.2739978  52.2000014 141.3089992  55.1279978  51.9670014
 141.4779992  53.9819978  52.9410014 141.0675141  54.3513895  52.2682097
 139.1149992  55.1459978  45.4310014 138.1649992  55.2519978  45.4820014
 139.4669992  55.9669978  45.7750014 139.0325472  55.2714923  45.4844852
 144.4899992  50.3729978  51.9010014 144.0649992  50.1449978  52.7270014
 145.0709992  49.6339978  51.7190014 144.5103395  50.2419545  51.9894414
 135.2709992  42.1579978  53.7780014 134.3789992  42.4959978  53.7100014
 135.1729992  41.3019978  54.1960014 135.1354475  42.0886543  53.8251704
 134.9229992  53.9619978  52.2130014 135.1399992  53.0299978  52.1820014
 135.1689992  54.2369978  53.0960014 134.9859809  53.8715686  52.3281691
 140.7839992  52.4139978  39.4220014 141.0229992  51.6649978  38.8750014
 140.5149992  52.0259978  40.2550014 140.7803233  52.2591853  39.4597809
 139.7209992  51.9839978  41.8780014 139.8679992  51.4639978  42.6680014
 139.7179992  52.8909978  42.1850014 139.7407102  52.0353953  42.0275925
 136.1739992  49.2359978  42.3890014 135.4879992  49.5889978  42.9560014
 136.6969992  49.9989978  42.1420014 136.1508402  49.3873901  42.4331801
 144.0059992  41.8989978  52.6680014 144.7049992  41.9729978  53.3180014
 143.6249992  41.0339978  52.8220014 144.0502097  41.7922389  52.7777997
 144.7899992  41.5509978  43.7650014 145.0099992  42.0219978  42.9610014
 145.3489992  41.9449978  44.4350014 144.8956731  41.6687287  43.7455033
 142.4589992  53.6809978  42.6280014 141.6419992  54.1779978  42.6800014
 142.9879992  54.1569978  41.9870014 142.4188125  53.8131989  42.5485306
 141.9899992  43.2789978  44.6000014 142.8019992  43.7829978  44.6460014
 141.7459992  43.1339978  45.5140014 142.0681467  43.3283749  44.7298575
 142.5259992  44.2649978  53.7840014 142.6449992  44.8389978  54.5410014
 143.1809992  43.5769978  53.8990014 142.6308684  44.2505194  53.9031674
 142.8739992  40.3599978  45.5380014 142.5269992  40.9769978  46.1820014
 143.5329992  40.8609978  45.0560014 142.9155090  40.5121575  45.5610681
 139.7969992  54.7249978  42.6090014 139.9579992  55.5249978  42.1090014
 139.5999992  55.0319978  43.4940014 139.7923906  54.8758678  42.6602333
 138.5319992  41.4229978  42.2250014 138.4479992  42.3109978  42.5720014
 139.4219992  41.1579978  42.4570014 138.6408163  41.5087179  42.3038596
 136.7899992  51.8499978  41.2850014 137.3819992  52.5499978  41.5620014
 137.2489992  51.4169978  40.5660014 136.9331652  51.8872675  41.2256533
 135.1059992  44.5149978  40.4010014 135.0609992  45.4539978  40.5800014
 134.2179992  44.2789978  40.1320014 134.9798166  44.6116687  40.3891524
 135.9139992  39.2959978  49.0750014 135.6849992  39.3549978  48.1470014
 135.4719992  38.5049978  49.3810014 135.8228801  39.1970540  48.9894729
 134.8449992  53.2369978  45.2350014 134.0119992  53.7089978  45.2620014
 135.3899992  53.7469978  44.6360014 134.8047857  53.3704791  45.1577142
 134.1329992  55.8489978  56.5650014 134.6729992  55.6329978  57.3250014
 133.6519992  55.0439978  56.3750014 134.1419219  55.7105156  56.6434282
 138.7299992  54.7689978  58.1850014 139.4979992  54.3099978  58.5260014
 138.7089992  54.5429978  57.2550014 138.8322135  54.6756668  58.1059491
 142.8219992  54.2769978  39.5610014 142.1779992  53.6459978  39.8820014
 143.5839992  53.7459978  39.3290014 142.8368058  54.1187902  39.5736038
 145.3069992  53.1489978  56.9140014 144.9559992  52.2919978  57.1580014
 146.0329992  53.2909978  57.5210014 145.3571895  53.0511351  57.0293770
 134.0399992  49.6599978  57.5190014 134.1839992  48.7579978  57.2330014
 133.2679992  49.9459978  57.0320014 133.9552733  49.5751798  57.4139532
 138.3809992  50.0029978  39.6520014 138.4459992  49.2089978  40.1820014
 139.0339992  49.8849978  38.9620014 138.4781605  49.8783430  39.6312997
 140.6949992  49.6289978  56.9520014 140.3669992  49.8999978  56.0950014
 140.8469992  48.6879978  56.8640014 140.6706412  49.5389046  56.8227822
 143.7339992  51.0499978  39.3880014 143.4649992  51.2309978  40.2880014
 143.5269992  50.1249978  39.2560014 143.6691191  50.9497119  39.4935524
 134.8729992  46.8599978  56.9390014 135.2809992  46.0029978  56.8180014
 134.6119992  46.8739978  57.8600014 134.8936016  46.7445119  57.0469192
 139.5309992  47.9759978  41.9580014 139.0709992  47.4919978  42.6430014
 139.7859992  47.3069978  41.3220014 139.5024856  47.8193669  41.9658397
 138.8199992  45.8689978  54.3140014 138.2009992  46.5429978  54.5940014
 139.1639992  46.1899978  53.4800014 138.7817123  46.0046887  54.2396388
 140.6019992  46.2189978  40.2200014 140.4209992  46.0639978  39.2930014
 141.5519992  46.3269978  40.2650014 140.7056566  46.2123669  40.0990929
 143.8389992  48.3399978  57.5910014 144.7929992  48.4239978  57.5640014
 143.6789992  47.6279978  58.2110014 143.9477182  48.2552842  57.6710733
 139.1589992  43.2239978  55.3960014 139.3089992  42.4949978  54.7940014
 139.1609992  44.0009978  54.8370014 139.1797967  43.2292708  55.2380541
 139.5719992  41.5929978  52.8890014 140.1069992  42.0449978  52.2370014
 138.7189992  41.4849978  52.4660014 139.5300374  41.6402665  52.7426710
 141.1529992  47.0329978  53.1280014 141.9039992  46.8769978  52.5550014
 140.8139992  47.8849978  52.8530014 141.2099587  47.1268138  53.0124078
 145.5689992  44.8479978  58.1570014 145.7609992  43.9169978  58.0450014
 146.4269992  45.2729978  58.1460014 145.7112182  44.7780070  58.1401862
 137.6379992  44.4219978  57.3070014 136.8699992  43.8889978  57.0970014
 138.3159992  44.1119978  56.7080014 137.6247235  44.3071754  57.1972413
 140.3769992  39.0499978  53.3200014 140.2789992  39.9959978  53.2150014
 139.6349992  38.6769978  52.8440014 140.2632534  39.1291773  53.2412600
 141.6409992  43.3709978  56.8840014 141.4059992  43.1519978  57.7850014
 140.8579992  43.1639978  56.3740014 141.5029095  43.3129892  56.9385353
 144.3569992  42.4989978  55.9590014 143.4089992  42.5309978  56.0910014
 144.6689992  41.8729978  56.6130014 144.2695293  42.4187923  56.0654148
 135.8179992  42.3419978  57.0120014 136.0299992  41.6359978  56.4020014
 135.7069992  41.9049978  57.8560014 135.8320269  42.1861921  57.0425873
 140.5989992  38.3439978  55.9910014 141.3109992  37.7039978  55.9770014
 140.4979992  38.6099978  55.0780014 140.6827387  38.2924330  55.8655563
 140.9529992  40.0259978  58.0450014 140.8209992  39.5509978  57.2250014
 140.3529992  40.7709978  57.9900014 140.8539070  40.0615789  57.9253251
 140.4989992  56.9089978  41.2210014 141.4319992  57.0669978  41.3650014
 140.2349992  57.5849978  40.5960014 140.5909911  57.0219373  41.1562722
 134.0669992  51.5459978  40.7040014 134.9809992  51.6249978  40.9770014
 134.0749992  50.8589978  40.0380014 134.1930655  51.4639205  40.6512917
 132.7159992  56.9389978  45.7810014 132.0689992  56.4769978  45.2490014
 133.0709992  56.2669978  46.3640014 132.6753741  56.7849774  45.7869175
 133.5859992  55.0189978  47.5860014 133.2519992  54.1389978  47.7580014
 133.8089992  55.3649978  48.4510014 133.5703721  54.9451938  47.7264168
 133.6659992  48.0949978  50.0380014 133.8509992  48.0129978  49.1020014
 134.5159992  47.9709978  50.4610014 133.8060928  48.0670463  49.9672893
 133.2639992  43.3649978  56.1780014 134.1829992  43.2429978  56.4150014
 132.8139992  42.6149978  56.5680014 133.3290087  43.2469608  56.2631410
 134.4849992  41.6779978  49.0700014 134.9299992  40.8859978  49.3720014
 134.9509992  42.3939978  49.5000014 134.6089718  41.6664534  49.1695265
 132.7889992  44.6769978  50.1390014 133.2809992  44.4559978  49.3480014
 133.1509992  45.5169978  50.4200014 132.9052923  44.7603468  50.0687407
 133.1029992  40.9349978  44.1930014 132.1779992  41.1429978  44.0640014
 133.5569992  41.4189978  43.5030014 133.0376298  41.0289299  44.0820451
 133.0659992  39.6729978  52.5370014 132.4009992  39.4269978  53.1800014
 132.6229992  40.2949978  51.9600014 132.9151168  39.7234214  52.5469848
 135.2579992  52.8479978  56.6820014 134.4369992  53.0229978  56.2210014
 135.0059992  52.7749978  57.6020014 135.1115594  52.8620717  56.7433611
 138.2119992  53.8219978  52.9400014 137.7879992  54.6319978  52.6580014
 139.1169992  53.9079978  52.6380014 138.2762138  53.9444160  52.8606415
 142.5239992  55.2209978  55.9000014 142.7079992  54.8879978  56.7780014
 143.3699992  55.5309978  55.5780014 142.6636484  55.2172979  55.9767617
 144.8689992  56.5069978  55.1440014 145.5459992  55.8739978  54.9040014
 145.1899992  56.9079978  55.9510014 145.0051323  56.4745691  55.2203158
 135.6139992  57.0789978  52.9880014 134.8939992  57.5189978  52.5370014
 135.2489992  56.8279978  53.8360014 135.4659643  57.1053369  53.0409129
 138.0809992  56.6789978  52.0180014 137.2169992  56.7509978  52.4220014
 138.0259992  57.2259978  51.2340014 137.9551942  56.7627849  51.9674000
 142.7919992  56.5669978  51.1930014 142.3349992  57.0959978  50.5390014
 142.9549992  57.1699978  51.9180014 142.7514960  56.7209280  51.2015274
 145.1199992  55.4449978  52.1380014 144.2149992  55.6099978  51.8720014
 145.5479992  56.2979978  52.0720014 145.0541537  55.5829134  52.0927095
 135.0289992  55.7019978  49.8980014 135.0109992  55.2759978  50.7550014
 135.8339992  55.3829978  49.4890014 135.1352875  55.6006435  49.9599515
 137.1699992  54.4119978  48.5530014 136.9509992  53.4949978  48.7230014
 137.9939992  54.5519978  49.0190014 137.2514702  54.3055511  48.6392527
 139.7069992  54.8819978  49.4020014 139.9199992  53.9939978  49.1150014
 139.7719992  54.8469978  50.3560014 139.7449149  54.7558326  49.4917369
 143.2159992  40.5459978  48.5460014 142.5419992  39.9159978  48.8020014
 143.7799992  40.0619978  47.9430014 143.2000384  40.3943708  48.4995020
 135.5429992  39.1799978  46.3680014 134.7659992  38.9449978  45.8610014
 136.0729992  38.3829978  46.3770014 135.5083451  39.0401268  46.2998627
 134.3789992  38.9779978  42.1720014 134.8179992  39.5889978  41.5800014
 133.7449992  39.5159978  42.6460014 134.3533859  39.1344064  42.1550305
 140.1219992  39.1059978  46.1810014 140.9959992  39.4949978  46.1520014
 139.9859992  38.8909978  47.1040014 140.2231953  39.1301643  46.3017617
 134.2799992  54.9259978  43.0690014 133.5949992  54.8879978  42.4020014
 134.2839992  55.8389978  43.3570014 134.1867621  55.0441924  43.0166126
 136.2399992  40.8939978  40.6140014 136.7309992  40.2639978  40.0870014
 136.8629992  41.1899978  41.2770014 136.3915304  40.8477376  40.6314940
 141.2659992  41.1869978  43.0710014 141.4439992  40.5399978  43.7540014
 141.2119992  42.0209978  43.5380014 141.2830678  41.2111604  43.2276301
 143.1439992  56.1349978  41.4670014 144.0099992  56.5019978  41.2890014
 142.8979992  55.6959978  40.6530014 143.2292097  56.1258525  41.3326019
 135.4999992  39.6939978  55.8860014 135.1339992  38.9279978  56.3280014
 136.4129992  39.7229978  56.1720014 135.5733172  39.5930324  55.9851890
 137.4729992  39.0439978  57.4210014 138.3719992  38.7699978  57.2370014
 137.0869992  38.3019978  57.8860014 137.5437307  38.9062196  57.4587098
 136.0979992  55.8459978  40.0940014 135.8299992  56.1319978  40.9680014
 136.8689992  55.2999978  40.2470014 136.1655926  55.8112779  40.2341205
  12.6289992  67.1919978  46.3270014  12.7179992  68.1359978  46.1950014
  11.9909992  66.9169978  45.6690014  12.5549062  67.2839812  46.2199641
  11.5619992  66.4469978  49.7460014  11.5239992  65.8009978  50.4510014
  11.2399992  65.9799978  48.9750014  11.5132679  66.2954276  49.7382921
   3.9299992  66.0609978  51.3390014   3.9719992  65.4359978  52.0620014
   4.6329992  66.6849978  51.5210014   4.0307345  66.0597873  51.4625274
  15.2679992  69.3859978  48.0470014  14.8269992  68.6659978  48.4980014
  15.2549992  70.1069978  48.6770014  15.2059215  69.3849291  48.1938105
   4.8539992  70.5109978  49.8740014   4.4839992  69.7089978  49.5040014
   5.7949992  70.3429978  49.9200014   4.9305984  70.3784638  49.8295603
   1.4639992  64.1709978  45.2660014   1.0159992  65.0169978  45.2480014
   0.9029992  63.5919978  44.7510014   1.3268546  64.2083993  45.1938891
   2.1739992  66.3329978  47.3920014   2.3879992  65.5629978  47.9200014
   2.9119992  66.4229978  46.7890014   2.3030200  66.2398587  47.3827035
  12.3799992  74.4899978  48.2590014  12.9989992  73.8139978  47.9860014
  12.1709992  74.2719978  49.1680014  12.4366056  74.3678869  48.3443967
   9.9509992  68.8789978  50.1520014  10.2549992  68.1929978  49.5570014
  10.6729992  68.9979978  50.7700014  10.0901240  68.8012314  50.1540959
  18.6139992  60.4809978  51.0120014  18.6639992  61.0909978  51.7480014
  19.0399992  60.9419978  50.2890014  18.6784108  60.6267709  51.0150112
  13.0919992  63.2729978  50.4790014  13.2349992  62.3269978  50.4990014
  12.9859992  63.4799978  49.5510014  13.0972403  63.1714797  50.3562239
   6.2469992  61.3749978  47.7520014   6.2899992  62.2349978  47.3330014
   5.7889992  60.8229978  47.1180014   6.1909871  61.4179245  47.6090761
  13.9689992  61.5059978  46.1530014  14.6159992  61.1769978  46.7770014
  14.4789992  62.0229978  45.5300014  14.1264351  61.5309067  46.1541037
   2.8669992  63.7719978  48.5140014   3.5209992  63.2219978  48.9460014
   2.8909992  63.4979978  47.5970014   2.9597199  63.6597167  48.4491668
   8.0239992  65.3219978  47.7290014   8.6399992  64.7949978  48.2380014
   7.4369992  64.6819978  47.3250014   8.0290154  65.1633954  47.7440945
  19.0059992  61.9589978  53.2480014  18.3169992  62.6169978  53.1530014
  19.0209992  61.7609978  54.1850014  18.9137756  62.0222603  53.3615812
   5.0569992  60.2929978  51.8260014   4.8379992  60.8229978  51.0590014
   4.3889992  60.5189978  52.4730014   4.9366975  60.3960967  51.8085140
  12.4259992  69.7929978  45.3700014  12.1309992  69.4699978  44.5180014
  12.1019992  70.6929978  45.4110014  12.3418460  69.8704464  45.2589714
   7.6259992  67.9679978  52.1130014   6.8859992  68.5669978  52.2170014
   8.3399992  68.5219978  51.7980014   7.6213500  68.1247829  52.0846371
  15.7329992  60.7969978  48.1330014  15.5179992  60.0309978  48.6660014
  16.3889992  61.2689978  48.6460014  15.7922673  60.7560728  48.2751990
   4.6509992  62.1849978  49.7780014   5.2649992  62.8179978  50.1510014
   5.1629992  61.7129978  49.1220014   4.8041962  62.2077249  49.7402935
   6.0339992  69.9329978  52.9000014   6.0279992  70.8119978  52.5220014
   5.1799992  69.8489978  53.3250014   5.9177925  70.0419535  52.9056887
   2.1549992  69.6039978  43.6820014   1.8829992  69.8329978  42.7940014
   2.1999992  70.4409978  44.1430014   2.1238097  69.7486163  43.6226683
  15.7799992  71.2249978  50.3950014  14.8379992  71.2839978  50.5570014
  16.0559992  72.1309978  50.2580014  15.6885865  71.3555288  50.3986192
  16.0799992  59.5119978  51.8120014  15.3439992  60.1219978  51.7750014
  16.7639992  59.9269978  51.2860014  16.0715367  59.6517551  51.7358174
   9.0839992  57.5979978  49.2780014   8.9659992  56.6499978  49.2240014
   8.2289992  57.9309978  49.5510014   8.9522805  57.5132202  49.3075079
  14.0319992  73.0059978  47.0200014  14.4569992  72.2989978  46.5350014
  14.3489992  73.8079978  46.6030014  14.1330266  73.0175190  46.8972479
  15.1919992  70.9069978  45.5290014  14.9339992  70.2169978  44.9170014
  15.2629992  70.4639978  46.3740014  15.1663050  70.7526814  45.5595621
  16.8779992  69.4739978  54.0060014  17.0169992  68.8819978  53.2670014
  17.0449992  70.3469978  53.6500014  16.9196193  69.5108896  53.8566211
  11.3499992  66.4359978  43.7790014  10.6389992  66.9709978  43.4270014
  12.0409992  66.4909978  43.1190014  11.3460751  66.5166777  43.6415858
  11.4039992  64.8929978  40.8170014  12.1049992  64.9159978  41.4690014
  11.7059992  64.2649978  40.1610014  11.5408202  64.8112212  40.8175609
  18.7189992  65.8139978  52.0720014  18.0669992  66.5079978  52.1610014
  19.1849992  66.0239978  51.2620014  18.6925937  65.9375019  51.9747533
  14.7559992  66.6449978  44.7300014  14.0239992  66.8739978  45.3040014
  15.2029992  65.9319978  45.1850014  14.7163963  66.5798729  44.8699945
  14.6529992  64.8199978  53.7980014  14.7329992  65.5829978  54.3700014
  14.0519992  65.0989978  53.1080014  14.5826547  64.9622457  53.7830047
   6.4009992  67.2759978  46.6130014   6.0709992  66.9049978  45.7950014
   6.9899992  66.6049978  46.9600014   6.4353970  67.1346063  46.5479404
   7.7679992  70.7039978  49.2940014   7.6729992  70.1249978  48.5380014
   8.4969992  70.3329978  49.7900014   7.8536011  70.5745561  49.2576028
   6.7679992  66.0439978  50.2460014   7.3329992  66.1659978  49.4840014
   7.0869992  66.6819978  50.8850014   6.8884166  66.1468791  50.2280348
  13.0769992  71.5479978  50.9800014  12.8369992  72.2099978  51.6280014
  12.8789992  70.7129978  51.4050014  13.0173826  71.5258115  51.1261566
   7.6479992  70.4439978  54.9640014   7.3369992  71.2259978  55.4190014
   6.9979992  70.2909978  54.2780014   7.5175538  70.5304087  54.9335898
  13.6269992  65.8079978  42.4160014  14.2059992  65.9579978  43.1620014
  14.0409992  66.2779978  41.6920014  13.7623358  65.8920955  42.4203953
   4.5679992  66.6419978  54.1920014   4.6379992  67.2929978  54.8910014
   3.6769992  66.7449978  53.8570014   4.4571690  66.7449249  54.2423043
  11.3529992  72.5439978  45.8510014  11.8269992  72.8399978  46.6280014
  10.7899992  73.2829978  45.6180014  11.3417890  72.6843036  45.9258101
   5.8869992  72.5149978  55.7270014   5.8949992  72.3789978  54.7800014
   4.9709992  72.3979978  55.9790014   5.7642528  72.4805463  55.6313243
  17.3259992  57.5579978  42.2290014  16.4259992  57.6969978  42.5240014
  17.5779992  58.3889978  41.8270014  17.2368683  57.6894055  42.2150232
   5.3919992  66.3449978  44.2020014   5.0999992  67.1129978  43.7110014
   4.7169992  65.6859978  44.0390014   5.2608497  66.3609745  44.1128260
  18.5149992  71.9239978  40.6050014  18.5879992  72.8629978  40.7750014
  19.4199992  71.6189978  40.5490014  18.6474170  72.0113282  40.6207063
   1.4849992  68.7079978  53.0170014   0.9829992  68.6799978  52.2020014
   1.4899992  67.8029978  53.3270014   1.4169832  68.5817486  52.9474121
   1.2349992  71.4889978  49.9010014   2.1809992  71.3439978  49.8820014
   1.1219992  72.2729978  50.4380014   1.3493578  71.5751697  49.9710317
  19.4329992  72.1549978  55.5840014  19.3829992  71.1989978  55.5460014
  18.6059992  72.4219978  55.9850014  19.3143831  72.0604680  55.6330121
  10.4109992  71.7289978  54.4600014  10.4989992  72.5549978  54.9350014
   9.5479992  71.3989978  54.7090014  10.3063357  71.7975468  54.5587653
  10.8259992  75.5009978  44.2660014  10.7499992  75.3799978  43.3190014
  10.8579992  76.4499978  44.3840014  10.8199380  75.6127677  44.1525181
   4.4789992  74.2899978  46.0470014   4.6309992  73.9419978  46.9250014
   3.6279992  73.9329978  45.7910014   4.3848344  74.1940879  46.1326868
  13.9269992  74.6549978  41.2680014  14.3019992  73.9109978  40.7970014
  13.9319992  74.3849978  42.1860014  13.9790098  74.5166392  41.3276629
  13.5959992  74.5809978  44.0170014  12.6609992  74.6809978  44.1960014
  13.8759992  73.8709978  44.5960014  13.5059471  74.4987933  44.1196695
  16.5849992  63.6479978  56.0640014  16.1769992  64.1279978  55.3430014
  16.6249992  62.7419978  55.7560014  16.5346221  63.5912449  55.9238267
   3.7339992  70.0319978  54.0600014   3.9499992  69.6699978  54.9200014
   2.8779992  69.6569978  53.8510014   3.6478810  69.9318837  54.1492680
   6.3519992  58.5019978  50.0560014   5.4909992  58.4149978  49.6480014
   6.3299992  59.3579978  50.4840014   6.2310491  58.6058003  50.0579582
  11.0149992  58.2239978  53.4310014  11.4349992  57.8089978  54.1840014
  10.0819992  58.0449978  53.5480014  10.9463736  58.1429910  53.5498968
  14.3419992  61.9789978  54.2840014  13.8279992  61.8539978  55.0820014
  14.1859992  62.8919978  54.0400014  14.2506967  62.0852123  54.3600937
  15.1039992  66.8399978  40.0450014  15.1459992  66.6179978  39.1150014
  15.9529992  67.2389978  40.2350014  15.2245253  66.8635498  39.9433822
  10.6769992  60.7159978  40.7160014  10.4229992  60.7349978  41.6380014
  10.4199992  59.8449978  40.4140014  10.6074508  60.6008280  40.8014803
   6.4429992  63.4669978  51.1510014   5.8019992  63.4269978  51.8600014
   6.4809992  64.3939978  50.9130014   6.3603010  63.5867668  51.2159946
   6.4399992  63.6879978  46.0630014   5.5479992  63.3479978  46.0040014
   6.8909992  63.3109978  45.3070014   6.3787642  63.5904910  45.9527726
  11.9759992  64.1039978  44.8800014  11.5669992  64.9189978  44.5880014
  12.6959992  63.9639978  44.2660014  12.0174439  64.1965372  44.7570115
  11.0779992  64.2799978  56.3680014  10.5149992  63.5749978  56.6890014
  11.9039992  64.1589978  56.8360014  11.1126674  64.1672165  56.4751751
  12.9809992  63.5499978  47.6940014  12.7849992  64.1559978  46.9790014
  13.1619992  62.7169978  47.2600014  12.9786584  63.5202513  47.5374212
   4.1929992  63.7879978  53.0180014   4.1549992  64.1879978  53.8870014
   3.7029992  62.9709978  53.1080014   4.1215330  63.7322674  53.1491289
   7.5589992  61.1619978  39.8170014   7.1279992  60.7169978  40.5460014
   6.8409992  61.5329978  39.3040014   7.4029176  61.1512051  39.8474930
   0.8019992  60.9039978  46.8690014   1.4319992  60.8749978  47.5880014
   1.2509992  60.4789978  46.1380014   0.9490835  60.8425660  46.8687659
   2.0759992  61.6499978  42.2930014   2.5499992  62.2409978  41.7080014
   1.3579992  62.1799978  42.6400014   2.0438640  61.8025511  42.2597969
  12.2449992  65.1879978  52.3650014  12.5679992  64.5569978  51.7220014
  11.8039992  64.6539978  53.0260014  12.2296379  65.0293468  52.3662582
   9.0219992  61.1159978  47.1490014   8.1109992  61.1729978  47.4380014
   9.5269992  61.0559978  47.9600014   8.9656873  61.1156826  47.2981207
   3.8499992  62.7449978  45.9760014   2.9609992  62.8439978  45.6360014
   4.1469992  61.9029978  45.6300014   3.7684177  62.6447687  45.8826940
   7.5029992  62.7449978  43.6330014   8.4349992  62.8739978  43.8110014
   7.2879992  63.4139978  42.9830014   7.6014472  62.8530806  43.5694891
  13.4269992  60.3509978  50.4140014  12.7499992  60.4819978  51.0770014
  12.9419992  60.1959978  49.6030014  13.2687405  60.3479947  50.3952170
   6.1769992  63.9389978  41.1990014   5.6349992  63.5599978  40.5080014
   7.0109992  64.1339978  40.7710014   6.2154390  63.9134079  41.0464392
  16.7149992  76.0219978  56.6900014  16.9139992  76.4459978  55.8560014
  17.3699992  76.3659978  57.2970014  16.8308522  76.1266301  56.6577852
   4.3129992  68.4959978  56.2980014   5.0449992  68.7509978  56.8600014
   3.5319992  68.7009978  56.8140014   4.3076526  68.5585450  56.4445176
  10.3419992  63.9029978  49.0360014  10.9059992  63.3569978  48.4890014
  10.1939992  63.3819978  49.8250014  10.3993037  63.7576787  49.0677229
   5.3439992  60.0399978  45.4550014   5.0269992  59.1369978  45.4190014
   6.1249992  60.0419978  44.9020014   5.4062431  59.9167797  45.3753102
   8.9679992  62.2919978  51.4500014   8.1329992  62.7459978  51.5610014
   9.4919992  62.5679978  52.2020014   8.9246072  62.3913948  51.5668136
   9.5129992  68.5049978  43.1350014   8.7679992  67.9969978  42.8130014
   9.3779992  68.5539978  44.0810014   9.3928963  68.4421731  43.2188826
  16.6629992  67.6379978  51.9220014  17.3039992  68.0939978  51.3780014
  15.8319992  67.7509978  51.4590014  16.6385287  67.7156921  51.7849887
  13.4099992  61.3189978  41.3340014  12.4719992  61.4299978  41.1830014
  13.7079992  62.1749978  41.6410014  13.3216318  61.4500158  41.3548145
  11.0319992  68.6889978  54.3720014  10.6859992  68.3069978  55.1790014
  10.8319992  69.6219978  54.4430014  10.9575987  68.7629002  54.4920461
  14.1289992  63.1859978  42.9950014  15.0209992  63.0479978  43.3140014
  14.1849992  63.9769978  42.4580014  14.2587325  63.2739918  42.9661217
   4.6369992  67.7999978  48.9050014   5.3819992  67.7969978  48.3030014
   4.7149992  66.9759978  49.3860014   4.7493365  67.6882384  48.8877430
  11.6379992  69.9629978  42.1600014  11.3429992  70.7899978  42.5420014
  10.9349992  69.3439978  42.3570014  11.5026379  69.9924171  42.2388654
   1.6449992  66.2599978  54.2200014   1.8679992  65.8419978  55.0510014
   1.0429992  65.6479978  53.7970014   1.5941513  66.1199606  54.2766740
   8.6619992  65.7769978  56.4330014   8.3659992  65.6119978  55.5370014
   9.5929992  65.5569978  56.4220014   8.7474401  65.7246879  56.3090206
  13.2819992  71.1509978  54.3220014  12.3819992  71.3339978  54.0550014
  13.3159992  71.4099978  55.2430014  13.1633748  71.2110554  54.4099164
  19.0139992  63.3949978  42.6900014  18.4589992  62.9989978  42.0170014
  19.1139992  64.3059978  42.4120014  18.9516816  63.4639505  42.5605033
  18.9769992  69.1959978  55.5270014  18.1259992  69.4339978  55.1590014
  19.5669992  69.1789978  54.7740014  18.9403812  69.2262524  55.3748453
  17.3089992  72.1809978  43.1550014  16.9359992  71.3559978  43.4640014
  17.5859992  71.9979978  42.2570014  17.2953463  72.0432569  43.0759525
  14.4689992  66.9889978  50.1760014  13.5409992  66.7579978  50.1490014
  14.9199992  66.2119978  49.8460014  14.4028165  66.8522774  50.1276790
   7.0119992  71.3179978  46.3090014   7.5399992  72.0909978  46.1090014
   6.1319992  71.5419978  46.0070014   6.9653435  71.4542700  46.2407310
   2.7669992  66.1799978  40.8960014   3.3829992  66.8069978  41.2760014
   1.9049992  66.4959978  41.1680014   2.7347678  66.3084412  40.9847209
   8.4399992  68.9809978  45.8850014   8.1989992  69.9059978  45.9270014
   7.6989992  68.5219978  46.2820014   8.3069206  69.0455915  45.9443769
   8.9539992  73.1299978  52.2000014   9.3169992  73.9839978  51.9670014
   9.4859992  72.8379978  52.9410014   9.0755141  73.2073895  52.2682097
   7.1229992  74.0019978  45.4310014   6.1729992  74.1079978  45.4820014
   7.4749992  74.8229978  45.7750014   7.0405472  74.1274923  45.4844852
  12.4979992  69.2289978  51.9010014  12.0729992  69.0009978  52.7270014
  13.0789992  68.4899978  51.7190014  12.5183395  69.0979545  51.9894414
  14.7009992  70.1579978  40.9750014  15.0549992  69.7779978  41.7790014
  13.7529992  70.0639978  41.0620014  14.6212298  70.0932452  41.0968687
  15.1569992  73.7809978  54.3700014  14.5549992  73.2249978  53.8750014
  15.4379992  74.4479978  53.7440014  15.1125757  73.7950744  54.2175675
  19.2049992  74.6369978  41.1760014  19.9489992  75.2229978  41.0360014
  18.5109992  75.2059978  41.5090014  19.2129809  74.7940818  41.2018590
   3.2789992  61.0139978  53.7780014   2.3869992  61.3519978  53.7100014
   3.1809992  60.1579978  54.1960014   3.1434475  60.9446543  53.8251704
  15.5669992  68.8299978  43.2020014  15.2899992  68.1019978  43.7580014
  16.4949992  68.9489978  43.4070014  15.6544499  68.7464213  43.3058044
   2.9309992  72.8179978  52.2130014   3.1479992  71.8859978  52.1820014
   3.1769992  73.0929978  53.0960014   2.9939809  72.7275686  52.3281691
   8.7919992  71.2699978  39.4220014   9.0309992  70.5209978  38.8750014
   8.5229992  70.8819978  40.2550014   8.7883233  71.1151853  39.4597809
   7.7289992  70.8399978  41.8780014   7.8759992  70.3199978  42.6680014
   7.7259992  71.7469978  42.1850014   7.7487102  70.8913953  42.0275925
   4.1819992  68.0919978  42.3890014   3.4959992  68.4449978  42.9560014
   4.7049992  68.8549978  42.1420014   4.1588402  68.2433901  42.4331801
  12.0139992  60.7549978  52.6680014  12.7129992  60.8289978  53.3180014
  11.6329992  59.8899978  52.8220014  12.0582097  60.6482389  52.7777997
  12.7979992  60.4069978  43.7650014  13.0179992  60.8779978  42.9610014
  13.3569992  60.8009978  44.4350014  12.9036732  60.5247287  43.7455033
  10.4669992  72.5369978  42.6280014   9.6499992  73.0339978  42.6800014
  10.9959992  73.0129978  41.9870014  10.4268125  72.6691989  42.5485306
   9.9979992  62.1349978  44.6000014  10.8099992  62.6389978  44.6460014
   9.7539992  61.9899978  45.5140014  10.0761467  62.1843749  44.7298575
  10.5339992  63.1209978  53.7840014  10.6529992  63.6949978  54.5410014
  11.1889992  62.4329978  53.8990014  10.6388684  63.1065194  53.9031674
  10.8819992  59.2159978  45.5380014  10.5349992  59.8329978  46.1820014
  11.5409992  59.7169978  45.0560014  10.9235090  59.3681575  45.5610681
   7.8049992  73.5809978  42.6090014   7.9659992  74.3809978  42.1090014
   7.6079992  73.8879978  43.4940014   7.8003906  73.7318678  42.6602333
   6.5399992  60.2789978  42.2250014   6.4559992  61.1669978  42.5720014
   7.4299992  60.0139978  42.4570014   6.6488163  60.3647179  42.3038596
  16.7379992  61.0279978  54.6190014  15.8219992  61.2899978  54.5320014
  17.0739992  61.0249978  53.7230014  16.6578499  61.0635163  54.4858766
  15.3409992  64.7779978  48.7150014  14.5429992  64.3629978  48.3870014
  15.7859992  64.0879978  49.2060014  15.2919684  64.6278628  48.7365227
   4.7979992  70.7059978  41.2850014   5.3899992  71.4059978  41.5620014
   5.2569992  70.2729978  40.5660014   4.9411652  70.7432675  41.2256533
   3.1139992  63.3709978  40.4010014   3.0689992  64.3099978  40.5800014
   2.2259992  63.1349978  40.1320014   2.9878166  63.4676687  40.3891524
  16.4269992  74.0339978  50.3370014  16.2709992  74.7129978  49.6800014
  17.3599992  74.1059978  50.5400014  16.5317387  74.1366390  50.2745342
   3.9219992  58.1519978  49.0750014   3.6929992  58.2109978  48.1470014
   3.4799992  57.3609978  49.3810014   3.8308801  58.0530540  48.9894729
   2.8529992  72.0929978  45.2350014   2.0199992  72.5649978  45.2620014
   3.3979992  72.6029978  44.6360014   2.8127857  72.2264791  45.1577142
   2.1409992  74.7049978  56.5650014   2.6809992  74.4889978  57.3250014
   1.6599992  73.8999978  56.3750014   2.1499219  74.5665156  56.6434282
   6.7379992  73.6249978  58.1850014   7.5059992  73.1659978  58.5260014
   6.7169992  73.3989978  57.2550014   6.8402135  73.5316668  58.1059491
  10.8299992  73.1329978  39.5610014  10.1859992  72.5019978  39.8820014
  11.5919992  72.6019978  39.3290014  10.8448058  72.9747902  39.5736038
  13.3149992  72.0049978  56.9140014  12.9639992  71.1479978  57.1580014
  14.0409992  72.1469978  57.5210014  13.3651895  71.9071351  57.0293770
  15.4349992  72.9499978  39.7940014  15.7179992  72.1549978  40.2470014
  16.1739992  73.1829978  39.2330014  15.5737096  72.8727049  39.7801104
   2.0479992  68.5159978  57.5190014   2.1919992  67.6139978  57.2330014
   1.2759992  68.8019978  57.0320014   1.9632733  68.4311798  57.4139532
   6.3889992  68.8589978  39.6520014   6.4539992  68.0649978  40.1820014
   7.0419992  68.7409978  38.9620014   6.4861605  68.7343430  39.6312997
   8.7029992  68.4849978  56.9520014   8.3749992  68.7559978  56.0950014
   8.8549992  67.5439978  56.8640014   8.6786412  68.3949046  56.8227822
  11.7419992  69.9059978  39.3880014  11.4729992  70.0869978  40.2880014
  11.5349992  68.9809978  39.2560014  11.6771191  69.8057119  39.4935524
  14.4379992  68.4009978  54.3350014  15.1829992  68.9899978  54.2160014
  13.6809992  68.9829978  54.3990014  14.4375470  68.5602128  54.3273799
   2.8809992  65.7159978  56.9390014   3.2889992  64.8589978  56.8180014
   2.6199992  65.7299978  57.8600014   2.9016016  65.6005119  57.0469192
   7.5389992  66.8319978  41.9580014   7.0789992  66.3479978  42.6430014
   7.7939992  66.1629978  41.3220014   7.5104856  66.6753669  41.9658397
   6.8279992  64.7249978  54.3140014   6.2089992  65.3989978  54.5940014
   7.1719992  65.0459978  53.4800014   6.7897123  64.8606887  54.2396388
   8.6099992  65.0749978  40.2200014   8.4289992  64.9199978  39.2930014
   9.5599992  65.1829978  40.2650014   8.7136566  65.0683669  40.0990929
  11.8469992  67.1959978  57.5910014  12.8009992  67.2799978  57.5640014
  11.6869992  66.4839978  58.2110014  11.9557182  67.1112842  57.6710733
  17.9999992  67.4289978  39.6660014  17.7259992  67.0049978  38.8530014
  18.0389992  68.3609978  39.4490014  17.9677716  67.4968827  39.5254286
   7.1669992  62.0799978  55.3960014   7.3169992  61.3509978  54.7940014
   7.1689992  62.8569978  54.8370014   7.1877967  62.0852708  55.2380541
   7.5799992  60.4489978  52.8890014   8.1149992  60.9009978  52.2370014
   6.7269992  60.3409978  52.4660014   7.5380374  60.4962665  52.7426710
   9.1609992  65.8889978  53.1280014   9.9119992  65.7329978  52.5550014
   8.8219992  66.7409978  52.8530014   9.2179587  65.9828138  53.0124078
  13.5769992  63.7039978  58.1570014  13.7689992  62.7729978  58.0450014
  14.4349992  64.1289978  58.1460014  13.7192182  63.6340070  58.1401862
  14.8939992  66.4929978  56.2340014  14.6119992  67.2019978  55.6560014
  15.8359992  66.4199978  56.0830014  14.9827921  66.5802193  56.1344225
   5.6459992  63.2779978  57.3070014   4.8779992  62.7449978  57.0970014
   6.3239992  62.9679978  56.7080014   5.6327235  63.1631754  57.1972413
   8.3849992  57.9059978  53.3200014   8.2869992  58.8519978  53.2150014
   7.6429992  57.5329978  52.8440014   8.2712534  57.9851773  53.2412600
   9.6489992  62.2269978  56.8840014   9.4139992  62.0079978  57.7850014
   8.8659992  62.0199978  56.3740014   9.5109095  62.1689892  56.9385353
  12.3649992  61.3549978  55.9590014  11.4169992  61.3869978  56.0910014
  12.6769992  60.7289978  56.6130014  12.2775293  61.2747923  56.0654148
  13.9989992  59.9889978  57.9640014  13.9019992  59.0369978  57.9590014
  13.6769992  60.2569978  58.8250014  13.9422468  59.8950884  58.0796210
   3.8259992  61.1979978  57.0120014   4.0379992  60.4919978  56.4020014
   3.7149992  60.7609978  57.8560014   3.8400269  61.0421921  57.0425873
   8.6069992  57.1999978  55.9910014   9.3189992  56.5599978  55.9770014
   8.5059992  57.4659978  55.0780014   8.6907387  57.1484330  55.8655563
   8.9609992  58.8819978  58.0450014   8.8289992  58.4069978  57.2250014
   8.3609992  59.6269978  57.9900014   8.8619070  58.9175789  57.9253251
   8.5069992  75.7649978  41.2210014   9.4399992  75.9229978  41.3650014
   8.2429992  76.4409978  40.5960014   8.5989911  75.8779373  41.1562722
   2.0749992  70.4019978  40.7040014   2.9889992  70.4809978  40.9770014
   2.0829992  69.7149978  40.0380014   2.2010655  70.3199205  40.6512917
   0.7239992  75.7949978  45.7810014   0.0769992  75.3329978  45.2490014
   1.0789992  75.1229978  46.3640014   0.6833741  75.6409774  45.7869175
   1.5939992  73.8749978  47.5860014   1.2599992  72.9949978  47.7580014
   1.8169992  74.2209978  48.4510014   1.5783721  73.8011938  47.7264168
  19.1429992  74.6849978  50.5670014  19.1209992  74.8699978  51.5060014
  19.8329992  75.2529978  50.2260014  19.2333439  74.7871887  50.6494791
  18.7059992  74.2519978  53.4880014  18.2189992  73.5169978  53.1170014
  19.2549992  73.8579978  54.1660014  18.7135247  74.0981057  53.5288461
  17.1569992  70.0419978  58.1270014  16.2909992  69.9369978  58.5210014
  17.5329992  70.7999978  58.5730014  17.0893401  70.1301708  58.2412620
  18.4579992  68.2979978  43.6410014  19.3079992  68.7189978  43.7680014
  18.4629992  67.5579978  44.2480014  18.5751143  68.2556094  43.7404750
  18.8519992  66.3519978  45.4640014  18.1259992  65.8719978  45.8620014
  19.4339992  66.5569978  46.1970014  18.8312730  66.3140184  45.6174149
  18.6109992  69.1369978  50.4120014  19.4449992  68.7589978  50.1310014
  18.7229992  70.0799978  50.2930014  18.7401917  69.2127943  50.3574861
  17.0979992  72.0149978  52.7190014  16.4499992  72.3399978  53.3440014
  16.5799992  71.5739978  52.0450014  16.9394196  71.9998651  52.7134152
  19.1209992  66.2529978  41.8550014  18.5989992  66.6089978  41.1370014
  19.0879992  66.9279978  42.5340014  19.0450129  66.3929598  41.8483355
  17.4699992  63.4919978  40.4060014  17.5659992  64.1589978  39.7260014
  17.3299992  62.6769978  39.9250014  17.4642040  63.4730671  40.2478378
  16.6389992  64.8729978  46.0270014  16.4889992  63.9279978  46.0070014
  16.2849992  65.1539978  46.8710014  16.5706351  64.7816644  46.1383220
   1.6739992  66.9509978  50.0380014   1.8589992  66.8689978  49.1020014
   2.5239992  66.8269978  50.4610014   1.8140928  66.9230463  49.9672893
  17.4949992  66.8429978  55.6660014  18.0779992  66.1079978  55.8580014
  18.0589992  67.6149978  55.7130014  17.6509781  66.8468145  55.6986164
  18.9919992  64.7459978  56.3510014  18.1289992  64.3669978  56.1850014
  19.5959992  64.0069978  56.2760014  18.9556085  64.5943223  56.3181694
  16.7169992  60.8999978  39.5240014  17.3279992  60.5289978  40.1610014
  15.8799992  60.4789978  39.7200014  16.6874947  60.7922756  39.6377252
  16.3499992  62.4549978  44.4900014  16.6289992  61.5479978  44.6140014
  17.1089992  62.8889978  44.1010014  16.4908619  62.3894502  44.4543795
  16.9609992  63.0369978  49.9260014  17.8939992  63.2489978  49.8910014
  16.7259992  63.1379978  50.8480014  17.0569517  63.0796833  50.0459130
  16.9909992  63.7739978  52.7020014  16.1479992  64.0419978  53.0680014
  17.4329992  64.5959978  52.4910014  16.9354138  63.9218273  52.7235518
   1.2719992  62.2209978  56.1780014   2.1909992  62.0989978  56.4150014
   0.8219992  61.4709978  56.5680014   1.3370087  62.1029608  56.2631410
  19.2739992  57.7539978  58.0550014  19.6229992  57.0999978  57.4500014
  19.4209992  58.5909978  57.6150014  19.3416824  57.7776024  57.9126304
  16.9629992  59.7179978  44.5380014  17.1449992  59.2689978  45.3630014
  16.3629992  59.1339978  44.0740014  16.9068187  59.5775552  44.5882739
   2.4929992  60.5339978  49.0700014   2.9379992  59.7419978  49.3720014
   2.9589992  61.2499978  49.5000014   2.6169718  60.5224534  49.1695265
   0.7969992  63.5329978  50.1390014   1.2889992  63.3119978  49.3480014
   1.1589992  64.3729978  50.4200014   0.9132923  63.6163468  50.0687407
  18.7929992  59.8629978  56.4040014  17.8759992  60.1339978  56.3690014
  18.9159992  59.3279978  55.6200014  18.6839672  59.8277885  56.2931862
  18.8299992  59.7859978  41.0660014  19.2419992  59.0649978  40.5910014
  19.5109992  60.4549978  41.1240014  18.9785536  59.7777766  41.0088024
   1.1109992  59.7909978  44.1930014   0.1859992  59.9989978  44.0640014
   1.5649992  60.2749978  43.5030014   1.0456298  59.8849299  44.0820451
  15.8809992  74.7749978  46.1390014  16.5339992  74.4269978  45.5310014
  16.3919992  75.2629978  46.7850014  16.0392777  74.7933815  46.1432047
   1.0739992  58.5289978  52.5370014   0.4089992  58.2829978  53.1800014
   0.6309992  59.1509978  51.9600014   0.9231168  58.5794214  52.5469848
   3.2659992  71.7039978  56.6820014   2.4449992  71.8789978  56.2210014
   3.0139992  71.6309978  57.6020014   3.1195594  71.7180717  56.7433611
   6.2199992  72.6779978  52.9400014   5.7959992  73.4879978  52.6580014
   7.1249992  72.7639978  52.6380014   6.2842138  72.8004160  52.8606415
  10.5319992  74.0769978  55.9000014  10.7159992  73.7439978  56.7780014
  11.3779992  74.3869978  55.5780014  10.6716484  74.0732979  55.9767617
  12.8769992  75.3629978  55.1440014  13.5539992  74.7299978  54.9040014
  13.1979992  75.7639978  55.9510014  13.0131323  75.3305691  55.2203158
  17.7939992  57.9529978  54.2230014  16.9809992  58.2779978  53.8360014
  18.0269992  57.1919978  53.6900014  17.7141347  57.8946880  54.0979841
   3.6219992  75.9349978  52.9880014   2.9019992  76.3749978  52.5370014
   3.2569992  75.6839978  53.8360014   3.4739643  75.9613369  53.0409129
   6.0889992  75.5349978  52.0180014   5.2249992  75.6069978  52.4220014
   6.0339992  76.0819978  51.2340014   5.9631942  75.6187849  51.9674000
  10.7999992  75.4229978  51.1930014  10.3429992  75.9519978  50.5390014
  10.9629992  76.0259978  51.9180014  10.7594960  75.5769280  51.2015274
  13.1279992  74.3009978  52.1380014  12.2229992  74.4659978  51.8720014
  13.5559992  75.1539978  52.0720014  13.0621537  74.4389134  52.0927095
  15.7319992  75.8709978  52.4330014  15.5499992  76.7869978  52.2220014
  15.9089992  75.4599978  51.5860014  15.7310030  75.9408273  52.2897166
   3.0369992  74.5579978  49.8980014   3.0189992  74.1319978  50.7550014
   3.8419992  74.2389978  49.4890014   3.1432875  74.4566435  49.9599515
   5.1779992  73.2679978  48.5530014   4.9589992  72.3509978  48.7230014
   6.0019992  73.4079978  49.0190014   5.2594702  73.1615511  48.6392527
   7.7149992  73.7379978  49.4020014   7.9279992  72.8499978  49.1150014
   7.7799992  73.7029978  50.3560014   7.7529149  73.6118326  49.4917369
  11.2239992  59.4019978  48.5460014  10.5499992  58.7719978  48.8020014
  11.7879992  58.9179978  47.9430014  11.2080384  59.2503708  48.4995020
  16.3669992  57.5089978  48.6590014  16.9699992  58.0569978  48.1570014
  15.4969992  57.8279978  48.4180014  16.3319157  57.6270373  48.5577910
  18.0939992  58.6479978  46.9920014  18.7049992  58.1339978  46.4650014
  18.4759992  59.5249978  47.0150014  18.2293305  58.6962050  46.9229418
   3.5509992  58.0359978  46.3680014   2.7739992  57.8009978  45.8610014
   4.0809992  57.2389978  46.3770014   3.5163451  57.8961268  46.2998627
   2.3869992  57.8339978  42.1720014   2.8259992  58.4449978  41.5800014
   1.7529992  58.3719978  42.6460014   2.3613859  57.9904064  42.1550305
   8.1299992  57.9619978  46.1810014   9.0039992  58.3509978  46.1520014
   7.9939992  57.7469978  47.1040014   8.2311953  57.9861643  46.3017617
  13.6869992  57.9919978  47.8310014  13.7629992  58.0879978  46.8810014
  13.4119992  57.0849978  47.9590014  13.6601871  57.8824146  47.7183944
  15.0399992  58.0179978  43.5230014  14.3369992  58.6329978  43.3130014
  14.5949992  57.1809978  43.6540014  14.8836550  57.9889668  43.5119837
   2.2879992  73.7819978  43.0690014   1.6029992  73.7439978  42.4020014
   2.2919992  74.6949978  43.3570014   2.1947621  73.9001924  43.0166126
   4.2479992  59.7499978  40.6140014   4.7389992  59.1199978  40.0870014
   4.8709992  60.0459978  41.2770014   4.3995304  59.7037376  40.6314940
   9.2739992  60.0429978  43.0710014   9.4519992  59.3959978  43.7540014
   9.2199992  60.8769978  43.5380014   9.2910678  60.0671604  43.2276301
  11.1519992  74.9909978  41.4670014  12.0179992  75.3579978  41.2890014
  10.9059992  74.5519978  40.6530014  11.2372097  74.9818525  41.3326019
  17.8609992  74.5539978  44.1460014  17.6669992  73.8059978  43.5810014
  17.8219992  75.3119978  43.5630014  17.8291645  74.5540786  43.9898148
   3.5079992  58.5499978  55.8860014   3.1419992  57.7839978  56.3280014
   4.4209992  58.5789978  56.1720014   3.5813172  58.4490324  55.9851890
   5.4809992  57.8999978  57.4210014   6.3799992  57.6259978  57.2370014
   5.0949992  57.1579978  57.8860014   5.5517307  57.7622196  57.4587098
   4.1059992  74.7019978  40.0940014   3.8379992  74.9879978  40.9680014
   4.8769992  74.1559978  40.2470014   4.1735927  74.6672779  40.2341205
  13.9029992  57.2329978  57.6040014  13.9789992  56.8069978  58.4570014
  14.7959992  57.2459978  57.2610014  14.0342303  57.1763493  57.6745497
  17.0789992  73.3059978  56.2960014  16.2969992  73.1189978  55.7760014
  17.0069992  74.2349978  56.5130014  16.9621924  73.4060637  56.2541602
  31.4849992  67.1919978  46.3270014  31.5739992  68.1359978  46.1950014
  30.8469992  66.9169978  45.6690014  31.4109062  67.2839812  46.2199641
  30.4179992  66.4469978  49.7460014  30.3799992  65.8009978  50.4510014
  30.0959992  65.9799978  48.9750014  30.3692679  66.2954276  49.7382921
  22.7859992  66.0609978  51.3390014  22.8279992  65.4359978  52.0620014
  23.4889992  66.6849978  51.5210014  22.8867345  66.0597873  51.4625274
  34.1239992  69.3859978  48.0470014  33.6829992  68.6659978  48.4980014
  34.1109992  70.1069978  48.6770014  34.0619215  69.3849291  48.1938105
  23.7099992  70.5109978  49.8740014  23.3399992  69.7089978  49.5040014
  24.6509992  70.3429978  49.9200014  23.7865984  70.3784638  49.8295603
  20.3199992  64.1709978  45.2660014  19.8719992  65.0169978  45.2480014
  19.7589992  63.5919978  44.7510014  20.1828546  64.2083993  45.1938891
  21.0299992  66.3329978  47.3920014  21.2439992  65.5629978  47.9200014
  21.7679992  66.4229978  46.7890014  21.1590200  66.2398587  47.3827035
  31.2359992  74.4899978  48.2590014  31.8549992  73.8139978  47.9860014
  31.0269992  74.2719978  49.1680014  31.2926056  74.3678869  48.3443967
  28.8069992  68.8789978  50.1520014  29.1109992  68.1929978  49.5570014
  29.5289992  68.9979978  50.7700014  28.9461240  68.8012314  50.1540959
  37.4699992  60.4809978  51.0120014  37.5199992  61.0909978  51.7480014
  37.8959992  60.9419978  50.2890014  37.5344108  60.6267709  51.0150112
  31.9479992  63.2729978  50.4790014  32.0909992  62.3269978  50.4990014
  31.8419992  63.4799978  49.5510014  31.9532403  63.1714797  50.3562239
  25.1029992  61.3749978  47.7520014  25.1459992  62.2349978  47.3330014
  24.6449992  60.8229978  47.1180014  25.0469871  61.4179245  47.6090761
  32.8249992  61.5059978  46.1530014  33.4719992  61.1769978  46.7770014
  33.3349992  62.0229978  45.5300014  32.9824351  61.5309067  46.1541037
  21.7229992  63.7719978  48.5140014  22.3769992  63.2219978  48.9460014
  21.7469992  63.4979978  47.5970014  21.8157199  63.6597167  48.4491668
  26.8799992  65.3219978  47.7290014  27.4959992  64.7949978  48.2380014
  26.2929992  64.6819978  47.3250014  26.8850154  65.1633954  47.7440945
  37.8619992  61.9589978  53.2480014  37.1729992  62.6169978  53.1530014
  37.8769992  61.7609978  54.1850014  37.7697756  62.0222603  53.3615812
  23.9129992  60.2929978  51.8260014  23.6939992  60.8229978  51.0590014
  23.2449992  60.5189978  52.4730014  23.7926975  60.3960967  51.8085140
  31.2819992  69.7929978  45.3700014  30.9869992  69.4699978  44.5180014
  30.9579992  70.6929978  45.4110014  31.1978460  69.8704464  45.2589714
  26.4819992  67.9679978  52.1130014  25.7419992  68.5669978  52.2170014
  27.1959992  68.5219978  51.7980014  26.4773500  68.1247829  52.0846371
  34.5889992  60.7969978  48.1330014  34.3739992  60.0309978  48.6660014
  35.2449992  61.2689978  48.6460014  34.6482673  60.7560728  48.2751990
  23.5069992  62.1849978  49.7780014  24.1209992  62.8179978  50.1510014
  24.0189992  61.7129978  49.1220014  23.6601962  62.2077249  49.7402935
  24.8899992  69.9329978  52.9000014  24.8839992  70.8119978  52.5220014
  24.0359992  69.8489978  53.3250014  24.7737925  70.0419535  52.9056887
  21.0109992  69.6039978  43.6820014  20.7389992  69.8329978  42.7940014
  21.0559992  70.4409978  44.1430014  20.9798097  69.7486163  43.6226683
  34.6359992  71.2249978  50.3950014  33.6939992  71.2839978  50.5570014
  34.9119992  72.1309978  50.2580014  34.5445865  71.3555288  50.3986192
  34.9359992  59.5119978  51.8120014  34.1999992  60.1219978  51.7750014
  35.6199992  59.9269978  51.2860014  34.9275367  59.6517551  51.7358174
  27.9399992  57.5979978  49.2780014  27.8219992  56.6499978  49.2240014
  27.0849992  57.9309978  49.5510014  27.8082805  57.5132202  49.3075079
  32.8879992  73.0059978  47.0200014  33.3129992  72.2989978  46.5350014
  33.2049992  73.8079978  46.6030014  32.9890266  73.0175190  46.8972479
  34.0479992  70.9069978  45.5290014  33.7899992  70.2169978  44.9170014
  34.1189992  70.4639978  46.3740014  34.0223050  70.7526814  45.5595621
  35.7339992  69.4739978  54.0060014  35.8729992  68.8819978  53.2670014
  35.9009992  70.3469978  53.6500014  35.7756193  69.5108896  53.8566211
  30.2059992  66.4359978  43.7790014  29.4949992  66.9709978  43.4270014
  30.8969992  66.4909978  43.1190014  30.2020751  66.5166777  43.6415858
  30.2599992  64.8929978  40.8170014  30.9609992  64.9159978  41.4690014
  30.5619992  64.2649978  40.1610014  30.3968202  64.8112212  40.8175609
  37.5749992  65.8139978  52.0720014  36.9229992  66.5079978  52.1610014
  38.0409992  66.0239978  51.2620014  37.5485937  65.9375019  51.9747533
  33.6119992  66.6449978  44.7300014  32.8799992  66.8739978  45.3040014
  34.0589992  65.9319978  45.1850014  33.5723963  66.5798729  44.8699945
  33.5089992  64.8199978  53.7980014  33.5889992  65.5829978  54.3700014
  32.9079992  65.0989978  53.1080014  33.4386547  64.9622457  53.7830047
  25.2569992  67.2759978  46.6130014  24.9269992  66.9049978  45.7950014
  25.8459992  66.6049978  46.9600014  25.2913970  67.1346063  46.5479404
  26.6239992  70.7039978  49.2940014  26.5289992  70.1249978  48.5380014
  27.3529992  70.3329978  49.7900014  26.7096011  70.5745561  49.2576028
  25.6239992  66.0439978  50.2460014  26.1889992  66.1659978  49.4840014
  25.9429992  66.6819978  50.8850014  25.7444166  66.1468791  50.2280348
  31.9329992  71.5479978  50.9800014  31.6929992  72.2099978  51.6280014
  31.7349992  70.7129978  51.4050014  31.8733826  71.5258115  51.1261566
  26.5039992  70.4439978  54.9640014  26.1929992  71.2259978  55.4190014
  25.8539992  70.2909978  54.2780014  26.3735538  70.5304087  54.9335898
  32.4829992  65.8079978  42.4160014  33.0619992  65.9579978  43.1620014
  32.8969992  66.2779978  41.6920014  32.6183358  65.8920955  42.4203953
  23.4239992  66.6419978  54.1920014  23.4939992  67.2929978  54.8910014
  22.5329992  66.7449978  53.8570014  23.3131690  66.7449249  54.2423043
  30.2089992  72.5439978  45.8510014  30.6829992  72.8399978  46.6280014
  29.6459992  73.2829978  45.6180014  30.1977890  72.6843036  45.9258101
  24.7429992  72.5149978  55.7270014  24.7509992  72.3789978  54.7800014
  23.8269992  72.3979978  55.9790014  24.6202528  72.4805463  55.6313243
  36.1819992  57.5579978  42.2290014  35.2819992  57.6969978  42.5240014
  36.4339992  58.3889978  41.8270014  36.0928683  57.6894055  42.2150232
  24.2479992  66.3449978  44.2020014  23.9559992  67.1129978  43.7110014
  23.5729992  65.6859978  44.0390014  24.1168497  66.3609745  44.1128260
  37.3709992  71.9239978  40.6050014  37.4439992  72.8629978  40.7750014
  38.2759992  71.6189978  40.5490014  37.5034170  72.0113282  40.6207063
  20.3409992  68.7079978  53.0170014  19.8389992  68.6799978  52.2020014
  20.3459992  67.8029978  53.3270014  20.2729832  68.5817486  52.9474121
  20.0909992  71.4889978  49.9010014  21.0369992  71.3439978  49.8820014
  19.9779992  72.2729978  50.4380014  20.2053578  71.5751697  49.9710317
  38.2889992  72.1549978  55.5840014  38.2389992  71.1989978  55.5460014
  37.4619992  72.4219978  55.9850014  38.1703831  72.0604680  55.6330121
  29.2669992  71.7289978  54.4600014  29.3549992  72.5549978  54.9350014
  28.4039992  71.3989978  54.7090014  29.1623357  71.7975468  54.5587653
  29.6819992  75.5009978  44.2660014  29.6059992  75.3799978  43.3190014
  29.7139992  76.4499978  44.3840014  29.6759380  75.6127677  44.1525181
  23.3349992  74.2899978  46.0470014  23.4869992  73.9419978  46.9250014
  22.4839992  73.9329978  45.7910014  23.2408344  74.1940879  46.1326868
  32.7829992  74.6549978  41.2680014  33.1579992  73.9109978  40.7970014
  32.7879992  74.3849978  42.1860014  32.8350098  74.5166392  41.3276629
  32.4519992  74.5809978  44.0170014  31.5169992  74.6809978  44.1960014
  32.7319992  73.8709978  44.5960014  32.3619471  74.4987933  44.1196695
  35.4409992  63.6479978  56.0640014  35.0329992  64.1279978  55.3430014
  35.4809992  62.7419978  55.7560014  35.3906221  63.5912449  55.9238267
  22.5899992  70.0319978  54.0600014  22.8059992  69.6699978  54.9200014
  21.7339992  69.6569978  53.8510014  22.5038810  69.9318837  54.1492680
  25.2079992  58.5019978  50.0560014  24.3469992  58.4149978  49.6480014
  25.1859992  59.3579978  50.4840014  25.0870491  58.6058003  50.0579582
  29.8709992  58.2239978  53.4310014  30.2909992  57.8089978  54.1840014
  28.9379992  58.0449978  53.5480014  29.8023736  58.1429910  53.5498968
  33.1979992  61.9789978  54.2840014  32.6839992  61.8539978  55.0820014
  33.0419992  62.8919978  54.0400014  33.1066967  62.0852123  54.3600937
  33.9599992  66.8399978  40.0450014  34.0019992  66.6179978  39.1150014
  34.8089992  67.2389978  40.2350014  34.0805253  66.8635498  39.9433822
  29.5329992  60.7159978  40.7160014  29.2789992  60.7349978  41.6380014
  29.2759992  59.8449978  40.4140014  29.4634508  60.6008280  40.8014803
  25.2989992  63.4669978  51.1510014  24.6579992  63.4269978  51.8600014
  25.3369992  64.3939978  50.9130014  25.2163010  63.5867668  51.2159946
  25.2959992  63.6879978  46.0630014  24.4039992  63.3479978  46.0040014
  25.7469992  63.3109978  45.3070014  25.2347642  63.5904910  45.9527726
  30.8319992  64.1039978  44.8800014  30.4229992  64.9189978  44.5880014
  31.5519992  63.9639978  44.2660014  30.8734439  64.1965372  44.7570115
  29.9339992  64.2799978  56.3680014  29.3709992  63.5749978  56.6890014
  30.7599992  64.1589978  56.8360014  29.9686674  64.1672165  56.4751751
  31.8369992  63.5499978  47.6940014  31.6409992  64.1559978  46.9790014
  32.0179992  62.7169978  47.2600014  31.8346584  63.5202513  47.5374212
  23.0489992  63.7879978  53.0180014  23.0109992  64.1879978  53.8870014
  22.5589992  62.9709978  53.1080014  22.9775330  63.7322674  53.1491289
  26.4149992  61.1619978  39.8170014  25.9839992  60.7169978  40.5460014
  25.6969992  61.5329978  39.3040014  26.2589176  61.1512051  39.8474930
  19.6579992  60.9039978  46.8690014  20.2879992  60.8749978  47.5880014
  20.1069992  60.4789978  46.1380014  19.8050835  60.8425660  46.8687659
  20.9319992  61.6499978  42.2930014  21.4059992  62.2409978  41.7080014
  20.2139992  62.1799978  42.6400014  20.8998640  61.8025511  42.2597969
  31.1009992  65.1879978  52.3650014  31.4239992  64.5569978  51.7220014
  30.6599992  64.6539978  53.0260014  31.0856379  65.0293468  52.3662582
  27.8779992  61.1159978  47.1490014  26.9669992  61.1729978  47.4380014
  28.3829992  61.0559978  47.9600014  27.8216873  61.1156826  47.2981207
  22.7059992  62.7449978  45.9760014  21.8169992  62.8439978  45.6360014
  23.0029992  61.9029978  45.6300014  22.6244177  62.6447687  45.8826940
  26.3589992  62.7449978  43.6330014  27.2909992  62.8739978  43.8110014
  26.1439992  63.4139978  42.9830014  26.4574472  62.8530806  43.5694891
  32.2829992  60.3509978  50.4140014  31.6059992  60.4819978  51.0770014
  31.7979992  60.1959978  49.6030014  32.1247405  60.3479947  50.3952170
  25.0329992  63.9389978  41.1990014  24.4909992  63.5599978  40.5080014
  25.8669992  64.1339978  40.7710014  25.0714390  63.9134079  41.0464392
  35.5709992  76.0219978  56.6900014  35.7699992  76.4459978  55.8560014
  36.2259992  76.3659978  57.2970014  35.6868522  76.1266301  56.6577852
  23.1689992  68.4959978  56.2980014  23.9009992  68.7509978  56.8600014
  22.3879992  68.7009978  56.8140014  23.1636526  68.5585450  56.4445176
  29.1979992  63.9029978  49.0360014  29.7619992  63.3569978  48.4890014
  29.0499992  63.3819978  49.8250014  29.2553037  63.7576787  49.0677229
  24.1999992  60.0399978  45.4550014  23.8829992  59.1369978  45.4190014
  24.9809992  60.0419978  44.9020014  24.2622431  59.9167797  45.3753102
  27.8239992  62.2919978  51.4500014  26.9889992  62.7459978  51.5610014
  28.3479992  62.5679978  52.2020014  27.7806072  62.3913948  51.5668136
  28.3689992  68.5049978  43.1350014  27.6239992  67.9969978  42.8130014
  28.2339992  68.5539978  44.0810014  28.2488963  68.4421731  43.2188826
  35.5189992  67.6379978  51.9220014  36.1599992  68.0939978  51.3780014
  34.6879992  67.7509978  51.4590014  35.4945287  67.7156921  51.7849887
  32.2659992  61.3189978  41.3340014  31.3279992  61.4299978  41.1830014
  32.5639992  62.1749978  41.6410014  32.1776318  61.4500158  41.3548145
  29.8879992  68.6889978  54.3720014  29.5419992  68.3069978  55.1790014
  29.6879992  69.6219978  54.4430014  29.8135987  68.7629002  54.4920461
  32.9849992  63.1859978  42.9950014  33.8769992  63.0479978  43.3140014
  33.0409992  63.9769978  42.4580014  33.1147325  63.2739918  42.9661217
  23.4929992  67.7999978  48.9050014  24.2379992  67.7969978  48.3030014
  23.5709992  66.9759978  49.3860014  23.6053365  67.6882384  48.8877430
  30.4939992  69.9629978  42.1600014  30.1989992  70.7899978  42.5420014
  29.7909992  69.3439978  42.3570014  30.3586379  69.9924171  42.2388654
  20.5009992  66.2599978  54.2200014  20.7239992  65.8419978  55.0510014
  19.8989992  65.6479978  53.7970014  20.4501513  66.1199606  54.2766740
  27.5179992  65.7769978  56.4330014  27.2219992  65.6119978  55.5370014
  28.4489992  65.5569978  56.4220014  27.6034401  65.7246879  56.3090206
  32.1379992  71.1509978  54.3220014  31.2379992  71.3339978  54.0550014
  32.1719992  71.4099978  55.2430014  32.0193748  71.2110554  54.4099164
  37.8699992  63.3949978  42.6900014  37.3149992  62.9989978  42.0170014
  37.9699992  64.3059978  42.4120014  37.8076816  63.4639505  42.5605033
  37.8329992  69.1959978  55.5270014  36.9819992  69.4339978  55.1590014
  38.4229992  69.1789978  54.7740014  37.7963812  69.2262524  55.3748453
  36.1649992  72.1809978  43.1550014  35.7919992  71.3559978  43.4640014
  36.4419992  71.9979978  42.2570014  36.1513463  72.0432569  43.0759525
  33.3249992  66.9889978  50.1760014  32.3969992  66.7579978  50.1490014
  33.7759992  66.2119978  49.8460014  33.2588165  66.8522774  50.1276790
  25.8679992  71.3179978  46.3090014  26.3959992  72.0909978  46.1090014
  24.9879992  71.5419978  46.0070014  25.8213435  71.4542700  46.2407310
  21.6229992  66.1799978  40.8960014  22.2389992  66.8069978  41.2760014
  20.7609992  66.4959978  41.1680014  21.5907678  66.3084412  40.9847209
  27.2959992  68.9809978  45.8850014  27.0549992  69.9059978  45.9270014
  26.5549992  68.5219978  46.2820014  27.1629206  69.0455915  45.9443769
  27.8099992  73.1299978  52.2000014  28.1729992  73.9839978  51.9670014
  28.3419992  72.8379978  52.9410014  27.9315141  73.2073895  52.2682097
  25.9789992  74.0019978  45.4310014  25.0289992  74.1079978  45.4820014
  26.3309992  74.8229978  45.7750014  25.8965472  74.1274923  45.4844852
  31.3539992  69.2289978  51.9010014  30.9289992  69.0009978  52.7270014
  31.9349992  68.4899978  51.7190014  31.3743395  69.0979545  51.9894414
  33.5569992  70.1579978  40.9750014  33.9109992  69.7779978  41.7790014
  32.6089992  70.0639978  41.0620014  33.4772298  70.0932452  41.0968687
  34.0129992  73.7809978  54.3700014  33.4109992  73.2249978  53.8750014
  34.2939992  74.4479978  53.7440014  33.9685757  73.7950744  54.2175675
  38.0609992  74.6369978  41.1760014  38.8049992  75.2229978  41.0360014
  37.3669992  75.2059978  41.5090014  38.0689809  74.7940818  41.2018590
  22.1349992  61.0139978  53.7780014  21.2429992  61.3519978  53.7100014
  22.0369992  60.1579978  54.1960014  21.9994475  60.9446543  53.8251704
  34.4229992  68.8299978  43.2020014  34.1459992  68.1019978  43.7580014
  35.3509992  68.9489978  43.4070014  34.5104499  68.7464213  43.3058044
  21.7869992  72.8179978  52.2130014  22.0039992  71.8859978  52.1820014
  22.0329992  73.0929978  53.0960014  21.8499809  72.7275686  52.3281691
  27.6479992  71.2699978  39.4220014  27.8869992  70.5209978  38.8750014
  27.3789992  70.8819978  40.2550014  27.6443233  71.1151853  39.4597809
  26.5849992  70.8399978  41.8780014  26.7319992  70.3199978  42.6680014
  26.5819992  71.7469978  42.1850014  26.6047102  70.8913953  42.0275925
  23.0379992  68.0919978  42.3890014  22.3519992  68.4449978  42.9560014
  23.5609992  68.8549978  42.1420014  23.0148402  68.2433901  42.4331801
  30.8699992  60.7549978  52.6680014  31.5689992  60.8289978  53.3180014
  30.4889992  59.8899978  52.8220014  30.9142097  60.6482389  52.7777997
  31.6539992  60.4069978  43.7650014  31.8739992  60.8779978  42.9610014
  32.2129992  60.8009978  44.4350014  31.7596731  60.5247287  43.7455033
  29.3229992  72.5369978  42.6280014  28.5059992  73.0339978  42.6800014
  29.8519992  73.0129978  41.9870014  29.2828125  72.6691989  42.5485306
  28.8539992  62.1349978  44.6000014  29.6659992  62.6389978  44.6460014
  28.6099992  61.9899978  45.5140014  28.9321467  62.1843749  44.7298575
  29.3899992  63.1209978  53.7840014  29.5089992  63.6949978  54.5410014
  30.0449992  62.4329978  53.8990014  29.4948684  63.1065194  53.9031674
  29.7379992  59.2159978  45.5380014  29.3909992  59.8329978  46.1820014
  30.3969992  59.7169978  45.0560014  29.7795090  59.3681575  45.5610681
  26.6609992  73.5809978  42.6090014  26.8219992  74.3809978  42.1090014
  26.4639992  73.8879978  43.4940014  26.6563906  73.7318678  42.6602333
  25.3959992  60.2789978  42.2250014  25.3119992  61.1669978  42.5720014
  26.2859992  60.0139978  42.4570014  25.5048163  60.3647179  42.3038596
  35.5939992  61.0279978  54.6190014  34.6779992  61.2899978  54.5320014
  35.9299992  61.0249978  53.7230014  35.5138499  61.0635163  54.4858766
  34.1969992  64.7779978  48.7150014  33.3989992  64.3629978  48.3870014
  34.6419992  64.0879978  49.2060014  34.1479684  64.6278628  48.7365227
  23.6539992  70.7059978  41.2850014  24.2459992  71.4059978  41.5620014
  24.1129992  70.2729978  40.5660014  23.7971652  70.7432675  41.2256533
  21.9699992  63.3709978  40.4010014  21.9249992  64.3099978  40.5800014
  21.0819992  63.1349978  40.1320014  21.8438166  63.4676687  40.3891524
  35.2829992  74.0339978  50.3370014  35.1269992  74.7129978  49.6800014
  36.2159992  74.1059978  50.5400014  35.3877387  74.1366390  50.2745342
  22.7779992  58.1519978  49.0750014  22.5489992  58.2109978  48.1470014
  22.3359992  57.3609978  49.3810014  22.6868801  58.0530540  48.9894729
  21.7089992  72.0929978  45.2350014  20.8759992  72.5649978  45.2620014
  22.2539992  72.6029978  44.6360014  21.6687857  72.2264791  45.1577142
  20.9969992  74.7049978  56.5650014  21.5369992  74.4889978  57.3250014
  20.5159992  73.8999978  56.3750014  21.0059219  74.5665156  56.6434282
  25.5939992  73.6249978  58.1850014  26.3619992  73.1659978  58.5260014
  25.5729992  73.3989978  57.2550014  25.6962135  73.5316668  58.1059491
  29.6859992  73.1329978  39.5610014  29.0419992  72.5019978  39.8820014
  30.4479992  72.6019978  39.3290014  29.7008058  72.9747902  39.5736038
  32.1709992  72.0049978  56.9140014  31.8199992  71.1479978  57.1580014
  32.8969992  72.1469978  57.5210014  32.2211895  71.9071351  57.0293770
  34.2909992  72.9499978  39.7940014  34.5739992  72.1549978  40.2470014
  35.0299992  73.1829978  39.2330014  34.4297096  72.8727049  39.7801104
  20.9039992  68.5159978  57.5190014  21.0479992  67.6139978  57.2330014
  20.1319992  68.8019978  57.0320014  20.8192733  68.4311798  57.4139532
  25.2449992  68.8589978  39.6520014  25.3099992  68.0649978  40.1820014
  25.8979992  68.7409978  38.9620014  25.3421605  68.7343430  39.6312997
  27.5589992  68.4849978  56.9520014  27.2309992  68.7559978  56.0950014
  27.7109992  67.5439978  56.8640014  27.5346412  68.3949046  56.8227822
  30.5979992  69.9059978  39.3880014  30.3289992  70.0869978  40.2880014
  30.3909992  68.9809978  39.2560014  30.5331191  69.8057119  39.4935524
  33.2939992  68.4009978  54.3350014  34.0389992  68.9899978  54.2160014
  32.5369992  68.9829978  54.3990014  33.2935470  68.5602128  54.3273799
  21.7369992  65.7159978  56.9390014  22.1449992  64.8589978  56.8180014
  21.4759992  65.7299978  57.8600014  21.7576016  65.6005119  57.0469192
  26.3949992  66.8319978  41.9580014  25.9349992  66.3479978  42.6430014
  26.6499992  66.1629978  41.3220014  26.3664856  66.6753669  41.9658397
  25.6839992  64.7249978  54.3140014  25.0649992  65.3989978  54.5940014
  26.0279992  65.0459978  53.4800014  25.6457123  64.8606887  54.2396388
  27.4659992  65.0749978  40.2200014  27.2849992  64.9199978  39.2930014
  28.4159992  65.1829978  40.2650014  27.5696566  65.0683669  40.0990929
  30.7029992  67.1959978  57.5910014  31.6569992  67.2799978  57.5640014
  30.5429992  66.4839978  58.2110014  30.8117182  67.1112842  57.6710733
  36.8559992  67.4289978  39.6660014  36.5819992  67.0049978  38.8530014
  36.8949992  68.3609978  39.4490014  36.8237716  67.4968827  39.5254286
  26.0229992  62.0799978  55.3960014  26.1729992  61.3509978  54.7940014
  26.0249992  62.8569978  54.8370014  26.0437967  62.0852708  55.2380541
  26.4359992  60.4489978  52.8890014  26.9709992  60.9009978  52.2370014
  25.5829992  60.3409978  52.4660014  26.3940374  60.4962665  52.7426710
  28.0169992  65.8889978  53.1280014  28.7679992  65.7329978  52.5550014
  27.6779992  66.7409978  52.8530014  28.0739587  65.9828138  53.0124078
  32.4329992  63.7039978  58.1570014  32.6249992  62.7729978  58.0450014
  33.2909992  64.1289978  58.1460014  32.5752182  63.6340070  58.1401862
  33.7499992  66.4929978  56.2340014  33.4679992  67.2019978  55.6560014
  34.6919992  66.4199978  56.0830014  33.8387921  66.5802193  56.1344225
  24.5019992  63.2779978  57.3070014  23.7339992  62.7449978  57.0970014
  25.1799992  62.9679978  56.7080014  24.4887235  63.1631754  57.1972413
  27.2409992  57.9059978  53.3200014  27.1429992  58.8519978  53.2150014
  26.4989992  57.5329978  52.8440014  27.1272534  57.9851773  53.2412600
  28.5049992  62.2269978  56.8840014  28.2699992  62.0079978  57.7850014
  27.7219992  62.0199978  56.3740014  28.3669095  62.1689892  56.9385353
  31.2209992  61.3549978  55.9590014  30.2729992  61.3869978  56.0910014
  31.5329992  60.7289978  56.6130014  31.1335293  61.2747923  56.0654148
  32.8549992  59.9889978  57.9640014  32.7579992  59.0369978  57.9590014
  32.5329992  60.2569978  58.8250014  32.7982468  59.8950884  58.0796210
  22.6819992  61.1979978  57.0120014  22.8939992  60.4919978  56.4020014
  22.5709992  60.7609978  57.8560014  22.6960269  61.0421921  57.0425873
  27.4629992  57.1999978  55.9910014  28.1749992  56.5599978  55.9770014
  27.3619992  57.4659978  55.0780014  27.5467387  57.1484330  55.8655563
  27.8169992  58.8819978  58.0450014  27.6849992  58.4069978  57.2250014
  27.2169992  59.6269978  57.9900014  27.7179070  58.9175789  57.9253251
  27.3629992  75.7649978  41.2210014  28.2959992  75.9229978  41.3650014
  27.0989992  76.4409978  40.5960014  27.4549911  75.8779373  41.1562722
  20.9309992  70.4019978  40.7040014  21.8449992  70.4809978  40.9770014
  20.9389992  69.7149978  40.0380014  21.0570655  70.3199205  40.6512917
  19.5799992  75.7949978  45.7810014  18.9329992  75.3329978  45.2490014
  19.9349992  75.1229978  46.3640014  19.5393741  75.6409774  45.7869175
  20.4499992  73.8749978  47.5860014  20.1159992  72.9949978  47.7580014
  20.6729992  74.2209978  48.4510014  20.4343721  73.8011938  47.7264168
  37.9989992  74.6849978  50.5670014  37.9769992  74.8699978  51.5060014
  38.6889992  75.2529978  50.2260014  38.0893439  74.7871887  50.6494791
  37.5619992  74.2519978  53.4880014  37.0749992  73.5169978  53.1170014
  38.1109992  73.8579978  54.1660014  37.5695247  74.0981057  53.5288461
  36.0129992  70.0419978  58.1270014  35.1469992  69.9369978  58.5210014
  36.3889992  70.7999978  58.5730014  35.9453401  70.1301708  58.2412620
  37.3139992  68.2979978  43.6410014  38.1639992  68.7189978  43.7680014
  37.3189992  67.5579978  44.2480014  37.4311143  68.2556094  43.7404750
  37.7079992  66.3519978  45.4640014  36.9819992  65.8719978  45.8620014
  38.2899992  66.5569978  46.1970014  37.6872730  66.3140184  45.6174149
  37.4669992  69.1369978  50.4120014  38.3009992  68.7589978  50.1310014
  37.5789992  70.0799978  50.2930014  37.5961917  69.2127943  50.3574861
  35.9539992  72.0149978  52.7190014  35.3059992  72.3399978  53.3440014
  35.4359992  71.5739978  52.0450014  35.7954196  71.9998651  52.7134152
  37.9769992  66.2529978  41.8550014  37.4549992  66.6089978  41.1370014
  37.9439992  66.9279978  42.5340014  37.9010129  66.3929598  41.8483355
  36.3259992  63.4919978  40.4060014  36.4219992  64.1589978  39.7260014
  36.1859992  62.6769978  39.9250014  36.3202040  63.4730671  40.2478378
  35.4949992  64.8729978  46.0270014  35.3449992  63.9279978  46.0070014
  35.1409992  65.1539978  46.8710014  35.4266351  64.7816644  46.1383220
  20.5299992  66.9509978  50.0380014  20.7149992  66.8689978  49.1020014
  21.3799992  66.8269978  50.4610014  20.6700928  66.9230463  49.9672893
  36.3509992  66.8429978  55.6660014  36.9339992  66.1079978  55.8580014
  36.9149992  67.6149978  55.7130014  36.5069781  66.8468145  55.6986164
  37.8479992  64.7459978  56.3510014  36.9849992  64.3669978  56.1850014
  38.4519992  64.0069978  56.2760014  37.8116085  64.5943223  56.3181694
  35.5729992  60.8999978  39.5240014  36.1839992  60.5289978  40.1610014
  34.7359992  60.4789978  39.7200014  35.5434947  60.7922756  39.6377252
  35.2059992  62.4549978  44.4900014  35.4849992  61.5479978  44.6140014
  35.9649992  62.8889978  44.1010014  35.3468619  62.3894502  44.4543795
  35.8169992  63.0369978  49.9260014  36.7499992  63.2489978  49.8910014
  35.5819992  63.1379978  50.8480014  35.9129517  63.0796833  50.0459130
  35.8469992  63.7739978  52.7020014  35.0039992  64.0419978  53.0680014
  36.2889992  64.5959978  52.4910014  35.7914138  63.9218273  52.7235518
  20.1279992  62.2209978  56.1780014  21.0469992  62.0989978  56.4150014
  19.6779992  61.4709978  56.5680014  20.1930087  62.1029608  56.2631410
  38.1299992  57.7539978  58.0550014  38.4789992  57.0999978  57.4500014
  38.2769992  58.5909978  57.6150014  38.1976824  57.7776024  57.9126304
  35.8189992  59.7179978  44.5380014  36.0009992  59.2689978  45.3630014
  35.2189992  59.1339978  44.0740014  35.7628187  59.5775552  44.5882739
  21.3489992  60.5339978  49.0700014  21.7939992  59.7419978  49.3720014
  21.8149992  61.2499978  49.5000014  21.4729718  60.5224534  49.1695265
  19.6529992  63.5329978  50.1390014  20.1449992  63.3119978  49.3480014
  20.0149992  64.3729978  50.4200014  19.7692923  63.6163468  50.0687407
  37.6489992  59.8629978  56.4040014  36.7319992  60.1339978  56.3690014
  37.7719992  59.3279978  55.6200014  37.5399672  59.8277885  56.2931862
  37.6859992  59.7859978  41.0660014  38.0979992  59.0649978  40.5910014
  38.3669992  60.4549978  41.1240014  37.8345536  59.7777766  41.0088024
  19.9669992  59.7909978  44.1930014  19.0419992  59.9989978  44.0640014
  20.4209992  60.2749978  43.5030014  19.9016298  59.8849299  44.0820451
  34.7369992  74.7749978  46.1390014  35.3899992  74.4269978  45.5310014
  35.2479992  75.2629978  46.7850014  34.8952777  74.7933815  46.1432047
  19.9299992  58.5289978  52.5370014  19.2649992  58.2829978  53.1800014
  19.4869992  59.1509978  51.9600014  19.7791168  58.5794214  52.5469848
  22.1219992  71.7039978  56.6820014  21.3009992  71.8789978  56.2210014
  21.8699992  71.6309978  57.6020014  21.9755594  71.7180717  56.7433611
  25.0759992  72.6779978  52.9400014  24.6519992  73.4879978  52.6580014
  25.9809992  72.7639978  52.6380014  25.1402138  72.8004160  52.8606415
  29.3879992  74.0769978  55.9000014  29.5719992  73.7439978  56.7780014
  30.2339992  74.3869978  55.5780014  29.5276484  74.0732979  55.9767617
  31.7329992  75.3629978  55.1440014  32.4099992  74.7299978  54.9040014
  32.0539992  75.7639978  55.9510014  31.8691323  75.3305691  55.2203158
  36.6499992  57.9529978  54.2230014  35.8369992  58.2779978  53.8360014
  36.8829992  57.1919978  53.6900014  36.5701347  57.8946880  54.0979841
  22.4779992  75.9349978  52.9880014  21.7579992  76.3749978  52.5370014
  22.1129992  75.6839978  53.8360014  22.3299643  75.9613369  53.0409129
  24.9449992  75.5349978  52.0180014  24.0809992  75.6069978  52.4220014
  24.8899992  76.0819978  51.2340014  24.8191942  75.6187849  51.9674000
  29.6559992  75.4229978  51.1930014  29.1989992  75.9519978  50.5390014
  29.8189992  76.0259978  51.9180014  29.6154960  75.5769280  51.2015274
  31.9839992  74.3009978  52.1380014  31.0789992  74.4659978  51.8720014
  32.4119992  75.1539978  52.0720014  31.9181537  74.4389134  52.0927095
  34.5879992  75.8709978  52.4330014  34.4059992  76.7869978  52.2220014
  34.7649992  75.4599978  51.5860014  34.5870030  75.9408273  52.2897166
  21.8929992  74.5579978  49.8980014  21.8749992  74.1319978  50.7550014
  22.6979992  74.2389978  49.4890014  21.9992875  74.4566435  49.9599515
  24.0339992  73.2679978  48.5530014  23.8149992  72.3509978  48.7230014
  24.8579992  73.4079978  49.0190014  24.1154702  73.1615511  48.6392527
  26.5709992  73.7379978  49.4020014  26.7839992  72.8499978  49.1150014
  26.6359992  73.7029978  50.3560014  26.6089149  73.6118326  49.4917369
  30.0799992  59.4019978  48.5460014  29.4059992  58.7719978  48.8020014
  30.6439992  58.9179978  47.9430014  30.0640384  59.2503708  48.4995020
  35.2229992  57.5089978  48.6590014  35.8259992  58.0569978  48.1570014
  34.3529992  57.8279978  48.4180014  35.1879157  57.6270373  48.5577910
  36.9499992  58.6479978  46.9920014  37.5609992  58.1339978  46.4650014
  37.3319992  59.5249978  47.0150014  37.0853305  58.6962050  46.9229418
  22.4069992  58.0359978  46.3680014  21.6299992  57.8009978  45.8610014
  22.9369992  57.2389978  46.3770014  22.3723451  57.8961268  46.2998627
  21.2429992  57.8339978  42.1720014  21.6819992  58.4449978  41.5800014
  20.6089992  58.3719978  42.6460014  21.2173859  57.9904064  42.1550305
  26.9859992  57.9619978  46.1810014  27.8599992  58.3509978  46.1520014
  26.8499992  57.7469978  47.1040014  27.0871953  57.9861643  46.3017617
  32.5429992  57.9919978  47.8310014  32.6189992  58.0879978  46.8810014
  32.2679992  57.0849978  47.9590014  32.5161871  57.8824146  47.7183944
  33.8959992  58.0179978  43.5230014  33.1929992  58.6329978  43.3130014
  33.4509992  57.1809978  43.6540014  33.7396550  57.9889668  43.5119837
  21.1439992  73.7819978  43.0690014  20.4589992  73.7439978  42.4020014
  21.1479992  74.6949978  43.3570014  21.0507621  73.9001924  43.0166126
  23.1039992  59.7499978  40.6140014  23.5949992  59.1199978  40.0870014
  23.7269992  60.0459978  41.2770014  23.2555304  59.7037376  40.6314940
  28.1299992  60.0429978  43.0710014  28.3079992  59.3959978  43.7540014
  28.0759992  60.8769978  43.5380014  28.1470678  60.0671604  43.2276301
  30.0079992  74.9909978  41.4670014  30.8739992  75.3579978  41.2890014
  29.7619992  74.5519978  40.6530014  30.0932097  74.9818525  41.3326019
  36.7169992  74.5539978  44.1460014  36.5229992  73.8059978  43.5810014
  36.6779992  75.3119978  43.5630014  36.6851645  74.5540786  43.9898148
  22.3639992  58.5499978  55.8860014  21.9979992  57.7839978  56.3280014
  23.2769992  58.5789978  56.1720014  22.4373172  58.4490324  55.9851890
  24.3369992  57.8999978  57.4210014  25.2359992  57.6259978  57.2370014
  23.9509992  57.1579978  57.8860014  24.4077307  57.7622196  57.4587098
  22.9619992  74.7019978  40.0940014  22.6939992  74.9879978  40.9680014
  23.7329992  74.1559978  40.2470014  23.0295927  74.6672779  40.2341205
  32.7589992  57.2329978  57.6040014  32.8349992  56.8069978  58.4570014
  33.6519992  57.2459978  57.2610014  32.8902303  57.1763493  57.6745497
  35.9349992  73.3059978  56.2960014  35.1529992  73.1189978  55.7760014
  35.8629992  74.2349978  56.5130014  35.8181924  73.4060637  56.2541602
  50.3409992  67.1919978  46.3270014  50.4299992  68.1359978  46.1950014
  49.7029992  66.9169978  45.6690014  50.2669062  67.2839812  46.2199641
  49.2739992  66.4469978  49.7460014  49.2359992  65.8009978  50.4510014
  48.9519992  65.9799978  48.9750014  49.2252679  66.2954276  49.7382921
  41.6419992  66.0609978  51.3390014  41.6839992  65.4359978  52.0620014
  42.3449992  66.6849978  51.5210014  41.7427345  66.0597873  51.4625274
  52.9799992  69.3859978  48.0470014  52.5389992  68.6659978  48.4980014
  52.9669992  70.1069978  48.6770014  52.9179215  69.3849291  48.1938105
  42.5659992  70.5109978  49.8740014  42.1959992  69.7089978  49.5040014
  43.5069992  70.3429978  49.9200014  42.6425984  70.3784638  49.8295603
  39.1759992  64.1709978  45.2660014  38.7279992  65.0169978  45.2480014
  38.6149992  63.5919978  44.7510014  39.0388546  64.2083993  45.1938891
  39.8859992  66.3329978  47.3920014  40.0999992  65.5629978  47.9200014
  40.6239992  66.4229978  46.7890014  40.0150200  66.2398587  47.3827035
  47.6629992  68.8789978  50.1520014  47.9669992  68.1929978  49.5570014
  48.3849992  68.9979978  50.7700014  47.8021240  68.8012314  50.1540959
  56.3259992  60.4809978  51.0120014  56.3759992  61.0909978  51.7480014
  56.7519992  60.9419978  50.2890014  56.3904108  60.6267709  51.0150112
  50.8039992  63.2729978  50.4790014  50.9469992  62.3269978  50.4990014
  50.6979992  63.4799978  49.5510014  50.8092403  63.1714797  50.3562239
  43.9589992  61.3749978  47.7520014  44.0019992  62.2349978  47.3330014
  43.5009992  60.8229978  47.1180014  43.9029871  61.4179245  47.6090761
  51.6809992  61.5059978  46.1530014  52.3279992  61.1769978  46.7770014
  52.1909992  62.0229978  45.5300014  51.8384351  61.5309067  46.1541037
  40.5789992  63.7719978  48.5140014  41.2329992  63.2219978  48.9460014
  40.6029992  63.4979978  47.5970014  40.6717199  63.6597167  48.4491668
  45.7359992  65.3219978  47.7290014  46.3519992  64.7949978  48.2380014
  45.1489992  64.6819978  47.3250014  45.7410154  65.1633954  47.7440945
  56.7179992  61.9589978  53.2480014  56.0289992  62.6169978  53.1530014
  56.7329992  61.7609978  54.1850014  56.6257756  62.0222603  53.3615812
  42.7689992  60.2929978  51.8260014  42.5499992  60.8229978  51.0590014
  42.1009992  60.5189978  52.4730014  42.6486975  60.3960967  51.8085140
  45.3379992  67.9679978  52.1130014  44.5979992  68.5669978  52.2170014
  46.0519992  68.5219978  51.7980014  45.3333500  68.1247829  52.0846371
  53.4449992  60.7969978  48.1330014  53.2299992  60.0309978  48.6660014
  54.1009992  61.2689978  48.6460014  53.5042673  60.7560728  48.2751990
  42.3629992  62.1849978  49.7780014  42.9769992  62.8179978  50.1510014
  42.8749992  61.7129978  49.1220014  42.5161962  62.2077249  49.7402935
  43.7459992  69.9329978  52.9000014  43.7399992  70.8119978  52.5220014
  42.8919992  69.8489978  53.3250014  43.6297925  70.0419535  52.9056887
  39.8669992  69.6039978  43.6820014  39.5949992  69.8329978  42.7940014
  39.9119992  70.4409978  44.1430014  39.8358097  69.7486163  43.6226683
  53.4919992  71.2249978  50.3950014  52.5499992  71.2839978  50.5570014
  53.7679992  72.1309978  50.2580014  53.4005865  71.3555288  50.3986192
  53.7919992  59.5119978  51.8120014  53.0559992  60.1219978  51.7750014
  54.4759992  59.9269978  51.2860014  53.7835367  59.6517551  51.7358174
  46.7959992  57.5979978  49.2780014  46.6779992  56.6499978  49.2240014
  45.9409992  57.9309978  49.5510014  46.6642805  57.5132202  49.3075079
  54.5899992  69.4739978  54.0060014  54.7289992  68.8819978  53.2670014
  54.7569992  70.3469978  53.6500014  54.6316193  69.5108896  53.8566211
  49.1159992  64.8929978  40.8170014  49.8169992  64.9159978  41.4690014
  49.4179992  64.2649978  40.1610014  49.2528202  64.8112212  40.8175609
  56.4309992  65.8139978  52.0720014  55.7789992  66.5079978  52.1610014
  56.8969992  66.0239978  51.2620014  56.4045937  65.9375019  51.9747533
  52.4679992  66.6449978  44.7300014  51.7359992  66.8739978  45.3040014
  52.9149992  65.9319978  45.1850014  52.4283963  66.5798729  44.8699945
  52.3649992  64.8199978  53.7980014  52.4449992  65.5829978  54.3700014
  51.7639992  65.0989978  53.1080014  52.2946547  64.9622457  53.7830047
  45.4799992  70.7039978  49.2940014  45.3849992  70.1249978  48.5380014
  46.2089992  70.3329978  49.7900014  45.5656011  70.5745561  49.2576028
  44.4799992  66.0439978  50.2460014  45.0449992  66.1659978  49.4840014
  44.7989992  66.6819978  50.8850014  44.6004166  66.1468791  50.2280348
  45.3599992  70.4439978  54.9640014  45.0489992  71.2259978  55.4190014
  44.7099992  70.2909978  54.2780014  45.2295538  70.5304087  54.9335898
  42.2799992  66.6419978  54.1920014  42.3499992  67.2929978  54.8910014
  41.3889992  66.7449978  53.8570014  42.1691690  66.7449249  54.2423043
  43.5989992  72.5149978  55.7270014  43.6069992  72.3789978  54.7800014
  42.6829992  72.3979978  55.9790014  43.4762528  72.4805463  55.6313243
  55.0379992  57.5579978  42.2290014  54.1379992  57.6969978  42.5240014
  55.2899992  58.3889978  41.8270014  54.9488683  57.6894055  42.2150232
  43.1039992  66.3449978  44.2020014  42.8119992  67.1129978  43.7110014
  42.4289992  65.6859978  44.0390014  42.9728497  66.3609745  44.1128260
  39.1969992  68.7079978  53.0170014  38.6949992  68.6799978  52.2020014
  39.2019992  67.8029978  53.3270014  39.1289832  68.5817486  52.9474121
  38.9469992  71.4889978  49.9010014  39.8929992  71.3439978  49.8820014
  38.8339992  72.2729978  50.4380014  39.0613578  71.5751697  49.9710317
  57.1449992  72.1549978  55.5840014  57.0949992  71.1989978  55.5460014
  56.3179992  72.4219978  55.9850014  57.0263831  72.0604680  55.6330121
  48.1229992  71.7289978  54.4600014  48.2109992  72.5549978  54.9350014
  47.2599992  71.3989978  54.7090014  48.0183357  71.7975468  54.5587653
  54.2969992  63.6479978  56.0640014  53.8889992  64.1279978  55.3430014
  54.3369992  62.7419978  55.7560014  54.2466221  63.5912449  55.9238267
  41.4459992  70.0319978  54.0600014  41.6619992  69.6699978  54.9200014
  40.5899992  69.6569978  53.8510014  41.3598810  69.9318837  54.1492680
  44.0639992  58.5019978  50.0560014  43.2029992  58.4149978  49.6480014
  44.0419992  59.3579978  50.4840014  43.9430491  58.6058003  50.0579582
  48.7269992  58.2239978  53.4310014  49.1469992  57.8089978  54.1840014
  47.7939992  58.0449978  53.5480014  48.6583736  58.1429910  53.5498968
  52.0539992  61.9789978  54.2840014  51.5399992  61.8539978  55.0820014
  51.8979992  62.8919978  54.0400014  51.9626967  62.0852123  54.3600937
  48.3889992  60.7159978  40.7160014  48.1349992  60.7349978  41.6380014
  48.1319992  59.8449978  40.4140014  48.3194508  60.6008280  40.8014803
  44.1549992  63.4669978  51.1510014  43.5139992  63.4269978  51.8600014
  44.1929992  64.3939978  50.9130014  44.0723010  63.5867668  51.2159946
  44.1519992  63.6879978  46.0630014  43.2599992  63.3479978  46.0040014
  44.6029992  63.3109978  45.3070014  44.0907642  63.5904910  45.9527726
  49.6879992  64.1039978  44.8800014  49.2789992  64.9189978  44.5880014
  50.4079992  63.9639978  44.2660014  49.7294439  64.1965372  44.7570115
  48.7899992  64.2799978  56.3680014  48.2269992  63.5749978  56.6890014
  49.6159992  64.1589978  56.8360014  48.8246674  64.1672165  56.4751751
  50.6929992  63.5499978  47.6940014  50.4969992  64.1559978  46.9790014
  50.8739992  62.7169978  47.2600014  50.6906584  63.5202513  47.5374212
  41.9049992  63.7879978  53.0180014  41.8669992  64.1879978  53.8870014
  41.4149992  62.9709978  53.1080014  41.8335330  63.7322674  53.1491289
  45.2709992  61.1619978  39.8170014  44.8399992  60.7169978  40.5460014
  44.5529992  61.5329978  39.3040014  45.1149176  61.1512051  39.8474930
  38.5139992  60.9039978  46.8690014  39.1439992  60.8749978  47.5880014
  38.9629992  60.4789978  46.1380014  38.6610835  60.8425660  46.8687659
  39.7879992  61.6499978  42.2930014  40.2619992  62.2409978  41.7080014
  39.0699992  62.1799978  42.6400014  39.7558640  61.8025511  42.2597969
  49.9569992  65.1879978  52.3650014  50.2799992  64.5569978  51.7220014
  49.5159992  64.6539978  53.0260014  49.9416379  65.0293468  52.3662582
  46.7339992  61.1159978  47.1490014  45.8229992  61.1729978  47.4380014
  47.2389992  61.0559978  47.9600014  46.6776873  61.1156826  47.2981207
  41.5619992  62.7449978  45.9760014  40.6729992  62.8439978  45.6360014
  41.8589992  61.9029978  45.6300014  41.4804177  62.6447687  45.8826940
  45.2149992  62.7449978  43.6330014  46.1469992  62.8739978  43.8110014
  44.9999992  63.4139978  42.9830014  45.3134472  62.8530806  43.5694891
  51.1389992  60.3509978  50.4140014  50.4619992  60.4819978  51.0770014
  50.6539992  60.1959978  49.6030014  50.9807405  60.3479947  50.3952170
  43.8889992  63.9389978  41.1990014  43.3469992  63.5599978  40.5080014
  44.7229992  64.1339978  40.7710014  43.9274390  63.9134079  41.0464392
  54.4269992  76.0219978  56.6900014  54.6259992  76.4459978  55.8560014
  55.0819992  76.3659978  57.2970014  54.5428522  76.1266301  56.6577852
  42.0249992  68.4959978  56.2980014  42.7569992  68.7509978  56.8600014
  41.2439992  68.7009978  56.8140014  42.0196526  68.5585450  56.4445176
  48.0539992  63.9029978  49.0360014  48.6179992  63.3569978  48.4890014
  47.9059992  63.3819978  49.8250014  48.1113037  63.7576787  49.0677229
  43.0559992  60.0399978  45.4550014  42.7389992  59.1369978  45.4190014
  43.8369992  60.0419978  44.9020014  43.1182431  59.9167797  45.3753102
  46.6799992  62.2919978  51.4500014  45.8449992  62.7459978  51.5610014
  47.2039992  62.5679978  52.2020014  46.6366072  62.3913948  51.5668136
  54.3749992  67.6379978  51.9220014  55.0159992  68.0939978  51.3780014
  53.5439992  67.7509978  51.4590014  54.3505287  67.7156921  51.7849887
  51.1219992  61.3189978  41.3340014  50.1839992  61.4299978  41.1830014
  51.4199992  62.1749978  41.6410014  51.0336318  61.4500158  41.3548145
  48.7439992  68.6889978  54.3720014  48.3979992  68.3069978  55.1790014
  48.5439992  69.6219978  54.4430014  48.6695987  68.7629002  54.4920461
  51.8409992  63.1859978  42.9950014  52.7329992  63.0479978  43.3140014
  51.8969992  63.9769978  42.4580014  51.9707325  63.2739918  42.9661217
  42.3489992  67.7999978  48.9050014  43.0939992  67.7969978  48.3030014
  42.4269992  66.9759978  49.3860014  42.4613365  67.6882384  48.8877430
  39.3569992  66.2599978  54.2200014  39.5799992  65.8419978  55.0510014
  38.7549992  65.6479978  53.7970014  39.3061513  66.1199606  54.2766740
  46.3739992  65.7769978  56.4330014  46.0779992  65.6119978  55.5370014
  47.3049992  65.5569978  56.4220014  46.4594401  65.7246879  56.3090206
  50.9939992  71.1509978  54.3220014  50.0939992  71.3339978  54.0550014
  51.0279992  71.4099978  55.2430014  50.8753748  71.2110554  54.4099164
  56.6889992  69.1959978  55.5270014  55.8379992  69.4339978  55.1590014
  57.2789992  69.1789978  54.7740014  56.6523812  69.2262524  55.3748453
  52.1809992  66.9889978  50.1760014  51.2529992  66.7579978  50.1490014
  52.6319992  66.2119978  49.8460014  52.1148165  66.8522774  50.1276790
  40.4789992  66.1799978  40.8960014  41.0949992  66.8069978  41.2760014
  39.6169992  66.4959978  41.1680014  40.4467678  66.3084412  40.9847209
  46.6659992  73.1299978  52.2000014  47.0289992  73.9839978  51.9670014
  47.1979992  72.8379978  52.9410014  46.7875141  73.2073895  52.2682097
  50.2099992  69.2289978  51.9010014  49.7849992  69.0009978  52.7270014
  50.7909992  68.4899978  51.7190014  50.2303395  69.0979545  51.9894414
  52.8689992  73.7809978  54.3700014  52.2669992  73.2249978  53.8750014
  53.1499992  74.4479978  53.7440014  52.8245757  73.7950744  54.2175675
  40.9909992  61.0139978  53.7780014  40.0989992  61.3519978  53.7100014
  40.8929992  60.1579978  54.1960014  40.8554475  60.9446543  53.8251704
  40.6429992  72.8179978  52.2130014  40.8599992  71.8859978  52.1820014
  40.8889992  73.0929978  53.0960014  40.7059809  72.7275686  52.3281691
  41.8939992  68.0919978  42.3890014  41.2079992  68.4449978  42.9560014
  42.4169992  68.8549978  42.1420014  41.8708402  68.2433901  42.4331801
  49.7259992  60.7549978  52.6680014  50.4249992  60.8289978  53.3180014
  49.3449992  59.8899978  52.8220014  49.7702097  60.6482389  52.7777997
  50.5099992  60.4069978  43.7650014  50.7299992  60.8779978  42.9610014
  51.0689992  60.8009978  44.4350014  50.6156731  60.5247287  43.7455033
  47.7099992  62.1349978  44.6000014  48.5219992  62.6389978  44.6460014
  47.4659992  61.9899978  45.5140014  47.7881467  62.1843749  44.7298575
  48.2459992  63.1209978  53.7840014  48.3649992  63.6949978  54.5410014
  48.9009992  62.4329978  53.8990014  48.3508684  63.1065194  53.9031674
  48.5939992  59.2159978  45.5380014  48.2469992  59.8329978  46.1820014
  49.2529992  59.7169978  45.0560014  48.6355090  59.3681575  45.5610681
  44.2519992  60.2789978  42.2250014  44.1679992  61.1669978  42.5720014
  45.1419992  60.0139978  42.4570014  44.3608163  60.3647179  42.3038596
  54.4499992  61.0279978  54.6190014  53.5339992  61.2899978  54.5320014
  54.7859992  61.0249978  53.7230014  54.3698499  61.0635163  54.4858766
  53.0529992  64.7779978  48.7150014  52.2549992  64.3629978  48.3870014
  53.4979992  64.0879978  49.2060014  53.0039684  64.6278628  48.7365227
  40.8259992  63.3709978  40.4010014  40.7809992  64.3099978  40.5800014
  39.9379992  63.1349978  40.1320014  40.6998166  63.4676687  40.3891524
  41.6339992  58.1519978  49.0750014  41.4049992  58.2109978  48.1470014
  41.1919992  57.3609978  49.3810014  41.5428801  58.0530540  48.9894729
  39.8529992  74.7049978  56.5650014  40.3929992  74.4889978  57.3250014
  39.3719992  73.8999978  56.3750014  39.8619219  74.5665156  56.6434282
  44.4499992  73.6249978  58.1850014  45.2179992  73.1659978  58.5260014
  44.4289992  73.3989978  57.2550014  44.5522135  73.5316668  58.1059491
  51.0269992  72.0049978  56.9140014  50.6759992  71.1479978  57.1580014
  51.7529992  72.1469978  57.5210014  51.0771895  71.9071351  57.0293770
  39.7599992  68.5159978  57.5190014  39.9039992  67.6139978  57.2330014
  38.9879992  68.8019978  57.0320014  39.6752733  68.4311798  57.4139532
  44.1009992  68.8589978  39.6520014  44.1659992  68.0649978  40.1820014
  44.7539992  68.7409978  38.9620014  44.1981605  68.7343430  39.6312997
  46.4149992  68.4849978  56.9520014  46.0869992  68.7559978  56.0950014
  46.5669992  67.5439978  56.8640014  46.3906412  68.3949046  56.8227822
  52.1499992  68.4009978  54.3350014  52.8949992  68.9899978  54.2160014
  51.3929992  68.9829978  54.3990014  52.1495470  68.5602128  54.3273799
  40.5929992  65.7159978  56.9390014  41.0009992  64.8589978  56.8180014
  40.3319992  65.7299978  57.8600014  40.6136016  65.6005119  57.0469192
  44.5399992  64.7249978  54.3140014  43.9209992  65.3989978  54.5940014
  44.8839992  65.0459978  53.4800014  44.5017123  64.8606887  54.2396388
  46.3219992  65.0749978  40.2200014  46.1409992  64.9199978  39.2930014
  47.2719992  65.1829978  40.2650014  46.4256566  65.0683669  40.0990929
  49.5589992  67.1959978  57.5910014  50.5129992  67.2799978  57.5640014
  49.3989992  66.4839978  58.2110014  49.6677182  67.1112842  57.6710733
  44.8789992  62.0799978  55.3960014  45.0289992  61.3509978  54.7940014
  44.8809992  62.8569978  54.8370014  44.8997967  62.0852708  55.2380541
  45.2919992  60.4489978  52.8890014  45.8269992  60.9009978  52.2370014
  44.4389992  60.3409978  52.4660014  45.2500374  60.4962665  52.7426710
  46.8729992  65.8889978  53.1280014  47.6239992  65.7329978  52.5550014
  46.5339992  66.7409978  52.8530014  46.9299587  65.9828138  53.0124078
  51.2889992  63.7039978  58.1570014  51.4809992  62.7729978  58.0450014
  52.1469992  64.1289978  58.1460014  51.4312182  63.6340070  58.1401862
  52.6059992  66.4929978  56.2340014  52.3239992  67.2019978  55.6560014
  53.5479992  66.4199978  56.0830014  52.6947921  66.5802193  56.1344225
  43.3579992  63.2779978  57.3070014  42.5899992  62.7449978  57.0970014
  44.0359992  62.9679978  56.7080014  43.3447235  63.1631754  57.1972413
  46.0969992  57.9059978  53.3200014  45.9989992  58.8519978  53.2150014
  45.3549992  57.5329978  52.8440014  45.9832534  57.9851773  53.2412600
  47.3609992  62.2269978  56.8840014  47.1259992  62.0079978  57.7850014
  46.5779992  62.0199978  56.3740014  47.2229095  62.1689892  56.9385353
  50.0769992  61.3549978  55.9590014  49.1289992  61.3869978  56.0910014
  50.3889992  60.7289978  56.6130014  49.9895293  61.2747923  56.0654148
  51.7109992  59.9889978  57.9640014  51.6139992  59.0369978  57.9590014
  51.3889992  60.2569978  58.8250014  51.6542468  59.8950884  58.0796210
  41.5379992  61.1979978  57.0120014  41.7499992  60.4919978  56.4020014
  41.4269992  60.7609978  57.8560014  41.5520269  61.0421921  57.0425873
  46.3189992  57.1999978  55.9910014  47.0309992  56.5599978  55.9770014
  46.2179992  57.4659978  55.0780014  46.4027387  57.1484330  55.8655563
  46.6729992  58.8819978  58.0450014  46.5409992  58.4069978  57.2250014
  46.0729992  59.6269978  57.9900014  46.5739070  58.9175789  57.9253251
  39.7869992  70.4019978  40.7040014  40.7009992  70.4809978  40.9770014
  39.7949992  69.7149978  40.0380014  39.9130655  70.3199205  40.6512917
  39.3059992  73.8749978  47.5860014  38.9719992  72.9949978  47.7580014
  39.5289992  74.2209978  48.4510014  39.2903721  73.8011938  47.7264168
  56.8549992  74.6849978  50.5670014  56.8329992  74.8699978  51.5060014
  57.5449992  75.2529978  50.2260014  56.9453439  74.7871887  50.6494791
  56.4179992  74.2519978  53.4880014  55.9309992  73.5169978  53.1170014
  56.9669992  73.8579978  54.1660014  56.4255247  74.0981057  53.5288461
  54.8689992  70.0419978  58.1270014  54.0029992  69.9369978  58.5210014
  55.2449992  70.7999978  58.5730014  54.8013401  70.1301708  58.2412620
  56.3229992  69.1369978  50.4120014  57.1569992  68.7589978  50.1310014
  56.4349992  70.0799978  50.2930014  56.4521917  69.2127943  50.3574861
  54.8099992  72.0149978  52.7190014  54.1619992  72.3399978  53.3440014
  54.2919992  71.5739978  52.0450014  54.6514196  71.9998651  52.7134152
  55.1819992  63.4919978  40.4060014  55.2779992  64.1589978  39.7260014
  55.0419992  62.6769978  39.9250014  55.1762040  63.4730671  40.2478378
  54.3509992  64.8729978  46.0270014  54.2009992  63.9279978  46.0070014
  53.9969992  65.1539978  46.8710014  54.2826351  64.7816644  46.1383220
  39.3859992  66.9509978  50.0380014  39.5709992  66.8689978  49.1020014
  40.2359992  66.8269978  50.4610014  39.5260928  66.9230463  49.9672893
  55.2069992  66.8429978  55.6660014  55.7899992  66.1079978  55.8580014
  55.7709992  67.6149978  55.7130014  55.3629781  66.8468145  55.6986164
  56.7039992  64.7459978  56.3510014  55.8409992  64.3669978  56.1850014
  57.3079992  64.0069978  56.2760014  56.6676085  64.5943223  56.3181694
  54.4289992  60.8999978  39.5240014  55.0399992  60.5289978  40.1610014
  53.5919992  60.4789978  39.7200014  54.3994947  60.7922756  39.6377252
  54.0619992  62.4549978  44.4900014  54.3409992  61.5479978  44.6140014
  54.8209992  62.8889978  44.1010014  54.2028619  62.3894502  44.4543795
  54.6729992  63.0369978  49.9260014  55.6059992  63.2489978  49.8910014
  54.4379992  63.1379978  50.8480014  54.7689517  63.0796833  50.0459130
  54.7029992  63.7739978  52.7020014  53.8599992  64.0419978  53.0680014
  55.1449992  64.5959978  52.4910014  54.6474138  63.9218273  52.7235518
  38.9839992  62.2209978  56.1780014  39.9029992  62.0989978  56.4150014
  38.5339992  61.4709978  56.5680014  39.0490087  62.1029608  56.2631410
  56.9859992  57.7539978  58.0550014  57.3349992  57.0999978  57.4500014
  57.1329992  58.5909978  57.6150014  57.0536824  57.7776024  57.9126304
  54.6749992  59.7179978  44.5380014  54.8569992  59.2689978  45.3630014
  54.0749992  59.1339978  44.0740014  54.6188187  59.5775552  44.5882739
  40.2049992  60.5339978  49.0700014  40.6499992  59.7419978  49.3720014
  40.6709992  61.2499978  49.5000014  40.3289718  60.5224534  49.1695265
  38.5089992  63.5329978  50.1390014  39.0009992  63.3119978  49.3480014
  38.8709992  64.3729978  50.4200014  38.6252923  63.6163468  50.0687407
  56.5049992  59.8629978  56.4040014  55.5879992  60.1339978  56.3690014
  56.6279992  59.3279978  55.6200014  56.3959672  59.8277885  56.2931862
  56.5419992  59.7859978  41.0660014  56.9539992  59.0649978  40.5910014
  57.2229992  60.4549978  41.1240014  56.6905536  59.7777766  41.0088024
  38.8229992  59.7909978  44.1930014  37.8979992  59.9989978  44.0640014
  39.2769992  60.2749978  43.5030014  38.7576298  59.8849299  44.0820451
  38.7859992  58.5289978  52.5370014  38.1209992  58.2829978  53.1800014
  38.3429992  59.1509978  51.9600014  38.6351168  58.5794214  52.5469848
  40.9779992  71.7039978  56.6820014  40.1569992  71.8789978  56.2210014
  40.7259992  71.6309978  57.6020014  40.8315594  71.7180717  56.7433611
  43.9319992  72.6779978  52.9400014  43.5079992  73.4879978  52.6580014
  44.8369992  72.7639978  52.6380014  43.9962138  72.8004160  52.8606415
  48.2439992  74.0769978  55.9000014  48.4279992  73.7439978  56.7780014
  49.0899992  74.3869978  55.5780014  48.3836484  74.0732979  55.9767617
  50.5889992  75.3629978  55.1440014  51.2659992  74.7299978  54.9040014
  50.9099992  75.7639978  55.9510014  50.7251323  75.3305691  55.2203158
  55.5059992  57.9529978  54.2230014  54.6929992  58.2779978  53.8360014
  55.7389992  57.1919978  53.6900014  55.4261347  57.8946880  54.0979841
  41.3339992  75.9349978  52.9880014  40.6139992  76.3749978  52.5370014
  40.9689992  75.6839978  53.8360014  41.1859643  75.9613369  53.0409129
  43.8009992  75.5349978  52.0180014  42.9369992  75.6069978  52.4220014
  43.7459992  76.0819978  51.2340014  43.6751942  75.6187849  51.9674000
  50.8399992  74.3009978  52.1380014  49.9349992  74.4659978  51.8720014
  51.2679992  75.1539978  52.0720014  50.7741537  74.4389134  52.0927095
  53.4439992  75.8709978  52.4330014  53.2619992  76.7869978  52.2220014
  53.6209992  75.4599978  51.5860014  53.4430030  75.9408273  52.2897166
  40.7489992  74.5579978  49.8980014  40.7309992  74.1319978  50.7550014
  41.5539992  74.2389978  49.4890014  40.8552875  74.4566435  49.9599515
  48.9359992  59.4019978  48.5460014  48.2619992  58.7719978  48.8020014
  49.4999992  58.9179978  47.9430014  48.9200384  59.2503708  48.4995020
  54.0789992  57.5089978  48.6590014  54.6819992  58.0569978  48.1570014
  53.2089992  57.8279978  48.4180014  54.0439157  57.6270373  48.5577910
  55.8059992  58.6479978  46.9920014  56.4169992  58.1339978  46.4650014
  56.1879992  59.5249978  47.0150014  55.9413305  58.6962050  46.9229418
  41.2629992  58.0359978  46.3680014  40.4859992  57.8009978  45.8610014
  41.7929992  57.2389978  46.3770014  41.2283451  57.8961268  46.2998627
  40.0989992  57.8339978  42.1720014  40.5379992  58.4449978  41.5800014
  39.4649992  58.3719978  42.6460014  40.0733859  57.9904064  42.1550305
  45.8419992  57.9619978  46.1810014  46.7159992  58.3509978  46.1520014
  45.7059992  57.7469978  47.1040014  45.9431953  57.9861643  46.3017617
  51.3989992  57.9919978  47.8310014  51.4749992  58.0879978  46.8810014
  51.1239992  57.0849978  47.9590014  51.3721871  57.8824146  47.7183944
  52.7519992  58.0179978  43.5230014  52.0489992  58.6329978  43.3130014
  52.3069992  57.1809978  43.6540014  52.5956550  57.9889668  43.5119837
  41.9599992  59.7499978  40.6140014  42.4509992  59.1199978  40.0870014
  42.5829992  60.0459978  41.2770014  42.1115304  59.7037376  40.6314940
  46.9859992  60.0429978  43.0710014  47.1639992  59.3959978  43.7540014
  46.9319992  60.8769978  43.5380014  47.0030678  60.0671604  43.2276301
  41.2199992  58.5499978  55.8860014  40.8539992  57.7839978  56.3280014
  42.1329992  58.5789978  56.1720014  41.2933172  58.4490324  55.9851890
  43.1929992  57.8999978  57.4210014  44.0919992  57.6259978  57.2370014
  42.8069992  57.1579978  57.8860014  43.2637307  57.7622196  57.4587098
  51.6149992  57.2329978  57.6040014  51.6909992  56.8069978  58.4570014
  52.5079992  57.2459978  57.2610014  51.7462303  57.1763493  57.6745497
  54.7909992  73.3059978  56.2960014  54.0089992  73.1189978  55.7760014
  54.7189992  74.2349978  56.5130014  54.6741924  73.4060637  56.2541602
  75.1819992  60.4809978  51.0120014  75.2319992  61.0909978  51.7480014
  75.6079992  60.9419978  50.2890014  75.2464108  60.6267709  51.0150112
  70.5369992  61.5059978  46.1530014  71.1839992  61.1769978  46.7770014
  71.0469992  62.0229978  45.5300014  70.6944351  61.5309067  46.1541037
  59.4349992  63.7719978  48.5140014  60.0889992  63.2219978  48.9460014
  59.4589992  63.4979978  47.5970014  59.5277199  63.6597167  48.4491668
  61.6249992  60.2929978  51.8260014  61.4059992  60.8229978  51.0590014
  60.9569992  60.5189978  52.4730014  61.5046975  60.3960967  51.8085140
  72.3009992  60.7969978  48.1330014  72.0859992  60.0309978  48.6660014
  72.9569992  61.2689978  48.6460014  72.3602673  60.7560728  48.2751990
  61.2189992  62.1849978  49.7780014  61.8329992  62.8179978  50.1510014
  61.7309992  61.7129978  49.1220014  61.3721962  62.2077249  49.7402935
  72.6479992  59.5119978  51.8120014  71.9119992  60.1219978  51.7750014
  73.3319992  59.9269978  51.2860014  72.6395367  59.6517551  51.7358174
  65.6519992  57.5979978  49.2780014  65.5339992  56.6499978  49.2240014
  64.7969992  57.9309978  49.5510014  65.5202805  57.5132202  49.3075079
  70.1949992  65.8079978  42.4160014  70.7739992  65.9579978  43.1620014
  70.6089992  66.2779978  41.6920014  70.3303358  65.8920954  42.4203953
  61.1359992  66.6419978  54.1920014  61.2059992  67.2929978  54.8910014
  60.2449992  66.7449978  53.8570014  61.0251690  66.7449249  54.2423043
  62.4549992  72.5149978  55.7270014  62.4629992  72.3789978  54.7800014
  61.5389992  72.3979978  55.9790014  62.3322528  72.4805463  55.6313243
  73.8939992  57.5579978  42.2290014  72.9939992  57.6969978  42.5240014
  74.1459992  58.3889978  41.8270014  73.8048683  57.6894055  42.2150232
  58.0529992  68.7079978  53.0170014  57.5509992  68.6799978  52.2020014
  58.0579992  67.8029978  53.3270014  57.9849832  68.5817486  52.9474121
  57.8029992  71.4889978  49.9010014  58.7489992  71.3439978  49.8820014
  57.6899992  72.2729978  50.4380014  57.9173578  71.5751697  49.9710317
  60.3019992  70.0319978  54.0600014  60.5179992  69.6699978  54.9200014
  59.4459992  69.6569978  53.8510014  60.2158810  69.9318837  54.1492680
  62.9199992  58.5019978  50.0560014  62.0589992  58.4149978  49.6480014
  62.8979992  59.3579978  50.4840014  62.7990491  58.6058003  50.0579582
  67.5829992  58.2239978  53.4310014  68.0029992  57.8089978  54.1840014
  66.6499992  58.0449978  53.5480014  67.5143736  58.1429910  53.5498968
  71.6719992  66.8399978  40.0450014  71.7139992  66.6179978  39.1150014
  72.5209992  67.2389978  40.2350014  71.7925253  66.8635498  39.9433822
  67.2449992  60.7159978  40.7160014  66.9909992  60.7349978  41.6380014
  66.9879992  59.8449978  40.4140014  67.1754508  60.6008280  40.8014803
  69.5489992  63.5499978  47.6940014  69.3529992  64.1559978  46.9790014
  69.7299992  62.7169978  47.2600014  69.5466584  63.5202513  47.5374212
  60.7609992  63.7879978  53.0180014  60.7229992  64.1879978  53.8870014
  60.2709992  62.9709978  53.1080014  60.6895330  63.7322674  53.1491289
  64.1269992  61.1619978  39.8170014  63.6959992  60.7169978  40.5460014
  63.4089992  61.5329978  39.3040014  63.9709176  61.1512051  39.8474930
  57.3699992  60.9039978  46.8690014  57.9999992  60.8749978  47.5880014
  57.8189992  60.4789978  46.1380014  57.5170835  60.8425660  46.8687659
  58.6439992  61.6499978  42.2930014  59.1179992  62.2409978  41.7080014
  57.9259992  62.1799978  42.6400014  58.6118640  61.8025511  42.2597969
  60.4179992  62.7449978  45.9760014  59.5289992  62.8439978  45.6360014
  60.7149992  61.9029978  45.6300014  60.3364177  62.6447687  45.8826940
  64.0709992  62.7449978  43.6330014  65.0029992  62.8739978  43.8110014
  63.8559992  63.4139978  42.9830014  64.1694472  62.8530806  43.5694891
  62.7449992  63.9389978  41.1990014  62.2029992  63.5599978  40.5080014
  63.5789992  64.1339978  40.7710014  62.7834390  63.9134079  41.0464392
  61.9119992  60.0399978  45.4550014  61.5949992  59.1369978  45.4190014
  62.6929992  60.0419978  44.9020014  61.9742431  59.9167797  45.3753102
  69.9779992  61.3189978  41.3340014  69.0399992  61.4299978  41.1830014
  70.2759992  62.1749978  41.6410014  69.8896318  61.4500158  41.3548145
  67.5999992  68.6889978  54.3720014  67.2539992  68.3069978  55.1790014
  67.3999992  69.6219978  54.4430014  67.5255987  68.7629002  54.4920461
  70.6969992  63.1859978  42.9950014  71.5889992  63.0479978  43.3140014
  70.7529992  63.9769978  42.4580014  70.8267325  63.2739918  42.9661217
  58.2129992  66.2599978  54.2200014  58.4359992  65.8419978  55.0510014
  57.6109992  65.6479978  53.7970014  58.1621513  66.1199606  54.2766740
  65.2299992  65.7769978  56.4330014  64.9339992  65.6119978  55.5370014
  66.1609992  65.5569978  56.4220014  65.3154401  65.7246879  56.3090206
  75.5819992  63.3949978  42.6900014  75.0269992  62.9989978  42.0170014
  75.6819992  64.3059978  42.4120014  75.5196816  63.4639505  42.5605033
  71.0369992  66.9889978  50.1760014  70.1089992  66.7579978  50.1490014
  71.4879992  66.2119978  49.8460014  70.9708165  66.8522774  50.1276790
  59.3349992  66.1799978  40.8960014  59.9509992  66.8069978  41.2760014
  58.4729992  66.4959978  41.1680014  59.3027678  66.3084412  40.9847209
  71.2689992  70.1579978  40.9750014  71.6229992  69.7779978  41.7790014
  70.3209992  70.0639978  41.0620014  71.1892298  70.0932452  41.0968687
  59.8469992  61.0139978  53.7780014  58.9549992  61.3519978  53.7100014
  59.7489992  60.1579978  54.1960014  59.7114475  60.9446543  53.8251704
  59.4989992  72.8179978  52.2130014  59.7159992  71.8859978  52.1820014
  59.7449992  73.0929978  53.0960014  59.5619809  72.7275686  52.3281691
  65.3599992  71.2699978  39.4220014  65.5989992  70.5209978  38.8750014
  65.0909992  70.8819978  40.2550014  65.3563233  71.1151853  39.4597809
  60.7499992  68.0919978  42.3890014  60.0639992  68.4449978  42.9560014
  61.2729992  68.8549978  42.1420014  60.7268402  68.2433901  42.4331801
  69.3659992  60.4069978  43.7650014  69.5859992  60.8779978  42.9610014
  69.9249992  60.8009978  44.4350014  69.4716731  60.5247287  43.7455033
  67.4499992  59.2159978  45.5380014  67.1029992  59.8329978  46.1820014
  68.1089992  59.7169978  45.0560014  67.4915090  59.3681575  45.5610681
  63.1079992  60.2789978  42.2250014  63.0239992  61.1669978  42.5720014
  63.9979992  60.0139978  42.4570014  63.2168163  60.3647179  42.3038596
  73.3059992  61.0279978  54.6190014  72.3899992  61.2899978  54.5320014
  73.6419992  61.0249978  53.7230014  73.2258499  61.0635163  54.4858766
  71.9089992  64.7779978  48.7150014  71.1109992  64.3629978  48.3870014
  72.3539992  64.0879978  49.2060014  71.8599684  64.6278628  48.7365227
  59.6819992  63.3709978  40.4010014  59.6369992  64.3099978  40.5800014
  58.7939992  63.1349978  40.1320014  59.5558166  63.4676687  40.3891524
  60.4899992  58.1519978  49.0750014  60.2609992  58.2109978  48.1470014
  60.0479992  57.3609978  49.3810014  60.3988801  58.0530540  48.9894729
  67.3979992  73.1329978  39.5610014  66.7539992  72.5019978  39.8820014
  68.1599992  72.6019978  39.3290014  67.4128058  72.9747902  39.5736038
  65.2709992  68.4849978  56.9520014  64.9429992  68.7559978  56.0950014
  65.4229992  67.5439978  56.8640014  65.2466412  68.3949046  56.8227822
  71.0059992  68.4009978  54.3350014  71.7509992  68.9899978  54.2160014
  70.2489992  68.9829978  54.3990014  71.0055470  68.5602128  54.3273799
  74.5679992  67.4289978  39.6660014  74.2939992  67.0049978  38.8530014
  74.6069992  68.3609978  39.4490014  74.5357716  67.4968827  39.5254286
  65.7289992  65.8889978  53.1280014  66.4799992  65.7329978  52.5550014
  65.3899992  66.7409978  52.8530014  65.7859587  65.9828138  53.0124078
  64.9529992  57.9059978  53.3200014  64.8549992  58.8519978  53.2150014
  64.2109992  57.5329978  52.8440014  64.8392534  57.9851773  53.2412600
  75.0259992  68.2979978  43.6410014  75.8759992  68.7189978  43.7680014
  75.0309992  67.5579978  44.2480014  75.1431143  68.2556094  43.7404750
  75.4199992  66.3519978  45.4640014  74.6939992  65.8719978  45.8620014
  76.0019992  66.5569978  46.1970014  75.3992730  66.3140184  45.6174149
  75.6889992  66.2529978  41.8550014  75.1669992  66.6089978  41.1370014
  75.6559992  66.9279978  42.5340014  75.6130129  66.3929598  41.8483355
  74.0379992  63.4919978  40.4060014  74.1339992  64.1589978  39.7260014
  73.8979992  62.6769978  39.9250014  74.0322040  63.4730671  40.2478378
  73.2069992  64.8729978  46.0270014  73.0569992  63.9279978  46.0070014
  72.8529992  65.1539978  46.8710014  73.1386351  64.7816644  46.1383220
  73.2849992  60.8999978  39.5240014  73.8959992  60.5289978  40.1610014
  72.4479992  60.4789978  39.7200014  73.2554947  60.7922756  39.6377252
  72.9179992  62.4549978  44.4900014  73.1969992  61.5479978  44.6140014
  73.6769992  62.8889978  44.1010014  73.0588619  62.3894502  44.4543795
  73.5289992  63.0369978  49.9260014  74.4619992  63.2489978  49.8910014
  73.2939992  63.1379978  50.8480014  73.6249517  63.0796833  50.0459130
  75.8419992  57.7539978  58.0550014  76.1909992  57.0999978  57.4500014
  75.9889992  58.5909978  57.6150014  75.9096824  57.7776024  57.9126304
  73.5309992  59.7179978  44.5380014  73.7129992  59.2689978  45.3630014
  72.9309992  59.1339978  44.0740014  73.4748187  59.5775552  44.5882739
  59.0609992  60.5339978  49.0700014  59.5059992  59.7419978  49.3720014
  59.5269992  61.2499978  49.5000014  59.1849718  60.5224534  49.1695265
  57.3649992  63.5329978  50.1390014  57.8569992  63.3119978  49.3480014
  57.7269992  64.3729978  50.4200014  57.4812923  63.6163468  50.0687407
  75.3979992  59.7859978  41.0660014  75.8099992  59.0649978  40.5910014
  76.0789992  60.4549978  41.1240014  75.5465536  59.7777766  41.0088024
  57.6789992  59.7909978  44.1930014  56.7539992  59.9989978  44.0640014
  58.1329992  60.2749978  43.5030014  57.6136298  59.8849299  44.0820451
  57.6419992  58.5289978  52.5370014  56.9769992  58.2829978  53.1800014
  57.1989992  59.1509978  51.9600014  57.4911168  58.5794214  52.5469848
  59.8339992  71.7039978  56.6820014  59.0129992  71.8789978  56.2210014
  59.5819992  71.6309978  57.6020014  59.6875594  71.7180717  56.7433611
  62.6569992  75.5349978  52.0180014  61.7929992  75.6069978  52.4220014
  62.6019992  76.0819978  51.2340014  62.5311942  75.6187849  51.9674000
  67.7919992  59.4019978  48.5460014  67.1179992  58.7719978  48.8020014
  68.3559992  58.9179978  47.9430014  67.7760384  59.2503708  48.4995020
  72.9349992  57.5089978  48.6590014  73.5379992  58.0569978  48.1570014
  72.0649992  57.8279978  48.4180014  72.8999157  57.6270373  48.5577910
  74.6619992  58.6479978  46.9920014  75.2729992  58.1339978  46.4650014
  75.0439992  59.5249978  47.0150014  74.7973305  58.6962050  46.9229418
  60.1189992  58.0359978  46.3680014  59.3419992  57.8009978  45.8610014
  60.6489992  57.2389978  46.3770014  60.0843451  57.8961268  46.2998627
  58.9549992  57.8339978  42.1720014  59.3939992  58.4449978  41.5800014
  58.3209992  58.3719978  42.6460014  58.9293859  57.9904064  42.1550305
  64.6979992  57.9619978  46.1810014  65.5719992  58.3509978  46.1520014
  64.5619992  57.7469978  47.1040014  64.7991953  57.9861643  46.3017617
  70.2549992  57.9919978  47.8310014  70.3309992  58.0879978  46.8810014
  69.9799992  57.0849978  47.9590014  70.2281871  57.8824146  47.7183944
  71.6079992  58.0179978  43.5230014  70.9049992  58.6329978  43.3130014
  71.1629992  57.1809978  43.6540014  71.4516550  57.9889668  43.5119837
  60.8159992  59.7499978  40.6140014  61.3069992  59.1199978  40.0870014
  61.4389992  60.0459978  41.2770014  60.9675304  59.7037376  40.6314940
  65.8419992  60.0429978  43.0710014  66.0199992  59.3959978  43.7540014
  65.7879992  60.8769978  43.5380014  65.8590678  60.0671604  43.2276301
  70.4709992  57.2329978  57.6040014  70.5469992  56.8069978  58.4570014
  71.3639992  57.2459978  57.2610014  70.6022303  57.1763493  57.6745497
  88.0529992  67.1919978  46.3270014  88.1419992  68.1359978  46.1950014
  87.4149992  66.9169978  45.6690014  87.9789061  67.2839812  46.2199641
  86.9859992  66.4469978  49.7460014  86.9479992  65.8009978  50.4510014
  86.6639992  65.9799978  48.9750014  86.9372679  66.2954276  49.7382921
  90.6919992  69.3859978  48.0470014  90.2509992  68.6659978  48.4980014
  90.6789992  70.1069978  48.6770014  90.6299215  69.3849291  48.1938105
  94.0379992  60.4809978  51.0120014  94.0879992  61.0909978  51.7480014
  94.4639992  60.9419978  50.2890014  94.1024108  60.6267709  51.0150112
  88.5159992  63.2729978  50.4790014  88.6589992  62.3269978  50.4990014
  88.4099992  63.4799978  49.5510014  88.5212403  63.1714797  50.3562239
  89.3929992  61.5059978  46.1530014  90.0399992  61.1769978  46.7770014
  89.9029992  62.0229978  45.5300014  89.5504351  61.5309067  46.1541037
  94.4299992  61.9589978  53.2480014  93.7409992  62.6169978  53.1530014
  94.4449992  61.7609978  54.1850014  94.3377756  62.0222603  53.3615812
  87.8499992  69.7929978  45.3700014  87.5549992  69.4699978  44.5180014
  87.5259992  70.6929978  45.4110014  87.7658460  69.8704464  45.2589714
  83.0499992  67.9679978  52.1130014  82.3099992  68.5669978  52.2170014
  83.7639992  68.5219978  51.7980014  83.0453500  68.1247829  52.0846371
  91.1569992  60.7969978  48.1330014  90.9419992  60.0309978  48.6660014
  91.8129992  61.2689978  48.6460014  91.2162673  60.7560728  48.2751990
  91.2039992  71.2249978  50.3950014  90.2619992  71.2839978  50.5570014
  91.4799992  72.1309978  50.2580014  91.1125865  71.3555288  50.3986192
  91.5039992  59.5119978  51.8120014  90.7679992  60.1219978  51.7750014
  92.1879992  59.9269978  51.2860014  91.4955367  59.6517551  51.7358174
  84.5079992  57.5979978  49.2780014  84.3899992  56.6499978  49.2240014
  83.6529992  57.9309978  49.5510014  84.3762805  57.5132202  49.3075079
  89.4559992  73.0059978  47.0200014  89.8809992  72.2989978  46.5350014
  89.7729992  73.8079978  46.6030014  89.5570266  73.0175190  46.8972479
  90.6159992  70.9069978  45.5290014  90.3579992  70.2169978  44.9170014
  90.6869992  70.4639978  46.3740014  90.5903050  70.7526814  45.5595621
  92.3019992  69.4739978  54.0060014  92.4409992  68.8819978  53.2670014
  92.4689992  70.3469978  53.6500014  92.3436193  69.5108896  53.8566211
  86.7739992  66.4359978  43.7790014  86.0629992  66.9709978  43.4270014
  87.4649992  66.4909978  43.1190014  86.7700751  66.5166777  43.6415858
  86.8279992  64.8929978  40.8170014  87.5289992  64.9159978  41.4690014
  87.1299992  64.2649978  40.1610014  86.9648202  64.8112212  40.8175609
  94.1429992  65.8139978  52.0720014  93.4909992  66.5079978  52.1610014
  94.6089992  66.0239978  51.2620014  94.1165937  65.9375019  51.9747533
  90.1799992  66.6449978  44.7300014  89.4479992  66.8739978  45.3040014
  90.6269992  65.9319978  45.1850014  90.1403963  66.5798729  44.8699945
  90.0769992  64.8199978  53.7980014  90.1569992  65.5829978  54.3700014
  89.4759992  65.0989978  53.1080014  90.0066547  64.9622457  53.7830047
  82.1919992  66.0439978  50.2460014  82.7569992  66.1659978  49.4840014
  82.5109992  66.6819978  50.8850014  82.3124166  66.1468791  50.2280348
  89.0509992  65.8079978  42.4160014  89.6299992  65.9579978  43.1620014
  89.4649992  66.2779978  41.6920014  89.1863358  65.8920954  42.4203953
  86.7769992  72.5439978  45.8510014  87.2509992  72.8399978  46.6280014
  86.2139992  73.2829978  45.6180014  86.7657890  72.6843036  45.9258101
  92.7499992  57.5579978  42.2290014  91.8499992  57.6969978  42.5240014
  93.0019992  58.3889978  41.8270014  92.6608683  57.6894055  42.2150232
  93.9389992  71.9239978  40.6050014  94.0119992  72.8629978  40.7750014
  94.8439992  71.6189978  40.5490014  94.0714170  72.0113282  40.6207063
  94.8569992  72.1549978  55.5840014  94.8069992  71.1989978  55.5460014
  94.0299992  72.4219978  55.9850014  94.7383831  72.0604680  55.6330121
  89.3509992  74.6549978  41.2680014  89.7259992  73.9109978  40.7970014
  89.3559992  74.3849978  42.1860014  89.4030098  74.5166392  41.3276629
  89.0199992  74.5809978  44.0170014  88.0849992  74.6809978  44.1960014
  89.2999992  73.8709978  44.5960014  88.9299471  74.4987933  44.1196695
  92.0089992  63.6479978  56.0640014  91.6009992  64.1279978  55.3430014
  92.0489992  62.7419978  55.7560014  91.9586221  63.5912449  55.9238267
  86.4389992  58.2239978  53.4310014  86.8589992  57.8089978  54.1840014
  85.5059992  58.0449978  53.5480014  86.3703736  58.1429910  53.5498968
  89.7659992  61.9789978  54.2840014  89.2519992  61.8539978  55.0820014
  89.6099992  62.8919978  54.0400014  89.6746967  62.0852123  54.3600937
  90.5279992  66.8399978  40.0450014  90.5699992  66.6179978  39.1150014
  91.3769992  67.2389978  40.2350014  90.6485253  66.8635498  39.9433822
  86.1009992  60.7159978  40.7160014  85.8469992  60.7349978  41.6380014
  85.8439992  59.8449978  40.4140014  86.0314508  60.6008280  40.8014803
  87.3999992  64.1039978  44.8800014  86.9909992  64.9189978  44.5880014
  88.1199992  63.9639978  44.2660014  87.4414439  64.1965372  44.7570115
  88.4049992  63.5499978  47.6940014  88.2089992  64.1559978  46.9790014
  88.5859992  62.7169978  47.2600014  88.4026584  63.5202513  47.5374212
  82.9829992  61.1619978  39.8170014  82.5519992  60.7169978  40.5460014
  82.2649992  61.5329978  39.3040014  82.8269176  61.1512051  39.8474930
  84.4459992  61.1159978  47.1490014  83.5349992  61.1729978  47.4380014
  84.9509992  61.0559978  47.9600014  84.3896873  61.1156826  47.2981207
  88.8509992  60.3509978  50.4140014  88.1739992  60.4819978  51.0770014
  88.3659992  60.1959978  49.6030014  88.6927405  60.3479947  50.3952170
  81.6009992  63.9389978  41.1990014  81.0589992  63.5599978  40.5080014
  82.4349992  64.1339978  40.7710014  81.6394390  63.9134079  41.0464392
  92.1389992  76.0219978  56.6900014  92.3379992  76.4459978  55.8560014
  92.7939992  76.3659978  57.2970014  92.2548522  76.1266301  56.6577852
  85.7659992  63.9029978  49.0360014  86.3299992  63.3569978  48.4890014
  85.6179992  63.3819978  49.8250014  85.8233037  63.7576787  49.0677229
  84.3919992  62.2919978  51.4500014  83.5569992  62.7459978  51.5610014
  84.9159992  62.5679978  52.2020014  84.3486072  62.3913948  51.5668136
  84.9369992  68.5049978  43.1350014  84.1919992  67.9969978  42.8130014
  84.8019992  68.5539978  44.0810014  84.8168963  68.4421731  43.2188826
  92.0869992  67.6379978  51.9220014  92.7279992  68.0939978  51.3780014
  91.2559992  67.7509978  51.4590014  92.0625287  67.7156921  51.7849887
  88.8339992  61.3189978  41.3340014  87.8959992  61.4299978  41.1830014
  89.1319992  62.1749978  41.6410014  88.7456318  61.4500158  41.3548145
  89.5529992  63.1859978  42.9950014  90.4449992  63.0479978  43.3140014
  89.6089992  63.9769978  42.4580014  89.6827325  63.2739918  42.9661217
  87.0619992  69.9629978  42.1600014  86.7669992  70.7899978  42.5420014
  86.3589992  69.3439978  42.3570014  86.9266379  69.9924171  42.2388654
  94.4379992  63.3949978  42.6900014  93.8829992  62.9989978  42.0170014
  94.5379992  64.3059978  42.4120014  94.3756816  63.4639505  42.5605033
  94.4009992  69.1959978  55.5270014  93.5499992  69.4339978  55.1590014
  94.9909992  69.1789978  54.7740014  94.3643812  69.2262524  55.3748453
  92.7329992  72.1809978  43.1550014  92.3599992  71.3559978  43.4640014
  93.0099992  71.9979978  42.2570014  92.7193463  72.0432569  43.0759525
  89.8929992  66.9889978  50.1760014  88.9649992  66.7579978  50.1490014
  90.3439992  66.2119978  49.8460014  89.8268165  66.8522774  50.1276790
  78.1909992  66.1799978  40.8960014  78.8069992  66.8069978  41.2760014
  77.3289992  66.4959978  41.1680014  78.1587678  66.3084412  40.9847209
  83.8639992  68.9809978  45.8850014  83.6229992  69.9059978  45.9270014
  83.1229992  68.5219978  46.2820014  83.7309206  69.0455915  45.9443769
  90.1249992  70.1579978  40.9750014  90.4789992  69.7779978  41.7790014
  89.1769992  70.0639978  41.0620014  90.0452298  70.0932452  41.0968687
  90.5809992  73.7809978  54.3700014  89.9789992  73.2249978  53.8750014
  90.8619992  74.4479978  53.7440014  90.5365757  73.7950744  54.2175675
  94.6289992  74.6369978  41.1760014  95.3729992  75.2229978  41.0360014
  93.9349992  75.2059978  41.5090014  94.6369809  74.7940818  41.2018590
  90.9909992  68.8299978  43.2020014  90.7139992  68.1019978  43.7580014
  91.9189992  68.9489978  43.4070014  91.0784499  68.7464213  43.3058044
  87.4379992  60.7549978  52.6680014  88.1369992  60.8289978  53.3180014
  87.0569992  59.8899978  52.8220014  87.4822097  60.6482389  52.7777997
  88.2219992  60.4069978  43.7650014  88.4419992  60.8779978  42.9610014
  88.7809992  60.8009978  44.4350014  88.3276732  60.5247287  43.7455033
  85.8909992  72.5369978  42.6280014  85.0739992  73.0339978  42.6800014
  86.4199992  73.0129978  41.9870014  85.8508125  72.6691989  42.5485306
  85.4219992  62.1349978  44.6000014  86.2339992  62.6389978  44.6460014
  85.1779992  61.9899978  45.5140014  85.5001467  62.1843749  44.7298575
  86.3059992  59.2159978  45.5380014  85.9589992  59.8329978  46.1820014
  86.9649992  59.7169978  45.0560014  86.3475090  59.3681575  45.5610681
  81.9639992  60.2789978  42.2250014  81.8799992  61.1669978  42.5720014
  82.8539992  60.0139978  42.4570014  82.0728163  60.3647179  42.3038596
  92.1619992  61.0279978  54.6190014  91.2459992  61.2899978  54.5320014
  92.4979992  61.0249978  53.7230014  92.0818499  61.0635163  54.4858766
  90.7649992  64.7779978  48.7150014  89.9669992  64.3629978  48.3870014
  91.2099992  64.0879978  49.2060014  90.7159684  64.6278628  48.7365227
  78.5379992  63.3709978  40.4010014  78.4929992  64.3099978  40.5800014
  77.6499992  63.1349978  40.1320014  78.4118166  63.4676687  40.3891524
  91.8509992  74.0339978  50.3370014  91.6949992  74.7129978  49.6800014
  92.7839992  74.1059978  50.5400014  91.9557387  74.1366390  50.2745342
  86.2539992  73.1329978  39.5610014  85.6099992  72.5019978  39.8820014
  87.0159992  72.6019978  39.3290014  86.2688058  72.9747902  39.5736038
  90.8589992  72.9499978  39.7940014  91.1419992  72.1549978  40.2470014
  91.5979992  73.1829978  39.2330014  90.9977096  72.8727049  39.7801104
  87.1659992  69.9059978  39.3880014  86.8969992  70.0869978  40.2880014
  86.9589992  68.9809978  39.2560014  87.1011191  69.8057119  39.4935524
  89.8619992  68.4009978  54.3350014  90.6069992  68.9899978  54.2160014
  89.1049992  68.9829978  54.3990014  89.8615470  68.5602128  54.3273799
  82.9629992  66.8319978  41.9580014  82.5029992  66.3479978  42.6430014
  83.2179992  66.1629978  41.3220014  82.9344856  66.6753669  41.9658397
  84.0339992  65.0749978  40.2200014  83.8529992  64.9199978  39.2930014
  84.9839992  65.1829978  40.2650014  84.1376566  65.0683669  40.0990929
  93.4239992  67.4289978  39.6660014  93.1499992  67.0049978  38.8530014
  93.4629992  68.3609978  39.4490014  93.3917716  67.4968827  39.5254286
  90.3179992  66.4929978  56.2340014  90.0359992  67.2019978  55.6560014
  91.2599992  66.4199978  56.0830014  90.4067921  66.5802193  56.1344225
  87.7889992  61.3549978  55.9590014  86.8409992  61.3869978  56.0910014
  88.1009992  60.7289978  56.6130014  87.7015293  61.2747923  56.0654148
  89.4229992  59.9889978  57.9640014  89.3259992  59.0369978  57.9590014
  89.1009992  60.2569978  58.8250014  89.3662468  59.8950884  58.0796210
  94.5669992  74.6849978  50.5670014  94.5449992  74.8699978  51.5060014
  95.2569992  75.2529978  50.2260014  94.6573439  74.7871887  50.6494791
  94.1299992  74.2519978  53.4880014  93.6429992  73.5169978  53.1170014
  94.6789992  73.8579978  54.1660014  94.1375247  74.0981057  53.5288461
  92.5809992  70.0419978  58.1270014  91.7149992  69.9369978  58.5210014
  92.9569992  70.7999978  58.5730014  92.5133401  70.1301708  58.2412620
  93.8819992  68.2979978  43.6410014  94.7319992  68.7189978  43.7680014
  93.8869992  67.5579978  44.2480014  93.9991143  68.2556094  43.7404750
  94.2759992  66.3519978  45.4640014  93.5499992  65.8719978  45.8620014
  94.8579992  66.5569978  46.1970014  94.2552730  66.3140184  45.6174149
  94.0349992  69.1369978  50.4120014  94.8689992  68.7589978  50.1310014
  94.1469992  70.0799978  50.2930014  94.1641917  69.2127943  50.3574861
  92.5219992  72.0149978  52.7190014  91.8739992  72.3399978  53.3440014
  92.0039992  71.5739978  52.0450014  92.3634196  71.9998651  52.7134152
  94.5449992  66.2529978  41.8550014  94.0229992  66.6089978  41.1370014
  94.5119992  66.9279978  42.5340014  94.4690129  66.3929598  41.8483355
  92.8939992  63.4919978  40.4060014  92.9899992  64.1589978  39.7260014
  92.7539992  62.6769978  39.9250014  92.8882040  63.4730671  40.2478378
  92.0629992  64.8729978  46.0270014  91.9129992  63.9279978  46.0070014
  91.7089992  65.1539978  46.8710014  91.9946351  64.7816644  46.1383220
  92.9189992  66.8429978  55.6660014  93.5019992  66.1079978  55.8580014
  93.4829992  67.6149978  55.7130014  93.0749781  66.8468145  55.6986164
  94.4159992  64.7459978  56.3510014  93.5529992  64.3669978  56.1850014
  95.0199992  64.0069978  56.2760014  94.3796085  64.5943223  56.3181694
  92.1409992  60.8999978  39.5240014  92.7519992  60.5289978  40.1610014
  91.3039992  60.4789978  39.7200014  92.1114947  60.7922756  39.6377252
  91.7739992  62.4549978  44.4900014  92.0529992  61.5479978  44.6140014
  92.5329992  62.8889978  44.1010014  91.9148619  62.3894502  44.4543795
  92.3849992  63.0369978  49.9260014  93.3179992  63.2489978  49.8910014
  92.1499992  63.1379978  50.8480014  92.4809517  63.0796833  50.0459130
  92.4149992  63.7739978  52.7020014  91.5719992  64.0419978  53.0680014
  92.8569992  64.5959978  52.4910014  92.3594138  63.9218273  52.7235518
  94.6979992  57.7539978  58.0550014  95.0469992  57.0999978  57.4500014
  94.8449992  58.5909978  57.6150014  94.7656824  57.7776024  57.9126304
  92.3869992  59.7179978  44.5380014  92.5689992  59.2689978  45.3630014
  91.7869992  59.1339978  44.0740014  92.3308187  59.5775552  44.5882739
  94.2169992  59.8629978  56.4040014  93.2999992  60.1339978  56.3690014
  94.3399992  59.3279978  55.6200014  94.1079672  59.8277885  56.2931862
  94.2539992  59.7859978  41.0660014  94.6659992  59.0649978  40.5910014
  94.9349992  60.4549978  41.1240014  94.4025536  59.7777766  41.0088024
  91.3049992  74.7749978  46.1390014  91.9579992  74.4269978  45.5310014
  91.8159992  75.2629978  46.7850014  91.4632777  74.7933815  46.1432047
  78.6899992  71.7039978  56.6820014  77.8689992  71.8789978  56.2210014
  78.4379992  71.6309978  57.6020014  78.5435594  71.7180717  56.7433611
  93.2179992  57.9529978  54.2230014  92.4049992  58.2779978  53.8360014
  93.4509992  57.1919978  53.6900014  93.1381347  57.8946880  54.0979841
  91.1559992  75.8709978  52.4330014  90.9739992  76.7869978  52.2220014
  91.3329992  75.4599978  51.5860014  91.1550030  75.9408273  52.2897166
  86.6479992  59.4019978  48.5460014  85.9739992  58.7719978  48.8020014
  87.2119992  58.9179978  47.9430014  86.6320384  59.2503708  48.4995020
  91.7909992  57.5089978  48.6590014  92.3939992  58.0569978  48.1570014
  90.9209992  57.8279978  48.4180014  91.7559157  57.6270373  48.5577910
  93.5179992  58.6479978  46.9920014  94.1289992  58.1339978  46.4650014
  93.8999992  59.5249978  47.0150014  93.6533305  58.6962050  46.9229418
  78.9749992  58.0359978  46.3680014  78.1979992  57.8009978  45.8610014
  79.5049992  57.2389978  46.3770014  78.9403451  57.8961268  46.2998627
  77.8109992  57.8339978  42.1720014  78.2499992  58.4449978  41.5800014
  77.1769992  58.3719978  42.6460014  77.7853859  57.9904064  42.1550305
  83.5539992  57.9619978  46.1810014  84.4279992  58.3509978  46.1520014
  83.4179992  57.7469978  47.1040014  83.6551953  57.9861643  46.3017617
  89.1109992  57.9919978  47.8310014  89.1869992  58.0879978  46.8810014
  88.8359992  57.0849978  47.9590014  89.0841871  57.8824146  47.7183944
  90.4639992  58.0179978  43.5230014  89.7609992  58.6329978  43.3130014
  90.0189992  57.1809978  43.6540014  90.3076550  57.9889668  43.5119837
  79.6719992  59.7499978  40.6140014  80.1629992  59.1199978  40.0870014
  80.2949992  60.0459978  41.2770014  79.8235304  59.7037376  40.6314940
  84.6979992  60.0429978  43.0710014  84.8759992  59.3959978  43.7540014
  84.6439992  60.8769978  43.5380014  84.7150678  60.0671604  43.2276301
  86.5759992  74.9909978  41.4670014  87.4419992  75.3579978  41.2890014
  86.3299992  74.5519978  40.6530014  86.6612097  74.9818525  41.3326019
  93.2849992  74.5539978  44.1460014  93.0909992  73.8059978  43.5810014
  93.2459992  75.3119978  43.5630014  93.2531645  74.5540786  43.9898148
  89.3269992  57.2329978  57.6040014  89.4029992  56.8069978  58.4570014
  90.2199992  57.2459978  57.2610014  89.4582303  57.1763493  57.6745497
  92.5029992  73.3059978  56.2960014  91.7209992  73.1189978  55.7760014
  92.4309992  74.2349978  56.5130014  92.3861924  73.4060637  56.2541602
 106.9089992  67.1919978  46.3270014 106.9979992  68.1359978  46.1950014
 106.2709992  66.9169978  45.6690014 106.8349062  67.2839812  46.2199641
 105.8419992  66.4469978  49.7460014 105.8039992  65.8009978  50.4510014
 105.5199992  65.9799978  48.9750014 105.7932679  66.2954276  49.7382921
  98.2099992  66.0609978  51.3390014  98.2519992  65.4359978  52.0620014
  98.9129992  66.6849978  51.5210014  98.3107345  66.0597873  51.4625273
 109.5479992  69.3859978  48.0470014 109.1069992  68.6659978  48.4980014
 109.5349992  70.1069978  48.6770014 109.4859215  69.3849291  48.1938105
  99.1339992  70.5109978  49.8740014  98.7639992  69.7089978  49.5040014
 100.0749992  70.3429978  49.9200014  99.2105984  70.3784638  49.8295603
  95.7439992  64.1709978  45.2660014  95.2959992  65.0169978  45.2480014
  95.1829992  63.5919978  44.7510014  95.6068546  64.2083993  45.1938891
  96.4539992  66.3329978  47.3920014  96.6679992  65.5629978  47.9200014
  97.1919992  66.4229978  46.7890014  96.5830200  66.2398587  47.3827035
 106.6599992  74.4899978  48.2590014 107.2789992  73.8139978  47.9860014
 106.4509992  74.2719978  49.1680014 106.7166056  74.3678869  48.3443967
 104.2309992  68.8789978  50.1520014 104.5349992  68.1929978  49.5570014
 104.9529992  68.9979978  50.7700014 104.3701240  68.8012314  50.1540959
 112.8939992  60.4809978  51.0120014 112.9439992  61.0909978  51.7480014
 113.3199992  60.9419978  50.2890014 112.9584108  60.6267709  51.0150112
 107.3719992  63.2729978  50.4790014 107.5149992  62.3269978  50.4990014
 107.2659992  63.4799978  49.5510014 107.3772403  63.1714797  50.3562239
 100.5269992  61.3749978  47.7520014 100.5699992  62.2349978  47.3330014
 100.0689992  60.8229978  47.1180014 100.4709871  61.4179245  47.6090761
 108.2489992  61.5059978  46.1530014 108.8959992  61.1769978  46.7770014
 108.7589992  62.0229978  45.5300014 108.4064351  61.5309067  46.1541037
  97.1469992  63.7719978  48.5140014  97.8009992  63.2219978  48.9460014
  97.1709992  63.4979978  47.5970014  97.2397199  63.6597167  48.4491668
 102.3039992  65.3219978  47.7290014 102.9199992  64.7949978  48.2380014
 101.7169992  64.6819978  47.3250014 102.3090154  65.1633954  47.7440945
 113.2859992  61.9589978  53.2480014 112.5969992  62.6169978  53.1530014
 113.3009992  61.7609978  54.1850014 113.1937756  62.0222603  53.3615812
  99.3369992  60.2929978  51.8260014  99.1179992  60.8229978  51.0590014
  98.6689992  60.5189978  52.4730014  99.2166975  60.3960967  51.8085140
 106.7059992  69.7929978  45.3700014 106.4109992  69.4699978  44.5180014
 106.3819992  70.6929978  45.4110014 106.6218460  69.8704464  45.2589714
 101.9059992  67.9679978  52.1130014 101.1659992  68.5669978  52.2170014
 102.6199992  68.5219978  51.7980014 101.9013500  68.1247829  52.0846371
 110.0129992  60.7969978  48.1330014 109.7979992  60.0309978  48.6660014
 110.6689992  61.2689978  48.6460014 110.0722673  60.7560728  48.2751990
  98.9309992  62.1849978  49.7780014  99.5449992  62.8179978  50.1510014
  99.4429992  61.7129978  49.1220014  99.0841962  62.2077249  49.7402935
 100.3139992  69.9329978  52.9000014 100.3079992  70.8119978  52.5220014
  99.4599992  69.8489978  53.3250014 100.1977925  70.0419535  52.9056887
  96.4349992  69.6039978  43.6820014  96.1629992  69.8329978  42.7940014
  96.4799992  70.4409978  44.1430014  96.4038097  69.7486163  43.6226683
 110.0599992  71.2249978  50.3950014 109.1179992  71.2839978  50.5570014
 110.3359992  72.1309978  50.2580014 109.9685865  71.3555288  50.3986192
 110.3599992  59.5119978  51.8120014 109.6239992  60.1219978  51.7750014
 111.0439992  59.9269978  51.2860014 110.3515367  59.6517551  51.7358174
 103.3639992  57.5979978  49.2780014 103.2459992  56.6499978  49.2240014
 102.5089992  57.9309978  49.5510014 103.2322805  57.5132202  49.3075079
 108.3119992  73.0059978  47.0200014 108.7369992  72.2989978  46.5350014
 108.6289992  73.8079978  46.6030014 108.4130266  73.0175190  46.8972479
 109.4719992  70.9069978  45.5290014 109.2139992  70.2169978  44.9170014
 109.5429992  70.4639978  46.3740014 109.4463050  70.7526814  45.5595621
 111.1579992  69.4739978  54.0060014 111.2969992  68.8819978  53.2670014
 111.3249992  70.3469978  53.6500014 111.1996193  69.5108896  53.8566211
 105.6299992  66.4359978  43.7790014 104.9189992  66.9709978  43.4270014
 106.3209992  66.4909978  43.1190014 105.6260751  66.5166777  43.6415858
 105.6839992  64.8929978  40.8170014 106.3849992  64.9159978  41.4690014
 105.9859992  64.2649978  40.1610014 105.8208202  64.8112212  40.8175609
 112.9989992  65.8139978  52.0720014 112.3469992  66.5079978  52.1610014
 113.4649992  66.0239978  51.2620014 112.9725937  65.9375019  51.9747533
 109.0359992  66.6449978  44.7300014 108.3039992  66.8739978  45.3040014
 109.4829992  65.9319978  45.1850014 108.9963963  66.5798729  44.8699945
 108.9329992  64.8199978  53.7980014 109.0129992  65.5829978  54.3700014
 108.3319992  65.0989978  53.1080014 108.8626547  64.9622457  53.7830047
 100.6809992  67.2759978  46.6130014 100.3509992  66.9049978  45.7950014
 101.2699992  66.6049978  46.9600014 100.7153970  67.1346063  46.5479404
 102.0479992  70.7039978  49.2940014 101.9529992  70.1249978  48.5380014
 102.7769992  70.3329978  49.7900014 102.1336011  70.5745561  49.2576028
 101.0479992  66.0439978  50.2460014 101.6129992  66.1659978  49.4840014
 101.3669992  66.6819978  50.8850014 101.1684166  66.1468791  50.2280348
 107.3569992  71.5479978  50.9800014 107.1169992  72.2099978  51.6280014
 107.1589992  70.7129978  51.4050014 107.2973826  71.5258115  51.1261566
 101.9279992  70.4439978  54.9640014 101.6169992  71.2259978  55.4190014
 101.2779992  70.2909978  54.2780014 101.7975538  70.5304087  54.9335898
 107.9069992  65.8079978  42.4160014 108.4859992  65.9579978  43.1620014
 108.3209992  66.2779978  41.6920014 108.0423358  65.8920955  42.4203953
  98.8479992  66.6419978  54.1920014  98.9179992  67.2929978  54.8910014
  97.9569992  66.7449978  53.8570014  98.7371690  66.7449249  54.2423043
 105.6329992  72.5439978  45.8510014 106.1069992  72.8399978  46.6280014
 105.0699992  73.2829978  45.6180014 105.6217890  72.6843036  45.9258101
 100.1669992  72.5149978  55.7270014 100.1749992  72.3789978  54.7800014
  99.2509992  72.3979978  55.9790014 100.0442528  72.4805463  55.6313243
 111.6059992  57.5579978  42.2290014 110.7059992  57.6969978  42.5240014
 111.8579992  58.3889978  41.8270014 111.5168683  57.6894055  42.2150232
  99.6719992  66.3449978  44.2020014  99.3799992  67.1129978  43.7110014
  98.9969992  65.6859978  44.0390014  99.5408497  66.3609745  44.1128260
 112.7949992  71.9239978  40.6050014 112.8679992  72.8629978  40.7750014
 113.6999992  71.6189978  40.5490014 112.9274170  72.0113282  40.6207063
  95.7649992  68.7079978  53.0170014  95.2629992  68.6799978  52.2020014
  95.7699992  67.8029978  53.3270014  95.6969832  68.5817486  52.9474121
  95.5149992  71.4889978  49.9010014  96.4609992  71.3439978  49.8820014
  95.4019992  72.2729978  50.4380014  95.6293578  71.5751697  49.9710317
 113.7129992  72.1549978  55.5840014 113.6629992  71.1989978  55.5460014
 112.8859992  72.4219978  55.9850014 113.5943831  72.0604680  55.6330121
 104.6909992  71.7289978  54.4600014 104.7789992  72.5549978  54.9350014
 103.8279992  71.3989978  54.7090014 104.5863357  71.7975468  54.5587653
 105.1059992  75.5009978  44.2660014 105.0299992  75.3799978  43.3190014
 105.1379992  76.4499978  44.3840014 105.0999380  75.6127677  44.1525181
  98.7589992  74.2899978  46.0470014  98.9109992  73.9419978  46.9250014
  97.9079992  73.9329978  45.7910014  98.6648344  74.1940879  46.1326868
 108.2069992  74.6549978  41.2680014 108.5819992  73.9109978  40.7970014
 108.2119992  74.3849978  42.1860014 108.2590098  74.5166392  41.3276629
 107.8759992  74.5809978  44.0170014 106.9409992  74.6809978  44.1960014
 108.1559992  73.8709978  44.5960014 107.7859471  74.4987933  44.1196695
 110.8649992  63.6479978  56.0640014 110.4569992  64.1279978  55.3430014
 110.9049992  62.7419978  55.7560014 110.8146221  63.5912449  55.9238267
  98.0139992  70.0319978  54.0600014  98.2299992  69.6699978  54.9200014
  97.1579992  69.6569978  53.8510014  97.9278810  69.9318837  54.1492680
 100.6319992  58.5019978  50.0560014  99.7709992  58.4149978  49.6480014
 100.6099992  59.3579978  50.4840014 100.5110491  58.6058003  50.0579582
 105.2949992  58.2239978  53.4310014 105.7149992  57.8089978  54.1840014
 104.3619992  58.0449978  53.5480014 105.2263736  58.1429910  53.5498968
 108.6219992  61.9789978  54.2840014 108.1079992  61.8539978  55.0820014
 108.4659992  62.8919978  54.0400014 108.5306967  62.0852123  54.3600937
 109.3839992  66.8399978  40.0450014 109.4259992  66.6179978  39.1150014
 110.2329992  67.2389978  40.2350014 109.5045253  66.8635498  39.9433822
 104.9569992  60.7159978  40.7160014 104.7029992  60.7349978  41.6380014
 104.6999992  59.8449978  40.4140014 104.8874508  60.6008280  40.8014803
 100.7229992  63.4669978  51.1510014 100.0819992  63.4269978  51.8600014
 100.7609992  64.3939978  50.9130014 100.6403010  63.5867668  51.2159946
 100.7199992  63.6879978  46.0630014  99.8279992  63.3479978  46.0040014
 101.1709992  63.3109978  45.3070014 100.6587642  63.5904910  45.9527726
 106.2559992  64.1039978  44.8800014 105.8469992  64.9189978  44.5880014
 106.9759992  63.9639978  44.2660014 106.2974439  64.1965372  44.7570115
 105.3579992  64.2799978  56.3680014 104.7949992  63.5749978  56.6890014
 106.1839992  64.1589978  56.8360014 105.3926674  64.1672165  56.4751751
 107.2609992  63.5499978  47.6940014 107.0649992  64.1559978  46.9790014
 107.4419992  62.7169978  47.2600014 107.2586584  63.5202513  47.5374212
  98.4729992  63.7879978  53.0180014  98.4349992  64.1879978  53.8870014
  97.9829992  62.9709978  53.1080014  98.4015330  63.7322674  53.1491289
 101.8389992  61.1619978  39.8170014 101.4079992  60.7169978  40.5460014
 101.1209992  61.5329978  39.3040014 101.6829176  61.1512051  39.8474930
  95.0819992  60.9039978  46.8690014  95.7119992  60.8749978  47.5880014
  95.5309992  60.4789978  46.1380014  95.2290835  60.8425660  46.8687659
  96.3559992  61.6499978  42.2930014  96.8299992  62.2409978  41.7080014
  95.6379992  62.1799978  42.6400014  96.3238640  61.8025511  42.2597969
 106.5249992  65.1879978  52.3650014 106.8479992  64.5569978  51.7220014
 106.0839992  64.6539978  53.0260014 106.5096379  65.0293468  52.3662582
 103.3019992  61.1159978  47.1490014 102.3909992  61.1729978  47.4380014
 103.8069992  61.0559978  47.9600014 103.2456873  61.1156826  47.2981207
  98.1299992  62.7449978  45.9760014  97.2409992  62.8439978  45.6360014
  98.4269992  61.9029978  45.6300014  98.0484177  62.6447687  45.8826940
 101.7829992  62.7449978  43.6330014 102.7149992  62.8739978  43.8110014
 101.5679992  63.4139978  42.9830014 101.8814472  62.8530806  43.5694891
 107.7069992  60.3509978  50.4140014 107.0299992  60.4819978  51.0770014
 107.2219992  60.1959978  49.6030014 107.5487405  60.3479947  50.3952170
 100.4569992  63.9389978  41.1990014  99.9149992  63.5599978  40.5080014
 101.2909992  64.1339978  40.7710014 100.4954390  63.9134079  41.0464392
 110.9949992  76.0219978  56.6900014 111.1939992  76.4459978  55.8560014
 111.6499992  76.3659978  57.2970014 111.1108522  76.1266301  56.6577852
  98.5929992  68.4959978  56.2980014  99.3249992  68.7509978  56.8600014
  97.8119992  68.7009978  56.8140014  98.5876526  68.5585450  56.4445176
 104.6219992  63.9029978  49.0360014 105.1859992  63.3569978  48.4890014
 104.4739992  63.3819978  49.8250014 104.6793037  63.7576787  49.0677229
  99.6239992  60.0399978  45.4550014  99.3069992  59.1369978  45.4190014
 100.4049992  60.0419978  44.9020014  99.6862431  59.9167797  45.3753102
 103.2479992  62.2919978  51.4500014 102.4129992  62.7459978  51.5610014
 103.7719992  62.5679978  52.2020014 103.2046072  62.3913948  51.5668136
 103.7929992  68.5049978  43.1350014 103.0479992  67.9969978  42.8130014
 103.6579992  68.5539978  44.0810014 103.6728963  68.4421731  43.2188826
 110.9429992  67.6379978  51.9220014 111.5839992  68.0939978  51.3780014
 110.1119992  67.7509978  51.4590014 110.9185287  67.7156921  51.7849887
 107.6899992  61.3189978  41.3340014 106.7519992  61.4299978  41.1830014
 107.9879992  62.1749978  41.6410014 107.6016318  61.4500158  41.3548145
 105.3119992  68.6889978  54.3720014 104.9659992  68.3069978  55.1790014
 105.1119992  69.6219978  54.4430014 105.2375987  68.7629002  54.4920461
 108.4089992  63.1859978  42.9950014 109.3009992  63.0479978  43.3140014
 108.4649992  63.9769978  42.4580014 108.5387325  63.2739918  42.9661217
  98.9169992  67.7999978  48.9050014  99.6619992  67.7969978  48.3030014
  98.9949992  66.9759978  49.3860014  99.0293366  67.6882384  48.8877430
 105.9179992  69.9629978  42.1600014 105.6229992  70.7899978  42.5420014
 105.2149992  69.3439978  42.3570014 105.7826379  69.9924171  42.2388654
  95.9249992  66.2599978  54.2200014  96.1479992  65.8419978  55.0510014
  95.3229992  65.6479978  53.7970014  95.8741513  66.1199606  54.2766740
 102.9419992  65.7769978  56.4330014 102.6459992  65.6119978  55.5370014
 103.8729992  65.5569978  56.4220014 103.0274401  65.7246879  56.3090206
 107.5619992  71.1509978  54.3220014 106.6619992  71.3339978  54.0550014
 107.5959992  71.4099978  55.2430014 107.4433748  71.2110554  54.4099164
 113.2939992  63.3949978  42.6900014 112.7389992  62.9989978  42.0170014
 113.3939992  64.3059978  42.4120014 113.2316816  63.4639505  42.5605033
 113.2569992  69.1959978  55.5270014 112.4059992  69.4339978  55.1590014
 113.8469992  69.1789978  54.7740014 113.2203812  69.2262524  55.3748453
 111.5889992  72.1809978  43.1550014 111.2159992  71.3559978  43.4640014
 111.8659992  71.9979978  42.2570014 111.5753463  72.0432569  43.0759525
 108.7489992  66.9889978  50.1760014 107.8209992  66.7579978  50.1490014
 109.1999992  66.2119978  49.8460014 108.6828165  66.8522774  50.1276790
 101.2919992  71.3179978  46.3090014 101.8199992  72.0909978  46.1090014
 100.4119992  71.5419978  46.0070014 101.2453435  71.4542700  46.2407310
  97.0469992  66.1799978  40.8960014  97.6629992  66.8069978  41.2760014
  96.1849992  66.4959978  41.1680014  97.0147678  66.3084412  40.9847209
 102.7199992  68.9809978  45.8850014 102.4789992  69.9059978  45.9270014
 101.9789992  68.5219978  46.2820014 102.5869206  69.0455915  45.9443769
 103.2339992  73.1299978  52.2000014 103.5969992  73.9839978  51.9670014
 103.7659992  72.8379978  52.9410014 103.3555141  73.2073895  52.2682097
 101.4029992  74.0019978  45.4310014 100.4529992  74.1079978  45.4820014
 101.7549992  74.8229978  45.7750014 101.3205472  74.1274923  45.4844852
 106.7779992  69.2289978  51.9010014 106.3529992  69.0009978  52.7270014
 107.3589992  68.4899978  51.7190014 106.7983395  69.0979545  51.9894414
 108.9809992  70.1579978  40.9750014 109.3349992  69.7779978  41.7790014
 108.0329992  70.0639978  41.0620014 108.9012298  70.0932452  41.0968687
 109.4369992  73.7809978  54.3700014 108.8349992  73.2249978  53.8750014
 109.7179992  74.4479978  53.7440014 109.3925757  73.7950744  54.2175675
 113.4849992  74.6369978  41.1760014 114.2289992  75.2229978  41.0360014
 112.7909992  75.2059978  41.5090014 113.4929809  74.7940818  41.2018590
  97.5589992  61.0139978  53.7780014  96.6669992  61.3519978  53.7100014
  97.4609992  60.1579978  54.1960014  97.4234475  60.9446543  53.8251704
 109.8469992  68.8299978  43.2020014 109.5699992  68.1019978  43.7580014
 110.7749992  68.9489978  43.4070014 109.9344499  68.7464213  43.3058044
  97.2109992  72.8179978  52.2130014  97.4279992  71.8859978  52.1820014
  97.4569992  73.0929978  53.0960014  97.2739809  72.7275686  52.3281691
 103.0719992  71.2699978  39.4220014 103.3109992  70.5209978  38.8750014
 102.8029992  70.8819978  40.2550014 103.0683233  71.1151853  39.4597809
 102.0089992  70.8399978  41.8780014 102.1559992  70.3199978  42.6680014
 102.0059992  71.7469978  42.1850014 102.0287102  70.8913953  42.0275925
  98.4619992  68.0919978  42.3890014  97.7759992  68.4449978  42.9560014
  98.9849992  68.8549978  42.1420014  98.4388402  68.2433901  42.4331801
 106.2939992  60.7549978  52.6680014 106.9929992  60.8289978  53.3180014
 105.9129992  59.8899978  52.8220014 106.3382097  60.6482389  52.7777997
 107.0779992  60.4069978  43.7650014 107.2979992  60.8779978  42.9610014
 107.6369992  60.8009978  44.4350014 107.1836732  60.5247287  43.7455033
 104.7469992  72.5369978  42.6280014 103.9299992  73.0339978  42.6800014
 105.2759992  73.0129978  41.9870014 104.7068125  72.6691989  42.5485306
 104.2779992  62.1349978  44.6000014 105.0899992  62.6389978  44.6460014
 104.0339992  61.9899978  45.5140014 104.3561467  62.1843749  44.7298575
 104.8139992  63.1209978  53.7840014 104.9329992  63.6949978  54.5410014
 105.4689992  62.4329978  53.8990014 104.9188684  63.1065194  53.9031674
 105.1619992  59.2159978  45.5380014 104.8149992  59.8329978  46.1820014
 105.8209992  59.7169978  45.0560014 105.2035090  59.3681575  45.5610681
 102.0849992  73.5809978  42.6090014 102.2459992  74.3809978  42.1090014
 101.8879992  73.8879978  43.4940014 102.0803906  73.7318678  42.6602333
 100.8199992  60.2789978  42.2250014 100.7359992  61.1669978  42.5720014
 101.7099992  60.0139978  42.4570014 100.9288163  60.3647179  42.3038596
 111.0179992  61.0279978  54.6190014 110.1019992  61.2899978  54.5320014
 111.3539992  61.0249978  53.7230014 110.9378499  61.0635163  54.4858766
 109.6209992  64.7779978  48.7150014 108.8229992  64.3629978  48.3870014
 110.0659992  64.0879978  49.2060014 109.5719684  64.6278628  48.7365227
  99.0779992  70.7059978  41.2850014  99.6699992  71.4059978  41.5620014
  99.5369992  70.2729978  40.5660014  99.2211652  70.7432675  41.2256533
  97.3939992  63.3709978  40.4010014  97.3489992  64.3099978  40.5800014
  96.5059992  63.1349978  40.1320014  97.2678166  63.4676687  40.3891524
 110.7069992  74.0339978  50.3370014 110.5509992  74.7129978  49.6800014
 111.6399992  74.1059978  50.5400014 110.8117387  74.1366390  50.2745342
  98.2019992  58.1519978  49.0750014  97.9729992  58.2109978  48.1470014
  97.7599992  57.3609978  49.3810014  98.1108801  58.0530540  48.9894729
  97.1329992  72.0929978  45.2350014  96.2999992  72.5649978  45.2620014
  97.6779992  72.6029978  44.6360014  97.0927857  72.2264791  45.1577142
  96.4209992  74.7049978  56.5650014  96.9609992  74.4889978  57.3250014
  95.9399992  73.8999978  56.3750014  96.4299219  74.5665156  56.6434282
 101.0179992  73.6249978  58.1850014 101.7859992  73.1659978  58.5260014
 100.9969992  73.3989978  57.2550014 101.1202135  73.5316668  58.1059491
 105.1099992  73.1329978  39.5610014 104.4659992  72.5019978  39.8820014
 105.8719992  72.6019978  39.3290014 105.1248058  72.9747902  39.5736038
 107.5949992  72.0049978  56.9140014 107.2439992  71.1479978  57.1580014
 108.3209992  72.1469978  57.5210014 107.6451895  71.9071351  57.0293770
 109.7149992  72.9499978  39.7940014 109.9979992  72.1549978  40.2470014
 110.4539992  73.1829978  39.2330014 109.8537096  72.8727049  39.7801104
  96.3279992  68.5159978  57.5190014  96.4719992  67.6139978  57.2330014
  95.5559992  68.8019978  57.0320014  96.2432733  68.4311798  57.4139532
 100.6689992  68.8589978  39.6520014 100.7339992  68.0649978  40.1820014
 101.3219992  68.7409978  38.9620014 100.7661605  68.7343430  39.6312997
 102.9829992  68.4849978  56.9520014 102.6549992  68.7559978  56.0950014
 103.1349992  67.5439978  56.8640014 102.9586412  68.3949046  56.8227822
 106.0219992  69.9059978  39.3880014 105.7529992  70.0869978  40.2880014
 105.8149992  68.9809978  39.2560014 105.9571191  69.8057119  39.4935524
 108.7179992  68.4009978  54.3350014 109.4629992  68.9899978  54.2160014
 107.9609992  68.9829978  54.3990014 108.7175470  68.5602128  54.3273799
  97.1609992  65.7159978  56.9390014  97.5689992  64.8589978  56.8180014
  96.8999992  65.7299978  57.8600014  97.1816016  65.6005119  57.0469192
 101.8189992  66.8319978  41.9580014 101.3589992  66.3479978  42.6430014
 102.0739992  66.1629978  41.3220014 101.7904856  66.6753669  41.9658397
 101.1079992  64.7249978  54.3140014 100.4889992  65.3989978  54.5940014
 101.4519992  65.0459978  53.4800014 101.0697123  64.8606887  54.2396388
 102.8899992  65.0749978  40.2200014 102.7089992  64.9199978  39.2930014
 103.8399992  65.1829978  40.2650014 102.9936566  65.0683669  40.0990929
 106.1269992  67.1959978  57.5910014 107.0809992  67.2799978  57.5640014
 105.9669992  66.4839978  58.2110014 106.2357182  67.1112842  57.6710733
 112.2799992  67.4289978  39.6660014 112.0059992  67.0049978  38.8530014
 112.3189992  68.3609978  39.4490014 112.2477716  67.4968827  39.5254286
 101.4469992  62.0799978  55.3960014 101.5969992  61.3509978  54.7940014
 101.4489992  62.8569978  54.8370014 101.4677967  62.0852708  55.2380541
 101.8599992  60.4489978  52.8890014 102.3949992  60.9009978  52.2370014
 101.0069992  60.3409978  52.4660014 101.8180374  60.4962665  52.7426710
 103.4409992  65.8889978  53.1280014 104.1919992  65.7329978  52.5550014
 103.1019992  66.7409978  52.8530014 103.4979587  65.9828138  53.0124078
 107.8569992  63.7039978  58.1570014 108.0489992  62.7729978  58.0450014
 108.7149992  64.1289978  58.1460014 107.9992182  63.6340070  58.1401862
 109.1739992  66.4929978  56.2340014 108.8919992  67.2019978  55.6560014
 110.1159992  66.4199978  56.0830014 109.2627921  66.5802193  56.1344225
  99.9259992  63.2779978  57.3070014  99.1579992  62.7449978  57.0970014
 100.6039992  62.9679978  56.7080014  99.9127235  63.1631754  57.1972413
 102.6649992  57.9059978  53.3200014 102.5669992  58.8519978  53.2150014
 101.9229992  57.5329978  52.8440014 102.5512534  57.9851773  53.2412600
 103.9289992  62.2269978  56.8840014 103.6939992  62.0079978  57.7850014
 103.1459992  62.0199978  56.3740014 103.7909095  62.1689892  56.9385353
 106.6449992  61.3549978  55.9590014 105.6969992  61.3869978  56.0910014
 106.9569992  60.7289978  56.6130014 106.5575293  61.2747923  56.0654148
 108.2789992  59.9889978  57.9640014 108.1819992  59.0369978  57.9590014
 107.9569992  60.2569978  58.8250014 108.2222468  59.8950884  58.0796210
  98.1059992  61.1979978  57.0120014  98.3179992  60.4919978  56.4020014
  97.9949992  60.7609978  57.8560014  98.1200269  61.0421921  57.0425873
 102.8869992  57.1999978  55.9910014 103.5989992  56.5599978  55.9770014
 102.7859992  57.4659978  55.0780014 102.9707387  57.1484330  55.8655563
 103.2409992  58.8819978  58.0450014 103.1089992  58.4069978  57.2250014
 102.6409992  59.6269978  57.9900014 103.1419070  58.9175789  57.9253251
 102.7869992  75.7649978  41.2210014 103.7199992  75.9229978  41.3650014
 102.5229992  76.4409978  40.5960014 102.8789911  75.8779373  41.1562722
  96.3549992  70.4019978  40.7040014  97.2689992  70.4809978  40.9770014
  96.3629992  69.7149978  40.0380014  96.4810655  70.3199205  40.6512917
  95.0039992  75.7949978  45.7810014  94.3569992  75.3329978  45.2490014
  95.3589992  75.1229978  46.3640014  94.9633741  75.6409774  45.7869175
  95.8739992  73.8749978  47.5860014  95.5399992  72.9949978  47.7580014
  96.0969992  74.2209978  48.4510014  95.8583721  73.8011938  47.7264168
 113.4229992  74.6849978  50.5670014 113.4009992  74.8699978  51.5060014
 114.1129992  75.2529978  50.2260014 113.5133439  74.7871887  50.6494791
 112.9859992  74.2519978  53.4880014 112.4989992  73.5169978  53.1170014
 113.5349992  73.8579978  54.1660014 112.9935247  74.0981057  53.5288461
 111.4369992  70.0419978  58.1270014 110.5709992  69.9369978  58.5210014
 111.8129992  70.7999978  58.5730014 111.3693401  70.1301708  58.2412620
 112.7379992  68.2979978  43.6410014 113.5879992  68.7189978  43.7680014
 112.7429992  67.5579978  44.2480014 112.8551143  68.2556094  43.7404750
 113.1319992  66.3519978  45.4640014 112.4059992  65.8719978  45.8620014
 113.7139992  66.5569978  46.1970014 113.1112730  66.3140184  45.6174149
 112.8909992  69.1369978  50.4120014 113.7249992  68.7589978  50.1310014
 113.0029992  70.0799978  50.2930014 113.0201917  69.2127943  50.3574861
 111.3779992  72.0149978  52.7190014 110.7299992  72.3399978  53.3440014
 110.8599992  71.5739978  52.0450014 111.2194196  71.9998651  52.7134152
 113.4009992  66.2529978  41.8550014 112.8789992  66.6089978  41.1370014
 113.3679992  66.9279978  42.5340014 113.3250129  66.3929598  41.8483355
 111.7499992  63.4919978  40.4060014 111.8459992  64.1589978  39.7260014
 111.6099992  62.6769978  39.9250014 111.7442040  63.4730671  40.2478378
 110.9189992  64.8729978  46.0270014 110.7689992  63.9279978  46.0070014
 110.5649992  65.1539978  46.8710014 110.8506351  64.7816644  46.1383220
  95.9539992  66.9509978  50.0380014  96.1389992  66.8689978  49.1020014
  96.8039992  66.8269978  50.4610014  96.0940928  66.9230463  49.9672893
 111.7749992  66.8429978  55.6660014 112.3579992  66.1079978  55.8580014
 112.3389992  67.6149978  55.7130014 111.9309781  66.8468145  55.6986164
 113.2719992  64.7459978  56.3510014 112.4089992  64.3669978  56.1850014
 113.8759992  64.0069978  56.2760014 113.2356085  64.5943223  56.3181694
 110.9969992  60.8999978  39.5240014 111.6079992  60.5289978  40.1610014
 110.1599992  60.4789978  39.7200014 110.9674947  60.7922756  39.6377252
 110.6299992  62.4549978  44.4900014 110.9089992  61.5479978  44.6140014
 111.3889992  62.8889978  44.1010014 110.7708619  62.3894502  44.4543795
 111.2409992  63.0369978  49.9260014 112.1739992  63.2489978  49.8910014
 111.0059992  63.1379978  50.8480014 111.3369517  63.0796833  50.0459130
 111.2709992  63.7739978  52.7020014 110.4279992  64.0419978  53.0680014
 111.7129992  64.5959978  52.4910014 111.2154138  63.9218273  52.7235518
  95.5519992  62.2209978  56.1780014  96.4709992  62.0989978  56.4150014
  95.1019992  61.4709978  56.5680014  95.6170087  62.1029608  56.2631410
 113.5539992  57.7539978  58.0550014 113.9029992  57.0999978  57.4500014
 113.7009992  58.5909978  57.6150014 113.6216824  57.7776024  57.9126304
 111.2429992  59.7179978  44.5380014 111.4249992  59.2689978  45.3630014
 110.6429992  59.1339978  44.0740014 111.1868187  59.5775552  44.5882739
  96.7729992  60.5339978  49.0700014  97.2179992  59.7419978  49.3720014
  97.2389992  61.2499978  49.5000014  96.8969718  60.5224534  49.1695265
  95.0769992  63.5329978  50.1390014  95.5689992  63.3119978  49.3480014
  95.4389992  64.3729978  50.4200014  95.1932923  63.6163468  50.0687407
 113.0729992  59.8629978  56.4040014 112.1559992  60.1339978  56.3690014
 113.1959992  59.3279978  55.6200014 112.9639672  59.8277885  56.2931862
 113.1099992  59.7859978  41.0660014 113.5219992  59.0649978  40.5910014
 113.7909992  60.4549978  41.1240014 113.2585536  59.7777766  41.0088024
  95.3909992  59.7909978  44.1930014  94.4659992  59.9989978  44.0640014
  95.8449992  60.2749978  43.5030014  95.3256298  59.8849299  44.0820451
 110.1609992  74.7749978  46.1390014 110.8139992  74.4269978  45.5310014
 110.6719992  75.2629978  46.7850014 110.3192777  74.7933815  46.1432047
  95.3539992  58.5289978  52.5370014  94.6889992  58.2829978  53.1800014
  94.9109992  59.1509978  51.9600014  95.2031168  58.5794214  52.5469848
  97.5459992  71.7039978  56.6820014  96.7249992  71.8789978  56.2210014
  97.2939992  71.6309978  57.6020014  97.3995594  71.7180717  56.7433611
 100.4999992  72.6779978  52.9400014 100.0759992  73.4879978  52.6580014
 101.4049992  72.7639978  52.6380014 100.5642138  72.8004160  52.8606415
 104.8119992  74.0769978  55.9000014 104.9959992  73.7439978  56.7780014
 105.6579992  74.3869978  55.5780014 104.9516484  74.0732979  55.9767617
 107.1569992  75.3629978  55.1440014 107.8339992  74.7299978  54.9040014
 107.4779992  75.7639978  55.9510014 107.2931323  75.3305691  55.2203158
 112.0739992  57.9529978  54.2230014 111.2609992  58.2779978  53.8360014
 112.3069992  57.1919978  53.6900014 111.9941347  57.8946880  54.0979841
  97.9019992  75.9349978  52.9880014  97.1819992  76.3749978  52.5370014
  97.5369992  75.6839978  53.8360014  97.7539643  75.9613369  53.0409129
 100.3689992  75.5349978  52.0180014  99.5049992  75.6069978  52.4220014
 100.3139992  76.0819978  51.2340014 100.2431942  75.6187849  51.9674000
 105.0799992  75.4229978  51.1930014 104.6229992  75.9519978  50.5390014
 105.2429992  76.0259978  51.9180014 105.0394960  75.5769280  51.2015274
 107.4079992  74.3009978  52.1380014 106.5029992  74.4659978  51.8720014
 107.8359992  75.1539978  52.0720014 107.3421537  74.4389134  52.0927095
 110.0119992  75.8709978  52.4330014 109.8299992  76.7869978  52.2220014
 110.1889992  75.4599978  51.5860014 110.0110030  75.9408273  52.2897166
  97.3169992  74.5579978  49.8980014  97.2989992  74.1319978  50.7550014
  98.1219992  74.2389978  49.4890014  97.4232875  74.4566435  49.9599515
  99.4579992  73.2679978  48.5530014  99.2389992  72.3509978  48.7230014
 100.2819992  73.4079978  49.0190014  99.5394702  73.1615511  48.6392527
 101.9949992  73.7379978  49.4020014 102.2079992  72.8499978  49.1150014
 102.0599992  73.7029978  50.3560014 102.0329149  73.6118326  49.4917369
 105.5039992  59.4019978  48.5460014 104.8299992  58.7719978  48.8020014
 106.0679992  58.9179978  47.9430014 105.4880384  59.2503708  48.4995020
 110.6469992  57.5089978  48.6590014 111.2499992  58.0569978  48.1570014
 109.7769992  57.8279978  48.4180014 110.6119157  57.6270373  48.5577910
 112.3739992  58.6479978  46.9920014 112.9849992  58.1339978  46.4650014
 112.7559992  59.5249978  47.0150014 112.5093305  58.6962050  46.9229418
  97.8309992  58.0359978  46.3680014  97.0539992  57.8009978  45.8610014
  98.3609992  57.2389978  46.3770014  97.7963451  57.8961268  46.2998627
  96.6669992  57.8339978  42.1720014  97.1059992  58.4449978  41.5800014
  96.0329992  58.3719978  42.6460014  96.6413859  57.9904064  42.1550305
 102.4099992  57.9619978  46.1810014 103.2839992  58.3509978  46.1520014
 102.2739992  57.7469978  47.1040014 102.5111953  57.9861643  46.3017617
 107.9669992  57.9919978  47.8310014 108.0429992  58.0879978  46.8810014
 107.6919992  57.0849978  47.9590014 107.9401871  57.8824146  47.7183944
 109.3199992  58.0179978  43.5230014 108.6169992  58.6329978  43.3130014
 108.8749992  57.1809978  43.6540014 109.1636550  57.9889668  43.5119837
  96.5679992  73.7819978  43.0690014  95.8829992  73.7439978  42.4020014
  96.5719992  74.6949978  43.3570014  96.4747621  73.9001924  43.0166126
  98.5279992  59.7499978  40.6140014  99.0189992  59.1199978  40.0870014
  99.1509992  60.0459978  41.2770014  98.6795304  59.7037376  40.6314940
 103.5539992  60.0429978  43.0710014 103.7319992  59.3959978  43.7540014
 103.4999992  60.8769978  43.5380014 103.5710678  60.0671604  43.2276301
 105.4319992  74.9909978  41.4670014 106.2979992  75.3579978  41.2890014
 105.1859992  74.5519978  40.6530014 105.5172097  74.9818525  41.3326019
 112.1409992  74.5539978  44.1460014 111.9469992  73.8059978  43.5810014
 112.1019992  75.3119978  43.5630014 112.1091645  74.5540786  43.9898148
  97.7879992  58.5499978  55.8860014  97.4219992  57.7839978  56.3280014
  98.7009992  58.5789978  56.1720014  97.8613172  58.4490324  55.9851890
  99.7609992  57.8999978  57.4210014 100.6599992  57.6259978  57.2370014
  99.3749992  57.1579978  57.8860014  99.8317307  57.7622196  57.4587098
  98.3859992  74.7019978  40.0940014  98.1179992  74.9879978  40.9680014
  99.1569992  74.1559978  40.2470014  98.4535926  74.6672779  40.2341205
 108.1829992  57.2329978  57.6040014 108.2589992  56.8069978  58.4570014
 109.0759992  57.2459978  57.2610014 108.3142303  57.1763493  57.6745497
 111.3589992  73.3059978  56.2960014 110.5769992  73.1189978  55.7760014
 111.2869992  74.2349978  56.5130014 111.2421924  73.4060637  56.2541602
 125.7649992  67.1919978  46.3270014 125.8539992  68.1359978  46.1950014
 125.1269992  66.9169978  45.6690014 125.6909062  67.2839812  46.2199641
 124.6979992  66.4469978  49.7460014 124.6599992  65.8009978  50.4510014
 124.3759992  65.9799978  48.9750014 124.6492679  66.2954276  49.7382921
 117.0659992  66.0609978  51.3390014 117.1079992  65.4359978  52.0620014
 117.7689992  66.6849978  51.5210014 117.1667345  66.0597873  51.4625274
 128.4039992  69.3859978  48.0470014 127.9629992  68.6659978  48.4980014
 128.3909992  70.1069978  48.6770014 128.3419215  69.3849291  48.1938105
 117.9899992  70.5109978  49.8740014 117.6199992  69.7089978  49.5040014
 118.9309992  70.3429978  49.9200014 118.0665984  70.3784638  49.8295603
 114.5999992  64.1709978  45.2660014 114.1519992  65.0169978  45.2480014
 114.0389992  63.5919978  44.7510014 114.4628546  64.2083993  45.1938891
 115.3099992  66.3329978  47.3920014 115.5239992  65.5629978  47.9200014
 116.0479992  66.4229978  46.7890014 115.4390200  66.2398587  47.3827035
 125.5159992  74.4899978  48.2590014 126.1349992  73.8139978  47.9860014
 125.3069992  74.2719978  49.1680014 125.5726056  74.3678869  48.3443967
 123.0869992  68.8789978  50.1520014 123.3909992  68.1929978  49.5570014
 123.8089992  68.9979978  50.7700014 123.2261240  68.8012314  50.1540959
 131.7499992  60.4809978  51.0120014 131.7999992  61.0909978  51.7480014
 132.1759992  60.9419978  50.2890014 131.8144108  60.6267709  51.0150112
 126.2279992  63.2729978  50.4790014 126.3709992  62.3269978  50.4990014
 126.1219992  63.4799978  49.5510014 126.2332403  63.1714797  50.3562239
 119.3829992  61.3749978  47.7520014 119.4259992  62.2349978  47.3330014
 118.9249992  60.8229978  47.1180014 119.3269871  61.4179245  47.6090761
 127.1049992  61.5059978  46.1530014 127.7519992  61.1769978  46.7770014
 127.6149992  62.0229978  45.5300014 127.2624351  61.5309067  46.1541037
 116.0029992  63.7719978  48.5140014 116.6569992  63.2219978  48.9460014
 116.0269992  63.4979978  47.5970014 116.0957199  63.6597167  48.4491668
 121.1599992  65.3219978  47.7290014 121.7759992  64.7949978  48.2380014
 120.5729992  64.6819978  47.3250014 121.1650154  65.1633954  47.7440945
 132.1419992  61.9589978  53.2480014 131.4529992  62.6169978  53.1530014
 132.1569992  61.7609978  54.1850014 132.0497756  62.0222603  53.3615812
 118.1929992  60.2929978  51.8260014 117.9739992  60.8229978  51.0590014
 117.5249992  60.5189978  52.4730014 118.0726975  60.3960967  51.8085140
 125.5619992  69.7929978  45.3700014 125.2669992  69.4699978  44.5180014
 125.2379992  70.6929978  45.4110014 125.4778460  69.8704464  45.2589714
 120.7619992  67.9679978  52.1130014 120.0219992  68.5669978  52.2170014
 121.4759992  68.5219978  51.7980014 120.7573500  68.1247829  52.0846371
 128.8689992  60.7969978  48.1330014 128.6539992  60.0309978  48.6660014
 129.5249992  61.2689978  48.6460014 128.9282673  60.7560728  48.2751990
 117.7869992  62.1849978  49.7780014 118.4009992  62.8179978  50.1510014
 118.2989992  61.7129978  49.1220014 117.9401962  62.2077249  49.7402935
 119.1699992  69.9329978  52.9000014 119.1639992  70.8119978  52.5220014
 118.3159992  69.8489978  53.3250014 119.0537925  70.0419535  52.9056887
 115.2909992  69.6039978  43.6820014 115.0189992  69.8329978  42.7940014
 115.3359992  70.4409978  44.1430014 115.2598097  69.7486163  43.6226683
 128.9159992  71.2249978  50.3950014 127.9739992  71.2839978  50.5570014
 129.1919992  72.1309978  50.2580014 128.8245865  71.3555288  50.3986192
 129.2159992  59.5119978  51.8120014 128.4799992  60.1219978  51.7750014
 129.8999992  59.9269978  51.2860014 129.2075367  59.6517551  51.7358174
 122.2199992  57.5979978  49.2780014 122.1019992  56.6499978  49.2240014
 121.3649992  57.9309978  49.5510014 122.0882805  57.5132202  49.3075079
 127.1679992  73.0059978  47.0200014 127.5929992  72.2989978  46.5350014
 127.4849992  73.8079978  46.6030014 127.2690266  73.0175190  46.8972479
 128.3279992  70.9069978  45.5290014 128.0699992  70.2169978  44.9170014
 128.3989992  70.4639978  46.3740014 128.3023050  70.7526814  45.5595621
 130.0139992  69.4739978  54.0060014 130.1529992  68.8819978  53.2670014
 130.1809992  70.3469978  53.6500014 130.0556193  69.5108896  53.8566211
 124.4859992  66.4359978  43.7790014 123.7749992  66.9709978  43.4270014
 125.1769992  66.4909978  43.1190014 124.4820751  66.5166777  43.6415858
 124.5399992  64.8929978  40.8170014 125.2409992  64.9159978  41.4690014
 124.8419992  64.2649978  40.1610014 124.6768202  64.8112212  40.8175609
 131.8549992  65.8139978  52.0720014 131.2029992  66.5079978  52.1610014
 132.3209992  66.0239978  51.2620014 131.8285937  65.9375019  51.9747533
 127.8919992  66.6449978  44.7300014 127.1599992  66.8739978  45.3040014
 128.3389992  65.9319978  45.1850014 127.8523963  66.5798729  44.8699945
 127.7889992  64.8199978  53.7980014 127.8689992  65.5829978  54.3700014
 127.1879992  65.0989978  53.1080014 127.7186547  64.9622457  53.7830047
 119.5369992  67.2759978  46.6130014 119.2069992  66.9049978  45.7950014
 120.1259992  66.6049978  46.9600014 119.5713970  67.1346063  46.5479404
 120.9039992  70.7039978  49.2940014 120.8089992  70.1249978  48.5380014
 121.6329992  70.3329978  49.7900014 120.9896011  70.5745561  49.2576028
 119.9039992  66.0439978  50.2460014 120.4689992  66.1659978  49.4840014
 120.2229992  66.6819978  50.8850014 120.0244166  66.1468791  50.2280348
 126.2129992  71.5479978  50.9800014 125.9729992  72.2099978  51.6280014
 126.0149992  70.7129978  51.4050014 126.1533826  71.5258115  51.1261566
 120.7839992  70.4439978  54.9640014 120.4729992  71.2259978  55.4190014
 120.1339992  70.2909978  54.2780014 120.6535538  70.5304087  54.9335898
 126.7629992  65.8079978  42.4160014 127.3419992  65.9579978  43.1620014
 127.1769992  66.2779978  41.6920014 126.8983358  65.8920955  42.4203953
 117.7039992  66.6419978  54.1920014 117.7739992  67.2929978  54.8910014
 116.8129992  66.7449978  53.8570014 117.5931690  66.7449249  54.2423043
 124.4889992  72.5439978  45.8510014 124.9629992  72.8399978  46.6280014
 123.9259992  73.2829978  45.6180014 124.4777890  72.6843036  45.9258101
 119.0229992  72.5149978  55.7270014 119.0309992  72.3789978  54.7800014
 118.1069992  72.3979978  55.9790014 118.9002528  72.4805463  55.6313243
 130.4619992  57.5579978  42.2290014 129.5619992  57.6969978  42.5240014
 130.7139992  58.3889978  41.8270014 130.3728683  57.6894055  42.2150232
 118.5279992  66.3449978  44.2020014 118.2359992  67.1129978  43.7110014
 117.8529992  65.6859978  44.0390014 118.3968497  66.3609745  44.1128260
 131.6509992  71.9239978  40.6050014 131.7239992  72.8629978  40.7750014
 132.5559992  71.6189978  40.5490014 131.7834170  72.0113282  40.6207063
 114.6209992  68.7079978  53.0170014 114.1189992  68.6799978  52.2020014
 114.6259992  67.8029978  53.3270014 114.5529832  68.5817486  52.9474121
 114.3709992  71.4889978  49.9010014 115.3169992  71.3439978  49.8820014
 114.2579992  72.2729978  50.4380014 114.4853578  71.5751697  49.9710317
 132.5689992  72.1549978  55.5840014 132.5189992  71.1989978  55.5460014
 131.7419992  72.4219978  55.9850014 132.4503831  72.0604680  55.6330121
 123.5469992  71.7289978  54.4600014 123.6349992  72.5549978  54.9350014
 122.6839992  71.3989978  54.7090014 123.4423357  71.7975468  54.5587653
 123.9619992  75.5009978  44.2660014 123.8859992  75.3799978  43.3190014
 123.9939992  76.4499978  44.3840014 123.9559380  75.6127677  44.1525181
 117.6149992  74.2899978  46.0470014 117.7669992  73.9419978  46.9250014
 116.7639992  73.9329978  45.7910014 117.5208344  74.1940879  46.1326868
 127.0629992  74.6549978  41.2680014 127.4379992  73.9109978  40.7970014
 127.0679992  74.3849978  42.1860014 127.1150098  74.5166392  41.3276629
 126.7319992  74.5809978  44.0170014 125.7969992  74.6809978  44.1960014
 127.0119992  73.8709978  44.5960014 126.6419471  74.4987933  44.1196695
 129.7209992  63.6479978  56.0640014 129.3129992  64.1279978  55.3430014
 129.7609992  62.7419978  55.7560014 129.6706221  63.5912449  55.9238267
 116.8699992  70.0319978  54.0600014 117.0859992  69.6699978  54.9200014
 116.0139992  69.6569978  53.8510014 116.7838810  69.9318837  54.1492680
 119.4879992  58.5019978  50.0560014 118.6269992  58.4149978  49.6480014
 119.4659992  59.3579978  50.4840014 119.3670491  58.6058003  50.0579582
 124.1509992  58.2239978  53.4310014 124.5709992  57.8089978  54.1840014
 123.2179992  58.0449978  53.5480014 124.0823736  58.1429910  53.5498968
 127.4779992  61.9789978  54.2840014 126.9639992  61.8539978  55.0820014
 127.3219992  62.8919978  54.0400014 127.3866967  62.0852123  54.3600937
 128.2399992  66.8399978  40.0450014 128.2819992  66.6179978  39.1150014
 129.0889992  67.2389978  40.2350014 128.3605253  66.8635498  39.9433822
 123.8129992  60.7159978  40.7160014 123.5589992  60.7349978  41.6380014
 123.5559992  59.8449978  40.4140014 123.7434508  60.6008280  40.8014803
 119.5789992  63.4669978  51.1510014 118.9379992  63.4269978  51.8600014
 119.6169992  64.3939978  50.9130014 119.4963010  63.5867668  51.2159946
 119.5759992  63.6879978  46.0630014 118.6839992  63.3479978  46.0040014
 120.0269992  63.3109978  45.3070014 119.5147642  63.5904910  45.9527726
 125.1119992  64.1039978  44.8800014 124.7029992  64.9189978  44.5880014
 125.8319992  63.9639978  44.2660014 125.1534439  64.1965372  44.7570115
 124.2139992  64.2799978  56.3680014 123.6509992  63.5749978  56.6890014
 125.0399992  64.1589978  56.8360014 124.2486674  64.1672165  56.4751751
 126.1169992  63.5499978  47.6940014 125.9209992  64.1559978  46.9790014
 126.2979992  62.7169978  47.2600014 126.1146584  63.5202513  47.5374212
 117.3289992  63.7879978  53.0180014 117.2909992  64.1879978  53.8870014
 116.8389992  62.9709978  53.1080014 117.2575330  63.7322674  53.1491289
 120.6949992  61.1619978  39.8170014 120.2639992  60.7169978  40.5460014
 119.9769992  61.5329978  39.3040014 120.5389176  61.1512051  39.8474930
 113.9379992  60.9039978  46.8690014 114.5679992  60.8749978  47.5880014
 114.3869992  60.4789978  46.1380014 114.0850835  60.8425660  46.8687659
 115.2119992  61.6499978  42.2930014 115.6859992  62.2409978  41.7080014
 114.4939992  62.1799978  42.6400014 115.1798640  61.8025511  42.2597969
 125.3809992  65.1879978  52.3650014 125.7039992  64.5569978  51.7220014
 124.9399992  64.6539978  53.0260014 125.3656379  65.0293468  52.3662582
 122.1579992  61.1159978  47.1490014 121.2469992  61.1729978  47.4380014
 122.6629992  61.0559978  47.9600014 122.1016873  61.1156826  47.2981207
 116.9859992  62.7449978  45.9760014 116.0969992  62.8439978  45.6360014
 117.2829992  61.9029978  45.6300014 116.9044177  62.6447687  45.8826940
 120.6389992  62.7449978  43.6330014 121.5709992  62.8739978  43.8110014
 120.4239992  63.4139978  42.9830014 120.7374472  62.8530806  43.5694891
 126.5629992  60.3509978  50.4140014 125.8859992  60.4819978  51.0770014
 126.0779992  60.1959978  49.6030014 126.4047405  60.3479947  50.3952170
 119.3129992  63.9389978  41.1990014 118.7709992  63.5599978  40.5080014
 120.1469992  64.1339978  40.7710014 119.3514390  63.9134079  41.0464392
 129.8509992  76.0219978  56.6900014 130.0499992  76.4459978  55.8560014
 130.5059992  76.3659978  57.2970014 129.9668522  76.1266301  56.6577852
 117.4489992  68.4959978  56.2980014 118.1809992  68.7509978  56.8600014
 116.6679992  68.7009978  56.8140014 117.4436526  68.5585450  56.4445176
 123.4779992  63.9029978  49.0360014 124.0419992  63.3569978  48.4890014
 123.3299992  63.3819978  49.8250014 123.5353037  63.7576787  49.0677229
 118.4799992  60.0399978  45.4550014 118.1629992  59.1369978  45.4190014
 119.2609992  60.0419978  44.9020014 118.5422431  59.9167797  45.3753102
 122.1039992  62.2919978  51.4500014 121.2689992  62.7459978  51.5610014
 122.6279992  62.5679978  52.2020014 122.0606072  62.3913948  51.5668136
 122.6489992  68.5049978  43.1350014 121.9039992  67.9969978  42.8130014
 122.5139992  68.5539978  44.0810014 122.5288963  68.4421731  43.2188826
 129.7989992  67.6379978  51.9220014 130.4399992  68.0939978  51.3780014
 128.9679992  67.7509978  51.4590014 129.7745287  67.7156921  51.7849887
 126.5459992  61.3189978  41.3340014 125.6079992  61.4299978  41.1830014
 126.8439992  62.1749978  41.6410014 126.4576318  61.4500158  41.3548145
 124.1679992  68.6889978  54.3720014 123.8219992  68.3069978  55.1790014
 123.9679992  69.6219978  54.4430014 124.0935987  68.7629002  54.4920461
 127.2649992  63.1859978  42.9950014 128.1569992  63.0479978  43.3140014
 127.3209992  63.9769978  42.4580014 127.3947325  63.2739918  42.9661217
 117.7729992  67.7999978  48.9050014 118.5179992  67.7969978  48.3030014
 117.8509992  66.9759978  49.3860014 117.8853365  67.6882384  48.8877430
 124.7739992  69.9629978  42.1600014 124.4789992  70.7899978  42.5420014
 124.0709992  69.3439978  42.3570014 124.6386379  69.9924171  42.2388654
 114.7809992  66.2599978  54.2200014 115.0039992  65.8419978  55.0510014
 114.1789992  65.6479978  53.7970014 114.7301513  66.1199606  54.2766740
 121.7979992  65.7769978  56.4330014 121.5019992  65.6119978  55.5370014
 122.7289992  65.5569978  56.4220014 121.8834401  65.7246879  56.3090206
 126.4179992  71.1509978  54.3220014 125.5179992  71.3339978  54.0550014
 126.4519992  71.4099978  55.2430014 126.2993748  71.2110554  54.4099164
 132.1499992  63.3949978  42.6900014 131.5949992  62.9989978  42.0170014
 132.2499992  64.3059978  42.4120014 132.0876816  63.4639505  42.5605033
 132.1129992  69.1959978  55.5270014 131.2619992  69.4339978  55.1590014
 132.7029992  69.1789978  54.7740014 132.0763812  69.2262524  55.3748453
 130.4449992  72.1809978  43.1550014 130.0719992  71.3559978  43.4640014
 130.7219992  71.9979978  42.2570014 130.4313463  72.0432569  43.0759525
 127.6049992  66.9889978  50.1760014 126.6769992  66.7579978  50.1490014
 128.0559992  66.2119978  49.8460014 127.5388165  66.8522774  50.1276790
 120.1479992  71.3179978  46.3090014 120.6759992  72.0909978  46.1090014
 119.2679992  71.5419978  46.0070014 120.1013435  71.4542700  46.2407310
 115.9029992  66.1799978  40.8960014 116.5189992  66.8069978  41.2760014
 115.0409992  66.4959978  41.1680014 115.8707678  66.3084412  40.9847209
 121.5759992  68.9809978  45.8850014 121.3349992  69.9059978  45.9270014
 120.8349992  68.5219978  46.2820014 121.4429206  69.0455915  45.9443769
 122.0899992  73.1299978  52.2000014 122.4529992  73.9839978  51.9670014
 122.6219992  72.8379978  52.9410014 122.2115141  73.2073895  52.2682097
 120.2589992  74.0019978  45.4310014 119.3089992  74.1079978  45.4820014
 120.6109992  74.8229978  45.7750014 120.1765472  74.1274923  45.4844852
 125.6339992  69.2289978  51.9010014 125.2089992  69.0009978  52.7270014
 126.2149992  68.4899978  51.7190014 125.6543395  69.0979545  51.9894414
 127.8369992  70.1579978  40.9750014 128.1909992  69.7779978  41.7790014
 126.8889992  70.0639978  41.0620014 127.7572298  70.0932452  41.0968687
 128.2929992  73.7809978  54.3700014 127.6909992  73.2249978  53.8750014
 128.5739992  74.4479978  53.7440014 128.2485757  73.7950744  54.2175675
 132.3409992  74.6369978  41.1760014 133.0849992  75.2229978  41.0360014
 131.6469992  75.2059978  41.5090014 132.3489809  74.7940818  41.2018590
 116.4149992  61.0139978  53.7780014 115.5229992  61.3519978  53.7100014
 116.3169992  60.1579978  54.1960014 116.2794475  60.9446543  53.8251704
 128.7029992  68.8299978  43.2020014 128.4259992  68.1019978  43.7580014
 129.6309992  68.9489978  43.4070014 128.7904499  68.7464213  43.3058044
 116.0669992  72.8179978  52.2130014 116.2839992  71.8859978  52.1820014
 116.3129992  73.0929978  53.0960014 116.1299809  72.7275686  52.3281691
 121.9279992  71.2699978  39.4220014 122.1669992  70.5209978  38.8750014
 121.6589992  70.8819978  40.2550014 121.9243233  71.1151853  39.4597809
 120.8649992  70.8399978  41.8780014 121.0119992  70.3199978  42.6680014
 120.8619992  71.7469978  42.1850014 120.8847102  70.8913953  42.0275925
 117.3179992  68.0919978  42.3890014 116.6319992  68.4449978  42.9560014
 117.8409992  68.8549978  42.1420014 117.2948402  68.2433901  42.4331801
 125.1499992  60.7549978  52.6680014 125.8489992  60.8289978  53.3180014
 124.7689992  59.8899978  52.8220014 125.1942097  60.6482389  52.7777997
 125.9339992  60.4069978  43.7650014 126.1539992  60.8779978  42.9610014
 126.4929992  60.8009978  44.4350014 126.0396731  60.5247287  43.7455033
 123.6029992  72.5369978  42.6280014 122.7859992  73.0339978  42.6800014
 124.1319992  73.0129978  41.9870014 123.5628125  72.6691989  42.5485306
 123.1339992  62.1349978  44.6000014 123.9459992  62.6389978  44.6460014
 122.8899992  61.9899978  45.5140014 123.2121467  62.1843749  44.7298575
 123.6699992  63.1209978  53.7840014 123.7889992  63.6949978  54.5410014
 124.3249992  62.4329978  53.8990014 123.7748684  63.1065194  53.9031674
 124.0179992  59.2159978  45.5380014 123.6709992  59.8329978  46.1820014
 124.6769992  59.7169978  45.0560014 124.0595090  59.3681575  45.5610681
 120.9409992  73.5809978  42.6090014 121.1019992  74.3809978  42.1090014
 120.7439992  73.8879978  43.4940014 120.9363906  73.7318678  42.6602333
 119.6759992  60.2789978  42.2250014 119.5919992  61.1669978  42.5720014
 120.5659992  60.0139978  42.4570014 119.7848163  60.3647179  42.3038596
 129.8739992  61.0279978  54.6190014 128.9579992  61.2899978  54.5320014
 130.2099992  61.0249978  53.7230014 129.7938499  61.0635163  54.4858766
 128.4769992  64.7779978  48.7150014 127.6789992  64.3629978  48.3870014
 128.9219992  64.0879978  49.2060014 128.4279684  64.6278628  48.7365227
 117.9339992  70.7059978  41.2850014 118.5259992  71.4059978  41.5620014
 118.3929992  70.2729978  40.5660014 118.0771652  70.7432675  41.2256533
 116.2499992  63.3709978  40.4010014 116.2049992  64.3099978  40.5800014
 115.3619992  63.1349978  40.1320014 116.1238166  63.4676687  40.3891524
 129.5629992  74.0339978  50.3370014 129.4069992  74.7129978  49.6800014
 130.4959992  74.1059978  50.5400014 129.6677387  74.1366390  50.2745342
 117.0579992  58.1519978  49.0750014 116.8289992  58.2109978  48.1470014
 116.6159992  57.3609978  49.3810014 116.9668801  58.0530540  48.9894729
 115.9889992  72.0929978  45.2350014 115.1559992  72.5649978  45.2620014
 116.5339992  72.6029978  44.6360014 115.9487857  72.2264791  45.1577142
 115.2769992  74.7049978  56.5650014 115.8169992  74.4889978  57.3250014
 114.7959992  73.8999978  56.3750014 115.2859219  74.5665156  56.6434282
 119.8739992  73.6249978  58.1850014 120.6419992  73.1659978  58.5260014
 119.8529992  73.3989978  57.2550014 119.9762135  73.5316668  58.1059491
 123.9659992  73.1329978  39.5610014 123.3219992  72.5019978  39.8820014
 124.7279992  72.6019978  39.3290014 123.9808058  72.9747902  39.5736038
 126.4509992  72.0049978  56.9140014 126.0999992  71.1479978  57.1580014
 127.1769992  72.1469978  57.5210014 126.5011895  71.9071351  57.0293770
 128.5709992  72.9499978  39.7940014 128.8539992  72.1549978  40.2470014
 129.3099992  73.1829978  39.2330014 128.7097096  72.8727049  39.7801104
 115.1839992  68.5159978  57.5190014 115.3279992  67.6139978  57.2330014
 114.4119992  68.8019978  57.0320014 115.0992733  68.4311798  57.4139532
 119.5249992  68.8589978  39.6520014 119.5899992  68.0649978  40.1820014
 120.1779992  68.7409978  38.9620014 119.6221605  68.7343430  39.6312997
 121.8389992  68.4849978  56.9520014 121.5109992  68.7559978  56.0950014
 121.9909992  67.5439978  56.8640014 121.8146412  68.3949046  56.8227822
 124.8779992  69.9059978  39.3880014 124.6089992  70.0869978  40.2880014
 124.6709992  68.9809978  39.2560014 124.8131191  69.8057119  39.4935524
 127.5739992  68.4009978  54.3350014 128.3189992  68.9899978  54.2160014
 126.8169992  68.9829978  54.3990014 127.5735470  68.5602128  54.3273799
 116.0169992  65.7159978  56.9390014 116.4249992  64.8589978  56.8180014
 115.7559992  65.7299978  57.8600014 116.0376016  65.6005119  57.0469192
 120.6749992  66.8319978  41.9580014 120.2149992  66.3479978  42.6430014
 120.9299992  66.1629978  41.3220014 120.6464856  66.6753669  41.9658397
 119.9639992  64.7249978  54.3140014 119.3449992  65.3989978  54.5940014
 120.3079992  65.0459978  53.4800014 119.9257123  64.8606887  54.2396388
 121.7459992  65.0749978  40.2200014 121.5649992  64.9199978  39.2930014
 122.6959992  65.1829978  40.2650014 121.8496566  65.0683669  40.0990929
 124.9829992  67.1959978  57.5910014 125.9369992  67.2799978  57.5640014
 124.8229992  66.4839978  58.2110014 125.0917182  67.1112842  57.6710733
 131.1359992  67.4289978  39.6660014 130.8619992  67.0049978  38.8530014
 131.1749992  68.3609978  39.4490014 131.1037716  67.4968827  39.5254286
 120.3029992  62.0799978  55.3960014 120.4529992  61.3509978  54.7940014
 120.3049992  62.8569978  54.8370014 120.3237967  62.0852708  55.2380541
 120.7159992  60.4489978  52.8890014 121.2509992  60.9009978  52.2370014
 119.8629992  60.3409978  52.4660014 120.6740374  60.4962665  52.7426710
 122.2969992  65.8889978  53.1280014 123.0479992  65.7329978  52.5550014
 121.9579992  66.7409978  52.8530014 122.3539587  65.9828138  53.0124078
 126.7129992  63.7039978  58.1570014 126.9049992  62.7729978  58.0450014
 127.5709992  64.1289978  58.1460014 126.8552182  63.6340070  58.1401862
 128.0299992  66.4929978  56.2340014 127.7479992  67.2019978  55.6560014
 128.9719992  66.4199978  56.0830014 128.1187921  66.5802193  56.1344225
 118.7819992  63.2779978  57.3070014 118.0139992  62.7449978  57.0970014
 119.4599992  62.9679978  56.7080014 118.7687235  63.1631754  57.1972413
 121.5209992  57.9059978  53.3200014 121.4229992  58.8519978  53.2150014
 120.7789992  57.5329978  52.8440014 121.4072534  57.9851773  53.2412600
 122.7849992  62.2269978  56.8840014 122.5499992  62.0079978  57.7850014
 122.0019992  62.0199978  56.3740014 122.6469095  62.1689892  56.9385353
 125.5009992  61.3549978  55.9590014 124.5529992  61.3869978  56.0910014
 125.8129992  60.7289978  56.6130014 125.4135293  61.2747923  56.0654148
 127.1349992  59.9889978  57.9640014 127.0379992  59.0369978  57.9590014
 126.8129992  60.2569978  58.8250014 127.0782468  59.8950884  58.0796210
 116.9619992  61.1979978  57.0120014 117.1739992  60.4919978  56.4020014
 116.8509992  60.7609978  57.8560014 116.9760269  61.0421921  57.0425873
 121.7429992  57.1999978  55.9910014 122.4549992  56.5599978  55.9770014
 121.6419992  57.4659978  55.0780014 121.8267387  57.1484330  55.8655563
 122.0969992  58.8819978  58.0450014 121.9649992  58.4069978  57.2250014
 121.4969992  59.6269978  57.9900014 121.9979070  58.9175789  57.9253251
 121.6429992  75.7649978  41.2210014 122.5759992  75.9229978  41.3650014
 121.3789992  76.4409978  40.5960014 121.7349911  75.8779373  41.1562722
 115.2109992  70.4019978  40.7040014 116.1249992  70.4809978  40.9770014
 115.2189992  69.7149978  40.0380014 115.3370655  70.3199205  40.6512917
 113.8599992  75.7949978  45.7810014 113.2129992  75.3329978  45.2490014
 114.2149992  75.1229978  46.3640014 113.8193741  75.6409774  45.7869175
 114.7299992  73.8749978  47.5860014 114.3959992  72.9949978  47.7580014
 114.9529992  74.2209978  48.4510014 114.7143721  73.8011938  47.7264168
 132.2789992  74.6849978  50.5670014 132.2569992  74.8699978  51.5060014
 132.9689992  75.2529978  50.2260014 132.3693439  74.7871887  50.6494791
 131.8419992  74.2519978  53.4880014 131.3549992  73.5169978  53.1170014
 132.3909992  73.8579978  54.1660014 131.8495247  74.0981057  53.5288461
 130.2929992  70.0419978  58.1270014 129.4269992  69.9369978  58.5210014
 130.6689992  70.7999978  58.5730014 130.2253401  70.1301708  58.2412620
 131.5939992  68.2979978  43.6410014 132.4439992  68.7189978  43.7680014
 131.5989992  67.5579978  44.2480014 131.7111143  68.2556094  43.7404750
 131.9879992  66.3519978  45.4640014 131.2619992  65.8719978  45.8620014
 132.5699992  66.5569978  46.1970014 131.9672730  66.3140184  45.6174149
 131.7469992  69.1369978  50.4120014 132.5809992  68.7589978  50.1310014
 131.8589992  70.0799978  50.2930014 131.8761917  69.2127943  50.3574861
 130.2339992  72.0149978  52.7190014 129.5859992  72.3399978  53.3440014
 129.7159992  71.5739978  52.0450014 130.0754196  71.9998651  52.7134152
 132.2569992  66.2529978  41.8550014 131.7349992  66.6089978  41.1370014
 132.2239992  66.9279978  42.5340014 132.1810129  66.3929598  41.8483355
 130.6059992  63.4919978  40.4060014 130.7019992  64.1589978  39.7260014
 130.4659992  62.6769978  39.9250014 130.6002040  63.4730671  40.2478378
 129.7749992  64.8729978  46.0270014 129.6249992  63.9279978  46.0070014
 129.4209992  65.1539978  46.8710014 129.7066351  64.7816644  46.1383220
 114.8099992  66.9509978  50.0380014 114.9949992  66.8689978  49.1020014
 115.6599992  66.8269978  50.4610014 114.9500928  66.9230463  49.9672893
 130.6309992  66.8429978  55.6660014 131.2139992  66.1079978  55.8580014
 131.1949992  67.6149978  55.7130014 130.7869781  66.8468145  55.6986164
 132.1279992  64.7459978  56.3510014 131.2649992  64.3669978  56.1850014
 132.7319992  64.0069978  56.2760014 132.0916085  64.5943223  56.3181694
 129.8529992  60.8999978  39.5240014 130.4639992  60.5289978  40.1610014
 129.0159992  60.4789978  39.7200014 129.8234947  60.7922756  39.6377252
 129.4859992  62.4549978  44.4900014 129.7649992  61.5479978  44.6140014
 130.2449992  62.8889978  44.1010014 129.6268619  62.3894502  44.4543795
 130.0969992  63.0369978  49.9260014 131.0299992  63.2489978  49.8910014
 129.8619992  63.1379978  50.8480014 130.1929517  63.0796833  50.0459130
 130.1269992  63.7739978  52.7020014 129.2839992  64.0419978  53.0680014
 130.5689992  64.5959978  52.4910014 130.0714138  63.9218273  52.7235518
 114.4079992  62.2209978  56.1780014 115.3269992  62.0989978  56.4150014
 113.9579992  61.4709978  56.5680014 114.4730087  62.1029608  56.2631410
 132.4099992  57.7539978  58.0550014 132.7589992  57.0999978  57.4500014
 132.5569992  58.5909978  57.6150014 132.4776824  57.7776024  57.9126304
 130.0989992  59.7179978  44.5380014 130.2809992  59.2689978  45.3630014
 129.4989992  59.1339978  44.0740014 130.0428187  59.5775552  44.5882739
 115.6289992  60.5339978  49.0700014 116.0739992  59.7419978  49.3720014
 116.0949992  61.2499978  49.5000014 115.7529718  60.5224534  49.1695265
 113.9329992  63.5329978  50.1390014 114.4249992  63.3119978  49.3480014
 114.2949992  64.3729978  50.4200014 114.0492923  63.6163468  50.0687407
 131.9289992  59.8629978  56.4040014 131.0119992  60.1339978  56.3690014
 132.0519992  59.3279978  55.6200014 131.8199672  59.8277885  56.2931862
 131.9659992  59.7859978  41.0660014 132.3779992  59.0649978  40.5910014
 132.6469992  60.4549978  41.1240014 132.1145536  59.7777766  41.0088024
 114.2469992  59.7909978  44.1930014 113.3219992  59.9989978  44.0640014
 114.7009992  60.2749978  43.5030014 114.1816298  59.8849299  44.0820451
 129.0169992  74.7749978  46.1390014 129.6699992  74.4269978  45.5310014
 129.5279992  75.2629978  46.7850014 129.1752777  74.7933815  46.1432047
 114.2099992  58.5289978  52.5370014 113.5449992  58.2829978  53.1800014
 113.7669992  59.1509978  51.9600014 114.0591168  58.5794214  52.5469848
 116.4019992  71.7039978  56.6820014 115.5809992  71.8789978  56.2210014
 116.1499992  71.6309978  57.6020014 116.2555594  71.7180717  56.7433611
 119.3559992  72.6779978  52.9400014 118.9319992  73.4879978  52.6580014
 120.2609992  72.7639978  52.6380014 119.4202138  72.8004160  52.8606415
 123.6679992  74.0769978  55.9000014 123.8519992  73.7439978  56.7780014
 124.5139992  74.3869978  55.5780014 123.8076484  74.0732979  55.9767617
 126.0129992  75.3629978  55.1440014 126.6899992  74.7299978  54.9040014
 126.3339992  75.7639978  55.9510014 126.1491323  75.3305691  55.2203158
 130.9299992  57.9529978  54.2230014 130.1169992  58.2779978  53.8360014
 131.1629992  57.1919978  53.6900014 130.8501347  57.8946880  54.0979841
 116.7579992  75.9349978  52.9880014 116.0379992  76.3749978  52.5370014
 116.3929992  75.6839978  53.8360014 116.6099643  75.9613369  53.0409129
 119.2249992  75.5349978  52.0180014 118.3609992  75.6069978  52.4220014
 119.1699992  76.0819978  51.2340014 119.0991942  75.6187849  51.9674000
 123.9359992  75.4229978  51.1930014 123.4789992  75.9519978  50.5390014
 124.0989992  76.0259978  51.9180014 123.8954960  75.5769280  51.2015274
 126.2639992  74.3009978  52.1380014 125.3589992  74.4659978  51.8720014
 126.6919992  75.1539978  52.0720014 126.1981537  74.4389134  52.0927095
 128.8679992  75.8709978  52.4330014 128.6859992  76.7869978  52.2220014
 129.0449992  75.4599978  51.5860014 128.8670030  75.9408273  52.2897166
 116.1729992  74.5579978  49.8980014 116.1549992  74.1319978  50.7550014
 116.9779992  74.2389978  49.4890014 116.2792875  74.4566435  49.9599515
 118.3139992  73.2679978  48.5530014 118.0949992  72.3509978  48.7230014
 119.1379992  73.4079978  49.0190014 118.3954702  73.1615511  48.6392527
 120.8509992  73.7379978  49.4020014 121.0639992  72.8499978  49.1150014
 120.9159992  73.7029978  50.3560014 120.8889149  73.6118326  49.4917369
 124.3599992  59.4019978  48.5460014 123.6859992  58.7719978  48.8020014
 124.9239992  58.9179978  47.9430014 124.3440384  59.2503708  48.4995020
 129.5029992  57.5089978  48.6590014 130.1059992  58.0569978  48.1570014
 128.6329992  57.8279978  48.4180014 129.4679157  57.6270373  48.5577910
 131.2299992  58.6479978  46.9920014 131.8409992  58.1339978  46.4650014
 131.6119992  59.5249978  47.0150014 131.3653305  58.6962050  46.9229418
 116.6869992  58.0359978  46.3680014 115.9099992  57.8009978  45.8610014
 117.2169992  57.2389978  46.3770014 116.6523451  57.8961268  46.2998627
 115.5229992  57.8339978  42.1720014 115.9619992  58.4449978  41.5800014
 114.8889992  58.3719978  42.6460014 115.4973859  57.9904064  42.1550305
 121.2659992  57.9619978  46.1810014 122.1399992  58.3509978  46.1520014
 121.1299992  57.7469978  47.1040014 121.3671953  57.9861643  46.3017617
 126.8229992  57.9919978  47.8310014 126.8989992  58.0879978  46.8810014
 126.5479992  57.0849978  47.9590014 126.7961871  57.8824146  47.7183944
 128.1759992  58.0179978  43.5230014 127.4729992  58.6329978  43.3130014
 127.7309992  57.1809978  43.6540014 128.0196550  57.9889668  43.5119837
 115.4239992  73.7819978  43.0690014 114.7389992  73.7439978  42.4020014
 115.4279992  74.6949978  43.3570014 115.3307621  73.9001924  43.0166126
 117.3839992  59.7499978  40.6140014 117.8749992  59.1199978  40.0870014
 118.0069992  60.0459978  41.2770014 117.5355304  59.7037376  40.6314940
 122.4099992  60.0429978  43.0710014 122.5879992  59.3959978  43.7540014
 122.3559992  60.8769978  43.5380014 122.4270678  60.0671604  43.2276301
 124.2879992  74.9909978  41.4670014 125.1539992  75.3579978  41.2890014
 124.0419992  74.5519978  40.6530014 124.3732097  74.9818525  41.3326019
 130.9969992  74.5539978  44.1460014 130.8029992  73.8059978  43.5810014
 130.9579992  75.3119978  43.5630014 130.9651645  74.5540786  43.9898148
 116.6439992  58.5499978  55.8860014 116.2779992  57.7839978  56.3280014
 117.5569992  58.5789978  56.1720014 116.7173172  58.4490324  55.9851890
 118.6169992  57.8999978  57.4210014 119.5159992  57.6259978  57.2370014
 118.2309992  57.1579978  57.8860014 118.6877307  57.7622196  57.4587098
 117.2419992  74.7019978  40.0940014 116.9739992  74.9879978  40.9680014
 118.0129992  74.1559978  40.2470014 117.3095927  74.6672779  40.2341205
 127.0389992  57.2329978  57.6040014 127.1149992  56.8069978  58.4570014
 127.9319992  57.2459978  57.2610014 127.1702303  57.1763493  57.6745497
 130.2149992  73.3059978  56.2960014 129.4329992  73.1189978  55.7760014
 130.1429992  74.2349978  56.5130014 130.0981924  73.4060637  56.2541602
 144.6209992  67.1919978  46.3270014 144.7099992  68.1359978  46.1950014
 143.9829992  66.9169978  45.6690014 144.5469062  67.2839812  46.2199641
 143.5539992  66.4469978  49.7460014 143.5159992  65.8009978  50.4510014
 143.2319992  65.9799978  48.9750014 143.5052679  66.2954276  49.7382921
 135.9219992  66.0609978  51.3390014 135.9639992  65.4359978  52.0620014
 136.6249992  66.6849978  51.5210014 136.0227345  66.0597873  51.4625274
 136.8459992  70.5109978  49.8740014 136.4759992  69.7089978  49.5040014
 137.7869992  70.3429978  49.9200014 136.9225984  70.3784638  49.8295603
 133.4559992  64.1709978  45.2660014 133.0079992  65.0169978  45.2480014
 132.8949992  63.5919978  44.7510014 133.3188546  64.2083993  45.1938891
 134.1659992  66.3329978  47.3920014 134.3799992  65.5629978  47.9200014
 134.9039992  66.4229978  46.7890014 134.2950200  66.2398587  47.3827035
 144.3719992  74.4899978  48.2590014 144.9909992  73.8139978  47.9860014
 144.1629992  74.2719978  49.1680014 144.4286056  74.3678869  48.3443967
 141.9429992  68.8789978  50.1520014 142.2469992  68.1929978  49.5570014
 142.6649992  68.9979978  50.7700014 142.0821240  68.8012314  50.1540959
 145.0839992  63.2729978  50.4790014 145.2269992  62.3269978  50.4990014
 144.9779992  63.4799978  49.5510014 145.0892403  63.1714797  50.3562239
 138.2389992  61.3749978  47.7520014 138.2819992  62.2349978  47.3330014
 137.7809992  60.8229978  47.1180014 138.1829871  61.4179245  47.6090761
 134.8589992  63.7719978  48.5140014 135.5129992  63.2219978  48.9460014
 134.8829992  63.4979978  47.5970014 134.9517199  63.6597167  48.4491668
 140.0159992  65.3219978  47.7290014 140.6319992  64.7949978  48.2380014
 139.4289992  64.6819978  47.3250014 140.0210154  65.1633954  47.7440945
 137.0489992  60.2929978  51.8260014 136.8299992  60.8229978  51.0590014
 136.3809992  60.5189978  52.4730014 136.9286975  60.3960967  51.8085140
 144.4179992  69.7929978  45.3700014 144.1229992  69.4699978  44.5180014
 144.0939992  70.6929978  45.4110014 144.3338460  69.8704464  45.2589714
 139.6179992  67.9679978  52.1130014 138.8779992  68.5669978  52.2170014
 140.3319992  68.5219978  51.7980014 139.6133500  68.1247829  52.0846371
 136.6429992  62.1849978  49.7780014 137.2569992  62.8179978  50.1510014
 137.1549992  61.7129978  49.1220014 136.7961962  62.2077249  49.7402935
 138.0259992  69.9329978  52.9000014 138.0199992  70.8119978  52.5220014
 137.1719992  69.8489978  53.3250014 137.9097925  70.0419535  52.9056887
 134.1469992  69.6039978  43.6820014 133.8749992  69.8329978  42.7940014
 134.1919992  70.4409978  44.1430014 134.1158097  69.7486163  43.6226683
 141.0759992  57.5979978  49.2780014 140.9579992  56.6499978  49.2240014
 140.2209992  57.9309978  49.5510014 140.9442805  57.5132202  49.3075079
 143.3419992  66.4359978  43.7790014 142.6309992  66.9709978  43.4270014
 144.0329992  66.4909978  43.1190014 143.3380751  66.5166777  43.6415858
 143.3959992  64.8929978  40.8170014 144.0969992  64.9159978  41.4690014
 143.6979992  64.2649978  40.1610014 143.5328202  64.8112212  40.8175609
 138.3929992  67.2759978  46.6130014 138.0629992  66.9049978  45.7950014
 138.9819992  66.6049978  46.9600014 138.4273970  67.1346063  46.5479404
 139.7599992  70.7039978  49.2940014 139.6649992  70.1249978  48.5380014
 140.4889992  70.3329978  49.7900014 139.8456011  70.5745561  49.2576028
 138.7599992  66.0439978  50.2460014 139.3249992  66.1659978  49.4840014
 139.0789992  66.6819978  50.8850014 138.8804166  66.1468791  50.2280348
 145.0689992  71.5479978  50.9800014 144.8289992  72.2099978  51.6280014
 144.8709992  70.7129978  51.4050014 145.0093826  71.5258115  51.1261566
 139.6399992  70.4439978  54.9640014 139.3289992  71.2259978  55.4190014
 138.9899992  70.2909978  54.2780014 139.5095538  70.5304087  54.9335898
 136.5599992  66.6419978  54.1920014 136.6299992  67.2929978  54.8910014
 135.6689992  66.7449978  53.8570014 136.4491690  66.7449249  54.2423043
 143.3449992  72.5439978  45.8510014 143.8189992  72.8399978  46.6280014
 142.7819992  73.2829978  45.6180014 143.3337890  72.6843036  45.9258101
 137.8789992  72.5149978  55.7270014 137.8869992  72.3789978  54.7800014
 136.9629992  72.3979978  55.9790014 137.7562528  72.4805463  55.6313243
 137.3839992  66.3449978  44.2020014 137.0919992  67.1129978  43.7110014
 136.7089992  65.6859978  44.0390014 137.2528497  66.3609745  44.1128260
 133.4769992  68.7079978  53.0170014 132.9749992  68.6799978  52.2020014
 133.4819992  67.8029978  53.3270014 133.4089832  68.5817486  52.9474121
 133.2269992  71.4889978  49.9010014 134.1729992  71.3439978  49.8820014
 133.1139992  72.2729978  50.4380014 133.3413578  71.5751697  49.9710317
 142.4029992  71.7289978  54.4600014 142.4909992  72.5549978  54.9350014
 141.5399992  71.3989978  54.7090014 142.2983357  71.7975468  54.5587653
 142.8179992  75.5009978  44.2660014 142.7419992  75.3799978  43.3190014
 142.8499992  76.4499978  44.3840014 142.8119380  75.6127677  44.1525181
 136.4709992  74.2899978  46.0470014 136.6229992  73.9419978  46.9250014
 135.6199992  73.9329978  45.7910014 136.3768344  74.1940879  46.1326868
 135.7259992  70.0319978  54.0600014 135.9419992  69.6699978  54.9200014
 134.8699992  69.6569978  53.8510014 135.6398810  69.9318837  54.1492680
 138.3439992  58.5019978  50.0560014 137.4829992  58.4149978  49.6480014
 138.3219992  59.3579978  50.4840014 138.2230491  58.6058003  50.0579582
 143.0069992  58.2239978  53.4310014 143.4269992  57.8089978  54.1840014
 142.0739992  58.0449978  53.5480014 142.9383736  58.1429910  53.5498968
 142.6689992  60.7159978  40.7160014 142.4149992  60.7349978  41.6380014
 142.4119992  59.8449978  40.4140014 142.5994508  60.6008280  40.8014803
 138.4349992  63.4669978  51.1510014 137.7939992  63.4269978  51.8600014
 138.4729992  64.3939978  50.9130014 138.3523010  63.5867668  51.2159946
 138.4319992  63.6879978  46.0630014 137.5399992  63.3479978  46.0040014
 138.8829992  63.3109978  45.3070014 138.3707642  63.5904910  45.9527726
 143.9679992  64.1039978  44.8800014 143.5589992  64.9189978  44.5880014
 144.6879992  63.9639978  44.2660014 144.0094439  64.1965372  44.7570115
 143.0699992  64.2799978  56.3680014 142.5069992  63.5749978  56.6890014
 143.8959992  64.1589978  56.8360014 143.1046674  64.1672165  56.4751751
 144.9729992  63.5499978  47.6940014 144.7769992  64.1559978  46.9790014
 145.1539992  62.7169978  47.2600014 144.9706584  63.5202513  47.5374212
 136.1849992  63.7879978  53.0180014 136.1469992  64.1879978  53.8870014
 135.6949992  62.9709978  53.1080014 136.1135330  63.7322674  53.1491289
 139.5509992  61.1619978  39.8170014 139.1199992  60.7169978  40.5460014
 138.8329992  61.5329978  39.3040014 139.3949176  61.1512051  39.8474930
 132.7939992  60.9039978  46.8690014 133.4239992  60.8749978  47.5880014
 133.2429992  60.4789978  46.1380014 132.9410835  60.8425660  46.8687659
 134.0679992  61.6499978  42.2930014 134.5419992  62.2409978  41.7080014
 133.3499992  62.1799978  42.6400014 134.0358640  61.8025511  42.2597969
 144.2369992  65.1879978  52.3650014 144.5599992  64.5569978  51.7220014
 143.7959992  64.6539978  53.0260014 144.2216379  65.0293468  52.3662582
 141.0139992  61.1159978  47.1490014 140.1029992  61.1729978  47.4380014
 141.5189992  61.0559978  47.9600014 140.9576873  61.1156826  47.2981207
 135.8419992  62.7449978  45.9760014 134.9529992  62.8439978  45.6360014
 136.1389992  61.9029978  45.6300014 135.7604177  62.6447687  45.8826940
 139.4949992  62.7449978  43.6330014 140.4269992  62.8739978  43.8110014
 139.2799992  63.4139978  42.9830014 139.5934472  62.8530806  43.5694891
 145.4189992  60.3509978  50.4140014 144.7419992  60.4819978  51.0770014
 144.9339992  60.1959978  49.6030014 145.2607405  60.3479947  50.3952170
 138.1689992  63.9389978  41.1990014 137.6269992  63.5599978  40.5080014
 139.0029992  64.1339978  40.7710014 138.2074390  63.9134079  41.0464392
 136.3049992  68.4959978  56.2980014 137.0369992  68.7509978  56.8600014
 135.5239992  68.7009978  56.8140014 136.2996526  68.5585450  56.4445176
 142.3339992  63.9029978  49.0360014 142.8979992  63.3569978  48.4890014
 142.1859992  63.3819978  49.8250014 142.3913037  63.7576787  49.0677229
 137.3359992  60.0399978  45.4550014 137.0189992  59.1369978  45.4190014
 138.1169992  60.0419978  44.9020014 137.3982431  59.9167797  45.3753102
 140.9599992  62.2919978  51.4500014 140.1249992  62.7459978  51.5610014
 141.4839992  62.5679978  52.2020014 140.9166072  62.3913948  51.5668136
 141.5049992  68.5049978  43.1350014 140.7599992  67.9969978  42.8130014
 141.3699992  68.5539978  44.0810014 141.3848963  68.4421731  43.2188826
 145.4019992  61.3189978  41.3340014 144.4639992  61.4299978  41.1830014
 145.6999992  62.1749978  41.6410014 145.3136318  61.4500158  41.3548145
 143.0239992  68.6889978  54.3720014 142.6779992  68.3069978  55.1790014
 142.8239992  69.6219978  54.4430014 142.9495987  68.7629002  54.4920461
 136.6289992  67.7999978  48.9050014 137.3739992  67.7969978  48.3030014
 136.7069992  66.9759978  49.3860014 136.7413365  67.6882384  48.8877430
 143.6299992  69.9629978  42.1600014 143.3349992  70.7899978  42.5420014
 142.9269992  69.3439978  42.3570014 143.4946379  69.9924171  42.2388654
 133.6369992  66.2599978  54.2200014 133.8599992  65.8419978  55.0510014
 133.0349992  65.6479978  53.7970014 133.5861513  66.1199606  54.2766740
 140.6539992  65.7769978  56.4330014 140.3579992  65.6119978  55.5370014
 141.5849992  65.5569978  56.4220014 140.7394401  65.7246879  56.3090206
 145.2739992  71.1509978  54.3220014 144.3739992  71.3339978  54.0550014
 145.3079992  71.4099978  55.2430014 145.1553748  71.2110554  54.4099164
 139.0039992  71.3179978  46.3090014 139.5319992  72.0909978  46.1090014
 138.1239992  71.5419978  46.0070014 138.9573435  71.4542700  46.2407310
 134.7589992  66.1799978  40.8960014 135.3749992  66.8069978  41.2760014
 133.8969992  66.4959978  41.1680014 134.7267678  66.3084412  40.9847209
 140.4319992  68.9809978  45.8850014 140.1909992  69.9059978  45.9270014
 139.6909992  68.5219978  46.2820014 140.2989206  69.0455915  45.9443769
 140.9459992  73.1299978  52.2000014 141.3089992  73.9839978  51.9670014
 141.4779992  72.8379978  52.9410014 141.0675141  73.2073895  52.2682097
 139.1149992  74.0019978  45.4310014 138.1649992  74.1079978  45.4820014
 139.4669992  74.8229978  45.7750014 139.0325472  74.1274923  45.4844852
 144.4899992  69.2289978  51.9010014 144.0649992  69.0009978  52.7270014
 145.0709992  68.4899978  51.7190014 144.5103395  69.0979545  51.9894414
 135.2709992  61.0139978  53.7780014 134.3789992  61.3519978  53.7100014
 135.1729992  60.1579978  54.1960014 135.1354475  60.9446543  53.8251704
 134.9229992  72.8179978  52.2130014 135.1399992  71.8859978  52.1820014
 135.1689992  73.0929978  53.0960014 134.9859809  72.7275686  52.3281691
 140.7839992  71.2699978  39.4220014 141.0229992  70.5209978  38.8750014
 140.5149992  70.8819978  40.2550014 140.7803233  71.1151853  39.4597809
 139.7209992  70.8399978  41.8780014 139.8679992  70.3199978  42.6680014
 139.7179992  71.7469978  42.1850014 139.7407102  70.8913953  42.0275925
 136.1739992  68.0919978  42.3890014 135.4879992  68.4449978  42.9560014
 136.6969992  68.8549978  42.1420014 136.1508402  68.2433901  42.4331801
 144.0059992  60.7549978  52.6680014 144.7049992  60.8289978  53.3180014
 143.6249992  59.8899978  52.8220014 144.0502097  60.6482389  52.7777997
 144.7899992  60.4069978  43.7650014 145.0099992  60.8779978  42.9610014
 145.3489992  60.8009978  44.4350014 144.8956731  60.5247287  43.7455033
 142.4589992  72.5369978  42.6280014 141.6419992  73.0339978  42.6800014
 142.9879992  73.0129978  41.9870014 142.4188125  72.6691989  42.5485306
 141.9899992  62.1349978  44.6000014 142.8019992  62.6389978  44.6460014
 141.7459992  61.9899978  45.5140014 142.0681467  62.1843749  44.7298575
 142.5259992  63.1209978  53.7840014 142.6449992  63.6949978  54.5410014
 143.1809992  62.4329978  53.8990014 142.6308684  63.1065194  53.9031674
 142.8739992  59.2159978  45.5380014 142.5269992  59.8329978  46.1820014
 143.5329992  59.7169978  45.0560014 142.9155090  59.3681575  45.5610681
 139.7969992  73.5809978  42.6090014 139.9579992  74.3809978  42.1090014
 139.5999992  73.8879978  43.4940014 139.7923906  73.7318678  42.6602333
 138.5319992  60.2789978  42.2250014 138.4479992  61.1669978  42.5720014
 139.4219992  60.0139978  42.4570014 138.6408163  60.3647179  42.3038596
 136.7899992  70.7059978  41.2850014 137.3819992  71.4059978  41.5620014
 137.2489992  70.2729978  40.5660014 136.9331652  70.7432675  41.2256533
 135.1059992  63.3709978  40.4010014 135.0609992  64.3099978  40.5800014
 134.2179992  63.1349978  40.1320014 134.9798166  63.4676687  40.3891524
 135.9139992  58.1519978  49.0750014 135.6849992  58.2109978  48.1470014
 135.4719992  57.3609978  49.3810014 135.8228801  58.0530540  48.9894729
 134.8449992  72.0929978  45.2350014 134.0119992  72.5649978  45.2620014
 135.3899992  72.6029978  44.6360014 134.8047857  72.2264791  45.1577142
 134.1329992  74.7049978  56.5650014 134.6729992  74.4889978  57.3250014
 133.6519992  73.8999978  56.3750014 134.1419219  74.5665156  56.6434282
 138.7299992  73.6249978  58.1850014 139.4979992  73.1659978  58.5260014
 138.7089992  73.3989978  57.2550014 138.8322135  73.5316668  58.1059491
 142.8219992  73.1329978  39.5610014 142.1779992  72.5019978  39.8820014
 143.5839992  72.6019978  39.3290014 142.8368058  72.9747902  39.5736038
 145.3069992  72.0049978  56.9140014 144.9559992  71.1479978  57.1580014
 146.0329992  72.1469978  57.5210014 145.3571895  71.9071351  57.0293770
 134.0399992  68.5159978  57.5190014 134.1839992  67.6139978  57.2330014
 133.2679992  68.8019978  57.0320014 133.9552733  68.4311798  57.4139532
 138.3809992  68.8589978  39.6520014 138.4459992  68.0649978  40.1820014
 139.0339992  68.7409978  38.9620014 138.4781605  68.7343430  39.6312997
 140.6949992  68.4849978  56.9520014 140.3669992  68.7559978  56.0950014
 140.8469992  67.5439978  56.8640014 140.6706412  68.3949046  56.8227822
 143.7339992  69.9059978  39.3880014 143.4649992  70.0869978  40.2880014
 143.5269992  68.9809978  39.2560014 143.6691191  69.8057119  39.4935524
 134.8729992  65.7159978  56.9390014 135.2809992  64.8589978  56.8180014
 134.6119992  65.7299978  57.8600014 134.8936016  65.6005119  57.0469192
 139.5309992  66.8319978  41.9580014 139.0709992  66.3479978  42.6430014
 139.7859992  66.1629978  41.3220014 139.5024856  66.6753669  41.9658397
 138.8199992  64.7249978  54.3140014 138.2009992  65.3989978  54.5940014
 139.1639992  65.0459978  53.4800014 138.7817123  64.8606887  54.2396388
 140.6019992  65.0749978  40.2200014 140.4209992  64.9199978  39.2930014
 141.5519992  65.1829978  40.2650014 140.7056566  65.0683669  40.0990929
 143.8389992  67.1959978  57.5910014 144.7929992  67.2799978  57.5640014
 143.6789992  66.4839978  58.2110014 143.9477182  67.1112842  57.6710733
 139.1589992  62.0799978  55.3960014 139.3089992  61.3509978  54.7940014
 139.1609992  62.8569978  54.8370014 139.1797967  62.0852708  55.2380541
 139.5719992  60.4489978  52.8890014 140.1069992  60.9009978  52.2370014
 138.7189992  60.3409978  52.4660014 139.5300374  60.4962665  52.7426710
 141.1529992  65.8889978  53.1280014 141.9039992  65.7329978  52.5550014
 140.8139992  66.7409978  52.8530014 141.2099587  65.9828138  53.0124078
 145.5689992  63.7039978  58.1570014 145.7609992  62.7729978  58.0450014
 146.4269992  64.1289978  58.1460014 145.7112182  63.6340070  58.1401862
 137.6379992  63.2779978  57.3070014 136.8699992  62.7449978  57.0970014
 138.3159992  62.9679978  56.7080014 137.6247235  63.1631754  57.1972413
 140.3769992  57.9059978  53.3200014 140.2789992  58.8519978  53.2150014
 139.6349992  57.5329978  52.8440014 140.2632534  57.9851773  53.2412600
 141.6409992  62.2269978  56.8840014 141.4059992  62.0079978  57.7850014
 140.8579992  62.0199978  56.3740014 141.5029095  62.1689892  56.9385353
 144.3569992  61.3549978  55.9590014 143.4089992  61.3869978  56.0910014
 144.6689992  60.7289978  56.6130014 144.2695293  61.2747923  56.0654148
 135.8179992  61.1979978  57.0120014 136.0299992  60.4919978  56.4020014
 135.7069992  60.7609978  57.8560014 135.8320269  61.0421921  57.0425873
 140.5989992  57.1999978  55.9910014 141.3109992  56.5599978  55.9770014
 140.4979992  57.4659978  55.0780014 140.6827387  57.1484330  55.8655563
 140.9529992  58.8819978  58.0450014 140.8209992  58.4069978  57.2250014
 140.3529992  59.6269978  57.9900014 140.8539070  58.9175789  57.9253251
 140.4989992  75.7649978  41.2210014 141.4319992  75.9229978  41.3650014
 140.2349992  76.4409978  40.5960014 140.5909911  75.8779373  41.1562722
 134.0669992  70.4019978  40.7040014 134.9809992  70.4809978  40.9770014
 134.0749992  69.7149978  40.0380014 134.1930655  70.3199205  40.6512917
 132.7159992  75.7949978  45.7810014 132.0689992  75.3329978  45.2490014
 133.0709992  75.1229978  46.3640014 132.6753741  75.6409774  45.7869175
 133.5859992  73.8749978  47.5860014 133.2519992  72.9949978  47.7580014
 133.8089992  74.2209978  48.4510014 133.5703721  73.8011938  47.7264168
 133.6659992  66.9509978  50.0380014 133.8509992  66.8689978  49.1020014
 134.5159992  66.8269978  50.4610014 133.8060928  66.9230463  49.9672893
 133.2639992  62.2209978  56.1780014 134.1829992  62.0989978  56.4150014
 132.8139992  61.4709978  56.5680014 133.3290087  62.1029608  56.2631410
 134.4849992  60.5339978  49.0700014 134.9299992  59.7419978  49.3720014
 134.9509992  61.2499978  49.5000014 134.6089718  60.5224534  49.1695265
 132.7889992  63.5329978  50.1390014 133.2809992  63.3119978  49.3480014
 133.1509992  64.3729978  50.4200014 132.9052923  63.6163468  50.0687407
 133.1029992  59.7909978  44.1930014 132.1779992  59.9989978  44.0640014
 133.5569992  60.2749978  43.5030014 133.0376298  59.8849299  44.0820451
 133.0659992  58.5289978  52.5370014 132.4009992  58.2829978  53.1800014
 132.6229992  59.1509978  51.9600014 132.9151168  58.5794214  52.5469848
 135.2579992  71.7039978  56.6820014 134.4369992  71.8789978  56.2210014
 135.0059992  71.6309978  57.6020014 135.1115594  71.7180717  56.7433611
 138.2119992  72.6779978  52.9400014 137.7879992  73.4879978  52.6580014
 139.1169992  72.7639978  52.6380014 138.2762138  72.8004160  52.8606415
 142.5239992  74.0769978  55.9000014 142.7079992  73.7439978  56.7780014
 143.3699992  74.3869978  55.5780014 142.6636484  74.0732979  55.9767617
 144.8689992  75.3629978  55.1440014 145.5459992  74.7299978  54.9040014
 145.1899992  75.7639978  55.9510014 145.0051323  75.3305691  55.2203158
 135.6139992  75.9349978  52.9880014 134.8939992  76.3749978  52.5370014
 135.2489992  75.6839978  53.8360014 135.4659643  75.9613369  53.0409129
 138.0809992  75.5349978  52.0180014 137.2169992  75.6069978  52.4220014
 138.0259992  76.0819978  51.2340014 137.9551942  75.6187849  51.9674000
 142.7919992  75.4229978  51.1930014 142.3349992  75.9519978  50.5390014
 142.9549992  76.0259978  51.9180014 142.7514960  75.5769280  51.2015274
 145.1199992  74.3009978  52.1380014 144.2149992  74.4659978  51.8720014
 145.5479992  75.1539978  52.0720014 145.0541537  74.4389134  52.0927095
 135.0289992  74.5579978  49.8980014 135.0109992  74.1319978  50.7550014
 135.8339992  74.2389978  49.4890014 135.1352875  74.4566435  49.9599515
 137.1699992  73.2679978  48.5530014 136.9509992  72.3509978  48.7230014
 137.9939992  73.4079978  49.0190014 137.2514702  73.1615511  48.6392527
 139.7069992  73.7379978  49.4020014 139.9199992  72.8499978  49.1150014
 139.7719992  73.7029978  50.3560014 139.7449149  73.6118326  49.4917369
 143.2159992  59.4019978  48.5460014 142.5419992  58.7719978  48.8020014
 143.7799992  58.9179978  47.9430014 143.2000384  59.2503708  48.4995020
 135.5429992  58.0359978  46.3680014 134.7659992  57.8009978  45.8610014
 136.0729992  57.2389978  46.3770014 135.5083451  57.8961268  46.2998627
 134.3789992  57.8339978  42.1720014 134.8179992  58.4449978  41.5800014
 133.7449992  58.3719978  42.6460014 134.3533859  57.9904064  42.1550305
 140.1219992  57.9619978  46.1810014 140.9959992  58.3509978  46.1520014
 139.9859992  57.7469978  47.1040014 140.2231953  57.9861643  46.3017617
 134.2799992  73.7819978  43.0690014 133.5949992  73.7439978  42.4020014
 134.2839992  74.6949978  43.3570014 134.1867621  73.9001924  43.0166126
 136.2399992  59.7499978  40.6140014 136.7309992  59.1199978  40.0870014
 136.8629992  60.0459978  41.2770014 136.3915304  59.7037376  40.6314940
 141.2659992  60.0429978  43.0710014 141.4439992  59.3959978  43.7540014
 141.2119992  60.8769978  43.5380014 141.2830678  60.0671604  43.2276301
 143.1439992  74.9909978  41.4670014 144.0099992  75.3579978  41.2890014
 142.8979992  74.5519978  40.6530014 143.2292097  74.9818525  41.3326019
 135.4999992  58.5499978  55.8860014 135.1339992  57.7839978  56.3280014
 136.4129992  58.5789978  56.1720014 135.5733172  58.4490324  55.9851890
 137.4729992  57.8999978  57.4210014 138.3719992  57.6259978  57.2370014
 137.0869992  57.1579978  57.8860014 137.5437307  57.7622196  57.4587098
 136.0979992  74.7019978  40.0940014 135.8299992  74.9879978  40.9680014
 136.8689992  74.1559978  40.2470014 136.1655927  74.6672779  40.2341205
  12.6289992  86.0479978  46.3270014  12.7179992  86.9919978  46.1950014
  11.9909992  85.7729978  45.6690014  12.5549062  86.1399812  46.2199641
  11.5619992  85.3029978  49.7460014  11.5239992  84.6569978  50.4510014
  11.2399992  84.8359978  48.9750014  11.5132679  85.1514276  49.7382921
   3.9299992  84.9169978  51.3390014   3.9719992  84.2919978  52.0620014
   4.6329992  85.5409978  51.5210014   4.0307345  84.9157873  51.4625273
  15.2679992  88.2419978  48.0470014  14.8269992  87.5219978  48.4980014
  15.2549992  88.9629978  48.6770014  15.2059215  88.2409291  48.1938105
   4.8539992  89.3669978  49.8740014   4.4839992  88.5649978  49.5040014
   5.7949992  89.1989978  49.9200014   4.9305984  89.2344638  49.8295603
   1.4639992  83.0269978  45.2660014   1.0159992  83.8729978  45.2480014
   0.9029992  82.4479978  44.7510014   1.3268546  83.0643993  45.1938891
   2.1739992  85.1889978  47.3920014   2.3879992  84.4189978  47.9200014
   2.9119992  85.2789978  46.7890014   2.3030200  85.0958587  47.3827035
  12.3799992  93.3459978  48.2590014  12.9989992  92.6699978  47.9860014
  12.1709992  93.1279978  49.1680014  12.4366056  93.2238869  48.3443967
   9.9509992  87.7349978  50.1520014  10.2549992  87.0489978  49.5570014
  10.6729992  87.8539978  50.7700014  10.0901240  87.6572314  50.1540959
  18.6139992  79.3369978  51.0120014  18.6639992  79.9469978  51.7480014
  19.0399992  79.7979978  50.2890014  18.6784108  79.4827709  51.0150112
  13.0919992  82.1289978  50.4790014  13.2349992  81.1829978  50.4990014
  12.9859992  82.3359978  49.5510014  13.0972403  82.0274797  50.3562239
   6.2469992  80.2309978  47.7520014   6.2899992  81.0909978  47.3330014
   5.7889992  79.6789978  47.1180014   6.1909871  80.2739245  47.6090761
  13.9689992  80.3619978  46.1530014  14.6159992  80.0329978  46.7770014
  14.4789992  80.8789978  45.5300014  14.1264351  80.3869067  46.1541037
   2.8669992  82.6279978  48.5140014   3.5209992  82.0779978  48.9460014
   2.8909992  82.3539978  47.5970014   2.9597199  82.5157167  48.4491668
   8.0239992  84.1779978  47.7290014   8.6399992  83.6509978  48.2380014
   7.4369992  83.5379978  47.3250014   8.0290154  84.0193954  47.7440945
  19.0059992  80.8149978  53.2480014  18.3169992  81.4729978  53.1530014
  19.0209992  80.6169978  54.1850014  18.9137756  80.8782603  53.3615812
   5.0569992  79.1489978  51.8260014   4.8379992  79.6789978  51.0590014
   4.3889992  79.3749978  52.4730014   4.9366975  79.2520967  51.8085140
  12.4259992  88.6489978  45.3700014  12.1309992  88.3259978  44.5180014
  12.1019992  89.5489978  45.4110014  12.3418460  88.7264464  45.2589714
   7.6259992  86.8239978  52.1130014   6.8859992  87.4229978  52.2170014
   8.3399992  87.3779978  51.7980014   7.6213500  86.9807829  52.0846371
  15.7329992  79.6529978  48.1330014  15.5179992  78.8869978  48.6660014
  16.3889992  80.1249978  48.6460014  15.7922673  79.6120728  48.2751990
   4.6509992  81.0409978  49.7780014   5.2649992  81.6739978  50.1510014
   5.1629992  80.5689978  49.1220014   4.8041962  81.0637249  49.7402935
   6.0339992  88.7889978  52.9000014   6.0279992  89.6679978  52.5220014
   5.1799992  88.7049978  53.3250014   5.9177925  88.8979535  52.9056887
   2.1549992  88.4599978  43.6820014   1.8829992  88.6889978  42.7940014
   2.1999992  89.2969978  44.1430014   2.1238097  88.6046163  43.6226683
  15.7799992  90.0809978  50.3950014  14.8379992  90.1399978  50.5570014
  16.0559992  90.9869978  50.2580014  15.6885865  90.2115288  50.3986192
  16.0799992  78.3679978  51.8120014  15.3439992  78.9779978  51.7750014
  16.7639992  78.7829978  51.2860014  16.0715367  78.5077551  51.7358174
   9.0839992  76.4539978  49.2780014   8.9659992  75.5059978  49.2240014
   8.2289992  76.7869978  49.5510014   8.9522805  76.3692202  49.3075079
  14.0319992  91.8619978  47.0200014  14.4569992  91.1549978  46.5350014
  14.3489992  92.6639978  46.6030014  14.1330266  91.8735190  46.8972479
  15.1919992  89.7629978  45.5290014  14.9339992  89.0729978  44.9170014
  15.2629992  89.3199978  46.3740014  15.1663050  89.6086814  45.5595621
  16.8779992  88.3299978  54.0060014  17.0169992  87.7379978  53.2670014
  17.0449992  89.2029978  53.6500014  16.9196193  88.3668896  53.8566211
  11.3499992  85.2919978  43.7790014  10.6389992  85.8269978  43.4270014
  12.0409992  85.3469978  43.1190014  11.3460751  85.3726777  43.6415858
  11.4039992  83.7489978  40.8170014  12.1049992  83.7719978  41.4690014
  11.7059992  83.1209978  40.1610014  11.5408202  83.6672212  40.8175609
  18.7189992  84.6699978  52.0720014  18.0669992  85.3639978  52.1610014
  19.1849992  84.8799978  51.2620014  18.6925937  84.7935019  51.9747533
  14.7559992  85.5009978  44.7300014  14.0239992  85.7299978  45.3040014
  15.2029992  84.7879978  45.1850014  14.7163963  85.4358729  44.8699945
  14.6529992  83.6759978  53.7980014  14.7329992  84.4389978  54.3700014
  14.0519992  83.9549978  53.1080014  14.5826547  83.8182457  53.7830047
   6.4009992  86.1319978  46.6130014   6.0709992  85.7609978  45.7950014
   6.9899992  85.4609978  46.9600014   6.4353970  85.9906063  46.5479404
   7.7679992  89.5599978  49.2940014   7.6729992  88.9809978  48.5380014
   8.4969992  89.1889978  49.7900014   7.8536011  89.4305561  49.2576028
   6.7679992  84.8999978  50.2460014   7.3329992  85.0219978  49.4840014
   7.0869992  85.5379978  50.8850014   6.8884166  85.0028791  50.2280348
  13.0769992  90.4039978  50.9800014  12.8369992  91.0659978  51.6280014
  12.8789992  89.5689978  51.4050014  13.0173826  90.3818115  51.1261566
   7.6479992  89.2999978  54.9640014   7.3369992  90.0819978  55.4190014
   6.9979992  89.1469978  54.2780014   7.5175538  89.3864087  54.9335898
  13.6269992  84.6639978  42.4160014  14.2059992  84.8139978  43.1620014
  14.0409992  85.1339978  41.6920014  13.7623358  84.7480954  42.4203953
   4.5679992  85.4979978  54.1920014   4.6379992  86.1489978  54.8910014
   3.6769992  85.6009978  53.8570014   4.4571690  85.6009249  54.2423043
  11.3529992  91.3999978  45.8510014  11.8269992  91.6959978  46.6280014
  10.7899992  92.1389978  45.6180014  11.3417890  91.5403036  45.9258101
   5.8869992  91.3709978  55.7270014   5.8949992  91.2349978  54.7800014
   4.9709992  91.2539978  55.9790014   5.7642528  91.3365463  55.6313243
  17.3259992  76.4139978  42.2290014  16.4259992  76.5529978  42.5240014
  17.5779992  77.2449978  41.8270014  17.2368683  76.5454055  42.2150232
   5.3919992  85.2009978  44.2020014   5.0999992  85.9689978  43.7110014
   4.7169992  84.5419978  44.0390014   5.2608497  85.2169745  44.1128260
  18.5149992  90.7799978  40.6050014  18.5879992  91.7189978  40.7750014
  19.4199992  90.4749978  40.5490014  18.6474170  90.8673282  40.6207063
   1.4849992  87.5639978  53.0170014   0.9829992  87.5359978  52.2020014
   1.4899992  86.6589978  53.3270014   1.4169832  87.4377486  52.9474121
   1.2349992  90.3449978  49.9010014   2.1809992  90.1999978  49.8820014
   1.1219992  91.1289978  50.4380014   1.3493578  90.4311697  49.9710317
  19.4329992  91.0109978  55.5840014  19.3829992  90.0549978  55.5460014
  18.6059992  91.2779978  55.9850014  19.3143831  90.9164680  55.6330121
  10.4109992  90.5849978  54.4600014  10.4989992  91.4109978  54.9350014
   9.5479992  90.2549978  54.7090014  10.3063357  90.6535468  54.5587653
  10.8259992  94.3569978  44.2660014  10.7499992  94.2359978  43.3190014
  10.8579992  95.3059978  44.3840014  10.8199380  94.4687677  44.1525181
   4.4789992  93.1459978  46.0470014   4.6309992  92.7979978  46.9250014
   3.6279992  92.7889978  45.7910014   4.3848344  93.0500879  46.1326868
  13.9269992  93.5109978  41.2680014  14.3019992  92.7669978  40.7970014
  13.9319992  93.2409978  42.1860014  13.9790098  93.3726392  41.3276629
  13.5959992  93.4369978  44.0170014  12.6609992  93.5369978  44.1960014
  13.8759992  92.7269978  44.5960014  13.5059471  93.3547933  44.1196695
  16.5849992  82.5039978  56.0640014  16.1769992  82.9839978  55.3430014
  16.6249992  81.5979978  55.7560014  16.5346221  82.4472449  55.9238267
   3.7339992  88.8879978  54.0600014   3.9499992  88.5259978  54.9200014
   2.8779992  88.5129978  53.8510014   3.6478810  88.7878837  54.1492680
   6.3519992  77.3579978  50.0560014   5.4909992  77.2709978  49.6480014
   6.3299992  78.2139978  50.4840014   6.2310491  77.4618003  50.0579582
  11.0149992  77.0799978  53.4310014  11.4349992  76.6649978  54.1840014
  10.0819992  76.9009978  53.5480014  10.9463736  76.9989910  53.5498968
  14.3419992  80.8349978  54.2840014  13.8279992  80.7099978  55.0820014
  14.1859992  81.7479978  54.0400014  14.2506967  80.9412123  54.3600937
  15.1039992  85.6959978  40.0450014  15.1459992  85.4739978  39.1150014
  15.9529992  86.0949978  40.2350014  15.2245253  85.7195498  39.9433822
  10.6769992  79.5719978  40.7160014  10.4229992  79.5909978  41.6380014
  10.4199992  78.7009978  40.4140014  10.6074508  79.4568280  40.8014803
   6.4429992  82.3229978  51.1510014   5.8019992  82.2829978  51.8600014
   6.4809992  83.2499978  50.9130014   6.3603010  82.4427668  51.2159946
   6.4399992  82.5439978  46.0630014   5.5479992  82.2039978  46.0040014
   6.8909992  82.1669978  45.3070014   6.3787642  82.4464910  45.9527726
  11.9759992  82.9599978  44.8800014  11.5669992  83.7749978  44.5880014
  12.6959992  82.8199978  44.2660014  12.0174439  83.0525372  44.7570115
  11.0779992  83.1359978  56.3680014  10.5149992  82.4309978  56.6890014
  11.9039992  83.0149978  56.8360014  11.1126674  83.0232165  56.4751751
  12.9809992  82.4059978  47.6940014  12.7849992  83.0119978  46.9790014
  13.1619992  81.5729978  47.2600014  12.9786584  82.3762513  47.5374212
   4.1929992  82.6439978  53.0180014   4.1549992  83.0439978  53.8870014
   3.7029992  81.8269978  53.1080014   4.1215330  82.5882674  53.1491289
   7.5589992  80.0179978  39.8170014   7.1279992  79.5729978  40.5460014
   6.8409992  80.3889978  39.3040014   7.4029176  80.0072051  39.8474930
   0.8019992  79.7599978  46.8690014   1.4319992  79.7309978  47.5880014
   1.2509992  79.3349978  46.1380014   0.9490835  79.6985660  46.8687659
   2.0759992  80.5059978  42.2930014   2.5499992  81.0969978  41.7080014
   1.3579992  81.0359978  42.6400014   2.0438640  80.6585511  42.2597969
  12.2449992  84.0439978  52.3650014  12.5679992  83.4129978  51.7220014
  11.8039992  83.5099978  53.0260014  12.2296379  83.8853468  52.3662582
   9.0219992  79.9719978  47.1490014   8.1109992  80.0289978  47.4380014
   9.5269992  79.9119978  47.9600014   8.9656873  79.9716826  47.2981207
   3.8499992  81.6009978  45.9760014   2.9609992  81.6999978  45.6360014
   4.1469992  80.7589978  45.6300014   3.7684177  81.5007687  45.8826940
   7.5029992  81.6009978  43.6330014   8.4349992  81.7299978  43.8110014
   7.2879992  82.2699978  42.9830014   7.6014472  81.7090806  43.5694891
  13.4269992  79.2069978  50.4140014  12.7499992  79.3379978  51.0770014
  12.9419992  79.0519978  49.6030014  13.2687405  79.2039947  50.3952170
   6.1769992  82.7949978  41.1990014   5.6349992  82.4159978  40.5080014
   7.0109992  82.9899978  40.7710014   6.2154390  82.7694079  41.0464392
  16.7149992  94.8779978  56.6900014  16.9139992  95.3019978  55.8560014
  17.3699992  95.2219978  57.2970014  16.8308522  94.9826301  56.6577852
   4.3129992  87.3519978  56.2980014   5.0449992  87.6069978  56.8600014
   3.5319992  87.5569978  56.8140014   4.3076526  87.4145450  56.4445176
  10.3419992  82.7589978  49.0360014  10.9059992  82.2129978  48.4890014
  10.1939992  82.2379978  49.8250014  10.3993037  82.6136787  49.0677229
   5.3439992  78.8959978  45.4550014   5.0269992  77.9929978  45.4190014
   6.1249992  78.8979978  44.9020014   5.4062431  78.7727797  45.3753102
   8.9679992  81.1479978  51.4500014   8.1329992  81.6019978  51.5610014
   9.4919992  81.4239978  52.2020014   8.9246072  81.2473948  51.5668136
   9.5129992  87.3609978  43.1350014   8.7679992  86.8529978  42.8130014
   9.3779992  87.4099978  44.0810014   9.3928963  87.2981731  43.2188826
  16.6629992  86.4939978  51.9220014  17.3039992  86.9499978  51.3780014
  15.8319992  86.6069978  51.4590014  16.6385287  86.5716921  51.7849887
  13.4099992  80.1749978  41.3340014  12.4719992  80.2859978  41.1830014
  13.7079992  81.0309978  41.6410014  13.3216318  80.3060158  41.3548145
  11.0319992  87.5449978  54.3720014  10.6859992  87.1629978  55.1790014
  10.8319992  88.4779978  54.4430014  10.9575987  87.6189002  54.4920461
  14.1289992  82.0419978  42.9950014  15.0209992  81.9039978  43.3140014
  14.1849992  82.8329978  42.4580014  14.2587325  82.1299918  42.9661217
   4.6369992  86.6559978  48.9050014   5.3819992  86.6529978  48.3030014
   4.7149992  85.8319978  49.3860014   4.7493365  86.5442384  48.8877430
  11.6379992  88.8189978  42.1600014  11.3429992  89.6459978  42.5420014
  10.9349992  88.1999978  42.3570014  11.5026379  88.8484171  42.2388654
   1.6449992  85.1159978  54.2200014   1.8679992  84.6979978  55.0510014
   1.0429992  84.5039978  53.7970014   1.5941513  84.9759606  54.2766740
   8.6619992  84.6329978  56.4330014   8.3659992  84.4679978  55.5370014
   9.5929992  84.4129978  56.4220014   8.7474401  84.5806879  56.3090206
  13.2819992  90.0069978  54.3220014  12.3819992  90.1899978  54.0550014
  13.3159992  90.2659978  55.2430014  13.1633748  90.0670554  54.4099164
  19.0139992  82.2509978  42.6900014  18.4589992  81.8549978  42.0170014
  19.1139992  83.1619978  42.4120014  18.9516816  82.3199505  42.5605033
  18.9769992  88.0519978  55.5270014  18.1259992  88.2899978  55.1590014
  19.5669992  88.0349978  54.7740014  18.9403812  88.0822524  55.3748453
  17.3089992  91.0369978  43.1550014  16.9359992  90.2119978  43.4640014
  17.5859992  90.8539978  42.2570014  17.2953463  90.8992569  43.0759525
  14.4689992  85.8449978  50.1760014  13.5409992  85.6139978  50.1490014
  14.9199992  85.0679978  49.8460014  14.4028165  85.7082774  50.1276790
   7.0119992  90.1739978  46.3090014   7.5399992  90.9469978  46.1090014
   6.1319992  90.3979978  46.0070014   6.9653435  90.3102700  46.2407310
   2.7669992  85.0359978  40.8960014   3.3829992  85.6629978  41.2760014
   1.9049992  85.3519978  41.1680014   2.7347678  85.1644412  40.9847209
   8.4399992  87.8369978  45.8850014   8.1989992  88.7619978  45.9270014
   7.6989992  87.3779978  46.2820014   8.3069206  87.9015915  45.9443769
   8.9539992  91.9859978  52.2000014   9.3169992  92.8399978  51.9670014
   9.4859992  91.6939978  52.9410014   9.0755141  92.0633895  52.2682097
   7.1229992  92.8579978  45.4310014   6.1729992  92.9639978  45.4820014
   7.4749992  93.6789978  45.7750014   7.0405472  92.9834923  45.4844852
  12.4979992  88.0849978  51.9010014  12.0729992  87.8569978  52.7270014
  13.0789992  87.3459978  51.7190014  12.5183395  87.9539545  51.9894414
  14.7009992  89.0139978  40.9750014  15.0549992  88.6339978  41.7790014
  13.7529992  88.9199978  41.0620014  14.6212298  88.9492452  41.0968687
  15.1569992  92.6369978  54.3700014  14.5549992  92.0809978  53.8750014
  15.4379992  93.3039978  53.7440014  15.1125757  92.6510744  54.2175675
  19.2049992  93.4929978  41.1760014  19.9489992  94.0789978  41.0360014
  18.5109992  94.0619978  41.5090014  19.2129809  93.6500818  41.2018590
   3.2789992  79.8699978  53.7780014   2.3869992  80.2079978  53.7100014
   3.1809992  79.0139978  54.1960014   3.1434475  79.8006543  53.8251704
  15.5669992  87.6859978  43.2020014  15.2899992  86.9579978  43.7580014
  16.4949992  87.8049978  43.4070014  15.6544499  87.6024213  43.3058044
   2.9309992  91.6739978  52.2130014   3.1479992  90.7419978  52.1820014
   3.1769992  91.9489978  53.0960014   2.9939809  91.5835686  52.3281691
   8.7919992  90.1259978  39.4220014   9.0309992  89.3769978  38.8750014
   8.5229992  89.7379978  40.2550014   8.7883233  89.9711853  39.4597809
   7.7289992  89.6959978  41.8780014   7.8759992  89.1759978  42.6680014
   7.7259992  90.6029978  42.1850014   7.7487102  89.7473953  42.0275925
   4.1819992  86.9479978  42.3890014   3.4959992  87.3009978  42.9560014
   4.7049992  87.7109978  42.1420014   4.1588402  87.0993901  42.4331801
  12.0139992  79.6109978  52.6680014  12.7129992  79.6849978  53.3180014
  11.6329992  78.7459978  52.8220014  12.0582097  79.5042389  52.7777997
  12.7979992  79.2629978  43.7650014  13.0179992  79.7339978  42.9610014
  13.3569992  79.6569978  44.4350014  12.9036732  79.3807287  43.7455033
  10.4669992  91.3929978  42.6280014   9.6499992  91.8899978  42.6800014
  10.9959992  91.8689978  41.9870014  10.4268125  91.5251989  42.5485306
   9.9979992  80.9909978  44.6000014  10.8099992  81.4949978  44.6460014
   9.7539992  80.8459978  45.5140014  10.0761467  81.0403749  44.7298575
  10.5339992  81.9769978  53.7840014  10.6529992  82.5509978  54.5410014
  11.1889992  81.2889978  53.8990014  10.6388684  81.9625194  53.9031674
  10.8819992  78.0719978  45.5380014  10.5349992  78.6889978  46.1820014
  11.5409992  78.5729978  45.0560014  10.9235090  78.2241575  45.5610681
   7.8049992  92.4369978  42.6090014   7.9659992  93.2369978  42.1090014
   7.6079992  92.7439978  43.4940014   7.8003906  92.5878678  42.6602333
   6.5399992  79.1349978  42.2250014   6.4559992  80.0229978  42.5720014
   7.4299992  78.8699978  42.4570014   6.6488163  79.2207179  42.3038596
  16.7379992  79.8839978  54.6190014  15.8219992  80.1459978  54.5320014
  17.0739992  79.8809978  53.7230014  16.6578499  79.9195163  54.4858766
  15.3409992  83.6339978  48.7150014  14.5429992  83.2189978  48.3870014
  15.7859992  82.9439978  49.2060014  15.2919684  83.4838628  48.7365227
   4.7979992  89.5619978  41.2850014   5.3899992  90.2619978  41.5620014
   5.2569992  89.1289978  40.5660014   4.9411652  89.5992675  41.2256533
   3.1139992  82.2269978  40.4010014   3.0689992  83.1659978  40.5800014
   2.2259992  81.9909978  40.1320014   2.9878166  82.3236687  40.3891524
  16.4269992  92.8899978  50.3370014  16.2709992  93.5689978  49.6800014
  17.3599992  92.9619978  50.5400014  16.5317387  92.9926390  50.2745342
   3.9219992  77.0079978  49.0750014   3.6929992  77.0669978  48.1470014
   3.4799992  76.2169978  49.3810014   3.8308801  76.9090540  48.9894729
   2.8529992  90.9489978  45.2350014   2.0199992  91.4209978  45.2620014
   3.3979992  91.4589978  44.6360014   2.8127857  91.0824791  45.1577142
   2.1409992  93.5609978  56.5650014   2.6809992  93.3449978  57.3250014
   1.6599992  92.7559978  56.3750014   2.1499219  93.4225156  56.6434282
   6.7379992  92.4809978  58.1850014   7.5059992  92.0219978  58.5260014
   6.7169992  92.2549978  57.2550014   6.8402135  92.3876668  58.1059491
  10.8299992  91.9889978  39.5610014  10.1859992  91.3579978  39.8820014
  11.5919992  91.4579978  39.3290014  10.8448058  91.8307902  39.5736038
  13.3149992  90.8609978  56.9140014  12.9639992  90.0039978  57.1580014
  14.0409992  91.0029978  57.5210014  13.3651895  90.7631351  57.0293770
  15.4349992  91.8059978  39.7940014  15.7179992  91.0109978  40.2470014
  16.1739992  92.0389978  39.2330014  15.5737096  91.7287049  39.7801104
   2.0479992  87.3719978  57.5190014   2.1919992  86.4699978  57.2330014
   1.2759992  87.6579978  57.0320014   1.9632733  87.2871798  57.4139532
   6.3889992  87.7149978  39.6520014   6.4539992  86.9209978  40.1820014
   7.0419992  87.5969978  38.9620014   6.4861605  87.5903430  39.6312997
   8.7029992  87.3409978  56.9520014   8.3749992  87.6119978  56.0950014
   8.8549992  86.3999978  56.8640014   8.6786412  87.2509046  56.8227822
  11.7419992  88.7619978  39.3880014  11.4729992  88.9429978  40.2880014
  11.5349992  87.8369978  39.2560014  11.6771191  88.6617119  39.4935524
  14.4379992  87.2569978  54.3350014  15.1829992  87.8459978  54.2160014
  13.6809992  87.8389978  54.3990014  14.4375470  87.4162128  54.3273799
   2.8809992  84.5719978  56.9390014   3.2889992  83.7149978  56.8180014
   2.6199992  84.5859978  57.8600014   2.9016016  84.4565119  57.0469192
   7.5389992  85.6879978  41.9580014   7.0789992  85.2039978  42.6430014
   7.7939992  85.0189978  41.3220014   7.5104856  85.5313669  41.9658397
   6.8279992  83.5809978  54.3140014   6.2089992  84.2549978  54.5940014
   7.1719992  83.9019978  53.4800014   6.7897123  83.7166887  54.2396388
   8.6099992  83.9309978  40.2200014   8.4289992  83.7759978  39.2930014
   9.5599992  84.0389978  40.2650014   8.7136566  83.9243669  40.0990929
  11.8469992  86.0519978  57.5910014  12.8009992  86.1359978  57.5640014
  11.6869992  85.3399978  58.2110014  11.9557182  85.9672842  57.6710733
  17.9999992  86.2849978  39.6660014  17.7259992  85.8609978  38.8530014
  18.0389992  87.2169978  39.4490014  17.9677716  86.3528827  39.5254286
   7.1669992  80.9359978  55.3960014   7.3169992  80.2069978  54.7940014
   7.1689992  81.7129978  54.8370014   7.1877967  80.9412708  55.2380541
   7.5799992  79.3049978  52.8890014   8.1149992  79.7569978  52.2370014
   6.7269992  79.1969978  52.4660014   7.5380374  79.3522665  52.7426710
   9.1609992  84.7449978  53.1280014   9.9119992  84.5889978  52.5550014
   8.8219992  85.5969978  52.8530014   9.2179587  84.8388138  53.0124078
  13.5769992  82.5599978  58.1570014  13.7689992  81.6289978  58.0450014
  14.4349992  82.9849978  58.1460014  13.7192182  82.4900070  58.1401862
  14.8939992  85.3489978  56.2340014  14.6119992  86.0579978  55.6560014
  15.8359992  85.2759978  56.0830014  14.9827921  85.4362193  56.1344225
   5.6459992  82.1339978  57.3070014   4.8779992  81.6009978  57.0970014
   6.3239992  81.8239978  56.7080014   5.6327235  82.0191754  57.1972413
   8.3849992  76.7619978  53.3200014   8.2869992  77.7079978  53.2150014
   7.6429992  76.3889978  52.8440014   8.2712534  76.8411773  53.2412600
   9.6489992  81.0829978  56.8840014   9.4139992  80.8639978  57.7850014
   8.8659992  80.8759978  56.3740014   9.5109095  81.0249892  56.9385353
  12.3649992  80.2109978  55.9590014  11.4169992  80.2429978  56.0910014
  12.6769992  79.5849978  56.6130014  12.2775293  80.1307923  56.0654148
  13.9989992  78.8449978  57.9640014  13.9019992  77.8929978  57.9590014
  13.6769992  79.1129978  58.8250014  13.9422468  78.7510884  58.0796210
   3.8259992  80.0539978  57.0120014   4.0379992  79.3479978  56.4020014
   3.7149992  79.6169978  57.8560014   3.8400269  79.8981921  57.0425873
   8.6069992  76.0559978  55.9910014   9.3189992  75.4159978  55.9770014
   8.5059992  76.3219978  55.0780014   8.6907387  76.0044330  55.8655563
   8.9609992  77.7379978  58.0450014   8.8289992  77.2629978  57.2250014
   8.3609992  78.4829978  57.9900014   8.8619070  77.7735789  57.9253251
   8.5069992  94.6209978  41.2210014   9.4399992  94.7789978  41.3650014
   8.2429992  95.2969978  40.5960014   8.5989911  94.7339373  41.1562722
   2.0749992  89.2579978  40.7040014   2.9889992  89.3369978  40.9770014
   2.0829992  88.5709978  40.0380014   2.2010655  89.1759205  40.6512917
   0.7239992  94.6509978  45.7810014   0.0769992  94.1889978  45.2490014
   1.0789992  93.9789978  46.3640014   0.6833741  94.4969774  45.7869175
   1.5939992  92.7309978  47.5860014   1.2599992  91.8509978  47.7580014
   1.8169992  93.0769978  48.4510014   1.5783721  92.6571938  47.7264168
  19.1429992  93.5409978  50.5670014  19.1209992  93.7259978  51.5060014
  19.8329992  94.1089978  50.2260014  19.2333439  93.6431887  50.6494791
  18.7059992  93.1079978  53.4880014  18.2189992  92.3729978  53.1170014
  19.2549992  92.7139978  54.1660014  18.7135247  92.9541057  53.5288461
  17.1569992  88.8979978  58.1270014  16.2909992  88.7929978  58.5210014
  17.5329992  89.6559978  58.5730014  17.0893401  88.9861708  58.2412620
  18.4579992  87.1539978  43.6410014  19.3079992  87.5749978  43.7680014
  18.4629992  86.4139978  44.2480014  18.5751143  87.1116094  43.7404750
  18.8519992  85.2079978  45.4640014  18.1259992  84.7279978  45.8620014
  19.4339992  85.4129978  46.1970014  18.8312730  85.1700184  45.6174149
  18.6109992  87.9929978  50.4120014  19.4449992  87.6149978  50.1310014
  18.7229992  88.9359978  50.2930014  18.7401917  88.0687943  50.3574861
  17.0979992  90.8709978  52.7190014  16.4499992  91.1959978  53.3440014
  16.5799992  90.4299978  52.0450014  16.9394196  90.8558651  52.7134152
  19.1209992  85.1089978  41.8550014  18.5989992  85.4649978  41.1370014
  19.0879992  85.7839978  42.5340014  19.0450129  85.2489598  41.8483355
  17.4699992  82.3479978  40.4060014  17.5659992  83.0149978  39.7260014
  17.3299992  81.5329978  39.9250014  17.4642040  82.3290671  40.2478378
  16.6389992  83.7289978  46.0270014  16.4889992  82.7839978  46.0070014
  16.2849992  84.0099978  46.8710014  16.5706351  83.6376644  46.1383220
   1.6739992  85.8069978  50.0380014   1.8589992  85.7249978  49.1020014
   2.5239992  85.6829978  50.4610014   1.8140928  85.7790463  49.9672893
  17.4949992  85.6989978  55.6660014  18.0779992  84.9639978  55.8580014
  18.0589992  86.4709978  55.7130014  17.6509781  85.7028145  55.6986164
  18.9919992  83.6019978  56.3510014  18.1289992  83.2229978  56.1850014
  19.5959992  82.8629978  56.2760014  18.9556085  83.4503223  56.3181695
  16.7169992  79.7559978  39.5240014  17.3279992  79.3849978  40.1610014
  15.8799992  79.3349978  39.7200014  16.6874947  79.6482756  39.6377252
  16.3499992  81.3109978  44.4900014  16.6289992  80.4039978  44.6140014
  17.1089992  81.7449978  44.1010014  16.4908619  81.2454502  44.4543795
  16.9609992  81.8929978  49.9260014  17.8939992  82.1049978  49.8910014
  16.7259992  81.9939978  50.8480014  17.0569517  81.9356833  50.0459130
  16.9909992  82.6299978  52.7020014  16.1479992  82.8979978  53.0680014
  17.4329992  83.4519978  52.4910014  16.9354138  82.7778273  52.7235518
   1.2719992  81.0769978  56.1780014   2.1909992  80.9549978  56.4150014
   0.8219992  80.3269978  56.5680014   1.3370087  80.9589608  56.2631410
  19.2739992  76.6099978  58.0550014  19.6229992  75.9559978  57.4500014
  19.4209992  77.4469978  57.6150014  19.3416824  76.6336024  57.9126304
  16.9629992  78.5739978  44.5380014  17.1449992  78.1249978  45.3630014
  16.3629992  77.9899978  44.0740014  16.9068187  78.4335552  44.5882739
   2.4929992  79.3899978  49.0700014   2.9379992  78.5979978  49.3720014
   2.9589992  80.1059978  49.5000014   2.6169718  79.3784534  49.1695265
   0.7969992  82.3889978  50.1390014   1.2889992  82.1679978  49.3480014
   1.1589992  83.2289978  50.4200014   0.9132923  82.4723468  50.0687407
  18.7929992  78.7189978  56.4040014  17.8759992  78.9899978  56.3690014
  18.9159992  78.1839978  55.6200014  18.6839672  78.6837885  56.2931862
  18.8299992  78.6419978  41.0660014  19.2419992  77.9209978  40.5910014
  19.5109992  79.3109978  41.1240014  18.9785536  78.6337766  41.0088024
   1.1109992  78.6469978  44.1930014   0.1859992  78.8549978  44.0640014
   1.5649992  79.1309978  43.5030014   1.0456298  78.7409299  44.0820451
  15.8809992  93.6309978  46.1390014  16.5339992  93.2829978  45.5310014
  16.3919992  94.1189978  46.7850014  16.0392777  93.6493815  46.1432047
   1.0739992  77.3849978  52.5370014   0.4089992  77.1389978  53.1800014
   0.6309992  78.0069978  51.9600014   0.9231168  77.4354214  52.5469848
   3.2659992  90.5599978  56.6820014   2.4449992  90.7349978  56.2210014
   3.0139992  90.4869978  57.6020014   3.1195594  90.5740717  56.7433611
   6.2199992  91.5339978  52.9400014   5.7959992  92.3439978  52.6580014
   7.1249992  91.6199978  52.6380014   6.2842138  91.6564160  52.8606415
  10.5319992  92.9329978  55.9000014  10.7159992  92.5999978  56.7780014
  11.3779992  93.2429978  55.5780014  10.6716484  92.9292979  55.9767617
  12.8769992  94.2189978  55.1440014  13.5539992  93.5859978  54.9040014
  13.1979992  94.6199978  55.9510014  13.0131323  94.1865691  55.2203158
  17.7939992  76.8089978  54.2230014  16.9809992  77.1339978  53.8360014
  18.0269992  76.0479978  53.6900014  17.7141347  76.7506880  54.0979841
   3.6219992  94.7909978  52.9880014   2.9019992  95.2309978  52.5370014
   3.2569992  94.5399978  53.8360014   3.4739643  94.8173369  53.0409129
   6.0889992  94.3909978  52.0180014   5.2249992  94.4629978  52.4220014
   6.0339992  94.9379978  51.2340014   5.9631942  94.4747849  51.9674000
  10.7999992  94.2789978  51.1930014  10.3429992  94.8079978  50.5390014
  10.9629992  94.8819978  51.9180014  10.7594960  94.4329280  51.2015274
  13.1279992  93.1569978  52.1380014  12.2229992  93.3219978  51.8720014
  13.5559992  94.0099978  52.0720014  13.0621537  93.2949134  52.0927095
  15.7319992  94.7269978  52.4330014  15.5499992  95.6429978  52.2220014
  15.9089992  94.3159978  51.5860014  15.7310030  94.7968273  52.2897166
   3.0369992  93.4139978  49.8980014   3.0189992  92.9879978  50.7550014
   3.8419992  93.0949978  49.4890014   3.1432875  93.3126435  49.9599515
   5.1779992  92.1239978  48.5530014   4.9589992  91.2069978  48.7230014
   6.0019992  92.2639978  49.0190014   5.2594702  92.0175511  48.6392527
   7.7149992  92.5939978  49.4020014   7.9279992  91.7059978  49.1150014
   7.7799992  92.5589978  50.3560014   7.7529149  92.4678326  49.4917369
  11.2239992  78.2579978  48.5460014  10.5499992  77.6279978  48.8020014
  11.7879992  77.7739978  47.9430014  11.2080384  78.1063708  48.4995020
  16.3669992  76.3649978  48.6590014  16.9699992  76.9129978  48.1570014
  15.4969992  76.6839978  48.4180014  16.3319157  76.4830373  48.5577910
  18.0939992  77.5039978  46.9920014  18.7049992  76.9899978  46.4650014
  18.4759992  78.3809978  47.0150014  18.2293305  77.5522050  46.9229418
   3.5509992  76.8919978  46.3680014   2.7739992  76.6569978  45.8610014
   4.0809992  76.0949978  46.3770014   3.5163451  76.7521268  46.2998627
   2.3869992  76.6899978  42.1720014   2.8259992  77.3009978  41.5800014
   1.7529992  77.2279978  42.6460014   2.3613859  76.8464064  42.1550305
   8.1299992  76.8179978  46.1810014   9.0039992  77.2069978  46.1520014
   7.9939992  76.6029978  47.1040014   8.2311953  76.8421643  46.3017617
  13.6869992  76.8479978  47.8310014  13.7629992  76.9439978  46.8810014
  13.4119992  75.9409978  47.9590014  13.6601871  76.7384146  47.7183944
  15.0399992  76.8739978  43.5230014  14.3369992  77.4889978  43.3130014
  14.5949992  76.0369978  43.6540014  14.8836550  76.8449668  43.5119837
   2.2879992  92.6379978  43.0690014   1.6029992  92.5999978  42.4020014
   2.2919992  93.5509978  43.3570014   2.1947621  92.7561924  43.0166126
   4.2479992  78.6059978  40.6140014   4.7389992  77.9759978  40.0870014
   4.8709992  78.9019978  41.2770014   4.3995304  78.5597376  40.6314940
   9.2739992  78.8989978  43.0710014   9.4519992  78.2519978  43.7540014
   9.2199992  79.7329978  43.5380014   9.2910678  78.9231604  43.2276301
  11.1519992  93.8469978  41.4670014  12.0179992  94.2139978  41.2890014
  10.9059992  93.4079978  40.6530014  11.2372097  93.8378525  41.3326019
  17.8609992  93.4099978  44.1460014  17.6669992  92.6619978  43.5810014
  17.8219992  94.1679978  43.5630014  17.8291645  93.4100786  43.9898148
   3.5079992  77.4059978  55.8860014   3.1419992  76.6399978  56.3280014
   4.4209992  77.4349978  56.1720014   3.5813172  77.3050324  55.9851890
   5.4809992  76.7559978  57.4210014   6.3799992  76.4819978  57.2370014
   5.0949992  76.0139978  57.8860014   5.5517307  76.6182196  57.4587098
   4.1059992  93.5579978  40.0940014   3.8379992  93.8439978  40.9680014
   4.8769992  93.0119978  40.2470014   4.1735926  93.5232779  40.2341205
  13.9029992  76.0889978  57.6040014  13.9789992  75.6629978  58.4570014
  14.7959992  76.1019978  57.2610014  14.0342303  76.0323493  57.6745497
  17.0789992  92.1619978  56.2960014  16.2969992  91.9749978  55.7760014
  17.0069992  93.0909978  56.5130014  16.9621924  92.2620637  56.2541602
  31.4849992  86.0479978  46.3270014  31.5739992  86.9919978  46.1950014
  30.8469992  85.7729978  45.6690014  31.4109062  86.1399812  46.2199641
  30.4179992  85.3029978  49.7460014  30.3799992  84.6569978  50.4510014
  30.0959992  84.8359978  48.9750014  30.3692679  85.1514276  49.7382921
  22.7859992  84.9169978  51.3390014  22.8279992  84.2919978  52.0620014
  23.4889992  85.5409978  51.5210014  22.8867345  84.9157873  51.4625273
  34.1239992  88.2419978  48.0470014  33.6829992  87.5219978  48.4980014
  34.1109992  88.9629978  48.6770014  34.0619215  88.2409291  48.1938105
  23.7099992  89.3669978  49.8740014  23.3399992  88.5649978  49.5040014
  24.6509992  89.1989978  49.9200014  23.7865984  89.2344638  49.8295603
  20.3199992  83.0269978  45.2660014  19.8719992  83.8729978  45.2480014
  19.7589992  82.4479978  44.7510014  20.1828546  83.0643993  45.1938891
  21.0299992  85.1889978  47.3920014  21.2439992  84.4189978  47.9200014
  21.7679992  85.2789978  46.7890014  21.1590200  85.0958587  47.3827035
  31.2359992  93.3459978  48.2590014  31.8549992  92.6699978  47.9860014
  31.0269992  93.1279978  49.1680014  31.2926056  93.2238869  48.3443967
  28.8069992  87.7349978  50.1520014  29.1109992  87.0489978  49.5570014
  29.5289992  87.8539978  50.7700014  28.9461240  87.6572314  50.1540959
  37.4699992  79.3369978  51.0120014  37.5199992  79.9469978  51.7480014
  37.8959992  79.7979978  50.2890014  37.5344108  79.4827709  51.0150112
  31.9479992  82.1289978  50.4790014  32.0909992  81.1829978  50.4990014
  31.8419992  82.3359978  49.5510014  31.9532403  82.0274797  50.3562239
  25.1029992  80.2309978  47.7520014  25.1459992  81.0909978  47.3330014
  24.6449992  79.6789978  47.1180014  25.0469871  80.2739245  47.6090761
  32.8249992  80.3619978  46.1530014  33.4719992  80.0329978  46.7770014
  33.3349992  80.8789978  45.5300014  32.9824351  80.3869067  46.1541037
  21.7229992  82.6279978  48.5140014  22.3769992  82.0779978  48.9460014
  21.7469992  82.3539978  47.5970014  21.8157199  82.5157167  48.4491668
  26.8799992  84.1779978  47.7290014  27.4959992  83.6509978  48.2380014
  26.2929992  83.5379978  47.3250014  26.8850154  84.0193954  47.7440945
  37.8619992  80.8149978  53.2480014  37.1729992  81.4729978  53.1530014
  37.8769992  80.6169978  54.1850014  37.7697756  80.8782603  53.3615812
  23.9129992  79.1489978  51.8260014  23.6939992  79.6789978  51.0590014
  23.2449992  79.3749978  52.4730014  23.7926975  79.2520967  51.8085140
  31.2819992  88.6489978  45.3700014  30.9869992  88.3259978  44.5180014
  30.9579992  89.5489978  45.4110014  31.1978460  88.7264464  45.2589714
  26.4819992  86.8239978  52.1130014  25.7419992  87.4229978  52.2170014
  27.1959992  87.3779978  51.7980014  26.4773500  86.9807829  52.0846371
  34.5889992  79.6529978  48.1330014  34.3739992  78.8869978  48.6660014
  35.2449992  80.1249978  48.6460014  34.6482673  79.6120728  48.2751990
  23.5069992  81.0409978  49.7780014  24.1209992  81.6739978  50.1510014
  24.0189992  80.5689978  49.1220014  23.6601962  81.0637249  49.7402935
  24.8899992  88.7889978  52.9000014  24.8839992  89.6679978  52.5220014
  24.0359992  88.7049978  53.3250014  24.7737925  88.8979535  52.9056887
  21.0109992  88.4599978  43.6820014  20.7389992  88.6889978  42.7940014
  21.0559992  89.2969978  44.1430014  20.9798097  88.6046163  43.6226683
  34.6359992  90.0809978  50.3950014  33.6939992  90.1399978  50.5570014
  34.9119992  90.9869978  50.2580014  34.5445865  90.2115288  50.3986192
  34.9359992  78.3679978  51.8120014  34.1999992  78.9779978  51.7750014
  35.6199992  78.7829978  51.2860014  34.9275367  78.5077551  51.7358174
  27.9399992  76.4539978  49.2780014  27.8219992  75.5059978  49.2240014
  27.0849992  76.7869978  49.5510014  27.8082805  76.3692202  49.3075079
  32.8879992  91.8619978  47.0200014  33.3129992  91.1549978  46.5350014
  33.2049992  92.6639978  46.6030014  32.9890266  91.8735190  46.8972479
  34.0479992  89.7629978  45.5290014  33.7899992  89.0729978  44.9170014
  34.1189992  89.3199978  46.3740014  34.0223050  89.6086814  45.5595621
  35.7339992  88.3299978  54.0060014  35.8729992  87.7379978  53.2670014
  35.9009992  89.2029978  53.6500014  35.7756193  88.3668896  53.8566211
  30.2059992  85.2919978  43.7790014  29.4949992  85.8269978  43.4270014
  30.8969992  85.3469978  43.1190014  30.2020751  85.3726777  43.6415858
  30.2599992  83.7489978  40.8170014  30.9609992  83.7719978  41.4690014
  30.5619992  83.1209978  40.1610014  30.3968202  83.6672212  40.8175609
  37.5749992  84.6699978  52.0720014  36.9229992  85.3639978  52.1610014
  38.0409992  84.8799978  51.2620014  37.5485937  84.7935019  51.9747533
  33.6119992  85.5009978  44.7300014  32.8799992  85.7299978  45.3040014
  34.0589992  84.7879978  45.1850014  33.5723963  85.4358729  44.8699945
  33.5089992  83.6759978  53.7980014  33.5889992  84.4389978  54.3700014
  32.9079992  83.9549978  53.1080014  33.4386547  83.8182457  53.7830047
  25.2569992  86.1319978  46.6130014  24.9269992  85.7609978  45.7950014
  25.8459992  85.4609978  46.9600014  25.2913970  85.9906063  46.5479404
  26.6239992  89.5599978  49.2940014  26.5289992  88.9809978  48.5380014
  27.3529992  89.1889978  49.7900014  26.7096011  89.4305561  49.2576028
  25.6239992  84.8999978  50.2460014  26.1889992  85.0219978  49.4840014
  25.9429992  85.5379978  50.8850014  25.7444166  85.0028791  50.2280348
  31.9329992  90.4039978  50.9800014  31.6929992  91.0659978  51.6280014
  31.7349992  89.5689978  51.4050014  31.8733826  90.3818115  51.1261566
  26.5039992  89.2999978  54.9640014  26.1929992  90.0819978  55.4190014
  25.8539992  89.1469978  54.2780014  26.3735538  89.3864087  54.9335898
  32.4829992  84.6639978  42.4160014  33.0619992  84.8139978  43.1620014
  32.8969992  85.1339978  41.6920014  32.6183358  84.7480954  42.4203953
  23.4239992  85.4979978  54.1920014  23.4939992  86.1489978  54.8910014
  22.5329992  85.6009978  53.8570014  23.3131690  85.6009249  54.2423043
  30.2089992  91.3999978  45.8510014  30.6829992  91.6959978  46.6280014
  29.6459992  92.1389978  45.6180014  30.1977890  91.5403036  45.9258101
  24.7429992  91.3709978  55.7270014  24.7509992  91.2349978  54.7800014
  23.8269992  91.2539978  55.9790014  24.6202528  91.3365463  55.6313243
  36.1819992  76.4139978  42.2290014  35.2819992  76.5529978  42.5240014
  36.4339992  77.2449978  41.8270014  36.0928683  76.5454055  42.2150232
  24.2479992  85.2009978  44.2020014  23.9559992  85.9689978  43.7110014
  23.5729992  84.5419978  44.0390014  24.1168497  85.2169745  44.1128260
  37.3709992  90.7799978  40.6050014  37.4439992  91.7189978  40.7750014
  38.2759992  90.4749978  40.5490014  37.5034170  90.8673282  40.6207063
  20.3409992  87.5639978  53.0170014  19.8389992  87.5359978  52.2020014
  20.3459992  86.6589978  53.3270014  20.2729832  87.4377486  52.9474121
  20.0909992  90.3449978  49.9010014  21.0369992  90.1999978  49.8820014
  19.9779992  91.1289978  50.4380014  20.2053578  90.4311697  49.9710317
  38.2889992  91.0109978  55.5840014  38.2389992  90.0549978  55.5460014
  37.4619992  91.2779978  55.9850014  38.1703831  90.9164680  55.6330121
  29.2669992  90.5849978  54.4600014  29.3549992  91.4109978  54.9350014
  28.4039992  90.2549978  54.7090014  29.1623357  90.6535468  54.5587653
  29.6819992  94.3569978  44.2660014  29.6059992  94.2359978  43.3190014
  29.7139992  95.3059978  44.3840014  29.6759380  94.4687677  44.1525181
  23.3349992  93.1459978  46.0470014  23.4869992  92.7979978  46.9250014
  22.4839992  92.7889978  45.7910014  23.2408344  93.0500879  46.1326868
  32.7829992  93.5109978  41.2680014  33.1579992  92.7669978  40.7970014
  32.7879992  93.2409978  42.1860014  32.8350098  93.3726392  41.3276629
  32.4519992  93.4369978  44.0170014  31.5169992  93.5369978  44.1960014
  32.7319992  92.7269978  44.5960014  32.3619471  93.3547933  44.1196695
  35.4409992  82.5039978  56.0640014  35.0329992  82.9839978  55.3430014
  35.4809992  81.5979978  55.7560014  35.3906221  82.4472449  55.9238267
  22.5899992  88.8879978  54.0600014  22.8059992  88.5259978  54.9200014
  21.7339992  88.5129978  53.8510014  22.5038810  88.7878837  54.1492680
  25.2079992  77.3579978  50.0560014  24.3469992  77.2709978  49.6480014
  25.1859992  78.2139978  50.4840014  25.0870491  77.4618003  50.0579582
  29.8709992  77.0799978  53.4310014  30.2909992  76.6649978  54.1840014
  28.9379992  76.9009978  53.5480014  29.8023736  76.9989910  53.5498968
  33.1979992  80.8349978  54.2840014  32.6839992  80.7099978  55.0820014
  33.0419992  81.7479978  54.0400014  33.1066967  80.9412123  54.3600937
  33.9599992  85.6959978  40.0450014  34.0019992  85.4739978  39.1150014
  34.8089992  86.0949978  40.2350014  34.0805253  85.7195498  39.9433822
  29.5329992  79.5719978  40.7160014  29.2789992  79.5909978  41.6380014
  29.2759992  78.7009978  40.4140014  29.4634508  79.4568280  40.8014803
  25.2989992  82.3229978  51.1510014  24.6579992  82.2829978  51.8600014
  25.3369992  83.2499978  50.9130014  25.2163010  82.4427668  51.2159946
  25.2959992  82.5439978  46.0630014  24.4039992  82.2039978  46.0040014
  25.7469992  82.1669978  45.3070014  25.2347642  82.4464910  45.9527726
  30.8319992  82.9599978  44.8800014  30.4229992  83.7749978  44.5880014
  31.5519992  82.8199978  44.2660014  30.8734439  83.0525372  44.7570115
  29.9339992  83.1359978  56.3680014  29.3709992  82.4309978  56.6890014
  30.7599992  83.0149978  56.8360014  29.9686674  83.0232165  56.4751751
  31.8369992  82.4059978  47.6940014  31.6409992  83.0119978  46.9790014
  32.0179992  81.5729978  47.2600014  31.8346584  82.3762513  47.5374212
  23.0489992  82.6439978  53.0180014  23.0109992  83.0439978  53.8870014
  22.5589992  81.8269978  53.1080014  22.9775330  82.5882674  53.1491289
  26.4149992  80.0179978  39.8170014  25.9839992  79.5729978  40.5460014
  25.6969992  80.3889978  39.3040014  26.2589176  80.0072051  39.8474930
  19.6579992  79.7599978  46.8690014  20.2879992  79.7309978  47.5880014
  20.1069992  79.3349978  46.1380014  19.8050835  79.6985660  46.8687659
  20.9319992  80.5059978  42.2930014  21.4059992  81.0969978  41.7080014
  20.2139992  81.0359978  42.6400014  20.8998640  80.6585511  42.2597969
  31.1009992  84.0439978  52.3650014  31.4239992  83.4129978  51.7220014
  30.6599992  83.5099978  53.0260014  31.0856379  83.8853468  52.3662582
  27.8779992  79.9719978  47.1490014  26.9669992  80.0289978  47.4380014
  28.3829992  79.9119978  47.9600014  27.8216873  79.9716826  47.2981207
  22.7059992  81.6009978  45.9760014  21.8169992  81.6999978  45.6360014
  23.0029992  80.7589978  45.6300014  22.6244177  81.5007687  45.8826940
  26.3589992  81.6009978  43.6330014  27.2909992  81.7299978  43.8110014
  26.1439992  82.2699978  42.9830014  26.4574472  81.7090806  43.5694891
  32.2829992  79.2069978  50.4140014  31.6059992  79.3379978  51.0770014
  31.7979992  79.0519978  49.6030014  32.1247405  79.2039947  50.3952170
  25.0329992  82.7949978  41.1990014  24.4909992  82.4159978  40.5080014
  25.8669992  82.9899978  40.7710014  25.0714390  82.7694079  41.0464392
  35.5709992  94.8779978  56.6900014  35.7699992  95.3019978  55.8560014
  36.2259992  95.2219978  57.2970014  35.6868522  94.9826301  56.6577852
  23.1689992  87.3519978  56.2980014  23.9009992  87.6069978  56.8600014
  22.3879992  87.5569978  56.8140014  23.1636526  87.4145450  56.4445176
  29.1979992  82.7589978  49.0360014  29.7619992  82.2129978  48.4890014
  29.0499992  82.2379978  49.8250014  29.2553037  82.6136787  49.0677229
  24.1999992  78.8959978  45.4550014  23.8829992  77.9929978  45.4190014
  24.9809992  78.8979978  44.9020014  24.2622431  78.7727797  45.3753102
  27.8239992  81.1479978  51.4500014  26.9889992  81.6019978  51.5610014
  28.3479992  81.4239978  52.2020014  27.7806072  81.2473948  51.5668136
  28.3689992  87.3609978  43.1350014  27.6239992  86.8529978  42.8130014
  28.2339992  87.4099978  44.0810014  28.2488963  87.2981731  43.2188826
  35.5189992  86.4939978  51.9220014  36.1599992  86.9499978  51.3780014
  34.6879992  86.6069978  51.4590014  35.4945287  86.5716921  51.7849887
  32.2659992  80.1749978  41.3340014  31.3279992  80.2859978  41.1830014
  32.5639992  81.0309978  41.6410014  32.1776318  80.3060158  41.3548145
  29.8879992  87.5449978  54.3720014  29.5419992  87.1629978  55.1790014
  29.6879992  88.4779978  54.4430014  29.8135987  87.6189002  54.4920461
  32.9849992  82.0419978  42.9950014  33.8769992  81.9039978  43.3140014
  33.0409992  82.8329978  42.4580014  33.1147325  82.1299918  42.9661217
  23.4929992  86.6559978  48.9050014  24.2379992  86.6529978  48.3030014
  23.5709992  85.8319978  49.3860014  23.6053365  86.5442384  48.8877430
  30.4939992  88.8189978  42.1600014  30.1989992  89.6459978  42.5420014
  29.7909992  88.1999978  42.3570014  30.3586379  88.8484171  42.2388654
  20.5009992  85.1159978  54.2200014  20.7239992  84.6979978  55.0510014
  19.8989992  84.5039978  53.7970014  20.4501513  84.9759606  54.2766740
  27.5179992  84.6329978  56.4330014  27.2219992  84.4679978  55.5370014
  28.4489992  84.4129978  56.4220014  27.6034401  84.5806879  56.3090206
  32.1379992  90.0069978  54.3220014  31.2379992  90.1899978  54.0550014
  32.1719992  90.2659978  55.2430014  32.0193748  90.0670554  54.4099164
  37.8699992  82.2509978  42.6900014  37.3149992  81.8549978  42.0170014
  37.9699992  83.1619978  42.4120014  37.8076816  82.3199505  42.5605033
  37.8329992  88.0519978  55.5270014  36.9819992  88.2899978  55.1590014
  38.4229992  88.0349978  54.7740014  37.7963812  88.0822524  55.3748453
  36.1649992  91.0369978  43.1550014  35.7919992  90.2119978  43.4640014
  36.4419992  90.8539978  42.2570014  36.1513463  90.8992569  43.0759525
  33.3249992  85.8449978  50.1760014  32.3969992  85.6139978  50.1490014
  33.7759992  85.0679978  49.8460014  33.2588165  85.7082774  50.1276790
  25.8679992  90.1739978  46.3090014  26.3959992  90.9469978  46.1090014
  24.9879992  90.3979978  46.0070014  25.8213435  90.3102700  46.2407310
  21.6229992  85.0359978  40.8960014  22.2389992  85.6629978  41.2760014
  20.7609992  85.3519978  41.1680014  21.5907678  85.1644412  40.9847209
  27.2959992  87.8369978  45.8850014  27.0549992  88.7619978  45.9270014
  26.5549992  87.3779978  46.2820014  27.1629206  87.9015915  45.9443769
  27.8099992  91.9859978  52.2000014  28.1729992  92.8399978  51.9670014
  28.3419992  91.6939978  52.9410014  27.9315141  92.0633895  52.2682097
  25.9789992  92.8579978  45.4310014  25.0289992  92.9639978  45.4820014
  26.3309992  93.6789978  45.7750014  25.8965472  92.9834923  45.4844852
  31.3539992  88.0849978  51.9010014  30.9289992  87.8569978  52.7270014
  31.9349992  87.3459978  51.7190014  31.3743395  87.9539545  51.9894414
  33.5569992  89.0139978  40.9750014  33.9109992  88.6339978  41.7790014
  32.6089992  88.9199978  41.0620014  33.4772298  88.9492452  41.0968687
  34.0129992  92.6369978  54.3700014  33.4109992  92.0809978  53.8750014
  34.2939992  93.3039978  53.7440014  33.9685757  92.6510744  54.2175675
  38.0609992  93.4929978  41.1760014  38.8049992  94.0789978  41.0360014
  37.3669992  94.0619978  41.5090014  38.0689809  93.6500818  41.2018590
  22.1349992  79.8699978  53.7780014  21.2429992  80.2079978  53.7100014
  22.0369992  79.0139978  54.1960014  21.9994475  79.8006543  53.8251704
  34.4229992  87.6859978  43.2020014  34.1459992  86.9579978  43.7580014
  35.3509992  87.8049978  43.4070014  34.5104499  87.6024213  43.3058044
  21.7869992  91.6739978  52.2130014  22.0039992  90.7419978  52.1820014
  22.0329992  91.9489978  53.0960014  21.8499809  91.5835686  52.3281691
  27.6479992  90.1259978  39.4220014  27.8869992  89.3769978  38.8750014
  27.3789992  89.7379978  40.2550014  27.6443233  89.9711853  39.4597809
  26.5849992  89.6959978  41.8780014  26.7319992  89.1759978  42.6680014
  26.5819992  90.6029978  42.1850014  26.6047102  89.7473953  42.0275925
  23.0379992  86.9479978  42.3890014  22.3519992  87.3009978  42.9560014
  23.5609992  87.7109978  42.1420014  23.0148402  87.0993901  42.4331801
  30.8699992  79.6109978  52.6680014  31.5689992  79.6849978  53.3180014
  30.4889992  78.7459978  52.8220014  30.9142097  79.5042389  52.7777997
  31.6539992  79.2629978  43.7650014  31.8739992  79.7339978  42.9610014
  32.2129992  79.6569978  44.4350014  31.7596731  79.3807287  43.7455033
  29.3229992  91.3929978  42.6280014  28.5059992  91.8899978  42.6800014
  29.8519992  91.8689978  41.9870014  29.2828125  91.5251989  42.5485306
  28.8539992  80.9909978  44.6000014  29.6659992  81.4949978  44.6460014
  28.6099992  80.8459978  45.5140014  28.9321467  81.0403749  44.7298575
  29.3899992  81.9769978  53.7840014  29.5089992  82.5509978  54.5410014
  30.0449992  81.2889978  53.8990014  29.4948684  81.9625194  53.9031674
  29.7379992  78.0719978  45.5380014  29.3909992  78.6889978  46.1820014
  30.3969992  78.5729978  45.0560014  29.7795090  78.2241575  45.5610681
  26.6609992  92.4369978  42.6090014  26.8219992  93.2369978  42.1090014
  26.4639992  92.7439978  43.4940014  26.6563906  92.5878678  42.6602333
  25.3959992  79.1349978  42.2250014  25.3119992  80.0229978  42.5720014
  26.2859992  78.8699978  42.4570014  25.5048163  79.2207179  42.3038596
  35.5939992  79.8839978  54.6190014  34.6779992  80.1459978  54.5320014
  35.9299992  79.8809978  53.7230014  35.5138499  79.9195163  54.4858766
  34.1969992  83.6339978  48.7150014  33.3989992  83.2189978  48.3870014
  34.6419992  82.9439978  49.2060014  34.1479684  83.4838628  48.7365227
  23.6539992  89.5619978  41.2850014  24.2459992  90.2619978  41.5620014
  24.1129992  89.1289978  40.5660014  23.7971652  89.5992675  41.2256533
  21.9699992  82.2269978  40.4010014  21.9249992  83.1659978  40.5800014
  21.0819992  81.9909978  40.1320014  21.8438166  82.3236687  40.3891524
  35.2829992  92.8899978  50.3370014  35.1269992  93.5689978  49.6800014
  36.2159992  92.9619978  50.5400014  35.3877387  92.9926390  50.2745342
  22.7779992  77.0079978  49.0750014  22.5489992  77.0669978  48.1470014
  22.3359992  76.2169978  49.3810014  22.6868801  76.9090540  48.9894729
  21.7089992  90.9489978  45.2350014  20.8759992  91.4209978  45.2620014
  22.2539992  91.4589978  44.6360014  21.6687857  91.0824791  45.1577142
  20.9969992  93.5609978  56.5650014  21.5369992  93.3449978  57.3250014
  20.5159992  92.7559978  56.3750014  21.0059219  93.4225156  56.6434282
  25.5939992  92.4809978  58.1850014  26.3619992  92.0219978  58.5260014
  25.5729992  92.2549978  57.2550014  25.6962135  92.3876668  58.1059491
  29.6859992  91.9889978  39.5610014  29.0419992  91.3579978  39.8820014
  30.4479992  91.4579978  39.3290014  29.7008058  91.8307902  39.5736038
  32.1709992  90.8609978  56.9140014  31.8199992  90.0039978  57.1580014
  32.8969992  91.0029978  57.5210014  32.2211895  90.7631351  57.0293770
  34.2909992  91.8059978  39.7940014  34.5739992  91.0109978  40.2470014
  35.0299992  92.0389978  39.2330014  34.4297096  91.7287049  39.7801104
  20.9039992  87.3719978  57.5190014  21.0479992  86.4699978  57.2330014
  20.1319992  87.6579978  57.0320014  20.8192733  87.2871798  57.4139532
  25.2449992  87.7149978  39.6520014  25.3099992  86.9209978  40.1820014
  25.8979992  87.5969978  38.9620014  25.3421605  87.5903430  39.6312997
  27.5589992  87.3409978  56.9520014  27.2309992  87.6119978  56.0950014
  27.7109992  86.3999978  56.8640014  27.5346412  87.2509046  56.8227822
  30.5979992  88.7619978  39.3880014  30.3289992  88.9429978  40.2880014
  30.3909992  87.8369978  39.2560014  30.5331191  88.6617119  39.4935524
  33.2939992  87.2569978  54.3350014  34.0389992  87.8459978  54.2160014
  32.5369992  87.8389978  54.3990014  33.2935470  87.4162128  54.3273799
  21.7369992  84.5719978  56.9390014  22.1449992  83.7149978  56.8180014
  21.4759992  84.5859978  57.8600014  21.7576016  84.4565119  57.0469192
  26.3949992  85.6879978  41.9580014  25.9349992  85.2039978  42.6430014
  26.6499992  85.0189978  41.3220014  26.3664856  85.5313669  41.9658397
  25.6839992  83.5809978  54.3140014  25.0649992  84.2549978  54.5940014
  26.0279992  83.9019978  53.4800014  25.6457123  83.7166887  54.2396388
  27.4659992  83.9309978  40.2200014  27.2849992  83.7759978  39.2930014
  28.4159992  84.0389978  40.2650014  27.5696566  83.9243669  40.0990929
  30.7029992  86.0519978  57.5910014  31.6569992  86.1359978  57.5640014
  30.5429992  85.3399978  58.2110014  30.8117182  85.9672842  57.6710733
  36.8559992  86.2849978  39.6660014  36.5819992  85.8609978  38.8530014
  36.8949992  87.2169978  39.4490014  36.8237716  86.3528827  39.5254286
  26.0229992  80.9359978  55.3960014  26.1729992  80.2069978  54.7940014
  26.0249992  81.7129978  54.8370014  26.0437967  80.9412708  55.2380541
  26.4359992  79.3049978  52.8890014  26.9709992  79.7569978  52.2370014
  25.5829992  79.1969978  52.4660014  26.3940374  79.3522665  52.7426710
  28.0169992  84.7449978  53.1280014  28.7679992  84.5889978  52.5550014
  27.6779992  85.5969978  52.8530014  28.0739587  84.8388138  53.0124078
  32.4329992  82.5599978  58.1570014  32.6249992  81.6289978  58.0450014
  33.2909992  82.9849978  58.1460014  32.5752182  82.4900070  58.1401862
  33.7499992  85.3489978  56.2340014  33.4679992  86.0579978  55.6560014
  34.6919992  85.2759978  56.0830014  33.8387921  85.4362193  56.1344225
  24.5019992  82.1339978  57.3070014  23.7339992  81.6009978  57.0970014
  25.1799992  81.8239978  56.7080014  24.4887235  82.0191754  57.1972413
  27.2409992  76.7619978  53.3200014  27.1429992  77.7079978  53.2150014
  26.4989992  76.3889978  52.8440014  27.1272534  76.8411773  53.2412600
  28.5049992  81.0829978  56.8840014  28.2699992  80.8639978  57.7850014
  27.7219992  80.8759978  56.3740014  28.3669095  81.0249892  56.9385353
  31.2209992  80.2109978  55.9590014  30.2729992  80.2429978  56.0910014
  31.5329992  79.5849978  56.6130014  31.1335293  80.1307923  56.0654148
  32.8549992  78.8449978  57.9640014  32.7579992  77.8929978  57.9590014
  32.5329992  79.1129978  58.8250014  32.7982468  78.7510884  58.0796210
  22.6819992  80.0539978  57.0120014  22.8939992  79.3479978  56.4020014
  22.5709992  79.6169978  57.8560014  22.6960269  79.8981921  57.0425873
  27.4629992  76.0559978  55.9910014  28.1749992  75.4159978  55.9770014
  27.3619992  76.3219978  55.0780014  27.5467387  76.0044330  55.8655563
  27.8169992  77.7379978  58.0450014  27.6849992  77.2629978  57.2250014
  27.2169992  78.4829978  57.9900014  27.7179070  77.7735789  57.9253251
  27.3629992  94.6209978  41.2210014  28.2959992  94.7789978  41.3650014
  27.0989992  95.2969978  40.5960014  27.4549911  94.7339373  41.1562722
  20.9309992  89.2579978  40.7040014  21.8449992  89.3369978  40.9770014
  20.9389992  88.5709978  40.0380014  21.0570655  89.1759205  40.6512917
  19.5799992  94.6509978  45.7810014  18.9329992  94.1889978  45.2490014
  19.9349992  93.9789978  46.3640014  19.5393741  94.4969774  45.7869175
  20.4499992  92.7309978  47.5860014  20.1159992  91.8509978  47.7580014
  20.6729992  93.0769978  48.4510014  20.4343721  92.6571938  47.7264168
  37.9989992  93.5409978  50.5670014  37.9769992  93.7259978  51.5060014
  38.6889992  94.1089978  50.2260014  38.0893439  93.6431887  50.6494791
  37.5619992  93.1079978  53.4880014  37.0749992  92.3729978  53.1170014
  38.1109992  92.7139978  54.1660014  37.5695247  92.9541057  53.5288461
  36.0129992  88.8979978  58.1270014  35.1469992  88.7929978  58.5210014
  36.3889992  89.6559978  58.5730014  35.9453401  88.9861708  58.2412620
  37.3139992  87.1539978  43.6410014  38.1639992  87.5749978  43.7680014
  37.3189992  86.4139978  44.2480014  37.4311143  87.1116094  43.7404750
  37.7079992  85.2079978  45.4640014  36.9819992  84.7279978  45.8620014
  38.2899992  85.4129978  46.1970014  37.6872730  85.1700184  45.6174149
  37.4669992  87.9929978  50.4120014  38.3009992  87.6149978  50.1310014
  37.5789992  88.9359978  50.2930014  37.5961917  88.0687943  50.3574861
  35.9539992  90.8709978  52.7190014  35.3059992  91.1959978  53.3440014
  35.4359992  90.4299978  52.0450014  35.7954196  90.8558651  52.7134152
  37.9769992  85.1089978  41.8550014  37.4549992  85.4649978  41.1370014
  37.9439992  85.7839978  42.5340014  37.9010129  85.2489598  41.8483355
  36.3259992  82.3479978  40.4060014  36.4219992  83.0149978  39.7260014
  36.1859992  81.5329978  39.9250014  36.3202040  82.3290671  40.2478378
  35.4949992  83.7289978  46.0270014  35.3449992  82.7839978  46.0070014
  35.1409992  84.0099978  46.8710014  35.4266351  83.6376644  46.1383220
  20.5299992  85.8069978  50.0380014  20.7149992  85.7249978  49.1020014
  21.3799992  85.6829978  50.4610014  20.6700928  85.7790463  49.9672893
  36.3509992  85.6989978  55.6660014  36.9339992  84.9639978  55.8580014
  36.9149992  86.4709978  55.7130014  36.5069781  85.7028145  55.6986164
  37.8479992  83.6019978  56.3510014  36.9849992  83.2229978  56.1850014
  38.4519992  82.8629978  56.2760014  37.8116085  83.4503223  56.3181695
  35.5729992  79.7559978  39.5240014  36.1839992  79.3849978  40.1610014
  34.7359992  79.3349978  39.7200014  35.5434947  79.6482756  39.6377252
  35.2059992  81.3109978  44.4900014  35.4849992  80.4039978  44.6140014
  35.9649992  81.7449978  44.1010014  35.3468619  81.2454502  44.4543795
  35.8169992  81.8929978  49.9260014  36.7499992  82.1049978  49.8910014
  35.5819992  81.9939978  50.8480014  35.9129517  81.9356833  50.0459130
  35.8469992  82.6299978  52.7020014  35.0039992  82.8979978  53.0680014
  36.2889992  83.4519978  52.4910014  35.7914138  82.7778273  52.7235518
  20.1279992  81.0769978  56.1780014  21.0469992  80.9549978  56.4150014
  19.6779992  80.3269978  56.5680014  20.1930087  80.9589608  56.2631410
  38.1299992  76.6099978  58.0550014  38.4789992  75.9559978  57.4500014
  38.2769992  77.4469978  57.6150014  38.1976824  76.6336024  57.9126304
  21.3489992  79.3899978  49.0700014  21.7939992  78.5979978  49.3720014
  21.8149992  80.1059978  49.5000014  21.4729718  79.3784534  49.1695265
  19.6529992  82.3889978  50.1390014  20.1449992  82.1679978  49.3480014
  20.0149992  83.2289978  50.4200014  19.7692923  82.4723468  50.0687407
  37.6489992  78.7189978  56.4040014  36.7319992  78.9899978  56.3690014
  37.7719992  78.1839978  55.6200014  37.5399672  78.6837885  56.2931862
  19.9669992  78.6469978  44.1930014  19.0419992  78.8549978  44.0640014
  20.4209992  79.1309978  43.5030014  19.9016298  78.7409299  44.0820451
  34.7369992  93.6309978  46.1390014  35.3899992  93.2829978  45.5310014
  35.2479992  94.1189978  46.7850014  34.8952777  93.6493815  46.1432047
  19.9299992  77.3849978  52.5370014  19.2649992  77.1389978  53.1800014
  19.4869992  78.0069978  51.9600014  19.7791168  77.4354214  52.5469848
  22.1219992  90.5599978  56.6820014  21.3009992  90.7349978  56.2210014
  21.8699992  90.4869978  57.6020014  21.9755594  90.5740717  56.7433611
  25.0759992  91.5339978  52.9400014  24.6519992  92.3439978  52.6580014
  25.9809992  91.6199978  52.6380014  25.1402138  91.6564160  52.8606415
  29.3879992  92.9329978  55.9000014  29.5719992  92.5999978  56.7780014
  30.2339992  93.2429978  55.5780014  29.5276484  92.9292979  55.9767617
  31.7329992  94.2189978  55.1440014  32.4099992  93.5859978  54.9040014
  32.0539992  94.6199978  55.9510014  31.8691323  94.1865691  55.2203158
  36.6499992  76.8089978  54.2230014  35.8369992  77.1339978  53.8360014
  36.8829992  76.0479978  53.6900014  36.5701347  76.7506880  54.0979841
  22.4779992  94.7909978  52.9880014  21.7579992  95.2309978  52.5370014
  22.1129992  94.5399978  53.8360014  22.3299643  94.8173369  53.0409129
  24.9449992  94.3909978  52.0180014  24.0809992  94.4629978  52.4220014
  24.8899992  94.9379978  51.2340014  24.8191942  94.4747849  51.9674000
  29.6559992  94.2789978  51.1930014  29.1989992  94.8079978  50.5390014
  29.8189992  94.8819978  51.9180014  29.6154960  94.4329280  51.2015274
  31.9839992  93.1569978  52.1380014  31.0789992  93.3219978  51.8720014
  32.4119992  94.0099978  52.0720014  31.9181537  93.2949134  52.0927095
  34.5879992  94.7269978  52.4330014  34.4059992  95.6429978  52.2220014
  34.7649992  94.3159978  51.5860014  34.5870030  94.7968273  52.2897166
  21.8929992  93.4139978  49.8980014  21.8749992  92.9879978  50.7550014
  22.6979992  93.0949978  49.4890014  21.9992875  93.3126435  49.9599515
  24.0339992  92.1239978  48.5530014  23.8149992  91.2069978  48.7230014
  24.8579992  92.2639978  49.0190014  24.1154702  92.0175511  48.6392527
  26.5709992  92.5939978  49.4020014  26.7839992  91.7059978  49.1150014
  26.6359992  92.5589978  50.3560014  26.6089149  92.4678326  49.4917369
  30.0799992  78.2579978  48.5460014  29.4059992  77.6279978  48.8020014
  30.6439992  77.7739978  47.9430014  30.0640384  78.1063708  48.4995020
  35.2229992  76.3649978  48.6590014  35.8259992  76.9129978  48.1570014
  34.3529992  76.6839978  48.4180014  35.1879157  76.4830373  48.5577910
  36.9499992  77.5039978  46.9920014  37.5609992  76.9899978  46.4650014
  37.3319992  78.3809978  47.0150014  37.0853305  77.5522050  46.9229418
  22.4069992  76.8919978  46.3680014  21.6299992  76.6569978  45.8610014
  22.9369992  76.0949978  46.3770014  22.3723451  76.7521268  46.2998627
  21.2429992  76.6899978  42.1720014  21.6819992  77.3009978  41.5800014
  20.6089992  77.2279978  42.6460014  21.2173859  76.8464064  42.1550305
  26.9859992  76.8179978  46.1810014  27.8599992  77.2069978  46.1520014
  26.8499992  76.6029978  47.1040014  27.0871953  76.8421643  46.3017617
  32.5429992  76.8479978  47.8310014  32.6189992  76.9439978  46.8810014
  32.2679992  75.9409978  47.9590014  32.5161871  76.7384146  47.7183944
  33.8959992  76.8739978  43.5230014  33.1929992  77.4889978  43.3130014
  33.4509992  76.0369978  43.6540014  33.7396550  76.8449668  43.5119837
  21.1439992  92.6379978  43.0690014  20.4589992  92.5999978  42.4020014
  21.1479992  93.5509978  43.3570014  21.0507621  92.7561924  43.0166126
  23.1039992  78.6059978  40.6140014  23.5949992  77.9759978  40.0870014
  23.7269992  78.9019978  41.2770014  23.2555304  78.5597376  40.6314940
  28.1299992  78.8989978  43.0710014  28.3079992  78.2519978  43.7540014
  28.0759992  79.7329978  43.5380014  28.1470678  78.9231604  43.2276301
  30.0079992  93.8469978  41.4670014  30.8739992  94.2139978  41.2890014
  29.7619992  93.4079978  40.6530014  30.0932097  93.8378525  41.3326019
  36.7169992  93.4099978  44.1460014  36.5229992  92.6619978  43.5810014
  36.6779992  94.1679978  43.5630014  36.6851645  93.4100786  43.9898148
  22.3639992  77.4059978  55.8860014  21.9979992  76.6399978  56.3280014
  23.2769992  77.4349978  56.1720014  22.4373172  77.3050324  55.9851890
  24.3369992  76.7559978  57.4210014  25.2359992  76.4819978  57.2370014
  23.9509992  76.0139978  57.8860014  24.4077307  76.6182196  57.4587098
  22.9619992  93.5579978  40.0940014  22.6939992  93.8439978  40.9680014
  23.7329992  93.0119978  40.2470014  23.0295926  93.5232779  40.2341205
  32.7589992  76.0889978  57.6040014  32.8349992  75.6629978  58.4570014
  33.6519992  76.1019978  57.2610014  32.8902303  76.0323493  57.6745497
  35.9349992  92.1619978  56.2960014  35.1529992  91.9749978  55.7760014
  35.8629992  93.0909978  56.5130014  35.8181924  92.2620637  56.2541602
  41.6419992  84.9169978  51.3390014  41.6839992  84.2919978  52.0620014
  42.3449992  85.5409978  51.5210014  41.7427345  84.9157873  51.4625273
  42.5659992  89.3669978  49.8740014  42.1959992  88.5649978  49.5040014
  43.5069992  89.1989978  49.9200014  42.6425984  89.2344638  49.8295603
  39.1759992  83.0269978  45.2660014  38.7279992  83.8729978  45.2480014
  38.6149992  82.4479978  44.7510014  39.0388546  83.0643993  45.1938891
  39.8859992  85.1889978  47.3920014  40.0999992  84.4189978  47.9200014
  40.6239992  85.2789978  46.7890014  40.0150200  85.0958587  47.3827035
  50.0919992  93.3459978  48.2590014  50.7109992  92.6699978  47.9860014
  49.8829992  93.1279978  49.1680014  50.1486056  93.2238869  48.3443967
  47.6629992  87.7349978  50.1520014  47.9669992  87.0489978  49.5570014
  48.3849992  87.8539978  50.7700014  47.8021240  87.6572314  50.1540959
  43.9589992  80.2309978  47.7520014  44.0019992  81.0909978  47.3330014
  43.5009992  79.6789978  47.1180014  43.9029871  80.2739245  47.6090761
  40.5789992  82.6279978  48.5140014  41.2329992  82.0779978  48.9460014
  40.6029992  82.3539978  47.5970014  40.6717199  82.5157167  48.4491668
  45.7359992  84.1779978  47.7290014  46.3519992  83.6509978  48.2380014
  45.1489992  83.5379978  47.3250014  45.7410154  84.0193954  47.7440945
  42.7689992  79.1489978  51.8260014  42.5499992  79.6789978  51.0590014
  42.1009992  79.3749978  52.4730014  42.6486975  79.2520967  51.8085140
  45.3379992  86.8239978  52.1130014  44.5979992  87.4229978  52.2170014
  46.0519992  87.3779978  51.7980014  45.3333500  86.9807829  52.0846371
  42.3629992  81.0409978  49.7780014  42.9769992  81.6739978  50.1510014
  42.8749992  80.5689978  49.1220014  42.5161962  81.0637249  49.7402935
  43.7459992  88.7889978  52.9000014  43.7399992  89.6679978  52.5220014
  42.8919992  88.7049978  53.3250014  43.6297925  88.8979535  52.9056887
  39.8669992  88.4599978  43.6820014  39.5949992  88.6889978  42.7940014
  39.9119992  89.2969978  44.1430014  39.8358097  88.6046163  43.6226683
  53.4919992  90.0809978  50.3950014  52.5499992  90.1399978  50.5570014
  53.7679992  90.9869978  50.2580014  53.4005865  90.2115288  50.3986192
  51.7439992  91.8619978  47.0200014  52.1689992  91.1549978  46.5350014
  52.0609992  92.6639978  46.6030014  51.8450266  91.8735190  46.8972479
  52.9039992  89.7629978  45.5290014  52.6459992  89.0729978  44.9170014
  52.9749992  89.3199978  46.3740014  52.8783050  89.6086814  45.5595621
  54.5899992  88.3299978  54.0060014  54.7289992  87.7379978  53.2670014
  54.7569992  89.2029978  53.6500014  54.6316193  88.3668896  53.8566211
  52.3649992  83.6759978  53.7980014  52.4449992  84.4389978  54.3700014
  51.7639992  83.9549978  53.1080014  52.2946547  83.8182457  53.7830047
  44.1129992  86.1319978  46.6130014  43.7829992  85.7609978  45.7950014
  44.7019992  85.4609978  46.9600014  44.1473970  85.9906063  46.5479404
  45.4799992  89.5599978  49.2940014  45.3849992  88.9809978  48.5380014
  46.2089992  89.1889978  49.7900014  45.5656011  89.4305561  49.2576028
  44.4799992  84.8999978  50.2460014  45.0449992  85.0219978  49.4840014
  44.7989992  85.5379978  50.8850014  44.6004166  85.0028791  50.2280348
  50.7889992  90.4039978  50.9800014  50.5489992  91.0659978  51.6280014
  50.5909992  89.5689978  51.4050014  50.7293826  90.3818115  51.1261566
  45.3599992  89.2999978  54.9640014  45.0489992  90.0819978  55.4190014
  44.7099992  89.1469978  54.2780014  45.2295538  89.3864087  54.9335898
  42.2799992  85.4979978  54.1920014  42.3499992  86.1489978  54.8910014
  41.3889992  85.6009978  53.8570014  42.1691690  85.6009249  54.2423043
  49.0649992  91.3999978  45.8510014  49.5389992  91.6959978  46.6280014
  48.5019992  92.1389978  45.6180014  49.0537890  91.5403036  45.9258101
  43.5989992  91.3709978  55.7270014  43.6069992  91.2349978  54.7800014
  42.6829992  91.2539978  55.9790014  43.4762528  91.3365463  55.6313243
  43.1039992  85.2009978  44.2020014  42.8119992  85.9689978  43.7110014
  42.4289992  84.5419978  44.0390014  42.9728497  85.2169745  44.1128260
  39.1969992  87.5639978  53.0170014  38.6949992  87.5359978  52.2020014
  39.2019992  86.6589978  53.3270014  39.1289832  87.4377486  52.9474121
  38.9469992  90.3449978  49.9010014  39.8929992  90.1999978  49.8820014
  38.8339992  91.1289978  50.4380014  39.0613578  90.4311697  49.9710317
  57.1449992  91.0109978  55.5840014  57.0949992  90.0549978  55.5460014
  56.3179992  91.2779978  55.9850014  57.0263831  90.9164680  55.6330121
  48.1229992  90.5849978  54.4600014  48.2109992  91.4109978  54.9350014
  47.2599992  90.2549978  54.7090014  48.0183357  90.6535468  54.5587653
  48.5379992  94.3569978  44.2660014  48.4619992  94.2359978  43.3190014
  48.5699992  95.3059978  44.3840014  48.5319380  94.4687677  44.1525181
  42.1909992  93.1459978  46.0470014  42.3429992  92.7979978  46.9250014
  41.3399992  92.7889978  45.7910014  42.0968344  93.0500879  46.1326868
  51.6389992  93.5109978  41.2680014  52.0139992  92.7669978  40.7970014
  51.6439992  93.2409978  42.1860014  51.6910098  93.3726392  41.3276629
  51.3079992  93.4369978  44.0170014  50.3729992  93.5369978  44.1960014
  51.5879992  92.7269978  44.5960014  51.2179471  93.3547933  44.1196695
  54.2969992  82.5039978  56.0640014  53.8889992  82.9839978  55.3430014
  54.3369992  81.5979978  55.7560014  54.2466221  82.4472449  55.9238267
  41.4459992  88.8879978  54.0600014  41.6619992  88.5259978  54.9200014
  40.5899992  88.5129978  53.8510014  41.3598810  88.7878837  54.1492680
  44.0639992  77.3579978  50.0560014  43.2029992  77.2709978  49.6480014
  44.0419992  78.2139978  50.4840014  43.9430491  77.4618003  50.0579582
  48.7269992  77.0799978  53.4310014  49.1469992  76.6649978  54.1840014
  47.7939992  76.9009978  53.5480014  48.6583736  76.9989910  53.5498968
  52.0539992  80.8349978  54.2840014  51.5399992  80.7099978  55.0820014
  51.8979992  81.7479978  54.0400014  51.9626967  80.9412123  54.3600937
  44.1549992  82.3229978  51.1510014  43.5139992  82.2829978  51.8600014
  44.1929992  83.2499978  50.9130014  44.0723010  82.4427668  51.2159946
  44.1519992  82.5439978  46.0630014  43.2599992  82.2039978  46.0040014
  44.6029992  82.1669978  45.3070014  44.0907642  82.4464910  45.9527726
  48.7899992  83.1359978  56.3680014  48.2269992  82.4309978  56.6890014
  49.6159992  83.0149978  56.8360014  48.8246674  83.0232165  56.4751751
  41.9049992  82.6439978  53.0180014  41.8669992  83.0439978  53.8870014
  41.4149992  81.8269978  53.1080014  41.8335330  82.5882674  53.1491289
  38.5139992  79.7599978  46.8690014  39.1439992  79.7309978  47.5880014
  38.9629992  79.3349978  46.1380014  38.6610835  79.6985660  46.8687659
  41.5619992  81.6009978  45.9760014  40.6729992  81.6999978  45.6360014
  41.8589992  80.7589978  45.6300014  41.4804177  81.5007687  45.8826940
  51.1389992  79.2069978  50.4140014  50.4619992  79.3379978  51.0770014
  50.6539992  79.0519978  49.6030014  50.9807405  79.2039947  50.3952170
  43.8889992  82.7949978  41.1990014  43.3469992  82.4159978  40.5080014
  44.7229992  82.9899978  40.7710014  43.9274390  82.7694079  41.0464392
  54.4269992  94.8779978  56.6900014  54.6259992  95.3019978  55.8560014
  55.0819992  95.2219978  57.2970014  54.5428522  94.9826301  56.6577852
  42.0249992  87.3519978  56.2980014  42.7569992  87.6069978  56.8600014
  41.2439992  87.5569978  56.8140014  42.0196526  87.4145450  56.4445176
  46.6799992  81.1479978  51.4500014  45.8449992  81.6019978  51.5610014
  47.2039992  81.4239978  52.2020014  46.6366072  81.2473948  51.5668136
  48.7439992  87.5449978  54.3720014  48.3979992  87.1629978  55.1790014
  48.5439992  88.4779978  54.4430014  48.6695987  87.6189002  54.4920461
  42.3489992  86.6559978  48.9050014  43.0939992  86.6529978  48.3030014
  42.4269992  85.8319978  49.3860014  42.4613365  86.5442384  48.8877430
  39.3569992  85.1159978  54.2200014  39.5799992  84.6979978  55.0510014
  38.7549992  84.5039978  53.7970014  39.3061513  84.9759606  54.2766740
  46.3739992  84.6329978  56.4330014  46.0779992  84.4679978  55.5370014
  47.3049992  84.4129978  56.4220014  46.4594401  84.5806879  56.3090206
  50.9939992  90.0069978  54.3220014  50.0939992  90.1899978  54.0550014
  51.0279992  90.2659978  55.2430014  50.8753748  90.0670554  54.4099164
  56.6889992  88.0519978  55.5270014  55.8379992  88.2899978  55.1590014
  57.2789992  88.0349978  54.7740014  56.6523812  88.0822524  55.3748453
  44.7239992  90.1739978  46.3090014  45.2519992  90.9469978  46.1090014
  43.8439992  90.3979978  46.0070014  44.6773435  90.3102700  46.2407310
  40.4789992  85.0359978  40.8960014  41.0949992  85.6629978  41.2760014
  39.6169992  85.3519978  41.1680014  40.4467678  85.1644412  40.9847209
  46.6659992  91.9859978  52.2000014  47.0289992  92.8399978  51.9670014
  47.1979992  91.6939978  52.9410014  46.7875141  92.0633895  52.2682097
  44.8349992  92.8579978  45.4310014  43.8849992  92.9639978  45.4820014
  45.1869992  93.6789978  45.7750014  44.7525472  92.9834923  45.4844852
  50.2099992  88.0849978  51.9010014  49.7849992  87.8569978  52.7270014
  50.7909992  87.3459978  51.7190014  50.2303395  87.9539545  51.9894414
  52.8689992  92.6369978  54.3700014  52.2669992  92.0809978  53.8750014
  53.1499992  93.3039978  53.7440014  52.8245757  92.6510744  54.2175675
  40.9909992  79.8699978  53.7780014  40.0989992  80.2079978  53.7100014
  40.8929992  79.0139978  54.1960014  40.8554475  79.8006543  53.8251704
  40.6429992  91.6739978  52.2130014  40.8599992  90.7419978  52.1820014
  40.8889992  91.9489978  53.0960014  40.7059809  91.5835686  52.3281691
  46.5039992  90.1259978  39.4220014  46.7429992  89.3769978  38.8750014
  46.2349992  89.7379978  40.2550014  46.5003233  89.9711853  39.4597809
  45.4409992  89.6959978  41.8780014  45.5879992  89.1759978  42.6680014
  45.4379992  90.6029978  42.1850014  45.4607102  89.7473953  42.0275925
  41.8939992  86.9479978  42.3890014  41.2079992  87.3009978  42.9560014
  42.4169992  87.7109978  42.1420014  41.8708402  87.0993901  42.4331801
  49.7259992  79.6109978  52.6680014  50.4249992  79.6849978  53.3180014
  49.3449992  78.7459978  52.8220014  49.7702097  79.5042389  52.7777997
  48.1789992  91.3929978  42.6280014  47.3619992  91.8899978  42.6800014
  48.7079992  91.8689978  41.9870014  48.1388125  91.5251989  42.5485306
  48.2459992  81.9769978  53.7840014  48.3649992  82.5509978  54.5410014
  48.9009992  81.2889978  53.8990014  48.3508684  81.9625194  53.9031674
  45.5169992  92.4369978  42.6090014  45.6779992  93.2369978  42.1090014
  45.3199992  92.7439978  43.4940014  45.5123906  92.5878678  42.6602333
  42.5099992  89.5619978  41.2850014  43.1019992  90.2619978  41.5620014
  42.9689992  89.1289978  40.5660014  42.6531652  89.5992675  41.2256533
  54.1389992  92.8899978  50.3370014  53.9829992  93.5689978  49.6800014
  55.0719992  92.9619978  50.5400014  54.2437387  92.9926390  50.2745342
  41.6339992  77.0079978  49.0750014  41.4049992  77.0669978  48.1470014
  41.1919992  76.2169978  49.3810014  41.5428801  76.9090540  48.9894729
  40.5649992  90.9489978  45.2350014  39.7319992  91.4209978  45.2620014
  41.1099992  91.4589978  44.6360014  40.5247857  91.0824791  45.1577142
  39.8529992  93.5609978  56.5650014  40.3929992  93.3449978  57.3250014
  39.3719992  92.7559978  56.3750014  39.8619219  93.4225156  56.6434282
  44.4499992  92.4809978  58.1850014  45.2179992  92.0219978  58.5260014
  44.4289992  92.2549978  57.2550014  44.5522135  92.3876668  58.1059491
  51.0269992  90.8609978  56.9140014  50.6759992  90.0039978  57.1580014
  51.7529992  91.0029978  57.5210014  51.0771895  90.7631351  57.0293770
  53.1469992  91.8059978  39.7940014  53.4299992  91.0109978  40.2470014
  53.8859992  92.0389978  39.2330014  53.2857096  91.7287049  39.7801104
  39.7599992  87.3719978  57.5190014  39.9039992  86.4699978  57.2330014
  38.9879992  87.6579978  57.0320014  39.6752733  87.2871798  57.4139532
  44.1009992  87.7149978  39.6520014  44.1659992  86.9209978  40.1820014
  44.7539992  87.5969978  38.9620014  44.1981605  87.5903430  39.6312997
  46.4149992  87.3409978  56.9520014  46.0869992  87.6119978  56.0950014
  46.5669992  86.3999978  56.8640014  46.3906412  87.2509046  56.8227822
  52.1499992  87.2569978  54.3350014  52.8949992  87.8459978  54.2160014
  51.3929992  87.8389978  54.3990014  52.1495470  87.4162128  54.3273799
  40.5929992  84.5719978  56.9390014  41.0009992  83.7149978  56.8180014
  40.3319992  84.5859978  57.8600014  40.6136016  84.4565119  57.0469192
  44.5399992  83.5809978  54.3140014  43.9209992  84.2549978  54.5940014
  44.8839992  83.9019978  53.4800014  44.5017123  83.7166887  54.2396388
  49.5589992  86.0519978  57.5910014  50.5129992  86.1359978  57.5640014
  49.3989992  85.3399978  58.2110014  49.6677182  85.9672842  57.6710733
  44.8789992  80.9359978  55.3960014  45.0289992  80.2069978  54.7940014
  44.8809992  81.7129978  54.8370014  44.8997967  80.9412708  55.2380541
  45.2919992  79.3049978  52.8890014  45.8269992  79.7569978  52.2370014
  44.4389992  79.1969978  52.4660014  45.2500374  79.3522665  52.7426710
  46.8729992  84.7449978  53.1280014  47.6239992  84.5889978  52.5550014
  46.5339992  85.5969978  52.8530014  46.9299587  84.8388138  53.0124078
  51.2889992  82.5599978  58.1570014  51.4809992  81.6289978  58.0450014
  52.1469992  82.9849978  58.1460014  51.4312182  82.4900070  58.1401862
  52.6059992  85.3489978  56.2340014  52.3239992  86.0579978  55.6560014
  53.5479992  85.2759978  56.0830014  52.6947921  85.4362193  56.1344225
  43.3579992  82.1339978  57.3070014  42.5899992  81.6009978  57.0970014
  44.0359992  81.8239978  56.7080014  43.3447235  82.0191754  57.1972413
  46.0969992  76.7619978  53.3200014  45.9989992  77.7079978  53.2150014
  45.3549992  76.3889978  52.8440014  45.9832534  76.8411773  53.2412600
  47.3609992  81.0829978  56.8840014  47.1259992  80.8639978  57.7850014
  46.5779992  80.8759978  56.3740014  47.2229095  81.0249892  56.9385353
  50.0769992  80.2109978  55.9590014  49.1289992  80.2429978  56.0910014
  50.3889992  79.5849978  56.6130014  49.9895293  80.1307923  56.0654148
  51.7109992  78.8449978  57.9640014  51.6139992  77.8929978  57.9590014
  51.3889992  79.1129978  58.8250014  51.6542468  78.7510884  58.0796210
  41.5379992  80.0539978  57.0120014  41.7499992  79.3479978  56.4020014
  41.4269992  79.6169978  57.8560014  41.5520269  79.8981921  57.0425873
  46.3189992  76.0559978  55.9910014  47.0309992  75.4159978  55.9770014
  46.2179992  76.3219978  55.0780014  46.4027387  76.0044330  55.8655563
  46.6729992  77.7379978  58.0450014  46.5409992  77.2629978  57.2250014
  46.0729992  78.4829978  57.9900014  46.5739070  77.7735789  57.9253251
  46.2189992  94.6209978  41.2210014  47.1519992  94.7789978  41.3650014
  45.9549992  95.2969978  40.5960014  46.3109911  94.7339373  41.1562722
  39.7869992  89.2579978  40.7040014  40.7009992  89.3369978  40.9770014
  39.7949992  88.5709978  40.0380014  39.9130655  89.1759205  40.6512917
  38.4359992  94.6509978  45.7810014  37.7889992  94.1889978  45.2490014
  38.7909992  93.9789978  46.3640014  38.3953741  94.4969774  45.7869175
  39.3059992  92.7309978  47.5860014  38.9719992  91.8509978  47.7580014
  39.5289992  93.0769978  48.4510014  39.2903721  92.6571938  47.7264168
  56.8549992  93.5409978  50.5670014  56.8329992  93.7259978  51.5060014
  57.5449992  94.1089978  50.2260014  56.9453439  93.6431887  50.6494791
  56.4179992  93.1079978  53.4880014  55.9309992  92.3729978  53.1170014
  56.9669992  92.7139978  54.1660014  56.4255247  92.9541057  53.5288461
  54.8689992  88.8979978  58.1270014  54.0029992  88.7929978  58.5210014
  55.2449992  89.6559978  58.5730014  54.8013401  88.9861708  58.2412620
  54.8099992  90.8709978  52.7190014  54.1619992  91.1959978  53.3440014
  54.2919992  90.4299978  52.0450014  54.6514196  90.8558651  52.7134152
  39.3859992  85.8069978  50.0380014  39.5709992  85.7249978  49.1020014
  40.2359992  85.6829978  50.4610014  39.5260928  85.7790463  49.9672893
  55.2069992  85.6989978  55.6660014  55.7899992  84.9639978  55.8580014
  55.7709992  86.4709978  55.7130014  55.3629781  85.7028145  55.6986164
  56.7039992  83.6019978  56.3510014  55.8409992  83.2229978  56.1850014
  57.3079992  82.8629978  56.2760014  56.6676085  83.4503223  56.3181695
  38.9839992  81.0769978  56.1780014  39.9029992  80.9549978  56.4150014
  38.5339992  80.3269978  56.5680014  39.0490087  80.9589608  56.2631410
  56.9859992  76.6099978  58.0550014  57.3349992  75.9559978  57.4500014
  57.1329992  77.4469978  57.6150014  57.0536824  76.6336024  57.9126304
  40.2049992  79.3899978  49.0700014  40.6499992  78.5979978  49.3720014
  40.6709992  80.1059978  49.5000014  40.3289718  79.3784534  49.1695265
  38.5089992  82.3889978  50.1390014  39.0009992  82.1679978  49.3480014
  38.8709992  83.2289978  50.4200014  38.6252923  82.4723468  50.0687407
  56.5049992  78.7189978  56.4040014  55.5879992  78.9899978  56.3690014
  56.6279992  78.1839978  55.6200014  56.3959672  78.6837885  56.2931862
  53.5929992  93.6309978  46.1390014  54.2459992  93.2829978  45.5310014
  54.1039992  94.1189978  46.7850014  53.7512777  93.6493815  46.1432047
  38.7859992  77.3849978  52.5370014  38.1209992  77.1389978  53.1800014
  38.3429992  78.0069978  51.9600014  38.6351168  77.4354214  52.5469848
  40.9779992  90.5599978  56.6820014  40.1569992  90.7349978  56.2210014
  40.7259992  90.4869978  57.6020014  40.8315594  90.5740717  56.7433611
  43.9319992  91.5339978  52.9400014  43.5079992  92.3439978  52.6580014
  44.8369992  91.6199978  52.6380014  43.9962138  91.6564160  52.8606415
  48.2439992  92.9329978  55.9000014  48.4279992  92.5999978  56.7780014
  49.0899992  93.2429978  55.5780014  48.3836484  92.9292979  55.9767617
  50.5889992  94.2189978  55.1440014  51.2659992  93.5859978  54.9040014
  50.9099992  94.6199978  55.9510014  50.7251323  94.1865691  55.2203158
  41.3339992  94.7909978  52.9880014  40.6139992  95.2309978  52.5370014
  40.9689992  94.5399978  53.8360014  41.1859643  94.8173369  53.0409129
  43.8009992  94.3909978  52.0180014  42.9369992  94.4629978  52.4220014
  43.7459992  94.9379978  51.2340014  43.6751942  94.4747849  51.9674000
  48.5119992  94.2789978  51.1930014  48.0549992  94.8079978  50.5390014
  48.6749992  94.8819978  51.9180014  48.4714960  94.4329280  51.2015274
  50.8399992  93.1569978  52.1380014  49.9349992  93.3219978  51.8720014
  51.2679992  94.0099978  52.0720014  50.7741537  93.2949134  52.0927095
  53.4439992  94.7269978  52.4330014  53.2619992  95.6429978  52.2220014
  53.6209992  94.3159978  51.5860014  53.4430030  94.7968273  52.2897166
  40.7489992  93.4139978  49.8980014  40.7309992  92.9879978  50.7550014
  41.5539992  93.0949978  49.4890014  40.8552875  93.3126435  49.9599515
  42.8899992  92.1239978  48.5530014  42.6709992  91.2069978  48.7230014
  43.7139992  92.2639978  49.0190014  42.9714702  92.0175511  48.6392527
  45.4269992  92.5939978  49.4020014  45.6399992  91.7059978  49.1150014
  45.4919992  92.5589978  50.3560014  45.4649149  92.4678326  49.4917369
  39.9999992  92.6379978  43.0690014  39.3149992  92.5999978  42.4020014
  40.0039992  93.5509978  43.3570014  39.9067621  92.7561924  43.0166126
  48.8639992  93.8469978  41.4670014  49.7299992  94.2139978  41.2890014
  48.6179992  93.4079978  40.6530014  48.9492097  93.8378525  41.3326019
  41.2199992  77.4059978  55.8860014  40.8539992  76.6399978  56.3280014
  42.1329992  77.4349978  56.1720014  41.2933172  77.3050324  55.9851890
  43.1929992  76.7559978  57.4210014  44.0919992  76.4819978  57.2370014
  42.8069992  76.0139978  57.8860014  43.2637307  76.6182196  57.4587098
  41.8179992  93.5579978  40.0940014  41.5499992  93.8439978  40.9680014
  42.5889992  93.0119978  40.2470014  41.8855926  93.5232779  40.2341205
  51.6149992  76.0889978  57.6040014  51.6909992  75.6629978  58.4570014
  52.5079992  76.1019978  57.2610014  51.7462303  76.0323493  57.6745497
  54.7909992  92.1619978  56.2960014  54.0089992  91.9749978  55.7760014
  54.7189992  93.0909978  56.5130014  54.6741924  92.2620637  56.2541602
  71.8359992  88.2419978  48.0470014  71.3949992  87.5219978  48.4980014
  71.8229992  88.9629978  48.6770014  71.7739215  88.2409291  48.1938105
  61.4219992  89.3669978  49.8740014  61.0519992  88.5649978  49.5040014
  62.3629992  89.1989978  49.9200014  61.4985984  89.2344638  49.8295603
  68.9479992  93.3459978  48.2590014  69.5669992  92.6699978  47.9860014
  68.7389992  93.1279978  49.1680014  69.0046056  93.2238869  48.3443967
  66.5189992  87.7349978  50.1520014  66.8229992  87.0489978  49.5570014
  67.2409992  87.8539978  50.7700014  66.6581240  87.6572314  50.1540959
  69.6599992  82.1289978  50.4790014  69.8029992  81.1829978  50.4990014
  69.5539992  82.3359978  49.5510014  69.6652403  82.0274797  50.3562239
  64.5919992  84.1779978  47.7290014  65.2079992  83.6509978  48.2380014
  64.0049992  83.5379978  47.3250014  64.5970154  84.0193954  47.7440945
  64.1939992  86.8239978  52.1130014  63.4539992  87.4229978  52.2170014
  64.9079992  87.3779978  51.7980014  64.1893500  86.9807829  52.0846371
  62.6019992  88.7889978  52.9000014  62.5959992  89.6679978  52.5220014
  61.7479992  88.7049978  53.3250014  62.4857925  88.8979535  52.9056887
  72.3479992  90.0809978  50.3950014  71.4059992  90.1399978  50.5570014
  72.6239992  90.9869978  50.2580014  72.2565865  90.2115288  50.3986192
  70.5999992  91.8619978  47.0200014  71.0249992  91.1549978  46.5350014
  70.9169992  92.6639978  46.6030014  70.7010266  91.8735190  46.8972479
  71.7599992  89.7629978  45.5290014  71.5019992  89.0729978  44.9170014
  71.8309992  89.3199978  46.3740014  71.7343050  89.6086814  45.5595621
  73.4459992  88.3299978  54.0060014  73.5849992  87.7379978  53.2670014
  73.6129992  89.2029978  53.6500014  73.4876193  88.3668896  53.8566211
  71.2209992  83.6759978  53.7980014  71.3009992  84.4389978  54.3700014
  70.6199992  83.9549978  53.1080014  71.1506547  83.8182457  53.7830047
  62.9689992  86.1319978  46.6130014  62.6389992  85.7609978  45.7950014
  63.5579992  85.4609978  46.9600014  63.0033970  85.9906063  46.5479404
  69.6449992  90.4039978  50.9800014  69.4049992  91.0659978  51.6280014
  69.4469992  89.5689978  51.4050014  69.5853826  90.3818115  51.1261566
  64.2159992  89.2999978  54.9640014  63.9049992  90.0819978  55.4190014
  63.5659992  89.1469978  54.2780014  64.0855538  89.3864087  54.9335898
  62.4549992  91.3709978  55.7270014  62.4629992  91.2349978  54.7800014
  61.5389992  91.2539978  55.9790014  62.3322528  91.3365463  55.6313243
  57.8029992  90.3449978  49.9010014  58.7489992  90.1999978  49.8820014
  57.6899992  91.1289978  50.4380014  57.9173578  90.4311697  49.9710317
  76.0009992  91.0109978  55.5840014  75.9509992  90.0549978  55.5460014
  75.1739992  91.2779978  55.9850014  75.8823831  90.9164680  55.6330121
  66.9789992  90.5849978  54.4600014  67.0669992  91.4109978  54.9350014
  66.1159992  90.2549978  54.7090014  66.8743357  90.6535468  54.5587653
  61.0469992  93.1459978  46.0470014  61.1989992  92.7979978  46.9250014
  60.1959992  92.7889978  45.7910014  60.9528344  93.0500879  46.1326868
  60.3019992  88.8879978  54.0600014  60.5179992  88.5259978  54.9200014
  59.4459992  88.5129978  53.8510014  60.2158810  88.7878837  54.1492680
  62.9199992  77.3579978  50.0560014  62.0589992  77.2709978  49.6480014
  62.8979992  78.2139978  50.4840014  62.7990491  77.4618003  50.0579582
  70.9099992  80.8349978  54.2840014  70.3959992  80.7099978  55.0820014
  70.7539992  81.7479978  54.0400014  70.8186967  80.9412123  54.3600937
  67.6459992  83.1359978  56.3680014  67.0829992  82.4309978  56.6890014
  68.4719992  83.0149978  56.8360014  67.6806674  83.0232165  56.4751751
  68.8129992  84.0439978  52.3650014  69.1359992  83.4129978  51.7220014
  68.3719992  83.5099978  53.0260014  68.7976379  83.8853468  52.3662582
  73.2829992  94.8779978  56.6900014  73.4819992  95.3019978  55.8560014
  73.9379992  95.2219978  57.2970014  73.3988522  94.9826301  56.6577852
  60.8809992  87.3519978  56.2980014  61.6129992  87.6069978  56.8600014
  60.0999992  87.5569978  56.8140014  60.8756526  87.4145450  56.4445176
  66.9099992  82.7589978  49.0360014  67.4739992  82.2129978  48.4890014
  66.7619992  82.2379978  49.8250014  66.9673037  82.6136787  49.0677229
  65.5359992  81.1479978  51.4500014  64.7009992  81.6019978  51.5610014
  66.0599992  81.4239978  52.2020014  65.4926072  81.2473948  51.5668136
  73.2309992  86.4939978  51.9220014  73.8719992  86.9499978  51.3780014
  72.3999992  86.6069978  51.4590014  73.2065287  86.5716921  51.7849887
  67.5999992  87.5449978  54.3720014  67.2539992  87.1629978  55.1790014
  67.3999992  88.4779978  54.4430014  67.5255987  87.6189002  54.4920461
  61.2049992  86.6559978  48.9050014  61.9499992  86.6529978  48.3030014
  61.2829992  85.8319978  49.3860014  61.3173365  86.5442384  48.8877430
  65.2299992  84.6329978  56.4330014  64.9339992  84.4679978  55.5370014
  66.1609992  84.4129978  56.4220014  65.3154401  84.5806879  56.3090206
  69.8499992  90.0069978  54.3220014  68.9499992  90.1899978  54.0550014
  69.8839992  90.2659978  55.2430014  69.7313748  90.0670554  54.4099164
  75.5449992  88.0519978  55.5270014  74.6939992  88.2899978  55.1590014
  76.1349992  88.0349978  54.7740014  75.5083812  88.0822524  55.3748453
  65.5219992  91.9859978  52.2000014  65.8849992  92.8399978  51.9670014
  66.0539992  91.6939978  52.9410014  65.6435141  92.0633895  52.2682097
  69.0659992  88.0849978  51.9010014  68.6409992  87.8569978  52.7270014
  69.6469992  87.3459978  51.7190014  69.0863395  87.9539545  51.9894414
  71.7249992  92.6369978  54.3700014  71.1229992  92.0809978  53.8750014
  72.0059992  93.3039978  53.7440014  71.6805757  92.6510744  54.2175675
  59.4989992  91.6739978  52.2130014  59.7159992  90.7419978  52.1820014
  59.7449992  91.9489978  53.0960014  59.5619809  91.5835686  52.3281691
  68.5819992  79.6109978  52.6680014  69.2809992  79.6849978  53.3180014
  68.2009992  78.7459978  52.8220014  68.6262097  79.5042389  52.7777997
  67.1019992  81.9769978  53.7840014  67.2209992  82.5509978  54.5410014
  67.7569992  81.2889978  53.8990014  67.2068684  81.9625194  53.9031674
  72.9949992  92.8899978  50.3370014  72.8389992  93.5689978  49.6800014
  73.9279992  92.9619978  50.5400014  73.0997387  92.9926390  50.2745342
  58.7089992  93.5609978  56.5650014  59.2489992  93.3449978  57.3250014
  58.2279992  92.7559978  56.3750014  58.7179219  93.4225156  56.6434282
  63.3059992  92.4809978  58.1850014  64.0739992  92.0219978  58.5260014
  63.2849992  92.2549978  57.2550014  63.4082135  92.3876668  58.1059491
  69.8829992  90.8609978  56.9140014  69.5319992  90.0039978  57.1580014
  70.6089992  91.0029978  57.5210014  69.9331895  90.7631351  57.0293770
  58.6159992  87.3719978  57.5190014  58.7599992  86.4699978  57.2330014
  57.8439992  87.6579978  57.0320014  58.5312733  87.2871798  57.4139532
  65.2709992  87.3409978  56.9520014  64.9429992  87.6119978  56.0950014
  65.4229992  86.3999978  56.8640014  65.2466412  87.2509046  56.8227822
  71.0059992  87.2569978  54.3350014  71.7509992  87.8459978  54.2160014
  70.2489992  87.8389978  54.3990014  71.0055470  87.4162128  54.3273799
  59.4489992  84.5719978  56.9390014  59.8569992  83.7149978  56.8180014
  59.1879992  84.5859978  57.8600014  59.4696016  84.4565119  57.0469192
  68.4149992  86.0519978  57.5910014  69.3689992  86.1359978  57.5640014
  68.2549992  85.3399978  58.2110014  68.5237182  85.9672842  57.6710733
  65.7289992  84.7449978  53.1280014  66.4799992  84.5889978  52.5550014
  65.3899992  85.5969978  52.8530014  65.7859587  84.8388138  53.0124078
  70.1449992  82.5599978  58.1570014  70.3369992  81.6289978  58.0450014
  71.0029992  82.9849978  58.1460014  70.2872182  82.4900070  58.1401862
  71.4619992  85.3489978  56.2340014  71.1799992  86.0579978  55.6560014
  72.4039992  85.2759978  56.0830014  71.5507921  85.4362193  56.1344225
  64.9529992  76.7619978  53.3200014  64.8549992  77.7079978  53.2150014
  64.2109992  76.3889978  52.8440014  64.8392534  76.8411773  53.2412600
  66.2169992  81.0829978  56.8840014  65.9819992  80.8639978  57.7850014
  65.4339992  80.8759978  56.3740014  66.0789095  81.0249892  56.9385353
  68.9329992  80.2109978  55.9590014  67.9849992  80.2429978  56.0910014
  69.2449992  79.5849978  56.6130014  68.8455293  80.1307923  56.0654148
  65.1749992  76.0559978  55.9910014  65.8869992  75.4159978  55.9770014
  65.0739992  76.3219978  55.0780014  65.2587387  76.0044330  55.8655563
  57.2919992  94.6509978  45.7810014  56.6449992  94.1889978  45.2490014
  57.6469992  93.9789978  46.3640014  57.2513741  94.4969774  45.7869175
  58.1619992  92.7309978  47.5860014  57.8279992  91.8509978  47.7580014
  58.3849992  93.0769978  48.4510014  58.1463721  92.6571938  47.7264168
  75.7109992  93.5409978  50.5670014  75.6889992  93.7259978  51.5060014
  76.4009992  94.1089978  50.2260014  75.8013439  93.6431887  50.6494791
  75.2739992  93.1079978  53.4880014  74.7869992  92.3729978  53.1170014
  75.8229992  92.7139978  54.1660014  75.2815247  92.9541057  53.5288461
  73.7249992  88.8979978  58.1270014  72.8589992  88.7929978  58.5210014
  74.1009992  89.6559978  58.5730014  73.6573401  88.9861708  58.2412620
  73.6659992  90.8709978  52.7190014  73.0179992  91.1959978  53.3440014
  73.1479992  90.4299978  52.0450014  73.5074196  90.8558651  52.7134152
  57.8399992  81.0769978  56.1780014  58.7589992  80.9549978  56.4150014
  57.3899992  80.3269978  56.5680014  57.9050087  80.9589608  56.2631410
  72.4489992  93.6309978  46.1390014  73.1019992  93.2829978  45.5310014
  72.9599992  94.1189978  46.7850014  72.6072777  93.6493815  46.1432047
  59.8339992  90.5599978  56.6820014  59.0129992  90.7349978  56.2210014
  59.5819992  90.4869978  57.6020014  59.6875594  90.5740717  56.7433611
  62.7879992  91.5339978  52.9400014  62.3639992  92.3439978  52.6580014
  63.6929992  91.6199978  52.6380014  62.8522138  91.6564160  52.8606415
  67.0999992  92.9329978  55.9000014  67.2839992  92.5999978  56.7780014
  67.9459992  93.2429978  55.5780014  67.2396484  92.9292979  55.9767617
  69.4449992  94.2189978  55.1440014  70.1219992  93.5859978  54.9040014
  69.7659992  94.6199978  55.9510014  69.5811323  94.1865691  55.2203158
  60.1899992  94.7909978  52.9880014  59.4699992  95.2309978  52.5370014
  59.8249992  94.5399978  53.8360014  60.0419643  94.8173369  53.0409129
  62.6569992  94.3909978  52.0180014  61.7929992  94.4629978  52.4220014
  62.6019992  94.9379978  51.2340014  62.5311942  94.4747849  51.9674000
  67.3679992  94.2789978  51.1930014  66.9109992  94.8079978  50.5390014
  67.5309992  94.8819978  51.9180014  67.3274960  94.4329280  51.2015274
  69.6959992  93.1569978  52.1380014  68.7909992  93.3219978  51.8720014
  70.1239992  94.0099978  52.0720014  69.6301537  93.2949134  52.0927095
  72.2999992  94.7269978  52.4330014  72.1179992  95.6429978  52.2220014
  72.4769992  94.3159978  51.5860014  72.2990030  94.7968273  52.2897166
  59.6049992  93.4139978  49.8980014  59.5869992  92.9879978  50.7550014
  60.4099992  93.0949978  49.4890014  59.7112875  93.3126435  49.9599515
  64.2829992  92.5939978  49.4020014  64.4959992  91.7059978  49.1150014
  64.3479992  92.5589978  50.3560014  64.3209149  92.4678326  49.4917369
  73.6469992  92.1619978  56.2960014  72.8649992  91.9749978  55.7760014
  73.5749992  93.0909978  56.5130014  73.5301924  92.2620637  56.2541602
  88.0529992  86.0479978  46.3270014  88.1419992  86.9919978  46.1950014
  87.4149992  85.7729978  45.6690014  87.9789062  86.1399812  46.2199641
  86.9859992  85.3029978  49.7460014  86.9479992  84.6569978  50.4510014
  86.6639992  84.8359978  48.9750014  86.9372679  85.1514276  49.7382921
  90.6919992  88.2419978  48.0470014  90.2509992  87.5219978  48.4980014
  90.6789992  88.9629978  48.6770014  90.6299215  88.2409291  48.1938105
  87.8039992  93.3459978  48.2590014  88.4229992  92.6699978  47.9860014
  87.5949992  93.1279978  49.1680014  87.8606056  93.2238869  48.3443967
  85.3749992  87.7349978  50.1520014  85.6789992  87.0489978  49.5570014
  86.0969992  87.8539978  50.7700014  85.5141240  87.6572314  50.1540959
  94.0379992  79.3369978  51.0120014  94.0879992  79.9469978  51.7480014
  94.4639992  79.7979978  50.2890014  94.1024108  79.4827709  51.0150112
  88.5159992  82.1289978  50.4790014  88.6589992  81.1829978  50.4990014
  88.4099992  82.3359978  49.5510014  88.5212403  82.0274797  50.3562239
  89.3929992  80.3619978  46.1530014  90.0399992  80.0329978  46.7770014
  89.9029992  80.8789978  45.5300014  89.5504351  80.3869067  46.1541037
  94.4299992  80.8149978  53.2480014  93.7409992  81.4729978  53.1530014
  94.4449992  80.6169978  54.1850014  94.3377756  80.8782603  53.3615812
  87.8499992  88.6489978  45.3700014  87.5549992  88.3259978  44.5180014
  87.5259992  89.5489978  45.4110014  87.7658460  88.7264464  45.2589714
  91.1569992  79.6529978  48.1330014  90.9419992  78.8869978  48.6660014
  91.8129992  80.1249978  48.6460014  91.2162673  79.6120728  48.2751990
  91.2039992  90.0809978  50.3950014  90.2619992  90.1399978  50.5570014
  91.4799992  90.9869978  50.2580014  91.1125865  90.2115288  50.3986192
  91.5039992  78.3679978  51.8120014  90.7679992  78.9779978  51.7750014
  92.1879992  78.7829978  51.2860014  91.4955367  78.5077551  51.7358174
  89.4559992  91.8619978  47.0200014  89.8809992  91.1549978  46.5350014
  89.7729992  92.6639978  46.6030014  89.5570266  91.8735190  46.8972479
  90.6159992  89.7629978  45.5290014  90.3579992  89.0729978  44.9170014
  90.6869992  89.3199978  46.3740014  90.5903050  89.6086814  45.5595621
  92.3019992  88.3299978  54.0060014  92.4409992  87.7379978  53.2670014
  92.4689992  89.2029978  53.6500014  92.3436193  88.3668896  53.8566211
  86.7739992  85.2919978  43.7790014  86.0629992  85.8269978  43.4270014
  87.4649992  85.3469978  43.1190014  86.7700751  85.3726777  43.6415858
  86.8279992  83.7489978  40.8170014  87.5289992  83.7719978  41.4690014
  87.1299992  83.1209978  40.1610014  86.9648202  83.6672212  40.8175609
  94.1429992  84.6699978  52.0720014  93.4909992  85.3639978  52.1610014
  94.6089992  84.8799978  51.2620014  94.1165937  84.7935019  51.9747533
  90.1799992  85.5009978  44.7300014  89.4479992  85.7299978  45.3040014
  90.6269992  84.7879978  45.1850014  90.1403963  85.4358729  44.8699945
  90.0769992  83.6759978  53.7980014  90.1569992  84.4389978  54.3700014
  89.4759992  83.9549978  53.1080014  90.0066547  83.8182457  53.7830047
  83.1919992  89.5599978  49.2940014  83.0969992  88.9809978  48.5380014
  83.9209992  89.1889978  49.7900014  83.2776011  89.4305561  49.2576028
  88.5009992  90.4039978  50.9800014  88.2609992  91.0659978  51.6280014
  88.3029992  89.5689978  51.4050014  88.4413826  90.3818115  51.1261566
  83.0719992  89.2999978  54.9640014  82.7609992  90.0819978  55.4190014
  82.4219992  89.1469978  54.2780014  82.9415538  89.3864087  54.9335898
  89.0509992  84.6639978  42.4160014  89.6299992  84.8139978  43.1620014
  89.4649992  85.1339978  41.6920014  89.1863358  84.7480954  42.4203953
  86.7769992  91.3999978  45.8510014  87.2509992  91.6959978  46.6280014
  86.2139992  92.1389978  45.6180014  86.7657890  91.5403036  45.9258101
  81.3109992  91.3709978  55.7270014  81.3189992  91.2349978  54.7800014
  80.3949992  91.2539978  55.9790014  81.1882528  91.3365463  55.6313243
  92.7499992  76.4139978  42.2290014  91.8499992  76.5529978  42.5240014
  93.0019992  77.2449978  41.8270014  92.6608683  76.5454055  42.2150232
  93.9389992  90.7799978  40.6050014  94.0119992  91.7189978  40.7750014
  94.8439992  90.4749978  40.5490014  94.0714170  90.8673282  40.6207063
  94.8569992  91.0109978  55.5840014  94.8069992  90.0549978  55.5460014
  94.0299992  91.2779978  55.9850014  94.7383831  90.9164680  55.6330121
  85.8349992  90.5849978  54.4600014  85.9229992  91.4109978  54.9350014
  84.9719992  90.2549978  54.7090014  85.7303357  90.6535468  54.5587653
  86.2499992  94.3569978  44.2660014  86.1739992  94.2359978  43.3190014
  86.2819992  95.3059978  44.3840014  86.2439380  94.4687677  44.1525181
  89.3509992  93.5109978  41.2680014  89.7259992  92.7669978  40.7970014
  89.3559992  93.2409978  42.1860014  89.4030098  93.3726392  41.3276629
  89.0199992  93.4369978  44.0170014  88.0849992  93.5369978  44.1960014
  89.2999992  92.7269978  44.5960014  88.9299471  93.3547933  44.1196695
  92.0089992  82.5039978  56.0640014  91.6009992  82.9839978  55.3430014
  92.0489992  81.5979978  55.7560014  91.9586221  82.4472449  55.9238267
  89.7659992  80.8349978  54.2840014  89.2519992  80.7099978  55.0820014
  89.6099992  81.7479978  54.0400014  89.6746967  80.9412123  54.3600937
  90.5279992  85.6959978  40.0450014  90.5699992  85.4739978  39.1150014
  91.3769992  86.0949978  40.2350014  90.6485253  85.7195498  39.9433822
  87.3999992  82.9599978  44.8800014  86.9909992  83.7749978  44.5880014
  88.1199992  82.8199978  44.2660014  87.4414439  83.0525372  44.7570115
  86.5019992  83.1359978  56.3680014  85.9389992  82.4309978  56.6890014
  87.3279992  83.0149978  56.8360014  86.5366674  83.0232165  56.4751751
  88.4049992  82.4059978  47.6940014  88.2089992  83.0119978  46.9790014
  88.5859992  81.5729978  47.2600014  88.4026584  82.3762513  47.5374212
  87.6689992  84.0439978  52.3650014  87.9919992  83.4129978  51.7220014
  87.2279992  83.5099978  53.0260014  87.6536379  83.8853468  52.3662582
  92.1389992  94.8779978  56.6900014  92.3379992  95.3019978  55.8560014
  92.7939992  95.2219978  57.2970014  92.2548522  94.9826301  56.6577852
  79.7369992  87.3519978  56.2980014  80.4689992  87.6069978  56.8600014
  78.9559992  87.5569978  56.8140014  79.7316526  87.4145450  56.4445176
  85.7659992  82.7589978  49.0360014  86.3299992  82.2129978  48.4890014
  85.6179992  82.2379978  49.8250014  85.8233037  82.6136787  49.0677229
  92.0869992  86.4939978  51.9220014  92.7279992  86.9499978  51.3780014
  91.2559992  86.6069978  51.4590014  92.0625287  86.5716921  51.7849887
  88.8339992  80.1749978  41.3340014  87.8959992  80.2859978  41.1830014
  89.1319992  81.0309978  41.6410014  88.7456318  80.3060158  41.3548145
  86.4559992  87.5449978  54.3720014  86.1099992  87.1629978  55.1790014
  86.2559992  88.4779978  54.4430014  86.3815987  87.6189002  54.4920461
  89.5529992  82.0419978  42.9950014  90.4449992  81.9039978  43.3140014
  89.6089992  82.8329978  42.4580014  89.6827325  82.1299918  42.9661217
  87.0619992  88.8189978  42.1600014  86.7669992  89.6459978  42.5420014
  86.3589992  88.1999978  42.3570014  86.9266379  88.8484171  42.2388654
  84.0859992  84.6329978  56.4330014  83.7899992  84.4679978  55.5370014
  85.0169992  84.4129978  56.4220014  84.1714401  84.5806879  56.3090206
  88.7059992  90.0069978  54.3220014  87.8059992  90.1899978  54.0550014
  88.7399992  90.2659978  55.2430014  88.5873748  90.0670554  54.4099164
  94.4379992  82.2509978  42.6900014  93.8829992  81.8549978  42.0170014
  94.5379992  83.1619978  42.4120014  94.3756816  82.3199505  42.5605033
  94.4009992  88.0519978  55.5270014  93.5499992  88.2899978  55.1590014
  94.9909992  88.0349978  54.7740014  94.3643812  88.0822524  55.3748453
  92.7329992  91.0369978  43.1550014  92.3599992  90.2119978  43.4640014
  93.0099992  90.8539978  42.2570014  92.7193463  90.8992569  43.0759525
  89.8929992  85.8449978  50.1760014  88.9649992  85.6139978  50.1490014
  90.3439992  85.0679978  49.8460014  89.8268165  85.7082774  50.1276790
  82.4359992  90.1739978  46.3090014  82.9639992  90.9469978  46.1090014
  81.5559992  90.3979978  46.0070014  82.3893435  90.3102700  46.2407310
  84.3779992  91.9859978  52.2000014  84.7409992  92.8399978  51.9670014
  84.9099992  91.6939978  52.9410014  84.4995141  92.0633895  52.2682097
  87.9219992  88.0849978  51.9010014  87.4969992  87.8569978  52.7270014
  88.5029992  87.3459978  51.7190014  87.9423395  87.9539545  51.9894414
  90.1249992  89.0139978  40.9750014  90.4789992  88.6339978  41.7790014
  89.1769992  88.9199978  41.0620014  90.0452298  88.9492452  41.0968687
  90.5809992  92.6369978  54.3700014  89.9789992  92.0809978  53.8750014
  90.8619992  93.3039978  53.7440014  90.5365757  92.6510744  54.2175675
  94.6289992  93.4929978  41.1760014  95.3729992  94.0789978  41.0360014
  93.9349992  94.0619978  41.5090014  94.6369809  93.6500818  41.2018590
  90.9909992  87.6859978  43.2020014  90.7139992  86.9579978  43.7580014
  91.9189992  87.8049978  43.4070014  91.0784499  87.6024213  43.3058044
  78.3549992  91.6739978  52.2130014  78.5719992  90.7419978  52.1820014
  78.6009992  91.9489978  53.0960014  78.4179809  91.5835686  52.3281691
  88.2219992  79.2629978  43.7650014  88.4419992  79.7339978  42.9610014
  88.7809992  79.6569978  44.4350014  88.3276732  79.3807287  43.7455033
  92.1619992  79.8839978  54.6190014  91.2459992  80.1459978  54.5320014
  92.4979992  79.8809978  53.7230014  92.0818499  79.9195163  54.4858766
  90.7649992  83.6339978  48.7150014  89.9669992  83.2189978  48.3870014
  91.2099992  82.9439978  49.2060014  90.7159684  83.4838628  48.7365227
  91.8509992  92.8899978  50.3370014  91.6949992  93.5689978  49.6800014
  92.7839992  92.9619978  50.5400014  91.9557387  92.9926390  50.2745342
  77.5649992  93.5609978  56.5650014  78.1049992  93.3449978  57.3250014
  77.0839992  92.7559978  56.3750014  77.5739219  93.4225156  56.6434282
  82.1619992  92.4809978  58.1850014  82.9299992  92.0219978  58.5260014
  82.1409992  92.2549978  57.2550014  82.2642135  92.3876668  58.1059491
  86.2539992  91.9889978  39.5610014  85.6099992  91.3579978  39.8820014
  87.0159992  91.4579978  39.3290014  86.2688058  91.8307902  39.5736038
  88.7389992  90.8609978  56.9140014  88.3879992  90.0039978  57.1580014
  89.4649992  91.0029978  57.5210014  88.7891895  90.7631351  57.0293770
  90.8589992  91.8059978  39.7940014  91.1419992  91.0109978  40.2470014
  91.5979992  92.0389978  39.2330014  90.9977096  91.7287049  39.7801104
  77.4719992  87.3719978  57.5190014  77.6159992  86.4699978  57.2330014
  76.6999992  87.6579978  57.0320014  77.3872733  87.2871798  57.4139532
  84.1269992  87.3409978  56.9520014  83.7989992  87.6119978  56.0950014
  84.2789992  86.3999978  56.8640014  84.1026412  87.2509046  56.8227822
  87.1659992  88.7619978  39.3880014  86.8969992  88.9429978  40.2880014
  86.9589992  87.8369978  39.2560014  87.1011191  88.6617119  39.4935524
  89.8619992  87.2569978  54.3350014  90.6069992  87.8459978  54.2160014
  89.1049992  87.8389978  54.3990014  89.8615470  87.4162128  54.3273799
  84.0339992  83.9309978  40.2200014  83.8529992  83.7759978  39.2930014
  84.9839992  84.0389978  40.2650014  84.1376566  83.9243669  40.0990929
  87.2709992  86.0519978  57.5910014  88.2249992  86.1359978  57.5640014
  87.1109992  85.3399978  58.2110014  87.3797182  85.9672842  57.6710733
  93.4239992  86.2849978  39.6660014  93.1499992  85.8609978  38.8530014
  93.4629992  87.2169978  39.4490014  93.3917716  86.3528827  39.5254286
  89.0009992  82.5599978  58.1570014  89.1929992  81.6289978  58.0450014
  89.8589992  82.9849978  58.1460014  89.1432182  82.4900070  58.1401862
  90.3179992  85.3489978  56.2340014  90.0359992  86.0579978  55.6560014
  91.2599992  85.2759978  56.0830014  90.4067921  85.4362193  56.1344225
  85.0729992  81.0829978  56.8840014  84.8379992  80.8639978  57.7850014
  84.2899992  80.8759978  56.3740014  84.9349095  81.0249892  56.9385353
  87.7889992  80.2109978  55.9590014  86.8409992  80.2429978  56.0910014
  88.1009992  79.5849978  56.6130014  87.7015293  80.1307923  56.0654148
  89.4229992  78.8449978  57.9640014  89.3259992  77.8929978  57.9590014
  89.1009992  79.1129978  58.8250014  89.3662468  78.7510884  58.0796210
  84.3849992  77.7379978  58.0450014  84.2529992  77.2629978  57.2250014
  83.7849992  78.4829978  57.9900014  84.2859070  77.7735789  57.9253251
  83.9309992  94.6209978  41.2210014  84.8639992  94.7789978  41.3650014
  83.6669992  95.2969978  40.5960014  84.0229911  94.7339373  41.1562722
  76.1479992  94.6509978  45.7810014  75.5009992  94.1889978  45.2490014
  76.5029992  93.9789978  46.3640014  76.1073741  94.4969774  45.7869175
  77.0179992  92.7309978  47.5860014  76.6839992  91.8509978  47.7580014
  77.2409992  93.0769978  48.4510014  77.0023721  92.6571938  47.7264168
  94.5669992  93.5409978  50.5670014  94.5449992  93.7259978  51.5060014
  95.2569992  94.1089978  50.2260014  94.6573439  93.6431887  50.6494791
  94.1299992  93.1079978  53.4880014  93.6429992  92.3729978  53.1170014
  94.6789992  92.7139978  54.1660014  94.1375247  92.9541057  53.5288461
  92.5809992  88.8979978  58.1270014  91.7149992  88.7929978  58.5210014
  92.9569992  89.6559978  58.5730014  92.5133401  88.9861708  58.2412620
  93.8819992  87.1539978  43.6410014  94.7319992  87.5749978  43.7680014
  93.8869992  86.4139978  44.2480014  93.9991143  87.1116094  43.7404750
  94.2759992  85.2079978  45.4640014  93.5499992  84.7279978  45.8620014
  94.8579992  85.4129978  46.1970014  94.2552730  85.1700184  45.6174149
  94.0349992  87.9929978  50.4120014  94.8689992  87.6149978  50.1310014
  94.1469992  88.9359978  50.2930014  94.1641917  88.0687943  50.3574861
  92.5219992  90.8709978  52.7190014  91.8739992  91.1959978  53.3440014
  92.0039992  90.4299978  52.0450014  92.3634196  90.8558651  52.7134152
  94.5449992  85.1089978  41.8550014  94.0229992  85.4649978  41.1370014
  94.5119992  85.7839978  42.5340014  94.4690129  85.2489598  41.8483355
  92.8939992  82.3479978  40.4060014  92.9899992  83.0149978  39.7260014
  92.7539992  81.5329978  39.9250014  92.8882040  82.3290671  40.2478378
  92.0629992  83.7289978  46.0270014  91.9129992  82.7839978  46.0070014
  91.7089992  84.0099978  46.8710014  91.9946351  83.6376644  46.1383220
  92.9189992  85.6989978  55.6660014  93.5019992  84.9639978  55.8580014
  93.4829992  86.4709978  55.7130014  93.0749781  85.7028145  55.6986164
  94.4159992  83.6019978  56.3510014  93.5529992  83.2229978  56.1850014
  95.0199992  82.8629978  56.2760014  94.3796085  83.4503223  56.3181695
  92.1409992  79.7559978  39.5240014  92.7519992  79.3849978  40.1610014
  91.3039992  79.3349978  39.7200014  92.1114947  79.6482756  39.6377252
  91.7739992  81.3109978  44.4900014  92.0529992  80.4039978  44.6140014
  92.5329992  81.7449978  44.1010014  91.9148619  81.2454502  44.4543795
  92.3849992  81.8929978  49.9260014  93.3179992  82.1049978  49.8910014
  92.1499992  81.9939978  50.8480014  92.4809517  81.9356833  50.0459130
  92.4149992  82.6299978  52.7020014  91.5719992  82.8979978  53.0680014
  92.8569992  83.4519978  52.4910014  92.3594138  82.7778273  52.7235518
  94.6979992  76.6099978  58.0550014  95.0469992  75.9559978  57.4500014
  94.8449992  77.4469978  57.6150014  94.7656824  76.6336024  57.9126304
  92.3869992  78.5739978  44.5380014  92.5689992  78.1249978  45.3630014
  91.7869992  77.9899978  44.0740014  92.3308187  78.4335552  44.5882739
  94.2169992  78.7189978  56.4040014  93.2999992  78.9899978  56.3690014
  94.3399992  78.1839978  55.6200014  94.1079672  78.6837885  56.2931862
  94.2539992  78.6419978  41.0660014  94.6659992  77.9209978  40.5910014
  94.9349992  79.3109978  41.1240014  94.4025536  78.6337766  41.0088024
  91.3049992  93.6309978  46.1390014  91.9579992  93.2829978  45.5310014
  91.8159992  94.1189978  46.7850014  91.4632777  93.6493815  46.1432047
  78.6899992  90.5599978  56.6820014  77.8689992  90.7349978  56.2210014
  78.4379992  90.4869978  57.6020014  78.5435594  90.5740717  56.7433611
  81.6439992  91.5339978  52.9400014  81.2199992  92.3439978  52.6580014
  82.5489992  91.6199978  52.6380014  81.7082138  91.6564160  52.8606415
  85.9559992  92.9329978  55.9000014  86.1399992  92.5999978  56.7780014
  86.8019992  93.2429978  55.5780014  86.0956484  92.9292979  55.9767617
  88.3009992  94.2189978  55.1440014  88.9779992  93.5859978  54.9040014
  88.6219992  94.6199978  55.9510014  88.4371323  94.1865691  55.2203158
  93.2179992  76.8089978  54.2230014  92.4049992  77.1339978  53.8360014
  93.4509992  76.0479978  53.6900014  93.1381347  76.7506880  54.0979841
  79.0459992  94.7909978  52.9880014  78.3259992  95.2309978  52.5370014
  78.6809992  94.5399978  53.8360014  78.8979643  94.8173369  53.0409129
  81.5129992  94.3909978  52.0180014  80.6489992  94.4629978  52.4220014
  81.4579992  94.9379978  51.2340014  81.3871942  94.4747849  51.9674000
  86.2239992  94.2789978  51.1930014  85.7669992  94.8079978  50.5390014
  86.3869992  94.8819978  51.9180014  86.1834960  94.4329280  51.2015274
  88.5519992  93.1569978  52.1380014  87.6469992  93.3219978  51.8720014
  88.9799992  94.0099978  52.0720014  88.4861537  93.2949134  52.0927095
  91.1559992  94.7269978  52.4330014  90.9739992  95.6429978  52.2220014
  91.3329992  94.3159978  51.5860014  91.1550030  94.7968273  52.2897166
  78.4609992  93.4139978  49.8980014  78.4429992  92.9879978  50.7550014
  79.2659992  93.0949978  49.4890014  78.5672875  93.3126435  49.9599515
  80.6019992  92.1239978  48.5530014  80.3829992  91.2069978  48.7230014
  81.4259992  92.2639978  49.0190014  80.6834702  92.0175511  48.6392527
  83.1389992  92.5939978  49.4020014  83.3519992  91.7059978  49.1150014
  83.2039992  92.5589978  50.3560014  83.1769149  92.4678326  49.4917369
  91.7909992  76.3649978  48.6590014  92.3939992  76.9129978  48.1570014
  90.9209992  76.6839978  48.4180014  91.7559157  76.4830373  48.5577910
  93.5179992  77.5039978  46.9920014  94.1289992  76.9899978  46.4650014
  93.8999992  78.3809978  47.0150014  93.6533305  77.5522050  46.9229418
  89.1109992  76.8479978  47.8310014  89.1869992  76.9439978  46.8810014
  88.8359992  75.9409978  47.9590014  89.0841871  76.7384146  47.7183944
  90.4639992  76.8739978  43.5230014  89.7609992  77.4889978  43.3130014
  90.0189992  76.0369978  43.6540014  90.3076550  76.8449668  43.5119837
  86.5759992  93.8469978  41.4670014  87.4419992  94.2139978  41.2890014
  86.3299992  93.4079978  40.6530014  86.6612097  93.8378525  41.3326019
  93.2849992  93.4099978  44.1460014  93.0909992  92.6619978  43.5810014
  93.2459992  94.1679978  43.5630014  93.2531645  93.4100786  43.9898148
  89.3269992  76.0889978  57.6040014  89.4029992  75.6629978  58.4570014
  90.2199992  76.1019978  57.2610014  89.4582303  76.0323493  57.6745497
  92.5029992  92.1619978  56.2960014  91.7209992  91.9749978  55.7760014
  92.4309992  93.0909978  56.5130014  92.3861924  92.2620637  56.2541602
 106.9089992  86.0479978  46.3270014 106.9979992  86.9919978  46.1950014
 106.2709992  85.7729978  45.6690014 106.8349062  86.1399812  46.2199641
 105.8419992  85.3029978  49.7460014 105.8039992  84.6569978  50.4510014
 105.5199992  84.8359978  48.9750014 105.7932679  85.1514276  49.7382921
  98.2099992  84.9169978  51.3390014  98.2519992  84.2919978  52.0620014
  98.9129992  85.5409978  51.5210014  98.3107345  84.9157873  51.4625274
 109.5479992  88.2419978  48.0470014 109.1069992  87.5219978  48.4980014
 109.5349992  88.9629978  48.6770014 109.4859215  88.2409291  48.1938105
  99.1339992  89.3669978  49.8740014  98.7639992  88.5649978  49.5040014
 100.0749992  89.1989978  49.9200014  99.2105984  89.2344638  49.8295603
  95.7439992  83.0269978  45.2660014  95.2959992  83.8729978  45.2480014
  95.1829992  82.4479978  44.7510014  95.6068546  83.0643993  45.1938891
  96.4539992  85.1889978  47.3920014  96.6679992  84.4189978  47.9200014
  97.1919992  85.2789978  46.7890014  96.5830200  85.0958587  47.3827035
 106.6599992  93.3459978  48.2590014 107.2789992  92.6699978  47.9860014
 106.4509992  93.1279978  49.1680014 106.7166056  93.2238869  48.3443967
 104.2309992  87.7349978  50.1520014 104.5349992  87.0489978  49.5570014
 104.9529992  87.8539978  50.7700014 104.3701240  87.6572314  50.1540959
 112.8939992  79.3369978  51.0120014 112.9439992  79.9469978  51.7480014
 113.3199992  79.7979978  50.2890014 112.9584108  79.4827709  51.0150112
 107.3719992  82.1289978  50.4790014 107.5149992  81.1829978  50.4990014
 107.2659992  82.3359978  49.5510014 107.3772403  82.0274797  50.3562239
 100.5269992  80.2309978  47.7520014 100.5699992  81.0909978  47.3330014
 100.0689992  79.6789978  47.1180014 100.4709871  80.2739245  47.6090761
 108.2489992  80.3619978  46.1530014 108.8959992  80.0329978  46.7770014
 108.7589992  80.8789978  45.5300014 108.4064351  80.3869067  46.1541037
  97.1469992  82.6279978  48.5140014  97.8009992  82.0779978  48.9460014
  97.1709992  82.3539978  47.5970014  97.2397199  82.5157167  48.4491668
 102.3039992  84.1779978  47.7290014 102.9199992  83.6509978  48.2380014
 101.7169992  83.5379978  47.3250014 102.3090154  84.0193954  47.7440945
 113.2859992  80.8149978  53.2480014 112.5969992  81.4729978  53.1530014
 113.3009992  80.6169978  54.1850014 113.1937756  80.8782603  53.3615812
  99.3369992  79.1489978  51.8260014  99.1179992  79.6789978  51.0590014
  98.6689992  79.3749978  52.4730014  99.2166975  79.2520967  51.8085140
 106.7059992  88.6489978  45.3700014 106.4109992  88.3259978  44.5180014
 106.3819992  89.5489978  45.4110014 106.6218460  88.7264464  45.2589714
 101.9059992  86.8239978  52.1130014 101.1659992  87.4229978  52.2170014
 102.6199992  87.3779978  51.7980014 101.9013500  86.9807829  52.0846371
 110.0129992  79.6529978  48.1330014 109.7979992  78.8869978  48.6660014
 110.6689992  80.1249978  48.6460014 110.0722673  79.6120728  48.2751990
  98.9309992  81.0409978  49.7780014  99.5449992  81.6739978  50.1510014
  99.4429992  80.5689978  49.1220014  99.0841962  81.0637249  49.7402935
 100.3139992  88.7889978  52.9000014 100.3079992  89.6679978  52.5220014
  99.4599992  88.7049978  53.3250014 100.1977925  88.8979535  52.9056887
  96.4349992  88.4599978  43.6820014  96.1629992  88.6889978  42.7940014
  96.4799992  89.2969978  44.1430014  96.4038097  88.6046163  43.6226683
 110.0599992  90.0809978  50.3950014 109.1179992  90.1399978  50.5570014
 110.3359992  90.9869978  50.2580014 109.9685865  90.2115288  50.3986192
 110.3599992  78.3679978  51.8120014 109.6239992  78.9779978  51.7750014
 111.0439992  78.7829978  51.2860014 110.3515367  78.5077551  51.7358174
 103.3639992  76.4539978  49.2780014 103.2459992  75.5059978  49.2240014
 102.5089992  76.7869978  49.5510014 103.2322805  76.3692202  49.3075079
 108.3119992  91.8619978  47.0200014 108.7369992  91.1549978  46.5350014
 108.6289992  92.6639978  46.6030014 108.4130266  91.8735190  46.8972479
 109.4719992  89.7629978  45.5290014 109.2139992  89.0729978  44.9170014
 109.5429992  89.3199978  46.3740014 109.4463050  89.6086814  45.5595621
 111.1579992  88.3299978  54.0060014 111.2969992  87.7379978  53.2670014
 111.3249992  89.2029978  53.6500014 111.1996193  88.3668896  53.8566211
 105.6299992  85.2919978  43.7790014 104.9189992  85.8269978  43.4270014
 106.3209992  85.3469978  43.1190014 105.6260751  85.3726777  43.6415858
 105.6839992  83.7489978  40.8170014 106.3849992  83.7719978  41.4690014
 105.9859992  83.1209978  40.1610014 105.8208202  83.6672212  40.8175609
 112.9989992  84.6699978  52.0720014 112.3469992  85.3639978  52.1610014
 113.4649992  84.8799978  51.2620014 112.9725937  84.7935019  51.9747533
 109.0359992  85.5009978  44.7300014 108.3039992  85.7299978  45.3040014
 109.4829992  84.7879978  45.1850014 108.9963963  85.4358729  44.8699945
 108.9329992  83.6759978  53.7980014 109.0129992  84.4389978  54.3700014
 108.3319992  83.9549978  53.1080014 108.8626547  83.8182457  53.7830047
 100.6809992  86.1319978  46.6130014 100.3509992  85.7609978  45.7950014
 101.2699992  85.4609978  46.9600014 100.7153970  85.9906063  46.5479404
 102.0479992  89.5599978  49.2940014 101.9529992  88.9809978  48.5380014
 102.7769992  89.1889978  49.7900014 102.1336011  89.4305561  49.2576028
 101.0479992  84.8999978  50.2460014 101.6129992  85.0219978  49.4840014
 101.3669992  85.5379978  50.8850014 101.1684166  85.0028791  50.2280348
 107.3569992  90.4039978  50.9800014 107.1169992  91.0659978  51.6280014
 107.1589992  89.5689978  51.4050014 107.2973826  90.3818115  51.1261566
 101.9279992  89.2999978  54.9640014 101.6169992  90.0819978  55.4190014
 101.2779992  89.1469978  54.2780014 101.7975538  89.3864087  54.9335898
 107.9069992  84.6639978  42.4160014 108.4859992  84.8139978  43.1620014
 108.3209992  85.1339978  41.6920014 108.0423358  84.7480954  42.4203953
  98.8479992  85.4979978  54.1920014  98.9179992  86.1489978  54.8910014
  97.9569992  85.6009978  53.8570014  98.7371690  85.6009249  54.2423043
 105.6329992  91.3999978  45.8510014 106.1069992  91.6959978  46.6280014
 105.0699992  92.1389978  45.6180014 105.6217890  91.5403036  45.9258101
 100.1669992  91.3709978  55.7270014 100.1749992  91.2349978  54.7800014
  99.2509992  91.2539978  55.9790014 100.0442528  91.3365463  55.6313243
 111.6059992  76.4139978  42.2290014 110.7059992  76.5529978  42.5240014
 111.8579992  77.2449978  41.8270014 111.5168683  76.5454055  42.2150232
  99.6719992  85.2009978  44.2020014  99.3799992  85.9689978  43.7110014
  98.9969992  84.5419978  44.0390014  99.5408497  85.2169745  44.1128260
 112.7949992  90.7799978  40.6050014 112.8679992  91.7189978  40.7750014
 113.6999992  90.4749978  40.5490014 112.9274170  90.8673282  40.6207063
  95.7649992  87.5639978  53.0170014  95.2629992  87.5359978  52.2020014
  95.7699992  86.6589978  53.3270014  95.6969832  87.4377486  52.9474121
  95.5149992  90.3449978  49.9010014  96.4609992  90.1999978  49.8820014
  95.4019992  91.1289978  50.4380014  95.6293578  90.4311697  49.9710317
 113.7129992  91.0109978  55.5840014 113.6629992  90.0549978  55.5460014
 112.8859992  91.2779978  55.9850014 113.5943831  90.9164680  55.6330121
 104.6909992  90.5849978  54.4600014 104.7789992  91.4109978  54.9350014
 103.8279992  90.2549978  54.7090014 104.5863357  90.6535468  54.5587653
 105.1059992  94.3569978  44.2660014 105.0299992  94.2359978  43.3190014
 105.1379992  95.3059978  44.3840014 105.0999380  94.4687677  44.1525181
  98.7589992  93.1459978  46.0470014  98.9109992  92.7979978  46.9250014
  97.9079992  92.7889978  45.7910014  98.6648344  93.0500879  46.1326868
 108.2069992  93.5109978  41.2680014 108.5819992  92.7669978  40.7970014
 108.2119992  93.2409978  42.1860014 108.2590098  93.3726392  41.3276629
 107.8759992  93.4369978  44.0170014 106.9409992  93.5369978  44.1960014
 108.1559992  92.7269978  44.5960014 107.7859471  93.3547933  44.1196695
 110.8649992  82.5039978  56.0640014 110.4569992  82.9839978  55.3430014
 110.9049992  81.5979978  55.7560014 110.8146221  82.4472449  55.9238267
  98.0139992  88.8879978  54.0600014  98.2299992  88.5259978  54.9200014
  97.1579992  88.5129978  53.8510014  97.9278810  88.7878837  54.1492680
 100.6319992  77.3579978  50.0560014  99.7709992  77.2709978  49.6480014
 100.6099992  78.2139978  50.4840014 100.5110491  77.4618003  50.0579582
 105.2949992  77.0799978  53.4310014 105.7149992  76.6649978  54.1840014
 104.3619992  76.9009978  53.5480014 105.2263736  76.9989910  53.5498968
 108.6219992  80.8349978  54.2840014 108.1079992  80.7099978  55.0820014
 108.4659992  81.7479978  54.0400014 108.5306967  80.9412123  54.3600937
 109.3839992  85.6959978  40.0450014 109.4259992  85.4739978  39.1150014
 110.2329992  86.0949978  40.2350014 109.5045253  85.7195498  39.9433822
 104.9569992  79.5719978  40.7160014 104.7029992  79.5909978  41.6380014
 104.6999992  78.7009978  40.4140014 104.8874508  79.4568280  40.8014803
 100.7229992  82.3229978  51.1510014 100.0819992  82.2829978  51.8600014
 100.7609992  83.2499978  50.9130014 100.6403010  82.4427668  51.2159946
 100.7199992  82.5439978  46.0630014  99.8279992  82.2039978  46.0040014
 101.1709992  82.1669978  45.3070014 100.6587642  82.4464910  45.9527726
 106.2559992  82.9599978  44.8800014 105.8469992  83.7749978  44.5880014
 106.9759992  82.8199978  44.2660014 106.2974439  83.0525372  44.7570115
 105.3579992  83.1359978  56.3680014 104.7949992  82.4309978  56.6890014
 106.1839992  83.0149978  56.8360014 105.3926674  83.0232165  56.4751751
 107.2609992  82.4059978  47.6940014 107.0649992  83.0119978  46.9790014
 107.4419992  81.5729978  47.2600014 107.2586584  82.3762513  47.5374212
  98.4729992  82.6439978  53.0180014  98.4349992  83.0439978  53.8870014
  97.9829992  81.8269978  53.1080014  98.4015330  82.5882674  53.1491289
 101.8389992  80.0179978  39.8170014 101.4079992  79.5729978  40.5460014
 101.1209992  80.3889978  39.3040014 101.6829176  80.0072051  39.8474930
  95.0819992  79.7599978  46.8690014  95.7119992  79.7309978  47.5880014
  95.5309992  79.3349978  46.1380014  95.2290835  79.6985660  46.8687659
  96.3559992  80.5059978  42.2930014  96.8299992  81.0969978  41.7080014
  95.6379992  81.0359978  42.6400014  96.3238640  80.6585511  42.2597969
 106.5249992  84.0439978  52.3650014 106.8479992  83.4129978  51.7220014
 106.0839992  83.5099978  53.0260014 106.5096379  83.8853468  52.3662582
 103.3019992  79.9719978  47.1490014 102.3909992  80.0289978  47.4380014
 103.8069992  79.9119978  47.9600014 103.2456873  79.9716826  47.2981207
  98.1299992  81.6009978  45.9760014  97.2409992  81.6999978  45.6360014
  98.4269992  80.7589978  45.6300014  98.0484177  81.5007687  45.8826940
 101.7829992  81.6009978  43.6330014 102.7149992  81.7299978  43.8110014
 101.5679992  82.2699978  42.9830014 101.8814472  81.7090806  43.5694891
 107.7069992  79.2069978  50.4140014 107.0299992  79.3379978  51.0770014
 107.2219992  79.0519978  49.6030014 107.5487405  79.2039947  50.3952170
 100.4569992  82.7949978  41.1990014  99.9149992  82.4159978  40.5080014
 101.2909992  82.9899978  40.7710014 100.4954390  82.7694079  41.0464392
 110.9949992  94.8779978  56.6900014 111.1939992  95.3019978  55.8560014
 111.6499992  95.2219978  57.2970014 111.1108522  94.9826301  56.6577852
  98.5929992  87.3519978  56.2980014  99.3249992  87.6069978  56.8600014
  97.8119992  87.5569978  56.8140014  98.5876526  87.4145450  56.4445176
 104.6219992  82.7589978  49.0360014 105.1859992  82.2129978  48.4890014
 104.4739992  82.2379978  49.8250014 104.6793037  82.6136787  49.0677229
  99.6239992  78.8959978  45.4550014  99.3069992  77.9929978  45.4190014
 100.4049992  78.8979978  44.9020014  99.6862431  78.7727797  45.3753102
 103.2479992  81.1479978  51.4500014 102.4129992  81.6019978  51.5610014
 103.7719992  81.4239978  52.2020014 103.2046072  81.2473948  51.5668136
 103.7929992  87.3609978  43.1350014 103.0479992  86.8529978  42.8130014
 103.6579992  87.4099978  44.0810014 103.6728963  87.2981731  43.2188826
 110.9429992  86.4939978  51.9220014 111.5839992  86.9499978  51.3780014
 110.1119992  86.6069978  51.4590014 110.9185287  86.5716921  51.7849887
 107.6899992  80.1749978  41.3340014 106.7519992  80.2859978  41.1830014
 107.9879992  81.0309978  41.6410014 107.6016318  80.3060158  41.3548145
 105.3119992  87.5449978  54.3720014 104.9659992  87.1629978  55.1790014
 105.1119992  88.4779978  54.4430014 105.2375987  87.6189002  54.4920461
 108.4089992  82.0419978  42.9950014 109.3009992  81.9039978  43.3140014
 108.4649992  82.8329978  42.4580014 108.5387325  82.1299918  42.9661217
  98.9169992  86.6559978  48.9050014  99.6619992  86.6529978  48.3030014
  98.9949992  85.8319978  49.3860014  99.0293366  86.5442384  48.8877430
 105.9179992  88.8189978  42.1600014 105.6229992  89.6459978  42.5420014
 105.2149992  88.1999978  42.3570014 105.7826379  88.8484171  42.2388654
  95.9249992  85.1159978  54.2200014  96.1479992  84.6979978  55.0510014
  95.3229992  84.5039978  53.7970014  95.8741513  84.9759606  54.2766740
 102.9419992  84.6329978  56.4330014 102.6459992  84.4679978  55.5370014
 103.8729992  84.4129978  56.4220014 103.0274401  84.5806879  56.3090206
 107.5619992  90.0069978  54.3220014 106.6619992  90.1899978  54.0550014
 107.5959992  90.2659978  55.2430014 107.4433748  90.0670554  54.4099164
 113.2939992  82.2509978  42.6900014 112.7389992  81.8549978  42.0170014
 113.3939992  83.1619978  42.4120014 113.2316816  82.3199505  42.5605033
 113.2569992  88.0519978  55.5270014 112.4059992  88.2899978  55.1590014
 113.8469992  88.0349978  54.7740014 113.2203812  88.0822524  55.3748453
 111.5889992  91.0369978  43.1550014 111.2159992  90.2119978  43.4640014
 111.8659992  90.8539978  42.2570014 111.5753463  90.8992569  43.0759525
 108.7489992  85.8449978  50.1760014 107.8209992  85.6139978  50.1490014
 109.1999992  85.0679978  49.8460014 108.6828165  85.7082774  50.1276790
 101.2919992  90.1739978  46.3090014 101.8199992  90.9469978  46.1090014
 100.4119992  90.3979978  46.0070014 101.2453435  90.3102700  46.2407310
  97.0469992  85.0359978  40.8960014  97.6629992  85.6629978  41.2760014
  96.1849992  85.3519978  41.1680014  97.0147678  85.1644412  40.9847209
 102.7199992  87.8369978  45.8850014 102.4789992  88.7619978  45.9270014
 101.9789992  87.3779978  46.2820014 102.5869206  87.9015915  45.9443769
 103.2339992  91.9859978  52.2000014 103.5969992  92.8399978  51.9670014
 103.7659992  91.6939978  52.9410014 103.3555141  92.0633895  52.2682097
 101.4029992  92.8579978  45.4310014 100.4529992  92.9639978  45.4820014
 101.7549992  93.6789978  45.7750014 101.3205472  92.9834923  45.4844852
 106.7779992  88.0849978  51.9010014 106.3529992  87.8569978  52.7270014
 107.3589992  87.3459978  51.7190014 106.7983395  87.9539545  51.9894414
 108.9809992  89.0139978  40.9750014 109.3349992  88.6339978  41.7790014
 108.0329992  88.9199978  41.0620014 108.9012298  88.9492452  41.0968687
 109.4369992  92.6369978  54.3700014 108.8349992  92.0809978  53.8750014
 109.7179992  93.3039978  53.7440014 109.3925757  92.6510744  54.2175675
 113.4849992  93.4929978  41.1760014 114.2289992  94.0789978  41.0360014
 112.7909992  94.0619978  41.5090014 113.4929809  93.6500818  41.2018590
  97.5589992  79.8699978  53.7780014  96.6669992  80.2079978  53.7100014
  97.4609992  79.0139978  54.1960014  97.4234475  79.8006543  53.8251704
 109.8469992  87.6859978  43.2020014 109.5699992  86.9579978  43.7580014
 110.7749992  87.8049978  43.4070014 109.9344499  87.6024213  43.3058044
  97.2109992  91.6739978  52.2130014  97.4279992  90.7419978  52.1820014
  97.4569992  91.9489978  53.0960014  97.2739809  91.5835686  52.3281691
 103.0719992  90.1259978  39.4220014 103.3109992  89.3769978  38.8750014
 102.8029992  89.7379978  40.2550014 103.0683233  89.9711853  39.4597809
 102.0089992  89.6959978  41.8780014 102.1559992  89.1759978  42.6680014
 102.0059992  90.6029978  42.1850014 102.0287102  89.7473953  42.0275925
  98.4619992  86.9479978  42.3890014  97.7759992  87.3009978  42.9560014
  98.9849992  87.7109978  42.1420014  98.4388402  87.0993901  42.4331801
 106.2939992  79.6109978  52.6680014 106.9929992  79.6849978  53.3180014
 105.9129992  78.7459978  52.8220014 106.3382097  79.5042389  52.7777997
 107.0779992  79.2629978  43.7650014 107.2979992  79.7339978  42.9610014
 107.6369992  79.6569978  44.4350014 107.1836732  79.3807287  43.7455033
 104.7469992  91.3929978  42.6280014 103.9299992  91.8899978  42.6800014
 105.2759992  91.8689978  41.9870014 104.7068125  91.5251989  42.5485306
 104.2779992  80.9909978  44.6000014 105.0899992  81.4949978  44.6460014
 104.0339992  80.8459978  45.5140014 104.3561467  81.0403749  44.7298575
 104.8139992  81.9769978  53.7840014 104.9329992  82.5509978  54.5410014
 105.4689992  81.2889978  53.8990014 104.9188684  81.9625194  53.9031674
 105.1619992  78.0719978  45.5380014 104.8149992  78.6889978  46.1820014
 105.8209992  78.5729978  45.0560014 105.2035090  78.2241575  45.5610681
 102.0849992  92.4369978  42.6090014 102.2459992  93.2369978  42.1090014
 101.8879992  92.7439978  43.4940014 102.0803906  92.5878678  42.6602333
 100.8199992  79.1349978  42.2250014 100.7359992  80.0229978  42.5720014
 101.7099992  78.8699978  42.4570014 100.9288163  79.2207179  42.3038596
 111.0179992  79.8839978  54.6190014 110.1019992  80.1459978  54.5320014
 111.3539992  79.8809978  53.7230014 110.9378499  79.9195163  54.4858766
 109.6209992  83.6339978  48.7150014 108.8229992  83.2189978  48.3870014
 110.0659992  82.9439978  49.2060014 109.5719684  83.4838628  48.7365227
  99.0779992  89.5619978  41.2850014  99.6699992  90.2619978  41.5620014
  99.5369992  89.1289978  40.5660014  99.2211652  89.5992675  41.2256533
  97.3939992  82.2269978  40.4010014  97.3489992  83.1659978  40.5800014
  96.5059992  81.9909978  40.1320014  97.2678166  82.3236687  40.3891524
 110.7069992  92.8899978  50.3370014 110.5509992  93.5689978  49.6800014
 111.6399992  92.9619978  50.5400014 110.8117387  92.9926390  50.2745342
  98.2019992  77.0079978  49.0750014  97.9729992  77.0669978  48.1470014
  97.7599992  76.2169978  49.3810014  98.1108801  76.9090540  48.9894729
  97.1329992  90.9489978  45.2350014  96.2999992  91.4209978  45.2620014
  97.6779992  91.4589978  44.6360014  97.0927857  91.0824791  45.1577142
  96.4209992  93.5609978  56.5650014  96.9609992  93.3449978  57.3250014
  95.9399992  92.7559978  56.3750014  96.4299219  93.4225156  56.6434282
 101.0179992  92.4809978  58.1850014 101.7859992  92.0219978  58.5260014
 100.9969992  92.2549978  57.2550014 101.1202135  92.3876668  58.1059491
 105.1099992  91.9889978  39.5610014 104.4659992  91.3579978  39.8820014
 105.8719992  91.4579978  39.3290014 105.1248058  91.8307902  39.5736038
 107.5949992  90.8609978  56.9140014 107.2439992  90.0039978  57.1580014
 108.3209992  91.0029978  57.5210014 107.6451895  90.7631351  57.0293770
 109.7149992  91.8059978  39.7940014 109.9979992  91.0109978  40.2470014
 110.4539992  92.0389978  39.2330014 109.8537096  91.7287049  39.7801104
  96.3279992  87.3719978  57.5190014  96.4719992  86.4699978  57.2330014
  95.5559992  87.6579978  57.0320014  96.2432733  87.2871798  57.4139532
 100.6689992  87.7149978  39.6520014 100.7339992  86.9209978  40.1820014
 101.3219992  87.5969978  38.9620014 100.7661605  87.5903430  39.6312997
 102.9829992  87.3409978  56.9520014 102.6549992  87.6119978  56.0950014
 103.1349992  86.3999978  56.8640014 102.9586412  87.2509046  56.8227822
 106.0219992  88.7619978  39.3880014 105.7529992  88.9429978  40.2880014
 105.8149992  87.8369978  39.2560014 105.9571191  88.6617119  39.4935524
 108.7179992  87.2569978  54.3350014 109.4629992  87.8459978  54.2160014
 107.9609992  87.8389978  54.3990014 108.7175470  87.4162128  54.3273799
  97.1609992  84.5719978  56.9390014  97.5689992  83.7149978  56.8180014
  96.8999992  84.5859978  57.8600014  97.1816016  84.4565119  57.0469192
 101.8189992  85.6879978  41.9580014 101.3589992  85.2039978  42.6430014
 102.0739992  85.0189978  41.3220014 101.7904856  85.5313669  41.9658397
 101.1079992  83.5809978  54.3140014 100.4889992  84.2549978  54.5940014
 101.4519992  83.9019978  53.4800014 101.0697123  83.7166887  54.2396388
 102.8899992  83.9309978  40.2200014 102.7089992  83.7759978  39.2930014
 103.8399992  84.0389978  40.2650014 102.9936566  83.9243669  40.0990929
 106.1269992  86.0519978  57.5910014 107.0809992  86.1359978  57.5640014
 105.9669992  85.3399978  58.2110014 106.2357182  85.9672842  57.6710733
 112.2799992  86.2849978  39.6660014 112.0059992  85.8609978  38.8530014
 112.3189992  87.2169978  39.4490014 112.2477716  86.3528827  39.5254286
 101.4469992  80.9359978  55.3960014 101.5969992  80.2069978  54.7940014
 101.4489992  81.7129978  54.8370014 101.4677967  80.9412708  55.2380541
 101.8599992  79.3049978  52.8890014 102.3949992  79.7569978  52.2370014
 101.0069992  79.1969978  52.4660014 101.8180374  79.3522665  52.7426710
 103.4409992  84.7449978  53.1280014 104.1919992  84.5889978  52.5550014
 103.1019992  85.5969978  52.8530014 103.4979587  84.8388138  53.0124078
 107.8569992  82.5599978  58.1570014 108.0489992  81.6289978  58.0450014
 108.7149992  82.9849978  58.1460014 107.9992182  82.4900070  58.1401862
 109.1739992  85.3489978  56.2340014 108.8919992  86.0579978  55.6560014
 110.1159992  85.2759978  56.0830014 109.2627921  85.4362193  56.1344225
  99.9259992  82.1339978  57.3070014  99.1579992  81.6009978  57.0970014
 100.6039992  81.8239978  56.7080014  99.9127235  82.0191754  57.1972413
 102.6649992  76.7619978  53.3200014 102.5669992  77.7079978  53.2150014
 101.9229992  76.3889978  52.8440014 102.5512534  76.8411773  53.2412600
 103.9289992  81.0829978  56.8840014 103.6939992  80.8639978  57.7850014
 103.1459992  80.8759978  56.3740014 103.7909095  81.0249892  56.9385353
 106.6449992  80.2109978  55.9590014 105.6969992  80.2429978  56.0910014
 106.9569992  79.5849978  56.6130014 106.5575293  80.1307923  56.0654148
 108.2789992  78.8449978  57.9640014 108.1819992  77.8929978  57.9590014
 107.9569992  79.1129978  58.8250014 108.2222468  78.7510884  58.0796210
  98.1059992  80.0539978  57.0120014  98.3179992  79.3479978  56.4020014
  97.9949992  79.6169978  57.8560014  98.1200269  79.8981921  57.0425873
 102.8869992  76.0559978  55.9910014 103.5989992  75.4159978  55.9770014
 102.7859992  76.3219978  55.0780014 102.9707387  76.0044330  55.8655563
 103.2409992  77.7379978  58.0450014 103.1089992  77.2629978  57.2250014
 102.6409992  78.4829978  57.9900014 103.1419070  77.7735789  57.9253251
 102.7869992  94.6209978  41.2210014 103.7199992  94.7789978  41.3650014
 102.5229992  95.2969978  40.5960014 102.8789911  94.7339373  41.1562722
  96.3549992  89.2579978  40.7040014  97.2689992  89.3369978  40.9770014
  96.3629992  88.5709978  40.0380014  96.4810655  89.1759205  40.6512917
  95.0039992  94.6509978  45.7810014  94.3569992  94.1889978  45.2490014
  95.3589992  93.9789978  46.3640014  94.9633741  94.4969774  45.7869175
  95.8739992  92.7309978  47.5860014  95.5399992  91.8509978  47.7580014
  96.0969992  93.0769978  48.4510014  95.8583721  92.6571938  47.7264168
 113.4229992  93.5409978  50.5670014 113.4009992  93.7259978  51.5060014
 114.1129992  94.1089978  50.2260014 113.5133439  93.6431887  50.6494791
 112.9859992  93.1079978  53.4880014 112.4989992  92.3729978  53.1170014
 113.5349992  92.7139978  54.1660014 112.9935247  92.9541057  53.5288461
 111.4369992  88.8979978  58.1270014 110.5709992  88.7929978  58.5210014
 111.8129992  89.6559978  58.5730014 111.3693401  88.9861708  58.2412620
 112.7379992  87.1539978  43.6410014 113.5879992  87.5749978  43.7680014
 112.7429992  86.4139978  44.2480014 112.8551143  87.1116094  43.7404750
 113.1319992  85.2079978  45.4640014 112.4059992  84.7279978  45.8620014
 113.7139992  85.4129978  46.1970014 113.1112730  85.1700184  45.6174149
 112.8909992  87.9929978  50.4120014 113.7249992  87.6149978  50.1310014
 113.0029992  88.9359978  50.2930014 113.0201917  88.0687943  50.3574861
 111.3779992  90.8709978  52.7190014 110.7299992  91.1959978  53.3440014
 110.8599992  90.4299978  52.0450014 111.2194196  90.8558651  52.7134152
 113.4009992  85.1089978  41.8550014 112.8789992  85.4649978  41.1370014
 113.3679992  85.7839978  42.5340014 113.3250129  85.2489598  41.8483355
 111.7499992  82.3479978  40.4060014 111.8459992  83.0149978  39.7260014
 111.6099992  81.5329978  39.9250014 111.7442040  82.3290671  40.2478378
 110.9189992  83.7289978  46.0270014 110.7689992  82.7839978  46.0070014
 110.5649992  84.0099978  46.8710014 110.8506351  83.6376644  46.1383220
  95.9539992  85.8069978  50.0380014  96.1389992  85.7249978  49.1020014
  96.8039992  85.6829978  50.4610014  96.0940928  85.7790463  49.9672893
 111.7749992  85.6989978  55.6660014 112.3579992  84.9639978  55.8580014
 112.3389992  86.4709978  55.7130014 111.9309781  85.7028145  55.6986164
 113.2719992  83.6019978  56.3510014 112.4089992  83.2229978  56.1850014
 113.8759992  82.8629978  56.2760014 113.2356085  83.4503223  56.3181695
 110.9969992  79.7559978  39.5240014 111.6079992  79.3849978  40.1610014
 110.1599992  79.3349978  39.7200014 110.9674947  79.6482756  39.6377252
 110.6299992  81.3109978  44.4900014 110.9089992  80.4039978  44.6140014
 111.3889992  81.7449978  44.1010014 110.7708619  81.2454502  44.4543795
 111.2409992  81.8929978  49.9260014 112.1739992  82.1049978  49.8910014
 111.0059992  81.9939978  50.8480014 111.3369517  81.9356833  50.0459130
 111.2709992  82.6299978  52.7020014 110.4279992  82.8979978  53.0680014
 111.7129992  83.4519978  52.4910014 111.2154138  82.7778273  52.7235518
  95.5519992  81.0769978  56.1780014  96.4709992  80.9549978  56.4150014
  95.1019992  80.3269978  56.5680014  95.6170087  80.9589608  56.2631410
 113.5539992  76.6099978  58.0550014 113.9029992  75.9559978  57.4500014
 113.7009992  77.4469978  57.6150014 113.6216824  76.6336024  57.9126304
 111.2429992  78.5739978  44.5380014 111.4249992  78.1249978  45.3630014
 110.6429992  77.9899978  44.0740014 111.1868187  78.4335552  44.5882739
  96.7729992  79.3899978  49.0700014  97.2179992  78.5979978  49.3720014
  97.2389992  80.1059978  49.5000014  96.8969718  79.3784534  49.1695265
  95.0769992  82.3889978  50.1390014  95.5689992  82.1679978  49.3480014
  95.4389992  83.2289978  50.4200014  95.1932923  82.4723468  50.0687407
 113.0729992  78.7189978  56.4040014 112.1559992  78.9899978  56.3690014
 113.1959992  78.1839978  55.6200014 112.9639672  78.6837885  56.2931862
 113.1099992  78.6419978  41.0660014 113.5219992  77.9209978  40.5910014
 113.7909992  79.3109978  41.1240014 113.2585536  78.6337766  41.0088024
  95.3909992  78.6469978  44.1930014  94.4659992  78.8549978  44.0640014
  95.8449992  79.1309978  43.5030014  95.3256298  78.7409299  44.0820451
 110.1609992  93.6309978  46.1390014 110.8139992  93.2829978  45.5310014
 110.6719992  94.1189978  46.7850014 110.3192777  93.6493815  46.1432047
  95.3539992  77.3849978  52.5370014  94.6889992  77.1389978  53.1800014
  94.9109992  78.0069978  51.9600014  95.2031168  77.4354214  52.5469848
  97.5459992  90.5599978  56.6820014  96.7249992  90.7349978  56.2210014
  97.2939992  90.4869978  57.6020014  97.3995594  90.5740717  56.7433611
 100.4999992  91.5339978  52.9400014 100.0759992  92.3439978  52.6580014
 101.4049992  91.6199978  52.6380014 100.5642138  91.6564160  52.8606415
 104.8119992  92.9329978  55.9000014 104.9959992  92.5999978  56.7780014
 105.6579992  93.2429978  55.5780014 104.9516484  92.9292979  55.9767617
 107.1569992  94.2189978  55.1440014 107.8339992  93.5859978  54.9040014
 107.4779992  94.6199978  55.9510014 107.2931323  94.1865691  55.2203158
 112.0739992  76.8089978  54.2230014 111.2609992  77.1339978  53.8360014
 112.3069992  76.0479978  53.6900014 111.9941347  76.7506880  54.0979841
  97.9019992  94.7909978  52.9880014  97.1819992  95.2309978  52.5370014
  97.5369992  94.5399978  53.8360014  97.7539643  94.8173369  53.0409129
 100.3689992  94.3909978  52.0180014  99.5049992  94.4629978  52.4220014
 100.3139992  94.9379978  51.2340014 100.2431942  94.4747849  51.9674000
 105.0799992  94.2789978  51.1930014 104.6229992  94.8079978  50.5390014
 105.2429992  94.8819978  51.9180014 105.0394960  94.4329280  51.2015274
 107.4079992  93.1569978  52.1380014 106.5029992  93.3219978  51.8720014
 107.8359992  94.0099978  52.0720014 107.3421537  93.2949134  52.0927095
 110.0119992  94.7269978  52.4330014 109.8299992  95.6429978  52.2220014
 110.1889992  94.3159978  51.5860014 110.0110030  94.7968273  52.2897166
  97.3169992  93.4139978  49.8980014  97.2989992  92.9879978  50.7550014
  98.1219992  93.0949978  49.4890014  97.4232875  93.3126435  49.9599515
  99.4579992  92.1239978  48.5530014  99.2389992  91.2069978  48.7230014
 100.2819992  92.2639978  49.0190014  99.5394702  92.0175511  48.6392527
 101.9949992  92.5939978  49.4020014 102.2079992  91.7059978  49.1150014
 102.0599992  92.5589978  50.3560014 102.0329149  92.4678326  49.4917369
 105.5039992  78.2579978  48.5460014 104.8299992  77.6279978  48.8020014
 106.0679992  77.7739978  47.9430014 105.4880384  78.1063708  48.4995020
 110.6469992  76.3649978  48.6590014 111.2499992  76.9129978  48.1570014
 109.7769992  76.6839978  48.4180014 110.6119157  76.4830373  48.5577910
 112.3739992  77.5039978  46.9920014 112.9849992  76.9899978  46.4650014
 112.7559992  78.3809978  47.0150014 112.5093305  77.5522050  46.9229418
  97.8309992  76.8919978  46.3680014  97.0539992  76.6569978  45.8610014
  98.3609992  76.0949978  46.3770014  97.7963451  76.7521268  46.2998627
  96.6669992  76.6899978  42.1720014  97.1059992  77.3009978  41.5800014
  96.0329992  77.2279978  42.6460014  96.6413859  76.8464064  42.1550305
 102.4099992  76.8179978  46.1810014 103.2839992  77.2069978  46.1520014
 102.2739992  76.6029978  47.1040014 102.5111953  76.8421643  46.3017617
 107.9669992  76.8479978  47.8310014 108.0429992  76.9439978  46.8810014
 107.6919992  75.9409978  47.9590014 107.9401871  76.7384146  47.7183944
 109.3199992  76.8739978  43.5230014 108.6169992  77.4889978  43.3130014
 108.8749992  76.0369978  43.6540014 109.1636550  76.8449668  43.5119837
  96.5679992  92.6379978  43.0690014  95.8829992  92.5999978  42.4020014
  96.5719992  93.5509978  43.3570014  96.4747621  92.7561924  43.0166126
  98.5279992  78.6059978  40.6140014  99.0189992  77.9759978  40.0870014
  99.1509992  78.9019978  41.2770014  98.6795304  78.5597376  40.6314940
 103.5539992  78.8989978  43.0710014 103.7319992  78.2519978  43.7540014
 103.4999992  79.7329978  43.5380014 103.5710678  78.9231604  43.2276301
 105.4319992  93.8469978  41.4670014 106.2979992  94.2139978  41.2890014
 105.1859992  93.4079978  40.6530014 105.5172097  93.8378525  41.3326019
 112.1409992  93.4099978  44.1460014 111.9469992  92.6619978  43.5810014
 112.1019992  94.1679978  43.5630014 112.1091645  93.4100786  43.9898148
  97.7879992  77.4059978  55.8860014  97.4219992  76.6399978  56.3280014
  98.7009992  77.4349978  56.1720014  97.8613172  77.3050324  55.9851890
  99.7609992  76.7559978  57.4210014 100.6599992  76.4819978  57.2370014
  99.3749992  76.0139978  57.8860014  99.8317307  76.6182196  57.4587098
  98.3859992  93.5579978  40.0940014  98.1179992  93.8439978  40.9680014
  99.1569992  93.0119978  40.2470014  98.4535926  93.5232779  40.2341205
 108.1829992  76.0889978  57.6040014 108.2589992  75.6629978  58.4570014
 109.0759992  76.1019978  57.2610014 108.3142303  76.0323493  57.6745497
 111.3589992  92.1619978  56.2960014 110.5769992  91.9749978  55.7760014
 111.2869992  93.0909978  56.5130014 111.2421924  92.2620637  56.2541602
 125.7649992  86.0479978  46.3270014 125.8539992  86.9919978  46.1950014
 125.1269992  85.7729978  45.6690014 125.6909062  86.1399812  46.2199641
 124.6979992  85.3029978  49.7460014 124.6599992  84.6569978  50.4510014
 124.3759992  84.8359978  48.9750014 124.6492679  85.1514276  49.7382921
 117.0659992  84.9169978  51.3390014 117.1079992  84.2919978  52.0620014
 117.7689992  85.5409978  51.5210014 117.1667345  84.9157873  51.4625273
 128.4039992  88.2419978  48.0470014 127.9629992  87.5219978  48.4980014
 128.3909992  88.9629978  48.6770014 128.3419215  88.2409291  48.1938105
 117.9899992  89.3669978  49.8740014 117.6199992  88.5649978  49.5040014
 118.9309992  89.1989978  49.9200014 118.0665984  89.2344638  49.8295603
 114.5999992  83.0269978  45.2660014 114.1519992  83.8729978  45.2480014
 114.0389992  82.4479978  44.7510014 114.4628546  83.0643993  45.1938891
 115.3099992  85.1889978  47.3920014 115.5239992  84.4189978  47.9200014
 116.0479992  85.2789978  46.7890014 115.4390200  85.0958587  47.3827035
 125.5159992  93.3459978  48.2590014 126.1349992  92.6699978  47.9860014
 125.3069992  93.1279978  49.1680014 125.5726056  93.2238869  48.3443967
 123.0869992  87.7349978  50.1520014 123.3909992  87.0489978  49.5570014
 123.8089992  87.8539978  50.7700014 123.2261240  87.6572314  50.1540959
 131.7499992  79.3369978  51.0120014 131.7999992  79.9469978  51.7480014
 132.1759992  79.7979978  50.2890014 131.8144108  79.4827709  51.0150112
 126.2279992  82.1289978  50.4790014 126.3709992  81.1829978  50.4990014
 126.1219992  82.3359978  49.5510014 126.2332403  82.0274797  50.3562239
 119.3829992  80.2309978  47.7520014 119.4259992  81.0909978  47.3330014
 118.9249992  79.6789978  47.1180014 119.3269871  80.2739245  47.6090761
 127.1049992  80.3619978  46.1530014 127.7519992  80.0329978  46.7770014
 127.6149992  80.8789978  45.5300014 127.2624351  80.3869067  46.1541037
 116.0029992  82.6279978  48.5140014 116.6569992  82.0779978  48.9460014
 116.0269992  82.3539978  47.5970014 116.0957199  82.5157167  48.4491668
 121.1599992  84.1779978  47.7290014 121.7759992  83.6509978  48.2380014
 120.5729992  83.5379978  47.3250014 121.1650154  84.0193954  47.7440945
 132.1419992  80.8149978  53.2480014 131.4529992  81.4729978  53.1530014
 132.1569992  80.6169978  54.1850014 132.0497756  80.8782603  53.3615812
 118.1929992  79.1489978  51.8260014 117.9739992  79.6789978  51.0590014
 117.5249992  79.3749978  52.4730014 118.0726975  79.2520967  51.8085140
 125.5619992  88.6489978  45.3700014 125.2669992  88.3259978  44.5180014
 125.2379992  89.5489978  45.4110014 125.4778460  88.7264464  45.2589714
 120.7619992  86.8239978  52.1130014 120.0219992  87.4229978  52.2170014
 121.4759992  87.3779978  51.7980014 120.7573500  86.9807829  52.0846371
 128.8689992  79.6529978  48.1330014 128.6539992  78.8869978  48.6660014
 129.5249992  80.1249978  48.6460014 128.9282673  79.6120728  48.2751990
 117.7869992  81.0409978  49.7780014 118.4009992  81.6739978  50.1510014
 118.2989992  80.5689978  49.1220014 117.9401962  81.0637249  49.7402935
 119.1699992  88.7889978  52.9000014 119.1639992  89.6679978  52.5220014
 118.3159992  88.7049978  53.3250014 119.0537925  88.8979535  52.9056887
 115.2909992  88.4599978  43.6820014 115.0189992  88.6889978  42.7940014
 115.3359992  89.2969978  44.1430014 115.2598097  88.6046163  43.6226683
 128.9159992  90.0809978  50.3950014 127.9739992  90.1399978  50.5570014
 129.1919992  90.9869978  50.2580014 128.8245865  90.2115288  50.3986192
 129.2159992  78.3679978  51.8120014 128.4799992  78.9779978  51.7750014
 129.8999992  78.7829978  51.2860014 129.2075367  78.5077551  51.7358174
 122.2199992  76.4539978  49.2780014 122.1019992  75.5059978  49.2240014
 121.3649992  76.7869978  49.5510014 122.0882805  76.3692202  49.3075079
 127.1679992  91.8619978  47.0200014 127.5929992  91.1549978  46.5350014
 127.4849992  92.6639978  46.6030014 127.2690266  91.8735190  46.8972479
 128.3279992  89.7629978  45.5290014 128.0699992  89.0729978  44.9170014
 128.3989992  89.3199978  46.3740014 128.3023050  89.6086814  45.5595621
 130.0139992  88.3299978  54.0060014 130.1529992  87.7379978  53.2670014
 130.1809992  89.2029978  53.6500014 130.0556193  88.3668896  53.8566211
 124.4859992  85.2919978  43.7790014 123.7749992  85.8269978  43.4270014
 125.1769992  85.3469978  43.1190014 124.4820751  85.3726777  43.6415858
 124.5399992  83.7489978  40.8170014 125.2409992  83.7719978  41.4690014
 124.8419992  83.1209978  40.1610014 124.6768202  83.6672212  40.8175609
 131.8549992  84.6699978  52.0720014 131.2029992  85.3639978  52.1610014
 132.3209992  84.8799978  51.2620014 131.8285937  84.7935019  51.9747533
 127.8919992  85.5009978  44.7300014 127.1599992  85.7299978  45.3040014
 128.3389992  84.7879978  45.1850014 127.8523963  85.4358729  44.8699945
 127.7889992  83.6759978  53.7980014 127.8689992  84.4389978  54.3700014
 127.1879992  83.9549978  53.1080014 127.7186547  83.8182457  53.7830047
 119.5369992  86.1319978  46.6130014 119.2069992  85.7609978  45.7950014
 120.1259992  85.4609978  46.9600014 119.5713970  85.9906063  46.5479404
 120.9039992  89.5599978  49.2940014 120.8089992  88.9809978  48.5380014
 121.6329992  89.1889978  49.7900014 120.9896011  89.4305561  49.2576028
 119.9039992  84.8999978  50.2460014 120.4689992  85.0219978  49.4840014
 120.2229992  85.5379978  50.8850014 120.0244166  85.0028791  50.2280348
 126.2129992  90.4039978  50.9800014 125.9729992  91.0659978  51.6280014
 126.0149992  89.5689978  51.4050014 126.1533826  90.3818115  51.1261566
 120.7839992  89.2999978  54.9640014 120.4729992  90.0819978  55.4190014
 120.1339992  89.1469978  54.2780014 120.6535538  89.3864087  54.9335898
 126.7629992  84.6639978  42.4160014 127.3419992  84.8139978  43.1620014
 127.1769992  85.1339978  41.6920014 126.8983358  84.7480954  42.4203953
 117.7039992  85.4979978  54.1920014 117.7739992  86.1489978  54.8910014
 116.8129992  85.6009978  53.8570014 117.5931690  85.6009249  54.2423043
 124.4889992  91.3999978  45.8510014 124.9629992  91.6959978  46.6280014
 123.9259992  92.1389978  45.6180014 124.4777890  91.5403036  45.9258101
 119.0229992  91.3709978  55.7270014 119.0309992  91.2349978  54.7800014
 118.1069992  91.2539978  55.9790014 118.9002528  91.3365463  55.6313243
 130.4619992  76.4139978  42.2290014 129.5619992  76.5529978  42.5240014
 130.7139992  77.2449978  41.8270014 130.3728683  76.5454055  42.2150232
 118.5279992  85.2009978  44.2020014 118.2359992  85.9689978  43.7110014
 117.8529992  84.5419978  44.0390014 118.3968497  85.2169745  44.1128260
 131.6509992  90.7799978  40.6050014 131.7239992  91.7189978  40.7750014
 132.5559992  90.4749978  40.5490014 131.7834170  90.8673282  40.6207063
 114.6209992  87.5639978  53.0170014 114.1189992  87.5359978  52.2020014
 114.6259992  86.6589978  53.3270014 114.5529832  87.4377486  52.9474121
 114.3709992  90.3449978  49.9010014 115.3169992  90.1999978  49.8820014
 114.2579992  91.1289978  50.4380014 114.4853578  90.4311697  49.9710317
 132.5689992  91.0109978  55.5840014 132.5189992  90.0549978  55.5460014
 131.7419992  91.2779978  55.9850014 132.4503831  90.9164680  55.6330121
 123.5469992  90.5849978  54.4600014 123.6349992  91.4109978  54.9350014
 122.6839992  90.2549978  54.7090014 123.4423357  90.6535468  54.5587653
 123.9619992  94.3569978  44.2660014 123.8859992  94.2359978  43.3190014
 123.9939992  95.3059978  44.3840014 123.9559380  94.4687677  44.1525181
 117.6149992  93.1459978  46.0470014 117.7669992  92.7979978  46.9250014
 116.7639992  92.7889978  45.7910014 117.5208344  93.0500879  46.1326868
 127.0629992  93.5109978  41.2680014 127.4379992  92.7669978  40.7970014
 127.0679992  93.2409978  42.1860014 127.1150098  93.3726392  41.3276629
 126.7319992  93.4369978  44.0170014 125.7969992  93.5369978  44.1960014
 127.0119992  92.7269978  44.5960014 126.6419471  93.3547933  44.1196695
 129.7209992  82.5039978  56.0640014 129.3129992  82.9839978  55.3430014
 129.7609992  81.5979978  55.7560014 129.6706221  82.4472449  55.9238267
 116.8699992  88.8879978  54.0600014 117.0859992  88.5259978  54.9200014
 116.0139992  88.5129978  53.8510014 116.7838810  88.7878837  54.1492680
 119.4879992  77.3579978  50.0560014 118.6269992  77.2709978  49.6480014
 119.4659992  78.2139978  50.4840014 119.3670491  77.4618003  50.0579582
 124.1509992  77.0799978  53.4310014 124.5709992  76.6649978  54.1840014
 123.2179992  76.9009978  53.5480014 124.0823736  76.9989910  53.5498968
 127.4779992  80.8349978  54.2840014 126.9639992  80.7099978  55.0820014
 127.3219992  81.7479978  54.0400014 127.3866967  80.9412123  54.3600937
 128.2399992  85.6959978  40.0450014 128.2819992  85.4739978  39.1150014
 129.0889992  86.0949978  40.2350014 128.3605253  85.7195498  39.9433822
 123.8129992  79.5719978  40.7160014 123.5589992  79.5909978  41.6380014
 123.5559992  78.7009978  40.4140014 123.7434508  79.4568280  40.8014803
 119.5789992  82.3229978  51.1510014 118.9379992  82.2829978  51.8600014
 119.6169992  83.2499978  50.9130014 119.4963010  82.4427668  51.2159946
 119.5759992  82.5439978  46.0630014 118.6839992  82.2039978  46.0040014
 120.0269992  82.1669978  45.3070014 119.5147642  82.4464910  45.9527726
 125.1119992  82.9599978  44.8800014 124.7029992  83.7749978  44.5880014
 125.8319992  82.8199978  44.2660014 125.1534439  83.0525372  44.7570115
 124.2139992  83.1359978  56.3680014 123.6509992  82.4309978  56.6890014
 125.0399992  83.0149978  56.8360014 124.2486674  83.0232165  56.4751751
 126.1169992  82.4059978  47.6940014 125.9209992  83.0119978  46.9790014
 126.2979992  81.5729978  47.2600014 126.1146584  82.3762513  47.5374212
 117.3289992  82.6439978  53.0180014 117.2909992  83.0439978  53.8870014
 116.8389992  81.8269978  53.1080014 117.2575330  82.5882674  53.1491289
 120.6949992  80.0179978  39.8170014 120.2639992  79.5729978  40.5460014
 119.9769992  80.3889978  39.3040014 120.5389176  80.0072051  39.8474930
 113.9379992  79.7599978  46.8690014 114.5679992  79.7309978  47.5880014
 114.3869992  79.3349978  46.1380014 114.0850835  79.6985660  46.8687659
 115.2119992  80.5059978  42.2930014 115.6859992  81.0969978  41.7080014
 114.4939992  81.0359978  42.6400014 115.1798640  80.6585511  42.2597969
 125.3809992  84.0439978  52.3650014 125.7039992  83.4129978  51.7220014
 124.9399992  83.5099978  53.0260014 125.3656379  83.8853468  52.3662582
 122.1579992  79.9719978  47.1490014 121.2469992  80.0289978  47.4380014
 122.6629992  79.9119978  47.9600014 122.1016873  79.9716826  47.2981207
 116.9859992  81.6009978  45.9760014 116.0969992  81.6999978  45.6360014
 117.2829992  80.7589978  45.6300014 116.9044177  81.5007687  45.8826940
 120.6389992  81.6009978  43.6330014 121.5709992  81.7299978  43.8110014
 120.4239992  82.2699978  42.9830014 120.7374472  81.7090806  43.5694891
 126.5629992  79.2069978  50.4140014 125.8859992  79.3379978  51.0770014
 126.0779992  79.0519978  49.6030014 126.4047405  79.2039947  50.3952170
 119.3129992  82.7949978  41.1990014 118.7709992  82.4159978  40.5080014
 120.1469992  82.9899978  40.7710014 119.3514390  82.7694079  41.0464392
 129.8509992  94.8779978  56.6900014 130.0499992  95.3019978  55.8560014
 130.5059992  95.2219978  57.2970014 129.9668522  94.9826301  56.6577852
 117.4489992  87.3519978  56.2980014 118.1809992  87.6069978  56.8600014
 116.6679992  87.5569978  56.8140014 117.4436526  87.4145450  56.4445176
 123.4779992  82.7589978  49.0360014 124.0419992  82.2129978  48.4890014
 123.3299992  82.2379978  49.8250014 123.5353037  82.6136787  49.0677229
 118.4799992  78.8959978  45.4550014 118.1629992  77.9929978  45.4190014
 119.2609992  78.8979978  44.9020014 118.5422431  78.7727797  45.3753102
 122.1039992  81.1479978  51.4500014 121.2689992  81.6019978  51.5610014
 122.6279992  81.4239978  52.2020014 122.0606072  81.2473948  51.5668136
 122.6489992  87.3609978  43.1350014 121.9039992  86.8529978  42.8130014
 122.5139992  87.4099978  44.0810014 122.5288963  87.2981731  43.2188826
 129.7989992  86.4939978  51.9220014 130.4399992  86.9499978  51.3780014
 128.9679992  86.6069978  51.4590014 129.7745287  86.5716921  51.7849887
 126.5459992  80.1749978  41.3340014 125.6079992  80.2859978  41.1830014
 126.8439992  81.0309978  41.6410014 126.4576318  80.3060158  41.3548145
 124.1679992  87.5449978  54.3720014 123.8219992  87.1629978  55.1790014
 123.9679992  88.4779978  54.4430014 124.0935987  87.6189002  54.4920461
 127.2649992  82.0419978  42.9950014 128.1569992  81.9039978  43.3140014
 127.3209992  82.8329978  42.4580014 127.3947325  82.1299918  42.9661217
 117.7729992  86.6559978  48.9050014 118.5179992  86.6529978  48.3030014
 117.8509992  85.8319978  49.3860014 117.8853365  86.5442384  48.8877430
 124.7739992  88.8189978  42.1600014 124.4789992  89.6459978  42.5420014
 124.0709992  88.1999978  42.3570014 124.6386379  88.8484171  42.2388654
 114.7809992  85.1159978  54.2200014 115.0039992  84.6979978  55.0510014
 114.1789992  84.5039978  53.7970014 114.7301513  84.9759606  54.2766740
 121.7979992  84.6329978  56.4330014 121.5019992  84.4679978  55.5370014
 122.7289992  84.4129978  56.4220014 121.8834401  84.5806879  56.3090206
 126.4179992  90.0069978  54.3220014 125.5179992  90.1899978  54.0550014
 126.4519992  90.2659978  55.2430014 126.2993748  90.0670554  54.4099164
 132.1499992  82.2509978  42.6900014 131.5949992  81.8549978  42.0170014
 132.2499992  83.1619978  42.4120014 132.0876816  82.3199505  42.5605033
 132.1129992  88.0519978  55.5270014 131.2619992  88.2899978  55.1590014
 132.7029992  88.0349978  54.7740014 132.0763812  88.0822524  55.3748453
 130.4449992  91.0369978  43.1550014 130.0719992  90.2119978  43.4640014
 130.7219992  90.8539978  42.2570014 130.4313463  90.8992569  43.0759525
 127.6049992  85.8449978  50.1760014 126.6769992  85.6139978  50.1490014
 128.0559992  85.0679978  49.8460014 127.5388165  85.7082774  50.1276790
 120.1479992  90.1739978  46.3090014 120.6759992  90.9469978  46.1090014
 119.2679992  90.3979978  46.0070014 120.1013435  90.3102700  46.2407310
 115.9029992  85.0359978  40.8960014 116.5189992  85.6629978  41.2760014
 115.0409992  85.3519978  41.1680014 115.8707678  85.1644412  40.9847209
 121.5759992  87.8369978  45.8850014 121.3349992  88.7619978  45.9270014
 120.8349992  87.3779978  46.2820014 121.4429206  87.9015915  45.9443769
 122.0899992  91.9859978  52.2000014 122.4529992  92.8399978  51.9670014
 122.6219992  91.6939978  52.9410014 122.2115141  92.0633895  52.2682097
 120.2589992  92.8579978  45.4310014 119.3089992  92.9639978  45.4820014
 120.6109992  93.6789978  45.7750014 120.1765472  92.9834923  45.4844852
 125.6339992  88.0849978  51.9010014 125.2089992  87.8569978  52.7270014
 126.2149992  87.3459978  51.7190014 125.6543395  87.9539545  51.9894414
 127.8369992  89.0139978  40.9750014 128.1909992  88.6339978  41.7790014
 126.8889992  88.9199978  41.0620014 127.7572298  88.9492452  41.0968687
 128.2929992  92.6369978  54.3700014 127.6909992  92.0809978  53.8750014
 128.5739992  93.3039978  53.7440014 128.2485757  92.6510744  54.2175675
 132.3409992  93.4929978  41.1760014 133.0849992  94.0789978  41.0360014
 131.6469992  94.0619978  41.5090014 132.3489809  93.6500818  41.2018590
 116.4149992  79.8699978  53.7780014 115.5229992  80.2079978  53.7100014
 116.3169992  79.0139978  54.1960014 116.2794475  79.8006543  53.8251704
 128.7029992  87.6859978  43.2020014 128.4259992  86.9579978  43.7580014
 129.6309992  87.8049978  43.4070014 128.7904499  87.6024213  43.3058044
 116.0669992  91.6739978  52.2130014 116.2839992  90.7419978  52.1820014
 116.3129992  91.9489978  53.0960014 116.1299809  91.5835686  52.3281691
 121.9279992  90.1259978  39.4220014 122.1669992  89.3769978  38.8750014
 121.6589992  89.7379978  40.2550014 121.9243233  89.9711853  39.4597809
 120.8649992  89.6959978  41.8780014 121.0119992  89.1759978  42.6680014
 120.8619992  90.6029978  42.1850014 120.8847102  89.7473953  42.0275925
 117.3179992  86.9479978  42.3890014 116.6319992  87.3009978  42.9560014
 117.8409992  87.7109978  42.1420014 117.2948402  87.0993901  42.4331801
 125.1499992  79.6109978  52.6680014 125.8489992  79.6849978  53.3180014
 124.7689992  78.7459978  52.8220014 125.1942097  79.5042389  52.7777997
 125.9339992  79.2629978  43.7650014 126.1539992  79.7339978  42.9610014
 126.4929992  79.6569978  44.4350014 126.0396731  79.3807287  43.7455033
 123.6029992  91.3929978  42.6280014 122.7859992  91.8899978  42.6800014
 124.1319992  91.8689978  41.9870014 123.5628125  91.5251989  42.5485306
 123.1339992  80.9909978  44.6000014 123.9459992  81.4949978  44.6460014
 122.8899992  80.8459978  45.5140014 123.2121467  81.0403749  44.7298575
 123.6699992  81.9769978  53.7840014 123.7889992  82.5509978  54.5410014
 124.3249992  81.2889978  53.8990014 123.7748684  81.9625194  53.9031674
 124.0179992  78.0719978  45.5380014 123.6709992  78.6889978  46.1820014
 124.6769992  78.5729978  45.0560014 124.0595090  78.2241575  45.5610681
 120.9409992  92.4369978  42.6090014 121.1019992  93.2369978  42.1090014
 120.7439992  92.7439978  43.4940014 120.9363906  92.5878678  42.6602333
 119.6759992  79.1349978  42.2250014 119.5919992  80.0229978  42.5720014
 120.5659992  78.8699978  42.4570014 119.7848163  79.2207179  42.3038596
 129.8739992  79.8839978  54.6190014 128.9579992  80.1459978  54.5320014
 130.2099992  79.8809978  53.7230014 129.7938499  79.9195163  54.4858766
 128.4769992  83.6339978  48.7150014 127.6789992  83.2189978  48.3870014
 128.9219992  82.9439978  49.2060014 128.4279684  83.4838628  48.7365227
 117.9339992  89.5619978  41.2850014 118.5259992  90.2619978  41.5620014
 118.3929992  89.1289978  40.5660014 118.0771652  89.5992675  41.2256533
 116.2499992  82.2269978  40.4010014 116.2049992  83.1659978  40.5800014
 115.3619992  81.9909978  40.1320014 116.1238166  82.3236687  40.3891524
 129.5629992  92.8899978  50.3370014 129.4069992  93.5689978  49.6800014
 130.4959992  92.9619978  50.5400014 129.6677387  92.9926390  50.2745342
 117.0579992  77.0079978  49.0750014 116.8289992  77.0669978  48.1470014
 116.6159992  76.2169978  49.3810014 116.9668801  76.9090540  48.9894729
 115.9889992  90.9489978  45.2350014 115.1559992  91.4209978  45.2620014
 116.5339992  91.4589978  44.6360014 115.9487857  91.0824791  45.1577142
 115.2769992  93.5609978  56.5650014 115.8169992  93.3449978  57.3250014
 114.7959992  92.7559978  56.3750014 115.2859219  93.4225156  56.6434282
 119.8739992  92.4809978  58.1850014 120.6419992  92.0219978  58.5260014
 119.8529992  92.2549978  57.2550014 119.9762135  92.3876668  58.1059491
 123.9659992  91.9889978  39.5610014 123.3219992  91.3579978  39.8820014
 124.7279992  91.4579978  39.3290014 123.9808058  91.8307902  39.5736038
 126.4509992  90.8609978  56.9140014 126.0999992  90.0039978  57.1580014
 127.1769992  91.0029978  57.5210014 126.5011895  90.7631351  57.0293770
 128.5709992  91.8059978  39.7940014 128.8539992  91.0109978  40.2470014
 129.3099992  92.0389978  39.2330014 128.7097096  91.7287049  39.7801104
 115.1839992  87.3719978  57.5190014 115.3279992  86.4699978  57.2330014
 114.4119992  87.6579978  57.0320014 115.0992733  87.2871798  57.4139532
 119.5249992  87.7149978  39.6520014 119.5899992  86.9209978  40.1820014
 120.1779992  87.5969978  38.9620014 119.6221605  87.5903430  39.6312997
 121.8389992  87.3409978  56.9520014 121.5109992  87.6119978  56.0950014
 121.9909992  86.3999978  56.8640014 121.8146412  87.2509046  56.8227822
 124.8779992  88.7619978  39.3880014 124.6089992  88.9429978  40.2880014
 124.6709992  87.8369978  39.2560014 124.8131191  88.6617119  39.4935524
 127.5739992  87.2569978  54.3350014 128.3189992  87.8459978  54.2160014
 126.8169992  87.8389978  54.3990014 127.5735470  87.4162128  54.3273799
 116.0169992  84.5719978  56.9390014 116.4249992  83.7149978  56.8180014
 115.7559992  84.5859978  57.8600014 116.0376016  84.4565119  57.0469192
 120.6749992  85.6879978  41.9580014 120.2149992  85.2039978  42.6430014
 120.9299992  85.0189978  41.3220014 120.6464856  85.5313669  41.9658397
 119.9639992  83.5809978  54.3140014 119.3449992  84.2549978  54.5940014
 120.3079992  83.9019978  53.4800014 119.9257123  83.7166887  54.2396388
 121.7459992  83.9309978  40.2200014 121.5649992  83.7759978  39.2930014
 122.6959992  84.0389978  40.2650014 121.8496566  83.9243669  40.0990929
 124.9829992  86.0519978  57.5910014 125.9369992  86.1359978  57.5640014
 124.8229992  85.3399978  58.2110014 125.0917182  85.9672842  57.6710733
 131.1359992  86.2849978  39.6660014 130.8619992  85.8609978  38.8530014
 131.1749992  87.2169978  39.4490014 131.1037716  86.3528827  39.5254286
 120.3029992  80.9359978  55.3960014 120.4529992  80.2069978  54.7940014
 120.3049992  81.7129978  54.8370014 120.3237967  80.9412708  55.2380541
 120.7159992  79.3049978  52.8890014 121.2509992  79.7569978  52.2370014
 119.8629992  79.1969978  52.4660014 120.6740374  79.3522665  52.7426710
 122.2969992  84.7449978  53.1280014 123.0479992  84.5889978  52.5550014
 121.9579992  85.5969978  52.8530014 122.3539587  84.8388138  53.0124078
 126.7129992  82.5599978  58.1570014 126.9049992  81.6289978  58.0450014
 127.5709992  82.9849978  58.1460014 126.8552182  82.4900070  58.1401862
 128.0299992  85.3489978  56.2340014 127.7479992  86.0579978  55.6560014
 128.9719992  85.2759978  56.0830014 128.1187921  85.4362193  56.1344225
 118.7819992  82.1339978  57.3070014 118.0139992  81.6009978  57.0970014
 119.4599992  81.8239978  56.7080014 118.7687235  82.0191754  57.1972413
 121.5209992  76.7619978  53.3200014 121.4229992  77.7079978  53.2150014
 120.7789992  76.3889978  52.8440014 121.4072534  76.8411773  53.2412600
 122.7849992  81.0829978  56.8840014 122.5499992  80.8639978  57.7850014
 122.0019992  80.8759978  56.3740014 122.6469095  81.0249892  56.9385353
 125.5009992  80.2109978  55.9590014 124.5529992  80.2429978  56.0910014
 125.8129992  79.5849978  56.6130014 125.4135293  80.1307923  56.0654148
 127.1349992  78.8449978  57.9640014 127.0379992  77.8929978  57.9590014
 126.8129992  79.1129978  58.8250014 127.0782468  78.7510884  58.0796210
 116.9619992  80.0539978  57.0120014 117.1739992  79.3479978  56.4020014
 116.8509992  79.6169978  57.8560014 116.9760269  79.8981921  57.0425873
 121.7429992  76.0559978  55.9910014 122.4549992  75.4159978  55.9770014
 121.6419992  76.3219978  55.0780014 121.8267387  76.0044330  55.8655563
 122.0969992  77.7379978  58.0450014 121.9649992  77.2629978  57.2250014
 121.4969992  78.4829978  57.9900014 121.9979070  77.7735789  57.9253251
 121.6429992  94.6209978  41.2210014 122.5759992  94.7789978  41.3650014
 121.3789992  95.2969978  40.5960014 121.7349911  94.7339373  41.1562722
 115.2109992  89.2579978  40.7040014 116.1249992  89.3369978  40.9770014
 115.2189992  88.5709978  40.0380014 115.3370655  89.1759205  40.6512917
 113.8599992  94.6509978  45.7810014 113.2129992  94.1889978  45.2490014
 114.2149992  93.9789978  46.3640014 113.8193741  94.4969774  45.7869175
 114.7299992  92.7309978  47.5860014 114.3959992  91.8509978  47.7580014
 114.9529992  93.0769978  48.4510014 114.7143721  92.6571938  47.7264168
 132.2789992  93.5409978  50.5670014 132.2569992  93.7259978  51.5060014
 132.9689992  94.1089978  50.2260014 132.3693439  93.6431887  50.6494791
 131.8419992  93.1079978  53.4880014 131.3549992  92.3729978  53.1170014
 132.3909992  92.7139978  54.1660014 131.8495247  92.9541057  53.5288461
 130.2929992  88.8979978  58.1270014 129.4269992  88.7929978  58.5210014
 130.6689992  89.6559978  58.5730014 130.2253401  88.9861708  58.2412620
 131.5939992  87.1539978  43.6410014 132.4439992  87.5749978  43.7680014
 131.5989992  86.4139978  44.2480014 131.7111143  87.1116094  43.7404750
 131.9879992  85.2079978  45.4640014 131.2619992  84.7279978  45.8620014
 132.5699992  85.4129978  46.1970014 131.9672730  85.1700184  45.6174149
 131.7469992  87.9929978  50.4120014 132.5809992  87.6149978  50.1310014
 131.8589992  88.9359978  50.2930014 131.8761917  88.0687943  50.3574861
 130.2339992  90.8709978  52.7190014 129.5859992  91.1959978  53.3440014
 129.7159992  90.4299978  52.0450014 130.0754196  90.8558651  52.7134152
 132.2569992  85.1089978  41.8550014 131.7349992  85.4649978  41.1370014
 132.2239992  85.7839978  42.5340014 132.1810129  85.2489598  41.8483355
 130.6059992  82.3479978  40.4060014 130.7019992  83.0149978  39.7260014
 130.4659992  81.5329978  39.9250014 130.6002040  82.3290671  40.2478378
 129.7749992  83.7289978  46.0270014 129.6249992  82.7839978  46.0070014
 129.4209992  84.0099978  46.8710014 129.7066351  83.6376644  46.1383220
 114.8099992  85.8069978  50.0380014 114.9949992  85.7249978  49.1020014
 115.6599992  85.6829978  50.4610014 114.9500928  85.7790463  49.9672893
 130.6309992  85.6989978  55.6660014 131.2139992  84.9639978  55.8580014
 131.1949992  86.4709978  55.7130014 130.7869781  85.7028145  55.6986164
 132.1279992  83.6019978  56.3510014 131.2649992  83.2229978  56.1850014
 132.7319992  82.8629978  56.2760014 132.0916085  83.4503223  56.3181695
 129.8529992  79.7559978  39.5240014 130.4639992  79.3849978  40.1610014
 129.0159992  79.3349978  39.7200014 129.8234947  79.6482756  39.6377252
 129.4859992  81.3109978  44.4900014 129.7649992  80.4039978  44.6140014
 130.2449992  81.7449978  44.1010014 129.6268619  81.2454502  44.4543795
 130.0969992  81.8929978  49.9260014 131.0299992  82.1049978  49.8910014
 129.8619992  81.9939978  50.8480014 130.1929517  81.9356833  50.0459130
 130.1269992  82.6299978  52.7020014 129.2839992  82.8979978  53.0680014
 130.5689992  83.4519978  52.4910014 130.0714138  82.7778273  52.7235518
 114.4079992  81.0769978  56.1780014 115.3269992  80.9549978  56.4150014
 113.9579992  80.3269978  56.5680014 114.4730087  80.9589608  56.2631410
 132.4099992  76.6099978  58.0550014 132.7589992  75.9559978  57.4500014
 132.5569992  77.4469978  57.6150014 132.4776824  76.6336024  57.9126304
 130.0989992  78.5739978  44.5380014 130.2809992  78.1249978  45.3630014
 129.4989992  77.9899978  44.0740014 130.0428187  78.4335552  44.5882739
 115.6289992  79.3899978  49.0700014 116.0739992  78.5979978  49.3720014
 116.0949992  80.1059978  49.5000014 115.7529718  79.3784534  49.1695265
 113.9329992  82.3889978  50.1390014 114.4249992  82.1679978  49.3480014
 114.2949992  83.2289978  50.4200014 114.0492923  82.4723468  50.0687407
 131.9289992  78.7189978  56.4040014 131.0119992  78.9899978  56.3690014
 132.0519992  78.1839978  55.6200014 131.8199672  78.6837885  56.2931862
 131.9659992  78.6419978  41.0660014 132.3779992  77.9209978  40.5910014
 132.6469992  79.3109978  41.1240014 132.1145536  78.6337766  41.0088024
 114.2469992  78.6469978  44.1930014 113.3219992  78.8549978  44.0640014
 114.7009992  79.1309978  43.5030014 114.1816298  78.7409299  44.0820451
 129.0169992  93.6309978  46.1390014 129.6699992  93.2829978  45.5310014
 129.5279992  94.1189978  46.7850014 129.1752777  93.6493815  46.1432047
 114.2099992  77.3849978  52.5370014 113.5449992  77.1389978  53.1800014
 113.7669992  78.0069978  51.9600014 114.0591168  77.4354214  52.5469848
 116.4019992  90.5599978  56.6820014 115.5809992  90.7349978  56.2210014
 116.1499992  90.4869978  57.6020014 116.2555594  90.5740717  56.7433611
 119.3559992  91.5339978  52.9400014 118.9319992  92.3439978  52.6580014
 120.2609992  91.6199978  52.6380014 119.4202138  91.6564160  52.8606415
 123.6679992  92.9329978  55.9000014 123.8519992  92.5999978  56.7780014
 124.5139992  93.2429978  55.5780014 123.8076484  92.9292979  55.9767617
 126.0129992  94.2189978  55.1440014 126.6899992  93.5859978  54.9040014
 126.3339992  94.6199978  55.9510014 126.1491323  94.1865691  55.2203158
 130.9299992  76.8089978  54.2230014 130.1169992  77.1339978  53.8360014
 131.1629992  76.0479978  53.6900014 130.8501347  76.7506880  54.0979841
 116.7579992  94.7909978  52.9880014 116.0379992  95.2309978  52.5370014
 116.3929992  94.5399978  53.8360014 116.6099643  94.8173369  53.0409129
 119.2249992  94.3909978  52.0180014 118.3609992  94.4629978  52.4220014
 119.1699992  94.9379978  51.2340014 119.0991942  94.4747849  51.9674000
 123.9359992  94.2789978  51.1930014 123.4789992  94.8079978  50.5390014
 124.0989992  94.8819978  51.9180014 123.8954960  94.4329280  51.2015274
 126.2639992  93.1569978  52.1380014 125.3589992  93.3219978  51.8720014
 126.6919992  94.0099978  52.0720014 126.1981537  93.2949134  52.0927095
 128.8679992  94.7269978  52.4330014 128.6859992  95.6429978  52.2220014
 129.0449992  94.3159978  51.5860014 128.8670030  94.7968273  52.2897166
 116.1729992  93.4139978  49.8980014 116.1549992  92.9879978  50.7550014
 116.9779992  93.0949978  49.4890014 116.2792875  93.3126435  49.9599515
 118.3139992  92.1239978  48.5530014 118.0949992  91.2069978  48.7230014
 119.1379992  92.2639978  49.0190014 118.3954702  92.0175511  48.6392527
 120.8509992  92.5939978  49.4020014 121.0639992  91.7059978  49.1150014
 120.9159992  92.5589978  50.3560014 120.8889149  92.4678326  49.4917369
 124.3599992  78.2579978  48.5460014 123.6859992  77.6279978  48.8020014
 124.9239992  77.7739978  47.9430014 124.3440384  78.1063708  48.4995020
 129.5029992  76.3649978  48.6590014 130.1059992  76.9129978  48.1570014
 128.6329992  76.6839978  48.4180014 129.4679157  76.4830373  48.5577910
 131.2299992  77.5039978  46.9920014 131.8409992  76.9899978  46.4650014
 131.6119992  78.3809978  47.0150014 131.3653305  77.5522050  46.9229418
 116.6869992  76.8919978  46.3680014 115.9099992  76.6569978  45.8610014
 117.2169992  76.0949978  46.3770014 116.6523451  76.7521268  46.2998627
 115.5229992  76.6899978  42.1720014 115.9619992  77.3009978  41.5800014
 114.8889992  77.2279978  42.6460014 115.4973859  76.8464064  42.1550305
 121.2659992  76.8179978  46.1810014 122.1399992  77.2069978  46.1520014
 121.1299992  76.6029978  47.1040014 121.3671953  76.8421643  46.3017617
 126.8229992  76.8479978  47.8310014 126.8989992  76.9439978  46.8810014
 126.5479992  75.9409978  47.9590014 126.7961871  76.7384146  47.7183944
 128.1759992  76.8739978  43.5230014 127.4729992  77.4889978  43.3130014
 127.7309992  76.0369978  43.6540014 128.0196550  76.8449668  43.5119837
 115.4239992  92.6379978  43.0690014 114.7389992  92.5999978  42.4020014
 115.4279992  93.5509978  43.3570014 115.3307621  92.7561924  43.0166126
 117.3839992  78.6059978  40.6140014 117.8749992  77.9759978  40.0870014
 118.0069992  78.9019978  41.2770014 117.5355304  78.5597376  40.6314940
 122.4099992  78.8989978  43.0710014 122.5879992  78.2519978  43.7540014
 122.3559992  79.7329978  43.5380014 122.4270678  78.9231604  43.2276301
 124.2879992  93.8469978  41.4670014 125.1539992  94.2139978  41.2890014
 124.0419992  93.4079978  40.6530014 124.3732097  93.8378525  41.3326019
 130.9969992  93.4099978  44.1460014 130.8029992  92.6619978  43.5810014
 130.9579992  94.1679978  43.5630014 130.9651645  93.4100786  43.9898148
 116.6439992  77.4059978  55.8860014 116.2779992  76.6399978  56.3280014
 117.5569992  77.4349978  56.1720014 116.7173172  77.3050324  55.9851890
 118.6169992  76.7559978  57.4210014 119.5159992  76.4819978  57.2370014
 118.2309992  76.0139978  57.8860014 118.6877307  76.6182196  57.4587098
 117.2419992  93.5579978  40.0940014 116.9739992  93.8439978  40.9680014
 118.0129992  93.0119978  40.2470014 117.3095926  93.5232779  40.2341205
 127.0389992  76.0889978  57.6040014 127.1149992  75.6629978  58.4570014
 127.9319992  76.1019978  57.2610014 127.1702303  76.0323493  57.6745497
 130.2149992  92.1619978  56.2960014 129.4329992  91.9749978  55.7760014
 130.1429992  93.0909978  56.5130014 130.0981924  92.2620637  56.2541602
 144.6209992  86.0479978  46.3270014 144.7099992  86.9919978  46.1950014
 143.9829992  85.7729978  45.6690014 144.5469062  86.1399812  46.2199641
 143.5539992  85.3029978  49.7460014 143.5159992  84.6569978  50.4510014
 143.2319992  84.8359978  48.9750014 143.5052679  85.1514276  49.7382921
 135.9219992  84.9169978  51.3390014 135.9639992  84.2919978  52.0620014
 136.6249992  85.5409978  51.5210014 136.0227345  84.9157873  51.4625273
 136.8459992  89.3669978  49.8740014 136.4759992  88.5649978  49.5040014
 137.7869992  89.1989978  49.9200014 136.9225984  89.2344638  49.8295603
 133.4559992  83.0269978  45.2660014 133.0079992  83.8729978  45.2480014
 132.8949992  82.4479978  44.7510014 133.3188546  83.0643993  45.1938891
 134.1659992  85.1889978  47.3920014 134.3799992  84.4189978  47.9200014
 134.9039992  85.2789978  46.7890014 134.2950200  85.0958587  47.3827035
 144.3719992  93.3459978  48.2590014 144.9909992  92.6699978  47.9860014
 144.1629992  93.1279978  49.1680014 144.4286056  93.2238869  48.3443967
 141.9429992  87.7349978  50.1520014 142.2469992  87.0489978  49.5570014
 142.6649992  87.8539978  50.7700014 142.0821240  87.6572314  50.1540959
 145.0839992  82.1289978  50.4790014 145.2269992  81.1829978  50.4990014
 144.9779992  82.3359978  49.5510014 145.0892403  82.0274797  50.3562239
 138.2389992  80.2309978  47.7520014 138.2819992  81.0909978  47.3330014
 137.7809992  79.6789978  47.1180014 138.1829871  80.2739245  47.6090761
 134.8589992  82.6279978  48.5140014 135.5129992  82.0779978  48.9460014
 134.8829992  82.3539978  47.5970014 134.9517199  82.5157167  48.4491668
 140.0159992  84.1779978  47.7290014 140.6319992  83.6509978  48.2380014
 139.4289992  83.5379978  47.3250014 140.0210154  84.0193954  47.7440945
 137.0489992  79.1489978  51.8260014 136.8299992  79.6789978  51.0590014
 136.3809992  79.3749978  52.4730014 136.9286975  79.2520967  51.8085140
 144.4179992  88.6489978  45.3700014 144.1229992  88.3259978  44.5180014
 144.0939992  89.5489978  45.4110014 144.3338460  88.7264464  45.2589714
 139.6179992  86.8239978  52.1130014 138.8779992  87.4229978  52.2170014
 140.3319992  87.3779978  51.7980014 139.6133500  86.9807829  52.0846371
 136.6429992  81.0409978  49.7780014 137.2569992  81.6739978  50.1510014
 137.1549992  80.5689978  49.1220014 136.7961962  81.0637249  49.7402935
 138.0259992  88.7889978  52.9000014 138.0199992  89.6679978  52.5220014
 137.1719992  88.7049978  53.3250014 137.9097925  88.8979535  52.9056887
 134.1469992  88.4599978  43.6820014 133.8749992  88.6889978  42.7940014
 134.1919992  89.2969978  44.1430014 134.1158097  88.6046163  43.6226683
 141.0759992  76.4539978  49.2780014 140.9579992  75.5059978  49.2240014
 140.2209992  76.7869978  49.5510014 140.9442805  76.3692202  49.3075079
 143.3419992  85.2919978  43.7790014 142.6309992  85.8269978  43.4270014
 144.0329992  85.3469978  43.1190014 143.3380751  85.3726777  43.6415858
 143.3959992  83.7489978  40.8170014 144.0969992  83.7719978  41.4690014
 143.6979992  83.1209978  40.1610014 143.5328202  83.6672212  40.8175609
 138.3929992  86.1319978  46.6130014 138.0629992  85.7609978  45.7950014
 138.9819992  85.4609978  46.9600014 138.4273970  85.9906063  46.5479404
 139.7599992  89.5599978  49.2940014 139.6649992  88.9809978  48.5380014
 140.4889992  89.1889978  49.7900014 139.8456011  89.4305561  49.2576028
 138.7599992  84.8999978  50.2460014 139.3249992  85.0219978  49.4840014
 139.0789992  85.5379978  50.8850014 138.8804166  85.0028791  50.2280348
 145.0689992  90.4039978  50.9800014 144.8289992  91.0659978  51.6280014
 144.8709992  89.5689978  51.4050014 145.0093826  90.3818115  51.1261566
 139.6399992  89.2999978  54.9640014 139.3289992  90.0819978  55.4190014
 138.9899992  89.1469978  54.2780014 139.5095538  89.3864087  54.9335898
 136.5599992  85.4979978  54.1920014 136.6299992  86.1489978  54.8910014
 135.6689992  85.6009978  53.8570014 136.4491690  85.6009249  54.2423043
 143.3449992  91.3999978  45.8510014 143.8189992  91.6959978  46.6280014
 142.7819992  92.1389978  45.6180014 143.3337890  91.5403036  45.9258101
 137.8789992  91.3709978  55.7270014 137.8869992  91.2349978  54.7800014
 136.9629992  91.2539978  55.9790014 137.7562528  91.3365463  55.6313243
 137.3839992  85.2009978  44.2020014 137.0919992  85.9689978  43.7110014
 136.7089992  84.5419978  44.0390014 137.2528497  85.2169745  44.1128260
 133.4769992  87.5639978  53.0170014 132.9749992  87.5359978  52.2020014
 133.4819992  86.6589978  53.3270014 133.4089832  87.4377486  52.9474121
 133.2269992  90.3449978  49.9010014 134.1729992  90.1999978  49.8820014
 133.1139992  91.1289978  50.4380014 133.3413578  90.4311697  49.9710317
 142.4029992  90.5849978  54.4600014 142.4909992  91.4109978  54.9350014
 141.5399992  90.2549978  54.7090014 142.2983357  90.6535468  54.5587653
 142.8179992  94.3569978  44.2660014 142.7419992  94.2359978  43.3190014
 142.8499992  95.3059978  44.3840014 142.8119380  94.4687677  44.1525181
 136.4709992  93.1459978  46.0470014 136.6229992  92.7979978  46.9250014
 135.6199992  92.7889978  45.7910014 136.3768344  93.0500879  46.1326868
 135.7259992  88.8879978  54.0600014 135.9419992  88.5259978  54.9200014
 134.8699992  88.5129978  53.8510014 135.6398810  88.7878837  54.1492680
 138.3439992  77.3579978  50.0560014 137.4829992  77.2709978  49.6480014
 138.3219992  78.2139978  50.4840014 138.2230491  77.4618003  50.0579582
 143.0069992  77.0799978  53.4310014 143.4269992  76.6649978  54.1840014
 142.0739992  76.9009978  53.5480014 142.9383736  76.9989910  53.5498968
 142.6689992  79.5719978  40.7160014 142.4149992  79.5909978  41.6380014
 142.4119992  78.7009978  40.4140014 142.5994508  79.4568280  40.8014803
 138.4349992  82.3229978  51.1510014 137.7939992  82.2829978  51.8600014
 138.4729992  83.2499978  50.9130014 138.3523010  82.4427668  51.2159946
 138.4319992  82.5439978  46.0630014 137.5399992  82.2039978  46.0040014
 138.8829992  82.1669978  45.3070014 138.3707642  82.4464910  45.9527726
 143.9679992  82.9599978  44.8800014 143.5589992  83.7749978  44.5880014
 144.6879992  82.8199978  44.2660014 144.0094439  83.0525372  44.7570115
 143.0699992  83.1359978  56.3680014 142.5069992  82.4309978  56.6890014
 143.8959992  83.0149978  56.8360014 143.1046674  83.0232165  56.4751751
 144.9729992  82.4059978  47.6940014 144.7769992  83.0119978  46.9790014
 145.1539992  81.5729978  47.2600014 144.9706584  82.3762513  47.5374212
 136.1849992  82.6439978  53.0180014 136.1469992  83.0439978  53.8870014
 135.6949992  81.8269978  53.1080014 136.1135330  82.5882674  53.1491289
 139.5509992  80.0179978  39.8170014 139.1199992  79.5729978  40.5460014
 138.8329992  80.3889978  39.3040014 139.3949176  80.0072051  39.8474930
 132.7939992  79.7599978  46.8690014 133.4239992  79.7309978  47.5880014
 133.2429992  79.3349978  46.1380014 132.9410835  79.6985660  46.8687659
 134.0679992  80.5059978  42.2930014 134.5419992  81.0969978  41.7080014
 133.3499992  81.0359978  42.6400014 134.0358640  80.6585511  42.2597969
 144.2369992  84.0439978  52.3650014 144.5599992  83.4129978  51.7220014
 143.7959992  83.5099978  53.0260014 144.2216379  83.8853468  52.3662582
 141.0139992  79.9719978  47.1490014 140.1029992  80.0289978  47.4380014
 141.5189992  79.9119978  47.9600014 140.9576873  79.9716826  47.2981207
 135.8419992  81.6009978  45.9760014 134.9529992  81.6999978  45.6360014
 136.1389992  80.7589978  45.6300014 135.7604177  81.5007687  45.8826940
 139.4949992  81.6009978  43.6330014 140.4269992  81.7299978  43.8110014
 139.2799992  82.2699978  42.9830014 139.5934472  81.7090806  43.5694891
 145.4189992  79.2069978  50.4140014 144.7419992  79.3379978  51.0770014
 144.9339992  79.0519978  49.6030014 145.2607405  79.2039947  50.3952170
 138.1689992  82.7949978  41.1990014 137.6269992  82.4159978  40.5080014
 139.0029992  82.9899978  40.7710014 138.2074390  82.7694079  41.0464392
 136.3049992  87.3519978  56.2980014 137.0369992  87.6069978  56.8600014
 135.5239992  87.5569978  56.8140014 136.2996526  87.4145450  56.4445176
 142.3339992  82.7589978  49.0360014 142.8979992  82.2129978  48.4890014
 142.1859992  82.2379978  49.8250014 142.3913037  82.6136787  49.0677229
 137.3359992  78.8959978  45.4550014 137.0189992  77.9929978  45.4190014
 138.1169992  78.8979978  44.9020014 137.3982431  78.7727797  45.3753102
 140.9599992  81.1479978  51.4500014 140.1249992  81.6019978  51.5610014
 141.4839992  81.4239978  52.2020014 140.9166072  81.2473948  51.5668136
 141.5049992  87.3609978  43.1350014 140.7599992  86.8529978  42.8130014
 141.3699992  87.4099978  44.0810014 141.3848963  87.2981731  43.2188826
 145.4019992  80.1749978  41.3340014 144.4639992  80.2859978  41.1830014
 145.6999992  81.0309978  41.6410014 145.3136318  80.3060158  41.3548145
 143.0239992  87.5449978  54.3720014 142.6779992  87.1629978  55.1790014
 142.8239992  88.4779978  54.4430014 142.9495987  87.6189002  54.4920461
 136.6289992  86.6559978  48.9050014 137.3739992  86.6529978  48.3030014
 136.7069992  85.8319978  49.3860014 136.7413365  86.5442384  48.8877430
 143.6299992  88.8189978  42.1600014 143.3349992  89.6459978  42.5420014
 142.9269992  88.1999978  42.3570014 143.4946379  88.8484171  42.2388654
 133.6369992  85.1159978  54.2200014 133.8599992  84.6979978  55.0510014
 133.0349992  84.5039978  53.7970014 133.5861513  84.9759606  54.2766740
 140.6539992  84.6329978  56.4330014 140.3579992  84.4679978  55.5370014
 141.5849992  84.4129978  56.4220014 140.7394401  84.5806879  56.3090206
 145.2739992  90.0069978  54.3220014 144.3739992  90.1899978  54.0550014
 145.3079992  90.2659978  55.2430014 145.1553748  90.0670554  54.4099164
 139.0039992  90.1739978  46.3090014 139.5319992  90.9469978  46.1090014
 138.1239992  90.3979978  46.0070014 138.9573435  90.3102700  46.2407310
 134.7589992  85.0359978  40.8960014 135.3749992  85.6629978  41.2760014
 133.8969992  85.3519978  41.1680014 134.7267678  85.1644412  40.9847209
 140.4319992  87.8369978  45.8850014 140.1909992  88.7619978  45.9270014
 139.6909992  87.3779978  46.2820014 140.2989206  87.9015915  45.9443769
 140.9459992  91.9859978  52.2000014 141.3089992  92.8399978  51.9670014
 141.4779992  91.6939978  52.9410014 141.0675141  92.0633895  52.2682097
 139.1149992  92.8579978  45.4310014 138.1649992  92.9639978  45.4820014
 139.4669992  93.6789978  45.7750014 139.0325472  92.9834923  45.4844852
 144.4899992  88.0849978  51.9010014 144.0649992  87.8569978  52.7270014
 145.0709992  87.3459978  51.7190014 144.5103395  87.9539545  51.9894414
 135.2709992  79.8699978  53.7780014 134.3789992  80.2079978  53.7100014
 135.1729992  79.0139978  54.1960014 135.1354475  79.8006543  53.8251704
 134.9229992  91.6739978  52.2130014 135.1399992  90.7419978  52.1820014
 135.1689992  91.9489978  53.0960014 134.9859809  91.5835686  52.3281691
 140.7839992  90.1259978  39.4220014 141.0229992  89.3769978  38.8750014
 140.5149992  89.7379978  40.2550014 140.7803233  89.9711853  39.4597809
 139.7209992  89.6959978  41.8780014 139.8679992  89.1759978  42.6680014
 139.7179992  90.6029978  42.1850014 139.7407102  89.7473953  42.0275925
 136.1739992  86.9479978  42.3890014 135.4879992  87.3009978  42.9560014
 136.6969992  87.7109978  42.1420014 136.1508402  87.0993901  42.4331801
 144.0059992  79.6109978  52.6680014 144.7049992  79.6849978  53.3180014
 143.6249992  78.7459978  52.8220014 144.0502097  79.5042389  52.7777997
 144.7899992  79.2629978  43.7650014 145.0099992  79.7339978  42.9610014
 145.3489992  79.6569978  44.4350014 144.8956731  79.3807287  43.7455033
 142.4589992  91.3929978  42.6280014 141.6419992  91.8899978  42.6800014
 142.9879992  91.8689978  41.9870014 142.4188125  91.5251989  42.5485306
 141.9899992  80.9909978  44.6000014 142.8019992  81.4949978  44.6460014
 141.7459992  80.8459978  45.5140014 142.0681467  81.0403749  44.7298575
 142.5259992  81.9769978  53.7840014 142.6449992  82.5509978  54.5410014
 143.1809992  81.2889978  53.8990014 142.6308684  81.9625194  53.9031674
 142.8739992  78.0719978  45.5380014 142.5269992  78.6889978  46.1820014
 143.5329992  78.5729978  45.0560014 142.9155090  78.2241575  45.5610681
 139.7969992  92.4369978  42.6090014 139.9579992  93.2369978  42.1090014
 139.5999992  92.7439978  43.4940014 139.7923906  92.5878678  42.6602333
 138.5319992  79.1349978  42.2250014 138.4479992  80.0229978  42.5720014
 139.4219992  78.8699978  42.4570014 138.6408163  79.2207179  42.3038596
 136.7899992  89.5619978  41.2850014 137.3819992  90.2619978  41.5620014
 137.2489992  89.1289978  40.5660014 136.9331652  89.5992675  41.2256533
 135.1059992  82.2269978  40.4010014 135.0609992  83.1659978  40.5800014
 134.2179992  81.9909978  40.1320014 134.9798166  82.3236687  40.3891524
 135.9139992  77.0079978  49.0750014 135.6849992  77.0669978  48.1470014
 135.4719992  76.2169978  49.3810014 135.8228801  76.9090540  48.9894729
 134.8449992  90.9489978  45.2350014 134.0119992  91.4209978  45.2620014
 135.3899992  91.4589978  44.6360014 134.8047857  91.0824791  45.1577142
 134.1329992  93.5609978  56.5650014 134.6729992  93.3449978  57.3250014
 133.6519992  92.7559978  56.3750014 134.1419219  93.4225156  56.6434282
 138.7299992  92.4809978  58.1850014 139.4979992  92.0219978  58.5260014
 138.7089992  92.2549978  57.2550014 138.8322135  92.3876668  58.1059491
 142.8219992  91.9889978  39.5610014 142.1779992  91.3579978  39.8820014
 143.5839992  91.4579978  39.3290014 142.8368058  91.8307902  39.5736038
 145.3069992  90.8609978  56.9140014 144.9559992  90.0039978  57.1580014
 146.0329992  91.0029978  57.5210014 145.3571895  90.7631351  57.0293770
 134.0399992  87.3719978  57.5190014 134.1839992  86.4699978  57.2330014
 133.2679992  87.6579978  57.0320014 133.9552733  87.2871798  57.4139532
 138.3809992  87.7149978  39.6520014 138.4459992  86.9209978  40.1820014
 139.0339992  87.5969978  38.9620014 138.4781605  87.5903430  39.6312997
 140.6949992  87.3409978  56.9520014 140.3669992  87.6119978  56.0950014
 140.8469992  86.3999978  56.8640014 140.6706412  87.2509046  56.8227822
 143.7339992  88.7619978  39.3880014 143.4649992  88.9429978  40.2880014
 143.5269992  87.8369978  39.2560014 143.6691191  88.6617119  39.4935524
 134.8729992  84.5719978  56.9390014 135.2809992  83.7149978  56.8180014
 134.6119992  84.5859978  57.8600014 134.8936016  84.4565119  57.0469192
 139.5309992  85.6879978  41.9580014 139.0709992  85.2039978  42.6430014
 139.7859992  85.0189978  41.3220014 139.5024856  85.5313669  41.9658397
 138.8199992  83.5809978  54.3140014 138.2009992  84.2549978  54.5940014
 139.1639992  83.9019978  53.4800014 138.7817123  83.7166887  54.2396388
 140.6019992  83.9309978  40.2200014 140.4209992  83.7759978  39.2930014
 141.5519992  84.0389978  40.2650014 140.7056566  83.9243669  40.0990929
 143.8389992  86.0519978  57.5910014 144.7929992  86.1359978  57.5640014
 143.6789992  85.3399978  58.2110014 143.9477182  85.9672842  57.6710733
 139.1589992  80.9359978  55.3960014 139.3089992  80.2069978  54.7940014
 139.1609992  81.7129978  54.8370014 139.1797967  80.9412708  55.2380541
 139.5719992  79.3049978  52.8890014 140.1069992  79.7569978  52.2370014
 138.7189992  79.1969978  52.4660014 139.5300374  79.3522665  52.7426710
 141.1529992  84.7449978  53.1280014 141.9039992  84.5889978  52.5550014
 140.8139992  85.5969978  52.8530014 141.2099587  84.8388138  53.0124078
 145.5689992  82.5599978  58.1570014 145.7609992  81.6289978  58.0450014
 146.4269992  82.9849978  58.1460014 145.7112182  82.4900070  58.1401862
 137.6379992  82.1339978  57.3070014 136.8699992  81.6009978  57.0970014
 138.3159992  81.8239978  56.7080014 137.6247235  82.0191754  57.1972413
 140.3769992  76.7619978  53.3200014 140.2789992  77.7079978  53.2150014
 139.6349992  76.3889978  52.8440014 140.2632534  76.8411773  53.2412600
 141.6409992  81.0829978  56.8840014 141.4059992  80.8639978  57.7850014
 140.8579992  80.8759978  56.3740014 141.5029095  81.0249892  56.9385353
 144.3569992  80.2109978  55.9590014 143.4089992  80.2429978  56.0910014
 144.6689992  79.5849978  56.6130014 144.2695293  80.1307923  56.0654148
 135.8179992  80.0539978  57.0120014 136.0299992  79.3479978  56.4020014
 135.7069992  79.6169978  57.8560014 135.8320269  79.8981921  57.0425873
 140.5989992  76.0559978  55.9910014 141.3109992  75.4159978  55.9770014
 140.4979992  76.3219978  55.0780014 140.6827387  76.0044330  55.8655563
 140.9529992  77.7379978  58.0450014 140.8209992  77.2629978  57.2250014
 140.3529992  78.4829978  57.9900014 140.8539070  77.7735789  57.9253251
 140.4989992  94.6209978  41.2210014 141.4319992  94.7789978  41.3650014
 140.2349992  95.2969978  40.5960014 140.5909911  94.7339373  41.1562722
 134.0669992  89.2579978  40.7040014 134.9809992  89.3369978  40.9770014
 134.0749992  88.5709978  40.0380014 134.1930655  89.1759205  40.6512917
 132.7159992  94.6509978  45.7810014 132.0689992  94.1889978  45.2490014
 133.0709992  93.9789978  46.3640014 132.6753741  94.4969774  45.7869175
 133.5859992  92.7309978  47.5860014 133.2519992  91.8509978  47.7580014
 133.8089992  93.0769978  48.4510014 133.5703721  92.6571938  47.7264168
 133.6659992  85.8069978  50.0380014 133.8509992  85.7249978  49.1020014
 134.5159992  85.6829978  50.4610014 133.8060928  85.7790463  49.9672893
 133.2639992  81.0769978  56.1780014 134.1829992  80.9549978  56.4150014
 132.8139992  80.3269978  56.5680014 133.3290087  80.9589608  56.2631410
 134.4849992  79.3899978  49.0700014 134.9299992  78.5979978  49.3720014
 134.9509992  80.1059978  49.5000014 134.6089718  79.3784534  49.1695265
 132.7889992  82.3889978  50.1390014 133.2809992  82.1679978  49.3480014
 133.1509992  83.2289978  50.4200014 132.9052923  82.4723468  50.0687407
 133.1029992  78.6469978  44.1930014 132.1779992  78.8549978  44.0640014
 133.5569992  79.1309978  43.5030014 133.0376298  78.7409299  44.0820451
 133.0659992  77.3849978  52.5370014 132.4009992  77.1389978  53.1800014
 132.6229992  78.0069978  51.9600014 132.9151168  77.4354214  52.5469848
 135.2579992  90.5599978  56.6820014 134.4369992  90.7349978  56.2210014
 135.0059992  90.4869978  57.6020014 135.1115594  90.5740717  56.7433611
 138.2119992  91.5339978  52.9400014 137.7879992  92.3439978  52.6580014
 139.1169992  91.6199978  52.6380014 138.2762138  91.6564160  52.8606415
 142.5239992  92.9329978  55.9000014 142.7079992  92.5999978  56.7780014
 143.3699992  93.2429978  55.5780014 142.6636484  92.9292979  55.9767617
 144.8689992  94.2189978  55.1440014 145.5459992  93.5859978  54.9040014
 145.1899992  94.6199978  55.9510014 145.0051323  94.1865691  55.2203158
 135.6139992  94.7909978  52.9880014 134.8939992  95.2309978  52.5370014
 135.2489992  94.5399978  53.8360014 135.4659643  94.8173369  53.0409129
 138.0809992  94.3909978  52.0180014 137.2169992  94.4629978  52.4220014
 138.0259992  94.9379978  51.2340014 137.9551942  94.4747849  51.9674000
 142.7919992  94.2789978  51.1930014 142.3349992  94.8079978  50.5390014
 142.9549992  94.8819978  51.9180014 142.7514960  94.4329280  51.2015274
 145.1199992  93.1569978  52.1380014 144.2149992  93.3219978  51.8720014
 145.5479992  94.0099978  52.0720014 145.0541537  93.2949134  52.0927095
 135.0289992  93.4139978  49.8980014 135.0109992  92.9879978  50.7550014
 135.8339992  93.0949978  49.4890014 135.1352875  93.3126435  49.9599515
 137.1699992  92.1239978  48.5530014 136.9509992  91.2069978  48.7230014
 137.9939992  92.2639978  49.0190014 137.2514702  92.0175511  48.6392527
 139.7069992  92.5939978  49.4020014 139.9199992  91.7059978  49.1150014
 139.7719992  92.5589978  50.3560014 139.7449149  92.4678326  49.4917369
 143.2159992  78.2579978  48.5460014 142.5419992  77.6279978  48.8020014
 143.7799992  77.7739978  47.9430014 143.2000384  78.1063708  48.4995020
 135.5429992  76.8919978  46.3680014 134.7659992  76.6569978  45.8610014
 136.0729992  76.0949978  46.3770014 135.5083451  76.7521268  46.2998627
 134.3789992  76.6899978  42.1720014 134.8179992  77.3009978  41.5800014
 133.7449992  77.2279978  42.6460014 134.3533859  76.8464064  42.1550305
 140.1219992  76.8179978  46.1810014 140.9959992  77.2069978  46.1520014
 139.9859992  76.6029978  47.1040014 140.2231953  76.8421643  46.3017617
 134.2799992  92.6379978  43.0690014 133.5949992  92.5999978  42.4020014
 134.2839992  93.5509978  43.3570014 134.1867621  92.7561924  43.0166126
 136.2399992  78.6059978  40.6140014 136.7309992  77.9759978  40.0870014
 136.8629992  78.9019978  41.2770014 136.3915304  78.5597376  40.6314940
 141.2659992  78.8989978  43.0710014 141.4439992  78.2519978  43.7540014
 141.2119992  79.7329978  43.5380014 141.2830678  78.9231604  43.2276301
 143.1439992  93.8469978  41.4670014 144.0099992  94.2139978  41.2890014
 142.8979992  93.4079978  40.6530014 143.2292097  93.8378525  41.3326019
 135.4999992  77.4059978  55.8860014 135.1339992  76.6399978  56.3280014
 136.4129992  77.4349978  56.1720014 135.5733172  77.3050324  55.9851890
 137.4729992  76.7559978  57.4210014 138.3719992  76.4819978  57.2370014
 137.0869992  76.0139978  57.8860014 137.5437307  76.6182196  57.4587098
 136.0979992  93.5579978  40.0940014 135.8299992  93.8439978  40.9680014
 136.8689992  93.0119978  40.2470014 136.1655926  93.5232779  40.2341205
  12.6289992 104.9039978  46.3270014  12.7179992 105.8479978  46.1950014
  11.9909992 104.6289978  45.6690014  12.5549062 104.9959812  46.2199641
  11.5619992 104.1589978  49.7460014  11.5239992 103.5129978  50.4510014
  11.2399992 103.6919978  48.9750014  11.5132679 104.0074276  49.7382921
   3.9299992 103.7729978  51.3390014   3.9719992 103.1479978  52.0620014
   4.6329992 104.3969978  51.5210014   4.0307345 103.7717873  51.4625273
  15.2679992 107.0979978  48.0470014  14.8269992 106.3779978  48.4980014
  15.2549992 107.8189978  48.6770014  15.2059215 107.0969291  48.1938105
   4.8539992 108.2229978  49.8740014   4.4839992 107.4209978  49.5040014
   5.7949992 108.0549978  49.9200014   4.9305984 108.0904638  49.8295603
   1.4639992 101.8829978  45.2660014   1.0159992 102.7289978  45.2480014
   0.9029992 101.3039978  44.7510014   1.3268546 101.9203993  45.1938891
   2.1739992 104.0449978  47.3920014   2.3879992 103.2749978  47.9200014
   2.9119992 104.1349978  46.7890014   2.3030200 103.9518587  47.3827035
  12.3799992 112.2019978  48.2590014  12.9989992 111.5259978  47.9860014
  12.1709992 111.9839978  49.1680014  12.4366056 112.0798869  48.3443967
   9.9509992 106.5909978  50.1520014  10.2549992 105.9049978  49.5570014
  10.6729992 106.7099978  50.7700014  10.0901240 106.5132314  50.1540959
  18.6139992  98.1929978  51.0120014  18.6639992  98.8029978  51.7480014
  19.0399992  98.6539978  50.2890014  18.6784108  98.3387709  51.0150112
  13.0919992 100.9849978  50.4790014  13.2349992 100.0389978  50.4990014
  12.9859992 101.1919978  49.5510014  13.0972403 100.8834797  50.3562239
   6.2469992  99.0869978  47.7520014   6.2899992  99.9469978  47.3330014
   5.7889992  98.5349978  47.1180014   6.1909871  99.1299245  47.6090761
  13.9689992  99.2179978  46.1530014  14.6159992  98.8889978  46.7770014
  14.4789992  99.7349978  45.5300014  14.1264351  99.2429067  46.1541037
   2.8669992 101.4839978  48.5140014   3.5209992 100.9339978  48.9460014
   2.8909992 101.2099978  47.5970014   2.9597199 101.3717167  48.4491668
   8.0239992 103.0339978  47.7290014   8.6399992 102.5069978  48.2380014
   7.4369992 102.3939978  47.3250014   8.0290154 102.8753954  47.7440945
  19.0059992  99.6709978  53.2480014  18.3169992 100.3289978  53.1530014
  19.0209992  99.4729978  54.1850014  18.9137756  99.7342603  53.3615812
   5.0569992  98.0049978  51.8260014   4.8379992  98.5349978  51.0590014
   4.3889992  98.2309978  52.4730014   4.9366975  98.1080967  51.8085140
  12.4259992 107.5049978  45.3700014  12.1309992 107.1819978  44.5180014
  12.1019992 108.4049978  45.4110014  12.3418460 107.5824464  45.2589714
   7.6259992 105.6799978  52.1130014   6.8859992 106.2789978  52.2170014
   8.3399992 106.2339978  51.7980014   7.6213500 105.8367829  52.0846371
  15.7329992  98.5089978  48.1330014  15.5179992  97.7429978  48.6660014
  16.3889992  98.9809978  48.6460014  15.7922673  98.4680728  48.2751990
   4.6509992  99.8969978  49.7780014   5.2649992 100.5299978  50.1510014
   5.1629992  99.4249978  49.1220014   4.8041962  99.9197249  49.7402935
   6.0339992 107.6449978  52.9000014   6.0279992 108.5239978  52.5220014
   5.1799992 107.5609978  53.3250014   5.9177925 107.7539535  52.9056887
   2.1549992 107.3159978  43.6820014   1.8829992 107.5449978  42.7940014
   2.1999992 108.1529978  44.1430014   2.1238097 107.4606163  43.6226683
  15.7799992 108.9369978  50.3950014  14.8379992 108.9959978  50.5570014
  16.0559992 109.8429978  50.2580014  15.6885865 109.0675288  50.3986192
  16.0799992  97.2239978  51.8120014  15.3439992  97.8339978  51.7750014
  16.7639992  97.6389978  51.2860014  16.0715367  97.3637551  51.7358174
   9.0839992  95.3099978  49.2780014   8.9659992  94.3619978  49.2240014
   8.2289992  95.6429978  49.5510014   8.9522805  95.2252202  49.3075079
  14.0319992 110.7179978  47.0200014  14.4569992 110.0109978  46.5350014
  14.3489992 111.5199978  46.6030014  14.1330266 110.7295190  46.8972479
  15.1919992 108.6189978  45.5290014  14.9339992 107.9289978  44.9170014
  15.2629992 108.1759978  46.3740014  15.1663050 108.4646814  45.5595621
  16.8779992 107.1859978  54.0060014  17.0169992 106.5939978  53.2670014
  17.0449992 108.0589978  53.6500014  16.9196193 107.2228896  53.8566211
  11.3499992 104.1479978  43.7790014  10.6389992 104.6829978  43.4270014
  12.0409992 104.2029978  43.1190014  11.3460751 104.2286777  43.6415858
  11.4039992 102.6049978  40.8170014  12.1049992 102.6279978  41.4690014
  11.7059992 101.9769978  40.1610014  11.5408202 102.5232212  40.8175609
  18.7189992 103.5259978  52.0720014  18.0669992 104.2199978  52.1610014
  19.1849992 103.7359978  51.2620014  18.6925937 103.6495019  51.9747533
  14.7559992 104.3569978  44.7300014  14.0239992 104.5859978  45.3040014
  15.2029992 103.6439978  45.1850014  14.7163963 104.2918729  44.8699945
  14.6529992 102.5319978  53.7980014  14.7329992 103.2949978  54.3700014
  14.0519992 102.8109978  53.1080014  14.5826547 102.6742457  53.7830047
   6.4009992 104.9879978  46.6130014   6.0709992 104.6169978  45.7950014
   6.9899992 104.3169978  46.9600014   6.4353970 104.8466063  46.5479404
   7.7679992 108.4159978  49.2940014   7.6729992 107.8369978  48.5380014
   8.4969992 108.0449978  49.7900014   7.8536011 108.2865561  49.2576028
   6.7679992 103.7559978  50.2460014   7.3329992 103.8779978  49.4840014
   7.0869992 104.3939978  50.8850014   6.8884166 103.8588791  50.2280348
  13.0769992 109.2599978  50.9800014  12.8369992 109.9219978  51.6280014
  12.8789992 108.4249978  51.4050014  13.0173826 109.2378115  51.1261566
   7.6479992 108.1559978  54.9640014   7.3369992 108.9379978  55.4190014
   6.9979992 108.0029978  54.2780014   7.5175538 108.2424087  54.9335898
  13.6269992 103.5199978  42.4160014  14.2059992 103.6699978  43.1620014
  14.0409992 103.9899978  41.6920014  13.7623358 103.6040955  42.4203953
   4.5679992 104.3539978  54.1920014   4.6379992 105.0049978  54.8910014
   3.6769992 104.4569978  53.8570014   4.4571690 104.4569249  54.2423043
  11.3529992 110.2559978  45.8510014  11.8269992 110.5519978  46.6280014
  10.7899992 110.9949978  45.6180014  11.3417890 110.3963036  45.9258101
   5.8869992 110.2269978  55.7270014   5.8949992 110.0909978  54.7800014
   4.9709992 110.1099978  55.9790014   5.7642528 110.1925463  55.6313243
  17.3259992  95.2699978  42.2290014  16.4259992  95.4089978  42.5240014
  17.5779992  96.1009978  41.8270014  17.2368683  95.4014055  42.2150232
   5.3919992 104.0569978  44.2020014   5.0999992 104.8249978  43.7110014
   4.7169992 103.3979978  44.0390014   5.2608497 104.0729745  44.1128260
  18.5149992 109.6359978  40.6050014  18.5879992 110.5749978  40.7750014
  19.4199992 109.3309978  40.5490014  18.6474170 109.7233282  40.6207063
   1.4849992 106.4199978  53.0170014   0.9829992 106.3919978  52.2020014
   1.4899992 105.5149978  53.3270014   1.4169832 106.2937486  52.9474121
   1.2349992 109.2009978  49.9010014   2.1809992 109.0559978  49.8820014
   1.1219992 109.9849978  50.4380014   1.3493578 109.2871697  49.9710317
  19.4329992 109.8669978  55.5840014  19.3829992 108.9109978  55.5460014
  18.6059992 110.1339978  55.9850014  19.3143831 109.7724680  55.6330121
  10.4109992 109.4409978  54.4600014  10.4989992 110.2669978  54.9350014
   9.5479992 109.1109978  54.7090014  10.3063357 109.5095468  54.5587653
  10.8259992 113.2129978  44.2660014  10.7499992 113.0919978  43.3190014
  10.8579992 114.1619978  44.3840014  10.8199380 113.3247677  44.1525181
   4.4789992 112.0019978  46.0470014   4.6309992 111.6539978  46.9250014
   3.6279992 111.6449978  45.7910014   4.3848344 111.9060879  46.1326868
  13.9269992 112.3669978  41.2680014  14.3019992 111.6229978  40.7970014
  13.9319992 112.0969978  42.1860014  13.9790098 112.2286392  41.3276629
  13.5959992 112.2929978  44.0170014  12.6609992 112.3929978  44.1960014
  13.8759992 111.5829978  44.5960014  13.5059471 112.2107933  44.1196695
  16.5849992 101.3599978  56.0640014  16.1769992 101.8399978  55.3430014
  16.6249992 100.4539978  55.7560014  16.5346221 101.3032449  55.9238267
   3.7339992 107.7439978  54.0600014   3.9499992 107.3819978  54.9200014
   2.8779992 107.3689978  53.8510014   3.6478810 107.6438837  54.1492680
   6.3519992  96.2139978  50.0560014   5.4909992  96.1269978  49.6480014
   6.3299992  97.0699978  50.4840014   6.2310491  96.3178003  50.0579582
  11.0149992  95.9359978  53.4310014  11.4349992  95.5209978  54.1840014
  10.0819992  95.7569978  53.5480014  10.9463736  95.8549910  53.5498968
  14.3419992  99.6909978  54.2840014  13.8279992  99.5659978  55.0820014
  14.1859992 100.6039978  54.0400014  14.2506967  99.7972123  54.3600937
  15.1039992 104.5519978  40.0450014  15.1459992 104.3299978  39.1150014
  15.9529992 104.9509978  40.2350014  15.2245253 104.5755498  39.9433822
  10.6769992  98.4279978  40.7160014  10.4229992  98.4469978  41.6380014
  10.4199992  97.5569978  40.4140014  10.6074508  98.3128280  40.8014803
   6.4429992 101.1789978  51.1510014   5.8019992 101.1389978  51.8600014
   6.4809992 102.1059978  50.9130014   6.3603010 101.2987668  51.2159946
   6.4399992 101.3999978  46.0630014   5.5479992 101.0599978  46.0040014
   6.8909992 101.0229978  45.3070014   6.3787642 101.3024910  45.9527726
  11.9759992 101.8159978  44.8800014  11.5669992 102.6309978  44.5880014
  12.6959992 101.6759978  44.2660014  12.0174439 101.9085372  44.7570115
  11.0779992 101.9919978  56.3680014  10.5149992 101.2869978  56.6890014
  11.9039992 101.8709978  56.8360014  11.1126674 101.8792165  56.4751751
  12.9809992 101.2619978  47.6940014  12.7849992 101.8679978  46.9790014
  13.1619992 100.4289978  47.2600014  12.9786584 101.2322513  47.5374212
   4.1929992 101.4999978  53.0180014   4.1549992 101.8999978  53.8870014
   3.7029992 100.6829978  53.1080014   4.1215330 101.4442674  53.1491289
   7.5589992  98.8739978  39.8170014   7.1279992  98.4289978  40.5460014
   6.8409992  99.2449978  39.3040014   7.4029176  98.8632051  39.8474930
   0.8019992  98.6159978  46.8690014   1.4319992  98.5869978  47.5880014
   1.2509992  98.1909978  46.1380014   0.9490835  98.5545660  46.8687659
   2.0759992  99.3619978  42.2930014   2.5499992  99.9529978  41.7080014
   1.3579992  99.8919978  42.6400014   2.0438640  99.5145511  42.2597969
  12.2449992 102.8999978  52.3650014  12.5679992 102.2689978  51.7220014
  11.8039992 102.3659978  53.0260014  12.2296379 102.7413468  52.3662582
   9.0219992  98.8279978  47.1490014   8.1109992  98.8849978  47.4380014
   9.5269992  98.7679978  47.9600014   8.9656873  98.8276826  47.2981207
   3.8499992 100.4569978  45.9760014   2.9609992 100.5559978  45.6360014
   4.1469992  99.6149978  45.6300014   3.7684177 100.3567687  45.8826940
   7.5029992 100.4569978  43.6330014   8.4349992 100.5859978  43.8110014
   7.2879992 101.1259978  42.9830014   7.6014472 100.5650806  43.5694891
  13.4269992  98.0629978  50.4140014  12.7499992  98.1939978  51.0770014
  12.9419992  97.9079978  49.6030014  13.2687405  98.0599947  50.3952170
   6.1769992 101.6509978  41.1990014   5.6349992 101.2719978  40.5080014
   7.0109992 101.8459978  40.7710014   6.2154390 101.6254079  41.0464392
  16.7149992 113.7339978  56.6900014  16.9139992 114.1579978  55.8560014
  17.3699992 114.0779978  57.2970014  16.8308522 113.8386301  56.6577852
   4.3129992 106.2079978  56.2980014   5.0449992 106.4629978  56.8600014
   3.5319992 106.4129978  56.8140014   4.3076526 106.2705450  56.4445176
  10.3419992 101.6149978  49.0360014  10.9059992 101.0689978  48.4890014
  10.1939992 101.0939978  49.8250014  10.3993037 101.4696787  49.0677229
   5.3439992  97.7519978  45.4550014   5.0269992  96.8489978  45.4190014
   6.1249992  97.7539978  44.9020014   5.4062431  97.6287797  45.3753102
   8.9679992 100.0039978  51.4500014   8.1329992 100.4579978  51.5610014
   9.4919992 100.2799978  52.2020014   8.9246072 100.1033948  51.5668136
   9.5129992 106.2169978  43.1350014   8.7679992 105.7089978  42.8130014
   9.3779992 106.2659978  44.0810014   9.3928963 106.1541731  43.2188826
  16.6629992 105.3499978  51.9220014  17.3039992 105.8059978  51.3780014
  15.8319992 105.4629978  51.4590014  16.6385287 105.4276921  51.7849887
  13.4099992  99.0309978  41.3340014  12.4719992  99.1419978  41.1830014
  13.7079992  99.8869978  41.6410014  13.3216318  99.1620158  41.3548145
  11.0319992 106.4009978  54.3720014  10.6859992 106.0189978  55.1790014
  10.8319992 107.3339978  54.4430014  10.9575987 106.4749002  54.4920461
  14.1289992 100.8979978  42.9950014  15.0209992 100.7599978  43.3140014
  14.1849992 101.6889978  42.4580014  14.2587325 100.9859918  42.9661217
   4.6369992 105.5119978  48.9050014   5.3819992 105.5089978  48.3030014
   4.7149992 104.6879978  49.3860014   4.7493365 105.4002384  48.8877430
  11.6379992 107.6749978  42.1600014  11.3429992 108.5019978  42.5420014
  10.9349992 107.0559978  42.3570014  11.5026379 107.7044171  42.2388654
   1.6449992 103.9719978  54.2200014   1.8679992 103.5539978  55.0510014
   1.0429992 103.3599978  53.7970014   1.5941513 103.8319606  54.2766740
   8.6619992 103.4889978  56.4330014   8.3659992 103.3239978  55.5370014
   9.5929992 103.2689978  56.4220014   8.7474401 103.4366880  56.3090206
  13.2819992 108.8629978  54.3220014  12.3819992 109.0459978  54.0550014
  13.3159992 109.1219978  55.2430014  13.1633748 108.9230554  54.4099164
  19.0139992 101.1069978  42.6900014  18.4589992 100.7109978  42.0170014
  19.1139992 102.0179978  42.4120014  18.9516816 101.1759505  42.5605033
  18.9769992 106.9079978  55.5270014  18.1259992 107.1459978  55.1590014
  19.5669992 106.8909978  54.7740014  18.9403812 106.9382524  55.3748453
  17.3089992 109.8929978  43.1550014  16.9359992 109.0679978  43.4640014
  17.5859992 109.7099978  42.2570014  17.2953463 109.7552569  43.0759525
  14.4689992 104.7009978  50.1760014  13.5409992 104.4699978  50.1490014
  14.9199992 103.9239978  49.8460014  14.4028165 104.5642774  50.1276790
   7.0119992 109.0299978  46.3090014   7.5399992 109.8029978  46.1090014
   6.1319992 109.2539978  46.0070014   6.9653435 109.1662700  46.2407310
   2.7669992 103.8919978  40.8960014   3.3829992 104.5189978  41.2760014
   1.9049992 104.2079978  41.1680014   2.7347678 104.0204412  40.9847209
   8.4399992 106.6929978  45.8850014   8.1989992 107.6179978  45.9270014
   7.6989992 106.2339978  46.2820014   8.3069206 106.7575915  45.9443769
   8.9539992 110.8419978  52.2000014   9.3169992 111.6959978  51.9670014
   9.4859992 110.5499978  52.9410014   9.0755141 110.9193895  52.2682097
   7.1229992 111.7139978  45.4310014   6.1729992 111.8199978  45.4820014
   7.4749992 112.5349978  45.7750014   7.0405472 111.8394923  45.4844852
  12.4979992 106.9409978  51.9010014  12.0729992 106.7129978  52.7270014
  13.0789992 106.2019978  51.7190014  12.5183395 106.8099545  51.9894414
  14.7009992 107.8699978  40.9750014  15.0549992 107.4899978  41.7790014
  13.7529992 107.7759978  41.0620014  14.6212298 107.8052452  41.0968687
  15.1569992 111.4929978  54.3700014  14.5549992 110.9369978  53.8750014
  15.4379992 112.1599978  53.7440014  15.1125757 111.5070744  54.2175675
  19.2049992 112.3489978  41.1760014  19.9489992 112.9349978  41.0360014
  18.5109992 112.9179978  41.5090014  19.2129809 112.5060818  41.2018590
   3.2789992  98.7259978  53.7780014   2.3869992  99.0639978  53.7100014
   3.1809992  97.8699978  54.1960014   3.1434475  98.6566543  53.8251704
  15.5669992 106.5419978  43.2020014  15.2899992 105.8139978  43.7580014
  16.4949992 106.6609978  43.4070014  15.6544499 106.4584213  43.3058044
   2.9309992 110.5299978  52.2130014   3.1479992 109.5979978  52.1820014
   3.1769992 110.8049978  53.0960014   2.9939809 110.4395686  52.3281690
   8.7919992 108.9819978  39.4220014   9.0309992 108.2329978  38.8750014
   8.5229992 108.5939978  40.2550014   8.7883233 108.8271853  39.4597809
   7.7289992 108.5519978  41.8780014   7.8759992 108.0319978  42.6680014
   7.7259992 109.4589978  42.1850014   7.7487102 108.6033953  42.0275925
   4.1819992 105.8039978  42.3890014   3.4959992 106.1569978  42.9560014
   4.7049992 106.5669978  42.1420014   4.1588402 105.9553901  42.4331801
  12.0139992  98.4669978  52.6680014  12.7129992  98.5409978  53.3180014
  11.6329992  97.6019978  52.8220014  12.0582097  98.3602389  52.7777997
  12.7979992  98.1189978  43.7650014  13.0179992  98.5899978  42.9610014
  13.3569992  98.5129978  44.4350014  12.9036731  98.2367287  43.7455033
  10.4669992 110.2489978  42.6280014   9.6499992 110.7459978  42.6800014
  10.9959992 110.7249978  41.9870014  10.4268125 110.3811989  42.5485306
   9.9979992  99.8469978  44.6000014  10.8099992 100.3509978  44.6460014
   9.7539992  99.7019978  45.5140014  10.0761467  99.8963749  44.7298575
  10.5339992 100.8329978  53.7840014  10.6529992 101.4069978  54.5410014
  11.1889992 100.1449978  53.8990014  10.6388684 100.8185194  53.9031674
  10.8819992  96.9279978  45.5380014  10.5349992  97.5449978  46.1820014
  11.5409992  97.4289978  45.0560014  10.9235090  97.0801575  45.5610681
   7.8049992 111.2929978  42.6090014   7.9659992 112.0929978  42.1090014
   7.6079992 111.5999978  43.4940014   7.8003906 111.4438678  42.6602333
   6.5399992  97.9909978  42.2250014   6.4559992  98.8789978  42.5720014
   7.4299992  97.7259978  42.4570014   6.6488163  98.0767179  42.3038596
  16.7379992  98.7399978  54.6190014  15.8219992  99.0019978  54.5320014
  17.0739992  98.7369978  53.7230014  16.6578499  98.7755163  54.4858766
  15.3409992 102.4899978  48.7150014  14.5429992 102.0749978  48.3870014
  15.7859992 101.7999978  49.2060014  15.2919684 102.3398628  48.7365227
   4.7979992 108.4179978  41.2850014   5.3899992 109.1179978  41.5620014
   5.2569992 107.9849978  40.5660014   4.9411652 108.4552675  41.2256533
   3.1139992 101.0829978  40.4010014   3.0689992 102.0219978  40.5800014
   2.2259992 100.8469978  40.1320014   2.9878166 101.1796687  40.3891524
  16.4269992 111.7459978  50.3370014  16.2709992 112.4249978  49.6800014
  17.3599992 111.8179978  50.5400014  16.5317387 111.8486390  50.2745342
   3.9219992  95.8639978  49.0750014   3.6929992  95.9229978  48.1470014
   3.4799992  95.0729978  49.3810014   3.8308801  95.7650540  48.9894729
   2.8529992 109.8049978  45.2350014   2.0199992 110.2769978  45.2620014
   3.3979992 110.3149978  44.6360014   2.8127857 109.9384791  45.1577142
   2.1409992 112.4169978  56.5650014   2.6809992 112.2009978  57.3250014
   1.6599992 111.6119978  56.3750014   2.1499219 112.2785156  56.6434282
   6.7379992 111.3369978  58.1850014   7.5059992 110.8779978  58.5260014
   6.7169992 111.1109978  57.2550014   6.8402135 111.2436668  58.1059491
  10.8299992 110.8449978  39.5610014  10.1859992 110.2139978  39.8820014
  11.5919992 110.3139978  39.3290014  10.8448058 110.6867902  39.5736038
  13.3149992 109.7169978  56.9140014  12.9639992 108.8599978  57.1580014
  14.0409992 109.8589978  57.5210014  13.3651895 109.6191351  57.0293770
  15.4349992 110.6619978  39.7940014  15.7179992 109.8669978  40.2470014
  16.1739992 110.8949978  39.2330014  15.5737096 110.5847049  39.7801104
   2.0479992 106.2279978  57.5190014   2.1919992 105.3259978  57.2330014
   1.2759992 106.5139978  57.0320014   1.9632733 106.1431798  57.4139532
   6.3889992 106.5709978  39.6520014   6.4539992 105.7769978  40.1820014
   7.0419992 106.4529978  38.9620014   6.4861605 106.4463430  39.6312997
   8.7029992 106.1969978  56.9520014   8.3749992 106.4679978  56.0950014
   8.8549992 105.2559978  56.8640014   8.6786412 106.1069046  56.8227822
  11.7419992 107.6179978  39.3880014  11.4729992 107.7989978  40.2880014
  11.5349992 106.6929978  39.2560014  11.6771191 107.5177119  39.4935524
  14.4379992 106.1129978  54.3350014  15.1829992 106.7019978  54.2160014
  13.6809992 106.6949978  54.3990014  14.4375470 106.2722128  54.3273799
   2.8809992 103.4279978  56.9390014   3.2889992 102.5709978  56.8180014
   2.6199992 103.4419978  57.8600014   2.9016016 103.3125119  57.0469192
   7.5389992 104.5439978  41.9580014   7.0789992 104.0599978  42.6430014
   7.7939992 103.8749978  41.3220014   7.5104856 104.3873669  41.9658397
   6.8279992 102.4369978  54.3140014   6.2089992 103.1109978  54.5940014
   7.1719992 102.7579978  53.4800014   6.7897123 102.5726887  54.2396388
   8.6099992 102.7869978  40.2200014   8.4289992 102.6319978  39.2930014
   9.5599992 102.8949978  40.2650014   8.7136566 102.7803669  40.0990929
  11.8469992 104.9079978  57.5910014  12.8009992 104.9919978  57.5640014
  11.6869992 104.1959978  58.2110014  11.9557182 104.8232842  57.6710733
  17.9999992 105.1409978  39.6660014  17.7259992 104.7169978  38.8530014
  18.0389992 106.0729978  39.4490014  17.9677716 105.2088827  39.5254286
   7.1669992  99.7919978  55.3960014   7.3169992  99.0629978  54.7940014
   7.1689992 100.5689978  54.8370014   7.1877967  99.7972708  55.2380541
   7.5799992  98.1609978  52.8890014   8.1149992  98.6129978  52.2370014
   6.7269992  98.0529978  52.4660014   7.5380374  98.2082665  52.7426710
   9.1609992 103.6009978  53.1280014   9.9119992 103.4449978  52.5550014
   8.8219992 104.4529978  52.8530014   9.2179587 103.6948138  53.0124078
  13.5769992 101.4159978  58.1570014  13.7689992 100.4849978  58.0450014
  14.4349992 101.8409978  58.1460014  13.7192182 101.3460070  58.1401862
  14.8939992 104.2049978  56.2340014  14.6119992 104.9139978  55.6560014
  15.8359992 104.1319978  56.0830014  14.9827921 104.2922193  56.1344225
   5.6459992 100.9899978  57.3070014   4.8779992 100.4569978  57.0970014
   6.3239992 100.6799978  56.7080014   5.6327235 100.8751754  57.1972413
   8.3849992  95.6179978  53.3200014   8.2869992  96.5639978  53.2150014
   7.6429992  95.2449978  52.8440014   8.2712534  95.6971773  53.2412600
   9.6489992  99.9389978  56.8840014   9.4139992  99.7199978  57.7850014
   8.8659992  99.7319978  56.3740014   9.5109095  99.8809892  56.9385353
  12.3649992  99.0669978  55.9590014  11.4169992  99.0989978  56.0910014
  12.6769992  98.4409978  56.6130014  12.2775293  98.9867923  56.0654148
  13.9989992  97.7009978  57.9640014  13.9019992  96.7489978  57.9590014
  13.6769992  97.9689978  58.8250014  13.9422468  97.6070884  58.0796210
   3.8259992  98.9099978  57.0120014   4.0379992  98.2039978  56.4020014
   3.7149992  98.4729978  57.8560014   3.8400269  98.7541921  57.0425873
   8.6069992  94.9119978  55.9910014   9.3189992  94.2719978  55.9770014
   8.5059992  95.1779978  55.0780014   8.6907387  94.8604330  55.8655563
   8.9609992  96.5939978  58.0450014   8.8289992  96.1189978  57.2250014
   8.3609992  97.3389978  57.9900014   8.8619070  96.6295789  57.9253251
   8.5069992 113.4769978  41.2210014   9.4399992 113.6349978  41.3650014
   8.2429992 114.1529978  40.5960014   8.5989911 113.5899373  41.1562722
   2.0749992 108.1139978  40.7040014   2.9889992 108.1929978  40.9770014
   2.0829992 107.4269978  40.0380014   2.2010655 108.0319205  40.6512917
   0.7239992 113.5069978  45.7810014   0.0769992 113.0449978  45.2490014
   1.0789992 112.8349978  46.3640014   0.6833741 113.3529774  45.7869175
   1.5939992 111.5869978  47.5860014   1.2599992 110.7069978  47.7580014
   1.8169992 111.9329978  48.4510014   1.5783721 111.5131938  47.7264168
  19.1429992 112.3969978  50.5670014  19.1209992 112.5819978  51.5060014
  19.8329992 112.9649978  50.2260014  19.2333439 112.4991887  50.6494791
  18.7059992 111.9639978  53.4880014  18.2189992 111.2289978  53.1170014
  19.2549992 111.5699978  54.1660014  18.7135247 111.8101057  53.5288461
  17.1569992 107.7539978  58.1270014  16.2909992 107.6489978  58.5210014
  17.5329992 108.5119978  58.5730014  17.0893401 107.8421708  58.2412620
  18.4579992 106.0099978  43.6410014  19.3079992 106.4309978  43.7680014
  18.4629992 105.2699978  44.2480014  18.5751143 105.9676094  43.7404750
  18.8519992 104.0639978  45.4640014  18.1259992 103.5839978  45.8620014
  19.4339992 104.2689978  46.1970014  18.8312730 104.0260184  45.6174149
  18.6109992 106.8489978  50.4120014  19.4449992 106.4709978  50.1310014
  18.7229992 107.7919978  50.2930014  18.7401917 106.9247943  50.3574861
  17.0979992 109.7269978  52.7190014  16.4499992 110.0519978  53.3440014
  16.5799992 109.2859978  52.0450014  16.9394196 109.7118651  52.7134152
  19.1209992 103.9649978  41.8550014  18.5989992 104.3209978  41.1370014
  19.0879992 104.6399978  42.5340014  19.0450129 104.1049598  41.8483355
  17.4699992 101.2039978  40.4060014  17.5659992 101.8709978  39.7260014
  17.3299992 100.3889978  39.9250014  17.4642040 101.1850671  40.2478378
  16.6389992 102.5849978  46.0270014  16.4889992 101.6399978  46.0070014
  16.2849992 102.8659978  46.8710014  16.5706351 102.4936644  46.1383220
   1.6739992 104.6629978  50.0380014   1.8589992 104.5809978  49.1020014
   2.5239992 104.5389978  50.4610014   1.8140928 104.6350463  49.9672893
  17.4949992 104.5549978  55.6660014  18.0779992 103.8199978  55.8580014
  18.0589992 105.3269978  55.7130014  17.6509781 104.5588145  55.6986164
  18.9919992 102.4579978  56.3510014  18.1289992 102.0789978  56.1850014
  19.5959992 101.7189978  56.2760014  18.9556085 102.3063223  56.3181695
  16.7169992  98.6119978  39.5240014  17.3279992  98.2409978  40.1610014
  15.8799992  98.1909978  39.7200014  16.6874947  98.5042756  39.6377252
  16.3499992 100.1669978  44.4900014  16.6289992  99.2599978  44.6140014
  17.1089992 100.6009978  44.1010014  16.4908619 100.1014502  44.4543795
  16.9609992 100.7489978  49.9260014  17.8939992 100.9609978  49.8910014
  16.7259992 100.8499978  50.8480014  17.0569517 100.7916833  50.0459130
  16.9909992 101.4859978  52.7020014  16.1479992 101.7539978  53.0680014
  17.4329992 102.3079978  52.4910014  16.9354138 101.6338273  52.7235518
   1.2719992  99.9329978  56.1780014   2.1909992  99.8109978  56.4150014
   0.8219992  99.1829978  56.5680014   1.3370087  99.8149608  56.2631410
  19.2739992  95.4659978  58.0550014  19.6229992  94.8119978  57.4500014
  19.4209992  96.3029978  57.6150014  19.3416824  95.4896024  57.9126304
  16.9629992  97.4299978  44.5380014  17.1449992  96.9809978  45.3630014
  16.3629992  96.8459978  44.0740014  16.9068187  97.2895552  44.5882739
   2.4929992  98.2459978  49.0700014   2.9379992  97.4539978  49.3720014
   2.9589992  98.9619978  49.5000014   2.6169718  98.2344534  49.1695265
   0.7969992 101.2449978  50.1390014   1.2889992 101.0239978  49.3480014
   1.1589992 102.0849978  50.4200014   0.9132923 101.3283468  50.0687407
  18.7929992  97.5749978  56.4040014  17.8759992  97.8459978  56.3690014
  18.9159992  97.0399978  55.6200014  18.6839672  97.5397885  56.2931862
  18.8299992  97.4979978  41.0660014  19.2419992  96.7769978  40.5910014
  19.5109992  98.1669978  41.1240014  18.9785536  97.4897766  41.0088024
   1.1109992  97.5029978  44.1930014   0.1859992  97.7109978  44.0640014
   1.5649992  97.9869978  43.5030014   1.0456298  97.5969299  44.0820451
  15.8809992 112.4869978  46.1390014  16.5339992 112.1389978  45.5310014
  16.3919992 112.9749978  46.7850014  16.0392777 112.5053815  46.1432047
   1.0739992  96.2409978  52.5370014   0.4089992  95.9949978  53.1800014
   0.6309992  96.8629978  51.9600014   0.9231168  96.2914214  52.5469848
   3.2659992 109.4159978  56.6820014   2.4449992 109.5909978  56.2210014
   3.0139992 109.3429978  57.6020014   3.1195594 109.4300717  56.7433611
   6.2199992 110.3899978  52.9400014   5.7959992 111.1999978  52.6580014
   7.1249992 110.4759978  52.6380014   6.2842138 110.5124160  52.8606415
  10.5319992 111.7889978  55.9000014  10.7159992 111.4559978  56.7780014
  11.3779992 112.0989978  55.5780014  10.6716484 111.7852979  55.9767617
  12.8769992 113.0749978  55.1440014  13.5539992 112.4419978  54.9040014
  13.1979992 113.4759978  55.9510014  13.0131323 113.0425691  55.2203158
  17.7939992  95.6649978  54.2230014  16.9809992  95.9899978  53.8360014
  18.0269992  94.9039978  53.6900014  17.7141347  95.6066880  54.0979841
   3.6219992 113.6469978  52.9880014   2.9019992 114.0869978  52.5370014
   3.2569992 113.3959978  53.8360014   3.4739643 113.6733369  53.0409129
   6.0889992 113.2469978  52.0180014   5.2249992 113.3189978  52.4220014
   6.0339992 113.7939978  51.2340014   5.9631942 113.3307849  51.9674000
  10.7999992 113.1349978  51.1930014  10.3429992 113.6639978  50.5390014
  10.9629992 113.7379978  51.9180014  10.7594960 113.2889280  51.2015274
  13.1279992 112.0129978  52.1380014  12.2229992 112.1779978  51.8720014
  13.5559992 112.8659978  52.0720014  13.0621537 112.1509134  52.0927095
  15.7319992 113.5829978  52.4330014  15.5499992 114.4989978  52.2220014
  15.9089992 113.1719978  51.5860014  15.7310030 113.6528273  52.2897166
   3.0369992 112.2699978  49.8980014   3.0189992 111.8439978  50.7550014
   3.8419992 111.9509978  49.4890014   3.1432875 112.1686435  49.9599515
   5.1779992 110.9799978  48.5530014   4.9589992 110.0629978  48.7230014
   6.0019992 111.1199978  49.0190014   5.2594702 110.8735511  48.6392527
   7.7149992 111.4499978  49.4020014   7.9279992 110.5619978  49.1150014
   7.7799992 111.4149978  50.3560014   7.7529149 111.3238326  49.4917369
  11.2239992  97.1139978  48.5460014  10.5499992  96.4839978  48.8020014
  11.7879992  96.6299978  47.9430014  11.2080384  96.9623708  48.4995020
  16.3669992  95.2209978  48.6590014  16.9699992  95.7689978  48.1570014
  15.4969992  95.5399978  48.4180014  16.3319157  95.3390373  48.5577910
  18.0939992  96.3599978  46.9920014  18.7049992  95.8459978  46.4650014
  18.4759992  97.2369978  47.0150014  18.2293305  96.4082050  46.9229418
   3.5509992  95.7479978  46.3680014   2.7739992  95.5129978  45.8610014
   4.0809992  94.9509978  46.3770014   3.5163451  95.6081268  46.2998627
   2.3869992  95.5459978  42.1720014   2.8259992  96.1569978  41.5800014
   1.7529992  96.0839978  42.6460014   2.3613859  95.7024064  42.1550305
   8.1299992  95.6739978  46.1810014   9.0039992  96.0629978  46.1520014
   7.9939992  95.4589978  47.1040014   8.2311953  95.6981643  46.3017617
  13.6869992  95.7039978  47.8310014  13.7629992  95.7999978  46.8810014
  13.4119992  94.7969978  47.9590014  13.6601871  95.5944146  47.7183944
  15.0399992  95.7299978  43.5230014  14.3369992  96.3449978  43.3130014
  14.5949992  94.8929978  43.6540014  14.8836550  95.7009668  43.5119837
   2.2879992 111.4939978  43.0690014   1.6029992 111.4559978  42.4020014
   2.2919992 112.4069978  43.3570014   2.1947621 111.6121924  43.0166126
   4.2479992  97.4619978  40.6140014   4.7389992  96.8319978  40.0870014
   4.8709992  97.7579978  41.2770014   4.3995304  97.4157376  40.6314940
   9.2739992  97.7549978  43.0710014   9.4519992  97.1079978  43.7540014
   9.2199992  98.5889978  43.5380014   9.2910678  97.7791604  43.2276301
  11.1519992 112.7029978  41.4670014  12.0179992 113.0699978  41.2890014
  10.9059992 112.2639978  40.6530014  11.2372097 112.6938525  41.3326019
  17.8609992 112.2659978  44.1460014  17.6669992 111.5179978  43.5810014
  17.8219992 113.0239978  43.5630014  17.8291645 112.2660786  43.9898148
   3.5079992  96.2619978  55.8860014   3.1419992  95.4959978  56.3280014
   4.4209992  96.2909978  56.1720014   3.5813172  96.1610324  55.9851890
   5.4809992  95.6119978  57.4210014   6.3799992  95.3379978  57.2370014
   5.0949992  94.8699978  57.8860014   5.5517307  95.4742196  57.4587098
   4.1059992 112.4139978  40.0940014   3.8379992 112.6999978  40.9680014
   4.8769992 111.8679978  40.2470014   4.1735926 112.3792779  40.2341205
  13.9029992  94.9449978  57.6040014  13.9789992  94.5189978  58.4570014
  14.7959992  94.9579978  57.2610014  14.0342303  94.8883493  57.6745497
  17.0789992 111.0179978  56.2960014  16.2969992 110.8309978  55.7760014
  17.0069992 111.9469978  56.5130014  16.9621924 111.1180637  56.2541602
  31.4849992 104.9039978  46.3270014  31.5739992 105.8479978  46.1950014
  30.8469992 104.6289978  45.6690014  31.4109062 104.9959812  46.2199641
  30.4179992 104.1589978  49.7460014  30.3799992 103.5129978  50.4510014
  30.0959992 103.6919978  48.9750014  30.3692679 104.0074276  49.7382921
  22.7859992 103.7729978  51.3390014  22.8279992 103.1479978  52.0620014
  23.4889992 104.3969978  51.5210014  22.8867345 103.7717873  51.4625273
  34.1239992 107.0979978  48.0470014  33.6829992 106.3779978  48.4980014
  34.1109992 107.8189978  48.6770014  34.0619215 107.0969291  48.1938105
  23.7099992 108.2229978  49.8740014  23.3399992 107.4209978  49.5040014
  24.6509992 108.0549978  49.9200014  23.7865984 108.0904638  49.8295603
  20.3199992 101.8829978  45.2660014  19.8719992 102.7289978  45.2480014
  19.7589992 101.3039978  44.7510014  20.1828546 101.9203993  45.1938891
  21.0299992 104.0449978  47.3920014  21.2439992 103.2749978  47.9200014
  21.7679992 104.1349978  46.7890014  21.1590200 103.9518587  47.3827035
  31.2359992 112.2019978  48.2590014  31.8549992 111.5259978  47.9860014
  31.0269992 111.9839978  49.1680014  31.2926056 112.0798869  48.3443967
  28.8069992 106.5909978  50.1520014  29.1109992 105.9049978  49.5570014
  29.5289992 106.7099978  50.7700014  28.9461240 106.5132314  50.1540959
  37.4699992  98.1929978  51.0120014  37.5199992  98.8029978  51.7480014
  37.8959992  98.6539978  50.2890014  37.5344108  98.3387709  51.0150112
  31.9479992 100.9849978  50.4790014  32.0909992 100.0389978  50.4990014
  31.8419992 101.1919978  49.5510014  31.9532403 100.8834797  50.3562239
  25.1029992  99.0869978  47.7520014  25.1459992  99.9469978  47.3330014
  24.6449992  98.5349978  47.1180014  25.0469871  99.1299245  47.6090761
  32.8249992  99.2179978  46.1530014  33.4719992  98.8889978  46.7770014
  33.3349992  99.7349978  45.5300014  32.9824351  99.2429067  46.1541037
  21.7229992 101.4839978  48.5140014  22.3769992 100.9339978  48.9460014
  21.7469992 101.2099978  47.5970014  21.8157199 101.3717167  48.4491668
  26.8799992 103.0339978  47.7290014  27.4959992 102.5069978  48.2380014
  26.2929992 102.3939978  47.3250014  26.8850154 102.8753954  47.7440945
  37.8619992  99.6709978  53.2480014  37.1729992 100.3289978  53.1530014
  37.8769992  99.4729978  54.1850014  37.7697756  99.7342603  53.3615812
  23.9129992  98.0049978  51.8260014  23.6939992  98.5349978  51.0590014
  23.2449992  98.2309978  52.4730014  23.7926975  98.1080967  51.8085140
  31.2819992 107.5049978  45.3700014  30.9869992 107.1819978  44.5180014
  30.9579992 108.4049978  45.4110014  31.1978460 107.5824464  45.2589714
  26.4819992 105.6799978  52.1130014  25.7419992 106.2789978  52.2170014
  27.1959992 106.2339978  51.7980014  26.4773500 105.8367829  52.0846371
  34.5889992  98.5089978  48.1330014  34.3739992  97.7429978  48.6660014
  35.2449992  98.9809978  48.6460014  34.6482673  98.4680728  48.2751990
  23.5069992  99.8969978  49.7780014  24.1209992 100.5299978  50.1510014
  24.0189992  99.4249978  49.1220014  23.6601962  99.9197249  49.7402935
  24.8899992 107.6449978  52.9000014  24.8839992 108.5239978  52.5220014
  24.0359992 107.5609978  53.3250014  24.7737925 107.7539535  52.9056887
  21.0109992 107.3159978  43.6820014  20.7389992 107.5449978  42.7940014
  21.0559992 108.1529978  44.1430014  20.9798097 107.4606163  43.6226683
  34.6359992 108.9369978  50.3950014  33.6939992 108.9959978  50.5570014
  34.9119992 109.8429978  50.2580014  34.5445865 109.0675288  50.3986192
  34.9359992  97.2239978  51.8120014  34.1999992  97.8339978  51.7750014
  35.6199992  97.6389978  51.2860014  34.9275367  97.3637551  51.7358174
  27.9399992  95.3099978  49.2780014  27.8219992  94.3619978  49.2240014
  27.0849992  95.6429978  49.5510014  27.8082805  95.2252202  49.3075079
  32.8879992 110.7179978  47.0200014  33.3129992 110.0109978  46.5350014
  33.2049992 111.5199978  46.6030014  32.9890266 110.7295190  46.8972479
  34.0479992 108.6189978  45.5290014  33.7899992 107.9289978  44.9170014
  34.1189992 108.1759978  46.3740014  34.0223050 108.4646814  45.5595621
  35.7339992 107.1859978  54.0060014  35.8729992 106.5939978  53.2670014
  35.9009992 108.0589978  53.6500014  35.7756193 107.2228896  53.8566211
  30.2059992 104.1479978  43.7790014  29.4949992 104.6829978  43.4270014
  30.8969992 104.2029978  43.1190014  30.2020751 104.2286777  43.6415858
  30.2599992 102.6049978  40.8170014  30.9609992 102.6279978  41.4690014
  30.5619992 101.9769978  40.1610014  30.3968202 102.5232212  40.8175609
  37.5749992 103.5259978  52.0720014  36.9229992 104.2199978  52.1610014
  38.0409992 103.7359978  51.2620014  37.5485937 103.6495019  51.9747533
  33.6119992 104.3569978  44.7300014  32.8799992 104.5859978  45.3040014
  34.0589992 103.6439978  45.1850014  33.5723963 104.2918729  44.8699945
  33.5089992 102.5319978  53.7980014  33.5889992 103.2949978  54.3700014
  32.9079992 102.8109978  53.1080014  33.4386547 102.6742457  53.7830047
  25.2569992 104.9879978  46.6130014  24.9269992 104.6169978  45.7950014
  25.8459992 104.3169978  46.9600014  25.2913970 104.8466063  46.5479404
  26.6239992 108.4159978  49.2940014  26.5289992 107.8369978  48.5380014
  27.3529992 108.0449978  49.7900014  26.7096011 108.2865561  49.2576028
  25.6239992 103.7559978  50.2460014  26.1889992 103.8779978  49.4840014
  25.9429992 104.3939978  50.8850014  25.7444166 103.8588791  50.2280348
  31.9329992 109.2599978  50.9800014  31.6929992 109.9219978  51.6280014
  31.7349992 108.4249978  51.4050014  31.8733826 109.2378115  51.1261566
  26.5039992 108.1559978  54.9640014  26.1929992 108.9379978  55.4190014
  25.8539992 108.0029978  54.2780014  26.3735538 108.2424087  54.9335898
  32.4829992 103.5199978  42.4160014  33.0619992 103.6699978  43.1620014
  32.8969992 103.9899978  41.6920014  32.6183358 103.6040955  42.4203953
  23.4239992 104.3539978  54.1920014  23.4939992 105.0049978  54.8910014
  22.5329992 104.4569978  53.8570014  23.3131690 104.4569249  54.2423043
  30.2089992 110.2559978  45.8510014  30.6829992 110.5519978  46.6280014
  29.6459992 110.9949978  45.6180014  30.1977890 110.3963036  45.9258101
  24.7429992 110.2269978  55.7270014  24.7509992 110.0909978  54.7800014
  23.8269992 110.1099978  55.9790014  24.6202528 110.1925463  55.6313243
  36.1819992  95.2699978  42.2290014  35.2819992  95.4089978  42.5240014
  36.4339992  96.1009978  41.8270014  36.0928683  95.4014055  42.2150232
  24.2479992 104.0569978  44.2020014  23.9559992 104.8249978  43.7110014
  23.5729992 103.3979978  44.0390014  24.1168497 104.0729745  44.1128260
  37.3709992 109.6359978  40.6050014  37.4439992 110.5749978  40.7750014
  38.2759992 109.3309978  40.5490014  37.5034170 109.7233282  40.6207063
  20.3409992 106.4199978  53.0170014  19.8389992 106.3919978  52.2020014
  20.3459992 105.5149978  53.3270014  20.2729832 106.2937486  52.9474121
  20.0909992 109.2009978  49.9010014  21.0369992 109.0559978  49.8820014
  19.9779992 109.9849978  50.4380014  20.2053578 109.2871697  49.9710317
  38.2889992 109.8669978  55.5840014  38.2389992 108.9109978  55.5460014
  37.4619992 110.1339978  55.9850014  38.1703831 109.7724680  55.6330121
  29.2669992 109.4409978  54.4600014  29.3549992 110.2669978  54.9350014
  28.4039992 109.1109978  54.7090014  29.1623357 109.5095468  54.5587653
  29.6819992 113.2129978  44.2660014  29.6059992 113.0919978  43.3190014
  29.7139992 114.1619978  44.3840014  29.6759380 113.3247677  44.1525181
  23.3349992 112.0019978  46.0470014  23.4869992 111.6539978  46.9250014
  22.4839992 111.6449978  45.7910014  23.2408344 111.9060879  46.1326868
  32.7829992 112.3669978  41.2680014  33.1579992 111.6229978  40.7970014
  32.7879992 112.0969978  42.1860014  32.8350098 112.2286392  41.3276629
  32.4519992 112.2929978  44.0170014  31.5169992 112.3929978  44.1960014
  32.7319992 111.5829978  44.5960014  32.3619471 112.2107933  44.1196695
  35.4409992 101.3599978  56.0640014  35.0329992 101.8399978  55.3430014
  35.4809992 100.4539978  55.7560014  35.3906221 101.3032449  55.9238267
  22.5899992 107.7439978  54.0600014  22.8059992 107.3819978  54.9200014
  21.7339992 107.3689978  53.8510014  22.5038810 107.6438837  54.1492680
  25.2079992  96.2139978  50.0560014  24.3469992  96.1269978  49.6480014
  25.1859992  97.0699978  50.4840014  25.0870491  96.3178003  50.0579582
  29.8709992  95.9359978  53.4310014  30.2909992  95.5209978  54.1840014
  28.9379992  95.7569978  53.5480014  29.8023736  95.8549910  53.5498968
  33.1979992  99.6909978  54.2840014  32.6839992  99.5659978  55.0820014
  33.0419992 100.6039978  54.0400014  33.1066967  99.7972123  54.3600937
  33.9599992 104.5519978  40.0450014  34.0019992 104.3299978  39.1150014
  34.8089992 104.9509978  40.2350014  34.0805253 104.5755498  39.9433822
  29.5329992  98.4279978  40.7160014  29.2789992  98.4469978  41.6380014
  29.2759992  97.5569978  40.4140014  29.4634508  98.3128280  40.8014803
  25.2989992 101.1789978  51.1510014  24.6579992 101.1389978  51.8600014
  25.3369992 102.1059978  50.9130014  25.2163010 101.2987668  51.2159946
  25.2959992 101.3999978  46.0630014  24.4039992 101.0599978  46.0040014
  25.7469992 101.0229978  45.3070014  25.2347642 101.3024910  45.9527726
  30.8319992 101.8159978  44.8800014  30.4229992 102.6309978  44.5880014
  31.5519992 101.6759978  44.2660014  30.8734439 101.9085372  44.7570115
  29.9339992 101.9919978  56.3680014  29.3709992 101.2869978  56.6890014
  30.7599992 101.8709978  56.8360014  29.9686674 101.8792165  56.4751751
  31.8369992 101.2619978  47.6940014  31.6409992 101.8679978  46.9790014
  32.0179992 100.4289978  47.2600014  31.8346584 101.2322513  47.5374212
  23.0489992 101.4999978  53.0180014  23.0109992 101.8999978  53.8870014
  22.5589992 100.6829978  53.1080014  22.9775330 101.4442674  53.1491289
  26.4149992  98.8739978  39.8170014  25.9839992  98.4289978  40.5460014
  25.6969992  99.2449978  39.3040014  26.2589176  98.8632051  39.8474930
  19.6579992  98.6159978  46.8690014  20.2879992  98.5869978  47.5880014
  20.1069992  98.1909978  46.1380014  19.8050835  98.5545660  46.8687659
  20.9319992  99.3619978  42.2930014  21.4059992  99.9529978  41.7080014
  20.2139992  99.8919978  42.6400014  20.8998640  99.5145511  42.2597969
  31.1009992 102.8999978  52.3650014  31.4239992 102.2689978  51.7220014
  30.6599992 102.3659978  53.0260014  31.0856379 102.7413468  52.3662582
  27.8779992  98.8279978  47.1490014  26.9669992  98.8849978  47.4380014
  28.3829992  98.7679978  47.9600014  27.8216873  98.8276826  47.2981207
  22.7059992 100.4569978  45.9760014  21.8169992 100.5559978  45.6360014
  23.0029992  99.6149978  45.6300014  22.6244177 100.3567687  45.8826940
  26.3589992 100.4569978  43.6330014  27.2909992 100.5859978  43.8110014
  26.1439992 101.1259978  42.9830014  26.4574472 100.5650806  43.5694891
  32.2829992  98.0629978  50.4140014  31.6059992  98.1939978  51.0770014
  31.7979992  97.9079978  49.6030014  32.1247405  98.0599947  50.3952170
  25.0329992 101.6509978  41.1990014  24.4909992 101.2719978  40.5080014
  25.8669992 101.8459978  40.7710014  25.0714390 101.6254079  41.0464392
  35.5709992 113.7339978  56.6900014  35.7699992 114.1579978  55.8560014
  36.2259992 114.0779978  57.2970014  35.6868522 113.8386301  56.6577852
  23.1689992 106.2079978  56.2980014  23.9009992 106.4629978  56.8600014
  22.3879992 106.4129978  56.8140014  23.1636526 106.2705450  56.4445176
  29.1979992 101.6149978  49.0360014  29.7619992 101.0689978  48.4890014
  29.0499992 101.0939978  49.8250014  29.2553037 101.4696787  49.0677229
  24.1999992  97.7519978  45.4550014  23.8829992  96.8489978  45.4190014
  24.9809992  97.7539978  44.9020014  24.2622431  97.6287797  45.3753102
  27.8239992 100.0039978  51.4500014  26.9889992 100.4579978  51.5610014
  28.3479992 100.2799978  52.2020014  27.7806072 100.1033948  51.5668136
  28.3689992 106.2169978  43.1350014  27.6239992 105.7089978  42.8130014
  28.2339992 106.2659978  44.0810014  28.2488963 106.1541731  43.2188826
  35.5189992 105.3499978  51.9220014  36.1599992 105.8059978  51.3780014
  34.6879992 105.4629978  51.4590014  35.4945287 105.4276921  51.7849887
  32.2659992  99.0309978  41.3340014  31.3279992  99.1419978  41.1830014
  32.5639992  99.8869978  41.6410014  32.1776318  99.1620158  41.3548145
  29.8879992 106.4009978  54.3720014  29.5419992 106.0189978  55.1790014
  29.6879992 107.3339978  54.4430014  29.8135987 106.4749002  54.4920461
  32.9849992 100.8979978  42.9950014  33.8769992 100.7599978  43.3140014
  33.0409992 101.6889978  42.4580014  33.1147325 100.9859918  42.9661217
  23.4929992 105.5119978  48.9050014  24.2379992 105.5089978  48.3030014
  23.5709992 104.6879978  49.3860014  23.6053365 105.4002384  48.8877430
  30.4939992 107.6749978  42.1600014  30.1989992 108.5019978  42.5420014
  29.7909992 107.0559978  42.3570014  30.3586379 107.7044171  42.2388654
  20.5009992 103.9719978  54.2200014  20.7239992 103.5539978  55.0510014
  19.8989992 103.3599978  53.7970014  20.4501513 103.8319606  54.2766740
  27.5179992 103.4889978  56.4330014  27.2219992 103.3239978  55.5370014
  28.4489992 103.2689978  56.4220014  27.6034401 103.4366879  56.3090206
  32.1379992 108.8629978  54.3220014  31.2379992 109.0459978  54.0550014
  32.1719992 109.1219978  55.2430014  32.0193748 108.9230554  54.4099164
  37.8699992 101.1069978  42.6900014  37.3149992 100.7109978  42.0170014
  37.9699992 102.0179978  42.4120014  37.8076816 101.1759505  42.5605033
  37.8329992 106.9079978  55.5270014  36.9819992 107.1459978  55.1590014
  38.4229992 106.8909978  54.7740014  37.7963812 106.9382524  55.3748453
  36.1649992 109.8929978  43.1550014  35.7919992 109.0679978  43.4640014
  36.4419992 109.7099978  42.2570014  36.1513463 109.7552569  43.0759525
  33.3249992 104.7009978  50.1760014  32.3969992 104.4699978  50.1490014
  33.7759992 103.9239978  49.8460014  33.2588165 104.5642774  50.1276790
  25.8679992 109.0299978  46.3090014  26.3959992 109.8029978  46.1090014
  24.9879992 109.2539978  46.0070014  25.8213435 109.1662700  46.2407310
  21.6229992 103.8919978  40.8960014  22.2389992 104.5189978  41.2760014
  20.7609992 104.2079978  41.1680014  21.5907678 104.0204412  40.9847209
  27.2959992 106.6929978  45.8850014  27.0549992 107.6179978  45.9270014
  26.5549992 106.2339978  46.2820014  27.1629206 106.7575915  45.9443769
  27.8099992 110.8419978  52.2000014  28.1729992 111.6959978  51.9670014
  28.3419992 110.5499978  52.9410014  27.9315141 110.9193895  52.2682097
  25.9789992 111.7139978  45.4310014  25.0289992 111.8199978  45.4820014
  26.3309992 112.5349978  45.7750014  25.8965472 111.8394923  45.4844852
  31.3539992 106.9409978  51.9010014  30.9289992 106.7129978  52.7270014
  31.9349992 106.2019978  51.7190014  31.3743395 106.8099545  51.9894414
  33.5569992 107.8699978  40.9750014  33.9109992 107.4899978  41.7790014
  32.6089992 107.7759978  41.0620014  33.4772298 107.8052452  41.0968687
  34.0129992 111.4929978  54.3700014  33.4109992 110.9369978  53.8750014
  34.2939992 112.1599978  53.7440014  33.9685757 111.5070744  54.2175675
  38.0609992 112.3489978  41.1760014  38.8049992 112.9349978  41.0360014
  37.3669992 112.9179978  41.5090014  38.0689809 112.5060818  41.2018590
  22.1349992  98.7259978  53.7780014  21.2429992  99.0639978  53.7100014
  22.0369992  97.8699978  54.1960014  21.9994475  98.6566543  53.8251704
  34.4229992 106.5419978  43.2020014  34.1459992 105.8139978  43.7580014
  35.3509992 106.6609978  43.4070014  34.5104499 106.4584213  43.3058044
  21.7869992 110.5299978  52.2130014  22.0039992 109.5979978  52.1820014
  22.0329992 110.8049978  53.0960014  21.8499809 110.4395686  52.3281690
  27.6479992 108.9819978  39.4220014  27.8869992 108.2329978  38.8750014
  27.3789992 108.5939978  40.2550014  27.6443233 108.8271853  39.4597809
  26.5849992 108.5519978  41.8780014  26.7319992 108.0319978  42.6680014
  26.5819992 109.4589978  42.1850014  26.6047102 108.6033953  42.0275925
  23.0379992 105.8039978  42.3890014  22.3519992 106.1569978  42.9560014
  23.5609992 106.5669978  42.1420014  23.0148402 105.9553901  42.4331801
  30.8699992  98.4669978  52.6680014  31.5689992  98.5409978  53.3180014
  30.4889992  97.6019978  52.8220014  30.9142097  98.3602389  52.7777997
  31.6539992  98.1189978  43.7650014  31.8739992  98.5899978  42.9610014
  32.2129992  98.5129978  44.4350014  31.7596731  98.2367287  43.7455033
  29.3229992 110.2489978  42.6280014  28.5059992 110.7459978  42.6800014
  29.8519992 110.7249978  41.9870014  29.2828125 110.3811989  42.5485306
  28.8539992  99.8469978  44.6000014  29.6659992 100.3509978  44.6460014
  28.6099992  99.7019978  45.5140014  28.9321467  99.8963749  44.7298575
  29.3899992 100.8329978  53.7840014  29.5089992 101.4069978  54.5410014
  30.0449992 100.1449978  53.8990014  29.4948684 100.8185194  53.9031674
  29.7379992  96.9279978  45.5380014  29.3909992  97.5449978  46.1820014
  30.3969992  97.4289978  45.0560014  29.7795090  97.0801575  45.5610681
  26.6609992 111.2929978  42.6090014  26.8219992 112.0929978  42.1090014
  26.4639992 111.5999978  43.4940014  26.6563906 111.4438678  42.6602333
  25.3959992  97.9909978  42.2250014  25.3119992  98.8789978  42.5720014
  26.2859992  97.7259978  42.4570014  25.5048163  98.0767179  42.3038596
  35.5939992  98.7399978  54.6190014  34.6779992  99.0019978  54.5320014
  35.9299992  98.7369978  53.7230014  35.5138499  98.7755163  54.4858766
  34.1969992 102.4899978  48.7150014  33.3989992 102.0749978  48.3870014
  34.6419992 101.7999978  49.2060014  34.1479684 102.3398628  48.7365227
  23.6539992 108.4179978  41.2850014  24.2459992 109.1179978  41.5620014
  24.1129992 107.9849978  40.5660014  23.7971652 108.4552675  41.2256533
  21.9699992 101.0829978  40.4010014  21.9249992 102.0219978  40.5800014
  21.0819992 100.8469978  40.1320014  21.8438166 101.1796687  40.3891524
  35.2829992 111.7459978  50.3370014  35.1269992 112.4249978  49.6800014
  36.2159992 111.8179978  50.5400014  35.3877387 111.8486390  50.2745342
  22.7779992  95.8639978  49.0750014  22.5489992  95.9229978  48.1470014
  22.3359992  95.0729978  49.3810014  22.6868801  95.7650540  48.9894729
  21.7089992 109.8049978  45.2350014  20.8759992 110.2769978  45.2620014
  22.2539992 110.3149978  44.6360014  21.6687857 109.9384791  45.1577142
  20.9969992 112.4169978  56.5650014  21.5369992 112.2009978  57.3250014
  20.5159992 111.6119978  56.3750014  21.0059219 112.2785156  56.6434282
  25.5939992 111.3369978  58.1850014  26.3619992 110.8779978  58.5260014
  25.5729992 111.1109978  57.2550014  25.6962135 111.2436668  58.1059491
  29.6859992 110.8449978  39.5610014  29.0419992 110.2139978  39.8820014
  30.4479992 110.3139978  39.3290014  29.7008058 110.6867902  39.5736038
  32.1709992 109.7169978  56.9140014  31.8199992 108.8599978  57.1580014
  32.8969992 109.8589978  57.5210014  32.2211895 109.6191351  57.0293770
  34.2909992 110.6619978  39.7940014  34.5739992 109.8669978  40.2470014
  35.0299992 110.8949978  39.2330014  34.4297096 110.5847049  39.7801104
  20.9039992 106.2279978  57.5190014  21.0479992 105.3259978  57.2330014
  20.1319992 106.5139978  57.0320014  20.8192733 106.1431798  57.4139532
  25.2449992 106.5709978  39.6520014  25.3099992 105.7769978  40.1820014
  25.8979992 106.4529978  38.9620014  25.3421605 106.4463430  39.6312997
  27.5589992 106.1969978  56.9520014  27.2309992 106.4679978  56.0950014
  27.7109992 105.2559978  56.8640014  27.5346412 106.1069046  56.8227822
  30.5979992 107.6179978  39.3880014  30.3289992 107.7989978  40.2880014
  30.3909992 106.6929978  39.2560014  30.5331191 107.5177119  39.4935524
  33.2939992 106.1129978  54.3350014  34.0389992 106.7019978  54.2160014
  32.5369992 106.6949978  54.3990014  33.2935470 106.2722128  54.3273799
  21.7369992 103.4279978  56.9390014  22.1449992 102.5709978  56.8180014
  21.4759992 103.4419978  57.8600014  21.7576016 103.3125119  57.0469192
  26.3949992 104.5439978  41.9580014  25.9349992 104.0599978  42.6430014
  26.6499992 103.8749978  41.3220014  26.3664856 104.3873669  41.9658397
  25.6839992 102.4369978  54.3140014  25.0649992 103.1109978  54.5940014
  26.0279992 102.7579978  53.4800014  25.6457123 102.5726887  54.2396388
  27.4659992 102.7869978  40.2200014  27.2849992 102.6319978  39.2930014
  28.4159992 102.8949978  40.2650014  27.5696566 102.7803669  40.0990929
  30.7029992 104.9079978  57.5910014  31.6569992 104.9919978  57.5640014
  30.5429992 104.1959978  58.2110014  30.8117182 104.8232842  57.6710733
  36.8559992 105.1409978  39.6660014  36.5819992 104.7169978  38.8530014
  36.8949992 106.0729978  39.4490014  36.8237716 105.2088827  39.5254286
  26.0229992  99.7919978  55.3960014  26.1729992  99.0629978  54.7940014
  26.0249992 100.5689978  54.8370014  26.0437967  99.7972708  55.2380541
  26.4359992  98.1609978  52.8890014  26.9709992  98.6129978  52.2370014
  25.5829992  98.0529978  52.4660014  26.3940374  98.2082665  52.7426710
  28.0169992 103.6009978  53.1280014  28.7679992 103.4449978  52.5550014
  27.6779992 104.4529978  52.8530014  28.0739587 103.6948138  53.0124078
  32.4329992 101.4159978  58.1570014  32.6249992 100.4849978  58.0450014
  33.2909992 101.8409978  58.1460014  32.5752182 101.3460070  58.1401862
  33.7499992 104.2049978  56.2340014  33.4679992 104.9139978  55.6560014
  34.6919992 104.1319978  56.0830014  33.8387921 104.2922193  56.1344225
  24.5019992 100.9899978  57.3070014  23.7339992 100.4569978  57.0970014
  25.1799992 100.6799978  56.7080014  24.4887235 100.8751754  57.1972413
  27.2409992  95.6179978  53.3200014  27.1429992  96.5639978  53.2150014
  26.4989992  95.2449978  52.8440014  27.1272534  95.6971773  53.2412600
  28.5049992  99.9389978  56.8840014  28.2699992  99.7199978  57.7850014
  27.7219992  99.7319978  56.3740014  28.3669095  99.8809892  56.9385353
  31.2209992  99.0669978  55.9590014  30.2729992  99.0989978  56.0910014
  31.5329992  98.4409978  56.6130014  31.1335293  98.9867923  56.0654148
  32.8549992  97.7009978  57.9640014  32.7579992  96.7489978  57.9590014
  32.5329992  97.9689978  58.8250014  32.7982468  97.6070884  58.0796210
  22.6819992  98.9099978  57.0120014  22.8939992  98.2039978  56.4020014
  22.5709992  98.4729978  57.8560014  22.6960269  98.7541921  57.0425873
  27.4629992  94.9119978  55.9910014  28.1749992  94.2719978  55.9770014
  27.3619992  95.1779978  55.0780014  27.5467387  94.8604330  55.8655563
  27.8169992  96.5939978  58.0450014  27.6849992  96.1189978  57.2250014
  27.2169992  97.3389978  57.9900014  27.7179070  96.6295789  57.9253251
  27.3629992 113.4769978  41.2210014  28.2959992 113.6349978  41.3650014
  27.0989992 114.1529978  40.5960014  27.4549911 113.5899373  41.1562722
  20.9309992 108.1139978  40.7040014  21.8449992 108.1929978  40.9770014
  20.9389992 107.4269978  40.0380014  21.0570655 108.0319205  40.6512917
  19.5799992 113.5069978  45.7810014  18.9329992 113.0449978  45.2490014
  19.9349992 112.8349978  46.3640014  19.5393741 113.3529774  45.7869175
  20.4499992 111.5869978  47.5860014  20.1159992 110.7069978  47.7580014
  20.6729992 111.9329978  48.4510014  20.4343721 111.5131938  47.7264168
  37.9989992 112.3969978  50.5670014  37.9769992 112.5819978  51.5060014
  38.6889992 112.9649978  50.2260014  38.0893439 112.4991887  50.6494791
  37.5619992 111.9639978  53.4880014  37.0749992 111.2289978  53.1170014
  38.1109992 111.5699978  54.1660014  37.5695247 111.8101057  53.5288461
  36.0129992 107.7539978  58.1270014  35.1469992 107.6489978  58.5210014
  36.3889992 108.5119978  58.5730014  35.9453401 107.8421708  58.2412620
  37.3139992 106.0099978  43.6410014  38.1639992 106.4309978  43.7680014
  37.3189992 105.2699978  44.2480014  37.4311143 105.9676094  43.7404750
  37.7079992 104.0639978  45.4640014  36.9819992 103.5839978  45.8620014
  38.2899992 104.2689978  46.1970014  37.6872730 104.0260184  45.6174149
  37.4669992 106.8489978  50.4120014  38.3009992 106.4709978  50.1310014
  37.5789992 107.7919978  50.2930014  37.5961917 106.9247943  50.3574861
  35.9539992 109.7269978  52.7190014  35.3059992 110.0519978  53.3440014
  35.4359992 109.2859978  52.0450014  35.7954196 109.7118651  52.7134152
  37.9769992 103.9649978  41.8550014  37.4549992 104.3209978  41.1370014
  37.9439992 104.6399978  42.5340014  37.9010129 104.1049598  41.8483355
  36.3259992 101.2039978  40.4060014  36.4219992 101.8709978  39.7260014
  36.1859992 100.3889978  39.9250014  36.3202040 101.1850671  40.2478378
  35.4949992 102.5849978  46.0270014  35.3449992 101.6399978  46.0070014
  35.1409992 102.8659978  46.8710014  35.4266351 102.4936644  46.1383220
  20.5299992 104.6629978  50.0380014  20.7149992 104.5809978  49.1020014
  21.3799992 104.5389978  50.4610014  20.6700928 104.6350463  49.9672893
  36.3509992 104.5549978  55.6660014  36.9339992 103.8199978  55.8580014
  36.9149992 105.3269978  55.7130014  36.5069781 104.5588145  55.6986164
  37.8479992 102.4579978  56.3510014  36.9849992 102.0789978  56.1850014
  38.4519992 101.7189978  56.2760014  37.8116085 102.3063223  56.3181695
  35.5729992  98.6119978  39.5240014  36.1839992  98.2409978  40.1610014
  34.7359992  98.1909978  39.7200014  35.5434947  98.5042756  39.6377252
  35.2059992 100.1669978  44.4900014  35.4849992  99.2599978  44.6140014
  35.9649992 100.6009978  44.1010014  35.3468619 100.1014502  44.4543795
  35.8169992 100.7489978  49.9260014  36.7499992 100.9609978  49.8910014
  35.5819992 100.8499978  50.8480014  35.9129517 100.7916833  50.0459130
  35.8469992 101.4859978  52.7020014  35.0039992 101.7539978  53.0680014
  36.2889992 102.3079978  52.4910014  35.7914138 101.6338273  52.7235518
  20.1279992  99.9329978  56.1780014  21.0469992  99.8109978  56.4150014
  19.6779992  99.1829978  56.5680014  20.1930087  99.8149608  56.2631410
  38.1299992  95.4659978  58.0550014  38.4789992  94.8119978  57.4500014
  38.2769992  96.3029978  57.6150014  38.1976824  95.4896024  57.9126304
  35.8189992  97.4299978  44.5380014  36.0009992  96.9809978  45.3630014
  35.2189992  96.8459978  44.0740014  35.7628187  97.2895552  44.5882739
  21.3489992  98.2459978  49.0700014  21.7939992  97.4539978  49.3720014
  21.8149992  98.9619978  49.5000014  21.4729718  98.2344534  49.1695265
  19.6529992 101.2449978  50.1390014  20.1449992 101.0239978  49.3480014
  20.0149992 102.0849978  50.4200014  19.7692923 101.3283468  50.0687407
  37.6489992  97.5749978  56.4040014  36.7319992  97.8459978  56.3690014
  37.7719992  97.0399978  55.6200014  37.5399672  97.5397885  56.2931862
  37.6859992  97.4979978  41.0660014  38.0979992  96.7769978  40.5910014
  38.3669992  98.1669978  41.1240014  37.8345536  97.4897766  41.0088024
  19.9669992  97.5029978  44.1930014  19.0419992  97.7109978  44.0640014
  20.4209992  97.9869978  43.5030014  19.9016298  97.5969299  44.0820451
  34.7369992 112.4869978  46.1390014  35.3899992 112.1389978  45.5310014
  35.2479992 112.9749978  46.7850014  34.8952777 112.5053815  46.1432047
  19.9299992  96.2409978  52.5370014  19.2649992  95.9949978  53.1800014
  19.4869992  96.8629978  51.9600014  19.7791168  96.2914214  52.5469848
  22.1219992 109.4159978  56.6820014  21.3009992 109.5909978  56.2210014
  21.8699992 109.3429978  57.6020014  21.9755594 109.4300717  56.7433611
  25.0759992 110.3899978  52.9400014  24.6519992 111.1999978  52.6580014
  25.9809992 110.4759978  52.6380014  25.1402138 110.5124160  52.8606415
  29.3879992 111.7889978  55.9000014  29.5719992 111.4559978  56.7780014
  30.2339992 112.0989978  55.5780014  29.5276484 111.7852979  55.9767617
  31.7329992 113.0749978  55.1440014  32.4099992 112.4419978  54.9040014
  32.0539992 113.4759978  55.9510014  31.8691323 113.0425691  55.2203158
  36.6499992  95.6649978  54.2230014  35.8369992  95.9899978  53.8360014
  36.8829992  94.9039978  53.6900014  36.5701347  95.6066880  54.0979841
  22.4779992 113.6469978  52.9880014  21.7579992 114.0869978  52.5370014
  22.1129992 113.3959978  53.8360014  22.3299643 113.6733369  53.0409129
  24.9449992 113.2469978  52.0180014  24.0809992 113.3189978  52.4220014
  24.8899992 113.7939978  51.2340014  24.8191942 113.3307849  51.9674000
  29.6559992 113.1349978  51.1930014  29.1989992 113.6639978  50.5390014
  29.8189992 113.7379978  51.9180014  29.6154960 113.2889280  51.2015274
  31.9839992 112.0129978  52.1380014  31.0789992 112.1779978  51.8720014
  32.4119992 112.8659978  52.0720014  31.9181537 112.1509134  52.0927095
  34.5879992 113.5829978  52.4330014  34.4059992 114.4989978  52.2220014
  34.7649992 113.1719978  51.5860014  34.5870030 113.6528273  52.2897166
  21.8929992 112.2699978  49.8980014  21.8749992 111.8439978  50.7550014
  22.6979992 111.9509978  49.4890014  21.9992875 112.1686435  49.9599515
  24.0339992 110.9799978  48.5530014  23.8149992 110.0629978  48.7230014
  24.8579992 111.1199978  49.0190014  24.1154702 110.8735511  48.6392527
  26.5709992 111.4499978  49.4020014  26.7839992 110.5619978  49.1150014
  26.6359992 111.4149978  50.3560014  26.6089149 111.3238326  49.4917369
  30.0799992  97.1139978  48.5460014  29.4059992  96.4839978  48.8020014
  30.6439992  96.6299978  47.9430014  30.0640384  96.9623708  48.4995020
  35.2229992  95.2209978  48.6590014  35.8259992  95.7689978  48.1570014
  34.3529992  95.5399978  48.4180014  35.1879157  95.3390373  48.5577910
  36.9499992  96.3599978  46.9920014  37.5609992  95.8459978  46.4650014
  37.3319992  97.2369978  47.0150014  37.0853305  96.4082050  46.9229418
  22.4069992  95.7479978  46.3680014  21.6299992  95.5129978  45.8610014
  22.9369992  94.9509978  46.3770014  22.3723451  95.6081268  46.2998627
  21.2429992  95.5459978  42.1720014  21.6819992  96.1569978  41.5800014
  20.6089992  96.0839978  42.6460014  21.2173859  95.7024064  42.1550305
  26.9859992  95.6739978  46.1810014  27.8599992  96.0629978  46.1520014
  26.8499992  95.4589978  47.1040014  27.0871953  95.6981643  46.3017617
  32.5429992  95.7039978  47.8310014  32.6189992  95.7999978  46.8810014
  32.2679992  94.7969978  47.9590014  32.5161871  95.5944146  47.7183944
  33.8959992  95.7299978  43.5230014  33.1929992  96.3449978  43.3130014
  33.4509992  94.8929978  43.6540014  33.7396550  95.7009668  43.5119837
  21.1439992 111.4939978  43.0690014  20.4589992 111.4559978  42.4020014
  21.1479992 112.4069978  43.3570014  21.0507621 111.6121924  43.0166126
  23.1039992  97.4619978  40.6140014  23.5949992  96.8319978  40.0870014
  23.7269992  97.7579978  41.2770014  23.2555304  97.4157376  40.6314940
  28.1299992  97.7549978  43.0710014  28.3079992  97.1079978  43.7540014
  28.0759992  98.5889978  43.5380014  28.1470678  97.7791604  43.2276301
  30.0079992 112.7029978  41.4670014  30.8739992 113.0699978  41.2890014
  29.7619992 112.2639978  40.6530014  30.0932097 112.6938525  41.3326019
  36.7169992 112.2659978  44.1460014  36.5229992 111.5179978  43.5810014
  36.6779992 113.0239978  43.5630014  36.6851645 112.2660786  43.9898148
  22.3639992  96.2619978  55.8860014  21.9979992  95.4959978  56.3280014
  23.2769992  96.2909978  56.1720014  22.4373172  96.1610324  55.9851890
  24.3369992  95.6119978  57.4210014  25.2359992  95.3379978  57.2370014
  23.9509992  94.8699978  57.8860014  24.4077307  95.4742196  57.4587098
  22.9619992 112.4139978  40.0940014  22.6939992 112.6999978  40.9680014
  23.7329992 111.8679978  40.2470014  23.0295926 112.3792779  40.2341205
  32.7589992  94.9449978  57.6040014  32.8349992  94.5189978  58.4570014
  33.6519992  94.9579978  57.2610014  32.8902303  94.8883493  57.6745497
  35.9349992 111.0179978  56.2960014  35.1529992 110.8309978  55.7760014
  35.8629992 111.9469978  56.5130014  35.8181924 111.1180637  56.2541602
  50.3409992 104.9039978  46.3270014  50.4299992 105.8479978  46.1950014
  49.7029992 104.6289978  45.6690014  50.2669062 104.9959812  46.2199641
  49.2739992 104.1589978  49.7460014  49.2359992 103.5129978  50.4510014
  48.9519992 103.6919978  48.9750014  49.2252679 104.0074276  49.7382921
  41.6419992 103.7729978  51.3390014  41.6839992 103.1479978  52.0620014
  42.3449992 104.3969978  51.5210014  41.7427345 103.7717873  51.4625273
  52.9799992 107.0979978  48.0470014  52.5389992 106.3779978  48.4980014
  52.9669992 107.8189978  48.6770014  52.9179215 107.0969291  48.1938105
  42.5659992 108.2229978  49.8740014  42.1959992 107.4209978  49.5040014
  43.5069992 108.0549978  49.9200014  42.6425984 108.0904638  49.8295603
  39.1759992 101.8829978  45.2660014  38.7279992 102.7289978  45.2480014
  38.6149992 101.3039978  44.7510014  39.0388546 101.9203993  45.1938891
  39.8859992 104.0449978  47.3920014  40.0999992 103.2749978  47.9200014
  40.6239992 104.1349978  46.7890014  40.0150200 103.9518587  47.3827035
  50.0919992 112.2019978  48.2590014  50.7109992 111.5259978  47.9860014
  49.8829992 111.9839978  49.1680014  50.1486056 112.0798869  48.3443967
  47.6629992 106.5909978  50.1520014  47.9669992 105.9049978  49.5570014
  48.3849992 106.7099978  50.7700014  47.8021240 106.5132314  50.1540959
  56.3259992  98.1929978  51.0120014  56.3759992  98.8029978  51.7480014
  56.7519992  98.6539978  50.2890014  56.3904108  98.3387709  51.0150112
  50.8039992 100.9849978  50.4790014  50.9469992 100.0389978  50.4990014
  50.6979992 101.1919978  49.5510014  50.8092403 100.8834797  50.3562239
  43.9589992  99.0869978  47.7520014  44.0019992  99.9469978  47.3330014
  43.5009992  98.5349978  47.1180014  43.9029871  99.1299245  47.6090761
  51.6809992  99.2179978  46.1530014  52.3279992  98.8889978  46.7770014
  52.1909992  99.7349978  45.5300014  51.8384351  99.2429067  46.1541037
  40.5789992 101.4839978  48.5140014  41.2329992 100.9339978  48.9460014
  40.6029992 101.2099978  47.5970014  40.6717199 101.3717167  48.4491668
  45.7359992 103.0339978  47.7290014  46.3519992 102.5069978  48.2380014
  45.1489992 102.3939978  47.3250014  45.7410154 102.8753954  47.7440945
  56.7179992  99.6709978  53.2480014  56.0289992 100.3289978  53.1530014
  56.7329992  99.4729978  54.1850014  56.6257756  99.7342603  53.3615812
  42.7689992  98.0049978  51.8260014  42.5499992  98.5349978  51.0590014
  42.1009992  98.2309978  52.4730014  42.6486975  98.1080967  51.8085140
  50.1379992 107.5049978  45.3700014  49.8429992 107.1819978  44.5180014
  49.8139992 108.4049978  45.4110014  50.0538460 107.5824464  45.2589714
  45.3379992 105.6799978  52.1130014  44.5979992 106.2789978  52.2170014
  46.0519992 106.2339978  51.7980014  45.3333500 105.8367829  52.0846371
  53.4449992  98.5089978  48.1330014  53.2299992  97.7429978  48.6660014
  54.1009992  98.9809978  48.6460014  53.5042673  98.4680728  48.2751990
  42.3629992  99.8969978  49.7780014  42.9769992 100.5299978  50.1510014
  42.8749992  99.4249978  49.1220014  42.5161962  99.9197249  49.7402935
  43.7459992 107.6449978  52.9000014  43.7399992 108.5239978  52.5220014
  42.8919992 107.5609978  53.3250014  43.6297925 107.7539535  52.9056887
  39.8669992 107.3159978  43.6820014  39.5949992 107.5449978  42.7940014
  39.9119992 108.1529978  44.1430014  39.8358097 107.4606163  43.6226683
  53.4919992 108.9369978  50.3950014  52.5499992 108.9959978  50.5570014
  53.7679992 109.8429978  50.2580014  53.4005865 109.0675288  50.3986192
  53.7919992  97.2239978  51.8120014  53.0559992  97.8339978  51.7750014
  54.4759992  97.6389978  51.2860014  53.7835367  97.3637551  51.7358174
  46.7959992  95.3099978  49.2780014  46.6779992  94.3619978  49.2240014
  45.9409992  95.6429978  49.5510014  46.6642805  95.2252202  49.3075079
  51.7439992 110.7179978  47.0200014  52.1689992 110.0109978  46.5350014
  52.0609992 111.5199978  46.6030014  51.8450266 110.7295190  46.8972479
  52.9039992 108.6189978  45.5290014  52.6459992 107.9289978  44.9170014
  52.9749992 108.1759978  46.3740014  52.8783050 108.4646814  45.5595621
  54.5899992 107.1859978  54.0060014  54.7289992 106.5939978  53.2670014
  54.7569992 108.0589978  53.6500014  54.6316193 107.2228896  53.8566211
  49.0619992 104.1479978  43.7790014  48.3509992 104.6829978  43.4270014
  49.7529992 104.2029978  43.1190014  49.0580751 104.2286777  43.6415858
  49.1159992 102.6049978  40.8170014  49.8169992 102.6279978  41.4690014
  49.4179992 101.9769978  40.1610014  49.2528202 102.5232212  40.8175609
  56.4309992 103.5259978  52.0720014  55.7789992 104.2199978  52.1610014
  56.8969992 103.7359978  51.2620014  56.4045937 103.6495019  51.9747533
  52.4679992 104.3569978  44.7300014  51.7359992 104.5859978  45.3040014
  52.9149992 103.6439978  45.1850014  52.4283963 104.2918729  44.8699945
  52.3649992 102.5319978  53.7980014  52.4449992 103.2949978  54.3700014
  51.7639992 102.8109978  53.1080014  52.2946547 102.6742457  53.7830047
  44.1129992 104.9879978  46.6130014  43.7829992 104.6169978  45.7950014
  44.7019992 104.3169978  46.9600014  44.1473970 104.8466063  46.5479404
  45.4799992 108.4159978  49.2940014  45.3849992 107.8369978  48.5380014
  46.2089992 108.0449978  49.7900014  45.5656011 108.2865561  49.2576028
  44.4799992 103.7559978  50.2460014  45.0449992 103.8779978  49.4840014
  44.7989992 104.3939978  50.8850014  44.6004166 103.8588791  50.2280348
  50.7889992 109.2599978  50.9800014  50.5489992 109.9219978  51.6280014
  50.5909992 108.4249978  51.4050014  50.7293826 109.2378115  51.1261566
  45.3599992 108.1559978  54.9640014  45.0489992 108.9379978  55.4190014
  44.7099992 108.0029978  54.2780014  45.2295538 108.2424087  54.9335898
  51.3389992 103.5199978  42.4160014  51.9179992 103.6699978  43.1620014
  51.7529992 103.9899978  41.6920014  51.4743358 103.6040954  42.4203953
  42.2799992 104.3539978  54.1920014  42.3499992 105.0049978  54.8910014
  41.3889992 104.4569978  53.8570014  42.1691690 104.4569249  54.2423043
  49.0649992 110.2559978  45.8510014  49.5389992 110.5519978  46.6280014
  48.5019992 110.9949978  45.6180014  49.0537890 110.3963036  45.9258101
  43.5989992 110.2269978  55.7270014  43.6069992 110.0909978  54.7800014
  42.6829992 110.1099978  55.9790014  43.4762528 110.1925463  55.6313243
  55.0379992  95.2699978  42.2290014  54.1379992  95.4089978  42.5240014
  55.2899992  96.1009978  41.8270014  54.9488683  95.4014055  42.2150232
  43.1039992 104.0569978  44.2020014  42.8119992 104.8249978  43.7110014
  42.4289992 103.3979978  44.0390014  42.9728497 104.0729745  44.1128260
  56.2269992 109.6359978  40.6050014  56.2999992 110.5749978  40.7750014
  57.1319992 109.3309978  40.5490014  56.3594170 109.7233282  40.6207063
  39.1969992 106.4199978  53.0170014  38.6949992 106.3919978  52.2020014
  39.2019992 105.5149978  53.3270014  39.1289832 106.2937486  52.9474121
  38.9469992 109.2009978  49.9010014  39.8929992 109.0559978  49.8820014
  38.8339992 109.9849978  50.4380014  39.0613578 109.2871697  49.9710317
  57.1449992 109.8669978  55.5840014  57.0949992 108.9109978  55.5460014
  56.3179992 110.1339978  55.9850014  57.0263831 109.7724680  55.6330121
  48.1229992 109.4409978  54.4600014  48.2109992 110.2669978  54.9350014
  47.2599992 109.1109978  54.7090014  48.0183357 109.5095468  54.5587653
  48.5379992 113.2129978  44.2660014  48.4619992 113.0919978  43.3190014
  48.5699992 114.1619978  44.3840014  48.5319380 113.3247677  44.1525181
  42.1909992 112.0019978  46.0470014  42.3429992 111.6539978  46.9250014
  41.3399992 111.6449978  45.7910014  42.0968344 111.9060879  46.1326868
  51.6389992 112.3669978  41.2680014  52.0139992 111.6229978  40.7970014
  51.6439992 112.0969978  42.1860014  51.6910098 112.2286392  41.3276629
  51.3079992 112.2929978  44.0170014  50.3729992 112.3929978  44.1960014
  51.5879992 111.5829978  44.5960014  51.2179471 112.2107933  44.1196695
  54.2969992 101.3599978  56.0640014  53.8889992 101.8399978  55.3430014
  54.3369992 100.4539978  55.7560014  54.2466221 101.3032449  55.9238267
  41.4459992 107.7439978  54.0600014  41.6619992 107.3819978  54.9200014
  40.5899992 107.3689978  53.8510014  41.3598810 107.6438837  54.1492680
  44.0639992  96.2139978  50.0560014  43.2029992  96.1269978  49.6480014
  44.0419992  97.0699978  50.4840014  43.9430491  96.3178003  50.0579582
  48.7269992  95.9359978  53.4310014  49.1469992  95.5209978  54.1840014
  47.7939992  95.7569978  53.5480014  48.6583736  95.8549910  53.5498968
  52.0539992  99.6909978  54.2840014  51.5399992  99.5659978  55.0820014
  51.8979992 100.6039978  54.0400014  51.9626967  99.7972123  54.3600937
  52.8159992 104.5519978  40.0450014  52.8579992 104.3299978  39.1150014
  53.6649992 104.9509978  40.2350014  52.9365253 104.5755498  39.9433822
  48.3889992  98.4279978  40.7160014  48.1349992  98.4469978  41.6380014
  48.1319992  97.5569978  40.4140014  48.3194508  98.3128280  40.8014803
  44.1549992 101.1789978  51.1510014  43.5139992 101.1389978  51.8600014
  44.1929992 102.1059978  50.9130014  44.0723010 101.2987668  51.2159946
  44.1519992 101.3999978  46.0630014  43.2599992 101.0599978  46.0040014
  44.6029992 101.0229978  45.3070014  44.0907642 101.3024910  45.9527726
  49.6879992 101.8159978  44.8800014  49.2789992 102.6309978  44.5880014
  50.4079992 101.6759978  44.2660014  49.7294439 101.9085372  44.7570115
  48.7899992 101.9919978  56.3680014  48.2269992 101.2869978  56.6890014
  49.6159992 101.8709978  56.8360014  48.8246674 101.8792165  56.4751751
  50.6929992 101.2619978  47.6940014  50.4969992 101.8679978  46.9790014
  50.8739992 100.4289978  47.2600014  50.6906584 101.2322513  47.5374212
  41.9049992 101.4999978  53.0180014  41.8669992 101.8999978  53.8870014
  41.4149992 100.6829978  53.1080014  41.8335330 101.4442674  53.1491289
  45.2709992  98.8739978  39.8170014  44.8399992  98.4289978  40.5460014
  44.5529992  99.2449978  39.3040014  45.1149176  98.8632051  39.8474930
  38.5139992  98.6159978  46.8690014  39.1439992  98.5869978  47.5880014
  38.9629992  98.1909978  46.1380014  38.6610835  98.5545660  46.8687659
  39.7879992  99.3619978  42.2930014  40.2619992  99.9529978  41.7080014
  39.0699992  99.8919978  42.6400014  39.7558640  99.5145511  42.2597969
  49.9569992 102.8999978  52.3650014  50.2799992 102.2689978  51.7220014
  49.5159992 102.3659978  53.0260014  49.9416379 102.7413468  52.3662582
  46.7339992  98.8279978  47.1490014  45.8229992  98.8849978  47.4380014
  47.2389992  98.7679978  47.9600014  46.6776873  98.8276826  47.2981207
  41.5619992 100.4569978  45.9760014  40.6729992 100.5559978  45.6360014
  41.8589992  99.6149978  45.6300014  41.4804177 100.3567687  45.8826940
  45.2149992 100.4569978  43.6330014  46.1469992 100.5859978  43.8110014
  44.9999992 101.1259978  42.9830014  45.3134472 100.5650806  43.5694891
  51.1389992  98.0629978  50.4140014  50.4619992  98.1939978  51.0770014
  50.6539992  97.9079978  49.6030014  50.9807405  98.0599947  50.3952170
  43.8889992 101.6509978  41.1990014  43.3469992 101.2719978  40.5080014
  44.7229992 101.8459978  40.7710014  43.9274390 101.6254079  41.0464392
  54.4269992 113.7339978  56.6900014  54.6259992 114.1579978  55.8560014
  55.0819992 114.0779978  57.2970014  54.5428522 113.8386301  56.6577852
  42.0249992 106.2079978  56.2980014  42.7569992 106.4629978  56.8600014
  41.2439992 106.4129978  56.8140014  42.0196526 106.2705450  56.4445176
  48.0539992 101.6149978  49.0360014  48.6179992 101.0689978  48.4890014
  47.9059992 101.0939978  49.8250014  48.1113037 101.4696787  49.0677229
  43.0559992  97.7519978  45.4550014  42.7389992  96.8489978  45.4190014
  43.8369992  97.7539978  44.9020014  43.1182431  97.6287797  45.3753102
  46.6799992 100.0039978  51.4500014  45.8449992 100.4579978  51.5610014
  47.2039992 100.2799978  52.2020014  46.6366072 100.1033948  51.5668136
  47.2249992 106.2169978  43.1350014  46.4799992 105.7089978  42.8130014
  47.0899992 106.2659978  44.0810014  47.1048963 106.1541731  43.2188826
  54.3749992 105.3499978  51.9220014  55.0159992 105.8059978  51.3780014
  53.5439992 105.4629978  51.4590014  54.3505287 105.4276921  51.7849887
  51.1219992  99.0309978  41.3340014  50.1839992  99.1419978  41.1830014
  51.4199992  99.8869978  41.6410014  51.0336318  99.1620158  41.3548145
  48.7439992 106.4009978  54.3720014  48.3979992 106.0189978  55.1790014
  48.5439992 107.3339978  54.4430014  48.6695987 106.4749002  54.4920461
  51.8409992 100.8979978  42.9950014  52.7329992 100.7599978  43.3140014
  51.8969992 101.6889978  42.4580014  51.9707325 100.9859918  42.9661217
  42.3489992 105.5119978  48.9050014  43.0939992 105.5089978  48.3030014
  42.4269992 104.6879978  49.3860014  42.4613365 105.4002384  48.8877430
  49.3499992 107.6749978  42.1600014  49.0549992 108.5019978  42.5420014
  48.6469992 107.0559978  42.3570014  49.2146379 107.7044171  42.2388654
  39.3569992 103.9719978  54.2200014  39.5799992 103.5539978  55.0510014
  38.7549992 103.3599978  53.7970014  39.3061513 103.8319606  54.2766740
  46.3739992 103.4889978  56.4330014  46.0779992 103.3239978  55.5370014
  47.3049992 103.2689978  56.4220014  46.4594401 103.4366879  56.3090206
  50.9939992 108.8629978  54.3220014  50.0939992 109.0459978  54.0550014
  51.0279992 109.1219978  55.2430014  50.8753748 108.9230554  54.4099164
  56.7259992 101.1069978  42.6900014  56.1709992 100.7109978  42.0170014
  56.8259992 102.0179978  42.4120014  56.6636816 101.1759505  42.5605033
  56.6889992 106.9079978  55.5270014  55.8379992 107.1459978  55.1590014
  57.2789992 106.8909978  54.7740014  56.6523812 106.9382524  55.3748453
  55.0209992 109.8929978  43.1550014  54.6479992 109.0679978  43.4640014
  55.2979992 109.7099978  42.2570014  55.0073463 109.7552569  43.0759525
  52.1809992 104.7009978  50.1760014  51.2529992 104.4699978  50.1490014
  52.6319992 103.9239978  49.8460014  52.1148165 104.5642774  50.1276790
  44.7239992 109.0299978  46.3090014  45.2519992 109.8029978  46.1090014
  43.8439992 109.2539978  46.0070014  44.6773435 109.1662700  46.2407310
  40.4789992 103.8919978  40.8960014  41.0949992 104.5189978  41.2760014
  39.6169992 104.2079978  41.1680014  40.4467678 104.0204412  40.9847209
  46.1519992 106.6929978  45.8850014  45.9109992 107.6179978  45.9270014
  45.4109992 106.2339978  46.2820014  46.0189206 106.7575915  45.9443769
  46.6659992 110.8419978  52.2000014  47.0289992 111.6959978  51.9670014
  47.1979992 110.5499978  52.9410014  46.7875141 110.9193895  52.2682097
  44.8349992 111.7139978  45.4310014  43.8849992 111.8199978  45.4820014
  45.1869992 112.5349978  45.7750014  44.7525472 111.8394923  45.4844852
  50.2099992 106.9409978  51.9010014  49.7849992 106.7129978  52.7270014
  50.7909992 106.2019978  51.7190014  50.2303395 106.8099545  51.9894414
  52.4129992 107.8699978  40.9750014  52.7669992 107.4899978  41.7790014
  51.4649992 107.7759978  41.0620014  52.3332298 107.8052452  41.0968687
  52.8689992 111.4929978  54.3700014  52.2669992 110.9369978  53.8750014
  53.1499992 112.1599978  53.7440014  52.8245757 111.5070744  54.2175675
  56.9169992 112.3489978  41.1760014  57.6609992 112.9349978  41.0360014
  56.2229992 112.9179978  41.5090014  56.9249809 112.5060818  41.2018590
  40.9909992  98.7259978  53.7780014  40.0989992  99.0639978  53.7100014
  40.8929992  97.8699978  54.1960014  40.8554475  98.6566543  53.8251704
  53.2789992 106.5419978  43.2020014  53.0019992 105.8139978  43.7580014
  54.2069992 106.6609978  43.4070014  53.3664499 106.4584213  43.3058044
  40.6429992 110.5299978  52.2130014  40.8599992 109.5979978  52.1820014
  40.8889992 110.8049978  53.0960014  40.7059809 110.4395686  52.3281690
  46.5039992 108.9819978  39.4220014  46.7429992 108.2329978  38.8750014
  46.2349992 108.5939978  40.2550014  46.5003233 108.8271853  39.4597809
  45.4409992 108.5519978  41.8780014  45.5879992 108.0319978  42.6680014
  45.4379992 109.4589978  42.1850014  45.4607102 108.6033953  42.0275925
  41.8939992 105.8039978  42.3890014  41.2079992 106.1569978  42.9560014
  42.4169992 106.5669978  42.1420014  41.8708402 105.9553901  42.4331801
  49.7259992  98.4669978  52.6680014  50.4249992  98.5409978  53.3180014
  49.3449992  97.6019978  52.8220014  49.7702097  98.3602389  52.7777997
  50.5099992  98.1189978  43.7650014  50.7299992  98.5899978  42.9610014
  51.0689992  98.5129978  44.4350014  50.6156731  98.2367287  43.7455033
  48.1789992 110.2489978  42.6280014  47.3619992 110.7459978  42.6800014
  48.7079992 110.7249978  41.9870014  48.1388125 110.3811989  42.5485306
  47.7099992  99.8469978  44.6000014  48.5219992 100.3509978  44.6460014
  47.4659992  99.7019978  45.5140014  47.7881467  99.8963749  44.7298575
  48.2459992 100.8329978  53.7840014  48.3649992 101.4069978  54.5410014
  48.9009992 100.1449978  53.8990014  48.3508684 100.8185194  53.9031674
  48.5939992  96.9279978  45.5380014  48.2469992  97.5449978  46.1820014
  49.2529992  97.4289978  45.0560014  48.6355090  97.0801575  45.5610681
  45.5169992 111.2929978  42.6090014  45.6779992 112.0929978  42.1090014
  45.3199992 111.5999978  43.4940014  45.5123906 111.4438678  42.6602333
  44.2519992  97.9909978  42.2250014  44.1679992  98.8789978  42.5720014
  45.1419992  97.7259978  42.4570014  44.3608163  98.0767179  42.3038596
  54.4499992  98.7399978  54.6190014  53.5339992  99.0019978  54.5320014
  54.7859992  98.7369978  53.7230014  54.3698499  98.7755163  54.4858766
  53.0529992 102.4899978  48.7150014  52.2549992 102.0749978  48.3870014
  53.4979992 101.7999978  49.2060014  53.0039684 102.3398628  48.7365227
  42.5099992 108.4179978  41.2850014  43.1019992 109.1179978  41.5620014
  42.9689992 107.9849978  40.5660014  42.6531652 108.4552675  41.2256533
  40.8259992 101.0829978  40.4010014  40.7809992 102.0219978  40.5800014
  39.9379992 100.8469978  40.1320014  40.6998166 101.1796687  40.3891524
  54.1389992 111.7459978  50.3370014  53.9829992 112.4249978  49.6800014
  55.0719992 111.8179978  50.5400014  54.2437387 111.8486390  50.2745342
  41.6339992  95.8639978  49.0750014  41.4049992  95.9229978  48.1470014
  41.1919992  95.0729978  49.3810014  41.5428801  95.7650540  48.9894729
  40.5649992 109.8049978  45.2350014  39.7319992 110.2769978  45.2620014
  41.1099992 110.3149978  44.6360014  40.5247857 109.9384791  45.1577142
  39.8529992 112.4169978  56.5650014  40.3929992 112.2009978  57.3250014
  39.3719992 111.6119978  56.3750014  39.8619219 112.2785156  56.6434282
  44.4499992 111.3369978  58.1850014  45.2179992 110.8779978  58.5260014
  44.4289992 111.1109978  57.2550014  44.5522135 111.2436668  58.1059491
  48.5419992 110.8449978  39.5610014  47.8979992 110.2139978  39.8820014
  49.3039992 110.3139978  39.3290014  48.5568058 110.6867902  39.5736038
  51.0269992 109.7169978  56.9140014  50.6759992 108.8599978  57.1580014
  51.7529992 109.8589978  57.5210014  51.0771895 109.6191351  57.0293770
  53.1469992 110.6619978  39.7940014  53.4299992 109.8669978  40.2470014
  53.8859992 110.8949978  39.2330014  53.2857096 110.5847049  39.7801104
  39.7599992 106.2279978  57.5190014  39.9039992 105.3259978  57.2330014
  38.9879992 106.5139978  57.0320014  39.6752733 106.1431798  57.4139532
  44.1009992 106.5709978  39.6520014  44.1659992 105.7769978  40.1820014
  44.7539992 106.4529978  38.9620014  44.1981605 106.4463430  39.6312997
  46.4149992 106.1969978  56.9520014  46.0869992 106.4679978  56.0950014
  46.5669992 105.2559978  56.8640014  46.3906412 106.1069046  56.8227822
  49.4539992 107.6179978  39.3880014  49.1849992 107.7989978  40.2880014
  49.2469992 106.6929978  39.2560014  49.3891191 107.5177119  39.4935524
  52.1499992 106.1129978  54.3350014  52.8949992 106.7019978  54.2160014
  51.3929992 106.6949978  54.3990014  52.1495470 106.2722128  54.3273799
  40.5929992 103.4279978  56.9390014  41.0009992 102.5709978  56.8180014
  40.3319992 103.4419978  57.8600014  40.6136016 103.3125119  57.0469192
  45.2509992 104.5439978  41.9580014  44.7909992 104.0599978  42.6430014
  45.5059992 103.8749978  41.3220014  45.2224856 104.3873669  41.9658397
  44.5399992 102.4369978  54.3140014  43.9209992 103.1109978  54.5940014
  44.8839992 102.7579978  53.4800014  44.5017123 102.5726887  54.2396388
  46.3219992 102.7869978  40.2200014  46.1409992 102.6319978  39.2930014
  47.2719992 102.8949978  40.2650014  46.4256566 102.7803669  40.0990929
  49.5589992 104.9079978  57.5910014  50.5129992 104.9919978  57.5640014
  49.3989992 104.1959978  58.2110014  49.6677182 104.8232842  57.6710733
  55.7119992 105.1409978  39.6660014  55.4379992 104.7169978  38.8530014
  55.7509992 106.0729978  39.4490014  55.6797716 105.2088827  39.5254286
  44.8789992  99.7919978  55.3960014  45.0289992  99.0629978  54.7940014
  44.8809992 100.5689978  54.8370014  44.8997967  99.7972708  55.2380541
  45.2919992  98.1609978  52.8890014  45.8269992  98.6129978  52.2370014
  44.4389992  98.0529978  52.4660014  45.2500374  98.2082665  52.7426710
  46.8729992 103.6009978  53.1280014  47.6239992 103.4449978  52.5550014
  46.5339992 104.4529978  52.8530014  46.9299587 103.6948138  53.0124078
  51.2889992 101.4159978  58.1570014  51.4809992 100.4849978  58.0450014
  52.1469992 101.8409978  58.1460014  51.4312182 101.3460070  58.1401862
  52.6059992 104.2049978  56.2340014  52.3239992 104.9139978  55.6560014
  53.5479992 104.1319978  56.0830014  52.6947921 104.2922193  56.1344225
  43.3579992 100.9899978  57.3070014  42.5899992 100.4569978  57.0970014
  44.0359992 100.6799978  56.7080014  43.3447235 100.8751754  57.1972413
  46.0969992  95.6179978  53.3200014  45.9989992  96.5639978  53.2150014
  45.3549992  95.2449978  52.8440014  45.9832534  95.6971773  53.2412600
  47.3609992  99.9389978  56.8840014  47.1259992  99.7199978  57.7850014
  46.5779992  99.7319978  56.3740014  47.2229095  99.8809892  56.9385353
  50.0769992  99.0669978  55.9590014  49.1289992  99.0989978  56.0910014
  50.3889992  98.4409978  56.6130014  49.9895293  98.9867923  56.0654148
  51.7109992  97.7009978  57.9640014  51.6139992  96.7489978  57.9590014
  51.3889992  97.9689978  58.8250014  51.6542468  97.6070884  58.0796210
  41.5379992  98.9099978  57.0120014  41.7499992  98.2039978  56.4020014
  41.4269992  98.4729978  57.8560014  41.5520269  98.7541921  57.0425873
  46.3189992  94.9119978  55.9910014  47.0309992  94.2719978  55.9770014
  46.2179992  95.1779978  55.0780014  46.4027387  94.8604330  55.8655563
  46.6729992  96.5939978  58.0450014  46.5409992  96.1189978  57.2250014
  46.0729992  97.3389978  57.9900014  46.5739070  96.6295789  57.9253251
  46.2189992 113.4769978  41.2210014  47.1519992 113.6349978  41.3650014
  45.9549992 114.1529978  40.5960014  46.3109911 113.5899373  41.1562722
  39.7869992 108.1139978  40.7040014  40.7009992 108.1929978  40.9770014
  39.7949992 107.4269978  40.0380014  39.9130655 108.0319205  40.6512917
  38.4359992 113.5069978  45.7810014  37.7889992 113.0449978  45.2490014
  38.7909992 112.8349978  46.3640014  38.3953741 113.3529774  45.7869175
  39.3059992 111.5869978  47.5860014  38.9719992 110.7069978  47.7580014
  39.5289992 111.9329978  48.4510014  39.2903721 111.5131938  47.7264168
  56.8549992 112.3969978  50.5670014  56.8329992 112.5819978  51.5060014
  57.5449992 112.9649978  50.2260014  56.9453439 112.4991887  50.6494791
  56.4179992 111.9639978  53.4880014  55.9309992 111.2289978  53.1170014
  56.9669992 111.5699978  54.1660014  56.4255247 111.8101057  53.5288461
  54.8689992 107.7539978  58.1270014  54.0029992 107.6489978  58.5210014
  55.2449992 108.5119978  58.5730014  54.8013401 107.8421708  58.2412620
  56.1699992 106.0099978  43.6410014  57.0199992 106.4309978  43.7680014
  56.1749992 105.2699978  44.2480014  56.2871143 105.9676094  43.7404750
  56.5639992 104.0639978  45.4640014  55.8379992 103.5839978  45.8620014
  57.1459992 104.2689978  46.1970014  56.5432730 104.0260184  45.6174149
  56.3229992 106.8489978  50.4120014  57.1569992 106.4709978  50.1310014
  56.4349992 107.7919978  50.2930014  56.4521917 106.9247943  50.3574861
  54.8099992 109.7269978  52.7190014  54.1619992 110.0519978  53.3440014
  54.2919992 109.2859978  52.0450014  54.6514196 109.7118651  52.7134152
  56.8329992 103.9649978  41.8550014  56.3109992 104.3209978  41.1370014
  56.7999992 104.6399978  42.5340014  56.7570129 104.1049598  41.8483355
  55.1819992 101.2039978  40.4060014  55.2779992 101.8709978  39.7260014
  55.0419992 100.3889978  39.9250014  55.1762040 101.1850671  40.2478378
  54.3509992 102.5849978  46.0270014  54.2009992 101.6399978  46.0070014
  53.9969992 102.8659978  46.8710014  54.2826351 102.4936644  46.1383220
  39.3859992 104.6629978  50.0380014  39.5709992 104.5809978  49.1020014
  40.2359992 104.5389978  50.4610014  39.5260928 104.6350463  49.9672893
  55.2069992 104.5549978  55.6660014  55.7899992 103.8199978  55.8580014
  55.7709992 105.3269978  55.7130014  55.3629781 104.5588145  55.6986164
  56.7039992 102.4579978  56.3510014  55.8409992 102.0789978  56.1850014
  57.3079992 101.7189978  56.2760014  56.6676085 102.3063223  56.3181695
  54.4289992  98.6119978  39.5240014  55.0399992  98.2409978  40.1610014
  53.5919992  98.1909978  39.7200014  54.3994947  98.5042756  39.6377252
  54.0619992 100.1669978  44.4900014  54.3409992  99.2599978  44.6140014
  54.8209992 100.6009978  44.1010014  54.2028619 100.1014502  44.4543795
  54.6729992 100.7489978  49.9260014  55.6059992 100.9609978  49.8910014
  54.4379992 100.8499978  50.8480014  54.7689517 100.7916833  50.0459130
  54.7029992 101.4859978  52.7020014  53.8599992 101.7539978  53.0680014
  55.1449992 102.3079978  52.4910014  54.6474138 101.6338273  52.7235518
  38.9839992  99.9329978  56.1780014  39.9029992  99.8109978  56.4150014
  38.5339992  99.1829978  56.5680014  39.0490087  99.8149608  56.2631410
  56.9859992  95.4659978  58.0550014  57.3349992  94.8119978  57.4500014
  57.1329992  96.3029978  57.6150014  57.0536824  95.4896024  57.9126304
  54.6749992  97.4299978  44.5380014  54.8569992  96.9809978  45.3630014
  54.0749992  96.8459978  44.0740014  54.6188187  97.2895552  44.5882739
  40.2049992  98.2459978  49.0700014  40.6499992  97.4539978  49.3720014
  40.6709992  98.9619978  49.5000014  40.3289718  98.2344534  49.1695265
  38.5089992 101.2449978  50.1390014  39.0009992 101.0239978  49.3480014
  38.8709992 102.0849978  50.4200014  38.6252923 101.3283468  50.0687407
  56.5049992  97.5749978  56.4040014  55.5879992  97.8459978  56.3690014
  56.6279992  97.0399978  55.6200014  56.3959672  97.5397885  56.2931862
  56.5419992  97.4979978  41.0660014  56.9539992  96.7769978  40.5910014
  57.2229992  98.1669978  41.1240014  56.6905536  97.4897766  41.0088024
  38.8229992  97.5029978  44.1930014  37.8979992  97.7109978  44.0640014
  39.2769992  97.9869978  43.5030014  38.7576298  97.5969299  44.0820451
  53.5929992 112.4869978  46.1390014  54.2459992 112.1389978  45.5310014
  54.1039992 112.9749978  46.7850014  53.7512777 112.5053815  46.1432047
  38.7859992  96.2409978  52.5370014  38.1209992  95.9949978  53.1800014
  38.3429992  96.8629978  51.9600014  38.6351168  96.2914214  52.5469848
  40.9779992 109.4159978  56.6820014  40.1569992 109.5909978  56.2210014
  40.7259992 109.3429978  57.6020014  40.8315594 109.4300717  56.7433611
  43.9319992 110.3899978  52.9400014  43.5079992 111.1999978  52.6580014
  44.8369992 110.4759978  52.6380014  43.9962138 110.5124160  52.8606415
  48.2439992 111.7889978  55.9000014  48.4279992 111.4559978  56.7780014
  49.0899992 112.0989978  55.5780014  48.3836484 111.7852979  55.9767617
  50.5889992 113.0749978  55.1440014  51.2659992 112.4419978  54.9040014
  50.9099992 113.4759978  55.9510014  50.7251323 113.0425691  55.2203158
  55.5059992  95.6649978  54.2230014  54.6929992  95.9899978  53.8360014
  55.7389992  94.9039978  53.6900014  55.4261347  95.6066880  54.0979841
  41.3339992 113.6469978  52.9880014  40.6139992 114.0869978  52.5370014
  40.9689992 113.3959978  53.8360014  41.1859643 113.6733369  53.0409129
  43.8009992 113.2469978  52.0180014  42.9369992 113.3189978  52.4220014
  43.7459992 113.7939978  51.2340014  43.6751942 113.3307849  51.9674000
  48.5119992 113.1349978  51.1930014  48.0549992 113.6639978  50.5390014
  48.6749992 113.7379978  51.9180014  48.4714960 113.2889280  51.2015274
  50.8399992 112.0129978  52.1380014  49.9349992 112.1779978  51.8720014
  51.2679992 112.8659978  52.0720014  50.7741537 112.1509134  52.0927095
  53.4439992 113.5829978  52.4330014  53.2619992 114.4989978  52.2220014
  53.6209992 113.1719978  51.5860014  53.4430030 113.6528273  52.2897166
  40.7489992 112.2699978  49.8980014  40.7309992 111.8439978  50.7550014
  41.5539992 111.9509978  49.4890014  40.8552875 112.1686435  49.9599515
  42.8899992 110.9799978  48.5530014  42.6709992 110.0629978  48.7230014
  43.7139992 111.1199978  49.0190014  42.9714702 110.8735511  48.6392527
  45.4269992 111.4499978  49.4020014  45.6399992 110.5619978  49.1150014
  45.4919992 111.4149978  50.3560014  45.4649149 111.3238326  49.4917369
  48.9359992  97.1139978  48.5460014  48.2619992  96.4839978  48.8020014
  49.4999992  96.6299978  47.9430014  48.9200384  96.9623708  48.4995020
  54.0789992  95.2209978  48.6590014  54.6819992  95.7689978  48.1570014
  53.2089992  95.5399978  48.4180014  54.0439157  95.3390373  48.5577910
  55.8059992  96.3599978  46.9920014  56.4169992  95.8459978  46.4650014
  56.1879992  97.2369978  47.0150014  55.9413305  96.4082050  46.9229418
  41.2629992  95.7479978  46.3680014  40.4859992  95.5129978  45.8610014
  41.7929992  94.9509978  46.3770014  41.2283451  95.6081268  46.2998627
  40.0989992  95.5459978  42.1720014  40.5379992  96.1569978  41.5800014
  39.4649992  96.0839978  42.6460014  40.0733859  95.7024064  42.1550305
  45.8419992  95.6739978  46.1810014  46.7159992  96.0629978  46.1520014
  45.7059992  95.4589978  47.1040014  45.9431953  95.6981643  46.3017617
  51.3989992  95.7039978  47.8310014  51.4749992  95.7999978  46.8810014
  51.1239992  94.7969978  47.9590014  51.3721871  95.5944146  47.7183944
  52.7519992  95.7299978  43.5230014  52.0489992  96.3449978  43.3130014
  52.3069992  94.8929978  43.6540014  52.5956550  95.7009668  43.5119837
  39.9999992 111.4939978  43.0690014  39.3149992 111.4559978  42.4020014
  40.0039992 112.4069978  43.3570014  39.9067621 111.6121924  43.0166126
  41.9599992  97.4619978  40.6140014  42.4509992  96.8319978  40.0870014
  42.5829992  97.7579978  41.2770014  42.1115304  97.4157376  40.6314940
  46.9859992  97.7549978  43.0710014  47.1639992  97.1079978  43.7540014
  46.9319992  98.5889978  43.5380014  47.0030678  97.7791604  43.2276301
  48.8639992 112.7029978  41.4670014  49.7299992 113.0699978  41.2890014
  48.6179992 112.2639978  40.6530014  48.9492097 112.6938525  41.3326019
  55.5729992 112.2659978  44.1460014  55.3789992 111.5179978  43.5810014
  55.5339992 113.0239978  43.5630014  55.5411645 112.2660786  43.9898148
  41.2199992  96.2619978  55.8860014  40.8539992  95.4959978  56.3280014
  42.1329992  96.2909978  56.1720014  41.2933172  96.1610324  55.9851890
  43.1929992  95.6119978  57.4210014  44.0919992  95.3379978  57.2370014
  42.8069992  94.8699978  57.8860014  43.2637307  95.4742196  57.4587098
  41.8179992 112.4139978  40.0940014  41.5499992 112.6999978  40.9680014
  42.5889992 111.8679978  40.2470014  41.8855926 112.3792779  40.2341205
  51.6149992  94.9449978  57.6040014  51.6909992  94.5189978  58.4570014
  52.5079992  94.9579978  57.2610014  51.7462303  94.8883493  57.6745497
  54.7909992 111.0179978  56.2960014  54.0089992 110.8309978  55.7760014
  54.7189992 111.9469978  56.5130014  54.6741924 111.1180637  56.2541602
  69.1969992 104.9039978  46.3270014  69.2859992 105.8479978  46.1950014
  68.5589992 104.6289978  45.6690014  69.1229062 104.9959812  46.2199641
  68.1299992 104.1589978  49.7460014  68.0919992 103.5129978  50.4510014
  67.8079992 103.6919978  48.9750014  68.0812679 104.0074276  49.7382921
  60.4979992 103.7729978  51.3390014  60.5399992 103.1479978  52.0620014
  61.2009992 104.3969978  51.5210014  60.5987345 103.7717873  51.4625274
  71.8359992 107.0979978  48.0470014  71.3949992 106.3779978  48.4980014
  71.8229992 107.8189978  48.6770014  71.7739215 107.0969291  48.1938105
  61.4219992 108.2229978  49.8740014  61.0519992 107.4209978  49.5040014
  62.3629992 108.0549978  49.9200014  61.4985984 108.0904638  49.8295603
  58.0319992 101.8829978  45.2660014  57.5839992 102.7289978  45.2480014
  57.4709992 101.3039978  44.7510014  57.8948546 101.9203993  45.1938891
  58.7419992 104.0449978  47.3920014  58.9559992 103.2749978  47.9200014
  59.4799992 104.1349978  46.7890014  58.8710200 103.9518587  47.3827035
  68.9479992 112.2019978  48.2590014  69.5669992 111.5259978  47.9860014
  68.7389992 111.9839978  49.1680014  69.0046056 112.0798869  48.3443967
  66.5189992 106.5909978  50.1520014  66.8229992 105.9049978  49.5570014
  67.2409992 106.7099978  50.7700014  66.6581240 106.5132314  50.1540959
  75.1819992  98.1929978  51.0120014  75.2319992  98.8029978  51.7480014
  75.6079992  98.6539978  50.2890014  75.2464108  98.3387709  51.0150112
  69.6599992 100.9849978  50.4790014  69.8029992 100.0389978  50.4990014
  69.5539992 101.1919978  49.5510014  69.6652403 100.8834797  50.3562239
  62.8149992  99.0869978  47.7520014  62.8579992  99.9469978  47.3330014
  62.3569992  98.5349978  47.1180014  62.7589871  99.1299245  47.6090761
  70.5369992  99.2179978  46.1530014  71.1839992  98.8889978  46.7770014
  71.0469992  99.7349978  45.5300014  70.6944351  99.2429067  46.1541037
  59.4349992 101.4839978  48.5140014  60.0889992 100.9339978  48.9460014
  59.4589992 101.2099978  47.5970014  59.5277199 101.3717167  48.4491668
  64.5919992 103.0339978  47.7290014  65.2079992 102.5069978  48.2380014
  64.0049992 102.3939978  47.3250014  64.5970154 102.8753954  47.7440945
  75.5739992  99.6709978  53.2480014  74.8849992 100.3289978  53.1530014
  75.5889992  99.4729978  54.1850014  75.4817756  99.7342603  53.3615812
  61.6249992  98.0049978  51.8260014  61.4059992  98.5349978  51.0590014
  60.9569992  98.2309978  52.4730014  61.5046975  98.1080967  51.8085140
  68.9939992 107.5049978  45.3700014  68.6989992 107.1819978  44.5180014
  68.6699992 108.4049978  45.4110014  68.9098460 107.5824464  45.2589714
  64.1939992 105.6799978  52.1130014  63.4539992 106.2789978  52.2170014
  64.9079992 106.2339978  51.7980014  64.1893500 105.8367829  52.0846371
  72.3009992  98.5089978  48.1330014  72.0859992  97.7429978  48.6660014
  72.9569992  98.9809978  48.6460014  72.3602673  98.4680728  48.2751990
  61.2189992  99.8969978  49.7780014  61.8329992 100.5299978  50.1510014
  61.7309992  99.4249978  49.1220014  61.3721962  99.9197249  49.7402935
  62.6019992 107.6449978  52.9000014  62.5959992 108.5239978  52.5220014
  61.7479992 107.5609978  53.3250014  62.4857925 107.7539535  52.9056887
  58.7229992 107.3159978  43.6820014  58.4509992 107.5449978  42.7940014
  58.7679992 108.1529978  44.1430014  58.6918097 107.4606163  43.6226683
  72.3479992 108.9369978  50.3950014  71.4059992 108.9959978  50.5570014
  72.6239992 109.8429978  50.2580014  72.2565865 109.0675288  50.3986192
  72.6479992  97.2239978  51.8120014  71.9119992  97.8339978  51.7750014
  73.3319992  97.6389978  51.2860014  72.6395367  97.3637551  51.7358174
  65.6519992  95.3099978  49.2780014  65.5339992  94.3619978  49.2240014
  64.7969992  95.6429978  49.5510014  65.5202805  95.2252202  49.3075079
  70.5999992 110.7179978  47.0200014  71.0249992 110.0109978  46.5350014
  70.9169992 111.5199978  46.6030014  70.7010266 110.7295190  46.8972479
  71.7599992 108.6189978  45.5290014  71.5019992 107.9289978  44.9170014
  71.8309992 108.1759978  46.3740014  71.7343050 108.4646814  45.5595621
  73.4459992 107.1859978  54.0060014  73.5849992 106.5939978  53.2670014
  73.6129992 108.0589978  53.6500014  73.4876193 107.2228896  53.8566211
  67.9179992 104.1479978  43.7790014  67.2069992 104.6829978  43.4270014
  68.6089992 104.2029978  43.1190014  67.9140751 104.2286777  43.6415858
  67.9719992 102.6049978  40.8170014  68.6729992 102.6279978  41.4690014
  68.2739992 101.9769978  40.1610014  68.1088202 102.5232212  40.8175609
  75.2869992 103.5259978  52.0720014  74.6349992 104.2199978  52.1610014
  75.7529992 103.7359978  51.2620014  75.2605937 103.6495019  51.9747533
  71.3239992 104.3569978  44.7300014  70.5919992 104.5859978  45.3040014
  71.7709992 103.6439978  45.1850014  71.2843963 104.2918729  44.8699945
  71.2209992 102.5319978  53.7980014  71.3009992 103.2949978  54.3700014
  70.6199992 102.8109978  53.1080014  71.1506547 102.6742457  53.7830047
  62.9689992 104.9879978  46.6130014  62.6389992 104.6169978  45.7950014
  63.5579992 104.3169978  46.9600014  63.0033970 104.8466063  46.5479404
  64.3359992 108.4159978  49.2940014  64.2409992 107.8369978  48.5380014
  65.0649992 108.0449978  49.7900014  64.4216011 108.2865561  49.2576028
  63.3359992 103.7559978  50.2460014  63.9009992 103.8779978  49.4840014
  63.6549992 104.3939978  50.8850014  63.4564166 103.8588791  50.2280348
  69.6449992 109.2599978  50.9800014  69.4049992 109.9219978  51.6280014
  69.4469992 108.4249978  51.4050014  69.5853826 109.2378115  51.1261566
  64.2159992 108.1559978  54.9640014  63.9049992 108.9379978  55.4190014
  63.5659992 108.0029978  54.2780014  64.0855538 108.2424087  54.9335898
  70.1949992 103.5199978  42.4160014  70.7739992 103.6699978  43.1620014
  70.6089992 103.9899978  41.6920014  70.3303358 103.6040954  42.4203953
  61.1359992 104.3539978  54.1920014  61.2059992 105.0049978  54.8910014
  60.2449992 104.4569978  53.8570014  61.0251690 104.4569249  54.2423043
  67.9209992 110.2559978  45.8510014  68.3949992 110.5519978  46.6280014
  67.3579992 110.9949978  45.6180014  67.9097890 110.3963036  45.9258101
  62.4549992 110.2269978  55.7270014  62.4629992 110.0909978  54.7800014
  61.5389992 110.1099978  55.9790014  62.3322528 110.1925463  55.6313243
  61.9599992 104.0569978  44.2020014  61.6679992 104.8249978  43.7110014
  61.2849992 103.3979978  44.0390014  61.8288497 104.0729745  44.1128260
  75.0829992 109.6359978  40.6050014  75.1559992 110.5749978  40.7750014
  75.9879992 109.3309978  40.5490014  75.2154170 109.7233282  40.6207063
  58.0529992 106.4199978  53.0170014  57.5509992 106.3919978  52.2020014
  58.0579992 105.5149978  53.3270014  57.9849832 106.2937486  52.9474121
  57.8029992 109.2009978  49.9010014  58.7489992 109.0559978  49.8820014
  57.6899992 109.9849978  50.4380014  57.9173578 109.2871697  49.9710317
  76.0009992 109.8669978  55.5840014  75.9509992 108.9109978  55.5460014
  75.1739992 110.1339978  55.9850014  75.8823831 109.7724680  55.6330121
  66.9789992 109.4409978  54.4600014  67.0669992 110.2669978  54.9350014
  66.1159992 109.1109978  54.7090014  66.8743357 109.5095468  54.5587653
  67.3939992 113.2129978  44.2660014  67.3179992 113.0919978  43.3190014
  67.4259992 114.1619978  44.3840014  67.3879380 113.3247677  44.1525181
  61.0469992 112.0019978  46.0470014  61.1989992 111.6539978  46.9250014
  60.1959992 111.6449978  45.7910014  60.9528344 111.9060879  46.1326868
  70.4949992 112.3669978  41.2680014  70.8699992 111.6229978  40.7970014
  70.4999992 112.0969978  42.1860014  70.5470098 112.2286392  41.3276629
  70.1639992 112.2929978  44.0170014  69.2289992 112.3929978  44.1960014
  70.4439992 111.5829978  44.5960014  70.0739471 112.2107933  44.1196695
  73.1529992 101.3599978  56.0640014  72.7449992 101.8399978  55.3430014
  73.1929992 100.4539978  55.7560014  73.1026221 101.3032449  55.9238267
  60.3019992 107.7439978  54.0600014  60.5179992 107.3819978  54.9200014
  59.4459992 107.3689978  53.8510014  60.2158810 107.6438837  54.1492680
  62.9199992  96.2139978  50.0560014  62.0589992  96.1269978  49.6480014
  62.8979992  97.0699978  50.4840014  62.7990491  96.3178003  50.0579582
  67.5829992  95.9359978  53.4310014  68.0029992  95.5209978  54.1840014
  66.6499992  95.7569978  53.5480014  67.5143736  95.8549910  53.5498968
  70.9099992  99.6909978  54.2840014  70.3959992  99.5659978  55.0820014
  70.7539992 100.6039978  54.0400014  70.8186967  99.7972123  54.3600937
  71.6719992 104.5519978  40.0450014  71.7139992 104.3299978  39.1150014
  72.5209992 104.9509978  40.2350014  71.7925253 104.5755498  39.9433822
  67.2449992  98.4279978  40.7160014  66.9909992  98.4469978  41.6380014
  66.9879992  97.5569978  40.4140014  67.1754508  98.3128280  40.8014803
  63.0109992 101.1789978  51.1510014  62.3699992 101.1389978  51.8600014
  63.0489992 102.1059978  50.9130014  62.9283010 101.2987668  51.2159946
  63.0079992 101.3999978  46.0630014  62.1159992 101.0599978  46.0040014
  63.4589992 101.0229978  45.3070014  62.9467642 101.3024910  45.9527726
  68.5439992 101.8159978  44.8800014  68.1349992 102.6309978  44.5880014
  69.2639992 101.6759978  44.2660014  68.5854439 101.9085372  44.7570115
  67.6459992 101.9919978  56.3680014  67.0829992 101.2869978  56.6890014
  68.4719992 101.8709978  56.8360014  67.6806674 101.8792165  56.4751751
  69.5489992 101.2619978  47.6940014  69.3529992 101.8679978  46.9790014
  69.7299992 100.4289978  47.2600014  69.5466584 101.2322513  47.5374212
  60.7609992 101.4999978  53.0180014  60.7229992 101.8999978  53.8870014
  60.2709992 100.6829978  53.1080014  60.6895330 101.4442674  53.1491289
  64.1269992  98.8739978  39.8170014  63.6959992  98.4289978  40.5460014
  63.4089992  99.2449978  39.3040014  63.9709176  98.8632052  39.8474930
  57.3699992  98.6159978  46.8690014  57.9999992  98.5869978  47.5880014
  57.8189992  98.1909978  46.1380014  57.5170835  98.5545660  46.8687659
  58.6439992  99.3619978  42.2930014  59.1179992  99.9529978  41.7080014
  57.9259992  99.8919978  42.6400014  58.6118640  99.5145511  42.2597969
  68.8129992 102.8999978  52.3650014  69.1359992 102.2689978  51.7220014
  68.3719992 102.3659978  53.0260014  68.7976379 102.7413468  52.3662582
  65.5899992  98.8279978  47.1490014  64.6789992  98.8849978  47.4380014
  66.0949992  98.7679978  47.9600014  65.5336873  98.8276826  47.2981207
  60.4179992 100.4569978  45.9760014  59.5289992 100.5559978  45.6360014
  60.7149992  99.6149978  45.6300014  60.3364177 100.3567687  45.8826940
  64.0709992 100.4569978  43.6330014  65.0029992 100.5859978  43.8110014
  63.8559992 101.1259978  42.9830014  64.1694472 100.5650806  43.5694891
  69.9949992  98.0629978  50.4140014  69.3179992  98.1939978  51.0770014
  69.5099992  97.9079978  49.6030014  69.8367405  98.0599947  50.3952170
  62.7449992 101.6509978  41.1990014  62.2029992 101.2719978  40.5080014
  63.5789992 101.8459978  40.7710014  62.7834390 101.6254079  41.0464392
  73.2829992 113.7339978  56.6900014  73.4819992 114.1579978  55.8560014
  73.9379992 114.0779978  57.2970014  73.3988522 113.8386301  56.6577852
  60.8809992 106.2079978  56.2980014  61.6129992 106.4629978  56.8600014
  60.0999992 106.4129978  56.8140014  60.8756526 106.2705450  56.4445176
  66.9099992 101.6149978  49.0360014  67.4739992 101.0689978  48.4890014
  66.7619992 101.0939978  49.8250014  66.9673037 101.4696787  49.0677229
  61.9119992  97.7519978  45.4550014  61.5949992  96.8489978  45.4190014
  62.6929992  97.7539978  44.9020014  61.9742431  97.6287797  45.3753102
  65.5359992 100.0039978  51.4500014  64.7009992 100.4579978  51.5610014
  66.0599992 100.2799978  52.2020014  65.4926072 100.1033948  51.5668136
  66.0809992 106.2169978  43.1350014  65.3359992 105.7089978  42.8130014
  65.9459992 106.2659978  44.0810014  65.9608963 106.1541731  43.2188826
  73.2309992 105.3499978  51.9220014  73.8719992 105.8059978  51.3780014
  72.3999992 105.4629978  51.4590014  73.2065287 105.4276921  51.7849887
  69.9779992  99.0309978  41.3340014  69.0399992  99.1419978  41.1830014
  70.2759992  99.8869978  41.6410014  69.8896318  99.1620158  41.3548145
  67.5999992 106.4009978  54.3720014  67.2539992 106.0189978  55.1790014
  67.3999992 107.3339978  54.4430014  67.5255987 106.4749002  54.4920461
  70.6969992 100.8979978  42.9950014  71.5889992 100.7599978  43.3140014
  70.7529992 101.6889978  42.4580014  70.8267325 100.9859918  42.9661217
  61.2049992 105.5119978  48.9050014  61.9499992 105.5089978  48.3030014
  61.2829992 104.6879978  49.3860014  61.3173365 105.4002384  48.8877430
  68.2059992 107.6749978  42.1600014  67.9109992 108.5019978  42.5420014
  67.5029992 107.0559978  42.3570014  68.0706379 107.7044171  42.2388654
  58.2129992 103.9719978  54.2200014  58.4359992 103.5539978  55.0510014
  57.6109992 103.3599978  53.7970014  58.1621513 103.8319606  54.2766740
  65.2299992 103.4889978  56.4330014  64.9339992 103.3239978  55.5370014
  66.1609992 103.2689978  56.4220014  65.3154401 103.4366879  56.3090206
  69.8499992 108.8629978  54.3220014  68.9499992 109.0459978  54.0550014
  69.8839992 109.1219978  55.2430014  69.7313748 108.9230554  54.4099164
  75.5819992 101.1069978  42.6900014  75.0269992 100.7109978  42.0170014
  75.6819992 102.0179978  42.4120014  75.5196816 101.1759505  42.5605033
  75.5449992 106.9079978  55.5270014  74.6939992 107.1459978  55.1590014
  76.1349992 106.8909978  54.7740014  75.5083812 106.9382524  55.3748453
  73.8769992 109.8929978  43.1550014  73.5039992 109.0679978  43.4640014
  74.1539992 109.7099978  42.2570014  73.8633463 109.7552569  43.0759525
  71.0369992 104.7009978  50.1760014  70.1089992 104.4699978  50.1490014
  71.4879992 103.9239978  49.8460014  70.9708165 104.5642774  50.1276790
  63.5799992 109.0299978  46.3090014  64.1079992 109.8029978  46.1090014
  62.6999992 109.2539978  46.0070014  63.5333435 109.1662700  46.2407310
  59.3349992 103.8919978  40.8960014  59.9509992 104.5189978  41.2760014
  58.4729992 104.2079978  41.1680014  59.3027678 104.0204412  40.9847209
  65.0079992 106.6929978  45.8850014  64.7669992 107.6179978  45.9270014
  64.2669992 106.2339978  46.2820014  64.8749206 106.7575915  45.9443769
  65.5219992 110.8419978  52.2000014  65.8849992 111.6959978  51.9670014
  66.0539992 110.5499978  52.9410014  65.6435141 110.9193895  52.2682097
  63.6909992 111.7139978  45.4310014  62.7409992 111.8199978  45.4820014
  64.0429992 112.5349978  45.7750014  63.6085472 111.8394923  45.4844852
  69.0659992 106.9409978  51.9010014  68.6409992 106.7129978  52.7270014
  69.6469992 106.2019978  51.7190014  69.0863395 106.8099545  51.9894414
  71.2689992 107.8699978  40.9750014  71.6229992 107.4899978  41.7790014
  70.3209992 107.7759978  41.0620014  71.1892298 107.8052452  41.0968687
  71.7249992 111.4929978  54.3700014  71.1229992 110.9369978  53.8750014
  72.0059992 112.1599978  53.7440014  71.6805757 111.5070744  54.2175675
  75.7729992 112.3489978  41.1760014  76.5169992 112.9349978  41.0360014
  75.0789992 112.9179978  41.5090014  75.7809809 112.5060818  41.2018590
  59.8469992  98.7259978  53.7780014  58.9549992  99.0639978  53.7100014
  59.7489992  97.8699978  54.1960014  59.7114475  98.6566543  53.8251704
  72.1349992 106.5419978  43.2020014  71.8579992 105.8139978  43.7580014
  73.0629992 106.6609978  43.4070014  72.2224499 106.4584213  43.3058044
  59.4989992 110.5299978  52.2130014  59.7159992 109.5979978  52.1820014
  59.7449992 110.8049978  53.0960014  59.5619809 110.4395686  52.3281691
  65.3599992 108.9819978  39.4220014  65.5989992 108.2329978  38.8750014
  65.0909992 108.5939978  40.2550014  65.3563233 108.8271853  39.4597809
  64.2969992 108.5519978  41.8780014  64.4439992 108.0319978  42.6680014
  64.2939992 109.4589978  42.1850014  64.3167102 108.6033953  42.0275925
  60.7499992 105.8039978  42.3890014  60.0639992 106.1569978  42.9560014
  61.2729992 106.5669978  42.1420014  60.7268402 105.9553901  42.4331801
  68.5819992  98.4669978  52.6680014  69.2809992  98.5409978  53.3180014
  68.2009992  97.6019978  52.8220014  68.6262097  98.3602389  52.7777997
  69.3659992  98.1189978  43.7650014  69.5859992  98.5899978  42.9610014
  69.9249992  98.5129978  44.4350014  69.4716731  98.2367287  43.7455033
  67.0349992 110.2489978  42.6280014  66.2179992 110.7459978  42.6800014
  67.5639992 110.7249978  41.9870014  66.9948125 110.3811989  42.5485306
  66.5659992  99.8469978  44.6000014  67.3779992 100.3509978  44.6460014
  66.3219992  99.7019978  45.5140014  66.6441467  99.8963749  44.7298575
  67.1019992 100.8329978  53.7840014  67.2209992 101.4069978  54.5410014
  67.7569992 100.1449978  53.8990014  67.2068684 100.8185194  53.9031674
  67.4499992  96.9279978  45.5380014  67.1029992  97.5449978  46.1820014
  68.1089992  97.4289978  45.0560014  67.4915090  97.0801575  45.5610681
  64.3729992 111.2929978  42.6090014  64.5339992 112.0929978  42.1090014
  64.1759992 111.5999978  43.4940014  64.3683906 111.4438678  42.6602333
  63.1079992  97.9909978  42.2250014  63.0239992  98.8789978  42.5720014
  63.9979992  97.7259978  42.4570014  63.2168163  98.0767179  42.3038596
  73.3059992  98.7399978  54.6190014  72.3899992  99.0019978  54.5320014
  73.6419992  98.7369978  53.7230014  73.2258499  98.7755163  54.4858766
  71.9089992 102.4899978  48.7150014  71.1109992 102.0749978  48.3870014
  72.3539992 101.7999978  49.2060014  71.8599684 102.3398628  48.7365227
  61.3659992 108.4179978  41.2850014  61.9579992 109.1179978  41.5620014
  61.8249992 107.9849978  40.5660014  61.5091652 108.4552675  41.2256533
  59.6819992 101.0829978  40.4010014  59.6369992 102.0219978  40.5800014
  58.7939992 100.8469978  40.1320014  59.5558166 101.1796687  40.3891524
  72.9949992 111.7459978  50.3370014  72.8389992 112.4249978  49.6800014
  73.9279992 111.8179978  50.5400014  73.0997387 111.8486390  50.2745342
  60.4899992  95.8639978  49.0750014  60.2609992  95.9229978  48.1470014
  60.0479992  95.0729978  49.3810014  60.3988801  95.7650540  48.9894729
  59.4209992 109.8049978  45.2350014  58.5879992 110.2769978  45.2620014
  59.9659992 110.3149978  44.6360014  59.3807857 109.9384791  45.1577142
  58.7089992 112.4169978  56.5650014  59.2489992 112.2009978  57.3250014
  58.2279992 111.6119978  56.3750014  58.7179219 112.2785156  56.6434282
  63.3059992 111.3369978  58.1850014  64.0739992 110.8779978  58.5260014
  63.2849992 111.1109978  57.2550014  63.4082135 111.2436668  58.1059491
  67.3979992 110.8449978  39.5610014  66.7539992 110.2139978  39.8820014
  68.1599992 110.3139978  39.3290014  67.4128058 110.6867902  39.5736038
  69.8829992 109.7169978  56.9140014  69.5319992 108.8599978  57.1580014
  70.6089992 109.8589978  57.5210014  69.9331895 109.6191351  57.0293770
  72.0029992 110.6619978  39.7940014  72.2859992 109.8669978  40.2470014
  72.7419992 110.8949978  39.2330014  72.1417096 110.5847049  39.7801104
  58.6159992 106.2279978  57.5190014  58.7599992 105.3259978  57.2330014
  57.8439992 106.5139978  57.0320014  58.5312733 106.1431798  57.4139532
  62.9569992 106.5709978  39.6520014  63.0219992 105.7769978  40.1820014
  63.6099992 106.4529978  38.9620014  63.0541605 106.4463430  39.6312997
  65.2709992 106.1969978  56.9520014  64.9429992 106.4679978  56.0950014
  65.4229992 105.2559978  56.8640014  65.2466412 106.1069046  56.8227822
  68.3099992 107.6179978  39.3880014  68.0409992 107.7989978  40.2880014
  68.1029992 106.6929978  39.2560014  68.2451191 107.5177119  39.4935524
  71.0059992 106.1129978  54.3350014  71.7509992 106.7019978  54.2160014
  70.2489992 106.6949978  54.3990014  71.0055470 106.2722128  54.3273799
  59.4489992 103.4279978  56.9390014  59.8569992 102.5709978  56.8180014
  59.1879992 103.4419978  57.8600014  59.4696016 103.3125119  57.0469192
  64.1069992 104.5439978  41.9580014  63.6469992 104.0599978  42.6430014
  64.3619992 103.8749978  41.3220014  64.0784856 104.3873669  41.9658397
  63.3959992 102.4369978  54.3140014  62.7769992 103.1109978  54.5940014
  63.7399992 102.7579978  53.4800014  63.3577123 102.5726887  54.2396388
  65.1779992 102.7869978  40.2200014  64.9969992 102.6319978  39.2930014
  66.1279992 102.8949978  40.2650014  65.2816566 102.7803669  40.0990929
  68.4149992 104.9079978  57.5910014  69.3689992 104.9919978  57.5640014
  68.2549992 104.1959978  58.2110014  68.5237182 104.8232842  57.6710733
  74.5679992 105.1409978  39.6660014  74.2939992 104.7169978  38.8530014
  74.6069992 106.0729978  39.4490014  74.5357716 105.2088827  39.5254286
  63.7349992  99.7919978  55.3960014  63.8849992  99.0629978  54.7940014
  63.7369992 100.5689978  54.8370014  63.7557967  99.7972708  55.2380541
  64.1479992  98.1609978  52.8890014  64.6829992  98.6129978  52.2370014
  63.2949992  98.0529978  52.4660014  64.1060374  98.2082665  52.7426710
  65.7289992 103.6009978  53.1280014  66.4799992 103.4449978  52.5550014
  65.3899992 104.4529978  52.8530014  65.7859587 103.6948138  53.0124078
  70.1449992 101.4159978  58.1570014  70.3369992 100.4849978  58.0450014
  71.0029992 101.8409978  58.1460014  70.2872182 101.3460070  58.1401862
  71.4619992 104.2049978  56.2340014  71.1799992 104.9139978  55.6560014
  72.4039992 104.1319978  56.0830014  71.5507921 104.2922193  56.1344225
  62.2139992 100.9899978  57.3070014  61.4459992 100.4569978  57.0970014
  62.8919992 100.6799978  56.7080014  62.2007235 100.8751754  57.1972413
  64.9529992  95.6179978  53.3200014  64.8549992  96.5639978  53.2150014
  64.2109992  95.2449978  52.8440014  64.8392534  95.6971773  53.2412600
  66.2169992  99.9389978  56.8840014  65.9819992  99.7199978  57.7850014
  65.4339992  99.7319978  56.3740014  66.0789095  99.8809892  56.9385353
  68.9329992  99.0669978  55.9590014  67.9849992  99.0989978  56.0910014
  69.2449992  98.4409978  56.6130014  68.8455293  98.9867923  56.0654148
  70.5669992  97.7009978  57.9640014  70.4699992  96.7489978  57.9590014
  70.2449992  97.9689978  58.8250014  70.5102468  97.6070884  58.0796210
  60.3939992  98.9099978  57.0120014  60.6059992  98.2039978  56.4020014
  60.2829992  98.4729978  57.8560014  60.4080269  98.7541921  57.0425873
  65.1749992  94.9119978  55.9910014  65.8869992  94.2719978  55.9770014
  65.0739992  95.1779978  55.0780014  65.2587387  94.8604330  55.8655563
  65.5289992  96.5939978  58.0450014  65.3969992  96.1189978  57.2250014
  64.9289992  97.3389978  57.9900014  65.4299070  96.6295789  57.9253251
  65.0749992 113.4769978  41.2210014  66.0079992 113.6349978  41.3650014
  64.8109992 114.1529978  40.5960014  65.1669911 113.5899373  41.1562722
  58.6429992 108.1139978  40.7040014  59.5569992 108.1929978  40.9770014
  58.6509992 107.4269978  40.0380014  58.7690655 108.0319205  40.6512917
  57.2919992 113.5069978  45.7810014  56.6449992 113.0449978  45.2490014
  57.6469992 112.8349978  46.3640014  57.2513741 113.3529774  45.7869175
  58.1619992 111.5869978  47.5860014  57.8279992 110.7069978  47.7580014
  58.3849992 111.9329978  48.4510014  58.1463721 111.5131938  47.7264168
  75.7109992 112.3969978  50.5670014  75.6889992 112.5819978  51.5060014
  76.4009992 112.9649978  50.2260014  75.8013439 112.4991887  50.6494791
  75.2739992 111.9639978  53.4880014  74.7869992 111.2289978  53.1170014
  75.8229992 111.5699978  54.1660014  75.2815247 111.8101057  53.5288461
  73.7249992 107.7539978  58.1270014  72.8589992 107.6489978  58.5210014
  74.1009992 108.5119978  58.5730014  73.6573401 107.8421708  58.2412620
  75.0259992 106.0099978  43.6410014  75.8759992 106.4309978  43.7680014
  75.0309992 105.2699978  44.2480014  75.1431143 105.9676094  43.7404750
  75.4199992 104.0639978  45.4640014  74.6939992 103.5839978  45.8620014
  76.0019992 104.2689978  46.1970014  75.3992730 104.0260184  45.6174149
  75.1789992 106.8489978  50.4120014  76.0129992 106.4709978  50.1310014
  75.2909992 107.7919978  50.2930014  75.3081917 106.9247943  50.3574861
  73.6659992 109.7269978  52.7190014  73.0179992 110.0519978  53.3440014
  73.1479992 109.2859978  52.0450014  73.5074196 109.7118651  52.7134152
  75.6889992 103.9649978  41.8550014  75.1669992 104.3209978  41.1370014
  75.6559992 104.6399978  42.5340014  75.6130129 104.1049598  41.8483355
  74.0379992 101.2039978  40.4060014  74.1339992 101.8709978  39.7260014
  73.8979992 100.3889978  39.9250014  74.0322040 101.1850671  40.2478378
  73.2069992 102.5849978  46.0270014  73.0569992 101.6399978  46.0070014
  72.8529992 102.8659978  46.8710014  73.1386351 102.4936644  46.1383220
  58.2419992 104.6629978  50.0380014  58.4269992 104.5809978  49.1020014
  59.0919992 104.5389978  50.4610014  58.3820928 104.6350463  49.9672893
  74.0629992 104.5549978  55.6660014  74.6459992 103.8199978  55.8580014
  74.6269992 105.3269978  55.7130014  74.2189781 104.5588145  55.6986164
  75.5599992 102.4579978  56.3510014  74.6969992 102.0789978  56.1850014
  76.1639992 101.7189978  56.2760014  75.5236085 102.3063223  56.3181695
  72.9179992 100.1669978  44.4900014  73.1969992  99.2599978  44.6140014
  73.6769992 100.6009978  44.1010014  73.0588619 100.1014502  44.4543795
  73.5289992 100.7489978  49.9260014  74.4619992 100.9609978  49.8910014
  73.2939992 100.8499978  50.8480014  73.6249517 100.7916833  50.0459130
  73.5589992 101.4859978  52.7020014  72.7159992 101.7539978  53.0680014
  74.0009992 102.3079978  52.4910014  73.5034138 101.6338273  52.7235518
  57.8399992  99.9329978  56.1780014  58.7589992  99.8109978  56.4150014
  57.3899992  99.1829978  56.5680014  57.9050087  99.8149608  56.2631410
  75.8419992  95.4659978  58.0550014  76.1909992  94.8119978  57.4500014
  75.9889992  96.3029978  57.6150014  75.9096824  95.4896024  57.9126304
  73.5309992  97.4299978  44.5380014  73.7129992  96.9809978  45.3630014
  72.9309992  96.8459978  44.0740014  73.4748187  97.2895552  44.5882739
  59.0609992  98.2459978  49.0700014  59.5059992  97.4539978  49.3720014
  59.5269992  98.9619978  49.5000014  59.1849718  98.2344534  49.1695265
  57.3649992 101.2449978  50.1390014  57.8569992 101.0239978  49.3480014
  57.7269992 102.0849978  50.4200014  57.4812923 101.3283468  50.0687407
  75.3609992  97.5749978  56.4040014  74.4439992  97.8459978  56.3690014
  75.4839992  97.0399978  55.6200014  75.2519672  97.5397885  56.2931862
  57.6789992  97.5029978  44.1930014  56.7539992  97.7109978  44.0640014
  58.1329992  97.9869978  43.5030014  57.6136298  97.5969299  44.0820451
  72.4489992 112.4869978  46.1390014  73.1019992 112.1389978  45.5310014
  72.9599992 112.9749978  46.7850014  72.6072777 112.5053815  46.1432047
  57.6419992  96.2409978  52.5370014  56.9769992  95.9949978  53.1800014
  57.1989992  96.8629978  51.9600014  57.4911168  96.2914214  52.5469848
  59.8339992 109.4159978  56.6820014  59.0129992 109.5909978  56.2210014
  59.5819992 109.3429978  57.6020014  59.6875594 109.4300717  56.7433611
  62.7879992 110.3899978  52.9400014  62.3639992 111.1999978  52.6580014
  63.6929992 110.4759978  52.6380014  62.8522138 110.5124160  52.8606415
  67.0999992 111.7889978  55.9000014  67.2839992 111.4559978  56.7780014
  67.9459992 112.0989978  55.5780014  67.2396484 111.7852979  55.9767617
  69.4449992 113.0749978  55.1440014  70.1219992 112.4419978  54.9040014
  69.7659992 113.4759978  55.9510014  69.5811323 113.0425691  55.2203158
  74.3619992  95.6649978  54.2230014  73.5489992  95.9899978  53.8360014
  74.5949992  94.9039978  53.6900014  74.2821347  95.6066880  54.0979841
  60.1899992 113.6469978  52.9880014  59.4699992 114.0869978  52.5370014
  59.8249992 113.3959978  53.8360014  60.0419643 113.6733369  53.0409129
  62.6569992 113.2469978  52.0180014  61.7929992 113.3189978  52.4220014
  62.6019992 113.7939978  51.2340014  62.5311942 113.3307849  51.9674000
  67.3679992 113.1349978  51.1930014  66.9109992 113.6639978  50.5390014
  67.5309992 113.7379978  51.9180014  67.3274960 113.2889280  51.2015274
  69.6959992 112.0129978  52.1380014  68.7909992 112.1779978  51.8720014
  70.1239992 112.8659978  52.0720014  69.6301537 112.1509134  52.0927095
  72.2999992 113.5829978  52.4330014  72.1179992 114.4989978  52.2220014
  72.4769992 113.1719978  51.5860014  72.2990030 113.6528273  52.2897166
  59.6049992 112.2699978  49.8980014  59.5869992 111.8439978  50.7550014
  60.4099992 111.9509978  49.4890014  59.7112875 112.1686435  49.9599515
  61.7459992 110.9799978  48.5530014  61.5269992 110.0629978  48.7230014
  62.5699992 111.1199978  49.0190014  61.8274702 110.8735511  48.6392527
  64.2829992 111.4499978  49.4020014  64.4959992 110.5619978  49.1150014
  64.3479992 111.4149978  50.3560014  64.3209149 111.3238326  49.4917369
  67.7919992  97.1139978  48.5460014  67.1179992  96.4839978  48.8020014
  68.3559992  96.6299978  47.9430014  67.7760384  96.9623708  48.4995020
  72.9349992  95.2209978  48.6590014  73.5379992  95.7689978  48.1570014
  72.0649992  95.5399978  48.4180014  72.8999157  95.3390373  48.5577910
  74.6619992  96.3599978  46.9920014  75.2729992  95.8459978  46.4650014
  75.0439992  97.2369978  47.0150014  74.7973305  96.4082050  46.9229418
  60.1189992  95.7479978  46.3680014  59.3419992  95.5129978  45.8610014
  60.6489992  94.9509978  46.3770014  60.0843451  95.6081268  46.2998627
  64.6979992  95.6739978  46.1810014  65.5719992  96.0629978  46.1520014
  64.5619992  95.4589978  47.1040014  64.7991953  95.6981643  46.3017617
  70.2549992  95.7039978  47.8310014  70.3309992  95.7999978  46.8810014
  69.9799992  94.7969978  47.9590014  70.2281871  95.5944146  47.7183944
  58.8559992 111.4939978  43.0690014  58.1709992 111.4559978  42.4020014
  58.8599992 112.4069978  43.3570014  58.7627621 111.6121924  43.0166126
  60.8159992  97.4619978  40.6140014  61.3069992  96.8319978  40.0870014
  61.4389992  97.7579978  41.2770014  60.9675304  97.4157376  40.6314940
  65.8419992  97.7549978  43.0710014  66.0199992  97.1079978  43.7540014
  65.7879992  98.5889978  43.5380014  65.8590678  97.7791604  43.2276301
  67.7199992 112.7029978  41.4670014  68.5859992 113.0699978  41.2890014
  67.4739992 112.2639978  40.6530014  67.8052097 112.6938525  41.3326019
  74.4289992 112.2659978  44.1460014  74.2349992 111.5179978  43.5810014
  74.3899992 113.0239978  43.5630014  74.3971645 112.2660786  43.9898148
  60.0759992  96.2619978  55.8860014  59.7099992  95.4959978  56.3280014
  60.9889992  96.2909978  56.1720014  60.1493172  96.1610324  55.9851890
  62.0489992  95.6119978  57.4210014  62.9479992  95.3379978  57.2370014
  61.6629992  94.8699978  57.8860014  62.1197307  95.4742196  57.4587098
  60.6739992 112.4139978  40.0940014  60.4059992 112.6999978  40.9680014
  61.4449992 111.8679978  40.2470014  60.7415927 112.3792779  40.2341205
  70.4709992  94.9449978  57.6040014  70.5469992  94.5189978  58.4570014
  71.3639992  94.9579978  57.2610014  70.6022303  94.8883493  57.6745497
  73.6469992 111.0179978  56.2960014  72.8649992 110.8309978  55.7760014
  73.5749992 111.9469978  56.5130014  73.5301924 111.1180637  56.2541602
  88.0529992 104.9039978  46.3270014  88.1419992 105.8479978  46.1950014
  87.4149992 104.6289978  45.6690014  87.9789062 104.9959812  46.2199641
  86.9859992 104.1589978  49.7460014  86.9479992 103.5129978  50.4510014
  86.6639992 103.6919978  48.9750014  86.9372679 104.0074276  49.7382921
  79.3539992 103.7729978  51.3390014  79.3959992 103.1479978  52.0620014
  80.0569992 104.3969978  51.5210014  79.4547345 103.7717873  51.4625274
  90.6919992 107.0979978  48.0470014  90.2509992 106.3779978  48.4980014
  90.6789992 107.8189978  48.6770014  90.6299215 107.0969291  48.1938105
  80.2779992 108.2229978  49.8740014  79.9079992 107.4209978  49.5040014
  81.2189992 108.0549978  49.9200014  80.3545984 108.0904638  49.8295603
  76.8879992 101.8829978  45.2660014  76.4399992 102.7289978  45.2480014
  76.3269992 101.3039978  44.7510014  76.7508546 101.9203993  45.1938891
  77.5979992 104.0449978  47.3920014  77.8119992 103.2749978  47.9200014
  78.3359992 104.1349978  46.7890014  77.7270200 103.9518586  47.3827035
  87.8039992 112.2019978  48.2590014  88.4229992 111.5259978  47.9860014
  87.5949992 111.9839978  49.1680014  87.8606056 112.0798869  48.3443967
  85.3749992 106.5909978  50.1520014  85.6789992 105.9049978  49.5570014
  86.0969992 106.7099978  50.7700014  85.5141240 106.5132314  50.1540959
  94.0379992  98.1929978  51.0120014  94.0879992  98.8029978  51.7480014
  94.4639992  98.6539978  50.2890014  94.1024108  98.3387709  51.0150112
  88.5159992 100.9849978  50.4790014  88.6589992 100.0389978  50.4990014
  88.4099992 101.1919978  49.5510014  88.5212403 100.8834797  50.3562239
  81.6709992  99.0869978  47.7520014  81.7139992  99.9469978  47.3330014
  81.2129992  98.5349978  47.1180014  81.6149871  99.1299245  47.6090761
  89.3929992  99.2179978  46.1530014  90.0399992  98.8889978  46.7770014
  89.9029992  99.7349978  45.5300014  89.5504351  99.2429067  46.1541037
  78.2909992 101.4839978  48.5140014  78.9449992 100.9339978  48.9460014
  78.3149992 101.2099978  47.5970014  78.3837199 101.3717167  48.4491668
  83.4479992 103.0339978  47.7290014  84.0639992 102.5069978  48.2380014
  82.8609992 102.3939978  47.3250014  83.4530154 102.8753954  47.7440945
  94.4299992  99.6709978  53.2480014  93.7409992 100.3289978  53.1530014
  94.4449992  99.4729978  54.1850014  94.3377756  99.7342603  53.3615812
  80.4809992  98.0049978  51.8260014  80.2619992  98.5349978  51.0590014
  79.8129992  98.2309978  52.4730014  80.3606975  98.1080967  51.8085140
  87.8499992 107.5049978  45.3700014  87.5549992 107.1819978  44.5180014
  87.5259992 108.4049978  45.4110014  87.7658460 107.5824464  45.2589714
  83.0499992 105.6799978  52.1130014  82.3099992 106.2789978  52.2170014
  83.7639992 106.2339978  51.7980014  83.0453500 105.8367829  52.0846371
  91.1569992  98.5089978  48.1330014  90.9419992  97.7429978  48.6660014
  91.8129992  98.9809978  48.6460014  91.2162673  98.4680728  48.2751990
  80.0749992  99.8969978  49.7780014  80.6889992 100.5299978  50.1510014
  80.5869992  99.4249978  49.1220014  80.2281962  99.9197249  49.7402935
  81.4579992 107.6449978  52.9000014  81.4519992 108.5239978  52.5220014
  80.6039992 107.5609978  53.3250014  81.3417925 107.7539535  52.9056887
  77.5789992 107.3159978  43.6820014  77.3069992 107.5449978  42.7940014
  77.6239992 108.1529978  44.1430014  77.5478097 107.4606163  43.6226683
  91.2039992 108.9369978  50.3950014  90.2619992 108.9959978  50.5570014
  91.4799992 109.8429978  50.2580014  91.1125865 109.0675288  50.3986192
  91.5039992  97.2239978  51.8120014  90.7679992  97.8339978  51.7750014
  92.1879992  97.6389978  51.2860014  91.4955367  97.3637551  51.7358174
  84.5079992  95.3099978  49.2780014  84.3899992  94.3619978  49.2240014
  83.6529992  95.6429978  49.5510014  84.3762805  95.2252202  49.3075079
  89.4559992 110.7179978  47.0200014  89.8809992 110.0109978  46.5350014
  89.7729992 111.5199978  46.6030014  89.5570266 110.7295190  46.8972479
  90.6159992 108.6189978  45.5290014  90.3579992 107.9289978  44.9170014
  90.6869992 108.1759978  46.3740014  90.5903050 108.4646814  45.5595621
  92.3019992 107.1859978  54.0060014  92.4409992 106.5939978  53.2670014
  92.4689992 108.0589978  53.6500014  92.3436193 107.2228896  53.8566211
  86.7739992 104.1479978  43.7790014  86.0629992 104.6829978  43.4270014
  87.4649992 104.2029978  43.1190014  86.7700751 104.2286777  43.6415858
  86.8279992 102.6049978  40.8170014  87.5289992 102.6279978  41.4690014
  87.1299992 101.9769978  40.1610014  86.9648202 102.5232212  40.8175609
  94.1429992 103.5259978  52.0720014  93.4909992 104.2199978  52.1610014
  94.6089992 103.7359978  51.2620014  94.1165937 103.6495019  51.9747533
  90.1799992 104.3569978  44.7300014  89.4479992 104.5859978  45.3040014
  90.6269992 103.6439978  45.1850014  90.1403963 104.2918729  44.8699945
  90.0769992 102.5319978  53.7980014  90.1569992 103.2949978  54.3700014
  89.4759992 102.8109978  53.1080014  90.0066547 102.6742457  53.7830047
  81.8249992 104.9879978  46.6130014  81.4949992 104.6169978  45.7950014
  82.4139992 104.3169978  46.9600014  81.8593970 104.8466063  46.5479404
  83.1919992 108.4159978  49.2940014  83.0969992 107.8369978  48.5380014
  83.9209992 108.0449978  49.7900014  83.2776011 108.2865561  49.2576028
  82.1919992 103.7559978  50.2460014  82.7569992 103.8779978  49.4840014
  82.5109992 104.3939978  50.8850014  82.3124166 103.8588791  50.2280348
  88.5009992 109.2599978  50.9800014  88.2609992 109.9219978  51.6280014
  88.3029992 108.4249978  51.4050014  88.4413826 109.2378115  51.1261566
  83.0719992 108.1559978  54.9640014  82.7609992 108.9379978  55.4190014
  82.4219992 108.0029978  54.2780014  82.9415538 108.2424087  54.9335898
  89.0509992 103.5199978  42.4160014  89.6299992 103.6699978  43.1620014
  89.4649992 103.9899978  41.6920014  89.1863358 103.6040954  42.4203953
  79.9919992 104.3539978  54.1920014  80.0619992 105.0049978  54.8910014
  79.1009992 104.4569978  53.8570014  79.8811690 104.4569249  54.2423043
  86.7769992 110.2559978  45.8510014  87.2509992 110.5519978  46.6280014
  86.2139992 110.9949978  45.6180014  86.7657890 110.3963036  45.9258101
  81.3109992 110.2269978  55.7270014  81.3189992 110.0909978  54.7800014
  80.3949992 110.1099978  55.9790014  81.1882528 110.1925463  55.6313243
  92.7499992  95.2699978  42.2290014  91.8499992  95.4089978  42.5240014
  93.0019992  96.1009978  41.8270014  92.6608683  95.4014055  42.2150232
  80.8159992 104.0569978  44.2020014  80.5239992 104.8249978  43.7110014
  80.1409992 103.3979978  44.0390014  80.6848497 104.0729745  44.1128260
  93.9389992 109.6359978  40.6050014  94.0119992 110.5749978  40.7750014
  94.8439992 109.3309978  40.5490014  94.0714170 109.7233282  40.6207063
  76.9089992 106.4199978  53.0170014  76.4069992 106.3919978  52.2020014
  76.9139992 105.5149978  53.3270014  76.8409832 106.2937486  52.9474121
  76.6589992 109.2009978  49.9010014  77.6049992 109.0559978  49.8820014
  76.5459992 109.9849978  50.4380014  76.7733578 109.2871697  49.9710317
  94.8569992 109.8669978  55.5840014  94.8069992 108.9109978  55.5460014
  94.0299992 110.1339978  55.9850014  94.7383831 109.7724680  55.6330121
  85.8349992 109.4409978  54.4600014  85.9229992 110.2669978  54.9350014
  84.9719992 109.1109978  54.7090014  85.7303357 109.5095468  54.5587653
  86.2499992 113.2129978  44.2660014  86.1739992 113.0919978  43.3190014
  86.2819992 114.1619978  44.3840014  86.2439380 113.3247677  44.1525181
  79.9029992 112.0019978  46.0470014  80.0549992 111.6539978  46.9250014
  79.0519992 111.6449978  45.7910014  79.8088344 111.9060879  46.1326868
  89.3509992 112.3669978  41.2680014  89.7259992 111.6229978  40.7970014
  89.3559992 112.0969978  42.1860014  89.4030098 112.2286392  41.3276629
  89.0199992 112.2929978  44.0170014  88.0849992 112.3929978  44.1960014
  89.2999992 111.5829978  44.5960014  88.9299471 112.2107933  44.1196695
  92.0089992 101.3599978  56.0640014  91.6009992 101.8399978  55.3430014
  92.0489992 100.4539978  55.7560014  91.9586221 101.3032449  55.9238267
  79.1579992 107.7439978  54.0600014  79.3739992 107.3819978  54.9200014
  78.3019992 107.3689978  53.8510014  79.0718810 107.6438837  54.1492680
  81.7759992  96.2139978  50.0560014  80.9149992  96.1269978  49.6480014
  81.7539992  97.0699978  50.4840014  81.6550491  96.3178003  50.0579582
  86.4389992  95.9359978  53.4310014  86.8589992  95.5209978  54.1840014
  85.5059992  95.7569978  53.5480014  86.3703736  95.8549910  53.5498968
  89.7659992  99.6909978  54.2840014  89.2519992  99.5659978  55.0820014
  89.6099992 100.6039978  54.0400014  89.6746967  99.7972123  54.3600937
  90.5279992 104.5519978  40.0450014  90.5699992 104.3299978  39.1150014
  91.3769992 104.9509978  40.2350014  90.6485253 104.5755498  39.9433822
  86.1009992  98.4279978  40.7160014  85.8469992  98.4469978  41.6380014
  85.8439992  97.5569978  40.4140014  86.0314508  98.3128280  40.8014803
  81.8669992 101.1789978  51.1510014  81.2259992 101.1389978  51.8600014
  81.9049992 102.1059978  50.9130014  81.7843010 101.2987668  51.2159946
  81.8639992 101.3999978  46.0630014  80.9719992 101.0599978  46.0040014
  82.3149992 101.0229978  45.3070014  81.8027642 101.3024910  45.9527726
  87.3999992 101.8159978  44.8800014  86.9909992 102.6309978  44.5880014
  88.1199992 101.6759978  44.2660014  87.4414439 101.9085372  44.7570115
  86.5019992 101.9919978  56.3680014  85.9389992 101.2869978  56.6890014
  87.3279992 101.8709978  56.8360014  86.5366674 101.8792165  56.4751751
  88.4049992 101.2619978  47.6940014  88.2089992 101.8679978  46.9790014
  88.5859992 100.4289978  47.2600014  88.4026584 101.2322513  47.5374212
  79.6169992 101.4999978  53.0180014  79.5789992 101.8999978  53.8870014
  79.1269992 100.6829978  53.1080014  79.5455330 101.4442674  53.1491289
  82.9829992  98.8739978  39.8170014  82.5519992  98.4289978  40.5460014
  82.2649992  99.2449978  39.3040014  82.8269176  98.8632052  39.8474930
  76.2259992  98.6159978  46.8690014  76.8559992  98.5869978  47.5880014
  76.6749992  98.1909978  46.1380014  76.3730835  98.5545660  46.8687659
  77.4999992  99.3619978  42.2930014  77.9739992  99.9529978  41.7080014
  76.7819992  99.8919978  42.6400014  77.4678640  99.5145511  42.2597969
  87.6689992 102.8999978  52.3650014  87.9919992 102.2689978  51.7220014
  87.2279992 102.3659978  53.0260014  87.6536379 102.7413468  52.3662582
  84.4459992  98.8279978  47.1490014  83.5349992  98.8849978  47.4380014
  84.9509992  98.7679978  47.9600014  84.3896873  98.8276826  47.2981207
  79.2739992 100.4569978  45.9760014  78.3849992 100.5559978  45.6360014
  79.5709992  99.6149978  45.6300014  79.1924177 100.3567687  45.8826940
  82.9269992 100.4569978  43.6330014  83.8589992 100.5859978  43.8110014
  82.7119992 101.1259978  42.9830014  83.0254472 100.5650806  43.5694891
  88.8509992  98.0629978  50.4140014  88.1739992  98.1939978  51.0770014
  88.3659992  97.9079978  49.6030014  88.6927405  98.0599947  50.3952170
  81.6009992 101.6509978  41.1990014  81.0589992 101.2719978  40.5080014
  82.4349992 101.8459978  40.7710014  81.6394390 101.6254079  41.0464392
  92.1389992 113.7339978  56.6900014  92.3379992 114.1579978  55.8560014
  92.7939992 114.0779978  57.2970014  92.2548522 113.8386301  56.6577852
  79.7369992 106.2079978  56.2980014  80.4689992 106.4629978  56.8600014
  78.9559992 106.4129978  56.8140014  79.7316526 106.2705450  56.4445176
  85.7659992 101.6149978  49.0360014  86.3299992 101.0689978  48.4890014
  85.6179992 101.0939978  49.8250014  85.8233037 101.4696787  49.0677229
  80.7679992  97.7519978  45.4550014  80.4509992  96.8489978  45.4190014
  81.5489992  97.7539978  44.9020014  80.8302431  97.6287797  45.3753102
  84.3919992 100.0039978  51.4500014  83.5569992 100.4579978  51.5610014
  84.9159992 100.2799978  52.2020014  84.3486072 100.1033948  51.5668136
  84.9369992 106.2169978  43.1350014  84.1919992 105.7089978  42.8130014
  84.8019992 106.2659978  44.0810014  84.8168963 106.1541731  43.2188826
  92.0869992 105.3499978  51.9220014  92.7279992 105.8059978  51.3780014
  91.2559992 105.4629978  51.4590014  92.0625287 105.4276921  51.7849887
  88.8339992  99.0309978  41.3340014  87.8959992  99.1419978  41.1830014
  89.1319992  99.8869978  41.6410014  88.7456318  99.1620158  41.3548145
  86.4559992 106.4009978  54.3720014  86.1099992 106.0189978  55.1790014
  86.2559992 107.3339978  54.4430014  86.3815987 106.4749002  54.4920461
  89.5529992 100.8979978  42.9950014  90.4449992 100.7599978  43.3140014
  89.6089992 101.6889978  42.4580014  89.6827325 100.9859918  42.9661217
  80.0609992 105.5119978  48.9050014  80.8059992 105.5089978  48.3030014
  80.1389992 104.6879978  49.3860014  80.1733365 105.4002384  48.8877430
  87.0619992 107.6749978  42.1600014  86.7669992 108.5019978  42.5420014
  86.3589992 107.0559978  42.3570014  86.9266379 107.7044171  42.2388654
  77.0689992 103.9719978  54.2200014  77.2919992 103.5539978  55.0510014
  76.4669992 103.3599978  53.7970014  77.0181513 103.8319606  54.2766740
  84.0859992 103.4889978  56.4330014  83.7899992 103.3239978  55.5370014
  85.0169992 103.2689978  56.4220014  84.1714401 103.4366879  56.3090206
  88.7059992 108.8629978  54.3220014  87.8059992 109.0459978  54.0550014
  88.7399992 109.1219978  55.2430014  88.5873748 108.9230554  54.4099164
  94.4379992 101.1069978  42.6900014  93.8829992 100.7109978  42.0170014
  94.5379992 102.0179978  42.4120014  94.3756816 101.1759505  42.5605033
  94.4009992 106.9079978  55.5270014  93.5499992 107.1459978  55.1590014
  94.9909992 106.8909978  54.7740014  94.3643812 106.9382524  55.3748453
  92.7329992 109.8929978  43.1550014  92.3599992 109.0679978  43.4640014
  93.0099992 109.7099978  42.2570014  92.7193463 109.7552569  43.0759525
  89.8929992 104.7009978  50.1760014  88.9649992 104.4699978  50.1490014
  90.3439992 103.9239978  49.8460014  89.8268165 104.5642774  50.1276790
  82.4359992 109.0299978  46.3090014  82.9639992 109.8029978  46.1090014
  81.5559992 109.2539978  46.0070014  82.3893435 109.1662700  46.2407310
  78.1909992 103.8919978  40.8960014  78.8069992 104.5189978  41.2760014
  77.3289992 104.2079978  41.1680014  78.1587678 104.0204412  40.9847209
  83.8639992 106.6929978  45.8850014  83.6229992 107.6179978  45.9270014
  83.1229992 106.2339978  46.2820014  83.7309206 106.7575915  45.9443769
  84.3779992 110.8419978  52.2000014  84.7409992 111.6959978  51.9670014
  84.9099992 110.5499978  52.9410014  84.4995141 110.9193895  52.2682097
  82.5469992 111.7139978  45.4310014  81.5969992 111.8199978  45.4820014
  82.8989992 112.5349978  45.7750014  82.4645472 111.8394923  45.4844852
  87.9219992 106.9409978  51.9010014  87.4969992 106.7129978  52.7270014
  88.5029992 106.2019978  51.7190014  87.9423395 106.8099545  51.9894414
  90.1249992 107.8699978  40.9750014  90.4789992 107.4899978  41.7790014
  89.1769992 107.7759978  41.0620014  90.0452298 107.8052452  41.0968687
  90.5809992 111.4929978  54.3700014  89.9789992 110.9369978  53.8750014
  90.8619992 112.1599978  53.7440014  90.5365757 111.5070744  54.2175675
  94.6289992 112.3489978  41.1760014  95.3729992 112.9349978  41.0360014
  93.9349992 112.9179978  41.5090014  94.6369809 112.5060818  41.2018590
  78.7029992  98.7259978  53.7780014  77.8109992  99.0639978  53.7100014
  78.6049992  97.8699978  54.1960014  78.5674475  98.6566543  53.8251704
  90.9909992 106.5419978  43.2020014  90.7139992 105.8139978  43.7580014
  91.9189992 106.6609978  43.4070014  91.0784499 106.4584213  43.3058044
  78.3549992 110.5299978  52.2130014  78.5719992 109.5979978  52.1820014
  78.6009992 110.8049978  53.0960014  78.4179809 110.4395686  52.3281691
  84.2159992 108.9819978  39.4220014  84.4549992 108.2329978  38.8750014
  83.9469992 108.5939978  40.2550014  84.2123233 108.8271853  39.4597809
  83.1529992 108.5519978  41.8780014  83.2999992 108.0319978  42.6680014
  83.1499992 109.4589978  42.1850014  83.1727102 108.6033953  42.0275925
  79.6059992 105.8039978  42.3890014  78.9199992 106.1569978  42.9560014
  80.1289992 106.5669978  42.1420014  79.5828402 105.9553901  42.4331801
  87.4379992  98.4669978  52.6680014  88.1369992  98.5409978  53.3180014
  87.0569992  97.6019978  52.8220014  87.4822097  98.3602389  52.7777997
  88.2219992  98.1189978  43.7650014  88.4419992  98.5899978  42.9610014
  88.7809992  98.5129978  44.4350014  88.3276732  98.2367287  43.7455033
  85.8909992 110.2489978  42.6280014  85.0739992 110.7459978  42.6800014
  86.4199992 110.7249978  41.9870014  85.8508125 110.3811989  42.5485306
  85.4219992  99.8469978  44.6000014  86.2339992 100.3509978  44.6460014
  85.1779992  99.7019978  45.5140014  85.5001467  99.8963749  44.7298575
  85.9579992 100.8329978  53.7840014  86.0769992 101.4069978  54.5410014
  86.6129992 100.1449978  53.8990014  86.0628684 100.8185194  53.9031674
  86.3059992  96.9279978  45.5380014  85.9589992  97.5449978  46.1820014
  86.9649992  97.4289978  45.0560014  86.3475090  97.0801575  45.5610681
  83.2289992 111.2929978  42.6090014  83.3899992 112.0929978  42.1090014
  83.0319992 111.5999978  43.4940014  83.2243906 111.4438678  42.6602333
  81.9639992  97.9909978  42.2250014  81.8799992  98.8789978  42.5720014
  82.8539992  97.7259978  42.4570014  82.0728163  98.0767179  42.3038596
  92.1619992  98.7399978  54.6190014  91.2459992  99.0019978  54.5320014
  92.4979992  98.7369978  53.7230014  92.0818499  98.7755163  54.4858766
  90.7649992 102.4899978  48.7150014  89.9669992 102.0749978  48.3870014
  91.2099992 101.7999978  49.2060014  90.7159684 102.3398628  48.7365227
  80.2219992 108.4179978  41.2850014  80.8139992 109.1179978  41.5620014
  80.6809992 107.9849978  40.5660014  80.3651652 108.4552675  41.2256533
  78.5379992 101.0829978  40.4010014  78.4929992 102.0219978  40.5800014
  77.6499992 100.8469978  40.1320014  78.4118166 101.1796687  40.3891524
  91.8509992 111.7459978  50.3370014  91.6949992 112.4249978  49.6800014
  92.7839992 111.8179978  50.5400014  91.9557387 111.8486390  50.2745342
  79.3459992  95.8639978  49.0750014  79.1169992  95.9229978  48.1470014
  78.9039992  95.0729978  49.3810014  79.2548801  95.7650540  48.9894729
  78.2769992 109.8049978  45.2350014  77.4439992 110.2769978  45.2620014
  78.8219992 110.3149978  44.6360014  78.2367857 109.9384791  45.1577142
  77.5649992 112.4169978  56.5650014  78.1049992 112.2009978  57.3250014
  77.0839992 111.6119978  56.3750014  77.5739219 112.2785156  56.6434282
  82.1619992 111.3369978  58.1850014  82.9299992 110.8779978  58.5260014
  82.1409992 111.1109978  57.2550014  82.2642135 111.2436668  58.1059491
  86.2539992 110.8449978  39.5610014  85.6099992 110.2139978  39.8820014
  87.0159992 110.3139978  39.3290014  86.2688058 110.6867902  39.5736038
  88.7389992 109.7169978  56.9140014  88.3879992 108.8599978  57.1580014
  89.4649992 109.8589978  57.5210014  88.7891895 109.6191351  57.0293770
  90.8589992 110.6619978  39.7940014  91.1419992 109.8669978  40.2470014
  91.5979992 110.8949978  39.2330014  90.9977096 110.5847049  39.7801104
  77.4719992 106.2279978  57.5190014  77.6159992 105.3259978  57.2330014
  76.6999992 106.5139978  57.0320014  77.3872733 106.1431798  57.4139532
  81.8129992 106.5709978  39.6520014  81.8779992 105.7769978  40.1820014
  82.4659992 106.4529978  38.9620014  81.9101605 106.4463430  39.6312997
  84.1269992 106.1969978  56.9520014  83.7989992 106.4679978  56.0950014
  84.2789992 105.2559978  56.8640014  84.1026412 106.1069046  56.8227822
  87.1659992 107.6179978  39.3880014  86.8969992 107.7989978  40.2880014
  86.9589992 106.6929978  39.2560014  87.1011191 107.5177119  39.4935524
  89.8619992 106.1129978  54.3350014  90.6069992 106.7019978  54.2160014
  89.1049992 106.6949978  54.3990014  89.8615470 106.2722128  54.3273799
  78.3049992 103.4279978  56.9390014  78.7129992 102.5709978  56.8180014
  78.0439992 103.4419978  57.8600014  78.3256016 103.3125119  57.0469192
  82.9629992 104.5439978  41.9580014  82.5029992 104.0599978  42.6430014
  83.2179992 103.8749978  41.3220014  82.9344856 104.3873669  41.9658397
  82.2519992 102.4369978  54.3140014  81.6329992 103.1109978  54.5940014
  82.5959992 102.7579978  53.4800014  82.2137123 102.5726887  54.2396388
  84.0339992 102.7869978  40.2200014  83.8529992 102.6319978  39.2930014
  84.9839992 102.8949978  40.2650014  84.1376566 102.7803669  40.0990929
  87.2709992 104.9079978  57.5910014  88.2249992 104.9919978  57.5640014
  87.1109992 104.1959978  58.2110014  87.3797182 104.8232842  57.6710733
  93.4239992 105.1409978  39.6660014  93.1499992 104.7169978  38.8530014
  93.4629992 106.0729978  39.4490014  93.3917716 105.2088827  39.5254286
  82.5909992  99.7919978  55.3960014  82.7409992  99.0629978  54.7940014
  82.5929992 100.5689978  54.8370014  82.6117967  99.7972708  55.2380541
  83.0039992  98.1609978  52.8890014  83.5389992  98.6129978  52.2370014
  82.1509992  98.0529978  52.4660014  82.9620374  98.2082665  52.7426710
  84.5849992 103.6009978  53.1280014  85.3359992 103.4449978  52.5550014
  84.2459992 104.4529978  52.8530014  84.6419587 103.6948138  53.0124078
  89.0009992 101.4159978  58.1570014  89.1929992 100.4849978  58.0450014
  89.8589992 101.8409978  58.1460014  89.1432182 101.3460070  58.1401862
  90.3179992 104.2049978  56.2340014  90.0359992 104.9139978  55.6560014
  91.2599992 104.1319978  56.0830014  90.4067921 104.2922193  56.1344225
  81.0699992 100.9899978  57.3070014  80.3019992 100.4569978  57.0970014
  81.7479992 100.6799978  56.7080014  81.0567235 100.8751754  57.1972413
  83.8089992  95.6179978  53.3200014  83.7109992  96.5639978  53.2150014
  83.0669992  95.2449978  52.8440014  83.6952534  95.6971773  53.2412600
  85.0729992  99.9389978  56.8840014  84.8379992  99.7199978  57.7850014
  84.2899992  99.7319978  56.3740014  84.9349095  99.8809892  56.9385353
  87.7889992  99.0669978  55.9590014  86.8409992  99.0989978  56.0910014
  88.1009992  98.4409978  56.6130014  87.7015293  98.9867923  56.0654148
  89.4229992  97.7009978  57.9640014  89.3259992  96.7489978  57.9590014
  89.1009992  97.9689978  58.8250014  89.3662468  97.6070884  58.0796210
  79.2499992  98.9099978  57.0120014  79.4619992  98.2039978  56.4020014
  79.1389992  98.4729978  57.8560014  79.2640269  98.7541921  57.0425873
  84.0309992  94.9119978  55.9910014  84.7429992  94.2719978  55.9770014
  83.9299992  95.1779978  55.0780014  84.1147387  94.8604330  55.8655563
  84.3849992  96.5939978  58.0450014  84.2529992  96.1189978  57.2250014
  83.7849992  97.3389978  57.9900014  84.2859070  96.6295789  57.9253251
  83.9309992 113.4769978  41.2210014  84.8639992 113.6349978  41.3650014
  83.6669992 114.1529978  40.5960014  84.0229911 113.5899373  41.1562722
  77.4989992 108.1139978  40.7040014  78.4129992 108.1929978  40.9770014
  77.5069992 107.4269978  40.0380014  77.6250655 108.0319205  40.6512917
  76.1479992 113.5069978  45.7810014  75.5009992 113.0449978  45.2490014
  76.5029992 112.8349978  46.3640014  76.1073741 113.3529774  45.7869175
  77.0179992 111.5869978  47.5860014  76.6839992 110.7069978  47.7580014
  77.2409992 111.9329978  48.4510014  77.0023721 111.5131938  47.7264168
  94.5669992 112.3969978  50.5670014  94.5449992 112.5819978  51.5060014
  95.2569992 112.9649978  50.2260014  94.6573439 112.4991887  50.6494791
  94.1299992 111.9639978  53.4880014  93.6429992 111.2289978  53.1170014
  94.6789992 111.5699978  54.1660014  94.1375247 111.8101057  53.5288461
  92.5809992 107.7539978  58.1270014  91.7149992 107.6489978  58.5210014
  92.9569992 108.5119978  58.5730014  92.5133401 107.8421708  58.2412620
  93.8819992 106.0099978  43.6410014  94.7319992 106.4309978  43.7680014
  93.8869992 105.2699978  44.2480014  93.9991143 105.9676094  43.7404750
  94.2759992 104.0639978  45.4640014  93.5499992 103.5839978  45.8620014
  94.8579992 104.2689978  46.1970014  94.2552730 104.0260184  45.6174149
  94.0349992 106.8489978  50.4120014  94.8689992 106.4709978  50.1310014
  94.1469992 107.7919978  50.2930014  94.1641917 106.9247943  50.3574861
  92.5219992 109.7269978  52.7190014  91.8739992 110.0519978  53.3440014
  92.0039992 109.2859978  52.0450014  92.3634196 109.7118651  52.7134152
  94.5449992 103.9649978  41.8550014  94.0229992 104.3209978  41.1370014
  94.5119992 104.6399978  42.5340014  94.4690129 104.1049598  41.8483355
  92.8939992 101.2039978  40.4060014  92.9899992 101.8709978  39.7260014
  92.7539992 100.3889978  39.9250014  92.8882040 101.1850671  40.2478378
  92.0629992 102.5849978  46.0270014  91.9129992 101.6399978  46.0070014
  91.7089992 102.8659978  46.8710014  91.9946351 102.4936644  46.1383220
  77.0979992 104.6629978  50.0380014  77.2829992 104.5809978  49.1020014
  77.9479992 104.5389978  50.4610014  77.2380928 104.6350463  49.9672893
  92.9189992 104.5549978  55.6660014  93.5019992 103.8199978  55.8580014
  93.4829992 105.3269978  55.7130014  93.0749781 104.5588145  55.6986164
  94.4159992 102.4579978  56.3510014  93.5529992 102.0789978  56.1850014
  95.0199992 101.7189978  56.2760014  94.3796085 102.3063223  56.3181695
  92.1409992  98.6119978  39.5240014  92.7519992  98.2409978  40.1610014
  91.3039992  98.1909978  39.7200014  92.1114947  98.5042756  39.6377252
  91.7739992 100.1669978  44.4900014  92.0529992  99.2599978  44.6140014
  92.5329992 100.6009978  44.1010014  91.9148619 100.1014502  44.4543795
  92.3849992 100.7489978  49.9260014  93.3179992 100.9609978  49.8910014
  92.1499992 100.8499978  50.8480014  92.4809517 100.7916833  50.0459130
  92.4149992 101.4859978  52.7020014  91.5719992 101.7539978  53.0680014
  92.8569992 102.3079978  52.4910014  92.3594138 101.6338273  52.7235518
  76.6959992  99.9329978  56.1780014  77.6149992  99.8109978  56.4150014
  76.2459992  99.1829978  56.5680014  76.7610087  99.8149608  56.2631410
  94.6979992  95.4659978  58.0550014  95.0469992  94.8119978  57.4500014
  94.8449992  96.3029978  57.6150014  94.7656824  95.4896024  57.9126304
  92.3869992  97.4299978  44.5380014  92.5689992  96.9809978  45.3630014
  91.7869992  96.8459978  44.0740014  92.3308187  97.2895552  44.5882739
  77.9169992  98.2459978  49.0700014  78.3619992  97.4539978  49.3720014
  78.3829992  98.9619978  49.5000014  78.0409718  98.2344534  49.1695265
  76.2209992 101.2449978  50.1390014  76.7129992 101.0239978  49.3480014
  76.5829992 102.0849978  50.4200014  76.3372923 101.3283468  50.0687407
  94.2169992  97.5749978  56.4040014  93.2999992  97.8459978  56.3690014
  94.3399992  97.0399978  55.6200014  94.1079672  97.5397885  56.2931862
  94.2539992  97.4979978  41.0660014  94.6659992  96.7769978  40.5910014
  94.9349992  98.1669978  41.1240014  94.4025536  97.4897766  41.0088024
  76.5349992  97.5029978  44.1930014  75.6099992  97.7109978  44.0640014
  76.9889992  97.9869978  43.5030014  76.4696298  97.5969299  44.0820451
  91.3049992 112.4869978  46.1390014  91.9579992 112.1389978  45.5310014
  91.8159992 112.9749978  46.7850014  91.4632777 112.5053815  46.1432047
  76.4979992  96.2409978  52.5370014  75.8329992  95.9949978  53.1800014
  76.0549992  96.8629978  51.9600014  76.3471168  96.2914214  52.5469848
  78.6899992 109.4159978  56.6820014  77.8689992 109.5909978  56.2210014
  78.4379992 109.3429978  57.6020014  78.5435594 109.4300717  56.7433611
  81.6439992 110.3899978  52.9400014  81.2199992 111.1999978  52.6580014
  82.5489992 110.4759978  52.6380014  81.7082138 110.5124160  52.8606415
  85.9559992 111.7889978  55.9000014  86.1399992 111.4559978  56.7780014
  86.8019992 112.0989978  55.5780014  86.0956484 111.7852979  55.9767617
  88.3009992 113.0749978  55.1440014  88.9779992 112.4419978  54.9040014
  88.6219992 113.4759978  55.9510014  88.4371323 113.0425691  55.2203158
  93.2179992  95.6649978  54.2230014  92.4049992  95.9899978  53.8360014
  93.4509992  94.9039978  53.6900014  93.1381347  95.6066880  54.0979841
  79.0459992 113.6469978  52.9880014  78.3259992 114.0869978  52.5370014
  78.6809992 113.3959978  53.8360014  78.8979643 113.6733369  53.0409129
  81.5129992 113.2469978  52.0180014  80.6489992 113.3189978  52.4220014
  81.4579992 113.7939978  51.2340014  81.3871942 113.3307849  51.9674000
  86.2239992 113.1349978  51.1930014  85.7669992 113.6639978  50.5390014
  86.3869992 113.7379978  51.9180014  86.1834960 113.2889280  51.2015274
  88.5519992 112.0129978  52.1380014  87.6469992 112.1779978  51.8720014
  88.9799992 112.8659978  52.0720014  88.4861537 112.1509134  52.0927095
  91.1559992 113.5829978  52.4330014  90.9739992 114.4989978  52.2220014
  91.3329992 113.1719978  51.5860014  91.1550030 113.6528273  52.2897166
  78.4609992 112.2699978  49.8980014  78.4429992 111.8439978  50.7550014
  79.2659992 111.9509978  49.4890014  78.5672875 112.1686435  49.9599515
  80.6019992 110.9799978  48.5530014  80.3829992 110.0629978  48.7230014
  81.4259992 111.1199978  49.0190014  80.6834702 110.8735511  48.6392527
  83.1389992 111.4499978  49.4020014  83.3519992 110.5619978  49.1150014
  83.2039992 111.4149978  50.3560014  83.1769149 111.3238326  49.4917369
  86.6479992  97.1139978  48.5460014  85.9739992  96.4839978  48.8020014
  87.2119992  96.6299978  47.9430014  86.6320384  96.9623708  48.4995020
  91.7909992  95.2209978  48.6590014  92.3939992  95.7689978  48.1570014
  90.9209992  95.5399978  48.4180014  91.7559157  95.3390373  48.5577910
  93.5179992  96.3599978  46.9920014  94.1289992  95.8459978  46.4650014
  93.8999992  97.2369978  47.0150014  93.6533305  96.4082050  46.9229418
  78.9749992  95.7479978  46.3680014  78.1979992  95.5129978  45.8610014
  79.5049992  94.9509978  46.3770014  78.9403451  95.6081268  46.2998627
  83.5539992  95.6739978  46.1810014  84.4279992  96.0629978  46.1520014
  83.4179992  95.4589978  47.1040014  83.6551953  95.6981643  46.3017617
  89.1109992  95.7039978  47.8310014  89.1869992  95.7999978  46.8810014
  88.8359992  94.7969978  47.9590014  89.0841871  95.5944146  47.7183944
  90.4639992  95.7299978  43.5230014  89.7609992  96.3449978  43.3130014
  90.0189992  94.8929978  43.6540014  90.3076550  95.7009668  43.5119837
  77.7119992 111.4939978  43.0690014  77.0269992 111.4559978  42.4020014
  77.7159992 112.4069978  43.3570014  77.6187621 111.6121924  43.0166126
  84.6979992  97.7549978  43.0710014  84.8759992  97.1079978  43.7540014
  84.6439992  98.5889978  43.5380014  84.7150678  97.7791604  43.2276301
  86.5759992 112.7029978  41.4670014  87.4419992 113.0699978  41.2890014
  86.3299992 112.2639978  40.6530014  86.6612097 112.6938525  41.3326019
  93.2849992 112.2659978  44.1460014  93.0909992 111.5179978  43.5810014
  93.2459992 113.0239978  43.5630014  93.2531645 112.2660786  43.9898148
  78.9319992  96.2619978  55.8860014  78.5659992  95.4959978  56.3280014
  79.8449992  96.2909978  56.1720014  79.0053172  96.1610324  55.9851890
  80.9049992  95.6119978  57.4210014  81.8039992  95.3379978  57.2370014
  80.5189992  94.8699978  57.8860014  80.9757307  95.4742196  57.4587098
  79.5299992 112.4139978  40.0940014  79.2619992 112.6999978  40.9680014
  80.3009992 111.8679978  40.2470014  79.5975926 112.3792779  40.2341205
  89.3269992  94.9449978  57.6040014  89.4029992  94.5189978  58.4570014
  90.2199992  94.9579978  57.2610014  89.4582303  94.8883493  57.6745497
  92.5029992 111.0179978  56.2960014  91.7209992 110.8309978  55.7760014
  92.4309992 111.9469978  56.5130014  92.3861924 111.1180637  56.2541602
 106.9089992 104.9039978  46.3270014 106.9979992 105.8479978  46.1950014
 106.2709992 104.6289978  45.6690014 106.8349062 104.9959812  46.2199641
 105.8419992 104.1589978  49.7460014 105.8039992 103.5129978  50.4510014
 105.5199992 103.6919978  48.9750014 105.7932679 104.0074276  49.7382921
  98.2099992 103.7729978  51.3390014  98.2519992 103.1479978  52.0620014
  98.9129992 104.3969978  51.5210014  98.3107345 103.7717873  51.4625274
 109.5479992 107.0979978  48.0470014 109.1069992 106.3779978  48.4980014
 109.5349992 107.8189978  48.6770014 109.4859215 107.0969291  48.1938105
  99.1339992 108.2229978  49.8740014  98.7639992 107.4209978  49.5040014
 100.0749992 108.0549978  49.9200014  99.2105984 108.0904638  49.8295603
  95.7439992 101.8829978  45.2660014  95.2959992 102.7289978  45.2480014
  95.1829992 101.3039978  44.7510014  95.6068546 101.9203993  45.1938891
  96.4539992 104.0449978  47.3920014  96.6679992 103.2749978  47.9200014
  97.1919992 104.1349978  46.7890014  96.5830200 103.9518587  47.3827035
 106.6599992 112.2019978  48.2590014 107.2789992 111.5259978  47.9860014
 106.4509992 111.9839978  49.1680014 106.7166056 112.0798869  48.3443967
 104.2309992 106.5909978  50.1520014 104.5349992 105.9049978  49.5570014
 104.9529992 106.7099978  50.7700014 104.3701240 106.5132314  50.1540959
 112.8939992  98.1929978  51.0120014 112.9439992  98.8029978  51.7480014
 113.3199992  98.6539978  50.2890014 112.9584108  98.3387709  51.0150112
 107.3719992 100.9849978  50.4790014 107.5149992 100.0389978  50.4990014
 107.2659992 101.1919978  49.5510014 107.3772403 100.8834797  50.3562239
 100.5269992  99.0869978  47.7520014 100.5699992  99.9469978  47.3330014
 100.0689992  98.5349978  47.1180014 100.4709871  99.1299245  47.6090761
 108.2489992  99.2179978  46.1530014 108.8959992  98.8889978  46.7770014
 108.7589992  99.7349978  45.5300014 108.4064351  99.2429067  46.1541037
  97.1469992 101.4839978  48.5140014  97.8009992 100.9339978  48.9460014
  97.1709992 101.2099978  47.5970014  97.2397199 101.3717167  48.4491668
 102.3039992 103.0339978  47.7290014 102.9199992 102.5069978  48.2380014
 101.7169992 102.3939978  47.3250014 102.3090154 102.8753954  47.7440945
 113.2859992  99.6709978  53.2480014 112.5969992 100.3289978  53.1530014
 113.3009992  99.4729978  54.1850014 113.1937756  99.7342603  53.3615812
  99.3369992  98.0049978  51.8260014  99.1179992  98.5349978  51.0590014
  98.6689992  98.2309978  52.4730014  99.2166975  98.1080967  51.8085140
 106.7059992 107.5049978  45.3700014 106.4109992 107.1819978  44.5180014
 106.3819992 108.4049978  45.4110014 106.6218460 107.5824464  45.2589714
 101.9059992 105.6799978  52.1130014 101.1659992 106.2789978  52.2170014
 102.6199992 106.2339978  51.7980014 101.9013500 105.8367829  52.0846371
 110.0129992  98.5089978  48.1330014 109.7979992  97.7429978  48.6660014
 110.6689992  98.9809978  48.6460014 110.0722673  98.4680728  48.2751990
  98.9309992  99.8969978  49.7780014  99.5449992 100.5299978  50.1510014
  99.4429992  99.4249978  49.1220014  99.0841962  99.9197249  49.7402935
 100.3139992 107.6449978  52.9000014 100.3079992 108.5239978  52.5220014
  99.4599992 107.5609978  53.3250014 100.1977925 107.7539535  52.9056887
  96.4349992 107.3159978  43.6820014  96.1629992 107.5449978  42.7940014
  96.4799992 108.1529978  44.1430014  96.4038097 107.4606163  43.6226683
 110.0599992 108.9369978  50.3950014 109.1179992 108.9959978  50.5570014
 110.3359992 109.8429978  50.2580014 109.9685865 109.0675288  50.3986192
 110.3599992  97.2239978  51.8120014 109.6239992  97.8339978  51.7750014
 111.0439992  97.6389978  51.2860014 110.3515367  97.3637551  51.7358174
 103.3639992  95.3099978  49.2780014 103.2459992  94.3619978  49.2240014
 102.5089992  95.6429978  49.5510014 103.2322805  95.2252202  49.3075079
 108.3119992 110.7179978  47.0200014 108.7369992 110.0109978  46.5350014
 108.6289992 111.5199978  46.6030014 108.4130266 110.7295190  46.8972479
 109.4719992 108.6189978  45.5290014 109.2139992 107.9289978  44.9170014
 109.5429992 108.1759978  46.3740014 109.4463050 108.4646814  45.5595621
 111.1579992 107.1859978  54.0060014 111.2969992 106.5939978  53.2670014
 111.3249992 108.0589978  53.6500014 111.1996193 107.2228896  53.8566211
 105.6299992 104.1479978  43.7790014 104.9189992 104.6829978  43.4270014
 106.3209992 104.2029978  43.1190014 105.6260751 104.2286777  43.6415858
 105.6839992 102.6049978  40.8170014 106.3849992 102.6279978  41.4690014
 105.9859992 101.9769978  40.1610014 105.8208202 102.5232212  40.8175609
 112.9989992 103.5259978  52.0720014 112.3469992 104.2199978  52.1610014
 113.4649992 103.7359978  51.2620014 112.9725937 103.6495019  51.9747533
 109.0359992 104.3569978  44.7300014 108.3039992 104.5859978  45.3040014
 109.4829992 103.6439978  45.1850014 108.9963963 104.2918729  44.8699945
 108.9329992 102.5319978  53.7980014 109.0129992 103.2949978  54.3700014
 108.3319992 102.8109978  53.1080014 108.8626547 102.6742457  53.7830047
 100.6809992 104.9879978  46.6130014 100.3509992 104.6169978  45.7950014
 101.2699992 104.3169978  46.9600014 100.7153970 104.8466063  46.5479404
 102.0479992 108.4159978  49.2940014 101.9529992 107.8369978  48.5380014
 102.7769992 108.0449978  49.7900014 102.1336011 108.2865561  49.2576028
 101.0479992 103.7559978  50.2460014 101.6129992 103.8779978  49.4840014
 101.3669992 104.3939978  50.8850014 101.1684166 103.8588791  50.2280348
 107.3569992 109.2599978  50.9800014 107.1169992 109.9219978  51.6280014
 107.1589992 108.4249978  51.4050014 107.2973826 109.2378115  51.1261566
 101.9279992 108.1559978  54.9640014 101.6169992 108.9379978  55.4190014
 101.2779992 108.0029978  54.2780014 101.7975538 108.2424087  54.9335898
 107.9069992 103.5199978  42.4160014 108.4859992 103.6699978  43.1620014
 108.3209992 103.9899978  41.6920014 108.0423358 103.6040955  42.4203953
  98.8479992 104.3539978  54.1920014  98.9179992 105.0049978  54.8910014
  97.9569992 104.4569978  53.8570014  98.7371690 104.4569249  54.2423043
 105.6329992 110.2559978  45.8510014 106.1069992 110.5519978  46.6280014
 105.0699992 110.9949978  45.6180014 105.6217890 110.3963036  45.9258101
 100.1669992 110.2269978  55.7270014 100.1749992 110.0909978  54.7800014
  99.2509992 110.1099978  55.9790014 100.0442528 110.1925463  55.6313243
 111.6059992  95.2699978  42.2290014 110.7059992  95.4089978  42.5240014
 111.8579992  96.1009978  41.8270014 111.5168683  95.4014055  42.2150232
  99.6719992 104.0569978  44.2020014  99.3799992 104.8249978  43.7110014
  98.9969992 103.3979978  44.0390014  99.5408497 104.0729745  44.1128260
 112.7949992 109.6359978  40.6050014 112.8679992 110.5749978  40.7750014
 113.6999992 109.3309978  40.5490014 112.9274170 109.7233282  40.6207063
  95.7649992 106.4199978  53.0170014  95.2629992 106.3919978  52.2020014
  95.7699992 105.5149978  53.3270014  95.6969832 106.2937486  52.9474121
  95.5149992 109.2009978  49.9010014  96.4609992 109.0559978  49.8820014
  95.4019992 109.9849978  50.4380014  95.6293578 109.2871697  49.9710317
 113.7129992 109.8669978  55.5840014 113.6629992 108.9109978  55.5460014
 112.8859992 110.1339978  55.9850014 113.5943831 109.7724680  55.6330121
 104.6909992 109.4409978  54.4600014 104.7789992 110.2669978  54.9350014
 103.8279992 109.1109978  54.7090014 104.5863357 109.5095468  54.5587653
 105.1059992 113.2129978  44.2660014 105.0299992 113.0919978  43.3190014
 105.1379992 114.1619978  44.3840014 105.0999380 113.3247677  44.1525181
  98.7589992 112.0019978  46.0470014  98.9109992 111.6539978  46.9250014
  97.9079992 111.6449978  45.7910014  98.6648344 111.9060879  46.1326868
 108.2069992 112.3669978  41.2680014 108.5819992 111.6229978  40.7970014
 108.2119992 112.0969978  42.1860014 108.2590098 112.2286392  41.3276629
 107.8759992 112.2929978  44.0170014 106.9409992 112.3929978  44.1960014
 108.1559992 111.5829978  44.5960014 107.7859471 112.2107933  44.1196695
 110.8649992 101.3599978  56.0640014 110.4569992 101.8399978  55.3430014
 110.9049992 100.4539978  55.7560014 110.8146221 101.3032449  55.9238267
  98.0139992 107.7439978  54.0600014  98.2299992 107.3819978  54.9200014
  97.1579992 107.3689978  53.8510014  97.9278810 107.6438837  54.1492680
 100.6319992  96.2139978  50.0560014  99.7709992  96.1269978  49.6480014
 100.6099992  97.0699978  50.4840014 100.5110491  96.3178003  50.0579582
 105.2949992  95.9359978  53.4310014 105.7149992  95.5209978  54.1840014
 104.3619992  95.7569978  53.5480014 105.2263736  95.8549910  53.5498968
 108.6219992  99.6909978  54.2840014 108.1079992  99.5659978  55.0820014
 108.4659992 100.6039978  54.0400014 108.5306967  99.7972123  54.3600937
 109.3839992 104.5519978  40.0450014 109.4259992 104.3299978  39.1150014
 110.2329992 104.9509978  40.2350014 109.5045253 104.5755498  39.9433822
 104.9569992  98.4279978  40.7160014 104.7029992  98.4469978  41.6380014
 104.6999992  97.5569978  40.4140014 104.8874508  98.3128280  40.8014803
 100.7229992 101.1789978  51.1510014 100.0819992 101.1389978  51.8600014
 100.7609992 102.1059978  50.9130014 100.6403010 101.2987668  51.2159946
 100.7199992 101.3999978  46.0630014  99.8279992 101.0599978  46.0040014
 101.1709992 101.0229978  45.3070014 100.6587642 101.3024910  45.9527726
 106.2559992 101.8159978  44.8800014 105.8469992 102.6309978  44.5880014
 106.9759992 101.6759978  44.2660014 106.2974439 101.9085372  44.7570115
 105.3579992 101.9919978  56.3680014 104.7949992 101.2869978  56.6890014
 106.1839992 101.8709978  56.8360014 105.3926674 101.8792165  56.4751751
 107.2609992 101.2619978  47.6940014 107.0649992 101.8679978  46.9790014
 107.4419992 100.4289978  47.2600014 107.2586584 101.2322513  47.5374212
  98.4729992 101.4999978  53.0180014  98.4349992 101.8999978  53.8870014
  97.9829992 100.6829978  53.1080014  98.4015330 101.4442674  53.1491289
 101.8389992  98.8739978  39.8170014 101.4079992  98.4289978  40.5460014
 101.1209992  99.2449978  39.3040014 101.6829176  98.8632051  39.8474930
  95.0819992  98.6159978  46.8690014  95.7119992  98.5869978  47.5880014
  95.5309992  98.1909978  46.1380014  95.2290835  98.5545660  46.8687659
  96.3559992  99.3619978  42.2930014  96.8299992  99.9529978  41.7080014
  95.6379992  99.8919978  42.6400014  96.3238640  99.5145511  42.2597969
 106.5249992 102.8999978  52.3650014 106.8479992 102.2689978  51.7220014
 106.0839992 102.3659978  53.0260014 106.5096379 102.7413468  52.3662582
 103.3019992  98.8279978  47.1490014 102.3909992  98.8849978  47.4380014
 103.8069992  98.7679978  47.9600014 103.2456873  98.8276826  47.2981207
  98.1299992 100.4569978  45.9760014  97.2409992 100.5559978  45.6360014
  98.4269992  99.6149978  45.6300014  98.0484177 100.3567687  45.8826940
 101.7829992 100.4569978  43.6330014 102.7149992 100.5859978  43.8110014
 101.5679992 101.1259978  42.9830014 101.8814472 100.5650806  43.5694891
 107.7069992  98.0629978  50.4140014 107.0299992  98.1939978  51.0770014
 107.2219992  97.9079978  49.6030014 107.5487405  98.0599947  50.3952170
 100.4569992 101.6509978  41.1990014  99.9149992 101.2719978  40.5080014
 101.2909992 101.8459978  40.7710014 100.4954390 101.6254079  41.0464392
 110.9949992 113.7339978  56.6900014 111.1939992 114.1579978  55.8560014
 111.6499992 114.0779978  57.2970014 111.1108522 113.8386301  56.6577852
  98.5929992 106.2079978  56.2980014  99.3249992 106.4629978  56.8600014
  97.8119992 106.4129978  56.8140014  98.5876526 106.2705450  56.4445176
 104.6219992 101.6149978  49.0360014 105.1859992 101.0689978  48.4890014
 104.4739992 101.0939978  49.8250014 104.6793037 101.4696787  49.0677229
  99.6239992  97.7519978  45.4550014  99.3069992  96.8489978  45.4190014
 100.4049992  97.7539978  44.9020014  99.6862431  97.6287797  45.3753102
 103.2479992 100.0039978  51.4500014 102.4129992 100.4579978  51.5610014
 103.7719992 100.2799978  52.2020014 103.2046072 100.1033948  51.5668136
 103.7929992 106.2169978  43.1350014 103.0479992 105.7089978  42.8130014
 103.6579992 106.2659978  44.0810014 103.6728963 106.1541731  43.2188826
 110.9429992 105.3499978  51.9220014 111.5839992 105.8059978  51.3780014
 110.1119992 105.4629978  51.4590014 110.9185287 105.4276921  51.7849887
 107.6899992  99.0309978  41.3340014 106.7519992  99.1419978  41.1830014
 107.9879992  99.8869978  41.6410014 107.6016318  99.1620158  41.3548145
 105.3119992 106.4009978  54.3720014 104.9659992 106.0189978  55.1790014
 105.1119992 107.3339978  54.4430014 105.2375987 106.4749002  54.4920461
 108.4089992 100.8979978  42.9950014 109.3009992 100.7599978  43.3140014
 108.4649992 101.6889978  42.4580014 108.5387325 100.9859918  42.9661217
  98.9169992 105.5119978  48.9050014  99.6619992 105.5089978  48.3030014
  98.9949992 104.6879978  49.3860014  99.0293365 105.4002384  48.8877430
 105.9179992 107.6749978  42.1600014 105.6229992 108.5019978  42.5420014
 105.2149992 107.0559978  42.3570014 105.7826379 107.7044171  42.2388654
  95.9249992 103.9719978  54.2200014  96.1479992 103.5539978  55.0510014
  95.3229992 103.3599978  53.7970014  95.8741513 103.8319606  54.2766740
 102.9419992 103.4889978  56.4330014 102.6459992 103.3239978  55.5370014
 103.8729992 103.2689978  56.4220014 103.0274401 103.4366879  56.3090206
 107.5619992 108.8629978  54.3220014 106.6619992 109.0459978  54.0550014
 107.5959992 109.1219978  55.2430014 107.4433748 108.9230554  54.4099164
 113.2939992 101.1069978  42.6900014 112.7389992 100.7109978  42.0170014
 113.3939992 102.0179978  42.4120014 113.2316816 101.1759505  42.5605033
 113.2569992 106.9079978  55.5270014 112.4059992 107.1459978  55.1590014
 113.8469992 106.8909978  54.7740014 113.2203812 106.9382524  55.3748453
 111.5889992 109.8929978  43.1550014 111.2159992 109.0679978  43.4640014
 111.8659992 109.7099978  42.2570014 111.5753463 109.7552569  43.0759525
 108.7489992 104.7009978  50.1760014 107.8209992 104.4699978  50.1490014
 109.1999992 103.9239978  49.8460014 108.6828165 104.5642774  50.1276790
 101.2919992 109.0299978  46.3090014 101.8199992 109.8029978  46.1090014
 100.4119992 109.2539978  46.0070014 101.2453435 109.1662700  46.2407310
  97.0469992 103.8919978  40.8960014  97.6629992 104.5189978  41.2760014
  96.1849992 104.2079978  41.1680014  97.0147678 104.0204412  40.9847209
 102.7199992 106.6929978  45.8850014 102.4789992 107.6179978  45.9270014
 101.9789992 106.2339978  46.2820014 102.5869206 106.7575915  45.9443769
 103.2339992 110.8419978  52.2000014 103.5969992 111.6959978  51.9670014
 103.7659992 110.5499978  52.9410014 103.3555141 110.9193895  52.2682097
 101.4029992 111.7139978  45.4310014 100.4529992 111.8199978  45.4820014
 101.7549992 112.5349978  45.7750014 101.3205472 111.8394923  45.4844852
 106.7779992 106.9409978  51.9010014 106.3529992 106.7129978  52.7270014
 107.3589992 106.2019978  51.7190014 106.7983395 106.8099545  51.9894414
 108.9809992 107.8699978  40.9750014 109.3349992 107.4899978  41.7790014
 108.0329992 107.7759978  41.0620014 108.9012298 107.8052452  41.0968687
 109.4369992 111.4929978  54.3700014 108.8349992 110.9369978  53.8750014
 109.7179992 112.1599978  53.7440014 109.3925757 111.5070744  54.2175675
 113.4849992 112.3489978  41.1760014 114.2289992 112.9349978  41.0360014
 112.7909992 112.9179978  41.5090014 113.4929809 112.5060818  41.2018590
  97.5589992  98.7259978  53.7780014  96.6669992  99.0639978  53.7100014
  97.4609992  97.8699978  54.1960014  97.4234475  98.6566543  53.8251704
 109.8469992 106.5419978  43.2020014 109.5699992 105.8139978  43.7580014
 110.7749992 106.6609978  43.4070014 109.9344499 106.4584213  43.3058044
  97.2109992 110.5299978  52.2130014  97.4279992 109.5979978  52.1820014
  97.4569992 110.8049978  53.0960014  97.2739809 110.4395686  52.3281691
 103.0719992 108.9819978  39.4220014 103.3109992 108.2329978  38.8750014
 102.8029992 108.5939978  40.2550014 103.0683233 108.8271853  39.4597809
 102.0089992 108.5519978  41.8780014 102.1559992 108.0319978  42.6680014
 102.0059992 109.4589978  42.1850014 102.0287102 108.6033953  42.0275925
  98.4619992 105.8039978  42.3890014  97.7759992 106.1569978  42.9560014
  98.9849992 106.5669978  42.1420014  98.4388402 105.9553901  42.4331801
 106.2939992  98.4669978  52.6680014 106.9929992  98.5409978  53.3180014
 105.9129992  97.6019978  52.8220014 106.3382097  98.3602389  52.7777997
 107.0779992  98.1189978  43.7650014 107.2979992  98.5899978  42.9610014
 107.6369992  98.5129978  44.4350014 107.1836732  98.2367287  43.7455033
 104.7469992 110.2489978  42.6280014 103.9299992 110.7459978  42.6800014
 105.2759992 110.7249978  41.9870014 104.7068125 110.3811989  42.5485306
 104.2779992  99.8469978  44.6000014 105.0899992 100.3509978  44.6460014
 104.0339992  99.7019978  45.5140014 104.3561467  99.8963749  44.7298575
 104.8139992 100.8329978  53.7840014 104.9329992 101.4069978  54.5410014
 105.4689992 100.1449978  53.8990014 104.9188684 100.8185194  53.9031674
 105.1619992  96.9279978  45.5380014 104.8149992  97.5449978  46.1820014
 105.8209992  97.4289978  45.0560014 105.2035090  97.0801575  45.5610681
 102.0849992 111.2929978  42.6090014 102.2459992 112.0929978  42.1090014
 101.8879992 111.5999978  43.4940014 102.0803906 111.4438678  42.6602333
 100.8199992  97.9909978  42.2250014 100.7359992  98.8789978  42.5720014
 101.7099992  97.7259978  42.4570014 100.9288163  98.0767179  42.3038596
 111.0179992  98.7399978  54.6190014 110.1019992  99.0019978  54.5320014
 111.3539992  98.7369978  53.7230014 110.9378499  98.7755163  54.4858766
 109.6209992 102.4899978  48.7150014 108.8229992 102.0749978  48.3870014
 110.0659992 101.7999978  49.2060014 109.5719684 102.3398628  48.7365227
  99.0779992 108.4179978  41.2850014  99.6699992 109.1179978  41.5620014
  99.5369992 107.9849978  40.5660014  99.2211652 108.4552675  41.2256533
  97.3939992 101.0829978  40.4010014  97.3489992 102.0219978  40.5800014
  96.5059992 100.8469978  40.1320014  97.2678166 101.1796687  40.3891524
 110.7069992 111.7459978  50.3370014 110.5509992 112.4249978  49.6800014
 111.6399992 111.8179978  50.5400014 110.8117387 111.8486390  50.2745342
  98.2019992  95.8639978  49.0750014  97.9729992  95.9229978  48.1470014
  97.7599992  95.0729978  49.3810014  98.1108801  95.7650540  48.9894729
  97.1329992 109.8049978  45.2350014  96.2999992 110.2769978  45.2620014
  97.6779992 110.3149978  44.6360014  97.0927857 109.9384791  45.1577142
  96.4209992 112.4169978  56.5650014  96.9609992 112.2009978  57.3250014
  95.9399992 111.6119978  56.3750014  96.4299219 112.2785156  56.6434282
 101.0179992 111.3369978  58.1850014 101.7859992 110.8779978  58.5260014
 100.9969992 111.1109978  57.2550014 101.1202135 111.2436668  58.1059491
 105.1099992 110.8449978  39.5610014 104.4659992 110.2139978  39.8820014
 105.8719992 110.3139978  39.3290014 105.1248058 110.6867902  39.5736038
 107.5949992 109.7169978  56.9140014 107.2439992 108.8599978  57.1580014
 108.3209992 109.8589978  57.5210014 107.6451895 109.6191351  57.0293770
 109.7149992 110.6619978  39.7940014 109.9979992 109.8669978  40.2470014
 110.4539992 110.8949978  39.2330014 109.8537096 110.5847049  39.7801104
  96.3279992 106.2279978  57.5190014  96.4719992 105.3259978  57.2330014
  95.5559992 106.5139978  57.0320014  96.2432733 106.1431798  57.4139532
 100.6689992 106.5709978  39.6520014 100.7339992 105.7769978  40.1820014
 101.3219992 106.4529978  38.9620014 100.7661605 106.4463430  39.6312997
 102.9829992 106.1969978  56.9520014 102.6549992 106.4679978  56.0950014
 103.1349992 105.2559978  56.8640014 102.9586412 106.1069046  56.8227822
 106.0219992 107.6179978  39.3880014 105.7529992 107.7989978  40.2880014
 105.8149992 106.6929978  39.2560014 105.9571191 107.5177119  39.4935524
 108.7179992 106.1129978  54.3350014 109.4629992 106.7019978  54.2160014
 107.9609992 106.6949978  54.3990014 108.7175470 106.2722128  54.3273799
  97.1609992 103.4279978  56.9390014  97.5689992 102.5709978  56.8180014
  96.8999992 103.4419978  57.8600014  97.1816016 103.3125119  57.0469192
 101.8189992 104.5439978  41.9580014 101.3589992 104.0599978  42.6430014
 102.0739992 103.8749978  41.3220014 101.7904856 104.3873669  41.9658397
 101.1079992 102.4369978  54.3140014 100.4889992 103.1109978  54.5940014
 101.4519992 102.7579978  53.4800014 101.0697123 102.5726887  54.2396388
 102.8899992 102.7869978  40.2200014 102.7089992 102.6319978  39.2930014
 103.8399992 102.8949978  40.2650014 102.9936566 102.7803669  40.0990929
 106.1269992 104.9079978  57.5910014 107.0809992 104.9919978  57.5640014
 105.9669992 104.1959978  58.2110014 106.2357182 104.8232842  57.6710733
 112.2799992 105.1409978  39.6660014 112.0059992 104.7169978  38.8530014
 112.3189992 106.0729978  39.4490014 112.2477716 105.2088827  39.5254286
 101.4469992  99.7919978  55.3960014 101.5969992  99.0629978  54.7940014
 101.4489992 100.5689978  54.8370014 101.4677967  99.7972708  55.2380541
 101.8599992  98.1609978  52.8890014 102.3949992  98.6129978  52.2370014
 101.0069992  98.0529978  52.4660014 101.8180374  98.2082665  52.7426710
 103.4409992 103.6009978  53.1280014 104.1919992 103.4449978  52.5550014
 103.1019992 104.4529978  52.8530014 103.4979587 103.6948138  53.0124078
 107.8569992 101.4159978  58.1570014 108.0489992 100.4849978  58.0450014
 108.7149992 101.8409978  58.1460014 107.9992182 101.3460070  58.1401862
 109.1739992 104.2049978  56.2340014 108.8919992 104.9139978  55.6560014
 110.1159992 104.1319978  56.0830014 109.2627921 104.2922193  56.1344225
  99.9259992 100.9899978  57.3070014  99.1579992 100.4569978  57.0970014
 100.6039992 100.6799978  56.7080014  99.9127235 100.8751754  57.1972413
 102.6649992  95.6179978  53.3200014 102.5669992  96.5639978  53.2150014
 101.9229992  95.2449978  52.8440014 102.5512534  95.6971773  53.2412600
 103.9289992  99.9389978  56.8840014 103.6939992  99.7199978  57.7850014
 103.1459992  99.7319978  56.3740014 103.7909095  99.8809892  56.9385353
 106.6449992  99.0669978  55.9590014 105.6969992  99.0989978  56.0910014
 106.9569992  98.4409978  56.6130014 106.5575293  98.9867923  56.0654148
 108.2789992  97.7009978  57.9640014 108.1819992  96.7489978  57.9590014
 107.9569992  97.9689978  58.8250014 108.2222468  97.6070884  58.0796210
  98.1059992  98.9099978  57.0120014  98.3179992  98.2039978  56.4020014
  97.9949992  98.4729978  57.8560014  98.1200269  98.7541921  57.0425873
 102.8869992  94.9119978  55.9910014 103.5989992  94.2719978  55.9770014
 102.7859992  95.1779978  55.0780014 102.9707387  94.8604330  55.8655563
 103.2409992  96.5939978  58.0450014 103.1089992  96.1189978  57.2250014
 102.6409992  97.3389978  57.9900014 103.1419070  96.6295789  57.9253251
 102.7869992 113.4769978  41.2210014 103.7199992 113.6349978  41.3650014
 102.5229992 114.1529978  40.5960014 102.8789911 113.5899373  41.1562722
  96.3549992 108.1139978  40.7040014  97.2689992 108.1929978  40.9770014
  96.3629992 107.4269978  40.0380014  96.4810655 108.0319205  40.6512917
  95.0039992 113.5069978  45.7810014  94.3569992 113.0449978  45.2490014
  95.3589992 112.8349978  46.3640014  94.9633741 113.3529774  45.7869175
  95.8739992 111.5869978  47.5860014  95.5399992 110.7069978  47.7580014
  96.0969992 111.9329978  48.4510014  95.8583721 111.5131938  47.7264168
 113.4229992 112.3969978  50.5670014 113.4009992 112.5819978  51.5060014
 114.1129992 112.9649978  50.2260014 113.5133439 112.4991887  50.6494791
 112.9859992 111.9639978  53.4880014 112.4989992 111.2289978  53.1170014
 113.5349992 111.5699978  54.1660014 112.9935247 111.8101057  53.5288461
 111.4369992 107.7539978  58.1270014 110.5709992 107.6489978  58.5210014
 111.8129992 108.5119978  58.5730014 111.3693401 107.8421708  58.2412620
 112.7379992 106.0099978  43.6410014 113.5879992 106.4309978  43.7680014
 112.7429992 105.2699978  44.2480014 112.8551143 105.9676094  43.7404750
 113.1319992 104.0639978  45.4640014 112.4059992 103.5839978  45.8620014
 113.7139992 104.2689978  46.1970014 113.1112730 104.0260184  45.6174149
 112.8909992 106.8489978  50.4120014 113.7249992 106.4709978  50.1310014
 113.0029992 107.7919978  50.2930014 113.0201917 106.9247943  50.3574861
 111.3779992 109.7269978  52.7190014 110.7299992 110.0519978  53.3440014
 110.8599992 109.2859978  52.0450014 111.2194196 109.7118651  52.7134152
 113.4009992 103.9649978  41.8550014 112.8789992 104.3209978  41.1370014
 113.3679992 104.6399978  42.5340014 113.3250129 104.1049598  41.8483355
 111.7499992 101.2039978  40.4060014 111.8459992 101.8709978  39.7260014
 111.6099992 100.3889978  39.9250014 111.7442040 101.1850671  40.2478378
 110.9189992 102.5849978  46.0270014 110.7689992 101.6399978  46.0070014
 110.5649992 102.8659978  46.8710014 110.8506351 102.4936644  46.1383220
  95.9539992 104.6629978  50.0380014  96.1389992 104.5809978  49.1020014
  96.8039992 104.5389978  50.4610014  96.0940928 104.6350463  49.9672893
 111.7749992 104.5549978  55.6660014 112.3579992 103.8199978  55.8580014
 112.3389992 105.3269978  55.7130014 111.9309781 104.5588145  55.6986164
 113.2719992 102.4579978  56.3510014 112.4089992 102.0789978  56.1850014
 113.8759992 101.7189978  56.2760014 113.2356085 102.3063223  56.3181695
 110.9969992  98.6119978  39.5240014 111.6079992  98.2409978  40.1610014
 110.1599992  98.1909978  39.7200014 110.9674947  98.5042756  39.6377252
 110.6299992 100.1669978  44.4900014 110.9089992  99.2599978  44.6140014
 111.3889992 100.6009978  44.1010014 110.7708619 100.1014502  44.4543795
 111.2409992 100.7489978  49.9260014 112.1739992 100.9609978  49.8910014
 111.0059992 100.8499978  50.8480014 111.3369517 100.7916833  50.0459130
 111.2709992 101.4859978  52.7020014 110.4279992 101.7539978  53.0680014
 111.7129992 102.3079978  52.4910014 111.2154138 101.6338273  52.7235518
  95.5519992  99.9329978  56.1780014  96.4709992  99.8109978  56.4150014
  95.1019992  99.1829978  56.5680014  95.6170087  99.8149608  56.2631410
 113.5539992  95.4659978  58.0550014 113.9029992  94.8119978  57.4500014
 113.7009992  96.3029978  57.6150014 113.6216824  95.4896024  57.9126304
 111.2429992  97.4299978  44.5380014 111.4249992  96.9809978  45.3630014
 110.6429992  96.8459978  44.0740014 111.1868187  97.2895552  44.5882739
  96.7729992  98.2459978  49.0700014  97.2179992  97.4539978  49.3720014
  97.2389992  98.9619978  49.5000014  96.8969718  98.2344534  49.1695265
  95.0769992 101.2449978  50.1390014  95.5689992 101.0239978  49.3480014
  95.4389992 102.0849978  50.4200014  95.1932923 101.3283468  50.0687407
 113.0729992  97.5749978  56.4040014 112.1559992  97.8459978  56.3690014
 113.1959992  97.0399978  55.6200014 112.9639672  97.5397885  56.2931862
 113.1099992  97.4979978  41.0660014 113.5219992  96.7769978  40.5910014
 113.7909992  98.1669978  41.1240014 113.2585536  97.4897766  41.0088024
  95.3909992  97.5029978  44.1930014  94.4659992  97.7109978  44.0640014
  95.8449992  97.9869978  43.5030014  95.3256298  97.5969299  44.0820451
 110.1609992 112.4869978  46.1390014 110.8139992 112.1389978  45.5310014
 110.6719992 112.9749978  46.7850014 110.3192777 112.5053815  46.1432047
  95.3539992  96.2409978  52.5370014  94.6889992  95.9949978  53.1800014
  94.9109992  96.8629978  51.9600014  95.2031168  96.2914214  52.5469848
  97.5459992 109.4159978  56.6820014  96.7249992 109.5909978  56.2210014
  97.2939992 109.3429978  57.6020014  97.3995594 109.4300717  56.7433611
 100.4999992 110.3899978  52.9400014 100.0759992 111.1999978  52.6580014
 101.4049992 110.4759978  52.6380014 100.5642138 110.5124160  52.8606415
 104.8119992 111.7889978  55.9000014 104.9959992 111.4559978  56.7780014
 105.6579992 112.0989978  55.5780014 104.9516484 111.7852979  55.9767617
 107.1569992 113.0749978  55.1440014 107.8339992 112.4419978  54.9040014
 107.4779992 113.4759978  55.9510014 107.2931323 113.0425691  55.2203158
 112.0739992  95.6649978  54.2230014 111.2609992  95.9899978  53.8360014
 112.3069992  94.9039978  53.6900014 111.9941347  95.6066880  54.0979841
  97.9019992 113.6469978  52.9880014  97.1819992 114.0869978  52.5370014
  97.5369992 113.3959978  53.8360014  97.7539643 113.6733369  53.0409129
 100.3689992 113.2469978  52.0180014  99.5049992 113.3189978  52.4220014
 100.3139992 113.7939978  51.2340014 100.2431942 113.3307849  51.9674000
 105.0799992 113.1349978  51.1930014 104.6229992 113.6639978  50.5390014
 105.2429992 113.7379978  51.9180014 105.0394960 113.2889280  51.2015274
 107.4079992 112.0129978  52.1380014 106.5029992 112.1779978  51.8720014
 107.8359992 112.8659978  52.0720014 107.3421537 112.1509134  52.0927095
 110.0119992 113.5829978  52.4330014 109.8299992 114.4989978  52.2220014
 110.1889992 113.1719978  51.5860014 110.0110030 113.6528273  52.2897166
  97.3169992 112.2699978  49.8980014  97.2989992 111.8439978  50.7550014
  98.1219992 111.9509978  49.4890014  97.4232875 112.1686435  49.9599515
  99.4579992 110.9799978  48.5530014  99.2389992 110.0629978  48.7230014
 100.2819992 111.1199978  49.0190014  99.5394702 110.8735511  48.6392527
 101.9949992 111.4499978  49.4020014 102.2079992 110.5619978  49.1150014
 102.0599992 111.4149978  50.3560014 102.0329149 111.3238326  49.4917369
 105.5039992  97.1139978  48.5460014 104.8299992  96.4839978  48.8020014
 106.0679992  96.6299978  47.9430014 105.4880384  96.9623708  48.4995020
 110.6469992  95.2209978  48.6590014 111.2499992  95.7689978  48.1570014
 109.7769992  95.5399978  48.4180014 110.6119157  95.3390373  48.5577910
 112.3739992  96.3599978  46.9920014 112.9849992  95.8459978  46.4650014
 112.7559992  97.2369978  47.0150014 112.5093305  96.4082050  46.9229418
  97.8309992  95.7479978  46.3680014  97.0539992  95.5129978  45.8610014
  98.3609992  94.9509978  46.3770014  97.7963451  95.6081268  46.2998627
  96.6669992  95.5459978  42.1720014  97.1059992  96.1569978  41.5800014
  96.0329992  96.0839978  42.6460014  96.6413859  95.7024064  42.1550305
 102.4099992  95.6739978  46.1810014 103.2839992  96.0629978  46.1520014
 102.2739992  95.4589978  47.1040014 102.5111953  95.6981643  46.3017617
 107.9669992  95.7039978  47.8310014 108.0429992  95.7999978  46.8810014
 107.6919992  94.7969978  47.9590014 107.9401871  95.5944146  47.7183944
 109.3199992  95.7299978  43.5230014 108.6169992  96.3449978  43.3130014
 108.8749992  94.8929978  43.6540014 109.1636550  95.7009668  43.5119837
  96.5679992 111.4939978  43.0690014  95.8829992 111.4559978  42.4020014
  96.5719992 112.4069978  43.3570014  96.4747621 111.6121924  43.0166126
  98.5279992  97.4619978  40.6140014  99.0189992  96.8319978  40.0870014
  99.1509992  97.7579978  41.2770014  98.6795304  97.4157376  40.6314940
 103.5539992  97.7549978  43.0710014 103.7319992  97.1079978  43.7540014
 103.4999992  98.5889978  43.5380014 103.5710678  97.7791604  43.2276301
 105.4319992 112.7029978  41.4670014 106.2979992 113.0699978  41.2890014
 105.1859992 112.2639978  40.6530014 105.5172097 112.6938525  41.3326019
 112.1409992 112.2659978  44.1460014 111.9469992 111.5179978  43.5810014
 112.1019992 113.0239978  43.5630014 112.1091645 112.2660786  43.9898148
  97.7879992  96.2619978  55.8860014  97.4219992  95.4959978  56.3280014
  98.7009992  96.2909978  56.1720014  97.8613172  96.1610324  55.9851890
  99.7609992  95.6119978  57.4210014 100.6599992  95.3379978  57.2370014
  99.3749992  94.8699978  57.8860014  99.8317307  95.4742196  57.4587098
  98.3859992 112.4139978  40.0940014  98.1179992 112.6999978  40.9680014
  99.1569992 111.8679978  40.2470014  98.4535926 112.3792779  40.2341205
 108.1829992  94.9449978  57.6040014 108.2589992  94.5189978  58.4570014
 109.0759992  94.9579978  57.2610014 108.3142303  94.8883493  57.6745497
 111.3589992 111.0179978  56.2960014 110.5769992 110.8309978  55.7760014
 111.2869992 111.9469978  56.5130014 111.2421924 111.1180637  56.2541602
 125.7649992 104.9039978  46.3270014 125.8539992 105.8479978  46.1950014
 125.1269992 104.6289978  45.6690014 125.6909062 104.9959812  46.2199641
 124.6979992 104.1589978  49.7460014 124.6599992 103.5129978  50.4510014
 124.3759992 103.6919978  48.9750014 124.6492679 104.0074276  49.7382921
 117.0659992 103.7729978  51.3390014 117.1079992 103.1479978  52.0620014
 117.7689992 104.3969978  51.5210014 117.1667345 103.7717873  51.4625273
 128.4039992 107.0979978  48.0470014 127.9629992 106.3779978  48.4980014
 128.3909992 107.8189978  48.6770014 128.3419215 107.0969291  48.1938105
 117.9899992 108.2229978  49.8740014 117.6199992 107.4209978  49.5040014
 118.9309992 108.0549978  49.9200014 118.0665984 108.0904638  49.8295603
 114.5999992 101.8829978  45.2660014 114.1519992 102.7289978  45.2480014
 114.0389992 101.3039978  44.7510014 114.4628546 101.9203993  45.1938891
 115.3099992 104.0449978  47.3920014 115.5239992 103.2749978  47.9200014
 116.0479992 104.1349978  46.7890014 115.4390200 103.9518587  47.3827035
 125.5159992 112.2019978  48.2590014 126.1349992 111.5259978  47.9860014
 125.3069992 111.9839978  49.1680014 125.5726056 112.0798869  48.3443967
 123.0869992 106.5909978  50.1520014 123.3909992 105.9049978  49.5570014
 123.8089992 106.7099978  50.7700014 123.2261240 106.5132314  50.1540959
 131.7499992  98.1929978  51.0120014 131.7999992  98.8029978  51.7480014
 132.1759992  98.6539978  50.2890014 131.8144108  98.3387709  51.0150112
 126.2279992 100.9849978  50.4790014 126.3709992 100.0389978  50.4990014
 126.1219992 101.1919978  49.5510014 126.2332403 100.8834797  50.3562239
 119.3829992  99.0869978  47.7520014 119.4259992  99.9469978  47.3330014
 118.9249992  98.5349978  47.1180014 119.3269871  99.1299245  47.6090761
 127.1049992  99.2179978  46.1530014 127.7519992  98.8889978  46.7770014
 127.6149992  99.7349978  45.5300014 127.2624351  99.2429067  46.1541037
 116.0029992 101.4839978  48.5140014 116.6569992 100.9339978  48.9460014
 116.0269992 101.2099978  47.5970014 116.0957199 101.3717167  48.4491668
 121.1599992 103.0339978  47.7290014 121.7759992 102.5069978  48.2380014
 120.5729992 102.3939978  47.3250014 121.1650154 102.8753954  47.7440945
 132.1419992  99.6709978  53.2480014 131.4529992 100.3289978  53.1530014
 132.1569992  99.4729978  54.1850014 132.0497756  99.7342603  53.3615812
 118.1929992  98.0049978  51.8260014 117.9739992  98.5349978  51.0590014
 117.5249992  98.2309978  52.4730014 118.0726975  98.1080967  51.8085140
 125.5619992 107.5049978  45.3700014 125.2669992 107.1819978  44.5180014
 125.2379992 108.4049978  45.4110014 125.4778460 107.5824464  45.2589714
 120.7619992 105.6799978  52.1130014 120.0219992 106.2789978  52.2170014
 121.4759992 106.2339978  51.7980014 120.7573500 105.8367829  52.0846371
 128.8689992  98.5089978  48.1330014 128.6539992  97.7429978  48.6660014
 129.5249992  98.9809978  48.6460014 128.9282673  98.4680728  48.2751990
 117.7869992  99.8969978  49.7780014 118.4009992 100.5299978  50.1510014
 118.2989992  99.4249978  49.1220014 117.9401962  99.9197249  49.7402935
 119.1699992 107.6449978  52.9000014 119.1639992 108.5239978  52.5220014
 118.3159992 107.5609978  53.3250014 119.0537925 107.7539535  52.9056887
 115.2909992 107.3159978  43.6820014 115.0189992 107.5449978  42.7940014
 115.3359992 108.1529978  44.1430014 115.2598097 107.4606163  43.6226683
 128.9159992 108.9369978  50.3950014 127.9739992 108.9959978  50.5570014
 129.1919992 109.8429978  50.2580014 128.8245865 109.0675288  50.3986192
 129.2159992  97.2239978  51.8120014 128.4799992  97.8339978  51.7750014
 129.8999992  97.6389978  51.2860014 129.2075367  97.3637551  51.7358174
 122.2199992  95.3099978  49.2780014 122.1019992  94.3619978  49.2240014
 121.3649992  95.6429978  49.5510014 122.0882805  95.2252202  49.3075079
 127.1679992 110.7179978  47.0200014 127.5929992 110.0109978  46.5350014
 127.4849992 111.5199978  46.6030014 127.2690266 110.7295190  46.8972479
 128.3279992 108.6189978  45.5290014 128.0699992 107.9289978  44.9170014
 128.3989992 108.1759978  46.3740014 128.3023050 108.4646814  45.5595621
 130.0139992 107.1859978  54.0060014 130.1529992 106.5939978  53.2670014
 130.1809992 108.0589978  53.6500014 130.0556193 107.2228896  53.8566211
 124.4859992 104.1479978  43.7790014 123.7749992 104.6829978  43.4270014
 125.1769992 104.2029978  43.1190014 124.4820751 104.2286777  43.6415858
 124.5399992 102.6049978  40.8170014 125.2409992 102.6279978  41.4690014
 124.8419992 101.9769978  40.1610014 124.6768202 102.5232212  40.8175609
 131.8549992 103.5259978  52.0720014 131.2029992 104.2199978  52.1610014
 132.3209992 103.7359978  51.2620014 131.8285937 103.6495019  51.9747533
 127.8919992 104.3569978  44.7300014 127.1599992 104.5859978  45.3040014
 128.3389992 103.6439978  45.1850014 127.8523963 104.2918729  44.8699945
 127.7889992 102.5319978  53.7980014 127.8689992 103.2949978  54.3700014
 127.1879992 102.8109978  53.1080014 127.7186547 102.6742457  53.7830047
 119.5369992 104.9879978  46.6130014 119.2069992 104.6169978  45.7950014
 120.1259992 104.3169978  46.9600014 119.5713970 104.8466063  46.5479404
 120.9039992 108.4159978  49.2940014 120.8089992 107.8369978  48.5380014
 121.6329992 108.0449978  49.7900014 120.9896011 108.2865561  49.2576028
 119.9039992 103.7559978  50.2460014 120.4689992 103.8779978  49.4840014
 120.2229992 104.3939978  50.8850014 120.0244166 103.8588791  50.2280348
 126.2129992 109.2599978  50.9800014 125.9729992 109.9219978  51.6280014
 126.0149992 108.4249978  51.4050014 126.1533826 109.2378115  51.1261566
 120.7839992 108.1559978  54.9640014 120.4729992 108.9379978  55.4190014
 120.1339992 108.0029978  54.2780014 120.6535538 108.2424087  54.9335898
 126.7629992 103.5199978  42.4160014 127.3419992 103.6699978  43.1620014
 127.1769992 103.9899978  41.6920014 126.8983358 103.6040955  42.4203953
 117.7039992 104.3539978  54.1920014 117.7739992 105.0049978  54.8910014
 116.8129992 104.4569978  53.8570014 117.5931690 104.4569249  54.2423043
 124.4889992 110.2559978  45.8510014 124.9629992 110.5519978  46.6280014
 123.9259992 110.9949978  45.6180014 124.4777890 110.3963036  45.9258101
 119.0229992 110.2269978  55.7270014 119.0309992 110.0909978  54.7800014
 118.1069992 110.1099978  55.9790014 118.9002528 110.1925463  55.6313243
 130.4619992  95.2699978  42.2290014 129.5619992  95.4089978  42.5240014
 130.7139992  96.1009978  41.8270014 130.3728683  95.4014055  42.2150232
 118.5279992 104.0569978  44.2020014 118.2359992 104.8249978  43.7110014
 117.8529992 103.3979978  44.0390014 118.3968497 104.0729745  44.1128260
 131.6509992 109.6359978  40.6050014 131.7239992 110.5749978  40.7750014
 132.5559992 109.3309978  40.5490014 131.7834170 109.7233282  40.6207063
 114.6209992 106.4199978  53.0170014 114.1189992 106.3919978  52.2020014
 114.6259992 105.5149978  53.3270014 114.5529832 106.2937486  52.9474121
 114.3709992 109.2009978  49.9010014 115.3169992 109.0559978  49.8820014
 114.2579992 109.9849978  50.4380014 114.4853578 109.2871697  49.9710317
 132.5689992 109.8669978  55.5840014 132.5189992 108.9109978  55.5460014
 131.7419992 110.1339978  55.9850014 132.4503831 109.7724680  55.6330121
 123.5469992 109.4409978  54.4600014 123.6349992 110.2669978  54.9350014
 122.6839992 109.1109978  54.7090014 123.4423357 109.5095468  54.5587653
 123.9619992 113.2129978  44.2660014 123.8859992 113.0919978  43.3190014
 123.9939992 114.1619978  44.3840014 123.9559380 113.3247677  44.1525181
 117.6149992 112.0019978  46.0470014 117.7669992 111.6539978  46.9250014
 116.7639992 111.6449978  45.7910014 117.5208344 111.9060879  46.1326868
 127.0629992 112.3669978  41.2680014 127.4379992 111.6229978  40.7970014
 127.0679992 112.0969978  42.1860014 127.1150098 112.2286392  41.3276629
 126.7319992 112.2929978  44.0170014 125.7969992 112.3929978  44.1960014
 127.0119992 111.5829978  44.5960014 126.6419471 112.2107933  44.1196695
 129.7209992 101.3599978  56.0640014 129.3129992 101.8399978  55.3430014
 129.7609992 100.4539978  55.7560014 129.6706221 101.3032449  55.9238267
 116.8699992 107.7439978  54.0600014 117.0859992 107.3819978  54.9200014
 116.0139992 107.3689978  53.8510014 116.7838810 107.6438837  54.1492680
 119.4879992  96.2139978  50.0560014 118.6269992  96.1269978  49.6480014
 119.4659992  97.0699978  50.4840014 119.3670491  96.3178003  50.0579582
 124.1509992  95.9359978  53.4310014 124.5709992  95.5209978  54.1840014
 123.2179992  95.7569978  53.5480014 124.0823736  95.8549910  53.5498968
 127.4779992  99.6909978  54.2840014 126.9639992  99.5659978  55.0820014
 127.3219992 100.6039978  54.0400014 127.3866967  99.7972123  54.3600937
 128.2399992 104.5519978  40.0450014 128.2819992 104.3299978  39.1150014
 129.0889992 104.9509978  40.2350014 128.3605253 104.5755498  39.9433822
 123.8129992  98.4279978  40.7160014 123.5589992  98.4469978  41.6380014
 123.5559992  97.5569978  40.4140014 123.7434508  98.3128280  40.8014803
 119.5789992 101.1789978  51.1510014 118.9379992 101.1389978  51.8600014
 119.6169992 102.1059978  50.9130014 119.4963010 101.2987668  51.2159946
 119.5759992 101.3999978  46.0630014 118.6839992 101.0599978  46.0040014
 120.0269992 101.0229978  45.3070014 119.5147642 101.3024910  45.9527726
 125.1119992 101.8159978  44.8800014 124.7029992 102.6309978  44.5880014
 125.8319992 101.6759978  44.2660014 125.1534439 101.9085372  44.7570115
 124.2139992 101.9919978  56.3680014 123.6509992 101.2869978  56.6890014
 125.0399992 101.8709978  56.8360014 124.2486674 101.8792165  56.4751751
 126.1169992 101.2619978  47.6940014 125.9209992 101.8679978  46.9790014
 126.2979992 100.4289978  47.2600014 126.1146584 101.2322513  47.5374212
 117.3289992 101.4999978  53.0180014 117.2909992 101.8999978  53.8870014
 116.8389992 100.6829978  53.1080014 117.2575330 101.4442674  53.1491289
 120.6949992  98.8739978  39.8170014 120.2639992  98.4289978  40.5460014
 119.9769992  99.2449978  39.3040014 120.5389176  98.8632051  39.8474930
 113.9379992  98.6159978  46.8690014 114.5679992  98.5869978  47.5880014
 114.3869992  98.1909978  46.1380014 114.0850835  98.5545660  46.8687659
 115.2119992  99.3619978  42.2930014 115.6859992  99.9529978  41.7080014
 114.4939992  99.8919978  42.6400014 115.1798640  99.5145511  42.2597969
 125.3809992 102.8999978  52.3650014 125.7039992 102.2689978  51.7220014
 124.9399992 102.3659978  53.0260014 125.3656379 102.7413468  52.3662582
 122.1579992  98.8279978  47.1490014 121.2469992  98.8849978  47.4380014
 122.6629992  98.7679978  47.9600014 122.1016873  98.8276826  47.2981207
 116.9859992 100.4569978  45.9760014 116.0969992 100.5559978  45.6360014
 117.2829992  99.6149978  45.6300014 116.9044177 100.3567687  45.8826940
 120.6389992 100.4569978  43.6330014 121.5709992 100.5859978  43.8110014
 120.4239992 101.1259978  42.9830014 120.7374472 100.5650806  43.5694891
 126.5629992  98.0629978  50.4140014 125.8859992  98.1939978  51.0770014
 126.0779992  97.9079978  49.6030014 126.4047405  98.0599947  50.3952170
 119.3129992 101.6509978  41.1990014 118.7709992 101.2719978  40.5080014
 120.1469992 101.8459978  40.7710014 119.3514390 101.6254079  41.0464392
 129.8509992 113.7339978  56.6900014 130.0499992 114.1579978  55.8560014
 130.5059992 114.0779978  57.2970014 129.9668522 113.8386301  56.6577852
 117.4489992 106.2079978  56.2980014 118.1809992 106.4629978  56.8600014
 116.6679992 106.4129978  56.8140014 117.4436526 106.2705450  56.4445176
 123.4779992 101.6149978  49.0360014 124.0419992 101.0689978  48.4890014
 123.3299992 101.0939978  49.8250014 123.5353037 101.4696787  49.0677229
 118.4799992  97.7519978  45.4550014 118.1629992  96.8489978  45.4190014
 119.2609992  97.7539978  44.9020014 118.5422431  97.6287797  45.3753102
 122.1039992 100.0039978  51.4500014 121.2689992 100.4579978  51.5610014
 122.6279992 100.2799978  52.2020014 122.0606072 100.1033948  51.5668136
 122.6489992 106.2169978  43.1350014 121.9039992 105.7089978  42.8130014
 122.5139992 106.2659978  44.0810014 122.5288963 106.1541731  43.2188826
 129.7989992 105.3499978  51.9220014 130.4399992 105.8059978  51.3780014
 128.9679992 105.4629978  51.4590014 129.7745287 105.4276921  51.7849887
 126.5459992  99.0309978  41.3340014 125.6079992  99.1419978  41.1830014
 126.8439992  99.8869978  41.6410014 126.4576318  99.1620158  41.3548145
 124.1679992 106.4009978  54.3720014 123.8219992 106.0189978  55.1790014
 123.9679992 107.3339978  54.4430014 124.0935987 106.4749002  54.4920461
 127.2649992 100.8979978  42.9950014 128.1569992 100.7599978  43.3140014
 127.3209992 101.6889978  42.4580014 127.3947325 100.9859918  42.9661217
 117.7729992 105.5119978  48.9050014 118.5179992 105.5089978  48.3030014
 117.8509992 104.6879978  49.3860014 117.8853365 105.4002384  48.8877430
 124.7739992 107.6749978  42.1600014 124.4789992 108.5019978  42.5420014
 124.0709992 107.0559978  42.3570014 124.6386379 107.7044171  42.2388654
 114.7809992 103.9719978  54.2200014 115.0039992 103.5539978  55.0510014
 114.1789992 103.3599978  53.7970014 114.7301513 103.8319606  54.2766740
 121.7979992 103.4889978  56.4330014 121.5019992 103.3239978  55.5370014
 122.7289992 103.2689978  56.4220014 121.8834401 103.4366879  56.3090206
 126.4179992 108.8629978  54.3220014 125.5179992 109.0459978  54.0550014
 126.4519992 109.1219978  55.2430014 126.2993748 108.9230554  54.4099164
 132.1499992 101.1069978  42.6900014 131.5949992 100.7109978  42.0170014
 132.2499992 102.0179978  42.4120014 132.0876816 101.1759505  42.5605033
 132.1129992 106.9079978  55.5270014 131.2619992 107.1459978  55.1590014
 132.7029992 106.8909978  54.7740014 132.0763812 106.9382524  55.3748453
 130.4449992 109.8929978  43.1550014 130.0719992 109.0679978  43.4640014
 130.7219992 109.7099978  42.2570014 130.4313463 109.7552569  43.0759525
 127.6049992 104.7009978  50.1760014 126.6769992 104.4699978  50.1490014
 128.0559992 103.9239978  49.8460014 127.5388165 104.5642774  50.1276790
 120.1479992 109.0299978  46.3090014 120.6759992 109.8029978  46.1090014
 119.2679992 109.2539978  46.0070014 120.1013435 109.1662700  46.2407310
 115.9029992 103.8919978  40.8960014 116.5189992 104.5189978  41.2760014
 115.0409992 104.2079978  41.1680014 115.8707678 104.0204412  40.9847209
 121.5759992 106.6929978  45.8850014 121.3349992 107.6179978  45.9270014
 120.8349992 106.2339978  46.2820014 121.4429206 106.7575915  45.9443769
 122.0899992 110.8419978  52.2000014 122.4529992 111.6959978  51.9670014
 122.6219992 110.5499978  52.9410014 122.2115141 110.9193895  52.2682097
 120.2589992 111.7139978  45.4310014 119.3089992 111.8199978  45.4820014
 120.6109992 112.5349978  45.7750014 120.1765472 111.8394923  45.4844852
 125.6339992 106.9409978  51.9010014 125.2089992 106.7129978  52.7270014
 126.2149992 106.2019978  51.7190014 125.6543395 106.8099545  51.9894414
 127.8369992 107.8699978  40.9750014 128.1909992 107.4899978  41.7790014
 126.8889992 107.7759978  41.0620014 127.7572298 107.8052452  41.0968687
 128.2929992 111.4929978  54.3700014 127.6909992 110.9369978  53.8750014
 128.5739992 112.1599978  53.7440014 128.2485757 111.5070744  54.2175675
 132.3409992 112.3489978  41.1760014 133.0849992 112.9349978  41.0360014
 131.6469992 112.9179978  41.5090014 132.3489809 112.5060818  41.2018590
 116.4149992  98.7259978  53.7780014 115.5229992  99.0639978  53.7100014
 116.3169992  97.8699978  54.1960014 116.2794475  98.6566543  53.8251704
 128.7029992 106.5419978  43.2020014 128.4259992 105.8139978  43.7580014
 129.6309992 106.6609978  43.4070014 128.7904499 106.4584213  43.3058044
 116.0669992 110.5299978  52.2130014 116.2839992 109.5979978  52.1820014
 116.3129992 110.8049978  53.0960014 116.1299809 110.4395686  52.3281690
 121.9279992 108.9819978  39.4220014 122.1669992 108.2329978  38.8750014
 121.6589992 108.5939978  40.2550014 121.9243233 108.8271853  39.4597809
 120.8649992 108.5519978  41.8780014 121.0119992 108.0319978  42.6680014
 120.8619992 109.4589978  42.1850014 120.8847102 108.6033953  42.0275925
 117.3179992 105.8039978  42.3890014 116.6319992 106.1569978  42.9560014
 117.8409992 106.5669978  42.1420014 117.2948402 105.9553901  42.4331801
 125.1499992  98.4669978  52.6680014 125.8489992  98.5409978  53.3180014
 124.7689992  97.6019978  52.8220014 125.1942097  98.3602389  52.7777997
 125.9339992  98.1189978  43.7650014 126.1539992  98.5899978  42.9610014
 126.4929992  98.5129978  44.4350014 126.0396731  98.2367287  43.7455033
 123.6029992 110.2489978  42.6280014 122.7859992 110.7459978  42.6800014
 124.1319992 110.7249978  41.9870014 123.5628125 110.3811989  42.5485306
 123.1339992  99.8469978  44.6000014 123.9459992 100.3509978  44.6460014
 122.8899992  99.7019978  45.5140014 123.2121467  99.8963749  44.7298575
 123.6699992 100.8329978  53.7840014 123.7889992 101.4069978  54.5410014
 124.3249992 100.1449978  53.8990014 123.7748684 100.8185194  53.9031674
 124.0179992  96.9279978  45.5380014 123.6709992  97.5449978  46.1820014
 124.6769992  97.4289978  45.0560014 124.0595090  97.0801575  45.5610681
 120.9409992 111.2929978  42.6090014 121.1019992 112.0929978  42.1090014
 120.7439992 111.5999978  43.4940014 120.9363906 111.4438678  42.6602333
 119.6759992  97.9909978  42.2250014 119.5919992  98.8789978  42.5720014
 120.5659992  97.7259978  42.4570014 119.7848163  98.0767179  42.3038596
 129.8739992  98.7399978  54.6190014 128.9579992  99.0019978  54.5320014
 130.2099992  98.7369978  53.7230014 129.7938499  98.7755163  54.4858766
 128.4769992 102.4899978  48.7150014 127.6789992 102.0749978  48.3870014
 128.9219992 101.7999978  49.2060014 128.4279684 102.3398628  48.7365227
 117.9339992 108.4179978  41.2850014 118.5259992 109.1179978  41.5620014
 118.3929992 107.9849978  40.5660014 118.0771652 108.4552675  41.2256533
 116.2499992 101.0829978  40.4010014 116.2049992 102.0219978  40.5800014
 115.3619992 100.8469978  40.1320014 116.1238166 101.1796687  40.3891524
 129.5629992 111.7459978  50.3370014 129.4069992 112.4249978  49.6800014
 130.4959992 111.8179978  50.5400014 129.6677387 111.8486390  50.2745342
 117.0579992  95.8639978  49.0750014 116.8289992  95.9229978  48.1470014
 116.6159992  95.0729978  49.3810014 116.9668801  95.7650540  48.9894729
 115.9889992 109.8049978  45.2350014 115.1559992 110.2769978  45.2620014
 116.5339992 110.3149978  44.6360014 115.9487857 109.9384791  45.1577142
 115.2769992 112.4169978  56.5650014 115.8169992 112.2009978  57.3250014
 114.7959992 111.6119978  56.3750014 115.2859219 112.2785156  56.6434282
 119.8739992 111.3369978  58.1850014 120.6419992 110.8779978  58.5260014
 119.8529992 111.1109978  57.2550014 119.9762135 111.2436668  58.1059491
 123.9659992 110.8449978  39.5610014 123.3219992 110.2139978  39.8820014
 124.7279992 110.3139978  39.3290014 123.9808058 110.6867902  39.5736038
 126.4509992 109.7169978  56.9140014 126.0999992 108.8599978  57.1580014
 127.1769992 109.8589978  57.5210014 126.5011895 109.6191351  57.0293770
 128.5709992 110.6619978  39.7940014 128.8539992 109.8669978  40.2470014
 129.3099992 110.8949978  39.2330014 128.7097096 110.5847049  39.7801104
 115.1839992 106.2279978  57.5190014 115.3279992 105.3259978  57.2330014
 114.4119992 106.5139978  57.0320014 115.0992733 106.1431798  57.4139532
 119.5249992 106.5709978  39.6520014 119.5899992 105.7769978  40.1820014
 120.1779992 106.4529978  38.9620014 119.6221605 106.4463430  39.6312997
 121.8389992 106.1969978  56.9520014 121.5109992 106.4679978  56.0950014
 121.9909992 105.2559978  56.8640014 121.8146412 106.1069046  56.8227822
 124.8779992 107.6179978  39.3880014 124.6089992 107.7989978  40.2880014
 124.6709992 106.6929978  39.2560014 124.8131191 107.5177119  39.4935524
 127.5739992 106.1129978  54.3350014 128.3189992 106.7019978  54.2160014
 126.8169992 106.6949978  54.3990014 127.5735470 106.2722128  54.3273799
 116.0169992 103.4279978  56.9390014 116.4249992 102.5709978  56.8180014
 115.7559992 103.4419978  57.8600014 116.0376016 103.3125119  57.0469192
 120.6749992 104.5439978  41.9580014 120.2149992 104.0599978  42.6430014
 120.9299992 103.8749978  41.3220014 120.6464856 104.3873669  41.9658397
 119.9639992 102.4369978  54.3140014 119.3449992 103.1109978  54.5940014
 120.3079992 102.7579978  53.4800014 119.9257123 102.5726887  54.2396388
 121.7459992 102.7869978  40.2200014 121.5649992 102.6319978  39.2930014
 122.6959992 102.8949978  40.2650014 121.8496566 102.7803669  40.0990929
 124.9829992 104.9079978  57.5910014 125.9369992 104.9919978  57.5640014
 124.8229992 104.1959978  58.2110014 125.0917182 104.8232842  57.6710733
 131.1359992 105.1409978  39.6660014 130.8619992 104.7169978  38.8530014
 131.1749992 106.0729978  39.4490014 131.1037716 105.2088827  39.5254286
 120.3029992  99.7919978  55.3960014 120.4529992  99.0629978  54.7940014
 120.3049992 100.5689978  54.8370014 120.3237967  99.7972708  55.2380541
 120.7159992  98.1609978  52.8890014 121.2509992  98.6129978  52.2370014
 119.8629992  98.0529978  52.4660014 120.6740374  98.2082665  52.7426710
 122.2969992 103.6009978  53.1280014 123.0479992 103.4449978  52.5550014
 121.9579992 104.4529978  52.8530014 122.3539587 103.6948138  53.0124078
 126.7129992 101.4159978  58.1570014 126.9049992 100.4849978  58.0450014
 127.5709992 101.8409978  58.1460014 126.8552182 101.3460070  58.1401862
 128.0299992 104.2049978  56.2340014 127.7479992 104.9139978  55.6560014
 128.9719992 104.1319978  56.0830014 128.1187921 104.2922193  56.1344225
 118.7819992 100.9899978  57.3070014 118.0139992 100.4569978  57.0970014
 119.4599992 100.6799978  56.7080014 118.7687235 100.8751754  57.1972413
 121.5209992  95.6179978  53.3200014 121.4229992  96.5639978  53.2150014
 120.7789992  95.2449978  52.8440014 121.4072534  95.6971773  53.2412600
 122.7849992  99.9389978  56.8840014 122.5499992  99.7199978  57.7850014
 122.0019992  99.7319978  56.3740014 122.6469095  99.8809892  56.9385353
 125.5009992  99.0669978  55.9590014 124.5529992  99.0989978  56.0910014
 125.8129992  98.4409978  56.6130014 125.4135293  98.9867923  56.0654148
 127.1349992  97.7009978  57.9640014 127.0379992  96.7489978  57.9590014
 126.8129992  97.9689978  58.8250014 127.0782468  97.6070884  58.0796210
 116.9619992  98.9099978  57.0120014 117.1739992  98.2039978  56.4020014
 116.8509992  98.4729978  57.8560014 116.9760269  98.7541921  57.0425873
 121.7429992  94.9119978  55.9910014 122.4549992  94.2719978  55.9770014
 121.6419992  95.1779978  55.0780014 121.8267387  94.8604330  55.8655563
 122.0969992  96.5939978  58.0450014 121.9649992  96.1189978  57.2250014
 121.4969992  97.3389978  57.9900014 121.9979070  96.6295789  57.9253251
 121.6429992 113.4769978  41.2210014 122.5759992 113.6349978  41.3650014
 121.3789992 114.1529978  40.5960014 121.7349911 113.5899373  41.1562722
 115.2109992 108.1139978  40.7040014 116.1249992 108.1929978  40.9770014
 115.2189992 107.4269978  40.0380014 115.3370655 108.0319205  40.6512917
 113.8599992 113.5069978  45.7810014 113.2129992 113.0449978  45.2490014
 114.2149992 112.8349978  46.3640014 113.8193741 113.3529774  45.7869175
 114.7299992 111.5869978  47.5860014 114.3959992 110.7069978  47.7580014
 114.9529992 111.9329978  48.4510014 114.7143721 111.5131938  47.7264168
 132.2789992 112.3969978  50.5670014 132.2569992 112.5819978  51.5060014
 132.9689992 112.9649978  50.2260014 132.3693439 112.4991887  50.6494791
 131.8419992 111.9639978  53.4880014 131.3549992 111.2289978  53.1170014
 132.3909992 111.5699978  54.1660014 131.8495247 111.8101057  53.5288461
 130.2929992 107.7539978  58.1270014 129.4269992 107.6489978  58.5210014
 130.6689992 108.5119978  58.5730014 130.2253401 107.8421708  58.2412620
 131.5939992 106.0099978  43.6410014 132.4439992 106.4309978  43.7680014
 131.5989992 105.2699978  44.2480014 131.7111143 105.9676094  43.7404750
 131.9879992 104.0639978  45.4640014 131.2619992 103.5839978  45.8620014
 132.5699992 104.2689978  46.1970014 131.9672730 104.0260184  45.6174149
 131.7469992 106.8489978  50.4120014 132.5809992 106.4709978  50.1310014
 131.8589992 107.7919978  50.2930014 131.8761917 106.9247943  50.3574861
 130.2339992 109.7269978  52.7190014 129.5859992 110.0519978  53.3440014
 129.7159992 109.2859978  52.0450014 130.0754196 109.7118651  52.7134152
 132.2569992 103.9649978  41.8550014 131.7349992 104.3209978  41.1370014
 132.2239992 104.6399978  42.5340014 132.1810129 104.1049598  41.8483355
 130.6059992 101.2039978  40.4060014 130.7019992 101.8709978  39.7260014
 130.4659992 100.3889978  39.9250014 130.6002040 101.1850671  40.2478378
 129.7749992 102.5849978  46.0270014 129.6249992 101.6399978  46.0070014
 129.4209992 102.8659978  46.8710014 129.7066351 102.4936644  46.1383220
 114.8099992 104.6629978  50.0380014 114.9949992 104.5809978  49.1020014
 115.6599992 104.5389978  50.4610014 114.9500928 104.6350463  49.9672893
 130.6309992 104.5549978  55.6660014 131.2139992 103.8199978  55.8580014
 131.1949992 105.3269978  55.7130014 130.7869781 104.5588145  55.6986164
 132.1279992 102.4579978  56.3510014 131.2649992 102.0789978  56.1850014
 132.7319992 101.7189978  56.2760014 132.0916085 102.3063223  56.3181695
 129.8529992  98.6119978  39.5240014 130.4639992  98.2409978  40.1610014
 129.0159992  98.1909978  39.7200014 129.8234947  98.5042756  39.6377252
 129.4859992 100.1669978  44.4900014 129.7649992  99.2599978  44.6140014
 130.2449992 100.6009978  44.1010014 129.6268619 100.1014502  44.4543795
 130.0969992 100.7489978  49.9260014 131.0299992 100.9609978  49.8910014
 129.8619992 100.8499978  50.8480014 130.1929517 100.7916833  50.0459130
 130.1269992 101.4859978  52.7020014 129.2839992 101.7539978  53.0680014
 130.5689992 102.3079978  52.4910014 130.0714138 101.6338273  52.7235518
 114.4079992  99.9329978  56.1780014 115.3269992  99.8109978  56.4150014
 113.9579992  99.1829978  56.5680014 114.4730087  99.8149608  56.2631410
 132.4099992  95.4659978  58.0550014 132.7589992  94.8119978  57.4500014
 132.5569992  96.3029978  57.6150014 132.4776824  95.4896024  57.9126304
 130.0989992  97.4299978  44.5380014 130.2809992  96.9809978  45.3630014
 129.4989992  96.8459978  44.0740014 130.0428187  97.2895552  44.5882739
 115.6289992  98.2459978  49.0700014 116.0739992  97.4539978  49.3720014
 116.0949992  98.9619978  49.5000014 115.7529718  98.2344534  49.1695265
 113.9329992 101.2449978  50.1390014 114.4249992 101.0239978  49.3480014
 114.2949992 102.0849978  50.4200014 114.0492923 101.3283468  50.0687407
 131.9289992  97.5749978  56.4040014 131.0119992  97.8459978  56.3690014
 132.0519992  97.0399978  55.6200014 131.8199672  97.5397885  56.2931862
 131.9659992  97.4979978  41.0660014 132.3779992  96.7769978  40.5910014
 132.6469992  98.1669978  41.1240014 132.1145536  97.4897766  41.0088024
 114.2469992  97.5029978  44.1930014 113.3219992  97.7109978  44.0640014
 114.7009992  97.9869978  43.5030014 114.1816298  97.5969299  44.0820451
 129.0169992 112.4869978  46.1390014 129.6699992 112.1389978  45.5310014
 129.5279992 112.9749978  46.7850014 129.1752777 112.5053815  46.1432047
 114.2099992  96.2409978  52.5370014 113.5449992  95.9949978  53.1800014
 113.7669992  96.8629978  51.9600014 114.0591168  96.2914214  52.5469848
 116.4019992 109.4159978  56.6820014 115.5809992 109.5909978  56.2210014
 116.1499992 109.3429978  57.6020014 116.2555594 109.4300717  56.7433611
 119.3559992 110.3899978  52.9400014 118.9319992 111.1999978  52.6580014
 120.2609992 110.4759978  52.6380014 119.4202138 110.5124160  52.8606415
 123.6679992 111.7889978  55.9000014 123.8519992 111.4559978  56.7780014
 124.5139992 112.0989978  55.5780014 123.8076484 111.7852979  55.9767617
 126.0129992 113.0749978  55.1440014 126.6899992 112.4419978  54.9040014
 126.3339992 113.4759978  55.9510014 126.1491323 113.0425691  55.2203158
 130.9299992  95.6649978  54.2230014 130.1169992  95.9899978  53.8360014
 131.1629992  94.9039978  53.6900014 130.8501347  95.6066880  54.0979841
 116.7579992 113.6469978  52.9880014 116.0379992 114.0869978  52.5370014
 116.3929992 113.3959978  53.8360014 116.6099643 113.6733369  53.0409129
 119.2249992 113.2469978  52.0180014 118.3609992 113.3189978  52.4220014
 119.1699992 113.7939978  51.2340014 119.0991942 113.3307849  51.9674000
 123.9359992 113.1349978  51.1930014 123.4789992 113.6639978  50.5390014
 124.0989992 113.7379978  51.9180014 123.8954960 113.2889280  51.2015274
 126.2639992 112.0129978  52.1380014 125.3589992 112.1779978  51.8720014
 126.6919992 112.8659978  52.0720014 126.1981537 112.1509134  52.0927095
 128.8679992 113.5829978  52.4330014 128.6859992 114.4989978  52.2220014
 129.0449992 113.1719978  51.5860014 128.8670030 113.6528273  52.2897166
 116.1729992 112.2699978  49.8980014 116.1549992 111.8439978  50.7550014
 116.9779992 111.9509978  49.4890014 116.2792875 112.1686435  49.9599515
 118.3139992 110.9799978  48.5530014 118.0949992 110.0629978  48.7230014
 119.1379992 111.1199978  49.0190014 118.3954702 110.8735511  48.6392527
 120.8509992 111.4499978  49.4020014 121.0639992 110.5619978  49.1150014
 120.9159992 111.4149978  50.3560014 120.8889149 111.3238326  49.4917369
 124.3599992  97.1139978  48.5460014 123.6859992  96.4839978  48.8020014
 124.9239992  96.6299978  47.9430014 124.3440384  96.9623708  48.4995020
 129.5029992  95.2209978  48.6590014 130.1059992  95.7689978  48.1570014
 128.6329992  95.5399978  48.4180014 129.4679157  95.3390373  48.5577910
 131.2299992  96.3599978  46.9920014 131.8409992  95.8459978  46.4650014
 131.6119992  97.2369978  47.0150014 131.3653305  96.4082050  46.9229418
 116.6869992  95.7479978  46.3680014 115.9099992  95.5129978  45.8610014
 117.2169992  94.9509978  46.3770014 116.6523451  95.6081268  46.2998627
 115.5229992  95.5459978  42.1720014 115.9619992  96.1569978  41.5800014
 114.8889992  96.0839978  42.6460014 115.4973859  95.7024064  42.1550305
 121.2659992  95.6739978  46.1810014 122.1399992  96.0629978  46.1520014
 121.1299992  95.4589978  47.1040014 121.3671953  95.6981643  46.3017617
 126.8229992  95.7039978  47.8310014 126.8989992  95.7999978  46.8810014
 126.5479992  94.7969978  47.9590014 126.7961871  95.5944146  47.7183944
 128.1759992  95.7299978  43.5230014 127.4729992  96.3449978  43.3130014
 127.7309992  94.8929978  43.6540014 128.0196550  95.7009668  43.5119837
 115.4239992 111.4939978  43.0690014 114.7389992 111.4559978  42.4020014
 115.4279992 112.4069978  43.3570014 115.3307621 111.6121924  43.0166126
 117.3839992  97.4619978  40.6140014 117.8749992  96.8319978  40.0870014
 118.0069992  97.7579978  41.2770014 117.5355304  97.4157376  40.6314940
 122.4099992  97.7549978  43.0710014 122.5879992  97.1079978  43.7540014
 122.3559992  98.5889978  43.5380014 122.4270678  97.7791604  43.2276301
 124.2879992 112.7029978  41.4670014 125.1539992 113.0699978  41.2890014
 124.0419992 112.2639978  40.6530014 124.3732097 112.6938525  41.3326019
 130.9969992 112.2659978  44.1460014 130.8029992 111.5179978  43.5810014
 130.9579992 113.0239978  43.5630014 130.9651645 112.2660786  43.9898148
 116.6439992  96.2619978  55.8860014 116.2779992  95.4959978  56.3280014
 117.5569992  96.2909978  56.1720014 116.7173172  96.1610324  55.9851890
 118.6169992  95.6119978  57.4210014 119.5159992  95.3379978  57.2370014
 118.2309992  94.8699978  57.8860014 118.6877307  95.4742196  57.4587098
 117.2419992 112.4139978  40.0940014 116.9739992 112.6999978  40.9680014
 118.0129992 111.8679978  40.2470014 117.3095926 112.3792779  40.2341205
 127.0389992  94.9449978  57.6040014 127.1149992  94.5189978  58.4570014
 127.9319992  94.9579978  57.2610014 127.1702303  94.8883493  57.6745497
 130.2149992 111.0179978  56.2960014 129.4329992 110.8309978  55.7760014
 130.1429992 111.9469978  56.5130014 130.0981924 111.1180637  56.2541602
 144.6209992 104.9039978  46.3270014 144.7099992 105.8479978  46.1950014
 143.9829992 104.6289978  45.6690014 144.5469062 104.9959812  46.2199641
 143.5539992 104.1589978  49.7460014 143.5159992 103.5129978  50.4510014
 143.2319992 103.6919978  48.9750014 143.5052679 104.0074276  49.7382921
 135.9219992 103.7729978  51.3390014 135.9639992 103.1479978  52.0620014
 136.6249992 104.3969978  51.5210014 136.0227345 103.7717873  51.4625273
 136.8459992 108.2229978  49.8740014 136.4759992 107.4209978  49.5040014
 137.7869992 108.0549978  49.9200014 136.9225984 108.0904638  49.8295603
 133.4559992 101.8829978  45.2660014 133.0079992 102.7289978  45.2480014
 132.8949992 101.3039978  44.7510014 133.3188546 101.9203993  45.1938891
 134.1659992 104.0449978  47.3920014 134.3799992 103.2749978  47.9200014
 134.9039992 104.1349978  46.7890014 134.2950200 103.9518587  47.3827035
 144.3719992 112.2019978  48.2590014 144.9909992 111.5259978  47.9860014
 144.1629992 111.9839978  49.1680014 144.4286056 112.0798869  48.3443967
 141.9429992 106.5909978  50.1520014 142.2469992 105.9049978  49.5570014
 142.6649992 106.7099978  50.7700014 142.0821240 106.5132314  50.1540959
 145.0839992 100.9849978  50.4790014 145.2269992 100.0389978  50.4990014
 144.9779992 101.1919978  49.5510014 145.0892403 100.8834797  50.3562239
 138.2389992  99.0869978  47.7520014 138.2819992  99.9469978  47.3330014
 137.7809992  98.5349978  47.1180014 138.1829871  99.1299245  47.6090761
 134.8589992 101.4839978  48.5140014 135.5129992 100.9339978  48.9460014
 134.8829992 101.2099978  47.5970014 134.9517199 101.3717167  48.4491668
 140.0159992 103.0339978  47.7290014 140.6319992 102.5069978  48.2380014
 139.4289992 102.3939978  47.3250014 140.0210154 102.8753954  47.7440945
 137.0489992  98.0049978  51.8260014 136.8299992  98.5349978  51.0590014
 136.3809992  98.2309978  52.4730014 136.9286975  98.1080967  51.8085140
 144.4179992 107.5049978  45.3700014 144.1229992 107.1819978  44.5180014
 144.0939992 108.4049978  45.4110014 144.3338460 107.5824464  45.2589714
 139.6179992 105.6799978  52.1130014 138.8779992 106.2789978  52.2170014
 140.3319992 106.2339978  51.7980014 139.6133500 105.8367829  52.0846371
 136.6429992  99.8969978  49.7780014 137.2569992 100.5299978  50.1510014
 137.1549992  99.4249978  49.1220014 136.7961962  99.9197249  49.7402935
 138.0259992 107.6449978  52.9000014 138.0199992 108.5239978  52.5220014
 137.1719992 107.5609978  53.3250014 137.9097925 107.7539535  52.9056887
 134.1469992 107.3159978  43.6820014 133.8749992 107.5449978  42.7940014
 134.1919992 108.1529978  44.1430014 134.1158097 107.4606163  43.6226683
 141.0759992  95.3099978  49.2780014 140.9579992  94.3619978  49.2240014
 140.2209992  95.6429978  49.5510014 140.9442805  95.2252202  49.3075079
 143.3419992 104.1479978  43.7790014 142.6309992 104.6829978  43.4270014
 144.0329992 104.2029978  43.1190014 143.3380751 104.2286777  43.6415858
 143.3959992 102.6049978  40.8170014 144.0969992 102.6279978  41.4690014
 143.6979992 101.9769978  40.1610014 143.5328202 102.5232212  40.8175609
 138.3929992 104.9879978  46.6130014 138.0629992 104.6169978  45.7950014
 138.9819992 104.3169978  46.9600014 138.4273970 104.8466063  46.5479404
 139.7599992 108.4159978  49.2940014 139.6649992 107.8369978  48.5380014
 140.4889992 108.0449978  49.7900014 139.8456011 108.2865561  49.2576028
 138.7599992 103.7559978  50.2460014 139.3249992 103.8779978  49.4840014
 139.0789992 104.3939978  50.8850014 138.8804166 103.8588791  50.2280348
 145.0689992 109.2599978  50.9800014 144.8289992 109.9219978  51.6280014
 144.8709992 108.4249978  51.4050014 145.0093826 109.2378115  51.1261566
 139.6399992 108.1559978  54.9640014 139.3289992 108.9379978  55.4190014
 138.9899992 108.0029978  54.2780014 139.5095538 108.2424087  54.9335898
 136.5599992 104.3539978  54.1920014 136.6299992 105.0049978  54.8910014
 135.6689992 104.4569978  53.8570014 136.4491690 104.4569249  54.2423043
 143.3449992 110.2559978  45.8510014 143.8189992 110.5519978  46.6280014
 142.7819992 110.9949978  45.6180014 143.3337890 110.3963036  45.9258101
 137.8789992 110.2269978  55.7270014 137.8869992 110.0909978  54.7800014
 136.9629992 110.1099978  55.9790014 137.7562528 110.1925463  55.6313243
 137.3839992 104.0569978  44.2020014 137.0919992 104.8249978  43.7110014
 136.7089992 103.3979978  44.0390014 137.2528497 104.0729745  44.1128260
 133.4769992 106.4199978  53.0170014 132.9749992 106.3919978  52.2020014
 133.4819992 105.5149978  53.3270014 133.4089832 106.2937486  52.9474121
 133.2269992 109.2009978  49.9010014 134.1729992 109.0559978  49.8820014
 133.1139992 109.9849978  50.4380014 133.3413578 109.2871697  49.9710317
 142.4029992 109.4409978  54.4600014 142.4909992 110.2669978  54.9350014
 141.5399992 109.1109978  54.7090014 142.2983357 109.5095468  54.5587653
 142.8179992 113.2129978  44.2660014 142.7419992 113.0919978  43.3190014
 142.8499992 114.1619978  44.3840014 142.8119380 113.3247677  44.1525181
 136.4709992 112.0019978  46.0470014 136.6229992 111.6539978  46.9250014
 135.6199992 111.6449978  45.7910014 136.3768344 111.9060879  46.1326868
 135.7259992 107.7439978  54.0600014 135.9419992 107.3819978  54.9200014
 134.8699992 107.3689978  53.8510014 135.6398810 107.6438837  54.1492680
 138.3439992  96.2139978  50.0560014 137.4829992  96.1269978  49.6480014
 138.3219992  97.0699978  50.4840014 138.2230491  96.3178003  50.0579582
 143.0069992  95.9359978  53.4310014 143.4269992  95.5209978  54.1840014
 142.0739992  95.7569978  53.5480014 142.9383736  95.8549910  53.5498968
 142.6689992  98.4279978  40.7160014 142.4149992  98.4469978  41.6380014
 142.4119992  97.5569978  40.4140014 142.5994508  98.3128280  40.8014803
 138.4349992 101.1789978  51.1510014 137.7939992 101.1389978  51.8600014
 138.4729992 102.1059978  50.9130014 138.3523010 101.2987668  51.2159946
 138.4319992 101.3999978  46.0630014 137.5399992 101.0599978  46.0040014
 138.8829992 101.0229978  45.3070014 138.3707642 101.3024910  45.9527726
 143.9679992 101.8159978  44.8800014 143.5589992 102.6309978  44.5880014
 144.6879992 101.6759978  44.2660014 144.0094439 101.9085372  44.7570115
 143.0699992 101.9919978  56.3680014 142.5069992 101.2869978  56.6890014
 143.8959992 101.8709978  56.8360014 143.1046674 101.8792165  56.4751751
 144.9729992 101.2619978  47.6940014 144.7769992 101.8679978  46.9790014
 145.1539992 100.4289978  47.2600014 144.9706584 101.2322513  47.5374212
 136.1849992 101.4999978  53.0180014 136.1469992 101.8999978  53.8870014
 135.6949992 100.6829978  53.1080014 136.1135330 101.4442674  53.1491289
 139.5509992  98.8739978  39.8170014 139.1199992  98.4289978  40.5460014
 138.8329992  99.2449978  39.3040014 139.3949176  98.8632051  39.8474930
 132.7939992  98.6159978  46.8690014 133.4239992  98.5869978  47.5880014
 133.2429992  98.1909978  46.1380014 132.9410835  98.5545660  46.8687659
 134.0679992  99.3619978  42.2930014 134.5419992  99.9529978  41.7080014
 133.3499992  99.8919978  42.6400014 134.0358640  99.5145511  42.2597969
 144.2369992 102.8999978  52.3650014 144.5599992 102.2689978  51.7220014
 143.7959992 102.3659978  53.0260014 144.2216379 102.7413468  52.3662582
 141.0139992  98.8279978  47.1490014 140.1029992  98.8849978  47.4380014
 141.5189992  98.7679978  47.9600014 140.9576873  98.8276826  47.2981207
 135.8419992 100.4569978  45.9760014 134.9529992 100.5559978  45.6360014
 136.1389992  99.6149978  45.6300014 135.7604177 100.3567687  45.8826940
 139.4949992 100.4569978  43.6330014 140.4269992 100.5859978  43.8110014
 139.2799992 101.1259978  42.9830014 139.5934472 100.5650806  43.5694891
 145.4189992  98.0629978  50.4140014 144.7419992  98.1939978  51.0770014
 144.9339992  97.9079978  49.6030014 145.2607405  98.0599947  50.3952170
 138.1689992 101.6509978  41.1990014 137.6269992 101.2719978  40.5080014
 139.0029992 101.8459978  40.7710014 138.2074390 101.6254079  41.0464392
 136.3049992 106.2079978  56.2980014 137.0369992 106.4629978  56.8600014
 135.5239992 106.4129978  56.8140014 136.2996526 106.2705450  56.4445176
 142.3339992 101.6149978  49.0360014 142.8979992 101.0689978  48.4890014
 142.1859992 101.0939978  49.8250014 142.3913037 101.4696787  49.0677229
 137.3359992  97.7519978  45.4550014 137.0189992  96.8489978  45.4190014
 138.1169992  97.7539978  44.9020014 137.3982431  97.6287797  45.3753102
 140.9599992 100.0039978  51.4500014 140.1249992 100.4579978  51.5610014
 141.4839992 100.2799978  52.2020014 140.9166072 100.1033948  51.5668136
 141.5049992 106.2169978  43.1350014 140.7599992 105.7089978  42.8130014
 141.3699992 106.2659978  44.0810014 141.3848963 106.1541731  43.2188826
 145.4019992  99.0309978  41.3340014 144.4639992  99.1419978  41.1830014
 145.6999992  99.8869978  41.6410014 145.3136318  99.1620158  41.3548145
 143.0239992 106.4009978  54.3720014 142.6779992 106.0189978  55.1790014
 142.8239992 107.3339978  54.4430014 142.9495987 106.4749002  54.4920461
 136.6289992 105.5119978  48.9050014 137.3739992 105.5089978  48.3030014
 136.7069992 104.6879978  49.3860014 136.7413365 105.4002384  48.8877430
 143.6299992 107.6749978  42.1600014 143.3349992 108.5019978  42.5420014
 142.9269992 107.0559978  42.3570014 143.4946379 107.7044171  42.2388654
 133.6369992 103.9719978  54.2200014 133.8599992 103.5539978  55.0510014
 133.0349992 103.3599978  53.7970014 133.5861513 103.8319606  54.2766740
 140.6539992 103.4889978  56.4330014 140.3579992 103.3239978  55.5370014
 141.5849992 103.2689978  56.4220014 140.7394401 103.4366879  56.3090206
 145.2739992 108.8629978  54.3220014 144.3739992 109.0459978  54.0550014
 145.3079992 109.1219978  55.2430014 145.1553748 108.9230554  54.4099164
 139.0039992 109.0299978  46.3090014 139.5319992 109.8029978  46.1090014
 138.1239992 109.2539978  46.0070014 138.9573435 109.1662700  46.2407310
 134.7589992 103.8919978  40.8960014 135.3749992 104.5189978  41.2760014
 133.8969992 104.2079978  41.1680014 134.7267678 104.0204412  40.9847209
 140.4319992 106.6929978  45.8850014 140.1909992 107.6179978  45.9270014
 139.6909992 106.2339978  46.2820014 140.2989206 106.7575915  45.9443769
 140.9459992 110.8419978  52.2000014 141.3089992 111.6959978  51.9670014
 141.4779992 110.5499978  52.9410014 141.0675141 110.9193895  52.2682097
 139.1149992 111.7139978  45.4310014 138.1649992 111.8199978  45.4820014
 139.4669992 112.5349978  45.7750014 139.0325472 111.8394923  45.4844852
 144.4899992 106.9409978  51.9010014 144.0649992 106.7129978  52.7270014
 145.0709992 106.2019978  51.7190014 144.5103395 106.8099545  51.9894414
 135.2709992  98.7259978  53.7780014 134.3789992  99.0639978  53.7100014
 135.1729992  97.8699978  54.1960014 135.1354475  98.6566543  53.8251704
 134.9229992 110.5299978  52.2130014 135.1399992 109.5979978  52.1820014
 135.1689992 110.8049978  53.0960014 134.9859809 110.4395686  52.3281691
 140.7839992 108.9819978  39.4220014 141.0229992 108.2329978  38.8750014
 140.5149992 108.5939978  40.2550014 140.7803233 108.8271853  39.4597809
 139.7209992 108.5519978  41.8780014 139.8679992 108.0319978  42.6680014
 139.7179992 109.4589978  42.1850014 139.7407102 108.6033953  42.0275925
 136.1739992 105.8039978  42.3890014 135.4879992 106.1569978  42.9560014
 136.6969992 106.5669978  42.1420014 136.1508402 105.9553901  42.4331801
 144.0059992  98.4669978  52.6680014 144.7049992  98.5409978  53.3180014
 143.6249992  97.6019978  52.8220014 144.0502097  98.3602389  52.7777997
 144.7899992  98.1189978  43.7650014 145.0099992  98.5899978  42.9610014
 145.3489992  98.5129978  44.4350014 144.8956732  98.2367287  43.7455033
 142.4589992 110.2489978  42.6280014 141.6419992 110.7459978  42.6800014
 142.9879992 110.7249978  41.9870014 142.4188125 110.3811989  42.5485306
 141.9899992  99.8469978  44.6000014 142.8019992 100.3509978  44.6460014
 141.7459992  99.7019978  45.5140014 142.0681467  99.8963749  44.7298575
 142.5259992 100.8329978  53.7840014 142.6449992 101.4069978  54.5410014
 143.1809992 100.1449978  53.8990014 142.6308684 100.8185194  53.9031674
 142.8739992  96.9279978  45.5380014 142.5269992  97.5449978  46.1820014
 143.5329992  97.4289978  45.0560014 142.9155090  97.0801575  45.5610681
 139.7969992 111.2929978  42.6090014 139.9579992 112.0929978  42.1090014
 139.5999992 111.5999978  43.4940014 139.7923906 111.4438678  42.6602333
 138.5319992  97.9909978  42.2250014 138.4479992  98.8789978  42.5720014
 139.4219992  97.7259978  42.4570014 138.6408163  98.0767179  42.3038596
 136.7899992 108.4179978  41.2850014 137.3819992 109.1179978  41.5620014
 137.2489992 107.9849978  40.5660014 136.9331652 108.4552675  41.2256533
 135.1059992 101.0829978  40.4010014 135.0609992 102.0219978  40.5800014
 134.2179992 100.8469978  40.1320014 134.9798166 101.1796687  40.3891524
 135.9139992  95.8639978  49.0750014 135.6849992  95.9229978  48.1470014
 135.4719992  95.0729978  49.3810014 135.8228801  95.7650540  48.9894729
 134.8449992 109.8049978  45.2350014 134.0119992 110.2769978  45.2620014
 135.3899992 110.3149978  44.6360014 134.8047857 109.9384791  45.1577142
 134.1329992 112.4169978  56.5650014 134.6729992 112.2009978  57.3250014
 133.6519992 111.6119978  56.3750014 134.1419219 112.2785156  56.6434282
 138.7299992 111.3369978  58.1850014 139.4979992 110.8779978  58.5260014
 138.7089992 111.1109978  57.2550014 138.8322135 111.2436668  58.1059491
 142.8219992 110.8449978  39.5610014 142.1779992 110.2139978  39.8820014
 143.5839992 110.3139978  39.3290014 142.8368058 110.6867902  39.5736038
 145.3069992 109.7169978  56.9140014 144.9559992 108.8599978  57.1580014
 146.0329992 109.8589978  57.5210014 145.3571895 109.6191351  57.0293770
 134.0399992 106.2279978  57.5190014 134.1839992 105.3259978  57.2330014
 133.2679992 106.5139978  57.0320014 133.9552733 106.1431798  57.4139532
 138.3809992 106.5709978  39.6520014 138.4459992 105.7769978  40.1820014
 139.0339992 106.4529978  38.9620014 138.4781605 106.4463430  39.6312997
 140.6949992 106.1969978  56.9520014 140.3669992 106.4679978  56.0950014
 140.8469992 105.2559978  56.8640014 140.6706412 106.1069046  56.8227822
 143.7339992 107.6179978  39.3880014 143.4649992 107.7989978  40.2880014
 143.5269992 106.6929978  39.2560014 143.6691191 107.5177119  39.4935524
 134.8729992 103.4279978  56.9390014 135.2809992 102.5709978  56.8180014
 134.6119992 103.4419978  57.8600014 134.8936016 103.3125119  57.0469192
 139.5309992 104.5439978  41.9580014 139.0709992 104.0599978  42.6430014
 139.7859992 103.8749978  41.3220014 139.5024856 104.3873669  41.9658397
 138.8199992 102.4369978  54.3140014 138.2009992 103.1109978  54.5940014
 139.1639992 102.7579978  53.4800014 138.7817123 102.5726887  54.2396388
 140.6019992 102.7869978  40.2200014 140.4209992 102.6319978  39.2930014
 141.5519992 102.8949978  40.2650014 140.7056566 102.7803669  40.0990929
 143.8389992 104.9079978  57.5910014 144.7929992 104.9919978  57.5640014
 143.6789992 104.1959978  58.2110014 143.9477182 104.8232842  57.6710733
 139.1589992  99.7919978  55.3960014 139.3089992  99.0629978  54.7940014
 139.1609992 100.5689978  54.8370014 139.1797967  99.7972708  55.2380541
 139.5719992  98.1609978  52.8890014 140.1069992  98.6129978  52.2370014
 138.7189992  98.0529978  52.4660014 139.5300374  98.2082665  52.7426710
 141.1529992 103.6009978  53.1280014 141.9039992 103.4449978  52.5550014
 140.8139992 104.4529978  52.8530014 141.2099587 103.6948138  53.0124078
 145.5689992 101.4159978  58.1570014 145.7609992 100.4849978  58.0450014
 146.4269992 101.8409978  58.1460014 145.7112182 101.3460070  58.1401862
 137.6379992 100.9899978  57.3070014 136.8699992 100.4569978  57.0970014
 138.3159992 100.6799978  56.7080014 137.6247235 100.8751754  57.1972413
 140.3769992  95.6179978  53.3200014 140.2789992  96.5639978  53.2150014
 139.6349992  95.2449978  52.8440014 140.2632534  95.6971773  53.2412600
 141.6409992  99.9389978  56.8840014 141.4059992  99.7199978  57.7850014
 140.8579992  99.7319978  56.3740014 141.5029095  99.8809892  56.9385353
 144.3569992  99.0669978  55.9590014 143.4089992  99.0989978  56.0910014
 144.6689992  98.4409978  56.6130014 144.2695293  98.9867923  56.0654148
 135.8179992  98.9099978  57.0120014 136.0299992  98.2039978  56.4020014
 135.7069992  98.4729978  57.8560014 135.8320269  98.7541921  57.0425873
 140.5989992  94.9119978  55.9910014 141.3109992  94.2719978  55.9770014
 140.4979992  95.1779978  55.0780014 140.6827387  94.8604330  55.8655563
 140.9529992  96.5939978  58.0450014 140.8209992  96.1189978  57.2250014
 140.3529992  97.3389978  57.9900014 140.8539070  96.6295789  57.9253251
 140.4989992 113.4769978  41.2210014 141.4319992 113.6349978  41.3650014
 140.2349992 114.1529978  40.5960014 140.5909911 113.5899373  41.1562722
 134.0669992 108.1139978  40.7040014 134.9809992 108.1929978  40.9770014
 134.0749992 107.4269978  40.0380014 134.1930655 108.0319205  40.6512917
 132.7159992 113.5069978  45.7810014 132.0689992 113.0449978  45.2490014
 133.0709992 112.8349978  46.3640014 132.6753741 113.3529774  45.7869175
 133.5859992 111.5869978  47.5860014 133.2519992 110.7069978  47.7580014
 133.8089992 111.9329978  48.4510014 133.5703721 111.5131938  47.7264168
 133.6659992 104.6629978  50.0380014 133.8509992 104.5809978  49.1020014
 134.5159992 104.5389978  50.4610014 133.8060928 104.6350463  49.9672893
 133.2639992  99.9329978  56.1780014 134.1829992  99.8109978  56.4150014
 132.8139992  99.1829978  56.5680014 133.3290087  99.8149608  56.2631410
 134.4849992  98.2459978  49.0700014 134.9299992  97.4539978  49.3720014
 134.9509992  98.9619978  49.5000014 134.6089718  98.2344534  49.1695265
 132.7889992 101.2449978  50.1390014 133.2809992 101.0239978  49.3480014
 133.1509992 102.0849978  50.4200014 132.9052923 101.3283468  50.0687407
 133.1029992  97.5029978  44.1930014 132.1779992  97.7109978  44.0640014
 133.5569992  97.9869978  43.5030014 133.0376298  97.5969299  44.0820451
 133.0659992  96.2409978  52.5370014 132.4009992  95.9949978  53.1800014
 132.6229992  96.8629978  51.9600014 132.9151168  96.2914214  52.5469848
 135.2579992 109.4159978  56.6820014 134.4369992 109.5909978  56.2210014
 135.0059992 109.3429978  57.6020014 135.1115594 109.4300717  56.7433611
 138.2119992 110.3899978  52.9400014 137.7879992 111.1999978  52.6580014
 139.1169992 110.4759978  52.6380014 138.2762138 110.5124160  52.8606415
 142.5239992 111.7889978  55.9000014 142.7079992 111.4559978  56.7780014
 143.3699992 112.0989978  55.5780014 142.6636484 111.7852979  55.9767617
 144.8689992 113.0749978  55.1440014 145.5459992 112.4419978  54.9040014
 145.1899992 113.4759978  55.9510014 145.0051323 113.0425691  55.2203158
 135.6139992 113.6469978  52.9880014 134.8939992 114.0869978  52.5370014
 135.2489992 113.3959978  53.8360014 135.4659643 113.6733369  53.0409129
 138.0809992 113.2469978  52.0180014 137.2169992 113.3189978  52.4220014
 138.0259992 113.7939978  51.2340014 137.9551942 113.3307849  51.9674000
 142.7919992 113.1349978  51.1930014 142.3349992 113.6639978  50.5390014
 142.9549992 113.7379978  51.9180014 142.7514960 113.2889280  51.2015274
 145.1199992 112.0129978  52.1380014 144.2149992 112.1779978  51.8720014
 145.5479992 112.8659978  52.0720014 145.0541537 112.1509134  52.0927095
 135.0289992 112.2699978  49.8980014 135.0109992 111.8439978  50.7550014
 135.8339992 111.9509978  49.4890014 135.1352875 112.1686435  49.9599515
 137.1699992 110.9799978  48.5530014 136.9509992 110.0629978  48.7230014
 137.9939992 111.1199978  49.0190014 137.2514702 110.8735511  48.6392527
 139.7069992 111.4499978  49.4020014 139.9199992 110.5619978  49.1150014
 139.7719992 111.4149978  50.3560014 139.7449149 111.3238326  49.4917369
 143.2159992  97.1139978  48.5460014 142.5419992  96.4839978  48.8020014
 143.7799992  96.6299978  47.9430014 143.2000384  96.9623708  48.4995020
 135.5429992  95.7479978  46.3680014 134.7659992  95.5129978  45.8610014
 136.0729992  94.9509978  46.3770014 135.5083451  95.6081268  46.2998627
 134.3789992  95.5459978  42.1720014 134.8179992  96.1569978  41.5800014
 133.7449992  96.0839978  42.6460014 134.3533859  95.7024064  42.1550305
 140.1219992  95.6739978  46.1810014 140.9959992  96.0629978  46.1520014
 139.9859992  95.4589978  47.1040014 140.2231953  95.6981643  46.3017617
 134.2799992 111.4939978  43.0690014 133.5949992 111.4559978  42.4020014
 134.2839992 112.4069978  43.3570014 134.1867621 111.6121924  43.0166126
 136.2399992  97.4619978  40.6140014 136.7309992  96.8319978  40.0870014
 136.8629992  97.7579978  41.2770014 136.3915304  97.4157376  40.6314940
 141.2659992  97.7549978  43.0710014 141.4439992  97.1079978  43.7540014
 141.2119992  98.5889978  43.5380014 141.2830678  97.7791604  43.2276301
 143.1439992 112.7029978  41.4670014 144.0099992 113.0699978  41.2890014
 142.8979992 112.2639978  40.6530014 143.2292097 112.6938525  41.3326019
 135.4999992  96.2619978  55.8860014 135.1339992  95.4959978  56.3280014
 136.4129992  96.2909978  56.1720014 135.5733172  96.1610324  55.9851890
 137.4729992  95.6119978  57.4210014 138.3719992  95.3379978  57.2370014
 137.0869992  94.8699978  57.8860014 137.5437307  95.4742196  57.4587098
 136.0979992 112.4139978  40.0940014 135.8299992 112.6999978  40.9680014
 136.8689992 111.8679978  40.2470014 136.1655926 112.3792779  40.2341205
  12.6289992 123.7599978  46.3270014  12.7179992 124.7039978  46.1950014
  11.9909992 123.4849978  45.6690014  12.5549062 123.8519812  46.2199641
  11.5619992 123.0149978  49.7460014  11.5239992 122.3689978  50.4510014
  11.2399992 122.5479978  48.9750014  11.5132679 122.8634276  49.7382921
   3.9299992 122.6289978  51.3390014   3.9719992 122.0039978  52.0620014
   4.6329992 123.2529978  51.5210014   4.0307345 122.6277873  51.4625274
  15.2679992 125.9539978  48.0470014  14.8269992 125.2339978  48.4980014
  15.2549992 126.6749978  48.6770014  15.2059215 125.9529291  48.1938105
   4.8539992 127.0789978  49.8740014   4.4839992 126.2769978  49.5040014
   5.7949992 126.9109978  49.9200014   4.9305984 126.9464638  49.8295603
   1.4639992 120.7389978  45.2660014   1.0159992 121.5849978  45.2480014
   0.9029992 120.1599978  44.7510014   1.3268546 120.7763993  45.1938891
   2.1739992 122.9009978  47.3920014   2.3879992 122.1309978  47.9200014
   2.9119992 122.9909978  46.7890014   2.3030200 122.8078586  47.3827035
  12.3799992 131.0579978  48.2590014  12.9989992 130.3819978  47.9860014
  12.1709992 130.8399978  49.1680014  12.4366056 130.9358869  48.3443967
   9.9509992 125.4469978  50.1520014  10.2549992 124.7609978  49.5570014
  10.6729992 125.5659978  50.7700014  10.0901240 125.3692314  50.1540959
  18.6139992 117.0489978  51.0120014  18.6639992 117.6589978  51.7480014
  19.0399992 117.5099978  50.2890014  18.6784108 117.1947709  51.0150112
  13.0919992 119.8409978  50.4790014  13.2349992 118.8949978  50.4990014
  12.9859992 120.0479978  49.5510014  13.0972403 119.7394797  50.3562239
   6.2469992 117.9429978  47.7520014   6.2899992 118.8029978  47.3330014
   5.7889992 117.3909978  47.1180014   6.1909871 117.9859245  47.6090761
  13.9689992 118.0739978  46.1530014  14.6159992 117.7449978  46.7770014
  14.4789992 118.5909978  45.5300014  14.1264351 118.0989067  46.1541037
   2.8669992 120.3399978  48.5140014   3.5209992 119.7899978  48.9460014
   2.8909992 120.0659978  47.5970014   2.9597199 120.2277167  48.4491668
   8.0239992 121.8899978  47.7290014   8.6399992 121.3629978  48.2380014
   7.4369992 121.2499978  47.3250014   8.0290154 121.7313954  47.7440945
  19.0059992 118.5269978  53.2480014  18.3169992 119.1849978  53.1530014
  19.0209992 118.3289978  54.1850014  18.9137756 118.5902603  53.3615812
   5.0569992 116.8609978  51.8260014   4.8379992 117.3909978  51.0590014
   4.3889992 117.0869978  52.4730014   4.9366975 116.9640967  51.8085140
  12.4259992 126.3609978  45.3700014  12.1309992 126.0379978  44.5180014
  12.1019992 127.2609978  45.4110014  12.3418460 126.4384464  45.2589714
   7.6259992 124.5359978  52.1130014   6.8859992 125.1349978  52.2170014
   8.3399992 125.0899978  51.7980014   7.6213500 124.6927829  52.0846371
  15.7329992 117.3649978  48.1330014  15.5179992 116.5989978  48.6660014
  16.3889992 117.8369978  48.6460014  15.7922673 117.3240728  48.2751990
   4.6509992 118.7529978  49.7780014   5.2649992 119.3859978  50.1510014
   5.1629992 118.2809978  49.1220014   4.8041962 118.7757249  49.7402935
   6.0339992 126.5009978  52.9000014   6.0279992 127.3799978  52.5220014
   5.1799992 126.4169978  53.3250014   5.9177925 126.6099535  52.9056887
   2.1549992 126.1719978  43.6820014   1.8829992 126.4009978  42.7940014
   2.1999992 127.0089978  44.1430014   2.1238097 126.3166163  43.6226683
  15.7799992 127.7929978  50.3950014  14.8379992 127.8519978  50.5570014
  16.0559992 128.6989978  50.2580014  15.6885865 127.9235288  50.3986192
  16.0799992 116.0799978  51.8120014  15.3439992 116.6899978  51.7750014
  16.7639992 116.4949978  51.2860014  16.0715367 116.2197551  51.7358174
   9.0839992 114.1659978  49.2780014   8.9659992 113.2179978  49.2240014
   8.2289992 114.4989978  49.5510014   8.9522805 114.0812202  49.3075079
  14.0319992 129.5739978  47.0200014  14.4569992 128.8669978  46.5350014
  14.3489992 130.3759978  46.6030014  14.1330266 129.5855190  46.8972479
  15.1919992 127.4749978  45.5290014  14.9339992 126.7849978  44.9170014
  15.2629992 127.0319978  46.3740014  15.1663050 127.3206814  45.5595621
  16.8779992 126.0419978  54.0060014  17.0169992 125.4499978  53.2670014
  17.0449992 126.9149978  53.6500014  16.9196193 126.0788896  53.8566211
  11.3499992 123.0039978  43.7790014  10.6389992 123.5389978  43.4270014
  12.0409992 123.0589978  43.1190014  11.3460751 123.0846777  43.6415858
  11.4039992 121.4609978  40.8170014  12.1049992 121.4839978  41.4690014
  11.7059992 120.8329978  40.1610014  11.5408202 121.3792212  40.8175609
  18.7189992 122.3819978  52.0720014  18.0669992 123.0759978  52.1610014
  19.1849992 122.5919978  51.2620014  18.6925937 122.5055019  51.9747533
  14.7559992 123.2129978  44.7300014  14.0239992 123.4419978  45.3040014
  15.2029992 122.4999978  45.1850014  14.7163963 123.1478729  44.8699945
  14.6529992 121.3879978  53.7980014  14.7329992 122.1509978  54.3700014
  14.0519992 121.6669978  53.1080014  14.5826547 121.5302457  53.7830047
   6.4009992 123.8439978  46.6130014   6.0709992 123.4729978  45.7950014
   6.9899992 123.1729978  46.9600014   6.4353970 123.7026063  46.5479404
   7.7679992 127.2719978  49.2940014   7.6729992 126.6929978  48.5380014
   8.4969992 126.9009978  49.7900014   7.8536011 127.1425561  49.2576028
   6.7679992 122.6119978  50.2460014   7.3329992 122.7339978  49.4840014
   7.0869992 123.2499978  50.8850014   6.8884166 122.7148791  50.2280348
  13.0769992 128.1159978  50.9800014  12.8369992 128.7779978  51.6280014
  12.8789992 127.2809978  51.4050014  13.0173826 128.0938115  51.1261566
   7.6479992 127.0119978  54.9640014   7.3369992 127.7939978  55.4190014
   6.9979992 126.8589978  54.2780014   7.5175538 127.0984087  54.9335898
  13.6269992 122.3759978  42.4160014  14.2059992 122.5259978  43.1620014
  14.0409992 122.8459978  41.6920014  13.7623358 122.4600954  42.4203953
   4.5679992 123.2099978  54.1920014   4.6379992 123.8609978  54.8910014
   3.6769992 123.3129978  53.8570014   4.4571690 123.3129249  54.2423043
  11.3529992 129.1119978  45.8510014  11.8269992 129.4079978  46.6280014
  10.7899992 129.8509978  45.6180014  11.3417890 129.2523036  45.9258101
   5.8869992 129.0829978  55.7270014   5.8949992 128.9469978  54.7800014
   4.9709992 128.9659978  55.9790014   5.7642528 129.0485463  55.6313243
  17.3259992 114.1259978  42.2290014  16.4259992 114.2649978  42.5240014
  17.5779992 114.9569978  41.8270014  17.2368683 114.2574055  42.2150232
   5.3919992 122.9129978  44.2020014   5.0999992 123.6809978  43.7110014
   4.7169992 122.2539978  44.0390014   5.2608497 122.9289745  44.1128260
  18.5149992 128.4919978  40.6050014  18.5879992 129.4309978  40.7750014
  19.4199992 128.1869978  40.5490014  18.6474170 128.5793282  40.6207063
   1.4849992 125.2759978  53.0170014   0.9829992 125.2479978  52.2020014
   1.4899992 124.3709978  53.3270014   1.4169832 125.1497486  52.9474121
   1.2349992 128.0569978  49.9010014   2.1809992 127.9119978  49.8820014
   1.1219992 128.8409978  50.4380014   1.3493578 128.1431697  49.9710317
  19.4329992 128.7229978  55.5840014  19.3829992 127.7669978  55.5460014
  18.6059992 128.9899978  55.9850014  19.3143831 128.6284680  55.6330121
  10.4109992 128.2969978  54.4600014  10.4989992 129.1229978  54.9350014
   9.5479992 127.9669978  54.7090014  10.3063357 128.3655468  54.5587653
  10.8259992 132.0689978  44.2660014  10.7499992 131.9479978  43.3190014
  10.8579992 133.0179978  44.3840014  10.8199380 132.1807677  44.1525181
   4.4789992 130.8579978  46.0470014   4.6309992 130.5099978  46.9250014
   3.6279992 130.5009978  45.7910014   4.3848344 130.7620879  46.1326868
  13.9269992 131.2229978  41.2680014  14.3019992 130.4789978  40.7970014
  13.9319992 130.9529978  42.1860014  13.9790098 131.0846392  41.3276629
  13.5959992 131.1489978  44.0170014  12.6609992 131.2489978  44.1960014
  13.8759992 130.4389978  44.5960014  13.5059471 131.0667933  44.1196695
  16.5849992 120.2159978  56.0640014  16.1769992 120.6959978  55.3430014
  16.6249992 119.3099978  55.7560014  16.5346221 120.1592449  55.9238267
   3.7339992 126.5999978  54.0600014   3.9499992 126.2379978  54.9200014
   2.8779992 126.2249978  53.8510014   3.6478810 126.4998837  54.1492680
   6.3519992 115.0699978  50.0560014   5.4909992 114.9829978  49.6480014
   6.3299992 115.9259978  50.4840014   6.2310491 115.1738003  50.0579582
  11.0149992 114.7919978  53.4310014  11.4349992 114.3769978  54.1840014
  10.0819992 114.6129978  53.5480014  10.9463736 114.7109910  53.5498968
  14.3419992 118.5469978  54.2840014  13.8279992 118.4219978  55.0820014
  14.1859992 119.4599978  54.0400014  14.2506967 118.6532123  54.3600937
  15.1039992 123.4079978  40.0450014  15.1459992 123.1859978  39.1150014
  15.9529992 123.8069978  40.2350014  15.2245253 123.4315498  39.9433822
  10.6769992 117.2839978  40.7160014  10.4229992 117.3029978  41.6380014
  10.4199992 116.4129978  40.4140014  10.6074508 117.1688280  40.8014803
   6.4429992 120.0349978  51.1510014   5.8019992 119.9949978  51.8600014
   6.4809992 120.9619978  50.9130014   6.3603010 120.1547668  51.2159946
   6.4399992 120.2559978  46.0630014   5.5479992 119.9159978  46.0040014
   6.8909992 119.8789978  45.3070014   6.3787642 120.1584910  45.9527726
  11.9759992 120.6719978  44.8800014  11.5669992 121.4869978  44.5880014
  12.6959992 120.5319978  44.2660014  12.0174439 120.7645372  44.7570115
  11.0779992 120.8479978  56.3680014  10.5149992 120.1429978  56.6890014
  11.9039992 120.7269978  56.8360014  11.1126674 120.7352165  56.4751751
  12.9809992 120.1179978  47.6940014  12.7849992 120.7239978  46.9790014
  13.1619992 119.2849978  47.2600014  12.9786584 120.0882513  47.5374212
   4.1929992 120.3559978  53.0180014   4.1549992 120.7559978  53.8870014
   3.7029992 119.5389978  53.1080014   4.1215330 120.3002674  53.1491289
   7.5589992 117.7299978  39.8170014   7.1279992 117.2849978  40.5460014
   6.8409992 118.1009978  39.3040014   7.4029176 117.7192051  39.8474930
   0.8019992 117.4719978  46.8690014   1.4319992 117.4429978  47.5880014
   1.2509992 117.0469978  46.1380014   0.9490835 117.4105660  46.8687659
   2.0759992 118.2179978  42.2930014   2.5499992 118.8089978  41.7080014
   1.3579992 118.7479978  42.6400014   2.0438640 118.3705511  42.2597969
  12.2449992 121.7559978  52.3650014  12.5679992 121.1249978  51.7220014
  11.8039992 121.2219978  53.0260014  12.2296379 121.5973468  52.3662582
   9.0219992 117.6839978  47.1490014   8.1109992 117.7409978  47.4380014
   9.5269992 117.6239978  47.9600014   8.9656873 117.6836826  47.2981207
   3.8499992 119.3129978  45.9760014   2.9609992 119.4119978  45.6360014
   4.1469992 118.4709978  45.6300014   3.7684177 119.2127687  45.8826940
   7.5029992 119.3129978  43.6330014   8.4349992 119.4419978  43.8110014
   7.2879992 119.9819978  42.9830014   7.6014472 119.4210806  43.5694891
  13.4269992 116.9189978  50.4140014  12.7499992 117.0499978  51.0770014
  12.9419992 116.7639978  49.6030014  13.2687405 116.9159947  50.3952170
   6.1769992 120.5069978  41.1990014   5.6349992 120.1279978  40.5080014
   7.0109992 120.7019978  40.7710014   6.2154390 120.4814079  41.0464392
  16.7149992 132.5899978  56.6900014  16.9139992 133.0139978  55.8560014
  17.3699992 132.9339978  57.2970014  16.8308522 132.6946301  56.6577852
   4.3129992 125.0639978  56.2980014   5.0449992 125.3189978  56.8600014
   3.5319992 125.2689978  56.8140014   4.3076526 125.1265450  56.4445176
  10.3419992 120.4709978  49.0360014  10.9059992 119.9249978  48.4890014
  10.1939992 119.9499978  49.8250014  10.3993037 120.3256787  49.0677229
   5.3439992 116.6079978  45.4550014   5.0269992 115.7049978  45.4190014
   6.1249992 116.6099978  44.9020014   5.4062431 116.4847797  45.3753102
   8.9679992 118.8599978  51.4500014   8.1329992 119.3139978  51.5610014
   9.4919992 119.1359978  52.2020014   8.9246072 118.9593948  51.5668136
   9.5129992 125.0729978  43.1350014   8.7679992 124.5649978  42.8130014
   9.3779992 125.1219978  44.0810014   9.3928963 125.0101731  43.2188826
  16.6629992 124.2059978  51.9220014  17.3039992 124.6619978  51.3780014
  15.8319992 124.3189978  51.4590014  16.6385287 124.2836921  51.7849887
  13.4099992 117.8869978  41.3340014  12.4719992 117.9979978  41.1830014
  13.7079992 118.7429978  41.6410014  13.3216318 118.0180158  41.3548145
  11.0319992 125.2569978  54.3720014  10.6859992 124.8749978  55.1790014
  10.8319992 126.1899978  54.4430014  10.9575987 125.3309002  54.4920461
  14.1289992 119.7539978  42.9950014  15.0209992 119.6159978  43.3140014
  14.1849992 120.5449978  42.4580014  14.2587325 119.8419918  42.9661217
   4.6369992 124.3679978  48.9050014   5.3819992 124.3649978  48.3030014
   4.7149992 123.5439978  49.3860014   4.7493366 124.2562384  48.8877430
  11.6379992 126.5309978  42.1600014  11.3429992 127.3579978  42.5420014
  10.9349992 125.9119978  42.3570014  11.5026379 126.5604171  42.2388654
   1.6449992 122.8279978  54.2200014   1.8679992 122.4099978  55.0510014
   1.0429992 122.2159978  53.7970014   1.5941513 122.6879606  54.2766740
   8.6619992 122.3449978  56.4330014   8.3659992 122.1799978  55.5370014
   9.5929992 122.1249978  56.4220014   8.7474401 122.2926879  56.3090206
  13.2819992 127.7189978  54.3220014  12.3819992 127.9019978  54.0550014
  13.3159992 127.9779978  55.2430014  13.1633748 127.7790554  54.4099164
  19.0139992 119.9629978  42.6900014  18.4589992 119.5669978  42.0170014
  19.1139992 120.8739978  42.4120014  18.9516816 120.0319505  42.5605033
  18.9769992 125.7639978  55.5270014  18.1259992 126.0019978  55.1590014
  19.5669992 125.7469978  54.7740014  18.9403812 125.7942524  55.3748453
  17.3089992 128.7489978  43.1550014  16.9359992 127.9239978  43.4640014
  17.5859992 128.5659978  42.2570014  17.2953463 128.6112569  43.0759525
  14.4689992 123.5569978  50.1760014  13.5409992 123.3259978  50.1490014
  14.9199992 122.7799978  49.8460014  14.4028165 123.4202774  50.1276790
   7.0119992 127.8859978  46.3090014   7.5399992 128.6589978  46.1090014
   6.1319992 128.1099978  46.0070014   6.9653435 128.0222700  46.2407310
   2.7669992 122.7479978  40.8960014   3.3829992 123.3749978  41.2760014
   1.9049992 123.0639978  41.1680014   2.7347678 122.8764412  40.9847209
   8.4399992 125.5489978  45.8850014   8.1989992 126.4739978  45.9270014
   7.6989992 125.0899978  46.2820014   8.3069206 125.6135915  45.9443769
   8.9539992 129.6979978  52.2000014   9.3169992 130.5519978  51.9670014
   9.4859992 129.4059978  52.9410014   9.0755141 129.7753895  52.2682097
   7.1229992 130.5699978  45.4310014   6.1729992 130.6759978  45.4820014
   7.4749992 131.3909978  45.7750014   7.0405472 130.6954923  45.4844852
  12.4979992 125.7969978  51.9010014  12.0729992 125.5689978  52.7270014
  13.0789992 125.0579978  51.7190014  12.5183395 125.6659545  51.9894414
  14.7009992 126.7259978  40.9750014  15.0549992 126.3459978  41.7790014
  13.7529992 126.6319978  41.0620014  14.6212298 126.6612452  41.0968687
  15.1569992 130.3489978  54.3700014  14.5549992 129.7929978  53.8750014
  15.4379992 131.0159978  53.7440014  15.1125757 130.3630744  54.2175675
  19.2049992 131.2049978  41.1760014  19.9489992 131.7909978  41.0360014
  18.5109992 131.7739978  41.5090014  19.2129809 131.3620818  41.2018590
   3.2789992 117.5819978  53.7780014   2.3869992 117.9199978  53.7100014
   3.1809992 116.7259978  54.1960014   3.1434475 117.5126543  53.8251704
  15.5669992 125.3979978  43.2020014  15.2899992 124.6699978  43.7580014
  16.4949992 125.5169978  43.4070014  15.6544499 125.3144213  43.3058044
   2.9309992 129.3859978  52.2130014   3.1479992 128.4539978  52.1820014
   3.1769992 129.6609978  53.0960014   2.9939809 129.2955686  52.3281690
   8.7919992 127.8379978  39.4220014   9.0309992 127.0889978  38.8750014
   8.5229992 127.4499978  40.2550014   8.7883233 127.6831853  39.4597809
   7.7289992 127.4079978  41.8780014   7.8759992 126.8879978  42.6680014
   7.7259992 128.3149978  42.1850014   7.7487102 127.4593953  42.0275925
   4.1819992 124.6599978  42.3890014   3.4959992 125.0129978  42.9560014
   4.7049992 125.4229978  42.1420014   4.1588402 124.8113901  42.4331801
  12.0139992 117.3229978  52.6680014  12.7129992 117.3969978  53.3180014
  11.6329992 116.4579978  52.8220014  12.0582097 117.2162389  52.7777997
  12.7979992 116.9749978  43.7650014  13.0179992 117.4459978  42.9610014
  13.3569992 117.3689978  44.4350014  12.9036731 117.0927287  43.7455033
  10.4669992 129.1049978  42.6280014   9.6499992 129.6019978  42.6800014
  10.9959992 129.5809978  41.9870014  10.4268125 129.2371989  42.5485306
   9.9979992 118.7029978  44.6000014  10.8099992 119.2069978  44.6460014
   9.7539992 118.5579978  45.5140014  10.0761467 118.7523749  44.7298575
  10.5339992 119.6889978  53.7840014  10.6529992 120.2629978  54.5410014
  11.1889992 119.0009978  53.8990014  10.6388684 119.6745194  53.9031674
  10.8819992 115.7839978  45.5380014  10.5349992 116.4009978  46.1820014
  11.5409992 116.2849978  45.0560014  10.9235090 115.9361575  45.5610681
   7.8049992 130.1489978  42.6090014   7.9659992 130.9489978  42.1090014
   7.6079992 130.4559978  43.4940014   7.8003906 130.2998678  42.6602333
   6.5399992 116.8469978  42.2250014   6.4559992 117.7349978  42.5720014
   7.4299992 116.5819978  42.4570014   6.6488163 116.9327179  42.3038596
  16.7379992 117.5959978  54.6190014  15.8219992 117.8579978  54.5320014
  17.0739992 117.5929978  53.7230014  16.6578499 117.6315163  54.4858766
  15.3409992 121.3459978  48.7150014  14.5429992 120.9309978  48.3870014
  15.7859992 120.6559978  49.2060014  15.2919684 121.1958628  48.7365227
   4.7979992 127.2739978  41.2850014   5.3899992 127.9739978  41.5620014
   5.2569992 126.8409978  40.5660014   4.9411652 127.3112675  41.2256533
   3.1139992 119.9389978  40.4010014   3.0689992 120.8779978  40.5800014
   2.2259992 119.7029978  40.1320014   2.9878166 120.0356687  40.3891524
  16.4269992 130.6019978  50.3370014  16.2709992 131.2809978  49.6800014
  17.3599992 130.6739978  50.5400014  16.5317387 130.7046390  50.2745342
   3.9219992 114.7199978  49.0750014   3.6929992 114.7789978  48.1470014
   3.4799992 113.9289978  49.3810014   3.8308801 114.6210540  48.9894729
   2.8529992 128.6609978  45.2350014   2.0199992 129.1329978  45.2620014
   3.3979992 129.1709978  44.6360014   2.8127857 128.7944791  45.1577142
   2.1409992 131.2729978  56.5650014   2.6809992 131.0569978  57.3250014
   1.6599992 130.4679978  56.3750014   2.1499219 131.1345156  56.6434282
   6.7379992 130.1929978  58.1850014   7.5059992 129.7339978  58.5260014
   6.7169992 129.9669978  57.2550014   6.8402135 130.0996668  58.1059491
  10.8299992 129.7009978  39.5610014  10.1859992 129.0699978  39.8820014
  11.5919992 129.1699978  39.3290014  10.8448058 129.5427902  39.5736038
  13.3149992 128.5729978  56.9140014  12.9639992 127.7159978  57.1580014
  14.0409992 128.7149978  57.5210014  13.3651895 128.4751351  57.0293770
  15.4349992 129.5179978  39.7940014  15.7179992 128.7229978  40.2470014
  16.1739992 129.7509978  39.2330014  15.5737096 129.4407049  39.7801104
   2.0479992 125.0839978  57.5190014   2.1919992 124.1819978  57.2330014
   1.2759992 125.3699978  57.0320014   1.9632733 124.9991798  57.4139532
   6.3889992 125.4269978  39.6520014   6.4539992 124.6329978  40.1820014
   7.0419992 125.3089978  38.9620014   6.4861605 125.3023430  39.6312997
   8.7029992 125.0529978  56.9520014   8.3749992 125.3239978  56.0950014
   8.8549992 124.1119978  56.8640014   8.6786412 124.9629046  56.8227822
  11.7419992 126.4739978  39.3880014  11.4729992 126.6549978  40.2880014
  11.5349992 125.5489978  39.2560014  11.6771191 126.3737119  39.4935524
  14.4379992 124.9689978  54.3350014  15.1829992 125.5579978  54.2160014
  13.6809992 125.5509978  54.3990014  14.4375470 125.1282128  54.3273799
   2.8809992 122.2839978  56.9390014   3.2889992 121.4269978  56.8180014
   2.6199992 122.2979978  57.8600014   2.9016016 122.1685119  57.0469192
   7.5389992 123.3999978  41.9580014   7.0789992 122.9159978  42.6430014
   7.7939992 122.7309978  41.3220014   7.5104856 123.2433669  41.9658397
   6.8279992 121.2929978  54.3140014   6.2089992 121.9669978  54.5940014
   7.1719992 121.6139978  53.4800014   6.7897123 121.4286887  54.2396388
   8.6099992 121.6429978  40.2200014   8.4289992 121.4879978  39.2930014
   9.5599992 121.7509978  40.2650014   8.7136566 121.6363669  40.0990929
  11.8469992 123.7639978  57.5910014  12.8009992 123.8479978  57.5640014
  11.6869992 123.0519978  58.2110014  11.9557182 123.6792842  57.6710733
  17.9999992 123.9969978  39.6660014  17.7259992 123.5729978  38.8530014
  18.0389992 124.9289978  39.4490014  17.9677716 124.0648827  39.5254286
   7.1669992 118.6479978  55.3960014   7.3169992 117.9189978  54.7940014
   7.1689992 119.4249978  54.8370014   7.1877967 118.6532708  55.2380541
   7.5799992 117.0169978  52.8890014   8.1149992 117.4689978  52.2370014
   6.7269992 116.9089978  52.4660014   7.5380374 117.0642665  52.7426710
   9.1609992 122.4569978  53.1280014   9.9119992 122.3009978  52.5550014
   8.8219992 123.3089978  52.8530014   9.2179587 122.5508138  53.0124078
  13.5769992 120.2719978  58.1570014  13.7689992 119.3409978  58.0450014
  14.4349992 120.6969978  58.1460014  13.7192182 120.2020070  58.1401862
  14.8939992 123.0609978  56.2340014  14.6119992 123.7699978  55.6560014
  15.8359992 122.9879978  56.0830014  14.9827921 123.1482193  56.1344225
   5.6459992 119.8459978  57.3070014   4.8779992 119.3129978  57.0970014
   6.3239992 119.5359978  56.7080014   5.6327235 119.7311754  57.1972413
   8.3849992 114.4739978  53.3200014   8.2869992 115.4199978  53.2150014
   7.6429992 114.1009978  52.8440014   8.2712534 114.5531773  53.2412600
   9.6489992 118.7949978  56.8840014   9.4139992 118.5759978  57.7850014
   8.8659992 118.5879978  56.3740014   9.5109095 118.7369892  56.9385353
  12.3649992 117.9229978  55.9590014  11.4169992 117.9549978  56.0910014
  12.6769992 117.2969978  56.6130014  12.2775293 117.8427923  56.0654148
  13.9989992 116.5569978  57.9640014  13.9019992 115.6049978  57.9590014
  13.6769992 116.8249978  58.8250014  13.9422468 116.4630884  58.0796210
   3.8259992 117.7659978  57.0120014   4.0379992 117.0599978  56.4020014
   3.7149992 117.3289978  57.8560014   3.8400269 117.6101921  57.0425873
   8.6069992 113.7679978  55.9910014   9.3189992 113.1279978  55.9770014
   8.5059992 114.0339978  55.0780014   8.6907387 113.7164330  55.8655563
   8.9609992 115.4499978  58.0450014   8.8289992 114.9749978  57.2250014
   8.3609992 116.1949978  57.9900014   8.8619070 115.4855789  57.9253251
   8.5069992 132.3329978  41.2210014   9.4399992 132.4909978  41.3650014
   8.2429992 133.0089978  40.5960014   8.5989911 132.4459373  41.1562722
   2.0749992 126.9699978  40.7040014   2.9889992 127.0489978  40.9770014
   2.0829992 126.2829978  40.0380014   2.2010655 126.8879205  40.6512917
   0.7239992 132.3629978  45.7810014   0.0769992 131.9009978  45.2490014
   1.0789992 131.6909978  46.3640014   0.6833741 132.2089774  45.7869175
   1.5939992 130.4429978  47.5860014   1.2599992 129.5629978  47.7580014
   1.8169992 130.7889978  48.4510014   1.5783721 130.3691938  47.7264168
  19.1429992 131.2529978  50.5670014  19.1209992 131.4379978  51.5060014
  19.8329992 131.8209978  50.2260014  19.2333439 131.3551887  50.6494791
  18.7059992 130.8199978  53.4880014  18.2189992 130.0849978  53.1170014
  19.2549992 130.4259978  54.1660014  18.7135247 130.6661057  53.5288461
  17.1569992 126.6099978  58.1270014  16.2909992 126.5049978  58.5210014
  17.5329992 127.3679978  58.5730014  17.0893401 126.6981708  58.2412620
  18.4579992 124.8659978  43.6410014  19.3079992 125.2869978  43.7680014
  18.4629992 124.1259978  44.2480014  18.5751143 124.8236094  43.7404750
  18.8519992 122.9199978  45.4640014  18.1259992 122.4399978  45.8620014
  19.4339992 123.1249978  46.1970014  18.8312730 122.8820184  45.6174149
  18.6109992 125.7049978  50.4120014  19.4449992 125.3269978  50.1310014
  18.7229992 126.6479978  50.2930014  18.7401917 125.7807943  50.3574861
  17.0979992 128.5829978  52.7190014  16.4499992 128.9079978  53.3440014
  16.5799992 128.1419978  52.0450014  16.9394196 128.5678651  52.7134152
  19.1209992 122.8209978  41.8550014  18.5989992 123.1769978  41.1370014
  19.0879992 123.4959978  42.5340014  19.0450129 122.9609598  41.8483355
  17.4699992 120.0599978  40.4060014  17.5659992 120.7269978  39.7260014
  17.3299992 119.2449978  39.9250014  17.4642040 120.0410671  40.2478378
  16.6389992 121.4409978  46.0270014  16.4889992 120.4959978  46.0070014
  16.2849992 121.7219978  46.8710014  16.5706351 121.3496644  46.1383220
   1.6739992 123.5189978  50.0380014   1.8589992 123.4369978  49.1020014
   2.5239992 123.3949978  50.4610014   1.8140928 123.4910463  49.9672893
  17.4949992 123.4109978  55.6660014  18.0779992 122.6759978  55.8580014
  18.0589992 124.1829978  55.7130014  17.6509781 123.4148145  55.6986164
  18.9919992 121.3139978  56.3510014  18.1289992 120.9349978  56.1850014
  19.5959992 120.5749978  56.2760014  18.9556085 121.1623223  56.3181695
  16.7169992 117.4679978  39.5240014  17.3279992 117.0969978  40.1610014
  15.8799992 117.0469978  39.7200014  16.6874947 117.3602756  39.6377252
  16.3499992 119.0229978  44.4900014  16.6289992 118.1159978  44.6140014
  17.1089992 119.4569978  44.1010014  16.4908619 118.9574502  44.4543795
  16.9609992 119.6049978  49.9260014  17.8939992 119.8169978  49.8910014
  16.7259992 119.7059978  50.8480014  17.0569517 119.6476833  50.0459130
  16.9909992 120.3419978  52.7020014  16.1479992 120.6099978  53.0680014
  17.4329992 121.1639978  52.4910014  16.9354138 120.4898273  52.7235518
   1.2719992 118.7889978  56.1780014   2.1909992 118.6669978  56.4150014
   0.8219992 118.0389978  56.5680014   1.3370087 118.6709608  56.2631410
  19.2739992 114.3219978  58.0550014  19.6229992 113.6679978  57.4500014
  19.4209992 115.1589978  57.6150014  19.3416824 114.3456024  57.9126304
  16.9629992 116.2859978  44.5380014  17.1449992 115.8369978  45.3630014
  16.3629992 115.7019978  44.0740014  16.9068187 116.1455552  44.5882739
   2.4929992 117.1019978  49.0700014   2.9379992 116.3099978  49.3720014
   2.9589992 117.8179978  49.5000014   2.6169718 117.0904534  49.1695265
   0.7969992 120.1009978  50.1390014   1.2889992 119.8799978  49.3480014
   1.1589992 120.9409978  50.4200014   0.9132923 120.1843468  50.0687407
  18.7929992 116.4309978  56.4040014  17.8759992 116.7019978  56.3690014
  18.9159992 115.8959978  55.6200014  18.6839672 116.3957885  56.2931862
  18.8299992 116.3539978  41.0660014  19.2419992 115.6329978  40.5910014
  19.5109992 117.0229978  41.1240014  18.9785536 116.3457766  41.0088024
   1.1109992 116.3589978  44.1930014   0.1859992 116.5669978  44.0640014
   1.5649992 116.8429978  43.5030014   1.0456298 116.4529299  44.0820451
  15.8809992 131.3429978  46.1390014  16.5339992 130.9949978  45.5310014
  16.3919992 131.8309978  46.7850014  16.0392777 131.3613815  46.1432047
   1.0739992 115.0969978  52.5370014   0.4089992 114.8509978  53.1800014
   0.6309992 115.7189978  51.9600014   0.9231168 115.1474214  52.5469848
   3.2659992 128.2719978  56.6820014   2.4449992 128.4469978  56.2210014
   3.0139992 128.1989978  57.6020014   3.1195594 128.2860717  56.7433611
   6.2199992 129.2459978  52.9400014   5.7959992 130.0559978  52.6580014
   7.1249992 129.3319978  52.6380014   6.2842138 129.3684160  52.8606415
  10.5319992 130.6449978  55.9000014  10.7159992 130.3119978  56.7780014
  11.3779992 130.9549978  55.5780014  10.6716484 130.6412979  55.9767617
  12.8769992 131.9309978  55.1440014  13.5539992 131.2979978  54.9040014
  13.1979992 132.3319978  55.9510014  13.0131323 131.8985691  55.2203158
  17.7939992 114.5209978  54.2230014  16.9809992 114.8459978  53.8360014
  18.0269992 113.7599978  53.6900014  17.7141347 114.4626880  54.0979841
   3.6219992 132.5029978  52.9880014   2.9019992 132.9429978  52.5370014
   3.2569992 132.2519978  53.8360014   3.4739643 132.5293369  53.0409129
   6.0889992 132.1029978  52.0180014   5.2249992 132.1749978  52.4220014
   6.0339992 132.6499978  51.2340014   5.9631942 132.1867849  51.9674000
  10.7999992 131.9909978  51.1930014  10.3429992 132.5199978  50.5390014
  10.9629992 132.5939978  51.9180014  10.7594960 132.1449280  51.2015274
  13.1279992 130.8689978  52.1380014  12.2229992 131.0339978  51.8720014
  13.5559992 131.7219978  52.0720014  13.0621537 131.0069134  52.0927095
  15.7319992 132.4389978  52.4330014  15.5499992 133.3549978  52.2220014
  15.9089992 132.0279978  51.5860014  15.7310030 132.5088273  52.2897166
   3.0369992 131.1259978  49.8980014   3.0189992 130.6999978  50.7550014
   3.8419992 130.8069978  49.4890014   3.1432875 131.0246435  49.9599515
   5.1779992 129.8359978  48.5530014   4.9589992 128.9189978  48.7230014
   6.0019992 129.9759978  49.0190014   5.2594702 129.7295511  48.6392527
   7.7149992 130.3059978  49.4020014   7.9279992 129.4179978  49.1150014
   7.7799992 130.2709978  50.3560014   7.7529149 130.1798326  49.4917369
  11.2239992 115.9699978  48.5460014  10.5499992 115.3399978  48.8020014
  11.7879992 115.4859978  47.9430014  11.2080384 115.8183708  48.4995020
  16.3669992 114.0769978  48.6590014  16.9699992 114.6249978  48.1570014
  15.4969992 114.3959978  48.4180014  16.3319157 114.1950373  48.5577910
  18.0939992 115.2159978  46.9920014  18.7049992 114.7019978  46.4650014
  18.4759992 116.0929978  47.0150014  18.2293305 115.2642050  46.9229418
   3.5509992 114.6039978  46.3680014   2.7739992 114.3689978  45.8610014
   4.0809992 113.8069978  46.3770014   3.5163451 114.4641268  46.2998627
   2.3869992 114.4019978  42.1720014   2.8259992 115.0129978  41.5800014
   1.7529992 114.9399978  42.6460014   2.3613859 114.5584064  42.1550305
   8.1299992 114.5299978  46.1810014   9.0039992 114.9189978  46.1520014
   7.9939992 114.3149978  47.1040014   8.2311953 114.5541643  46.3017617
  13.6869992 114.5599978  47.8310014  13.7629992 114.6559978  46.8810014
  13.4119992 113.6529978  47.9590014  13.6601871 114.4504146  47.7183944
  15.0399992 114.5859978  43.5230014  14.3369992 115.2009978  43.3130014
  14.5949992 113.7489978  43.6540014  14.8836550 114.5569668  43.5119837
   2.2879992 130.3499978  43.0690014   1.6029992 130.3119978  42.4020014
   2.2919992 131.2629978  43.3570014   2.1947621 130.4681924  43.0166126
   4.2479992 116.3179978  40.6140014   4.7389992 115.6879978  40.0870014
   4.8709992 116.6139978  41.2770014   4.3995304 116.2717376  40.6314940
   9.2739992 116.6109978  43.0710014   9.4519992 115.9639978  43.7540014
   9.2199992 117.4449978  43.5380014   9.2910678 116.6351604  43.2276301
  11.1519992 131.5589978  41.4670014  12.0179992 131.9259978  41.2890014
  10.9059992 131.1199978  40.6530014  11.2372097 131.5498525  41.3326019
  17.8609992 131.1219978  44.1460014  17.6669992 130.3739978  43.5810014
  17.8219992 131.8799978  43.5630014  17.8291645 131.1220786  43.9898148
   3.5079992 115.1179978  55.8860014   3.1419992 114.3519978  56.3280014
   4.4209992 115.1469978  56.1720014   3.5813172 115.0170324  55.9851890
   5.4809992 114.4679978  57.4210014   6.3799992 114.1939978  57.2370014
   5.0949992 113.7259978  57.8860014   5.5517307 114.3302196  57.4587098
   4.1059992 131.2699978  40.0940014   3.8379992 131.5559978  40.9680014
   4.8769992 130.7239978  40.2470014   4.1735926 131.2352779  40.2341205
  13.9029992 113.8009978  57.6040014  13.9789992 113.3749978  58.4570014
  14.7959992 113.8139978  57.2610014  14.0342303 113.7443493  57.6745497
  17.0789992 129.8739978  56.2960014  16.2969992 129.6869978  55.7760014
  17.0069992 130.8029978  56.5130014  16.9621924 129.9740637  56.2541602
  31.4849992 123.7599978  46.3270014  31.5739992 124.7039978  46.1950014
  30.8469992 123.4849978  45.6690014  31.4109062 123.8519812  46.2199641
  30.4179992 123.0149978  49.7460014  30.3799992 122.3689978  50.4510014
  30.0959992 122.5479978  48.9750014  30.3692679 122.8634276  49.7382921
  22.7859992 122.6289978  51.3390014  22.8279992 122.0039978  52.0620014
  23.4889992 123.2529978  51.5210014  22.8867345 122.6277873  51.4625274
  34.1239992 125.9539978  48.0470014  33.6829992 125.2339978  48.4980014
  34.1109992 126.6749978  48.6770014  34.0619215 125.9529291  48.1938105
  23.7099992 127.0789978  49.8740014  23.3399992 126.2769978  49.5040014
  24.6509992 126.9109978  49.9200014  23.7865984 126.9464638  49.8295603
  20.3199992 120.7389978  45.2660014  19.8719992 121.5849978  45.2480014
  19.7589992 120.1599978  44.7510014  20.1828546 120.7763993  45.1938891
  21.0299992 122.9009978  47.3920014  21.2439992 122.1309978  47.9200014
  21.7679992 122.9909978  46.7890014  21.1590200 122.8078586  47.3827035
  31.2359992 131.0579978  48.2590014  31.8549992 130.3819978  47.9860014
  31.0269992 130.8399978  49.1680014  31.2926056 130.9358869  48.3443967
  28.8069992 125.4469978  50.1520014  29.1109992 124.7609978  49.5570014
  29.5289992 125.5659978  50.7700014  28.9461240 125.3692314  50.1540959
  37.4699992 117.0489978  51.0120014  37.5199992 117.6589978  51.7480014
  37.8959992 117.5099978  50.2890014  37.5344108 117.1947709  51.0150112
  31.9479992 119.8409978  50.4790014  32.0909992 118.8949978  50.4990014
  31.8419992 120.0479978  49.5510014  31.9532403 119.7394797  50.3562239
  25.1029992 117.9429978  47.7520014  25.1459992 118.8029978  47.3330014
  24.6449992 117.3909978  47.1180014  25.0469871 117.9859245  47.6090761
  32.8249992 118.0739978  46.1530014  33.4719992 117.7449978  46.7770014
  33.3349992 118.5909978  45.5300014  32.9824351 118.0989067  46.1541037
  21.7229992 120.3399978  48.5140014  22.3769992 119.7899978  48.9460014
  21.7469992 120.0659978  47.5970014  21.8157199 120.2277167  48.4491668
  26.8799992 121.8899978  47.7290014  27.4959992 121.3629978  48.2380014
  26.2929992 121.2499978  47.3250014  26.8850154 121.7313954  47.7440945
  37.8619992 118.5269978  53.2480014  37.1729992 119.1849978  53.1530014
  37.8769992 118.3289978  54.1850014  37.7697756 118.5902603  53.3615812
  23.9129992 116.8609978  51.8260014  23.6939992 117.3909978  51.0590014
  23.2449992 117.0869978  52.4730014  23.7926975 116.9640967  51.8085140
  31.2819992 126.3609978  45.3700014  30.9869992 126.0379978  44.5180014
  30.9579992 127.2609978  45.4110014  31.1978460 126.4384464  45.2589714
  26.4819992 124.5359978  52.1130014  25.7419992 125.1349978  52.2170014
  27.1959992 125.0899978  51.7980014  26.4773500 124.6927829  52.0846371
  34.5889992 117.3649978  48.1330014  34.3739992 116.5989978  48.6660014
  35.2449992 117.8369978  48.6460014  34.6482673 117.3240728  48.2751990
  23.5069992 118.7529978  49.7780014  24.1209992 119.3859978  50.1510014
  24.0189992 118.2809978  49.1220014  23.6601962 118.7757249  49.7402935
  24.8899992 126.5009978  52.9000014  24.8839992 127.3799978  52.5220014
  24.0359992 126.4169978  53.3250014  24.7737925 126.6099535  52.9056887
  21.0109992 126.1719978  43.6820014  20.7389992 126.4009978  42.7940014
  21.0559992 127.0089978  44.1430014  20.9798097 126.3166163  43.6226683
  34.6359992 127.7929978  50.3950014  33.6939992 127.8519978  50.5570014
  34.9119992 128.6989978  50.2580014  34.5445865 127.9235288  50.3986192
  34.9359992 116.0799978  51.8120014  34.1999992 116.6899978  51.7750014
  35.6199992 116.4949978  51.2860014  34.9275367 116.2197551  51.7358174
  27.9399992 114.1659978  49.2780014  27.8219992 113.2179978  49.2240014
  27.0849992 114.4989978  49.5510014  27.8082805 114.0812202  49.3075079
  32.8879992 129.5739978  47.0200014  33.3129992 128.8669978  46.5350014
  33.2049992 130.3759978  46.6030014  32.9890266 129.5855190  46.8972479
  34.0479992 127.4749978  45.5290014  33.7899992 126.7849978  44.9170014
  34.1189992 127.0319978  46.3740014  34.0223050 127.3206814  45.5595621
  35.7339992 126.0419978  54.0060014  35.8729992 125.4499978  53.2670014
  35.9009992 126.9149978  53.6500014  35.7756193 126.0788896  53.8566211
  30.2059992 123.0039978  43.7790014  29.4949992 123.5389978  43.4270014
  30.8969992 123.0589978  43.1190014  30.2020751 123.0846777  43.6415858
  30.2599992 121.4609978  40.8170014  30.9609992 121.4839978  41.4690014
  30.5619992 120.8329978  40.1610014  30.3968202 121.3792212  40.8175609
  37.5749992 122.3819978  52.0720014  36.9229992 123.0759978  52.1610014
  38.0409992 122.5919978  51.2620014  37.5485937 122.5055019  51.9747533
  33.6119992 123.2129978  44.7300014  32.8799992 123.4419978  45.3040014
  34.0589992 122.4999978  45.1850014  33.5723963 123.1478729  44.8699945
  33.5089992 121.3879978  53.7980014  33.5889992 122.1509978  54.3700014
  32.9079992 121.6669978  53.1080014  33.4386547 121.5302457  53.7830047
  25.2569992 123.8439978  46.6130014  24.9269992 123.4729978  45.7950014
  25.8459992 123.1729978  46.9600014  25.2913970 123.7026063  46.5479404
  26.6239992 127.2719978  49.2940014  26.5289992 126.6929978  48.5380014
  27.3529992 126.9009978  49.7900014  26.7096011 127.1425561  49.2576028
  25.6239992 122.6119978  50.2460014  26.1889992 122.7339978  49.4840014
  25.9429992 123.2499978  50.8850014  25.7444166 122.7148791  50.2280348
  31.9329992 128.1159978  50.9800014  31.6929992 128.7779978  51.6280014
  31.7349992 127.2809978  51.4050014  31.8733826 128.0938115  51.1261566
  26.5039992 127.0119978  54.9640014  26.1929992 127.7939978  55.4190014
  25.8539992 126.8589978  54.2780014  26.3735538 127.0984087  54.9335898
  32.4829992 122.3759978  42.4160014  33.0619992 122.5259978  43.1620014
  32.8969992 122.8459978  41.6920014  32.6183358 122.4600954  42.4203953
  23.4239992 123.2099978  54.1920014  23.4939992 123.8609978  54.8910014
  22.5329992 123.3129978  53.8570014  23.3131690 123.3129249  54.2423043
  30.2089992 129.1119978  45.8510014  30.6829992 129.4079978  46.6280014
  29.6459992 129.8509978  45.6180014  30.1977890 129.2523036  45.9258101
  24.7429992 129.0829978  55.7270014  24.7509992 128.9469978  54.7800014
  23.8269992 128.9659978  55.9790014  24.6202528 129.0485463  55.6313243
  36.1819992 114.1259978  42.2290014  35.2819992 114.2649978  42.5240014
  36.4339992 114.9569978  41.8270014  36.0928683 114.2574055  42.2150232
  24.2479992 122.9129978  44.2020014  23.9559992 123.6809978  43.7110014
  23.5729992 122.2539978  44.0390014  24.1168497 122.9289745  44.1128260
  37.3709992 128.4919978  40.6050014  37.4439992 129.4309978  40.7750014
  38.2759992 128.1869978  40.5490014  37.5034170 128.5793282  40.6207063
  20.3409992 125.2759978  53.0170014  19.8389992 125.2479978  52.2020014
  20.3459992 124.3709978  53.3270014  20.2729832 125.1497486  52.9474121
  20.0909992 128.0569978  49.9010014  21.0369992 127.9119978  49.8820014
  19.9779992 128.8409978  50.4380014  20.2053578 128.1431697  49.9710317
  38.2889992 128.7229978  55.5840014  38.2389992 127.7669978  55.5460014
  37.4619992 128.9899978  55.9850014  38.1703831 128.6284680  55.6330121
  29.2669992 128.2969978  54.4600014  29.3549992 129.1229978  54.9350014
  28.4039992 127.9669978  54.7090014  29.1623357 128.3655468  54.5587653
  29.6819992 132.0689978  44.2660014  29.6059992 131.9479978  43.3190014
  29.7139992 133.0179978  44.3840014  29.6759380 132.1807677  44.1525181
  23.3349992 130.8579978  46.0470014  23.4869992 130.5099978  46.9250014
  22.4839992 130.5009978  45.7910014  23.2408344 130.7620879  46.1326868
  32.7829992 131.2229978  41.2680014  33.1579992 130.4789978  40.7970014
  32.7879992 130.9529978  42.1860014  32.8350098 131.0846392  41.3276629
  32.4519992 131.1489978  44.0170014  31.5169992 131.2489978  44.1960014
  32.7319992 130.4389978  44.5960014  32.3619471 131.0667933  44.1196695
  35.4409992 120.2159978  56.0640014  35.0329992 120.6959978  55.3430014
  35.4809992 119.3099978  55.7560014  35.3906221 120.1592449  55.9238267
  22.5899992 126.5999978  54.0600014  22.8059992 126.2379978  54.9200014
  21.7339992 126.2249978  53.8510014  22.5038810 126.4998837  54.1492680
  25.2079992 115.0699978  50.0560014  24.3469992 114.9829978  49.6480014
  25.1859992 115.9259978  50.4840014  25.0870491 115.1738003  50.0579582
  29.8709992 114.7919978  53.4310014  30.2909992 114.3769978  54.1840014
  28.9379992 114.6129978  53.5480014  29.8023736 114.7109910  53.5498968
  33.1979992 118.5469978  54.2840014  32.6839992 118.4219978  55.0820014
  33.0419992 119.4599978  54.0400014  33.1066967 118.6532123  54.3600937
  33.9599992 123.4079978  40.0450014  34.0019992 123.1859978  39.1150014
  34.8089992 123.8069978  40.2350014  34.0805253 123.4315498  39.9433822
  29.5329992 117.2839978  40.7160014  29.2789992 117.3029978  41.6380014
  29.2759992 116.4129978  40.4140014  29.4634508 117.1688280  40.8014803
  25.2989992 120.0349978  51.1510014  24.6579992 119.9949978  51.8600014
  25.3369992 120.9619978  50.9130014  25.2163010 120.1547668  51.2159946
  25.2959992 120.2559978  46.0630014  24.4039992 119.9159978  46.0040014
  25.7469992 119.8789978  45.3070014  25.2347642 120.1584910  45.9527726
  30.8319992 120.6719978  44.8800014  30.4229992 121.4869978  44.5880014
  31.5519992 120.5319978  44.2660014  30.8734439 120.7645372  44.7570115
  29.9339992 120.8479978  56.3680014  29.3709992 120.1429978  56.6890014
  30.7599992 120.7269978  56.8360014  29.9686674 120.7352165  56.4751751
  31.8369992 120.1179978  47.6940014  31.6409992 120.7239978  46.9790014
  32.0179992 119.2849978  47.2600014  31.8346584 120.0882513  47.5374212
  23.0489992 120.3559978  53.0180014  23.0109992 120.7559978  53.8870014
  22.5589992 119.5389978  53.1080014  22.9775330 120.3002674  53.1491289
  26.4149992 117.7299978  39.8170014  25.9839992 117.2849978  40.5460014
  25.6969992 118.1009978  39.3040014  26.2589176 117.7192051  39.8474930
  19.6579992 117.4719978  46.8690014  20.2879992 117.4429978  47.5880014
  20.1069992 117.0469978  46.1380014  19.8050835 117.4105660  46.8687659
  20.9319992 118.2179978  42.2930014  21.4059992 118.8089978  41.7080014
  20.2139992 118.7479978  42.6400014  20.8998640 118.3705511  42.2597969
  31.1009992 121.7559978  52.3650014  31.4239992 121.1249978  51.7220014
  30.6599992 121.2219978  53.0260014  31.0856379 121.5973468  52.3662582
  27.8779992 117.6839978  47.1490014  26.9669992 117.7409978  47.4380014
  28.3829992 117.6239978  47.9600014  27.8216873 117.6836826  47.2981207
  22.7059992 119.3129978  45.9760014  21.8169992 119.4119978  45.6360014
  23.0029992 118.4709978  45.6300014  22.6244177 119.2127687  45.8826940
  26.3589992 119.3129978  43.6330014  27.2909992 119.4419978  43.8110014
  26.1439992 119.9819978  42.9830014  26.4574472 119.4210806  43.5694891
  32.2829992 116.9189978  50.4140014  31.6059992 117.0499978  51.0770014
  31.7979992 116.7639978  49.6030014  32.1247405 116.9159947  50.3952170
  25.0329992 120.5069978  41.1990014  24.4909992 120.1279978  40.5080014
  25.8669992 120.7019978  40.7710014  25.0714390 120.4814079  41.0464392
  35.5709992 132.5899978  56.6900014  35.7699992 133.0139978  55.8560014
  36.2259992 132.9339978  57.2970014  35.6868522 132.6946301  56.6577852
  23.1689992 125.0639978  56.2980014  23.9009992 125.3189978  56.8600014
  22.3879992 125.2689978  56.8140014  23.1636526 125.1265450  56.4445176
  29.1979992 120.4709978  49.0360014  29.7619992 119.9249978  48.4890014
  29.0499992 119.9499978  49.8250014  29.2553037 120.3256787  49.0677229
  24.1999992 116.6079978  45.4550014  23.8829992 115.7049978  45.4190014
  24.9809992 116.6099978  44.9020014  24.2622431 116.4847797  45.3753102
  27.8239992 118.8599978  51.4500014  26.9889992 119.3139978  51.5610014
  28.3479992 119.1359978  52.2020014  27.7806072 118.9593948  51.5668136
  28.3689992 125.0729978  43.1350014  27.6239992 124.5649978  42.8130014
  28.2339992 125.1219978  44.0810014  28.2488963 125.0101731  43.2188826
  35.5189992 124.2059978  51.9220014  36.1599992 124.6619978  51.3780014
  34.6879992 124.3189978  51.4590014  35.4945287 124.2836921  51.7849887
  32.2659992 117.8869978  41.3340014  31.3279992 117.9979978  41.1830014
  32.5639992 118.7429978  41.6410014  32.1776318 118.0180158  41.3548145
  29.8879992 125.2569978  54.3720014  29.5419992 124.8749978  55.1790014
  29.6879992 126.1899978  54.4430014  29.8135987 125.3309002  54.4920461
  32.9849992 119.7539978  42.9950014  33.8769992 119.6159978  43.3140014
  33.0409992 120.5449978  42.4580014  33.1147325 119.8419918  42.9661217
  23.4929992 124.3679978  48.9050014  24.2379992 124.3649978  48.3030014
  23.5709992 123.5439978  49.3860014  23.6053365 124.2562384  48.8877430
  30.4939992 126.5309978  42.1600014  30.1989992 127.3579978  42.5420014
  29.7909992 125.9119978  42.3570014  30.3586379 126.5604171  42.2388654
  20.5009992 122.8279978  54.2200014  20.7239992 122.4099978  55.0510014
  19.8989992 122.2159978  53.7970014  20.4501513 122.6879606  54.2766740
  27.5179992 122.3449978  56.4330014  27.2219992 122.1799978  55.5370014
  28.4489992 122.1249978  56.4220014  27.6034401 122.2926879  56.3090206
  32.1379992 127.7189978  54.3220014  31.2379992 127.9019978  54.0550014
  32.1719992 127.9779978  55.2430014  32.0193748 127.7790554  54.4099164
  37.8699992 119.9629978  42.6900014  37.3149992 119.5669978  42.0170014
  37.9699992 120.8739978  42.4120014  37.8076816 120.0319505  42.5605033
  37.8329992 125.7639978  55.5270014  36.9819992 126.0019978  55.1590014
  38.4229992 125.7469978  54.7740014  37.7963812 125.7942524  55.3748453
  36.1649992 128.7489978  43.1550014  35.7919992 127.9239978  43.4640014
  36.4419992 128.5659978  42.2570014  36.1513463 128.6112569  43.0759525
  33.3249992 123.5569978  50.1760014  32.3969992 123.3259978  50.1490014
  33.7759992 122.7799978  49.8460014  33.2588165 123.4202774  50.1276790
  25.8679992 127.8859978  46.3090014  26.3959992 128.6589978  46.1090014
  24.9879992 128.1099978  46.0070014  25.8213435 128.0222700  46.2407310
  21.6229992 122.7479978  40.8960014  22.2389992 123.3749978  41.2760014
  20.7609992 123.0639978  41.1680014  21.5907678 122.8764412  40.9847209
  27.2959992 125.5489978  45.8850014  27.0549992 126.4739978  45.9270014
  26.5549992 125.0899978  46.2820014  27.1629206 125.6135915  45.9443769
  27.8099992 129.6979978  52.2000014  28.1729992 130.5519978  51.9670014
  28.3419992 129.4059978  52.9410014  27.9315141 129.7753895  52.2682097
  25.9789992 130.5699978  45.4310014  25.0289992 130.6759978  45.4820014
  26.3309992 131.3909978  45.7750014  25.8965472 130.6954923  45.4844852
  31.3539992 125.7969978  51.9010014  30.9289992 125.5689978  52.7270014
  31.9349992 125.0579978  51.7190014  31.3743395 125.6659545  51.9894414
  33.5569992 126.7259978  40.9750014  33.9109992 126.3459978  41.7790014
  32.6089992 126.6319978  41.0620014  33.4772298 126.6612452  41.0968687
  34.0129992 130.3489978  54.3700014  33.4109992 129.7929978  53.8750014
  34.2939992 131.0159978  53.7440014  33.9685757 130.3630744  54.2175675
  38.0609992 131.2049978  41.1760014  38.8049992 131.7909978  41.0360014
  37.3669992 131.7739978  41.5090014  38.0689809 131.3620818  41.2018590
  22.1349992 117.5819978  53.7780014  21.2429992 117.9199978  53.7100014
  22.0369992 116.7259978  54.1960014  21.9994475 117.5126543  53.8251704
  34.4229992 125.3979978  43.2020014  34.1459992 124.6699978  43.7580014
  35.3509992 125.5169978  43.4070014  34.5104499 125.3144213  43.3058044
  21.7869992 129.3859978  52.2130014  22.0039992 128.4539978  52.1820014
  22.0329992 129.6609978  53.0960014  21.8499809 129.2955686  52.3281690
  27.6479992 127.8379978  39.4220014  27.8869992 127.0889978  38.8750014
  27.3789992 127.4499978  40.2550014  27.6443233 127.6831853  39.4597809
  26.5849992 127.4079978  41.8780014  26.7319992 126.8879978  42.6680014
  26.5819992 128.3149978  42.1850014  26.6047102 127.4593953  42.0275925
  23.0379992 124.6599978  42.3890014  22.3519992 125.0129978  42.9560014
  23.5609992 125.4229978  42.1420014  23.0148402 124.8113901  42.4331801
  30.8699992 117.3229978  52.6680014  31.5689992 117.3969978  53.3180014
  30.4889992 116.4579978  52.8220014  30.9142097 117.2162389  52.7777997
  31.6539992 116.9749978  43.7650014  31.8739992 117.4459978  42.9610014
  32.2129992 117.3689978  44.4350014  31.7596731 117.0927287  43.7455033
  29.3229992 129.1049978  42.6280014  28.5059992 129.6019978  42.6800014
  29.8519992 129.5809978  41.9870014  29.2828125 129.2371989  42.5485306
  28.8539992 118.7029978  44.6000014  29.6659992 119.2069978  44.6460014
  28.6099992 118.5579978  45.5140014  28.9321467 118.7523749  44.7298575
  29.3899992 119.6889978  53.7840014  29.5089992 120.2629978  54.5410014
  30.0449992 119.0009978  53.8990014  29.4948684 119.6745194  53.9031674
  29.7379992 115.7839978  45.5380014  29.3909992 116.4009978  46.1820014
  30.3969992 116.2849978  45.0560014  29.7795090 115.9361575  45.5610681
  26.6609992 130.1489978  42.6090014  26.8219992 130.9489978  42.1090014
  26.4639992 130.4559978  43.4940014  26.6563906 130.2998678  42.6602333
  25.3959992 116.8469978  42.2250014  25.3119992 117.7349978  42.5720014
  26.2859992 116.5819978  42.4570014  25.5048163 116.9327179  42.3038596
  35.5939992 117.5959978  54.6190014  34.6779992 117.8579978  54.5320014
  35.9299992 117.5929978  53.7230014  35.5138499 117.6315163  54.4858766
  34.1969992 121.3459978  48.7150014  33.3989992 120.9309978  48.3870014
  34.6419992 120.6559978  49.2060014  34.1479684 121.1958628  48.7365227
  23.6539992 127.2739978  41.2850014  24.2459992 127.9739978  41.5620014
  24.1129992 126.8409978  40.5660014  23.7971652 127.3112675  41.2256533
  21.9699992 119.9389978  40.4010014  21.9249992 120.8779978  40.5800014
  21.0819992 119.7029978  40.1320014  21.8438166 120.0356687  40.3891524
  35.2829992 130.6019978  50.3370014  35.1269992 131.2809978  49.6800014
  36.2159992 130.6739978  50.5400014  35.3877387 130.7046390  50.2745342
  22.7779992 114.7199978  49.0750014  22.5489992 114.7789978  48.1470014
  22.3359992 113.9289978  49.3810014  22.6868801 114.6210540  48.9894729
  21.7089992 128.6609978  45.2350014  20.8759992 129.1329978  45.2620014
  22.2539992 129.1709978  44.6360014  21.6687857 128.7944791  45.1577142
  20.9969992 131.2729978  56.5650014  21.5369992 131.0569978  57.3250014
  20.5159992 130.4679978  56.3750014  21.0059219 131.1345156  56.6434282
  25.5939992 130.1929978  58.1850014  26.3619992 129.7339978  58.5260014
  25.5729992 129.9669978  57.2550014  25.6962135 130.0996668  58.1059491
  29.6859992 129.7009978  39.5610014  29.0419992 129.0699978  39.8820014
  30.4479992 129.1699978  39.3290014  29.7008058 129.5427902  39.5736038
  32.1709992 128.5729978  56.9140014  31.8199992 127.7159978  57.1580014
  32.8969992 128.7149978  57.5210014  32.2211895 128.4751351  57.0293770
  34.2909992 129.5179978  39.7940014  34.5739992 128.7229978  40.2470014
  35.0299992 129.7509978  39.2330014  34.4297096 129.4407049  39.7801104
  20.9039992 125.0839978  57.5190014  21.0479992 124.1819978  57.2330014
  20.1319992 125.3699978  57.0320014  20.8192733 124.9991798  57.4139532
  25.2449992 125.4269978  39.6520014  25.3099992 124.6329978  40.1820014
  25.8979992 125.3089978  38.9620014  25.3421605 125.3023430  39.6312997
  27.5589992 125.0529978  56.9520014  27.2309992 125.3239978  56.0950014
  27.7109992 124.1119978  56.8640014  27.5346412 124.9629046  56.8227822
  30.5979992 126.4739978  39.3880014  30.3289992 126.6549978  40.2880014
  30.3909992 125.5489978  39.2560014  30.5331191 126.3737119  39.4935524
  33.2939992 124.9689978  54.3350014  34.0389992 125.5579978  54.2160014
  32.5369992 125.5509978  54.3990014  33.2935470 125.1282128  54.3273799
  21.7369992 122.2839978  56.9390014  22.1449992 121.4269978  56.8180014
  21.4759992 122.2979978  57.8600014  21.7576016 122.1685119  57.0469192
  26.3949992 123.3999978  41.9580014  25.9349992 122.9159978  42.6430014
  26.6499992 122.7309978  41.3220014  26.3664856 123.2433669  41.9658397
  25.6839992 121.2929978  54.3140014  25.0649992 121.9669978  54.5940014
  26.0279992 121.6139978  53.4800014  25.6457123 121.4286887  54.2396388
  27.4659992 121.6429978  40.2200014  27.2849992 121.4879978  39.2930014
  28.4159992 121.7509978  40.2650014  27.5696566 121.6363669  40.0990929
  30.7029992 123.7639978  57.5910014  31.6569992 123.8479978  57.5640014
  30.5429992 123.0519978  58.2110014  30.8117182 123.6792842  57.6710733
  36.8559992 123.9969978  39.6660014  36.5819992 123.5729978  38.8530014
  36.8949992 124.9289978  39.4490014  36.8237716 124.0648827  39.5254286
  26.0229992 118.6479978  55.3960014  26.1729992 117.9189978  54.7940014
  26.0249992 119.4249978  54.8370014  26.0437967 118.6532708  55.2380541
  26.4359992 117.0169978  52.8890014  26.9709992 117.4689978  52.2370014
  25.5829992 116.9089978  52.4660014  26.3940374 117.0642665  52.7426710
  28.0169992 122.4569978  53.1280014  28.7679992 122.3009978  52.5550014
  27.6779992 123.3089978  52.8530014  28.0739587 122.5508138  53.0124078
  32.4329992 120.2719978  58.1570014  32.6249992 119.3409978  58.0450014
  33.2909992 120.6969978  58.1460014  32.5752182 120.2020070  58.1401862
  33.7499992 123.0609978  56.2340014  33.4679992 123.7699978  55.6560014
  34.6919992 122.9879978  56.0830014  33.8387921 123.1482193  56.1344225
  24.5019992 119.8459978  57.3070014  23.7339992 119.3129978  57.0970014
  25.1799992 119.5359978  56.7080014  24.4887235 119.7311754  57.1972413
  27.2409992 114.4739978  53.3200014  27.1429992 115.4199978  53.2150014
  26.4989992 114.1009978  52.8440014  27.1272534 114.5531773  53.2412600
  28.5049992 118.7949978  56.8840014  28.2699992 118.5759978  57.7850014
  27.7219992 118.5879978  56.3740014  28.3669095 118.7369892  56.9385353
  31.2209992 117.9229978  55.9590014  30.2729992 117.9549978  56.0910014
  31.5329992 117.2969978  56.6130014  31.1335293 117.8427923  56.0654148
  32.8549992 116.5569978  57.9640014  32.7579992 115.6049978  57.9590014
  32.5329992 116.8249978  58.8250014  32.7982468 116.4630884  58.0796210
  22.6819992 117.7659978  57.0120014  22.8939992 117.0599978  56.4020014
  22.5709992 117.3289978  57.8560014  22.6960269 117.6101921  57.0425873
  27.4629992 113.7679978  55.9910014  28.1749992 113.1279978  55.9770014
  27.3619992 114.0339978  55.0780014  27.5467387 113.7164330  55.8655563
  27.8169992 115.4499978  58.0450014  27.6849992 114.9749978  57.2250014
  27.2169992 116.1949978  57.9900014  27.7179070 115.4855789  57.9253251
  27.3629992 132.3329978  41.2210014  28.2959992 132.4909978  41.3650014
  27.0989992 133.0089978  40.5960014  27.4549911 132.4459373  41.1562722
  20.9309992 126.9699978  40.7040014  21.8449992 127.0489978  40.9770014
  20.9389992 126.2829978  40.0380014  21.0570655 126.8879205  40.6512917
  19.5799992 132.3629978  45.7810014  18.9329992 131.9009978  45.2490014
  19.9349992 131.6909978  46.3640014  19.5393741 132.2089774  45.7869175
  20.4499992 130.4429978  47.5860014  20.1159992 129.5629978  47.7580014
  20.6729992 130.7889978  48.4510014  20.4343721 130.3691938  47.7264168
  37.9989992 131.2529978  50.5670014  37.9769992 131.4379978  51.5060014
  38.6889992 131.8209978  50.2260014  38.0893439 131.3551887  50.6494791
  37.5619992 130.8199978  53.4880014  37.0749992 130.0849978  53.1170014
  38.1109992 130.4259978  54.1660014  37.5695247 130.6661057  53.5288461
  36.0129992 126.6099978  58.1270014  35.1469992 126.5049978  58.5210014
  36.3889992 127.3679978  58.5730014  35.9453401 126.6981708  58.2412620
  37.3139992 124.8659978  43.6410014  38.1639992 125.2869978  43.7680014
  37.3189992 124.1259978  44.2480014  37.4311143 124.8236094  43.7404750
  37.7079992 122.9199978  45.4640014  36.9819992 122.4399978  45.8620014
  38.2899992 123.1249978  46.1970014  37.6872730 122.8820184  45.6174149
  37.4669992 125.7049978  50.4120014  38.3009992 125.3269978  50.1310014
  37.5789992 126.6479978  50.2930014  37.5961917 125.7807943  50.3574861
  35.9539992 128.5829978  52.7190014  35.3059992 128.9079978  53.3440014
  35.4359992 128.1419978  52.0450014  35.7954196 128.5678651  52.7134152
  37.9769992 122.8209978  41.8550014  37.4549992 123.1769978  41.1370014
  37.9439992 123.4959978  42.5340014  37.9010129 122.9609598  41.8483355
  36.3259992 120.0599978  40.4060014  36.4219992 120.7269978  39.7260014
  36.1859992 119.2449978  39.9250014  36.3202040 120.0410671  40.2478378
  35.4949992 121.4409978  46.0270014  35.3449992 120.4959978  46.0070014
  35.1409992 121.7219978  46.8710014  35.4266351 121.3496644  46.1383220
  20.5299992 123.5189978  50.0380014  20.7149992 123.4369978  49.1020014
  21.3799992 123.3949978  50.4610014  20.6700928 123.4910463  49.9672893
  36.3509992 123.4109978  55.6660014  36.9339992 122.6759978  55.8580014
  36.9149992 124.1829978  55.7130014  36.5069781 123.4148145  55.6986164
  37.8479992 121.3139978  56.3510014  36.9849992 120.9349978  56.1850014
  38.4519992 120.5749978  56.2760014  37.8116085 121.1623223  56.3181695
  35.5729992 117.4679978  39.5240014  36.1839992 117.0969978  40.1610014
  34.7359992 117.0469978  39.7200014  35.5434947 117.3602756  39.6377252
  35.2059992 119.0229978  44.4900014  35.4849992 118.1159978  44.6140014
  35.9649992 119.4569978  44.1010014  35.3468619 118.9574502  44.4543795
  35.8169992 119.6049978  49.9260014  36.7499992 119.8169978  49.8910014
  35.5819992 119.7059978  50.8480014  35.9129517 119.6476833  50.0459130
  35.8469992 120.3419978  52.7020014  35.0039992 120.6099978  53.0680014
  36.2889992 121.1639978  52.4910014  35.7914138 120.4898273  52.7235518
  20.1279992 118.7889978  56.1780014  21.0469992 118.6669978  56.4150014
  19.6779992 118.0389978  56.5680014  20.1930087 118.6709608  56.2631410
  38.1299992 114.3219978  58.0550014  38.4789992 113.6679978  57.4500014
  38.2769992 115.1589978  57.6150014  38.1976824 114.3456024  57.9126304
  35.8189992 116.2859978  44.5380014  36.0009992 115.8369978  45.3630014
  35.2189992 115.7019978  44.0740014  35.7628187 116.1455552  44.5882739
  21.3489992 117.1019978  49.0700014  21.7939992 116.3099978  49.3720014
  21.8149992 117.8179978  49.5000014  21.4729718 117.0904534  49.1695265
  19.6529992 120.1009978  50.1390014  20.1449992 119.8799978  49.3480014
  20.0149992 120.9409978  50.4200014  19.7692923 120.1843468  50.0687407
  37.6489992 116.4309978  56.4040014  36.7319992 116.7019978  56.3690014
  37.7719992 115.8959978  55.6200014  37.5399672 116.3957885  56.2931862
  37.6859992 116.3539978  41.0660014  38.0979992 115.6329978  40.5910014
  38.3669992 117.0229978  41.1240014  37.8345536 116.3457766  41.0088024
  19.9669992 116.3589978  44.1930014  19.0419992 116.5669978  44.0640014
  20.4209992 116.8429978  43.5030014  19.9016298 116.4529299  44.0820451
  34.7369992 131.3429978  46.1390014  35.3899992 130.9949978  45.5310014
  35.2479992 131.8309978  46.7850014  34.8952777 131.3613815  46.1432047
  19.9299992 115.0969978  52.5370014  19.2649992 114.8509978  53.1800014
  19.4869992 115.7189978  51.9600014  19.7791168 115.1474214  52.5469848
  22.1219992 128.2719978  56.6820014  21.3009992 128.4469978  56.2210014
  21.8699992 128.1989978  57.6020014  21.9755594 128.2860717  56.7433611
  25.0759992 129.2459978  52.9400014  24.6519992 130.0559978  52.6580014
  25.9809992 129.3319978  52.6380014  25.1402138 129.3684160  52.8606415
  29.3879992 130.6449978  55.9000014  29.5719992 130.3119978  56.7780014
  30.2339992 130.9549978  55.5780014  29.5276484 130.6412979  55.9767617
  31.7329992 131.9309978  55.1440014  32.4099992 131.2979978  54.9040014
  32.0539992 132.3319978  55.9510014  31.8691323 131.8985691  55.2203158
  36.6499992 114.5209978  54.2230014  35.8369992 114.8459978  53.8360014
  36.8829992 113.7599978  53.6900014  36.5701347 114.4626880  54.0979841
  22.4779992 132.5029978  52.9880014  21.7579992 132.9429978  52.5370014
  22.1129992 132.2519978  53.8360014  22.3299643 132.5293369  53.0409129
  24.9449992 132.1029978  52.0180014  24.0809992 132.1749978  52.4220014
  24.8899992 132.6499978  51.2340014  24.8191942 132.1867849  51.9674000
  29.6559992 131.9909978  51.1930014  29.1989992 132.5199978  50.5390014
  29.8189992 132.5939978  51.9180014  29.6154960 132.1449280  51.2015274
  31.9839992 130.8689978  52.1380014  31.0789992 131.0339978  51.8720014
  32.4119992 131.7219978  52.0720014  31.9181537 131.0069134  52.0927095
  34.5879992 132.4389978  52.4330014  34.4059992 133.3549978  52.2220014
  34.7649992 132.0279978  51.5860014  34.5870030 132.5088273  52.2897166
  21.8929992 131.1259978  49.8980014  21.8749992 130.6999978  50.7550014
  22.6979992 130.8069978  49.4890014  21.9992875 131.0246435  49.9599515
  24.0339992 129.8359978  48.5530014  23.8149992 128.9189978  48.7230014
  24.8579992 129.9759978  49.0190014  24.1154702 129.7295511  48.6392527
  26.5709992 130.3059978  49.4020014  26.7839992 129.4179978  49.1150014
  26.6359992 130.2709978  50.3560014  26.6089149 130.1798326  49.4917369
  30.0799992 115.9699978  48.5460014  29.4059992 115.3399978  48.8020014
  30.6439992 115.4859978  47.9430014  30.0640384 115.8183708  48.4995020
  35.2229992 114.0769978  48.6590014  35.8259992 114.6249978  48.1570014
  34.3529992 114.3959978  48.4180014  35.1879157 114.1950373  48.5577910
  36.9499992 115.2159978  46.9920014  37.5609992 114.7019978  46.4650014
  37.3319992 116.0929978  47.0150014  37.0853305 115.2642050  46.9229418
  22.4069992 114.6039978  46.3680014  21.6299992 114.3689978  45.8610014
  22.9369992 113.8069978  46.3770014  22.3723451 114.4641268  46.2998627
  21.2429992 114.4019978  42.1720014  21.6819992 115.0129978  41.5800014
  20.6089992 114.9399978  42.6460014  21.2173859 114.5584064  42.1550305
  26.9859992 114.5299978  46.1810014  27.8599992 114.9189978  46.1520014
  26.8499992 114.3149978  47.1040014  27.0871953 114.5541643  46.3017617
  32.5429992 114.5599978  47.8310014  32.6189992 114.6559978  46.8810014
  32.2679992 113.6529978  47.9590014  32.5161871 114.4504146  47.7183944
  33.8959992 114.5859978  43.5230014  33.1929992 115.2009978  43.3130014
  33.4509992 113.7489978  43.6540014  33.7396550 114.5569668  43.5119837
  21.1439992 130.3499978  43.0690014  20.4589992 130.3119978  42.4020014
  21.1479992 131.2629978  43.3570014  21.0507621 130.4681924  43.0166126
  23.1039992 116.3179978  40.6140014  23.5949992 115.6879978  40.0870014
  23.7269992 116.6139978  41.2770014  23.2555304 116.2717376  40.6314940
  28.1299992 116.6109978  43.0710014  28.3079992 115.9639978  43.7540014
  28.0759992 117.4449978  43.5380014  28.1470678 116.6351604  43.2276301
  30.0079992 131.5589978  41.4670014  30.8739992 131.9259978  41.2890014
  29.7619992 131.1199978  40.6530014  30.0932097 131.5498525  41.3326019
  36.7169992 131.1219978  44.1460014  36.5229992 130.3739978  43.5810014
  36.6779992 131.8799978  43.5630014  36.6851645 131.1220786  43.9898148
  22.3639992 115.1179978  55.8860014  21.9979992 114.3519978  56.3280014
  23.2769992 115.1469978  56.1720014  22.4373172 115.0170324  55.9851890
  24.3369992 114.4679978  57.4210014  25.2359992 114.1939978  57.2370014
  23.9509992 113.7259978  57.8860014  24.4077307 114.3302196  57.4587098
  22.9619992 131.2699978  40.0940014  22.6939992 131.5559978  40.9680014
  23.7329992 130.7239978  40.2470014  23.0295926 131.2352779  40.2341205
  32.7589992 113.8009978  57.6040014  32.8349992 113.3749978  58.4570014
  33.6519992 113.8139978  57.2610014  32.8902303 113.7443493  57.6745497
  35.9349992 129.8739978  56.2960014  35.1529992 129.6869978  55.7760014
  35.8629992 130.8029978  56.5130014  35.8181924 129.9740637  56.2541602
  50.3409992 123.7599978  46.3270014  50.4299992 124.7039978  46.1950014
  49.7029992 123.4849978  45.6690014  50.2669062 123.8519812  46.2199641
  49.2739992 123.0149978  49.7460014  49.2359992 122.3689978  50.4510014
  48.9519992 122.5479978  48.9750014  49.2252679 122.8634276  49.7382921
  41.6419992 122.6289978  51.3390014  41.6839992 122.0039978  52.0620014
  42.3449992 123.2529978  51.5210014  41.7427345 122.6277873  51.4625274
  52.9799992 125.9539978  48.0470014  52.5389992 125.2339978  48.4980014
  52.9669992 126.6749978  48.6770014  52.9179215 125.9529291  48.1938105
  42.5659992 127.0789978  49.8740014  42.1959992 126.2769978  49.5040014
  43.5069992 126.9109978  49.9200014  42.6425984 126.9464638  49.8295603
  39.1759992 120.7389978  45.2660014  38.7279992 121.5849978  45.2480014
  38.6149992 120.1599978  44.7510014  39.0388546 120.7763993  45.1938891
  39.8859992 122.9009978  47.3920014  40.0999992 122.1309978  47.9200014
  40.6239992 122.9909978  46.7890014  40.0150200 122.8078586  47.3827035
  50.0919992 131.0579978  48.2590014  50.7109992 130.3819978  47.9860014
  49.8829992 130.8399978  49.1680014  50.1486056 130.9358869  48.3443967
  47.6629992 125.4469978  50.1520014  47.9669992 124.7609978  49.5570014
  48.3849992 125.5659978  50.7700014  47.8021240 125.3692314  50.1540959
  56.3259992 117.0489978  51.0120014  56.3759992 117.6589978  51.7480014
  56.7519992 117.5099978  50.2890014  56.3904108 117.1947709  51.0150112
  50.8039992 119.8409978  50.4790014  50.9469992 118.8949978  50.4990014
  50.6979992 120.0479978  49.5510014  50.8092403 119.7394797  50.3562239
  43.9589992 117.9429978  47.7520014  44.0019992 118.8029978  47.3330014
  43.5009992 117.3909978  47.1180014  43.9029871 117.9859245  47.6090761
  51.6809992 118.0739978  46.1530014  52.3279992 117.7449978  46.7770014
  52.1909992 118.5909978  45.5300014  51.8384351 118.0989067  46.1541037
  40.5789992 120.3399978  48.5140014  41.2329992 119.7899978  48.9460014
  40.6029992 120.0659978  47.5970014  40.6717199 120.2277167  48.4491668
  45.7359992 121.8899978  47.7290014  46.3519992 121.3629978  48.2380014
  45.1489992 121.2499978  47.3250014  45.7410154 121.7313954  47.7440945
  56.7179992 118.5269978  53.2480014  56.0289992 119.1849978  53.1530014
  56.7329992 118.3289978  54.1850014  56.6257756 118.5902603  53.3615812
  42.7689992 116.8609978  51.8260014  42.5499992 117.3909978  51.0590014
  42.1009992 117.0869978  52.4730014  42.6486975 116.9640967  51.8085140
  50.1379992 126.3609978  45.3700014  49.8429992 126.0379978  44.5180014
  49.8139992 127.2609978  45.4110014  50.0538460 126.4384464  45.2589714
  45.3379992 124.5359978  52.1130014  44.5979992 125.1349978  52.2170014
  46.0519992 125.0899978  51.7980014  45.3333500 124.6927829  52.0846371
  53.4449992 117.3649978  48.1330014  53.2299992 116.5989978  48.6660014
  54.1009992 117.8369978  48.6460014  53.5042673 117.3240728  48.2751990
  42.3629992 118.7529978  49.7780014  42.9769992 119.3859978  50.1510014
  42.8749992 118.2809978  49.1220014  42.5161962 118.7757249  49.7402935
  43.7459992 126.5009978  52.9000014  43.7399992 127.3799978  52.5220014
  42.8919992 126.4169978  53.3250014  43.6297925 126.6099535  52.9056887
  39.8669992 126.1719978  43.6820014  39.5949992 126.4009978  42.7940014
  39.9119992 127.0089978  44.1430014  39.8358097 126.3166163  43.6226683
  53.4919992 127.7929978  50.3950014  52.5499992 127.8519978  50.5570014
  53.7679992 128.6989978  50.2580014  53.4005865 127.9235288  50.3986192
  53.7919992 116.0799978  51.8120014  53.0559992 116.6899978  51.7750014
  54.4759992 116.4949978  51.2860014  53.7835367 116.2197551  51.7358174
  46.7959992 114.1659978  49.2780014  46.6779992 113.2179978  49.2240014
  45.9409992 114.4989978  49.5510014  46.6642805 114.0812202  49.3075079
  51.7439992 129.5739978  47.0200014  52.1689992 128.8669978  46.5350014
  52.0609992 130.3759978  46.6030014  51.8450266 129.5855190  46.8972479
  52.9039992 127.4749978  45.5290014  52.6459992 126.7849978  44.9170014
  52.9749992 127.0319978  46.3740014  52.8783050 127.3206814  45.5595621
  54.5899992 126.0419978  54.0060014  54.7289992 125.4499978  53.2670014
  54.7569992 126.9149978  53.6500014  54.6316193 126.0788896  53.8566211
  49.0619992 123.0039978  43.7790014  48.3509992 123.5389978  43.4270014
  49.7529992 123.0589978  43.1190014  49.0580751 123.0846777  43.6415858
  49.1159992 121.4609978  40.8170014  49.8169992 121.4839978  41.4690014
  49.4179992 120.8329978  40.1610014  49.2528202 121.3792212  40.8175609
  56.4309992 122.3819978  52.0720014  55.7789992 123.0759978  52.1610014
  56.8969992 122.5919978  51.2620014  56.4045937 122.5055019  51.9747533
  52.4679992 123.2129978  44.7300014  51.7359992 123.4419978  45.3040014
  52.9149992 122.4999978  45.1850014  52.4283963 123.1478729  44.8699945
  52.3649992 121.3879978  53.7980014  52.4449992 122.1509978  54.3700014
  51.7639992 121.6669978  53.1080014  52.2946547 121.5302457  53.7830047
  44.1129992 123.8439978  46.6130014  43.7829992 123.4729978  45.7950014
  44.7019992 123.1729978  46.9600014  44.1473970 123.7026063  46.5479404
  45.4799992 127.2719978  49.2940014  45.3849992 126.6929978  48.5380014
  46.2089992 126.9009978  49.7900014  45.5656011 127.1425561  49.2576028
  44.4799992 122.6119978  50.2460014  45.0449992 122.7339978  49.4840014
  44.7989992 123.2499978  50.8850014  44.6004166 122.7148791  50.2280348
  50.7889992 128.1159978  50.9800014  50.5489992 128.7779978  51.6280014
  50.5909992 127.2809978  51.4050014  50.7293826 128.0938115  51.1261566
  45.3599992 127.0119978  54.9640014  45.0489992 127.7939978  55.4190014
  44.7099992 126.8589978  54.2780014  45.2295538 127.0984087  54.9335898
  51.3389992 122.3759978  42.4160014  51.9179992 122.5259978  43.1620014
  51.7529992 122.8459978  41.6920014  51.4743358 122.4600954  42.4203953
  42.2799992 123.2099978  54.1920014  42.3499992 123.8609978  54.8910014
  41.3889992 123.3129978  53.8570014  42.1691690 123.3129249  54.2423043
  49.0649992 129.1119978  45.8510014  49.5389992 129.4079978  46.6280014
  48.5019992 129.8509978  45.6180014  49.0537890 129.2523036  45.9258101
  43.5989992 129.0829978  55.7270014  43.6069992 128.9469978  54.7800014
  42.6829992 128.9659978  55.9790014  43.4762528 129.0485463  55.6313243
  55.0379992 114.1259978  42.2290014  54.1379992 114.2649978  42.5240014
  55.2899992 114.9569978  41.8270014  54.9488683 114.2574055  42.2150232
  43.1039992 122.9129978  44.2020014  42.8119992 123.6809978  43.7110014
  42.4289992 122.2539978  44.0390014  42.9728497 122.9289745  44.1128260
  56.2269992 128.4919978  40.6050014  56.2999992 129.4309978  40.7750014
  57.1319992 128.1869978  40.5490014  56.3594170 128.5793282  40.6207063
  39.1969992 125.2759978  53.0170014  38.6949992 125.2479978  52.2020014
  39.2019992 124.3709978  53.3270014  39.1289832 125.1497486  52.9474121
  38.9469992 128.0569978  49.9010014  39.8929992 127.9119978  49.8820014
  38.8339992 128.8409978  50.4380014  39.0613578 128.1431697  49.9710317
  57.1449992 128.7229978  55.5840014  57.0949992 127.7669978  55.5460014
  56.3179992 128.9899978  55.9850014  57.0263831 128.6284680  55.6330121
  48.1229992 128.2969978  54.4600014  48.2109992 129.1229978  54.9350014
  47.2599992 127.9669978  54.7090014  48.0183357 128.3655468  54.5587653
  48.5379992 132.0689978  44.2660014  48.4619992 131.9479978  43.3190014
  48.5699992 133.0179978  44.3840014  48.5319380 132.1807677  44.1525181
  42.1909992 130.8579978  46.0470014  42.3429992 130.5099978  46.9250014
  41.3399992 130.5009978  45.7910014  42.0968344 130.7620879  46.1326868
  51.6389992 131.2229978  41.2680014  52.0139992 130.4789978  40.7970014
  51.6439992 130.9529978  42.1860014  51.6910098 131.0846392  41.3276629
  51.3079992 131.1489978  44.0170014  50.3729992 131.2489978  44.1960014
  51.5879992 130.4389978  44.5960014  51.2179471 131.0667933  44.1196695
  54.2969992 120.2159978  56.0640014  53.8889992 120.6959978  55.3430014
  54.3369992 119.3099978  55.7560014  54.2466221 120.1592449  55.9238267
  41.4459992 126.5999978  54.0600014  41.6619992 126.2379978  54.9200014
  40.5899992 126.2249978  53.8510014  41.3598810 126.4998837  54.1492680
  44.0639992 115.0699978  50.0560014  43.2029992 114.9829978  49.6480014
  44.0419992 115.9259978  50.4840014  43.9430491 115.1738003  50.0579582
  48.7269992 114.7919978  53.4310014  49.1469992 114.3769978  54.1840014
  47.7939992 114.6129978  53.5480014  48.6583736 114.7109910  53.5498968
  52.0539992 118.5469978  54.2840014  51.5399992 118.4219978  55.0820014
  51.8979992 119.4599978  54.0400014  51.9626967 118.6532123  54.3600937
  52.8159992 123.4079978  40.0450014  52.8579992 123.1859978  39.1150014
  53.6649992 123.8069978  40.2350014  52.9365253 123.4315498  39.9433822
  48.3889992 117.2839978  40.7160014  48.1349992 117.3029978  41.6380014
  48.1319992 116.4129978  40.4140014  48.3194508 117.1688280  40.8014803
  44.1549992 120.0349978  51.1510014  43.5139992 119.9949978  51.8600014
  44.1929992 120.9619978  50.9130014  44.0723010 120.1547668  51.2159946
  44.1519992 120.2559978  46.0630014  43.2599992 119.9159978  46.0040014
  44.6029992 119.8789978  45.3070014  44.0907642 120.1584910  45.9527726
  49.6879992 120.6719978  44.8800014  49.2789992 121.4869978  44.5880014
  50.4079992 120.5319978  44.2660014  49.7294439 120.7645372  44.7570115
  48.7899992 120.8479978  56.3680014  48.2269992 120.1429978  56.6890014
  49.6159992 120.7269978  56.8360014  48.8246674 120.7352165  56.4751751
  50.6929992 120.1179978  47.6940014  50.4969992 120.7239978  46.9790014
  50.8739992 119.2849978  47.2600014  50.6906584 120.0882513  47.5374212
  41.9049992 120.3559978  53.0180014  41.8669992 120.7559978  53.8870014
  41.4149992 119.5389978  53.1080014  41.8335330 120.3002674  53.1491289
  45.2709992 117.7299978  39.8170014  44.8399992 117.2849978  40.5460014
  44.5529992 118.1009978  39.3040014  45.1149176 117.7192051  39.8474930
  38.5139992 117.4719978  46.8690014  39.1439992 117.4429978  47.5880014
  38.9629992 117.0469978  46.1380014  38.6610835 117.4105660  46.8687659
  39.7879992 118.2179978  42.2930014  40.2619992 118.8089978  41.7080014
  39.0699992 118.7479978  42.6400014  39.7558640 118.3705511  42.2597969
  49.9569992 121.7559978  52.3650014  50.2799992 121.1249978  51.7220014
  49.5159992 121.2219978  53.0260014  49.9416379 121.5973468  52.3662582
  46.7339992 117.6839978  47.1490014  45.8229992 117.7409978  47.4380014
  47.2389992 117.6239978  47.9600014  46.6776873 117.6836826  47.2981207
  41.5619992 119.3129978  45.9760014  40.6729992 119.4119978  45.6360014
  41.8589992 118.4709978  45.6300014  41.4804177 119.2127687  45.8826940
  45.2149992 119.3129978  43.6330014  46.1469992 119.4419978  43.8110014
  44.9999992 119.9819978  42.9830014  45.3134472 119.4210806  43.5694891
  51.1389992 116.9189978  50.4140014  50.4619992 117.0499978  51.0770014
  50.6539992 116.7639978  49.6030014  50.9807405 116.9159947  50.3952170
  43.8889992 120.5069978  41.1990014  43.3469992 120.1279978  40.5080014
  44.7229992 120.7019978  40.7710014  43.9274390 120.4814079  41.0464392
  54.4269992 132.5899978  56.6900014  54.6259992 133.0139978  55.8560014
  55.0819992 132.9339978  57.2970014  54.5428522 132.6946301  56.6577852
  42.0249992 125.0639978  56.2980014  42.7569992 125.3189978  56.8600014
  41.2439992 125.2689978  56.8140014  42.0196526 125.1265450  56.4445176
  48.0539992 120.4709978  49.0360014  48.6179992 119.9249978  48.4890014
  47.9059992 119.9499978  49.8250014  48.1113037 120.3256787  49.0677229
  43.0559992 116.6079978  45.4550014  42.7389992 115.7049978  45.4190014
  43.8369992 116.6099978  44.9020014  43.1182431 116.4847797  45.3753102
  46.6799992 118.8599978  51.4500014  45.8449992 119.3139978  51.5610014
  47.2039992 119.1359978  52.2020014  46.6366072 118.9593948  51.5668136
  47.2249992 125.0729978  43.1350014  46.4799992 124.5649978  42.8130014
  47.0899992 125.1219978  44.0810014  47.1048963 125.0101731  43.2188826
  54.3749992 124.2059978  51.9220014  55.0159992 124.6619978  51.3780014
  53.5439992 124.3189978  51.4590014  54.3505287 124.2836921  51.7849887
  51.1219992 117.8869978  41.3340014  50.1839992 117.9979978  41.1830014
  51.4199992 118.7429978  41.6410014  51.0336318 118.0180158  41.3548145
  48.7439992 125.2569978  54.3720014  48.3979992 124.8749978  55.1790014
  48.5439992 126.1899978  54.4430014  48.6695987 125.3309002  54.4920461
  51.8409992 119.7539978  42.9950014  52.7329992 119.6159978  43.3140014
  51.8969992 120.5449978  42.4580014  51.9707325 119.8419918  42.9661217
  42.3489992 124.3679978  48.9050014  43.0939992 124.3649978  48.3030014
  42.4269992 123.5439978  49.3860014  42.4613365 124.2562384  48.8877430
  49.3499992 126.5309978  42.1600014  49.0549992 127.3579978  42.5420014
  48.6469992 125.9119978  42.3570014  49.2146379 126.5604171  42.2388654
  39.3569992 122.8279978  54.2200014  39.5799992 122.4099978  55.0510014
  38.7549992 122.2159978  53.7970014  39.3061513 122.6879606  54.2766740
  46.3739992 122.3449978  56.4330014  46.0779992 122.1799978  55.5370014
  47.3049992 122.1249978  56.4220014  46.4594401 122.2926879  56.3090206
  50.9939992 127.7189978  54.3220014  50.0939992 127.9019978  54.0550014
  51.0279992 127.9779978  55.2430014  50.8753748 127.7790554  54.4099164
  56.7259992 119.9629978  42.6900014  56.1709992 119.5669978  42.0170014
  56.8259992 120.8739978  42.4120014  56.6636816 120.0319505  42.5605033
  56.6889992 125.7639978  55.5270014  55.8379992 126.0019978  55.1590014
  57.2789992 125.7469978  54.7740014  56.6523812 125.7942524  55.3748453
  55.0209992 128.7489978  43.1550014  54.6479992 127.9239978  43.4640014
  55.2979992 128.5659978  42.2570014  55.0073463 128.6112569  43.0759525
  52.1809992 123.5569978  50.1760014  51.2529992 123.3259978  50.1490014
  52.6319992 122.7799978  49.8460014  52.1148165 123.4202774  50.1276790
  44.7239992 127.8859978  46.3090014  45.2519992 128.6589978  46.1090014
  43.8439992 128.1099978  46.0070014  44.6773435 128.0222700  46.2407310
  40.4789992 122.7479978  40.8960014  41.0949992 123.3749978  41.2760014
  39.6169992 123.0639978  41.1680014  40.4467678 122.8764412  40.9847209
  46.1519992 125.5489978  45.8850014  45.9109992 126.4739978  45.9270014
  45.4109992 125.0899978  46.2820014  46.0189206 125.6135915  45.9443769
  46.6659992 129.6979978  52.2000014  47.0289992 130.5519978  51.9670014
  47.1979992 129.4059978  52.9410014  46.7875141 129.7753895  52.2682097
  44.8349992 130.5699978  45.4310014  43.8849992 130.6759978  45.4820014
  45.1869992 131.3909978  45.7750014  44.7525472 130.6954923  45.4844852
  50.2099992 125.7969978  51.9010014  49.7849992 125.5689978  52.7270014
  50.7909992 125.0579978  51.7190014  50.2303395 125.6659545  51.9894414
  52.4129992 126.7259978  40.9750014  52.7669992 126.3459978  41.7790014
  51.4649992 126.6319978  41.0620014  52.3332298 126.6612452  41.0968687
  52.8689992 130.3489978  54.3700014  52.2669992 129.7929978  53.8750014
  53.1499992 131.0159978  53.7440014  52.8245757 130.3630744  54.2175675
  56.9169992 131.2049978  41.1760014  57.6609992 131.7909978  41.0360014
  56.2229992 131.7739978  41.5090014  56.9249809 131.3620818  41.2018590
  40.9909992 117.5819978  53.7780014  40.0989992 117.9199978  53.7100014
  40.8929992 116.7259978  54.1960014  40.8554475 117.5126543  53.8251704
  53.2789992 125.3979978  43.2020014  53.0019992 124.6699978  43.7580014
  54.2069992 125.5169978  43.4070014  53.3664499 125.3144213  43.3058044
  40.6429992 129.3859978  52.2130014  40.8599992 128.4539978  52.1820014
  40.8889992 129.6609978  53.0960014  40.7059809 129.2955686  52.3281690
  46.5039992 127.8379978  39.4220014  46.7429992 127.0889978  38.8750014
  46.2349992 127.4499978  40.2550014  46.5003233 127.6831853  39.4597809
  45.4409992 127.4079978  41.8780014  45.5879992 126.8879978  42.6680014
  45.4379992 128.3149978  42.1850014  45.4607102 127.4593953  42.0275925
  41.8939992 124.6599978  42.3890014  41.2079992 125.0129978  42.9560014
  42.4169992 125.4229978  42.1420014  41.8708402 124.8113901  42.4331801
  49.7259992 117.3229978  52.6680014  50.4249992 117.3969978  53.3180014
  49.3449992 116.4579978  52.8220014  49.7702097 117.2162389  52.7777997
  50.5099992 116.9749978  43.7650014  50.7299992 117.4459978  42.9610014
  51.0689992 117.3689978  44.4350014  50.6156731 117.0927287  43.7455033
  48.1789992 129.1049978  42.6280014  47.3619992 129.6019978  42.6800014
  48.7079992 129.5809978  41.9870014  48.1388125 129.2371989  42.5485306
  47.7099992 118.7029978  44.6000014  48.5219992 119.2069978  44.6460014
  47.4659992 118.5579978  45.5140014  47.7881467 118.7523749  44.7298575
  48.2459992 119.6889978  53.7840014  48.3649992 120.2629978  54.5410014
  48.9009992 119.0009978  53.8990014  48.3508684 119.6745194  53.9031674
  48.5939992 115.7839978  45.5380014  48.2469992 116.4009978  46.1820014
  49.2529992 116.2849978  45.0560014  48.6355090 115.9361575  45.5610681
  45.5169992 130.1489978  42.6090014  45.6779992 130.9489978  42.1090014
  45.3199992 130.4559978  43.4940014  45.5123906 130.2998678  42.6602333
  44.2519992 116.8469978  42.2250014  44.1679992 117.7349978  42.5720014
  45.1419992 116.5819978  42.4570014  44.3608163 116.9327179  42.3038596
  54.4499992 117.5959978  54.6190014  53.5339992 117.8579978  54.5320014
  54.7859992 117.5929978  53.7230014  54.3698499 117.6315163  54.4858766
  53.0529992 121.3459978  48.7150014  52.2549992 120.9309978  48.3870014
  53.4979992 120.6559978  49.2060014  53.0039684 121.1958628  48.7365227
  42.5099992 127.2739978  41.2850014  43.1019992 127.9739978  41.5620014
  42.9689992 126.8409978  40.5660014  42.6531652 127.3112675  41.2256533
  40.8259992 119.9389978  40.4010014  40.7809992 120.8779978  40.5800014
  39.9379992 119.7029978  40.1320014  40.6998166 120.0356687  40.3891524
  54.1389992 130.6019978  50.3370014  53.9829992 131.2809978  49.6800014
  55.0719992 130.6739978  50.5400014  54.2437387 130.7046390  50.2745342
  41.6339992 114.7199978  49.0750014  41.4049992 114.7789978  48.1470014
  41.1919992 113.9289978  49.3810014  41.5428801 114.6210540  48.9894729
  40.5649992 128.6609978  45.2350014  39.7319992 129.1329978  45.2620014
  41.1099992 129.1709978  44.6360014  40.5247857 128.7944791  45.1577142
  39.8529992 131.2729978  56.5650014  40.3929992 131.0569978  57.3250014
  39.3719992 130.4679978  56.3750014  39.8619219 131.1345156  56.6434282
  44.4499992 130.1929978  58.1850014  45.2179992 129.7339978  58.5260014
  44.4289992 129.9669978  57.2550014  44.5522135 130.0996668  58.1059491
  48.5419992 129.7009978  39.5610014  47.8979992 129.0699978  39.8820014
  49.3039992 129.1699978  39.3290014  48.5568058 129.5427902  39.5736038
  51.0269992 128.5729978  56.9140014  50.6759992 127.7159978  57.1580014
  51.7529992 128.7149978  57.5210014  51.0771895 128.4751351  57.0293770
  53.1469992 129.5179978  39.7940014  53.4299992 128.7229978  40.2470014
  53.8859992 129.7509978  39.2330014  53.2857096 129.4407049  39.7801104
  39.7599992 125.0839978  57.5190014  39.9039992 124.1819978  57.2330014
  38.9879992 125.3699978  57.0320014  39.6752733 124.9991798  57.4139532
  44.1009992 125.4269978  39.6520014  44.1659992 124.6329978  40.1820014
  44.7539992 125.3089978  38.9620014  44.1981605 125.3023430  39.6312997
  46.4149992 125.0529978  56.9520014  46.0869992 125.3239978  56.0950014
  46.5669992 124.1119978  56.8640014  46.3906412 124.9629046  56.8227822
  49.4539992 126.4739978  39.3880014  49.1849992 126.6549978  40.2880014
  49.2469992 125.5489978  39.2560014  49.3891191 126.3737119  39.4935524
  52.1499992 124.9689978  54.3350014  52.8949992 125.5579978  54.2160014
  51.3929992 125.5509978  54.3990014  52.1495470 125.1282128  54.3273799
  40.5929992 122.2839978  56.9390014  41.0009992 121.4269978  56.8180014
  40.3319992 122.2979978  57.8600014  40.6136016 122.1685119  57.0469192
  45.2509992 123.3999978  41.9580014  44.7909992 122.9159978  42.6430014
  45.5059992 122.7309978  41.3220014  45.2224856 123.2433669  41.9658397
  44.5399992 121.2929978  54.3140014  43.9209992 121.9669978  54.5940014
  44.8839992 121.6139978  53.4800014  44.5017123 121.4286887  54.2396388
  46.3219992 121.6429978  40.2200014  46.1409992 121.4879978  39.2930014
  47.2719992 121.7509978  40.2650014  46.4256566 121.6363669  40.0990929
  49.5589992 123.7639978  57.5910014  50.5129992 123.8479978  57.5640014
  49.3989992 123.0519978  58.2110014  49.6677182 123.6792842  57.6710733
  55.7119992 123.9969978  39.6660014  55.4379992 123.5729978  38.8530014
  55.7509992 124.9289978  39.4490014  55.6797716 124.0648827  39.5254286
  44.8789992 118.6479978  55.3960014  45.0289992 117.9189978  54.7940014
  44.8809992 119.4249978  54.8370014  44.8997967 118.6532708  55.2380541
  45.2919992 117.0169978  52.8890014  45.8269992 117.4689978  52.2370014
  44.4389992 116.9089978  52.4660014  45.2500374 117.0642665  52.7426710
  46.8729992 122.4569978  53.1280014  47.6239992 122.3009978  52.5550014
  46.5339992 123.3089978  52.8530014  46.9299587 122.5508138  53.0124078
  51.2889992 120.2719978  58.1570014  51.4809992 119.3409978  58.0450014
  52.1469992 120.6969978  58.1460014  51.4312182 120.2020070  58.1401862
  52.6059992 123.0609978  56.2340014  52.3239992 123.7699978  55.6560014
  53.5479992 122.9879978  56.0830014  52.6947921 123.1482193  56.1344225
  43.3579992 119.8459978  57.3070014  42.5899992 119.3129978  57.0970014
  44.0359992 119.5359978  56.7080014  43.3447235 119.7311754  57.1972413
  46.0969992 114.4739978  53.3200014  45.9989992 115.4199978  53.2150014
  45.3549992 114.1009978  52.8440014  45.9832534 114.5531773  53.2412600
  47.3609992 118.7949978  56.8840014  47.1259992 118.5759978  57.7850014
  46.5779992 118.5879978  56.3740014  47.2229095 118.7369892  56.9385353
  50.0769992 117.9229978  55.9590014  49.1289992 117.9549978  56.0910014
  50.3889992 117.2969978  56.6130014  49.9895293 117.8427923  56.0654148
  51.7109992 116.5569978  57.9640014  51.6139992 115.6049978  57.9590014
  51.3889992 116.8249978  58.8250014  51.6542468 116.4630884  58.0796210
  41.5379992 117.7659978  57.0120014  41.7499992 117.0599978  56.4020014
  41.4269992 117.3289978  57.8560014  41.5520269 117.6101921  57.0425873
  46.3189992 113.7679978  55.9910014  47.0309992 113.1279978  55.9770014
  46.2179992 114.0339978  55.0780014  46.4027387 113.7164330  55.8655563
  46.6729992 115.4499978  58.0450014  46.5409992 114.9749978  57.2250014
  46.0729992 116.1949978  57.9900014  46.5739070 115.4855789  57.9253251
  46.2189992 132.3329978  41.2210014  47.1519992 132.4909978  41.3650014
  45.9549992 133.0089978  40.5960014  46.3109911 132.4459373  41.1562722
  39.7869992 126.9699978  40.7040014  40.7009992 127.0489978  40.9770014
  39.7949992 126.2829978  40.0380014  39.9130655 126.8879205  40.6512917
  38.4359992 132.3629978  45.7810014  37.7889992 131.9009978  45.2490014
  38.7909992 131.6909978  46.3640014  38.3953741 132.2089774  45.7869175
  39.3059992 130.4429978  47.5860014  38.9719992 129.5629978  47.7580014
  39.5289992 130.7889978  48.4510014  39.2903721 130.3691938  47.7264168
  56.8549992 131.2529978  50.5670014  56.8329992 131.4379978  51.5060014
  57.5449992 131.8209978  50.2260014  56.9453439 131.3551887  50.6494791
  56.4179992 130.8199978  53.4880014  55.9309992 130.0849978  53.1170014
  56.9669992 130.4259978  54.1660014  56.4255247 130.6661057  53.5288461
  54.8689992 126.6099978  58.1270014  54.0029992 126.5049978  58.5210014
  55.2449992 127.3679978  58.5730014  54.8013401 126.6981708  58.2412620
  56.1699992 124.8659978  43.6410014  57.0199992 125.2869978  43.7680014
  56.1749992 124.1259978  44.2480014  56.2871143 124.8236094  43.7404750
  56.5639992 122.9199978  45.4640014  55.8379992 122.4399978  45.8620014
  57.1459992 123.1249978  46.1970014  56.5432730 122.8820184  45.6174149
  56.3229992 125.7049978  50.4120014  57.1569992 125.3269978  50.1310014
  56.4349992 126.6479978  50.2930014  56.4521917 125.7807943  50.3574861
  54.8099992 128.5829978  52.7190014  54.1619992 128.9079978  53.3440014
  54.2919992 128.1419978  52.0450014  54.6514196 128.5678651  52.7134152
  56.8329992 122.8209978  41.8550014  56.3109992 123.1769978  41.1370014
  56.7999992 123.4959978  42.5340014  56.7570129 122.9609598  41.8483355
  55.1819992 120.0599978  40.4060014  55.2779992 120.7269978  39.7260014
  55.0419992 119.2449978  39.9250014  55.1762040 120.0410671  40.2478378
  54.3509992 121.4409978  46.0270014  54.2009992 120.4959978  46.0070014
  53.9969992 121.7219978  46.8710014  54.2826351 121.3496644  46.1383220
  39.3859992 123.5189978  50.0380014  39.5709992 123.4369978  49.1020014
  40.2359992 123.3949978  50.4610014  39.5260928 123.4910463  49.9672893
  55.2069992 123.4109978  55.6660014  55.7899992 122.6759978  55.8580014
  55.7709992 124.1829978  55.7130014  55.3629781 123.4148145  55.6986164
  56.7039992 121.3139978  56.3510014  55.8409992 120.9349978  56.1850014
  57.3079992 120.5749978  56.2760014  56.6676085 121.1623223  56.3181695
  54.4289992 117.4679978  39.5240014  55.0399992 117.0969978  40.1610014
  53.5919992 117.0469978  39.7200014  54.3994947 117.3602756  39.6377252
  54.0619992 119.0229978  44.4900014  54.3409992 118.1159978  44.6140014
  54.8209992 119.4569978  44.1010014  54.2028619 118.9574502  44.4543795
  54.6729992 119.6049978  49.9260014  55.6059992 119.8169978  49.8910014
  54.4379992 119.7059978  50.8480014  54.7689517 119.6476833  50.0459130
  54.7029992 120.3419978  52.7020014  53.8599992 120.6099978  53.0680014
  55.1449992 121.1639978  52.4910014  54.6474138 120.4898273  52.7235518
  38.9839992 118.7889978  56.1780014  39.9029992 118.6669978  56.4150014
  38.5339992 118.0389978  56.5680014  39.0490087 118.6709608  56.2631410
  56.9859992 114.3219978  58.0550014  57.3349992 113.6679978  57.4500014
  57.1329992 115.1589978  57.6150014  57.0536824 114.3456024  57.9126304
  54.6749992 116.2859978  44.5380014  54.8569992 115.8369978  45.3630014
  54.0749992 115.7019978  44.0740014  54.6188187 116.1455552  44.5882739
  40.2049992 117.1019978  49.0700014  40.6499992 116.3099978  49.3720014
  40.6709992 117.8179978  49.5000014  40.3289718 117.0904534  49.1695265
  38.5089992 120.1009978  50.1390014  39.0009992 119.8799978  49.3480014
  38.8709992 120.9409978  50.4200014  38.6252923 120.1843468  50.0687407
  56.5049992 116.4309978  56.4040014  55.5879992 116.7019978  56.3690014
  56.6279992 115.8959978  55.6200014  56.3959672 116.3957885  56.2931862
  56.5419992 116.3539978  41.0660014  56.9539992 115.6329978  40.5910014
  57.2229992 117.0229978  41.1240014  56.6905536 116.3457766  41.0088024
  38.8229992 116.3589978  44.1930014  37.8979992 116.5669978  44.0640014
  39.2769992 116.8429978  43.5030014  38.7576298 116.4529299  44.0820451
  53.5929992 131.3429978  46.1390014  54.2459992 130.9949978  45.5310014
  54.1039992 131.8309978  46.7850014  53.7512777 131.3613815  46.1432047
  38.7859992 115.0969978  52.5370014  38.1209992 114.8509978  53.1800014
  38.3429992 115.7189978  51.9600014  38.6351168 115.1474214  52.5469848
  40.9779992 128.2719978  56.6820014  40.1569992 128.4469978  56.2210014
  40.7259992 128.1989978  57.6020014  40.8315594 128.2860717  56.7433611
  43.9319992 129.2459978  52.9400014  43.5079992 130.0559978  52.6580014
  44.8369992 129.3319978  52.6380014  43.9962138 129.3684160  52.8606415
  48.2439992 130.6449978  55.9000014  48.4279992 130.3119978  56.7780014
  49.0899992 130.9549978  55.5780014  48.3836484 130.6412979  55.9767617
  50.5889992 131.9309978  55.1440014  51.2659992 131.2979978  54.9040014
  50.9099992 132.3319978  55.9510014  50.7251323 131.8985691  55.2203158
  55.5059992 114.5209978  54.2230014  54.6929992 114.8459978  53.8360014
  55.7389992 113.7599978  53.6900014  55.4261347 114.4626880  54.0979841
  41.3339992 132.5029978  52.9880014  40.6139992 132.9429978  52.5370014
  40.9689992 132.2519978  53.8360014  41.1859643 132.5293369  53.0409129
  43.8009992 132.1029978  52.0180014  42.9369992 132.1749978  52.4220014
  43.7459992 132.6499978  51.2340014  43.6751942 132.1867849  51.9674000
  48.5119992 131.9909978  51.1930014  48.0549992 132.5199978  50.5390014
  48.6749992 132.5939978  51.9180014  48.4714960 132.1449280  51.2015274
  50.8399992 130.8689978  52.1380014  49.9349992 131.0339978  51.8720014
  51.2679992 131.7219978  52.0720014  50.7741537 131.0069134  52.0927095
  53.4439992 132.4389978  52.4330014  53.2619992 133.3549978  52.2220014
  53.6209992 132.0279978  51.5860014  53.4430030 132.5088273  52.2897166
  40.7489992 131.1259978  49.8980014  40.7309992 130.6999978  50.7550014
  41.5539992 130.8069978  49.4890014  40.8552875 131.0246435  49.9599515
  42.8899992 129.8359978  48.5530014  42.6709992 128.9189978  48.7230014
  43.7139992 129.9759978  49.0190014  42.9714702 129.7295511  48.6392527
  45.4269992 130.3059978  49.4020014  45.6399992 129.4179978  49.1150014
  45.4919992 130.2709978  50.3560014  45.4649149 130.1798326  49.4917369
  48.9359992 115.9699978  48.5460014  48.2619992 115.3399978  48.8020014
  49.4999992 115.4859978  47.9430014  48.9200384 115.8183708  48.4995020
  54.0789992 114.0769978  48.6590014  54.6819992 114.6249978  48.1570014
  53.2089992 114.3959978  48.4180014  54.0439157 114.1950373  48.5577910
  55.8059992 115.2159978  46.9920014  56.4169992 114.7019978  46.4650014
  56.1879992 116.0929978  47.0150014  55.9413305 115.2642050  46.9229418
  41.2629992 114.6039978  46.3680014  40.4859992 114.3689978  45.8610014
  41.7929992 113.8069978  46.3770014  41.2283451 114.4641268  46.2998627
  40.0989992 114.4019978  42.1720014  40.5379992 115.0129978  41.5800014
  39.4649992 114.9399978  42.6460014  40.0733859 114.5584064  42.1550305
  45.8419992 114.5299978  46.1810014  46.7159992 114.9189978  46.1520014
  45.7059992 114.3149978  47.1040014  45.9431953 114.5541643  46.3017617
  51.3989992 114.5599978  47.8310014  51.4749992 114.6559978  46.8810014
  51.1239992 113.6529978  47.9590014  51.3721871 114.4504146  47.7183944
  52.7519992 114.5859978  43.5230014  52.0489992 115.2009978  43.3130014
  52.3069992 113.7489978  43.6540014  52.5956550 114.5569668  43.5119837
  39.9999992 130.3499978  43.0690014  39.3149992 130.3119978  42.4020014
  40.0039992 131.2629978  43.3570014  39.9067621 130.4681924  43.0166126
  41.9599992 116.3179978  40.6140014  42.4509992 115.6879978  40.0870014
  42.5829992 116.6139978  41.2770014  42.1115304 116.2717376  40.6314940
  46.9859992 116.6109978  43.0710014  47.1639992 115.9639978  43.7540014
  46.9319992 117.4449978  43.5380014  47.0030678 116.6351604  43.2276301
  48.8639992 131.5589978  41.4670014  49.7299992 131.9259978  41.2890014
  48.6179992 131.1199978  40.6530014  48.9492097 131.5498525  41.3326019
  55.5729992 131.1219978  44.1460014  55.3789992 130.3739978  43.5810014
  55.5339992 131.8799978  43.5630014  55.5411645 131.1220786  43.9898148
  41.2199992 115.1179978  55.8860014  40.8539992 114.3519978  56.3280014
  42.1329992 115.1469978  56.1720014  41.2933172 115.0170324  55.9851890
  43.1929992 114.4679978  57.4210014  44.0919992 114.1939978  57.2370014
  42.8069992 113.7259978  57.8860014  43.2637307 114.3302196  57.4587098
  41.8179992 131.2699978  40.0940014  41.5499992 131.5559978  40.9680014
  42.5889992 130.7239978  40.2470014  41.8855926 131.2352779  40.2341205
  51.6149992 113.8009978  57.6040014  51.6909992 113.3749978  58.4570014
  52.5079992 113.8139978  57.2610014  51.7462303 113.7443493  57.6745497
  54.7909992 129.8739978  56.2960014  54.0089992 129.6869978  55.7760014
  54.7189992 130.8029978  56.5130014  54.6741924 129.9740637  56.2541602
  69.1969992 123.7599978  46.3270014  69.2859992 124.7039978  46.1950014
  68.5589992 123.4849978  45.6690014  69.1229062 123.8519812  46.2199641
  68.1299992 123.0149978  49.7460014  68.0919992 122.3689978  50.4510014
  67.8079992 122.5479978  48.9750014  68.0812679 122.8634276  49.7382921
  60.4979992 122.6289978  51.3390014  60.5399992 122.0039978  52.0620014
  61.2009992 123.2529978  51.5210014  60.5987345 122.6277873  51.4625274
  71.8359992 125.9539978  48.0470014  71.3949992 125.2339978  48.4980014
  71.8229992 126.6749978  48.6770014  71.7739215 125.9529291  48.1938105
  61.4219992 127.0789978  49.8740014  61.0519992 126.2769978  49.5040014
  62.3629992 126.9109978  49.9200014  61.4985984 126.9464638  49.8295603
  58.0319992 120.7389978  45.2660014  57.5839992 121.5849978  45.2480014
  57.4709992 120.1599978  44.7510014  57.8948546 120.7763993  45.1938891
  58.7419992 122.9009978  47.3920014  58.9559992 122.1309978  47.9200014
  59.4799992 122.9909978  46.7890014  58.8710200 122.8078587  47.3827035
  68.9479992 131.0579978  48.2590014  69.5669992 130.3819978  47.9860014
  68.7389992 130.8399978  49.1680014  69.0046056 130.9358869  48.3443967
  66.5189992 125.4469978  50.1520014  66.8229992 124.7609978  49.5570014
  67.2409992 125.5659978  50.7700014  66.6581240 125.3692314  50.1540959
  75.1819992 117.0489978  51.0120014  75.2319992 117.6589978  51.7480014
  75.6079992 117.5099978  50.2890014  75.2464108 117.1947709  51.0150112
  69.6599992 119.8409978  50.4790014  69.8029992 118.8949978  50.4990014
  69.5539992 120.0479978  49.5510014  69.6652403 119.7394797  50.3562239
  62.8149992 117.9429978  47.7520014  62.8579992 118.8029978  47.3330014
  62.3569992 117.3909978  47.1180014  62.7589871 117.9859245  47.6090761
  70.5369992 118.0739978  46.1530014  71.1839992 117.7449978  46.7770014
  71.0469992 118.5909978  45.5300014  70.6944351 118.0989067  46.1541037
  59.4349992 120.3399978  48.5140014  60.0889992 119.7899978  48.9460014
  59.4589992 120.0659978  47.5970014  59.5277199 120.2277167  48.4491668
  64.5919992 121.8899978  47.7290014  65.2079992 121.3629978  48.2380014
  64.0049992 121.2499978  47.3250014  64.5970154 121.7313954  47.7440945
  75.5739992 118.5269978  53.2480014  74.8849992 119.1849978  53.1530014
  75.5889992 118.3289978  54.1850014  75.4817756 118.5902603  53.3615812
  61.6249992 116.8609978  51.8260014  61.4059992 117.3909978  51.0590014
  60.9569992 117.0869978  52.4730014  61.5046975 116.9640967  51.8085140
  68.9939992 126.3609978  45.3700014  68.6989992 126.0379978  44.5180014
  68.6699992 127.2609978  45.4110014  68.9098460 126.4384464  45.2589714
  64.1939992 124.5359978  52.1130014  63.4539992 125.1349978  52.2170014
  64.9079992 125.0899978  51.7980014  64.1893500 124.6927829  52.0846371
  72.3009992 117.3649978  48.1330014  72.0859992 116.5989978  48.6660014
  72.9569992 117.8369978  48.6460014  72.3602673 117.3240728  48.2751990
  61.2189992 118.7529978  49.7780014  61.8329992 119.3859978  50.1510014
  61.7309992 118.2809978  49.1220014  61.3721962 118.7757249  49.7402935
  62.6019992 126.5009978  52.9000014  62.5959992 127.3799978  52.5220014
  61.7479992 126.4169978  53.3250014  62.4857925 126.6099535  52.9056887
  58.7229992 126.1719978  43.6820014  58.4509992 126.4009978  42.7940014
  58.7679992 127.0089978  44.1430014  58.6918097 126.3166163  43.6226683
  72.3479992 127.7929978  50.3950014  71.4059992 127.8519978  50.5570014
  72.6239992 128.6989978  50.2580014  72.2565865 127.9235288  50.3986192
  72.6479992 116.0799978  51.8120014  71.9119992 116.6899978  51.7750014
  73.3319992 116.4949978  51.2860014  72.6395367 116.2197551  51.7358174
  65.6519992 114.1659978  49.2780014  65.5339992 113.2179978  49.2240014
  64.7969992 114.4989978  49.5510014  65.5202805 114.0812202  49.3075079
  70.5999992 129.5739978  47.0200014  71.0249992 128.8669978  46.5350014
  70.9169992 130.3759978  46.6030014  70.7010266 129.5855190  46.8972479
  71.7599992 127.4749978  45.5290014  71.5019992 126.7849978  44.9170014
  71.8309992 127.0319978  46.3740014  71.7343050 127.3206814  45.5595621
  73.4459992 126.0419978  54.0060014  73.5849992 125.4499978  53.2670014
  73.6129992 126.9149978  53.6500014  73.4876193 126.0788896  53.8566211
  67.9179992 123.0039978  43.7790014  67.2069992 123.5389978  43.4270014
  68.6089992 123.0589978  43.1190014  67.9140751 123.0846777  43.6415858
  67.9719992 121.4609978  40.8170014  68.6729992 121.4839978  41.4690014
  68.2739992 120.8329978  40.1610014  68.1088202 121.3792212  40.8175609
  75.2869992 122.3819978  52.0720014  74.6349992 123.0759978  52.1610014
  75.7529992 122.5919978  51.2620014  75.2605937 122.5055019  51.9747533
  71.3239992 123.2129978  44.7300014  70.5919992 123.4419978  45.3040014
  71.7709992 122.4999978  45.1850014  71.2843963 123.1478729  44.8699945
  71.2209992 121.3879978  53.7980014  71.3009992 122.1509978  54.3700014
  70.6199992 121.6669978  53.1080014  71.1506547 121.5302457  53.7830047
  62.9689992 123.8439978  46.6130014  62.6389992 123.4729978  45.7950014
  63.5579992 123.1729978  46.9600014  63.0033970 123.7026063  46.5479404
  64.3359992 127.2719978  49.2940014  64.2409992 126.6929978  48.5380014
  65.0649992 126.9009978  49.7900014  64.4216011 127.1425561  49.2576028
  63.3359992 122.6119978  50.2460014  63.9009992 122.7339978  49.4840014
  63.6549992 123.2499978  50.8850014  63.4564166 122.7148791  50.2280348
  69.6449992 128.1159978  50.9800014  69.4049992 128.7779978  51.6280014
  69.4469992 127.2809978  51.4050014  69.5853826 128.0938115  51.1261566
  64.2159992 127.0119978  54.9640014  63.9049992 127.7939978  55.4190014
  63.5659992 126.8589978  54.2780014  64.0855538 127.0984087  54.9335898
  70.1949992 122.3759978  42.4160014  70.7739992 122.5259978  43.1620014
  70.6089992 122.8459978  41.6920014  70.3303358 122.4600954  42.4203953
  61.1359992 123.2099978  54.1920014  61.2059992 123.8609978  54.8910014
  60.2449992 123.3129978  53.8570014  61.0251690 123.3129249  54.2423043
  67.9209992 129.1119978  45.8510014  68.3949992 129.4079978  46.6280014
  67.3579992 129.8509978  45.6180014  67.9097890 129.2523036  45.9258101
  62.4549992 129.0829978  55.7270014  62.4629992 128.9469978  54.7800014
  61.5389992 128.9659978  55.9790014  62.3322528 129.0485463  55.6313243
  73.8939992 114.1259978  42.2290014  72.9939992 114.2649978  42.5240014
  74.1459992 114.9569978  41.8270014  73.8048683 114.2574055  42.2150232
  61.9599992 122.9129978  44.2020014  61.6679992 123.6809978  43.7110014
  61.2849992 122.2539978  44.0390014  61.8288497 122.9289745  44.1128260
  75.0829992 128.4919978  40.6050014  75.1559992 129.4309978  40.7750014
  75.9879992 128.1869978  40.5490014  75.2154170 128.5793282  40.6207063
  58.0529992 125.2759978  53.0170014  57.5509992 125.2479978  52.2020014
  58.0579992 124.3709978  53.3270014  57.9849832 125.1497486  52.9474121
  57.8029992 128.0569978  49.9010014  58.7489992 127.9119978  49.8820014
  57.6899992 128.8409978  50.4380014  57.9173578 128.1431697  49.9710317
  76.0009992 128.7229978  55.5840014  75.9509992 127.7669978  55.5460014
  75.1739992 128.9899978  55.9850014  75.8823831 128.6284680  55.6330121
  66.9789992 128.2969978  54.4600014  67.0669992 129.1229978  54.9350014
  66.1159992 127.9669978  54.7090014  66.8743357 128.3655468  54.5587653
  67.3939992 132.0689978  44.2660014  67.3179992 131.9479978  43.3190014
  67.4259992 133.0179978  44.3840014  67.3879380 132.1807677  44.1525181
  61.0469992 130.8579978  46.0470014  61.1989992 130.5099978  46.9250014
  60.1959992 130.5009978  45.7910014  60.9528344 130.7620879  46.1326868
  70.4949992 131.2229978  41.2680014  70.8699992 130.4789978  40.7970014
  70.4999992 130.9529978  42.1860014  70.5470098 131.0846392  41.3276629
  70.1639992 131.1489978  44.0170014  69.2289992 131.2489978  44.1960014
  70.4439992 130.4389978  44.5960014  70.0739471 131.0667933  44.1196695
  73.1529992 120.2159978  56.0640014  72.7449992 120.6959978  55.3430014
  73.1929992 119.3099978  55.7560014  73.1026221 120.1592449  55.9238267
  60.3019992 126.5999978  54.0600014  60.5179992 126.2379978  54.9200014
  59.4459992 126.2249978  53.8510014  60.2158810 126.4998837  54.1492680
  62.9199992 115.0699978  50.0560014  62.0589992 114.9829978  49.6480014
  62.8979992 115.9259978  50.4840014  62.7990491 115.1738003  50.0579582
  67.5829992 114.7919978  53.4310014  68.0029992 114.3769978  54.1840014
  66.6499992 114.6129978  53.5480014  67.5143736 114.7109910  53.5498968
  70.9099992 118.5469978  54.2840014  70.3959992 118.4219978  55.0820014
  70.7539992 119.4599978  54.0400014  70.8186967 118.6532123  54.3600937
  71.6719992 123.4079978  40.0450014  71.7139992 123.1859978  39.1150014
  72.5209992 123.8069978  40.2350014  71.7925253 123.4315498  39.9433822
  67.2449992 117.2839978  40.7160014  66.9909992 117.3029978  41.6380014
  66.9879992 116.4129978  40.4140014  67.1754508 117.1688280  40.8014803
  63.0109992 120.0349978  51.1510014  62.3699992 119.9949978  51.8600014
  63.0489992 120.9619978  50.9130014  62.9283010 120.1547668  51.2159946
  63.0079992 120.2559978  46.0630014  62.1159992 119.9159978  46.0040014
  63.4589992 119.8789978  45.3070014  62.9467642 120.1584910  45.9527726
  68.5439992 120.6719978  44.8800014  68.1349992 121.4869978  44.5880014
  69.2639992 120.5319978  44.2660014  68.5854439 120.7645372  44.7570115
  67.6459992 120.8479978  56.3680014  67.0829992 120.1429978  56.6890014
  68.4719992 120.7269978  56.8360014  67.6806674 120.7352165  56.4751751
  69.5489992 120.1179978  47.6940014  69.3529992 120.7239978  46.9790014
  69.7299992 119.2849978  47.2600014  69.5466584 120.0882513  47.5374212
  60.7609992 120.3559978  53.0180014  60.7229992 120.7559978  53.8870014
  60.2709992 119.5389978  53.1080014  60.6895330 120.3002674  53.1491289
  64.1269992 117.7299978  39.8170014  63.6959992 117.2849978  40.5460014
  63.4089992 118.1009978  39.3040014  63.9709176 117.7192052  39.8474930
  57.3699992 117.4719978  46.8690014  57.9999992 117.4429978  47.5880014
  57.8189992 117.0469978  46.1380014  57.5170835 117.4105660  46.8687659
  58.6439992 118.2179978  42.2930014  59.1179992 118.8089978  41.7080014
  57.9259992 118.7479978  42.6400014  58.6118640 118.3705511  42.2597969
  68.8129992 121.7559978  52.3650014  69.1359992 121.1249978  51.7220014
  68.3719992 121.2219978  53.0260014  68.7976379 121.5973468  52.3662582
  65.5899992 117.6839978  47.1490014  64.6789992 117.7409978  47.4380014
  66.0949992 117.6239978  47.9600014  65.5336873 117.6836826  47.2981207
  60.4179992 119.3129978  45.9760014  59.5289992 119.4119978  45.6360014
  60.7149992 118.4709978  45.6300014  60.3364177 119.2127687  45.8826940
  64.0709992 119.3129978  43.6330014  65.0029992 119.4419978  43.8110014
  63.8559992 119.9819978  42.9830014  64.1694472 119.4210806  43.5694891
  69.9949992 116.9189978  50.4140014  69.3179992 117.0499978  51.0770014
  69.5099992 116.7639978  49.6030014  69.8367405 116.9159947  50.3952170
  62.7449992 120.5069978  41.1990014  62.2029992 120.1279978  40.5080014
  63.5789992 120.7019978  40.7710014  62.7834390 120.4814079  41.0464392
  73.2829992 132.5899978  56.6900014  73.4819992 133.0139978  55.8560014
  73.9379992 132.9339978  57.2970014  73.3988522 132.6946301  56.6577852
  60.8809992 125.0639978  56.2980014  61.6129992 125.3189978  56.8600014
  60.0999992 125.2689978  56.8140014  60.8756526 125.1265450  56.4445176
  66.9099992 120.4709978  49.0360014  67.4739992 119.9249978  48.4890014
  66.7619992 119.9499978  49.8250014  66.9673037 120.3256787  49.0677229
  61.9119992 116.6079978  45.4550014  61.5949992 115.7049978  45.4190014
  62.6929992 116.6099978  44.9020014  61.9742431 116.4847797  45.3753102
  65.5359992 118.8599978  51.4500014  64.7009992 119.3139978  51.5610014
  66.0599992 119.1359978  52.2020014  65.4926072 118.9593948  51.5668136
  66.0809992 125.0729978  43.1350014  65.3359992 124.5649978  42.8130014
  65.9459992 125.1219978  44.0810014  65.9608963 125.0101731  43.2188826
  73.2309992 124.2059978  51.9220014  73.8719992 124.6619978  51.3780014
  72.3999992 124.3189978  51.4590014  73.2065287 124.2836921  51.7849887
  69.9779992 117.8869978  41.3340014  69.0399992 117.9979978  41.1830014
  70.2759992 118.7429978  41.6410014  69.8896318 118.0180158  41.3548145
  67.5999992 125.2569978  54.3720014  67.2539992 124.8749978  55.1790014
  67.3999992 126.1899978  54.4430014  67.5255987 125.3309002  54.4920461
  70.6969992 119.7539978  42.9950014  71.5889992 119.6159978  43.3140014
  70.7529992 120.5449978  42.4580014  70.8267325 119.8419918  42.9661217
  61.2049992 124.3679978  48.9050014  61.9499992 124.3649978  48.3030014
  61.2829992 123.5439978  49.3860014  61.3173365 124.2562384  48.8877430
  68.2059992 126.5309978  42.1600014  67.9109992 127.3579978  42.5420014
  67.5029992 125.9119978  42.3570014  68.0706379 126.5604171  42.2388654
  58.2129992 122.8279978  54.2200014  58.4359992 122.4099978  55.0510014
  57.6109992 122.2159978  53.7970014  58.1621513 122.6879606  54.2766740
  65.2299992 122.3449978  56.4330014  64.9339992 122.1799978  55.5370014
  66.1609992 122.1249978  56.4220014  65.3154401 122.2926879  56.3090206
  69.8499992 127.7189978  54.3220014  68.9499992 127.9019978  54.0550014
  69.8839992 127.9779978  55.2430014  69.7313748 127.7790554  54.4099164
  75.5819992 119.9629978  42.6900014  75.0269992 119.5669978  42.0170014
  75.6819992 120.8739978  42.4120014  75.5196816 120.0319505  42.5605033
  75.5449992 125.7639978  55.5270014  74.6939992 126.0019978  55.1590014
  76.1349992 125.7469978  54.7740014  75.5083812 125.7942524  55.3748453
  73.8769992 128.7489978  43.1550014  73.5039992 127.9239978  43.4640014
  74.1539992 128.5659978  42.2570014  73.8633463 128.6112569  43.0759525
  71.0369992 123.5569978  50.1760014  70.1089992 123.3259978  50.1490014
  71.4879992 122.7799978  49.8460014  70.9708165 123.4202774  50.1276790
  63.5799992 127.8859978  46.3090014  64.1079992 128.6589978  46.1090014
  62.6999992 128.1099978  46.0070014  63.5333435 128.0222700  46.2407310
  59.3349992 122.7479978  40.8960014  59.9509992 123.3749978  41.2760014
  58.4729992 123.0639978  41.1680014  59.3027678 122.8764412  40.9847209
  65.0079992 125.5489978  45.8850014  64.7669992 126.4739978  45.9270014
  64.2669992 125.0899978  46.2820014  64.8749206 125.6135915  45.9443769
  65.5219992 129.6979978  52.2000014  65.8849992 130.5519978  51.9670014
  66.0539992 129.4059978  52.9410014  65.6435141 129.7753895  52.2682097
  63.6909992 130.5699978  45.4310014  62.7409992 130.6759978  45.4820014
  64.0429992 131.3909978  45.7750014  63.6085472 130.6954923  45.4844852
  69.0659992 125.7969978  51.9010014  68.6409992 125.5689978  52.7270014
  69.6469992 125.0579978  51.7190014  69.0863395 125.6659545  51.9894414
  71.2689992 126.7259978  40.9750014  71.6229992 126.3459978  41.7790014
  70.3209992 126.6319978  41.0620014  71.1892298 126.6612452  41.0968687
  71.7249992 130.3489978  54.3700014  71.1229992 129.7929978  53.8750014
  72.0059992 131.0159978  53.7440014  71.6805757 130.3630744  54.2175675
  75.7729992 131.2049978  41.1760014  76.5169992 131.7909978  41.0360014
  75.0789992 131.7739978  41.5090014  75.7809809 131.3620818  41.2018590
  59.8469992 117.5819978  53.7780014  58.9549992 117.9199978  53.7100014
  59.7489992 116.7259978  54.1960014  59.7114475 117.5126543  53.8251704
  72.1349992 125.3979978  43.2020014  71.8579992 124.6699978  43.7580014
  73.0629992 125.5169978  43.4070014  72.2224499 125.3144213  43.3058044
  59.4989992 129.3859978  52.2130014  59.7159992 128.4539978  52.1820014
  59.7449992 129.6609978  53.0960014  59.5619809 129.2955686  52.3281691
  65.3599992 127.8379978  39.4220014  65.5989992 127.0889978  38.8750014
  65.0909992 127.4499978  40.2550014  65.3563233 127.6831853  39.4597809
  64.2969992 127.4079978  41.8780014  64.4439992 126.8879978  42.6680014
  64.2939992 128.3149978  42.1850014  64.3167102 127.4593953  42.0275925
  60.7499992 124.6599978  42.3890014  60.0639992 125.0129978  42.9560014
  61.2729992 125.4229978  42.1420014  60.7268402 124.8113901  42.4331801
  68.5819992 117.3229978  52.6680014  69.2809992 117.3969978  53.3180014
  68.2009992 116.4579978  52.8220014  68.6262097 117.2162389  52.7777997
  69.3659992 116.9749978  43.7650014  69.5859992 117.4459978  42.9610014
  69.9249992 117.3689978  44.4350014  69.4716731 117.0927287  43.7455033
  67.0349992 129.1049978  42.6280014  66.2179992 129.6019978  42.6800014
  67.5639992 129.5809978  41.9870014  66.9948125 129.2371989  42.5485306
  66.5659992 118.7029978  44.6000014  67.3779992 119.2069978  44.6460014
  66.3219992 118.5579978  45.5140014  66.6441467 118.7523749  44.7298575
  67.1019992 119.6889978  53.7840014  67.2209992 120.2629978  54.5410014
  67.7569992 119.0009978  53.8990014  67.2068684 119.6745194  53.9031674
  67.4499992 115.7839978  45.5380014  67.1029992 116.4009978  46.1820014
  68.1089992 116.2849978  45.0560014  67.4915090 115.9361575  45.5610681
  64.3729992 130.1489978  42.6090014  64.5339992 130.9489978  42.1090014
  64.1759992 130.4559978  43.4940014  64.3683906 130.2998678  42.6602333
  63.1079992 116.8469978  42.2250014  63.0239992 117.7349978  42.5720014
  63.9979992 116.5819978  42.4570014  63.2168163 116.9327179  42.3038596
  73.3059992 117.5959978  54.6190014  72.3899992 117.8579978  54.5320014
  73.6419992 117.5929978  53.7230014  73.2258499 117.6315163  54.4858766
  71.9089992 121.3459978  48.7150014  71.1109992 120.9309978  48.3870014
  72.3539992 120.6559978  49.2060014  71.8599684 121.1958628  48.7365227
  61.3659992 127.2739978  41.2850014  61.9579992 127.9739978  41.5620014
  61.8249992 126.8409978  40.5660014  61.5091652 127.3112675  41.2256533
  59.6819992 119.9389978  40.4010014  59.6369992 120.8779978  40.5800014
  58.7939992 119.7029978  40.1320014  59.5558166 120.0356687  40.3891524
  72.9949992 130.6019978  50.3370014  72.8389992 131.2809978  49.6800014
  73.9279992 130.6739978  50.5400014  73.0997387 130.7046390  50.2745342
  60.4899992 114.7199978  49.0750014  60.2609992 114.7789978  48.1470014
  60.0479992 113.9289978  49.3810014  60.3988801 114.6210540  48.9894729
  59.4209992 128.6609978  45.2350014  58.5879992 129.1329978  45.2620014
  59.9659992 129.1709978  44.6360014  59.3807857 128.7944791  45.1577142
  58.7089992 131.2729978  56.5650014  59.2489992 131.0569978  57.3250014
  58.2279992 130.4679978  56.3750014  58.7179219 131.1345156  56.6434282
  63.3059992 130.1929978  58.1850014  64.0739992 129.7339978  58.5260014
  63.2849992 129.9669978  57.2550014  63.4082135 130.0996668  58.1059491
  67.3979992 129.7009978  39.5610014  66.7539992 129.0699978  39.8820014
  68.1599992 129.1699978  39.3290014  67.4128058 129.5427902  39.5736038
  69.8829992 128.5729978  56.9140014  69.5319992 127.7159978  57.1580014
  70.6089992 128.7149978  57.5210014  69.9331895 128.4751351  57.0293770
  72.0029992 129.5179978  39.7940014  72.2859992 128.7229978  40.2470014
  72.7419992 129.7509978  39.2330014  72.1417096 129.4407049  39.7801104
  58.6159992 125.0839978  57.5190014  58.7599992 124.1819978  57.2330014
  57.8439992 125.3699978  57.0320014  58.5312733 124.9991798  57.4139532
  62.9569992 125.4269978  39.6520014  63.0219992 124.6329978  40.1820014
  63.6099992 125.3089978  38.9620014  63.0541605 125.3023430  39.6312997
  65.2709992 125.0529978  56.9520014  64.9429992 125.3239978  56.0950014
  65.4229992 124.1119978  56.8640014  65.2466412 124.9629046  56.8227822
  68.3099992 126.4739978  39.3880014  68.0409992 126.6549978  40.2880014
  68.1029992 125.5489978  39.2560014  68.2451191 126.3737119  39.4935524
  71.0059992 124.9689978  54.3350014  71.7509992 125.5579978  54.2160014
  70.2489992 125.5509978  54.3990014  71.0055470 125.1282128  54.3273799
  59.4489992 122.2839978  56.9390014  59.8569992 121.4269978  56.8180014
  59.1879992 122.2979978  57.8600014  59.4696016 122.1685119  57.0469192
  64.1069992 123.3999978  41.9580014  63.6469992 122.9159978  42.6430014
  64.3619992 122.7309978  41.3220014  64.0784856 123.2433669  41.9658397
  63.3959992 121.2929978  54.3140014  62.7769992 121.9669978  54.5940014
  63.7399992 121.6139978  53.4800014  63.3577123 121.4286887  54.2396388
  65.1779992 121.6429978  40.2200014  64.9969992 121.4879978  39.2930014
  66.1279992 121.7509978  40.2650014  65.2816566 121.6363669  40.0990929
  68.4149992 123.7639978  57.5910014  69.3689992 123.8479978  57.5640014
  68.2549992 123.0519978  58.2110014  68.5237182 123.6792842  57.6710733
  74.5679992 123.9969978  39.6660014  74.2939992 123.5729978  38.8530014
  74.6069992 124.9289978  39.4490014  74.5357716 124.0648827  39.5254286
  63.7349992 118.6479978  55.3960014  63.8849992 117.9189978  54.7940014
  63.7369992 119.4249978  54.8370014  63.7557967 118.6532708  55.2380541
  64.1479992 117.0169978  52.8890014  64.6829992 117.4689978  52.2370014
  63.2949992 116.9089978  52.4660014  64.1060374 117.0642665  52.7426710
  65.7289992 122.4569978  53.1280014  66.4799992 122.3009978  52.5550014
  65.3899992 123.3089978  52.8530014  65.7859587 122.5508138  53.0124078
  70.1449992 120.2719978  58.1570014  70.3369992 119.3409978  58.0450014
  71.0029992 120.6969978  58.1460014  70.2872182 120.2020070  58.1401862
  71.4619992 123.0609978  56.2340014  71.1799992 123.7699978  55.6560014
  72.4039992 122.9879978  56.0830014  71.5507921 123.1482193  56.1344225
  62.2139992 119.8459978  57.3070014  61.4459992 119.3129978  57.0970014
  62.8919992 119.5359978  56.7080014  62.2007235 119.7311754  57.1972413
  64.9529992 114.4739978  53.3200014  64.8549992 115.4199978  53.2150014
  64.2109992 114.1009978  52.8440014  64.8392534 114.5531773  53.2412600
  66.2169992 118.7949978  56.8840014  65.9819992 118.5759978  57.7850014
  65.4339992 118.5879978  56.3740014  66.0789095 118.7369892  56.9385353
  68.9329992 117.9229978  55.9590014  67.9849992 117.9549978  56.0910014
  69.2449992 117.2969978  56.6130014  68.8455293 117.8427923  56.0654148
  70.5669992 116.5569978  57.9640014  70.4699992 115.6049978  57.9590014
  70.2449992 116.8249978  58.8250014  70.5102468 116.4630884  58.0796210
  60.3939992 117.7659978  57.0120014  60.6059992 117.0599978  56.4020014
  60.2829992 117.3289978  57.8560014  60.4080269 117.6101921  57.0425873
  65.1749992 113.7679978  55.9910014  65.8869992 113.1279978  55.9770014
  65.0739992 114.0339978  55.0780014  65.2587387 113.7164330  55.8655563
  65.5289992 115.4499978  58.0450014  65.3969992 114.9749978  57.2250014
  64.9289992 116.1949978  57.9900014  65.4299070 115.4855789  57.9253251
  65.0749992 132.3329978  41.2210014  66.0079992 132.4909978  41.3650014
  64.8109992 133.0089978  40.5960014  65.1669911 132.4459373  41.1562722
  58.6429992 126.9699978  40.7040014  59.5569992 127.0489978  40.9770014
  58.6509992 126.2829978  40.0380014  58.7690655 126.8879205  40.6512917
  57.2919992 132.3629978  45.7810014  56.6449992 131.9009978  45.2490014
  57.6469992 131.6909978  46.3640014  57.2513741 132.2089774  45.7869175
  58.1619992 130.4429978  47.5860014  57.8279992 129.5629978  47.7580014
  58.3849992 130.7889978  48.4510014  58.1463721 130.3691938  47.7264168
  75.7109992 131.2529978  50.5670014  75.6889992 131.4379978  51.5060014
  76.4009992 131.8209978  50.2260014  75.8013439 131.3551887  50.6494791
  75.2739992 130.8199978  53.4880014  74.7869992 130.0849978  53.1170014
  75.8229992 130.4259978  54.1660014  75.2815247 130.6661057  53.5288461
  73.7249992 126.6099978  58.1270014  72.8589992 126.5049978  58.5210014
  74.1009992 127.3679978  58.5730014  73.6573401 126.6981708  58.2412620
  75.0259992 124.8659978  43.6410014  75.8759992 125.2869978  43.7680014
  75.0309992 124.1259978  44.2480014  75.1431143 124.8236094  43.7404750
  75.4199992 122.9199978  45.4640014  74.6939992 122.4399978  45.8620014
  76.0019992 123.1249978  46.1970014  75.3992730 122.8820184  45.6174149
  75.1789992 125.7049978  50.4120014  76.0129992 125.3269978  50.1310014
  75.2909992 126.6479978  50.2930014  75.3081917 125.7807943  50.3574861
  73.6659992 128.5829978  52.7190014  73.0179992 128.9079978  53.3440014
  73.1479992 128.1419978  52.0450014  73.5074196 128.5678651  52.7134152
  75.6889992 122.8209978  41.8550014  75.1669992 123.1769978  41.1370014
  75.6559992 123.4959978  42.5340014  75.6130129 122.9609598  41.8483355
  74.0379992 120.0599978  40.4060014  74.1339992 120.7269978  39.7260014
  73.8979992 119.2449978  39.9250014  74.0322040 120.0410671  40.2478378
  73.2069992 121.4409978  46.0270014  73.0569992 120.4959978  46.0070014
  72.8529992 121.7219978  46.8710014  73.1386351 121.3496644  46.1383220
  58.2419992 123.5189978  50.0380014  58.4269992 123.4369978  49.1020014
  59.0919992 123.3949978  50.4610014  58.3820928 123.4910463  49.9672893
  74.0629992 123.4109978  55.6660014  74.6459992 122.6759978  55.8580014
  74.6269992 124.1829978  55.7130014  74.2189781 123.4148145  55.6986164
  75.5599992 121.3139978  56.3510014  74.6969992 120.9349978  56.1850014
  76.1639992 120.5749978  56.2760014  75.5236085 121.1623223  56.3181695
  73.2849992 117.4679978  39.5240014  73.8959992 117.0969978  40.1610014
  72.4479992 117.0469978  39.7200014  73.2554947 117.3602756  39.6377252
  72.9179992 119.0229978  44.4900014  73.1969992 118.1159978  44.6140014
  73.6769992 119.4569978  44.1010014  73.0588619 118.9574502  44.4543795
  73.5289992 119.6049978  49.9260014  74.4619992 119.8169978  49.8910014
  73.2939992 119.7059978  50.8480014  73.6249517 119.6476833  50.0459130
  73.5589992 120.3419978  52.7020014  72.7159992 120.6099978  53.0680014
  74.0009992 121.1639978  52.4910014  73.5034138 120.4898273  52.7235518
  57.8399992 118.7889978  56.1780014  58.7589992 118.6669978  56.4150014
  57.3899992 118.0389978  56.5680014  57.9050087 118.6709608  56.2631410
  75.8419992 114.3219978  58.0550014  76.1909992 113.6679978  57.4500014
  75.9889992 115.1589978  57.6150014  75.9096824 114.3456024  57.9126304
  73.5309992 116.2859978  44.5380014  73.7129992 115.8369978  45.3630014
  72.9309992 115.7019978  44.0740014  73.4748187 116.1455552  44.5882739
  59.0609992 117.1019978  49.0700014  59.5059992 116.3099978  49.3720014
  59.5269992 117.8179978  49.5000014  59.1849718 117.0904534  49.1695265
  57.3649992 120.1009978  50.1390014  57.8569992 119.8799978  49.3480014
  57.7269992 120.9409978  50.4200014  57.4812923 120.1843468  50.0687407
  75.3609992 116.4309978  56.4040014  74.4439992 116.7019978  56.3690014
  75.4839992 115.8959978  55.6200014  75.2519672 116.3957885  56.2931862
  75.3979992 116.3539978  41.0660014  75.8099992 115.6329978  40.5910014
  76.0789992 117.0229978  41.1240014  75.5465536 116.3457766  41.0088024
  57.6789992 116.3589978  44.1930014  56.7539992 116.5669978  44.0640014
  58.1329992 116.8429978  43.5030014  57.6136298 116.4529299  44.0820451
  72.4489992 131.3429978  46.1390014  73.1019992 130.9949978  45.5310014
  72.9599992 131.8309978  46.7850014  72.6072777 131.3613815  46.1432047
  57.6419992 115.0969978  52.5370014  56.9769992 114.8509978  53.1800014
  57.1989992 115.7189978  51.9600014  57.4911168 115.1474214  52.5469848
  59.8339992 128.2719978  56.6820014  59.0129992 128.4469978  56.2210014
  59.5819992 128.1989978  57.6020014  59.6875594 128.2860717  56.7433611
  62.7879992 129.2459978  52.9400014  62.3639992 130.0559978  52.6580014
  63.6929992 129.3319978  52.6380014  62.8522138 129.3684160  52.8606415
  67.0999992 130.6449978  55.9000014  67.2839992 130.3119978  56.7780014
  67.9459992 130.9549978  55.5780014  67.2396484 130.6412979  55.9767617
  69.4449992 131.9309978  55.1440014  70.1219992 131.2979978  54.9040014
  69.7659992 132.3319978  55.9510014  69.5811323 131.8985691  55.2203158
  74.3619992 114.5209978  54.2230014  73.5489992 114.8459978  53.8360014
  74.5949992 113.7599978  53.6900014  74.2821347 114.4626880  54.0979841
  60.1899992 132.5029978  52.9880014  59.4699992 132.9429978  52.5370014
  59.8249992 132.2519978  53.8360014  60.0419643 132.5293369  53.0409129
  62.6569992 132.1029978  52.0180014  61.7929992 132.1749978  52.4220014
  62.6019992 132.6499978  51.2340014  62.5311942 132.1867849  51.9674000
  67.3679992 131.9909978  51.1930014  66.9109992 132.5199978  50.5390014
  67.5309992 132.5939978  51.9180014  67.3274960 132.1449280  51.2015274
  69.6959992 130.8689978  52.1380014  68.7909992 131.0339978  51.8720014
  70.1239992 131.7219978  52.0720014  69.6301537 131.0069134  52.0927095
  72.2999992 132.4389978  52.4330014  72.1179992 133.3549978  52.2220014
  72.4769992 132.0279978  51.5860014  72.2990030 132.5088273  52.2897166
  59.6049992 131.1259978  49.8980014  59.5869992 130.6999978  50.7550014
  60.4099992 130.8069978  49.4890014  59.7112875 131.0246435  49.9599515
  61.7459992 129.8359978  48.5530014  61.5269992 128.9189978  48.7230014
  62.5699992 129.9759978  49.0190014  61.8274702 129.7295511  48.6392527
  64.2829992 130.3059978  49.4020014  64.4959992 129.4179978  49.1150014
  64.3479992 130.2709978  50.3560014  64.3209149 130.1798326  49.4917369
  67.7919992 115.9699978  48.5460014  67.1179992 115.3399978  48.8020014
  68.3559992 115.4859978  47.9430014  67.7760384 115.8183708  48.4995020
  72.9349992 114.0769978  48.6590014  73.5379992 114.6249978  48.1570014
  72.0649992 114.3959978  48.4180014  72.8999157 114.1950373  48.5577910
  74.6619992 115.2159978  46.9920014  75.2729992 114.7019978  46.4650014
  75.0439992 116.0929978  47.0150014  74.7973305 115.2642050  46.9229418
  60.1189992 114.6039978  46.3680014  59.3419992 114.3689978  45.8610014
  60.6489992 113.8069978  46.3770014  60.0843451 114.4641268  46.2998627
  58.9549992 114.4019978  42.1720014  59.3939992 115.0129978  41.5800014
  58.3209992 114.9399978  42.6460014  58.9293859 114.5584064  42.1550305
  64.6979992 114.5299978  46.1810014  65.5719992 114.9189978  46.1520014
  64.5619992 114.3149978  47.1040014  64.7991953 114.5541643  46.3017617
  70.2549992 114.5599978  47.8310014  70.3309992 114.6559978  46.8810014
  69.9799992 113.6529978  47.9590014  70.2281871 114.4504146  47.7183944
  71.6079992 114.5859978  43.5230014  70.9049992 115.2009978  43.3130014
  71.1629992 113.7489978  43.6540014  71.4516550 114.5569668  43.5119837
  58.8559992 130.3499978  43.0690014  58.1709992 130.3119978  42.4020014
  58.8599992 131.2629978  43.3570014  58.7627621 130.4681924  43.0166126
  60.8159992 116.3179978  40.6140014  61.3069992 115.6879978  40.0870014
  61.4389992 116.6139978  41.2770014  60.9675304 116.2717376  40.6314940
  65.8419992 116.6109978  43.0710014  66.0199992 115.9639978  43.7540014
  65.7879992 117.4449978  43.5380014  65.8590678 116.6351604  43.2276301
  67.7199992 131.5589978  41.4670014  68.5859992 131.9259978  41.2890014
  67.4739992 131.1199978  40.6530014  67.8052097 131.5498525  41.3326019
  74.4289992 131.1219978  44.1460014  74.2349992 130.3739978  43.5810014
  74.3899992 131.8799978  43.5630014  74.3971645 131.1220786  43.9898148
  60.0759992 115.1179978  55.8860014  59.7099992 114.3519978  56.3280014
  60.9889992 115.1469978  56.1720014  60.1493172 115.0170324  55.9851890
  62.0489992 114.4679978  57.4210014  62.9479992 114.1939978  57.2370014
  61.6629992 113.7259978  57.8860014  62.1197307 114.3302196  57.4587098
  60.6739992 131.2699978  40.0940014  60.4059992 131.5559978  40.9680014
  61.4449992 130.7239978  40.2470014  60.7415927 131.2352779  40.2341205
  70.4709992 113.8009978  57.6040014  70.5469992 113.3749978  58.4570014
  71.3639992 113.8139978  57.2610014  70.6022303 113.7443493  57.6745497
  73.6469992 129.8739978  56.2960014  72.8649992 129.6869978  55.7760014
  73.5749992 130.8029978  56.5130014  73.5301924 129.9740637  56.2541602
  88.0529992 123.7599978  46.3270014  88.1419992 124.7039978  46.1950014
  87.4149992 123.4849978  45.6690014  87.9789062 123.8519812  46.2199641
  86.9859992 123.0149978  49.7460014  86.9479992 122.3689978  50.4510014
  86.6639992 122.5479978  48.9750014  86.9372679 122.8634276  49.7382921
  79.3539992 122.6289978  51.3390014  79.3959992 122.0039978  52.0620014
  80.0569992 123.2529978  51.5210014  79.4547345 122.6277873  51.4625274
  90.6919992 125.9539978  48.0470014  90.2509992 125.2339978  48.4980014
  90.6789992 126.6749978  48.6770014  90.6299215 125.9529291  48.1938105
  80.2779992 127.0789978  49.8740014  79.9079992 126.2769978  49.5040014
  81.2189992 126.9109978  49.9200014  80.3545984 126.9464638  49.8295603
  76.8879992 120.7389978  45.2660014  76.4399992 121.5849978  45.2480014
  76.3269992 120.1599978  44.7510014  76.7508546 120.7763993  45.1938891
  77.5979992 122.9009978  47.3920014  77.8119992 122.1309978  47.9200014
  78.3359992 122.9909978  46.7890014  77.7270200 122.8078586  47.3827035
  87.8039992 131.0579978  48.2590014  88.4229992 130.3819978  47.9860014
  87.5949992 130.8399978  49.1680014  87.8606056 130.9358869  48.3443967
  85.3749992 125.4469978  50.1520014  85.6789992 124.7609978  49.5570014
  86.0969992 125.5659978  50.7700014  85.5141240 125.3692314  50.1540959
  94.0379992 117.0489978  51.0120014  94.0879992 117.6589978  51.7480014
  94.4639992 117.5099978  50.2890014  94.1024108 117.1947709  51.0150112
  88.5159992 119.8409978  50.4790014  88.6589992 118.8949978  50.4990014
  88.4099992 120.0479978  49.5510014  88.5212403 119.7394797  50.3562239
  81.6709992 117.9429978  47.7520014  81.7139992 118.8029978  47.3330014
  81.2129992 117.3909978  47.1180014  81.6149871 117.9859245  47.6090761
  89.3929992 118.0739978  46.1530014  90.0399992 117.7449978  46.7770014
  89.9029992 118.5909978  45.5300014  89.5504351 118.0989067  46.1541037
  78.2909992 120.3399978  48.5140014  78.9449992 119.7899978  48.9460014
  78.3149992 120.0659978  47.5970014  78.3837199 120.2277167  48.4491668
  83.4479992 121.8899978  47.7290014  84.0639992 121.3629978  48.2380014
  82.8609992 121.2499978  47.3250014  83.4530154 121.7313954  47.7440945
  94.4299992 118.5269978  53.2480014  93.7409992 119.1849978  53.1530014
  94.4449992 118.3289978  54.1850014  94.3377756 118.5902603  53.3615812
  80.4809992 116.8609978  51.8260014  80.2619992 117.3909978  51.0590014
  79.8129992 117.0869978  52.4730014  80.3606975 116.9640967  51.8085140
  87.8499992 126.3609978  45.3700014  87.5549992 126.0379978  44.5180014
  87.5259992 127.2609978  45.4110014  87.7658460 126.4384464  45.2589714
  83.0499992 124.5359978  52.1130014  82.3099992 125.1349978  52.2170014
  83.7639992 125.0899978  51.7980014  83.0453500 124.6927829  52.0846371
  91.1569992 117.3649978  48.1330014  90.9419992 116.5989978  48.6660014
  91.8129992 117.8369978  48.6460014  91.2162673 117.3240728  48.2751990
  80.0749992 118.7529978  49.7780014  80.6889992 119.3859978  50.1510014
  80.5869992 118.2809978  49.1220014  80.2281962 118.7757249  49.7402935
  81.4579992 126.5009978  52.9000014  81.4519992 127.3799978  52.5220014
  80.6039992 126.4169978  53.3250014  81.3417925 126.6099535  52.9056887
  77.5789992 126.1719978  43.6820014  77.3069992 126.4009978  42.7940014
  77.6239992 127.0089978  44.1430014  77.5478097 126.3166163  43.6226683
  91.2039992 127.7929978  50.3950014  90.2619992 127.8519978  50.5570014
  91.4799992 128.6989978  50.2580014  91.1125865 127.9235288  50.3986192
  91.5039992 116.0799978  51.8120014  90.7679992 116.6899978  51.7750014
  92.1879992 116.4949978  51.2860014  91.4955367 116.2197551  51.7358174
  84.5079992 114.1659978  49.2780014  84.3899992 113.2179978  49.2240014
  83.6529992 114.4989978  49.5510014  84.3762805 114.0812202  49.3075079
  89.4559992 129.5739978  47.0200014  89.8809992 128.8669978  46.5350014
  89.7729992 130.3759978  46.6030014  89.5570266 129.5855190  46.8972479
  90.6159992 127.4749978  45.5290014  90.3579992 126.7849978  44.9170014
  90.6869992 127.0319978  46.3740014  90.5903050 127.3206814  45.5595621
  92.3019992 126.0419978  54.0060014  92.4409992 125.4499978  53.2670014
  92.4689992 126.9149978  53.6500014  92.3436193 126.0788896  53.8566211
  86.7739992 123.0039978  43.7790014  86.0629992 123.5389978  43.4270014
  87.4649992 123.0589978  43.1190014  86.7700751 123.0846777  43.6415858
  86.8279992 121.4609978  40.8170014  87.5289992 121.4839978  41.4690014
  87.1299992 120.8329978  40.1610014  86.9648202 121.3792212  40.8175609
  94.1429992 122.3819978  52.0720014  93.4909992 123.0759978  52.1610014
  94.6089992 122.5919978  51.2620014  94.1165937 122.5055019  51.9747533
  90.1799992 123.2129978  44.7300014  89.4479992 123.4419978  45.3040014
  90.6269992 122.4999978  45.1850014  90.1403963 123.1478729  44.8699945
  90.0769992 121.3879978  53.7980014  90.1569992 122.1509978  54.3700014
  89.4759992 121.6669978  53.1080014  90.0066547 121.5302457  53.7830047
  81.8249992 123.8439978  46.6130014  81.4949992 123.4729978  45.7950014
  82.4139992 123.1729978  46.9600014  81.8593970 123.7026063  46.5479404
  83.1919992 127.2719978  49.2940014  83.0969992 126.6929978  48.5380014
  83.9209992 126.9009978  49.7900014  83.2776011 127.1425561  49.2576028
  82.1919992 122.6119978  50.2460014  82.7569992 122.7339978  49.4840014
  82.5109992 123.2499978  50.8850014  82.3124166 122.7148791  50.2280348
  88.5009992 128.1159978  50.9800014  88.2609992 128.7779978  51.6280014
  88.3029992 127.2809978  51.4050014  88.4413826 128.0938115  51.1261566
  83.0719992 127.0119978  54.9640014  82.7609992 127.7939978  55.4190014
  82.4219992 126.8589978  54.2780014  82.9415538 127.0984087  54.9335898
  89.0509992 122.3759978  42.4160014  89.6299992 122.5259978  43.1620014
  89.4649992 122.8459978  41.6920014  89.1863358 122.4600954  42.4203953
  79.9919992 123.2099978  54.1920014  80.0619992 123.8609978  54.8910014
  79.1009992 123.3129978  53.8570014  79.8811690 123.3129249  54.2423043
  86.7769992 129.1119978  45.8510014  87.2509992 129.4079978  46.6280014
  86.2139992 129.8509978  45.6180014  86.7657890 129.2523036  45.9258101
  81.3109992 129.0829978  55.7270014  81.3189992 128.9469978  54.7800014
  80.3949992 128.9659978  55.9790014  81.1882528 129.0485463  55.6313243
  92.7499992 114.1259978  42.2290014  91.8499992 114.2649978  42.5240014
  93.0019992 114.9569978  41.8270014  92.6608683 114.2574055  42.2150232
  80.8159992 122.9129978  44.2020014  80.5239992 123.6809978  43.7110014
  80.1409992 122.2539978  44.0390014  80.6848497 122.9289745  44.1128260
  93.9389992 128.4919978  40.6050014  94.0119992 129.4309978  40.7750014
  94.8439992 128.1869978  40.5490014  94.0714170 128.5793282  40.6207063
  76.9089992 125.2759978  53.0170014  76.4069992 125.2479978  52.2020014
  76.9139992 124.3709978  53.3270014  76.8409832 125.1497486  52.9474121
  76.6589992 128.0569978  49.9010014  77.6049992 127.9119978  49.8820014
  76.5459992 128.8409978  50.4380014  76.7733578 128.1431697  49.9710317
  94.8569992 128.7229978  55.5840014  94.8069992 127.7669978  55.5460014
  94.0299992 128.9899978  55.9850014  94.7383831 128.6284680  55.6330121
  85.8349992 128.2969978  54.4600014  85.9229992 129.1229978  54.9350014
  84.9719992 127.9669978  54.7090014  85.7303357 128.3655468  54.5587653
  86.2499992 132.0689978  44.2660014  86.1739992 131.9479978  43.3190014
  86.2819992 133.0179978  44.3840014  86.2439380 132.1807677  44.1525181
  79.9029992 130.8579978  46.0470014  80.0549992 130.5099978  46.9250014
  79.0519992 130.5009978  45.7910014  79.8088344 130.7620879  46.1326868
  89.3509992 131.2229978  41.2680014  89.7259992 130.4789978  40.7970014
  89.3559992 130.9529978  42.1860014  89.4030098 131.0846392  41.3276629
  89.0199992 131.1489978  44.0170014  88.0849992 131.2489978  44.1960014
  89.2999992 130.4389978  44.5960014  88.9299471 131.0667933  44.1196695
  92.0089992 120.2159978  56.0640014  91.6009992 120.6959978  55.3430014
  92.0489992 119.3099978  55.7560014  91.9586221 120.1592449  55.9238267
  79.1579992 126.5999978  54.0600014  79.3739992 126.2379978  54.9200014
  78.3019992 126.2249978  53.8510014  79.0718810 126.4998837  54.1492680
  81.7759992 115.0699978  50.0560014  80.9149992 114.9829978  49.6480014
  81.7539992 115.9259978  50.4840014  81.6550491 115.1738003  50.0579582
  86.4389992 114.7919978  53.4310014  86.8589992 114.3769978  54.1840014
  85.5059992 114.6129978  53.5480014  86.3703736 114.7109910  53.5498968
  89.7659992 118.5469978  54.2840014  89.2519992 118.4219978  55.0820014
  89.6099992 119.4599978  54.0400014  89.6746967 118.6532123  54.3600937
  90.5279992 123.4079978  40.0450014  90.5699992 123.1859978  39.1150014
  91.3769992 123.8069978  40.2350014  90.6485253 123.4315498  39.9433822
  86.1009992 117.2839978  40.7160014  85.8469992 117.3029978  41.6380014
  85.8439992 116.4129978  40.4140014  86.0314508 117.1688280  40.8014803
  81.8669992 120.0349978  51.1510014  81.2259992 119.9949978  51.8600014
  81.9049992 120.9619978  50.9130014  81.7843010 120.1547668  51.2159946
  81.8639992 120.2559978  46.0630014  80.9719992 119.9159978  46.0040014
  82.3149992 119.8789978  45.3070014  81.8027642 120.1584910  45.9527726
  87.3999992 120.6719978  44.8800014  86.9909992 121.4869978  44.5880014
  88.1199992 120.5319978  44.2660014  87.4414439 120.7645372  44.7570115
  86.5019992 120.8479978  56.3680014  85.9389992 120.1429978  56.6890014
  87.3279992 120.7269978  56.8360014  86.5366674 120.7352165  56.4751751
  88.4049992 120.1179978  47.6940014  88.2089992 120.7239978  46.9790014
  88.5859992 119.2849978  47.2600014  88.4026584 120.0882513  47.5374212
  79.6169992 120.3559978  53.0180014  79.5789992 120.7559978  53.8870014
  79.1269992 119.5389978  53.1080014  79.5455330 120.3002674  53.1491289
  82.9829992 117.7299978  39.8170014  82.5519992 117.2849978  40.5460014
  82.2649992 118.1009978  39.3040014  82.8269176 117.7192052  39.8474930
  76.2259992 117.4719978  46.8690014  76.8559992 117.4429978  47.5880014
  76.6749992 117.0469978  46.1380014  76.3730835 117.4105660  46.8687659
  77.4999992 118.2179978  42.2930014  77.9739992 118.8089978  41.7080014
  76.7819992 118.7479978  42.6400014  77.4678640 118.3705511  42.2597969
  87.6689992 121.7559978  52.3650014  87.9919992 121.1249978  51.7220014
  87.2279992 121.2219978  53.0260014  87.6536379 121.5973468  52.3662582
  84.4459992 117.6839978  47.1490014  83.5349992 117.7409978  47.4380014
  84.9509992 117.6239978  47.9600014  84.3896873 117.6836826  47.2981207
  79.2739992 119.3129978  45.9760014  78.3849992 119.4119978  45.6360014
  79.5709992 118.4709978  45.6300014  79.1924177 119.2127687  45.8826940
  82.9269992 119.3129978  43.6330014  83.8589992 119.4419978  43.8110014
  82.7119992 119.9819978  42.9830014  83.0254472 119.4210806  43.5694891
  88.8509992 116.9189978  50.4140014  88.1739992 117.0499978  51.0770014
  88.3659992 116.7639978  49.6030014  88.6927405 116.9159947  50.3952170
  81.6009992 120.5069978  41.1990014  81.0589992 120.1279978  40.5080014
  82.4349992 120.7019978  40.7710014  81.6394390 120.4814079  41.0464392
  92.1389992 132.5899978  56.6900014  92.3379992 133.0139978  55.8560014
  92.7939992 132.9339978  57.2970014  92.2548522 132.6946301  56.6577852
  79.7369992 125.0639978  56.2980014  80.4689992 125.3189978  56.8600014
  78.9559992 125.2689978  56.8140014  79.7316526 125.1265450  56.4445176
  85.7659992 120.4709978  49.0360014  86.3299992 119.9249978  48.4890014
  85.6179992 119.9499978  49.8250014  85.8233037 120.3256787  49.0677229
  80.7679992 116.6079978  45.4550014  80.4509992 115.7049978  45.4190014
  81.5489992 116.6099978  44.9020014  80.8302431 116.4847797  45.3753102
  84.3919992 118.8599978  51.4500014  83.5569992 119.3139978  51.5610014
  84.9159992 119.1359978  52.2020014  84.3486072 118.9593948  51.5668136
  84.9369992 125.0729978  43.1350014  84.1919992 124.5649978  42.8130014
  84.8019992 125.1219978  44.0810014  84.8168963 125.0101731  43.2188826
  92.0869992 124.2059978  51.9220014  92.7279992 124.6619978  51.3780014
  91.2559992 124.3189978  51.4590014  92.0625287 124.2836921  51.7849887
  88.8339992 117.8869978  41.3340014  87.8959992 117.9979978  41.1830014
  89.1319992 118.7429978  41.6410014  88.7456318 118.0180158  41.3548145
  86.4559992 125.2569978  54.3720014  86.1099992 124.8749978  55.1790014
  86.2559992 126.1899978  54.4430014  86.3815987 125.3309002  54.4920461
  89.5529992 119.7539978  42.9950014  90.4449992 119.6159978  43.3140014
  89.6089992 120.5449978  42.4580014  89.6827325 119.8419918  42.9661217
  80.0609992 124.3679978  48.9050014  80.8059992 124.3649978  48.3030014
  80.1389992 123.5439978  49.3860014  80.1733365 124.2562384  48.8877430
  87.0619992 126.5309978  42.1600014  86.7669992 127.3579978  42.5420014
  86.3589992 125.9119978  42.3570014  86.9266379 126.5604171  42.2388654
  77.0689992 122.8279978  54.2200014  77.2919992 122.4099978  55.0510014
  76.4669992 122.2159978  53.7970014  77.0181513 122.6879606  54.2766740
  84.0859992 122.3449978  56.4330014  83.7899992 122.1799978  55.5370014
  85.0169992 122.1249978  56.4220014  84.1714401 122.2926879  56.3090206
  88.7059992 127.7189978  54.3220014  87.8059992 127.9019978  54.0550014
  88.7399992 127.9779978  55.2430014  88.5873748 127.7790554  54.4099164
  94.4379992 119.9629978  42.6900014  93.8829992 119.5669978  42.0170014
  94.5379992 120.8739978  42.4120014  94.3756816 120.0319505  42.5605033
  94.4009992 125.7639978  55.5270014  93.5499992 126.0019978  55.1590014
  94.9909992 125.7469978  54.7740014  94.3643812 125.7942524  55.3748453
  92.7329992 128.7489978  43.1550014  92.3599992 127.9239978  43.4640014
  93.0099992 128.5659978  42.2570014  92.7193463 128.6112569  43.0759525
  89.8929992 123.5569978  50.1760014  88.9649992 123.3259978  50.1490014
  90.3439992 122.7799978  49.8460014  89.8268165 123.4202774  50.1276790
  82.4359992 127.8859978  46.3090014  82.9639992 128.6589978  46.1090014
  81.5559992 128.1099978  46.0070014  82.3893435 128.0222700  46.2407310
  78.1909992 122.7479978  40.8960014  78.8069992 123.3749978  41.2760014
  77.3289992 123.0639978  41.1680014  78.1587678 122.8764412  40.9847209
  83.8639992 125.5489978  45.8850014  83.6229992 126.4739978  45.9270014
  83.1229992 125.0899978  46.2820014  83.7309206 125.6135915  45.9443769
  84.3779992 129.6979978  52.2000014  84.7409992 130.5519978  51.9670014
  84.9099992 129.4059978  52.9410014  84.4995141 129.7753895  52.2682097
  82.5469992 130.5699978  45.4310014  81.5969992 130.6759978  45.4820014
  82.8989992 131.3909978  45.7750014  82.4645472 130.6954923  45.4844852
  87.9219992 125.7969978  51.9010014  87.4969992 125.5689978  52.7270014
  88.5029992 125.0579978  51.7190014  87.9423395 125.6659545  51.9894414
  90.1249992 126.7259978  40.9750014  90.4789992 126.3459978  41.7790014
  89.1769992 126.6319978  41.0620014  90.0452298 126.6612452  41.0968687
  90.5809992 130.3489978  54.3700014  89.9789992 129.7929978  53.8750014
  90.8619992 131.0159978  53.7440014  90.5365757 130.3630744  54.2175675
  94.6289992 131.2049978  41.1760014  95.3729992 131.7909978  41.0360014
  93.9349992 131.7739978  41.5090014  94.6369809 131.3620818  41.2018590
  78.7029992 117.5819978  53.7780014  77.8109992 117.9199978  53.7100014
  78.6049992 116.7259978  54.1960014  78.5674475 117.5126543  53.8251704
  90.9909992 125.3979978  43.2020014  90.7139992 124.6699978  43.7580014
  91.9189992 125.5169978  43.4070014  91.0784499 125.3144213  43.3058044
  78.3549992 129.3859978  52.2130014  78.5719992 128.4539978  52.1820014
  78.6009992 129.6609978  53.0960014  78.4179809 129.2955686  52.3281691
  84.2159992 127.8379978  39.4220014  84.4549992 127.0889978  38.8750014
  83.9469992 127.4499978  40.2550014  84.2123233 127.6831853  39.4597809
  83.1529992 127.4079978  41.8780014  83.2999992 126.8879978  42.6680014
  83.1499992 128.3149978  42.1850014  83.1727102 127.4593953  42.0275925
  79.6059992 124.6599978  42.3890014  78.9199992 125.0129978  42.9560014
  80.1289992 125.4229978  42.1420014  79.5828402 124.8113901  42.4331801
  87.4379992 117.3229978  52.6680014  88.1369992 117.3969978  53.3180014
  87.0569992 116.4579978  52.8220014  87.4822097 117.2162389  52.7777997
  88.2219992 116.9749978  43.7650014  88.4419992 117.4459978  42.9610014
  88.7809992 117.3689978  44.4350014  88.3276731 117.0927287  43.7455033
  85.8909992 129.1049978  42.6280014  85.0739992 129.6019978  42.6800014
  86.4199992 129.5809978  41.9870014  85.8508125 129.2371989  42.5485306
  85.4219992 118.7029978  44.6000014  86.2339992 119.2069978  44.6460014
  85.1779992 118.5579978  45.5140014  85.5001467 118.7523749  44.7298575
  85.9579992 119.6889978  53.7840014  86.0769992 120.2629978  54.5410014
  86.6129992 119.0009978  53.8990014  86.0628684 119.6745194  53.9031674
  86.3059992 115.7839978  45.5380014  85.9589992 116.4009978  46.1820014
  86.9649992 116.2849978  45.0560014  86.3475090 115.9361575  45.5610681
  83.2289992 130.1489978  42.6090014  83.3899992 130.9489978  42.1090014
  83.0319992 130.4559978  43.4940014  83.2243906 130.2998678  42.6602333
  81.9639992 116.8469978  42.2250014  81.8799992 117.7349978  42.5720014
  82.8539992 116.5819978  42.4570014  82.0728163 116.9327179  42.3038596
  92.1619992 117.5959978  54.6190014  91.2459992 117.8579978  54.5320014
  92.4979992 117.5929978  53.7230014  92.0818499 117.6315163  54.4858766
  90.7649992 121.3459978  48.7150014  89.9669992 120.9309978  48.3870014
  91.2099992 120.6559978  49.2060014  90.7159684 121.1958628  48.7365227
  80.2219992 127.2739978  41.2850014  80.8139992 127.9739978  41.5620014
  80.6809992 126.8409978  40.5660014  80.3651652 127.3112675  41.2256533
  78.5379992 119.9389978  40.4010014  78.4929992 120.8779978  40.5800014
  77.6499992 119.7029978  40.1320014  78.4118166 120.0356687  40.3891524
  91.8509992 130.6019978  50.3370014  91.6949992 131.2809978  49.6800014
  92.7839992 130.6739978  50.5400014  91.9557387 130.7046390  50.2745342
  79.3459992 114.7199978  49.0750014  79.1169992 114.7789978  48.1470014
  78.9039992 113.9289978  49.3810014  79.2548801 114.6210540  48.9894729
  78.2769992 128.6609978  45.2350014  77.4439992 129.1329978  45.2620014
  78.8219992 129.1709978  44.6360014  78.2367857 128.7944791  45.1577142
  77.5649992 131.2729978  56.5650014  78.1049992 131.0569978  57.3250014
  77.0839992 130.4679978  56.3750014  77.5739219 131.1345156  56.6434282
  82.1619992 130.1929978  58.1850014  82.9299992 129.7339978  58.5260014
  82.1409992 129.9669978  57.2550014  82.2642135 130.0996668  58.1059491
  86.2539992 129.7009978  39.5610014  85.6099992 129.0699978  39.8820014
  87.0159992 129.1699978  39.3290014  86.2688058 129.5427902  39.5736038
  88.7389992 128.5729978  56.9140014  88.3879992 127.7159978  57.1580014
  89.4649992 128.7149978  57.5210014  88.7891895 128.4751351  57.0293770
  90.8589992 129.5179978  39.7940014  91.1419992 128.7229978  40.2470014
  91.5979992 129.7509978  39.2330014  90.9977096 129.4407049  39.7801104
  77.4719992 125.0839978  57.5190014  77.6159992 124.1819978  57.2330014
  76.6999992 125.3699978  57.0320014  77.3872733 124.9991798  57.4139532
  81.8129992 125.4269978  39.6520014  81.8779992 124.6329978  40.1820014
  82.4659992 125.3089978  38.9620014  81.9101605 125.3023430  39.6312997
  84.1269992 125.0529978  56.9520014  83.7989992 125.3239978  56.0950014
  84.2789992 124.1119978  56.8640014  84.1026412 124.9629046  56.8227822
  87.1659992 126.4739978  39.3880014  86.8969992 126.6549978  40.2880014
  86.9589992 125.5489978  39.2560014  87.1011191 126.3737119  39.4935524
  89.8619992 124.9689978  54.3350014  90.6069992 125.5579978  54.2160014
  89.1049992 125.5509978  54.3990014  89.8615470 125.1282128  54.3273799
  78.3049992 122.2839978  56.9390014  78.7129992 121.4269978  56.8180014
  78.0439992 122.2979978  57.8600014  78.3256016 122.1685119  57.0469192
  82.9629992 123.3999978  41.9580014  82.5029992 122.9159978  42.6430014
  83.2179992 122.7309978  41.3220014  82.9344856 123.2433669  41.9658397
  82.2519992 121.2929978  54.3140014  81.6329992 121.9669978  54.5940014
  82.5959992 121.6139978  53.4800014  82.2137123 121.4286887  54.2396388
  84.0339992 121.6429978  40.2200014  83.8529992 121.4879978  39.2930014
  84.9839992 121.7509978  40.2650014  84.1376566 121.6363669  40.0990929
  87.2709992 123.7639978  57.5910014  88.2249992 123.8479978  57.5640014
  87.1109992 123.0519978  58.2110014  87.3797182 123.6792842  57.6710733
  93.4239992 123.9969978  39.6660014  93.1499992 123.5729978  38.8530014
  93.4629992 124.9289978  39.4490014  93.3917716 124.0648827  39.5254286
  82.5909992 118.6479978  55.3960014  82.7409992 117.9189978  54.7940014
  82.5929992 119.4249978  54.8370014  82.6117967 118.6532708  55.2380541
  83.0039992 117.0169978  52.8890014  83.5389992 117.4689978  52.2370014
  82.1509992 116.9089978  52.4660014  82.9620374 117.0642665  52.7426710
  84.5849992 122.4569978  53.1280014  85.3359992 122.3009978  52.5550014
  84.2459992 123.3089978  52.8530014  84.6419587 122.5508138  53.0124078
  89.0009992 120.2719978  58.1570014  89.1929992 119.3409978  58.0450014
  89.8589992 120.6969978  58.1460014  89.1432182 120.2020070  58.1401862
  90.3179992 123.0609978  56.2340014  90.0359992 123.7699978  55.6560014
  91.2599992 122.9879978  56.0830014  90.4067921 123.1482193  56.1344225
  81.0699992 119.8459978  57.3070014  80.3019992 119.3129978  57.0970014
  81.7479992 119.5359978  56.7080014  81.0567235 119.7311754  57.1972413
  83.8089992 114.4739978  53.3200014  83.7109992 115.4199978  53.2150014
  83.0669992 114.1009978  52.8440014  83.6952534 114.5531773  53.2412600
  85.0729992 118.7949978  56.8840014  84.8379992 118.5759978  57.7850014
  84.2899992 118.5879978  56.3740014  84.9349095 118.7369892  56.9385353
  87.7889992 117.9229978  55.9590014  86.8409992 117.9549978  56.0910014
  88.1009992 117.2969978  56.6130014  87.7015293 117.8427923  56.0654148
  89.4229992 116.5569978  57.9640014  89.3259992 115.6049978  57.9590014
  89.1009992 116.8249978  58.8250014  89.3662468 116.4630884  58.0796210
  79.2499992 117.7659978  57.0120014  79.4619992 117.0599978  56.4020014
  79.1389992 117.3289978  57.8560014  79.2640269 117.6101921  57.0425873
  84.0309992 113.7679978  55.9910014  84.7429992 113.1279978  55.9770014
  83.9299992 114.0339978  55.0780014  84.1147387 113.7164330  55.8655563
  84.3849992 115.4499978  58.0450014  84.2529992 114.9749978  57.2250014
  83.7849992 116.1949978  57.9900014  84.2859070 115.4855789  57.9253251
  83.9309992 132.3329978  41.2210014  84.8639992 132.4909978  41.3650014
  83.6669992 133.0089978  40.5960014  84.0229911 132.4459373  41.1562722
  77.4989992 126.9699978  40.7040014  78.4129992 127.0489978  40.9770014
  77.5069992 126.2829978  40.0380014  77.6250655 126.8879205  40.6512917
  76.1479992 132.3629978  45.7810014  75.5009992 131.9009978  45.2490014
  76.5029992 131.6909978  46.3640014  76.1073741 132.2089774  45.7869175
  77.0179992 130.4429978  47.5860014  76.6839992 129.5629978  47.7580014
  77.2409992 130.7889978  48.4510014  77.0023721 130.3691938  47.7264168
  94.5669992 131.2529978  50.5670014  94.5449992 131.4379978  51.5060014
  95.2569992 131.8209978  50.2260014  94.6573439 131.3551887  50.6494791
  94.1299992 130.8199978  53.4880014  93.6429992 130.0849978  53.1170014
  94.6789992 130.4259978  54.1660014  94.1375247 130.6661057  53.5288461
  92.5809992 126.6099978  58.1270014  91.7149992 126.5049978  58.5210014
  92.9569992 127.3679978  58.5730014  92.5133401 126.6981708  58.2412620
  93.8819992 124.8659978  43.6410014  94.7319992 125.2869978  43.7680014
  93.8869992 124.1259978  44.2480014  93.9991143 124.8236094  43.7404750
  94.2759992 122.9199978  45.4640014  93.5499992 122.4399978  45.8620014
  94.8579992 123.1249978  46.1970014  94.2552730 122.8820184  45.6174149
  94.0349992 125.7049978  50.4120014  94.8689992 125.3269978  50.1310014
  94.1469992 126.6479978  50.2930014  94.1641917 125.7807943  50.3574861
  92.5219992 128.5829978  52.7190014  91.8739992 128.9079978  53.3440014
  92.0039992 128.1419978  52.0450014  92.3634196 128.5678651  52.7134152
  94.5449992 122.8209978  41.8550014  94.0229992 123.1769978  41.1370014
  94.5119992 123.4959978  42.5340014  94.4690129 122.9609598  41.8483355
  92.8939992 120.0599978  40.4060014  92.9899992 120.7269978  39.7260014
  92.7539992 119.2449978  39.9250014  92.8882040 120.0410671  40.2478378
  92.0629992 121.4409978  46.0270014  91.9129992 120.4959978  46.0070014
  91.7089992 121.7219978  46.8710014  91.9946351 121.3496644  46.1383220
  77.0979992 123.5189978  50.0380014  77.2829992 123.4369978  49.1020014
  77.9479992 123.3949978  50.4610014  77.2380928 123.4910463  49.9672893
  92.9189992 123.4109978  55.6660014  93.5019992 122.6759978  55.8580014
  93.4829992 124.1829978  55.7130014  93.0749781 123.4148145  55.6986164
  94.4159992 121.3139978  56.3510014  93.5529992 120.9349978  56.1850014
  95.0199992 120.5749978  56.2760014  94.3796085 121.1623223  56.3181695
  92.1409992 117.4679978  39.5240014  92.7519992 117.0969978  40.1610014
  91.3039992 117.0469978  39.7200014  92.1114947 117.3602756  39.6377252
  91.7739992 119.0229978  44.4900014  92.0529992 118.1159978  44.6140014
  92.5329992 119.4569978  44.1010014  91.9148619 118.9574502  44.4543795
  92.3849992 119.6049978  49.9260014  93.3179992 119.8169978  49.8910014
  92.1499992 119.7059978  50.8480014  92.4809517 119.6476833  50.0459130
  92.4149992 120.3419978  52.7020014  91.5719992 120.6099978  53.0680014
  92.8569992 121.1639978  52.4910014  92.3594138 120.4898273  52.7235518
  76.6959992 118.7889978  56.1780014  77.6149992 118.6669978  56.4150014
  76.2459992 118.0389978  56.5680014  76.7610087 118.6709608  56.2631410
  94.6979992 114.3219978  58.0550014  95.0469992 113.6679978  57.4500014
  94.8449992 115.1589978  57.6150014  94.7656824 114.3456024  57.9126304
  92.3869992 116.2859978  44.5380014  92.5689992 115.8369978  45.3630014
  91.7869992 115.7019978  44.0740014  92.3308187 116.1455552  44.5882739
  77.9169992 117.1019978  49.0700014  78.3619992 116.3099978  49.3720014
  78.3829992 117.8179978  49.5000014  78.0409718 117.0904534  49.1695265
  76.2209992 120.1009978  50.1390014  76.7129992 119.8799978  49.3480014
  76.5829992 120.9409978  50.4200014  76.3372923 120.1843468  50.0687407
  94.2169992 116.4309978  56.4040014  93.2999992 116.7019978  56.3690014
  94.3399992 115.8959978  55.6200014  94.1079672 116.3957885  56.2931862
  94.2539992 116.3539978  41.0660014  94.6659992 115.6329978  40.5910014
  94.9349992 117.0229978  41.1240014  94.4025536 116.3457766  41.0088024
  76.5349992 116.3589978  44.1930014  75.6099992 116.5669978  44.0640014
  76.9889992 116.8429978  43.5030014  76.4696298 116.4529299  44.0820451
  91.3049992 131.3429978  46.1390014  91.9579992 130.9949978  45.5310014
  91.8159992 131.8309978  46.7850014  91.4632777 131.3613815  46.1432047
  76.4979992 115.0969978  52.5370014  75.8329992 114.8509978  53.1800014
  76.0549992 115.7189978  51.9600014  76.3471168 115.1474214  52.5469848
  78.6899992 128.2719978  56.6820014  77.8689992 128.4469978  56.2210014
  78.4379992 128.1989978  57.6020014  78.5435594 128.2860717  56.7433611
  81.6439992 129.2459978  52.9400014  81.2199992 130.0559978  52.6580014
  82.5489992 129.3319978  52.6380014  81.7082138 129.3684160  52.8606415
  85.9559992 130.6449978  55.9000014  86.1399992 130.3119978  56.7780014
  86.8019992 130.9549978  55.5780014  86.0956484 130.6412979  55.9767617
  88.3009992 131.9309978  55.1440014  88.9779992 131.2979978  54.9040014
  88.6219992 132.3319978  55.9510014  88.4371323 131.8985691  55.2203158
  93.2179992 114.5209978  54.2230014  92.4049992 114.8459978  53.8360014
  93.4509992 113.7599978  53.6900014  93.1381347 114.4626880  54.0979841
  79.0459992 132.5029978  52.9880014  78.3259992 132.9429978  52.5370014
  78.6809992 132.2519978  53.8360014  78.8979643 132.5293369  53.0409129
  81.5129992 132.1029978  52.0180014  80.6489992 132.1749978  52.4220014
  81.4579992 132.6499978  51.2340014  81.3871942 132.1867849  51.9674000
  86.2239992 131.9909978  51.1930014  85.7669992 132.5199978  50.5390014
  86.3869992 132.5939978  51.9180014  86.1834960 132.1449280  51.2015274
  88.5519992 130.8689978  52.1380014  87.6469992 131.0339978  51.8720014
  88.9799992 131.7219978  52.0720014  88.4861537 131.0069134  52.0927095
  91.1559992 132.4389978  52.4330014  90.9739992 133.3549978  52.2220014
  91.3329992 132.0279978  51.5860014  91.1550030 132.5088273  52.2897166
  78.4609992 131.1259978  49.8980014  78.4429992 130.6999978  50.7550014
  79.2659992 130.8069978  49.4890014  78.5672875 131.0246435  49.9599515
  80.6019992 129.8359978  48.5530014  80.3829992 128.9189978  48.7230014
  81.4259992 129.9759978  49.0190014  80.6834702 129.7295511  48.6392527
  83.1389992 130.3059978  49.4020014  83.3519992 129.4179978  49.1150014
  83.2039992 130.2709978  50.3560014  83.1769149 130.1798326  49.4917369
  86.6479992 115.9699978  48.5460014  85.9739992 115.3399978  48.8020014
  87.2119992 115.4859978  47.9430014  86.6320384 115.8183708  48.4995020
  91.7909992 114.0769978  48.6590014  92.3939992 114.6249978  48.1570014
  90.9209992 114.3959978  48.4180014  91.7559157 114.1950373  48.5577910
  93.5179992 115.2159978  46.9920014  94.1289992 114.7019978  46.4650014
  93.8999992 116.0929978  47.0150014  93.6533305 115.2642050  46.9229418
  78.9749992 114.6039978  46.3680014  78.1979992 114.3689978  45.8610014
  79.5049992 113.8069978  46.3770014  78.9403451 114.4641268  46.2998627
  77.8109992 114.4019978  42.1720014  78.2499992 115.0129978  41.5800014
  77.1769992 114.9399978  42.6460014  77.7853859 114.5584064  42.1550305
  83.5539992 114.5299978  46.1810014  84.4279992 114.9189978  46.1520014
  83.4179992 114.3149978  47.1040014  83.6551953 114.5541643  46.3017617
  89.1109992 114.5599978  47.8310014  89.1869992 114.6559978  46.8810014
  88.8359992 113.6529978  47.9590014  89.0841871 114.4504146  47.7183944
  90.4639992 114.5859978  43.5230014  89.7609992 115.2009978  43.3130014
  90.0189992 113.7489978  43.6540014  90.3076550 114.5569668  43.5119837
  77.7119992 130.3499978  43.0690014  77.0269992 130.3119978  42.4020014
  77.7159992 131.2629978  43.3570014  77.6187621 130.4681924  43.0166126
  79.6719992 116.3179978  40.6140014  80.1629992 115.6879978  40.0870014
  80.2949992 116.6139978  41.2770014  79.8235304 116.2717376  40.6314940
  84.6979992 116.6109978  43.0710014  84.8759992 115.9639978  43.7540014
  84.6439992 117.4449978  43.5380014  84.7150678 116.6351604  43.2276301
  86.5759992 131.5589978  41.4670014  87.4419992 131.9259978  41.2890014
  86.3299992 131.1199978  40.6530014  86.6612097 131.5498525  41.3326019
  93.2849992 131.1219978  44.1460014  93.0909992 130.3739978  43.5810014
  93.2459992 131.8799978  43.5630014  93.2531645 131.1220786  43.9898148
  78.9319992 115.1179978  55.8860014  78.5659992 114.3519978  56.3280014
  79.8449992 115.1469978  56.1720014  79.0053172 115.0170324  55.9851890
  80.9049992 114.4679978  57.4210014  81.8039992 114.1939978  57.2370014
  80.5189992 113.7259978  57.8860014  80.9757307 114.3302196  57.4587098
  79.5299992 131.2699978  40.0940014  79.2619992 131.5559978  40.9680014
  80.3009992 130.7239978  40.2470014  79.5975926 131.2352779  40.2341205
  89.3269992 113.8009978  57.6040014  89.4029992 113.3749978  58.4570014
  90.2199992 113.8139978  57.2610014  89.4582303 113.7443493  57.6745497
  92.5029992 129.8739978  56.2960014  91.7209992 129.6869978  55.7760014
  92.4309992 130.8029978  56.5130014  92.3861924 129.9740637  56.2541602
 106.9089992 123.7599978  46.3270014 106.9979992 124.7039978  46.1950014
 106.2709992 123.4849978  45.6690014 106.8349062 123.8519812  46.2199641
 105.8419992 123.0149978  49.7460014 105.8039992 122.3689978  50.4510014
 105.5199992 122.5479978  48.9750014 105.7932679 122.8634276  49.7382921
  98.2099992 122.6289978  51.3390014  98.2519992 122.0039978  52.0620014
  98.9129992 123.2529978  51.5210014  98.3107345 122.6277873  51.4625274
 109.5479992 125.9539978  48.0470014 109.1069992 125.2339978  48.4980014
 109.5349992 126.6749978  48.6770014 109.4859215 125.9529291  48.1938105
  99.1339992 127.0789978  49.8740014  98.7639992 126.2769978  49.5040014
 100.0749992 126.9109978  49.9200014  99.2105984 126.9464638  49.8295603
  95.7439992 120.7389978  45.2660014  95.2959992 121.5849978  45.2480014
  95.1829992 120.1599978  44.7510014  95.6068546 120.7763993  45.1938891
  96.4539992 122.9009978  47.3920014  96.6679992 122.1309978  47.9200014
  97.1919992 122.9909978  46.7890014  96.5830200 122.8078586  47.3827035
 106.6599992 131.0579978  48.2590014 107.2789992 130.3819978  47.9860014
 106.4509992 130.8399978  49.1680014 106.7166056 130.9358869  48.3443967
 104.2309992 125.4469978  50.1520014 104.5349992 124.7609978  49.5570014
 104.9529992 125.5659978  50.7700014 104.3701240 125.3692314  50.1540959
 112.8939992 117.0489978  51.0120014 112.9439992 117.6589978  51.7480014
 113.3199992 117.5099978  50.2890014 112.9584108 117.1947709  51.0150112
 107.3719992 119.8409978  50.4790014 107.5149992 118.8949978  50.4990014
 107.2659992 120.0479978  49.5510014 107.3772403 119.7394797  50.3562239
 100.5269992 117.9429978  47.7520014 100.5699992 118.8029978  47.3330014
 100.0689992 117.3909978  47.1180014 100.4709871 117.9859245  47.6090761
 108.2489992 118.0739978  46.1530014 108.8959992 117.7449978  46.7770014
 108.7589992 118.5909978  45.5300014 108.4064351 118.0989067  46.1541037
  97.1469992 120.3399978  48.5140014  97.8009992 119.7899978  48.9460014
  97.1709992 120.0659978  47.5970014  97.2397199 120.2277167  48.4491668
 102.3039992 121.8899978  47.7290014 102.9199992 121.3629978  48.2380014
 101.7169992 121.2499978  47.3250014 102.3090154 121.7313954  47.7440945
 113.2859992 118.5269978  53.2480014 112.5969992 119.1849978  53.1530014
 113.3009992 118.3289978  54.1850014 113.1937756 118.5902603  53.3615812
  99.3369992 116.8609978  51.8260014  99.1179992 117.3909978  51.0590014
  98.6689992 117.0869978  52.4730014  99.2166975 116.9640967  51.8085140
 106.7059992 126.3609978  45.3700014 106.4109992 126.0379978  44.5180014
 106.3819992 127.2609978  45.4110014 106.6218460 126.4384464  45.2589714
 101.9059992 124.5359978  52.1130014 101.1659992 125.1349978  52.2170014
 102.6199992 125.0899978  51.7980014 101.9013500 124.6927829  52.0846371
 110.0129992 117.3649978  48.1330014 109.7979992 116.5989978  48.6660014
 110.6689992 117.8369978  48.6460014 110.0722673 117.3240728  48.2751990
  98.9309992 118.7529978  49.7780014  99.5449992 119.3859978  50.1510014
  99.4429992 118.2809978  49.1220014  99.0841962 118.7757249  49.7402935
 100.3139992 126.5009978  52.9000014 100.3079992 127.3799978  52.5220014
  99.4599992 126.4169978  53.3250014 100.1977925 126.6099535  52.9056887
  96.4349992 126.1719978  43.6820014  96.1629992 126.4009978  42.7940014
  96.4799992 127.0089978  44.1430014  96.4038097 126.3166163  43.6226683
 110.0599992 127.7929978  50.3950014 109.1179992 127.8519978  50.5570014
 110.3359992 128.6989978  50.2580014 109.9685865 127.9235288  50.3986192
 110.3599992 116.0799978  51.8120014 109.6239992 116.6899978  51.7750014
 111.0439992 116.4949978  51.2860014 110.3515367 116.2197551  51.7358174
 103.3639992 114.1659978  49.2780014 103.2459992 113.2179978  49.2240014
 102.5089992 114.4989978  49.5510014 103.2322805 114.0812202  49.3075079
 108.3119992 129.5739978  47.0200014 108.7369992 128.8669978  46.5350014
 108.6289992 130.3759978  46.6030014 108.4130266 129.5855190  46.8972479
 109.4719992 127.4749978  45.5290014 109.2139992 126.7849978  44.9170014
 109.5429992 127.0319978  46.3740014 109.4463050 127.3206814  45.5595621
 111.1579992 126.0419978  54.0060014 111.2969992 125.4499978  53.2670014
 111.3249992 126.9149978  53.6500014 111.1996193 126.0788896  53.8566211
 105.6299992 123.0039978  43.7790014 104.9189992 123.5389978  43.4270014
 106.3209992 123.0589978  43.1190014 105.6260751 123.0846777  43.6415858
 105.6839992 121.4609978  40.8170014 106.3849992 121.4839978  41.4690014
 105.9859992 120.8329978  40.1610014 105.8208202 121.3792212  40.8175609
 112.9989992 122.3819978  52.0720014 112.3469992 123.0759978  52.1610014
 113.4649992 122.5919978  51.2620014 112.9725937 122.5055019  51.9747533
 109.0359992 123.2129978  44.7300014 108.3039992 123.4419978  45.3040014
 109.4829992 122.4999978  45.1850014 108.9963963 123.1478729  44.8699945
 108.9329992 121.3879978  53.7980014 109.0129992 122.1509978  54.3700014
 108.3319992 121.6669978  53.1080014 108.8626547 121.5302457  53.7830047
 100.6809992 123.8439978  46.6130014 100.3509992 123.4729978  45.7950014
 101.2699992 123.1729978  46.9600014 100.7153970 123.7026063  46.5479404
 102.0479992 127.2719978  49.2940014 101.9529992 126.6929978  48.5380014
 102.7769992 126.9009978  49.7900014 102.1336011 127.1425561  49.2576028
 101.0479992 122.6119978  50.2460014 101.6129992 122.7339978  49.4840014
 101.3669992 123.2499978  50.8850014 101.1684166 122.7148791  50.2280348
 107.3569992 128.1159978  50.9800014 107.1169992 128.7779978  51.6280014
 107.1589992 127.2809978  51.4050014 107.2973826 128.0938115  51.1261566
 101.9279992 127.0119978  54.9640014 101.6169992 127.7939978  55.4190014
 101.2779992 126.8589978  54.2780014 101.7975538 127.0984087  54.9335898
 107.9069992 122.3759978  42.4160014 108.4859992 122.5259978  43.1620014
 108.3209992 122.8459978  41.6920014 108.0423358 122.4600954  42.4203953
  98.8479992 123.2099978  54.1920014  98.9179992 123.8609978  54.8910014
  97.9569992 123.3129978  53.8570014  98.7371690 123.3129249  54.2423043
 105.6329992 129.1119978  45.8510014 106.1069992 129.4079978  46.6280014
 105.0699992 129.8509978  45.6180014 105.6217890 129.2523036  45.9258101
 100.1669992 129.0829978  55.7270014 100.1749992 128.9469978  54.7800014
  99.2509992 128.9659978  55.9790014 100.0442528 129.0485463  55.6313243
 111.6059992 114.1259978  42.2290014 110.7059992 114.2649978  42.5240014
 111.8579992 114.9569978  41.8270014 111.5168683 114.2574055  42.2150232
  99.6719992 122.9129978  44.2020014  99.3799992 123.6809978  43.7110014
  98.9969992 122.2539978  44.0390014  99.5408497 122.9289745  44.1128260
 112.7949992 128.4919978  40.6050014 112.8679992 129.4309978  40.7750014
 113.6999992 128.1869978  40.5490014 112.9274170 128.5793282  40.6207063
  95.7649992 125.2759978  53.0170014  95.2629992 125.2479978  52.2020014
  95.7699992 124.3709978  53.3270014  95.6969832 125.1497486  52.9474121
  95.5149992 128.0569978  49.9010014  96.4609992 127.9119978  49.8820014
  95.4019992 128.8409978  50.4380014  95.6293578 128.1431697  49.9710317
 113.7129992 128.7229978  55.5840014 113.6629992 127.7669978  55.5460014
 112.8859992 128.9899978  55.9850014 113.5943831 128.6284680  55.6330121
 104.6909992 128.2969978  54.4600014 104.7789992 129.1229978  54.9350014
 103.8279992 127.9669978  54.7090014 104.5863357 128.3655468  54.5587653
 105.1059992 132.0689978  44.2660014 105.0299992 131.9479978  43.3190014
 105.1379992 133.0179978  44.3840014 105.0999380 132.1807677  44.1525181
  98.7589992 130.8579978  46.0470014  98.9109992 130.5099978  46.9250014
  97.9079992 130.5009978  45.7910014  98.6648344 130.7620879  46.1326868
 108.2069992 131.2229978  41.2680014 108.5819992 130.4789978  40.7970014
 108.2119992 130.9529978  42.1860014 108.2590098 131.0846392  41.3276629
 107.8759992 131.1489978  44.0170014 106.9409992 131.2489978  44.1960014
 108.1559992 130.4389978  44.5960014 107.7859471 131.0667933  44.1196695
 110.8649992 120.2159978  56.0640014 110.4569992 120.6959978  55.3430014
 110.9049992 119.3099978  55.7560014 110.8146221 120.1592449  55.9238267
  98.0139992 126.5999978  54.0600014  98.2299992 126.2379978  54.9200014
  97.1579992 126.2249978  53.8510014  97.9278810 126.4998837  54.1492680
 100.6319992 115.0699978  50.0560014  99.7709992 114.9829978  49.6480014
 100.6099992 115.9259978  50.4840014 100.5110491 115.1738003  50.0579582
 105.2949992 114.7919978  53.4310014 105.7149992 114.3769978  54.1840014
 104.3619992 114.6129978  53.5480014 105.2263736 114.7109910  53.5498968
 108.6219992 118.5469978  54.2840014 108.1079992 118.4219978  55.0820014
 108.4659992 119.4599978  54.0400014 108.5306967 118.6532123  54.3600937
 109.3839992 123.4079978  40.0450014 109.4259992 123.1859978  39.1150014
 110.2329992 123.8069978  40.2350014 109.5045253 123.4315498  39.9433822
 104.9569992 117.2839978  40.7160014 104.7029992 117.3029978  41.6380014
 104.6999992 116.4129978  40.4140014 104.8874508 117.1688280  40.8014803
 100.7229992 120.0349978  51.1510014 100.0819992 119.9949978  51.8600014
 100.7609992 120.9619978  50.9130014 100.6403010 120.1547668  51.2159946
 100.7199992 120.2559978  46.0630014  99.8279992 119.9159978  46.0040014
 101.1709992 119.8789978  45.3070014 100.6587642 120.1584910  45.9527726
 106.2559992 120.6719978  44.8800014 105.8469992 121.4869978  44.5880014
 106.9759992 120.5319978  44.2660014 106.2974439 120.7645372  44.7570115
 105.3579992 120.8479978  56.3680014 104.7949992 120.1429978  56.6890014
 106.1839992 120.7269978  56.8360014 105.3926674 120.7352165  56.4751751
 107.2609992 120.1179978  47.6940014 107.0649992 120.7239978  46.9790014
 107.4419992 119.2849978  47.2600014 107.2586584 120.0882513  47.5374212
  98.4729992 120.3559978  53.0180014  98.4349992 120.7559978  53.8870014
  97.9829992 119.5389978  53.1080014  98.4015330 120.3002674  53.1491289
 101.8389992 117.7299978  39.8170014 101.4079992 117.2849978  40.5460014
 101.1209992 118.1009978  39.3040014 101.6829176 117.7192051  39.8474930
  95.0819992 117.4719978  46.8690014  95.7119992 117.4429978  47.5880014
  95.5309992 117.0469978  46.1380014  95.2290835 117.4105660  46.8687659
  96.3559992 118.2179978  42.2930014  96.8299992 118.8089978  41.7080014
  95.6379992 118.7479978  42.6400014  96.3238640 118.3705511  42.2597969
 106.5249992 121.7559978  52.3650014 106.8479992 121.1249978  51.7220014
 106.0839992 121.2219978  53.0260014 106.5096379 121.5973468  52.3662582
 103.3019992 117.6839978  47.1490014 102.3909992 117.7409978  47.4380014
 103.8069992 117.6239978  47.9600014 103.2456873 117.6836826  47.2981207
  98.1299992 119.3129978  45.9760014  97.2409992 119.4119978  45.6360014
  98.4269992 118.4709978  45.6300014  98.0484177 119.2127687  45.8826940
 101.7829992 119.3129978  43.6330014 102.7149992 119.4419978  43.8110014
 101.5679992 119.9819978  42.9830014 101.8814472 119.4210806  43.5694891
 107.7069992 116.9189978  50.4140014 107.0299992 117.0499978  51.0770014
 107.2219992 116.7639978  49.6030014 107.5487405 116.9159947  50.3952170
 100.4569992 120.5069978  41.1990014  99.9149992 120.1279978  40.5080014
 101.2909992 120.7019978  40.7710014 100.4954390 120.4814079  41.0464392
 110.9949992 132.5899978  56.6900014 111.1939992 133.0139978  55.8560014
 111.6499992 132.9339978  57.2970014 111.1108522 132.6946301  56.6577852
  98.5929992 125.0639978  56.2980014  99.3249992 125.3189978  56.8600014
  97.8119992 125.2689978  56.8140014  98.5876526 125.1265450  56.4445176
 104.6219992 120.4709978  49.0360014 105.1859992 119.9249978  48.4890014
 104.4739992 119.9499978  49.8250014 104.6793037 120.3256787  49.0677229
  99.6239992 116.6079978  45.4550014  99.3069992 115.7049978  45.4190014
 100.4049992 116.6099978  44.9020014  99.6862431 116.4847797  45.3753102
 103.2479992 118.8599978  51.4500014 102.4129992 119.3139978  51.5610014
 103.7719992 119.1359978  52.2020014 103.2046072 118.9593948  51.5668136
 103.7929992 125.0729978  43.1350014 103.0479992 124.5649978  42.8130014
 103.6579992 125.1219978  44.0810014 103.6728963 125.0101731  43.2188826
 110.9429992 124.2059978  51.9220014 111.5839992 124.6619978  51.3780014
 110.1119992 124.3189978  51.4590014 110.9185287 124.2836921  51.7849887
 107.6899992 117.8869978  41.3340014 106.7519992 117.9979978  41.1830014
 107.9879992 118.7429978  41.6410014 107.6016318 118.0180158  41.3548145
 105.3119992 125.2569978  54.3720014 104.9659992 124.8749978  55.1790014
 105.1119992 126.1899978  54.4430014 105.2375987 125.3309002  54.4920461
 108.4089992 119.7539978  42.9950014 109.3009992 119.6159978  43.3140014
 108.4649992 120.5449978  42.4580014 108.5387325 119.8419918  42.9661217
  98.9169992 124.3679978  48.9050014  99.6619992 124.3649978  48.3030014
  98.9949992 123.5439978  49.3860014  99.0293365 124.2562384  48.8877430
 105.9179992 126.5309978  42.1600014 105.6229992 127.3579978  42.5420014
 105.2149992 125.9119978  42.3570014 105.7826379 126.5604171  42.2388654
  95.9249992 122.8279978  54.2200014  96.1479992 122.4099978  55.0510014
  95.3229992 122.2159978  53.7970014  95.8741513 122.6879606  54.2766740
 102.9419992 122.3449978  56.4330014 102.6459992 122.1799978  55.5370014
 103.8729992 122.1249978  56.4220014 103.0274401 122.2926879  56.3090206
 107.5619992 127.7189978  54.3220014 106.6619992 127.9019978  54.0550014
 107.5959992 127.9779978  55.2430014 107.4433748 127.7790554  54.4099164
 113.2939992 119.9629978  42.6900014 112.7389992 119.5669978  42.0170014
 113.3939992 120.8739978  42.4120014 113.2316816 120.0319505  42.5605033
 113.2569992 125.7639978  55.5270014 112.4059992 126.0019978  55.1590014
 113.8469992 125.7469978  54.7740014 113.2203812 125.7942524  55.3748453
 111.5889992 128.7489978  43.1550014 111.2159992 127.9239978  43.4640014
 111.8659992 128.5659978  42.2570014 111.5753463 128.6112569  43.0759525
 108.7489992 123.5569978  50.1760014 107.8209992 123.3259978  50.1490014
 109.1999992 122.7799978  49.8460014 108.6828165 123.4202774  50.1276790
 101.2919992 127.8859978  46.3090014 101.8199992 128.6589978  46.1090014
 100.4119992 128.1099978  46.0070014 101.2453435 128.0222700  46.2407310
  97.0469992 122.7479978  40.8960014  97.6629992 123.3749978  41.2760014
  96.1849992 123.0639978  41.1680014  97.0147678 122.8764412  40.9847209
 102.7199992 125.5489978  45.8850014 102.4789992 126.4739978  45.9270014
 101.9789992 125.0899978  46.2820014 102.5869206 125.6135915  45.9443769
 103.2339992 129.6979978  52.2000014 103.5969992 130.5519978  51.9670014
 103.7659992 129.4059978  52.9410014 103.3555141 129.7753895  52.2682097
 101.4029992 130.5699978  45.4310014 100.4529992 130.6759978  45.4820014
 101.7549992 131.3909978  45.7750014 101.3205472 130.6954923  45.4844852
 106.7779992 125.7969978  51.9010014 106.3529992 125.5689978  52.7270014
 107.3589992 125.0579978  51.7190014 106.7983395 125.6659545  51.9894414
 108.9809992 126.7259978  40.9750014 109.3349992 126.3459978  41.7790014
 108.0329992 126.6319978  41.0620014 108.9012298 126.6612452  41.0968687
 109.4369992 130.3489978  54.3700014 108.8349992 129.7929978  53.8750014
 109.7179992 131.0159978  53.7440014 109.3925757 130.3630744  54.2175675
 113.4849992 131.2049978  41.1760014 114.2289992 131.7909978  41.0360014
 112.7909992 131.7739978  41.5090014 113.4929809 131.3620818  41.2018590
  97.5589992 117.5819978  53.7780014  96.6669992 117.9199978  53.7100014
  97.4609992 116.7259978  54.1960014  97.4234475 117.5126543  53.8251704
 109.8469992 125.3979978  43.2020014 109.5699992 124.6699978  43.7580014
 110.7749992 125.5169978  43.4070014 109.9344499 125.3144213  43.3058044
  97.2109992 129.3859978  52.2130014  97.4279992 128.4539978  52.1820014
  97.4569992 129.6609978  53.0960014  97.2739809 129.2955686  52.3281691
 103.0719992 127.8379978  39.4220014 103.3109992 127.0889978  38.8750014
 102.8029992 127.4499978  40.2550014 103.0683233 127.6831853  39.4597809
 102.0089992 127.4079978  41.8780014 102.1559992 126.8879978  42.6680014
 102.0059992 128.3149978  42.1850014 102.0287102 127.4593953  42.0275925
  98.4619992 124.6599978  42.3890014  97.7759992 125.0129978  42.9560014
  98.9849992 125.4229978  42.1420014  98.4388402 124.8113901  42.4331801
 106.2939992 117.3229978  52.6680014 106.9929992 117.3969978  53.3180014
 105.9129992 116.4579978  52.8220014 106.3382097 117.2162389  52.7777997
 107.0779992 116.9749978  43.7650014 107.2979992 117.4459978  42.9610014
 107.6369992 117.3689978  44.4350014 107.1836731 117.0927287  43.7455033
 104.7469992 129.1049978  42.6280014 103.9299992 129.6019978  42.6800014
 105.2759992 129.5809978  41.9870014 104.7068125 129.2371989  42.5485306
 104.2779992 118.7029978  44.6000014 105.0899992 119.2069978  44.6460014
 104.0339992 118.5579978  45.5140014 104.3561467 118.7523749  44.7298575
 104.8139992 119.6889978  53.7840014 104.9329992 120.2629978  54.5410014
 105.4689992 119.0009978  53.8990014 104.9188684 119.6745194  53.9031674
 105.1619992 115.7839978  45.5380014 104.8149992 116.4009978  46.1820014
 105.8209992 116.2849978  45.0560014 105.2035090 115.9361575  45.5610681
 102.0849992 130.1489978  42.6090014 102.2459992 130.9489978  42.1090014
 101.8879992 130.4559978  43.4940014 102.0803906 130.2998678  42.6602333
 100.8199992 116.8469978  42.2250014 100.7359992 117.7349978  42.5720014
 101.7099992 116.5819978  42.4570014 100.9288163 116.9327179  42.3038596
 111.0179992 117.5959978  54.6190014 110.1019992 117.8579978  54.5320014
 111.3539992 117.5929978  53.7230014 110.9378499 117.6315163  54.4858766
 109.6209992 121.3459978  48.7150014 108.8229992 120.9309978  48.3870014
 110.0659992 120.6559978  49.2060014 109.5719684 121.1958628  48.7365227
  99.0779992 127.2739978  41.2850014  99.6699992 127.9739978  41.5620014
  99.5369992 126.8409978  40.5660014  99.2211652 127.3112675  41.2256533
  97.3939992 119.9389978  40.4010014  97.3489992 120.8779978  40.5800014
  96.5059992 119.7029978  40.1320014  97.2678166 120.0356687  40.3891524
 110.7069992 130.6019978  50.3370014 110.5509992 131.2809978  49.6800014
 111.6399992 130.6739978  50.5400014 110.8117387 130.7046390  50.2745342
  98.2019992 114.7199978  49.0750014  97.9729992 114.7789978  48.1470014
  97.7599992 113.9289978  49.3810014  98.1108801 114.6210540  48.9894729
  97.1329992 128.6609978  45.2350014  96.2999992 129.1329978  45.2620014
  97.6779992 129.1709978  44.6360014  97.0927857 128.7944791  45.1577142
  96.4209992 131.2729978  56.5650014  96.9609992 131.0569978  57.3250014
  95.9399992 130.4679978  56.3750014  96.4299219 131.1345156  56.6434282
 101.0179992 130.1929978  58.1850014 101.7859992 129.7339978  58.5260014
 100.9969992 129.9669978  57.2550014 101.1202135 130.0996668  58.1059491
 105.1099992 129.7009978  39.5610014 104.4659992 129.0699978  39.8820014
 105.8719992 129.1699978  39.3290014 105.1248058 129.5427902  39.5736038
 107.5949992 128.5729978  56.9140014 107.2439992 127.7159978  57.1580014
 108.3209992 128.7149978  57.5210014 107.6451895 128.4751351  57.0293770
 109.7149992 129.5179978  39.7940014 109.9979992 128.7229978  40.2470014
 110.4539992 129.7509978  39.2330014 109.8537096 129.4407049  39.7801104
  96.3279992 125.0839978  57.5190014  96.4719992 124.1819978  57.2330014
  95.5559992 125.3699978  57.0320014  96.2432733 124.9991798  57.4139532
 100.6689992 125.4269978  39.6520014 100.7339992 124.6329978  40.1820014
 101.3219992 125.3089978  38.9620014 100.7661605 125.3023430  39.6312997
 102.9829992 125.0529978  56.9520014 102.6549992 125.3239978  56.0950014
 103.1349992 124.1119978  56.8640014 102.9586412 124.9629046  56.8227822
 106.0219992 126.4739978  39.3880014 105.7529992 126.6549978  40.2880014
 105.8149992 125.5489978  39.2560014 105.9571191 126.3737119  39.4935524
 108.7179992 124.9689978  54.3350014 109.4629992 125.5579978  54.2160014
 107.9609992 125.5509978  54.3990014 108.7175470 125.1282128  54.3273799
  97.1609992 122.2839978  56.9390014  97.5689992 121.4269978  56.8180014
  96.8999992 122.2979978  57.8600014  97.1816016 122.1685119  57.0469192
 101.8189992 123.3999978  41.9580014 101.3589992 122.9159978  42.6430014
 102.0739992 122.7309978  41.3220014 101.7904856 123.2433669  41.9658397
 101.1079992 121.2929978  54.3140014 100.4889992 121.9669978  54.5940014
 101.4519992 121.6139978  53.4800014 101.0697123 121.4286887  54.2396388
 102.8899992 121.6429978  40.2200014 102.7089992 121.4879978  39.2930014
 103.8399992 121.7509978  40.2650014 102.9936566 121.6363669  40.0990929
 106.1269992 123.7639978  57.5910014 107.0809992 123.8479978  57.5640014
 105.9669992 123.0519978  58.2110014 106.2357182 123.6792842  57.6710733
 112.2799992 123.9969978  39.6660014 112.0059992 123.5729978  38.8530014
 112.3189992 124.9289978  39.4490014 112.2477716 124.0648827  39.5254286
 101.4469992 118.6479978  55.3960014 101.5969992 117.9189978  54.7940014
 101.4489992 119.4249978  54.8370014 101.4677967 118.6532708  55.2380541
 101.8599992 117.0169978  52.8890014 102.3949992 117.4689978  52.2370014
 101.0069992 116.9089978  52.4660014 101.8180374 117.0642665  52.7426710
 103.4409992 122.4569978  53.1280014 104.1919992 122.3009978  52.5550014
 103.1019992 123.3089978  52.8530014 103.4979587 122.5508138  53.0124078
 107.8569992 120.2719978  58.1570014 108.0489992 119.3409978  58.0450014
 108.7149992 120.6969978  58.1460014 107.9992182 120.2020070  58.1401862
 109.1739992 123.0609978  56.2340014 108.8919992 123.7699978  55.6560014
 110.1159992 122.9879978  56.0830014 109.2627921 123.1482193  56.1344225
  99.9259992 119.8459978  57.3070014  99.1579992 119.3129978  57.0970014
 100.6039992 119.5359978  56.7080014  99.9127235 119.7311754  57.1972413
 102.6649992 114.4739978  53.3200014 102.5669992 115.4199978  53.2150014
 101.9229992 114.1009978  52.8440014 102.5512534 114.5531773  53.2412600
 103.9289992 118.7949978  56.8840014 103.6939992 118.5759978  57.7850014
 103.1459992 118.5879978  56.3740014 103.7909095 118.7369892  56.9385353
 106.6449992 117.9229978  55.9590014 105.6969992 117.9549978  56.0910014
 106.9569992 117.2969978  56.6130014 106.5575293 117.8427923  56.0654148
 108.2789992 116.5569978  57.9640014 108.1819992 115.6049978  57.9590014
 107.9569992 116.8249978  58.8250014 108.2222468 116.4630884  58.0796210
  98.1059992 117.7659978  57.0120014  98.3179992 117.0599978  56.4020014
  97.9949992 117.3289978  57.8560014  98.1200269 117.6101921  57.0425873
 102.8869992 113.7679978  55.9910014 103.5989992 113.1279978  55.9770014
 102.7859992 114.0339978  55.0780014 102.9707387 113.7164330  55.8655563
 103.2409992 115.4499978  58.0450014 103.1089992 114.9749978  57.2250014
 102.6409992 116.1949978  57.9900014 103.1419070 115.4855789  57.9253251
 102.7869992 132.3329978  41.2210014 103.7199992 132.4909978  41.3650014
 102.5229992 133.0089978  40.5960014 102.8789911 132.4459373  41.1562722
  96.3549992 126.9699978  40.7040014  97.2689992 127.0489978  40.9770014
  96.3629992 126.2829978  40.0380014  96.4810655 126.8879205  40.6512917
  95.0039992 132.3629978  45.7810014  94.3569992 131.9009978  45.2490014
  95.3589992 131.6909978  46.3640014  94.9633741 132.2089774  45.7869175
  95.8739992 130.4429978  47.5860014  95.5399992 129.5629978  47.7580014
  96.0969992 130.7889978  48.4510014  95.8583721 130.3691938  47.7264168
 113.4229992 131.2529978  50.5670014 113.4009992 131.4379978  51.5060014
 114.1129992 131.8209978  50.2260014 113.5133439 131.3551887  50.6494791
 112.9859992 130.8199978  53.4880014 112.4989992 130.0849978  53.1170014
 113.5349992 130.4259978  54.1660014 112.9935247 130.6661057  53.5288461
 111.4369992 126.6099978  58.1270014 110.5709992 126.5049978  58.5210014
 111.8129992 127.3679978  58.5730014 111.3693401 126.6981708  58.2412620
 112.7379992 124.8659978  43.6410014 113.5879992 125.2869978  43.7680014
 112.7429992 124.1259978  44.2480014 112.8551143 124.8236094  43.7404750
 113.1319992 122.9199978  45.4640014 112.4059992 122.4399978  45.8620014
 113.7139992 123.1249978  46.1970014 113.1112730 122.8820184  45.6174149
 112.8909992 125.7049978  50.4120014 113.7249992 125.3269978  50.1310014
 113.0029992 126.6479978  50.2930014 113.0201917 125.7807943  50.3574861
 111.3779992 128.5829978  52.7190014 110.7299992 128.9079978  53.3440014
 110.8599992 128.1419978  52.0450014 111.2194196 128.5678651  52.7134152
 113.4009992 122.8209978  41.8550014 112.8789992 123.1769978  41.1370014
 113.3679992 123.4959978  42.5340014 113.3250129 122.9609598  41.8483355
 111.7499992 120.0599978  40.4060014 111.8459992 120.7269978  39.7260014
 111.6099992 119.2449978  39.9250014 111.7442040 120.0410671  40.2478378
 110.9189992 121.4409978  46.0270014 110.7689992 120.4959978  46.0070014
 110.5649992 121.7219978  46.8710014 110.8506351 121.3496644  46.1383220
  95.9539992 123.5189978  50.0380014  96.1389992 123.4369978  49.1020014
  96.8039992 123.3949978  50.4610014  96.0940928 123.4910463  49.9672893
 111.7749992 123.4109978  55.6660014 112.3579992 122.6759978  55.8580014
 112.3389992 124.1829978  55.7130014 111.9309781 123.4148145  55.6986164
 113.2719992 121.3139978  56.3510014 112.4089992 120.9349978  56.1850014
 113.8759992 120.5749978  56.2760014 113.2356085 121.1623223  56.3181695
 110.9969992 117.4679978  39.5240014 111.6079992 117.0969978  40.1610014
 110.1599992 117.0469978  39.7200014 110.9674947 117.3602756  39.6377252
 110.6299992 119.0229978  44.4900014 110.9089992 118.1159978  44.6140014
 111.3889992 119.4569978  44.1010014 110.7708619 118.9574502  44.4543795
 111.2409992 119.6049978  49.9260014 112.1739992 119.8169978  49.8910014
 111.0059992 119.7059978  50.8480014 111.3369517 119.6476833  50.0459130
 111.2709992 120.3419978  52.7020014 110.4279992 120.6099978  53.0680014
 111.7129992 121.1639978  52.4910014 111.2154138 120.4898273  52.7235518
  95.5519992 118.7889978  56.1780014  96.4709992 118.6669978  56.4150014
  95.1019992 118.0389978  56.5680014  95.6170087 118.6709608  56.2631410
 113.5539992 114.3219978  58.0550014 113.9029992 113.6679978  57.4500014
 113.7009992 115.1589978  57.6150014 113.6216824 114.3456024  57.9126304
 111.2429992 116.2859978  44.5380014 111.4249992 115.8369978  45.3630014
 110.6429992 115.7019978  44.0740014 111.1868187 116.1455552  44.5882739
  96.7729992 117.1019978  49.0700014  97.2179992 116.3099978  49.3720014
  97.2389992 117.8179978  49.5000014  96.8969718 117.0904534  49.1695265
  95.0769992 120.1009978  50.1390014  95.5689992 119.8799978  49.3480014
  95.4389992 120.9409978  50.4200014  95.1932923 120.1843468  50.0687407
 113.0729992 116.4309978  56.4040014 112.1559992 116.7019978  56.3690014
 113.1959992 115.8959978  55.6200014 112.9639672 116.3957885  56.2931862
 113.1099992 116.3539978  41.0660014 113.5219992 115.6329978  40.5910014
 113.7909992 117.0229978  41.1240014 113.2585536 116.3457766  41.0088024
  95.3909992 116.3589978  44.1930014  94.4659992 116.5669978  44.0640014
  95.8449992 116.8429978  43.5030014  95.3256298 116.4529299  44.0820451
 110.1609992 131.3429978  46.1390014 110.8139992 130.9949978  45.5310014
 110.6719992 131.8309978  46.7850014 110.3192777 131.3613815  46.1432047
  95.3539992 115.0969978  52.5370014  94.6889992 114.8509978  53.1800014
  94.9109992 115.7189978  51.9600014  95.2031168 115.1474214  52.5469848
  97.5459992 128.2719978  56.6820014  96.7249992 128.4469978  56.2210014
  97.2939992 128.1989978  57.6020014  97.3995594 128.2860717  56.7433611
 100.4999992 129.2459978  52.9400014 100.0759992 130.0559978  52.6580014
 101.4049992 129.3319978  52.6380014 100.5642138 129.3684160  52.8606415
 104.8119992 130.6449978  55.9000014 104.9959992 130.3119978  56.7780014
 105.6579992 130.9549978  55.5780014 104.9516484 130.6412979  55.9767617
 107.1569992 131.9309978  55.1440014 107.8339992 131.2979978  54.9040014
 107.4779992 132.3319978  55.9510014 107.2931323 131.8985691  55.2203158
 112.0739992 114.5209978  54.2230014 111.2609992 114.8459978  53.8360014
 112.3069992 113.7599978  53.6900014 111.9941347 114.4626880  54.0979841
  97.9019992 132.5029978  52.9880014  97.1819992 132.9429978  52.5370014
  97.5369992 132.2519978  53.8360014  97.7539643 132.5293369  53.0409129
 100.3689992 132.1029978  52.0180014  99.5049992 132.1749978  52.4220014
 100.3139992 132.6499978  51.2340014 100.2431942 132.1867849  51.9674000
 105.0799992 131.9909978  51.1930014 104.6229992 132.5199978  50.5390014
 105.2429992 132.5939978  51.9180014 105.0394960 132.1449280  51.2015274
 107.4079992 130.8689978  52.1380014 106.5029992 131.0339978  51.8720014
 107.8359992 131.7219978  52.0720014 107.3421537 131.0069134  52.0927095
 110.0119992 132.4389978  52.4330014 109.8299992 133.3549978  52.2220014
 110.1889992 132.0279978  51.5860014 110.0110030 132.5088273  52.2897166
  97.3169992 131.1259978  49.8980014  97.2989992 130.6999978  50.7550014
  98.1219992 130.8069978  49.4890014  97.4232875 131.0246435  49.9599515
  99.4579992 129.8359978  48.5530014  99.2389992 128.9189978  48.7230014
 100.2819992 129.9759978  49.0190014  99.5394702 129.7295511  48.6392527
 101.9949992 130.3059978  49.4020014 102.2079992 129.4179978  49.1150014
 102.0599992 130.2709978  50.3560014 102.0329149 130.1798326  49.4917369
 105.5039992 115.9699978  48.5460014 104.8299992 115.3399978  48.8020014
 106.0679992 115.4859978  47.9430014 105.4880384 115.8183708  48.4995020
 110.6469992 114.0769978  48.6590014 111.2499992 114.6249978  48.1570014
 109.7769992 114.3959978  48.4180014 110.6119157 114.1950373  48.5577910
 112.3739992 115.2159978  46.9920014 112.9849992 114.7019978  46.4650014
 112.7559992 116.0929978  47.0150014 112.5093305 115.2642050  46.9229418
  97.8309992 114.6039978  46.3680014  97.0539992 114.3689978  45.8610014
  98.3609992 113.8069978  46.3770014  97.7963451 114.4641268  46.2998627
  96.6669992 114.4019978  42.1720014  97.1059992 115.0129978  41.5800014
  96.0329992 114.9399978  42.6460014  96.6413859 114.5584064  42.1550305
 102.4099992 114.5299978  46.1810014 103.2839992 114.9189978  46.1520014
 102.2739992 114.3149978  47.1040014 102.5111953 114.5541643  46.3017617
 107.9669992 114.5599978  47.8310014 108.0429992 114.6559978  46.8810014
 107.6919992 113.6529978  47.9590014 107.9401871 114.4504146  47.7183944
 109.3199992 114.5859978  43.5230014 108.6169992 115.2009978  43.3130014
 108.8749992 113.7489978  43.6540014 109.1636550 114.5569668  43.5119837
  96.5679992 130.3499978  43.0690014  95.8829992 130.3119978  42.4020014
  96.5719992 131.2629978  43.3570014  96.4747621 130.4681924  43.0166126
  98.5279992 116.3179978  40.6140014  99.0189992 115.6879978  40.0870014
  99.1509992 116.6139978  41.2770014  98.6795304 116.2717376  40.6314940
 103.5539992 116.6109978  43.0710014 103.7319992 115.9639978  43.7540014
 103.4999992 117.4449978  43.5380014 103.5710678 116.6351604  43.2276301
 105.4319992 131.5589978  41.4670014 106.2979992 131.9259978  41.2890014
 105.1859992 131.1199978  40.6530014 105.5172097 131.5498525  41.3326019
 112.1409992 131.1219978  44.1460014 111.9469992 130.3739978  43.5810014
 112.1019992 131.8799978  43.5630014 112.1091645 131.1220786  43.9898148
  97.7879992 115.1179978  55.8860014  97.4219992 114.3519978  56.3280014
  98.7009992 115.1469978  56.1720014  97.8613172 115.0170324  55.9851890
  99.7609992 114.4679978  57.4210014 100.6599992 114.1939978  57.2370014
  99.3749992 113.7259978  57.8860014  99.8317307 114.3302196  57.4587098
  98.3859992 131.2699978  40.0940014  98.1179992 131.5559978  40.9680014
  99.1569992 130.7239978  40.2470014  98.4535926 131.2352779  40.2341205
 108.1829992 113.8009978  57.6040014 108.2589992 113.3749978  58.4570014
 109.0759992 113.8139978  57.2610014 108.3142303 113.7443493  57.6745497
 111.3589992 129.8739978  56.2960014 110.5769992 129.6869978  55.7760014
 111.2869992 130.8029978  56.5130014 111.2421924 129.9740637  56.2541602
 125.7649992 123.7599978  46.3270014 125.8539992 124.7039978  46.1950014
 125.1269992 123.4849978  45.6690014 125.6909062 123.8519812  46.2199641
 124.6979992 123.0149978  49.7460014 124.6599992 122.3689978  50.4510014
 124.3759992 122.5479978  48.9750014 124.6492679 122.8634276  49.7382921
 117.0659992 122.6289978  51.3390014 117.1079992 122.0039978  52.0620014
 117.7689992 123.2529978  51.5210014 117.1667345 122.6277873  51.4625274
 128.4039992 125.9539978  48.0470014 127.9629992 125.2339978  48.4980014
 128.3909992 126.6749978  48.6770014 128.3419215 125.9529291  48.1938105
 117.9899992 127.0789978  49.8740014 117.6199992 126.2769978  49.5040014
 118.9309992 126.9109978  49.9200014 118.0665984 126.9464638  49.8295603
 114.5999992 120.7389978  45.2660014 114.1519992 121.5849978  45.2480014
 114.0389992 120.1599978  44.7510014 114.4628546 120.7763993  45.1938891
 115.3099992 122.9009978  47.3920014 115.5239992 122.1309978  47.9200014
 116.0479992 122.9909978  46.7890014 115.4390200 122.8078586  47.3827035
 125.5159992 131.0579978  48.2590014 126.1349992 130.3819978  47.9860014
 125.3069992 130.8399978  49.1680014 125.5726056 130.9358869  48.3443967
 123.0869992 125.4469978  50.1520014 123.3909992 124.7609978  49.5570014
 123.8089992 125.5659978  50.7700014 123.2261240 125.3692314  50.1540959
 131.7499992 117.0489978  51.0120014 131.7999992 117.6589978  51.7480014
 132.1759992 117.5099978  50.2890014 131.8144108 117.1947709  51.0150112
 126.2279992 119.8409978  50.4790014 126.3709992 118.8949978  50.4990014
 126.1219992 120.0479978  49.5510014 126.2332403 119.7394797  50.3562239
 119.3829992 117.9429978  47.7520014 119.4259992 118.8029978  47.3330014
 118.9249992 117.3909978  47.1180014 119.3269871 117.9859245  47.6090761
 127.1049992 118.0739978  46.1530014 127.7519992 117.7449978  46.7770014
 127.6149992 118.5909978  45.5300014 127.2624351 118.0989067  46.1541037
 116.0029992 120.3399978  48.5140014 116.6569992 119.7899978  48.9460014
 116.0269992 120.0659978  47.5970014 116.0957199 120.2277167  48.4491668
 121.1599992 121.8899978  47.7290014 121.7759992 121.3629978  48.2380014
 120.5729992 121.2499978  47.3250014 121.1650154 121.7313954  47.7440945
 132.1419992 118.5269978  53.2480014 131.4529992 119.1849978  53.1530014
 132.1569992 118.3289978  54.1850014 132.0497756 118.5902603  53.3615812
 118.1929992 116.8609978  51.8260014 117.9739992 117.3909978  51.0590014
 117.5249992 117.0869978  52.4730014 118.0726975 116.9640967  51.8085140
 125.5619992 126.3609978  45.3700014 125.2669992 126.0379978  44.5180014
 125.2379992 127.2609978  45.4110014 125.4778460 126.4384464  45.2589714
 120.7619992 124.5359978  52.1130014 120.0219992 125.1349978  52.2170014
 121.4759992 125.0899978  51.7980014 120.7573500 124.6927829  52.0846371
 128.8689992 117.3649978  48.1330014 128.6539992 116.5989978  48.6660014
 129.5249992 117.8369978  48.6460014 128.9282673 117.3240728  48.2751990
 117.7869992 118.7529978  49.7780014 118.4009992 119.3859978  50.1510014
 118.2989992 118.2809978  49.1220014 117.9401962 118.7757249  49.7402935
 119.1699992 126.5009978  52.9000014 119.1639992 127.3799978  52.5220014
 118.3159992 126.4169978  53.3250014 119.0537925 126.6099535  52.9056887
 115.2909992 126.1719978  43.6820014 115.0189992 126.4009978  42.7940014
 115.3359992 127.0089978  44.1430014 115.2598097 126.3166163  43.6226683
 128.9159992 127.7929978  50.3950014 127.9739992 127.8519978  50.5570014
 129.1919992 128.6989978  50.2580014 128.8245865 127.9235288  50.3986192
 129.2159992 116.0799978  51.8120014 128.4799992 116.6899978  51.7750014
 129.8999992 116.4949978  51.2860014 129.2075367 116.2197551  51.7358174
 122.2199992 114.1659978  49.2780014 122.1019992 113.2179978  49.2240014
 121.3649992 114.4989978  49.5510014 122.0882805 114.0812202  49.3075079
 127.1679992 129.5739978  47.0200014 127.5929992 128.8669978  46.5350014
 127.4849992 130.3759978  46.6030014 127.2690266 129.5855190  46.8972479
 128.3279992 127.4749978  45.5290014 128.0699992 126.7849978  44.9170014
 128.3989992 127.0319978  46.3740014 128.3023050 127.3206814  45.5595621
 130.0139992 126.0419978  54.0060014 130.1529992 125.4499978  53.2670014
 130.1809992 126.9149978  53.6500014 130.0556193 126.0788896  53.8566211
 124.4859992 123.0039978  43.7790014 123.7749992 123.5389978  43.4270014
 125.1769992 123.0589978  43.1190014 124.4820751 123.0846777  43.6415858
 124.5399992 121.4609978  40.8170014 125.2409992 121.4839978  41.4690014
 124.8419992 120.8329978  40.1610014 124.6768202 121.3792212  40.8175609
 131.8549992 122.3819978  52.0720014 131.2029992 123.0759978  52.1610014
 132.3209992 122.5919978  51.2620014 131.8285937 122.5055019  51.9747533
 127.8919992 123.2129978  44.7300014 127.1599992 123.4419978  45.3040014
 128.3389992 122.4999978  45.1850014 127.8523963 123.1478729  44.8699945
 127.7889992 121.3879978  53.7980014 127.8689992 122.1509978  54.3700014
 127.1879992 121.6669978  53.1080014 127.7186547 121.5302457  53.7830047
 119.5369992 123.8439978  46.6130014 119.2069992 123.4729978  45.7950014
 120.1259992 123.1729978  46.9600014 119.5713970 123.7026063  46.5479404
 120.9039992 127.2719978  49.2940014 120.8089992 126.6929978  48.5380014
 121.6329992 126.9009978  49.7900014 120.9896011 127.1425561  49.2576028
 119.9039992 122.6119978  50.2460014 120.4689992 122.7339978  49.4840014
 120.2229992 123.2499978  50.8850014 120.0244166 122.7148791  50.2280348
 126.2129992 128.1159978  50.9800014 125.9729992 128.7779978  51.6280014
 126.0149992 127.2809978  51.4050014 126.1533826 128.0938115  51.1261566
 120.7839992 127.0119978  54.9640014 120.4729992 127.7939978  55.4190014
 120.1339992 126.8589978  54.2780014 120.6535538 127.0984087  54.9335898
 126.7629992 122.3759978  42.4160014 127.3419992 122.5259978  43.1620014
 127.1769992 122.8459978  41.6920014 126.8983358 122.4600954  42.4203953
 117.7039992 123.2099978  54.1920014 117.7739992 123.8609978  54.8910014
 116.8129992 123.3129978  53.8570014 117.5931690 123.3129249  54.2423043
 124.4889992 129.1119978  45.8510014 124.9629992 129.4079978  46.6280014
 123.9259992 129.8509978  45.6180014 124.4777890 129.2523036  45.9258101
 119.0229992 129.0829978  55.7270014 119.0309992 128.9469978  54.7800014
 118.1069992 128.9659978  55.9790014 118.9002528 129.0485463  55.6313243
 130.4619992 114.1259978  42.2290014 129.5619992 114.2649978  42.5240014
 130.7139992 114.9569978  41.8270014 130.3728683 114.2574055  42.2150232
 118.5279992 122.9129978  44.2020014 118.2359992 123.6809978  43.7110014
 117.8529992 122.2539978  44.0390014 118.3968497 122.9289745  44.1128260
 131.6509992 128.4919978  40.6050014 131.7239992 129.4309978  40.7750014
 132.5559992 128.1869978  40.5490014 131.7834170 128.5793282  40.6207063
 114.6209992 125.2759978  53.0170014 114.1189992 125.2479978  52.2020014
 114.6259992 124.3709978  53.3270014 114.5529832 125.1497486  52.9474121
 114.3709992 128.0569978  49.9010014 115.3169992 127.9119978  49.8820014
 114.2579992 128.8409978  50.4380014 114.4853578 128.1431697  49.9710317
 132.5689992 128.7229978  55.5840014 132.5189992 127.7669978  55.5460014
 131.7419992 128.9899978  55.9850014 132.4503831 128.6284680  55.6330121
 123.5469992 128.2969978  54.4600014 123.6349992 129.1229978  54.9350014
 122.6839992 127.9669978  54.7090014 123.4423357 128.3655468  54.5587653
 123.9619992 132.0689978  44.2660014 123.8859992 131.9479978  43.3190014
 123.9939992 133.0179978  44.3840014 123.9559380 132.1807677  44.1525181
 117.6149992 130.8579978  46.0470014 117.7669992 130.5099978  46.9250014
 116.7639992 130.5009978  45.7910014 117.5208344 130.7620879  46.1326868
 127.0629992 131.2229978  41.2680014 127.4379992 130.4789978  40.7970014
 127.0679992 130.9529978  42.1860014 127.1150098 131.0846392  41.3276629
 126.7319992 131.1489978  44.0170014 125.7969992 131.2489978  44.1960014
 127.0119992 130.4389978  44.5960014 126.6419471 131.0667933  44.1196695
 129.7209992 120.2159978  56.0640014 129.3129992 120.6959978  55.3430014
 129.7609992 119.3099978  55.7560014 129.6706221 120.1592449  55.9238267
 116.8699992 126.5999978  54.0600014 117.0859992 126.2379978  54.9200014
 116.0139992 126.2249978  53.8510014 116.7838810 126.4998837  54.1492680
 119.4879992 115.0699978  50.0560014 118.6269992 114.9829978  49.6480014
 119.4659992 115.9259978  50.4840014 119.3670491 115.1738003  50.0579582
 124.1509992 114.7919978  53.4310014 124.5709992 114.3769978  54.1840014
 123.2179992 114.6129978  53.5480014 124.0823736 114.7109910  53.5498968
 127.4779992 118.5469978  54.2840014 126.9639992 118.4219978  55.0820014
 127.3219992 119.4599978  54.0400014 127.3866967 118.6532123  54.3600937
 128.2399992 123.4079978  40.0450014 128.2819992 123.1859978  39.1150014
 129.0889992 123.8069978  40.2350014 128.3605253 123.4315498  39.9433822
 123.8129992 117.2839978  40.7160014 123.5589992 117.3029978  41.6380014
 123.5559992 116.4129978  40.4140014 123.7434508 117.1688280  40.8014803
 119.5789992 120.0349978  51.1510014 118.9379992 119.9949978  51.8600014
 119.6169992 120.9619978  50.9130014 119.4963010 120.1547668  51.2159946
 119.5759992 120.2559978  46.0630014 118.6839992 119.9159978  46.0040014
 120.0269992 119.8789978  45.3070014 119.5147642 120.1584910  45.9527726
 125.1119992 120.6719978  44.8800014 124.7029992 121.4869978  44.5880014
 125.8319992 120.5319978  44.2660014 125.1534439 120.7645372  44.7570115
 124.2139992 120.8479978  56.3680014 123.6509992 120.1429978  56.6890014
 125.0399992 120.7269978  56.8360014 124.2486674 120.7352165  56.4751751
 126.1169992 120.1179978  47.6940014 125.9209992 120.7239978  46.9790014
 126.2979992 119.2849978  47.2600014 126.1146584 120.0882513  47.5374212
 117.3289992 120.3559978  53.0180014 117.2909992 120.7559978  53.8870014
 116.8389992 119.5389978  53.1080014 117.2575330 120.3002674  53.1491289
 120.6949992 117.7299978  39.8170014 120.2639992 117.2849978  40.5460014
 119.9769992 118.1009978  39.3040014 120.5389176 117.7192051  39.8474930
 113.9379992 117.4719978  46.8690014 114.5679992 117.4429978  47.5880014
 114.3869992 117.0469978  46.1380014 114.0850835 117.4105660  46.8687659
 115.2119992 118.2179978  42.2930014 115.6859992 118.8089978  41.7080014
 114.4939992 118.7479978  42.6400014 115.1798640 118.3705511  42.2597969
 125.3809992 121.7559978  52.3650014 125.7039992 121.1249978  51.7220014
 124.9399992 121.2219978  53.0260014 125.3656379 121.5973468  52.3662582
 122.1579992 117.6839978  47.1490014 121.2469992 117.7409978  47.4380014
 122.6629992 117.6239978  47.9600014 122.1016873 117.6836826  47.2981207
 116.9859992 119.3129978  45.9760014 116.0969992 119.4119978  45.6360014
 117.2829992 118.4709978  45.6300014 116.9044177 119.2127687  45.8826940
 120.6389992 119.3129978  43.6330014 121.5709992 119.4419978  43.8110014
 120.4239992 119.9819978  42.9830014 120.7374472 119.4210806  43.5694891
 126.5629992 116.9189978  50.4140014 125.8859992 117.0499978  51.0770014
 126.0779992 116.7639978  49.6030014 126.4047405 116.9159947  50.3952170
 119.3129992 120.5069978  41.1990014 118.7709992 120.1279978  40.5080014
 120.1469992 120.7019978  40.7710014 119.3514390 120.4814079  41.0464392
 129.8509992 132.5899978  56.6900014 130.0499992 133.0139978  55.8560014
 130.5059992 132.9339978  57.2970014 129.9668522 132.6946301  56.6577852
 117.4489992 125.0639978  56.2980014 118.1809992 125.3189978  56.8600014
 116.6679992 125.2689978  56.8140014 117.4436526 125.1265450  56.4445176
 123.4779992 120.4709978  49.0360014 124.0419992 119.9249978  48.4890014
 123.3299992 119.9499978  49.8250014 123.5353037 120.3256787  49.0677229
 118.4799992 116.6079978  45.4550014 118.1629992 115.7049978  45.4190014
 119.2609992 116.6099978  44.9020014 118.5422431 116.4847797  45.3753102
 122.1039992 118.8599978  51.4500014 121.2689992 119.3139978  51.5610014
 122.6279992 119.1359978  52.2020014 122.0606072 118.9593948  51.5668136
 122.6489992 125.0729978  43.1350014 121.9039992 124.5649978  42.8130014
 122.5139992 125.1219978  44.0810014 122.5288963 125.0101731  43.2188826
 129.7989992 124.2059978  51.9220014 130.4399992 124.6619978  51.3780014
 128.9679992 124.3189978  51.4590014 129.7745287 124.2836921  51.7849887
 126.5459992 117.8869978  41.3340014 125.6079992 117.9979978  41.1830014
 126.8439992 118.7429978  41.6410014 126.4576318 118.0180158  41.3548145
 124.1679992 125.2569978  54.3720014 123.8219992 124.8749978  55.1790014
 123.9679992 126.1899978  54.4430014 124.0935987 125.3309002  54.4920461
 127.2649992 119.7539978  42.9950014 128.1569992 119.6159978  43.3140014
 127.3209992 120.5449978  42.4580014 127.3947325 119.8419918  42.9661217
 117.7729992 124.3679978  48.9050014 118.5179992 124.3649978  48.3030014
 117.8509992 123.5439978  49.3860014 117.8853365 124.2562384  48.8877430
 124.7739992 126.5309978  42.1600014 124.4789992 127.3579978  42.5420014
 124.0709992 125.9119978  42.3570014 124.6386379 126.5604171  42.2388654
 114.7809992 122.8279978  54.2200014 115.0039992 122.4099978  55.0510014
 114.1789992 122.2159978  53.7970014 114.7301513 122.6879606  54.2766740
 121.7979992 122.3449978  56.4330014 121.5019992 122.1799978  55.5370014
 122.7289992 122.1249978  56.4220014 121.8834401 122.2926879  56.3090206
 126.4179992 127.7189978  54.3220014 125.5179992 127.9019978  54.0550014
 126.4519992 127.9779978  55.2430014 126.2993748 127.7790554  54.4099164
 132.1499992 119.9629978  42.6900014 131.5949992 119.5669978  42.0170014
 132.2499992 120.8739978  42.4120014 132.0876816 120.0319505  42.5605033
 132.1129992 125.7639978  55.5270014 131.2619992 126.0019978  55.1590014
 132.7029992 125.7469978  54.7740014 132.0763812 125.7942524  55.3748453
 130.4449992 128.7489978  43.1550014 130.0719992 127.9239978  43.4640014
 130.7219992 128.5659978  42.2570014 130.4313463 128.6112569  43.0759525
 127.6049992 123.5569978  50.1760014 126.6769992 123.3259978  50.1490014
 128.0559992 122.7799978  49.8460014 127.5388165 123.4202774  50.1276790
 120.1479992 127.8859978  46.3090014 120.6759992 128.6589978  46.1090014
 119.2679992 128.1099978  46.0070014 120.1013435 128.0222700  46.2407310
 115.9029992 122.7479978  40.8960014 116.5189992 123.3749978  41.2760014
 115.0409992 123.0639978  41.1680014 115.8707678 122.8764412  40.9847209
 121.5759992 125.5489978  45.8850014 121.3349992 126.4739978  45.9270014
 120.8349992 125.0899978  46.2820014 121.4429206 125.6135915  45.9443769
 122.0899992 129.6979978  52.2000014 122.4529992 130.5519978  51.9670014
 122.6219992 129.4059978  52.9410014 122.2115141 129.7753895  52.2682097
 120.2589992 130.5699978  45.4310014 119.3089992 130.6759978  45.4820014
 120.6109992 131.3909978  45.7750014 120.1765472 130.6954923  45.4844852
 125.6339992 125.7969978  51.9010014 125.2089992 125.5689978  52.7270014
 126.2149992 125.0579978  51.7190014 125.6543395 125.6659545  51.9894414
 127.8369992 126.7259978  40.9750014 128.1909992 126.3459978  41.7790014
 126.8889992 126.6319978  41.0620014 127.7572298 126.6612452  41.0968687
 128.2929992 130.3489978  54.3700014 127.6909992 129.7929978  53.8750014
 128.5739992 131.0159978  53.7440014 128.2485757 130.3630744  54.2175675
 132.3409992 131.2049978  41.1760014 133.0849992 131.7909978  41.0360014
 131.6469992 131.7739978  41.5090014 132.3489809 131.3620818  41.2018590
 116.4149992 117.5819978  53.7780014 115.5229992 117.9199978  53.7100014
 116.3169992 116.7259978  54.1960014 116.2794475 117.5126543  53.8251704
 128.7029992 125.3979978  43.2020014 128.4259992 124.6699978  43.7580014
 129.6309992 125.5169978  43.4070014 128.7904499 125.3144213  43.3058044
 116.0669992 129.3859978  52.2130014 116.2839992 128.4539978  52.1820014
 116.3129992 129.6609978  53.0960014 116.1299809 129.2955686  52.3281690
 121.9279992 127.8379978  39.4220014 122.1669992 127.0889978  38.8750014
 121.6589992 127.4499978  40.2550014 121.9243233 127.6831853  39.4597809
 120.8649992 127.4079978  41.8780014 121.0119992 126.8879978  42.6680014
 120.8619992 128.3149978  42.1850014 120.8847102 127.4593953  42.0275925
 117.3179992 124.6599978  42.3890014 116.6319992 125.0129978  42.9560014
 117.8409992 125.4229978  42.1420014 117.2948402 124.8113901  42.4331801
 125.1499992 117.3229978  52.6680014 125.8489992 117.3969978  53.3180014
 124.7689992 116.4579978  52.8220014 125.1942097 117.2162389  52.7777997
 125.9339992 116.9749978  43.7650014 126.1539992 117.4459978  42.9610014
 126.4929992 117.3689978  44.4350014 126.0396731 117.0927287  43.7455033
 123.6029992 129.1049978  42.6280014 122.7859992 129.6019978  42.6800014
 124.1319992 129.5809978  41.9870014 123.5628125 129.2371989  42.5485306
 123.1339992 118.7029978  44.6000014 123.9459992 119.2069978  44.6460014
 122.8899992 118.5579978  45.5140014 123.2121467 118.7523749  44.7298575
 123.6699992 119.6889978  53.7840014 123.7889992 120.2629978  54.5410014
 124.3249992 119.0009978  53.8990014 123.7748684 119.6745194  53.9031674
 124.0179992 115.7839978  45.5380014 123.6709992 116.4009978  46.1820014
 124.6769992 116.2849978  45.0560014 124.0595090 115.9361575  45.5610681
 120.9409992 130.1489978  42.6090014 121.1019992 130.9489978  42.1090014
 120.7439992 130.4559978  43.4940014 120.9363906 130.2998678  42.6602333
 119.6759992 116.8469978  42.2250014 119.5919992 117.7349978  42.5720014
 120.5659992 116.5819978  42.4570014 119.7848163 116.9327179  42.3038596
 129.8739992 117.5959978  54.6190014 128.9579992 117.8579978  54.5320014
 130.2099992 117.5929978  53.7230014 129.7938499 117.6315163  54.4858766
 128.4769992 121.3459978  48.7150014 127.6789992 120.9309978  48.3870014
 128.9219992 120.6559978  49.2060014 128.4279684 121.1958628  48.7365227
 117.9339992 127.2739978  41.2850014 118.5259992 127.9739978  41.5620014
 118.3929992 126.8409978  40.5660014 118.0771652 127.3112675  41.2256533
 116.2499992 119.9389978  40.4010014 116.2049992 120.8779978  40.5800014
 115.3619992 119.7029978  40.1320014 116.1238166 120.0356687  40.3891524
 129.5629992 130.6019978  50.3370014 129.4069992 131.2809978  49.6800014
 130.4959992 130.6739978  50.5400014 129.6677387 130.7046390  50.2745342
 117.0579992 114.7199978  49.0750014 116.8289992 114.7789978  48.1470014
 116.6159992 113.9289978  49.3810014 116.9668801 114.6210540  48.9894729
 115.9889992 128.6609978  45.2350014 115.1559992 129.1329978  45.2620014
 116.5339992 129.1709978  44.6360014 115.9487857 128.7944791  45.1577142
 115.2769992 131.2729978  56.5650014 115.8169992 131.0569978  57.3250014
 114.7959992 130.4679978  56.3750014 115.2859219 131.1345156  56.6434282
 119.8739992 130.1929978  58.1850014 120.6419992 129.7339978  58.5260014
 119.8529992 129.9669978  57.2550014 119.9762135 130.0996668  58.1059491
 123.9659992 129.7009978  39.5610014 123.3219992 129.0699978  39.8820014
 124.7279992 129.1699978  39.3290014 123.9808058 129.5427902  39.5736038
 126.4509992 128.5729978  56.9140014 126.0999992 127.7159978  57.1580014
 127.1769992 128.7149978  57.5210014 126.5011895 128.4751351  57.0293770
 128.5709992 129.5179978  39.7940014 128.8539992 128.7229978  40.2470014
 129.3099992 129.7509978  39.2330014 128.7097096 129.4407049  39.7801104
 115.1839992 125.0839978  57.5190014 115.3279992 124.1819978  57.2330014
 114.4119992 125.3699978  57.0320014 115.0992733 124.9991798  57.4139532
 119.5249992 125.4269978  39.6520014 119.5899992 124.6329978  40.1820014
 120.1779992 125.3089978  38.9620014 119.6221605 125.3023430  39.6312997
 121.8389992 125.0529978  56.9520014 121.5109992 125.3239978  56.0950014
 121.9909992 124.1119978  56.8640014 121.8146412 124.9629046  56.8227822
 124.8779992 126.4739978  39.3880014 124.6089992 126.6549978  40.2880014
 124.6709992 125.5489978  39.2560014 124.8131191 126.3737119  39.4935524
 127.5739992 124.9689978  54.3350014 128.3189992 125.5579978  54.2160014
 126.8169992 125.5509978  54.3990014 127.5735470 125.1282128  54.3273799
 116.0169992 122.2839978  56.9390014 116.4249992 121.4269978  56.8180014
 115.7559992 122.2979978  57.8600014 116.0376016 122.1685119  57.0469192
 120.6749992 123.3999978  41.9580014 120.2149992 122.9159978  42.6430014
 120.9299992 122.7309978  41.3220014 120.6464856 123.2433669  41.9658397
 119.9639992 121.2929978  54.3140014 119.3449992 121.9669978  54.5940014
 120.3079992 121.6139978  53.4800014 119.9257123 121.4286887  54.2396388
 121.7459992 121.6429978  40.2200014 121.5649992 121.4879978  39.2930014
 122.6959992 121.7509978  40.2650014 121.8496566 121.6363669  40.0990929
 124.9829992 123.7639978  57.5910014 125.9369992 123.8479978  57.5640014
 124.8229992 123.0519978  58.2110014 125.0917182 123.6792842  57.6710733
 131.1359992 123.9969978  39.6660014 130.8619992 123.5729978  38.8530014
 131.1749992 124.9289978  39.4490014 131.1037716 124.0648827  39.5254286
 120.3029992 118.6479978  55.3960014 120.4529992 117.9189978  54.7940014
 120.3049992 119.4249978  54.8370014 120.3237967 118.6532708  55.2380541
 120.7159992 117.0169978  52.8890014 121.2509992 117.4689978  52.2370014
 119.8629992 116.9089978  52.4660014 120.6740374 117.0642665  52.7426710
 122.2969992 122.4569978  53.1280014 123.0479992 122.3009978  52.5550014
 121.9579992 123.3089978  52.8530014 122.3539587 122.5508138  53.0124078
 126.7129992 120.2719978  58.1570014 126.9049992 119.3409978  58.0450014
 127.5709992 120.6969978  58.1460014 126.8552182 120.2020070  58.1401862
 128.0299992 123.0609978  56.2340014 127.7479992 123.7699978  55.6560014
 128.9719992 122.9879978  56.0830014 128.1187921 123.1482193  56.1344225
 118.7819992 119.8459978  57.3070014 118.0139992 119.3129978  57.0970014
 119.4599992 119.5359978  56.7080014 118.7687235 119.7311754  57.1972413
 121.5209992 114.4739978  53.3200014 121.4229992 115.4199978  53.2150014
 120.7789992 114.1009978  52.8440014 121.4072534 114.5531773  53.2412600
 122.7849992 118.7949978  56.8840014 122.5499992 118.5759978  57.7850014
 122.0019992 118.5879978  56.3740014 122.6469095 118.7369892  56.9385353
 125.5009992 117.9229978  55.9590014 124.5529992 117.9549978  56.0910014
 125.8129992 117.2969978  56.6130014 125.4135293 117.8427923  56.0654148
 127.1349992 116.5569978  57.9640014 127.0379992 115.6049978  57.9590014
 126.8129992 116.8249978  58.8250014 127.0782468 116.4630884  58.0796210
 116.9619992 117.7659978  57.0120014 117.1739992 117.0599978  56.4020014
 116.8509992 117.3289978  57.8560014 116.9760269 117.6101921  57.0425873
 121.7429992 113.7679978  55.9910014 122.4549992 113.1279978  55.9770014
 121.6419992 114.0339978  55.0780014 121.8267387 113.7164330  55.8655563
 122.0969992 115.4499978  58.0450014 121.9649992 114.9749978  57.2250014
 121.4969992 116.1949978  57.9900014 121.9979070 115.4855789  57.9253251
 121.6429992 132.3329978  41.2210014 122.5759992 132.4909978  41.3650014
 121.3789992 133.0089978  40.5960014 121.7349911 132.4459373  41.1562722
 115.2109992 126.9699978  40.7040014 116.1249992 127.0489978  40.9770014
 115.2189992 126.2829978  40.0380014 115.3370655 126.8879205  40.6512917
 113.8599992 132.3629978  45.7810014 113.2129992 131.9009978  45.2490014
 114.2149992 131.6909978  46.3640014 113.8193741 132.2089774  45.7869175
 114.7299992 130.4429978  47.5860014 114.3959992 129.5629978  47.7580014
 114.9529992 130.7889978  48.4510014 114.7143721 130.3691938  47.7264168
 132.2789992 131.2529978  50.5670014 132.2569992 131.4379978  51.5060014
 132.9689992 131.8209978  50.2260014 132.3693439 131.3551887  50.6494791
 131.8419992 130.8199978  53.4880014 131.3549992 130.0849978  53.1170014
 132.3909992 130.4259978  54.1660014 131.8495247 130.6661057  53.5288461
 130.2929992 126.6099978  58.1270014 129.4269992 126.5049978  58.5210014
 130.6689992 127.3679978  58.5730014 130.2253401 126.6981708  58.2412620
 131.5939992 124.8659978  43.6410014 132.4439992 125.2869978  43.7680014
 131.5989992 124.1259978  44.2480014 131.7111143 124.8236094  43.7404750
 131.9879992 122.9199978  45.4640014 131.2619992 122.4399978  45.8620014
 132.5699992 123.1249978  46.1970014 131.9672730 122.8820184  45.6174149
 131.7469992 125.7049978  50.4120014 132.5809992 125.3269978  50.1310014
 131.8589992 126.6479978  50.2930014 131.8761917 125.7807943  50.3574861
 130.2339992 128.5829978  52.7190014 129.5859992 128.9079978  53.3440014
 129.7159992 128.1419978  52.0450014 130.0754196 128.5678651  52.7134152
 132.2569992 122.8209978  41.8550014 131.7349992 123.1769978  41.1370014
 132.2239992 123.4959978  42.5340014 132.1810129 122.9609598  41.8483355
 130.6059992 120.0599978  40.4060014 130.7019992 120.7269978  39.7260014
 130.4659992 119.2449978  39.9250014 130.6002040 120.0410671  40.2478378
 129.7749992 121.4409978  46.0270014 129.6249992 120.4959978  46.0070014
 129.4209992 121.7219978  46.8710014 129.7066351 121.3496644  46.1383220
 114.8099992 123.5189978  50.0380014 114.9949992 123.4369978  49.1020014
 115.6599992 123.3949978  50.4610014 114.9500928 123.4910463  49.9672893
 130.6309992 123.4109978  55.6660014 131.2139992 122.6759978  55.8580014
 131.1949992 124.1829978  55.7130014 130.7869781 123.4148145  55.6986164
 132.1279992 121.3139978  56.3510014 131.2649992 120.9349978  56.1850014
 132.7319992 120.5749978  56.2760014 132.0916085 121.1623223  56.3181695
 129.8529992 117.4679978  39.5240014 130.4639992 117.0969978  40.1610014
 129.0159992 117.0469978  39.7200014 129.8234947 117.3602756  39.6377252
 129.4859992 119.0229978  44.4900014 129.7649992 118.1159978  44.6140014
 130.2449992 119.4569978  44.1010014 129.6268619 118.9574502  44.4543795
 130.0969992 119.6049978  49.9260014 131.0299992 119.8169978  49.8910014
 129.8619992 119.7059978  50.8480014 130.1929517 119.6476833  50.0459130
 130.1269992 120.3419978  52.7020014 129.2839992 120.6099978  53.0680014
 130.5689992 121.1639978  52.4910014 130.0714138 120.4898273  52.7235518
 114.4079992 118.7889978  56.1780014 115.3269992 118.6669978  56.4150014
 113.9579992 118.0389978  56.5680014 114.4730087 118.6709608  56.2631410
 132.4099992 114.3219978  58.0550014 132.7589992 113.6679978  57.4500014
 132.5569992 115.1589978  57.6150014 132.4776824 114.3456024  57.9126304
 130.0989992 116.2859978  44.5380014 130.2809992 115.8369978  45.3630014
 129.4989992 115.7019978  44.0740014 130.0428187 116.1455552  44.5882739
 115.6289992 117.1019978  49.0700014 116.0739992 116.3099978  49.3720014
 116.0949992 117.8179978  49.5000014 115.7529718 117.0904534  49.1695265
 113.9329992 120.1009978  50.1390014 114.4249992 119.8799978  49.3480014
 114.2949992 120.9409978  50.4200014 114.0492923 120.1843468  50.0687407
 131.9289992 116.4309978  56.4040014 131.0119992 116.7019978  56.3690014
 132.0519992 115.8959978  55.6200014 131.8199672 116.3957885  56.2931862
 131.9659992 116.3539978  41.0660014 132.3779992 115.6329978  40.5910014
 132.6469992 117.0229978  41.1240014 132.1145536 116.3457766  41.0088024
 114.2469992 116.3589978  44.1930014 113.3219992 116.5669978  44.0640014
 114.7009992 116.8429978  43.5030014 114.1816298 116.4529299  44.0820451
 129.0169992 131.3429978  46.1390014 129.6699992 130.9949978  45.5310014
 129.5279992 131.8309978  46.7850014 129.1752777 131.3613815  46.1432047
 114.2099992 115.0969978  52.5370014 113.5449992 114.8509978  53.1800014
 113.7669992 115.7189978  51.9600014 114.0591168 115.1474214  52.5469848
 116.4019992 128.2719978  56.6820014 115.5809992 128.4469978  56.2210014
 116.1499992 128.1989978  57.6020014 116.2555594 128.2860717  56.7433611
 119.3559992 129.2459978  52.9400014 118.9319992 130.0559978  52.6580014
 120.2609992 129.3319978  52.6380014 119.4202138 129.3684160  52.8606415
 123.6679992 130.6449978  55.9000014 123.8519992 130.3119978  56.7780014
 124.5139992 130.9549978  55.5780014 123.8076484 130.6412979  55.9767617
 126.0129992 131.9309978  55.1440014 126.6899992 131.2979978  54.9040014
 126.3339992 132.3319978  55.9510014 126.1491323 131.8985691  55.2203158
 130.9299992 114.5209978  54.2230014 130.1169992 114.8459978  53.8360014
 131.1629992 113.7599978  53.6900014 130.8501347 114.4626880  54.0979841
 116.7579992 132.5029978  52.9880014 116.0379992 132.9429978  52.5370014
 116.3929992 132.2519978  53.8360014 116.6099643 132.5293369  53.0409129
 119.2249992 132.1029978  52.0180014 118.3609992 132.1749978  52.4220014
 119.1699992 132.6499978  51.2340014 119.0991942 132.1867849  51.9674000
 123.9359992 131.9909978  51.1930014 123.4789992 132.5199978  50.5390014
 124.0989992 132.5939978  51.9180014 123.8954960 132.1449280  51.2015274
 126.2639992 130.8689978  52.1380014 125.3589992 131.0339978  51.8720014
 126.6919992 131.7219978  52.0720014 126.1981537 131.0069134  52.0927095
 128.8679992 132.4389978  52.4330014 128.6859992 133.3549978  52.2220014
 129.0449992 132.0279978  51.5860014 128.8670030 132.5088273  52.2897166
 116.1729992 131.1259978  49.8980014 116.1549992 130.6999978  50.7550014
 116.9779992 130.8069978  49.4890014 116.2792875 131.0246435  49.9599515
 118.3139992 129.8359978  48.5530014 118.0949992 128.9189978  48.7230014
 119.1379992 129.9759978  49.0190014 118.3954702 129.7295511  48.6392527
 120.8509992 130.3059978  49.4020014 121.0639992 129.4179978  49.1150014
 120.9159992 130.2709978  50.3560014 120.8889149 130.1798326  49.4917369
 124.3599992 115.9699978  48.5460014 123.6859992 115.3399978  48.8020014
 124.9239992 115.4859978  47.9430014 124.3440384 115.8183708  48.4995020
 129.5029992 114.0769978  48.6590014 130.1059992 114.6249978  48.1570014
 128.6329992 114.3959978  48.4180014 129.4679157 114.1950373  48.5577910
 131.2299992 115.2159978  46.9920014 131.8409992 114.7019978  46.4650014
 131.6119992 116.0929978  47.0150014 131.3653305 115.2642050  46.9229418
 116.6869992 114.6039978  46.3680014 115.9099992 114.3689978  45.8610014
 117.2169992 113.8069978  46.3770014 116.6523451 114.4641268  46.2998627
 115.5229992 114.4019978  42.1720014 115.9619992 115.0129978  41.5800014
 114.8889992 114.9399978  42.6460014 115.4973859 114.5584064  42.1550305
 121.2659992 114.5299978  46.1810014 122.1399992 114.9189978  46.1520014
 121.1299992 114.3149978  47.1040014 121.3671953 114.5541643  46.3017617
 126.8229992 114.5599978  47.8310014 126.8989992 114.6559978  46.8810014
 126.5479992 113.6529978  47.9590014 126.7961871 114.4504146  47.7183944
 128.1759992 114.5859978  43.5230014 127.4729992 115.2009978  43.3130014
 127.7309992 113.7489978  43.6540014 128.0196550 114.5569668  43.5119837
 115.4239992 130.3499978  43.0690014 114.7389992 130.3119978  42.4020014
 115.4279992 131.2629978  43.3570014 115.3307621 130.4681924  43.0166126
 117.3839992 116.3179978  40.6140014 117.8749992 115.6879978  40.0870014
 118.0069992 116.6139978  41.2770014 117.5355304 116.2717376  40.6314940
 122.4099992 116.6109978  43.0710014 122.5879992 115.9639978  43.7540014
 122.3559992 117.4449978  43.5380014 122.4270678 116.6351604  43.2276301
 124.2879992 131.5589978  41.4670014 125.1539992 131.9259978  41.2890014
 124.0419992 131.1199978  40.6530014 124.3732097 131.5498525  41.3326019
 130.9969992 131.1219978  44.1460014 130.8029992 130.3739978  43.5810014
 130.9579992 131.8799978  43.5630014 130.9651645 131.1220786  43.9898148
 116.6439992 115.1179978  55.8860014 116.2779992 114.3519978  56.3280014
 117.5569992 115.1469978  56.1720014 116.7173172 115.0170324  55.9851890
 118.6169992 114.4679978  57.4210014 119.5159992 114.1939978  57.2370014
 118.2309992 113.7259978  57.8860014 118.6877307 114.3302196  57.4587098
 117.2419992 131.2699978  40.0940014 116.9739992 131.5559978  40.9680014
 118.0129992 130.7239978  40.2470014 117.3095926 131.2352779  40.2341205
 127.0389992 113.8009978  57.6040014 127.1149992 113.3749978  58.4570014
 127.9319992 113.8139978  57.2610014 127.1702303 113.7443493  57.6745497
 130.2149992 129.8739978  56.2960014 129.4329992 129.6869978  55.7760014
 130.1429992 130.8029978  56.5130014 130.0981924 129.9740637  56.2541602
 144.6209992 123.7599978  46.3270014 144.7099992 124.7039978  46.1950014
 143.9829992 123.4849978  45.6690014 144.5469062 123.8519812  46.2199641
 143.5539992 123.0149978  49.7460014 143.5159992 122.3689978  50.4510014
 143.2319992 122.5479978  48.9750014 143.5052679 122.8634276  49.7382921
 135.9219992 122.6289978  51.3390014 135.9639992 122.0039978  52.0620014
 136.6249992 123.2529978  51.5210014 136.0227345 122.6277873  51.4625274
 136.8459992 127.0789978  49.8740014 136.4759992 126.2769978  49.5040014
 137.7869992 126.9109978  49.9200014 136.9225984 126.9464638  49.8295603
 133.4559992 120.7389978  45.2660014 133.0079992 121.5849978  45.2480014
 132.8949992 120.1599978  44.7510014 133.3188546 120.7763993  45.1938891
 134.1659992 122.9009978  47.3920014 134.3799992 122.1309978  47.9200014
 134.9039992 122.9909978  46.7890014 134.2950200 122.8078586  47.3827035
 144.3719992 131.0579978  48.2590014 144.9909992 130.3819978  47.9860014
 144.1629992 130.8399978  49.1680014 144.4286056 130.9358869  48.3443967
 141.9429992 125.4469978  50.1520014 142.2469992 124.7609978  49.5570014
 142.6649992 125.5659978  50.7700014 142.0821240 125.3692314  50.1540959
 145.0839992 119.8409978  50.4790014 145.2269992 118.8949978  50.4990014
 144.9779992 120.0479978  49.5510014 145.0892403 119.7394797  50.3562239
 138.2389992 117.9429978  47.7520014 138.2819992 118.8029978  47.3330014
 137.7809992 117.3909978  47.1180014 138.1829871 117.9859245  47.6090761
 134.8589992 120.3399978  48.5140014 135.5129992 119.7899978  48.9460014
 134.8829992 120.0659978  47.5970014 134.9517199 120.2277167  48.4491668
 140.0159992 121.8899978  47.7290014 140.6319992 121.3629978  48.2380014
 139.4289992 121.2499978  47.3250014 140.0210154 121.7313954  47.7440945
 137.0489992 116.8609978  51.8260014 136.8299992 117.3909978  51.0590014
 136.3809992 117.0869978  52.4730014 136.9286975 116.9640967  51.8085140
 144.4179992 126.3609978  45.3700014 144.1229992 126.0379978  44.5180014
 144.0939992 127.2609978  45.4110014 144.3338460 126.4384464  45.2589714
 139.6179992 124.5359978  52.1130014 138.8779992 125.1349978  52.2170014
 140.3319992 125.0899978  51.7980014 139.6133500 124.6927829  52.0846371
 136.6429992 118.7529978  49.7780014 137.2569992 119.3859978  50.1510014
 137.1549992 118.2809978  49.1220014 136.7961962 118.7757249  49.7402935
 138.0259992 126.5009978  52.9000014 138.0199992 127.3799978  52.5220014
 137.1719992 126.4169978  53.3250014 137.9097925 126.6099535  52.9056887
 134.1469992 126.1719978  43.6820014 133.8749992 126.4009978  42.7940014
 134.1919992 127.0089978  44.1430014 134.1158097 126.3166163  43.6226683
 141.0759992 114.1659978  49.2780014 140.9579992 113.2179978  49.2240014
 140.2209992 114.4989978  49.5510014 140.9442805 114.0812202  49.3075079
 143.3419992 123.0039978  43.7790014 142.6309992 123.5389978  43.4270014
 144.0329992 123.0589978  43.1190014 143.3380751 123.0846777  43.6415858
 143.3959992 121.4609978  40.8170014 144.0969992 121.4839978  41.4690014
 143.6979992 120.8329978  40.1610014 143.5328202 121.3792212  40.8175609
 138.3929992 123.8439978  46.6130014 138.0629992 123.4729978  45.7950014
 138.9819992 123.1729978  46.9600014 138.4273970 123.7026063  46.5479404
 139.7599992 127.2719978  49.2940014 139.6649992 126.6929978  48.5380014
 140.4889992 126.9009978  49.7900014 139.8456011 127.1425561  49.2576028
 138.7599992 122.6119978  50.2460014 139.3249992 122.7339978  49.4840014
 139.0789992 123.2499978  50.8850014 138.8804166 122.7148791  50.2280348
 145.0689992 128.1159978  50.9800014 144.8289992 128.7779978  51.6280014
 144.8709992 127.2809978  51.4050014 145.0093826 128.0938115  51.1261566
 139.6399992 127.0119978  54.9640014 139.3289992 127.7939978  55.4190014
 138.9899992 126.8589978  54.2780014 139.5095538 127.0984087  54.9335898
 136.5599992 123.2099978  54.1920014 136.6299992 123.8609978  54.8910014
 135.6689992 123.3129978  53.8570014 136.4491690 123.3129249  54.2423043
 143.3449992 129.1119978  45.8510014 143.8189992 129.4079978  46.6280014
 142.7819992 129.8509978  45.6180014 143.3337890 129.2523036  45.9258101
 137.8789992 129.0829978  55.7270014 137.8869992 128.9469978  54.7800014
 136.9629992 128.9659978  55.9790014 137.7562528 129.0485463  55.6313243
 137.3839992 122.9129978  44.2020014 137.0919992 123.6809978  43.7110014
 136.7089992 122.2539978  44.0390014 137.2528497 122.9289745  44.1128260
 133.4769992 125.2759978  53.0170014 132.9749992 125.2479978  52.2020014
 133.4819992 124.3709978  53.3270014 133.4089832 125.1497486  52.9474121
 133.2269992 128.0569978  49.9010014 134.1729992 127.9119978  49.8820014
 133.1139992 128.8409978  50.4380014 133.3413578 128.1431697  49.9710317
 142.4029992 128.2969978  54.4600014 142.4909992 129.1229978  54.9350014
 141.5399992 127.9669978  54.7090014 142.2983357 128.3655468  54.5587653
 142.8179992 132.0689978  44.2660014 142.7419992 131.9479978  43.3190014
 142.8499992 133.0179978  44.3840014 142.8119380 132.1807677  44.1525181
 136.4709992 130.8579978  46.0470014 136.6229992 130.5099978  46.9250014
 135.6199992 130.5009978  45.7910014 136.3768344 130.7620879  46.1326868
 135.7259992 126.5999978  54.0600014 135.9419992 126.2379978  54.9200014
 134.8699992 126.2249978  53.8510014 135.6398810 126.4998837  54.1492680
 138.3439992 115.0699978  50.0560014 137.4829992 114.9829978  49.6480014
 138.3219992 115.9259978  50.4840014 138.2230491 115.1738003  50.0579582
 143.0069992 114.7919978  53.4310014 143.4269992 114.3769978  54.1840014
 142.0739992 114.6129978  53.5480014 142.9383736 114.7109910  53.5498968
 142.6689992 117.2839978  40.7160014 142.4149992 117.3029978  41.6380014
 142.4119992 116.4129978  40.4140014 142.5994508 117.1688280  40.8014803
 138.4349992 120.0349978  51.1510014 137.7939992 119.9949978  51.8600014
 138.4729992 120.9619978  50.9130014 138.3523010 120.1547668  51.2159946
 138.4319992 120.2559978  46.0630014 137.5399992 119.9159978  46.0040014
 138.8829992 119.8789978  45.3070014 138.3707642 120.1584910  45.9527726
 143.9679992 120.6719978  44.8800014 143.5589992 121.4869978  44.5880014
 144.6879992 120.5319978  44.2660014 144.0094439 120.7645372  44.7570115
 143.0699992 120.8479978  56.3680014 142.5069992 120.1429978  56.6890014
 143.8959992 120.7269978  56.8360014 143.1046674 120.7352165  56.4751751
 144.9729992 120.1179978  47.6940014 144.7769992 120.7239978  46.9790014
 145.1539992 119.2849978  47.2600014 144.9706584 120.0882513  47.5374212
 136.1849992 120.3559978  53.0180014 136.1469992 120.7559978  53.8870014
 135.6949992 119.5389978  53.1080014 136.1135330 120.3002674  53.1491289
 139.5509992 117.7299978  39.8170014 139.1199992 117.2849978  40.5460014
 138.8329992 118.1009978  39.3040014 139.3949176 117.7192051  39.8474930
 132.7939992 117.4719978  46.8690014 133.4239992 117.4429978  47.5880014
 133.2429992 117.0469978  46.1380014 132.9410835 117.4105660  46.8687659
 134.0679992 118.2179978  42.2930014 134.5419992 118.8089978  41.7080014
 133.3499992 118.7479978  42.6400014 134.0358640 118.3705511  42.2597969
 144.2369992 121.7559978  52.3650014 144.5599992 121.1249978  51.7220014
 143.7959992 121.2219978  53.0260014 144.2216379 121.5973468  52.3662582
 141.0139992 117.6839978  47.1490014 140.1029992 117.7409978  47.4380014
 141.5189992 117.6239978  47.9600014 140.9576873 117.6836826  47.2981207
 135.8419992 119.3129978  45.9760014 134.9529992 119.4119978  45.6360014
 136.1389992 118.4709978  45.6300014 135.7604177 119.2127687  45.8826940
 139.4949992 119.3129978  43.6330014 140.4269992 119.4419978  43.8110014
 139.2799992 119.9819978  42.9830014 139.5934472 119.4210806  43.5694891
 145.4189992 116.9189978  50.4140014 144.7419992 117.0499978  51.0770014
 144.9339992 116.7639978  49.6030014 145.2607405 116.9159947  50.3952170
 138.1689992 120.5069978  41.1990014 137.6269992 120.1279978  40.5080014
 139.0029992 120.7019978  40.7710014 138.2074390 120.4814079  41.0464392
 136.3049992 125.0639978  56.2980014 137.0369992 125.3189978  56.8600014
 135.5239992 125.2689978  56.8140014 136.2996526 125.1265450  56.4445176
 142.3339992 120.4709978  49.0360014 142.8979992 119.9249978  48.4890014
 142.1859992 119.9499978  49.8250014 142.3913037 120.3256787  49.0677229
 137.3359992 116.6079978  45.4550014 137.0189992 115.7049978  45.4190014
 138.1169992 116.6099978  44.9020014 137.3982431 116.4847797  45.3753102
 140.9599992 118.8599978  51.4500014 140.1249992 119.3139978  51.5610014
 141.4839992 119.1359978  52.2020014 140.9166072 118.9593948  51.5668136
 141.5049992 125.0729978  43.1350014 140.7599992 124.5649978  42.8130014
 141.3699992 125.1219978  44.0810014 141.3848963 125.0101731  43.2188826
 145.4019992 117.8869978  41.3340014 144.4639992 117.9979978  41.1830014
 145.6999992 118.7429978  41.6410014 145.3136318 118.0180158  41.3548145
 143.0239992 125.2569978  54.3720014 142.6779992 124.8749978  55.1790014
 142.8239992 126.1899978  54.4430014 142.9495987 125.3309002  54.4920461
 136.6289992 124.3679978  48.9050014 137.3739992 124.3649978  48.3030014
 136.7069992 123.5439978  49.3860014 136.7413365 124.2562384  48.8877430
 143.6299992 126.5309978  42.1600014 143.3349992 127.3579978  42.5420014
 142.9269992 125.9119978  42.3570014 143.4946379 126.5604171  42.2388654
 133.6369992 122.8279978  54.2200014 133.8599992 122.4099978  55.0510014
 133.0349992 122.2159978  53.7970014 133.5861513 122.6879606  54.2766740
 140.6539992 122.3449978  56.4330014 140.3579992 122.1799978  55.5370014
 141.5849992 122.1249978  56.4220014 140.7394401 122.2926879  56.3090206
 145.2739992 127.7189978  54.3220014 144.3739992 127.9019978  54.0550014
 145.3079992 127.9779978  55.2430014 145.1553748 127.7790554  54.4099164
 139.0039992 127.8859978  46.3090014 139.5319992 128.6589978  46.1090014
 138.1239992 128.1099978  46.0070014 138.9573435 128.0222700  46.2407310
 134.7589992 122.7479978  40.8960014 135.3749992 123.3749978  41.2760014
 133.8969992 123.0639978  41.1680014 134.7267678 122.8764412  40.9847209
 140.4319992 125.5489978  45.8850014 140.1909992 126.4739978  45.9270014
 139.6909992 125.0899978  46.2820014 140.2989206 125.6135915  45.9443769
 140.9459992 129.6979978  52.2000014 141.3089992 130.5519978  51.9670014
 141.4779992 129.4059978  52.9410014 141.0675141 129.7753895  52.2682097
 139.1149992 130.5699978  45.4310014 138.1649992 130.6759978  45.4820014
 139.4669992 131.3909978  45.7750014 139.0325472 130.6954923  45.4844852
 144.4899992 125.7969978  51.9010014 144.0649992 125.5689978  52.7270014
 145.0709992 125.0579978  51.7190014 144.5103395 125.6659545  51.9894414
 135.2709992 117.5819978  53.7780014 134.3789992 117.9199978  53.7100014
 135.1729992 116.7259978  54.1960014 135.1354475 117.5126543  53.8251704
 134.9229992 129.3859978  52.2130014 135.1399992 128.4539978  52.1820014
 135.1689992 129.6609978  53.0960014 134.9859809 129.2955686  52.3281691
 140.7839992 127.8379978  39.4220014 141.0229992 127.0889978  38.8750014
 140.5149992 127.4499978  40.2550014 140.7803233 127.6831853  39.4597809
 139.7209992 127.4079978  41.8780014 139.8679992 126.8879978  42.6680014
 139.7179992 128.3149978  42.1850014 139.7407102 127.4593953  42.0275925
 136.1739992 124.6599978  42.3890014 135.4879992 125.0129978  42.9560014
 136.6969992 125.4229978  42.1420014 136.1508402 124.8113901  42.4331801
 144.0059992 117.3229978  52.6680014 144.7049992 117.3969978  53.3180014
 143.6249992 116.4579978  52.8220014 144.0502097 117.2162389  52.7777997
 144.7899992 116.9749978  43.7650014 145.0099992 117.4459978  42.9610014
 145.3489992 117.3689978  44.4350014 144.8956731 117.0927287  43.7455033
 142.4589992 129.1049978  42.6280014 141.6419992 129.6019978  42.6800014
 142.9879992 129.5809978  41.9870014 142.4188125 129.2371989  42.5485306
 141.9899992 118.7029978  44.6000014 142.8019992 119.2069978  44.6460014
 141.7459992 118.5579978  45.5140014 142.0681467 118.7523749  44.7298575
 142.5259992 119.6889978  53.7840014 142.6449992 120.2629978  54.5410014
 143.1809992 119.0009978  53.8990014 142.6308684 119.6745194  53.9031674
 142.8739992 115.7839978  45.5380014 142.5269992 116.4009978  46.1820014
 143.5329992 116.2849978  45.0560014 142.9155090 115.9361575  45.5610681
 139.7969992 130.1489978  42.6090014 139.9579992 130.9489978  42.1090014
 139.5999992 130.4559978  43.4940014 139.7923906 130.2998678  42.6602333
 138.5319992 116.8469978  42.2250014 138.4479992 117.7349978  42.5720014
 139.4219992 116.5819978  42.4570014 138.6408163 116.9327179  42.3038596
 136.7899992 127.2739978  41.2850014 137.3819992 127.9739978  41.5620014
 137.2489992 126.8409978  40.5660014 136.9331652 127.3112675  41.2256533
 135.1059992 119.9389978  40.4010014 135.0609992 120.8779978  40.5800014
 134.2179992 119.7029978  40.1320014 134.9798166 120.0356687  40.3891524
 135.9139992 114.7199978  49.0750014 135.6849992 114.7789978  48.1470014
 135.4719992 113.9289978  49.3810014 135.8228801 114.6210540  48.9894729
 134.8449992 128.6609978  45.2350014 134.0119992 129.1329978  45.2620014
 135.3899992 129.1709978  44.6360014 134.8047857 128.7944791  45.1577142
 134.1329992 131.2729978  56.5650014 134.6729992 131.0569978  57.3250014
 133.6519992 130.4679978  56.3750014 134.1419219 131.1345156  56.6434282
 138.7299992 130.1929978  58.1850014 139.4979992 129.7339978  58.5260014
 138.7089992 129.9669978  57.2550014 138.8322135 130.0996668  58.1059491
 142.8219992 129.7009978  39.5610014 142.1779992 129.0699978  39.8820014
 143.5839992 129.1699978  39.3290014 142.8368058 129.5427902  39.5736038
 145.3069992 128.5729978  56.9140014 144.9559992 127.7159978  57.1580014
 146.0329992 128.7149978  57.5210014 145.3571895 128.4751351  57.0293770
 134.0399992 125.0839978  57.5190014 134.1839992 124.1819978  57.2330014
 133.2679992 125.3699978  57.0320014 133.9552733 124.9991798  57.4139532
 138.3809992 125.4269978  39.6520014 138.4459992 124.6329978  40.1820014
 139.0339992 125.3089978  38.9620014 138.4781605 125.3023430  39.6312997
 140.6949992 125.0529978  56.9520014 140.3669992 125.3239978  56.0950014
 140.8469992 124.1119978  56.8640014 140.6706412 124.9629046  56.8227822
 143.7339992 126.4739978  39.3880014 143.4649992 126.6549978  40.2880014
 143.5269992 125.5489978  39.2560014 143.6691191 126.3737119  39.4935524
 134.8729992 122.2839978  56.9390014 135.2809992 121.4269978  56.8180014
 134.6119992 122.2979978  57.8600014 134.8936016 122.1685119  57.0469192
 139.5309992 123.3999978  41.9580014 139.0709992 122.9159978  42.6430014
 139.7859992 122.7309978  41.3220014 139.5024856 123.2433669  41.9658397
 138.8199992 121.2929978  54.3140014 138.2009992 121.9669978  54.5940014
 139.1639992 121.6139978  53.4800014 138.7817123 121.4286887  54.2396388
 140.6019992 121.6429978  40.2200014 140.4209992 121.4879978  39.2930014
 141.5519992 121.7509978  40.2650014 140.7056566 121.6363669  40.0990929
 143.8389992 123.7639978  57.5910014 144.7929992 123.8479978  57.5640014
 143.6789992 123.0519978  58.2110014 143.9477182 123.6792842  57.6710733
 139.1589992 118.6479978  55.3960014 139.3089992 117.9189978  54.7940014
 139.1609992 119.4249978  54.8370014 139.1797967 118.6532708  55.2380541
 139.5719992 117.0169978  52.8890014 140.1069992 117.4689978  52.2370014
 138.7189992 116.9089978  52.4660014 139.5300374 117.0642665  52.7426710
 141.1529992 122.4569978  53.1280014 141.9039992 122.3009978  52.5550014
 140.8139992 123.3089978  52.8530014 141.2099587 122.5508138  53.0124078
 145.5689992 120.2719978  58.1570014 145.7609992 119.3409978  58.0450014
 146.4269992 120.6969978  58.1460014 145.7112182 120.2020070  58.1401862
 137.6379992 119.8459978  57.3070014 136.8699992 119.3129978  57.0970014
 138.3159992 119.5359978  56.7080014 137.6247235 119.7311754  57.1972413
 140.3769992 114.4739978  53.3200014 140.2789992 115.4199978  53.2150014
 139.6349992 114.1009978  52.8440014 140.2632534 114.5531773  53.2412600
 141.6409992 118.7949978  56.8840014 141.4059992 118.5759978  57.7850014
 140.8579992 118.5879978  56.3740014 141.5029095 118.7369892  56.9385353
 144.3569992 117.9229978  55.9590014 143.4089992 117.9549978  56.0910014
 144.6689992 117.2969978  56.6130014 144.2695293 117.8427923  56.0654148
 135.8179992 117.7659978  57.0120014 136.0299992 117.0599978  56.4020014
 135.7069992 117.3289978  57.8560014 135.8320269 117.6101921  57.0425873
 140.5989992 113.7679978  55.9910014 141.3109992 113.1279978  55.9770014
 140.4979992 114.0339978  55.0780014 140.6827387 113.7164330  55.8655563
 140.9529992 115.4499978  58.0450014 140.8209992 114.9749978  57.2250014
 140.3529992 116.1949978  57.9900014 140.8539070 115.4855789  57.9253251
 140.4989992 132.3329978  41.2210014 141.4319992 132.4909978  41.3650014
 140.2349992 133.0089978  40.5960014 140.5909911 132.4459373  41.1562722
 134.0669992 126.9699978  40.7040014 134.9809992 127.0489978  40.9770014
 134.0749992 126.2829978  40.0380014 134.1930655 126.8879205  40.6512917
 132.7159992 132.3629978  45.7810014 132.0689992 131.9009978  45.2490014
 133.0709992 131.6909978  46.3640014 132.6753741 132.2089774  45.7869175
 133.5859992 130.4429978  47.5860014 133.2519992 129.5629978  47.7580014
 133.8089992 130.7889978  48.4510014 133.5703721 130.3691938  47.7264168
 133.6659992 123.5189978  50.0380014 133.8509992 123.4369978  49.1020014
 134.5159992 123.3949978  50.4610014 133.8060928 123.4910463  49.9672893
 133.2639992 118.7889978  56.1780014 134.1829992 118.6669978  56.4150014
 132.8139992 118.0389978  56.5680014 133.3290087 118.6709608  56.2631410
 134.4849992 117.1019978  49.0700014 134.9299992 116.3099978  49.3720014
 134.9509992 117.8179978  49.5000014 134.6089718 117.0904534  49.1695265
 132.7889992 120.1009978  50.1390014 133.2809992 119.8799978  49.3480014
 133.1509992 120.9409978  50.4200014 132.9052923 120.1843468  50.0687407
 133.1029992 116.3589978  44.1930014 132.1779992 116.5669978  44.0640014
 133.5569992 116.8429978  43.5030014 133.0376298 116.4529299  44.0820451
 133.0659992 115.0969978  52.5370014 132.4009992 114.8509978  53.1800014
 132.6229992 115.7189978  51.9600014 132.9151168 115.1474214  52.5469848
 135.2579992 128.2719978  56.6820014 134.4369992 128.4469978  56.2210014
 135.0059992 128.1989978  57.6020014 135.1115594 128.2860717  56.7433611
 138.2119992 129.2459978  52.9400014 137.7879992 130.0559978  52.6580014
 139.1169992 129.3319978  52.6380014 138.2762138 129.3684160  52.8606415
 142.5239992 130.6449978  55.9000014 142.7079992 130.3119978  56.7780014
 143.3699992 130.9549978  55.5780014 142.6636484 130.6412979  55.9767617
 144.8689992 131.9309978  55.1440014 145.5459992 131.2979978  54.9040014
 145.1899992 132.3319978  55.9510014 145.0051323 131.8985691  55.2203158
 135.6139992 132.5029978  52.9880014 134.8939992 132.9429978  52.5370014
 135.2489992 132.2519978  53.8360014 135.4659643 132.5293369  53.0409129
 138.0809992 132.1029978  52.0180014 137.2169992 132.1749978  52.4220014
 138.0259992 132.6499978  51.2340014 137.9551942 132.1867849  51.9674000
 142.7919992 131.9909978  51.1930014 142.3349992 132.5199978  50.5390014
 142.9549992 132.5939978  51.9180014 142.7514960 132.1449280  51.2015274
 145.1199992 130.8689978  52.1380014 144.2149992 131.0339978  51.8720014
 145.5479992 131.7219978  52.0720014 145.0541537 131.0069134  52.0927095
 135.0289992 131.1259978  49.8980014 135.0109992 130.6999978  50.7550014
 135.8339992 130.8069978  49.4890014 135.1352875 131.0246435  49.9599515
 137.1699992 129.8359978  48.5530014 136.9509992 128.9189978  48.7230014
 137.9939992 129.9759978  49.0190014 137.2514702 129.7295511  48.6392527
 139.7069992 130.3059978  49.4020014 139.9199992 129.4179978  49.1150014
 139.7719992 130.2709978  50.3560014 139.7449149 130.1798326  49.4917369
 143.2159992 115.9699978  48.5460014 142.5419992 115.3399978  48.8020014
 143.7799992 115.4859978  47.9430014 143.2000384 115.8183708  48.4995020
 135.5429992 114.6039978  46.3680014 134.7659992 114.3689978  45.8610014
 136.0729992 113.8069978  46.3770014 135.5083451 114.4641268  46.2998627
 134.3789992 114.4019978  42.1720014 134.8179992 115.0129978  41.5800014
 133.7449992 114.9399978  42.6460014 134.3533859 114.5584064  42.1550305
 140.1219992 114.5299978  46.1810014 140.9959992 114.9189978  46.1520014
 139.9859992 114.3149978  47.1040014 140.2231953 114.5541643  46.3017617
 134.2799992 130.3499978  43.0690014 133.5949992 130.3119978  42.4020014
 134.2839992 131.2629978  43.3570014 134.1867621 130.4681924  43.0166126
 136.2399992 116.3179978  40.6140014 136.7309992 115.6879978  40.0870014
 136.8629992 116.6139978  41.2770014 136.3915304 116.2717376  40.6314940
 141.2659992 116.6109978  43.0710014 141.4439992 115.9639978  43.7540014
 141.2119992 117.4449978  43.5380014 141.2830678 116.6351604  43.2276301
 143.1439992 131.5589978  41.4670014 144.0099992 131.9259978  41.2890014
 142.8979992 131.1199978  40.6530014 143.2292097 131.5498525  41.3326019
 135.4999992 115.1179978  55.8860014 135.1339992 114.3519978  56.3280014
 136.4129992 115.1469978  56.1720014 135.5733172 115.0170324  55.9851890
 137.4729992 114.4679978  57.4210014 138.3719992 114.1939978  57.2370014
 137.0869992 113.7259978  57.8860014 137.5437307 114.3302196  57.4587098
 136.0979992 131.2699978  40.0940014 135.8299992 131.5559978  40.9680014
 136.8689992 130.7239978  40.2470014 136.1655926 131.2352779  40.2341205
  12.6289992 142.6159978  46.3270014  12.7179992 143.5599978  46.1950014
  11.9909992 142.3409978  45.6690014  12.5549062 142.7079812  46.2199641
  11.5619992 141.8709978  49.7460014  11.5239992 141.2249978  50.4510014
  11.2399992 141.4039978  48.9750014  11.5132679 141.7194276  49.7382921
   3.9299992 141.4849978  51.3390014   3.9719992 140.8599978  52.0620014
   4.6329992 142.1089978  51.5210014   4.0307345 141.4837873  51.4625274
  15.2679992 144.8099978  48.0470014  14.8269992 144.0899978  48.4980014
  15.2549992 145.5309978  48.6770014  15.2059215 144.8089291  48.1938105
   1.4639992 139.5949978  45.2660014   1.0159992 140.4409978  45.2480014
   0.9029992 139.0159978  44.7510014   1.3268546 139.6323993  45.1938891
   2.1739992 141.7569978  47.3920014   2.3879992 140.9869978  47.9200014
   2.9119992 141.8469978  46.7890014   2.3030200 141.6638587  47.3827035
   9.9509992 144.3029978  50.1520014  10.2549992 143.6169978  49.5570014
  10.6729992 144.4219978  50.7700014  10.0901240 144.2252314  50.1540959
  18.6139992 135.9049978  51.0120014  18.6639992 136.5149978  51.7480014
  19.0399992 136.3659978  50.2890014  18.6784108 136.0507709  51.0150112
  13.0919992 138.6969978  50.4790014  13.2349992 137.7509978  50.4990014
  12.9859992 138.9039978  49.5510014  13.0972403 138.5954797  50.3562239
   6.2469992 136.7989978  47.7520014   6.2899992 137.6589978  47.3330014
   5.7889992 136.2469978  47.1180014   6.1909871 136.8419245  47.6090761
  13.9689992 136.9299978  46.1530014  14.6159992 136.6009978  46.7770014
  14.4789992 137.4469978  45.5300014  14.1264351 136.9549067  46.1541037
   2.8669992 139.1959978  48.5140014   3.5209992 138.6459978  48.9460014
   2.8909992 138.9219978  47.5970014   2.9597199 139.0837167  48.4491668
   8.0239992 140.7459978  47.7290014   8.6399992 140.2189978  48.2380014
   7.4369992 140.1059978  47.3250014   8.0290154 140.5873954  47.7440945
  19.0059992 137.3829978  53.2480014  18.3169992 138.0409978  53.1530014
  19.0209992 137.1849978  54.1850014  18.9137756 137.4462603  53.3615812
   5.0569992 135.7169978  51.8260014   4.8379992 136.2469978  51.0590014
   4.3889992 135.9429978  52.4730014   4.9366975 135.8200967  51.8085140
  12.4259992 145.2169978  45.3700014  12.1309992 144.8939978  44.5180014
  12.1019992 146.1169978  45.4110014  12.3418460 145.2944464  45.2589714
   7.6259992 143.3919978  52.1130014   6.8859992 143.9909978  52.2170014
   8.3399992 143.9459978  51.7980014   7.6213500 143.5487829  52.0846371
  15.7329992 136.2209978  48.1330014  15.5179992 135.4549978  48.6660014
  16.3889992 136.6929978  48.6460014  15.7922673 136.1800728  48.2751990
   4.6509992 137.6089978  49.7780014   5.2649992 138.2419978  50.1510014
   5.1629992 137.1369978  49.1220014   4.8041962 137.6317249  49.7402935
   6.0339992 145.3569978  52.9000014   6.0279992 146.2359978  52.5220014
   5.1799992 145.2729978  53.3250014   5.9177925 145.4659535  52.9056887
   2.1549992 145.0279978  43.6820014   1.8829992 145.2569978  42.7940014
   2.1999992 145.8649978  44.1430014   2.1238097 145.1726163  43.6226683
  16.0799992 134.9359978  51.8120014  15.3439992 135.5459978  51.7750014
  16.7639992 135.3509978  51.2860014  16.0715367 135.0757551  51.7358174
   9.0839992 133.0219978  49.2780014   8.9659992 132.0739978  49.2240014
   8.2289992 133.3549978  49.5510014   8.9522805 132.9372202  49.3075079
  16.8779992 144.8979978  54.0060014  17.0169992 144.3059978  53.2670014
  17.0449992 145.7709978  53.6500014  16.9196193 144.9348896  53.8566211
  11.3499992 141.8599978  43.7790014  10.6389992 142.3949978  43.4270014
  12.0409992 141.9149978  43.1190014  11.3460751 141.9406777  43.6415858
  11.4039992 140.3169978  40.8170014  12.1049992 140.3399978  41.4690014
  11.7059992 139.6889978  40.1610014  11.5408202 140.2352212  40.8175609
  18.7189992 141.2379978  52.0720014  18.0669992 141.9319978  52.1610014
  19.1849992 141.4479978  51.2620014  18.6925937 141.3615019  51.9747533
  14.7559992 142.0689978  44.7300014  14.0239992 142.2979978  45.3040014
  15.2029992 141.3559978  45.1850014  14.7163963 142.0038729  44.8699945
  14.6529992 140.2439978  53.7980014  14.7329992 141.0069978  54.3700014
  14.0519992 140.5229978  53.1080014  14.5826547 140.3862457  53.7830047
   6.4009992 142.6999978  46.6130014   6.0709992 142.3289978  45.7950014
   6.9899992 142.0289978  46.9600014   6.4353970 142.5586063  46.5479404
   6.7679992 141.4679978  50.2460014   7.3329992 141.5899978  49.4840014
   7.0869992 142.1059978  50.8850014   6.8884166 141.5708791  50.2280348
  13.6269992 141.2319978  42.4160014  14.2059992 141.3819978  43.1620014
  14.0409992 141.7019978  41.6920014  13.7623358 141.3160954  42.4203953
   4.5679992 142.0659978  54.1920014   4.6379992 142.7169978  54.8910014
   3.6769992 142.1689978  53.8570014   4.4571690 142.1689249  54.2423043
  17.3259992 132.9819978  42.2290014  16.4259992 133.1209978  42.5240014
  17.5779992 133.8129978  41.8270014  17.2368683 133.1134055  42.2150232
   5.3919992 141.7689978  44.2020014   5.0999992 142.5369978  43.7110014
   4.7169992 141.1099978  44.0390014   5.2608497 141.7849745  44.1128260
   1.4849992 144.1319978  53.0170014   0.9829992 144.1039978  52.2020014
   1.4899992 143.2269978  53.3270014   1.4169832 144.0057486  52.9474121
  16.5849992 139.0719978  56.0640014  16.1769992 139.5519978  55.3430014
  16.6249992 138.1659978  55.7560014  16.5346221 139.0152449  55.9238267
   3.7339992 145.4559978  54.0600014   3.9499992 145.0939978  54.9200014
   2.8779992 145.0809978  53.8510014   3.6478810 145.3558837  54.1492680
   6.3519992 133.9259978  50.0560014   5.4909992 133.8389978  49.6480014
   6.3299992 134.7819978  50.4840014   6.2310491 134.0298003  50.0579582
  11.0149992 133.6479978  53.4310014  11.4349992 133.2329978  54.1840014
  10.0819992 133.4689978  53.5480014  10.9463736 133.5669910  53.5498968
  14.3419992 137.4029978  54.2840014  13.8279992 137.2779978  55.0820014
  14.1859992 138.3159978  54.0400014  14.2506967 137.5092123  54.3600937
  15.1039992 142.2639978  40.0450014  15.1459992 142.0419978  39.1150014
  15.9529992 142.6629978  40.2350014  15.2245253 142.2875498  39.9433822
  10.6769992 136.1399978  40.7160014  10.4229992 136.1589978  41.6380014
  10.4199992 135.2689978  40.4140014  10.6074508 136.0248280  40.8014803
   6.4429992 138.8909978  51.1510014   5.8019992 138.8509978  51.8600014
   6.4809992 139.8179978  50.9130014   6.3603010 139.0107668  51.2159946
   6.4399992 139.1119978  46.0630014   5.5479992 138.7719978  46.0040014
   6.8909992 138.7349978  45.3070014   6.3787642 139.0144910  45.9527726
  11.9759992 139.5279978  44.8800014  11.5669992 140.3429978  44.5880014
  12.6959992 139.3879978  44.2660014  12.0174439 139.6205372  44.7570115
  11.0779992 139.7039978  56.3680014  10.5149992 138.9989978  56.6890014
  11.9039992 139.5829978  56.8360014  11.1126674 139.5912165  56.4751751
  12.9809992 138.9739978  47.6940014  12.7849992 139.5799978  46.9790014
  13.1619992 138.1409978  47.2600014  12.9786584 138.9442513  47.5374212
   4.1929992 139.2119978  53.0180014   4.1549992 139.6119978  53.8870014
   3.7029992 138.3949978  53.1080014   4.1215330 139.1562674  53.1491289
   7.5589992 136.5859978  39.8170014   7.1279992 136.1409978  40.5460014
   6.8409992 136.9569978  39.3040014   7.4029176 136.5752051  39.8474930
   0.8019992 136.3279978  46.8690014   1.4319992 136.2989978  47.5880014
   1.2509992 135.9029978  46.1380014   0.9490835 136.2665660  46.8687659
   2.0759992 137.0739978  42.2930014   2.5499992 137.6649978  41.7080014
   1.3579992 137.6039978  42.6400014   2.0438640 137.2265511  42.2597969
  12.2449992 140.6119978  52.3650014  12.5679992 139.9809978  51.7220014
  11.8039992 140.0779978  53.0260014  12.2296379 140.4533468  52.3662582
   9.0219992 136.5399978  47.1490014   8.1109992 136.5969978  47.4380014
   9.5269992 136.4799978  47.9600014   8.9656873 136.5396826  47.2981207
   3.8499992 138.1689978  45.9760014   2.9609992 138.2679978  45.6360014
   4.1469992 137.3269978  45.6300014   3.7684177 138.0687687  45.8826940
   7.5029992 138.1689978  43.6330014   8.4349992 138.2979978  43.8110014
   7.2879992 138.8379978  42.9830014   7.6014472 138.2770806  43.5694891
  13.4269992 135.7749978  50.4140014  12.7499992 135.9059978  51.0770014
  12.9419992 135.6199978  49.6030014  13.2687405 135.7719947  50.3952170
   6.1769992 139.3629978  41.1990014   5.6349992 138.9839978  40.5080014
   7.0109992 139.5579978  40.7710014   6.2154390 139.3374079  41.0464392
   4.3129992 143.9199978  56.2980014   5.0449992 144.1749978  56.8600014
   3.5319992 144.1249978  56.8140014   4.3076526 143.9825450  56.4445176
  10.3419992 139.3269978  49.0360014  10.9059992 138.7809978  48.4890014
  10.1939992 138.8059978  49.8250014  10.3993037 139.1816787  49.0677229
   5.3439992 135.4639978  45.4550014   5.0269992 134.5609978  45.4190014
   6.1249992 135.4659978  44.9020014   5.4062431 135.3407797  45.3753102
   8.9679992 137.7159978  51.4500014   8.1329992 138.1699978  51.5610014
   9.4919992 137.9919978  52.2020014   8.9246072 137.8153948  51.5668136
   9.5129992 143.9289978  43.1350014   8.7679992 143.4209978  42.8130014
   9.3779992 143.9779978  44.0810014   9.3928963 143.8661731  43.2188826
  16.6629992 143.0619978  51.9220014  17.3039992 143.5179978  51.3780014
  15.8319992 143.1749978  51.4590014  16.6385287 143.1396921  51.7849887
  13.4099992 136.7429978  41.3340014  12.4719992 136.8539978  41.1830014
  13.7079992 137.5989978  41.6410014  13.3216318 136.8740158  41.3548145
  11.0319992 144.1129978  54.3720014  10.6859992 143.7309978  55.1790014
  10.8319992 145.0459978  54.4430014  10.9575987 144.1869002  54.4920461
  14.1289992 138.6099978  42.9950014  15.0209992 138.4719978  43.3140014
  14.1849992 139.4009978  42.4580014  14.2587325 138.6979918  42.9661217
   4.6369992 143.2239978  48.9050014   5.3819992 143.2209978  48.3030014
   4.7149992 142.3999978  49.3860014   4.7493365 143.1122384  48.8877430
  11.6379992 145.3869978  42.1600014  11.3429992 146.2139978  42.5420014
  10.9349992 144.7679978  42.3570014  11.5026379 145.4164171  42.2388654
   1.6449992 141.6839978  54.2200014   1.8679992 141.2659978  55.0510014
   1.0429992 141.0719978  53.7970014   1.5941513 141.5439606  54.2766740
   8.6619992 141.2009978  56.4330014   8.3659992 141.0359978  55.5370014
   9.5929992 140.9809978  56.4220014   8.7474401 141.1486879  56.3090206
  19.0139992 138.8189978  42.6900014  18.4589992 138.4229978  42.0170014
  19.1139992 139.7299978  42.4120014  18.9516816 138.8879505  42.5605033
  18.9769992 144.6199978  55.5270014  18.1259992 144.8579978  55.1590014
  19.5669992 144.6029978  54.7740014  18.9403812 144.6502524  55.3748453
  14.4689992 142.4129978  50.1760014  13.5409992 142.1819978  50.1490014
  14.9199992 141.6359978  49.8460014  14.4028165 142.2762774  50.1276790
   2.7669992 141.6039978  40.8960014   3.3829992 142.2309978  41.2760014
   1.9049992 141.9199978  41.1680014   2.7347678 141.7324412  40.9847209
   8.4399992 144.4049978  45.8850014   8.1989992 145.3299978  45.9270014
   7.6989992 143.9459978  46.2820014   8.3069206 144.4695915  45.9443769
  12.4979992 144.6529978  51.9010014  12.0729992 144.4249978  52.7270014
  13.0789992 143.9139978  51.7190014  12.5183395 144.5219545  51.9894414
   3.2789992 136.4379978  53.7780014   2.3869992 136.7759978  53.7100014
   3.1809992 135.5819978  54.1960014   3.1434475 136.3686543  53.8251704
  15.5669992 144.2539978  43.2020014  15.2899992 143.5259978  43.7580014
  16.4949992 144.3729978  43.4070014  15.6544499 144.1704213  43.3058044
   4.1819992 143.5159978  42.3890014   3.4959992 143.8689978  42.9560014
   4.7049992 144.2789978  42.1420014   4.1588402 143.6673901  42.4331801
  12.0139992 136.1789978  52.6680014  12.7129992 136.2529978  53.3180014
  11.6329992 135.3139978  52.8220014  12.0582097 136.0722389  52.7777997
  12.7979992 135.8309978  43.7650014  13.0179992 136.3019978  42.9610014
  13.3569992 136.2249978  44.4350014  12.9036731 135.9487287  43.7455033
   9.9979992 137.5589978  44.6000014  10.8099992 138.0629978  44.6460014
   9.7539992 137.4139978  45.5140014  10.0761467 137.6083749  44.7298575
  10.5339992 138.5449978  53.7840014  10.6529992 139.1189978  54.5410014
  11.1889992 137.8569978  53.8990014  10.6388684 138.5305194  53.9031674
  10.8819992 134.6399978  45.5380014  10.5349992 135.2569978  46.1820014
  11.5409992 135.1409978  45.0560014  10.9235090 134.7921575  45.5610681
   6.5399992 135.7029978  42.2250014   6.4559992 136.5909978  42.5720014
   7.4299992 135.4379978  42.4570014   6.6488163 135.7887179  42.3038596
  16.7379992 136.4519978  54.6190014  15.8219992 136.7139978  54.5320014
  17.0739992 136.4489978  53.7230014  16.6578499 136.4875163  54.4858766
  15.3409992 140.2019978  48.7150014  14.5429992 139.7869978  48.3870014
  15.7859992 139.5119978  49.2060014  15.2919684 140.0518628  48.7365227
   3.1139992 138.7949978  40.4010014   3.0689992 139.7339978  40.5800014
   2.2259992 138.5589978  40.1320014   2.9878166 138.8916687  40.3891524
   3.9219992 133.5759978  49.0750014   3.6929992 133.6349978  48.1470014
   3.4799992 132.7849978  49.3810014   3.8308801 133.4770540  48.9894729
   2.0479992 143.9399978  57.5190014   2.1919992 143.0379978  57.2330014
   1.2759992 144.2259978  57.0320014   1.9632733 143.8551798  57.4139532
   6.3889992 144.2829978  39.6520014   6.4539992 143.4889978  40.1820014
   7.0419992 144.1649978  38.9620014   6.4861605 144.1583430  39.6312997
   8.7029992 143.9089978  56.9520014   8.3749992 144.1799978  56.0950014
   8.8549992 142.9679978  56.8640014   8.6786412 143.8189046  56.8227822
  11.7419992 145.3299978  39.3880014  11.4729992 145.5109978  40.2880014
  11.5349992 144.4049978  39.2560014  11.6771191 145.2297119  39.4935524
  14.4379992 143.8249978  54.3350014  15.1829992 144.4139978  54.2160014
  13.6809992 144.4069978  54.3990014  14.4375470 143.9842128  54.3273799
   2.8809992 141.1399978  56.9390014   3.2889992 140.2829978  56.8180014
   2.6199992 141.1539978  57.8600014   2.9016016 141.0245119  57.0469192
   7.5389992 142.2559978  41.9580014   7.0789992 141.7719978  42.6430014
   7.7939992 141.5869978  41.3220014   7.5104856 142.0993669  41.9658397
   6.8279992 140.1489978  54.3140014   6.2089992 140.8229978  54.5940014
   7.1719992 140.4699978  53.4800014   6.7897123 140.2846887  54.2396388
   8.6099992 140.4989978  40.2200014   8.4289992 140.3439978  39.2930014
   9.5599992 140.6069978  40.2650014   8.7136566 140.4923669  40.0990929
  11.8469992 142.6199978  57.5910014  12.8009992 142.7039978  57.5640014
  11.6869992 141.9079978  58.2110014  11.9557182 142.5352842  57.6710733
  17.9999992 142.8529978  39.6660014  17.7259992 142.4289978  38.8530014
  18.0389992 143.7849978  39.4490014  17.9677716 142.9208827  39.5254286
   7.1669992 137.5039978  55.3960014   7.3169992 136.7749978  54.7940014
   7.1689992 138.2809978  54.8370014   7.1877967 137.5092708  55.2380541
   7.5799992 135.8729978  52.8890014   8.1149992 136.3249978  52.2370014
   6.7269992 135.7649978  52.4660014   7.5380374 135.9202665  52.7426710
   9.1609992 141.3129978  53.1280014   9.9119992 141.1569978  52.5550014
   8.8219992 142.1649978  52.8530014   9.2179587 141.4068138  53.0124078
  13.5769992 139.1279978  58.1570014  13.7689992 138.1969978  58.0450014
  14.4349992 139.5529978  58.1460014  13.7192182 139.0580070  58.1401862
  14.8939992 141.9169978  56.2340014  14.6119992 142.6259978  55.6560014
  15.8359992 141.8439978  56.0830014  14.9827921 142.0042193  56.1344225
   5.6459992 138.7019978  57.3070014   4.8779992 138.1689978  57.0970014
   6.3239992 138.3919978  56.7080014   5.6327235 138.5871754  57.1972413
   8.3849992 133.3299978  53.3200014   8.2869992 134.2759978  53.2150014
   7.6429992 132.9569978  52.8440014   8.2712534 133.4091773  53.2412600
   9.6489992 137.6509978  56.8840014   9.4139992 137.4319978  57.7850014
   8.8659992 137.4439978  56.3740014   9.5109095 137.5929892  56.9385353
  12.3649992 136.7789978  55.9590014  11.4169992 136.8109978  56.0910014
  12.6769992 136.1529978  56.6130014  12.2775293 136.6987923  56.0654148
  13.9989992 135.4129978  57.9640014  13.9019992 134.4609978  57.9590014
  13.6769992 135.6809978  58.8250014  13.9422468 135.3190884  58.0796210
   3.8259992 136.6219978  57.0120014   4.0379992 135.9159978  56.4020014
   3.7149992 136.1849978  57.8560014   3.8400269 136.4661921  57.0425873
   8.6069992 132.6239978  55.9910014   9.3189992 131.9839978  55.9770014
   8.5059992 132.8899978  55.0780014   8.6907387 132.5724330  55.8655563
   8.9609992 134.3059978  58.0450014   8.8289992 133.8309978  57.2250014
   8.3609992 135.0509978  57.9900014   8.8619070 134.3415789  57.9253251
  17.1569992 145.4659978  58.1270014  16.2909992 145.3609978  58.5210014
  17.5329992 146.2239978  58.5730014  17.0893401 145.5541708  58.2412620
  18.4579992 143.7219978  43.6410014  19.3079992 144.1429978  43.7680014
  18.4629992 142.9819978  44.2480014  18.5751143 143.6796094  43.7404750
  18.8519992 141.7759978  45.4640014  18.1259992 141.2959978  45.8620014
  19.4339992 141.9809978  46.1970014  18.8312730 141.7380184  45.6174149
  18.6109992 144.5609978  50.4120014  19.4449992 144.1829978  50.1310014
  18.7229992 145.5039978  50.2930014  18.7401917 144.6367943  50.3574861
  19.1209992 141.6769978  41.8550014  18.5989992 142.0329978  41.1370014
  19.0879992 142.3519978  42.5340014  19.0450129 141.8169598  41.8483355
  17.4699992 138.9159978  40.4060014  17.5659992 139.5829978  39.7260014
  17.3299992 138.1009978  39.9250014  17.4642040 138.8970671  40.2478378
  16.6389992 140.2969978  46.0270014  16.4889992 139.3519978  46.0070014
  16.2849992 140.5779978  46.8710014  16.5706351 140.2056644  46.1383220
   1.6739992 142.3749978  50.0380014   1.8589992 142.2929978  49.1020014
   2.5239992 142.2509978  50.4610014   1.8140928 142.3470463  49.9672893
  17.4949992 142.2669978  55.6660014  18.0779992 141.5319978  55.8580014
  18.0589992 143.0389978  55.7130014  17.6509781 142.2708145  55.6986164
  18.9919992 140.1699978  56.3510014  18.1289992 139.7909978  56.1850014
  19.5959992 139.4309978  56.2760014  18.9556085 140.0183223  56.3181695
  16.7169992 136.3239978  39.5240014  17.3279992 135.9529978  40.1610014
  15.8799992 135.9029978  39.7200014  16.6874947 136.2162756  39.6377252
  16.3499992 137.8789978  44.4900014  16.6289992 136.9719978  44.6140014
  17.1089992 138.3129978  44.1010014  16.4908619 137.8134502  44.4543795
  16.9609992 138.4609978  49.9260014  17.8939992 138.6729978  49.8910014
  16.7259992 138.5619978  50.8480014  17.0569517 138.5036833  50.0459130
  16.9909992 139.1979978  52.7020014  16.1479992 139.4659978  53.0680014
  17.4329992 140.0199978  52.4910014  16.9354138 139.3458273  52.7235518
   1.2719992 137.6449978  56.1780014   2.1909992 137.5229978  56.4150014
   0.8219992 136.8949978  56.5680014   1.3370087 137.5269608  56.2631410
  19.2739992 133.1779978  58.0550014  19.6229992 132.5239978  57.4500014
  19.4209992 134.0149978  57.6150014  19.3416824 133.2016024  57.9126304
  16.9629992 135.1419978  44.5380014  17.1449992 134.6929978  45.3630014
  16.3629992 134.5579978  44.0740014  16.9068187 135.0015552  44.5882739
   2.4929992 135.9579978  49.0700014   2.9379992 135.1659978  49.3720014
   2.9589992 136.6739978  49.5000014   2.6169718 135.9464534  49.1695265
   0.7969992 138.9569978  50.1390014   1.2889992 138.7359978  49.3480014
   1.1589992 139.7969978  50.4200014   0.9132923 139.0403468  50.0687407
  18.7929992 135.2869978  56.4040014  17.8759992 135.5579978  56.3690014
  18.9159992 134.7519978  55.6200014  18.6839672 135.2517885  56.2931862
  18.8299992 135.2099978  41.0660014  19.2419992 134.4889978  40.5910014
  19.5109992 135.8789978  41.1240014  18.9785536 135.2017766  41.0088024
   1.1109992 135.2149978  44.1930014   0.1859992 135.4229978  44.0640014
   1.5649992 135.6989978  43.5030014   1.0456298 135.3089299  44.0820451
   1.0739992 133.9529978  52.5370014   0.4089992 133.7069978  53.1800014
   0.6309992 134.5749978  51.9600014   0.9231168 134.0034214  52.5469848
  17.7939992 133.3769978  54.2230014  16.9809992 133.7019978  53.8360014
  18.0269992 132.6159978  53.6900014  17.7141347 133.3186880  54.0979841
  11.2239992 134.8259978  48.5460014  10.5499992 134.1959978  48.8020014
  11.7879992 134.3419978  47.9430014  11.2080384 134.6743708  48.4995020
  16.3669992 132.9329978  48.6590014  16.9699992 133.4809978  48.1570014
  15.4969992 133.2519978  48.4180014  16.3319157 133.0510373  48.5577910
  18.0939992 134.0719978  46.9920014  18.7049992 133.5579978  46.4650014
  18.4759992 134.9489978  47.0150014  18.2293305 134.1202050  46.9229418
   3.5509992 133.4599978  46.3680014   2.7739992 133.2249978  45.8610014
   4.0809992 132.6629978  46.3770014   3.5163451 133.3201268  46.2998627
   2.3869992 133.2579978  42.1720014   2.8259992 133.8689978  41.5800014
   1.7529992 133.7959978  42.6460014   2.3613859 133.4144064  42.1550305
   8.1299992 133.3859978  46.1810014   9.0039992 133.7749978  46.1520014
   7.9939992 133.1709978  47.1040014   8.2311953 133.4101643  46.3017617
  13.6869992 133.4159978  47.8310014  13.7629992 133.5119978  46.8810014
  13.4119992 132.5089978  47.9590014  13.6601871 133.3064146  47.7183944
  15.0399992 133.4419978  43.5230014  14.3369992 134.0569978  43.3130014
  14.5949992 132.6049978  43.6540014  14.8836550 133.4129668  43.5119837
   4.2479992 135.1739978  40.6140014   4.7389992 134.5439978  40.0870014
   4.8709992 135.4699978  41.2770014   4.3995304 135.1277376  40.6314940
   9.2739992 135.4669978  43.0710014   9.4519992 134.8199978  43.7540014
   9.2199992 136.3009978  43.5380014   9.2910678 135.4911604  43.2276301
   3.5079992 133.9739978  55.8860014   3.1419992 133.2079978  56.3280014
   4.4209992 134.0029978  56.1720014   3.5813172 133.8730324  55.9851890
   5.4809992 133.3239978  57.4210014   6.3799992 133.0499978  57.2370014
   5.0949992 132.5819978  57.8860014   5.5517307 133.1862196  57.4587098
  13.9029992 132.6569978  57.6040014  13.9789992 132.2309978  58.4570014
  14.7959992 132.6699978  57.2610014  14.0342303 132.6003493  57.6745497
  31.4849992 142.6159978  46.3270014  31.5739992 143.5599978  46.1950014
  30.8469992 142.3409978  45.6690014  31.4109062 142.7079812  46.2199641
  30.4179992 141.8709978  49.7460014  30.3799992 141.2249978  50.4510014
  30.0959992 141.4039978  48.9750014  30.3692679 141.7194276  49.7382921
  22.7859992 141.4849978  51.3390014  22.8279992 140.8599978  52.0620014
  23.4889992 142.1089978  51.5210014  22.8867345 141.4837873  51.4625274
  34.1239992 144.8099978  48.0470014  33.6829992 144.0899978  48.4980014
  34.1109992 145.5309978  48.6770014  34.0619215 144.8089291  48.1938105
  20.3199992 139.5949978  45.2660014  19.8719992 140.4409978  45.2480014
  19.7589992 139.0159978  44.7510014  20.1828546 139.6323993  45.1938891
  21.0299992 141.7569978  47.3920014  21.2439992 140.9869978  47.9200014
  21.7679992 141.8469978  46.7890014  21.1590200 141.6638587  47.3827035
  28.8069992 144.3029978  50.1520014  29.1109992 143.6169978  49.5570014
  29.5289992 144.4219978  50.7700014  28.9461240 144.2252314  50.1540959
  37.4699992 135.9049978  51.0120014  37.5199992 136.5149978  51.7480014
  37.8959992 136.3659978  50.2890014  37.5344108 136.0507709  51.0150112
  31.9479992 138.6969978  50.4790014  32.0909992 137.7509978  50.4990014
  31.8419992 138.9039978  49.5510014  31.9532403 138.5954797  50.3562239
  25.1029992 136.7989978  47.7520014  25.1459992 137.6589978  47.3330014
  24.6449992 136.2469978  47.1180014  25.0469871 136.8419245  47.6090761
  32.8249992 136.9299978  46.1530014  33.4719992 136.6009978  46.7770014
  33.3349992 137.4469978  45.5300014  32.9824351 136.9549067  46.1541037
  21.7229992 139.1959978  48.5140014  22.3769992 138.6459978  48.9460014
  21.7469992 138.9219978  47.5970014  21.8157199 139.0837167  48.4491668
  26.8799992 140.7459978  47.7290014  27.4959992 140.2189978  48.2380014
  26.2929992 140.1059978  47.3250014  26.8850154 140.5873954  47.7440945
  37.8619992 137.3829978  53.2480014  37.1729992 138.0409978  53.1530014
  37.8769992 137.1849978  54.1850014  37.7697756 137.4462603  53.3615812
  23.9129992 135.7169978  51.8260014  23.6939992 136.2469978  51.0590014
  23.2449992 135.9429978  52.4730014  23.7926975 135.8200967  51.8085140
  31.2819992 145.2169978  45.3700014  30.9869992 144.8939978  44.5180014
  30.9579992 146.1169978  45.4110014  31.1978460 145.2944464  45.2589714
  26.4819992 143.3919978  52.1130014  25.7419992 143.9909978  52.2170014
  27.1959992 143.9459978  51.7980014  26.4773500 143.5487829  52.0846371
  34.5889992 136.2209978  48.1330014  34.3739992 135.4549978  48.6660014
  35.2449992 136.6929978  48.6460014  34.6482673 136.1800728  48.2751990
  23.5069992 137.6089978  49.7780014  24.1209992 138.2419978  50.1510014
  24.0189992 137.1369978  49.1220014  23.6601962 137.6317249  49.7402935
  24.8899992 145.3569978  52.9000014  24.8839992 146.2359978  52.5220014
  24.0359992 145.2729978  53.3250014  24.7737925 145.4659535  52.9056887
  21.0109992 145.0279978  43.6820014  20.7389992 145.2569978  42.7940014
  21.0559992 145.8649978  44.1430014  20.9798097 145.1726163  43.6226683
  34.9359992 134.9359978  51.8120014  34.1999992 135.5459978  51.7750014
  35.6199992 135.3509978  51.2860014  34.9275367 135.0757551  51.7358174
  27.9399992 133.0219978  49.2780014  27.8219992 132.0739978  49.2240014
  27.0849992 133.3549978  49.5510014  27.8082805 132.9372202  49.3075079
  35.7339992 144.8979978  54.0060014  35.8729992 144.3059978  53.2670014
  35.9009992 145.7709978  53.6500014  35.7756193 144.9348896  53.8566211
  30.2059992 141.8599978  43.7790014  29.4949992 142.3949978  43.4270014
  30.8969992 141.9149978  43.1190014  30.2020751 141.9406777  43.6415858
  30.2599992 140.3169978  40.8170014  30.9609992 140.3399978  41.4690014
  30.5619992 139.6889978  40.1610014  30.3968202 140.2352212  40.8175609
  37.5749992 141.2379978  52.0720014  36.9229992 141.9319978  52.1610014
  38.0409992 141.4479978  51.2620014  37.5485937 141.3615019  51.9747533
  33.6119992 142.0689978  44.7300014  32.8799992 142.2979978  45.3040014
  34.0589992 141.3559978  45.1850014  33.5723963 142.0038729  44.8699945
  33.5089992 140.2439978  53.7980014  33.5889992 141.0069978  54.3700014
  32.9079992 140.5229978  53.1080014  33.4386547 140.3862457  53.7830047
  25.2569992 142.6999978  46.6130014  24.9269992 142.3289978  45.7950014
  25.8459992 142.0289978  46.9600014  25.2913970 142.5586063  46.5479404
  25.6239992 141.4679978  50.2460014  26.1889992 141.5899978  49.4840014
  25.9429992 142.1059978  50.8850014  25.7444166 141.5708791  50.2280348
  32.4829992 141.2319978  42.4160014  33.0619992 141.3819978  43.1620014
  32.8969992 141.7019978  41.6920014  32.6183358 141.3160954  42.4203953
  23.4239992 142.0659978  54.1920014  23.4939992 142.7169978  54.8910014
  22.5329992 142.1689978  53.8570014  23.3131690 142.1689249  54.2423043
  36.1819992 132.9819978  42.2290014  35.2819992 133.1209978  42.5240014
  36.4339992 133.8129978  41.8270014  36.0928683 133.1134055  42.2150232
  24.2479992 141.7689978  44.2020014  23.9559992 142.5369978  43.7110014
  23.5729992 141.1099978  44.0390014  24.1168497 141.7849745  44.1128260
  20.3409992 144.1319978  53.0170014  19.8389992 144.1039978  52.2020014
  20.3459992 143.2269978  53.3270014  20.2729832 144.0057486  52.9474121
  35.4409992 139.0719978  56.0640014  35.0329992 139.5519978  55.3430014
  35.4809992 138.1659978  55.7560014  35.3906221 139.0152449  55.9238267
  22.5899992 145.4559978  54.0600014  22.8059992 145.0939978  54.9200014
  21.7339992 145.0809978  53.8510014  22.5038810 145.3558837  54.1492680
  25.2079992 133.9259978  50.0560014  24.3469992 133.8389978  49.6480014
  25.1859992 134.7819978  50.4840014  25.0870491 134.0298003  50.0579582
  29.8709992 133.6479978  53.4310014  30.2909992 133.2329978  54.1840014
  28.9379992 133.4689978  53.5480014  29.8023736 133.5669910  53.5498968
  33.1979992 137.4029978  54.2840014  32.6839992 137.2779978  55.0820014
  33.0419992 138.3159978  54.0400014  33.1066967 137.5092123  54.3600937
  33.9599992 142.2639978  40.0450014  34.0019992 142.0419978  39.1150014
  34.8089992 142.6629978  40.2350014  34.0805253 142.2875498  39.9433822
  29.5329992 136.1399978  40.7160014  29.2789992 136.1589978  41.6380014
  29.2759992 135.2689978  40.4140014  29.4634508 136.0248280  40.8014803
  25.2989992 138.8909978  51.1510014  24.6579992 138.8509978  51.8600014
  25.3369992 139.8179978  50.9130014  25.2163010 139.0107668  51.2159946
  25.2959992 139.1119978  46.0630014  24.4039992 138.7719978  46.0040014
  25.7469992 138.7349978  45.3070014  25.2347642 139.0144910  45.9527726
  30.8319992 139.5279978  44.8800014  30.4229992 140.3429978  44.5880014
  31.5519992 139.3879978  44.2660014  30.8734439 139.6205372  44.7570115
  29.9339992 139.7039978  56.3680014  29.3709992 138.9989978  56.6890014
  30.7599992 139.5829978  56.8360014  29.9686674 139.5912165  56.4751751
  31.8369992 138.9739978  47.6940014  31.6409992 139.5799978  46.9790014
  32.0179992 138.1409978  47.2600014  31.8346584 138.9442513  47.5374212
  23.0489992 139.2119978  53.0180014  23.0109992 139.6119978  53.8870014
  22.5589992 138.3949978  53.1080014  22.9775330 139.1562674  53.1491289
  26.4149992 136.5859978  39.8170014  25.9839992 136.1409978  40.5460014
  25.6969992 136.9569978  39.3040014  26.2589176 136.5752051  39.8474930
  19.6579992 136.3279978  46.8690014  20.2879992 136.2989978  47.5880014
  20.1069992 135.9029978  46.1380014  19.8050835 136.2665660  46.8687659
  20.9319992 137.0739978  42.2930014  21.4059992 137.6649978  41.7080014
  20.2139992 137.6039978  42.6400014  20.8998640 137.2265511  42.2597969
  31.1009992 140.6119978  52.3650014  31.4239992 139.9809978  51.7220014
  30.6599992 140.0779978  53.0260014  31.0856379 140.4533468  52.3662582
  27.8779992 136.5399978  47.1490014  26.9669992 136.5969978  47.4380014
  28.3829992 136.4799978  47.9600014  27.8216873 136.5396826  47.2981207
  22.7059992 138.1689978  45.9760014  21.8169992 138.2679978  45.6360014
  23.0029992 137.3269978  45.6300014  22.6244177 138.0687687  45.8826940
  26.3589992 138.1689978  43.6330014  27.2909992 138.2979978  43.8110014
  26.1439992 138.8379978  42.9830014  26.4574472 138.2770806  43.5694891
  32.2829992 135.7749978  50.4140014  31.6059992 135.9059978  51.0770014
  31.7979992 135.6199978  49.6030014  32.1247405 135.7719947  50.3952170
  25.0329992 139.3629978  41.1990014  24.4909992 138.9839978  40.5080014
  25.8669992 139.5579978  40.7710014  25.0714390 139.3374079  41.0464392
  23.1689992 143.9199978  56.2980014  23.9009992 144.1749978  56.8600014
  22.3879992 144.1249978  56.8140014  23.1636526 143.9825450  56.4445176
  29.1979992 139.3269978  49.0360014  29.7619992 138.7809978  48.4890014
  29.0499992 138.8059978  49.8250014  29.2553037 139.1816787  49.0677229
  24.1999992 135.4639978  45.4550014  23.8829992 134.5609978  45.4190014
  24.9809992 135.4659978  44.9020014  24.2622431 135.3407797  45.3753102
  27.8239992 137.7159978  51.4500014  26.9889992 138.1699978  51.5610014
  28.3479992 137.9919978  52.2020014  27.7806072 137.8153948  51.5668136
  28.3689992 143.9289978  43.1350014  27.6239992 143.4209978  42.8130014
  28.2339992 143.9779978  44.0810014  28.2488963 143.8661731  43.2188826
  35.5189992 143.0619978  51.9220014  36.1599992 143.5179978  51.3780014
  34.6879992 143.1749978  51.4590014  35.4945287 143.1396921  51.7849887
  32.2659992 136.7429978  41.3340014  31.3279992 136.8539978  41.1830014
  32.5639992 137.5989978  41.6410014  32.1776318 136.8740158  41.3548145
  29.8879992 144.1129978  54.3720014  29.5419992 143.7309978  55.1790014
  29.6879992 145.0459978  54.4430014  29.8135987 144.1869002  54.4920461
  32.9849992 138.6099978  42.9950014  33.8769992 138.4719978  43.3140014
  33.0409992 139.4009978  42.4580014  33.1147325 138.6979918  42.9661217
  23.4929992 143.2239978  48.9050014  24.2379992 143.2209978  48.3030014
  23.5709992 142.3999978  49.3860014  23.6053365 143.1122384  48.8877430
  30.4939992 145.3869978  42.1600014  30.1989992 146.2139978  42.5420014
  29.7909992 144.7679978  42.3570014  30.3586379 145.4164171  42.2388654
  20.5009992 141.6839978  54.2200014  20.7239992 141.2659978  55.0510014
  19.8989992 141.0719978  53.7970014  20.4501513 141.5439606  54.2766740
  27.5179992 141.2009978  56.4330014  27.2219992 141.0359978  55.5370014
  28.4489992 140.9809978  56.4220014  27.6034401 141.1486879  56.3090206
  37.8699992 138.8189978  42.6900014  37.3149992 138.4229978  42.0170014
  37.9699992 139.7299978  42.4120014  37.8076816 138.8879505  42.5605033
  37.8329992 144.6199978  55.5270014  36.9819992 144.8579978  55.1590014
  38.4229992 144.6029978  54.7740014  37.7963812 144.6502524  55.3748453
  33.3249992 142.4129978  50.1760014  32.3969992 142.1819978  50.1490014
  33.7759992 141.6359978  49.8460014  33.2588165 142.2762774  50.1276790
  21.6229992 141.6039978  40.8960014  22.2389992 142.2309978  41.2760014
  20.7609992 141.9199978  41.1680014  21.5907678 141.7324412  40.9847209
  27.2959992 144.4049978  45.8850014  27.0549992 145.3299978  45.9270014
  26.5549992 143.9459978  46.2820014  27.1629206 144.4695915  45.9443769
  31.3539992 144.6529978  51.9010014  30.9289992 144.4249978  52.7270014
  31.9349992 143.9139978  51.7190014  31.3743395 144.5219545  51.9894414
  22.1349992 136.4379978  53.7780014  21.2429992 136.7759978  53.7100014
  22.0369992 135.5819978  54.1960014  21.9994475 136.3686543  53.8251704
  34.4229992 144.2539978  43.2020014  34.1459992 143.5259978  43.7580014
  35.3509992 144.3729978  43.4070014  34.5104499 144.1704213  43.3058044
  23.0379992 143.5159978  42.3890014  22.3519992 143.8689978  42.9560014
  23.5609992 144.2789978  42.1420014  23.0148402 143.6673901  42.4331801
  30.8699992 136.1789978  52.6680014  31.5689992 136.2529978  53.3180014
  30.4889992 135.3139978  52.8220014  30.9142097 136.0722389  52.7777997
  31.6539992 135.8309978  43.7650014  31.8739992 136.3019978  42.9610014
  32.2129992 136.2249978  44.4350014  31.7596731 135.9487287  43.7455033
  28.8539992 137.5589978  44.6000014  29.6659992 138.0629978  44.6460014
  28.6099992 137.4139978  45.5140014  28.9321467 137.6083749  44.7298575
  29.3899992 138.5449978  53.7840014  29.5089992 139.1189978  54.5410014
  30.0449992 137.8569978  53.8990014  29.4948684 138.5305194  53.9031674
  29.7379992 134.6399978  45.5380014  29.3909992 135.2569978  46.1820014
  30.3969992 135.1409978  45.0560014  29.7795090 134.7921575  45.5610681
  25.3959992 135.7029978  42.2250014  25.3119992 136.5909978  42.5720014
  26.2859992 135.4379978  42.4570014  25.5048163 135.7887179  42.3038596
  35.5939992 136.4519978  54.6190014  34.6779992 136.7139978  54.5320014
  35.9299992 136.4489978  53.7230014  35.5138499 136.4875163  54.4858766
  34.1969992 140.2019978  48.7150014  33.3989992 139.7869978  48.3870014
  34.6419992 139.5119978  49.2060014  34.1479684 140.0518628  48.7365227
  21.9699992 138.7949978  40.4010014  21.9249992 139.7339978  40.5800014
  21.0819992 138.5589978  40.1320014  21.8438166 138.8916687  40.3891524
  22.7779992 133.5759978  49.0750014  22.5489992 133.6349978  48.1470014
  22.3359992 132.7849978  49.3810014  22.6868801 133.4770540  48.9894729
  20.9039992 143.9399978  57.5190014  21.0479992 143.0379978  57.2330014
  20.1319992 144.2259978  57.0320014  20.8192733 143.8551798  57.4139532
  25.2449992 144.2829978  39.6520014  25.3099992 143.4889978  40.1820014
  25.8979992 144.1649978  38.9620014  25.3421605 144.1583430  39.6312997
  27.5589992 143.9089978  56.9520014  27.2309992 144.1799978  56.0950014
  27.7109992 142.9679978  56.8640014  27.5346412 143.8189046  56.8227822
  30.5979992 145.3299978  39.3880014  30.3289992 145.5109978  40.2880014
  30.3909992 144.4049978  39.2560014  30.5331191 145.2297119  39.4935524
  33.2939992 143.8249978  54.3350014  34.0389992 144.4139978  54.2160014
  32.5369992 144.4069978  54.3990014  33.2935470 143.9842128  54.3273799
  21.7369992 141.1399978  56.9390014  22.1449992 140.2829978  56.8180014
  21.4759992 141.1539978  57.8600014  21.7576016 141.0245119  57.0469192
  26.3949992 142.2559978  41.9580014  25.9349992 141.7719978  42.6430014
  26.6499992 141.5869978  41.3220014  26.3664856 142.0993669  41.9658397
  25.6839992 140.1489978  54.3140014  25.0649992 140.8229978  54.5940014
  26.0279992 140.4699978  53.4800014  25.6457123 140.2846887  54.2396388
  27.4659992 140.4989978  40.2200014  27.2849992 140.3439978  39.2930014
  28.4159992 140.6069978  40.2650014  27.5696566 140.4923669  40.0990929
  30.7029992 142.6199978  57.5910014  31.6569992 142.7039978  57.5640014
  30.5429992 141.9079978  58.2110014  30.8117182 142.5352842  57.6710733
  36.8559992 142.8529978  39.6660014  36.5819992 142.4289978  38.8530014
  36.8949992 143.7849978  39.4490014  36.8237716 142.9208827  39.5254286
  26.0229992 137.5039978  55.3960014  26.1729992 136.7749978  54.7940014
  26.0249992 138.2809978  54.8370014  26.0437967 137.5092708  55.2380541
  26.4359992 135.8729978  52.8890014  26.9709992 136.3249978  52.2370014
  25.5829992 135.7649978  52.4660014  26.3940374 135.9202665  52.7426710
  28.0169992 141.3129978  53.1280014  28.7679992 141.1569978  52.5550014
  27.6779992 142.1649978  52.8530014  28.0739587 141.4068138  53.0124078
  32.4329992 139.1279978  58.1570014  32.6249992 138.1969978  58.0450014
  33.2909992 139.5529978  58.1460014  32.5752182 139.0580070  58.1401862
  33.7499992 141.9169978  56.2340014  33.4679992 142.6259978  55.6560014
  34.6919992 141.8439978  56.0830014  33.8387921 142.0042193  56.1344225
  24.5019992 138.7019978  57.3070014  23.7339992 138.1689978  57.0970014
  25.1799992 138.3919978  56.7080014  24.4887235 138.5871754  57.1972413
  27.2409992 133.3299978  53.3200014  27.1429992 134.2759978  53.2150014
  26.4989992 132.9569978  52.8440014  27.1272534 133.4091773  53.2412600
  28.5049992 137.6509978  56.8840014  28.2699992 137.4319978  57.7850014
  27.7219992 137.4439978  56.3740014  28.3669095 137.5929892  56.9385353
  31.2209992 136.7789978  55.9590014  30.2729992 136.8109978  56.0910014
  31.5329992 136.1529978  56.6130014  31.1335293 136.6987923  56.0654148
  32.8549992 135.4129978  57.9640014  32.7579992 134.4609978  57.9590014
  32.5329992 135.6809978  58.8250014  32.7982468 135.3190884  58.0796210
  22.6819992 136.6219978  57.0120014  22.8939992 135.9159978  56.4020014
  22.5709992 136.1849978  57.8560014  22.6960269 136.4661921  57.0425873
  27.4629992 132.6239978  55.9910014  28.1749992 131.9839978  55.9770014
  27.3619992 132.8899978  55.0780014  27.5467387 132.5724330  55.8655563
  27.8169992 134.3059978  58.0450014  27.6849992 133.8309978  57.2250014
  27.2169992 135.0509978  57.9900014  27.7179070 134.3415789  57.9253251
  36.0129992 145.4659978  58.1270014  35.1469992 145.3609978  58.5210014
  36.3889992 146.2239978  58.5730014  35.9453401 145.5541708  58.2412620
  37.3139992 143.7219978  43.6410014  38.1639992 144.1429978  43.7680014
  37.3189992 142.9819978  44.2480014  37.4311143 143.6796094  43.7404750
  37.7079992 141.7759978  45.4640014  36.9819992 141.2959978  45.8620014
  38.2899992 141.9809978  46.1970014  37.6872730 141.7380184  45.6174149
  37.4669992 144.5609978  50.4120014  38.3009992 144.1829978  50.1310014
  37.5789992 145.5039978  50.2930014  37.5961917 144.6367943  50.3574861
  37.9769992 141.6769978  41.8550014  37.4549992 142.0329978  41.1370014
  37.9439992 142.3519978  42.5340014  37.9010129 141.8169598  41.8483355
  36.3259992 138.9159978  40.4060014  36.4219992 139.5829978  39.7260014
  36.1859992 138.1009978  39.9250014  36.3202040 138.8970671  40.2478378
  35.4949992 140.2969978  46.0270014  35.3449992 139.3519978  46.0070014
  35.1409992 140.5779978  46.8710014  35.4266351 140.2056644  46.1383220
  20.5299992 142.3749978  50.0380014  20.7149992 142.2929978  49.1020014
  21.3799992 142.2509978  50.4610014  20.6700928 142.3470463  49.9672893
  36.3509992 142.2669978  55.6660014  36.9339992 141.5319978  55.8580014
  36.9149992 143.0389978  55.7130014  36.5069781 142.2708145  55.6986164
  37.8479992 140.1699978  56.3510014  36.9849992 139.7909978  56.1850014
  38.4519992 139.4309978  56.2760014  37.8116085 140.0183223  56.3181695
  35.5729992 136.3239978  39.5240014  36.1839992 135.9529978  40.1610014
  34.7359992 135.9029978  39.7200014  35.5434947 136.2162756  39.6377252
  35.2059992 137.8789978  44.4900014  35.4849992 136.9719978  44.6140014
  35.9649992 138.3129978  44.1010014  35.3468619 137.8134502  44.4543795
  35.8169992 138.4609978  49.9260014  36.7499992 138.6729978  49.8910014
  35.5819992 138.5619978  50.8480014  35.9129517 138.5036833  50.0459130
  35.8469992 139.1979978  52.7020014  35.0039992 139.4659978  53.0680014
  36.2889992 140.0199978  52.4910014  35.7914138 139.3458273  52.7235518
  20.1279992 137.6449978  56.1780014  21.0469992 137.5229978  56.4150014
  19.6779992 136.8949978  56.5680014  20.1930087 137.5269608  56.2631410
  38.1299992 133.1779978  58.0550014  38.4789992 132.5239978  57.4500014
  38.2769992 134.0149978  57.6150014  38.1976824 133.2016024  57.9126304
  35.8189992 135.1419978  44.5380014  36.0009992 134.6929978  45.3630014
  35.2189992 134.5579978  44.0740014  35.7628187 135.0015552  44.5882739
  21.3489992 135.9579978  49.0700014  21.7939992 135.1659978  49.3720014
  21.8149992 136.6739978  49.5000014  21.4729718 135.9464534  49.1695265
  19.6529992 138.9569978  50.1390014  20.1449992 138.7359978  49.3480014
  20.0149992 139.7969978  50.4200014  19.7692923 139.0403468  50.0687407
  37.6489992 135.2869978  56.4040014  36.7319992 135.5579978  56.3690014
  37.7719992 134.7519978  55.6200014  37.5399672 135.2517885  56.2931862
  37.6859992 135.2099978  41.0660014  38.0979992 134.4889978  40.5910014
  38.3669992 135.8789978  41.1240014  37.8345536 135.2017766  41.0088024
  19.9669992 135.2149978  44.1930014  19.0419992 135.4229978  44.0640014
  20.4209992 135.6989978  43.5030014  19.9016298 135.3089299  44.0820451
  19.9299992 133.9529978  52.5370014  19.2649992 133.7069978  53.1800014
  19.4869992 134.5749978  51.9600014  19.7791168 134.0034214  52.5469848
  36.6499992 133.3769978  54.2230014  35.8369992 133.7019978  53.8360014
  36.8829992 132.6159978  53.6900014  36.5701347 133.3186880  54.0979841
  30.0799992 134.8259978  48.5460014  29.4059992 134.1959978  48.8020014
  30.6439992 134.3419978  47.9430014  30.0640384 134.6743708  48.4995020
  35.2229992 132.9329978  48.6590014  35.8259992 133.4809978  48.1570014
  34.3529992 133.2519978  48.4180014  35.1879157 133.0510373  48.5577910
  36.9499992 134.0719978  46.9920014  37.5609992 133.5579978  46.4650014
  37.3319992 134.9489978  47.0150014  37.0853305 134.1202050  46.9229418
  22.4069992 133.4599978  46.3680014  21.6299992 133.2249978  45.8610014
  22.9369992 132.6629978  46.3770014  22.3723451 133.3201268  46.2998627
  21.2429992 133.2579978  42.1720014  21.6819992 133.8689978  41.5800014
  20.6089992 133.7959978  42.6460014  21.2173859 133.4144064  42.1550305
  26.9859992 133.3859978  46.1810014  27.8599992 133.7749978  46.1520014
  26.8499992 133.1709978  47.1040014  27.0871953 133.4101643  46.3017617
  32.5429992 133.4159978  47.8310014  32.6189992 133.5119978  46.8810014
  32.2679992 132.5089978  47.9590014  32.5161871 133.3064146  47.7183944
  33.8959992 133.4419978  43.5230014  33.1929992 134.0569978  43.3130014
  33.4509992 132.6049978  43.6540014  33.7396550 133.4129668  43.5119837
  23.1039992 135.1739978  40.6140014  23.5949992 134.5439978  40.0870014
  23.7269992 135.4699978  41.2770014  23.2555304 135.1277376  40.6314940
  28.1299992 135.4669978  43.0710014  28.3079992 134.8199978  43.7540014
  28.0759992 136.3009978  43.5380014  28.1470678 135.4911604  43.2276301
  22.3639992 133.9739978  55.8860014  21.9979992 133.2079978  56.3280014
  23.2769992 134.0029978  56.1720014  22.4373172 133.8730324  55.9851890
  24.3369992 133.3239978  57.4210014  25.2359992 133.0499978  57.2370014
  23.9509992 132.5819978  57.8860014  24.4077307 133.1862196  57.4587098
  32.7589992 132.6569978  57.6040014  32.8349992 132.2309978  58.4570014
  33.6519992 132.6699978  57.2610014  32.8902303 132.6003493  57.6745497
  50.3409992 142.6159978  46.3270014  50.4299992 143.5599978  46.1950014
  49.7029992 142.3409978  45.6690014  50.2669062 142.7079812  46.2199641
  49.2739992 141.8709978  49.7460014  49.2359992 141.2249978  50.4510014
  48.9519992 141.4039978  48.9750014  49.2252679 141.7194276  49.7382921
  41.6419992 141.4849978  51.3390014  41.6839992 140.8599978  52.0620014
  42.3449992 142.1089978  51.5210014  41.7427345 141.4837873  51.4625274
  52.9799992 144.8099978  48.0470014  52.5389992 144.0899978  48.4980014
  52.9669992 145.5309978  48.6770014  52.9179215 144.8089291  48.1938105
  39.1759992 139.5949978  45.2660014  38.7279992 140.4409978  45.2480014
  38.6149992 139.0159978  44.7510014  39.0388546 139.6323993  45.1938891
  39.8859992 141.7569978  47.3920014  40.0999992 140.9869978  47.9200014
  40.6239992 141.8469978  46.7890014  40.0150200 141.6638587  47.3827035
  47.6629992 144.3029978  50.1520014  47.9669992 143.6169978  49.5570014
  48.3849992 144.4219978  50.7700014  47.8021240 144.2252314  50.1540959
  56.3259992 135.9049978  51.0120014  56.3759992 136.5149978  51.7480014
  56.7519992 136.3659978  50.2890014  56.3904108 136.0507709  51.0150112
  50.8039992 138.6969978  50.4790014  50.9469992 137.7509978  50.4990014
  50.6979992 138.9039978  49.5510014  50.8092403 138.5954797  50.3562239
  43.9589992 136.7989978  47.7520014  44.0019992 137.6589978  47.3330014
  43.5009992 136.2469978  47.1180014  43.9029871 136.8419245  47.6090761
  51.6809992 136.9299978  46.1530014  52.3279992 136.6009978  46.7770014
  52.1909992 137.4469978  45.5300014  51.8384351 136.9549067  46.1541037
  40.5789992 139.1959978  48.5140014  41.2329992 138.6459978  48.9460014
  40.6029992 138.9219978  47.5970014  40.6717199 139.0837167  48.4491668
  45.7359992 140.7459978  47.7290014  46.3519992 140.2189978  48.2380014
  45.1489992 140.1059978  47.3250014  45.7410154 140.5873954  47.7440945
  56.7179992 137.3829978  53.2480014  56.0289992 138.0409978  53.1530014
  56.7329992 137.1849978  54.1850014  56.6257756 137.4462603  53.3615812
  42.7689992 135.7169978  51.8260014  42.5499992 136.2469978  51.0590014
  42.1009992 135.9429978  52.4730014  42.6486975 135.8200967  51.8085140
  50.1379992 145.2169978  45.3700014  49.8429992 144.8939978  44.5180014
  49.8139992 146.1169978  45.4110014  50.0538460 145.2944464  45.2589714
  45.3379992 143.3919978  52.1130014  44.5979992 143.9909978  52.2170014
  46.0519992 143.9459978  51.7980014  45.3333500 143.5487829  52.0846371
  53.4449992 136.2209978  48.1330014  53.2299992 135.4549978  48.6660014
  54.1009992 136.6929978  48.6460014  53.5042673 136.1800728  48.2751990
  42.3629992 137.6089978  49.7780014  42.9769992 138.2419978  50.1510014
  42.8749992 137.1369978  49.1220014  42.5161962 137.6317249  49.7402935
  43.7459992 145.3569978  52.9000014  43.7399992 146.2359978  52.5220014
  42.8919992 145.2729978  53.3250014  43.6297925 145.4659535  52.9056887
  39.8669992 145.0279978  43.6820014  39.5949992 145.2569978  42.7940014
  39.9119992 145.8649978  44.1430014  39.8358097 145.1726163  43.6226683
  53.7919992 134.9359978  51.8120014  53.0559992 135.5459978  51.7750014
  54.4759992 135.3509978  51.2860014  53.7835367 135.0757551  51.7358174
  46.7959992 133.0219978  49.2780014  46.6779992 132.0739978  49.2240014
  45.9409992 133.3549978  49.5510014  46.6642805 132.9372202  49.3075079
  54.5899992 144.8979978  54.0060014  54.7289992 144.3059978  53.2670014
  54.7569992 145.7709978  53.6500014  54.6316193 144.9348896  53.8566211
  49.0619992 141.8599978  43.7790014  48.3509992 142.3949978  43.4270014
  49.7529992 141.9149978  43.1190014  49.0580751 141.9406777  43.6415858
  49.1159992 140.3169978  40.8170014  49.8169992 140.3399978  41.4690014
  49.4179992 139.6889978  40.1610014  49.2528202 140.2352212  40.8175609
  56.4309992 141.2379978  52.0720014  55.7789992 141.9319978  52.1610014
  56.8969992 141.4479978  51.2620014  56.4045937 141.3615019  51.9747533
  52.4679992 142.0689978  44.7300014  51.7359992 142.2979978  45.3040014
  52.9149992 141.3559978  45.1850014  52.4283963 142.0038729  44.8699945
  52.3649992 140.2439978  53.7980014  52.4449992 141.0069978  54.3700014
  51.7639992 140.5229978  53.1080014  52.2946547 140.3862457  53.7830047
  44.1129992 142.6999978  46.6130014  43.7829992 142.3289978  45.7950014
  44.7019992 142.0289978  46.9600014  44.1473970 142.5586063  46.5479404
  44.4799992 141.4679978  50.2460014  45.0449992 141.5899978  49.4840014
  44.7989992 142.1059978  50.8850014  44.6004166 141.5708791  50.2280348
  51.3389992 141.2319978  42.4160014  51.9179992 141.3819978  43.1620014
  51.7529992 141.7019978  41.6920014  51.4743358 141.3160954  42.4203953
  42.2799992 142.0659978  54.1920014  42.3499992 142.7169978  54.8910014
  41.3889992 142.1689978  53.8570014  42.1691690 142.1689249  54.2423043
  55.0379992 132.9819978  42.2290014  54.1379992 133.1209978  42.5240014
  55.2899992 133.8129978  41.8270014  54.9488683 133.1134055  42.2150232
  43.1039992 141.7689978  44.2020014  42.8119992 142.5369978  43.7110014
  42.4289992 141.1099978  44.0390014  42.9728497 141.7849745  44.1128260
  39.1969992 144.1319978  53.0170014  38.6949992 144.1039978  52.2020014
  39.2019992 143.2269978  53.3270014  39.1289832 144.0057486  52.9474121
  54.2969992 139.0719978  56.0640014  53.8889992 139.5519978  55.3430014
  54.3369992 138.1659978  55.7560014  54.2466221 139.0152449  55.9238267
  41.4459992 145.4559978  54.0600014  41.6619992 145.0939978  54.9200014
  40.5899992 145.0809978  53.8510014  41.3598810 145.3558837  54.1492680
  44.0639992 133.9259978  50.0560014  43.2029992 133.8389978  49.6480014
  44.0419992 134.7819978  50.4840014  43.9430491 134.0298003  50.0579582
  48.7269992 133.6479978  53.4310014  49.1469992 133.2329978  54.1840014
  47.7939992 133.4689978  53.5480014  48.6583736 133.5669910  53.5498968
  52.0539992 137.4029978  54.2840014  51.5399992 137.2779978  55.0820014
  51.8979992 138.3159978  54.0400014  51.9626967 137.5092123  54.3600937
  52.8159992 142.2639978  40.0450014  52.8579992 142.0419978  39.1150014
  53.6649992 142.6629978  40.2350014  52.9365253 142.2875498  39.9433822
  48.3889992 136.1399978  40.7160014  48.1349992 136.1589978  41.6380014
  48.1319992 135.2689978  40.4140014  48.3194508 136.0248280  40.8014803
  44.1549992 138.8909978  51.1510014  43.5139992 138.8509978  51.8600014
  44.1929992 139.8179978  50.9130014  44.0723010 139.0107668  51.2159946
  44.1519992 139.1119978  46.0630014  43.2599992 138.7719978  46.0040014
  44.6029992 138.7349978  45.3070014  44.0907642 139.0144910  45.9527726
  49.6879992 139.5279978  44.8800014  49.2789992 140.3429978  44.5880014
  50.4079992 139.3879978  44.2660014  49.7294439 139.6205372  44.7570115
  48.7899992 139.7039978  56.3680014  48.2269992 138.9989978  56.6890014
  49.6159992 139.5829978  56.8360014  48.8246674 139.5912165  56.4751751
  50.6929992 138.9739978  47.6940014  50.4969992 139.5799978  46.9790014
  50.8739992 138.1409978  47.2600014  50.6906584 138.9442513  47.5374212
  41.9049992 139.2119978  53.0180014  41.8669992 139.6119978  53.8870014
  41.4149992 138.3949978  53.1080014  41.8335330 139.1562674  53.1491289
  45.2709992 136.5859978  39.8170014  44.8399992 136.1409978  40.5460014
  44.5529992 136.9569978  39.3040014  45.1149176 136.5752051  39.8474930
  38.5139992 136.3279978  46.8690014  39.1439992 136.2989978  47.5880014
  38.9629992 135.9029978  46.1380014  38.6610835 136.2665660  46.8687659
  39.7879992 137.0739978  42.2930014  40.2619992 137.6649978  41.7080014
  39.0699992 137.6039978  42.6400014  39.7558640 137.2265511  42.2597969
  49.9569992 140.6119978  52.3650014  50.2799992 139.9809978  51.7220014
  49.5159992 140.0779978  53.0260014  49.9416379 140.4533468  52.3662582
  46.7339992 136.5399978  47.1490014  45.8229992 136.5969978  47.4380014
  47.2389992 136.4799978  47.9600014  46.6776873 136.5396826  47.2981207
  41.5619992 138.1689978  45.9760014  40.6729992 138.2679978  45.6360014
  41.8589992 137.3269978  45.6300014  41.4804177 138.0687687  45.8826940
  45.2149992 138.1689978  43.6330014  46.1469992 138.2979978  43.8110014
  44.9999992 138.8379978  42.9830014  45.3134472 138.2770806  43.5694891
  51.1389992 135.7749978  50.4140014  50.4619992 135.9059978  51.0770014
  50.6539992 135.6199978  49.6030014  50.9807405 135.7719947  50.3952170
  43.8889992 139.3629978  41.1990014  43.3469992 138.9839978  40.5080014
  44.7229992 139.5579978  40.7710014  43.9274390 139.3374079  41.0464392
  42.0249992 143.9199978  56.2980014  42.7569992 144.1749978  56.8600014
  41.2439992 144.1249978  56.8140014  42.0196526 143.9825450  56.4445176
  48.0539992 139.3269978  49.0360014  48.6179992 138.7809978  48.4890014
  47.9059992 138.8059978  49.8250014  48.1113037 139.1816787  49.0677229
  43.0559992 135.4639978  45.4550014  42.7389992 134.5609978  45.4190014
  43.8369992 135.4659978  44.9020014  43.1182431 135.3407797  45.3753102
  46.6799992 137.7159978  51.4500014  45.8449992 138.1699978  51.5610014
  47.2039992 137.9919978  52.2020014  46.6366072 137.8153948  51.5668136
  47.2249992 143.9289978  43.1350014  46.4799992 143.4209978  42.8130014
  47.0899992 143.9779978  44.0810014  47.1048963 143.8661731  43.2188826
  54.3749992 143.0619978  51.9220014  55.0159992 143.5179978  51.3780014
  53.5439992 143.1749978  51.4590014  54.3505287 143.1396921  51.7849887
  51.1219992 136.7429978  41.3340014  50.1839992 136.8539978  41.1830014
  51.4199992 137.5989978  41.6410014  51.0336318 136.8740158  41.3548145
  48.7439992 144.1129978  54.3720014  48.3979992 143.7309978  55.1790014
  48.5439992 145.0459978  54.4430014  48.6695987 144.1869002  54.4920461
  51.8409992 138.6099978  42.9950014  52.7329992 138.4719978  43.3140014
  51.8969992 139.4009978  42.4580014  51.9707325 138.6979918  42.9661217
  42.3489992 143.2239978  48.9050014  43.0939992 143.2209978  48.3030014
  42.4269992 142.3999978  49.3860014  42.4613365 143.1122384  48.8877430
  49.3499992 145.3869978  42.1600014  49.0549992 146.2139978  42.5420014
  48.6469992 144.7679978  42.3570014  49.2146379 145.4164171  42.2388654
  39.3569992 141.6839978  54.2200014  39.5799992 141.2659978  55.0510014
  38.7549992 141.0719978  53.7970014  39.3061513 141.5439606  54.2766740
  46.3739992 141.2009978  56.4330014  46.0779992 141.0359978  55.5370014
  47.3049992 140.9809978  56.4220014  46.4594401 141.1486879  56.3090206
  56.7259992 138.8189978  42.6900014  56.1709992 138.4229978  42.0170014
  56.8259992 139.7299978  42.4120014  56.6636816 138.8879505  42.5605033
  56.6889992 144.6199978  55.5270014  55.8379992 144.8579978  55.1590014
  57.2789992 144.6029978  54.7740014  56.6523812 144.6502524  55.3748453
  52.1809992 142.4129978  50.1760014  51.2529992 142.1819978  50.1490014
  52.6319992 141.6359978  49.8460014  52.1148165 142.2762774  50.1276790
  40.4789992 141.6039978  40.8960014  41.0949992 142.2309978  41.2760014
  39.6169992 141.9199978  41.1680014  40.4467678 141.7324412  40.9847209
  46.1519992 144.4049978  45.8850014  45.9109992 145.3299978  45.9270014
  45.4109992 143.9459978  46.2820014  46.0189206 144.4695915  45.9443769
  50.2099992 144.6529978  51.9010014  49.7849992 144.4249978  52.7270014
  50.7909992 143.9139978  51.7190014  50.2303395 144.5219545  51.9894414
  40.9909992 136.4379978  53.7780014  40.0989992 136.7759978  53.7100014
  40.8929992 135.5819978  54.1960014  40.8554475 136.3686543  53.8251704
  53.2789992 144.2539978  43.2020014  53.0019992 143.5259978  43.7580014
  54.2069992 144.3729978  43.4070014  53.3664499 144.1704213  43.3058044
  41.8939992 143.5159978  42.3890014  41.2079992 143.8689978  42.9560014
  42.4169992 144.2789978  42.1420014  41.8708402 143.6673901  42.4331801
  49.7259992 136.1789978  52.6680014  50.4249992 136.2529978  53.3180014
  49.3449992 135.3139978  52.8220014  49.7702097 136.0722389  52.7777997
  50.5099992 135.8309978  43.7650014  50.7299992 136.3019978  42.9610014
  51.0689992 136.2249978  44.4350014  50.6156731 135.9487287  43.7455033
  47.7099992 137.5589978  44.6000014  48.5219992 138.0629978  44.6460014
  47.4659992 137.4139978  45.5140014  47.7881467 137.6083749  44.7298575
  48.2459992 138.5449978  53.7840014  48.3649992 139.1189978  54.5410014
  48.9009992 137.8569978  53.8990014  48.3508684 138.5305194  53.9031674
  48.5939992 134.6399978  45.5380014  48.2469992 135.2569978  46.1820014
  49.2529992 135.1409978  45.0560014  48.6355090 134.7921575  45.5610681
  44.2519992 135.7029978  42.2250014  44.1679992 136.5909978  42.5720014
  45.1419992 135.4379978  42.4570014  44.3608163 135.7887179  42.3038596
  54.4499992 136.4519978  54.6190014  53.5339992 136.7139978  54.5320014
  54.7859992 136.4489978  53.7230014  54.3698499 136.4875163  54.4858766
  53.0529992 140.2019978  48.7150014  52.2549992 139.7869978  48.3870014
  53.4979992 139.5119978  49.2060014  53.0039684 140.0518628  48.7365227
  40.8259992 138.7949978  40.4010014  40.7809992 139.7339978  40.5800014
  39.9379992 138.5589978  40.1320014  40.6998166 138.8916687  40.3891524
  41.6339992 133.5759978  49.0750014  41.4049992 133.6349978  48.1470014
  41.1919992 132.7849978  49.3810014  41.5428801 133.4770540  48.9894729
  39.7599992 143.9399978  57.5190014  39.9039992 143.0379978  57.2330014
  38.9879992 144.2259978  57.0320014  39.6752733 143.8551798  57.4139532
  44.1009992 144.2829978  39.6520014  44.1659992 143.4889978  40.1820014
  44.7539992 144.1649978  38.9620014  44.1981605 144.1583430  39.6312997
  46.4149992 143.9089978  56.9520014  46.0869992 144.1799978  56.0950014
  46.5669992 142.9679978  56.8640014  46.3906412 143.8189046  56.8227822
  49.4539992 145.3299978  39.3880014  49.1849992 145.5109978  40.2880014
  49.2469992 144.4049978  39.2560014  49.3891191 145.2297119  39.4935524
  52.1499992 143.8249978  54.3350014  52.8949992 144.4139978  54.2160014
  51.3929992 144.4069978  54.3990014  52.1495470 143.9842128  54.3273799
  40.5929992 141.1399978  56.9390014  41.0009992 140.2829978  56.8180014
  40.3319992 141.1539978  57.8600014  40.6136016 141.0245119  57.0469192
  45.2509992 142.2559978  41.9580014  44.7909992 141.7719978  42.6430014
  45.5059992 141.5869978  41.3220014  45.2224856 142.0993669  41.9658397
  44.5399992 140.1489978  54.3140014  43.9209992 140.8229978  54.5940014
  44.8839992 140.4699978  53.4800014  44.5017123 140.2846887  54.2396388
  46.3219992 140.4989978  40.2200014  46.1409992 140.3439978  39.2930014
  47.2719992 140.6069978  40.2650014  46.4256566 140.4923669  40.0990929
  49.5589992 142.6199978  57.5910014  50.5129992 142.7039978  57.5640014
  49.3989992 141.9079978  58.2110014  49.6677182 142.5352842  57.6710733
  55.7119992 142.8529978  39.6660014  55.4379992 142.4289978  38.8530014
  55.7509992 143.7849978  39.4490014  55.6797716 142.9208827  39.5254286
  44.8789992 137.5039978  55.3960014  45.0289992 136.7749978  54.7940014
  44.8809992 138.2809978  54.8370014  44.8997967 137.5092708  55.2380541
  45.2919992 135.8729978  52.8890014  45.8269992 136.3249978  52.2370014
  44.4389992 135.7649978  52.4660014  45.2500374 135.9202665  52.7426710
  46.8729992 141.3129978  53.1280014  47.6239992 141.1569978  52.5550014
  46.5339992 142.1649978  52.8530014  46.9299587 141.4068138  53.0124078
  51.2889992 139.1279978  58.1570014  51.4809992 138.1969978  58.0450014
  52.1469992 139.5529978  58.1460014  51.4312182 139.0580070  58.1401862
  52.6059992 141.9169978  56.2340014  52.3239992 142.6259978  55.6560014
  53.5479992 141.8439978  56.0830014  52.6947921 142.0042193  56.1344225
  43.3579992 138.7019978  57.3070014  42.5899992 138.1689978  57.0970014
  44.0359992 138.3919978  56.7080014  43.3447235 138.5871754  57.1972413
  46.0969992 133.3299978  53.3200014  45.9989992 134.2759978  53.2150014
  45.3549992 132.9569978  52.8440014  45.9832534 133.4091773  53.2412600
  47.3609992 137.6509978  56.8840014  47.1259992 137.4319978  57.7850014
  46.5779992 137.4439978  56.3740014  47.2229095 137.5929892  56.9385353
  50.0769992 136.7789978  55.9590014  49.1289992 136.8109978  56.0910014
  50.3889992 136.1529978  56.6130014  49.9895293 136.6987923  56.0654148
  51.7109992 135.4129978  57.9640014  51.6139992 134.4609978  57.9590014
  51.3889992 135.6809978  58.8250014  51.6542468 135.3190884  58.0796210
  41.5379992 136.6219978  57.0120014  41.7499992 135.9159978  56.4020014
  41.4269992 136.1849978  57.8560014  41.5520269 136.4661921  57.0425873
  46.3189992 132.6239978  55.9910014  47.0309992 131.9839978  55.9770014
  46.2179992 132.8899978  55.0780014  46.4027387 132.5724330  55.8655563
  46.6729992 134.3059978  58.0450014  46.5409992 133.8309978  57.2250014
  46.0729992 135.0509978  57.9900014  46.5739070 134.3415789  57.9253251
  54.8689992 145.4659978  58.1270014  54.0029992 145.3609978  58.5210014
  55.2449992 146.2239978  58.5730014  54.8013401 145.5541708  58.2412620
  56.1699992 143.7219978  43.6410014  57.0199992 144.1429978  43.7680014
  56.1749992 142.9819978  44.2480014  56.2871143 143.6796094  43.7404750
  56.5639992 141.7759978  45.4640014  55.8379992 141.2959978  45.8620014
  57.1459992 141.9809978  46.1970014  56.5432730 141.7380184  45.6174149
  56.3229992 144.5609978  50.4120014  57.1569992 144.1829978  50.1310014
  56.4349992 145.5039978  50.2930014  56.4521917 144.6367943  50.3574861
  56.8329992 141.6769978  41.8550014  56.3109992 142.0329978  41.1370014
  56.7999992 142.3519978  42.5340014  56.7570129 141.8169598  41.8483355
  55.1819992 138.9159978  40.4060014  55.2779992 139.5829978  39.7260014
  55.0419992 138.1009978  39.9250014  55.1762040 138.8970671  40.2478378
  54.3509992 140.2969978  46.0270014  54.2009992 139.3519978  46.0070014
  53.9969992 140.5779978  46.8710014  54.2826351 140.2056644  46.1383220
  39.3859992 142.3749978  50.0380014  39.5709992 142.2929978  49.1020014
  40.2359992 142.2509978  50.4610014  39.5260928 142.3470463  49.9672893
  55.2069992 142.2669978  55.6660014  55.7899992 141.5319978  55.8580014
  55.7709992 143.0389978  55.7130014  55.3629781 142.2708145  55.6986164
  56.7039992 140.1699978  56.3510014  55.8409992 139.7909978  56.1850014
  57.3079992 139.4309978  56.2760014  56.6676085 140.0183223  56.3181695
  54.4289992 136.3239978  39.5240014  55.0399992 135.9529978  40.1610014
  53.5919992 135.9029978  39.7200014  54.3994947 136.2162756  39.6377252
  54.0619992 137.8789978  44.4900014  54.3409992 136.9719978  44.6140014
  54.8209992 138.3129978  44.1010014  54.2028619 137.8134502  44.4543795
  54.6729992 138.4609978  49.9260014  55.6059992 138.6729978  49.8910014
  54.4379992 138.5619978  50.8480014  54.7689517 138.5036833  50.0459130
  54.7029992 139.1979978  52.7020014  53.8599992 139.4659978  53.0680014
  55.1449992 140.0199978  52.4910014  54.6474138 139.3458273  52.7235518
  38.9839992 137.6449978  56.1780014  39.9029992 137.5229978  56.4150014
  38.5339992 136.8949978  56.5680014  39.0490087 137.5269608  56.2631410
  56.9859992 133.1779978  58.0550014  57.3349992 132.5239978  57.4500014
  57.1329992 134.0149978  57.6150014  57.0536824 133.2016024  57.9126304
  54.6749992 135.1419978  44.5380014  54.8569992 134.6929978  45.3630014
  54.0749992 134.5579978  44.0740014  54.6188187 135.0015552  44.5882739
  40.2049992 135.9579978  49.0700014  40.6499992 135.1659978  49.3720014
  40.6709992 136.6739978  49.5000014  40.3289718 135.9464534  49.1695265
  38.5089992 138.9569978  50.1390014  39.0009992 138.7359978  49.3480014
  38.8709992 139.7969978  50.4200014  38.6252923 139.0403468  50.0687407
  56.5049992 135.2869978  56.4040014  55.5879992 135.5579978  56.3690014
  56.6279992 134.7519978  55.6200014  56.3959672 135.2517885  56.2931862
  56.5419992 135.2099978  41.0660014  56.9539992 134.4889978  40.5910014
  57.2229992 135.8789978  41.1240014  56.6905536 135.2017766  41.0088024
  38.8229992 135.2149978  44.1930014  37.8979992 135.4229978  44.0640014
  39.2769992 135.6989978  43.5030014  38.7576298 135.3089299  44.0820451
  38.7859992 133.9529978  52.5370014  38.1209992 133.7069978  53.1800014
  38.3429992 134.5749978  51.9600014  38.6351168 134.0034214  52.5469848
  55.5059992 133.3769978  54.2230014  54.6929992 133.7019978  53.8360014
  55.7389992 132.6159978  53.6900014  55.4261347 133.3186880  54.0979841
  48.9359992 134.8259978  48.5460014  48.2619992 134.1959978  48.8020014
  49.4999992 134.3419978  47.9430014  48.9200384 134.6743708  48.4995020
  54.0789992 132.9329978  48.6590014  54.6819992 133.4809978  48.1570014
  53.2089992 133.2519978  48.4180014  54.0439157 133.0510373  48.5577910
  55.8059992 134.0719978  46.9920014  56.4169992 133.5579978  46.4650014
  56.1879992 134.9489978  47.0150014  55.9413305 134.1202050  46.9229418
  41.2629992 133.4599978  46.3680014  40.4859992 133.2249978  45.8610014
  41.7929992 132.6629978  46.3770014  41.2283451 133.3201268  46.2998627
  40.0989992 133.2579978  42.1720014  40.5379992 133.8689978  41.5800014
  39.4649992 133.7959978  42.6460014  40.0733859 133.4144064  42.1550305
  45.8419992 133.3859978  46.1810014  46.7159992 133.7749978  46.1520014
  45.7059992 133.1709978  47.1040014  45.9431953 133.4101643  46.3017617
  51.3989992 133.4159978  47.8310014  51.4749992 133.5119978  46.8810014
  51.1239992 132.5089978  47.9590014  51.3721871 133.3064146  47.7183944
  52.7519992 133.4419978  43.5230014  52.0489992 134.0569978  43.3130014
  52.3069992 132.6049978  43.6540014  52.5956550 133.4129668  43.5119837
  41.9599992 135.1739978  40.6140014  42.4509992 134.5439978  40.0870014
  42.5829992 135.4699978  41.2770014  42.1115304 135.1277376  40.6314940
  46.9859992 135.4669978  43.0710014  47.1639992 134.8199978  43.7540014
  46.9319992 136.3009978  43.5380014  47.0030678 135.4911604  43.2276301
  41.2199992 133.9739978  55.8860014  40.8539992 133.2079978  56.3280014
  42.1329992 134.0029978  56.1720014  41.2933172 133.8730324  55.9851890
  43.1929992 133.3239978  57.4210014  44.0919992 133.0499978  57.2370014
  42.8069992 132.5819978  57.8860014  43.2637307 133.1862196  57.4587098
  51.6149992 132.6569978  57.6040014  51.6909992 132.2309978  58.4570014
  52.5079992 132.6699978  57.2610014  51.7462303 132.6003493  57.6745497
  69.1969992 142.6159978  46.3270014  69.2859992 143.5599978  46.1950014
  68.5589992 142.3409978  45.6690014  69.1229062 142.7079812  46.2199641
  68.1299992 141.8709978  49.7460014  68.0919992 141.2249978  50.4510014
  67.8079992 141.4039978  48.9750014  68.0812679 141.7194276  49.7382921
  60.4979992 141.4849978  51.3390014  60.5399992 140.8599978  52.0620014
  61.2009992 142.1089978  51.5210014  60.5987345 141.4837873  51.4625273
  71.8359992 144.8099978  48.0470014  71.3949992 144.0899978  48.4980014
  71.8229992 145.5309978  48.6770014  71.7739215 144.8089291  48.1938105
  58.0319992 139.5949978  45.2660014  57.5839992 140.4409978  45.2480014
  57.4709992 139.0159978  44.7510014  57.8948546 139.6323993  45.1938891
  58.7419992 141.7569978  47.3920014  58.9559992 140.9869978  47.9200014
  59.4799992 141.8469978  46.7890014  58.8710200 141.6638586  47.3827035
  66.5189992 144.3029978  50.1520014  66.8229992 143.6169978  49.5570014
  67.2409992 144.4219978  50.7700014  66.6581240 144.2252314  50.1540959
  75.1819992 135.9049978  51.0120014  75.2319992 136.5149978  51.7480014
  75.6079992 136.3659978  50.2890014  75.2464108 136.0507709  51.0150112
  69.6599992 138.6969978  50.4790014  69.8029992 137.7509978  50.4990014
  69.5539992 138.9039978  49.5510014  69.6652403 138.5954797  50.3562239
  62.8149992 136.7989978  47.7520014  62.8579992 137.6589978  47.3330014
  62.3569992 136.2469978  47.1180014  62.7589871 136.8419245  47.6090761
  70.5369992 136.9299978  46.1530014  71.1839992 136.6009978  46.7770014
  71.0469992 137.4469978  45.5300014  70.6944351 136.9549067  46.1541037
  59.4349992 139.1959978  48.5140014  60.0889992 138.6459978  48.9460014
  59.4589992 138.9219978  47.5970014  59.5277199 139.0837167  48.4491668
  64.5919992 140.7459978  47.7290014  65.2079992 140.2189978  48.2380014
  64.0049992 140.1059978  47.3250014  64.5970154 140.5873954  47.7440945
  75.5739992 137.3829978  53.2480014  74.8849992 138.0409978  53.1530014
  75.5889992 137.1849978  54.1850014  75.4817756 137.4462603  53.3615812
  61.6249992 135.7169978  51.8260014  61.4059992 136.2469978  51.0590014
  60.9569992 135.9429978  52.4730014  61.5046975 135.8200967  51.8085140
  68.9939992 145.2169978  45.3700014  68.6989992 144.8939978  44.5180014
  68.6699992 146.1169978  45.4110014  68.9098460 145.2944464  45.2589714
  64.1939992 143.3919978  52.1130014  63.4539992 143.9909978  52.2170014
  64.9079992 143.9459978  51.7980014  64.1893500 143.5487829  52.0846371
  72.3009992 136.2209978  48.1330014  72.0859992 135.4549978  48.6660014
  72.9569992 136.6929978  48.6460014  72.3602673 136.1800728  48.2751990
  61.2189992 137.6089978  49.7780014  61.8329992 138.2419978  50.1510014
  61.7309992 137.1369978  49.1220014  61.3721962 137.6317249  49.7402935
  62.6019992 145.3569978  52.9000014  62.5959992 146.2359978  52.5220014
  61.7479992 145.2729978  53.3250014  62.4857925 145.4659535  52.9056887
  58.7229992 145.0279978  43.6820014  58.4509992 145.2569978  42.7940014
  58.7679992 145.8649978  44.1430014  58.6918097 145.1726163  43.6226683
  72.6479992 134.9359978  51.8120014  71.9119992 135.5459978  51.7750014
  73.3319992 135.3509978  51.2860014  72.6395367 135.0757551  51.7358174
  65.6519992 133.0219978  49.2780014  65.5339992 132.0739978  49.2240014
  64.7969992 133.3549978  49.5510014  65.5202805 132.9372202  49.3075079
  73.4459992 144.8979978  54.0060014  73.5849992 144.3059978  53.2670014
  73.6129992 145.7709978  53.6500014  73.4876193 144.9348896  53.8566211
  67.9179992 141.8599978  43.7790014  67.2069992 142.3949978  43.4270014
  68.6089992 141.9149978  43.1190014  67.9140751 141.9406777  43.6415858
  67.9719992 140.3169978  40.8170014  68.6729992 140.3399978  41.4690014
  68.2739992 139.6889978  40.1610014  68.1088202 140.2352212  40.8175609
  75.2869992 141.2379978  52.0720014  74.6349992 141.9319978  52.1610014
  75.7529992 141.4479978  51.2620014  75.2605937 141.3615019  51.9747533
  71.3239992 142.0689978  44.7300014  70.5919992 142.2979978  45.3040014
  71.7709992 141.3559978  45.1850014  71.2843963 142.0038729  44.8699945
  71.2209992 140.2439978  53.7980014  71.3009992 141.0069978  54.3700014
  70.6199992 140.5229978  53.1080014  71.1506547 140.3862457  53.7830047
  62.9689992 142.6999978  46.6130014  62.6389992 142.3289978  45.7950014
  63.5579992 142.0289978  46.9600014  63.0033970 142.5586063  46.5479404
  63.3359992 141.4679978  50.2460014  63.9009992 141.5899978  49.4840014
  63.6549992 142.1059978  50.8850014  63.4564166 141.5708791  50.2280348
  70.1949992 141.2319978  42.4160014  70.7739992 141.3819978  43.1620014
  70.6089992 141.7019978  41.6920014  70.3303358 141.3160954  42.4203953
  61.1359992 142.0659978  54.1920014  61.2059992 142.7169978  54.8910014
  60.2449992 142.1689978  53.8570014  61.0251690 142.1689249  54.2423043
  73.8939992 132.9819978  42.2290014  72.9939992 133.1209978  42.5240014
  74.1459992 133.8129978  41.8270014  73.8048683 133.1134055  42.2150232
  61.9599992 141.7689978  44.2020014  61.6679992 142.5369978  43.7110014
  61.2849992 141.1099978  44.0390014  61.8288497 141.7849745  44.1128260
  58.0529992 144.1319978  53.0170014  57.5509992 144.1039978  52.2020014
  58.0579992 143.2269978  53.3270014  57.9849832 144.0057486  52.9474121
  73.1529992 139.0719978  56.0640014  72.7449992 139.5519978  55.3430014
  73.1929992 138.1659978  55.7560014  73.1026221 139.0152449  55.9238267
  60.3019992 145.4559978  54.0600014  60.5179992 145.0939978  54.9200014
  59.4459992 145.0809978  53.8510014  60.2158810 145.3558837  54.1492680
  62.9199992 133.9259978  50.0560014  62.0589992 133.8389978  49.6480014
  62.8979992 134.7819978  50.4840014  62.7990491 134.0298003  50.0579582
  67.5829992 133.6479978  53.4310014  68.0029992 133.2329978  54.1840014
  66.6499992 133.4689978  53.5480014  67.5143736 133.5669910  53.5498968
  70.9099992 137.4029978  54.2840014  70.3959992 137.2779978  55.0820014
  70.7539992 138.3159978  54.0400014  70.8186967 137.5092123  54.3600937
  71.6719992 142.2639978  40.0450014  71.7139992 142.0419978  39.1150014
  72.5209992 142.6629978  40.2350014  71.7925253 142.2875498  39.9433822
  67.2449992 136.1399978  40.7160014  66.9909992 136.1589978  41.6380014
  66.9879992 135.2689978  40.4140014  67.1754508 136.0248280  40.8014803
  63.0109992 138.8909978  51.1510014  62.3699992 138.8509978  51.8600014
  63.0489992 139.8179978  50.9130014  62.9283010 139.0107668  51.2159946
  63.0079992 139.1119978  46.0630014  62.1159992 138.7719978  46.0040014
  63.4589992 138.7349978  45.3070014  62.9467642 139.0144910  45.9527726
  68.5439992 139.5279978  44.8800014  68.1349992 140.3429978  44.5880014
  69.2639992 139.3879978  44.2660014  68.5854439 139.6205372  44.7570115
  67.6459992 139.7039978  56.3680014  67.0829992 138.9989978  56.6890014
  68.4719992 139.5829978  56.8360014  67.6806674 139.5912165  56.4751751
  69.5489992 138.9739978  47.6940014  69.3529992 139.5799978  46.9790014
  69.7299992 138.1409978  47.2600014  69.5466584 138.9442513  47.5374212
  60.7609992 139.2119978  53.0180014  60.7229992 139.6119978  53.8870014
  60.2709992 138.3949978  53.1080014  60.6895330 139.1562674  53.1491289
  64.1269992 136.5859978  39.8170014  63.6959992 136.1409978  40.5460014
  63.4089992 136.9569978  39.3040014  63.9709176 136.5752052  39.8474930
  57.3699992 136.3279978  46.8690014  57.9999992 136.2989978  47.5880014
  57.8189992 135.9029978  46.1380014  57.5170835 136.2665660  46.8687659
  58.6439992 137.0739978  42.2930014  59.1179992 137.6649978  41.7080014
  57.9259992 137.6039978  42.6400014  58.6118640 137.2265511  42.2597969
  68.8129992 140.6119978  52.3650014  69.1359992 139.9809978  51.7220014
  68.3719992 140.0779978  53.0260014  68.7976379 140.4533468  52.3662582
  65.5899992 136.5399978  47.1490014  64.6789992 136.5969978  47.4380014
  66.0949992 136.4799978  47.9600014  65.5336873 136.5396826  47.2981207
  60.4179992 138.1689978  45.9760014  59.5289992 138.2679978  45.6360014
  60.7149992 137.3269978  45.6300014  60.3364177 138.0687687  45.8826940
  64.0709992 138.1689978  43.6330014  65.0029992 138.2979978  43.8110014
  63.8559992 138.8379978  42.9830014  64.1694472 138.2770806  43.5694891
  69.9949992 135.7749978  50.4140014  69.3179992 135.9059978  51.0770014
  69.5099992 135.6199978  49.6030014  69.8367405 135.7719947  50.3952170
  62.7449992 139.3629978  41.1990014  62.2029992 138.9839978  40.5080014
  63.5789992 139.5579978  40.7710014  62.7834390 139.3374079  41.0464392
  60.8809992 143.9199978  56.2980014  61.6129992 144.1749978  56.8600014
  60.0999992 144.1249978  56.8140014  60.8756526 143.9825450  56.4445176
  66.9099992 139.3269978  49.0360014  67.4739992 138.7809978  48.4890014
  66.7619992 138.8059978  49.8250014  66.9673037 139.1816787  49.0677229
  61.9119992 135.4639978  45.4550014  61.5949992 134.5609978  45.4190014
  62.6929992 135.4659978  44.9020014  61.9742431 135.3407797  45.3753102
  65.5359992 137.7159978  51.4500014  64.7009992 138.1699978  51.5610014
  66.0599992 137.9919978  52.2020014  65.4926072 137.8153948  51.5668136
  66.0809992 143.9289978  43.1350014  65.3359992 143.4209978  42.8130014
  65.9459992 143.9779978  44.0810014  65.9608963 143.8661731  43.2188826
  73.2309992 143.0619978  51.9220014  73.8719992 143.5179978  51.3780014
  72.3999992 143.1749978  51.4590014  73.2065287 143.1396921  51.7849887
  69.9779992 136.7429978  41.3340014  69.0399992 136.8539978  41.1830014
  70.2759992 137.5989978  41.6410014  69.8896318 136.8740158  41.3548145
  67.5999992 144.1129978  54.3720014  67.2539992 143.7309978  55.1790014
  67.3999992 145.0459978  54.4430014  67.5255987 144.1869002  54.4920461
  70.6969992 138.6099978  42.9950014  71.5889992 138.4719978  43.3140014
  70.7529992 139.4009978  42.4580014  70.8267325 138.6979918  42.9661217
  61.2049992 143.2239978  48.9050014  61.9499992 143.2209978  48.3030014
  61.2829992 142.3999978  49.3860014  61.3173365 143.1122384  48.8877430
  68.2059992 145.3869978  42.1600014  67.9109992 146.2139978  42.5420014
  67.5029992 144.7679978  42.3570014  68.0706379 145.4164171  42.2388654
  58.2129992 141.6839978  54.2200014  58.4359992 141.2659978  55.0510014
  57.6109992 141.0719978  53.7970014  58.1621513 141.5439606  54.2766740
  65.2299992 141.2009978  56.4330014  64.9339992 141.0359978  55.5370014
  66.1609992 140.9809978  56.4220014  65.3154401 141.1486879  56.3090206
  75.5819992 138.8189978  42.6900014  75.0269992 138.4229978  42.0170014
  75.6819992 139.7299978  42.4120014  75.5196816 138.8879505  42.5605033
  75.5449992 144.6199978  55.5270014  74.6939992 144.8579978  55.1590014
  76.1349992 144.6029978  54.7740014  75.5083812 144.6502524  55.3748453
  71.0369992 142.4129978  50.1760014  70.1089992 142.1819978  50.1490014
  71.4879992 141.6359978  49.8460014  70.9708165 142.2762774  50.1276790
  59.3349992 141.6039978  40.8960014  59.9509992 142.2309978  41.2760014
  58.4729992 141.9199978  41.1680014  59.3027678 141.7324412  40.9847209
  65.0079992 144.4049978  45.8850014  64.7669992 145.3299978  45.9270014
  64.2669992 143.9459978  46.2820014  64.8749206 144.4695915  45.9443769
  69.0659992 144.6529978  51.9010014  68.6409992 144.4249978  52.7270014
  69.6469992 143.9139978  51.7190014  69.0863395 144.5219545  51.9894414
  59.8469992 136.4379978  53.7780014  58.9549992 136.7759978  53.7100014
  59.7489992 135.5819978  54.1960014  59.7114475 136.3686543  53.8251704
  72.1349992 144.2539978  43.2020014  71.8579992 143.5259978  43.7580014
  73.0629992 144.3729978  43.4070014  72.2224499 144.1704213  43.3058044
  60.7499992 143.5159978  42.3890014  60.0639992 143.8689978  42.9560014
  61.2729992 144.2789978  42.1420014  60.7268402 143.6673901  42.4331801
  68.5819992 136.1789978  52.6680014  69.2809992 136.2529978  53.3180014
  68.2009992 135.3139978  52.8220014  68.6262097 136.0722389  52.7777997
  69.3659992 135.8309978  43.7650014  69.5859992 136.3019978  42.9610014
  69.9249992 136.2249978  44.4350014  69.4716731 135.9487287  43.7455033
  66.5659992 137.5589978  44.6000014  67.3779992 138.0629978  44.6460014
  66.3219992 137.4139978  45.5140014  66.6441467 137.6083749  44.7298575
  67.1019992 138.5449978  53.7840014  67.2209992 139.1189978  54.5410014
  67.7569992 137.8569978  53.8990014  67.2068684 138.5305194  53.9031674
  67.4499992 134.6399978  45.5380014  67.1029992 135.2569978  46.1820014
  68.1089992 135.1409978  45.0560014  67.4915090 134.7921575  45.5610681
  63.1079992 135.7029978  42.2250014  63.0239992 136.5909978  42.5720014
  63.9979992 135.4379978  42.4570014  63.2168163 135.7887179  42.3038596
  73.3059992 136.4519978  54.6190014  72.3899992 136.7139978  54.5320014
  73.6419992 136.4489978  53.7230014  73.2258499 136.4875163  54.4858766
  71.9089992 140.2019978  48.7150014  71.1109992 139.7869978  48.3870014
  72.3539992 139.5119978  49.2060014  71.8599684 140.0518628  48.7365227
  59.6819992 138.7949978  40.4010014  59.6369992 139.7339978  40.5800014
  58.7939992 138.5589978  40.1320014  59.5558166 138.8916687  40.3891524
  60.4899992 133.5759978  49.0750014  60.2609992 133.6349978  48.1470014
  60.0479992 132.7849978  49.3810014  60.3988801 133.4770540  48.9894729
  58.6159992 143.9399978  57.5190014  58.7599992 143.0379978  57.2330014
  57.8439992 144.2259978  57.0320014  58.5312733 143.8551798  57.4139532
  62.9569992 144.2829978  39.6520014  63.0219992 143.4889978  40.1820014
  63.6099992 144.1649978  38.9620014  63.0541605 144.1583430  39.6312997
  65.2709992 143.9089978  56.9520014  64.9429992 144.1799978  56.0950014
  65.4229992 142.9679978  56.8640014  65.2466412 143.8189046  56.8227822
  68.3099992 145.3299978  39.3880014  68.0409992 145.5109978  40.2880014
  68.1029992 144.4049978  39.2560014  68.2451191 145.2297119  39.4935524
  71.0059992 143.8249978  54.3350014  71.7509992 144.4139978  54.2160014
  70.2489992 144.4069978  54.3990014  71.0055470 143.9842128  54.3273799
  59.4489992 141.1399978  56.9390014  59.8569992 140.2829978  56.8180014
  59.1879992 141.1539978  57.8600014  59.4696016 141.0245119  57.0469192
  64.1069992 142.2559978  41.9580014  63.6469992 141.7719978  42.6430014
  64.3619992 141.5869978  41.3220014  64.0784856 142.0993669  41.9658397
  63.3959992 140.1489978  54.3140014  62.7769992 140.8229978  54.5940014
  63.7399992 140.4699978  53.4800014  63.3577123 140.2846887  54.2396388
  65.1779992 140.4989978  40.2200014  64.9969992 140.3439978  39.2930014
  66.1279992 140.6069978  40.2650014  65.2816566 140.4923669  40.0990929
  68.4149992 142.6199978  57.5910014  69.3689992 142.7039978  57.5640014
  68.2549992 141.9079978  58.2110014  68.5237182 142.5352842  57.6710733
  74.5679992 142.8529978  39.6660014  74.2939992 142.4289978  38.8530014
  74.6069992 143.7849978  39.4490014  74.5357716 142.9208827  39.5254286
  63.7349992 137.5039978  55.3960014  63.8849992 136.7749978  54.7940014
  63.7369992 138.2809978  54.8370014  63.7557967 137.5092708  55.2380541
  64.1479992 135.8729978  52.8890014  64.6829992 136.3249978  52.2370014
  63.2949992 135.7649978  52.4660014  64.1060374 135.9202665  52.7426710
  65.7289992 141.3129978  53.1280014  66.4799992 141.1569978  52.5550014
  65.3899992 142.1649978  52.8530014  65.7859587 141.4068138  53.0124078
  70.1449992 139.1279978  58.1570014  70.3369992 138.1969978  58.0450014
  71.0029992 139.5529978  58.1460014  70.2872182 139.0580070  58.1401862
  71.4619992 141.9169978  56.2340014  71.1799992 142.6259978  55.6560014
  72.4039992 141.8439978  56.0830014  71.5507921 142.0042193  56.1344225
  62.2139992 138.7019978  57.3070014  61.4459992 138.1689978  57.0970014
  62.8919992 138.3919978  56.7080014  62.2007235 138.5871754  57.1972413
  64.9529992 133.3299978  53.3200014  64.8549992 134.2759978  53.2150014
  64.2109992 132.9569978  52.8440014  64.8392534 133.4091773  53.2412600
  66.2169992 137.6509978  56.8840014  65.9819992 137.4319978  57.7850014
  65.4339992 137.4439978  56.3740014  66.0789095 137.5929892  56.9385353
  68.9329992 136.7789978  55.9590014  67.9849992 136.8109978  56.0910014
  69.2449992 136.1529978  56.6130014  68.8455293 136.6987923  56.0654148
  70.5669992 135.4129978  57.9640014  70.4699992 134.4609978  57.9590014
  70.2449992 135.6809978  58.8250014  70.5102468 135.3190884  58.0796210
  60.3939992 136.6219978  57.0120014  60.6059992 135.9159978  56.4020014
  60.2829992 136.1849978  57.8560014  60.4080269 136.4661921  57.0425873
  65.1749992 132.6239978  55.9910014  65.8869992 131.9839978  55.9770014
  65.0739992 132.8899978  55.0780014  65.2587387 132.5724330  55.8655563
  65.5289992 134.3059978  58.0450014  65.3969992 133.8309978  57.2250014
  64.9289992 135.0509978  57.9900014  65.4299070 134.3415789  57.9253251
  73.7249992 145.4659978  58.1270014  72.8589992 145.3609978  58.5210014
  74.1009992 146.2239978  58.5730014  73.6573401 145.5541708  58.2412620
  75.0259992 143.7219978  43.6410014  75.8759992 144.1429978  43.7680014
  75.0309992 142.9819978  44.2480014  75.1431143 143.6796094  43.7404750
  75.4199992 141.7759978  45.4640014  74.6939992 141.2959978  45.8620014
  76.0019992 141.9809978  46.1970014  75.3992730 141.7380184  45.6174149
  75.1789992 144.5609978  50.4120014  76.0129992 144.1829978  50.1310014
  75.2909992 145.5039978  50.2930014  75.3081917 144.6367943  50.3574861
  75.6889992 141.6769978  41.8550014  75.1669992 142.0329978  41.1370014
  75.6559992 142.3519978  42.5340014  75.6130129 141.8169598  41.8483355
  74.0379992 138.9159978  40.4060014  74.1339992 139.5829978  39.7260014
  73.8979992 138.1009978  39.9250014  74.0322040 138.8970671  40.2478378
  73.2069992 140.2969978  46.0270014  73.0569992 139.3519978  46.0070014
  72.8529992 140.5779978  46.8710014  73.1386351 140.2056644  46.1383220
  58.2419992 142.3749978  50.0380014  58.4269992 142.2929978  49.1020014
  59.0919992 142.2509978  50.4610014  58.3820928 142.3470463  49.9672893
  74.0629992 142.2669978  55.6660014  74.6459992 141.5319978  55.8580014
  74.6269992 143.0389978  55.7130014  74.2189781 142.2708145  55.6986164
  75.5599992 140.1699978  56.3510014  74.6969992 139.7909978  56.1850014
  76.1639992 139.4309978  56.2760014  75.5236085 140.0183223  56.3181695
  73.2849992 136.3239978  39.5240014  73.8959992 135.9529978  40.1610014
  72.4479992 135.9029978  39.7200014  73.2554947 136.2162756  39.6377252
  72.9179992 137.8789978  44.4900014  73.1969992 136.9719978  44.6140014
  73.6769992 138.3129978  44.1010014  73.0588619 137.8134502  44.4543795
  73.5289992 138.4609978  49.9260014  74.4619992 138.6729978  49.8910014
  73.2939992 138.5619978  50.8480014  73.6249517 138.5036833  50.0459130
  73.5589992 139.1979978  52.7020014  72.7159992 139.4659978  53.0680014
  74.0009992 140.0199978  52.4910014  73.5034138 139.3458273  52.7235518
  57.8399992 137.6449978  56.1780014  58.7589992 137.5229978  56.4150014
  57.3899992 136.8949978  56.5680014  57.9050087 137.5269608  56.2631410
  75.8419992 133.1779978  58.0550014  76.1909992 132.5239978  57.4500014
  75.9889992 134.0149978  57.6150014  75.9096824 133.2016024  57.9126304
  73.5309992 135.1419978  44.5380014  73.7129992 134.6929978  45.3630014
  72.9309992 134.5579978  44.0740014  73.4748187 135.0015552  44.5882739
  59.0609992 135.9579978  49.0700014  59.5059992 135.1659978  49.3720014
  59.5269992 136.6739978  49.5000014  59.1849718 135.9464534  49.1695265
  57.3649992 138.9569978  50.1390014  57.8569992 138.7359978  49.3480014
  57.7269992 139.7969978  50.4200014  57.4812923 139.0403468  50.0687407
  75.3609992 135.2869978  56.4040014  74.4439992 135.5579978  56.3690014
  75.4839992 134.7519978  55.6200014  75.2519672 135.2517885  56.2931862
  75.3979992 135.2099978  41.0660014  75.8099992 134.4889978  40.5910014
  76.0789992 135.8789978  41.1240014  75.5465536 135.2017766  41.0088024
  57.6789992 135.2149978  44.1930014  56.7539992 135.4229978  44.0640014
  58.1329992 135.6989978  43.5030014  57.6136298 135.3089299  44.0820451
  57.6419992 133.9529978  52.5370014  56.9769992 133.7069978  53.1800014
  57.1989992 134.5749978  51.9600014  57.4911168 134.0034214  52.5469848
  74.3619992 133.3769978  54.2230014  73.5489992 133.7019978  53.8360014
  74.5949992 132.6159978  53.6900014  74.2821347 133.3186880  54.0979841
  67.7919992 134.8259978  48.5460014  67.1179992 134.1959978  48.8020014
  68.3559992 134.3419978  47.9430014  67.7760384 134.6743708  48.4995020
  72.9349992 132.9329978  48.6590014  73.5379992 133.4809978  48.1570014
  72.0649992 133.2519978  48.4180014  72.8999157 133.0510373  48.5577910
  74.6619992 134.0719978  46.9920014  75.2729992 133.5579978  46.4650014
  75.0439992 134.9489978  47.0150014  74.7973305 134.1202050  46.9229418
  60.1189992 133.4599978  46.3680014  59.3419992 133.2249978  45.8610014
  60.6489992 132.6629978  46.3770014  60.0843451 133.3201268  46.2998627
  58.9549992 133.2579978  42.1720014  59.3939992 133.8689978  41.5800014
  58.3209992 133.7959978  42.6460014  58.9293859 133.4144064  42.1550305
  64.6979992 133.3859978  46.1810014  65.5719992 133.7749978  46.1520014
  64.5619992 133.1709978  47.1040014  64.7991953 133.4101643  46.3017617
  70.2549992 133.4159978  47.8310014  70.3309992 133.5119978  46.8810014
  69.9799992 132.5089978  47.9590014  70.2281871 133.3064146  47.7183944
  71.6079992 133.4419978  43.5230014  70.9049992 134.0569978  43.3130014
  71.1629992 132.6049978  43.6540014  71.4516550 133.4129668  43.5119837
  60.8159992 135.1739978  40.6140014  61.3069992 134.5439978  40.0870014
  61.4389992 135.4699978  41.2770014  60.9675304 135.1277376  40.6314940
  65.8419992 135.4669978  43.0710014  66.0199992 134.8199978  43.7540014
  65.7879992 136.3009978  43.5380014  65.8590678 135.4911604  43.2276301
  60.0759992 133.9739978  55.8860014  59.7099992 133.2079978  56.3280014
  60.9889992 134.0029978  56.1720014  60.1493172 133.8730324  55.9851890
  62.0489992 133.3239978  57.4210014  62.9479992 133.0499978  57.2370014
  61.6629992 132.5819978  57.8860014  62.1197307 133.1862196  57.4587098
  70.4709992 132.6569978  57.6040014  70.5469992 132.2309978  58.4570014
  71.3639992 132.6699978  57.2610014  70.6022303 132.6003493  57.6745497
  88.0529992 142.6159978  46.3270014  88.1419992 143.5599978  46.1950014
  87.4149992 142.3409978  45.6690014  87.9789062 142.7079812  46.2199641
  86.9859992 141.8709978  49.7460014  86.9479992 141.2249978  50.4510014
  86.6639992 141.4039978  48.9750014  86.9372679 141.7194276  49.7382921
  79.3539992 141.4849978  51.3390014  79.3959992 140.8599978  52.0620014
  80.0569992 142.1089978  51.5210014  79.4547345 141.4837873  51.4625273
  90.6919992 144.8099978  48.0470014  90.2509992 144.0899978  48.4980014
  90.6789992 145.5309978  48.6770014  90.6299215 144.8089291  48.1938105
  76.8879992 139.5949978  45.2660014  76.4399992 140.4409978  45.2480014
  76.3269992 139.0159978  44.7510014  76.7508546 139.6323993  45.1938891
  77.5979992 141.7569978  47.3920014  77.8119992 140.9869978  47.9200014
  78.3359992 141.8469978  46.7890014  77.7270200 141.6638587  47.3827035
  85.3749992 144.3029978  50.1520014  85.6789992 143.6169978  49.5570014
  86.0969992 144.4219978  50.7700014  85.5141240 144.2252314  50.1540959
  94.0379992 135.9049978  51.0120014  94.0879992 136.5149978  51.7480014
  94.4639992 136.3659978  50.2890014  94.1024108 136.0507709  51.0150112
  88.5159992 138.6969978  50.4790014  88.6589992 137.7509978  50.4990014
  88.4099992 138.9039978  49.5510014  88.5212403 138.5954797  50.3562239
  81.6709992 136.7989978  47.7520014  81.7139992 137.6589978  47.3330014
  81.2129992 136.2469978  47.1180014  81.6149871 136.8419245  47.6090761
  89.3929992 136.9299978  46.1530014  90.0399992 136.6009978  46.7770014
  89.9029992 137.4469978  45.5300014  89.5504351 136.9549067  46.1541037
  78.2909992 139.1959978  48.5140014  78.9449992 138.6459978  48.9460014
  78.3149992 138.9219978  47.5970014  78.3837199 139.0837167  48.4491668
  83.4479992 140.7459978  47.7290014  84.0639992 140.2189978  48.2380014
  82.8609992 140.1059978  47.3250014  83.4530154 140.5873954  47.7440945
  94.4299992 137.3829978  53.2480014  93.7409992 138.0409978  53.1530014
  94.4449992 137.1849978  54.1850014  94.3377756 137.4462603  53.3615812
  80.4809992 135.7169978  51.8260014  80.2619992 136.2469978  51.0590014
  79.8129992 135.9429978  52.4730014  80.3606975 135.8200967  51.8085140
  87.8499992 145.2169978  45.3700014  87.5549992 144.8939978  44.5180014
  87.5259992 146.1169978  45.4110014  87.7658460 145.2944464  45.2589714
  83.0499992 143.3919978  52.1130014  82.3099992 143.9909978  52.2170014
  83.7639992 143.9459978  51.7980014  83.0453500 143.5487829  52.0846371
  91.1569992 136.2209978  48.1330014  90.9419992 135.4549978  48.6660014
  91.8129992 136.6929978  48.6460014  91.2162673 136.1800728  48.2751990
  80.0749992 137.6089978  49.7780014  80.6889992 138.2419978  50.1510014
  80.5869992 137.1369978  49.1220014  80.2281962 137.6317249  49.7402935
  81.4579992 145.3569978  52.9000014  81.4519992 146.2359978  52.5220014
  80.6039992 145.2729978  53.3250014  81.3417925 145.4659535  52.9056887
  77.5789992 145.0279978  43.6820014  77.3069992 145.2569978  42.7940014
  77.6239992 145.8649978  44.1430014  77.5478097 145.1726163  43.6226683
  91.5039992 134.9359978  51.8120014  90.7679992 135.5459978  51.7750014
  92.1879992 135.3509978  51.2860014  91.4955367 135.0757551  51.7358174
  84.5079992 133.0219978  49.2780014  84.3899992 132.0739978  49.2240014
  83.6529992 133.3549978  49.5510014  84.3762805 132.9372202  49.3075079
  92.3019992 144.8979978  54.0060014  92.4409992 144.3059978  53.2670014
  92.4689992 145.7709978  53.6500014  92.3436193 144.9348896  53.8566211
  86.7739992 141.8599978  43.7790014  86.0629992 142.3949978  43.4270014
  87.4649992 141.9149978  43.1190014  86.7700751 141.9406777  43.6415858
  86.8279992 140.3169978  40.8170014  87.5289992 140.3399978  41.4690014
  87.1299992 139.6889978  40.1610014  86.9648202 140.2352212  40.8175609
  94.1429992 141.2379978  52.0720014  93.4909992 141.9319978  52.1610014
  94.6089992 141.4479978  51.2620014  94.1165937 141.3615019  51.9747533
  90.1799992 142.0689978  44.7300014  89.4479992 142.2979978  45.3040014
  90.6269992 141.3559978  45.1850014  90.1403963 142.0038729  44.8699945
  90.0769992 140.2439978  53.7980014  90.1569992 141.0069978  54.3700014
  89.4759992 140.5229978  53.1080014  90.0066547 140.3862457  53.7830047
  81.8249992 142.6999978  46.6130014  81.4949992 142.3289978  45.7950014
  82.4139992 142.0289978  46.9600014  81.8593970 142.5586063  46.5479404
  82.1919992 141.4679978  50.2460014  82.7569992 141.5899978  49.4840014
  82.5109992 142.1059978  50.8850014  82.3124166 141.5708791  50.2280348
  89.0509992 141.2319978  42.4160014  89.6299992 141.3819978  43.1620014
  89.4649992 141.7019978  41.6920014  89.1863358 141.3160954  42.4203953
  79.9919992 142.0659978  54.1920014  80.0619992 142.7169978  54.8910014
  79.1009992 142.1689978  53.8570014  79.8811690 142.1689249  54.2423043
  92.7499992 132.9819978  42.2290014  91.8499992 133.1209978  42.5240014
  93.0019992 133.8129978  41.8270014  92.6608683 133.1134055  42.2150232
  80.8159992 141.7689978  44.2020014  80.5239992 142.5369978  43.7110014
  80.1409992 141.1099978  44.0390014  80.6848497 141.7849745  44.1128260
  76.9089992 144.1319978  53.0170014  76.4069992 144.1039978  52.2020014
  76.9139992 143.2269978  53.3270014  76.8409832 144.0057486  52.9474121
  92.0089992 139.0719978  56.0640014  91.6009992 139.5519978  55.3430014
  92.0489992 138.1659978  55.7560014  91.9586221 139.0152449  55.9238267
  79.1579992 145.4559978  54.0600014  79.3739992 145.0939978  54.9200014
  78.3019992 145.0809978  53.8510014  79.0718810 145.3558837  54.1492680
  81.7759992 133.9259978  50.0560014  80.9149992 133.8389978  49.6480014
  81.7539992 134.7819978  50.4840014  81.6550491 134.0298003  50.0579582
  86.4389992 133.6479978  53.4310014  86.8589992 133.2329978  54.1840014
  85.5059992 133.4689978  53.5480014  86.3703736 133.5669910  53.5498968
  89.7659992 137.4029978  54.2840014  89.2519992 137.2779978  55.0820014
  89.6099992 138.3159978  54.0400014  89.6746967 137.5092123  54.3600937
  90.5279992 142.2639978  40.0450014  90.5699992 142.0419978  39.1150014
  91.3769992 142.6629978  40.2350014  90.6485253 142.2875498  39.9433822
  86.1009992 136.1399978  40.7160014  85.8469992 136.1589978  41.6380014
  85.8439992 135.2689978  40.4140014  86.0314508 136.0248280  40.8014803
  81.8669992 138.8909978  51.1510014  81.2259992 138.8509978  51.8600014
  81.9049992 139.8179978  50.9130014  81.7843010 139.0107668  51.2159946
  81.8639992 139.1119978  46.0630014  80.9719992 138.7719978  46.0040014
  82.3149992 138.7349978  45.3070014  81.8027642 139.0144910  45.9527726
  87.3999992 139.5279978  44.8800014  86.9909992 140.3429978  44.5880014
  88.1199992 139.3879978  44.2660014  87.4414439 139.6205372  44.7570115
  86.5019992 139.7039978  56.3680014  85.9389992 138.9989978  56.6890014
  87.3279992 139.5829978  56.8360014  86.5366674 139.5912165  56.4751751
  88.4049992 138.9739978  47.6940014  88.2089992 139.5799978  46.9790014
  88.5859992 138.1409978  47.2600014  88.4026584 138.9442513  47.5374212
  79.6169992 139.2119978  53.0180014  79.5789992 139.6119978  53.8870014
  79.1269992 138.3949978  53.1080014  79.5455330 139.1562674  53.1491289
  82.9829992 136.5859978  39.8170014  82.5519992 136.1409978  40.5460014
  82.2649992 136.9569978  39.3040014  82.8269176 136.5752052  39.8474930
  76.2259992 136.3279978  46.8690014  76.8559992 136.2989978  47.5880014
  76.6749992 135.9029978  46.1380014  76.3730835 136.2665660  46.8687659
  77.4999992 137.0739978  42.2930014  77.9739992 137.6649978  41.7080014
  76.7819992 137.6039978  42.6400014  77.4678640 137.2265511  42.2597969
  87.6689992 140.6119978  52.3650014  87.9919992 139.9809978  51.7220014
  87.2279992 140.0779978  53.0260014  87.6536379 140.4533468  52.3662582
  84.4459992 136.5399978  47.1490014  83.5349992 136.5969978  47.4380014
  84.9509992 136.4799978  47.9600014  84.3896873 136.5396826  47.2981207
  79.2739992 138.1689978  45.9760014  78.3849992 138.2679978  45.6360014
  79.5709992 137.3269978  45.6300014  79.1924177 138.0687687  45.8826940
  82.9269992 138.1689978  43.6330014  83.8589992 138.2979978  43.8110014
  82.7119992 138.8379978  42.9830014  83.0254472 138.2770806  43.5694891
  88.8509992 135.7749978  50.4140014  88.1739992 135.9059978  51.0770014
  88.3659992 135.6199978  49.6030014  88.6927405 135.7719947  50.3952170
  81.6009992 139.3629978  41.1990014  81.0589992 138.9839978  40.5080014
  82.4349992 139.5579978  40.7710014  81.6394390 139.3374079  41.0464392
  79.7369992 143.9199978  56.2980014  80.4689992 144.1749978  56.8600014
  78.9559992 144.1249978  56.8140014  79.7316526 143.9825450  56.4445176
  85.7659992 139.3269978  49.0360014  86.3299992 138.7809978  48.4890014
  85.6179992 138.8059978  49.8250014  85.8233037 139.1816787  49.0677229
  80.7679992 135.4639978  45.4550014  80.4509992 134.5609978  45.4190014
  81.5489992 135.4659978  44.9020014  80.8302431 135.3407797  45.3753102
  84.3919992 137.7159978  51.4500014  83.5569992 138.1699978  51.5610014
  84.9159992 137.9919978  52.2020014  84.3486072 137.8153948  51.5668136
  84.9369992 143.9289978  43.1350014  84.1919992 143.4209978  42.8130014
  84.8019992 143.9779978  44.0810014  84.8168963 143.8661731  43.2188826
  92.0869992 143.0619978  51.9220014  92.7279992 143.5179978  51.3780014
  91.2559992 143.1749978  51.4590014  92.0625287 143.1396921  51.7849887
  88.8339992 136.7429978  41.3340014  87.8959992 136.8539978  41.1830014
  89.1319992 137.5989978  41.6410014  88.7456318 136.8740158  41.3548145
  86.4559992 144.1129978  54.3720014  86.1099992 143.7309978  55.1790014
  86.2559992 145.0459978  54.4430014  86.3815987 144.1869002  54.4920461
  89.5529992 138.6099978  42.9950014  90.4449992 138.4719978  43.3140014
  89.6089992 139.4009978  42.4580014  89.6827325 138.6979918  42.9661217
  80.0609992 143.2239978  48.9050014  80.8059992 143.2209978  48.3030014
  80.1389992 142.3999978  49.3860014  80.1733365 143.1122384  48.8877430
  87.0619992 145.3869978  42.1600014  86.7669992 146.2139978  42.5420014
  86.3589992 144.7679978  42.3570014  86.9266379 145.4164171  42.2388654
  77.0689992 141.6839978  54.2200014  77.2919992 141.2659978  55.0510014
  76.4669992 141.0719978  53.7970014  77.0181513 141.5439606  54.2766740
  84.0859992 141.2009978  56.4330014  83.7899992 141.0359978  55.5370014
  85.0169992 140.9809978  56.4220014  84.1714401 141.1486879  56.3090206
  94.4379992 138.8189978  42.6900014  93.8829992 138.4229978  42.0170014
  94.5379992 139.7299978  42.4120014  94.3756816 138.8879505  42.5605033
  94.4009992 144.6199978  55.5270014  93.5499992 144.8579978  55.1590014
  94.9909992 144.6029978  54.7740014  94.3643812 144.6502524  55.3748453
  89.8929992 142.4129978  50.1760014  88.9649992 142.1819978  50.1490014
  90.3439992 141.6359978  49.8460014  89.8268165 142.2762774  50.1276790
  78.1909992 141.6039978  40.8960014  78.8069992 142.2309978  41.2760014
  77.3289992 141.9199978  41.1680014  78.1587678 141.7324412  40.9847209
  83.8639992 144.4049978  45.8850014  83.6229992 145.3299978  45.9270014
  83.1229992 143.9459978  46.2820014  83.7309206 144.4695915  45.9443769
  87.9219992 144.6529978  51.9010014  87.4969992 144.4249978  52.7270014
  88.5029992 143.9139978  51.7190014  87.9423395 144.5219545  51.9894414
  78.7029992 136.4379978  53.7780014  77.8109992 136.7759978  53.7100014
  78.6049992 135.5819978  54.1960014  78.5674475 136.3686543  53.8251704
  90.9909992 144.2539978  43.2020014  90.7139992 143.5259978  43.7580014
  91.9189992 144.3729978  43.4070014  91.0784499 144.1704213  43.3058044
  79.6059992 143.5159978  42.3890014  78.9199992 143.8689978  42.9560014
  80.1289992 144.2789978  42.1420014  79.5828402 143.6673901  42.4331801
  87.4379992 136.1789978  52.6680014  88.1369992 136.2529978  53.3180014
  87.0569992 135.3139978  52.8220014  87.4822097 136.0722389  52.7777997
  88.2219992 135.8309978  43.7650014  88.4419992 136.3019978  42.9610014
  88.7809992 136.2249978  44.4350014  88.3276731 135.9487287  43.7455033
  85.4219992 137.5589978  44.6000014  86.2339992 138.0629978  44.6460014
  85.1779992 137.4139978  45.5140014  85.5001467 137.6083749  44.7298575
  85.9579992 138.5449978  53.7840014  86.0769992 139.1189978  54.5410014
  86.6129992 137.8569978  53.8990014  86.0628684 138.5305194  53.9031674
  86.3059992 134.6399978  45.5380014  85.9589992 135.2569978  46.1820014
  86.9649992 135.1409978  45.0560014  86.3475090 134.7921575  45.5610681
  81.9639992 135.7029978  42.2250014  81.8799992 136.5909978  42.5720014
  82.8539992 135.4379978  42.4570014  82.0728163 135.7887179  42.3038596
  92.1619992 136.4519978  54.6190014  91.2459992 136.7139978  54.5320014
  92.4979992 136.4489978  53.7230014  92.0818499 136.4875163  54.4858766
  90.7649992 140.2019978  48.7150014  89.9669992 139.7869978  48.3870014
  91.2099992 139.5119978  49.2060014  90.7159684 140.0518628  48.7365227
  78.5379992 138.7949978  40.4010014  78.4929992 139.7339978  40.5800014
  77.6499992 138.5589978  40.1320014  78.4118166 138.8916687  40.3891524
  79.3459992 133.5759978  49.0750014  79.1169992 133.6349978  48.1470014
  78.9039992 132.7849978  49.3810014  79.2548801 133.4770540  48.9894729
  77.4719992 143.9399978  57.5190014  77.6159992 143.0379978  57.2330014
  76.6999992 144.2259978  57.0320014  77.3872733 143.8551798  57.4139532
  81.8129992 144.2829978  39.6520014  81.8779992 143.4889978  40.1820014
  82.4659992 144.1649978  38.9620014  81.9101605 144.1583430  39.6312997
  84.1269992 143.9089978  56.9520014  83.7989992 144.1799978  56.0950014
  84.2789992 142.9679978  56.8640014  84.1026412 143.8189046  56.8227822
  87.1659992 145.3299978  39.3880014  86.8969992 145.5109978  40.2880014
  86.9589992 144.4049978  39.2560014  87.1011191 145.2297119  39.4935524
  89.8619992 143.8249978  54.3350014  90.6069992 144.4139978  54.2160014
  89.1049992 144.4069978  54.3990014  89.8615470 143.9842128  54.3273799
  78.3049992 141.1399978  56.9390014  78.7129992 140.2829978  56.8180014
  78.0439992 141.1539978  57.8600014  78.3256016 141.0245119  57.0469192
  82.9629992 142.2559978  41.9580014  82.5029992 141.7719978  42.6430014
  83.2179992 141.5869978  41.3220014  82.9344856 142.0993669  41.9658397
  82.2519992 140.1489978  54.3140014  81.6329992 140.8229978  54.5940014
  82.5959992 140.4699978  53.4800014  82.2137123 140.2846887  54.2396388
  84.0339992 140.4989978  40.2200014  83.8529992 140.3439978  39.2930014
  84.9839992 140.6069978  40.2650014  84.1376566 140.4923669  40.0990929
  87.2709992 142.6199978  57.5910014  88.2249992 142.7039978  57.5640014
  87.1109992 141.9079978  58.2110014  87.3797182 142.5352842  57.6710733
  93.4239992 142.8529978  39.6660014  93.1499992 142.4289978  38.8530014
  93.4629992 143.7849978  39.4490014  93.3917716 142.9208827  39.5254286
  82.5909992 137.5039978  55.3960014  82.7409992 136.7749978  54.7940014
  82.5929992 138.2809978  54.8370014  82.6117967 137.5092708  55.2380541
  83.0039992 135.8729978  52.8890014  83.5389992 136.3249978  52.2370014
  82.1509992 135.7649978  52.4660014  82.9620374 135.9202665  52.7426710
  84.5849992 141.3129978  53.1280014  85.3359992 141.1569978  52.5550014
  84.2459992 142.1649978  52.8530014  84.6419587 141.4068138  53.0124078
  89.0009992 139.1279978  58.1570014  89.1929992 138.1969978  58.0450014
  89.8589992 139.5529978  58.1460014  89.1432182 139.0580070  58.1401862
  90.3179992 141.9169978  56.2340014  90.0359992 142.6259978  55.6560014
  91.2599992 141.8439978  56.0830014  90.4067921 142.0042193  56.1344225
  81.0699992 138.7019978  57.3070014  80.3019992 138.1689978  57.0970014
  81.7479992 138.3919978  56.7080014  81.0567235 138.5871754  57.1972413
  83.8089992 133.3299978  53.3200014  83.7109992 134.2759978  53.2150014
  83.0669992 132.9569978  52.8440014  83.6952534 133.4091773  53.2412600
  85.0729992 137.6509978  56.8840014  84.8379992 137.4319978  57.7850014
  84.2899992 137.4439978  56.3740014  84.9349095 137.5929892  56.9385353
  87.7889992 136.7789978  55.9590014  86.8409992 136.8109978  56.0910014
  88.1009992 136.1529978  56.6130014  87.7015293 136.6987923  56.0654148
  89.4229992 135.4129978  57.9640014  89.3259992 134.4609978  57.9590014
  89.1009992 135.6809978  58.8250014  89.3662468 135.3190884  58.0796210
  79.2499992 136.6219978  57.0120014  79.4619992 135.9159978  56.4020014
  79.1389992 136.1849978  57.8560014  79.2640269 136.4661921  57.0425873
  84.0309992 132.6239978  55.9910014  84.7429992 131.9839978  55.9770014
  83.9299992 132.8899978  55.0780014  84.1147387 132.5724330  55.8655563
  84.3849992 134.3059978  58.0450014  84.2529992 133.8309978  57.2250014
  83.7849992 135.0509978  57.9900014  84.2859070 134.3415789  57.9253251
  92.5809992 145.4659978  58.1270014  91.7149992 145.3609978  58.5210014
  92.9569992 146.2239978  58.5730014  92.5133401 145.5541708  58.2412620
  93.8819992 143.7219978  43.6410014  94.7319992 144.1429978  43.7680014
  93.8869992 142.9819978  44.2480014  93.9991143 143.6796094  43.7404750
  94.2759992 141.7759978  45.4640014  93.5499992 141.2959978  45.8620014
  94.8579992 141.9809978  46.1970014  94.2552730 141.7380184  45.6174149
  94.0349992 144.5609978  50.4120014  94.8689992 144.1829978  50.1310014
  94.1469992 145.5039978  50.2930014  94.1641917 144.6367943  50.3574861
  94.5449992 141.6769978  41.8550014  94.0229992 142.0329978  41.1370014
  94.5119992 142.3519978  42.5340014  94.4690129 141.8169598  41.8483355
  92.8939992 138.9159978  40.4060014  92.9899992 139.5829978  39.7260014
  92.7539992 138.1009978  39.9250014  92.8882040 138.8970671  40.2478378
  92.0629992 140.2969978  46.0270014  91.9129992 139.3519978  46.0070014
  91.7089992 140.5779978  46.8710014  91.9946351 140.2056644  46.1383220
  77.0979992 142.3749978  50.0380014  77.2829992 142.2929978  49.1020014
  77.9479992 142.2509978  50.4610014  77.2380928 142.3470463  49.9672893
  92.9189992 142.2669978  55.6660014  93.5019992 141.5319978  55.8580014
  93.4829992 143.0389978  55.7130014  93.0749781 142.2708145  55.6986164
  94.4159992 140.1699978  56.3510014  93.5529992 139.7909978  56.1850014
  95.0199992 139.4309978  56.2760014  94.3796085 140.0183223  56.3181695
  92.1409992 136.3239978  39.5240014  92.7519992 135.9529978  40.1610014
  91.3039992 135.9029978  39.7200014  92.1114947 136.2162756  39.6377252
  91.7739992 137.8789978  44.4900014  92.0529992 136.9719978  44.6140014
  92.5329992 138.3129978  44.1010014  91.9148619 137.8134502  44.4543795
  92.3849992 138.4609978  49.9260014  93.3179992 138.6729978  49.8910014
  92.1499992 138.5619978  50.8480014  92.4809517 138.5036833  50.0459130
  92.4149992 139.1979978  52.7020014  91.5719992 139.4659978  53.0680014
  92.8569992 140.0199978  52.4910014  92.3594138 139.3458273  52.7235518
  76.6959992 137.6449978  56.1780014  77.6149992 137.5229978  56.4150014
  76.2459992 136.8949978  56.5680014  76.7610087 137.5269608  56.2631410
  94.6979992 133.1779978  58.0550014  95.0469992 132.5239978  57.4500014
  94.8449992 134.0149978  57.6150014  94.7656824 133.2016024  57.9126304
  92.3869992 135.1419978  44.5380014  92.5689992 134.6929978  45.3630014
  91.7869992 134.5579978  44.0740014  92.3308187 135.0015552  44.5882739
  77.9169992 135.9579978  49.0700014  78.3619992 135.1659978  49.3720014
  78.3829992 136.6739978  49.5000014  78.0409718 135.9464534  49.1695265
  76.2209992 138.9569978  50.1390014  76.7129992 138.7359978  49.3480014
  76.5829992 139.7969978  50.4200014  76.3372923 139.0403468  50.0687407
  94.2169992 135.2869978  56.4040014  93.2999992 135.5579978  56.3690014
  94.3399992 134.7519978  55.6200014  94.1079672 135.2517885  56.2931862
  94.2539992 135.2099978  41.0660014  94.6659992 134.4889978  40.5910014
  94.9349992 135.8789978  41.1240014  94.4025536 135.2017766  41.0088024
  76.5349992 135.2149978  44.1930014  75.6099992 135.4229978  44.0640014
  76.9889992 135.6989978  43.5030014  76.4696298 135.3089299  44.0820451
  76.4979992 133.9529978  52.5370014  75.8329992 133.7069978  53.1800014
  76.0549992 134.5749978  51.9600014  76.3471168 134.0034214  52.5469848
  93.2179992 133.3769978  54.2230014  92.4049992 133.7019978  53.8360014
  93.4509992 132.6159978  53.6900014  93.1381347 133.3186880  54.0979841
  86.6479992 134.8259978  48.5460014  85.9739992 134.1959978  48.8020014
  87.2119992 134.3419978  47.9430014  86.6320384 134.6743708  48.4995020
  91.7909992 132.9329978  48.6590014  92.3939992 133.4809978  48.1570014
  90.9209992 133.2519978  48.4180014  91.7559157 133.0510373  48.5577910
  93.5179992 134.0719978  46.9920014  94.1289992 133.5579978  46.4650014
  93.8999992 134.9489978  47.0150014  93.6533305 134.1202050  46.9229418
  78.9749992 133.4599978  46.3680014  78.1979992 133.2249978  45.8610014
  79.5049992 132.6629978  46.3770014  78.9403451 133.3201268  46.2998627
  77.8109992 133.2579978  42.1720014  78.2499992 133.8689978  41.5800014
  77.1769992 133.7959978  42.6460014  77.7853859 133.4144064  42.1550305
  83.5539992 133.3859978  46.1810014  84.4279992 133.7749978  46.1520014
  83.4179992 133.1709978  47.1040014  83.6551953 133.4101643  46.3017617
  89.1109992 133.4159978  47.8310014  89.1869992 133.5119978  46.8810014
  88.8359992 132.5089978  47.9590014  89.0841871 133.3064146  47.7183944
  90.4639992 133.4419978  43.5230014  89.7609992 134.0569978  43.3130014
  90.0189992 132.6049978  43.6540014  90.3076550 133.4129668  43.5119837
  79.6719992 135.1739978  40.6140014  80.1629992 134.5439978  40.0870014
  80.2949992 135.4699978  41.2770014  79.8235304 135.1277376  40.6314940
  84.6979992 135.4669978  43.0710014  84.8759992 134.8199978  43.7540014
  84.6439992 136.3009978  43.5380014  84.7150678 135.4911604  43.2276301
  78.9319992 133.9739978  55.8860014  78.5659992 133.2079978  56.3280014
  79.8449992 134.0029978  56.1720014  79.0053172 133.8730324  55.9851890
  80.9049992 133.3239978  57.4210014  81.8039992 133.0499978  57.2370014
  80.5189992 132.5819978  57.8860014  80.9757307 133.1862196  57.4587098
  89.3269992 132.6569978  57.6040014  89.4029992 132.2309978  58.4570014
  90.2199992 132.6699978  57.2610014  89.4582303 132.6003493  57.6745497
 106.9089992 142.6159978  46.3270014 106.9979992 143.5599978  46.1950014
 106.2709992 142.3409978  45.6690014 106.8349062 142.7079812  46.2199641
 105.8419992 141.8709978  49.7460014 105.8039992 141.2249978  50.4510014
 105.5199992 141.4039978  48.9750014 105.7932679 141.7194276  49.7382921
  98.2099992 141.4849978  51.3390014  98.2519992 140.8599978  52.0620014
  98.9129992 142.1089978  51.5210014  98.3107345 141.4837873  51.4625274
 109.5479992 144.8099978  48.0470014 109.1069992 144.0899978  48.4980014
 109.5349992 145.5309978  48.6770014 109.4859215 144.8089291  48.1938105
  95.7439992 139.5949978  45.2660014  95.2959992 140.4409978  45.2480014
  95.1829992 139.0159978  44.7510014  95.6068546 139.6323993  45.1938891
  96.4539992 141.7569978  47.3920014  96.6679992 140.9869978  47.9200014
  97.1919992 141.8469978  46.7890014  96.5830200 141.6638587  47.3827035
 104.2309992 144.3029978  50.1520014 104.5349992 143.6169978  49.5570014
 104.9529992 144.4219978  50.7700014 104.3701240 144.2252314  50.1540959
 112.8939992 135.9049978  51.0120014 112.9439992 136.5149978  51.7480014
 113.3199992 136.3659978  50.2890014 112.9584108 136.0507709  51.0150112
 107.3719992 138.6969978  50.4790014 107.5149992 137.7509978  50.4990014
 107.2659992 138.9039978  49.5510014 107.3772403 138.5954797  50.3562239
 100.5269992 136.7989978  47.7520014 100.5699992 137.6589978  47.3330014
 100.0689992 136.2469978  47.1180014 100.4709871 136.8419245  47.6090761
 108.2489992 136.9299978  46.1530014 108.8959992 136.6009978  46.7770014
 108.7589992 137.4469978  45.5300014 108.4064351 136.9549067  46.1541037
  97.1469992 139.1959978  48.5140014  97.8009992 138.6459978  48.9460014
  97.1709992 138.9219978  47.5970014  97.2397199 139.0837167  48.4491668
 102.3039992 140.7459978  47.7290014 102.9199992 140.2189978  48.2380014
 101.7169992 140.1059978  47.3250014 102.3090154 140.5873954  47.7440945
 113.2859992 137.3829978  53.2480014 112.5969992 138.0409978  53.1530014
 113.3009992 137.1849978  54.1850014 113.1937756 137.4462603  53.3615812
  99.3369992 135.7169978  51.8260014  99.1179992 136.2469978  51.0590014
  98.6689992 135.9429978  52.4730014  99.2166975 135.8200967  51.8085140
 106.7059992 145.2169978  45.3700014 106.4109992 144.8939978  44.5180014
 106.3819992 146.1169978  45.4110014 106.6218460 145.2944464  45.2589714
 101.9059992 143.3919978  52.1130014 101.1659992 143.9909978  52.2170014
 102.6199992 143.9459978  51.7980014 101.9013500 143.5487829  52.0846371
 110.0129992 136.2209978  48.1330014 109.7979992 135.4549978  48.6660014
 110.6689992 136.6929978  48.6460014 110.0722673 136.1800728  48.2751990
  98.9309992 137.6089978  49.7780014  99.5449992 138.2419978  50.1510014
  99.4429992 137.1369978  49.1220014  99.0841962 137.6317249  49.7402935
 100.3139992 145.3569978  52.9000014 100.3079992 146.2359978  52.5220014
  99.4599992 145.2729978  53.3250014 100.1977925 145.4659535  52.9056887
  96.4349992 145.0279978  43.6820014  96.1629992 145.2569978  42.7940014
  96.4799992 145.8649978  44.1430014  96.4038097 145.1726163  43.6226683
 110.3599992 134.9359978  51.8120014 109.6239992 135.5459978  51.7750014
 111.0439992 135.3509978  51.2860014 110.3515367 135.0757551  51.7358174
 103.3639992 133.0219978  49.2780014 103.2459992 132.0739978  49.2240014
 102.5089992 133.3549978  49.5510014 103.2322805 132.9372202  49.3075079
 111.1579992 144.8979978  54.0060014 111.2969992 144.3059978  53.2670014
 111.3249992 145.7709978  53.6500014 111.1996193 144.9348896  53.8566211
 105.6299992 141.8599978  43.7790014 104.9189992 142.3949978  43.4270014
 106.3209992 141.9149978  43.1190014 105.6260751 141.9406777  43.6415858
 105.6839992 140.3169978  40.8170014 106.3849992 140.3399978  41.4690014
 105.9859992 139.6889978  40.1610014 105.8208202 140.2352212  40.8175609
 112.9989992 141.2379978  52.0720014 112.3469992 141.9319978  52.1610014
 113.4649992 141.4479978  51.2620014 112.9725937 141.3615019  51.9747533
 109.0359992 142.0689978  44.7300014 108.3039992 142.2979978  45.3040014
 109.4829992 141.3559978  45.1850014 108.9963963 142.0038729  44.8699945
 108.9329992 140.2439978  53.7980014 109.0129992 141.0069978  54.3700014
 108.3319992 140.5229978  53.1080014 108.8626547 140.3862457  53.7830047
 100.6809992 142.6999978  46.6130014 100.3509992 142.3289978  45.7950014
 101.2699992 142.0289978  46.9600014 100.7153970 142.5586063  46.5479404
 101.0479992 141.4679978  50.2460014 101.6129992 141.5899978  49.4840014
 101.3669992 142.1059978  50.8850014 101.1684166 141.5708791  50.2280348
 107.9069992 141.2319978  42.4160014 108.4859992 141.3819978  43.1620014
 108.3209992 141.7019978  41.6920014 108.0423358 141.3160954  42.4203953
  98.8479992 142.0659978  54.1920014  98.9179992 142.7169978  54.8910014
  97.9569992 142.1689978  53.8570014  98.7371690 142.1689249  54.2423043
 111.6059992 132.9819978  42.2290014 110.7059992 133.1209978  42.5240014
 111.8579992 133.8129978  41.8270014 111.5168683 133.1134055  42.2150232
  99.6719992 141.7689978  44.2020014  99.3799992 142.5369978  43.7110014
  98.9969992 141.1099978  44.0390014  99.5408497 141.7849745  44.1128260
  95.7649992 144.1319978  53.0170014  95.2629992 144.1039978  52.2020014
  95.7699992 143.2269978  53.3270014  95.6969832 144.0057486  52.9474121
 110.8649992 139.0719978  56.0640014 110.4569992 139.5519978  55.3430014
 110.9049992 138.1659978  55.7560014 110.8146221 139.0152449  55.9238267
  98.0139992 145.4559978  54.0600014  98.2299992 145.0939978  54.9200014
  97.1579992 145.0809978  53.8510014  97.9278810 145.3558837  54.1492680
 100.6319992 133.9259978  50.0560014  99.7709992 133.8389978  49.6480014
 100.6099992 134.7819978  50.4840014 100.5110491 134.0298003  50.0579582
 105.2949992 133.6479978  53.4310014 105.7149992 133.2329978  54.1840014
 104.3619992 133.4689978  53.5480014 105.2263736 133.5669910  53.5498968
 108.6219992 137.4029978  54.2840014 108.1079992 137.2779978  55.0820014
 108.4659992 138.3159978  54.0400014 108.5306967 137.5092123  54.3600937
 109.3839992 142.2639978  40.0450014 109.4259992 142.0419978  39.1150014
 110.2329992 142.6629978  40.2350014 109.5045253 142.2875498  39.9433822
 104.9569992 136.1399978  40.7160014 104.7029992 136.1589978  41.6380014
 104.6999992 135.2689978  40.4140014 104.8874508 136.0248280  40.8014803
 100.7229992 138.8909978  51.1510014 100.0819992 138.8509978  51.8600014
 100.7609992 139.8179978  50.9130014 100.6403010 139.0107668  51.2159946
 100.7199992 139.1119978  46.0630014  99.8279992 138.7719978  46.0040014
 101.1709992 138.7349978  45.3070014 100.6587642 139.0144910  45.9527726
 106.2559992 139.5279978  44.8800014 105.8469992 140.3429978  44.5880014
 106.9759992 139.3879978  44.2660014 106.2974439 139.6205372  44.7570115
 105.3579992 139.7039978  56.3680014 104.7949992 138.9989978  56.6890014
 106.1839992 139.5829978  56.8360014 105.3926674 139.5912165  56.4751751
 107.2609992 138.9739978  47.6940014 107.0649992 139.5799978  46.9790014
 107.4419992 138.1409978  47.2600014 107.2586584 138.9442513  47.5374212
  98.4729992 139.2119978  53.0180014  98.4349992 139.6119978  53.8870014
  97.9829992 138.3949978  53.1080014  98.4015330 139.1562674  53.1491289
 101.8389992 136.5859978  39.8170014 101.4079992 136.1409978  40.5460014
 101.1209992 136.9569978  39.3040014 101.6829176 136.5752051  39.8474930
  95.0819992 136.3279978  46.8690014  95.7119992 136.2989978  47.5880014
  95.5309992 135.9029978  46.1380014  95.2290835 136.2665660  46.8687659
  96.3559992 137.0739978  42.2930014  96.8299992 137.6649978  41.7080014
  95.6379992 137.6039978  42.6400014  96.3238640 137.2265511  42.2597969
 106.5249992 140.6119978  52.3650014 106.8479992 139.9809978  51.7220014
 106.0839992 140.0779978  53.0260014 106.5096379 140.4533468  52.3662582
 103.3019992 136.5399978  47.1490014 102.3909992 136.5969978  47.4380014
 103.8069992 136.4799978  47.9600014 103.2456873 136.5396826  47.2981207
  98.1299992 138.1689978  45.9760014  97.2409992 138.2679978  45.6360014
  98.4269992 137.3269978  45.6300014  98.0484177 138.0687687  45.8826940
 101.7829992 138.1689978  43.6330014 102.7149992 138.2979978  43.8110014
 101.5679992 138.8379978  42.9830014 101.8814472 138.2770806  43.5694891
 107.7069992 135.7749978  50.4140014 107.0299992 135.9059978  51.0770014
 107.2219992 135.6199978  49.6030014 107.5487405 135.7719947  50.3952170
 100.4569992 139.3629978  41.1990014  99.9149992 138.9839978  40.5080014
 101.2909992 139.5579978  40.7710014 100.4954390 139.3374079  41.0464392
  98.5929992 143.9199978  56.2980014  99.3249992 144.1749978  56.8600014
  97.8119992 144.1249978  56.8140014  98.5876526 143.9825450  56.4445176
 104.6219992 139.3269978  49.0360014 105.1859992 138.7809978  48.4890014
 104.4739992 138.8059978  49.8250014 104.6793037 139.1816787  49.0677229
  99.6239992 135.4639978  45.4550014  99.3069992 134.5609978  45.4190014
 100.4049992 135.4659978  44.9020014  99.6862431 135.3407797  45.3753102
 103.2479992 137.7159978  51.4500014 102.4129992 138.1699978  51.5610014
 103.7719992 137.9919978  52.2020014 103.2046072 137.8153948  51.5668136
 103.7929992 143.9289978  43.1350014 103.0479992 143.4209978  42.8130014
 103.6579992 143.9779978  44.0810014 103.6728963 143.8661731  43.2188826
 110.9429992 143.0619978  51.9220014 111.5839992 143.5179978  51.3780014
 110.1119992 143.1749978  51.4590014 110.9185287 143.1396921  51.7849887
 107.6899992 136.7429978  41.3340014 106.7519992 136.8539978  41.1830014
 107.9879992 137.5989978  41.6410014 107.6016318 136.8740158  41.3548145
 105.3119992 144.1129978  54.3720014 104.9659992 143.7309978  55.1790014
 105.1119992 145.0459978  54.4430014 105.2375987 144.1869002  54.4920461
 108.4089992 138.6099978  42.9950014 109.3009992 138.4719978  43.3140014
 108.4649992 139.4009978  42.4580014 108.5387325 138.6979918  42.9661217
  98.9169992 143.2239978  48.9050014  99.6619992 143.2209978  48.3030014
  98.9949992 142.3999978  49.3860014  99.0293365 143.1122384  48.8877430
 105.9179992 145.3869978  42.1600014 105.6229992 146.2139978  42.5420014
 105.2149992 144.7679978  42.3570014 105.7826379 145.4164171  42.2388654
  95.9249992 141.6839978  54.2200014  96.1479992 141.2659978  55.0510014
  95.3229992 141.0719978  53.7970014  95.8741513 141.5439606  54.2766740
 102.9419992 141.2009978  56.4330014 102.6459992 141.0359978  55.5370014
 103.8729992 140.9809978  56.4220014 103.0274401 141.1486879  56.3090206
 113.2939992 138.8189978  42.6900014 112.7389992 138.4229978  42.0170014
 113.3939992 139.7299978  42.4120014 113.2316816 138.8879505  42.5605033
 113.2569992 144.6199978  55.5270014 112.4059992 144.8579978  55.1590014
 113.8469992 144.6029978  54.7740014 113.2203812 144.6502524  55.3748453
 108.7489992 142.4129978  50.1760014 107.8209992 142.1819978  50.1490014
 109.1999992 141.6359978  49.8460014 108.6828165 142.2762774  50.1276790
  97.0469992 141.6039978  40.8960014  97.6629992 142.2309978  41.2760014
  96.1849992 141.9199978  41.1680014  97.0147678 141.7324412  40.9847209
 102.7199992 144.4049978  45.8850014 102.4789992 145.3299978  45.9270014
 101.9789992 143.9459978  46.2820014 102.5869206 144.4695915  45.9443769
 106.7779992 144.6529978  51.9010014 106.3529992 144.4249978  52.7270014
 107.3589992 143.9139978  51.7190014 106.7983395 144.5219545  51.9894414
  97.5589992 136.4379978  53.7780014  96.6669992 136.7759978  53.7100014
  97.4609992 135.5819978  54.1960014  97.4234475 136.3686543  53.8251704
 109.8469992 144.2539978  43.2020014 109.5699992 143.5259978  43.7580014
 110.7749992 144.3729978  43.4070014 109.9344499 144.1704213  43.3058044
  98.4619992 143.5159978  42.3890014  97.7759992 143.8689978  42.9560014
  98.9849992 144.2789978  42.1420014  98.4388402 143.6673901  42.4331801
 106.2939992 136.1789978  52.6680014 106.9929992 136.2529978  53.3180014
 105.9129992 135.3139978  52.8220014 106.3382097 136.0722389  52.7777997
 107.0779992 135.8309978  43.7650014 107.2979992 136.3019978  42.9610014
 107.6369992 136.2249978  44.4350014 107.1836731 135.9487287  43.7455033
 104.2779992 137.5589978  44.6000014 105.0899992 138.0629978  44.6460014
 104.0339992 137.4139978  45.5140014 104.3561467 137.6083749  44.7298575
 104.8139992 138.5449978  53.7840014 104.9329992 139.1189978  54.5410014
 105.4689992 137.8569978  53.8990014 104.9188684 138.5305194  53.9031674
 105.1619992 134.6399978  45.5380014 104.8149992 135.2569978  46.1820014
 105.8209992 135.1409978  45.0560014 105.2035090 134.7921575  45.5610681
 100.8199992 135.7029978  42.2250014 100.7359992 136.5909978  42.5720014
 101.7099992 135.4379978  42.4570014 100.9288163 135.7887179  42.3038596
 111.0179992 136.4519978  54.6190014 110.1019992 136.7139978  54.5320014
 111.3539992 136.4489978  53.7230014 110.9378499 136.4875163  54.4858766
 109.6209992 140.2019978  48.7150014 108.8229992 139.7869978  48.3870014
 110.0659992 139.5119978  49.2060014 109.5719684 140.0518628  48.7365227
  97.3939992 138.7949978  40.4010014  97.3489992 139.7339978  40.5800014
  96.5059992 138.5589978  40.1320014  97.2678166 138.8916687  40.3891524
  98.2019992 133.5759978  49.0750014  97.9729992 133.6349978  48.1470014
  97.7599992 132.7849978  49.3810014  98.1108801 133.4770540  48.9894729
  96.3279992 143.9399978  57.5190014  96.4719992 143.0379978  57.2330014
  95.5559992 144.2259978  57.0320014  96.2432733 143.8551798  57.4139532
 100.6689992 144.2829978  39.6520014 100.7339992 143.4889978  40.1820014
 101.3219992 144.1649978  38.9620014 100.7661605 144.1583430  39.6312997
 102.9829992 143.9089978  56.9520014 102.6549992 144.1799978  56.0950014
 103.1349992 142.9679978  56.8640014 102.9586412 143.8189046  56.8227822
 106.0219992 145.3299978  39.3880014 105.7529992 145.5109978  40.2880014
 105.8149992 144.4049978  39.2560014 105.9571191 145.2297119  39.4935524
 108.7179992 143.8249978  54.3350014 109.4629992 144.4139978  54.2160014
 107.9609992 144.4069978  54.3990014 108.7175470 143.9842128  54.3273799
  97.1609992 141.1399978  56.9390014  97.5689992 140.2829978  56.8180014
  96.8999992 141.1539978  57.8600014  97.1816016 141.0245119  57.0469192
 101.8189992 142.2559978  41.9580014 101.3589992 141.7719978  42.6430014
 102.0739992 141.5869978  41.3220014 101.7904856 142.0993669  41.9658397
 101.1079992 140.1489978  54.3140014 100.4889992 140.8229978  54.5940014
 101.4519992 140.4699978  53.4800014 101.0697123 140.2846887  54.2396388
 102.8899992 140.4989978  40.2200014 102.7089992 140.3439978  39.2930014
 103.8399992 140.6069978  40.2650014 102.9936566 140.4923669  40.0990929
 106.1269992 142.6199978  57.5910014 107.0809992 142.7039978  57.5640014
 105.9669992 141.9079978  58.2110014 106.2357182 142.5352842  57.6710733
 112.2799992 142.8529978  39.6660014 112.0059992 142.4289978  38.8530014
 112.3189992 143.7849978  39.4490014 112.2477716 142.9208827  39.5254286
 101.4469992 137.5039978  55.3960014 101.5969992 136.7749978  54.7940014
 101.4489992 138.2809978  54.8370014 101.4677967 137.5092708  55.2380541
 101.8599992 135.8729978  52.8890014 102.3949992 136.3249978  52.2370014
 101.0069992 135.7649978  52.4660014 101.8180374 135.9202665  52.7426710
 103.4409992 141.3129978  53.1280014 104.1919992 141.1569978  52.5550014
 103.1019992 142.1649978  52.8530014 103.4979587 141.4068138  53.0124078
 107.8569992 139.1279978  58.1570014 108.0489992 138.1969978  58.0450014
 108.7149992 139.5529978  58.1460014 107.9992182 139.0580070  58.1401862
 109.1739992 141.9169978  56.2340014 108.8919992 142.6259978  55.6560014
 110.1159992 141.8439978  56.0830014 109.2627921 142.0042193  56.1344225
  99.9259992 138.7019978  57.3070014  99.1579992 138.1689978  57.0970014
 100.6039992 138.3919978  56.7080014  99.9127235 138.5871754  57.1972413
 102.6649992 133.3299978  53.3200014 102.5669992 134.2759978  53.2150014
 101.9229992 132.9569978  52.8440014 102.5512534 133.4091773  53.2412600
 103.9289992 137.6509978  56.8840014 103.6939992 137.4319978  57.7850014
 103.1459992 137.4439978  56.3740014 103.7909095 137.5929892  56.9385353
 106.6449992 136.7789978  55.9590014 105.6969992 136.8109978  56.0910014
 106.9569992 136.1529978  56.6130014 106.5575293 136.6987923  56.0654148
 108.2789992 135.4129978  57.9640014 108.1819992 134.4609978  57.9590014
 107.9569992 135.6809978  58.8250014 108.2222468 135.3190884  58.0796210
  98.1059992 136.6219978  57.0120014  98.3179992 135.9159978  56.4020014
  97.9949992 136.1849978  57.8560014  98.1200269 136.4661921  57.0425873
 102.8869992 132.6239978  55.9910014 103.5989992 131.9839978  55.9770014
 102.7859992 132.8899978  55.0780014 102.9707387 132.5724330  55.8655563
 103.2409992 134.3059978  58.0450014 103.1089992 133.8309978  57.2250014
 102.6409992 135.0509978  57.9900014 103.1419070 134.3415789  57.9253251
 111.4369992 145.4659978  58.1270014 110.5709992 145.3609978  58.5210014
 111.8129992 146.2239978  58.5730014 111.3693401 145.5541708  58.2412620
 112.7379992 143.7219978  43.6410014 113.5879992 144.1429978  43.7680014
 112.7429992 142.9819978  44.2480014 112.8551143 143.6796094  43.7404750
 113.1319992 141.7759978  45.4640014 112.4059992 141.2959978  45.8620014
 113.7139992 141.9809978  46.1970014 113.1112730 141.7380184  45.6174149
 112.8909992 144.5609978  50.4120014 113.7249992 144.1829978  50.1310014
 113.0029992 145.5039978  50.2930014 113.0201917 144.6367943  50.3574861
 113.4009992 141.6769978  41.8550014 112.8789992 142.0329978  41.1370014
 113.3679992 142.3519978  42.5340014 113.3250129 141.8169598  41.8483355
 111.7499992 138.9159978  40.4060014 111.8459992 139.5829978  39.7260014
 111.6099992 138.1009978  39.9250014 111.7442040 138.8970671  40.2478378
 110.9189992 140.2969978  46.0270014 110.7689992 139.3519978  46.0070014
 110.5649992 140.5779978  46.8710014 110.8506351 140.2056644  46.1383220
  95.9539992 142.3749978  50.0380014  96.1389992 142.2929978  49.1020014
  96.8039992 142.2509978  50.4610014  96.0940928 142.3470463  49.9672893
 111.7749992 142.2669978  55.6660014 112.3579992 141.5319978  55.8580014
 112.3389992 143.0389978  55.7130014 111.9309781 142.2708145  55.6986164
 113.2719992 140.1699978  56.3510014 112.4089992 139.7909978  56.1850014
 113.8759992 139.4309978  56.2760014 113.2356085 140.0183223  56.3181695
 110.9969992 136.3239978  39.5240014 111.6079992 135.9529978  40.1610014
 110.1599992 135.9029978  39.7200014 110.9674947 136.2162756  39.6377252
 110.6299992 137.8789978  44.4900014 110.9089992 136.9719978  44.6140014
 111.3889992 138.3129978  44.1010014 110.7708619 137.8134502  44.4543795
 111.2409992 138.4609978  49.9260014 112.1739992 138.6729978  49.8910014
 111.0059992 138.5619978  50.8480014 111.3369517 138.5036833  50.0459130
 111.2709992 139.1979978  52.7020014 110.4279992 139.4659978  53.0680014
 111.7129992 140.0199978  52.4910014 111.2154138 139.3458273  52.7235518
  95.5519992 137.6449978  56.1780014  96.4709992 137.5229978  56.4150014
  95.1019992 136.8949978  56.5680014  95.6170087 137.5269608  56.2631410
 113.5539992 133.1779978  58.0550014 113.9029992 132.5239978  57.4500014
 113.7009992 134.0149978  57.6150014 113.6216824 133.2016024  57.9126304
 111.2429992 135.1419978  44.5380014 111.4249992 134.6929978  45.3630014
 110.6429992 134.5579978  44.0740014 111.1868187 135.0015552  44.5882739
  96.7729992 135.9579978  49.0700014  97.2179992 135.1659978  49.3720014
  97.2389992 136.6739978  49.5000014  96.8969718 135.9464534  49.1695265
  95.0769992 138.9569978  50.1390014  95.5689992 138.7359978  49.3480014
  95.4389992 139.7969978  50.4200014  95.1932923 139.0403468  50.0687407
 113.0729992 135.2869978  56.4040014 112.1559992 135.5579978  56.3690014
 113.1959992 134.7519978  55.6200014 112.9639672 135.2517885  56.2931862
 113.1099992 135.2099978  41.0660014 113.5219992 134.4889978  40.5910014
 113.7909992 135.8789978  41.1240014 113.2585536 135.2017766  41.0088024
  95.3909992 135.2149978  44.1930014  94.4659992 135.4229978  44.0640014
  95.8449992 135.6989978  43.5030014  95.3256298 135.3089299  44.0820451
  95.3539992 133.9529978  52.5370014  94.6889992 133.7069978  53.1800014
  94.9109992 134.5749978  51.9600014  95.2031168 134.0034214  52.5469848
 112.0739992 133.3769978  54.2230014 111.2609992 133.7019978  53.8360014
 112.3069992 132.6159978  53.6900014 111.9941347 133.3186880  54.0979841
 105.5039992 134.8259978  48.5460014 104.8299992 134.1959978  48.8020014
 106.0679992 134.3419978  47.9430014 105.4880384 134.6743708  48.4995020
 110.6469992 132.9329978  48.6590014 111.2499992 133.4809978  48.1570014
 109.7769992 133.2519978  48.4180014 110.6119157 133.0510373  48.5577910
 112.3739992 134.0719978  46.9920014 112.9849992 133.5579978  46.4650014
 112.7559992 134.9489978  47.0150014 112.5093305 134.1202050  46.9229418
  97.8309992 133.4599978  46.3680014  97.0539992 133.2249978  45.8610014
  98.3609992 132.6629978  46.3770014  97.7963451 133.3201268  46.2998627
  96.6669992 133.2579978  42.1720014  97.1059992 133.8689978  41.5800014
  96.0329992 133.7959978  42.6460014  96.6413859 133.4144064  42.1550305
 102.4099992 133.3859978  46.1810014 103.2839992 133.7749978  46.1520014
 102.2739992 133.1709978  47.1040014 102.5111953 133.4101643  46.3017617
 107.9669992 133.4159978  47.8310014 108.0429992 133.5119978  46.8810014
 107.6919992 132.5089978  47.9590014 107.9401871 133.3064146  47.7183944
 109.3199992 133.4419978  43.5230014 108.6169992 134.0569978  43.3130014
 108.8749992 132.6049978  43.6540014 109.1636550 133.4129668  43.5119837
  98.5279992 135.1739978  40.6140014  99.0189992 134.5439978  40.0870014
  99.1509992 135.4699978  41.2770014  98.6795304 135.1277376  40.6314940
 103.5539992 135.4669978  43.0710014 103.7319992 134.8199978  43.7540014
 103.4999992 136.3009978  43.5380014 103.5710678 135.4911604  43.2276301
  97.7879992 133.9739978  55.8860014  97.4219992 133.2079978  56.3280014
  98.7009992 134.0029978  56.1720014  97.8613172 133.8730324  55.9851890
  99.7609992 133.3239978  57.4210014 100.6599992 133.0499978  57.2370014
  99.3749992 132.5819978  57.8860014  99.8317307 133.1862196  57.4587098
 108.1829992 132.6569978  57.6040014 108.2589992 132.2309978  58.4570014
 109.0759992 132.6699978  57.2610014 108.3142303 132.6003493  57.6745497
 125.7649992 142.6159978  46.3270014 125.8539992 143.5599978  46.1950014
 125.1269992 142.3409978  45.6690014 125.6909062 142.7079812  46.2199641
 124.6979992 141.8709978  49.7460014 124.6599992 141.2249978  50.4510014
 124.3759992 141.4039978  48.9750014 124.6492679 141.7194276  49.7382921
 117.0659992 141.4849978  51.3390014 117.1079992 140.8599978  52.0620014
 117.7689992 142.1089978  51.5210014 117.1667345 141.4837873  51.4625274
 128.4039992 144.8099978  48.0470014 127.9629992 144.0899978  48.4980014
 128.3909992 145.5309978  48.6770014 128.3419215 144.8089291  48.1938105
 114.5999992 139.5949978  45.2660014 114.1519992 140.4409978  45.2480014
 114.0389992 139.0159978  44.7510014 114.4628546 139.6323993  45.1938891
 115.3099992 141.7569978  47.3920014 115.5239992 140.9869978  47.9200014
 116.0479992 141.8469978  46.7890014 115.4390200 141.6638587  47.3827035
 123.0869992 144.3029978  50.1520014 123.3909992 143.6169978  49.5570014
 123.8089992 144.4219978  50.7700014 123.2261240 144.2252314  50.1540959
 131.7499992 135.9049978  51.0120014 131.7999992 136.5149978  51.7480014
 132.1759992 136.3659978  50.2890014 131.8144108 136.0507709  51.0150112
 126.2279992 138.6969978  50.4790014 126.3709992 137.7509978  50.4990014
 126.1219992 138.9039978  49.5510014 126.2332403 138.5954797  50.3562239
 119.3829992 136.7989978  47.7520014 119.4259992 137.6589978  47.3330014
 118.9249992 136.2469978  47.1180014 119.3269871 136.8419245  47.6090761
 127.1049992 136.9299978  46.1530014 127.7519992 136.6009978  46.7770014
 127.6149992 137.4469978  45.5300014 127.2624351 136.9549067  46.1541037
 116.0029992 139.1959978  48.5140014 116.6569992 138.6459978  48.9460014
 116.0269992 138.9219978  47.5970014 116.0957199 139.0837167  48.4491668
 121.1599992 140.7459978  47.7290014 121.7759992 140.2189978  48.2380014
 120.5729992 140.1059978  47.3250014 121.1650154 140.5873954  47.7440945
 132.1419992 137.3829978  53.2480014 131.4529992 138.0409978  53.1530014
 132.1569992 137.1849978  54.1850014 132.0497756 137.4462603  53.3615812
 118.1929992 135.7169978  51.8260014 117.9739992 136.2469978  51.0590014
 117.5249992 135.9429978  52.4730014 118.0726975 135.8200967  51.8085140
 125.5619992 145.2169978  45.3700014 125.2669992 144.8939978  44.5180014
 125.2379992 146.1169978  45.4110014 125.4778460 145.2944464  45.2589714
 120.7619992 143.3919978  52.1130014 120.0219992 143.9909978  52.2170014
 121.4759992 143.9459978  51.7980014 120.7573500 143.5487829  52.0846371
 128.8689992 136.2209978  48.1330014 128.6539992 135.4549978  48.6660014
 129.5249992 136.6929978  48.6460014 128.9282673 136.1800728  48.2751990
 117.7869992 137.6089978  49.7780014 118.4009992 138.2419978  50.1510014
 118.2989992 137.1369978  49.1220014 117.9401962 137.6317249  49.7402935
 119.1699992 145.3569978  52.9000014 119.1639992 146.2359978  52.5220014
 118.3159992 145.2729978  53.3250014 119.0537925 145.4659535  52.9056887
 115.2909992 145.0279978  43.6820014 115.0189992 145.2569978  42.7940014
 115.3359992 145.8649978  44.1430014 115.2598097 145.1726163  43.6226683
 129.2159992 134.9359978  51.8120014 128.4799992 135.5459978  51.7750014
 129.8999992 135.3509978  51.2860014 129.2075367 135.0757551  51.7358174
 122.2199992 133.0219978  49.2780014 122.1019992 132.0739978  49.2240014
 121.3649992 133.3549978  49.5510014 122.0882805 132.9372202  49.3075079
 130.0139992 144.8979978  54.0060014 130.1529992 144.3059978  53.2670014
 130.1809992 145.7709978  53.6500014 130.0556193 144.9348896  53.8566211
 124.4859992 141.8599978  43.7790014 123.7749992 142.3949978  43.4270014
 125.1769992 141.9149978  43.1190014 124.4820751 141.9406777  43.6415858
 124.5399992 140.3169978  40.8170014 125.2409992 140.3399978  41.4690014
 124.8419992 139.6889978  40.1610014 124.6768202 140.2352212  40.8175609
 131.8549992 141.2379978  52.0720014 131.2029992 141.9319978  52.1610014
 132.3209992 141.4479978  51.2620014 131.8285937 141.3615019  51.9747533
 127.8919992 142.0689978  44.7300014 127.1599992 142.2979978  45.3040014
 128.3389992 141.3559978  45.1850014 127.8523963 142.0038729  44.8699945
 127.7889992 140.2439978  53.7980014 127.8689992 141.0069978  54.3700014
 127.1879992 140.5229978  53.1080014 127.7186547 140.3862457  53.7830047
 119.5369992 142.6999978  46.6130014 119.2069992 142.3289978  45.7950014
 120.1259992 142.0289978  46.9600014 119.5713970 142.5586063  46.5479404
 119.9039992 141.4679978  50.2460014 120.4689992 141.5899978  49.4840014
 120.2229992 142.1059978  50.8850014 120.0244166 141.5708791  50.2280348
 126.7629992 141.2319978  42.4160014 127.3419992 141.3819978  43.1620014
 127.1769992 141.7019978  41.6920014 126.8983358 141.3160954  42.4203953
 117.7039992 142.0659978  54.1920014 117.7739992 142.7169978  54.8910014
 116.8129992 142.1689978  53.8570014 117.5931690 142.1689249  54.2423043
 130.4619992 132.9819978  42.2290014 129.5619992 133.1209978  42.5240014
 130.7139992 133.8129978  41.8270014 130.3728683 133.1134055  42.2150232
 118.5279992 141.7689978  44.2020014 118.2359992 142.5369978  43.7110014
 117.8529992 141.1099978  44.0390014 118.3968497 141.7849745  44.1128260
 114.6209992 144.1319978  53.0170014 114.1189992 144.1039978  52.2020014
 114.6259992 143.2269978  53.3270014 114.5529832 144.0057486  52.9474121
 129.7209992 139.0719978  56.0640014 129.3129992 139.5519978  55.3430014
 129.7609992 138.1659978  55.7560014 129.6706221 139.0152449  55.9238267
 116.8699992 145.4559978  54.0600014 117.0859992 145.0939978  54.9200014
 116.0139992 145.0809978  53.8510014 116.7838810 145.3558837  54.1492680
 119.4879992 133.9259978  50.0560014 118.6269992 133.8389978  49.6480014
 119.4659992 134.7819978  50.4840014 119.3670491 134.0298003  50.0579582
 124.1509992 133.6479978  53.4310014 124.5709992 133.2329978  54.1840014
 123.2179992 133.4689978  53.5480014 124.0823736 133.5669910  53.5498968
 127.4779992 137.4029978  54.2840014 126.9639992 137.2779978  55.0820014
 127.3219992 138.3159978  54.0400014 127.3866967 137.5092123  54.3600937
 128.2399992 142.2639978  40.0450014 128.2819992 142.0419978  39.1150014
 129.0889992 142.6629978  40.2350014 128.3605253 142.2875498  39.9433822
 123.8129992 136.1399978  40.7160014 123.5589992 136.1589978  41.6380014
 123.5559992 135.2689978  40.4140014 123.7434508 136.0248280  40.8014803
 119.5789992 138.8909978  51.1510014 118.9379992 138.8509978  51.8600014
 119.6169992 139.8179978  50.9130014 119.4963010 139.0107668  51.2159946
 119.5759992 139.1119978  46.0630014 118.6839992 138.7719978  46.0040014
 120.0269992 138.7349978  45.3070014 119.5147642 139.0144910  45.9527726
 125.1119992 139.5279978  44.8800014 124.7029992 140.3429978  44.5880014
 125.8319992 139.3879978  44.2660014 125.1534439 139.6205372  44.7570115
 124.2139992 139.7039978  56.3680014 123.6509992 138.9989978  56.6890014
 125.0399992 139.5829978  56.8360014 124.2486674 139.5912165  56.4751751
 126.1169992 138.9739978  47.6940014 125.9209992 139.5799978  46.9790014
 126.2979992 138.1409978  47.2600014 126.1146584 138.9442513  47.5374212
 117.3289992 139.2119978  53.0180014 117.2909992 139.6119978  53.8870014
 116.8389992 138.3949978  53.1080014 117.2575330 139.1562674  53.1491289
 120.6949992 136.5859978  39.8170014 120.2639992 136.1409978  40.5460014
 119.9769992 136.9569978  39.3040014 120.5389176 136.5752051  39.8474930
 113.9379992 136.3279978  46.8690014 114.5679992 136.2989978  47.5880014
 114.3869992 135.9029978  46.1380014 114.0850835 136.2665660  46.8687659
 115.2119992 137.0739978  42.2930014 115.6859992 137.6649978  41.7080014
 114.4939992 137.6039978  42.6400014 115.1798640 137.2265511  42.2597969
 125.3809992 140.6119978  52.3650014 125.7039992 139.9809978  51.7220014
 124.9399992 140.0779978  53.0260014 125.3656379 140.4533468  52.3662582
 122.1579992 136.5399978  47.1490014 121.2469992 136.5969978  47.4380014
 122.6629992 136.4799978  47.9600014 122.1016873 136.5396826  47.2981207
 116.9859992 138.1689978  45.9760014 116.0969992 138.2679978  45.6360014
 117.2829992 137.3269978  45.6300014 116.9044177 138.0687687  45.8826940
 120.6389992 138.1689978  43.6330014 121.5709992 138.2979978  43.8110014
 120.4239992 138.8379978  42.9830014 120.7374472 138.2770806  43.5694891
 126.5629992 135.7749978  50.4140014 125.8859992 135.9059978  51.0770014
 126.0779992 135.6199978  49.6030014 126.4047405 135.7719947  50.3952170
 119.3129992 139.3629978  41.1990014 118.7709992 138.9839978  40.5080014
 120.1469992 139.5579978  40.7710014 119.3514390 139.3374079  41.0464392
 117.4489992 143.9199978  56.2980014 118.1809992 144.1749978  56.8600014
 116.6679992 144.1249978  56.8140014 117.4436526 143.9825450  56.4445176
 123.4779992 139.3269978  49.0360014 124.0419992 138.7809978  48.4890014
 123.3299992 138.8059978  49.8250014 123.5353037 139.1816787  49.0677229
 118.4799992 135.4639978  45.4550014 118.1629992 134.5609978  45.4190014
 119.2609992 135.4659978  44.9020014 118.5422431 135.3407797  45.3753102
 122.1039992 137.7159978  51.4500014 121.2689992 138.1699978  51.5610014
 122.6279992 137.9919978  52.2020014 122.0606072 137.8153948  51.5668136
 122.6489992 143.9289978  43.1350014 121.9039992 143.4209978  42.8130014
 122.5139992 143.9779978  44.0810014 122.5288963 143.8661731  43.2188826
 129.7989992 143.0619978  51.9220014 130.4399992 143.5179978  51.3780014
 128.9679992 143.1749978  51.4590014 129.7745287 143.1396921  51.7849887
 126.5459992 136.7429978  41.3340014 125.6079992 136.8539978  41.1830014
 126.8439992 137.5989978  41.6410014 126.4576318 136.8740158  41.3548145
 124.1679992 144.1129978  54.3720014 123.8219992 143.7309978  55.1790014
 123.9679992 145.0459978  54.4430014 124.0935987 144.1869002  54.4920461
 127.2649992 138.6099978  42.9950014 128.1569992 138.4719978  43.3140014
 127.3209992 139.4009978  42.4580014 127.3947325 138.6979918  42.9661217
 117.7729992 143.2239978  48.9050014 118.5179992 143.2209978  48.3030014
 117.8509992 142.3999978  49.3860014 117.8853365 143.1122384  48.8877430
 124.7739992 145.3869978  42.1600014 124.4789992 146.2139978  42.5420014
 124.0709992 144.7679978  42.3570014 124.6386379 145.4164171  42.2388654
 114.7809992 141.6839978  54.2200014 115.0039992 141.2659978  55.0510014
 114.1789992 141.0719978  53.7970014 114.7301513 141.5439606  54.2766740
 121.7979992 141.2009978  56.4330014 121.5019992 141.0359978  55.5370014
 122.7289992 140.9809978  56.4220014 121.8834401 141.1486879  56.3090206
 132.1499992 138.8189978  42.6900014 131.5949992 138.4229978  42.0170014
 132.2499992 139.7299978  42.4120014 132.0876816 138.8879505  42.5605033
 132.1129992 144.6199978  55.5270014 131.2619992 144.8579978  55.1590014
 132.7029992 144.6029978  54.7740014 132.0763812 144.6502524  55.3748453
 127.6049992 142.4129978  50.1760014 126.6769992 142.1819978  50.1490014
 128.0559992 141.6359978  49.8460014 127.5388165 142.2762774  50.1276790
 115.9029992 141.6039978  40.8960014 116.5189992 142.2309978  41.2760014
 115.0409992 141.9199978  41.1680014 115.8707678 141.7324412  40.9847209
 121.5759992 144.4049978  45.8850014 121.3349992 145.3299978  45.9270014
 120.8349992 143.9459978  46.2820014 121.4429206 144.4695915  45.9443769
 125.6339992 144.6529978  51.9010014 125.2089992 144.4249978  52.7270014
 126.2149992 143.9139978  51.7190014 125.6543395 144.5219545  51.9894414
 116.4149992 136.4379978  53.7780014 115.5229992 136.7759978  53.7100014
 116.3169992 135.5819978  54.1960014 116.2794475 136.3686543  53.8251704
 128.7029992 144.2539978  43.2020014 128.4259992 143.5259978  43.7580014
 129.6309992 144.3729978  43.4070014 128.7904499 144.1704213  43.3058044
 117.3179992 143.5159978  42.3890014 116.6319992 143.8689978  42.9560014
 117.8409992 144.2789978  42.1420014 117.2948402 143.6673901  42.4331801
 125.1499992 136.1789978  52.6680014 125.8489992 136.2529978  53.3180014
 124.7689992 135.3139978  52.8220014 125.1942097 136.0722389  52.7777997
 125.9339992 135.8309978  43.7650014 126.1539992 136.3019978  42.9610014
 126.4929992 136.2249978  44.4350014 126.0396731 135.9487287  43.7455033
 123.1339992 137.5589978  44.6000014 123.9459992 138.0629978  44.6460014
 122.8899992 137.4139978  45.5140014 123.2121467 137.6083749  44.7298575
 123.6699992 138.5449978  53.7840014 123.7889992 139.1189978  54.5410014
 124.3249992 137.8569978  53.8990014 123.7748684 138.5305194  53.9031674
 124.0179992 134.6399978  45.5380014 123.6709992 135.2569978  46.1820014
 124.6769992 135.1409978  45.0560014 124.0595090 134.7921575  45.5610681
 119.6759992 135.7029978  42.2250014 119.5919992 136.5909978  42.5720014
 120.5659992 135.4379978  42.4570014 119.7848163 135.7887179  42.3038596
 129.8739992 136.4519978  54.6190014 128.9579992 136.7139978  54.5320014
 130.2099992 136.4489978  53.7230014 129.7938499 136.4875163  54.4858766
 128.4769992 140.2019978  48.7150014 127.6789992 139.7869978  48.3870014
 128.9219992 139.5119978  49.2060014 128.4279684 140.0518628  48.7365227
 116.2499992 138.7949978  40.4010014 116.2049992 139.7339978  40.5800014
 115.3619992 138.5589978  40.1320014 116.1238166 138.8916687  40.3891524
 117.0579992 133.5759978  49.0750014 116.8289992 133.6349978  48.1470014
 116.6159992 132.7849978  49.3810014 116.9668801 133.4770540  48.9894729
 115.1839992 143.9399978  57.5190014 115.3279992 143.0379978  57.2330014
 114.4119992 144.2259978  57.0320014 115.0992733 143.8551798  57.4139532
 119.5249992 144.2829978  39.6520014 119.5899992 143.4889978  40.1820014
 120.1779992 144.1649978  38.9620014 119.6221605 144.1583430  39.6312997
 121.8389992 143.9089978  56.9520014 121.5109992 144.1799978  56.0950014
 121.9909992 142.9679978  56.8640014 121.8146412 143.8189046  56.8227822
 124.8779992 145.3299978  39.3880014 124.6089992 145.5109978  40.2880014
 124.6709992 144.4049978  39.2560014 124.8131191 145.2297119  39.4935524
 127.5739992 143.8249978  54.3350014 128.3189992 144.4139978  54.2160014
 126.8169992 144.4069978  54.3990014 127.5735470 143.9842128  54.3273799
 116.0169992 141.1399978  56.9390014 116.4249992 140.2829978  56.8180014
 115.7559992 141.1539978  57.8600014 116.0376016 141.0245119  57.0469192
 120.6749992 142.2559978  41.9580014 120.2149992 141.7719978  42.6430014
 120.9299992 141.5869978  41.3220014 120.6464856 142.0993669  41.9658397
 119.9639992 140.1489978  54.3140014 119.3449992 140.8229978  54.5940014
 120.3079992 140.4699978  53.4800014 119.9257123 140.2846887  54.2396388
 121.7459992 140.4989978  40.2200014 121.5649992 140.3439978  39.2930014
 122.6959992 140.6069978  40.2650014 121.8496566 140.4923669  40.0990929
 124.9829992 142.6199978  57.5910014 125.9369992 142.7039978  57.5640014
 124.8229992 141.9079978  58.2110014 125.0917182 142.5352842  57.6710733
 131.1359992 142.8529978  39.6660014 130.8619992 142.4289978  38.8530014
 131.1749992 143.7849978  39.4490014 131.1037716 142.9208827  39.5254286
 120.3029992 137.5039978  55.3960014 120.4529992 136.7749978  54.7940014
 120.3049992 138.2809978  54.8370014 120.3237967 137.5092708  55.2380541
 120.7159992 135.8729978  52.8890014 121.2509992 136.3249978  52.2370014
 119.8629992 135.7649978  52.4660014 120.6740374 135.9202665  52.7426710
 122.2969992 141.3129978  53.1280014 123.0479992 141.1569978  52.5550014
 121.9579992 142.1649978  52.8530014 122.3539587 141.4068138  53.0124078
 126.7129992 139.1279978  58.1570014 126.9049992 138.1969978  58.0450014
 127.5709992 139.5529978  58.1460014 126.8552182 139.0580070  58.1401862
 128.0299992 141.9169978  56.2340014 127.7479992 142.6259978  55.6560014
 128.9719992 141.8439978  56.0830014 128.1187921 142.0042193  56.1344225
 118.7819992 138.7019978  57.3070014 118.0139992 138.1689978  57.0970014
 119.4599992 138.3919978  56.7080014 118.7687235 138.5871754  57.1972413
 121.5209992 133.3299978  53.3200014 121.4229992 134.2759978  53.2150014
 120.7789992 132.9569978  52.8440014 121.4072534 133.4091773  53.2412600
 122.7849992 137.6509978  56.8840014 122.5499992 137.4319978  57.7850014
 122.0019992 137.4439978  56.3740014 122.6469095 137.5929892  56.9385353
 125.5009992 136.7789978  55.9590014 124.5529992 136.8109978  56.0910014
 125.8129992 136.1529978  56.6130014 125.4135293 136.6987923  56.0654148
 127.1349992 135.4129978  57.9640014 127.0379992 134.4609978  57.9590014
 126.8129992 135.6809978  58.8250014 127.0782468 135.3190884  58.0796210
 116.9619992 136.6219978  57.0120014 117.1739992 135.9159978  56.4020014
 116.8509992 136.1849978  57.8560014 116.9760269 136.4661921  57.0425873
 121.7429992 132.6239978  55.9910014 122.4549992 131.9839978  55.9770014
 121.6419992 132.8899978  55.0780014 121.8267387 132.5724330  55.8655563
 122.0969992 134.3059978  58.0450014 121.9649992 133.8309978  57.2250014
 121.4969992 135.0509978  57.9900014 121.9979070 134.3415789  57.9253251
 130.2929992 145.4659978  58.1270014 129.4269992 145.3609978  58.5210014
 130.6689992 146.2239978  58.5730014 130.2253401 145.5541708  58.2412620
 131.5939992 143.7219978  43.6410014 132.4439992 144.1429978  43.7680014
 131.5989992 142.9819978  44.2480014 131.7111143 143.6796094  43.7404750
 131.9879992 141.7759978  45.4640014 131.2619992 141.2959978  45.8620014
 132.5699992 141.9809978  46.1970014 131.9672730 141.7380184  45.6174149
 131.7469992 144.5609978  50.4120014 132.5809992 144.1829978  50.1310014
 131.8589992 145.5039978  50.2930014 131.8761917 144.6367943  50.3574861
 132.2569992 141.6769978  41.8550014 131.7349992 142.0329978  41.1370014
 132.2239992 142.3519978  42.5340014 132.1810129 141.8169598  41.8483355
 130.6059992 138.9159978  40.4060014 130.7019992 139.5829978  39.7260014
 130.4659992 138.1009978  39.9250014 130.6002040 138.8970671  40.2478378
 129.7749992 140.2969978  46.0270014 129.6249992 139.3519978  46.0070014
 129.4209992 140.5779978  46.8710014 129.7066351 140.2056644  46.1383220
 114.8099992 142.3749978  50.0380014 114.9949992 142.2929978  49.1020014
 115.6599992 142.2509978  50.4610014 114.9500928 142.3470463  49.9672893
 130.6309992 142.2669978  55.6660014 131.2139992 141.5319978  55.8580014
 131.1949992 143.0389978  55.7130014 130.7869781 142.2708145  55.6986164
 132.1279992 140.1699978  56.3510014 131.2649992 139.7909978  56.1850014
 132.7319992 139.4309978  56.2760014 132.0916085 140.0183223  56.3181695
 129.8529992 136.3239978  39.5240014 130.4639992 135.9529978  40.1610014
 129.0159992 135.9029978  39.7200014 129.8234947 136.2162756  39.6377252
 129.4859992 137.8789978  44.4900014 129.7649992 136.9719978  44.6140014
 130.2449992 138.3129978  44.1010014 129.6268619 137.8134502  44.4543795
 130.0969992 138.4609978  49.9260014 131.0299992 138.6729978  49.8910014
 129.8619992 138.5619978  50.8480014 130.1929517 138.5036833  50.0459130
 130.1269992 139.1979978  52.7020014 129.2839992 139.4659978  53.0680014
 130.5689992 140.0199978  52.4910014 130.0714138 139.3458273  52.7235518
 114.4079992 137.6449978  56.1780014 115.3269992 137.5229978  56.4150014
 113.9579992 136.8949978  56.5680014 114.4730087 137.5269608  56.2631410
 132.4099992 133.1779978  58.0550014 132.7589992 132.5239978  57.4500014
 132.5569992 134.0149978  57.6150014 132.4776824 133.2016024  57.9126304
 130.0989992 135.1419978  44.5380014 130.2809992 134.6929978  45.3630014
 129.4989992 134.5579978  44.0740014 130.0428187 135.0015552  44.5882739
 115.6289992 135.9579978  49.0700014 116.0739992 135.1659978  49.3720014
 116.0949992 136.6739978  49.5000014 115.7529718 135.9464534  49.1695265
 113.9329992 138.9569978  50.1390014 114.4249992 138.7359978  49.3480014
 114.2949992 139.7969978  50.4200014 114.0492923 139.0403468  50.0687407
 131.9289992 135.2869978  56.4040014 131.0119992 135.5579978  56.3690014
 132.0519992 134.7519978  55.6200014 131.8199672 135.2517885  56.2931862
 131.9659992 135.2099978  41.0660014 132.3779992 134.4889978  40.5910014
 132.6469992 135.8789978  41.1240014 132.1145536 135.2017766  41.0088024
 114.2469992 135.2149978  44.1930014 113.3219992 135.4229978  44.0640014
 114.7009992 135.6989978  43.5030014 114.1816298 135.3089299  44.0820451
 114.2099992 133.9529978  52.5370014 113.5449992 133.7069978  53.1800014
 113.7669992 134.5749978  51.9600014 114.0591168 134.0034214  52.5469848
 130.9299992 133.3769978  54.2230014 130.1169992 133.7019978  53.8360014
 131.1629992 132.6159978  53.6900014 130.8501347 133.3186880  54.0979841
 124.3599992 134.8259978  48.5460014 123.6859992 134.1959978  48.8020014
 124.9239992 134.3419978  47.9430014 124.3440384 134.6743708  48.4995020
 129.5029992 132.9329978  48.6590014 130.1059992 133.4809978  48.1570014
 128.6329992 133.2519978  48.4180014 129.4679157 133.0510373  48.5577910
 131.2299992 134.0719978  46.9920014 131.8409992 133.5579978  46.4650014
 131.6119992 134.9489978  47.0150014 131.3653305 134.1202050  46.9229418
 116.6869992 133.4599978  46.3680014 115.9099992 133.2249978  45.8610014
 117.2169992 132.6629978  46.3770014 116.6523451 133.3201268  46.2998627
 115.5229992 133.2579978  42.1720014 115.9619992 133.8689978  41.5800014
 114.8889992 133.7959978  42.6460014 115.4973859 133.4144064  42.1550305
 121.2659992 133.3859978  46.1810014 122.1399992 133.7749978  46.1520014
 121.1299992 133.1709978  47.1040014 121.3671953 133.4101643  46.3017617
 126.8229992 133.4159978  47.8310014 126.8989992 133.5119978  46.8810014
 126.5479992 132.5089978  47.9590014 126.7961871 133.3064146  47.7183944
 128.1759992 133.4419978  43.5230014 127.4729992 134.0569978  43.3130014
 127.7309992 132.6049978  43.6540014 128.0196550 133.4129668  43.5119837
 117.3839992 135.1739978  40.6140014 117.8749992 134.5439978  40.0870014
 118.0069992 135.4699978  41.2770014 117.5355304 135.1277376  40.6314940
 122.4099992 135.4669978  43.0710014 122.5879992 134.8199978  43.7540014
 122.3559992 136.3009978  43.5380014 122.4270678 135.4911604  43.2276301
 116.6439992 133.9739978  55.8860014 116.2779992 133.2079978  56.3280014
 117.5569992 134.0029978  56.1720014 116.7173172 133.8730324  55.9851890
 118.6169992 133.3239978  57.4210014 119.5159992 133.0499978  57.2370014
 118.2309992 132.5819978  57.8860014 118.6877307 133.1862196  57.4587098
 127.0389992 132.6569978  57.6040014 127.1149992 132.2309978  58.4570014
 127.9319992 132.6699978  57.2610014 127.1702303 132.6003493  57.6745497
 144.6209992 142.6159978  46.3270014 144.7099992 143.5599978  46.1950014
 143.9829992 142.3409978  45.6690014 144.5469062 142.7079812  46.2199641
 143.5539992 141.8709978  49.7460014 143.5159992 141.2249978  50.4510014
 143.2319992 141.4039978  48.9750014 143.5052679 141.7194276  49.7382921
 135.9219992 141.4849978  51.3390014 135.9639992 140.8599978  52.0620014
 136.6249992 142.1089978  51.5210014 136.0227345 141.4837873  51.4625274
 133.4559992 139.5949978  45.2660014 133.0079992 140.4409978  45.2480014
 132.8949992 139.0159978  44.7510014 133.3188546 139.6323993  45.1938891
 134.1659992 141.7569978  47.3920014 134.3799992 140.9869978  47.9200014
 134.9039992 141.8469978  46.7890014 134.2950200 141.6638587  47.3827035
 141.9429992 144.3029978  50.1520014 142.2469992 143.6169978  49.5570014
 142.6649992 144.4219978  50.7700014 142.0821240 144.2252314  50.1540959
 145.0839992 138.6969978  50.4790014 145.2269992 137.7509978  50.4990014
 144.9779992 138.9039978  49.5510014 145.0892403 138.5954797  50.3562239
 138.2389992 136.7989978  47.7520014 138.2819992 137.6589978  47.3330014
 137.7809992 136.2469978  47.1180014 138.1829871 136.8419245  47.6090761
 134.8589992 139.1959978  48.5140014 135.5129992 138.6459978  48.9460014
 134.8829992 138.9219978  47.5970014 134.9517199 139.0837167  48.4491668
 140.0159992 140.7459978  47.7290014 140.6319992 140.2189978  48.2380014
 139.4289992 140.1059978  47.3250014 140.0210154 140.5873954  47.7440945
 137.0489992 135.7169978  51.8260014 136.8299992 136.2469978  51.0590014
 136.3809992 135.9429978  52.4730014 136.9286975 135.8200967  51.8085140
 144.4179992 145.2169978  45.3700014 144.1229992 144.8939978  44.5180014
 144.0939992 146.1169978  45.4110014 144.3338460 145.2944464  45.2589714
 139.6179992 143.3919978  52.1130014 138.8779992 143.9909978  52.2170014
 140.3319992 143.9459978  51.7980014 139.6133500 143.5487829  52.0846371
 136.6429992 137.6089978  49.7780014 137.2569992 138.2419978  50.1510014
 137.1549992 137.1369978  49.1220014 136.7961962 137.6317249  49.7402935
 138.0259992 145.3569978  52.9000014 138.0199992 146.2359978  52.5220014
 137.1719992 145.2729978  53.3250014 137.9097925 145.4659535  52.9056887
 134.1469992 145.0279978  43.6820014 133.8749992 145.2569978  42.7940014
 134.1919992 145.8649978  44.1430014 134.1158097 145.1726163  43.6226683
 141.0759992 133.0219978  49.2780014 140.9579992 132.0739978  49.2240014
 140.2209992 133.3549978  49.5510014 140.9442805 132.9372202  49.3075079
 143.3419992 141.8599978  43.7790014 142.6309992 142.3949978  43.4270014
 144.0329992 141.9149978  43.1190014 143.3380751 141.9406777  43.6415858
 143.3959992 140.3169978  40.8170014 144.0969992 140.3399978  41.4690014
 143.6979992 139.6889978  40.1610014 143.5328202 140.2352212  40.8175609
 138.3929992 142.6999978  46.6130014 138.0629992 142.3289978  45.7950014
 138.9819992 142.0289978  46.9600014 138.4273970 142.5586063  46.5479404
 138.7599992 141.4679978  50.2460014 139.3249992 141.5899978  49.4840014
 139.0789992 142.1059978  50.8850014 138.8804166 141.5708791  50.2280348
 136.5599992 142.0659978  54.1920014 136.6299992 142.7169978  54.8910014
 135.6689992 142.1689978  53.8570014 136.4491690 142.1689249  54.2423043
 137.3839992 141.7689978  44.2020014 137.0919992 142.5369978  43.7110014
 136.7089992 141.1099978  44.0390014 137.2528497 141.7849745  44.1128260
 133.4769992 144.1319978  53.0170014 132.9749992 144.1039978  52.2020014
 133.4819992 143.2269978  53.3270014 133.4089832 144.0057486  52.9474121
 135.7259992 145.4559978  54.0600014 135.9419992 145.0939978  54.9200014
 134.8699992 145.0809978  53.8510014 135.6398810 145.3558837  54.1492680
 138.3439992 133.9259978  50.0560014 137.4829992 133.8389978  49.6480014
 138.3219992 134.7819978  50.4840014 138.2230491 134.0298003  50.0579582
 143.0069992 133.6479978  53.4310014 143.4269992 133.2329978  54.1840014
 142.0739992 133.4689978  53.5480014 142.9383736 133.5669910  53.5498968
 142.6689992 136.1399978  40.7160014 142.4149992 136.1589978  41.6380014
 142.4119992 135.2689978  40.4140014 142.5994508 136.0248280  40.8014803
 138.4349992 138.8909978  51.1510014 137.7939992 138.8509978  51.8600014
 138.4729992 139.8179978  50.9130014 138.3523010 139.0107668  51.2159946
 138.4319992 139.1119978  46.0630014 137.5399992 138.7719978  46.0040014
 138.8829992 138.7349978  45.3070014 138.3707642 139.0144910  45.9527726
 143.9679992 139.5279978  44.8800014 143.5589992 140.3429978  44.5880014
 144.6879992 139.3879978  44.2660014 144.0094439 139.6205372  44.7570115
 143.0699992 139.7039978  56.3680014 142.5069992 138.9989978  56.6890014
 143.8959992 139.5829978  56.8360014 143.1046674 139.5912165  56.4751751
 144.9729992 138.9739978  47.6940014 144.7769992 139.5799978  46.9790014
 145.1539992 138.1409978  47.2600014 144.9706584 138.9442513  47.5374212
 136.1849992 139.2119978  53.0180014 136.1469992 139.6119978  53.8870014
 135.6949992 138.3949978  53.1080014 136.1135330 139.1562674  53.1491289
 139.5509992 136.5859978  39.8170014 139.1199992 136.1409978  40.5460014
 138.8329992 136.9569978  39.3040014 139.3949176 136.5752051  39.8474930
 132.7939992 136.3279978  46.8690014 133.4239992 136.2989978  47.5880014
 133.2429992 135.9029978  46.1380014 132.9410835 136.2665660  46.8687659
 134.0679992 137.0739978  42.2930014 134.5419992 137.6649978  41.7080014
 133.3499992 137.6039978  42.6400014 134.0358640 137.2265511  42.2597969
 144.2369992 140.6119978  52.3650014 144.5599992 139.9809978  51.7220014
 143.7959992 140.0779978  53.0260014 144.2216379 140.4533468  52.3662582
 141.0139992 136.5399978  47.1490014 140.1029992 136.5969978  47.4380014
 141.5189992 136.4799978  47.9600014 140.9576873 136.5396826  47.2981207
 135.8419992 138.1689978  45.9760014 134.9529992 138.2679978  45.6360014
 136.1389992 137.3269978  45.6300014 135.7604177 138.0687687  45.8826940
 139.4949992 138.1689978  43.6330014 140.4269992 138.2979978  43.8110014
 139.2799992 138.8379978  42.9830014 139.5934472 138.2770806  43.5694891
 145.4189992 135.7749978  50.4140014 144.7419992 135.9059978  51.0770014
 144.9339992 135.6199978  49.6030014 145.2607405 135.7719947  50.3952170
 138.1689992 139.3629978  41.1990014 137.6269992 138.9839978  40.5080014
 139.0029992 139.5579978  40.7710014 138.2074390 139.3374079  41.0464392
 136.3049992 143.9199978  56.2980014 137.0369992 144.1749978  56.8600014
 135.5239992 144.1249978  56.8140014 136.2996526 143.9825450  56.4445176
 142.3339992 139.3269978  49.0360014 142.8979992 138.7809978  48.4890014
 142.1859992 138.8059978  49.8250014 142.3913037 139.1816787  49.0677229
 137.3359992 135.4639978  45.4550014 137.0189992 134.5609978  45.4190014
 138.1169992 135.4659978  44.9020014 137.3982431 135.3407797  45.3753102
 140.9599992 137.7159978  51.4500014 140.1249992 138.1699978  51.5610014
 141.4839992 137.9919978  52.2020014 140.9166072 137.8153948  51.5668136
 141.5049992 143.9289978  43.1350014 140.7599992 143.4209978  42.8130014
 141.3699992 143.9779978  44.0810014 141.3848963 143.8661731  43.2188826
 145.4019992 136.7429978  41.3340014 144.4639992 136.8539978  41.1830014
 145.6999992 137.5989978  41.6410014 145.3136318 136.8740158  41.3548145
 143.0239992 144.1129978  54.3720014 142.6779992 143.7309978  55.1790014
 142.8239992 145.0459978  54.4430014 142.9495987 144.1869002  54.4920461
 136.6289992 143.2239978  48.9050014 137.3739992 143.2209978  48.3030014
 136.7069992 142.3999978  49.3860014 136.7413365 143.1122384  48.8877430
 143.6299992 145.3869978  42.1600014 143.3349992 146.2139978  42.5420014
 142.9269992 144.7679978  42.3570014 143.4946379 145.4164171  42.2388654
 133.6369992 141.6839978  54.2200014 133.8599992 141.2659978  55.0510014
 133.0349992 141.0719978  53.7970014 133.5861513 141.5439606  54.2766740
 140.6539992 141.2009978  56.4330014 140.3579992 141.0359978  55.5370014
 141.5849992 140.9809978  56.4220014 140.7394401 141.1486879  56.3090206
 134.7589992 141.6039978  40.8960014 135.3749992 142.2309978  41.2760014
 133.8969992 141.9199978  41.1680014 134.7267678 141.7324412  40.9847209
 140.4319992 144.4049978  45.8850014 140.1909992 145.3299978  45.9270014
 139.6909992 143.9459978  46.2820014 140.2989206 144.4695915  45.9443769
 144.4899992 144.6529978  51.9010014 144.0649992 144.4249978  52.7270014
 145.0709992 143.9139978  51.7190014 144.5103395 144.5219545  51.9894414
 135.2709992 136.4379978  53.7780014 134.3789992 136.7759978  53.7100014
 135.1729992 135.5819978  54.1960014 135.1354475 136.3686543  53.8251704
 136.1739992 143.5159978  42.3890014 135.4879992 143.8689978  42.9560014
 136.6969992 144.2789978  42.1420014 136.1508402 143.6673901  42.4331801
 144.0059992 136.1789978  52.6680014 144.7049992 136.2529978  53.3180014
 143.6249992 135.3139978  52.8220014 144.0502097 136.0722389  52.7777997
 144.7899992 135.8309978  43.7650014 145.0099992 136.3019978  42.9610014
 145.3489992 136.2249978  44.4350014 144.8956731 135.9487287  43.7455033
 141.9899992 137.5589978  44.6000014 142.8019992 138.0629978  44.6460014
 141.7459992 137.4139978  45.5140014 142.0681467 137.6083749  44.7298575
 142.5259992 138.5449978  53.7840014 142.6449992 139.1189978  54.5410014
 143.1809992 137.8569978  53.8990014 142.6308684 138.5305194  53.9031674
 142.8739992 134.6399978  45.5380014 142.5269992 135.2569978  46.1820014
 143.5329992 135.1409978  45.0560014 142.9155090 134.7921575  45.5610681
 138.5319992 135.7029978  42.2250014 138.4479992 136.5909978  42.5720014
 139.4219992 135.4379978  42.4570014 138.6408163 135.7887179  42.3038596
 135.1059992 138.7949978  40.4010014 135.0609992 139.7339978  40.5800014
 134.2179992 138.5589978  40.1320014 134.9798166 138.8916687  40.3891524
 135.9139992 133.5759978  49.0750014 135.6849992 133.6349978  48.1470014
 135.4719992 132.7849978  49.3810014 135.8228801 133.4770540  48.9894729
 134.0399992 143.9399978  57.5190014 134.1839992 143.0379978  57.2330014
 133.2679992 144.2259978  57.0320014 133.9552733 143.8551798  57.4139532
 138.3809992 144.2829978  39.6520014 138.4459992 143.4889978  40.1820014
 139.0339992 144.1649978  38.9620014 138.4781605 144.1583430  39.6312997
 140.6949992 143.9089978  56.9520014 140.3669992 144.1799978  56.0950014
 140.8469992 142.9679978  56.8640014 140.6706412 143.8189046  56.8227822
 143.7339992 145.3299978  39.3880014 143.4649992 145.5109978  40.2880014
 143.5269992 144.4049978  39.2560014 143.6691191 145.2297119  39.4935524
 134.8729992 141.1399978  56.9390014 135.2809992 140.2829978  56.8180014
 134.6119992 141.1539978  57.8600014 134.8936016 141.0245119  57.0469192
 139.5309992 142.2559978  41.9580014 139.0709992 141.7719978  42.6430014
 139.7859992 141.5869978  41.3220014 139.5024856 142.0993669  41.9658397
 138.8199992 140.1489978  54.3140014 138.2009992 140.8229978  54.5940014
 139.1639992 140.4699978  53.4800014 138.7817123 140.2846887  54.2396388
 140.6019992 140.4989978  40.2200014 140.4209992 140.3439978  39.2930014
 141.5519992 140.6069978  40.2650014 140.7056566 140.4923669  40.0990929
 143.8389992 142.6199978  57.5910014 144.7929992 142.7039978  57.5640014
 143.6789992 141.9079978  58.2110014 143.9477182 142.5352842  57.6710733
 139.1589992 137.5039978  55.3960014 139.3089992 136.7749978  54.7940014
 139.1609992 138.2809978  54.8370014 139.1797967 137.5092708  55.2380541
 139.5719992 135.8729978  52.8890014 140.1069992 136.3249978  52.2370014
 138.7189992 135.7649978  52.4660014 139.5300374 135.9202665  52.7426710
 141.1529992 141.3129978  53.1280014 141.9039992 141.1569978  52.5550014
 140.8139992 142.1649978  52.8530014 141.2099587 141.4068138  53.0124078
 145.5689992 139.1279978  58.1570014 145.7609992 138.1969978  58.0450014
 146.4269992 139.5529978  58.1460014 145.7112182 139.0580070  58.1401862
 137.6379992 138.7019978  57.3070014 136.8699992 138.1689978  57.0970014
 138.3159992 138.3919978  56.7080014 137.6247235 138.5871754  57.1972413
 140.3769992 133.3299978  53.3200014 140.2789992 134.2759978  53.2150014
 139.6349992 132.9569978  52.8440014 140.2632534 133.4091773  53.2412600
 141.6409992 137.6509978  56.8840014 141.4059992 137.4319978  57.7850014
 140.8579992 137.4439978  56.3740014 141.5029095 137.5929892  56.9385353
 144.3569992 136.7789978  55.9590014 143.4089992 136.8109978  56.0910014
 144.6689992 136.1529978  56.6130014 144.2695293 136.6987923  56.0654148
 135.8179992 136.6219978  57.0120014 136.0299992 135.9159978  56.4020014
 135.7069992 136.1849978  57.8560014 135.8320269 136.4661921  57.0425873
 140.5989992 132.6239978  55.9910014 141.3109992 131.9839978  55.9770014
 140.4979992 132.8899978  55.0780014 140.6827387 132.5724330  55.8655563
 140.9529992 134.3059978  58.0450014 140.8209992 133.8309978  57.2250014
 140.3529992 135.0509978  57.9900014 140.8539070 134.3415789  57.9253251
 133.6659992 142.3749978  50.0380014 133.8509992 142.2929978  49.1020014
 134.5159992 142.2509978  50.4610014 133.8060928 142.3470463  49.9672893
 133.2639992 137.6449978  56.1780014 134.1829992 137.5229978  56.4150014
 132.8139992 136.8949978  56.5680014 133.3290087 137.5269608  56.2631410
 134.4849992 135.9579978  49.0700014 134.9299992 135.1659978  49.3720014
 134.9509992 136.6739978  49.5000014 134.6089718 135.9464534  49.1695265
 132.7889992 138.9569978  50.1390014 133.2809992 138.7359978  49.3480014
 133.1509992 139.7969978  50.4200014 132.9052923 139.0403468  50.0687407
 133.1029992 135.2149978  44.1930014 132.1779992 135.4229978  44.0640014
 133.5569992 135.6989978  43.5030014 133.0376298 135.3089299  44.0820451
 133.0659992 133.9529978  52.5370014 132.4009992 133.7069978  53.1800014
 132.6229992 134.5749978  51.9600014 132.9151168 134.0034214  52.5469848
 143.2159992 134.8259978  48.5460014 142.5419992 134.1959978  48.8020014
 143.7799992 134.3419978  47.9430014 143.2000384 134.6743708  48.4995020
 135.5429992 133.4599978  46.3680014 134.7659992 133.2249978  45.8610014
 136.0729992 132.6629978  46.3770014 135.5083451 133.3201268  46.2998627
 134.3789992 133.2579978  42.1720014 134.8179992 133.8689978  41.5800014
 133.7449992 133.7959978  42.6460014 134.3533859 133.4144064  42.1550305
 140.1219992 133.3859978  46.1810014 140.9959992 133.7749978  46.1520014
 139.9859992 133.1709978  47.1040014 140.2231953 133.4101643  46.3017617
 136.2399992 135.1739978  40.6140014 136.7309992 134.5439978  40.0870014
 136.8629992 135.4699978  41.2770014 136.3915304 135.1277376  40.6314940
 141.2659992 135.4669978  43.0710014 141.4439992 134.8199978  43.7540014
 141.2119992 136.3009978  43.5380014 141.2830678 135.4911604  43.2276301
 135.4999992 133.9739978  55.8860014 135.1339992 133.2079978  56.3280014
 136.4129992 134.0029978  56.1720014 135.5733172 133.8730324  55.9851890
 137.4729992 133.3239978  57.4210014 138.3719992 133.0499978  57.2370014
 137.0869992 132.5819978  57.8860014 137.5437307 133.1862196  57.4587098
  11.4039992   8.3249978  59.6730014  12.1049992   8.3479978  60.3250014
  11.7059992   7.6969978  59.0170014  11.5408202   8.2432212  59.6735609
  13.6269992   9.2399978  61.2720014  14.2059992   9.3899978  62.0180014
  14.0409992   9.7099978  60.5480014  13.7623358   9.3240954  61.2763953
  17.3259992   0.9899978  61.0850014  16.4259992   1.1289978  61.3800014
  17.5779992   1.8209978  60.6830014  17.2368683   1.1214055  61.0710232
  18.5149992  15.3559978  59.4610014  18.5879992  16.2949978  59.6310014
  19.4199992  15.0509978  59.4050014  18.6474170  15.4433282  59.4767063
  13.9269992  18.0869978  60.1240014  14.3019992  17.3429978  59.6530014
  13.9319992  17.8169978  61.0420014  13.9790098  17.9486392  60.1836629
  15.1039992  10.2719978  58.9010014  15.1459992  10.0499978  57.9710014
  15.9529992  10.6709978  59.0910014  15.2245253  10.2955498  58.7993822
  10.6769992   4.1479978  59.5720014  10.4229992   4.1669978  60.4940014
  10.4199992   3.2769978  59.2700014  10.6074508   4.0328280  59.6574803
   7.5589992   4.5939978  58.6730014   7.1279992   4.1489978  59.4020014
   6.8409992   4.9649978  58.1600014   7.4029176   4.5832051  58.7034930
   2.0759992   5.0819978  61.1490014   2.5499992   5.6729978  60.5640014
   1.3579992   5.6119978  61.4960014   2.0438640   5.2345511  61.1157969
   6.1769992   7.3709978  60.0550014   5.6349992   6.9919978  59.3640014
   7.0109992   7.5659978  59.6270014   6.2154390   7.3454079  59.9024392
  19.0139992   6.8269978  61.5460014  18.4589992   6.4309978  60.8730014
  19.1139992   7.7379978  61.2680014  18.9516816   6.8959505  61.4165033
   2.7669992   9.6119978  59.7520014   3.3829992  10.2389978  60.1320014
   1.9049992   9.9279978  60.0240014   2.7347678   9.7404412  59.8407209
  14.7009992  13.5899978  59.8310014  15.0549992  13.2099978  60.6350014
  13.7529992  13.4959978  59.9180014  14.6212298  13.5252452  59.9528687
   8.7919992  14.7019978  58.2780014   9.0309992  13.9529978  57.7310014
   8.5229992  14.3139978  59.1110014   8.7883233  14.5471853  58.3157809
  10.4669992  15.9689978  61.4840014   9.6499992  16.4659978  61.5360014
  10.9959992  16.4449978  60.8430014  10.4268125  16.1011989  61.4045306
   3.1139992   6.8029978  59.2570014   3.0689992   7.7419978  59.4360014
   2.2259992   6.5669978  58.9880014   2.9878166   6.8996687  59.2451524
  10.8299992  16.5649978  58.4170014  10.1859992  15.9339978  58.7380014
  11.5919992  16.0339978  58.1850014  10.8448058  16.4067902  58.4296038
  15.4349992  16.3819978  58.6500014  15.7179992  15.5869978  59.1030014
  16.1739992  16.6149978  58.0890014  15.5737096  16.3047049  58.6361104
   6.3889992  12.2909978  58.5080014   6.4539992  11.4969978  59.0380014
   7.0419992  12.1729978  57.8180014   6.4861605  12.1663430  58.4872997
  11.7419992  13.3379978  58.2440014  11.4729992  13.5189978  59.1440014
  11.5349992  12.4129978  58.1120014  11.6771191  13.2377119  58.3495524
   8.6099992   8.5069978  59.0760014   8.4289992   8.3519978  58.1490014
   9.5599992   8.6149978  59.1210014   8.7136566   8.5003669  58.9550929
  17.9999992  10.8609978  58.5220014  17.7259992  10.4369978  57.7090014
  18.0389992  11.7929978  58.3050014  17.9677716  10.9288827  58.3814286
   8.5069992  19.1969978  60.0770014   9.4399992  19.3549978  60.2210014
   8.2429992  19.8729978  59.4520014   8.5989911  19.3099373  60.0122722
   2.0749992  13.8339978  59.5600014   2.9889992  13.9129978  59.8330014
   2.0829992  13.1469978  58.8940014   2.2010655  13.7519205  59.5072917
  17.4699992   6.9239978  59.2620014  17.5659992   7.5909978  58.5820014
  17.3299992   6.1089978  58.7810014  17.4642040   6.9050671  59.1038378
  16.7169992   4.3319978  58.3800014  17.3279992   3.9609978  59.0170014
  15.8799992   3.9109978  58.5760014  16.6874947   4.2242756  58.4937252
  18.8299992   3.2179978  59.9220014  19.2419992   2.4969978  59.4470014
  19.5109992   3.8869978  59.9800014  18.9785536   3.2097766  59.8648024
   2.3869992   1.2659978  61.0280014   2.8259992   1.8769978  60.4360014
   1.7529992   1.8039978  61.5020014   2.3613859   1.4224064  61.0110305
   2.2879992  17.2139978  61.9250014   1.6029992  17.1759978  61.2580014
   2.2919992  18.1269978  62.2130014   2.1947621  17.3321924  61.8726126
   4.2479992   3.1819978  59.4700014   4.7389992   2.5519978  58.9430014
   4.8709992   3.4779978  60.1330014   4.3995304   3.1357376  59.4874940
   9.2739992   3.4749978  61.9270014   9.4519992   2.8279978  62.6100014
   9.2199992   4.3089978  62.3940014   9.2910678   3.4991604  62.0836301
  11.1519992  18.4229978  60.3230014  12.0179992  18.7899978  60.1450014
  10.9059992  17.9839978  59.5090014  11.2372097  18.4138525  60.1886019
   4.1059992  18.1339978  58.9500014   3.8379992  18.4199978  59.8240014
   4.8769992  17.5879978  59.1030014   4.1735926  18.0992779  59.0901205
  30.2059992   9.8679978  62.6350014  29.4949992  10.4029978  62.2830014
  30.8969992   9.9229978  61.9750014  30.2020751   9.9486777  62.4975858
  30.2599992   8.3249978  59.6730014  30.9609992   8.3479978  60.3250014
  30.5619992   7.6969978  59.0170014  30.3968202   8.2432212  59.6735609
  32.4829992   9.2399978  61.2720014  33.0619992   9.3899978  62.0180014
  32.8969992   9.7099978  60.5480014  32.6183358   9.3240954  61.2763953
  37.3709992  15.3559978  59.4610014  37.4439992  16.2949978  59.6310014
  38.2759992  15.0509978  59.4050014  37.5034170  15.4433282  59.4767063
  32.7829992  18.0869978  60.1240014  33.1579992  17.3429978  59.6530014
  32.7879992  17.8169978  61.0420014  32.8350098  17.9486392  60.1836629
  33.9599992  10.2719978  58.9010014  34.0019992  10.0499978  57.9710014
  34.8089992  10.6709978  59.0910014  34.0805253  10.2955498  58.7993822
  26.4149992   4.5939978  58.6730014  25.9839992   4.1489978  59.4020014
  25.6969992   4.9649978  58.1600014  26.2589176   4.5832051  58.7034930
  20.9319992   5.0819978  61.1490014  21.4059992   5.6729978  60.5640014
  20.2139992   5.6119978  61.4960014  20.8998640   5.2345511  61.1157969
  25.0329992   7.3709978  60.0550014  24.4909992   6.9919978  59.3640014
  25.8669992   7.5659978  59.6270014  25.0714390   7.3454079  59.9024392
  32.2659992   4.7509978  60.1900014  31.3279992   4.8619978  60.0390014
  32.5639992   5.6069978  60.4970014  32.1776318   4.8820158  60.2108145
  32.9849992   6.6179978  61.8510014  33.8769992   6.4799978  62.1700014
  33.0409992   7.4089978  61.3140014  33.1147325   6.7059918  61.8221217
  21.6229992   9.6119978  59.7520014  22.2389992  10.2389978  60.1320014
  20.7609992   9.9279978  60.0240014  21.5907678   9.7404412  59.8407209
  33.5569992  13.5899978  59.8310014  33.9109992  13.2099978  60.6350014
  32.6089992  13.4959978  59.9180014  33.4772298  13.5252452  59.9528687
  27.6479992  14.7019978  58.2780014  27.8869992  13.9529978  57.7310014
  27.3789992  14.3139978  59.1110014  27.6443233  14.5471853  58.3157809
  26.5849992  14.2719978  60.7340014  26.7319992  13.7519978  61.5240014
  26.5819992  15.1789978  61.0410014  26.6047102  14.3233953  60.8835925
  26.6609992  17.0129978  61.4650014  26.8219992  17.8129978  60.9650014
  26.4639992  17.3199978  62.3500014  26.6563906  17.1638678  61.5162333
  23.6539992  14.1379978  60.1410014  24.2459992  14.8379978  60.4180014
  24.1129992  13.7049978  59.4220014  23.7971652  14.1752675  60.0816533
  21.9699992   6.8029978  59.2570014  21.9249992   7.7419978  59.4360014
  21.0819992   6.5669978  58.9880014  21.8438166   6.8996687  59.2451524
  29.6859992  16.5649978  58.4170014  29.0419992  15.9339978  58.7380014
  30.4479992  16.0339978  58.1850014  29.7008058  16.4067902  58.4296038
  34.2909992  16.3819978  58.6500014  34.5739992  15.5869978  59.1030014
  35.0299992  16.6149978  58.0890014  34.4297096  16.3047049  58.6361104
  25.2449992  12.2909978  58.5080014  25.3099992  11.4969978  59.0380014
  25.8979992  12.1729978  57.8180014  25.3421605  12.1663430  58.4872997
  30.5979992  13.3379978  58.2440014  30.3289992  13.5189978  59.1440014
  30.3909992  12.4129978  58.1120014  30.5331191  13.2377119  58.3495524
  27.4659992   8.5069978  59.0760014  27.2849992   8.3519978  58.1490014
  28.4159992   8.6149978  59.1210014  27.5696566   8.5003669  58.9550929
  36.8559992  10.8609978  58.5220014  36.5819992  10.4369978  57.7090014
  36.8949992  11.7929978  58.3050014  36.8237716  10.9288827  58.3814286
  27.3629992  19.1969978  60.0770014  28.2959992  19.3549978  60.2210014
  27.0989992  19.8729978  59.4520014  27.4549911  19.3099373  60.0122722
  37.9769992   9.6849978  60.7110014  37.4549992  10.0409978  59.9930014
  37.9439992  10.3599978  61.3900014  37.9010129   9.8249598  60.7043355
  36.3259992   6.9239978  59.2620014  36.4219992   7.5909978  58.5820014
  36.1859992   6.1089978  58.7810014  36.3202040   6.9050671  59.1038378
  35.5729992   4.3319978  58.3800014  36.1839992   3.9609978  59.0170014
  34.7359992   3.9109978  58.5760014  35.5434947   4.2242756  58.4937252
  21.2429992   1.2659978  61.0280014  21.6819992   1.8769978  60.4360014
  20.6089992   1.8039978  61.5020014  21.2173859   1.4224064  61.0110305
  33.8959992   1.4499978  62.3790014  33.1929992   2.0649978  62.1690014
  33.4509992   0.6129978  62.5100014  33.7396550   1.4209668  62.3679837
  23.1039992   3.1819978  59.4700014  23.5949992   2.5519978  58.9430014
  23.7269992   3.4779978  60.1330014  23.2555304   3.1357376  59.4874940
  30.0079992  18.4229978  60.3230014  30.8739992  18.7899978  60.1450014
  29.7619992  17.9839978  59.5090014  30.0932097  18.4138525  60.1886019
  22.9619992  18.1339978  58.9500014  22.6939992  18.4199978  59.8240014
  23.7329992  17.5879978  59.1030014  23.0295926  18.0992779  59.0901205
  49.1159992   8.3249978  59.6730014  49.8169992   8.3479978  60.3250014
  49.4179992   7.6969978  59.0170014  49.2528202   8.2432212  59.6735609
  56.2269992  15.3559978  59.4610014  56.2999992  16.2949978  59.6310014
  57.1319992  15.0509978  59.4050014  56.3594170  15.4433282  59.4767063
  52.8159992  10.2719978  58.9010014  52.8579992  10.0499978  57.9710014
  53.6649992  10.6709978  59.0910014  52.9365253  10.2955498  58.7993822
  48.3889992   4.1479978  59.5720014  48.1349992   4.1669978  60.4940014
  48.1319992   3.2769978  59.2700014  48.3194508   4.0328280  59.6574803
  45.2709992   4.5939978  58.6730014  44.8399992   4.1489978  59.4020014
  44.5529992   4.9649978  58.1600014  45.1149176   4.5832051  58.7034930
  39.7879992   5.0819978  61.1490014  40.2619992   5.6729978  60.5640014
  39.0699992   5.6119978  61.4960014  39.7558640   5.2345511  61.1157969
  43.8889992   7.3709978  60.0550014  43.3469992   6.9919978  59.3640014
  44.7229992   7.5659978  59.6270014  43.9274390   7.3454079  59.9024392
  47.2249992  11.9369978  61.9910014  46.4799992  11.4289978  61.6690014
  47.0899992  11.9859978  62.9370014  47.1048963  11.8741731  62.0748826
  51.8409992   6.6179978  61.8510014  52.7329992   6.4799978  62.1700014
  51.8969992   7.4089978  61.3140014  51.9707325   6.7059918  61.8221217
  40.4789992   9.6119978  59.7520014  41.0949992  10.2389978  60.1320014
  39.6169992   9.9279978  60.0240014  40.4467678   9.7404412  59.8407209
  56.9169992  18.0689978  60.0320014  57.6609992  18.6549978  59.8920014
  56.2229992  18.6379978  60.3650014  56.9249809  18.2260818  60.0578590
  46.5039992  14.7019978  58.2780014  46.7429992  13.9529978  57.7310014
  46.2349992  14.3139978  59.1110014  46.5003233  14.5471853  58.3157809
  45.4409992  14.2719978  60.7340014  45.5879992  13.7519978  61.5240014
  45.4379992  15.1789978  61.0410014  45.4607102  14.3233953  60.8835925
  41.8939992  11.5239978  61.2450014  41.2079992  11.8769978  61.8120014
  42.4169992  12.2869978  60.9980014  41.8708402  11.6753901  61.2891801
  48.1789992  15.9689978  61.4840014  47.3619992  16.4659978  61.5360014
  48.7079992  16.4449978  60.8430014  48.1388125  16.1011989  61.4045306
  45.5169992  17.0129978  61.4650014  45.6779992  17.8129978  60.9650014
  45.3199992  17.3199978  62.3500014  45.5123906  17.1638678  61.5162333
  40.8259992   6.8029978  59.2570014  40.7809992   7.7419978  59.4360014
  39.9379992   6.5669978  58.9880014  40.6998166   6.8996687  59.2451524
  48.5419992  16.5649978  58.4170014  47.8979992  15.9339978  58.7380014
  49.3039992  16.0339978  58.1850014  48.5568058  16.4067902  58.4296038
  53.1469992  16.3819978  58.6500014  53.4299992  15.5869978  59.1030014
  53.8859992  16.6149978  58.0890014  53.2857096  16.3047049  58.6361104
  44.1009992  12.2909978  58.5080014  44.1659992  11.4969978  59.0380014
  44.7539992  12.1729978  57.8180014  44.1981605  12.1663430  58.4872997
  49.4539992  13.3379978  58.2440014  49.1849992  13.5189978  59.1440014
  49.2469992  12.4129978  58.1120014  49.3891191  13.2377119  58.3495524
  45.2509992  10.2639978  60.8140014  44.7909992   9.7799978  61.4990014
  45.5059992   9.5949978  60.1780014  45.2224856  10.1073669  60.8218397
  46.3219992   8.5069978  59.0760014  46.1409992   8.3519978  58.1490014
  47.2719992   8.6149978  59.1210014  46.4256566   8.5003669  58.9550929
  55.7119992  10.8609978  58.5220014  55.4379992  10.4369978  57.7090014
  55.7509992  11.7929978  58.3050014  55.6797716  10.9288827  58.3814286
  46.2189992  19.1969978  60.0770014  47.1519992  19.3549978  60.2210014
  45.9549992  19.8729978  59.4520014  46.3109911  19.3099373  60.0122722
  39.7869992  13.8339978  59.5600014  40.7009992  13.9129978  59.8330014
  39.7949992  13.1469978  58.8940014  39.9130655  13.7519205  59.5072917
  56.8329992   9.6849978  60.7110014  56.3109992  10.0409978  59.9930014
  56.7999992  10.3599978  61.3900014  56.7570129   9.8249598  60.7043355
  55.1819992   6.9239978  59.2620014  55.2779992   7.5909978  58.5820014
  55.0419992   6.1089978  58.7810014  55.1762040   6.9050671  59.1038378
  54.4289992   4.3319978  58.3800014  55.0399992   3.9609978  59.0170014
  53.5919992   3.9109978  58.5760014  54.3994947   4.2242756  58.4937252
  56.5419992   3.2179978  59.9220014  56.9539992   2.4969978  59.4470014
  57.2229992   3.8869978  59.9800014  56.6905536   3.2097766  59.8648024
  41.9599992   3.1819978  59.4700014  42.4509992   2.5519978  58.9430014
  42.5829992   3.4779978  60.1330014  42.1115304   3.1357376  59.4874940
  41.8179992  18.1339978  58.9500014  41.5499992  18.4199978  59.8240014
  42.5889992  17.5879978  59.1030014  41.8855926  18.0992779  59.0901205
  67.9719992   8.3249978  59.6730014  68.6729992   8.3479978  60.3250014
  68.2739992   7.6969978  59.0170014  68.1088202   8.2432212  59.6735609
  70.1949992   9.2399978  61.2720014  70.7739992   9.3899978  62.0180014
  70.6089992   9.7099978  60.5480014  70.3303358   9.3240954  61.2763953
  73.8939992   0.9899978  61.0850014  72.9939992   1.1289978  61.3800014
  74.1459992   1.8209978  60.6830014  73.8048683   1.1214055  61.0710232
  70.4949992  18.0869978  60.1240014  70.8699992  17.3429978  59.6530014
  70.4999992  17.8169978  61.0420014  70.5470098  17.9486392  60.1836629
  71.6719992  10.2719978  58.9010014  71.7139992  10.0499978  57.9710014
  72.5209992  10.6709978  59.0910014  71.7925253  10.2955498  58.7993822
  67.2449992   4.1479978  59.5720014  66.9909992   4.1669978  60.4940014
  66.9879992   3.2769978  59.2700014  67.1754508   4.0328280  59.6574803
  64.1269992   4.5939978  58.6730014  63.6959992   4.1489978  59.4020014
  63.4089992   4.9649978  58.1600014  63.9709176   4.5832051  58.7034930
  62.7449992   7.3709978  60.0550014  62.2029992   6.9919978  59.3640014
  63.5789992   7.5659978  59.6270014  62.7834390   7.3454079  59.9024392
  69.9779992   4.7509978  60.1900014  69.0399992   4.8619978  60.0390014
  70.2759992   5.6069978  60.4970014  69.8896318   4.8820158  60.2108145
  59.3349992   9.6119978  59.7520014  59.9509992  10.2389978  60.1320014
  58.4729992   9.9279978  60.0240014  59.3027678   9.7404412  59.8407209
  71.2689992  13.5899978  59.8310014  71.6229992  13.2099978  60.6350014
  70.3209992  13.4959978  59.9180014  71.1892298  13.5252452  59.9528687
  65.3599992  14.7019978  58.2780014  65.5989992  13.9529978  57.7310014
  65.0909992  14.3139978  59.1110014  65.3563233  14.5471853  58.3157809
  64.2969992  14.2719978  60.7340014  64.4439992  13.7519978  61.5240014
  64.2939992  15.1789978  61.0410014  64.3167102  14.3233953  60.8835925
  67.0349992  15.9689978  61.4840014  66.2179992  16.4659978  61.5360014
  67.5639992  16.4449978  60.8430014  66.9948125  16.1011989  61.4045306
  63.1079992   3.7109978  61.0810014  63.0239992   4.5989978  61.4280014
  63.9979992   3.4459978  61.3130014  63.2168163   3.7967179  61.1598596
  61.3659992  14.1379978  60.1410014  61.9579992  14.8379978  60.4180014
  61.8249992  13.7049978  59.4220014  61.5091652  14.1752675  60.0816533
  59.6819992   6.8029978  59.2570014  59.6369992   7.7419978  59.4360014
  58.7939992   6.5669978  58.9880014  59.5558166   6.8996687  59.2451524
  67.3979992  16.5649978  58.4170014  66.7539992  15.9339978  58.7380014
  68.1599992  16.0339978  58.1850014  67.4128058  16.4067902  58.4296038
  62.9569992  12.2909978  58.5080014  63.0219992  11.4969978  59.0380014
  63.6099992  12.1729978  57.8180014  63.0541605  12.1663430  58.4872997
  68.3099992  13.3379978  58.2440014  68.0409992  13.5189978  59.1440014
  68.1029992  12.4129978  58.1120014  68.2451191  13.2377119  58.3495524
  65.1779992   8.5069978  59.0760014  64.9969992   8.3519978  58.1490014
  66.1279992   8.6149978  59.1210014  65.2816566   8.5003669  58.9550929
  74.5679992  10.8609978  58.5220014  74.2939992  10.4369978  57.7090014
  74.6069992  11.7929978  58.3050014  74.5357716  10.9288827  58.3814286
  65.0749992  19.1969978  60.0770014  66.0079992  19.3549978  60.2210014
  64.8109992  19.8729978  59.4520014  65.1669911  19.3099373  60.0122722
  58.6429992  13.8339978  59.5600014  59.5569992  13.9129978  59.8330014
  58.6509992  13.1469978  58.8940014  58.7690655  13.7519205  59.5072917
  73.2849992   4.3319978  58.3800014  73.8959992   3.9609978  59.0170014
  72.4479992   3.9109978  58.5760014  73.2554947   4.2242756  58.4937252
  75.3979992   3.2179978  59.9220014  75.8099992   2.4969978  59.4470014
  76.0789992   3.8869978  59.9800014  75.5465536   3.2097766  59.8648024
  58.9549992   1.2659978  61.0280014  59.3939992   1.8769978  60.4360014
  58.3209992   1.8039978  61.5020014  58.9293859   1.4224064  61.0110305
  71.6079992   1.4499978  62.3790014  70.9049992   2.0649978  62.1690014
  71.1629992   0.6129978  62.5100014  71.4516550   1.4209668  62.3679837
  60.8159992   3.1819978  59.4700014  61.3069992   2.5519978  58.9430014
  61.4389992   3.4779978  60.1330014  60.9675304   3.1357376  59.4874940
  65.8419992   3.4749978  61.9270014  66.0199992   2.8279978  62.6100014
  65.7879992   4.3089978  62.3940014  65.8590678   3.4991604  62.0836301
  67.7199992  18.4229978  60.3230014  68.5859992  18.7899978  60.1450014
  67.4739992  17.9839978  59.5090014  67.8052097  18.4138525  60.1886019
  60.6739992  18.1339978  58.9500014  60.4059992  18.4199978  59.8240014
  61.4449992  17.5879978  59.1030014  60.7415926  18.0992779  59.0901205
  77.5789992  13.0359978  62.5380014  77.3069992  13.2649978  61.6500014
  77.6239992  13.8729978  62.9990014  77.5478097  13.1806163  62.4786683
  86.8279992   8.3249978  59.6730014  87.5289992   8.3479978  60.3250014
  87.1299992   7.6969978  59.0170014  86.9648202   8.2432212  59.6735609
  93.9389992  15.3559978  59.4610014  94.0119992  16.2949978  59.6310014
  94.8439992  15.0509978  59.4050014  94.0714170  15.4433282  59.4767063
  90.5279992  10.2719978  58.9010014  90.5699992  10.0499978  57.9710014
  91.3769992  10.6709978  59.0910014  90.6485253  10.2955498  58.7993822
  86.1009992   4.1479978  59.5720014  85.8469992   4.1669978  60.4940014
  85.8439992   3.2769978  59.2700014  86.0314508   4.0328280  59.6574803
  82.9829992   4.5939978  58.6730014  82.5519992   4.1489978  59.4020014
  82.2649992   4.9649978  58.1600014  82.8269176   4.5832051  58.7034930
  77.4999992   5.0819978  61.1490014  77.9739992   5.6729978  60.5640014
  76.7819992   5.6119978  61.4960014  77.4678640   5.2345511  61.1157969
  88.8339992   4.7509978  60.1900014  87.8959992   4.8619978  60.0390014
  89.1319992   5.6069978  60.4970014  88.7456318   4.8820158  60.2108145
  89.5529992   6.6179978  61.8510014  90.4449992   6.4799978  62.1700014
  89.6089992   7.4089978  61.3140014  89.6827325   6.7059918  61.8221217
  78.1909992   9.6119978  59.7520014  78.8069992  10.2389978  60.1320014
  77.3289992   9.9279978  60.0240014  78.1587678   9.7404412  59.8407209
  94.6289992  18.0689978  60.0320014  95.3729992  18.6549978  59.8920014
  93.9349992  18.6379978  60.3650014  94.6369809  18.2260818  60.0578590
  84.2159992  14.7019978  58.2780014  84.4549992  13.9529978  57.7310014
  83.9469992  14.3139978  59.1110014  84.2123233  14.5471853  58.3157809
  79.6059992  11.5239978  61.2450014  78.9199992  11.8769978  61.8120014
  80.1289992  12.2869978  60.9980014  79.5828402  11.6753901  61.2891801
  85.8909992  15.9689978  61.4840014  85.0739992  16.4659978  61.5360014
  86.4199992  16.4449978  60.8430014  85.8508125  16.1011989  61.4045306
  80.2219992  14.1379978  60.1410014  80.8139992  14.8379978  60.4180014
  80.6809992  13.7049978  59.4220014  80.3651652  14.1752675  60.0816533
  78.5379992   6.8029978  59.2570014  78.4929992   7.7419978  59.4360014
  77.6499992   6.5669978  58.9880014  78.4118166   6.8996687  59.2451524
  86.2539992  16.5649978  58.4170014  85.6099992  15.9339978  58.7380014
  87.0159992  16.0339978  58.1850014  86.2688058  16.4067902  58.4296038
  90.8589992  16.3819978  58.6500014  91.1419992  15.5869978  59.1030014
  91.5979992  16.6149978  58.0890014  90.9977096  16.3047049  58.6361104
  81.8129992  12.2909978  58.5080014  81.8779992  11.4969978  59.0380014
  82.4659992  12.1729978  57.8180014  81.9101605  12.1663430  58.4872997
  87.1659992  13.3379978  58.2440014  86.8969992  13.5189978  59.1440014
  86.9589992  12.4129978  58.1120014  87.1011191  13.2377119  58.3495524
  82.9629992  10.2639978  60.8140014  82.5029992   9.7799978  61.4990014
  83.2179992   9.5949978  60.1780014  82.9344856  10.1073669  60.8218397
  84.0339992   8.5069978  59.0760014  83.8529992   8.3519978  58.1490014
  84.9839992   8.6149978  59.1210014  84.1376566   8.5003669  58.9550929
  93.4239992  10.8609978  58.5220014  93.1499992  10.4369978  57.7090014
  93.4629992  11.7929978  58.3050014  93.3917716  10.9288827  58.3814286
  77.4989992  13.8339978  59.5600014  78.4129992  13.9129978  59.8330014
  77.5069992  13.1469978  58.8940014  77.6250655  13.7519205  59.5072917
  94.5449992   9.6849978  60.7110014  94.0229992  10.0409978  59.9930014
  94.5119992  10.3599978  61.3900014  94.4690129   9.8249598  60.7043355
  92.8939992   6.9239978  59.2620014  92.9899992   7.5909978  58.5820014
  92.7539992   6.1089978  58.7810014  92.8882040   6.9050671  59.1038378
  92.1409992   4.3319978  58.3800014  92.7519992   3.9609978  59.0170014
  91.3039992   3.9109978  58.5760014  92.1114947   4.2242756  58.4937252
  77.8109992   1.2659978  61.0280014  78.2499992   1.8769978  60.4360014
  77.1769992   1.8039978  61.5020014  77.7853859   1.4224064  61.0110305
  77.7119992  17.2139978  61.9250014  77.0269992  17.1759978  61.2580014
  77.7159992  18.1269978  62.2130014  77.6187621  17.3321924  61.8726126
  79.6719992   3.1819978  59.4700014  80.1629992   2.5519978  58.9430014
  80.2949992   3.4779978  60.1330014  79.8235304   3.1357376  59.4874940
  79.5299992  18.1339978  58.9500014  79.2619992  18.4199978  59.8240014
  80.3009992  17.5879978  59.1030014  79.5975926  18.0992779  59.0901205
 105.6839992   8.3249978  59.6730014 106.3849992   8.3479978  60.3250014
 105.9859992   7.6969978  59.0170014 105.8208202   8.2432212  59.6735609
 107.9069992   9.2399978  61.2720014 108.4859992   9.3899978  62.0180014
 108.3209992   9.7099978  60.5480014 108.0423358   9.3240954  61.2763953
 111.6059992   0.9899978  61.0850014 110.7059992   1.1289978  61.3800014
 111.8579992   1.8209978  60.6830014 111.5168683   1.1214055  61.0710232
 112.7949992  15.3559978  59.4610014 112.8679992  16.2949978  59.6310014
 113.6999992  15.0509978  59.4050014 112.9274170  15.4433282  59.4767063
 108.2069992  18.0869978  60.1240014 108.5819992  17.3429978  59.6530014
 108.2119992  17.8169978  61.0420014 108.2590098  17.9486392  60.1836629
 109.3839992  10.2719978  58.9010014 109.4259992  10.0499978  57.9710014
 110.2329992  10.6709978  59.0910014 109.5045253  10.2955498  58.7993822
 104.9569992   4.1479978  59.5720014 104.7029992   4.1669978  60.4940014
 104.6999992   3.2769978  59.2700014 104.8874508   4.0328280  59.6574803
 101.8389992   4.5939978  58.6730014 101.4079992   4.1489978  59.4020014
 101.1209992   4.9649978  58.1600014 101.6829176   4.5832051  58.7034930
 107.6899992   4.7509978  60.1900014 106.7519992   4.8619978  60.0390014
 107.9879992   5.6069978  60.4970014 107.6016318   4.8820158  60.2108145
 108.4089992   6.6179978  61.8510014 109.3009992   6.4799978  62.1700014
 108.4649992   7.4089978  61.3140014 108.5387325   6.7059918  61.8221217
 105.9179992  13.3949978  61.0160014 105.6229992  14.2219978  61.3980014
 105.2149992  12.7759978  61.2130014 105.7826379  13.4244171  61.0948654
  97.0469992   9.6119978  59.7520014  97.6629992  10.2389978  60.1320014
  96.1849992   9.9279978  60.0240014  97.0147678   9.7404412  59.8407209
 108.9809992  13.5899978  59.8310014 109.3349992  13.2099978  60.6350014
 108.0329992  13.4959978  59.9180014 108.9012298  13.5252452  59.9528687
 113.4849992  18.0689978  60.0320014 114.2289992  18.6549978  59.8920014
 112.7909992  18.6379978  60.3650014 113.4929809  18.2260818  60.0578590
 103.0719992  14.7019978  58.2780014 103.3109992  13.9529978  57.7310014
 102.8029992  14.3139978  59.1110014 103.0683233  14.5471853  58.3157809
 102.0089992  14.2719978  60.7340014 102.1559992  13.7519978  61.5240014
 102.0059992  15.1789978  61.0410014 102.0287102  14.3233953  60.8835925
  98.4619992  11.5239978  61.2450014  97.7759992  11.8769978  61.8120014
  98.9849992  12.2869978  60.9980014  98.4388402  11.6753901  61.2891801
 100.8199992   3.7109978  61.0810014 100.7359992   4.5989978  61.4280014
 101.7099992   3.4459978  61.3130014 100.9288163   3.7967179  61.1598596
  99.0779992  14.1379978  60.1410014  99.6699992  14.8379978  60.4180014
  99.5369992  13.7049978  59.4220014  99.2211652  14.1752675  60.0816533
  97.3939992   6.8029978  59.2570014  97.3489992   7.7419978  59.4360014
  96.5059992   6.5669978  58.9880014  97.2678166   6.8996687  59.2451524
 105.1099992  16.5649978  58.4170014 104.4659992  15.9339978  58.7380014
 105.8719992  16.0339978  58.1850014 105.1248058  16.4067902  58.4296038
 109.7149992  16.3819978  58.6500014 109.9979992  15.5869978  59.1030014
 110.4539992  16.6149978  58.0890014 109.8537096  16.3047049  58.6361104
 100.6689992  12.2909978  58.5080014 100.7339992  11.4969978  59.0380014
 101.3219992  12.1729978  57.8180014 100.7661605  12.1663430  58.4872997
 106.0219992  13.3379978  58.2440014 105.7529992  13.5189978  59.1440014
 105.8149992  12.4129978  58.1120014 105.9571191  13.2377119  58.3495524
 102.8899992   8.5069978  59.0760014 102.7089992   8.3519978  58.1490014
 103.8399992   8.6149978  59.1210014 102.9936566   8.5003669  58.9550929
 112.2799992  10.8609978  58.5220014 112.0059992  10.4369978  57.7090014
 112.3189992  11.7929978  58.3050014 112.2477716  10.9288827  58.3814286
  96.3549992  13.8339978  59.5600014  97.2689992  13.9129978  59.8330014
  96.3629992  13.1469978  58.8940014  96.4810655  13.7519205  59.5072917
 111.7499992   6.9239978  59.2620014 111.8459992   7.5909978  58.5820014
 111.6099992   6.1089978  58.7810014 111.7442040   6.9050671  59.1038378
 110.9969992   4.3319978  58.3800014 111.6079992   3.9609978  59.0170014
 110.1599992   3.9109978  58.5760014 110.9674947   4.2242756  58.4937252
 113.1099992   3.2179978  59.9220014 113.5219992   2.4969978  59.4470014
 113.7909992   3.8869978  59.9800014 113.2585536   3.2097766  59.8648024
  96.6669992   1.2659978  61.0280014  97.1059992   1.8769978  60.4360014
  96.0329992   1.8039978  61.5020014  96.6413859   1.4224064  61.0110305
 109.3199992   1.4499978  62.3790014 108.6169992   2.0649978  62.1690014
 108.8749992   0.6129978  62.5100014 109.1636550   1.4209668  62.3679837
  98.5279992   3.1819978  59.4700014  99.0189992   2.5519978  58.9430014
  99.1509992   3.4779978  60.1330014  98.6795304   3.1357376  59.4874940
  98.3859992  18.1339978  58.9500014  98.1179992  18.4199978  59.8240014
  99.1569992  17.5879978  59.1030014  98.4535926  18.0992779  59.0901205
 124.5399992   8.3249978  59.6730014 125.2409992   8.3479978  60.3250014
 124.8419992   7.6969978  59.0170014 124.6768202   8.2432212  59.6735609
 131.6509992  15.3559978  59.4610014 131.7239992  16.2949978  59.6310014
 132.5559992  15.0509978  59.4050014 131.7834170  15.4433282  59.4767063
 127.0629992  18.0869978  60.1240014 127.4379992  17.3429978  59.6530014
 127.0679992  17.8169978  61.0420014 127.1150098  17.9486392  60.1836629
 128.2399992  10.2719978  58.9010014 128.2819992  10.0499978  57.9710014
 129.0889992  10.6709978  59.0910014 128.3605253  10.2955498  58.7993822
 123.8129992   4.1479978  59.5720014 123.5589992   4.1669978  60.4940014
 123.5559992   3.2769978  59.2700014 123.7434508   4.0328280  59.6574803
 120.6949992   4.5939978  58.6730014 120.2639992   4.1489978  59.4020014
 119.9769992   4.9649978  58.1600014 120.5389176   4.5832051  58.7034930
 119.3129992   7.3709978  60.0550014 118.7709992   6.9919978  59.3640014
 120.1469992   7.5659978  59.6270014 119.3514390   7.3454079  59.9024392
 126.5459992   4.7509978  60.1900014 125.6079992   4.8619978  60.0390014
 126.8439992   5.6069978  60.4970014 126.4576318   4.8820158  60.2108145
 124.7739992  13.3949978  61.0160014 124.4789992  14.2219978  61.3980014
 124.0709992  12.7759978  61.2130014 124.6386379  13.4244171  61.0948654
 132.1499992   6.8269978  61.5460014 131.5949992   6.4309978  60.8730014
 132.2499992   7.7379978  61.2680014 132.0876816   6.8959505  61.4165033
 130.4449992  15.6129978  62.0110014 130.0719992  14.7879978  62.3200014
 130.7219992  15.4299978  61.1130014 130.4313463  15.4752569  61.9319525
 115.9029992   9.6119978  59.7520014 116.5189992  10.2389978  60.1320014
 115.0409992   9.9279978  60.0240014 115.8707678   9.7404412  59.8407209
 127.8369992  13.5899978  59.8310014 128.1909992  13.2099978  60.6350014
 126.8889992  13.4959978  59.9180014 127.7572298  13.5252452  59.9528687
 132.3409992  18.0689978  60.0320014 133.0849992  18.6549978  59.8920014
 131.6469992  18.6379978  60.3650014 132.3489809  18.2260818  60.0578590
 121.9279992  14.7019978  58.2780014 122.1669992  13.9529978  57.7310014
 121.6589992  14.3139978  59.1110014 121.9243233  14.5471853  58.3157809
 125.9339992   3.8389978  62.6210014 126.1539992   4.3099978  61.8170014
 126.4929992   4.2329978  63.2910014 126.0396731   3.9567287  62.6015033
 123.6029992  15.9689978  61.4840014 122.7859992  16.4659978  61.5360014
 124.1319992  16.4449978  60.8430014 123.5628125  16.1011989  61.4045306
 120.9409992  17.0129978  61.4650014 121.1019992  17.8129978  60.9650014
 120.7439992  17.3199978  62.3500014 120.9363906  17.1638678  61.5162333
 117.9339992  14.1379978  60.1410014 118.5259992  14.8379978  60.4180014
 118.3929992  13.7049978  59.4220014 118.0771652  14.1752675  60.0816533
 116.2499992   6.8029978  59.2570014 116.2049992   7.7419978  59.4360014
 115.3619992   6.5669978  58.9880014 116.1238166   6.8996687  59.2451524
 123.9659992  16.5649978  58.4170014 123.3219992  15.9339978  58.7380014
 124.7279992  16.0339978  58.1850014 123.9808058  16.4067902  58.4296038
 128.5709992  16.3819978  58.6500014 128.8539992  15.5869978  59.1030014
 129.3099992  16.6149978  58.0890014 128.7097096  16.3047049  58.6361104
 119.5249992  12.2909978  58.5080014 119.5899992  11.4969978  59.0380014
 120.1779992  12.1729978  57.8180014 119.6221605  12.1663430  58.4872997
 124.8779992  13.3379978  58.2440014 124.6089992  13.5189978  59.1440014
 124.6709992  12.4129978  58.1120014 124.8131191  13.2377119  58.3495524
 121.7459992   8.5069978  59.0760014 121.5649992   8.3519978  58.1490014
 122.6959992   8.6149978  59.1210014 121.8496566   8.5003669  58.9550929
 131.1359992  10.8609978  58.5220014 130.8619992  10.4369978  57.7090014
 131.1749992  11.7929978  58.3050014 131.1037716  10.9288827  58.3814286
 121.6429992  19.1969978  60.0770014 122.5759992  19.3549978  60.2210014
 121.3789992  19.8729978  59.4520014 121.7349911  19.3099373  60.0122722
 115.2109992  13.8339978  59.5600014 116.1249992  13.9129978  59.8330014
 115.2189992  13.1469978  58.8940014 115.3370655  13.7519205  59.5072917
 132.2569992   9.6849978  60.7110014 131.7349992  10.0409978  59.9930014
 132.2239992  10.3599978  61.3900014 132.1810129   9.8249598  60.7043355
 130.6059992   6.9239978  59.2620014 130.7019992   7.5909978  58.5820014
 130.4659992   6.1089978  58.7810014 130.6002040   6.9050671  59.1038378
 129.8529992   4.3319978  58.3800014 130.4639992   3.9609978  59.0170014
 129.0159992   3.9109978  58.5760014 129.8234947   4.2242756  58.4937252
 131.9659992   3.2179978  59.9220014 132.3779992   2.4969978  59.4470014
 132.6469992   3.8869978  59.9800014 132.1145536   3.2097766  59.8648024
 115.5229992   1.2659978  61.0280014 115.9619992   1.8769978  60.4360014
 114.8889992   1.8039978  61.5020014 115.4973859   1.4224064  61.0110305
 117.3839992   3.1819978  59.4700014 117.8749992   2.5519978  58.9430014
 118.0069992   3.4779978  60.1330014 117.5355304   3.1357376  59.4874940
 124.2879992  18.4229978  60.3230014 125.1539992  18.7899978  60.1450014
 124.0419992  17.9839978  59.5090014 124.3732097  18.4138525  60.1886019
 117.2419992  18.1339978  58.9500014 116.9739992  18.4199978  59.8240014
 118.0129992  17.5879978  59.1030014 117.3095926  18.0992779  59.0901205
 142.6689992   4.1479978  59.5720014 142.4149992   4.1669978  60.4940014
 142.4119992   3.2769978  59.2700014 142.5994508   4.0328280  59.6574803
 139.5509992   4.5939978  58.6730014 139.1199992   4.1489978  59.4020014
 138.8329992   4.9649978  58.1600014 139.3949176   4.5832051  58.7034930
 134.0679992   5.0819978  61.1490014 134.5419992   5.6729978  60.5640014
 133.3499992   5.6119978  61.4960014 134.0358640   5.2345511  61.1157969
 145.4019992   4.7509978  60.1900014 144.4639992   4.8619978  60.0390014
 145.6999992   5.6069978  60.4970014 145.3136318   4.8820158  60.2108145
 143.6299992  13.3949978  61.0160014 143.3349992  14.2219978  61.3980014
 142.9269992  12.7759978  61.2130014 143.4946379  13.4244171  61.0948654
 134.7589992   9.6119978  59.7520014 135.3749992  10.2389978  60.1320014
 133.8969992   9.9279978  60.0240014 134.7267678   9.7404412  59.8407209
 140.7839992  14.7019978  58.2780014 141.0229992  13.9529978  57.7310014
 140.5149992  14.3139978  59.1110014 140.7803233  14.5471853  58.3157809
 139.7209992  14.2719978  60.7340014 139.8679992  13.7519978  61.5240014
 139.7179992  15.1789978  61.0410014 139.7407102  14.3233953  60.8835925
 136.1739992  11.5239978  61.2450014 135.4879992  11.8769978  61.8120014
 136.6969992  12.2869978  60.9980014 136.1508402  11.6753901  61.2891801
 138.5319992   3.7109978  61.0810014 138.4479992   4.5989978  61.4280014
 139.4219992   3.4459978  61.3130014 138.6408163   3.7967179  61.1598596
 136.7899992  14.1379978  60.1410014 137.3819992  14.8379978  60.4180014
 137.2489992  13.7049978  59.4220014 136.9331652  14.1752675  60.0816533
 135.1059992   6.8029978  59.2570014 135.0609992   7.7419978  59.4360014
 134.2179992   6.5669978  58.9880014 134.9798166   6.8996687  59.2451524
 142.8219992  16.5649978  58.4170014 142.1779992  15.9339978  58.7380014
 143.5839992  16.0339978  58.1850014 142.8368058  16.4067902  58.4296038
 138.3809992  12.2909978  58.5080014 138.4459992  11.4969978  59.0380014
 139.0339992  12.1729978  57.8180014 138.4781605  12.1663430  58.4872997
 143.7339992  13.3379978  58.2440014 143.4649992  13.5189978  59.1440014
 143.5269992  12.4129978  58.1120014 143.6691191  13.2377119  58.3495524
 140.6019992   8.5069978  59.0760014 140.4209992   8.3519978  58.1490014
 141.5519992   8.6149978  59.1210014 140.7056566   8.5003669  58.9550929
 134.0669992  13.8339978  59.5600014 134.9809992  13.9129978  59.8330014
 134.0749992  13.1469978  58.8940014 134.1930655  13.7519205  59.5072917
 134.3789992   1.2659978  61.0280014 134.8179992   1.8769978  60.4360014
 133.7449992   1.8039978  61.5020014 134.3533859   1.4224064  61.0110305
 136.2399992   3.1819978  59.4700014 136.7309992   2.5519978  58.9430014
 136.8629992   3.4779978  60.1330014 136.3915304   3.1357376  59.4874940
 136.0979992  18.1339978  58.9500014 135.8299992  18.4199978  59.8240014
 136.8689992  17.5879978  59.1030014 136.1655926  18.0992779  59.0901205
  11.4039992  27.1809978  59.6730014  12.1049992  27.2039978  60.3250014
  11.7059992  26.5529978  59.0170014  11.5408202  27.0992212  59.6735609
  13.6269992  28.0959978  61.2720014  14.2059992  28.2459978  62.0180014
  14.0409992  28.5659978  60.5480014  13.7623358  28.1800954  61.2763953
  18.5149992  34.2119978  59.4610014  18.5879992  35.1509978  59.6310014
  19.4199992  33.9069978  59.4050014  18.6474170  34.2993282  59.4767063
  13.9269992  36.9429978  60.1240014  14.3019992  36.1989978  59.6530014
  13.9319992  36.6729978  61.0420014  13.9790098  36.8046392  60.1836629
  13.5959992  36.8689978  62.8730014  12.6609992  36.9689978  63.0520014
  13.8759992  36.1589978  63.4520014  13.5059471  36.7867933  62.9756695
  15.1039992  29.1279978  58.9010014  15.1459992  28.9059978  57.9710014
  15.9529992  29.5269978  59.0910014  15.2245253  29.1515498  58.7993822
   7.5589992  23.4499978  58.6730014   7.1279992  23.0049978  59.4020014
   6.8409992  23.8209978  58.1600014   7.4029176  23.4392051  58.7034930
   2.7669992  28.4679978  59.7520014   3.3829992  29.0949978  60.1320014
   1.9049992  28.7839978  60.0240014   2.7347678  28.5964412  59.8407209
  14.7009992  32.4459978  59.8310014  15.0549992  32.0659978  60.6350014
  13.7529992  32.3519978  59.9180014  14.6212298  32.3812452  59.9528687
   8.7919992  33.5579978  58.2780014   9.0309992  32.8089978  57.7310014
   8.5229992  33.1699978  59.1110014   8.7883233  33.4031853  58.3157809
   7.7289992  33.1279978  60.7340014   7.8759992  32.6079978  61.5240014
   7.7259992  34.0349978  61.0410014   7.7487102  33.1793953  60.8835925
  10.4669992  34.8249978  61.4840014   9.6499992  35.3219978  61.5360014
  10.9959992  35.3009978  60.8430014  10.4268125  34.9571989  61.4045306
   3.1139992  25.6589978  59.2570014   3.0689992  26.5979978  59.4360014
   2.2259992  25.4229978  58.9880014   2.9878166  25.7556687  59.2451524
  10.8299992  35.4209978  58.4170014  10.1859992  34.7899978  58.7380014
  11.5919992  34.8899978  58.1850014  10.8448058  35.2627902  58.4296038
  15.4349992  35.2379978  58.6500014  15.7179992  34.4429978  59.1030014
  16.1739992  35.4709978  58.0890014  15.5737096  35.1607049  58.6361104
   6.3889992  31.1469978  58.5080014   6.4539992  30.3529978  59.0380014
   7.0419992  31.0289978  57.8180014   6.4861605  31.0223430  58.4872997
  11.7419992  32.1939978  58.2440014  11.4729992  32.3749978  59.1440014
  11.5349992  31.2689978  58.1120014  11.6771191  32.0937119  58.3495524
   8.6099992  27.3629978  59.0760014   8.4289992  27.2079978  58.1490014
   9.5599992  27.4709978  59.1210014   8.7136566  27.3563669  58.9550929
  17.9999992  29.7169978  58.5220014  17.7259992  29.2929978  57.7090014
  18.0389992  30.6489978  58.3050014  17.9677716  29.7848827  58.3814286
  19.1209992  28.5409978  60.7110014  18.5989992  28.8969978  59.9930014
  19.0879992  29.2159978  61.3900014  19.0450129  28.6809598  60.7043355
  17.4699992  25.7799978  59.2620014  17.5659992  26.4469978  58.5820014
  17.3299992  24.9649978  58.7810014  17.4642040  25.7610671  59.1038378
  16.7169992  23.1879978  58.3800014  17.3279992  22.8169978  59.0170014
  15.8799992  22.7669978  58.5760014  16.6874947  23.0802755  58.4937252
  18.8299992  22.0739978  59.9220014  19.2419992  21.3529978  59.4470014
  19.5109992  22.7429978  59.9800014  18.9785536  22.0657766  59.8648024
   2.3869992  20.1219978  61.0280014   2.8259992  20.7329978  60.4360014
   1.7529992  20.6599978  61.5020014   2.3613859  20.2784064  61.0110305
  15.0399992  20.3059978  62.3790014  14.3369992  20.9209978  62.1690014
  14.5949992  19.4689978  62.5100014  14.8836550  20.2769668  62.3679837
   4.2479992  22.0379978  59.4700014   4.7389992  21.4079978  58.9430014
   4.8709992  22.3339978  60.1330014   4.3995304  21.9917376  59.4874940
   4.1059992  36.9899978  58.9500014   3.8379992  37.2759978  59.8240014
   4.8769992  36.4439978  59.1030014   4.1735926  36.9552779  59.0901205
  30.2599992  27.1809978  59.6730014  30.9609992  27.2039978  60.3250014
  30.5619992  26.5529978  59.0170014  30.3968202  27.0992212  59.6735609
  37.3709992  34.2119978  59.4610014  37.4439992  35.1509978  59.6310014
  38.2759992  33.9069978  59.4050014  37.5034170  34.2993282  59.4767063
  32.7829992  36.9429978  60.1240014  33.1579992  36.1989978  59.6530014
  32.7879992  36.6729978  61.0420014  32.8350098  36.8046392  60.1836629
  33.9599992  29.1279978  58.9010014  34.0019992  28.9059978  57.9710014
  34.8089992  29.5269978  59.0910014  34.0805253  29.1515498  58.7993822
  26.4149992  23.4499978  58.6730014  25.9839992  23.0049978  59.4020014
  25.6969992  23.8209978  58.1600014  26.2589176  23.4392051  58.7034930
  20.9319992  23.9379978  61.1490014  21.4059992  24.5289978  60.5640014
  20.2139992  24.4679978  61.4960014  20.8998640  24.0905511  61.1157969
  25.0329992  26.2269978  60.0550014  24.4909992  25.8479978  59.3640014
  25.8669992  26.4219978  59.6270014  25.0714390  26.2014079  59.9024392
  32.2659992  23.6069978  60.1900014  31.3279992  23.7179978  60.0390014
  32.5639992  24.4629978  60.4970014  32.1776318  23.7380158  60.2108145
  30.4939992  32.2509978  61.0160014  30.1989992  33.0779978  61.3980014
  29.7909992  31.6319978  61.2130014  30.3586379  32.2804171  61.0948654
  37.8699992  25.6829978  61.5460014  37.3149992  25.2869978  60.8730014
  37.9699992  26.5939978  61.2680014  37.8076816  25.7519505  61.4165033
  21.6229992  28.4679978  59.7520014  22.2389992  29.0949978  60.1320014
  20.7609992  28.7839978  60.0240014  21.5907678  28.5964412  59.8407209
  33.5569992  32.4459978  59.8310014  33.9109992  32.0659978  60.6350014
  32.6089992  32.3519978  59.9180014  33.4772298  32.3812452  59.9528687
  38.0609992  36.9249978  60.0320014  38.8049992  37.5109978  59.8920014
  37.3669992  37.4939978  60.3650014  38.0689809  37.0820818  60.0578590
  27.6479992  33.5579978  58.2780014  27.8869992  32.8089978  57.7310014
  27.3789992  33.1699978  59.1110014  27.6443233  33.4031853  58.3157809
  26.5849992  33.1279978  60.7340014  26.7319992  32.6079978  61.5240014
  26.5819992  34.0349978  61.0410014  26.6047102  33.1793953  60.8835925
  29.3229992  34.8249978  61.4840014  28.5059992  35.3219978  61.5360014
  29.8519992  35.3009978  60.8430014  29.2828125  34.9571989  61.4045306
  26.6609992  35.8689978  61.4650014  26.8219992  36.6689978  60.9650014
  26.4639992  36.1759978  62.3500014  26.6563906  36.0198678  61.5162333
  21.9699992  25.6589978  59.2570014  21.9249992  26.5979978  59.4360014
  21.0819992  25.4229978  58.9880014  21.8438166  25.7556687  59.2451524
  29.6859992  35.4209978  58.4170014  29.0419992  34.7899978  58.7380014
  30.4479992  34.8899978  58.1850014  29.7008058  35.2627902  58.4296038
  34.2909992  35.2379978  58.6500014  34.5739992  34.4429978  59.1030014
  35.0299992  35.4709978  58.0890014  34.4297096  35.1607049  58.6361104
  25.2449992  31.1469978  58.5080014  25.3099992  30.3529978  59.0380014
  25.8979992  31.0289978  57.8180014  25.3421605  31.0223430  58.4872997
  30.5979992  32.1939978  58.2440014  30.3289992  32.3749978  59.1440014
  30.3909992  31.2689978  58.1120014  30.5331191  32.0937119  58.3495524
  27.4659992  27.3629978  59.0760014  27.2849992  27.2079978  58.1490014
  28.4159992  27.4709978  59.1210014  27.5696566  27.3563669  58.9550929
  36.8559992  29.7169978  58.5220014  36.5819992  29.2929978  57.7090014
  36.8949992  30.6489978  58.3050014  36.8237716  29.7848827  58.3814286
  27.3629992  38.0529978  60.0770014  28.2959992  38.2109978  60.2210014
  27.0989992  38.7289978  59.4520014  27.4549911  38.1659373  60.0122722
  20.9309992  32.6899978  59.5600014  21.8449992  32.7689978  59.8330014
  20.9389992  32.0029978  58.8940014  21.0570655  32.6079205  59.5072917
  37.3139992  30.5859978  62.4970014  38.1639992  31.0069978  62.6240014
  37.3189992  29.8459978  63.1040014  37.4311143  30.5436094  62.5964750
  37.9769992  28.5409978  60.7110014  37.4549992  28.8969978  59.9930014
  37.9439992  29.2159978  61.3900014  37.9010129  28.6809598  60.7043355
  36.3259992  25.7799978  59.2620014  36.4219992  26.4469978  58.5820014
  36.1859992  24.9649978  58.7810014  36.3202040  25.7610671  59.1038378
  35.5729992  23.1879978  58.3800014  36.1839992  22.8169978  59.0170014
  34.7359992  22.7669978  58.5760014  35.5434947  23.0802755  58.4937252
  37.6859992  22.0739978  59.9220014  38.0979992  21.3529978  59.4470014
  38.3669992  22.7429978  59.9800014  37.8345536  22.0657766  59.8648024
  21.2429992  20.1219978  61.0280014  21.6819992  20.7329978  60.4360014
  20.6089992  20.6599978  61.5020014  21.2173859  20.2784064  61.0110305
  23.1039992  22.0379978  59.4700014  23.5949992  21.4079978  58.9430014
  23.7269992  22.3339978  60.1330014  23.2555304  21.9917376  59.4874940
  30.0079992  37.2789978  60.3230014  30.8739992  37.6459978  60.1450014
  29.7619992  36.8399978  59.5090014  30.0932097  37.2698525  60.1886019
  22.9619992  36.9899978  58.9500014  22.6939992  37.2759978  59.8240014
  23.7329992  36.4439978  59.1030014  23.0295926  36.9552779  59.0901205
  51.6389992  36.9429978  60.1240014  52.0139992  36.1989978  59.6530014
  51.6439992  36.6729978  61.0420014  51.6910098  36.8046392  60.1836629
  48.3889992  23.0039978  59.5720014  48.1349992  23.0229978  60.4940014
  48.1319992  22.1329978  59.2700014  48.3194508  22.8888280  59.6574803
  45.2709992  23.4499978  58.6730014  44.8399992  23.0049978  59.4020014
  44.5529992  23.8209978  58.1600014  45.1149176  23.4392051  58.7034930
  39.7879992  23.9379978  61.1490014  40.2619992  24.5289978  60.5640014
  39.0699992  24.4679978  61.4960014  39.7558640  24.0905511  61.1157969
  43.8889992  26.2269978  60.0550014  43.3469992  25.8479978  59.3640014
  44.7229992  26.4219978  59.6270014  43.9274390  26.2014079  59.9024392
  47.2249992  30.7929978  61.9910014  46.4799992  30.2849978  61.6690014
  47.0899992  30.8419978  62.9370014  47.1048963  30.7301731  62.0748826
  49.3499992  32.2509978  61.0160014  49.0549992  33.0779978  61.3980014
  48.6469992  31.6319978  61.2130014  49.2146379  32.2804171  61.0948654
  40.4789992  28.4679978  59.7520014  41.0949992  29.0949978  60.1320014
  39.6169992  28.7839978  60.0240014  40.4467678  28.5964412  59.8407209
  52.4129992  32.4459978  59.8310014  52.7669992  32.0659978  60.6350014
  51.4649992  32.3519978  59.9180014  52.3332298  32.3812452  59.9528687
  56.9169992  36.9249978  60.0320014  57.6609992  37.5109978  59.8920014
  56.2229992  37.4939978  60.3650014  56.9249809  37.0820818  60.0578590
  46.5039992  33.5579978  58.2780014  46.7429992  32.8089978  57.7310014
  46.2349992  33.1699978  59.1110014  46.5003233  33.4031853  58.3157809
  40.8259992  25.6589978  59.2570014  40.7809992  26.5979978  59.4360014
  39.9379992  25.4229978  58.9880014  40.6998166  25.7556687  59.2451524
  48.5419992  35.4209978  58.4170014  47.8979992  34.7899978  58.7380014
  49.3039992  34.8899978  58.1850014  48.5568058  35.2627902  58.4296038
  53.1469992  35.2379978  58.6500014  53.4299992  34.4429978  59.1030014
  53.8859992  35.4709978  58.0890014  53.2857096  35.1607049  58.6361104
  44.1009992  31.1469978  58.5080014  44.1659992  30.3529978  59.0380014
  44.7539992  31.0289978  57.8180014  44.1981605  31.0223430  58.4872997
  49.4539992  32.1939978  58.2440014  49.1849992  32.3749978  59.1440014
  49.2469992  31.2689978  58.1120014  49.3891191  32.0937119  58.3495524
  45.2509992  29.1199978  60.8140014  44.7909992  28.6359978  61.4990014
  45.5059992  28.4509978  60.1780014  45.2224856  28.9633669  60.8218397
  46.3219992  27.3629978  59.0760014  46.1409992  27.2079978  58.1490014
  47.2719992  27.4709978  59.1210014  46.4256566  27.3563669  58.9550929
  55.7119992  29.7169978  58.5220014  55.4379992  29.2929978  57.7090014
  55.7509992  30.6489978  58.3050014  55.6797716  29.7848827  58.3814286
  46.2189992  38.0529978  60.0770014  47.1519992  38.2109978  60.2210014
  45.9549992  38.7289978  59.4520014  46.3109911  38.1659373  60.0122722
  39.7869992  32.6899978  59.5600014  40.7009992  32.7689978  59.8330014
  39.7949992  32.0029978  58.8940014  39.9130655  32.6079205  59.5072917
  56.8329992  28.5409978  60.7110014  56.3109992  28.8969978  59.9930014
  56.7999992  29.2159978  61.3900014  56.7570129  28.6809598  60.7043355
  54.4289992  23.1879978  58.3800014  55.0399992  22.8169978  59.0170014
  53.5919992  22.7669978  58.5760014  54.3994947  23.0802756  58.4937252
  56.5419992  22.0739978  59.9220014  56.9539992  21.3529978  59.4470014
  57.2229992  22.7429978  59.9800014  56.6905536  22.0657766  59.8648024
  40.0989992  20.1219978  61.0280014  40.5379992  20.7329978  60.4360014
  39.4649992  20.6599978  61.5020014  40.0733859  20.2784064  61.0110305
  39.9999992  36.0699978  61.9250014  39.3149992  36.0319978  61.2580014
  40.0039992  36.9829978  62.2130014  39.9067621  36.1881924  61.8726126
  41.9599992  22.0379978  59.4700014  42.4509992  21.4079978  58.9430014
  42.5829992  22.3339978  60.1330014  42.1115304  21.9917376  59.4874940
  46.9859992  22.3309978  61.9270014  47.1639992  21.6839978  62.6100014
  46.9319992  23.1649978  62.3940014  47.0030678  22.3551604  62.0836301
  48.8639992  37.2789978  60.3230014  49.7299992  37.6459978  60.1450014
  48.6179992  36.8399978  59.5090014  48.9492097  37.2698525  60.1886019
  41.8179992  36.9899978  58.9500014  41.5499992  37.2759978  59.8240014
  42.5889992  36.4439978  59.1030014  41.8855926  36.9552779  59.0901205
  67.9719992  27.1809978  59.6730014  68.6729992  27.2039978  60.3250014
  68.2739992  26.5529978  59.0170014  68.1088202  27.0992212  59.6735609
  70.1949992  28.0959978  61.2720014  70.7739992  28.2459978  62.0180014
  70.6089992  28.5659978  60.5480014  70.3303358  28.1800955  61.2763953
  75.0829992  34.2119978  59.4610014  75.1559992  35.1509978  59.6310014
  75.9879992  33.9069978  59.4050014  75.2154170  34.2993282  59.4767063
  70.4949992  36.9429978  60.1240014  70.8699992  36.1989978  59.6530014
  70.4999992  36.6729978  61.0420014  70.5470098  36.8046392  60.1836629
  71.6719992  29.1279978  58.9010014  71.7139992  28.9059978  57.9710014
  72.5209992  29.5269978  59.0910014  71.7925253  29.1515498  58.7993822
  67.2449992  23.0039978  59.5720014  66.9909992  23.0229978  60.4940014
  66.9879992  22.1329978  59.2700014  67.1754508  22.8888280  59.6574803
  64.1269992  23.4499978  58.6730014  63.6959992  23.0049978  59.4020014
  63.4089992  23.8209978  58.1600014  63.9709176  23.4392051  58.7034930
  64.0709992  25.0329978  62.4890014  65.0029992  25.1619978  62.6670014
  63.8559992  25.7019978  61.8390014  64.1694472  25.1410806  62.4254891
  62.7449992  26.2269978  60.0550014  62.2029992  25.8479978  59.3640014
  63.5789992  26.4219978  59.6270014  62.7834390  26.2014079  59.9024392
  69.9779992  23.6069978  60.1900014  69.0399992  23.7179978  60.0390014
  70.2759992  24.4629978  60.4970014  69.8896318  23.7380158  60.2108145
  70.6969992  25.4739978  61.8510014  71.5889992  25.3359978  62.1700014
  70.7529992  26.2649978  61.3140014  70.8267325  25.5619918  61.8221217
  59.3349992  28.4679978  59.7520014  59.9509992  29.0949978  60.1320014
  58.4729992  28.7839978  60.0240014  59.3027678  28.5964412  59.8407209
  75.7729992  36.9249978  60.0320014  76.5169992  37.5109978  59.8920014
  75.0789992  37.4939978  60.3650014  75.7809809  37.0820818  60.0578590
  72.1349992  31.1179978  62.0580014  71.8579992  30.3899978  62.6140014
  73.0629992  31.2369978  62.2630014  72.2224499  31.0344213  62.1618044
  65.3599992  33.5579978  58.2780014  65.5989992  32.8089978  57.7310014
  65.0909992  33.1699978  59.1110014  65.3563233  33.4031853  58.3157809
  60.7499992  30.3799978  61.2450014  60.0639992  30.7329978  61.8120014
  61.2729992  31.1429978  60.9980014  60.7268402  30.5313901  61.2891801
  67.0349992  34.8249978  61.4840014  66.2179992  35.3219978  61.5360014
  67.5639992  35.3009978  60.8430014  66.9948125  34.9571989  61.4045306
  63.1079992  22.5669978  61.0810014  63.0239992  23.4549978  61.4280014
  63.9979992  22.3019978  61.3130014  63.2168163  22.6527179  61.1598596
  61.3659992  32.9939978  60.1410014  61.9579992  33.6939978  60.4180014
  61.8249992  32.5609978  59.4220014  61.5091652  33.0312675  60.0816533
  59.6819992  25.6589978  59.2570014  59.6369992  26.5979978  59.4360014
  58.7939992  25.4229978  58.9880014  59.5558166  25.7556687  59.2451524
  67.3979992  35.4209978  58.4170014  66.7539992  34.7899978  58.7380014
  68.1599992  34.8899978  58.1850014  67.4128058  35.2627902  58.4296038
  72.0029992  35.2379978  58.6500014  72.2859992  34.4429978  59.1030014
  72.7419992  35.4709978  58.0890014  72.1417096  35.1607049  58.6361104
  62.9569992  31.1469978  58.5080014  63.0219992  30.3529978  59.0380014
  63.6099992  31.0289978  57.8180014  63.0541605  31.0223430  58.4872997
  68.3099992  32.1939978  58.2440014  68.0409992  32.3749978  59.1440014
  68.1029992  31.2689978  58.1120014  68.2451191  32.0937119  58.3495524
  65.1779992  27.3629978  59.0760014  64.9969992  27.2079978  58.1490014
  66.1279992  27.4709978  59.1210014  65.2816566  27.3563669  58.9550929
  74.5679992  29.7169978  58.5220014  74.2939992  29.2929978  57.7090014
  74.6069992  30.6489978  58.3050014  74.5357716  29.7848827  58.3814286
  75.0259992  30.5859978  62.4970014  75.8759992  31.0069978  62.6240014
  75.0309992  29.8459978  63.1040014  75.1431143  30.5436094  62.5964750
  75.6889992  28.5409978  60.7110014  75.1669992  28.8969978  59.9930014
  75.6559992  29.2159978  61.3900014  75.6130129  28.6809598  60.7043355
  74.0379992  25.7799978  59.2620014  74.1339992  26.4469978  58.5820014
  73.8979992  24.9649978  58.7810014  74.0322040  25.7610671  59.1038378
  73.2849992  23.1879978  58.3800014  73.8959992  22.8169978  59.0170014
  72.4479992  22.7669978  58.5760014  73.2554947  23.0802756  58.4937252
  58.9549992  20.1219978  61.0280014  59.3939992  20.7329978  60.4360014
  58.3209992  20.6599978  61.5020014  58.9293859  20.2784064  61.0110305
  71.6079992  20.3059978  62.3790014  70.9049992  20.9209978  62.1690014
  71.1629992  19.4689978  62.5100014  71.4516550  20.2769668  62.3679837
  58.8559992  36.0699978  61.9250014  58.1709992  36.0319978  61.2580014
  58.8599992  36.9829978  62.2130014  58.7627621  36.1881924  61.8726126
  60.8159992  22.0379978  59.4700014  61.3069992  21.4079978  58.9430014
  61.4389992  22.3339978  60.1330014  60.9675304  21.9917376  59.4874940
  67.7199992  37.2789978  60.3230014  68.5859992  37.6459978  60.1450014
  67.4739992  36.8399978  59.5090014  67.8052097  37.2698525  60.1886019
  60.6739992  36.9899978  58.9500014  60.4059992  37.2759978  59.8240014
  61.4449992  36.4439978  59.1030014  60.7415926  36.9552779  59.0901205
  77.5789992  31.8919978  62.5380014  77.3069992  32.1209978  61.6500014
  77.6239992  32.7289978  62.9990014  77.5478097  32.0366163  62.4786683
  92.7499992  19.8459978  61.0850014  91.8499992  19.9849978  61.3800014
  93.0019992  20.6769978  60.6830014  92.6608683  19.9774055  61.0710232
  93.9389992  34.2119978  59.4610014  94.0119992  35.1509978  59.6310014
  94.8439992  33.9069978  59.4050014  94.0714170  34.2993282  59.4767063
  89.3509992  36.9429978  60.1240014  89.7259992  36.1989978  59.6530014
  89.3559992  36.6729978  61.0420014  89.4030098  36.8046392  60.1836629
  90.5279992  29.1279978  58.9010014  90.5699992  28.9059978  57.9710014
  91.3769992  29.5269978  59.0910014  90.6485253  29.1515498  58.7993822
  86.1009992  23.0039978  59.5720014  85.8469992  23.0229978  60.4940014
  85.8439992  22.1329978  59.2700014  86.0314508  22.8888280  59.6574803
  81.6009992  26.2269978  60.0550014  81.0589992  25.8479978  59.3640014
  82.4349992  26.4219978  59.6270014  81.6394390  26.2014079  59.9024392
  84.9369992  30.7929978  61.9910014  84.1919992  30.2849978  61.6690014
  84.8019992  30.8419978  62.9370014  84.8168963  30.7301731  62.0748826
  87.0619992  32.2509978  61.0160014  86.7669992  33.0779978  61.3980014
  86.3589992  31.6319978  61.2130014  86.9266379  32.2804171  61.0948654
  94.4379992  25.6829978  61.5460014  93.8829992  25.2869978  60.8730014
  94.5379992  26.5939978  61.2680014  94.3756816  25.7519505  61.4165033
  78.1909992  28.4679978  59.7520014  78.8069992  29.0949978  60.1320014
  77.3289992  28.7839978  60.0240014  78.1587678  28.5964412  59.8407209
  90.1249992  32.4459978  59.8310014  90.4789992  32.0659978  60.6350014
  89.1769992  32.3519978  59.9180014  90.0452298  32.3812452  59.9528687
  94.6289992  36.9249978  60.0320014  95.3729992  37.5109978  59.8920014
  93.9349992  37.4939978  60.3650014  94.6369809  37.0820818  60.0578590
  90.9909992  31.1179978  62.0580014  90.7139992  30.3899978  62.6140014
  91.9189992  31.2369978  62.2630014  91.0784499  31.0344213  62.1618044
  84.2159992  33.5579978  58.2780014  84.4549992  32.8089978  57.7310014
  83.9469992  33.1699978  59.1110014  84.2123233  33.4031853  58.3157809
  83.2289992  35.8689978  61.4650014  83.3899992  36.6689978  60.9650014
  83.0319992  36.1759978  62.3500014  83.2243906  36.0198678  61.5162333
  80.2219992  32.9939978  60.1410014  80.8139992  33.6939978  60.4180014
  80.6809992  32.5609978  59.4220014  80.3651652  33.0312675  60.0816533
  78.5379992  25.6589978  59.2570014  78.4929992  26.5979978  59.4360014
  77.6499992  25.4229978  58.9880014  78.4118166  25.7556687  59.2451524
  86.2539992  35.4209978  58.4170014  85.6099992  34.7899978  58.7380014
  87.0159992  34.8899978  58.1850014  86.2688058  35.2627902  58.4296038
  90.8589992  35.2379978  58.6500014  91.1419992  34.4429978  59.1030014
  91.5979992  35.4709978  58.0890014  90.9977096  35.1607049  58.6361104
  81.8129992  31.1469978  58.5080014  81.8779992  30.3529978  59.0380014
  82.4659992  31.0289978  57.8180014  81.9101605  31.0223430  58.4872997
  87.1659992  32.1939978  58.2440014  86.8969992  32.3749978  59.1440014
  86.9589992  31.2689978  58.1120014  87.1011191  32.0937119  58.3495524
  82.9629992  29.1199978  60.8140014  82.5029992  28.6359978  61.4990014
  83.2179992  28.4509978  60.1780014  82.9344856  28.9633669  60.8218397
  84.0339992  27.3629978  59.0760014  83.8529992  27.2079978  58.1490014
  84.9839992  27.4709978  59.1210014  84.1376566  27.3563669  58.9550929
  93.4239992  29.7169978  58.5220014  93.1499992  29.2929978  57.7090014
  93.4629992  30.6489978  58.3050014  93.3917716  29.7848827  58.3814286
  83.9309992  38.0529978  60.0770014  84.8639992  38.2109978  60.2210014
  83.6669992  38.7289978  59.4520014  84.0229911  38.1659373  60.0122722
  77.4989992  32.6899978  59.5600014  78.4129992  32.7689978  59.8330014
  77.5069992  32.0029978  58.8940014  77.6250655  32.6079205  59.5072917
  93.8819992  30.5859978  62.4970014  94.7319992  31.0069978  62.6240014
  93.8869992  29.8459978  63.1040014  93.9991143  30.5436094  62.5964750
  94.5449992  28.5409978  60.7110014  94.0229992  28.8969978  59.9930014
  94.5119992  29.2159978  61.3900014  94.4690129  28.6809598  60.7043355
  92.8939992  25.7799978  59.2620014  92.9899992  26.4469978  58.5820014
  92.7539992  24.9649978  58.7810014  92.8882040  25.7610671  59.1038378
  92.1409992  23.1879978  58.3800014  92.7519992  22.8169978  59.0170014
  91.3039992  22.7669978  58.5760014  92.1114947  23.0802756  58.4937252
  94.2539992  22.0739978  59.9220014  94.6659992  21.3529978  59.4470014
  94.9349992  22.7429978  59.9800014  94.4025536  22.0657766  59.8648024
  77.8109992  20.1219978  61.0280014  78.2499992  20.7329978  60.4360014
  77.1769992  20.6599978  61.5020014  77.7853859  20.2784064  61.0110305
  79.6719992  22.0379978  59.4700014  80.1629992  21.4079978  58.9430014
  80.2949992  22.3339978  60.1330014  79.8235304  21.9917376  59.4874940
  79.5299992  36.9899978  58.9500014  79.2619992  37.2759978  59.8240014
  80.3009992  36.4439978  59.1030014  79.5975926  36.9552779  59.0901205
 105.6839992  27.1809978  59.6730014 106.3849992  27.2039978  60.3250014
 105.9859992  26.5529978  59.0170014 105.8208202  27.0992212  59.6735609
 107.9069992  28.0959978  61.2720014 108.4859992  28.2459978  62.0180014
 108.3209992  28.5659978  60.5480014 108.0423358  28.1800954  61.2763953
 111.6059992  19.8459978  61.0850014 110.7059992  19.9849978  61.3800014
 111.8579992  20.6769978  60.6830014 111.5168683  19.9774055  61.0710232
 112.7949992  34.2119978  59.4610014 112.8679992  35.1509978  59.6310014
 113.6999992  33.9069978  59.4050014 112.9274170  34.2993282  59.4767063
 108.2069992  36.9429978  60.1240014 108.5819992  36.1989978  59.6530014
 108.2119992  36.6729978  61.0420014 108.2590098  36.8046392  60.1836629
 109.3839992  29.1279978  58.9010014 109.4259992  28.9059978  57.9710014
 110.2329992  29.5269978  59.0910014 109.5045253  29.1515498  58.7993822
 104.9569992  23.0039978  59.5720014 104.7029992  23.0229978  60.4940014
 104.6999992  22.1329978  59.2700014 104.8874508  22.8888280  59.6574803
 101.8389992  23.4499978  58.6730014 101.4079992  23.0049978  59.4020014
 101.1209992  23.8209978  58.1600014 101.6829176  23.4392051  58.7034930
 100.4569992  26.2269978  60.0550014  99.9149992  25.8479978  59.3640014
 101.2909992  26.4219978  59.6270014 100.4954390  26.2014079  59.9024392
 107.6899992  23.6069978  60.1900014 106.7519992  23.7179978  60.0390014
 107.9879992  24.4629978  60.4970014 107.6016318  23.7380158  60.2108145
  97.0469992  28.4679978  59.7520014  97.6629992  29.0949978  60.1320014
  96.1849992  28.7839978  60.0240014  97.0147678  28.5964412  59.8407209
 108.9809992  32.4459978  59.8310014 109.3349992  32.0659978  60.6350014
 108.0329992  32.3519978  59.9180014 108.9012298  32.3812452  59.9528687
 113.4849992  36.9249978  60.0320014 114.2289992  37.5109978  59.8920014
 112.7909992  37.4939978  60.3650014 113.4929809  37.0820818  60.0578590
 103.0719992  33.5579978  58.2780014 103.3109992  32.8089978  57.7310014
 102.8029992  33.1699978  59.1110014 103.0683233  33.4031853  58.3157809
 102.0089992  33.1279978  60.7340014 102.1559992  32.6079978  61.5240014
 102.0059992  34.0349978  61.0410014 102.0287102  33.1793953  60.8835925
  99.0779992  32.9939978  60.1410014  99.6699992  33.6939978  60.4180014
  99.5369992  32.5609978  59.4220014  99.2211652  33.0312675  60.0816533
  97.3939992  25.6589978  59.2570014  97.3489992  26.5979978  59.4360014
  96.5059992  25.4229978  58.9880014  97.2678166  25.7556687  59.2451524
 105.1099992  35.4209978  58.4170014 104.4659992  34.7899978  58.7380014
 105.8719992  34.8899978  58.1850014 105.1248058  35.2627902  58.4296038
 109.7149992  35.2379978  58.6500014 109.9979992  34.4429978  59.1030014
 110.4539992  35.4709978  58.0890014 109.8537096  35.1607049  58.6361104
 100.6689992  31.1469978  58.5080014 100.7339992  30.3529978  59.0380014
 101.3219992  31.0289978  57.8180014 100.7661605  31.0223430  58.4872997
 106.0219992  32.1939978  58.2440014 105.7529992  32.3749978  59.1440014
 105.8149992  31.2689978  58.1120014 105.9571191  32.0937119  58.3495524
 101.8189992  29.1199978  60.8140014 101.3589992  28.6359978  61.4990014
 102.0739992  28.4509978  60.1780014 101.7904856  28.9633669  60.8218397
 102.8899992  27.3629978  59.0760014 102.7089992  27.2079978  58.1490014
 103.8399992  27.4709978  59.1210014 102.9936566  27.3563669  58.9550929
 112.2799992  29.7169978  58.5220014 112.0059992  29.2929978  57.7090014
 112.3189992  30.6489978  58.3050014 112.2477716  29.7848827  58.3814286
  96.3549992  32.6899978  59.5600014  97.2689992  32.7689978  59.8330014
  96.3629992  32.0029978  58.8940014  96.4810655  32.6079205  59.5072917
 112.7379992  30.5859978  62.4970014 113.5879992  31.0069978  62.6240014
 112.7429992  29.8459978  63.1040014 112.8551143  30.5436094  62.5964750
 111.7499992  25.7799978  59.2620014 111.8459992  26.4469978  58.5820014
 111.6099992  24.9649978  58.7810014 111.7442040  25.7610671  59.1038378
 110.9969992  23.1879978  58.3800014 111.6079992  22.8169978  59.0170014
 110.1599992  22.7669978  58.5760014 110.9674947  23.0802755  58.4937252
 113.1099992  22.0739978  59.9220014 113.5219992  21.3529978  59.4470014
 113.7909992  22.7429978  59.9800014 113.2585536  22.0657766  59.8648024
  96.6669992  20.1219978  61.0280014  97.1059992  20.7329978  60.4360014
  96.0329992  20.6599978  61.5020014  96.6413859  20.2784064  61.0110305
  98.5279992  22.0379978  59.4700014  99.0189992  21.4079978  58.9430014
  99.1509992  22.3339978  60.1330014  98.6795304  21.9917376  59.4874940
  98.3859992  36.9899978  58.9500014  98.1179992  37.2759978  59.8240014
  99.1569992  36.4439978  59.1030014  98.4535926  36.9552779  59.0901205
 124.5399992  27.1809978  59.6730014 125.2409992  27.2039978  60.3250014
 124.8419992  26.5529978  59.0170014 124.6768202  27.0992212  59.6735609
 131.6509992  34.2119978  59.4610014 131.7239992  35.1509978  59.6310014
 132.5559992  33.9069978  59.4050014 131.7834170  34.2993282  59.4767063
 127.0629992  36.9429978  60.1240014 127.4379992  36.1989978  59.6530014
 127.0679992  36.6729978  61.0420014 127.1150098  36.8046392  60.1836629
 128.2399992  29.1279978  58.9010014 128.2819992  28.9059978  57.9710014
 129.0889992  29.5269978  59.0910014 128.3605253  29.1515498  58.7993822
 123.8129992  23.0039978  59.5720014 123.5589992  23.0229978  60.4940014
 123.5559992  22.1329978  59.2700014 123.7434508  22.8888280  59.6574803
 120.6949992  23.4499978  58.6730014 120.2639992  23.0049978  59.4020014
 119.9769992  23.8209978  58.1600014 120.5389176  23.4392051  58.7034930
 119.3129992  26.2269978  60.0550014 118.7709992  25.8479978  59.3640014
 120.1469992  26.4219978  59.6270014 119.3514390  26.2014079  59.9024392
 122.6489992  30.7929978  61.9910014 121.9039992  30.2849978  61.6690014
 122.5139992  30.8419978  62.9370014 122.5288963  30.7301731  62.0748826
 126.5459992  23.6069978  60.1900014 125.6079992  23.7179978  60.0390014
 126.8439992  24.4629978  60.4970014 126.4576318  23.7380158  60.2108145
 124.7739992  32.2509978  61.0160014 124.4789992  33.0779978  61.3980014
 124.0709992  31.6319978  61.2130014 124.6386379  32.2804171  61.0948654
 132.1499992  25.6829978  61.5460014 131.5949992  25.2869978  60.8730014
 132.2499992  26.5939978  61.2680014 132.0876816  25.7519505  61.4165033
 115.9029992  28.4679978  59.7520014 116.5189992  29.0949978  60.1320014
 115.0409992  28.7839978  60.0240014 115.8707678  28.5964412  59.8407209
 127.8369992  32.4459978  59.8310014 128.1909992  32.0659978  60.6350014
 126.8889992  32.3519978  59.9180014 127.7572298  32.3812452  59.9528687
 132.3409992  36.9249978  60.0320014 133.0849992  37.5109978  59.8920014
 131.6469992  37.4939978  60.3650014 132.3489809  37.0820818  60.0578590
 128.7029992  31.1179978  62.0580014 128.4259992  30.3899978  62.6140014
 129.6309992  31.2369978  62.2630014 128.7904499  31.0344213  62.1618044
 121.9279992  33.5579978  58.2780014 122.1669992  32.8089978  57.7310014
 121.6589992  33.1699978  59.1110014 121.9243233  33.4031853  58.3157809
 120.8649992  33.1279978  60.7340014 121.0119992  32.6079978  61.5240014
 120.8619992  34.0349978  61.0410014 120.8847102  33.1793953  60.8835925
 117.9339992  32.9939978  60.1410014 118.5259992  33.6939978  60.4180014
 118.3929992  32.5609978  59.4220014 118.0771652  33.0312675  60.0816533
 116.2499992  25.6589978  59.2570014 116.2049992  26.5979978  59.4360014
 115.3619992  25.4229978  58.9880014 116.1238166  25.7556687  59.2451524
 123.9659992  35.4209978  58.4170014 123.3219992  34.7899978  58.7380014
 124.7279992  34.8899978  58.1850014 123.9808058  35.2627902  58.4296038
 128.5709992  35.2379978  58.6500014 128.8539992  34.4429978  59.1030014
 129.3099992  35.4709978  58.0890014 128.7097096  35.1607049  58.6361104
 119.5249992  31.1469978  58.5080014 119.5899992  30.3529978  59.0380014
 120.1779992  31.0289978  57.8180014 119.6221605  31.0223430  58.4872997
 124.8779992  32.1939978  58.2440014 124.6089992  32.3749978  59.1440014
 124.6709992  31.2689978  58.1120014 124.8131191  32.0937119  58.3495524
 121.7459992  27.3629978  59.0760014 121.5649992  27.2079978  58.1490014
 122.6959992  27.4709978  59.1210014 121.8496566  27.3563669  58.9550929
 131.1359992  29.7169978  58.5220014 130.8619992  29.2929978  57.7090014
 131.1749992  30.6489978  58.3050014 131.1037716  29.7848827  58.3814286
 121.6429992  38.0529978  60.0770014 122.5759992  38.2109978  60.2210014
 121.3789992  38.7289978  59.4520014 121.7349911  38.1659373  60.0122722
 115.2109992  32.6899978  59.5600014 116.1249992  32.7689978  59.8330014
 115.2189992  32.0029978  58.8940014 115.3370655  32.6079205  59.5072917
 131.5939992  30.5859978  62.4970014 132.4439992  31.0069978  62.6240014
 131.5989992  29.8459978  63.1040014 131.7111143  30.5436094  62.5964750
 132.2569992  28.5409978  60.7110014 131.7349992  28.8969978  59.9930014
 132.2239992  29.2159978  61.3900014 132.1810129  28.6809598  60.7043355
 130.6059992  25.7799978  59.2620014 130.7019992  26.4469978  58.5820014
 130.4659992  24.9649978  58.7810014 130.6002040  25.7610671  59.1038378
 129.8529992  23.1879978  58.3800014 130.4639992  22.8169978  59.0170014
 129.0159992  22.7669978  58.5760014 129.8234947  23.0802756  58.4937252
 131.9659992  22.0739978  59.9220014 132.3779992  21.3529978  59.4470014
 132.6469992  22.7429978  59.9800014 132.1145536  22.0657766  59.8648024
 115.5229992  20.1219978  61.0280014 115.9619992  20.7329978  60.4360014
 114.8889992  20.6599978  61.5020014 115.4973859  20.2784064  61.0110305
 117.3839992  22.0379978  59.4700014 117.8749992  21.4079978  58.9430014
 118.0069992  22.3339978  60.1330014 117.5355304  21.9917376  59.4874940
 124.2879992  37.2789978  60.3230014 125.1539992  37.6459978  60.1450014
 124.0419992  36.8399978  59.5090014 124.3732097  37.2698525  60.1886019
 117.2419992  36.9899978  58.9500014 116.9739992  37.2759978  59.8240014
 118.0129992  36.4439978  59.1030014 117.3095926  36.9552779  59.0901205
 143.3959992  27.1809978  59.6730014 144.0969992  27.2039978  60.3250014
 143.6979992  26.5529978  59.0170014 143.5328202  27.0992212  59.6735609
 142.6689992  23.0039978  59.5720014 142.4149992  23.0229978  60.4940014
 142.4119992  22.1329978  59.2700014 142.5994508  22.8888280  59.6574803
 139.5509992  23.4499978  58.6730014 139.1199992  23.0049978  59.4020014
 138.8329992  23.8209978  58.1600014 139.3949176  23.4392051  58.7034930
 145.4019992  23.6069978  60.1900014 144.4639992  23.7179978  60.0390014
 145.6999992  24.4629978  60.4970014 145.3136318  23.7380158  60.2108145
 143.6299992  32.2509978  61.0160014 143.3349992  33.0779978  61.3980014
 142.9269992  31.6319978  61.2130014 143.4946379  32.2804171  61.0948654
 134.7589992  28.4679978  59.7520014 135.3749992  29.0949978  60.1320014
 133.8969992  28.7839978  60.0240014 134.7267678  28.5964412  59.8407209
 140.7839992  33.5579978  58.2780014 141.0229992  32.8089978  57.7310014
 140.5149992  33.1699978  59.1110014 140.7803233  33.4031853  58.3157809
 139.7209992  33.1279978  60.7340014 139.8679992  32.6079978  61.5240014
 139.7179992  34.0349978  61.0410014 139.7407102  33.1793953  60.8835925
 144.7899992  22.6949978  62.6210014 145.0099992  23.1659978  61.8170014
 145.3489992  23.0889978  63.2910014 144.8956731  22.8127287  62.6015033
 139.7969992  35.8689978  61.4650014 139.9579992  36.6689978  60.9650014
 139.5999992  36.1759978  62.3500014 139.7923906  36.0198678  61.5162333
 138.5319992  22.5669978  61.0810014 138.4479992  23.4549978  61.4280014
 139.4219992  22.3019978  61.3130014 138.6408163  22.6527179  61.1598596
 135.1059992  25.6589978  59.2570014 135.0609992  26.5979978  59.4360014
 134.2179992  25.4229978  58.9880014 134.9798166  25.7556687  59.2451524
 142.8219992  35.4209978  58.4170014 142.1779992  34.7899978  58.7380014
 143.5839992  34.8899978  58.1850014 142.8368058  35.2627902  58.4296038
 138.3809992  31.1469978  58.5080014 138.4459992  30.3529978  59.0380014
 139.0339992  31.0289978  57.8180014 138.4781605  31.0223430  58.4872997
 143.7339992  32.1939978  58.2440014 143.4649992  32.3749978  59.1440014
 143.5269992  31.2689978  58.1120014 143.6691191  32.0937119  58.3495524
 140.6019992  27.3629978  59.0760014 140.4209992  27.2079978  58.1490014
 141.5519992  27.4709978  59.1210014 140.7056566  27.3563669  58.9550929
 134.3789992  20.1219978  61.0280014 134.8179992  20.7329978  60.4360014
 133.7449992  20.6599978  61.5020014 134.3533859  20.2784064  61.0110305
 141.2659992  22.3309978  61.9270014 141.4439992  21.6839978  62.6100014
 141.2119992  23.1649978  62.3940014 141.2830678  22.3551604  62.0836301
 136.0979992  36.9899978  58.9500014 135.8299992  37.2759978  59.8240014
 136.8689992  36.4439978  59.1030014 136.1655926  36.9552779  59.0901205
  11.4039992  46.0369978  59.6730014  12.1049992  46.0599978  60.3250014
  11.7059992  45.4089978  59.0170014  11.5408202  45.9552212  59.6735609
  13.6269992  46.9519978  61.2720014  14.2059992  47.1019978  62.0180014
  14.0409992  47.4219978  60.5480014  13.7623358  47.0360954  61.2763953
  18.5149992  53.0679978  59.4610014  18.5879992  54.0069978  59.6310014
  19.4199992  52.7629978  59.4050014  18.6474170  53.1553282  59.4767063
  13.9269992  55.7989978  60.1240014  14.3019992  55.0549978  59.6530014
  13.9319992  55.5289978  61.0420014  13.9790098  55.6606392  60.1836629
  15.1039992  47.9839978  58.9010014  15.1459992  47.7619978  57.9710014
  15.9529992  48.3829978  59.0910014  15.2245253  48.0075498  58.7993822
  10.6769992  41.8599978  59.5720014  10.4229992  41.8789978  60.4940014
  10.4199992  40.9889978  59.2700014  10.6074508  41.7448280  59.6574803
   7.5589992  42.3059978  58.6730014   7.1279992  41.8609978  59.4020014
   6.8409992  42.6769978  58.1600014   7.4029176  42.2952052  58.7034930
   7.5029992  43.8889978  62.4890014   8.4349992  44.0179978  62.6670014
   7.2879992  44.5579978  61.8390014   7.6014472  43.9970806  62.4254891
   6.1769992  45.0829978  60.0550014   5.6349992  44.7039978  59.3640014
   7.0109992  45.2779978  59.6270014   6.2154390  45.0574079  59.9024392
  13.4099992  42.4629978  60.1900014  12.4719992  42.5739978  60.0390014
  13.7079992  43.3189978  60.4970014  13.3216318  42.5940158  60.2108145
  14.1289992  44.3299978  61.8510014  15.0209992  44.1919978  62.1700014
  14.1849992  45.1209978  61.3140014  14.2587325  44.4179918  61.8221217
   2.7669992  47.3239978  59.7520014   3.3829992  47.9509978  60.1320014
   1.9049992  47.6399978  60.0240014   2.7347678  47.4524412  59.8407209
  14.7009992  51.3019978  59.8310014  15.0549992  50.9219978  60.6350014
  13.7529992  51.2079978  59.9180014  14.6212298  51.2372452  59.9528687
  19.2049992  55.7809978  60.0320014  19.9489992  56.3669978  59.8920014
  18.5109992  56.3499978  60.3650014  19.2129809  55.9380818  60.0578590
   8.7919992  52.4139978  58.2780014   9.0309992  51.6649978  57.7310014
   8.5229992  52.0259978  59.1110014   8.7883233  52.2591853  58.3157809
   7.7289992  51.9839978  60.7340014   7.8759992  51.4639978  61.5240014
   7.7259992  52.8909978  61.0410014   7.7487102  52.0353953  60.8835925
  10.4669992  53.6809978  61.4840014   9.6499992  54.1779978  61.5360014
  10.9959992  54.1569978  60.8430014  10.4268125  53.8131989  61.4045306
   6.5399992  41.4229978  61.0810014   6.4559992  42.3109978  61.4280014
   7.4299992  41.1579978  61.3130014   6.6488163  41.5087179  61.1598596
   3.1139992  44.5149978  59.2570014   3.0689992  45.4539978  59.4360014
   2.2259992  44.2789978  58.9880014   2.9878166  44.6116687  59.2451524
  10.8299992  54.2769978  58.4170014  10.1859992  53.6459978  58.7380014
  11.5919992  53.7459978  58.1850014  10.8448058  54.1187902  58.4296038
  15.4349992  54.0939978  58.6500014  15.7179992  53.2989978  59.1030014
  16.1739992  54.3269978  58.0890014  15.5737096  54.0167049  58.6361104
   6.3889992  50.0029978  58.5080014   6.4539992  49.2089978  59.0380014
   7.0419992  49.8849978  57.8180014   6.4861605  49.8783430  58.4872997
  11.7419992  51.0499978  58.2440014  11.4729992  51.2309978  59.1440014
  11.5349992  50.1249978  58.1120014  11.6771191  50.9497119  58.3495524
   7.5389992  47.9759978  60.8140014   7.0789992  47.4919978  61.4990014
   7.7939992  47.3069978  60.1780014   7.5104856  47.8193669  60.8218397
   8.6099992  46.2189978  59.0760014   8.4289992  46.0639978  58.1490014
   9.5599992  46.3269978  59.1210014   8.7136566  46.2123669  58.9550929
  17.9999992  48.5729978  58.5220014  17.7259992  48.1489978  57.7090014
  18.0389992  49.5049978  58.3050014  17.9677716  48.6408827  58.3814286
   8.5069992  56.9089978  60.0770014   9.4399992  57.0669978  60.2210014
   8.2429992  57.5849978  59.4520014   8.5989911  57.0219373  60.0122722
  17.4699992  44.6359978  59.2620014  17.5659992  45.3029978  58.5820014
  17.3299992  43.8209978  58.7810014  17.4642040  44.6170671  59.1038378
  16.7169992  42.0439978  58.3800014  17.3279992  41.6729978  59.0170014
  15.8799992  41.6229978  58.5760014  16.6874947  41.9362755  58.4937252
  18.8299992  40.9299978  59.9220014  19.2419992  40.2089978  59.4470014
  19.5109992  41.5989978  59.9800014  18.9785536  40.9217766  59.8648024
   4.2479992  40.8939978  59.4700014   4.7389992  40.2639978  58.9430014
   4.8709992  41.1899978  60.1330014   4.3995304  40.8477376  59.4874940
  11.1519992  56.1349978  60.3230014  12.0179992  56.5019978  60.1450014
  10.9059992  55.6959978  59.5090014  11.2372097  56.1258525  60.1886019
   4.1059992  55.8459978  58.9500014   3.8379992  56.1319978  59.8240014
   4.8769992  55.2999978  59.1030014   4.1735926  55.8112779  59.0901205
  37.3709992  53.0679978  59.4610014  37.4439992  54.0069978  59.6310014
  38.2759992  52.7629978  59.4050014  37.5034170  53.1553282  59.4767063
  33.9599992  47.9839978  58.9010014  34.0019992  47.7619978  57.9710014
  34.8089992  48.3829978  59.0910014  34.0805253  48.0075498  58.7993822
  29.5329992  41.8599978  59.5720014  29.2789992  41.8789978  60.4940014
  29.2759992  40.9889978  59.2700014  29.4634508  41.7448280  59.6574803
  26.4149992  42.3059978  58.6730014  25.9839992  41.8609978  59.4020014
  25.6969992  42.6769978  58.1600014  26.2589176  42.2952051  58.7034930
  20.9319992  42.7939978  61.1490014  21.4059992  43.3849978  60.5640014
  20.2139992  43.3239978  61.4960014  20.8998640  42.9465511  61.1157969
  25.0329992  45.0829978  60.0550014  24.4909992  44.7039978  59.3640014
  25.8669992  45.2779978  59.6270014  25.0714390  45.0574079  59.9024392
  32.2659992  42.4629978  60.1900014  31.3279992  42.5739978  60.0390014
  32.5639992  43.3189978  60.4970014  32.1776318  42.5940158  60.2108145
  30.4939992  51.1069978  61.0160014  30.1989992  51.9339978  61.3980014
  29.7909992  50.4879978  61.2130014  30.3586379  51.1364171  61.0948654
  37.8699992  44.5389978  61.5460014  37.3149992  44.1429978  60.8730014
  37.9699992  45.4499978  61.2680014  37.8076816  44.6079505  61.4165033
  36.1649992  53.3249978  62.0110014  35.7919992  52.4999978  62.3200014
  36.4419992  53.1419978  61.1130014  36.1513463  53.1872569  61.9319525
  21.6229992  47.3239978  59.7520014  22.2389992  47.9509978  60.1320014
  20.7609992  47.6399978  60.0240014  21.5907678  47.4524412  59.8407209
  33.5569992  51.3019978  59.8310014  33.9109992  50.9219978  60.6350014
  32.6089992  51.2079978  59.9180014  33.4772298  51.2372452  59.9528687
  38.0609992  55.7809978  60.0320014  38.8049992  56.3669978  59.8920014
  37.3669992  56.3499978  60.3650014  38.0689809  55.9380818  60.0578590
  34.4229992  49.9739978  62.0580014  34.1459992  49.2459978  62.6140014
  35.3509992  50.0929978  62.2630014  34.5104499  49.8904213  62.1618044
  27.6479992  52.4139978  58.2780014  27.8869992  51.6649978  57.7310014
  27.3789992  52.0259978  59.1110014  27.6443233  52.2591853  58.3157809
  26.5849992  51.9839978  60.7340014  26.7319992  51.4639978  61.5240014
  26.5819992  52.8909978  61.0410014  26.6047102  52.0353953  60.8835925
  31.6539992  41.5509978  62.6210014  31.8739992  42.0219978  61.8170014
  32.2129992  41.9449978  63.2910014  31.7596731  41.6687287  62.6015033
  29.3229992  53.6809978  61.4840014  28.5059992  54.1779978  61.5360014
  29.8519992  54.1569978  60.8430014  29.2828125  53.8131989  61.4045306
  26.6609992  54.7249978  61.4650014  26.8219992  55.5249978  60.9650014
  26.4639992  55.0319978  62.3500014  26.6563906  54.8758678  61.5162333
  23.6539992  51.8499978  60.1410014  24.2459992  52.5499978  60.4180014
  24.1129992  51.4169978  59.4220014  23.7971652  51.8872675  60.0816533
  21.9699992  44.5149978  59.2570014  21.9249992  45.4539978  59.4360014
  21.0819992  44.2789978  58.9880014  21.8438166  44.6116687  59.2451524
  29.6859992  54.2769978  58.4170014  29.0419992  53.6459978  58.7380014
  30.4479992  53.7459978  58.1850014  29.7008058  54.1187902  58.4296038
  34.2909992  54.0939978  58.6500014  34.5739992  53.2989978  59.1030014
  35.0299992  54.3269978  58.0890014  34.4297096  54.0167049  58.6361104
  25.2449992  50.0029978  58.5080014  25.3099992  49.2089978  59.0380014
  25.8979992  49.8849978  57.8180014  25.3421605  49.8783430  58.4872997
  30.5979992  51.0499978  58.2440014  30.3289992  51.2309978  59.1440014
  30.3909992  50.1249978  58.1120014  30.5331191  50.9497119  58.3495524
  26.3949992  47.9759978  60.8140014  25.9349992  47.4919978  61.4990014
  26.6499992  47.3069978  60.1780014  26.3664856  47.8193669  60.8218397
  27.4659992  46.2189978  59.0760014  27.2849992  46.0639978  58.1490014
  28.4159992  46.3269978  59.1210014  27.5696566  46.2123669  58.9550929
  36.8559992  48.5729978  58.5220014  36.5819992  48.1489978  57.7090014
  36.8949992  49.5049978  58.3050014  36.8237716  48.6408827  58.3814286
  27.3629992  56.9089978  60.0770014  28.2959992  57.0669978  60.2210014
  27.0989992  57.5849978  59.4520014  27.4549911  57.0219373  60.0122722
  20.9309992  51.5459978  59.5600014  21.8449992  51.6249978  59.8330014
  20.9389992  50.8589978  58.8940014  21.0570655  51.4639205  59.5072917
  37.3139992  49.4419978  62.4970014  38.1639992  49.8629978  62.6240014
  37.3189992  48.7019978  63.1040014  37.4311143  49.3996094  62.5964750
  37.9769992  47.3969978  60.7110014  37.4549992  47.7529978  59.9930014
  37.9439992  48.0719978  61.3900014  37.9010129  47.5369598  60.7043355
  36.3259992  44.6359978  59.2620014  36.4219992  45.3029978  58.5820014
  36.1859992  43.8209978  58.7810014  36.3202040  44.6170671  59.1038378
  35.5729992  42.0439978  58.3800014  36.1839992  41.6729978  59.0170014
  34.7359992  41.6229978  58.5760014  35.5434947  41.9362755  58.4937252
  37.6859992  40.9299978  59.9220014  38.0979992  40.2089978  59.4470014
  38.3669992  41.5989978  59.9800014  37.8345536  40.9217766  59.8648024
  21.1439992  54.9259978  61.9250014  20.4589992  54.8879978  61.2580014
  21.1479992  55.8389978  62.2130014  21.0507621  55.0441924  61.8726126
  23.1039992  40.8939978  59.4700014  23.5949992  40.2639978  58.9430014
  23.7269992  41.1899978  60.1330014  23.2555304  40.8477376  59.4874940
  22.9619992  55.8459978  58.9500014  22.6939992  56.1319978  59.8240014
  23.7329992  55.2999978  59.1030014  23.0295926  55.8112779  59.0901205
  49.1159992  46.0369978  59.6730014  49.8169992  46.0599978  60.3250014
  49.4179992  45.4089978  59.0170014  49.2528202  45.9552212  59.6735609
  51.3389992  46.9519978  61.2720014  51.9179992  47.1019978  62.0180014
  51.7529992  47.4219978  60.5480014  51.4743358  47.0360954  61.2763953
  55.0379992  38.7019978  61.0850014  54.1379992  38.8409978  61.3800014
  55.2899992  39.5329978  60.6830014  54.9488683  38.8334055  61.0710232
  51.6389992  55.7989978  60.1240014  52.0139992  55.0549978  59.6530014
  51.6439992  55.5289978  61.0420014  51.6910098  55.6606392  60.1836629
  52.8159992  47.9839978  58.9010014  52.8579992  47.7619978  57.9710014
  53.6649992  48.3829978  59.0910014  52.9365253  48.0075498  58.7993822
  48.3889992  41.8599978  59.5720014  48.1349992  41.8789978  60.4940014
  48.1319992  40.9889978  59.2700014  48.3194508  41.7448280  59.6574803
  45.2709992  42.3059978  58.6730014  44.8399992  41.8609978  59.4020014
  44.5529992  42.6769978  58.1600014  45.1149176  42.2952051  58.7034930
  45.2149992  43.8889978  62.4890014  46.1469992  44.0179978  62.6670014
  44.9999992  44.5579978  61.8390014  45.3134472  43.9970806  62.4254891
  43.8889992  45.0829978  60.0550014  43.3469992  44.7039978  59.3640014
  44.7229992  45.2779978  59.6270014  43.9274390  45.0574079  59.9024392
  51.1219992  42.4629978  60.1900014  50.1839992  42.5739978  60.0390014
  51.4199992  43.3189978  60.4970014  51.0336318  42.5940158  60.2108145
  51.8409992  44.3299978  61.8510014  52.7329992  44.1919978  62.1700014
  51.8969992  45.1209978  61.3140014  51.9707325  44.4179918  61.8221217
  49.3499992  51.1069978  61.0160014  49.0549992  51.9339978  61.3980014
  48.6469992  50.4879978  61.2130014  49.2146379  51.1364171  61.0948654
  56.7259992  44.5389978  61.5460014  56.1709992  44.1429978  60.8730014
  56.8259992  45.4499978  61.2680014  56.6636816  44.6079505  61.4165033
  40.4789992  47.3239978  59.7520014  41.0949992  47.9509978  60.1320014
  39.6169992  47.6399978  60.0240014  40.4467678  47.4524412  59.8407209
  52.4129992  51.3019978  59.8310014  52.7669992  50.9219978  60.6350014
  51.4649992  51.2079978  59.9180014  52.3332298  51.2372452  59.9528687
  56.9169992  55.7809978  60.0320014  57.6609992  56.3669978  59.8920014
  56.2229992  56.3499978  60.3650014  56.9249809  55.9380818  60.0578590
  53.2789992  49.9739978  62.0580014  53.0019992  49.2459978  62.6140014
  54.2069992  50.0929978  62.2630014  53.3664499  49.8904213  62.1618044
  46.5039992  52.4139978  58.2780014  46.7429992  51.6649978  57.7310014
  46.2349992  52.0259978  59.1110014  46.5003233  52.2591853  58.3157809
  44.2519992  41.4229978  61.0810014  44.1679992  42.3109978  61.4280014
  45.1419992  41.1579978  61.3130014  44.3608163  41.5087179  61.1598596
  40.8259992  44.5149978  59.2570014  40.7809992  45.4539978  59.4360014
  39.9379992  44.2789978  58.9880014  40.6998166  44.6116687  59.2451524
  48.5419992  54.2769978  58.4170014  47.8979992  53.6459978  58.7380014
  49.3039992  53.7459978  58.1850014  48.5568058  54.1187902  58.4296038
  53.1469992  54.0939978  58.6500014  53.4299992  53.2989978  59.1030014
  53.8859992  54.3269978  58.0890014  53.2857096  54.0167049  58.6361104
  44.1009992  50.0029978  58.5080014  44.1659992  49.2089978  59.0380014
  44.7539992  49.8849978  57.8180014  44.1981605  49.8783430  58.4872997
  49.4539992  51.0499978  58.2440014  49.1849992  51.2309978  59.1440014
  49.2469992  50.1249978  58.1120014  49.3891191  50.9497119  58.3495524
  46.3219992  46.2189978  59.0760014  46.1409992  46.0639978  58.1490014
  47.2719992  46.3269978  59.1210014  46.4256566  46.2123669  58.9550929
  55.7119992  48.5729978  58.5220014  55.4379992  48.1489978  57.7090014
  55.7509992  49.5049978  58.3050014  55.6797716  48.6408827  58.3814286
  46.2189992  56.9089978  60.0770014  47.1519992  57.0669978  60.2210014
  45.9549992  57.5849978  59.4520014  46.3109911  57.0219373  60.0122722
  39.7869992  51.5459978  59.5600014  40.7009992  51.6249978  59.8330014
  39.7949992  50.8589978  58.8940014  39.9130655  51.4639205  59.5072917
  56.8329992  47.3969978  60.7110014  56.3109992  47.7529978  59.9930014
  56.7999992  48.0719978  61.3900014  56.7570129  47.5369598  60.7043355
  55.1819992  44.6359978  59.2620014  55.2779992  45.3029978  58.5820014
  55.0419992  43.8209978  58.7810014  55.1762040  44.6170671  59.1038378
  54.4289992  42.0439978  58.3800014  55.0399992  41.6729978  59.0170014
  53.5919992  41.6229978  58.5760014  54.3994947  41.9362756  58.4937252
  56.5419992  40.9299978  59.9220014  56.9539992  40.2089978  59.4470014
  57.2229992  41.5989978  59.9800014  56.6905536  40.9217766  59.8648024
  39.9999992  54.9259978  61.9250014  39.3149992  54.8879978  61.2580014
  40.0039992  55.8389978  62.2130014  39.9067621  55.0441924  61.8726126
  41.9599992  40.8939978  59.4700014  42.4509992  40.2639978  58.9430014
  42.5829992  41.1899978  60.1330014  42.1115304  40.8477376  59.4874940
  46.9859992  41.1869978  61.9270014  47.1639992  40.5399978  62.6100014
  46.9319992  42.0209978  62.3940014  47.0030678  41.2111604  62.0836301
  48.8639992  56.1349978  60.3230014  49.7299992  56.5019978  60.1450014
  48.6179992  55.6959978  59.5090014  48.9492097  56.1258525  60.1886019
  41.8179992  55.8459978  58.9500014  41.5499992  56.1319978  59.8240014
  42.5889992  55.2999978  59.1030014  41.8855926  55.8112779  59.0901205
  73.8939992  38.7019978  61.0850014  72.9939992  38.8409978  61.3800014
  74.1459992  39.5329978  60.6830014  73.8048683  38.8334055  61.0710232
  75.0829992  53.0679978  59.4610014  75.1559992  54.0069978  59.6310014
  75.9879992  52.7629978  59.4050014  75.2154170  53.1553282  59.4767063
  71.6719992  47.9839978  58.9010014  71.7139992  47.7619978  57.9710014
  72.5209992  48.3829978  59.0910014  71.7925253  48.0075498  58.7993822
  67.2449992  41.8599978  59.5720014  66.9909992  41.8789978  60.4940014
  66.9879992  40.9889978  59.2700014  67.1754508  41.7448280  59.6574803
  64.1269992  42.3059978  58.6730014  63.6959992  41.8609978  59.4020014
  63.4089992  42.6769978  58.1600014  63.9709176  42.2952051  58.7034930
  62.7449992  45.0829978  60.0550014  62.2029992  44.7039978  59.3640014
  63.5789992  45.2779978  59.6270014  62.7834390  45.0574079  59.9024392
  69.9779992  42.4629978  60.1900014  69.0399992  42.5739978  60.0390014
  70.2759992  43.3189978  60.4970014  69.8896318  42.5940158  60.2108145
  68.2059992  51.1069978  61.0160014  67.9109992  51.9339978  61.3980014
  67.5029992  50.4879978  61.2130014  68.0706379  51.1364171  61.0948654
  59.3349992  47.3239978  59.7520014  59.9509992  47.9509978  60.1320014
  58.4729992  47.6399978  60.0240014  59.3027678  47.4524412  59.8407209
  71.2689992  51.3019978  59.8310014  71.6229992  50.9219978  60.6350014
  70.3209992  51.2079978  59.9180014  71.1892298  51.2372452  59.9528687
  75.7729992  55.7809978  60.0320014  76.5169992  56.3669978  59.8920014
  75.0789992  56.3499978  60.3650014  75.7809809  55.9380818  60.0578590
  65.3599992  52.4139978  58.2780014  65.5989992  51.6649978  57.7310014
  65.0909992  52.0259978  59.1110014  65.3563233  52.2591853  58.3157809
  64.2969992  51.9839978  60.7340014  64.4439992  51.4639978  61.5240014
  64.2939992  52.8909978  61.0410014  64.3167102  52.0353953  60.8835925
  60.7499992  49.2359978  61.2450014  60.0639992  49.5889978  61.8120014
  61.2729992  49.9989978  60.9980014  60.7268402  49.3873901  61.2891801
  61.3659992  51.8499978  60.1410014  61.9579992  52.5499978  60.4180014
  61.8249992  51.4169978  59.4220014  61.5091652  51.8872675  60.0816533
  59.6819992  44.5149978  59.2570014  59.6369992  45.4539978  59.4360014
  58.7939992  44.2789978  58.9880014  59.5558166  44.6116687  59.2451524
  67.3979992  54.2769978  58.4170014  66.7539992  53.6459978  58.7380014
  68.1599992  53.7459978  58.1850014  67.4128058  54.1187902  58.4296038
  72.0029992  54.0939978  58.6500014  72.2859992  53.2989978  59.1030014
  72.7419992  54.3269978  58.0890014  72.1417096  54.0167049  58.6361104
  62.9569992  50.0029978  58.5080014  63.0219992  49.2089978  59.0380014
  63.6099992  49.8849978  57.8180014  63.0541605  49.8783430  58.4872997
  68.3099992  51.0499978  58.2440014  68.0409992  51.2309978  59.1440014
  68.1029992  50.1249978  58.1120014  68.2451191  50.9497119  58.3495524
  65.1779992  46.2189978  59.0760014  64.9969992  46.0639978  58.1490014
  66.1279992  46.3269978  59.1210014  65.2816566  46.2123669  58.9550929
  74.5679992  48.5729978  58.5220014  74.2939992  48.1489978  57.7090014
  74.6069992  49.5049978  58.3050014  74.5357716  48.6408827  58.3814286
  73.2849992  42.0439978  58.3800014  73.8959992  41.6729978  59.0170014
  72.4479992  41.6229978  58.5760014  73.2554947  41.9362756  58.4937252
  58.9549992  38.9779978  61.0280014  59.3939992  39.5889978  60.4360014
  58.3209992  39.5159978  61.5020014  58.9293859  39.1344064  61.0110305
  60.8159992  40.8939978  59.4700014  61.3069992  40.2639978  58.9430014
  61.4389992  41.1899978  60.1330014  60.9675304  40.8477376  59.4874940
  67.7199992  56.1349978  60.3230014  68.5859992  56.5019978  60.1450014
  67.4739992  55.6959978  59.5090014  67.8052097  56.1258525  60.1886019
  60.6739992  55.8459978  58.9500014  60.4059992  56.1319978  59.8240014
  61.4449992  55.2999978  59.1030014  60.7415926  55.8112779  59.0901205
  92.7499992  38.7019978  61.0850014  91.8499992  38.8409978  61.3800014
  93.0019992  39.5329978  60.6830014  92.6608683  38.8334055  61.0710232
  93.9389992  53.0679978  59.4610014  94.0119992  54.0069978  59.6310014
  94.8439992  52.7629978  59.4050014  94.0714170  53.1553282  59.4767063
  89.3509992  55.7989978  60.1240014  89.7259992  55.0549978  59.6530014
  89.3559992  55.5289978  61.0420014  89.4030098  55.6606392  60.1836629
  90.5279992  47.9839978  58.9010014  90.5699992  47.7619978  57.9710014
  91.3769992  48.3829978  59.0910014  90.6485253  48.0075498  58.7993822
  86.1009992  41.8599978  59.5720014  85.8469992  41.8789978  60.4940014
  85.8439992  40.9889978  59.2700014  86.0314508  41.7448280  59.6574803
  82.9829992  42.3059978  58.6730014  82.5519992  41.8609978  59.4020014
  82.2649992  42.6769978  58.1600014  82.8269176  42.2952051  58.7034930
  82.9269992  43.8889978  62.4890014  83.8589992  44.0179978  62.6670014
  82.7119992  44.5579978  61.8390014  83.0254472  43.9970806  62.4254891
  81.6009992  45.0829978  60.0550014  81.0589992  44.7039978  59.3640014
  82.4349992  45.2779978  59.6270014  81.6394390  45.0574079  59.9024392
  88.8339992  42.4629978  60.1900014  87.8959992  42.5739978  60.0390014
  89.1319992  43.3189978  60.4970014  88.7456318  42.5940158  60.2108145
  89.5529992  44.3299978  61.8510014  90.4449992  44.1919978  62.1700014
  89.6089992  45.1209978  61.3140014  89.6827325  44.4179918  61.8221217
  92.7329992  53.3249978  62.0110014  92.3599992  52.4999978  62.3200014
  93.0099992  53.1419978  61.1130014  92.7193463  53.1872569  61.9319525
  90.1249992  51.3019978  59.8310014  90.4789992  50.9219978  60.6350014
  89.1769992  51.2079978  59.9180014  90.0452298  51.2372452  59.9528687
  94.6289992  55.7809978  60.0320014  95.3729992  56.3669978  59.8920014
  93.9349992  56.3499978  60.3650014  94.6369809  55.9380818  60.0578590
  90.9909992  49.9739978  62.0580014  90.7139992  49.2459978  62.6140014
  91.9189992  50.0929978  62.2630014  91.0784499  49.8904213  62.1618044
  84.2159992  52.4139978  58.2780014  84.4549992  51.6649978  57.7310014
  83.9469992  52.0259978  59.1110014  84.2123233  52.2591853  58.3157809
  83.1529992  51.9839978  60.7340014  83.2999992  51.4639978  61.5240014
  83.1499992  52.8909978  61.0410014  83.1727102  52.0353953  60.8835925
  81.9639992  41.4229978  61.0810014  81.8799992  42.3109978  61.4280014
  82.8539992  41.1579978  61.3130014  82.0728163  41.5087179  61.1598596
  80.2219992  51.8499978  60.1410014  80.8139992  52.5499978  60.4180014
  80.6809992  51.4169978  59.4220014  80.3651652  51.8872675  60.0816533
  78.5379992  44.5149978  59.2570014  78.4929992  45.4539978  59.4360014
  77.6499992  44.2789978  58.9880014  78.4118166  44.6116687  59.2451524
  86.2539992  54.2769978  58.4170014  85.6099992  53.6459978  58.7380014
  87.0159992  53.7459978  58.1850014  86.2688058  54.1187902  58.4296038
  90.8589992  54.0939978  58.6500014  91.1419992  53.2989978  59.1030014
  91.5979992  54.3269978  58.0890014  90.9977096  54.0167049  58.6361104
  81.8129992  50.0029978  58.5080014  81.8779992  49.2089978  59.0380014
  82.4659992  49.8849978  57.8180014  81.9101605  49.8783430  58.4872997
  87.1659992  51.0499978  58.2440014  86.8969992  51.2309978  59.1440014
  86.9589992  50.1249978  58.1120014  87.1011191  50.9497119  58.3495524
  82.9629992  47.9759978  60.8140014  82.5029992  47.4919978  61.4990014
  83.2179992  47.3069978  60.1780014  82.9344856  47.8193669  60.8218397
  84.0339992  46.2189978  59.0760014  83.8529992  46.0639978  58.1490014
  84.9839992  46.3269978  59.1210014  84.1376566  46.2123669  58.9550929
  93.4239992  48.5729978  58.5220014  93.1499992  48.1489978  57.7090014
  93.4629992  49.5049978  58.3050014  93.3917716  48.6408827  58.3814286
  83.9309992  56.9089978  60.0770014  84.8639992  57.0669978  60.2210014
  83.6669992  57.5849978  59.4520014  84.0229911  57.0219373  60.0122722
  77.4989992  51.5459978  59.5600014  78.4129992  51.6249978  59.8330014
  77.5069992  50.8589978  58.8940014  77.6250655  51.4639205  59.5072917
  92.8939992  44.6359978  59.2620014  92.9899992  45.3029978  58.5820014
  92.7539992  43.8209978  58.7810014  92.8882040  44.6170671  59.1038378
  92.1409992  42.0439978  58.3800014  92.7519992  41.6729978  59.0170014
  91.3039992  41.6229978  58.5760014  92.1114947  41.9362756  58.4937252
  94.2539992  40.9299978  59.9220014  94.6659992  40.2089978  59.4470014
  94.9349992  41.5989978  59.9800014  94.4025536  40.9217766  59.8648024
  77.7119992  54.9259978  61.9250014  77.0269992  54.8879978  61.2580014
  77.7159992  55.8389978  62.2130014  77.6187621  55.0441924  61.8726126
  79.6719992  40.8939978  59.4700014  80.1629992  40.2639978  58.9430014
  80.2949992  41.1899978  60.1330014  79.8235304  40.8477376  59.4874940
  84.6979992  41.1869978  61.9270014  84.8759992  40.5399978  62.6100014
  84.6439992  42.0209978  62.3940014  84.7150678  41.2111604  62.0836301
  79.5299992  55.8459978  58.9500014  79.2619992  56.1319978  59.8240014
  80.3009992  55.2999978  59.1030014  79.5975926  55.8112779  59.0901205
 105.6839992  46.0369978  59.6730014 106.3849992  46.0599978  60.3250014
 105.9859992  45.4089978  59.0170014 105.8208202  45.9552212  59.6735609
 111.6059992  38.7019978  61.0850014 110.7059992  38.8409978  61.3800014
 111.8579992  39.5329978  60.6830014 111.5168683  38.8334055  61.0710232
 112.7949992  53.0679978  59.4610014 112.8679992  54.0069978  59.6310014
 113.6999992  52.7629978  59.4050014 112.9274170  53.1553282  59.4767063
 108.2069992  55.7989978  60.1240014 108.5819992  55.0549978  59.6530014
 108.2119992  55.5289978  61.0420014 108.2590098  55.6606392  60.1836629
 104.9569992  41.8599978  59.5720014 104.7029992  41.8789978  60.4940014
 104.6999992  40.9889978  59.2700014 104.8874508  41.7448280  59.6574803
 101.8389992  42.3059978  58.6730014 101.4079992  41.8609978  59.4020014
 101.1209992  42.6769978  58.1600014 101.6829176  42.2952051  58.7034930
 100.4569992  45.0829978  60.0550014  99.9149992  44.7039978  59.3640014
 101.2909992  45.2779978  59.6270014 100.4954390  45.0574079  59.9024392
 103.7929992  49.6489978  61.9910014 103.0479992  49.1409978  61.6690014
 103.6579992  49.6979978  62.9370014 103.6728963  49.5861731  62.0748826
 107.6899992  42.4629978  60.1900014 106.7519992  42.5739978  60.0390014
 107.9879992  43.3189978  60.4970014 107.6016318  42.5940158  60.2108145
 105.9179992  51.1069978  61.0160014 105.6229992  51.9339978  61.3980014
 105.2149992  50.4879978  61.2130014 105.7826379  51.1364171  61.0948654
  97.0469992  47.3239978  59.7520014  97.6629992  47.9509978  60.1320014
  96.1849992  47.6399978  60.0240014  97.0147678  47.4524412  59.8407209
 108.9809992  51.3019978  59.8310014 109.3349992  50.9219978  60.6350014
 108.0329992  51.2079978  59.9180014 108.9012298  51.2372452  59.9528687
 113.4849992  55.7809978  60.0320014 114.2289992  56.3669978  59.8920014
 112.7909992  56.3499978  60.3650014 113.4929809  55.9380818  60.0578590
 103.0719992  52.4139978  58.2780014 103.3109992  51.6649978  57.7310014
 102.8029992  52.0259978  59.1110014 103.0683233  52.2591853  58.3157809
 102.0089992  51.9839978  60.7340014 102.1559992  51.4639978  61.5240014
 102.0059992  52.8909978  61.0410014 102.0287102  52.0353953  60.8835925
 107.0779992  41.5509978  62.6210014 107.2979992  42.0219978  61.8170014
 107.6369992  41.9449978  63.2910014 107.1836731  41.6687287  62.6015033
 102.0849992  54.7249978  61.4650014 102.2459992  55.5249978  60.9650014
 101.8879992  55.0319978  62.3500014 102.0803906  54.8758678  61.5162333
 100.8199992  41.4229978  61.0810014 100.7359992  42.3109978  61.4280014
 101.7099992  41.1579978  61.3130014 100.9288163  41.5087179  61.1598596
  99.0779992  51.8499978  60.1410014  99.6699992  52.5499978  60.4180014
  99.5369992  51.4169978  59.4220014  99.2211652  51.8872675  60.0816533
  97.3939992  44.5149978  59.2570014  97.3489992  45.4539978  59.4360014
  96.5059992  44.2789978  58.9880014  97.2678166  44.6116687  59.2451524
 105.1099992  54.2769978  58.4170014 104.4659992  53.6459978  58.7380014
 105.8719992  53.7459978  58.1850014 105.1248058  54.1187902  58.4296038
 109.7149992  54.0939978  58.6500014 109.9979992  53.2989978  59.1030014
 110.4539992  54.3269978  58.0890014 109.8537096  54.0167049  58.6361104
 100.6689992  50.0029978  58.5080014 100.7339992  49.2089978  59.0380014
 101.3219992  49.8849978  57.8180014 100.7661605  49.8783430  58.4872997
 106.0219992  51.0499978  58.2440014 105.7529992  51.2309978  59.1440014
 105.8149992  50.1249978  58.1120014 105.9571191  50.9497119  58.3495524
 101.8189992  47.9759978  60.8140014 101.3589992  47.4919978  61.4990014
 102.0739992  47.3069978  60.1780014 101.7904856  47.8193669  60.8218397
 102.8899992  46.2189978  59.0760014 102.7089992  46.0639978  58.1490014
 103.8399992  46.3269978  59.1210014 102.9936566  46.2123669  58.9550929
 112.2799992  48.5729978  58.5220014 112.0059992  48.1489978  57.7090014
 112.3189992  49.5049978  58.3050014 112.2477716  48.6408827  58.3814286
 102.7869992  56.9089978  60.0770014 103.7199992  57.0669978  60.2210014
 102.5229992  57.5849978  59.4520014 102.8789911  57.0219373  60.0122722
  96.3549992  51.5459978  59.5600014  97.2689992  51.6249978  59.8330014
  96.3629992  50.8589978  58.8940014  96.4810655  51.4639205  59.5072917
 111.7499992  44.6359978  59.2620014 111.8459992  45.3029978  58.5820014
 111.6099992  43.8209978  58.7810014 111.7442040  44.6170671  59.1038378
 110.9969992  42.0439978  58.3800014 111.6079992  41.6729978  59.0170014
 110.1599992  41.6229978  58.5760014 110.9674947  41.9362755  58.4937252
 113.1099992  40.9299978  59.9220014 113.5219992  40.2089978  59.4470014
 113.7909992  41.5989978  59.9800014 113.2585536  40.9217766  59.8648024
 109.3199992  39.1619978  62.3790014 108.6169992  39.7769978  62.1690014
 108.8749992  38.3249978  62.5100014 109.1636550  39.1329668  62.3679837
  98.5279992  40.8939978  59.4700014  99.0189992  40.2639978  58.9430014
  99.1509992  41.1899978  60.1330014  98.6795304  40.8477376  59.4874940
 105.4319992  56.1349978  60.3230014 106.2979992  56.5019978  60.1450014
 105.1859992  55.6959978  59.5090014 105.5172097  56.1258525  60.1886019
 124.5399992  46.0369978  59.6730014 125.2409992  46.0599978  60.3250014
 124.8419992  45.4089978  59.0170014 124.6768202  45.9552212  59.6735609
 130.4619992  38.7019978  61.0850014 129.5619992  38.8409978  61.3800014
 130.7139992  39.5329978  60.6830014 130.3728683  38.8334055  61.0710232
 131.6509992  53.0679978  59.4610014 131.7239992  54.0069978  59.6310014
 132.5559992  52.7629978  59.4050014 131.7834170  53.1553282  59.4767063
 127.0629992  55.7989978  60.1240014 127.4379992  55.0549978  59.6530014
 127.0679992  55.5289978  61.0420014 127.1150098  55.6606392  60.1836629
 128.2399992  47.9839978  58.9010014 128.2819992  47.7619978  57.9710014
 129.0889992  48.3829978  59.0910014 128.3605253  48.0075498  58.7993822
 123.8129992  41.8599978  59.5720014 123.5589992  41.8789978  60.4940014
 123.5559992  40.9889978  59.2700014 123.7434508  41.7448280  59.6574803
 120.6949992  42.3059978  58.6730014 120.2639992  41.8609978  59.4020014
 119.9769992  42.6769978  58.1600014 120.5389176  42.2952051  58.7034930
 119.3129992  45.0829978  60.0550014 118.7709992  44.7039978  59.3640014
 120.1469992  45.2779978  59.6270014 119.3514390  45.0574079  59.9024392
 122.6489992  49.6489978  61.9910014 121.9039992  49.1409978  61.6690014
 122.5139992  49.6979978  62.9370014 122.5288963  49.5861731  62.0748826
 126.5459992  42.4629978  60.1900014 125.6079992  42.5739978  60.0390014
 126.8439992  43.3189978  60.4970014 126.4576318  42.5940158  60.2108145
 127.8369992  51.3019978  59.8310014 128.1909992  50.9219978  60.6350014
 126.8889992  51.2079978  59.9180014 127.7572298  51.2372452  59.9528687
 132.3409992  55.7809978  60.0320014 133.0849992  56.3669978  59.8920014
 131.6469992  56.3499978  60.3650014 132.3489809  55.9380818  60.0578590
 121.9279992  52.4139978  58.2780014 122.1669992  51.6649978  57.7310014
 121.6589992  52.0259978  59.1110014 121.9243233  52.2591853  58.3157809
 120.8649992  51.9839978  60.7340014 121.0119992  51.4639978  61.5240014
 120.8619992  52.8909978  61.0410014 120.8847102  52.0353953  60.8835925
 125.9339992  41.5509978  62.6210014 126.1539992  42.0219978  61.8170014
 126.4929992  41.9449978  63.2910014 126.0396731  41.6687287  62.6015033
 120.9409992  54.7249978  61.4650014 121.1019992  55.5249978  60.9650014
 120.7439992  55.0319978  62.3500014 120.9363906  54.8758678  61.5162333
 117.9339992  51.8499978  60.1410014 118.5259992  52.5499978  60.4180014
 118.3929992  51.4169978  59.4220014 118.0771652  51.8872675  60.0816533
 123.9659992  54.2769978  58.4170014 123.3219992  53.6459978  58.7380014
 124.7279992  53.7459978  58.1850014 123.9808058  54.1187902  58.4296038
 128.5709992  54.0939978  58.6500014 128.8539992  53.2989978  59.1030014
 129.3099992  54.3269978  58.0890014 128.7097096  54.0167049  58.6361104
 119.5249992  50.0029978  58.5080014 119.5899992  49.2089978  59.0380014
 120.1779992  49.8849978  57.8180014 119.6221605  49.8783430  58.4872997
 124.8779992  51.0499978  58.2440014 124.6089992  51.2309978  59.1440014
 124.6709992  50.1249978  58.1120014 124.8131191  50.9497119  58.3495524
 120.6749992  47.9759978  60.8140014 120.2149992  47.4919978  61.4990014
 120.9299992  47.3069978  60.1780014 120.6464856  47.8193669  60.8218397
 121.7459992  46.2189978  59.0760014 121.5649992  46.0639978  58.1490014
 122.6959992  46.3269978  59.1210014 121.8496566  46.2123669  58.9550929
 131.1359992  48.5729978  58.5220014 130.8619992  48.1489978  57.7090014
 131.1749992  49.5049978  58.3050014 131.1037716  48.6408827  58.3814286
 121.6429992  56.9089978  60.0770014 122.5759992  57.0669978  60.2210014
 121.3789992  57.5849978  59.4520014 121.7349911  57.0219373  60.0122722
 115.2109992  51.5459978  59.5600014 116.1249992  51.6249978  59.8330014
 115.2189992  50.8589978  58.8940014 115.3370655  51.4639205  59.5072917
 130.6059992  44.6359978  59.2620014 130.7019992  45.3029978  58.5820014
 130.4659992  43.8209978  58.7810014 130.6002040  44.6170671  59.1038378
 129.8529992  42.0439978  58.3800014 130.4639992  41.6729978  59.0170014
 129.0159992  41.6229978  58.5760014 129.8234947  41.9362756  58.4937252
 131.9659992  40.9299978  59.9220014 132.3779992  40.2089978  59.4470014
 132.6469992  41.5989978  59.9800014 132.1145536  40.9217766  59.8648024
 115.5229992  38.9779978  61.0280014 115.9619992  39.5889978  60.4360014
 114.8889992  39.5159978  61.5020014 115.4973859  39.1344064  61.0110305
 115.4239992  54.9259978  61.9250014 114.7389992  54.8879978  61.2580014
 115.4279992  55.8389978  62.2130014 115.3307621  55.0441924  61.8726126
 124.2879992  56.1349978  60.3230014 125.1539992  56.5019978  60.1450014
 124.0419992  55.6959978  59.5090014 124.3732097  56.1258525  60.1886019
 117.2419992  55.8459978  58.9500014 116.9739992  56.1319978  59.8240014
 118.0129992  55.2999978  59.1030014 117.3095926  55.8112779  59.0901205
 143.3419992  47.5799978  62.6350014 142.6309992  48.1149978  62.2830014
 144.0329992  47.6349978  61.9750014 143.3380751  47.6606777  62.4975858
 143.3959992  46.0369978  59.6730014 144.0969992  46.0599978  60.3250014
 143.6979992  45.4089978  59.0170014 143.5328202  45.9552212  59.6735609
 142.6689992  41.8599978  59.5720014 142.4149992  41.8789978  60.4940014
 142.4119992  40.9889978  59.2700014 142.5994508  41.7448280  59.6574803
 139.5509992  42.3059978  58.6730014 139.1199992  41.8609978  59.4020014
 138.8329992  42.6769978  58.1600014 139.3949176  42.2952051  58.7034930
 141.5049992  49.6489978  61.9910014 140.7599992  49.1409978  61.6690014
 141.3699992  49.6979978  62.9370014 141.3848963  49.5861731  62.0748826
 145.4019992  42.4629978  60.1900014 144.4639992  42.5739978  60.0390014
 145.6999992  43.3189978  60.4970014 145.3136318  42.5940158  60.2108145
 143.6299992  51.1069978  61.0160014 143.3349992  51.9339978  61.3980014
 142.9269992  50.4879978  61.2130014 143.4946379  51.1364171  61.0948654
 134.7589992  47.3239978  59.7520014 135.3749992  47.9509978  60.1320014
 133.8969992  47.6399978  60.0240014 134.7267678  47.4524412  59.8407209
 140.7839992  52.4139978  58.2780014 141.0229992  51.6649978  57.7310014
 140.5149992  52.0259978  59.1110014 140.7803233  52.2591853  58.3157809
 139.7209992  51.9839978  60.7340014 139.8679992  51.4639978  61.5240014
 139.7179992  52.8909978  61.0410014 139.7407102  52.0353953  60.8835925
 144.7899992  41.5509978  62.6210014 145.0099992  42.0219978  61.8170014
 145.3489992  41.9449978  63.2910014 144.8956731  41.6687287  62.6015033
 142.4589992  53.6809978  61.4840014 141.6419992  54.1779978  61.5360014
 142.9879992  54.1569978  60.8430014 142.4188125  53.8131989  61.4045306
 138.5319992  41.4229978  61.0810014 138.4479992  42.3109978  61.4280014
 139.4219992  41.1579978  61.3130014 138.6408163  41.5087179  61.1598596
 136.7899992  51.8499978  60.1410014 137.3819992  52.5499978  60.4180014
 137.2489992  51.4169978  59.4220014 136.9331652  51.8872675  60.0816533
 135.1059992  44.5149978  59.2570014 135.0609992  45.4539978  59.4360014
 134.2179992  44.2789978  58.9880014 134.9798166  44.6116687  59.2451524
 142.8219992  54.2769978  58.4170014 142.1779992  53.6459978  58.7380014
 143.5839992  53.7459978  58.1850014 142.8368058  54.1187902  58.4296038
 138.3809992  50.0029978  58.5080014 138.4459992  49.2089978  59.0380014
 139.0339992  49.8849978  57.8180014 138.4781605  49.8783430  58.4872997
 143.7339992  51.0499978  58.2440014 143.4649992  51.2309978  59.1440014
 143.5269992  50.1249978  58.1120014 143.6691191  50.9497119  58.3495524
 134.0669992  51.5459978  59.5600014 134.9809992  51.6249978  59.8330014
 134.0749992  50.8589978  58.8940014 134.1930655  51.4639205  59.5072917
 134.3789992  38.9779978  61.0280014 134.8179992  39.5889978  60.4360014
 133.7449992  39.5159978  61.5020014 134.3533859  39.1344064  61.0110305
 134.2799992  54.9259978  61.9250014 133.5949992  54.8879978  61.2580014
 134.2839992  55.8389978  62.2130014 134.1867621  55.0441924  61.8726126
 136.2399992  40.8939978  59.4700014 136.7309992  40.2639978  58.9430014
 136.8629992  41.1899978  60.1330014 136.3915304  40.8477376  59.4874940
 143.1439992  56.1349978  60.3230014 144.0099992  56.5019978  60.1450014
 142.8979992  55.6959978  59.5090014 143.2292097  56.1258525  60.1886019
 136.0979992  55.8459978  58.9500014 135.8299992  56.1319978  59.8240014
 136.8689992  55.2999978  59.1030014 136.1655926  55.8112779  59.0901205
   2.1549992  69.6039978  62.5380014   1.8829992  69.8329978  61.6500014
   2.1999992  70.4409978  62.9990014   2.1238097  69.7486163  62.4786683
  11.4039992  64.8929978  59.6730014  12.1049992  64.9159978  60.3250014
  11.7059992  64.2649978  59.0170014  11.5408202  64.8112212  59.6735609
  17.3259992  57.5579978  61.0850014  16.4259992  57.6969978  61.3800014
  17.5779992  58.3889978  60.6830014  17.2368683  57.6894055  61.0710232
  18.5149992  71.9239978  59.4610014  18.5879992  72.8629978  59.6310014
  19.4199992  71.6189978  59.4050014  18.6474170  72.0113282  59.4767063
  13.9269992  74.6549978  60.1240014  14.3019992  73.9109978  59.6530014
  13.9319992  74.3849978  61.0420014  13.9790098  74.5166392  60.1836629
  15.1039992  66.8399978  58.9010014  15.1459992  66.6179978  57.9710014
  15.9529992  67.2389978  59.0910014  15.2245253  66.8635498  58.7993822
  10.6769992  60.7159978  59.5720014  10.4229992  60.7349978  60.4940014
  10.4199992  59.8449978  59.2700014  10.6074508  60.6008280  59.6574803
   7.5589992  61.1619978  58.6730014   7.1279992  60.7169978  59.4020014
   6.8409992  61.5329978  58.1600014   7.4029176  61.1512051  58.7034930
   2.0759992  61.6499978  61.1490014   2.5499992  62.2409978  60.5640014
   1.3579992  62.1799978  61.4960014   2.0438640  61.8025511  61.1157969
   6.1769992  63.9389978  60.0550014   5.6349992  63.5599978  59.3640014
   7.0109992  64.1339978  59.6270014   6.2154390  63.9134079  59.9024392
  13.4099992  61.3189978  60.1900014  12.4719992  61.4299978  60.0390014
  13.7079992  62.1749978  60.4970014  13.3216318  61.4500158  60.2108145
  19.0139992  63.3949978  61.5460014  18.4589992  62.9989978  60.8730014
  19.1139992  64.3059978  61.2680014  18.9516816  63.4639505  61.4165033
   2.7669992  66.1799978  59.7520014   3.3829992  66.8069978  60.1320014
   1.9049992  66.4959978  60.0240014   2.7347678  66.3084412  59.8407209
  14.7009992  70.1579978  59.8310014  15.0549992  69.7779978  60.6350014
  13.7529992  70.0639978  59.9180014  14.6212298  70.0932452  59.9528687
  19.2049992  74.6369978  60.0320014  19.9489992  75.2229978  59.8920014
  18.5109992  75.2059978  60.3650014  19.2129809  74.7940818  60.0578590
  15.5669992  68.8299978  62.0580014  15.2899992  68.1019978  62.6140014
  16.4949992  68.9489978  62.2630014  15.6544499  68.7464213  62.1618044
   8.7919992  71.2699978  58.2780014   9.0309992  70.5209978  57.7310014
   8.5229992  70.8819978  59.1110014   8.7883233  71.1151853  58.3157809
   7.7289992  70.8399978  60.7340014   7.8759992  70.3199978  61.5240014
   7.7259992  71.7469978  61.0410014   7.7487102  70.8913953  60.8835925
  12.7979992  60.4069978  62.6210014  13.0179992  60.8779978  61.8170014
  13.3569992  60.8009978  63.2910014  12.9036732  60.5247287  62.6015033
   4.7979992  70.7059978  60.1410014   5.3899992  71.4059978  60.4180014
   5.2569992  70.2729978  59.4220014   4.9411652  70.7432675  60.0816533
   3.1139992  63.3709978  59.2570014   3.0689992  64.3099978  59.4360014
   2.2259992  63.1349978  58.9880014   2.9878166  63.4676687  59.2451524
  10.8299992  73.1329978  58.4170014  10.1859992  72.5019978  58.7380014
  11.5919992  72.6019978  58.1850014  10.8448058  72.9747902  58.4296038
  15.4349992  72.9499978  58.6500014  15.7179992  72.1549978  59.1030014
  16.1739992  73.1829978  58.0890014  15.5737096  72.8727049  58.6361104
   6.3889992  68.8589978  58.5080014   6.4539992  68.0649978  59.0380014
   7.0419992  68.7409978  57.8180014   6.4861605  68.7343430  58.4872997
  11.7419992  69.9059978  58.2440014  11.4729992  70.0869978  59.1440014
  11.5349992  68.9809978  58.1120014  11.6771191  69.8057119  58.3495524
   8.6099992  65.0749978  59.0760014   8.4289992  64.9199978  58.1490014
   9.5599992  65.1829978  59.1210014   8.7136566  65.0683669  58.9550929
  17.9999992  67.4289978  58.5220014  17.7259992  67.0049978  57.7090014
  18.0389992  68.3609978  58.3050014  17.9677716  67.4968827  58.3814286
   2.0749992  70.4019978  59.5600014   2.9889992  70.4809978  59.8330014
   2.0829992  69.7149978  58.8940014   2.2010655  70.3199205  59.5072917
  18.4579992  68.2979978  62.4970014  19.3079992  68.7189978  62.6240014
  18.4629992  67.5579978  63.1040014  18.5751143  68.2556094  62.5964750
  19.1209992  66.2529978  60.7110014  18.5989992  66.6089978  59.9930014
  19.0879992  66.9279978  61.3900014  19.0450129  66.3929598  60.7043355
  17.4699992  63.4919978  59.2620014  17.5659992  64.1589978  58.5820014
  17.3299992  62.6769978  58.7810014  17.4642040  63.4730671  59.1038378
  16.7169992  60.8999978  58.3800014  17.3279992  60.5289978  59.0170014
  15.8799992  60.4789978  58.5760014  16.6874947  60.7922756  58.4937252
  18.8299992  59.7859978  59.9220014  19.2419992  59.0649978  59.4470014
  19.5109992  60.4549978  59.9800014  18.9785536  59.7777766  59.8648024
   2.3869992  57.8339978  61.0280014   2.8259992  58.4449978  60.4360014
   1.7529992  58.3719978  61.5020014   2.3613859  57.9904064  61.0110305
   2.2879992  73.7819978  61.9250014   1.6029992  73.7439978  61.2580014
   2.2919992  74.6949978  62.2130014   2.1947621  73.9001924  61.8726126
   4.2479992  59.7499978  59.4700014   4.7389992  59.1199978  58.9430014
   4.8709992  60.0459978  60.1330014   4.3995304  59.7037376  59.4874940
  11.1519992  74.9909978  60.3230014  12.0179992  75.3579978  60.1450014
  10.9059992  74.5519978  59.5090014  11.2372097  74.9818525  60.1886019
   4.1059992  74.7019978  58.9500014   3.8379992  74.9879978  59.8240014
   4.8769992  74.1559978  59.1030014   4.1735926  74.6672779  59.0901205
  30.2599992  64.8929978  59.6730014  30.9609992  64.9159978  60.3250014
  30.5619992  64.2649978  59.0170014  30.3968202  64.8112212  59.6735609
  32.4829992  65.8079978  61.2720014  33.0619992  65.9579978  62.0180014
  32.8969992  66.2779978  60.5480014  32.6183358  65.8920954  61.2763953
  37.3709992  71.9239978  59.4610014  37.4439992  72.8629978  59.6310014
  38.2759992  71.6189978  59.4050014  37.5034170  72.0113282  59.4767063
  32.7829992  74.6549978  60.1240014  33.1579992  73.9109978  59.6530014
  32.7879992  74.3849978  61.0420014  32.8350098  74.5166392  60.1836629
  33.9599992  66.8399978  58.9010014  34.0019992  66.6179978  57.9710014
  34.8089992  67.2389978  59.0910014  34.0805253  66.8635498  58.7993822
  29.5329992  60.7159978  59.5720014  29.2789992  60.7349978  60.4940014
  29.2759992  59.8449978  59.2700014  29.4634508  60.6008280  59.6574803
  26.4149992  61.1619978  58.6730014  25.9839992  60.7169978  59.4020014
  25.6969992  61.5329978  58.1600014  26.2589176  61.1512051  58.7034930
  25.0329992  63.9389978  60.0550014  24.4909992  63.5599978  59.3640014
  25.8669992  64.1339978  59.6270014  25.0714390  63.9134079  59.9024392
  28.3689992  68.5049978  61.9910014  27.6239992  67.9969978  61.6690014
  28.2339992  68.5539978  62.9370014  28.2488963  68.4421731  62.0748826
  32.2659992  61.3189978  60.1900014  31.3279992  61.4299978  60.0390014
  32.5639992  62.1749978  60.4970014  32.1776318  61.4500158  60.2108145
  30.4939992  69.9629978  61.0160014  30.1989992  70.7899978  61.3980014
  29.7909992  69.3439978  61.2130014  30.3586379  69.9924171  61.0948654
  36.1649992  72.1809978  62.0110014  35.7919992  71.3559978  62.3200014
  36.4419992  71.9979978  61.1130014  36.1513463  72.0432569  61.9319525
  21.6229992  66.1799978  59.7520014  22.2389992  66.8069978  60.1320014
  20.7609992  66.4959978  60.0240014  21.5907678  66.3084412  59.8407209
  33.5569992  70.1579978  59.8310014  33.9109992  69.7779978  60.6350014
  32.6089992  70.0639978  59.9180014  33.4772298  70.0932452  59.9528687
  38.0609992  74.6369978  60.0320014  38.8049992  75.2229978  59.8920014
  37.3669992  75.2059978  60.3650014  38.0689809  74.7940818  60.0578590
  27.6479992  71.2699978  58.2780014  27.8869992  70.5209978  57.7310014
  27.3789992  70.8819978  59.1110014  27.6443233  71.1151853  58.3157809
  31.6539992  60.4069978  62.6210014  31.8739992  60.8779978  61.8170014
  32.2129992  60.8009978  63.2910014  31.7596732  60.5247287  62.6015033
  25.3959992  60.2789978  61.0810014  25.3119992  61.1669978  61.4280014
  26.2859992  60.0139978  61.3130014  25.5048163  60.3647179  61.1598596
  21.9699992  63.3709978  59.2570014  21.9249992  64.3099978  59.4360014
  21.0819992  63.1349978  58.9880014  21.8438166  63.4676687  59.2451524
  29.6859992  73.1329978  58.4170014  29.0419992  72.5019978  58.7380014
  30.4479992  72.6019978  58.1850014  29.7008058  72.9747902  58.4296038
  34.2909992  72.9499978  58.6500014  34.5739992  72.1549978  59.1030014
  35.0299992  73.1829978  58.0890014  34.4297096  72.8727049  58.6361104
  30.5979992  69.9059978  58.2440014  30.3289992  70.0869978  59.1440014
  30.3909992  68.9809978  58.1120014  30.5331191  69.8057119  58.3495524
  26.3949992  66.8319978  60.8140014  25.9349992  66.3479978  61.4990014
  26.6499992  66.1629978  60.1780014  26.3664856  66.6753669  60.8218397
  27.4659992  65.0749978  59.0760014  27.2849992  64.9199978  58.1490014
  28.4159992  65.1829978  59.1210014  27.5696566  65.0683669  58.9550929
  36.8559992  67.4289978  58.5220014  36.5819992  67.0049978  57.7090014
  36.8949992  68.3609978  58.3050014  36.8237716  67.4968827  58.3814286
  20.9309992  70.4019978  59.5600014  21.8449992  70.4809978  59.8330014
  20.9389992  69.7149978  58.8940014  21.0570655  70.3199205  59.5072917
  37.9769992  66.2529978  60.7110014  37.4549992  66.6089978  59.9930014
  37.9439992  66.9279978  61.3900014  37.9010129  66.3929598  60.7043355
  36.3259992  63.4919978  59.2620014  36.4219992  64.1589978  58.5820014
  36.1859992  62.6769978  58.7810014  36.3202040  63.4730671  59.1038378
  35.5729992  60.8999978  58.3800014  36.1839992  60.5289978  59.0170014
  34.7359992  60.4789978  58.5760014  35.5434947  60.7922756  58.4937252
  21.1439992  73.7819978  61.9250014  20.4589992  73.7439978  61.2580014
  21.1479992  74.6949978  62.2130014  21.0507621  73.9001924  61.8726126
  22.9619992  74.7019978  58.9500014  22.6939992  74.9879978  59.8240014
  23.7329992  74.1559978  59.1030014  23.0295926  74.6672779  59.0901205
  49.1159992  64.8929978  59.6730014  49.8169992  64.9159978  60.3250014
  49.4179992  64.2649978  59.0170014  49.2528202  64.8112212  59.6735609
  51.6389992  74.6549978  60.1240014  52.0139992  73.9109978  59.6530014
  51.6439992  74.3849978  61.0420014  51.6910098  74.5166392  60.1836629
  51.3079992  74.5809978  62.8730014  50.3729992  74.6809978  63.0520014
  51.5879992  73.8709978  63.4520014  51.2179471  74.4987933  62.9756695
  52.8159992  66.8399978  58.9010014  52.8579992  66.6179978  57.9710014
  53.6649992  67.2389978  59.0910014  52.9365253  66.8635498  58.7993822
  48.3889992  60.7159978  59.5720014  48.1349992  60.7349978  60.4940014
  48.1319992  59.8449978  59.2700014  48.3194508  60.6008280  59.6574803
  45.2709992  61.1619978  58.6730014  44.8399992  60.7169978  59.4020014
  44.5529992  61.5329978  58.1600014  45.1149176  61.1512051  58.7034930
  43.8889992  63.9389978  60.0550014  43.3469992  63.5599978  59.3640014
  44.7229992  64.1339978  59.6270014  43.9274390  63.9134079  59.9024392
  51.1219992  61.3189978  60.1900014  50.1839992  61.4299978  60.0390014
  51.4199992  62.1749978  60.4970014  51.0336318  61.4500158  60.2108145
  51.8409992  63.1859978  61.8510014  52.7329992  63.0479978  62.1700014
  51.8969992  63.9769978  61.3140014  51.9707325  63.2739918  61.8221217
  40.4789992  66.1799978  59.7520014  41.0949992  66.8069978  60.1320014
  39.6169992  66.4959978  60.0240014  40.4467678  66.3084412  59.8407209
  52.4129992  70.1579978  59.8310014  52.7669992  69.7779978  60.6350014
  51.4649992  70.0639978  59.9180014  52.3332298  70.0932452  59.9528687
  46.5039992  71.2699978  58.2780014  46.7429992  70.5209978  57.7310014
  46.2349992  70.8819978  59.1110014  46.5003233  71.1151853  58.3157809
  42.5099992  70.7059978  60.1410014  43.1019992  71.4059978  60.4180014
  42.9689992  70.2729978  59.4220014  42.6531652  70.7432675  60.0816533
  40.8259992  63.3709978  59.2570014  40.7809992  64.3099978  59.4360014
  39.9379992  63.1349978  58.9880014  40.6998166  63.4676687  59.2451524
  48.5419992  73.1329978  58.4170014  47.8979992  72.5019978  58.7380014
  49.3039992  72.6019978  58.1850014  48.5568058  72.9747902  58.4296038
  53.1469992  72.9499978  58.6500014  53.4299992  72.1549978  59.1030014
  53.8859992  73.1829978  58.0890014  53.2857096  72.8727049  58.6361104
  44.1009992  68.8589978  58.5080014  44.1659992  68.0649978  59.0380014
  44.7539992  68.7409978  57.8180014  44.1981605  68.7343430  58.4872997
  49.4539992  69.9059978  58.2440014  49.1849992  70.0869978  59.1440014
  49.2469992  68.9809978  58.1120014  49.3891191  69.8057119  58.3495524
  45.2509992  66.8319978  60.8140014  44.7909992  66.3479978  61.4990014
  45.5059992  66.1629978  60.1780014  45.2224856  66.6753669  60.8218397
  46.3219992  65.0749978  59.0760014  46.1409992  64.9199978  58.1490014
  47.2719992  65.1829978  59.1210014  46.4256566  65.0683669  58.9550929
  55.7119992  67.4289978  58.5220014  55.4379992  67.0049978  57.7090014
  55.7509992  68.3609978  58.3050014  55.6797716  67.4968827  58.3814286
  39.7869992  70.4019978  59.5600014  40.7009992  70.4809978  59.8330014
  39.7949992  69.7149978  58.8940014  39.9130655  70.3199205  59.5072917
  55.1819992  63.4919978  59.2620014  55.2779992  64.1589978  58.5820014
  55.0419992  62.6769978  58.7810014  55.1762040  63.4730671  59.1038378
  54.4289992  60.8999978  58.3800014  55.0399992  60.5289978  59.0170014
  53.5919992  60.4789978  58.5760014  54.3994947  60.7922756  58.4937252
  56.5419992  59.7859978  59.9220014  56.9539992  59.0649978  59.4470014
  57.2229992  60.4549978  59.9800014  56.6905536  59.7777766  59.8648024
  39.9999992  73.7819978  61.9250014  39.3149992  73.7439978  61.2580014
  40.0039992  74.6949978  62.2130014  39.9067621  73.9001924  61.8726126
  41.9599992  59.7499978  59.4700014  42.4509992  59.1199978  58.9430014
  42.5829992  60.0459978  60.1330014  42.1115304  59.7037376  59.4874940
  41.8179992  74.7019978  58.9500014  41.5499992  74.9879978  59.8240014
  42.5889992  74.1559978  59.1030014  41.8855926  74.6672779  59.0901205
  73.8939992  57.5579978  61.0850014  72.9939992  57.6969978  61.3800014
  74.1459992  58.3889978  60.6830014  73.8048683  57.6894055  61.0710232
  75.0829992  71.9239978  59.4610014  75.1559992  72.8629978  59.6310014
  75.9879992  71.6189978  59.4050014  75.2154170  72.0113282  59.4767063
  75.7729992  74.6369978  60.0320014  76.5169992  75.2229978  59.8920014
  75.0789992  75.2059978  60.3650014  75.7809809  74.7940818  60.0578590
  67.3979992  73.1329978  58.4170014  66.7539992  72.5019978  58.7380014
  68.1599992  72.6019978  58.1850014  67.4128058  72.9747902  58.4296038
  68.3099992  69.9059978  58.2440014  68.0409992  70.0869978  59.1440014
  68.1029992  68.9809978  58.1120014  68.2451191  69.8057119  58.3495524
  73.2849992  60.8999978  58.3800014  73.8959992  60.5289978  59.0170014
  72.4479992  60.4789978  58.5760014  73.2554947  60.7922755  58.4937252
  75.3979992  59.7859978  59.9220014  75.8099992  59.0649978  59.4470014
  76.0789992  60.4549978  59.9800014  75.5465536  59.7777766  59.8648024
  58.9549992  57.8339978  61.0280014  59.3939992  58.4449978  60.4360014
  58.3209992  58.3719978  61.5020014  58.9293859  57.9904064  61.0110305
  92.7499992  57.5579978  61.0850014  91.8499992  57.6969978  61.3800014
  93.0019992  58.3889978  60.6830014  92.6608683  57.6894055  61.0710232
  93.9389992  71.9239978  59.4610014  94.0119992  72.8629978  59.6310014
  94.8439992  71.6189978  59.4050014  94.0714170  72.0113282  59.4767063
  89.3509992  74.6549978  60.1240014  89.7259992  73.9109978  59.6530014
  89.3559992  74.3849978  61.0420014  89.4030098  74.5166392  60.1836629
  89.0199992  74.5809978  62.8730014  88.0849992  74.6809978  63.0520014
  89.2999992  73.8709978  63.4520014  88.9299471  74.4987933  62.9756695
  86.1009992  60.7159978  59.5720014  85.8469992  60.7349978  60.4940014
  85.8439992  59.8449978  59.2700014  86.0314508  60.6008280  59.6574803
  77.4999992  61.6499978  61.1490014  77.9739992  62.2409978  60.5640014
  76.7819992  62.1799978  61.4960014  77.4678640  61.8025511  61.1157969
  94.4379992  63.3949978  61.5460014  93.8829992  62.9989978  60.8730014
  94.5379992  64.3059978  61.2680014  94.3756816  63.4639505  61.4165033
  94.6289992  74.6369978  60.0320014  95.3729992  75.2229978  59.8920014
  93.9349992  75.2059978  60.3650014  94.6369809  74.7940818  60.0578590
  79.6059992  68.0919978  61.2450014  78.9199992  68.4449978  61.8120014
  80.1289992  68.8549978  60.9980014  79.5828402  68.2433901  61.2891801
  85.8909992  72.5369978  61.4840014  85.0739992  73.0339978  61.5360014
  86.4199992  73.0129978  60.8430014  85.8508125  72.6691989  61.4045306
  93.4239992  67.4289978  58.5220014  93.1499992  67.0049978  57.7090014
  93.4629992  68.3609978  58.3050014  93.3917716  67.4968827  58.3814286
  94.5449992  66.2529978  60.7110014  94.0229992  66.6089978  59.9930014
  94.5119992  66.9279978  61.3900014  94.4690129  66.3929598  60.7043355
  94.2539992  59.7859978  59.9220014  94.6659992  59.0649978  59.4470014
  94.9349992  60.4549978  59.9800014  94.4025536  59.7777766  59.8648024
  77.8109992  57.8339978  61.0280014  78.2499992  58.4449978  60.4360014
  77.1769992  58.3719978  61.5020014  77.7853859  57.9904064  61.0110305
  90.4639992  58.0179978  62.3790014  89.7609992  58.6329978  62.1690014
  90.0189992  57.1809978  62.5100014  90.3076550  57.9889668  62.3679837
  86.5759992  74.9909978  60.3230014  87.4419992  75.3579978  60.1450014
  86.3299992  74.5519978  59.5090014  86.6612097  74.9818525  60.1886019
 105.6839992  64.8929978  59.6730014 106.3849992  64.9159978  60.3250014
 105.9859992  64.2649978  59.0170014 105.8208202  64.8112212  59.6735609
 112.7949992  71.9239978  59.4610014 112.8679992  72.8629978  59.6310014
 113.6999992  71.6189978  59.4050014 112.9274170  72.0113282  59.4767063
 108.2069992  74.6549978  60.1240014 108.5819992  73.9109978  59.6530014
 108.2119992  74.3849978  61.0420014 108.2590098  74.5166392  60.1836629
 109.3839992  66.8399978  58.9010014 109.4259992  66.6179978  57.9710014
 110.2329992  67.2389978  59.0910014 109.5045253  66.8635498  58.7993822
 104.9569992  60.7159978  59.5720014 104.7029992  60.7349978  60.4940014
 104.6999992  59.8449978  59.2700014 104.8874508  60.6008280  59.6574803
 101.8389992  61.1619978  58.6730014 101.4079992  60.7169978  59.4020014
 101.1209992  61.5329978  58.1600014 101.6829176  61.1512051  58.7034930
  96.3559992  61.6499978  61.1490014  96.8299992  62.2409978  60.5640014
  95.6379992  62.1799978  61.4960014  96.3238640  61.8025511  61.1157969
 100.4569992  63.9389978  60.0550014  99.9149992  63.5599978  59.3640014
 101.2909992  64.1339978  59.6270014 100.4954390  63.9134079  59.9024392
 107.6899992  61.3189978  60.1900014 106.7519992  61.4299978  60.0390014
 107.9879992  62.1749978  60.4970014 107.6016318  61.4500158  60.2108145
 111.5889992  72.1809978  62.0110014 111.2159992  71.3559978  62.3200014
 111.8659992  71.9979978  61.1130014 111.5753463  72.0432569  61.9319525
  97.0469992  66.1799978  59.7520014  97.6629992  66.8069978  60.1320014
  96.1849992  66.4959978  60.0240014  97.0147678  66.3084412  59.8407209
 108.9809992  70.1579978  59.8310014 109.3349992  69.7779978  60.6350014
 108.0329992  70.0639978  59.9180014 108.9012298  70.0932452  59.9528687
 113.4849992  74.6369978  60.0320014 114.2289992  75.2229978  59.8920014
 112.7909992  75.2059978  60.3650014 113.4929809  74.7940818  60.0578590
 103.0719992  71.2699978  58.2780014 103.3109992  70.5209978  57.7310014
 102.8029992  70.8819978  59.1110014 103.0683233  71.1151853  58.3157809
  98.4619992  68.0919978  61.2450014  97.7759992  68.4449978  61.8120014
  98.9849992  68.8549978  60.9980014  98.4388402  68.2433901  61.2891801
  99.0779992  70.7059978  60.1410014  99.6699992  71.4059978  60.4180014
  99.5369992  70.2729978  59.4220014  99.2211652  70.7432675  60.0816533
  97.3939992  63.3709978  59.2570014  97.3489992  64.3099978  59.4360014
  96.5059992  63.1349978  58.9880014  97.2678166  63.4676687  59.2451524
 109.7149992  72.9499978  58.6500014 109.9979992  72.1549978  59.1030014
 110.4539992  73.1829978  58.0890014 109.8537096  72.8727049  58.6361104
 100.6689992  68.8589978  58.5080014 100.7339992  68.0649978  59.0380014
 101.3219992  68.7409978  57.8180014 100.7661605  68.7343430  58.4872997
 106.0219992  69.9059978  58.2440014 105.7529992  70.0869978  59.1440014
 105.8149992  68.9809978  58.1120014 105.9571191  69.8057119  58.3495524
 101.8189992  66.8319978  60.8140014 101.3589992  66.3479978  61.4990014
 102.0739992  66.1629978  60.1780014 101.7904856  66.6753669  60.8218397
 102.8899992  65.0749978  59.0760014 102.7089992  64.9199978  58.1490014
 103.8399992  65.1829978  59.1210014 102.9936566  65.0683669  58.9550929
 112.2799992  67.4289978  58.5220014 112.0059992  67.0049978  57.7090014
 112.3189992  68.3609978  58.3050014 112.2477716  67.4968827  58.3814286
 102.7869992  75.7649978  60.0770014 103.7199992  75.9229978  60.2210014
 102.5229992  76.4409978  59.4520014 102.8789911  75.8779373  60.0122722
  96.3549992  70.4019978  59.5600014  97.2689992  70.4809978  59.8330014
  96.3629992  69.7149978  58.8940014  96.4810655  70.3199205  59.5072917
 111.7499992  63.4919978  59.2620014 111.8459992  64.1589978  58.5820014
 111.6099992  62.6769978  58.7810014 111.7442040  63.4730671  59.1038378
 110.9969992  60.8999978  58.3800014 111.6079992  60.5289978  59.0170014
 110.1599992  60.4789978  58.5760014 110.9674947  60.7922756  58.4937252
 109.3199992  58.0179978  62.3790014 108.6169992  58.6329978  62.1690014
 108.8749992  57.1809978  62.5100014 109.1636550  57.9889668  62.3679837
  98.3859992  74.7019978  58.9500014  98.1179992  74.9879978  59.8240014
  99.1569992  74.1559978  59.1030014  98.4535926  74.6672779  59.0901205
 115.2909992  69.6039978  62.5380014 115.0189992  69.8329978  61.6500014
 115.3359992  70.4409978  62.9990014 115.2598097  69.7486163  62.4786683
 124.4859992  66.4359978  62.6350014 123.7749992  66.9709978  62.2830014
 125.1769992  66.4909978  61.9750014 124.4820751  66.5166777  62.4975858
 124.5399992  64.8929978  59.6730014 125.2409992  64.9159978  60.3250014
 124.8419992  64.2649978  59.0170014 124.6768202  64.8112212  59.6735609
 130.4619992  57.5579978  61.0850014 129.5619992  57.6969978  61.3800014
 130.7139992  58.3889978  60.6830014 130.3728683  57.6894055  61.0710232
 131.6509992  71.9239978  59.4610014 131.7239992  72.8629978  59.6310014
 132.5559992  71.6189978  59.4050014 131.7834170  72.0113282  59.4767063
 127.0629992  74.6549978  60.1240014 127.4379992  73.9109978  59.6530014
 127.0679992  74.3849978  61.0420014 127.1150098  74.5166392  60.1836629
 128.2399992  66.8399978  58.9010014 128.2819992  66.6179978  57.9710014
 129.0889992  67.2389978  59.0910014 128.3605253  66.8635498  58.7993822
 123.8129992  60.7159978  59.5720014 123.5589992  60.7349978  60.4940014
 123.5559992  59.8449978  59.2700014 123.7434508  60.6008280  59.6574803
 120.6949992  61.1619978  58.6730014 120.2639992  60.7169978  59.4020014
 119.9769992  61.5329978  58.1600014 120.5389176  61.1512051  58.7034930
 124.7739992  69.9629978  61.0160014 124.4789992  70.7899978  61.3980014
 124.0709992  69.3439978  61.2130014 124.6386379  69.9924171  61.0948654
 132.1499992  63.3949978  61.5460014 131.5949992  62.9989978  60.8730014
 132.2499992  64.3059978  61.2680014 132.0876816  63.4639505  61.4165033
 115.9029992  66.1799978  59.7520014 116.5189992  66.8069978  60.1320014
 115.0409992  66.4959978  60.0240014 115.8707678  66.3084412  59.8407209
 127.8369992  70.1579978  59.8310014 128.1909992  69.7779978  60.6350014
 126.8889992  70.0639978  59.9180014 127.7572298  70.0932452  59.9528687
 132.3409992  74.6369978  60.0320014 133.0849992  75.2229978  59.8920014
 131.6469992  75.2059978  60.3650014 132.3489809  74.7940818  60.0578590
 121.9279992  71.2699978  58.2780014 122.1669992  70.5209978  57.7310014
 121.6589992  70.8819978  59.1110014 121.9243233  71.1151853  58.3157809
 120.8649992  70.8399978  60.7340014 121.0119992  70.3199978  61.5240014
 120.8619992  71.7469978  61.0410014 120.8847102  70.8913953  60.8835925
 117.3179992  68.0919978  61.2450014 116.6319992  68.4449978  61.8120014
 117.8409992  68.8549978  60.9980014 117.2948402  68.2433901  61.2891801
 123.6029992  72.5369978  61.4840014 122.7859992  73.0339978  61.5360014
 124.1319992  73.0129978  60.8430014 123.5628125  72.6691989  61.4045306
 117.9339992  70.7059978  60.1410014 118.5259992  71.4059978  60.4180014
 118.3929992  70.2729978  59.4220014 118.0771652  70.7432675  60.0816533
 116.2499992  63.3709978  59.2570014 116.2049992  64.3099978  59.4360014
 115.3619992  63.1349978  58.9880014 116.1238166  63.4676687  59.2451524
 123.9659992  73.1329978  58.4170014 123.3219992  72.5019978  58.7380014
 124.7279992  72.6019978  58.1850014 123.9808058  72.9747902  58.4296038
 128.5709992  72.9499978  58.6500014 128.8539992  72.1549978  59.1030014
 129.3099992  73.1829978  58.0890014 128.7097096  72.8727049  58.6361104
 119.5249992  68.8589978  58.5080014 119.5899992  68.0649978  59.0380014
 120.1779992  68.7409978  57.8180014 119.6221605  68.7343430  58.4872997
 124.8779992  69.9059978  58.2440014 124.6089992  70.0869978  59.1440014
 124.6709992  68.9809978  58.1120014 124.8131191  69.8057119  58.3495524
 131.1359992  67.4289978  58.5220014 130.8619992  67.0049978  57.7090014
 131.1749992  68.3609978  58.3050014 131.1037716  67.4968827  58.3814286
 121.6429992  75.7649978  60.0770014 122.5759992  75.9229978  60.2210014
 121.3789992  76.4409978  59.4520014 121.7349911  75.8779373  60.0122722
 115.2109992  70.4019978  59.5600014 116.1249992  70.4809978  59.8330014
 115.2189992  69.7149978  58.8940014 115.3370655  70.3199205  59.5072917
 132.2569992  66.2529978  60.7110014 131.7349992  66.6089978  59.9930014
 132.2239992  66.9279978  61.3900014 132.1810129  66.3929598  60.7043355
 130.6059992  63.4919978  59.2620014 130.7019992  64.1589978  58.5820014
 130.4659992  62.6769978  58.7810014 130.6002040  63.4730671  59.1038378
 129.8529992  60.8999978  58.3800014 130.4639992  60.5289978  59.0170014
 129.0159992  60.4789978  58.5760014 129.8234947  60.7922756  58.4937252
 131.9659992  59.7859978  59.9220014 132.3779992  59.0649978  59.4470014
 132.6469992  60.4549978  59.9800014 132.1145536  59.7777766  59.8648024
 115.4239992  73.7819978  61.9250014 114.7389992  73.7439978  61.2580014
 115.4279992  74.6949978  62.2130014 115.3307621  73.9001924  61.8726126
 117.3839992  59.7499978  59.4700014 117.8749992  59.1199978  58.9430014
 118.0069992  60.0459978  60.1330014 117.5355304  59.7037376  59.4874940
 122.4099992  60.0429978  61.9270014 122.5879992  59.3959978  62.6100014
 122.3559992  60.8769978  62.3940014 122.4270678  60.0671604  62.0836301
 124.2879992  74.9909978  60.3230014 125.1539992  75.3579978  60.1450014
 124.0419992  74.5519978  59.5090014 124.3732097  74.9818525  60.1886019
 117.2419992  74.7019978  58.9500014 116.9739992  74.9879978  59.8240014
 118.0129992  74.1559978  59.1030014 117.3095926  74.6672779  59.0901205
 134.1469992  69.6039978  62.5380014 133.8749992  69.8329978  61.6500014
 134.1919992  70.4409978  62.9990014 134.1158097  69.7486163  62.4786683
 143.3959992  64.8929978  59.6730014 144.0969992  64.9159978  60.3250014
 143.6979992  64.2649978  59.0170014 143.5328202  64.8112212  59.6735609
 142.6689992  60.7159978  59.5720014 142.4149992  60.7349978  60.4940014
 142.4119992  59.8449978  59.2700014 142.5994508  60.6008280  59.6574803
 139.5509992  61.1619978  58.6730014 139.1199992  60.7169978  59.4020014
 138.8329992  61.5329978  58.1600014 139.3949176  61.1512051  58.7034930
 134.0679992  61.6499978  61.1490014 134.5419992  62.2409978  60.5640014
 133.3499992  62.1799978  61.4960014 134.0358640  61.8025511  61.1157969
 138.1689992  63.9389978  60.0550014 137.6269992  63.5599978  59.3640014
 139.0029992  64.1339978  59.6270014 138.2074390  63.9134079  59.9024392
 145.4019992  61.3189978  60.1900014 144.4639992  61.4299978  60.0390014
 145.6999992  62.1749978  60.4970014 145.3136318  61.4500158  60.2108145
 140.7839992  71.2699978  58.2780014 141.0229992  70.5209978  57.7310014
 140.5149992  70.8819978  59.1110014 140.7803233  71.1151853  58.3157809
 139.7209992  70.8399978  60.7340014 139.8679992  70.3199978  61.5240014
 139.7179992  71.7469978  61.0410014 139.7407102  70.8913953  60.8835925
 136.7899992  70.7059978  60.1410014 137.3819992  71.4059978  60.4180014
 137.2489992  70.2729978  59.4220014 136.9331652  70.7432675  60.0816533
 135.1059992  63.3709978  59.2570014 135.0609992  64.3099978  59.4360014
 134.2179992  63.1349978  58.9880014 134.9798166  63.4676687  59.2451524
 142.8219992  73.1329978  58.4170014 142.1779992  72.5019978  58.7380014
 143.5839992  72.6019978  58.1850014 142.8368058  72.9747902  58.4296038
 138.3809992  68.8589978  58.5080014 138.4459992  68.0649978  59.0380014
 139.0339992  68.7409978  57.8180014 138.4781605  68.7343430  58.4872997
 143.7339992  69.9059978  58.2440014 143.4649992  70.0869978  59.1440014
 143.5269992  68.9809978  58.1120014 143.6691191  69.8057119  58.3495524
 140.6019992  65.0749978  59.0760014 140.4209992  64.9199978  58.1490014
 141.5519992  65.1829978  59.1210014 140.7056566  65.0683669  58.9550929
 140.4989992  75.7649978  60.0770014 141.4319992  75.9229978  60.2210014
 140.2349992  76.4409978  59.4520014 140.5909911  75.8779373  60.0122722
 134.0669992  70.4019978  59.5600014 134.9809992  70.4809978  59.8330014
 134.0749992  69.7149978  58.8940014 134.1930655  70.3199205  59.5072917
 134.3789992  57.8339978  61.0280014 134.8179992  58.4449978  60.4360014
 133.7449992  58.3719978  61.5020014 134.3533859  57.9904064  61.0110305
 136.2399992  59.7499978  59.4700014 136.7309992  59.1199978  58.9430014
 136.8629992  60.0459978  60.1330014 136.3915304  59.7037376  59.4874940
 141.2659992  60.0429978  61.9270014 141.4439992  59.3959978  62.6100014
 141.2119992  60.8769978  62.3940014 141.2830678  60.0671604  62.0836301
 143.1439992  74.9909978  60.3230014 144.0099992  75.3579978  60.1450014
 142.8979992  74.5519978  59.5090014 143.2292097  74.9818525  60.1886019
   2.1549992  88.4599978  62.5380014   1.8829992  88.6889978  61.6500014
   2.1999992  89.2969978  62.9990014   2.1238097  88.6046163  62.4786683
  11.4039992  83.7489978  59.6730014  12.1049992  83.7719978  60.3250014
  11.7059992  83.1209978  59.0170014  11.5408202  83.6672212  59.6735609
  13.6269992  84.6639978  61.2720014  14.2059992  84.8139978  62.0180014
  14.0409992  85.1339978  60.5480014  13.7623358  84.7480954  61.2763953
  17.3259992  76.4139978  61.0850014  16.4259992  76.5529978  61.3800014
  17.5779992  77.2449978  60.6830014  17.2368683  76.5454055  61.0710232
  18.5149992  90.7799978  59.4610014  18.5879992  91.7189978  59.6310014
  19.4199992  90.4749978  59.4050014  18.6474170  90.8673282  59.4767063
  13.9269992  93.5109978  60.1240014  14.3019992  92.7669978  59.6530014
  13.9319992  93.2409978  61.0420014  13.9790098  93.3726392  60.1836629
  15.1039992  85.6959978  58.9010014  15.1459992  85.4739978  57.9710014
  15.9529992  86.0949978  59.0910014  15.2245253  85.7195498  58.7993822
  10.6769992  79.5719978  59.5720014  10.4229992  79.5909978  60.4940014
  10.4199992  78.7009978  59.2700014  10.6074508  79.4568280  59.6574803
   7.5589992  80.0179978  58.6730014   7.1279992  79.5729978  59.4020014
   6.8409992  80.3889978  58.1600014   7.4029176  80.0072052  58.7034930
   2.0759992  80.5059978  61.1490014   2.5499992  81.0969978  60.5640014
   1.3579992  81.0359978  61.4960014   2.0438640  80.6585511  61.1157969
   7.5029992  81.6009978  62.4890014   8.4349992  81.7299978  62.6670014
   7.2879992  82.2699978  61.8390014   7.6014472  81.7090806  62.4254891
   9.5129992  87.3609978  61.9910014   8.7679992  86.8529978  61.6690014
   9.3779992  87.4099978  62.9370014   9.3928963  87.2981731  62.0748826
  13.4099992  80.1749978  60.1900014  12.4719992  80.2859978  60.0390014
  13.7079992  81.0309978  60.4970014  13.3216318  80.3060158  60.2108145
  19.0139992  82.2509978  61.5460014  18.4589992  81.8549978  60.8730014
  19.1139992  83.1619978  61.2680014  18.9516816  82.3199505  61.4165033
  17.3089992  91.0369978  62.0110014  16.9359992  90.2119978  62.3200014
  17.5859992  90.8539978  61.1130014  17.2953463  90.8992569  61.9319525
   2.7669992  85.0359978  59.7520014   3.3829992  85.6629978  60.1320014
   1.9049992  85.3519978  60.0240014   2.7347678  85.1644412  59.8407209
  14.7009992  89.0139978  59.8310014  15.0549992  88.6339978  60.6350014
  13.7529992  88.9199978  59.9180014  14.6212298  88.9492452  59.9528687
  19.2049992  93.4929978  60.0320014  19.9489992  94.0789978  59.8920014
  18.5109992  94.0619978  60.3650014  19.2129809  93.6500818  60.0578590
   8.7919992  90.1259978  58.2780014   9.0309992  89.3769978  57.7310014
   8.5229992  89.7379978  59.1110014   8.7883233  89.9711853  58.3157809
   7.7289992  89.6959978  60.7340014   7.8759992  89.1759978  61.5240014
   7.7259992  90.6029978  61.0410014   7.7487102  89.7473953  60.8835925
   7.8049992  92.4369978  61.4650014   7.9659992  93.2369978  60.9650014
   7.6079992  92.7439978  62.3500014   7.8003906  92.5878678  61.5162333
   6.5399992  79.1349978  61.0810014   6.4559992  80.0229978  61.4280014
   7.4299992  78.8699978  61.3130014   6.6488163  79.2207179  61.1598596
   4.7979992  89.5619978  60.1410014   5.3899992  90.2619978  60.4180014
   5.2569992  89.1289978  59.4220014   4.9411652  89.5992675  60.0816533
   3.1139992  82.2269978  59.2570014   3.0689992  83.1659978  59.4360014
   2.2259992  81.9909978  58.9880014   2.9878166  82.3236687  59.2451524
  10.8299992  91.9889978  58.4170014  10.1859992  91.3579978  58.7380014
  11.5919992  91.4579978  58.1850014  10.8448058  91.8307902  58.4296038
  15.4349992  91.8059978  58.6500014  15.7179992  91.0109978  59.1030014
  16.1739992  92.0389978  58.0890014  15.5737096  91.7287049  58.6361104
   6.3889992  87.7149978  58.5080014   6.4539992  86.9209978  59.0380014
   7.0419992  87.5969978  57.8180014   6.4861605  87.5903430  58.4872997
  11.7419992  88.7619978  58.2440014  11.4729992  88.9429978  59.1440014
  11.5349992  87.8369978  58.1120014  11.6771191  88.6617119  58.3495524
   8.6099992  83.9309978  59.0760014   8.4289992  83.7759978  58.1490014
   9.5599992  84.0389978  59.1210014   8.7136566  83.9243669  58.9550929
  17.9999992  86.2849978  58.5220014  17.7259992  85.8609978  57.7090014
  18.0389992  87.2169978  58.3050014  17.9677716  86.3528827  58.3814286
   8.5069992  94.6209978  60.0770014   9.4399992  94.7789978  60.2210014
   8.2429992  95.2969978  59.4520014   8.5989911  94.7339373  60.0122722
   2.0749992  89.2579978  59.5600014   2.9889992  89.3369978  59.8330014
   2.0829992  88.5709978  58.8940014   2.2010655  89.1759205  59.5072917
  17.4699992  82.3479978  59.2620014  17.5659992  83.0149978  58.5820014
  17.3299992  81.5329978  58.7810014  17.4642040  82.3290671  59.1038378
  16.7169992  79.7559978  58.3800014  17.3279992  79.3849978  59.0170014
  15.8799992  79.3349978  58.5760014  16.6874947  79.6482756  58.4937252
   2.3869992  76.6899978  61.0280014   2.8259992  77.3009978  60.4360014
   1.7529992  77.2279978  61.5020014   2.3613859  76.8464064  61.0110305
   4.2479992  78.6059978  59.4700014   4.7389992  77.9759978  58.9430014
   4.8709992  78.9019978  60.1330014   4.3995304  78.5597376  59.4874940
  11.1519992  93.8469978  60.3230014  12.0179992  94.2139978  60.1450014
  10.9059992  93.4079978  59.5090014  11.2372097  93.8378525  60.1886019
   4.1059992  93.5579978  58.9500014   3.8379992  93.8439978  59.8240014
   4.8769992  93.0119978  59.1030014   4.1735926  93.5232779  59.0901205
  30.2599992  83.7489978  59.6730014  30.9609992  83.7719978  60.3250014
  30.5619992  83.1209978  59.0170014  30.3968202  83.6672212  59.6735609
  32.4829992  84.6639978  61.2720014  33.0619992  84.8139978  62.0180014
  32.8969992  85.1339978  60.5480014  32.6183358  84.7480954  61.2763953
  36.1819992  76.4139978  61.0850014  35.2819992  76.5529978  61.3800014
  36.4339992  77.2449978  60.6830014  36.0928683  76.5454055  61.0710232
  37.3709992  90.7799978  59.4610014  37.4439992  91.7189978  59.6310014
  38.2759992  90.4749978  59.4050014  37.5034170  90.8673282  59.4767063
  32.7829992  93.5109978  60.1240014  33.1579992  92.7669978  59.6530014
  32.7879992  93.2409978  61.0420014  32.8350098  93.3726392  60.1836629
  33.9599992  85.6959978  58.9010014  34.0019992  85.4739978  57.9710014
  34.8089992  86.0949978  59.0910014  34.0805253  85.7195498  58.7993822
  29.5329992  79.5719978  59.5720014  29.2789992  79.5909978  60.4940014
  29.2759992  78.7009978  59.2700014  29.4634508  79.4568280  59.6574803
  26.4149992  80.0179978  58.6730014  25.9839992  79.5729978  59.4020014
  25.6969992  80.3889978  58.1600014  26.2589176  80.0072051  58.7034930
  20.9319992  80.5059978  61.1490014  21.4059992  81.0969978  60.5640014
  20.2139992  81.0359978  61.4960014  20.8998640  80.6585511  61.1157969
  26.3589992  81.6009978  62.4890014  27.2909992  81.7299978  62.6670014
  26.1439992  82.2699978  61.8390014  26.4574472  81.7090806  62.4254891
  25.0329992  82.7949978  60.0550014  24.4909992  82.4159978  59.3640014
  25.8669992  82.9899978  59.6270014  25.0714390  82.7694079  59.9024392
  32.2659992  80.1749978  60.1900014  31.3279992  80.2859978  60.0390014
  32.5639992  81.0309978  60.4970014  32.1776318  80.3060158  60.2108145
  32.9849992  82.0419978  61.8510014  33.8769992  81.9039978  62.1700014
  33.0409992  82.8329978  61.3140014  33.1147325  82.1299918  61.8221217
  36.1649992  91.0369978  62.0110014  35.7919992  90.2119978  62.3200014
  36.4419992  90.8539978  61.1130014  36.1513463  90.8992569  61.9319525
  21.6229992  85.0359978  59.7520014  22.2389992  85.6629978  60.1320014
  20.7609992  85.3519978  60.0240014  21.5907678  85.1644412  59.8407209
  33.5569992  89.0139978  59.8310014  33.9109992  88.6339978  60.6350014
  32.6089992  88.9199978  59.9180014  33.4772298  88.9492452  59.9528687
  38.0609992  93.4929978  60.0320014  38.8049992  94.0789978  59.8920014
  37.3669992  94.0619978  60.3650014  38.0689809  93.6500818  60.0578590
  34.4229992  87.6859978  62.0580014  34.1459992  86.9579978  62.6140014
  35.3509992  87.8049978  62.2630014  34.5104499  87.6024213  62.1618044
  27.6479992  90.1259978  58.2780014  27.8869992  89.3769978  57.7310014
  27.3789992  89.7379978  59.1110014  27.6443233  89.9711853  58.3157809
  25.3959992  79.1349978  61.0810014  25.3119992  80.0229978  61.4280014
  26.2859992  78.8699978  61.3130014  25.5048163  79.2207179  61.1598596
  23.6539992  89.5619978  60.1410014  24.2459992  90.2619978  60.4180014
  24.1129992  89.1289978  59.4220014  23.7971652  89.5992675  60.0816533
  21.9699992  82.2269978  59.2570014  21.9249992  83.1659978  59.4360014
  21.0819992  81.9909978  58.9880014  21.8438166  82.3236687  59.2451524
  29.6859992  91.9889978  58.4170014  29.0419992  91.3579978  58.7380014
  30.4479992  91.4579978  58.1850014  29.7008058  91.8307902  58.4296038
  34.2909992  91.8059978  58.6500014  34.5739992  91.0109978  59.1030014
  35.0299992  92.0389978  58.0890014  34.4297096  91.7287049  58.6361104
  25.2449992  87.7149978  58.5080014  25.3099992  86.9209978  59.0380014
  25.8979992  87.5969978  57.8180014  25.3421605  87.5903430  58.4872997
  30.5979992  88.7619978  58.2440014  30.3289992  88.9429978  59.1440014
  30.3909992  87.8369978  58.1120014  30.5331191  88.6617119  58.3495524
  26.3949992  85.6879978  60.8140014  25.9349992  85.2039978  61.4990014
  26.6499992  85.0189978  60.1780014  26.3664856  85.5313669  60.8218397
  27.4659992  83.9309978  59.0760014  27.2849992  83.7759978  58.1490014
  28.4159992  84.0389978  59.1210014  27.5696566  83.9243669  58.9550929
  36.8559992  86.2849978  58.5220014  36.5819992  85.8609978  57.7090014
  36.8949992  87.2169978  58.3050014  36.8237716  86.3528827  58.3814286
  27.3629992  94.6209978  60.0770014  28.2959992  94.7789978  60.2210014
  27.0989992  95.2969978  59.4520014  27.4549911  94.7339373  60.0122722
  20.9309992  89.2579978  59.5600014  21.8449992  89.3369978  59.8330014
  20.9389992  88.5709978  58.8940014  21.0570655  89.1759205  59.5072917
  36.3259992  82.3479978  59.2620014  36.4219992  83.0149978  58.5820014
  36.1859992  81.5329978  58.7810014  36.3202040  82.3290671  59.1038378
  35.5729992  79.7559978  58.3800014  36.1839992  79.3849978  59.0170014
  34.7359992  79.3349978  58.5760014  35.5434947  79.6482756  58.4937252
  37.6859992  78.6419978  59.9220014  38.0979992  77.9209978  59.4470014
  38.3669992  79.3109978  59.9800014  37.8345536  78.6337766  59.8648024
  33.8959992  76.8739978  62.3790014  33.1929992  77.4889978  62.1690014
  33.4509992  76.0369978  62.5100014  33.7396550  76.8449668  62.3679837
  23.1039992  78.6059978  59.4700014  23.5949992  77.9759978  58.9430014
  23.7269992  78.9019978  60.1330014  23.2555304  78.5597376  59.4874940
  28.1299992  78.8989978  61.9270014  28.3079992  78.2519978  62.6100014
  28.0759992  79.7329978  62.3940014  28.1470678  78.9231604  62.0836301
  30.0079992  93.8469978  60.3230014  30.8739992  94.2139978  60.1450014
  29.7619992  93.4079978  59.5090014  30.0932097  93.8378525  60.1886019
  22.9619992  93.5579978  58.9500014  22.6939992  93.8439978  59.8240014
  23.7329992  93.0119978  59.1030014  23.0295926  93.5232779  59.0901205
  51.3389992  84.6639978  61.2720014  51.9179992  84.8139978  62.0180014
  51.7529992  85.1339978  60.5480014  51.4743358  84.7480954  61.2763953
  55.0379992  76.4139978  61.0850014  54.1379992  76.5529978  61.3800014
  55.2899992  77.2449978  60.6830014  54.9488683  76.5454055  61.0710232
  56.2269992  90.7799978  59.4610014  56.2999992  91.7189978  59.6310014
  57.1319992  90.4749978  59.4050014  56.3594170  90.8673282  59.4767063
  51.6389992  93.5109978  60.1240014  52.0139992  92.7669978  59.6530014
  51.6439992  93.2409978  61.0420014  51.6910098  93.3726392  60.1836629
  52.8159992  85.6959978  58.9010014  52.8579992  85.4739978  57.9710014
  53.6649992  86.0949978  59.0910014  52.9365253  85.7195498  58.7993822
  45.2709992  80.0179978  58.6730014  44.8399992  79.5729978  59.4020014
  44.5529992  80.3889978  58.1600014  45.1149176  80.0072051  58.7034930
  43.8889992  82.7949978  60.0550014  43.3469992  82.4159978  59.3640014
  44.7229992  82.9899978  59.6270014  43.9274390  82.7694079  59.9024392
  51.1219992  80.1749978  60.1900014  50.1839992  80.2859978  60.0390014
  51.4199992  81.0309978  60.4970014  51.0336318  80.3060158  60.2108145
  51.8409992  82.0419978  61.8510014  52.7329992  81.9039978  62.1700014
  51.8969992  82.8329978  61.3140014  51.9707325  82.1299918  61.8221217
  52.4129992  89.0139978  59.8310014  52.7669992  88.6339978  60.6350014
  51.4649992  88.9199978  59.9180014  52.3332298  88.9492452  59.9528687
  56.9169992  93.4929978  60.0320014  57.6609992  94.0789978  59.8920014
  56.2229992  94.0619978  60.3650014  56.9249809  93.6500818  60.0578590
  53.2789992  87.6859978  62.0580014  53.0019992  86.9579978  62.6140014
  54.2069992  87.8049978  62.2630014  53.3664499  87.6024213  62.1618044
  46.5039992  90.1259978  58.2780014  46.7429992  89.3769978  57.7310014
  46.2349992  89.7379978  59.1110014  46.5003233  89.9711853  58.3157809
  45.4409992  89.6959978  60.7340014  45.5879992  89.1759978  61.5240014
  45.4379992  90.6029978  61.0410014  45.4607102  89.7473953  60.8835925
  50.5099992  79.2629978  62.6210014  50.7299992  79.7339978  61.8170014
  51.0689992  79.6569978  63.2910014  50.6156732  79.3807287  62.6015033
  44.2519992  79.1349978  61.0810014  44.1679992  80.0229978  61.4280014
  45.1419992  78.8699978  61.3130014  44.3608163  79.2207179  61.1598596
  42.5099992  89.5619978  60.1410014  43.1019992  90.2619978  60.4180014
  42.9689992  89.1289978  59.4220014  42.6531652  89.5992675  60.0816533
  40.8259992  82.2269978  59.2570014  40.7809992  83.1659978  59.4360014
  39.9379992  81.9909978  58.9880014  40.6998166  82.3236687  59.2451524
  48.5419992  91.9889978  58.4170014  47.8979992  91.3579978  58.7380014
  49.3039992  91.4579978  58.1850014  48.5568058  91.8307902  58.4296038
  53.1469992  91.8059978  58.6500014  53.4299992  91.0109978  59.1030014
  53.8859992  92.0389978  58.0890014  53.2857096  91.7287049  58.6361104
  44.1009992  87.7149978  58.5080014  44.1659992  86.9209978  59.0380014
  44.7539992  87.5969978  57.8180014  44.1981605  87.5903430  58.4872997
  49.4539992  88.7619978  58.2440014  49.1849992  88.9429978  59.1440014
  49.2469992  87.8369978  58.1120014  49.3891191  88.6617119  58.3495524
  55.7119992  86.2849978  58.5220014  55.4379992  85.8609978  57.7090014
  55.7509992  87.2169978  58.3050014  55.6797716  86.3528827  58.3814286
  46.2189992  94.6209978  60.0770014  47.1519992  94.7789978  60.2210014
  45.9549992  95.2969978  59.4520014  46.3109911  94.7339373  60.0122722
  39.7869992  89.2579978  59.5600014  40.7009992  89.3369978  59.8330014
  39.7949992  88.5709978  58.8940014  39.9130655  89.1759205  59.5072917
  55.1819992  82.3479978  59.2620014  55.2779992  83.0149978  58.5820014
  55.0419992  81.5329978  58.7810014  55.1762040  82.3290671  59.1038378
  54.4289992  79.7559978  58.3800014  55.0399992  79.3849978  59.0170014
  53.5919992  79.3349978  58.5760014  54.3994947  79.6482756  58.4937252
  41.9599992  78.6059978  59.4700014  42.4509992  77.9759978  58.9430014
  42.5829992  78.9019978  60.1330014  42.1115304  78.5597376  59.4874940
  46.9859992  78.8989978  61.9270014  47.1639992  78.2519978  62.6100014
  46.9319992  79.7329978  62.3940014  47.0030678  78.9231604  62.0836301
  48.8639992  93.8469978  60.3230014  49.7299992  94.2139978  60.1450014
  48.6179992  93.4079978  59.5090014  48.9492097  93.8378525  60.1886019
  67.9719992  83.7489978  59.6730014  68.6729992  83.7719978  60.3250014
  68.2739992  83.1209978  59.0170014  68.1088202  83.6672212  59.6735609
  70.1949992  84.6639978  61.2720014  70.7739992  84.8139978  62.0180014
  70.6089992  85.1339978  60.5480014  70.3303358  84.7480954  61.2763953
  73.8939992  76.4139978  61.0850014  72.9939992  76.5529978  61.3800014
  74.1459992  77.2449978  60.6830014  73.8048683  76.5454055  61.0710232
  75.0829992  90.7799978  59.4610014  75.1559992  91.7189978  59.6310014
  75.9879992  90.4749978  59.4050014  75.2154170  90.8673282  59.4767063
  70.4949992  93.5109978  60.1240014  70.8699992  92.7669978  59.6530014
  70.4999992  93.2409978  61.0420014  70.5470098  93.3726392  60.1836629
  71.6719992  85.6959978  58.9010014  71.7139992  85.4739978  57.9710014
  72.5209992  86.0949978  59.0910014  71.7925253  85.7195498  58.7993822
  67.2449992  79.5719978  59.5720014  66.9909992  79.5909978  60.4940014
  66.9879992  78.7009978  59.2700014  67.1754508  79.4568280  59.6574803
  66.0809992  87.3609978  61.9910014  65.3359992  86.8529978  61.6690014
  65.9459992  87.4099978  62.9370014  65.9608963  87.2981731  62.0748826
  75.5819992  82.2509978  61.5460014  75.0269992  81.8549978  60.8730014
  75.6819992  83.1619978  61.2680014  75.5196816  82.3199505  61.4165033
  65.3599992  90.1259978  58.2780014  65.5989992  89.3769978  57.7310014
  65.0909992  89.7379978  59.1110014  65.3563233  89.9711853  58.3157809
  64.2969992  89.6959978  60.7340014  64.4439992  89.1759978  61.5240014
  64.2939992  90.6029978  61.0410014  64.3167102  89.7473953  60.8835925
  67.0349992  91.3929978  61.4840014  66.2179992  91.8899978  61.5360014
  67.5639992  91.8689978  60.8430014  66.9948125  91.5251989  61.4045306
  64.3729992  92.4369978  61.4650014  64.5339992  93.2369978  60.9650014
  64.1759992  92.7439978  62.3500014  64.3683906  92.5878678  61.5162333
  67.3979992  91.9889978  58.4170014  66.7539992  91.3579978  58.7380014
  68.1599992  91.4579978  58.1850014  67.4128058  91.8307902  58.4296038
  72.0029992  91.8059978  58.6500014  72.2859992  91.0109978  59.1030014
  72.7419992  92.0389978  58.0890014  72.1417096  91.7287049  58.6361104
  62.9569992  87.7149978  58.5080014  63.0219992  86.9209978  59.0380014
  63.6099992  87.5969978  57.8180014  63.0541605  87.5903430  58.4872997
  68.3099992  88.7619978  58.2440014  68.0409992  88.9429978  59.1440014
  68.1029992  87.8369978  58.1120014  68.2451191  88.6617119  58.3495524
  65.1779992  83.9309978  59.0760014  64.9969992  83.7759978  58.1490014
  66.1279992  84.0389978  59.1210014  65.2816566  83.9243669  58.9550929
  74.5679992  86.2849978  58.5220014  74.2939992  85.8609978  57.7090014
  74.6069992  87.2169978  58.3050014  74.5357716  86.3528827  58.3814286
  65.0749992  94.6209978  60.0770014  66.0079992  94.7789978  60.2210014
  64.8109992  95.2969978  59.4520014  65.1669911  94.7339373  60.0122722
  75.0259992  87.1539978  62.4970014  75.8759992  87.5749978  62.6240014
  75.0309992  86.4139978  63.1040014  75.1431143  87.1116094  62.5964750
  75.6889992  85.1089978  60.7110014  75.1669992  85.4649978  59.9930014
  75.6559992  85.7839978  61.3900014  75.6130129  85.2489598  60.7043355
  74.0379992  82.3479978  59.2620014  74.1339992  83.0149978  58.5820014
  73.8979992  81.5329978  58.7810014  74.0322040  82.3290671  59.1038378
  73.2849992  79.7559978  58.3800014  73.8959992  79.3849978  59.0170014
  72.4479992  79.3349978  58.5760014  73.2554947  79.6482756  58.4937252
  75.3979992  78.6419978  59.9220014  75.8099992  77.9209978  59.4470014
  76.0789992  79.3109978  59.9800014  75.5465536  78.6337766  59.8648024
  58.8559992  92.6379978  61.9250014  58.1709992  92.5999978  61.2580014
  58.8599992  93.5509978  62.2130014  58.7627621  92.7561924  61.8726126
  67.7199992  93.8469978  60.3230014  68.5859992  94.2139978  60.1450014
  67.4739992  93.4079978  59.5090014  67.8052097  93.8378525  60.1886019
  60.6739992  93.5579978  58.9500014  60.4059992  93.8439978  59.8240014
  61.4449992  93.0119978  59.1030014  60.7415926  93.5232779  59.0901205
  77.5789992  88.4599978  62.5380014  77.3069992  88.6889978  61.6500014
  77.6239992  89.2969978  62.9990014  77.5478097  88.6046163  62.4786683
  86.7739992  85.2919978  62.6350014  86.0629992  85.8269978  62.2830014
  87.4649992  85.3469978  61.9750014  86.7700751  85.3726777  62.4975858
  86.8279992  83.7489978  59.6730014  87.5289992  83.7719978  60.3250014
  87.1299992  83.1209978  59.0170014  86.9648202  83.6672212  59.6735609
  92.7499992  76.4139978  61.0850014  91.8499992  76.5529978  61.3800014
  93.0019992  77.2449978  60.6830014  92.6608683  76.5454055  61.0710232
  89.3509992  93.5109978  60.1240014  89.7259992  92.7669978  59.6530014
  89.3559992  93.2409978  61.0420014  89.4030098  93.3726392  60.1836629
  90.5279992  85.6959978  58.9010014  90.5699992  85.4739978  57.9710014
  91.3769992  86.0949978  59.0910014  90.6485253  85.7195498  58.7993822
  86.1009992  79.5719978  59.5720014  85.8469992  79.5909978  60.4940014
  85.8439992  78.7009978  59.2700014  86.0314508  79.4568280  59.6574803
  82.9829992  80.0179978  58.6730014  82.5519992  79.5729978  59.4020014
  82.2649992  80.3889978  58.1600014  82.8269176  80.0072051  58.7034930
  77.4999992  80.5059978  61.1490014  77.9739992  81.0969978  60.5640014
  76.7819992  81.0359978  61.4960014  77.4678640  80.6585511  61.1157969
  82.9269992  81.6009978  62.4890014  83.8589992  81.7299978  62.6670014
  82.7119992  82.2699978  61.8390014  83.0254472  81.7090806  62.4254891
  81.6009992  82.7949978  60.0550014  81.0589992  82.4159978  59.3640014
  82.4349992  82.9899978  59.6270014  81.6394390  82.7694079  59.9024392
  84.9369992  87.3609978  61.9910014  84.1919992  86.8529978  61.6690014
  84.8019992  87.4099978  62.9370014  84.8168963  87.2981731  62.0748826
  88.8339992  80.1749978  60.1900014  87.8959992  80.2859978  60.0390014
  89.1319992  81.0309978  60.4970014  88.7456318  80.3060158  60.2108145
  87.0619992  88.8189978  61.0160014  86.7669992  89.6459978  61.3980014
  86.3589992  88.1999978  61.2130014  86.9266379  88.8484171  61.0948654
  94.4379992  82.2509978  61.5460014  93.8829992  81.8549978  60.8730014
  94.5379992  83.1619978  61.2680014  94.3756816  82.3199505  61.4165033
  78.1909992  85.0359978  59.7520014  78.8069992  85.6629978  60.1320014
  77.3289992  85.3519978  60.0240014  78.1587678  85.1644412  59.8407209
  90.1249992  89.0139978  59.8310014  90.4789992  88.6339978  60.6350014
  89.1769992  88.9199978  59.9180014  90.0452298  88.9492452  59.9528687
  94.6289992  93.4929978  60.0320014  95.3729992  94.0789978  59.8920014
  93.9349992  94.0619978  60.3650014  94.6369809  93.6500818  60.0578590
  84.2159992  90.1259978  58.2780014  84.4549992  89.3769978  57.7310014
  83.9469992  89.7379978  59.1110014  84.2123233  89.9711853  58.3157809
  83.1529992  89.6959978  60.7340014  83.2999992  89.1759978  61.5240014
  83.1499992  90.6029978  61.0410014  83.1727102  89.7473953  60.8835925
  79.6059992  86.9479978  61.2450014  78.9199992  87.3009978  61.8120014
  80.1289992  87.7109978  60.9980014  79.5828402  87.0993901  61.2891801
  88.2219992  79.2629978  62.6210014  88.4419992  79.7339978  61.8170014
  88.7809992  79.6569978  63.2910014  88.3276731  79.3807287  62.6015033
  81.9639992  79.1349978  61.0810014  81.8799992  80.0229978  61.4280014
  82.8539992  78.8699978  61.3130014  82.0728163  79.2207179  61.1598596
  80.2219992  89.5619978  60.1410014  80.8139992  90.2619978  60.4180014
  80.6809992  89.1289978  59.4220014  80.3651652  89.5992675  60.0816533
  86.2539992  91.9889978  58.4170014  85.6099992  91.3579978  58.7380014
  87.0159992  91.4579978  58.1850014  86.2688058  91.8307902  58.4296038
  90.8589992  91.8059978  58.6500014  91.1419992  91.0109978  59.1030014
  91.5979992  92.0389978  58.0890014  90.9977096  91.7287049  58.6361104
  81.8129992  87.7149978  58.5080014  81.8779992  86.9209978  59.0380014
  82.4659992  87.5969978  57.8180014  81.9101605  87.5903430  58.4872997
  87.1659992  88.7619978  58.2440014  86.8969992  88.9429978  59.1440014
  86.9589992  87.8369978  58.1120014  87.1011191  88.6617119  58.3495524
  82.9629992  85.6879978  60.8140014  82.5029992  85.2039978  61.4990014
  83.2179992  85.0189978  60.1780014  82.9344856  85.5313669  60.8218397
  84.0339992  83.9309978  59.0760014  83.8529992  83.7759978  58.1490014
  84.9839992  84.0389978  59.1210014  84.1376566  83.9243669  58.9550929
  93.4239992  86.2849978  58.5220014  93.1499992  85.8609978  57.7090014
  93.4629992  87.2169978  58.3050014  93.3917716  86.3528827  58.3814286
  83.9309992  94.6209978  60.0770014  84.8639992  94.7789978  60.2210014
  83.6669992  95.2969978  59.4520014  84.0229911  94.7339373  60.0122722
  77.4989992  89.2579978  59.5600014  78.4129992  89.3369978  59.8330014
  77.5069992  88.5709978  58.8940014  77.6250655  89.1759205  59.5072917
  92.8939992  82.3479978  59.2620014  92.9899992  83.0149978  58.5820014
  92.7539992  81.5329978  58.7810014  92.8882040  82.3290671  59.1038378
  92.1409992  79.7559978  58.3800014  92.7519992  79.3849978  59.0170014
  91.3039992  79.3349978  58.5760014  92.1114947  79.6482756  58.4937252
  94.2539992  78.6419978  59.9220014  94.6659992  77.9209978  59.4470014
  94.9349992  79.3109978  59.9800014  94.4025536  78.6337766  59.8648024
  77.8109992  76.6899978  61.0280014  78.2499992  77.3009978  60.4360014
  77.1769992  77.2279978  61.5020014  77.7853859  76.8464064  61.0110305
  90.4639992  76.8739978  62.3790014  89.7609992  77.4889978  62.1690014
  90.0189992  76.0369978  62.5100014  90.3076550  76.8449668  62.3679837
  84.6979992  78.8989978  61.9270014  84.8759992  78.2519978  62.6100014
  84.6439992  79.7329978  62.3940014  84.7150678  78.9231604  62.0836301
  86.5759992  93.8469978  60.3230014  87.4419992  94.2139978  60.1450014
  86.3299992  93.4079978  59.5090014  86.6612097  93.8378525  60.1886019
  79.5299992  93.5579978  58.9500014  79.2619992  93.8439978  59.8240014
  80.3009992  93.0119978  59.1030014  79.5975926  93.5232779  59.0901205
 105.6299992  85.2919978  62.6350014 104.9189992  85.8269978  62.2830014
 106.3209992  85.3469978  61.9750014 105.6260751  85.3726777  62.4975858
 105.6839992  83.7489978  59.6730014 106.3849992  83.7719978  60.3250014
 105.9859992  83.1209978  59.0170014 105.8208202  83.6672212  59.6735609
 112.7949992  90.7799978  59.4610014 112.8679992  91.7189978  59.6310014
 113.6999992  90.4749978  59.4050014 112.9274170  90.8673282  59.4767063
 109.3839992  85.6959978  58.9010014 109.4259992  85.4739978  57.9710014
 110.2329992  86.0949978  59.0910014 109.5045253  85.7195498  58.7993822
 104.9569992  79.5719978  59.5720014 104.7029992  79.5909978  60.4940014
 104.6999992  78.7009978  59.2700014 104.8874508  79.4568280  59.6574803
 101.8389992  80.0179978  58.6730014 101.4079992  79.5729978  59.4020014
 101.1209992  80.3889978  58.1600014 101.6829176  80.0072051  58.7034930
  96.3559992  80.5059978  61.1490014  96.8299992  81.0969978  60.5640014
  95.6379992  81.0359978  61.4960014  96.3238640  80.6585511  61.1157969
 100.4569992  82.7949978  60.0550014  99.9149992  82.4159978  59.3640014
 101.2909992  82.9899978  59.6270014 100.4954390  82.7694079  59.9024392
 107.6899992  80.1749978  60.1900014 106.7519992  80.2859978  60.0390014
 107.9879992  81.0309978  60.4970014 107.6016318  80.3060158  60.2108145
 113.2939992  82.2509978  61.5460014 112.7389992  81.8549978  60.8730014
 113.3939992  83.1619978  61.2680014 113.2316816  82.3199505  61.4165033
  97.0469992  85.0359978  59.7520014  97.6629992  85.6629978  60.1320014
  96.1849992  85.3519978  60.0240014  97.0147678  85.1644412  59.8407209
 108.9809992  89.0139978  59.8310014 109.3349992  88.6339978  60.6350014
 108.0329992  88.9199978  59.9180014 108.9012298  88.9492452  59.9528687
 113.4849992  93.4929978  60.0320014 114.2289992  94.0789978  59.8920014
 112.7909992  94.0619978  60.3650014 113.4929809  93.6500818  60.0578590
 103.0719992  90.1259978  58.2780014 103.3109992  89.3769978  57.7310014
 102.8029992  89.7379978  59.1110014 103.0683233  89.9711853  58.3157809
  98.4619992  86.9479978  61.2450014  97.7759992  87.3009978  61.8120014
  98.9849992  87.7109978  60.9980014  98.4388402  87.0993901  61.2891801
 107.0779992  79.2629978  62.6210014 107.2979992  79.7339978  61.8170014
 107.6369992  79.6569978  63.2910014 107.1836731  79.3807287  62.6015033
 104.7469992  91.3929978  61.4840014 103.9299992  91.8899978  61.5360014
 105.2759992  91.8689978  60.8430014 104.7068125  91.5251989  61.4045306
 102.0849992  92.4369978  61.4650014 102.2459992  93.2369978  60.9650014
 101.8879992  92.7439978  62.3500014 102.0803906  92.5878678  61.5162333
  99.0779992  89.5619978  60.1410014  99.6699992  90.2619978  60.4180014
  99.5369992  89.1289978  59.4220014  99.2211652  89.5992675  60.0816533
  97.3939992  82.2269978  59.2570014  97.3489992  83.1659978  59.4360014
  96.5059992  81.9909978  58.9880014  97.2678166  82.3236687  59.2451524
 105.1099992  91.9889978  58.4170014 104.4659992  91.3579978  58.7380014
 105.8719992  91.4579978  58.1850014 105.1248058  91.8307902  58.4296038
 109.7149992  91.8059978  58.6500014 109.9979992  91.0109978  59.1030014
 110.4539992  92.0389978  58.0890014 109.8537096  91.7287049  58.6361104
 100.6689992  87.7149978  58.5080014 100.7339992  86.9209978  59.0380014
 101.3219992  87.5969978  57.8180014 100.7661605  87.5903430  58.4872997
 106.0219992  88.7619978  58.2440014 105.7529992  88.9429978  59.1440014
 105.8149992  87.8369978  58.1120014 105.9571191  88.6617119  58.3495524
 102.8899992  83.9309978  59.0760014 102.7089992  83.7759978  58.1490014
 103.8399992  84.0389978  59.1210014 102.9936566  83.9243669  58.9550929
 112.2799992  86.2849978  58.5220014 112.0059992  85.8609978  57.7090014
 112.3189992  87.2169978  58.3050014 112.2477716  86.3528827  58.3814286
  96.3549992  89.2579978  59.5600014  97.2689992  89.3369978  59.8330014
  96.3629992  88.5709978  58.8940014  96.4810655  89.1759205  59.5072917
 112.7379992  87.1539978  62.4970014 113.5879992  87.5749978  62.6240014
 112.7429992  86.4139978  63.1040014 112.8551143  87.1116094  62.5964750
 113.4009992  85.1089978  60.7110014 112.8789992  85.4649978  59.9930014
 113.3679992  85.7839978  61.3900014 113.3250129  85.2489598  60.7043355
 111.7499992  82.3479978  59.2620014 111.8459992  83.0149978  58.5820014
 111.6099992  81.5329978  58.7810014 111.7442040  82.3290671  59.1038378
 110.9969992  79.7559978  58.3800014 111.6079992  79.3849978  59.0170014
 110.1599992  79.3349978  58.5760014 110.9674947  79.6482756  58.4937252
  98.5279992  78.6059978  59.4700014  99.0189992  77.9759978  58.9430014
  99.1509992  78.9019978  60.1330014  98.6795304  78.5597376  59.4874940
  98.3859992  93.5579978  58.9500014  98.1179992  93.8439978  59.8240014
  99.1569992  93.0119978  59.1030014  98.4535926  93.5232779  59.0901205
 124.5399992  83.7489978  59.6730014 125.2409992  83.7719978  60.3250014
 124.8419992  83.1209978  59.0170014 124.6768202  83.6672212  59.6735609
 131.6509992  90.7799978  59.4610014 131.7239992  91.7189978  59.6310014
 132.5559992  90.4749978  59.4050014 131.7834170  90.8673282  59.4767063
 128.2399992  85.6959978  58.9010014 128.2819992  85.4739978  57.9710014
 129.0889992  86.0949978  59.0910014 128.3605253  85.7195498  58.7993822
 123.8129992  79.5719978  59.5720014 123.5589992  79.5909978  60.4940014
 123.5559992  78.7009978  59.2700014 123.7434508  79.4568280  59.6574803
 120.6949992  80.0179978  58.6730014 120.2639992  79.5729978  59.4020014
 119.9769992  80.3889978  58.1600014 120.5389176  80.0072051  58.7034930
 119.3129992  82.7949978  60.0550014 118.7709992  82.4159978  59.3640014
 120.1469992  82.9899978  59.6270014 119.3514390  82.7694079  59.9024392
 127.2649992  82.0419978  61.8510014 128.1569992  81.9039978  62.1700014
 127.3209992  82.8329978  61.3140014 127.3947325  82.1299918  61.8221217
 132.1499992  82.2509978  61.5460014 131.5949992  81.8549978  60.8730014
 132.2499992  83.1619978  61.2680014 132.0876816  82.3199505  61.4165033
 130.4449992  91.0369978  62.0110014 130.0719992  90.2119978  62.3200014
 130.7219992  90.8539978  61.1130014 130.4313463  90.8992569  61.9319525
 115.9029992  85.0359978  59.7520014 116.5189992  85.6629978  60.1320014
 115.0409992  85.3519978  60.0240014 115.8707678  85.1644412  59.8407209
 127.8369992  89.0139978  59.8310014 128.1909992  88.6339978  60.6350014
 126.8889992  88.9199978  59.9180014 127.7572298  88.9492452  59.9528687
 132.3409992  93.4929978  60.0320014 133.0849992  94.0789978  59.8920014
 131.6469992  94.0619978  60.3650014 132.3489809  93.6500818  60.0578590
 121.9279992  90.1259978  58.2780014 122.1669992  89.3769978  57.7310014
 121.6589992  89.7379978  59.1110014 121.9243233  89.9711853  58.3157809
 120.8649992  89.6959978  60.7340014 121.0119992  89.1759978  61.5240014
 120.8619992  90.6029978  61.0410014 120.8847102  89.7473953  60.8835925
 116.2499992  82.2269978  59.2570014 116.2049992  83.1659978  59.4360014
 115.3619992  81.9909978  58.9880014 116.1238166  82.3236687  59.2451524
 123.9659992  91.9889978  58.4170014 123.3219992  91.3579978  58.7380014
 124.7279992  91.4579978  58.1850014 123.9808058  91.8307902  58.4296038
 128.5709992  91.8059978  58.6500014 128.8539992  91.0109978  59.1030014
 129.3099992  92.0389978  58.0890014 128.7097096  91.7287049  58.6361104
 119.5249992  87.7149978  58.5080014 119.5899992  86.9209978  59.0380014
 120.1779992  87.5969978  57.8180014 119.6221605  87.5903430  58.4872997
 124.8779992  88.7619978  58.2440014 124.6089992  88.9429978  59.1440014
 124.6709992  87.8369978  58.1120014 124.8131191  88.6617119  58.3495524
 120.6749992  85.6879978  60.8140014 120.2149992  85.2039978  61.4990014
 120.9299992  85.0189978  60.1780014 120.6464856  85.5313669  60.8218397
 121.7459992  83.9309978  59.0760014 121.5649992  83.7759978  58.1490014
 122.6959992  84.0389978  59.1210014 121.8496566  83.9243669  58.9550929
 131.1359992  86.2849978  58.5220014 130.8619992  85.8609978  57.7090014
 131.1749992  87.2169978  58.3050014 131.1037716  86.3528827  58.3814286
 121.6429992  94.6209978  60.0770014 122.5759992  94.7789978  60.2210014
 121.3789992  95.2969978  59.4520014 121.7349911  94.7339373  60.0122722
 115.2109992  89.2579978  59.5600014 116.1249992  89.3369978  59.8330014
 115.2189992  88.5709978  58.8940014 115.3370655  89.1759205  59.5072917
 131.5939992  87.1539978  62.4970014 132.4439992  87.5749978  62.6240014
 131.5989992  86.4139978  63.1040014 131.7111143  87.1116094  62.5964750
 130.6059992  82.3479978  59.2620014 130.7019992  83.0149978  58.5820014
 130.4659992  81.5329978  58.7810014 130.6002040  82.3290671  59.1038378
 129.8529992  79.7559978  58.3800014 130.4639992  79.3849978  59.0170014
 129.0159992  79.3349978  58.5760014 129.8234947  79.6482756  58.4937252
 131.9659992  78.6419978  59.9220014 132.3779992  77.9209978  59.4470014
 132.6469992  79.3109978  59.9800014 132.1145536  78.6337766  59.8648024
 115.4239992  92.6379978  61.9250014 114.7389992  92.5999978  61.2580014
 115.4279992  93.5509978  62.2130014 115.3307621  92.7561924  61.8726126
 122.4099992  78.8989978  61.9270014 122.5879992  78.2519978  62.6100014
 122.3559992  79.7329978  62.3940014 122.4270678  78.9231604  62.0836301
 117.2419992  93.5579978  58.9500014 116.9739992  93.8439978  59.8240014
 118.0129992  93.0119978  59.1030014 117.3095926  93.5232779  59.0901205
 143.3959992  83.7489978  59.6730014 144.0969992  83.7719978  60.3250014
 143.6979992  83.1209978  59.0170014 143.5328202  83.6672212  59.6735609
 142.6689992  79.5719978  59.5720014 142.4149992  79.5909978  60.4940014
 142.4119992  78.7009978  59.2700014 142.5994508  79.4568280  59.6574803
 139.5509992  80.0179978  58.6730014 139.1199992  79.5729978  59.4020014
 138.8329992  80.3889978  58.1600014 139.3949176  80.0072051  58.7034930
 134.0679992  80.5059978  61.1490014 134.5419992  81.0969978  60.5640014
 133.3499992  81.0359978  61.4960014 134.0358640  80.6585511  61.1157969
 145.4019992  80.1749978  60.1900014 144.4639992  80.2859978  60.0390014
 145.6999992  81.0309978  60.4970014 145.3136318  80.3060158  60.2108145
 134.7589992  85.0359978  59.7520014 135.3749992  85.6629978  60.1320014
 133.8969992  85.3519978  60.0240014 134.7267678  85.1644412  59.8407209
 140.7839992  90.1259978  58.2780014 141.0229992  89.3769978  57.7310014
 140.5149992  89.7379978  59.1110014 140.7803233  89.9711853  58.3157809
 136.1739992  86.9479978  61.2450014 135.4879992  87.3009978  61.8120014
 136.6969992  87.7109978  60.9980014 136.1508402  87.0993901  61.2891801
 142.4589992  91.3929978  61.4840014 141.6419992  91.8899978  61.5360014
 142.9879992  91.8689978  60.8430014 142.4188125  91.5251989  61.4045306
 139.7969992  92.4369978  61.4650014 139.9579992  93.2369978  60.9650014
 139.5999992  92.7439978  62.3500014 139.7923906  92.5878678  61.5162333
 138.5319992  79.1349978  61.0810014 138.4479992  80.0229978  61.4280014
 139.4219992  78.8699978  61.3130014 138.6408163  79.2207179  61.1598596
 135.1059992  82.2269978  59.2570014 135.0609992  83.1659978  59.4360014
 134.2179992  81.9909978  58.9880014 134.9798166  82.3236687  59.2451524
 142.8219992  91.9889978  58.4170014 142.1779992  91.3579978  58.7380014
 143.5839992  91.4579978  58.1850014 142.8368058  91.8307902  58.4296038
 138.3809992  87.7149978  58.5080014 138.4459992  86.9209978  59.0380014
 139.0339992  87.5969978  57.8180014 138.4781605  87.5903430  58.4872997
 143.7339992  88.7619978  58.2440014 143.4649992  88.9429978  59.1440014
 143.5269992  87.8369978  58.1120014 143.6691191  88.6617119  58.3495524
 139.5309992  85.6879978  60.8140014 139.0709992  85.2039978  61.4990014
 139.7859992  85.0189978  60.1780014 139.5024856  85.5313669  60.8218397
 140.6019992  83.9309978  59.0760014 140.4209992  83.7759978  58.1490014
 141.5519992  84.0389978  59.1210014 140.7056566  83.9243669  58.9550929
 140.4989992  94.6209978  60.0770014 141.4319992  94.7789978  60.2210014
 140.2349992  95.2969978  59.4520014 140.5909911  94.7339373  60.0122722
 134.0669992  89.2579978  59.5600014 134.9809992  89.3369978  59.8330014
 134.0749992  88.5709978  58.8940014 134.1930655  89.1759205  59.5072917
 134.3789992  76.6899978  61.0280014 134.8179992  77.3009978  60.4360014
 133.7449992  77.2279978  61.5020014 134.3533859  76.8464064  61.0110305
 136.2399992  78.6059978  59.4700014 136.7309992  77.9759978  58.9430014
 136.8629992  78.9019978  60.1330014 136.3915304  78.5597376  59.4874940
 143.1439992  93.8469978  60.3230014 144.0099992  94.2139978  60.1450014
 142.8979992  93.4079978  59.5090014 143.2292097  93.8378525  60.1886019
 136.0979992  93.5579978  58.9500014 135.8299992  93.8439978  59.8240014
 136.8689992  93.0119978  59.1030014 136.1655926  93.5232779  59.0901205
  13.6269992 103.5199978  61.2720014  14.2059992 103.6699978  62.0180014
  14.0409992 103.9899978  60.5480014  13.7623358 103.6040954  61.2763953
  18.5149992 109.6359978  59.4610014  18.5879992 110.5749978  59.6310014
  19.4199992 109.3309978  59.4050014  18.6474170 109.7233282  59.4767063
  13.9269992 112.3669978  60.1240014  14.3019992 111.6229978  59.6530014
  13.9319992 112.0969978  61.0420014  13.9790098 112.2286392  60.1836629
  15.1039992 104.5519978  58.9010014  15.1459992 104.3299978  57.9710014
  15.9529992 104.9509978  59.0910014  15.2245253 104.5755498  58.7993822
   7.5589992  98.8739978  58.6730014   7.1279992  98.4289978  59.4020014
   6.8409992  99.2449978  58.1600014   7.4029176  98.8632051  58.7034930
   2.0759992  99.3619978  61.1490014   2.5499992  99.9529978  60.5640014
   1.3579992  99.8919978  61.4960014   2.0438640  99.5145511  61.1157969
   7.5029992 100.4569978  62.4890014   8.4349992 100.5859978  62.6670014
   7.2879992 101.1259978  61.8390014   7.6014472 100.5650806  62.4254891
   6.1769992 101.6509978  60.0550014   5.6349992 101.2719978  59.3640014
   7.0109992 101.8459978  59.6270014   6.2154390 101.6254079  59.9024392
  14.7009992 107.8699978  59.8310014  15.0549992 107.4899978  60.6350014
  13.7529992 107.7759978  59.9180014  14.6212298 107.8052452  59.9528687
   8.7919992 108.9819978  58.2780014   9.0309992 108.2329978  57.7310014
   8.5229992 108.5939978  59.1110014   8.7883233 108.8271853  58.3157809
   7.8049992 111.2929978  61.4650014   7.9659992 112.0929978  60.9650014
   7.6079992 111.5999978  62.3500014   7.8003906 111.4438678  61.5162333
   6.5399992  97.9909978  61.0810014   6.4559992  98.8789978  61.4280014
   7.4299992  97.7259978  61.3130014   6.6488163  98.0767179  61.1598596
   4.7979992 108.4179978  60.1410014   5.3899992 109.1179978  60.4180014
   5.2569992 107.9849978  59.4220014   4.9411652 108.4552675  60.0816533
   3.1139992 101.0829978  59.2570014   3.0689992 102.0219978  59.4360014
   2.2259992 100.8469978  58.9880014   2.9878166 101.1796687  59.2451524
  10.8299992 110.8449978  58.4170014  10.1859992 110.2139978  58.7380014
  11.5919992 110.3139978  58.1850014  10.8448058 110.6867902  58.4296038
  15.4349992 110.6619978  58.6500014  15.7179992 109.8669978  59.1030014
  16.1739992 110.8949978  58.0890014  15.5737096 110.5847049  58.6361104
   6.3889992 106.5709978  58.5080014   6.4539992 105.7769978  59.0380014
   7.0419992 106.4529978  57.8180014   6.4861605 106.4463430  58.4872997
  11.7419992 107.6179978  58.2440014  11.4729992 107.7989978  59.1440014
  11.5349992 106.6929978  58.1120014  11.6771191 107.5177119  58.3495524
   7.5389992 104.5439978  60.8140014   7.0789992 104.0599978  61.4990014
   7.7939992 103.8749978  60.1780014   7.5104856 104.3873669  60.8218397
   8.6099992 102.7869978  59.0760014   8.4289992 102.6319978  58.1490014
   9.5599992 102.8949978  59.1210014   8.7136566 102.7803669  58.9550929
  17.9999992 105.1409978  58.5220014  17.7259992 104.7169978  57.7090014
  18.0389992 106.0729978  58.3050014  17.9677716 105.2088827  58.3814286
   8.5069992 113.4769978  60.0770014   9.4399992 113.6349978  60.2210014
   8.2429992 114.1529978  59.4520014   8.5989911 113.5899373  60.0122722
   2.0749992 108.1139978  59.5600014   2.9889992 108.1929978  59.8330014
   2.0829992 107.4269978  58.8940014   2.2010655 108.0319205  59.5072917
  17.4699992 101.2039978  59.2620014  17.5659992 101.8709978  58.5820014
  17.3299992 100.3889978  58.7810014  17.4642040 101.1850671  59.1038378
  16.7169992  98.6119978  58.3800014  17.3279992  98.2409978  59.0170014
  15.8799992  98.1909978  58.5760014  16.6874947  98.5042756  58.4937252
  18.8299992  97.4979978  59.9220014  19.2419992  96.7769978  59.4470014
  19.5109992  98.1669978  59.9800014  18.9785536  97.4897766  59.8648024
   4.2479992  97.4619978  59.4700014   4.7389992  96.8319978  58.9430014
   4.8709992  97.7579978  60.1330014   4.3995304  97.4157376  59.4874940
  11.1519992 112.7029978  60.3230014  12.0179992 113.0699978  60.1450014
  10.9059992 112.2639978  59.5090014  11.2372097 112.6938525  60.1886019
   4.1059992 112.4139978  58.9500014   3.8379992 112.6999978  59.8240014
   4.8769992 111.8679978  59.1030014   4.1735926 112.3792779  59.0901205
  21.0109992 107.3159978  62.5380014  20.7389992 107.5449978  61.6500014
  21.0559992 108.1529978  62.9990014  20.9798097 107.4606163  62.4786683
  30.2599992 102.6049978  59.6730014  30.9609992 102.6279978  60.3250014
  30.5619992 101.9769978  59.0170014  30.3968202 102.5232212  59.6735609
  37.3709992 109.6359978  59.4610014  37.4439992 110.5749978  59.6310014
  38.2759992 109.3309978  59.4050014  37.5034170 109.7233282  59.4767063
  33.9599992 104.5519978  58.9010014  34.0019992 104.3299978  57.9710014
  34.8089992 104.9509978  59.0910014  34.0805253 104.5755498  58.7993822
  29.5329992  98.4279978  59.5720014  29.2789992  98.4469978  60.4940014
  29.2759992  97.5569978  59.2700014  29.4634508  98.3128280  59.6574803
  20.9319992  99.3619978  61.1490014  21.4059992  99.9529978  60.5640014
  20.2139992  99.8919978  61.4960014  20.8998640  99.5145511  61.1157969
  32.2659992  99.0309978  60.1900014  31.3279992  99.1419978  60.0390014
  32.5639992  99.8869978  60.4970014  32.1776318  99.1620158  60.2108145
  32.9849992 100.8979978  61.8510014  33.8769992 100.7599978  62.1700014
  33.0409992 101.6889978  61.3140014  33.1147325 100.9859918  61.8221217
  30.4939992 107.6749978  61.0160014  30.1989992 108.5019978  61.3980014
  29.7909992 107.0559978  61.2130014  30.3586379 107.7044171  61.0948654
  37.8699992 101.1069978  61.5460014  37.3149992 100.7109978  60.8730014
  37.9699992 102.0179978  61.2680014  37.8076816 101.1759505  61.4165033
  21.6229992 103.8919978  59.7520014  22.2389992 104.5189978  60.1320014
  20.7609992 104.2079978  60.0240014  21.5907678 104.0204412  59.8407209
  33.5569992 107.8699978  59.8310014  33.9109992 107.4899978  60.6350014
  32.6089992 107.7759978  59.9180014  33.4772298 107.8052452  59.9528687
  38.0609992 112.3489978  60.0320014  38.8049992 112.9349978  59.8920014
  37.3669992 112.9179978  60.3650014  38.0689809 112.5060818  60.0578590
  27.6479992 108.9819978  58.2780014  27.8869992 108.2329978  57.7310014
  27.3789992 108.5939978  59.1110014  27.6443233 108.8271853  58.3157809
  23.0379992 105.8039978  61.2450014  22.3519992 106.1569978  61.8120014
  23.5609992 106.5669978  60.9980014  23.0148402 105.9553901  61.2891801
  29.3229992 110.2489978  61.4840014  28.5059992 110.7459978  61.5360014
  29.8519992 110.7249978  60.8430014  29.2828125 110.3811989  61.4045306
  26.6609992 111.2929978  61.4650014  26.8219992 112.0929978  60.9650014
  26.4639992 111.5999978  62.3500014  26.6563906 111.4438678  61.5162333
  21.9699992 101.0829978  59.2570014  21.9249992 102.0219978  59.4360014
  21.0819992 100.8469978  58.9880014  21.8438166 101.1796687  59.2451524
  29.6859992 110.8449978  58.4170014  29.0419992 110.2139978  58.7380014
  30.4479992 110.3139978  58.1850014  29.7008058 110.6867902  58.4296038
  34.2909992 110.6619978  58.6500014  34.5739992 109.8669978  59.1030014
  35.0299992 110.8949978  58.0890014  34.4297096 110.5847049  58.6361104
  25.2449992 106.5709978  58.5080014  25.3099992 105.7769978  59.0380014
  25.8979992 106.4529978  57.8180014  25.3421605 106.4463430  58.4872997
  30.5979992 107.6179978  58.2440014  30.3289992 107.7989978  59.1440014
  30.3909992 106.6929978  58.1120014  30.5331191 107.5177119  58.3495524
  26.3949992 104.5439978  60.8140014  25.9349992 104.0599978  61.4990014
  26.6499992 103.8749978  60.1780014  26.3664856 104.3873669  60.8218397
  27.4659992 102.7869978  59.0760014  27.2849992 102.6319978  58.1490014
  28.4159992 102.8949978  59.1210014  27.5696566 102.7803669  58.9550929
  36.8559992 105.1409978  58.5220014  36.5819992 104.7169978  57.7090014
  36.8949992 106.0729978  58.3050014  36.8237716 105.2088827  58.3814286
  27.3629992 113.4769978  60.0770014  28.2959992 113.6349978  60.2210014
  27.0989992 114.1529978  59.4520014  27.4549911 113.5899373  60.0122722
  20.9309992 108.1139978  59.5600014  21.8449992 108.1929978  59.8330014
  20.9389992 107.4269978  58.8940014  21.0570655 108.0319205  59.5072917
  37.9769992 103.9649978  60.7110014  37.4549992 104.3209978  59.9930014
  37.9439992 104.6399978  61.3900014  37.9010129 104.1049598  60.7043355
  36.3259992 101.2039978  59.2620014  36.4219992 101.8709978  58.5820014
  36.1859992 100.3889978  58.7810014  36.3202040 101.1850671  59.1038378
  35.5729992  98.6119978  58.3800014  36.1839992  98.2409978  59.0170014
  34.7359992  98.1909978  58.5760014  35.5434947  98.5042756  58.4937252
  37.6859992  97.4979978  59.9220014  38.0979992  96.7769978  59.4470014
  38.3669992  98.1669978  59.9800014  37.8345536  97.4897766  59.8648024
  21.1439992 111.4939978  61.9250014  20.4589992 111.4559978  61.2580014
  21.1479992 112.4069978  62.2130014  21.0507621 111.6121924  61.8726126
  23.1039992  97.4619978  59.4700014  23.5949992  96.8319978  58.9430014
  23.7269992  97.7579978  60.1330014  23.2555304  97.4157376  59.4874940
  22.9619992 112.4139978  58.9500014  22.6939992 112.6999978  59.8240014
  23.7329992 111.8679978  59.1030014  23.0295926 112.3792779  59.0901205
  49.1159992 102.6049978  59.6730014  49.8169992 102.6279978  60.3250014
  49.4179992 101.9769978  59.0170014  49.2528202 102.5232212  59.6735609
  51.3389992 103.5199978  61.2720014  51.9179992 103.6699978  62.0180014
  51.7529992 103.9899978  60.5480014  51.4743358 103.6040954  61.2763953
  55.0379992  95.2699978  61.0850014  54.1379992  95.4089978  61.3800014
  55.2899992  96.1009978  60.6830014  54.9488683  95.4014055  61.0710232
  56.2269992 109.6359978  59.4610014  56.2999992 110.5749978  59.6310014
  57.1319992 109.3309978  59.4050014  56.3594170 109.7233282  59.4767063
  51.6389992 112.3669978  60.1240014  52.0139992 111.6229978  59.6530014
  51.6439992 112.0969978  61.0420014  51.6910098 112.2286392  60.1836629
  52.8159992 104.5519978  58.9010014  52.8579992 104.3299978  57.9710014
  53.6649992 104.9509978  59.0910014  52.9365253 104.5755498  58.7993822
  48.3889992  98.4279978  59.5720014  48.1349992  98.4469978  60.4940014
  48.1319992  97.5569978  59.2700014  48.3194508  98.3128280  59.6574803
  45.2709992  98.8739978  58.6730014  44.8399992  98.4289978  59.4020014
  44.5529992  99.2449978  58.1600014  45.1149176  98.8632051  58.7034930
  39.7879992  99.3619978  61.1490014  40.2619992  99.9529978  60.5640014
  39.0699992  99.8919978  61.4960014  39.7558640  99.5145511  61.1157969
  43.8889992 101.6509978  60.0550014  43.3469992 101.2719978  59.3640014
  44.7229992 101.8459978  59.6270014  43.9274390 101.6254079  59.9024392
  51.1219992  99.0309978  60.1900014  50.1839992  99.1419978  60.0390014
  51.4199992  99.8869978  60.4970014  51.0336318  99.1620158  60.2108145
  40.4789992 103.8919978  59.7520014  41.0949992 104.5189978  60.1320014
  39.6169992 104.2079978  60.0240014  40.4467678 104.0204412  59.8407209
  52.4129992 107.8699978  59.8310014  52.7669992 107.4899978  60.6350014
  51.4649992 107.7759978  59.9180014  52.3332298 107.8052452  59.9528687
  56.9169992 112.3489978  60.0320014  57.6609992 112.9349978  59.8920014
  56.2229992 112.9179978  60.3650014  56.9249809 112.5060818  60.0578590
  46.5039992 108.9819978  58.2780014  46.7429992 108.2329978  57.7310014
  46.2349992 108.5939978  59.1110014  46.5003233 108.8271853  58.3157809
  45.5169992 111.2929978  61.4650014  45.6779992 112.0929978  60.9650014
  45.3199992 111.5999978  62.3500014  45.5123906 111.4438678  61.5162333
  44.2519992  97.9909978  61.0810014  44.1679992  98.8789978  61.4280014
  45.1419992  97.7259978  61.3130014  44.3608163  98.0767179  61.1598596
  42.5099992 108.4179978  60.1410014  43.1019992 109.1179978  60.4180014
  42.9689992 107.9849978  59.4220014  42.6531652 108.4552675  60.0816533
  40.8259992 101.0829978  59.2570014  40.7809992 102.0219978  59.4360014
  39.9379992 100.8469978  58.9880014  40.6998166 101.1796687  59.2451524
  48.5419992 110.8449978  58.4170014  47.8979992 110.2139978  58.7380014
  49.3039992 110.3139978  58.1850014  48.5568058 110.6867902  58.4296038
  53.1469992 110.6619978  58.6500014  53.4299992 109.8669978  59.1030014
  53.8859992 110.8949978  58.0890014  53.2857096 110.5847049  58.6361104
  44.1009992 106.5709978  58.5080014  44.1659992 105.7769978  59.0380014
  44.7539992 106.4529978  57.8180014  44.1981605 106.4463430  58.4872997
  49.4539992 107.6179978  58.2440014  49.1849992 107.7989978  59.1440014
  49.2469992 106.6929978  58.1120014  49.3891191 107.5177119  58.3495524
  45.2509992 104.5439978  60.8140014  44.7909992 104.0599978  61.4990014
  45.5059992 103.8749978  60.1780014  45.2224856 104.3873669  60.8218397
  46.3219992 102.7869978  59.0760014  46.1409992 102.6319978  58.1490014
  47.2719992 102.8949978  59.1210014  46.4256566 102.7803669  58.9550929
  55.7119992 105.1409978  58.5220014  55.4379992 104.7169978  57.7090014
  55.7509992 106.0729978  58.3050014  55.6797716 105.2088827  58.3814286
  46.2189992 113.4769978  60.0770014  47.1519992 113.6349978  60.2210014
  45.9549992 114.1529978  59.4520014  46.3109911 113.5899373  60.0122722
  39.7869992 108.1139978  59.5600014  40.7009992 108.1929978  59.8330014
  39.7949992 107.4269978  58.8940014  39.9130655 108.0319205  59.5072917
  55.1819992 101.2039978  59.2620014  55.2779992 101.8709978  58.5820014
  55.0419992 100.3889978  58.7810014  55.1762040 101.1850671  59.1038378
  54.4289992  98.6119978  58.3800014  55.0399992  98.2409978  59.0170014
  53.5919992  98.1909978  58.5760014  54.3994947  98.5042755  58.4937252
  56.5419992  97.4979978  59.9220014  56.9539992  96.7769978  59.4470014
  57.2229992  98.1669978  59.9800014  56.6905536  97.4897766  59.8648024
  52.7519992  95.7299978  62.3790014  52.0489992  96.3449978  62.1690014
  52.3069992  94.8929978  62.5100014  52.5956550  95.7009668  62.3679837
  41.9599992  97.4619978  59.4700014  42.4509992  96.8319978  58.9430014
  42.5829992  97.7579978  60.1330014  42.1115304  97.4157376  59.4874940
  41.8179992 112.4139978  58.9500014  41.5499992 112.6999978  59.8240014
  42.5889992 111.8679978  59.1030014  41.8855926 112.3792779  59.0901205
  67.9179992 104.1479978  62.6350014  67.2069992 104.6829978  62.2830014
  68.6089992 104.2029978  61.9750014  67.9140751 104.2286777  62.4975858
  67.9719992 102.6049978  59.6730014  68.6729992 102.6279978  60.3250014
  68.2739992 101.9769978  59.0170014  68.1088202 102.5232212  59.6735609
  70.1949992 103.5199978  61.2720014  70.7739992 103.6699978  62.0180014
  70.6089992 103.9899978  60.5480014  70.3303358 103.6040954  61.2763953
  75.0829992 109.6359978  59.4610014  75.1559992 110.5749978  59.6310014
  75.9879992 109.3309978  59.4050014  75.2154170 109.7233282  59.4767063
  71.6719992 104.5519978  58.9010014  71.7139992 104.3299978  57.9710014
  72.5209992 104.9509978  59.0910014  71.7925253 104.5755498  58.7993822
  67.2449992  98.4279978  59.5720014  66.9909992  98.4469978  60.4940014
  66.9879992  97.5569978  59.2700014  67.1754508  98.3128280  59.6574803
  64.1269992  98.8739978  58.6730014  63.6959992  98.4289978  59.4020014
  63.4089992  99.2449978  58.1600014  63.9709176  98.8632051  58.7034930
  62.7449992 101.6509978  60.0550014  62.2029992 101.2719978  59.3640014
  63.5789992 101.8459978  59.6270014  62.7834390 101.6254079  59.9024392
  69.9779992  99.0309978  60.1900014  69.0399992  99.1419978  60.0390014
  70.2759992  99.8869978  60.4970014  69.8896318  99.1620158  60.2108145
  59.3349992 103.8919978  59.7520014  59.9509992 104.5189978  60.1320014
  58.4729992 104.2079978  60.0240014  59.3027678 104.0204412  59.8407209
  71.2689992 107.8699978  59.8310014  71.6229992 107.4899978  60.6350014
  70.3209992 107.7759978  59.9180014  71.1892298 107.8052452  59.9528687
  75.7729992 112.3489978  60.0320014  76.5169992 112.9349978  59.8920014
  75.0789992 112.9179978  60.3650014  75.7809809 112.5060818  60.0578590
  72.1349992 106.5419978  62.0580014  71.8579992 105.8139978  62.6140014
  73.0629992 106.6609978  62.2630014  72.2224499 106.4584213  62.1618044
  65.3599992 108.9819978  58.2780014  65.5989992 108.2329978  57.7310014
  65.0909992 108.5939978  59.1110014  65.3563233 108.8271853  58.3157809
  60.7499992 105.8039978  61.2450014  60.0639992 106.1569978  61.8120014
  61.2729992 106.5669978  60.9980014  60.7268402 105.9553901  61.2891801
  69.3659992  98.1189978  62.6210014  69.5859992  98.5899978  61.8170014
  69.9249992  98.5129978  63.2910014  69.4716731  98.2367287  62.6015033
  61.3659992 108.4179978  60.1410014  61.9579992 109.1179978  60.4180014
  61.8249992 107.9849978  59.4220014  61.5091652 108.4552675  60.0816533
  59.6819992 101.0829978  59.2570014  59.6369992 102.0219978  59.4360014
  58.7939992 100.8469978  58.9880014  59.5558166 101.1796687  59.2451524
  67.3979992 110.8449978  58.4170014  66.7539992 110.2139978  58.7380014
  68.1599992 110.3139978  58.1850014  67.4128058 110.6867902  58.4296038
  72.0029992 110.6619978  58.6500014  72.2859992 109.8669978  59.1030014
  72.7419992 110.8949978  58.0890014  72.1417096 110.5847049  58.6361104
  62.9569992 106.5709978  58.5080014  63.0219992 105.7769978  59.0380014
  63.6099992 106.4529978  57.8180014  63.0541605 106.4463430  58.4872997
  68.3099992 107.6179978  58.2440014  68.0409992 107.7989978  59.1440014
  68.1029992 106.6929978  58.1120014  68.2451191 107.5177119  58.3495524
  64.1069992 104.5439978  60.8140014  63.6469992 104.0599978  61.4990014
  64.3619992 103.8749978  60.1780014  64.0784856 104.3873669  60.8218397
  65.1779992 102.7869978  59.0760014  64.9969992 102.6319978  58.1490014
  66.1279992 102.8949978  59.1210014  65.2816566 102.7803669  58.9550929
  74.5679992 105.1409978  58.5220014  74.2939992 104.7169978  57.7090014
  74.6069992 106.0729978  58.3050014  74.5357716 105.2088827  58.3814286
  65.0749992 113.4769978  60.0770014  66.0079992 113.6349978  60.2210014
  64.8109992 114.1529978  59.4520014  65.1669911 113.5899373  60.0122722
  58.6429992 108.1139978  59.5600014  59.5569992 108.1929978  59.8330014
  58.6509992 107.4269978  58.8940014  58.7690655 108.0319205  59.5072917
  74.0379992 101.2039978  59.2620014  74.1339992 101.8709978  58.5820014
  73.8979992 100.3889978  58.7810014  74.0322040 101.1850671  59.1038378
  73.2849992  98.6119978  58.3800014  73.8959992  98.2409978  59.0170014
  72.4479992  98.1909978  58.5760014  73.2554947  98.5042756  58.4937252
  75.3979992  97.4979978  59.9220014  75.8099992  96.7769978  59.4470014
  76.0789992  98.1669978  59.9800014  75.5465536  97.4897766  59.8648024
  71.6079992  95.7299978  62.3790014  70.9049992  96.3449978  62.1690014
  71.1629992  94.8929978  62.5100014  71.4516550  95.7009668  62.3679837
  60.8159992  97.4619978  59.4700014  61.3069992  96.8319978  58.9430014
  61.4389992  97.7579978  60.1330014  60.9675304  97.4157376  59.4874940
  67.7199992 112.7029978  60.3230014  68.5859992 113.0699978  60.1450014
  67.4739992 112.2639978  59.5090014  67.8052097 112.6938525  60.1886019
  60.6739992 112.4139978  58.9500014  60.4059992 112.6999978  59.8240014
  61.4449992 111.8679978  59.1030014  60.7415926 112.3792779  59.0901205
  86.8279992 102.6049978  59.6730014  87.5289992 102.6279978  60.3250014
  87.1299992 101.9769978  59.0170014  86.9648202 102.5232212  59.6735609
  92.7499992  95.2699978  61.0850014  91.8499992  95.4089978  61.3800014
  93.0019992  96.1009978  60.6830014  92.6608683  95.4014055  61.0710232
  89.3509992 112.3669978  60.1240014  89.7259992 111.6229978  59.6530014
  89.3559992 112.0969978  61.0420014  89.4030098 112.2286392  60.1836629
  90.5279992 104.5519978  58.9010014  90.5699992 104.3299978  57.9710014
  91.3769992 104.9509978  59.0910014  90.6485253 104.5755498  58.7993822
  86.1009992  98.4279978  59.5720014  85.8469992  98.4469978  60.4940014
  85.8439992  97.5569978  59.2700014  86.0314508  98.3128280  59.6574803
  82.9829992  98.8739978  58.6730014  82.5519992  98.4289978  59.4020014
  82.2649992  99.2449978  58.1600014  82.8269176  98.8632051  58.7034930
  77.4999992  99.3619978  61.1490014  77.9739992  99.9529978  60.5640014
  76.7819992  99.8919978  61.4960014  77.4678640  99.5145511  61.1157969
  84.9369992 106.2169978  61.9910014  84.1919992 105.7089978  61.6690014
  84.8019992 106.2659978  62.9370014  84.8168963 106.1541731  62.0748826
  88.8339992  99.0309978  60.1900014  87.8959992  99.1419978  60.0390014
  89.1319992  99.8869978  60.4970014  88.7456318  99.1620158  60.2108145
  89.5529992 100.8979978  61.8510014  90.4449992 100.7599978  62.1700014
  89.6089992 101.6889978  61.3140014  89.6827325 100.9859918  61.8221217
  78.1909992 103.8919978  59.7520014  78.8069992 104.5189978  60.1320014
  77.3289992 104.2079978  60.0240014  78.1587678 104.0204412  59.8407209
  90.1249992 107.8699978  59.8310014  90.4789992 107.4899978  60.6350014
  89.1769992 107.7759978  59.9180014  90.0452298 107.8052452  59.9528687
  84.2159992 108.9819978  58.2780014  84.4549992 108.2329978  57.7310014
  83.9469992 108.5939978  59.1110014  84.2123233 108.8271853  58.3157809
  88.2219992  98.1189978  62.6210014  88.4419992  98.5899978  61.8170014
  88.7809992  98.5129978  63.2910014  88.3276731  98.2367287  62.6015033
  85.8909992 110.2489978  61.4840014  85.0739992 110.7459978  61.5360014
  86.4199992 110.7249978  60.8430014  85.8508125 110.3811989  61.4045306
  80.2219992 108.4179978  60.1410014  80.8139992 109.1179978  60.4180014
  80.6809992 107.9849978  59.4220014  80.3651652 108.4552675  60.0816533
  78.5379992 101.0829978  59.2570014  78.4929992 102.0219978  59.4360014
  77.6499992 100.8469978  58.9880014  78.4118166 101.1796687  59.2451524
  86.2539992 110.8449978  58.4170014  85.6099992 110.2139978  58.7380014
  87.0159992 110.3139978  58.1850014  86.2688058 110.6867902  58.4296038
  90.8589992 110.6619978  58.6500014  91.1419992 109.8669978  59.1030014
  91.5979992 110.8949978  58.0890014  90.9977096 110.5847049  58.6361104
  81.8129992 106.5709978  58.5080014  81.8779992 105.7769978  59.0380014
  82.4659992 106.4529978  57.8180014  81.9101605 106.4463430  58.4872997
  87.1659992 107.6179978  58.2440014  86.8969992 107.7989978  59.1440014
  86.9589992 106.6929978  58.1120014  87.1011191 107.5177119  58.3495524
  82.9629992 104.5439978  60.8140014  82.5029992 104.0599978  61.4990014
  83.2179992 103.8749978  60.1780014  82.9344856 104.3873669  60.8218397
  93.4239992 105.1409978  58.5220014  93.1499992 104.7169978  57.7090014
  93.4629992 106.0729978  58.3050014  93.3917716 105.2088827  58.3814286
  83.9309992 113.4769978  60.0770014  84.8639992 113.6349978  60.2210014
  83.6669992 114.1529978  59.4520014  84.0229911 113.5899373  60.0122722
  77.4989992 108.1139978  59.5600014  78.4129992 108.1929978  59.8330014
  77.5069992 107.4269978  58.8940014  77.6250655 108.0319205  59.5072917
  94.5449992 103.9649978  60.7110014  94.0229992 104.3209978  59.9930014
  94.5119992 104.6399978  61.3900014  94.4690129 104.1049598  60.7043355
  92.8939992 101.2039978  59.2620014  92.9899992 101.8709978  58.5820014
  92.7539992 100.3889978  58.7810014  92.8882040 101.1850671  59.1038378
  92.1409992  98.6119978  58.3800014  92.7519992  98.2409978  59.0170014
  91.3039992  98.1909978  58.5760014  92.1114947  98.5042756  58.4937252
  94.2539992  97.4979978  59.9220014  94.6659992  96.7769978  59.4470014
  94.9349992  98.1669978  59.9800014  94.4025536  97.4897766  59.8648024
  77.8109992  95.5459978  61.0280014  78.2499992  96.1569978  60.4360014
  77.1769992  96.0839978  61.5020014  77.7853859  95.7024064  61.0110305
  77.7119992 111.4939978  61.9250014  77.0269992 111.4559978  61.2580014
  77.7159992 112.4069978  62.2130014  77.6187621 111.6121924  61.8726126
  79.6719992  97.4619978  59.4700014  80.1629992  96.8319978  58.9430014
  80.2949992  97.7579978  60.1330014  79.8235304  97.4157376  59.4874940
  79.5299992 112.4139978  58.9500014  79.2619992 112.6999978  59.8240014
  80.3009992 111.8679978  59.1030014  79.5975926 112.3792779  59.0901205
 105.6839992 102.6049978  59.6730014 106.3849992 102.6279978  60.3250014
 105.9859992 101.9769978  59.0170014 105.8208202 102.5232212  59.6735609
 107.9069992 103.5199978  61.2720014 108.4859992 103.6699978  62.0180014
 108.3209992 103.9899978  60.5480014 108.0423358 103.6040954  61.2763953
 111.6059992  95.2699978  61.0850014 110.7059992  95.4089978  61.3800014
 111.8579992  96.1009978  60.6830014 111.5168683  95.4014055  61.0710232
 112.7949992 109.6359978  59.4610014 112.8679992 110.5749978  59.6310014
 113.6999992 109.3309978  59.4050014 112.9274170 109.7233282  59.4767063
 109.3839992 104.5519978  58.9010014 109.4259992 104.3299978  57.9710014
 110.2329992 104.9509978  59.0910014 109.5045253 104.5755498  58.7993822
 104.9569992  98.4279978  59.5720014 104.7029992  98.4469978  60.4940014
 104.6999992  97.5569978  59.2700014 104.8874508  98.3128280  59.6574803
 101.8389992  98.8739978  58.6730014 101.4079992  98.4289978  59.4020014
 101.1209992  99.2449978  58.1600014 101.6829176  98.8632051  58.7034930
 101.7829992 100.4569978  62.4890014 102.7149992 100.5859978  62.6670014
 101.5679992 101.1259978  61.8390014 101.8814472 100.5650806  62.4254891
 100.4569992 101.6509978  60.0550014  99.9149992 101.2719978  59.3640014
 101.2909992 101.8459978  59.6270014 100.4954390 101.6254079  59.9024392
 107.6899992  99.0309978  60.1900014 106.7519992  99.1419978  60.0390014
 107.9879992  99.8869978  60.4970014 107.6016318  99.1620158  60.2108145
 105.9179992 107.6749978  61.0160014 105.6229992 108.5019978  61.3980014
 105.2149992 107.0559978  61.2130014 105.7826379 107.7044171  61.0948654
  97.0469992 103.8919978  59.7520014  97.6629992 104.5189978  60.1320014
  96.1849992 104.2079978  60.0240014  97.0147678 104.0204412  59.8407209
 108.9809992 107.8699978  59.8310014 109.3349992 107.4899978  60.6350014
 108.0329992 107.7759978  59.9180014 108.9012298 107.8052452  59.9528687
 113.4849992 112.3489978  60.0320014 114.2289992 112.9349978  59.8920014
 112.7909992 112.9179978  60.3650014 113.4929809 112.5060818  60.0578590
 109.8469992 106.5419978  62.0580014 109.5699992 105.8139978  62.6140014
 110.7749992 106.6609978  62.2630014 109.9344499 106.4584213  62.1618044
 103.0719992 108.9819978  58.2780014 103.3109992 108.2329978  57.7310014
 102.8029992 108.5939978  59.1110014 103.0683233 108.8271853  58.3157809
  98.4619992 105.8039978  61.2450014  97.7759992 106.1569978  61.8120014
  98.9849992 106.5669978  60.9980014  98.4388402 105.9553901  61.2891801
 107.0779992  98.1189978  62.6210014 107.2979992  98.5899978  61.8170014
 107.6369992  98.5129978  63.2910014 107.1836731  98.2367287  62.6015033
 104.7469992 110.2489978  61.4840014 103.9299992 110.7459978  61.5360014
 105.2759992 110.7249978  60.8430014 104.7068125 110.3811989  61.4045306
 102.0849992 111.2929978  61.4650014 102.2459992 112.0929978  60.9650014
 101.8879992 111.5999978  62.3500014 102.0803906 111.4438678  61.5162333
  99.0779992 108.4179978  60.1410014  99.6699992 109.1179978  60.4180014
  99.5369992 107.9849978  59.4220014  99.2211652 108.4552675  60.0816533
  97.3939992 101.0829978  59.2570014  97.3489992 102.0219978  59.4360014
  96.5059992 100.8469978  58.9880014  97.2678166 101.1796687  59.2451524
 105.1099992 110.8449978  58.4170014 104.4659992 110.2139978  58.7380014
 105.8719992 110.3139978  58.1850014 105.1248058 110.6867902  58.4296038
 109.7149992 110.6619978  58.6500014 109.9979992 109.8669978  59.1030014
 110.4539992 110.8949978  58.0890014 109.8537096 110.5847049  58.6361104
 106.0219992 107.6179978  58.2440014 105.7529992 107.7989978  59.1440014
 105.8149992 106.6929978  58.1120014 105.9571191 107.5177119  58.3495524
 102.8899992 102.7869978  59.0760014 102.7089992 102.6319978  58.1490014
 103.8399992 102.8949978  59.1210014 102.9936566 102.7803669  58.9550929
 112.2799992 105.1409978  58.5220014 112.0059992 104.7169978  57.7090014
 112.3189992 106.0729978  58.3050014 112.2477716 105.2088827  58.3814286
 102.7869992 113.4769978  60.0770014 103.7199992 113.6349978  60.2210014
 102.5229992 114.1529978  59.4520014 102.8789911 113.5899373  60.0122722
 112.7379992 106.0099978  62.4970014 113.5879992 106.4309978  62.6240014
 112.7429992 105.2699978  63.1040014 112.8551143 105.9676094  62.5964750
 113.4009992 103.9649978  60.7110014 112.8789992 104.3209978  59.9930014
 113.3679992 104.6399978  61.3900014 113.3250129 104.1049598  60.7043355
 111.7499992 101.2039978  59.2620014 111.8459992 101.8709978  58.5820014
 111.6099992 100.3889978  58.7810014 111.7442040 101.1850671  59.1038378
 110.9969992  98.6119978  58.3800014 111.6079992  98.2409978  59.0170014
 110.1599992  98.1909978  58.5760014 110.9674947  98.5042756  58.4937252
 113.1099992  97.4979978  59.9220014 113.5219992  96.7769978  59.4470014
 113.7909992  98.1669978  59.9800014 113.2585536  97.4897766  59.8648024
  96.6669992  95.5459978  61.0280014  97.1059992  96.1569978  60.4360014
  96.0329992  96.0839978  61.5020014  96.6413859  95.7024064  61.0110305
  98.5279992  97.4619978  59.4700014  99.0189992  96.8319978  58.9430014
  99.1509992  97.7579978  60.1330014  98.6795304  97.4157376  59.4874940
 105.4319992 112.7029978  60.3230014 106.2979992 113.0699978  60.1450014
 105.1859992 112.2639978  59.5090014 105.5172097 112.6938525  60.1886019
  98.3859992 112.4139978  58.9500014  98.1179992 112.6999978  59.8240014
  99.1569992 111.8679978  59.1030014  98.4535926 112.3792779  59.0901205
 130.4619992  95.2699978  61.0850014 129.5619992  95.4089978  61.3800014
 130.7139992  96.1009978  60.6830014 130.3728683  95.4014055  61.0710232
 131.6509992 109.6359978  59.4610014 131.7239992 110.5749978  59.6310014
 132.5559992 109.3309978  59.4050014 131.7834170 109.7233282  59.4767063
 127.0629992 112.3669978  60.1240014 127.4379992 111.6229978  59.6530014
 127.0679992 112.0969978  61.0420014 127.1150098 112.2286392  60.1836629
 128.2399992 104.5519978  58.9010014 128.2819992 104.3299978  57.9710014
 129.0889992 104.9509978  59.0910014 128.3605253 104.5755498  58.7993822
 123.8129992  98.4279978  59.5720014 123.5589992  98.4469978  60.4940014
 123.5559992  97.5569978  59.2700014 123.7434508  98.3128280  59.6574803
 120.6949992  98.8739978  58.6730014 120.2639992  98.4289978  59.4020014
 119.9769992  99.2449978  58.1600014 120.5389176  98.8632051  58.7034930
 122.6489992 106.2169978  61.9910014 121.9039992 105.7089978  61.6690014
 122.5139992 106.2659978  62.9370014 122.5288963 106.1541731  62.0748826
 126.5459992  99.0309978  60.1900014 125.6079992  99.1419978  60.0390014
 126.8439992  99.8869978  60.4970014 126.4576318  99.1620158  60.2108145
 124.7739992 107.6749978  61.0160014 124.4789992 108.5019978  61.3980014
 124.0709992 107.0559978  61.2130014 124.6386379 107.7044171  61.0948654
 115.9029992 103.8919978  59.7520014 116.5189992 104.5189978  60.1320014
 115.0409992 104.2079978  60.0240014 115.8707678 104.0204412  59.8407209
 127.8369992 107.8699978  59.8310014 128.1909992 107.4899978  60.6350014
 126.8889992 107.7759978  59.9180014 127.7572298 107.8052452  59.9528687
 132.3409992 112.3489978  60.0320014 133.0849992 112.9349978  59.8920014
 131.6469992 112.9179978  60.3650014 132.3489809 112.5060818  60.0578590
 121.9279992 108.9819978  58.2780014 122.1669992 108.2329978  57.7310014
 121.6589992 108.5939978  59.1110014 121.9243233 108.8271853  58.3157809
 120.8649992 108.5519978  60.7340014 121.0119992 108.0319978  61.5240014
 120.8619992 109.4589978  61.0410014 120.8847102 108.6033953  60.8835925
 123.6029992 110.2489978  61.4840014 122.7859992 110.7459978  61.5360014
 124.1319992 110.7249978  60.8430014 123.5628125 110.3811989  61.4045306
 116.2499992 101.0829978  59.2570014 116.2049992 102.0219978  59.4360014
 115.3619992 100.8469978  58.9880014 116.1238166 101.1796687  59.2451524
 123.9659992 110.8449978  58.4170014 123.3219992 110.2139978  58.7380014
 124.7279992 110.3139978  58.1850014 123.9808058 110.6867902  58.4296038
 128.5709992 110.6619978  58.6500014 128.8539992 109.8669978  59.1030014
 129.3099992 110.8949978  58.0890014 128.7097096 110.5847049  58.6361104
 119.5249992 106.5709978  58.5080014 119.5899992 105.7769978  59.0380014
 120.1779992 106.4529978  57.8180014 119.6221605 106.4463430  58.4872997
 124.8779992 107.6179978  58.2440014 124.6089992 107.7989978  59.1440014
 124.6709992 106.6929978  58.1120014 124.8131191 107.5177119  58.3495524
 120.6749992 104.5439978  60.8140014 120.2149992 104.0599978  61.4990014
 120.9299992 103.8749978  60.1780014 120.6464856 104.3873669  60.8218397
 121.7459992 102.7869978  59.0760014 121.5649992 102.6319978  58.1490014
 122.6959992 102.8949978  59.1210014 121.8496566 102.7803669  58.9550929
 131.1359992 105.1409978  58.5220014 130.8619992 104.7169978  57.7090014
 131.1749992 106.0729978  58.3050014 131.1037716 105.2088827  58.3814286
 129.8529992  98.6119978  58.3800014 130.4639992  98.2409978  59.0170014
 129.0159992  98.1909978  58.5760014 129.8234947  98.5042756  58.4937252
 131.9659992  97.4979978  59.9220014 132.3779992  96.7769978  59.4470014
 132.6469992  98.1669978  59.9800014 132.1145536  97.4897766  59.8648024
 115.5229992  95.5459978  61.0280014 115.9619992  96.1569978  60.4360014
 114.8889992  96.0839978  61.5020014 115.4973859  95.7024064  61.0110305
 128.1759992  95.7299978  62.3790014 127.4729992  96.3449978  62.1690014
 127.7309992  94.8929978  62.5100014 128.0196550  95.7009668  62.3679837
 122.4099992  97.7549978  61.9270014 122.5879992  97.1079978  62.6100014
 122.3559992  98.5889978  62.3940014 122.4270678  97.7791604  62.0836301
 124.2879992 112.7029978  60.3230014 125.1539992 113.0699978  60.1450014
 124.0419992 112.2639978  59.5090014 124.3732097 112.6938525  60.1886019
 117.2419992 112.4139978  58.9500014 116.9739992 112.6999978  59.8240014
 118.0129992 111.8679978  59.1030014 117.3095926 112.3792779  59.0901205
 143.3959992 102.6049978  59.6730014 144.0969992 102.6279978  60.3250014
 143.6979992 101.9769978  59.0170014 143.5328202 102.5232212  59.6735609
 142.6689992  98.4279978  59.5720014 142.4149992  98.4469978  60.4940014
 142.4119992  97.5569978  59.2700014 142.5994508  98.3128280  59.6574803
 139.5509992  98.8739978  58.6730014 139.1199992  98.4289978  59.4020014
 138.8329992  99.2449978  58.1600014 139.3949176  98.8632052  58.7034930
 138.1689992 101.6509978  60.0550014 137.6269992 101.2719978  59.3640014
 139.0029992 101.8459978  59.6270014 138.2074390 101.6254079  59.9024392
 145.4019992  99.0309978  60.1900014 144.4639992  99.1419978  60.0390014
 145.6999992  99.8869978  60.4970014 145.3136318  99.1620158  60.2108145
 143.6299992 107.6749978  61.0160014 143.3349992 108.5019978  61.3980014
 142.9269992 107.0559978  61.2130014 143.4946379 107.7044171  61.0948654
 134.7589992 103.8919978  59.7520014 135.3749992 104.5189978  60.1320014
 133.8969992 104.2079978  60.0240014 134.7267678 104.0204412  59.8407209
 140.7839992 108.9819978  58.2780014 141.0229992 108.2329978  57.7310014
 140.5149992 108.5939978  59.1110014 140.7803233 108.8271853  58.3157809
 139.7209992 108.5519978  60.7340014 139.8679992 108.0319978  61.5240014
 139.7179992 109.4589978  61.0410014 139.7407102 108.6033953  60.8835925
 142.4589992 110.2489978  61.4840014 141.6419992 110.7459978  61.5360014
 142.9879992 110.7249978  60.8430014 142.4188125 110.3811989  61.4045306
 139.7969992 111.2929978  61.4650014 139.9579992 112.0929978  60.9650014
 139.5999992 111.5999978  62.3500014 139.7923906 111.4438678  61.5162333
 136.7899992 108.4179978  60.1410014 137.3819992 109.1179978  60.4180014
 137.2489992 107.9849978  59.4220014 136.9331652 108.4552675  60.0816533
 135.1059992 101.0829978  59.2570014 135.0609992 102.0219978  59.4360014
 134.2179992 100.8469978  58.9880014 134.9798166 101.1796687  59.2451524
 142.8219992 110.8449978  58.4170014 142.1779992 110.2139978  58.7380014
 143.5839992 110.3139978  58.1850014 142.8368058 110.6867902  58.4296038
 138.3809992 106.5709978  58.5080014 138.4459992 105.7769978  59.0380014
 139.0339992 106.4529978  57.8180014 138.4781605 106.4463430  58.4872997
 143.7339992 107.6179978  58.2440014 143.4649992 107.7989978  59.1440014
 143.5269992 106.6929978  58.1120014 143.6691191 107.5177119  58.3495524
 140.6019992 102.7869978  59.0760014 140.4209992 102.6319978  58.1490014
 141.5519992 102.8949978  59.1210014 140.7056566 102.7803669  58.9550929
 140.4989992 113.4769978  60.0770014 141.4319992 113.6349978  60.2210014
 140.2349992 114.1529978  59.4520014 140.5909911 113.5899373  60.0122722
 134.0669992 108.1139978  59.5600014 134.9809992 108.1929978  59.8330014
 134.0749992 107.4269978  58.8940014 134.1930655 108.0319205  59.5072917
 134.3789992  95.5459978  61.0280014 134.8179992  96.1569978  60.4360014
 133.7449992  96.0839978  61.5020014 134.3533859  95.7024064  61.0110305
 136.2399992  97.4619978  59.4700014 136.7309992  96.8319978  58.9430014
 136.8629992  97.7579978  60.1330014 136.3915304  97.4157376  59.4874940
 143.1439992 112.7029978  60.3230014 144.0099992 113.0699978  60.1450014
 142.8979992 112.2639978  59.5090014 143.2292097 112.6938525  60.1886019
 136.0979992 112.4139978  58.9500014 135.8299992 112.6999978  59.8240014
 136.8689992 111.8679978  59.1030014 136.1655926 112.3792779  59.0901205
   2.1549992 126.1719978  62.5380014   1.8829992 126.4009978  61.6500014
   2.1999992 127.0089978  62.9990014   2.1238097 126.3166163  62.4786683
  11.3499992 123.0039978  62.6350014  10.6389992 123.5389978  62.2830014
  12.0409992 123.0589978  61.9750014  11.3460751 123.0846777  62.4975858
  11.4039992 121.4609978  59.6730014  12.1049992 121.4839978  60.3250014
  11.7059992 120.8329978  59.0170014  11.5408202 121.3792212  59.6735609
  18.5149992 128.4919978  59.4610014  18.5879992 129.4309978  59.6310014
  19.4199992 128.1869978  59.4050014  18.6474170 128.5793282  59.4767063
  13.9269992 131.2229978  60.1240014  14.3019992 130.4789978  59.6530014
  13.9319992 130.9529978  61.0420014  13.9790098 131.0846392  60.1836629
  10.6769992 117.2839978  59.5720014  10.4229992 117.3029978  60.4940014
  10.4199992 116.4129978  59.2700014  10.6074508 117.1688280  59.6574803
   7.5589992 117.7299978  58.6730014   7.1279992 117.2849978  59.4020014
   6.8409992 118.1009978  58.1600014   7.4029176 117.7192051  58.7034930
   6.1769992 120.5069978  60.0550014   5.6349992 120.1279978  59.3640014
   7.0109992 120.7019978  59.6270014   6.2154390 120.4814079  59.9024392
  13.4099992 117.8869978  60.1900014  12.4719992 117.9979978  60.0390014
  13.7079992 118.7429978  60.4970014  13.3216318 118.0180158  60.2108145
  11.6379992 126.5309978  61.0160014  11.3429992 127.3579978  61.3980014
  10.9349992 125.9119978  61.2130014  11.5026379 126.5604171  61.0948654
  19.0139992 119.9629978  61.5460014  18.4589992 119.5669978  60.8730014
  19.1139992 120.8739978  61.2680014  18.9516816 120.0319505  61.4165033
   2.7669992 122.7479978  59.7520014   3.3829992 123.3749978  60.1320014
   1.9049992 123.0639978  60.0240014   2.7347678 122.8764412  59.8407209
  14.7009992 126.7259978  59.8310014  15.0549992 126.3459978  60.6350014
  13.7529992 126.6319978  59.9180014  14.6212298 126.6612452  59.9528687
  19.2049992 131.2049978  60.0320014  19.9489992 131.7909978  59.8920014
  18.5109992 131.7739978  60.3650014  19.2129809 131.3620818  60.0578590
   8.7919992 127.8379978  58.2780014   9.0309992 127.0889978  57.7310014
   8.5229992 127.4499978  59.1110014   8.7883233 127.6831853  58.3157809
  12.7979992 116.9749978  62.6210014  13.0179992 117.4459978  61.8170014
  13.3569992 117.3689978  63.2910014  12.9036731 117.0927287  62.6015033
  10.4669992 129.1049978  61.4840014   9.6499992 129.6019978  61.5360014
  10.9959992 129.5809978  60.8430014  10.4268125 129.2371989  61.4045306
   7.8049992 130.1489978  61.4650014   7.9659992 130.9489978  60.9650014
   7.6079992 130.4559978  62.3500014   7.8003906 130.2998678  61.5162333
   6.5399992 116.8469978  61.0810014   6.4559992 117.7349978  61.4280014
   7.4299992 116.5819978  61.3130014   6.6488163 116.9327179  61.1598596
   4.7979992 127.2739978  60.1410014   5.3899992 127.9739978  60.4180014
   5.2569992 126.8409978  59.4220014   4.9411652 127.3112675  60.0816533
   3.1139992 119.9389978  59.2570014   3.0689992 120.8779978  59.4360014
   2.2259992 119.7029978  58.9880014   2.9878166 120.0356687  59.2451524
  10.8299992 129.7009978  58.4170014  10.1859992 129.0699978  58.7380014
  11.5919992 129.1699978  58.1850014  10.8448058 129.5427902  58.4296038
  15.4349992 129.5179978  58.6500014  15.7179992 128.7229978  59.1030014
  16.1739992 129.7509978  58.0890014  15.5737096 129.4407049  58.6361104
   6.3889992 125.4269978  58.5080014   6.4539992 124.6329978  59.0380014
   7.0419992 125.3089978  57.8180014   6.4861605 125.3023430  58.4872997
  11.7419992 126.4739978  58.2440014  11.4729992 126.6549978  59.1440014
  11.5349992 125.5489978  58.1120014  11.6771191 126.3737119  58.3495524
   8.6099992 121.6429978  59.0760014   8.4289992 121.4879978  58.1490014
   9.5599992 121.7509978  59.1210014   8.7136566 121.6363669  58.9550929
  17.9999992 123.9969978  58.5220014  17.7259992 123.5729978  57.7090014
  18.0389992 124.9289978  58.3050014  17.9677716 124.0648827  58.3814286
   8.5069992 132.3329978  60.0770014   9.4399992 132.4909978  60.2210014
   8.2429992 133.0089978  59.4520014   8.5989911 132.4459373  60.0122722
   2.0749992 126.9699978  59.5600014   2.9889992 127.0489978  59.8330014
   2.0829992 126.2829978  58.8940014   2.2010655 126.8879205  59.5072917
  16.7169992 117.4679978  58.3800014  17.3279992 117.0969978  59.0170014
  15.8799992 117.0469978  58.5760014  16.6874947 117.3602756  58.4937252
  18.8299992 116.3539978  59.9220014  19.2419992 115.6329978  59.4470014
  19.5109992 117.0229978  59.9800014  18.9785536 116.3457766  59.8648024
   2.3869992 114.4019978  61.0280014   2.8259992 115.0129978  60.4360014
   1.7529992 114.9399978  61.5020014   2.3613859 114.5584064  61.0110305
   2.2879992 130.3499978  61.9250014   1.6029992 130.3119978  61.2580014
   2.2919992 131.2629978  62.2130014   2.1947621 130.4681924  61.8726126
   4.2479992 116.3179978  59.4700014   4.7389992 115.6879978  58.9430014
   4.8709992 116.6139978  60.1330014   4.3995304 116.2717376  59.4874940
  11.1519992 131.5589978  60.3230014  12.0179992 131.9259978  60.1450014
  10.9059992 131.1199978  59.5090014  11.2372097 131.5498525  60.1886019
   4.1059992 131.2699978  58.9500014   3.8379992 131.5559978  59.8240014
   4.8769992 130.7239978  59.1030014   4.1735926 131.2352779  59.0901205
  36.1819992 114.1259978  61.0850014  35.2819992 114.2649978  61.3800014
  36.4339992 114.9569978  60.6830014  36.0928683 114.2574055  61.0710232
  37.3709992 128.4919978  59.4610014  37.4439992 129.4309978  59.6310014
  38.2759992 128.1869978  59.4050014  37.5034170 128.5793282  59.4767063
  33.9599992 123.4079978  58.9010014  34.0019992 123.1859978  57.9710014
  34.8089992 123.8069978  59.0910014  34.0805253 123.4315498  58.7993822
  29.5329992 117.2839978  59.5720014  29.2789992 117.3029978  60.4940014
  29.2759992 116.4129978  59.2700014  29.4634508 117.1688280  59.6574803
  26.4149992 117.7299978  58.6730014  25.9839992 117.2849978  59.4020014
  25.6969992 118.1009978  58.1600014  26.2589176 117.7192051  58.7034930
  25.0329992 120.5069978  60.0550014  24.4909992 120.1279978  59.3640014
  25.8669992 120.7019978  59.6270014  25.0714390 120.4814079  59.9024392
  32.2659992 117.8869978  60.1900014  31.3279992 117.9979978  60.0390014
  32.5639992 118.7429978  60.4970014  32.1776318 118.0180158  60.2108145
  32.9849992 119.7539978  61.8510014  33.8769992 119.6159978  62.1700014
  33.0409992 120.5449978  61.3140014  33.1147325 119.8419918  61.8221217
  36.1649992 128.7489978  62.0110014  35.7919992 127.9239978  62.3200014
  36.4419992 128.5659978  61.1130014  36.1513463 128.6112569  61.9319525
  21.6229992 122.7479978  59.7520014  22.2389992 123.3749978  60.1320014
  20.7609992 123.0639978  60.0240014  21.5907678 122.8764412  59.8407209
  33.5569992 126.7259978  59.8310014  33.9109992 126.3459978  60.6350014
  32.6089992 126.6319978  59.9180014  33.4772298 126.6612452  59.9528687
  34.4229992 125.3979978  62.0580014  34.1459992 124.6699978  62.6140014
  35.3509992 125.5169978  62.2630014  34.5104499 125.3144213  62.1618044
  27.6479992 127.8379978  58.2780014  27.8869992 127.0889978  57.7310014
  27.3789992 127.4499978  59.1110014  27.6443233 127.6831853  58.3157809
  21.9699992 119.9389978  59.2570014  21.9249992 120.8779978  59.4360014
  21.0819992 119.7029978  58.9880014  21.8438166 120.0356687  59.2451524
  29.6859992 129.7009978  58.4170014  29.0419992 129.0699978  58.7380014
  30.4479992 129.1699978  58.1850014  29.7008058 129.5427902  58.4296038
  34.2909992 129.5179978  58.6500014  34.5739992 128.7229978  59.1030014
  35.0299992 129.7509978  58.0890014  34.4297096 129.4407049  58.6361104
  25.2449992 125.4269978  58.5080014  25.3099992 124.6329978  59.0380014
  25.8979992 125.3089978  57.8180014  25.3421605 125.3023430  58.4872997
  30.5979992 126.4739978  58.2440014  30.3289992 126.6549978  59.1440014
  30.3909992 125.5489978  58.1120014  30.5331191 126.3737119  58.3495524
  26.3949992 123.3999978  60.8140014  25.9349992 122.9159978  61.4990014
  26.6499992 122.7309978  60.1780014  26.3664856 123.2433669  60.8218397
  27.4659992 121.6429978  59.0760014  27.2849992 121.4879978  58.1490014
  28.4159992 121.7509978  59.1210014  27.5696566 121.6363669  58.9550929
  36.8559992 123.9969978  58.5220014  36.5819992 123.5729978  57.7090014
  36.8949992 124.9289978  58.3050014  36.8237716 124.0648827  58.3814286
  20.9309992 126.9699978  59.5600014  21.8449992 127.0489978  59.8330014
  20.9389992 126.2829978  58.8940014  21.0570655 126.8879205  59.5072917
  37.3139992 124.8659978  62.4970014  38.1639992 125.2869978  62.6240014
  37.3189992 124.1259978  63.1040014  37.4311143 124.8236094  62.5964750
  37.9769992 122.8209978  60.7110014  37.4549992 123.1769978  59.9930014
  37.9439992 123.4959978  61.3900014  37.9010129 122.9609598  60.7043355
  36.3259992 120.0599978  59.2620014  36.4219992 120.7269978  58.5820014
  36.1859992 119.2449978  58.7810014  36.3202040 120.0410671  59.1038378
  35.5729992 117.4679978  58.3800014  36.1839992 117.0969978  59.0170014
  34.7359992 117.0469978  58.5760014  35.5434947 117.3602756  58.4937252
  37.6859992 116.3539978  59.9220014  38.0979992 115.6329978  59.4470014
  38.3669992 117.0229978  59.9800014  37.8345536 116.3457766  59.8648024
  23.1039992 116.3179978  59.4700014  23.5949992 115.6879978  58.9430014
  23.7269992 116.6139978  60.1330014  23.2555304 116.2717376  59.4874940
  22.9619992 131.2699978  58.9500014  22.6939992 131.5559978  59.8240014
  23.7329992 130.7239978  59.1030014  23.0295926 131.2352779  59.0901205
  49.1159992 121.4609978  59.6730014  49.8169992 121.4839978  60.3250014
  49.4179992 120.8329978  59.0170014  49.2528202 121.3792212  59.6735609
  55.0379992 114.1259978  61.0850014  54.1379992 114.2649978  61.3800014
  55.2899992 114.9569978  60.6830014  54.9488683 114.2574055  61.0710232
  56.2269992 128.4919978  59.4610014  56.2999992 129.4309978  59.6310014
  57.1319992 128.1869978  59.4050014  56.3594170 128.5793282  59.4767063
  51.6389992 131.2229978  60.1240014  52.0139992 130.4789978  59.6530014
  51.6439992 130.9529978  61.0420014  51.6910098 131.0846392  60.1836629
  52.8159992 123.4079978  58.9010014  52.8579992 123.1859978  57.9710014
  53.6649992 123.8069978  59.0910014  52.9365253 123.4315498  58.7993822
  48.3889992 117.2839978  59.5720014  48.1349992 117.3029978  60.4940014
  48.1319992 116.4129978  59.2700014  48.3194508 117.1688280  59.6574803
  45.2709992 117.7299978  58.6730014  44.8399992 117.2849978  59.4020014
  44.5529992 118.1009978  58.1600014  45.1149176 117.7192051  58.7034930
  45.2149992 119.3129978  62.4890014  46.1469992 119.4419978  62.6670014
  44.9999992 119.9819978  61.8390014  45.3134472 119.4210806  62.4254891
  43.8889992 120.5069978  60.0550014  43.3469992 120.1279978  59.3640014
  44.7229992 120.7019978  59.6270014  43.9274390 120.4814079  59.9024392
  51.1219992 117.8869978  60.1900014  50.1839992 117.9979978  60.0390014
  51.4199992 118.7429978  60.4970014  51.0336318 118.0180158  60.2108145
  51.8409992 119.7539978  61.8510014  52.7329992 119.6159978  62.1700014
  51.8969992 120.5449978  61.3140014  51.9707325 119.8419918  61.8221217
  40.4789992 122.7479978  59.7520014  41.0949992 123.3749978  60.1320014
  39.6169992 123.0639978  60.0240014  40.4467678 122.8764412  59.8407209
  52.4129992 126.7259978  59.8310014  52.7669992 126.3459978  60.6350014
  51.4649992 126.6319978  59.9180014  52.3332298 126.6612452  59.9528687
  46.5039992 127.8379978  58.2780014  46.7429992 127.0889978  57.7310014
  46.2349992 127.4499978  59.1110014  46.5003233 127.6831853  58.3157809
  41.8939992 124.6599978  61.2450014  41.2079992 125.0129978  61.8120014
  42.4169992 125.4229978  60.9980014  41.8708402 124.8113901  61.2891801
  48.1789992 129.1049978  61.4840014  47.3619992 129.6019978  61.5360014
  48.7079992 129.5809978  60.8430014  48.1388125 129.2371989  61.4045306
  45.5169992 130.1489978  61.4650014  45.6779992 130.9489978  60.9650014
  45.3199992 130.4559978  62.3500014  45.5123906 130.2998678  61.5162333
  44.2519992 116.8469978  61.0810014  44.1679992 117.7349978  61.4280014
  45.1419992 116.5819978  61.3130014  44.3608163 116.9327179  61.1598596
  40.8259992 119.9389978  59.2570014  40.7809992 120.8779978  59.4360014
  39.9379992 119.7029978  58.9880014  40.6998166 120.0356687  59.2451524
  48.5419992 129.7009978  58.4170014  47.8979992 129.0699978  58.7380014
  49.3039992 129.1699978  58.1850014  48.5568058 129.5427902  58.4296038
  53.1469992 129.5179978  58.6500014  53.4299992 128.7229978  59.1030014
  53.8859992 129.7509978  58.0890014  53.2857096 129.4407049  58.6361104
  44.1009992 125.4269978  58.5080014  44.1659992 124.6329978  59.0380014
  44.7539992 125.3089978  57.8180014  44.1981605 125.3023430  58.4872997
  45.2509992 123.3999978  60.8140014  44.7909992 122.9159978  61.4990014
  45.5059992 122.7309978  60.1780014  45.2224856 123.2433669  60.8218397
  46.3219992 121.6429978  59.0760014  46.1409992 121.4879978  58.1490014
  47.2719992 121.7509978  59.1210014  46.4256566 121.6363669  58.9550929
  55.7119992 123.9969978  58.5220014  55.4379992 123.5729978  57.7090014
  55.7509992 124.9289978  58.3050014  55.6797716 124.0648827  58.3814286
  46.2189992 132.3329978  60.0770014  47.1519992 132.4909978  60.2210014
  45.9549992 133.0089978  59.4520014  46.3109911 132.4459373  60.0122722
  56.1699992 124.8659978  62.4970014  57.0199992 125.2869978  62.6240014
  56.1749992 124.1259978  63.1040014  56.2871143 124.8236094  62.5964750
  56.8329992 122.8209978  60.7110014  56.3109992 123.1769978  59.9930014
  56.7999992 123.4959978  61.3900014  56.7570129 122.9609598  60.7043355
  55.1819992 120.0599978  59.2620014  55.2779992 120.7269978  58.5820014
  55.0419992 119.2449978  58.7810014  55.1762040 120.0410671  59.1038378
  54.4289992 117.4679978  58.3800014  55.0399992 117.0969978  59.0170014
  53.5919992 117.0469978  58.5760014  54.3994947 117.3602755  58.4937252
  56.5419992 116.3539978  59.9220014  56.9539992 115.6329978  59.4470014
  57.2229992 117.0229978  59.9800014  56.6905536 116.3457766  59.8648024
  40.0989992 114.4019978  61.0280014  40.5379992 115.0129978  60.4360014
  39.4649992 114.9399978  61.5020014  40.0733859 114.5584064  61.0110305
  41.9599992 116.3179978  59.4700014  42.4509992 115.6879978  58.9430014
  42.5829992 116.6139978  60.1330014  42.1115304 116.2717376  59.4874940
  48.8639992 131.5589978  60.3230014  49.7299992 131.9259978  60.1450014
  48.6179992 131.1199978  59.5090014  48.9492097 131.5498525  60.1886019
  41.8179992 131.2699978  58.9500014  41.5499992 131.5559978  59.8240014
  42.5889992 130.7239978  59.1030014  41.8855926 131.2352779  59.0901205
  58.7229992 126.1719978  62.5380014  58.4509992 126.4009978  61.6500014
  58.7679992 127.0089978  62.9990014  58.6918097 126.3166163  62.4786683
  67.9719992 121.4609978  59.6730014  68.6729992 121.4839978  60.3250014
  68.2739992 120.8329978  59.0170014  68.1088202 121.3792212  59.6735609
  75.0829992 128.4919978  59.4610014  75.1559992 129.4309978  59.6310014
  75.9879992 128.1869978  59.4050014  75.2154170 128.5793282  59.4767063
  71.6719992 123.4079978  58.9010014  71.7139992 123.1859978  57.9710014
  72.5209992 123.8069978  59.0910014  71.7925253 123.4315498  58.7993822
  67.2449992 117.2839978  59.5720014  66.9909992 117.3029978  60.4940014
  66.9879992 116.4129978  59.2700014  67.1754508 117.1688280  59.6574803
  64.1269992 117.7299978  58.6730014  63.6959992 117.2849978  59.4020014
  63.4089992 118.1009978  58.1600014  63.9709176 117.7192051  58.7034930
  58.6439992 118.2179978  61.1490014  59.1179992 118.8089978  60.5640014
  57.9259992 118.7479978  61.4960014  58.6118640 118.3705511  61.1157969
  69.9779992 117.8869978  60.1900014  69.0399992 117.9979978  60.0390014
  70.2759992 118.7429978  60.4970014  69.8896318 118.0180158  60.2108145
  68.2059992 126.5309978  61.0160014  67.9109992 127.3579978  61.3980014
  67.5029992 125.9119978  61.2130014  68.0706379 126.5604171  61.0948654
  59.3349992 122.7479978  59.7520014  59.9509992 123.3749978  60.1320014
  58.4729992 123.0639978  60.0240014  59.3027678 122.8764412  59.8407209
  71.2689992 126.7259978  59.8310014  71.6229992 126.3459978  60.6350014
  70.3209992 126.6319978  59.9180014  71.1892298 126.6612452  59.9528687
  75.7729992 131.2049978  60.0320014  76.5169992 131.7909978  59.8920014
  75.0789992 131.7739978  60.3650014  75.7809809 131.3620818  60.0578590
  65.3599992 127.8379978  58.2780014  65.5989992 127.0889978  57.7310014
  65.0909992 127.4499978  59.1110014  65.3563233 127.6831853  58.3157809
  64.2969992 127.4079978  60.7340014  64.4439992 126.8879978  61.5240014
  64.2939992 128.3149978  61.0410014  64.3167102 127.4593953  60.8835925
  69.3659992 116.9749978  62.6210014  69.5859992 117.4459978  61.8170014
  69.9249992 117.3689978  63.2910014  69.4716731 117.0927287  62.6015033
  67.0349992 129.1049978  61.4840014  66.2179992 129.6019978  61.5360014
  67.5639992 129.5809978  60.8430014  66.9948125 129.2371989  61.4045306
  64.3729992 130.1489978  61.4650014  64.5339992 130.9489978  60.9650014
  64.1759992 130.4559978  62.3500014  64.3683906 130.2998678  61.5162333
  59.6819992 119.9389978  59.2570014  59.6369992 120.8779978  59.4360014
  58.7939992 119.7029978  58.9880014  59.5558166 120.0356687  59.2451524
  67.3979992 129.7009978  58.4170014  66.7539992 129.0699978  58.7380014
  68.1599992 129.1699978  58.1850014  67.4128058 129.5427902  58.4296038
  72.0029992 129.5179978  58.6500014  72.2859992 128.7229978  59.1030014
  72.7419992 129.7509978  58.0890014  72.1417096 129.4407049  58.6361104
  62.9569992 125.4269978  58.5080014  63.0219992 124.6329978  59.0380014
  63.6099992 125.3089978  57.8180014  63.0541605 125.3023430  58.4872997
  68.3099992 126.4739978  58.2440014  68.0409992 126.6549978  59.1440014
  68.1029992 125.5489978  58.1120014  68.2451191 126.3737119  58.3495524
  65.1779992 121.6429978  59.0760014  64.9969992 121.4879978  58.1490014
  66.1279992 121.7509978  59.1210014  65.2816566 121.6363669  58.9550929
  74.5679992 123.9969978  58.5220014  74.2939992 123.5729978  57.7090014
  74.6069992 124.9289978  58.3050014  74.5357716 124.0648827  58.3814286
  65.0749992 132.3329978  60.0770014  66.0079992 132.4909978  60.2210014
  64.8109992 133.0089978  59.4520014  65.1669911 132.4459373  60.0122722
  58.6429992 126.9699978  59.5600014  59.5569992 127.0489978  59.8330014
  58.6509992 126.2829978  58.8940014  58.7690655 126.8879205  59.5072917
  75.6889992 122.8209978  60.7110014  75.1669992 123.1769978  59.9930014
  75.6559992 123.4959978  61.3900014  75.6130129 122.9609598  60.7043355
  74.0379992 120.0599978  59.2620014  74.1339992 120.7269978  58.5820014
  73.8979992 119.2449978  58.7810014  74.0322040 120.0410671  59.1038378
  73.2849992 117.4679978  58.3800014  73.8959992 117.0969978  59.0170014
  72.4479992 117.0469978  58.5760014  73.2554947 117.3602756  58.4937252
  75.3979992 116.3539978  59.9220014  75.8099992 115.6329978  59.4470014
  76.0789992 117.0229978  59.9800014  75.5465536 116.3457766  59.8648024
  58.9549992 114.4019978  61.0280014  59.3939992 115.0129978  60.4360014
  58.3209992 114.9399978  61.5020014  58.9293859 114.5584064  61.0110305
  58.8559992 130.3499978  61.9250014  58.1709992 130.3119978  61.2580014
  58.8599992 131.2629978  62.2130014  58.7627621 130.4681924  61.8726126
  60.8159992 116.3179978  59.4700014  61.3069992 115.6879978  58.9430014
  61.4389992 116.6139978  60.1330014  60.9675304 116.2717376  59.4874940
  67.7199992 131.5589978  60.3230014  68.5859992 131.9259978  60.1450014
  67.4739992 131.1199978  59.5090014  67.8052097 131.5498525  60.1886019
  60.6739992 131.2699978  58.9500014  60.4059992 131.5559978  59.8240014
  61.4449992 130.7239978  59.1030014  60.7415926 131.2352779  59.0901205
  92.7499992 114.1259978  61.0850014  91.8499992 114.2649978  61.3800014
  93.0019992 114.9569978  60.6830014  92.6608683 114.2574055  61.0710232
  89.3509992 131.2229978  60.1240014  89.7259992 130.4789978  59.6530014
  89.3559992 130.9529978  61.0420014  89.4030098 131.0846392  60.1836629
  89.0199992 131.1489978  62.8730014  88.0849992 131.2489978  63.0520014
  89.2999992 130.4389978  63.4520014  88.9299471 131.0667933  62.9756695
  90.5279992 123.4079978  58.9010014  90.5699992 123.1859978  57.9710014
  91.3769992 123.8069978  59.0910014  90.6485253 123.4315498  58.7993822
  86.1009992 117.2839978  59.5720014  85.8469992 117.3029978  60.4940014
  85.8439992 116.4129978  59.2700014  86.0314508 117.1688280  59.6574803
  82.9829992 117.7299978  58.6730014  82.5519992 117.2849978  59.4020014
  82.2649992 118.1009978  58.1600014  82.8269176 117.7192051  58.7034930
  82.9269992 119.3129978  62.4890014  83.8589992 119.4419978  62.6670014
  82.7119992 119.9819978  61.8390014  83.0254472 119.4210806  62.4254891
  81.6009992 120.5069978  60.0550014  81.0589992 120.1279978  59.3640014
  82.4349992 120.7019978  59.6270014  81.6394390 120.4814079  59.9024392
  88.8339992 117.8869978  60.1900014  87.8959992 117.9979978  60.0390014
  89.1319992 118.7429978  60.4970014  88.7456318 118.0180158  60.2108145
  87.0619992 126.5309978  61.0160014  86.7669992 127.3579978  61.3980014
  86.3589992 125.9119978  61.2130014  86.9266379 126.5604171  61.0948654
  78.1909992 122.7479978  59.7520014  78.8069992 123.3749978  60.1320014
  77.3289992 123.0639978  60.0240014  78.1587678 122.8764412  59.8407209
  90.1249992 126.7259978  59.8310014  90.4789992 126.3459978  60.6350014
  89.1769992 126.6319978  59.9180014  90.0452298 126.6612452  59.9528687
  94.6289992 131.2049978  60.0320014  95.3729992 131.7909978  59.8920014
  93.9349992 131.7739978  60.3650014  94.6369809 131.3620818  60.0578590
  84.2159992 127.8379978  58.2780014  84.4549992 127.0889978  57.7310014
  83.9469992 127.4499978  59.1110014  84.2123233 127.6831853  58.3157809
  83.1529992 127.4079978  60.7340014  83.2999992 126.8879978  61.5240014
  83.1499992 128.3149978  61.0410014  83.1727102 127.4593953  60.8835925
  80.2219992 127.2739978  60.1410014  80.8139992 127.9739978  60.4180014
  80.6809992 126.8409978  59.4220014  80.3651652 127.3112675  60.0816533
  78.5379992 119.9389978  59.2570014  78.4929992 120.8779978  59.4360014
  77.6499992 119.7029978  58.9880014  78.4118166 120.0356687  59.2451524
  86.2539992 129.7009978  58.4170014  85.6099992 129.0699978  58.7380014
  87.0159992 129.1699978  58.1850014  86.2688058 129.5427902  58.4296038
  90.8589992 129.5179978  58.6500014  91.1419992 128.7229978  59.1030014
  91.5979992 129.7509978  58.0890014  90.9977096 129.4407049  58.6361104
  81.8129992 125.4269978  58.5080014  81.8779992 124.6329978  59.0380014
  82.4659992 125.3089978  57.8180014  81.9101605 125.3023430  58.4872997
  87.1659992 126.4739978  58.2440014  86.8969992 126.6549978  59.1440014
  86.9589992 125.5489978  58.1120014  87.1011191 126.3737119  58.3495524
  84.0339992 121.6429978  59.0760014  83.8529992 121.4879978  58.1490014
  84.9839992 121.7509978  59.1210014  84.1376566 121.6363669  58.9550929
  93.4239992 123.9969978  58.5220014  93.1499992 123.5729978  57.7090014
  93.4629992 124.9289978  58.3050014  93.3917716 124.0648827  58.3814286
  77.4989992 126.9699978  59.5600014  78.4129992 127.0489978  59.8330014
  77.5069992 126.2829978  58.8940014  77.6250655 126.8879205  59.5072917
  94.5449992 122.8209978  60.7110014  94.0229992 123.1769978  59.9930014
  94.5119992 123.4959978  61.3900014  94.4690129 122.9609598  60.7043355
  92.8939992 120.0599978  59.2620014  92.9899992 120.7269978  58.5820014
  92.7539992 119.2449978  58.7810014  92.8882040 120.0410671  59.1038378
  92.1409992 117.4679978  58.3800014  92.7519992 117.0969978  59.0170014
  91.3039992 117.0469978  58.5760014  92.1114947 117.3602756  58.4937252
  94.2539992 116.3539978  59.9220014  94.6659992 115.6329978  59.4470014
  94.9349992 117.0229978  59.9800014  94.4025536 116.3457766  59.8648024
  77.8109992 114.4019978  61.0280014  78.2499992 115.0129978  60.4360014
  77.1769992 114.9399978  61.5020014  77.7853859 114.5584064  61.0110305
  79.6719992 116.3179978  59.4700014  80.1629992 115.6879978  58.9430014
  80.2949992 116.6139978  60.1330014  79.8235304 116.2717376  59.4874940
  79.5299992 131.2699978  58.9500014  79.2619992 131.5559978  59.8240014
  80.3009992 130.7239978  59.1030014  79.5975926 131.2352779  59.0901205
 111.6059992 114.1259978  61.0850014 110.7059992 114.2649978  61.3800014
 111.8579992 114.9569978  60.6830014 111.5168683 114.2574055  61.0710232
 112.7949992 128.4919978  59.4610014 112.8679992 129.4309978  59.6310014
 113.6999992 128.1869978  59.4050014 112.9274170 128.5793282  59.4767063
 108.2069992 131.2229978  60.1240014 108.5819992 130.4789978  59.6530014
 108.2119992 130.9529978  61.0420014 108.2590098 131.0846392  60.1836629
 109.3839992 123.4079978  58.9010014 109.4259992 123.1859978  57.9710014
 110.2329992 123.8069978  59.0910014 109.5045253 123.4315498  58.7993822
 104.9569992 117.2839978  59.5720014 104.7029992 117.3029978  60.4940014
 104.6999992 116.4129978  59.2700014 104.8874508 117.1688280  59.6574803
 101.8389992 117.7299978  58.6730014 101.4079992 117.2849978  59.4020014
 101.1209992 118.1009978  58.1600014 101.6829176 117.7192051  58.7034930
  96.3559992 118.2179978  61.1490014  96.8299992 118.8089978  60.5640014
  95.6379992 118.7479978  61.4960014  96.3238640 118.3705511  61.1157969
 100.4569992 120.5069978  60.0550014  99.9149992 120.1279978  59.3640014
 101.2909992 120.7019978  59.6270014 100.4954390 120.4814079  59.9024392
 107.6899992 117.8869978  60.1900014 106.7519992 117.9979978  60.0390014
 107.9879992 118.7429978  60.4970014 107.6016318 118.0180158  60.2108145
 113.2939992 119.9629978  61.5460014 112.7389992 119.5669978  60.8730014
 113.3939992 120.8739978  61.2680014 113.2316816 120.0319505  61.4165033
 111.5889992 128.7489978  62.0110014 111.2159992 127.9239978  62.3200014
 111.8659992 128.5659978  61.1130014 111.5753463 128.6112569  61.9319525
  97.0469992 122.7479978  59.7520014  97.6629992 123.3749978  60.1320014
  96.1849992 123.0639978  60.0240014  97.0147678 122.8764412  59.8407209
 113.4849992 131.2049978  60.0320014 114.2289992 131.7909978  59.8920014
 112.7909992 131.7739978  60.3650014 113.4929809 131.3620818  60.0578590
 103.0719992 127.8379978  58.2780014 103.3109992 127.0889978  57.7310014
 102.8029992 127.4499978  59.1110014 103.0683233 127.6831853  58.3157809
  98.4619992 124.6599978  61.2450014  97.7759992 125.0129978  61.8120014
  98.9849992 125.4229978  60.9980014  98.4388402 124.8113901  61.2891801
 107.0779992 116.9749978  62.6210014 107.2979992 117.4459978  61.8170014
 107.6369992 117.3689978  63.2910014 107.1836731 117.0927287  62.6015033
 102.0849992 130.1489978  61.4650014 102.2459992 130.9489978  60.9650014
 101.8879992 130.4559978  62.3500014 102.0803906 130.2998678  61.5162333
  99.0779992 127.2739978  60.1410014  99.6699992 127.9739978  60.4180014
  99.5369992 126.8409978  59.4220014  99.2211652 127.3112675  60.0816533
  97.3939992 119.9389978  59.2570014  97.3489992 120.8779978  59.4360014
  96.5059992 119.7029978  58.9880014  97.2678166 120.0356687  59.2451524
 105.1099992 129.7009978  58.4170014 104.4659992 129.0699978  58.7380014
 105.8719992 129.1699978  58.1850014 105.1248058 129.5427902  58.4296038
 109.7149992 129.5179978  58.6500014 109.9979992 128.7229978  59.1030014
 110.4539992 129.7509978  58.0890014 109.8537096 129.4407049  58.6361104
 100.6689992 125.4269978  58.5080014 100.7339992 124.6329978  59.0380014
 101.3219992 125.3089978  57.8180014 100.7661605 125.3023430  58.4872997
 106.0219992 126.4739978  58.2440014 105.7529992 126.6549978  59.1440014
 105.8149992 125.5489978  58.1120014 105.9571191 126.3737119  58.3495524
 102.8899992 121.6429978  59.0760014 102.7089992 121.4879978  58.1490014
 103.8399992 121.7509978  59.1210014 102.9936566 121.6363669  58.9550929
 112.2799992 123.9969978  58.5220014 112.0059992 123.5729978  57.7090014
 112.3189992 124.9289978  58.3050014 112.2477716 124.0648827  58.3814286
 102.7869992 132.3329978  60.0770014 103.7199992 132.4909978  60.2210014
 102.5229992 133.0089978  59.4520014 102.8789911 132.4459373  60.0122722
  96.3549992 126.9699978  59.5600014  97.2689992 127.0489978  59.8330014
  96.3629992 126.2829978  58.8940014  96.4810655 126.8879205  59.5072917
 111.7499992 120.0599978  59.2620014 111.8459992 120.7269978  58.5820014
 111.6099992 119.2449978  58.7810014 111.7442040 120.0410671  59.1038378
 110.9969992 117.4679978  58.3800014 111.6079992 117.0969978  59.0170014
 110.1599992 117.0469978  58.5760014 110.9674947 117.3602756  58.4937252
 113.1099992 116.3539978  59.9220014 113.5219992 115.6329978  59.4470014
 113.7909992 117.0229978  59.9800014 113.2585536 116.3457766  59.8648024
  96.6669992 114.4019978  61.0280014  97.1059992 115.0129978  60.4360014
  96.0329992 114.9399978  61.5020014  96.6413859 114.5584064  61.0110305
  96.5679992 130.3499978  61.9250014  95.8829992 130.3119978  61.2580014
  96.5719992 131.2629978  62.2130014  96.4747621 130.4681924  61.8726126
  98.5279992 116.3179978  59.4700014  99.0189992 115.6879978  58.9430014
  99.1509992 116.6139978  60.1330014  98.6795304 116.2717376  59.4874940
 105.4319992 131.5589978  60.3230014 106.2979992 131.9259978  60.1450014
 105.1859992 131.1199978  59.5090014 105.5172097 131.5498525  60.1886019
  98.3859992 131.2699978  58.9500014  98.1179992 131.5559978  59.8240014
  99.1569992 130.7239978  59.1030014  98.4535926 131.2352779  59.0901205
 124.5399992 121.4609978  59.6730014 125.2409992 121.4839978  60.3250014
 124.8419992 120.8329978  59.0170014 124.6768202 121.3792212  59.6735609
 126.7629992 122.3759978  61.2720014 127.3419992 122.5259978  62.0180014
 127.1769992 122.8459978  60.5480014 126.8983358 122.4600955  61.2763953
 127.0629992 131.2229978  60.1240014 127.4379992 130.4789978  59.6530014
 127.0679992 130.9529978  61.0420014 127.1150098 131.0846392  60.1836629
 126.7319992 131.1489978  62.8730014 125.7969992 131.2489978  63.0520014
 127.0119992 130.4389978  63.4520014 126.6419471 131.0667933  62.9756695
 128.2399992 123.4079978  58.9010014 128.2819992 123.1859978  57.9710014
 129.0889992 123.8069978  59.0910014 128.3605253 123.4315498  58.7993822
 123.8129992 117.2839978  59.5720014 123.5589992 117.3029978  60.4940014
 123.5559992 116.4129978  59.2700014 123.7434508 117.1688280  59.6574803
 120.6949992 117.7299978  58.6730014 120.2639992 117.2849978  59.4020014
 119.9769992 118.1009978  58.1600014 120.5389176 117.7192051  58.7034930
 126.5459992 117.8869978  60.1900014 125.6079992 117.9979978  60.0390014
 126.8439992 118.7429978  60.4970014 126.4576318 118.0180158  60.2108145
 127.2649992 119.7539978  61.8510014 128.1569992 119.6159978  62.1700014
 127.3209992 120.5449978  61.3140014 127.3947325 119.8419918  61.8221217
 124.7739992 126.5309978  61.0160014 124.4789992 127.3579978  61.3980014
 124.0709992 125.9119978  61.2130014 124.6386379 126.5604171  61.0948654
 132.3409992 131.2049978  60.0320014 133.0849992 131.7909978  59.8920014
 131.6469992 131.7739978  60.3650014 132.3489809 131.3620818  60.0578590
 121.9279992 127.8379978  58.2780014 122.1669992 127.0889978  57.7310014
 121.6589992 127.4499978  59.1110014 121.9243233 127.6831853  58.3157809
 120.8649992 127.4079978  60.7340014 121.0119992 126.8879978  61.5240014
 120.8619992 128.3149978  61.0410014 120.8847102 127.4593953  60.8835925
 123.6029992 129.1049978  61.4840014 122.7859992 129.6019978  61.5360014
 124.1319992 129.5809978  60.8430014 123.5628125 129.2371989  61.4045306
 119.6759992 116.8469978  61.0810014 119.5919992 117.7349978  61.4280014
 120.5659992 116.5819978  61.3130014 119.7848163 116.9327179  61.1598596
 117.9339992 127.2739978  60.1410014 118.5259992 127.9739978  60.4180014
 118.3929992 126.8409978  59.4220014 118.0771652 127.3112675  60.0816533
 116.2499992 119.9389978  59.2570014 116.2049992 120.8779978  59.4360014
 115.3619992 119.7029978  58.9880014 116.1238166 120.0356687  59.2451524
 123.9659992 129.7009978  58.4170014 123.3219992 129.0699978  58.7380014
 124.7279992 129.1699978  58.1850014 123.9808058 129.5427902  58.4296038
 128.5709992 129.5179978  58.6500014 128.8539992 128.7229978  59.1030014
 129.3099992 129.7509978  58.0890014 128.7097096 129.4407049  58.6361104
 119.5249992 125.4269978  58.5080014 119.5899992 124.6329978  59.0380014
 120.1779992 125.3089978  57.8180014 119.6221605 125.3023430  58.4872997
 124.8779992 126.4739978  58.2440014 124.6089992 126.6549978  59.1440014
 124.6709992 125.5489978  58.1120014 124.8131191 126.3737119  58.3495524
 121.7459992 121.6429978  59.0760014 121.5649992 121.4879978  58.1490014
 122.6959992 121.7509978  59.1210014 121.8496566 121.6363669  58.9550929
 131.1359992 123.9969978  58.5220014 130.8619992 123.5729978  57.7090014
 131.1749992 124.9289978  58.3050014 131.1037716 124.0648827  58.3814286
 115.2109992 126.9699978  59.5600014 116.1249992 127.0489978  59.8330014
 115.2189992 126.2829978  58.8940014 115.3370655 126.8879205  59.5072917
 132.2569992 122.8209978  60.7110014 131.7349992 123.1769978  59.9930014
 132.2239992 123.4959978  61.3900014 132.1810129 122.9609598  60.7043355
 130.6059992 120.0599978  59.2620014 130.7019992 120.7269978  58.5820014
 130.4659992 119.2449978  58.7810014 130.6002040 120.0410671  59.1038378
 129.8529992 117.4679978  58.3800014 130.4639992 117.0969978  59.0170014
 129.0159992 117.0469978  58.5760014 129.8234947 117.3602756  58.4937252
 131.9659992 116.3539978  59.9220014 132.3779992 115.6329978  59.4470014
 132.6469992 117.0229978  59.9800014 132.1145536 116.3457766  59.8648024
 115.4239992 130.3499978  61.9250014 114.7389992 130.3119978  61.2580014
 115.4279992 131.2629978  62.2130014 115.3307621 130.4681924  61.8726126
 117.3839992 116.3179978  59.4700014 117.8749992 115.6879978  58.9430014
 118.0069992 116.6139978  60.1330014 117.5355304 116.2717376  59.4874940
 124.2879992 131.5589978  60.3230014 125.1539992 131.9259978  60.1450014
 124.0419992 131.1199978  59.5090014 124.3732097 131.5498525  60.1886019
 117.2419992 131.2699978  58.9500014 116.9739992 131.5559978  59.8240014
 118.0129992 130.7239978  59.1030014 117.3095926 131.2352779  59.0901205
 134.1469992 126.1719978  62.5380014 133.8749992 126.4009978  61.6500014
 134.1919992 127.0089978  62.9990014 134.1158097 126.3166163  62.4786683
 143.3419992 123.0039978  62.6350014 142.6309992 123.5389978  62.2830014
 144.0329992 123.0589978  61.9750014 143.3380751 123.0846777  62.4975858
 143.3959992 121.4609978  59.6730014 144.0969992 121.4839978  60.3250014
 143.6979992 120.8329978  59.0170014 143.5328202 121.3792212  59.6735609
 142.6689992 117.2839978  59.5720014 142.4149992 117.3029978  60.4940014
 142.4119992 116.4129978  59.2700014 142.5994508 117.1688280  59.6574803
 139.5509992 117.7299978  58.6730014 139.1199992 117.2849978  59.4020014
 138.8329992 118.1009978  58.1600014 139.3949176 117.7192052  58.7034930
 134.0679992 118.2179978  61.1490014 134.5419992 118.8089978  60.5640014
 133.3499992 118.7479978  61.4960014 134.0358640 118.3705511  61.1157969
 145.4019992 117.8869978  60.1900014 144.4639992 117.9979978  60.0390014
 145.6999992 118.7429978  60.4970014 145.3136318 118.0180158  60.2108145
 134.7589992 122.7479978  59.7520014 135.3749992 123.3749978  60.1320014
 133.8969992 123.0639978  60.0240014 134.7267678 122.8764412  59.8407209
 140.7839992 127.8379978  58.2780014 141.0229992 127.0889978  57.7310014
 140.5149992 127.4499978  59.1110014 140.7803233 127.6831853  58.3157809
 139.7209992 127.4079978  60.7340014 139.8679992 126.8879978  61.5240014
 139.7179992 128.3149978  61.0410014 139.7407102 127.4593953  60.8835925
 144.7899992 116.9749978  62.6210014 145.0099992 117.4459978  61.8170014
 145.3489992 117.3689978  63.2910014 144.8956731 117.0927287  62.6015033
 136.7899992 127.2739978  60.1410014 137.3819992 127.9739978  60.4180014
 137.2489992 126.8409978  59.4220014 136.9331652 127.3112675  60.0816533
 135.1059992 119.9389978  59.2570014 135.0609992 120.8779978  59.4360014
 134.2179992 119.7029978  58.9880014 134.9798166 120.0356687  59.2451524
 142.8219992 129.7009978  58.4170014 142.1779992 129.0699978  58.7380014
 143.5839992 129.1699978  58.1850014 142.8368058 129.5427902  58.4296038
 138.3809992 125.4269978  58.5080014 138.4459992 124.6329978  59.0380014
 139.0339992 125.3089978  57.8180014 138.4781605 125.3023430  58.4872997
 143.7339992 126.4739978  58.2440014 143.4649992 126.6549978  59.1440014
 143.5269992 125.5489978  58.1120014 143.6691191 126.3737119  58.3495524
 140.6019992 121.6429978  59.0760014 140.4209992 121.4879978  58.1490014
 141.5519992 121.7509978  59.1210014 140.7056566 121.6363669  58.9550929
 140.4989992 132.3329978  60.0770014 141.4319992 132.4909978  60.2210014
 140.2349992 133.0089978  59.4520014 140.5909911 132.4459373  60.0122722
 134.0669992 126.9699978  59.5600014 134.9809992 127.0489978  59.8330014
 134.0749992 126.2829978  58.8940014 134.1930655 126.8879205  59.5072917
 136.2399992 116.3179978  59.4700014 136.7309992 115.6879978  58.9430014
 136.8629992 116.6139978  60.1330014 136.3915304 116.2717376  59.4874940
 141.2659992 116.6109978  61.9270014 141.4439992 115.9639978  62.6100014
 141.2119992 117.4449978  62.3940014 141.2830678 116.6351604  62.0836301
 143.1439992 131.5589978  60.3230014 144.0099992 131.9259978  60.1450014
 142.8979992 131.1199978  59.5090014 143.2292097 131.5498525  60.1886019
 136.0979992 131.2699978  58.9500014 135.8299992 131.5559978  59.8240014
 136.8689992 130.7239978  59.1030014 136.1655926 131.2352779  59.0901205
  11.4039992 140.3169978  59.6730014  12.1049992 140.3399978  60.3250014
  11.7059992 139.6889978  59.0170014  11.5408202 140.2352212  59.6735609
  15.1039992 142.2639978  58.9010014  15.1459992 142.0419978  57.9710014
  15.9529992 142.6629978  59.0910014  15.2245253 142.2875498  58.7993822
  10.6769992 136.1399978  59.5720014  10.4229992 136.1589978  60.4940014
  10.4199992 135.2689978  59.2700014  10.6074508 136.0248280  59.6574803
   7.5589992 136.5859978  58.6730014   7.1279992 136.1409978  59.4020014
   6.8409992 136.9569978  58.1600014   7.4029176 136.5752051  58.7034930
   2.0759992 137.0739978  61.1490014   2.5499992 137.6649978  60.5640014
   1.3579992 137.6039978  61.4960014   2.0438640 137.2265511  61.1157969
   6.1769992 139.3629978  60.0550014   5.6349992 138.9839978  59.3640014
   7.0109992 139.5579978  59.6270014   6.2154390 139.3374079  59.9024392
  13.4099992 136.7429978  60.1900014  12.4719992 136.8539978  60.0390014
  13.7079992 137.5989978  60.4970014  13.3216318 136.8740158  60.2108145
  11.6379992 145.3869978  61.0160014  11.3429992 146.2139978  61.3980014
  10.9349992 144.7679978  61.2130014  11.5026379 145.4164171  61.0948654
   2.7669992 141.6039978  59.7520014   3.3829992 142.2309978  60.1320014
   1.9049992 141.9199978  60.0240014   2.7347678 141.7324412  59.8407209
  15.5669992 144.2539978  62.0580014  15.2899992 143.5259978  62.6140014
  16.4949992 144.3729978  62.2630014  15.6544499 144.1704213  62.1618044
   3.1139992 138.7949978  59.2570014   3.0689992 139.7339978  59.4360014
   2.2259992 138.5589978  58.9880014   2.9878166 138.8916687  59.2451524
   6.3889992 144.2829978  58.5080014   6.4539992 143.4889978  59.0380014
   7.0419992 144.1649978  57.8180014   6.4861605 144.1583430  58.4872997
  11.7419992 145.3299978  58.2440014  11.4729992 145.5109978  59.1440014
  11.5349992 144.4049978  58.1120014  11.6771191 145.2297119  58.3495524
   8.6099992 140.4989978  59.0760014   8.4289992 140.3439978  58.1490014
   9.5599992 140.6069978  59.1210014   8.7136566 140.4923669  58.9550929
  17.9999992 142.8529978  58.5220014  17.7259992 142.4289978  57.7090014
  18.0389992 143.7849978  58.3050014  17.9677716 142.9208827  58.3814286
  17.4699992 138.9159978  59.2620014  17.5659992 139.5829978  58.5820014
  17.3299992 138.1009978  58.7810014  17.4642040 138.8970671  59.1038378
  16.7169992 136.3239978  58.3800014  17.3279992 135.9529978  59.0170014
  15.8799992 135.9029978  58.5760014  16.6874947 136.2162756  58.4937252
  18.8299992 135.2099978  59.9220014  19.2419992 134.4889978  59.4470014
  19.5109992 135.8789978  59.9800014  18.9785536 135.2017766  59.8648024
   2.3869992 133.2579978  61.0280014   2.8259992 133.8689978  60.4360014
   1.7529992 133.7959978  61.5020014   2.3613859 133.4144064  61.0110305
   4.2479992 135.1739978  59.4700014   4.7389992 134.5439978  58.9430014
   4.8709992 135.4699978  60.1330014   4.3995304 135.1277376  59.4874940
  30.2599992 140.3169978  59.6730014  30.9609992 140.3399978  60.3250014
  30.5619992 139.6889978  59.0170014  30.3968202 140.2352212  59.6735609
  36.1819992 132.9819978  61.0850014  35.2819992 133.1209978  61.3800014
  36.4339992 133.8129978  60.6830014  36.0928683 133.1134055  61.0710232
  33.9599992 142.2639978  58.9010014  34.0019992 142.0419978  57.9710014
  34.8089992 142.6629978  59.0910014  34.0805253 142.2875498  58.7993822
  29.5329992 136.1399978  59.5720014  29.2789992 136.1589978  60.4940014
  29.2759992 135.2689978  59.2700014  29.4634508 136.0248280  59.6574803
  26.4149992 136.5859978  58.6730014  25.9839992 136.1409978  59.4020014
  25.6969992 136.9569978  58.1600014  26.2589176 136.5752051  58.7034930
  25.0329992 139.3629978  60.0550014  24.4909992 138.9839978  59.3640014
  25.8669992 139.5579978  59.6270014  25.0714390 139.3374079  59.9024392
  32.2659992 136.7429978  60.1900014  31.3279992 136.8539978  60.0390014
  32.5639992 137.5989978  60.4970014  32.1776318 136.8740158  60.2108145
  32.9849992 138.6099978  61.8510014  33.8769992 138.4719978  62.1700014
  33.0409992 139.4009978  61.3140014  33.1147325 138.6979918  61.8221217
  25.3959992 135.7029978  61.0810014  25.3119992 136.5909978  61.4280014
  26.2859992 135.4379978  61.3130014  25.5048163 135.7887179  61.1598596
  21.9699992 138.7949978  59.2570014  21.9249992 139.7339978  59.4360014
  21.0819992 138.5589978  58.9880014  21.8438166 138.8916687  59.2451524
  25.2449992 144.2829978  58.5080014  25.3099992 143.4889978  59.0380014
  25.8979992 144.1649978  57.8180014  25.3421605 144.1583430  58.4872997
  30.5979992 145.3299978  58.2440014  30.3289992 145.5109978  59.1440014
  30.3909992 144.4049978  58.1120014  30.5331191 145.2297119  58.3495524
  26.3949992 142.2559978  60.8140014  25.9349992 141.7719978  61.4990014
  26.6499992 141.5869978  60.1780014  26.3664856 142.0993669  60.8218397
  27.4659992 140.4989978  59.0760014  27.2849992 140.3439978  58.1490014
  28.4159992 140.6069978  59.1210014  27.5696566 140.4923669  58.9550929
  36.8559992 142.8529978  58.5220014  36.5819992 142.4289978  57.7090014
  36.8949992 143.7849978  58.3050014  36.8237716 142.9208827  58.3814286
  37.3139992 143.7219978  62.4970014  38.1639992 144.1429978  62.6240014
  37.3189992 142.9819978  63.1040014  37.4311143 143.6796094  62.5964750
  37.9769992 141.6769978  60.7110014  37.4549992 142.0329978  59.9930014
  37.9439992 142.3519978  61.3900014  37.9010129 141.8169598  60.7043355
  36.3259992 138.9159978  59.2620014  36.4219992 139.5829978  58.5820014
  36.1859992 138.1009978  58.7810014  36.3202040 138.8970671  59.1038378
  35.5729992 136.3239978  58.3800014  36.1839992 135.9529978  59.0170014
  34.7359992 135.9029978  58.5760014  35.5434947 136.2162756  58.4937252
  37.6859992 135.2099978  59.9220014  38.0979992 134.4889978  59.4470014
  38.3669992 135.8789978  59.9800014  37.8345536 135.2017766  59.8648024
  23.1039992 135.1739978  59.4700014  23.5949992 134.5439978  58.9430014
  23.7269992 135.4699978  60.1330014  23.2555304 135.1277376  59.4874940
  28.1299992 135.4669978  61.9270014  28.3079992 134.8199978  62.6100014
  28.0759992 136.3009978  62.3940014  28.1470678 135.4911604  62.0836301
  39.8669992 145.0279978  62.5380014  39.5949992 145.2569978  61.6500014
  39.9119992 145.8649978  62.9990014  39.8358097 145.1726163  62.4786683
  49.1159992 140.3169978  59.6730014  49.8169992 140.3399978  60.3250014
  49.4179992 139.6889978  59.0170014  49.2528202 140.2352212  59.6735609
  51.3389992 141.2319978  61.2720014  51.9179992 141.3819978  62.0180014
  51.7529992 141.7019978  60.5480014  51.4743358 141.3160954  61.2763953
  52.8159992 142.2639978  58.9010014  52.8579992 142.0419978  57.9710014
  53.6649992 142.6629978  59.0910014  52.9365253 142.2875498  58.7993822
  48.3889992 136.1399978  59.5720014  48.1349992 136.1589978  60.4940014
  48.1319992 135.2689978  59.2700014  48.3194508 136.0248280  59.6574803
  45.2709992 136.5859978  58.6730014  44.8399992 136.1409978  59.4020014
  44.5529992 136.9569978  58.1600014  45.1149176 136.5752051  58.7034930
  45.2149992 138.1689978  62.4890014  46.1469992 138.2979978  62.6670014
  44.9999992 138.8379978  61.8390014  45.3134472 138.2770806  62.4254891
  43.8889992 139.3629978  60.0550014  43.3469992 138.9839978  59.3640014
  44.7229992 139.5579978  59.6270014  43.9274390 139.3374079  59.9024392
  49.3499992 145.3869978  61.0160014  49.0549992 146.2139978  61.3980014
  48.6469992 144.7679978  61.2130014  49.2146379 145.4164171  61.0948654
  56.7259992 138.8189978  61.5460014  56.1709992 138.4229978  60.8730014
  56.8259992 139.7299978  61.2680014  56.6636816 138.8879505  61.4165033
  40.4789992 141.6039978  59.7520014  41.0949992 142.2309978  60.1320014
  39.6169992 141.9199978  60.0240014  40.4467678 141.7324412  59.8407209
  53.2789992 144.2539978  62.0580014  53.0019992 143.5259978  62.6140014
  54.2069992 144.3729978  62.2630014  53.3664499 144.1704213  62.1618044
  40.8259992 138.7949978  59.2570014  40.7809992 139.7339978  59.4360014
  39.9379992 138.5589978  58.9880014  40.6998166 138.8916687  59.2451524
  44.1009992 144.2829978  58.5080014  44.1659992 143.4889978  59.0380014
  44.7539992 144.1649978  57.8180014  44.1981605 144.1583430  58.4872997
  49.4539992 145.3299978  58.2440014  49.1849992 145.5109978  59.1440014
  49.2469992 144.4049978  58.1120014  49.3891191 145.2297119  58.3495524
  45.2509992 142.2559978  60.8140014  44.7909992 141.7719978  61.4990014
  45.5059992 141.5869978  60.1780014  45.2224856 142.0993669  60.8218397
  46.3219992 140.4989978  59.0760014  46.1409992 140.3439978  58.1490014
  47.2719992 140.6069978  59.1210014  46.4256566 140.4923669  58.9550929
  55.7119992 142.8529978  58.5220014  55.4379992 142.4289978  57.7090014
  55.7509992 143.7849978  58.3050014  55.6797716 142.9208827  58.3814286
  56.1699992 143.7219978  62.4970014  57.0199992 144.1429978  62.6240014
  56.1749992 142.9819978  63.1040014  56.2871143 143.6796094  62.5964750
  56.8329992 141.6769978  60.7110014  56.3109992 142.0329978  59.9930014
  56.7999992 142.3519978  61.3900014  56.7570129 141.8169598  60.7043355
  55.1819992 138.9159978  59.2620014  55.2779992 139.5829978  58.5820014
  55.0419992 138.1009978  58.7810014  55.1762040 138.8970671  59.1038378
  54.4289992 136.3239978  58.3800014  55.0399992 135.9529978  59.0170014
  53.5919992 135.9029978  58.5760014  54.3994947 136.2162755  58.4937252
  56.5419992 135.2099978  59.9220014  56.9539992 134.4889978  59.4470014
  57.2229992 135.8789978  59.9800014  56.6905536 135.2017766  59.8648024
  40.0989992 133.2579978  61.0280014  40.5379992 133.8689978  60.4360014
  39.4649992 133.7959978  61.5020014  40.0733859 133.4144064  61.0110305
  41.9599992 135.1739978  59.4700014  42.4509992 134.5439978  58.9430014
  42.5829992 135.4699978  60.1330014  42.1115304 135.1277376  59.4874940
  67.9719992 140.3169978  59.6730014  68.6729992 140.3399978  60.3250014
  68.2739992 139.6889978  59.0170014  68.1088202 140.2352212  59.6735609
  71.6719992 142.2639978  58.9010014  71.7139992 142.0419978  57.9710014
  72.5209992 142.6629978  59.0910014  71.7925253 142.2875498  58.7993822
  67.2449992 136.1399978  59.5720014  66.9909992 136.1589978  60.4940014
  66.9879992 135.2689978  59.2700014  67.1754508 136.0248280  59.6574803
  64.1269992 136.5859978  58.6730014  63.6959992 136.1409978  59.4020014
  63.4089992 136.9569978  58.1600014  63.9709176 136.5752051  58.7034930
  62.7449992 139.3629978  60.0550014  62.2029992 138.9839978  59.3640014
  63.5789992 139.5579978  59.6270014  62.7834390 139.3374079  59.9024392
  66.0809992 143.9289978  61.9910014  65.3359992 143.4209978  61.6690014
  65.9459992 143.9779978  62.9370014  65.9608963 143.8661731  62.0748826
  69.9779992 136.7429978  60.1900014  69.0399992 136.8539978  60.0390014
  70.2759992 137.5989978  60.4970014  69.8896318 136.8740158  60.2108145
  68.2059992 145.3869978  61.0160014  67.9109992 146.2139978  61.3980014
  67.5029992 144.7679978  61.2130014  68.0706379 145.4164171  61.0948654
  59.3349992 141.6039978  59.7520014  59.9509992 142.2309978  60.1320014
  58.4729992 141.9199978  60.0240014  59.3027678 141.7324412  59.8407209
  72.1349992 144.2539978  62.0580014  71.8579992 143.5259978  62.6140014
  73.0629992 144.3729978  62.2630014  72.2224499 144.1704213  62.1618044
  59.6819992 138.7949978  59.2570014  59.6369992 139.7339978  59.4360014
  58.7939992 138.5589978  58.9880014  59.5558166 138.8916687  59.2451524
  62.9569992 144.2829978  58.5080014  63.0219992 143.4889978  59.0380014
  63.6099992 144.1649978  57.8180014  63.0541605 144.1583430  58.4872997
  68.3099992 145.3299978  58.2440014  68.0409992 145.5109978  59.1440014
  68.1029992 144.4049978  58.1120014  68.2451191 145.2297119  58.3495524
  65.1779992 140.4989978  59.0760014  64.9969992 140.3439978  58.1490014
  66.1279992 140.6069978  59.1210014  65.2816566 140.4923669  58.9550929
  74.5679992 142.8529978  58.5220014  74.2939992 142.4289978  57.7090014
  74.6069992 143.7849978  58.3050014  74.5357716 142.9208827  58.3814286
  75.6889992 141.6769978  60.7110014  75.1669992 142.0329978  59.9930014
  75.6559992 142.3519978  61.3900014  75.6130129 141.8169598  60.7043355
  74.0379992 138.9159978  59.2620014  74.1339992 139.5829978  58.5820014
  73.8979992 138.1009978  58.7810014  74.0322040 138.8970671  59.1038378
  73.2849992 136.3239978  58.3800014  73.8959992 135.9529978  59.0170014
  72.4479992 135.9029978  58.5760014  73.2554947 136.2162756  58.4937252
  75.3979992 135.2099978  59.9220014  75.8099992 134.4889978  59.4470014
  76.0789992 135.8789978  59.9800014  75.5465536 135.2017766  59.8648024
  58.9549992 133.2579978  61.0280014  59.3939992 133.8689978  60.4360014
  58.3209992 133.7959978  61.5020014  58.9293859 133.4144064  61.0110305
  60.8159992 135.1739978  59.4700014  61.3069992 134.5439978  58.9430014
  61.4389992 135.4699978  60.1330014  60.9675304 135.1277376  59.4874940
  65.8419992 135.4669978  61.9270014  66.0199992 134.8199978  62.6100014
  65.7879992 136.3009978  62.3940014  65.8590678 135.4911604  62.0836301
  86.8279992 140.3169978  59.6730014  87.5289992 140.3399978  60.3250014
  87.1299992 139.6889978  59.0170014  86.9648202 140.2352212  59.6735609
  89.0509992 141.2319978  61.2720014  89.6299992 141.3819978  62.0180014
  89.4649992 141.7019978  60.5480014  89.1863358 141.3160954  61.2763953
  90.5279992 142.2639978  58.9010014  90.5699992 142.0419978  57.9710014
  91.3769992 142.6629978  59.0910014  90.6485253 142.2875498  58.7993822
  86.1009992 136.1399978  59.5720014  85.8469992 136.1589978  60.4940014
  85.8439992 135.2689978  59.2700014  86.0314508 136.0248280  59.6574803
  82.9829992 136.5859978  58.6730014  82.5519992 136.1409978  59.4020014
  82.2649992 136.9569978  58.1600014  82.8269176 136.5752051  58.7034930
  77.4999992 137.0739978  61.1490014  77.9739992 137.6649978  60.5640014
  76.7819992 137.6039978  61.4960014  77.4678640 137.2265511  61.1157969
  84.9369992 143.9289978  61.9910014  84.1919992 143.4209978  61.6690014
  84.8019992 143.9779978  62.9370014  84.8168963 143.8661731  62.0748826
  88.8339992 136.7429978  60.1900014  87.8959992 136.8539978  60.0390014
  89.1319992 137.5989978  60.4970014  88.7456318 136.8740158  60.2108145
  89.5529992 138.6099978  61.8510014  90.4449992 138.4719978  62.1700014
  89.6089992 139.4009978  61.3140014  89.6827325 138.6979918  61.8221217
  87.0619992 145.3869978  61.0160014  86.7669992 146.2139978  61.3980014
  86.3589992 144.7679978  61.2130014  86.9266379 145.4164171  61.0948654
  78.1909992 141.6039978  59.7520014  78.8069992 142.2309978  60.1320014
  77.3289992 141.9199978  60.0240014  78.1587678 141.7324412  59.8407209
  90.9909992 144.2539978  62.0580014  90.7139992 143.5259978  62.6140014
  91.9189992 144.3729978  62.2630014  91.0784499 144.1704213  62.1618044
  88.2219992 135.8309978  62.6210014  88.4419992 136.3019978  61.8170014
  88.7809992 136.2249978  63.2910014  88.3276731 135.9487287  62.6015033
  81.9639992 135.7029978  61.0810014  81.8799992 136.5909978  61.4280014
  82.8539992 135.4379978  61.3130014  82.0728163 135.7887179  61.1598596
  78.5379992 138.7949978  59.2570014  78.4929992 139.7339978  59.4360014
  77.6499992 138.5589978  58.9880014  78.4118166 138.8916687  59.2451524
  81.8129992 144.2829978  58.5080014  81.8779992 143.4889978  59.0380014
  82.4659992 144.1649978  57.8180014  81.9101605 144.1583430  58.4872997
  87.1659992 145.3299978  58.2440014  86.8969992 145.5109978  59.1440014
  86.9589992 144.4049978  58.1120014  87.1011191 145.2297119  58.3495524
  93.4239992 142.8529978  58.5220014  93.1499992 142.4289978  57.7090014
  93.4629992 143.7849978  58.3050014  93.3917716 142.9208827  58.3814286
  93.8819992 143.7219978  62.4970014  94.7319992 144.1429978  62.6240014
  93.8869992 142.9819978  63.1040014  93.9991143 143.6796094  62.5964750
  94.5449992 141.6769978  60.7110014  94.0229992 142.0329978  59.9930014
  94.5119992 142.3519978  61.3900014  94.4690129 141.8169598  60.7043355
  92.8939992 138.9159978  59.2620014  92.9899992 139.5829978  58.5820014
  92.7539992 138.1009978  58.7810014  92.8882040 138.8970671  59.1038378
  92.1409992 136.3239978  58.3800014  92.7519992 135.9529978  59.0170014
  91.3039992 135.9029978  58.5760014  92.1114947 136.2162756  58.4937252
  90.4639992 133.4419978  62.3790014  89.7609992 134.0569978  62.1690014
  90.0189992 132.6049978  62.5100014  90.3076550 133.4129668  62.3679837
  79.6719992 135.1739978  59.4700014  80.1629992 134.5439978  58.9430014
  80.2949992 135.4699978  60.1330014  79.8235304 135.1277376  59.4874940
 105.6839992 140.3169978  59.6730014 106.3849992 140.3399978  60.3250014
 105.9859992 139.6889978  59.0170014 105.8208202 140.2352212  59.6735609
 111.6059992 132.9819978  61.0850014 110.7059992 133.1209978  61.3800014
 111.8579992 133.8129978  60.6830014 111.5168683 133.1134055  61.0710232
 109.3839992 142.2639978  58.9010014 109.4259992 142.0419978  57.9710014
 110.2329992 142.6629978  59.0910014 109.5045253 142.2875498  58.7993822
 104.9569992 136.1399978  59.5720014 104.7029992 136.1589978  60.4940014
 104.6999992 135.2689978  59.2700014 104.8874508 136.0248280  59.6574803
 101.8389992 136.5859978  58.6730014 101.4079992 136.1409978  59.4020014
 101.1209992 136.9569978  58.1600014 101.6829176 136.5752051  58.7034930
  96.3559992 137.0739978  61.1490014  96.8299992 137.6649978  60.5640014
  95.6379992 137.6039978  61.4960014  96.3238640 137.2265511  61.1157969
 100.4569992 139.3629978  60.0550014  99.9149992 138.9839978  59.3640014
 101.2909992 139.5579978  59.6270014 100.4954390 139.3374079  59.9024392
 103.7929992 143.9289978  61.9910014 103.0479992 143.4209978  61.6690014
 103.6579992 143.9779978  62.9370014 103.6728963 143.8661731  62.0748826
 105.9179992 145.3869978  61.0160014 105.6229992 146.2139978  61.3980014
 105.2149992 144.7679978  61.2130014 105.7826379 145.4164171  61.0948654
  97.3939992 138.7949978  59.2570014  97.3489992 139.7339978  59.4360014
  96.5059992 138.5589978  58.9880014  97.2678166 138.8916687  59.2451524
 100.6689992 144.2829978  58.5080014 100.7339992 143.4889978  59.0380014
 101.3219992 144.1649978  57.8180014 100.7661605 144.1583430  58.4872997
 106.0219992 145.3299978  58.2440014 105.7529992 145.5109978  59.1440014
 105.8149992 144.4049978  58.1120014 105.9571191 145.2297119  58.3495524
 102.8899992 140.4989978  59.0760014 102.7089992 140.3439978  58.1490014
 103.8399992 140.6069978  59.1210014 102.9936566 140.4923669  58.9550929
 112.2799992 142.8529978  58.5220014 112.0059992 142.4289978  57.7090014
 112.3189992 143.7849978  58.3050014 112.2477716 142.9208827  58.3814286
 113.4009992 141.6769978  60.7110014 112.8789992 142.0329978  59.9930014
 113.3679992 142.3519978  61.3900014 113.3250129 141.8169598  60.7043355
 111.7499992 138.9159978  59.2620014 111.8459992 139.5829978  58.5820014
 111.6099992 138.1009978  58.7810014 111.7442040 138.8970671  59.1038378
 110.9969992 136.3239978  58.3800014 111.6079992 135.9529978  59.0170014
 110.1599992 135.9029978  58.5760014 110.9674947 136.2162756  58.4937252
 113.1099992 135.2099978  59.9220014 113.5219992 134.4889978  59.4470014
 113.7909992 135.8789978  59.9800014 113.2585536 135.2017766  59.8648024
  96.6669992 133.2579978  61.0280014  97.1059992 133.8689978  60.4360014
  96.0329992 133.7959978  61.5020014  96.6413859 133.4144064  61.0110305
  98.5279992 135.1739978  59.4700014  99.0189992 134.5439978  58.9430014
  99.1509992 135.4699978  60.1330014  98.6795304 135.1277376  59.4874940
 124.5399992 140.3169978  59.6730014 125.2409992 140.3399978  60.3250014
 124.8419992 139.6889978  59.0170014 124.6768202 140.2352212  59.6735609
 126.7629992 141.2319978  61.2720014 127.3419992 141.3819978  62.0180014
 127.1769992 141.7019978  60.5480014 126.8983358 141.3160955  61.2763953
 130.4619992 132.9819978  61.0850014 129.5619992 133.1209978  61.3800014
 130.7139992 133.8129978  60.6830014 130.3728683 133.1134055  61.0710232
 128.2399992 142.2639978  58.9010014 128.2819992 142.0419978  57.9710014
 129.0889992 142.6629978  59.0910014 128.3605253 142.2875498  58.7993822
 123.8129992 136.1399978  59.5720014 123.5589992 136.1589978  60.4940014
 123.5559992 135.2689978  59.2700014 123.7434508 136.0248280  59.6574803
 120.6949992 136.5859978  58.6730014 120.2639992 136.1409978  59.4020014
 119.9769992 136.9569978  58.1600014 120.5389176 136.5752051  58.7034930
 119.3129992 139.3629978  60.0550014 118.7709992 138.9839978  59.3640014
 120.1469992 139.5579978  59.6270014 119.3514390 139.3374079  59.9024392
 126.5459992 136.7429978  60.1900014 125.6079992 136.8539978  60.0390014
 126.8439992 137.5989978  60.4970014 126.4576318 136.8740158  60.2108145
 127.2649992 138.6099978  61.8510014 128.1569992 138.4719978  62.1700014
 127.3209992 139.4009978  61.3140014 127.3947325 138.6979918  61.8221217
 124.7739992 145.3869978  61.0160014 124.4789992 146.2139978  61.3980014
 124.0709992 144.7679978  61.2130014 124.6386379 145.4164171  61.0948654
 115.9029992 141.6039978  59.7520014 116.5189992 142.2309978  60.1320014
 115.0409992 141.9199978  60.0240014 115.8707678 141.7324412  59.8407209
 128.7029992 144.2539978  62.0580014 128.4259992 143.5259978  62.6140014
 129.6309992 144.3729978  62.2630014 128.7904499 144.1704213  62.1618044
 119.6759992 135.7029978  61.0810014 119.5919992 136.5909978  61.4280014
 120.5659992 135.4379978  61.3130014 119.7848163 135.7887179  61.1598596
 116.2499992 138.7949978  59.2570014 116.2049992 139.7339978  59.4360014
 115.3619992 138.5589978  58.9880014 116.1238166 138.8916687  59.2451524
 119.5249992 144.2829978  58.5080014 119.5899992 143.4889978  59.0380014
 120.1779992 144.1649978  57.8180014 119.6221605 144.1583430  58.4872997
 124.8779992 145.3299978  58.2440014 124.6089992 145.5109978  59.1440014
 124.6709992 144.4049978  58.1120014 124.8131191 145.2297119  58.3495524
 121.7459992 140.4989978  59.0760014 121.5649992 140.3439978  58.1490014
 122.6959992 140.6069978  59.1210014 121.8496566 140.4923669  58.9550929
 131.1359992 142.8529978  58.5220014 130.8619992 142.4289978  57.7090014
 131.1749992 143.7849978  58.3050014 131.1037716 142.9208827  58.3814286
 131.5939992 143.7219978  62.4970014 132.4439992 144.1429978  62.6240014
 131.5989992 142.9819978  63.1040014 131.7111143 143.6796094  62.5964750
 132.2569992 141.6769978  60.7110014 131.7349992 142.0329978  59.9930014
 132.2239992 142.3519978  61.3900014 132.1810129 141.8169598  60.7043355
 130.6059992 138.9159978  59.2620014 130.7019992 139.5829978  58.5820014
 130.4659992 138.1009978  58.7810014 130.6002040 138.8970671  59.1038378
 129.8529992 136.3239978  58.3800014 130.4639992 135.9529978  59.0170014
 129.0159992 135.9029978  58.5760014 129.8234947 136.2162756  58.4937252
 131.9659992 135.2099978  59.9220014 132.3779992 134.4889978  59.4470014
 132.6469992 135.8789978  59.9800014 132.1145536 135.2017766  59.8648024
 115.5229992 133.2579978  61.0280014 115.9619992 133.8689978  60.4360014
 114.8889992 133.7959978  61.5020014 115.4973859 133.4144064  61.0110305
 117.3839992 135.1739978  59.4700014 117.8749992 134.5439978  58.9430014
 118.0069992 135.4699978  60.1330014 117.5355304 135.1277376  59.4874940
 143.3959992 140.3169978  59.6730014 144.0969992 140.3399978  60.3250014
 143.6979992 139.6889978  59.0170014 143.5328202 140.2352212  59.6735609
 142.6689992 136.1399978  59.5720014 142.4149992 136.1589978  60.4940014
 142.4119992 135.2689978  59.2700014 142.5994508 136.0248280  59.6574803
 139.5509992 136.5859978  58.6730014 139.1199992 136.1409978  59.4020014
 138.8329992 136.9569978  58.1600014 139.3949176 136.5752052  58.7034930
 141.5049992 143.9289978  61.9910014 140.7599992 143.4209978  61.6690014
 141.3699992 143.9779978  62.9370014 141.3848963 143.8661731  62.0748826
 145.4019992 136.7429978  60.1900014 144.4639992 136.8539978  60.0390014
 145.6999992 137.5989978  60.4970014 145.3136318 136.8740158  60.2108145
 143.6299992 145.3869978  61.0160014 143.3349992 146.2139978  61.3980014
 142.9269992 144.7679978  61.2130014 143.4946379 145.4164171  61.0948654
 134.7589992 141.6039978  59.7520014 135.3749992 142.2309978  60.1320014
 133.8969992 141.9199978  60.0240014 134.7267678 141.7324412  59.8407209
 138.5319992 135.7029978  61.0810014 138.4479992 136.5909978  61.4280014
 139.4219992 135.4379978  61.3130014 138.6408163 135.7887179  61.1598596
 135.1059992 138.7949978  59.2570014 135.0609992 139.7339978  59.4360014
 134.2179992 138.5589978  58.9880014 134.9798166 138.8916687  59.2451524
 138.3809992 144.2829978  58.5080014 138.4459992 143.4889978  59.0380014
 139.0339992 144.1649978  57.8180014 138.4781605 144.1583430  58.4872997
 143.7339992 145.3299978  58.2440014 143.4649992 145.5109978  59.1440014
 143.5269992 144.4049978  58.1120014 143.6691191 145.2297119  58.3495524
 140.6019992 140.4989978  59.0760014 140.4209992 140.3439978  58.1490014
 141.5519992 140.6069978  59.1210014 140.7056566 140.4923669  58.9550929
 134.3789992 133.2579978  61.0280014 134.8179992 133.8689978  60.4360014
 133.7449992 133.7959978  61.5020014 134.3533859 133.4144064  61.0110305
 136.2399992 135.1739978  59.4700014 136.7309992 134.5439978  58.9430014
 136.8629992 135.4699978  60.1330014 136.3915304 135.1277376  59.4874940
 146.3499985 146.2439957 166.0920029  90.0000000  90.0000000  90.0000000
